# vtk DataFile Version 2.0
FlowField
ASCII
DATASET STRUCTURED_GRID
DIMENSIONS 800 1 200
POINTS 160000 float
0 0 0
0.08 0 0
0.16 0 0
0.24 0 0
0.32 0 0
0.4 0 0
0.48 0 0
0.56 0 0
0.64 0 0
0.72 0 0
0.8 0 0
0.88 0 0
0.96 0 0
1.04 0 0
1.12 0 0
1.2 0 0
1.28 0 0
1.36 0 0
1.44 0 0
1.52 0 0
1.6 0 0
1.68 0 0
1.76 0 0
1.84 0 0
1.92 0 0
2 0 0
2.08 0 0
2.16 0 0
2.24 0 0
2.32 0 0
2.4 0 0
2.48 0 0
2.56 0 0
2.64 0 0
2.72 0 0
2.8 0 0
2.88 0 0
2.96 0 0
3.04 0 0
3.12 0 0
3.2 0 0
3.28 0 0
3.36 0 0
3.44 0 0
3.52 0 0
3.6 0 0
3.68 0 0
3.76 0 0
3.84 0 0
3.92 0 0
4 0 0
4.08 0 0
4.16 0 0
4.24 0 0
4.32 0 0
4.4 0 0
4.48 0 0
4.56 0 0
4.64 0 0
4.72 0 0
4.8 0 0
4.88 0 0
4.96 0 0
5.04 0 0
5.12 0 0
5.2 0 0
5.28 0 0
5.36 0 0
5.44 0 0
5.52 0 0
5.6 0 0
5.68 0 0
5.76 0 0
5.84 0 0
5.92 0 0
6 0 0
6.08 0 0
6.16 0 0
6.24 0 0
6.32 0 0
6.4 0 0
6.48 0 0
6.56 0 0
6.64 0 0
6.72 0 0
6.8 0 0
6.88 0 0
6.96 0 0
7.04 0 0
7.12 0 0
7.2 0 0
7.28 0 0
7.36 0 0
7.44 0 0
7.52 0 0
7.6 0 0
7.68 0 0
7.76 0 0
7.84 0 0
7.92 0 0
8 0 0
8.08 0 0
8.16 0 0
8.24 0 0
8.32 0 0
8.4 0 0
8.48 0 0
8.56 0 0
8.64 0 0
8.72 0 0
8.8 0 0
8.88 0 0
8.96 0 0
9.04 0 0
9.12 0 0
9.2 0 0
9.28 0 0
9.36 0 0
9.44 0 0
9.52 0 0
9.6 0 0
9.68 0 0
9.76 0 0
9.84 0 0
9.92 0 0
10 0 0
10.08 0 0
10.16 0 0
10.24 0 0
10.32 0 0
10.4 0 0
10.48 0 0
10.56 0 0
10.64 0 0
10.72 0 0
10.8 0 0
10.88 0 0
10.96 0 0
11.04 0 0
11.12 0 0
11.2 0 0
11.28 0 0
11.36 0 0
11.44 0 0
11.52 0 0
11.6 0 0
11.68 0 0
11.76 0 0
11.84 0 0
11.92 0 0
12 0 0
12.08 0 0
12.16 0 0
12.24 0 0
12.32 0 0
12.4 0 0
12.48 0 0
12.56 0 0
12.64 0 0
12.72 0 0
12.8 0 0
12.88 0 0
12.96 0 0
13.04 0 0
13.12 0 0
13.2 0 0
13.28 0 0
13.36 0 0
13.44 0 0
13.52 0 0
13.6 0 0
13.68 0 0
13.76 0 0
13.84 0 0
13.92 0 0
14 0 0
14.08 0 0
14.16 0 0
14.24 0 0
14.32 0 0
14.4 0 0
14.48 0 0
14.56 0 0
14.64 0 0
14.72 0 0
14.8 0 0
14.88 0 0
14.96 0 0
15.04 0 0
15.12 0 0
15.2 0 0
15.28 0 0
15.36 0 0
15.44 0 0
15.52 0 0
15.6 0 0
15.68 0 0
15.76 0 0
15.84 0 0
15.92 0 0
16 0 0
16.08 0 0
16.16 0 0
16.24 0 0
16.32 0 0
16.4 0 0
16.48 0 0
16.56 0 0
16.64 0 0
16.72 0 0
16.8 0 0
16.88 0 0
16.96 0 0
17.04 0 0
17.12 0 0
17.2 0 0
17.28 0 0
17.36 0 0
17.44 0 0
17.52 0 0
17.6 0 0
17.68 0 0
17.76 0 0
17.84 0 0
17.92 0 0
18 0 0
18.08 0 0
18.16 0 0
18.24 0 0
18.32 0 0
18.4 0 0
18.48 0 0
18.56 0 0
18.64 0 0
18.72 0 0
18.8 0 0
18.88 0 0
18.96 0 0
19.04 0 0
19.12 0 0
19.2 0 0
19.28 0 0
19.36 0 0
19.44 0 0
19.52 0 0
19.6 0 0
19.68 0 0
19.76 0 0
19.84 0 0
19.92 0 0
20 0 0
20.08 0 0
20.16 0 0
20.24 0 0
20.32 0 0
20.4 0 0
20.48 0 0
20.56 0 0
20.64 0 0
20.72 0 0
20.8 0 0
20.88 0 0
20.96 0 0
21.04 0 0
21.12 0 0
21.2 0 0
21.28 0 0
21.36 0 0
21.44 0 0
21.52 0 0
21.6 0 0
21.68 0 0
21.76 0 0
21.84 0 0
21.92 0 0
22 0 0
22.08 0 0
22.16 0 0
22.24 0 0
22.32 0 0
22.4 0 0
22.48 0 0
22.56 0 0
22.64 0 0
22.72 0 0
22.8 0 0
22.88 0 0
22.96 0 0
23.04 0 0
23.12 0 0
23.2 0 0
23.28 0 0
23.36 0 0
23.44 0 0
23.52 0 0
23.6 0 0
23.68 0 0
23.76 0 0
23.84 0 0
23.92 0 0
24 0 0
24.08 0 0
24.16 0 0
24.24 0 0
24.32 0 0
24.4 0 0
24.48 0 0
24.56 0 0
24.64 0 0
24.72 0 0
24.8 0 0
24.88 0 0
24.96 0 0
25.04 0 0
25.12 0 0
25.2 0 0
25.28 0 0
25.36 0 0
25.44 0 0
25.52 0 0
25.6 0 0
25.68 0 0
25.76 0 0
25.84 0 0
25.92 0 0
26 0 0
26.08 0 0
26.16 0 0
26.24 0 0
26.32 0 0
26.4 0 0
26.48 0 0
26.56 0 0
26.64 0 0
26.72 0 0
26.8 0 0
26.88 0 0
26.96 0 0
27.04 0 0
27.12 0 0
27.2 0 0
27.28 0 0
27.36 0 0
27.44 0 0
27.52 0 0
27.6 0 0
27.68 0 0
27.76 0 0
27.84 0 0
27.92 0 0
28 0 0
28.08 0 0
28.16 0 0
28.24 0 0
28.32 0 0
28.4 0 0
28.48 0 0
28.56 0 0
28.64 0 0
28.72 0 0
28.8 0 0
28.88 0 0
28.96 0 0
29.04 0 0
29.12 0 0
29.2 0 0
29.28 0 0
29.36 0 0
29.44 0 0
29.52 0 0
29.6 0 0
29.68 0 0
29.76 0 0
29.84 0 0
29.92 0 0
30 0 0
30.08 0 0
30.16 0 0
30.24 0 0
30.32 0 0
30.4 0 0
30.48 0 0
30.56 0 0
30.64 0 0
30.72 0 0
30.8 0 0
30.88 0 0
30.96 0 0
31.04 0 0
31.12 0 0
31.2 0 0
31.28 0 0
31.36 0 0
31.44 0 0
31.52 0 0
31.6 0 0
31.68 0 0
31.76 0 0
31.84 0 0
31.92 0 0
32 0 0
32.08 0 0
32.16 0 0
32.24 0 0
32.32 0 0
32.4 0 0
32.48 0 0
32.56 0 0
32.64 0 0
32.72 0 0
32.8 0 0
32.88 0 0
32.96 0 0
33.04 0 0
33.12 0 0
33.2 0 0
33.28 0 0
33.36 0 0
33.44 0 0
33.52 0 0
33.6 0 0
33.68 0 0
33.76 0 0
33.84 0 0
33.92 0 0
34 0 0
34.08 0 0
34.16 0 0
34.24 0 0
34.32 0 0
34.4 0 0
34.48 0 0
34.56 0 0
34.64 0 0
34.72 0 0
34.8 0 0
34.88 0 0
34.96 0 0
35.04 0 0
35.12 0 0
35.2 0 0
35.28 0 0
35.36 0 0
35.44 0 0
35.52 0 0
35.6 0 0
35.68 0 0
35.76 0 0
35.84 0 0
35.92 0 0
36 0 0
36.08 0 0
36.16 0 0
36.24 0 0
36.32 0 0
36.4 0 0
36.48 0 0
36.56 0 0
36.64 0 0
36.72 0 0
36.8 0 0
36.88 0 0
36.96 0 0
37.04 0 0
37.12 0 0
37.2 0 0
37.28 0 0
37.36 0 0
37.44 0 0
37.52 0 0
37.6 0 0
37.68 0 0
37.76 0 0
37.84 0 0
37.92 0 0
38 0 0
38.08 0 0
38.16 0 0
38.24 0 0
38.32 0 0
38.4 0 0
38.48 0 0
38.56 0 0
38.64 0 0
38.72 0 0
38.8 0 0
38.88 0 0
38.96 0 0
39.04 0 0
39.12 0 0
39.2 0 0
39.28 0 0
39.36 0 0
39.44 0 0
39.52 0 0
39.6 0 0
39.68 0 0
39.76 0 0
39.84 0 0
39.92 0 0
40 0 0
40.08 0 0
40.16 0 0
40.24 0 0
40.32 0 0
40.4 0 0
40.48 0 0
40.56 0 0
40.64 0 0
40.72 0 0
40.8 0 0
40.88 0 0
40.96 0 0
41.04 0 0
41.12 0 0
41.2 0 0
41.28 0 0
41.36 0 0
41.44 0 0
41.52 0 0
41.6 0 0
41.68 0 0
41.76 0 0
41.84 0 0
41.92 0 0
42 0 0
42.08 0 0
42.16 0 0
42.24 0 0
42.32 0 0
42.4 0 0
42.48 0 0
42.56 0 0
42.64 0 0
42.72 0 0
42.8 0 0
42.88 0 0
42.96 0 0
43.04 0 0
43.12 0 0
43.2 0 0
43.28 0 0
43.36 0 0
43.44 0 0
43.52 0 0
43.6 0 0
43.68 0 0
43.76 0 0
43.84 0 0
43.92 0 0
44 0 0
44.08 0 0
44.16 0 0
44.24 0 0
44.32 0 0
44.4 0 0
44.48 0 0
44.56 0 0
44.64 0 0
44.72 0 0
44.8 0 0
44.88 0 0
44.96 0 0
45.04 0 0
45.12 0 0
45.2 0 0
45.28 0 0
45.36 0 0
45.44 0 0
45.52 0 0
45.6 0 0
45.68 0 0
45.76 0 0
45.84 0 0
45.92 0 0
46 0 0
46.08 0 0
46.16 0 0
46.24 0 0
46.32 0 0
46.4 0 0
46.48 0 0
46.56 0 0
46.64 0 0
46.72 0 0
46.8 0 0
46.88 0 0
46.96 0 0
47.04 0 0
47.12 0 0
47.2 0 0
47.28 0 0
47.36 0 0
47.44 0 0
47.52 0 0
47.6 0 0
47.68 0 0
47.76 0 0
47.84 0 0
47.92 0 0
48 0 0
48.08 0 0
48.16 0 0
48.24 0 0
48.32 0 0
48.4 0 0
48.48 0 0
48.56 0 0
48.64 0 0
48.72 0 0
48.8 0 0
48.88 0 0
48.96 0 0
49.04 0 0
49.12 0 0
49.2 0 0
49.28 0 0
49.36 0 0
49.44 0 0
49.52 0 0
49.6 0 0
49.68 0 0
49.76 0 0
49.84 0 0
49.92 0 0
50 0 0
50.08 0 0
50.16 0 0
50.24 0 0
50.32 0 0
50.4 0 0
50.48 0 0
50.56 0 0
50.64 0 0
50.72 0 0
50.8 0 0
50.88 0 0
50.96 0 0
51.04 0 0
51.12 0 0
51.2 0 0
51.28 0 0
51.36 0 0
51.44 0 0
51.52 0 0
51.6 0 0
51.68 0 0
51.76 0 0
51.84 0 0
51.92 0 0
52 0 0
52.08 0 0
52.16 0 0
52.24 0 0
52.32 0 0
52.4 0 0
52.48 0 0
52.56 0 0
52.64 0 0
52.72 0 0
52.8 0 0
52.88 0 0
52.96 0 0
53.04 0 0
53.12 0 0
53.2 0 0
53.28 0 0
53.36 0 0
53.44 0 0
53.52 0 0
53.6 0 0
53.68 0 0
53.76 0 0
53.84 0 0
53.92 0 0
54 0 0
54.08 0 0
54.16 0 0
54.24 0 0
54.32 0 0
54.4 0 0
54.48 0 0
54.56 0 0
54.64 0 0
54.72 0 0
54.8 0 0
54.88 0 0
54.96 0 0
55.04 0 0
55.12 0 0
55.2 0 0
55.28 0 0
55.36 0 0
55.44 0 0
55.52 0 0
55.6 0 0
55.68 0 0
55.76 0 0
55.84 0 0
55.92 0 0
56 0 0
56.08 0 0
56.16 0 0
56.24 0 0
56.32 0 0
56.4 0 0
56.48 0 0
56.56 0 0
56.64 0 0
56.72 0 0
56.8 0 0
56.88 0 0
56.96 0 0
57.04 0 0
57.12 0 0
57.2 0 0
57.28 0 0
57.36 0 0
57.44 0 0
57.52 0 0
57.6 0 0
57.68 0 0
57.76 0 0
57.84 0 0
57.92 0 0
58 0 0
58.08 0 0
58.16 0 0
58.24 0 0
58.32 0 0
58.4 0 0
58.48 0 0
58.56 0 0
58.64 0 0
58.72 0 0
58.8 0 0
58.88 0 0
58.96 0 0
59.04 0 0
59.12 0 0
59.2 0 0
59.28 0 0
59.36 0 0
59.44 0 0
59.52 0 0
59.6 0 0
59.68 0 0
59.76 0 0
59.84 0 0
59.92 0 0
60 0 0
60.08 0 0
60.16 0 0
60.24 0 0
60.32 0 0
60.4 0 0
60.48 0 0
60.56 0 0
60.64 0 0
60.72 0 0
60.8 0 0
60.88 0 0
60.96 0 0
61.04 0 0
61.12 0 0
61.2 0 0
61.28 0 0
61.36 0 0
61.44 0 0
61.52 0 0
61.6 0 0
61.68 0 0
61.76 0 0
61.84 0 0
61.92 0 0
62 0 0
62.08 0 0
62.16 0 0
62.24 0 0
62.32 0 0
62.4 0 0
62.48 0 0
62.56 0 0
62.64 0 0
62.72 0 0
62.8 0 0
62.88 0 0
62.96 0 0
63.04 0 0
63.12 0 0
63.2 0 0
63.28 0 0
63.36 0 0
63.44 0 0
63.52 0 0
63.6 0 0
63.68 0 0
63.76 0 0
63.84 0 0
63.92 0 0
0 0.005 0
0.08 0.005 0
0.16 0.005 0
0.24 0.005 0
0.32 0.005 0
0.4 0.005 0
0.48 0.005 0
0.56 0.005 0
0.64 0.005 0
0.72 0.005 0
0.8 0.005 0
0.88 0.005 0
0.96 0.005 0
1.04 0.005 0
1.12 0.005 0
1.2 0.005 0
1.28 0.005 0
1.36 0.005 0
1.44 0.005 0
1.52 0.005 0
1.6 0.005 0
1.68 0.005 0
1.76 0.005 0
1.84 0.005 0
1.92 0.005 0
2 0.005 0
2.08 0.005 0
2.16 0.005 0
2.24 0.005 0
2.32 0.005 0
2.4 0.005 0
2.48 0.005 0
2.56 0.005 0
2.64 0.005 0
2.72 0.005 0
2.8 0.005 0
2.88 0.005 0
2.96 0.005 0
3.04 0.005 0
3.12 0.005 0
3.2 0.005 0
3.28 0.005 0
3.36 0.005 0
3.44 0.005 0
3.52 0.005 0
3.6 0.005 0
3.68 0.005 0
3.76 0.005 0
3.84 0.005 0
3.92 0.005 0
4 0.005 0
4.08 0.005 0
4.16 0.005 0
4.24 0.005 0
4.32 0.005 0
4.4 0.005 0
4.48 0.005 0
4.56 0.005 0
4.64 0.005 0
4.72 0.005 0
4.8 0.005 0
4.88 0.005 0
4.96 0.005 0
5.04 0.005 0
5.12 0.005 0
5.2 0.005 0
5.28 0.005 0
5.36 0.005 0
5.44 0.005 0
5.52 0.005 0
5.6 0.005 0
5.68 0.005 0
5.76 0.005 0
5.84 0.005 0
5.92 0.005 0
6 0.005 0
6.08 0.005 0
6.16 0.005 0
6.24 0.005 0
6.32 0.005 0
6.4 0.005 0
6.48 0.005 0
6.56 0.005 0
6.64 0.005 0
6.72 0.005 0
6.8 0.005 0
6.88 0.005 0
6.96 0.005 0
7.04 0.005 0
7.12 0.005 0
7.2 0.005 0
7.28 0.005 0
7.36 0.005 0
7.44 0.005 0
7.52 0.005 0
7.6 0.005 0
7.68 0.005 0
7.76 0.005 0
7.84 0.005 0
7.92 0.005 0
8 0.005 0
8.08 0.005 0
8.16 0.005 0
8.24 0.005 0
8.32 0.005 0
8.4 0.005 0
8.48 0.005 0
8.56 0.005 0
8.64 0.005 0
8.72 0.005 0
8.8 0.005 0
8.88 0.005 0
8.96 0.005 0
9.04 0.005 0
9.12 0.005 0
9.2 0.005 0
9.28 0.005 0
9.36 0.005 0
9.44 0.005 0
9.52 0.005 0
9.6 0.005 0
9.68 0.005 0
9.76 0.005 0
9.84 0.005 0
9.92 0.005 0
10 0.005 0
10.08 0.005 0
10.16 0.005 0
10.24 0.005 0
10.32 0.005 0
10.4 0.005 0
10.48 0.005 0
10.56 0.005 0
10.64 0.005 0
10.72 0.005 0
10.8 0.005 0
10.88 0.005 0
10.96 0.005 0
11.04 0.005 0
11.12 0.005 0
11.2 0.005 0
11.28 0.005 0
11.36 0.005 0
11.44 0.005 0
11.52 0.005 0
11.6 0.005 0
11.68 0.005 0
11.76 0.005 0
11.84 0.005 0
11.92 0.005 0
12 0.005 0
12.08 0.005 0
12.16 0.005 0
12.24 0.005 0
12.32 0.005 0
12.4 0.005 0
12.48 0.005 0
12.56 0.005 0
12.64 0.005 0
12.72 0.005 0
12.8 0.005 0
12.88 0.005 0
12.96 0.005 0
13.04 0.005 0
13.12 0.005 0
13.2 0.005 0
13.28 0.005 0
13.36 0.005 0
13.44 0.005 0
13.52 0.005 0
13.6 0.005 0
13.68 0.005 0
[...]
POINT_DATA 160000

SCALARS u float 1
LOOKUP_TABLE default
-1
-0.305822
-0.121703
-0.0906861
-0.0851064
-0.0838
-0.0832703
-0.0829598
-0.0827495
-0.0825964
-0.0824819
-0.0823986
-0.0823434
-0.082313
-0.0823031
-0.0823072
-0.0823188
-0.0823316
-0.0823413
-0.0823456
-0.0823443
-0.0823394
-0.0823345
-0.0823343
-0.0823437
-0.0823641
-0.0823855
-0.0823809
-0.0823073
-0.0821187
-0.0817858
-0.0813111
-0.0807307
-0.0801021
-0.0794861
-0.0789315
-0.0784673
-0.078103
-0.0778332
-0.0776439
-0.0775176
-0.0774374
-0.0773889
-0.0773609
-0.0773454
-0.0773373
-0.0773332
-0.0773313
-0.0773304
-0.07733
-0.0773298
-0.0773297
-0.0773297
-0.0773297
-0.0773297
-0.0773297
-0.0773297
-0.0773297
-0.0773297
-0.0773297
-0.0773297
-0.0773297
-0.0773297
-0.0773297
-0.0773297
-0.0773297
-0.0773297
-0.0773297
-0.0773297
-0.0773297
-0.0773297
-0.0773297
-0.0773297
-0.0773297
-0.0773297
-0.0773297
-0.0773297
-0.0773297
-0.0773297
-0.0773297
-0.0773297
-0.0773297
-0.0773297
-0.0773297
-0.0773297
-0.0773297
-0.0773297
-0.0773297
-0.0773297
-0.0773297
-0.0773297
-0.0773297
-0.0773297
-0.0773297
-0.0773297
-0.0773297
-0.0773297
-0.0773297
-0.0773297
-0.0773297
-0.0773297
-0.0773297
-0.0773297
-0.0773297
-0.0773297
-0.0773297
-0.0773297
-0.0773297
-0.0773297
-0.0773297
-0.0773297
-0.0773297
-0.0773297
-0.0773297
-0.0773297
-0.0773297
-0.0773297
-0.0773297
-0.0773297
-0.0773297
-0.0773297
-0.0773297
-0.0773297
-0.0773297
-0.0773297
-0.0773297
-0.0773297
-0.0773297
-0.0773297
-0.0773297
-0.0773297
-0.0773297
-0.0773297
-0.0773297
-0.0773297
-0.0773297
-0.0773297
-0.0773297
-0.0773297
-0.0773297
-0.0773297
-0.0773297
-0.0773297
-0.0773297
-0.0773297
-0.0773297
-0.0773297
-0.0773297
-0.0773297
-0.0773297
-0.0773297
-0.0773297
-0.0773297
-0.0773297
-0.0773297
-0.0773297
-0.0773297
-0.0773297
-0.0773297
-0.0773297
-0.0773297
-0.0773297
-0.0773297
-0.0773297
-0.0773297
-0.0773297
-0.0773297
-0.0773297
-0.0773297
-0.0773297
-0.0773297
-0.0773297
-0.0773297
-0.0773297
-0.0773297
-0.0773297
-0.0773297
-0.0773297
-0.0773297
-0.0773297
-0.0773297
-0.0773297
-0.0773297
-0.0773297
-0.0773297
-0.0773297
-0.0773297
-0.0773297
-0.0773297
-0.0773297
-0.0773297
-0.0773297
-0.0773297
-0.0773297
-0.0773297
-0.0773297
-0.0773297
-0.0773297
-0.0773297
-0.0773297
-0.0773297
-0.0773297
-0.0773297
-0.0773297
-0.0773297
-0.0773297
-0.0773297
-0.0773297
-0.0773297
-0.0773297
-0.0773297
-0.0773297
-0.0773297
-0.0773297
-0.0773297
-0.0773297
-0.0773297
-0.0773297
-0.0773297
-0.0773297
-0.0773297
-0.0773297
-0.0773297
-0.0773297
-0.0773297
-0.0773297
-0.0773297
-0.0773297
-0.0773297
-0.0773297
-0.0773297
-0.0773297
-0.0773297
-0.0773297
-0.0773297
-0.0773297
-0.0773297
-0.0773297
-0.0773297
-0.0773297
-0.0773297
-0.0773297
-0.0773297
-0.0773297
-0.0773297
-0.0773297
-0.0773297
-0.0773297
-0.0773297
-0.0773297
-0.0773297
-0.0773297
-0.0773297
-0.0773297
-0.0773297
-0.0773297
-0.0773297
-0.0773297
-0.0773297
-0.0773297
-0.0773297
-0.0773297
-0.0773297
-0.0773297
-0.0773297
-0.0773297
-0.0773297
-0.0773297
-0.0773297
-0.0773297
-0.0773297
-0.0773297
-0.0773297
-0.0773297
-0.0773297
-0.0773297
-0.0773297
-0.0773297
-0.0773297
-0.0773297
-0.0773297
-0.0773297
-0.0773297
-0.0773297
-0.0773297
-0.0773297
-0.0773297
-0.0773297
-0.0773297
-0.0773297
-0.0773297
-0.0773297
-0.0773297
-0.0773297
-0.0773297
-0.0773297
-0.0773297
-0.0773297
-0.0773297
-0.0773297
-0.0773297
-0.0773297
-0.0773297
-0.0773297
-0.0773297
-0.0773297
-0.0773297
-0.0773297
-0.0773297
-0.0773297
-0.0773297
-0.0773297
-0.0773297
-0.0773297
-0.0773297
-0.0773297
-0.0773297
-0.0773297
-0.0773297
-0.0773297
-0.0773297
-0.0773297
-0.0773297
-0.0773297
-0.0773297
-0.0773297
-0.0773297
-0.0773297
-0.0773297
-0.0773297
-0.0773297
-0.0773297
-0.0773297
-0.0773297
-0.0773297
-0.0773297
-0.0773297
-0.0773297
-0.0773297
-0.0773297
-0.0773297
-0.0773297
-0.0773297
-0.0773297
-0.0773297
-0.0773297
-0.0773297
-0.0773297
-0.0773297
-0.0773297
-0.0773297
-0.0773297
-0.0773297
-0.0773297
-0.0773297
-0.0773297
-0.0773297
-0.0773297
-0.0773297
-0.0773297
-0.0773297
-0.0773297
-0.0773297
-0.0773297
-0.0773297
-0.0773297
-0.0773297
-0.0773297
-0.0773297
-0.0773297
-0.0773297
-0.0773297
-0.0773297
-0.0773297
-0.0773297
-0.0773297
-0.0773297
-0.0773297
-0.0773297
-0.0773297
-0.0773297
-0.0773297
-0.0773297
-0.0773297
-0.0773297
-0.0773297
-0.0773297
-0.0773297
-0.0773297
-0.0773297
-0.0773297
-0.0773297
-0.0773297
-0.0773297
-0.0773297
-0.0773297
-0.0773297
-0.0773297
-0.0773297
-0.0773297
-0.0773297
-0.0773297
-0.0773297
-0.0773297
-0.0773297
-0.0773297
-0.0773297
-0.0773297
-0.0773297
-0.0773297
-0.0773297
-0.0773297
-0.0773297
-0.0773297
-0.0773297
-0.0773297
-0.0773297
-0.0773297
-0.0773297
-0.0773297
-0.0773297
-0.0773297
-0.0773297
-0.0773297
-0.0773297
-0.0773297
-0.0773297
-0.0773297
-0.0773297
-0.0773297
-0.0773297
-0.0773297
-0.0773297
-0.0773297
-0.0773297
-0.0773297
-0.0773297
-0.0773297
-0.0773297
-0.0773297
-0.0773297
-0.0773297
-0.0773297
-0.0773297
-0.0773297
-0.0773297
-0.0773297
-0.0773297
-0.0773297
-0.0773297
-0.0773297
-0.0773297
-0.0773297
-0.0773297
-0.0773297
-0.0773297
-0.0773297
-0.0773297
-0.0773297
-0.0773297
-0.0773297
-0.0773297
-0.0773297
-0.0773297
-0.0773297
-0.0773297
-0.0773297
-0.0773297
-0.0773297
-0.0773297
-0.0773297
-0.0773297
-0.0773297
-0.0773297
-0.0773297
-0.0773297
-0.0773297
-0.0773297
-0.0773297
-0.0773297
-0.0773297
-0.0773297
-0.0773297
-0.0773297
-0.0773297
-0.0773297
-0.0773297
-0.0773297
-0.0773297
-0.0773297
-0.0773297
-0.0773297
-0.0773297
-0.0773297
-0.0773297
-0.0773297
-0.0773297
-0.0773297
-0.0773297
-0.0773297
-0.0773297
-0.0773297
-0.0773297
-0.0773297
-0.0773297
-0.0773297
-0.0773297
-0.0773297
-0.0773297
-0.0773297
-0.0773297
-0.0773297
-0.0773297
-0.0773297
-0.0773297
-0.0773297
-0.0773297
-0.0773297
-0.0773297
-0.0773297
-0.0773297
-0.0773297
-0.0773297
-0.0773297
-0.0773297
-0.0773297
-0.0773297
-0.0773297
-0.0773297
-0.0773297
-0.0773297
-0.0773297
-0.0773297
-0.0773297
-0.0773297
-0.0773297
-0.0773297
-0.0773297
-0.0773297
-0.0773297
-0.0773297
-0.0773297
-0.0773297
-0.0773297
-0.0773297
-0.0773297
-0.0773297
-0.0773297
-0.0773297
-0.0773297
-0.0773297
-0.0773297
-0.0773297
-0.0773297
-0.0773297
-0.0773297
-0.0773297
-0.0773297
-0.0773297
-0.0773297
-0.0773297
-0.0773297
-0.0773297
-0.0773297
-0.0773297
-0.0773297
-0.0773297
-0.0773297
-0.0773297
-0.0773297
-0.0773297
-0.0773297
-0.0773297
-0.0773297
-0.0773297
-0.0773297
-0.0773297
-0.0773297
-0.0773297
-0.0773297
-0.0773297
-0.0773297
-0.0773297
-0.0773297
-0.0773297
-0.0773297
-0.0773297
-0.0773297
-0.0773297
-0.0773297
-0.0773297
-0.0773297
-0.0773297
-0.0773297
-0.0773297
-0.0773297
-0.0773297
-0.0773297
-0.0773297
-0.0773297
-0.0773297
-0.0773297
-0.0773297
-0.0773297
-0.0773297
-0.0773297
-0.0773297
-0.0773297
-0.0773297
-0.0773297
-0.0773297
-0.0773297
-0.0773297
-0.0773297
-0.0773297
-0.0773297
-0.0773297
-0.0773297
-0.0773297
-0.0773297
-0.0773297
-0.0773297
-0.0773297
-0.0773297
-0.0773297
-0.0773297
-0.0773297
-0.0773297
-0.0773297
-0.0773297
-0.0773297
-0.0773297
-0.0773297
-0.0773297
-0.0773297
-0.0773297
-0.0773297
-0.0773297
-0.0773297
-0.0773297
-0.0773297
-0.0773297
-0.0773297
-0.0773297
-0.0773297
-0.0773297
-0.0773297
-0.0773297
-0.0773297
-0.0773297
-0.0773297
-0.0773297
-0.0773297
-0.0773297
-0.0773297
-0.0773297
-0.0773297
-0.0773297
-0.0773297
-0.0773297
-0.0773297
-0.0773297
-0.0773297
-0.0773297
-0.0773297
-0.0773297
-0.0773297
-0.0773297
-0.0773297
-0.0773297
-0.0773297
-0.0773297
-0.0773297
-0.0773297
-0.0773297
-0.0773297
-0.0773297
-0.0773297
-0.0773297
-0.0773297
-0.0773297
-0.0773297
-0.0773297
-0.0773297
-0.0773297
-0.0773297
-0.0773297
-0.0773297
-0.0773297
-0.0773297
-0.0773297
-0.0773297
-0.0773297
-0.0773297
-0.0773297
-0.0773297
-0.0773297
-0.0773297
-0.0773297
-0.0773297
-0.0773297
-0.0773297
-0.0773297
-0.0773297
-0.0773297
-0.0773297
-0.0773297
-0.0773297
-0.0773297
-0.0773297
-0.0773297
-0.0773297
-0.0773297
-0.0773297
-0.0773297
-0.0773297
-0.0773297
-0.0773297
-0.0773297
-0.0773297
-0.0773297
-0.0773297
-0.0773297
-0.0773297
-0.0773297
-0.0773297
-0.0773297
-0.0773297
-0.0773297
-0.0773297
-0.0773297
-0.0773297
-0.0773297
-0.0773297
-0.0773297
-0.0773297
-0.0773297
-0.0773297
-0.0773297
-0.0773297
-0.0773297
-0.0773297
-0.0773297
-0.0773297
-0.0773297
-0.0773297
-0.0773297
-0.0773297
-0.0773297
-0.0773297
-0.0773297
-0.0773297
-0.0773297
-0.0773297
-0.0773297
-0.0773297
-0.0773297
-0.0773297
-0.0773297
-0.0773297
-0.0773297
-0.0773297
-0.0773297
-0.0773297
-0.0773297
-0.0773297
-0.0773297
-0.0773297
-0.0773297
-0.0773297
-0.0773297
-0.0773297
-0.0773297
-0.0773297
-0.0773297
-0.0773297
-0.0773297
-0.0773297
-0.0773297
-0.0773297
-0.0773297
-0.0773297
-0.0773297
-0.0773297
-0.0773297
-0.0773297
-0.0773297
-0.0773297
-0.0773297
-0.0773297
-0.0773297
-0.0773297
-0.0773297
-0.0773297
-0.0773297
-0.0773297
-0.0773297
-0.0773297
-0.0773297
-0.0773297
1
0.305822
0.121703
0.0906861
0.0851064
0.0838
0.0832703
0.0829598
0.0827495
0.0825964
0.0824819
0.0823986
0.0823434
0.082313
0.0823031
0.0823072
0.0823188
0.0823316
0.0823413
0.0823456
0.0823443
0.0823394
0.0823345
0.0823343
0.0823437
0.0823641
0.0823855
0.0823809
0.0823073
0.0821187
0.0817858
0.0813111
0.0807307
0.0801021
0.0794861
0.0789315
0.0784673
0.078103
0.0778332
0.0776439
0.0775176
0.0774374
0.0773889
0.0773609
0.0773454
0.0773373
0.0773332
0.0773313
0.0773304
0.07733
0.0773298
0.0773297
0.0773297
0.0773297
0.0773297
0.0773297
0.0773297
0.0773297
0.0773297
0.0773297
0.0773297
0.0773297
0.0773297
0.0773297
0.0773297
0.0773297
0.0773297
0.0773297
0.0773297
0.0773297
0.0773297
0.0773297
0.0773297
0.0773297
0.0773297
0.0773297
0.0773297
0.0773297
0.0773297
0.0773297
0.0773297
0.0773297
0.0773297
0.0773297
0.0773297
0.0773297
0.0773297
0.0773297
0.0773297
0.0773297
0.0773297
0.0773297
0.0773297
0.0773297
0.0773297
0.0773297
0.0773297
0.0773297
0.0773297
0.0773297
0.0773297
0.0773297
0.0773297
0.0773297
0.0773297
0.0773297
0.0773297
0.0773297
0.0773297
0.0773297
0.0773297
0.0773297
0.0773297
0.0773297
0.0773297
0.0773297
0.0773297
0.0773297
0.0773297
0.0773297
0.0773297
0.0773297
0.0773297
0.0773297
0.0773297
0.0773297
0.0773297
0.0773297
0.0773297
0.0773297
0.0773297
0.0773297
0.0773297
0.0773297
0.0773297
0.0773297
0.0773297
0.0773297
0.0773297
0.0773297
0.0773297
0.0773297
0.0773297
0.0773297
0.0773297
0.0773297
0.0773297
0.0773297
0.0773297
0.0773297
0.0773297
0.0773297
0.0773297
0.0773297
0.0773297
0.0773297
0.0773297
0.0773297
0.0773297
0.0773297
0.0773297
0.0773297
0.0773297
0.0773297
0.0773297
0.0773297
0.0773297
0.0773297
0.0773297
0.0773297
0.0773297
0.0773297
0.0773297
0.0773297
0.0773297
0.0773297
0.0773297
0.0773297
0.0773297
0.0773297
0.0773297
0.0773297
0.0773297
0.0773297
0.0773297
0.0773297
0.0773297
0.0773297
0.0773297
0.0773297
0.0773297
0.0773297
0.0773297
0.0773297
0.0773297
0.0773297
0.0773297
0.0773297
0.0773297
0.0773297
0.0773297
0.0773297
0.0773297
0.0773297
0.0773297
0.0773297
0.0773297
0.0773297
0.0773297
0.0773297
0.0773297
0.0773297
0.0773297
0.0773297
0.0773297
0.0773297
0.0773297
0.0773297
0.0773297
0.0773297
0.0773297
0.0773297
0.0773297
0.0773297
0.0773297
0.0773297
0.0773297
0.0773297
0.0773297
0.0773297
0.0773297
0.0773297
0.0773297
0.0773297
0.0773297
0.0773297
0.0773297
0.0773297
0.0773297
0.0773297
0.0773297
0.0773297
0.0773297
0.0773297
0.0773297
0.0773297
0.0773297
0.0773297
0.0773297
0.0773297
0.0773297
0.0773297
0.0773297
0.0773297
0.0773297
0.0773297
0.0773297
0.0773297
0.0773297
0.0773297
0.0773297
0.0773297
0.0773297
0.0773297
0.0773297
0.0773297
0.0773297
0.0773297
0.0773297
0.0773297
0.0773297
0.0773297
0.0773297
0.0773297
0.0773297
0.0773297
0.0773297
0.0773297
0.0773297
0.0773297
0.0773297
0.0773297
0.0773297
0.0773297
0.0773297
0.0773297
0.0773297
0.0773297
0.0773297
0.0773297
0.0773297
0.0773297
0.0773297
0.0773297
0.0773297
0.0773297
0.0773297
0.0773297
0.0773297
0.0773297
0.0773297
0.0773297
0.0773297
0.0773297
0.0773297
0.0773297
0.0773297
0.0773297
0.0773297
0.0773297
0.0773297
0.0773297
0.0773297
0.0773297
0.0773297
0.0773297
0.0773297
0.0773297
0.0773297
0.0773297
0.0773297
0.0773297
0.0773297
0.0773297
0.0773297
0.0773297
0.0773297
0.0773297
0.0773297
0.0773297
0.0773297
0.0773297
0.0773297
0.0773297
0.0773297
0.0773297
0.0773297
0.0773297
0.0773297
0.0773297
0.0773297
0.0773297
0.0773297
0.0773297
0.0773297
0.0773297
0.0773297
0.0773297
0.0773297
0.0773297
0.0773297
0.0773297
0.0773297
0.0773297
0.0773297
0.0773297
0.0773297
0.0773297
0.0773297
0.0773297
0.0773297
0.0773297
0.0773297
0.0773297
0.0773297
0.0773297
0.0773297
0.0773297
0.0773297
0.0773297
0.0773297
0.0773297
0.0773297
0.0773297
0.0773297
0.0773297
0.0773297
0.0773297
0.0773297
0.0773297
0.0773297
0.0773297
0.0773297
0.0773297
0.0773297
0.0773297
0.0773297
0.0773297
0.0773297
0.0773297
0.0773297
0.0773297
0.0773297
0.0773297
0.0773297
0.0773297
0.0773297
0.0773297
0.0773297
0.0773297
0.0773297
0.0773297
0.0773297
0.0773297
0.0773297
0.0773297
0.0773297
0.0773297
0.0773297
0.0773297
0.0773297
0.0773297
0.0773297
0.0773297
0.0773297
0.0773297
0.0773297
0.0773297
0.0773297
0.0773297
0.0773297
0.0773297
0.0773297
0.0773297
0.0773297
0.0773297
0.0773297
0.0773297
0.0773297
0.0773297
0.0773297
0.0773297
0.0773297
0.0773297
0.0773297
0.0773297
0.0773297
0.0773297
0.0773297
0.0773297
0.0773297
0.0773297
0.0773297
0.0773297
0.0773297
0.0773297
0.0773297
0.0773297
0.0773297
0.0773297
0.0773297
0.0773297
0.0773297
0.0773297
0.0773297
0.0773297
0.0773297
0.0773297
0.0773297
0.0773297
0.0773297
0.0773297
0.0773297
0.0773297
0.0773297
0.0773297
0.0773297
0.0773297
0.0773297
0.0773297
0.0773297
0.0773297
0.0773297
0.0773297
0.0773297
0.0773297
0.0773297
0.0773297
0.0773297
0.0773297
0.0773297
0.0773297
0.0773297
0.0773297
0.0773297
0.0773297
0.0773297
0.0773297
0.0773297
0.0773297
0.0773297
0.0773297
0.0773297
0.0773297
0.0773297
0.0773297
0.0773297
0.0773297
0.0773297
0.0773297
0.0773297
0.0773297
0.0773297
0.0773297
0.0773297
0.0773297
0.0773297
0.0773297
0.0773297
0.0773297
0.0773297
0.0773297
0.0773297
0.0773297
0.0773297
0.0773297
0.0773297
0.0773297
0.0773297
0.0773297
0.0773297
0.0773297
0.0773297
0.0773297
0.0773297
0.0773297
0.0773297
0.0773297
0.0773297
0.0773297
0.0773297
0.0773297
0.0773297
0.0773297
0.0773297
0.0773297
0.0773297
0.0773297
0.0773297
0.0773297
0.0773297
0.0773297
0.0773297
0.0773297
0.0773297
0.0773297
0.0773297
0.0773297
0.0773297
0.0773297
0.0773297
0.0773297
0.0773297
0.0773297
0.0773297
0.0773297
0.0773297
0.0773297
0.0773297
0.0773297
0.0773297
0.0773297
0.0773297
0.0773297
0.0773297
0.0773297
0.0773297
0.0773297
0.0773297
0.0773297
0.0773297
0.0773297
0.0773297
0.0773297
0.0773297
0.0773297
0.0773297
0.0773297
0.0773297
0.0773297
0.0773297
0.0773297
0.0773297
0.0773297
0.0773297
0.0773297
0.0773297
0.0773297
0.0773297
0.0773297
0.0773297
0.0773297
0.0773297
0.0773297
0.0773297
0.0773297
0.0773297
0.0773297
0.0773297
0.0773297
0.0773297
0.0773297
0.0773297
0.0773297
0.0773297
0.0773297
0.0773297
0.0773297
0.0773297
0.0773297
0.0773297
0.0773297
0.0773297
0.0773297
0.0773297
0.0773297
0.0773297
0.0773297
0.0773297
0.0773297
0.0773297
0.0773297
0.0773297
0.0773297
0.0773297
0.0773297
0.0773297
0.0773297
0.0773297
0.0773297
0.0773297
0.0773297
0.0773297
0.0773297
0.0773297
0.0773297
0.0773297
0.0773297
0.0773297
0.0773297
0.0773297
0.0773297
0.0773297
0.0773297
0.0773297
0.0773297
0.0773297
0.0773297
0.0773297
0.0773297
0.0773297
0.0773297
0.0773297
0.0773297
0.0773297
0.0773297
0.0773297
0.0773297
0.0773297
0.0773297
0.0773297
0.0773297
0.0773297
0.0773297
0.0773297
0.0773297
0.0773297
0.0773297
0.0773297
0.0773297
0.0773297
0.0773297
0.0773297
0.0773297
0.0773297
0.0773297
0.0773297
0.0773297
0.0773297
0.0773297
0.0773297
0.0773297
0.0773297
0.0773297
0.0773297
0.0773297
0.0773297
0.0773297
0.0773297
0.0773297
0.0773297
0.0773297
0.0773297
0.0773297
0.0773297
0.0773297
0.0773297
0.0773297
0.0773297
0.0773297
0.0773297
0.0773297
0.0773297
0.0773297
0.0773297
0.0773297
0.0773297
0.0773297
0.0773297
0.0773297
0.0773297
0.0773297
0.0773297
0.0773297
0.0773297
0.0773297
0.0773297
0.0773297
0.0773297
0.0773297
0.0773297
0.0773297
0.0773297
0.0773297
0.0773297
0.0773297
0.0773297
0.0773297
0.0773297
0.0773297
0.0773297
0.0773297
0.0773297
0.0773297
0.0773297
0.0773297
0.0773297
0.0773297
0.0773297
0.0773297
0.0773297
0.0773297
0.0773297
0.0773297
0.0773297
0.0773297
0.0773297
0.0773297
0.0773297
0.0773297
0.0773297
0.0773297
0.0773297
0.0773297
0.0773297
0.0773297
0.0773297
0.0773297
0.0773297
0.0773297
0.0773297
0.0773297
0.0773297
0.0773297
0.0773297
0.0773297
0.0773297
0.0773297
0.0773297
0.0773297
0.0773297
0.0773297
0.0773297
0.0773297
0.0773297
0.0773297
0.0773297
0.0773297
0.0773297
0.0773297
0.0773297
0.0773297
0.0773297
0.0773297
0.0773297
0.0773297
0.0773297
0.0773297
0.0773297
0.0773297
0.0773297
0.0773297
0.0773297
0.0773297
0.0773297
0.0773297
0.0773297
0.0773297
0.0773297
0.0773297
1
0.723469
0.346583
0.265854
0.250276
0.246404
0.244817
0.243914
0.24333
0.242928
0.242643
0.242442
0.242305
0.242214
0.242155
0.242112
0.242071
0.242023
0.241961
0.241883
0.24179
0.241686
0.241573
0.241454
0.241325
0.241167
0.240944
0.240593
0.240044
0.239248
0.238196
0.236941
0.23558
0.234225
0.23298
0.231913
0.231054
0.230403
0.229933
0.229613
0.229403
0.229273
0.229196
0.229152
0.229129
0.229116
0.22911
0.229107
0.229106
0.229105
0.229105
0.229105
0.229105
0.229105
0.229105
0.229105
0.229105
0.229105
0.229105
0.229105
0.229105
0.229105
0.229105
0.229105
0.229105
0.229105
0.229105
0.229105
0.229105
0.229105
0.229105
0.229105
0.229105
0.229105
0.229105
0.229105
0.229105
0.229105
0.229105
0.229105
0.229105
0.229105
0.229105
0.229105
0.229105
0.229105
0.229105
0.229105
0.229105
0.229105
0.229105
0.229105
0.229105
0.229105
0.229105
0.229105
0.229105
0.229105
0.229105
0.229105
0.229105
0.229105
0.229105
0.229105
0.229105
0.229105
0.229105
0.229105
0.229105
0.229105
0.229105
0.229105
0.229105
0.229105
0.229105
0.229105
0.229105
0.229105
0.229105
0.229105
0.229105
0.229105
0.229105
0.229105
0.229105
0.229105
0.229105
0.229105
0.229105
0.229105
0.229105
0.229105
0.229105
0.229105
0.229105
0.229105
0.229105
0.229105
0.229105
0.229105
0.229105
0.229105
0.229105
0.229105
0.229105
0.229105
0.229105
0.229105
0.229105
0.229105
0.229105
0.229105
0.229105
0.229105
0.229105
0.229105
0.229105
0.229105
0.229105
0.229105
0.229105
0.229105
0.229105
0.229105
0.229105
0.229105
0.229105
0.229105
0.229105
0.229105
0.229105
0.229105
0.229105
0.229105
0.229105
0.229105
0.229105
0.229105
0.229105
0.229105
0.229105
0.229105
0.229105
0.229105
0.229105
0.229105
0.229105
0.229105
0.229105
0.229105
0.229105
0.229105
0.229105
0.229105
0.229105
0.229105
0.229105
0.229105
0.229105
0.229105
0.229105
0.229105
0.229105
0.229105
0.229105
0.229105
0.229105
0.229105
0.229105
0.229105
0.229105
0.229105
0.229105
0.229105
0.229105
0.229105
0.229105
0.229105
0.229105
0.229105
0.229105
0.229105
0.229105
0.229105
0.229105
0.229105
0.229105
0.229105
0.229105
0.229105
0.229105
0.229105
0.229105
0.229105
0.229105
0.229105
0.229105
0.229105
0.229105
0.229105
0.229105
0.229105
0.229105
0.229105
0.229105
0.229105
0.229105
0.229105
0.229105
0.229105
0.229105
0.229105
0.229105
0.229105
0.229105
0.229105
0.229105
0.229105
0.229105
0.229105
0.229105
0.229105
0.229105
0.229105
0.229105
0.229105
0.229105
0.229105
0.229105
0.229105
0.229105
0.229105
0.229105
0.229105
0.229105
0.229105
0.229105
0.229105
0.229105
0.229105
0.229105
0.229105
0.229105
0.229105
0.229105
0.229105
0.229105
0.229105
0.229105
0.229105
0.229105
0.229105
0.229105
0.229105
0.229105
0.229105
0.229105
0.229105
0.229105
0.229105
0.229105
0.229105
0.229105
0.229105
0.229105
0.229105
0.229105
0.229105
0.229105
0.229105
0.229105
0.229105
0.229105
0.229105
0.229105
0.229105
0.229105
0.229105
0.229105
0.229105
0.229105
0.229105
0.229105
0.229105
0.229105
0.229105
0.229105
0.229105
0.229105
0.229105
0.229105
0.229105
0.229105
0.229105
0.229105
0.229105
0.229105
0.229105
0.229105
0.229105
0.229105
0.229105
0.229105
0.229105
0.229105
0.229105
0.229105
0.229105
0.229105
0.229105
0.229105
0.229105
0.229105
0.229105