# vtk DataFile Version 2.0
FlowField
ASCII
DATASET STRUCTURED_GRID
DIMENSIONS 800 1 200
POINTS 160000 float
0 0 0
0.08 0 0
0.16 0 0
0.24 0 0
0.32 0 0
0.4 0 0
0.48 0 0
0.56 0 0
0.64 0 0
0.72 0 0
0.8 0 0
0.88 0 0
0.96 0 0
1.04 0 0
1.12 0 0
1.2 0 0
1.28 0 0
1.36 0 0
1.44 0 0
1.52 0 0
1.6 0 0
1.68 0 0
1.76 0 0
1.84 0 0
1.92 0 0
2 0 0
2.08 0 0
2.16 0 0
2.24 0 0
2.32 0 0
2.4 0 0
2.48 0 0
2.56 0 0
2.64 0 0
2.72 0 0
2.8 0 0
2.88 0 0
2.96 0 0
3.04 0 0
3.12 0 0
3.2 0 0
3.28 0 0
3.36 0 0
3.44 0 0
3.52 0 0
3.6 0 0
3.68 0 0
3.76 0 0
3.84 0 0
3.92 0 0
4 0 0
4.08 0 0
4.16 0 0
4.24 0 0
4.32 0 0
4.4 0 0
4.48 0 0
4.56 0 0
4.64 0 0
4.72 0 0
4.8 0 0
4.88 0 0
4.96 0 0
5.04 0 0
5.12 0 0
5.2 0 0
5.28 0 0
5.36 0 0
5.44 0 0
5.52 0 0
5.6 0 0
5.68 0 0
5.76 0 0
5.84 0 0
5.92 0 0
6 0 0
6.08 0 0
6.16 0 0
6.24 0 0
6.32 0 0
6.4 0 0
6.48 0 0
6.56 0 0
6.64 0 0
6.72 0 0
6.8 0 0
6.88 0 0
6.96 0 0
7.04 0 0
7.12 0 0
7.2 0 0
7.28 0 0
7.36 0 0
7.44 0 0
7.52 0 0
7.6 0 0
7.68 0 0
7.76 0 0
7.84 0 0
7.92 0 0
8 0 0
8.08 0 0
8.16 0 0
8.24 0 0
8.32 0 0
8.4 0 0
8.48 0 0
8.56 0 0
8.64 0 0
8.72 0 0
8.8 0 0
8.88 0 0
8.96 0 0
9.04 0 0
9.12 0 0
9.2 0 0
9.28 0 0
9.36 0 0
9.44 0 0
9.52 0 0
9.6 0 0
9.68 0 0
9.76 0 0
9.84 0 0
9.92 0 0
10 0 0
10.08 0 0
10.16 0 0
10.24 0 0
10.32 0 0
10.4 0 0
10.48 0 0
10.56 0 0
10.64 0 0
10.72 0 0
10.8 0 0
10.88 0 0
10.96 0 0
11.04 0 0
11.12 0 0
11.2 0 0
11.28 0 0
11.36 0 0
11.44 0 0
11.52 0 0
11.6 0 0
11.68 0 0
11.76 0 0
11.84 0 0
11.92 0 0
12 0 0
12.08 0 0
12.16 0 0
12.24 0 0
12.32 0 0
12.4 0 0
12.48 0 0
12.56 0 0
12.64 0 0
12.72 0 0
12.8 0 0
12.88 0 0
12.96 0 0
13.04 0 0
13.12 0 0
13.2 0 0
13.28 0 0
13.36 0 0
13.44 0 0
13.52 0 0
13.6 0 0
13.68 0 0
13.76 0 0
13.84 0 0
13.92 0 0
14 0 0
14.08 0 0
14.16 0 0
14.24 0 0
14.32 0 0
14.4 0 0
14.48 0 0
14.56 0 0
14.64 0 0
14.72 0 0
14.8 0 0
14.88 0 0
14.96 0 0
15.04 0 0
15.12 0 0
15.2 0 0
15.28 0 0
15.36 0 0
15.44 0 0
15.52 0 0
15.6 0 0
15.68 0 0
15.76 0 0
15.84 0 0
15.92 0 0
16 0 0
16.08 0 0
16.16 0 0
16.24 0 0
16.32 0 0
16.4 0 0
16.48 0 0
16.56 0 0
16.64 0 0
16.72 0 0
16.8 0 0
16.88 0 0
16.96 0 0
17.04 0 0
17.12 0 0
17.2 0 0
17.28 0 0
17.36 0 0
17.44 0 0
17.52 0 0
17.6 0 0
17.68 0 0
17.76 0 0
17.84 0 0
17.92 0 0
18 0 0
18.08 0 0
18.16 0 0
18.24 0 0
18.32 0 0
18.4 0 0
18.48 0 0
18.56 0 0
18.64 0 0
18.72 0 0
18.8 0 0
18.88 0 0
18.96 0 0
19.04 0 0
19.12 0 0
19.2 0 0
19.28 0 0
19.36 0 0
19.44 0 0
19.52 0 0
19.6 0 0
19.68 0 0
19.76 0 0
19.84 0 0
19.92 0 0
20 0 0
20.08 0 0
20.16 0 0
20.24 0 0
20.32 0 0
20.4 0 0
20.48 0 0
20.56 0 0
20.64 0 0
20.72 0 0
20.8 0 0
20.88 0 0
20.96 0 0
21.04 0 0
21.12 0 0
21.2 0 0
21.28 0 0
21.36 0 0
21.44 0 0
21.52 0 0
21.6 0 0
21.68 0 0
21.76 0 0
21.84 0 0
21.92 0 0
22 0 0
22.08 0 0
22.16 0 0
22.24 0 0
22.32 0 0
22.4 0 0
22.48 0 0
22.56 0 0
22.64 0 0
22.72 0 0
22.8 0 0
22.88 0 0
22.96 0 0
23.04 0 0
23.12 0 0
23.2 0 0
23.28 0 0
23.36 0 0
23.44 0 0
23.52 0 0
23.6 0 0
23.68 0 0
23.76 0 0
23.84 0 0
23.92 0 0
24 0 0
24.08 0 0
24.16 0 0
24.24 0 0
24.32 0 0
24.4 0 0
24.48 0 0
24.56 0 0
24.64 0 0
24.72 0 0
24.8 0 0
24.88 0 0
24.96 0 0
25.04 0 0
25.12 0 0
25.2 0 0
25.28 0 0
25.36 0 0
25.44 0 0
25.52 0 0
25.6 0 0
25.68 0 0
25.76 0 0
25.84 0 0
25.92 0 0
26 0 0
26.08 0 0
26.16 0 0
26.24 0 0
26.32 0 0
26.4 0 0
26.48 0 0
26.56 0 0
26.64 0 0
26.72 0 0
26.8 0 0
26.88 0 0
26.96 0 0
27.04 0 0
27.12 0 0
27.2 0 0
27.28 0 0
27.36 0 0
27.44 0 0
27.52 0 0
27.6 0 0
27.68 0 0
27.76 0 0
27.84 0 0
27.92 0 0
28 0 0
28.08 0 0
28.16 0 0
28.24 0 0
28.32 0 0
28.4 0 0
28.48 0 0
28.56 0 0
28.64 0 0
28.72 0 0
28.8 0 0
28.88 0 0
28.96 0 0
29.04 0 0
29.12 0 0
29.2 0 0
29.28 0 0
29.36 0 0
29.44 0 0
29.52 0 0
29.6 0 0
29.68 0 0
29.76 0 0
29.84 0 0
29.92 0 0
30 0 0
30.08 0 0
30.16 0 0
30.24 0 0
30.32 0 0
30.4 0 0
30.48 0 0
30.56 0 0
30.64 0 0
30.72 0 0
30.8 0 0
30.88 0 0
30.96 0 0
31.04 0 0
31.12 0 0
31.2 0 0
31.28 0 0
31.36 0 0
31.44 0 0
31.52 0 0
31.6 0 0
31.68 0 0
31.76 0 0
31.84 0 0
31.92 0 0
32 0 0
32.08 0 0
32.16 0 0
32.24 0 0
32.32 0 0
32.4 0 0
32.48 0 0
32.56 0 0
32.64 0 0
32.72 0 0
32.8 0 0
32.88 0 0
32.96 0 0
33.04 0 0
33.12 0 0
33.2 0 0
33.28 0 0
33.36 0 0
33.44 0 0
33.52 0 0
33.6 0 0
33.68 0 0
33.76 0 0
33.84 0 0
33.92 0 0
34 0 0
34.08 0 0
34.16 0 0
34.24 0 0
34.32 0 0
34.4 0 0
34.48 0 0
34.56 0 0
34.64 0 0
34.72 0 0
34.8 0 0
34.88 0 0
34.96 0 0
35.04 0 0
35.12 0 0
35.2 0 0
35.28 0 0
35.36 0 0
35.44 0 0
35.52 0 0
35.6 0 0
35.68 0 0
35.76 0 0
35.84 0 0
35.92 0 0
36 0 0
36.08 0 0
36.16 0 0
36.24 0 0
36.32 0 0
36.4 0 0
36.48 0 0
36.56 0 0
36.64 0 0
36.72 0 0
36.8 0 0
36.88 0 0
36.96 0 0
37.04 0 0
37.12 0 0
37.2 0 0
37.28 0 0
37.36 0 0
37.44 0 0
37.52 0 0
37.6 0 0
37.68 0 0
37.76 0 0
37.84 0 0
37.92 0 0
38 0 0
38.08 0 0
38.16 0 0
38.24 0 0
38.32 0 0
38.4 0 0
38.48 0 0
38.56 0 0
38.64 0 0
38.72 0 0
38.8 0 0
38.88 0 0
38.96 0 0
39.04 0 0
39.12 0 0
39.2 0 0
39.28 0 0
39.36 0 0
39.44 0 0
39.52 0 0
39.6 0 0
39.68 0 0
39.76 0 0
39.84 0 0
39.92 0 0
40 0 0
40.08 0 0
40.16 0 0
40.24 0 0
40.32 0 0
40.4 0 0
40.48 0 0
40.56 0 0
40.64 0 0
40.72 0 0
40.8 0 0
40.88 0 0
40.96 0 0
41.04 0 0
41.12 0 0
41.2 0 0
41.28 0 0
41.36 0 0
41.44 0 0
41.52 0 0
41.6 0 0
41.68 0 0
41.76 0 0
41.84 0 0
41.92 0 0
42 0 0
42.08 0 0
42.16 0 0
42.24 0 0
42.32 0 0
42.4 0 0
42.48 0 0
42.56 0 0
42.64 0 0
42.72 0 0
42.8 0 0
42.88 0 0
42.96 0 0
43.04 0 0
43.12 0 0
43.2 0 0
43.28 0 0
43.36 0 0
43.44 0 0
43.52 0 0
43.6 0 0
43.68 0 0
43.76 0 0
43.84 0 0
43.92 0 0
44 0 0
44.08 0 0
44.16 0 0
44.24 0 0
44.32 0 0
44.4 0 0
44.48 0 0
44.56 0 0
44.64 0 0
44.72 0 0
44.8 0 0
44.88 0 0
44.96 0 0
45.04 0 0
45.12 0 0
45.2 0 0
45.28 0 0
45.36 0 0
45.44 0 0
45.52 0 0
45.6 0 0
45.68 0 0
45.76 0 0
45.84 0 0
45.92 0 0
46 0 0
46.08 0 0
46.16 0 0
46.24 0 0
46.32 0 0
46.4 0 0
46.48 0 0
46.56 0 0
46.64 0 0
46.72 0 0
46.8 0 0
46.88 0 0
46.96 0 0
47.04 0 0
47.12 0 0
47.2 0 0
47.28 0 0
47.36 0 0
47.44 0 0
47.52 0 0
47.6 0 0
47.68 0 0
47.76 0 0
47.84 0 0
47.92 0 0
48 0 0
48.08 0 0
48.16 0 0
48.24 0 0
48.32 0 0
48.4 0 0
48.48 0 0
48.56 0 0
48.64 0 0
48.72 0 0
48.8 0 0
48.88 0 0
48.96 0 0
49.04 0 0
49.12 0 0
49.2 0 0
49.28 0 0
49.36 0 0
49.44 0 0
49.52 0 0
49.6 0 0
49.68 0 0
49.76 0 0
49.84 0 0
49.92 0 0
50 0 0
50.08 0 0
50.16 0 0
50.24 0 0
50.32 0 0
50.4 0 0
50.48 0 0
50.56 0 0
50.64 0 0
50.72 0 0
50.8 0 0
50.88 0 0
50.96 0 0
51.04 0 0
51.12 0 0
51.2 0 0
51.28 0 0
51.36 0 0
51.44 0 0
51.52 0 0
51.6 0 0
51.68 0 0
51.76 0 0
51.84 0 0
51.92 0 0
52 0 0
52.08 0 0
52.16 0 0
52.24 0 0
52.32 0 0
52.4 0 0
52.48 0 0
52.56 0 0
52.64 0 0
52.72 0 0
52.8 0 0
52.88 0 0
52.96 0 0
53.04 0 0
53.12 0 0
53.2 0 0
53.28 0 0
53.36 0 0
53.44 0 0
53.52 0 0
53.6 0 0
53.68 0 0
53.76 0 0
53.84 0 0
53.92 0 0
54 0 0
54.08 0 0
54.16 0 0
54.24 0 0
54.32 0 0
54.4 0 0
54.48 0 0
54.56 0 0
54.64 0 0
54.72 0 0
54.8 0 0
54.88 0 0
54.96 0 0
55.04 0 0
55.12 0 0
55.2 0 0
55.28 0 0
55.36 0 0
55.44 0 0
55.52 0 0
55.6 0 0
55.68 0 0
55.76 0 0
55.84 0 0
55.92 0 0
56 0 0
56.08 0 0
56.16 0 0
56.24 0 0
56.32 0 0
56.4 0 0
56.48 0 0
56.56 0 0
56.64 0 0
56.72 0 0
56.8 0 0
56.88 0 0
56.96 0 0
57.04 0 0
57.12 0 0
57.2 0 0
57.28 0 0
57.36 0 0
57.44 0 0
57.52 0 0
57.6 0 0
57.68 0 0
57.76 0 0
57.84 0 0
57.92 0 0
58 0 0
58.08 0 0
58.16 0 0
58.24 0 0
58.32 0 0
58.4 0 0
58.48 0 0
58.56 0 0
58.64 0 0
58.72 0 0
58.8 0 0
58.88 0 0
58.96 0 0
59.04 0 0
59.12 0 0
59.2 0 0
59.28 0 0
59.36 0 0
59.44 0 0
59.52 0 0
59.6 0 0
59.68 0 0
59.76 0 0
59.84 0 0
59.92 0 0
60 0 0
60.08 0 0
60.16 0 0
60.24 0 0
60.32 0 0
60.4 0 0
60.48 0 0
60.56 0 0
60.64 0 0
60.72 0 0
60.8 0 0
60.88 0 0
60.96 0 0
61.04 0 0
61.12 0 0
61.2 0 0
61.28 0 0
61.36 0 0
61.44 0 0
61.52 0 0
61.6 0 0
61.68 0 0
61.76 0 0
61.84 0 0
61.92 0 0
62 0 0
62.08 0 0
62.16 0 0
62.24 0 0
62.32 0 0
62.4 0 0
62.48 0 0
62.56 0 0
62.64 0 0
62.72 0 0
62.8 0 0
62.88 0 0
62.96 0 0
63.04 0 0
63.12 0 0
63.2 0 0
63.28 0 0
63.36 0 0
63.44 0 0
63.52 0 0
63.6 0 0
63.68 0 0
63.76 0 0
63.84 0 0
63.92 0 0
0 0.005 0
0.08 0.005 0
0.16 0.005 0
0.24 0.005 0
0.32 0.005 0
0.4 0.005 0
0.48 0.005 0
0.56 0.005 0
0.64 0.005 0
0.72 0.005 0
0.8 0.005 0
0.88 0.005 0
0.96 0.005 0
1.04 0.005 0
1.12 0.005 0
1.2 0.005 0
1.28 0.005 0
1.36 0.005 0
1.44 0.005 0
1.52 0.005 0
1.6 0.005 0
1.68 0.005 0
1.76 0.005 0
1.84 0.005 0
1.92 0.005 0
2 0.005 0
2.08 0.005 0
2.16 0.005 0
2.24 0.005 0
2.32 0.005 0
2.4 0.005 0
2.48 0.005 0
2.56 0.005 0
2.64 0.005 0
2.72 0.005 0
2.8 0.005 0
2.88 0.005 0
2.96 0.005 0
3.04 0.005 0
3.12 0.005 0
3.2 0.005 0
3.28 0.005 0
3.36 0.005 0
3.44 0.005 0
3.52 0.005 0
3.6 0.005 0
3.68 0.005 0
3.76 0.005 0
3.84 0.005 0
3.92 0.005 0
4 0.005 0
4.08 0.005 0
4.16 0.005 0
4.24 0.005 0
4.32 0.005 0
4.4 0.005 0
4.48 0.005 0
4.56 0.005 0
4.64 0.005 0
4.72 0.005 0
4.8 0.005 0
4.88 0.005 0
4.96 0.005 0
5.04 0.005 0
5.12 0.005 0
5.2 0.005 0
5.28 0.005 0
5.36 0.005 0
5.44 0.005 0
5.52 0.005 0
5.6 0.005 0
5.68 0.005 0
5.76 0.005 0
5.84 0.005 0
5.92 0.005 0
6 0.005 0
6.08 0.005 0
6.16 0.005 0
6.24 0.005 0
6.32 0.005 0
6.4 0.005 0
6.48 0.005 0
6.56 0.005 0
6.64 0.005 0
6.72 0.005 0
6.8 0.005 0
6.88 0.005 0
6.96 0.005 0
7.04 0.005 0
7.12 0.005 0
7.2 0.005 0
7.28 0.005 0
7.36 0.005 0
7.44 0.005 0
7.52 0.005 0
7.6 0.005 0
7.68 0.005 0
7.76 0.005 0
7.84 0.005 0
7.92 0.005 0
8 0.005 0
8.08 0.005 0
8.16 0.005 0
8.24 0.005 0
8.32 0.005 0
8.4 0.005 0
8.48 0.005 0
8.56 0.005 0
8.64 0.005 0
8.72 0.005 0
8.8 0.005 0
8.88 0.005 0
8.96 0.005 0
9.04 0.005 0
9.12 0.005 0
9.2 0.005 0
9.28 0.005 0
9.36 0.005 0
9.44 0.005 0
9.52 0.005 0
9.6 0.005 0
9.68 0.005 0
9.76 0.005 0
9.84 0.005 0
9.92 0.005 0
10 0.005 0
10.08 0.005 0
10.16 0.005 0
10.24 0.005 0
10.32 0.005 0
10.4 0.005 0
10.48 0.005 0
10.56 0.005 0
10.64 0.005 0
10.72 0.005 0
10.8 0.005 0
10.88 0.005 0
10.96 0.005 0
11.04 0.005 0
11.12 0.005 0
11.2 0.005 0
11.28 0.005 0
11.36 0.005 0
11.44 0.005 0
11.52 0.005 0
11.6 0.005 0
11.68 0.005 0
11.76 0.005 0
11.84 0.005 0
11.92 0.005 0
12 0.005 0
12.08 0.005 0
12.16 0.005 0
12.24 0.005 0
12.32 0.005 0
12.4 0.005 0
12.48 0.005 0
12.56 0.005 0
12.64 0.005 0
12.72 0.005 0
12.8 0.005 0
12.88 0.005 0
12.96 0.005 0
13.04 0.005 0
13.12 0.005 0
13.2 0.005 0
13.28 0.005 0
13.36 0.005 0
13.44 0.005 0
13.52 0.005 0
13.6 0.005 0
13.68 0.005 0
[...]
POINT_DATA 160000

SCALARS phi float 1
LOOKUP_TABLE default
1
1
1
1
1
1
1
1
1
1
1
1
1
1
1
1
1
1
0.999999
0.999999
0.999998
0.999996
0.999993
0.999989
0.999983
0.999974
0.999962
0.999947
0.999927
0.999902
0.999871
0.999832
0.999786
0.999732
0.999668
0.999592
0.999505
0.999408
0.999297
0.999171
0.999031
0.998878
0.99871
0.998526
0.998323
0.998103
0.997869
0.99762
0.99735
0.997059
0.99675
0.996427
0.996089
0.99573
0.995347
0.994942
0.994525
0.994097
0.993651
0.993179
0.99268
0.992165
0.991644
0.991117
0.990568
0.989985
0.989371
0.988745
0.988122
0.987496
0.986843
0.986135
0.98537
0.984569
0.983756
0.982925
0.982031
0.981012
0.979825
0.978465
0.976957
0.975309
0.973475
0.971349
0.9688
0.965728
0.962097
0.957928
0.95324
0.947988
0.942031
0.93516
0.927164
0.91791
0.907389
0.895687
0.882913
0.869104
0.854162
0.837856
0.819889
0.800013
0.778129
0.754342
0.728943
0.702318
0.674822
0.646664
0.617835
0.588102
0.557081
0.524352
0.489588
0.452677
0.41379
0.373394
0.33221
0.291131
0.251114
0.213075
0.177797
0.145873
0.117666
0.0933208
0.0727788
0.0558222
0.0421191
0.0312699
0.0228489
0.0164367
0.0116439
0.0081253
0.0055868
0.0037861
0.00252957
0.00166665
0.00108317
0.000694581
0.000439568
0.000274607
0.000169388
0.00010319
6.20965e-05
3.69205e-05
2.16934e-05
1.25988e-05
7.23368e-06
4.10671e-06
2.30575e-06
1.28053e-06
7.0355e-07
3.82472e-07
2.05765e-07
1.09566e-07
5.77531e-08
3.01391e-08
1.5574e-08
7.96975e-09
4.0394e-09
2.02802e-09
1.0087e-09
4.97093e-10
2.42744e-10
1.17475e-10
5.63468e-11
2.67899e-11
1.26267e-11
5.90032e-12
2.73379e-12
1.25603e-12
5.72296e-13
2.58622e-13
1.15924e-13
5.15442e-14
2.27364e-14
9.95025e-15
4.32067e-15
1.86169e-15
7.96036e-16
3.37802e-16
1.42274e-16
5.94779e-17
2.4682e-17
1.01678e-17
4.15843e-18
1.68854e-18
6.80775e-19
2.7254e-19
1.08348e-19
4.27756e-20
1.67721e-20
6.53154e-21
2.52643e-21
9.70698e-22
3.70486e-22
1.40473e-22
5.29138e-23
1.98027e-23
7.36339e-24
2.72053e-24
9.98782e-25
3.64377e-25
1.32104e-25
4.75972e-26
1.7044e-26
6.066e-27
2.14583e-27
7.54516e-28
2.63718e-28
9.16276e-29
3.16481e-29
1.08673e-29
3.70989e-30
1.25918e-30
4.24931e-31
1.42583e-31
4.75719e-32
1.57828e-32
5.20699e-33
1.70833e-33
5.57381e-34
1.80862e-34
5.83671e-35
1.8734e-35
5.9807e-36
1.89908e-36
5.99816e-37
1.88449e-37
5.88951e-38
1.83101e-38
5.66295e-39
1.74239e-39
5.33353e-40
1.62428e-40
4.9215e-41
1.48367e-41
4.45033e-42
1.32823e-42
3.94453e-43
1.16565e-43
3.42769e-44
1.00302e-44
2.92083e-45
8.46442e-46
2.44116e-46
7.00674e-47
2.00154e-47
5.69054e-48
1.61025e-48
4.5352e-49
1.27136e-49
3.54753e-50
9.85316e-51
2.72412e-51
7.49705e-52
2.05389e-52
5.60137e-53
1.52073e-53
4.1102e-54
1.10594e-54
2.9626e-55
7.90116e-56
2.09796e-56
5.54626e-57
1.45985e-57
3.82588e-58
9.98337e-59
2.59391e-59
6.71078e-60
1.72878e-60
4.43469e-61
1.1328e-61
2.88147e-62
7.29892e-63
1.84116e-63
4.62512e-64
1.15707e-64
2.88277e-65
7.15287e-66
1.76758e-66
4.35026e-67
1.06634e-67
2.6033e-68
6.33012e-69
1.53309e-69
3.69822e-70
8.88588e-71
2.12664e-71
5.06971e-72
1.20385e-72
2.84754e-73
6.70938e-74
1.57477e-74
3.68196e-75
8.57582e-76
1.98982e-76
4.59941e-77
1.05912e-77
2.42966e-78
5.55285e-79
1.26433e-79
2.86803e-80
6.48177e-81
1.45947e-81
3.27413e-82
7.31816e-83
1.62974e-83
3.61618e-84
7.99473e-85
1.76111e-85
3.86548e-86
8.45395e-87
1.8423e-87
4.0005e-88
8.65614e-89
1.86636e-89
4.00993e-90
8.58518e-91
1.83165e-91
3.8942e-92
8.25057e-93
1.74199e-93
3.66527e-94
7.6855e-95
1.60601e-95
3.34458e-96
6.94153e-97
1.4358e-97
2.95982e-98
6.08095e-99
1.24514e-99
2.54104e-100
5.1684e-101
1.04774e-101
2.11697e-102
4.26325e-103
8.55729e-104
1.71201e-104
3.41394e-105
6.78561e-106
1.34435e-106
2.65477e-107
5.22564e-108
1.02531e-108
2.00529e-109
3.9094e-110
7.5973e-111
1.47173e-111
2.84199e-112
5.47072e-113
1.04978e-113
2.00813e-114
3.82936e-115
7.27958e-116
1.37955e-116
2.60628e-117
4.90866e-118
9.21652e-119
1.7252e-119
3.21944e-120
5.98957e-121
1.11094e-121
2.05432e-122
3.78731e-123
6.9612e-124
1.27565e-124
2.33065e-125
4.24547e-126
7.71044e-127
1.39618e-127
2.52068e-128
4.53745e-129
8.14378e-130
1.45735e-130
2.60035e-131
4.62626e-132
8.2066e-133
1.45156e-133
2.56007e-134
4.50208e-135
7.8945e-136
1.38035e-136
2.40663e-137
4.184e-138
7.25331e-139
1.25386e-139
2.16138e-140
3.71524e-141
6.36825e-142
1.08851e-142
1.85538e-143
3.15367e-144
5.34555e-145
9.0357e-146
1.5231e-146
2.56032e-147
4.29205e-148
7.17532e-149
1.19627e-149
1.98897e-150
3.29794e-151
5.45354e-152
8.99364e-153
1.47917e-153
2.42622e-154
3.96892e-155
6.47515e-156
1.05357e-156
1.7097e-157
2.76707e-158
4.46648e-159
7.19053e-160
1.15454e-160
1.84889e-161
2.95306e-162
4.70431e-163
7.4745e-164
1.1845e-164
1.87223e-165
2.95158e-166
4.64115e-167
7.27905e-168
1.13869e-168
1.77672e-169
2.76515e-170
4.29248e-171
6.64644e-172
1.02651e-172
1.58139e-173
2.43003e-174
3.72466e-175
5.69466e-176
8.68473e-177
1.32116e-177
2.00479e-178
3.03456e-179
4.58187e-180
6.90096e-181
1.03681e-181
1.55388e-182
2.32307e-183
3.46448e-184
5.15403e-185
7.64879e-186
1.13234e-186
1.67225e-187
2.4636e-188
3.62062e-189
5.30818e-190
7.76351e-191
1.13272e-191
1.64871e-192
2.394e-193
3.46788e-194
5.01147e-195
7.2249e-196
1.03912e-196
1.49097e-197
2.13424e-198
3.04785e-199
4.34229e-200
6.17197e-201
8.75204e-202
1.23816e-202
1.74756e-203
2.46078e-204
3.45704e-205
4.84539e-206
6.77558e-207
9.45282e-208
1.31575e-208
1.82721e-209
2.53166e-210
3.49968e-211
4.82678e-212
6.64197e-213
9.119e-214
1.24914e-214
1.70723e-215
2.32803e-216
3.16743e-217
4.29979e-218
5.82386e-219
7.87047e-220
1.06125e-220
1.4278e-221
1.91667e-222
2.56722e-223
3.43094e-224
4.57512e-225
6.08741e-226
8.08172e-227
1.07058e-227
1.41508e-228
1.86634e-229
2.45613e-230
3.22525e-231
4.226e-232
5.52525e-233
7.20827e-234
9.38361e-235
1.21891e-235
1.57992e-236
2.04345e-237
2.6373e-238
3.39645e-239
4.36478e-240
5.5972e-241
7.16233e-242
9.14564e-243
1.16534e-243
1.48173e-244
1.88005e-245
2.38042e-246
3.00761e-247
3.79208e-248
4.77115e-249
5.99043e-250
7.50562e-251
9.38445e-252
1.17092e-252
1.45795e-253
1.81158e-254
2.24634e-255
2.77968e-256
3.43256e-257
4.23008e-258
5.20219e-259
6.38461e-260
7.81977e-261
9.55798e-262
1.16588e-262
1.41924e-263
1.72416e-264
2.09035e-265
2.52919e-266
3.05398e-267
3.68023e-268
4.426e-269
5.31221e-270
6.36309e-271
7.60663e-272
9.07504e-273
1.08054e-273
1.284e-274
1.52275e-275
1.80232e-276
2.129e-277
2.50993e-278
2.95318e-279
3.46788e-280
4.06428e-281
4.75393e-282
5.54972e-283
6.46608e-284
7.51906e-285
8.7265e-286
1.01082e-286
1.16859e-287
1.34837e-288
1.55281e-289
1.7848e-290
2.0475e-291
2.34434e-292
2.67908e-293
3.05575e-294
3.47871e-295
3.95266e-296
4.48263e-297
5.07399e-298
5.73246e-299
6.46411e-300
7.27535e-301
8.17294e-302
9.16396e-303
1.02558e-303
1.14562e-304
1.2773e-305
1.42146e-306
1.57893e-307
1.75057e-308
1.93725e-309
2.13985e-310
2.35926e-311
2.59634e-312
2.85195e-313
3.12694e-314
3.42213e-315
3.73829e-316
4.07614e-317
4.43637e-318
4.81966e-319
5.2282e-320
5.66693e-321
6.27463e-322
7.41098e-323
0
0
0
0
0
0
0
0
0
0
0
0
0
0
0
0
0
0
0
0
0
0
0
0
0
0
0
0
0
0
0
0
0
0
0
0
0
0
0
0
0
0
0
0
0
0
0
0
0
0
0
0
0
0
0
0
0
0
0
0
0
0
0
0
0
0
0
0
0
0
0
0
0
0
0
0
0
0
0
0
0
0
0
0
0
0
0
0
0
0
0
0
0
0
0
0
0
0
0
0
0
0
0
0
0
0
0
0
0
0
0
0
0
0
0
0
0
0
0
0
0
0
0
0
0
0
0
0
0
0
0
0
0
0
0
0
0
0
0
0
0
0
0
0
0
0
0
0
0
0
0
0
0
0
0
0
0
0
0
0
0
0
0
0
0
0
0
0
0
0
0
0
0
0
0
0
0
0
0
0
0
0
0
0
0
0
0
0
0
0
0
0
0
0
0
0
0
0
0
0
0
0
0
0
1
1
1
1
1
1
1
1
1
1
1
1
1
1
1
1
1
1
0.999999
0.999999
0.999998
0.999996
0.999993
0.999989
0.999983
0.999974
0.999962
0.999947
0.999927
0.999902
0.999871
0.999832
0.999786
0.999732
0.999668
0.999592
0.999505
0.999408
0.999297
0.999171
0.999031
0.998878
0.99871
0.998526
0.998323
0.998103
0.997869
0.99762
0.99735
0.997059
0.99675
0.996427
0.996089
0.99573
0.995347
0.994942
0.994525
0.994097
0.993651
0.993179
0.99268
0.992165
0.991644
0.991117
0.990568
0.989985
0.989371
0.988745
0.988122
0.987496
0.986843
0.986135
0.98537
0.984569
0.983756
0.982925
0.982031
0.981012
0.979825
0.978465
0.976957
0.975309
0.973475
0.971349
0.9688
0.965728
0.962097
0.957928
0.95324
0.947988
0.942031
0.93516
0.927164
0.91791
0.907389
0.895687
0.882913
0.869104
0.854162
0.837856
0.819889
0.800013
0.778129
0.754342
0.728943
0.702318
0.674822
0.646664
0.617835
0.588102
0.557081
0.524352
0.489588
0.452677
0.41379
0.373394
0.33221
0.291131
0.251114
0.213075
0.177797
0.145873
0.117666
0.0933208
0.0727788
0.0558222
0.0421191
0.0312699
0.0228489
0.0164367
0.0116439
0.0081253
0.0055868
0.0037861
0.00252957
0.00166665
0.00108317
0.000694581
0.000439568
0.000274607
0.000169388
0.00010319
6.20965e-05
3.69205e-05
2.16934e-05
1.25988e-05
7.23368e-06
4.10671e-06
2.30575e-06
1.28053e-06
7.0355e-07
3.82472e-07
2.05765e-07
1.09566e-07
5.77531e-08
3.01391e-08
1.5574e-08
7.96975e-09
4.0394e-09
2.02802e-09
1.0087e-09
4.97093e-10
2.42744e-10
1.17475e-10
5.63468e-11
2.67899e-11
1.26267e-11
5.90032e-12
2.73379e-12
1.25603e-12
5.72296e-13
2.58622e-13
1.15924e-13
5.15442e-14
2.27364e-14
9.95025e-15
4.32067e-15
1.86169e-15
7.96036e-16
3.37802e-16
1.42274e-16
5.94779e-17
2.4682e-17
1.01678e-17
4.15843e-18
1.68854e-18
6.80775e-19
2.7254e-19
1.08348e-19
4.27756e-20
1.67721e-20
6.53154e-21
2.52643e-21
9.70698e-22
3.70486e-22
1.40473e-22
5.29138e-23
1.98027e-23
7.36339e-24
2.72053e-24
9.98782e-25
3.64377e-25
1.32104e-25
4.75972e-26
1.7044e-26
6.066e-27
2.14583e-27
7.54516e-28
2.63718e-28
9.16276e-29
3.16481e-29
1.08673e-29
3.70989e-30
1.25918e-30
4.24931e-31
1.42583e-31
4.75719e-32
1.57828e-32
5.20699e-33
1.70833e-33
5.57381e-34
1.80862e-34
5.83671e-35
1.8734e-35
5.9807e-36
1.89908e-36
5.99816e-37
1.88449e-37
5.88951e-38
1.83101e-38
5.66295e-39
1.74239e-39
5.33353e-40
1.62428e-40
4.9215e-41
1.48367e-41
4.45033e-42
1.32823e-42
3.94453e-43
1.16565e-43
3.42769e-44
1.00302e-44
2.92083e-45
8.46442e-46
2.44116e-46
7.00674e-47
2.00154e-47
5.69054e-48
1.61025e-48
4.5352e-49
1.27136e-49
3.54753e-50
9.85316e-51
2.72412e-51
7.49705e-52
2.05389e-52
5.60137e-53
1.52073e-53
4.1102e-54
1.10594e-54
2.9626e-55
7.90116e-56
2.09796e-56
5.54626e-57
1.45985e-57
3.82588e-58
9.98337e-59
2.59391e-59
6.71078e-60
1.72878e-60
4.43469e-61
1.1328e-61
2.88147e-62
7.29892e-63
1.84116e-63
4.62512e-64
1.15707e-64
2.88277e-65
7.15287e-66
1.76758e-66
4.35026e-67
1.06634e-67
2.6033e-68
6.33012e-69
1.53309e-69
3.69822e-70
8.88588e-71
2.12664e-71
5.06971e-72
1.20385e-72
2.84754e-73
6.70938e-74
1.57477e-74
3.68196e-75
8.57582e-76
1.98982e-76
4.59941e-77
1.05912e-77
2.42966e-78
5.55285e-79
1.26433e-79
2.86803e-80
6.48177e-81
1.45947e-81
3.27413e-82
7.31816e-83
1.62974e-83
3.61618e-84
7.99473e-85
1.76111e-85
3.86548e-86
8.45395e-87
1.8423e-87
4.0005e-88
8.65614e-89
1.86636e-89
4.00993e-90
8.58518e-91
1.83165e-91
3.8942e-92
8.25057e-93
1.74199e-93
3.66527e-94
7.6855e-95
1.60601e-95
3.34458e-96
6.94153e-97
1.4358e-97
2.95982e-98
6.08095e-99
1.24514e-99
2.54104e-100
5.1684e-101
1.04774e-101
2.11697e-102
4.26325e-103
8.55729e-104
1.71201e-104
3.41394e-105
6.78561e-106
1.34435e-106
2.65477e-107
5.22564e-108
1.02531e-108
2.00529e-109
3.9094e-110
7.5973e-111
1.47173e-111
2.84199e-112
5.47072e-113
1.04978e-113
2.00813e-114
3.82936e-115
7.27958e-116
1.37955e-116
2.60628e-117
4.90866e-118
9.21652e-119
1.7252e-119
3.21944e-120
5.98957e-121
1.11094e-121
2.05432e-122
3.78731e-123
6.9612e-124
1.27565e-124
2.33065e-125
4.24547e-126
7.71044e-127
1.39618e-127
2.52068e-128
4.53745e-129
8.14378e-130
1.45735e-130
2.60035e-131
4.62626e-132
8.2066e-133
1.45156e-133
2.56007e-134
4.50208e-135
7.8945e-136
1.38035e-136
2.40663e-137
4.184e-138
7.25331e-139
1.25386e-139
2.16138e-140
3.71524e-141
6.36825e-142
1.08851e-142
1.85538e-143
3.15367e-144
5.34555e-145
9.0357e-146
1.5231e-146
2.56032e-147
4.29205e-148
7.17532e-149
1.19627e-149
1.98897e-150
3.29794e-151
5.45354e-152
8.99364e-153
1.47917e-153
2.42622e-154
3.96892e-155
6.47515e-156
1.05357e-156
1.7097e-157
2.76707e-158
4.46648e-159
7.19053e-160
1.15454e-160
1.84889e-161
2.95306e-162
4.70431e-163
7.4745e-164
1.1845e-164
1.87223e-165
2.95158e-166
4.64115e-167
7.27905e-168
1.13869e-168
1.77672e-169
2.76515e-170
4.29248e-171
6.64644e-172
1.02651e-172
1.58139e-173
2.43003e-174
3.72466e-175
5.69466e-176
8.68473e-177
1.32116e-177
2.00479e-178
3.03456e-179
4.58187e-180
6.90096e-181
1.03681e-181
1.55388e-182
2.32307e-183
3.46448e-184
5.15403e-185
7.64879e-186
1.13234e-186
1.67225e-187
2.4636e-188
3.62062e-189
5.30818e-190
7.76351e-191
1.13272e-191
1.64871e-192
2.394e-193
3.46788e-194
5.01147e-195
7.2249e-196
1.03912e-196
1.49097e-197
2.13424e-198
3.04785e-199
4.34229e-200
6.17197e-201
8.75204e-202
1.23816e-202
1.74756e-203
2.46078e-204
3.45704e-205
4.84539e-206
6.77558e-207
9.45282e-208
1.31575e-208
1.82721e-209
2.53166e-210
3.49968e-211
4.82678e-212
6.64197e-213
9.119e-214
1.24914e-214
1.70723e-215
2.32803e-216
3.16743e-217
4.29979e-218
5.82386e-219
7.87047e-220
1.06125e-220
1.4278e-221
1.91667e-222
2.56722e-223
3.43094e-224
4.57512e-225
6.08741e-226
8.08172e-227
1.07058e-227
1.41508e-228
1.86634e-229
2.45613e-230
3.22525e-231
4.226e-232
5.52525e-233
7.20827e-234
9.38361e-235
1.21891e-235
1.57992e-236
2.04345e-237
2.6373e-238
3.39645e-239
4.36478e-240
5.5972e-241
7.16233e-242
9.14564e-243
1.16534e-243
1.48173e-244
1.88005e-245
2.38042e-246
3.00761e-247
3.79208e-248
4.77115e-249
5.99043e-250
7.50562e-251
9.38445e-252
1.17092e-252
1.45795e-253
1.81158e-254
2.24634e-255
2.77968e-256
3.43256e-257
4.23008e-258
5.20219e-259
6.38461e-260
7.81977e-261
9.55798e-262
1.16588e-262
1.41924e-263
1.72416e-264
2.09035e-265
2.52919e-266
3.05398e-267
3.68023e-268
4.426e-269
5.31221e-270
6.36309e-271
7.60663e-272
9.07504e-273
1.08054e-273
1.284e-274
1.52275e-275
1.80232e-276
2.129e-277
2.50993e-278
2.95318e-279
3.46788e-280
4.06428e-281
4.75393e-282
5.54972e-283
6.46608e-284
7.51906e-285
8.7265e-286
1.01082e-286
1.16859e-287
1.34837e-288
1.55281e-289
1.7848e-290
2.0475e-291
2.34434e-292
2.67908e-293
3.05575e-294
3.47871e-295
3.95266e-296
4.48263e-297
5.07399e-298
5.73246e-299
6.46411e-300
7.27535e-301
8.17294e-302
9.16396e-303
1.02558e-303
1.14562e-304
1.2773e-305
1.42146e-306
1.57893e-307
1.75057e-308
1.93725e-309
2.13985e-310
2.35926e-311
2.59634e-312
2.85195e-313
3.12694e-314
3.42213e-315
3.73829e-316
4.07614e-317
4.43637e-318
4.81966e-319
5.2282e-320
5.66693e-321
6.27463e-322
7.41098e-323
0
0
0
0
0
0
0
0
0
0
0
0
0
0
0
0
0
0
0
0
0
0
0
0
0
0
0
0
0
0
0
0
0
0
0
0
0
0
0
0
0
0
0
0
0
0
0
0
0
0
0
0
0
0
0
0
0
0
0
0
0
0
0
0
0
0
0
0
0
0
0
0
0
0
0
0
0
0
0
0
0
0
0
0
0
0
0
0
0
0
0
0
0
0
0
0
0
0
0
0
0
0
0
0
0
0
0
0
0
0
0
0
0
0
0
0
0
0
0
0
0
0
0
0
0
0
0
0
0
0
0
0
0
0
0
0
0
0
0
0
0
0
0
0
0
0
0
0
0
0
0
0
0
0
0
0
0
0
0
0
0
0
0
0
0
0
0
0
0
0
0
0
0
0
0
0
0
0
0
0
0
0
0
0
0
0
0
0
0
0
0
0
0
0
0
0
0
0
0
0
0
0
0
0
1
1
1
1
1
1
1
1
1
1
1
1
1
1
1
1
1
1
0.999999
0.999999
0.999998
0.999996
0.999993
0.999989
0.999983
0.999974
0.999962
0.999947
0.999927
0.999902
0.999871
0.999832
0.999786
0.999732
0.999667
0.999591
0.999504
0.999407
0.999296
0.999171
0.99903
0.998877
0.998709
0.998525
0.998322
0.998102
0.997867
0.997618
0.997349
0.997058
0.996748
0.996424
0.996086
0.995727
0.995344
0.99494
0.994522
0.994093
0.993648
0.993176
0.992677
0.992161
0.991639
0.991112
0.990564
0.989982
0.989368
0.988741
0.988116
0.987491
0.986839
0.986134
0.985371
0.984571
0.983757
0.982927
0.982038
0.981028
0.979852
0.978502
0.977001
0.975362
0.973543
0.971442
0.968926
0.965892
0.9623
0.958167
0.953515
0.948307
0.942409
0.935615
0.927709
0.918553
0.908125
0.896509
0.883814
0.870088
0.855244
0.839058
0.821237
0.801523
0.779803
0.756165
0.730887
0.704352
0.676923
0.648825
0.620067
0.590435
0.559551
0.526993
0.492422
0.455704
0.416985
0.376707
0.335573
0.294465
0.254338
0.216116
0.180595
0.148383
0.119866
0.0952035
0.0743546
0.0571128
0.0431541
0.0320833
0.0234757
0.0169107
0.0119958
0.00838198
0.00577083
0.00391585
0.00261957
0.00172811
0.0011245
0.000721958
0.000457441
0.00028611
0.000176689
0.000107761
6.49212e-05
3.86433e-05
2.27308e-05
1.32158e-05
7.59612e-06
4.31709e-06
2.42644e-06
1.34896e-06
7.41917e-07
4.03744e-07
2.1743e-07
1.15894e-07
6.11493e-08
3.1943e-08
1.65223e-08
8.46323e-09
4.29364e-09
2.15772e-09
1.07423e-09
5.29883e-10
2.58998e-10
1.25456e-10
6.02306e-11
2.86625e-11
1.35216e-11
6.32417e-12
2.93279e-12
1.34866e-12
6.15043e-13
2.78183e-13
1.24801e-13
5.55393e-14
2.45198e-14
1.07399e-14
4.66754e-15
2.01285e-15
8.61398e-16
3.65846e-16
1.54214e-16
6.45229e-17
2.67977e-17
1.10485e-17
4.5223e-18
1.83779e-18
7.41549e-19
2.9711e-19
1.1821e-19
4.67068e-20
1.83281e-20
7.14316e-21
2.76519e-21
1.06327e-21
4.06138e-22
1.54111e-22
5.80963e-23
2.1759e-23
8.0971e-24
2.99392e-24
1.09999e-24
4.01609e-25
1.45713e-25
5.25406e-26
1.88284e-26
6.70615e-27
2.37407e-27
8.35394e-28
2.92205e-28
1.01601e-28
3.5119e-29
1.2068e-29
4.12287e-30
1.40038e-30
4.72929e-31
1.58804e-31
5.30229e-32
1.76042e-32
5.81209e-33
1.90823e-33
6.23056e-34
2.02318e-34
6.53385e-35
2.09867e-35
6.70465e-36
2.13048e-36
6.73384e-37
2.11712e-37
6.62126e-38
2.05997e-38
6.37556e-39
1.96303e-39
6.01315e-40
1.83254e-40
5.5564e-41
1.67624e-41
5.03146e-42
1.50272e-42
4.46582e-43
1.32061e-43
3.88606e-44
1.13794e-44
3.31598e-45
9.61618e-46
2.77524e-46
7.97107e-47
2.27857e-47
6.48258e-48
1.83563e-48
5.17347e-49
1.45128e-49
4.0523e-50
1.12628e-50
3.11594e-51
8.58115e-52
2.35247e-52
6.41998e-53
1.74415e-53
4.7172e-54
1.27012e-54
3.40467e-55
9.08621e-56
2.41423e-56
6.3866e-57
1.68216e-57
4.4114e-58
1.15189e-58
2.99485e-59
7.75316e-60
1.99863e-60
5.13028e-61
1.31134e-61
3.33782e-62
8.4604e-63
2.13554e-63
5.36813e-64
1.34383e-64
3.35024e-65
8.31819e-66
2.05689e-66
5.06556e-67
1.24247e-67
3.03528e-68
7.38529e-69
1.78979e-69
4.32025e-70
1.03871e-70
2.48753e-71
5.93384e-72
1.40995e-72
3.33718e-73
7.8681e-74
1.84791e-74
4.32336e-75
1.00762e-75
2.33943e-76
5.41095e-77
1.24678e-77
2.862e-78
6.54508e-79
1.49119e-79
3.38479e-80
7.65449e-81
1.72462e-81
3.87139e-82
8.65856e-83
1.92946e-83
4.2839e-84
9.47691e-85
2.08892e-85
4.58786e-86
1.00401e-86
2.18933e-87
4.75703e-88
1.02995e-88
2.22208e-89
4.77716e-90
1.02342e-90
2.18482e-91
4.64795e-92
9.85363e-93
2.08174e-93
4.38284e-94
9.19582e-95
1.92281e-95
4.00679e-96
8.32104e-97
1.7222e-97
3.5524e-98
7.30291e-99
1.49627e-99
3.05541e-100
6.21842e-101
1.26138e-101
2.55018e-102
5.13881e-103
1.0321e-103
2.06613e-104
4.12261e-105
8.19918e-106
1.62539e-106
3.21171e-107
6.32577e-108
1.24192e-108
2.4304e-109
4.74106e-110
9.21907e-111
1.78698e-111
3.45283e-112
6.65059e-113
1.27696e-113
2.44417e-114
4.66367e-115
8.87094e-116
1.68214e-116
3.17985e-117
5.99252e-118
1.12583e-118
2.10866e-119
3.93739e-120
7.32967e-121
1.36031e-121
2.51695e-122
4.643e-123
8.53908e-124
1.56573e-124
2.86235e-125
5.21711e-126
9.48073e-127
1.71776e-127
3.10311e-128
5.58919e-129
1.00374e-129
1.79729e-130
3.20879e-131
5.71212e-132
1.01388e-132
1.79439e-133
3.16657e-134
5.57196e-135
9.77632e-136
1.71039e-136
2.98382e-137
5.19051e-138
9.00348e-139
1.55732e-139
2.68606e-140
4.61984e-141
7.92346e-142
1.35514e-142
2.31119e-143
3.93075e-144
6.66662e-145
1.12753e-145
1.90173e-146
3.19867e-147
5.36529e-148
8.97477e-149
1.49714e-149
2.49067e-150
4.13223e-151
6.8371e-152
1.12819e-152
1.85659e-153
3.04706e-154
4.98741e-155
8.14151e-156
1.32548e-156
2.15218e-157
3.48522e-158
5.62894e-159
9.0672e-160
1.45671e-160
2.33413e-161
3.73025e-162
5.94581e-163
9.45253e-164
1.49883e-164
2.37042e-165
3.73913e-166
5.8829e-167
9.23188e-168
1.44501e-168
2.25597e-169
3.51303e-170
5.45658e-171
8.45378e-172
1.3064e-172
2.01371e-173
3.09613e-174
4.74835e-175
7.26393e-176
1.10843e-176
1.68716e-177
2.56163e-178
3.87964e-179
5.86118e-180
8.83283e-181
1.32781e-181
1.99114e-182
2.97847e-183
4.44443e-184
6.61564e-185
9.82344e-186
1.4551e-186
2.15013e-187
3.16941e-188
4.66057e-189
6.83671e-190
1.00047e-190
1.46055e-191
2.12708e-192
3.09035e-193
4.47911e-194
6.47648e-195
9.34223e-196
1.3444e-196
1.93009e-197
2.76437e-198
3.94994e-199
5.63067e-200
8.00772e-201
1.13616e-201
1.60824e-202
2.27116e-203
3.19988e-204
4.49789e-205
6.30777e-206
8.82546e-207
1.23195e-207
1.71574e-208
2.38401e-209
3.30497e-210
4.57123e-211
6.30819e-212
8.68533e-213
1.19311e-213
1.63525e-214
2.23618e-215
3.05103e-216
4.15343e-217
5.64142e-218
7.64528e-219
1.03377e-219
1.39471e-220
1.87747e-221
2.52171e-222
3.37949e-223
4.519e-224