# vtk DataFile Version 2.0
FlowField
ASCII
DATASET STRUCTURED_GRID
DIMENSIONS 400 1 200
POINTS 80000 float
0 0 0
0.08 0 0
0.16 0 0
0.24 0 0
0.32 0 0
0.4 0 0
0.48 0 0
0.56 0 0
0.64 0 0
0.72 0 0
0.8 0 0
0.88 0 0
0.96 0 0
1.04 0 0
1.12 0 0
1.2 0 0
1.28 0 0
1.36 0 0
1.44 0 0
1.52 0 0
1.6 0 0
1.68 0 0
1.76 0 0
1.84 0 0
1.92 0 0
2 0 0
2.08 0 0
2.16 0 0
2.24 0 0
2.32 0 0
2.4 0 0
2.48 0 0
2.56 0 0
2.64 0 0
2.72 0 0
2.8 0 0
2.88 0 0
2.96 0 0
3.04 0 0
3.12 0 0
3.2 0 0
3.28 0 0
3.36 0 0
3.44 0 0
3.52 0 0
3.6 0 0
3.68 0 0
3.76 0 0
3.84 0 0
3.92 0 0
4 0 0
4.08 0 0
4.16 0 0
4.24 0 0
4.32 0 0
4.4 0 0
4.48 0 0
4.56 0 0
4.64 0 0
4.72 0 0
4.8 0 0
4.88 0 0
4.96 0 0
5.04 0 0
5.12 0 0
5.2 0 0
5.28 0 0
5.36 0 0
5.44 0 0
5.52 0 0
5.6 0 0
5.68 0 0
5.76 0 0
5.84 0 0
5.92 0 0
6 0 0
6.08 0 0
6.16 0 0
6.24 0 0
6.32 0 0
6.4 0 0
6.48 0 0
6.56 0 0
6.64 0 0
6.72 0 0
6.8 0 0
6.88 0 0
6.96 0 0
7.04 0 0
7.12 0 0
7.2 0 0
7.28 0 0
7.36 0 0
7.44 0 0
7.52 0 0
7.6 0 0
7.68 0 0
7.76 0 0
7.84 0 0
7.92 0 0
8 0 0
8.08 0 0
8.16 0 0
8.24 0 0
8.32 0 0
8.4 0 0
8.48 0 0
8.56 0 0
8.64 0 0
8.72 0 0
8.8 0 0
8.88 0 0
8.96 0 0
9.04 0 0
9.12 0 0
9.2 0 0
9.28 0 0
9.36 0 0
9.44 0 0
9.52 0 0
9.6 0 0
9.68 0 0
9.76 0 0
9.84 0 0
9.92 0 0
10 0 0
10.08 0 0
10.16 0 0
10.24 0 0
10.32 0 0
10.4 0 0
10.48 0 0
10.56 0 0
10.64 0 0
10.72 0 0
10.8 0 0
10.88 0 0
10.96 0 0
11.04 0 0
11.12 0 0
11.2 0 0
11.28 0 0
11.36 0 0
11.44 0 0
11.52 0 0
11.6 0 0
11.68 0 0
11.76 0 0
11.84 0 0
11.92 0 0
12 0 0
12.08 0 0
12.16 0 0
12.24 0 0
12.32 0 0
12.4 0 0
12.48 0 0
12.56 0 0
12.64 0 0
12.72 0 0
12.8 0 0
12.88 0 0
12.96 0 0
13.04 0 0
13.12 0 0
13.2 0 0
13.28 0 0
13.36 0 0
13.44 0 0
13.52 0 0
13.6 0 0
13.68 0 0
13.76 0 0
13.84 0 0
13.92 0 0
14 0 0
14.08 0 0
14.16 0 0
14.24 0 0
14.32 0 0
14.4 0 0
14.48 0 0
14.56 0 0
14.64 0 0
14.72 0 0
14.8 0 0
14.88 0 0
14.96 0 0
15.04 0 0
15.12 0 0
15.2 0 0
15.28 0 0
15.36 0 0
15.44 0 0
15.52 0 0
15.6 0 0
15.68 0 0
15.76 0 0
15.84 0 0
15.92 0 0
16 0 0
16.08 0 0
16.16 0 0
16.24 0 0
16.32 0 0
16.4 0 0
16.48 0 0
16.56 0 0
16.64 0 0
16.72 0 0
16.8 0 0
16.88 0 0
16.96 0 0
17.04 0 0
17.12 0 0
17.2 0 0
17.28 0 0
17.36 0 0
17.44 0 0
17.52 0 0
17.6 0 0
17.68 0 0
17.76 0 0
17.84 0 0
17.92 0 0
18 0 0
18.08 0 0
18.16 0 0
18.24 0 0
18.32 0 0
18.4 0 0
18.48 0 0
18.56 0 0
18.64 0 0
18.72 0 0
18.8 0 0
18.88 0 0
18.96 0 0
19.04 0 0
19.12 0 0
19.2 0 0
19.28 0 0
19.36 0 0
19.44 0 0
19.52 0 0
19.6 0 0
19.68 0 0
19.76 0 0
19.84 0 0
19.92 0 0
20 0 0
20.08 0 0
20.16 0 0
20.24 0 0
20.32 0 0
20.4 0 0
20.48 0 0
20.56 0 0
20.64 0 0
20.72 0 0
20.8 0 0
20.88 0 0
20.96 0 0
21.04 0 0
21.12 0 0
21.2 0 0
21.28 0 0
21.36 0 0
21.44 0 0
21.52 0 0
21.6 0 0
21.68 0 0
21.76 0 0
21.84 0 0
21.92 0 0
22 0 0
22.08 0 0
22.16 0 0
22.24 0 0
22.32 0 0
22.4 0 0
22.48 0 0
22.56 0 0
22.64 0 0
22.72 0 0
22.8 0 0
22.88 0 0
22.96 0 0
23.04 0 0
23.12 0 0
23.2 0 0
23.28 0 0
23.36 0 0
23.44 0 0
23.52 0 0
23.6 0 0
23.68 0 0
23.76 0 0
23.84 0 0
23.92 0 0
24 0 0
24.08 0 0
24.16 0 0
24.24 0 0
24.32 0 0
24.4 0 0
24.48 0 0
24.56 0 0
24.64 0 0
24.72 0 0
24.8 0 0
24.88 0 0
24.96 0 0
25.04 0 0
25.12 0 0
25.2 0 0
25.28 0 0
25.36 0 0
25.44 0 0
25.52 0 0
25.6 0 0
25.68 0 0
25.76 0 0
25.84 0 0
25.92 0 0
26 0 0
26.08 0 0
26.16 0 0
26.24 0 0
26.32 0 0
26.4 0 0
26.48 0 0
26.56 0 0
26.64 0 0
26.72 0 0
26.8 0 0
26.88 0 0
26.96 0 0
27.04 0 0
27.12 0 0
27.2 0 0
27.28 0 0
27.36 0 0
27.44 0 0
27.52 0 0
27.6 0 0
27.68 0 0
27.76 0 0
27.84 0 0
27.92 0 0
28 0 0
28.08 0 0
28.16 0 0
28.24 0 0
28.32 0 0
28.4 0 0
28.48 0 0
28.56 0 0
28.64 0 0
28.72 0 0
28.8 0 0
28.88 0 0
28.96 0 0
29.04 0 0
29.12 0 0
29.2 0 0
29.28 0 0
29.36 0 0
29.44 0 0
29.52 0 0
29.6 0 0
29.68 0 0
29.76 0 0
29.84 0 0
29.92 0 0
30 0 0
30.08 0 0
30.16 0 0
30.24 0 0
30.32 0 0
30.4 0 0
30.48 0 0
30.56 0 0
30.64 0 0
30.72 0 0
30.8 0 0
30.88 0 0
30.96 0 0
31.04 0 0
31.12 0 0
31.2 0 0
31.28 0 0
31.36 0 0
31.44 0 0
31.52 0 0
31.6 0 0
31.68 0 0
31.76 0 0
31.84 0 0
31.92 0 0
0 0.005 0
0.08 0.005 0
0.16 0.005 0
0.24 0.005 0
0.32 0.005 0
0.4 0.005 0
0.48 0.005 0
0.56 0.005 0
0.64 0.005 0
0.72 0.005 0
0.8 0.005 0
0.88 0.005 0
0.96 0.005 0
1.04 0.005 0
1.12 0.005 0
1.2 0.005 0
1.28 0.005 0
1.36 0.005 0
1.44 0.005 0
1.52 0.005 0
1.6 0.005 0
1.68 0.005 0
1.76 0.005 0
1.84 0.005 0
1.92 0.005 0
2 0.005 0
2.08 0.005 0
2.16 0.005 0
2.24 0.005 0
2.32 0.005 0
2.4 0.005 0
2.48 0.005 0
2.56 0.005 0
2.64 0.005 0
2.72 0.005 0
2.8 0.005 0
2.88 0.005 0
2.96 0.005 0
3.04 0.005 0
3.12 0.005 0
3.2 0.005 0
3.28 0.005 0
3.36 0.005 0
3.44 0.005 0
3.52 0.005 0
3.6 0.005 0
3.68 0.005 0
3.76 0.005 0
3.84 0.005 0
3.92 0.005 0
4 0.005 0
4.08 0.005 0
4.16 0.005 0
4.24 0.005 0
4.32 0.005 0
4.4 0.005 0
4.48 0.005 0
4.56 0.005 0
4.64 0.005 0
4.72 0.005 0
4.8 0.005 0
4.88 0.005 0
4.96 0.005 0
5.04 0.005 0
5.12 0.005 0
5.2 0.005 0
5.28 0.005 0
5.36 0.005 0
5.44 0.005 0
5.52 0.005 0
5.6 0.005 0
5.68 0.005 0
5.76 0.005 0
5.84 0.005 0
5.92 0.005 0
6 0.005 0
6.08 0.005 0
6.16 0.005 0
6.24 0.005 0
6.32 0.005 0
6.4 0.005 0
6.48 0.005 0
6.56 0.005 0
6.64 0.005 0
6.72 0.005 0
6.8 0.005 0
6.88 0.005 0
6.96 0.005 0
7.04 0.005 0
7.12 0.005 0
7.2 0.005 0
7.28 0.005 0
7.36 0.005 0
7.44 0.005 0
7.52 0.005 0
7.6 0.005 0
7.68 0.005 0
7.76 0.005 0
7.84 0.005 0
7.92 0.005 0
8 0.005 0
8.08 0.005 0
8.16 0.005 0
8.24 0.005 0
8.32 0.005 0
8.4 0.005 0
8.48 0.005 0
8.56 0.005 0
8.64 0.005 0
8.72 0.005 0
8.8 0.005 0
8.88 0.005 0
8.96 0.005 0
9.04 0.005 0
9.12 0.005 0
9.2 0.005 0
9.28 0.005 0
9.36 0.005 0
9.44 0.005 0
9.52 0.005 0
9.6 0.005 0
9.68 0.005 0
9.76 0.005 0
9.84 0.005 0
9.92 0.005 0
10 0.005 0
10.08 0.005 0
10.16 0.005 0
10.24 0.005 0
10.32 0.005 0
10.4 0.005 0
10.48 0.005 0
10.56 0.005 0
10.64 0.005 0
10.72 0.005 0
10.8 0.005 0
10.88 0.005 0
10.96 0.005 0
11.04 0.005 0
11.12 0.005 0
11.2 0.005 0
11.28 0.005 0
11.36 0.005 0
11.44 0.005 0
11.52 0.005 0
11.6 0.005 0
11.68 0.005 0
11.76 0.005 0
11.84 0.005 0
11.92 0.005 0
12 0.005 0
12.08 0.005 0
12.16 0.005 0
12.24 0.005 0
12.32 0.005 0
12.4 0.005 0
12.48 0.005 0
12.56 0.005 0
12.64 0.005 0
12.72 0.005 0
12.8 0.005 0
12.88 0.005 0
12.96 0.005 0
13.04 0.005 0
13.12 0.005 0
13.2 0.005 0
13.28 0.005 0
13.36 0.005 0
13.44 0.005 0
13.52 0.005 0
13.6 0.005 0
13.68 0.005 0
13.76 0.005 0
13.84 0.005 0
13.92 0.005 0
14 0.005 0
14.08 0.005 0
14.16 0.005 0
14.24 0.005 0
14.32 0.005 0
14.4 0.005 0
14.48 0.005 0
14.56 0.005 0
14.64 0.005 0
14.72 0.005 0
14.8 0.005 0
14.88 0.005 0
14.96 0.005 0
15.04 0.005 0
15.12 0.005 0
15.2 0.005 0
15.28 0.005 0
15.36 0.005 0
15.44 0.005 0
15.52 0.005 0
15.6 0.005 0
15.68 0.005 0
15.76 0.005 0
15.84 0.005 0
15.92 0.005 0
16 0.005 0
16.08 0.005 0
16.16 0.005 0
16.24 0.005 0
16.32 0.005 0
16.4 0.005 0
16.48 0.005 0
16.56 0.005 0
16.64 0.005 0
16.72 0.005 0
16.8 0.005 0
16.88 0.005 0
16.96 0.005 0
17.04 0.005 0
17.12 0.005 0
17.2 0.005 0
17.28 0.005 0
17.36 0.005 0
17.44 0.005 0
17.52 0.005 0
17.6 0.005 0
17.68 0.005 0
17.76 0.005 0
17.84 0.005 0
17.92 0.005 0
18 0.005 0
18.08 0.005 0
18.16 0.005 0
18.24 0.005 0
18.32 0.005 0
18.4 0.005 0
18.48 0.005 0
18.56 0.005 0
18.64 0.005 0
18.72 0.005 0
18.8 0.005 0
18.88 0.005 0
18.96 0.005 0
19.04 0.005 0
19.12 0.005 0
19.2 0.005 0
19.28 0.005 0
19.36 0.005 0
19.44 0.005 0
19.52 0.005 0
19.6 0.005 0
19.68 0.005 0
19.76 0.005 0
19.84 0.005 0
19.92 0.005 0
20 0.005 0
20.08 0.005 0
20.16 0.005 0
20.24 0.005 0
20.32 0.005 0
20.4 0.005 0
20.48 0.005 0
20.56 0.005 0
20.64 0.005 0
20.72 0.005 0
20.8 0.005 0
20.88 0.005 0
20.96 0.005 0
21.04 0.005 0
21.12 0.005 0
21.2 0.005 0
21.28 0.005 0
21.36 0.005 0
21.44 0.005 0
21.52 0.005 0
21.6 0.005 0
21.68 0.005 0
21.76 0.005 0
21.84 0.005 0
21.92 0.005 0
22 0.005 0
22.08 0.005 0
22.16 0.005 0
22.24 0.005 0
22.32 0.005 0
22.4 0.005 0
22.48 0.005 0
22.56 0.005 0
22.64 0.005 0
22.72 0.005 0
22.8 0.005 0
22.88 0.005 0
22.96 0.005 0
23.04 0.005 0
23.12 0.005 0
23.2 0.005 0
23.28 0.005 0
23.36 0.005 0
23.44 0.005 0
23.52 0.005 0
23.6 0.005 0
23.68 0.005 0
23.76 0.005 0
23.84 0.005 0
23.92 0.005 0
24 0.005 0
24.08 0.005 0
24.16 0.005 0
24.24 0.005 0
24.32 0.005 0
24.4 0.005 0
24.48 0.005 0
24.56 0.005 0
24.64 0.005 0
24.72 0.005 0
24.8 0.005 0
24.88 0.005 0
24.96 0.005 0
25.04 0.005 0
25.12 0.005 0
25.2 0.005 0
25.28 0.005 0
25.36 0.005 0
25.44 0.005 0
25.52 0.005 0
25.6 0.005 0
25.68 0.005 0
25.76 0.005 0
25.84 0.005 0
25.92 0.005 0
26 0.005 0
26.08 0.005 0
26.16 0.005 0
26.24 0.005 0
26.32 0.005 0
26.4 0.005 0
26.48 0.005 0
26.56 0.005 0
26.64 0.005 0
26.72 0.005 0
26.8 0.005 0
26.88 0.005 0
26.96 0.005 0
27.04 0.005 0
27.12 0.005 0
27.2 0.005 0
27.28 0.005 0
27.36 0.005 0
27.44 0.005 0
27.52 0.005 0
27.6 0.005 0
27.68 0.005 0
27.76 0.005 0
27.84 0.005 0
27.92 0.005 0
28 0.005 0
28.08 0.005 0
28.16 0.005 0
28.24 0.005 0
28.32 0.005 0
28.4 0.005 0
28.48 0.005 0
28.56 0.005 0
28.64 0.005 0
28.72 0.005 0
28.8 0.005 0
28.88 0.005 0
28.96 0.005 0
29.04 0.005 0
29.12 0.005 0
29.2 0.005 0
29.28 0.005 0
29.36 0.005 0
29.44 0.005 0
29.52 0.005 0
29.6 0.005 0
29.68 0.005 0
29.76 0.005 0
29.84 0.005 0
29.92 0.005 0
30 0.005 0
30.08 0.005 0
30.16 0.005 0
30.24 0.005 0
30.32 0.005 0
30.4 0.005 0
30.48 0.005 0
30.56 0.005 0
30.64 0.005 0
30.72 0.005 0
30.8 0.005 0
30.88 0.005 0
30.96 0.005 0
31.04 0.005 0
31.12 0.005 0
31.2 0.005 0
31.28 0.005 0
31.36 0.005 0
31.44 0.005 0
31.52 0.005 0
31.6 0.005 0
31.68 0.005 0
31.76 0.005 0
31.84 0.005 0
31.92 0.005 0
0 0.01 0
0.08 0.01 0
0.16 0.01 0
0.24 0.01 0
0.32 0.01 0
0.4 0.01 0
0.48 0.01 0
0.56 0.01 0
0.64 0.01 0
0.72 0.01 0
0.8 0.01 0
0.88 0.01 0
0.96 0.01 0
1.04 0.01 0
1.12 0.01 0
1.2 0.01 0
1.28 0.01 0
1.36 0.01 0
1.44 0.01 0
1.52 0.01 0
1.6 0.01 0
1.68 0.01 0
1.76 0.01 0
1.84 0.01 0
1.92 0.01 0
2 0.01 0
2.08 0.01 0
2.16 0.01 0
2.24 0.01 0
2.32 0.01 0
2.4 0.01 0
2.48 0.01 0
2.56 0.01 0
2.64 0.01 0
2.72 0.01 0
2.8 0.01 0
2.88 0.01 0
2.96 0.01 0
3.04 0.01 0
3.12 0.01 0
3.2 0.01 0
3.28 0.01 0
3.36 0.01 0
3.44 0.01 0
3.52 0.01 0
3.6 0.01 0
3.68 0.01 0
3.76 0.01 0
3.84 0.01 0
3.92 0.01 0
4 0.01 0
4.08 0.01 0
4.16 0.01 0
4.24 0.01 0
4.32 0.01 0
4.4 0.01 0
4.48 0.01 0
4.56 0.01 0
4.64 0.01 0
4.72 0.01 0
4.8 0.01 0
4.88 0.01 0
4.96 0.01 0
5.04 0.01 0
5.12 0.01 0
[...]
POINT_DATA 80000

SCALARS v float 1
LOOKUP_TABLE default
0
0
0
0
0
0
0
0
0
0
0
0
0
0
0
0
0
0
0
0
0
0
0
0
0
0
0
0
0
0
0
0
0
0
0
0
0
0
0
0
0
0
0
0
0
0
0
0
0
0
0
0
0
0
0
0
0
0
0
0
0
0
0
0
0
0
0
0
0
0
0
0
0
0
0
0
0
0
0
0
0
0
0
0
0
0
0
0
0
0
0
0
0
0
0
0
0
0
0
0
0
0
0
0
0
0
0
0
0
0
0
0
0
0
0
0
0
0
0
0
0
0
0
0
0
0
0
0
0
0
0
0
0
0
0
0
0
0
0
0
0
0
0
0
0
0
0
0
0
0
0
0
0
0
0
0
0
0
0
0
0
0
0
0
0
0
0
0
0
0
0
0
0
0
0
0
0
0
0
0
0
0
0
0
0
0
0
0
0
0
0
0
0
0
0
0
0
0
0
0
0
0
0
0
0
0
0
0
0
0
0
0
0
0
0
0
0
0
0
0
0
0
0
0
0
0
0
0
0
0
0
0
0
0
0
0
0
0
0
0
0
0
0
0
0
0
0
0
0
0
0
0
0
0
0
0
0
0
0
0
0
0
0
0
0
0
0
0
0
0
0
0
0
0
0
0
0
0
0
0
0
0
0
0
0
0
0
0
0
0
0
0
0
0
0
0
0
0
0
0
0
0
0
0
0
0
0
0
0
0
0
0
0
0
0
0
0
0
0
0
0
0
0
0
0
0
0
0
0
0
0
0
0
0
0
0
0
0
0
0
0
0
0
0
0
0
0
0
0
0
0
0
0
0
0
0
0
0
0
0
0
0
0
0
0
0
0
0
0
0
0
0
0
0
0
0
0
0
0
0
0
0
0
0
0
0
0
0
0
0
0
0
0
0
0
0
0
0
0
0
-0.0542713
0.0542713
0.00396233
0.000998571
0.000492503
0.00030294
0.000207564
0.000151936
0.000116495
9.2539e-05
7.5626e-05
6.32656e-05
5.39653e-05
4.67868e-05
4.11189e-05
3.65519e-05
3.28046e-05
2.96796e-05
2.7036e-05
2.47719e-05
2.28127e-05
2.11016e-05
1.95944e-05
1.8256e-05
1.70599e-05
1.59865e-05
1.50202e-05
1.41462e-05
1.335e-05
1.26196e-05
1.19472e-05
1.13292e-05
1.07623e-05
1.02403e-05
9.75385e-06
9.29423e-06
8.85754e-06
8.44539e-06
8.06109e-06
7.70398e-06
7.36643e-06
7.03621e-06
6.7024e-06
6.3607e-06
6.01428e-06
5.66973e-06
5.33119e-06
4.99715e-06
4.66206e-06
4.32173e-06
3.97883e-06
3.64447e-06
3.33469e-06
3.06363e-06
2.83699e-06
2.64937e-06
2.48668e-06
2.33229e-06
2.17378e-06
2.00735e-06
1.8382e-06
1.67726e-06
1.53607e-06
1.42205e-06
1.33595e-06
1.27195e-06
1.21995e-06
1.16888e-06
1.10973e-06
1.03746e-06
9.51522e-07
8.55165e-07
7.53982e-07
6.54292e-07
5.61743e-07
4.80419e-07
4.12499e-07
3.58372e-07
3.17048e-07
2.86685e-07
2.65092e-07
2.50111e-07
2.39859e-07
2.32839e-07
2.27948e-07
2.24422e-07
2.21765e-07
2.19667e-07
2.17944e-07
2.1648e-07
2.15205e-07
2.14071e-07
2.13042e-07
2.12088e-07
2.11188e-07
2.10322e-07
2.09479e-07
2.08648e-07
2.07823e-07
2.07e-07
2.06176e-07
2.05352e-07
2.04527e-07
2.037e-07
2.02873e-07
2.02045e-07
2.01218e-07
2.0039e-07
1.99563e-07
1.98736e-07
1.97909e-07
1.97082e-07
1.96256e-07
1.95429e-07
1.94603e-07
1.93777e-07
1.92951e-07
1.92125e-07
1.91298e-07
1.90472e-07
1.89646e-07
1.8882e-07
1.87995e-07
1.87169e-07
1.86344e-07
1.85518e-07
1.84693e-07
1.83868e-07
1.83044e-07
1.8222e-07
1.81396e-07
1.80572e-07
1.79749e-07
1.78926e-07
1.78103e-07
1.77281e-07
1.76459e-07
1.75638e-07
1.74817e-07
1.73996e-07
1.73176e-07
1.72357e-07
1.71537e-07
1.70718e-07
1.699e-07
1.69082e-07
1.68265e-07
1.67448e-07
1.66631e-07
1.65815e-07
1.65e-07
1.64185e-07
1.6337e-07
1.62556e-07
1.61742e-07
1.60929e-07
1.60116e-07
1.59304e-07
1.58492e-07
1.57681e-07
1.5687e-07
1.5606e-07
1.5525e-07
1.54441e-07
1.53632e-07
1.52823e-07
1.52015e-07
1.51208e-07
1.50401e-07
1.49594e-07
1.48788e-07
1.47982e-07
1.47177e-07
1.46372e-07
1.45568e-07
1.44764e-07
1.4396e-07
1.43157e-07
1.42354e-07
1.41551e-07
1.40749e-07
1.39948e-07
1.39146e-07
1.38345e-07
1.37545e-07
1.36745e-07
1.35945e-07
1.35145e-07
1.34346e-07
1.33547e-07
1.32748e-07
1.3195e-07
1.31152e-07
1.30354e-07
1.29556e-07
1.28759e-07
1.27962e-07
1.27165e-07
1.26368e-07
1.25572e-07
1.24776e-07
1.2398e-07
1.23184e-07
1.22388e-07
1.21593e-07
1.20798e-07
1.20002e-07
1.19208e-07
1.18413e-07
1.17618e-07
1.16823e-07
1.16029e-07
1.15234e-07
1.1444e-07
1.13646e-07
1.12852e-07
1.12058e-07
1.11263e-07
1.10469e-07
1.09676e-07
1.08882e-07
1.08088e-07
1.07294e-07
1.065e-07
1.05706e-07
1.04912e-07
1.04118e-07
1.03324e-07
1.0253e-07
1.01736e-07
1.00942e-07
1.00148e-07
9.93543e-08
9.85601e-08
9.77658e-08
9.69715e-08
9.61771e-08
9.53826e-08
9.4588e-08
9.37933e-08
9.29985e-08
9.22036e-08
9.14086e-08
9.06135e-08
8.98182e-08
8.90228e-08
8.82273e-08
8.74316e-08
8.66358e-08
8.58399e-08
8.50437e-08
8.42475e-08
8.3451e-08
8.26544e-08
8.18577e-08
8.10607e-08
8.02636e-08
7.94663e-08
7.86688e-08
7.78712e-08
7.70733e-08
7.62752e-08
7.5477e-08
7.46785e-08
7.38799e-08
7.3081e-08
7.22819e-08
7.14826e-08
7.06831e-08
6.98834e-08
6.90834e-08
6.82832e-08
6.74828e-08
6.66822e-08
6.58813e-08
6.50802e-08
6.42789e-08
6.34773e-08
6.26755e-08
6.18734e-08
6.10711e-08
6.02686e-08
5.94657e-08
5.86627e-08
5.78594e-08
5.70558e-08
5.6252e-08
5.54479e-08
5.46436e-08
5.38389e-08
5.30341e-08
5.22289e-08
5.14235e-08
5.06179e-08
4.98119e-08
4.90057e-08
4.81992e-08
4.73924e-08
4.65854e-08
4.57781e-08
4.49705e-08
4.41626e-08
4.33544e-08
4.2546e-08
4.17372e-08
4.09282e-08
4.01189e-08
3.93093e-08
3.84994e-08
3.76892e-08
3.68787e-08
3.6068e-08
3.52569e-08
3.44455e-08
3.36339e-08
3.28219e-08
3.20096e-08
3.11971e-08
3.03842e-08
2.9571e-08
2.87575e-08
2.79437e-08
2.71296e-08
2.63152e-08
2.55005e-08
2.46854e-08
2.38701e-08
2.30544e-08
2.22384e-08
2.14221e-08
2.06055e-08
1.97884e-08
1.89714e-08
1.81534e-08
1.73362e-08
1.65168e-08
1.56998e-08
1.48786e-08
1.40627e-08
1.32385e-08
1.24249e-08
1.15962e-08
1.07866e-08
9.95155e-09
9.1481e-09
8.30449e-09
7.50926e-09
6.65501e-09
5.87001e-09
5.00324e-09
4.23021e-09
3.34929e-09
2.58974e-09
1.69313e-09
9.48841e-10
3.42522e-11
-6.9171e-10
-1.62847e-09
-2.33056e-09
-3.29661e-09
-3.96585e-09
-4.97226e-09
-5.59522e-09
-6.65813e-09
-7.21569e-09
-8.35722e-09
-8.82434e-09
-1.00721e-08
-1.04187e-08
-1.18053e-08
-1.19962e-08
-1.35588e-08
-1.35549e-08
-1.53342e-08
-1.50936e-08
-1.71324e-08
-1.66116e-08
-1.89533e-08
-1.81108e-08
-2.07928e-08
-1.96005e-08
-2.26391e-08
-2.11044e-08
-2.44636e-08
-2.26792e-08
-2.62025e-08
-2.44546e-08
-2.7714e-08
-2.67268e-08
-2.86775e-08
-3.01744e-08
-2.83067e-08
-3.6402e-08
-2.4264e-08
-4.93006e-08
-6.49227e-09
-7.77452e-08
1.24547e-07
-3.52377e-08
-3.52377e-08
-0.0952161
0.0952161
0.0129759
0.00385491
0.00193461
0.0011965
0.000822046
0.000602621
0.000462375
0.00036735
0.00030014
0.000250955
0.000213913
0.000185305
0.000162711
0.000144506
0.000129572
0.000117121
0.000106594
9.75826e-05
8.97881e-05
8.29837e-05
7.69919e-05
7.16738e-05
6.69238e-05
6.26629e-05
5.88273e-05
5.53574e-05
5.21962e-05
4.92972e-05
4.66304e-05
4.418e-05
4.19309e-05
3.98567e-05
3.79213e-05
3.60926e-05
3.4357e-05
3.27201e-05
3.1192e-05
2.97661e-05
2.8411e-05
2.70803e-05
2.57351e-05
2.43617e-05
2.29733e-05
2.15937e-05
2.02365e-05
1.8895e-05
1.75504e-05
1.61916e-05
1.48338e-05
1.35219e-05
1.2316e-05
1.12649e-05
1.03842e-05
9.64846e-06
9.0026e-06
8.38534e-06
7.7537e-06
7.0975e-06
6.43894e-06
5.81916e-06
5.27907e-06
4.84271e-06
4.50893e-06
4.25315e-06
4.03662e-06
3.81878e-06
3.56806e-06
3.26837e-06
2.92026e-06
2.53775e-06
2.14273e-06
1.7589e-06
1.40673e-06
1.10046e-06
8.47082e-07
6.4696e-07
4.95545e-07
3.85363e-07
3.07868e-07
2.54832e-07
2.19187e-07
1.95371e-07
1.79318e-07
1.6824e-07
1.60334e-07
1.54477e-07
1.49996e-07
1.46477e-07
1.4366e-07
1.41366e-07
1.39458e-07
1.37831e-07
1.364e-07
1.35098e-07
1.33877e-07
1.32699e-07
1.31544e-07
1.30396e-07
1.29248e-07
1.28097e-07
1.26942e-07
1.25785e-07
1.24625e-07
1.23466e-07
1.22306e-07
1.21147e-07
1.19989e-07
1.18833e-07
1.17677e-07
1.16523e-07
1.15369e-07
1.14216e-07
1.13063e-07
1.1191e-07
1.10757e-07
1.09604e-07
1.08451e-07
1.07298e-07
1.06145e-07
1.04992e-07
1.03839e-07
1.02686e-07
1.01533e-07
1.0038e-07
9.92281e-08
9.80762e-08
9.69246e-08
9.57734e-08
9.46227e-08
9.34724e-08
9.23227e-08
9.11735e-08
9.00248e-08
8.88766e-08
8.7729e-08
8.6582e-08
8.54356e-08
8.42897e-08
8.31445e-08
8.19998e-08
8.08557e-08
7.97122e-08
7.85693e-08
7.7427e-08
7.62853e-08
7.51442e-08
7.40036e-08
7.28637e-08
7.17243e-08
7.05855e-08
6.94473e-08
6.83097e-08
6.71726e-08
6.60361e-08
6.49002e-08
6.37649e-08
6.26301e-08
6.14959e-08
6.03622e-08
5.92291e-08
5.80966e-08
5.69645e-08
5.5833e-08
5.47021e-08
5.35716e-08
5.24417e-08
5.13123e-08
5.01834e-08
4.9055e-08
4.7927e-08
4.67996e-08
4.56726e-08
4.45461e-08
4.342e-08
4.22944e-08
4.11692e-08
4.00444e-08
3.89201e-08
3.77961e-08
3.66726e-08
3.55494e-08
3.44266e-08
3.33041e-08
3.2182e-08
3.10603e-08
2.99389e-08
2.88177e-08
2.76969e-08
2.65764e-08
2.54562e-08
2.43362e-08
2.32165e-08
2.20971e-08
2.09779e-08
1.98589e-08
1.87401e-08
1.76215e-08
1.65031e-08
1.53849e-08
1.42668e-08
1.31489e-08
1.20312e-08
1.09136e-08
9.79605e-09
8.67865e-09
7.56133e-09
6.44411e-09
5.32697e-09
4.20988e-09
3.09285e-09
1.97585e-09
8.589e-10
-2.58054e-10
-1.37498e-09
-2.49192e-09
-3.60886e-09
-4.72585e-09
-5.84286e-09
-6.9599e-09
-8.07699e-09
-9.19416e-09
-1.03114e-08
-1.14287e-08
-1.25461e-08
-1.36636e-08
-1.47812e-08
-1.58989e-08
-1.70168e-08
-1.81348e-08
-1.92529e-08
-2.03712e-08
-2.14896e-08
-2.26083e-08
-2.37271e-08
-2.4846e-08
-2.59652e-08
-2.70845e-08
-2.82041e-08
-2.93239e-08
-3.04439e-08
-3.15641e-08
-3.26845e-08
-3.38053e-08
-3.49262e-08
-3.60474e-08
-3.71688e-08
-3.82905e-08
-3.94125e-08
-4.05348e-08
-4.16573e-08
-4.27801e-08
-4.39032e-08
-4.50266e-08
-4.61503e-08
-4.72743e-08
-4.83986e-08
-4.95233e-08
-5.06482e-08
-5.17735e-08
-5.2899e-08
-5.4025e-08
-5.51512e-08
-5.62778e-08
-5.74047e-08
-5.8532e-08
-5.96597e-08
-6.07877e-08
-6.1916e-08
-6.30447e-08
-6.41738e-08
-6.53032e-08
-6.64331e-08
-6.75632e-08
-6.86938e-08
-6.98248e-08
-7.09561e-08
-7.20878e-08
-7.322e-08
-7.43525e-08
-7.54854e-08
-7.66187e-08
-7.77524e-08
-7.88866e-08
-8.00211e-08
-8.1156e-08
-8.22914e-08
-8.34272e-08
-8.45634e-08
-8.57e-08
-8.68371e-08
-8.79746e-08
-8.91125e-08
-9.02508e-08
-9.13896e-08
-9.25288e-08
-9.36685e-08
-9.48086e-08
-9.59491e-08
-9.70901e-08
-9.82316e-08
-9.93735e-08
-1.00516e-07
-1.01659e-07
-1.02802e-07
-1.03946e-07
-1.0509e-07
-1.06235e-07
-1.0738e-07
-1.08525e-07
-1.09672e-07
-1.10818e-07
-1.11965e-07
-1.13113e-07
-1.14261e-07
-1.15409e-07
-1.16558e-07
-1.17708e-07
-1.18858e-07
-1.20008e-07
-1.2116e-07
-1.22311e-07
-1.23463e-07
-1.24616e-07
-1.25769e-07
-1.26922e-07
-1.28076e-07
-1.29231e-07
-1.30386e-07
-1.31542e-07
-1.32699e-07
-1.33854e-07
-1.35013e-07
-1.36169e-07
-1.37331e-07
-1.38484e-07
-1.39652e-07
-1.408e-07
-1.41978e-07
-1.43116e-07
-1.44309e-07
-1.4543e-07
-1.46646e-07
-1.47743e-07
-1.48989e-07
-1.50054e-07
-1.51339e-07
-1.52364e-07
-1.53694e-07
-1.54673e-07
-1.56055e-07
-1.56982e-07
-1.58421e-07
-1.5929e-07
-1.60794e-07
-1.61593e-07
-1.63179e-07
-1.63888e-07
-1.65581e-07
-1.66167e-07
-1.68009e-07
-1.6842e-07
-1.70471e-07
-1.70638e-07
-1.7298e-07
-1.72808e-07
-1.75545e-07
-1.74922e-07
-1.78176e-07
-1.7697e-07
-1.8088e-07
-1.78944e-07
-1.83663e-07
-1.8084e-07
-1.86529e-07
-1.82656e-07
-1.89477e-07
-1.84397e-07
-1.92492e-07
-1.86099e-07
-1.95532e-07
-1.87848e-07
-1.98492e-07
-1.89855e-07
-2.01138e-07
-1.92601e-07
-2.02954e-07
-1.97182e-07
-2.02769e-07
-2.06115e-07
-1.97712e-07
-2.25328e-07
-1.79239e-07
-2.69065e-07
-1.10464e-07
-3.68141e-07
3.67991e-07
-2.09776e-07
-2.09776e-07
-0.125293
0.125293
0.0249362
0.00835835
0.00427834
0.00266187
0.00183409
0.00134671
0.00103425
0.000822068
0.000671754
0.000561619
0.000478602
0.000414455
0.00036378
0.000322946
0.000289451
0.000261535
0.000237937
0.000217745
0.000200286
0.000185049
0.000171635
0.000159734
0.000149108
0.00013958
0.000131002
0.000123242
0.000116172
0.00010969
0.000103731
9.82559e-05
9.32279e-05
8.85863e-05
8.4252e-05
8.0157e-05
7.62733e-05
7.26123e-05
6.91903e-05
6.59881e-05
6.29339e-05
5.99283e-05
5.68909e-05
5.37963e-05
5.06739e-05
4.75727e-05
4.45192e-05
4.14989e-05
3.8475e-05
3.54312e-05
3.2408e-05
2.95059e-05
2.68518e-05
2.45435e-05
2.2605e-05
2.09747e-05
1.95318e-05
1.81477e-05
1.67359e-05
1.52808e-05
1.38331e-05
1.24801e-05
1.13051e-05
1.03535e-05
9.61684e-06
9.03901e-06
8.53638e-06
8.02423e-06
7.43894e-06
6.75051e-06
5.96402e-06
5.11209e-06
4.24261e-06
3.40593e-06
2.64451e-06
1.98696e-06
1.44628e-06
1.02159e-06
7.01879e-07
4.70328e-07
3.08215e-07
1.97786e-07
1.23944e-07
7.49019e-08
4.20993e-08
1.96989e-08
3.93202e-09
-7.53238e-09
-1.61029e-08
-2.26378e-08
-2.76862e-08
-3.16293e-08
-3.47541e-08
-3.7287e-08
-3.94086e-08
-4.12592e-08
-4.29433e-08
-4.45345e-08
-4.6081e-08
-4.76118e-08
-4.91421e-08
-5.06784e-08
-5.22217e-08
-5.37704e-08
-5.53223e-08
-5.68749e-08
-5.84265e-08
-5.99759e-08
-6.15226e-08
-6.30665e-08
-6.46081e-08
-6.61476e-08
-6.76856e-08
-6.92226e-08
-7.07591e-08
-7.22953e-08
-7.38316e-08
-7.5368e-08
-7.69048e-08
-7.84417e-08
-7.9979e-08
-8.15164e-08
-8.30539e-08
-8.45914e-08
-8.61288e-08
-8.7666e-08
-8.92028e-08
-9.07393e-08
-9.22753e-08
-9.38107e-08
-9.53455e-08
-9.68797e-08
-9.84132e-08
-9.99459e-08
-1.01478e-07
-1.03009e-07
-1.0454e-07
-1.0607e-07
-1.07598e-07
-1.09127e-07
-1.10654e-07
-1.12181e-07
-1.13707e-07
-1.15232e-07
-1.16757e-07
-1.1828e-07
-1.19803e-07
-1.21326e-07
-1.22847e-07
-1.24368e-07
-1.25889e-07
-1.27408e-07
-1.28927e-07
-1.30446e-07
-1.31963e-07
-1.33481e-07
-1.34997e-07
-1.36513e-07
-1.38028e-07
-1.39543e-07
-1.41057e-07
-1.4257e-07
-1.44083e-07
-1.45595e-07
-1.47107e-07
-1.48618e-07
-1.50129e-07
-1.51639e-07
-1.53149e-07
-1.54658e-07
-1.56167e-07
-1.57675e-07
-1.59183e-07
-1.6069e-07
-1.62197e-07
-1.63703e-07
-1.65209e-07
-1.66715e-07
-1.6822e-07
-1.69725e-07
-1.71229e-07
-1.72733e-07
-1.74237e-07
-1.7574e-07
-1.77243e-07
-1.78746e-07
-1.80248e-07
-1.81751e-07
-1.83253e-07
-1.84754e-07
-1.86256e-07
-1.87757e-07
-1.89258e-07
-1.90759e-07
-1.9226e-07
-1.9376e-07
-1.9526e-07
-1.96761e-07
-1.98261e-07
-1.99761e-07
-2.01261e-07
-2.02761e-07
-2.0426e-07
-2.0576e-07
-2.0726e-07
-2.08759e-07
-2.10259e-07
-2.11759e-07
-2.13258e-07
-2.14758e-07
-2.16258e-07
-2.17758e-07
-2.19258e-07
-2.20758e-07
-2.22258e-07
-2.23758e-07
-2.25258e-07
-2.26759e-07
-2.28259e-07
-2.2976e-07
-2.31261e-07
-2.32762e-07
-2.34263e-07
-2.35765e-07
-2.37266e-07
-2.38768e-07
-2.4027e-07
-2.41773e-07
-2.43275e-07
-2.44778e-07
-2.46281e-07
-2.47785e-07
-2.49289e-07
-2.50793e-07
-2.52297e-07
-2.53802e-07
-2.55307e-07
-2.56812e-07
-2.58318e-07
-2.59824e-07
-2.61331e-07
-2.62838e-07
-2.64345e-07
-2.65853e-07
-2.67361e-07
-2.68869e-07
-2.70378e-07
-2.71887e-07
-2.73397e-07
-2.74907e-07
-2.76418e-07
-2.77929e-07
-2.7944e-07
-2.80952e-07
-2.82465e-07
-2.83978e-07
-2.85491e-07
-2.87005e-07
-2.88519e-07
-2.90034e-07
-2.9155e-07
-2.93066e-07
-2.94582e-07
-2.96099e-07
-2.97616e-07
-2.99134e-07
-3.00653e-07
-3.02172e-07
-3.03691e-07
-3.05212e-07
-3.06732e-07
-3.08253e-07
-3.09775e-07
-3.11298e-07
-3.12821e-07
-3.14344e-07
-3.15868e-07
-3.17393e-07
-3.18918e-07
-3.20444e-07
-3.21971e-07
-3.23498e-07
-3.25025e-07
-3.26554e-07
-3.28082e-07
-3.29612e-07
-3.31142e-07
-3.32673e-07
-3.34204e-07
-3.35736e-07
-3.37269e-07
-3.38802e-07
-3.40336e-07
-3.41871e-07
-3.43406e-07
-3.44942e-07
-3.46479e-07
-3.48016e-07
-3.49554e-07
-3.51092e-07
-3.52632e-07
-3.54172e-07
-3.55712e-07
-3.57254e-07
-3.58796e-07
-3.60339e-07
-3.61882e-07
-3.63426e-07
-3.64971e-07
-3.66517e-07
-3.68063e-07
-3.6961e-07
-3.71158e-07
-3.72706e-07
-3.74256e-07
-3.75806e-07
-3.77356e-07
-3.78908e-07
-3.8046e-07
-3.82013e-07
-3.83567e-07
-3.85121e-07
-3.86677e-07
-3.88233e-07
-3.8979e-07
-3.91348e-07
-3.92906e-07
-3.94465e-07
-3.96025e-07
-3.97587e-07
-3.99148e-07
-4.00712e-07
-4.02273e-07
-4.03841e-07
-4.05401e-07
-4.06975e-07
-4.0853e-07
-4.10115e-07
-4.11658e-07
-4.13264e-07
-4.14785e-07
-4.16423e-07
-4.17908e-07
-4.19593e-07
-4.21026e-07
-4.22776e-07
-4.24139e-07
-4.25971e-07
-4.27249e-07
-4.29177e-07
-4.30355e-07
-4.32393e-07
-4.33459e-07
-4.3562e-07
-4.3656e-07
-4.3886e-07
-4.39651e-07
-4.42124e-07
-4.42722e-07
-4.45423e-07
-4.45756e-07
-4.48774e-07
-4.48736e-07
-4.522e-07
-4.51638e-07
-4.55723e-07
-4.54438e-07
-4.59366e-07
-4.57115e-07
-4.63147e-07
-4.5965e-07
-4.67085e-07
-4.62025e-07
-4.7119e-07
-4.64232e-07
-4.7547e-07
-4.66264e-07
-4.79927e-07
-4.68135e-07
-4.84529e-07
-4.69916e-07
-4.89185e-07
-4.71794e-07
-4.93676e-07
-4.74213e-07
-4.97512e-07
-4.78193e-07
-4.99609e-07
-4.86064e-07
-4.97509e-07
-5.03165e-07
-4.85194e-07
-5.42054e-07
-4.44728e-07
-6.32678e-07
-2.98617e-07
-8.37482e-07
6.956e-07
-5.03671e-07
-5.03671e-07
-0.146488
0.146488
0.0383108
0.0142344
0.0074564
0.00467314
0.00323094
0.00237693
0.00182749
0.00145347
0.00118804
0.000993303
0.00084638
0.000732785
0.000643017
0.000570673
0.000511333
0.000461884
0.000420095
0.000384348
0.000353449
0.00032649
0.000302762
0.000281717
0.000262933
0.000246093
0.000230934
0.000217219
0.000204724
0.000193271
0.000182746
0.000173077
0.000164193
0.000155985
0.000148316
0.000141072
0.000134206
0.000127734
0.000121679
0.000115998
0.000110564
0.000105208
9.97982e-05
9.42962e-05
8.8753e-05
8.3249e-05
7.78259e-05
7.24591e-05
6.7093e-05
6.17114e-05
5.6394e-05
5.13172e-05
4.66928e-05
4.26764e-05
3.92954e-05
3.6435e-05
3.38872e-05
3.14375e-05
2.89479e-05
2.63994e-05
2.38821e-05
2.15423e-05
1.95145e-05
1.78662e-05
1.65753e-05
1.55415e-05
1.46226e-05
1.36785e-05
1.26074e-05
1.13649e-05
9.96544e-06
8.46788e-06
6.95484e-06
5.51093e-06
4.20607e-06
3.08589e-06
2.16954e-06
1.45304e-06
9.15823e-07
5.28134e-07
2.5757e-07
7.3789e-08
-4.87886e-08
-1.29999e-07
-1.84172e-07
-2.21037e-07
-2.46854e-07
-2.65487e-07
-2.79274e-07
-2.89641e-07
-2.97508e-07
-3.03515e-07
-3.08148e-07
-3.11788e-07
-3.14741e-07
-3.17243e-07
-3.19468e-07
-3.21539e-07
-3.23537e-07
-3.25509e-07
-3.2748e-07
-3.2946e-07
-3.31452e-07
-3.33451e-07
-3.35455e-07
-3.3746e-07
-3.39462e-07
-3.4146e-07
-3.43453e-07
-3.45441e-07
-3.47425e-07
-3.49406e-07
-3.51384e-07
-3.5336e-07
-3.55335e-07
-3.5731e-07
-3.59286e-07
-3.61261e-07
-3.63237e-07
-3.65214e-07
-3.67191e-07
-3.69169e-07
-3.71147e-07
-3.73125e-07
-3.75103e-07
-3.77081e-07
-3.79059e-07
-3.81036e-07
-3.83012e-07
-3.84988e-07
-3.86963e-07
-3.88937e-07
-3.90911e-07
-3.92883e-07
-3.94854e-07
-3.96825e-07
-3.98794e-07
-4.00762e-07
-4.0273e-07
-4.04696e-07
-4.06662e-07
-4.08626e-07
-4.1059e-07
-4.12553e-07
-4.14515e-07
-4.16476e-07
-4.18436e-07
-4.20395e-07
-4.22354e-07
-4.24312e-07
-4.26269e-07
-4.28226e-07
-4.30181e-07
-4.32136e-07
-4.34091e-07
-4.36045e-07
-4.37998e-07
-4.3995e-07
-4.41902e-07
-4.43853e-07
-4.45804e-07
-4.47754e-07
-4.49703e-07
-4.51652e-07
-4.53601e-07
-4.55549e-07
-4.57496e-07
-4.59443e-07
-4.6139e-07
-4.63336e-07
-4.65281e-07
-4.67226e-07
-4.69171e-07
-4.71115e-07
-4.73059e-07
-4.75003e-07
-4.76946e-07
-4.78889e-07
-4.80831e-07
-4.82774e-07
-4.84716e-07
-4.86657e-07
-4.88599e-07
-4.9054e-07
-4.92481e-07
-4.94422e-07
-4.96362e-07
-4.98303e-07
-5.00243e-07
-5.02183e-07
-5.04123e-07
-5.06063e-07
-5.08003e-07
-5.09942e-07
-5.11882e-07
-5.13821e-07
-5.15761e-07
-5.17701e-07
-5.1964e-07
-5.2158e-07
-5.23519e-07
-5.25459e-07
-5.27399e-07
-5.29339e-07
-5.31279e-07
-5.33219e-07
-5.35159e-07
-5.371e-07
-5.3904e-07
-5.40981e-07
-5.42922e-07
-5.44863e-07
-5.46804e-07
-5.48746e-07
-5.50688e-07
-5.5263e-07
-5.54572e-07
-5.56515e-07
-5.58458e-07
-5.60401e-07
-5.62345e-07
-5.64289e-07
-5.66234e-07
-5.68178e-07
-5.70124e-07
-5.72069e-07
-5.74015e-07
-5.75962e-07
-5.77909e-07
-5.79856e-07
-5.81804e-07
-5.83752e-07
-5.85701e-07
-5.8765e-07
-5.896e-07
-5.9155e-07
-5.93501e-07
-5.95452e-07
-5.97404e-07
-5.99357e-07
-6.0131e-07
-6.03263e-07
-6.05218e-07
-6.07172e-07
-6.09128e-07
-6.11084e-07
-6.13041e-07
-6.14998e-07
-6.16956e-07
-6.18915e-07
-6.20874e-07
-6.22834e-07
-6.24795e-07
-6.26756e-07
-6.28718e-07
-6.30681e-07
-6.32644e-07
-6.34608e-07
-6.36573e-07
-6.38539e-07
-6.40505e-07
-6.42472e-07
-6.4444e-07
-6.46408e-07
-6.48377e-07
-6.50347e-07
-6.52318e-07
-6.5429e-07
-6.56262e-07
-6.58235e-07
-6.60209e-07
-6.62184e-07
-6.64159e-07
-6.66136e-07
-6.68113e-07
-6.70091e-07
-6.7207e-07
-6.74049e-07
-6.7603e-07
-6.78011e-07
-6.79993e-07
-6.81976e-07
-6.8396e-07
-6.85945e-07
-6.87931e-07
-6.89917e-07
-6.91905e-07
-6.93893e-07
-6.95882e-07
-6.97872e-07
-6.99863e-07
-7.01855e-07
-7.03848e-07
-7.05842e-07
-7.07837e-07
-7.09832e-07
-7.11829e-07
-7.13826e-07
-7.15825e-07
-7.17824e-07
-7.19825e-07
-7.21826e-07
-7.23829e-07
-7.25832e-07
-7.27836e-07
-7.29842e-07
-7.31848e-07
-7.33856e-07
-7.35864e-07
-7.37873e-07
-7.39884e-07
-7.41895e-07
-7.43908e-07
-7.45922e-07
-7.47936e-07
-7.49952e-07
-7.51969e-07
-7.53987e-07
-7.56006e-07
-7.58026e-07
-7.60047e-07
-7.6207e-07
-7.64093e-07
-7.66118e-07
-7.68144e-07
-7.70171e-07
-7.72199e-07
-7.74228e-07
-7.76258e-07
-7.7829e-07
-7.80322e-07
-7.82358e-07
-7.8439e-07
-7.86432e-07
-7.88461e-07
-7.90514e-07
-7.92533e-07
-7.94605e-07
-7.96605e-07
-7.9871e-07
-8.00672e-07
-8.02831e-07
-8.04732e-07
-8.06971e-07
-8.08783e-07
-8.11131e-07
-8.12825e-07