# vtk DataFile Version 2.0
FlowField
ASCII
DATASET STRUCTURED_GRID
DIMENSIONS 400 1 200
POINTS 80000 float
0 0 0
0.08 0 0
0.16 0 0
0.24 0 0
0.32 0 0
0.4 0 0
0.48 0 0
0.56 0 0
0.64 0 0
0.72 0 0
0.8 0 0
0.88 0 0
0.96 0 0
1.04 0 0
1.12 0 0
1.2 0 0
1.28 0 0
1.36 0 0
1.44 0 0
1.52 0 0
1.6 0 0
1.68 0 0
1.76 0 0
1.84 0 0
1.92 0 0
2 0 0
2.08 0 0
2.16 0 0
2.24 0 0
2.32 0 0
2.4 0 0
2.48 0 0
2.56 0 0
2.64 0 0
2.72 0 0
2.8 0 0
2.88 0 0
2.96 0 0
3.04 0 0
3.12 0 0
3.2 0 0
3.28 0 0
3.36 0 0
3.44 0 0
3.52 0 0
3.6 0 0
3.68 0 0
3.76 0 0
3.84 0 0
3.92 0 0
4 0 0
4.08 0 0
4.16 0 0
4.24 0 0
4.32 0 0
4.4 0 0
4.48 0 0
4.56 0 0
4.64 0 0
4.72 0 0
4.8 0 0
4.88 0 0
4.96 0 0
5.04 0 0
5.12 0 0
5.2 0 0
5.28 0 0
5.36 0 0
5.44 0 0
5.52 0 0
5.6 0 0
5.68 0 0
5.76 0 0
5.84 0 0
5.92 0 0
6 0 0
6.08 0 0
6.16 0 0
6.24 0 0
6.32 0 0
6.4 0 0
6.48 0 0
6.56 0 0
6.64 0 0
6.72 0 0
6.8 0 0
6.88 0 0
6.96 0 0
7.04 0 0
7.12 0 0
7.2 0 0
7.28 0 0
7.36 0 0
7.44 0 0
7.52 0 0
7.6 0 0
7.68 0 0
7.76 0 0
7.84 0 0
7.92 0 0
8 0 0
8.08 0 0
8.16 0 0
8.24 0 0
8.32 0 0
8.4 0 0
8.48 0 0
8.56 0 0
8.64 0 0
8.72 0 0
8.8 0 0
8.88 0 0
8.96 0 0
9.04 0 0
9.12 0 0
9.2 0 0
9.28 0 0
9.36 0 0
9.44 0 0
9.52 0 0
9.6 0 0
9.68 0 0
9.76 0 0
9.84 0 0
9.92 0 0
10 0 0
10.08 0 0
10.16 0 0
10.24 0 0
10.32 0 0
10.4 0 0
10.48 0 0
10.56 0 0
10.64 0 0
10.72 0 0
10.8 0 0
10.88 0 0
10.96 0 0
11.04 0 0
11.12 0 0
11.2 0 0
11.28 0 0
11.36 0 0
11.44 0 0
11.52 0 0
11.6 0 0
11.68 0 0
11.76 0 0
11.84 0 0
11.92 0 0
12 0 0
12.08 0 0
12.16 0 0
12.24 0 0
12.32 0 0
12.4 0 0
12.48 0 0
12.56 0 0
12.64 0 0
12.72 0 0
12.8 0 0
12.88 0 0
12.96 0 0
13.04 0 0
13.12 0 0
13.2 0 0
13.28 0 0
13.36 0 0
13.44 0 0
13.52 0 0
13.6 0 0
13.68 0 0
13.76 0 0
13.84 0 0
13.92 0 0
14 0 0
14.08 0 0
14.16 0 0
14.24 0 0
14.32 0 0
14.4 0 0
14.48 0 0
14.56 0 0
14.64 0 0
14.72 0 0
14.8 0 0
14.88 0 0
14.96 0 0
15.04 0 0
15.12 0 0
15.2 0 0
15.28 0 0
15.36 0 0
15.44 0 0
15.52 0 0
15.6 0 0
15.68 0 0
15.76 0 0
15.84 0 0
15.92 0 0
16 0 0
16.08 0 0
16.16 0 0
16.24 0 0
16.32 0 0
16.4 0 0
16.48 0 0
16.56 0 0
16.64 0 0
16.72 0 0
16.8 0 0
16.88 0 0
16.96 0 0
17.04 0 0
17.12 0 0
17.2 0 0
17.28 0 0
17.36 0 0
17.44 0 0
17.52 0 0
17.6 0 0
17.68 0 0
17.76 0 0
17.84 0 0
17.92 0 0
18 0 0
18.08 0 0
18.16 0 0
18.24 0 0
18.32 0 0
18.4 0 0
18.48 0 0
18.56 0 0
18.64 0 0
18.72 0 0
18.8 0 0
18.88 0 0
18.96 0 0
19.04 0 0
19.12 0 0
19.2 0 0
19.28 0 0
19.36 0 0
19.44 0 0
19.52 0 0
19.6 0 0
19.68 0 0
19.76 0 0
19.84 0 0
19.92 0 0
20 0 0
20.08 0 0
20.16 0 0
20.24 0 0
20.32 0 0
20.4 0 0
20.48 0 0
20.56 0 0
20.64 0 0
20.72 0 0
20.8 0 0
20.88 0 0
20.96 0 0
21.04 0 0
21.12 0 0
21.2 0 0
21.28 0 0
21.36 0 0
21.44 0 0
21.52 0 0
21.6 0 0
21.68 0 0
21.76 0 0
21.84 0 0
21.92 0 0
22 0 0
22.08 0 0
22.16 0 0
22.24 0 0
22.32 0 0
22.4 0 0
22.48 0 0
22.56 0 0
22.64 0 0
22.72 0 0
22.8 0 0
22.88 0 0
22.96 0 0
23.04 0 0
23.12 0 0
23.2 0 0
23.28 0 0
23.36 0 0
23.44 0 0
23.52 0 0
23.6 0 0
23.68 0 0
23.76 0 0
23.84 0 0
23.92 0 0
24 0 0
24.08 0 0
24.16 0 0
24.24 0 0
24.32 0 0
24.4 0 0
24.48 0 0
24.56 0 0
24.64 0 0
24.72 0 0
24.8 0 0
24.88 0 0
24.96 0 0
25.04 0 0
25.12 0 0
25.2 0 0
25.28 0 0
25.36 0 0
25.44 0 0
25.52 0 0
25.6 0 0
25.68 0 0
25.76 0 0
25.84 0 0
25.92 0 0
26 0 0
26.08 0 0
26.16 0 0
26.24 0 0
26.32 0 0
26.4 0 0
26.48 0 0
26.56 0 0
26.64 0 0
26.72 0 0
26.8 0 0
26.88 0 0
26.96 0 0
27.04 0 0
27.12 0 0
27.2 0 0
27.28 0 0
27.36 0 0
27.44 0 0
27.52 0 0
27.6 0 0
27.68 0 0
27.76 0 0
27.84 0 0
27.92 0 0
28 0 0
28.08 0 0
28.16 0 0
28.24 0 0
28.32 0 0
28.4 0 0
28.48 0 0
28.56 0 0
28.64 0 0
28.72 0 0
28.8 0 0
28.88 0 0
28.96 0 0
29.04 0 0
29.12 0 0
29.2 0 0
29.28 0 0
29.36 0 0
29.44 0 0
29.52 0 0
29.6 0 0
29.68 0 0
29.76 0 0
29.84 0 0
29.92 0 0
30 0 0
30.08 0 0
30.16 0 0
30.24 0 0
30.32 0 0
30.4 0 0
30.48 0 0
30.56 0 0
30.64 0 0
30.72 0 0
30.8 0 0
30.88 0 0
30.96 0 0
31.04 0 0
31.12 0 0
31.2 0 0
31.28 0 0
31.36 0 0
31.44 0 0
31.52 0 0
31.6 0 0
31.68 0 0
31.76 0 0
31.84 0 0
31.92 0 0
0 0.005 0
0.08 0.005 0
0.16 0.005 0
0.24 0.005 0
0.32 0.005 0
0.4 0.005 0
0.48 0.005 0
0.56 0.005 0
0.64 0.005 0
0.72 0.005 0
0.8 0.005 0
0.88 0.005 0
0.96 0.005 0
1.04 0.005 0
1.12 0.005 0
1.2 0.005 0
1.28 0.005 0
1.36 0.005 0
1.44 0.005 0
1.52 0.005 0
1.6 0.005 0
1.68 0.005 0
1.76 0.005 0
1.84 0.005 0
1.92 0.005 0
2 0.005 0
2.08 0.005 0
2.16 0.005 0
2.24 0.005 0
2.32 0.005 0
2.4 0.005 0
2.48 0.005 0
2.56 0.005 0
2.64 0.005 0
2.72 0.005 0
2.8 0.005 0
2.88 0.005 0
2.96 0.005 0
3.04 0.005 0
3.12 0.005 0
3.2 0.005 0
3.28 0.005 0
3.36 0.005 0
3.44 0.005 0
3.52 0.005 0
3.6 0.005 0
3.68 0.005 0
3.76 0.005 0
3.84 0.005 0
3.92 0.005 0
4 0.005 0
4.08 0.005 0
4.16 0.005 0
4.24 0.005 0
4.32 0.005 0
4.4 0.005 0
4.48 0.005 0
4.56 0.005 0
4.64 0.005 0
4.72 0.005 0
4.8 0.005 0
4.88 0.005 0
4.96 0.005 0
5.04 0.005 0
5.12 0.005 0
5.2 0.005 0
5.28 0.005 0
5.36 0.005 0
5.44 0.005 0
5.52 0.005 0
5.6 0.005 0
5.68 0.005 0
5.76 0.005 0
5.84 0.005 0
5.92 0.005 0
6 0.005 0
6.08 0.005 0
6.16 0.005 0
6.24 0.005 0
6.32 0.005 0
6.4 0.005 0
6.48 0.005 0
6.56 0.005 0
6.64 0.005 0
6.72 0.005 0
6.8 0.005 0
6.88 0.005 0
6.96 0.005 0
7.04 0.005 0
7.12 0.005 0
7.2 0.005 0
7.28 0.005 0
7.36 0.005 0
7.44 0.005 0
7.52 0.005 0
7.6 0.005 0
7.68 0.005 0
7.76 0.005 0
7.84 0.005 0
7.92 0.005 0
8 0.005 0
8.08 0.005 0
8.16 0.005 0
8.24 0.005 0
8.32 0.005 0
8.4 0.005 0
8.48 0.005 0
8.56 0.005 0
8.64 0.005 0
8.72 0.005 0
8.8 0.005 0
8.88 0.005 0
8.96 0.005 0
9.04 0.005 0
9.12 0.005 0
9.2 0.005 0
9.28 0.005 0
9.36 0.005 0
9.44 0.005 0
9.52 0.005 0
9.6 0.005 0
9.68 0.005 0
9.76 0.005 0
9.84 0.005 0
9.92 0.005 0
10 0.005 0
10.08 0.005 0
10.16 0.005 0
10.24 0.005 0
10.32 0.005 0
10.4 0.005 0
10.48 0.005 0
10.56 0.005 0
10.64 0.005 0
10.72 0.005 0
10.8 0.005 0
10.88 0.005 0
10.96 0.005 0
11.04 0.005 0
11.12 0.005 0
11.2 0.005 0
11.28 0.005 0
11.36 0.005 0
11.44 0.005 0
11.52 0.005 0
11.6 0.005 0
11.68 0.005 0
11.76 0.005 0
11.84 0.005 0
11.92 0.005 0
12 0.005 0
12.08 0.005 0
12.16 0.005 0
12.24 0.005 0
12.32 0.005 0
12.4 0.005 0
12.48 0.005 0
12.56 0.005 0
12.64 0.005 0
12.72 0.005 0
12.8 0.005 0
12.88 0.005 0
12.96 0.005 0
13.04 0.005 0
13.12 0.005 0
13.2 0.005 0
13.28 0.005 0
13.36 0.005 0
13.44 0.005 0
13.52 0.005 0
13.6 0.005 0
13.68 0.005 0
13.76 0.005 0
13.84 0.005 0
13.92 0.005 0
14 0.005 0
14.08 0.005 0
14.16 0.005 0
14.24 0.005 0
14.32 0.005 0
14.4 0.005 0
14.48 0.005 0
14.56 0.005 0
14.64 0.005 0
14.72 0.005 0
14.8 0.005 0
14.88 0.005 0
14.96 0.005 0
15.04 0.005 0
15.12 0.005 0
15.2 0.005 0
15.28 0.005 0
15.36 0.005 0
15.44 0.005 0
15.52 0.005 0
15.6 0.005 0
15.68 0.005 0
15.76 0.005 0
15.84 0.005 0
15.92 0.005 0
16 0.005 0
16.08 0.005 0
16.16 0.005 0
16.24 0.005 0
16.32 0.005 0
16.4 0.005 0
16.48 0.005 0
16.56 0.005 0
16.64 0.005 0
16.72 0.005 0
16.8 0.005 0
16.88 0.005 0
16.96 0.005 0
17.04 0.005 0
17.12 0.005 0
17.2 0.005 0
17.28 0.005 0
17.36 0.005 0
17.44 0.005 0
17.52 0.005 0
17.6 0.005 0
17.68 0.005 0
17.76 0.005 0
17.84 0.005 0
17.92 0.005 0
18 0.005 0
18.08 0.005 0
18.16 0.005 0
18.24 0.005 0
18.32 0.005 0
18.4 0.005 0
18.48 0.005 0
18.56 0.005 0
18.64 0.005 0
18.72 0.005 0
18.8 0.005 0
18.88 0.005 0
18.96 0.005 0
19.04 0.005 0
19.12 0.005 0
19.2 0.005 0
19.28 0.005 0
19.36 0.005 0
19.44 0.005 0
19.52 0.005 0
19.6 0.005 0
19.68 0.005 0
19.76 0.005 0
19.84 0.005 0
19.92 0.005 0
20 0.005 0
20.08 0.005 0
20.16 0.005 0
20.24 0.005 0
20.32 0.005 0
20.4 0.005 0
20.48 0.005 0
20.56 0.005 0
20.64 0.005 0
20.72 0.005 0
20.8 0.005 0
20.88 0.005 0
20.96 0.005 0
21.04 0.005 0
21.12 0.005 0
21.2 0.005 0
21.28 0.005 0
21.36 0.005 0
21.44 0.005 0
21.52 0.005 0
21.6 0.005 0
21.68 0.005 0
21.76 0.005 0
21.84 0.005 0
21.92 0.005 0
22 0.005 0
22.08 0.005 0
22.16 0.005 0
22.24 0.005 0
22.32 0.005 0
22.4 0.005 0
22.48 0.005 0
22.56 0.005 0
22.64 0.005 0
22.72 0.005 0
22.8 0.005 0
22.88 0.005 0
22.96 0.005 0
23.04 0.005 0
23.12 0.005 0
23.2 0.005 0
23.28 0.005 0
23.36 0.005 0
23.44 0.005 0
23.52 0.005 0
23.6 0.005 0
23.68 0.005 0
23.76 0.005 0
23.84 0.005 0
23.92 0.005 0
24 0.005 0
24.08 0.005 0
24.16 0.005 0
24.24 0.005 0
24.32 0.005 0
24.4 0.005 0
24.48 0.005 0
24.56 0.005 0
24.64 0.005 0
24.72 0.005 0
24.8 0.005 0
24.88 0.005 0
24.96 0.005 0
25.04 0.005 0
25.12 0.005 0
25.2 0.005 0
25.28 0.005 0
25.36 0.005 0
25.44 0.005 0
25.52 0.005 0
25.6 0.005 0
25.68 0.005 0
25.76 0.005 0
25.84 0.005 0
25.92 0.005 0
26 0.005 0
26.08 0.005 0
26.16 0.005 0
26.24 0.005 0
26.32 0.005 0
26.4 0.005 0
26.48 0.005 0
26.56 0.005 0
26.64 0.005 0
26.72 0.005 0
26.8 0.005 0
26.88 0.005 0
26.96 0.005 0
27.04 0.005 0
27.12 0.005 0
27.2 0.005 0
27.28 0.005 0
27.36 0.005 0
27.44 0.005 0
27.52 0.005 0
27.6 0.005 0
27.68 0.005 0
27.76 0.005 0
27.84 0.005 0
27.92 0.005 0
28 0.005 0
28.08 0.005 0
28.16 0.005 0
28.24 0.005 0
28.32 0.005 0
28.4 0.005 0
28.48 0.005 0
28.56 0.005 0
28.64 0.005 0
28.72 0.005 0
28.8 0.005 0
28.88 0.005 0
28.96 0.005 0
29.04 0.005 0
29.12 0.005 0
29.2 0.005 0
29.28 0.005 0
29.36 0.005 0
29.44 0.005 0
29.52 0.005 0
29.6 0.005 0
29.68 0.005 0
29.76 0.005 0
29.84 0.005 0
29.92 0.005 0
30 0.005 0
30.08 0.005 0
30.16 0.005 0
30.24 0.005 0
30.32 0.005 0
30.4 0.005 0
30.48 0.005 0
30.56 0.005 0
30.64 0.005 0
30.72 0.005 0
30.8 0.005 0
30.88 0.005 0
30.96 0.005 0
31.04 0.005 0
31.12 0.005 0
31.2 0.005 0
31.28 0.005 0
31.36 0.005 0
31.44 0.005 0
31.52 0.005 0
31.6 0.005 0
31.68 0.005 0
31.76 0.005 0
31.84 0.005 0
31.92 0.005 0
0 0.01 0
0.08 0.01 0
0.16 0.01 0
0.24 0.01 0
0.32 0.01 0
0.4 0.01 0
0.48 0.01 0
0.56 0.01 0
0.64 0.01 0
0.72 0.01 0
0.8 0.01 0
0.88 0.01 0
0.96 0.01 0
1.04 0.01 0
1.12 0.01 0
1.2 0.01 0
1.28 0.01 0
1.36 0.01 0
1.44 0.01 0
1.52 0.01 0
1.6 0.01 0
1.68 0.01 0
1.76 0.01 0
1.84 0.01 0
1.92 0.01 0
2 0.01 0
2.08 0.01 0
2.16 0.01 0
2.24 0.01 0
2.32 0.01 0
2.4 0.01 0
2.48 0.01 0
2.56 0.01 0
2.64 0.01 0
2.72 0.01 0
2.8 0.01 0
2.88 0.01 0
2.96 0.01 0
3.04 0.01 0
3.12 0.01 0
3.2 0.01 0
3.28 0.01 0
3.36 0.01 0
3.44 0.01 0
3.52 0.01 0
3.6 0.01 0
3.68 0.01 0
3.76 0.01 0
3.84 0.01 0
3.92 0.01 0
4 0.01 0
4.08 0.01 0
4.16 0.01 0
4.24 0.01 0
4.32 0.01 0
4.4 0.01 0
4.48 0.01 0
4.56 0.01 0
4.64 0.01 0
4.72 0.01 0
4.8 0.01 0
4.88 0.01 0
4.96 0.01 0
5.04 0.01 0
5.12 0.01 0
[...]
POINT_DATA 80000

SCALARS v float 1
LOOKUP_TABLE default
0
0
0
0
0
0
0
0
0
0
0
0
0
0
0
0
0
0
0
0
0
0
0
0
0
0
0
0
0
0
0
0
0
0
0
0
0
0
0
0
0
0
0
0
0
0
0
0
0
0
0
0
0
0
0
0
0
0
0
0
0
0
0
0
0
0
0
0
0
0
0
0
0
0
0
0
0
0
0
0
0
0
0
0
0
0
0
0
0
0
0
0
0
0
0
0
0
0
0
0
0
0
0
0
0
0
0
0
0
0
0
0
0
0
0
0
0
0
0
0
0
0
0
0
0
0
0
0
0
0
0
0
0
0
0
0
0
0
0
0
0
0
0
0
0
0
0
0
0
0
0
0
0
0
0
0
0
0
0
0
0
0
0
0
0
0
0
0
0
0
0
0
0
0
0
0
0
0
0
0
0
0
0
0
0
0
0
0
0
0
0
0
0
0
0
0
0
0
0
0
0
0
0
0
0
0
0
0
0
0
0
0
0
0
0
0
0
0
0
0
0
0
0
0
0
0
0
0
0
0
0
0
0
0
0
0
0
0
0
0
0
0
0
0
0
0
0
0
0
0
0
0
0
0
0
0
0
0
0
0
0
0
0
0
0
0
0
0
0
0
0
0
0
0
0
0
0
0
0
0
0
0
0
0
0
0
0
0
0
0
0
0
0
0
0
0
0
0
0
0
0
0
0
0
0
0
0
0
0
0
0
0
0
0
0
0
0
0
0
0
0
0
0
0
0
0
0
0
0
0
0
0
0
0
0
0
0
0
0
0
0
0
0
0
0
0
0
0
0
0
0
0
0
0
0
0
0
0
0
0
0
0
0
0
0
0
0
0
0
0
0
0
0
0
0
0
0
0
0
0
0
0
0
0
0
0
0
0
0
0
0
0
0
0
0
0
0
0
0
0
-0.0542714
0.0542714
0.00396243
0.000998671
0.000492601
0.000303034
0.000207652
0.000152019
0.00011657
9.25944e-05
7.5651e-05
6.32617e-05
5.39392e-05
4.67295e-05
4.09984e-05
3.63323e-05
3.24715e-05
2.92424e-05
2.65001e-05
2.41069e-05
2.19479e-05
1.9955e-05
1.81026e-05
1.63725e-05
1.47169e-05
1.30592e-05
1.13371e-05
9.55704e-06
7.81595e-06
6.26822e-06
5.05662e-06
4.24653e-06
3.79953e-06
3.59562e-06
3.4861e-06
3.34693e-06
3.10998e-06
2.7662e-06
2.34886e-06
1.90961e-06
1.49785e-06
1.14841e-06
8.77684e-07
6.85906e-07
5.62482e-07
4.91756e-07
4.57617e-07
4.4633e-07
4.4769e-07
4.54991e-07
4.64361e-07
4.73903e-07
4.82924e-07
4.91354e-07
4.99376e-07
5.07229e-07
5.15111e-07
5.23159e-07
5.31451e-07
5.40022e-07
5.48879e-07
5.58016e-07
5.67418e-07
5.77069e-07
5.86953e-07
5.97054e-07
6.07359e-07
6.17856e-07
6.28531e-07
6.39375e-07
6.50376e-07
6.61524e-07
6.72807e-07
6.84215e-07
6.95738e-07
7.07363e-07
7.1908e-07
7.30877e-07
7.42742e-07
7.54664e-07
7.66629e-07
7.78625e-07
7.9064e-07
8.02661e-07
8.14674e-07
8.26666e-07
8.38624e-07
8.50535e-07
8.62383e-07
8.74157e-07
8.8584e-07
8.97421e-07
9.08884e-07
9.20217e-07
9.31403e-07
9.42431e-07
9.53286e-07
9.63954e-07
9.74422e-07
9.84677e-07
9.94704e-07
1.00449e-06
1.01403e-06
1.0233e-06
1.03229e-06
1.04099e-06
1.04939e-06
1.05748e-06
1.06525e-06
1.07269e-06
1.07978e-06
1.08652e-06
1.0929e-06
1.09891e-06
1.10454e-06
1.10979e-06
1.11465e-06
1.1191e-06
1.12316e-06
1.12681e-06
1.13005e-06
1.13287e-06
1.13527e-06
1.13725e-06
1.1388e-06
1.13993e-06
1.14064e-06
1.14091e-06
1.14077e-06
1.1402e-06
1.1392e-06
1.13779e-06
1.13596e-06
1.13371e-06
1.13106e-06
1.128e-06
1.12454e-06
1.12068e-06
1.11644e-06
1.11182e-06
1.10682e-06
1.10145e-06
1.09573e-06
1.08965e-06
1.08324e-06
1.07648e-06
1.06941e-06
1.06202e-06
1.05433e-06
1.04634e-06
1.03807e-06
1.02953e-06
1.02072e-06
1.01167e-06
1.00237e-06
9.92844e-07
9.83101e-07
9.73151e-07
9.63007e-07
9.52679e-07
9.42178e-07
9.31517e-07
9.20705e-07
9.09756e-07
8.98678e-07
8.87484e-07
8.76184e-07
8.64789e-07
8.53309e-07
8.41755e-07
8.30136e-07
8.18463e-07
8.06745e-07
7.94992e-07
7.83212e-07
7.71415e-07
7.59609e-07
7.47803e-07
7.36004e-07
7.24221e-07
7.1246e-07
7.0073e-07
6.89036e-07
6.77386e-07
6.65785e-07
6.5424e-07
6.42756e-07
6.31338e-07
6.19992e-07
6.08722e-07
5.97533e-07
5.86428e-07
5.75412e-07
5.64487e-07
5.53658e-07
5.42927e-07
5.32297e-07
5.2177e-07
5.11348e-07
5.01033e-07
4.90828e-07
4.80732e-07
4.70748e-07
4.60877e-07
4.51119e-07
4.41474e-07
4.31943e-07
4.22527e-07
4.13225e-07
4.04037e-07
3.94963e-07
3.86002e-07
3.77153e-07
3.68416e-07
3.5979e-07
3.51274e-07
3.42867e-07
3.34567e-07
3.26374e-07
3.18285e-07
3.10299e-07
3.02416e-07
2.94632e-07
2.86947e-07
2.79359e-07
2.71866e-07
2.64465e-07
2.57157e-07
2.49937e-07
2.42805e-07
2.35759e-07
2.28796e-07
2.21915e-07
2.15114e-07
2.0839e-07
2.01742e-07
1.95169e-07
1.88667e-07
1.82235e-07
1.75872e-07
1.69575e-07
1.63342e-07
1.57171e-07
1.51062e-07
1.45011e-07
1.39018e-07
1.33079e-07
1.27195e-07
1.21362e-07
1.1558e-07
1.09847e-07
1.0416e-07
9.85195e-08
9.29228e-08
8.73686e-08
8.18555e-08
7.6382e-08
7.09469e-08
6.55486e-08
6.0186e-08
5.48576e-08
4.95624e-08
4.42989e-08
3.90662e-08
3.38629e-08
2.8688e-08
2.35403e-08
1.8419e-08
1.33227e-08
8.25066e-09
3.20173e-09
-1.82484e-09
-6.83019e-09
-1.1815e-08
-1.67804e-08
-2.17269e-08
-2.66556e-08
-3.15672e-08
-3.64625e-08
-4.13421e-08
-4.6207e-08
-5.10577e-08
-5.5895e-08
-6.07195e-08
-6.55319e-08
-7.03327e-08
-7.51228e-08
-7.99025e-08
-8.46726e-08
-8.94334e-08
-9.41858e-08
-9.89301e-08
-1.03667e-07
-1.08397e-07
-1.1312e-07
-1.17837e-07
-1.22549e-07
-1.27256e-07
-1.31958e-07
-1.36655e-07
-1.41349e-07
-1.4604e-07
-1.50728e-07
-1.55413e-07
-1.60096e-07
-1.64778e-07
-1.69458e-07
-1.74137e-07
-1.78815e-07
-1.83493e-07
-1.88171e-07
-1.9285e-07
-1.97529e-07
-2.0221e-07
-2.06892e-07
-2.11575e-07
-2.16261e-07
-2.20949e-07
-2.2564e-07
-2.30334e-07
-2.35031e-07
-2.39732e-07
-2.44437e-07
-2.49146e-07
-2.53859e-07
-2.58577e-07
-2.633e-07
-2.68029e-07
-2.72763e-07
-2.77503e-07
-2.82249e-07
-2.87001e-07
-2.91761e-07
-2.96527e-07
-3.013e-07
-3.06081e-07
-3.1087e-07
-3.15667e-07
-3.20472e-07
-3.25285e-07
-3.30108e-07
-3.34939e-07
-3.3978e-07
-3.4463e-07
-3.49491e-07
-3.54361e-07
-3.59242e-07
-3.64133e-07
-3.69035e-07
-3.73948e-07
-3.78873e-07
-3.83809e-07
-3.88758e-07
-3.93718e-07
-3.98691e-07
-4.03676e-07
-4.08675e-07
-4.13687e-07
-4.18711e-07
-4.23752e-07
-4.28802e-07
-4.33876e-07
-4.38943e-07
-4.44071e-07
-4.4912e-07
-4.54368e-07
-4.59286e-07
-4.64847e-07
-4.69331e-07
-4.75665e-07
-4.79062e-07
-4.87039e-07
-4.8828e-07
-4.99108e-07
-4.96976e-07
-5.11713e-07
-5.05503e-07
-5.24353e-07
-5.14432e-07
-5.36509e-07
-5.24181e-07
-5.47885e-07
-5.3503e-07
-5.58157e-07
-5.47427e-07
-5.67005e-07
-5.61364e-07
-5.75362e-07
-5.75137e-07
-5.85706e-07
-5.8758e-07
-5.96745e-07
-6.05699e-07
-5.97779e-07
-6.41133e-07
-5.7602e-07
-6.99956e-07
-2.64306e-07
-6.28751e-07
-6.28751e-07
-0.0952162
0.0952162
0.012976
0.00385501
0.0019347
0.00119657
0.000822092
0.000602643
0.000462359
0.000367249
0.000299915
0.000250615
0.000213472
0.000184716
0.000161847
0.000143237
0.000127849
0.000114966
0.000103992
9.43877e-05
8.57235e-05
7.77441e-05
7.0332e-05
6.33774e-05
5.66686e-05
4.9923e-05
4.2956e-05
3.58617e-05
2.90551e-05
2.31216e-05
1.85548e-05
1.55315e-05
1.38438e-05
1.30055e-05
1.24567e-05
1.17551e-05
1.06779e-05
9.21979e-06
7.52293e-06
5.78577e-06
4.1889e-06
2.85318e-06
1.82928e-06
1.10889e-06
6.45856e-07
3.77844e-07
2.43043e-07
1.89948e-07
1.80966e-07
1.91809e-07
2.08703e-07
2.25085e-07
2.38694e-07
2.49453e-07
2.58137e-07
2.65663e-07
2.72782e-07
2.79999e-07
2.87602e-07
2.95723e-07
3.04394e-07
3.13598e-07
3.23291e-07
3.33427e-07
3.4396e-07
3.54849e-07
3.66061e-07
3.77567e-07
3.89342e-07
4.01365e-07
4.13618e-07
4.26084e-07
4.38745e-07
4.51588e-07
4.64597e-07
4.77758e-07
4.91055e-07
5.04474e-07
5.18001e-07
5.31622e-07
5.45321e-07
5.59084e-07
5.72896e-07
5.86741e-07
6.00605e-07
6.14472e-07
6.28326e-07
6.42152e-07
6.55934e-07
6.69657e-07
6.83303e-07
6.96857e-07
7.10302e-07
7.23623e-07
7.36803e-07
7.49825e-07
7.62674e-07
7.75333e-07
7.87786e-07
8.00017e-07
8.1201e-07
8.2375e-07
8.3522e-07
8.46408e-07
8.57296e-07
8.67871e-07
8.78118e-07
8.88024e-07
8.97576e-07
9.0676e-07
9.15564e-07
9.23976e-07
9.31985e-07
9.3958e-07
9.4675e-07
9.53486e-07
9.59779e-07
9.65621e-07
9.71002e-07
9.75918e-07
9.8036e-07
9.84324e-07
9.87804e-07
9.90796e-07
9.93295e-07
9.953e-07
9.96808e-07
9.97818e-07
9.98328e-07
9.98339e-07
9.9785e-07
9.96865e-07
9.95383e-07
9.93409e-07
9.90945e-07
9.87996e-07
9.84566e-07
9.80661e-07
9.76285e-07
9.71447e-07
9.66151e-07
9.60408e-07
9.54223e-07
9.47607e-07
9.40567e-07
9.33114e-07
9.25258e-07
9.17008e-07
9.08375e-07
8.99372e-07
8.90007e-07
8.80295e-07
8.70245e-07
8.59872e-07
8.49186e-07
8.382e-07
8.26927e-07
8.15381e-07
8.03572e-07
7.91516e-07
7.79223e-07
7.66709e-07
7.53984e-07
7.41064e-07
7.27959e-07
7.14683e-07
7.01249e-07
6.87669e-07
6.73955e-07
6.6012e-07
6.46176e-07
6.32134e-07
6.18006e-07
6.03804e-07
5.89538e-07
5.7522e-07
5.60859e-07
5.46466e-07
5.32051e-07
5.17624e-07
5.03194e-07
4.8877e-07
4.74359e-07
4.59973e-07
4.45616e-07
4.31298e-07
4.17026e-07
4.02806e-07
3.88645e-07
3.7455e-07
3.60526e-07
3.46579e-07
3.32714e-07
3.18935e-07
3.05248e-07
2.91657e-07
2.78165e-07
2.64777e-07
2.51494e-07
2.38322e-07
2.2526e-07
2.12314e-07
1.99483e-07
1.86772e-07
1.7418e-07
1.61709e-07
1.49361e-07
1.37136e-07
1.25034e-07
1.13057e-07
1.01205e-07
8.94766e-08
7.78727e-08
6.63932e-08
5.50368e-08
4.38036e-08
3.26922e-08
2.17022e-08
1.0832e-08
8.1016e-11
-1.05528e-08
-2.107e-08
-3.14728e-08
-4.17622e-08
-5.19404e-08
-6.20086e-08
-7.19691e-08
-8.18232e-08
-9.15734e-08
-1.01221e-07
-1.10769e-07
-1.20218e-07
-1.29571e-07
-1.38829e-07
-1.47996e-07
-1.57073e-07
-1.66062e-07
-1.74965e-07
-1.83784e-07
-1.92522e-07
-2.0118e-07
-2.0976e-07
-2.18266e-07
-2.26698e-07
-2.35059e-07
-2.4335e-07
-2.51574e-07
-2.59733e-07
-2.67829e-07
-2.75863e-07
-2.83837e-07
-2.91754e-07
-2.99615e-07
-3.07421e-07
-3.15175e-07
-3.22878e-07
-3.30533e-07
-3.3814e-07
-3.45701e-07
-3.53218e-07
-3.60693e-07
-3.68126e-07
-3.7552e-07
-3.82875e-07
-3.90194e-07
-3.97477e-07
-4.04727e-07
-4.11943e-07
-4.19128e-07
-4.26282e-07
-4.33408e-07
-4.40505e-07
-4.47576e-07
-4.54621e-07
-4.61642e-07
-4.68639e-07
-4.75613e-07
-4.82566e-07
-4.89499e-07
-4.96412e-07
-5.03306e-07
-5.10183e-07
-5.17043e-07
-5.23887e-07
-5.30716e-07
-5.3753e-07
-5.44331e-07
-5.51119e-07
-5.57896e-07
-5.6466e-07
-5.71415e-07
-5.78159e-07
-5.84895e-07
-5.91622e-07
-5.98341e-07
-6.05053e-07
-6.11758e-07
-6.18457e-07
-6.25152e-07
-6.31841e-07
-6.38526e-07
-6.45207e-07
-6.51885e-07
-6.58561e-07
-6.65235e-07
-6.71907e-07
-6.78578e-07
-6.85249e-07
-6.91919e-07
-6.9859e-07
-7.05263e-07
-7.11936e-07
-7.18611e-07
-7.25289e-07
-7.31969e-07
-7.38653e-07
-7.4534e-07
-7.52032e-07
-7.58728e-07
-7.65428e-07
-7.72135e-07
-7.78846e-07
-7.85565e-07
-7.92289e-07
-7.99021e-07
-8.0576e-07
-8.12506e-07
-8.19261e-07
-8.26025e-07
-8.32797e-07
-8.39578e-07
-8.46369e-07
-8.53171e-07
-8.59982e-07
-8.66805e-07
-8.73638e-07
-8.80483e-07
-8.8734e-07
-8.9421e-07
-9.01091e-07
-9.07987e-07
-9.14895e-07
-9.21817e-07
-9.28753e-07
-9.35704e-07
-9.42669e-07
-9.4965e-07
-9.56646e-07
-9.63659e-07
-9.70687e-07
-9.77733e-07
-9.84795e-07
-9.91875e-07
-9.98973e-07
-1.00609e-06
-1.01322e-06
-1.02038e-06
-1.02755e-06
-1.03474e-06
-1.04196e-06
-1.04918e-06
-1.05646e-06
-1.06369e-06
-1.0711e-06
-1.07819e-06
-1.08597e-06
-1.09253e-06
-1.10137e-06
-1.10628e-06
-1.11787e-06
-1.11872e-06
-1.13629e-06
-1.12909e-06
-1.15717e-06
-1.1373e-06
-1.17996e-06
-1.14466e-06
-1.20277e-06
-1.15331e-06
-1.2236e-06
-1.16485e-06
-1.24135e-06
-1.18029e-06
-1.25483e-06
-1.20134e-06
-1.26269e-06
-1.2282e-06
-1.26825e-06
-1.25449e-06
-1.2811e-06
-1.27525e-06
-1.29723e-06
-1.31621e-06
-1.27656e-06
-1.42206e-06
-1.17166e-06
-1.60786e-06
-4.03254e-08
-1.32945e-06
-1.32945e-06
-0.125293
0.125293
0.0249363
0.00835842
0.00427839
0.00266189
0.00183405
0.00134662
0.00103406
0.000821682
0.000671092
0.000560699
0.000477447
0.000412935
0.000361613
0.000319866
0.000285359
0.000256449
0.000231773
0.000210139
0.000190629
0.000172695
0.000156042
0.000140365
0.000125162
0.000109842
9.40977e-05
7.8242e-05
6.32403e-05
5.03453e-05
4.05378e-05
3.40836e-05
3.0438e-05
2.85085e-05
2.70996e-05
2.53055e-05
2.27022e-05
1.93233e-05
1.5498e-05
1.1656e-05
8.17446e-06
5.29527e-06
3.10918e-06
1.5838e-06
6.10424e-07
5.03114e-08
-2.30718e-07
-3.4267e-07
-3.64787e-07
-3.47653e-07
-3.19547e-07
-2.93666e-07
-2.74332e-07
-2.61435e-07
-2.532e-07
-2.47633e-07
-2.43136e-07
-2.38645e-07
-2.33562e-07
-2.27614e-07
-2.20738e-07
-2.12971e-07
-2.04401e-07
-1.95123e-07
-1.85231e-07
-1.748e-07
-1.63899e-07
-1.52576e-07
-1.40878e-07
-1.28839e-07
-1.16489e-07
-1.03854e-07
-9.09582e-08
-7.78221e-08
-6.44671e-08
-5.09104e-08
-3.71719e-08
-2.32677e-08
-9.21646e-09
4.96636e-09
1.92624e-08
3.36567e-08
4.8131e-08
6.26705e-08
7.7257e-08
9.18754e-08
1.06507e-07
1.21138e-07
1.35748e-07
1.50323e-07
1.64844e-07
1.79295e-07
1.93656e-07
2.07913e-07
2.22045e-07
2.36037e-07
2.4987e-07
2.63527e-07
2.7699e-07
2.90242e-07
3.03264e-07
3.16041e-07
3.28554e-07
3.40788e-07
3.52724e-07
3.64348e-07
3.75642e-07
3.86592e-07
3.97181e-07
4.07396e-07
4.17221e-07
4.26644e-07
4.35649e-07
4.44227e-07
4.52362e-07
4.60045e-07
4.67263e-07
4.74008e-07
4.80268e-07
4.86035e-07
4.91301e-07
4.96058e-07
5.00299e-07
5.04019e-07
5.07211e-07
5.09872e-07
5.11997e-07
5.13584e-07
5.14628e-07
5.15131e-07
5.1509e-07
5.14505e-07
5.13378e-07
5.11709e-07
5.09501e-07
5.06757e-07
5.03479e-07
4.99674e-07
4.95344e-07
4.90497e-07
4.85138e-07
4.79275e-07
4.72913e-07
4.66063e-07
4.58731e-07
4.50929e-07
4.42663e-07
4.33946e-07
4.24787e-07
4.15198e-07
4.05189e-07
3.94773e-07
3.83961e-07
3.72766e-07
3.612e-07
3.49277e-07
3.37007e-07
3.24407e-07
3.11488e-07
2.98265e-07
2.8475e-07
2.70957e-07
2.569e-07
2.42594e-07
2.2805e-07
2.13283e-07
1.98307e-07
1.83135e-07
1.6778e-07
1.52257e-07
1.36576e-07
1.20752e-07
1.04797e-07
8.8725e-08
7.25458e-08
5.62734e-08
3.99178e-08
2.34922e-08
7.00619e-09
-9.52783e-09
-2.61009e-08
-4.27012e-08
-5.93204e-08
-7.59473e-08
-9.25743e-08
-1.09191e-07
-1.2579e-07
-1.42363e-07
-1.58902e-07
-1.75398e-07
-1.91847e-07
-2.0824e-07
-2.24572e-07
-2.40835e-07
-2.57026e-07
-2.73136e-07
-2.89164e-07
-3.05103e-07
-3.2095e-07
-3.36699e-07
-3.52349e-07
-3.67894e-07
-3.83333e-07
-3.98661e-07
-4.13878e-07
-4.2898e-07
-4.43967e-07
-4.58835e-07
-4.73585e-07
-4.88213e-07
-5.0272e-07
-5.17105e-07
-5.31368e-07
-5.45507e-07
-5.59524e-07
-5.73417e-07
-5.87188e-07
-6.00836e-07
-6.14364e-07
-6.27769e-07
-6.41055e-07
-6.54222e-07
-6.67271e-07
-6.80202e-07
-6.93019e-07
-7.05721e-07
-7.18311e-07
-7.3079e-07
-7.4316e-07
-7.55421e-07
-7.67578e-07
-7.7963e-07
-7.9158e-07
-8.0343e-07
-8.15182e-07
-8.26838e-07
-8.38399e-07
-8.49868e-07
-8.61248e-07
-8.72539e-07
-8.83745e-07
-8.94866e-07
-9.05905e-07
-9.16865e-07
-9.27747e-07
-9.38553e-07
-9.49286e-07
-9.59947e-07
-9.70538e-07
-9.81062e-07
-9.9152e-07
-1.00191e-06
-1.01225e-06
-1.02252e-06
-1.03273e-06
-1.04289e-06
-1.05299e-06
-1.06304e-06
-1.07304e-06
-1.08299e-06
-1.0929e-06
-1.10275e-06
-1.11257e-06
-1.12233e-06
-1.13206e-06
-1.14175e-06
-1.1514e-06
-1.16101e-06
-1.17059e-06
-1.18014e-06
-1.18965e-06
-1.19913e-06
-1.20858e-06
-1.218e-06
-1.22739e-06
-1.23676e-06
-1.2461e-06
-1.25541e-06
-1.26471e-06
-1.27398e-06
-1.28323e-06
-1.29247e-06
-1.30168e-06
-1.31088e-06
-1.32006e-06
-1.32922e-06
-1.33837e-06
-1.3475e-06
-1.35662e-06
-1.36573e-06
-1.37483e-06
-1.38392e-06
-1.393e-06
-1.40207e-06
-1.41113e-06
-1.42018e-06
-1.42923e-06
-1.43827e-06
-1.44731e-06
-1.45634e-06
-1.46537e-06
-1.4744e-06
-1.48342e-06
-1.49244e-06
-1.50147e-06
-1.51049e-06
-1.51951e-06
-1.52853e-06
-1.53755e-06
-1.54658e-06
-1.55561e-06
-1.56464e-06
-1.57368e-06
-1.58272e-06
-1.59176e-06
-1.60081e-06
-1.60987e-06
-1.61893e-06
-1.628e-06
-1.63708e-06
-1.64617e-06
-1.65526e-06
-1.66437e-06
-1.67348e-06
-1.68261e-06
-1.69175e-06
-1.70089e-06
-1.71005e-06
-1.71923e-06
-1.72841e-06
-1.73761e-06
-1.74682e-06
-1.75605e-06
-1.76529e-06
-1.77454e-06
-1.78381e-06
-1.7931e-06
-1.80241e-06
-1.81173e-06
-1.82107e-06
-1.83043e-06
-1.83981e-06
-1.8492e-06
-1.85862e-06
-1.86806e-06
-1.87751e-06
-1.88699e-06
-1.89649e-06
-1.90601e-06
-1.91556e-06
-1.92513e-06
-1.93472e-06
-1.94433e-06
-1.95397e-06
-1.96364e-06
-1.97333e-06
-1.98305e-06
-1.9928e-06
-2.00257e-06
-2.01238e-06
-2.02219e-06
-2.0321e-06
-2.04187e-06
-2.05202e-06
-2.06151e-06
-2.07239e-06
-2.08073e-06
-2.09379e-06
-2.09864e-06
-2.11746e-06
-2.11371e-06
-2.14515e-06
-2.12426e-06
-2.17806e-06
-2.13006e-06
-2.21504e-06
-2.13387e-06
-2.25205e-06
-2.14034e-06
-2.28474e-06
-2.1529e-06
-2.3108e-06
-2.17365e-06
-2.32772e-06
-2.2063e-06
-2.3324e-06
-2.25156e-06
-2.33177e-06
-2.29573e-06
-2.34682e-06
-2.32745e-06
-2.37003e-06
-2.40112e-06
-2.31589e-06
-2.61351e-06
-2.08451e-06
-2.98662e-06
2.33801e-07
-2.3954e-06
-2.3954e-06
-0.146488
0.146488
0.0383109
0.0142344
0.0074564
0.00467307
0.00323078
0.00237666
0.00182704
0.00145268
0.00118676
0.000991571
0.000844214
0.000729929
0.000638977
0.000565012
0.000503892
0.000452649
0.000408835
0.00037037
0.000335699
0.000303878
0.000274339
0.000246452
0.00021929
0.000191883
0.000163842
0.000135874
0.000109727
8.75204e-05
7.07969e-05
5.98352e-05
5.35621e-05
5.00493e-05
4.72753e-05
4.37658e-05
3.8882e-05
3.27466e-05
2.59548e-05
1.92425e-05
1.32344e-05
8.3155e-06
4.61302e-06
2.04998e-06
4.26957e-07
-4.99643e-07
-9.6055e-07
-1.1423e-06
-1.17778e-06
-1.15087e-06
-1.10792e-06
-1.07013e-06
-1.04411e-06
-1.02929e-06
-1.0225e-06
-1.0203e-06
-1.02e-06
-1.01982e-06
-1.01877e-06
-1.01641e-06
-1.01263e-06
-1.00751e-06
-1.0012e-06
-9.93849e-07
-9.85618e-07
-9.76631e-07
-9.66995e-07
-9.56792e-07
-9.46092e-07
-9.34947e-07
-9.23404e-07
-9.11499e-07
-8.99268e-07
-8.86736e-07
-8.73933e-07
-8.6088e-07
-8.47603e-07
-8.3412e-07
-8.20455e-07
-8.06623e-07
-7.92648e-07
-7.78543e-07
-7.64331e-07
-7.50025e-07
-7.35647e-07
-7.2121e-07
-7.06735e-07
-6.92236e-07
-6.77734e-07
-6.63243e-07
-6.48784e-07
-6.34371e-07
-6.20025e-07
-6.05761e-07
-5.916e-07
-5.77558e-07
-5.63656e-07
-5.49909e-07
-5.36338e-07
-5.22959e-07
-5.09792e-07
-4.96854e-07
-4.84165e-07
-4.71739e-07
-4.59599e-07
-4.47757e-07
-4.36235e-07
-4.25046e-07
-4.14209e-07
-4.03738e-07
-3.93651e-07
-3.8396e-07
-3.74683e-07
-3.65832e-07
-3.57422e-07
-3.49463e-07
-3.41972e-07
-3.34957e-07
-3.28431e-07
-3.22403e-07
-3.16884e-07
-3.11882e-07
-3.07406e-07
-3.03463e-07
-3.00061e-07
-2.97204e-07
-2.94899e-07
-2.93149e-07
-2.9196e-07
-2.91331e-07
-2.91269e-07
-2.91771e-07
-2.9284e-07
-2.94475e-07
-2.96676e-07
-2.9944e-07
-3.02766e-07
-3.0665e-07
-3.11088e-07
-3.16075e-07
-3.21608e-07
-3.27678e-07
-3.34282e-07
-3.41409e-07
-3.49055e-07
-3.57208e-07
-3.65863e-07
-3.75007e-07
-3.84634e-07
-3.9473e-07
-4.05287e-07
-4.16291e-07
-4.27734e-07
-4.39601e-07
-4.51882e-07
-4.64562e-07
-4.77632e-07
-4.91075e-07
-5.04881e-07
-5.19033e-07
-5.33522e-07
-5.48331e-07
-5.63449e-07
-5.78859e-07
-5.9455e-07
-6.10505e-07
-6.26715e-07
-6.43161e-07
-6.59834e-07
-6.76717e-07
-6.93799e-07
-7.11064e-07
-7.28502e-07
-7.46097e-07
-7.63839e-07
-7.81713e-07
-7.99709e-07
-8.17813e-07
-8.36014e-07
-8.543e-07
-8.72662e-07
-8.91085e-07
-9.09562e-07
-9.2808e-07
-9.46632e-07
-9.65205e-07
-9.83793e-07
-1.00238e-06
-1.02097e-06
-1.03955e-06
-1.0581e-06
-1.07663e-06
-1.09512e-06
-1.11357e-06
-1.13197e-06
-1.15031e-06
-1.1686e-06
-1.18682e-06
-1.20497e-06
-1.22304e-06
-1.24103e-06
-1.25894e-06
-1.27676e-06
-1.29448e-06
-1.31211e-06
-1.32965e-06
-1.34708e-06
-1.36441e-06
-1.38163e-06
-1.39875e-06
-1.41575e-06
-1.43265e-06
-1.44944e-06
-1.46611e-06
-1.48267e-06
-1.49911e-06
-1.51545e-06
-1.53166e-06
-1.54777e-06
-1.56376e-06
-1.57964e-06
-1.5954e-06
-1.61105e-06
-1.62659e-06
-1.64202e-06
-1.65734e-06
-1.67255e-06
-1.68766e-06
-1.70266e-06
-1.71755e-06
-1.73234e-06
-1.74703e-06
-1.76161e-06
-1.7761e-06
-1.7905e-06
-1.80479e-06
-1.819e-06
-1.83311e-06
-1.84713e-06
-1.86107e-06
-1.87492e-06
-1.88868e-06
-1.90237e-06
-1.91597e-06
-1.92949e-06
-1.94294e-06
-1.95632e-06
-1.96962e-06
-1.98285e-06
-1.99601e-06
-2.00911e-06
-2.02214e-06
-2.03511e-06
-2.04801e-06
-2.06086e-06
-2.07365e-06
-2.08639e-06
-2.09907e-06
-2.1117e-06
-2.12427e-06
-2.1368e-06
-2.14928e-06
-2.16172e-06
-2.17411e-06
-2.18646e-06
-2.19877e-06
-2.21104e-06
-2.22327e-06
-2.23547e-06
-2.24763e-06
-2.25976e-06
-2.27185e-06
-2.28392e-06
-2.29595e-06
-2.30796e-06
-2.31994e-06
-2.3319e-06
-2.34383e-06
-2.35574e-06
-2.36762e-06
-2.37949e-06
-2.39133e-06
-2.40316e-06
-2.41497e-06
-2.42676e-06
-2.43854e-06
-2.4503e-06
-2.46205e-06
-2.47379e-06
-2.48552e-06
-2.49724e-06
-2.50894e-06
-2.52064e-06
-2.53233e-06
-2.54402e-06
-2.55569e-06
-2.56737e-06
-2.57904e-06
-2.5907e-06
-2.60237e-06
-2.61403e-06
-2.62569e-06
-2.63735e-06
-2.64901e-06
-2.66067e-06
-2.67234e-06
-2.68401e-06
-2.69568e-06
-2.70735e-06
-2.71903e-06
-2.73072e-06
-2.74241e-06
-2.75411e-06
-2.76581e-06
-2.77753e-06
-2.78925e-06
-2.80099e-06
-2.81273e-06
-2.82448e-06
-2.83625e-06
-2.84803e-06
-2.85982e-06
-2.87162e-06
-2.88344e-06
-2.89527e-06
-2.90712e-06
-2.91899e-06
-2.93087e-06
-2.94277e-06
-2.95468e-06
-2.96662e-06
-2.97857e-06
-2.99054e-06
-3.00253e-06
-3.01455e-06
-3.02658e-06
-3.03864e-06
-3.05072e-06
-3.06282e-06
-3.07494e-06
-3.0871e-06
-3.09927e-06
-3.11147e-06