# vtk DataFile Version 2.0
FlowField
ASCII
DATASET STRUCTURED_GRID
DIMENSIONS 400 1 200
POINTS 80000 float
0 0 0
0.08 0 0
0.16 0 0
0.24 0 0
0.32 0 0
0.4 0 0
0.48 0 0
0.56 0 0
0.64 0 0
0.72 0 0
0.8 0 0
0.88 0 0
0.96 0 0
1.04 0 0
1.12 0 0
1.2 0 0
1.28 0 0
1.36 0 0
1.44 0 0
1.52 0 0
1.6 0 0
1.68 0 0
1.76 0 0
1.84 0 0
1.92 0 0
2 0 0
2.08 0 0
2.16 0 0
2.24 0 0
2.32 0 0
2.4 0 0
2.48 0 0
2.56 0 0
2.64 0 0
2.72 0 0
2.8 0 0
2.88 0 0
2.96 0 0
3.04 0 0
3.12 0 0
3.2 0 0
3.28 0 0
3.36 0 0
3.44 0 0
3.52 0 0
3.6 0 0
3.68 0 0
3.76 0 0
3.84 0 0
3.92 0 0
4 0 0
4.08 0 0
4.16 0 0
4.24 0 0
4.32 0 0
4.4 0 0
4.48 0 0
4.56 0 0
4.64 0 0
4.72 0 0
4.8 0 0
4.88 0 0
4.96 0 0
5.04 0 0
5.12 0 0
5.2 0 0
5.28 0 0
5.36 0 0
5.44 0 0
5.52 0 0
5.6 0 0
5.68 0 0
5.76 0 0
5.84 0 0
5.92 0 0
6 0 0
6.08 0 0
6.16 0 0
6.24 0 0
6.32 0 0
6.4 0 0
6.48 0 0
6.56 0 0
6.64 0 0
6.72 0 0
6.8 0 0
6.88 0 0
6.96 0 0
7.04 0 0
7.12 0 0
7.2 0 0
7.28 0 0
7.36 0 0
7.44 0 0
7.52 0 0
7.6 0 0
7.68 0 0
7.76 0 0
7.84 0 0
7.92 0 0
8 0 0
8.08 0 0
8.16 0 0
8.24 0 0
8.32 0 0
8.4 0 0
8.48 0 0
8.56 0 0
8.64 0 0
8.72 0 0
8.8 0 0
8.88 0 0
8.96 0 0
9.04 0 0
9.12 0 0
9.2 0 0
9.28 0 0
9.36 0 0
9.44 0 0
9.52 0 0
9.6 0 0
9.68 0 0
9.76 0 0
9.84 0 0
9.92 0 0
10 0 0
10.08 0 0
10.16 0 0
10.24 0 0
10.32 0 0
10.4 0 0
10.48 0 0
10.56 0 0
10.64 0 0
10.72 0 0
10.8 0 0
10.88 0 0
10.96 0 0
11.04 0 0
11.12 0 0
11.2 0 0
11.28 0 0
11.36 0 0
11.44 0 0
11.52 0 0
11.6 0 0
11.68 0 0
11.76 0 0
11.84 0 0
11.92 0 0
12 0 0
12.08 0 0
12.16 0 0
12.24 0 0
12.32 0 0
12.4 0 0
12.48 0 0
12.56 0 0
12.64 0 0
12.72 0 0
12.8 0 0
12.88 0 0
12.96 0 0
13.04 0 0
13.12 0 0
13.2 0 0
13.28 0 0
13.36 0 0
13.44 0 0
13.52 0 0
13.6 0 0
13.68 0 0
13.76 0 0
13.84 0 0
13.92 0 0
14 0 0
14.08 0 0
14.16 0 0
14.24 0 0
14.32 0 0
14.4 0 0
14.48 0 0
14.56 0 0
14.64 0 0
14.72 0 0
14.8 0 0
14.88 0 0
14.96 0 0
15.04 0 0
15.12 0 0
15.2 0 0
15.28 0 0
15.36 0 0
15.44 0 0
15.52 0 0
15.6 0 0
15.68 0 0
15.76 0 0
15.84 0 0
15.92 0 0
16 0 0
16.08 0 0
16.16 0 0
16.24 0 0
16.32 0 0
16.4 0 0
16.48 0 0
16.56 0 0
16.64 0 0
16.72 0 0
16.8 0 0
16.88 0 0
16.96 0 0
17.04 0 0
17.12 0 0
17.2 0 0
17.28 0 0
17.36 0 0
17.44 0 0
17.52 0 0
17.6 0 0
17.68 0 0
17.76 0 0
17.84 0 0
17.92 0 0
18 0 0
18.08 0 0
18.16 0 0
18.24 0 0
18.32 0 0
18.4 0 0
18.48 0 0
18.56 0 0
18.64 0 0
18.72 0 0
18.8 0 0
18.88 0 0
18.96 0 0
19.04 0 0
19.12 0 0
19.2 0 0
19.28 0 0
19.36 0 0
19.44 0 0
19.52 0 0
19.6 0 0
19.68 0 0
19.76 0 0
19.84 0 0
19.92 0 0
20 0 0
20.08 0 0
20.16 0 0
20.24 0 0
20.32 0 0
20.4 0 0
20.48 0 0
20.56 0 0
20.64 0 0
20.72 0 0
20.8 0 0
20.88 0 0
20.96 0 0
21.04 0 0
21.12 0 0
21.2 0 0
21.28 0 0
21.36 0 0
21.44 0 0
21.52 0 0
21.6 0 0
21.68 0 0
21.76 0 0
21.84 0 0
21.92 0 0
22 0 0
22.08 0 0
22.16 0 0
22.24 0 0
22.32 0 0
22.4 0 0
22.48 0 0
22.56 0 0
22.64 0 0
22.72 0 0
22.8 0 0
22.88 0 0
22.96 0 0
23.04 0 0
23.12 0 0
23.2 0 0
23.28 0 0
23.36 0 0
23.44 0 0
23.52 0 0
23.6 0 0
23.68 0 0
23.76 0 0
23.84 0 0
23.92 0 0
24 0 0
24.08 0 0
24.16 0 0
24.24 0 0
24.32 0 0
24.4 0 0
24.48 0 0
24.56 0 0
24.64 0 0
24.72 0 0
24.8 0 0
24.88 0 0
24.96 0 0
25.04 0 0
25.12 0 0
25.2 0 0
25.28 0 0
25.36 0 0
25.44 0 0
25.52 0 0
25.6 0 0
25.68 0 0
25.76 0 0
25.84 0 0
25.92 0 0
26 0 0
26.08 0 0
26.16 0 0
26.24 0 0
26.32 0 0
26.4 0 0
26.48 0 0
26.56 0 0
26.64 0 0
26.72 0 0
26.8 0 0
26.88 0 0
26.96 0 0
27.04 0 0
27.12 0 0
27.2 0 0
27.28 0 0
27.36 0 0
27.44 0 0
27.52 0 0
27.6 0 0
27.68 0 0
27.76 0 0
27.84 0 0
27.92 0 0
28 0 0
28.08 0 0
28.16 0 0
28.24 0 0
28.32 0 0
28.4 0 0
28.48 0 0
28.56 0 0
28.64 0 0
28.72 0 0
28.8 0 0
28.88 0 0
28.96 0 0
29.04 0 0
29.12 0 0
29.2 0 0
29.28 0 0
29.36 0 0
29.44 0 0
29.52 0 0
29.6 0 0
29.68 0 0
29.76 0 0
29.84 0 0
29.92 0 0
30 0 0
30.08 0 0
30.16 0 0
30.24 0 0
30.32 0 0
30.4 0 0
30.48 0 0
30.56 0 0
30.64 0 0
30.72 0 0
30.8 0 0
30.88 0 0
30.96 0 0
31.04 0 0
31.12 0 0
31.2 0 0
31.28 0 0
31.36 0 0
31.44 0 0
31.52 0 0
31.6 0 0
31.68 0 0
31.76 0 0
31.84 0 0
31.92 0 0
0 0.005 0
0.08 0.005 0
0.16 0.005 0
0.24 0.005 0
0.32 0.005 0
0.4 0.005 0
0.48 0.005 0
0.56 0.005 0
0.64 0.005 0
0.72 0.005 0
0.8 0.005 0
0.88 0.005 0
0.96 0.005 0
1.04 0.005 0
1.12 0.005 0
1.2 0.005 0
1.28 0.005 0
1.36 0.005 0
1.44 0.005 0
1.52 0.005 0
1.6 0.005 0
1.68 0.005 0
1.76 0.005 0
1.84 0.005 0
1.92 0.005 0
2 0.005 0
2.08 0.005 0
2.16 0.005 0
2.24 0.005 0
2.32 0.005 0
2.4 0.005 0
2.48 0.005 0
2.56 0.005 0
2.64 0.005 0
2.72 0.005 0
2.8 0.005 0
2.88 0.005 0
2.96 0.005 0
3.04 0.005 0
3.12 0.005 0
3.2 0.005 0
3.28 0.005 0
3.36 0.005 0
3.44 0.005 0
3.52 0.005 0
3.6 0.005 0
3.68 0.005 0
3.76 0.005 0
3.84 0.005 0
3.92 0.005 0
4 0.005 0
4.08 0.005 0
4.16 0.005 0
4.24 0.005 0
4.32 0.005 0
4.4 0.005 0
4.48 0.005 0
4.56 0.005 0
4.64 0.005 0
4.72 0.005 0
4.8 0.005 0
4.88 0.005 0
4.96 0.005 0
5.04 0.005 0
5.12 0.005 0
5.2 0.005 0
5.28 0.005 0
5.36 0.005 0
5.44 0.005 0
5.52 0.005 0
5.6 0.005 0
5.68 0.005 0
5.76 0.005 0
5.84 0.005 0
5.92 0.005 0
6 0.005 0
6.08 0.005 0
6.16 0.005 0
6.24 0.005 0
6.32 0.005 0
6.4 0.005 0
6.48 0.005 0
6.56 0.005 0
6.64 0.005 0
6.72 0.005 0
6.8 0.005 0
6.88 0.005 0
6.96 0.005 0
7.04 0.005 0
7.12 0.005 0
7.2 0.005 0
7.28 0.005 0
7.36 0.005 0
7.44 0.005 0
7.52 0.005 0
7.6 0.005 0
7.68 0.005 0
7.76 0.005 0
7.84 0.005 0
7.92 0.005 0
8 0.005 0
8.08 0.005 0
8.16 0.005 0
8.24 0.005 0
8.32 0.005 0
8.4 0.005 0
8.48 0.005 0
8.56 0.005 0
8.64 0.005 0
8.72 0.005 0
8.8 0.005 0
8.88 0.005 0
8.96 0.005 0
9.04 0.005 0
9.12 0.005 0
9.2 0.005 0
9.28 0.005 0
9.36 0.005 0
9.44 0.005 0
9.52 0.005 0
9.6 0.005 0
9.68 0.005 0
9.76 0.005 0
9.84 0.005 0
9.92 0.005 0
10 0.005 0
10.08 0.005 0
10.16 0.005 0
10.24 0.005 0
10.32 0.005 0
10.4 0.005 0
10.48 0.005 0
10.56 0.005 0
10.64 0.005 0
10.72 0.005 0
10.8 0.005 0
10.88 0.005 0
10.96 0.005 0
11.04 0.005 0
11.12 0.005 0
11.2 0.005 0
11.28 0.005 0
11.36 0.005 0
11.44 0.005 0
11.52 0.005 0
11.6 0.005 0
11.68 0.005 0
11.76 0.005 0
11.84 0.005 0
11.92 0.005 0
12 0.005 0
12.08 0.005 0
12.16 0.005 0
12.24 0.005 0
12.32 0.005 0
12.4 0.005 0
12.48 0.005 0
12.56 0.005 0
12.64 0.005 0
12.72 0.005 0
12.8 0.005 0
12.88 0.005 0
12.96 0.005 0
13.04 0.005 0
13.12 0.005 0
13.2 0.005 0
13.28 0.005 0
13.36 0.005 0
13.44 0.005 0
13.52 0.005 0
13.6 0.005 0
13.68 0.005 0
13.76 0.005 0
13.84 0.005 0
13.92 0.005 0
14 0.005 0
14.08 0.005 0
14.16 0.005 0
14.24 0.005 0
14.32 0.005 0
14.4 0.005 0
14.48 0.005 0
14.56 0.005 0
14.64 0.005 0
14.72 0.005 0
14.8 0.005 0
14.88 0.005 0
14.96 0.005 0
15.04 0.005 0
15.12 0.005 0
15.2 0.005 0
15.28 0.005 0
15.36 0.005 0
15.44 0.005 0
15.52 0.005 0
15.6 0.005 0
15.68 0.005 0
15.76 0.005 0
15.84 0.005 0
15.92 0.005 0
16 0.005 0
16.08 0.005 0
16.16 0.005 0
16.24 0.005 0
16.32 0.005 0
16.4 0.005 0
16.48 0.005 0
16.56 0.005 0
16.64 0.005 0
16.72 0.005 0
16.8 0.005 0
16.88 0.005 0
16.96 0.005 0
17.04 0.005 0
17.12 0.005 0
17.2 0.005 0
17.28 0.005 0
17.36 0.005 0
17.44 0.005 0
17.52 0.005 0
17.6 0.005 0
17.68 0.005 0
17.76 0.005 0
17.84 0.005 0
17.92 0.005 0
18 0.005 0
18.08 0.005 0
18.16 0.005 0
18.24 0.005 0
18.32 0.005 0
18.4 0.005 0
18.48 0.005 0
18.56 0.005 0
18.64 0.005 0
18.72 0.005 0
18.8 0.005 0
18.88 0.005 0
18.96 0.005 0
19.04 0.005 0
19.12 0.005 0
19.2 0.005 0
19.28 0.005 0
19.36 0.005 0
19.44 0.005 0
19.52 0.005 0
19.6 0.005 0
19.68 0.005 0
19.76 0.005 0
19.84 0.005 0
19.92 0.005 0
20 0.005 0
20.08 0.005 0
20.16 0.005 0
20.24 0.005 0
20.32 0.005 0
20.4 0.005 0
20.48 0.005 0
20.56 0.005 0
20.64 0.005 0
20.72 0.005 0
20.8 0.005 0
20.88 0.005 0
20.96 0.005 0
21.04 0.005 0
21.12 0.005 0
21.2 0.005 0
21.28 0.005 0
21.36 0.005 0
21.44 0.005 0
21.52 0.005 0
21.6 0.005 0
21.68 0.005 0
21.76 0.005 0
21.84 0.005 0
21.92 0.005 0
22 0.005 0
22.08 0.005 0
22.16 0.005 0
22.24 0.005 0
22.32 0.005 0
22.4 0.005 0
22.48 0.005 0
22.56 0.005 0
22.64 0.005 0
22.72 0.005 0
22.8 0.005 0
22.88 0.005 0
22.96 0.005 0
23.04 0.005 0
23.12 0.005 0
23.2 0.005 0
23.28 0.005 0
23.36 0.005 0
23.44 0.005 0
23.52 0.005 0
23.6 0.005 0
23.68 0.005 0
23.76 0.005 0
23.84 0.005 0
23.92 0.005 0
24 0.005 0
24.08 0.005 0
24.16 0.005 0
24.24 0.005 0
24.32 0.005 0
24.4 0.005 0
24.48 0.005 0
24.56 0.005 0
24.64 0.005 0
24.72 0.005 0
24.8 0.005 0
24.88 0.005 0
24.96 0.005 0
25.04 0.005 0
25.12 0.005 0
25.2 0.005 0
25.28 0.005 0
25.36 0.005 0
25.44 0.005 0
25.52 0.005 0
25.6 0.005 0
25.68 0.005 0
25.76 0.005 0
25.84 0.005 0
25.92 0.005 0
26 0.005 0
26.08 0.005 0
26.16 0.005 0
26.24 0.005 0
26.32 0.005 0
26.4 0.005 0
26.48 0.005 0
26.56 0.005 0
26.64 0.005 0
26.72 0.005 0
26.8 0.005 0
26.88 0.005 0
26.96 0.005 0
27.04 0.005 0
27.12 0.005 0
27.2 0.005 0
27.28 0.005 0
27.36 0.005 0
27.44 0.005 0
27.52 0.005 0
27.6 0.005 0
27.68 0.005 0
27.76 0.005 0
27.84 0.005 0
27.92 0.005 0
28 0.005 0
28.08 0.005 0
28.16 0.005 0
28.24 0.005 0
28.32 0.005 0
28.4 0.005 0
28.48 0.005 0
28.56 0.005 0
28.64 0.005 0
28.72 0.005 0
28.8 0.005 0
28.88 0.005 0
28.96 0.005 0
29.04 0.005 0
29.12 0.005 0
29.2 0.005 0
29.28 0.005 0
29.36 0.005 0
29.44 0.005 0
29.52 0.005 0
29.6 0.005 0
29.68 0.005 0
29.76 0.005 0
29.84 0.005 0
29.92 0.005 0
30 0.005 0
30.08 0.005 0
30.16 0.005 0
30.24 0.005 0
30.32 0.005 0
30.4 0.005 0
30.48 0.005 0
30.56 0.005 0
30.64 0.005 0
30.72 0.005 0
30.8 0.005 0
30.88 0.005 0
30.96 0.005 0
31.04 0.005 0
31.12 0.005 0
31.2 0.005 0
31.28 0.005 0
31.36 0.005 0
31.44 0.005 0
31.52 0.005 0
31.6 0.005 0
31.68 0.005 0
31.76 0.005 0
31.84 0.005 0
31.92 0.005 0
0 0.01 0
0.08 0.01 0
0.16 0.01 0
0.24 0.01 0
0.32 0.01 0
0.4 0.01 0
0.48 0.01 0
0.56 0.01 0
0.64 0.01 0
0.72 0.01 0
0.8 0.01 0
0.88 0.01 0
0.96 0.01 0
1.04 0.01 0
1.12 0.01 0
1.2 0.01 0
1.28 0.01 0
1.36 0.01 0
1.44 0.01 0
1.52 0.01 0
1.6 0.01 0
1.68 0.01 0
1.76 0.01 0
1.84 0.01 0
1.92 0.01 0
2 0.01 0
2.08 0.01 0
2.16 0.01 0
2.24 0.01 0
2.32 0.01 0
2.4 0.01 0
2.48 0.01 0
2.56 0.01 0
2.64 0.01 0
2.72 0.01 0
2.8 0.01 0
2.88 0.01 0
2.96 0.01 0
3.04 0.01 0
3.12 0.01 0
3.2 0.01 0
3.28 0.01 0
3.36 0.01 0
3.44 0.01 0
3.52 0.01 0
3.6 0.01 0
3.68 0.01 0
3.76 0.01 0
3.84 0.01 0
3.92 0.01 0
4 0.01 0
4.08 0.01 0
4.16 0.01 0
4.24 0.01 0
4.32 0.01 0
4.4 0.01 0
4.48 0.01 0
4.56 0.01 0
4.64 0.01 0
4.72 0.01 0
4.8 0.01 0
4.88 0.01 0
4.96 0.01 0
5.04 0.01 0
5.12 0.01 0
[...]
POINT_DATA 80000

SCALARS v float 1
LOOKUP_TABLE default
0
0
0
0
0
0
0
0
0
0
0
0
0
0
0
0
0
0
0
0
0
0
0
0
0
0
0
0
0
0
0
0
0
0
0
0
0
0
0
0
0
0
0
0
0
0
0
0
0
0
0
0
0
0
0
0
0
0
0
0
0
0
0
0
0
0
0
0
0
0
0
0
0
0
0
0
0
0
0
0
0
0
0
0
0
0
0
0
0
0
0
0
0
0
0
0
0
0
0
0
0
0
0
0
0
0
0
0
0
0
0
0
0
0
0
0
0
0
0
0
0
0
0
0
0
0
0
0
0
0
0
0
0
0
0
0
0
0
0
0
0
0
0
0
0
0
0
0
0
0
0
0
0
0
0
0
0
0
0
0
0
0
0
0
0
0
0
0
0
0
0
0
0
0
0
0
0
0
0
0
0
0
0
0
0
0
0
0
0
0
0
0
0
0
0
0
0
0
0
0
0
0
0
0
0
0
0
0
0
0
0
0
0
0
0
0
0
0
0
0
0
0
0
0
0
0
0
0
0
0
0
0
0
0
0
0
0
0
0
0
0
0
0
0
0
0
0
0
0
0
0
0
0
0
0
0
0
0
0
0
0
0
0
0
0
0
0
0
0
0
0
0
0
0
0
0
0
0
0
0
0
0
0
0
0
0
0
0
0
0
0
0
0
0
0
0
0
0
0
0
0
0
0
0
0
0
0
0
0
0
0
0
0
0
0
0
0
0
0
0
0
0
0
0
0
0
0
0
0
0
0
0
0
0
0
0
0
0
0
0
0
0
0
0
0
0
0
0
0
0
0
0
0
0
0
0
0
0
0
0
0
0
0
0
0
0
0
0
0
0
0
0
0
0
0
0
0
0
0
0
0
0
0
0
0
0
0
0
0
0
0
0
0
0
0
0
0
0
0
0
-0.0542675
0.0542675
0.00395844
0.000994604
0.000488462
0.000298837
0.000203311
0.000147428
0.000111769
8.76224e-05
7.02994e-05
5.72385e-05
4.7276e-05
3.9789e-05
3.39437e-05
2.86375e-05
2.30435e-05
1.70891e-05
1.13796e-05
6.66824e-06
3.34233e-06
1.26942e-06
-8.68489e-09
-9.73756e-07
-1.93105e-06
-2.97135e-06
-4.04065e-06
-5.03612e-06
-5.87539e-06
-6.5247e-06
-6.99548e-06
-7.32607e-06
-7.56254e-06
-7.74535e-06
-7.9036e-06
-8.0547e-06
-8.20696e-06
-8.36282e-06
-8.52166e-06
-8.68166e-06
-8.84079e-06
-8.9973e-06
-9.14984e-06
-9.2974e-06
-9.43924e-06
-9.57482e-06
-9.70369e-06
-9.8255e-06
-9.93994e-06
-1.00467e-05
-1.01456e-05
-1.02363e-05
-1.03187e-05
-1.03926e-05
-1.04578e-05
-1.05143e-05
-1.05617e-05
-1.06002e-05
-1.06296e-05
-1.06499e-05
-1.06611e-05
-1.06632e-05
-1.06562e-05
-1.06401e-05
-1.06151e-05
-1.05812e-05
-1.05386e-05
-1.04873e-05
-1.04276e-05
-1.03597e-05
-1.02837e-05
-1.01998e-05
-1.01083e-05
-1.00093e-05
-9.90328e-06
-9.79035e-06
-9.67083e-06
-9.54501e-06
-9.41319e-06
-9.27566e-06
-9.13276e-06
-8.98479e-06
-8.83209e-06
-8.67497e-06
-8.51377e-06
-8.34882e-06
-8.18045e-06
-8.00899e-06
-7.83476e-06
-7.65809e-06
-7.47931e-06
-7.29872e-06
-7.11664e-06
-6.93337e-06
-6.74921e-06
-6.56445e-06
-6.37936e-06
-6.19422e-06
-6.0093e-06
-5.82483e-06
-5.64107e-06
-5.45825e-06
-5.27658e-06
-5.09628e-06
-4.91754e-06
-4.74054e-06
-4.56547e-06
-4.39248e-06
-4.22173e-06
-4.05335e-06
-3.88747e-06
-3.72421e-06
-3.56367e-06
-3.40595e-06
-3.25114e-06
-3.0993e-06
-2.95049e-06
-2.80478e-06
-2.66221e-06
-2.5228e-06
-2.38659e-06
-2.2536e-06
-2.12383e-06
-1.99728e-06
-1.87396e-06
-1.75385e-06
-1.63693e-06
-1.52318e-06
-1.41257e-06
-1.30506e-06
-1.20062e-06
-1.09921e-06
-1.00077e-06
-9.05258e-07
-8.12621e-07
-7.22801e-07
-6.35741e-07
-5.51379e-07
-4.69655e-07
-3.90502e-07
-3.13858e-07
-2.39656e-07
-1.6783e-07
-9.83126e-08
-3.10382e-08
3.40622e-08
9.7053e-08
1.58003e-07
2.16975e-07
2.74037e-07
3.29251e-07
3.82683e-07
4.34391e-07
4.84441e-07
5.32888e-07
5.79794e-07
6.25213e-07
6.69204e-07
7.11818e-07
7.53111e-07
7.93131e-07
8.31929e-07
8.69553e-07
9.06049e-07
9.41462e-07
9.75836e-07
1.00921e-06
1.04163e-06
1.07313e-06
1.10375e-06
1.13352e-06
1.16248e-06
1.19066e-06
1.2181e-06
1.24482e-06
1.27086e-06
1.29623e-06
1.32097e-06
1.34511e-06
1.36866e-06
1.39165e-06
1.41411e-06
1.43605e-06
1.4575e-06
1.47847e-06
1.49898e-06
1.51905e-06
1.5387e-06
1.55794e-06
1.5768e-06
1.59527e-06
1.61339e-06
1.63115e-06
1.64858e-06
1.66568e-06
1.68248e-06
1.69897e-06
1.71517e-06
1.73109e-06
1.74674e-06
1.76213e-06
1.77726e-06
1.79216e-06
1.80681e-06
1.82124e-06
1.83545e-06
1.84945e-06
1.86324e-06
1.87683e-06
1.89023e-06
1.90344e-06
1.91646e-06
1.92932e-06
1.942e-06
1.95452e-06
1.96688e-06
1.97908e-06
1.99114e-06
2.00305e-06
2.01481e-06
2.02644e-06
2.03794e-06
2.04931e-06
2.06055e-06
2.07167e-06
2.08267e-06
2.09356e-06
2.10434e-06
2.115e-06
2.12557e-06
2.13603e-06
2.14639e-06
2.15666e-06
2.16683e-06
2.17691e-06
2.18691e-06
2.19682e-06
2.20665e-06
2.21639e-06
2.22606e-06
2.23565e-06
2.24518e-06
2.25462e-06
2.264e-06
2.27332e-06
2.28256e-06
2.29175e-06
2.30087e-06
2.30994e-06
2.31895e-06
2.3279e-06
2.3368e-06
2.34565e-06
2.35445e-06
2.3632e-06
2.3719e-06
2.38056e-06
2.38917e-06
2.39774e-06
2.40628e-06
2.41477e-06
2.42323e-06
2.43164e-06
2.44003e-06
2.44838e-06
2.4567e-06
2.46499e-06
2.47326e-06
2.48149e-06
2.4897e-06
2.49788e-06
2.50603e-06
2.51417e-06
2.52228e-06
2.53037e-06
2.53845e-06
2.5465e-06
2.55454e-06
2.56256e-06
2.57057e-06
2.57856e-06
2.58655e-06
2.59451e-06
2.60247e-06
2.61042e-06
2.61836e-06
2.62629e-06
2.63422e-06
2.64214e-06
2.65006e-06
2.65797e-06
2.66588e-06
2.67378e-06
2.68169e-06
2.68959e-06
2.6975e-06
2.70541e-06
2.71332e-06
2.72123e-06
2.72914e-06
2.73706e-06
2.74499e-06
2.75292e-06
2.76086e-06
2.76881e-06
2.77677e-06
2.78473e-06
2.79271e-06
2.8007e-06
2.80869e-06
2.8167e-06
2.82473e-06
2.83276e-06
2.84082e-06
2.84888e-06
2.85696e-06
2.86506e-06
2.87318e-06
2.88131e-06
2.88947e-06
2.89764e-06
2.90583e-06
2.91404e-06
2.92227e-06
2.93053e-06
2.9388e-06
2.9471e-06
2.95543e-06
2.96378e-06
2.97215e-06
2.98055e-06
2.98898e-06
2.99743e-06
3.00591e-06
3.01442e-06
3.02296e-06
3.03153e-06
3.04012e-06
3.04875e-06
3.05742e-06
3.06611e-06
3.07484e-06
3.0836e-06
3.0924e-06
3.10123e-06
3.1101e-06
3.119e-06
3.12794e-06
3.13692e-06
3.14595e-06
3.15501e-06
3.16411e-06
3.17325e-06
3.18243e-06
3.19166e-06
3.20093e-06
3.21025e-06
3.21961e-06
3.22902e-06
3.23848e-06
3.24798e-06
3.25753e-06
3.26713e-06
3.27679e-06
3.28649e-06
3.29624e-06
3.30605e-06
3.31592e-06
3.32583e-06
3.33581e-06
3.34584e-06
3.35592e-06
3.36608e-06
3.37625e-06
3.38661e-06
3.3967e-06
3.40765e-06
3.4168e-06
3.43016e-06
3.43487e-06
3.45694e-06
3.4467e-06
3.49347e-06
3.44655e-06
3.54355e-06
3.43573e-06
3.59765e-06
3.43209e-06
3.63398e-06
3.45149e-06
3.65008e-06
3.48461e-06
3.64142e-06
3.58654e-06
3.47181e-06
3.93875e-06
3.10081e-06
4.68099e-06
3.64225e-06
3.64225e-06
-0.0952121
0.0952121
0.0129717
0.00385048
0.00193
0.00119177
0.000816853
0.000596595
0.000455685
0.000360057
0.000291379
0.000239702
0.000200413
0.000170827
0.000147462
0.000126062
0.000103696
8.03667e-05
5.84804e-05
4.07698e-05
2.84616e-05
2.08593e-05
1.61606e-05
1.25834e-05
9.05608e-06
5.3024e-06
1.55258e-06
-1.81562e-06
-4.52191e-06
-6.47298e-06
-7.73895e-06
-8.48117e-06
-8.88078e-06
-9.09204e-06
-9.22352e-06
-9.33917e-06
-9.46913e-06
-9.62226e-06
-9.79657e-06
-9.98592e-06
-1.01837e-05
-1.03845e-05
-1.05843e-05
-1.07804e-05
-1.09709e-05
-1.11549e-05
-1.13314e-05
-1.15001e-05
-1.16603e-05
-1.18119e-05
-1.19545e-05
-1.20877e-05
-1.22115e-05
-1.23254e-05
-1.24294e-05
-1.25233e-05
-1.26068e-05
-1.26799e-05
-1.27425e-05
-1.27944e-05
-1.28357e-05
-1.28662e-05
-1.2886e-05
-1.28952e-05
-1.28937e-05
-1.28817e-05
-1.28592e-05
-1.28263e-05
-1.27833e-05
-1.27303e-05
-1.26674e-05
-1.25949e-05
-1.25131e-05
-1.24221e-05
-1.23222e-05
-1.22137e-05
-1.20969e-05
-1.19722e-05
-1.18397e-05
-1.17e-05
-1.15532e-05
-1.13998e-05
-1.12402e-05
-1.10746e-05
-1.09035e-05
-1.07272e-05
-1.05461e-05
-1.03605e-05
-1.0171e-05
-9.97771e-06
-9.78116e-06
-9.58166e-06
-9.3796e-06
-9.17532e-06
-8.96917e-06
-8.7615e-06
-8.55264e-06
-8.34292e-06
-8.13266e-06
-7.92215e-06
-7.71171e-06
-7.50161e-06
-7.29212e-06
-7.08351e-06
-6.87603e-06
-6.66991e-06
-6.46538e-06
-6.26264e-06
-6.06191e-06
-5.86335e-06
-5.66714e-06
-5.47345e-06
-5.28242e-06
-5.09419e-06
-4.90887e-06
-4.72657e-06
-4.54741e-06
-4.37145e-06
-4.19878e-06
-4.02946e-06
-3.86354e-06
-3.70108e-06
-3.5421e-06
-3.38662e-06
-3.23468e-06
-3.08627e-06
-2.94139e-06
-2.80004e-06
-2.6622e-06
-2.52785e-06
-2.39698e-06
-2.26953e-06
-2.14548e-06
-2.02478e-06
-1.90739e-06
-1.79325e-06
-1.68231e-06
-1.57452e-06
-1.46982e-06
-1.36813e-06
-1.2694e-06
-1.17357e-06
-1.08055e-06
-9.90293e-07
-9.02721e-07
-8.17758e-07
-7.35343e-07
-6.55396e-07
-5.77854e-07
-5.02639e-07
-4.29689e-07
-3.58926e-07
-2.90289e-07
-2.23703e-07
-1.59108e-07
-9.643e-08
-3.56137e-08
2.34136e-08
8.07046e-08
1.36329e-07
1.90337e-07
2.42795e-07
2.93749e-07
3.43264e-07
3.91383e-07
4.38167e-07
4.83655e-07
5.27906e-07
5.70956e-07
6.12859e-07
6.5365e-07
6.9338e-07
7.32078e-07
7.69795e-07
8.06557e-07
8.42409e-07
8.77378e-07
9.11504e-07
9.44812e-07
9.77341e-07
1.00911e-06
1.04016e-06
1.0705e-06
1.10018e-06
1.1292e-06
1.1576e-06
1.18539e-06
1.21261e-06
1.23927e-06
1.26539e-06
1.29098e-06
1.31608e-06
1.34069e-06
1.36484e-06
1.38853e-06
1.41179e-06
1.43462e-06
1.45706e-06
1.47909e-06
1.50075e-06
1.52204e-06
1.54298e-06
1.56357e-06
1.58383e-06
1.60377e-06
1.6234e-06
1.64272e-06
1.66175e-06
1.6805e-06
1.69898e-06
1.71718e-06
1.73514e-06
1.75283e-06
1.77029e-06
1.78752e-06
1.80451e-06
1.82128e-06
1.83785e-06
1.85419e-06
1.87034e-06
1.88629e-06
1.90206e-06
1.91763e-06
1.93303e-06
1.94825e-06
1.9633e-06
1.97819e-06
1.99291e-06
2.00748e-06
2.02191e-06
2.03618e-06
2.05031e-06
2.0643e-06
2.07816e-06
2.09189e-06
2.10549e-06
2.11897e-06
2.13233e-06
2.14557e-06
2.15871e-06
2.17172e-06
2.18464e-06
2.19745e-06
2.21017e-06
2.22278e-06
2.2353e-06
2.24773e-06
2.26008e-06
2.27233e-06
2.28451e-06
2.2966e-06
2.30862e-06
2.32055e-06
2.33242e-06
2.34422e-06
2.35595e-06
2.36761e-06
2.37922e-06
2.39075e-06
2.40224e-06
2.41366e-06
2.42503e-06
2.43634e-06
2.44761e-06
2.45883e-06
2.47e-06
2.48112e-06
2.49221e-06
2.50325e-06
2.51425e-06
2.52521e-06
2.53614e-06
2.54704e-06
2.5579e-06
2.56873e-06
2.57954e-06
2.59031e-06
2.60107e-06
2.61179e-06
2.6225e-06
2.63318e-06
2.64384e-06
2.65449e-06
2.66512e-06
2.67573e-06
2.68633e-06
2.69692e-06
2.7075e-06
2.71806e-06
2.72862e-06
2.73917e-06
2.74972e-06
2.76026e-06
2.7708e-06
2.78134e-06
2.79188e-06
2.80241e-06
2.81296e-06
2.8235e-06
2.83405e-06
2.8446e-06
2.85516e-06
2.86573e-06
2.8763e-06
2.88689e-06
2.89749e-06
2.9081e-06
2.91872e-06
2.92936e-06
2.94001e-06
2.95068e-06
2.96137e-06
2.97207e-06
2.9828e-06
2.99354e-06
3.00431e-06
3.0151e-06
3.02591e-06
3.03675e-06
3.04761e-06
3.0585e-06
3.06942e-06
3.08036e-06
3.09134e-06
3.10235e-06
3.11339e-06
3.12445e-06
3.13556e-06
3.14669e-06
3.15787e-06
3.16907e-06
3.18032e-06
3.19161e-06
3.20293e-06
3.21429e-06
3.2257e-06
3.23714e-06
3.24864e-06
3.26017e-06
3.27175e-06
3.28337e-06
3.29505e-06
3.30677e-06
3.31854e-06
3.33036e-06
3.34223e-06
3.35415e-06
3.36613e-06
3.37816e-06
3.39025e-06
3.40239e-06
3.41459e-06
3.42685e-06
3.43917e-06
3.45154e-06
3.46399e-06
3.47649e-06
3.48906e-06
3.50169e-06
3.51439e-06
3.52715e-06
3.53998e-06
3.55288e-06
3.56586e-06
3.5789e-06
3.59202e-06
3.6052e-06
3.61847e-06
3.63181e-06
3.64522e-06
3.65872e-06
3.67228e-06
3.68597e-06
3.69958e-06
3.71372e-06
3.72678e-06
3.74277e-06
3.7522e-06
3.77648e-06
3.76971e-06
3.82513e-06
3.76379e-06
3.90913e-06
3.71254e-06
4.04372e-06
3.61921e-06
4.195e-06
3.54974e-06
4.28014e-06
3.56672e-06
4.28675e-06
3.63459e-06
4.20592e-06
3.94535e-06
3.53753e-06
5.19121e-06
2.08787e-06
7.85281e-06
4.06623e-06
4.06623e-06
-0.125289
0.125289
0.0249318
0.00835349
0.00427315
0.00265646
0.00182768
0.00133853
0.00102466
0.000811133
0.000657532
0.000541998
0.000454232
0.000387905
0.000335016
0.000286284
0.000235711
0.000183722
0.000135649
9.71729e-05
7.05587e-05
5.40115e-05
4.35566e-05
3.54293e-05
2.74541e-05
1.91381e-05
1.10134e-05
3.87233e-06
-1.73247e-06
-5.65395e-06
-8.0843e-06
-9.39481e-06
-9.98493e-06
-1.01872e-05
-1.02318e-05
-1.02523e-05
-1.03105e-05
-1.04236e-05
-1.05867e-05
-1.07867e-05
-1.10099e-05
-1.1245e-05
-1.14843e-05
-1.17224e-05
-1.19561e-05
-1.21834e-05
-1.24031e-05
-1.26146e-05
-1.28172e-05
-1.30106e-05
-1.31945e-05
-1.33685e-05
-1.35324e-05
-1.36859e-05
-1.38288e-05
-1.39609e-05
-1.4082e-05
-1.41919e-05
-1.42905e-05
-1.43776e-05
-1.44533e-05
-1.45174e-05
-1.45699e-05
-1.46107e-05
-1.464e-05
-1.46577e-05
-1.46639e-05
-1.46587e-05
-1.46423e-05
-1.46148e-05
-1.45763e-05
-1.4527e-05
-1.44671e-05
-1.4397e-05
-1.43168e-05
-1.42268e-05
-1.41272e-05
-1.40185e-05
-1.39008e-05
-1.37746e-05
-1.36402e-05
-1.34979e-05
-1.33482e-05
-1.31912e-05
-1.30276e-05
-1.28575e-05
-1.26815e-05
-1.24999e-05
-1.23131e-05
-1.21214e-05
-1.19254e-05
-1.17254e-05
-1.15217e-05
-1.13147e-05
-1.11049e-05
-1.08925e-05
-1.06781e-05
-1.04618e-05
-1.02441e-05
-1.00253e-05
-9.80578e-06
-9.58577e-06
-9.36563e-06
-9.14563e-06
-8.92608e-06
-8.70723e-06
-8.48936e-06
-8.27269e-06
-8.05747e-06
-7.84392e-06
-7.63225e-06
-7.42263e-06
-7.21528e-06
-7.01033e-06
-6.80796e-06
-6.6083e-06
-6.41148e-06
-6.21762e-06
-6.02683e-06
-5.83919e-06
-5.65479e-06
-5.4737e-06
-5.296e-06
-5.12171e-06
-4.95089e-06
-4.78355e-06
-4.61975e-06
-4.45947e-06
-4.30274e-06
-4.14953e-06
-3.99986e-06
-3.8537e-06
-3.71104e-06
-3.57184e-06
-3.43608e-06
-3.30371e-06
-3.1747e-06
-3.04899e-06
-2.92655e-06
-2.80731e-06
-2.69122e-06
-2.57822e-06
-2.46826e-06
-2.36127e-06
-2.25718e-06
-2.15593e-06
-2.05746e-06
-1.96169e-06
-1.86856e-06
-1.778e-06
-1.68995e-06
-1.60432e-06
-1.52107e-06
-1.44011e-06
-1.36139e-06
-1.28483e-06
-1.21037e-06
-1.13795e-06
-1.0675e-06
-9.98957e-07
-9.32272e-07
-8.67366e-07
-8.04201e-07
-7.427e-07
-6.82827e-07
-6.24508e-07
-5.6771e-07
-5.12362e-07
-4.58434e-07
-4.05857e-07
-3.54605e-07
-3.04612e-07
-2.55854e-07
-2.08268e-07
-1.61834e-07
-1.16492e-07
-7.22229e-08
-2.89706e-08
1.32814e-08
5.45867e-08
9.49592e-08
1.3445e-07
1.73071e-07
2.1087e-07
2.47858e-07
2.84079e-07
3.19543e-07
3.54293e-07
3.88334e-07
4.21709e-07
4.54421e-07
4.86512e-07
5.17982e-07
5.48872e-07
5.7918e-07
6.08946e-07
6.38166e-07
6.66879e-07
6.9508e-07
7.22806e-07
7.50051e-07
7.76851e-07
8.03199e-07
8.29129e-07
8.54634e-07
8.79747e-07
9.0446e-07
9.28805e-07
9.52773e-07
9.76394e-07
9.99661e-07
1.0226e-06
1.04521e-06
1.06751e-06
1.08949e-06
1.11118e-06
1.13258e-06
1.1537e-06
1.17454e-06
1.19513e-06
1.21544e-06
1.23552e-06
1.25534e-06
1.27494e-06
1.2943e-06
1.31344e-06
1.33236e-06
1.35107e-06
1.36958e-06
1.38789e-06
1.40599e-06
1.42392e-06
1.44166e-06
1.45923e-06
1.47662e-06
1.49384e-06
1.5109e-06
1.52781e-06
1.54455e-06
1.56115e-06
1.5776e-06
1.59392e-06
1.61009e-06
1.62614e-06
1.64204e-06
1.65784e-06
1.6735e-06
1.68906e-06
1.70449e-06
1.71982e-06
1.73503e-06
1.75015e-06
1.76516e-06
1.78008e-06
1.7949e-06
1.80963e-06
1.82427e-06
1.83884e-06
1.85331e-06
1.86771e-06
1.88203e-06
1.89628e-06
1.91045e-06
1.92457e-06
1.93861e-06
1.95259e-06
1.96651e-06
1.98037e-06
1.99418e-06
2.00794e-06
2.02163e-06
2.0353e-06
2.0489e-06
2.06247e-06
2.07599e-06
2.08948e-06
2.10292e-06
2.11634e-06
2.12971e-06
2.14307e-06
2.15638e-06
2.16968e-06
2.18294e-06
2.19619e-06
2.20941e-06
2.22262e-06
2.2358e-06
2.24898e-06
2.26214e-06
2.27529e-06
2.28842e-06
2.30155e-06
2.31467e-06
2.32779e-06
2.3409e-06
2.35402e-06
2.36713e-06
2.38025e-06
2.39336e-06
2.40649e-06
2.41961e-06
2.43275e-06
2.4459e-06
2.45906e-06
2.47223e-06
2.48542e-06
2.49861e-06
2.51184e-06
2.52507e-06
2.53833e-06
2.5516e-06
2.56491e-06
2.57823e-06
2.59158e-06
2.60495e-06
2.61836e-06
2.63179e-06
2.64527e-06
2.65876e-06
2.6723e-06
2.68586e-06
2.69947e-06
2.71311e-06
2.72679e-06
2.74051e-06
2.75428e-06
2.76808e-06
2.78194e-06
2.79583e-06
2.80978e-06
2.82376e-06
2.83781e-06
2.8519e-06
2.86605e-06
2.88024e-06
2.8945e-06
2.9088e-06
2.92318e-06
2.9376e-06
2.95209e-06
2.96663e-06
2.98125e-06
2.99592e-06
3.01066e-06
3.02547e-06
3.04035e-06
3.05529e-06
3.07031e-06
3.08539e-06
3.10056e-06
3.11579e-06
3.13111e-06
3.14649e-06
3.16197e-06
3.17751e-06
3.19315e-06
3.20886e-06
3.22466e-06
3.24054e-06
3.25652e-06
3.27257e-06
3.28872e-06
3.30496e-06
3.32129e-06
3.33771e-06
3.35423e-06
3.37083e-06
3.38754e-06
3.40434e-06
3.42124e-06
3.43825e-06
3.45532e-06
3.47261e-06
3.48966e-06
3.50774e-06
3.52354e-06
3.54531e-06
3.55346e-06
3.59227e-06
3.56658e-06
3.67028e-06
3.53002e-06
3.82287e-06
3.39648e-06
4.08391e-06
3.17077e-06
4.38331e-06
2.99272e-06
4.54243e-06
3.00031e-06
4.53077e-06
3.11616e-06
4.34073e-06
3.73042e-06
2.91972e-06
6.3328e-06
-1.98001e-07
1.18505e-05
3.97229e-06
3.97229e-06
-0.146484
0.146484
0.0383061
0.014229
0.00745042
0.00466679
0.00322283
0.00236575
0.00181388
0.00143739
0.00116607
0.000961968
0.000806927
0.000689327
0.000594775
0.000507271
0.000417043
0.00032541
0.000241671
0.000175199
0.000129306
0.000100502
8.18719e-05
6.7103e-05
5.26767e-05
3.79001e-05
2.37321e-05
1.14916e-05
2.04531e-06
-4.43629e-06
-8.34282e-06
-1.03441e-05
-1.11365e-05
-1.12889e-05
-1.11895e-05
-1.10603e-05
-1.10021e-05
-1.10418e-05
-1.11694e-05
-1.13624e-05
-1.15977e-05
-1.18568e-05
-1.21265e-05
-1.23986e-05
-1.26678e-05
-1.29311e-05
-1.31871e-05
-1.34345e-05
-1.3673e-05
-1.39019e-05
-1.41211e-05
-1.43302e-05
-1.45289e-05
-1.4717e-05
-1.48943e-05
-1.50605e-05
-1.52154e-05
-1.53589e-05
-1.54908e-05
-1.56109e-05
-1.57191e-05
-1.58155e-05
-1.58998e-05
-1.59721e-05
-1.60324e-05
-1.60806e-05
-1.61169e-05
-1.61412e-05
-1.61537e-05
-1.61546e-05
-1.61439e-05
-1.61217e-05
-1.60884e-05
-1.60441e-05
-1.59891e-05
-1.59235e-05
-1.58476e-05
-1.57618e-05
-1.56663e-05
-1.55615e-05
-1.54476e-05
-1.53251e-05
-1.51942e-05
-1.50553e-05
-1.49088e-05
-1.47551e-05
-1.45946e-05
-1.44276e-05
-1.42545e-05
-1.40758e-05
-1.38917e-05
-1.37028e-05
-1.35094e-05
-1.33119e-05
-1.31106e-05
-1.2906e-05
-1.26984e-05
-1.24882e-05
-1.22758e-05
-1.20615e-05
-1.18456e-05
-1.16285e-05
-1.14106e-05
-1.1192e-05
-1.09732e-05
-1.07543e-05
-1.05358e-05
-1.03179e-05
-1.01007e-05
-9.8846e-06
-9.66978e-06
-9.45645e-06
-9.24483e-06
-9.03508e-06
-8.82742e-06
-8.62197e-06
-8.41892e-06
-8.21838e-06
-8.0205e-06
-7.82537e-06
-7.63313e-06
-7.44384e-06
-7.2576e-06
-7.07448e-06
-6.89454e-06
-6.71783e-06
-6.5444e-06
-6.37427e-06
-6.20749e-06
-6.04404e-06
-5.88398e-06
-5.72726e-06
-5.57391e-06
-5.4239e-06
-5.27725e-06
-5.13388e-06
-4.99382e-06
-4.85699e-06
-4.7234e-06
-4.59297e-06
-4.46569e-06
-4.34148e-06
-4.22033e-06
-4.10214e-06
-3.98691e-06
-3.87453e-06
-3.76499e-06
-3.65819e-06
-3.55411e-06
-3.45265e-06
-3.35379e-06
-3.25742e-06
-3.16353e-06
-3.07201e-06
-2.98283e-06
-2.89591e-06
-2.81121e-06
-2.72863e-06
-2.64816e-06
-2.5697e-06
-2.49322e-06
-2.41863e-06
-2.34591e-06
-2.27498e-06
-2.2058e-06
-2.13829e-06
-2.07244e-06
-2.00816e-06
-1.94544e-06
-1.88418e-06
-1.82438e-06
-1.76597e-06
-1.70892e-06
-1.65316e-06
-1.59868e-06
-1.54542e-06
-1.49336e-06
-1.44243e-06
-1.39263e-06
-1.34389e-06
-1.2962e-06
-1.24951e-06
-1.20381e-06
-1.15904e-06
-1.1152e-06
-1.07224e-06
-1.03014e-06
-9.88859e-07
-9.484e-07
-9.08704e-07
-8.69779e-07
-8.31571e-07
-7.94087e-07
-7.57275e-07
-7.21146e-07
-6.85647e-07
-6.5079e-07
-6.16525e-07
-5.82866e-07
-5.49763e-07
-5.17231e-07
-4.85221e-07
-4.5375e-07
-4.2277e-07
-3.923e-07
-3.62292e-07
-3.32764e-07
-3.03672e-07
-2.75034e-07
-2.46807e-07
-2.19009e-07
-1.91598e-07
-1.64594e-07
-1.37953e-07
-1.11699e-07
-8.57868e-08
-6.02406e-08
-3.50177e-08
-1.01412e-08
1.44305e-08
3.86737e-08
6.26295e-08
8.62737e-08
1.09647e-07
1.32725e-07
1.55547e-07
1.78088e-07
2.00389e-07
2.22424e-07
2.44232e-07
2.65787e-07
2.87128e-07
3.0823e-07
3.2913e-07
3.49803e-07
3.70286e-07
3.90553e-07
4.10643e-07
4.30527e-07
4.50244e-07
4.69766e-07
4.89131e-07
5.08312e-07
5.27346e-07
5.46206e-07
5.64927e-07
5.83483e-07
6.0191e-07
6.2018e-07
6.38331e-07
6.56333e-07
6.74223e-07
6.91973e-07
7.09619e-07
7.27133e-07
7.44551e-07
7.61844e-07
7.79048e-07
7.96134e-07
8.13139e-07
8.30034e-07
8.46853e-07
8.63569e-07
8.80217e-07
8.96767e-07
9.13255e-07
9.29653e-07
9.45995e-07
9.62251e-07
9.78459e-07
9.94587e-07
1.01067e-06
1.02668e-06
1.04266e-06
1.05856e-06
1.07443e-06
1.09024e-06
1.10603e-06
1.12175e-06
1.13746e-06
1.15311e-06
1.16874e-06
1.18433e-06
1.1999e-06
1.21544e-06
1.23096e-06
1.24645e-06
1.26193e-06
1.27739e-06
1.29284e-06
1.30826e-06
1.32369e-06
1.3391e-06
1.35452e-06
1.36991e-06
1.38532e-06
1.40072e-06
1.41613e-06
1.43154e-06
1.44696e-06
1.46238e-06
1.47782e-06
1.49326e-06
1.50873e-06
1.5242e-06
1.5397e-06
1.55521e-06
1.57076e-06
1.58631e-06
1.60191e-06
1.61751e-06
1.63316e-06
1.64883e-06
1.66454e-06
1.68027e-06
1.69606e-06
1.71187e-06
1.72773e-06
1.74362e-06
1.75956e-06
1.77554e-06
1.79157e-06
1.80764e-06
1.82378e-06
1.83995e-06
1.85619e-06
1.87247e-06
1.88882e-06
1.90521e-06
1.92168e-06
1.9382e-06
1.95479e-06
1.97143e-06
1.98816e-06
2.00494e-06
2.0218e-06
2.03872e-06
2.05573e-06
2.07279e-06
2.08995e-06
2.10717e-06
2.12449e-06
2.14187e-06
2.15935e-06
2.1769e-06
2.19455e-06
2.21227e-06
2.2301e-06
2.24801e-06
2.26602e-06
2.28411e-06
2.30231e-06
2.3206e-06
2.339e-06
2.35748e-06
2.37608e-06
2.39477e-06
2.41358e-06
2.43248e-06
2.45151e-06
2.47063e-06
2.48987e-06
2.50921e-06