# vtk DataFile Version 2.0
FlowField
ASCII
DATASET STRUCTURED_GRID
DIMENSIONS 400 1 200
POINTS 80000 float
0 0 0
0.08 0 0
0.16 0 0
0.24 0 0
0.32 0 0
0.4 0 0
0.48 0 0
0.56 0 0
0.64 0 0
0.72 0 0
0.8 0 0
0.88 0 0
0.96 0 0
1.04 0 0
1.12 0 0
1.2 0 0
1.28 0 0
1.36 0 0
1.44 0 0
1.52 0 0
1.6 0 0
1.68 0 0
1.76 0 0
1.84 0 0
1.92 0 0
2 0 0
2.08 0 0
2.16 0 0
2.24 0 0
2.32 0 0
2.4 0 0
2.48 0 0
2.56 0 0
2.64 0 0
2.72 0 0
2.8 0 0
2.88 0 0
2.96 0 0
3.04 0 0
3.12 0 0
3.2 0 0
3.28 0 0
3.36 0 0
3.44 0 0
3.52 0 0
3.6 0 0
3.68 0 0
3.76 0 0
3.84 0 0
3.92 0 0
4 0 0
4.08 0 0
4.16 0 0
4.24 0 0
4.32 0 0
4.4 0 0
4.48 0 0
4.56 0 0
4.64 0 0
4.72 0 0
4.8 0 0
4.88 0 0
4.96 0 0
5.04 0 0
5.12 0 0
5.2 0 0
5.28 0 0
5.36 0 0
5.44 0 0
5.52 0 0
5.6 0 0
5.68 0 0
5.76 0 0
5.84 0 0
5.92 0 0
6 0 0
6.08 0 0
6.16 0 0
6.24 0 0
6.32 0 0
6.4 0 0
6.48 0 0
6.56 0 0
6.64 0 0
6.72 0 0
6.8 0 0
6.88 0 0
6.96 0 0
7.04 0 0
7.12 0 0
7.2 0 0
7.28 0 0
7.36 0 0
7.44 0 0
7.52 0 0
7.6 0 0
7.68 0 0
7.76 0 0
7.84 0 0
7.92 0 0
8 0 0
8.08 0 0
8.16 0 0
8.24 0 0
8.32 0 0
8.4 0 0
8.48 0 0
8.56 0 0
8.64 0 0
8.72 0 0
8.8 0 0
8.88 0 0
8.96 0 0
9.04 0 0
9.12 0 0
9.2 0 0
9.28 0 0
9.36 0 0
9.44 0 0
9.52 0 0
9.6 0 0
9.68 0 0
9.76 0 0
9.84 0 0
9.92 0 0
10 0 0
10.08 0 0
10.16 0 0
10.24 0 0
10.32 0 0
10.4 0 0
10.48 0 0
10.56 0 0
10.64 0 0
10.72 0 0
10.8 0 0
10.88 0 0
10.96 0 0
11.04 0 0
11.12 0 0
11.2 0 0
11.28 0 0
11.36 0 0
11.44 0 0
11.52 0 0
11.6 0 0
11.68 0 0
11.76 0 0
11.84 0 0
11.92 0 0
12 0 0
12.08 0 0
12.16 0 0
12.24 0 0
12.32 0 0
12.4 0 0
12.48 0 0
12.56 0 0
12.64 0 0
12.72 0 0
12.8 0 0
12.88 0 0
12.96 0 0
13.04 0 0
13.12 0 0
13.2 0 0
13.28 0 0
13.36 0 0
13.44 0 0
13.52 0 0
13.6 0 0
13.68 0 0
13.76 0 0
13.84 0 0
13.92 0 0
14 0 0
14.08 0 0
14.16 0 0
14.24 0 0
14.32 0 0
14.4 0 0
14.48 0 0
14.56 0 0
14.64 0 0
14.72 0 0
14.8 0 0
14.88 0 0
14.96 0 0
15.04 0 0
15.12 0 0
15.2 0 0
15.28 0 0
15.36 0 0
15.44 0 0
15.52 0 0
15.6 0 0
15.68 0 0
15.76 0 0
15.84 0 0
15.92 0 0
16 0 0
16.08 0 0
16.16 0 0
16.24 0 0
16.32 0 0
16.4 0 0
16.48 0 0
16.56 0 0
16.64 0 0
16.72 0 0
16.8 0 0
16.88 0 0
16.96 0 0
17.04 0 0
17.12 0 0
17.2 0 0
17.28 0 0
17.36 0 0
17.44 0 0
17.52 0 0
17.6 0 0
17.68 0 0
17.76 0 0
17.84 0 0
17.92 0 0
18 0 0
18.08 0 0
18.16 0 0
18.24 0 0
18.32 0 0
18.4 0 0
18.48 0 0
18.56 0 0
18.64 0 0
18.72 0 0
18.8 0 0
18.88 0 0
18.96 0 0
19.04 0 0
19.12 0 0
19.2 0 0
19.28 0 0
19.36 0 0
19.44 0 0
19.52 0 0
19.6 0 0
19.68 0 0
19.76 0 0
19.84 0 0
19.92 0 0
20 0 0
20.08 0 0
20.16 0 0
20.24 0 0
20.32 0 0
20.4 0 0
20.48 0 0
20.56 0 0
20.64 0 0
20.72 0 0
20.8 0 0
20.88 0 0
20.96 0 0
21.04 0 0
21.12 0 0
21.2 0 0
21.28 0 0
21.36 0 0
21.44 0 0
21.52 0 0
21.6 0 0
21.68 0 0
21.76 0 0
21.84 0 0
21.92 0 0
22 0 0
22.08 0 0
22.16 0 0
22.24 0 0
22.32 0 0
22.4 0 0
22.48 0 0
22.56 0 0
22.64 0 0
22.72 0 0
22.8 0 0
22.88 0 0
22.96 0 0
23.04 0 0
23.12 0 0
23.2 0 0
23.28 0 0
23.36 0 0
23.44 0 0
23.52 0 0
23.6 0 0
23.68 0 0
23.76 0 0
23.84 0 0
23.92 0 0
24 0 0
24.08 0 0
24.16 0 0
24.24 0 0
24.32 0 0
24.4 0 0
24.48 0 0
24.56 0 0
24.64 0 0
24.72 0 0
24.8 0 0
24.88 0 0
24.96 0 0
25.04 0 0
25.12 0 0
25.2 0 0
25.28 0 0
25.36 0 0
25.44 0 0
25.52 0 0
25.6 0 0
25.68 0 0
25.76 0 0
25.84 0 0
25.92 0 0
26 0 0
26.08 0 0
26.16 0 0
26.24 0 0
26.32 0 0
26.4 0 0
26.48 0 0
26.56 0 0
26.64 0 0
26.72 0 0
26.8 0 0
26.88 0 0
26.96 0 0
27.04 0 0
27.12 0 0
27.2 0 0
27.28 0 0
27.36 0 0
27.44 0 0
27.52 0 0
27.6 0 0
27.68 0 0
27.76 0 0
27.84 0 0
27.92 0 0
28 0 0
28.08 0 0
28.16 0 0
28.24 0 0
28.32 0 0
28.4 0 0
28.48 0 0
28.56 0 0
28.64 0 0
28.72 0 0
28.8 0 0
28.88 0 0
28.96 0 0
29.04 0 0
29.12 0 0
29.2 0 0
29.28 0 0
29.36 0 0
29.44 0 0
29.52 0 0
29.6 0 0
29.68 0 0
29.76 0 0
29.84 0 0
29.92 0 0
30 0 0
30.08 0 0
30.16 0 0
30.24 0 0
30.32 0 0
30.4 0 0
30.48 0 0
30.56 0 0
30.64 0 0
30.72 0 0
30.8 0 0
30.88 0 0
30.96 0 0
31.04 0 0
31.12 0 0
31.2 0 0
31.28 0 0
31.36 0 0
31.44 0 0
31.52 0 0
31.6 0 0
31.68 0 0
31.76 0 0
31.84 0 0
31.92 0 0
0 0.005 0
0.08 0.005 0
0.16 0.005 0
0.24 0.005 0
0.32 0.005 0
0.4 0.005 0
0.48 0.005 0
0.56 0.005 0
0.64 0.005 0
0.72 0.005 0
0.8 0.005 0
0.88 0.005 0
0.96 0.005 0
1.04 0.005 0
1.12 0.005 0
1.2 0.005 0
1.28 0.005 0
1.36 0.005 0
1.44 0.005 0
1.52 0.005 0
1.6 0.005 0
1.68 0.005 0
1.76 0.005 0
1.84 0.005 0
1.92 0.005 0
2 0.005 0
2.08 0.005 0
2.16 0.005 0
2.24 0.005 0
2.32 0.005 0
2.4 0.005 0
2.48 0.005 0
2.56 0.005 0
2.64 0.005 0
2.72 0.005 0
2.8 0.005 0
2.88 0.005 0
2.96 0.005 0
3.04 0.005 0
3.12 0.005 0
3.2 0.005 0
3.28 0.005 0
3.36 0.005 0
3.44 0.005 0
3.52 0.005 0
3.6 0.005 0
3.68 0.005 0
3.76 0.005 0
3.84 0.005 0
3.92 0.005 0
4 0.005 0
4.08 0.005 0
4.16 0.005 0
4.24 0.005 0
4.32 0.005 0
4.4 0.005 0
4.48 0.005 0
4.56 0.005 0
4.64 0.005 0
4.72 0.005 0
4.8 0.005 0
4.88 0.005 0
4.96 0.005 0
5.04 0.005 0
5.12 0.005 0
5.2 0.005 0
5.28 0.005 0
5.36 0.005 0
5.44 0.005 0
5.52 0.005 0
5.6 0.005 0
5.68 0.005 0
5.76 0.005 0
5.84 0.005 0
5.92 0.005 0
6 0.005 0
6.08 0.005 0
6.16 0.005 0
6.24 0.005 0
6.32 0.005 0
6.4 0.005 0
6.48 0.005 0
6.56 0.005 0
6.64 0.005 0
6.72 0.005 0
6.8 0.005 0
6.88 0.005 0
6.96 0.005 0
7.04 0.005 0
7.12 0.005 0
7.2 0.005 0
7.28 0.005 0
7.36 0.005 0
7.44 0.005 0
7.52 0.005 0
7.6 0.005 0
7.68 0.005 0
7.76 0.005 0
7.84 0.005 0
7.92 0.005 0
8 0.005 0
8.08 0.005 0
8.16 0.005 0
8.24 0.005 0
8.32 0.005 0
8.4 0.005 0
8.48 0.005 0
8.56 0.005 0
8.64 0.005 0
8.72 0.005 0
8.8 0.005 0
8.88 0.005 0
8.96 0.005 0
9.04 0.005 0
9.12 0.005 0
9.2 0.005 0
9.28 0.005 0
9.36 0.005 0
9.44 0.005 0
9.52 0.005 0
9.6 0.005 0
9.68 0.005 0
9.76 0.005 0
9.84 0.005 0
9.92 0.005 0
10 0.005 0
10.08 0.005 0
10.16 0.005 0
10.24 0.005 0
10.32 0.005 0
10.4 0.005 0
10.48 0.005 0
10.56 0.005 0
10.64 0.005 0
10.72 0.005 0
10.8 0.005 0
10.88 0.005 0
10.96 0.005 0
11.04 0.005 0
11.12 0.005 0
11.2 0.005 0
11.28 0.005 0
11.36 0.005 0
11.44 0.005 0
11.52 0.005 0
11.6 0.005 0
11.68 0.005 0
11.76 0.005 0
11.84 0.005 0
11.92 0.005 0
12 0.005 0
12.08 0.005 0
12.16 0.005 0
12.24 0.005 0
12.32 0.005 0
12.4 0.005 0
12.48 0.005 0
12.56 0.005 0
12.64 0.005 0
12.72 0.005 0
12.8 0.005 0
12.88 0.005 0
12.96 0.005 0
13.04 0.005 0
13.12 0.005 0
13.2 0.005 0
13.28 0.005 0
13.36 0.005 0
13.44 0.005 0
13.52 0.005 0
13.6 0.005 0
13.68 0.005 0
13.76 0.005 0
13.84 0.005 0
13.92 0.005 0
14 0.005 0
14.08 0.005 0
14.16 0.005 0
14.24 0.005 0
14.32 0.005 0
14.4 0.005 0
14.48 0.005 0
14.56 0.005 0
14.64 0.005 0
14.72 0.005 0
14.8 0.005 0
14.88 0.005 0
14.96 0.005 0
15.04 0.005 0
15.12 0.005 0
15.2 0.005 0
15.28 0.005 0
15.36 0.005 0
15.44 0.005 0
15.52 0.005 0
15.6 0.005 0
15.68 0.005 0
15.76 0.005 0
15.84 0.005 0
15.92 0.005 0
16 0.005 0
16.08 0.005 0
16.16 0.005 0
16.24 0.005 0
16.32 0.005 0
16.4 0.005 0
16.48 0.005 0
16.56 0.005 0
16.64 0.005 0
16.72 0.005 0
16.8 0.005 0
16.88 0.005 0
16.96 0.005 0
17.04 0.005 0
17.12 0.005 0
17.2 0.005 0
17.28 0.005 0
17.36 0.005 0
17.44 0.005 0
17.52 0.005 0
17.6 0.005 0
17.68 0.005 0
17.76 0.005 0
17.84 0.005 0
17.92 0.005 0
18 0.005 0
18.08 0.005 0
18.16 0.005 0
18.24 0.005 0
18.32 0.005 0
18.4 0.005 0
18.48 0.005 0
18.56 0.005 0
18.64 0.005 0
18.72 0.005 0
18.8 0.005 0
18.88 0.005 0
18.96 0.005 0
19.04 0.005 0
19.12 0.005 0
19.2 0.005 0
19.28 0.005 0
19.36 0.005 0
19.44 0.005 0
19.52 0.005 0
19.6 0.005 0
19.68 0.005 0
19.76 0.005 0
19.84 0.005 0
19.92 0.005 0
20 0.005 0
20.08 0.005 0
20.16 0.005 0
20.24 0.005 0
20.32 0.005 0
20.4 0.005 0
20.48 0.005 0
20.56 0.005 0
20.64 0.005 0
20.72 0.005 0
20.8 0.005 0
20.88 0.005 0
20.96 0.005 0
21.04 0.005 0
21.12 0.005 0
21.2 0.005 0
21.28 0.005 0
21.36 0.005 0
21.44 0.005 0
21.52 0.005 0
21.6 0.005 0
21.68 0.005 0
21.76 0.005 0
21.84 0.005 0
21.92 0.005 0
22 0.005 0
22.08 0.005 0
22.16 0.005 0
22.24 0.005 0
22.32 0.005 0
22.4 0.005 0
22.48 0.005 0
22.56 0.005 0
22.64 0.005 0
22.72 0.005 0
22.8 0.005 0
22.88 0.005 0
22.96 0.005 0
23.04 0.005 0
23.12 0.005 0
23.2 0.005 0
23.28 0.005 0
23.36 0.005 0
23.44 0.005 0
23.52 0.005 0
23.6 0.005 0
23.68 0.005 0
23.76 0.005 0
23.84 0.005 0
23.92 0.005 0
24 0.005 0
24.08 0.005 0
24.16 0.005 0
24.24 0.005 0
24.32 0.005 0
24.4 0.005 0
24.48 0.005 0
24.56 0.005 0
24.64 0.005 0
24.72 0.005 0
24.8 0.005 0
24.88 0.005 0
24.96 0.005 0
25.04 0.005 0
25.12 0.005 0
25.2 0.005 0
25.28 0.005 0
25.36 0.005 0
25.44 0.005 0
25.52 0.005 0
25.6 0.005 0
25.68 0.005 0
25.76 0.005 0
25.84 0.005 0
25.92 0.005 0
26 0.005 0
26.08 0.005 0
26.16 0.005 0
26.24 0.005 0
26.32 0.005 0
26.4 0.005 0
26.48 0.005 0
26.56 0.005 0
26.64 0.005 0
26.72 0.005 0
26.8 0.005 0
26.88 0.005 0
26.96 0.005 0
27.04 0.005 0
27.12 0.005 0
27.2 0.005 0
27.28 0.005 0
27.36 0.005 0
27.44 0.005 0
27.52 0.005 0
27.6 0.005 0
27.68 0.005 0
27.76 0.005 0
27.84 0.005 0
27.92 0.005 0
28 0.005 0
28.08 0.005 0
28.16 0.005 0
28.24 0.005 0
28.32 0.005 0
28.4 0.005 0
28.48 0.005 0
28.56 0.005 0
28.64 0.005 0
28.72 0.005 0
28.8 0.005 0
28.88 0.005 0
28.96 0.005 0
29.04 0.005 0
29.12 0.005 0
29.2 0.005 0
29.28 0.005 0
29.36 0.005 0
29.44 0.005 0
29.52 0.005 0
29.6 0.005 0
29.68 0.005 0
29.76 0.005 0
29.84 0.005 0
29.92 0.005 0
30 0.005 0
30.08 0.005 0
30.16 0.005 0
30.24 0.005 0
30.32 0.005 0
30.4 0.005 0
30.48 0.005 0
30.56 0.005 0
30.64 0.005 0
30.72 0.005 0
30.8 0.005 0
30.88 0.005 0
30.96 0.005 0
31.04 0.005 0
31.12 0.005 0
31.2 0.005 0
31.28 0.005 0
31.36 0.005 0
31.44 0.005 0
31.52 0.005 0
31.6 0.005 0
31.68 0.005 0
31.76 0.005 0
31.84 0.005 0
31.92 0.005 0
0 0.01 0
0.08 0.01 0
0.16 0.01 0
0.24 0.01 0
0.32 0.01 0
0.4 0.01 0
0.48 0.01 0
0.56 0.01 0
0.64 0.01 0
0.72 0.01 0
0.8 0.01 0
0.88 0.01 0
0.96 0.01 0
1.04 0.01 0
1.12 0.01 0
1.2 0.01 0
1.28 0.01 0
1.36 0.01 0
1.44 0.01 0
1.52 0.01 0
1.6 0.01 0
1.68 0.01 0
1.76 0.01 0
1.84 0.01 0
1.92 0.01 0
2 0.01 0
2.08 0.01 0
2.16 0.01 0
2.24 0.01 0
2.32 0.01 0
2.4 0.01 0
2.48 0.01 0
2.56 0.01 0
2.64 0.01 0
2.72 0.01 0
2.8 0.01 0
2.88 0.01 0
2.96 0.01 0
3.04 0.01 0
3.12 0.01 0
3.2 0.01 0
3.28 0.01 0
3.36 0.01 0
3.44 0.01 0
3.52 0.01 0
3.6 0.01 0
3.68 0.01 0
3.76 0.01 0
3.84 0.01 0
3.92 0.01 0
4 0.01 0
4.08 0.01 0
4.16 0.01 0
4.24 0.01 0
4.32 0.01 0
4.4 0.01 0
4.48 0.01 0
4.56 0.01 0
4.64 0.01 0
4.72 0.01 0
4.8 0.01 0
4.88 0.01 0
4.96 0.01 0
5.04 0.01 0
5.12 0.01 0
[...]
POINT_DATA 80000

SCALARS v float 1
LOOKUP_TABLE default
0
0
0
0
0
0
0
0
0
0
0
0
0
0
0
0
0
0
0
0
0
0
0
0
0
0
0
0
0
0
0
0
0
0
0
0
0
0
0
0
0
0
0
0
0
0
0
0
0
0
0
0
0
0
0
0
0
0
0
0
0
0
0
0
0
0
0
0
0
0
0
0
0
0
0
0
0
0
0
0
0
0
0
0
0
0
0
0
0
0
0
0
0
0
0
0
0
0
0
0
0
0
0
0
0
0
0
0
0
0
0
0
0
0
0
0
0
0
0
0
0
0
0
0
0
0
0
0
0
0
0
0
0
0
0
0
0
0
0
0
0
0
0
0
0
0
0
0
0
0
0
0
0
0
0
0
0
0
0
0
0
0
0
0
0
0
0
0
0
0
0
0
0
0
0
0
0
0
0
0
0
0
0
0
0
0
0
0
0
0
0
0
0
0
0
0
0
0
0
0
0
0
0
0
0
0
0
0
0
0
0
0
0
0
0
0
0
0
0
0
0
0
0
0
0
0
0
0
0
0
0
0
0
0
0
0
0
0
0
0
0
0
0
0
0
0
0
0
0
0
0
0
0
0
0
0
0
0
0
0
0
0
0
0
0
0
0
0
0
0
0
0
0
0
0
0
0
0
0
0
0
0
0
0
0
0
0
0
0
0
0
0
0
0
0
0
0
0
0
0
0
0
0
0
0
0
0
0
0
0
0
0
0
0
0
0
0
0
0
0
0
0
0
0
0
0
0
0
0
0
0
0
0
0
0
0
0
0
0
0
0
0
0
0
0
0
0
0
0
0
0
0
0
0
0
0
0
0
0
0
0
0
0
0
0
0
0
0
0
0
0
0
0
0
0
0
0
0
0
0
0
0
0
0
0
0
0
0
0
0
0
0
0
0
0
0
0
0
0
0
-0.0542713
0.0542713
0.00396233
0.00099857
0.000492502
0.000302939
0.000207564
0.000151936
0.000116494
9.25383e-05
7.56253e-05
6.32649e-05
5.39646e-05
4.67862e-05
4.11182e-05
3.65512e-05
3.28039e-05
2.96789e-05
2.70353e-05
2.47713e-05
2.2812e-05
2.11009e-05
1.95937e-05
1.82554e-05
1.70594e-05
1.5986e-05
1.50196e-05
1.41455e-05
1.33496e-05
1.26194e-05
1.19472e-05
1.13291e-05
1.0762e-05
1.024e-05
9.7539e-06
9.29489e-06
8.85869e-06
8.44664e-06
8.06211e-06
7.70484e-06
7.36769e-06
7.03857e-06
6.70631e-06
6.36612e-06
6.02075e-06
5.67676e-06
5.33867e-06
5.00541e-06
4.67163e-06
4.33289e-06
3.99123e-06
3.65714e-06
3.3464e-06
3.07343e-06
2.84461e-06
2.65532e-06
2.492e-06
2.33805e-06
2.1806e-06
2.0152e-06
1.84644e-06
1.68496e-06
1.54238e-06
1.42652e-06
1.33866e-06
1.27344e-06
1.22101e-06
1.17031e-06
1.11212e-06
1.04108e-06
9.56335e-07
8.60855e-07
7.60098e-07
6.60356e-07
5.67347e-07
4.85279e-07
4.16472e-07
3.6144e-07
3.19285e-07
2.88221e-07
2.66073e-07
2.5068e-07
2.40137e-07
2.32921e-07
2.27903e-07
2.24297e-07
2.2159e-07
2.19461e-07
2.17718e-07
2.16241e-07
2.14959e-07
2.1382e-07
2.12788e-07
2.11833e-07
2.10934e-07
2.1007e-07
2.09229e-07
2.08401e-07
2.07579e-07
2.0676e-07
2.0594e-07
2.05119e-07
2.04297e-07
2.03473e-07
2.02649e-07
2.01824e-07
2.00999e-07
2.00174e-07
1.99349e-07
1.98525e-07
1.977e-07
1.96876e-07
1.96051e-07
1.95227e-07
1.94402e-07
1.93578e-07
1.92754e-07
1.91929e-07
1.91104e-07
1.9028e-07
1.89455e-07
1.8863e-07
1.87806e-07
1.86981e-07
1.86157e-07
1.85332e-07
1.84508e-07
1.83684e-07
1.8286e-07
1.82036e-07
1.81213e-07
1.8039e-07
1.79567e-07
1.78744e-07
1.77922e-07
1.771e-07
1.76278e-07
1.75457e-07
1.74636e-07
1.73815e-07
1.72995e-07
1.72175e-07
1.71355e-07
1.70536e-07
1.69718e-07
1.68899e-07
1.68081e-07
1.67264e-07
1.66447e-07
1.6563e-07
1.64814e-07
1.63998e-07
1.63183e-07
1.62368e-07
1.61554e-07
1.6074e-07
1.59927e-07
1.59114e-07
1.58301e-07
1.57489e-07
1.56678e-07
1.55867e-07
1.55056e-07
1.54246e-07
1.53436e-07
1.52627e-07
1.51818e-07
1.5101e-07
1.50202e-07
1.49395e-07
1.48588e-07
1.47781e-07
1.46975e-07
1.4617e-07
1.45365e-07
1.4456e-07
1.43756e-07
1.42952e-07
1.42148e-07
1.41345e-07
1.40542e-07
1.3974e-07
1.38938e-07
1.38137e-07
1.37336e-07
1.36535e-07
1.35735e-07
1.34934e-07
1.34135e-07
1.33335e-07
1.32536e-07
1.31738e-07
1.30939e-07
1.30141e-07
1.29343e-07
1.28546e-07
1.27749e-07
1.26952e-07
1.26155e-07
1.25358e-07
1.24562e-07
1.23766e-07
1.2297e-07
1.22175e-07
1.21379e-07
1.20584e-07
1.19789e-07
1.18994e-07
1.182e-07
1.17405e-07
1.16611e-07
1.15817e-07
1.15023e-07
1.14229e-07
1.13435e-07
1.12641e-07
1.11847e-07
1.11054e-07
1.1026e-07
1.09467e-07
1.08674e-07
1.0788e-07
1.07087e-07
1.06294e-07
1.05501e-07
1.04708e-07
1.03914e-07
1.03121e-07
1.02328e-07
1.01535e-07
1.00742e-07
9.99486e-08
9.91554e-08
9.83621e-08
9.75688e-08
9.67755e-08
9.59821e-08
9.51886e-08
9.4395e-08
9.36014e-08
9.28077e-08
9.20139e-08
9.122e-08
9.0426e-08
8.96318e-08
8.88376e-08
8.80433e-08
8.72488e-08
8.64542e-08
8.56595e-08
8.48646e-08
8.40696e-08
8.32745e-08
8.24792e-08
8.16837e-08
8.08881e-08
8.00923e-08
7.92964e-08
7.85003e-08
7.7704e-08
7.69075e-08
7.61108e-08
7.5314e-08
7.4517e-08
7.37197e-08
7.29223e-08
7.21247e-08
7.13268e-08
7.05288e-08
6.97305e-08
6.89321e-08
6.81334e-08
6.73345e-08
6.65354e-08
6.5736e-08
6.49364e-08
6.41366e-08
6.33366e-08
6.25363e-08
6.17358e-08
6.0935e-08
6.01341e-08
5.93328e-08
5.85313e-08
5.77296e-08
5.69276e-08
5.61254e-08
5.53229e-08
5.45202e-08
5.37172e-08
5.29139e-08
5.21104e-08
5.13066e-08
5.05025e-08
4.96982e-08
4.88936e-08
4.80888e-08
4.72836e-08
4.64782e-08
4.56725e-08
4.48666e-08
4.40604e-08
4.32538e-08
4.2447e-08
4.164e-08
4.08326e-08
4.00249e-08
3.9217e-08
3.84088e-08
3.76003e-08
3.67915e-08
3.59824e-08
3.5173e-08
3.43633e-08
3.35533e-08
3.2743e-08
3.19324e-08
3.11215e-08
3.03104e-08
2.94989e-08
2.86871e-08
2.7875e-08
2.70626e-08
2.62498e-08
2.54368e-08
2.46235e-08
2.38098e-08
2.29958e-08
2.21816e-08
2.13669e-08
2.05521e-08
1.97367e-08
1.89214e-08
1.81051e-08
1.72896e-08
1.6472e-08
1.56567e-08
1.48372e-08
1.4023e-08
1.32005e-08
1.23887e-08
1.15617e-08
1.07539e-08
9.9205e-09
9.11883e-09
8.27693e-09
7.48343e-09
6.63095e-09
5.84763e-09
4.9827e-09
4.21125e-09
3.33231e-09
2.57422e-09
1.67969e-09
9.36759e-10
2.43609e-11
-7.00313e-10
-1.63482e-09
-2.33563e-09
-3.29946e-09
-3.96741e-09
-4.9716e-09
-5.59325e-09
-6.65393e-09
-7.21019e-09
-8.34944e-09
-8.81538e-09
-1.00607e-08
-1.04063e-08
-1.179e-08
-1.19806e-08
-1.35397e-08
-1.35362e-08
-1.53111e-08
-1.50718e-08
-1.71051e-08
-1.65867e-08
-1.89218e-08
-1.80831e-08
-2.0757e-08
-1.95699e-08
-2.2599e-08
-2.10708e-08
-2.44193e-08
-2.26425e-08
-2.6154e-08
-2.44144e-08
-2.76618e-08
-2.66824e-08
-2.86225e-08
-3.01236e-08
-2.82512e-08
-3.63397e-08
-2.42149e-08
-4.9214e-08
-6.47377e-09
-7.76033e-08
1.24321e-07
-3.51725e-08
-3.51725e-08
-0.0952161
0.0952161
0.0129759
0.00385491
0.00193461
0.0011965
0.000822045
0.00060262
0.000462374
0.000367349
0.000300139
0.000250955
0.000213912
0.000185304
0.000162711
0.000144506
0.000129571
0.000117121
0.000106593
9.75819e-05
8.97873e-05
8.29828e-05
7.69913e-05
7.16735e-05
6.69237e-05
6.26626e-05
5.88266e-05
5.53567e-05
5.21964e-05
4.92983e-05
4.6632e-05
4.41813e-05
4.19316e-05
3.98576e-05
3.79237e-05
3.60973e-05
3.43634e-05
3.2727e-05
3.11981e-05
2.9772e-05
2.84189e-05
2.70928e-05
2.57536e-05
2.4386e-05
2.30016e-05
2.16243e-05
2.0269e-05
1.89309e-05
1.75915e-05
1.62384e-05
1.48847e-05
1.35731e-05
1.23628e-05
1.13042e-05
1.04153e-05
9.67368e-06
9.02584e-06
8.41039e-06
7.78261e-06
7.12984e-06
6.47217e-06
5.84983e-06
5.30424e-06
4.86099e-06
4.52089e-06
4.26098e-06
4.04331e-06
3.82722e-06
3.58029e-06
3.28521e-06
2.94133e-06
2.56176e-06
2.16794e-06
1.78352e-06
1.42929e-06
1.11998e-06
8.6309e-07
6.59469e-07
5.04888e-07
3.92056e-07
3.12485e-07
2.57914e-07
2.21189e-07
1.96644e-07
1.80115e-07
1.68734e-07
1.60634e-07
1.54652e-07
1.50086e-07
1.4651e-07
1.43653e-07
1.41329e-07
1.39402e-07
1.37763e-07
1.36325e-07
1.35021e-07
1.33799e-07
1.32625e-07
1.31472e-07
1.30329e-07
1.29185e-07
1.28038e-07
1.26888e-07
1.25734e-07
1.24578e-07
1.23422e-07
1.22266e-07
1.2111e-07
1.19955e-07
1.18802e-07
1.17649e-07
1.16497e-07
1.15346e-07
1.14195e-07
1.13044e-07
1.11894e-07
1.10743e-07
1.09592e-07
1.08441e-07
1.0729e-07
1.06138e-07
1.04987e-07
1.03836e-07
1.02684e-07
1.01533e-07
1.00381e-07
9.92301e-08
9.80792e-08
9.69286e-08
9.57783e-08
9.46283e-08
9.34788e-08
9.23296e-08
9.11809e-08
9.00327e-08
8.88849e-08
8.77376e-08
8.65909e-08
8.54446e-08
8.42989e-08
8.31537e-08
8.2009e-08
8.08648e-08
7.97212e-08
7.85782e-08
7.74357e-08
7.62937e-08
7.51523e-08
7.40114e-08
7.28711e-08
7.17314e-08
7.05921e-08
6.94535e-08
6.83154e-08
6.71778e-08
6.60409e-08
6.49044e-08
6.37685e-08
6.26332e-08
6.14984e-08
6.03641e-08
5.92304e-08
5.80973e-08
5.69647e-08
5.58326e-08
5.4701e-08
5.357e-08
5.24395e-08
5.13095e-08
5.01801e-08
4.90511e-08
4.79226e-08
4.67947e-08
4.56672e-08
4.45402e-08
4.34137e-08
4.22876e-08
4.1162e-08
4.00368e-08
3.89121e-08
3.77878e-08
3.6664e-08
3.55405e-08
3.44175e-08
3.32948e-08
3.21725e-08
3.10506e-08
2.99291e-08
2.88079e-08
2.7687e-08
2.65665e-08
2.54463e-08
2.43264e-08
2.32068e-08
2.20875e-08
2.09684e-08
1.98496e-08
1.87311e-08
1.76128e-08
1.64947e-08
1.53769e-08
1.42592e-08
1.31418e-08
1.20245e-08
1.09074e-08
9.79042e-09
8.67363e-09
7.55696e-09
6.44041e-09
5.32399e-09
4.20766e-09
3.09142e-09
1.97526e-09
8.59152e-10
-2.56884e-10
-1.37289e-09
-2.48884e-09
-3.60477e-09
-4.72069e-09
-5.83661e-09
-6.95255e-09
-8.06848e-09
-9.18446e-09
-1.03005e-08
-1.14165e-08
-1.25326e-08
-1.36488e-08
-1.47651e-08
-1.58814e-08
-1.69979e-08
-1.81144e-08
-1.92311e-08
-2.03479e-08
-2.14648e-08
-2.25818e-08
-2.36991e-08
-2.48164e-08
-2.59339e-08
-2.70516e-08
-2.81695e-08
-2.92876e-08
-3.04059e-08
-3.15243e-08
-3.2643e-08
-3.37619e-08
-3.4881e-08
-3.60004e-08
-3.712e-08
-3.82398e-08
-3.93599e-08
-4.04802e-08
-4.16008e-08
-4.27217e-08
-4.38428e-08
-4.49643e-08
-4.60859e-08
-4.72079e-08
-4.83302e-08
-4.94528e-08
-5.05757e-08
-5.16988e-08
-5.28223e-08
-5.39462e-08
-5.50703e-08
-5.61948e-08
-5.73196e-08
-5.84447e-08
-5.95702e-08
-6.0696e-08
-6.18221e-08
-6.29487e-08
-6.40755e-08
-6.52028e-08
-6.63304e-08
-6.74583e-08
-6.85867e-08
-6.97154e-08
-7.08445e-08
-7.19739e-08
-7.31038e-08
-7.4234e-08
-7.53646e-08
-7.64957e-08
-7.76271e-08
-7.87589e-08
-7.98911e-08
-8.10238e-08
-8.21568e-08
-8.32903e-08
-8.44241e-08
-8.55584e-08
-8.66931e-08
-8.78283e-08
-8.89638e-08
-9.00998e-08
-9.12362e-08
-9.23731e-08
-9.35104e-08
-9.46481e-08
-9.57863e-08
-9.69249e-08
-9.8064e-08
-9.92035e-08
-1.00343e-07
-1.01484e-07
-1.02625e-07
-1.03766e-07
-1.04908e-07
-1.0605e-07
-1.07193e-07
-1.08336e-07
-1.0948e-07
-1.10624e-07
-1.11769e-07
-1.12914e-07
-1.14059e-07
-1.15205e-07
-1.16352e-07
-1.17499e-07
-1.18647e-07
-1.19795e-07
-1.20943e-07
-1.22092e-07
-1.23242e-07
-1.24392e-07
-1.25543e-07
-1.26694e-07
-1.27846e-07
-1.28998e-07
-1.30151e-07
-1.31303e-07
-1.32458e-07
-1.33611e-07
-1.34768e-07
-1.3592e-07
-1.3708e-07
-1.38231e-07
-1.39397e-07
-1.40542e-07
-1.41717e-07
-1.42852e-07
-1.44043e-07
-1.45162e-07
-1.46375e-07
-1.4747e-07
-1.48713e-07
-1.49776e-07
-1.51058e-07
-1.52081e-07
-1.53408e-07
-1.54385e-07
-1.55763e-07
-1.56689e-07
-1.58124e-07
-1.58992e-07
-1.60493e-07
-1.61291e-07
-1.62872e-07
-1.6358e-07
-1.65269e-07
-1.65854e-07
-1.67692e-07
-1.68102e-07
-1.70149e-07
-1.70315e-07
-1.72653e-07
-1.7248e-07
-1.75212e-07
-1.74589e-07
-1.77837e-07
-1.76633e-07
-1.80535e-07
-1.78604e-07
-1.83311e-07
-1.80497e-07
-1.86169e-07
-1.82309e-07
-1.8911e-07
-1.84048e-07
-1.92117e-07
-1.85747e-07
-1.95149e-07
-1.87494e-07
-1.98101e-07
-1.89498e-07
-2.00741e-07
-1.92238e-07
-2.02551e-07
-1.96812e-07
-2.02363e-07
-2.05729e-07
-1.97312e-07
-2.24909e-07
-1.7887e-07
-2.68563e-07
-1.10215e-07
-3.67448e-07
3.67355e-07
-2.09369e-07
-2.09369e-07
-0.125293
0.125293
0.0249362
0.00835835
0.00427834
0.00266187
0.00183409
0.00134671
0.00103425
0.000822067
0.000671753
0.000561618
0.000478601
0.000414454
0.000363779
0.000322945
0.00028945
0.000261534
0.000237936
0.000217744
0.000200285
0.000185048
0.000171635
0.000159734
0.000149109
0.00013958
0.000131002
0.000123242
0.000116174
0.000109694
0.000103735
9.82596e-05
9.32306e-05
8.85897e-05
8.42589e-05
8.01688e-05
7.62889e-05
7.26287e-05
6.92056e-05
6.60036e-05
6.29543e-05
5.99591e-05
5.6935e-05
5.38528e-05
5.07391e-05
4.76432e-05
4.45947e-05
4.15821e-05
3.85694e-05
3.55376e-05
3.25221e-05
2.96194e-05
2.69551e-05
2.46302e-05
2.26744e-05
2.10319e-05
1.95853e-05
1.82052e-05
1.68015e-05
1.5353e-05
1.39063e-05
1.25471e-05
1.136e-05
1.03937e-05
9.64413e-06
9.05821e-06
8.55389e-06
8.04601e-06
7.46903e-06
6.79035e-06
6.01251e-06
5.1663e-06
4.29875e-06
3.4602e-06
2.69387e-06
2.02943e-06
1.48101e-06
1.04871e-06
7.22181e-07
4.84967e-07
3.18443e-07
2.04766e-07
1.28646e-07
7.80716e-08
4.42691e-08
2.12277e-08
5.04992e-09
-6.68313e-09
-1.54354e-08
-2.20976e-08
-2.72372e-08
-3.12457e-08
-3.44162e-08
-3.69795e-08
-3.91196e-08
-4.09798e-08
-4.26671e-08
-4.42573e-08
-4.58003e-08
-4.73264e-08
-4.88514e-08
-5.03824e-08
-5.19207e-08
-5.34647e-08
-5.50122e-08
-5.65608e-08
-5.81086e-08
-5.96544e-08
-6.11976e-08
-6.27382e-08
-6.42765e-08
-6.58128e-08
-6.73477e-08
-6.88818e-08
-7.04153e-08
-7.19487e-08
-7.34823e-08
-7.50161e-08
-7.65504e-08
-7.8085e-08
-7.962e-08
-8.11552e-08
-8.26907e-08
-8.42263e-08
-8.57618e-08
-8.72973e-08
-8.88325e-08
-9.03675e-08
-9.19021e-08
-9.34362e-08
-9.49698e-08
-9.65028e-08
-9.80353e-08
-9.95671e-08
-1.01098e-07
-1.02629e-07
-1.04158e-07
-1.05688e-07
-1.07216e-07
-1.08744e-07
-1.10271e-07
-1.11797e-07
-1.13323e-07
-1.14847e-07
-1.16372e-07
-1.17895e-07
-1.19418e-07
-1.2094e-07
-1.22462e-07
-1.23983e-07
-1.25503e-07
-1.27023e-07
-1.28542e-07
-1.3006e-07
-1.31578e-07
-1.33095e-07
-1.34612e-07
-1.36128e-07
-1.37643e-07
-1.39158e-07
-1.40672e-07
-1.42186e-07
-1.43699e-07
-1.45211e-07
-1.46723e-07
-1.48234e-07
-1.49745e-07
-1.51255e-07
-1.52765e-07
-1.54274e-07
-1.55783e-07
-1.57291e-07
-1.58799e-07
-1.60306e-07
-1.61813e-07
-1.63319e-07
-1.64825e-07
-1.66331e-07
-1.67836e-07
-1.6934e-07
-1.70844e-07
-1.72348e-07
-1.73852e-07
-1.75355e-07
-1.76857e-07
-1.7836e-07
-1.79862e-07
-1.81364e-07
-1.82865e-07
-1.84366e-07
-1.85867e-07
-1.87368e-07
-1.88868e-07
-1.90368e-07
-1.91868e-07
-1.93368e-07
-1.94867e-07
-1.96367e-07
-1.97866e-07
-1.99365e-07
-2.00864e-07
-2.02362e-07
-2.03861e-07
-2.0536e-07
-2.06858e-07
-2.08357e-07
-2.09855e-07
-2.11353e-07
-2.12852e-07
-2.1435e-07
-2.15848e-07
-2.17346e-07
-2.18845e-07
-2.20343e-07
-2.21842e-07
-2.2334e-07
-2.24839e-07
-2.26337e-07
-2.27836e-07
-2.29335e-07
-2.30834e-07
-2.32333e-07
-2.33832e-07
-2.35332e-07
-2.36832e-07
-2.38331e-07
-2.39831e-07
-2.41332e-07
-2.42832e-07
-2.44333e-07
-2.45834e-07
-2.47335e-07
-2.48837e-07
-2.50338e-07
-2.5184e-07
-2.53343e-07
-2.54845e-07
-2.56348e-07
-2.57852e-07
-2.59355e-07
-2.60859e-07
-2.62363e-07
-2.63868e-07
-2.65373e-07
-2.66879e-07
-2.68384e-07
-2.69891e-07
-2.71397e-07
-2.72904e-07
-2.74412e-07
-2.7592e-07
-2.77428e-07
-2.78937e-07
-2.80446e-07
-2.81955e-07
-2.83465e-07
-2.84976e-07
-2.86487e-07
-2.87998e-07
-2.8951e-07
-2.91023e-07
-2.92536e-07
-2.94049e-07
-2.95563e-07
-2.97078e-07
-2.98592e-07
-3.00108e-07
-3.01624e-07
-3.03141e-07
-3.04658e-07
-3.06175e-07
-3.07693e-07
-3.09212e-07
-3.10731e-07
-3.12251e-07
-3.13772e-07
-3.15293e-07
-3.16814e-07
-3.18336e-07
-3.19859e-07
-3.21382e-07
-3.22906e-07
-3.24431e-07
-3.25956e-07
-3.27481e-07
-3.29008e-07
-3.30535e-07
-3.32062e-07
-3.3359e-07
-3.35119e-07
-3.36649e-07
-3.38179e-07
-3.39709e-07
-3.41241e-07
-3.42773e-07
-3.44305e-07
-3.45839e-07
-3.47373e-07
-3.48907e-07
-3.50443e-07
-3.51979e-07
-3.53515e-07
-3.55053e-07
-3.56591e-07
-3.58129e-07
-3.59669e-07
-3.61209e-07
-3.6275e-07
-3.64291e-07
-3.65834e-07
-3.67377e-07
-3.6892e-07
-3.70465e-07
-3.7201e-07
-3.73556e-07
-3.75102e-07
-3.7665e-07
-3.78198e-07
-3.79747e-07
-3.81297e-07
-3.82847e-07
-3.84398e-07
-3.8595e-07
-3.87503e-07
-3.89056e-07
-3.90611e-07
-3.92166e-07
-3.93722e-07
-3.95278e-07
-3.96836e-07
-3.98394e-07
-3.99955e-07
-4.01512e-07
-4.03077e-07
-4.04633e-07
-4.06204e-07
-4.07755e-07
-4.09338e-07
-4.10877e-07
-4.12479e-07
-4.13996e-07
-4.15631e-07
-4.17113e-07
-4.18795e-07
-4.20224e-07
-4.2197e-07
-4.2333e-07
-4.25158e-07
-4.26433e-07
-4.28357e-07
-4.29533e-07
-4.31566e-07
-4.32631e-07
-4.34785e-07
-4.35725e-07
-4.38018e-07
-4.38809e-07
-4.41274e-07
-4.41872e-07
-4.44566e-07
-4.449e-07
-4.47911e-07
-4.47873e-07
-4.51329e-07
-4.50768e-07
-4.54845e-07
-4.53561e-07
-4.5848e-07
-4.56233e-07
-4.62252e-07
-4.58762e-07
-4.6618e-07
-4.61134e-07
-4.70274e-07
-4.63338e-07
-4.74543e-07
-4.65367e-07
-4.78987e-07
-4.67236e-07
-4.83576e-07
-4.69016e-07
-4.88219e-07
-4.70891e-07
-4.92698e-07
-4.73307e-07
-4.96523e-07
-4.77281e-07
-4.98611e-07
-4.85139e-07
-4.96509e-07
-5.02212e-07
-4.8421e-07
-5.41033e-07
-4.43812e-07
-6.31489e-07
-2.97957e-07
-8.35897e-07
6.94432e-07
-5.02689e-07
-5.02689e-07
-0.146488
0.146488
0.0383108
0.0142344
0.0074564
0.00467314
0.00323094
0.00237693
0.00182748
0.00145347
0.00118804
0.000993302
0.000846379
0.000732784
0.000643016
0.000570672
0.000511332
0.000461883
0.000420094
0.000384348
0.000353448
0.000326489
0.000302762
0.000281718
0.000262935
0.000246093
0.000230934
0.000217219
0.000204727
0.000193278
0.000182754
0.000173084
0.000164199
0.000155993
0.00014833
0.000141094
0.000134234
0.000127765
0.000121708
0.000116028
0.000110603
0.000105266
9.98795e-05
9.43988e-05
8.88707e-05
8.33765e-05
7.79627e-05
7.26099e-05
6.7263e-05
6.1901e-05
5.65953e-05
5.15157e-05
4.68727e-05
4.28273e-05
3.94171e-05
3.65367e-05
3.39833e-05
3.15407e-05
2.9064e-05
2.65257e-05
2.40089e-05
2.16577e-05
1.96089e-05
1.79361e-05
1.66241e-05
1.55776e-05
1.4657e-05
1.37209e-05
1.26641e-05
1.14379e-05
1.00525e-05
8.56373e-06
7.05296e-06
5.60499e-06
4.29105e-06
3.15863e-06
2.22881e-06
1.49921e-06
9.5036e-07
5.53073e-07
2.75073e-07
8.58384e-08
-4.05515e-08
-1.24322e-07
-1.80164e-07
-2.181e-07
-2.44605e-07
-2.63691e-07
-2.77785e-07
-2.8837e-07
-2.96393e-07
-3.02513e-07
-3.07225e-07
-3.1092e-07
-3.13906e-07
-3.16426e-07
-3.1866e-07
-3.20732e-07
-3.22726e-07
-3.24693e-07
-3.26657e-07
-3.28631e-07
-3.30617e-07
-3.32611e-07
-3.3461e-07
-3.3661e-07
-3.38607e-07
-3.40601e-07
-3.4259e-07
-3.44575e-07
-3.46555e-07
-3.48532e-07
-3.50506e-07
-3.52478e-07
-3.5445e-07
-3.56422e-07
-3.58394e-07
-3.60366e-07
-3.62339e-07
-3.64313e-07
-3.66287e-07
-3.68262e-07
-3.70237e-07
-3.72213e-07
-3.74188e-07
-3.76164e-07
-3.78139e-07
-3.80114e-07
-3.82089e-07
-3.84063e-07
-3.86036e-07
-3.88008e-07
-3.8998e-07
-3.9195e-07
-3.9392e-07
-3.95889e-07
-3.97857e-07
-3.99824e-07
-4.01791e-07
-4.03756e-07
-4.0572e-07
-4.07684e-07
-4.09646e-07
-4.11608e-07
-4.13569e-07
-4.1553e-07
-4.17489e-07
-4.19448e-07
-4.21406e-07
-4.23363e-07
-4.25319e-07
-4.27275e-07
-4.2923e-07
-4.31185e-07
-4.33138e-07
-4.35092e-07
-4.37044e-07
-4.38996e-07
-4.40947e-07
-4.42898e-07
-4.44848e-07
-4.46798e-07
-4.48747e-07
-4.50695e-07
-4.52643e-07
-4.5459e-07
-4.56537e-07
-4.58483e-07
-4.60429e-07
-4.62374e-07
-4.64319e-07
-4.66264e-07
-4.68208e-07
-4.70151e-07
-4.72094e-07
-4.74037e-07
-4.75979e-07
-4.77921e-07
-4.79863e-07
-4.81804e-07
-4.83745e-07
-4.85686e-07
-4.87626e-07
-4.89566e-07
-4.91506e-07
-4.93446e-07
-4.95385e-07
-4.97324e-07
-4.99263e-07
-5.01202e-07
-5.0314e-07
-5.05079e-07
-5.07017e-07
-5.08955e-07
-5.10893e-07
-5.12831e-07
-5.14769e-07
-5.16707e-07
-5.18644e-07
-5.20582e-07
-5.2252e-07
-5.24458e-07
-5.26395e-07
-5.28333e-07
-5.30271e-07
-5.32209e-07
-5.34147e-07
-5.36085e-07
-5.38024e-07
-5.39962e-07
-5.41901e-07
-5.43839e-07
-5.45778e-07
-5.47717e-07
-5.49657e-07
-5.51596e-07
-5.53536e-07
-5.55476e-07
-5.57416e-07
-5.59357e-07
-5.61298e-07
-5.63239e-07
-5.6518e-07
-5.67122e-07
-5.69064e-07
-5.71007e-07
-5.7295e-07
-5.74893e-07
-5.76837e-07
-5.78781e-07
-5.80726e-07
-5.82671e-07
-5.84616e-07
-5.86562e-07
-5.88509e-07
-5.90455e-07
-5.92403e-07
-5.94351e-07
-5.96299e-07
-5.98248e-07
-6.00198e-07
-6.02148e-07
-6.04099e-07
-6.0605e-07
-6.08002e-07
-6.09954e-07
-6.11907e-07
-6.13861e-07
-6.15815e-07
-6.1777e-07
-6.19725e-07
-6.21682e-07
-6.23639e-07
-6.25596e-07
-6.27554e-07
-6.29513e-07
-6.31472e-07
-6.33433e-07
-6.35394e-07
-6.37355e-07
-6.39318e-07
-6.41281e-07
-6.43244e-07
-6.45209e-07
-6.47174e-07
-6.4914e-07
-6.51107e-07
-6.53074e-07
-6.55042e-07
-6.57011e-07
-6.58981e-07
-6.60952e-07
-6.62923e-07
-6.64895e-07
-6.66868e-07
-6.68842e-07
-6.70817e-07
-6.72792e-07
-6.74769e-07
-6.76746e-07
-6.78724e-07
-6.80703e-07
-6.82682e-07
-6.84663e-07
-6.86644e-07
-6.88626e-07
-6.9061e-07
-6.92594e-07
-6.94578e-07
-6.96564e-07
-6.98551e-07
-7.00539e-07
-7.02527e-07
-7.04517e-07
-7.06507e-07
-7.08498e-07
-7.10491e-07
-7.12484e-07
-7.14478e-07
-7.16473e-07
-7.18469e-07
-7.20466e-07
-7.22464e-07
-7.24463e-07
-7.26463e-07
-7.28464e-07
-7.30466e-07
-7.32469e-07
-7.34473e-07
-7.36478e-07
-7.38484e-07
-7.40491e-07
-7.425e-07
-7.44509e-07
-7.46519e-07
-7.4853e-07
-7.50543e-07
-7.52556e-07
-7.54571e-07
-7.56586e-07
-7.58603e-07
-7.60621e-07
-7.6264e-07
-7.6466e-07
-7.66681e-07
-7.68704e-07
-7.70727e-07
-7.72752e-07
-7.74778e-07
-7.76806e-07
-7.78833e-07
-7.80865e-07
-7.82892e-07
-7.8493e-07
-7.86954e-07
-7.89002e-07
-7.91017e-07
-7.93085e-07
-7.95079e-07
-7.9718e-07
-7.99137e-07
-8.01292e-07
-8.03188e-07
-8.05423e-07
-8.0723e-07
-8.09574e-07