# vtk DataFile Version 2.0
FlowField
ASCII
DATASET STRUCTURED_GRID
DIMENSIONS 400 1 200
POINTS 80000 float
0 0 0
0.08 0 0
0.16 0 0
0.24 0 0
0.32 0 0
0.4 0 0
0.48 0 0
0.56 0 0
0.64 0 0
0.72 0 0
0.8 0 0
0.88 0 0
0.96 0 0
1.04 0 0
1.12 0 0
1.2 0 0
1.28 0 0
1.36 0 0
1.44 0 0
1.52 0 0
1.6 0 0
1.68 0 0
1.76 0 0
1.84 0 0
1.92 0 0
2 0 0
2.08 0 0
2.16 0 0
2.24 0 0
2.32 0 0
2.4 0 0
2.48 0 0
2.56 0 0
2.64 0 0
2.72 0 0
2.8 0 0
2.88 0 0
2.96 0 0
3.04 0 0
3.12 0 0
3.2 0 0
3.28 0 0
3.36 0 0
3.44 0 0
3.52 0 0
3.6 0 0
3.68 0 0
3.76 0 0
3.84 0 0
3.92 0 0
4 0 0
4.08 0 0
4.16 0 0
4.24 0 0
4.32 0 0
4.4 0 0
4.48 0 0
4.56 0 0
4.64 0 0
4.72 0 0
4.8 0 0
4.88 0 0
4.96 0 0
5.04 0 0
5.12 0 0
5.2 0 0
5.28 0 0
5.36 0 0
5.44 0 0
5.52 0 0
5.6 0 0
5.68 0 0
5.76 0 0
5.84 0 0
5.92 0 0
6 0 0
6.08 0 0
6.16 0 0
6.24 0 0
6.32 0 0
6.4 0 0
6.48 0 0
6.56 0 0
6.64 0 0
6.72 0 0
6.8 0 0
6.88 0 0
6.96 0 0
7.04 0 0
7.12 0 0
7.2 0 0
7.28 0 0
7.36 0 0
7.44 0 0
7.52 0 0
7.6 0 0
7.68 0 0
7.76 0 0
7.84 0 0
7.92 0 0
8 0 0
8.08 0 0
8.16 0 0
8.24 0 0
8.32 0 0
8.4 0 0
8.48 0 0
8.56 0 0
8.64 0 0
8.72 0 0
8.8 0 0
8.88 0 0
8.96 0 0
9.04 0 0
9.12 0 0
9.2 0 0
9.28 0 0
9.36 0 0
9.44 0 0
9.52 0 0
9.6 0 0
9.68 0 0
9.76 0 0
9.84 0 0
9.92 0 0
10 0 0
10.08 0 0
10.16 0 0
10.24 0 0
10.32 0 0
10.4 0 0
10.48 0 0
10.56 0 0
10.64 0 0
10.72 0 0
10.8 0 0
10.88 0 0
10.96 0 0
11.04 0 0
11.12 0 0
11.2 0 0
11.28 0 0
11.36 0 0
11.44 0 0
11.52 0 0
11.6 0 0
11.68 0 0
11.76 0 0
11.84 0 0
11.92 0 0
12 0 0
12.08 0 0
12.16 0 0
12.24 0 0
12.32 0 0
12.4 0 0
12.48 0 0
12.56 0 0
12.64 0 0
12.72 0 0
12.8 0 0
12.88 0 0
12.96 0 0
13.04 0 0
13.12 0 0
13.2 0 0
13.28 0 0
13.36 0 0
13.44 0 0
13.52 0 0
13.6 0 0
13.68 0 0
13.76 0 0
13.84 0 0
13.92 0 0
14 0 0
14.08 0 0
14.16 0 0
14.24 0 0
14.32 0 0
14.4 0 0
14.48 0 0
14.56 0 0
14.64 0 0
14.72 0 0
14.8 0 0
14.88 0 0
14.96 0 0
15.04 0 0
15.12 0 0
15.2 0 0
15.28 0 0
15.36 0 0
15.44 0 0
15.52 0 0
15.6 0 0
15.68 0 0
15.76 0 0
15.84 0 0
15.92 0 0
16 0 0
16.08 0 0
16.16 0 0
16.24 0 0
16.32 0 0
16.4 0 0
16.48 0 0
16.56 0 0
16.64 0 0
16.72 0 0
16.8 0 0
16.88 0 0
16.96 0 0
17.04 0 0
17.12 0 0
17.2 0 0
17.28 0 0
17.36 0 0
17.44 0 0
17.52 0 0
17.6 0 0
17.68 0 0
17.76 0 0
17.84 0 0
17.92 0 0
18 0 0
18.08 0 0
18.16 0 0
18.24 0 0
18.32 0 0
18.4 0 0
18.48 0 0
18.56 0 0
18.64 0 0
18.72 0 0
18.8 0 0
18.88 0 0
18.96 0 0
19.04 0 0
19.12 0 0
19.2 0 0
19.28 0 0
19.36 0 0
19.44 0 0
19.52 0 0
19.6 0 0
19.68 0 0
19.76 0 0
19.84 0 0
19.92 0 0
20 0 0
20.08 0 0
20.16 0 0
20.24 0 0
20.32 0 0
20.4 0 0
20.48 0 0
20.56 0 0
20.64 0 0
20.72 0 0
20.8 0 0
20.88 0 0
20.96 0 0
21.04 0 0
21.12 0 0
21.2 0 0
21.28 0 0
21.36 0 0
21.44 0 0
21.52 0 0
21.6 0 0
21.68 0 0
21.76 0 0
21.84 0 0
21.92 0 0
22 0 0
22.08 0 0
22.16 0 0
22.24 0 0
22.32 0 0
22.4 0 0
22.48 0 0
22.56 0 0
22.64 0 0
22.72 0 0
22.8 0 0
22.88 0 0
22.96 0 0
23.04 0 0
23.12 0 0
23.2 0 0
23.28 0 0
23.36 0 0
23.44 0 0
23.52 0 0
23.6 0 0
23.68 0 0
23.76 0 0
23.84 0 0
23.92 0 0
24 0 0
24.08 0 0
24.16 0 0
24.24 0 0
24.32 0 0
24.4 0 0
24.48 0 0
24.56 0 0
24.64 0 0
24.72 0 0
24.8 0 0
24.88 0 0
24.96 0 0
25.04 0 0
25.12 0 0
25.2 0 0
25.28 0 0
25.36 0 0
25.44 0 0
25.52 0 0
25.6 0 0
25.68 0 0
25.76 0 0
25.84 0 0
25.92 0 0
26 0 0
26.08 0 0
26.16 0 0
26.24 0 0
26.32 0 0
26.4 0 0
26.48 0 0
26.56 0 0
26.64 0 0
26.72 0 0
26.8 0 0
26.88 0 0
26.96 0 0
27.04 0 0
27.12 0 0
27.2 0 0
27.28 0 0
27.36 0 0
27.44 0 0
27.52 0 0
27.6 0 0
27.68 0 0
27.76 0 0
27.84 0 0
27.92 0 0
28 0 0
28.08 0 0
28.16 0 0
28.24 0 0
28.32 0 0
28.4 0 0
28.48 0 0
28.56 0 0
28.64 0 0
28.72 0 0
28.8 0 0
28.88 0 0
28.96 0 0
29.04 0 0
29.12 0 0
29.2 0 0
29.28 0 0
29.36 0 0
29.44 0 0
29.52 0 0
29.6 0 0
29.68 0 0
29.76 0 0
29.84 0 0
29.92 0 0
30 0 0
30.08 0 0
30.16 0 0
30.24 0 0
30.32 0 0
30.4 0 0
30.48 0 0
30.56 0 0
30.64 0 0
30.72 0 0
30.8 0 0
30.88 0 0
30.96 0 0
31.04 0 0
31.12 0 0
31.2 0 0
31.28 0 0
31.36 0 0
31.44 0 0
31.52 0 0
31.6 0 0
31.68 0 0
31.76 0 0
31.84 0 0
31.92 0 0
0 0.005 0
0.08 0.005 0
0.16 0.005 0
0.24 0.005 0
0.32 0.005 0
0.4 0.005 0
0.48 0.005 0
0.56 0.005 0
0.64 0.005 0
0.72 0.005 0
0.8 0.005 0
0.88 0.005 0
0.96 0.005 0
1.04 0.005 0
1.12 0.005 0
1.2 0.005 0
1.28 0.005 0
1.36 0.005 0
1.44 0.005 0
1.52 0.005 0
1.6 0.005 0
1.68 0.005 0
1.76 0.005 0
1.84 0.005 0
1.92 0.005 0
2 0.005 0
2.08 0.005 0
2.16 0.005 0
2.24 0.005 0
2.32 0.005 0
2.4 0.005 0
2.48 0.005 0
2.56 0.005 0
2.64 0.005 0
2.72 0.005 0
2.8 0.005 0
2.88 0.005 0
2.96 0.005 0
3.04 0.005 0
3.12 0.005 0
3.2 0.005 0
3.28 0.005 0
3.36 0.005 0
3.44 0.005 0
3.52 0.005 0
3.6 0.005 0
3.68 0.005 0
3.76 0.005 0
3.84 0.005 0
3.92 0.005 0
4 0.005 0
4.08 0.005 0
4.16 0.005 0
4.24 0.005 0
4.32 0.005 0
4.4 0.005 0
4.48 0.005 0
4.56 0.005 0
4.64 0.005 0
4.72 0.005 0
4.8 0.005 0
4.88 0.005 0
4.96 0.005 0
5.04 0.005 0
5.12 0.005 0
5.2 0.005 0
5.28 0.005 0
5.36 0.005 0
5.44 0.005 0
5.52 0.005 0
5.6 0.005 0
5.68 0.005 0
5.76 0.005 0
5.84 0.005 0
5.92 0.005 0
6 0.005 0
6.08 0.005 0
6.16 0.005 0
6.24 0.005 0
6.32 0.005 0
6.4 0.005 0
6.48 0.005 0
6.56 0.005 0
6.64 0.005 0
6.72 0.005 0
6.8 0.005 0
6.88 0.005 0
6.96 0.005 0
7.04 0.005 0
7.12 0.005 0
7.2 0.005 0
7.28 0.005 0
7.36 0.005 0
7.44 0.005 0
7.52 0.005 0
7.6 0.005 0
7.68 0.005 0
7.76 0.005 0
7.84 0.005 0
7.92 0.005 0
8 0.005 0
8.08 0.005 0
8.16 0.005 0
8.24 0.005 0
8.32 0.005 0
8.4 0.005 0
8.48 0.005 0
8.56 0.005 0
8.64 0.005 0
8.72 0.005 0
8.8 0.005 0
8.88 0.005 0
8.96 0.005 0
9.04 0.005 0
9.12 0.005 0
9.2 0.005 0
9.28 0.005 0
9.36 0.005 0
9.44 0.005 0
9.52 0.005 0
9.6 0.005 0
9.68 0.005 0
9.76 0.005 0
9.84 0.005 0
9.92 0.005 0
10 0.005 0
10.08 0.005 0
10.16 0.005 0
10.24 0.005 0
10.32 0.005 0
10.4 0.005 0
10.48 0.005 0
10.56 0.005 0
10.64 0.005 0
10.72 0.005 0
10.8 0.005 0
10.88 0.005 0
10.96 0.005 0
11.04 0.005 0
11.12 0.005 0
11.2 0.005 0
11.28 0.005 0
11.36 0.005 0
11.44 0.005 0
11.52 0.005 0
11.6 0.005 0
11.68 0.005 0
11.76 0.005 0
11.84 0.005 0
11.92 0.005 0
12 0.005 0
12.08 0.005 0
12.16 0.005 0
12.24 0.005 0
12.32 0.005 0
12.4 0.005 0
12.48 0.005 0
12.56 0.005 0
12.64 0.005 0
12.72 0.005 0
12.8 0.005 0
12.88 0.005 0
12.96 0.005 0
13.04 0.005 0
13.12 0.005 0
13.2 0.005 0
13.28 0.005 0
13.36 0.005 0
13.44 0.005 0
13.52 0.005 0
13.6 0.005 0
13.68 0.005 0
13.76 0.005 0
13.84 0.005 0
13.92 0.005 0
14 0.005 0
14.08 0.005 0
14.16 0.005 0
14.24 0.005 0
14.32 0.005 0
14.4 0.005 0
14.48 0.005 0
14.56 0.005 0
14.64 0.005 0
14.72 0.005 0
14.8 0.005 0
14.88 0.005 0
14.96 0.005 0
15.04 0.005 0
15.12 0.005 0
15.2 0.005 0
15.28 0.005 0
15.36 0.005 0
15.44 0.005 0
15.52 0.005 0
15.6 0.005 0
15.68 0.005 0
15.76 0.005 0
15.84 0.005 0
15.92 0.005 0
16 0.005 0
16.08 0.005 0
16.16 0.005 0
16.24 0.005 0
16.32 0.005 0
16.4 0.005 0
16.48 0.005 0
16.56 0.005 0
16.64 0.005 0
16.72 0.005 0
16.8 0.005 0
16.88 0.005 0
16.96 0.005 0
17.04 0.005 0
17.12 0.005 0
17.2 0.005 0
17.28 0.005 0
17.36 0.005 0
17.44 0.005 0
17.52 0.005 0
17.6 0.005 0
17.68 0.005 0
17.76 0.005 0
17.84 0.005 0
17.92 0.005 0
18 0.005 0
18.08 0.005 0
18.16 0.005 0
18.24 0.005 0
18.32 0.005 0
18.4 0.005 0
18.48 0.005 0
18.56 0.005 0
18.64 0.005 0
18.72 0.005 0
18.8 0.005 0
18.88 0.005 0
18.96 0.005 0
19.04 0.005 0
19.12 0.005 0
19.2 0.005 0
19.28 0.005 0
19.36 0.005 0
19.44 0.005 0
19.52 0.005 0
19.6 0.005 0
19.68 0.005 0
19.76 0.005 0
19.84 0.005 0
19.92 0.005 0
20 0.005 0
20.08 0.005 0
20.16 0.005 0
20.24 0.005 0
20.32 0.005 0
20.4 0.005 0
20.48 0.005 0
20.56 0.005 0
20.64 0.005 0
20.72 0.005 0
20.8 0.005 0
20.88 0.005 0
20.96 0.005 0
21.04 0.005 0
21.12 0.005 0
21.2 0.005 0
21.28 0.005 0
21.36 0.005 0
21.44 0.005 0
21.52 0.005 0
21.6 0.005 0
21.68 0.005 0
21.76 0.005 0
21.84 0.005 0
21.92 0.005 0
22 0.005 0
22.08 0.005 0
22.16 0.005 0
22.24 0.005 0
22.32 0.005 0
22.4 0.005 0
22.48 0.005 0
22.56 0.005 0
22.64 0.005 0
22.72 0.005 0
22.8 0.005 0
22.88 0.005 0
22.96 0.005 0
23.04 0.005 0
23.12 0.005 0
23.2 0.005 0
23.28 0.005 0
23.36 0.005 0
23.44 0.005 0
23.52 0.005 0
23.6 0.005 0
23.68 0.005 0
23.76 0.005 0
23.84 0.005 0
23.92 0.005 0
24 0.005 0
24.08 0.005 0
24.16 0.005 0
24.24 0.005 0
24.32 0.005 0
24.4 0.005 0
24.48 0.005 0
24.56 0.005 0
24.64 0.005 0
24.72 0.005 0
24.8 0.005 0
24.88 0.005 0
24.96 0.005 0
25.04 0.005 0
25.12 0.005 0
25.2 0.005 0
25.28 0.005 0
25.36 0.005 0
25.44 0.005 0
25.52 0.005 0
25.6 0.005 0
25.68 0.005 0
25.76 0.005 0
25.84 0.005 0
25.92 0.005 0
26 0.005 0
26.08 0.005 0
26.16 0.005 0
26.24 0.005 0
26.32 0.005 0
26.4 0.005 0
26.48 0.005 0
26.56 0.005 0
26.64 0.005 0
26.72 0.005 0
26.8 0.005 0
26.88 0.005 0
26.96 0.005 0
27.04 0.005 0
27.12 0.005 0
27.2 0.005 0
27.28 0.005 0
27.36 0.005 0
27.44 0.005 0
27.52 0.005 0
27.6 0.005 0
27.68 0.005 0
27.76 0.005 0
27.84 0.005 0
27.92 0.005 0
28 0.005 0
28.08 0.005 0
28.16 0.005 0
28.24 0.005 0
28.32 0.005 0
28.4 0.005 0
28.48 0.005 0
28.56 0.005 0
28.64 0.005 0
28.72 0.005 0
28.8 0.005 0
28.88 0.005 0
28.96 0.005 0
29.04 0.005 0
29.12 0.005 0
29.2 0.005 0
29.28 0.005 0
29.36 0.005 0
29.44 0.005 0
29.52 0.005 0
29.6 0.005 0
29.68 0.005 0
29.76 0.005 0
29.84 0.005 0
29.92 0.005 0
30 0.005 0
30.08 0.005 0
30.16 0.005 0
30.24 0.005 0
30.32 0.005 0
30.4 0.005 0
30.48 0.005 0
30.56 0.005 0
30.64 0.005 0
30.72 0.005 0
30.8 0.005 0
30.88 0.005 0
30.96 0.005 0
31.04 0.005 0
31.12 0.005 0
31.2 0.005 0
31.28 0.005 0
31.36 0.005 0
31.44 0.005 0
31.52 0.005 0
31.6 0.005 0
31.68 0.005 0
31.76 0.005 0
31.84 0.005 0
31.92 0.005 0
0 0.01 0
0.08 0.01 0
0.16 0.01 0
0.24 0.01 0
0.32 0.01 0
0.4 0.01 0
0.48 0.01 0
0.56 0.01 0
0.64 0.01 0
0.72 0.01 0
0.8 0.01 0
0.88 0.01 0
0.96 0.01 0
1.04 0.01 0
1.12 0.01 0
1.2 0.01 0
1.28 0.01 0
1.36 0.01 0
1.44 0.01 0
1.52 0.01 0
1.6 0.01 0
1.68 0.01 0
1.76 0.01 0
1.84 0.01 0
1.92 0.01 0
2 0.01 0
2.08 0.01 0
2.16 0.01 0
2.24 0.01 0
2.32 0.01 0
2.4 0.01 0
2.48 0.01 0
2.56 0.01 0
2.64 0.01 0
2.72 0.01 0
2.8 0.01 0
2.88 0.01 0
2.96 0.01 0
3.04 0.01 0
3.12 0.01 0
3.2 0.01 0
3.28 0.01 0
3.36 0.01 0
3.44 0.01 0
3.52 0.01 0
3.6 0.01 0
3.68 0.01 0
3.76 0.01 0
3.84 0.01 0
3.92 0.01 0
4 0.01 0
4.08 0.01 0
4.16 0.01 0
4.24 0.01 0
4.32 0.01 0
4.4 0.01 0
4.48 0.01 0
4.56 0.01 0
4.64 0.01 0
4.72 0.01 0
4.8 0.01 0
4.88 0.01 0
4.96 0.01 0
5.04 0.01 0
5.12 0.01 0
[...]
POINT_DATA 80000

SCALARS v float 1
LOOKUP_TABLE default
0
0
0
0
0
0
0
0
0
0
0
0
0
0
0
0
0
0
0
0
0
0
0
0
0
0
0
0
0
0
0
0
0
0
0
0
0
0
0
0
0
0
0
0
0
0
0
0
0
0
0
0
0
0
0
0
0
0
0
0
0
0
0
0
0
0
0
0
0
0
0
0
0
0
0
0
0
0
0
0
0
0
0
0
0
0
0
0
0
0
0
0
0
0
0
0
0
0
0
0
0
0
0
0
0
0
0
0
0
0
0
0
0
0
0
0
0
0
0
0
0
0
0
0
0
0
0
0
0
0
0
0
0
0
0
0
0
0
0
0
0
0
0
0
0
0
0
0
0
0
0
0
0
0
0
0
0
0
0
0
0
0
0
0
0
0
0
0
0
0
0
0
0
0
0
0
0
0
0
0
0
0
0
0
0
0
0
0
0
0
0
0
0
0
0
0
0
0
0
0
0
0
0
0
0
0
0
0
0
0
0
0
0
0
0
0
0
0
0
0
0
0
0
0
0
0
0
0
0
0
0
0
0
0
0
0
0
0
0
0
0
0
0
0
0
0
0
0
0
0
0
0
0
0
0
0
0
0
0
0
0
0
0
0
0
0
0
0
0
0
0
0
0
0
0
0
0
0
0
0
0
0
0
0
0
0
0
0
0
0
0
0
0
0
0
0
0
0
0
0
0
0
0
0
0
0
0
0
0
0
0
0
0
0
0
0
0
0
0
0
0
0
0
0
0
0
0
0
0
0
0
0
0
0
0
0
0
0
0
0
0
0
0
0
0
0
0
0
0
0
0
0
0
0
0
0
0
0
0
0
0
0
0
0
0
0
0
0
0
0
0
0
0
0
0
0
0
0
0
0
0
0
0
0
0
0
0
0
0
0
0
0
0
0
0
0
0
0
0
0
-0.0542731
0.0542731
0.00396422
0.00100047
0.00049441
0.000304847
0.000209467
0.000153832
0.000118383
9.44199e-05
7.74959e-05
6.51134e-05
5.57794e-05
4.8565e-05
4.28675e-05
3.82707e-05
3.44715e-05
3.12552e-05
2.84886e-05
2.61e-05
2.40364e-05
2.2227e-05
2.05797e-05
1.90113e-05
1.74793e-05
1.59826e-05
1.45331e-05
1.31252e-05
1.17325e-05
1.03359e-05
8.95703e-06
7.66868e-06
6.56993e-06
5.74086e-06
5.20353e-06
4.91078e-06
4.76636e-06
4.66242e-06
4.51451e-06
4.28044e-06
3.96024e-06
3.58324e-06
3.19085e-06
2.82189e-06
2.50382e-06
2.24989e-06
2.06078e-06
1.92856e-06
1.84097e-06
1.7851e-06
1.74963e-06
1.72592e-06
1.70809e-06
1.69256e-06
1.67747e-06
1.662e-06
1.64593e-06
1.62933e-06
1.61234e-06
1.59509e-06
1.57771e-06
1.56025e-06
1.54275e-06
1.52522e-06
1.50767e-06
1.49009e-06
1.47248e-06
1.45484e-06
1.43717e-06
1.41947e-06
1.40175e-06
1.384e-06
1.36624e-06
1.34847e-06
1.3307e-06
1.31294e-06
1.29519e-06
1.27746e-06
1.25977e-06
1.24211e-06
1.2245e-06
1.20694e-06
1.18945e-06
1.17203e-06
1.15469e-06
1.13743e-06
1.12027e-06
1.10321e-06
1.08626e-06
1.06942e-06
1.05271e-06
1.03612e-06
1.01968e-06
1.00337e-06
9.87217e-07
9.71216e-07
9.55373e-07
9.39696e-07
9.24189e-07
9.08856e-07
8.93703e-07
8.78732e-07
8.63949e-07
8.49357e-07
8.34958e-07
8.20757e-07
8.06755e-07
7.92956e-07
7.79361e-07
7.65973e-07
7.52792e-07
7.39821e-07
7.27061e-07
7.14512e-07
7.02174e-07
6.9005e-07
6.78137e-07
6.66437e-07
6.54949e-07
6.43672e-07
6.32606e-07
6.21749e-07
6.11101e-07
6.0066e-07
5.90424e-07
5.80392e-07
5.70561e-07
5.6093e-07
5.51497e-07
5.42258e-07
5.33212e-07
5.24356e-07
5.15687e-07
5.07203e-07
4.98899e-07
4.90774e-07
4.82824e-07
4.75046e-07
4.67436e-07
4.59992e-07
4.52709e-07
4.45585e-07
4.38616e-07
4.31798e-07
4.25128e-07
4.18602e-07
4.12217e-07
4.0597e-07
3.99855e-07
3.93871e-07
3.88013e-07
3.82279e-07
3.76663e-07
3.71164e-07
3.65777e-07
3.60499e-07
3.55326e-07
3.50256e-07
3.45285e-07
3.4041e-07
3.35628e-07
3.30935e-07
3.26328e-07
3.21805e-07
3.17361e-07
3.12996e-07
3.08705e-07
3.04486e-07
3.00335e-07
2.96252e-07
2.92232e-07
2.88274e-07
2.84374e-07
2.80531e-07
2.76742e-07
2.73005e-07
2.69318e-07
2.65679e-07
2.62085e-07
2.58536e-07
2.55027e-07
2.51559e-07
2.48129e-07
2.44735e-07
2.41376e-07
2.3805e-07
2.34755e-07
2.31491e-07
2.28256e-07
2.25047e-07
2.21865e-07
2.18708e-07
2.15574e-07
2.12462e-07
2.09372e-07
2.06301e-07
2.0325e-07
2.00217e-07
1.97202e-07
1.94202e-07
1.91218e-07
1.88249e-07
1.85294e-07
1.82352e-07
1.79422e-07
1.76504e-07
1.73597e-07
1.70701e-07
1.67815e-07
1.64938e-07
1.6207e-07
1.5921e-07
1.56358e-07
1.53514e-07
1.50676e-07
1.47845e-07
1.45021e-07
1.42202e-07
1.39388e-07
1.3658e-07
1.33777e-07
1.30978e-07
1.28183e-07
1.25392e-07
1.22605e-07
1.19822e-07
1.17041e-07
1.14264e-07
1.1149e-07
1.08718e-07
1.05948e-07
1.03181e-07
1.00416e-07
9.7653e-08
9.48915e-08
9.21318e-08
8.93734e-08
8.66165e-08
8.38607e-08
8.11061e-08
7.83524e-08
7.55996e-08
7.28476e-08
7.00962e-08
6.73454e-08
6.45951e-08
6.18452e-08
5.90956e-08
5.63461e-08
5.35969e-08
5.08476e-08
4.80984e-08
4.53491e-08
4.25996e-08
3.98499e-08
3.71e-08
3.43496e-08
3.15989e-08
2.88476e-08
2.6096e-08
2.33436e-08
2.05907e-08
1.7837e-08
1.50826e-08
1.23274e-08
9.57141e-09
6.81445e-09
4.0566e-09
1.29769e-09
-1.46218e-09
-4.22321e-09
-6.98532e-09
-9.74865e-09
-1.25132e-08
-1.5279e-08
-1.80461e-08
-2.08145e-08
-2.35844e-08
-2.63557e-08
-2.91284e-08
-3.19027e-08
-3.46785e-08
-3.7456e-08
-4.02351e-08
-4.30159e-08
-4.57983e-08
-4.85826e-08
-5.13687e-08
-5.41566e-08
-5.69463e-08
-5.97381e-08
-6.25317e-08
-6.53273e-08
-6.8125e-08
-7.09248e-08
-7.37266e-08
-7.65307e-08
-7.93368e-08
-8.21453e-08
-8.4956e-08
-8.7769e-08
-9.05843e-08
-9.34021e-08
-9.62222e-08
-9.90448e-08
-1.0187e-07
-1.04698e-07
-1.07528e-07
-1.10361e-07
-1.13196e-07
-1.16034e-07
-1.18875e-07
-1.21719e-07
-1.24565e-07
-1.27414e-07
-1.30266e-07
-1.33121e-07
-1.35979e-07
-1.3884e-07
-1.41705e-07
-1.44572e-07
-1.47442e-07
-1.50315e-07
-1.53192e-07
-1.56072e-07
-1.58955e-07
-1.61841e-07
-1.64731e-07
-1.67624e-07
-1.7052e-07
-1.7342e-07
-1.76324e-07
-1.79231e-07
-1.82141e-07
-1.85056e-07
-1.87974e-07
-1.90895e-07
-1.93821e-07
-1.9675e-07
-1.99683e-07
-2.0262e-07
-2.05561e-07
-2.08506e-07
-2.11455e-07
-2.14407e-07
-2.17364e-07
-2.20326e-07
-2.23291e-07
-2.26261e-07
-2.29234e-07
-2.32213e-07
-2.35195e-07
-2.38182e-07
-2.41174e-07
-2.4417e-07
-2.4717e-07
-2.50175e-07
-2.53186e-07
-2.56197e-07
-2.59224e-07
-2.62232e-07
-2.65294e-07
-2.68265e-07
-2.71418e-07
-2.7426e-07
-2.77652e-07
-2.80144e-07
-2.8409e-07
-2.85809e-07
-2.90839e-07
-2.9117e-07
-2.9794e-07
-2.96257e-07
-3.05277e-07
-3.01268e-07
-3.126e-07
-3.06471e-07
-3.19658e-07
-3.12083e-07
-3.26275e-07
-3.18261e-07
-3.3233e-07
-3.25066e-07
-3.37927e-07
-3.32197e-07
-3.43687e-07
-3.38878e-07
-3.50515e-07
-3.4475e-07
-3.58064e-07
-3.52021e-07
-3.6317e-07
-3.6517e-07
-3.62627e-07
-3.88858e-07
-3.37164e-07
-4.57623e-07
-2.2719e-08
-3.77696e-07
-3.77696e-07
-0.0952182
0.0952182
0.0129781
0.00385723
0.00193695
0.00119884
0.000824379
0.000604932
0.000464662
0.000369614
0.000302364
0.000253095
0.000215929
0.000187192
0.000164487
0.000146158
0.000131007
0.000118193
0.000107191
9.76975e-05
8.94764e-05
8.22367e-05
7.56269e-05
6.93408e-05
6.32197e-05
5.72477e-05
5.14503e-05
4.57977e-05
4.02079e-05
3.4648e-05
2.9242e-05
2.4285e-05
2.01384e-05
1.70634e-05
1.50919e-05
1.40055e-05
1.34236e-05
1.29461e-05
1.22767e-05
1.12824e-05
9.98474e-06
8.50586e-06
7.00408e-06
5.62106e-06
4.45204e-06
3.53823e-06
2.87494e-06
2.42713e-06
2.14588e-06
1.98145e-06
1.89131e-06
1.84349e-06
1.81659e-06
1.79784e-06
1.78061e-06
1.76216e-06
1.74183e-06
1.7199e-06
1.69692e-06
1.67342e-06
1.64976e-06
1.62617e-06
1.60273e-06
1.57948e-06
1.55641e-06
1.53348e-06
1.51066e-06
1.48792e-06
1.46524e-06
1.44261e-06
1.42002e-06
1.39745e-06
1.37492e-06
1.35242e-06
1.32996e-06
1.30754e-06
1.28518e-06
1.26287e-06
1.24062e-06
1.21845e-06
1.19637e-06
1.17437e-06
1.15247e-06
1.13068e-06
1.109e-06
1.08745e-06
1.06603e-06
1.04476e-06
1.02363e-06
1.00266e-06
9.81858e-07
9.61227e-07
9.40776e-07
9.20512e-07
9.00442e-07
8.80573e-07
8.60909e-07
8.41459e-07
8.22225e-07
8.03215e-07
7.84432e-07
7.65881e-07
7.47567e-07
7.29492e-07
7.1166e-07
6.94075e-07
6.76738e-07
6.59653e-07
6.42821e-07
6.26245e-07
6.09925e-07
5.93863e-07
5.78059e-07
5.62515e-07
5.47229e-07
5.32203e-07
5.17435e-07
5.02925e-07
4.88673e-07
4.74676e-07
4.60934e-07
4.47446e-07
4.34208e-07
4.2122e-07
4.08479e-07
3.95982e-07
3.83727e-07
3.71711e-07
3.59931e-07
3.48384e-07
3.37066e-07
3.25975e-07
3.15106e-07
3.04457e-07
2.94023e-07
2.838e-07
2.73784e-07
2.63973e-07
2.5436e-07
2.44943e-07
2.35717e-07
2.26678e-07
2.17821e-07
2.09142e-07
2.00638e-07
1.92303e-07
1.84134e-07
1.76125e-07
1.68273e-07
1.60574e-07
1.53023e-07
1.45616e-07
1.38348e-07
1.31217e-07
1.24216e-07
1.17343e-07
1.10593e-07
1.03963e-07
9.74479e-08
9.10447e-08
8.47491e-08
7.85578e-08
7.24668e-08
6.6473e-08
6.05723e-08
5.47619e-08
4.90379e-08
4.33975e-08
3.7837e-08
3.23539e-08
2.69447e-08
2.16068e-08
1.6337e-08
1.11329e-08
5.99137e-09
9.10273e-10
-4.11341e-09
-9.08167e-09
-1.39974e-08
-1.88623e-08
-2.36792e-08
-2.84497e-08
-3.31764e-08
-3.78607e-08
-4.25052e-08
-4.71112e-08
-5.16808e-08
-5.62155e-08
-6.07173e-08
-6.51873e-08
-6.96275e-08
-7.4039e-08
-7.84236e-08
-8.27821e-08
-8.71163e-08
-9.14271e-08
-9.5716e-08
-9.99837e-08
-1.04232e-07
-1.08461e-07
-1.12672e-07
-1.16866e-07
-1.21045e-07
-1.25208e-07
-1.29357e-07
-1.33492e-07
-1.37615e-07
-1.41725e-07
-1.45824e-07
-1.49913e-07
-1.53991e-07
-1.58059e-07
-1.62119e-07
-1.6617e-07
-1.70213e-07
-1.74248e-07
-1.78277e-07
-1.82299e-07
-1.86315e-07
-1.90324e-07
-1.94329e-07
-1.98328e-07
-2.02323e-07
-2.06313e-07
-2.10299e-07
-2.14281e-07
-2.1826e-07
-2.22235e-07
-2.26207e-07
-2.30176e-07
-2.34143e-07
-2.38107e-07
-2.4207e-07
-2.4603e-07
-2.49988e-07
-2.53945e-07
-2.579e-07
-2.61854e-07
-2.65807e-07
-2.69758e-07
-2.73709e-07
-2.77659e-07
-2.81609e-07
-2.85558e-07
-2.89507e-07
-2.93455e-07
-2.97404e-07
-3.01352e-07
-3.05301e-07
-3.09249e-07
-3.13198e-07
-3.17148e-07
-3.21098e-07
-3.25048e-07
-3.28999e-07
-3.32951e-07
-3.36904e-07
-3.40857e-07
-3.44812e-07
-3.48767e-07
-3.52724e-07
-3.56682e-07
-3.60642e-07
-3.64602e-07
-3.68564e-07
-3.72528e-07
-3.76493e-07
-3.80459e-07
-3.84428e-07
-3.88398e-07
-3.9237e-07
-3.96344e-07
-4.0032e-07
-4.04297e-07
-4.08277e-07
-4.12259e-07
-4.16244e-07
-4.2023e-07
-4.24219e-07
-4.2821e-07
-4.32203e-07
-4.36199e-07
-4.40198e-07
-4.44199e-07
-4.48203e-07
-4.52209e-07
-4.56218e-07
-4.6023e-07
-4.64245e-07
-4.68263e-07
-4.72284e-07
-4.76308e-07
-4.80335e-07
-4.84365e-07
-4.88398e-07
-4.92434e-07
-4.96474e-07
-5.00517e-07
-5.04564e-07
-5.08614e-07
-5.12668e-07
-5.16725e-07
-5.20786e-07
-5.2485e-07
-5.28919e-07
-5.32991e-07
-5.37067e-07
-5.41147e-07
-5.45231e-07
-5.49318e-07
-5.53411e-07
-5.57507e-07
-5.61607e-07
-5.65711e-07
-5.6982e-07
-5.73934e-07
-5.78051e-07
-5.82173e-07
-5.863e-07
-5.90431e-07
-5.94568e-07
-5.98708e-07
-6.02854e-07
-6.07004e-07
-6.11159e-07
-6.15319e-07
-6.19484e-07
-6.23655e-07
-6.2783e-07
-6.3201e-07
-6.36196e-07
-6.40387e-07
-6.44584e-07
-6.48786e-07
-6.52994e-07
-6.57207e-07
-6.61425e-07
-6.6565e-07
-6.6988e-07
-6.74116e-07
-6.78358e-07
-6.82606e-07
-6.8686e-07
-6.9112e-07
-6.95387e-07
-6.99659e-07
-7.03939e-07
-7.08224e-07
-7.12516e-07
-7.16814e-07
-7.2112e-07
-7.25432e-07
-7.2975e-07
-7.34076e-07
-7.38408e-07
-7.42749e-07
-7.47094e-07
-7.51454e-07
-7.55802e-07
-7.602e-07
-7.64517e-07
-7.69019e-07
-7.73187e-07
-7.77997e-07
-7.81678e-07
-7.87335e-07
-7.89717e-07
-7.97381e-07
-7.969e-07
-8.08547e-07
-8.02891e-07
-8.21001e-07
-8.07788e-07
-8.34323e-07
-8.12321e-07
-8.47567e-07
-8.17517e-07
-8.59779e-07
-8.24186e-07
-8.70303e-07
-8.3291e-07
-8.78672e-07
-8.43977e-07
-8.85191e-07
-8.56328e-07
-8.92171e-07
-8.66995e-07
-9.03158e-07
-8.74448e-07
-9.17059e-07
-8.8684e-07
-9.22059e-07
-9.21174e-07
-9.06191e-07
-9.9393e-07
-8.012e-07
-1.22625e-06
3.41281e-07
-9.26835e-07
-9.26835e-07
-0.125295
0.125295
0.0249386
0.00836097
0.004281
0.00266454
0.00183674
0.00134931
0.0010368
0.000824571
0.000674162
0.000563838
0.000480551
0.000416125
0.0003652
0.000324066
0.000290059
0.000261319
0.000236669
0.0002154
0.000196946
0.000180646
0.000165738
0.000151576
0.000137817
0.000124401
0.000111353
9.85979e-05
8.59947e-05
7.35398e-05
6.1565e-05
5.0732e-05
4.17897e-05
3.52282e-05
3.10335e-05
2.86742e-05
2.73101e-05
2.60964e-05
2.44345e-05
2.20812e-05
1.91147e-05
1.58144e-05
1.25217e-05
9.53173e-06
7.03509e-06
5.10609e-06
3.72306e-06
2.80304e-06
2.23688e-06
1.91641e-06
1.75065e-06
1.67209e-06
1.63598e-06
1.61598e-06
1.59866e-06
1.57858e-06
1.55457e-06
1.52734e-06
1.49811e-06
1.46798e-06
1.43771e-06
1.40775e-06
1.37829e-06
1.34936e-06
1.32093e-06
1.29291e-06
1.26522e-06
1.23779e-06
1.21056e-06
1.18349e-06
1.15655e-06
1.12971e-06
1.10298e-06
1.07634e-06
1.04978e-06
1.02332e-06
9.9695e-07
9.70678e-07
9.44508e-07
9.1845e-07
8.92508e-07
8.66691e-07
8.41007e-07
8.15464e-07
7.9007e-07
7.64835e-07
7.39767e-07
7.14874e-07
6.90164e-07
6.65648e-07
6.41331e-07
6.17223e-07
5.93331e-07
5.69663e-07
5.46225e-07
5.23025e-07
5.00068e-07
4.77362e-07
4.5491e-07
4.3272e-07
4.10795e-07
3.89141e-07
3.6776e-07
3.46657e-07
3.25835e-07
3.05298e-07
2.85046e-07
2.65083e-07
2.45411e-07
2.26031e-07
2.06943e-07
1.88149e-07
1.69649e-07
1.51443e-07
1.33531e-07
1.15912e-07
9.85851e-08
8.15501e-08
6.48045e-08
4.83475e-08
3.21762e-08
1.62895e-08
6.84002e-10
-1.46421e-08
-2.96924e-08
-4.44692e-08
-5.89766e-08
-7.3217e-08
-8.71951e-08
-1.00913e-07
-1.14377e-07
-1.27589e-07
-1.40554e-07
-1.53277e-07
-1.65761e-07
-1.7801e-07
-1.90031e-07
-2.01826e-07
-2.13402e-07
-2.24761e-07
-2.35911e-07
-2.46854e-07
-2.57597e-07
-2.68142e-07
-2.78497e-07
-2.88666e-07
-2.98653e-07
-3.08462e-07
-3.181e-07
-3.27571e-07
-3.3688e-07
-3.4603e-07
-3.55028e-07
-3.63877e-07
-3.72583e-07
-3.8115e-07
-3.89581e-07
-3.97882e-07
-4.06058e-07
-4.14111e-07
-4.22047e-07
-4.29869e-07
-4.37581e-07
-4.45188e-07
-4.52693e-07
-4.601e-07
-4.67413e-07
-4.74635e-07
-4.8177e-07
-4.8882e-07
-4.95791e-07
-5.02684e-07
-5.09503e-07
-5.1625e-07
-5.22929e-07
-5.29543e-07
-5.36094e-07
-5.42585e-07
-5.4902e-07
-5.55399e-07
-5.61726e-07
-5.68002e-07
-5.74231e-07
-5.80414e-07
-5.86554e-07
-5.92652e-07
-5.98711e-07
-6.04732e-07
-6.10718e-07
-6.16668e-07
-6.22587e-07
-6.28475e-07
-6.34333e-07
-6.40163e-07
-6.45967e-07
-6.51746e-07
-6.57501e-07
-6.63233e-07
-6.68944e-07
-6.74634e-07
-6.80305e-07
-6.85958e-07
-6.91594e-07
-6.97213e-07
-7.02818e-07
-7.08407e-07
-7.13983e-07
-7.19545e-07
-7.25096e-07
-7.30635e-07
-7.36163e-07
-7.41681e-07
-7.4719e-07
-7.52689e-07
-7.5818e-07
-7.63663e-07
-7.69139e-07
-7.74607e-07
-7.8007e-07
-7.85526e-07
-7.90976e-07
-7.96421e-07
-8.01862e-07
-8.07298e-07
-8.1273e-07
-8.18157e-07
-8.23582e-07
-8.29003e-07
-8.34421e-07
-8.39837e-07
-8.4525e-07
-8.5066e-07
-8.56069e-07
-8.61476e-07
-8.66882e-07
-8.72286e-07
-8.77689e-07
-8.83091e-07
-8.88492e-07
-8.93893e-07
-8.99293e-07
-9.04693e-07
-9.10093e-07
-9.15493e-07
-9.20893e-07
-9.26293e-07
-9.31694e-07
-9.37095e-07
-9.42497e-07
-9.479e-07
-9.53304e-07
-9.58708e-07
-9.64115e-07
-9.69522e-07
-9.74931e-07
-9.80341e-07
-9.85753e-07
-9.91166e-07
-9.96581e-07
-1.002e-06
-1.00742e-06
-1.01284e-06
-1.01826e-06
-1.02369e-06
-1.02912e-06
-1.03455e-06
-1.03998e-06
-1.04541e-06
-1.05085e-06
-1.05629e-06
-1.06174e-06
-1.06718e-06
-1.07263e-06
-1.07809e-06
-1.08354e-06
-1.089e-06
-1.09447e-06
-1.09993e-06
-1.1054e-06
-1.11087e-06
-1.11635e-06
-1.12183e-06
-1.12732e-06
-1.1328e-06
-1.1383e-06
-1.14379e-06
-1.14929e-06
-1.1548e-06
-1.16031e-06
-1.16582e-06
-1.17134e-06
-1.17686e-06
-1.18238e-06
-1.18792e-06
-1.19345e-06
-1.19899e-06
-1.20454e-06
-1.21009e-06
-1.21564e-06
-1.2212e-06
-1.22677e-06
-1.23234e-06
-1.23791e-06
-1.2435e-06
-1.24908e-06
-1.25467e-06
-1.26027e-06
-1.26588e-06
-1.27149e-06
-1.2771e-06
-1.28272e-06
-1.28835e-06
-1.29398e-06
-1.29962e-06
-1.30527e-06
-1.31092e-06
-1.31657e-06
-1.32224e-06
-1.32791e-06
-1.33359e-06
-1.33927e-06
-1.34496e-06
-1.35066e-06
-1.35637e-06
-1.36208e-06
-1.3678e-06
-1.37352e-06
-1.37926e-06
-1.385e-06
-1.39074e-06
-1.3965e-06
-1.40226e-06
-1.40804e-06
-1.41381e-06
-1.4196e-06
-1.4254e-06
-1.4312e-06
-1.43701e-06
-1.44283e-06
-1.44866e-06
-1.4545e-06
-1.46034e-06
-1.4662e-06
-1.47206e-06
-1.47793e-06
-1.48381e-06
-1.4897e-06
-1.4956e-06
-1.50151e-06
-1.50743e-06
-1.51336e-06
-1.51929e-06
-1.52524e-06
-1.5312e-06
-1.53717e-06
-1.54315e-06
-1.54913e-06
-1.55515e-06
-1.56113e-06
-1.56721e-06
-1.57312e-06
-1.57941e-06
-1.585e-06
-1.59192e-06
-1.59649e-06
-1.60517e-06
-1.60699e-06
-1.61991e-06
-1.61566e-06
-1.63702e-06
-1.62174e-06
-1.65688e-06
-1.62543e-06
-1.67862e-06
-1.62828e-06
-1.70019e-06
-1.63252e-06
-1.71953e-06
-1.63987e-06
-1.73527e-06
-1.65157e-06
-1.74638e-06
-1.66831e-06
-1.7534e-06
-1.68792e-06
-1.76128e-06
-1.70392e-06
-1.77783e-06
-1.71282e-06
-1.80098e-06
-1.73193e-06
-1.80551e-06
-1.79783e-06
-1.7661e-06
-1.94429e-06
-1.5429e-06
-2.41861e-06
8.13633e-07
-1.7907e-06
-1.7907e-06
-0.14649
0.14649
0.0383134
0.0142372
0.00745927
0.00467602
0.0032338
0.00237971
0.00183017
0.00145608
0.00119047
0.00099539
0.000847997
0.000733919
0.000643702
0.00057079
0.000510501
0.000459579
0.000415942
0.000378286
0.00034556
0.000316577
0.000290037
0.000264852
0.000240432
0.000216633
0.000193443
0.000170727
0.000148304
0.000126274
0.0001053
8.65452e-05
7.12364e-05
6.00963e-05
5.29754e-05
4.88776e-05
4.63414e-05
4.39539e-05
4.07542e-05
3.63917e-05
3.10475e-05
2.52209e-05
1.94942e-05
1.43555e-05
1.01079e-05
6.85645e-06
4.54685e-06
3.02635e-06
2.10298e-06
1.59052e-06
1.33449e-06
1.22151e-06
1.1772e-06
1.15821e-06
1.14276e-06
1.12227e-06
1.0951e-06
1.06261e-06
1.02693e-06
9.89901e-07
9.52808e-07
9.16367e-07
8.80878e-07
8.4639e-07
8.1281e-07
7.79998e-07
7.47803e-07
7.16097e-07
6.84774e-07
6.53753e-07
6.22977e-07
5.92405e-07
5.62008e-07
5.31769e-07
5.01675e-07
4.71722e-07
4.41906e-07
4.12228e-07
3.82688e-07
3.53293e-07
3.24045e-07
2.94951e-07
2.66017e-07
2.37252e-07
2.08661e-07
1.80255e-07
1.52039e-07
1.24025e-07
9.6219e-08
6.8631e-08
4.12677e-08
1.41391e-08
-1.27485e-08
-3.93859e-08
-6.57673e-08
-9.18841e-08
-1.17731e-07
-1.43302e-07
-1.6859e-07
-1.9359e-07
-2.18299e-07
-2.4271e-07
-2.66821e-07
-2.90626e-07
-3.14125e-07
-3.37312e-07
-3.60188e-07
-3.82748e-07
-4.04993e-07
-4.2692e-07
-4.48529e-07
-4.6982e-07
-4.90793e-07
-5.11447e-07
-5.31784e-07
-5.51804e-07
-5.7151e-07
-5.90901e-07
-6.09981e-07
-6.28751e-07
-6.47213e-07
-6.65371e-07
-6.83227e-07
-7.00783e-07
-7.18045e-07
-7.35013e-07
-7.51695e-07
-7.6809e-07
-7.84206e-07
-8.00045e-07
-8.15613e-07
-8.30912e-07
-8.4595e-07
-8.60728e-07
-8.75253e-07
-8.89529e-07
-9.03562e-07
-9.17356e-07
-9.30917e-07
-9.44249e-07
-9.57358e-07
-9.70248e-07
-9.82927e-07
-9.95397e-07
-1.00766e-06
-1.01974e-06
-1.03161e-06
-1.04331e-06
-1.05482e-06
-1.06615e-06
-1.07731e-06
-1.08831e-06
-1.09915e-06
-1.10982e-06
-1.12035e-06
-1.13073e-06
-1.14097e-06
-1.15107e-06
-1.16104e-06
-1.17088e-06
-1.1806e-06
-1.1902e-06
-1.19968e-06
-1.20905e-06
-1.21831e-06
-1.22747e-06
-1.23654e-06
-1.2455e-06
-1.25438e-06
-1.26317e-06
-1.27187e-06
-1.28049e-06
-1.28903e-06
-1.2975e-06
-1.3059e-06
-1.31423e-06
-1.32249e-06
-1.33069e-06
-1.33884e-06
-1.34692e-06
-1.35495e-06
-1.36292e-06
-1.37085e-06
-1.37873e-06
-1.38656e-06
-1.39435e-06
-1.4021e-06
-1.40981e-06
-1.41748e-06
-1.42512e-06
-1.43272e-06
-1.44029e-06
-1.44783e-06
-1.45534e-06
-1.46282e-06
-1.47028e-06
-1.47771e-06
-1.48512e-06
-1.49251e-06
-1.49987e-06
-1.50722e-06
-1.51454e-06
-1.52185e-06
-1.52914e-06
-1.53642e-06
-1.54368e-06
-1.55093e-06
-1.55816e-06
-1.56538e-06
-1.57259e-06
-1.57979e-06
-1.58698e-06
-1.59416e-06
-1.60133e-06
-1.60849e-06
-1.61564e-06
-1.62279e-06
-1.62993e-06
-1.63706e-06
-1.64419e-06
-1.65131e-06
-1.65842e-06
-1.66554e-06
-1.67264e-06
-1.67975e-06
-1.68685e-06
-1.69395e-06
-1.70104e-06
-1.70813e-06
-1.71522e-06
-1.72231e-06
-1.7294e-06
-1.73648e-06
-1.74357e-06
-1.75065e-06
-1.75773e-06
-1.76481e-06
-1.7719e-06
-1.77898e-06
-1.78606e-06
-1.79314e-06
-1.80022e-06
-1.80731e-06
-1.81439e-06
-1.82147e-06
-1.82856e-06
-1.83565e-06
-1.84273e-06
-1.84983e-06
-1.85692e-06
-1.86401e-06
-1.87111e-06
-1.8782e-06
-1.8853e-06
-1.89241e-06
-1.89951e-06
-1.90662e-06
-1.91373e-06
-1.92085e-06
-1.92796e-06
-1.93508e-06
-1.9422e-06
-1.94933e-06
-1.95646e-06
-1.9636e-06
-1.97073e-06
-1.97787e-06
-1.98502e-06
-1.99217e-06
-1.99932e-06
-2.00648e-06
-2.01364e-06
-2.0208e-06
-2.02797e-06
-2.03515e-06
-2.04233e-06
-2.04951e-06
-2.0567e-06
-2.0639e-06
-2.0711e-06
-2.0783e-06
-2.08551e-06
-2.09273e-06
-2.09995e-06
-2.10718e-06
-2.11441e-06
-2.12165e-06
-2.12889e-06
-2.13614e-06
-2.14339e-06
-2.15066e-06
-2.15792e-06
-2.1652e-06
-2.17248e-06
-2.17977e-06
-2.18706e-06
-2.19436e-06
-2.20167e-06
-2.20898e-06
-2.2163e-06
-2.22363e-06
-2.23097e-06
-2.23831e-06
-2.24566e-06
-2.25302e-06
-2.26038e-06
-2.26776e-06
-2.27514e-06
-2.28253e-06
-2.28992e-06
-2.29733e-06
-2.30474e-06
-2.31216e-06
-2.31959e-06
-2.32703e-06
-2.33448e-06
-2.34193e-06
-2.3494e-06
-2.35687e-06
-2.36435e-06
-2.37184e-06
-2.37935e-06
-2.38686e-06
-2.39437e-06
-2.4019e-06
-2.40944e-06
-2.41699e-06
-2.42455e-06
-2.43212e-06
-2.4397e-06
-2.44729e-06
-2.45489e-06
-2.4625e-06
-2.47012e-06
-2.47775e-06
-2.48539e-06
-2.49305e-06
-2.50071e-06
-2.50839e-06
-2.51608e-06
-2.52378e-06
-2.53149e-06
-2.53921e-06