# vtk DataFile Version 2.0
FlowField
ASCII
DATASET STRUCTURED_GRID
DIMENSIONS 400 1 200
POINTS 80000 float
0 0 0
0.08 0 0
0.16 0 0
0.24 0 0
0.32 0 0
0.4 0 0
0.48 0 0
0.56 0 0
0.64 0 0
0.72 0 0
0.8 0 0
0.88 0 0
0.96 0 0
1.04 0 0
1.12 0 0
1.2 0 0
1.28 0 0
1.36 0 0
1.44 0 0
1.52 0 0
1.6 0 0
1.68 0 0
1.76 0 0
1.84 0 0
1.92 0 0
2 0 0
2.08 0 0
2.16 0 0
2.24 0 0
2.32 0 0
2.4 0 0
2.48 0 0
2.56 0 0
2.64 0 0
2.72 0 0
2.8 0 0
2.88 0 0
2.96 0 0
3.04 0 0
3.12 0 0
3.2 0 0
3.28 0 0
3.36 0 0
3.44 0 0
3.52 0 0
3.6 0 0
3.68 0 0
3.76 0 0
3.84 0 0
3.92 0 0
4 0 0
4.08 0 0
4.16 0 0
4.24 0 0
4.32 0 0
4.4 0 0
4.48 0 0
4.56 0 0
4.64 0 0
4.72 0 0
4.8 0 0
4.88 0 0
4.96 0 0
5.04 0 0
5.12 0 0
5.2 0 0
5.28 0 0
5.36 0 0
5.44 0 0
5.52 0 0
5.6 0 0
5.68 0 0
5.76 0 0
5.84 0 0
5.92 0 0
6 0 0
6.08 0 0
6.16 0 0
6.24 0 0
6.32 0 0
6.4 0 0
6.48 0 0
6.56 0 0
6.64 0 0
6.72 0 0
6.8 0 0
6.88 0 0
6.96 0 0
7.04 0 0
7.12 0 0
7.2 0 0
7.28 0 0
7.36 0 0
7.44 0 0
7.52 0 0
7.6 0 0
7.68 0 0
7.76 0 0
7.84 0 0
7.92 0 0
8 0 0
8.08 0 0
8.16 0 0
8.24 0 0
8.32 0 0
8.4 0 0
8.48 0 0
8.56 0 0
8.64 0 0
8.72 0 0
8.8 0 0
8.88 0 0
8.96 0 0
9.04 0 0
9.12 0 0
9.2 0 0
9.28 0 0
9.36 0 0
9.44 0 0
9.52 0 0
9.6 0 0
9.68 0 0
9.76 0 0
9.84 0 0
9.92 0 0
10 0 0
10.08 0 0
10.16 0 0
10.24 0 0
10.32 0 0
10.4 0 0
10.48 0 0
10.56 0 0
10.64 0 0
10.72 0 0
10.8 0 0
10.88 0 0
10.96 0 0
11.04 0 0
11.12 0 0
11.2 0 0
11.28 0 0
11.36 0 0
11.44 0 0
11.52 0 0
11.6 0 0
11.68 0 0
11.76 0 0
11.84 0 0
11.92 0 0
12 0 0
12.08 0 0
12.16 0 0
12.24 0 0
12.32 0 0
12.4 0 0
12.48 0 0
12.56 0 0
12.64 0 0
12.72 0 0
12.8 0 0
12.88 0 0
12.96 0 0
13.04 0 0
13.12 0 0
13.2 0 0
13.28 0 0
13.36 0 0
13.44 0 0
13.52 0 0
13.6 0 0
13.68 0 0
13.76 0 0
13.84 0 0
13.92 0 0
14 0 0
14.08 0 0
14.16 0 0
14.24 0 0
14.32 0 0
14.4 0 0
14.48 0 0
14.56 0 0
14.64 0 0
14.72 0 0
14.8 0 0
14.88 0 0
14.96 0 0
15.04 0 0
15.12 0 0
15.2 0 0
15.28 0 0
15.36 0 0
15.44 0 0
15.52 0 0
15.6 0 0
15.68 0 0
15.76 0 0
15.84 0 0
15.92 0 0
16 0 0
16.08 0 0
16.16 0 0
16.24 0 0
16.32 0 0
16.4 0 0
16.48 0 0
16.56 0 0
16.64 0 0
16.72 0 0
16.8 0 0
16.88 0 0
16.96 0 0
17.04 0 0
17.12 0 0
17.2 0 0
17.28 0 0
17.36 0 0
17.44 0 0
17.52 0 0
17.6 0 0
17.68 0 0
17.76 0 0
17.84 0 0
17.92 0 0
18 0 0
18.08 0 0
18.16 0 0
18.24 0 0
18.32 0 0
18.4 0 0
18.48 0 0
18.56 0 0
18.64 0 0
18.72 0 0
18.8 0 0
18.88 0 0
18.96 0 0
19.04 0 0
19.12 0 0
19.2 0 0
19.28 0 0
19.36 0 0
19.44 0 0
19.52 0 0
19.6 0 0
19.68 0 0
19.76 0 0
19.84 0 0
19.92 0 0
20 0 0
20.08 0 0
20.16 0 0
20.24 0 0
20.32 0 0
20.4 0 0
20.48 0 0
20.56 0 0
20.64 0 0
20.72 0 0
20.8 0 0
20.88 0 0
20.96 0 0
21.04 0 0
21.12 0 0
21.2 0 0
21.28 0 0
21.36 0 0
21.44 0 0
21.52 0 0
21.6 0 0
21.68 0 0
21.76 0 0
21.84 0 0
21.92 0 0
22 0 0
22.08 0 0
22.16 0 0
22.24 0 0
22.32 0 0
22.4 0 0
22.48 0 0
22.56 0 0
22.64 0 0
22.72 0 0
22.8 0 0
22.88 0 0
22.96 0 0
23.04 0 0
23.12 0 0
23.2 0 0
23.28 0 0
23.36 0 0
23.44 0 0
23.52 0 0
23.6 0 0
23.68 0 0
23.76 0 0
23.84 0 0
23.92 0 0
24 0 0
24.08 0 0
24.16 0 0
24.24 0 0
24.32 0 0
24.4 0 0
24.48 0 0
24.56 0 0
24.64 0 0
24.72 0 0
24.8 0 0
24.88 0 0
24.96 0 0
25.04 0 0
25.12 0 0
25.2 0 0
25.28 0 0
25.36 0 0
25.44 0 0
25.52 0 0
25.6 0 0
25.68 0 0
25.76 0 0
25.84 0 0
25.92 0 0
26 0 0
26.08 0 0
26.16 0 0
26.24 0 0
26.32 0 0
26.4 0 0
26.48 0 0
26.56 0 0
26.64 0 0
26.72 0 0
26.8 0 0
26.88 0 0
26.96 0 0
27.04 0 0
27.12 0 0
27.2 0 0
27.28 0 0
27.36 0 0
27.44 0 0
27.52 0 0
27.6 0 0
27.68 0 0
27.76 0 0
27.84 0 0
27.92 0 0
28 0 0
28.08 0 0
28.16 0 0
28.24 0 0
28.32 0 0
28.4 0 0
28.48 0 0
28.56 0 0
28.64 0 0
28.72 0 0
28.8 0 0
28.88 0 0
28.96 0 0
29.04 0 0
29.12 0 0
29.2 0 0
29.28 0 0
29.36 0 0
29.44 0 0
29.52 0 0
29.6 0 0
29.68 0 0
29.76 0 0
29.84 0 0
29.92 0 0
30 0 0
30.08 0 0
30.16 0 0
30.24 0 0
30.32 0 0
30.4 0 0
30.48 0 0
30.56 0 0
30.64 0 0
30.72 0 0
30.8 0 0
30.88 0 0
30.96 0 0
31.04 0 0
31.12 0 0
31.2 0 0
31.28 0 0
31.36 0 0
31.44 0 0
31.52 0 0
31.6 0 0
31.68 0 0
31.76 0 0
31.84 0 0
31.92 0 0
0 0.005 0
0.08 0.005 0
0.16 0.005 0
0.24 0.005 0
0.32 0.005 0
0.4 0.005 0
0.48 0.005 0
0.56 0.005 0
0.64 0.005 0
0.72 0.005 0
0.8 0.005 0
0.88 0.005 0
0.96 0.005 0
1.04 0.005 0
1.12 0.005 0
1.2 0.005 0
1.28 0.005 0
1.36 0.005 0
1.44 0.005 0
1.52 0.005 0
1.6 0.005 0
1.68 0.005 0
1.76 0.005 0
1.84 0.005 0
1.92 0.005 0
2 0.005 0
2.08 0.005 0
2.16 0.005 0
2.24 0.005 0
2.32 0.005 0
2.4 0.005 0
2.48 0.005 0
2.56 0.005 0
2.64 0.005 0
2.72 0.005 0
2.8 0.005 0
2.88 0.005 0
2.96 0.005 0
3.04 0.005 0
3.12 0.005 0
3.2 0.005 0
3.28 0.005 0
3.36 0.005 0
3.44 0.005 0
3.52 0.005 0
3.6 0.005 0
3.68 0.005 0
3.76 0.005 0
3.84 0.005 0
3.92 0.005 0
4 0.005 0
4.08 0.005 0
4.16 0.005 0
4.24 0.005 0
4.32 0.005 0
4.4 0.005 0
4.48 0.005 0
4.56 0.005 0
4.64 0.005 0
4.72 0.005 0
4.8 0.005 0
4.88 0.005 0
4.96 0.005 0
5.04 0.005 0
5.12 0.005 0
5.2 0.005 0
5.28 0.005 0
5.36 0.005 0
5.44 0.005 0
5.52 0.005 0
5.6 0.005 0
5.68 0.005 0
5.76 0.005 0
5.84 0.005 0
5.92 0.005 0
6 0.005 0
6.08 0.005 0
6.16 0.005 0
6.24 0.005 0
6.32 0.005 0
6.4 0.005 0
6.48 0.005 0
6.56 0.005 0
6.64 0.005 0
6.72 0.005 0
6.8 0.005 0
6.88 0.005 0
6.96 0.005 0
7.04 0.005 0
7.12 0.005 0
7.2 0.005 0
7.28 0.005 0
7.36 0.005 0
7.44 0.005 0
7.52 0.005 0
7.6 0.005 0
7.68 0.005 0
7.76 0.005 0
7.84 0.005 0
7.92 0.005 0
8 0.005 0
8.08 0.005 0
8.16 0.005 0
8.24 0.005 0
8.32 0.005 0
8.4 0.005 0
8.48 0.005 0
8.56 0.005 0
8.64 0.005 0
8.72 0.005 0
8.8 0.005 0
8.88 0.005 0
8.96 0.005 0
9.04 0.005 0
9.12 0.005 0
9.2 0.005 0
9.28 0.005 0
9.36 0.005 0
9.44 0.005 0
9.52 0.005 0
9.6 0.005 0
9.68 0.005 0
9.76 0.005 0
9.84 0.005 0
9.92 0.005 0
10 0.005 0
10.08 0.005 0
10.16 0.005 0
10.24 0.005 0
10.32 0.005 0
10.4 0.005 0
10.48 0.005 0
10.56 0.005 0
10.64 0.005 0
10.72 0.005 0
10.8 0.005 0
10.88 0.005 0
10.96 0.005 0
11.04 0.005 0
11.12 0.005 0
11.2 0.005 0
11.28 0.005 0
11.36 0.005 0
11.44 0.005 0
11.52 0.005 0
11.6 0.005 0
11.68 0.005 0
11.76 0.005 0
11.84 0.005 0
11.92 0.005 0
12 0.005 0
12.08 0.005 0
12.16 0.005 0
12.24 0.005 0
12.32 0.005 0
12.4 0.005 0
12.48 0.005 0
12.56 0.005 0
12.64 0.005 0
12.72 0.005 0
12.8 0.005 0
12.88 0.005 0
12.96 0.005 0
13.04 0.005 0
13.12 0.005 0
13.2 0.005 0
13.28 0.005 0
13.36 0.005 0
13.44 0.005 0
13.52 0.005 0
13.6 0.005 0
13.68 0.005 0
13.76 0.005 0
13.84 0.005 0
13.92 0.005 0
14 0.005 0
14.08 0.005 0
14.16 0.005 0
14.24 0.005 0
14.32 0.005 0
14.4 0.005 0
14.48 0.005 0
14.56 0.005 0
14.64 0.005 0
14.72 0.005 0
14.8 0.005 0
14.88 0.005 0
14.96 0.005 0
15.04 0.005 0
15.12 0.005 0
15.2 0.005 0
15.28 0.005 0
15.36 0.005 0
15.44 0.005 0
15.52 0.005 0
15.6 0.005 0
15.68 0.005 0
15.76 0.005 0
15.84 0.005 0
15.92 0.005 0
16 0.005 0
16.08 0.005 0
16.16 0.005 0
16.24 0.005 0
16.32 0.005 0
16.4 0.005 0
16.48 0.005 0
16.56 0.005 0
16.64 0.005 0
16.72 0.005 0
16.8 0.005 0
16.88 0.005 0
16.96 0.005 0
17.04 0.005 0
17.12 0.005 0
17.2 0.005 0
17.28 0.005 0
17.36 0.005 0
17.44 0.005 0
17.52 0.005 0
17.6 0.005 0
17.68 0.005 0
17.76 0.005 0
17.84 0.005 0
17.92 0.005 0
18 0.005 0
18.08 0.005 0
18.16 0.005 0
18.24 0.005 0
18.32 0.005 0
18.4 0.005 0
18.48 0.005 0
18.56 0.005 0
18.64 0.005 0
18.72 0.005 0
18.8 0.005 0
18.88 0.005 0
18.96 0.005 0
19.04 0.005 0
19.12 0.005 0
19.2 0.005 0
19.28 0.005 0
19.36 0.005 0
19.44 0.005 0
19.52 0.005 0
19.6 0.005 0
19.68 0.005 0
19.76 0.005 0
19.84 0.005 0
19.92 0.005 0
20 0.005 0
20.08 0.005 0
20.16 0.005 0
20.24 0.005 0
20.32 0.005 0
20.4 0.005 0
20.48 0.005 0
20.56 0.005 0
20.64 0.005 0
20.72 0.005 0
20.8 0.005 0
20.88 0.005 0
20.96 0.005 0
21.04 0.005 0
21.12 0.005 0
21.2 0.005 0
21.28 0.005 0
21.36 0.005 0
21.44 0.005 0
21.52 0.005 0
21.6 0.005 0
21.68 0.005 0
21.76 0.005 0
21.84 0.005 0
21.92 0.005 0
22 0.005 0
22.08 0.005 0
22.16 0.005 0
22.24 0.005 0
22.32 0.005 0
22.4 0.005 0
22.48 0.005 0
22.56 0.005 0
22.64 0.005 0
22.72 0.005 0
22.8 0.005 0
22.88 0.005 0
22.96 0.005 0
23.04 0.005 0
23.12 0.005 0
23.2 0.005 0
23.28 0.005 0
23.36 0.005 0
23.44 0.005 0
23.52 0.005 0
23.6 0.005 0
23.68 0.005 0
23.76 0.005 0
23.84 0.005 0
23.92 0.005 0
24 0.005 0
24.08 0.005 0
24.16 0.005 0
24.24 0.005 0
24.32 0.005 0
24.4 0.005 0
24.48 0.005 0
24.56 0.005 0
24.64 0.005 0
24.72 0.005 0
24.8 0.005 0
24.88 0.005 0
24.96 0.005 0
25.04 0.005 0
25.12 0.005 0
25.2 0.005 0
25.28 0.005 0
25.36 0.005 0
25.44 0.005 0
25.52 0.005 0
25.6 0.005 0
25.68 0.005 0
25.76 0.005 0
25.84 0.005 0
25.92 0.005 0
26 0.005 0
26.08 0.005 0
26.16 0.005 0
26.24 0.005 0
26.32 0.005 0
26.4 0.005 0
26.48 0.005 0
26.56 0.005 0
26.64 0.005 0
26.72 0.005 0
26.8 0.005 0
26.88 0.005 0
26.96 0.005 0
27.04 0.005 0
27.12 0.005 0
27.2 0.005 0
27.28 0.005 0
27.36 0.005 0
27.44 0.005 0
27.52 0.005 0
27.6 0.005 0
27.68 0.005 0
27.76 0.005 0
27.84 0.005 0
27.92 0.005 0
28 0.005 0
28.08 0.005 0
28.16 0.005 0
28.24 0.005 0
28.32 0.005 0
28.4 0.005 0
28.48 0.005 0
28.56 0.005 0
28.64 0.005 0
28.72 0.005 0
28.8 0.005 0
28.88 0.005 0
28.96 0.005 0
29.04 0.005 0
29.12 0.005 0
29.2 0.005 0
29.28 0.005 0
29.36 0.005 0
29.44 0.005 0
29.52 0.005 0
29.6 0.005 0
29.68 0.005 0
29.76 0.005 0
29.84 0.005 0
29.92 0.005 0
30 0.005 0
30.08 0.005 0
30.16 0.005 0
30.24 0.005 0
30.32 0.005 0
30.4 0.005 0
30.48 0.005 0
30.56 0.005 0
30.64 0.005 0
30.72 0.005 0
30.8 0.005 0
30.88 0.005 0
30.96 0.005 0
31.04 0.005 0
31.12 0.005 0
31.2 0.005 0
31.28 0.005 0
31.36 0.005 0
31.44 0.005 0
31.52 0.005 0
31.6 0.005 0
31.68 0.005 0
31.76 0.005 0
31.84 0.005 0
31.92 0.005 0
0 0.01 0
0.08 0.01 0
0.16 0.01 0
0.24 0.01 0
0.32 0.01 0
0.4 0.01 0
0.48 0.01 0
0.56 0.01 0
0.64 0.01 0
0.72 0.01 0
0.8 0.01 0
0.88 0.01 0
0.96 0.01 0
1.04 0.01 0
1.12 0.01 0
1.2 0.01 0
1.28 0.01 0
1.36 0.01 0
1.44 0.01 0
1.52 0.01 0
1.6 0.01 0
1.68 0.01 0
1.76 0.01 0
1.84 0.01 0
1.92 0.01 0
2 0.01 0
2.08 0.01 0
2.16 0.01 0
2.24 0.01 0
2.32 0.01 0
2.4 0.01 0
2.48 0.01 0
2.56 0.01 0
2.64 0.01 0
2.72 0.01 0
2.8 0.01 0
2.88 0.01 0
2.96 0.01 0
3.04 0.01 0
3.12 0.01 0
3.2 0.01 0
3.28 0.01 0
3.36 0.01 0
3.44 0.01 0
3.52 0.01 0
3.6 0.01 0
3.68 0.01 0
3.76 0.01 0
3.84 0.01 0
3.92 0.01 0
4 0.01 0
4.08 0.01 0
4.16 0.01 0
4.24 0.01 0
4.32 0.01 0
4.4 0.01 0
4.48 0.01 0
4.56 0.01 0
4.64 0.01 0
4.72 0.01 0
4.8 0.01 0
4.88 0.01 0
4.96 0.01 0
5.04 0.01 0
5.12 0.01 0
[...]
POINT_DATA 80000

SCALARS u float 1
LOOKUP_TABLE default
0
-0.131663
-0.0682695
-0.0522964
-0.0444203
-0.0395772
-0.0362602
-0.0338332
-0.0319732
-0.0304966
-0.0292906
-0.0282823
-0.0274228
-0.0266782
-0.0260243
-0.0254435
-0.0249226
-0.0244517
-0.0240231
-0.0236307
-0.0232697
-0.022936
-0.0226265
-0.0223384
-0.0220694
-0.0218176
-0.0215812
-0.0213589
-0.0211493
-0.0209513
-0.0207642
-0.0205869
-0.0204187
-0.0202588
-0.0201067
-0.019962
-0.0198243
-0.0196932
-0.0195682
-0.0194489
-0.0193351
-0.0192266
-0.0191234
-0.0190257
-0.0189336
-0.018847
-0.0187659
-0.0186902
-0.0186198
-0.0185549
-0.0184956
-0.0184416
-0.0183926
-0.0183479
-0.0183069
-0.0182688
-0.0182334
-0.0182004
-0.01817
-0.0181423
-0.0181173
-0.0180949
-0.0180748
-0.0180564
-0.0180394
-0.0180235
-0.0180083
-0.017994
-0.0179806
-0.0179684
-0.0179576
-0.0179483
-0.0179407
-0.0179347
-0.0179302
-0.0179269
-0.0179248
-0.0179235
-0.0179228
-0.0179226
-0.0179228
-0.0179232
-0.0179237
-0.0179243
-0.017925
-0.0179257
-0.0179265
-0.0179273
-0.017928
-0.0179288
-0.0179297
-0.0179305
-0.0179313
-0.0179321
-0.017933
-0.0179338
-0.0179346
-0.0179354
-0.0179363
-0.0179371
-0.0179379
-0.0179388
-0.0179396
-0.0179404
-0.0179413
-0.0179421
-0.0179429
-0.0179438
-0.0179446
-0.0179454
-0.0179463
-0.0179471
-0.0179479
-0.0179488
-0.0179496
-0.0179504
-0.0179513
-0.0179521
-0.017953
-0.0179538
-0.0179546
-0.0179555
-0.0179563
-0.0179572
-0.017958
-0.0179588
-0.0179597
-0.0179605
-0.0179614
-0.0179622
-0.0179631
-0.0179639
-0.0179648
-0.0179656
-0.0179664
-0.0179673
-0.0179681
-0.017969
-0.0179698
-0.0179707
-0.0179715
-0.0179724
-0.0179732
-0.0179741
-0.0179749
-0.0179758
-0.0179766
-0.0179775
-0.0179783
-0.0179792
-0.0179801
-0.0179809
-0.0179818
-0.0179826
-0.0179835
-0.0179843
-0.0179852
-0.017986
-0.0179869
-0.0179878
-0.0179886
-0.0179895
-0.0179903
-0.0179912
-0.0179921
-0.0179929
-0.0179938
-0.0179946
-0.0179955
-0.0179964
-0.0179972
-0.0179981
-0.017999
-0.0179998
-0.0180007
-0.0180016
-0.0180024
-0.0180033
-0.0180042
-0.018005
-0.0180059
-0.0180068
-0.0180076
-0.0180085
-0.0180094
-0.0180102
-0.0180111
-0.018012
-0.0180129
-0.0180137
-0.0180146
-0.0180155
-0.0180163
-0.0180172
-0.0180181
-0.018019
-0.0180198
-0.0180207
-0.0180216
-0.0180225
-0.0180234
-0.0180242
-0.0180251
-0.018026
-0.0180269
-0.0180278
-0.0180286
-0.0180295
-0.0180304
-0.0180313
-0.0180322
-0.018033
-0.0180339
-0.0180348
-0.0180357
-0.0180366
-0.0180375
-0.0180384
-0.0180392
-0.0180401
-0.018041
-0.0180419
-0.0180428
-0.0180437
-0.0180446
-0.0180455
-0.0180464
-0.0180473
-0.0180481
-0.018049
-0.0180499
-0.0180508
-0.0180517
-0.0180526
-0.0180535
-0.0180544
-0.0180553
-0.0180562
-0.0180571
-0.018058
-0.0180589
-0.0180598
-0.0180607
-0.0180616
-0.0180625
-0.0180634
-0.0180643
-0.0180652
-0.0180661
-0.018067
-0.0180679
-0.0180688
-0.0180697
-0.0180706
-0.0180715
-0.0180724
-0.0180733
-0.0180742
-0.0180752
-0.0180761
-0.018077
-0.0180779
-0.0180788
-0.0180797
-0.0180806
-0.0180815
-0.0180824
-0.0180833
-0.0180843
-0.0180852
-0.0180861
-0.018087
-0.0180879
-0.0180888
-0.0180897
-0.0180907
-0.0180916
-0.0180925
-0.0180934
-0.0180943
-0.0180953
-0.0180962
-0.0180971
-0.018098
-0.0180989
-0.0180999
-0.0181008
-0.0181017
-0.0181026
-0.0181036
-0.0181045
-0.0181054
-0.0181063
-0.0181073
-0.0181082
-0.0181091
-0.01811
-0.018111
-0.0181119
-0.0181128
-0.0181138
-0.0181147
-0.0181156
-0.0181166
-0.0181175
-0.0181184
-0.0181193
-0.0181203
-0.0181212
-0.0181222
-0.0181231
-0.018124
-0.018125
-0.0181259
-0.0181268
-0.0181278
-0.0181287
-0.0181297
-0.0181306
-0.0181315
-0.0181325
-0.0181334
-0.0181344
-0.0181353
-0.0181362
-0.0181372
-0.0181381
-0.0181391
-0.01814
-0.018141
-0.0181419
-0.0181429
-0.0181438
-0.0181448
-0.0181457
-0.0181467
-0.0181476
-0.0181486
-0.0181495
-0.0181505
-0.0181514
-0.0181524
-0.0181533
-0.0181543
-0.0181552
-0.0181562
-0.0181571
-0.0181581
-0.0181591
-0.01816
-0.018161
-0.0181619
-0.0181629
-0.0181639
-0.0181648
-0.0181658
-0.0181667
-0.0181677
-0.0181687
-0.0181696
-0.0181706
-0.0181716
-0.0181725
-0.0181735
-0.0181745
-0.0181754
-0.0181764
-0.0181774
-0.0181783
-0.0181793
-0.0181803
-0.0181812
-0.0181822
-0.0181832
-0.0181841
-0.0181851
-0.0181861
-0.0181871
-0.018188
-0.018189
-0.01819
-0.018191
-0.0181919
-0.0181929
-0.0181939
-0.0181949
-0.0181959
-0.0181969
-0.0181978
-0.0181988
-0.0181998
-0.0182008
-0.0182019
-0.0182027
-0.018204
-0.0182045
-0.0182062
-0.0182047
-0.0182047
-0.0182047
1
0.131663
0.0682695
0.0522964
0.0444203
0.0395772
0.0362602
0.0338332
0.0319732
0.0304966
0.0292906
0.0282823
0.0274228
0.0266782
0.0260243
0.0254435
0.0249226
0.0244517
0.0240231
0.0236307
0.0232697
0.022936
0.0226265
0.0223384
0.0220694
0.0218176
0.0215812
0.0213589
0.0211493
0.0209513
0.0207642
0.0205869
0.0204187
0.0202588
0.0201067
0.019962
0.0198243
0.0196932
0.0195682
0.0194489
0.0193351
0.0192266
0.0191234
0.0190257
0.0189336
0.018847
0.0187659
0.0186902
0.0186198
0.0185549
0.0184956
0.0184416
0.0183926
0.0183479
0.0183069
0.0182688
0.0182334
0.0182004
0.01817
0.0181423
0.0181173
0.0180949
0.0180748
0.0180564
0.0180394
0.0180235
0.0180083
0.017994
0.0179806
0.0179684
0.0179576
0.0179483
0.0179407
0.0179347
0.0179302
0.0179269
0.0179248
0.0179235
0.0179228
0.0179226
0.0179228
0.0179232
0.0179237
0.0179243
0.017925
0.0179257
0.0179265
0.0179273
0.017928
0.0179288
0.0179297
0.0179305
0.0179313
0.0179321
0.017933
0.0179338
0.0179346
0.0179354
0.0179363
0.0179371
0.0179379
0.0179388
0.0179396
0.0179404
0.0179413
0.0179421
0.0179429
0.0179438
0.0179446
0.0179454
0.0179463
0.0179471
0.0179479
0.0179488
0.0179496
0.0179504
0.0179513
0.0179521
0.017953
0.0179538
0.0179546
0.0179555
0.0179563
0.0179572
0.017958
0.0179588
0.0179597
0.0179605
0.0179614
0.0179622
0.0179631
0.0179639
0.0179648
0.0179656
0.0179664
0.0179673
0.0179681
0.017969
0.0179698
0.0179707
0.0179715
0.0179724
0.0179732
0.0179741
0.0179749
0.0179758
0.0179766
0.0179775
0.0179783
0.0179792
0.0179801
0.0179809
0.0179818
0.0179826
0.0179835
0.0179843
0.0179852
0.017986
0.0179869
0.0179878
0.0179886
0.0179895
0.0179903
0.0179912
0.0179921
0.0179929
0.0179938
0.0179946
0.0179955
0.0179964
0.0179972
0.0179981
0.017999
0.0179998
0.0180007
0.0180016
0.0180024
0.0180033
0.0180042
0.018005
0.0180059
0.0180068
0.0180076
0.0180085
0.0180094
0.0180102
0.0180111
0.018012
0.0180129
0.0180137
0.0180146
0.0180155
0.0180163
0.0180172
0.0180181
0.018019
0.0180198
0.0180207
0.0180216
0.0180225
0.0180234
0.0180242
0.0180251
0.018026
0.0180269
0.0180278
0.0180286
0.0180295
0.0180304
0.0180313
0.0180322
0.018033
0.0180339
0.0180348
0.0180357
0.0180366
0.0180375
0.0180384
0.0180392
0.0180401
0.018041
0.0180419
0.0180428
0.0180437
0.0180446
0.0180455
0.0180464
0.0180473
0.0180481
0.018049
0.0180499
0.0180508
0.0180517
0.0180526
0.0180535
0.0180544
0.0180553
0.0180562
0.0180571
0.018058
0.0180589
0.0180598
0.0180607
0.0180616
0.0180625
0.0180634
0.0180643
0.0180652
0.0180661
0.018067
0.0180679
0.0180688
0.0180697
0.0180706
0.0180715
0.0180724
0.0180733
0.0180742
0.0180752
0.0180761
0.018077
0.0180779
0.0180788
0.0180797
0.0180806
0.0180815
0.0180824
0.0180833
0.0180843
0.0180852
0.0180861
0.018087
0.0180879
0.0180888
0.0180897
0.0180907
0.0180916
0.0180925
0.0180934
0.0180943
0.0180953
0.0180962
0.0180971
0.018098
0.0180989
0.0180999
0.0181008
0.0181017
0.0181026
0.0181036
0.0181045
0.0181054
0.0181063
0.0181073
0.0181082
0.0181091
0.01811
0.018111
0.0181119
0.0181128
0.0181138
0.0181147
0.0181156
0.0181166
0.0181175
0.0181184
0.0181193
0.0181203
0.0181212
0.0181222
0.0181231
0.018124
0.018125
0.0181259
0.0181268
0.0181278
0.0181287
0.0181297
0.0181306
0.0181315
0.0181325
0.0181334
0.0181344
0.0181353
0.0181362
0.0181372
0.0181381
0.0181391
0.01814
0.018141
0.0181419
0.0181429
0.0181438
0.0181448
0.0181457
0.0181467
0.0181476
0.0181486
0.0181495
0.0181505
0.0181514
0.0181524
0.0181533
0.0181543
0.0181552
0.0181562
0.0181571
0.0181581
0.0181591
0.01816
0.018161
0.0181619
0.0181629
0.0181639
0.0181648
0.0181658
0.0181667
0.0181677
0.0181687
0.0181696
0.0181706
0.0181716
0.0181725
0.0181735
0.0181745
0.0181754
0.0181764
0.0181774
0.0181783
0.0181793
0.0181803
0.0181812
0.0181822
0.0181832
0.0181841
0.0181851
0.0181861
0.0181871
0.018188
0.018189
0.01819
0.018191
0.0181919
0.0181929
0.0181939
0.0181949
0.0181959
0.0181969
0.0181978
0.0181988
0.0181998
0.0182008
0.0182019
0.0182027
0.018204
0.0182045
0.0182062
0.0182047
0.0182047
0.0182047
1
0.344884
0.200668
0.154968
0.131896
0.1176
0.107769
0.10056
0.0950268
0.090631
0.08704
0.0840382
0.0814802
0.0792651
0.0773208
0.0755948
0.0740477
0.0726498
0.0713781
0.0702143
0.0691439
0.068155
0.0672378
0.0663843
0.0655877
0.0648421
0.0641424
0.0634842
0.0628639
0.0622782
0.0617245
0.0612001
0.0607026
0.06023
0.0597805
0.059353
0.0589462
0.0585591
0.0581903
0.0578385
0.0575031
0.0571837
0.0568805
0.0565939
0.056324
0.0560707
0.0558336
0.0556128
0.0554081
0.0552198
0.0550478
0.0548913
0.0547493
0.0546196
0.0545004
0.0543898
0.0542871
0.0541917
0.0541039
0.054024
0.053952
0.0538872
0.0538288
0.0537755
0.0537262
0.0536798
0.0536361
0.0535951
0.0535572
0.0535229
0.0534929
0.0534675
0.0534468
0.0534306
0.0534185
0.0534101
0.0534046
0.0534014
0.0533999
0.0533997
0.0534004
0.0534016
0.0534033
0.0534052
0.0534073
0.0534095
0.0534118
0.0534141
0.0534165
0.0534189
0.0534213
0.0534238
0.0534262
0.0534287
0.0534311
0.0534336
0.0534361
0.0534386
0.053441
0.0534435
0.053446
0.0534485
0.0534509
0.0534534
0.0534559
0.0534584
0.0534609
0.0534633
0.0534658
0.0534683
0.0534708
0.0534733
0.0534758
0.0534783
0.0534808
0.0534833
0.0534858
0.0534883
0.0534908
0.0534933
0.0534958
0.0534983
0.0535008
0.0535033
0.0535058
0.0535083
0.0535108
0.0535133
0.0535159
0.0535184
0.0535209
0.0535234
0.0535259
0.0535285
0.053531
0.0535335
0.053536
0.0535386
0.0535411
0.0535436
0.0535462
0.0535487
0.0535512
0.0535538
0.0535563
0.0535588
0.0535614
0.0535639
0.0535665
0.053569
0.0535715
0.0535741
0.0535766
0.0535792
0.0535817
0.0535843
0.0535869
0.0535894
0.053592
0.0535945
0.0535971
0.0535996
0.0536022
0.0536048
0.0536073
0.0536099
0.0536125
0.053615
0.0536176
0.0536202
0.0536228
0.0536253
0.0536279
0.0536305
0.0536331
0.0536357
0.0536382
0.0536408
0.0536434
0.053646
0.0536486
0.0536512
0.0536538
0.0536564
0.0536589
0.0536615
0.0536641
0.0536667
0.0536693
0.0536719
0.0536745
0.0536771
0.0536798
0.0536824
0.053685
0.0536876
0.0536902
0.0536928
0.0536954
0.053698
0.0537007
0.0537033
0.0537059
0.0537085
0.0537111
0.0537138
0.0537164
0.053719
0.0537216
0.0537243
0.0537269
0.0537295
0.0537322
0.0537348
0.0537375
0.0537401
0.0537427
0.0537454
0.053748
0.0537507
0.0537533
0.053756
0.0537586
0.0537613
0.0537639
0.0537666
0.0537692
0.0537719
0.0537745
0.0537772
0.0537799
0.0537825
0.0537852
0.0537879
0.0537905
0.0537932
0.0537959
0.0537985
0.0538012
0.0538039
0.0538066
0.0538093
0.0538119
0.0538146
0.0538173
0.05382
0.0538227
0.0538254
0.0538281
0.0538307
0.0538334
0.0538361
0.0538388
0.0538415
0.0538442
0.0538469
0.0538496
0.0538523
0.053855
0.0538577
0.0538605
0.0538632
0.0538659
0.0538686
0.0538713
0.053874
0.0538767
0.0538795
0.0538822
0.0538849
0.0538876
0.0538904
0.0538931
0.0538958
0.0538985
0.0539013
0.053904
0.0539067
0.0539095
0.0539122
0.053915
0.0539177
0.0539204
0.0539232
0.0539259
0.0539287
0.0539314
0.0539342
0.0539369
0.0539397
0.0539424
0.0539452
0.053948
0.0539507
0.0539535
0.0539562
0.053959
0.0539618
0.0539645
0.0539673
0.0539701
0.0539729
0.0539756
0.0539784
0.0539812
0.053984
0.0539868
0.0539895
0.0539923
0.0539951
0.0539979
0.0540007
0.0540035
0.0540063
0.0540091
0.0540119
0.0540147
0.0540175
0.0540203
0.0540231
0.0540259
0.0540287
0.0540315
0.0540343
0.0540371
0.0540399
0.0540427
0.0540456
0.0540484
0.0540512
0.054054
0.0540568
0.0540597
0.0540625
0.0540653
0.0540681
0.054071
0.0540738
0.0540766
0.0540795
0.0540823
0.0540852
0.054088
0.0540908
0.0540937
0.0540965
0.0540994
0.0541022
0.0541051
0.0541079
0.0541108
0.0541137
0.0541165
0.0541194
0.0541222
0.0541251
0.054128
0.0541308
0.0541337
0.0541366
0.0541394
0.0541423
0.0541452
0.0541481
0.0541509
0.0541538
0.0541567
0.0541596
0.0541625
0.0541654
0.0541683
0.0541712
0.054174
0.054177
0.0541798
0.0541827
0.0541856
0.0541886
0.0541914
0.0541944
0.0541972
0.0542002
0.054203
0.054206
0.0542089
0.0542119
0.0542147
0.0542177
0.0542206
0.0542235
0.0542265
0.0542294
0.0542325
0.0542352
0.0542388
0.0542406
0.0542454
0.0542416
0.0542416
0.0542416
1
0.518766
0.327403
0.255349
0.217851
0.194406
0.178214
0.16631
0.157161
0.149887
0.143942
0.138973
0.134739
0.131074
0.127858
0.125004
0.122447
0.120138
0.118038
0.116116
0.11435
0.112718
0.111205
0.109797
0.108483
0.107254
0.1061
0.105015
0.103993
0.103028
0.102115
0.101251
0.100432
0.0996533
0.0989132
0.0982095
0.0975401
0.0969031
0.0962964
0.0957182
0.0951671
0.094643
0.0941459
0.0936765
0.0932349
0.0928208
0.0924339
0.092074
0.0917409
0.0914349
0.0911556
0.0909018
0.090671
0.0904603
0.0902664
0.0900868
0.0899199
0.0897653
0.0896232
0.089494
0.0893774
0.0892724
0.0891776
0.089091
0.0890107
0.0889355
0.088865
0.0887991
0.0887387
0.0886845
0.0886374
0.0885978
0.0885658
0.0885411
0.0885228
0.0885102
0.0885021
0.0884976
0.0884957
0.0884957
0.0884971
0.0884994
0.0885022
0.0885055
0.088509
0.0885127
0.0885165
0.0885204
0.0885243
0.0885283
0.0885323
0.0885364
0.0885405
0.0885445
0.0885486
0.0885527
0.0885568
0.0885609
0.088565
0.0885691
0.0885732
0.0885773
0.0885814
0.0885855
0.0885896
0.0885937
0.0885978
0.088602
0.0886061
0.0886102
0.0886143
0.0886184
0.0886226
0.0886267
0.0886308
0.088635
0.0886391
0.0886433
0.0886474
0.0886515
0.0886557
0.0886598
0.088664
0.0886681
0.0886723
0.0886765
0.0886806
0.0886848
0.088689
0.0886931
0.0886973
0.0887015
0.0887056
0.0887098
0.088714
0.0887182
0.0887224
0.0887266
0.0887307
0.0887349
0.0887391
0.0887433
0.0887475
0.0887517
0.0887559
0.0887601
0.0887643
0.0887685
0.0887728
0.088777
0.0887812
0.0887854
0.0887896
0.0887939
0.0887981
0.0888023
0.0888065
0.0888108
0.088815
0.0888192
0.0888235
0.0888277
0.088832
0.0888362
0.0888405
0.0888447
0.088849
0.0888532
0.0888575
0.0888618
0.088866
0.0888703
0.0888746
0.0888788
0.0888831
0.0888874
0.0888917
0.0888959
0.0889002
0.0889045
0.0889088
0.0889131
0.0889174
0.0889217
0.088926
0.0889303
0.0889346
0.0889389
0.0889432
0.0889475
0.0889518
0.0889561
0.0889604
0.0889647
0.0889691
0.0889734
0.0889777
0.088982
0.0889864
0.0889907
0.088995
0.0889994
0.0890037
0.0890081
0.0890124
0.0890168
0.0890211
0.0890255
0.0890298
0.0890342
0.0890385
0.0890429
0.0890473
0.0890516
0.089056
0.0890604
0.0890647
0.0890691
0.0890735
0.0890779
0.0890823
0.0890866
0.089091
0.0890954
0.0890998
0.0891042
0.0891086
0.089113
0.0891174
0.0891218
0.0891262
0.0891307
0.0891351
0.0891395
0.0891439
0.0891483
0.0891528
0.0891572
0.0891616
0.089166
0.0891705
0.0891749
0.0891794
0.0891838
0.0891882
0.0891927
0.0891971
0.0892016
0.089206
0.0892105
0.089215
0.0892194
0.0892239
0.0892284
0.0892328
0.0892373
0.0892418
0.0892463
0.0892507
0.0892552
0.0892597
0.0892642
0.0892687
0.0892732
0.0892777
0.0892822
0.0892867
0.0892912
0.0892957
0.0893002
0.0893047
0.0893092
0.0893137
0.0893182
0.0893228
0.0893273
0.0893318
0.0893364
0.0893409
0.0893454
0.08935
0.0893545
0.089359
0.0893636
0.0893681
0.0893727
0.0893772
0.0893818
0.0893863
0.0893909
0.0893955
0.0894
0.0894046
0.0894092
0.0894138
0.0894183
0.0894229
0.0894275
0.0894321
0.0894367
0.0894413
0.0894458
0.0894504
0.089455
0.0894596
0.0894642
0.0894688
0.0894735
0.0894781
0.0894827
0.0894873
0.0894919
0.0894965
0.0895012
0.0895058
0.0895104
0.0895151
0.0895197
0.0895243
0.089529
0.0895336
0.0895383
0.0895429
0.0895476
0.0895522
0.0895569
0.0895615
0.0895662
0.0895709
0.0895755
0.0895802
0.0895849
0.0895895
0.0895942
0.0895989
0.0896036
0.0896083
0.089613
0.0896177
0.0896224
0.0896271
0.0896318
0.0896365
0.0896412
0.0896459
0.0896506
0.0896553
0.08966
0.0896647
0.0896695
0.0896742
0.0896789
0.0896837
0.0896884
0.0896931
0.0896979
0.0897026
0.0897074
0.0897121
0.0897169
0.0897216
0.0897264
0.0897311
0.0897359
0.0897407
0.0897454
0.0897502
0.089755
0.0897597
0.0897645
0.0897693
0.0897741
0.0897789
0.0897837
0.0897885
0.0897933
0.0897981
0.0898029
0.0898077
0.0898125
0.0898173
0.0898222
0.0898269
0.0898318
0.0898366
0.0898415
0.0898462
0.0898511
0.0898559
0.0898608
0.0898657
0.0898705
0.0898757
0.0898801
0.0898861
0.0898892
0.0898969
0.0898917
0.0898917
0.0898917
1
0.660888
0.446896
0.35288
0.302032
0.269853
0.247505
0.231022
0.218332
0.20823
0.199971
0.193065
0.187182
0.18209
0.177623
0.173661
0.170112
0.166908
0.163994
0.16133
0.15888
0.156619
0.154522
0.152571
0.150751
0.149048
0.14745
0.145948
0.144532
0.143196
0.141933
0.140737
0.139603
0.138526
0.137502
0.136529
0.135603
0.134723
0.133884
0.133085
0.132325
0.131602
0.130917
0.130271
0.129663
0.129094
0.128563
0.128069
0.127613
0.127195
0.126813
0.126466
0.126151
0.125863
0.125598
0.125352
0.125124
0.124913
0.124719
0.124543
0.124384
0.124241
0.124111
0.123993
0.123883
0.12378
0.123685
0.123596
0.123514
0.123442
0.12338
0.123328
0.123286
0.123254
0.123231
0.123215
0.123205
0.1232
0.123198
0.123198
0.1232
0.123204
0.123208
0.123212
0.123217
0.123223
0.123228
0.123233
0.123239
0.123244
0.12325
0.123256
0.123261
0.123267
0.123273
0.123278
0.123284
0.12329
0.123295
0.123301
0.123307
0.123312
0.123318
0.123324
0.12333
0.123335
0.123341
0.123347
0.123352
0.123358
0.123364
0.12337
0.123375
0.123381
0.123387
0.123393
0.123398
0.123404
0.12341
0.123416
0.123421
0.123427
0.123433
0.123439
0.123445
0.12345
0.123456
0.123462
0.123468
0.123473
0.123479
0.123485
0.123491
0.123497
0.123503
0.123508
0.123514
0.12352
0.123526
0.123532
0.123537
0.123543
0.123549
0.123555
0.123561
0.123567
0.123572
0.123578
0.123584
0.12359
0.123596
0.123602
0.123608
0.123614
0.123619
0.123625
0.123631
0.123637
0.123643
0.123649
0.123655
0.123661
0.123667
0.123672
0.123678
0.123684
0.12369
0.123696
0.123702
0.123708
0.123714
0.12372
0.123726
0.123732
0.123738
0.123744
0.123749
0.123755
0.123761
0.123767
0.123773
0.123779
0.123785
0.123791
0.123797
0.123803
0.123809
0.123815
0.123821
0.123827
0.123833
0.123839
0.123845
0.123851
0.123857
0.123863
0.123869
0.123875
0.123881
0.123887
0.123893
0.123899
0.123905
0.123911
0.123917
0.123923
0.123929
0.123936
0.123942
0.123948
0.123954
0.12396
0.123966
0.123972
0.123978
0.123984
0.12399
0.123996
0.124002
0.124008
0.124014
0.124021
0.124027
0.124033
0.124039
0.124045
0.124051
0.124057
0.124063
0.124069
0.124076
0.124082
0.124088
0.124094
0.1241
0.124106
0.124112
0.124119
0.124125
0.124131
0.124137
0.124143
0.124149
0.124156
0.124162
0.124168
0.124174
0.12418
0.124187
0.124193
0.124199
0.124205
0.124211
0.124218
0.124224
0.12423
0.124236
0.124242
0.124249
0.124255
0.124261
0.124267
0.124274
0.12428
0.124286
0.124292
0.124299
0.124305
0.124311
0.124317
0.124324
0.12433
0.124336
0.124342
0.124349
0.124355
0.124361
0.124368
0.124374
0.12438
0.124387
0.124393
0.124399
0.124406
0.124412
0.124418
0.124424
0.124431
0.124437
0.124443
0.12445
0.124456
0.124463
0.124469
0.124475
0.124482
0.124488
0.124494
0.124501
0.124507
0.124513
0.12452
0.124526
0.124533
0.124539
0.124545
0.124552
0.124558
0.124565
0.124571
0.124577
0.124584
0.12459
0.124597
0.124603
0.12461
0.124616
0.124622
0.124629
0.124635
0.124642
0.124648
0.124655
0.124661
0.124668
0.124674
0.124681
0.124687
0.124694
0.1247
0.124707
0.124713
0.12472
0.124726
0.124733
0.124739
0.124746
0.124752
0.124759
0.124765
0.124772
0.124778
0.124785
0.124791
0.124798
0.124804
0.124811
0.124817
0.124824
0.124831
0.124837
0.124844
0.12485
0.124857
0.124863
0.12487
0.124877
0.124883
0.12489
0.124896
0.124903
0.12491
0.124916
0.124923
0.124929
0.124936
0.124943
0.124949
0.124956
0.124963
0.124969
0.124976
0.124983
0.124989
0.124996
0.125003
0.125009
0.125016
0.125023
0.125029
0.125036
0.125043
0.125049
0.125056
0.125063
0.12507
0.125076
0.125083
0.12509
0.125096
0.125103
0.12511
0.125117
0.125123
0.125131
0.125136
0.125146
0.125141
0.125141
0.125141
1
0.776803
0.557827
0.44688
0.384104
0.343747
0.315514
0.294609
0.278474
0.265612
0.255087
0.246284
0.238783
0.232291
0.226598
0.221548
0.217027
0.212946
0.209237
0.205845
0.202727
0.199849
0.197181
0.1947
0.192385
0.19022
0.188188
0.186278