# vtk DataFile Version 2.0
FlowField
ASCII
DATASET STRUCTURED_GRID
DIMENSIONS 400 1 200
POINTS 80000 float
0 0 0
0.08 0 0
0.16 0 0
0.24 0 0
0.32 0 0
0.4 0 0
0.48 0 0
0.56 0 0
0.64 0 0
0.72 0 0
0.8 0 0
0.88 0 0
0.96 0 0
1.04 0 0
1.12 0 0
1.2 0 0
1.28 0 0
1.36 0 0
1.44 0 0
1.52 0 0
1.6 0 0
1.68 0 0
1.76 0 0
1.84 0 0
1.92 0 0
2 0 0
2.08 0 0
2.16 0 0
2.24 0 0
2.32 0 0
2.4 0 0
2.48 0 0
2.56 0 0
2.64 0 0
2.72 0 0
2.8 0 0
2.88 0 0
2.96 0 0
3.04 0 0
3.12 0 0
3.2 0 0
3.28 0 0
3.36 0 0
3.44 0 0
3.52 0 0
3.6 0 0
3.68 0 0
3.76 0 0
3.84 0 0
3.92 0 0
4 0 0
4.08 0 0
4.16 0 0
4.24 0 0
4.32 0 0
4.4 0 0
4.48 0 0
4.56 0 0
4.64 0 0
4.72 0 0
4.8 0 0
4.88 0 0
4.96 0 0
5.04 0 0
5.12 0 0
5.2 0 0
5.28 0 0
5.36 0 0
5.44 0 0
5.52 0 0
5.6 0 0
5.68 0 0
5.76 0 0
5.84 0 0
5.92 0 0
6 0 0
6.08 0 0
6.16 0 0
6.24 0 0
6.32 0 0
6.4 0 0
6.48 0 0
6.56 0 0
6.64 0 0
6.72 0 0
6.8 0 0
6.88 0 0
6.96 0 0
7.04 0 0
7.12 0 0
7.2 0 0
7.28 0 0
7.36 0 0
7.44 0 0
7.52 0 0
7.6 0 0
7.68 0 0
7.76 0 0
7.84 0 0
7.92 0 0
8 0 0
8.08 0 0
8.16 0 0
8.24 0 0
8.32 0 0
8.4 0 0
8.48 0 0
8.56 0 0
8.64 0 0
8.72 0 0
8.8 0 0
8.88 0 0
8.96 0 0
9.04 0 0
9.12 0 0
9.2 0 0
9.28 0 0
9.36 0 0
9.44 0 0
9.52 0 0
9.6 0 0
9.68 0 0
9.76 0 0
9.84 0 0
9.92 0 0
10 0 0
10.08 0 0
10.16 0 0
10.24 0 0
10.32 0 0
10.4 0 0
10.48 0 0
10.56 0 0
10.64 0 0
10.72 0 0
10.8 0 0
10.88 0 0
10.96 0 0
11.04 0 0
11.12 0 0
11.2 0 0
11.28 0 0
11.36 0 0
11.44 0 0
11.52 0 0
11.6 0 0
11.68 0 0
11.76 0 0
11.84 0 0
11.92 0 0
12 0 0
12.08 0 0
12.16 0 0
12.24 0 0
12.32 0 0
12.4 0 0
12.48 0 0
12.56 0 0
12.64 0 0
12.72 0 0
12.8 0 0
12.88 0 0
12.96 0 0
13.04 0 0
13.12 0 0
13.2 0 0
13.28 0 0
13.36 0 0
13.44 0 0
13.52 0 0
13.6 0 0
13.68 0 0
13.76 0 0
13.84 0 0
13.92 0 0
14 0 0
14.08 0 0
14.16 0 0
14.24 0 0
14.32 0 0
14.4 0 0
14.48 0 0
14.56 0 0
14.64 0 0
14.72 0 0
14.8 0 0
14.88 0 0
14.96 0 0
15.04 0 0
15.12 0 0
15.2 0 0
15.28 0 0
15.36 0 0
15.44 0 0
15.52 0 0
15.6 0 0
15.68 0 0
15.76 0 0
15.84 0 0
15.92 0 0
16 0 0
16.08 0 0
16.16 0 0
16.24 0 0
16.32 0 0
16.4 0 0
16.48 0 0
16.56 0 0
16.64 0 0
16.72 0 0
16.8 0 0
16.88 0 0
16.96 0 0
17.04 0 0
17.12 0 0
17.2 0 0
17.28 0 0
17.36 0 0
17.44 0 0
17.52 0 0
17.6 0 0
17.68 0 0
17.76 0 0
17.84 0 0
17.92 0 0
18 0 0
18.08 0 0
18.16 0 0
18.24 0 0
18.32 0 0
18.4 0 0
18.48 0 0
18.56 0 0
18.64 0 0
18.72 0 0
18.8 0 0
18.88 0 0
18.96 0 0
19.04 0 0
19.12 0 0
19.2 0 0
19.28 0 0
19.36 0 0
19.44 0 0
19.52 0 0
19.6 0 0
19.68 0 0
19.76 0 0
19.84 0 0
19.92 0 0
20 0 0
20.08 0 0
20.16 0 0
20.24 0 0
20.32 0 0
20.4 0 0
20.48 0 0
20.56 0 0
20.64 0 0
20.72 0 0
20.8 0 0
20.88 0 0
20.96 0 0
21.04 0 0
21.12 0 0
21.2 0 0
21.28 0 0
21.36 0 0
21.44 0 0
21.52 0 0
21.6 0 0
21.68 0 0
21.76 0 0
21.84 0 0
21.92 0 0
22 0 0
22.08 0 0
22.16 0 0
22.24 0 0
22.32 0 0
22.4 0 0
22.48 0 0
22.56 0 0
22.64 0 0
22.72 0 0
22.8 0 0
22.88 0 0
22.96 0 0
23.04 0 0
23.12 0 0
23.2 0 0
23.28 0 0
23.36 0 0
23.44 0 0
23.52 0 0
23.6 0 0
23.68 0 0
23.76 0 0
23.84 0 0
23.92 0 0
24 0 0
24.08 0 0
24.16 0 0
24.24 0 0
24.32 0 0
24.4 0 0
24.48 0 0
24.56 0 0
24.64 0 0
24.72 0 0
24.8 0 0
24.88 0 0
24.96 0 0
25.04 0 0
25.12 0 0
25.2 0 0
25.28 0 0
25.36 0 0
25.44 0 0
25.52 0 0
25.6 0 0
25.68 0 0
25.76 0 0
25.84 0 0
25.92 0 0
26 0 0
26.08 0 0
26.16 0 0
26.24 0 0
26.32 0 0
26.4 0 0
26.48 0 0
26.56 0 0
26.64 0 0
26.72 0 0
26.8 0 0
26.88 0 0
26.96 0 0
27.04 0 0
27.12 0 0
27.2 0 0
27.28 0 0
27.36 0 0
27.44 0 0
27.52 0 0
27.6 0 0
27.68 0 0
27.76 0 0
27.84 0 0
27.92 0 0
28 0 0
28.08 0 0
28.16 0 0
28.24 0 0
28.32 0 0
28.4 0 0
28.48 0 0
28.56 0 0
28.64 0 0
28.72 0 0
28.8 0 0
28.88 0 0
28.96 0 0
29.04 0 0
29.12 0 0
29.2 0 0
29.28 0 0
29.36 0 0
29.44 0 0
29.52 0 0
29.6 0 0
29.68 0 0
29.76 0 0
29.84 0 0
29.92 0 0
30 0 0
30.08 0 0
30.16 0 0
30.24 0 0
30.32 0 0
30.4 0 0
30.48 0 0
30.56 0 0
30.64 0 0
30.72 0 0
30.8 0 0
30.88 0 0
30.96 0 0
31.04 0 0
31.12 0 0
31.2 0 0
31.28 0 0
31.36 0 0
31.44 0 0
31.52 0 0
31.6 0 0
31.68 0 0
31.76 0 0
31.84 0 0
31.92 0 0
0 0.005 0
0.08 0.005 0
0.16 0.005 0
0.24 0.005 0
0.32 0.005 0
0.4 0.005 0
0.48 0.005 0
0.56 0.005 0
0.64 0.005 0
0.72 0.005 0
0.8 0.005 0
0.88 0.005 0
0.96 0.005 0
1.04 0.005 0
1.12 0.005 0
1.2 0.005 0
1.28 0.005 0
1.36 0.005 0
1.44 0.005 0
1.52 0.005 0
1.6 0.005 0
1.68 0.005 0
1.76 0.005 0
1.84 0.005 0
1.92 0.005 0
2 0.005 0
2.08 0.005 0
2.16 0.005 0
2.24 0.005 0
2.32 0.005 0
2.4 0.005 0
2.48 0.005 0
2.56 0.005 0
2.64 0.005 0
2.72 0.005 0
2.8 0.005 0
2.88 0.005 0
2.96 0.005 0
3.04 0.005 0
3.12 0.005 0
3.2 0.005 0
3.28 0.005 0
3.36 0.005 0
3.44 0.005 0
3.52 0.005 0
3.6 0.005 0
3.68 0.005 0
3.76 0.005 0
3.84 0.005 0
3.92 0.005 0
4 0.005 0
4.08 0.005 0
4.16 0.005 0
4.24 0.005 0
4.32 0.005 0
4.4 0.005 0
4.48 0.005 0
4.56 0.005 0
4.64 0.005 0
4.72 0.005 0
4.8 0.005 0
4.88 0.005 0
4.96 0.005 0
5.04 0.005 0
5.12 0.005 0
5.2 0.005 0
5.28 0.005 0
5.36 0.005 0
5.44 0.005 0
5.52 0.005 0
5.6 0.005 0
5.68 0.005 0
5.76 0.005 0
5.84 0.005 0
5.92 0.005 0
6 0.005 0
6.08 0.005 0
6.16 0.005 0
6.24 0.005 0
6.32 0.005 0
6.4 0.005 0
6.48 0.005 0
6.56 0.005 0
6.64 0.005 0
6.72 0.005 0
6.8 0.005 0
6.88 0.005 0
6.96 0.005 0
7.04 0.005 0
7.12 0.005 0
7.2 0.005 0
7.28 0.005 0
7.36 0.005 0
7.44 0.005 0
7.52 0.005 0
7.6 0.005 0
7.68 0.005 0
7.76 0.005 0
7.84 0.005 0
7.92 0.005 0
8 0.005 0
8.08 0.005 0
8.16 0.005 0
8.24 0.005 0
8.32 0.005 0
8.4 0.005 0
8.48 0.005 0
8.56 0.005 0
8.64 0.005 0
8.72 0.005 0
8.8 0.005 0
8.88 0.005 0
8.96 0.005 0
9.04 0.005 0
9.12 0.005 0
9.2 0.005 0
9.28 0.005 0
9.36 0.005 0
9.44 0.005 0
9.52 0.005 0
9.6 0.005 0
9.68 0.005 0
9.76 0.005 0
9.84 0.005 0
9.92 0.005 0
10 0.005 0
10.08 0.005 0
10.16 0.005 0
10.24 0.005 0
10.32 0.005 0
10.4 0.005 0
10.48 0.005 0
10.56 0.005 0
10.64 0.005 0
10.72 0.005 0
10.8 0.005 0
10.88 0.005 0
10.96 0.005 0
11.04 0.005 0
11.12 0.005 0
11.2 0.005 0
11.28 0.005 0
11.36 0.005 0
11.44 0.005 0
11.52 0.005 0
11.6 0.005 0
11.68 0.005 0
11.76 0.005 0
11.84 0.005 0
11.92 0.005 0
12 0.005 0
12.08 0.005 0
12.16 0.005 0
12.24 0.005 0
12.32 0.005 0
12.4 0.005 0
12.48 0.005 0
12.56 0.005 0
12.64 0.005 0
12.72 0.005 0
12.8 0.005 0
12.88 0.005 0
12.96 0.005 0
13.04 0.005 0
13.12 0.005 0
13.2 0.005 0
13.28 0.005 0
13.36 0.005 0
13.44 0.005 0
13.52 0.005 0
13.6 0.005 0
13.68 0.005 0
13.76 0.005 0
13.84 0.005 0
13.92 0.005 0
14 0.005 0
14.08 0.005 0
14.16 0.005 0
14.24 0.005 0
14.32 0.005 0
14.4 0.005 0
14.48 0.005 0
14.56 0.005 0
14.64 0.005 0
14.72 0.005 0
14.8 0.005 0
14.88 0.005 0
14.96 0.005 0
15.04 0.005 0
15.12 0.005 0
15.2 0.005 0
15.28 0.005 0
15.36 0.005 0
15.44 0.005 0
15.52 0.005 0
15.6 0.005 0
15.68 0.005 0
15.76 0.005 0
15.84 0.005 0
15.92 0.005 0
16 0.005 0
16.08 0.005 0
16.16 0.005 0
16.24 0.005 0
16.32 0.005 0
16.4 0.005 0
16.48 0.005 0
16.56 0.005 0
16.64 0.005 0
16.72 0.005 0
16.8 0.005 0
16.88 0.005 0
16.96 0.005 0
17.04 0.005 0
17.12 0.005 0
17.2 0.005 0
17.28 0.005 0
17.36 0.005 0
17.44 0.005 0
17.52 0.005 0
17.6 0.005 0
17.68 0.005 0
17.76 0.005 0
17.84 0.005 0
17.92 0.005 0
18 0.005 0
18.08 0.005 0
18.16 0.005 0
18.24 0.005 0
18.32 0.005 0
18.4 0.005 0
18.48 0.005 0
18.56 0.005 0
18.64 0.005 0
18.72 0.005 0
18.8 0.005 0
18.88 0.005 0
18.96 0.005 0
19.04 0.005 0
19.12 0.005 0
19.2 0.005 0
19.28 0.005 0
19.36 0.005 0
19.44 0.005 0
19.52 0.005 0
19.6 0.005 0
19.68 0.005 0
19.76 0.005 0
19.84 0.005 0
19.92 0.005 0
20 0.005 0
20.08 0.005 0
20.16 0.005 0
20.24 0.005 0
20.32 0.005 0
20.4 0.005 0
20.48 0.005 0
20.56 0.005 0
20.64 0.005 0
20.72 0.005 0
20.8 0.005 0
20.88 0.005 0
20.96 0.005 0
21.04 0.005 0
21.12 0.005 0
21.2 0.005 0
21.28 0.005 0
21.36 0.005 0
21.44 0.005 0
21.52 0.005 0
21.6 0.005 0
21.68 0.005 0
21.76 0.005 0
21.84 0.005 0
21.92 0.005 0
22 0.005 0
22.08 0.005 0
22.16 0.005 0
22.24 0.005 0
22.32 0.005 0
22.4 0.005 0
22.48 0.005 0
22.56 0.005 0
22.64 0.005 0
22.72 0.005 0
22.8 0.005 0
22.88 0.005 0
22.96 0.005 0
23.04 0.005 0
23.12 0.005 0
23.2 0.005 0
23.28 0.005 0
23.36 0.005 0
23.44 0.005 0
23.52 0.005 0
23.6 0.005 0
23.68 0.005 0
23.76 0.005 0
23.84 0.005 0
23.92 0.005 0
24 0.005 0
24.08 0.005 0
24.16 0.005 0
24.24 0.005 0
24.32 0.005 0
24.4 0.005 0
24.48 0.005 0
24.56 0.005 0
24.64 0.005 0
24.72 0.005 0
24.8 0.005 0
24.88 0.005 0
24.96 0.005 0
25.04 0.005 0
25.12 0.005 0
25.2 0.005 0
25.28 0.005 0
25.36 0.005 0
25.44 0.005 0
25.52 0.005 0
25.6 0.005 0
25.68 0.005 0
25.76 0.005 0
25.84 0.005 0
25.92 0.005 0
26 0.005 0
26.08 0.005 0
26.16 0.005 0
26.24 0.005 0
26.32 0.005 0
26.4 0.005 0
26.48 0.005 0
26.56 0.005 0
26.64 0.005 0
26.72 0.005 0
26.8 0.005 0
26.88 0.005 0
26.96 0.005 0
27.04 0.005 0
27.12 0.005 0
27.2 0.005 0
27.28 0.005 0
27.36 0.005 0
27.44 0.005 0
27.52 0.005 0
27.6 0.005 0
27.68 0.005 0
27.76 0.005 0
27.84 0.005 0
27.92 0.005 0
28 0.005 0
28.08 0.005 0
28.16 0.005 0
28.24 0.005 0
28.32 0.005 0
28.4 0.005 0
28.48 0.005 0
28.56 0.005 0
28.64 0.005 0
28.72 0.005 0
28.8 0.005 0
28.88 0.005 0
28.96 0.005 0
29.04 0.005 0
29.12 0.005 0
29.2 0.005 0
29.28 0.005 0
29.36 0.005 0
29.44 0.005 0
29.52 0.005 0
29.6 0.005 0
29.68 0.005 0
29.76 0.005 0
29.84 0.005 0
29.92 0.005 0
30 0.005 0
30.08 0.005 0
30.16 0.005 0
30.24 0.005 0
30.32 0.005 0
30.4 0.005 0
30.48 0.005 0
30.56 0.005 0
30.64 0.005 0
30.72 0.005 0
30.8 0.005 0
30.88 0.005 0
30.96 0.005 0
31.04 0.005 0
31.12 0.005 0
31.2 0.005 0
31.28 0.005 0
31.36 0.005 0
31.44 0.005 0
31.52 0.005 0
31.6 0.005 0
31.68 0.005 0
31.76 0.005 0
31.84 0.005 0
31.92 0.005 0
0 0.01 0
0.08 0.01 0
0.16 0.01 0
0.24 0.01 0
0.32 0.01 0
0.4 0.01 0
0.48 0.01 0
0.56 0.01 0
0.64 0.01 0
0.72 0.01 0
0.8 0.01 0
0.88 0.01 0
0.96 0.01 0
1.04 0.01 0
1.12 0.01 0
1.2 0.01 0
1.28 0.01 0
1.36 0.01 0
1.44 0.01 0
1.52 0.01 0
1.6 0.01 0
1.68 0.01 0
1.76 0.01 0
1.84 0.01 0
1.92 0.01 0
2 0.01 0
2.08 0.01 0
2.16 0.01 0
2.24 0.01 0
2.32 0.01 0
2.4 0.01 0
2.48 0.01 0
2.56 0.01 0
2.64 0.01 0
2.72 0.01 0
2.8 0.01 0
2.88 0.01 0
2.96 0.01 0
3.04 0.01 0
3.12 0.01 0
3.2 0.01 0
3.28 0.01 0
3.36 0.01 0
3.44 0.01 0
3.52 0.01 0
3.6 0.01 0
3.68 0.01 0
3.76 0.01 0
3.84 0.01 0
3.92 0.01 0
4 0.01 0
4.08 0.01 0
4.16 0.01 0
4.24 0.01 0
4.32 0.01 0
4.4 0.01 0
4.48 0.01 0
4.56 0.01 0
4.64 0.01 0
4.72 0.01 0
4.8 0.01 0
4.88 0.01 0
4.96 0.01 0
5.04 0.01 0
5.12 0.01 0
[...]
POINT_DATA 80000

SCALARS u float 1
LOOKUP_TABLE default
0
-0.131693
-0.0683278
-0.0523758
-0.0445127
-0.039694
-0.0364274
-0.0340607
-0.0322563
-0.0308582
-0.0298104
-0.0290774
-0.0286029
-0.0283146
-0.0281456
-0.0280485
-0.0279944
-0.0279666
-0.0279546
-0.0279506
-0.0279492
-0.027947
-0.0279425
-0.0279351
-0.0279252
-0.0279134
-0.0279002
-0.0278861
-0.0278713
-0.0278562
-0.0278409
-0.0278254
-0.0278098
-0.027794
-0.0277782
-0.0277623
-0.0277463
-0.0277302
-0.0277139
-0.0276976
-0.0276812
-0.0276646
-0.0276479
-0.0276311
-0.0276142
-0.0275971
-0.0275798
-0.0275624
-0.0275448
-0.0275271
-0.0275091
-0.027491
-0.0274727
-0.0274542
-0.0274355
-0.0274165
-0.0273974
-0.027378
-0.0273583
-0.0273384
-0.0273183
-0.0272978
-0.0272771
-0.0272562
-0.0272349
-0.0272133
-0.0271913
-0.0271691
-0.0271465
-0.0271235
-0.0271002
-0.0270765
-0.0270524
-0.0270279
-0.027003
-0.0269776
-0.0269518
-0.0269255
-0.0268988
-0.0268715
-0.0268438
-0.0268155
-0.0267867
-0.0267573
-0.0267273
-0.0266968
-0.0266656
-0.0266338
-0.0266014
-0.0265683
-0.0265346
-0.0265001
-0.026465
-0.0264291
-0.0263925
-0.0263552
-0.0263171
-0.0262782
-0.0262386
-0.0261982
-0.026157
-0.026115
-0.0260722
-0.0260286
-0.0259842
-0.0259391
-0.0258932
-0.0258465
-0.0257991
-0.0257509
-0.0257021
-0.0256526
-0.0256024
-0.0255517
-0.0255004
-0.0254486
-0.0253964
-0.0253438
-0.025291
-0.0252378
-0.0251846
-0.0251313
-0.025078
-0.0250249
-0.024972
-0.0249195
-0.0248675
-0.0248162
-0.0247657
-0.024716
-0.0246675
-0.0246202
-0.0245743
-0.0245301
-0.0244876
-0.024447
-0.0244087
-0.0243726
-0.0243392
-0.0243084
-0.0242807
-0.024256
-0.0242348
-0.0242172
-0.0242033
-0.0241934
-0.0241877
-0.0241864
-0.0241897
-0.0241978
-0.0242108
-0.0242289
-0.0242524
-0.0242813
-0.0243157
-0.0243559
-0.0244019
-0.0244539
-0.0245119
-0.024576
-0.0246463
-0.0247227
-0.0248055
-0.0248944
-0.0249897
-0.0250911
-0.0251987
-0.0253124
-0.0254321
-0.0255577
-0.0256892
-0.0258263
-0.0259688
-0.0261168
-0.0262698
-0.0264278
-0.0265905
-0.0267577
-0.0269291
-0.0271044
-0.0272835
-0.0274659
-0.0276515
-0.0278399
-0.0280307
-0.0282238
-0.0284187
-0.0286152
-0.028813
-0.0290116
-0.0292108
-0.0294103
-0.0296097
-0.0298088
-0.0300073
-0.0302048
-0.030401
-0.0305957
-0.0307887
-0.0309796
-0.0311682
-0.0313542
-0.0315376
-0.031718
-0.0318952
-0.0320692
-0.0322396
-0.0324065
-0.0325695
-0.0327288
-0.032884
-0.0330352
-0.0331822
-0.0333251
-0.0334637
-0.0335981
-0.0337282
-0.033854
-0.0339756
-0.0340929
-0.034206
-0.0343149
-0.0344197
-0.0345205
-0.0346172
-0.0347101
-0.0347991
-0.0348844
-0.034966
-0.0350441
-0.0351188
-0.0351902
-0.0352583
-0.0353233
-0.0353853
-0.0354445
-0.0355009
-0.0355546
-0.0356059
-0.0356547
-0.0357012
-0.0357456
-0.0357879
-0.0358282
-0.0358666
-0.0359033
-0.0359384
-0.0359719
-0.0360039
-0.0360345
-0.0360639
-0.036092
-0.0361191
-0.0361451
-0.0361701
-0.0361942
-0.0362175
-0.03624
-0.0362618
-0.0362829
-0.0363034
-0.0363234
-0.0363428
-0.0363618
-0.0363804
-0.0363985
-0.0364164
-0.0364339
-0.0364511
-0.036468
-0.0364848
-0.0365013
-0.0365177
-0.0365338
-0.0365499
-0.0365658
-0.0365816
-0.0365973
-0.0366129
-0.0366285
-0.036644
-0.0366595
-0.0366749
-0.0366903
-0.0367057
-0.0367211
-0.0367365
-0.0367519
-0.0367672
-0.0367826
-0.036798
-0.0368135
-0.0368289
-0.0368444
-0.0368599
-0.0368754
-0.036891
-0.0369066
-0.0369223
-0.036938
-0.0369537
-0.0369695
-0.0369853
-0.0370011
-0.037017
-0.037033
-0.037049
-0.037065
-0.0370811
-0.0370973
-0.0371135
-0.0371297
-0.037146
-0.0371623
-0.0371787
-0.0371952
-0.0372117
-0.0372282
-0.0372449
-0.0372615
-0.0372782
-0.037295
-0.0373118
-0.0373287
-0.0373456
-0.0373626
-0.0373796
-0.0373967
-0.0374138
-0.037431
-0.0374483
-0.0374656
-0.0374829
-0.0375004
-0.0375178
-0.0375354
-0.0375529
-0.0375706
-0.0375883
-0.037606
-0.0376238
-0.0376417
-0.0376596
-0.0376776
-0.0376956
-0.0377137
-0.0377319
-0.0377501
-0.0377684
-0.0377867
-0.0378051
-0.0378235
-0.037842
-0.0378606
-0.0378792
-0.0378979
-0.0379166
-0.0379354
-0.0379543
-0.0379732
-0.0379922
-0.0380112
-0.0380303
-0.0380495
-0.0380687
-0.038088
-0.0381074
-0.0381268
-0.0381462
-0.0381658
-0.0381854
-0.0382051
-0.0382248
-0.0382446
-0.0382644
-0.0382844
-0.0383044
-0.0383244
-0.0383445
-0.0383647
-0.038385
-0.0384053
-0.0384257
-0.0384462
-0.0384667
-0.0384873
-0.0385079
-0.0385289
-0.0385491
-0.0385716
-0.0385894
-0.0386166
-0.0386284
-0.0386626
-0.0386711
-0.0387042
-0.0387231
-0.0387267
-0.0387267
-0.0387267
1
0.131693
0.0683278
0.0523758
0.0445127
0.039694
0.0364274
0.0340607
0.0322563
0.0308582
0.0298104
0.0290774
0.0286029
0.0283146
0.0281456
0.0280485
0.0279944
0.0279666
0.0279546
0.0279506
0.0279492
0.027947
0.0279425
0.0279351
0.0279252
0.0279134
0.0279002
0.0278861
0.0278713
0.0278562
0.0278409
0.0278254
0.0278098
0.027794
0.0277782
0.0277623
0.0277463
0.0277302
0.0277139
0.0276976
0.0276812
0.0276646
0.0276479
0.0276311
0.0276142
0.0275971
0.0275798
0.0275624
0.0275448
0.0275271
0.0275091
0.027491
0.0274727
0.0274542
0.0274355
0.0274165
0.0273974
0.027378
0.0273583
0.0273384
0.0273183
0.0272978
0.0272771
0.0272562
0.0272349
0.0272133
0.0271913
0.0271691
0.0271465
0.0271235
0.0271002
0.0270765
0.0270524
0.0270279
0.027003
0.0269776
0.0269518
0.0269255
0.0268988
0.0268715
0.0268438
0.0268155
0.0267867
0.0267573
0.0267273
0.0266968
0.0266656
0.0266338
0.0266014
0.0265683
0.0265346
0.0265001
0.026465
0.0264291
0.0263925
0.0263552
0.0263171
0.0262782
0.0262386
0.0261982
0.026157
0.026115
0.0260722
0.0260286
0.0259842
0.0259391
0.0258932
0.0258465
0.0257991
0.0257509
0.0257021
0.0256526
0.0256024
0.0255517
0.0255004
0.0254486
0.0253964
0.0253438
0.025291
0.0252378
0.0251846
0.0251313
0.025078
0.0250249
0.024972
0.0249195
0.0248675
0.0248162
0.0247657
0.024716
0.0246675
0.0246202
0.0245743
0.0245301
0.0244876
0.024447
0.0244087
0.0243726
0.0243392
0.0243084
0.0242807
0.024256
0.0242348
0.0242172
0.0242033
0.0241934
0.0241877
0.0241864
0.0241897
0.0241978
0.0242108
0.0242289
0.0242524
0.0242813
0.0243157
0.0243559
0.0244019
0.0244539
0.0245119
0.024576
0.0246463
0.0247227
0.0248055
0.0248944
0.0249897
0.0250911
0.0251987
0.0253124
0.0254321
0.0255577
0.0256892
0.0258263
0.0259688
0.0261168
0.0262698
0.0264278
0.0265905
0.0267577
0.0269291
0.0271044
0.0272835
0.0274659
0.0276515
0.0278399
0.0280307
0.0282238
0.0284187
0.0286152
0.028813
0.0290116
0.0292108
0.0294103
0.0296097
0.0298088
0.0300073
0.0302048
0.030401
0.0305957
0.0307887
0.0309796
0.0311682
0.0313542
0.0315376
0.031718
0.0318952
0.0320692
0.0322396
0.0324065
0.0325695
0.0327288
0.032884
0.0330352
0.0331822
0.0333251
0.0334637
0.0335981
0.0337282
0.033854
0.0339756
0.0340929
0.034206
0.0343149
0.0344197
0.0345205
0.0346172
0.0347101
0.0347991
0.0348844
0.034966
0.0350441
0.0351188
0.0351902
0.0352583
0.0353233
0.0353853
0.0354445
0.0355009
0.0355546
0.0356059
0.0356547
0.0357012
0.0357456
0.0357879
0.0358282
0.0358666
0.0359033
0.0359384
0.0359719
0.0360039
0.0360345
0.0360639
0.036092
0.0361191
0.0361451
0.0361701
0.0361942
0.0362175
0.03624
0.0362618
0.0362829
0.0363034
0.0363234
0.0363428
0.0363618
0.0363804
0.0363985
0.0364164
0.0364339
0.0364511
0.036468
0.0364848
0.0365013
0.0365177
0.0365338
0.0365499
0.0365658
0.0365816
0.0365973
0.0366129
0.0366285
0.036644
0.0366595
0.0366749
0.0366903
0.0367057
0.0367211
0.0367365
0.0367519
0.0367672
0.0367826
0.036798
0.0368135
0.0368289
0.0368444
0.0368599
0.0368754
0.036891
0.0369066
0.0369223
0.036938
0.0369537
0.0369695
0.0369853
0.0370011
0.037017
0.037033
0.037049
0.037065
0.0370811
0.0370973
0.0371135
0.0371297
0.037146
0.0371623
0.0371787
0.0371952
0.0372117
0.0372282
0.0372449
0.0372615
0.0372782
0.037295
0.0373118
0.0373287
0.0373456
0.0373626
0.0373796
0.0373967
0.0374138
0.037431
0.0374483
0.0374656
0.0374829
0.0375004
0.0375178
0.0375354
0.0375529
0.0375706
0.0375883
0.037606
0.0376238
0.0376417
0.0376596
0.0376776
0.0376956
0.0377137
0.0377319
0.0377501
0.0377684
0.0377867
0.0378051
0.0378235
0.037842
0.0378606
0.0378792
0.0378979
0.0379166
0.0379354
0.0379543
0.0379732
0.0379922
0.0380112
0.0380303
0.0380495
0.0380687
0.038088
0.0381074
0.0381268
0.0381462
0.0381658
0.0381854
0.0382051
0.0382248
0.0382446
0.0382644
0.0382844
0.0383044
0.0383244
0.0383445
0.0383647
0.038385
0.0384053
0.0384257
0.0384462
0.0384667
0.0384873
0.0385079
0.0385289
0.0385491
0.0385716
0.0385894
0.0386166
0.0386284
0.0386626
0.0386711
0.0387042
0.0387231
0.0387267
0.0387267
0.0387267
1
0.344961
0.200828
0.155192
0.132162
0.117948
0.108275
0.10125
0.0958975
0.0917712
0.0887
0.0865633
0.0851832
0.084344
0.0838523
0.0835715
0.0834182
0.0833424
0.0833119
0.0833038
0.0833024
0.0832984
0.0832875
0.0832687
0.0832429
0.0832119
0.0831771
0.0831399
0.0831011
0.0830613
0.0830209
0.0829801
0.082939
0.0828976
0.082856
0.0828141
0.0827721
0.0827298
0.0826872
0.0826444
0.0826014
0.082558
0.0825143
0.0824703
0.082426
0.0823813
0.0823362
0.0822908
0.0822449
0.0821987
0.082152
0.0821048
0.0820572
0.0820091
0.0819605
0.0819114
0.0818617
0.0818115
0.0817607
0.0817093
0.0816572
0.0816046
0.0815513
0.0814973
0.0814426
0.0813872
0.081331
0.0812741
0.0812164
0.0811578
0.0810985
0.0810382
0.0809771
0.0809151
0.0808521
0.0807882
0.0807233
0.0806574
0.0805904
0.0805224
0.0804533
0.0803831
0.0803118
0.0802393
0.0801657
0.0800908
0.0800147
0.0799375
0.0798589
0.0797792
0.0796981
0.0796158
0.0795322
0.0794473
0.0793611
0.0792737
0.079185
0.0790951
0.0790039
0.0789115
0.078818
0.0787233
0.0786276
0.0785308
0.0784331
0.0783345
0.0782351
0.078135
0.0780343
0.0779331
0.0778315
0.0777296
0.0776277
0.0775259
0.0774243
0.0773231
0.0772226
0.0771229
0.0770243
0.0769271
0.0768315
0.0767377
0.0766461
0.076557
0.0764707
0.0763875
0.0763078
0.0762319
0.0761602
0.0760931
0.076031
0.0759742
0.0759233
0.0758787
0.0758407
0.0758098
0.0757864
0.075771
0.075764
0.0757659
0.0757771
0.075798
0.075829
0.0758707
0.0759232
0.0759872
0.0760629
0.0761507
0.0762509
0.0763638
0.0764898
0.0766291
0.0767819
0.0769485
0.0771291
0.0773237
0.0775324
0.0777555
0.0779928
0.0782444
0.0785103
0.0787903
0.0790844
0.0793924
0.079714
0.0800491
0.0803974
0.0807585
0.081132
0.0815177
0.0819149
0.0823234
0.0827424
0.0831716
0.0836104
0.084058
0.084514
0.0849777
0.0854484
0.0859254
0.086408
0.0868955
0.0873871
0.0878823
0.0883801
0.0888798
0.0893808
0.0898822
0.0903835
0.0908837
0.0913823
0.0918786
0.0923718
0.0928613
0.0933466
0.0938269
0.0943017
0.0947706
0.0952328
0.095688
0.0961357
0.0965754
0.0970068
0.0974296
0.0978433
0.0982477
0.0986425
0.0990276
0.0994027
0.0997677
0.100122
0.100467
0.100801
0.101125
0.101438
0.101741
0.102033
0.102316
0.102588
0.10285
0.103103
0.103346
0.103579
0.103803
0.104018
0.104224
0.104422
0.104611
0.104793
0.104966
0.105132
0.105291
0.105443
0.105588
0.105726
0.105859
0.105985
0.106107
0.106222
0.106333
0.106439
0.106541
0.106638
0.106731
0.10682
0.106906
0.106988
0.107067
0.107144
0.107217
0.107288
0.107357
0.107423
0.107487
0.10755
0.10761
0.107669
0.107727
0.107783
0.107838
0.107892
0.107945
0.107996
0.108047
0.108097
0.108147
0.108195
0.108244
0.108291
0.108339
0.108386
0.108432
0.108478
0.108524
0.10857
0.108616
0.108661
0.108706
0.108752
0.108797
0.108842
0.108887
0.108932
0.108977
0.109022
0.109067
0.109112
0.109157
0.109202
0.109248
0.109293
0.109339
0.109384
0.10943
0.109476
0.109522
0.109568
0.109614
0.10966
0.109706
0.109753
0.1098
0.109846
0.109893
0.10994
0.109988
0.110035
0.110083
0.11013
0.110178
0.110226
0.110274
0.110322
0.110371
0.110419
0.110468
0.110517
0.110566
0.110615
0.110664
0.110714
0.110763
0.110813
0.110863
0.110913
0.110963
0.111014
0.111064
0.111115
0.111166
0.111217
0.111268
0.11132
0.111371
0.111423
0.111475
0.111527
0.111579
0.111631
0.111684
0.111736
0.111789
0.111842
0.111895
0.111949
0.112002
0.112056
0.11211
0.112164
0.112218
0.112272
0.112327
0.112381
0.112436
0.112491
0.112546
0.112602
0.112657
0.112713
0.112769
0.112825
0.112881
0.112938
0.112994
0.113051
0.113108
0.113165
0.113223
0.11328
0.113338
0.113396
0.113454
0.113512
0.113571
0.113629
0.113688
0.113747
0.113806
0.113866
0.113925
0.113985
0.114045
0.114105
0.114166
0.114226
0.114287
0.114348
0.11441
0.11447
0.114536
0.114589
0.114668
0.114705
0.114803
0.114831
0.114927
0.114982
0.115005
0.115005
0.115005
1
0.518877
0.327649
0.255702
0.21828
0.194982
0.17906
0.167468
0.158639
0.151853
0.146821
0.143328
0.141071
0.139695
0.138887
0.138428
0.138181
0.138063
0.138019
0.138011
0.138014
0.138013
0.138001
0.137976
0.137941
0.137898
0.137849
0.137796
0.137741
0.137684
0.137627
0.137569
0.137511
0.137452
0.137393
0.137333
0.137274
0.137214
0.137154
0.137093
0.137032
0.136971
0.136909
0.136847
0.136785
0.136722
0.136659
0.136595
0.136531
0.136466
0.1364
0.136334
0.136268
0.136201
0.136133
0.136065
0.135996
0.135926
0.135855
0.135784
0.135712
0.135639
0.135566
0.135491
0.135416
0.13534
0.135263
0.135185
0.135106
0.135027
0.134946
0.134864
0.134781
0.134697
0.134613
0.134527
0.134439
0.134351
0.134262
0.134171
0.13408
0.133987
0.133893
0.133798
0.133701
0.133604
0.133505
0.133405
0.133304
0.133202
0.133098
0.132994
0.132888
0.132782
0.132674
0.132565
0.132456
0.132346
0.132234
0.132123
0.13201
0.131897
0.131784
0.131671
0.131557
0.131444
0.131331
0.131218
0.131106
0.130995
0.130885
0.130776
0.130669
0.130563
0.13046
0.130359
0.130261
0.130166
0.130075
0.129987
0.129904
0.129825
0.129752
0.129684
0.129622
0.129567
0.129519
0.129479
0.129446
0.129422
0.129407
0.129402
0.129407
0.129423
0.129451
0.12949
0.129541
0.129606
0.129684
0.129777
0.129883
0.130005
0.130143
0.130297
0.130467
0.130654
0.130858
0.131081
0.131321
0.131579
0.131856
0.132152
0.132467
0.1328
0.133153
0.133526
0.133917
0.134327
0.134757
0.135205
0.135672
0.136157
0.136661
0.137182
0.13772
0.138275
0.138846
0.139432
0.140034
0.14065
0.14128
0.141922
0.142577
0.143243
0.143919
0.144604
0.145299
0.146
0.146709
0.147423
0.148142
0.148864
0.14959
0.150317
0.151044
0.151772
0.152498
0.153222
0.153943
0.15466
0.155372
0.156078
0.156777
0.157469
0.158153
0.158827
0.159492
0.160147
0.160791
0.161423
0.162043
0.162651
0.163246
0.163827
0.164395
0.164949
0.165489
0.166015
0.166526
0.167022
0.167504
0.167971
0.168423
0.168861
0.169285
0.169693
0.170088
0.170469
0.170836
0.171189
0.171529
0.171855
0.17217
0.172471
0.172761
0.173039
0.173305
0.173561
0.173806
0.17404
0.174265
0.174481
0.174687
0.174885
0.175074
0.175256
0.17543
0.175597
0.175757
0.175911
0.176058
0.1762
0.176336
0.176468
0.176594
0.176716
0.176834
0.176948
0.177059
0.177166
0.177269
0.17737
0.177468
0.177564
0.177657
0.177748
0.177837
0.177925
0.17801
0.178095
0.178178
0.178259
0.17834
0.178419
0.178498
0.178576
0.178653
0.178729
0.178805
0.17888
0.178955
0.17903
0.179104
0.179178
0.179252
0.179326
0.179399
0.179473
0.179546
0.17962
0.179693
0.179766
0.17984
0.179913
0.179987
0.180061
0.180134
0.180208
0.180282
0.180357
0.180431
0.180506
0.18058
0.180655
0.18073
0.180806
0.180881
0.180957
0.181033
0.181109
0.181185
0.181262
0.181338
0.181415
0.181493
0.18157
0.181648
0.181726
0.181804
0.181882
0.181961
0.18204
0.182119
0.182198
0.182278
0.182358
0.182438
0.182518
0.182599
0.18268
0.182761
0.182842
0.182924
0.183006
0.183088
0.18317
0.183253
0.183336
0.183419
0.183502
0.183586
0.18367
0.183754
0.183838
0.183923
0.184008
0.184093
0.184179
0.184265
0.184351
0.184437
0.184523
0.18461
0.184697
0.184785
0.184872
0.18496
0.185048
0.185137
0.185225
0.185314
0.185404
0.185493
0.185583
0.185673
0.185763
0.185854
0.185945
0.186036
0.186128
0.18622
0.186312
0.186404
0.186497
0.18659
0.186683
0.186776
0.18687
0.186964
0.187059
0.187153
0.187248
0.187344
0.187439
0.187535
0.187631
0.187728
0.187825
0.187922
0.188019
0.188117
0.188215
0.188314
0.188412
0.188511
0.188611
0.18871
0.188812
0.18891
0.189016
0.189105
0.189231
0.189295
0.189452
0.189499
0.189655
0.189744
0.189798
0.189798
0.189798
1
0.661024
0.447214
0.353347
0.302614
0.270652
0.248687
0.232651
0.220432
0.211057
0.204121
0.199309
0.196191
0.194282
0.193157
0.192519
0.192179
0.192022
0.191969
0.191967
0.19198
0.191988
0.191981
0.191959
0.191922
0.191875
0.191821
0.191762
0.1917
0.191637
0.191572
0.191506
0.19144
0.191374
0.191308
0.191241
0.191174
0.191107
0.191039
0.190971
0.190903
0.190835
0.190766
0.190697
0.190627
0.190558
0.190487
0.190416
0.190345
0.190273
0.190201
0.190129
0.190055
0.189982
0.189907
0.189832
0.189757
0.18968
0.189604
0.189526
0.189448
0.189369
0.18929
0.189209
0.189128
0.189047
0.188964
0.188881
0.188797
0.188712
0.188626
0.18854
0.188452
0.188364
0.188275
0.188186
0.188095
0.188003
0.187911
0.187818
0.187724
0.187629
0.187534
0.187437
0.18734
0.187243
0.187144
0.187045
0.186945
0.186845
0.186744
0.186643
0.186542
0.18644
0.186338
0.186236
0.186135
0.186033
0.185932
0.185831
0.18573
0.185631
0.185532
0.185435
0.185339
0.185244
0.185152
0.185061
0.184973
0.184888
0.184805
0.184726
0.184651
0.184579
0.184512
0.18445
0.184393
0.184342
0.184297
0.184258
0.184226
0.184202
0.184187
0.184179
0.184181
0.184193
0.184215
0.184248
0.184292
0.184348
0.184417
0.184499
0.184595
0.184706
0.184831
0.184972
0.18513
0.185304
0.185495
0.185704
0.185932
0.186178
0.186444
0.186729
0.187034
0.18736
0.187707
0.188075
0.188464
0.188875
0.189307
0.189761
0.190238
0.190736
0.191255
0.191797
0.19236
0.192944
0.19355
0.194176
0.194823
0.195489
0.196175
0.19688
0.197602
0.198343
0.1991
0.199873
0.200661
0.201464
0.20228
0.203108
0.203948
0.204798
0.205658
0.206526
0.207401
0.208283
0.209169
0.210059
0.210952
0.211846
0.212741
0.213635
0.214528
0.215417
0.216302
0.217182
0.218057
0.218923
0.219782
0.220632
0.221472
0.222301
0.223119
0.223924
0.224716
0.225494
0.226258
0.227007
0.227741
0.228459
0.229161
0.229846
0.230514
0.231165
0.231799
0.232415
0.233014
0.233595
0.234159
0.234705
0.235234
0.235745
0.236239
0.236717
0.237178
0.237622
0.23805
0.238463
0.23886
0.239242
0.239609
0.239963
0.240302
0.240628
0.240941
0.241242
0.241531
0.241808
0.242074
0.242329
0.242574
0.24281
0.243036
0.243253
0.243462
0.243663
0.243857
0.244043
0.244223
0.244396
0.244564
0.244726
0.244882
0.245034
0.245181
0.245324
0.245463
0.245598
0.24573
0.245858
0.245984
0.246107
0.246227
0.246345
0.246461
0.246575
0.246688
0.246799
0.246908
0.247016
0.247123
0.247229
0.247334
0.247438
0.247542
0.247645
0.247747
0.247849
0.24795
0.248052
0.248152
0.248253
0.248354
0.248454
0.248554
0.248654
0.248755
0.248855
0.248955
0.249056
0.249156
0.249257
0.249358
0.249459
0.24956
0.249661
0.249763
0.249865
0.249967
0.250069
0.250171
0.250274
0.250377
0.250481
0.250584
0.250688
0.250792
0.250897
0.251002
0.251107
0.251212
0.251318
0.251424
0.25153
0.251637
0.251744
0.251851
0.251959
0.252066
0.252175
0.252283
0.252392
0.252501
0.252611
0.252721
0.252831
0.252942
0.253053
0.253164
0.253275
0.253387
0.253499
0.253612
0.253725
0.253838
0.253952
0.254066
0.25418
0.254295
0.25441
0.254525
0.254641
0.254757
0.254873
0.25499
0.255107
0.255224
0.255342
0.25546
0.255579
0.255698
0.255817
0.255937
0.256057
0.256177
0.256298
0.256419
0.25654
0.256662
0.256784
0.256907
0.257029
0.257153
0.257276
0.2574
0.257525
0.25765
0.257775
0.2579
0.258026
0.258153
0.258279
0.258406
0.258534
0.258662
0.25879
0.258919
0.259048
0.259177
0.259307
0.259437
0.259568
0.259699
0.259831
0.259963
0.260095
0.260228
0.260361
0.260494
0.260629
0.260763
0.260898
0.261033
0.261169
0.261305
0.261443
0.261577
0.261722
0.261845
0.262015
0.262105
0.262315
0.262384
0.262594
0.262713
0.262808
0.262808
0.262808
1
0.776955
0.558202
0.447448
0.384828
0.344759
0.317028
0.296705
0.281204
0.26932
0.260534
0.25443
0.250459
0.248012
0.246562
0.245739
0.245304
0.245108
0.245049
0.245058
0.245087
0.24511
0.245117
0.245105
0.245077
0.245036
0.244986
0.244931
0.244872
0.244812
0.24475
0.244687
0.244625
0.244561
0.244498
0.244435
0.244371
0.244308
0.244244
0.24418
0.244116
0.244051
0.243987
0.243922
0.243857
0.243792
0.243727
0.243661
0.243595
0.243529
0.243462
0.243395
0.243328
0.24326
0.243192
0.243124
0.243055
0.242986
0.242917
0.242847
0.242776
0.242706
0.242634
0.242563
0.242491
0.242419
0.242346
0.242273
0.242199
0.242125
0.242051
0.241976
0.241901
0.241825
0.241749
0.241673
0.241596
0.241519
0.241442
0.241365
0.241288
0.24121
0.241132
0.241054
0.240977
0.240899
0.240821
0.240744
0.240667