# vtk DataFile Version 2.0
FlowField
ASCII
DATASET STRUCTURED_GRID
DIMENSIONS 400 1 200
POINTS 80000 float
0 0 0
0.08 0 0
0.16 0 0
0.24 0 0
0.32 0 0
0.4 0 0
0.48 0 0
0.56 0 0
0.64 0 0
0.72 0 0
0.8 0 0
0.88 0 0
0.96 0 0
1.04 0 0
1.12 0 0
1.2 0 0
1.28 0 0
1.36 0 0
1.44 0 0
1.52 0 0
1.6 0 0
1.68 0 0
1.76 0 0
1.84 0 0
1.92 0 0
2 0 0
2.08 0 0
2.16 0 0
2.24 0 0
2.32 0 0
2.4 0 0
2.48 0 0
2.56 0 0
2.64 0 0
2.72 0 0
2.8 0 0
2.88 0 0
2.96 0 0
3.04 0 0
3.12 0 0
3.2 0 0
3.28 0 0
3.36 0 0
3.44 0 0
3.52 0 0
3.6 0 0
3.68 0 0
3.76 0 0
3.84 0 0
3.92 0 0
4 0 0
4.08 0 0
4.16 0 0
4.24 0 0
4.32 0 0
4.4 0 0
4.48 0 0
4.56 0 0
4.64 0 0
4.72 0 0
4.8 0 0
4.88 0 0
4.96 0 0
5.04 0 0
5.12 0 0
5.2 0 0
5.28 0 0
5.36 0 0
5.44 0 0
5.52 0 0
5.6 0 0
5.68 0 0
5.76 0 0
5.84 0 0
5.92 0 0
6 0 0
6.08 0 0
6.16 0 0
6.24 0 0
6.32 0 0
6.4 0 0
6.48 0 0
6.56 0 0
6.64 0 0
6.72 0 0
6.8 0 0
6.88 0 0
6.96 0 0
7.04 0 0
7.12 0 0
7.2 0 0
7.28 0 0
7.36 0 0
7.44 0 0
7.52 0 0
7.6 0 0
7.68 0 0
7.76 0 0
7.84 0 0
7.92 0 0
8 0 0
8.08 0 0
8.16 0 0
8.24 0 0
8.32 0 0
8.4 0 0
8.48 0 0
8.56 0 0
8.64 0 0
8.72 0 0
8.8 0 0
8.88 0 0
8.96 0 0
9.04 0 0
9.12 0 0
9.2 0 0
9.28 0 0
9.36 0 0
9.44 0 0
9.52 0 0
9.6 0 0
9.68 0 0
9.76 0 0
9.84 0 0
9.92 0 0
10 0 0
10.08 0 0
10.16 0 0
10.24 0 0
10.32 0 0
10.4 0 0
10.48 0 0
10.56 0 0
10.64 0 0
10.72 0 0
10.8 0 0
10.88 0 0
10.96 0 0
11.04 0 0
11.12 0 0
11.2 0 0
11.28 0 0
11.36 0 0
11.44 0 0
11.52 0 0
11.6 0 0
11.68 0 0
11.76 0 0
11.84 0 0
11.92 0 0
12 0 0
12.08 0 0
12.16 0 0
12.24 0 0
12.32 0 0
12.4 0 0
12.48 0 0
12.56 0 0
12.64 0 0
12.72 0 0
12.8 0 0
12.88 0 0
12.96 0 0
13.04 0 0
13.12 0 0
13.2 0 0
13.28 0 0
13.36 0 0
13.44 0 0
13.52 0 0
13.6 0 0
13.68 0 0
13.76 0 0
13.84 0 0
13.92 0 0
14 0 0
14.08 0 0
14.16 0 0
14.24 0 0
14.32 0 0
14.4 0 0
14.48 0 0
14.56 0 0
14.64 0 0
14.72 0 0
14.8 0 0
14.88 0 0
14.96 0 0
15.04 0 0
15.12 0 0
15.2 0 0
15.28 0 0
15.36 0 0
15.44 0 0
15.52 0 0
15.6 0 0
15.68 0 0
15.76 0 0
15.84 0 0
15.92 0 0
16 0 0
16.08 0 0
16.16 0 0
16.24 0 0
16.32 0 0
16.4 0 0
16.48 0 0
16.56 0 0
16.64 0 0
16.72 0 0
16.8 0 0
16.88 0 0
16.96 0 0
17.04 0 0
17.12 0 0
17.2 0 0
17.28 0 0
17.36 0 0
17.44 0 0
17.52 0 0
17.6 0 0
17.68 0 0
17.76 0 0
17.84 0 0
17.92 0 0
18 0 0
18.08 0 0
18.16 0 0
18.24 0 0
18.32 0 0
18.4 0 0
18.48 0 0
18.56 0 0
18.64 0 0
18.72 0 0
18.8 0 0
18.88 0 0
18.96 0 0
19.04 0 0
19.12 0 0
19.2 0 0
19.28 0 0
19.36 0 0
19.44 0 0
19.52 0 0
19.6 0 0
19.68 0 0
19.76 0 0
19.84 0 0
19.92 0 0
20 0 0
20.08 0 0
20.16 0 0
20.24 0 0
20.32 0 0
20.4 0 0
20.48 0 0
20.56 0 0
20.64 0 0
20.72 0 0
20.8 0 0
20.88 0 0
20.96 0 0
21.04 0 0
21.12 0 0
21.2 0 0
21.28 0 0
21.36 0 0
21.44 0 0
21.52 0 0
21.6 0 0
21.68 0 0
21.76 0 0
21.84 0 0
21.92 0 0
22 0 0
22.08 0 0
22.16 0 0
22.24 0 0
22.32 0 0
22.4 0 0
22.48 0 0
22.56 0 0
22.64 0 0
22.72 0 0
22.8 0 0
22.88 0 0
22.96 0 0
23.04 0 0
23.12 0 0
23.2 0 0
23.28 0 0
23.36 0 0
23.44 0 0
23.52 0 0
23.6 0 0
23.68 0 0
23.76 0 0
23.84 0 0
23.92 0 0
24 0 0
24.08 0 0
24.16 0 0
24.24 0 0
24.32 0 0
24.4 0 0
24.48 0 0
24.56 0 0
24.64 0 0
24.72 0 0
24.8 0 0
24.88 0 0
24.96 0 0
25.04 0 0
25.12 0 0
25.2 0 0
25.28 0 0
25.36 0 0
25.44 0 0
25.52 0 0
25.6 0 0
25.68 0 0
25.76 0 0
25.84 0 0
25.92 0 0
26 0 0
26.08 0 0
26.16 0 0
26.24 0 0
26.32 0 0
26.4 0 0
26.48 0 0
26.56 0 0
26.64 0 0
26.72 0 0
26.8 0 0
26.88 0 0
26.96 0 0
27.04 0 0
27.12 0 0
27.2 0 0
27.28 0 0
27.36 0 0
27.44 0 0
27.52 0 0
27.6 0 0
27.68 0 0
27.76 0 0
27.84 0 0
27.92 0 0
28 0 0
28.08 0 0
28.16 0 0
28.24 0 0
28.32 0 0
28.4 0 0
28.48 0 0
28.56 0 0
28.64 0 0
28.72 0 0
28.8 0 0
28.88 0 0
28.96 0 0
29.04 0 0
29.12 0 0
29.2 0 0
29.28 0 0
29.36 0 0
29.44 0 0
29.52 0 0
29.6 0 0
29.68 0 0
29.76 0 0
29.84 0 0
29.92 0 0
30 0 0
30.08 0 0
30.16 0 0
30.24 0 0
30.32 0 0
30.4 0 0
30.48 0 0
30.56 0 0
30.64 0 0
30.72 0 0
30.8 0 0
30.88 0 0
30.96 0 0
31.04 0 0
31.12 0 0
31.2 0 0
31.28 0 0
31.36 0 0
31.44 0 0
31.52 0 0
31.6 0 0
31.68 0 0
31.76 0 0
31.84 0 0
31.92 0 0
0 0.005 0
0.08 0.005 0
0.16 0.005 0
0.24 0.005 0
0.32 0.005 0
0.4 0.005 0
0.48 0.005 0
0.56 0.005 0
0.64 0.005 0
0.72 0.005 0
0.8 0.005 0
0.88 0.005 0
0.96 0.005 0
1.04 0.005 0
1.12 0.005 0
1.2 0.005 0
1.28 0.005 0
1.36 0.005 0
1.44 0.005 0
1.52 0.005 0
1.6 0.005 0
1.68 0.005 0
1.76 0.005 0
1.84 0.005 0
1.92 0.005 0
2 0.005 0
2.08 0.005 0
2.16 0.005 0
2.24 0.005 0
2.32 0.005 0
2.4 0.005 0
2.48 0.005 0
2.56 0.005 0
2.64 0.005 0
2.72 0.005 0
2.8 0.005 0
2.88 0.005 0
2.96 0.005 0
3.04 0.005 0
3.12 0.005 0
3.2 0.005 0
3.28 0.005 0
3.36 0.005 0
3.44 0.005 0
3.52 0.005 0
3.6 0.005 0
3.68 0.005 0
3.76 0.005 0
3.84 0.005 0
3.92 0.005 0
4 0.005 0
4.08 0.005 0
4.16 0.005 0
4.24 0.005 0
4.32 0.005 0
4.4 0.005 0
4.48 0.005 0
4.56 0.005 0
4.64 0.005 0
4.72 0.005 0
4.8 0.005 0
4.88 0.005 0
4.96 0.005 0
5.04 0.005 0
5.12 0.005 0
5.2 0.005 0
5.28 0.005 0
5.36 0.005 0
5.44 0.005 0
5.52 0.005 0
5.6 0.005 0
5.68 0.005 0
5.76 0.005 0
5.84 0.005 0
5.92 0.005 0
6 0.005 0
6.08 0.005 0
6.16 0.005 0
6.24 0.005 0
6.32 0.005 0
6.4 0.005 0
6.48 0.005 0
6.56 0.005 0
6.64 0.005 0
6.72 0.005 0
6.8 0.005 0
6.88 0.005 0
6.96 0.005 0
7.04 0.005 0
7.12 0.005 0
7.2 0.005 0
7.28 0.005 0
7.36 0.005 0
7.44 0.005 0
7.52 0.005 0
7.6 0.005 0
7.68 0.005 0
7.76 0.005 0
7.84 0.005 0
7.92 0.005 0
8 0.005 0
8.08 0.005 0
8.16 0.005 0
8.24 0.005 0
8.32 0.005 0
8.4 0.005 0
8.48 0.005 0
8.56 0.005 0
8.64 0.005 0
8.72 0.005 0
8.8 0.005 0
8.88 0.005 0
8.96 0.005 0
9.04 0.005 0
9.12 0.005 0
9.2 0.005 0
9.28 0.005 0
9.36 0.005 0
9.44 0.005 0
9.52 0.005 0
9.6 0.005 0
9.68 0.005 0
9.76 0.005 0
9.84 0.005 0
9.92 0.005 0
10 0.005 0
10.08 0.005 0
10.16 0.005 0
10.24 0.005 0
10.32 0.005 0
10.4 0.005 0
10.48 0.005 0
10.56 0.005 0
10.64 0.005 0
10.72 0.005 0
10.8 0.005 0
10.88 0.005 0
10.96 0.005 0
11.04 0.005 0
11.12 0.005 0
11.2 0.005 0
11.28 0.005 0
11.36 0.005 0
11.44 0.005 0
11.52 0.005 0
11.6 0.005 0
11.68 0.005 0
11.76 0.005 0
11.84 0.005 0
11.92 0.005 0
12 0.005 0
12.08 0.005 0
12.16 0.005 0
12.24 0.005 0
12.32 0.005 0
12.4 0.005 0
12.48 0.005 0
12.56 0.005 0
12.64 0.005 0
12.72 0.005 0
12.8 0.005 0
12.88 0.005 0
12.96 0.005 0
13.04 0.005 0
13.12 0.005 0
13.2 0.005 0
13.28 0.005 0
13.36 0.005 0
13.44 0.005 0
13.52 0.005 0
13.6 0.005 0
13.68 0.005 0
13.76 0.005 0
13.84 0.005 0
13.92 0.005 0
14 0.005 0
14.08 0.005 0
14.16 0.005 0
14.24 0.005 0
14.32 0.005 0
14.4 0.005 0
14.48 0.005 0
14.56 0.005 0
14.64 0.005 0
14.72 0.005 0
14.8 0.005 0
14.88 0.005 0
14.96 0.005 0
15.04 0.005 0
15.12 0.005 0
15.2 0.005 0
15.28 0.005 0
15.36 0.005 0
15.44 0.005 0
15.52 0.005 0
15.6 0.005 0
15.68 0.005 0
15.76 0.005 0
15.84 0.005 0
15.92 0.005 0
16 0.005 0
16.08 0.005 0
16.16 0.005 0
16.24 0.005 0
16.32 0.005 0
16.4 0.005 0
16.48 0.005 0
16.56 0.005 0
16.64 0.005 0
16.72 0.005 0
16.8 0.005 0
16.88 0.005 0
16.96 0.005 0
17.04 0.005 0
17.12 0.005 0
17.2 0.005 0
17.28 0.005 0
17.36 0.005 0
17.44 0.005 0
17.52 0.005 0
17.6 0.005 0
17.68 0.005 0
17.76 0.005 0
17.84 0.005 0
17.92 0.005 0
18 0.005 0
18.08 0.005 0
18.16 0.005 0
18.24 0.005 0
18.32 0.005 0
18.4 0.005 0
18.48 0.005 0
18.56 0.005 0
18.64 0.005 0
18.72 0.005 0
18.8 0.005 0
18.88 0.005 0
18.96 0.005 0
19.04 0.005 0
19.12 0.005 0
19.2 0.005 0
19.28 0.005 0
19.36 0.005 0
19.44 0.005 0
19.52 0.005 0
19.6 0.005 0
19.68 0.005 0
19.76 0.005 0
19.84 0.005 0
19.92 0.005 0
20 0.005 0
20.08 0.005 0
20.16 0.005 0
20.24 0.005 0
20.32 0.005 0
20.4 0.005 0
20.48 0.005 0
20.56 0.005 0
20.64 0.005 0
20.72 0.005 0
20.8 0.005 0
20.88 0.005 0
20.96 0.005 0
21.04 0.005 0
21.12 0.005 0
21.2 0.005 0
21.28 0.005 0
21.36 0.005 0
21.44 0.005 0
21.52 0.005 0
21.6 0.005 0
21.68 0.005 0
21.76 0.005 0
21.84 0.005 0
21.92 0.005 0
22 0.005 0
22.08 0.005 0
22.16 0.005 0
22.24 0.005 0
22.32 0.005 0
22.4 0.005 0
22.48 0.005 0
22.56 0.005 0
22.64 0.005 0
22.72 0.005 0
22.8 0.005 0
22.88 0.005 0
22.96 0.005 0
23.04 0.005 0
23.12 0.005 0
23.2 0.005 0
23.28 0.005 0
23.36 0.005 0
23.44 0.005 0
23.52 0.005 0
23.6 0.005 0
23.68 0.005 0
23.76 0.005 0
23.84 0.005 0
23.92 0.005 0
24 0.005 0
24.08 0.005 0
24.16 0.005 0
24.24 0.005 0
24.32 0.005 0
24.4 0.005 0
24.48 0.005 0
24.56 0.005 0
24.64 0.005 0
24.72 0.005 0
24.8 0.005 0
24.88 0.005 0
24.96 0.005 0
25.04 0.005 0
25.12 0.005 0
25.2 0.005 0
25.28 0.005 0
25.36 0.005 0
25.44 0.005 0
25.52 0.005 0
25.6 0.005 0
25.68 0.005 0
25.76 0.005 0
25.84 0.005 0
25.92 0.005 0
26 0.005 0
26.08 0.005 0
26.16 0.005 0
26.24 0.005 0
26.32 0.005 0
26.4 0.005 0
26.48 0.005 0
26.56 0.005 0
26.64 0.005 0
26.72 0.005 0
26.8 0.005 0
26.88 0.005 0
26.96 0.005 0
27.04 0.005 0
27.12 0.005 0
27.2 0.005 0
27.28 0.005 0
27.36 0.005 0
27.44 0.005 0
27.52 0.005 0
27.6 0.005 0
27.68 0.005 0
27.76 0.005 0
27.84 0.005 0
27.92 0.005 0
28 0.005 0
28.08 0.005 0
28.16 0.005 0
28.24 0.005 0
28.32 0.005 0
28.4 0.005 0
28.48 0.005 0
28.56 0.005 0
28.64 0.005 0
28.72 0.005 0
28.8 0.005 0
28.88 0.005 0
28.96 0.005 0
29.04 0.005 0
29.12 0.005 0
29.2 0.005 0
29.28 0.005 0
29.36 0.005 0
29.44 0.005 0
29.52 0.005 0
29.6 0.005 0
29.68 0.005 0
29.76 0.005 0
29.84 0.005 0
29.92 0.005 0
30 0.005 0
30.08 0.005 0
30.16 0.005 0
30.24 0.005 0
30.32 0.005 0
30.4 0.005 0
30.48 0.005 0
30.56 0.005 0
30.64 0.005 0
30.72 0.005 0
30.8 0.005 0
30.88 0.005 0
30.96 0.005 0
31.04 0.005 0
31.12 0.005 0
31.2 0.005 0
31.28 0.005 0
31.36 0.005 0
31.44 0.005 0
31.52 0.005 0
31.6 0.005 0
31.68 0.005 0
31.76 0.005 0
31.84 0.005 0
31.92 0.005 0
0 0.01 0
0.08 0.01 0
0.16 0.01 0
0.24 0.01 0
0.32 0.01 0
0.4 0.01 0
0.48 0.01 0
0.56 0.01 0
0.64 0.01 0
0.72 0.01 0
0.8 0.01 0
0.88 0.01 0
0.96 0.01 0
1.04 0.01 0
1.12 0.01 0
1.2 0.01 0
1.28 0.01 0
1.36 0.01 0
1.44 0.01 0
1.52 0.01 0
1.6 0.01 0
1.68 0.01 0
1.76 0.01 0
1.84 0.01 0
1.92 0.01 0
2 0.01 0
2.08 0.01 0
2.16 0.01 0
2.24 0.01 0
2.32 0.01 0
2.4 0.01 0
2.48 0.01 0
2.56 0.01 0
2.64 0.01 0
2.72 0.01 0
2.8 0.01 0
2.88 0.01 0
2.96 0.01 0
3.04 0.01 0
3.12 0.01 0
3.2 0.01 0
3.28 0.01 0
3.36 0.01 0
3.44 0.01 0
3.52 0.01 0
3.6 0.01 0
3.68 0.01 0
3.76 0.01 0
3.84 0.01 0
3.92 0.01 0
4 0.01 0
4.08 0.01 0
4.16 0.01 0
4.24 0.01 0
4.32 0.01 0
4.4 0.01 0
4.48 0.01 0
4.56 0.01 0
4.64 0.01 0
4.72 0.01 0
4.8 0.01 0
4.88 0.01 0
4.96 0.01 0
5.04 0.01 0
5.12 0.01 0
[...]
POINT_DATA 80000

SCALARS v float 1
LOOKUP_TABLE default
0
0
0
0
0
0
0
0
0
0
0
0
0
0
0
0
0
0
0
0
0
0
0
0
0
0
0
0
0
0
0
0
0
0
0
0
0
0
0
0
0
0
0
0
0
0
0
0
0
0
0
0
0
0
0
0
0
0
0
0
0
0
0
0
0
0
0
0
0
0
0
0
0
0
0
0
0
0
0
0
0
0
0
0
0
0
0
0
0
0
0
0
0
0
0
0
0
0
0
0
0
0
0
0
0
0
0
0
0
0
0
0
0
0
0
0
0
0
0
0
0
0
0
0
0
0
0
0
0
0
0
0
0
0
0
0
0
0
0
0
0
0
0
0
0
0
0
0
0
0
0
0
0
0
0
0
0
0
0
0
0
0
0
0
0
0
0
0
0
0
0
0
0
0
0
0
0
0
0
0
0
0
0
0
0
0
0
0
0
0
0
0
0
0
0
0
0
0
0
0
0
0
0
0
0
0
0
0
0
0
0
0
0
0
0
0
0
0
0
0
0
0
0
0
0
0
0
0
0
0
0
0
0
0
0
0
0
0
0
0
0
0
0
0
0
0
0
0
0
0
0
0
0
0
0
0
0
0
0
0
0
0
0
0
0
0
0
0
0
0
0
0
0
0
0
0
0
0
0
0
0
0
0
0
0
0
0
0
0
0
0
0
0
0
0
0
0
0
0
0
0
0
0
0
0
0
0
0
0
0
0
0
0
0
0
0
0
0
0
0
0
0
0
0
0
0
0
0
0
0
0
0
0
0
0
0
0
0
0
0
0
0
0
0
0
0
0
0
0
0
0
0
0
0
0
0
0
0
0
0
0
0
0
0
0
0
0
0
0
0
0
0
0
0
0
0
0
0
0
0
0
0
0
0
0
0
0
0
0
0
0
0
0
0
0
0
0
0
0
0
-0.0542717
0.0542717
0.00396274
0.000998985
0.000492919
0.000303357
0.000207982
0.000152353
0.000116912
9.29541e-05
7.60378e-05
6.36708e-05
5.43627e-05
4.71789e-05
4.15072e-05
3.69292e-05
3.31559e-05
2.99947e-05
2.73203e-05
2.50384e-05
2.30579e-05
2.12932e-05
1.96875e-05
1.82276e-05
1.69264e-05
1.57826e-05
1.47522e-05
1.3758e-05
1.27298e-05
1.16437e-05
1.05297e-05
9.44494e-06
8.43446e-06
7.50844e-06
6.64862e-06
5.83446e-06
5.06756e-06
4.37754e-06
3.80712e-06
3.3874e-06
3.11887e-06
2.96807e-06
2.87961e-06
2.79564e-06
2.67307e-06
2.49234e-06
2.25686e-06
1.98603e-06
1.70603e-06
1.44164e-06
1.21108e-06
1.02403e-06
8.8221e-07
7.81458e-07
7.14324e-07
6.72353e-07
6.47702e-07
6.34012e-07
6.26659e-07
6.22601e-07
6.20035e-07
6.18014e-07
6.16116e-07
6.14206e-07
6.12278e-07
6.10367e-07
6.08509e-07
6.06727e-07
6.05028e-07
6.03406e-07
6.01851e-07
6.00353e-07
5.98898e-07
5.97476e-07
5.9608e-07
5.94703e-07
5.93341e-07
5.91991e-07
5.90649e-07
5.89316e-07
5.87989e-07
5.86668e-07
5.85352e-07
5.84041e-07
5.82734e-07
5.81431e-07
5.80132e-07
5.78837e-07
5.77546e-07
5.76257e-07
5.74972e-07
5.73691e-07
5.72413e-07
5.71138e-07
5.69866e-07
5.68597e-07
5.67332e-07
5.66071e-07
5.64812e-07
5.63558e-07
5.62306e-07
5.61059e-07
5.59815e-07
5.58575e-07
5.57338e-07
5.56106e-07
5.54877e-07
5.53652e-07
5.52432e-07
5.51215e-07
5.50003e-07
5.48794e-07
5.4759e-07
5.46391e-07
5.45195e-07
5.44004e-07
5.42817e-07
5.41635e-07
5.40458e-07
5.39285e-07
5.38116e-07
5.36953e-07
5.35794e-07
5.34639e-07
5.3349e-07
5.32346e-07
5.31206e-07
5.30072e-07
5.28943e-07
5.27819e-07
5.267e-07
5.25586e-07
5.24478e-07
5.23376e-07
5.22278e-07
5.21187e-07
5.20101e-07
5.19021e-07
5.17947e-07
5.16879e-07
5.15817e-07
5.14761e-07
5.13711e-07
5.12668e-07
5.11631e-07
5.10601e-07
5.09577e-07
5.0856e-07
5.0755e-07
5.06547e-07
5.05551e-07
5.04562e-07
5.03581e-07
5.02606e-07
5.0164e-07
5.00681e-07
4.9973e-07
4.98787e-07
4.97852e-07
4.96926e-07
4.96008e-07
4.95098e-07
4.94197e-07
4.93305e-07
4.92422e-07
4.91549e-07
4.90684e-07
4.8983e-07
4.88985e-07
4.8815e-07
4.87325e-07
4.86511e-07
4.85707e-07
4.84914e-07
4.84132e-07
4.83361e-07
4.82602e-07
4.81854e-07
4.81119e-07
4.80395e-07
4.79684e-07
4.78986e-07
4.78301e-07
4.77629e-07
4.7697e-07
4.76326e-07
4.75696e-07
4.7508e-07
4.74479e-07
4.73893e-07
4.73323e-07
4.72769e-07
4.72231e-07
4.71709e-07
4.71205e-07
4.70718e-07
4.70248e-07
4.69798e-07
4.69365e-07
4.68952e-07
4.68558e-07
4.68185e-07
4.67832e-07
4.67499e-07
4.67189e-07
4.669e-07
4.66634e-07
4.66391e-07
4.66172e-07
4.65977e-07
4.65807e-07
4.65662e-07
4.65544e-07
4.65452e-07
4.65387e-07
4.6535e-07
4.65342e-07
4.65363e-07
4.65415e-07
4.65497e-07
4.6561e-07
4.65756e-07
4.65935e-07
4.66148e-07
4.66395e-07
4.66677e-07
4.66996e-07
4.67352e-07
4.67745e-07
4.68177e-07
4.68649e-07
4.69161e-07
4.69714e-07
4.7031e-07
4.70949e-07
4.71632e-07
4.72359e-07
4.73133e-07
4.73953e-07
4.74821e-07
4.75737e-07
4.76703e-07
4.7772e-07
4.78788e-07
4.79908e-07
4.81081e-07
4.82309e-07
4.83591e-07
4.8493e-07
4.86325e-07
4.87779e-07
4.8929e-07
4.90861e-07
4.92493e-07
4.94185e-07
4.95939e-07
4.97755e-07
4.99635e-07
5.01578e-07
5.03586e-07
5.05659e-07
5.07798e-07
5.10003e-07
5.12274e-07
5.14612e-07
5.17018e-07
5.19491e-07
5.22032e-07
5.24641e-07
5.27318e-07
5.30063e-07
5.32876e-07
5.35757e-07
5.38706e-07
5.41722e-07
5.44805e-07
5.47954e-07
5.5117e-07
5.5445e-07
5.57795e-07
5.61203e-07
5.64674e-07
5.68206e-07
5.71798e-07
5.75449e-07
5.79157e-07
5.8292e-07
5.86738e-07
5.90607e-07
5.94527e-07
5.98494e-07
6.02506e-07
6.06562e-07
6.10658e-07
6.14792e-07
6.18961e-07
6.23162e-07
6.27392e-07
6.31647e-07
6.35925e-07
6.4022e-07
6.44531e-07
6.48852e-07
6.5318e-07
6.57511e-07
6.6184e-07
6.66163e-07
6.70475e-07
6.74772e-07
6.79048e-07
6.83299e-07
6.8752e-07
6.91705e-07
6.95849e-07
6.99947e-07
7.03993e-07
7.07981e-07
7.11905e-07
7.15761e-07
7.19541e-07
7.2324e-07
7.26851e-07
7.30369e-07
7.33788e-07
7.37101e-07
7.40302e-07
7.43384e-07
7.46342e-07
7.49169e-07
7.51858e-07
7.54404e-07
7.568e-07
7.5904e-07
7.61118e-07
7.63027e-07
7.64762e-07
7.66316e-07
7.67684e-07
7.68859e-07
7.69836e-07
7.7061e-07
7.71175e-07
7.71525e-07
7.71656e-07
7.71563e-07
7.71239e-07
7.70682e-07
7.69886e-07
7.68847e-07
7.67561e-07
7.66025e-07
7.64234e-07
7.62186e-07
7.59874e-07
7.57306e-07
7.54456e-07
7.51366e-07
7.47955e-07
7.44359e-07
7.40341e-07
7.36288e-07
7.3158e-07
7.27174e-07
7.21637e-07
7.1704e-07
7.10491e-07
7.05897e-07
6.98151e-07
6.93725e-07
6.84671e-07
6.8048e-07
6.70127e-07
6.66114e-07
6.54602e-07
6.50589e-07
6.38163e-07
6.33919e-07
6.20809e-07
6.16217e-07
6.02436e-07
5.9769e-07
5.82894e-07
5.7854e-07
5.62087e-07
5.58872e-07
5.40064e-07
5.38518e-07
5.17206e-07
5.16882e-07
4.94159e-07
4.92921e-07
4.72327e-07
4.63226e-07
4.57636e-07
4.1785e-07
4.70882e-07
3.37981e-07
7.14342e-07
3.9342e-07
3.9342e-07
-0.0952166
0.0952166
0.0129764
0.00385541
0.00193512
0.00119702
0.000822561
0.000603135
0.000462886
0.000367855
0.000300631
0.00025142
0.000214348
0.000185718
0.000163104
0.000144848
0.000129807
0.000117216
0.000106568
9.74745e-05
8.95717e-05
8.2529e-05
7.61342e-05
7.03349e-05
6.5164e-05
6.05923e-05
5.64359e-05
5.24021e-05
4.82404e-05
4.38783e-05
3.94374e-05
3.51292e-05
3.11142e-05
2.74276e-05
2.40094e-05
2.07991e-05
1.78174e-05
1.51781e-05
1.30287e-05
1.14618e-05
1.04535e-05
9.85983e-06
9.46736e-06
9.06515e-06
8.50497e-06
7.72846e-06
6.76055e-06
5.68098e-06
4.58951e-06
3.57669e-06
2.70617e-06
2.00889e-06
1.48652e-06
1.11994e-06
8.78986e-07
7.30878e-07
6.45935e-07
6.00506e-07
5.77637e-07
5.66322e-07
5.60126e-07
5.55726e-07
5.51686e-07
5.47574e-07
5.43398e-07
5.39303e-07
5.3542e-07
5.31826e-07
5.28541e-07
5.25547e-07
5.22801e-07
5.20257e-07
5.17871e-07
5.15603e-07
5.13424e-07
5.1131e-07
5.09245e-07
5.07216e-07
5.05216e-07
5.03237e-07
5.01277e-07
4.99332e-07
4.97399e-07
4.95476e-07
4.93563e-07
4.91657e-07
4.89758e-07
4.87866e-07
4.85979e-07
4.84096e-07
4.82219e-07
4.80345e-07
4.78476e-07
4.76611e-07
4.7475e-07
4.72892e-07
4.71039e-07
4.6919e-07
4.67345e-07
4.65504e-07
4.63668e-07
4.61837e-07
4.6001e-07
4.58188e-07
4.56371e-07
4.5456e-07
4.52753e-07
4.50952e-07
4.49157e-07
4.47367e-07
4.45583e-07
4.43804e-07
4.42031e-07
4.40264e-07
4.38503e-07
4.36748e-07
4.34999e-07
4.33256e-07
4.31519e-07
4.29788e-07
4.28063e-07
4.26345e-07
4.24633e-07
4.22928e-07
4.21229e-07
4.19537e-07
4.17852e-07
4.16173e-07
4.14501e-07
4.12836e-07
4.11178e-07
4.09527e-07
4.07883e-07
4.06247e-07
4.04618e-07
4.02996e-07
4.01382e-07
3.99776e-07
3.98177e-07
3.96586e-07
3.95004e-07
3.93429e-07
3.91863e-07
3.90305e-07
3.88755e-07
3.87215e-07
3.85683e-07
3.8416e-07
3.82645e-07
3.81141e-07
3.79645e-07
3.78159e-07
3.76683e-07
3.75216e-07
3.7376e-07
3.72313e-07
3.70877e-07
3.69452e-07
3.68037e-07
3.66633e-07
3.6524e-07
3.63858e-07
3.62488e-07
3.61129e-07
3.59783e-07
3.58448e-07
3.57126e-07
3.55817e-07
3.5452e-07
3.53236e-07
3.51966e-07
3.50709e-07
3.49466e-07
3.48237e-07
3.47023e-07
3.45823e-07
3.44638e-07
3.43468e-07
3.42314e-07
3.41176e-07
3.40055e-07
3.38949e-07
3.37861e-07
3.3679e-07
3.35737e-07
3.34701e-07
3.33684e-07
3.32686e-07
3.31707e-07
3.30748e-07
3.29809e-07
3.2889e-07
3.27993e-07
3.27116e-07
3.26262e-07
3.2543e-07
3.24621e-07
3.23835e-07
3.23074e-07
3.22337e-07
3.21624e-07
3.20938e-07
3.20278e-07
3.19644e-07
3.19038e-07
3.1846e-07
3.17911e-07
3.17391e-07
3.16901e-07
3.16442e-07
3.16014e-07
3.15619e-07
3.15256e-07
3.14927e-07
3.14632e-07
3.14373e-07
3.14149e-07
3.13963e-07
3.13813e-07
3.13703e-07
3.13631e-07
3.136e-07
3.1361e-07
3.13661e-07
3.13756e-07
3.13894e-07
3.14077e-07
3.14306e-07
3.14581e-07
3.14904e-07
3.15275e-07
3.15696e-07
3.16168e-07
3.16691e-07
3.17266e-07
3.17895e-07
3.18579e-07
3.19318e-07
3.20114e-07
3.20967e-07
3.21879e-07
3.2285e-07
3.23882e-07
3.24976e-07
3.26132e-07
3.27352e-07
3.28636e-07
3.29986e-07
3.31402e-07
3.32885e-07
3.34436e-07
3.36057e-07
3.37747e-07
3.39507e-07
3.41339e-07
3.43243e-07
3.45219e-07
3.47269e-07
3.49392e-07
3.5159e-07
3.53863e-07
3.56211e-07
3.58635e-07
3.61135e-07
3.6371e-07
3.66362e-07
3.69091e-07
3.71895e-07
3.74776e-07
3.77733e-07
3.80765e-07
3.83873e-07
3.87056e-07
3.90313e-07
3.93644e-07
3.97047e-07
4.00522e-07
4.04069e-07
4.07684e-07
4.11369e-07
4.1512e-07
4.18936e-07
4.22816e-07
4.26758e-07
4.3076e-07
4.3482e-07
4.38935e-07
4.43103e-07
4.47321e-07
4.51587e-07
4.55898e-07
4.60251e-07
4.64642e-07
4.69068e-07
4.73525e-07
4.78011e-07
4.8252e-07
4.87049e-07
4.91593e-07
4.96149e-07
5.00711e-07
5.05276e-07
5.09837e-07
5.1439e-07
5.18929e-07
5.2345e-07
5.27947e-07
5.32414e-07
5.36845e-07
5.41234e-07
5.45575e-07
5.49863e-07
5.5409e-07
5.5825e-07
5.62337e-07
5.66344e-07
5.70264e-07
5.74089e-07
5.77814e-07
5.81431e-07
5.84933e-07
5.88313e-07
5.91563e-07
5.94676e-07
5.97646e-07
6.00464e-07
6.03123e-07
6.05616e-07
6.07936e-07
6.10075e-07
6.12027e-07
6.13783e-07
6.15337e-07
6.16681e-07
6.17809e-07
6.18714e-07
6.19389e-07
6.19827e-07
6.20022e-07
6.19968e-07
6.19657e-07
6.19085e-07
6.18245e-07
6.17131e-07
6.15739e-07
6.14062e-07
6.12097e-07
6.09837e-07
6.0728e-07
6.04419e-07
6.01252e-07
5.97773e-07
5.93986e-07
5.89869e-07
5.8546e-07
5.80674e-07
5.75666e-07
5.7015e-07
5.64623e-07
5.58232e-07
5.52387e-07
5.44828e-07
5.39056e-07
5.29825e-07
5.24737e-07
5.13144e-07
5.09476e-07
4.94818e-07
4.93191e-07
4.75023e-07
4.75692e-07
4.54019e-07
4.56754e-07
4.32077e-07
4.36192e-07
4.0939e-07
4.13977e-07
3.85904e-07
3.90444e-07
3.61154e-07
3.66285e-07
3.34471e-07
3.42186e-07
3.05361e-07
3.18432e-07
2.73894e-07
2.94281e-07
2.4134e-07
2.67394e-07
2.09927e-07
2.33796e-07
1.84522e-07
1.80871e-07
1.86627e-07
7.16961e-08
2.9248e-07
-1.60217e-07
1.22372e-06
9.81032e-08
9.81032e-08
-0.125294
0.125294
0.0249367
0.00835891
0.00427892
0.00266246
0.00183468
0.0013473
0.00103483
0.000822636
0.000672287
0.000562094
0.000479013
0.000414817
0.000364089
0.000323129
0.000289391
0.000261164
0.000237299
0.000216906
0.000199167
0.00018336
0.000169031
0.000156057
0.000144482
0.000134204
0.000124803
0.000115649
0.000106229
9.64101e-05
8.64635e-05
7.68351e-05
6.78571e-05
5.96043e-05
5.19658e-05
4.48395e-05
3.82903e-05
3.25615e-05
2.79431e-05
2.45923e-05
2.24171e-05
2.10833e-05
2.01281e-05
1.91126e-05
1.77428e-05
1.59177e-05
1.37093e-05
1.12976e-05
8.89755e-06
6.69775e-06
4.8262e-06
3.34035e-06
2.23621e-06
1.46738e-06
9.66054e-07
6.60609e-07
4.87293e-07
3.95925e-07
3.50901e-07
3.29338e-07
3.17996e-07
3.10129e-07
3.02884e-07
2.95449e-07
2.87894e-07
2.80536e-07
2.73658e-07
2.67414e-07
2.61839e-07
2.56887e-07
2.52466e-07
2.48475e-07
2.44817e-07
2.4141e-07
2.38189e-07
2.35106e-07
2.32124e-07
2.29218e-07
2.2637e-07
2.23567e-07
2.20799e-07
2.18061e-07
2.15346e-07
2.1265e-07
2.09971e-07
2.07305e-07
2.0465e-07
2.02005e-07
1.99368e-07
1.96737e-07
1.94112e-07
1.91493e-07
1.88878e-07
1.86268e-07
1.83662e-07
1.8106e-07
1.78463e-07
1.75871e-07
1.73283e-07
1.707e-07
1.68123e-07
1.65551e-07
1.62985e-07
1.60425e-07
1.57871e-07
1.55324e-07
1.52783e-07
1.50249e-07
1.47722e-07
1.45202e-07
1.42689e-07
1.40183e-07
1.37685e-07
1.35194e-07
1.32711e-07
1.30236e-07
1.27768e-07
1.25308e-07
1.22855e-07
1.20411e-07
1.17974e-07
1.15545e-07
1.13125e-07
1.10712e-07
1.08308e-07
1.05912e-07
1.03524e-07
1.01144e-07
9.87732e-08
9.64109e-08
9.4057e-08
9.17121e-08
8.93759e-08
8.70489e-08
8.47308e-08
8.2422e-08
8.01224e-08
7.78324e-08
7.55518e-08
7.32811e-08
7.10201e-08
6.87692e-08
6.65282e-08
6.42977e-08
6.20775e-08
5.9868e-08
5.76691e-08
5.54812e-08
5.33042e-08
5.11387e-08
4.89844e-08
4.68418e-08
4.47109e-08
4.25921e-08
4.04852e-08
3.8391e-08
3.63091e-08
3.42402e-08
3.21842e-08
3.01415e-08
2.81121e-08
2.60965e-08
2.40947e-08
2.21073e-08
2.0134e-08
1.81757e-08
1.62321e-08
1.43039e-08
1.2391e-08
1.04941e-08
8.61306e-09
6.7486e-09
4.90064e-09
3.06986e-09
1.25624e-09
-5.39545e-10
-2.3175e-09
-4.07692e-09
-5.81779e-09
-7.5394e-09
-9.24171e-09
-1.0924e-08
-1.25862e-08
-1.42275e-08
-1.5848e-08
-1.74467e-08
-1.90237e-08
-2.0578e-08
-2.21097e-08
-2.36179e-08
-2.51023e-08
-2.65623e-08
-2.79975e-08
-2.94073e-08
-3.07912e-08
-3.21485e-08
-3.3479e-08
-3.47817e-08
-3.60563e-08
-3.7302e-08
-3.85184e-08
-3.97046e-08
-4.08603e-08
-4.19844e-08
-4.30767e-08
-4.4136e-08
-4.51621e-08
-4.61538e-08
-4.71109e-08
-4.80321e-08
-4.89171e-08
-4.97648e-08
-5.05746e-08
-5.13456e-08
-5.20771e-08
-5.2768e-08
-5.34178e-08
-5.40253e-08
-5.45899e-08
-5.51105e-08
-5.55864e-08
-5.60165e-08
-5.64001e-08
-5.6736e-08
-5.70235e-08
-5.72614e-08
-5.74491e-08
-5.75851e-08
-5.7669e-08
-5.76992e-08
-5.76754e-08
-5.75959e-08
-5.74603e-08
-5.72672e-08
-5.70158e-08
-5.67049e-08
-5.63338e-08
-5.59012e-08
-5.54064e-08
-5.48481e-08
-5.42256e-08
-5.35378e-08
-5.27838e-08
-5.19626e-08
-5.10735e-08
-5.01152e-08
-4.90874e-08
-4.79887e-08
-4.68187e-08
-4.55762e-08
-4.4261e-08
-4.28718e-08
-4.14084e-08
-3.98699e-08
-3.82559e-08
-3.65656e-08
-3.47989e-08
-3.29549e-08
-3.10337e-08
-2.90346e-08
-2.69577e-08
-2.48026e-08
-2.25694e-08
-2.02578e-08
-1.78683e-08
-1.54007e-08
-1.28554e-08
-1.02327e-08
-7.53318e-09
-4.75711e-09
-1.90548e-09
1.02127e-09
4.02192e-09
7.09581e-09
1.02415e-08
1.3458e-08
1.67436e-08
2.00973e-08
2.35168e-08
2.70009e-08
3.05471e-08
3.41538e-08
3.78184e-08
4.15387e-08
4.53119e-08
4.91356e-08
5.30066e-08
5.69221e-08
6.08786e-08
6.4873e-08
6.89015e-08
7.29605e-08
7.70459e-08
8.11539e-08
8.52799e-08
8.94199e-08
9.35687e-08
9.7722e-08
1.01875e-07
1.06021e-07
1.10157e-07
1.14276e-07
1.18373e-07
1.22442e-07
1.26476e-07
1.30471e-07
1.34419e-07
1.38314e-07
1.4215e-07
1.45919e-07
1.49616e-07
1.53232e-07
1.56761e-07
1.60196e-07
1.63529e-07
1.66753e-07
1.69861e-07
1.72844e-07
1.75695e-07
1.78407e-07
1.80971e-07
1.8338e-07
1.85626e-07
1.87701e-07
1.89597e-07
1.91307e-07
1.92821e-07
1.94134e-07
1.95236e-07
1.9612e-07
1.96778e-07
1.97203e-07
1.97387e-07
1.97323e-07
1.97003e-07
1.9642e-07
1.95568e-07
1.94439e-07
1.93026e-07
1.91323e-07
1.89324e-07
1.87022e-07
1.84411e-07
1.81487e-07
1.78243e-07
1.74674e-07
1.70776e-07
1.66542e-07
1.61971e-07
1.57056e-07
1.51797e-07
1.46181e-07
1.40227e-07
1.33887e-07
1.27248e-07
1.20136e-07
1.12872e-07
1.04866e-07
9.71568e-08
8.79635e-08
8.02403e-08
6.92429e-08
6.2342e-08
4.8468e-08
4.36984e-08
2.54677e-08
2.44094e-08
3.02881e-10
4.29849e-09
-2.66631e-08
-1.70616e-08
-5.48833e-08
-4.01741e-08
-8.38074e-08
-6.5461e-08
-1.13044e-07
-9.30293e-08
-1.42725e-07
-1.22227e-07
-1.73872e-07
-1.51601e-07
-2.08005e-07
-1.79698e-07
-2.46256e-07
-2.05962e-07
-2.88532e-07
-2.32038e-07
-3.32223e-07
-2.62945e-07
-3.72736e-07
-3.07144e-07
-4.00091e-07
-3.91256e-07
-3.69245e-07
-5.93515e-07
-1.20065e-07
-1.05015e-06
1.82383e-06
-4.80697e-07
-4.80697e-07
-0.146488
0.146488
0.0383113
0.014235
0.00745703
0.00467378
0.00323159
0.00237757
0.00182811
0.00145408
0.00118858
0.000993741
0.000846709
0.000733025
0.000643149
0.000570567
0.000510793
0.000460804
0.000418543
0.000382413
0.000350963
0.000322946
0.000297582
0.000274647
0.000254168
0.000235915
0.000219137
0.000202767
0.000185961
0.000168527
0.000150936
0.000133933
0.000118067
0.000103472
8.99886e-05
7.74876e-05
6.6107e-05
5.62534e-05
4.83759e-05
4.26768e-05
3.89386e-05
3.65564e-05
3.47389e-05
3.2763e-05
3.01649e-05
2.68099e-05
2.28469e-05
1.85954e-05
1.44204e-05
1.06343e-05
7.44139e-06
4.92577e-06
3.06932e-06
1.78514e-06
9.53263e-07
4.49936e-07
1.66575e-07
1.86081e-08
-5.34292e-08
-8.74279e-08
-1.05109e-07
-1.17406e-07
-1.28853e-07
-1.40664e-07
-1.52656e-07
-1.6427e-07
-1.75034e-07
-1.84696e-07
-1.93207e-07
-2.00657e-07
-2.07202e-07
-2.13019e-07
-2.18272e-07
-2.23101e-07
-2.27615e-07
-2.31896e-07
-2.36006e-07
-2.39987e-07
-2.4387e-07
-2.47677e-07
-2.51425e-07
-2.55125e-07
-2.58787e-07
-2.62416e-07
-2.66021e-07
-2.69604e-07
-2.73171e-07
-2.76725e-07
-2.80267e-07
-2.838e-07
-2.87327e-07
-2.90847e-07
-2.94362e-07
-2.97872e-07
-3.01378e-07
-3.04879e-07
-3.08376e-07
-3.11868e-07
-3.15355e-07
-3.18837e-07
-3.22313e-07
-3.25782e-07
-3.29245e-07
-3.32701e-07
-3.3615e-07
-3.3959e-07
-3.43024e-07
-3.46448e-07
-3.49865e-07
-3.53273e-07
-3.56672e-07
-3.60063e-07
-3.63444e-07
-3.66816e-07
-3.7018e-07
-3.73534e-07
-3.76879e-07
-3.80214e-07
-3.83541e-07
-3.86858e-07
-3.90165e-07
-3.93463e-07
-3.96752e-07
-4.0003e-07
-4.033e-07
-4.06559e-07
-4.09809e-07
-4.13049e-07
-4.16279e-07
-4.19499e-07
-4.22709e-07
-4.25908e-07
-4.29098e-07
-4.32277e-07
-4.35445e-07
-4.38603e-07
-4.4175e-07
-4.44885e-07
-4.4801e-07
-4.51124e-07
-4.54226e-07
-4.57317e-07
-4.60396e-07
-4.63463e-07
-4.66518e-07
-4.69561e-07
-4.72592e-07
-4.7561e-07
-4.78616e-07
-4.81608e-07
-4.84588e-07
-4.87554e-07
-4.90507e-07
-4.93445e-07
-4.96371e-07
-4.99281e-07
-5.02178e-07
-5.0506e-07
-5.07927e-07
-5.10779e-07
-5.13616e-07
-5.16437e-07
-5.19243e-07
-5.22032e-07
-5.24805e-07
-5.27561e-07
-5.30301e-07
-5.33022e-07
-5.35727e-07
-5.38414e-07
-5.41082e-07
-5.43732e-07
-5.46363e-07
-5.48975e-07
-5.51567e-07
-5.5414e-07
-5.56692e-07
-5.59224e-07
-5.61734e-07
-5.64223e-07
-5.66691e-07
-5.69135e-07
-5.71558e-07
-5.73957e-07
-5.76333e-07
-5.78684e-07
-5.81012e-07
-5.83314e-07
-5.85591e-07
-5.87841e-07
-5.90066e-07
-5.92263e-07
-5.94433e-07
-5.96574e-07
-5.98687e-07
-6.00771e-07
-6.02825e-07
-6.04849e-07
-6.06841e-07
-6.08802e-07
-6.10731e-07
-6.12626e-07
-6.14489e-07
-6.16316e-07
-6.18109e-07
-6.19866e-07
-6.21587e-07
-6.23271e-07
-6.24916e-07
-6.26523e-07
-6.28091e-07
-6.29619e-07
-6.31105e-07
-6.3255e-07
-6.33952e-07
-6.35311e-07
-6.36626e-07
-6.37895e-07
-6.39119e-07
-6.40295e-07
-6.41424e-07
-6.42504e-07
-6.43535e-07
-6.44515e-07
-6.45444e-07
-6.46321e-07
-6.47145e-07
-6.47914e-07
-6.48628e-07
-6.49287e-07
-6.49888e-07
-6.50432e-07
-6.50917e-07
-6.51342e-07
-6.51707e-07
-6.52009e-07
-6.5225e-07
-6.52427e-07
-6.5254e-07
-6.52587e-07
-6.52569e-07
-6.52484e-07
-6.52331e-07
-6.5211e-07
-6.51819e-07
-6.51459e-07
-6.51028e-07
-6.50525e-07
-6.4995e-07
-6.49303e-07
-6.48583e-07
-6.47788e-07
-6.4692e-07
-6.45977e-07
-6.44959e-07
-6.43866e-07
-6.42698e-07
-6.41453e-07
-6.40133e-07
-6.38737e-07
-6.37265e-07
-6.35718e-07
-6.34095e-07
-6.32396e-07
-6.30624e-07
-6.28776e-07
-6.26855e-07
-6.24861e-07
-6.22795e-07
-6.20657e-07
-6.18449e-07
-6.16171e-07
-6.13826e-07
-6.11414e-07
-6.08938e-07
-6.06397e-07
-6.03796e-07
-6.01134e-07
-5.98415e-07
-5.95641e-07
-5.92814e-07
-5.89937e-07
-5.87012e-07
-5.84042e-07
-5.8103e-07
-5.7798e-07
-5.74895e-07
-5.71778e-07
-5.68633e-07
-5.65464e-07
-5.62275e-07
-5.59071e-07
-5.55855e-07
-5.52632e-07
-5.49408e-07
-5.46186e-07
-5.42973e-07
-5.39773e-07
-5.36592e-07
-5.33435e-07
-5.30309e-07
-5.27219e-07
-5.24171e-07
-5.21172e-07
-5.18229e-07
-5.15347e-07
-5.12534e-07
-5.09796e-07
-5.07141e-07
-5.04575e-07
-5.02106e-07
-4.99741e-07
-4.97489e-07
-4.95355e-07
-4.9335e-07
-4.91478e-07
-4.8975e-07
-4.88172e-07
-4.86753e-07
-4.85501e-07
-4.84424e-07
-4.83529e-07
-4.82826e-07
-4.82321e-07
-4.82025e-07
-4.81943e-07
-4.82085e-07
-4.82457e-07
-4.8307e-07
-4.8393e-07
-4.85044e-07
-4.86421e-07
-4.88069e-07
-4.89994e-07
-4.92205e-07
-4.94707e-07
-4.97509e-07
-5.00617e-07
-5.04037e-07
-5.07777e-07
-5.11842e-07
-5.16238e-07
-5.20971e-07
-5.26046e-07
-5.3147e-07
-5.37246e-07
-5.43379e-07
-5.49874e-07
-5.56734e-07
-5.63965e-07
-5.71564e-07
-5.79549e-07
-5.87889e-07
-5.9666e-07
-6.05715e-07
-6.15342e-07
-6.25004e-07
-6.35684e-07
-6.45646e-07
-6.57868e-07
-6.674e-07
-6.82202e-07
-6.89888e-07
-7.09089e-07
-7.12703e-07
-7.38825e-07
-7.35672e-07
-7.71316e-07
-7.59105e-07
-8.05954e-07
-7.83743e-07
-8.41818e-07
-8.10458e-07
-8.77997e-07