# vtk DataFile Version 2.0
FlowField
ASCII
DATASET STRUCTURED_GRID
DIMENSIONS 400 1 200
POINTS 80000 float
0 0 0
0.08 0 0
0.16 0 0
0.24 0 0
0.32 0 0
0.4 0 0
0.48 0 0
0.56 0 0
0.64 0 0
0.72 0 0
0.8 0 0
0.88 0 0
0.96 0 0
1.04 0 0
1.12 0 0
1.2 0 0
1.28 0 0
1.36 0 0
1.44 0 0
1.52 0 0
1.6 0 0
1.68 0 0
1.76 0 0
1.84 0 0
1.92 0 0
2 0 0
2.08 0 0
2.16 0 0
2.24 0 0
2.32 0 0
2.4 0 0
2.48 0 0
2.56 0 0
2.64 0 0
2.72 0 0
2.8 0 0
2.88 0 0
2.96 0 0
3.04 0 0
3.12 0 0
3.2 0 0
3.28 0 0
3.36 0 0
3.44 0 0
3.52 0 0
3.6 0 0
3.68 0 0
3.76 0 0
3.84 0 0
3.92 0 0
4 0 0
4.08 0 0
4.16 0 0
4.24 0 0
4.32 0 0
4.4 0 0
4.48 0 0
4.56 0 0
4.64 0 0
4.72 0 0
4.8 0 0
4.88 0 0
4.96 0 0
5.04 0 0
5.12 0 0
5.2 0 0
5.28 0 0
5.36 0 0
5.44 0 0
5.52 0 0
5.6 0 0
5.68 0 0
5.76 0 0
5.84 0 0
5.92 0 0
6 0 0
6.08 0 0
6.16 0 0
6.24 0 0
6.32 0 0
6.4 0 0
6.48 0 0
6.56 0 0
6.64 0 0
6.72 0 0
6.8 0 0
6.88 0 0
6.96 0 0
7.04 0 0
7.12 0 0
7.2 0 0
7.28 0 0
7.36 0 0
7.44 0 0
7.52 0 0
7.6 0 0
7.68 0 0
7.76 0 0
7.84 0 0
7.92 0 0
8 0 0
8.08 0 0
8.16 0 0
8.24 0 0
8.32 0 0
8.4 0 0
8.48 0 0
8.56 0 0
8.64 0 0
8.72 0 0
8.8 0 0
8.88 0 0
8.96 0 0
9.04 0 0
9.12 0 0
9.2 0 0
9.28 0 0
9.36 0 0
9.44 0 0
9.52 0 0
9.6 0 0
9.68 0 0
9.76 0 0
9.84 0 0
9.92 0 0
10 0 0
10.08 0 0
10.16 0 0
10.24 0 0
10.32 0 0
10.4 0 0
10.48 0 0
10.56 0 0
10.64 0 0
10.72 0 0
10.8 0 0
10.88 0 0
10.96 0 0
11.04 0 0
11.12 0 0
11.2 0 0
11.28 0 0
11.36 0 0
11.44 0 0
11.52 0 0
11.6 0 0
11.68 0 0
11.76 0 0
11.84 0 0
11.92 0 0
12 0 0
12.08 0 0
12.16 0 0
12.24 0 0
12.32 0 0
12.4 0 0
12.48 0 0
12.56 0 0
12.64 0 0
12.72 0 0
12.8 0 0
12.88 0 0
12.96 0 0
13.04 0 0
13.12 0 0
13.2 0 0
13.28 0 0
13.36 0 0
13.44 0 0
13.52 0 0
13.6 0 0
13.68 0 0
13.76 0 0
13.84 0 0
13.92 0 0
14 0 0
14.08 0 0
14.16 0 0
14.24 0 0
14.32 0 0
14.4 0 0
14.48 0 0
14.56 0 0
14.64 0 0
14.72 0 0
14.8 0 0
14.88 0 0
14.96 0 0
15.04 0 0
15.12 0 0
15.2 0 0
15.28 0 0
15.36 0 0
15.44 0 0
15.52 0 0
15.6 0 0
15.68 0 0
15.76 0 0
15.84 0 0
15.92 0 0
16 0 0
16.08 0 0
16.16 0 0
16.24 0 0
16.32 0 0
16.4 0 0
16.48 0 0
16.56 0 0
16.64 0 0
16.72 0 0
16.8 0 0
16.88 0 0
16.96 0 0
17.04 0 0
17.12 0 0
17.2 0 0
17.28 0 0
17.36 0 0
17.44 0 0
17.52 0 0
17.6 0 0
17.68 0 0
17.76 0 0
17.84 0 0
17.92 0 0
18 0 0
18.08 0 0
18.16 0 0
18.24 0 0
18.32 0 0
18.4 0 0
18.48 0 0
18.56 0 0
18.64 0 0
18.72 0 0
18.8 0 0
18.88 0 0
18.96 0 0
19.04 0 0
19.12 0 0
19.2 0 0
19.28 0 0
19.36 0 0
19.44 0 0
19.52 0 0
19.6 0 0
19.68 0 0
19.76 0 0
19.84 0 0
19.92 0 0
20 0 0
20.08 0 0
20.16 0 0
20.24 0 0
20.32 0 0
20.4 0 0
20.48 0 0
20.56 0 0
20.64 0 0
20.72 0 0
20.8 0 0
20.88 0 0
20.96 0 0
21.04 0 0
21.12 0 0
21.2 0 0
21.28 0 0
21.36 0 0
21.44 0 0
21.52 0 0
21.6 0 0
21.68 0 0
21.76 0 0
21.84 0 0
21.92 0 0
22 0 0
22.08 0 0
22.16 0 0
22.24 0 0
22.32 0 0
22.4 0 0
22.48 0 0
22.56 0 0
22.64 0 0
22.72 0 0
22.8 0 0
22.88 0 0
22.96 0 0
23.04 0 0
23.12 0 0
23.2 0 0
23.28 0 0
23.36 0 0
23.44 0 0
23.52 0 0
23.6 0 0
23.68 0 0
23.76 0 0
23.84 0 0
23.92 0 0
24 0 0
24.08 0 0
24.16 0 0
24.24 0 0
24.32 0 0
24.4 0 0
24.48 0 0
24.56 0 0
24.64 0 0
24.72 0 0
24.8 0 0
24.88 0 0
24.96 0 0
25.04 0 0
25.12 0 0
25.2 0 0
25.28 0 0
25.36 0 0
25.44 0 0
25.52 0 0
25.6 0 0
25.68 0 0
25.76 0 0
25.84 0 0
25.92 0 0
26 0 0
26.08 0 0
26.16 0 0
26.24 0 0
26.32 0 0
26.4 0 0
26.48 0 0
26.56 0 0
26.64 0 0
26.72 0 0
26.8 0 0
26.88 0 0
26.96 0 0
27.04 0 0
27.12 0 0
27.2 0 0
27.28 0 0
27.36 0 0
27.44 0 0
27.52 0 0
27.6 0 0
27.68 0 0
27.76 0 0
27.84 0 0
27.92 0 0
28 0 0
28.08 0 0
28.16 0 0
28.24 0 0
28.32 0 0
28.4 0 0
28.48 0 0
28.56 0 0
28.64 0 0
28.72 0 0
28.8 0 0
28.88 0 0
28.96 0 0
29.04 0 0
29.12 0 0
29.2 0 0
29.28 0 0
29.36 0 0
29.44 0 0
29.52 0 0
29.6 0 0
29.68 0 0
29.76 0 0
29.84 0 0
29.92 0 0
30 0 0
30.08 0 0
30.16 0 0
30.24 0 0
30.32 0 0
30.4 0 0
30.48 0 0
30.56 0 0
30.64 0 0
30.72 0 0
30.8 0 0
30.88 0 0
30.96 0 0
31.04 0 0
31.12 0 0
31.2 0 0
31.28 0 0
31.36 0 0
31.44 0 0
31.52 0 0
31.6 0 0
31.68 0 0
31.76 0 0
31.84 0 0
31.92 0 0
0 0.005 0
0.08 0.005 0
0.16 0.005 0
0.24 0.005 0
0.32 0.005 0
0.4 0.005 0
0.48 0.005 0
0.56 0.005 0
0.64 0.005 0
0.72 0.005 0
0.8 0.005 0
0.88 0.005 0
0.96 0.005 0
1.04 0.005 0
1.12 0.005 0
1.2 0.005 0
1.28 0.005 0
1.36 0.005 0
1.44 0.005 0
1.52 0.005 0
1.6 0.005 0
1.68 0.005 0
1.76 0.005 0
1.84 0.005 0
1.92 0.005 0
2 0.005 0
2.08 0.005 0
2.16 0.005 0
2.24 0.005 0
2.32 0.005 0
2.4 0.005 0
2.48 0.005 0
2.56 0.005 0
2.64 0.005 0
2.72 0.005 0
2.8 0.005 0
2.88 0.005 0
2.96 0.005 0
3.04 0.005 0
3.12 0.005 0
3.2 0.005 0
3.28 0.005 0
3.36 0.005 0
3.44 0.005 0
3.52 0.005 0
3.6 0.005 0
3.68 0.005 0
3.76 0.005 0
3.84 0.005 0
3.92 0.005 0
4 0.005 0
4.08 0.005 0
4.16 0.005 0
4.24 0.005 0
4.32 0.005 0
4.4 0.005 0
4.48 0.005 0
4.56 0.005 0
4.64 0.005 0
4.72 0.005 0
4.8 0.005 0
4.88 0.005 0
4.96 0.005 0
5.04 0.005 0
5.12 0.005 0
5.2 0.005 0
5.28 0.005 0
5.36 0.005 0
5.44 0.005 0
5.52 0.005 0
5.6 0.005 0
5.68 0.005 0
5.76 0.005 0
5.84 0.005 0
5.92 0.005 0
6 0.005 0
6.08 0.005 0
6.16 0.005 0
6.24 0.005 0
6.32 0.005 0
6.4 0.005 0
6.48 0.005 0
6.56 0.005 0
6.64 0.005 0
6.72 0.005 0
6.8 0.005 0
6.88 0.005 0
6.96 0.005 0
7.04 0.005 0
7.12 0.005 0
7.2 0.005 0
7.28 0.005 0
7.36 0.005 0
7.44 0.005 0
7.52 0.005 0
7.6 0.005 0
7.68 0.005 0
7.76 0.005 0
7.84 0.005 0
7.92 0.005 0
8 0.005 0
8.08 0.005 0
8.16 0.005 0
8.24 0.005 0
8.32 0.005 0
8.4 0.005 0
8.48 0.005 0
8.56 0.005 0
8.64 0.005 0
8.72 0.005 0
8.8 0.005 0
8.88 0.005 0
8.96 0.005 0
9.04 0.005 0
9.12 0.005 0
9.2 0.005 0
9.28 0.005 0
9.36 0.005 0
9.44 0.005 0
9.52 0.005 0
9.6 0.005 0
9.68 0.005 0
9.76 0.005 0
9.84 0.005 0
9.92 0.005 0
10 0.005 0
10.08 0.005 0
10.16 0.005 0
10.24 0.005 0
10.32 0.005 0
10.4 0.005 0
10.48 0.005 0
10.56 0.005 0
10.64 0.005 0
10.72 0.005 0
10.8 0.005 0
10.88 0.005 0
10.96 0.005 0
11.04 0.005 0
11.12 0.005 0
11.2 0.005 0
11.28 0.005 0
11.36 0.005 0
11.44 0.005 0
11.52 0.005 0
11.6 0.005 0
11.68 0.005 0
11.76 0.005 0
11.84 0.005 0
11.92 0.005 0
12 0.005 0
12.08 0.005 0
12.16 0.005 0
12.24 0.005 0
12.32 0.005 0
12.4 0.005 0
12.48 0.005 0
12.56 0.005 0
12.64 0.005 0
12.72 0.005 0
12.8 0.005 0
12.88 0.005 0
12.96 0.005 0
13.04 0.005 0
13.12 0.005 0
13.2 0.005 0
13.28 0.005 0
13.36 0.005 0
13.44 0.005 0
13.52 0.005 0
13.6 0.005 0
13.68 0.005 0
13.76 0.005 0
13.84 0.005 0
13.92 0.005 0
14 0.005 0
14.08 0.005 0
14.16 0.005 0
14.24 0.005 0
14.32 0.005 0
14.4 0.005 0
14.48 0.005 0
14.56 0.005 0
14.64 0.005 0
14.72 0.005 0
14.8 0.005 0
14.88 0.005 0
14.96 0.005 0
15.04 0.005 0
15.12 0.005 0
15.2 0.005 0
15.28 0.005 0
15.36 0.005 0
15.44 0.005 0
15.52 0.005 0
15.6 0.005 0
15.68 0.005 0
15.76 0.005 0
15.84 0.005 0
15.92 0.005 0
16 0.005 0
16.08 0.005 0
16.16 0.005 0
16.24 0.005 0
16.32 0.005 0
16.4 0.005 0
16.48 0.005 0
16.56 0.005 0
16.64 0.005 0
16.72 0.005 0
16.8 0.005 0
16.88 0.005 0
16.96 0.005 0
17.04 0.005 0
17.12 0.005 0
17.2 0.005 0
17.28 0.005 0
17.36 0.005 0
17.44 0.005 0
17.52 0.005 0
17.6 0.005 0
17.68 0.005 0
17.76 0.005 0
17.84 0.005 0
17.92 0.005 0
18 0.005 0
18.08 0.005 0
18.16 0.005 0
18.24 0.005 0
18.32 0.005 0
18.4 0.005 0
18.48 0.005 0
18.56 0.005 0
18.64 0.005 0
18.72 0.005 0
18.8 0.005 0
18.88 0.005 0
18.96 0.005 0
19.04 0.005 0
19.12 0.005 0
19.2 0.005 0
19.28 0.005 0
19.36 0.005 0
19.44 0.005 0
19.52 0.005 0
19.6 0.005 0
19.68 0.005 0
19.76 0.005 0
19.84 0.005 0
19.92 0.005 0
20 0.005 0
20.08 0.005 0
20.16 0.005 0
20.24 0.005 0
20.32 0.005 0
20.4 0.005 0
20.48 0.005 0
20.56 0.005 0
20.64 0.005 0
20.72 0.005 0
20.8 0.005 0
20.88 0.005 0
20.96 0.005 0
21.04 0.005 0
21.12 0.005 0
21.2 0.005 0
21.28 0.005 0
21.36 0.005 0
21.44 0.005 0
21.52 0.005 0
21.6 0.005 0
21.68 0.005 0
21.76 0.005 0
21.84 0.005 0
21.92 0.005 0
22 0.005 0
22.08 0.005 0
22.16 0.005 0
22.24 0.005 0
22.32 0.005 0
22.4 0.005 0
22.48 0.005 0
22.56 0.005 0
22.64 0.005 0
22.72 0.005 0
22.8 0.005 0
22.88 0.005 0
22.96 0.005 0
23.04 0.005 0
23.12 0.005 0
23.2 0.005 0
23.28 0.005 0
23.36 0.005 0
23.44 0.005 0
23.52 0.005 0
23.6 0.005 0
23.68 0.005 0
23.76 0.005 0
23.84 0.005 0
23.92 0.005 0
24 0.005 0
24.08 0.005 0
24.16 0.005 0
24.24 0.005 0
24.32 0.005 0
24.4 0.005 0
24.48 0.005 0
24.56 0.005 0
24.64 0.005 0
24.72 0.005 0
24.8 0.005 0
24.88 0.005 0
24.96 0.005 0
25.04 0.005 0
25.12 0.005 0
25.2 0.005 0
25.28 0.005 0
25.36 0.005 0
25.44 0.005 0
25.52 0.005 0
25.6 0.005 0
25.68 0.005 0
25.76 0.005 0
25.84 0.005 0
25.92 0.005 0
26 0.005 0
26.08 0.005 0
26.16 0.005 0
26.24 0.005 0
26.32 0.005 0
26.4 0.005 0
26.48 0.005 0
26.56 0.005 0
26.64 0.005 0
26.72 0.005 0
26.8 0.005 0
26.88 0.005 0
26.96 0.005 0
27.04 0.005 0
27.12 0.005 0
27.2 0.005 0
27.28 0.005 0
27.36 0.005 0
27.44 0.005 0
27.52 0.005 0
27.6 0.005 0
27.68 0.005 0
27.76 0.005 0
27.84 0.005 0
27.92 0.005 0
28 0.005 0
28.08 0.005 0
28.16 0.005 0
28.24 0.005 0
28.32 0.005 0
28.4 0.005 0
28.48 0.005 0
28.56 0.005 0
28.64 0.005 0
28.72 0.005 0
28.8 0.005 0
28.88 0.005 0
28.96 0.005 0
29.04 0.005 0
29.12 0.005 0
29.2 0.005 0
29.28 0.005 0
29.36 0.005 0
29.44 0.005 0
29.52 0.005 0
29.6 0.005 0
29.68 0.005 0
29.76 0.005 0
29.84 0.005 0
29.92 0.005 0
30 0.005 0
30.08 0.005 0
30.16 0.005 0
30.24 0.005 0
30.32 0.005 0
30.4 0.005 0
30.48 0.005 0
30.56 0.005 0
30.64 0.005 0
30.72 0.005 0
30.8 0.005 0
30.88 0.005 0
30.96 0.005 0
31.04 0.005 0
31.12 0.005 0
31.2 0.005 0
31.28 0.005 0
31.36 0.005 0
31.44 0.005 0
31.52 0.005 0
31.6 0.005 0
31.68 0.005 0
31.76 0.005 0
31.84 0.005 0
31.92 0.005 0
0 0.01 0
0.08 0.01 0
0.16 0.01 0
0.24 0.01 0
0.32 0.01 0
0.4 0.01 0
0.48 0.01 0
0.56 0.01 0
0.64 0.01 0
0.72 0.01 0
0.8 0.01 0
0.88 0.01 0
0.96 0.01 0
1.04 0.01 0
1.12 0.01 0
1.2 0.01 0
1.28 0.01 0
1.36 0.01 0
1.44 0.01 0
1.52 0.01 0
1.6 0.01 0
1.68 0.01 0
1.76 0.01 0
1.84 0.01 0
1.92 0.01 0
2 0.01 0
2.08 0.01 0
2.16 0.01 0
2.24 0.01 0
2.32 0.01 0
2.4 0.01 0
2.48 0.01 0
2.56 0.01 0
2.64 0.01 0
2.72 0.01 0
2.8 0.01 0
2.88 0.01 0
2.96 0.01 0
3.04 0.01 0
3.12 0.01 0
3.2 0.01 0
3.28 0.01 0
3.36 0.01 0
3.44 0.01 0
3.52 0.01 0
3.6 0.01 0
3.68 0.01 0
3.76 0.01 0
3.84 0.01 0
3.92 0.01 0
4 0.01 0
4.08 0.01 0
4.16 0.01 0
4.24 0.01 0
4.32 0.01 0
4.4 0.01 0
4.48 0.01 0
4.56 0.01 0
4.64 0.01 0
4.72 0.01 0
4.8 0.01 0
4.88 0.01 0
4.96 0.01 0
5.04 0.01 0
5.12 0.01 0
[...]
POINT_DATA 80000

SCALARS u float 1
LOOKUP_TABLE default
0
-0.131663
-0.0682696
-0.0522964
-0.0444204
-0.0395773
-0.0362603
-0.0338333
-0.0319733
-0.0304967
-0.0292907
-0.0282824
-0.027423
-0.0266784
-0.0260244
-0.0254436
-0.0249227
-0.0244519
-0.0240233
-0.0236309
-0.02327
-0.0229364
-0.022627
-0.022339
-0.0220701
-0.0218184
-0.0215822
-0.0213603
-0.0211511
-0.0209536
-0.0207668
-0.02059
-0.0204225
-0.0202638
-0.0201132
-0.0199701
-0.019834
-0.0197046
-0.0195817
-0.0194655
-0.0193558
-0.0192526
-0.0191557
-0.0190651
-0.018981
-0.0189037
-0.0188332
-0.0187696
-0.0187123
-0.0186604
-0.018613
-0.0185694
-0.018529
-0.0184917
-0.0184575
-0.0184267
-0.018399
-0.0183744
-0.0183522
-0.0183319
-0.018313
-0.0182951
-0.0182781
-0.018262
-0.0182471
-0.0182337
-0.0182221
-0.0182123
-0.0182045
-0.0181984
-0.018194
-0.018191
-0.0181892
-0.0181881
-0.0181877
-0.0181878
-0.0181881
-0.0181887
-0.0181893
-0.0181901
-0.0181909
-0.0181917
-0.0181926
-0.0181934
-0.0181943
-0.0181952
-0.0181961
-0.018197
-0.018198
-0.0181989
-0.0181998
-0.0182007
-0.0182016
-0.0182025
-0.0182035
-0.0182044
-0.0182053
-0.0182062
-0.0182072
-0.0182081
-0.018209
-0.0182099
-0.0182109
-0.0182118
-0.0182127
-0.0182137
-0.0182146
-0.0182155
-0.0182164
-0.0182174
-0.0182183
-0.0182192
-0.0182202
-0.0182211
-0.018222
-0.018223
-0.0182239
-0.0182248
-0.0182258
-0.0182267
-0.0182277
-0.0182286
-0.0182295
-0.0182305
-0.0182314
-0.0182324
-0.0182333
-0.0182342
-0.0182352
-0.0182361
-0.0182371
-0.018238
-0.018239
-0.0182399
-0.0182409
-0.0182418
-0.0182428
-0.0182437
-0.0182447
-0.0182456
-0.0182466
-0.0182475
-0.0182485
-0.0182494
-0.0182504
-0.0182513
-0.0182523
-0.0182532
-0.0182542
-0.0182551
-0.0182561
-0.0182571
-0.018258
-0.018259
-0.0182599
-0.0182609
-0.0182619
-0.0182628
-0.0182638
-0.0182647
-0.0182657
-0.0182667
-0.0182676
-0.0182686
-0.0182696
-0.0182705
-0.0182715
-0.0182725
-0.0182734
-0.0182744
-0.0182754
-0.0182763
-0.0182773
-0.0182783
-0.0182792
-0.0182802
-0.0182812
-0.0182822
-0.0182831
-0.0182841
-0.0182851
-0.018286
-0.018287
-0.018288
-0.018289
-0.01829
-0.0182909
-0.0182919
-0.0182929
-0.0182939
-0.0182948
-0.0182958
-0.0182968
-0.0182978
-0.0182988
-0.0182998
-0.0183007
-0.0183017
-0.0183027
-0.0183037
-0.0183047
-0.0183057
-0.0183066
-0.0183076
-0.0183086
-0.0183096
-0.0183106
-0.0183116
-0.0183126
-0.0183136
-0.0183146
-0.0183156
-0.0183165
-0.0183175
-0.0183185
-0.0183195
-0.0183205
-0.0183215
-0.0183225
-0.0183235
-0.0183245
-0.0183255
-0.0183265
-0.0183275
-0.0183285
-0.0183295
-0.0183305
-0.0183315
-0.0183325
-0.0183335
-0.0183345
-0.0183355
-0.0183365
-0.0183375
-0.0183385
-0.0183395
-0.0183405
-0.0183415
-0.0183425
-0.0183435
-0.0183446
-0.0183456
-0.0183466
-0.0183476
-0.0183486
-0.0183496
-0.0183506
-0.0183516
-0.0183526
-0.0183537
-0.0183547
-0.0183557
-0.0183567
-0.0183577
-0.0183587
-0.0183597
-0.0183608
-0.0183618
-0.0183628
-0.0183638
-0.0183648
-0.0183659
-0.0183669
-0.0183679
-0.0183689
-0.0183699
-0.018371
-0.018372
-0.018373
-0.018374
-0.0183751
-0.0183761
-0.0183771
-0.0183781
-0.0183792
-0.0183802
-0.0183812
-0.0183823
-0.0183833
-0.0183843
-0.0183854
-0.0183864
-0.0183874
-0.0183885
-0.0183895
-0.0183905
-0.0183916
-0.0183926
-0.0183936
-0.0183947
-0.0183957
-0.0183968
-0.0183978
-0.0183988
-0.0183999
-0.0184009
-0.018402
-0.018403
-0.018404
-0.0184051
-0.0184061
-0.0184072
-0.0184082
-0.0184093
-0.0184103
-0.0184114
-0.0184124
-0.0184135
-0.0184145
-0.0184156
-0.0184166
-0.0184177
-0.0184187
-0.0184198
-0.0184208
-0.0184219
-0.0184229
-0.018424
-0.018425
-0.0184261
-0.0184272
-0.0184282
-0.0184293
-0.0184303
-0.0184314
-0.0184324
-0.0184335
-0.0184346
-0.0184356
-0.0184367
-0.0184378
-0.0184388
-0.0184399
-0.018441
-0.018442
-0.0184431
-0.0184442
-0.0184452
-0.0184463
-0.0184474
-0.0184484
-0.0184495
-0.0184506
-0.0184517
-0.0184527
-0.0184538
-0.0184549
-0.0184559
-0.018457
-0.0184581
-0.0184592
-0.0184603
-0.0184613
-0.0184624
-0.0184635
-0.0184646
-0.0184657
-0.0184667
-0.0184678
-0.0184689
-0.01847
-0.0184711
-0.0184722
-0.0184732
-0.0184743
-0.0184754
-0.0184765
-0.0184776
-0.0184787
-0.0184798
-0.0184809
-0.018482
-0.0184831
-0.0184842
-0.0184852
-0.0184863
-0.0184874
-0.0184885
-0.0184896
-0.0184907
-0.0184918
-0.0184929
-0.018494
-0.0184951
-0.0184962
-0.0184973
-0.0184984
-0.0184995
-0.0185006
-0.0185018
-0.0185029
-0.018504
-0.0185052
-0.0185061
-0.0185076
-0.0185082
-0.0185101
-0.0185083
-0.0185083
-0.0185083
1
0.131663
0.0682696
0.0522964
0.0444204
0.0395773
0.0362603
0.0338333
0.0319733
0.0304967
0.0292907
0.0282824
0.027423
0.0266784
0.0260244
0.0254436
0.0249227
0.0244519
0.0240233
0.0236309
0.02327
0.0229364
0.022627
0.022339
0.0220701
0.0218184
0.0215822
0.0213603
0.0211511
0.0209536
0.0207668
0.02059
0.0204225
0.0202638
0.0201132
0.0199701
0.019834
0.0197046
0.0195817
0.0194655
0.0193558
0.0192526
0.0191557
0.0190651
0.018981
0.0189037
0.0188332
0.0187696
0.0187123
0.0186604
0.018613
0.0185694
0.018529
0.0184917
0.0184575
0.0184267
0.018399
0.0183744
0.0183522
0.0183319
0.018313
0.0182951
0.0182781
0.018262
0.0182471
0.0182337
0.0182221
0.0182123
0.0182045
0.0181984
0.018194
0.018191
0.0181892
0.0181881
0.0181877
0.0181878
0.0181881
0.0181887
0.0181893
0.0181901
0.0181909
0.0181917
0.0181926
0.0181934
0.0181943
0.0181952
0.0181961
0.018197
0.018198
0.0181989
0.0181998
0.0182007
0.0182016
0.0182025
0.0182035
0.0182044
0.0182053
0.0182062
0.0182072
0.0182081
0.018209
0.0182099
0.0182109
0.0182118
0.0182127
0.0182137
0.0182146
0.0182155
0.0182164
0.0182174
0.0182183
0.0182192
0.0182202
0.0182211
0.018222
0.018223
0.0182239
0.0182248
0.0182258
0.0182267
0.0182277
0.0182286
0.0182295
0.0182305
0.0182314
0.0182324
0.0182333
0.0182342
0.0182352
0.0182361
0.0182371
0.018238
0.018239
0.0182399
0.0182409
0.0182418
0.0182428
0.0182437
0.0182447
0.0182456
0.0182466
0.0182475
0.0182485
0.0182494
0.0182504
0.0182513
0.0182523
0.0182532
0.0182542
0.0182551
0.0182561
0.0182571
0.018258
0.018259
0.0182599
0.0182609
0.0182619
0.0182628
0.0182638
0.0182647
0.0182657
0.0182667
0.0182676
0.0182686
0.0182696
0.0182705
0.0182715
0.0182725
0.0182734
0.0182744
0.0182754
0.0182763
0.0182773
0.0182783
0.0182792
0.0182802
0.0182812
0.0182822
0.0182831
0.0182841
0.0182851
0.018286
0.018287
0.018288
0.018289
0.01829
0.0182909
0.0182919
0.0182929
0.0182939
0.0182948
0.0182958
0.0182968
0.0182978
0.0182988
0.0182998
0.0183007
0.0183017
0.0183027
0.0183037
0.0183047
0.0183057
0.0183066
0.0183076
0.0183086
0.0183096
0.0183106
0.0183116
0.0183126
0.0183136
0.0183146
0.0183156
0.0183165
0.0183175
0.0183185
0.0183195
0.0183205
0.0183215
0.0183225
0.0183235
0.0183245
0.0183255
0.0183265
0.0183275
0.0183285
0.0183295
0.0183305
0.0183315
0.0183325
0.0183335
0.0183345
0.0183355
0.0183365
0.0183375
0.0183385
0.0183395
0.0183405
0.0183415
0.0183425
0.0183435
0.0183446
0.0183456
0.0183466
0.0183476
0.0183486
0.0183496
0.0183506
0.0183516
0.0183526
0.0183537
0.0183547
0.0183557
0.0183567
0.0183577
0.0183587
0.0183597
0.0183608
0.0183618
0.0183628
0.0183638
0.0183648
0.0183659
0.0183669
0.0183679
0.0183689
0.0183699
0.018371
0.018372
0.018373
0.018374
0.0183751
0.0183761
0.0183771
0.0183781
0.0183792
0.0183802
0.0183812
0.0183823
0.0183833
0.0183843
0.0183854
0.0183864
0.0183874
0.0183885
0.0183895
0.0183905
0.0183916
0.0183926
0.0183936
0.0183947
0.0183957
0.0183968
0.0183978
0.0183988
0.0183999
0.0184009
0.018402
0.018403
0.018404
0.0184051
0.0184061
0.0184072
0.0184082
0.0184093
0.0184103
0.0184114
0.0184124
0.0184135
0.0184145
0.0184156
0.0184166
0.0184177
0.0184187
0.0184198
0.0184208
0.0184219
0.0184229
0.018424
0.018425
0.0184261
0.0184272
0.0184282
0.0184293
0.0184303
0.0184314
0.0184324
0.0184335
0.0184346
0.0184356
0.0184367
0.0184378
0.0184388
0.0184399
0.018441
0.018442
0.0184431
0.0184442
0.0184452
0.0184463
0.0184474
0.0184484
0.0184495
0.0184506
0.0184517
0.0184527
0.0184538
0.0184549
0.0184559
0.018457
0.0184581
0.0184592
0.0184603
0.0184613
0.0184624
0.0184635
0.0184646
0.0184657
0.0184667
0.0184678
0.0184689
0.01847
0.0184711
0.0184722
0.0184732
0.0184743
0.0184754
0.0184765
0.0184776
0.0184787
0.0184798
0.0184809
0.018482
0.0184831
0.0184842
0.0184852
0.0184863
0.0184874
0.0184885
0.0184896
0.0184907
0.0184918
0.0184929
0.018494
0.0184951
0.0184962
0.0184973
0.0184984
0.0184995
0.0185006
0.0185018
0.0185029
0.018504
0.0185052
0.0185061
0.0185076
0.0185082
0.0185101
0.0185083
0.0185083
0.0185083
1
0.344884
0.200669
0.154968
0.131896
0.1176
0.10777
0.10056
0.095027
0.0906313
0.0870403
0.0840385
0.0814805
0.0792655
0.0773212
0.0755952
0.0740482
0.0726504
0.0713788
0.070215
0.0691448
0.0681562
0.0672394
0.0663862
0.0655899
0.0648446
0.0641456
0.0634886
0.0628696
0.0622854
0.0617329
0.0612102
0.0607153
0.0602463
0.0598015
0.059379
0.0589774
0.0585959
0.0582344
0.0578927
0.0575707
0.0572681
0.0569846
0.0567202
0.0564753
0.0562506
0.0560464
0.055862
0.0556958
0.0555452
0.0554077
0.055281
0.0551638
0.0550559
0.0549573
0.0548682
0.0547884
0.054717
0.0546526
0.0545935
0.0545384
0.0544865
0.0544375
0.0543916
0.0543496
0.0543121
0.0542799
0.0542532
0.0542319
0.0542159
0.0542043
0.0541966
0.0541919
0.0541894
0.0541887
0.0541891
0.0541904
0.0541921
0.0541942
0.0541964
0.0541989
0.0542014
0.054204
0.0542066
0.0542092
0.0542119
0.0542146
0.0542173
0.0542201
0.0542228
0.0542255
0.0542283
0.054231
0.0542338
0.0542365
0.0542393
0.054242
0.0542448
0.0542475
0.0542503
0.054253
0.0542558
0.0542586
0.0542613
0.0542641
0.0542669
0.0542696
0.0542724
0.0542752
0.054278
0.0542807
0.0542835
0.0542863
0.0542891
0.0542919
0.0542947
0.0542975
0.0543002
0.054303
0.0543058
0.0543086
0.0543114
0.0543142
0.054317
0.0543198
0.0543226
0.0543254
0.0543283
0.0543311
0.0543339
0.0543367
0.0543395
0.0543423
0.0543452
0.054348
0.0543508
0.0543536
0.0543565
0.0543593
0.0543621
0.0543649
0.0543678
0.0543706
0.0543735
0.0543763
0.0543791
0.054382
0.0543848
0.0543877
0.0543905
0.0543934
0.0543962
0.0543991
0.0544019
0.0544048
0.0544077
0.0544105
0.0544134
0.0544163
0.0544191
0.054422
0.0544249
0.0544277
0.0544306
0.0544335
0.0544364
0.0544392
0.0544421
0.054445
0.0544479
0.0544508
0.0544537
0.0544566
0.0544594
0.0544623
0.0544652
0.0544681
0.054471
0.0544739
0.0544768
0.0544797
0.0544826
0.0544855
0.0544885
0.0544914
0.0544943
0.0544972
0.0545001
0.054503
0.0545059
0.0545089
0.0545118
0.0545147
0.0545176
0.0545206
0.0545235
0.0545264
0.0545294
0.0545323
0.0545352
0.0545382
0.0545411
0.054544
0.054547
0.0545499
0.0545529
0.0545558
0.0545588
0.0545617
0.0545647
0.0545676
0.0545706
0.0545735
0.0545765
0.0545795
0.0545824
0.0545854
0.0545884
0.0545913
0.0545943
0.0545973
0.0546002
0.0546032
0.0546062
0.0546092
0.0546121
0.0546151
0.0546181
0.0546211
0.0546241
0.0546271
0.0546301
0.054633
0.054636
0.054639
0.054642
0.054645
0.054648
0.054651
0.054654
0.054657
0.05466
0.0546631
0.0546661
0.0546691
0.0546721
0.0546751
0.0546781
0.0546811
0.0546842
0.0546872
0.0546902
0.0546932
0.0546963
0.0546993
0.0547023
0.0547054
0.0547084
0.0547114
0.0547145
0.0547175
0.0547205
0.0547236
0.0547266
0.0547297
0.0547327
0.0547358
0.0547388
0.0547419
0.0547449
0.054748
0.0547511
0.0547541
0.0547572
0.0547602
0.0547633
0.0547664
0.0547694
0.0547725
0.0547756
0.0547787
0.0547817
0.0547848
0.0547879
0.054791
0.0547941
0.0547972
0.0548002
0.0548033
0.0548064
0.0548095
0.0548126
0.0548157
0.0548188
0.0548219
0.054825
0.0548281
0.0548312
0.0548343
0.0548374
0.0548406
0.0548437
0.0548468
0.0548499
0.054853
0.0548561
0.0548593
0.0548624
0.0548655
0.0548687
0.0548718
0.0548749
0.0548781
0.0548812
0.0548843
0.0548875
0.0548906
0.0548938
0.0548969
0.0549
0.0549032
0.0549064
0.0549095
0.0549127
0.0549158
0.054919
0.0549221
0.0549253
0.0549285
0.0549316
0.0549348
0.054938
0.0549412
0.0549443
0.0549475
0.0549507
0.0549539
0.054957
0.0549602
0.0549634
0.0549666
0.0549698
0.054973
0.0549762
0.0549794
0.0549826
0.0549858
0.054989
0.0549922
0.0549954
0.0549986
0.0550018
0.055005
0.0550082
0.0550115
0.0550147
0.0550179
0.0550211
0.0550244
0.0550276
0.0550308
0.055034
0.0550373
0.0550405
0.0550437
0.055047
0.0550502
0.0550535
0.0550567
0.05506
0.0550632
0.0550665
0.0550697
0.055073
0.0550762
0.0550795
0.0550827
0.0550861
0.0550893
0.0550926
0.0550958
0.0550991
0.0551023
0.0551057
0.0551089
0.0551123
0.0551155
0.0551188
0.0551221
0.0551254
0.0551287
0.055132
0.0551355
0.0551385
0.0551426
0.0551447
0.05515
0.0551459
0.0551459
0.0551459
1
0.518766
0.327403
0.255349
0.217851
0.194406
0.178215
0.166311
0.157162
0.149888
0.143943
0.138974
0.13474
0.131075
0.127859
0.125005
0.122448
0.120139
0.118039
0.116118
0.114351
0.11272
0.111207
0.1098
0.108487
0.107258
0.106106
0.105023
0.104003
0.10304
0.10213
0.101269
0.100454
0.099682
0.0989498
0.0982547
0.0975944
0.0969677
0.0963742
0.0958138
0.0952863
0.094791
0.0943276
0.0938962
0.0934974
0.0931322
0.0928006
0.0925012
0.0922313
0.0919866
0.091763
0.0915571
0.091367
0.091192
0.0910324
0.0908883
0.090759
0.090643
0.0905381
0.0904419
0.0903522
0.0902679
0.0901888
0.0901153
0.0900485
0.0899895
0.089939
0.0898976
0.089865
0.0898405
0.0898232
0.0898117
0.0898049
0.0898017
0.089801
0.089802
0.0898043
0.0898073
0.0898108
0.0898146
0.0898187
0.0898229
0.0898272
0.0898315
0.0898359
0.0898404
0.0898449
0.0898494
0.0898539
0.0898584
0.089863
0.0898675
0.0898721
0.0898766
0.0898812
0.0898857
0.0898903
0.0898948
0.0898994
0.089904
0.0899085
0.0899131
0.0899177
0.0899223
0.0899268
0.0899314
0.089936
0.0899406
0.0899452
0.0899498
0.0899544
0.089959
0.0899636
0.0899682
0.0899728
0.0899775
0.0899821
0.0899867
0.0899913
0.089996
0.0900006
0.0900052
0.0900099
0.0900145
0.0900192
0.0900238
0.0900284
0.0900331
0.0900378
0.0900424
0.0900471
0.0900517
0.0900564
0.0900611
0.0900658
0.0900704
0.0900751
0.0900798
0.0900845
0.0900892
0.0900939
0.0900986
0.0901033
0.090108
0.0901127
0.0901174
0.0901221
0.0901268
0.0901315
0.0901362
0.0901409
0.0901457
0.0901504
0.0901551
0.0901599
0.0901646
0.0901693
0.0901741
0.0901788
0.0901836
0.0901883
0.0901931
0.0901978
0.0902026
0.0902074
0.0902121
0.0902169
0.0902217
0.0902264
0.0902312
0.090236
0.0902408
0.0902456
0.0902504
0.0902551
0.0902599
0.0902647
0.0902695
0.0902743
0.0902791
0.0902839
0.0902888
0.0902936
0.0902984
0.0903032
0.090308
0.0903129
0.0903177
0.0903225
0.0903273
0.0903322
0.090337
0.0903419
0.0903467
0.0903516
0.0903564
0.0903613
0.0903661
0.090371
0.0903758
0.0903807
0.0903856
0.0903904
0.0903953
0.0904002
0.0904051
0.0904099
0.0904148
0.0904197
0.0904246
0.0904295
0.0904344
0.0904393
0.0904442
0.0904491
0.090454
0.0904589
0.0904638
0.0904687
0.0904737
0.0904786
0.0904835
0.0904884
0.0904934
0.0904983
0.0905032
0.0905082
0.0905131
0.090518
0.090523
0.0905279
0.0905329
0.0905378
0.0905428
0.0905478
0.0905527
0.0905577
0.0905626
0.0905676
0.0905726
0.0905776
0.0905825
0.0905875
0.0905925
0.0905975
0.0906025
0.0906075
0.0906125
0.0906175
0.0906225
0.0906275
0.0906325
0.0906375
0.0906425
0.0906475
0.0906526
0.0906576
0.0906626
0.0906676
0.0906727
0.0906777
0.0906827
0.0906878
0.0906928
0.0906979
0.0907029
0.090708
0.090713
0.0907181
0.0907231
0.0907282
0.0907333
0.0907383
0.0907434
0.0907485
0.0907535
0.0907586
0.0907637
0.0907688
0.0907739
0.090779
0.0907841
0.0907892
0.0907943
0.0907994
0.0908045
0.0908096
0.0908147
0.0908198
0.0908249
0.0908301
0.0908352
0.0908403
0.0908454
0.0908506
0.0908557
0.0908609
0.090866
0.0908711
0.0908763
0.0908814
0.0908866
0.0908918
0.0908969
0.0909021
0.0909073
0.0909124
0.0909176
0.0909228
0.090928
0.0909331
0.0909383
0.0909435
0.0909487
0.0909539
0.0909591
0.0909643
0.0909695
0.0909747
0.0909799
0.0909852
0.0909904
0.0909956
0.0910008
0.091006
0.0910113
0.0910165
0.0910217
0.091027
0.0910322
0.0910375
0.0910427
0.091048
0.0910532
0.0910585
0.0910638
0.091069
0.0910743
0.0910796
0.0910848
0.0910901
0.0910954
0.0911007
0.091106
0.0911113
0.0911166
0.0911219
0.0911272
0.0911325
0.0911378
0.0911431
0.0911484
0.0911537
0.091159
0.0911644
0.0911697
0.091175
0.0911804
0.0911857
0.091191
0.0911964
0.0912017
0.0912071
0.0912124
0.0912178
0.0912232
0.0912285
0.0912339
0.0912392
0.0912446
0.09125
0.0912554
0.0912608
0.0912662
0.0912715
0.091277
0.0912823
0.0912878
0.0912931
0.0912986
0.0913039
0.0913094
0.0913148
0.0913203
0.0913256
0.0913312
0.0913365
0.091342
0.0913474
0.0913529
0.0913584
0.0913638
0.0913696
0.0913746
0.0913813
0.0913849
0.0913935
0.0913879
0.0913879
0.0913879
1
0.660888
0.446896
0.35288
0.302032
0.269853
0.247505
0.231023
0.218332
0.208231
0.199972
0.193066
0.187183
0.182091
0.177624
0.173662
0.170113
0.166909
0.163996
0.161332
0.158883
0.156621
0.154525
0.152576
0.150756
0.149054
0.147459
0.145959
0.144547
0.143214
0.141954
0.140763
0.139636
0.138568
0.137555
0.136594
0.135682
0.134817
0.133998
0.133226
0.132499
0.131817
0.131181
0.130589
0.130042
0.129543
0.12909
0.128681
0.128311
0.127977
0.127671
0.127389
0.12713
0.126891
0.126673
0.126477
0.1263
0.126142
0.125998
0.125866
0.125743
0.125628
0.125521
0.125421
0.125332
0.125254
0.125187
0.125133
0.125091
0.125059
0.125037
0.125023
0.125015
0.125011
0.12501
0.125012
0.125016
0.12502
0.125025
0.12503
0.125036
0.125042
0.125048
0.125054
0.12506
0.125066
0.125073
0.125079
0.125085
0.125091
0.125098
0.125104
0.12511
0.125117
0.125123
0.125129
0.125136
0.125142
0.125148
0.125155
0.125161
0.125167
0.125174
0.12518
0.125187
0.125193
0.125199
0.125206
0.125212
0.125219
0.125225
0.125231
0.125238
0.125244
0.125251
0.125257
0.125263
0.12527
0.125276
0.125283
0.125289
0.125296
0.125302
0.125308
0.125315
0.125321
0.125328
0.125334
0.125341
0.125347
0.125354
0.12536
0.125367
0.125373
0.12538
0.125386
0.125393
0.125399
0.125406
0.125412
0.125419
0.125425
0.125432
0.125438
0.125445
0.125451
0.125458
0.125465
0.125471
0.125478
0.125484
0.125491
0.125497
0.125504
0.125511
0.125517
0.125524
0.12553
0.125537
0.125543
0.12555
0.125557
0.125563
0.12557
0.125577
0.125583
0.12559
0.125596
0.125603
0.12561
0.125616
0.125623
0.12563
0.125636
0.125643
0.12565
0.125656
0.125663
0.12567
0.125676
0.125683
0.12569
0.125696
0.125703
0.12571
0.125716
0.125723
0.12573
0.125737
0.125743
0.12575
0.125757
0.125763
0.12577
0.125777
0.125784
0.12579
0.125797
0.125804
0.125811
0.125817
0.125824
0.125831
0.125838
0.125845
0.125851
0.125858
0.125865
0.125872
0.125878
0.125885
0.125892
0.125899
0.125906
0.125912
0.125919
0.125926
0.125933
0.12594
0.125947
0.125953
0.12596
0.125967
0.125974
0.125981
0.125988
0.125995
0.126001
0.126008
0.126015
0.126022
0.126029
0.126036
0.126043
0.12605
0.126056
0.126063
0.12607
0.126077
0.126084
0.126091
0.126098
0.126105
0.126112
0.126119
0.126126
0.126133
0.12614
0.126147
0.126153
0.12616
0.126167
0.126174
0.126181
0.126188
0.126195
0.126202
0.126209
0.126216
0.126223
0.12623
0.126237
0.126244
0.126251
0.126258
0.126265
0.126272
0.126279
0.126286
0.126293
0.1263
0.126307
0.126314
0.126321
0.126329
0.126336
0.126343
0.12635
0.126357
0.126364
0.126371
0.126378
0.126385
0.126392
0.126399
0.126406
0.126413
0.126421
0.126428
0.126435
0.126442
0.126449
0.126456
0.126463
0.12647
0.126478
0.126485
0.126492
0.126499
0.126506
0.126513
0.12652
0.126528
0.126535
0.126542
0.126549
0.126556
0.126564
0.126571
0.126578
0.126585
0.126592
0.1266
0.126607
0.126614
0.126621
0.126628
0.126636
0.126643
0.12665
0.126657
0.126665
0.126672
0.126679
0.126686
0.126694
0.126701
0.126708
0.126716
0.126723
0.12673
0.126737
0.126745
0.126752
0.126759
0.126767
0.126774
0.126781
0.126789
0.126796
0.126803
0.126811
0.126818
0.126825
0.126833
0.12684
0.126847
0.126855
0.126862
0.126869
0.126877
0.126884
0.126892
0.126899
0.126906
0.126914
0.126921
0.126929
0.126936
0.126943
0.126951
0.126958
0.126966
0.126973
0.126981
0.126988
0.126995
0.127003
0.12701
0.127018
0.127025
0.127033
0.12704
0.127048
0.127055
0.127063
0.12707
0.127078
0.127085
0.127093
0.1271
0.127108
0.127115
0.127123
0.12713
0.127138
0.127145
0.127153
0.127161
0.127168
0.127176
0.127183
0.127191
0.127198
0.127208
0.127213
0.127224
0.127218
0.127218
0.127218
1
0.776803
0.557827
0.44688
0.384105
0.343747
0.315515
0.294609
0.278474
0.265613
0.255088
0.246284
0.238784
0.232292
0.226599
0.22155
0.217029
0.212948
0.209238
0.205847
0.20273
0.199853
0.197186
0.194706
0.192392
0.190228
0.188199
0.186292
0.184497
0.182803
0.181202