# vtk DataFile Version 2.0
FlowField
ASCII
DATASET STRUCTURED_GRID
DIMENSIONS 400 1 200
POINTS 80000 float
0 0 0
0.08 0 0
0.16 0 0
0.24 0 0
0.32 0 0
0.4 0 0
0.48 0 0
0.56 0 0
0.64 0 0
0.72 0 0
0.8 0 0
0.88 0 0
0.96 0 0
1.04 0 0
1.12 0 0
1.2 0 0
1.28 0 0
1.36 0 0
1.44 0 0
1.52 0 0
1.6 0 0
1.68 0 0
1.76 0 0
1.84 0 0
1.92 0 0
2 0 0
2.08 0 0
2.16 0 0
2.24 0 0
2.32 0 0
2.4 0 0
2.48 0 0
2.56 0 0
2.64 0 0
2.72 0 0
2.8 0 0
2.88 0 0
2.96 0 0
3.04 0 0
3.12 0 0
3.2 0 0
3.28 0 0
3.36 0 0
3.44 0 0
3.52 0 0
3.6 0 0
3.68 0 0
3.76 0 0
3.84 0 0
3.92 0 0
4 0 0
4.08 0 0
4.16 0 0
4.24 0 0
4.32 0 0
4.4 0 0
4.48 0 0
4.56 0 0
4.64 0 0
4.72 0 0
4.8 0 0
4.88 0 0
4.96 0 0
5.04 0 0
5.12 0 0
5.2 0 0
5.28 0 0
5.36 0 0
5.44 0 0
5.52 0 0
5.6 0 0
5.68 0 0
5.76 0 0
5.84 0 0
5.92 0 0
6 0 0
6.08 0 0
6.16 0 0
6.24 0 0
6.32 0 0
6.4 0 0
6.48 0 0
6.56 0 0
6.64 0 0
6.72 0 0
6.8 0 0
6.88 0 0
6.96 0 0
7.04 0 0
7.12 0 0
7.2 0 0
7.28 0 0
7.36 0 0
7.44 0 0
7.52 0 0
7.6 0 0
7.68 0 0
7.76 0 0
7.84 0 0
7.92 0 0
8 0 0
8.08 0 0
8.16 0 0
8.24 0 0
8.32 0 0
8.4 0 0
8.48 0 0
8.56 0 0
8.64 0 0
8.72 0 0
8.8 0 0
8.88 0 0
8.96 0 0
9.04 0 0
9.12 0 0
9.2 0 0
9.28 0 0
9.36 0 0
9.44 0 0
9.52 0 0
9.6 0 0
9.68 0 0
9.76 0 0
9.84 0 0
9.92 0 0
10 0 0
10.08 0 0
10.16 0 0
10.24 0 0
10.32 0 0
10.4 0 0
10.48 0 0
10.56 0 0
10.64 0 0
10.72 0 0
10.8 0 0
10.88 0 0
10.96 0 0
11.04 0 0
11.12 0 0
11.2 0 0
11.28 0 0
11.36 0 0
11.44 0 0
11.52 0 0
11.6 0 0
11.68 0 0
11.76 0 0
11.84 0 0
11.92 0 0
12 0 0
12.08 0 0
12.16 0 0
12.24 0 0
12.32 0 0
12.4 0 0
12.48 0 0
12.56 0 0
12.64 0 0
12.72 0 0
12.8 0 0
12.88 0 0
12.96 0 0
13.04 0 0
13.12 0 0
13.2 0 0
13.28 0 0
13.36 0 0
13.44 0 0
13.52 0 0
13.6 0 0
13.68 0 0
13.76 0 0
13.84 0 0
13.92 0 0
14 0 0
14.08 0 0
14.16 0 0
14.24 0 0
14.32 0 0
14.4 0 0
14.48 0 0
14.56 0 0
14.64 0 0
14.72 0 0
14.8 0 0
14.88 0 0
14.96 0 0
15.04 0 0
15.12 0 0
15.2 0 0
15.28 0 0
15.36 0 0
15.44 0 0
15.52 0 0
15.6 0 0
15.68 0 0
15.76 0 0
15.84 0 0
15.92 0 0
16 0 0
16.08 0 0
16.16 0 0
16.24 0 0
16.32 0 0
16.4 0 0
16.48 0 0
16.56 0 0
16.64 0 0
16.72 0 0
16.8 0 0
16.88 0 0
16.96 0 0
17.04 0 0
17.12 0 0
17.2 0 0
17.28 0 0
17.36 0 0
17.44 0 0
17.52 0 0
17.6 0 0
17.68 0 0
17.76 0 0
17.84 0 0
17.92 0 0
18 0 0
18.08 0 0
18.16 0 0
18.24 0 0
18.32 0 0
18.4 0 0
18.48 0 0
18.56 0 0
18.64 0 0
18.72 0 0
18.8 0 0
18.88 0 0
18.96 0 0
19.04 0 0
19.12 0 0
19.2 0 0
19.28 0 0
19.36 0 0
19.44 0 0
19.52 0 0
19.6 0 0
19.68 0 0
19.76 0 0
19.84 0 0
19.92 0 0
20 0 0
20.08 0 0
20.16 0 0
20.24 0 0
20.32 0 0
20.4 0 0
20.48 0 0
20.56 0 0
20.64 0 0
20.72 0 0
20.8 0 0
20.88 0 0
20.96 0 0
21.04 0 0
21.12 0 0
21.2 0 0
21.28 0 0
21.36 0 0
21.44 0 0
21.52 0 0
21.6 0 0
21.68 0 0
21.76 0 0
21.84 0 0
21.92 0 0
22 0 0
22.08 0 0
22.16 0 0
22.24 0 0
22.32 0 0
22.4 0 0
22.48 0 0
22.56 0 0
22.64 0 0
22.72 0 0
22.8 0 0
22.88 0 0
22.96 0 0
23.04 0 0
23.12 0 0
23.2 0 0
23.28 0 0
23.36 0 0
23.44 0 0
23.52 0 0
23.6 0 0
23.68 0 0
23.76 0 0
23.84 0 0
23.92 0 0
24 0 0
24.08 0 0
24.16 0 0
24.24 0 0
24.32 0 0
24.4 0 0
24.48 0 0
24.56 0 0
24.64 0 0
24.72 0 0
24.8 0 0
24.88 0 0
24.96 0 0
25.04 0 0
25.12 0 0
25.2 0 0
25.28 0 0
25.36 0 0
25.44 0 0
25.52 0 0
25.6 0 0
25.68 0 0
25.76 0 0
25.84 0 0
25.92 0 0
26 0 0
26.08 0 0
26.16 0 0
26.24 0 0
26.32 0 0
26.4 0 0
26.48 0 0
26.56 0 0
26.64 0 0
26.72 0 0
26.8 0 0
26.88 0 0
26.96 0 0
27.04 0 0
27.12 0 0
27.2 0 0
27.28 0 0
27.36 0 0
27.44 0 0
27.52 0 0
27.6 0 0
27.68 0 0
27.76 0 0
27.84 0 0
27.92 0 0
28 0 0
28.08 0 0
28.16 0 0
28.24 0 0
28.32 0 0
28.4 0 0
28.48 0 0
28.56 0 0
28.64 0 0
28.72 0 0
28.8 0 0
28.88 0 0
28.96 0 0
29.04 0 0
29.12 0 0
29.2 0 0
29.28 0 0
29.36 0 0
29.44 0 0
29.52 0 0
29.6 0 0
29.68 0 0
29.76 0 0
29.84 0 0
29.92 0 0
30 0 0
30.08 0 0
30.16 0 0
30.24 0 0
30.32 0 0
30.4 0 0
30.48 0 0
30.56 0 0
30.64 0 0
30.72 0 0
30.8 0 0
30.88 0 0
30.96 0 0
31.04 0 0
31.12 0 0
31.2 0 0
31.28 0 0
31.36 0 0
31.44 0 0
31.52 0 0
31.6 0 0
31.68 0 0
31.76 0 0
31.84 0 0
31.92 0 0
0 0.005 0
0.08 0.005 0
0.16 0.005 0
0.24 0.005 0
0.32 0.005 0
0.4 0.005 0
0.48 0.005 0
0.56 0.005 0
0.64 0.005 0
0.72 0.005 0
0.8 0.005 0
0.88 0.005 0
0.96 0.005 0
1.04 0.005 0
1.12 0.005 0
1.2 0.005 0
1.28 0.005 0
1.36 0.005 0
1.44 0.005 0
1.52 0.005 0
1.6 0.005 0
1.68 0.005 0
1.76 0.005 0
1.84 0.005 0
1.92 0.005 0
2 0.005 0
2.08 0.005 0
2.16 0.005 0
2.24 0.005 0
2.32 0.005 0
2.4 0.005 0
2.48 0.005 0
2.56 0.005 0
2.64 0.005 0
2.72 0.005 0
2.8 0.005 0
2.88 0.005 0
2.96 0.005 0
3.04 0.005 0
3.12 0.005 0
3.2 0.005 0
3.28 0.005 0
3.36 0.005 0
3.44 0.005 0
3.52 0.005 0
3.6 0.005 0
3.68 0.005 0
3.76 0.005 0
3.84 0.005 0
3.92 0.005 0
4 0.005 0
4.08 0.005 0
4.16 0.005 0
4.24 0.005 0
4.32 0.005 0
4.4 0.005 0
4.48 0.005 0
4.56 0.005 0
4.64 0.005 0
4.72 0.005 0
4.8 0.005 0
4.88 0.005 0
4.96 0.005 0
5.04 0.005 0
5.12 0.005 0
5.2 0.005 0
5.28 0.005 0
5.36 0.005 0
5.44 0.005 0
5.52 0.005 0
5.6 0.005 0
5.68 0.005 0
5.76 0.005 0
5.84 0.005 0
5.92 0.005 0
6 0.005 0
6.08 0.005 0
6.16 0.005 0
6.24 0.005 0
6.32 0.005 0
6.4 0.005 0
6.48 0.005 0
6.56 0.005 0
6.64 0.005 0
6.72 0.005 0
6.8 0.005 0
6.88 0.005 0
6.96 0.005 0
7.04 0.005 0
7.12 0.005 0
7.2 0.005 0
7.28 0.005 0
7.36 0.005 0
7.44 0.005 0
7.52 0.005 0
7.6 0.005 0
7.68 0.005 0
7.76 0.005 0
7.84 0.005 0
7.92 0.005 0
8 0.005 0
8.08 0.005 0
8.16 0.005 0
8.24 0.005 0
8.32 0.005 0
8.4 0.005 0
8.48 0.005 0
8.56 0.005 0
8.64 0.005 0
8.72 0.005 0
8.8 0.005 0
8.88 0.005 0
8.96 0.005 0
9.04 0.005 0
9.12 0.005 0
9.2 0.005 0
9.28 0.005 0
9.36 0.005 0
9.44 0.005 0
9.52 0.005 0
9.6 0.005 0
9.68 0.005 0
9.76 0.005 0
9.84 0.005 0
9.92 0.005 0
10 0.005 0
10.08 0.005 0
10.16 0.005 0
10.24 0.005 0
10.32 0.005 0
10.4 0.005 0
10.48 0.005 0
10.56 0.005 0
10.64 0.005 0
10.72 0.005 0
10.8 0.005 0
10.88 0.005 0
10.96 0.005 0
11.04 0.005 0
11.12 0.005 0
11.2 0.005 0
11.28 0.005 0
11.36 0.005 0
11.44 0.005 0
11.52 0.005 0
11.6 0.005 0
11.68 0.005 0
11.76 0.005 0
11.84 0.005 0
11.92 0.005 0
12 0.005 0
12.08 0.005 0
12.16 0.005 0
12.24 0.005 0
12.32 0.005 0
12.4 0.005 0
12.48 0.005 0
12.56 0.005 0
12.64 0.005 0
12.72 0.005 0
12.8 0.005 0
12.88 0.005 0
12.96 0.005 0
13.04 0.005 0
13.12 0.005 0
13.2 0.005 0
13.28 0.005 0
13.36 0.005 0
13.44 0.005 0
13.52 0.005 0
13.6 0.005 0
13.68 0.005 0
13.76 0.005 0
13.84 0.005 0
13.92 0.005 0
14 0.005 0
14.08 0.005 0
14.16 0.005 0
14.24 0.005 0
14.32 0.005 0
14.4 0.005 0
14.48 0.005 0
14.56 0.005 0
14.64 0.005 0
14.72 0.005 0
14.8 0.005 0
14.88 0.005 0
14.96 0.005 0
15.04 0.005 0
15.12 0.005 0
15.2 0.005 0
15.28 0.005 0
15.36 0.005 0
15.44 0.005 0
15.52 0.005 0
15.6 0.005 0
15.68 0.005 0
15.76 0.005 0
15.84 0.005 0
15.92 0.005 0
16 0.005 0
16.08 0.005 0
16.16 0.005 0
16.24 0.005 0
16.32 0.005 0
16.4 0.005 0
16.48 0.005 0
16.56 0.005 0
16.64 0.005 0
16.72 0.005 0
16.8 0.005 0
16.88 0.005 0
16.96 0.005 0
17.04 0.005 0
17.12 0.005 0
17.2 0.005 0
17.28 0.005 0
17.36 0.005 0
17.44 0.005 0
17.52 0.005 0
17.6 0.005 0
17.68 0.005 0
17.76 0.005 0
17.84 0.005 0
17.92 0.005 0
18 0.005 0
18.08 0.005 0
18.16 0.005 0
18.24 0.005 0
18.32 0.005 0
18.4 0.005 0
18.48 0.005 0
18.56 0.005 0
18.64 0.005 0
18.72 0.005 0
18.8 0.005 0
18.88 0.005 0
18.96 0.005 0
19.04 0.005 0
19.12 0.005 0
19.2 0.005 0
19.28 0.005 0
19.36 0.005 0
19.44 0.005 0
19.52 0.005 0
19.6 0.005 0
19.68 0.005 0
19.76 0.005 0
19.84 0.005 0
19.92 0.005 0
20 0.005 0
20.08 0.005 0
20.16 0.005 0
20.24 0.005 0
20.32 0.005 0
20.4 0.005 0
20.48 0.005 0
20.56 0.005 0
20.64 0.005 0
20.72 0.005 0
20.8 0.005 0
20.88 0.005 0
20.96 0.005 0
21.04 0.005 0
21.12 0.005 0
21.2 0.005 0
21.28 0.005 0
21.36 0.005 0
21.44 0.005 0
21.52 0.005 0
21.6 0.005 0
21.68 0.005 0
21.76 0.005 0
21.84 0.005 0
21.92 0.005 0
22 0.005 0
22.08 0.005 0
22.16 0.005 0
22.24 0.005 0
22.32 0.005 0
22.4 0.005 0
22.48 0.005 0
22.56 0.005 0
22.64 0.005 0
22.72 0.005 0
22.8 0.005 0
22.88 0.005 0
22.96 0.005 0
23.04 0.005 0
23.12 0.005 0
23.2 0.005 0
23.28 0.005 0
23.36 0.005 0
23.44 0.005 0
23.52 0.005 0
23.6 0.005 0
23.68 0.005 0
23.76 0.005 0
23.84 0.005 0
23.92 0.005 0
24 0.005 0
24.08 0.005 0
24.16 0.005 0
24.24 0.005 0
24.32 0.005 0
24.4 0.005 0
24.48 0.005 0
24.56 0.005 0
24.64 0.005 0
24.72 0.005 0
24.8 0.005 0
24.88 0.005 0
24.96 0.005 0
25.04 0.005 0
25.12 0.005 0
25.2 0.005 0
25.28 0.005 0
25.36 0.005 0
25.44 0.005 0
25.52 0.005 0
25.6 0.005 0
25.68 0.005 0
25.76 0.005 0
25.84 0.005 0
25.92 0.005 0
26 0.005 0
26.08 0.005 0
26.16 0.005 0
26.24 0.005 0
26.32 0.005 0
26.4 0.005 0
26.48 0.005 0
26.56 0.005 0
26.64 0.005 0
26.72 0.005 0
26.8 0.005 0
26.88 0.005 0
26.96 0.005 0
27.04 0.005 0
27.12 0.005 0
27.2 0.005 0
27.28 0.005 0
27.36 0.005 0
27.44 0.005 0
27.52 0.005 0
27.6 0.005 0
27.68 0.005 0
27.76 0.005 0
27.84 0.005 0
27.92 0.005 0
28 0.005 0
28.08 0.005 0
28.16 0.005 0
28.24 0.005 0
28.32 0.005 0
28.4 0.005 0
28.48 0.005 0
28.56 0.005 0
28.64 0.005 0
28.72 0.005 0
28.8 0.005 0
28.88 0.005 0
28.96 0.005 0
29.04 0.005 0
29.12 0.005 0
29.2 0.005 0
29.28 0.005 0
29.36 0.005 0
29.44 0.005 0
29.52 0.005 0
29.6 0.005 0
29.68 0.005 0
29.76 0.005 0
29.84 0.005 0
29.92 0.005 0
30 0.005 0
30.08 0.005 0
30.16 0.005 0
30.24 0.005 0
30.32 0.005 0
30.4 0.005 0
30.48 0.005 0
30.56 0.005 0
30.64 0.005 0
30.72 0.005 0
30.8 0.005 0
30.88 0.005 0
30.96 0.005 0
31.04 0.005 0
31.12 0.005 0
31.2 0.005 0
31.28 0.005 0
31.36 0.005 0
31.44 0.005 0
31.52 0.005 0
31.6 0.005 0
31.68 0.005 0
31.76 0.005 0
31.84 0.005 0
31.92 0.005 0
0 0.01 0
0.08 0.01 0
0.16 0.01 0
0.24 0.01 0
0.32 0.01 0
0.4 0.01 0
0.48 0.01 0
0.56 0.01 0
0.64 0.01 0
0.72 0.01 0
0.8 0.01 0
0.88 0.01 0
0.96 0.01 0
1.04 0.01 0
1.12 0.01 0
1.2 0.01 0
1.28 0.01 0
1.36 0.01 0
1.44 0.01 0
1.52 0.01 0
1.6 0.01 0
1.68 0.01 0
1.76 0.01 0
1.84 0.01 0
1.92 0.01 0
2 0.01 0
2.08 0.01 0
2.16 0.01 0
2.24 0.01 0
2.32 0.01 0
2.4 0.01 0
2.48 0.01 0
2.56 0.01 0
2.64 0.01 0
2.72 0.01 0
2.8 0.01 0
2.88 0.01 0
2.96 0.01 0
3.04 0.01 0
3.12 0.01 0
3.2 0.01 0
3.28 0.01 0
3.36 0.01 0
3.44 0.01 0
3.52 0.01 0
3.6 0.01 0
3.68 0.01 0
3.76 0.01 0
3.84 0.01 0
3.92 0.01 0
4 0.01 0
4.08 0.01 0
4.16 0.01 0
4.24 0.01 0
4.32 0.01 0
4.4 0.01 0
4.48 0.01 0
4.56 0.01 0
4.64 0.01 0
4.72 0.01 0
4.8 0.01 0
4.88 0.01 0
4.96 0.01 0
5.04 0.01 0
5.12 0.01 0
[...]
POINT_DATA 80000

SCALARS v float 1
LOOKUP_TABLE default
0
0
0
0
0
0
0
0
0
0
0
0
0
0
0
0
0
0
0
0
0
0
0
0
0
0
0
0
0
0
0
0
0
0
0
0
0
0
0
0
0
0
0
0
0
0
0
0
0
0
0
0
0
0
0
0
0
0
0
0
0
0
0
0
0
0
0
0
0
0
0
0
0
0
0
0
0
0
0
0
0
0
0
0
0
0
0
0
0
0
0
0
0
0
0
0
0
0
0
0
0
0
0
0
0
0
0
0
0
0
0
0
0
0
0
0
0
0
0
0
0
0
0
0
0
0
0
0
0
0
0
0
0
0
0
0
0
0
0
0
0
0
0
0
0
0
0
0
0
0
0
0
0
0
0
0
0
0
0
0
0
0
0
0
0
0
0
0
0
0
0
0
0
0
0
0
0
0
0
0
0
0
0
0
0
0
0
0
0
0
0
0
0
0
0
0
0
0
0
0
0
0
0
0
0
0
0
0
0
0
0
0
0
0
0
0
0
0
0
0
0
0
0
0
0
0
0
0
0
0
0
0
0
0
0
0
0
0
0
0
0
0
0
0
0
0
0
0
0
0
0
0
0
0
0
0
0
0
0
0
0
0
0
0
0
0
0
0
0
0
0
0
0
0
0
0
0
0
0
0
0
0
0
0
0
0
0
0
0
0
0
0
0
0
0
0
0
0
0
0
0
0
0
0
0
0
0
0
0
0
0
0
0
0
0
0
0
0
0
0
0
0
0
0
0
0
0
0
0
0
0
0
0
0
0
0
0
0
0
0
0
0
0
0
0
0
0
0
0
0
0
0
0
0
0
0
0
0
0
0
0
0
0
0
0
0
0
0
0
0
0
0
0
0
0
0
0
0
0
0
0
0
0
0
0
0
0
0
0
0
0
0
0
0
0
0
0
0
0
0
-0.0542714
0.0542714
0.00396242
0.000998657
0.00049259
0.000303027
0.000207651
0.000152023
0.000116582
9.26256e-05
7.57122e-05
6.33513e-05
5.4051e-05
4.68724e-05
4.12032e-05
3.66335e-05
3.28839e-05
2.97586e-05
2.71153e-05
2.4848e-05
2.288e-05
2.11583e-05
1.96443e-05
1.83042e-05
1.71045e-05
1.60163e-05
1.50222e-05
1.41161e-05
1.3295e-05
1.25484e-05
1.18562e-05
1.11978e-05
1.05632e-05
9.95631e-06
9.38626e-06
8.85205e-06
8.33455e-06
7.80257e-06
7.23042e-06
6.61534e-06
5.98275e-06
5.3757e-06
4.83452e-06
4.37877e-06
4.00096e-06
3.67428e-06
3.36859e-06
3.06547e-06
2.76516e-06
2.48325e-06
2.24051e-06
2.05165e-06
1.91832e-06
1.8285e-06
1.76131e-06
1.69429e-06
1.60992e-06
1.49939e-06
1.36307e-06
1.20846e-06
1.04692e-06
8.90268e-07
7.48265e-07
6.27228e-07
5.29764e-07
4.55328e-07
4.01214e-07
3.63608e-07
3.38477e-07
3.22172e-07
3.11738e-07
3.04987e-07
3.00429e-07
2.97121e-07
2.94513e-07
2.92304e-07
2.90343e-07
2.88554e-07
2.869e-07
2.85356e-07
2.83901e-07
2.82518e-07
2.81188e-07
2.79896e-07
2.7863e-07
2.77381e-07
2.7614e-07
2.74903e-07
2.73668e-07
2.72431e-07
2.71191e-07
2.69949e-07
2.68704e-07
2.67456e-07
2.66205e-07
2.6495e-07
2.63691e-07
2.6243e-07
2.61164e-07
2.59895e-07
2.58623e-07
2.57346e-07
2.56066e-07
2.54782e-07
2.53494e-07
2.52202e-07
2.50906e-07
2.49607e-07
2.48303e-07
2.46996e-07
2.45684e-07
2.44369e-07
2.43051e-07
2.41728e-07
2.40402e-07
2.39073e-07
2.3774e-07
2.36403e-07
2.35063e-07
2.3372e-07
2.32374e-07
2.31024e-07
2.29671e-07
2.28316e-07
2.26957e-07
2.25596e-07
2.24232e-07
2.22865e-07
2.21495e-07
2.20124e-07
2.1875e-07
2.17374e-07
2.15995e-07
2.14615e-07
2.13233e-07
2.1185e-07
2.10465e-07
2.09079e-07
2.07691e-07
2.06303e-07
2.04914e-07
2.03524e-07
2.02134e-07
2.00743e-07
1.99353e-07
1.97963e-07
1.96573e-07
1.95184e-07
1.93796e-07
1.92409e-07
1.91023e-07
1.89638e-07
1.88256e-07
1.86876e-07
1.85498e-07
1.84122e-07
1.82749e-07
1.8138e-07
1.80014e-07
1.78651e-07
1.77293e-07
1.75939e-07
1.74589e-07
1.73244e-07
1.71904e-07
1.7057e-07
1.69241e-07
1.67919e-07
1.66602e-07
1.65292e-07
1.63989e-07
1.62694e-07
1.61406e-07
1.60125e-07
1.58853e-07
1.57589e-07
1.56334e-07
1.55087e-07
1.5385e-07
1.52623e-07
1.51405e-07
1.50198e-07
1.49e-07
1.47814e-07
1.46638e-07
1.45474e-07
1.44321e-07
1.4318e-07
1.42051e-07
1.40933e-07
1.39829e-07
1.38737e-07
1.37657e-07
1.36591e-07
1.35538e-07
1.34499e-07
1.33473e-07
1.3246e-07
1.31462e-07
1.30478e-07
1.29508e-07
1.28552e-07
1.27611e-07
1.26684e-07
1.25772e-07
1.24875e-07
1.23992e-07
1.23124e-07
1.22271e-07
1.21433e-07
1.2061e-07
1.19802e-07
1.19008e-07
1.1823e-07
1.17466e-07
1.16717e-07
1.15982e-07
1.15263e-07
1.14558e-07
1.13867e-07
1.1319e-07
1.12528e-07
1.1188e-07
1.11245e-07
1.10625e-07
1.10017e-07
1.09423e-07
1.08843e-07
1.08275e-07
1.07719e-07
1.07177e-07
1.06646e-07
1.06127e-07
1.0562e-07
1.05124e-07
1.04639e-07
1.04164e-07
1.03701e-07
1.03247e-07
1.02803e-07
1.02368e-07
1.01943e-07
1.01526e-07
1.01117e-07
1.00716e-07
1.00323e-07
9.99377e-08
9.95587e-08
9.91861e-08
9.88196e-08
9.84588e-08
9.81031e-08
9.77524e-08
9.74061e-08
9.70638e-08
9.67251e-08
9.63897e-08
9.60572e-08
9.5727e-08
9.53988e-08
9.50723e-08
9.4747e-08
9.44225e-08
9.40984e-08
9.37744e-08
9.345e-08
9.31248e-08
9.27986e-08
9.24708e-08
9.21412e-08
9.18094e-08
9.1475e-08
9.11377e-08
9.07971e-08
9.04529e-08
9.01047e-08
8.97524e-08
8.93954e-08
8.90336e-08
8.86666e-08
8.82941e-08
8.7916e-08
8.75318e-08
8.71414e-08
8.67444e-08
8.63407e-08
8.59301e-08
8.55122e-08
8.50869e-08
8.4654e-08
8.42133e-08
8.37646e-08
8.33077e-08
8.28426e-08
8.23689e-08
8.18867e-08
8.13957e-08
8.08958e-08
8.0387e-08
7.98691e-08
7.9342e-08
7.88056e-08
7.826e-08
7.7705e-08
7.71405e-08
7.65665e-08
7.5983e-08
7.53899e-08
7.47873e-08
7.41751e-08
7.35533e-08
7.2922e-08
7.2281e-08
7.16305e-08
7.09705e-08
7.0301e-08
6.96221e-08
6.89338e-08
6.82361e-08
6.75291e-08
6.6813e-08
6.60876e-08
6.53532e-08
6.46099e-08
6.38576e-08
6.30965e-08
6.23267e-08
6.15482e-08
6.07613e-08
5.9966e-08
5.91623e-08
5.83505e-08
5.75306e-08
5.67028e-08
5.58672e-08
5.50238e-08
5.41729e-08
5.33145e-08
5.24488e-08
5.15758e-08
5.06961e-08
4.98088e-08
4.89158e-08
4.80142e-08
4.71094e-08
4.61927e-08
4.52787e-08
4.43442e-08
4.34262e-08
4.24681e-08
4.1555e-08
4.05631e-08
3.96685e-08
3.8628e-08
3.77698e-08
3.66625e-08
3.58601e-08
3.46683e-08
3.3939e-08
3.26489e-08
3.20043e-08
3.06088e-08
3.00529e-08
2.85531e-08
2.8083e-08
2.6483e-08
2.60983e-08
2.43929e-08
2.41106e-08
2.22692e-08
2.21371e-08
2.00958e-08
2.0196e-08
1.7856e-08
1.83064e-08
1.55326e-08
1.64843e-08
1.31163e-08
1.47321e-08
1.06141e-08
1.30321e-08
8.05373e-09
1.13366e-08
5.49363e-09
9.54961e-09
3.03839e-09
7.47837e-09
9.01887e-10
4.69673e-09
-4.55551e-10
2.63781e-10
7.26681e-11
-8.0931e-09
5.79472e-09
-2.58957e-08
3.02852e-08
-6.59084e-08
2.11085e-07
-7.53709e-09
-7.53709e-09
-0.0952162
0.0952162
0.012976
0.00385502
0.00193471
0.00119661
0.000822152
0.000602728
0.000462482
0.000367456
0.000300244
0.000251058
0.000214015
0.000185406
0.000162807
0.000144592
0.000129649
0.000117197
0.000106668
9.76415e-05
8.98121e-05
8.2967e-05
7.69493e-05
7.16205e-05
6.6848e-05
6.25209e-05
5.85724e-05
5.49765e-05
5.17145e-05
4.87396e-05
4.59738e-05
4.33413e-05
4.08082e-05
3.83899e-05
3.61135e-05
3.39653e-05
3.18666e-05
2.97022e-05
2.73868e-05
2.49249e-05
2.24231e-05
2.00451e-05
1.79356e-05
1.61568e-05
1.46719e-05
1.33779e-05
1.21659e-05
1.09739e-05
9.80831e-06
8.72837e-06
7.80703e-06
7.09116e-06
6.57835e-06
6.21769e-06
5.92934e-06
5.63158e-06
5.26389e-06
4.79912e-06
4.24374e-06
3.62922e-06
2.99932e-06
2.39782e-06
1.85957e-06
1.40596e-06
1.04449e-06
7.71233e-07
5.74687e-07
4.39737e-07
3.50889e-07
2.94385e-07
2.59237e-07
2.37406e-07
2.23465e-07
2.14014e-07
2.07083e-07
2.01606e-07
1.97047e-07
1.9314e-07
1.89747e-07
1.86775e-07
1.84148e-07
1.81795e-07
1.79649e-07
1.77654e-07
1.75764e-07
1.73941e-07
1.7216e-07
1.70403e-07
1.68658e-07
1.66919e-07
1.65181e-07
1.63442e-07
1.61701e-07
1.59958e-07
1.58212e-07
1.56464e-07
1.54713e-07
1.52959e-07
1.51202e-07
1.49441e-07
1.47676e-07
1.45906e-07
1.44133e-07
1.42355e-07
1.40572e-07
1.38784e-07
1.36992e-07
1.35196e-07
1.33394e-07
1.31588e-07
1.29778e-07
1.27964e-07
1.26145e-07
1.24322e-07
1.22495e-07
1.20664e-07
1.1883e-07
1.16992e-07
1.1515e-07
1.13305e-07
1.11456e-07
1.09605e-07
1.0775e-07
1.05893e-07
1.04032e-07
1.02169e-07
1.00304e-07
9.84357e-08
9.65653e-08
9.46928e-08
9.28183e-08
9.09419e-08
8.90638e-08
8.71843e-08
8.53033e-08
8.34213e-08
8.15382e-08
7.96545e-08
7.77701e-08
7.58854e-08
7.40006e-08
7.21159e-08
7.02316e-08
6.83478e-08
6.64649e-08
6.45831e-08
6.27026e-08
6.08238e-08
5.89468e-08
5.70721e-08
5.51998e-08
5.33304e-08
5.14639e-08
4.96009e-08
4.77416e-08
4.58862e-08
4.40352e-08
4.21888e-08
4.03474e-08
3.85113e-08
3.66808e-08
3.48563e-08
3.30381e-08
3.12266e-08
2.9422e-08
2.76248e-08
2.58353e-08
2.40539e-08
2.22808e-08
2.05165e-08
1.87612e-08
1.70153e-08
1.52793e-08
1.35533e-08
1.18378e-08
1.01331e-08
8.43956e-09
6.75745e-09
5.08713e-09
3.42894e-09
1.78316e-09
1.50153e-10
-1.46983e-09
-3.07645e-09
-4.66941e-09
-6.24845e-09
-7.81326e-09
-9.3636e-09
-1.08992e-08
-1.24198e-08
-1.39251e-08
-1.5415e-08
-1.68892e-08
-1.83474e-08
-1.97896e-08
-2.12154e-08
-2.26247e-08
-2.40175e-08
-2.53934e-08
-2.67523e-08
-2.80943e-08
-2.9419e-08
-3.07265e-08
-3.20166e-08
-3.32892e-08
-3.45444e-08
-3.57821e-08
-3.70021e-08
-3.82047e-08
-3.93897e-08
-4.05571e-08
-4.1707e-08
-4.28395e-08
-4.39546e-08
-4.50524e-08
-4.6133e-08
-4.71965e-08
-4.82431e-08
-4.92728e-08
-5.02859e-08
-5.12824e-08
-5.22627e-08
-5.3227e-08
-5.41753e-08
-5.51081e-08
-5.60254e-08
-5.69277e-08
-5.78151e-08
-5.8688e-08
-5.95466e-08
-6.03914e-08
-6.12225e-08
-6.20404e-08
-6.28454e-08
-6.36378e-08
-6.44181e-08
-6.51867e-08
-6.59438e-08
-6.669e-08
-6.74257e-08
-6.81512e-08
-6.8867e-08
-6.95735e-08
-7.02712e-08
-7.09606e-08
-7.1642e-08
-7.2316e-08
-7.2983e-08
-7.36435e-08
-7.42979e-08
-7.49468e-08
-7.55906e-08
-7.62298e-08
-7.68648e-08
-7.74963e-08
-7.81245e-08
-7.87501e-08
-7.93735e-08
-7.99951e-08
-8.06155e-08
-8.12352e-08
-8.18545e-08
-8.2474e-08
-8.30942e-08
-8.37154e-08
-8.43382e-08
-8.4963e-08
-8.55901e-08
-8.62202e-08
-8.68535e-08
-8.74906e-08
-8.81317e-08
-8.87774e-08
-8.94279e-08
-9.00838e-08
-9.07453e-08
-9.14129e-08
-9.20868e-08
-9.27675e-08
-9.34553e-08
-9.41504e-08
-9.48533e-08
-9.55641e-08
-9.62832e-08
-9.7011e-08
-9.77475e-08
-9.84932e-08
-9.92482e-08
-1.00013e-07
-1.00787e-07
-1.01571e-07
-1.02366e-07
-1.03171e-07
-1.03986e-07
-1.04813e-07
-1.0565e-07
-1.06498e-07
-1.07357e-07
-1.08227e-07
-1.09109e-07
-1.10003e-07
-1.10907e-07
-1.11824e-07
-1.12752e-07
-1.13691e-07
-1.14643e-07
-1.15606e-07
-1.16581e-07
-1.17567e-07
-1.18566e-07
-1.19576e-07
-1.20598e-07
-1.21632e-07
-1.22677e-07
-1.23734e-07
-1.24803e-07
-1.25883e-07
-1.26975e-07
-1.28078e-07
-1.29192e-07
-1.30317e-07
-1.31454e-07
-1.32602e-07
-1.3376e-07
-1.3493e-07
-1.3611e-07
-1.373e-07
-1.38501e-07
-1.39713e-07
-1.40934e-07
-1.42166e-07
-1.43407e-07
-1.44659e-07
-1.4592e-07
-1.4719e-07
-1.4847e-07
-1.49759e-07
-1.51057e-07
-1.52363e-07
-1.53679e-07
-1.55002e-07
-1.56336e-07
-1.57675e-07
-1.59028e-07
-1.60377e-07
-1.61754e-07
-1.63106e-07
-1.64518e-07
-1.65855e-07
-1.67324e-07
-1.68615e-07
-1.70181e-07
-1.71375e-07
-1.73095e-07
-1.74128e-07
-1.76071e-07
-1.7687e-07
-1.79105e-07
-1.79606e-07
-1.82187e-07
-1.82346e-07
-1.85301e-07
-1.85106e-07
-1.88433e-07
-1.87894e-07
-1.91577e-07
-1.907e-07
-1.94757e-07
-1.93483e-07
-1.98026e-07
-1.96179e-07
-2.01448e-07
-1.98722e-07
-2.05087e-07
-2.01043e-07
-2.09008e-07
-2.03084e-07
-2.13252e-07
-2.04834e-07
-2.17796e-07
-2.06359e-07
-2.22539e-07
-2.07839e-07
-2.27267e-07
-2.09634e-07
-2.31597e-07
-2.12459e-07
-2.34748e-07
-2.17893e-07
-2.35042e-07
-2.29425e-07
-2.28441e-07
-2.5545e-07
-2.02845e-07
-3.16213e-07
-1.08532e-07
-4.56165e-07
5.49835e-07
-2.38797e-07
-2.38797e-07
-0.125293
0.125293
0.0249363
0.00835847
0.00427846
0.00266199
0.00183421
0.00134683
0.00103437
0.000822189
0.000671869
0.000561731
0.000478713
0.000414563
0.000363876
0.00032302
0.000289508
0.000261587
0.000237982
0.000217752
0.000200215
0.00018489
0.000171419
0.000159487
0.000148798
0.000139111
0.000130279
0.000122239
0.000114939
0.000108268
0.000102055
9.61403e-05
9.04571e-05
8.50361e-05
7.99239e-05
7.50758e-05
7.03138e-05
6.53963e-05
6.01592e-05
5.4635e-05
4.90678e-05
4.38092e-05
3.91574e-05
3.52292e-05
3.19337e-05
2.90484e-05
2.63474e-05
2.37085e-05
2.11527e-05
1.88051e-05
1.68128e-05
1.52622e-05
1.41354e-05
1.33156e-05
1.2631e-05
1.19122e-05
1.10383e-05
9.96082e-06
8.70119e-06
7.33127e-06
5.94592e-06
4.6373e-06
3.47677e-06
2.50625e-06
1.73814e-06
1.1611e-06
7.48502e-07
4.66862e-07
2.82556e-07
1.66123e-07
9.42632e-08
5.00709e-08
2.22092e-08
3.6294e-09
-9.73536e-09
-2.00662e-08
-2.84623e-08
-3.54661e-08
-4.13689e-08
-4.63662e-08
-5.06233e-08
-5.42936e-08
-5.75177e-08
-6.04179e-08
-6.30938e-08
-6.56218e-08
-6.80572e-08
-7.04377e-08
-7.27874e-08
-7.51209e-08
-7.74465e-08
-7.97684e-08
-8.2089e-08
-8.44091e-08
-8.67295e-08
-8.90504e-08
-9.13726e-08
-9.36965e-08
-9.60228e-08
-9.83521e-08
-1.00685e-07
-1.03022e-07
-1.05364e-07
-1.0771e-07
-1.10062e-07
-1.12418e-07
-1.1478e-07
-1.17147e-07
-1.19519e-07
-1.21896e-07
-1.24278e-07
-1.26664e-07
-1.29055e-07
-1.3145e-07
-1.33849e-07
-1.36251e-07
-1.38658e-07
-1.41067e-07
-1.4348e-07
-1.45896e-07
-1.48314e-07
-1.50736e-07
-1.53159e-07
-1.55586e-07
-1.58014e-07
-1.60445e-07
-1.62877e-07
-1.65312e-07
-1.67748e-07
-1.70185e-07
-1.72624e-07
-1.75064e-07
-1.77505e-07
-1.79946e-07
-1.82388e-07
-1.84831e-07
-1.87273e-07
-1.89716e-07
-1.92158e-07
-1.94599e-07
-1.9704e-07
-1.9948e-07
-2.01918e-07
-2.04355e-07
-2.06789e-07
-2.09222e-07
-2.11652e-07
-2.14079e-07
-2.16503e-07
-2.18923e-07
-2.2134e-07
-2.23753e-07
-2.26161e-07
-2.28565e-07
-2.30964e-07
-2.33357e-07
-2.35744e-07
-2.38125e-07
-2.405e-07
-2.42867e-07
-2.45228e-07
-2.47581e-07
-2.49926e-07
-2.52262e-07
-2.5459e-07
-2.56909e-07
-2.59218e-07
-2.61518e-07
-2.63807e-07
-2.66086e-07
-2.68354e-07
-2.7061e-07
-2.72855e-07
-2.75088e-07
-2.77308e-07
-2.79516e-07
-2.8171e-07
-2.83891e-07
-2.86059e-07
-2.88212e-07
-2.90351e-07
-2.92475e-07
-2.94583e-07
-2.96677e-07
-2.98755e-07
-3.00817e-07
-3.02862e-07
-3.04891e-07
-3.06904e-07
-3.08899e-07
-3.10877e-07
-3.12837e-07
-3.1478e-07
-3.16705e-07
-3.18612e-07
-3.20501e-07
-3.22371e-07
-3.24222e-07
-3.26055e-07
-3.27869e-07
-3.29665e-07
-3.31441e-07
-3.33198e-07
-3.34936e-07
-3.36655e-07
-3.38354e-07
-3.40035e-07
-3.41696e-07
-3.43338e-07
-3.44961e-07
-3.46565e-07
-3.4815e-07
-3.49716e-07
-3.51263e-07
-3.52792e-07
-3.54302e-07
-3.55794e-07
-3.57267e-07
-3.58723e-07
-3.60161e-07
-3.61582e-07
-3.62985e-07
-3.64371e-07
-3.6574e-07
-3.67093e-07
-3.6843e-07
-3.69751e-07
-3.71057e-07
-3.72348e-07
-3.73623e-07
-3.74885e-07
-3.76132e-07
-3.77366e-07
-3.78587e-07
-3.79795e-07
-3.8099e-07
-3.82174e-07
-3.83346e-07
-3.84508e-07
-3.85659e-07
-3.868e-07
-3.87931e-07
-3.89054e-07
-3.90168e-07
-3.91274e-07
-3.92373e-07
-3.93465e-07
-3.9455e-07
-3.95629e-07
-3.96703e-07
-3.97772e-07
-3.98837e-07
-3.99898e-07
-4.00956e-07
-4.02012e-07
-4.03065e-07
-4.04116e-07
-4.05166e-07
-4.06216e-07
-4.07266e-07
-4.08316e-07
-4.09367e-07
-4.1042e-07
-4.11474e-07
-4.12531e-07
-4.13592e-07
-4.14655e-07
-4.15723e-07
-4.16794e-07
-4.17871e-07
-4.18953e-07
-4.20041e-07
-4.21135e-07
-4.22236e-07
-4.23343e-07
-4.24458e-07
-4.25581e-07
-4.26712e-07
-4.27851e-07
-4.29e-07
-4.30157e-07
-4.31324e-07
-4.32501e-07
-4.33689e-07
-4.34886e-07
-4.36095e-07
-4.37314e-07
-4.38545e-07
-4.39787e-07
-4.41041e-07
-4.42306e-07
-4.43584e-07
-4.44874e-07
-4.46177e-07
-4.47492e-07
-4.4882e-07
-4.50161e-07
-4.51515e-07
-4.52883e-07
-4.54263e-07
-4.55657e-07
-4.57064e-07
-4.58485e-07
-4.59919e-07
-4.61366e-07
-4.62827e-07
-4.64302e-07
-4.65791e-07
-4.67293e-07
-4.68808e-07
-4.70337e-07
-4.7188e-07
-4.73436e-07
-4.75005e-07
-4.76588e-07
-4.78184e-07
-4.79794e-07
-4.81416e-07
-4.83051e-07
-4.847e-07
-4.86361e-07
-4.88035e-07
-4.89721e-07
-4.9142e-07
-4.93132e-07
-4.94855e-07
-4.96591e-07
-4.98338e-07
-5.00097e-07
-5.01868e-07
-5.03651e-07
-5.05444e-07
-5.07249e-07
-5.09065e-07
-5.10892e-07
-5.12729e-07
-5.14577e-07
-5.16435e-07
-5.18303e-07
-5.20182e-07
-5.22069e-07
-5.2397e-07
-5.25872e-07
-5.27798e-07
-5.29708e-07
-5.31669e-07
-5.3357e-07
-5.3559e-07
-5.37446e-07
-5.39573e-07
-5.41318e-07
-5.43637e-07
-5.45164e-07
-5.47798e-07
-5.48968e-07
-5.52066e-07
-5.52725e-07
-5.56436e-07
-5.56444e-07
-5.60887e-07
-5.60153e-07
-5.65387e-07
-5.6388e-07
-5.69904e-07
-5.6765e-07
-5.74428e-07
-5.71443e-07
-5.7901e-07
-5.7517e-07
-5.83763e-07
-5.78698e-07
-5.88828e-07
-5.81881e-07
-5.94342e-07
-5.84578e-07
-6.00447e-07
-5.86662e-07
-6.07229e-07
-5.88106e-07
-6.14649e-07
-5.89051e-07
-6.22494e-07
-5.89881e-07
-6.30308e-07
-5.91362e-07
-6.37283e-07
-5.95014e-07
-6.41785e-07
-6.04185e-07
-6.4029e-07
-6.26275e-07
-6.24335e-07
-6.79057e-07
-5.6852e-07
-8.05132e-07
-3.68514e-07
-1.09473e-06
9.96648e-07
-6.3674e-07
-6.3674e-07
-0.146488
0.146488
0.0383109
0.0142345
0.00745653
0.00467327
0.00323108
0.00237707
0.00182762
0.0014536
0.00118816
0.000993419
0.000846495
0.000732893
0.000643101
0.000570719
0.00051135
0.000461892
0.000420086
0.000384267
0.000353231
0.000326121
0.000302292
0.00028118
0.000262267
0.000245131
0.00022952
0.000215313
0.000202404
0.000190586
0.000179563
0.000169071
0.000159001
0.000149401
0.000140332
0.000131695
0.000123176
0.000114374
0.000105039
9.52594e-05
8.54709e-05
7.62709e-05
6.81477e-05
6.12768e-05
5.54881e-05
5.0403e-05
4.5649e-05
4.10337e-05
3.66002e-05
3.25568e-05
2.91375e-05
2.6468e-05
2.44992e-05
2.30228e-05
2.17474e-05
2.03942e-05
1.87721e-05
1.6813e-05
1.45642e-05
1.21539e-05
9.74453e-06
7.48966e-06
5.50534e-06
3.85679e-06
2.55957e-06
1.59008e-06
9.00157e-07
4.31294e-07
1.25746e-07
-6.65156e-08
-1.84727e-07
-2.57159e-07
-3.02653e-07
-3.32855e-07
-3.54451e-07
-3.7101e-07
-3.84325e-07
-3.95286e-07
-4.04376e-07
-4.11925e-07
-4.18216e-07
-4.23511e-07
-4.28051e-07
-4.32042e-07
-4.35653e-07
-4.39012e-07
-4.42211e-07
-4.45315e-07
-4.48363e-07
-4.5138e-07
-4.54378e-07
-4.57367e-07
-4.60349e-07
-4.63327e-07
-4.663e-07
-4.69271e-07
-4.72241e-07
-4.7521e-07
-4.78179e-07
-4.8115e-07
-4.84124e-07
-4.87102e-07
-4.90084e-07
-4.93071e-07
-4.96063e-07
-4.99061e-07
-5.02064e-07
-5.05073e-07
-5.08088e-07
-5.11107e-07
-5.14132e-07
-5.17161e-07
-5.20194e-07
-5.23231e-07
-5.26272e-07
-5.29316e-07
-5.32364e-07
-5.35414e-07
-5.38467e-07
-5.41522e-07
-5.44579e-07
-5.47638e-07
-5.50699e-07
-5.53762e-07
-5.56826e-07
-5.59891e-07
-5.62957e-07
-5.66024e-07
-5.69092e-07
-5.7216e-07
-5.75229e-07
-5.78298e-07
-5.81367e-07
-5.84435e-07
-5.87504e-07
-5.90571e-07
-5.93638e-07
-5.96704e-07
-5.99768e-07
-6.02831e-07
-6.05892e-07
-6.0895e-07
-6.12007e-07
-6.1506e-07
-6.18111e-07
-6.21158e-07
-6.24202e-07
-6.27242e-07
-6.30277e-07
-6.33308e-07
-6.36334e-07
-6.39355e-07
-6.4237e-07
-6.45379e-07
-6.48382e-07
-6.51378e-07
-6.54367e-07
-6.57349e-07
-6.60323e-07
-6.63288e-07
-6.66245e-07
-6.69193e-07
-6.72132e-07
-6.75061e-07
-6.7798e-07
-6.80889e-07
-6.83787e-07
-6.86673e-07
-6.89548e-07
-6.92411e-07
-6.95262e-07
-6.981e-07
-7.00924e-07
-7.03736e-07
-7.06533e-07
-7.09317e-07
-7.12086e-07
-7.1484e-07
-7.17579e-07
-7.20302e-07
-7.2301e-07
-7.25701e-07
-7.28376e-07
-7.31034e-07
-7.33676e-07
-7.36299e-07
-7.38906e-07
-7.41494e-07
-7.44065e-07
-7.46617e-07
-7.49151e-07
-7.51666e-07
-7.54162e-07
-7.56639e-07
-7.59097e-07
-7.61535e-07
-7.63954e-07
-7.66353e-07
-7.68732e-07
-7.71092e-07
-7.73432e-07
-7.75751e-07
-7.78051e-07
-7.80331e-07
-7.82591e-07
-7.8483e-07
-7.8705e-07
-7.8925e-07
-7.9143e-07
-7.9359e-07
-7.9573e-07
-7.97851e-07
-7.99952e-07
-8.02034e-07
-8.04097e-07
-8.06141e-07
-8.08166e-07
-8.10173e-07
-8.12162e-07
-8.14132e-07
-8.16085e-07
-8.1802e-07
-8.19939e-07
-8.2184e-07
-8.23725e-07
-8.25594e-07
-8.27447e-07
-8.29285e-07
-8.31107e-07
-8.32916e-07
-8.3471e-07
-8.3649e-07
-8.38257e-07
-8.40012e-07
-8.41754e-07
-8.43484e-07
-8.45203e-07
-8.46911e-07
-8.48608e-07
-8.50296e-07
-8.51975e-07
-8.53645e-07
-8.55306e-07
-8.5696e-07
-8.58607e-07
-8.60247e-07
-8.61882e-07
-8.6351e-07
-8.65134e-07
-8.66754e-07
-8.68369e-07
-8.69982e-07
-8.71592e-07
-8.732e-07
-8.74806e-07
-8.76411e-07
-8.78016e-07
-8.79621e-07
-8.81227e-07
-8.82835e-07
-8.84444e-07
-8.86055e-07
-8.87669e-07
-8.89287e-07
-8.90908e-07
-8.92534e-07
-8.94165e-07
-8.95802e-07
-8.97444e-07
-8.99093e-07
-9.00749e-07
-9.02412e-07
-9.04082e-07
-9.05761e-07
-9.07449e-07
-9.09145e-07
-9.10851e-07
-9.12567e-07
-9.14293e-07
-9.16029e-07
-9.17777e-07
-9.19535e-07
-9.21305e-07
-9.23087e-07
-9.24881e-07
-9.26687e-07
-9.28506e-07
-9.30338e-07
-9.32183e-07
-9.34042e-07
-9.35914e-07
-9.378e-07
-9.39699e-07
-9.41613e-07
-9.43541e-07
-9.45484e-07
-9.47441e-07
-9.49412e-07
-9.51399e-07
-9.534e-07
-9.55416e-07
-9.57447e-07
-9.59494e-07
-9.61555e-07
-9.63631e-07
-9.65722e-07
-9.67829e-07
-9.69951e-07
-9.72087e-07
-9.74239e-07
-9.76406e-07
-9.78587e-07
-9.80784e-07
-9.82995e-07
-9.85222e-07
-9.87463e-07
-9.89718e-07
-9.91988e-07
-9.94272e-07
-9.96571e-07
-9.98884e-07
-1.00121e-06
-1.00355e-06
-1.00591e-06
-1.00827e-06
-1.01066e-06
-1.01305e-06
-1.01546e-06
-1.01788e-06
-1.02032e-06
-1.02276e-06
-1.02522e-06
-1.02769e-06
-1.03018e-06
-1.03267e-06
-1.03518e-06
-1.0377e-06
-1.04023e-06
-1.04277e-06
-1.04533e-06
-1.04789e-06
-1.05047e-06
-1.05305e-06
-1.05566e-06
-1.05824e-06