# vtk DataFile Version 2.0
FlowField
ASCII
DATASET STRUCTURED_GRID
DIMENSIONS 400 1 200
POINTS 80000 float
0 0 0
0.08 0 0
0.16 0 0
0.24 0 0
0.32 0 0
0.4 0 0
0.48 0 0
0.56 0 0
0.64 0 0
0.72 0 0
0.8 0 0
0.88 0 0
0.96 0 0
1.04 0 0
1.12 0 0
1.2 0 0
1.28 0 0
1.36 0 0
1.44 0 0
1.52 0 0
1.6 0 0
1.68 0 0
1.76 0 0
1.84 0 0
1.92 0 0
2 0 0
2.08 0 0
2.16 0 0
2.24 0 0
2.32 0 0
2.4 0 0
2.48 0 0
2.56 0 0
2.64 0 0
2.72 0 0
2.8 0 0
2.88 0 0
2.96 0 0
3.04 0 0
3.12 0 0
3.2 0 0
3.28 0 0
3.36 0 0
3.44 0 0
3.52 0 0
3.6 0 0
3.68 0 0
3.76 0 0
3.84 0 0
3.92 0 0
4 0 0
4.08 0 0
4.16 0 0
4.24 0 0
4.32 0 0
4.4 0 0
4.48 0 0
4.56 0 0
4.64 0 0
4.72 0 0
4.8 0 0
4.88 0 0
4.96 0 0
5.04 0 0
5.12 0 0
5.2 0 0
5.28 0 0
5.36 0 0
5.44 0 0
5.52 0 0
5.6 0 0
5.68 0 0
5.76 0 0
5.84 0 0
5.92 0 0
6 0 0
6.08 0 0
6.16 0 0
6.24 0 0
6.32 0 0
6.4 0 0
6.48 0 0
6.56 0 0
6.64 0 0
6.72 0 0
6.8 0 0
6.88 0 0
6.96 0 0
7.04 0 0
7.12 0 0
7.2 0 0
7.28 0 0
7.36 0 0
7.44 0 0
7.52 0 0
7.6 0 0
7.68 0 0
7.76 0 0
7.84 0 0
7.92 0 0
8 0 0
8.08 0 0
8.16 0 0
8.24 0 0
8.32 0 0
8.4 0 0
8.48 0 0
8.56 0 0
8.64 0 0
8.72 0 0
8.8 0 0
8.88 0 0
8.96 0 0
9.04 0 0
9.12 0 0
9.2 0 0
9.28 0 0
9.36 0 0
9.44 0 0
9.52 0 0
9.6 0 0
9.68 0 0
9.76 0 0
9.84 0 0
9.92 0 0
10 0 0
10.08 0 0
10.16 0 0
10.24 0 0
10.32 0 0
10.4 0 0
10.48 0 0
10.56 0 0
10.64 0 0
10.72 0 0
10.8 0 0
10.88 0 0
10.96 0 0
11.04 0 0
11.12 0 0
11.2 0 0
11.28 0 0
11.36 0 0
11.44 0 0
11.52 0 0
11.6 0 0
11.68 0 0
11.76 0 0
11.84 0 0
11.92 0 0
12 0 0
12.08 0 0
12.16 0 0
12.24 0 0
12.32 0 0
12.4 0 0
12.48 0 0
12.56 0 0
12.64 0 0
12.72 0 0
12.8 0 0
12.88 0 0
12.96 0 0
13.04 0 0
13.12 0 0
13.2 0 0
13.28 0 0
13.36 0 0
13.44 0 0
13.52 0 0
13.6 0 0
13.68 0 0
13.76 0 0
13.84 0 0
13.92 0 0
14 0 0
14.08 0 0
14.16 0 0
14.24 0 0
14.32 0 0
14.4 0 0
14.48 0 0
14.56 0 0
14.64 0 0
14.72 0 0
14.8 0 0
14.88 0 0
14.96 0 0
15.04 0 0
15.12 0 0
15.2 0 0
15.28 0 0
15.36 0 0
15.44 0 0
15.52 0 0
15.6 0 0
15.68 0 0
15.76 0 0
15.84 0 0
15.92 0 0
16 0 0
16.08 0 0
16.16 0 0
16.24 0 0
16.32 0 0
16.4 0 0
16.48 0 0
16.56 0 0
16.64 0 0
16.72 0 0
16.8 0 0
16.88 0 0
16.96 0 0
17.04 0 0
17.12 0 0
17.2 0 0
17.28 0 0
17.36 0 0
17.44 0 0
17.52 0 0
17.6 0 0
17.68 0 0
17.76 0 0
17.84 0 0
17.92 0 0
18 0 0
18.08 0 0
18.16 0 0
18.24 0 0
18.32 0 0
18.4 0 0
18.48 0 0
18.56 0 0
18.64 0 0
18.72 0 0
18.8 0 0
18.88 0 0
18.96 0 0
19.04 0 0
19.12 0 0
19.2 0 0
19.28 0 0
19.36 0 0
19.44 0 0
19.52 0 0
19.6 0 0
19.68 0 0
19.76 0 0
19.84 0 0
19.92 0 0
20 0 0
20.08 0 0
20.16 0 0
20.24 0 0
20.32 0 0
20.4 0 0
20.48 0 0
20.56 0 0
20.64 0 0
20.72 0 0
20.8 0 0
20.88 0 0
20.96 0 0
21.04 0 0
21.12 0 0
21.2 0 0
21.28 0 0
21.36 0 0
21.44 0 0
21.52 0 0
21.6 0 0
21.68 0 0
21.76 0 0
21.84 0 0
21.92 0 0
22 0 0
22.08 0 0
22.16 0 0
22.24 0 0
22.32 0 0
22.4 0 0
22.48 0 0
22.56 0 0
22.64 0 0
22.72 0 0
22.8 0 0
22.88 0 0
22.96 0 0
23.04 0 0
23.12 0 0
23.2 0 0
23.28 0 0
23.36 0 0
23.44 0 0
23.52 0 0
23.6 0 0
23.68 0 0
23.76 0 0
23.84 0 0
23.92 0 0
24 0 0
24.08 0 0
24.16 0 0
24.24 0 0
24.32 0 0
24.4 0 0
24.48 0 0
24.56 0 0
24.64 0 0
24.72 0 0
24.8 0 0
24.88 0 0
24.96 0 0
25.04 0 0
25.12 0 0
25.2 0 0
25.28 0 0
25.36 0 0
25.44 0 0
25.52 0 0
25.6 0 0
25.68 0 0
25.76 0 0
25.84 0 0
25.92 0 0
26 0 0
26.08 0 0
26.16 0 0
26.24 0 0
26.32 0 0
26.4 0 0
26.48 0 0
26.56 0 0
26.64 0 0
26.72 0 0
26.8 0 0
26.88 0 0
26.96 0 0
27.04 0 0
27.12 0 0
27.2 0 0
27.28 0 0
27.36 0 0
27.44 0 0
27.52 0 0
27.6 0 0
27.68 0 0
27.76 0 0
27.84 0 0
27.92 0 0
28 0 0
28.08 0 0
28.16 0 0
28.24 0 0
28.32 0 0
28.4 0 0
28.48 0 0
28.56 0 0
28.64 0 0
28.72 0 0
28.8 0 0
28.88 0 0
28.96 0 0
29.04 0 0
29.12 0 0
29.2 0 0
29.28 0 0
29.36 0 0
29.44 0 0
29.52 0 0
29.6 0 0
29.68 0 0
29.76 0 0
29.84 0 0
29.92 0 0
30 0 0
30.08 0 0
30.16 0 0
30.24 0 0
30.32 0 0
30.4 0 0
30.48 0 0
30.56 0 0
30.64 0 0
30.72 0 0
30.8 0 0
30.88 0 0
30.96 0 0
31.04 0 0
31.12 0 0
31.2 0 0
31.28 0 0
31.36 0 0
31.44 0 0
31.52 0 0
31.6 0 0
31.68 0 0
31.76 0 0
31.84 0 0
31.92 0 0
0 0.005 0
0.08 0.005 0
0.16 0.005 0
0.24 0.005 0
0.32 0.005 0
0.4 0.005 0
0.48 0.005 0
0.56 0.005 0
0.64 0.005 0
0.72 0.005 0
0.8 0.005 0
0.88 0.005 0
0.96 0.005 0
1.04 0.005 0
1.12 0.005 0
1.2 0.005 0
1.28 0.005 0
1.36 0.005 0
1.44 0.005 0
1.52 0.005 0
1.6 0.005 0
1.68 0.005 0
1.76 0.005 0
1.84 0.005 0
1.92 0.005 0
2 0.005 0
2.08 0.005 0
2.16 0.005 0
2.24 0.005 0
2.32 0.005 0
2.4 0.005 0
2.48 0.005 0
2.56 0.005 0
2.64 0.005 0
2.72 0.005 0
2.8 0.005 0
2.88 0.005 0
2.96 0.005 0
3.04 0.005 0
3.12 0.005 0
3.2 0.005 0
3.28 0.005 0
3.36 0.005 0
3.44 0.005 0
3.52 0.005 0
3.6 0.005 0
3.68 0.005 0
3.76 0.005 0
3.84 0.005 0
3.92 0.005 0
4 0.005 0
4.08 0.005 0
4.16 0.005 0
4.24 0.005 0
4.32 0.005 0
4.4 0.005 0
4.48 0.005 0
4.56 0.005 0
4.64 0.005 0
4.72 0.005 0
4.8 0.005 0
4.88 0.005 0
4.96 0.005 0
5.04 0.005 0
5.12 0.005 0
5.2 0.005 0
5.28 0.005 0
5.36 0.005 0
5.44 0.005 0
5.52 0.005 0
5.6 0.005 0
5.68 0.005 0
5.76 0.005 0
5.84 0.005 0
5.92 0.005 0
6 0.005 0
6.08 0.005 0
6.16 0.005 0
6.24 0.005 0
6.32 0.005 0
6.4 0.005 0
6.48 0.005 0
6.56 0.005 0
6.64 0.005 0
6.72 0.005 0
6.8 0.005 0
6.88 0.005 0
6.96 0.005 0
7.04 0.005 0
7.12 0.005 0
7.2 0.005 0
7.28 0.005 0
7.36 0.005 0
7.44 0.005 0
7.52 0.005 0
7.6 0.005 0
7.68 0.005 0
7.76 0.005 0
7.84 0.005 0
7.92 0.005 0
8 0.005 0
8.08 0.005 0
8.16 0.005 0
8.24 0.005 0
8.32 0.005 0
8.4 0.005 0
8.48 0.005 0
8.56 0.005 0
8.64 0.005 0
8.72 0.005 0
8.8 0.005 0
8.88 0.005 0
8.96 0.005 0
9.04 0.005 0
9.12 0.005 0
9.2 0.005 0
9.28 0.005 0
9.36 0.005 0
9.44 0.005 0
9.52 0.005 0
9.6 0.005 0
9.68 0.005 0
9.76 0.005 0
9.84 0.005 0
9.92 0.005 0
10 0.005 0
10.08 0.005 0
10.16 0.005 0
10.24 0.005 0
10.32 0.005 0
10.4 0.005 0
10.48 0.005 0
10.56 0.005 0
10.64 0.005 0
10.72 0.005 0
10.8 0.005 0
10.88 0.005 0
10.96 0.005 0
11.04 0.005 0
11.12 0.005 0
11.2 0.005 0
11.28 0.005 0
11.36 0.005 0
11.44 0.005 0
11.52 0.005 0
11.6 0.005 0
11.68 0.005 0
11.76 0.005 0
11.84 0.005 0
11.92 0.005 0
12 0.005 0
12.08 0.005 0
12.16 0.005 0
12.24 0.005 0
12.32 0.005 0
12.4 0.005 0
12.48 0.005 0
12.56 0.005 0
12.64 0.005 0
12.72 0.005 0
12.8 0.005 0
12.88 0.005 0
12.96 0.005 0
13.04 0.005 0
13.12 0.005 0
13.2 0.005 0
13.28 0.005 0
13.36 0.005 0
13.44 0.005 0
13.52 0.005 0
13.6 0.005 0
13.68 0.005 0
13.76 0.005 0
13.84 0.005 0
13.92 0.005 0
14 0.005 0
14.08 0.005 0
14.16 0.005 0
14.24 0.005 0
14.32 0.005 0
14.4 0.005 0
14.48 0.005 0
14.56 0.005 0
14.64 0.005 0
14.72 0.005 0
14.8 0.005 0
14.88 0.005 0
14.96 0.005 0
15.04 0.005 0
15.12 0.005 0
15.2 0.005 0
15.28 0.005 0
15.36 0.005 0
15.44 0.005 0
15.52 0.005 0
15.6 0.005 0
15.68 0.005 0
15.76 0.005 0
15.84 0.005 0
15.92 0.005 0
16 0.005 0
16.08 0.005 0
16.16 0.005 0
16.24 0.005 0
16.32 0.005 0
16.4 0.005 0
16.48 0.005 0
16.56 0.005 0
16.64 0.005 0
16.72 0.005 0
16.8 0.005 0
16.88 0.005 0
16.96 0.005 0
17.04 0.005 0
17.12 0.005 0
17.2 0.005 0
17.28 0.005 0
17.36 0.005 0
17.44 0.005 0
17.52 0.005 0
17.6 0.005 0
17.68 0.005 0
17.76 0.005 0
17.84 0.005 0
17.92 0.005 0
18 0.005 0
18.08 0.005 0
18.16 0.005 0
18.24 0.005 0
18.32 0.005 0
18.4 0.005 0
18.48 0.005 0
18.56 0.005 0
18.64 0.005 0
18.72 0.005 0
18.8 0.005 0
18.88 0.005 0
18.96 0.005 0
19.04 0.005 0
19.12 0.005 0
19.2 0.005 0
19.28 0.005 0
19.36 0.005 0
19.44 0.005 0
19.52 0.005 0
19.6 0.005 0
19.68 0.005 0
19.76 0.005 0
19.84 0.005 0
19.92 0.005 0
20 0.005 0
20.08 0.005 0
20.16 0.005 0
20.24 0.005 0
20.32 0.005 0
20.4 0.005 0
20.48 0.005 0
20.56 0.005 0
20.64 0.005 0
20.72 0.005 0
20.8 0.005 0
20.88 0.005 0
20.96 0.005 0
21.04 0.005 0
21.12 0.005 0
21.2 0.005 0
21.28 0.005 0
21.36 0.005 0
21.44 0.005 0
21.52 0.005 0
21.6 0.005 0
21.68 0.005 0
21.76 0.005 0
21.84 0.005 0
21.92 0.005 0
22 0.005 0
22.08 0.005 0
22.16 0.005 0
22.24 0.005 0
22.32 0.005 0
22.4 0.005 0
22.48 0.005 0
22.56 0.005 0
22.64 0.005 0
22.72 0.005 0
22.8 0.005 0
22.88 0.005 0
22.96 0.005 0
23.04 0.005 0
23.12 0.005 0
23.2 0.005 0
23.28 0.005 0
23.36 0.005 0
23.44 0.005 0
23.52 0.005 0
23.6 0.005 0
23.68 0.005 0
23.76 0.005 0
23.84 0.005 0
23.92 0.005 0
24 0.005 0
24.08 0.005 0
24.16 0.005 0
24.24 0.005 0
24.32 0.005 0
24.4 0.005 0
24.48 0.005 0
24.56 0.005 0
24.64 0.005 0
24.72 0.005 0
24.8 0.005 0
24.88 0.005 0
24.96 0.005 0
25.04 0.005 0
25.12 0.005 0
25.2 0.005 0
25.28 0.005 0
25.36 0.005 0
25.44 0.005 0
25.52 0.005 0
25.6 0.005 0
25.68 0.005 0
25.76 0.005 0
25.84 0.005 0
25.92 0.005 0
26 0.005 0
26.08 0.005 0
26.16 0.005 0
26.24 0.005 0
26.32 0.005 0
26.4 0.005 0
26.48 0.005 0
26.56 0.005 0
26.64 0.005 0
26.72 0.005 0
26.8 0.005 0
26.88 0.005 0
26.96 0.005 0
27.04 0.005 0
27.12 0.005 0
27.2 0.005 0
27.28 0.005 0
27.36 0.005 0
27.44 0.005 0
27.52 0.005 0
27.6 0.005 0
27.68 0.005 0
27.76 0.005 0
27.84 0.005 0
27.92 0.005 0
28 0.005 0
28.08 0.005 0
28.16 0.005 0
28.24 0.005 0
28.32 0.005 0
28.4 0.005 0
28.48 0.005 0
28.56 0.005 0
28.64 0.005 0
28.72 0.005 0
28.8 0.005 0
28.88 0.005 0
28.96 0.005 0
29.04 0.005 0
29.12 0.005 0
29.2 0.005 0
29.28 0.005 0
29.36 0.005 0
29.44 0.005 0
29.52 0.005 0
29.6 0.005 0
29.68 0.005 0
29.76 0.005 0
29.84 0.005 0
29.92 0.005 0
30 0.005 0
30.08 0.005 0
30.16 0.005 0
30.24 0.005 0
30.32 0.005 0
30.4 0.005 0
30.48 0.005 0
30.56 0.005 0
30.64 0.005 0
30.72 0.005 0
30.8 0.005 0
30.88 0.005 0
30.96 0.005 0
31.04 0.005 0
31.12 0.005 0
31.2 0.005 0
31.28 0.005 0
31.36 0.005 0
31.44 0.005 0
31.52 0.005 0
31.6 0.005 0
31.68 0.005 0
31.76 0.005 0
31.84 0.005 0
31.92 0.005 0
0 0.01 0
0.08 0.01 0
0.16 0.01 0
0.24 0.01 0
0.32 0.01 0
0.4 0.01 0
0.48 0.01 0
0.56 0.01 0
0.64 0.01 0
0.72 0.01 0
0.8 0.01 0
0.88 0.01 0
0.96 0.01 0
1.04 0.01 0
1.12 0.01 0
1.2 0.01 0
1.28 0.01 0
1.36 0.01 0
1.44 0.01 0
1.52 0.01 0
1.6 0.01 0
1.68 0.01 0
1.76 0.01 0
1.84 0.01 0
1.92 0.01 0
2 0.01 0
2.08 0.01 0
2.16 0.01 0
2.24 0.01 0
2.32 0.01 0
2.4 0.01 0
2.48 0.01 0
2.56 0.01 0
2.64 0.01 0
2.72 0.01 0
2.8 0.01 0
2.88 0.01 0
2.96 0.01 0
3.04 0.01 0
3.12 0.01 0
3.2 0.01 0
3.28 0.01 0
3.36 0.01 0
3.44 0.01 0
3.52 0.01 0
3.6 0.01 0
3.68 0.01 0
3.76 0.01 0
3.84 0.01 0
3.92 0.01 0
4 0.01 0
4.08 0.01 0
4.16 0.01 0
4.24 0.01 0
4.32 0.01 0
4.4 0.01 0
4.48 0.01 0
4.56 0.01 0
4.64 0.01 0
4.72 0.01 0
4.8 0.01 0
4.88 0.01 0
4.96 0.01 0
5.04 0.01 0
5.12 0.01 0
[...]
POINT_DATA 80000

SCALARS v float 1
LOOKUP_TABLE default
0
0
0
0
0
0
0
0
0
0
0
0
0
0
0
0
0
0
0
0
0
0
0
0
0
0
0
0
0
0
0
0
0
0
0
0
0
0
0
0
0
0
0
0
0
0
0
0
0
0
0
0
0
0
0
0
0
0
0
0
0
0
0
0
0
0
0
0
0
0
0
0
0
0
0
0
0
0
0
0
0
0
0
0
0
0
0
0
0
0
0
0
0
0
0
0
0
0
0
0
0
0
0
0
0
0
0
0
0
0
0
0
0
0
0
0
0
0
0
0
0
0
0
0
0
0
0
0
0
0
0
0
0
0
0
0
0
0
0
0
0
0
0
0
0
0
0
0
0
0
0
0
0
0
0
0
0
0
0
0
0
0
0
0
0
0
0
0
0
0
0
0
0
0
0
0
0
0
0
0
0
0
0
0
0
0
0
0
0
0
0
0
0
0
0
0
0
0
0
0
0
0
0
0
0
0
0
0
0
0
0
0
0
0
0
0
0
0
0
0
0
0
0
0
0
0
0
0
0
0
0
0
0
0
0
0
0
0
0
0
0
0
0
0
0
0
0
0
0
0
0
0
0
0
0
0
0
0
0
0
0
0
0
0
0
0
0
0
0
0
0
0
0
0
0
0
0
0
0
0
0
0
0
0
0
0
0
0
0
0
0
0
0
0
0
0
0
0
0
0
0
0
0
0
0
0
0
0
0
0
0
0
0
0
0
0
0
0
0
0
0
0
0
0
0
0
0
0
0
0
0
0
0
0
0
0
0
0
0
0
0
0
0
0
0
0
0
0
0
0
0
0
0
0
0
0
0
0
0
0
0
0
0
0
0
0
0
0
0
0
0
0
0
0
0
0
0
0
0
0
0
0
0
0
0
0
0
0
0
0
0
0
0
0
0
0
0
0
0
0
-0.0542713
0.0542713
0.00396233
0.000998571
0.000492503
0.00030294
0.000207565
0.000151937
0.000116495
9.25392e-05
7.56263e-05
6.32659e-05
5.39656e-05
4.67871e-05
4.11192e-05
3.65522e-05
3.28049e-05
2.96798e-05
2.70362e-05
2.47722e-05
2.2813e-05
2.11019e-05
1.95946e-05
1.82562e-05
1.70601e-05
1.59868e-05
1.50205e-05
1.41464e-05
1.33502e-05
1.26197e-05
1.19473e-05
1.13293e-05
1.07625e-05
1.02404e-05
9.75381e-06
9.29396e-06
8.85707e-06
8.44489e-06
8.06069e-06
7.70362e-06
7.36591e-06
7.03524e-06
6.7008e-06
6.3585e-06
6.01168e-06
5.6669e-06
5.32819e-06
4.99383e-06
4.65819e-06
4.31723e-06
3.97384e-06
3.63939e-06
3.33002e-06
3.05975e-06
2.83398e-06
2.647e-06
2.48454e-06
2.32996e-06
2.17102e-06
2.00419e-06
1.8349e-06
1.67419e-06
1.53357e-06
1.42029e-06
1.33489e-06
1.27136e-06
1.21952e-06
1.16829e-06
1.10874e-06
1.03598e-06
9.49568e-07
8.52867e-07
7.51525e-07
6.51866e-07
5.59508e-07
4.78487e-07
4.10924e-07
3.57159e-07
3.16165e-07
2.86081e-07
2.64707e-07
2.49888e-07
2.39751e-07
2.32808e-07
2.27966e-07
2.24471e-07
2.21834e-07
2.19749e-07
2.18033e-07
2.16574e-07
2.15303e-07
2.14171e-07
2.13142e-07
2.12189e-07
2.11288e-07
2.10422e-07
2.09578e-07
2.08746e-07
2.0792e-07
2.07095e-07
2.06271e-07
2.05445e-07
2.04618e-07
2.03791e-07
2.02963e-07
2.02134e-07
2.01305e-07
2.00477e-07
1.99649e-07
1.98821e-07
1.97993e-07
1.97166e-07
1.96338e-07
1.95511e-07
1.94684e-07
1.93858e-07
1.93031e-07
1.92204e-07
1.91377e-07
1.90551e-07
1.89724e-07
1.88898e-07
1.88072e-07
1.87246e-07
1.8642e-07
1.85595e-07
1.84769e-07
1.83944e-07
1.8312e-07
1.82295e-07
1.81471e-07
1.80647e-07
1.79824e-07
1.79001e-07
1.78178e-07
1.77356e-07
1.76535e-07
1.75713e-07
1.74892e-07
1.74072e-07
1.73252e-07
1.72432e-07
1.71613e-07
1.70794e-07
1.69976e-07
1.69158e-07
1.68341e-07
1.67524e-07
1.66708e-07
1.65892e-07
1.65077e-07
1.64262e-07
1.63448e-07
1.62634e-07
1.61821e-07
1.61008e-07
1.60195e-07
1.59383e-07
1.58572e-07
1.57761e-07
1.5695e-07
1.5614e-07
1.55331e-07
1.54522e-07
1.53713e-07
1.52905e-07
1.52097e-07
1.5129e-07
1.50483e-07
1.49677e-07
1.48871e-07
1.48066e-07
1.47261e-07
1.46456e-07
1.45652e-07
1.44848e-07
1.44045e-07
1.43242e-07
1.42439e-07
1.41637e-07
1.40835e-07
1.40034e-07
1.39233e-07
1.38432e-07
1.37631e-07
1.36831e-07
1.36031e-07
1.35232e-07
1.34433e-07
1.33634e-07
1.32835e-07
1.32037e-07
1.31239e-07
1.30441e-07
1.29644e-07
1.28847e-07
1.2805e-07
1.27253e-07
1.26456e-07
1.2566e-07
1.24863e-07
1.24067e-07
1.23272e-07
1.22476e-07
1.2168e-07
1.20885e-07
1.2009e-07
1.19295e-07
1.185e-07
1.17705e-07
1.1691e-07
1.16115e-07
1.15321e-07
1.14526e-07
1.13732e-07
1.12937e-07
1.12143e-07
1.11349e-07
1.10555e-07
1.0976e-07
1.08966e-07
1.08172e-07
1.07378e-07
1.06584e-07
1.0579e-07
1.04995e-07
1.04201e-07
1.03407e-07
1.02613e-07
1.01818e-07
1.01024e-07
1.00229e-07
9.94348e-08
9.86402e-08
9.78456e-08
9.70509e-08
9.6256e-08
9.54611e-08
9.4666e-08
9.38709e-08
9.30757e-08
9.22803e-08
9.14848e-08
9.06892e-08
8.98935e-08
8.90976e-08
8.83016e-08
8.75054e-08
8.67091e-08
8.59126e-08
8.5116e-08
8.43192e-08
8.35222e-08
8.27251e-08
8.19278e-08
8.11303e-08
8.03326e-08
7.95348e-08
7.87367e-08
7.79385e-08
7.714e-08
7.63414e-08
7.55426e-08
7.47435e-08
7.39443e-08
7.31448e-08
7.23451e-08
7.15453e-08
7.07451e-08
6.99448e-08
6.91442e-08
6.83435e-08
6.75424e-08
6.67412e-08
6.59397e-08
6.5138e-08
6.4336e-08
6.35338e-08
6.27314e-08
6.19287e-08
6.11257e-08
6.03225e-08
5.95191e-08
5.87154e-08
5.79115e-08
5.71072e-08
5.63028e-08
5.54981e-08
5.46931e-08
5.38878e-08
5.30823e-08
5.22765e-08
5.14704e-08
5.06641e-08
4.98575e-08
4.90506e-08
4.82435e-08
4.74361e-08
4.66284e-08
4.58204e-08
4.50121e-08
4.42036e-08
4.33947e-08
4.25856e-08
4.17762e-08
4.09665e-08
4.01565e-08
3.93463e-08
3.85357e-08
3.77249e-08
3.69137e-08
3.61023e-08
3.52905e-08
3.44785e-08
3.36661e-08
3.28535e-08
3.20405e-08
3.12273e-08
3.04137e-08
2.95999e-08
2.87857e-08
2.79712e-08
2.71564e-08
2.63413e-08
2.55259e-08
2.47102e-08
2.38942e-08
2.30778e-08
2.22611e-08
2.14441e-08
2.06269e-08
1.98091e-08
1.89914e-08
1.81727e-08
1.73547e-08
1.65347e-08
1.5717e-08
1.48951e-08
1.40785e-08
1.32536e-08
1.24393e-08
1.16099e-08
1.07997e-08
9.96392e-09
9.15976e-09
8.31546e-09
7.51953e-09
6.66457e-09
5.87891e-09
5.01138e-09
4.23772e-09
3.356e-09
2.59587e-09
1.69842e-09
9.53586e-10
3.81237e-11
-6.88364e-10
-1.62601e-09
-2.32861e-09
-3.29556e-09
-3.96531e-09
-4.97263e-09
-5.59611e-09
-6.65991e-09
-7.218e-09
-8.36043e-09
-8.82804e-09
-1.00768e-08
-1.04237e-08
-1.18115e-08
-1.20026e-08
-1.35666e-08
-1.35626e-08
-1.53436e-08
-1.51025e-08
-1.71434e-08
-1.66216e-08
-1.8966e-08
-1.81221e-08
-2.08072e-08
-1.96129e-08
-2.26553e-08
-2.11179e-08
-2.44815e-08
-2.2694e-08
-2.6222e-08
-2.44708e-08
-2.7735e-08
-2.67448e-08
-2.86997e-08
-3.01949e-08
-2.83291e-08
-3.64271e-08
-2.42839e-08
-4.93355e-08
-6.49983e-09
-7.78022e-08
1.24637e-07
-3.5264e-08
-3.5264e-08
-0.0952161
0.0952161
0.0129759
0.00385491
0.00193461
0.0011965
0.000822046
0.000602621
0.000462375
0.00036735
0.000300141
0.000250956
0.000213913
0.000185305
0.000162712
0.000144507
0.000129572
0.000117122
0.000106594
9.75828e-05
8.97885e-05
8.2984e-05
7.69921e-05
7.16739e-05
6.69238e-05
6.26631e-05
5.88276e-05
5.53576e-05
5.21962e-05
4.92967e-05
4.66297e-05
4.41795e-05
4.19306e-05
3.98563e-05
3.79203e-05
3.60907e-05
3.43544e-05
3.27174e-05
3.11895e-05
2.97637e-05
2.84078e-05
2.70753e-05
2.57276e-05
2.43519e-05
2.2962e-05
2.15815e-05
2.02234e-05
1.88806e-05
1.75339e-05
1.61728e-05
1.48133e-05
1.35015e-05
1.22973e-05
1.12493e-05
1.03718e-05
9.63842e-06
8.99328e-06
8.37523e-06
7.74203e-06
7.08449e-06
6.42564e-06
5.80695e-06
5.26912e-06
4.83553e-06
4.50425e-06
4.25007e-06
4.03393e-06
3.81533e-06
3.56307e-06
3.26153e-06
2.91173e-06
2.52807e-06
2.13262e-06
1.74905e-06
1.39774e-06
1.09272e-06
8.40741e-07
6.42018e-07
4.91863e-07
3.8273e-07
3.06054e-07
2.53623e-07
2.18403e-07
1.94872e-07
1.79005e-07
1.68046e-07
1.60215e-07
1.54408e-07
1.49959e-07
1.46463e-07
1.43663e-07
1.4138e-07
1.3948e-07
1.37858e-07
1.36429e-07
1.35129e-07
1.33907e-07
1.32729e-07
1.31572e-07
1.30422e-07
1.29272e-07
1.2812e-07
1.26964e-07
1.25805e-07
1.24644e-07
1.23483e-07
1.22322e-07
1.21162e-07
1.20004e-07
1.18846e-07
1.1769e-07
1.16534e-07
1.1538e-07
1.14225e-07
1.13071e-07
1.11918e-07
1.10764e-07
1.0961e-07
1.08457e-07
1.07303e-07
1.06149e-07
1.04996e-07
1.03842e-07
1.02689e-07
1.01535e-07
1.00382e-07
9.92298e-08
9.80776e-08
9.69257e-08
9.57742e-08
9.46233e-08
9.34728e-08
9.23229e-08
9.11735e-08
9.00247e-08
8.88765e-08
8.77289e-08
8.65818e-08
8.54354e-08
8.42895e-08
8.31443e-08
8.19997e-08
8.08557e-08
7.97122e-08
7.85694e-08
7.74273e-08
7.62857e-08
7.51447e-08
7.40043e-08
7.28645e-08
7.17253e-08
7.05867e-08
6.94487e-08
6.83113e-08
6.71744e-08
6.60382e-08
6.49025e-08
6.37673e-08
6.26328e-08
6.14988e-08
6.03654e-08
5.92325e-08
5.81001e-08
5.69683e-08
5.58371e-08
5.47063e-08
5.35761e-08
5.24464e-08
5.13172e-08
5.01885e-08
4.90602e-08
4.79325e-08
4.68052e-08
4.56784e-08
4.4552e-08
4.34261e-08
4.23006e-08
4.11756e-08
4.00509e-08
3.89267e-08
3.78028e-08
3.66793e-08
3.55562e-08
3.44335e-08
3.33111e-08
3.2189e-08
3.10673e-08
2.99459e-08
2.88247e-08
2.77039e-08
2.65833e-08
2.54631e-08
2.4343e-08
2.32232e-08
2.21037e-08
2.09843e-08
1.98652e-08
1.87463e-08
1.76275e-08
1.6509e-08
1.53905e-08
1.42723e-08
1.31542e-08
1.20361e-08
1.09183e-08
9.80049e-09
8.6828e-09
7.56518e-09
6.44764e-09
5.33016e-09
4.21272e-09
3.09532e-09
1.97795e-09
8.60596e-10
-2.56757e-10
-1.37412e-09
-2.49149e-09
-3.6089e-09
-4.72633e-09
-5.8438e-09
-6.96135e-09
-8.07895e-09
-9.19663e-09
-1.03144e-08
-1.14323e-08
-1.25502e-08
-1.36683e-08
-1.47865e-08
-1.59048e-08
-1.70232e-08
-1.81418e-08
-1.92606e-08
-2.03795e-08
-2.14986e-08
-2.26179e-08
-2.37373e-08
-2.4857e-08
-2.59768e-08
-2.70969e-08
-2.82171e-08
-2.93376e-08
-3.04583e-08
-3.15793e-08
-3.27005e-08
-3.38219e-08
-3.49436e-08
-3.60656e-08
-3.71878e-08
-3.83103e-08
-3.9433e-08
-4.05561e-08
-4.16794e-08
-4.2803e-08
-4.39269e-08
-4.50512e-08
-4.61757e-08
-4.73005e-08
-4.84256e-08
-4.95511e-08
-5.06769e-08
-5.1803e-08
-5.29294e-08
-5.40562e-08
-5.51833e-08
-5.63108e-08
-5.74386e-08
-5.85668e-08
-5.96953e-08
-6.08241e-08
-6.19534e-08
-6.3083e-08
-6.42129e-08
-6.53433e-08
-6.6474e-08
-6.76051e-08
-6.87366e-08
-6.98684e-08
-7.10007e-08
-7.21333e-08
-7.32664e-08
-7.43998e-08
-7.55337e-08
-7.66679e-08
-7.78026e-08
-7.89376e-08
-8.00731e-08
-8.1209e-08
-8.23453e-08
-8.3482e-08
-8.46191e-08
-8.57567e-08
-8.68947e-08
-8.80331e-08
-8.9172e-08
-9.03113e-08
-9.1451e-08
-9.25912e-08
-9.37318e-08
-9.48729e-08
-9.60144e-08
-9.71564e-08
-9.82988e-08
-9.94416e-08
-1.00585e-07
-1.01729e-07
-1.02873e-07
-1.04018e-07
-1.05163e-07
-1.06309e-07
-1.07455e-07
-1.08601e-07
-1.09748e-07
-1.10896e-07
-1.12044e-07
-1.13193e-07
-1.14342e-07
-1.15491e-07
-1.16641e-07
-1.17792e-07
-1.18943e-07
-1.20094e-07
-1.21246e-07
-1.22399e-07
-1.23552e-07
-1.24705e-07
-1.25859e-07
-1.27014e-07
-1.28169e-07
-1.29325e-07
-1.30481e-07
-1.31637e-07
-1.32795e-07
-1.33952e-07
-1.35112e-07
-1.36268e-07
-1.37431e-07
-1.38586e-07
-1.39755e-07
-1.40904e-07
-1.42082e-07
-1.43221e-07
-1.44415e-07
-1.45538e-07
-1.46754e-07
-1.47853e-07
-1.49099e-07
-1.50166e-07
-1.51451e-07
-1.52478e-07
-1.53809e-07
-1.54789e-07
-1.56172e-07
-1.57099e-07
-1.5854e-07
-1.59409e-07
-1.60915e-07
-1.61715e-07
-1.63302e-07
-1.64011e-07
-1.65707e-07
-1.66292e-07
-1.68136e-07
-1.68548e-07
-1.706e-07
-1.70767e-07
-1.73111e-07
-1.7294e-07
-1.75679e-07
-1.75055e-07
-1.78312e-07
-1.77105e-07
-1.81019e-07
-1.79081e-07
-1.83805e-07
-1.80978e-07
-1.86673e-07
-1.82795e-07
-1.89624e-07
-1.84538e-07
-1.92643e-07
-1.8624e-07
-1.95686e-07
-1.87991e-07
-1.98649e-07
-1.89999e-07
-2.01298e-07
-1.92746e-07
-2.03116e-07
-1.97331e-07
-2.02932e-07
-2.06269e-07
-1.97873e-07
-2.25497e-07
-1.79387e-07
-2.69266e-07
-1.10564e-07
-3.68419e-07
3.68245e-07
-2.09939e-07
-2.09939e-07
-0.125293
0.125293
0.0249362
0.00835835
0.00427834
0.00266187
0.00183409
0.00134671
0.00103425
0.000822069
0.000671754
0.000561619
0.000478602
0.000414455
0.00036378
0.000322947
0.000289452
0.000261535
0.000237937
0.000217745
0.000200286
0.000185049
0.000171635
0.000159734
0.000149108
0.00013958
0.000131003
0.000123242
0.000116172
0.000109689
0.000103729
9.82544e-05
9.32268e-05
8.85849e-05
8.42491e-05
8.01521e-05
7.6267e-05
7.26057e-05
6.91843e-05
6.59818e-05
6.29256e-05
5.99158e-05
5.6873e-05
5.37735e-05
5.06477e-05
4.75444e-05
4.44889e-05
4.14654e-05
3.84369e-05
3.53884e-05
3.23621e-05
2.94605e-05
2.68106e-05
2.45091e-05
2.25775e-05
2.09519e-05
1.95103e-05
1.81244e-05
1.67095e-05
1.52518e-05
1.38038e-05
1.24534e-05
1.12834e-05
1.03376e-05
9.60614e-06
9.03143e-06
8.52934e-06
8.01536e-06
7.42668e-06
6.73434e-06
5.94443e-06
5.09027e-06
4.22011e-06
3.38425e-06
2.62486e-06
1.9701e-06
1.43253e-06
1.01088e-06
6.93878e-07
4.6457e-07
3.04198e-07
1.95047e-07
1.22099e-07
7.36577e-08
4.12461e-08
1.90962e-08
3.48998e-09
-7.86921e-09
-1.63684e-08
-2.28533e-08
-2.78657e-08
-3.1783e-08
-3.48897e-08
-3.74106e-08
-3.95249e-08
-4.13717e-08
-4.30545e-08
-4.46459e-08
-4.61937e-08
-4.77263e-08
-4.92587e-08
-5.07969e-08
-5.23421e-08
-5.38926e-08
-5.5446e-08
-5.70001e-08
-5.85531e-08
-6.01038e-08
-6.16518e-08
-6.31969e-08
-6.47396e-08
-6.62803e-08
-6.78194e-08
-6.93575e-08
-7.0895e-08
-7.24323e-08
-7.39695e-08
-7.55069e-08
-7.70445e-08
-7.85823e-08
-8.01204e-08
-8.16586e-08
-8.31968e-08
-8.4735e-08
-8.6273e-08
-8.78108e-08
-8.93482e-08
-9.08851e-08
-9.24216e-08
-9.39574e-08
-9.54927e-08
-9.70272e-08
-9.8561e-08
-1.00094e-07
-1.01626e-07
-1.03158e-07
-1.04689e-07
-1.06219e-07
-1.07748e-07
-1.09276e-07
-1.10804e-07
-1.12331e-07
-1.13857e-07
-1.15382e-07
-1.16907e-07
-1.1843e-07
-1.19953e-07
-1.21476e-07
-1.22998e-07
-1.24518e-07
-1.26039e-07
-1.27558e-07
-1.29077e-07
-1.30596e-07
-1.32113e-07
-1.3363e-07
-1.35147e-07
-1.36663e-07
-1.38178e-07
-1.39692e-07
-1.41207e-07
-1.4272e-07
-1.44233e-07
-1.45745e-07
-1.47257e-07
-1.48768e-07
-1.50279e-07
-1.51789e-07
-1.53299e-07
-1.54808e-07
-1.56316e-07
-1.57825e-07
-1.59332e-07
-1.6084e-07
-1.62347e-07
-1.63853e-07
-1.65359e-07
-1.66865e-07
-1.6837e-07
-1.69875e-07
-1.71379e-07
-1.72884e-07
-1.74387e-07
-1.75891e-07
-1.77394e-07
-1.78897e-07
-1.804e-07
-1.81902e-07
-1.83405e-07
-1.84907e-07
-1.86408e-07
-1.8791e-07
-1.89411e-07
-1.90912e-07
-1.92413e-07
-1.93914e-07
-1.95415e-07
-1.96916e-07
-1.98416e-07
-1.99917e-07
-2.01417e-07
-2.02917e-07
-2.04418e-07
-2.05918e-07
-2.07418e-07
-2.08918e-07
-2.10419e-07
-2.11919e-07
-2.13419e-07
-2.1492e-07
-2.1642e-07
-2.1792e-07
-2.19421e-07
-2.20922e-07
-2.22422e-07
-2.23923e-07
-2.25424e-07
-2.26926e-07
-2.28427e-07
-2.29928e-07
-2.3143e-07
-2.32932e-07
-2.34434e-07
-2.35936e-07
-2.37439e-07
-2.38942e-07
-2.40445e-07
-2.41948e-07
-2.43452e-07
-2.44955e-07
-2.4646e-07
-2.47964e-07
-2.49469e-07
-2.50974e-07
-2.52479e-07
-2.53985e-07
-2.55491e-07
-2.56997e-07
-2.58504e-07
-2.60011e-07
-2.61519e-07
-2.63027e-07
-2.64535e-07
-2.66044e-07
-2.67553e-07
-2.69063e-07
-2.70573e-07
-2.72083e-07
-2.73594e-07
-2.75105e-07
-2.76617e-07
-2.78129e-07
-2.79642e-07
-2.81155e-07
-2.82669e-07
-2.84183e-07
-2.85697e-07
-2.87212e-07
-2.88728e-07
-2.90244e-07
-2.9176e-07
-2.93278e-07
-2.94795e-07
-2.96313e-07
-2.97832e-07
-2.99351e-07
-3.00871e-07
-3.02391e-07
-3.03912e-07
-3.05433e-07
-3.06955e-07
-3.08478e-07
-3.10001e-07
-3.11524e-07
-3.13049e-07
-3.14573e-07
-3.16099e-07
-3.17625e-07
-3.19151e-07
-3.20678e-07
-3.22206e-07
-3.23735e-07
-3.25263e-07
-3.26793e-07
-3.28323e-07
-3.29854e-07
-3.31385e-07
-3.32918e-07
-3.3445e-07
-3.35984e-07
-3.37518e-07
-3.39052e-07
-3.40587e-07
-3.42123e-07
-3.4366e-07
-3.45197e-07
-3.46735e-07
-3.48274e-07
-3.49813e-07
-3.51353e-07
-3.52894e-07
-3.54435e-07
-3.55977e-07
-3.57519e-07
-3.59063e-07
-3.60607e-07
-3.62152e-07
-3.63697e-07
-3.65243e-07
-3.6679e-07
-3.68338e-07
-3.69886e-07
-3.71436e-07
-3.72985e-07
-3.74536e-07
-3.76087e-07
-3.77639e-07
-3.79192e-07
-3.80746e-07
-3.823e-07
-3.83855e-07
-3.85411e-07
-3.86968e-07
-3.88526e-07
-3.90084e-07
-3.91643e-07
-3.93203e-07
-3.94764e-07
-3.96325e-07
-3.97888e-07
-3.9945e-07
-4.01015e-07
-4.02578e-07
-4.04147e-07
-4.05708e-07
-4.07284e-07
-4.0884e-07
-4.10427e-07
-4.11972e-07
-4.13578e-07
-4.15101e-07
-4.1674e-07
-4.18227e-07
-4.19913e-07
-4.21348e-07
-4.23098e-07
-4.24464e-07
-4.26296e-07
-4.27576e-07
-4.29506e-07
-4.30685e-07
-4.32725e-07
-4.33791e-07
-4.35954e-07
-4.36895e-07
-4.39198e-07
-4.39989e-07
-4.42464e-07
-4.43062e-07
-4.45766e-07
-4.461e-07
-4.4912e-07
-4.49083e-07
-4.52549e-07
-4.51987e-07
-4.56075e-07
-4.5479e-07
-4.59721e-07
-4.57469e-07
-4.63506e-07
-4.60006e-07
-4.67448e-07
-4.62383e-07
-4.71557e-07
-4.64591e-07
-4.75842e-07
-4.66623e-07
-4.80304e-07
-4.68495e-07
-4.84911e-07
-4.70277e-07
-4.89572e-07
-4.72156e-07
-4.94068e-07
-4.74576e-07
-4.97909e-07
-4.78558e-07
-5.00009e-07
-4.86434e-07
-4.9791e-07
-5.03547e-07
-4.85588e-07
-5.42463e-07
-4.45095e-07
-6.33155e-07
-2.98882e-07
-8.38118e-07
6.96068e-07
-5.04065e-07
-5.04065e-07
-0.146488
0.146488
0.0383108
0.0142344
0.0074564
0.00467314
0.00323095
0.00237693
0.00182749
0.00145347
0.00118804
0.000993303
0.000846381
0.000732785
0.000643017
0.000570673
0.000511333
0.000461884
0.000420095
0.000384349
0.00035345
0.00032649
0.000302762
0.000281716
0.000262932
0.000246092
0.000230935
0.000217219
0.000204722
0.000193269
0.000182742
0.000173074
0.000164191
0.000155982
0.000148311
0.000141063
0.000134194
0.000127722
0.000121668
0.000115986
0.000110548
0.000105184
9.97653e-05
9.42548e-05
8.87057e-05
8.31979e-05
7.77709e-05
7.23984e-05
6.70245e-05
6.16351e-05
5.63131e-05
5.12379e-05
4.66212e-05
4.26165e-05
3.92471e-05
3.63944e-05
3.38486e-05
3.13959e-05
2.8901e-05
2.63486e-05
2.38314e-05
2.14965e-05
1.94772e-05
1.78387e-05
1.65561e-05
1.55271e-05
1.46087e-05
1.36613e-05
1.25843e-05
1.13353e-05
9.93031e-06
8.42935e-06
6.91553e-06
5.47338e-06
4.17225e-06
3.05702e-06
2.14608e-06
1.43481e-06
9.02215e-07
5.18325e-07
2.50696e-07
6.90604e-08
-5.20212e-08
-1.32229e-07
-1.8575e-07
-2.22196e-07
-2.47743e-07
-2.662e-07
-2.79866e-07
-2.90148e-07
-2.97953e-07
-3.03916e-07
-3.08517e-07
-3.12136e-07
-3.15076e-07
-3.1757e-07
-3.19792e-07
-3.21863e-07
-3.23862e-07
-3.25836e-07
-3.27809e-07
-3.29792e-07
-3.31786e-07
-3.33787e-07
-3.35793e-07
-3.378e-07
-3.39803e-07
-3.41803e-07
-3.43797e-07
-3.45787e-07
-3.47772e-07
-3.49754e-07
-3.51734e-07
-3.53711e-07
-3.55688e-07
-3.57664e-07
-3.5964e-07
-3.61617e-07
-3.63595e-07
-3.65572e-07
-3.67551e-07
-3.69529e-07
-3.71508e-07
-3.73487e-07
-3.75466e-07
-3.77445e-07
-3.79424e-07
-3.81402e-07
-3.83379e-07
-3.85355e-07
-3.87331e-07
-3.89306e-07
-3.9128e-07
-3.93252e-07
-3.95224e-07
-3.97195e-07
-3.99165e-07
-4.01134e-07
-4.03102e-07
-4.05069e-07
-4.07034e-07
-4.08999e-07
-4.10963e-07
-4.12927e-07
-4.14889e-07
-4.1685e-07
-4.18811e-07
-4.2077e-07
-4.22729e-07
-4.24688e-07
-4.26645e-07
-4.28602e-07
-4.30558e-07
-4.32513e-07
-4.34468e-07
-4.36422e-07
-4.38375e-07
-4.40328e-07
-4.4228e-07
-4.44231e-07
-4.46182e-07
-4.48132e-07
-4.50082e-07
-4.52031e-07
-4.5398e-07
-4.55928e-07
-4.57876e-07
-4.59823e-07
-4.6177e-07
-4.63716e-07
-4.65662e-07
-4.67608e-07
-4.69553e-07
-4.71497e-07
-4.73442e-07
-4.75386e-07
-4.77329e-07
-4.79272e-07
-4.81215e-07
-4.83158e-07
-4.85101e-07
-4.87043e-07
-4.88985e-07
-4.90926e-07
-4.92868e-07
-4.94809e-07
-4.9675e-07
-4.98691e-07
-5.00632e-07
-5.02573e-07
-5.04513e-07
-5.06454e-07
-5.08394e-07
-5.10335e-07
-5.12275e-07
-5.14215e-07
-5.16156e-07
-5.18096e-07
-5.20036e-07
-5.21977e-07
-5.23917e-07
-5.25858e-07
-5.27798e-07
-5.29739e-07
-5.3168e-07
-5.33621e-07
-5.35562e-07
-5.37504e-07
-5.39445e-07
-5.41387e-07
-5.43329e-07
-5.45271e-07
-5.47213e-07
-5.49156e-07
-5.51099e-07
-5.53042e-07
-5.54986e-07
-5.5693e-07
-5.58874e-07
-5.60818e-07
-5.62763e-07
-5.64708e-07
-5.66654e-07
-5.686e-07
-5.70547e-07
-5.72493e-07
-5.74441e-07
-5.76388e-07
-5.78337e-07
-5.80285e-07
-5.82234e-07
-5.84184e-07
-5.86134e-07
-5.88085e-07
-5.90036e-07
-5.91987e-07
-5.9394e-07
-5.95893e-07
-5.97846e-07
-5.998e-07
-6.01754e-07
-6.03709e-07
-6.05665e-07
-6.07621e-07
-6.09578e-07
-6.11536e-07
-6.13494e-07
-6.15453e-07
-6.17413e-07
-6.19373e-07
-6.21334e-07
-6.23295e-07
-6.25257e-07
-6.2722e-07
-6.29184e-07
-6.31148e-07
-6.33113e-07
-6.35079e-07
-6.37045e-07
-6.39012e-07
-6.4098e-07
-6.42949e-07
-6.44918e-07
-6.46888e-07
-6.48859e-07
-6.50831e-07
-6.52803e-07
-6.54777e-07
-6.56751e-07
-6.58725e-07
-6.60701e-07
-6.62677e-07
-6.64655e-07
-6.66633e-07
-6.68611e-07
-6.70591e-07
-6.72572e-07
-6.74553e-07
-6.76535e-07
-6.78518e-07
-6.80502e-07
-6.82487e-07
-6.84472e-07
-6.86459e-07
-6.88446e-07
-6.90434e-07
-6.92424e-07
-6.94414e-07
-6.96404e-07
-6.98396e-07
-7.00389e-07
-7.02383e-07
-7.04377e-07
-7.06373e-07
-7.08369e-07
-7.10367e-07
-7.12365e-07
-7.14364e-07
-7.16365e-07
-7.18366e-07
-7.20368e-07
-7.22371e-07
-7.24375e-07
-7.26381e-07
-7.28387e-07
-7.30394e-07
-7.32402e-07
-7.34411e-07
-7.36421e-07
-7.38433e-07
-7.40445e-07
-7.42458e-07
-7.44473e-07
-7.46488e-07
-7.48504e-07
-7.50522e-07
-7.52541e-07
-7.5456e-07
-7.56581e-07
-7.58603e-07
-7.60626e-07
-7.6265e-07
-7.64676e-07
-7.66702e-07
-7.6873e-07
-7.70758e-07
-7.72788e-07
-7.74819e-07
-7.76851e-07
-7.78885e-07
-7.80919e-07
-7.82957e-07
-7.8499e-07
-7.87035e-07
-7.89065e-07
-7.9112e-07
-7.93141e-07
-7.95215e-07
-7.97216e-07
-7.99323e-07
-8.01287e-07
-8.03448e-07
-8.05351e-07