# vtk DataFile Version 2.0
FlowField
ASCII
DATASET STRUCTURED_GRID
DIMENSIONS 400 1 200
POINTS 80000 float
0 0 0
0.08 0 0
0.16 0 0
0.24 0 0
0.32 0 0
0.4 0 0
0.48 0 0
0.56 0 0
0.64 0 0
0.72 0 0
0.8 0 0
0.88 0 0
0.96 0 0
1.04 0 0
1.12 0 0
1.2 0 0
1.28 0 0
1.36 0 0
1.44 0 0
1.52 0 0
1.6 0 0
1.68 0 0
1.76 0 0
1.84 0 0
1.92 0 0
2 0 0
2.08 0 0
2.16 0 0
2.24 0 0
2.32 0 0
2.4 0 0
2.48 0 0
2.56 0 0
2.64 0 0
2.72 0 0
2.8 0 0
2.88 0 0
2.96 0 0
3.04 0 0
3.12 0 0
3.2 0 0
3.28 0 0
3.36 0 0
3.44 0 0
3.52 0 0
3.6 0 0
3.68 0 0
3.76 0 0
3.84 0 0
3.92 0 0
4 0 0
4.08 0 0
4.16 0 0
4.24 0 0
4.32 0 0
4.4 0 0
4.48 0 0
4.56 0 0
4.64 0 0
4.72 0 0
4.8 0 0
4.88 0 0
4.96 0 0
5.04 0 0
5.12 0 0
5.2 0 0
5.28 0 0
5.36 0 0
5.44 0 0
5.52 0 0
5.6 0 0
5.68 0 0
5.76 0 0
5.84 0 0
5.92 0 0
6 0 0
6.08 0 0
6.16 0 0
6.24 0 0
6.32 0 0
6.4 0 0
6.48 0 0
6.56 0 0
6.64 0 0
6.72 0 0
6.8 0 0
6.88 0 0
6.96 0 0
7.04 0 0
7.12 0 0
7.2 0 0
7.28 0 0
7.36 0 0
7.44 0 0
7.52 0 0
7.6 0 0
7.68 0 0
7.76 0 0
7.84 0 0
7.92 0 0
8 0 0
8.08 0 0
8.16 0 0
8.24 0 0
8.32 0 0
8.4 0 0
8.48 0 0
8.56 0 0
8.64 0 0
8.72 0 0
8.8 0 0
8.88 0 0
8.96 0 0
9.04 0 0
9.12 0 0
9.2 0 0
9.28 0 0
9.36 0 0
9.44 0 0
9.52 0 0
9.6 0 0
9.68 0 0
9.76 0 0
9.84 0 0
9.92 0 0
10 0 0
10.08 0 0
10.16 0 0
10.24 0 0
10.32 0 0
10.4 0 0
10.48 0 0
10.56 0 0
10.64 0 0
10.72 0 0
10.8 0 0
10.88 0 0
10.96 0 0
11.04 0 0
11.12 0 0
11.2 0 0
11.28 0 0
11.36 0 0
11.44 0 0
11.52 0 0
11.6 0 0
11.68 0 0
11.76 0 0
11.84 0 0
11.92 0 0
12 0 0
12.08 0 0
12.16 0 0
12.24 0 0
12.32 0 0
12.4 0 0
12.48 0 0
12.56 0 0
12.64 0 0
12.72 0 0
12.8 0 0
12.88 0 0
12.96 0 0
13.04 0 0
13.12 0 0
13.2 0 0
13.28 0 0
13.36 0 0
13.44 0 0
13.52 0 0
13.6 0 0
13.68 0 0
13.76 0 0
13.84 0 0
13.92 0 0
14 0 0
14.08 0 0
14.16 0 0
14.24 0 0
14.32 0 0
14.4 0 0
14.48 0 0
14.56 0 0
14.64 0 0
14.72 0 0
14.8 0 0
14.88 0 0
14.96 0 0
15.04 0 0
15.12 0 0
15.2 0 0
15.28 0 0
15.36 0 0
15.44 0 0
15.52 0 0
15.6 0 0
15.68 0 0
15.76 0 0
15.84 0 0
15.92 0 0
16 0 0
16.08 0 0
16.16 0 0
16.24 0 0
16.32 0 0
16.4 0 0
16.48 0 0
16.56 0 0
16.64 0 0
16.72 0 0
16.8 0 0
16.88 0 0
16.96 0 0
17.04 0 0
17.12 0 0
17.2 0 0
17.28 0 0
17.36 0 0
17.44 0 0
17.52 0 0
17.6 0 0
17.68 0 0
17.76 0 0
17.84 0 0
17.92 0 0
18 0 0
18.08 0 0
18.16 0 0
18.24 0 0
18.32 0 0
18.4 0 0
18.48 0 0
18.56 0 0
18.64 0 0
18.72 0 0
18.8 0 0
18.88 0 0
18.96 0 0
19.04 0 0
19.12 0 0
19.2 0 0
19.28 0 0
19.36 0 0
19.44 0 0
19.52 0 0
19.6 0 0
19.68 0 0
19.76 0 0
19.84 0 0
19.92 0 0
20 0 0
20.08 0 0
20.16 0 0
20.24 0 0
20.32 0 0
20.4 0 0
20.48 0 0
20.56 0 0
20.64 0 0
20.72 0 0
20.8 0 0
20.88 0 0
20.96 0 0
21.04 0 0
21.12 0 0
21.2 0 0
21.28 0 0
21.36 0 0
21.44 0 0
21.52 0 0
21.6 0 0
21.68 0 0
21.76 0 0
21.84 0 0
21.92 0 0
22 0 0
22.08 0 0
22.16 0 0
22.24 0 0
22.32 0 0
22.4 0 0
22.48 0 0
22.56 0 0
22.64 0 0
22.72 0 0
22.8 0 0
22.88 0 0
22.96 0 0
23.04 0 0
23.12 0 0
23.2 0 0
23.28 0 0
23.36 0 0
23.44 0 0
23.52 0 0
23.6 0 0
23.68 0 0
23.76 0 0
23.84 0 0
23.92 0 0
24 0 0
24.08 0 0
24.16 0 0
24.24 0 0
24.32 0 0
24.4 0 0
24.48 0 0
24.56 0 0
24.64 0 0
24.72 0 0
24.8 0 0
24.88 0 0
24.96 0 0
25.04 0 0
25.12 0 0
25.2 0 0
25.28 0 0
25.36 0 0
25.44 0 0
25.52 0 0
25.6 0 0
25.68 0 0
25.76 0 0
25.84 0 0
25.92 0 0
26 0 0
26.08 0 0
26.16 0 0
26.24 0 0
26.32 0 0
26.4 0 0
26.48 0 0
26.56 0 0
26.64 0 0
26.72 0 0
26.8 0 0
26.88 0 0
26.96 0 0
27.04 0 0
27.12 0 0
27.2 0 0
27.28 0 0
27.36 0 0
27.44 0 0
27.52 0 0
27.6 0 0
27.68 0 0
27.76 0 0
27.84 0 0
27.92 0 0
28 0 0
28.08 0 0
28.16 0 0
28.24 0 0
28.32 0 0
28.4 0 0
28.48 0 0
28.56 0 0
28.64 0 0
28.72 0 0
28.8 0 0
28.88 0 0
28.96 0 0
29.04 0 0
29.12 0 0
29.2 0 0
29.28 0 0
29.36 0 0
29.44 0 0
29.52 0 0
29.6 0 0
29.68 0 0
29.76 0 0
29.84 0 0
29.92 0 0
30 0 0
30.08 0 0
30.16 0 0
30.24 0 0
30.32 0 0
30.4 0 0
30.48 0 0
30.56 0 0
30.64 0 0
30.72 0 0
30.8 0 0
30.88 0 0
30.96 0 0
31.04 0 0
31.12 0 0
31.2 0 0
31.28 0 0
31.36 0 0
31.44 0 0
31.52 0 0
31.6 0 0
31.68 0 0
31.76 0 0
31.84 0 0
31.92 0 0
0 0.005 0
0.08 0.005 0
0.16 0.005 0
0.24 0.005 0
0.32 0.005 0
0.4 0.005 0
0.48 0.005 0
0.56 0.005 0
0.64 0.005 0
0.72 0.005 0
0.8 0.005 0
0.88 0.005 0
0.96 0.005 0
1.04 0.005 0
1.12 0.005 0
1.2 0.005 0
1.28 0.005 0
1.36 0.005 0
1.44 0.005 0
1.52 0.005 0
1.6 0.005 0
1.68 0.005 0
1.76 0.005 0
1.84 0.005 0
1.92 0.005 0
2 0.005 0
2.08 0.005 0
2.16 0.005 0
2.24 0.005 0
2.32 0.005 0
2.4 0.005 0
2.48 0.005 0
2.56 0.005 0
2.64 0.005 0
2.72 0.005 0
2.8 0.005 0
2.88 0.005 0
2.96 0.005 0
3.04 0.005 0
3.12 0.005 0
3.2 0.005 0
3.28 0.005 0
3.36 0.005 0
3.44 0.005 0
3.52 0.005 0
3.6 0.005 0
3.68 0.005 0
3.76 0.005 0
3.84 0.005 0
3.92 0.005 0
4 0.005 0
4.08 0.005 0
4.16 0.005 0
4.24 0.005 0
4.32 0.005 0
4.4 0.005 0
4.48 0.005 0
4.56 0.005 0
4.64 0.005 0
4.72 0.005 0
4.8 0.005 0
4.88 0.005 0
4.96 0.005 0
5.04 0.005 0
5.12 0.005 0
5.2 0.005 0
5.28 0.005 0
5.36 0.005 0
5.44 0.005 0
5.52 0.005 0
5.6 0.005 0
5.68 0.005 0
5.76 0.005 0
5.84 0.005 0
5.92 0.005 0
6 0.005 0
6.08 0.005 0
6.16 0.005 0
6.24 0.005 0
6.32 0.005 0
6.4 0.005 0
6.48 0.005 0
6.56 0.005 0
6.64 0.005 0
6.72 0.005 0
6.8 0.005 0
6.88 0.005 0
6.96 0.005 0
7.04 0.005 0
7.12 0.005 0
7.2 0.005 0
7.28 0.005 0
7.36 0.005 0
7.44 0.005 0
7.52 0.005 0
7.6 0.005 0
7.68 0.005 0
7.76 0.005 0
7.84 0.005 0
7.92 0.005 0
8 0.005 0
8.08 0.005 0
8.16 0.005 0
8.24 0.005 0
8.32 0.005 0
8.4 0.005 0
8.48 0.005 0
8.56 0.005 0
8.64 0.005 0
8.72 0.005 0
8.8 0.005 0
8.88 0.005 0
8.96 0.005 0
9.04 0.005 0
9.12 0.005 0
9.2 0.005 0
9.28 0.005 0
9.36 0.005 0
9.44 0.005 0
9.52 0.005 0
9.6 0.005 0
9.68 0.005 0
9.76 0.005 0
9.84 0.005 0
9.92 0.005 0
10 0.005 0
10.08 0.005 0
10.16 0.005 0
10.24 0.005 0
10.32 0.005 0
10.4 0.005 0
10.48 0.005 0
10.56 0.005 0
10.64 0.005 0
10.72 0.005 0
10.8 0.005 0
10.88 0.005 0
10.96 0.005 0
11.04 0.005 0
11.12 0.005 0
11.2 0.005 0
11.28 0.005 0
11.36 0.005 0
11.44 0.005 0
11.52 0.005 0
11.6 0.005 0
11.68 0.005 0
11.76 0.005 0
11.84 0.005 0
11.92 0.005 0
12 0.005 0
12.08 0.005 0
12.16 0.005 0
12.24 0.005 0
12.32 0.005 0
12.4 0.005 0
12.48 0.005 0
12.56 0.005 0
12.64 0.005 0
12.72 0.005 0
12.8 0.005 0
12.88 0.005 0
12.96 0.005 0
13.04 0.005 0
13.12 0.005 0
13.2 0.005 0
13.28 0.005 0
13.36 0.005 0
13.44 0.005 0
13.52 0.005 0
13.6 0.005 0
13.68 0.005 0
13.76 0.005 0
13.84 0.005 0
13.92 0.005 0
14 0.005 0
14.08 0.005 0
14.16 0.005 0
14.24 0.005 0
14.32 0.005 0
14.4 0.005 0
14.48 0.005 0
14.56 0.005 0
14.64 0.005 0
14.72 0.005 0
14.8 0.005 0
14.88 0.005 0
14.96 0.005 0
15.04 0.005 0
15.12 0.005 0
15.2 0.005 0
15.28 0.005 0
15.36 0.005 0
15.44 0.005 0
15.52 0.005 0
15.6 0.005 0
15.68 0.005 0
15.76 0.005 0
15.84 0.005 0
15.92 0.005 0
16 0.005 0
16.08 0.005 0
16.16 0.005 0
16.24 0.005 0
16.32 0.005 0
16.4 0.005 0
16.48 0.005 0
16.56 0.005 0
16.64 0.005 0
16.72 0.005 0
16.8 0.005 0
16.88 0.005 0
16.96 0.005 0
17.04 0.005 0
17.12 0.005 0
17.2 0.005 0
17.28 0.005 0
17.36 0.005 0
17.44 0.005 0
17.52 0.005 0
17.6 0.005 0
17.68 0.005 0
17.76 0.005 0
17.84 0.005 0
17.92 0.005 0
18 0.005 0
18.08 0.005 0
18.16 0.005 0
18.24 0.005 0
18.32 0.005 0
18.4 0.005 0
18.48 0.005 0
18.56 0.005 0
18.64 0.005 0
18.72 0.005 0
18.8 0.005 0
18.88 0.005 0
18.96 0.005 0
19.04 0.005 0
19.12 0.005 0
19.2 0.005 0
19.28 0.005 0
19.36 0.005 0
19.44 0.005 0
19.52 0.005 0
19.6 0.005 0
19.68 0.005 0
19.76 0.005 0
19.84 0.005 0
19.92 0.005 0
20 0.005 0
20.08 0.005 0
20.16 0.005 0
20.24 0.005 0
20.32 0.005 0
20.4 0.005 0
20.48 0.005 0
20.56 0.005 0
20.64 0.005 0
20.72 0.005 0
20.8 0.005 0
20.88 0.005 0
20.96 0.005 0
21.04 0.005 0
21.12 0.005 0
21.2 0.005 0
21.28 0.005 0
21.36 0.005 0
21.44 0.005 0
21.52 0.005 0
21.6 0.005 0
21.68 0.005 0
21.76 0.005 0
21.84 0.005 0
21.92 0.005 0
22 0.005 0
22.08 0.005 0
22.16 0.005 0
22.24 0.005 0
22.32 0.005 0
22.4 0.005 0
22.48 0.005 0
22.56 0.005 0
22.64 0.005 0
22.72 0.005 0
22.8 0.005 0
22.88 0.005 0
22.96 0.005 0
23.04 0.005 0
23.12 0.005 0
23.2 0.005 0
23.28 0.005 0
23.36 0.005 0
23.44 0.005 0
23.52 0.005 0
23.6 0.005 0
23.68 0.005 0
23.76 0.005 0
23.84 0.005 0
23.92 0.005 0
24 0.005 0
24.08 0.005 0
24.16 0.005 0
24.24 0.005 0
24.32 0.005 0
24.4 0.005 0
24.48 0.005 0
24.56 0.005 0
24.64 0.005 0
24.72 0.005 0
24.8 0.005 0
24.88 0.005 0
24.96 0.005 0
25.04 0.005 0
25.12 0.005 0
25.2 0.005 0
25.28 0.005 0
25.36 0.005 0
25.44 0.005 0
25.52 0.005 0
25.6 0.005 0
25.68 0.005 0
25.76 0.005 0
25.84 0.005 0
25.92 0.005 0
26 0.005 0
26.08 0.005 0
26.16 0.005 0
26.24 0.005 0
26.32 0.005 0
26.4 0.005 0
26.48 0.005 0
26.56 0.005 0
26.64 0.005 0
26.72 0.005 0
26.8 0.005 0
26.88 0.005 0
26.96 0.005 0
27.04 0.005 0
27.12 0.005 0
27.2 0.005 0
27.28 0.005 0
27.36 0.005 0
27.44 0.005 0
27.52 0.005 0
27.6 0.005 0
27.68 0.005 0
27.76 0.005 0
27.84 0.005 0
27.92 0.005 0
28 0.005 0
28.08 0.005 0
28.16 0.005 0
28.24 0.005 0
28.32 0.005 0
28.4 0.005 0
28.48 0.005 0
28.56 0.005 0
28.64 0.005 0
28.72 0.005 0
28.8 0.005 0
28.88 0.005 0
28.96 0.005 0
29.04 0.005 0
29.12 0.005 0
29.2 0.005 0
29.28 0.005 0
29.36 0.005 0
29.44 0.005 0
29.52 0.005 0
29.6 0.005 0
29.68 0.005 0
29.76 0.005 0
29.84 0.005 0
29.92 0.005 0
30 0.005 0
30.08 0.005 0
30.16 0.005 0
30.24 0.005 0
30.32 0.005 0
30.4 0.005 0
30.48 0.005 0
30.56 0.005 0
30.64 0.005 0
30.72 0.005 0
30.8 0.005 0
30.88 0.005 0
30.96 0.005 0
31.04 0.005 0
31.12 0.005 0
31.2 0.005 0
31.28 0.005 0
31.36 0.005 0
31.44 0.005 0
31.52 0.005 0
31.6 0.005 0
31.68 0.005 0
31.76 0.005 0
31.84 0.005 0
31.92 0.005 0
0 0.01 0
0.08 0.01 0
0.16 0.01 0
0.24 0.01 0
0.32 0.01 0
0.4 0.01 0
0.48 0.01 0
0.56 0.01 0
0.64 0.01 0
0.72 0.01 0
0.8 0.01 0
0.88 0.01 0
0.96 0.01 0
1.04 0.01 0
1.12 0.01 0
1.2 0.01 0
1.28 0.01 0
1.36 0.01 0
1.44 0.01 0
1.52 0.01 0
1.6 0.01 0
1.68 0.01 0
1.76 0.01 0
1.84 0.01 0
1.92 0.01 0
2 0.01 0
2.08 0.01 0
2.16 0.01 0
2.24 0.01 0
2.32 0.01 0
2.4 0.01 0
2.48 0.01 0
2.56 0.01 0
2.64 0.01 0
2.72 0.01 0
2.8 0.01 0
2.88 0.01 0
2.96 0.01 0
3.04 0.01 0
3.12 0.01 0
3.2 0.01 0
3.28 0.01 0
3.36 0.01 0
3.44 0.01 0
3.52 0.01 0
3.6 0.01 0
3.68 0.01 0
3.76 0.01 0
3.84 0.01 0
3.92 0.01 0
4 0.01 0
4.08 0.01 0
4.16 0.01 0
4.24 0.01 0
4.32 0.01 0
4.4 0.01 0
4.48 0.01 0
4.56 0.01 0
4.64 0.01 0
4.72 0.01 0
4.8 0.01 0
4.88 0.01 0
4.96 0.01 0
5.04 0.01 0
5.12 0.01 0
[...]
POINT_DATA 80000

SCALARS p float 1
LOOKUP_TABLE default
1
56.8689
56.5672
56.526
56.5059
56.4915
56.4795
56.4687
56.4587
56.4492
56.44
56.4312
56.4226
56.4141
56.4059
56.3979
56.3901
56.3824
56.3749
56.3676
56.3603
56.3533
56.3464
56.3396
56.3329
56.3264
56.32
56.3138
56.3077
56.3017
56.2959
56.2903
56.2848
56.2795
56.2742
56.2692
56.2642
56.2592
56.2544
56.2495
56.2447
56.2399
56.2351
56.2304
56.2257
56.2211
56.2165
56.2121
56.2076
56.2032
56.1989
56.1946
56.1902
56.1859
56.1816
56.1774
56.1731
56.1688
56.1645
56.1602
56.1559
56.1516
56.1473
56.143
56.1387
56.1345
56.1302
56.1259
56.1216
56.1173
56.113
56.1087
56.1044
56.1002
56.0959
56.0916
56.0873
56.083
56.0787
56.0744
56.0701
56.0659
56.0616
56.0573
56.053
56.0487
56.0444
56.0401
56.0359
56.0316
56.0273
56.023
56.0187
56.0144
56.0101
56.0059
56.0016
55.9973
55.993
55.9887
55.9844
55.9801
55.9759
55.9716
55.9673
55.963
55.9587
55.9544
55.9501
55.9459
55.9416
55.9373
55.933
55.9287
55.9244
55.9202
55.9159
55.9116
55.9073
55.903
55.8988
55.8945
55.8902
55.8859
55.8816
55.8773
55.8731
55.8688
55.8645
55.8602
55.8559
55.8517
55.8474
55.8431
55.8388
55.8345
55.8303
55.826
55.8217
55.8174
55.8132
55.8089
55.8046
55.8003
55.7961
55.7918
55.7875
55.7832
55.779
55.7747
55.7704
55.7661
55.7619
55.7576
55.7533
55.7491
55.7448
55.7405
55.7362
55.732
55.7277
55.7234
55.7192
55.7149
55.7106
55.7064
55.7021
55.6979
55.6936
55.6893
55.6851
55.6808
55.6765
55.6723
55.668
55.6638
55.6595
55.6553
55.651
55.6468
55.6425
55.6383
55.634
55.6298
55.6255
55.6213
55.617
55.6128
55.6085
55.6043
55.6
55.5958
55.5916
55.5873
55.5831
55.5789
55.5746
55.5704
55.5662
55.5619
55.5577
55.5535
55.5493
55.545
55.5408
55.5366
55.5324
55.5282
55.5239
55.5197
55.5155
55.5113
55.5071
55.5029
55.4987
55.4945
55.4903
55.4861
55.4819
55.4777
55.4735
55.4693
55.4651
55.4609
55.4567
55.4525
55.4484
55.4442
55.44
55.4358
55.4316
55.4275
55.4233
55.4191
55.4149
55.4108
55.4066
55.4025
55.3983
55.3941
55.39
55.3858
55.3817
55.3775
55.3733
55.3692
55.365
55.3609
55.3568
55.3526
55.3485
55.3443
55.3402
55.336
55.3319
55.3278
55.3236
55.3195
55.3154
55.3112
55.3071
55.3029
55.2988
55.2947
55.2906
55.2864
55.2823
55.2782
55.274
55.2699
55.2658
55.2616
55.2575
55.2534
55.2492
55.2451
55.241
55.2368
55.2327
55.2286
55.2244
55.2203
55.2162
55.212
55.2079
55.2038
55.1996
55.1955
55.1913
55.1872
55.183
55.1789
55.1747
55.1706
55.1664
55.1623
55.1581
55.1539
55.1498
55.1456
55.1414
55.1373
55.1331
55.1289
55.1247
55.1205
55.1163
55.1121
55.108
55.1038
55.0996
55.0954
55.0911
55.0869
55.0827
55.0785
55.0743
55.0701
55.0658
55.0616
55.0574
55.0531
55.0489
55.0446
55.0404
55.0361
55.0318
55.0276
55.0233
55.019
55.0148
55.0105
55.0062
55.0019
54.9976
54.9933
54.989
54.9847
54.9804
54.9761
54.9718
54.9675
54.9632
54.9588
54.9545
54.9502
54.9458
54.9415
54.9371
54.9328
54.9284
54.9241
54.9197
54.9154
54.911
54.9066
54.9023
54.8979
54.8935
54.8891
54.8847
54.8803
54.8759
54.8716
54.8672
54.8628
54.8583
54.8539
54.8495
54.8451
54.8407
54.8363
54.8319
54.8274
54.823
54.8186
54.8142
54.8097
54.8053
54.8009
54.7964
54.792
54.7875
54.7831
54.7786
54.7742
54.7697
54.7653
54.7608
54.7564
54.7519
54.7475
54.743
54.7385
54.7341
54.7296
54.7251
54.7207
54.7162
0.5
56.8689
56.8689
56.5672
56.526
56.5059
56.4915
56.4795
56.4687
56.4587
56.4492
56.44
56.4312
56.4226
56.4141
56.4059
56.3979
56.3901
56.3824
56.3749
56.3676
56.3603
56.3533
56.3464
56.3396
56.3329
56.3264
56.32
56.3138
56.3077
56.3017
56.2959
56.2903
56.2848
56.2795
56.2742
56.2692
56.2642
56.2592
56.2544
56.2495
56.2447
56.2399
56.2351
56.2304
56.2257
56.2211
56.2165
56.2121
56.2076
56.2032
56.1989
56.1946
56.1902
56.1859
56.1816
56.1774
56.1731
56.1688
56.1645
56.1602
56.1559
56.1516
56.1473
56.143
56.1387
56.1345
56.1302
56.1259
56.1216
56.1173
56.113
56.1087
56.1044
56.1002
56.0959
56.0916
56.0873
56.083
56.0787
56.0744
56.0701
56.0659
56.0616
56.0573
56.053
56.0487
56.0444
56.0401
56.0359
56.0316
56.0273
56.023
56.0187
56.0144
56.0101
56.0059
56.0016
55.9973
55.993
55.9887
55.9844
55.9801
55.9759
55.9716
55.9673
55.963
55.9587
55.9544
55.9501
55.9459
55.9416
55.9373
55.933
55.9287
55.9244
55.9202
55.9159
55.9116
55.9073
55.903
55.8988
55.8945
55.8902
55.8859
55.8816
55.8773
55.8731
55.8688
55.8645
55.8602
55.8559
55.8517
55.8474
55.8431
55.8388
55.8345
55.8303
55.826
55.8217
55.8174
55.8132
55.8089
55.8046
55.8003
55.7961
55.7918
55.7875
55.7832
55.779
55.7747
55.7704
55.7661
55.7619
55.7576
55.7533
55.7491
55.7448
55.7405
55.7362
55.732
55.7277
55.7234
55.7192
55.7149
55.7106
55.7064
55.7021
55.6979
55.6936
55.6893
55.6851
55.6808
55.6765
55.6723
55.668
55.6638
55.6595
55.6553
55.651
55.6468
55.6425
55.6383
55.634
55.6298
55.6255
55.6213
55.617
55.6128
55.6085
55.6043
55.6
55.5958
55.5916
55.5873
55.5831
55.5789
55.5746
55.5704
55.5662
55.5619
55.5577
55.5535
55.5493
55.545
55.5408
55.5366
55.5324
55.5282
55.5239
55.5197
55.5155
55.5113
55.5071
55.5029
55.4987
55.4945
55.4903
55.4861
55.4819
55.4777
55.4735
55.4693
55.4651
55.4609
55.4567
55.4525
55.4484
55.4442
55.44
55.4358
55.4316
55.4275
55.4233
55.4191
55.4149
55.4108
55.4066
55.4025
55.3983
55.3941
55.39
55.3858
55.3817
55.3775
55.3733
55.3692
55.365
55.3609
55.3568
55.3526
55.3485
55.3443
55.3402
55.336
55.3319
55.3278
55.3236
55.3195
55.3154
55.3112
55.3071
55.3029
55.2988
55.2947
55.2906
55.2864
55.2823
55.2782
55.274
55.2699
55.2658
55.2616
55.2575
55.2534
55.2492
55.2451
55.241
55.2368
55.2327
55.2286
55.2244
55.2203
55.2162
55.212
55.2079
55.2038
55.1996
55.1955
55.1913
55.1872
55.183
55.1789
55.1747
55.1706
55.1664
55.1623
55.1581
55.1539
55.1498
55.1456
55.1414
55.1373
55.1331
55.1289
55.1247
55.1205
55.1163
55.1121
55.108
55.1038
55.0996
55.0954
55.0911
55.0869
55.0827
55.0785
55.0743
55.0701
55.0658
55.0616
55.0574
55.0531
55.0489
55.0446
55.0404
55.0361
55.0318
55.0276
55.0233
55.019
55.0148
55.0105
55.0062
55.0019
54.9976
54.9933
54.989
54.9847
54.9804
54.9761
54.9718
54.9675
54.9632
54.9588
54.9545
54.9502
54.9458
54.9415
54.9371
54.9328
54.9284
54.9241
54.9197
54.9154
54.911
54.9066
54.9023
54.8979
54.8935
54.8891
54.8847
54.8803
54.8759
54.8716
54.8672
54.8628
54.8583
54.8539
54.8495
54.8451
54.8407
54.8363
54.8319
54.8274
54.823
54.8186
54.8142
54.8097
54.8053
54.8009
54.7964
54.792
54.7875
54.7831
54.7786
54.7742
54.7697
54.7653
54.7608
54.7564
54.7519
54.7475
54.743
54.7385
54.7341
54.7296
54.7251
54.7207
54.7162
54.7162
56.8543
56.8543
56.571
56.5272
56.5065
56.4919
56.4797
56.4689
56.4589
56.4493
56.4401
56.4313
56.4226
56.4142
56.406
56.398
56.3901
56.3825
56.3749
56.3676
56.3604
56.3533
56.3464
56.3396
56.3329
56.3264
56.32
56.3138
56.3077
56.3017
56.296
56.2903
56.2848
56.2795
56.2742
56.2692
56.2642
56.2593
56.2544
56.2495
56.2447
56.2399
56.2351
56.2304
56.2257
56.2211
56.2165
56.2121
56.2076
56.2032
56.1989
56.1946
56.1902
56.1859
56.1816
56.1774
56.1731
56.1688
56.1645
56.1602
56.1559
56.1516
56.1473
56.143
56.1387
56.1345
56.1302
56.1259
56.1216
56.1173
56.113
56.1087
56.1044
56.1002
56.0959
56.0916
56.0873
56.083
56.0787
56.0744
56.0701
56.0659
56.0616
56.0573
56.053
56.0487
56.0444
56.0401
56.0359
56.0316
56.0273
56.023
56.0187
56.0144
56.0101
56.0059
56.0016
55.9973
55.993
55.9887
55.9844
55.9801
55.9759
55.9716
55.9673
55.963
55.9587
55.9544
55.9501
55.9459
55.9416
55.9373
55.933
55.9287
55.9244
55.9202
55.9159
55.9116
55.9073
55.903
55.8987
55.8945
55.8902
55.8859
55.8816
55.8773
55.8731
55.8688
55.8645
55.8602
55.8559
55.8517
55.8474
55.8431
55.8388
55.8345
55.8303
55.826
55.8217
55.8174
55.8132
55.8089
55.8046
55.8003
55.7961
55.7918
55.7875
55.7832
55.779
55.7747
55.7704
55.7661
55.7619
55.7576
55.7533
55.7491
55.7448
55.7405
55.7362
55.732
55.7277
55.7234
55.7192
55.7149
55.7106
55.7064
55.7021
55.6979
55.6936
55.6893
55.6851
55.6808
55.6765
55.6723
55.668
55.6638
55.6595
55.6553
55.651
55.6468
55.6425
55.6383
55.634
55.6298
55.6255
55.6213
55.617
55.6128
55.6085
55.6043
55.6
55.5958
55.5916
55.5873
55.5831
55.5789
55.5746
55.5704
55.5662
55.5619
55.5577
55.5535
55.5493
55.545
55.5408
55.5366
55.5324
55.5282
55.5239
55.5197
55.5155
55.5113
55.5071
55.5029
55.4987
55.4945
55.4903
55.4861
55.4819
55.4777
55.4735
55.4693
55.4651
55.4609
55.4567
55.4525
55.4484
55.4442
55.44
55.4358
55.4316
55.4275
55.4233
55.4191
55.4149
55.4108
55.4066
55.4025
55.3983
55.3941
55.39
55.3858
55.3817
55.3775
55.3733
55.3692
55.365
55.3609
55.3568
55.3526
55.3485
55.3443
55.3402
55.336
55.3319
55.3278
55.3236
55.3195
55.3153
55.3112
55.3071
55.3029
55.2988
55.2947
55.2906
55.2864
55.2823
55.2782
55.274
55.2699
55.2658
55.2616
55.2575
55.2534
55.2492
55.2451
55.241
55.2368
55.2327
55.2286
55.2244
55.2203
55.2162
55.212
55.2079
55.2038
55.1996
55.1955
55.1913
55.1872
55.183
55.1789
55.1747
55.1706
55.1664
55.1623
55.1581
55.1539
55.1498
55.1456
55.1414
55.1373
55.1331
55.1289
55.1247
55.1205
55.1163
55.1121
55.108
55.1038
55.0996
55.0954
55.0911
55.0869
55.0827
55.0785
55.0743
55.07
55.0658
55.0616
55.0574
55.0531
55.0489
55.0446
55.0404
55.0361
55.0318
55.0276
55.0233
55.019
55.0148
55.0105
55.0062
55.0019
54.9976
54.9933
54.989
54.9847
54.9804
54.9761
54.9718
54.9675
54.9632
54.9588
54.9545
54.9502
54.9458
54.9415
54.9371
54.9328
54.9284
54.9241
54.9197
54.9154
54.911
54.9066
54.9023
54.8979
54.8935
54.8891
54.8847
54.8803
54.8759
54.8716
54.8672
54.8628
54.8583
54.8539
54.8495
54.8451
54.8407
54.8363
54.8319
54.8274
54.823
54.8186
54.8142
54.8097
54.8053
54.8009
54.7964
54.792
54.7875
54.7831
54.7786
54.7742
54.7697
54.7653
54.7608
54.7564
54.7519
54.7475
54.743
54.7385
54.7341
54.7296
54.7251
54.7207
54.7162
54.7162
56.8383
56.8383
56.5742
56.5284
56.5071
56.4922
56.48
56.4691
56.459
56.4494
56.4402
56.4313
56.4227
56.4143
56.4061
56.398
56.3902
56.3825
56.375
56.3676
56.3604
56.3533
56.3464
56.3396
56.333
56.3264
56.32
56.3138
56.3077
56.3018
56.296
56.2903
56.2848
56.2795
56.2743
56.2692
56.2642
56.2593
56.2544
56.2495
56.2447
56.2399
56.2351
56.2304
56.2257
56.2211
56.2165
56.2121
56.2076
56.2032
56.1989
56.1946
56.1902
56.1859
56.1816
56.1774
56.1731
56.1688
56.1645
56.1602
56.1559
56.1516
56.1473
56.143
56.1387
56.1345
56.1302
56.1259
56.1216
56.1173
56.113
56.1087
56.1044
56.1002
56.0959
56.0916
56.0873
56.083
56.0787
56.0744
56.0701
56.0659
56.0616
56.0573
56.053
56.0487
56.0444
56.0401
56.0359
56.0316
56.0273
56.023
56.0187
56.0144
56.0101
56.0059
56.0016
55.9973
55.993
55.9887
55.9844
55.9801
55.9759
55.9716
55.9673
55.963
55.9587
55.9544
55.9501
55.9459
55.9416
55.9373
55.933
55.9287
55.9244
55.9202
55.9159
55.9116
55.9073
55.903
55.8987
55.8945
55.8902
55.8859
55.8816
55.8773
55.8731
55.8688
55.8645
55.8602
55.8559
55.8517
55.8474
55.8431
55.8388
55.8345
55.8303
55.826
55.8217
55.8174
55.8132
55.8089
55.8046
55.8003
55.7961
55.7918
55.7875
55.7832
55.779
55.7747
55.7704
55.7661
55.7619
55.7576
55.7533
55.7491
55.7448
55.7405
55.7362
55.732
55.7277
55.7234
55.7192
55.7149
55.7106
55.7064
55.7021
55.6979
55.6936
55.6893
55.6851
55.6808
55.6765
55.6723
55.668
55.6638
55.6595
55.6553
55.651
55.6468
55.6425
55.6383
55.634
55.6298
55.6255
55.6213
55.617
55.6128
55.6085
55.6043
55.6
55.5958
55.5916
55.5873
55.5831
55.5789
55.5746
55.5704
55.5662
55.5619
55.5577
55.5535
55.5493
55.545
55.5408
55.5366
55.5324
55.5282
55.5239
55.5197
55.5155
55.5113
55.5071
55.5029
55.4987
55.4945
55.4903
55.4861
55.4819
55.4777
55.4735
55.4693
55.4651
55.4609
55.4567
55.4525
55.4484
55.4442
55.44
55.4358
55.4316
55.4275
55.4233
55.4191
55.4149
55.4108
55.4066
55.4025
55.3983
55.3941
55.39
55.3858
55.3817
55.3775
55.3733
55.3692
55.365
55.3609
55.3568
55.3526
55.3485
55.3443
55.3402
55.336
55.3319
55.3278
55.3236
55.3195
55.3153
55.3112
55.3071
55.3029
55.2988
55.2947
55.2906
55.2864
55.2823
55.2782
55.274
55.2699
55.2658
55.2616
55.2575
55.2534
55.2492
55.2451
55.241
55.2368
55.2327
55.2286
55.2244
55.2203
55.2162
55.212
55.2079
55.2038
55.1996
55.1955
55.1913
55.1872
55.183
55.1789
55.1747
55.1706
55.1664
55.1623
55.1581
55.1539
55.1498
55.1456
55.1414
55.1373
55.1331
55.1289
55.1247
55.1205
55.1163
55.1121
55.108
55.1038
55.0996
55.0954
55.0911
55.0869
55.0827
55.0785
55.0743
55.07
55.0658
55.0616
55.0573
55.0531
55.0489
55.0446
55.0404
55.0361
55.0318
55.0276
55.0233
55.019
55.0148
55.0105
55.0062
55.0019
54.9976
54.9933
54.989
54.9847
54.9804
54.9761
54.9718
54.9675
54.9632
54.9588
54.9545
54.9502
54.9458
54.9415
54.9371
54.9328
54.9284
54.9241
54.9197
54.9154
54.911
54.9066
54.9023
54.8979
54.8935
54.8891
54.8847
54.8803
54.8759
54.8716
54.8672
54.8628
54.8583
54.8539
54.8495
54.8451
54.8407
54.8363
54.8319
54.8274
54.823
54.8186
54.8142
54.8097
54.8053
54.8009
54.7964
54.792
54.7875
54.7831
54.7786
54.7742
54.7697
54.7653
54.7608
54.7564
54.7519
54.7475
54.743
54.7385
54.7341
54.7296
54.7251
54.7207
54.7162
54.7162
56.8224
56.8224
56.5771
56.5296
56.5077
56.4926
56.4803
56.4693
56.4592
56.4496
56.4403
56.4314
56.4228
56.4143
56.4061
56.3981
56.3902
56.3825
56.375
56.3676
56.3604
56.3534
56.3464
56.3396
56.333
56.3265
56.3201
56.3138
56.3077
56.3018
56.296
56.2903
56.2848
56.2795
56.2743
56.2692
56.2642
56.2593
56.2544
56.2495
56.2447
56.2399
56.2351
56.2304
56.2257
56.2211
56.2165
56.2121
56.2076
56.2032
56.1989
56.1946
56.1902
56.1859
56.1816
56.1774
56.1731
56.1688
56.1645
56.1602
56.1559
56.1516
56.1473
56.143
56.1387
56.1345
56.1302
56.1259
56.1216
56.1173
56.113
56.1087
56.1044
56.1002
56.0959
56.0916
56.0873
56.083
56.0787
56.0744
56.0701
56.0659
56.0616
56.0573
56.053
56.0487
56.0444
56.0401
56.0359
56.0316
56.0273
56.023
56.0187
56.0144
56.0101
56.0059
56.0016
55.9973
55.993
55.9887
55.9844
55.9801
55.9759
55.9716
55.9673
55.963
55.9587
55.9544
55.9501
55.9459
55.9416
55.9373
55.933
55.9287
55.9244
55.9202
55.9159
55.9116
55.9073
55.903
55.8987
55.8945
55.8902
55.8859
55.8816
55.8773
55.8731
55.8688
55.8645
55.8602
55.8559
55.8517
55.8474
55.8431
55.8388
55.8345
55.8303
55.826
55.8217
55.8174
55.8132
55.8089
55.8046
55.8003
55.7961
55.7918
55.7875
55.7832
55.779
55.7747
55.7704
55.7661
55.7619
55.7576
55.7533
55.7491
55.7448
55.7405
55.7362
55.732
55.7277
55.7234
55.7192
55.7149
55.7106
55.7064
55.7021
55.6979
55.6936
55.6893
55.6851
55.6808
55.6765
55.6723
55.668
55.6638
55.6595
55.6553
55.651
55.6468
55.6425
55.6383
55.634
55.6298
55.6255
55.6213
55.617
55.6128
55.6085
55.6043
55.6
55.5958
55.5916
55.5873
55.5831
55.5789
55.5746
55.5704
55.5662
55.5619
55.5577
55.5535
55.5493
55.545
55.5408
55.5366
55.5324
55.5282
55.5239
55.5197
55.5155
55.5113
55.5071
55.5029
55.4987
55.4945
55.4903
55.4861
55.4819
55.4777
55.4735
55.4693
55.4651
55.4609
55.4567
55.4525
55.4484
55.4442
55.44
55.4358
55.4316
55.4275
55.4233
55.4191
55.4149
55.4108
55.4066
55.4024
55.3983
55.3941
55.39
55.3858
55.3817
55.3775
55.3733
55.3692
55.365
55.3609
55.3568
55.3526
55.3485
55.3443
55.3402
55.336
55.3319
55.3278
55.3236
55.3195
55.3153
55.3112
55.3071
55.3029
55.2988
55.2947
55.2906
55.2864
55.2823
55.2782
55.274
55.2699
55.2658
55.2616
55.2575
55.2534
55.2492
55.2451
55.241
55.2368
55.2327
55.2286
55.2244
55.2203
55.2162
55.212
55.2079
55.2038
55.1996
55.1955
55.1913
55.1872
55.183
55.1789
55.1747
55.1706
55.1664
55.1623
55.1581
55.1539
55.1498
55.1456
55.1414
55.1373
55.1331
55.1289
55.1247
55.1205
55.1163
55.1121
55.108
55.1038
55.0996
55.0953
55.0911
55.0869
55.0827
55.0785
55.0743
55.07
55.0658
55.0616
55.0573
55.0531
55.0489
55.0446
55.0404
55.0361
55.0318
55.0276
55.0233
55.019
55.0148
55.0105
55.0062
55.0019
54.9976
54.9933
54.989
54.9847
54.9804
54.9761
54.9718
54.9675
54.9632
54.9588
54.9545
54.9502
54.9458
54.9415
54.9371
54.9328
54.9284
54.9241
54.9197
54.9154
54.911
54.9066
54.9023
54.8979
54.8935
54.8891
54.8847
54.8803
54.8759
54.8716
54.8672
54.8628
54.8583
54.8539
54.8495
54.8451
54.8407
54.8363
54.8319
54.8274
54.823
54.8186
54.8142
54.8097
54.8053
54.8009
54.7964
54.792
54.7875
54.7831
54.7786
54.7742
54.7697
54.7653
54.7608
54.7564
54.7519
54.7475
54.743
54.7385
54.7341
54.7296
54.7251
54.7207
54.7162
54.7162
56.8073
56.8073
56.5798
56.5307
56.5083
56.493
56.4805
56.4695
56.4593
56.4497
56.4404
56.4315
56.4228
56.4144
56.4062
56.3981
56.3903
56.3826
56.375
56.3677
56.3605
56.3534
56.3465
56.3397
56.333
56.3265
56.3201
56.3138
56.3077
56.3018
56.296
56.2903
56.2848
56.2795
56.2743
56.2692
56.2642
56.2593
56.2544
56.2495
56.2447
56.2399
56.2351
56.2304
56.2257
56.2211
56.2165
56.2121
56.2076
56.2032
56.1989
56.1946
56.1902
56.1859
56.1816
56.1773
56.1731
56.1688
56.1645
56.1602
56.1559
56.1516
56.1473
56.143
56.1387
56.1345
56.1302
56.1259
56.1216
56.1173
56.113
56.1087
56.1044
56.1002
56.0959
56.0916
56.0873
56.083
56.0787
56.0744
56.0701
56.0659
56.0616
56.0573
56.053
56.0487
56.0444
56.0401
56.0359
56.0316
56.0273
56.023
56.0187
56.0144
56.0101
56.0059
56.0016
55.9973
55.993
55.9887
55.9844
55.9801
55.9759
55.9716
55.9673
55.963
55.9587
55.9544
55.9501
55.9459
55.9416
55.9373
55.933
55.9287
55.9244
55.9202
55.9159
55.9116
55.9073
55.903
55.8987
55.8945
55.8902
55.8859
55.8816
55.8773
55.8731
55.8688
55.8645
55.8602
55.8559
55.8517
55.8474
55.8431
55.8388
55.8345
55.8303
55.826
55.8217
55.8174
55.8132
55.8089
55.8046
55.8003
55.7961
55.7918
55.7875
55.7832
55.779
55.7747
55.7704
55.7661
55.7619
55.7576
55.7533
55.749
55.7448
55.7405
55.7362
55.732
55.7277
55.7234
55.7192
55.7149
55.7106
55.7064
55.7021
55.6979
55.6936
55.6893
55.6851
55.6808
55.6765
55.6723
55.668
55.6638
55.6595
55.6553
55.651
55.6468
55.6425
55.6383
55.634
55.6298
55.6255
55.6213
55.617
55.6128
55.6085
55.6043
55.6
55.5958
55.5916
55.5873
55.5831
55.5789
55.5746
55.5704
55.5662
55.5619
55.5577
55.5535
55.5493
55.545
55.5408
55.5366
55.5324
55.5282
55.5239
55.5197
55.5155
55.5113
55.5071
55.5029
55.4987
55.4945
55.4903
55.4861
55.4819
55.4777
55.4735
55.4693
55.4651
55.4609
55.4567
55.4525
55.4484
55.4442
55.44
55.4358
55.4316
55.4275
55.4233
55.4191
55.4149
55.4108
55.4066
55.4024
55.3983
55.3941
55.39
55.3858
55.3817
55.3775
55.3733
55.3692
55.365
55.3609
55.3568
55.3526
55.3485
55.3443
55.3402
55.336
55.3319
55.3278
55.3236
55.3195
55.3153
55.3112
55.3071
55.3029
55.2988
55.2947
55.2906
55.2864
55.2823
55.2782
55.274
55.2699
55.2658
55.2616
55.2575
55.2534
55.2492
55.2451
55.241
55.2368
55.2327
55.2286
55.2244
55.2203
55.2162
55.212
55.2079
55.2038
55.1996
55.1955
55.1913
55.1872
55.183
55.1789
55.1747
55.1706
55.1664
55.1623
55.1581
55.1539
55.1498
55.1456
55.1414
55.1373
55.1331
55.1289
55.1247
55.1205
55.1163
55.1121
55.108
55.1038
55.0996
55.0953
55.0911
55.0869
55.0827
55.0785
55.0743
55.07
55.0658
55.0616
55.0573
55.0531
55.0489
55.0446
55.0404
55.0361
55.0318
55.0276
55.0233
55.019
55.0148
55.0105
55.0062
55.0019
54.9976
54.9933
54.989
54.9847
54.9804
54.9761
54.9718
54.9675
54.9632
54.9588
54.9545
54.9502
54.9458
54.9415
54.9371
54.9328
54.9284
54.9241
54.9197
54.9154
54.911
54.9066
54.9023
54.8979
54.8935
54.8891
54.8847
54.8803
54.8759
54.8716
54.8672
54.8628
54.8583
54.8539
54.8495
54.8451
54.8407
54.8363
54.8319
54.8274
54.823
54.8186
54.8142
54.8097
54.8053
54.8009
54.7964
54.792
54.7875
54.7831
54.7786
54.7742
54.7697
54.7653
54.7608
54.7564
54.7519
54.7475
54.743
54.7385
54.7341
54.7296
54.7251
54.7207
54.7162
54.7162
56.7933
56.7933
56.5824
56.5318
56.5089
56.4934
56.4808
56.4697
56.4595
56.4498
56.4405
56.4316
56.4229
56.4144
56.4062
56.3982
56.3903
56.3826
56.3751
56.3677
56.3605
56.3534
56.3465
56.3397
56.333
56.3265
56.3201
56.3138
56.3077
56.3018
56.296
56.2903
56.2848
56.2795
56.2743
56.2692
56.2642
56.2593
56.2544
56.2496
56.2447
56.2399
56.2351
56.2304
56.2257
56.2211
56.2165
56.2121
56.2076
56.2032
56.1989
56.1946
56.1902
56.1859
56.1816
56.1773
56.1731
56.1688
56.1645
56.1602
56.1559
56.1516
56.1473
56.143
56.1387
56.1345
56.1302
56.1259
56.1216
56.1173
56.113
56.1087
56.1044
56.1002
56.0959
56.0916
56.0873
56.083
56.0787
56.0744
56.0701
56.0659
56.0616
56.0573
56.053
56.0487
56.0444
56.0401
56.0359
56.0316
56.0273
56.023
56.0187
56.0144
56.0101
56.0059
56.0016
55.9973
55.993
55.9887
55.9844
55.9801
55.9759
55.9716
55.9673
55.963
55.9587
55.9544
55.9501
55.9459
55.9416
55.9373
55.933
55.9287
55.9244
55.9202
55.9159
55.9116
55.9073
55.903
55.8987
55.8945
55.8902
55.8859
55.8816
55.8773
55.8731
55.8688