# vtk DataFile Version 2.0
FlowField
ASCII
DATASET STRUCTURED_GRID
DIMENSIONS 400 1 200
POINTS 80000 float
0 0 0
0.08 0 0
0.16 0 0
0.24 0 0
0.32 0 0
0.4 0 0
0.48 0 0
0.56 0 0
0.64 0 0
0.72 0 0
0.8 0 0
0.88 0 0
0.96 0 0
1.04 0 0
1.12 0 0
1.2 0 0
1.28 0 0
1.36 0 0
1.44 0 0
1.52 0 0
1.6 0 0
1.68 0 0
1.76 0 0
1.84 0 0
1.92 0 0
2 0 0
2.08 0 0
2.16 0 0
2.24 0 0
2.32 0 0
2.4 0 0
2.48 0 0
2.56 0 0
2.64 0 0
2.72 0 0
2.8 0 0
2.88 0 0
2.96 0 0
3.04 0 0
3.12 0 0
3.2 0 0
3.28 0 0
3.36 0 0
3.44 0 0
3.52 0 0
3.6 0 0
3.68 0 0
3.76 0 0
3.84 0 0
3.92 0 0
4 0 0
4.08 0 0
4.16 0 0
4.24 0 0
4.32 0 0
4.4 0 0
4.48 0 0
4.56 0 0
4.64 0 0
4.72 0 0
4.8 0 0
4.88 0 0
4.96 0 0
5.04 0 0
5.12 0 0
5.2 0 0
5.28 0 0
5.36 0 0
5.44 0 0
5.52 0 0
5.6 0 0
5.68 0 0
5.76 0 0
5.84 0 0
5.92 0 0
6 0 0
6.08 0 0
6.16 0 0
6.24 0 0
6.32 0 0
6.4 0 0
6.48 0 0
6.56 0 0
6.64 0 0
6.72 0 0
6.8 0 0
6.88 0 0
6.96 0 0
7.04 0 0
7.12 0 0
7.2 0 0
7.28 0 0
7.36 0 0
7.44 0 0
7.52 0 0
7.6 0 0
7.68 0 0
7.76 0 0
7.84 0 0
7.92 0 0
8 0 0
8.08 0 0
8.16 0 0
8.24 0 0
8.32 0 0
8.4 0 0
8.48 0 0
8.56 0 0
8.64 0 0
8.72 0 0
8.8 0 0
8.88 0 0
8.96 0 0
9.04 0 0
9.12 0 0
9.2 0 0
9.28 0 0
9.36 0 0
9.44 0 0
9.52 0 0
9.6 0 0
9.68 0 0
9.76 0 0
9.84 0 0
9.92 0 0
10 0 0
10.08 0 0
10.16 0 0
10.24 0 0
10.32 0 0
10.4 0 0
10.48 0 0
10.56 0 0
10.64 0 0
10.72 0 0
10.8 0 0
10.88 0 0
10.96 0 0
11.04 0 0
11.12 0 0
11.2 0 0
11.28 0 0
11.36 0 0
11.44 0 0
11.52 0 0
11.6 0 0
11.68 0 0
11.76 0 0
11.84 0 0
11.92 0 0
12 0 0
12.08 0 0
12.16 0 0
12.24 0 0
12.32 0 0
12.4 0 0
12.48 0 0
12.56 0 0
12.64 0 0
12.72 0 0
12.8 0 0
12.88 0 0
12.96 0 0
13.04 0 0
13.12 0 0
13.2 0 0
13.28 0 0
13.36 0 0
13.44 0 0
13.52 0 0
13.6 0 0
13.68 0 0
13.76 0 0
13.84 0 0
13.92 0 0
14 0 0
14.08 0 0
14.16 0 0
14.24 0 0
14.32 0 0
14.4 0 0
14.48 0 0
14.56 0 0
14.64 0 0
14.72 0 0
14.8 0 0
14.88 0 0
14.96 0 0
15.04 0 0
15.12 0 0
15.2 0 0
15.28 0 0
15.36 0 0
15.44 0 0
15.52 0 0
15.6 0 0
15.68 0 0
15.76 0 0
15.84 0 0
15.92 0 0
16 0 0
16.08 0 0
16.16 0 0
16.24 0 0
16.32 0 0
16.4 0 0
16.48 0 0
16.56 0 0
16.64 0 0
16.72 0 0
16.8 0 0
16.88 0 0
16.96 0 0
17.04 0 0
17.12 0 0
17.2 0 0
17.28 0 0
17.36 0 0
17.44 0 0
17.52 0 0
17.6 0 0
17.68 0 0
17.76 0 0
17.84 0 0
17.92 0 0
18 0 0
18.08 0 0
18.16 0 0
18.24 0 0
18.32 0 0
18.4 0 0
18.48 0 0
18.56 0 0
18.64 0 0
18.72 0 0
18.8 0 0
18.88 0 0
18.96 0 0
19.04 0 0
19.12 0 0
19.2 0 0
19.28 0 0
19.36 0 0
19.44 0 0
19.52 0 0
19.6 0 0
19.68 0 0
19.76 0 0
19.84 0 0
19.92 0 0
20 0 0
20.08 0 0
20.16 0 0
20.24 0 0
20.32 0 0
20.4 0 0
20.48 0 0
20.56 0 0
20.64 0 0
20.72 0 0
20.8 0 0
20.88 0 0
20.96 0 0
21.04 0 0
21.12 0 0
21.2 0 0
21.28 0 0
21.36 0 0
21.44 0 0
21.52 0 0
21.6 0 0
21.68 0 0
21.76 0 0
21.84 0 0
21.92 0 0
22 0 0
22.08 0 0
22.16 0 0
22.24 0 0
22.32 0 0
22.4 0 0
22.48 0 0
22.56 0 0
22.64 0 0
22.72 0 0
22.8 0 0
22.88 0 0
22.96 0 0
23.04 0 0
23.12 0 0
23.2 0 0
23.28 0 0
23.36 0 0
23.44 0 0
23.52 0 0
23.6 0 0
23.68 0 0
23.76 0 0
23.84 0 0
23.92 0 0
24 0 0
24.08 0 0
24.16 0 0
24.24 0 0
24.32 0 0
24.4 0 0
24.48 0 0
24.56 0 0
24.64 0 0
24.72 0 0
24.8 0 0
24.88 0 0
24.96 0 0
25.04 0 0
25.12 0 0
25.2 0 0
25.28 0 0
25.36 0 0
25.44 0 0
25.52 0 0
25.6 0 0
25.68 0 0
25.76 0 0
25.84 0 0
25.92 0 0
26 0 0
26.08 0 0
26.16 0 0
26.24 0 0
26.32 0 0
26.4 0 0
26.48 0 0
26.56 0 0
26.64 0 0
26.72 0 0
26.8 0 0
26.88 0 0
26.96 0 0
27.04 0 0
27.12 0 0
27.2 0 0
27.28 0 0
27.36 0 0
27.44 0 0
27.52 0 0
27.6 0 0
27.68 0 0
27.76 0 0
27.84 0 0
27.92 0 0
28 0 0
28.08 0 0
28.16 0 0
28.24 0 0
28.32 0 0
28.4 0 0
28.48 0 0
28.56 0 0
28.64 0 0
28.72 0 0
28.8 0 0
28.88 0 0
28.96 0 0
29.04 0 0
29.12 0 0
29.2 0 0
29.28 0 0
29.36 0 0
29.44 0 0
29.52 0 0
29.6 0 0
29.68 0 0
29.76 0 0
29.84 0 0
29.92 0 0
30 0 0
30.08 0 0
30.16 0 0
30.24 0 0
30.32 0 0
30.4 0 0
30.48 0 0
30.56 0 0
30.64 0 0
30.72 0 0
30.8 0 0
30.88 0 0
30.96 0 0
31.04 0 0
31.12 0 0
31.2 0 0
31.28 0 0
31.36 0 0
31.44 0 0
31.52 0 0
31.6 0 0
31.68 0 0
31.76 0 0
31.84 0 0
31.92 0 0
0 0.005 0
0.08 0.005 0
0.16 0.005 0
0.24 0.005 0
0.32 0.005 0
0.4 0.005 0
0.48 0.005 0
0.56 0.005 0
0.64 0.005 0
0.72 0.005 0
0.8 0.005 0
0.88 0.005 0
0.96 0.005 0
1.04 0.005 0
1.12 0.005 0
1.2 0.005 0
1.28 0.005 0
1.36 0.005 0
1.44 0.005 0
1.52 0.005 0
1.6 0.005 0
1.68 0.005 0
1.76 0.005 0
1.84 0.005 0
1.92 0.005 0
2 0.005 0
2.08 0.005 0
2.16 0.005 0
2.24 0.005 0
2.32 0.005 0
2.4 0.005 0
2.48 0.005 0
2.56 0.005 0
2.64 0.005 0
2.72 0.005 0
2.8 0.005 0
2.88 0.005 0
2.96 0.005 0
3.04 0.005 0
3.12 0.005 0
3.2 0.005 0
3.28 0.005 0
3.36 0.005 0
3.44 0.005 0
3.52 0.005 0
3.6 0.005 0
3.68 0.005 0
3.76 0.005 0
3.84 0.005 0
3.92 0.005 0
4 0.005 0
4.08 0.005 0
4.16 0.005 0
4.24 0.005 0
4.32 0.005 0
4.4 0.005 0
4.48 0.005 0
4.56 0.005 0
4.64 0.005 0
4.72 0.005 0
4.8 0.005 0
4.88 0.005 0
4.96 0.005 0
5.04 0.005 0
5.12 0.005 0
5.2 0.005 0
5.28 0.005 0
5.36 0.005 0
5.44 0.005 0
5.52 0.005 0
5.6 0.005 0
5.68 0.005 0
5.76 0.005 0
5.84 0.005 0
5.92 0.005 0
6 0.005 0
6.08 0.005 0
6.16 0.005 0
6.24 0.005 0
6.32 0.005 0
6.4 0.005 0
6.48 0.005 0
6.56 0.005 0
6.64 0.005 0
6.72 0.005 0
6.8 0.005 0
6.88 0.005 0
6.96 0.005 0
7.04 0.005 0
7.12 0.005 0
7.2 0.005 0
7.28 0.005 0
7.36 0.005 0
7.44 0.005 0
7.52 0.005 0
7.6 0.005 0
7.68 0.005 0
7.76 0.005 0
7.84 0.005 0
7.92 0.005 0
8 0.005 0
8.08 0.005 0
8.16 0.005 0
8.24 0.005 0
8.32 0.005 0
8.4 0.005 0
8.48 0.005 0
8.56 0.005 0
8.64 0.005 0
8.72 0.005 0
8.8 0.005 0
8.88 0.005 0
8.96 0.005 0
9.04 0.005 0
9.12 0.005 0
9.2 0.005 0
9.28 0.005 0
9.36 0.005 0
9.44 0.005 0
9.52 0.005 0
9.6 0.005 0
9.68 0.005 0
9.76 0.005 0
9.84 0.005 0
9.92 0.005 0
10 0.005 0
10.08 0.005 0
10.16 0.005 0
10.24 0.005 0
10.32 0.005 0
10.4 0.005 0
10.48 0.005 0
10.56 0.005 0
10.64 0.005 0
10.72 0.005 0
10.8 0.005 0
10.88 0.005 0
10.96 0.005 0
11.04 0.005 0
11.12 0.005 0
11.2 0.005 0
11.28 0.005 0
11.36 0.005 0
11.44 0.005 0
11.52 0.005 0
11.6 0.005 0
11.68 0.005 0
11.76 0.005 0
11.84 0.005 0
11.92 0.005 0
12 0.005 0
12.08 0.005 0
12.16 0.005 0
12.24 0.005 0
12.32 0.005 0
12.4 0.005 0
12.48 0.005 0
12.56 0.005 0
12.64 0.005 0
12.72 0.005 0
12.8 0.005 0
12.88 0.005 0
12.96 0.005 0
13.04 0.005 0
13.12 0.005 0
13.2 0.005 0
13.28 0.005 0
13.36 0.005 0
13.44 0.005 0
13.52 0.005 0
13.6 0.005 0
13.68 0.005 0
13.76 0.005 0
13.84 0.005 0
13.92 0.005 0
14 0.005 0
14.08 0.005 0
14.16 0.005 0
14.24 0.005 0
14.32 0.005 0
14.4 0.005 0
14.48 0.005 0
14.56 0.005 0
14.64 0.005 0
14.72 0.005 0
14.8 0.005 0
14.88 0.005 0
14.96 0.005 0
15.04 0.005 0
15.12 0.005 0
15.2 0.005 0
15.28 0.005 0
15.36 0.005 0
15.44 0.005 0
15.52 0.005 0
15.6 0.005 0
15.68 0.005 0
15.76 0.005 0
15.84 0.005 0
15.92 0.005 0
16 0.005 0
16.08 0.005 0
16.16 0.005 0
16.24 0.005 0
16.32 0.005 0
16.4 0.005 0
16.48 0.005 0
16.56 0.005 0
16.64 0.005 0
16.72 0.005 0
16.8 0.005 0
16.88 0.005 0
16.96 0.005 0
17.04 0.005 0
17.12 0.005 0
17.2 0.005 0
17.28 0.005 0
17.36 0.005 0
17.44 0.005 0
17.52 0.005 0
17.6 0.005 0
17.68 0.005 0
17.76 0.005 0
17.84 0.005 0
17.92 0.005 0
18 0.005 0
18.08 0.005 0
18.16 0.005 0
18.24 0.005 0
18.32 0.005 0
18.4 0.005 0
18.48 0.005 0
18.56 0.005 0
18.64 0.005 0
18.72 0.005 0
18.8 0.005 0
18.88 0.005 0
18.96 0.005 0
19.04 0.005 0
19.12 0.005 0
19.2 0.005 0
19.28 0.005 0
19.36 0.005 0
19.44 0.005 0
19.52 0.005 0
19.6 0.005 0
19.68 0.005 0
19.76 0.005 0
19.84 0.005 0
19.92 0.005 0
20 0.005 0
20.08 0.005 0
20.16 0.005 0
20.24 0.005 0
20.32 0.005 0
20.4 0.005 0
20.48 0.005 0
20.56 0.005 0
20.64 0.005 0
20.72 0.005 0
20.8 0.005 0
20.88 0.005 0
20.96 0.005 0
21.04 0.005 0
21.12 0.005 0
21.2 0.005 0
21.28 0.005 0
21.36 0.005 0
21.44 0.005 0
21.52 0.005 0
21.6 0.005 0
21.68 0.005 0
21.76 0.005 0
21.84 0.005 0
21.92 0.005 0
22 0.005 0
22.08 0.005 0
22.16 0.005 0
22.24 0.005 0
22.32 0.005 0
22.4 0.005 0
22.48 0.005 0
22.56 0.005 0
22.64 0.005 0
22.72 0.005 0
22.8 0.005 0
22.88 0.005 0
22.96 0.005 0
23.04 0.005 0
23.12 0.005 0
23.2 0.005 0
23.28 0.005 0
23.36 0.005 0
23.44 0.005 0
23.52 0.005 0
23.6 0.005 0
23.68 0.005 0
23.76 0.005 0
23.84 0.005 0
23.92 0.005 0
24 0.005 0
24.08 0.005 0
24.16 0.005 0
24.24 0.005 0
24.32 0.005 0
24.4 0.005 0
24.48 0.005 0
24.56 0.005 0
24.64 0.005 0
24.72 0.005 0
24.8 0.005 0
24.88 0.005 0
24.96 0.005 0
25.04 0.005 0
25.12 0.005 0
25.2 0.005 0
25.28 0.005 0
25.36 0.005 0
25.44 0.005 0
25.52 0.005 0
25.6 0.005 0
25.68 0.005 0
25.76 0.005 0
25.84 0.005 0
25.92 0.005 0
26 0.005 0
26.08 0.005 0
26.16 0.005 0
26.24 0.005 0
26.32 0.005 0
26.4 0.005 0
26.48 0.005 0
26.56 0.005 0
26.64 0.005 0
26.72 0.005 0
26.8 0.005 0
26.88 0.005 0
26.96 0.005 0
27.04 0.005 0
27.12 0.005 0
27.2 0.005 0
27.28 0.005 0
27.36 0.005 0
27.44 0.005 0
27.52 0.005 0
27.6 0.005 0
27.68 0.005 0
27.76 0.005 0
27.84 0.005 0
27.92 0.005 0
28 0.005 0
28.08 0.005 0
28.16 0.005 0
28.24 0.005 0
28.32 0.005 0
28.4 0.005 0
28.48 0.005 0
28.56 0.005 0
28.64 0.005 0
28.72 0.005 0
28.8 0.005 0
28.88 0.005 0
28.96 0.005 0
29.04 0.005 0
29.12 0.005 0
29.2 0.005 0
29.28 0.005 0
29.36 0.005 0
29.44 0.005 0
29.52 0.005 0
29.6 0.005 0
29.68 0.005 0
29.76 0.005 0
29.84 0.005 0
29.92 0.005 0
30 0.005 0
30.08 0.005 0
30.16 0.005 0
30.24 0.005 0
30.32 0.005 0
30.4 0.005 0
30.48 0.005 0
30.56 0.005 0
30.64 0.005 0
30.72 0.005 0
30.8 0.005 0
30.88 0.005 0
30.96 0.005 0
31.04 0.005 0
31.12 0.005 0
31.2 0.005 0
31.28 0.005 0
31.36 0.005 0
31.44 0.005 0
31.52 0.005 0
31.6 0.005 0
31.68 0.005 0
31.76 0.005 0
31.84 0.005 0
31.92 0.005 0
0 0.01 0
0.08 0.01 0
0.16 0.01 0
0.24 0.01 0
0.32 0.01 0
0.4 0.01 0
0.48 0.01 0
0.56 0.01 0
0.64 0.01 0
0.72 0.01 0
0.8 0.01 0
0.88 0.01 0
0.96 0.01 0
1.04 0.01 0
1.12 0.01 0
1.2 0.01 0
1.28 0.01 0
1.36 0.01 0
1.44 0.01 0
1.52 0.01 0
1.6 0.01 0
1.68 0.01 0
1.76 0.01 0
1.84 0.01 0
1.92 0.01 0
2 0.01 0
2.08 0.01 0
2.16 0.01 0
2.24 0.01 0
2.32 0.01 0
2.4 0.01 0
2.48 0.01 0
2.56 0.01 0
2.64 0.01 0
2.72 0.01 0
2.8 0.01 0
2.88 0.01 0
2.96 0.01 0
3.04 0.01 0
3.12 0.01 0
3.2 0.01 0
3.28 0.01 0
3.36 0.01 0
3.44 0.01 0
3.52 0.01 0
3.6 0.01 0
3.68 0.01 0
3.76 0.01 0
3.84 0.01 0
3.92 0.01 0
4 0.01 0
4.08 0.01 0
4.16 0.01 0
4.24 0.01 0
4.32 0.01 0
4.4 0.01 0
4.48 0.01 0
4.56 0.01 0
4.64 0.01 0
4.72 0.01 0
4.8 0.01 0
4.88 0.01 0
4.96 0.01 0
5.04 0.01 0
5.12 0.01 0
[...]
POINT_DATA 80000

SCALARS u float 1
LOOKUP_TABLE default
0
-0.131767
-0.0683622
-0.0530491
-0.0470867
-0.0449535
-0.0443758
-0.0443161
-0.0443916
-0.0444898
-0.044584
-0.0446701
-0.0447491
-0.0448228
-0.0448928
-0.0449602
-0.0450261
-0.045091
-0.0451553
-0.0452194
-0.0452834
-0.0453475
-0.0454117
-0.0454762
-0.045541
-0.045606
-0.0456714
-0.0457371
-0.0458031
-0.0458695
-0.0459362
-0.0460032
-0.0460706
-0.0461384
-0.0462065
-0.046275
-0.0463438
-0.046413
-0.0464826
-0.0465525
-0.0466228
-0.0466935
-0.0467646
-0.046836
-0.0469079
-0.0469801
-0.0470527
-0.0471257
-0.0471991
-0.0472729
-0.0473471
-0.0474217
-0.0474967
-0.0475721
-0.0476479
-0.0477242
-0.0478008
-0.0478779
-0.0479555
-0.0480335
-0.0481119
-0.0481907
-0.04827
-0.0483498
-0.04843
-0.0485107
-0.0485919
-0.0486735
-0.0487556
-0.0488382
-0.0489213
-0.0490049
-0.049089
-0.0491736
-0.0492588
-0.0493444
-0.0494306
-0.0495173
-0.0496046
-0.0496924
-0.0497808
-0.0498697
-0.0499592
-0.0500492
-0.0501398
-0.0502311
-0.0503229
-0.0504153
-0.0505083
-0.0506019
-0.0506961
-0.0507909
-0.0508864
-0.0509825
-0.0510792
-0.0511765
-0.0512746
-0.0513732
-0.0514726
-0.0515725
-0.0516732
-0.0517746
-0.0518766
-0.0519793
-0.0520828
-0.0521869
-0.0522918
-0.0523974
-0.0525037
-0.0526108
-0.0527186
-0.0528272
-0.0529365
-0.0530467
-0.0531576
-0.0532693
-0.0533818
-0.0534951
-0.0536093
-0.0537243
-0.0538401
-0.0539568
-0.0540744
-0.0541929
-0.0543122
-0.0544324
-0.0545536
-0.0546757
-0.0547987
-0.0549226
-0.0550476
-0.0551735
-0.0553003
-0.0554282
-0.0555571
-0.055687
-0.055818
-0.05595
-0.0560831
-0.0562173
-0.0563526
-0.0564889
-0.0566265
-0.0567651
-0.0569049
-0.0570459
-0.0571881
-0.0573315
-0.0574761
-0.057622
-0.0577691
-0.0579175
-0.0580672
-0.0582183
-0.0583706
-0.0585244
-0.0586795
-0.058836
-0.0589939
-0.0591533
-0.0593141
-0.0594764
-0.0596403
-0.0598056
-0.0599726
-0.0601411
-0.0603112
-0.0604829
-0.0606564
-0.0608315
-0.0610083
-0.0611868
-0.0613672
-0.0615493
-0.0617333
-0.0619192
-0.0621069
-0.0622966
-0.0624882
-0.0626819
-0.0628775
-0.0630753
-0.0632751
-0.0634771
-0.0636813
-0.0638877
-0.0640964
-0.0643073
-0.0645207
-0.0647364
-0.0649545
-0.0651752
-0.0653984
-0.0656241
-0.0658526
-0.0660836
-0.0663175
-0.0665541
-0.0667936
-0.067036
-0.0672814
-0.0675298
-0.0677813
-0.0680359
-0.0682938
-0.068555
-0.0688196
-0.0690876
-0.0693592
-0.0696344
-0.0699132
-0.0701958
-0.0704823
-0.0707727
-0.0710672
-0.0713658
-0.0716687
-0.0719759
-0.0722875
-0.0726037
-0.0729246
-0.0732503
-0.0735809
-0.0739166
-0.0742574
-0.0746035
-0.0749551
-0.0753124
-0.0756754
-0.0760443
-0.0764193
-0.0768006
-0.0771884
-0.0775827
-0.077984
-0.0783923
-0.0788079
-0.0792309
-0.0796617
-0.0801005
-0.0805475
-0.0810031
-0.0814675
-0.0819409
-0.0824239
-0.0829165
-0.0834193
-0.0839326
-0.0844568
-0.0849923
-0.0855395
-0.086099
-0.0866711
-0.0872565
-0.0878558
-0.0884694
-0.0890981
-0.0897425
-0.0904034
-0.0910816
-0.0917779
-0.0924932
-0.0932284
-0.0939847
-0.0947631
-0.0955649
-0.0963913
-0.0972436
-0.0981235
-0.0990324
-0.099972
-0.100944
-0.101951
-0.102994
-0.104075
-0.105197
-0.106362
-0.107573
-0.108831
-0.110139
-0.1115
-0.112916
-0.114389
-0.115921
-0.117514
-0.119171
-0.120891
-0.122676
-0.124527
-0.126443
-0.128423
-0.130465
-0.132565
-0.134721
-0.136927
-0.139176
-0.141461
-0.143771
-0.146096
-0.148422
-0.150736
-0.153021
-0.155259
-0.15743
-0.159514
-0.161488
-0.163329
-0.165012
-0.166511
-0.167803
-0.16886
-0.169659
-0.170176
-0.170388
-0.170276
-0.169819
-0.169004
-0.167818
-0.166253
-0.164303
-0.161968
-0.159252
-0.156163
-0.152713
-0.148919
-0.144802
-0.140386
-0.135698
-0.13077
-0.125635
-0.120327
-0.114882
-0.109338
-0.10373
-0.0980963
-0.0924708
-0.0868874
-0.081378
-0.075972
-0.070696
-0.065574
-0.0606267
-0.055872
-0.0513244
-0.0469954
-0.0428934
-0.0390241
-0.0353904
-0.0319927
-0.0288292
-0.025896
-0.0231876
-0.0206968
-0.0184152
-0.0163336
-0.0144417
-0.0127288
-0.011184
-0.00979582
-0.00855314
-0.00744478
-0.00645982
-0.0055877
-0.00481825
-0.00414182
-0.00354927
-0.00303202
-0.0025821
-0.00219209
-0.00185519
-0.00156518
-0.00131639
-0.00110368
-0.000922451
-0.000768561
-0.000638328
-0.000528489
-0.000436158
-0.000358808
-0.00029422
-0.000240473
-0.000195891
-0.000159037
-0.00012867
-0.000103732
-8.33188e-05
-6.66669e-05
-5.31251e-05
-4.21531e-05
-3.32898e-05
-2.61588e-05
-2.0439e-05
-1.58728e-05
-1.22402e-05
-9.36894e-06
-7.11093e-06
-5.35466e-06
-3.99403e-06
-3.99403e-06
-3.99403e-06
1
0.131767
0.0683622
0.0530491
0.0470867
0.0449535
0.0443758
0.0443161
0.0443916
0.0444898
0.044584
0.0446701
0.0447491
0.0448228
0.0448928
0.0449602
0.0450261
0.045091
0.0451553
0.0452194
0.0452834
0.0453475
0.0454117
0.0454762
0.045541
0.045606
0.0456714
0.0457371
0.0458031
0.0458695
0.0459362
0.0460032
0.0460706
0.0461384
0.0462065
0.046275
0.0463438
0.046413
0.0464826
0.0465525
0.0466228
0.0466935
0.0467646
0.046836
0.0469079
0.0469801
0.0470527
0.0471257
0.0471991
0.0472729
0.0473471
0.0474217
0.0474967
0.0475721
0.0476479
0.0477242
0.0478008
0.0478779
0.0479555
0.0480335
0.0481119
0.0481907
0.04827
0.0483498
0.04843
0.0485107
0.0485919
0.0486735
0.0487556
0.0488382
0.0489213
0.0490049
0.049089
0.0491736
0.0492588
0.0493444
0.0494306
0.0495173
0.0496046
0.0496924
0.0497808
0.0498697
0.0499592
0.0500492
0.0501398
0.0502311
0.0503229
0.0504153
0.0505083
0.0506019
0.0506961
0.0507909
0.0508864
0.0509825
0.0510792
0.0511765
0.0512746
0.0513732
0.0514726
0.0515725
0.0516732
0.0517746
0.0518766
0.0519793
0.0520828
0.0521869
0.0522918
0.0523974
0.0525037
0.0526108
0.0527186
0.0528272
0.0529365
0.0530467
0.0531576
0.0532693
0.0533818
0.0534951
0.0536093
0.0537243
0.0538401
0.0539568
0.0540744
0.0541929
0.0543122
0.0544324
0.0545536
0.0546757
0.0547987
0.0549226
0.0550476
0.0551735
0.0553003
0.0554282
0.0555571
0.055687
0.055818
0.05595
0.0560831
0.0562173
0.0563526
0.0564889
0.0566265
0.0567651
0.0569049
0.0570459
0.0571881
0.0573315
0.0574761
0.057622
0.0577691
0.0579175
0.0580672
0.0582183
0.0583706
0.0585244
0.0586795
0.058836
0.0589939
0.0591533
0.0593141
0.0594764
0.0596403
0.0598056
0.0599726
0.0601411
0.0603112
0.0604829
0.0606564
0.0608315
0.0610083
0.0611868
0.0613672
0.0615493
0.0617333
0.0619192
0.0621069
0.0622966
0.0624882
0.0626819
0.0628775
0.0630753
0.0632751
0.0634771
0.0636813
0.0638877
0.0640964
0.0643073
0.0645207
0.0647364
0.0649545
0.0651752
0.0653984
0.0656241
0.0658526
0.0660836
0.0663175
0.0665541
0.0667936
0.067036
0.0672814
0.0675298
0.0677813
0.0680359
0.0682938
0.068555
0.0688196
0.0690876
0.0693592
0.0696344
0.0699132
0.0701958
0.0704823
0.0707727
0.0710672
0.0713658
0.0716687
0.0719759
0.0722875
0.0726037
0.0729246
0.0732503
0.0735809
0.0739166
0.0742574
0.0746035
0.0749551
0.0753124
0.0756754
0.0760443
0.0764193
0.0768006
0.0771884
0.0775827
0.077984
0.0783923
0.0788079
0.0792309
0.0796617
0.0801005
0.0805475
0.0810031
0.0814675
0.0819409
0.0824239
0.0829165
0.0834193
0.0839326
0.0844568
0.0849923
0.0855395
0.086099
0.0866711
0.0872565
0.0878558
0.0884694
0.0890981
0.0897425
0.0904034
0.0910816
0.0917779
0.0924932
0.0932284
0.0939847
0.0947631
0.0955649
0.0963913
0.0972436
0.0981235
0.0990324
0.099972
0.100944
0.101951
0.102994
0.104075
0.105197
0.106362
0.107573
0.108831
0.110139
0.1115
0.112916
0.114389
0.115921
0.117514
0.119171
0.120891
0.122676
0.124527
0.126443
0.128423
0.130465
0.132565
0.134721
0.136927
0.139176
0.141461
0.143771
0.146096
0.148422
0.150736
0.153021
0.155259
0.15743
0.159514
0.161488
0.163329
0.165012
0.166511
0.167803
0.16886
0.169659
0.170176
0.170388
0.170276
0.169819
0.169004
0.167818
0.166253
0.164303
0.161968
0.159252
0.156163
0.152713
0.148919
0.144802
0.140386
0.135698
0.13077
0.125635
0.120327
0.114882
0.109338
0.10373
0.0980963
0.0924708
0.0868874
0.081378
0.075972
0.070696
0.065574
0.0606267
0.055872
0.0513244
0.0469954
0.0428934
0.0390241
0.0353904
0.0319927
0.0288292
0.025896
0.0231876
0.0206968
0.0184152
0.0163336
0.0144417
0.0127288
0.011184
0.00979582
0.00855314
0.00744478
0.00645982
0.0055877
0.00481825
0.00414182
0.00354927
0.00303202
0.0025821
0.00219209
0.00185519
0.00156518
0.00131639
0.00110368
0.000922451
0.000768561
0.000638328
0.000528489
0.000436158
0.000358808
0.00029422
0.000240473
0.000195891
0.000159037
0.00012867
0.000103732
8.33188e-05
6.66669e-05
5.31251e-05
4.21531e-05
3.32898e-05
2.61588e-05
2.0439e-05
1.58728e-05
1.22402e-05
9.36894e-06
7.11093e-06
5.35466e-06
3.99403e-06
3.99403e-06
3.99403e-06
1
0.345108
0.200879
0.157386
0.14022
0.133997
0.13221
0.131927
0.132068
0.132303
0.132546
0.132778
0.132997
0.133206
0.133407
0.133602
0.133794
0.133983
0.134172
0.13436
0.134548
0.134736
0.134925
0.135114
0.135304
0.135495
0.135687
0.13588
0.136074
0.136269
0.136465
0.136662
0.13686
0.137059
0.137259
0.13746
0.137662
0.137866
0.13807
0.138275
0.138482
0.138689
0.138898
0.139108
0.139318
0.13953
0.139744
0.139958
0.140173
0.14039
0.140608
0.140827
0.141047
0.141268
0.141491
0.141714
0.141939
0.142165
0.142393
0.142622
0.142852
0.143083
0.143316
0.14355
0.143785
0.144021
0.144259
0.144499
0.14474
0.144982
0.145225
0.14547
0.145717
0.145965
0.146214
0.146465
0.146717
0.146971
0.147227
0.147484
0.147742
0.148003
0.148265
0.148528
0.148793
0.14906
0.149329
0.149599
0.149871
0.150145
0.15042
0.150697
0.150977
0.151257
0.15154
0.151825
0.152111
0.152399
0.15269
0.152982
0.153276
0.153572
0.15387
0.15417
0.154472
0.154776
0.155083
0.155391
0.155701
0.156014
0.156329
0.156646
0.156965
0.157286
0.15761
0.157936
0.158264
0.158595
0.158928
0.159263
0.159601
0.159941
0.160284
0.160629
0.160977
0.161328
0.161681
0.162036
0.162395
0.162756
0.16312
0.163487
0.163856
0.164229
0.164604
0.164982
0.165363
0.165747
0.166135
0.166525
0.166919
0.167315
0.167715
0.168118
0.168525
0.168935
0.169348
0.169765
0.170185
0.170609
0.171036
0.171467
0.171902
0.17234
0.172783
0.173229
0.173679
0.174133
0.174591
0.175053
0.17552
0.17599
0.176465
0.176945
0.177428
0.177917
0.178409
0.178907
0.179409
0.179916
0.180428
0.180944
0.181466
0.181993
0.182525
0.183063
0.183605
0.184153
0.184707
0.185266
0.185832
0.186403
0.186979
0.187562
0.188152
0.188747
0.189349
0.189957
0.190572
0.191193
0.191822
0.192457
0.1931
0.19375
0.194407
0.195072
0.195744
0.196424
0.197113
0.197809
0.198514
0.199227
0.199949
0.20068
0.201419
0.202168
0.202927
0.203695
0.204472
0.20526
0.206058
0.206867
0.207686
0.208516
0.209358
0.21021
0.211075
0.211952
0.212841
0.213742
0.214656
0.215584
0.216525
0.21748
0.218449
0.219433
0.220432
0.221446
0.222476
0.223522
0.224585
0.225665
0.226763
0.227878
0.229013
0.230166
0.231339
0.232532
0.233746
0.234982
0.23624
0.237521
0.238826
0.240154
0.241509
0.242889
0.244296
0.245731
0.247195
0.248689
0.250213
0.25177
0.253361
0.254985
0.256646
0.258344
0.260081
0.261859
0.263678
0.265542
0.267451
0.269408
0.271415
0.273473
0.275586
0.277756
0.279986
0.282277
0.284632
0.287056
0.28955
0.292117
0.294761
0.297484
0.30029
0.303181
0.306161
0.309232
0.312396
0.315655
0.319011
0.322465
0.326018
0.329668
0.333414
0.337254
0.341183
0.345197
0.349288
0.353447
0.357663
0.361922
0.36621
0.370507
0.374793
0.379043
0.383232
0.387329
0.391301
0.395114
0.398728
0.402104
0.405199
0.407966
0.410362
0.412337
0.413846
0.41484
0.415274
0.415104
0.414288
0.412789
0.410571
0.407608
0.403877
0.39936
0.394051
0.387948
0.381057
0.373395
0.364986
0.355861
0.346062
0.335634
0.324635
0.313124
0.301167
0.288836
0.276203
0.263345
0.250338
0.237258
0.224182
0.21118
0.198323
0.185676
0.173299
0.161246
0.149565
0.1383
0.127486
0.117152
0.107321
0.0980089
0.089227
0.0809799
0.0732671
0.0660836
0.05942
0.0532632
0.0475969
0.0424023
0.0376583
0.0333421
0.0294299
0.0258969
0.0227181
0.0198684
0.0173229
0.0150572
0.0130477
0.0112718
0.00970782
0.0083352
0.00713474
0.00608844
0.00517965
0.00439297
0.00371432
0.00313083
0.00263086
0.00220389
0.00184048
0.00153219
0.00127155
0.0010519
0.000867429
0.000712995
0.000584144
0.00047698
0.000388154
0.000314759
0.000254321
0.000204704
0.000164114
0.000131006
0.000104099
8.22933e-05
6.46901e-05
5.0517e-05
3.91556e-05
3.00709e-05
2.28453e-05
1.71137e-05
1.26012e-05
9.06246e-06
6.32234e-06
4.2028e-06
4.2028e-06
4.2028e-06
1
0.519043
0.327651
0.259406
0.231739
0.221507
0.218404
0.217778
0.217895
0.218207
0.218559
0.21891
0.21925
0.219579
0.219899
0.220212
0.220521
0.220827
0.221131
0.221435
0.221739
0.222044
0.222349
0.222656
0.222964
0.223273
0.223584
0.223896
0.22421
0.224525
0.224842
0.22516
0.225481
0.225802
0.226126
0.226451
0.226778
0.227106
0.227437
0.227768
0.228102
0.228438
0.228775
0.229114
0.229454
0.229797
0.230141
0.230487
0.230835
0.231185
0.231537
0.23189
0.232246
0.232603
0.232962
0.233323
0.233686
0.234051
0.234419
0.234788
0.235159
0.235532
0.235907
0.236284
0.236664
0.237045
0.237429
0.237815
0.238203
0.238593
0.238986
0.23938
0.239777
0.240177
0.240579
0.240983
0.241389
0.241798
0.242209
0.242623
0.243039
0.243458
0.243879
0.244303
0.24473
0.245159
0.24559
0.246025
0.246462
0.246902
0.247345
0.24779
0.248238
0.248689
0.249143
0.2496
0.25006
0.250523
0.250988
0.251457
0.251929
0.252404
0.252882
0.253363
0.253848
0.254335
0.254826
0.25532
0.255818
0.256319
0.256823
0.25733
0.257842
0.258356
0.258874
0.259396
0.259921
0.26045
0.260983
0.26152
0.26206
0.262604
0.263152
0.263704
0.26426
0.26482
0.265384
0.265952
0.266525
0.267101
0.267682
0.268267
0.268857
0.269451
0.27005
0.270653
0.271261
0.271873
0.27249
0.273112
0.273739
0.274371
0.275007
0.275649
0.276296
0.276948
0.277606
0.278268
0.278936
0.27961
0.280289
0.280974
0.281664
0.282361
0.283063
0.283771
0.284485
0.285205
0.285932
0.286665
0.287404
0.288149
0.288902
0.289661
0.290426
0.291199
0.291978
0.292765
0.293559
0.29436
0.295169
0.295985
0.296809
0.29764
0.29848
0.299328
0.300183
0.301047
0.30192
0.302801
0.303691
0.304589
0.305497
0.306413
0.30734
0.308275
0.30922
0.310175
0.31114
0.312115
0.313101
0.314097
0.315103
0.316121
0.31715
0.31819
0.319241
0.320304
0.32138
0.322467
0.323567
0.324679
0.325805
0.326943
0.328095
0.32926
0.33044
0.331634
0.332842
0.334065
0.335304
0.336557
0.337827
0.339112
0.340415
0.341734
0.34307
0.344424
0.345795
0.347185
0.348594
0.350022
0.35147
0.352938
0.354427
0.355937
0.357468
0.359022
0.360598
0.362198
0.363821
0.365469
0.367142
0.368841
0.370566
0.372319
0.374099
0.375908
0.377747
0.379615
0.381515
0.383447
0.385412
0.387411
0.389445
0.391514
0.393621
0.395766
0.397951
0.400176
0.402443
0.404754
0.407109
0.409511
0.41196
0.414459
0.417009
0.419612
0.42227
0.424984
0.427757
0.43059
0.433486
0.436447
0.439475
0.442572
0.445742
0.448984
0.452304
0.455701
0.459179
0.46274
0.466385
0.470117
0.473936
0.477843
0.48184
0.485925
0.490099
0.49436
0.498705
0.503132
0.507635
0.512208
0.516844
0.521533
0.526265
0.531025
0.535797
0.540564
0.545304
0.549994
0.554606
0.559111
0.563476
0.567664
0.571638
0.575353
0.578766
0.581828
0.58449
0.586701
0.588406
0.589553
0.590086
0.589953
0.589101
0.587481
0.585044
0.581748
0.577555
0.572433
0.566356
0.559306
0.551274
0.542258
0.532267
0.521319
0.509443
0.496675
0.483065
0.468667
0.453548
0.43778
0.421443
0.404624
0.387411
0.369899
0.352183
0.334359
0.316521
0.298762
0.281172
0.263836
0.246832
0.230235
0.214109
0.198513
0.183498
0.169105
0.15537
0.142317
0.129965
0.118325
0.1074
0.0971881
0.0876802
0.0788625
0.0707165
0.0632197
0.0563464
0.0500683
0.0443551
0.0391748
0.034495
0.0302823
0.0265038
0.0231266
0.0201187
0.0174491
0.015088
0.0130068
0.0111788
0.00957862
0.00818259
0.00696879
0.005917
0.00500863
0.00422677
0.00355603
0.00298253
0.00249379
0.00207867
0.00172722
0.00143067
0.00118124
0.000972151
0.00079743
0.000651919
0.000531111
0.000431152
0.000348695
0.000280911
0.000225352
0.000179977
0.000143021
0.000113036
8.87698e-05
6.92123e-05
5.34867e-05
4.09013e-05
3.085e-05
2.28695e-05
1.65459e-05
1.1577e-05
7.68437e-06
4.67783e-06
2.35135e-06
2.35135e-06
2.35135e-06
1
0.661169
0.447093
0.35839
0.321029
0.306827
0.302272
0.301172
0.301173
0.301502
0.301924
0.302366
0.302806
0.303238
0.303663
0.304081
0.304494
0.304904
0.305314
0.305722
0.306131
0.306541
0.306952
0.307365
0.307779
0.308195
0.308613
0.309033
0.309455
0.309879
0.310305
0.310733
0.311163
0.311596
0.31203
0.312467
0.312906
0.313347
0.313791
0.314237
0.314685
0.315135
0.315588
0.316043
0.3165
0.316959
0.317421
0.317886
0.318352
0.318821
0.319293
0.319767
0.320243
0.320722
0.321204
0.321688
0.322174
0.322663
0.323155
0.32365
0.324146
0.324646
0.325148
0.325653
0.326161
0.326672
0.327185
0.327701
0.32822
0.328742
0.329267
0.329795
0.330325
0.330859
0.331396
0.331935
0.332478
0.333024
0.333573
0.334125
0.334681
0.33524
0.335802
0.336367
0.336936
0.337508
0.338083
0.338662
0.339245
0.339831
0.34042
0.341013
0.34161
0.34221
0.342815
0.343422
0.344034
0.34465
0.345269
0.345892
0.346519
0.34715
0.347785
0.348424
0.349068
0.349715
0.350366
0.351022
0.351682
0.352346
0.353015
0.353688
0.354365
0.355047
0.355734
0.356425
0.357121
0.357821
0.358526
0.359236
0.359951
0.360671
0.361395
0.362125
0.36286
0.363599
0.364344
0.365095
0.36585
0.366611
0.367378
0.368149
0.368927
0.36971
0.370499
0.371293
0.372094
0.3729
0.373712
0.374531
0.375355
0.376186
0.377023
0.377866
0.378716
0.379572
0.380435
0.381305
0.382181
0.383065
0.383955
0.384852
0.385757
0.386669
0.387588
0.388514
0.389448
0.39039
0.391339
0.392297
0.393262
0.394235
0.395217
0.396207
0.397205
0.398212
0.399227
0.400252
0.401285
0.402327
0.403378
0.404439
0.405509
0.406589
0.407679
0.408778
0.409887
0.411007
0.412137
0.413277
0.414428
0.41559
0.416763
0.417947
0.419143
0.42035
0.421569
0.422799
0.424042
0.425297
0.426565
0.427845
0.429138
0.430445
0.431765
0.433098
0.434445
0.435806
0.437182
0.438572
0.439977
0.441397
0.442833
0.444284
0.445751
0.447235
0.448735
0.450251
0.451785
0.453337
0.454906
0.456493
0.458099
0.459724
0.461368
0.463032
0.464715
0.466419
0.468144
0.46989
0.471658
0.473448
0.475261
0.477097
0.478956
0.48084
0.482748
0.484681
0.48664
0.488625
0.490637
0.492677
0.494744
0.496841
0.498967
0.501123
0.503309
0.505527
0.507778
0.510062
0.512379
0.514731
0.517119
0.519543
0.522004
0.524504
0.527043
0.529622
0.532243
0.534905
0.537612
0.540362
0.543159
0.546002
0.548894
0.551835
0.554826
0.557869
0.560966
0.564117
0.567323
0.570587
0.57391
0.577291
0.580734
0.584239
0.587806
0.591438
0.595134
0.598895
0.602722
0.606614
0.610571
0.614592
0.618676
0.622821
0.627024
0.631283
0.635591
0.639945
0.644337
0.64876
0.653204
0.657658
0.662109
0.666542
0.67094
0.675284
0.679551
0.683718
0.687758
0.69164
0.695332
0.698798
0.701999
0.704895
0.707441
0.709591
0.711296
0.712507
0.713171
0.713235
0.712647
0.711353
0.709302
0.706443
0.702728
0.698114
0.692561
0.686033
0.678503
0.669949
0.660356
0.649719
0.638042
0.625338
0.61163
0.59695
0.581342
0.564859
0.547561
0.529521
0.510817
0.491535
0.471766
0.451609
0.431161
0.410527
0.389809
0.369108
0.348525
0.328157
0.308094
0.288425
0.269227
0.250574
0.232528
0.215147
0.198477
0.182556
0.167413
0.15307
0.139538
0.126823
0.114923
0.103829
0.0935247
0.0839916
0.0752048
0.0671359
0.0597536
0.053024
0.0469117
0.0413799
0.0363912
0.0319082
0.0278938
0.0243114
0.0211257
0.0183024
0.0158088
0.013614
0.0116887
0.0100055
0.0085388
0.00726512
0.00616271
0.00521171
0.00439404
0.00369331
0.00309478
0.00258522
0.00215283
0.00178709
0.00147877
0.00121967
0.00100266
0.000821473
0.000670697
0.000545613
0.000442198
0.000356951
0.000286926
0.000229569
0.000182759
0.000144659
0.000113767
8.8782e-05
6.86594e-05
5.24873e-05
3.95547e-05
2.92303e-05
2.10403e-05
1.45525e-05
9.46058e-06
5.47271e-06
2.39754e-06
1.53291e-08
1.53291e-08
1.53291e-08
1
0.777058
0.557886
0.453535
0.407464
0.389338
0.383182
0.381472
0.381264
0.381551
0.382003
0.382507
0.383024
0.38354
0.384053
0.38456
0.385063
0.385564
0.386064
0.386563
0.387063
0.387564
0.388067
0.388571
0.389077
0.389586
0.390096
0.390609
0.391125
0.391643
0.392163
0.392686
0.393211
0.393739
0.394269
0.394802
0.395338
0.395876
0.396417
0.39696
0.397507
0.398055
0.398607
0.399161
0.399718
0.400278
0.400841
0.401406
0.401974
0.402545
0.403119
0.403696
0.404276
0.404858
0.405444
0.406032
0.406624
0.407218
0.407816
0.408416
0.40902
0.409627
0.410237
0.41085
0.411466
0.412086
0.412708
0.413335
0.413964
0.414597
0.415233
0.415872