# vtk DataFile Version 2.0
FlowField
ASCII
DATASET STRUCTURED_GRID
DIMENSIONS 400 1 200
POINTS 80000 float
0 0 0
0.08 0 0
0.16 0 0
0.24 0 0
0.32 0 0
0.4 0 0
0.48 0 0
0.56 0 0
0.64 0 0
0.72 0 0
0.8 0 0
0.88 0 0
0.96 0 0
1.04 0 0
1.12 0 0
1.2 0 0
1.28 0 0
1.36 0 0
1.44 0 0
1.52 0 0
1.6 0 0
1.68 0 0
1.76 0 0
1.84 0 0
1.92 0 0
2 0 0
2.08 0 0
2.16 0 0
2.24 0 0
2.32 0 0
2.4 0 0
2.48 0 0
2.56 0 0
2.64 0 0
2.72 0 0
2.8 0 0
2.88 0 0
2.96 0 0
3.04 0 0
3.12 0 0
3.2 0 0
3.28 0 0
3.36 0 0
3.44 0 0
3.52 0 0
3.6 0 0
3.68 0 0
3.76 0 0
3.84 0 0
3.92 0 0
4 0 0
4.08 0 0
4.16 0 0
4.24 0 0
4.32 0 0
4.4 0 0
4.48 0 0
4.56 0 0
4.64 0 0
4.72 0 0
4.8 0 0
4.88 0 0
4.96 0 0
5.04 0 0
5.12 0 0
5.2 0 0
5.28 0 0
5.36 0 0
5.44 0 0
5.52 0 0
5.6 0 0
5.68 0 0
5.76 0 0
5.84 0 0
5.92 0 0
6 0 0
6.08 0 0
6.16 0 0
6.24 0 0
6.32 0 0
6.4 0 0
6.48 0 0
6.56 0 0
6.64 0 0
6.72 0 0
6.8 0 0
6.88 0 0
6.96 0 0
7.04 0 0
7.12 0 0
7.2 0 0
7.28 0 0
7.36 0 0
7.44 0 0
7.52 0 0
7.6 0 0
7.68 0 0
7.76 0 0
7.84 0 0
7.92 0 0
8 0 0
8.08 0 0
8.16 0 0
8.24 0 0
8.32 0 0
8.4 0 0
8.48 0 0
8.56 0 0
8.64 0 0
8.72 0 0
8.8 0 0
8.88 0 0
8.96 0 0
9.04 0 0
9.12 0 0
9.2 0 0
9.28 0 0
9.36 0 0
9.44 0 0
9.52 0 0
9.6 0 0
9.68 0 0
9.76 0 0
9.84 0 0
9.92 0 0
10 0 0
10.08 0 0
10.16 0 0
10.24 0 0
10.32 0 0
10.4 0 0
10.48 0 0
10.56 0 0
10.64 0 0
10.72 0 0
10.8 0 0
10.88 0 0
10.96 0 0
11.04 0 0
11.12 0 0
11.2 0 0
11.28 0 0
11.36 0 0
11.44 0 0
11.52 0 0
11.6 0 0
11.68 0 0
11.76 0 0
11.84 0 0
11.92 0 0
12 0 0
12.08 0 0
12.16 0 0
12.24 0 0
12.32 0 0
12.4 0 0
12.48 0 0
12.56 0 0
12.64 0 0
12.72 0 0
12.8 0 0
12.88 0 0
12.96 0 0
13.04 0 0
13.12 0 0
13.2 0 0
13.28 0 0
13.36 0 0
13.44 0 0
13.52 0 0
13.6 0 0
13.68 0 0
13.76 0 0
13.84 0 0
13.92 0 0
14 0 0
14.08 0 0
14.16 0 0
14.24 0 0
14.32 0 0
14.4 0 0
14.48 0 0
14.56 0 0
14.64 0 0
14.72 0 0
14.8 0 0
14.88 0 0
14.96 0 0
15.04 0 0
15.12 0 0
15.2 0 0
15.28 0 0
15.36 0 0
15.44 0 0
15.52 0 0
15.6 0 0
15.68 0 0
15.76 0 0
15.84 0 0
15.92 0 0
16 0 0
16.08 0 0
16.16 0 0
16.24 0 0
16.32 0 0
16.4 0 0
16.48 0 0
16.56 0 0
16.64 0 0
16.72 0 0
16.8 0 0
16.88 0 0
16.96 0 0
17.04 0 0
17.12 0 0
17.2 0 0
17.28 0 0
17.36 0 0
17.44 0 0
17.52 0 0
17.6 0 0
17.68 0 0
17.76 0 0
17.84 0 0
17.92 0 0
18 0 0
18.08 0 0
18.16 0 0
18.24 0 0
18.32 0 0
18.4 0 0
18.48 0 0
18.56 0 0
18.64 0 0
18.72 0 0
18.8 0 0
18.88 0 0
18.96 0 0
19.04 0 0
19.12 0 0
19.2 0 0
19.28 0 0
19.36 0 0
19.44 0 0
19.52 0 0
19.6 0 0
19.68 0 0
19.76 0 0
19.84 0 0
19.92 0 0
20 0 0
20.08 0 0
20.16 0 0
20.24 0 0
20.32 0 0
20.4 0 0
20.48 0 0
20.56 0 0
20.64 0 0
20.72 0 0
20.8 0 0
20.88 0 0
20.96 0 0
21.04 0 0
21.12 0 0
21.2 0 0
21.28 0 0
21.36 0 0
21.44 0 0
21.52 0 0
21.6 0 0
21.68 0 0
21.76 0 0
21.84 0 0
21.92 0 0
22 0 0
22.08 0 0
22.16 0 0
22.24 0 0
22.32 0 0
22.4 0 0
22.48 0 0
22.56 0 0
22.64 0 0
22.72 0 0
22.8 0 0
22.88 0 0
22.96 0 0
23.04 0 0
23.12 0 0
23.2 0 0
23.28 0 0
23.36 0 0
23.44 0 0
23.52 0 0
23.6 0 0
23.68 0 0
23.76 0 0
23.84 0 0
23.92 0 0
24 0 0
24.08 0 0
24.16 0 0
24.24 0 0
24.32 0 0
24.4 0 0
24.48 0 0
24.56 0 0
24.64 0 0
24.72 0 0
24.8 0 0
24.88 0 0
24.96 0 0
25.04 0 0
25.12 0 0
25.2 0 0
25.28 0 0
25.36 0 0
25.44 0 0
25.52 0 0
25.6 0 0
25.68 0 0
25.76 0 0
25.84 0 0
25.92 0 0
26 0 0
26.08 0 0
26.16 0 0
26.24 0 0
26.32 0 0
26.4 0 0
26.48 0 0
26.56 0 0
26.64 0 0
26.72 0 0
26.8 0 0
26.88 0 0
26.96 0 0
27.04 0 0
27.12 0 0
27.2 0 0
27.28 0 0
27.36 0 0
27.44 0 0
27.52 0 0
27.6 0 0
27.68 0 0
27.76 0 0
27.84 0 0
27.92 0 0
28 0 0
28.08 0 0
28.16 0 0
28.24 0 0
28.32 0 0
28.4 0 0
28.48 0 0
28.56 0 0
28.64 0 0
28.72 0 0
28.8 0 0
28.88 0 0
28.96 0 0
29.04 0 0
29.12 0 0
29.2 0 0
29.28 0 0
29.36 0 0
29.44 0 0
29.52 0 0
29.6 0 0
29.68 0 0
29.76 0 0
29.84 0 0
29.92 0 0
30 0 0
30.08 0 0
30.16 0 0
30.24 0 0
30.32 0 0
30.4 0 0
30.48 0 0
30.56 0 0
30.64 0 0
30.72 0 0
30.8 0 0
30.88 0 0
30.96 0 0
31.04 0 0
31.12 0 0
31.2 0 0
31.28 0 0
31.36 0 0
31.44 0 0
31.52 0 0
31.6 0 0
31.68 0 0
31.76 0 0
31.84 0 0
31.92 0 0
0 0.005 0
0.08 0.005 0
0.16 0.005 0
0.24 0.005 0
0.32 0.005 0
0.4 0.005 0
0.48 0.005 0
0.56 0.005 0
0.64 0.005 0
0.72 0.005 0
0.8 0.005 0
0.88 0.005 0
0.96 0.005 0
1.04 0.005 0
1.12 0.005 0
1.2 0.005 0
1.28 0.005 0
1.36 0.005 0
1.44 0.005 0
1.52 0.005 0
1.6 0.005 0
1.68 0.005 0
1.76 0.005 0
1.84 0.005 0
1.92 0.005 0
2 0.005 0
2.08 0.005 0
2.16 0.005 0
2.24 0.005 0
2.32 0.005 0
2.4 0.005 0
2.48 0.005 0
2.56 0.005 0
2.64 0.005 0
2.72 0.005 0
2.8 0.005 0
2.88 0.005 0
2.96 0.005 0
3.04 0.005 0
3.12 0.005 0
3.2 0.005 0
3.28 0.005 0
3.36 0.005 0
3.44 0.005 0
3.52 0.005 0
3.6 0.005 0
3.68 0.005 0
3.76 0.005 0
3.84 0.005 0
3.92 0.005 0
4 0.005 0
4.08 0.005 0
4.16 0.005 0
4.24 0.005 0
4.32 0.005 0
4.4 0.005 0
4.48 0.005 0
4.56 0.005 0
4.64 0.005 0
4.72 0.005 0
4.8 0.005 0
4.88 0.005 0
4.96 0.005 0
5.04 0.005 0
5.12 0.005 0
5.2 0.005 0
5.28 0.005 0
5.36 0.005 0
5.44 0.005 0
5.52 0.005 0
5.6 0.005 0
5.68 0.005 0
5.76 0.005 0
5.84 0.005 0
5.92 0.005 0
6 0.005 0
6.08 0.005 0
6.16 0.005 0
6.24 0.005 0
6.32 0.005 0
6.4 0.005 0
6.48 0.005 0
6.56 0.005 0
6.64 0.005 0
6.72 0.005 0
6.8 0.005 0
6.88 0.005 0
6.96 0.005 0
7.04 0.005 0
7.12 0.005 0
7.2 0.005 0
7.28 0.005 0
7.36 0.005 0
7.44 0.005 0
7.52 0.005 0
7.6 0.005 0
7.68 0.005 0
7.76 0.005 0
7.84 0.005 0
7.92 0.005 0
8 0.005 0
8.08 0.005 0
8.16 0.005 0
8.24 0.005 0
8.32 0.005 0
8.4 0.005 0
8.48 0.005 0
8.56 0.005 0
8.64 0.005 0
8.72 0.005 0
8.8 0.005 0
8.88 0.005 0
8.96 0.005 0
9.04 0.005 0
9.12 0.005 0
9.2 0.005 0
9.28 0.005 0
9.36 0.005 0
9.44 0.005 0
9.52 0.005 0
9.6 0.005 0
9.68 0.005 0
9.76 0.005 0
9.84 0.005 0
9.92 0.005 0
10 0.005 0
10.08 0.005 0
10.16 0.005 0
10.24 0.005 0
10.32 0.005 0
10.4 0.005 0
10.48 0.005 0
10.56 0.005 0
10.64 0.005 0
10.72 0.005 0
10.8 0.005 0
10.88 0.005 0
10.96 0.005 0
11.04 0.005 0
11.12 0.005 0
11.2 0.005 0
11.28 0.005 0
11.36 0.005 0
11.44 0.005 0
11.52 0.005 0
11.6 0.005 0
11.68 0.005 0
11.76 0.005 0
11.84 0.005 0
11.92 0.005 0
12 0.005 0
12.08 0.005 0
12.16 0.005 0
12.24 0.005 0
12.32 0.005 0
12.4 0.005 0
12.48 0.005 0
12.56 0.005 0
12.64 0.005 0
12.72 0.005 0
12.8 0.005 0
12.88 0.005 0
12.96 0.005 0
13.04 0.005 0
13.12 0.005 0
13.2 0.005 0
13.28 0.005 0
13.36 0.005 0
13.44 0.005 0
13.52 0.005 0
13.6 0.005 0
13.68 0.005 0
13.76 0.005 0
13.84 0.005 0
13.92 0.005 0
14 0.005 0
14.08 0.005 0
14.16 0.005 0
14.24 0.005 0
14.32 0.005 0
14.4 0.005 0
14.48 0.005 0
14.56 0.005 0
14.64 0.005 0
14.72 0.005 0
14.8 0.005 0
14.88 0.005 0
14.96 0.005 0
15.04 0.005 0
15.12 0.005 0
15.2 0.005 0
15.28 0.005 0
15.36 0.005 0
15.44 0.005 0
15.52 0.005 0
15.6 0.005 0
15.68 0.005 0
15.76 0.005 0
15.84 0.005 0
15.92 0.005 0
16 0.005 0
16.08 0.005 0
16.16 0.005 0
16.24 0.005 0
16.32 0.005 0
16.4 0.005 0
16.48 0.005 0
16.56 0.005 0
16.64 0.005 0
16.72 0.005 0
16.8 0.005 0
16.88 0.005 0
16.96 0.005 0
17.04 0.005 0
17.12 0.005 0
17.2 0.005 0
17.28 0.005 0
17.36 0.005 0
17.44 0.005 0
17.52 0.005 0
17.6 0.005 0
17.68 0.005 0
17.76 0.005 0
17.84 0.005 0
17.92 0.005 0
18 0.005 0
18.08 0.005 0
18.16 0.005 0
18.24 0.005 0
18.32 0.005 0
18.4 0.005 0
18.48 0.005 0
18.56 0.005 0
18.64 0.005 0
18.72 0.005 0
18.8 0.005 0
18.88 0.005 0
18.96 0.005 0
19.04 0.005 0
19.12 0.005 0
19.2 0.005 0
19.28 0.005 0
19.36 0.005 0
19.44 0.005 0
19.52 0.005 0
19.6 0.005 0
19.68 0.005 0
19.76 0.005 0
19.84 0.005 0
19.92 0.005 0
20 0.005 0
20.08 0.005 0
20.16 0.005 0
20.24 0.005 0
20.32 0.005 0
20.4 0.005 0
20.48 0.005 0
20.56 0.005 0
20.64 0.005 0
20.72 0.005 0
20.8 0.005 0
20.88 0.005 0
20.96 0.005 0
21.04 0.005 0
21.12 0.005 0
21.2 0.005 0
21.28 0.005 0
21.36 0.005 0
21.44 0.005 0
21.52 0.005 0
21.6 0.005 0
21.68 0.005 0
21.76 0.005 0
21.84 0.005 0
21.92 0.005 0
22 0.005 0
22.08 0.005 0
22.16 0.005 0
22.24 0.005 0
22.32 0.005 0
22.4 0.005 0
22.48 0.005 0
22.56 0.005 0
22.64 0.005 0
22.72 0.005 0
22.8 0.005 0
22.88 0.005 0
22.96 0.005 0
23.04 0.005 0
23.12 0.005 0
23.2 0.005 0
23.28 0.005 0
23.36 0.005 0
23.44 0.005 0
23.52 0.005 0
23.6 0.005 0
23.68 0.005 0
23.76 0.005 0
23.84 0.005 0
23.92 0.005 0
24 0.005 0
24.08 0.005 0
24.16 0.005 0
24.24 0.005 0
24.32 0.005 0
24.4 0.005 0
24.48 0.005 0
24.56 0.005 0
24.64 0.005 0
24.72 0.005 0
24.8 0.005 0
24.88 0.005 0
24.96 0.005 0
25.04 0.005 0
25.12 0.005 0
25.2 0.005 0
25.28 0.005 0
25.36 0.005 0
25.44 0.005 0
25.52 0.005 0
25.6 0.005 0
25.68 0.005 0
25.76 0.005 0
25.84 0.005 0
25.92 0.005 0
26 0.005 0
26.08 0.005 0
26.16 0.005 0
26.24 0.005 0
26.32 0.005 0
26.4 0.005 0
26.48 0.005 0
26.56 0.005 0
26.64 0.005 0
26.72 0.005 0
26.8 0.005 0
26.88 0.005 0
26.96 0.005 0
27.04 0.005 0
27.12 0.005 0
27.2 0.005 0
27.28 0.005 0
27.36 0.005 0
27.44 0.005 0
27.52 0.005 0
27.6 0.005 0
27.68 0.005 0
27.76 0.005 0
27.84 0.005 0
27.92 0.005 0
28 0.005 0
28.08 0.005 0
28.16 0.005 0
28.24 0.005 0
28.32 0.005 0
28.4 0.005 0
28.48 0.005 0
28.56 0.005 0
28.64 0.005 0
28.72 0.005 0
28.8 0.005 0
28.88 0.005 0
28.96 0.005 0
29.04 0.005 0
29.12 0.005 0
29.2 0.005 0
29.28 0.005 0
29.36 0.005 0
29.44 0.005 0
29.52 0.005 0
29.6 0.005 0
29.68 0.005 0
29.76 0.005 0
29.84 0.005 0
29.92 0.005 0
30 0.005 0
30.08 0.005 0
30.16 0.005 0
30.24 0.005 0
30.32 0.005 0
30.4 0.005 0
30.48 0.005 0
30.56 0.005 0
30.64 0.005 0
30.72 0.005 0
30.8 0.005 0
30.88 0.005 0
30.96 0.005 0
31.04 0.005 0
31.12 0.005 0
31.2 0.005 0
31.28 0.005 0
31.36 0.005 0
31.44 0.005 0
31.52 0.005 0
31.6 0.005 0
31.68 0.005 0
31.76 0.005 0
31.84 0.005 0
31.92 0.005 0
0 0.01 0
0.08 0.01 0
0.16 0.01 0
0.24 0.01 0
0.32 0.01 0
0.4 0.01 0
0.48 0.01 0
0.56 0.01 0
0.64 0.01 0
0.72 0.01 0
0.8 0.01 0
0.88 0.01 0
0.96 0.01 0
1.04 0.01 0
1.12 0.01 0
1.2 0.01 0
1.28 0.01 0
1.36 0.01 0
1.44 0.01 0
1.52 0.01 0
1.6 0.01 0
1.68 0.01 0
1.76 0.01 0
1.84 0.01 0
1.92 0.01 0
2 0.01 0
2.08 0.01 0
2.16 0.01 0
2.24 0.01 0
2.32 0.01 0
2.4 0.01 0
2.48 0.01 0
2.56 0.01 0
2.64 0.01 0
2.72 0.01 0
2.8 0.01 0
2.88 0.01 0
2.96 0.01 0
3.04 0.01 0
3.12 0.01 0
3.2 0.01 0
3.28 0.01 0
3.36 0.01 0
3.44 0.01 0
3.52 0.01 0
3.6 0.01 0
3.68 0.01 0
3.76 0.01 0
3.84 0.01 0
3.92 0.01 0
4 0.01 0
4.08 0.01 0
4.16 0.01 0
4.24 0.01 0
4.32 0.01 0
4.4 0.01 0
4.48 0.01 0
4.56 0.01 0
4.64 0.01 0
4.72 0.01 0
4.8 0.01 0
4.88 0.01 0
4.96 0.01 0
5.04 0.01 0
5.12 0.01 0
[...]
POINT_DATA 80000

SCALARS v float 1
LOOKUP_TABLE default
0
0
0
0
0
0
0
0
0
0
0
0
0
0
0
0
0
0
0
0
0
0
0
0
0
0
0
0
0
0
0
0
0
0
0
0
0
0
0
0
0
0
0
0
0
0
0
0
0
0
0
0
0
0
0
0
0
0
0
0
0
0
0
0
0
0
0
0
0
0
0
0
0
0
0
0
0
0
0
0
0
0
0
0
0
0
0
0
0
0
0
0
0
0
0
0
0
0
0
0
0
0
0
0
0
0
0
0
0
0
0
0
0
0
0
0
0
0
0
0
0
0
0
0
0
0
0
0
0
0
0
0
0
0
0
0
0
0
0
0
0
0
0
0
0
0
0
0
0
0
0
0
0
0
0
0
0
0
0
0
0
0
0
0
0
0
0
0
0
0
0
0
0
0
0
0
0
0
0
0
0
0
0
0
0
0
0
0
0
0
0
0
0
0
0
0
0
0
0
0
0
0
0
0
0
0
0
0
0
0
0
0
0
0
0
0
0
0
0
0
0
0
0
0
0
0
0
0
0
0
0
0
0
0
0
0
0
0
0
0
0
0
0
0
0
0
0
0
0
0
0
0
0
0
0
0
0
0
0
0
0
0
0
0
0
0
0
0
0
0
0
0
0
0
0
0
0
0
0
0
0
0
0
0
0
0
0
0
0
0
0
0
0
0
0
0
0
0
0
0
0
0
0
0
0
0
0
0
0
0
0
0
0
0
0
0
0
0
0
0
0
0
0
0
0
0
0
0
0
0
0
0
0
0
0
0
0
0
0
0
0
0
0
0
0
0
0
0
0
0
0
0
0
0
0
0
0
0
0
0
0
0
0
0
0
0
0
0
0
0
0
0
0
0
0
0
0
0
0
0
0
0
0
0
0
0
0
0
0
0
0
0
0
0
0
0
0
0
0
0
-0.0542791
0.0542791
0.00397031
0.00100649
0.000500099
0.00031033
0.00021495
0.000158923
0.000122551
9.79035e-05
8.09048e-05
6.81022e-05
5.66862e-05
4.55473e-05
3.52656e-05
2.69315e-05
2.10348e-05
1.72326e-05
1.47802e-05
1.30232e-05
1.16098e-05
1.04452e-05
9.54901e-06
8.94131e-06
8.598e-06
8.45707e-06
8.44429e-06
8.4953e-06
8.56566e-06
8.63084e-06
8.681e-06
8.71498e-06
8.7355e-06
8.74631e-06
8.75077e-06
8.7514e-06
8.74989e-06
8.74731e-06
8.74426e-06
8.74108e-06
8.73794e-06
8.73492e-06
8.73206e-06
8.72938e-06
8.72688e-06
8.72455e-06
8.72238e-06
8.72038e-06
8.71854e-06
8.71686e-06
8.71532e-06
8.71394e-06
8.7127e-06
8.71161e-06
8.71066e-06
8.70985e-06
8.70918e-06
8.70864e-06
8.70824e-06
8.70798e-06
8.70784e-06
8.70785e-06
8.70798e-06
8.70825e-06
8.70864e-06
8.70917e-06
8.70983e-06
8.71063e-06
8.71156e-06
8.71262e-06
8.71381e-06
8.71514e-06
8.7166e-06
8.7182e-06
8.71993e-06
8.7218e-06
8.7238e-06
8.72595e-06
8.72823e-06
8.73065e-06
8.73321e-06
8.73591e-06
8.73875e-06
8.74173e-06
8.74485e-06
8.74812e-06
8.75153e-06
8.75509e-06
8.75879e-06
8.76264e-06
8.76664e-06
8.77078e-06
8.77508e-06
8.77952e-06
8.78411e-06
8.78886e-06
8.79376e-06
8.79881e-06
8.80402e-06
8.80938e-06
8.8149e-06
8.82057e-06
8.82641e-06
8.8324e-06
8.83855e-06
8.84487e-06
8.85135e-06
8.85799e-06
8.8648e-06
8.87178e-06
8.87892e-06
8.88623e-06
8.89371e-06
8.90137e-06
8.90919e-06
8.91719e-06
8.92537e-06
8.93372e-06
8.94225e-06
8.95096e-06
8.95985e-06
8.96893e-06
8.97819e-06
8.98764e-06
8.99727e-06
9.00709e-06
9.01711e-06
9.02731e-06
9.03771e-06
9.04831e-06
9.0591e-06
9.0701e-06
9.08129e-06
9.0927e-06
9.1043e-06
9.11611e-06
9.12813e-06
9.14037e-06
9.15281e-06
9.16547e-06
9.17835e-06
9.19145e-06
9.20477e-06
9.21832e-06
9.23209e-06
9.24609e-06
9.26032e-06
9.27479e-06
9.28949e-06
9.30443e-06
9.31961e-06
9.33504e-06
9.35071e-06
9.36663e-06
9.3828e-06
9.39923e-06
9.41592e-06
9.43286e-06
9.45007e-06
9.46755e-06
9.48529e-06
9.50331e-06
9.52161e-06
9.54018e-06
9.55904e-06
9.57818e-06
9.59761e-06
9.61733e-06
9.63735e-06
9.65767e-06
9.67829e-06
9.69922e-06
9.72046e-06
9.74202e-06
9.76389e-06
9.78609e-06
9.80861e-06
9.83147e-06
9.85466e-06
9.87819e-06
9.90206e-06
9.92629e-06
9.95086e-06
9.9758e-06
1.00011e-05
1.00268e-05
1.00528e-05
1.00792e-05
1.0106e-05
1.01332e-05
1.01608e-05
1.01888e-05
1.02172e-05
1.0246e-05
1.02752e-05
1.03048e-05
1.03349e-05
1.03654e-05
1.03963e-05
1.04277e-05
1.04596e-05
1.04919e-05
1.05247e-05
1.05579e-05
1.05917e-05
1.06259e-05
1.06606e-05
1.06958e-05
1.07316e-05
1.07678e-05
1.08046e-05
1.0842e-05
1.08799e-05
1.09183e-05
1.09573e-05
1.09969e-05
1.1037e-05
1.10778e-05
1.11191e-05
1.11611e-05
1.12037e-05
1.12469e-05
1.12908e-05
1.13353e-05
1.13805e-05
1.14263e-05
1.14729e-05
1.15201e-05
1.15681e-05
1.16168e-05
1.16662e-05
1.17163e-05
1.17673e-05
1.1819e-05
1.18715e-05
1.19247e-05
1.19788e-05
1.20338e-05
1.20895e-05
1.21462e-05
1.22036e-05
1.2262e-05
1.23213e-05
1.23815e-05
1.24426e-05
1.25046e-05
1.25676e-05
1.26316e-05
1.26965e-05
1.27624e-05
1.28294e-05
1.28973e-05
1.29663e-05
1.30363e-05
1.31074e-05
1.31796e-05
1.32528e-05
1.33271e-05
1.34026e-05
1.34791e-05
1.35567e-05
1.36355e-05
1.37154e-05
1.37964e-05
1.38785e-05
1.39618e-05
1.40462e-05
1.41318e-05
1.42184e-05
1.43062e-05
1.43951e-05
1.44851e-05
1.45762e-05
1.46684e-05
1.47616e-05
1.48559e-05
1.49512e-05
1.50476e-05
1.51449e-05
1.52431e-05
1.53423e-05
1.54424e-05
1.55433e-05
1.56451e-05
1.57476e-05
1.5851e-05
1.5955e-05
1.60596e-05
1.6165e-05
1.62709e-05
1.63773e-05
1.64843e-05
1.65917e-05
1.66995e-05
1.68078e-05
1.69164e-05
1.70254e-05
1.71347e-05
1.72443e-05
1.73542e-05
1.74644e-05
1.75749e-05
1.76858e-05
1.7797e-05
1.79087e-05
1.80209e-05
1.81336e-05
1.82471e-05
1.83614e-05
1.84766e-05
1.8593e-05
1.87108e-05
1.88302e-05
1.89514e-05
1.90747e-05
1.92006e-05
1.93294e-05
1.94614e-05
1.95972e-05
1.97373e-05
1.98821e-05
2.00325e-05
2.01889e-05
2.03521e-05
2.05229e-05
2.07021e-05
2.08905e-05
2.10892e-05
2.12992e-05
2.15214e-05
2.17571e-05
2.20075e-05
2.22737e-05
2.25572e-05
2.28594e-05
2.31815e-05
2.35253e-05
2.38923e-05
2.4284e-05
2.47022e-05
2.51486e-05
2.56249e-05
2.61331e-05
2.66749e-05
2.72523e-05
2.78671e-05
2.85214e-05
2.9217e-05
2.9956e-05
3.07403e-05
3.15719e-05
3.24527e-05
3.33846e-05
3.43694e-05
3.54091e-05
3.65054e-05
3.766e-05
3.88746e-05
4.01506e-05
4.14895e-05
4.28926e-05
4.43611e-05
4.58961e-05
4.74986e-05
4.91691e-05
5.09084e-05
5.27167e-05
5.45944e-05
5.65413e-05
5.85573e-05
6.06419e-05
6.27944e-05
6.50139e-05
6.72991e-05
6.96487e-05
7.2061e-05
7.45339e-05
7.70652e-05
7.96523e-05
8.22924e-05
8.4983e-05
8.77185e-05
9.05017e-05
9.33118e-05
9.61854e-05
9.90267e-05
0.000102022
0.000104797
0.000108002
0.000110574
0.000114052
0.000116411
0.000119996
0.000122383
0.000125812
0.000128474
0.000131563
0.000139194
0.000135788
0.000135788
-0.0952245
0.0952245
0.0129848
0.00386352
0.00194191
0.00120306
0.000828519
0.00060736
0.000463419
0.000365696
0.000297819
0.000246102
0.000199912
0.000155394
0.000114918
8.24352e-05
5.94741e-05
4.4511e-05
3.46803e-05
2.75622e-05
2.18873e-05
1.7311e-05
1.38754e-05
1.1606e-05
1.03651e-05
9.88835e-06
9.88241e-06
1.01025e-05
1.03842e-05
1.06397e-05
1.08353e-05
1.09687e-05
1.10513e-05
1.10975e-05
1.11201e-05
1.11284e-05
1.11286e-05
1.11247e-05
1.11188e-05
1.11122e-05
1.11055e-05
1.1099e-05
1.10929e-05
1.10871e-05
1.10818e-05
1.10768e-05
1.10721e-05
1.10679e-05
1.10639e-05
1.10603e-05
1.10569e-05
1.10538e-05
1.1051e-05
1.10485e-05
1.10462e-05
1.10442e-05
1.10424e-05
1.10408e-05
1.10395e-05
1.10384e-05
1.10374e-05
1.10367e-05
1.10362e-05
1.10359e-05
1.10358e-05
1.10359e-05
1.10362e-05
1.10367e-05
1.10374e-05
1.10383e-05
1.10394e-05
1.10407e-05
1.10422e-05
1.10438e-05
1.10457e-05
1.10478e-05
1.10501e-05
1.10526e-05
1.10552e-05
1.10581e-05
1.10612e-05
1.10645e-05
1.1068e-05
1.10718e-05
1.10757e-05
1.10798e-05
1.10842e-05
1.10887e-05
1.10935e-05
1.10985e-05
1.11037e-05
1.11091e-05
1.11148e-05
1.11207e-05
1.11268e-05
1.11331e-05
1.11396e-05
1.11464e-05
1.11534e-05
1.11606e-05
1.1168e-05
1.11757e-05
1.11837e-05
1.11918e-05
1.12002e-05
1.12089e-05
1.12177e-05
1.12268e-05
1.12362e-05
1.12458e-05
1.12557e-05
1.12658e-05
1.12761e-05
1.12867e-05
1.12976e-05
1.13087e-05
1.13201e-05
1.13317e-05
1.13436e-05
1.13558e-05
1.13683e-05
1.1381e-05
1.13939e-05
1.14072e-05
1.14207e-05
1.14346e-05
1.14487e-05
1.14631e-05
1.14777e-05
1.14927e-05
1.1508e-05
1.15235e-05
1.15394e-05
1.15555e-05
1.1572e-05
1.15888e-05
1.16058e-05
1.16232e-05
1.16409e-05
1.1659e-05
1.16773e-05
1.1696e-05
1.1715e-05
1.17343e-05
1.1754e-05
1.1774e-05
1.17944e-05
1.18151e-05
1.18361e-05
1.18576e-05
1.18793e-05
1.19015e-05
1.1924e-05
1.19468e-05
1.19701e-05
1.19937e-05
1.20177e-05
1.20421e-05
1.20669e-05
1.20921e-05
1.21177e-05
1.21437e-05
1.21701e-05
1.21969e-05
1.22241e-05
1.22518e-05
1.22799e-05
1.23084e-05
1.23374e-05
1.23668e-05
1.23967e-05
1.2427e-05
1.24578e-05
1.24891e-05
1.25208e-05
1.25531e-05
1.25858e-05
1.2619e-05
1.26527e-05
1.26869e-05
1.27216e-05
1.27569e-05
1.27926e-05
1.28289e-05
1.28658e-05
1.29032e-05
1.29412e-05
1.29797e-05
1.30188e-05
1.30585e-05
1.30987e-05
1.31396e-05
1.31811e-05
1.32232e-05
1.32659e-05
1.33092e-05
1.33532e-05
1.33978e-05
1.34431e-05
1.34891e-05
1.35358e-05
1.35831e-05
1.36311e-05
1.36799e-05
1.37294e-05
1.37796e-05
1.38305e-05
1.38823e-05
1.39347e-05
1.3988e-05
1.40421e-05
1.4097e-05
1.41526e-05
1.42092e-05
1.42665e-05
1.43248e-05
1.43839e-05
1.44439e-05
1.45048e-05
1.45666e-05
1.46293e-05
1.4693e-05
1.47577e-05
1.48234e-05
1.489e-05
1.49577e-05
1.50264e-05
1.50961e-05
1.5167e-05
1.52389e-05
1.53119e-05
1.53861e-05
1.54614e-05
1.55378e-05
1.56155e-05
1.56944e-05
1.57744e-05
1.58558e-05
1.59384e-05
1.60223e-05
1.61075e-05
1.61941e-05
1.6282e-05
1.63714e-05
1.64621e-05
1.65543e-05
1.66479e-05
1.6743e-05
1.68396e-05
1.69377e-05
1.70374e-05
1.71386e-05
1.72415e-05
1.7346e-05
1.74521e-05
1.75599e-05
1.76694e-05
1.77806e-05
1.78936e-05
1.80083e-05
1.81248e-05
1.82431e-05
1.83632e-05
1.84852e-05
1.8609e-05
1.87347e-05
1.88622e-05
1.89917e-05
1.91231e-05
1.92564e-05
1.93916e-05
1.95288e-05
1.96679e-05
1.9809e-05
1.9952e-05
2.0097e-05
2.0244e-05
2.03928e-05
2.05437e-05
2.06964e-05
2.08511e-05
2.10077e-05
2.11662e-05
2.13266e-05
2.14889e-05
2.1653e-05
2.1819e-05
2.19868e-05
2.21564e-05
2.23279e-05
2.2501e-05
2.2676e-05
2.28527e-05
2.30312e-05
2.32114e-05
2.33934e-05
2.35771e-05
2.37626e-05
2.39498e-05
2.41389e-05
2.43299e-05
2.45227e-05
2.47176e-05
2.49145e-05
2.51135e-05
2.53149e-05
2.55186e-05
2.5725e-05
2.5934e-05
2.61461e-05
2.63614e-05
2.65802e-05
2.68027e-05
2.70294e-05
2.72606e-05
2.74968e-05
2.77383e-05
2.79858e-05
2.82397e-05
2.85007e-05
2.87694e-05
2.90466e-05
2.93331e-05
2.96296e-05
2.9937e-05
3.02564e-05
3.05887e-05
3.09351e-05
3.12966e-05
3.16745e-05
3.20701e-05
3.24847e-05
3.29198e-05
3.33769e-05
3.38575e-05
3.43632e-05
3.48958e-05
3.54569e-05
3.60483e-05
3.6672e-05
3.73298e-05
3.80237e-05
3.87557e-05
3.95278e-05
4.0342e-05
4.12004e-05
4.21051e-05
4.30582e-05
4.40619e-05
4.51181e-05
4.62289e-05
4.73965e-05
4.86226e-05
4.99094e-05
5.12586e-05
5.26721e-05
5.41515e-05
5.56985e-05
5.73144e-05
5.90008e-05
6.07588e-05
6.25894e-05
6.44936e-05
6.64721e-05
6.85253e-05
7.06537e-05
7.28572e-05
7.51357e-05
7.74889e-05
7.99162e-05
8.24165e-05
8.49888e-05
8.76315e-05
9.0343e-05
9.31211e-05
9.59636e-05
9.88678e-05
0.000101831
0.000104849
0.000107919
0.000111039
0.000114196
0.000117409
0.000120615
0.000123951
0.000127087
0.000130702
0.00013346
0.00013773
0.000139642
0.000144876
0.000145937
0.000151601
0.000152764
0.00015791
0.000160162
0.000164263
0.000183617
0.000167635
0.000167635
-0.125301
0.125301
0.0249451
0.00836642
0.00428347
0.0026654
0.00183733
0.00134587
0.00102517
0.000806996
0.000654623
0.000537632
0.000433129
0.000333297
0.000243454
0.000171802
0.000121126
8.7811e-05
6.56242e-05
4.94451e-05
3.66294e-05
2.6448e-05
1.8935e-05
1.40596e-05
1.145e-05
1.04894e-05
1.05251e-05
1.10269e-05
1.16462e-05
1.22e-05
1.2621e-05
1.29076e-05
1.30852e-05
1.31856e-05
1.32358e-05
1.32557e-05
1.32586e-05
1.32527e-05
1.32425e-05
1.32307e-05
1.32186e-05
1.32068e-05
1.31956e-05
1.31852e-05
1.31754e-05
1.31663e-05
1.31578e-05
1.315e-05
1.31427e-05
1.3136e-05
1.31297e-05
1.3124e-05
1.31187e-05
1.31138e-05
1.31093e-05
1.31052e-05
1.31015e-05
1.30982e-05
1.30951e-05
1.30925e-05
1.30901e-05
1.3088e-05
1.30862e-05
1.30848e-05
1.30836e-05
1.30827e-05
1.3082e-05
1.30817e-05
1.30816e-05
1.30818e-05
1.30823e-05
1.3083e-05
1.3084e-05
1.30853e-05
1.30869e-05
1.30887e-05
1.30908e-05
1.30933e-05
1.30959e-05
1.30989e-05
1.31021e-05
1.31057e-05
1.31095e-05
1.31136e-05
1.3118e-05
1.31227e-05
1.31277e-05
1.3133e-05
1.31386e-05
1.31445e-05
1.31506e-05
1.31571e-05
1.31639e-05
1.3171e-05
1.31784e-05
1.31861e-05
1.31941e-05
1.32025e-05
1.32111e-05
1.32201e-05
1.32294e-05
1.3239e-05
1.32489e-05
1.32592e-05
1.32698e-05
1.32807e-05
1.3292e-05
1.33036e-05
1.33155e-05
1.33278e-05
1.33404e-05
1.33534e-05
1.33667e-05
1.33804e-05
1.33944e-05
1.34087e-05
1.34235e-05
1.34386e-05
1.3454e-05
1.34699e-05
1.34861e-05
1.35027e-05
1.35196e-05
1.3537e-05
1.35547e-05
1.35728e-05
1.35913e-05
1.36103e-05
1.36295e-05
1.36493e-05
1.36694e-05
1.36899e-05
1.37109e-05
1.37322e-05
1.3754e-05
1.37762e-05
1.37989e-05
1.3822e-05
1.38455e-05
1.38695e-05
1.38939e-05
1.39187e-05
1.39441e-05
1.39699e-05
1.39961e-05
1.40228e-05
1.405e-05
1.40777e-05
1.41059e-05
1.41346e-05
1.41638e-05
1.41934e-05
1.42236e-05
1.42543e-05
1.42855e-05
1.43173e-05
1.43496e-05
1.43824e-05
1.44158e-05
1.44497e-05
1.44842e-05
1.45192e-05
1.45548e-05
1.4591e-05
1.46278e-05
1.46652e-05
1.47031e-05
1.47417e-05
1.47809e-05
1.48207e-05
1.48611e-05
1.49022e-05
1.49439e-05
1.49863e-05
1.50293e-05
1.50731e-05
1.51174e-05
1.51625e-05
1.52083e-05
1.52548e-05
1.53019e-05
1.53499e-05
1.53985e-05
1.54479e-05
1.54981e-05
1.5549e-05
1.56007e-05
1.56532e-05
1.57064e-05
1.57605e-05
1.58154e-05
1.58712e-05
1.59278e-05
1.59852e-05
1.60435e-05
1.61027e-05
1.61628e-05
1.62238e-05
1.62856e-05
1.63485e-05
1.64123e-05
1.6477e-05
1.65427e-05
1.66095e-05
1.66772e-05
1.67459e-05
1.68157e-05
1.68865e-05
1.69584e-05
1.70314e-05
1.71055e-05
1.71808e-05
1.72571e-05
1.73346e-05
1.74133e-05
1.74932e-05
1.75743e-05
1.76567e-05
1.77403e-05
1.78252e-05
1.79113e-05
1.79988e-05
1.80877e-05
1.81779e-05
1.82695e-05
1.83625e-05
1.8457e-05
1.85529e-05
1.86503e-05
1.87492e-05
1.88497e-05
1.89517e-05
1.90553e-05
1.91606e-05
1.92675e-05
1.93761e-05
1.94864e-05
1.95985e-05
1.97123e-05
1.98279e-05
1.99453e-05
2.00647e-05
2.01859e-05
2.03091e-05
2.04342e-05
2.05613e-05
2.06905e-05
2.08218e-05
2.09551e-05
2.10906e-05
2.12283e-05
2.13682e-05
2.15104e-05
2.16549e-05
2.18016e-05
2.19508e-05
2.21023e-05
2.22564e-05
2.24128e-05
2.25718e-05
2.27334e-05
2.28975e-05
2.30642e-05
2.32337e-05
2.34058e-05
2.35806e-05
2.37582e-05
2.39386e-05
2.41218e-05
2.43079e-05
2.44968e-05
2.46887e-05
2.48834e-05
2.50812e-05
2.52819e-05
2.54857e-05
2.56925e-05
2.59023e-05
2.61152e-05
2.63313e-05
2.65503e-05
2.67726e-05
2.69979e-05
2.72264e-05
2.74581e-05
2.76929e-05
2.7931e-05
2.81722e-05
2.84166e-05
2.86643e-05
2.89152e-05
2.91693e-05
2.94268e-05
2.96875e-05
2.99516e-05
3.02191e-05
3.04899e-05
3.07643e-05
3.10421e-05
3.13236e-05
3.16086e-05
3.18975e-05
3.21902e-05
3.2487e-05
3.27878e-05
3.3093e-05
3.34025e-05
3.37168e-05
3.4036e-05
3.43603e-05
3.469e-05
3.50255e-05
3.53671e-05
3.57152e-05
3.60702e-05
3.64327e-05
3.6803e-05
3.71817e-05
3.75696e-05
3.79671e-05
3.83751e-05
3.87943e-05
3.92254e-05
3.96695e-05
4.01274e-05
4.06002e-05
4.10888e-05
4.15945e-05
4.21184e-05
4.26618e-05
4.3226e-05
4.38124e-05
4.44224e-05
4.50577e-05
4.57196e-05
4.641e-05
4.71304e-05
4.78828e-05
4.86687e-05
4.94902e-05
5.03491e-05
5.12473e-05
5.21869e-05
5.31697e-05
5.41979e-05
5.52735e-05
5.63984e-05
5.75748e-05
5.88045e-05
6.00898e-05
6.14323e-05
6.28342e-05
6.42973e-05
6.58233e-05
6.74139e-05
6.90708e-05
7.07955e-05
7.25894e-05
7.44537e-05
7.63896e-05
7.8398e-05
8.04797e-05
8.26353e-05
8.48652e-05
8.71697e-05
8.95486e-05
9.20017e-05
9.45286e-05
9.71283e-05
9.97999e-05
0.000102542
0.000105353
0.000108231
0.000111174
0.000114179
0.000117243
0.000120364
0.000123537
0.00012676
0.000130026
0.000133337
0.000136671
0.000140071
0.000143408
0.000146973
0.00015009
0.000154169
0.000156437
0.000161855
0.000162292
0.00016976
0.000168345
0.00017678
0.000175566
0.000182946
0.000184053
0.000189407
0.000224196
0.000191021
0.000191021
-0.146495
0.146495
0.0383189
0.0142408
0.00745755
0.00467154
0.00322867
0.0023672
0.00180328
0.00141868
0.0011487
0.000940129
0.000753891
0.000577312
0.000419706
0.000294591
0.000205977
0.000147223
0.000107616
7.85554e-05
5.5654e-05
3.76807e-05
2.4603e-05
1.62377e-05
1.18342e-05
1.02645e-05
1.03799e-05
1.12674e-05
1.23368e-05
1.32835e-05
1.39993e-05
1.44848e-05
1.47854e-05
1.49555e-05
1.5041e-05
1.50758e-05
1.5082e-05
1.50732e-05
1.50573e-05
1.50387e-05
1.50193e-05
1.50005e-05
1.49826e-05
1.49657e-05
1.495e-05
1.49353e-05
1.49216e-05
1.49089e-05
1.4897e-05
1.4886e-05
1.48757e-05
1.48662e-05
1.48574e-05
1.48492e-05
1.48415e-05
1.48345e-05
1.4828e-05
1.4822e-05
1.48164e-05
1.48114e-05
1.48067e-05
1.48025e-05
1.47987e-05
1.47953e-05
1.47923e-05
1.47897e-05
1.47874e-05
1.47855e-05
1.47839e-05
1.47828e-05
1.4782e-05
1.47815e-05
1.47814e-05
1.47817e-05
1.47823e-05
1.47833e-05
1.47846e-05
1.47864e-05
1.47884e-05
1.47909e-05
1.47937e-05
1.47969e-05
1.48004e-05
1.48044e-05
1.48087e-05
1.48134e-05
1.48185e-05
1.4824e-05
1.48299e-05
1.48361e-05
1.48428e-05
1.48498e-05
1.48573e-05
1.48651e-05
1.48734e-05
1.4882e-05
1.48911e-05
1.49006e-05
1.49104e-05
1.49208e-05
1.49315e-05
1.49426e-05
1.49542e-05
1.49662e-05
1.49786e-05
1.49915e-05
1.50048e-05
1.50185e-05
1.50327e-05
1.50473e-05
1.50623e-05
1.50779e-05
1.50938e-05
1.51103e-05
1.51272e-05
1.51446e-05
1.51624e-05
1.51807e-05
1.51995e-05
1.52188e-05
1.52385e-05
1.52588e-05
1.52795e-05
1.53008e-05
1.53225e-05
1.53448e-05
1.53676e-05
1.53909e-05
1.54147e-05
1.5439e-05
1.54639e-05
1.54893e-05
1.55152e-05
1.55417e-05
1.55688e-05
1.55964e-05
1.56245e-05
1.56533e-05
1.56826e-05
1.57125e-05
1.5743e-05
1.57741e-05
1.58057e-05
1.5838e-05
1.58709e-05
1.59044e-05
1.59385e-05
1.59733e-05
1.60086e-05
1.60447e-05
1.60813e-05
1.61187e-05
1.61567e-05
1.61954e-05
1.62347e-05
1.62748e-05
1.63155e-05
1.6357e-05
1.63991e-05
1.6442e-05
1.64856e-05
1.653e-05
1.6575e-05
1.66209e-05
1.66675e-05
1.67149e-05
1.6763e-05
1.6812e-05
1.68617e-05
1.69123e-05
1.69636e-05
1.70159e-05
1.70689e-05
1.71228e-05
1.71776e-05
1.72332e-05
1.72897e-05
1.73471e-05
1.74054e-05
1.74647e-05
1.75248e-05
1.7586e-05
1.7648e-05
1.77111e-05
1.77751e-05
1.78401e-05
1.79061e-05
1.79732e-05
1.80412e-05
1.81104e-05
1.81806e-05
1.82519e-05
1.83242e-05
1.83977e-05
1.84723e-05
1.85481e-05
1.8625e-05
1.87031e-05
1.87824e-05
1.88629e-05
1.89446e-05
1.90276e-05
1.91118e-05
1.91974e-05
1.92842e-05
1.93723e-05
1.94618e-05
1.95527e-05
1.96449e-05
1.97386e-05
1.98337e-05
1.99302e-05
2.00282e-05
2.01278e-05
2.02288e-05
2.03314e-05
2.04355e-05
2.05413e-05
2.06487e-05
2.07578e-05
2.08684e-05
2.09809e-05
2.1095e-05
2.1211e-05
2.13287e-05
2.14482e-05
2.15696e-05
2.16929e-05
2.18181e-05
2.19453e-05
2.20744e-05
2.22056e-05
2.23388e-05
2.24741e-05
2.26116e-05
2.27512e-05
2.2893e-05
2.30371e-05
2.31834e-05
2.33321e-05
2.34831e-05
2.36366e-05
2.37924e-05
2.39508e-05
2.41117e-05
2.42752e-05
2.44413e-05
2.46102e-05
2.47817e-05
2.4956e-05
2.5133e-05
2.5313e-05
2.54958e-05
2.56817e-05
2.58705e-05
2.60624e-05
2.62574e-05
2.64556e-05
2.66569e-05
2.68616e-05
2.70695e-05
2.72809e-05
2.74955e-05
2.77138e-05
2.79354e-05
2.81607e-05
2.83896e-05
2.86221e-05
2.88584e-05
2.90984e-05
2.93422e-05
2.95899e-05
2.98414e-05
3.0097e-05
3.03564e-05
3.062e-05
3.08875e-05
3.11592e-05
3.14351e-05
3.17151e-05
3.19994e-05
3.22879e-05
3.25807e-05
3.28779e-05
3.31793e-05
3.34853e-05
3.37956e-05
3.41105e-05
3.44298e-05
3.47537e-05
3.50822e-05
3.54153e-05
3.57531e-05
3.60957e-05
3.64429e-05
3.67951e-05
3.71522e-05
3.75142e-05
3.78813e-05
3.82536e-05
3.86311e-05
3.9014e-05
3.94023e-05
3.97964e-05
4.01962e-05
4.06021e-05
4.1014e-05
4.14325e-05
4.18575e-05
4.22895e-05
4.27287e-05
4.31755e-05
4.36301e-05
4.40931e-05
4.45649e-05
4.50459e-05
4.55366e-05
4.60376e-05
4.65496e-05
4.70731e-05
4.76089e-05
4.81577e-05
4.87204e-05
4.92978e-05
4.98907e-05
5.05004e-05
5.11276e-05
5.17736e-05
5.24395e-05
5.31265e-05
5.38359e-05
5.45691e-05
5.53274e-05
5.61124e-05
5.69254e-05
5.77682e-05
5.86422e-05
5.95493e-05
6.0491e-05
6.14692e-05
6.24856e-05
6.35421e-05
6.46404e-05
6.57827e-05
6.69705e-05
6.82059e-05
6.94907e-05
7.08268e-05
7.2216e-05
7.36602e-05
7.51611e-05
7.67204e-05
7.83398e-05
8.00209e-05
8.17651e-05
8.35739e-05
8.54484e-05
8.739e-05
8.93995e-05
9.14779e-05
9.36257e-05
9.58437e-05
9.81319e-05
0.000100491
0.00010292
0.000105419
0.000107988
0.000110625
0.00011333
0.000116101
0.000118936
0.000121835
0.000124793
0.00012781
0.000130881
0.000134005
0.000137176
0.000140393
0.00014365
0.000146942
0.000150272
0.000153608
0.000157021
0.000160306
0.000163946
0.000166822
0.000171284
0.000172713
0.000179404
0.000177734
0.000187901
0.00018307
0.00019494
0.000190423
0.000200562
0.00019991
0.000206845
0.000258682
0.0002061
0.0002061
-0.160444
0.160444
0.0520036
0.0211723
0.0113754
0.00718683
0.00498556
0.00366179
0.00279186
0.00219675
0.00177692
0.00145084
0.00115988
0.000885808
0.000642883
0.000450709