# vtk DataFile Version 2.0
FlowField
ASCII
DATASET STRUCTURED_GRID
DIMENSIONS 400 1 200
POINTS 80000 float
0 0 0
0.08 0 0
0.16 0 0
0.24 0 0
0.32 0 0
0.4 0 0
0.48 0 0
0.56 0 0
0.64 0 0
0.72 0 0
0.8 0 0
0.88 0 0
0.96 0 0
1.04 0 0
1.12 0 0
1.2 0 0
1.28 0 0
1.36 0 0
1.44 0 0
1.52 0 0
1.6 0 0
1.68 0 0
1.76 0 0
1.84 0 0
1.92 0 0
2 0 0
2.08 0 0
2.16 0 0
2.24 0 0
2.32 0 0
2.4 0 0
2.48 0 0
2.56 0 0
2.64 0 0
2.72 0 0
2.8 0 0
2.88 0 0
2.96 0 0
3.04 0 0
3.12 0 0
3.2 0 0
3.28 0 0
3.36 0 0
3.44 0 0
3.52 0 0
3.6 0 0
3.68 0 0
3.76 0 0
3.84 0 0
3.92 0 0
4 0 0
4.08 0 0
4.16 0 0
4.24 0 0
4.32 0 0
4.4 0 0
4.48 0 0
4.56 0 0
4.64 0 0
4.72 0 0
4.8 0 0
4.88 0 0
4.96 0 0
5.04 0 0
5.12 0 0
5.2 0 0
5.28 0 0
5.36 0 0
5.44 0 0
5.52 0 0
5.6 0 0
5.68 0 0
5.76 0 0
5.84 0 0
5.92 0 0
6 0 0
6.08 0 0
6.16 0 0
6.24 0 0
6.32 0 0
6.4 0 0
6.48 0 0
6.56 0 0
6.64 0 0
6.72 0 0
6.8 0 0
6.88 0 0
6.96 0 0
7.04 0 0
7.12 0 0
7.2 0 0
7.28 0 0
7.36 0 0
7.44 0 0
7.52 0 0
7.6 0 0
7.68 0 0
7.76 0 0
7.84 0 0
7.92 0 0
8 0 0
8.08 0 0
8.16 0 0
8.24 0 0
8.32 0 0
8.4 0 0
8.48 0 0
8.56 0 0
8.64 0 0
8.72 0 0
8.8 0 0
8.88 0 0
8.96 0 0
9.04 0 0
9.12 0 0
9.2 0 0
9.28 0 0
9.36 0 0
9.44 0 0
9.52 0 0
9.6 0 0
9.68 0 0
9.76 0 0
9.84 0 0
9.92 0 0
10 0 0
10.08 0 0
10.16 0 0
10.24 0 0
10.32 0 0
10.4 0 0
10.48 0 0
10.56 0 0
10.64 0 0
10.72 0 0
10.8 0 0
10.88 0 0
10.96 0 0
11.04 0 0
11.12 0 0
11.2 0 0
11.28 0 0
11.36 0 0
11.44 0 0
11.52 0 0
11.6 0 0
11.68 0 0
11.76 0 0
11.84 0 0
11.92 0 0
12 0 0
12.08 0 0
12.16 0 0
12.24 0 0
12.32 0 0
12.4 0 0
12.48 0 0
12.56 0 0
12.64 0 0
12.72 0 0
12.8 0 0
12.88 0 0
12.96 0 0
13.04 0 0
13.12 0 0
13.2 0 0
13.28 0 0
13.36 0 0
13.44 0 0
13.52 0 0
13.6 0 0
13.68 0 0
13.76 0 0
13.84 0 0
13.92 0 0
14 0 0
14.08 0 0
14.16 0 0
14.24 0 0
14.32 0 0
14.4 0 0
14.48 0 0
14.56 0 0
14.64 0 0
14.72 0 0
14.8 0 0
14.88 0 0
14.96 0 0
15.04 0 0
15.12 0 0
15.2 0 0
15.28 0 0
15.36 0 0
15.44 0 0
15.52 0 0
15.6 0 0
15.68 0 0
15.76 0 0
15.84 0 0
15.92 0 0
16 0 0
16.08 0 0
16.16 0 0
16.24 0 0
16.32 0 0
16.4 0 0
16.48 0 0
16.56 0 0
16.64 0 0
16.72 0 0
16.8 0 0
16.88 0 0
16.96 0 0
17.04 0 0
17.12 0 0
17.2 0 0
17.28 0 0
17.36 0 0
17.44 0 0
17.52 0 0
17.6 0 0
17.68 0 0
17.76 0 0
17.84 0 0
17.92 0 0
18 0 0
18.08 0 0
18.16 0 0
18.24 0 0
18.32 0 0
18.4 0 0
18.48 0 0
18.56 0 0
18.64 0 0
18.72 0 0
18.8 0 0
18.88 0 0
18.96 0 0
19.04 0 0
19.12 0 0
19.2 0 0
19.28 0 0
19.36 0 0
19.44 0 0
19.52 0 0
19.6 0 0
19.68 0 0
19.76 0 0
19.84 0 0
19.92 0 0
20 0 0
20.08 0 0
20.16 0 0
20.24 0 0
20.32 0 0
20.4 0 0
20.48 0 0
20.56 0 0
20.64 0 0
20.72 0 0
20.8 0 0
20.88 0 0
20.96 0 0
21.04 0 0
21.12 0 0
21.2 0 0
21.28 0 0
21.36 0 0
21.44 0 0
21.52 0 0
21.6 0 0
21.68 0 0
21.76 0 0
21.84 0 0
21.92 0 0
22 0 0
22.08 0 0
22.16 0 0
22.24 0 0
22.32 0 0
22.4 0 0
22.48 0 0
22.56 0 0
22.64 0 0
22.72 0 0
22.8 0 0
22.88 0 0
22.96 0 0
23.04 0 0
23.12 0 0
23.2 0 0
23.28 0 0
23.36 0 0
23.44 0 0
23.52 0 0
23.6 0 0
23.68 0 0
23.76 0 0
23.84 0 0
23.92 0 0
24 0 0
24.08 0 0
24.16 0 0
24.24 0 0
24.32 0 0
24.4 0 0
24.48 0 0
24.56 0 0
24.64 0 0
24.72 0 0
24.8 0 0
24.88 0 0
24.96 0 0
25.04 0 0
25.12 0 0
25.2 0 0
25.28 0 0
25.36 0 0
25.44 0 0
25.52 0 0
25.6 0 0
25.68 0 0
25.76 0 0
25.84 0 0
25.92 0 0
26 0 0
26.08 0 0
26.16 0 0
26.24 0 0
26.32 0 0
26.4 0 0
26.48 0 0
26.56 0 0
26.64 0 0
26.72 0 0
26.8 0 0
26.88 0 0
26.96 0 0
27.04 0 0
27.12 0 0
27.2 0 0
27.28 0 0
27.36 0 0
27.44 0 0
27.52 0 0
27.6 0 0
27.68 0 0
27.76 0 0
27.84 0 0
27.92 0 0
28 0 0
28.08 0 0
28.16 0 0
28.24 0 0
28.32 0 0
28.4 0 0
28.48 0 0
28.56 0 0
28.64 0 0
28.72 0 0
28.8 0 0
28.88 0 0
28.96 0 0
29.04 0 0
29.12 0 0
29.2 0 0
29.28 0 0
29.36 0 0
29.44 0 0
29.52 0 0
29.6 0 0
29.68 0 0
29.76 0 0
29.84 0 0
29.92 0 0
30 0 0
30.08 0 0
30.16 0 0
30.24 0 0
30.32 0 0
30.4 0 0
30.48 0 0
30.56 0 0
30.64 0 0
30.72 0 0
30.8 0 0
30.88 0 0
30.96 0 0
31.04 0 0
31.12 0 0
31.2 0 0
31.28 0 0
31.36 0 0
31.44 0 0
31.52 0 0
31.6 0 0
31.68 0 0
31.76 0 0
31.84 0 0
31.92 0 0
0 0.005 0
0.08 0.005 0
0.16 0.005 0
0.24 0.005 0
0.32 0.005 0
0.4 0.005 0
0.48 0.005 0
0.56 0.005 0
0.64 0.005 0
0.72 0.005 0
0.8 0.005 0
0.88 0.005 0
0.96 0.005 0
1.04 0.005 0
1.12 0.005 0
1.2 0.005 0
1.28 0.005 0
1.36 0.005 0
1.44 0.005 0
1.52 0.005 0
1.6 0.005 0
1.68 0.005 0
1.76 0.005 0
1.84 0.005 0
1.92 0.005 0
2 0.005 0
2.08 0.005 0
2.16 0.005 0
2.24 0.005 0
2.32 0.005 0
2.4 0.005 0
2.48 0.005 0
2.56 0.005 0
2.64 0.005 0
2.72 0.005 0
2.8 0.005 0
2.88 0.005 0
2.96 0.005 0
3.04 0.005 0
3.12 0.005 0
3.2 0.005 0
3.28 0.005 0
3.36 0.005 0
3.44 0.005 0
3.52 0.005 0
3.6 0.005 0
3.68 0.005 0
3.76 0.005 0
3.84 0.005 0
3.92 0.005 0
4 0.005 0
4.08 0.005 0
4.16 0.005 0
4.24 0.005 0
4.32 0.005 0
4.4 0.005 0
4.48 0.005 0
4.56 0.005 0
4.64 0.005 0
4.72 0.005 0
4.8 0.005 0
4.88 0.005 0
4.96 0.005 0
5.04 0.005 0
5.12 0.005 0
5.2 0.005 0
5.28 0.005 0
5.36 0.005 0
5.44 0.005 0
5.52 0.005 0
5.6 0.005 0
5.68 0.005 0
5.76 0.005 0
5.84 0.005 0
5.92 0.005 0
6 0.005 0
6.08 0.005 0
6.16 0.005 0
6.24 0.005 0
6.32 0.005 0
6.4 0.005 0
6.48 0.005 0
6.56 0.005 0
6.64 0.005 0
6.72 0.005 0
6.8 0.005 0
6.88 0.005 0
6.96 0.005 0
7.04 0.005 0
7.12 0.005 0
7.2 0.005 0
7.28 0.005 0
7.36 0.005 0
7.44 0.005 0
7.52 0.005 0
7.6 0.005 0
7.68 0.005 0
7.76 0.005 0
7.84 0.005 0
7.92 0.005 0
8 0.005 0
8.08 0.005 0
8.16 0.005 0
8.24 0.005 0
8.32 0.005 0
8.4 0.005 0
8.48 0.005 0
8.56 0.005 0
8.64 0.005 0
8.72 0.005 0
8.8 0.005 0
8.88 0.005 0
8.96 0.005 0
9.04 0.005 0
9.12 0.005 0
9.2 0.005 0
9.28 0.005 0
9.36 0.005 0
9.44 0.005 0
9.52 0.005 0
9.6 0.005 0
9.68 0.005 0
9.76 0.005 0
9.84 0.005 0
9.92 0.005 0
10 0.005 0
10.08 0.005 0
10.16 0.005 0
10.24 0.005 0
10.32 0.005 0
10.4 0.005 0
10.48 0.005 0
10.56 0.005 0
10.64 0.005 0
10.72 0.005 0
10.8 0.005 0
10.88 0.005 0
10.96 0.005 0
11.04 0.005 0
11.12 0.005 0
11.2 0.005 0
11.28 0.005 0
11.36 0.005 0
11.44 0.005 0
11.52 0.005 0
11.6 0.005 0
11.68 0.005 0
11.76 0.005 0
11.84 0.005 0
11.92 0.005 0
12 0.005 0
12.08 0.005 0
12.16 0.005 0
12.24 0.005 0
12.32 0.005 0
12.4 0.005 0
12.48 0.005 0
12.56 0.005 0
12.64 0.005 0
12.72 0.005 0
12.8 0.005 0
12.88 0.005 0
12.96 0.005 0
13.04 0.005 0
13.12 0.005 0
13.2 0.005 0
13.28 0.005 0
13.36 0.005 0
13.44 0.005 0
13.52 0.005 0
13.6 0.005 0
13.68 0.005 0
13.76 0.005 0
13.84 0.005 0
13.92 0.005 0
14 0.005 0
14.08 0.005 0
14.16 0.005 0
14.24 0.005 0
14.32 0.005 0
14.4 0.005 0
14.48 0.005 0
14.56 0.005 0
14.64 0.005 0
14.72 0.005 0
14.8 0.005 0
14.88 0.005 0
14.96 0.005 0
15.04 0.005 0
15.12 0.005 0
15.2 0.005 0
15.28 0.005 0
15.36 0.005 0
15.44 0.005 0
15.52 0.005 0
15.6 0.005 0
15.68 0.005 0
15.76 0.005 0
15.84 0.005 0
15.92 0.005 0
16 0.005 0
16.08 0.005 0
16.16 0.005 0
16.24 0.005 0
16.32 0.005 0
16.4 0.005 0
16.48 0.005 0
16.56 0.005 0
16.64 0.005 0
16.72 0.005 0
16.8 0.005 0
16.88 0.005 0
16.96 0.005 0
17.04 0.005 0
17.12 0.005 0
17.2 0.005 0
17.28 0.005 0
17.36 0.005 0
17.44 0.005 0
17.52 0.005 0
17.6 0.005 0
17.68 0.005 0
17.76 0.005 0
17.84 0.005 0
17.92 0.005 0
18 0.005 0
18.08 0.005 0
18.16 0.005 0
18.24 0.005 0
18.32 0.005 0
18.4 0.005 0
18.48 0.005 0
18.56 0.005 0
18.64 0.005 0
18.72 0.005 0
18.8 0.005 0
18.88 0.005 0
18.96 0.005 0
19.04 0.005 0
19.12 0.005 0
19.2 0.005 0
19.28 0.005 0
19.36 0.005 0
19.44 0.005 0
19.52 0.005 0
19.6 0.005 0
19.68 0.005 0
19.76 0.005 0
19.84 0.005 0
19.92 0.005 0
20 0.005 0
20.08 0.005 0
20.16 0.005 0
20.24 0.005 0
20.32 0.005 0
20.4 0.005 0
20.48 0.005 0
20.56 0.005 0
20.64 0.005 0
20.72 0.005 0
20.8 0.005 0
20.88 0.005 0
20.96 0.005 0
21.04 0.005 0
21.12 0.005 0
21.2 0.005 0
21.28 0.005 0
21.36 0.005 0
21.44 0.005 0
21.52 0.005 0
21.6 0.005 0
21.68 0.005 0
21.76 0.005 0
21.84 0.005 0
21.92 0.005 0
22 0.005 0
22.08 0.005 0
22.16 0.005 0
22.24 0.005 0
22.32 0.005 0
22.4 0.005 0
22.48 0.005 0
22.56 0.005 0
22.64 0.005 0
22.72 0.005 0
22.8 0.005 0
22.88 0.005 0
22.96 0.005 0
23.04 0.005 0
23.12 0.005 0
23.2 0.005 0
23.28 0.005 0
23.36 0.005 0
23.44 0.005 0
23.52 0.005 0
23.6 0.005 0
23.68 0.005 0
23.76 0.005 0
23.84 0.005 0
23.92 0.005 0
24 0.005 0
24.08 0.005 0
24.16 0.005 0
24.24 0.005 0
24.32 0.005 0
24.4 0.005 0
24.48 0.005 0
24.56 0.005 0
24.64 0.005 0
24.72 0.005 0
24.8 0.005 0
24.88 0.005 0
24.96 0.005 0
25.04 0.005 0
25.12 0.005 0
25.2 0.005 0
25.28 0.005 0
25.36 0.005 0
25.44 0.005 0
25.52 0.005 0
25.6 0.005 0
25.68 0.005 0
25.76 0.005 0
25.84 0.005 0
25.92 0.005 0
26 0.005 0
26.08 0.005 0
26.16 0.005 0
26.24 0.005 0
26.32 0.005 0
26.4 0.005 0
26.48 0.005 0
26.56 0.005 0
26.64 0.005 0
26.72 0.005 0
26.8 0.005 0
26.88 0.005 0
26.96 0.005 0
27.04 0.005 0
27.12 0.005 0
27.2 0.005 0
27.28 0.005 0
27.36 0.005 0
27.44 0.005 0
27.52 0.005 0
27.6 0.005 0
27.68 0.005 0
27.76 0.005 0
27.84 0.005 0
27.92 0.005 0
28 0.005 0
28.08 0.005 0
28.16 0.005 0
28.24 0.005 0
28.32 0.005 0
28.4 0.005 0
28.48 0.005 0
28.56 0.005 0
28.64 0.005 0
28.72 0.005 0
28.8 0.005 0
28.88 0.005 0
28.96 0.005 0
29.04 0.005 0
29.12 0.005 0
29.2 0.005 0
29.28 0.005 0
29.36 0.005 0
29.44 0.005 0
29.52 0.005 0
29.6 0.005 0
29.68 0.005 0
29.76 0.005 0
29.84 0.005 0
29.92 0.005 0
30 0.005 0
30.08 0.005 0
30.16 0.005 0
30.24 0.005 0
30.32 0.005 0
30.4 0.005 0
30.48 0.005 0
30.56 0.005 0
30.64 0.005 0
30.72 0.005 0
30.8 0.005 0
30.88 0.005 0
30.96 0.005 0
31.04 0.005 0
31.12 0.005 0
31.2 0.005 0
31.28 0.005 0
31.36 0.005 0
31.44 0.005 0
31.52 0.005 0
31.6 0.005 0
31.68 0.005 0
31.76 0.005 0
31.84 0.005 0
31.92 0.005 0
0 0.01 0
0.08 0.01 0
0.16 0.01 0
0.24 0.01 0
0.32 0.01 0
0.4 0.01 0
0.48 0.01 0
0.56 0.01 0
0.64 0.01 0
0.72 0.01 0
0.8 0.01 0
0.88 0.01 0
0.96 0.01 0
1.04 0.01 0
1.12 0.01 0
1.2 0.01 0
1.28 0.01 0
1.36 0.01 0
1.44 0.01 0
1.52 0.01 0
1.6 0.01 0
1.68 0.01 0
1.76 0.01 0
1.84 0.01 0
1.92 0.01 0
2 0.01 0
2.08 0.01 0
2.16 0.01 0
2.24 0.01 0
2.32 0.01 0
2.4 0.01 0
2.48 0.01 0
2.56 0.01 0
2.64 0.01 0
2.72 0.01 0
2.8 0.01 0
2.88 0.01 0
2.96 0.01 0
3.04 0.01 0
3.12 0.01 0
3.2 0.01 0
3.28 0.01 0
3.36 0.01 0
3.44 0.01 0
3.52 0.01 0
3.6 0.01 0
3.68 0.01 0
3.76 0.01 0
3.84 0.01 0
3.92 0.01 0
4 0.01 0
4.08 0.01 0
4.16 0.01 0
4.24 0.01 0
4.32 0.01 0
4.4 0.01 0
4.48 0.01 0
4.56 0.01 0
4.64 0.01 0
4.72 0.01 0
4.8 0.01 0
4.88 0.01 0
4.96 0.01 0
5.04 0.01 0
5.12 0.01 0
[...]
POINT_DATA 80000

SCALARS v float 1
LOOKUP_TABLE default
0
0
0
0
0
0
0
0
0
0
0
0
0
0
0
0
0
0
0
0
0
0
0
0
0
0
0
0
0
0
0
0
0
0
0
0
0
0
0
0
0
0
0
0
0
0
0
0
0
0
0
0
0
0
0
0
0
0
0
0
0
0
0
0
0
0
0
0
0
0
0
0
0
0
0
0
0
0
0
0
0
0
0
0
0
0
0
0
0
0
0
0
0
0
0
0
0
0
0
0
0
0
0
0
0
0
0
0
0
0
0
0
0
0
0
0
0
0
0
0
0
0
0
0
0
0
0
0
0
0
0
0
0
0
0
0
0
0
0
0
0
0
0
0
0
0
0
0
0
0
0
0
0
0
0
0
0
0
0
0
0
0
0
0
0
0
0
0
0
0
0
0
0
0
0
0
0
0
0
0
0
0
0
0
0
0
0
0
0
0
0
0
0
0
0
0
0
0
0
0
0
0
0
0
0
0
0
0
0
0
0
0
0
0
0
0
0
0
0
0
0
0
0
0
0
0
0
0
0
0
0
0
0
0
0
0
0
0
0
0
0
0
0
0
0
0
0
0
0
0
0
0
0
0
0
0
0
0
0
0
0
0
0
0
0
0
0
0
0
0
0
0
0
0
0
0
0
0
0
0
0
0
0
0
0
0
0
0
0
0
0
0
0
0
0
0
0
0
0
0
0
0
0
0
0
0
0
0
0
0
0
0
0
0
0
0
0
0
0
0
0
0
0
0
0
0
0
0
0
0
0
0
0
0
0
0
0
0
0
0
0
0
0
0
0
0
0
0
0
0
0
0
0
0
0
0
0
0
0
0
0
0
0
0
0
0
0
0
0
0
0
0
0
0
0
0
0
0
0
0
0
0
0
0
0
0
0
0
0
0
0
0
0
0
0
0
0
0
0
0
-0.05425
0.05425
0.00394026
0.000976264
0.000470103
0.000280519
0.000185146
0.000129452
9.39073e-05
6.99194e-05
5.29743e-05
4.0365e-05
3.05938e-05
2.30292e-05
1.72997e-05
1.27738e-05
8.5782e-06
4.05815e-06
-8.28515e-07
-5.55626e-06
-9.45114e-06
-1.2128e-05
-1.36538e-05
-1.4413e-05
-1.48507e-05
-1.5277e-05
-1.58075e-05
-1.64089e-05
-1.69829e-05
-1.74371e-05
-1.77195e-05
-1.78239e-05
-1.77762e-05
-1.76169e-05
-1.73862e-05
-1.71162e-05
-1.68285e-05
-1.65353e-05
-1.62421e-05
-1.59507e-05
-1.56606e-05
-1.53708e-05
-1.50803e-05
-1.47884e-05
-1.44948e-05
-1.41992e-05
-1.39018e-05
-1.36026e-05
-1.33019e-05
-1.29999e-05
-1.26969e-05
-1.23932e-05
-1.20891e-05
-1.17848e-05
-1.14806e-05
-1.11768e-05
-1.08737e-05
-1.05715e-05
-1.02705e-05
-9.9709e-06
-9.67298e-06
-9.37697e-06
-9.0831e-06
-8.79162e-06
-8.50272e-06
-8.21664e-06
-7.93356e-06
-7.65368e-06
-7.3772e-06
-7.10428e-06
-6.8351e-06
-6.56982e-06
-6.30858e-06
-6.05153e-06
-5.7988e-06
-5.5505e-06
-5.30676e-06
-5.06766e-06
-4.8333e-06
-4.60376e-06
-4.37911e-06
-4.15941e-06
-3.94472e-06
-3.73507e-06
-3.53051e-06
-3.33104e-06
-3.13668e-06
-2.94745e-06
-2.76334e-06
-2.58434e-06
-2.41043e-06
-2.24158e-06
-2.07776e-06
-1.91893e-06
-1.76505e-06
-1.61605e-06
-1.47189e-06
-1.33249e-06
-1.19779e-06
-1.06771e-06
-9.42173e-07
-8.21097e-07
-7.04396e-07
-5.91979e-07
-4.83754e-07
-3.79625e-07
-2.79494e-07
-1.83262e-07
-9.0829e-08
-2.09024e-09
8.30557e-08
1.64715e-07
2.42989e-07
3.17986e-07
3.89808e-07
4.58561e-07
5.24347e-07
5.8727e-07
6.4743e-07
7.04931e-07
7.59869e-07
8.12344e-07
8.6245e-07
9.10284e-07
9.55936e-07
9.99499e-07
1.04106e-06
1.0807e-06
1.11852e-06
1.15458e-06
1.18897e-06
1.22177e-06
1.25305e-06
1.28288e-06
1.31134e-06
1.33848e-06
1.36438e-06
1.38909e-06
1.41268e-06
1.43521e-06
1.45672e-06
1.47728e-06
1.49693e-06
1.51573e-06
1.53371e-06
1.55092e-06
1.56741e-06
1.58321e-06
1.59837e-06
1.61291e-06
1.62688e-06
1.6403e-06
1.65321e-06
1.66564e-06
1.67761e-06
1.68915e-06
1.70028e-06
1.71104e-06
1.72143e-06
1.73149e-06
1.74123e-06
1.75067e-06
1.75983e-06
1.76872e-06
1.77735e-06
1.78576e-06
1.79393e-06
1.8019e-06
1.80967e-06
1.81725e-06
1.82466e-06
1.8319e-06
1.83898e-06
1.84591e-06
1.85269e-06
1.85935e-06
1.86587e-06
1.87228e-06
1.87857e-06
1.88476e-06
1.89084e-06
1.89682e-06
1.90271e-06
1.90851e-06
1.91422e-06
1.91985e-06
1.9254e-06
1.93088e-06
1.93629e-06
1.94163e-06
1.9469e-06
1.95212e-06
1.95726e-06
1.96236e-06
1.96739e-06
1.97237e-06
1.9773e-06
1.98218e-06
1.98701e-06
1.9918e-06
1.99653e-06
2.00123e-06
2.00588e-06
2.01049e-06
2.01506e-06
2.01959e-06
2.02408e-06
2.02854e-06
2.03296e-06
2.03734e-06
2.0417e-06
2.04602e-06
2.05031e-06
2.05456e-06
2.05879e-06
2.06299e-06
2.06716e-06
2.0713e-06
2.07542e-06
2.07951e-06
2.08357e-06
2.08761e-06
2.09163e-06
2.09562e-06
2.09959e-06
2.10354e-06
2.10747e-06
2.11137e-06
2.11526e-06
2.11913e-06
2.12297e-06
2.1268e-06
2.13061e-06
2.13441e-06
2.13818e-06
2.14195e-06
2.14569e-06
2.14942e-06
2.15314e-06
2.15684e-06
2.16052e-06
2.1642e-06
2.16786e-06
2.17151e-06
2.17514e-06
2.17877e-06
2.18238e-06
2.18599e-06
2.18958e-06
2.19317e-06
2.19674e-06
2.20031e-06
2.20387e-06
2.20742e-06
2.21096e-06
2.2145e-06
2.21802e-06
2.22155e-06
2.22506e-06
2.22858e-06
2.23208e-06
2.23559e-06
2.23908e-06
2.24258e-06
2.24607e-06
2.24955e-06
2.25304e-06
2.25652e-06
2.26e-06
2.26348e-06
2.26695e-06
2.27043e-06
2.2739e-06
2.27738e-06
2.28085e-06
2.28433e-06
2.28781e-06
2.29128e-06
2.29476e-06
2.29824e-06
2.30173e-06
2.30521e-06
2.3087e-06
2.31219e-06
2.31569e-06
2.31918e-06
2.32269e-06
2.32619e-06
2.32971e-06
2.33322e-06
2.33675e-06
2.34027e-06
2.34381e-06
2.34735e-06
2.3509e-06
2.35445e-06
2.35801e-06
2.36158e-06
2.36516e-06
2.36874e-06
2.37234e-06
2.37594e-06
2.37955e-06
2.38318e-06
2.38681e-06
2.39045e-06
2.3941e-06
2.39777e-06
2.40144e-06
2.40513e-06
2.40882e-06
2.41253e-06
2.41626e-06
2.41999e-06
2.42374e-06
2.4275e-06
2.43127e-06
2.43506e-06
2.43887e-06
2.44268e-06
2.44651e-06
2.45036e-06
2.45423e-06
2.45811e-06
2.462e-06
2.46591e-06
2.46984e-06
2.47379e-06
2.47775e-06
2.48173e-06
2.48573e-06
2.48975e-06
2.49378e-06
2.49784e-06
2.50191e-06
2.50601e-06
2.51012e-06
2.51426e-06
2.51841e-06
2.52259e-06
2.52679e-06
2.53101e-06
2.53525e-06
2.53952e-06
2.54381e-06
2.54812e-06
2.55245e-06
2.55681e-06
2.56119e-06
2.5656e-06
2.57003e-06
2.57449e-06
2.57897e-06
2.58348e-06
2.58801e-06
2.59257e-06
2.59715e-06
2.60177e-06
2.60641e-06
2.61108e-06
2.61577e-06
2.6205e-06
2.62525e-06
2.63004e-06
2.63485e-06
2.63969e-06
2.64456e-06
2.64946e-06
2.65439e-06
2.65935e-06
2.66435e-06
2.66936e-06
2.67445e-06
2.67944e-06
2.6848e-06
2.68938e-06
2.69582e-06
2.6984e-06
2.70888e-06
2.70432e-06
2.72709e-06
2.7033e-06
2.75422e-06
2.6932e-06
2.78867e-06
2.68091e-06
2.81829e-06
2.68039e-06
2.83273e-06
2.69316e-06
2.83631e-06
2.72108e-06
2.79819e-06
2.8341e-06
2.62947e-06
3.07455e-06
2.43746e-06
3.65653e-06
2.81013e-06
2.81013e-06
-0.0951917
0.0951917
0.0129494
0.00382744
0.00190668
0.00116838
0.00079377
0.000573897
0.000433052
0.000337664
0.000269998
0.000219477
0.000180302
0.000149934
0.000126693
0.000107927
9.0279e-05
7.14566e-05
5.15556e-05
3.26841e-05
1.73042e-05
6.66417e-06
3.22688e-07
-3.25544e-06
-5.72858e-06
-8.19309e-06
-1.10129e-05
-1.40232e-05
-1.68509e-05
-1.91671e-05
-2.08054e-05
-2.17678e-05
-2.21696e-05
-2.21713e-05
-2.19264e-05
-2.15544e-05
-2.11335e-05
-2.07067e-05
-2.02926e-05
-1.98954e-05
-1.95127e-05
-1.91397e-05
-1.87723e-05
-1.8407e-05
-1.80417e-05
-1.76753e-05
-1.73072e-05
-1.69374e-05
-1.65661e-05
-1.61934e-05
-1.58198e-05
-1.54456e-05
-1.50712e-05
-1.46969e-05
-1.43232e-05
-1.39503e-05
-1.35785e-05
-1.32083e-05
-1.28399e-05
-1.24737e-05
-1.21099e-05
-1.17488e-05
-1.13907e-05
-1.10359e-05
-1.06846e-05
-1.03372e-05
-9.9937e-06
-9.65448e-06
-9.31973e-06
-8.98963e-06
-8.66439e-06
-8.34418e-06
-8.02916e-06
-7.71949e-06
-7.4153e-06
-7.11673e-06
-6.8239e-06
-6.53691e-06
-6.25584e-06
-5.98079e-06
-5.71181e-06
-5.44897e-06
-5.19231e-06
-4.94187e-06
-4.69767e-06
-4.45972e-06
-4.22802e-06
-4.00257e-06
-3.78336e-06
-3.57034e-06
-3.36349e-06
-3.16277e-06
-2.96812e-06
-2.77948e-06
-2.59678e-06
-2.41996e-06
-2.24893e-06
-2.0836e-06
-1.92389e-06
-1.76969e-06
-1.62091e-06
-1.47743e-06
-1.33916e-06
-1.20597e-06
-1.07775e-06
-9.54377e-07
-8.3574e-07
-7.21707e-07
-6.12161e-07
-5.0697e-07
-4.06015e-07
-3.09163e-07
-2.16294e-07
-1.27275e-07
-4.19876e-08
3.96999e-08
1.17905e-07
1.92757e-07
2.64371e-07
3.32872e-07
3.98372e-07
4.60994e-07
5.20844e-07
5.7804e-07
6.32684e-07
6.8489e-07
7.34755e-07
7.82386e-07
8.27875e-07
8.71324e-07
9.1282e-07
9.52457e-07
9.90318e-07
1.02649e-06
1.06105e-06
1.09409e-06
1.12566e-06
1.15586e-06
1.18473e-06
1.21237e-06
1.23881e-06
1.26414e-06
1.2884e-06
1.31166e-06
1.33396e-06
1.35536e-06
1.3759e-06
1.39564e-06
1.41461e-06
1.43286e-06
1.45043e-06
1.46735e-06
1.48367e-06
1.4994e-06
1.5146e-06
1.52928e-06
1.54347e-06
1.55722e-06
1.57052e-06
1.58342e-06
1.59593e-06
1.60809e-06
1.61989e-06
1.63137e-06
1.64255e-06
1.65343e-06
1.66404e-06
1.67439e-06
1.68449e-06
1.69436e-06
1.704e-06
1.71344e-06
1.72268e-06
1.73173e-06
1.74059e-06
1.74929e-06
1.75783e-06
1.76621e-06
1.77444e-06
1.78253e-06
1.79048e-06
1.79831e-06
1.80601e-06
1.8136e-06
1.82107e-06
1.82844e-06
1.83569e-06
1.84286e-06
1.84992e-06
1.85689e-06
1.86377e-06
1.87057e-06
1.87728e-06
1.88391e-06
1.89046e-06
1.89695e-06
1.90335e-06
1.90969e-06
1.91596e-06
1.92216e-06
1.9283e-06
1.93438e-06
1.9404e-06
1.94636e-06
1.95226e-06
1.95811e-06
1.9639e-06
1.96964e-06
1.97533e-06
1.98097e-06
1.98657e-06
1.99211e-06
1.99761e-06
2.00307e-06
2.00848e-06
2.01386e-06
2.01919e-06
2.02448e-06
2.02973e-06
2.03494e-06
2.04012e-06
2.04526e-06
2.05037e-06
2.05544e-06
2.06048e-06
2.06549e-06
2.07046e-06
2.07541e-06
2.08033e-06
2.08521e-06
2.09007e-06
2.09491e-06
2.09971e-06
2.10449e-06
2.10925e-06
2.11398e-06
2.11869e-06
2.12338e-06
2.12804e-06
2.13268e-06
2.1373e-06
2.14191e-06
2.14649e-06
2.15106e-06
2.1556e-06
2.16014e-06
2.16465e-06
2.16915e-06
2.17363e-06
2.1781e-06
2.18255e-06
2.187e-06
2.19142e-06
2.19584e-06
2.20025e-06
2.20464e-06
2.20902e-06
2.2134e-06
2.21776e-06
2.22212e-06
2.22647e-06
2.23081e-06
2.23514e-06
2.23947e-06
2.24379e-06
2.2481e-06
2.25241e-06
2.25672e-06
2.26102e-06
2.26532e-06
2.26962e-06
2.27391e-06
2.2782e-06
2.2825e-06
2.28679e-06
2.29108e-06
2.29537e-06
2.29966e-06
2.30395e-06
2.30824e-06
2.31254e-06
2.31684e-06
2.32114e-06
2.32545e-06
2.32975e-06
2.33407e-06
2.33839e-06
2.34271e-06
2.34704e-06
2.35138e-06
2.35572e-06
2.36007e-06
2.36443e-06
2.36879e-06
2.37317e-06
2.37755e-06
2.38194e-06
2.38635e-06
2.39076e-06
2.39519e-06
2.39962e-06
2.40407e-06
2.40853e-06
2.413e-06
2.41749e-06
2.42199e-06
2.4265e-06
2.43102e-06
2.43556e-06
2.44012e-06
2.44469e-06
2.44928e-06
2.45389e-06
2.45851e-06
2.46315e-06
2.46781e-06
2.47248e-06
2.47718e-06
2.48189e-06
2.48662e-06
2.49138e-06
2.49615e-06
2.50094e-06
2.50576e-06
2.5106e-06
2.51546e-06
2.52034e-06
2.52525e-06
2.53017e-06
2.53513e-06
2.5401e-06
2.54511e-06
2.55013e-06
2.55519e-06
2.56027e-06
2.56537e-06
2.57051e-06
2.57567e-06
2.58085e-06
2.58607e-06
2.59132e-06
2.59659e-06
2.6019e-06
2.60723e-06
2.6126e-06
2.61799e-06
2.62342e-06
2.62888e-06
2.63437e-06
2.6399e-06
2.64545e-06
2.65104e-06
2.65667e-06
2.66233e-06
2.66802e-06
2.67375e-06
2.67951e-06
2.68531e-06
2.69114e-06
2.69701e-06
2.70292e-06
2.70887e-06
2.71485e-06
2.72087e-06
2.72692e-06
2.73302e-06
2.73915e-06
2.74532e-06
2.75153e-06
2.75778e-06
2.76409e-06
2.77036e-06
2.77687e-06
2.78292e-06
2.79024e-06
2.7947e-06
2.80569e-06
2.80287e-06
2.82823e-06
2.79941e-06
2.86936e-06
2.76993e-06
2.94345e-06
2.70567e-06
3.04571e-06
2.63131e-06
3.13104e-06
2.60002e-06
3.15853e-06
2.61936e-06
3.14492e-06
2.6916e-06
2.98223e-06
3.07394e-06
2.33007e-06
3.94642e-06
1.57668e-06
6.00633e-06
2.95423e-06
2.95423e-06
-0.125268
0.125268
0.0249068
0.00832701
0.00424596
0.00262899
0.00180078
0.00131229
0.000998397
0.000785262
0.00063367
0.000520299
0.000432424
0.000364301
0.000311864
0.000268997
0.0002284
0.000185435
0.000140693
9.88767e-05
6.51284e-05
4.18023e-05
2.76598e-05
1.92802e-05
1.31408e-05
7.00366e-06
1.96369e-07
-6.87087e-06
-1.33971e-05
-1.87119e-05
-2.25057e-05
-2.48244e-05
-2.59428e-05
-2.62192e-05
-2.59871e-05
-2.55005e-05
-2.49233e-05
-2.43438e-05
-2.37989e-05
-2.32959e-05
-2.28282e-05
-2.23853e-05
-2.19575e-05
-2.15374e-05
-2.11202e-05
-2.07032e-05
-2.0285e-05
-1.98651e-05
-1.94435e-05
-1.90205e-05
-1.85964e-05
-1.81718e-05
-1.7747e-05
-1.73225e-05
-1.68988e-05
-1.64762e-05
-1.60552e-05
-1.56361e-05
-1.52193e-05
-1.48052e-05
-1.43941e-05
-1.39863e-05
-1.35822e-05
-1.31821e-05
-1.27862e-05
-1.23948e-05
-1.20082e-05
-1.16266e-05
-1.12503e-05
-1.08795e-05
-1.05143e-05
-1.0155e-05
-9.80177e-06
-9.45472e-06
-9.11403e-06
-8.77981e-06
-8.4522e-06
-8.13129e-06
-7.81717e-06
-7.50992e-06
-7.20961e-06
-6.91627e-06
-6.62997e-06
-6.35071e-06
-6.07851e-06
-5.81338e-06
-5.55531e-06
-5.30427e-06
-5.06024e-06
-4.82317e-06
-4.59303e-06
-4.36974e-06
-4.15326e-06
-3.94348e-06
-3.74034e-06
-3.54375e-06
-3.35361e-06
-3.1698e-06
-2.99225e-06
-2.82081e-06
-2.65538e-06
-2.49584e-06
-2.34205e-06
-2.19389e-06
-2.05123e-06
-1.91392e-06
-1.78184e-06
-1.65484e-06
-1.53279e-06
-1.41554e-06
-1.30296e-06
-1.19489e-06
-1.09121e-06
-9.91756e-07
-8.96414e-07
-8.05025e-07
-7.17467e-07
-6.33589e-07
-5.53271e-07
-4.76368e-07
-4.02764e-07
-3.32316e-07
-2.64915e-07
-2.00423e-07
-1.38736e-07
-7.9723e-08
-2.32839e-08
3.0706e-08
8.23396e-08
1.31736e-07
1.78981e-07
2.24188e-07
2.67437e-07
3.08833e-07
3.4845e-07
3.86389e-07
4.22715e-07
4.57523e-07
4.90872e-07
5.22851e-07
5.53514e-07
5.82943e-07
6.11185e-07
6.38316e-07
6.64381e-07
6.89448e-07
7.13557e-07
7.3677e-07
7.59123e-07
7.80674e-07
8.01453e-07
8.21514e-07
8.40882e-07
8.59609e-07
8.77713e-07
8.95244e-07
9.12217e-07
9.28676e-07
9.44634e-07
9.60133e-07
9.75182e-07
9.89819e-07
1.00405e-06
1.01791e-06
1.03141e-06
1.04458e-06
1.05742e-06
1.06996e-06
1.0822e-06
1.09417e-06
1.10587e-06
1.11733e-06
1.12855e-06
1.13954e-06
1.15031e-06
1.16088e-06
1.17124e-06
1.18142e-06
1.19142e-06
1.20124e-06
1.2109e-06
1.2204e-06
1.22974e-06
1.23894e-06
1.24799e-06
1.25691e-06
1.26569e-06
1.27436e-06
1.28289e-06
1.29131e-06
1.29961e-06
1.30781e-06
1.3159e-06
1.32388e-06
1.33176e-06
1.33955e-06
1.34724e-06
1.35485e-06
1.36235e-06
1.36978e-06
1.37712e-06
1.38438e-06
1.39156e-06
1.39867e-06
1.40569e-06
1.41265e-06
1.41953e-06
1.42635e-06
1.4331e-06
1.43978e-06
1.44639e-06
1.45295e-06
1.45944e-06
1.46588e-06
1.47225e-06
1.47858e-06
1.48484e-06
1.49105e-06
1.49721e-06
1.50332e-06
1.50937e-06
1.51539e-06
1.52135e-06
1.52727e-06
1.53314e-06
1.53897e-06
1.54475e-06
1.5505e-06
1.5562e-06
1.56187e-06
1.56749e-06
1.57309e-06
1.57864e-06
1.58416e-06
1.58964e-06
1.5951e-06
1.60052e-06
1.60591e-06
1.61127e-06
1.6166e-06
1.6219e-06
1.62718e-06
1.63243e-06
1.63765e-06
1.64285e-06
1.64803e-06
1.65318e-06
1.65831e-06
1.66342e-06
1.66851e-06
1.67358e-06
1.67863e-06
1.68366e-06
1.68868e-06
1.69368e-06
1.69867e-06
1.70363e-06
1.70859e-06
1.71353e-06
1.71847e-06
1.72338e-06
1.72829e-06
1.73318e-06
1.73807e-06
1.74295e-06
1.74782e-06
1.75268e-06
1.75754e-06
1.76239e-06
1.76724e-06
1.77207e-06
1.77691e-06
1.78174e-06
1.78657e-06
1.7914e-06
1.79623e-06
1.80105e-06
1.80588e-06
1.8107e-06
1.81553e-06
1.82036e-06
1.8252e-06
1.83003e-06
1.83487e-06
1.83971e-06
1.84456e-06
1.84941e-06
1.85427e-06
1.85914e-06
1.86401e-06
1.86889e-06
1.87379e-06
1.87868e-06
1.8836e-06
1.88851e-06
1.89345e-06
1.89839e-06
1.90335e-06
1.90831e-06
1.91329e-06
1.91829e-06
1.9233e-06
1.92832e-06
1.93336e-06
1.93842e-06
1.94349e-06
1.94858e-06
1.95369e-06
1.95882e-06
1.96397e-06
1.96913e-06
1.97432e-06
1.97952e-06
1.98476e-06
1.99e-06
1.99528e-06
2.00057e-06
2.0059e-06
2.01124e-06
2.01661e-06
2.022e-06
2.02742e-06
2.03287e-06
2.03834e-06
2.04384e-06
2.04937e-06
2.05493e-06
2.06052e-06
2.06613e-06
2.07179e-06
2.07746e-06
2.08317e-06
2.08891e-06
2.09469e-06
2.1005e-06
2.10634e-06
2.11221e-06
2.11813e-06
2.12407e-06
2.13006e-06
2.13607e-06
2.14213e-06
2.14822e-06
2.15435e-06
2.16052e-06
2.16673e-06
2.17297e-06
2.17927e-06
2.18559e-06
2.19196e-06
2.19837e-06
2.20482e-06
2.21131e-06
2.21785e-06
2.22443e-06
2.23106e-06
2.23772e-06
2.24443e-06
2.25118e-06
2.25799e-06
2.26483e-06
2.27172e-06
2.27865e-06
2.28564e-06
2.29266e-06
2.29973e-06
2.30685e-06
2.31401e-06
2.32122e-06
2.32847e-06
2.33581e-06
2.34305e-06
2.35073e-06
2.35743e-06
2.36671e-06
2.37008e-06
2.38688e-06
2.37502e-06
2.42172e-06
2.35538e-06
2.49564e-06
2.28035e-06
2.63982e-06
2.13019e-06
2.84543e-06
1.95629e-06
3.01654e-06
1.87349e-06
3.06303e-06
1.90027e-06
3.02173e-06
2.03478e-06
2.67233e-06
2.81936e-06
1.27945e-06
4.66399e-06
-3.45039e-07
8.87589e-06
2.573e-06
2.573e-06
-0.146462
0.146462
0.0382799
0.0142004
0.00742054
0.00463637
0.00319334
0.00233728
0.00178526
0.00140942
0.00114144
0.00094075
0.000785231
0.000664651
0.000571394
0.000494421
0.000421185
0.000344207
0.000265056
0.00019197
0.000133477
9.30951e-05
6.8292e-05
5.30672e-05
4.14837e-05
2.99042e-05
1.73428e-05
4.5781e-06
-7.02876e-06
-1.63916e-05
-2.30553e-05
-2.71605e-05
-2.92174e-05
-2.98576e-05
-2.96549e-05
-2.90399e-05
-2.8286e-05
-2.75389e-05
-2.68574e-05
-2.62512e-05
-2.57079e-05
-2.52091e-05
-2.47379e-05
-2.42816e-05
-2.3832e-05
-2.33841e-05
-2.29355e-05
-2.24851e-05
-2.20328e-05
-2.15787e-05
-2.11233e-05
-2.0667e-05
-2.02105e-05
-1.97542e-05
-1.92987e-05
-1.88444e-05
-1.83918e-05
-1.79412e-05
-1.74933e-05
-1.70482e-05
-1.66065e-05
-1.61685e-05
-1.57345e-05
-1.53048e-05
-1.48798e-05
-1.44597e-05
-1.40449e-05
-1.36356e-05
-1.32321e-05
-1.28345e-05
-1.24432e-05
-1.20582e-05
-1.16798e-05
-1.13082e-05
-1.09434e-05
-1.05857e-05
-1.02351e-05
-9.89174e-06
-9.55574e-06
-9.22714e-06
-8.90603e-06
-8.59242e-06
-8.28638e-06
-7.9879e-06
-7.69702e-06
-7.4137e-06
-7.13796e-06
-6.86974e-06
-6.60902e-06
-6.35575e-06
-6.10988e-06
-5.87132e-06
-5.64002e-06
-5.41587e-06
-5.1988e-06
-4.98869e-06
-4.78546e-06
-4.58897e-06
-4.39912e-06
-4.21577e-06
-4.03881e-06
-3.86809e-06
-3.70349e-06
-3.54485e-06
-3.39205e-06
-3.24492e-06
-3.10335e-06
-2.96714e-06
-2.83619e-06
-2.71032e-06
-2.5894e-06
-2.47325e-06
-2.36175e-06
-2.25473e-06
-2.15206e-06
-2.05357e-06
-1.95914e-06
-1.8686e-06
-1.78183e-06
-1.69868e-06
-1.61902e-06
-1.5427e-06
-1.46961e-06
-1.3996e-06
-1.33256e-06
-1.26836e-06
-1.20688e-06
-1.14801e-06
-1.09163e-06
-1.03763e-06
-9.85912e-07
-9.36358e-07
-8.88891e-07
-8.4339e-07
-7.99787e-07
-7.57968e-07
-7.17873e-07
-6.79393e-07
-6.42476e-07
-6.07019e-07
-5.72975e-07
-5.4025e-07
-5.08801e-07
-4.7854e-07
-4.49431e-07
-4.21391e-07
-3.9439e-07
-3.68351e-07
-3.43247e-07
-3.19008e-07
-2.95611e-07
-2.7299e-07
-2.51128e-07
-2.29963e-07
-2.09482e-07
-1.89626e-07
-1.70387e-07
-1.5171e-07
-1.3359e-07
-1.15974e-07
-9.88613e-08
-8.22028e-08
-6.59998e-08
-5.02058e-08
-3.48249e-08
-1.98131e-08
-5.1768e-09
9.12587e-09
2.30864e-08
3.67447e-08
5.00904e-08
6.31615e-08
7.59462e-08
8.84809e-08
1.00752e-07
1.12796e-07
1.24596e-07
1.36187e-07
1.47554e-07
1.58729e-07
1.69696e-07
1.80485e-07
1.91081e-07
2.01513e-07
2.11764e-07
2.21864e-07
2.31794e-07
2.41583e-07
2.51213e-07
2.60712e-07
2.7006e-07
2.79287e-07
2.88371e-07
2.97341e-07
3.06177e-07
3.14905e-07
3.23506e-07
3.32007e-07
3.40386e-07
3.4867e-07
3.56839e-07
3.6492e-07
3.72889e-07
3.80776e-07
3.88556e-07
3.96258e-07
4.03859e-07
4.11386e-07
4.18816e-07
4.26177e-07
4.33444e-07
4.40646e-07
4.47759e-07
4.54809e-07
4.61775e-07
4.68682e-07
4.75507e-07
4.82278e-07
4.88969e-07
4.9561e-07
5.02175e-07
5.08691e-07
5.15135e-07
5.21534e-07
5.27864e-07
5.34151e-07
5.40372e-07
5.46553e-07
5.5267e-07
5.58751e-07
5.64771e-07
5.70756e-07
5.76683e-07
5.82578e-07
5.88418e-07
5.94228e-07
5.99986e-07
6.05716e-07
6.11395e-07
6.17049e-07
6.22656e-07
6.28239e-07
6.33777e-07
6.39294e-07
6.44767e-07
6.50223e-07
6.55636e-07
6.61033e-07
6.66391e-07
6.71735e-07
6.77041e-07
6.82336e-07
6.87595e-07
6.92844e-07
6.98059e-07
7.03266e-07
7.08442e-07
7.13612e-07
7.18752e-07
7.23887e-07
7.28995e-07
7.34101e-07
7.3918e-07
7.44259e-07
7.49314e-07
7.5437e-07
7.59403e-07
7.6444e-07
7.69455e-07
7.74476e-07
7.79477e-07
7.84485e-07
7.89476e-07
7.94474e-07
7.99457e-07
8.0445e-07
8.09429e-07
8.14419e-07
8.19396e-07
8.24387e-07
8.29366e-07
8.34361e-07
8.39346e-07
8.44347e-07
8.4934e-07
8.54352e-07
8.59357e-07
8.64381e-07
8.69401e-07
8.74441e-07
8.79478e-07
8.84538e-07
8.89596e-07
8.94678e-07
8.99759e-07
9.04866e-07
9.09974e-07
9.15109e-07
9.20247e-07
9.25412e-07
9.30582e-07
9.35782e-07
9.40988e-07
9.46224e-07
9.51468e-07
9.56744e-07
9.62028e-07
9.67347e-07
9.72675e-07
9.78039e-07
9.83414e-07
9.88826e-07
9.94251e-07
9.99714e-07
1.00519e-06
1.01071e-06
1.01624e-06
1.02181e-06
1.0274e-06
1.03304e-06
1.03869e-06
1.04438e-06
1.0501e-06
1.05585e-06
1.06163e-06
1.06746e-06
1.07331e-06
1.07921e-06
1.08513e-06
1.0911e-06
1.09709e-06
1.10314e-06
1.10921e-06
1.11533e-06
1.12148e-06
1.12769e-06
1.13392e-06
1.14021e-06
1.14653e-06
1.1529e-06
1.1593e-06
1.16576e-06
1.17226e-06
1.17881e-06
1.1854e-06
1.19204e-06
1.19872e-06
1.20546e-06
1.21223e-06
1.21907e-06
1.22594e-06
1.23288e-06
1.23985e-06
1.24689e-06
1.25396e-06
1.2611e-06
1.26827e-06
1.27552e-06
1.2828e-06
1.29014e-06
1.29752e-06
1.30497e-06
1.31246e-06
1.32002e-06
1.32761e-06
1.33527e-06
1.34297e-06
1.35072e-06
1.35853e-06
1.36637e-06
1.37434e-06
1.38213e-06
1.39061e-06
1.39746e-06
1.40852e-06
1.40979e-06
1.43329e-06