# vtk DataFile Version 2.0
FlowField
ASCII
DATASET STRUCTURED_GRID
DIMENSIONS 400 1 200
POINTS 80000 float
0 0 0
0.08 0 0
0.16 0 0
0.24 0 0
0.32 0 0
0.4 0 0
0.48 0 0
0.56 0 0
0.64 0 0
0.72 0 0
0.8 0 0
0.88 0 0
0.96 0 0
1.04 0 0
1.12 0 0
1.2 0 0
1.28 0 0
1.36 0 0
1.44 0 0
1.52 0 0
1.6 0 0
1.68 0 0
1.76 0 0
1.84 0 0
1.92 0 0
2 0 0
2.08 0 0
2.16 0 0
2.24 0 0
2.32 0 0
2.4 0 0
2.48 0 0
2.56 0 0
2.64 0 0
2.72 0 0
2.8 0 0
2.88 0 0
2.96 0 0
3.04 0 0
3.12 0 0
3.2 0 0
3.28 0 0
3.36 0 0
3.44 0 0
3.52 0 0
3.6 0 0
3.68 0 0
3.76 0 0
3.84 0 0
3.92 0 0
4 0 0
4.08 0 0
4.16 0 0
4.24 0 0
4.32 0 0
4.4 0 0
4.48 0 0
4.56 0 0
4.64 0 0
4.72 0 0
4.8 0 0
4.88 0 0
4.96 0 0
5.04 0 0
5.12 0 0
5.2 0 0
5.28 0 0
5.36 0 0
5.44 0 0
5.52 0 0
5.6 0 0
5.68 0 0
5.76 0 0
5.84 0 0
5.92 0 0
6 0 0
6.08 0 0
6.16 0 0
6.24 0 0
6.32 0 0
6.4 0 0
6.48 0 0
6.56 0 0
6.64 0 0
6.72 0 0
6.8 0 0
6.88 0 0
6.96 0 0
7.04 0 0
7.12 0 0
7.2 0 0
7.28 0 0
7.36 0 0
7.44 0 0
7.52 0 0
7.6 0 0
7.68 0 0
7.76 0 0
7.84 0 0
7.92 0 0
8 0 0
8.08 0 0
8.16 0 0
8.24 0 0
8.32 0 0
8.4 0 0
8.48 0 0
8.56 0 0
8.64 0 0
8.72 0 0
8.8 0 0
8.88 0 0
8.96 0 0
9.04 0 0
9.12 0 0
9.2 0 0
9.28 0 0
9.36 0 0
9.44 0 0
9.52 0 0
9.6 0 0
9.68 0 0
9.76 0 0
9.84 0 0
9.92 0 0
10 0 0
10.08 0 0
10.16 0 0
10.24 0 0
10.32 0 0
10.4 0 0
10.48 0 0
10.56 0 0
10.64 0 0
10.72 0 0
10.8 0 0
10.88 0 0
10.96 0 0
11.04 0 0
11.12 0 0
11.2 0 0
11.28 0 0
11.36 0 0
11.44 0 0
11.52 0 0
11.6 0 0
11.68 0 0
11.76 0 0
11.84 0 0
11.92 0 0
12 0 0
12.08 0 0
12.16 0 0
12.24 0 0
12.32 0 0
12.4 0 0
12.48 0 0
12.56 0 0
12.64 0 0
12.72 0 0
12.8 0 0
12.88 0 0
12.96 0 0
13.04 0 0
13.12 0 0
13.2 0 0
13.28 0 0
13.36 0 0
13.44 0 0
13.52 0 0
13.6 0 0
13.68 0 0
13.76 0 0
13.84 0 0
13.92 0 0
14 0 0
14.08 0 0
14.16 0 0
14.24 0 0
14.32 0 0
14.4 0 0
14.48 0 0
14.56 0 0
14.64 0 0
14.72 0 0
14.8 0 0
14.88 0 0
14.96 0 0
15.04 0 0
15.12 0 0
15.2 0 0
15.28 0 0
15.36 0 0
15.44 0 0
15.52 0 0
15.6 0 0
15.68 0 0
15.76 0 0
15.84 0 0
15.92 0 0
16 0 0
16.08 0 0
16.16 0 0
16.24 0 0
16.32 0 0
16.4 0 0
16.48 0 0
16.56 0 0
16.64 0 0
16.72 0 0
16.8 0 0
16.88 0 0
16.96 0 0
17.04 0 0
17.12 0 0
17.2 0 0
17.28 0 0
17.36 0 0
17.44 0 0
17.52 0 0
17.6 0 0
17.68 0 0
17.76 0 0
17.84 0 0
17.92 0 0
18 0 0
18.08 0 0
18.16 0 0
18.24 0 0
18.32 0 0
18.4 0 0
18.48 0 0
18.56 0 0
18.64 0 0
18.72 0 0
18.8 0 0
18.88 0 0
18.96 0 0
19.04 0 0
19.12 0 0
19.2 0 0
19.28 0 0
19.36 0 0
19.44 0 0
19.52 0 0
19.6 0 0
19.68 0 0
19.76 0 0
19.84 0 0
19.92 0 0
20 0 0
20.08 0 0
20.16 0 0
20.24 0 0
20.32 0 0
20.4 0 0
20.48 0 0
20.56 0 0
20.64 0 0
20.72 0 0
20.8 0 0
20.88 0 0
20.96 0 0
21.04 0 0
21.12 0 0
21.2 0 0
21.28 0 0
21.36 0 0
21.44 0 0
21.52 0 0
21.6 0 0
21.68 0 0
21.76 0 0
21.84 0 0
21.92 0 0
22 0 0
22.08 0 0
22.16 0 0
22.24 0 0
22.32 0 0
22.4 0 0
22.48 0 0
22.56 0 0
22.64 0 0
22.72 0 0
22.8 0 0
22.88 0 0
22.96 0 0
23.04 0 0
23.12 0 0
23.2 0 0
23.28 0 0
23.36 0 0
23.44 0 0
23.52 0 0
23.6 0 0
23.68 0 0
23.76 0 0
23.84 0 0
23.92 0 0
24 0 0
24.08 0 0
24.16 0 0
24.24 0 0
24.32 0 0
24.4 0 0
24.48 0 0
24.56 0 0
24.64 0 0
24.72 0 0
24.8 0 0
24.88 0 0
24.96 0 0
25.04 0 0
25.12 0 0
25.2 0 0
25.28 0 0
25.36 0 0
25.44 0 0
25.52 0 0
25.6 0 0
25.68 0 0
25.76 0 0
25.84 0 0
25.92 0 0
26 0 0
26.08 0 0
26.16 0 0
26.24 0 0
26.32 0 0
26.4 0 0
26.48 0 0
26.56 0 0
26.64 0 0
26.72 0 0
26.8 0 0
26.88 0 0
26.96 0 0
27.04 0 0
27.12 0 0
27.2 0 0
27.28 0 0
27.36 0 0
27.44 0 0
27.52 0 0
27.6 0 0
27.68 0 0
27.76 0 0
27.84 0 0
27.92 0 0
28 0 0
28.08 0 0
28.16 0 0
28.24 0 0
28.32 0 0
28.4 0 0
28.48 0 0
28.56 0 0
28.64 0 0
28.72 0 0
28.8 0 0
28.88 0 0
28.96 0 0
29.04 0 0
29.12 0 0
29.2 0 0
29.28 0 0
29.36 0 0
29.44 0 0
29.52 0 0
29.6 0 0
29.68 0 0
29.76 0 0
29.84 0 0
29.92 0 0
30 0 0
30.08 0 0
30.16 0 0
30.24 0 0
30.32 0 0
30.4 0 0
30.48 0 0
30.56 0 0
30.64 0 0
30.72 0 0
30.8 0 0
30.88 0 0
30.96 0 0
31.04 0 0
31.12 0 0
31.2 0 0
31.28 0 0
31.36 0 0
31.44 0 0
31.52 0 0
31.6 0 0
31.68 0 0
31.76 0 0
31.84 0 0
31.92 0 0
0 0.005 0
0.08 0.005 0
0.16 0.005 0
0.24 0.005 0
0.32 0.005 0
0.4 0.005 0
0.48 0.005 0
0.56 0.005 0
0.64 0.005 0
0.72 0.005 0
0.8 0.005 0
0.88 0.005 0
0.96 0.005 0
1.04 0.005 0
1.12 0.005 0
1.2 0.005 0
1.28 0.005 0
1.36 0.005 0
1.44 0.005 0
1.52 0.005 0
1.6 0.005 0
1.68 0.005 0
1.76 0.005 0
1.84 0.005 0
1.92 0.005 0
2 0.005 0
2.08 0.005 0
2.16 0.005 0
2.24 0.005 0
2.32 0.005 0
2.4 0.005 0
2.48 0.005 0
2.56 0.005 0
2.64 0.005 0
2.72 0.005 0
2.8 0.005 0
2.88 0.005 0
2.96 0.005 0
3.04 0.005 0
3.12 0.005 0
3.2 0.005 0
3.28 0.005 0
3.36 0.005 0
3.44 0.005 0
3.52 0.005 0
3.6 0.005 0
3.68 0.005 0
3.76 0.005 0
3.84 0.005 0
3.92 0.005 0
4 0.005 0
4.08 0.005 0
4.16 0.005 0
4.24 0.005 0
4.32 0.005 0
4.4 0.005 0
4.48 0.005 0
4.56 0.005 0
4.64 0.005 0
4.72 0.005 0
4.8 0.005 0
4.88 0.005 0
4.96 0.005 0
5.04 0.005 0
5.12 0.005 0
5.2 0.005 0
5.28 0.005 0
5.36 0.005 0
5.44 0.005 0
5.52 0.005 0
5.6 0.005 0
5.68 0.005 0
5.76 0.005 0
5.84 0.005 0
5.92 0.005 0
6 0.005 0
6.08 0.005 0
6.16 0.005 0
6.24 0.005 0
6.32 0.005 0
6.4 0.005 0
6.48 0.005 0
6.56 0.005 0
6.64 0.005 0
6.72 0.005 0
6.8 0.005 0
6.88 0.005 0
6.96 0.005 0
7.04 0.005 0
7.12 0.005 0
7.2 0.005 0
7.28 0.005 0
7.36 0.005 0
7.44 0.005 0
7.52 0.005 0
7.6 0.005 0
7.68 0.005 0
7.76 0.005 0
7.84 0.005 0
7.92 0.005 0
8 0.005 0
8.08 0.005 0
8.16 0.005 0
8.24 0.005 0
8.32 0.005 0
8.4 0.005 0
8.48 0.005 0
8.56 0.005 0
8.64 0.005 0
8.72 0.005 0
8.8 0.005 0
8.88 0.005 0
8.96 0.005 0
9.04 0.005 0
9.12 0.005 0
9.2 0.005 0
9.28 0.005 0
9.36 0.005 0
9.44 0.005 0
9.52 0.005 0
9.6 0.005 0
9.68 0.005 0
9.76 0.005 0
9.84 0.005 0
9.92 0.005 0
10 0.005 0
10.08 0.005 0
10.16 0.005 0
10.24 0.005 0
10.32 0.005 0
10.4 0.005 0
10.48 0.005 0
10.56 0.005 0
10.64 0.005 0
10.72 0.005 0
10.8 0.005 0
10.88 0.005 0
10.96 0.005 0
11.04 0.005 0
11.12 0.005 0
11.2 0.005 0
11.28 0.005 0
11.36 0.005 0
11.44 0.005 0
11.52 0.005 0
11.6 0.005 0
11.68 0.005 0
11.76 0.005 0
11.84 0.005 0
11.92 0.005 0
12 0.005 0
12.08 0.005 0
12.16 0.005 0
12.24 0.005 0
12.32 0.005 0
12.4 0.005 0
12.48 0.005 0
12.56 0.005 0
12.64 0.005 0
12.72 0.005 0
12.8 0.005 0
12.88 0.005 0
12.96 0.005 0
13.04 0.005 0
13.12 0.005 0
13.2 0.005 0
13.28 0.005 0
13.36 0.005 0
13.44 0.005 0
13.52 0.005 0
13.6 0.005 0
13.68 0.005 0
13.76 0.005 0
13.84 0.005 0
13.92 0.005 0
14 0.005 0
14.08 0.005 0
14.16 0.005 0
14.24 0.005 0
14.32 0.005 0
14.4 0.005 0
14.48 0.005 0
14.56 0.005 0
14.64 0.005 0
14.72 0.005 0
14.8 0.005 0
14.88 0.005 0
14.96 0.005 0
15.04 0.005 0
15.12 0.005 0
15.2 0.005 0
15.28 0.005 0
15.36 0.005 0
15.44 0.005 0
15.52 0.005 0
15.6 0.005 0
15.68 0.005 0
15.76 0.005 0
15.84 0.005 0
15.92 0.005 0
16 0.005 0
16.08 0.005 0
16.16 0.005 0
16.24 0.005 0
16.32 0.005 0
16.4 0.005 0
16.48 0.005 0
16.56 0.005 0
16.64 0.005 0
16.72 0.005 0
16.8 0.005 0
16.88 0.005 0
16.96 0.005 0
17.04 0.005 0
17.12 0.005 0
17.2 0.005 0
17.28 0.005 0
17.36 0.005 0
17.44 0.005 0
17.52 0.005 0
17.6 0.005 0
17.68 0.005 0
17.76 0.005 0
17.84 0.005 0
17.92 0.005 0
18 0.005 0
18.08 0.005 0
18.16 0.005 0
18.24 0.005 0
18.32 0.005 0
18.4 0.005 0
18.48 0.005 0
18.56 0.005 0
18.64 0.005 0
18.72 0.005 0
18.8 0.005 0
18.88 0.005 0
18.96 0.005 0
19.04 0.005 0
19.12 0.005 0
19.2 0.005 0
19.28 0.005 0
19.36 0.005 0
19.44 0.005 0
19.52 0.005 0
19.6 0.005 0
19.68 0.005 0
19.76 0.005 0
19.84 0.005 0
19.92 0.005 0
20 0.005 0
20.08 0.005 0
20.16 0.005 0
20.24 0.005 0
20.32 0.005 0
20.4 0.005 0
20.48 0.005 0
20.56 0.005 0
20.64 0.005 0
20.72 0.005 0
20.8 0.005 0
20.88 0.005 0
20.96 0.005 0
21.04 0.005 0
21.12 0.005 0
21.2 0.005 0
21.28 0.005 0
21.36 0.005 0
21.44 0.005 0
21.52 0.005 0
21.6 0.005 0
21.68 0.005 0
21.76 0.005 0
21.84 0.005 0
21.92 0.005 0
22 0.005 0
22.08 0.005 0
22.16 0.005 0
22.24 0.005 0
22.32 0.005 0
22.4 0.005 0
22.48 0.005 0
22.56 0.005 0
22.64 0.005 0
22.72 0.005 0
22.8 0.005 0
22.88 0.005 0
22.96 0.005 0
23.04 0.005 0
23.12 0.005 0
23.2 0.005 0
23.28 0.005 0
23.36 0.005 0
23.44 0.005 0
23.52 0.005 0
23.6 0.005 0
23.68 0.005 0
23.76 0.005 0
23.84 0.005 0
23.92 0.005 0
24 0.005 0
24.08 0.005 0
24.16 0.005 0
24.24 0.005 0
24.32 0.005 0
24.4 0.005 0
24.48 0.005 0
24.56 0.005 0
24.64 0.005 0
24.72 0.005 0
24.8 0.005 0
24.88 0.005 0
24.96 0.005 0
25.04 0.005 0
25.12 0.005 0
25.2 0.005 0
25.28 0.005 0
25.36 0.005 0
25.44 0.005 0
25.52 0.005 0
25.6 0.005 0
25.68 0.005 0
25.76 0.005 0
25.84 0.005 0
25.92 0.005 0
26 0.005 0
26.08 0.005 0
26.16 0.005 0
26.24 0.005 0
26.32 0.005 0
26.4 0.005 0
26.48 0.005 0
26.56 0.005 0
26.64 0.005 0
26.72 0.005 0
26.8 0.005 0
26.88 0.005 0
26.96 0.005 0
27.04 0.005 0
27.12 0.005 0
27.2 0.005 0
27.28 0.005 0
27.36 0.005 0
27.44 0.005 0
27.52 0.005 0
27.6 0.005 0
27.68 0.005 0
27.76 0.005 0
27.84 0.005 0
27.92 0.005 0
28 0.005 0
28.08 0.005 0
28.16 0.005 0
28.24 0.005 0
28.32 0.005 0
28.4 0.005 0
28.48 0.005 0
28.56 0.005 0
28.64 0.005 0
28.72 0.005 0
28.8 0.005 0
28.88 0.005 0
28.96 0.005 0
29.04 0.005 0
29.12 0.005 0
29.2 0.005 0
29.28 0.005 0
29.36 0.005 0
29.44 0.005 0
29.52 0.005 0
29.6 0.005 0
29.68 0.005 0
29.76 0.005 0
29.84 0.005 0
29.92 0.005 0
30 0.005 0
30.08 0.005 0
30.16 0.005 0
30.24 0.005 0
30.32 0.005 0
30.4 0.005 0
30.48 0.005 0
30.56 0.005 0
30.64 0.005 0
30.72 0.005 0
30.8 0.005 0
30.88 0.005 0
30.96 0.005 0
31.04 0.005 0
31.12 0.005 0
31.2 0.005 0
31.28 0.005 0
31.36 0.005 0
31.44 0.005 0
31.52 0.005 0
31.6 0.005 0
31.68 0.005 0
31.76 0.005 0
31.84 0.005 0
31.92 0.005 0
0 0.01 0
0.08 0.01 0
0.16 0.01 0
0.24 0.01 0
0.32 0.01 0
0.4 0.01 0
0.48 0.01 0
0.56 0.01 0
0.64 0.01 0
0.72 0.01 0
0.8 0.01 0
0.88 0.01 0
0.96 0.01 0
1.04 0.01 0
1.12 0.01 0
1.2 0.01 0
1.28 0.01 0
1.36 0.01 0
1.44 0.01 0
1.52 0.01 0
1.6 0.01 0
1.68 0.01 0
1.76 0.01 0
1.84 0.01 0
1.92 0.01 0
2 0.01 0
2.08 0.01 0
2.16 0.01 0
2.24 0.01 0
2.32 0.01 0
2.4 0.01 0
2.48 0.01 0
2.56 0.01 0
2.64 0.01 0
2.72 0.01 0
2.8 0.01 0
2.88 0.01 0
2.96 0.01 0
3.04 0.01 0
3.12 0.01 0
3.2 0.01 0
3.28 0.01 0
3.36 0.01 0
3.44 0.01 0
3.52 0.01 0
3.6 0.01 0
3.68 0.01 0
3.76 0.01 0
3.84 0.01 0
3.92 0.01 0
4 0.01 0
4.08 0.01 0
4.16 0.01 0
4.24 0.01 0
4.32 0.01 0
4.4 0.01 0
4.48 0.01 0
4.56 0.01 0
4.64 0.01 0
4.72 0.01 0
4.8 0.01 0
4.88 0.01 0
4.96 0.01 0
5.04 0.01 0
5.12 0.01 0
[...]
POINT_DATA 80000

SCALARS v float 1
LOOKUP_TABLE default
0
0
0
0
0
0
0
0
0
0
0
0
0
0
0
0
0
0
0
0
0
0
0
0
0
0
0
0
0
0
0
0
0
0
0
0
0
0
0
0
0
0
0
0
0
0
0
0
0
0
0
0
0
0
0
0
0
0
0
0
0
0
0
0
0
0
0
0
0
0
0
0
0
0
0
0
0
0
0
0
0
0
0
0
0
0
0
0
0
0
0
0
0
0
0
0
0
0
0
0
0
0
0
0
0
0
0
0
0
0
0
0
0
0
0
0
0
0
0
0
0
0
0
0
0
0
0
0
0
0
0
0
0
0
0
0
0
0
0
0
0
0
0
0
0
0
0
0
0
0
0
0
0
0
0
0
0
0
0
0
0
0
0
0
0
0
0
0
0
0
0
0
0
0
0
0
0
0
0
0
0
0
0
0
0
0
0
0
0
0
0
0
0
0
0
0
0
0
0
0
0
0
0
0
0
0
0
0
0
0
0
0
0
0
0
0
0
0
0
0
0
0
0
0
0
0
0
0
0
0
0
0
0
0
0
0
0
0
0
0
0
0
0
0
0
0
0
0
0
0
0
0
0
0
0
0
0
0
0
0
0
0
0
0
0
0
0
0
0
0
0
0
0
0
0
0
0
0
0
0
0
0
0
0
0
0
0
0
0
0
0
0
0
0
0
0
0
0
0
0
0
0
0
0
0
0
0
0
0
0
0
0
0
0
0
0
0
0
0
0
0
0
0
0
0
0
0
0
0
0
0
0
0
0
0
0
0
0
0
0
0
0
0
0
0
0
0
0
0
0
0
0
0
0
0
0
0
0
0
0
0
0
0
0
0
0
0
0
0
0
0
0
0
0
0
0
0
0
0
0
0
0
0
0
0
0
0
0
0
0
0
0
0
0
0
0
0
0
0
0
-0.0542763
0.0542763
0.00396745
0.00100369
0.00049763
0.00030801
0.000212431
0.000156607
0.000121058
9.68301e-05
7.93054e-05
6.63113e-05
5.67689e-05
4.95534e-05
4.326e-05
3.68168e-05
3.00726e-05
2.36961e-05
1.85191e-05
1.49304e-05
1.27312e-05
1.13911e-05
1.03942e-05
9.43977e-06
8.45606e-06
7.50796e-06
6.69262e-06
6.07381e-06
5.66256e-06
5.42829e-06
5.32089e-06
5.28992e-06
5.29561e-06
5.31199e-06
5.3251e-06
5.32934e-06
5.32387e-06
5.30999e-06
5.28956e-06
5.26425e-06
5.23529e-06
5.20344e-06
5.16916e-06
5.13264e-06
5.09392e-06
5.05297e-06
5.0097e-06
4.964e-06
4.91575e-06
4.86482e-06
4.81108e-06
4.75439e-06
4.69462e-06
4.63163e-06
4.56528e-06
4.49545e-06
4.42199e-06
4.34477e-06
4.26366e-06
4.17852e-06
4.08923e-06
3.99565e-06
3.89766e-06
3.79515e-06
3.68798e-06
3.57605e-06
3.45925e-06
3.33748e-06
3.21064e-06
3.07865e-06
2.94142e-06
2.79889e-06
2.65098e-06
2.49765e-06
2.33886e-06
2.17458e-06
2.00477e-06
1.82945e-06
1.64862e-06
1.46229e-06
1.2705e-06
1.0733e-06
8.70755e-07
6.62947e-07
4.49969e-07
2.31938e-07
8.9791e-09
-2.18756e-07
-4.51108e-07
-6.87891e-07
-9.28909e-07
-1.17394e-06
-1.42276e-06
-1.67512e-06
-1.93074e-06
-2.18934e-06
-2.45062e-06
-2.71427e-06
-2.97996e-06
-3.24733e-06
-3.51604e-06
-3.7857e-06
-4.05593e-06
-4.32634e-06
-4.59653e-06
-4.86607e-06
-5.13454e-06
-5.40152e-06
-5.66657e-06
-5.92925e-06
-6.18911e-06
-6.44572e-06
-6.69863e-06
-6.94739e-06
-7.19158e-06
-7.43074e-06
-7.66446e-06
-7.89231e-06
-8.11388e-06
-8.32876e-06
-8.53656e-06
-8.7369e-06
-8.92942e-06
-9.11377e-06
-9.28962e-06
-9.45665e-06
-9.61456e-06
-9.76309e-06
-9.90197e-06
-1.0031e-05
-1.01499e-05
-1.02586e-05
-1.03568e-05
-1.04444e-05
-1.05214e-05
-1.05876e-05
-1.0643e-05
-1.06876e-05
-1.07212e-05
-1.0744e-05
-1.0756e-05
-1.07573e-05
-1.07479e-05
-1.07279e-05
-1.06976e-05
-1.0657e-05
-1.06064e-05
-1.05459e-05
-1.04759e-05
-1.03964e-05
-1.03079e-05
-1.02105e-05
-1.01046e-05
-9.99041e-06
-9.86839e-06
-9.7388e-06
-9.60201e-06
-9.45837e-06
-9.30825e-06
-9.15201e-06
-8.99005e-06
-8.82274e-06
-8.65047e-06
-8.47362e-06
-8.29258e-06
-8.10774e-06
-7.91949e-06
-7.7282e-06
-7.53426e-06
-7.33803e-06
-7.13987e-06
-6.94016e-06
-6.73922e-06
-6.53742e-06
-6.33506e-06
-6.13248e-06
-5.92999e-06
-5.72787e-06
-5.52642e-06
-5.3259e-06
-5.12657e-06
-4.92868e-06
-4.73246e-06
-4.53812e-06
-4.34588e-06
-4.15591e-06
-3.9684e-06
-3.7835e-06
-3.60138e-06
-3.42215e-06
-3.24595e-06
-3.07287e-06
-2.90302e-06
-2.73649e-06
-2.57333e-06
-2.41362e-06
-2.2574e-06
-2.1047e-06
-1.95556e-06
-1.80999e-06
-1.66801e-06
-1.52961e-06
-1.39478e-06
-1.26351e-06
-1.13577e-06
-1.01153e-06
-8.90766e-07
-7.7342e-07
-6.59452e-07
-5.48806e-07
-4.4143e-07
-3.37258e-07
-2.36231e-07
-1.38278e-07
-4.33324e-08
4.86799e-08
1.3783e-07
2.24195e-07
3.07849e-07
3.88871e-07
4.67336e-07
5.43325e-07
6.16912e-07
6.88177e-07
7.57195e-07
8.24044e-07
8.88798e-07
9.51532e-07
1.01232e-06
1.07123e-06
1.12834e-06
1.18371e-06
1.23741e-06
1.28951e-06
1.34007e-06
1.38915e-06
1.43682e-06
1.48313e-06
1.52814e-06
1.5719e-06
1.61446e-06
1.65589e-06
1.69622e-06
1.7355e-06
1.77379e-06
1.81111e-06
1.84752e-06
1.88306e-06
1.91776e-06
1.95166e-06
1.9848e-06
2.01721e-06
2.04892e-06
2.07997e-06
2.11038e-06
2.14018e-06
2.1694e-06
2.19807e-06
2.2262e-06
2.25383e-06
2.28097e-06
2.30765e-06
2.33389e-06
2.35971e-06
2.38512e-06
2.41014e-06
2.4348e-06
2.4591e-06
2.48306e-06
2.5067e-06
2.53003e-06
2.55307e-06
2.57582e-06
2.5983e-06
2.62052e-06
2.6425e-06
2.66423e-06
2.68575e-06
2.70704e-06
2.72813e-06
2.74902e-06
2.76972e-06
2.79024e-06
2.81059e-06
2.83078e-06
2.8508e-06
2.87068e-06
2.89042e-06
2.91001e-06
2.92948e-06
2.94883e-06
2.96806e-06
2.98718e-06
3.00619e-06
3.0251e-06
3.04392e-06
3.06265e-06
3.08129e-06
3.09985e-06
3.11834e-06
3.13676e-06
3.15512e-06
3.17341e-06
3.19165e-06
3.20983e-06
3.22797e-06
3.24606e-06
3.26411e-06
3.28212e-06
3.30011e-06
3.31806e-06
3.33598e-06
3.35389e-06
3.37177e-06
3.38964e-06
3.4075e-06
3.42535e-06
3.44319e-06
3.46103e-06
3.47887e-06
3.49671e-06
3.51456e-06
3.53242e-06
3.5503e-06
3.56818e-06
3.58609e-06
3.60401e-06
3.62196e-06
3.63994e-06
3.65794e-06
3.67598e-06
3.69405e-06
3.71216e-06
3.7303e-06
3.74849e-06
3.76672e-06
3.785e-06
3.80333e-06
3.82171e-06
3.84015e-06
3.85864e-06
3.87719e-06
3.8958e-06
3.91448e-06
3.93322e-06
3.95203e-06
3.97091e-06
3.98987e-06
4.0089e-06
4.02801e-06
4.0472e-06
4.06648e-06
4.08584e-06
4.10528e-06
4.12482e-06
4.14445e-06
4.16418e-06
4.184e-06
4.20392e-06
4.22394e-06
4.24407e-06
4.26431e-06
4.28465e-06
4.30511e-06
4.32568e-06
4.34636e-06
4.36717e-06
4.38809e-06
4.40914e-06
4.43032e-06
4.45162e-06
4.47306e-06
4.49463e-06
4.51633e-06
4.5382e-06
4.5601e-06
4.58245e-06
4.60417e-06
4.62794e-06
4.64746e-06
4.67674e-06
4.68639e-06
4.73456e-06
4.7132e-06
4.81008e-06
4.72136e-06
4.90265e-06
4.72379e-06
4.98542e-06
4.75399e-06
5.03266e-06
4.81389e-06
5.0592e-06
4.91096e-06
4.95295e-06
5.33087e-06
4.36712e-06
6.47673e-06
5.09359e-06
5.09359e-06
-0.0952217
0.0952217
0.0129817
0.00386067
0.00194039
0.00120203
0.000826755
0.000606563
0.000465847
0.000369648
0.000300008
0.000248402
0.000210347
0.000181179
0.000155444
0.000129286
0.000102433
7.7532e-05
5.75873e-05
4.38078e-05
3.5243e-05
2.98319e-05
2.56786e-05
2.17324e-05
1.77819e-05
1.40867e-05
1.09928e-05
8.70489e-06
7.23005e-06
6.42907e-06
6.10073e-06
6.05154e-06
6.13316e-06
6.25104e-06
6.35584e-06
6.42886e-06
6.46844e-06
6.48032e-06
6.47193e-06
6.44982e-06
6.41875e-06
6.38188e-06
6.34103e-06
6.2972e-06
6.25082e-06
6.20204e-06
6.15082e-06
6.09706e-06
6.0406e-06
5.98129e-06
5.91893e-06
5.85337e-06
5.78443e-06
5.71194e-06
5.63573e-06
5.55563e-06
5.47147e-06
5.38309e-06
5.29032e-06
5.193e-06
5.09096e-06
4.98405e-06
4.87211e-06
4.755e-06
4.63255e-06
4.50465e-06
4.37114e-06
4.23191e-06
4.08681e-06
3.93575e-06
3.77862e-06
3.61532e-06
3.44575e-06
3.26986e-06
3.08757e-06
2.89883e-06
2.70359e-06
2.50185e-06
2.29357e-06
2.07878e-06
1.85748e-06
1.62972e-06
1.39554e-06
1.15502e-06
9.08248e-07
6.55335e-07
3.96399e-07
1.31596e-07
-1.38919e-07
-4.14949e-07
-6.96299e-07
-9.82733e-07
-1.27402e-06
-1.56987e-06
-1.87002e-06
-2.17416e-06
-2.48196e-06
-2.79307e-06
-3.10715e-06
-3.4238e-06
-3.74264e-06
-4.06324e-06
-4.38519e-06
-4.70804e-06
-5.03134e-06
-5.35461e-06
-5.6774e-06
-5.99919e-06
-6.31951e-06
-6.63784e-06
-6.95368e-06
-7.26652e-06
-7.57585e-06
-7.88115e-06
-8.18192e-06
-8.47762e-06
-8.76778e-06
-9.05187e-06
-9.32942e-06
-9.59993e-06
-9.86294e-06
-1.0118e-05
-1.03646e-05
-1.06024e-05
-1.0831e-05
-1.10499e-05
-1.12588e-05
-1.14573e-05
-1.16451e-05
-1.18219e-05
-1.19875e-05
-1.21415e-05
-1.22837e-05
-1.24139e-05
-1.2532e-05
-1.26379e-05
-1.27313e-05
-1.28122e-05
-1.28805e-05
-1.29363e-05
-1.29795e-05
-1.30101e-05
-1.30283e-05
-1.3034e-05
-1.30274e-05
-1.30087e-05
-1.2978e-05
-1.29354e-05
-1.28813e-05
-1.28159e-05
-1.27394e-05
-1.26521e-05
-1.25543e-05
-1.24463e-05
-1.23285e-05
-1.22013e-05
-1.20649e-05
-1.19198e-05
-1.17665e-05
-1.16052e-05
-1.14365e-05
-1.12606e-05
-1.10782e-05
-1.08895e-05
-1.06951e-05
-1.04953e-05
-1.02907e-05
-1.00816e-05
-9.86843e-06
-9.6517e-06
-9.43181e-06
-9.20916e-06
-8.98418e-06
-8.75725e-06
-8.52878e-06
-8.29914e-06
-8.06871e-06
-7.83783e-06
-7.60687e-06
-7.37615e-06
-7.14599e-06
-6.9167e-06
-6.68857e-06
-6.46186e-06
-6.23685e-06
-6.01378e-06
-5.79288e-06
-5.57436e-06
-5.35843e-06
-5.14526e-06
-4.93504e-06
-4.72789e-06
-4.52399e-06
-4.32343e-06
-4.12635e-06
-3.93282e-06
-3.74295e-06
-3.5568e-06
-3.37443e-06
-3.19589e-06
-3.02121e-06
-2.85042e-06
-2.68354e-06
-2.52057e-06
-2.3615e-06
-2.20633e-06
-2.05504e-06
-1.90759e-06
-1.76396e-06
-1.62409e-06
-1.48796e-06
-1.35549e-06
-1.22664e-06
-1.10134e-06
-9.79535e-07
-8.61142e-07
-7.46102e-07
-6.34329e-07
-5.2576e-07
-4.20302e-07
-3.17889e-07
-2.18428e-07
-1.21848e-07
-2.80577e-08
6.30151e-08
1.51464e-07
2.37358e-07
3.20792e-07
4.01833e-07
4.80573e-07
5.57078e-07
6.31438e-07
7.03717e-07
7.74001e-07
8.42351e-07
9.0885e-07
9.73555e-07
1.03655e-06
1.09788e-06
1.15763e-06
1.21584e-06
1.27259e-06
1.32793e-06
1.38192e-06
1.43461e-06
1.48606e-06
1.5363e-06
1.58541e-06
1.63341e-06
1.68037e-06
1.7263e-06
1.77128e-06
1.81532e-06
1.85848e-06
1.90079e-06
1.94228e-06
1.98298e-06
2.02294e-06
2.06218e-06
2.10074e-06
2.13863e-06
2.17589e-06
2.21255e-06
2.24863e-06
2.28414e-06
2.31914e-06
2.35361e-06
2.38761e-06
2.42113e-06
2.45421e-06
2.48685e-06
2.51908e-06
2.55092e-06
2.58238e-06
2.61348e-06
2.64423e-06
2.67465e-06
2.70475e-06
2.73455e-06
2.76406e-06
2.79328e-06
2.82224e-06
2.85094e-06
2.87941e-06
2.90763e-06
2.93564e-06
2.96343e-06
2.99102e-06
3.01842e-06
3.04563e-06
3.07267e-06
3.09954e-06
3.12625e-06
3.15282e-06
3.17923e-06
3.20552e-06
3.23167e-06
3.25771e-06
3.28363e-06
3.30945e-06
3.33516e-06
3.36079e-06
3.38632e-06
3.41177e-06
3.43715e-06
3.46246e-06
3.4877e-06
3.51289e-06
3.53802e-06
3.56311e-06
3.58815e-06
3.61315e-06
3.63812e-06
3.66307e-06
3.68799e-06
3.7129e-06
3.73779e-06
3.76268e-06
3.78756e-06
3.81244e-06
3.83732e-06
3.86222e-06
3.88713e-06
3.91206e-06
3.937e-06
3.96197e-06
3.98697e-06
4.01201e-06
4.03708e-06
4.0622e-06
4.08735e-06
4.11257e-06
4.13782e-06
4.16314e-06
4.18852e-06
4.21396e-06
4.23947e-06
4.26505e-06
4.2907e-06
4.31643e-06
4.34224e-06
4.36814e-06
4.39413e-06
4.42021e-06
4.44638e-06
4.47266e-06
4.49903e-06
4.52551e-06
4.5521e-06
4.5788e-06
4.60562e-06
4.63256e-06
4.65962e-06
4.68681e-06
4.71412e-06
4.74157e-06
4.76915e-06
4.79688e-06
4.82474e-06
4.85276e-06
4.88092e-06
4.90924e-06
4.93771e-06
4.96634e-06
4.99513e-06
5.02409e-06
5.05322e-06
5.08253e-06
5.112e-06
5.14166e-06
5.1715e-06
5.20153e-06
5.23175e-06
5.26213e-06
5.29284e-06
5.32335e-06
5.35515e-06
5.38438e-06
5.42057e-06
5.44137e-06
5.49661e-06
5.48119e-06
5.6041e-06
5.47497e-06
5.77595e-06
5.39683e-06
6.01209e-06
5.29225e-06
6.21365e-06
5.28815e-06
6.27925e-06
5.39723e-06
6.2656e-06
5.63316e-06
5.78145e-06
7.04343e-06
3.50358e-06
1.11921e-05
6.08432e-06
6.08432e-06
-0.125299
0.125299
0.024942
0.00836412
0.00428416
0.00266706
0.00183744
0.00134835
0.00103476
0.000819819
0.000664081
0.000548667
0.000463259
0.000397176
0.000338475
0.000279165
0.000219105
0.000164142
0.0001205
9.03697e-05
7.14059e-05
5.90989e-05
4.94588e-05
4.03587e-05
3.14313e-05
2.32514e-05
1.65251e-05
1.16327e-05
8.53419e-06
6.89231e-06
6.25539e-06
6.20232e-06
6.41659e-06
6.69995e-06
6.95102e-06
7.13298e-06
7.2442e-06
7.29797e-06
7.31062e-06
7.29628e-06
7.26521e-06
7.22415e-06
7.17706e-06
7.12614e-06
7.07243e-06
7.01636e-06
6.95798e-06
6.89722e-06
6.83388e-06
6.76777e-06
6.69866e-06
6.62637e-06
6.55065e-06
6.47132e-06
6.38817e-06
6.301e-06
6.20961e-06
6.11381e-06
6.0134e-06
5.90822e-06
5.79804e-06
5.68271e-06
5.56203e-06
5.43585e-06
5.30397e-06
5.16627e-06
5.02254e-06
4.87267e-06
4.7165e-06
4.5539e-06
4.38473e-06
4.20889e-06
4.02626e-06
3.83677e-06
3.6403e-06
3.4368e-06
3.22621e-06
3.00849e-06
2.7836e-06
2.55154e-06
2.31229e-06
2.06591e-06
1.81239e-06
1.55183e-06
1.28427e-06
1.00983e-06
7.28611e-07
4.40761e-07
1.46414e-07
-1.54227e-07
-4.60989e-07
-7.73627e-07
-1.09192e-06
-1.41559e-06
-1.74437e-06
-2.07794e-06
-2.41598e-06
-2.75813e-06
-3.10405e-06
-3.45332e-06
-3.80556e-06
-4.16032e-06
-4.5172e-06
-4.87569e-06
-5.23537e-06
-5.59571e-06
-5.95624e-06
-6.31642e-06
-6.67576e-06
-7.0337e-06
-7.38973e-06
-7.74327e-06
-8.09381e-06
-8.44076e-06
-8.78361e-06
-9.12177e-06
-9.45472e-06
-9.78189e-06
-1.01028e-05
-1.04168e-05
-1.07235e-05
-1.10223e-05
-1.13128e-05
-1.15944e-05
-1.18667e-05
-1.21292e-05
-1.23816e-05
-1.26234e-05
-1.28542e-05
-1.30736e-05
-1.32814e-05
-1.34772e-05
-1.36608e-05
-1.38318e-05
-1.399e-05
-1.41353e-05
-1.42675e-05
-1.43864e-05
-1.4492e-05
-1.45841e-05
-1.46627e-05
-1.47278e-05
-1.47794e-05
-1.48175e-05
-1.48423e-05
-1.48538e-05
-1.48522e-05
-1.48376e-05
-1.48102e-05
-1.47702e-05
-1.47178e-05
-1.46534e-05
-1.45772e-05
-1.44895e-05
-1.43907e-05
-1.4281e-05
-1.4161e-05
-1.40308e-05
-1.38909e-05
-1.37418e-05
-1.35839e-05
-1.34175e-05
-1.32431e-05
-1.30612e-05
-1.28722e-05
-1.26766e-05
-1.24748e-05
-1.22673e-05
-1.20545e-05
-1.18368e-05
-1.16148e-05
-1.13889e-05
-1.11595e-05
-1.09271e-05
-1.0692e-05
-1.04547e-05
-1.02156e-05
-9.97513e-06
-9.7336e-06
-9.49141e-06
-9.24892e-06
-9.00647e-06
-8.7644e-06
-8.523e-06
-8.2826e-06
-8.04347e-06
-7.80588e-06
-7.57008e-06
-7.33632e-06
-7.10481e-06
-6.87578e-06
-6.64938e-06
-6.42583e-06
-6.20526e-06
-5.98785e-06
-5.77369e-06
-5.56294e-06
-5.35567e-06
-5.15201e-06
-4.95199e-06
-4.75572e-06
-4.56322e-06
-4.37456e-06
-4.18975e-06
-4.00883e-06
-3.8318e-06
-3.65867e-06
-3.48942e-06
-3.32406e-06
-3.16254e-06
-3.00485e-06
-2.85095e-06
-2.7008e-06
-2.55434e-06
-2.41155e-06
-2.27233e-06
-2.13666e-06
-2.00445e-06
-1.87565e-06
-1.75017e-06
-1.62796e-06
-1.50893e-06
-1.39301e-06
-1.28012e-06
-1.1702e-06
-1.06314e-06
-9.58888e-07
-8.57344e-07
-7.58453e-07
-6.6211e-07
-5.68264e-07
-4.7681e-07
-3.87699e-07
-3.0083e-07
-2.16153e-07
-1.3357e-07
-5.30347e-08
2.55479e-08
1.02221e-07
1.77078e-07
2.50158e-07
3.2155e-07
3.91291e-07
4.59467e-07
5.2611e-07
5.91303e-07
6.55076e-07
7.17507e-07
7.78621e-07
8.38496e-07
8.97152e-07
9.54663e-07
1.01105e-06
1.06637e-06
1.12066e-06
1.17396e-06
1.22631e-06
1.27775e-06
1.32831e-06
1.37804e-06
1.42694e-06
1.47508e-06
1.52246e-06
1.56913e-06
1.61511e-06
1.66043e-06
1.70511e-06
1.74919e-06
1.79267e-06
1.8356e-06
1.87798e-06
1.91985e-06
1.96122e-06
2.00212e-06
2.04255e-06
2.08255e-06
2.12212e-06
2.1613e-06
2.20008e-06
2.2385e-06
2.27655e-06
2.31427e-06
2.35166e-06
2.38875e-06
2.42552e-06
2.46202e-06
2.49824e-06
2.53421e-06
2.56992e-06
2.60541e-06
2.64066e-06
2.67571e-06
2.71054e-06
2.74519e-06
2.77964e-06
2.81393e-06
2.84805e-06
2.88202e-06
2.91584e-06
2.94953e-06
2.98308e-06
3.01652e-06
3.04984e-06
3.08306e-06
3.11618e-06
3.14922e-06
3.18217e-06
3.21505e-06
3.24786e-06
3.28062e-06
3.31331e-06
3.34597e-06
3.37857e-06
3.41116e-06
3.44371e-06
3.47624e-06
3.50875e-06
3.54127e-06
3.57377e-06
3.60628e-06
3.6388e-06
3.67134e-06
3.70388e-06
3.73647e-06
3.76907e-06
3.80173e-06
3.83441e-06
3.86715e-06
3.89994e-06
3.93279e-06
3.96569e-06
3.99868e-06
4.03172e-06
4.06485e-06
4.09806e-06
4.13136e-06
4.16475e-06
4.19824e-06
4.23182e-06
4.26553e-06
4.29933e-06
4.33326e-06
4.36729e-06
4.40147e-06
4.43576e-06
4.4702e-06
4.50477e-06
4.53949e-06
4.57435e-06
4.60938e-06
4.64455e-06
4.67989e-06
4.71539e-06
4.75107e-06
4.78691e-06
4.82295e-06
4.85915e-06
4.89556e-06
4.93215e-06
4.96894e-06
5.00593e-06
5.04313e-06
5.08053e-06
5.11816e-06
5.15599e-06
5.19406e-06
5.23235e-06
5.27087e-06
5.30962e-06
5.34862e-06
5.38786e-06
5.42734e-06
5.4671e-06
5.50703e-06
5.5475e-06
5.58742e-06
5.62982e-06
5.66681e-06
5.71797e-06
5.73718e-06
5.82758e-06
5.77096e-06
6.00263e-06
5.70669e-06
6.31391e-06
5.48729e-06
6.76444e-06
5.20618e-06
7.14519e-06
5.13655e-06
7.23303e-06
5.31264e-06
7.15147e-06
5.74363e-06
6.10563e-06
8.62914e-06
1.25194e-06
1.73313e-05
6.61738e-06
6.61738e-06
-0.146493
0.146493
0.0383162
0.0142396
0.00746166
0.00467722
0.00323175
0.00237474
0.00182317
0.00144411
0.00116914
0.000965255
0.000813867
0.000695812
0.000590429
0.000484534
0.000378519
0.000282544
0.000206847
0.000154559
0.000121251
9.91282e-05
8.1521e-05
6.49965e-05
4.90545e-05
3.46954e-05
2.30644e-05
1.47189e-05
9.50723e-06
6.79665e-06
5.78731e-06
5.75213e-06
6.15374e-06
6.66044e-06
7.10557e-06
7.43073e-06
7.63574e-06
7.74443e-06
7.785e-06
7.78156e-06
7.7515e-06
7.70619e-06
7.65235e-06
7.59373e-06
7.53212e-06
7.46833e-06
7.40253e-06
7.33469e-06
7.26456e-06
7.19195e-06
7.11655e-06
7.03816e-06
6.95647e-06
6.87129e-06
6.78234e-06
6.68943e-06
6.5923e-06
6.49076e-06
6.38456e-06
6.27354e-06
6.15743e-06
6.03608e-06
5.90925e-06
5.77679e-06
5.63847e-06
5.49415e-06
5.34361e-06
5.18672e-06
5.0233e-06
4.85322e-06
4.67631e-06
4.49248e-06
4.30155e-06
4.10347e-06
3.8981e-06
3.68538e-06
3.46522e-06
3.23758e-06
3.00239e-06
2.75966e-06
2.50933e-06
2.25146e-06
1.98603e-06
1.71312e-06
1.43275e-06
1.14505e-06
8.5007e-07
5.4798e-07
2.38878e-07
-7.70258e-08
-3.99589e-07
-7.28558e-07
-1.06375e-06
-1.40486e-06
-1.75166e-06
-2.10381e-06
-2.46104e-06
-2.82296e-06
-3.18924e-06
-3.55948e-06
-3.9333e-06
-4.31024e-06
-4.68991e-06
-5.07181e-06
-5.4555e-06
-5.84044e-06
-6.22619e-06
-6.61218e-06
-6.99792e-06
-7.38283e-06
-7.76641e-06
-8.14806e-06
-8.52725e-06
-8.90338e-06
-9.27593e-06
-9.64428e-06
-1.00079e-05
-1.03662e-05
-1.07187e-05
-1.10647e-05
-1.14038e-05
-1.17353e-05
-1.20588e-05
-1.23738e-05
-1.26798e-05
-1.29762e-05
-1.32627e-05
-1.35387e-05
-1.38039e-05
-1.40579e-05
-1.43003e-05
-1.45307e-05
-1.47489e-05
-1.49544e-05
-1.51472e-05
-1.53269e-05
-1.54933e-05
-1.56462e-05
-1.57855e-05
-1.59111e-05
-1.60229e-05
-1.61208e-05
-1.62048e-05
-1.6275e-05
-1.63313e-05
-1.63738e-05
-1.64027e-05
-1.64179e-05
-1.64198e-05
-1.64085e-05
-1.63841e-05
-1.6347e-05
-1.62974e-05
-1.62354e-05
-1.61616e-05
-1.60761e-05
-1.59794e-05
-1.58717e-05
-1.57536e-05
-1.56252e-05
-1.54871e-05
-1.53396e-05
-1.51833e-05
-1.50185e-05
-1.48456e-05
-1.46652e-05
-1.44776e-05
-1.42833e-05
-1.40828e-05
-1.38766e-05
-1.3665e-05
-1.34485e-05
-1.32276e-05
-1.30027e-05
-1.27743e-05
-1.25428e-05
-1.23085e-05
-1.20719e-05
-1.18335e-05
-1.15935e-05
-1.13524e-05
-1.11105e-05
-1.08681e-05
-1.06257e-05
-1.03835e-05
-1.01418e-05
-9.90099e-06
-9.66124e-06
-9.42287e-06
-9.18608e-06
-8.95117e-06
-8.71829e-06
-8.48769e-06
-8.25952e-06
-8.03399e-06
-7.81121e-06
-7.59138e-06
-7.37457e-06
-7.16095e-06
-6.95058e-06
-6.74359e-06
-6.54002e-06
-6.33997e-06
-6.14345e-06
-5.95056e-06
-5.76129e-06
-5.5757e-06
-5.39376e-06
-5.21552e-06
-5.04094e-06
-4.87006e-06
-4.7028e-06
-4.53919e-06
-4.37916e-06
-4.22272e-06
-4.06977e-06
-3.92033e-06
-3.77429e-06
-3.63165e-06
-3.4923e-06
-3.35623e-06
-3.22333e-06
-3.09359e-06
-2.96688e-06
-2.84319e-06
-2.72241e-06
-2.6045e-06
-2.48935e-06
-2.37693e-06
-2.26713e-06
-2.15992e-06
-2.05518e-06
-1.95289e-06
-1.85292e-06
-1.75526e-06
-1.65979e-06
-1.56649e-06
-1.47524e-06
-1.38603e-06
-1.29873e-06
-1.21334e-06
-1.12975e-06
-1.04793e-06
-9.67797e-07
-8.89321e-07
-8.12407e-07
-7.37042e-07
-6.63131e-07
-5.90664e-07
-5.19547e-07
-4.49775e-07
-3.81257e-07
-3.1399e-07
-2.47886e-07
-1.82946e-07
-1.19084e-07
-5.63035e-08
5.47836e-09
6.62554e-08
1.26108e-07
1.85027e-07
2.43091e-07
3.00288e-07
3.56694e-07
4.12296e-07
4.67168e-07
5.21293e-07
5.74743e-07
6.27501e-07
6.79636e-07
7.31129e-07
7.82049e-07
8.32374e-07
8.8217e-07
9.31415e-07
9.80175e-07
1.02842e-06
1.07623e-06
1.12356e-06
1.17048e-06
1.21697e-06
1.26308e-06
1.30879e-06
1.35416e-06
1.39916e-06
1.44385e-06
1.4882e-06
1.53227e-06
1.57603e-06
1.61953e-06
1.66274e-06
1.70573e-06
1.74846e-06
1.79099e-06
1.83328e-06
1.87538e-06
1.91728e-06
1.95902e-06
2.00057e-06
2.04197e-06
2.08321e-06
2.12434e-06
2.16531e-06
2.20618e-06
2.24692e-06
2.28759e-06
2.32813e-06
2.36862e-06
2.40901e-06
2.44936e-06
2.48963e-06
2.52987e-06
2.57005e-06
2.61021e-06
2.65033e-06
2.69045e-06
2.73054e-06
2.77065e-06
2.81074e-06
2.85087e-06
2.89099e-06
2.93116e-06
2.97133e-06
3.01157e-06
3.05184e-06
3.09217e-06
3.13255e-06
3.17301e-06
3.21352e-06
3.25414e-06
3.29481e-06
3.3356e-06
3.37647e-06
3.41746e-06
3.45854e-06
3.49975e-06
3.54107e-06
3.58253e-06
3.62411e-06
3.66585e-06
3.70771e-06
3.74974e-06
3.79191e-06
3.83427e-06
3.87677e-06
3.91946e-06
3.96232e-06
4.00538e-06
4.04861e-06
4.09207e-06
4.1357e-06
4.17956e-06
4.22361e-06
4.2679e-06
4.3124e-06
4.35715e-06
4.40211e-06
4.44733e-06
4.49278e-06
4.5385e-06
4.58445e-06
4.63069e-06
4.67717e-06