# vtk DataFile Version 2.0
FlowField
ASCII
DATASET STRUCTURED_GRID
DIMENSIONS 400 1 200
POINTS 80000 float
0 0 0
0.08 0 0
0.16 0 0
0.24 0 0
0.32 0 0
0.4 0 0
0.48 0 0
0.56 0 0
0.64 0 0
0.72 0 0
0.8 0 0
0.88 0 0
0.96 0 0
1.04 0 0
1.12 0 0
1.2 0 0
1.28 0 0
1.36 0 0
1.44 0 0
1.52 0 0
1.6 0 0
1.68 0 0
1.76 0 0
1.84 0 0
1.92 0 0
2 0 0
2.08 0 0
2.16 0 0
2.24 0 0
2.32 0 0
2.4 0 0
2.48 0 0
2.56 0 0
2.64 0 0
2.72 0 0
2.8 0 0
2.88 0 0
2.96 0 0
3.04 0 0
3.12 0 0
3.2 0 0
3.28 0 0
3.36 0 0
3.44 0 0
3.52 0 0
3.6 0 0
3.68 0 0
3.76 0 0
3.84 0 0
3.92 0 0
4 0 0
4.08 0 0
4.16 0 0
4.24 0 0
4.32 0 0
4.4 0 0
4.48 0 0
4.56 0 0
4.64 0 0
4.72 0 0
4.8 0 0
4.88 0 0
4.96 0 0
5.04 0 0
5.12 0 0
5.2 0 0
5.28 0 0
5.36 0 0
5.44 0 0
5.52 0 0
5.6 0 0
5.68 0 0
5.76 0 0
5.84 0 0
5.92 0 0
6 0 0
6.08 0 0
6.16 0 0
6.24 0 0
6.32 0 0
6.4 0 0
6.48 0 0
6.56 0 0
6.64 0 0
6.72 0 0
6.8 0 0
6.88 0 0
6.96 0 0
7.04 0 0
7.12 0 0
7.2 0 0
7.28 0 0
7.36 0 0
7.44 0 0
7.52 0 0
7.6 0 0
7.68 0 0
7.76 0 0
7.84 0 0
7.92 0 0
8 0 0
8.08 0 0
8.16 0 0
8.24 0 0
8.32 0 0
8.4 0 0
8.48 0 0
8.56 0 0
8.64 0 0
8.72 0 0
8.8 0 0
8.88 0 0
8.96 0 0
9.04 0 0
9.12 0 0
9.2 0 0
9.28 0 0
9.36 0 0
9.44 0 0
9.52 0 0
9.6 0 0
9.68 0 0
9.76 0 0
9.84 0 0
9.92 0 0
10 0 0
10.08 0 0
10.16 0 0
10.24 0 0
10.32 0 0
10.4 0 0
10.48 0 0
10.56 0 0
10.64 0 0
10.72 0 0
10.8 0 0
10.88 0 0
10.96 0 0
11.04 0 0
11.12 0 0
11.2 0 0
11.28 0 0
11.36 0 0
11.44 0 0
11.52 0 0
11.6 0 0
11.68 0 0
11.76 0 0
11.84 0 0
11.92 0 0
12 0 0
12.08 0 0
12.16 0 0
12.24 0 0
12.32 0 0
12.4 0 0
12.48 0 0
12.56 0 0
12.64 0 0
12.72 0 0
12.8 0 0
12.88 0 0
12.96 0 0
13.04 0 0
13.12 0 0
13.2 0 0
13.28 0 0
13.36 0 0
13.44 0 0
13.52 0 0
13.6 0 0
13.68 0 0
13.76 0 0
13.84 0 0
13.92 0 0
14 0 0
14.08 0 0
14.16 0 0
14.24 0 0
14.32 0 0
14.4 0 0
14.48 0 0
14.56 0 0
14.64 0 0
14.72 0 0
14.8 0 0
14.88 0 0
14.96 0 0
15.04 0 0
15.12 0 0
15.2 0 0
15.28 0 0
15.36 0 0
15.44 0 0
15.52 0 0
15.6 0 0
15.68 0 0
15.76 0 0
15.84 0 0
15.92 0 0
16 0 0
16.08 0 0
16.16 0 0
16.24 0 0
16.32 0 0
16.4 0 0
16.48 0 0
16.56 0 0
16.64 0 0
16.72 0 0
16.8 0 0
16.88 0 0
16.96 0 0
17.04 0 0
17.12 0 0
17.2 0 0
17.28 0 0
17.36 0 0
17.44 0 0
17.52 0 0
17.6 0 0
17.68 0 0
17.76 0 0
17.84 0 0
17.92 0 0
18 0 0
18.08 0 0
18.16 0 0
18.24 0 0
18.32 0 0
18.4 0 0
18.48 0 0
18.56 0 0
18.64 0 0
18.72 0 0
18.8 0 0
18.88 0 0
18.96 0 0
19.04 0 0
19.12 0 0
19.2 0 0
19.28 0 0
19.36 0 0
19.44 0 0
19.52 0 0
19.6 0 0
19.68 0 0
19.76 0 0
19.84 0 0
19.92 0 0
20 0 0
20.08 0 0
20.16 0 0
20.24 0 0
20.32 0 0
20.4 0 0
20.48 0 0
20.56 0 0
20.64 0 0
20.72 0 0
20.8 0 0
20.88 0 0
20.96 0 0
21.04 0 0
21.12 0 0
21.2 0 0
21.28 0 0
21.36 0 0
21.44 0 0
21.52 0 0
21.6 0 0
21.68 0 0
21.76 0 0
21.84 0 0
21.92 0 0
22 0 0
22.08 0 0
22.16 0 0
22.24 0 0
22.32 0 0
22.4 0 0
22.48 0 0
22.56 0 0
22.64 0 0
22.72 0 0
22.8 0 0
22.88 0 0
22.96 0 0
23.04 0 0
23.12 0 0
23.2 0 0
23.28 0 0
23.36 0 0
23.44 0 0
23.52 0 0
23.6 0 0
23.68 0 0
23.76 0 0
23.84 0 0
23.92 0 0
24 0 0
24.08 0 0
24.16 0 0
24.24 0 0
24.32 0 0
24.4 0 0
24.48 0 0
24.56 0 0
24.64 0 0
24.72 0 0
24.8 0 0
24.88 0 0
24.96 0 0
25.04 0 0
25.12 0 0
25.2 0 0
25.28 0 0
25.36 0 0
25.44 0 0
25.52 0 0
25.6 0 0
25.68 0 0
25.76 0 0
25.84 0 0
25.92 0 0
26 0 0
26.08 0 0
26.16 0 0
26.24 0 0
26.32 0 0
26.4 0 0
26.48 0 0
26.56 0 0
26.64 0 0
26.72 0 0
26.8 0 0
26.88 0 0
26.96 0 0
27.04 0 0
27.12 0 0
27.2 0 0
27.28 0 0
27.36 0 0
27.44 0 0
27.52 0 0
27.6 0 0
27.68 0 0
27.76 0 0
27.84 0 0
27.92 0 0
28 0 0
28.08 0 0
28.16 0 0
28.24 0 0
28.32 0 0
28.4 0 0
28.48 0 0
28.56 0 0
28.64 0 0
28.72 0 0
28.8 0 0
28.88 0 0
28.96 0 0
29.04 0 0
29.12 0 0
29.2 0 0
29.28 0 0
29.36 0 0
29.44 0 0
29.52 0 0
29.6 0 0
29.68 0 0
29.76 0 0
29.84 0 0
29.92 0 0
30 0 0
30.08 0 0
30.16 0 0
30.24 0 0
30.32 0 0
30.4 0 0
30.48 0 0
30.56 0 0
30.64 0 0
30.72 0 0
30.8 0 0
30.88 0 0
30.96 0 0
31.04 0 0
31.12 0 0
31.2 0 0
31.28 0 0
31.36 0 0
31.44 0 0
31.52 0 0
31.6 0 0
31.68 0 0
31.76 0 0
31.84 0 0
31.92 0 0
0 0.005 0
0.08 0.005 0
0.16 0.005 0
0.24 0.005 0
0.32 0.005 0
0.4 0.005 0
0.48 0.005 0
0.56 0.005 0
0.64 0.005 0
0.72 0.005 0
0.8 0.005 0
0.88 0.005 0
0.96 0.005 0
1.04 0.005 0
1.12 0.005 0
1.2 0.005 0
1.28 0.005 0
1.36 0.005 0
1.44 0.005 0
1.52 0.005 0
1.6 0.005 0
1.68 0.005 0
1.76 0.005 0
1.84 0.005 0
1.92 0.005 0
2 0.005 0
2.08 0.005 0
2.16 0.005 0
2.24 0.005 0
2.32 0.005 0
2.4 0.005 0
2.48 0.005 0
2.56 0.005 0
2.64 0.005 0
2.72 0.005 0
2.8 0.005 0
2.88 0.005 0
2.96 0.005 0
3.04 0.005 0
3.12 0.005 0
3.2 0.005 0
3.28 0.005 0
3.36 0.005 0
3.44 0.005 0
3.52 0.005 0
3.6 0.005 0
3.68 0.005 0
3.76 0.005 0
3.84 0.005 0
3.92 0.005 0
4 0.005 0
4.08 0.005 0
4.16 0.005 0
4.24 0.005 0
4.32 0.005 0
4.4 0.005 0
4.48 0.005 0
4.56 0.005 0
4.64 0.005 0
4.72 0.005 0
4.8 0.005 0
4.88 0.005 0
4.96 0.005 0
5.04 0.005 0
5.12 0.005 0
5.2 0.005 0
5.28 0.005 0
5.36 0.005 0
5.44 0.005 0
5.52 0.005 0
5.6 0.005 0
5.68 0.005 0
5.76 0.005 0
5.84 0.005 0
5.92 0.005 0
6 0.005 0
6.08 0.005 0
6.16 0.005 0
6.24 0.005 0
6.32 0.005 0
6.4 0.005 0
6.48 0.005 0
6.56 0.005 0
6.64 0.005 0
6.72 0.005 0
6.8 0.005 0
6.88 0.005 0
6.96 0.005 0
7.04 0.005 0
7.12 0.005 0
7.2 0.005 0
7.28 0.005 0
7.36 0.005 0
7.44 0.005 0
7.52 0.005 0
7.6 0.005 0
7.68 0.005 0
7.76 0.005 0
7.84 0.005 0
7.92 0.005 0
8 0.005 0
8.08 0.005 0
8.16 0.005 0
8.24 0.005 0
8.32 0.005 0
8.4 0.005 0
8.48 0.005 0
8.56 0.005 0
8.64 0.005 0
8.72 0.005 0
8.8 0.005 0
8.88 0.005 0
8.96 0.005 0
9.04 0.005 0
9.12 0.005 0
9.2 0.005 0
9.28 0.005 0
9.36 0.005 0
9.44 0.005 0
9.52 0.005 0
9.6 0.005 0
9.68 0.005 0
9.76 0.005 0
9.84 0.005 0
9.92 0.005 0
10 0.005 0
10.08 0.005 0
10.16 0.005 0
10.24 0.005 0
10.32 0.005 0
10.4 0.005 0
10.48 0.005 0
10.56 0.005 0
10.64 0.005 0
10.72 0.005 0
10.8 0.005 0
10.88 0.005 0
10.96 0.005 0
11.04 0.005 0
11.12 0.005 0
11.2 0.005 0
11.28 0.005 0
11.36 0.005 0
11.44 0.005 0
11.52 0.005 0
11.6 0.005 0
11.68 0.005 0
11.76 0.005 0
11.84 0.005 0
11.92 0.005 0
12 0.005 0
12.08 0.005 0
12.16 0.005 0
12.24 0.005 0
12.32 0.005 0
12.4 0.005 0
12.48 0.005 0
12.56 0.005 0
12.64 0.005 0
12.72 0.005 0
12.8 0.005 0
12.88 0.005 0
12.96 0.005 0
13.04 0.005 0
13.12 0.005 0
13.2 0.005 0
13.28 0.005 0
13.36 0.005 0
13.44 0.005 0
13.52 0.005 0
13.6 0.005 0
13.68 0.005 0
13.76 0.005 0
13.84 0.005 0
13.92 0.005 0
14 0.005 0
14.08 0.005 0
14.16 0.005 0
14.24 0.005 0
14.32 0.005 0
14.4 0.005 0
14.48 0.005 0
14.56 0.005 0
14.64 0.005 0
14.72 0.005 0
14.8 0.005 0
14.88 0.005 0
14.96 0.005 0
15.04 0.005 0
15.12 0.005 0
15.2 0.005 0
15.28 0.005 0
15.36 0.005 0
15.44 0.005 0
15.52 0.005 0
15.6 0.005 0
15.68 0.005 0
15.76 0.005 0
15.84 0.005 0
15.92 0.005 0
16 0.005 0
16.08 0.005 0
16.16 0.005 0
16.24 0.005 0
16.32 0.005 0
16.4 0.005 0
16.48 0.005 0
16.56 0.005 0
16.64 0.005 0
16.72 0.005 0
16.8 0.005 0
16.88 0.005 0
16.96 0.005 0
17.04 0.005 0
17.12 0.005 0
17.2 0.005 0
17.28 0.005 0
17.36 0.005 0
17.44 0.005 0
17.52 0.005 0
17.6 0.005 0
17.68 0.005 0
17.76 0.005 0
17.84 0.005 0
17.92 0.005 0
18 0.005 0
18.08 0.005 0
18.16 0.005 0
18.24 0.005 0
18.32 0.005 0
18.4 0.005 0
18.48 0.005 0
18.56 0.005 0
18.64 0.005 0
18.72 0.005 0
18.8 0.005 0
18.88 0.005 0
18.96 0.005 0
19.04 0.005 0
19.12 0.005 0
19.2 0.005 0
19.28 0.005 0
19.36 0.005 0
19.44 0.005 0
19.52 0.005 0
19.6 0.005 0
19.68 0.005 0
19.76 0.005 0
19.84 0.005 0
19.92 0.005 0
20 0.005 0
20.08 0.005 0
20.16 0.005 0
20.24 0.005 0
20.32 0.005 0
20.4 0.005 0
20.48 0.005 0
20.56 0.005 0
20.64 0.005 0
20.72 0.005 0
20.8 0.005 0
20.88 0.005 0
20.96 0.005 0
21.04 0.005 0
21.12 0.005 0
21.2 0.005 0
21.28 0.005 0
21.36 0.005 0
21.44 0.005 0
21.52 0.005 0
21.6 0.005 0
21.68 0.005 0
21.76 0.005 0
21.84 0.005 0
21.92 0.005 0
22 0.005 0
22.08 0.005 0
22.16 0.005 0
22.24 0.005 0
22.32 0.005 0
22.4 0.005 0
22.48 0.005 0
22.56 0.005 0
22.64 0.005 0
22.72 0.005 0
22.8 0.005 0
22.88 0.005 0
22.96 0.005 0
23.04 0.005 0
23.12 0.005 0
23.2 0.005 0
23.28 0.005 0
23.36 0.005 0
23.44 0.005 0
23.52 0.005 0
23.6 0.005 0
23.68 0.005 0
23.76 0.005 0
23.84 0.005 0
23.92 0.005 0
24 0.005 0
24.08 0.005 0
24.16 0.005 0
24.24 0.005 0
24.32 0.005 0
24.4 0.005 0
24.48 0.005 0
24.56 0.005 0
24.64 0.005 0
24.72 0.005 0
24.8 0.005 0
24.88 0.005 0
24.96 0.005 0
25.04 0.005 0
25.12 0.005 0
25.2 0.005 0
25.28 0.005 0
25.36 0.005 0
25.44 0.005 0
25.52 0.005 0
25.6 0.005 0
25.68 0.005 0
25.76 0.005 0
25.84 0.005 0
25.92 0.005 0
26 0.005 0
26.08 0.005 0
26.16 0.005 0
26.24 0.005 0
26.32 0.005 0
26.4 0.005 0
26.48 0.005 0
26.56 0.005 0
26.64 0.005 0
26.72 0.005 0
26.8 0.005 0
26.88 0.005 0
26.96 0.005 0
27.04 0.005 0
27.12 0.005 0
27.2 0.005 0
27.28 0.005 0
27.36 0.005 0
27.44 0.005 0
27.52 0.005 0
27.6 0.005 0
27.68 0.005 0
27.76 0.005 0
27.84 0.005 0
27.92 0.005 0
28 0.005 0
28.08 0.005 0
28.16 0.005 0
28.24 0.005 0
28.32 0.005 0
28.4 0.005 0
28.48 0.005 0
28.56 0.005 0
28.64 0.005 0
28.72 0.005 0
28.8 0.005 0
28.88 0.005 0
28.96 0.005 0
29.04 0.005 0
29.12 0.005 0
29.2 0.005 0
29.28 0.005 0
29.36 0.005 0
29.44 0.005 0
29.52 0.005 0
29.6 0.005 0
29.68 0.005 0
29.76 0.005 0
29.84 0.005 0
29.92 0.005 0
30 0.005 0
30.08 0.005 0
30.16 0.005 0
30.24 0.005 0
30.32 0.005 0
30.4 0.005 0
30.48 0.005 0
30.56 0.005 0
30.64 0.005 0
30.72 0.005 0
30.8 0.005 0
30.88 0.005 0
30.96 0.005 0
31.04 0.005 0
31.12 0.005 0
31.2 0.005 0
31.28 0.005 0
31.36 0.005 0
31.44 0.005 0
31.52 0.005 0
31.6 0.005 0
31.68 0.005 0
31.76 0.005 0
31.84 0.005 0
31.92 0.005 0
0 0.01 0
0.08 0.01 0
0.16 0.01 0
0.24 0.01 0
0.32 0.01 0
0.4 0.01 0
0.48 0.01 0
0.56 0.01 0
0.64 0.01 0
0.72 0.01 0
0.8 0.01 0
0.88 0.01 0
0.96 0.01 0
1.04 0.01 0
1.12 0.01 0
1.2 0.01 0
1.28 0.01 0
1.36 0.01 0
1.44 0.01 0
1.52 0.01 0
1.6 0.01 0
1.68 0.01 0
1.76 0.01 0
1.84 0.01 0
1.92 0.01 0
2 0.01 0
2.08 0.01 0
2.16 0.01 0
2.24 0.01 0
2.32 0.01 0
2.4 0.01 0
2.48 0.01 0
2.56 0.01 0
2.64 0.01 0
2.72 0.01 0
2.8 0.01 0
2.88 0.01 0
2.96 0.01 0
3.04 0.01 0
3.12 0.01 0
3.2 0.01 0
3.28 0.01 0
3.36 0.01 0
3.44 0.01 0
3.52 0.01 0
3.6 0.01 0
3.68 0.01 0
3.76 0.01 0
3.84 0.01 0
3.92 0.01 0
4 0.01 0
4.08 0.01 0
4.16 0.01 0
4.24 0.01 0
4.32 0.01 0
4.4 0.01 0
4.48 0.01 0
4.56 0.01 0
4.64 0.01 0
4.72 0.01 0
4.8 0.01 0
4.88 0.01 0
4.96 0.01 0
5.04 0.01 0
5.12 0.01 0
[...]
POINT_DATA 80000

SCALARS v float 1
LOOKUP_TABLE default
0
0
0
0
0
0
0
0
0
0
0
0
0
0
0
0
0
0
0
0
0
0
0
0
0
0
0
0
0
0
0
0
0
0
0
0
0
0
0
0
0
0
0
0
0
0
0
0
0
0
0
0
0
0
0
0
0
0
0
0
0
0
0
0
0
0
0
0
0
0
0
0
0
0
0
0
0
0
0
0
0
0
0
0
0
0
0
0
0
0
0
0
0
0
0
0
0
0
0
0
0
0
0
0
0
0
0
0
0
0
0
0
0
0
0
0
0
0
0
0
0
0
0
0
0
0
0
0
0
0
0
0
0
0
0
0
0
0
0
0
0
0
0
0
0
0
0
0
0
0
0
0
0
0
0
0
0
0
0
0
0
0
0
0
0
0
0
0
0
0
0
0
0
0
0
0
0
0
0
0
0
0
0
0
0
0
0
0
0
0
0
0
0
0
0
0
0
0
0
0
0
0
0
0
0
0
0
0
0
0
0
0
0
0
0
0
0
0
0
0
0
0
0
0
0
0
0
0
0
0
0
0
0
0
0
0
0
0
0
0
0
0
0
0
0
0
0
0
0
0
0
0
0
0
0
0
0
0
0
0
0
0
0
0
0
0
0
0
0
0
0
0
0
0
0
0
0
0
0
0
0
0
0
0
0
0
0
0
0
0
0
0
0
0
0
0
0
0
0
0
0
0
0
0
0
0
0
0
0
0
0
0
0
0
0
0
0
0
0
0
0
0
0
0
0
0
0
0
0
0
0
0
0
0
0
0
0
0
0
0
0
0
0
0
0
0
0
0
0
0
0
0
0
0
0
0
0
0
0
0
0
0
0
0
0
0
0
0
0
0
0
0
0
0
0
0
0
0
0
0
0
0
0
0
0
0
0
0
0
0
0
0
0
0
0
0
0
0
0
0
-0.0542678
0.0542678
0.00395861
0.000994724
0.000488551
0.000298895
0.000203458
0.000147751
0.000112156
8.8032e-05
7.10112e-05
5.85005e-05
4.88286e-05
4.10862e-05
3.49305e-05
3.01368e-05
2.62267e-05
2.25094e-05
1.84564e-05
1.40294e-05
9.66781e-06
5.96595e-06
3.30397e-06
1.67764e-06
7.78555e-07
2.04709e-07
-3.5403e-07
-1.03787e-06
-1.83898e-06
-2.67109e-06
-3.43728e-06
-4.07119e-06
-4.54911e-06
-4.88266e-06
-5.10344e-06
-5.24849e-06
-5.35048e-06
-5.43339e-06
-5.5122e-06
-5.59471e-06
-5.68395e-06
-5.78031e-06
-5.88298e-06
-5.99085e-06
-6.10293e-06
-6.21845e-06
-6.33688e-06
-6.45789e-06
-6.58126e-06
-6.70683e-06
-6.8345e-06
-6.96418e-06
-7.09577e-06
-7.22918e-06
-7.36431e-06
-7.50105e-06
-7.63929e-06
-7.77888e-06
-7.91971e-06
-8.06163e-06
-8.20449e-06
-8.34814e-06
-8.4924e-06
-8.6371e-06
-8.78207e-06
-8.92713e-06
-9.07207e-06
-9.2167e-06
-9.36082e-06
-9.50422e-06
-9.64668e-06
-9.78799e-06
-9.92791e-06
-1.00662e-05
-1.02027e-05
-1.03371e-05
-1.04693e-05
-1.05988e-05
-1.07256e-05
-1.08494e-05
-1.097e-05
-1.1087e-05
-1.12003e-05
-1.13097e-05
-1.14149e-05
-1.15156e-05
-1.16117e-05
-1.17029e-05
-1.17891e-05
-1.187e-05
-1.19453e-05
-1.2015e-05
-1.20789e-05
-1.21367e-05
-1.21882e-05
-1.22334e-05
-1.22721e-05
-1.2304e-05
-1.23292e-05
-1.23475e-05
-1.23588e-05
-1.23629e-05
-1.23599e-05
-1.23496e-05
-1.2332e-05
-1.23071e-05
-1.22748e-05
-1.22351e-05
-1.2188e-05
-1.21336e-05
-1.20718e-05
-1.20028e-05
-1.19265e-05
-1.1843e-05
-1.17525e-05
-1.16551e-05
-1.15507e-05
-1.14397e-05
-1.1322e-05
-1.11979e-05
-1.10676e-05
-1.09311e-05
-1.07888e-05
-1.06407e-05
-1.04871e-05
-1.03282e-05
-1.01642e-05
-9.99536e-06
-9.82194e-06
-9.64416e-06
-9.46227e-06
-9.27653e-06
-9.0872e-06
-8.89455e-06
-8.69884e-06
-8.50035e-06
-8.29934e-06
-8.0961e-06
-7.89088e-06
-7.68397e-06
-7.47564e-06
-7.26615e-06
-7.05578e-06
-6.84478e-06
-6.63342e-06
-6.42196e-06
-6.21064e-06
-5.9997e-06
-5.7894e-06
-5.57996e-06
-5.3716e-06
-5.16455e-06
-4.95902e-06
-4.75521e-06
-4.55331e-06
-4.35351e-06
-4.156e-06
-3.96092e-06
-3.76845e-06
-3.57874e-06
-3.39192e-06
-3.20812e-06
-3.02747e-06
-2.85007e-06
-2.67603e-06
-2.50544e-06
-2.33838e-06
-2.17492e-06
-2.01514e-06
-1.85907e-06
-1.70678e-06
-1.55829e-06
-1.41364e-06
-1.27284e-06
-1.13592e-06
-1.00287e-06
-8.73694e-07
-7.48381e-07
-6.26917e-07
-5.09278e-07
-3.95438e-07
-2.8536e-07
-1.79008e-07
-7.63342e-08
2.27079e-08
1.18174e-07
2.1012e-07
2.98608e-07
3.83703e-07
4.65473e-07
5.43988e-07
6.19321e-07
6.91548e-07
7.60745e-07
8.26991e-07
8.90366e-07
9.50949e-07
1.00882e-06
1.06407e-06
1.11678e-06
1.16702e-06
1.21488e-06
1.26044e-06
1.30378e-06
1.34499e-06
1.38415e-06
1.42132e-06
1.45659e-06
1.49004e-06
1.52175e-06
1.55177e-06
1.5802e-06
1.60708e-06
1.63251e-06
1.65654e-06
1.67923e-06
1.70066e-06
1.72087e-06
1.73994e-06
1.75791e-06
1.77485e-06
1.79081e-06
1.80583e-06
1.81998e-06
1.83329e-06
1.84581e-06
1.85758e-06
1.86866e-06
1.87907e-06
1.88886e-06
1.89806e-06
1.90671e-06
1.91484e-06
1.92248e-06
1.92967e-06
1.93643e-06
1.94279e-06
1.94878e-06
1.95441e-06
1.95972e-06
1.96472e-06
1.96944e-06
1.97389e-06
1.97809e-06
1.98207e-06
1.98583e-06
1.98939e-06
1.99277e-06
1.99598e-06
1.99903e-06
2.00193e-06
2.0047e-06
2.00734e-06
2.00987e-06
2.0123e-06
2.01462e-06
2.01686e-06
2.01901e-06
2.02109e-06
2.02309e-06
2.02504e-06
2.02692e-06
2.02876e-06
2.03054e-06
2.03228e-06
2.03398e-06
2.03564e-06
2.03728e-06
2.03888e-06
2.04045e-06
2.042e-06
2.04353e-06
2.04504e-06
2.04653e-06
2.04801e-06
2.04947e-06
2.05093e-06
2.05237e-06
2.0538e-06
2.05523e-06
2.05665e-06
2.05806e-06
2.05948e-06
2.06089e-06
2.06229e-06
2.0637e-06
2.0651e-06
2.06651e-06
2.06791e-06
2.06932e-06
2.07073e-06
2.07214e-06
2.07356e-06
2.07497e-06
2.0764e-06
2.07782e-06
2.07925e-06
2.08069e-06
2.08213e-06
2.08357e-06
2.08503e-06
2.08648e-06
2.08795e-06
2.08942e-06
2.0909e-06
2.09238e-06
2.09387e-06
2.09537e-06
2.09688e-06
2.09839e-06
2.09991e-06
2.10144e-06
2.10298e-06
2.10453e-06
2.10609e-06
2.10765e-06
2.10922e-06
2.11081e-06
2.1124e-06
2.114e-06
2.11561e-06
2.11723e-06
2.11886e-06
2.1205e-06
2.12215e-06
2.12381e-06
2.12548e-06
2.12716e-06
2.12886e-06
2.13056e-06
2.13227e-06
2.134e-06
2.13574e-06
2.13748e-06
2.13924e-06
2.14101e-06
2.1428e-06
2.14459e-06
2.1464e-06
2.14822e-06
2.15005e-06
2.15189e-06
2.15375e-06
2.15562e-06
2.1575e-06
2.15939e-06
2.1613e-06
2.16322e-06
2.16516e-06
2.16711e-06
2.16907e-06
2.17105e-06
2.17304e-06
2.17504e-06
2.17706e-06
2.17909e-06
2.18114e-06
2.1832e-06
2.18528e-06
2.18737e-06
2.18948e-06
2.1916e-06
2.19374e-06
2.1959e-06
2.19806e-06
2.20025e-06
2.20245e-06
2.20467e-06
2.2069e-06
2.20914e-06
2.21143e-06
2.21366e-06
2.21607e-06
2.21813e-06
2.22102e-06
2.22218e-06
2.22696e-06
2.2247e-06
2.23555e-06
2.22342e-06
2.24947e-06
2.21589e-06
2.26981e-06
2.20363e-06
2.29151e-06
2.19481e-06
2.30537e-06
2.19593e-06
2.30987e-06
2.20456e-06
2.30289e-06
2.23748e-06
2.24566e-06
2.34074e-06
2.11974e-06
2.4756e-06
2.01807e-06
3.01487e-06
2.27661e-06
2.27661e-06
-0.095212
0.095212
0.0129711
0.00384961
0.0019289
0.00119044
0.000815768
0.000596044
0.000455218
0.000359581
0.000291965
0.000242147
0.000203615
0.000172864
0.000148485
0.000129399
0.000113583
9.83829e-05
8.19637e-05
6.44098e-05
4.75056e-05
3.3441e-05
2.3475e-05
1.74124e-05
1.39937e-05
1.17048e-05
9.43784e-06
6.73521e-06
3.6732e-06
5.90604e-07
-2.15954e-06
-4.35164e-06
-5.92168e-06
-6.93265e-06
-7.51505e-06
-7.81296e-06
-7.94972e-06
-8.01389e-06
-8.05962e-06
-8.11442e-06
-8.18844e-06
-8.2824e-06
-8.39301e-06
-8.51607e-06
-8.64793e-06
-8.78585e-06
-8.92804e-06
-9.07339e-06
-9.22128e-06
-9.37133e-06
-9.52333e-06
-9.67716e-06
-9.8327e-06
-9.98985e-06
-1.01485e-05
-1.03085e-05
-1.04698e-05
-1.06321e-05
-1.07954e-05
-1.09595e-05
-1.11241e-05
-1.12891e-05
-1.14544e-05
-1.16196e-05
-1.17846e-05
-1.19492e-05
-1.21131e-05
-1.2276e-05
-1.24379e-05
-1.25983e-05
-1.2757e-05
-1.29139e-05
-1.30686e-05
-1.32208e-05
-1.33704e-05
-1.35169e-05
-1.36602e-05
-1.38e-05
-1.3936e-05
-1.4068e-05
-1.41956e-05
-1.43186e-05
-1.44367e-05
-1.45497e-05
-1.46573e-05
-1.47592e-05
-1.48553e-05
-1.49452e-05
-1.50288e-05
-1.51057e-05
-1.51759e-05
-1.5239e-05
-1.5295e-05
-1.53435e-05
-1.53844e-05
-1.54177e-05
-1.5443e-05
-1.54603e-05
-1.54694e-05
-1.54703e-05
-1.54628e-05
-1.54469e-05
-1.54225e-05
-1.53895e-05
-1.53479e-05
-1.52977e-05
-1.52389e-05
-1.51716e-05
-1.50956e-05
-1.50111e-05
-1.49182e-05
-1.48169e-05
-1.47073e-05
-1.45896e-05
-1.44638e-05
-1.433e-05
-1.41886e-05
-1.40395e-05
-1.38831e-05
-1.37194e-05
-1.35488e-05
-1.33714e-05
-1.31875e-05
-1.29973e-05
-1.2801e-05
-1.2599e-05
-1.23915e-05
-1.21788e-05
-1.19612e-05
-1.17389e-05
-1.15124e-05
-1.12818e-05
-1.10475e-05
-1.08098e-05
-1.05691e-05
-1.03256e-05
-1.00797e-05
-9.83166e-06
-9.58184e-06
-9.33053e-06
-9.07806e-06
-8.82474e-06
-8.57087e-06
-8.31676e-06
-8.0627e-06
-7.80899e-06
-7.5559e-06
-7.30372e-06
-7.05273e-06
-6.80316e-06
-6.5553e-06
-6.30936e-06
-6.0656e-06
-5.82423e-06
-5.58547e-06
-5.34952e-06
-5.11659e-06
-4.88684e-06
-4.66045e-06
-4.43758e-06
-4.21839e-06
-4.003e-06
-3.79155e-06
-3.58415e-06
-3.38091e-06
-3.18191e-06
-2.98726e-06
-2.797e-06
-2.61121e-06
-2.42993e-06
-2.25322e-06
-2.08109e-06
-1.91358e-06
-1.75069e-06
-1.59242e-06
-1.43878e-06
-1.28975e-06
-1.14531e-06
-1.00543e-06
-8.70077e-07
-7.39208e-07
-6.12772e-07
-4.9072e-07
-3.72988e-07
-2.59515e-07
-1.50228e-07
-4.50572e-08
5.6079e-08
1.53257e-07
2.46566e-07
3.36089e-07
4.21919e-07
5.04144e-07
5.82862e-07
6.58163e-07
7.30148e-07
7.98908e-07
8.64547e-07
9.27157e-07
9.8684e-07
1.04369e-06
1.09781e-06
1.14929e-06
1.19823e-06
1.24472e-06
1.28885e-06
1.33073e-06
1.37043e-06
1.40805e-06
1.44368e-06
1.4774e-06
1.50929e-06
1.53943e-06
1.56792e-06
1.59481e-06
1.62019e-06
1.64412e-06
1.66669e-06
1.68795e-06
1.70798e-06
1.72683e-06
1.74458e-06
1.76126e-06
1.77696e-06
1.79171e-06
1.80557e-06
1.81859e-06
1.83082e-06
1.8423e-06
1.85308e-06
1.8632e-06
1.8727e-06
1.88162e-06
1.88999e-06
1.89784e-06
1.90522e-06
1.91214e-06
1.91865e-06
1.92476e-06
1.9305e-06
1.9359e-06
1.94099e-06
1.94577e-06
1.95028e-06
1.95453e-06
1.95855e-06
1.96234e-06
1.96592e-06
1.96932e-06
1.97254e-06
1.97559e-06
1.9785e-06
1.98126e-06
1.9839e-06
1.98641e-06
1.98882e-06
1.99113e-06
1.99334e-06
1.99547e-06
1.99753e-06
1.99951e-06
2.00143e-06
2.00329e-06
2.00509e-06
2.00685e-06
2.00856e-06
2.01023e-06
2.01187e-06
2.01347e-06
2.01504e-06
2.01658e-06
2.01811e-06
2.01961e-06
2.02109e-06
2.02255e-06
2.02401e-06
2.02544e-06
2.02687e-06
2.02829e-06
2.0297e-06
2.03111e-06
2.03251e-06
2.0339e-06
2.0353e-06
2.03669e-06
2.03808e-06
2.03947e-06
2.04086e-06
2.04225e-06
2.04365e-06
2.04504e-06
2.04645e-06
2.04785e-06
2.04926e-06
2.05068e-06
2.0521e-06
2.05353e-06
2.05496e-06
2.0564e-06
2.05785e-06
2.0593e-06
2.06077e-06
2.06224e-06
2.06372e-06
2.06521e-06
2.0667e-06
2.06821e-06
2.06973e-06
2.07125e-06
2.07279e-06
2.07434e-06
2.07589e-06
2.07746e-06
2.07904e-06
2.08063e-06
2.08223e-06
2.08384e-06
2.08547e-06
2.08711e-06
2.08876e-06
2.09042e-06
2.09209e-06
2.09378e-06
2.09548e-06
2.09719e-06
2.09892e-06
2.10066e-06
2.10241e-06
2.10418e-06
2.10596e-06
2.10775e-06
2.10956e-06
2.11139e-06
2.11323e-06
2.11508e-06
2.11695e-06
2.11884e-06
2.12074e-06
2.12265e-06
2.12458e-06
2.12653e-06
2.1285e-06
2.13048e-06
2.13247e-06
2.13448e-06
2.13652e-06
2.13856e-06
2.14063e-06
2.14271e-06
2.14481e-06
2.14692e-06
2.14906e-06
2.15121e-06
2.15338e-06
2.15557e-06
2.15777e-06
2.16e-06
2.16224e-06
2.1645e-06
2.16678e-06
2.16908e-06
2.1714e-06
2.17373e-06
2.17609e-06
2.17846e-06
2.18086e-06
2.18327e-06
2.1857e-06
2.18816e-06
2.1906e-06
2.19315e-06
2.19551e-06
2.19842e-06
2.20007e-06
2.20463e-06
2.20296e-06
2.2142e-06
2.20015e-06
2.2333e-06
2.18313e-06
2.272e-06
2.14253e-06
2.33493e-06
2.08325e-06
2.40379e-06
2.03573e-06
2.44346e-06
2.02561e-06
2.44719e-06
2.04332e-06
2.40974e-06
2.14754e-06
2.18792e-06
2.51513e-06
1.70053e-06
3.01021e-06
1.31285e-06
4.91632e-06
2.27049e-06
2.27049e-06
-0.125289
0.125289
0.0249304
0.00835156
0.00427066
0.00265343
0.00182517
0.00133711
0.00102336
0.00080985
0.000658598
0.000546933
0.000460513
0.00039166
0.000337132
0.000294238
0.000258286
0.000223515
0.000186236
0.000146986
0.000109775
7.92074e-05
5.77041e-05
4.45682e-05
3.69527e-05
3.16169e-05
2.62822e-05
2.00759e-05
1.32313e-05
6.49274e-06
5.95406e-07
-4.01711e-06
-7.24803e-06
-9.26306e-06
-1.036e-05
-1.08551e-05
-1.10134e-05
-1.10223e-05
-1.09944e-05
-1.09859e-05
-1.10167e-05
-1.10873e-05
-1.11901e-05
-1.13161e-05
-1.14573e-05
-1.16082e-05
-1.17651e-05
-1.19256e-05
-1.20886e-05
-1.22534e-05
-1.24196e-05
-1.25871e-05
-1.27558e-05
-1.29256e-05
-1.30963e-05
-1.32679e-05
-1.34402e-05
-1.36132e-05
-1.37865e-05
-1.39601e-05
-1.41337e-05
-1.43072e-05
-1.44803e-05
-1.46528e-05
-1.48245e-05
-1.49951e-05
-1.51644e-05
-1.53321e-05
-1.5498e-05
-1.56618e-05
-1.58233e-05
-1.5982e-05
-1.61379e-05
-1.62905e-05
-1.64397e-05
-1.6585e-05
-1.67263e-05
-1.68632e-05
-1.69954e-05
-1.71227e-05
-1.72448e-05
-1.73614e-05
-1.74722e-05
-1.7577e-05
-1.76755e-05
-1.77674e-05
-1.78524e-05
-1.79304e-05
-1.80011e-05
-1.80643e-05
-1.81198e-05
-1.81673e-05
-1.82066e-05
-1.82377e-05
-1.82603e-05
-1.82742e-05
-1.82794e-05
-1.82757e-05
-1.8263e-05
-1.82412e-05
-1.82102e-05
-1.81699e-05
-1.81204e-05
-1.80616e-05
-1.79935e-05
-1.79161e-05
-1.78294e-05
-1.77334e-05
-1.76282e-05
-1.7514e-05
-1.73907e-05
-1.72585e-05
-1.71175e-05
-1.69679e-05
-1.68099e-05
-1.66435e-05
-1.6469e-05
-1.62866e-05
-1.60965e-05
-1.58989e-05
-1.56941e-05
-1.54824e-05
-1.5264e-05
-1.50392e-05
-1.48083e-05
-1.45716e-05
-1.43294e-05
-1.4082e-05
-1.38297e-05
-1.35729e-05
-1.33119e-05
-1.3047e-05
-1.27786e-05
-1.25071e-05
-1.22327e-05
-1.19558e-05
-1.16768e-05
-1.13961e-05
-1.11138e-05
-1.08305e-05
-1.05464e-05
-1.02618e-05
-9.9772e-06
-9.69276e-06
-9.40886e-06
-9.12579e-06
-8.84387e-06
-8.56337e-06
-8.28459e-06
-8.00779e-06
-7.73325e-06
-7.46121e-06
-7.19192e-06
-6.92561e-06
-6.6625e-06
-6.40279e-06
-6.1467e-06
-5.89439e-06
-5.64605e-06
-5.40183e-06
-5.1619e-06
-4.92636e-06
-4.69538e-06
-4.46903e-06
-4.24744e-06
-4.03068e-06
-3.81885e-06
-3.61199e-06
-3.41017e-06
-3.21342e-06
-3.02179e-06
-2.8353e-06
-2.65395e-06
-2.47775e-06
-2.3067e-06
-2.14078e-06
-1.97996e-06
-1.82422e-06
-1.67351e-06
-1.52778e-06
-1.387e-06
-1.25108e-06
-1.11997e-06
-9.93597e-07
-8.71886e-07
-7.54747e-07
-6.42105e-07
-5.3386e-07
-4.29928e-07
-3.30203e-07
-2.34597e-07
-1.42997e-07
-5.53119e-08
2.85753e-08
1.08759e-07
1.85359e-07
2.5847e-07
3.28212e-07
3.94682e-07
4.57999e-07
5.1826e-07
5.75582e-07
6.30061e-07
6.81812e-07
7.30928e-07
7.77521e-07
8.21682e-07
8.6352e-07
9.0312e-07
9.40588e-07
9.76006e-07
1.00947e-06
1.04107e-06
1.07089e-06
1.09901e-06
1.12552e-06
1.15049e-06
1.17399e-06
1.19611e-06
1.21691e-06
1.23645e-06
1.25482e-06
1.27205e-06
1.28824e-06
1.30341e-06
1.31765e-06
1.33099e-06
1.34349e-06
1.35519e-06
1.36615e-06
1.37641e-06
1.38601e-06
1.39499e-06
1.40339e-06
1.41124e-06
1.41859e-06
1.42545e-06
1.43188e-06
1.43788e-06
1.4435e-06
1.44875e-06
1.45367e-06
1.45827e-06
1.46258e-06
1.46661e-06
1.4704e-06
1.47394e-06
1.47727e-06
1.48039e-06
1.48334e-06
1.4861e-06
1.48871e-06
1.49117e-06
1.49349e-06
1.49569e-06
1.49777e-06
1.49975e-06
1.50163e-06
1.50341e-06
1.50512e-06
1.50675e-06
1.50832e-06
1.50981e-06
1.51126e-06
1.51265e-06
1.514e-06
1.51529e-06
1.51656e-06
1.51778e-06
1.51898e-06
1.52015e-06
1.52129e-06
1.52241e-06
1.52352e-06
1.5246e-06
1.52567e-06
1.52672e-06
1.52777e-06
1.5288e-06
1.52983e-06
1.53085e-06
1.53187e-06
1.53288e-06
1.5339e-06
1.5349e-06
1.53591e-06
1.53692e-06
1.53793e-06
1.53894e-06
1.53996e-06
1.54098e-06
1.54201e-06
1.54303e-06
1.54407e-06
1.54511e-06
1.54616e-06
1.54722e-06
1.54828e-06
1.54935e-06
1.55043e-06
1.55152e-06
1.55262e-06
1.55373e-06
1.55485e-06
1.55598e-06
1.55712e-06
1.55827e-06
1.55944e-06
1.56061e-06
1.5618e-06
1.563e-06
1.56422e-06
1.56544e-06
1.56668e-06
1.56793e-06
1.5692e-06
1.57048e-06
1.57178e-06
1.57309e-06
1.57441e-06
1.57575e-06
1.57711e-06
1.57847e-06
1.57986e-06
1.58126e-06
1.58268e-06
1.58411e-06
1.58557e-06
1.58703e-06
1.58852e-06
1.59002e-06
1.59154e-06
1.59308e-06
1.59464e-06
1.59621e-06
1.5978e-06
1.59941e-06
1.60104e-06
1.60269e-06
1.60436e-06
1.60604e-06
1.60775e-06
1.60948e-06
1.61122e-06
1.61299e-06
1.61478e-06
1.61658e-06
1.61841e-06
1.62025e-06
1.62212e-06
1.62401e-06
1.62592e-06
1.62785e-06
1.6298e-06
1.63177e-06
1.63377e-06
1.63578e-06
1.63782e-06
1.63988e-06
1.64196e-06
1.64406e-06
1.64619e-06
1.64833e-06
1.65049e-06
1.65268e-06
1.65489e-06
1.65711e-06
1.65936e-06
1.66164e-06
1.66389e-06
1.66632e-06
1.66833e-06
1.67146e-06
1.67199e-06
1.6785e-06
1.67209e-06
1.69246e-06
1.66014e-06
1.72641e-06
1.61806e-06
1.80192e-06
1.52541e-06
1.92966e-06
1.39171e-06
2.07131e-06
1.28191e-06
2.15087e-06
1.25249e-06
2.15261e-06
1.28215e-06
2.06925e-06
1.49052e-06
1.59776e-06
2.26056e-06
5.4957e-07
3.31238e-06
-2.71577e-07
7.19525e-06
1.75343e-06
1.75343e-06
-0.146483
0.146483
0.0383043
0.0142262
0.00744669
0.00466212
0.00321908
0.00236385
0.00181214
0.0014358
0.00116865
0.000971027
0.000817977
0.00069618
0.000599763
0.000523579
0.000459126
0.000396513
0.000329844
0.000260539
0.00019568
0.000142941
0.000106021
8.33239e-05
6.97992e-05
5.99502e-05
5.00468e-05
3.8765e-05
2.6603e-05
1.48503e-05
4.723e-06
-3.08543e-06
-8.47145e-06
-1.1763e-05
-1.34939e-05
-1.42139e-05
-1.43752e-05
-1.4293e-05
-1.41546e-05
-1.40516e-05
-1.40151e-05
-1.40445e-05
-1.41264e-05
-1.42451e-05
-1.43874e-05
-1.45438e-05
-1.4708e-05
-1.48765e-05
-1.50472e-05
-1.52191e-05
-1.53917e-05
-1.55649e-05
-1.57385e-05
-1.59125e-05
-1.60869e-05
-1.62614e-05
-1.64361e-05
-1.66107e-05
-1.67852e-05
-1.69594e-05
-1.7133e-05
-1.73059e-05
-1.74779e-05
-1.76487e-05
-1.78181e-05
-1.79859e-05
-1.81518e-05
-1.83155e-05
-1.84768e-05
-1.86354e-05
-1.8791e-05
-1.89434e-05
-1.90923e-05
-1.92373e-05
-1.93782e-05
-1.95146e-05
-1.96464e-05
-1.97732e-05
-1.98948e-05
-2.00107e-05
-2.01208e-05
-2.02248e-05
-2.03224e-05
-2.04133e-05
-2.04973e-05
-2.05741e-05
-2.06435e-05
-2.07052e-05
-2.07591e-05
-2.08048e-05
-2.08422e-05
-2.08711e-05
-2.08914e-05
-2.09028e-05
-2.09052e-05
-2.08985e-05
-2.08825e-05
-2.08571e-05
-2.08223e-05
-2.0778e-05
-2.07241e-05
-2.06605e-05
-2.05873e-05
-2.05044e-05
-2.04119e-05
-2.03098e-05
-2.01981e-05
-2.00769e-05
-1.99462e-05
-1.98062e-05
-1.96571e-05
-1.94988e-05
-1.93316e-05
-1.91557e-05
-1.89711e-05
-1.87782e-05
-1.85772e-05
-1.83682e-05
-1.81515e-05
-1.79274e-05
-1.76961e-05
-1.7458e-05
-1.72132e-05
-1.69622e-05
-1.67051e-05
-1.64425e-05
-1.61745e-05
-1.59015e-05
-1.56239e-05
-1.53419e-05
-1.5056e-05
-1.47666e-05
-1.44739e-05
-1.41783e-05
-1.38803e-05
-1.358e-05
-1.3278e-05
-1.29746e-05
-1.26701e-05
-1.23649e-05
-1.20593e-05
-1.17536e-05
-1.14483e-05
-1.11436e-05
-1.08399e-05
-1.05374e-05
-1.02365e-05
-9.93745e-06
-9.64059e-06
-9.34616e-06
-9.05443e-06
-8.76566e-06
-8.48009e-06
-8.19795e-06
-7.91947e-06
-7.64484e-06
-7.37427e-06
-7.10793e-06
-6.84601e-06
-6.58865e-06
-6.33601e-06
-6.0882e-06
-5.84536e-06
-5.60759e-06
-5.37498e-06
-5.14762e-06
-4.92558e-06
-4.7089e-06
-4.49766e-06
-4.29187e-06
-4.09157e-06
-3.89676e-06
-3.70746e-06
-3.52366e-06
-3.34534e-06
-3.17247e-06
-3.00504e-06
-2.84299e-06
-2.68628e-06
-2.53485e-06
-2.38864e-06
-2.24758e-06
-2.1116e-06
-1.98061e-06
-1.85453e-06
-1.73327e-06
-1.61674e-06
-1.50483e-06
-1.39745e-06
-1.29449e-06
-1.19584e-06
-1.1014e-06
-1.01106e-06
-9.24686e-07
-8.42193e-07
-7.63444e-07
-6.88344e-07
-6.16758e-07
-5.48591e-07
-4.83709e-07
-4.22017e-07
-3.63384e-07
-3.07717e-07
-2.54886e-07
-2.04802e-07
-1.57338e-07
-1.12407e-07
-6.98878e-08
-2.96969e-08
8.28318e-09
4.41309e-08
7.79592e-08
1.09842e-07
1.39886e-07
1.68161e-07
1.9477e-07
2.19775e-07
2.43274e-07
2.65324e-07
2.86019e-07
3.0541e-07
3.23584e-07
3.40588e-07
3.56505e-07
3.71375e-07
3.85276e-07
3.98243e-07
4.1035e-07
4.21628e-07
4.32144e-07
4.41925e-07
4.51035e-07
4.59495e-07
4.67364e-07
4.74662e-07
4.81442e-07
4.8772e-07
4.93547e-07
4.98933e-07
5.03927e-07
5.08537e-07
5.12806e-07
5.1674e-07
5.2038e-07
5.2373e-07
5.26827e-07
5.29671e-07
5.32299e-07
5.34709e-07
5.36935e-07
5.38973e-07
5.40854e-07
5.42573e-07
5.4416e-07
5.45607e-07
5.46945e-07
5.48163e-07
5.49288e-07
5.50312e-07
5.5126e-07
5.5212e-07
5.52918e-07
5.53642e-07
5.54316e-07
5.54926e-07
5.55497e-07
5.56014e-07
5.565e-07
5.5694e-07
5.57357e-07
5.57735e-07
5.58097e-07
5.58426e-07
5.58745e-07
5.59035e-07
5.5932e-07
5.59581e-07
5.59841e-07
5.60081e-07
5.60323e-07
5.60549e-07
5.60779e-07
5.60996e-07
5.61221e-07
5.61435e-07
5.61658e-07
5.61873e-07
5.62099e-07
5.62319e-07
5.62552e-07
5.6278e-07
5.63022e-07
5.63261e-07
5.63517e-07
5.6377e-07
5.6404e-07
5.64309e-07
5.64597e-07
5.64884e-07
5.65191e-07
5.65499e-07
5.65828e-07
5.66158e-07
5.66509e-07
5.66863e-07
5.67239e-07
5.67618e-07
5.6802e-07
5.68426e-07
5.68856e-07
5.6929e-07
5.69749e-07
5.70213e-07
5.70701e-07
5.71196e-07
5.71716e-07
5.72243e-07
5.72796e-07
5.73356e-07
5.73942e-07
5.74537e-07
5.75158e-07
5.75789e-07
5.76446e-07
5.77113e-07
5.77807e-07
5.78512e-07
5.79244e-07
5.79987e-07
5.80759e-07
5.81542e-07
5.82354e-07
5.83177e-07
5.8403e-07
5.84895e-07
5.8579e-07
5.86697e-07
5.87635e-07
5.88585e-07
5.89566e-07
5.9056e-07
5.91586e-07
5.92625e-07
5.93696e-07
5.9478e-07
5.95896e-07
5.97026e-07
5.98189e-07
5.99365e-07
6.00574e-07
6.01797e-07
6.03053e-07
6.04322e-07
6.05625e-07
6.06942e-07
6.08291e-07
6.09654e-07
6.1105e-07
6.1246e-07
6.13902e-07
6.15357e-07