# vtk DataFile Version 2.0
FlowField
ASCII
DATASET STRUCTURED_GRID
DIMENSIONS 400 1 200
POINTS 80000 float
0 0 0
0.08 0 0
0.16 0 0
0.24 0 0
0.32 0 0
0.4 0 0
0.48 0 0
0.56 0 0
0.64 0 0
0.72 0 0
0.8 0 0
0.88 0 0
0.96 0 0
1.04 0 0
1.12 0 0
1.2 0 0
1.28 0 0
1.36 0 0
1.44 0 0
1.52 0 0
1.6 0 0
1.68 0 0
1.76 0 0
1.84 0 0
1.92 0 0
2 0 0
2.08 0 0
2.16 0 0
2.24 0 0
2.32 0 0
2.4 0 0
2.48 0 0
2.56 0 0
2.64 0 0
2.72 0 0
2.8 0 0
2.88 0 0
2.96 0 0
3.04 0 0
3.12 0 0
3.2 0 0
3.28 0 0
3.36 0 0
3.44 0 0
3.52 0 0
3.6 0 0
3.68 0 0
3.76 0 0
3.84 0 0
3.92 0 0
4 0 0
4.08 0 0
4.16 0 0
4.24 0 0
4.32 0 0
4.4 0 0
4.48 0 0
4.56 0 0
4.64 0 0
4.72 0 0
4.8 0 0
4.88 0 0
4.96 0 0
5.04 0 0
5.12 0 0
5.2 0 0
5.28 0 0
5.36 0 0
5.44 0 0
5.52 0 0
5.6 0 0
5.68 0 0
5.76 0 0
5.84 0 0
5.92 0 0
6 0 0
6.08 0 0
6.16 0 0
6.24 0 0
6.32 0 0
6.4 0 0
6.48 0 0
6.56 0 0
6.64 0 0
6.72 0 0
6.8 0 0
6.88 0 0
6.96 0 0
7.04 0 0
7.12 0 0
7.2 0 0
7.28 0 0
7.36 0 0
7.44 0 0
7.52 0 0
7.6 0 0
7.68 0 0
7.76 0 0
7.84 0 0
7.92 0 0
8 0 0
8.08 0 0
8.16 0 0
8.24 0 0
8.32 0 0
8.4 0 0
8.48 0 0
8.56 0 0
8.64 0 0
8.72 0 0
8.8 0 0
8.88 0 0
8.96 0 0
9.04 0 0
9.12 0 0
9.2 0 0
9.28 0 0
9.36 0 0
9.44 0 0
9.52 0 0
9.6 0 0
9.68 0 0
9.76 0 0
9.84 0 0
9.92 0 0
10 0 0
10.08 0 0
10.16 0 0
10.24 0 0
10.32 0 0
10.4 0 0
10.48 0 0
10.56 0 0
10.64 0 0
10.72 0 0
10.8 0 0
10.88 0 0
10.96 0 0
11.04 0 0
11.12 0 0
11.2 0 0
11.28 0 0
11.36 0 0
11.44 0 0
11.52 0 0
11.6 0 0
11.68 0 0
11.76 0 0
11.84 0 0
11.92 0 0
12 0 0
12.08 0 0
12.16 0 0
12.24 0 0
12.32 0 0
12.4 0 0
12.48 0 0
12.56 0 0
12.64 0 0
12.72 0 0
12.8 0 0
12.88 0 0
12.96 0 0
13.04 0 0
13.12 0 0
13.2 0 0
13.28 0 0
13.36 0 0
13.44 0 0
13.52 0 0
13.6 0 0
13.68 0 0
13.76 0 0
13.84 0 0
13.92 0 0
14 0 0
14.08 0 0
14.16 0 0
14.24 0 0
14.32 0 0
14.4 0 0
14.48 0 0
14.56 0 0
14.64 0 0
14.72 0 0
14.8 0 0
14.88 0 0
14.96 0 0
15.04 0 0
15.12 0 0
15.2 0 0
15.28 0 0
15.36 0 0
15.44 0 0
15.52 0 0
15.6 0 0
15.68 0 0
15.76 0 0
15.84 0 0
15.92 0 0
16 0 0
16.08 0 0
16.16 0 0
16.24 0 0
16.32 0 0
16.4 0 0
16.48 0 0
16.56 0 0
16.64 0 0
16.72 0 0
16.8 0 0
16.88 0 0
16.96 0 0
17.04 0 0
17.12 0 0
17.2 0 0
17.28 0 0
17.36 0 0
17.44 0 0
17.52 0 0
17.6 0 0
17.68 0 0
17.76 0 0
17.84 0 0
17.92 0 0
18 0 0
18.08 0 0
18.16 0 0
18.24 0 0
18.32 0 0
18.4 0 0
18.48 0 0
18.56 0 0
18.64 0 0
18.72 0 0
18.8 0 0
18.88 0 0
18.96 0 0
19.04 0 0
19.12 0 0
19.2 0 0
19.28 0 0
19.36 0 0
19.44 0 0
19.52 0 0
19.6 0 0
19.68 0 0
19.76 0 0
19.84 0 0
19.92 0 0
20 0 0
20.08 0 0
20.16 0 0
20.24 0 0
20.32 0 0
20.4 0 0
20.48 0 0
20.56 0 0
20.64 0 0
20.72 0 0
20.8 0 0
20.88 0 0
20.96 0 0
21.04 0 0
21.12 0 0
21.2 0 0
21.28 0 0
21.36 0 0
21.44 0 0
21.52 0 0
21.6 0 0
21.68 0 0
21.76 0 0
21.84 0 0
21.92 0 0
22 0 0
22.08 0 0
22.16 0 0
22.24 0 0
22.32 0 0
22.4 0 0
22.48 0 0
22.56 0 0
22.64 0 0
22.72 0 0
22.8 0 0
22.88 0 0
22.96 0 0
23.04 0 0
23.12 0 0
23.2 0 0
23.28 0 0
23.36 0 0
23.44 0 0
23.52 0 0
23.6 0 0
23.68 0 0
23.76 0 0
23.84 0 0
23.92 0 0
24 0 0
24.08 0 0
24.16 0 0
24.24 0 0
24.32 0 0
24.4 0 0
24.48 0 0
24.56 0 0
24.64 0 0
24.72 0 0
24.8 0 0
24.88 0 0
24.96 0 0
25.04 0 0
25.12 0 0
25.2 0 0
25.28 0 0
25.36 0 0
25.44 0 0
25.52 0 0
25.6 0 0
25.68 0 0
25.76 0 0
25.84 0 0
25.92 0 0
26 0 0
26.08 0 0
26.16 0 0
26.24 0 0
26.32 0 0
26.4 0 0
26.48 0 0
26.56 0 0
26.64 0 0
26.72 0 0
26.8 0 0
26.88 0 0
26.96 0 0
27.04 0 0
27.12 0 0
27.2 0 0
27.28 0 0
27.36 0 0
27.44 0 0
27.52 0 0
27.6 0 0
27.68 0 0
27.76 0 0
27.84 0 0
27.92 0 0
28 0 0
28.08 0 0
28.16 0 0
28.24 0 0
28.32 0 0
28.4 0 0
28.48 0 0
28.56 0 0
28.64 0 0
28.72 0 0
28.8 0 0
28.88 0 0
28.96 0 0
29.04 0 0
29.12 0 0
29.2 0 0
29.28 0 0
29.36 0 0
29.44 0 0
29.52 0 0
29.6 0 0
29.68 0 0
29.76 0 0
29.84 0 0
29.92 0 0
30 0 0
30.08 0 0
30.16 0 0
30.24 0 0
30.32 0 0
30.4 0 0
30.48 0 0
30.56 0 0
30.64 0 0
30.72 0 0
30.8 0 0
30.88 0 0
30.96 0 0
31.04 0 0
31.12 0 0
31.2 0 0
31.28 0 0
31.36 0 0
31.44 0 0
31.52 0 0
31.6 0 0
31.68 0 0
31.76 0 0
31.84 0 0
31.92 0 0
0 0.005 0
0.08 0.005 0
0.16 0.005 0
0.24 0.005 0
0.32 0.005 0
0.4 0.005 0
0.48 0.005 0
0.56 0.005 0
0.64 0.005 0
0.72 0.005 0
0.8 0.005 0
0.88 0.005 0
0.96 0.005 0
1.04 0.005 0
1.12 0.005 0
1.2 0.005 0
1.28 0.005 0
1.36 0.005 0
1.44 0.005 0
1.52 0.005 0
1.6 0.005 0
1.68 0.005 0
1.76 0.005 0
1.84 0.005 0
1.92 0.005 0
2 0.005 0
2.08 0.005 0
2.16 0.005 0
2.24 0.005 0
2.32 0.005 0
2.4 0.005 0
2.48 0.005 0
2.56 0.005 0
2.64 0.005 0
2.72 0.005 0
2.8 0.005 0
2.88 0.005 0
2.96 0.005 0
3.04 0.005 0
3.12 0.005 0
3.2 0.005 0
3.28 0.005 0
3.36 0.005 0
3.44 0.005 0
3.52 0.005 0
3.6 0.005 0
3.68 0.005 0
3.76 0.005 0
3.84 0.005 0
3.92 0.005 0
4 0.005 0
4.08 0.005 0
4.16 0.005 0
4.24 0.005 0
4.32 0.005 0
4.4 0.005 0
4.48 0.005 0
4.56 0.005 0
4.64 0.005 0
4.72 0.005 0
4.8 0.005 0
4.88 0.005 0
4.96 0.005 0
5.04 0.005 0
5.12 0.005 0
5.2 0.005 0
5.28 0.005 0
5.36 0.005 0
5.44 0.005 0
5.52 0.005 0
5.6 0.005 0
5.68 0.005 0
5.76 0.005 0
5.84 0.005 0
5.92 0.005 0
6 0.005 0
6.08 0.005 0
6.16 0.005 0
6.24 0.005 0
6.32 0.005 0
6.4 0.005 0
6.48 0.005 0
6.56 0.005 0
6.64 0.005 0
6.72 0.005 0
6.8 0.005 0
6.88 0.005 0
6.96 0.005 0
7.04 0.005 0
7.12 0.005 0
7.2 0.005 0
7.28 0.005 0
7.36 0.005 0
7.44 0.005 0
7.52 0.005 0
7.6 0.005 0
7.68 0.005 0
7.76 0.005 0
7.84 0.005 0
7.92 0.005 0
8 0.005 0
8.08 0.005 0
8.16 0.005 0
8.24 0.005 0
8.32 0.005 0
8.4 0.005 0
8.48 0.005 0
8.56 0.005 0
8.64 0.005 0
8.72 0.005 0
8.8 0.005 0
8.88 0.005 0
8.96 0.005 0
9.04 0.005 0
9.12 0.005 0
9.2 0.005 0
9.28 0.005 0
9.36 0.005 0
9.44 0.005 0
9.52 0.005 0
9.6 0.005 0
9.68 0.005 0
9.76 0.005 0
9.84 0.005 0
9.92 0.005 0
10 0.005 0
10.08 0.005 0
10.16 0.005 0
10.24 0.005 0
10.32 0.005 0
10.4 0.005 0
10.48 0.005 0
10.56 0.005 0
10.64 0.005 0
10.72 0.005 0
10.8 0.005 0
10.88 0.005 0
10.96 0.005 0
11.04 0.005 0
11.12 0.005 0
11.2 0.005 0
11.28 0.005 0
11.36 0.005 0
11.44 0.005 0
11.52 0.005 0
11.6 0.005 0
11.68 0.005 0
11.76 0.005 0
11.84 0.005 0
11.92 0.005 0
12 0.005 0
12.08 0.005 0
12.16 0.005 0
12.24 0.005 0
12.32 0.005 0
12.4 0.005 0
12.48 0.005 0
12.56 0.005 0
12.64 0.005 0
12.72 0.005 0
12.8 0.005 0
12.88 0.005 0
12.96 0.005 0
13.04 0.005 0
13.12 0.005 0
13.2 0.005 0
13.28 0.005 0
13.36 0.005 0
13.44 0.005 0
13.52 0.005 0
13.6 0.005 0
13.68 0.005 0
13.76 0.005 0
13.84 0.005 0
13.92 0.005 0
14 0.005 0
14.08 0.005 0
14.16 0.005 0
14.24 0.005 0
14.32 0.005 0
14.4 0.005 0
14.48 0.005 0
14.56 0.005 0
14.64 0.005 0
14.72 0.005 0
14.8 0.005 0
14.88 0.005 0
14.96 0.005 0
15.04 0.005 0
15.12 0.005 0
15.2 0.005 0
15.28 0.005 0
15.36 0.005 0
15.44 0.005 0
15.52 0.005 0
15.6 0.005 0
15.68 0.005 0
15.76 0.005 0
15.84 0.005 0
15.92 0.005 0
16 0.005 0
16.08 0.005 0
16.16 0.005 0
16.24 0.005 0
16.32 0.005 0
16.4 0.005 0
16.48 0.005 0
16.56 0.005 0
16.64 0.005 0
16.72 0.005 0
16.8 0.005 0
16.88 0.005 0
16.96 0.005 0
17.04 0.005 0
17.12 0.005 0
17.2 0.005 0
17.28 0.005 0
17.36 0.005 0
17.44 0.005 0
17.52 0.005 0
17.6 0.005 0
17.68 0.005 0
17.76 0.005 0
17.84 0.005 0
17.92 0.005 0
18 0.005 0
18.08 0.005 0
18.16 0.005 0
18.24 0.005 0
18.32 0.005 0
18.4 0.005 0
18.48 0.005 0
18.56 0.005 0
18.64 0.005 0
18.72 0.005 0
18.8 0.005 0
18.88 0.005 0
18.96 0.005 0
19.04 0.005 0
19.12 0.005 0
19.2 0.005 0
19.28 0.005 0
19.36 0.005 0
19.44 0.005 0
19.52 0.005 0
19.6 0.005 0
19.68 0.005 0
19.76 0.005 0
19.84 0.005 0
19.92 0.005 0
20 0.005 0
20.08 0.005 0
20.16 0.005 0
20.24 0.005 0
20.32 0.005 0
20.4 0.005 0
20.48 0.005 0
20.56 0.005 0
20.64 0.005 0
20.72 0.005 0
20.8 0.005 0
20.88 0.005 0
20.96 0.005 0
21.04 0.005 0
21.12 0.005 0
21.2 0.005 0
21.28 0.005 0
21.36 0.005 0
21.44 0.005 0
21.52 0.005 0
21.6 0.005 0
21.68 0.005 0
21.76 0.005 0
21.84 0.005 0
21.92 0.005 0
22 0.005 0
22.08 0.005 0
22.16 0.005 0
22.24 0.005 0
22.32 0.005 0
22.4 0.005 0
22.48 0.005 0
22.56 0.005 0
22.64 0.005 0
22.72 0.005 0
22.8 0.005 0
22.88 0.005 0
22.96 0.005 0
23.04 0.005 0
23.12 0.005 0
23.2 0.005 0
23.28 0.005 0
23.36 0.005 0
23.44 0.005 0
23.52 0.005 0
23.6 0.005 0
23.68 0.005 0
23.76 0.005 0
23.84 0.005 0
23.92 0.005 0
24 0.005 0
24.08 0.005 0
24.16 0.005 0
24.24 0.005 0
24.32 0.005 0
24.4 0.005 0
24.48 0.005 0
24.56 0.005 0
24.64 0.005 0
24.72 0.005 0
24.8 0.005 0
24.88 0.005 0
24.96 0.005 0
25.04 0.005 0
25.12 0.005 0
25.2 0.005 0
25.28 0.005 0
25.36 0.005 0
25.44 0.005 0
25.52 0.005 0
25.6 0.005 0
25.68 0.005 0
25.76 0.005 0
25.84 0.005 0
25.92 0.005 0
26 0.005 0
26.08 0.005 0
26.16 0.005 0
26.24 0.005 0
26.32 0.005 0
26.4 0.005 0
26.48 0.005 0
26.56 0.005 0
26.64 0.005 0
26.72 0.005 0
26.8 0.005 0
26.88 0.005 0
26.96 0.005 0
27.04 0.005 0
27.12 0.005 0
27.2 0.005 0
27.28 0.005 0
27.36 0.005 0
27.44 0.005 0
27.52 0.005 0
27.6 0.005 0
27.68 0.005 0
27.76 0.005 0
27.84 0.005 0
27.92 0.005 0
28 0.005 0
28.08 0.005 0
28.16 0.005 0
28.24 0.005 0
28.32 0.005 0
28.4 0.005 0
28.48 0.005 0
28.56 0.005 0
28.64 0.005 0
28.72 0.005 0
28.8 0.005 0
28.88 0.005 0
28.96 0.005 0
29.04 0.005 0
29.12 0.005 0
29.2 0.005 0
29.28 0.005 0
29.36 0.005 0
29.44 0.005 0
29.52 0.005 0
29.6 0.005 0
29.68 0.005 0
29.76 0.005 0
29.84 0.005 0
29.92 0.005 0
30 0.005 0
30.08 0.005 0
30.16 0.005 0
30.24 0.005 0
30.32 0.005 0
30.4 0.005 0
30.48 0.005 0
30.56 0.005 0
30.64 0.005 0
30.72 0.005 0
30.8 0.005 0
30.88 0.005 0
30.96 0.005 0
31.04 0.005 0
31.12 0.005 0
31.2 0.005 0
31.28 0.005 0
31.36 0.005 0
31.44 0.005 0
31.52 0.005 0
31.6 0.005 0
31.68 0.005 0
31.76 0.005 0
31.84 0.005 0
31.92 0.005 0
0 0.01 0
0.08 0.01 0
0.16 0.01 0
0.24 0.01 0
0.32 0.01 0
0.4 0.01 0
0.48 0.01 0
0.56 0.01 0
0.64 0.01 0
0.72 0.01 0
0.8 0.01 0
0.88 0.01 0
0.96 0.01 0
1.04 0.01 0
1.12 0.01 0
1.2 0.01 0
1.28 0.01 0
1.36 0.01 0
1.44 0.01 0
1.52 0.01 0
1.6 0.01 0
1.68 0.01 0
1.76 0.01 0
1.84 0.01 0
1.92 0.01 0
2 0.01 0
2.08 0.01 0
2.16 0.01 0
2.24 0.01 0
2.32 0.01 0
2.4 0.01 0
2.48 0.01 0
2.56 0.01 0
2.64 0.01 0
2.72 0.01 0
2.8 0.01 0
2.88 0.01 0
2.96 0.01 0
3.04 0.01 0
3.12 0.01 0
3.2 0.01 0
3.28 0.01 0
3.36 0.01 0
3.44 0.01 0
3.52 0.01 0
3.6 0.01 0
3.68 0.01 0
3.76 0.01 0
3.84 0.01 0
3.92 0.01 0
4 0.01 0
4.08 0.01 0
4.16 0.01 0
4.24 0.01 0
4.32 0.01 0
4.4 0.01 0
4.48 0.01 0
4.56 0.01 0
4.64 0.01 0
4.72 0.01 0
4.8 0.01 0
4.88 0.01 0
4.96 0.01 0
5.04 0.01 0
5.12 0.01 0
[...]
POINT_DATA 80000

SCALARS u float 1
LOOKUP_TABLE default
0
-0.131662
-0.0682686
-0.0522962
-0.0444217
-0.0395812
-0.0362677
-0.0338449
-0.0319904
-0.0305215
-0.0293252
-0.028328
-0.0274817
-0.0267555
-0.0261279
-0.0255803
-0.0250961
-0.0246646
-0.0242839
-0.0239588
-0.023695
-0.0234923
-0.0233427
-0.0232317
-0.0231445
-0.0230697
-0.0230017
-0.0229399
-0.0228862
-0.0228427
-0.0228106
-0.0227895
-0.0227777
-0.022773
-0.0227732
-0.0227762
-0.0227807
-0.0227857
-0.0227908
-0.0227957
-0.0228003
-0.0228048
-0.0228091
-0.0228133
-0.0228175
-0.0228217
-0.0228259
-0.0228301
-0.0228343
-0.0228386
-0.0228429
-0.0228472
-0.0228515
-0.0228558
-0.0228602
-0.0228646
-0.022869
-0.0228734
-0.0228778
-0.0228823
-0.0228868
-0.0228913
-0.0228958
-0.0229003
-0.0229049
-0.0229094
-0.022914
-0.0229186
-0.0229232
-0.0229279
-0.0229325
-0.0229372
-0.0229419
-0.0229466
-0.0229514
-0.0229561
-0.0229609
-0.0229657
-0.0229705
-0.0229754
-0.0229802
-0.0229851
-0.02299
-0.0229949
-0.0229999
-0.0230048
-0.0230098
-0.0230148
-0.0230198
-0.0230249
-0.0230299
-0.023035
-0.0230401
-0.0230452
-0.0230504
-0.0230555
-0.0230607
-0.0230659
-0.0230711
-0.0230763
-0.0230815
-0.0230867
-0.023092
-0.0230972
-0.0231025
-0.0231078
-0.023113
-0.0231183
-0.0231236
-0.0231289
-0.0231341
-0.0231394
-0.0231447
-0.0231499
-0.0231552
-0.0231604
-0.0231656
-0.0231708
-0.023176
-0.0231812
-0.0231863
-0.0231914
-0.0231965
-0.0232015
-0.0232065
-0.0232114
-0.0232163
-0.0232212
-0.023226
-0.0232307
-0.0232353
-0.0232399
-0.0232445
-0.0232489
-0.0232533
-0.0232576
-0.0232618
-0.0232659
-0.0232699
-0.0232737
-0.0232775
-0.0232812
-0.0232848
-0.0232882
-0.0232915
-0.0232947
-0.0232977
-0.0233006
-0.0233033
-0.0233059
-0.0233084
-0.0233107
-0.0233128
-0.0233147
-0.0233165
-0.0233181
-0.0233196
-0.0233208
-0.0233219
-0.0233228
-0.0233234
-0.0233239
-0.0233242
-0.0233243
-0.0233242
-0.0233239
-0.0233234
-0.0233227
-0.0233218
-0.0233207
-0.0233193
-0.0233178
-0.0233161
-0.0233141
-0.023312
-0.0233096
-0.0233071
-0.0233043
-0.0233014
-0.0232983
-0.023295
-0.0232914
-0.0232877
-0.0232839
-0.0232798
-0.0232756
-0.0232712
-0.0232667
-0.023262
-0.0232571
-0.0232521
-0.023247
-0.0232418
-0.0232364
-0.0232309
-0.0232253
-0.0232196
-0.0232138
-0.0232079
-0.0232019
-0.0231958
-0.0231897
-0.0231835
-0.0231773
-0.0231711
-0.0231648
-0.0231585
-0.0231521
-0.0231458
-0.0231395
-0.0231331
-0.0231268
-0.0231205
-0.0231143
-0.023108
-0.0231019
-0.0230957
-0.0230897
-0.0230837
-0.0230778
-0.023072
-0.0230662
-0.0230606
-0.023055
-0.0230496
-0.0230442
-0.023039
-0.0230339
-0.0230289
-0.0230241
-0.0230194
-0.0230148
-0.0230104
-0.0230061
-0.023002
-0.022998
-0.0229942
-0.0229905
-0.022987
-0.0229836
-0.0229804
-0.0229774
-0.0229745
-0.0229718
-0.0229693
-0.0229669
-0.0229647
-0.0229626
-0.0229607
-0.022959
-0.0229574
-0.022956
-0.0229547
-0.0229536
-0.0229527
-0.0229519
-0.0229512
-0.0229507
-0.0229503
-0.0229501
-0.0229501
-0.0229501
-0.0229503
-0.0229507
-0.0229511
-0.0229517
-0.0229524
-0.0229533
-0.0229542
-0.0229553
-0.0229564
-0.0229577
-0.0229591
-0.0229606
-0.0229622
-0.0229639
-0.0229657
-0.0229675
-0.0229695
-0.0229715
-0.0229736
-0.0229758
-0.0229781
-0.0229804
-0.0229829
-0.0229853
-0.0229879
-0.0229905
-0.0229931
-0.0229959
-0.0229986
-0.0230015
-0.0230043
-0.0230073
-0.0230102
-0.0230132
-0.0230163
-0.0230194
-0.0230225
-0.0230257
-0.0230289
-0.0230321
-0.0230354
-0.0230387
-0.023042
-0.0230453
-0.0230487
-0.0230521
-0.0230555
-0.0230589
-0.0230624
-0.0230659
-0.0230694
-0.0230729
-0.0230764
-0.0230799
-0.0230835
-0.0230871
-0.0230907
-0.0230943
-0.0230979
-0.0231015
-0.0231051
-0.0231088
-0.0231124
-0.0231161
-0.0231198
-0.0231234
-0.0231271
-0.0231308
-0.0231345
-0.0231382
-0.023142
-0.0231457
-0.0231494
-0.0231531
-0.0231569
-0.0231606
-0.0231644
-0.0231681
-0.0231719
-0.0231757
-0.0231794
-0.0231832
-0.023187
-0.0231908
-0.0231946
-0.0231984
-0.0232022
-0.023206
-0.0232098
-0.0232136
-0.0232174
-0.0232212
-0.023225
-0.0232288
-0.0232327
-0.0232365
-0.0232403
-0.0232442
-0.023248
-0.0232518
-0.0232557
-0.0232595
-0.0232634
-0.0232673
-0.0232711
-0.023275
-0.0232788
-0.0232827
-0.0232866
-0.0232905
-0.0232943
-0.0232982
-0.0233021
-0.023306
-0.0233099
-0.0233138
-0.0233176
-0.0233217
-0.0233253
-0.0233296
-0.023333
-0.0233375
-0.0233408
-0.0233454
-0.0233487
-0.0233533
-0.0233566
-0.0233611
-0.0233647
-0.0233686
-0.0233732
-0.023376
-0.0233818
-0.0233836
-0.0233907
-0.023384
-0.023384
-0.023384
1
0.131662
0.0682686
0.0522962
0.0444217
0.0395812
0.0362677
0.0338449
0.0319904
0.0305215
0.0293252
0.028328
0.0274817
0.0267555
0.0261279
0.0255803
0.0250961
0.0246646
0.0242839
0.0239588
0.023695
0.0234923
0.0233427
0.0232317
0.0231445
0.0230697
0.0230017
0.0229399
0.0228862
0.0228427
0.0228106
0.0227895
0.0227777
0.022773
0.0227732
0.0227762
0.0227807
0.0227857
0.0227908
0.0227957
0.0228003
0.0228048
0.0228091
0.0228133
0.0228175
0.0228217
0.0228259
0.0228301
0.0228343
0.0228386
0.0228429
0.0228472
0.0228515
0.0228558
0.0228602
0.0228646
0.022869
0.0228734
0.0228778
0.0228823
0.0228868
0.0228913
0.0228958
0.0229003
0.0229049
0.0229094
0.022914
0.0229186
0.0229232
0.0229279
0.0229325
0.0229372
0.0229419
0.0229466
0.0229514
0.0229561
0.0229609
0.0229657
0.0229705
0.0229754
0.0229802
0.0229851
0.02299
0.0229949
0.0229999
0.0230048
0.0230098
0.0230148
0.0230198
0.0230249
0.0230299
0.023035
0.0230401
0.0230452
0.0230504
0.0230555
0.0230607
0.0230659
0.0230711
0.0230763
0.0230815
0.0230867
0.023092
0.0230972
0.0231025
0.0231078
0.023113
0.0231183
0.0231236
0.0231289
0.0231341
0.0231394
0.0231447
0.0231499
0.0231552
0.0231604
0.0231656
0.0231708
0.023176
0.0231812
0.0231863
0.0231914
0.0231965
0.0232015
0.0232065
0.0232114
0.0232163
0.0232212
0.023226
0.0232307
0.0232353
0.0232399
0.0232445
0.0232489
0.0232533
0.0232576
0.0232618
0.0232659
0.0232699
0.0232737
0.0232775
0.0232812
0.0232848
0.0232882
0.0232915
0.0232947
0.0232977
0.0233006
0.0233033
0.0233059
0.0233084
0.0233107
0.0233128
0.0233147
0.0233165
0.0233181
0.0233196
0.0233208
0.0233219
0.0233228
0.0233234
0.0233239
0.0233242
0.0233243
0.0233242
0.0233239
0.0233234
0.0233227
0.0233218
0.0233207
0.0233193
0.0233178
0.0233161
0.0233141
0.023312
0.0233096
0.0233071
0.0233043
0.0233014
0.0232983
0.023295
0.0232914
0.0232877
0.0232839
0.0232798
0.0232756
0.0232712
0.0232667
0.023262
0.0232571
0.0232521
0.023247
0.0232418
0.0232364
0.0232309
0.0232253
0.0232196
0.0232138
0.0232079
0.0232019
0.0231958
0.0231897
0.0231835
0.0231773
0.0231711
0.0231648
0.0231585
0.0231521
0.0231458
0.0231395
0.0231331
0.0231268
0.0231205
0.0231143
0.023108
0.0231019
0.0230957
0.0230897
0.0230837
0.0230778
0.023072
0.0230662
0.0230606
0.023055
0.0230496
0.0230442
0.023039
0.0230339
0.0230289
0.0230241
0.0230194
0.0230148
0.0230104
0.0230061
0.023002
0.022998
0.0229942
0.0229905
0.022987
0.0229836
0.0229804
0.0229774
0.0229745
0.0229718
0.0229693
0.0229669
0.0229647
0.0229626
0.0229607
0.022959
0.0229574
0.022956
0.0229547
0.0229536
0.0229527
0.0229519
0.0229512
0.0229507
0.0229503
0.0229501
0.0229501
0.0229501
0.0229503
0.0229507
0.0229511
0.0229517
0.0229524
0.0229533
0.0229542
0.0229553
0.0229564
0.0229577
0.0229591
0.0229606
0.0229622
0.0229639
0.0229657
0.0229675
0.0229695
0.0229715
0.0229736
0.0229758
0.0229781
0.0229804
0.0229829
0.0229853
0.0229879
0.0229905
0.0229931
0.0229959
0.0229986
0.0230015
0.0230043
0.0230073
0.0230102
0.0230132
0.0230163
0.0230194
0.0230225
0.0230257
0.0230289
0.0230321
0.0230354
0.0230387
0.023042
0.0230453
0.0230487
0.0230521
0.0230555
0.0230589
0.0230624
0.0230659
0.0230694
0.0230729
0.0230764
0.0230799
0.0230835
0.0230871
0.0230907
0.0230943
0.0230979
0.0231015
0.0231051
0.0231088
0.0231124
0.0231161
0.0231198
0.0231234
0.0231271
0.0231308
0.0231345
0.0231382
0.023142
0.0231457
0.0231494
0.0231531
0.0231569
0.0231606
0.0231644
0.0231681
0.0231719
0.0231757
0.0231794
0.0231832
0.023187
0.0231908
0.0231946
0.0231984
0.0232022
0.023206
0.0232098
0.0232136
0.0232174
0.0232212
0.023225
0.0232288
0.0232327
0.0232365
0.0232403
0.0232442
0.023248
0.0232518
0.0232557
0.0232595
0.0232634
0.0232673
0.0232711
0.023275
0.0232788
0.0232827
0.0232866
0.0232905
0.0232943
0.0232982
0.0233021
0.023306
0.0233099
0.0233138
0.0233176
0.0233217
0.0233253
0.0233296
0.023333
0.0233375
0.0233408
0.0233454
0.0233487
0.0233533
0.0233566
0.0233611
0.0233647
0.0233686
0.0233732
0.023376
0.0233818
0.0233836
0.0233907
0.023384
0.023384
0.023384
1
0.344882
0.200666
0.154967
0.131899
0.11761
0.10779
0.100592
0.0950757
0.0907028
0.0871408
0.0841721
0.0816552
0.0794981
0.0776348
0.0760093
0.074574
0.0733007
0.0721853
0.0712412
0.0704803
0.0698971
0.0694636
0.0691377
0.0688778
0.0686542
0.0684532
0.0682738
0.068121
0.0680001
0.0679129
0.067857
0.0678272
0.0678166
0.0678187
0.0678283
0.0678415
0.0678559
0.0678702
0.067884
0.0678971
0.0679097
0.0679219
0.0679339
0.0679458
0.0679576
0.0679695
0.0679814
0.0679934
0.0680055
0.0680176
0.0680297
0.0680419
0.0680541
0.0680664
0.0680788
0.0680912
0.0681036
0.0681161
0.0681286
0.0681411
0.0681537
0.0681663
0.068179
0.0681917
0.0682044
0.0682172
0.06823
0.0682428
0.0682557
0.0682686
0.0682816
0.0682946
0.0683076
0.0683207
0.0683338
0.0683469
0.0683601
0.0683733
0.0683865
0.0683998
0.0684131
0.0684264
0.0684398
0.0684531
0.0684666
0.06848
0.0684935
0.068507
0.0685205
0.068534
0.0685476
0.0685611
0.0685747
0.0685883
0.0686019
0.0686155
0.0686291
0.0686427
0.0686563
0.0686699
0.0686835
0.068697
0.0687105
0.0687241
0.0687375
0.068751
0.0687644
0.0687777
0.0687911
0.0688043
0.0688175
0.0688306
0.0688436
0.0688566
0.0688695
0.0688822
0.0688949
0.0689074
0.0689199
0.0689321
0.0689443
0.0689563
0.0689682
0.0689798
0.0689913
0.0690027
0.0690138
0.0690247
0.0690354
0.0690459
0.0690562
0.0690662
0.0690759
0.0690854
0.0690946
0.0691035
0.0691121
0.0691204
0.0691284
0.0691361
0.0691434
0.0691504
0.069157
0.0691633
0.0691692
0.0691747
0.0691798
0.0691844
0.0691887
0.0691926
0.069196
0.069199
0.0692015
0.0692036
0.0692052
0.0692064
0.0692071
0.0692074
0.0692071
0.0692064
0.0692052
0.0692035
0.0692014
0.0691987
0.0691956
0.069192
0.0691879
0.0691833
0.0691782
0.0691727
0.0691667
0.0691602
0.0691533
0.0691459
0.0691381
0.0691298
0.0691211
0.069112
0.0691024
0.0690925
0.0690822
0.0690715
0.0690605
0.0690491
0.0690373
0.0690253
0.0690129
0.0690003
0.0689874
0.0689742
0.0689608
0.0689471
0.0689333
0.0689193
0.0689051
0.0688907
0.0688763
0.0688617
0.068847
0.0688323
0.0688175
0.0688027
0.0687878
0.068773
0.0687582
0.0687434
0.0687287
0.0687141
0.0686996
0.0686852
0.0686709
0.0686568
0.0686429
0.0686291
0.0686156
0.0686023
0.0685892
0.0685763
0.0685637
0.0685514
0.0685394
0.0685277
0.0685163
0.0685052
0.0684945
0.0684841
0.068474
0.0684643
0.068455
0.0684461
0.0684375
0.0684294
0.0684216
0.0684142
0.0684073
0.0684007
0.0683945
0.0683888
0.0683834
0.0683785
0.068374
0.0683699
0.0683662
0.0683629
0.06836
0.0683575
0.0683555
0.0683538
0.0683525
0.0683516
0.0683511
0.0683509
0.0683512
0.0683518
0.0683527
0.068354
0.0683557
0.0683577
0.0683601
0.0683628
0.0683658
0.0683691
0.0683727
0.0683766
0.0683808
0.0683853
0.0683901
0.0683951
0.0684004
0.0684059
0.0684117
0.0684178
0.068424
0.0684305
0.0684372
0.0684441
0.0684512
0.0684585
0.068466
0.0684737
0.0684815
0.0684895
0.0684977
0.068506
0.0685144
0.068523
0.0685318
0.0685406
0.0685496
0.0685587
0.068568
0.0685773
0.0685867
0.0685962
0.0686059
0.0686156
0.0686254
0.0686353
0.0686452
0.0686552
0.0686654
0.0686755
0.0686858
0.068696
0.0687064
0.0687168
0.0687273
0.0687378
0.0687483
0.0687589
0.0687696
0.0687802
0.068791
0.0688017
0.0688125
0.0688233
0.0688342
0.0688451
0.068856
0.0688669
0.0688779
0.0688889
0.0688999
0.068911
0.068922
0.0689331
0.0689442
0.0689553
0.0689665
0.0689776
0.0689888
0.069
0.0690112
0.0690224
0.0690337
0.0690449
0.0690562
0.0690675
0.0690788
0.0690901
0.0691014
0.0691127
0.0691241
0.0691354
0.0691468
0.0691582
0.0691696
0.069181
0.0691924
0.0692038
0.0692153
0.0692267
0.0692382
0.0692496
0.0692611
0.0692726
0.0692841
0.0692956
0.0693071
0.0693186
0.0693302
0.0693417
0.0693533
0.0693649
0.0693764
0.069388
0.0693996
0.0694112
0.0694228
0.0694345
0.0694461
0.0694578
0.0694694
0.0694811
0.0694928
0.0695044
0.0695163
0.0695277
0.0695399
0.0695509
0.0695636
0.0695741
0.0695874
0.0695974
0.0696111
0.069621
0.0696347
0.0696447
0.0696582
0.069669
0.069681
0.0696945
0.0697033
0.0697203
0.0697261
0.0697465
0.0697307
0.0697307
0.0697307
1
0.518762
0.327398
0.255347
0.217855
0.194421
0.178245
0.166361
0.157238
0.150001
0.144104
0.13919
0.135026
0.131459
0.12838
0.125694
0.123325
0.12123
0.119404
0.117868
0.116635
0.11569
0.114984
0.114447
0.114015
0.113643
0.113311
0.113018
0.112773
0.112582
0.112447
0.112362
0.112318
0.112304
0.112309
0.112325
0.112346
0.112369
0.112392
0.112413
0.112434
0.112454
0.112473
0.112492
0.112511
0.112529
0.112548
0.112567
0.112586
0.112604
0.112623
0.112643
0.112662
0.112681
0.1127
0.11272
0.112739
0.112758
0.112778
0.112797
0.112817
0.112837
0.112856
0.112876
0.112896
0.112915
0.112935
0.112955
0.112975
0.112995
0.113015
0.113035
0.113055
0.113075
0.113095
0.113115
0.113135
0.113156
0.113176
0.113196
0.113216
0.113237
0.113257
0.113277
0.113298
0.113318
0.113338
0.113358
0.113379
0.113399
0.113419
0.11344
0.11346
0.11348
0.113501
0.113521
0.113541
0.113561
0.113581
0.113601
0.113621
0.113641
0.113661
0.113681
0.1137
0.11372
0.113739
0.113759
0.113778
0.113797
0.113816
0.113835
0.113853
0.113872
0.11389
0.113908
0.113926
0.113944
0.113961
0.113978
0.113995
0.114012
0.114028
0.114045
0.11406
0.114076
0.114091
0.114106
0.11412
0.114135
0.114148
0.114162
0.114175
0.114187
0.114199
0.114211
0.114222
0.114233
0.114243
0.114253
0.114262
0.11427
0.114279
0.114286
0.114293
0.1143
0.114305
0.114311
0.114315
0.114319
0.114323
0.114325
0.114328
0.114329
0.11433
0.11433
0.11433
0.114329
0.114327
0.114324
0.114321
0.114317
0.114313
0.114308
0.114302
0.114296
0.114288
0.114281
0.114272
0.114263
0.114254
0.114243
0.114233
0.114221
0.114209
0.114197
0.114183
0.11417
0.114156
0.114141
0.114126
0.11411
0.114094
0.114077
0.114061
0.114043
0.114026
0.114008
0.113989
0.113971
0.113952
0.113933
0.113914
0.113894
0.113875
0.113855
0.113835
0.113815
0.113795
0.113775
0.113755
0.113735
0.113715
0.113695
0.113676
0.113656
0.113637
0.113617
0.113598
0.11358
0.113561
0.113543
0.113525
0.113507
0.11349
0.113473
0.113457
0.113441
0.113425
0.11341
0.113395
0.113381
0.113367
0.113354
0.113341
0.113329
0.113317
0.113306
0.113295
0.113285
0.113276
0.113267
0.113259
0.113251
0.113244
0.113237
0.113232
0.113226
0.113221
0.113217
0.113214
0.113211
0.113209
0.113207
0.113206
0.113205
0.113205
0.113206
0.113207
0.113208
0.11321
0.113213
0.113216
0.11322
0.113225
0.113229
0.113235
0.11324
0.113247
0.113253
0.113261
0.113268
0.113276
0.113285
0.113294
0.113303
0.113312
0.113322
0.113333
0.113344
0.113355
0.113366
0.113378
0.11339
0.113402
0.113415
0.113428
0.113441
0.113454
0.113468
0.113482
0.113496
0.11351
0.113525
0.11354
0.113555
0.11357
0.113585
0.113601
0.113616
0.113632
0.113648
0.113664
0.113681
0.113697
0.113713
0.11373
0.113747
0.113764
0.113781
0.113798
0.113815
0.113832
0.113849
0.113867
0.113884
0.113902
0.113919
0.113937
0.113955
0.113973
0.113991
0.114009
0.114027
0.114045
0.114063
0.114081
0.114099
0.114117
0.114135
0.114154
0.114172
0.11419
0.114209
0.114227
0.114246
0.114264
0.114283
0.114301
0.11432
0.114339
0.114357
0.114376
0.114394
0.114413
0.114432
0.114451
0.114469
0.114488
0.114507
0.114526
0.114545
0.114564
0.114582
0.114601
0.11462
0.114639
0.114658
0.114677
0.114696
0.114715
0.114734
0.114753
0.114772
0.114792
0.114811
0.11483
0.114849
0.114868
0.114887
0.114906
0.114926
0.114945
0.114964
0.114983
0.115003
0.115022
0.115041
0.115061
0.11508
0.115099
0.115119
0.115138
0.115158
0.115177
0.115196
0.115216
0.115236
0.115255
0.115275
0.115293
0.115314
0.115332
0.115354
0.115371
0.115393
0.11541
0.115433
0.11545
0.115472
0.11549
0.11551
0.115532
0.115547
0.115575
0.115586
0.115618
0.115597
0.115597
0.115597
1
0.660883
0.446889
0.352876
0.302036
0.269871
0.247543
0.231087
0.218432
0.208382
0.200187
0.193357
0.187572
0.18262
0.178345
0.174617
0.171332
0.168435
0.165921
0.163816
0.162132
0.16084
0.159868
0.159123
0.158517
0.157995
0.157533
0.157131
0.156799
0.156544
0.156365
0.156255
0.156199
0.156182
0.156191
0.156213
0.156242
0.156272
0.156302
0.156331
0.156358
0.156384
0.156409
0.156434
0.156458
0.156483
0.156508
0.156532
0.156557
0.156582
0.156607
0.156632
0.156657
0.156682
0.156707
0.156733
0.156758
0.156783
0.156809
0.156834
0.15686
0.156885
0.156911
0.156937
0.156962
0.156988
0.157014
0.15704
0.157065
0.157091
0.157117
0.157143
0.157169
0.157194
0.15722
0.157246
0.157272
0.157298
0.157324
0.15735
0.157376
0.157401
0.157427
0.157453
0.157479
0.157505
0.15753
0.157556
0.157582
0.157607
0.157633
0.157658
0.157684
0.157709
0.157734
0.15776
0.157785
0.15781
0.157835
0.157859
0.157884
0.157909
0.157933
0.157957
0.157981
0.158005
0.158029
0.158052
0.158076
0.158099
0.158122
0.158144
0.158167
0.158189
0.15821
0.158232
0.158253
0.158274
0.158295
0.158315
0.158335
0.158354
0.158373
0.158392
0.15841
0.158428
0.158445
0.158462
0.158479
0.158495
0.15851
0.158525
0.158539
0.158553
0.158566
0.158579
0.158591
0.158602
0.158613
0.158623
0.158633
0.158641
0.158649
0.158657
0.158664
0.15867
0.158675
0.158679
0.158683
0.158686
0.158689
0.15869
0.158691
0.158691
0.15869
0.158689
0.158687
0.158684
0.15868
0.158675
0.15867
0.158664
0.158657
0.158649
0.158641
0.158632
0.158622
0.158611
0.1586
0.158588
0.158575
0.158562
0.158548
0.158533
0.158518
0.158502
0.158485
0.158468
0.158451
0.158433
0.158414
0.158395
0.158376
0.158356
0.158336
0.158315
0.158294
0.158273
0.158252
0.15823
0.158208
0.158186
0.158164
0.158141
0.158119
0.158097
0.158074
0.158052
0.158029
0.158007
0.157985
0.157963
0.157941
0.157919
0.157897
0.157876
0.157855
0.157835
0.157814
0.157794
0.157775
0.157756
0.157737
0.157719
0.157701
0.157684
0.157668
0.157652
0.157636
0.157621
0.157607
0.157593
0.15758
0.157568
0.157556
0.157545
0.157535
0.157526
0.157517
0.157509
0.157501
0.157494
0.157488
0.157483
0.157479
0.157475
0.157472
0.157469
0.157468
0.157467
0.157467
0.157467
0.157469
0.157471
0.157474
0.157477
0.157481
0.157486
0.157491
0.157497
0.157504
0.157512
0.15752
0.157528
0.157538
0.157548
0.157558
0.157569
0.157581
0.157593
0.157605
0.157618
0.157632
0.157646
0.157661
0.157676
0.157692
0.157708
0.157724
0.157741
0.157758
0.157776
0.157793
0.157812
0.15783
0.157849
0.157869
0.157888
0.157908
0.157929
0.157949
0.15797
0.157991
0.158012
0.158034
0.158055
0.158077
0.158099
0.158122
0.158144
0.158167
0.15819
0.158213
0.158236
0.158259
0.158283
0.158307
0.15833
0.158354
0.158378
0.158402
0.158427
0.158451
0.158475
0.1585
0.158525
0.158549
0.158574
0.158599
0.158624
0.158649
0.158674
0.158699
0.158725
0.15875
0.158775
0.158801
0.158826
0.158852
0.158877
0.158903
0.158928
0.158954
0.15898
0.159006
0.159031
0.159057
0.159083
0.159109
0.159135
0.159161
0.159187
0.159213
0.159239
0.159265
0.159291
0.159318
0.159344
0.15937
0.159396
0.159423
0.159449
0.159475
0.159502
0.159528
0.159555
0.159581
0.159608
0.159634
0.159661
0.159687
0.159714
0.15974
0.159767
0.159794
0.15982
0.159847
0.159874
0.159901
0.159927
0.159954
0.159981
0.160008
0.160035
0.160062
0.160089
0.160115
0.160142
0.160169
0.160196
0.160224
0.160251
0.160278
0.160305
0.160332
0.160359
0.160386
0.160414
0.16044
0.160469
0.160495
0.160524
0.160549
0.160579
0.160603
0.160634
0.160658
0.160689
0.160713
0.160744
0.160769
0.160798
0.160828
0.16085
0.160888
0.160904
0.160948
0.160925
0.160925
0.160925
1
0.776798
0.557819
0.446875
0.384107
0.343766
0.315558
0.294684
0.278593
0.265794
0.25535
0.246643
0.239268
0.232957
0.227509
0.222758
0.218576
0.214896
0.211715
0.209061
0.206941
0.205313
0.204081
0.203127
0.202346
0.201673
0.201082
0.200572
0.200156
0.19984
0.199622
0.199489
0.199423
0.199404
0.199416
0.199443
0.199478
0.199515
0.199552
0.199586
0.199619
0.19965
0.19968
0.19971
0.19974
0.19977
0.199799
0.199829
0.199858
0.199888
0.199918
0.199948
0.199978
0.200008
0.200039
0.200069
0.200099
0.20013
0.20016
0.20019
0.200221
0.200251
0.200282
0.200312
0.200343
0.200373
0.200404