# vtk DataFile Version 2.0
FlowField
ASCII
DATASET STRUCTURED_GRID
DIMENSIONS 400 1 200
POINTS 80000 float
0 0 0
0.08 0 0
0.16 0 0
0.24 0 0
0.32 0 0
0.4 0 0
0.48 0 0
0.56 0 0
0.64 0 0
0.72 0 0
0.8 0 0
0.88 0 0
0.96 0 0
1.04 0 0
1.12 0 0
1.2 0 0
1.28 0 0
1.36 0 0
1.44 0 0
1.52 0 0
1.6 0 0
1.68 0 0
1.76 0 0
1.84 0 0
1.92 0 0
2 0 0
2.08 0 0
2.16 0 0
2.24 0 0
2.32 0 0
2.4 0 0
2.48 0 0
2.56 0 0
2.64 0 0
2.72 0 0
2.8 0 0
2.88 0 0
2.96 0 0
3.04 0 0
3.12 0 0
3.2 0 0
3.28 0 0
3.36 0 0
3.44 0 0
3.52 0 0
3.6 0 0
3.68 0 0
3.76 0 0
3.84 0 0
3.92 0 0
4 0 0
4.08 0 0
4.16 0 0
4.24 0 0
4.32 0 0
4.4 0 0
4.48 0 0
4.56 0 0
4.64 0 0
4.72 0 0
4.8 0 0
4.88 0 0
4.96 0 0
5.04 0 0
5.12 0 0
5.2 0 0
5.28 0 0
5.36 0 0
5.44 0 0
5.52 0 0
5.6 0 0
5.68 0 0
5.76 0 0
5.84 0 0
5.92 0 0
6 0 0
6.08 0 0
6.16 0 0
6.24 0 0
6.32 0 0
6.4 0 0
6.48 0 0
6.56 0 0
6.64 0 0
6.72 0 0
6.8 0 0
6.88 0 0
6.96 0 0
7.04 0 0
7.12 0 0
7.2 0 0
7.28 0 0
7.36 0 0
7.44 0 0
7.52 0 0
7.6 0 0
7.68 0 0
7.76 0 0
7.84 0 0
7.92 0 0
8 0 0
8.08 0 0
8.16 0 0
8.24 0 0
8.32 0 0
8.4 0 0
8.48 0 0
8.56 0 0
8.64 0 0
8.72 0 0
8.8 0 0
8.88 0 0
8.96 0 0
9.04 0 0
9.12 0 0
9.2 0 0
9.28 0 0
9.36 0 0
9.44 0 0
9.52 0 0
9.6 0 0
9.68 0 0
9.76 0 0
9.84 0 0
9.92 0 0
10 0 0
10.08 0 0
10.16 0 0
10.24 0 0
10.32 0 0
10.4 0 0
10.48 0 0
10.56 0 0
10.64 0 0
10.72 0 0
10.8 0 0
10.88 0 0
10.96 0 0
11.04 0 0
11.12 0 0
11.2 0 0
11.28 0 0
11.36 0 0
11.44 0 0
11.52 0 0
11.6 0 0
11.68 0 0
11.76 0 0
11.84 0 0
11.92 0 0
12 0 0
12.08 0 0
12.16 0 0
12.24 0 0
12.32 0 0
12.4 0 0
12.48 0 0
12.56 0 0
12.64 0 0
12.72 0 0
12.8 0 0
12.88 0 0
12.96 0 0
13.04 0 0
13.12 0 0
13.2 0 0
13.28 0 0
13.36 0 0
13.44 0 0
13.52 0 0
13.6 0 0
13.68 0 0
13.76 0 0
13.84 0 0
13.92 0 0
14 0 0
14.08 0 0
14.16 0 0
14.24 0 0
14.32 0 0
14.4 0 0
14.48 0 0
14.56 0 0
14.64 0 0
14.72 0 0
14.8 0 0
14.88 0 0
14.96 0 0
15.04 0 0
15.12 0 0
15.2 0 0
15.28 0 0
15.36 0 0
15.44 0 0
15.52 0 0
15.6 0 0
15.68 0 0
15.76 0 0
15.84 0 0
15.92 0 0
16 0 0
16.08 0 0
16.16 0 0
16.24 0 0
16.32 0 0
16.4 0 0
16.48 0 0
16.56 0 0
16.64 0 0
16.72 0 0
16.8 0 0
16.88 0 0
16.96 0 0
17.04 0 0
17.12 0 0
17.2 0 0
17.28 0 0
17.36 0 0
17.44 0 0
17.52 0 0
17.6 0 0
17.68 0 0
17.76 0 0
17.84 0 0
17.92 0 0
18 0 0
18.08 0 0
18.16 0 0
18.24 0 0
18.32 0 0
18.4 0 0
18.48 0 0
18.56 0 0
18.64 0 0
18.72 0 0
18.8 0 0
18.88 0 0
18.96 0 0
19.04 0 0
19.12 0 0
19.2 0 0
19.28 0 0
19.36 0 0
19.44 0 0
19.52 0 0
19.6 0 0
19.68 0 0
19.76 0 0
19.84 0 0
19.92 0 0
20 0 0
20.08 0 0
20.16 0 0
20.24 0 0
20.32 0 0
20.4 0 0
20.48 0 0
20.56 0 0
20.64 0 0
20.72 0 0
20.8 0 0
20.88 0 0
20.96 0 0
21.04 0 0
21.12 0 0
21.2 0 0
21.28 0 0
21.36 0 0
21.44 0 0
21.52 0 0
21.6 0 0
21.68 0 0
21.76 0 0
21.84 0 0
21.92 0 0
22 0 0
22.08 0 0
22.16 0 0
22.24 0 0
22.32 0 0
22.4 0 0
22.48 0 0
22.56 0 0
22.64 0 0
22.72 0 0
22.8 0 0
22.88 0 0
22.96 0 0
23.04 0 0
23.12 0 0
23.2 0 0
23.28 0 0
23.36 0 0
23.44 0 0
23.52 0 0
23.6 0 0
23.68 0 0
23.76 0 0
23.84 0 0
23.92 0 0
24 0 0
24.08 0 0
24.16 0 0
24.24 0 0
24.32 0 0
24.4 0 0
24.48 0 0
24.56 0 0
24.64 0 0
24.72 0 0
24.8 0 0
24.88 0 0
24.96 0 0
25.04 0 0
25.12 0 0
25.2 0 0
25.28 0 0
25.36 0 0
25.44 0 0
25.52 0 0
25.6 0 0
25.68 0 0
25.76 0 0
25.84 0 0
25.92 0 0
26 0 0
26.08 0 0
26.16 0 0
26.24 0 0
26.32 0 0
26.4 0 0
26.48 0 0
26.56 0 0
26.64 0 0
26.72 0 0
26.8 0 0
26.88 0 0
26.96 0 0
27.04 0 0
27.12 0 0
27.2 0 0
27.28 0 0
27.36 0 0
27.44 0 0
27.52 0 0
27.6 0 0
27.68 0 0
27.76 0 0
27.84 0 0
27.92 0 0
28 0 0
28.08 0 0
28.16 0 0
28.24 0 0
28.32 0 0
28.4 0 0
28.48 0 0
28.56 0 0
28.64 0 0
28.72 0 0
28.8 0 0
28.88 0 0
28.96 0 0
29.04 0 0
29.12 0 0
29.2 0 0
29.28 0 0
29.36 0 0
29.44 0 0
29.52 0 0
29.6 0 0
29.68 0 0
29.76 0 0
29.84 0 0
29.92 0 0
30 0 0
30.08 0 0
30.16 0 0
30.24 0 0
30.32 0 0
30.4 0 0
30.48 0 0
30.56 0 0
30.64 0 0
30.72 0 0
30.8 0 0
30.88 0 0
30.96 0 0
31.04 0 0
31.12 0 0
31.2 0 0
31.28 0 0
31.36 0 0
31.44 0 0
31.52 0 0
31.6 0 0
31.68 0 0
31.76 0 0
31.84 0 0
31.92 0 0
0 0.005 0
0.08 0.005 0
0.16 0.005 0
0.24 0.005 0
0.32 0.005 0
0.4 0.005 0
0.48 0.005 0
0.56 0.005 0
0.64 0.005 0
0.72 0.005 0
0.8 0.005 0
0.88 0.005 0
0.96 0.005 0
1.04 0.005 0
1.12 0.005 0
1.2 0.005 0
1.28 0.005 0
1.36 0.005 0
1.44 0.005 0
1.52 0.005 0
1.6 0.005 0
1.68 0.005 0
1.76 0.005 0
1.84 0.005 0
1.92 0.005 0
2 0.005 0
2.08 0.005 0
2.16 0.005 0
2.24 0.005 0
2.32 0.005 0
2.4 0.005 0
2.48 0.005 0
2.56 0.005 0
2.64 0.005 0
2.72 0.005 0
2.8 0.005 0
2.88 0.005 0
2.96 0.005 0
3.04 0.005 0
3.12 0.005 0
3.2 0.005 0
3.28 0.005 0
3.36 0.005 0
3.44 0.005 0
3.52 0.005 0
3.6 0.005 0
3.68 0.005 0
3.76 0.005 0
3.84 0.005 0
3.92 0.005 0
4 0.005 0
4.08 0.005 0
4.16 0.005 0
4.24 0.005 0
4.32 0.005 0
4.4 0.005 0
4.48 0.005 0
4.56 0.005 0
4.64 0.005 0
4.72 0.005 0
4.8 0.005 0
4.88 0.005 0
4.96 0.005 0
5.04 0.005 0
5.12 0.005 0
5.2 0.005 0
5.28 0.005 0
5.36 0.005 0
5.44 0.005 0
5.52 0.005 0
5.6 0.005 0
5.68 0.005 0
5.76 0.005 0
5.84 0.005 0
5.92 0.005 0
6 0.005 0
6.08 0.005 0
6.16 0.005 0
6.24 0.005 0
6.32 0.005 0
6.4 0.005 0
6.48 0.005 0
6.56 0.005 0
6.64 0.005 0
6.72 0.005 0
6.8 0.005 0
6.88 0.005 0
6.96 0.005 0
7.04 0.005 0
7.12 0.005 0
7.2 0.005 0
7.28 0.005 0
7.36 0.005 0
7.44 0.005 0
7.52 0.005 0
7.6 0.005 0
7.68 0.005 0
7.76 0.005 0
7.84 0.005 0
7.92 0.005 0
8 0.005 0
8.08 0.005 0
8.16 0.005 0
8.24 0.005 0
8.32 0.005 0
8.4 0.005 0
8.48 0.005 0
8.56 0.005 0
8.64 0.005 0
8.72 0.005 0
8.8 0.005 0
8.88 0.005 0
8.96 0.005 0
9.04 0.005 0
9.12 0.005 0
9.2 0.005 0
9.28 0.005 0
9.36 0.005 0
9.44 0.005 0
9.52 0.005 0
9.6 0.005 0
9.68 0.005 0
9.76 0.005 0
9.84 0.005 0
9.92 0.005 0
10 0.005 0
10.08 0.005 0
10.16 0.005 0
10.24 0.005 0
10.32 0.005 0
10.4 0.005 0
10.48 0.005 0
10.56 0.005 0
10.64 0.005 0
10.72 0.005 0
10.8 0.005 0
10.88 0.005 0
10.96 0.005 0
11.04 0.005 0
11.12 0.005 0
11.2 0.005 0
11.28 0.005 0
11.36 0.005 0
11.44 0.005 0
11.52 0.005 0
11.6 0.005 0
11.68 0.005 0
11.76 0.005 0
11.84 0.005 0
11.92 0.005 0
12 0.005 0
12.08 0.005 0
12.16 0.005 0
12.24 0.005 0
12.32 0.005 0
12.4 0.005 0
12.48 0.005 0
12.56 0.005 0
12.64 0.005 0
12.72 0.005 0
12.8 0.005 0
12.88 0.005 0
12.96 0.005 0
13.04 0.005 0
13.12 0.005 0
13.2 0.005 0
13.28 0.005 0
13.36 0.005 0
13.44 0.005 0
13.52 0.005 0
13.6 0.005 0
13.68 0.005 0
13.76 0.005 0
13.84 0.005 0
13.92 0.005 0
14 0.005 0
14.08 0.005 0
14.16 0.005 0
14.24 0.005 0
14.32 0.005 0
14.4 0.005 0
14.48 0.005 0
14.56 0.005 0
14.64 0.005 0
14.72 0.005 0
14.8 0.005 0
14.88 0.005 0
14.96 0.005 0
15.04 0.005 0
15.12 0.005 0
15.2 0.005 0
15.28 0.005 0
15.36 0.005 0
15.44 0.005 0
15.52 0.005 0
15.6 0.005 0
15.68 0.005 0
15.76 0.005 0
15.84 0.005 0
15.92 0.005 0
16 0.005 0
16.08 0.005 0
16.16 0.005 0
16.24 0.005 0
16.32 0.005 0
16.4 0.005 0
16.48 0.005 0
16.56 0.005 0
16.64 0.005 0
16.72 0.005 0
16.8 0.005 0
16.88 0.005 0
16.96 0.005 0
17.04 0.005 0
17.12 0.005 0
17.2 0.005 0
17.28 0.005 0
17.36 0.005 0
17.44 0.005 0
17.52 0.005 0
17.6 0.005 0
17.68 0.005 0
17.76 0.005 0
17.84 0.005 0
17.92 0.005 0
18 0.005 0
18.08 0.005 0
18.16 0.005 0
18.24 0.005 0
18.32 0.005 0
18.4 0.005 0
18.48 0.005 0
18.56 0.005 0
18.64 0.005 0
18.72 0.005 0
18.8 0.005 0
18.88 0.005 0
18.96 0.005 0
19.04 0.005 0
19.12 0.005 0
19.2 0.005 0
19.28 0.005 0
19.36 0.005 0
19.44 0.005 0
19.52 0.005 0
19.6 0.005 0
19.68 0.005 0
19.76 0.005 0
19.84 0.005 0
19.92 0.005 0
20 0.005 0
20.08 0.005 0
20.16 0.005 0
20.24 0.005 0
20.32 0.005 0
20.4 0.005 0
20.48 0.005 0
20.56 0.005 0
20.64 0.005 0
20.72 0.005 0
20.8 0.005 0
20.88 0.005 0
20.96 0.005 0
21.04 0.005 0
21.12 0.005 0
21.2 0.005 0
21.28 0.005 0
21.36 0.005 0
21.44 0.005 0
21.52 0.005 0
21.6 0.005 0
21.68 0.005 0
21.76 0.005 0
21.84 0.005 0
21.92 0.005 0
22 0.005 0
22.08 0.005 0
22.16 0.005 0
22.24 0.005 0
22.32 0.005 0
22.4 0.005 0
22.48 0.005 0
22.56 0.005 0
22.64 0.005 0
22.72 0.005 0
22.8 0.005 0
22.88 0.005 0
22.96 0.005 0
23.04 0.005 0
23.12 0.005 0
23.2 0.005 0
23.28 0.005 0
23.36 0.005 0
23.44 0.005 0
23.52 0.005 0
23.6 0.005 0
23.68 0.005 0
23.76 0.005 0
23.84 0.005 0
23.92 0.005 0
24 0.005 0
24.08 0.005 0
24.16 0.005 0
24.24 0.005 0
24.32 0.005 0
24.4 0.005 0
24.48 0.005 0
24.56 0.005 0
24.64 0.005 0
24.72 0.005 0
24.8 0.005 0
24.88 0.005 0
24.96 0.005 0
25.04 0.005 0
25.12 0.005 0
25.2 0.005 0
25.28 0.005 0
25.36 0.005 0
25.44 0.005 0
25.52 0.005 0
25.6 0.005 0
25.68 0.005 0
25.76 0.005 0
25.84 0.005 0
25.92 0.005 0
26 0.005 0
26.08 0.005 0
26.16 0.005 0
26.24 0.005 0
26.32 0.005 0
26.4 0.005 0
26.48 0.005 0
26.56 0.005 0
26.64 0.005 0
26.72 0.005 0
26.8 0.005 0
26.88 0.005 0
26.96 0.005 0
27.04 0.005 0
27.12 0.005 0
27.2 0.005 0
27.28 0.005 0
27.36 0.005 0
27.44 0.005 0
27.52 0.005 0
27.6 0.005 0
27.68 0.005 0
27.76 0.005 0
27.84 0.005 0
27.92 0.005 0
28 0.005 0
28.08 0.005 0
28.16 0.005 0
28.24 0.005 0
28.32 0.005 0
28.4 0.005 0
28.48 0.005 0
28.56 0.005 0
28.64 0.005 0
28.72 0.005 0
28.8 0.005 0
28.88 0.005 0
28.96 0.005 0
29.04 0.005 0
29.12 0.005 0
29.2 0.005 0
29.28 0.005 0
29.36 0.005 0
29.44 0.005 0
29.52 0.005 0
29.6 0.005 0
29.68 0.005 0
29.76 0.005 0
29.84 0.005 0
29.92 0.005 0
30 0.005 0
30.08 0.005 0
30.16 0.005 0
30.24 0.005 0
30.32 0.005 0
30.4 0.005 0
30.48 0.005 0
30.56 0.005 0
30.64 0.005 0
30.72 0.005 0
30.8 0.005 0
30.88 0.005 0
30.96 0.005 0
31.04 0.005 0
31.12 0.005 0
31.2 0.005 0
31.28 0.005 0
31.36 0.005 0
31.44 0.005 0
31.52 0.005 0
31.6 0.005 0
31.68 0.005 0
31.76 0.005 0
31.84 0.005 0
31.92 0.005 0
0 0.01 0
0.08 0.01 0
0.16 0.01 0
0.24 0.01 0
0.32 0.01 0
0.4 0.01 0
0.48 0.01 0
0.56 0.01 0
0.64 0.01 0
0.72 0.01 0
0.8 0.01 0
0.88 0.01 0
0.96 0.01 0
1.04 0.01 0
1.12 0.01 0
1.2 0.01 0
1.28 0.01 0
1.36 0.01 0
1.44 0.01 0
1.52 0.01 0
1.6 0.01 0
1.68 0.01 0
1.76 0.01 0
1.84 0.01 0
1.92 0.01 0
2 0.01 0
2.08 0.01 0
2.16 0.01 0
2.24 0.01 0
2.32 0.01 0
2.4 0.01 0
2.48 0.01 0
2.56 0.01 0
2.64 0.01 0
2.72 0.01 0
2.8 0.01 0
2.88 0.01 0
2.96 0.01 0
3.04 0.01 0
3.12 0.01 0
3.2 0.01 0
3.28 0.01 0
3.36 0.01 0
3.44 0.01 0
3.52 0.01 0
3.6 0.01 0
3.68 0.01 0
3.76 0.01 0
3.84 0.01 0
3.92 0.01 0
4 0.01 0
4.08 0.01 0
4.16 0.01 0
4.24 0.01 0
4.32 0.01 0
4.4 0.01 0
4.48 0.01 0
4.56 0.01 0
4.64 0.01 0
4.72 0.01 0
4.8 0.01 0
4.88 0.01 0
4.96 0.01 0
5.04 0.01 0
5.12 0.01 0
[...]
POINT_DATA 80000

SCALARS v float 1
LOOKUP_TABLE default
0
0
0
0
0
0
0
0
0
0
0
0
0
0
0
0
0
0
0
0
0
0
0
0
0
0
0
0
0
0
0
0
0
0
0
0
0
0
0
0
0
0
0
0
0
0
0
0
0
0
0
0
0
0
0
0
0
0
0
0
0
0
0
0
0
0
0
0
0
0
0
0
0
0
0
0
0
0
0
0
0
0
0
0
0
0
0
0
0
0
0
0
0
0
0
0
0
0
0
0
0
0
0
0
0
0
0
0
0
0
0
0
0
0
0
0
0
0
0
0
0
0
0
0
0
0
0
0
0
0
0
0
0
0
0
0
0
0
0
0
0
0
0
0
0
0
0
0
0
0
0
0
0
0
0
0
0
0
0
0
0
0
0
0
0
0
0
0
0
0
0
0
0
0
0
0
0
0
0
0
0
0
0
0
0
0
0
0
0
0
0
0
0
0
0
0
0
0
0
0
0
0
0
0
0
0
0
0
0
0
0
0
0
0
0
0
0
0
0
0
0
0
0
0
0
0
0
0
0
0
0
0
0
0
0
0
0
0
0
0
0
0
0
0
0
0
0
0
0
0
0
0
0
0
0
0
0
0
0
0
0
0
0
0
0
0
0
0
0
0
0
0
0
0
0
0
0
0
0
0
0
0
0
0
0
0
0
0
0
0
0
0
0
0
0
0
0
0
0
0
0
0
0
0
0
0
0
0
0
0
0
0
0
0
0
0
0
0
0
0
0
0
0
0
0
0
0
0
0
0
0
0
0
0
0
0
0
0
0
0
0
0
0
0
0
0
0
0
0
0
0
0
0
0
0
0
0
0
0
0
0
0
0
0
0
0
0
0
0
0
0
0
0
0
0
0
0
0
0
0
0
0
0
0
0
0
0
0
0
0
0
0
0
0
0
0
0
0
0
0
-0.05426
0.05426
0.00394803
0.000980224
0.0004745
0.000287417
0.000186396
0.000113968
5.88983e-05
2.17539e-05
6.64494e-07
-9.46416e-06
-1.35862e-05
-1.48643e-05
-1.49106e-05
-1.44819e-05
-1.39369e-05
-1.34408e-05
-1.30544e-05
-1.27823e-05
-1.26052e-05
-1.24979e-05
-1.24382e-05
-1.24092e-05
-1.23996e-05
-1.24016e-05
-1.24107e-05
-1.24239e-05
-1.24397e-05
-1.24568e-05
-1.24749e-05
-1.24933e-05
-1.25121e-05
-1.25311e-05
-1.25501e-05
-1.25691e-05
-1.25882e-05
-1.26073e-05
-1.26263e-05
-1.26452e-05
-1.26641e-05
-1.26828e-05
-1.27015e-05
-1.27199e-05
-1.27382e-05
-1.27561e-05
-1.27738e-05
-1.27911e-05
-1.2808e-05
-1.28243e-05
-1.284e-05
-1.28549e-05
-1.28689e-05
-1.28818e-05
-1.28935e-05
-1.29036e-05
-1.2912e-05
-1.29184e-05
-1.29224e-05
-1.29236e-05
-1.29216e-05
-1.29159e-05
-1.29059e-05
-1.28909e-05
-1.28703e-05
-1.28431e-05
-1.28085e-05
-1.27653e-05
-1.27124e-05
-1.26485e-05
-1.25721e-05
-1.24815e-05
-1.2375e-05
-1.22504e-05
-1.21056e-05
-1.19381e-05
-1.17452e-05
-1.1524e-05
-1.12712e-05
-1.09832e-05
-1.06564e-05
-1.02865e-05
-9.86911e-06
-9.39935e-06
-8.87216e-06
-8.28192e-06
-7.62287e-06
-6.88869e-06
-6.07286e-06
-5.16836e-06
-4.16799e-06
-3.06403e-06
-1.84866e-06
-5.13562e-07
9.49628e-07
2.54968e-06
4.29534e-06
6.19568e-06
8.25962e-06
1.04963e-05
1.29145e-05
1.55232e-05
1.83307e-05
2.13455e-05
2.45752e-05
2.8027e-05
3.17076e-05
3.56228e-05
3.97775e-05
4.41758e-05
4.88205e-05
5.37132e-05
5.88542e-05
6.42424e-05
6.98751e-05
7.5748e-05
8.1855e-05
8.81882e-05
9.4738e-05
0.000101493
0.000108438
0.00011556
0.00012284
0.000130258
0.000137794
0.000145424
0.000153123
0.000160865
0.000168622
0.000176365
0.000184062
0.000191684
0.000199196
0.000206568
0.000213765
0.000220755
0.000227505
0.000233983
0.000240157
0.000245997
0.000251475
0.000256561
0.000261231
0.000265462
0.000269231
0.00027252
0.000275313
0.000277597
0.00027936
0.000280596
0.0002813
0.000281471
0.00028111
0.000280224
0.00027882
0.000276909
0.000274505
0.000271625
0.000268287
0.000264514
0.000260328
0.000255756
0.000250824
0.000245561
0.000239996
0.00023416
0.000228084
0.000221799
0.000215338
0.00020873
0.000202008
0.0001952
0.000188338
0.000181448
0.000174558
0.000167694
0.00016088
0.000154139
0.000147491
0.000140955
0.000134549
0.000128288
0.000122186
0.000116255
0.000110505
0.000104943
9.9577e-05
9.44114e-05
8.94497e-05
8.46941e-05
8.0145e-05
7.58021e-05
7.16635e-05
6.77267e-05
6.3988e-05
6.04432e-05
5.7087e-05
5.39139e-05
5.09178e-05
4.8092e-05
4.54298e-05
4.29241e-05
4.05678e-05
3.83535e-05
3.62739e-05
3.4322e-05
3.24904e-05
3.07722e-05
2.91605e-05
2.76489e-05
2.62307e-05
2.48999e-05
2.36506e-05
2.24772e-05
2.13744e-05
2.03371e-05
1.93606e-05
1.84404e-05
1.75724e-05
1.67526e-05
1.59773e-05
1.52433e-05
1.45473e-05
1.38865e-05
1.3258e-05
1.26595e-05
1.20887e-05
1.15435e-05
1.10218e-05
1.05221e-05
1.00426e-05
9.58184e-06
9.13848e-06
8.71132e-06
8.29915e-06
7.90102e-06
7.5159e-06
7.14301e-06
6.78148e-06
6.43066e-06
6.08982e-06
5.75844e-06
5.43587e-06
5.1217e-06
4.81537e-06
4.51653e-06
4.22471e-06
3.93962e-06
3.66084e-06
3.38814e-06
3.12114e-06
2.85965e-06
2.60334e-06
2.35206e-06
2.10548e-06
1.86349e-06
1.62582e-06
1.39234e-06
1.16282e-06
9.37151e-07
7.15104e-07
4.96612e-07
2.81443e-07
6.9549e-08
-1.39289e-07
-3.45109e-07
-5.48117e-07
-7.48341e-07
-9.45978e-07
-1.14105e-06
-1.33373e-06
-1.52405e-06
-1.71218e-06
-1.89812e-06
-2.08205e-06
-2.26396e-06
-2.44402e-06
-2.62221e-06
-2.79871e-06
-2.97349e-06
-3.14671e-06
-3.31834e-06
-3.48854e-06
-3.65728e-06
-3.82471e-06
-3.99079e-06
-4.15566e-06
-4.3193e-06
-4.48183e-06
-4.64321e-06
-4.80358e-06
-4.9629e-06
-5.12129e-06
-5.27871e-06
-5.43528e-06
-5.59096e-06
-5.74586e-06
-5.89994e-06
-6.05332e-06
-6.20594e-06
-6.35792e-06
-6.5092e-06
-6.6599e-06
-6.80997e-06
-6.95951e-06
-7.10846e-06
-7.25695e-06
-7.40491e-06
-7.55244e-06
-7.69949e-06
-7.84618e-06
-7.99242e-06
-8.13834e-06
-8.28388e-06
-8.42913e-06
-8.57403e-06
-8.7187e-06
-8.86306e-06
-9.00722e-06
-9.15112e-06
-9.29487e-06
-9.43839e-06
-9.5818e-06
-9.72502e-06
-9.86817e-06
-1.00112e-05
-1.01541e-05
-1.0297e-05
-1.04398e-05
-1.05826e-05
-1.07254e-05
-1.08682e-05
-1.1011e-05
-1.11539e-05
-1.12968e-05
-1.14398e-05
-1.15829e-05
-1.17261e-05
-1.18695e-05
-1.2013e-05
-1.21567e-05
-1.23005e-05
-1.24446e-05
-1.25888e-05
-1.27334e-05
-1.28781e-05
-1.30232e-05
-1.31685e-05
-1.33141e-05
-1.346e-05
-1.36063e-05
-1.37529e-05
-1.38999e-05
-1.40473e-05
-1.41951e-05
-1.43433e-05
-1.44919e-05
-1.4641e-05
-1.47906e-05
-1.49407e-05
-1.50913e-05
-1.52424e-05
-1.53941e-05
-1.55463e-05
-1.56991e-05
-1.58525e-05
-1.60065e-05
-1.61611e-05
-1.63165e-05
-1.64724e-05
-1.66291e-05
-1.67865e-05
-1.69447e-05
-1.71035e-05
-1.72632e-05
-1.74236e-05
-1.75849e-05
-1.7747e-05
-1.79099e-05
-1.80737e-05
-1.82384e-05
-1.84039e-05
-1.85704e-05
-1.87379e-05
-1.89064e-05
-1.90759e-05
-1.92467e-05
-1.94187e-05
-1.95923e-05
-1.97684e-05
-1.99436e-05
-2.01428e-05
-2.02572e-05
-2.07527e-05
-2.00096e-05
-2.28696e-05
-1.81139e-05
-2.3275e-05
-2.12194e-05
-2.12194e-05
-0.0952012
0.0952012
0.0129491
0.0038125
0.00189444
0.00116409
0.000763237
0.000475322
0.000258675
0.000114043
3.22634e-05
-7.17941e-06
-2.34649e-05
-2.87004e-05
-2.90865e-05
-2.75722e-05
-2.5568e-05
-2.37229e-05
-2.22746e-05
-2.12444e-05
-2.05618e-05
-2.01344e-05
-1.98809e-05
-1.97398e-05
-1.96693e-05
-1.96417e-05
-1.964e-05
-1.96536e-05
-1.96763e-05
-1.97041e-05
-1.97351e-05
-1.97678e-05
-1.98016e-05
-1.98358e-05
-1.98705e-05
-1.99052e-05
-1.99401e-05
-1.99748e-05
-2.00096e-05
-2.00442e-05
-2.00788e-05
-2.01131e-05
-2.01474e-05
-2.01813e-05
-2.02151e-05
-2.02485e-05
-2.02817e-05
-2.03144e-05
-2.03467e-05
-2.03784e-05
-2.04095e-05
-2.04396e-05
-2.0469e-05
-2.04972e-05
-2.05241e-05
-2.05494e-05
-2.0573e-05
-2.05944e-05
-2.06134e-05
-2.06293e-05
-2.0642e-05
-2.06507e-05
-2.0655e-05
-2.06539e-05
-2.06469e-05
-2.06329e-05
-2.06111e-05
-2.058e-05
-2.05388e-05
-2.04857e-05
-2.04193e-05
-2.03376e-05
-2.0239e-05
-2.01209e-05
-1.99812e-05
-1.98169e-05
-1.96255e-05
-1.94033e-05
-1.91472e-05
-1.8853e-05
-1.85169e-05
-1.81339e-05
-1.76996e-05
-1.72083e-05
-1.66546e-05
-1.60323e-05
-1.5335e-05
-1.45555e-05
-1.3687e-05
-1.27213e-05
-1.16505e-05
-1.0466e-05
-9.15908e-06
-7.7202e-06
-6.14015e-06
-4.40876e-06
-2.51631e-06
-4.52238e-07
1.79348e-06
4.23159e-06
6.87213e-06
9.72569e-06
1.2802e-05
1.61112e-05
1.96623e-05
2.34644e-05
2.75254e-05
3.1853e-05
3.64535e-05
4.13327e-05
4.64947e-05
5.19428e-05
5.76783e-05
6.37018e-05
7.00113e-05
7.66039e-05
8.3474e-05
9.06148e-05
9.80168e-05
0.000105669
0.000113557
0.000121666
0.000129978
0.000138472
0.000147127
0.000155918
0.000164818
0.000173799
0.000182831
0.000191882
0.000200918
0.000209906
0.00021881
0.000227592
0.000236217
0.000244647
0.000252844
0.000260772
0.000268394
0.000275676
0.000282582
0.00028908
0.000295138
0.000300729
0.000305825
0.000310402
0.000314439
0.000317917
0.000320822
0.00032314
0.000324864
0.000325988
0.00032651
0.000326433
0.00032576
0.000324501
0.000322667
0.000320273
0.000317336
0.000313879
0.000309922
0.000305494
0.000300619
0.000295329
0.000289654
0.000283627
0.00027728
0.000270649
0.000263766
0.000256667
0.000249385
0.000241956
0.000234411
0.000226784
0.000219106
0.000211407
0.000203715
0.000196058
0.00018846
0.000180946
0.000173536
0.000166252
0.000159109
0.000152125
0.000145313
0.000138685
0.000132251
0.000126019
0.000119995
0.000114186
0.000108593
0.000103219
9.80638e-05
9.31274e-05
8.84072e-05
8.39009e-05
7.96042e-05
7.55128e-05
7.16212e-05
6.79239e-05
6.44142e-05
6.10858e-05
5.79313e-05
5.49439e-05
5.21158e-05
4.944e-05
4.69089e-05
4.45153e-05
4.22516e-05
4.0111e-05
3.80864e-05
3.61711e-05
3.43585e-05
3.26425e-05
3.10168e-05
2.94759e-05
2.80142e-05
2.66266e-05
2.53081e-05
2.40542e-05
2.28604e-05
2.17228e-05
2.06373e-05
1.96007e-05
1.86093e-05
1.76604e-05
1.67506e-05
1.58778e-05
1.5039e-05
1.42323e-05
1.34553e-05
1.27063e-05
1.19832e-05
1.12847e-05
1.06088e-05
9.95447e-06
9.3201e-06
8.70479e-06
8.10708e-06
7.52627e-06
6.96108e-06
6.41096e-06
5.87475e-06
5.35204e-06
4.84178e-06
4.34367e-06
3.85675e-06
3.38081e-06
2.91498e-06
2.4591e-06
2.01238e-06
1.57473e-06
1.1454e-06
7.24347e-07
3.10886e-07
-9.49951e-08
-4.93943e-07
-8.8593e-07
-1.27157e-06
-1.65081e-06
-2.02424e-06
-2.39176e-06
-2.75395e-06
-3.1107e-06
-3.46255e-06
-3.80938e-06
-4.1517e-06
-4.48939e-06
-4.82294e-06
-5.1522e-06
-5.47767e-06
-5.79916e-06
-6.11717e-06
-6.43151e-06
-6.74265e-06
-7.05039e-06
-7.3552e-06
-7.65687e-06
-7.95584e-06
-8.25191e-06
-8.54551e-06
-8.83643e-06
-9.12509e-06
-9.41126e-06
-9.69537e-06
-9.97718e-06
-1.02571e-05
-1.05349e-05
-1.0811e-05
-1.10851e-05
-1.13577e-05
-1.16284e-05
-1.18978e-05
-1.21654e-05
-1.24318e-05
-1.26966e-05
-1.29603e-05
-1.32225e-05
-1.34837e-05
-1.37436e-05
-1.40025e-05
-1.42603e-05
-1.45172e-05
-1.4773e-05
-1.50281e-05
-1.52822e-05
-1.55356e-05
-1.57882e-05
-1.60402e-05
-1.62913e-05
-1.6542e-05
-1.6792e-05
-1.70416e-05
-1.72905e-05
-1.75391e-05
-1.77871e-05
-1.80349e-05
-1.82822e-05
-1.85293e-05
-1.8776e-05
-1.90226e-05
-1.92689e-05
-1.95151e-05
-1.97611e-05
-2.00071e-05
-2.02529e-05
-2.04988e-05
-2.07445e-05
-2.09905e-05
-2.12363e-05
-2.14824e-05
-2.17285e-05
-2.19749e-05
-2.22213e-05
-2.24681e-05
-2.2715e-05
-2.29623e-05
-2.32098e-05
-2.34578e-05
-2.3706e-05
-2.39548e-05
-2.42039e-05
-2.44536e-05
-2.47037e-05
-2.49544e-05
-2.52056e-05
-2.54575e-05
-2.57098e-05
-2.5963e-05
-2.62167e-05
-2.64713e-05
-2.67264e-05
-2.69825e-05
-2.72393e-05
-2.7497e-05
-2.77555e-05
-2.8015e-05
-2.82753e-05
-2.85368e-05
-2.87991e-05
-2.90625e-05
-2.93269e-05
-2.95926e-05
-2.98592e-05
-3.01272e-05
-3.03963e-05
-3.06667e-05
-3.09383e-05
-3.12114e-05
-3.14857e-05
-3.17615e-05
-3.20387e-05
-3.23174e-05
-3.25976e-05
-3.28794e-05
-3.31627e-05
-3.34477e-05
-3.37342e-05
-3.40226e-05
-3.43126e-05
-3.46045e-05
-3.4898e-05
-3.51936e-05
-3.54909e-05
-3.57905e-05
-3.60922e-05
-3.63966e-05
-3.67041e-05
-3.70155e-05
-3.73346e-05
-3.76495e-05
-3.80455e-05
-3.8151e-05
-3.95825e-05
-3.66582e-05
-4.66244e-05
-2.88839e-05
-4.95016e-05
-3.97997e-05
-3.97997e-05
-0.125275
0.125275
0.0248911
0.00827911
0.00420514
0.00260281
0.00171063
0.0010684
0.000588068
0.000269154
8.89213e-05
1.42159e-06
-3.52912e-05
-4.75595e-05
-4.89565e-05
-4.60161e-05
-4.1892e-05
-3.80402e-05
-3.49985e-05
-3.28257e-05
-3.13787e-05
-3.04655e-05
-2.99166e-05
-2.96033e-05
-2.94383e-05
-2.93634e-05
-2.93434e-05
-2.93554e-05
-2.93869e-05
-2.94293e-05
-2.94786e-05
-2.95313e-05
-2.95865e-05
-2.96427e-05
-2.96998e-05
-2.97569e-05
-2.98145e-05
-2.98717e-05
-2.99293e-05
-2.99863e-05
-3.00435e-05
-3.01001e-05
-3.01568e-05
-3.02129e-05
-3.02691e-05
-3.03246e-05
-3.03801e-05
-3.04349e-05
-3.04895e-05
-3.05432e-05
-3.05965e-05
-3.06488e-05
-3.07005e-05
-3.07507e-05
-3.08e-05
-3.08475e-05
-3.08935e-05
-3.09371e-05
-3.09786e-05
-3.10169e-05
-3.10521e-05
-3.10831e-05
-3.11099e-05
-3.11311e-05
-3.11467e-05
-3.11549e-05
-3.11554e-05
-3.11465e-05
-3.11274e-05
-3.1096e-05
-3.10514e-05
-3.09911e-05
-3.09137e-05
-3.08162e-05
-3.0697e-05
-3.05524e-05
-3.03803e-05
-3.01766e-05
-2.99383e-05
-2.96608e-05
-2.93405e-05
-2.8972e-05
-2.85508e-05
-2.8071e-05
-2.75271e-05
-2.69123e-05
-2.62204e-05
-2.54437e-05
-2.4575e-05
-2.36058e-05
-2.25281e-05
-2.13324e-05
-2.001e-05
-1.85505e-05
-1.69444e-05
-1.51808e-05
-1.32497e-05
-1.11395e-05
-8.83981e-06
-6.33884e-06
-3.62614e-06
-6.89921e-07
2.48003e-06
5.89507e-06
9.56479e-06
1.34997e-05
1.77083e-05
2.21997e-05
2.69808e-05
3.2059e-05
3.7439e-05
4.31256e-05
4.91209e-05
5.54269e-05
6.20424e-05
6.89658e-05
7.61923e-05
8.37164e-05
9.1529e-05
9.96204e-05
0.000107977
0.000116585
0.000125426
0.00013448
0.000143726
0.00015314
0.000162695
0.000172362
0.000182111
0.000191911
0.000201726
0.000211522
0.000221262
0.000230908
0.000240422
0.000249766
0.000258899
0.000267783
0.000276379
0.000284651
0.000292559
0.00030007
0.00030715
0.000313765
0.000319887
0.000325489
0.000330544
0.000335032
0.000338934
0.000342235
0.000344922
0.000346986
0.000348423
0.000349231
0.000349411
0.00034897
0.000347915
0.00034626
0.000344019
0.000341212
0.000337857
0.000333981
0.000329607
0.000324766
0.000319486
0.0003138
0.000307739
0.000301338
0.000294631
0.000287653
0.000280438
0.000273022
0.000265438
0.000257721
0.000249903
0.000242016
0.00023409
0.000226155
0.000218237
0.000210363
0.000202557
0.00019484
0.000187233
0.000179754
0.00017242
0.000165245
0.000158241
0.000151421
0.000144791
0.00013836
0.000132133
0.000126115
0.000120308
0.000114713
0.00010933
0.000104159
9.91965e-05
9.44408e-05
8.98871e-05
8.55317e-05
8.13689e-05
7.73939e-05
7.35998e-05
6.99812e-05
6.65308e-05
6.32426e-05
6.0109e-05
5.71239e-05
5.42798e-05
5.15706e-05
4.89888e-05
4.65285e-05
4.41827e-05
4.19459e-05
3.98113e-05
3.77738e-05
3.58271e-05
3.39667e-05
3.21868e-05
3.04832e-05
2.88508e-05
2.72858e-05
2.57834e-05
2.43406e-05
2.29531e-05
2.16181e-05
2.03317e-05
1.90918e-05
1.78947e-05
1.67387e-05
1.56206e-05
1.45388e-05
1.34906e-05
1.24747e-05
1.14885e-05
1.05311e-05
9.60015e-06
8.69496e-06
7.81341e-06
6.95495e-06
6.11768e-06
5.30119e-06
4.50375e-06
3.7251e-06
2.96363e-06
2.21919e-06
1.4903e-06
7.7691e-07
7.76248e-08
-6.07509e-07
-1.27981e-06
-1.93916e-06
-2.58681e-06
-3.22257e-06
-3.84765e-06
-4.46179e-06
-5.06615e-06
-5.66044e-06
-6.24576e-06
-6.8218e-06
-7.38961e-06
-7.94883e-06
-8.5005e-06
-9.04424e-06
-9.58104e-06
-1.01105e-05
-1.06336e-05
-1.11499e-05
-1.16603e-05
-1.21644e-05
-1.26632e-05
-1.31561e-05
-1.3644e-05
-1.41266e-05
-1.46046e-05
-1.50776e-05
-1.55465e-05
-1.60107e-05
-1.64711e-05
-1.69272e-05
-1.73799e-05
-1.78285e-05
-1.82739e-05
-1.87157e-05
-1.91546e-05
-1.959e-05
-2.00228e-05
-2.04524e-05
-2.08797e-05
-2.1304e-05
-2.17261e-05
-2.21455e-05
-2.2563e-05
-2.2978e-05
-2.33912e-05
-2.38021e-05
-2.42115e-05
-2.46187e-05
-2.50245e-05
-2.54284e-05
-2.58311e-05
-2.62319e-05
-2.66318e-05
-2.70299e-05
-2.74272e-05
-2.7823e-05
-2.8218e-05
-2.86116e-05
-2.90047e-05
-2.93965e-05
-2.97878e-05
-3.0178e-05
-3.05679e-05
-3.09568e-05
-3.13455e-05
-3.17333e-05
-3.2121e-05
-3.2508e-05
-3.2895e-05
-3.32813e-05
-3.36678e-05
-3.40537e-05
-3.44399e-05
-3.48257e-05
-3.52118e-05
-3.55976e-05
-3.59838e-05
-3.63699e-05
-3.67565e-05
-3.7143e-05
-3.75301e-05
-3.79173e-05
-3.83052e-05
-3.86932e-05
-3.9082e-05
-3.94711e-05
-3.98611e-05
-4.02514e-05
-4.06428e-05
-4.10345e-05
-4.14274e-05
-4.18208e-05
-4.22154e-05
-4.26106e-05
-4.30072e-05
-4.34044e-05
-4.38031e-05
-4.42026e-05
-4.46036e-05
-4.50055e-05
-4.5409e-05
-4.58135e-05
-4.62197e-05
-4.6627e-05
-4.70362e-05
-4.74465e-05
-4.78588e-05
-4.82723e-05
-4.8688e-05
-4.9105e-05
-4.95242e-05
-4.99449e-05
-5.03679e-05
-5.07925e-05
-5.12195e-05
-5.16483e-05
-5.20796e-05
-5.25128e-05
-5.29486e-05
-5.33865e-05
-5.38271e-05
-5.42699e-05
-5.47156e-05
-5.51635e-05
-5.56145e-05
-5.60679e-05
-5.65244e-05
-5.69834e-05
-5.74457e-05
-5.79106e-05
-5.83789e-05
-5.88499e-05
-5.93244e-05
-5.9802e-05
-6.02835e-05
-6.07687e-05
-6.12589e-05
-6.17548e-05
-6.2258e-05
-6.27765e-05
-6.32871e-05
-6.39613e-05
-6.40509e-05
-6.68412e-05
-6.07127e-05
-8.12591e-05
-4.3866e-05
-9.04293e-05
-6.66408e-05
-6.66408e-05
-0.146467
0.146467
0.0382424
0.0141066
0.00734025
0.00457748
0.00301497
0.00188643
0.00104548
0.000488743
0.000173528
1.91749e-05
-4.67697e-05
-6.97235e-05
-7.32719e-05
-6.8916e-05
-6.22665e-05
-5.5931e-05
-5.08879e-05
-4.72689e-05
-4.485e-05
-4.33164e-05
-4.23886e-05
-4.18534e-05
-4.15657e-05
-4.14288e-05
-4.1384e-05
-4.13932e-05
-4.14352e-05
-4.14957e-05
-4.15679e-05
-4.1646e-05
-4.17285e-05
-4.18125e-05
-4.18982e-05
-4.1984e-05
-4.20706e-05
-4.21566e-05
-4.22431e-05
-4.23288e-05
-4.24148e-05
-4.24999e-05
-4.25853e-05
-4.26698e-05
-4.27545e-05
-4.28382e-05
-4.29221e-05
-4.3005e-05
-4.30879e-05
-4.31698e-05
-4.32515e-05
-4.33319e-05
-4.34121e-05
-4.34906e-05
-4.35684e-05
-4.36443e-05
-4.3719e-05
-4.37911e-05
-4.38615e-05
-4.39285e-05
-4.39928e-05
-4.40527e-05
-4.41087e-05
-4.4159e-05
-4.4204e-05
-4.42415e-05
-4.42716e-05
-4.42921e-05
-4.43028e-05
-4.43011e-05
-4.42864e-05
-4.42558e-05
-4.42084e-05
-4.41408e-05
-4.40516e-05
-4.39368e-05
-4.37947e-05
-4.36207e-05
-4.34123e-05
-4.31643e-05
-4.28736e-05
-4.25342e-05
-4.21422e-05
-4.16908e-05
-4.11753e-05
-4.05881e-05
-3.99235e-05
-3.91731e-05
-3.83304e-05
-3.73858e-05
-3.6332e-05
-3.51587e-05
-3.38575e-05
-3.24174e-05
-3.08292e-05
-2.90812e-05
-2.71636e-05
-2.50641e-05
-2.27724e-05
-2.0276e-05
-1.75645e-05
-1.46253e-05
-1.14481e-05
-8.0208e-06
-4.33366e-06
-3.7523e-07
3.86307e-06
8.39145e-06
1.32169e-05
1.8348e-05
2.37895e-05
2.95475e-05
3.56245e-05
4.20234e-05
4.87435e-05
5.57844e-05
6.31416e-05
7.0811e-05
7.87837e-05
8.70515e-05
9.5601e-05
0.000104419
0.000113489
0.000122791
0.000132305
0.000142006
0.00015187
0.000161868
0.000171969
0.000182144
0.000192356
0.000202573
0.000212756
0.000222869
0.000232873
0.000242728
0.000252396
0.000261837
0.000271011
0.00027988
0.000288407
0.000296554
0.000304287
0.000311573
0.000318379
0.000324678
0.000330442
0.000335649
0.000340276
0.000344309
0.00034773
0.000350531
0.000352704
0.000354244
0.000355151
0.000355429
0.000355084
0.000354126
0.000352567
0.000350425
0.000347717
0.000344466
0.000340695
0.000336431
0.000331702
0.000326538
0.00032097
0.00031503
0.000308752
0.00030217
0.000295316
0.000288227
0.000280934
0.000273472
0.000265872
0.000258168
0.000250389
0.000242565
0.000234723
0.00022689
0.000219091
0.000211348
0.000203683
0.000196115
0.000188662
0.000181339
0.00017416
0.000167138
0.000160283
0.000153603
0.000147105
0.000140796
0.000134679
0.000128758
0.000123032
0.000117504
0.000112172
0.000107036
0.000102091
9.73357e-05
9.27654e-05
8.83767e-05
8.41637e-05
8.01223e-05
7.62457e-05
7.25295e-05
6.89664e-05
6.55518e-05
6.22782e-05
5.91408e-05
5.61323e-05
5.32479e-05
5.04805e-05
4.78257e-05
4.52765e-05
4.28288e-05
4.04761e-05
3.82145e-05
3.60381e-05
3.39434e-05
3.19248e-05
2.99793e-05
2.81017e-05
2.62894e-05
2.45378e-05
2.28445e-05
2.12052e-05
1.96181e-05
1.80793e-05
1.65872e-05
1.51382e-05
1.37311e-05
1.23626e-05
1.10318e-05
9.7356e-06
8.47336e-06
7.24223e-06
6.04181e-06
4.86942e-06
3.72486e-06
2.60565e-06
1.51173e-06
4.40775e-07
-6.07119e-07
-1.63416e-06
-2.64012e-06
-3.62708e-06
-4.59473e-06
-5.54506e-06
-6.47763e-06
-7.39437e-06
-8.29477e-06
-9.18067e-06
-1.00515e-05
-1.0909e-05
-1.17526e-05
-1.25841e-05
-1.34026e-05
-1.42099e-05
-1.50053e-05
-1.57904e-05
-1.65644e-05
-1.73289e-05
-1.80832e-05
-1.88288e-05
-1.95648e-05
-2.02929e-05
-2.1012e-05
-2.17239e-05
-2.24275e-05
-2.31243e-05
-2.38135e-05
-2.44965e-05
-2.51724e-05
-2.58426e-05
-2.65063e-05
-2.71647e-05
-2.78169e-05
-2.84645e-05
-2.91063e-05
-2.97438e-05
-3.0376e-05
-3.10043e-05
-3.16276e-05
-3.22474e-05
-3.28626e-05
-3.34746e-05
-3.40823e-05
-3.46871e-05
-3.5288e-05
-3.58863e-05
-3.64809e-05
-3.70733e-05
-3.76622e-05
-3.82491e-05
-3.88329e-05
-3.94149e-05
-3.99941e-05
-4.05716e-05
-4.11465e-05
-4.17201e-05
-4.22913e-05
-4.28614e-05
-4.34292e-05
-4.39961e-05
-4.45611e-05
-4.51253e-05
-4.56877e-05
-4.62495e-05
-4.68098e-05
-4.73696e-05
-4.79281e-05
-4.84863e-05
-4.90433e-05
-4.96003e-05
-5.01561e-05
-5.07122e-05
-5.12672e-05
-5.18226e-05
-5.23772e-05
-5.29323e-05
-5.34867e-05
-5.40418e-05
-5.45964e-05
-5.51518e-05
-5.57068e-05
-5.62627e-05
-5.68185e-05
-5.73753e-05
-5.79321e-05
-5.84901e-05
-5.90482e-05
-5.96077e-05
-6.01673e-05
-6.07285e-05
-6.12901e-05
-6.18533e-05
-6.24169e-05
-6.29824e-05
-6.35485e-05