# vtk DataFile Version 2.0
FlowField
ASCII
DATASET STRUCTURED_GRID
DIMENSIONS 400 1 200
POINTS 80000 float
0 0 0
0.08 0 0
0.16 0 0
0.24 0 0
0.32 0 0
0.4 0 0
0.48 0 0
0.56 0 0
0.64 0 0
0.72 0 0
0.8 0 0
0.88 0 0
0.96 0 0
1.04 0 0
1.12 0 0
1.2 0 0
1.28 0 0
1.36 0 0
1.44 0 0
1.52 0 0
1.6 0 0
1.68 0 0
1.76 0 0
1.84 0 0
1.92 0 0
2 0 0
2.08 0 0
2.16 0 0
2.24 0 0
2.32 0 0
2.4 0 0
2.48 0 0
2.56 0 0
2.64 0 0
2.72 0 0
2.8 0 0
2.88 0 0
2.96 0 0
3.04 0 0
3.12 0 0
3.2 0 0
3.28 0 0
3.36 0 0
3.44 0 0
3.52 0 0
3.6 0 0
3.68 0 0
3.76 0 0
3.84 0 0
3.92 0 0
4 0 0
4.08 0 0
4.16 0 0
4.24 0 0
4.32 0 0
4.4 0 0
4.48 0 0
4.56 0 0
4.64 0 0
4.72 0 0
4.8 0 0
4.88 0 0
4.96 0 0
5.04 0 0
5.12 0 0
5.2 0 0
5.28 0 0
5.36 0 0
5.44 0 0
5.52 0 0
5.6 0 0
5.68 0 0
5.76 0 0
5.84 0 0
5.92 0 0
6 0 0
6.08 0 0
6.16 0 0
6.24 0 0
6.32 0 0
6.4 0 0
6.48 0 0
6.56 0 0
6.64 0 0
6.72 0 0
6.8 0 0
6.88 0 0
6.96 0 0
7.04 0 0
7.12 0 0
7.2 0 0
7.28 0 0
7.36 0 0
7.44 0 0
7.52 0 0
7.6 0 0
7.68 0 0
7.76 0 0
7.84 0 0
7.92 0 0
8 0 0
8.08 0 0
8.16 0 0
8.24 0 0
8.32 0 0
8.4 0 0
8.48 0 0
8.56 0 0
8.64 0 0
8.72 0 0
8.8 0 0
8.88 0 0
8.96 0 0
9.04 0 0
9.12 0 0
9.2 0 0
9.28 0 0
9.36 0 0
9.44 0 0
9.52 0 0
9.6 0 0
9.68 0 0
9.76 0 0
9.84 0 0
9.92 0 0
10 0 0
10.08 0 0
10.16 0 0
10.24 0 0
10.32 0 0
10.4 0 0
10.48 0 0
10.56 0 0
10.64 0 0
10.72 0 0
10.8 0 0
10.88 0 0
10.96 0 0
11.04 0 0
11.12 0 0
11.2 0 0
11.28 0 0
11.36 0 0
11.44 0 0
11.52 0 0
11.6 0 0
11.68 0 0
11.76 0 0
11.84 0 0
11.92 0 0
12 0 0
12.08 0 0
12.16 0 0
12.24 0 0
12.32 0 0
12.4 0 0
12.48 0 0
12.56 0 0
12.64 0 0
12.72 0 0
12.8 0 0
12.88 0 0
12.96 0 0
13.04 0 0
13.12 0 0
13.2 0 0
13.28 0 0
13.36 0 0
13.44 0 0
13.52 0 0
13.6 0 0
13.68 0 0
13.76 0 0
13.84 0 0
13.92 0 0
14 0 0
14.08 0 0
14.16 0 0
14.24 0 0
14.32 0 0
14.4 0 0
14.48 0 0
14.56 0 0
14.64 0 0
14.72 0 0
14.8 0 0
14.88 0 0
14.96 0 0
15.04 0 0
15.12 0 0
15.2 0 0
15.28 0 0
15.36 0 0
15.44 0 0
15.52 0 0
15.6 0 0
15.68 0 0
15.76 0 0
15.84 0 0
15.92 0 0
16 0 0
16.08 0 0
16.16 0 0
16.24 0 0
16.32 0 0
16.4 0 0
16.48 0 0
16.56 0 0
16.64 0 0
16.72 0 0
16.8 0 0
16.88 0 0
16.96 0 0
17.04 0 0
17.12 0 0
17.2 0 0
17.28 0 0
17.36 0 0
17.44 0 0
17.52 0 0
17.6 0 0
17.68 0 0
17.76 0 0
17.84 0 0
17.92 0 0
18 0 0
18.08 0 0
18.16 0 0
18.24 0 0
18.32 0 0
18.4 0 0
18.48 0 0
18.56 0 0
18.64 0 0
18.72 0 0
18.8 0 0
18.88 0 0
18.96 0 0
19.04 0 0
19.12 0 0
19.2 0 0
19.28 0 0
19.36 0 0
19.44 0 0
19.52 0 0
19.6 0 0
19.68 0 0
19.76 0 0
19.84 0 0
19.92 0 0
20 0 0
20.08 0 0
20.16 0 0
20.24 0 0
20.32 0 0
20.4 0 0
20.48 0 0
20.56 0 0
20.64 0 0
20.72 0 0
20.8 0 0
20.88 0 0
20.96 0 0
21.04 0 0
21.12 0 0
21.2 0 0
21.28 0 0
21.36 0 0
21.44 0 0
21.52 0 0
21.6 0 0
21.68 0 0
21.76 0 0
21.84 0 0
21.92 0 0
22 0 0
22.08 0 0
22.16 0 0
22.24 0 0
22.32 0 0
22.4 0 0
22.48 0 0
22.56 0 0
22.64 0 0
22.72 0 0
22.8 0 0
22.88 0 0
22.96 0 0
23.04 0 0
23.12 0 0
23.2 0 0
23.28 0 0
23.36 0 0
23.44 0 0
23.52 0 0
23.6 0 0
23.68 0 0
23.76 0 0
23.84 0 0
23.92 0 0
24 0 0
24.08 0 0
24.16 0 0
24.24 0 0
24.32 0 0
24.4 0 0
24.48 0 0
24.56 0 0
24.64 0 0
24.72 0 0
24.8 0 0
24.88 0 0
24.96 0 0
25.04 0 0
25.12 0 0
25.2 0 0
25.28 0 0
25.36 0 0
25.44 0 0
25.52 0 0
25.6 0 0
25.68 0 0
25.76 0 0
25.84 0 0
25.92 0 0
26 0 0
26.08 0 0
26.16 0 0
26.24 0 0
26.32 0 0
26.4 0 0
26.48 0 0
26.56 0 0
26.64 0 0
26.72 0 0
26.8 0 0
26.88 0 0
26.96 0 0
27.04 0 0
27.12 0 0
27.2 0 0
27.28 0 0
27.36 0 0
27.44 0 0
27.52 0 0
27.6 0 0
27.68 0 0
27.76 0 0
27.84 0 0
27.92 0 0
28 0 0
28.08 0 0
28.16 0 0
28.24 0 0
28.32 0 0
28.4 0 0
28.48 0 0
28.56 0 0
28.64 0 0
28.72 0 0
28.8 0 0
28.88 0 0
28.96 0 0
29.04 0 0
29.12 0 0
29.2 0 0
29.28 0 0
29.36 0 0
29.44 0 0
29.52 0 0
29.6 0 0
29.68 0 0
29.76 0 0
29.84 0 0
29.92 0 0
30 0 0
30.08 0 0
30.16 0 0
30.24 0 0
30.32 0 0
30.4 0 0
30.48 0 0
30.56 0 0
30.64 0 0
30.72 0 0
30.8 0 0
30.88 0 0
30.96 0 0
31.04 0 0
31.12 0 0
31.2 0 0
31.28 0 0
31.36 0 0
31.44 0 0
31.52 0 0
31.6 0 0
31.68 0 0
31.76 0 0
31.84 0 0
31.92 0 0
0 0.005 0
0.08 0.005 0
0.16 0.005 0
0.24 0.005 0
0.32 0.005 0
0.4 0.005 0
0.48 0.005 0
0.56 0.005 0
0.64 0.005 0
0.72 0.005 0
0.8 0.005 0
0.88 0.005 0
0.96 0.005 0
1.04 0.005 0
1.12 0.005 0
1.2 0.005 0
1.28 0.005 0
1.36 0.005 0
1.44 0.005 0
1.52 0.005 0
1.6 0.005 0
1.68 0.005 0
1.76 0.005 0
1.84 0.005 0
1.92 0.005 0
2 0.005 0
2.08 0.005 0
2.16 0.005 0
2.24 0.005 0
2.32 0.005 0
2.4 0.005 0
2.48 0.005 0
2.56 0.005 0
2.64 0.005 0
2.72 0.005 0
2.8 0.005 0
2.88 0.005 0
2.96 0.005 0
3.04 0.005 0
3.12 0.005 0
3.2 0.005 0
3.28 0.005 0
3.36 0.005 0
3.44 0.005 0
3.52 0.005 0
3.6 0.005 0
3.68 0.005 0
3.76 0.005 0
3.84 0.005 0
3.92 0.005 0
4 0.005 0
4.08 0.005 0
4.16 0.005 0
4.24 0.005 0
4.32 0.005 0
4.4 0.005 0
4.48 0.005 0
4.56 0.005 0
4.64 0.005 0
4.72 0.005 0
4.8 0.005 0
4.88 0.005 0
4.96 0.005 0
5.04 0.005 0
5.12 0.005 0
5.2 0.005 0
5.28 0.005 0
5.36 0.005 0
5.44 0.005 0
5.52 0.005 0
5.6 0.005 0
5.68 0.005 0
5.76 0.005 0
5.84 0.005 0
5.92 0.005 0
6 0.005 0
6.08 0.005 0
6.16 0.005 0
6.24 0.005 0
6.32 0.005 0
6.4 0.005 0
6.48 0.005 0
6.56 0.005 0
6.64 0.005 0
6.72 0.005 0
6.8 0.005 0
6.88 0.005 0
6.96 0.005 0
7.04 0.005 0
7.12 0.005 0
7.2 0.005 0
7.28 0.005 0
7.36 0.005 0
7.44 0.005 0
7.52 0.005 0
7.6 0.005 0
7.68 0.005 0
7.76 0.005 0
7.84 0.005 0
7.92 0.005 0
8 0.005 0
8.08 0.005 0
8.16 0.005 0
8.24 0.005 0
8.32 0.005 0
8.4 0.005 0
8.48 0.005 0
8.56 0.005 0
8.64 0.005 0
8.72 0.005 0
8.8 0.005 0
8.88 0.005 0
8.96 0.005 0
9.04 0.005 0
9.12 0.005 0
9.2 0.005 0
9.28 0.005 0
9.36 0.005 0
9.44 0.005 0
9.52 0.005 0
9.6 0.005 0
9.68 0.005 0
9.76 0.005 0
9.84 0.005 0
9.92 0.005 0
10 0.005 0
10.08 0.005 0
10.16 0.005 0
10.24 0.005 0
10.32 0.005 0
10.4 0.005 0
10.48 0.005 0
10.56 0.005 0
10.64 0.005 0
10.72 0.005 0
10.8 0.005 0
10.88 0.005 0
10.96 0.005 0
11.04 0.005 0
11.12 0.005 0
11.2 0.005 0
11.28 0.005 0
11.36 0.005 0
11.44 0.005 0
11.52 0.005 0
11.6 0.005 0
11.68 0.005 0
11.76 0.005 0
11.84 0.005 0
11.92 0.005 0
12 0.005 0
12.08 0.005 0
12.16 0.005 0
12.24 0.005 0
12.32 0.005 0
12.4 0.005 0
12.48 0.005 0
12.56 0.005 0
12.64 0.005 0
12.72 0.005 0
12.8 0.005 0
12.88 0.005 0
12.96 0.005 0
13.04 0.005 0
13.12 0.005 0
13.2 0.005 0
13.28 0.005 0
13.36 0.005 0
13.44 0.005 0
13.52 0.005 0
13.6 0.005 0
13.68 0.005 0
13.76 0.005 0
13.84 0.005 0
13.92 0.005 0
14 0.005 0
14.08 0.005 0
14.16 0.005 0
14.24 0.005 0
14.32 0.005 0
14.4 0.005 0
14.48 0.005 0
14.56 0.005 0
14.64 0.005 0
14.72 0.005 0
14.8 0.005 0
14.88 0.005 0
14.96 0.005 0
15.04 0.005 0
15.12 0.005 0
15.2 0.005 0
15.28 0.005 0
15.36 0.005 0
15.44 0.005 0
15.52 0.005 0
15.6 0.005 0
15.68 0.005 0
15.76 0.005 0
15.84 0.005 0
15.92 0.005 0
16 0.005 0
16.08 0.005 0
16.16 0.005 0
16.24 0.005 0
16.32 0.005 0
16.4 0.005 0
16.48 0.005 0
16.56 0.005 0
16.64 0.005 0
16.72 0.005 0
16.8 0.005 0
16.88 0.005 0
16.96 0.005 0
17.04 0.005 0
17.12 0.005 0
17.2 0.005 0
17.28 0.005 0
17.36 0.005 0
17.44 0.005 0
17.52 0.005 0
17.6 0.005 0
17.68 0.005 0
17.76 0.005 0
17.84 0.005 0
17.92 0.005 0
18 0.005 0
18.08 0.005 0
18.16 0.005 0
18.24 0.005 0
18.32 0.005 0
18.4 0.005 0
18.48 0.005 0
18.56 0.005 0
18.64 0.005 0
18.72 0.005 0
18.8 0.005 0
18.88 0.005 0
18.96 0.005 0
19.04 0.005 0
19.12 0.005 0
19.2 0.005 0
19.28 0.005 0
19.36 0.005 0
19.44 0.005 0
19.52 0.005 0
19.6 0.005 0
19.68 0.005 0
19.76 0.005 0
19.84 0.005 0
19.92 0.005 0
20 0.005 0
20.08 0.005 0
20.16 0.005 0
20.24 0.005 0
20.32 0.005 0
20.4 0.005 0
20.48 0.005 0
20.56 0.005 0
20.64 0.005 0
20.72 0.005 0
20.8 0.005 0
20.88 0.005 0
20.96 0.005 0
21.04 0.005 0
21.12 0.005 0
21.2 0.005 0
21.28 0.005 0
21.36 0.005 0
21.44 0.005 0
21.52 0.005 0
21.6 0.005 0
21.68 0.005 0
21.76 0.005 0
21.84 0.005 0
21.92 0.005 0
22 0.005 0
22.08 0.005 0
22.16 0.005 0
22.24 0.005 0
22.32 0.005 0
22.4 0.005 0
22.48 0.005 0
22.56 0.005 0
22.64 0.005 0
22.72 0.005 0
22.8 0.005 0
22.88 0.005 0
22.96 0.005 0
23.04 0.005 0
23.12 0.005 0
23.2 0.005 0
23.28 0.005 0
23.36 0.005 0
23.44 0.005 0
23.52 0.005 0
23.6 0.005 0
23.68 0.005 0
23.76 0.005 0
23.84 0.005 0
23.92 0.005 0
24 0.005 0
24.08 0.005 0
24.16 0.005 0
24.24 0.005 0
24.32 0.005 0
24.4 0.005 0
24.48 0.005 0
24.56 0.005 0
24.64 0.005 0
24.72 0.005 0
24.8 0.005 0
24.88 0.005 0
24.96 0.005 0
25.04 0.005 0
25.12 0.005 0
25.2 0.005 0
25.28 0.005 0
25.36 0.005 0
25.44 0.005 0
25.52 0.005 0
25.6 0.005 0
25.68 0.005 0
25.76 0.005 0
25.84 0.005 0
25.92 0.005 0
26 0.005 0
26.08 0.005 0
26.16 0.005 0
26.24 0.005 0
26.32 0.005 0
26.4 0.005 0
26.48 0.005 0
26.56 0.005 0
26.64 0.005 0
26.72 0.005 0
26.8 0.005 0
26.88 0.005 0
26.96 0.005 0
27.04 0.005 0
27.12 0.005 0
27.2 0.005 0
27.28 0.005 0
27.36 0.005 0
27.44 0.005 0
27.52 0.005 0
27.6 0.005 0
27.68 0.005 0
27.76 0.005 0
27.84 0.005 0
27.92 0.005 0
28 0.005 0
28.08 0.005 0
28.16 0.005 0
28.24 0.005 0
28.32 0.005 0
28.4 0.005 0
28.48 0.005 0
28.56 0.005 0
28.64 0.005 0
28.72 0.005 0
28.8 0.005 0
28.88 0.005 0
28.96 0.005 0
29.04 0.005 0
29.12 0.005 0
29.2 0.005 0
29.28 0.005 0
29.36 0.005 0
29.44 0.005 0
29.52 0.005 0
29.6 0.005 0
29.68 0.005 0
29.76 0.005 0
29.84 0.005 0
29.92 0.005 0
30 0.005 0
30.08 0.005 0
30.16 0.005 0
30.24 0.005 0
30.32 0.005 0
30.4 0.005 0
30.48 0.005 0
30.56 0.005 0
30.64 0.005 0
30.72 0.005 0
30.8 0.005 0
30.88 0.005 0
30.96 0.005 0
31.04 0.005 0
31.12 0.005 0
31.2 0.005 0
31.28 0.005 0
31.36 0.005 0
31.44 0.005 0
31.52 0.005 0
31.6 0.005 0
31.68 0.005 0
31.76 0.005 0
31.84 0.005 0
31.92 0.005 0
0 0.01 0
0.08 0.01 0
0.16 0.01 0
0.24 0.01 0
0.32 0.01 0
0.4 0.01 0
0.48 0.01 0
0.56 0.01 0
0.64 0.01 0
0.72 0.01 0
0.8 0.01 0
0.88 0.01 0
0.96 0.01 0
1.04 0.01 0
1.12 0.01 0
1.2 0.01 0
1.28 0.01 0
1.36 0.01 0
1.44 0.01 0
1.52 0.01 0
1.6 0.01 0
1.68 0.01 0
1.76 0.01 0
1.84 0.01 0
1.92 0.01 0
2 0.01 0
2.08 0.01 0
2.16 0.01 0
2.24 0.01 0
2.32 0.01 0
2.4 0.01 0
2.48 0.01 0
2.56 0.01 0
2.64 0.01 0
2.72 0.01 0
2.8 0.01 0
2.88 0.01 0
2.96 0.01 0
3.04 0.01 0
3.12 0.01 0
3.2 0.01 0
3.28 0.01 0
3.36 0.01 0
3.44 0.01 0
3.52 0.01 0
3.6 0.01 0
3.68 0.01 0
3.76 0.01 0
3.84 0.01 0
3.92 0.01 0
4 0.01 0
4.08 0.01 0
4.16 0.01 0
4.24 0.01 0
4.32 0.01 0
4.4 0.01 0
4.48 0.01 0
4.56 0.01 0
4.64 0.01 0
4.72 0.01 0
4.8 0.01 0
4.88 0.01 0
4.96 0.01 0
5.04 0.01 0
5.12 0.01 0
[...]
POINT_DATA 80000

SCALARS p float 1
LOOKUP_TABLE default
1
56.7916
56.4898
56.4487
56.4286
56.4142
56.4022
56.3914
56.3814
56.3719
56.3628
56.3539
56.3453
56.3369
56.3287
56.3206
56.3128
56.3051
56.2976
56.2902
56.283
56.2759
56.269
56.2622
56.2555
56.2489
56.2424
56.236
56.2298
56.2236
56.2176
56.2116
56.2058
56.2001
56.1945
56.189
56.1837
56.1785
56.1734
56.1684
56.1634
56.1586
56.1538
56.1491
56.1444
56.1398
56.1352
56.1307
56.1261
56.1216
56.1171
56.1127
56.1082
56.1039
56.0996
56.0953
56.0911
56.0869
56.0828
56.0786
56.0745
56.0704
56.0662
56.0621
56.058
56.0539
56.0498
56.0457
56.0416
56.0374
56.0333
56.0292
56.0251
56.021
56.0169
56.0128
56.0087
56.0045
56.0004
55.9963
55.9922
55.9881
55.984
55.9799
55.9758
55.9717
55.9675
55.9634
55.9593
55.9552
55.9511
55.947
55.9429
55.9388
55.9347
55.9306
55.9264
55.9223
55.9182
55.9141
55.91
55.9059
55.9018
55.8977
55.8936
55.8895
55.8854
55.8812
55.8771
55.873
55.8689
55.8648
55.8607
55.8566
55.8525
55.8484
55.8443
55.8401
55.836
55.8319
55.8278
55.8237
55.8196
55.8155
55.8114
55.8073
55.8032
55.799
55.7949
55.7908
55.7867
55.7826
55.7785
55.7744
55.7703
55.7661
55.762
55.7579
55.7538
55.7497
55.7456
55.7415
55.7373
55.7332
55.7291
55.725
55.7209
55.7168
55.7127
55.7085
55.7044
55.7003
55.6962
55.6921
55.688
55.6838
55.6797
55.6756
55.6715
55.6674
55.6632
55.6591
55.655
55.6509
55.6468
55.6426
55.6385
55.6344
55.6303
55.6261
55.622
55.6179
55.6138
55.6097
55.6055
55.6014
55.5973
55.5932
55.589
55.5849
55.5808
55.5766
55.5725
55.5684
55.5643
55.5601
55.556
55.5519
55.5477
55.5436
55.5395
55.5354
55.5312
55.5271
55.523
55.5188
55.5147
55.5106
55.5064
55.5023
55.4982
55.494
55.4899
55.4858
55.4816
55.4775
55.4734
55.4692
55.4651
55.461
55.4568
55.4527
55.4485
55.4444
55.4403
55.4361
55.432
55.4279
55.4237
55.4196
55.4154
55.4113
55.4072
55.403
55.3989
55.3947
55.3906
55.3864
55.3823
55.3782
55.374
55.3699
55.3657
55.3616
55.3574
55.3533
55.3492
55.345
55.3409
55.3367
55.3326
55.3284
55.3243
55.3201
55.316
55.3118
55.3077
55.3035
55.2994
55.2953
55.2911
55.287
55.2828
55.2787
55.2745
55.2704
55.2662
55.2621
55.2579
55.2538
55.2496
55.2455
55.2413
55.2371
55.233
55.2288
55.2247
55.2205
55.2164
55.2122
55.2081
55.2039
55.1998
55.1956
55.1915
55.1873
55.1832
55.179
55.1748
55.1707
55.1665
55.1624
55.1582
55.1541
55.1499
55.1457
55.1416
55.1374
55.1333
55.1291
55.1249
55.1208
55.1166
55.1125
55.1083
55.1042
55.1
55.0958
55.0917
55.0875
55.0833
55.0792
55.075
55.0709
55.0667
55.0625
55.0584
55.0542
55.05
55.0459
55.0417
55.0376
55.0334
55.0292
55.0251
55.0209
55.0167
55.0126
55.0084
55.0042
55.0001
54.9959
54.9917
54.9876
54.9834
54.9792
54.9751
54.9709
54.9667
54.9626
54.9584
54.9542
54.95
54.9459
54.9417
54.9375
54.9334
54.9292
54.925
54.9209
54.9167
54.9125
54.9083
54.9042
54.9
54.8958
54.8917
54.8875
54.8833
54.8791
54.875
54.8708
54.8666
54.8624
54.8583
54.8541
54.8499
54.8457
54.8416
54.8374
54.8332
54.829
54.8249
54.8207
54.8165
54.8123
54.8081
54.804
54.7998
54.7956
54.7914
54.7872
54.7831
54.7789
54.7747
54.7705
54.7663
54.7622
54.758
54.7538
54.7496
54.7454
54.7413
54.7371
54.7329
54.7287
54.7245
54.7204
54.7162
54.712
54.7078
54.7036
54.6994
54.6952
54.6911
54.6869
54.6827
54.6785
54.6743
0.5
56.7916
56.7916
56.4898
56.4487
56.4286
56.4142
56.4022
56.3914
56.3814
56.3719
56.3628
56.3539
56.3453
56.3369
56.3287
56.3206
56.3128
56.3051
56.2976
56.2902
56.283
56.2759
56.269
56.2622
56.2555
56.2489
56.2424
56.236
56.2298
56.2236
56.2176
56.2116
56.2058
56.2001
56.1945
56.189
56.1837
56.1785
56.1734
56.1684
56.1634
56.1586
56.1538
56.1491
56.1444
56.1398
56.1352
56.1307
56.1261
56.1216
56.1171
56.1127
56.1082
56.1039
56.0996
56.0953
56.0911
56.0869
56.0828
56.0786
56.0745
56.0704
56.0662
56.0621
56.058
56.0539
56.0498
56.0457
56.0416
56.0374
56.0333
56.0292
56.0251
56.021
56.0169
56.0128
56.0087
56.0045
56.0004
55.9963
55.9922
55.9881
55.984
55.9799
55.9758
55.9717
55.9675
55.9634
55.9593
55.9552
55.9511
55.947
55.9429
55.9388
55.9347
55.9306
55.9264
55.9223
55.9182
55.9141
55.91
55.9059
55.9018
55.8977
55.8936
55.8895
55.8854
55.8812
55.8771
55.873
55.8689
55.8648
55.8607
55.8566
55.8525
55.8484
55.8443
55.8401
55.836
55.8319
55.8278
55.8237
55.8196
55.8155
55.8114
55.8073
55.8032
55.799
55.7949
55.7908
55.7867
55.7826
55.7785
55.7744
55.7703
55.7661
55.762
55.7579
55.7538
55.7497
55.7456
55.7415
55.7373
55.7332
55.7291
55.725
55.7209
55.7168
55.7127
55.7085
55.7044
55.7003
55.6962
55.6921
55.688
55.6838
55.6797
55.6756
55.6715
55.6674
55.6632
55.6591
55.655
55.6509
55.6468
55.6426
55.6385
55.6344
55.6303
55.6261
55.622
55.6179
55.6138
55.6097
55.6055
55.6014
55.5973
55.5932
55.589
55.5849
55.5808
55.5766
55.5725
55.5684
55.5643
55.5601
55.556
55.5519
55.5477
55.5436
55.5395
55.5354
55.5312
55.5271
55.523
55.5188
55.5147
55.5106
55.5064
55.5023
55.4982
55.494
55.4899
55.4858
55.4816
55.4775
55.4734
55.4692
55.4651
55.461
55.4568
55.4527
55.4485
55.4444
55.4403
55.4361
55.432
55.4279
55.4237
55.4196
55.4154
55.4113
55.4072
55.403
55.3989
55.3947
55.3906
55.3864
55.3823
55.3782
55.374
55.3699
55.3657
55.3616
55.3574
55.3533
55.3492
55.345
55.3409
55.3367
55.3326
55.3284
55.3243
55.3201
55.316
55.3118
55.3077
55.3035
55.2994
55.2953
55.2911
55.287
55.2828
55.2787
55.2745
55.2704
55.2662
55.2621
55.2579
55.2538
55.2496
55.2455
55.2413
55.2371
55.233
55.2288
55.2247
55.2205
55.2164
55.2122
55.2081
55.2039
55.1998
55.1956
55.1915
55.1873
55.1832
55.179
55.1748
55.1707
55.1665
55.1624
55.1582
55.1541
55.1499
55.1457
55.1416
55.1374
55.1333
55.1291
55.1249
55.1208
55.1166
55.1125
55.1083
55.1042
55.1
55.0958
55.0917
55.0875
55.0833
55.0792
55.075
55.0709
55.0667
55.0625
55.0584
55.0542
55.05
55.0459
55.0417
55.0376
55.0334
55.0292
55.0251
55.0209
55.0167
55.0126
55.0084
55.0042
55.0001
54.9959
54.9917
54.9876
54.9834
54.9792
54.9751
54.9709
54.9667
54.9626
54.9584
54.9542
54.95
54.9459
54.9417
54.9375
54.9334
54.9292
54.925
54.9209
54.9167
54.9125
54.9083
54.9042
54.9
54.8958
54.8917
54.8875
54.8833
54.8791
54.875
54.8708
54.8666
54.8624
54.8583
54.8541
54.8499
54.8457
54.8416
54.8374
54.8332
54.829
54.8249
54.8207
54.8165
54.8123
54.8081
54.804
54.7998
54.7956
54.7914
54.7872
54.7831
54.7789
54.7747
54.7705
54.7663
54.7622
54.758
54.7538
54.7496
54.7454
54.7413
54.7371
54.7329
54.7287
54.7245
54.7204
54.7162
54.712
54.7078
54.7036
54.6994
54.6952
54.6911
54.6869
54.6827
54.6785
54.6743
54.6743
56.777
56.777
56.4937
56.4499
56.4292
56.4146
56.4024
56.3916
56.3816
56.372
56.3629
56.354
56.3453
56.3369
56.3287
56.3207
56.3128
56.3052
56.2976
56.2903
56.2831
56.276
56.269
56.2622
56.2555
56.2489
56.2424
56.236
56.2298
56.2236
56.2176
56.2116
56.2058
56.2001
56.1945
56.1891
56.1837
56.1785
56.1734
56.1684
56.1634
56.1586
56.1538
56.1491
56.1444
56.1398
56.1352
56.1307
56.1261
56.1216
56.1171
56.1127
56.1082
56.1039
56.0996
56.0953
56.0911
56.0869
56.0828
56.0786
56.0745
56.0704
56.0662
56.0621
56.058
56.0539
56.0498
56.0457
56.0416
56.0374
56.0333
56.0292
56.0251
56.021
56.0169
56.0128
56.0087
56.0045
56.0004
55.9963
55.9922
55.9881
55.984
55.9799
55.9758
55.9717
55.9675
55.9634
55.9593
55.9552
55.9511
55.947
55.9429
55.9388
55.9347
55.9306
55.9264
55.9223
55.9182
55.9141
55.91
55.9059
55.9018
55.8977
55.8936
55.8895
55.8854
55.8812
55.8771
55.873
55.8689
55.8648
55.8607
55.8566
55.8525
55.8484
55.8443
55.8401
55.836
55.8319
55.8278
55.8237
55.8196
55.8155
55.8114
55.8073
55.8032
55.799
55.7949
55.7908
55.7867
55.7826
55.7785
55.7744
55.7703
55.7661
55.762
55.7579
55.7538
55.7497
55.7456
55.7415
55.7373
55.7332
55.7291
55.725
55.7209
55.7168
55.7127
55.7085
55.7044
55.7003
55.6962
55.6921
55.688
55.6838
55.6797
55.6756
55.6715
55.6674
55.6632
55.6591
55.655
55.6509
55.6468
55.6426
55.6385
55.6344
55.6303
55.6261
55.622
55.6179
55.6138
55.6097
55.6055
55.6014
55.5973
55.5932
55.589
55.5849
55.5808
55.5766
55.5725
55.5684
55.5643
55.5601
55.556
55.5519
55.5477
55.5436
55.5395
55.5354
55.5312
55.5271
55.523
55.5188
55.5147
55.5106
55.5064
55.5023
55.4982
55.494
55.4899
55.4858
55.4816
55.4775
55.4734
55.4692
55.4651
55.461
55.4568
55.4527
55.4485
55.4444
55.4403
55.4361
55.432
55.4279
55.4237
55.4196
55.4154
55.4113
55.4072
55.403
55.3989
55.3947
55.3906
55.3864
55.3823
55.3782
55.374
55.3699
55.3657
55.3616
55.3574
55.3533
55.3492
55.345
55.3409
55.3367
55.3326
55.3284
55.3243
55.3201
55.316
55.3118
55.3077
55.3035
55.2994
55.2953
55.2911
55.287
55.2828
55.2787
55.2745
55.2704
55.2662
55.2621
55.2579
55.2538
55.2496
55.2455
55.2413
55.2371
55.233
55.2288
55.2247
55.2205
55.2164
55.2122
55.2081
55.2039
55.1998
55.1956
55.1915
55.1873
55.1831
55.179
55.1748
55.1707
55.1665
55.1624
55.1582
55.1541
55.1499
55.1457
55.1416
55.1374
55.1333
55.1291
55.1249
55.1208
55.1166
55.1125
55.1083
55.1042
55.1
55.0958
55.0917
55.0875
55.0833
55.0792
55.075
55.0709
55.0667
55.0625
55.0584
55.0542
55.05
55.0459
55.0417
55.0376
55.0334
55.0292
55.0251
55.0209
55.0167
55.0126
55.0084
55.0042
55.0001
54.9959
54.9917
54.9876
54.9834
54.9792
54.9751
54.9709
54.9667
54.9626
54.9584
54.9542
54.95
54.9459
54.9417
54.9375
54.9334
54.9292
54.925
54.9209
54.9167
54.9125
54.9083
54.9042
54.9
54.8958
54.8917
54.8875
54.8833
54.8791
54.875
54.8708
54.8666
54.8624
54.8583
54.8541
54.8499
54.8457
54.8416
54.8374
54.8332
54.829
54.8249
54.8207
54.8165
54.8123
54.8081
54.804
54.7998
54.7956
54.7914
54.7872
54.7831
54.7789
54.7747
54.7705
54.7663
54.7622
54.758
54.7538
54.7496
54.7454
54.7413
54.7371
54.7329
54.7287
54.7245
54.7204
54.7162
54.712
54.7078
54.7036
54.6994
54.6952
54.6911
54.6869
54.6827
54.6785
54.6743
54.6743
56.761
56.761
56.4969
56.4511
56.4298
56.4149
56.4027
56.3918
56.3817
56.3721
56.3629
56.3541
56.3454
56.337
56.3288
56.3207
56.3129
56.3052
56.2977
56.2903
56.2831
56.276
56.269
56.2622
56.2555
56.2489
56.2424
56.2361
56.2298
56.2237
56.2176
56.2117
56.2058
56.2001
56.1945
56.1891
56.1837
56.1785
56.1734
56.1684
56.1634
56.1586
56.1538
56.1491
56.1444
56.1398
56.1352
56.1307
56.1261
56.1216
56.1171
56.1127
56.1083
56.1039
56.0996
56.0953
56.0911
56.0869
56.0828
56.0786
56.0745
56.0704
56.0662
56.0621
56.058
56.0539
56.0498
56.0457
56.0416
56.0374
56.0333
56.0292
56.0251
56.021
56.0169
56.0128
56.0087
56.0045
56.0004
55.9963
55.9922
55.9881
55.984
55.9799
55.9758
55.9717
55.9675
55.9634
55.9593
55.9552
55.9511
55.947
55.9429
55.9388
55.9347
55.9306
55.9264
55.9223
55.9182
55.9141
55.91
55.9059
55.9018
55.8977
55.8936
55.8895
55.8854
55.8812
55.8771
55.873
55.8689
55.8648
55.8607
55.8566
55.8525
55.8484
55.8443
55.8401
55.836
55.8319
55.8278
55.8237
55.8196
55.8155
55.8114
55.8073
55.8032
55.799
55.7949
55.7908
55.7867
55.7826
55.7785
55.7744
55.7703
55.7661
55.762
55.7579
55.7538
55.7497
55.7456
55.7415
55.7373
55.7332
55.7291
55.725
55.7209
55.7168
55.7127
55.7085
55.7044
55.7003
55.6962
55.6921
55.688
55.6838
55.6797
55.6756
55.6715
55.6674
55.6632
55.6591
55.655
55.6509
55.6468
55.6426
55.6385
55.6344
55.6303
55.6261
55.622
55.6179
55.6138
55.6097
55.6055
55.6014
55.5973
55.5932
55.589
55.5849
55.5808
55.5766
55.5725
55.5684
55.5643
55.5601
55.556
55.5519
55.5477
55.5436
55.5395
55.5354
55.5312
55.5271
55.523
55.5188
55.5147
55.5106
55.5064
55.5023
55.4982
55.494
55.4899
55.4858
55.4816
55.4775
55.4734
55.4692
55.4651
55.461
55.4568
55.4527
55.4485
55.4444
55.4403
55.4361
55.432
55.4279
55.4237
55.4196
55.4154
55.4113
55.4072
55.403
55.3989
55.3947
55.3906
55.3864
55.3823
55.3782
55.374
55.3699
55.3657
55.3616
55.3574
55.3533
55.3492
55.345
55.3409
55.3367
55.3326
55.3284
55.3243
55.3201
55.316
55.3118
55.3077
55.3035
55.2994
55.2953
55.2911
55.287
55.2828
55.2787
55.2745
55.2704
55.2662
55.2621
55.2579
55.2538
55.2496
55.2455
55.2413
55.2371
55.233
55.2288
55.2247
55.2205
55.2164
55.2122
55.2081
55.2039
55.1998
55.1956
55.1915
55.1873
55.1831
55.179
55.1748
55.1707
55.1665
55.1624
55.1582
55.1541
55.1499
55.1457
55.1416
55.1374
55.1333
55.1291
55.1249
55.1208
55.1166
55.1125
55.1083
55.1042
55.1
55.0958
55.0917
55.0875
55.0833
55.0792
55.075
55.0709
55.0667
55.0625
55.0584
55.0542
55.05
55.0459
55.0417
55.0376
55.0334
55.0292
55.0251
55.0209
55.0167
55.0126
55.0084
55.0042
55.0001
54.9959
54.9917
54.9876
54.9834
54.9792
54.9751
54.9709
54.9667
54.9626
54.9584
54.9542
54.95
54.9459
54.9417
54.9375
54.9334
54.9292
54.925
54.9209
54.9167
54.9125
54.9083
54.9042
54.9
54.8958
54.8917
54.8875
54.8833
54.8791
54.875
54.8708
54.8666
54.8624
54.8583
54.8541
54.8499
54.8457
54.8416
54.8374
54.8332
54.829
54.8249
54.8207
54.8165
54.8123
54.8081
54.804
54.7998
54.7956
54.7914
54.7872
54.7831
54.7789
54.7747
54.7705
54.7663
54.7622
54.758
54.7538
54.7496
54.7454
54.7413
54.7371
54.7329
54.7287
54.7245
54.7204
54.7162
54.712
54.7078
54.7036
54.6994
54.6952
54.6911
54.6869
54.6827
54.6785
54.6743
54.6743
56.7451
56.7451
56.4998
56.4523
56.4304
56.4153
56.403
56.392
56.3819
56.3723
56.363
56.3541
56.3455
56.337
56.3288
56.3208
56.3129
56.3052
56.2977
56.2903
56.2831
56.276
56.2691
56.2622
56.2555
56.2489
56.2424
56.2361
56.2298
56.2237
56.2176
56.2117
56.2058
56.2001
56.1945
56.1891
56.1837
56.1785
56.1734
56.1684
56.1634
56.1586
56.1538
56.1491
56.1444
56.1398
56.1352
56.1307
56.1261
56.1216
56.1171
56.1127
56.1083
56.1039
56.0996
56.0953
56.0911
56.0869
56.0828
56.0786
56.0745
56.0704
56.0662
56.0621
56.058
56.0539
56.0498
56.0457
56.0416
56.0374
56.0333
56.0292
56.0251
56.021
56.0169
56.0128
56.0087
56.0045
56.0004
55.9963
55.9922
55.9881
55.984
55.9799
55.9758
55.9717
55.9675
55.9634
55.9593
55.9552
55.9511
55.947
55.9429
55.9388
55.9347
55.9306
55.9264
55.9223
55.9182
55.9141
55.91
55.9059
55.9018
55.8977
55.8936
55.8895
55.8854
55.8812
55.8771
55.873
55.8689
55.8648
55.8607
55.8566
55.8525
55.8484
55.8443
55.8401
55.836
55.8319
55.8278
55.8237
55.8196
55.8155
55.8114
55.8073
55.8032
55.799
55.7949
55.7908
55.7867
55.7826
55.7785
55.7744
55.7703
55.7661
55.762
55.7579
55.7538
55.7497
55.7456
55.7415
55.7373
55.7332
55.7291
55.725
55.7209
55.7168
55.7127
55.7085
55.7044
55.7003
55.6962
55.6921
55.688
55.6838
55.6797
55.6756
55.6715
55.6674
55.6632
55.6591
55.655
55.6509
55.6468
55.6426
55.6385
55.6344
55.6303
55.6261
55.622
55.6179
55.6138
55.6097
55.6055
55.6014
55.5973
55.5932
55.589
55.5849
55.5808
55.5766
55.5725
55.5684
55.5643
55.5601
55.556
55.5519
55.5477
55.5436
55.5395
55.5354
55.5312
55.5271
55.523
55.5188
55.5147
55.5106
55.5064
55.5023
55.4982
55.494
55.4899
55.4858
55.4816
55.4775
55.4734
55.4692
55.4651
55.461
55.4568
55.4527
55.4485
55.4444
55.4403
55.4361
55.432
55.4279
55.4237
55.4196
55.4154
55.4113
55.4072
55.403
55.3989
55.3947
55.3906
55.3864
55.3823
55.3782
55.374
55.3699
55.3657
55.3616
55.3574
55.3533
55.3492
55.345
55.3409
55.3367
55.3326
55.3284
55.3243
55.3201
55.316
55.3118
55.3077
55.3035
55.2994
55.2953
55.2911
55.287
55.2828
55.2787
55.2745
55.2704
55.2662
55.2621
55.2579
55.2538
55.2496
55.2455
55.2413
55.2371
55.233
55.2288
55.2247
55.2205
55.2164
55.2122
55.2081
55.2039
55.1998
55.1956
55.1915
55.1873
55.1831
55.179
55.1748
55.1707
55.1665
55.1624
55.1582
55.1541
55.1499
55.1457
55.1416
55.1374
55.1333
55.1291
55.1249
55.1208
55.1166
55.1125
55.1083
55.1042
55.1
55.0958
55.0917
55.0875
55.0833
55.0792
55.075
55.0709
55.0667
55.0625
55.0584
55.0542
55.05
55.0459
55.0417
55.0376
55.0334
55.0292
55.0251
55.0209
55.0167
55.0126
55.0084
55.0042
55.0001
54.9959
54.9917
54.9876
54.9834
54.9792
54.9751
54.9709
54.9667
54.9626
54.9584
54.9542
54.95
54.9459
54.9417
54.9375
54.9334
54.9292
54.925
54.9209
54.9167
54.9125
54.9083
54.9042
54.9
54.8958
54.8916
54.8875
54.8833
54.8791
54.875
54.8708
54.8666
54.8624
54.8583
54.8541
54.8499
54.8457
54.8416
54.8374
54.8332
54.829
54.8249
54.8207
54.8165
54.8123
54.8081
54.804
54.7998
54.7956
54.7914
54.7872
54.7831
54.7789
54.7747
54.7705
54.7663
54.7622
54.758
54.7538
54.7496
54.7454
54.7413
54.7371
54.7329
54.7287
54.7245
54.7204
54.7162
54.712
54.7078
54.7036
54.6994
54.6952
54.6911
54.6869
54.6827
54.6785
54.6743
54.6743
56.73
56.73
56.5025
56.4534
56.431
56.4157
56.4032
56.3922
56.382
56.3724
56.3631
56.3542
56.3455
56.3371
56.3289
56.3208
56.313
56.3053
56.2978
56.2904
56.2831
56.276
56.2691
56.2623
56.2555
56.2489
56.2425
56.2361
56.2298
56.2237
56.2176
56.2117
56.2058
56.2001
56.1945
56.1891
56.1837
56.1785
56.1734
56.1684
56.1634
56.1586
56.1538
56.1491
56.1444
56.1398
56.1352
56.1307
56.1261
56.1216
56.1171
56.1127
56.1083
56.1039
56.0996
56.0953
56.0911
56.0869
56.0828
56.0786
56.0745
56.0704
56.0662
56.0621
56.058
56.0539
56.0498
56.0457
56.0416
56.0374
56.0333
56.0292
56.0251
56.021
56.0169
56.0128
56.0087
56.0045
56.0004
55.9963
55.9922
55.9881
55.984
55.9799
55.9758
55.9717
55.9675
55.9634
55.9593
55.9552
55.9511
55.947
55.9429
55.9388
55.9347
55.9306
55.9264
55.9223
55.9182
55.9141
55.91
55.9059
55.9018
55.8977
55.8936
55.8895
55.8854
55.8812
55.8771
55.873
55.8689
55.8648
55.8607
55.8566
55.8525
55.8484
55.8443
55.8401
55.836
55.8319
55.8278
55.8237
55.8196
55.8155
55.8114
55.8073
55.8032
55.799
55.7949
55.7908
55.7867
55.7826
55.7785
55.7744
55.7703
55.7661
55.762
55.7579
55.7538
55.7497
55.7456
55.7415
55.7373
55.7332
55.7291
55.725
55.7209
55.7168
55.7127
55.7085
55.7044
55.7003
55.6962
55.6921
55.688
55.6838
55.6797
55.6756
55.6715
55.6674
55.6632
55.6591
55.655
55.6509
55.6468
55.6426
55.6385
55.6344
55.6303
55.6261
55.622
55.6179
55.6138
55.6097
55.6055
55.6014
55.5973
55.5932
55.589
55.5849
55.5808
55.5766
55.5725
55.5684
55.5643
55.5601
55.556
55.5519
55.5477
55.5436
55.5395
55.5354
55.5312
55.5271
55.523
55.5188
55.5147
55.5106
55.5064
55.5023
55.4982
55.494
55.4899
55.4858
55.4816
55.4775
55.4734
55.4692
55.4651
55.461
55.4568
55.4527
55.4485
55.4444
55.4403
55.4361
55.432
55.4279
55.4237
55.4196
55.4154
55.4113
55.4072
55.403
55.3989
55.3947
55.3906
55.3864
55.3823
55.3782
55.374
55.3699
55.3657
55.3616
55.3574
55.3533
55.3492
55.345
55.3409
55.3367
55.3326
55.3284
55.3243
55.3201
55.316
55.3118
55.3077
55.3035
55.2994
55.2953
55.2911
55.287
55.2828
55.2787
55.2745
55.2704
55.2662
55.2621
55.2579
55.2538
55.2496
55.2455
55.2413
55.2371
55.233
55.2288
55.2247
55.2205
55.2164
55.2122
55.2081
55.2039
55.1998
55.1956
55.1915
55.1873
55.1831
55.179
55.1748
55.1707
55.1665
55.1624
55.1582
55.1541
55.1499
55.1457
55.1416
55.1374
55.1333
55.1291
55.1249
55.1208
55.1166
55.1125
55.1083
55.1042
55.1
55.0958
55.0917
55.0875
55.0833
55.0792
55.075
55.0709
55.0667
55.0625
55.0584
55.0542
55.05
55.0459
55.0417
55.0376
55.0334
55.0292
55.0251
55.0209
55.0167
55.0126
55.0084
55.0042
55.0001
54.9959
54.9917
54.9876
54.9834
54.9792
54.9751
54.9709
54.9667
54.9626
54.9584
54.9542
54.95
54.9459
54.9417
54.9375
54.9334
54.9292
54.925
54.9209
54.9167
54.9125
54.9083
54.9042
54.9
54.8958
54.8916
54.8875
54.8833
54.8791
54.875
54.8708
54.8666
54.8624
54.8583
54.8541
54.8499
54.8457
54.8416
54.8374
54.8332
54.829
54.8249
54.8207
54.8165
54.8123
54.8081
54.804
54.7998
54.7956
54.7914
54.7872
54.7831
54.7789
54.7747
54.7705
54.7663
54.7622
54.758
54.7538
54.7496
54.7454
54.7413
54.7371
54.7329
54.7287
54.7245
54.7204
54.7162
54.712
54.7078
54.7036
54.6994
54.6952
54.6911
54.6869
54.6827
54.6785
54.6743
54.6743
56.716
56.716
56.505
56.4545
56.4316
56.4161
56.4035
56.3924
56.3822
56.3725
56.3632
56.3543
56.3456
56.3372
56.3289
56.3209
56.313
56.3053
56.2978
56.2904
56.2832
56.2761
56.2691
56.2623
56.2556
56.249
56.2425
56.2361
56.2299
56.2237
56.2176
56.2117
56.2059
56.2001
56.1945
56.1891
56.1837
56.1785
56.1734
56.1684
56.1634
56.1586
56.1538
56.1491
56.1444
56.1398
56.1352
56.1307
56.1261
56.1216
56.1171
56.1127
56.1083
56.1039
56.0996
56.0953
56.0911
56.0869
56.0828
56.0786
56.0745
56.0704
56.0662
56.0621
56.058
56.0539
56.0498
56.0457
56.0416
56.0374
56.0333
56.0292
56.0251
56.021
56.0169
56.0128
56.0087
56.0045
56.0004
55.9963
55.9922
55.9881
55.984
55.9799
55.9758
55.9717
55.9675
55.9634
55.9593
55.9552
55.9511
55.947
55.9429
55.9388
55.9347
55.9306
55.9264
55.9223
55.9182
55.9141
55.91
55.9059
55.9018
55.8977
55.8936
55.8895
55.8854
55.8812
55.8771
55.873
55.8689
55.8648
55.8607
55.8566
55.8525
55.8484
55.8443
55.8401
55.836
55.8319
55.8278
55.8237
55.8196
55.8155
55.8114
55.8073
55.8032
55.799
55.7949
55.7908
55.7867
55.7826
55.7785