# vtk DataFile Version 2.0
FlowField
ASCII
DATASET STRUCTURED_GRID
DIMENSIONS 400 1 200
POINTS 80000 float
0 0 0
0.08 0 0
0.16 0 0
0.24 0 0
0.32 0 0
0.4 0 0
0.48 0 0
0.56 0 0
0.64 0 0
0.72 0 0
0.8 0 0
0.88 0 0
0.96 0 0
1.04 0 0
1.12 0 0
1.2 0 0
1.28 0 0
1.36 0 0
1.44 0 0
1.52 0 0
1.6 0 0
1.68 0 0
1.76 0 0
1.84 0 0
1.92 0 0
2 0 0
2.08 0 0
2.16 0 0
2.24 0 0
2.32 0 0
2.4 0 0
2.48 0 0
2.56 0 0
2.64 0 0
2.72 0 0
2.8 0 0
2.88 0 0
2.96 0 0
3.04 0 0
3.12 0 0
3.2 0 0
3.28 0 0
3.36 0 0
3.44 0 0
3.52 0 0
3.6 0 0
3.68 0 0
3.76 0 0
3.84 0 0
3.92 0 0
4 0 0
4.08 0 0
4.16 0 0
4.24 0 0
4.32 0 0
4.4 0 0
4.48 0 0
4.56 0 0
4.64 0 0
4.72 0 0
4.8 0 0
4.88 0 0
4.96 0 0
5.04 0 0
5.12 0 0
5.2 0 0
5.28 0 0
5.36 0 0
5.44 0 0
5.52 0 0
5.6 0 0
5.68 0 0
5.76 0 0
5.84 0 0
5.92 0 0
6 0 0
6.08 0 0
6.16 0 0
6.24 0 0
6.32 0 0
6.4 0 0
6.48 0 0
6.56 0 0
6.64 0 0
6.72 0 0
6.8 0 0
6.88 0 0
6.96 0 0
7.04 0 0
7.12 0 0
7.2 0 0
7.28 0 0
7.36 0 0
7.44 0 0
7.52 0 0
7.6 0 0
7.68 0 0
7.76 0 0
7.84 0 0
7.92 0 0
8 0 0
8.08 0 0
8.16 0 0
8.24 0 0
8.32 0 0
8.4 0 0
8.48 0 0
8.56 0 0
8.64 0 0
8.72 0 0
8.8 0 0
8.88 0 0
8.96 0 0
9.04 0 0
9.12 0 0
9.2 0 0
9.28 0 0
9.36 0 0
9.44 0 0
9.52 0 0
9.6 0 0
9.68 0 0
9.76 0 0
9.84 0 0
9.92 0 0
10 0 0
10.08 0 0
10.16 0 0
10.24 0 0
10.32 0 0
10.4 0 0
10.48 0 0
10.56 0 0
10.64 0 0
10.72 0 0
10.8 0 0
10.88 0 0
10.96 0 0
11.04 0 0
11.12 0 0
11.2 0 0
11.28 0 0
11.36 0 0
11.44 0 0
11.52 0 0
11.6 0 0
11.68 0 0
11.76 0 0
11.84 0 0
11.92 0 0
12 0 0
12.08 0 0
12.16 0 0
12.24 0 0
12.32 0 0
12.4 0 0
12.48 0 0
12.56 0 0
12.64 0 0
12.72 0 0
12.8 0 0
12.88 0 0
12.96 0 0
13.04 0 0
13.12 0 0
13.2 0 0
13.28 0 0
13.36 0 0
13.44 0 0
13.52 0 0
13.6 0 0
13.68 0 0
13.76 0 0
13.84 0 0
13.92 0 0
14 0 0
14.08 0 0
14.16 0 0
14.24 0 0
14.32 0 0
14.4 0 0
14.48 0 0
14.56 0 0
14.64 0 0
14.72 0 0
14.8 0 0
14.88 0 0
14.96 0 0
15.04 0 0
15.12 0 0
15.2 0 0
15.28 0 0
15.36 0 0
15.44 0 0
15.52 0 0
15.6 0 0
15.68 0 0
15.76 0 0
15.84 0 0
15.92 0 0
16 0 0
16.08 0 0
16.16 0 0
16.24 0 0
16.32 0 0
16.4 0 0
16.48 0 0
16.56 0 0
16.64 0 0
16.72 0 0
16.8 0 0
16.88 0 0
16.96 0 0
17.04 0 0
17.12 0 0
17.2 0 0
17.28 0 0
17.36 0 0
17.44 0 0
17.52 0 0
17.6 0 0
17.68 0 0
17.76 0 0
17.84 0 0
17.92 0 0
18 0 0
18.08 0 0
18.16 0 0
18.24 0 0
18.32 0 0
18.4 0 0
18.48 0 0
18.56 0 0
18.64 0 0
18.72 0 0
18.8 0 0
18.88 0 0
18.96 0 0
19.04 0 0
19.12 0 0
19.2 0 0
19.28 0 0
19.36 0 0
19.44 0 0
19.52 0 0
19.6 0 0
19.68 0 0
19.76 0 0
19.84 0 0
19.92 0 0
20 0 0
20.08 0 0
20.16 0 0
20.24 0 0
20.32 0 0
20.4 0 0
20.48 0 0
20.56 0 0
20.64 0 0
20.72 0 0
20.8 0 0
20.88 0 0
20.96 0 0
21.04 0 0
21.12 0 0
21.2 0 0
21.28 0 0
21.36 0 0
21.44 0 0
21.52 0 0
21.6 0 0
21.68 0 0
21.76 0 0
21.84 0 0
21.92 0 0
22 0 0
22.08 0 0
22.16 0 0
22.24 0 0
22.32 0 0
22.4 0 0
22.48 0 0
22.56 0 0
22.64 0 0
22.72 0 0
22.8 0 0
22.88 0 0
22.96 0 0
23.04 0 0
23.12 0 0
23.2 0 0
23.28 0 0
23.36 0 0
23.44 0 0
23.52 0 0
23.6 0 0
23.68 0 0
23.76 0 0
23.84 0 0
23.92 0 0
24 0 0
24.08 0 0
24.16 0 0
24.24 0 0
24.32 0 0
24.4 0 0
24.48 0 0
24.56 0 0
24.64 0 0
24.72 0 0
24.8 0 0
24.88 0 0
24.96 0 0
25.04 0 0
25.12 0 0
25.2 0 0
25.28 0 0
25.36 0 0
25.44 0 0
25.52 0 0
25.6 0 0
25.68 0 0
25.76 0 0
25.84 0 0
25.92 0 0
26 0 0
26.08 0 0
26.16 0 0
26.24 0 0
26.32 0 0
26.4 0 0
26.48 0 0
26.56 0 0
26.64 0 0
26.72 0 0
26.8 0 0
26.88 0 0
26.96 0 0
27.04 0 0
27.12 0 0
27.2 0 0
27.28 0 0
27.36 0 0
27.44 0 0
27.52 0 0
27.6 0 0
27.68 0 0
27.76 0 0
27.84 0 0
27.92 0 0
28 0 0
28.08 0 0
28.16 0 0
28.24 0 0
28.32 0 0
28.4 0 0
28.48 0 0
28.56 0 0
28.64 0 0
28.72 0 0
28.8 0 0
28.88 0 0
28.96 0 0
29.04 0 0
29.12 0 0
29.2 0 0
29.28 0 0
29.36 0 0
29.44 0 0
29.52 0 0
29.6 0 0
29.68 0 0
29.76 0 0
29.84 0 0
29.92 0 0
30 0 0
30.08 0 0
30.16 0 0
30.24 0 0
30.32 0 0
30.4 0 0
30.48 0 0
30.56 0 0
30.64 0 0
30.72 0 0
30.8 0 0
30.88 0 0
30.96 0 0
31.04 0 0
31.12 0 0
31.2 0 0
31.28 0 0
31.36 0 0
31.44 0 0
31.52 0 0
31.6 0 0
31.68 0 0
31.76 0 0
31.84 0 0
31.92 0 0
0 0.005 0
0.08 0.005 0
0.16 0.005 0
0.24 0.005 0
0.32 0.005 0
0.4 0.005 0
0.48 0.005 0
0.56 0.005 0
0.64 0.005 0
0.72 0.005 0
0.8 0.005 0
0.88 0.005 0
0.96 0.005 0
1.04 0.005 0
1.12 0.005 0
1.2 0.005 0
1.28 0.005 0
1.36 0.005 0
1.44 0.005 0
1.52 0.005 0
1.6 0.005 0
1.68 0.005 0
1.76 0.005 0
1.84 0.005 0
1.92 0.005 0
2 0.005 0
2.08 0.005 0
2.16 0.005 0
2.24 0.005 0
2.32 0.005 0
2.4 0.005 0
2.48 0.005 0
2.56 0.005 0
2.64 0.005 0
2.72 0.005 0
2.8 0.005 0
2.88 0.005 0
2.96 0.005 0
3.04 0.005 0
3.12 0.005 0
3.2 0.005 0
3.28 0.005 0
3.36 0.005 0
3.44 0.005 0
3.52 0.005 0
3.6 0.005 0
3.68 0.005 0
3.76 0.005 0
3.84 0.005 0
3.92 0.005 0
4 0.005 0
4.08 0.005 0
4.16 0.005 0
4.24 0.005 0
4.32 0.005 0
4.4 0.005 0
4.48 0.005 0
4.56 0.005 0
4.64 0.005 0
4.72 0.005 0
4.8 0.005 0
4.88 0.005 0
4.96 0.005 0
5.04 0.005 0
5.12 0.005 0
5.2 0.005 0
5.28 0.005 0
5.36 0.005 0
5.44 0.005 0
5.52 0.005 0
5.6 0.005 0
5.68 0.005 0
5.76 0.005 0
5.84 0.005 0
5.92 0.005 0
6 0.005 0
6.08 0.005 0
6.16 0.005 0
6.24 0.005 0
6.32 0.005 0
6.4 0.005 0
6.48 0.005 0
6.56 0.005 0
6.64 0.005 0
6.72 0.005 0
6.8 0.005 0
6.88 0.005 0
6.96 0.005 0
7.04 0.005 0
7.12 0.005 0
7.2 0.005 0
7.28 0.005 0
7.36 0.005 0
7.44 0.005 0
7.52 0.005 0
7.6 0.005 0
7.68 0.005 0
7.76 0.005 0
7.84 0.005 0
7.92 0.005 0
8 0.005 0
8.08 0.005 0
8.16 0.005 0
8.24 0.005 0
8.32 0.005 0
8.4 0.005 0
8.48 0.005 0
8.56 0.005 0
8.64 0.005 0
8.72 0.005 0
8.8 0.005 0
8.88 0.005 0
8.96 0.005 0
9.04 0.005 0
9.12 0.005 0
9.2 0.005 0
9.28 0.005 0
9.36 0.005 0
9.44 0.005 0
9.52 0.005 0
9.6 0.005 0
9.68 0.005 0
9.76 0.005 0
9.84 0.005 0
9.92 0.005 0
10 0.005 0
10.08 0.005 0
10.16 0.005 0
10.24 0.005 0
10.32 0.005 0
10.4 0.005 0
10.48 0.005 0
10.56 0.005 0
10.64 0.005 0
10.72 0.005 0
10.8 0.005 0
10.88 0.005 0
10.96 0.005 0
11.04 0.005 0
11.12 0.005 0
11.2 0.005 0
11.28 0.005 0
11.36 0.005 0
11.44 0.005 0
11.52 0.005 0
11.6 0.005 0
11.68 0.005 0
11.76 0.005 0
11.84 0.005 0
11.92 0.005 0
12 0.005 0
12.08 0.005 0
12.16 0.005 0
12.24 0.005 0
12.32 0.005 0
12.4 0.005 0
12.48 0.005 0
12.56 0.005 0
12.64 0.005 0
12.72 0.005 0
12.8 0.005 0
12.88 0.005 0
12.96 0.005 0
13.04 0.005 0
13.12 0.005 0
13.2 0.005 0
13.28 0.005 0
13.36 0.005 0
13.44 0.005 0
13.52 0.005 0
13.6 0.005 0
13.68 0.005 0
13.76 0.005 0
13.84 0.005 0
13.92 0.005 0
14 0.005 0
14.08 0.005 0
14.16 0.005 0
14.24 0.005 0
14.32 0.005 0
14.4 0.005 0
14.48 0.005 0
14.56 0.005 0
14.64 0.005 0
14.72 0.005 0
14.8 0.005 0
14.88 0.005 0
14.96 0.005 0
15.04 0.005 0
15.12 0.005 0
15.2 0.005 0
15.28 0.005 0
15.36 0.005 0
15.44 0.005 0
15.52 0.005 0
15.6 0.005 0
15.68 0.005 0
15.76 0.005 0
15.84 0.005 0
15.92 0.005 0
16 0.005 0
16.08 0.005 0
16.16 0.005 0
16.24 0.005 0
16.32 0.005 0
16.4 0.005 0
16.48 0.005 0
16.56 0.005 0
16.64 0.005 0
16.72 0.005 0
16.8 0.005 0
16.88 0.005 0
16.96 0.005 0
17.04 0.005 0
17.12 0.005 0
17.2 0.005 0
17.28 0.005 0
17.36 0.005 0
17.44 0.005 0
17.52 0.005 0
17.6 0.005 0
17.68 0.005 0
17.76 0.005 0
17.84 0.005 0
17.92 0.005 0
18 0.005 0
18.08 0.005 0
18.16 0.005 0
18.24 0.005 0
18.32 0.005 0
18.4 0.005 0
18.48 0.005 0
18.56 0.005 0
18.64 0.005 0
18.72 0.005 0
18.8 0.005 0
18.88 0.005 0
18.96 0.005 0
19.04 0.005 0
19.12 0.005 0
19.2 0.005 0
19.28 0.005 0
19.36 0.005 0
19.44 0.005 0
19.52 0.005 0
19.6 0.005 0
19.68 0.005 0
19.76 0.005 0
19.84 0.005 0
19.92 0.005 0
20 0.005 0
20.08 0.005 0
20.16 0.005 0
20.24 0.005 0
20.32 0.005 0
20.4 0.005 0
20.48 0.005 0
20.56 0.005 0
20.64 0.005 0
20.72 0.005 0
20.8 0.005 0
20.88 0.005 0
20.96 0.005 0
21.04 0.005 0
21.12 0.005 0
21.2 0.005 0
21.28 0.005 0
21.36 0.005 0
21.44 0.005 0
21.52 0.005 0
21.6 0.005 0
21.68 0.005 0
21.76 0.005 0
21.84 0.005 0
21.92 0.005 0
22 0.005 0
22.08 0.005 0
22.16 0.005 0
22.24 0.005 0
22.32 0.005 0
22.4 0.005 0
22.48 0.005 0
22.56 0.005 0
22.64 0.005 0
22.72 0.005 0
22.8 0.005 0
22.88 0.005 0
22.96 0.005 0
23.04 0.005 0
23.12 0.005 0
23.2 0.005 0
23.28 0.005 0
23.36 0.005 0
23.44 0.005 0
23.52 0.005 0
23.6 0.005 0
23.68 0.005 0
23.76 0.005 0
23.84 0.005 0
23.92 0.005 0
24 0.005 0
24.08 0.005 0
24.16 0.005 0
24.24 0.005 0
24.32 0.005 0
24.4 0.005 0
24.48 0.005 0
24.56 0.005 0
24.64 0.005 0
24.72 0.005 0
24.8 0.005 0
24.88 0.005 0
24.96 0.005 0
25.04 0.005 0
25.12 0.005 0
25.2 0.005 0
25.28 0.005 0
25.36 0.005 0
25.44 0.005 0
25.52 0.005 0
25.6 0.005 0
25.68 0.005 0
25.76 0.005 0
25.84 0.005 0
25.92 0.005 0
26 0.005 0
26.08 0.005 0
26.16 0.005 0
26.24 0.005 0
26.32 0.005 0
26.4 0.005 0
26.48 0.005 0
26.56 0.005 0
26.64 0.005 0
26.72 0.005 0
26.8 0.005 0
26.88 0.005 0
26.96 0.005 0
27.04 0.005 0
27.12 0.005 0
27.2 0.005 0
27.28 0.005 0
27.36 0.005 0
27.44 0.005 0
27.52 0.005 0
27.6 0.005 0
27.68 0.005 0
27.76 0.005 0
27.84 0.005 0
27.92 0.005 0
28 0.005 0
28.08 0.005 0
28.16 0.005 0
28.24 0.005 0
28.32 0.005 0
28.4 0.005 0
28.48 0.005 0
28.56 0.005 0
28.64 0.005 0
28.72 0.005 0
28.8 0.005 0
28.88 0.005 0
28.96 0.005 0
29.04 0.005 0
29.12 0.005 0
29.2 0.005 0
29.28 0.005 0
29.36 0.005 0
29.44 0.005 0
29.52 0.005 0
29.6 0.005 0
29.68 0.005 0
29.76 0.005 0
29.84 0.005 0
29.92 0.005 0
30 0.005 0
30.08 0.005 0
30.16 0.005 0
30.24 0.005 0
30.32 0.005 0
30.4 0.005 0
30.48 0.005 0
30.56 0.005 0
30.64 0.005 0
30.72 0.005 0
30.8 0.005 0
30.88 0.005 0
30.96 0.005 0
31.04 0.005 0
31.12 0.005 0
31.2 0.005 0
31.28 0.005 0
31.36 0.005 0
31.44 0.005 0
31.52 0.005 0
31.6 0.005 0
31.68 0.005 0
31.76 0.005 0
31.84 0.005 0
31.92 0.005 0
0 0.01 0
0.08 0.01 0
0.16 0.01 0
0.24 0.01 0
0.32 0.01 0
0.4 0.01 0
0.48 0.01 0
0.56 0.01 0
0.64 0.01 0
0.72 0.01 0
0.8 0.01 0
0.88 0.01 0
0.96 0.01 0
1.04 0.01 0
1.12 0.01 0
1.2 0.01 0
1.28 0.01 0
1.36 0.01 0
1.44 0.01 0
1.52 0.01 0
1.6 0.01 0
1.68 0.01 0
1.76 0.01 0
1.84 0.01 0
1.92 0.01 0
2 0.01 0
2.08 0.01 0
2.16 0.01 0
2.24 0.01 0
2.32 0.01 0
2.4 0.01 0
2.48 0.01 0
2.56 0.01 0
2.64 0.01 0
2.72 0.01 0
2.8 0.01 0
2.88 0.01 0
2.96 0.01 0
3.04 0.01 0
3.12 0.01 0
3.2 0.01 0
3.28 0.01 0
3.36 0.01 0
3.44 0.01 0
3.52 0.01 0
3.6 0.01 0
3.68 0.01 0
3.76 0.01 0
3.84 0.01 0
3.92 0.01 0
4 0.01 0
4.08 0.01 0
4.16 0.01 0
4.24 0.01 0
4.32 0.01 0
4.4 0.01 0
4.48 0.01 0
4.56 0.01 0
4.64 0.01 0
4.72 0.01 0
4.8 0.01 0
4.88 0.01 0
4.96 0.01 0
5.04 0.01 0
5.12 0.01 0
[...]
POINT_DATA 80000

SCALARS v float 1
LOOKUP_TABLE default
0
0
0
0
0
0
0
0
0
0
0
0
0
0
0
0
0
0
0
0
0
0
0
0
0
0
0
0
0
0
0
0
0
0
0
0
0
0
0
0
0
0
0
0
0
0
0
0
0
0
0
0
0
0
0
0
0
0
0
0
0
0
0
0
0
0
0
0
0
0
0
0
0
0
0
0
0
0
0
0
0
0
0
0
0
0
0
0
0
0
0
0
0
0
0
0
0
0
0
0
0
0
0
0
0
0
0
0
0
0
0
0
0
0
0
0
0
0
0
0
0
0
0
0
0
0
0
0
0
0
0
0
0
0
0
0
0
0
0
0
0
0
0
0
0
0
0
0
0
0
0
0
0
0
0
0
0
0
0
0
0
0
0
0
0
0
0
0
0
0
0
0
0
0
0
0
0
0
0
0
0
0
0
0
0
0
0
0
0
0
0
0
0
0
0
0
0
0
0
0
0
0
0
0
0
0
0
0
0
0
0
0
0
0
0
0
0
0
0
0
0
0
0
0
0
0
0
0
0
0
0
0
0
0
0
0
0
0
0
0
0
0
0
0
0
0
0
0
0
0
0
0
0
0
0
0
0
0
0
0
0
0
0
0
0
0
0
0
0
0
0
0
0
0
0
0
0
0
0
0
0
0
0
0
0
0
0
0
0
0
0
0
0
0
0
0
0
0
0
0
0
0
0
0
0
0
0
0
0
0
0
0
0
0
0
0
0
0
0
0
0
0
0
0
0
0
0
0
0
0
0
0
0
0
0
0
0
0
0
0
0
0
0
0
0
0
0
0
0
0
0
0
0
0
0
0
0
0
0
0
0
0
0
0
0
0
0
0
0
0
0
0
0
0
0
0
0
0
0
0
0
0
0
0
0
0
0
0
0
0
0
0
0
0
0
0
0
0
0
0
-0.0542716
0.0542716
0.00396265
0.00099889
0.000492823
0.00030326
0.000207885
0.000152257
0.000116815
9.28581e-05
7.5944e-05
6.35826e-05
5.42794e-05
4.7094e-05
4.1417e-05
3.68435e-05
3.30932e-05
2.9961e-05
2.72964e-05
2.49985e-05
2.30059e-05
2.12731e-05
1.97487e-05
1.83734e-05
1.71015e-05
1.59202e-05
1.4845e-05
1.38892e-05
1.30325e-05
1.22166e-05
1.13733e-05
1.04635e-05
9.49976e-06
8.53539e-06
7.63087e-06
6.82071e-06
6.10178e-06
5.44683e-06
4.83042e-06
4.24896e-06
3.72372e-06
3.28711e-06
2.96268e-06
2.75049e-06
2.62484e-06
2.54358e-06
2.46278e-06
2.34968e-06
2.18938e-06
1.98466e-06
1.75084e-06
1.50887e-06
1.279e-06
1.07653e-06
9.10031e-07
7.81613e-07
6.8842e-07
6.2465e-07
5.83413e-07
5.58116e-07
5.43257e-07
5.34713e-07
5.29679e-07
5.26416e-07
5.23953e-07
5.2181e-07
5.19789e-07
5.17835e-07
5.15945e-07
5.14132e-07
5.12403e-07
5.10758e-07
5.09187e-07
5.0768e-07
5.06222e-07
5.04802e-07
5.0341e-07
5.02037e-07
5.00679e-07
4.9933e-07
4.97989e-07
4.96653e-07
4.9532e-07
4.9399e-07
4.92662e-07
4.91336e-07
4.90012e-07
4.88688e-07
4.87365e-07
4.86043e-07
4.84721e-07
4.834e-07
4.82078e-07
4.80757e-07
4.79435e-07
4.78113e-07
4.76791e-07
4.75468e-07
4.74146e-07
4.72822e-07
4.71499e-07
4.70175e-07
4.6885e-07
4.67525e-07
4.66199e-07
4.64873e-07
4.63545e-07
4.62218e-07
4.60889e-07
4.5956e-07
4.58229e-07
4.56898e-07
4.55566e-07
4.54233e-07
4.52898e-07
4.51562e-07
4.50225e-07
4.48886e-07
4.47546e-07
4.46204e-07
4.44861e-07
4.43515e-07
4.42167e-07
4.40818e-07
4.39466e-07
4.38111e-07
4.36754e-07
4.35395e-07
4.34032e-07
4.32667e-07
4.31298e-07
4.29926e-07
4.28551e-07
4.27172e-07
4.2579e-07
4.24403e-07
4.23013e-07
4.21618e-07
4.20219e-07
4.18815e-07
4.17406e-07
4.15993e-07
4.14574e-07
4.1315e-07
4.1172e-07
4.10284e-07
4.08843e-07
4.07395e-07
4.05941e-07
4.0448e-07
4.03013e-07
4.01538e-07
4.00056e-07
3.98567e-07
3.9707e-07
3.95565e-07
3.94052e-07
3.92531e-07
3.91001e-07
3.89463e-07
3.87915e-07
3.86359e-07
3.84793e-07
3.83217e-07
3.81632e-07
3.80037e-07
3.78431e-07
3.76815e-07
3.75189e-07
3.73552e-07
3.71904e-07
3.70245e-07
3.68574e-07
3.66893e-07
3.65199e-07
3.63494e-07
3.61778e-07
3.60049e-07
3.58309e-07
3.56556e-07
3.54791e-07
3.53014e-07
3.51225e-07
3.49423e-07
3.47608e-07
3.45782e-07
3.43943e-07
3.42091e-07
3.40227e-07
3.38351e-07
3.36462e-07
3.34561e-07
3.32648e-07
3.30723e-07
3.28786e-07
3.26837e-07
3.24877e-07
3.22905e-07
3.20921e-07
3.18927e-07
3.16922e-07
3.14906e-07
3.12879e-07
3.10843e-07
3.08797e-07
3.06742e-07
3.04677e-07
3.02604e-07
3.00523e-07
2.98433e-07
2.96336e-07
2.94232e-07
2.92121e-07
2.90005e-07
2.87882e-07
2.85754e-07
2.83622e-07
2.81486e-07
2.79346e-07
2.77203e-07
2.75057e-07
2.7291e-07
2.70762e-07
2.68613e-07
2.66464e-07
2.64316e-07
2.62169e-07
2.60025e-07
2.57883e-07
2.55744e-07
2.53609e-07
2.5148e-07
2.49355e-07
2.47237e-07
2.45126e-07
2.43022e-07
2.40927e-07
2.3884e-07
2.36763e-07
2.34697e-07
2.32641e-07
2.30598e-07
2.28567e-07
2.26549e-07
2.24545e-07
2.22555e-07
2.2058e-07
2.18621e-07
2.16679e-07
2.14754e-07
2.12846e-07
2.10957e-07
2.09086e-07
2.07235e-07
2.05404e-07
2.03593e-07
2.01803e-07
2.00034e-07
1.98288e-07
1.96564e-07
1.94863e-07
1.93184e-07
1.9153e-07
1.89899e-07
1.88293e-07
1.86712e-07
1.85155e-07
1.83623e-07
1.82117e-07
1.80637e-07
1.79182e-07
1.77753e-07
1.76351e-07
1.74975e-07
1.73625e-07
1.72302e-07
1.71005e-07
1.69734e-07
1.68491e-07
1.67273e-07
1.66083e-07
1.64918e-07
1.6378e-07
1.62668e-07
1.61582e-07
1.60522e-07
1.59488e-07
1.58479e-07
1.57496e-07
1.56537e-07
1.55604e-07
1.54695e-07
1.5381e-07
1.5295e-07
1.52113e-07
1.513e-07
1.50509e-07
1.49742e-07
1.48996e-07
1.48273e-07
1.47571e-07
1.46891e-07
1.46232e-07
1.45592e-07
1.44973e-07
1.44374e-07
1.43794e-07
1.43233e-07
1.4269e-07
1.42165e-07
1.41658e-07
1.41169e-07
1.40696e-07
1.40239e-07
1.39799e-07
1.39374e-07
1.38964e-07
1.38569e-07
1.38189e-07
1.37823e-07
1.37471e-07
1.37132e-07
1.36806e-07
1.36494e-07
1.36193e-07
1.35905e-07
1.35629e-07
1.35364e-07
1.35111e-07
1.34869e-07
1.34637e-07
1.34417e-07
1.34207e-07
1.34007e-07
1.33817e-07
1.33637e-07
1.33467e-07
1.33307e-07
1.33157e-07
1.33016e-07
1.32884e-07
1.32762e-07
1.32649e-07
1.32546e-07
1.32452e-07
1.32368e-07
1.32293e-07
1.32227e-07
1.32172e-07
1.32125e-07
1.32091e-07
1.32061e-07
1.32051e-07
1.32035e-07
1.32058e-07
1.32044e-07
1.3212e-07
1.32079e-07
1.32252e-07
1.3213e-07
1.32469e-07
1.32183e-07
1.32789e-07
1.32234e-07
1.33214e-07
1.32294e-07
1.3373e-07
1.3239e-07
1.34313e-07
1.32559e-07
1.34932e-07
1.32837e-07
1.35566e-07
1.3324e-07
1.36228e-07
1.33736e-07
1.3699e-07
1.34238e-07
1.37956e-07
1.34657e-07
1.3921e-07
1.34929e-07
1.40802e-07
1.35037e-07
1.42676e-07
1.35106e-07
1.44575e-07
1.35421e-07
1.45982e-07
1.3658e-07
1.45567e-07
1.40374e-07
1.39885e-07
1.51491e-07
1.21693e-07
1.87274e-07
7.18484e-08
4.39227e-07
1.49176e-07
1.49176e-07
-0.0952165
0.0952165
0.0129763
0.0038553
0.001935
0.0011969
0.000822442
0.000603017
0.000462768
0.000367738
0.000300524
0.000251335
0.000214279
0.000185643
0.000163015
0.000144785
0.000129834
0.000117347
0.000106731
9.75854e-05
8.96607e-05
8.27646e-05
7.66856e-05
7.11952e-05
6.61245e-05
6.14294e-05
5.71611e-05
5.33505e-05
4.99012e-05
4.65861e-05
4.31567e-05
3.94857e-05
3.5637e-05
3.18167e-05
2.82456e-05
2.50431e-05
2.2193e-05
1.95983e-05
1.71752e-05
1.49203e-05
1.29143e-05
1.12686e-05
1.00534e-05
9.25008e-06
8.74954e-06
8.39012e-06
8.01228e-06
7.50367e-06
6.82007e-06
5.98134e-06
5.05052e-06
4.10762e-06
3.22677e-06
2.46165e-06
1.84018e-06
1.36633e-06
1.0264e-06
7.96701e-07
6.50395e-07
5.62441e-07
5.12304e-07
4.84813e-07
4.69767e-07
4.60924e-07
4.54845e-07
4.49861e-07
4.45304e-07
4.40994e-07
4.36938e-07
4.33183e-07
4.29754e-07
4.26642e-07
4.23812e-07
4.21219e-07
4.18811e-07
4.16543e-07
4.14379e-07
4.12288e-07
4.10249e-07
4.08247e-07
4.0627e-07
4.04313e-07
4.02369e-07
4.00435e-07
3.9851e-07
3.96591e-07
3.94677e-07
3.92767e-07
3.9086e-07
3.88955e-07
3.87051e-07
3.85148e-07
3.83246e-07
3.81344e-07
3.79441e-07
3.77538e-07
3.75635e-07
3.73731e-07
3.71826e-07
3.6992e-07
3.68014e-07
3.66106e-07
3.64198e-07
3.6229e-07
3.6038e-07
3.5847e-07
3.5656e-07
3.54648e-07
3.52736e-07
3.50823e-07
3.48909e-07
3.46995e-07
3.45079e-07
3.43163e-07
3.41245e-07
3.39326e-07
3.37406e-07
3.35485e-07
3.33562e-07
3.31637e-07
3.29711e-07
3.27782e-07
3.25852e-07
3.23919e-07
3.21984e-07
3.20046e-07
3.18106e-07
3.16163e-07
3.14216e-07
3.12267e-07
3.10314e-07
3.08358e-07
3.06397e-07
3.04433e-07
3.02465e-07
3.00492e-07
2.98515e-07
2.96533e-07
2.94546e-07
2.92554e-07
2.90557e-07
2.88554e-07
2.86545e-07
2.8453e-07
2.82508e-07
2.8048e-07
2.78446e-07
2.76404e-07
2.74355e-07
2.72298e-07
2.70234e-07
2.68162e-07
2.66081e-07
2.63992e-07
2.61894e-07
2.59787e-07
2.57671e-07
2.55545e-07
2.53409e-07
2.51264e-07
2.49108e-07
2.46941e-07
2.44764e-07
2.42575e-07
2.40375e-07
2.38164e-07
2.3594e-07
2.33705e-07
2.31457e-07
2.29197e-07
2.26925e-07
2.24639e-07
2.2234e-07
2.20028e-07
2.17702e-07
2.15363e-07
2.13009e-07
2.10642e-07
2.08261e-07
2.05865e-07
2.03455e-07
2.0103e-07
1.98591e-07
1.96137e-07
1.93668e-07
1.91185e-07
1.88686e-07
1.86173e-07
1.83645e-07
1.81102e-07
1.78544e-07
1.75971e-07
1.73384e-07
1.70782e-07
1.68165e-07
1.65535e-07
1.62889e-07
1.6023e-07
1.57557e-07
1.54871e-07
1.52171e-07
1.49457e-07
1.46731e-07
1.43993e-07
1.41242e-07
1.38479e-07
1.35704e-07
1.32919e-07
1.30123e-07
1.27316e-07
1.245e-07
1.21674e-07
1.1884e-07
1.15997e-07
1.13146e-07
1.10289e-07
1.07424e-07
1.04554e-07
1.01678e-07
9.87972e-08
9.59124e-08
9.30243e-08
9.01335e-08
8.72406e-08
8.43465e-08
8.14518e-08
7.85573e-08
7.56639e-08
7.27721e-08
6.9883e-08
6.69971e-08
6.41154e-08
6.12387e-08
5.83678e-08
5.55034e-08
5.26466e-08
4.97979e-08
4.69585e-08
4.41289e-08
4.13102e-08
3.8503e-08
3.57083e-08
3.29269e-08
3.01596e-08
2.74072e-08
2.46705e-08
2.19503e-08
1.92475e-08
1.65627e-08
1.38968e-08
1.12505e-08
8.62449e-09
6.01952e-09
3.43636e-09
8.7559e-10
-1.66202e-09
-4.17593e-09
-6.6654e-09
-9.12993e-09
-1.15688e-08
-1.39817e-08
-1.63678e-08
-1.87268e-08
-2.1058e-08
-2.33612e-08
-2.56358e-08
-2.78814e-08
-3.00977e-08
-3.22843e-08
-3.44408e-08
-3.6567e-08
-3.86625e-08
-4.07273e-08
-4.27609e-08
-4.47634e-08
-4.67344e-08
-4.86739e-08
-5.05817e-08
-5.24579e-08
-5.43022e-08
-5.61148e-08
-5.78956e-08
-5.96447e-08
-6.13621e-08
-6.3048e-08
-6.47023e-08
-6.63254e-08
-6.79172e-08
-6.9478e-08
-7.1008e-08
-7.25075e-08
-7.39765e-08
-7.54156e-08
-7.68248e-08
-7.82046e-08
-7.95552e-08
-8.0877e-08
-8.21703e-08
-8.34355e-08
-8.46729e-08
-8.5883e-08
-8.70661e-08
-8.82227e-08
-8.9353e-08
-9.04578e-08
-9.15372e-08
-9.25918e-08
-9.3622e-08
-9.46282e-08
-9.56109e-08
-9.65706e-08
-9.75076e-08
-9.84225e-08
-9.93155e-08
-1.00187e-07
-1.01038e-07
-1.01869e-07
-1.0268e-07
-1.03471e-07
-1.04242e-07
-1.04996e-07
-1.0573e-07
-1.06447e-07
-1.07146e-07
-1.07828e-07
-1.08493e-07
-1.09142e-07
-1.09774e-07
-1.1039e-07
-1.10991e-07
-1.11576e-07
-1.12146e-07
-1.12702e-07
-1.13242e-07
-1.13769e-07
-1.14281e-07
-1.14778e-07
-1.15262e-07
-1.15733e-07
-1.16189e-07
-1.16632e-07
-1.17061e-07
-1.17477e-07
-1.1788e-07
-1.18269e-07
-1.18644e-07
-1.19006e-07
-1.19355e-07
-1.19688e-07
-1.20012e-07
-1.20313e-07
-1.20618e-07
-1.20876e-07
-1.21177e-07
-1.21363e-07
-1.21707e-07
-1.21746e-07
-1.22239e-07
-1.21981e-07
-1.22825e-07
-1.22006e-07
-1.23517e-07
-1.2177e-07
-1.24345e-07
-1.21266e-07
-1.25275e-07
-1.20551e-07
-1.26214e-07
-1.19733e-07
-1.27034e-07
-1.18933e-07
-1.27611e-07
-1.18245e-07
-1.27888e-07
-1.17638e-07
-1.27991e-07
-1.16861e-07
-1.28254e-07
-1.15531e-07
-1.29041e-07
-1.13331e-07
-1.30611e-07
-1.10101e-07
-1.33032e-07
-1.06054e-07
-1.35884e-07
-1.02144e-07
-1.38135e-07
-1.00299e-07
-1.3764e-07
-1.05434e-07
-1.27854e-07
-1.30345e-07
-9.15292e-08
-2.01614e-07
3.46117e-08
-3.85703e-07
9.39351e-07
-1.08027e-07
-1.08027e-07
-0.125294
0.125294
0.0249366
0.00835879
0.00427879
0.00266232
0.00183455
0.00134717
0.0010347
0.000822507
0.000672182
0.000562034
0.000478985
0.000414776
0.000364027
0.000323137
0.000289599
0.000261589
0.000237784
0.000217294
0.000199547
0.000184095
0.000170456
0.00015813
0.00014676
0.000136255
0.000126708
0.000118157
0.000110364
0.000102832
9.50434e-05
8.67553e-05
7.81282e-05
6.96095e-05
6.16616e-05
5.45262e-05
4.81651e-05
4.23822e-05
3.70164e-05
3.20738e-05
2.77244e-05
2.41863e-05
2.15795e-05
1.98351e-05
1.87012e-05
1.78293e-05
1.68886e-05
1.56567e-05
1.40576e-05
1.21482e-05
1.00709e-05
7.99814e-06
6.08458e-06
4.4387e-06
3.11313e-06
2.11015e-06
1.39585e-06
9.16663e-07
6.13772e-07
4.33262e-07
3.31464e-07
2.76436e-07
2.46897e-07
2.29946e-07
2.18543e-07
2.09321e-07
2.00963e-07
1.93133e-07
1.85865e-07
1.79259e-07
1.73363e-07
1.68154e-07
1.63552e-07
1.59454e-07
1.55754e-07
1.52353e-07
1.49171e-07
1.46146e-07
1.43232e-07
1.40398e-07
1.37619e-07
1.34881e-07
1.32173e-07
1.29488e-07
1.26821e-07
1.24167e-07
1.21525e-07
1.18891e-07
1.16263e-07
1.1364e-07
1.1102e-07
1.08402e-07
1.05785e-07
1.03169e-07
1.00551e-07
9.79337e-08
9.53148e-08
9.26947e-08
9.00733e-08
8.74507e-08
8.48267e-08
8.22016e-08
7.95754e-08
7.69483e-08
7.43202e-08
7.16915e-08
6.9062e-08
6.6432e-08
6.38014e-08
6.11702e-08
5.85384e-08
5.59061e-08
5.32731e-08
5.06395e-08
4.80049e-08
4.53696e-08
4.27332e-08
4.00957e-08
3.74569e-08
3.48167e-08
3.21749e-08
2.95314e-08
2.68859e-08
2.42385e-08
2.15886e-08
1.89364e-08
1.62815e-08
1.36238e-08
1.0963e-08
8.29905e-09
5.63157e-09
2.96055e-09
2.85563e-10
-2.39338e-09
-5.07671e-09
-7.76446e-09
-1.0457e-08
-1.31545e-08
-1.58572e-08
-1.85653e-08
-2.12792e-08
-2.39988e-08
-2.67248e-08
-2.94571e-08
-3.21961e-08
-3.4942e-08
-3.76953e-08
-4.04559e-08
-4.32243e-08
-4.60007e-08
-4.87854e-08
-5.15786e-08
-5.43808e-08
-5.71921e-08
-6.00128e-08
-6.28432e-08
-6.56837e-08
-6.85343e-08
-7.13957e-08
-7.42678e-08
-7.71511e-08
-8.00458e-08
-8.29523e-08
-8.58707e-08
-8.88014e-08
-9.17446e-08
-9.47008e-08
-9.76699e-08
-1.00653e-07
-1.03649e-07
-1.06659e-07
-1.09683e-07
-1.12721e-07
-1.15774e-07
-1.18842e-07
-1.21925e-07
-1.25023e-07
-1.28136e-07
-1.31265e-07
-1.3441e-07
-1.37571e-07
-1.40748e-07
-1.4394e-07
-1.47149e-07
-1.50375e-07
-1.53617e-07
-1.56875e-07
-1.6015e-07
-1.63442e-07
-1.6675e-07
-1.70075e-07
-1.73417e-07
-1.76775e-07
-1.80149e-07
-1.8354e-07
-1.86947e-07
-1.9037e-07
-1.93809e-07
-1.97264e-07
-2.00735e-07
-2.04221e-07
-2.07722e-07
-2.11238e-07
-2.14768e-07
-2.18313e-07
-2.21872e-07
-2.25444e-07
-2.29029e-07
-2.32627e-07
-2.36237e-07
-2.39859e-07
-2.43492e-07
-2.47137e-07
-2.50791e-07
-2.54455e-07
-2.58128e-07
-2.6181e-07
-2.65499e-07
-2.69196e-07
-2.72899e-07
-2.76608e-07
-2.80323e-07
-2.84041e-07
-2.87763e-07
-2.91488e-07
-2.95216e-07
-2.98944e-07
-3.02673e-07
-3.06401e-07
-3.10129e-07
-3.13854e-07
-3.17576e-07
-3.21294e-07
-3.25008e-07
-3.28716e-07
-3.32417e-07
-3.36111e-07
-3.39797e-07
-3.43473e-07
-3.47139e-07
-3.50794e-07
-3.54437e-07
-3.58067e-07
-3.61683e-07
-3.65284e-07
-3.68869e-07
-3.72438e-07
-3.7599e-07
-3.79523e-07
-3.83036e-07
-3.8653e-07
-3.90003e-07
-3.93454e-07
-3.96882e-07
-4.00288e-07
-4.03669e-07
-4.07025e-07
-4.10355e-07
-4.1366e-07
-4.16937e-07
-4.20187e-07
-4.23408e-07
-4.266e-07
-4.29763e-07
-4.32896e-07
-4.35998e-07
-4.39069e-07
-4.42108e-07
-4.45115e-07
-4.4809e-07
-4.51032e-07
-4.5394e-07
-4.56815e-07
-4.59656e-07
-4.62463e-07
-4.65236e-07
-4.67973e-07
-4.70676e-07
-4.73344e-07
-4.75977e-07
-4.78574e-07
-4.81136e-07
-4.83663e-07
-4.86155e-07
-4.88611e-07
-4.91032e-07
-4.93417e-07
-4.95768e-07
-4.98083e-07
-5.00364e-07
-5.0261e-07
-5.04821e-07
-5.06999e-07
-5.09142e-07
-5.11251e-07
-5.13327e-07
-5.1537e-07
-5.1738e-07
-5.19357e-07
-5.21302e-07
-5.23216e-07
-5.25098e-07
-5.26949e-07
-5.28769e-07
-5.30559e-07
-5.32319e-07
-5.34049e-07
-5.35751e-07
-5.37424e-07
-5.3907e-07
-5.40687e-07
-5.42277e-07
-5.43841e-07
-5.45378e-07
-5.4689e-07
-5.48376e-07
-5.49837e-07
-5.51274e-07
-5.52687e-07
-5.54076e-07
-5.55442e-07
-5.56785e-07
-5.58105e-07
-5.59404e-07
-5.60681e-07
-5.61937e-07
-5.63172e-07
-5.64387e-07
-5.65581e-07
-5.66755e-07
-5.6791e-07
-5.69046e-07
-5.70162e-07
-5.7126e-07
-5.72339e-07
-5.734e-07
-5.74443e-07
-5.75468e-07
-5.76475e-07
-5.77464e-07
-5.78436e-07
-5.79391e-07
-5.80328e-07
-5.81247e-07
-5.8215e-07
-5.83035e-07
-5.83902e-07
-5.84754e-07
-5.85585e-07
-5.86406e-07
-5.87193e-07
-5.87996e-07
-5.88716e-07
-5.89537e-07
-5.90129e-07
-5.91066e-07
-5.91377e-07
-5.92653e-07
-5.92363e-07
-5.94409e-07
-5.9296e-07
-5.96456e-07
-5.93059e-07
-5.98858e-07
-5.92647e-07
-6.01553e-07
-5.91852e-07
-6.04342e-07
-5.90907e-07
-6.06957e-07
-5.90078e-07
-6.09136e-07
-5.89574e-07
-6.10756e-07
-5.89343e-07
-6.12084e-07
-5.88862e-07
-6.13839e-07
-5.87305e-07
-6.1683e-07
-5.83986e-07
-6.21617e-07
-5.78577e-07
-6.28351e-07
-5.71534e-07
-6.3617e-07
-5.64868e-07
-6.42928e-07
-5.62668e-07
-6.44145e-07
-5.75338e-07
-6.26063e-07
-6.30046e-07
-5.52336e-07
-7.8272e-07
-2.90568e-07
-1.1679e-06
1.57673e-06
-5.88982e-07
-5.88982e-07
-0.146488
0.146488
0.0383112
0.0142349
0.00745688
0.00467363
0.00323144
0.00237743
0.00182797
0.00145394
0.00118849
0.000993727
0.000846746
0.000733041
0.000643145
0.000570701
0.000511275
0.000461643
0.000419479
0.000383209
0.000351806
0.000324448
0.000300276
0.000278423
0.000258289
0.000239716
0.00022284
0.000207676
0.000193779
0.000180291
0.000166358
0.000151607
0.000136344
0.000121333
0.000107345
9.47723e-05
8.35506e-05
7.33665e-05
6.39748e-05
5.54023e-05
4.79289e-05
4.18905e-05
3.74431e-05
3.44263e-05
3.23876e-05
3.0734e-05
2.89221e-05
2.66022e-05
2.36738e-05
2.02539e-05
1.65952e-05
1.29909e-05
9.69724e-06
6.88819e-06
4.64226e-06
2.95399e-06
1.75896e-06
9.61977e-07
4.61201e-07
1.64615e-07
-1.51376e-09
-9.06547e-08
-1.38147e-07
-1.65242e-07
-1.83432e-07
-1.98144e-07
-2.11458e-07
-2.23872e-07
-2.35304e-07
-2.45586e-07
-2.54642e-07
-2.62523e-07
-2.69367e-07
-2.75353e-07
-2.80666e-07
-2.85471e-07
-2.89905e-07
-2.94071e-07
-2.98047e-07
-3.01889e-07
-3.05634e-07
-3.09309e-07
-3.12931e-07
-3.16513e-07
-3.20064e-07
-3.23591e-07
-3.27098e-07
-3.30591e-07
-3.34073e-07
-3.37546e-07
-3.41014e-07
-3.44478e-07
-3.4794e-07
-3.51402e-07
-3.54865e-07
-3.58328e-07
-3.61794e-07
-3.65261e-07
-3.68731e-07
-3.72202e-07
-3.75675e-07
-3.7915e-07
-3.82627e-07
-3.86105e-07
-3.89584e-07
-3.93063e-07
-3.96544e-07
-4.00024e-07
-4.03506e-07
-4.06987e-07
-4.10469e-07
-4.13951e-07
-4.17433e-07
-4.20915e-07
-4.24398e-07
-4.27881e-07
-4.31365e-07
-4.34849e-07
-4.38335e-07
-4.41821e-07
-4.45309e-07
-4.48798e-07
-4.52288e-07
-4.55781e-07
-4.59275e-07
-4.62772e-07
-4.66271e-07
-4.69773e-07
-4.73278e-07
-4.76785e-07
-4.80297e-07
-4.83811e-07
-4.8733e-07
-4.90853e-07
-4.9438e-07
-4.97911e-07
-5.01448e-07
-5.04989e-07
-5.08535e-07
-5.12087e-07
-5.15645e-07
-5.19209e-07
-5.2278e-07
-5.26356e-07
-5.2994e-07
-5.33531e-07
-5.3713e-07
-5.40735e-07
-5.4435e-07
-5.47972e-07
-5.51603e-07
-5.55242e-07
-5.58892e-07
-5.6255e-07
-5.66218e-07
-5.69897e-07
-5.73585e-07
-5.77285e-07
-5.80995e-07
-5.84717e-07
-5.88451e-07
-5.92196e-07
-5.95954e-07
-5.99724e-07
-6.03507e-07
-6.07303e-07
-6.11113e-07
-6.14936e-07
-6.18774e-07
-6.22625e-07
-6.26492e-07
-6.30373e-07
-6.34269e-07
-6.38181e-07
-6.42108e-07
-6.46051e-07
-6.50011e-07
-6.53986e-07
-6.57978e-07
-6.61987e-07
-6.66013e-07
-6.70055e-07
-6.74115e-07
-6.78192e-07
-6.82287e-07
-6.86399e-07
-6.90529e-07
-6.94677e-07
-6.98842e-07
-7.03026e-07
-7.07227e-07
-7.11446e-07
-7.15682e-07
-7.19937e-07
-7.24209e-07
-7.28499e-07
-7.32806e-07
-7.37131e-07
-7.41473e-07
-7.45832e-07
-7.50208e-07
-7.546e-07
-7.59009e-07
-7.63434e-07
-7.67874e-07
-7.7233e-07
-7.76802e-07
-7.81287e-07
-7.85787e-07
-7.90301e-07
-7.94829e-07
-7.99369e-07
-8.03922e-07
-8.08486e-07
-8.13062e-07
-8.17648e-07
-8.22245e-07
-8.26851e-07
-8.31466e-07
-8.36089e-07
-8.40719e-07
-8.45356e-07
-8.5e-07
-8.54648e-07
-8.59301e-07
-8.63957e-07
-8.68616e-07
-8.73277e-07
-8.77939e-07
-8.82601e-07
-8.87263e-07
-8.91923e-07
-8.96581e-07
-9.01235e-07
-9.05885e-07
-9.10529e-07
-9.15167e-07
-9.19798e-07
-9.24421e-07
-9.29034e-07
-9.33638e-07
-9.3823e-07
-9.42811e-07
-9.47378e-07
-9.51931e-07
-9.5647e-07
-9.60992e-07
-9.65497e-07
-9.69985e-07
-9.74454e-07
-9.78904e-07
-9.83332e-07
-9.8774e-07
-9.92125e-07
-9.96486e-07
-1.00082e-06
-1.00514e-06
-1.00942e-06
-1.01369e-06
-1.01792e-06
-1.02212e-06
-1.0263e-06
-1.03045e-06
-1.03457e-06
-1.03865e-06
-1.04271e-06
-1.04673e-06
-1.05072e-06
-1.05468e-06
-1.05861e-06
-1.0625e-06
-1.06635e-06
-1.07017e-06
-1.07396e-06
-1.07771e-06
-1.08142e-06
-1.0851e-06
-1.08874e-06
-1.09235e-06
-1.09592e-06
-1.09945e-06
-1.10294e-06
-1.1064e-06
-1.10982e-06
-1.1132e-06
-1.11654e-06
-1.11985e-06
-1.12312e-06
-1.12635e-06
-1.12954e-06
-1.1327e-06
-1.13582e-06
-1.1389e-06
-1.14195e-06
-1.14496e-06
-1.14793e-06
-1.15087e-06
-1.15377e-06
-1.15664e-06
-1.15947e-06
-1.16227e-06
-1.16503e-06
-1.16775e-06
-1.17045e-06
-1.17311e-06
-1.17574e-06
-1.17833e-06
-1.18089e-06
-1.18342e-06
-1.18592e-06
-1.18839e-06
-1.19083e-06
-1.19324e-06
-1.19561e-06
-1.19796e-06
-1.20028e-06
-1.20257e-06
-1.20484e-06
-1.20707e-06
-1.20928e-06
-1.21147e-06
-1.21362e-06
-1.21575e-06
-1.21786e-06
-1.21994e-06
-1.222e-06
-1.22403e-06
-1.22603e-06
-1.22802e-06
-1.22998e-06
-1.23192e-06
-1.23383e-06
-1.23573e-06
-1.2376e-06
-1.23945e-06
-1.24127e-06
-1.24308e-06
-1.24487e-06
-1.24663e-06
-1.24837e-06
-1.2501e-06
-1.2518e-06
-1.25348e-06
-1.25514e-06
-1.25679e-06
-1.25841e-06
-1.26001e-06
-1.26159e-06
-1.26315e-06
-1.2647e-06
-1.2662e-06
-1.26774e-06
-1.26915e-06