# vtk DataFile Version 2.0
FlowField
ASCII
DATASET STRUCTURED_GRID
DIMENSIONS 400 1 200
POINTS 80000 float
0 0 0
0.08 0 0
0.16 0 0
0.24 0 0
0.32 0 0
0.4 0 0
0.48 0 0
0.56 0 0
0.64 0 0
0.72 0 0
0.8 0 0
0.88 0 0
0.96 0 0
1.04 0 0
1.12 0 0
1.2 0 0
1.28 0 0
1.36 0 0
1.44 0 0
1.52 0 0
1.6 0 0
1.68 0 0
1.76 0 0
1.84 0 0
1.92 0 0
2 0 0
2.08 0 0
2.16 0 0
2.24 0 0
2.32 0 0
2.4 0 0
2.48 0 0
2.56 0 0
2.64 0 0
2.72 0 0
2.8 0 0
2.88 0 0
2.96 0 0
3.04 0 0
3.12 0 0
3.2 0 0
3.28 0 0
3.36 0 0
3.44 0 0
3.52 0 0
3.6 0 0
3.68 0 0
3.76 0 0
3.84 0 0
3.92 0 0
4 0 0
4.08 0 0
4.16 0 0
4.24 0 0
4.32 0 0
4.4 0 0
4.48 0 0
4.56 0 0
4.64 0 0
4.72 0 0
4.8 0 0
4.88 0 0
4.96 0 0
5.04 0 0
5.12 0 0
5.2 0 0
5.28 0 0
5.36 0 0
5.44 0 0
5.52 0 0
5.6 0 0
5.68 0 0
5.76 0 0
5.84 0 0
5.92 0 0
6 0 0
6.08 0 0
6.16 0 0
6.24 0 0
6.32 0 0
6.4 0 0
6.48 0 0
6.56 0 0
6.64 0 0
6.72 0 0
6.8 0 0
6.88 0 0
6.96 0 0
7.04 0 0
7.12 0 0
7.2 0 0
7.28 0 0
7.36 0 0
7.44 0 0
7.52 0 0
7.6 0 0
7.68 0 0
7.76 0 0
7.84 0 0
7.92 0 0
8 0 0
8.08 0 0
8.16 0 0
8.24 0 0
8.32 0 0
8.4 0 0
8.48 0 0
8.56 0 0
8.64 0 0
8.72 0 0
8.8 0 0
8.88 0 0
8.96 0 0
9.04 0 0
9.12 0 0
9.2 0 0
9.28 0 0
9.36 0 0
9.44 0 0
9.52 0 0
9.6 0 0
9.68 0 0
9.76 0 0
9.84 0 0
9.92 0 0
10 0 0
10.08 0 0
10.16 0 0
10.24 0 0
10.32 0 0
10.4 0 0
10.48 0 0
10.56 0 0
10.64 0 0
10.72 0 0
10.8 0 0
10.88 0 0
10.96 0 0
11.04 0 0
11.12 0 0
11.2 0 0
11.28 0 0
11.36 0 0
11.44 0 0
11.52 0 0
11.6 0 0
11.68 0 0
11.76 0 0
11.84 0 0
11.92 0 0
12 0 0
12.08 0 0
12.16 0 0
12.24 0 0
12.32 0 0
12.4 0 0
12.48 0 0
12.56 0 0
12.64 0 0
12.72 0 0
12.8 0 0
12.88 0 0
12.96 0 0
13.04 0 0
13.12 0 0
13.2 0 0
13.28 0 0
13.36 0 0
13.44 0 0
13.52 0 0
13.6 0 0
13.68 0 0
13.76 0 0
13.84 0 0
13.92 0 0
14 0 0
14.08 0 0
14.16 0 0
14.24 0 0
14.32 0 0
14.4 0 0
14.48 0 0
14.56 0 0
14.64 0 0
14.72 0 0
14.8 0 0
14.88 0 0
14.96 0 0
15.04 0 0
15.12 0 0
15.2 0 0
15.28 0 0
15.36 0 0
15.44 0 0
15.52 0 0
15.6 0 0
15.68 0 0
15.76 0 0
15.84 0 0
15.92 0 0
16 0 0
16.08 0 0
16.16 0 0
16.24 0 0
16.32 0 0
16.4 0 0
16.48 0 0
16.56 0 0
16.64 0 0
16.72 0 0
16.8 0 0
16.88 0 0
16.96 0 0
17.04 0 0
17.12 0 0
17.2 0 0
17.28 0 0
17.36 0 0
17.44 0 0
17.52 0 0
17.6 0 0
17.68 0 0
17.76 0 0
17.84 0 0
17.92 0 0
18 0 0
18.08 0 0
18.16 0 0
18.24 0 0
18.32 0 0
18.4 0 0
18.48 0 0
18.56 0 0
18.64 0 0
18.72 0 0
18.8 0 0
18.88 0 0
18.96 0 0
19.04 0 0
19.12 0 0
19.2 0 0
19.28 0 0
19.36 0 0
19.44 0 0
19.52 0 0
19.6 0 0
19.68 0 0
19.76 0 0
19.84 0 0
19.92 0 0
20 0 0
20.08 0 0
20.16 0 0
20.24 0 0
20.32 0 0
20.4 0 0
20.48 0 0
20.56 0 0
20.64 0 0
20.72 0 0
20.8 0 0
20.88 0 0
20.96 0 0
21.04 0 0
21.12 0 0
21.2 0 0
21.28 0 0
21.36 0 0
21.44 0 0
21.52 0 0
21.6 0 0
21.68 0 0
21.76 0 0
21.84 0 0
21.92 0 0
22 0 0
22.08 0 0
22.16 0 0
22.24 0 0
22.32 0 0
22.4 0 0
22.48 0 0
22.56 0 0
22.64 0 0
22.72 0 0
22.8 0 0
22.88 0 0
22.96 0 0
23.04 0 0
23.12 0 0
23.2 0 0
23.28 0 0
23.36 0 0
23.44 0 0
23.52 0 0
23.6 0 0
23.68 0 0
23.76 0 0
23.84 0 0
23.92 0 0
24 0 0
24.08 0 0
24.16 0 0
24.24 0 0
24.32 0 0
24.4 0 0
24.48 0 0
24.56 0 0
24.64 0 0
24.72 0 0
24.8 0 0
24.88 0 0
24.96 0 0
25.04 0 0
25.12 0 0
25.2 0 0
25.28 0 0
25.36 0 0
25.44 0 0
25.52 0 0
25.6 0 0
25.68 0 0
25.76 0 0
25.84 0 0
25.92 0 0
26 0 0
26.08 0 0
26.16 0 0
26.24 0 0
26.32 0 0
26.4 0 0
26.48 0 0
26.56 0 0
26.64 0 0
26.72 0 0
26.8 0 0
26.88 0 0
26.96 0 0
27.04 0 0
27.12 0 0
27.2 0 0
27.28 0 0
27.36 0 0
27.44 0 0
27.52 0 0
27.6 0 0
27.68 0 0
27.76 0 0
27.84 0 0
27.92 0 0
28 0 0
28.08 0 0
28.16 0 0
28.24 0 0
28.32 0 0
28.4 0 0
28.48 0 0
28.56 0 0
28.64 0 0
28.72 0 0
28.8 0 0
28.88 0 0
28.96 0 0
29.04 0 0
29.12 0 0
29.2 0 0
29.28 0 0
29.36 0 0
29.44 0 0
29.52 0 0
29.6 0 0
29.68 0 0
29.76 0 0
29.84 0 0
29.92 0 0
30 0 0
30.08 0 0
30.16 0 0
30.24 0 0
30.32 0 0
30.4 0 0
30.48 0 0
30.56 0 0
30.64 0 0
30.72 0 0
30.8 0 0
30.88 0 0
30.96 0 0
31.04 0 0
31.12 0 0
31.2 0 0
31.28 0 0
31.36 0 0
31.44 0 0
31.52 0 0
31.6 0 0
31.68 0 0
31.76 0 0
31.84 0 0
31.92 0 0
0 0.005 0
0.08 0.005 0
0.16 0.005 0
0.24 0.005 0
0.32 0.005 0
0.4 0.005 0
0.48 0.005 0
0.56 0.005 0
0.64 0.005 0
0.72 0.005 0
0.8 0.005 0
0.88 0.005 0
0.96 0.005 0
1.04 0.005 0
1.12 0.005 0
1.2 0.005 0
1.28 0.005 0
1.36 0.005 0
1.44 0.005 0
1.52 0.005 0
1.6 0.005 0
1.68 0.005 0
1.76 0.005 0
1.84 0.005 0
1.92 0.005 0
2 0.005 0
2.08 0.005 0
2.16 0.005 0
2.24 0.005 0
2.32 0.005 0
2.4 0.005 0
2.48 0.005 0
2.56 0.005 0
2.64 0.005 0
2.72 0.005 0
2.8 0.005 0
2.88 0.005 0
2.96 0.005 0
3.04 0.005 0
3.12 0.005 0
3.2 0.005 0
3.28 0.005 0
3.36 0.005 0
3.44 0.005 0
3.52 0.005 0
3.6 0.005 0
3.68 0.005 0
3.76 0.005 0
3.84 0.005 0
3.92 0.005 0
4 0.005 0
4.08 0.005 0
4.16 0.005 0
4.24 0.005 0
4.32 0.005 0
4.4 0.005 0
4.48 0.005 0
4.56 0.005 0
4.64 0.005 0
4.72 0.005 0
4.8 0.005 0
4.88 0.005 0
4.96 0.005 0
5.04 0.005 0
5.12 0.005 0
5.2 0.005 0
5.28 0.005 0
5.36 0.005 0
5.44 0.005 0
5.52 0.005 0
5.6 0.005 0
5.68 0.005 0
5.76 0.005 0
5.84 0.005 0
5.92 0.005 0
6 0.005 0
6.08 0.005 0
6.16 0.005 0
6.24 0.005 0
6.32 0.005 0
6.4 0.005 0
6.48 0.005 0
6.56 0.005 0
6.64 0.005 0
6.72 0.005 0
6.8 0.005 0
6.88 0.005 0
6.96 0.005 0
7.04 0.005 0
7.12 0.005 0
7.2 0.005 0
7.28 0.005 0
7.36 0.005 0
7.44 0.005 0
7.52 0.005 0
7.6 0.005 0
7.68 0.005 0
7.76 0.005 0
7.84 0.005 0
7.92 0.005 0
8 0.005 0
8.08 0.005 0
8.16 0.005 0
8.24 0.005 0
8.32 0.005 0
8.4 0.005 0
8.48 0.005 0
8.56 0.005 0
8.64 0.005 0
8.72 0.005 0
8.8 0.005 0
8.88 0.005 0
8.96 0.005 0
9.04 0.005 0
9.12 0.005 0
9.2 0.005 0
9.28 0.005 0
9.36 0.005 0
9.44 0.005 0
9.52 0.005 0
9.6 0.005 0
9.68 0.005 0
9.76 0.005 0
9.84 0.005 0
9.92 0.005 0
10 0.005 0
10.08 0.005 0
10.16 0.005 0
10.24 0.005 0
10.32 0.005 0
10.4 0.005 0
10.48 0.005 0
10.56 0.005 0
10.64 0.005 0
10.72 0.005 0
10.8 0.005 0
10.88 0.005 0
10.96 0.005 0
11.04 0.005 0
11.12 0.005 0
11.2 0.005 0
11.28 0.005 0
11.36 0.005 0
11.44 0.005 0
11.52 0.005 0
11.6 0.005 0
11.68 0.005 0
11.76 0.005 0
11.84 0.005 0
11.92 0.005 0
12 0.005 0
12.08 0.005 0
12.16 0.005 0
12.24 0.005 0
12.32 0.005 0
12.4 0.005 0
12.48 0.005 0
12.56 0.005 0
12.64 0.005 0
12.72 0.005 0
12.8 0.005 0
12.88 0.005 0
12.96 0.005 0
13.04 0.005 0
13.12 0.005 0
13.2 0.005 0
13.28 0.005 0
13.36 0.005 0
13.44 0.005 0
13.52 0.005 0
13.6 0.005 0
13.68 0.005 0
13.76 0.005 0
13.84 0.005 0
13.92 0.005 0
14 0.005 0
14.08 0.005 0
14.16 0.005 0
14.24 0.005 0
14.32 0.005 0
14.4 0.005 0
14.48 0.005 0
14.56 0.005 0
14.64 0.005 0
14.72 0.005 0
14.8 0.005 0
14.88 0.005 0
14.96 0.005 0
15.04 0.005 0
15.12 0.005 0
15.2 0.005 0
15.28 0.005 0
15.36 0.005 0
15.44 0.005 0
15.52 0.005 0
15.6 0.005 0
15.68 0.005 0
15.76 0.005 0
15.84 0.005 0
15.92 0.005 0
16 0.005 0
16.08 0.005 0
16.16 0.005 0
16.24 0.005 0
16.32 0.005 0
16.4 0.005 0
16.48 0.005 0
16.56 0.005 0
16.64 0.005 0
16.72 0.005 0
16.8 0.005 0
16.88 0.005 0
16.96 0.005 0
17.04 0.005 0
17.12 0.005 0
17.2 0.005 0
17.28 0.005 0
17.36 0.005 0
17.44 0.005 0
17.52 0.005 0
17.6 0.005 0
17.68 0.005 0
17.76 0.005 0
17.84 0.005 0
17.92 0.005 0
18 0.005 0
18.08 0.005 0
18.16 0.005 0
18.24 0.005 0
18.32 0.005 0
18.4 0.005 0
18.48 0.005 0
18.56 0.005 0
18.64 0.005 0
18.72 0.005 0
18.8 0.005 0
18.88 0.005 0
18.96 0.005 0
19.04 0.005 0
19.12 0.005 0
19.2 0.005 0
19.28 0.005 0
19.36 0.005 0
19.44 0.005 0
19.52 0.005 0
19.6 0.005 0
19.68 0.005 0
19.76 0.005 0
19.84 0.005 0
19.92 0.005 0
20 0.005 0
20.08 0.005 0
20.16 0.005 0
20.24 0.005 0
20.32 0.005 0
20.4 0.005 0
20.48 0.005 0
20.56 0.005 0
20.64 0.005 0
20.72 0.005 0
20.8 0.005 0
20.88 0.005 0
20.96 0.005 0
21.04 0.005 0
21.12 0.005 0
21.2 0.005 0
21.28 0.005 0
21.36 0.005 0
21.44 0.005 0
21.52 0.005 0
21.6 0.005 0
21.68 0.005 0
21.76 0.005 0
21.84 0.005 0
21.92 0.005 0
22 0.005 0
22.08 0.005 0
22.16 0.005 0
22.24 0.005 0
22.32 0.005 0
22.4 0.005 0
22.48 0.005 0
22.56 0.005 0
22.64 0.005 0
22.72 0.005 0
22.8 0.005 0
22.88 0.005 0
22.96 0.005 0
23.04 0.005 0
23.12 0.005 0
23.2 0.005 0
23.28 0.005 0
23.36 0.005 0
23.44 0.005 0
23.52 0.005 0
23.6 0.005 0
23.68 0.005 0
23.76 0.005 0
23.84 0.005 0
23.92 0.005 0
24 0.005 0
24.08 0.005 0
24.16 0.005 0
24.24 0.005 0
24.32 0.005 0
24.4 0.005 0
24.48 0.005 0
24.56 0.005 0
24.64 0.005 0
24.72 0.005 0
24.8 0.005 0
24.88 0.005 0
24.96 0.005 0
25.04 0.005 0
25.12 0.005 0
25.2 0.005 0
25.28 0.005 0
25.36 0.005 0
25.44 0.005 0
25.52 0.005 0
25.6 0.005 0
25.68 0.005 0
25.76 0.005 0
25.84 0.005 0
25.92 0.005 0
26 0.005 0
26.08 0.005 0
26.16 0.005 0
26.24 0.005 0
26.32 0.005 0
26.4 0.005 0
26.48 0.005 0
26.56 0.005 0
26.64 0.005 0
26.72 0.005 0
26.8 0.005 0
26.88 0.005 0
26.96 0.005 0
27.04 0.005 0
27.12 0.005 0
27.2 0.005 0
27.28 0.005 0
27.36 0.005 0
27.44 0.005 0
27.52 0.005 0
27.6 0.005 0
27.68 0.005 0
27.76 0.005 0
27.84 0.005 0
27.92 0.005 0
28 0.005 0
28.08 0.005 0
28.16 0.005 0
28.24 0.005 0
28.32 0.005 0
28.4 0.005 0
28.48 0.005 0
28.56 0.005 0
28.64 0.005 0
28.72 0.005 0
28.8 0.005 0
28.88 0.005 0
28.96 0.005 0
29.04 0.005 0
29.12 0.005 0
29.2 0.005 0
29.28 0.005 0
29.36 0.005 0
29.44 0.005 0
29.52 0.005 0
29.6 0.005 0
29.68 0.005 0
29.76 0.005 0
29.84 0.005 0
29.92 0.005 0
30 0.005 0
30.08 0.005 0
30.16 0.005 0
30.24 0.005 0
30.32 0.005 0
30.4 0.005 0
30.48 0.005 0
30.56 0.005 0
30.64 0.005 0
30.72 0.005 0
30.8 0.005 0
30.88 0.005 0
30.96 0.005 0
31.04 0.005 0
31.12 0.005 0
31.2 0.005 0
31.28 0.005 0
31.36 0.005 0
31.44 0.005 0
31.52 0.005 0
31.6 0.005 0
31.68 0.005 0
31.76 0.005 0
31.84 0.005 0
31.92 0.005 0
0 0.01 0
0.08 0.01 0
0.16 0.01 0
0.24 0.01 0
0.32 0.01 0
0.4 0.01 0
0.48 0.01 0
0.56 0.01 0
0.64 0.01 0
0.72 0.01 0
0.8 0.01 0
0.88 0.01 0
0.96 0.01 0
1.04 0.01 0
1.12 0.01 0
1.2 0.01 0
1.28 0.01 0
1.36 0.01 0
1.44 0.01 0
1.52 0.01 0
1.6 0.01 0
1.68 0.01 0
1.76 0.01 0
1.84 0.01 0
1.92 0.01 0
2 0.01 0
2.08 0.01 0
2.16 0.01 0
2.24 0.01 0
2.32 0.01 0
2.4 0.01 0
2.48 0.01 0
2.56 0.01 0
2.64 0.01 0
2.72 0.01 0
2.8 0.01 0
2.88 0.01 0
2.96 0.01 0
3.04 0.01 0
3.12 0.01 0
3.2 0.01 0
3.28 0.01 0
3.36 0.01 0
3.44 0.01 0
3.52 0.01 0
3.6 0.01 0
3.68 0.01 0
3.76 0.01 0
3.84 0.01 0
3.92 0.01 0
4 0.01 0
4.08 0.01 0
4.16 0.01 0
4.24 0.01 0
4.32 0.01 0
4.4 0.01 0
4.48 0.01 0
4.56 0.01 0
4.64 0.01 0
4.72 0.01 0
4.8 0.01 0
4.88 0.01 0
4.96 0.01 0
5.04 0.01 0
5.12 0.01 0
[...]
POINT_DATA 80000

SCALARS u float 1
LOOKUP_TABLE default
0
-0.13167
-0.0682823
-0.0523146
-0.0444438
-0.039607
-0.0362994
-0.0338849
-0.0320392
-0.0305811
-0.0294034
-0.0284335
-0.0276163
-0.0269145
-0.0263134
-0.0258155
-0.0254257
-0.0251379
-0.024933
-0.0247855
-0.0246731
-0.024582
-0.0245068
-0.0244467
-0.0244024
-0.0243731
-0.0243567
-0.0243501
-0.0243498
-0.024353
-0.0243577
-0.0243626
-0.0243671
-0.0243709
-0.0243742
-0.0243771
-0.0243796
-0.0243819
-0.024384
-0.0243861
-0.0243881
-0.02439
-0.024392
-0.0243938
-0.0243957
-0.0243975
-0.0243992
-0.0244009
-0.0244025
-0.024404
-0.0244055
-0.0244069
-0.0244082
-0.0244095
-0.0244106
-0.0244116
-0.0244126
-0.0244134
-0.0244141
-0.0244147
-0.0244152
-0.0244156
-0.0244158
-0.0244158
-0.0244158
-0.0244155
-0.0244152
-0.0244146
-0.0244139
-0.024413
-0.0244119
-0.0244107
-0.0244093
-0.0244076
-0.0244058
-0.0244038
-0.0244015
-0.0243991
-0.0243964
-0.0243935
-0.0243904
-0.024387
-0.0243835
-0.0243797
-0.0243756
-0.0243714
-0.0243669
-0.0243621
-0.0243571
-0.0243519
-0.0243465
-0.0243408
-0.0243348
-0.0243287
-0.0243223
-0.0243157
-0.0243088
-0.0243018
-0.0242945
-0.024287
-0.0242793
-0.0242714
-0.0242634
-0.0242551
-0.0242467
-0.0242381
-0.0242293
-0.0242204
-0.0242114
-0.0242023
-0.024193
-0.0241836
-0.0241742
-0.0241646
-0.024155
-0.0241454
-0.0241357
-0.024126
-0.0241163
-0.0241066
-0.0240969
-0.0240872
-0.0240776
-0.024068
-0.0240585
-0.0240491
-0.0240398
-0.0240307
-0.0240216
-0.0240127
-0.024004
-0.0239954
-0.023987
-0.0239788
-0.0239709
-0.0239631
-0.0239556
-0.0239483
-0.0239412
-0.0239345
-0.023928
-0.0239217
-0.0239158
-0.0239101
-0.0239048
-0.0238998
-0.023895
-0.0238906
-0.0238865
-0.0238827
-0.0238793
-0.0238761
-0.0238733
-0.0238709
-0.0238687
-0.0238669
-0.0238654
-0.0238642
-0.0238634
-0.0238628
-0.0238626
-0.0238627
-0.0238631
-0.0238638
-0.0238648
-0.0238661
-0.0238676
-0.0238695
-0.0238716
-0.0238739
-0.0238765
-0.0238794
-0.0238825
-0.0238858
-0.0238894
-0.0238931
-0.0238971
-0.0239012
-0.0239056
-0.0239101
-0.0239148
-0.0239196
-0.0239246
-0.0239298
-0.0239351
-0.0239405
-0.023946
-0.0239517
-0.0239574
-0.0239632
-0.0239692
-0.0239752
-0.0239813
-0.0239874
-0.0239936
-0.0239999
-0.0240062
-0.0240125
-0.0240189
-0.0240254
-0.0240318
-0.0240383
-0.0240448
-0.0240513
-0.0240578
-0.0240643
-0.0240708
-0.0240773
-0.0240838
-0.0240903
-0.0240968
-0.0241033
-0.0241097
-0.0241162
-0.0241226
-0.024129
-0.0241354
-0.0241417
-0.024148
-0.0241543
-0.0241606
-0.0241668
-0.024173
-0.0241792
-0.0241853
-0.0241914
-0.0241975
-0.0242035
-0.0242096
-0.0242155
-0.0242215
-0.0242274
-0.0242332
-0.0242391
-0.0242449
-0.0242507
-0.0242564
-0.0242621
-0.0242678
-0.0242735
-0.0242791
-0.0242847
-0.0242902
-0.0242957
-0.0243012
-0.0243067
-0.0243121
-0.0243175
-0.0243229
-0.0243283
-0.0243336
-0.0243389
-0.0243442
-0.0243494
-0.0243547
-0.0243599
-0.024365
-0.0243702
-0.0243753
-0.0243804
-0.0243855
-0.0243906
-0.0243956
-0.0244006
-0.0244056
-0.0244106
-0.0244156
-0.0244205
-0.0244254
-0.0244303
-0.0244352
-0.0244401
-0.0244449
-0.0244497
-0.0244545
-0.0244593
-0.0244641
-0.0244689
-0.0244736
-0.0244783
-0.024483
-0.0244877
-0.0244924
-0.0244971
-0.0245017
-0.0245063
-0.024511
-0.0245156
-0.0245201
-0.0245247
-0.0245293
-0.0245338
-0.0245383
-0.0245428
-0.0245473
-0.0245518
-0.0245563
-0.0245608
-0.0245652
-0.0245696
-0.024574
-0.0245785
-0.0245828
-0.0245872
-0.0245916
-0.0245959
-0.0246003
-0.0246046
-0.0246089
-0.0246132
-0.0246175
-0.0246218
-0.024626
-0.0246303
-0.0246345
-0.0246388
-0.024643
-0.0246472
-0.0246514
-0.0246555
-0.0246597
-0.0246638
-0.024668
-0.0246721
-0.0246762
-0.0246803
-0.0246844
-0.0246885
-0.0246926
-0.0246966
-0.0247006
-0.0247047
-0.0247087
-0.0247127
-0.0247167
-0.0247206
-0.0247246
-0.0247286
-0.0247325
-0.0247364
-0.0247403
-0.0247442
-0.0247481
-0.024752
-0.0247559
-0.0247597
-0.0247635
-0.0247674
-0.0247712
-0.024775
-0.0247787
-0.0247825
-0.0247863
-0.02479
-0.0247937
-0.0247974
-0.0248011
-0.0248048
-0.0248085
-0.0248121
-0.0248158
-0.0248194
-0.024823
-0.0248266
-0.0248302
-0.0248338
-0.0248373
-0.0248409
-0.0248444
-0.0248479
-0.0248514
-0.0248549
-0.0248583
-0.0248618
-0.0248652
-0.0248686
-0.024872
-0.0248754
-0.0248788
-0.0248822
-0.0248854
-0.0248889
-0.0248919
-0.0248957
-0.0248982
-0.0249025
-0.0249043
-0.0249093
-0.0249105
-0.0249158
-0.024917
-0.024922
-0.0249235
-0.0249278
-0.0249318
-0.0249301
-0.0249442
-0.024925
-0.024925
-0.024925
1
0.13167
0.0682823
0.0523146
0.0444438
0.039607
0.0362994
0.0338849
0.0320392
0.0305811
0.0294034
0.0284335
0.0276163
0.0269145
0.0263134
0.0258155
0.0254257
0.0251379
0.024933
0.0247855
0.0246731
0.024582
0.0245068
0.0244467
0.0244024
0.0243731
0.0243567
0.0243501
0.0243498
0.024353
0.0243577
0.0243626
0.0243671
0.0243709
0.0243742
0.0243771
0.0243796
0.0243819
0.024384
0.0243861
0.0243881
0.02439
0.024392
0.0243938
0.0243957
0.0243975
0.0243992
0.0244009
0.0244025
0.024404
0.0244055
0.0244069
0.0244082
0.0244095
0.0244106
0.0244116
0.0244126
0.0244134
0.0244141
0.0244147
0.0244152
0.0244156
0.0244158
0.0244158
0.0244158
0.0244155
0.0244152
0.0244146
0.0244139
0.024413
0.0244119
0.0244107
0.0244093
0.0244076
0.0244058
0.0244038
0.0244015
0.0243991
0.0243964
0.0243935
0.0243904
0.024387
0.0243835
0.0243797
0.0243756
0.0243714
0.0243669
0.0243621
0.0243571
0.0243519
0.0243465
0.0243408
0.0243348
0.0243287
0.0243223
0.0243157
0.0243088
0.0243018
0.0242945
0.024287
0.0242793
0.0242714
0.0242634
0.0242551
0.0242467
0.0242381
0.0242293
0.0242204
0.0242114
0.0242023
0.024193
0.0241836
0.0241742
0.0241646
0.024155
0.0241454
0.0241357
0.024126
0.0241163
0.0241066
0.0240969
0.0240872
0.0240776
0.024068
0.0240585
0.0240491
0.0240398
0.0240307
0.0240216
0.0240127
0.024004
0.0239954
0.023987
0.0239788
0.0239709
0.0239631
0.0239556
0.0239483
0.0239412
0.0239345
0.023928
0.0239217
0.0239158
0.0239101
0.0239048
0.0238998
0.023895
0.0238906
0.0238865
0.0238827
0.0238793
0.0238761
0.0238733
0.0238709
0.0238687
0.0238669
0.0238654
0.0238642
0.0238634
0.0238628
0.0238626
0.0238627
0.0238631
0.0238638
0.0238648
0.0238661
0.0238676
0.0238695
0.0238716
0.0238739
0.0238765
0.0238794
0.0238825
0.0238858
0.0238894
0.0238931
0.0238971
0.0239012
0.0239056
0.0239101
0.0239148
0.0239196
0.0239246
0.0239298
0.0239351
0.0239405
0.023946
0.0239517
0.0239574
0.0239632
0.0239692
0.0239752
0.0239813
0.0239874
0.0239936
0.0239999
0.0240062
0.0240125
0.0240189
0.0240254
0.0240318
0.0240383
0.0240448
0.0240513
0.0240578
0.0240643
0.0240708
0.0240773
0.0240838
0.0240903
0.0240968
0.0241033
0.0241097
0.0241162
0.0241226
0.024129
0.0241354
0.0241417
0.024148
0.0241543
0.0241606
0.0241668
0.024173
0.0241792
0.0241853
0.0241914
0.0241975
0.0242035
0.0242096
0.0242155
0.0242215
0.0242274
0.0242332
0.0242391
0.0242449
0.0242507
0.0242564
0.0242621
0.0242678
0.0242735
0.0242791
0.0242847
0.0242902
0.0242957
0.0243012
0.0243067
0.0243121
0.0243175
0.0243229
0.0243283
0.0243336
0.0243389
0.0243442
0.0243494
0.0243547
0.0243599
0.024365
0.0243702
0.0243753
0.0243804
0.0243855
0.0243906
0.0243956
0.0244006
0.0244056
0.0244106
0.0244156
0.0244205
0.0244254
0.0244303
0.0244352
0.0244401
0.0244449
0.0244497
0.0244545
0.0244593
0.0244641
0.0244689
0.0244736
0.0244783
0.024483
0.0244877
0.0244924
0.0244971
0.0245017
0.0245063
0.024511
0.0245156
0.0245201
0.0245247
0.0245293
0.0245338
0.0245383
0.0245428
0.0245473
0.0245518
0.0245563
0.0245608
0.0245652
0.0245696
0.024574
0.0245785
0.0245828
0.0245872
0.0245916
0.0245959
0.0246003
0.0246046
0.0246089
0.0246132
0.0246175
0.0246218
0.024626
0.0246303
0.0246345
0.0246388
0.024643
0.0246472
0.0246514
0.0246555
0.0246597
0.0246638
0.024668
0.0246721
0.0246762
0.0246803
0.0246844
0.0246885
0.0246926
0.0246966
0.0247006
0.0247047
0.0247087
0.0247127
0.0247167
0.0247206
0.0247246
0.0247286
0.0247325
0.0247364
0.0247403
0.0247442
0.0247481
0.024752
0.0247559
0.0247597
0.0247635
0.0247674
0.0247712
0.024775
0.0247787
0.0247825
0.0247863
0.02479
0.0247937
0.0247974
0.0248011
0.0248048
0.0248085
0.0248121
0.0248158
0.0248194
0.024823
0.0248266
0.0248302
0.0248338
0.0248373
0.0248409
0.0248444
0.0248479
0.0248514
0.0248549
0.0248583
0.0248618
0.0248652
0.0248686
0.024872
0.0248754
0.0248788
0.0248822
0.0248854
0.0248889
0.0248919
0.0248957
0.0248982
0.0249025
0.0249043
0.0249093
0.0249105
0.0249158
0.024917
0.024922
0.0249235
0.0249278
0.0249318
0.0249301
0.0249442
0.024925
0.024925
0.024925
1
0.344902
0.200702
0.155018
0.131961
0.117684
0.107883
0.100711
0.0952217
0.0908841
0.0873803
0.0844942
0.0820644
0.0799858
0.0782182
0.0767661
0.0756358
0.074802
0.0742044
0.0737698
0.0734371
0.0731695
0.0729523
0.072783
0.0726611
0.0725832
0.0725417
0.0725268
0.0725289
0.07254
0.0725545
0.0725693
0.0725827
0.0725944
0.0726045
0.0726134
0.0726215
0.072629
0.0726362
0.0726432
0.0726501
0.0726568
0.0726635
0.0726702
0.0726767
0.0726832
0.0726896
0.0726958
0.072702
0.072708
0.0727139
0.0727196
0.0727251
0.0727305
0.0727357
0.0727407
0.0727454
0.07275
0.0727543
0.0727583
0.0727621
0.0727656
0.0727688
0.0727718
0.0727744
0.0727766
0.0727786
0.0727802
0.0727814
0.0727822
0.0727826
0.0727826
0.0727822
0.0727814
0.0727801
0.0727784
0.0727761
0.0727734
0.0727702
0.0727665
0.0727623
0.0727575
0.0727522
0.0727464
0.07274
0.072733
0.0727255
0.0727174
0.0727087
0.0726994
0.0726896
0.0726791
0.0726681
0.0726565
0.0726443
0.0726315
0.0726181
0.0726042
0.0725896
0.0725746
0.0725589
0.0725428
0.0725261
0.0725088
0.0724911
0.0724729
0.0724542
0.0724351
0.0724155
0.0723956
0.0723752
0.0723545
0.0723334
0.072312
0.0722903
0.0722684
0.0722462
0.0722239
0.0722013
0.0721786
0.0721558
0.072133
0.0721101
0.0720871
0.0720642
0.0720413
0.0720186
0.0719959
0.0719734
0.0719511
0.071929
0.0719072
0.0718857
0.0718644
0.0718436
0.0718231
0.071803
0.0717834
0.0717642
0.0717455
0.0717274
0.0717098
0.0716927
0.0716763
0.0716605
0.0716453
0.0716308
0.071617
0.0716038
0.0715914
0.0715796
0.0715686
0.0715583
0.0715488
0.07154
0.071532
0.0715248
0.0715183
0.0715126
0.0715077
0.0715035
0.0715001
0.0714974
0.0714955
0.0714943
0.0714939
0.0714942
0.0714952
0.071497
0.0714994
0.0715025
0.0715063
0.0715107
0.0715158
0.0715215
0.0715278
0.0715347
0.0715421
0.0715501
0.0715587
0.0715677
0.0715773
0.0715873
0.0715978
0.0716088
0.0716201
0.0716319
0.0716441
0.0716566
0.0716695
0.0716827
0.0716962
0.07171
0.071724
0.0717384
0.071753
0.0717678
0.0717828
0.071798
0.0718134
0.071829
0.0718447
0.0718606
0.0718766
0.0718927
0.0719089
0.0719252
0.0719416
0.0719581
0.0719746
0.0719912
0.0720078
0.0720245
0.0720412
0.0720579
0.0720746
0.0720913
0.0721081
0.0721248
0.0721415
0.0721582
0.0721749
0.0721915
0.0722082
0.0722248
0.0722413
0.0722579
0.0722744
0.0722908
0.0723072
0.0723236
0.0723399
0.0723562
0.0723724
0.0723885
0.0724047
0.0724207
0.0724367
0.0724527
0.0724686
0.0724844
0.0725002
0.0725159
0.0725316
0.0725472
0.0725628
0.0725783
0.0725937
0.0726091
0.0726245
0.0726398
0.072655
0.0726702
0.0726854
0.0727004
0.0727155
0.0727305
0.0727454
0.0727603
0.0727751
0.0727899
0.0728046
0.0728193
0.072834
0.0728486
0.0728631
0.0728776
0.0728921
0.0729065
0.0729209
0.0729353
0.0729495
0.0729638
0.072978
0.0729922
0.0730063
0.0730204
0.0730345
0.0730485
0.0730625
0.0730764
0.0730903
0.0731042
0.073118
0.0731318
0.0731456
0.0731593
0.073173
0.0731866
0.0732002
0.0732138
0.0732274
0.0732409
0.0732544
0.0732678
0.0732812
0.0732946
0.073308
0.0733213
0.0733346
0.0733478
0.073361
0.0733742
0.0733874
0.0734005
0.0734136
0.0734267
0.0734397
0.0734527
0.0734657
0.0734786
0.0734915
0.0735044
0.0735173
0.0735301
0.0735429
0.0735556
0.0735683
0.073581
0.0735937
0.0736063
0.0736189
0.0736315
0.0736441
0.0736566
0.073669
0.0736815
0.0736939
0.0737063
0.0737187
0.073731
0.0737433
0.0737555
0.0737678
0.07378
0.0737922
0.0738043
0.0738164
0.0738285
0.0738405
0.0738525
0.0738645
0.0738765
0.0738884
0.0739003
0.0739121
0.0739239
0.0739357
0.0739475
0.0739592
0.0739709
0.0739825
0.0739941
0.0740057
0.0740173
0.0740288
0.0740403
0.0740517
0.0740631
0.0740745
0.0740858
0.0740971
0.0741084
0.0741196
0.0741308
0.0741419
0.074153
0.0741641
0.0741752
0.0741862
0.0741971
0.074208
0.0742189
0.0742298
0.0742406
0.0742513
0.074262
0.0742727
0.0742833
0.074294
0.0743044
0.0743153
0.0743251
0.0743367
0.0743452
0.0743584
0.0743648
0.0743799
0.0743846
0.0744005
0.0744052
0.0744205
0.074426
0.0744394
0.0744512
0.0744489
0.074488
0.074438
0.074438
0.074438
1
0.518791
0.327453
0.255426
0.217953
0.19454
0.178397
0.166555
0.15748
0.150305
0.144507
0.13973
0.135711
0.132283
0.129381
0.127011
0.125172
0.123813
0.122834
0.122117
0.121566
0.121125
0.120772
0.120501
0.12031
0.120191
0.120129
0.12011
0.120116
0.120136
0.12016
0.120185
0.120207
0.120227
0.120244
0.120259
0.120273
0.120286
0.120299
0.120311
0.120323
0.120336
0.120348
0.12036
0.120372
0.120383
0.120395
0.120407
0.120418
0.120429
0.120441
0.120452
0.120462
0.120473
0.120483
0.120493
0.120503
0.120512
0.120521
0.12053
0.120539
0.120547
0.120555
0.120562
0.120569
0.120576
0.120582
0.120587
0.120592
0.120597
0.120601
0.120605
0.120608
0.12061
0.120612
0.120613
0.120614
0.120614
0.120613
0.120612
0.12061
0.120607
0.120603
0.120599
0.120594
0.120588
0.120581
0.120574
0.120566
0.120557
0.120547
0.120536
0.120524
0.120512
0.120499
0.120485
0.12047
0.120454
0.120437
0.12042
0.120402
0.120383
0.120363
0.120342
0.120321
0.120299
0.120276
0.120252
0.120228
0.120203
0.120177
0.120151
0.120124
0.120097
0.120069
0.12004
0.120012
0.119982
0.119953
0.119923
0.119893
0.119862
0.119831
0.1198
0.119769
0.119738
0.119707
0.119676
0.119645
0.119614
0.119583
0.119553
0.119522
0.119492
0.119463
0.119433
0.119404
0.119376
0.119348
0.119321
0.119294
0.119268
0.119242
0.119217
0.119193
0.11917
0.119148
0.119126
0.119105
0.119085
0.119066
0.119048
0.119031
0.119015
0.119
0.118986
0.118973
0.118961
0.11895
0.11894
0.118931
0.118923
0.118916
0.11891
0.118905
0.118901
0.118899
0.118897
0.118897
0.118897
0.118898
0.118901
0.118904
0.118908
0.118913
0.118919
0.118927
0.118934
0.118943
0.118953
0.118963
0.118974
0.118986
0.118999
0.119012
0.119027
0.119041
0.119057
0.119073
0.119089
0.119107
0.119124
0.119143
0.119162
0.119181
0.119201
0.119221
0.119241
0.119262
0.119284
0.119305
0.119327
0.11935
0.119372
0.119395
0.119418
0.119441
0.119465
0.119489
0.119513
0.119537
0.119561
0.119585
0.11961
0.119635
0.119659
0.119684
0.119709
0.119734
0.119759
0.119784
0.119809
0.119835
0.11986
0.119885
0.11991
0.119935
0.119961
0.119986
0.120011
0.120036
0.120062
0.120087
0.120112
0.120137
0.120162
0.120187
0.120212
0.120237
0.120262
0.120287
0.120312
0.120337
0.120362
0.120386
0.120411
0.120436
0.12046
0.120485
0.120509
0.120534
0.120558
0.120582
0.120607
0.120631
0.120655
0.120679
0.120703
0.120727
0.120751
0.120775
0.120799
0.120823
0.120846
0.12087
0.120894
0.120917
0.120941
0.120964
0.120988
0.121011
0.121035
0.121058
0.121081
0.121104
0.121127
0.121151
0.121174
0.121197
0.12122
0.121242
0.121265
0.121288
0.121311
0.121334
0.121356
0.121379
0.121402
0.121424
0.121447
0.121469
0.121492
0.121514
0.121536
0.121559
0.121581
0.121603
0.121625
0.121648
0.12167
0.121692
0.121714
0.121736
0.121758
0.12178
0.121801
0.121823
0.121845
0.121867
0.121888
0.12191
0.121932
0.121953
0.121975
0.121996
0.122018
0.122039
0.122061
0.122082
0.122103
0.122124
0.122146
0.122167
0.122188
0.122209
0.12223
0.122251
0.122272
0.122293
0.122314
0.122335
0.122356
0.122376
0.122397
0.122418
0.122438
0.122459
0.12248
0.1225
0.122521
0.122541
0.122561
0.122582
0.122602
0.122622
0.122643
0.122663
0.122683
0.122703
0.122723
0.122743
0.122763
0.122783
0.122803
0.122823
0.122842
0.122862
0.122882
0.122901
0.122921
0.12294
0.12296
0.122979
0.122999
0.123018
0.123037
0.123057
0.123076
0.123095
0.123114
0.123133
0.123152
0.123171
0.12319
0.123208
0.123227
0.123246
0.123265
0.123283
0.123302
0.12332
0.123339
0.123356
0.123376
0.123392
0.123414
0.123426
0.123452
0.123461
0.123488
0.123498
0.123524
0.123534
0.123557
0.123577
0.123577
0.123638
0.123566
0.123566
0.123566
1
0.660918
0.446959
0.352979
0.302166
0.270031
0.247749
0.231355
0.218767
0.208806
0.200753
0.194115
0.188532
0.183782
0.179778
0.176519
0.173996
0.172129
0.170775
0.169776
0.169006
0.168393
0.167907
0.16754
0.167285
0.16713
0.167052
0.16703
0.167042
0.16707
0.167105
0.167139
0.16717
0.167197
0.167222
0.167243
0.167263
0.167283
0.167301
0.167319
0.167337
0.167355
0.167373
0.167391
0.167409
0.167426
0.167444
0.167461
0.167478
0.167495
0.167512
0.167529
0.167546
0.167562
0.167578
0.167594
0.167609
0.167624
0.167639
0.167653
0.167667
0.167681
0.167694
0.167707
0.16772
0.167731
0.167743
0.167754
0.167764
0.167774
0.167783
0.167791
0.167799
0.167807
0.167813
0.167819
0.167824
0.167829
0.167832
0.167835
0.167837
0.167838
0.167838
0.167838
0.167836
0.167834
0.167831
0.167827
0.167821
0.167815
0.167808
0.1678
0.167791
0.167781
0.16777
0.167758
0.167744
0.16773
0.167715
0.167699
0.167682
0.167663
0.167644
0.167624
0.167603
0.167581
0.167558
0.167534
0.167509
0.167483
0.167457
0.167429
0.167401
0.167372
0.167343
0.167312
0.167281
0.16725
0.167218
0.167185
0.167152
0.167118
0.167084
0.16705
0.167015
0.166981
0.166946
0.16691
0.166875
0.16684
0.166805
0.16677
0.166735
0.1667
0.166666
0.166631
0.166597
0.166564
0.166531
0.166498
0.166466
0.166435
0.166404
0.166374
0.166345
0.166317
0.166289
0.166262
0.166236
0.166211
0.166187
0.166164
0.166142
0.166122
0.166102
0.166083
0.166066
0.166049
0.166034
0.16602
0.166007
0.165995
0.165985
0.165976
0.165968
0.165961
0.165955
0.165951
0.165948
0.165946
0.165945
0.165945
0.165947
0.16595
0.165954
0.165959
0.165965
0.165972
0.16598
0.16599
0.166
0.166012
0.166024
0.166037
0.166052
0.166067
0.166083
0.1661
0.166118
0.166136
0.166156
0.166176
0.166197
0.166218
0.16624
0.166263
0.166287
0.166311
0.166336
0.166361
0.166387
0.166413
0.166439
0.166467
0.166494
0.166522
0.166551
0.166579
0.166608
0.166638
0.166667
0.166697
0.166728
0.166758
0.166789
0.16682
0.166851
0.166882
0.166914
0.166945
0.166977
0.167009
0.167041
0.167073
0.167105
0.167138
0.16717
0.167203
0.167235
0.167268
0.167301
0.167333
0.167366
0.167399
0.167432
0.167465
0.167497
0.16753
0.167563
0.167596
0.167629
0.167662
0.167695
0.167728
0.16776
0.167793
0.167826
0.167859
0.167892
0.167924
0.167957
0.16799
0.168022
0.168055
0.168088
0.16812
0.168153
0.168185
0.168218
0.16825
0.168282
0.168315
0.168347
0.168379
0.168411
0.168444
0.168476
0.168508
0.16854
0.168572
0.168604
0.168636
0.168668
0.1687
0.168732
0.168763
0.168795
0.168827
0.168859
0.16889
0.168922
0.168953
0.168985
0.169016
0.169048
0.169079
0.169111
0.169142
0.169173
0.169204
0.169236
0.169267
0.169298
0.169329
0.16936
0.169391
0.169422
0.169453
0.169484
0.169515
0.169546
0.169576
0.169607
0.169638
0.169669
0.169699
0.16973
0.16976
0.169791
0.169821
0.169852
0.169882
0.169913
0.169943
0.169973
0.170003
0.170034
0.170064
0.170094
0.170124
0.170154
0.170184
0.170214
0.170244
0.170274
0.170304
0.170334
0.170363
0.170393
0.170423
0.170452
0.170482
0.170512
0.170541
0.170571
0.1706
0.170629
0.170659
0.170688
0.170717
0.170746
0.170776
0.170805
0.170834
0.170863
0.170892
0.170921
0.17095
0.170979
0.171007
0.171036
0.171065
0.171094
0.171122
0.171151
0.171179
0.171208
0.171236
0.171264
0.171293
0.171321
0.171349
0.171377
0.171406
0.171434
0.171462
0.17149
0.171517
0.171545
0.171573
0.171601
0.171629
0.171656
0.171684
0.171711
0.171739
0.171766
0.171793
0.171821
0.171848
0.171875
0.171903
0.171928
0.171958
0.171981
0.172013
0.172032
0.172069
0.172084
0.172123
0.172138
0.172175
0.172192
0.172226
0.172254
0.172259
0.17234
0.172252
0.172252
0.172252
1
0.776836
0.557899
0.446997
0.384265
0.343963
0.315815
0.29502
0.279018
0.266337
0.256075
0.247612
0.240497
0.234454
0.229377
0.225257
0.22207
0.219706
0.21798
0.216697
0.215705
0.214919
0.214301
0.213841
0.213526
0.213336
0.213245
0.213222
0.213239
0.213276
0.213321
0.213364
0.213404
0.213439
0.21347
0.213499
0.213525
0.213551
0.213575
0.213599
0.213623
0.213647
0.213671
0.213695
0.213719
0.213743
0.213766
0.21379
0.213813
0.213837
0.21386
0.213882
0.213905
0.213928
0.21395
0.213972
0.213993
0.214014
0.214035
0.214056
0.214076
0.214096
0.214115
0.214134
0.214152
0.21417
0.214188
0.214204
0.214221