# vtk DataFile Version 2.0
FlowField
ASCII
DATASET STRUCTURED_GRID
DIMENSIONS 400 1 200
POINTS 80000 float
0 0 0
0.08 0 0
0.16 0 0
0.24 0 0
0.32 0 0
0.4 0 0
0.48 0 0
0.56 0 0
0.64 0 0
0.72 0 0
0.8 0 0
0.88 0 0
0.96 0 0
1.04 0 0
1.12 0 0
1.2 0 0
1.28 0 0
1.36 0 0
1.44 0 0
1.52 0 0
1.6 0 0
1.68 0 0
1.76 0 0
1.84 0 0
1.92 0 0
2 0 0
2.08 0 0
2.16 0 0
2.24 0 0
2.32 0 0
2.4 0 0
2.48 0 0
2.56 0 0
2.64 0 0
2.72 0 0
2.8 0 0
2.88 0 0
2.96 0 0
3.04 0 0
3.12 0 0
3.2 0 0
3.28 0 0
3.36 0 0
3.44 0 0
3.52 0 0
3.6 0 0
3.68 0 0
3.76 0 0
3.84 0 0
3.92 0 0
4 0 0
4.08 0 0
4.16 0 0
4.24 0 0
4.32 0 0
4.4 0 0
4.48 0 0
4.56 0 0
4.64 0 0
4.72 0 0
4.8 0 0
4.88 0 0
4.96 0 0
5.04 0 0
5.12 0 0
5.2 0 0
5.28 0 0
5.36 0 0
5.44 0 0
5.52 0 0
5.6 0 0
5.68 0 0
5.76 0 0
5.84 0 0
5.92 0 0
6 0 0
6.08 0 0
6.16 0 0
6.24 0 0
6.32 0 0
6.4 0 0
6.48 0 0
6.56 0 0
6.64 0 0
6.72 0 0
6.8 0 0
6.88 0 0
6.96 0 0
7.04 0 0
7.12 0 0
7.2 0 0
7.28 0 0
7.36 0 0
7.44 0 0
7.52 0 0
7.6 0 0
7.68 0 0
7.76 0 0
7.84 0 0
7.92 0 0
8 0 0
8.08 0 0
8.16 0 0
8.24 0 0
8.32 0 0
8.4 0 0
8.48 0 0
8.56 0 0
8.64 0 0
8.72 0 0
8.8 0 0
8.88 0 0
8.96 0 0
9.04 0 0
9.12 0 0
9.2 0 0
9.28 0 0
9.36 0 0
9.44 0 0
9.52 0 0
9.6 0 0
9.68 0 0
9.76 0 0
9.84 0 0
9.92 0 0
10 0 0
10.08 0 0
10.16 0 0
10.24 0 0
10.32 0 0
10.4 0 0
10.48 0 0
10.56 0 0
10.64 0 0
10.72 0 0
10.8 0 0
10.88 0 0
10.96 0 0
11.04 0 0
11.12 0 0
11.2 0 0
11.28 0 0
11.36 0 0
11.44 0 0
11.52 0 0
11.6 0 0
11.68 0 0
11.76 0 0
11.84 0 0
11.92 0 0
12 0 0
12.08 0 0
12.16 0 0
12.24 0 0
12.32 0 0
12.4 0 0
12.48 0 0
12.56 0 0
12.64 0 0
12.72 0 0
12.8 0 0
12.88 0 0
12.96 0 0
13.04 0 0
13.12 0 0
13.2 0 0
13.28 0 0
13.36 0 0
13.44 0 0
13.52 0 0
13.6 0 0
13.68 0 0
13.76 0 0
13.84 0 0
13.92 0 0
14 0 0
14.08 0 0
14.16 0 0
14.24 0 0
14.32 0 0
14.4 0 0
14.48 0 0
14.56 0 0
14.64 0 0
14.72 0 0
14.8 0 0
14.88 0 0
14.96 0 0
15.04 0 0
15.12 0 0
15.2 0 0
15.28 0 0
15.36 0 0
15.44 0 0
15.52 0 0
15.6 0 0
15.68 0 0
15.76 0 0
15.84 0 0
15.92 0 0
16 0 0
16.08 0 0
16.16 0 0
16.24 0 0
16.32 0 0
16.4 0 0
16.48 0 0
16.56 0 0
16.64 0 0
16.72 0 0
16.8 0 0
16.88 0 0
16.96 0 0
17.04 0 0
17.12 0 0
17.2 0 0
17.28 0 0
17.36 0 0
17.44 0 0
17.52 0 0
17.6 0 0
17.68 0 0
17.76 0 0
17.84 0 0
17.92 0 0
18 0 0
18.08 0 0
18.16 0 0
18.24 0 0
18.32 0 0
18.4 0 0
18.48 0 0
18.56 0 0
18.64 0 0
18.72 0 0
18.8 0 0
18.88 0 0
18.96 0 0
19.04 0 0
19.12 0 0
19.2 0 0
19.28 0 0
19.36 0 0
19.44 0 0
19.52 0 0
19.6 0 0
19.68 0 0
19.76 0 0
19.84 0 0
19.92 0 0
20 0 0
20.08 0 0
20.16 0 0
20.24 0 0
20.32 0 0
20.4 0 0
20.48 0 0
20.56 0 0
20.64 0 0
20.72 0 0
20.8 0 0
20.88 0 0
20.96 0 0
21.04 0 0
21.12 0 0
21.2 0 0
21.28 0 0
21.36 0 0
21.44 0 0
21.52 0 0
21.6 0 0
21.68 0 0
21.76 0 0
21.84 0 0
21.92 0 0
22 0 0
22.08 0 0
22.16 0 0
22.24 0 0
22.32 0 0
22.4 0 0
22.48 0 0
22.56 0 0
22.64 0 0
22.72 0 0
22.8 0 0
22.88 0 0
22.96 0 0
23.04 0 0
23.12 0 0
23.2 0 0
23.28 0 0
23.36 0 0
23.44 0 0
23.52 0 0
23.6 0 0
23.68 0 0
23.76 0 0
23.84 0 0
23.92 0 0
24 0 0
24.08 0 0
24.16 0 0
24.24 0 0
24.32 0 0
24.4 0 0
24.48 0 0
24.56 0 0
24.64 0 0
24.72 0 0
24.8 0 0
24.88 0 0
24.96 0 0
25.04 0 0
25.12 0 0
25.2 0 0
25.28 0 0
25.36 0 0
25.44 0 0
25.52 0 0
25.6 0 0
25.68 0 0
25.76 0 0
25.84 0 0
25.92 0 0
26 0 0
26.08 0 0
26.16 0 0
26.24 0 0
26.32 0 0
26.4 0 0
26.48 0 0
26.56 0 0
26.64 0 0
26.72 0 0
26.8 0 0
26.88 0 0
26.96 0 0
27.04 0 0
27.12 0 0
27.2 0 0
27.28 0 0
27.36 0 0
27.44 0 0
27.52 0 0
27.6 0 0
27.68 0 0
27.76 0 0
27.84 0 0
27.92 0 0
28 0 0
28.08 0 0
28.16 0 0
28.24 0 0
28.32 0 0
28.4 0 0
28.48 0 0
28.56 0 0
28.64 0 0
28.72 0 0
28.8 0 0
28.88 0 0
28.96 0 0
29.04 0 0
29.12 0 0
29.2 0 0
29.28 0 0
29.36 0 0
29.44 0 0
29.52 0 0
29.6 0 0
29.68 0 0
29.76 0 0
29.84 0 0
29.92 0 0
30 0 0
30.08 0 0
30.16 0 0
30.24 0 0
30.32 0 0
30.4 0 0
30.48 0 0
30.56 0 0
30.64 0 0
30.72 0 0
30.8 0 0
30.88 0 0
30.96 0 0
31.04 0 0
31.12 0 0
31.2 0 0
31.28 0 0
31.36 0 0
31.44 0 0
31.52 0 0
31.6 0 0
31.68 0 0
31.76 0 0
31.84 0 0
31.92 0 0
0 0.005 0
0.08 0.005 0
0.16 0.005 0
0.24 0.005 0
0.32 0.005 0
0.4 0.005 0
0.48 0.005 0
0.56 0.005 0
0.64 0.005 0
0.72 0.005 0
0.8 0.005 0
0.88 0.005 0
0.96 0.005 0
1.04 0.005 0
1.12 0.005 0
1.2 0.005 0
1.28 0.005 0
1.36 0.005 0
1.44 0.005 0
1.52 0.005 0
1.6 0.005 0
1.68 0.005 0
1.76 0.005 0
1.84 0.005 0
1.92 0.005 0
2 0.005 0
2.08 0.005 0
2.16 0.005 0
2.24 0.005 0
2.32 0.005 0
2.4 0.005 0
2.48 0.005 0
2.56 0.005 0
2.64 0.005 0
2.72 0.005 0
2.8 0.005 0
2.88 0.005 0
2.96 0.005 0
3.04 0.005 0
3.12 0.005 0
3.2 0.005 0
3.28 0.005 0
3.36 0.005 0
3.44 0.005 0
3.52 0.005 0
3.6 0.005 0
3.68 0.005 0
3.76 0.005 0
3.84 0.005 0
3.92 0.005 0
4 0.005 0
4.08 0.005 0
4.16 0.005 0
4.24 0.005 0
4.32 0.005 0
4.4 0.005 0
4.48 0.005 0
4.56 0.005 0
4.64 0.005 0
4.72 0.005 0
4.8 0.005 0
4.88 0.005 0
4.96 0.005 0
5.04 0.005 0
5.12 0.005 0
5.2 0.005 0
5.28 0.005 0
5.36 0.005 0
5.44 0.005 0
5.52 0.005 0
5.6 0.005 0
5.68 0.005 0
5.76 0.005 0
5.84 0.005 0
5.92 0.005 0
6 0.005 0
6.08 0.005 0
6.16 0.005 0
6.24 0.005 0
6.32 0.005 0
6.4 0.005 0
6.48 0.005 0
6.56 0.005 0
6.64 0.005 0
6.72 0.005 0
6.8 0.005 0
6.88 0.005 0
6.96 0.005 0
7.04 0.005 0
7.12 0.005 0
7.2 0.005 0
7.28 0.005 0
7.36 0.005 0
7.44 0.005 0
7.52 0.005 0
7.6 0.005 0
7.68 0.005 0
7.76 0.005 0
7.84 0.005 0
7.92 0.005 0
8 0.005 0
8.08 0.005 0
8.16 0.005 0
8.24 0.005 0
8.32 0.005 0
8.4 0.005 0
8.48 0.005 0
8.56 0.005 0
8.64 0.005 0
8.72 0.005 0
8.8 0.005 0
8.88 0.005 0
8.96 0.005 0
9.04 0.005 0
9.12 0.005 0
9.2 0.005 0
9.28 0.005 0
9.36 0.005 0
9.44 0.005 0
9.52 0.005 0
9.6 0.005 0
9.68 0.005 0
9.76 0.005 0
9.84 0.005 0
9.92 0.005 0
10 0.005 0
10.08 0.005 0
10.16 0.005 0
10.24 0.005 0
10.32 0.005 0
10.4 0.005 0
10.48 0.005 0
10.56 0.005 0
10.64 0.005 0
10.72 0.005 0
10.8 0.005 0
10.88 0.005 0
10.96 0.005 0
11.04 0.005 0
11.12 0.005 0
11.2 0.005 0
11.28 0.005 0
11.36 0.005 0
11.44 0.005 0
11.52 0.005 0
11.6 0.005 0
11.68 0.005 0
11.76 0.005 0
11.84 0.005 0
11.92 0.005 0
12 0.005 0
12.08 0.005 0
12.16 0.005 0
12.24 0.005 0
12.32 0.005 0
12.4 0.005 0
12.48 0.005 0
12.56 0.005 0
12.64 0.005 0
12.72 0.005 0
12.8 0.005 0
12.88 0.005 0
12.96 0.005 0
13.04 0.005 0
13.12 0.005 0
13.2 0.005 0
13.28 0.005 0
13.36 0.005 0
13.44 0.005 0
13.52 0.005 0
13.6 0.005 0
13.68 0.005 0
13.76 0.005 0
13.84 0.005 0
13.92 0.005 0
14 0.005 0
14.08 0.005 0
14.16 0.005 0
14.24 0.005 0
14.32 0.005 0
14.4 0.005 0
14.48 0.005 0
14.56 0.005 0
14.64 0.005 0
14.72 0.005 0
14.8 0.005 0
14.88 0.005 0
14.96 0.005 0
15.04 0.005 0
15.12 0.005 0
15.2 0.005 0
15.28 0.005 0
15.36 0.005 0
15.44 0.005 0
15.52 0.005 0
15.6 0.005 0
15.68 0.005 0
15.76 0.005 0
15.84 0.005 0
15.92 0.005 0
16 0.005 0
16.08 0.005 0
16.16 0.005 0
16.24 0.005 0
16.32 0.005 0
16.4 0.005 0
16.48 0.005 0
16.56 0.005 0
16.64 0.005 0
16.72 0.005 0
16.8 0.005 0
16.88 0.005 0
16.96 0.005 0
17.04 0.005 0
17.12 0.005 0
17.2 0.005 0
17.28 0.005 0
17.36 0.005 0
17.44 0.005 0
17.52 0.005 0
17.6 0.005 0
17.68 0.005 0
17.76 0.005 0
17.84 0.005 0
17.92 0.005 0
18 0.005 0
18.08 0.005 0
18.16 0.005 0
18.24 0.005 0
18.32 0.005 0
18.4 0.005 0
18.48 0.005 0
18.56 0.005 0
18.64 0.005 0
18.72 0.005 0
18.8 0.005 0
18.88 0.005 0
18.96 0.005 0
19.04 0.005 0
19.12 0.005 0
19.2 0.005 0
19.28 0.005 0
19.36 0.005 0
19.44 0.005 0
19.52 0.005 0
19.6 0.005 0
19.68 0.005 0
19.76 0.005 0
19.84 0.005 0
19.92 0.005 0
20 0.005 0
20.08 0.005 0
20.16 0.005 0
20.24 0.005 0
20.32 0.005 0
20.4 0.005 0
20.48 0.005 0
20.56 0.005 0
20.64 0.005 0
20.72 0.005 0
20.8 0.005 0
20.88 0.005 0
20.96 0.005 0
21.04 0.005 0
21.12 0.005 0
21.2 0.005 0
21.28 0.005 0
21.36 0.005 0
21.44 0.005 0
21.52 0.005 0
21.6 0.005 0
21.68 0.005 0
21.76 0.005 0
21.84 0.005 0
21.92 0.005 0
22 0.005 0
22.08 0.005 0
22.16 0.005 0
22.24 0.005 0
22.32 0.005 0
22.4 0.005 0
22.48 0.005 0
22.56 0.005 0
22.64 0.005 0
22.72 0.005 0
22.8 0.005 0
22.88 0.005 0
22.96 0.005 0
23.04 0.005 0
23.12 0.005 0
23.2 0.005 0
23.28 0.005 0
23.36 0.005 0
23.44 0.005 0
23.52 0.005 0
23.6 0.005 0
23.68 0.005 0
23.76 0.005 0
23.84 0.005 0
23.92 0.005 0
24 0.005 0
24.08 0.005 0
24.16 0.005 0
24.24 0.005 0
24.32 0.005 0
24.4 0.005 0
24.48 0.005 0
24.56 0.005 0
24.64 0.005 0
24.72 0.005 0
24.8 0.005 0
24.88 0.005 0
24.96 0.005 0
25.04 0.005 0
25.12 0.005 0
25.2 0.005 0
25.28 0.005 0
25.36 0.005 0
25.44 0.005 0
25.52 0.005 0
25.6 0.005 0
25.68 0.005 0
25.76 0.005 0
25.84 0.005 0
25.92 0.005 0
26 0.005 0
26.08 0.005 0
26.16 0.005 0
26.24 0.005 0
26.32 0.005 0
26.4 0.005 0
26.48 0.005 0
26.56 0.005 0
26.64 0.005 0
26.72 0.005 0
26.8 0.005 0
26.88 0.005 0
26.96 0.005 0
27.04 0.005 0
27.12 0.005 0
27.2 0.005 0
27.28 0.005 0
27.36 0.005 0
27.44 0.005 0
27.52 0.005 0
27.6 0.005 0
27.68 0.005 0
27.76 0.005 0
27.84 0.005 0
27.92 0.005 0
28 0.005 0
28.08 0.005 0
28.16 0.005 0
28.24 0.005 0
28.32 0.005 0
28.4 0.005 0
28.48 0.005 0
28.56 0.005 0
28.64 0.005 0
28.72 0.005 0
28.8 0.005 0
28.88 0.005 0
28.96 0.005 0
29.04 0.005 0
29.12 0.005 0
29.2 0.005 0
29.28 0.005 0
29.36 0.005 0
29.44 0.005 0
29.52 0.005 0
29.6 0.005 0
29.68 0.005 0
29.76 0.005 0
29.84 0.005 0
29.92 0.005 0
30 0.005 0
30.08 0.005 0
30.16 0.005 0
30.24 0.005 0
30.32 0.005 0
30.4 0.005 0
30.48 0.005 0
30.56 0.005 0
30.64 0.005 0
30.72 0.005 0
30.8 0.005 0
30.88 0.005 0
30.96 0.005 0
31.04 0.005 0
31.12 0.005 0
31.2 0.005 0
31.28 0.005 0
31.36 0.005 0
31.44 0.005 0
31.52 0.005 0
31.6 0.005 0
31.68 0.005 0
31.76 0.005 0
31.84 0.005 0
31.92 0.005 0
0 0.01 0
0.08 0.01 0
0.16 0.01 0
0.24 0.01 0
0.32 0.01 0
0.4 0.01 0
0.48 0.01 0
0.56 0.01 0
0.64 0.01 0
0.72 0.01 0
0.8 0.01 0
0.88 0.01 0
0.96 0.01 0
1.04 0.01 0
1.12 0.01 0
1.2 0.01 0
1.28 0.01 0
1.36 0.01 0
1.44 0.01 0
1.52 0.01 0
1.6 0.01 0
1.68 0.01 0
1.76 0.01 0
1.84 0.01 0
1.92 0.01 0
2 0.01 0
2.08 0.01 0
2.16 0.01 0
2.24 0.01 0
2.32 0.01 0
2.4 0.01 0
2.48 0.01 0
2.56 0.01 0
2.64 0.01 0
2.72 0.01 0
2.8 0.01 0
2.88 0.01 0
2.96 0.01 0
3.04 0.01 0
3.12 0.01 0
3.2 0.01 0
3.28 0.01 0
3.36 0.01 0
3.44 0.01 0
3.52 0.01 0
3.6 0.01 0
3.68 0.01 0
3.76 0.01 0
3.84 0.01 0
3.92 0.01 0
4 0.01 0
4.08 0.01 0
4.16 0.01 0
4.24 0.01 0
4.32 0.01 0
4.4 0.01 0
4.48 0.01 0
4.56 0.01 0
4.64 0.01 0
4.72 0.01 0
4.8 0.01 0
4.88 0.01 0
4.96 0.01 0
5.04 0.01 0
5.12 0.01 0
[...]
POINT_DATA 80000

SCALARS v float 1
LOOKUP_TABLE default
0
0
0
0
0
0
0
0
0
0
0
0
0
0
0
0
0
0
0
0
0
0
0
0
0
0
0
0
0
0
0
0
0
0
0
0
0
0
0
0
0
0
0
0
0
0
0
0
0
0
0
0
0
0
0
0
0
0
0
0
0
0
0
0
0
0
0
0
0
0
0
0
0
0
0
0
0
0
0
0
0
0
0
0
0
0
0
0
0
0
0
0
0
0
0
0
0
0
0
0
0
0
0
0
0
0
0
0
0
0
0
0
0
0
0
0
0
0
0
0
0
0
0
0
0
0
0
0
0
0
0
0
0
0
0
0
0
0
0
0
0
0
0
0
0
0
0
0
0
0
0
0
0
0
0
0
0
0
0
0
0
0
0
0
0
0
0
0
0
0
0
0
0
0
0
0
0
0
0
0
0
0
0
0
0
0
0
0
0
0
0
0
0
0
0
0
0
0
0
0
0
0
0
0
0
0
0
0
0
0
0
0
0
0
0
0
0
0
0
0
0
0
0
0
0
0
0
0
0
0
0
0
0
0
0
0
0
0
0
0
0
0
0
0
0
0
0
0
0
0
0
0
0
0
0
0
0
0
0
0
0
0
0
0
0
0
0
0
0
0
0
0
0
0
0
0
0
0
0
0
0
0
0
0
0
0
0
0
0
0
0
0
0
0
0
0
0
0
0
0
0
0
0
0
0
0
0
0
0
0
0
0
0
0
0
0
0
0
0
0
0
0
0
0
0
0
0
0
0
0
0
0
0
0
0
0
0
0
0
0
0
0
0
0
0
0
0
0
0
0
0
0
0
0
0
0
0
0
0
0
0
0
0
0
0
0
0
0
0
0
0
0
0
0
0
0
0
0
0
0
0
0
0
0
0
0
0
0
0
0
0
0
0
0
0
0
0
0
0
0
-0.0542713
0.0542713
0.00396234
0.00099858
0.000492512
0.000302949
0.000207573
0.000151945
0.000116504
9.25481e-05
7.56352e-05
6.32747e-05
5.39743e-05
4.67958e-05
4.1128e-05
3.65611e-05
3.28135e-05
2.96879e-05
2.70441e-05
2.47807e-05
2.28221e-05
2.11106e-05
1.96015e-05
1.82615e-05
1.70658e-05
1.59945e-05
1.50293e-05
1.4153e-05
1.3352e-05
1.26176e-05
1.19454e-05
1.13308e-05
1.07656e-05
1.02391e-05
9.74241e-06
9.27219e-06
8.83087e-06
8.42136e-06
8.04126e-06
7.68088e-06
7.32705e-06
6.96971e-06
6.60655e-06
6.24207e-06
5.88214e-06
5.52825e-06
5.17574e-06
4.81758e-06
4.45102e-06
4.08256e-06
3.72767e-06
3.40497e-06
3.12805e-06
2.89932e-06
2.70904e-06
2.5399e-06
2.37455e-06
2.20254e-06
2.02358e-06
1.84625e-06
1.68327e-06
1.54577e-06
1.4389e-06
1.3602e-06
1.30092e-06
1.24922e-06
1.19372e-06
1.12644e-06
1.04413e-06
9.48237e-07
8.43627e-07
7.36899e-07
6.34662e-07
5.42276e-07
4.63166e-07
3.98708e-07
3.48541e-07
3.1109e-07
2.8414e-07
2.65321e-07
2.5245e-07
2.43717e-07
2.3774e-07
2.33536e-07
2.30452e-07
2.28075e-07
2.26155e-07
2.24545e-07
2.23155e-07
2.21928e-07
2.20824e-07
2.1981e-07
2.18862e-07
2.17961e-07
2.17089e-07
2.16236e-07
2.15394e-07
2.14556e-07
2.13721e-07
2.12886e-07
2.1205e-07
2.11215e-07
2.10378e-07
2.09542e-07
2.08707e-07
2.07872e-07
2.07037e-07
2.06203e-07
2.0537e-07
2.04537e-07
2.03706e-07
2.02874e-07
2.02043e-07
2.01213e-07
2.00382e-07
1.99553e-07
1.98723e-07
1.97894e-07
1.97065e-07
1.96237e-07
1.95408e-07
1.9458e-07
1.93753e-07
1.92926e-07
1.92099e-07
1.91272e-07
1.90446e-07
1.8962e-07
1.88795e-07
1.8797e-07
1.87145e-07
1.8632e-07
1.85496e-07
1.84672e-07
1.83849e-07
1.83026e-07
1.82203e-07
1.8138e-07
1.80558e-07
1.79736e-07
1.78915e-07
1.78093e-07
1.77272e-07
1.76451e-07
1.75631e-07
1.74811e-07
1.7399e-07
1.73171e-07
1.72351e-07
1.71531e-07
1.70712e-07
1.69893e-07
1.69074e-07
1.68255e-07
1.67437e-07
1.66618e-07
1.658e-07
1.64982e-07
1.64164e-07
1.63346e-07
1.62528e-07
1.6171e-07
1.60893e-07
1.60075e-07
1.59258e-07
1.5844e-07
1.57623e-07
1.56806e-07
1.55989e-07
1.55171e-07
1.54354e-07
1.53537e-07
1.5272e-07
1.51903e-07
1.51086e-07
1.50269e-07
1.49452e-07
1.48635e-07
1.47818e-07
1.47001e-07
1.46184e-07
1.45367e-07
1.4455e-07
1.43733e-07
1.42916e-07
1.42099e-07
1.41282e-07
1.40464e-07
1.39647e-07
1.38829e-07
1.38012e-07
1.37194e-07
1.36377e-07
1.35559e-07
1.34741e-07
1.33923e-07
1.33105e-07
1.32287e-07
1.31469e-07
1.3065e-07
1.29832e-07
1.29013e-07
1.28195e-07
1.27376e-07
1.26557e-07
1.25738e-07
1.24919e-07
1.24099e-07
1.2328e-07
1.2246e-07
1.2164e-07
1.20821e-07
1.2e-07
1.1918e-07
1.1836e-07
1.17539e-07
1.16718e-07
1.15898e-07
1.15077e-07
1.14255e-07
1.13434e-07
1.12612e-07
1.11791e-07
1.10969e-07
1.10146e-07
1.09324e-07
1.08502e-07
1.07679e-07
1.06856e-07
1.06033e-07
1.0521e-07
1.04386e-07
1.03562e-07
1.02738e-07
1.01914e-07
1.0109e-07
1.00265e-07
9.94407e-08
9.86157e-08
9.77905e-08
9.69651e-08
9.61395e-08
9.53137e-08
9.44876e-08
9.36613e-08
9.28348e-08
9.2008e-08
9.1181e-08
9.03538e-08
8.95264e-08
8.86987e-08
8.78708e-08
8.70426e-08
8.62142e-08
8.53855e-08
8.45567e-08
8.37275e-08
8.28981e-08
8.20685e-08
8.12386e-08
8.04085e-08
7.95781e-08
7.87475e-08
7.79166e-08
7.70855e-08
7.62541e-08
7.54224e-08
7.45905e-08
7.37583e-08
7.29259e-08
7.20932e-08
7.12602e-08
7.0427e-08
6.95934e-08
6.87597e-08
6.79256e-08
6.70913e-08
6.62567e-08
6.54218e-08
6.45866e-08
6.37512e-08
6.29155e-08
6.20795e-08
6.12432e-08
6.04067e-08
5.95698e-08
5.87327e-08
5.78953e-08
5.70576e-08
5.62196e-08
5.53813e-08
5.45427e-08
5.37038e-08
5.28646e-08
5.20252e-08
5.11854e-08
5.03453e-08
4.9505e-08
4.86643e-08
4.78233e-08
4.6982e-08
4.61405e-08
4.52986e-08
4.44564e-08
4.36138e-08
4.2771e-08
4.19279e-08
4.10844e-08
4.02407e-08
3.93966e-08
3.85522e-08
3.77075e-08
3.68624e-08
3.6017e-08
3.51713e-08
3.43253e-08
3.3479e-08
3.26323e-08
3.17853e-08
3.0938e-08
3.00903e-08
2.92423e-08
2.83939e-08
2.75453e-08
2.66962e-08
2.58469e-08
2.49972e-08
2.41471e-08
2.32968e-08
2.2446e-08
2.1595e-08
2.07434e-08
1.98918e-08
1.90394e-08
1.81873e-08
1.73337e-08
1.64817e-08
1.56264e-08
1.4775e-08
1.3917e-08
1.30675e-08
1.22053e-08
1.13596e-08
1.0491e-08
9.65139e-09
8.77383e-09
7.94309e-09
7.0538e-09
6.23462e-09
5.33096e-09
4.52578e-09
3.60554e-09
2.81631e-09
1.87771e-09
1.10616e-09
1.47298e-10
-6.04246e-10
-1.58657e-09
-2.31359e-09
-3.32561e-09
-4.01989e-09
-5.07205e-09
-5.72058e-09
-6.82885e-09
-7.41234e-09
-8.59962e-09
-9.09132e-09
-1.0388e-08
-1.07542e-08
-1.21969e-08
-1.23983e-08
-1.40288e-08
-1.40211e-08
-1.58854e-08
-1.56214e-08
-1.77672e-08
-1.71994e-08
-1.96736e-08
-1.87573e-08
-2.16002e-08
-2.0305e-08
-2.3534e-08
-2.18679e-08
-2.54451e-08
-2.35051e-08
-2.72668e-08
-2.53509e-08
-2.88536e-08
-2.77101e-08
-2.98749e-08
-3.12848e-08
-2.95169e-08
-3.77382e-08
-2.53527e-08
-5.11194e-08
-6.97918e-09
-8.06446e-08
1.28787e-07
-3.66433e-08
-3.66433e-08
-0.0952161
0.0952161
0.0129759
0.00385492
0.00193462
0.00119651
0.000822057
0.000602632
0.000462386
0.000367361
0.000300151
0.000250966
0.000213923
0.000185315
0.000162722
0.000144518
0.000129582
0.00011713
0.000106602
9.75924e-05
8.98e-05
8.29933e-05
7.69949e-05
7.16715e-05
6.69232e-05
6.26694e-05
5.88364e-05
5.53568e-05
5.21773e-05
4.92645e-05
4.65989e-05
4.41597e-05
4.19136e-05
3.98192e-05
3.78436e-05
3.59757e-05
3.42235e-05
3.25946e-05
3.10761e-05
2.96289e-05
2.8204e-05
2.6766e-05
2.53083e-05
2.38481e-05
2.24054e-05
2.09838e-05
1.95657e-05
1.8128e-05
1.66664e-05
1.52109e-05
1.38221e-05
1.2568e-05
1.14944e-05
1.06036e-05
9.85448e-06
9.1809e-06
8.52024e-06
7.83764e-06
7.13602e-06
6.44939e-06
5.82445e-06
5.29947e-06
4.88929e-06
4.58088e-06
4.33932e-06
4.12009e-06
3.88237e-06
3.59899e-06
3.26085e-06
2.87581e-06
2.4637e-06
2.04974e-06
1.65834e-06
1.30858e-06
1.01206e-06
7.72689e-07
5.88065e-07
4.51521e-07
3.54272e-07
2.87197e-07
2.42043e-07
2.12049e-07
1.92108e-07
1.78622e-07
1.69209e-07
1.62376e-07
1.57218e-07
1.53201e-07
1.49998e-07
1.47399e-07
1.45253e-07
1.43442e-07
1.41874e-07
1.40473e-07
1.39181e-07
1.37955e-07
1.36765e-07
1.35592e-07
1.34426e-07
1.33259e-07
1.32091e-07
1.30921e-07
1.29748e-07
1.28576e-07
1.27404e-07
1.26232e-07
1.25062e-07
1.23894e-07
1.22727e-07
1.21562e-07
1.20398e-07
1.19235e-07
1.18072e-07
1.1691e-07
1.15748e-07
1.14586e-07
1.13425e-07
1.12264e-07
1.11103e-07
1.09942e-07
1.08781e-07
1.0762e-07
1.0646e-07
1.053e-07
1.0414e-07
1.0298e-07
1.01821e-07
1.00662e-07
9.95038e-08
9.83458e-08
9.71882e-08
9.6031e-08
9.48743e-08
9.3718e-08
9.25621e-08
9.14066e-08
9.02515e-08
8.90968e-08
8.79424e-08
8.67884e-08
8.56347e-08
8.44814e-08
8.33283e-08
8.21756e-08
8.10231e-08
7.98709e-08
7.87189e-08
7.75672e-08
7.64157e-08
7.52644e-08
7.41133e-08
7.29624e-08
7.18117e-08
7.06611e-08
6.95106e-08
6.83603e-08
6.72102e-08
6.60601e-08
6.49101e-08
6.37603e-08
6.26105e-08
6.14607e-08
6.03111e-08
5.91615e-08
5.8012e-08
5.68624e-08
5.5713e-08
5.45635e-08
5.3414e-08
5.22646e-08
5.11151e-08
4.99656e-08
4.88161e-08
4.76666e-08
4.6517e-08
4.53673e-08
4.42176e-08
4.30679e-08
4.19181e-08
4.07682e-08
3.96182e-08
3.84681e-08
3.73179e-08
3.61676e-08
3.50172e-08
3.38667e-08
3.27161e-08
3.15653e-08
3.04144e-08
2.92633e-08
2.81121e-08
2.69607e-08
2.58092e-08
2.46575e-08
2.35056e-08
2.23535e-08
2.12013e-08
2.00489e-08
1.88963e-08
1.77434e-08
1.65904e-08
1.54372e-08
1.42837e-08
1.313e-08
1.19761e-08
1.0822e-08
9.66766e-09
8.51308e-09
7.35824e-09
6.20317e-09
5.04784e-09
3.89226e-09
2.73643e-09
1.58032e-09
4.23957e-10
-7.32673e-10
-1.88958e-09
-3.04676e-09
-4.20422e-09
-5.36196e-09
-6.51999e-09
-7.67831e-09
-8.83693e-09
-9.99584e-09
-1.11551e-08
-1.23146e-08
-1.34744e-08
-1.46345e-08
-1.5795e-08
-1.69557e-08
-1.81168e-08
-1.92782e-08
-2.04399e-08
-2.1602e-08
-2.27644e-08
-2.39271e-08
-2.50902e-08
-2.62536e-08
-2.74173e-08
-2.85814e-08
-2.97459e-08
-3.09107e-08
-3.20758e-08
-3.32413e-08
-3.44072e-08
-3.55734e-08
-3.674e-08
-3.79069e-08
-3.90743e-08
-4.0242e-08
-4.141e-08
-4.25784e-08
-4.37473e-08
-4.49165e-08
-4.6086e-08
-4.7256e-08
-4.84263e-08
-4.95971e-08
-5.07682e-08
-5.19397e-08
-5.31116e-08
-5.42839e-08
-5.54566e-08
-5.66297e-08
-5.78032e-08
-5.89771e-08
-6.01515e-08
-6.13262e-08
-6.25013e-08
-6.36769e-08
-6.48529e-08
-6.60292e-08
-6.72061e-08
-6.83833e-08
-6.9561e-08
-7.07391e-08
-7.19176e-08
-7.30965e-08
-7.42759e-08
-7.54557e-08
-7.6636e-08
-7.78167e-08
-7.89978e-08
-8.01794e-08
-8.13615e-08
-8.2544e-08
-8.37269e-08
-8.49103e-08
-8.60942e-08
-8.72785e-08
-8.84633e-08
-8.96485e-08
-9.08342e-08
-9.20204e-08
-9.32071e-08
-9.43942e-08
-9.55818e-08
-9.67699e-08
-9.79584e-08
-9.91475e-08
-1.00337e-07
-1.01527e-07
-1.02718e-07
-1.03909e-07
-1.051e-07
-1.06292e-07
-1.07485e-07
-1.08678e-07
-1.09871e-07
-1.11065e-07
-1.1226e-07
-1.13455e-07
-1.1465e-07
-1.15846e-07
-1.17043e-07
-1.1824e-07
-1.19438e-07
-1.20636e-07
-1.21835e-07
-1.23034e-07
-1.24234e-07
-1.25434e-07
-1.26635e-07
-1.27836e-07
-1.29038e-07
-1.30241e-07
-1.31444e-07
-1.32648e-07
-1.33852e-07
-1.35057e-07
-1.36262e-07
-1.37469e-07
-1.38675e-07
-1.39883e-07
-1.41089e-07
-1.423e-07
-1.43505e-07
-1.44721e-07
-1.45922e-07
-1.47146e-07
-1.48338e-07
-1.49577e-07
-1.50754e-07
-1.52014e-07
-1.53167e-07
-1.54459e-07
-1.55577e-07
-1.56912e-07
-1.57985e-07
-1.59373e-07
-1.60392e-07
-1.6184e-07
-1.62797e-07
-1.64312e-07
-1.65202e-07
-1.66792e-07
-1.67605e-07
-1.69281e-07
-1.70001e-07
-1.71785e-07
-1.72383e-07
-1.74315e-07
-1.7474e-07
-1.76879e-07
-1.77061e-07
-1.79493e-07
-1.79331e-07
-1.82169e-07
-1.81538e-07
-1.84919e-07
-1.8367e-07
-1.87751e-07
-1.85719e-07
-1.90673e-07
-1.87681e-07
-1.93686e-07
-1.89555e-07
-1.96788e-07
-1.91351e-07
-1.99964e-07
-1.93103e-07
-2.03165e-07
-1.94905e-07
-2.06282e-07
-1.96978e-07
-2.09072e-07
-1.99819e-07
-2.11003e-07
-2.04556e-07
-2.10869e-07
-2.13793e-07
-2.057e-07
-2.33674e-07
-1.86624e-07
-2.79023e-07
-1.1549e-07
-3.81849e-07
3.80128e-07
-2.17891e-07
-2.17891e-07
-0.125293
0.125293
0.0249362
0.00835836
0.00427835
0.00266188
0.0018341
0.00134672
0.00103426
0.000822081
0.000671766
0.000561631
0.000478613
0.000414466
0.000363793
0.000322959
0.000289462
0.000261541
0.000237942
0.000217755
0.000200299
0.000185057
0.000171629
0.000159718
0.000149096
0.000139581
0.000131007
0.000123224
0.000116115
0.000109606
0.000103649
9.81951e-05
9.3168e-05
8.84779e-05
8.4055e-05
7.98768e-05
7.5958e-05
7.23099e-05
6.8898e-05
6.5636e-05
6.24191e-05
5.91753e-05
5.58933e-05
5.26095e-05
4.9364e-05
4.61611e-05
4.29645e-05
3.9731e-05
3.64603e-05
3.32251e-05
3.01579e-05
2.74008e-05
2.50424e-05
2.30782e-05
2.14135e-05
1.9906e-05
1.84257e-05
1.69049e-05
1.53552e-05
1.38513e-05
1.24906e-05
1.1349e-05
1.04515e-05
9.76471e-06
9.21135e-06
8.69685e-06
8.1372e-06
7.47897e-06
6.70739e-06
5.8429e-06
4.92999e-06
4.023e-06
3.17319e-06
2.41964e-06
1.78501e-06
1.27572e-06
8.84999e-07
5.97459e-07
3.93636e-07
2.53714e-07
1.59982e-07
9.80648e-08
5.71804e-08
2.97792e-08
1.08859e-08
-2.61231e-09
-1.25912e-08
-2.01658e-08
-2.60167e-08
-3.05893e-08
-3.42039e-08
-3.71091e-08
-3.95048e-08
-4.15502e-08
-4.33682e-08
-4.50489e-08
-4.66546e-08
-4.82252e-08
-4.9784e-08
-5.13428e-08
-5.29059e-08
-5.44738e-08
-5.6045e-08
-5.76173e-08
-5.9189e-08
-6.07586e-08
-6.23254e-08
-6.38892e-08
-6.54502e-08
-6.70086e-08
-6.85651e-08
-7.01202e-08
-7.16743e-08
-7.32278e-08
-7.47811e-08
-7.63343e-08
-7.78877e-08
-7.94413e-08
-8.09951e-08
-8.25491e-08
-8.41032e-08
-8.56574e-08
-8.72115e-08
-8.87656e-08
-9.03194e-08
-9.18729e-08
-9.34262e-08
-9.4979e-08
-9.65314e-08
-9.80833e-08
-9.96348e-08
-1.01186e-07
-1.02736e-07
-1.04286e-07
-1.05835e-07
-1.07384e-07
-1.08933e-07
-1.10481e-07
-1.12028e-07
-1.13576e-07
-1.15122e-07
-1.16669e-07
-1.18215e-07
-1.1976e-07
-1.21306e-07
-1.22851e-07
-1.24396e-07
-1.25941e-07
-1.27485e-07
-1.29029e-07
-1.30573e-07
-1.32117e-07
-1.33661e-07
-1.35205e-07
-1.36749e-07
-1.38292e-07
-1.39835e-07
-1.41379e-07
-1.42922e-07
-1.44466e-07
-1.46009e-07
-1.47552e-07
-1.49095e-07
-1.50639e-07
-1.52182e-07
-1.53726e-07
-1.55269e-07
-1.56813e-07
-1.58356e-07
-1.599e-07
-1.61444e-07
-1.62988e-07
-1.64532e-07
-1.66076e-07
-1.6762e-07
-1.69164e-07
-1.70709e-07
-1.72254e-07
-1.73799e-07
-1.75344e-07
-1.76889e-07
-1.78435e-07
-1.7998e-07
-1.81526e-07
-1.83072e-07
-1.84619e-07
-1.86166e-07
-1.87712e-07
-1.8926e-07
-1.90807e-07
-1.92355e-07
-1.93903e-07
-1.95451e-07
-1.96999e-07
-1.98548e-07
-2.00097e-07
-2.01647e-07
-2.03197e-07
-2.04747e-07
-2.06297e-07
-2.07848e-07
-2.09399e-07
-2.10951e-07
-2.12502e-07
-2.14055e-07
-2.15607e-07
-2.1716e-07
-2.18713e-07
-2.20267e-07
-2.21821e-07
-2.23376e-07
-2.24931e-07
-2.26486e-07
-2.28042e-07
-2.29598e-07
-2.31154e-07
-2.32711e-07
-2.34269e-07
-2.35826e-07
-2.37385e-07
-2.38943e-07
-2.40502e-07
-2.42062e-07
-2.43622e-07
-2.45182e-07
-2.46743e-07
-2.48305e-07
-2.49867e-07
-2.51429e-07
-2.52992e-07
-2.54555e-07
-2.56119e-07
-2.57683e-07
-2.59248e-07
-2.60814e-07
-2.62379e-07
-2.63946e-07
-2.65513e-07
-2.6708e-07
-2.68648e-07
-2.70216e-07
-2.71785e-07
-2.73355e-07
-2.74925e-07
-2.76495e-07
-2.78066e-07
-2.79638e-07
-2.8121e-07
-2.82783e-07
-2.84356e-07
-2.8593e-07
-2.87505e-07
-2.8908e-07
-2.90655e-07
-2.92231e-07
-2.93808e-07
-2.95385e-07
-2.96963e-07
-2.98542e-07
-3.00121e-07
-3.017e-07
-3.0328e-07
-3.04861e-07
-3.06443e-07
-3.08025e-07
-3.09607e-07
-3.1119e-07
-3.12774e-07
-3.14359e-07
-3.15944e-07
-3.17529e-07
-3.19116e-07
-3.20703e-07
-3.2229e-07
-3.23878e-07
-3.25467e-07
-3.27057e-07
-3.28647e-07
-3.30238e-07
-3.31829e-07
-3.33421e-07
-3.35014e-07
-3.36607e-07
-3.38201e-07
-3.39796e-07
-3.41391e-07
-3.42987e-07
-3.44584e-07
-3.46182e-07
-3.4778e-07
-3.49379e-07
-3.50978e-07
-3.52578e-07
-3.54179e-07
-3.55781e-07
-3.57383e-07
-3.58986e-07
-3.6059e-07
-3.62195e-07
-3.638e-07
-3.65406e-07
-3.67012e-07
-3.6862e-07
-3.70228e-07
-3.71837e-07
-3.73447e-07
-3.75057e-07
-3.76668e-07
-3.7828e-07
-3.79893e-07
-3.81507e-07
-3.83121e-07
-3.84736e-07
-3.86352e-07
-3.87969e-07
-3.89586e-07
-3.91204e-07
-3.92824e-07
-3.94443e-07
-3.96064e-07
-3.97686e-07
-3.99308e-07
-4.00931e-07
-4.02556e-07
-4.0418e-07
-4.05806e-07
-4.07433e-07
-4.09061e-07
-4.10689e-07
-4.12318e-07
-4.13948e-07
-4.1558e-07
-4.17211e-07
-4.18846e-07
-4.20476e-07
-4.22117e-07
-4.23744e-07
-4.25394e-07
-4.27012e-07
-4.28679e-07
-4.30278e-07
-4.31974e-07
-4.3354e-07
-4.35283e-07
-4.36796e-07
-4.38607e-07
-4.40045e-07
-4.41946e-07
-4.43288e-07
-4.453e-07
-4.46525e-07
-4.48666e-07
-4.49759e-07
-4.52043e-07
-4.5299e-07
-4.55433e-07
-4.56216e-07
-4.58841e-07
-4.59425e-07
-4.62282e-07
-4.62603e-07
-4.65774e-07
-4.65727e-07
-4.6934e-07
-4.68772e-07
-4.73008e-07
-4.71707e-07
-4.76809e-07
-4.74504e-07
-4.80766e-07
-4.7714e-07
-4.849e-07
-4.79597e-07
-4.89223e-07
-4.81865e-07
-4.9374e-07
-4.83944e-07
-4.98447e-07
-4.8585e-07
-5.03311e-07
-4.87659e-07
-5.08234e-07
-4.8957e-07
-5.12982e-07
-4.9205e-07
-5.17046e-07
-4.96152e-07
-5.19311e-07
-5.04274e-07
-5.17247e-07
-5.21938e-07
-5.04625e-07
-5.62159e-07
-4.62827e-07
-6.56109e-07
-3.11704e-07
-8.68657e-07
7.17954e-07
-5.23055e-07
-5.23055e-07
-0.146488
0.146488
0.0383108
0.0142344
0.00745641
0.00467315
0.00323096
0.00237695
0.0018275
0.00145349
0.00118805
0.000993316
0.000846392
0.000732797
0.000643031
0.000570687
0.000511343
0.000461886
0.000420097
0.000384358
0.000353464
0.000326494
0.000302743
0.000281681
0.000262905
0.000246086
0.000230929
0.000217173
0.000204612
0.000193114
0.000182593
0.000172955
0.000164065
0.000155767
0.000147944
0.000140559
0.000133632
0.000127175
0.00012112
0.000115316
0.000109586
0.000103814
9.79821e-05
9.21521e-05
8.63875e-05
8.06923e-05
7.50075e-05
6.92696e-05
6.34923e-05
5.78101e-05
5.24516e-05
4.76512e-05
4.3546e-05
4.01144e-05
3.7187e-05
3.45217e-05
3.19047e-05
2.92302e-05
2.65252e-05
2.39182e-05
2.15693e-05
1.95988e-05
1.80387e-05
1.6825e-05
1.58234e-05
1.48752e-05
1.38433e-05
1.2644e-05
1.12595e-05
9.72937e-06
8.13201e-06
6.55988e-06
5.09829e-06
3.81074e-06
2.73249e-06
1.87145e-06
1.21375e-06
7.31615e-07
3.91036e-07
1.57955e-07
2.24713e-09
-1.00351e-07
-1.67928e-07
-2.13085e-07
-2.44096e-07
-2.66119e-07
-2.82263e-07
-2.94374e-07
-3.03587e-07
-3.10648e-07
-3.16097e-07
-3.20356e-07
-3.23761e-07
-3.26581e-07
-3.29022e-07
-3.31237e-07
-3.33327e-07
-3.3536e-07
-3.37373e-07
-3.39387e-07
-3.41407e-07
-3.43435e-07
-3.45468e-07
-3.47503e-07
-3.49536e-07
-3.51566e-07
-3.5359e-07
-3.5561e-07
-3.57625e-07
-3.59636e-07
-3.61644e-07
-3.63649e-07
-3.65654e-07
-3.67657e-07
-3.69661e-07
-3.71665e-07
-3.73669e-07
-3.75674e-07
-3.7768e-07
-3.79686e-07
-3.81693e-07
-3.83701e-07
-3.85708e-07
-3.87715e-07
-3.89723e-07
-3.9173e-07
-3.93737e-07
-3.95743e-07
-3.97749e-07
-3.99755e-07
-4.0176e-07
-4.03764e-07
-4.05768e-07
-4.07771e-07
-4.09773e-07
-4.11775e-07
-4.13776e-07
-4.15777e-07
-4.17777e-07
-4.19776e-07
-4.21775e-07
-4.23774e-07
-4.25773e-07
-4.27771e-07
-4.29768e-07
-4.31766e-07
-4.33763e-07
-4.3576e-07
-4.37757e-07
-4.39753e-07
-4.4175e-07
-4.43746e-07
-4.45742e-07
-4.47739e-07
-4.49735e-07
-4.51731e-07
-4.53727e-07
-4.55724e-07
-4.5772e-07
-4.59716e-07
-4.61713e-07
-4.63709e-07
-4.65706e-07
-4.67703e-07
-4.697e-07
-4.71697e-07
-4.73694e-07
-4.75692e-07
-4.77689e-07
-4.79687e-07
-4.81685e-07
-4.83683e-07
-4.85682e-07
-4.87681e-07
-4.8968e-07
-4.91679e-07
-4.93679e-07
-4.95679e-07
-4.97679e-07
-4.9968e-07
-5.01681e-07
-5.03682e-07
-5.05684e-07
-5.07686e-07
-5.09688e-07
-5.11691e-07
-5.13694e-07
-5.15698e-07
-5.17702e-07
-5.19706e-07
-5.21711e-07
-5.23716e-07
-5.25722e-07
-5.27728e-07
-5.29735e-07
-5.31742e-07
-5.3375e-07
-5.35758e-07
-5.37766e-07
-5.39776e-07
-5.41785e-07
-5.43795e-07
-5.45806e-07
-5.47817e-07
-5.49829e-07
-5.51841e-07
-5.53854e-07
-5.55868e-07
-5.57882e-07
-5.59896e-07
-5.61911e-07
-5.63927e-07
-5.65943e-07
-5.6796e-07
-5.69978e-07
-5.71996e-07
-5.74015e-07
-5.76034e-07
-5.78054e-07
-5.80075e-07
-5.82096e-07
-5.84118e-07
-5.8614e-07
-5.88164e-07
-5.90188e-07
-5.92212e-07
-5.94237e-07
-5.96263e-07
-5.9829e-07
-6.00317e-07
-6.02345e-07
-6.04374e-07
-6.06403e-07
-6.08433e-07
-6.10464e-07
-6.12496e-07
-6.14528e-07
-6.16561e-07
-6.18595e-07
-6.20629e-07
-6.22664e-07
-6.247e-07
-6.26737e-07
-6.28775e-07
-6.30813e-07
-6.32852e-07
-6.34892e-07
-6.36932e-07
-6.38974e-07
-6.41016e-07
-6.43059e-07
-6.45103e-07
-6.47147e-07
-6.49193e-07
-6.51239e-07
-6.53286e-07
-6.55334e-07
-6.57382e-07
-6.59432e-07
-6.61482e-07
-6.63533e-07
-6.65585e-07
-6.67638e-07
-6.69691e-07
-6.71746e-07
-6.73801e-07
-6.75857e-07
-6.77914e-07
-6.79972e-07
-6.82031e-07
-6.84091e-07
-6.86151e-07
-6.88213e-07
-6.90275e-07
-6.92338e-07
-6.94402e-07
-6.96467e-07
-6.98533e-07
-7.006e-07
-7.02668e-07
-7.04737e-07
-7.06806e-07
-7.08877e-07
-7.10948e-07
-7.13021e-07
-7.15094e-07
-7.17169e-07
-7.19244e-07
-7.2132e-07
-7.23398e-07
-7.25476e-07
-7.27555e-07
-7.29635e-07
-7.31717e-07
-7.33799e-07
-7.35882e-07
-7.37966e-07
-7.40052e-07
-7.42138e-07
-7.44225e-07
-7.46314e-07
-7.48403e-07
-7.50494e-07
-7.52585e-07
-7.54678e-07
-7.56772e-07
-7.58866e-07
-7.60962e-07
-7.63059e-07
-7.65157e-07
-7.67257e-07
-7.69357e-07
-7.71458e-07
-7.73561e-07
-7.75665e-07
-7.77769e-07
-7.79875e-07
-7.81983e-07
-7.84091e-07
-7.86201e-07
-7.88311e-07
-7.90423e-07
-7.92536e-07
-7.94651e-07
-7.96766e-07
-7.98883e-07
-8.01001e-07
-8.03121e-07
-8.05241e-07
-8.07364e-07
-8.09486e-07
-8.11612e-07
-8.13736e-07
-8.15866e-07
-8.17989e-07
-8.20128e-07
-8.22245e-07
-8.244e-07
-8.26501e-07
-8.28684e-07
-8.30753e-07
-8.32986e-07
-8.34998e-07
-8.37309e-07
-8.39231e-07
-8.41657e-07
-8.43451e-07