# vtk DataFile Version 2.0
FlowField
ASCII
DATASET STRUCTURED_GRID
DIMENSIONS 400 1 200
POINTS 80000 float
0 0 0
0.08 0 0
0.16 0 0
0.24 0 0
0.32 0 0
0.4 0 0
0.48 0 0
0.56 0 0
0.64 0 0
0.72 0 0
0.8 0 0
0.88 0 0
0.96 0 0
1.04 0 0
1.12 0 0
1.2 0 0
1.28 0 0
1.36 0 0
1.44 0 0
1.52 0 0
1.6 0 0
1.68 0 0
1.76 0 0
1.84 0 0
1.92 0 0
2 0 0
2.08 0 0
2.16 0 0
2.24 0 0
2.32 0 0
2.4 0 0
2.48 0 0
2.56 0 0
2.64 0 0
2.72 0 0
2.8 0 0
2.88 0 0
2.96 0 0
3.04 0 0
3.12 0 0
3.2 0 0
3.28 0 0
3.36 0 0
3.44 0 0
3.52 0 0
3.6 0 0
3.68 0 0
3.76 0 0
3.84 0 0
3.92 0 0
4 0 0
4.08 0 0
4.16 0 0
4.24 0 0
4.32 0 0
4.4 0 0
4.48 0 0
4.56 0 0
4.64 0 0
4.72 0 0
4.8 0 0
4.88 0 0
4.96 0 0
5.04 0 0
5.12 0 0
5.2 0 0
5.28 0 0
5.36 0 0
5.44 0 0
5.52 0 0
5.6 0 0
5.68 0 0
5.76 0 0
5.84 0 0
5.92 0 0
6 0 0
6.08 0 0
6.16 0 0
6.24 0 0
6.32 0 0
6.4 0 0
6.48 0 0
6.56 0 0
6.64 0 0
6.72 0 0
6.8 0 0
6.88 0 0
6.96 0 0
7.04 0 0
7.12 0 0
7.2 0 0
7.28 0 0
7.36 0 0
7.44 0 0
7.52 0 0
7.6 0 0
7.68 0 0
7.76 0 0
7.84 0 0
7.92 0 0
8 0 0
8.08 0 0
8.16 0 0
8.24 0 0
8.32 0 0
8.4 0 0
8.48 0 0
8.56 0 0
8.64 0 0
8.72 0 0
8.8 0 0
8.88 0 0
8.96 0 0
9.04 0 0
9.12 0 0
9.2 0 0
9.28 0 0
9.36 0 0
9.44 0 0
9.52 0 0
9.6 0 0
9.68 0 0
9.76 0 0
9.84 0 0
9.92 0 0
10 0 0
10.08 0 0
10.16 0 0
10.24 0 0
10.32 0 0
10.4 0 0
10.48 0 0
10.56 0 0
10.64 0 0
10.72 0 0
10.8 0 0
10.88 0 0
10.96 0 0
11.04 0 0
11.12 0 0
11.2 0 0
11.28 0 0
11.36 0 0
11.44 0 0
11.52 0 0
11.6 0 0
11.68 0 0
11.76 0 0
11.84 0 0
11.92 0 0
12 0 0
12.08 0 0
12.16 0 0
12.24 0 0
12.32 0 0
12.4 0 0
12.48 0 0
12.56 0 0
12.64 0 0
12.72 0 0
12.8 0 0
12.88 0 0
12.96 0 0
13.04 0 0
13.12 0 0
13.2 0 0
13.28 0 0
13.36 0 0
13.44 0 0
13.52 0 0
13.6 0 0
13.68 0 0
13.76 0 0
13.84 0 0
13.92 0 0
14 0 0
14.08 0 0
14.16 0 0
14.24 0 0
14.32 0 0
14.4 0 0
14.48 0 0
14.56 0 0
14.64 0 0
14.72 0 0
14.8 0 0
14.88 0 0
14.96 0 0
15.04 0 0
15.12 0 0
15.2 0 0
15.28 0 0
15.36 0 0
15.44 0 0
15.52 0 0
15.6 0 0
15.68 0 0
15.76 0 0
15.84 0 0
15.92 0 0
16 0 0
16.08 0 0
16.16 0 0
16.24 0 0
16.32 0 0
16.4 0 0
16.48 0 0
16.56 0 0
16.64 0 0
16.72 0 0
16.8 0 0
16.88 0 0
16.96 0 0
17.04 0 0
17.12 0 0
17.2 0 0
17.28 0 0
17.36 0 0
17.44 0 0
17.52 0 0
17.6 0 0
17.68 0 0
17.76 0 0
17.84 0 0
17.92 0 0
18 0 0
18.08 0 0
18.16 0 0
18.24 0 0
18.32 0 0
18.4 0 0
18.48 0 0
18.56 0 0
18.64 0 0
18.72 0 0
18.8 0 0
18.88 0 0
18.96 0 0
19.04 0 0
19.12 0 0
19.2 0 0
19.28 0 0
19.36 0 0
19.44 0 0
19.52 0 0
19.6 0 0
19.68 0 0
19.76 0 0
19.84 0 0
19.92 0 0
20 0 0
20.08 0 0
20.16 0 0
20.24 0 0
20.32 0 0
20.4 0 0
20.48 0 0
20.56 0 0
20.64 0 0
20.72 0 0
20.8 0 0
20.88 0 0
20.96 0 0
21.04 0 0
21.12 0 0
21.2 0 0
21.28 0 0
21.36 0 0
21.44 0 0
21.52 0 0
21.6 0 0
21.68 0 0
21.76 0 0
21.84 0 0
21.92 0 0
22 0 0
22.08 0 0
22.16 0 0
22.24 0 0
22.32 0 0
22.4 0 0
22.48 0 0
22.56 0 0
22.64 0 0
22.72 0 0
22.8 0 0
22.88 0 0
22.96 0 0
23.04 0 0
23.12 0 0
23.2 0 0
23.28 0 0
23.36 0 0
23.44 0 0
23.52 0 0
23.6 0 0
23.68 0 0
23.76 0 0
23.84 0 0
23.92 0 0
24 0 0
24.08 0 0
24.16 0 0
24.24 0 0
24.32 0 0
24.4 0 0
24.48 0 0
24.56 0 0
24.64 0 0
24.72 0 0
24.8 0 0
24.88 0 0
24.96 0 0
25.04 0 0
25.12 0 0
25.2 0 0
25.28 0 0
25.36 0 0
25.44 0 0
25.52 0 0
25.6 0 0
25.68 0 0
25.76 0 0
25.84 0 0
25.92 0 0
26 0 0
26.08 0 0
26.16 0 0
26.24 0 0
26.32 0 0
26.4 0 0
26.48 0 0
26.56 0 0
26.64 0 0
26.72 0 0
26.8 0 0
26.88 0 0
26.96 0 0
27.04 0 0
27.12 0 0
27.2 0 0
27.28 0 0
27.36 0 0
27.44 0 0
27.52 0 0
27.6 0 0
27.68 0 0
27.76 0 0
27.84 0 0
27.92 0 0
28 0 0
28.08 0 0
28.16 0 0
28.24 0 0
28.32 0 0
28.4 0 0
28.48 0 0
28.56 0 0
28.64 0 0
28.72 0 0
28.8 0 0
28.88 0 0
28.96 0 0
29.04 0 0
29.12 0 0
29.2 0 0
29.28 0 0
29.36 0 0
29.44 0 0
29.52 0 0
29.6 0 0
29.68 0 0
29.76 0 0
29.84 0 0
29.92 0 0
30 0 0
30.08 0 0
30.16 0 0
30.24 0 0
30.32 0 0
30.4 0 0
30.48 0 0
30.56 0 0
30.64 0 0
30.72 0 0
30.8 0 0
30.88 0 0
30.96 0 0
31.04 0 0
31.12 0 0
31.2 0 0
31.28 0 0
31.36 0 0
31.44 0 0
31.52 0 0
31.6 0 0
31.68 0 0
31.76 0 0
31.84 0 0
31.92 0 0
0 0.005 0
0.08 0.005 0
0.16 0.005 0
0.24 0.005 0
0.32 0.005 0
0.4 0.005 0
0.48 0.005 0
0.56 0.005 0
0.64 0.005 0
0.72 0.005 0
0.8 0.005 0
0.88 0.005 0
0.96 0.005 0
1.04 0.005 0
1.12 0.005 0
1.2 0.005 0
1.28 0.005 0
1.36 0.005 0
1.44 0.005 0
1.52 0.005 0
1.6 0.005 0
1.68 0.005 0
1.76 0.005 0
1.84 0.005 0
1.92 0.005 0
2 0.005 0
2.08 0.005 0
2.16 0.005 0
2.24 0.005 0
2.32 0.005 0
2.4 0.005 0
2.48 0.005 0
2.56 0.005 0
2.64 0.005 0
2.72 0.005 0
2.8 0.005 0
2.88 0.005 0
2.96 0.005 0
3.04 0.005 0
3.12 0.005 0
3.2 0.005 0
3.28 0.005 0
3.36 0.005 0
3.44 0.005 0
3.52 0.005 0
3.6 0.005 0
3.68 0.005 0
3.76 0.005 0
3.84 0.005 0
3.92 0.005 0
4 0.005 0
4.08 0.005 0
4.16 0.005 0
4.24 0.005 0
4.32 0.005 0
4.4 0.005 0
4.48 0.005 0
4.56 0.005 0
4.64 0.005 0
4.72 0.005 0
4.8 0.005 0
4.88 0.005 0
4.96 0.005 0
5.04 0.005 0
5.12 0.005 0
5.2 0.005 0
5.28 0.005 0
5.36 0.005 0
5.44 0.005 0
5.52 0.005 0
5.6 0.005 0
5.68 0.005 0
5.76 0.005 0
5.84 0.005 0
5.92 0.005 0
6 0.005 0
6.08 0.005 0
6.16 0.005 0
6.24 0.005 0
6.32 0.005 0
6.4 0.005 0
6.48 0.005 0
6.56 0.005 0
6.64 0.005 0
6.72 0.005 0
6.8 0.005 0
6.88 0.005 0
6.96 0.005 0
7.04 0.005 0
7.12 0.005 0
7.2 0.005 0
7.28 0.005 0
7.36 0.005 0
7.44 0.005 0
7.52 0.005 0
7.6 0.005 0
7.68 0.005 0
7.76 0.005 0
7.84 0.005 0
7.92 0.005 0
8 0.005 0
8.08 0.005 0
8.16 0.005 0
8.24 0.005 0
8.32 0.005 0
8.4 0.005 0
8.48 0.005 0
8.56 0.005 0
8.64 0.005 0
8.72 0.005 0
8.8 0.005 0
8.88 0.005 0
8.96 0.005 0
9.04 0.005 0
9.12 0.005 0
9.2 0.005 0
9.28 0.005 0
9.36 0.005 0
9.44 0.005 0
9.52 0.005 0
9.6 0.005 0
9.68 0.005 0
9.76 0.005 0
9.84 0.005 0
9.92 0.005 0
10 0.005 0
10.08 0.005 0
10.16 0.005 0
10.24 0.005 0
10.32 0.005 0
10.4 0.005 0
10.48 0.005 0
10.56 0.005 0
10.64 0.005 0
10.72 0.005 0
10.8 0.005 0
10.88 0.005 0
10.96 0.005 0
11.04 0.005 0
11.12 0.005 0
11.2 0.005 0
11.28 0.005 0
11.36 0.005 0
11.44 0.005 0
11.52 0.005 0
11.6 0.005 0
11.68 0.005 0
11.76 0.005 0
11.84 0.005 0
11.92 0.005 0
12 0.005 0
12.08 0.005 0
12.16 0.005 0
12.24 0.005 0
12.32 0.005 0
12.4 0.005 0
12.48 0.005 0
12.56 0.005 0
12.64 0.005 0
12.72 0.005 0
12.8 0.005 0
12.88 0.005 0
12.96 0.005 0
13.04 0.005 0
13.12 0.005 0
13.2 0.005 0
13.28 0.005 0
13.36 0.005 0
13.44 0.005 0
13.52 0.005 0
13.6 0.005 0
13.68 0.005 0
13.76 0.005 0
13.84 0.005 0
13.92 0.005 0
14 0.005 0
14.08 0.005 0
14.16 0.005 0
14.24 0.005 0
14.32 0.005 0
14.4 0.005 0
14.48 0.005 0
14.56 0.005 0
14.64 0.005 0
14.72 0.005 0
14.8 0.005 0
14.88 0.005 0
14.96 0.005 0
15.04 0.005 0
15.12 0.005 0
15.2 0.005 0
15.28 0.005 0
15.36 0.005 0
15.44 0.005 0
15.52 0.005 0
15.6 0.005 0
15.68 0.005 0
15.76 0.005 0
15.84 0.005 0
15.92 0.005 0
16 0.005 0
16.08 0.005 0
16.16 0.005 0
16.24 0.005 0
16.32 0.005 0
16.4 0.005 0
16.48 0.005 0
16.56 0.005 0
16.64 0.005 0
16.72 0.005 0
16.8 0.005 0
16.88 0.005 0
16.96 0.005 0
17.04 0.005 0
17.12 0.005 0
17.2 0.005 0
17.28 0.005 0
17.36 0.005 0
17.44 0.005 0
17.52 0.005 0
17.6 0.005 0
17.68 0.005 0
17.76 0.005 0
17.84 0.005 0
17.92 0.005 0
18 0.005 0
18.08 0.005 0
18.16 0.005 0
18.24 0.005 0
18.32 0.005 0
18.4 0.005 0
18.48 0.005 0
18.56 0.005 0
18.64 0.005 0
18.72 0.005 0
18.8 0.005 0
18.88 0.005 0
18.96 0.005 0
19.04 0.005 0
19.12 0.005 0
19.2 0.005 0
19.28 0.005 0
19.36 0.005 0
19.44 0.005 0
19.52 0.005 0
19.6 0.005 0
19.68 0.005 0
19.76 0.005 0
19.84 0.005 0
19.92 0.005 0
20 0.005 0
20.08 0.005 0
20.16 0.005 0
20.24 0.005 0
20.32 0.005 0
20.4 0.005 0
20.48 0.005 0
20.56 0.005 0
20.64 0.005 0
20.72 0.005 0
20.8 0.005 0
20.88 0.005 0
20.96 0.005 0
21.04 0.005 0
21.12 0.005 0
21.2 0.005 0
21.28 0.005 0
21.36 0.005 0
21.44 0.005 0
21.52 0.005 0
21.6 0.005 0
21.68 0.005 0
21.76 0.005 0
21.84 0.005 0
21.92 0.005 0
22 0.005 0
22.08 0.005 0
22.16 0.005 0
22.24 0.005 0
22.32 0.005 0
22.4 0.005 0
22.48 0.005 0
22.56 0.005 0
22.64 0.005 0
22.72 0.005 0
22.8 0.005 0
22.88 0.005 0
22.96 0.005 0
23.04 0.005 0
23.12 0.005 0
23.2 0.005 0
23.28 0.005 0
23.36 0.005 0
23.44 0.005 0
23.52 0.005 0
23.6 0.005 0
23.68 0.005 0
23.76 0.005 0
23.84 0.005 0
23.92 0.005 0
24 0.005 0
24.08 0.005 0
24.16 0.005 0
24.24 0.005 0
24.32 0.005 0
24.4 0.005 0
24.48 0.005 0
24.56 0.005 0
24.64 0.005 0
24.72 0.005 0
24.8 0.005 0
24.88 0.005 0
24.96 0.005 0
25.04 0.005 0
25.12 0.005 0
25.2 0.005 0
25.28 0.005 0
25.36 0.005 0
25.44 0.005 0
25.52 0.005 0
25.6 0.005 0
25.68 0.005 0
25.76 0.005 0
25.84 0.005 0
25.92 0.005 0
26 0.005 0
26.08 0.005 0
26.16 0.005 0
26.24 0.005 0
26.32 0.005 0
26.4 0.005 0
26.48 0.005 0
26.56 0.005 0
26.64 0.005 0
26.72 0.005 0
26.8 0.005 0
26.88 0.005 0
26.96 0.005 0
27.04 0.005 0
27.12 0.005 0
27.2 0.005 0
27.28 0.005 0
27.36 0.005 0
27.44 0.005 0
27.52 0.005 0
27.6 0.005 0
27.68 0.005 0
27.76 0.005 0
27.84 0.005 0
27.92 0.005 0
28 0.005 0
28.08 0.005 0
28.16 0.005 0
28.24 0.005 0
28.32 0.005 0
28.4 0.005 0
28.48 0.005 0
28.56 0.005 0
28.64 0.005 0
28.72 0.005 0
28.8 0.005 0
28.88 0.005 0
28.96 0.005 0
29.04 0.005 0
29.12 0.005 0
29.2 0.005 0
29.28 0.005 0
29.36 0.005 0
29.44 0.005 0
29.52 0.005 0
29.6 0.005 0
29.68 0.005 0
29.76 0.005 0
29.84 0.005 0
29.92 0.005 0
30 0.005 0
30.08 0.005 0
30.16 0.005 0
30.24 0.005 0
30.32 0.005 0
30.4 0.005 0
30.48 0.005 0
30.56 0.005 0
30.64 0.005 0
30.72 0.005 0
30.8 0.005 0
30.88 0.005 0
30.96 0.005 0
31.04 0.005 0
31.12 0.005 0
31.2 0.005 0
31.28 0.005 0
31.36 0.005 0
31.44 0.005 0
31.52 0.005 0
31.6 0.005 0
31.68 0.005 0
31.76 0.005 0
31.84 0.005 0
31.92 0.005 0
0 0.01 0
0.08 0.01 0
0.16 0.01 0
0.24 0.01 0
0.32 0.01 0
0.4 0.01 0
0.48 0.01 0
0.56 0.01 0
0.64 0.01 0
0.72 0.01 0
0.8 0.01 0
0.88 0.01 0
0.96 0.01 0
1.04 0.01 0
1.12 0.01 0
1.2 0.01 0
1.28 0.01 0
1.36 0.01 0
1.44 0.01 0
1.52 0.01 0
1.6 0.01 0
1.68 0.01 0
1.76 0.01 0
1.84 0.01 0
1.92 0.01 0
2 0.01 0
2.08 0.01 0
2.16 0.01 0
2.24 0.01 0
2.32 0.01 0
2.4 0.01 0
2.48 0.01 0
2.56 0.01 0
2.64 0.01 0
2.72 0.01 0
2.8 0.01 0
2.88 0.01 0
2.96 0.01 0
3.04 0.01 0
3.12 0.01 0
3.2 0.01 0
3.28 0.01 0
3.36 0.01 0
3.44 0.01 0
3.52 0.01 0
3.6 0.01 0
3.68 0.01 0
3.76 0.01 0
3.84 0.01 0
3.92 0.01 0
4 0.01 0
4.08 0.01 0
4.16 0.01 0
4.24 0.01 0
4.32 0.01 0
4.4 0.01 0
4.48 0.01 0
4.56 0.01 0
4.64 0.01 0
4.72 0.01 0
4.8 0.01 0
4.88 0.01 0
4.96 0.01 0
5.04 0.01 0
5.12 0.01 0
[...]
POINT_DATA 80000

SCALARS p float 1
LOOKUP_TABLE default
1
68.1803
67.8777
67.8393
67.8267
67.8201
67.8134
67.8055
67.7965
67.7867
67.7766
67.7662
67.7555
67.7448
67.734
67.7231
67.7121
67.7011
67.6901
67.679
67.6679
67.6567
67.6456
67.6343
67.6231
67.6118
67.6005
67.5891
67.5777
67.5663
67.5548
67.5433
67.5318
67.5202
67.5086
67.4969
67.4852
67.4735
67.4617
67.4499
67.4381
67.4262
67.4142
67.4022
67.3902
67.3782
67.366
67.3539
67.3417
67.3294
67.3172
67.3048
67.2924
67.28
67.2675
67.255
67.2424
67.2298
67.2171
67.2044
67.1916
67.1788
67.1659
67.1529
67.1399
67.1269
67.1138
67.1006
67.0874
67.0741
67.0608
67.0474
67.034
67.0205
67.0069
66.9933
66.9796
66.9659
66.9521
66.9382
66.9243
66.9103
66.8962
66.8821
66.8679
66.8536
66.8393
66.8249
66.8105
66.7959
66.7813
66.7667
66.7519
66.7371
66.7222
66.7072
66.6922
66.6771
66.6619
66.6466
66.6312
66.6158
66.6002
66.5846
66.5689
66.5531
66.5372
66.5212
66.5051
66.489
66.4727
66.4563
66.4398
66.4233
66.4066
66.3898
66.3729
66.3558
66.3387
66.3215
66.3041
66.2866
66.269
66.2513
66.2334
66.2154
66.1973
66.1791
66.1607
66.1422
66.1235
66.1047
66.0858
66.0667
66.0474
66.028
66.0085
65.9888
65.9689
65.9489
65.9287
65.9083
65.8878
65.867
65.8461
65.825
65.8037
65.7822
65.7605
65.7386
65.7165
65.6942
65.6716
65.6488
65.6257
65.6025
65.5789
65.5551
65.531
65.5067
65.4821
65.4571
65.4319
65.4064
65.3806
65.3544
65.3279
65.301
65.2738
65.2462
65.2182
65.1898
65.161
65.1317
65.1021
65.0719
65.0413
65.0102
64.9786
64.9464
64.9137
64.8804
64.8465
64.8119
64.7767
64.7407
64.704
64.6665
64.6281
64.5889
64.5486
64.5073
64.4649
64.4213
64.3762
64.3297
64.2815
64.2314
64.1792
64.1246
64.0672
64.0068
63.9427
63.8745
63.8015
63.723
63.638
63.5456
63.4445
63.3335
63.2109
63.075
62.9239
62.7553
62.5668
62.3557
62.1191
61.8538
61.5564
61.2232
60.8504
60.434
59.9699
59.4541
58.8823
58.2506
57.555
56.792
55.9582
55.051
54.0681
53.0079
51.8695
50.6531
49.3594
47.9906
46.5494
45.0397
43.4667
41.8361
40.1549
38.4308
36.6722
34.8881
33.088
31.2817
29.479
27.6897
25.9234
24.1893
22.496
20.8514
19.2628
17.7362
16.2771
14.8898
13.5775
12.3427
11.1866
10.1097
9.11157
8.19106
7.34627
6.57474
5.87351
5.23922
4.66818
4.1565
3.70014
3.295
2.93698
2.62203
2.34623
2.1058
1.89713
1.71684
1.56176
1.42895
1.3157
1.21957
1.13831
1.06993
1.01263
0.96482
0.925104
0.89225
0.86519
0.842996
0.82487
0.81013
0.798193
0.788566
0.780837
0.774655
0.769733
0.76583
0.762747
0.760323
0.758424
0.756943
0.755793
0.754904
0.754218
0.753692
0.753291
0.752985
0.752753
0.752578
0.752447
0.752349
0.752276
0.752221
0.752181
0.752152
0.75213
0.752115
0.752103
0.752095
0.752089
0.752085
0.752083
0.752081
0.752079
0.752079
0.752078
0.752078
0.752078
0.752078
0.752078
0.752078
0.752078
0.752079
0.752079
0.752079
0.75208
0.75208
0.75208
0.752081
0.752081
0.752081
0.752082
0.752082
0.752082
0.752082
0.752083
0.752083
0.752083
0.752084
0.752084
0.752084
0.752085
0.752085
0.752085
0.752085
0.752086
0.752086
0.752086
0.752087
0.752087
0.752087
0.752087
0.752088
0.752088
0.752088
0.752088
0.752089
0.752089
0.752089
0.75209
0.75209
0.75209
0.75209
0.752091
0.752091
0.752091
0.752091
0.752092
0.752092
0.752092
0.752092
0.752093
0.752093
0.752093
0.752093
0.752094
0.752094
0.752094
0.752094
0.752095
0.752095
0.752095
0.752095
0.752096
0.752096
0.752096
0.752096
0.752097
0.752097
0.752097
0.5
68.1803
68.1803
67.8777
67.8393
67.8267
67.8201
67.8134
67.8055
67.7965
67.7867
67.7766
67.7662
67.7555
67.7448
67.734
67.7231
67.7121
67.7011
67.6901
67.679
67.6679
67.6567
67.6456
67.6343
67.6231
67.6118
67.6005
67.5891
67.5777
67.5663
67.5548
67.5433
67.5318
67.5202
67.5086
67.4969
67.4852
67.4735
67.4617
67.4499
67.4381
67.4262
67.4142
67.4022
67.3902
67.3782
67.366
67.3539
67.3417
67.3294
67.3172
67.3048
67.2924
67.28
67.2675
67.255
67.2424
67.2298
67.2171
67.2044
67.1916
67.1788
67.1659
67.1529
67.1399
67.1269
67.1138
67.1006
67.0874
67.0741
67.0608
67.0474
67.034
67.0205
67.0069
66.9933
66.9796
66.9659
66.9521
66.9382
66.9243
66.9103
66.8962
66.8821
66.8679
66.8536
66.8393
66.8249
66.8105
66.7959
66.7813
66.7667
66.7519
66.7371
66.7222
66.7072
66.6922
66.6771
66.6619
66.6466
66.6312
66.6158
66.6002
66.5846
66.5689
66.5531
66.5372
66.5212
66.5051
66.489
66.4727
66.4563
66.4398
66.4233
66.4066
66.3898
66.3729
66.3558
66.3387
66.3215
66.3041
66.2866
66.269
66.2513
66.2334
66.2154
66.1973
66.1791
66.1607
66.1422
66.1235
66.1047
66.0858
66.0667
66.0474
66.028
66.0085
65.9888
65.9689
65.9489
65.9287
65.9083
65.8878
65.867
65.8461
65.825
65.8037
65.7822
65.7605
65.7386
65.7165
65.6942
65.6716
65.6488
65.6257
65.6025
65.5789
65.5551
65.531
65.5067
65.4821
65.4571
65.4319
65.4064
65.3806
65.3544
65.3279
65.301
65.2738
65.2462
65.2182
65.1898
65.161
65.1317
65.1021
65.0719
65.0413
65.0102
64.9786
64.9464
64.9137
64.8804
64.8465
64.8119
64.7767
64.7407
64.704
64.6665
64.6281
64.5889
64.5486
64.5073
64.4649
64.4213
64.3762
64.3297
64.2815
64.2314
64.1792
64.1246
64.0672
64.0068
63.9427
63.8745
63.8015
63.723
63.638
63.5456
63.4445
63.3335
63.2109
63.075
62.9239
62.7553
62.5668
62.3557
62.1191
61.8538
61.5564
61.2232
60.8504
60.434
59.9699
59.4541
58.8823
58.2506
57.555
56.792
55.9582
55.051
54.0681
53.0079
51.8695
50.6531
49.3594
47.9906
46.5494
45.0397
43.4667
41.8361
40.1549
38.4308
36.6722
34.8881
33.088
31.2817
29.479
27.6897
25.9234
24.1893
22.496
20.8514
19.2628
17.7362
16.2771
14.8898
13.5775
12.3427
11.1866
10.1097
9.11157
8.19106
7.34627
6.57474
5.87351
5.23922
4.66818
4.1565
3.70014
3.295
2.93698
2.62203
2.34623
2.1058
1.89713
1.71684
1.56176
1.42895
1.3157
1.21957
1.13831
1.06993
1.01263
0.96482
0.925104
0.89225
0.86519
0.842996
0.82487
0.81013
0.798193
0.788566
0.780837
0.774655
0.769733
0.76583
0.762747
0.760323
0.758424
0.756943
0.755793
0.754904
0.754218
0.753692
0.753291
0.752985
0.752753
0.752578
0.752447
0.752349
0.752276
0.752221
0.752181
0.752152
0.75213
0.752115
0.752103
0.752095
0.752089
0.752085
0.752083
0.752081
0.752079
0.752079
0.752078
0.752078
0.752078
0.752078
0.752078
0.752078
0.752078
0.752079
0.752079
0.752079
0.75208
0.75208
0.75208
0.752081
0.752081
0.752081
0.752082
0.752082
0.752082
0.752082
0.752083
0.752083
0.752083
0.752084
0.752084
0.752084
0.752085
0.752085
0.752085
0.752085
0.752086
0.752086
0.752086
0.752087
0.752087
0.752087
0.752087
0.752088
0.752088
0.752088
0.752088
0.752089
0.752089
0.752089
0.75209
0.75209
0.75209
0.75209
0.752091
0.752091
0.752091
0.752091
0.752092
0.752092
0.752092
0.752092
0.752093
0.752093
0.752093
0.752093
0.752094
0.752094
0.752094
0.752094
0.752095
0.752095
0.752095
0.752095
0.752096
0.752096
0.752096
0.752096
0.752097
0.752097
0.752097
0.752097
68.1658
68.1658
67.8815
67.8403
67.827
67.8202
67.8134
67.8055
67.7965
67.7867
67.7766
67.7662
67.7555
67.7448
67.734
67.7231
67.7121
67.7011
67.6901
67.679
67.6679
67.6567
67.6456
67.6343
67.6231
67.6118
67.6005
67.5891
67.5777
67.5663
67.5548
67.5433
67.5318
67.5202
67.5086
67.4969
67.4852
67.4735
67.4617
67.4499
67.4381
67.4262
67.4142
67.4022
67.3902
67.3782
67.366
67.3539
67.3417
67.3294
67.3171
67.3048
67.2924
67.28
67.2675
67.255
67.2424
67.2298
67.2171
67.2044
67.1916
67.1788
67.1659
67.1529
67.1399
67.1269
67.1138
67.1006
67.0874
67.0741
67.0608
67.0474
67.034
67.0205
67.0069
66.9933
66.9796
66.9659
66.9521
66.9382
66.9243
66.9103
66.8962
66.8821
66.8679
66.8536
66.8393
66.8249
66.8105
66.7959
66.7813
66.7667
66.7519
66.7371
66.7222
66.7072
66.6922
66.6771
66.6619
66.6466
66.6312
66.6158
66.6002
66.5846
66.5689
66.5531
66.5372
66.5212
66.5051
66.489
66.4727
66.4563
66.4398
66.4232
66.4066
66.3898
66.3729
66.3558
66.3387
66.3215
66.3041
66.2866
66.269
66.2513
66.2334
66.2154
66.1973
66.1791
66.1607
66.1422
66.1235
66.1047
66.0858
66.0667
66.0474
66.028
66.0085
65.9888
65.9689
65.9489
65.9287
65.9083
65.8877
65.867
65.8461
65.825
65.8037
65.7822
65.7605
65.7386
65.7165
65.6941
65.6716
65.6488
65.6257
65.6024
65.5789
65.5551
65.531
65.5067
65.4821
65.4571
65.4319
65.4064
65.3805
65.3544
65.3278
65.301
65.2737
65.2461
65.2181
65.1898
65.161
65.1317
65.102
65.0719
65.0413
65.0102
64.9786
64.9464
64.9137
64.8804
64.8464
64.8119
64.7766
64.7407
64.704
64.6664
64.6281
64.5888
64.5486
64.5073
64.4649
64.4212
64.3762
64.3296
64.2814
64.2313
64.1791
64.1245
64.0672
64.0067
63.9427
63.8745
63.8015
63.7229
63.6379
63.5455
63.4444
63.3333
63.2107
63.0749
62.9237
62.7552
62.5667
62.3556
62.119
61.8537
61.5563
61.2231
60.8503
60.434
59.97
59.4542
58.8825
58.2508
57.5553
56.7924
55.9588
55.0517
54.0689
53.0088
51.8706
50.6543
49.3608
47.9922
46.5511
45.0417
43.4688
41.8384
40.1574
38.4335
36.675
34.8911
33.0911
31.2849
29.4823
27.693
25.9268
24.1927
22.4994
20.8549
19.2661
17.7395
16.2803
14.8929
13.5806
12.3456
11.1893
10.1123
9.11403
8.19336
7.34841
6.57673
5.87534
5.2409
4.66971
4.15789
3.7014
3.29613
2.93799
2.62293
2.34702
2.1065
1.89775
1.71738
1.56223
1.42935
1.31605
1.21987
1.13857
1.07014
1.01281
0.964973
0.925232
0.892357
0.865279
0.843069
0.824931
0.810179
0.798233
0.788599
0.780863
0.774677
0.76975
0.765843
0.762758
0.760332
0.758431
0.756949
0.755797
0.754907
0.754221
0.753694
0.753292
0.752986
0.752754
0.752579
0.752448
0.752349
0.752276
0.752222
0.752181
0.752152
0.75213
0.752115
0.752103
0.752095
0.752089
0.752085
0.752083
0.752081
0.752079
0.752079
0.752078
0.752078
0.752078
0.752078
0.752078
0.752078
0.752078
0.752079
0.752079
0.752079
0.75208
0.75208
0.75208
0.752081
0.752081
0.752081
0.752082
0.752082
0.752082
0.752082
0.752083
0.752083
0.752083
0.752084
0.752084
0.752084
0.752085
0.752085
0.752085
0.752085
0.752086
0.752086
0.752086
0.752087
0.752087
0.752087
0.752087
0.752088
0.752088
0.752088
0.752088
0.752089
0.752089
0.752089
0.75209
0.75209
0.75209
0.75209
0.752091
0.752091
0.752091
0.752091
0.752092
0.752092
0.752092
0.752092
0.752093
0.752093
0.752093
0.752093
0.752094
0.752094
0.752094
0.752094
0.752095
0.752095
0.752095
0.752095
0.752096
0.752096
0.752096
0.752096
0.752097
0.752097
0.752097
0.752097
68.1498
68.1498
67.8846
67.8412
67.8273
67.8202
67.8135
67.8055
67.7965
67.7867
67.7766
67.7661
67.7555
67.7448
67.734
67.7231
67.7121
67.7011
67.6901
67.679
67.6679
67.6567
67.6455
67.6343
67.6231
67.6118
67.6005
67.5891
67.5777
67.5663
67.5548
67.5433
67.5318
67.5202
67.5086
67.4969
67.4852
67.4735
67.4617
67.4499
67.438
67.4262
67.4142
67.4022
67.3902
67.3781
67.366
67.3539
67.3417
67.3294
67.3171
67.3048
67.2924
67.28
67.2675
67.255
67.2424
67.2298
67.2171
67.2044
67.1916
67.1787
67.1659
67.1529
67.1399
67.1269
67.1138
67.1006
67.0874
67.0741
67.0608
67.0474
67.034
67.0205
67.0069
66.9933
66.9796
66.9659
66.9521
66.9382
66.9243
66.9103
66.8962
66.8821
66.8679
66.8536
66.8393
66.8249
66.8104
66.7959
66.7813
66.7666
66.7519
66.7371
66.7222
66.7072
66.6922
66.677
66.6618
66.6466
66.6312
66.6157
66.6002
66.5846
66.5689
66.5531
66.5372
66.5212
66.5051
66.4889
66.4727
66.4563
66.4398
66.4232
66.4065
66.3897
66.3728
66.3558
66.3387
66.3214
66.3041
66.2866
66.269
66.2512
66.2334
66.2154
66.1973
66.179
66.1607
66.1421
66.1235
66.1047
66.0857
66.0666
66.0474
66.028
66.0085
65.9887
65.9689
65.9488
65.9286
65.9083
65.8877
65.867
65.8461
65.825
65.8037
65.7822
65.7605
65.7386
65.7164
65.6941
65.6715
65.6487
65.6257
65.6024
65.5789
65.5551
65.531
65.5066
65.482
65.4571
65.4319
65.4063
65.3805
65.3543
65.3278
65.3009
65.2737
65.2461
65.2181
65.1897
65.1609
65.1317
65.102
65.0719
65.0412
65.0101
64.9785
64.9463
64.9136
64.8803
64.8464
64.8118
64.7766
64.7406
64.7039
64.6664
64.628
64.5887
64.5485
64.5072
64.4648
64.4211
64.3761
64.3295
64.2813
64.2312
64.179
64.1244
64.067
64.0066
63.9425
63.8743
63.8013
63.7227
63.6377
63.5452
63.4441
63.3331
63.2104
63.0745
62.9234
62.7548
62.5663
62.3552
62.1185
61.8532
61.5557
61.2225
60.8497
60.4333
59.9693
59.4534
58.8817
58.25
57.5545
56.7916
55.9579
55.0508
54.0681
53.008
51.8698
50.6536
49.3602
47.9916
46.5506
45.0413
43.4685
41.8382
40.1573
38.4335
36.6752
34.8913
33.0915
31.2854
29.4829
27.6938
25.9277
24.1937
22.5005
20.8559
19.2673
17.7407
16.2815
14.8941
13.5818
12.3468
11.1905
10.1135
9.11516
8.19444
7.34944
6.5777
5.87626
5.24176
4.67051
4.15863
3.70207
3.29675
2.93854
2.62343
2.34748
2.1069
1.8981
1.7177
1.5625
1.42959
1.31626
1.22005
1.13872
1.07028
1.01293
0.965071
0.925315
0.892427
0.865337
0.843118
0.824971
0.810212
0.79826
0.788622
0.780881
0.774691
0.769762
0.765853
0.762766
0.760338
0.758436
0.756953
0.7558
0.754909
0.754222
0.753696
0.753293
0.752987
0.752755
0.75258
0.752448
0.752349
0.752276
0.752222
0.752182
0.752152
0.75213
0.752115
0.752103
0.752095
0.752089
0.752085
0.752083
0.752081
0.752079
0.752079
0.752078
0.752078
0.752078
0.752078
0.752078
0.752078
0.752078
0.752079
0.752079
0.752079
0.75208
0.75208
0.75208
0.752081
0.752081
0.752081
0.752082
0.752082
0.752082
0.752082
0.752083
0.752083
0.752083
0.752084
0.752084
0.752084
0.752085
0.752085
0.752085
0.752085
0.752086
0.752086
0.752086
0.752087
0.752087
0.752087
0.752087
0.752088
0.752088
0.752088
0.752088
0.752089
0.752089
0.752089
0.75209
0.75209
0.75209
0.75209
0.752091
0.752091
0.752091
0.752091
0.752092
0.752092
0.752092
0.752092
0.752093
0.752093
0.752093
0.752093
0.752094
0.752094
0.752094
0.752094
0.752095
0.752095
0.752095
0.752095
0.752096
0.752096
0.752096
0.752096
0.752097
0.752097
0.752097
0.752097
68.1339
68.1339
67.8874
67.8421
67.8276
67.8203
67.8135
67.8055
67.7965
67.7867
67.7766
67.7661
67.7555
67.7448
67.734
67.7231
67.7121
67.7011
67.6901
67.679
67.6679
67.6567
67.6455
67.6343
67.6231
67.6118
67.6005
67.5891
67.5777
67.5663
67.5548
67.5433
67.5318
67.5202
67.5086
67.4969
67.4852
67.4735
67.4617
67.4499
67.438
67.4261
67.4142
67.4022
67.3902
67.3781
67.366
67.3539
67.3417
67.3294
67.3171
67.3048
67.2924
67.28
67.2675
67.255
67.2424
67.2298
67.2171
67.2043
67.1916
67.1787
67.1658
67.1529
67.1399
67.1269
67.1138
67.1006
67.0874
67.0741
67.0608
67.0474
67.034
67.0205
67.0069
66.9933
66.9796
66.9658
66.952
66.9382
66.9242
66.9102
66.8962
66.8821
66.8679
66.8536
66.8393
66.8249
66.8104
66.7959
66.7813
66.7666
66.7519
66.7371
66.7222
66.7072
66.6922
66.677
66.6618
66.6465
66.6312
66.6157
66.6002
66.5846
66.5689
66.5531
66.5372
66.5212
66.5051
66.4889
66.4726
66.4563
66.4398
66.4232
66.4065
66.3897
66.3728
66.3558
66.3387
66.3214
66.3041
66.2866
66.269
66.2512
66.2334
66.2154
66.1973
66.179
66.1606
66.1421
66.1235
66.1047
66.0857
66.0666
66.0474
66.028
66.0084
65.9887
65.9689
65.9488
65.9286
65.9082
65.8877
65.867
65.846
65.8249
65.8036
65.7821
65.7604
65.7385
65.7164
65.6941
65.6715
65.6487
65.6257
65.6024
65.5788
65.555
65.5309
65.5066
65.482
65.4571
65.4318
65.4063
65.3804
65.3543
65.3277
65.3009
65.2736
65.246
65.218
65.1897
65.1608
65.1316
65.1019
65.0718
65.0412
65.0101
64.9784
64.9463
64.9136
64.8802
64.8463
64.8117
64.7765
64.7405
64.7038
64.6663
64.6279
64.5887
64.5484
64.5071
64.4647
64.421
64.376
64.3294
64.2812
64.2311
64.1789
64.1242
64.0669
64.0064
63.9423
63.8741
63.8011
63.7225
63.6375
63.545
63.4439
63.3328
63.2101
63.0742
62.923
62.7544
62.5658
62.3547
62.118
61.8527
61.5552
61.2219
60.849
60.4326
59.9686
59.4527
58.8809
58.2492
57.5537
56.7907
55.9571
55.05
54.0672
53.0072
51.8691
50.6529
49.3595
47.991
46.5501
45.0409
43.4682
41.838
40.1572
38.4335
36.6753
34.8916
33.0919
31.2859
29.4835
27.6945
25.9285
24.1946
22.5015
20.857
19.2684
17.7419
16.2827
14.8953
13.583
12.348
11.1917
10.1146
9.11628
8.19552
7.35047
6.57868
5.87718
5.24261
4.67131
4.15936
3.70275
3.29736
2.9391
2.62394
2.34793
2.1073
1.89846
1.71801
1.56278
1.42984
1.31647
1.22023
1.13888
1.07041
1.01304
0.965169
0.925397
0.892496
0.865395
0.843166
0.825011
0.810246
0.798288
0.788644
0.780899
0.774706
0.769774
0.765862
0.762773
0.760344
0.758441
0.756956
0.755803
0.754911
0.754224
0.753697
0.753294
0.752988
0.752755
0.75258
0.752448
0.75235
0.752276
0.752222
0.752182
0.752152
0.75213
0.752115
0.752103
0.752095
0.752089
0.752085
0.752083
0.752081
0.752079
0.752079
0.752078
0.752078
0.752078
0.752078
0.752078
0.752078
0.752078
0.752079
0.752079
0.752079
0.75208
0.75208
0.75208
0.752081
0.752081
0.752081
0.752082
0.752082
0.752082
0.752082
0.752083
0.752083
0.752083
0.752084
0.752084
0.752084
0.752085
0.752085
0.752085
0.752085
0.752086
0.752086
0.752086
0.752087
0.752087
0.752087
0.752087
0.752088
0.752088
0.752088
0.752088
0.752089
0.752089
0.752089
0.75209
0.75209
0.75209
0.75209
0.752091
0.752091
0.752091
0.752091
0.752092
0.752092
0.752092
0.752092
0.752093
0.752093
0.752093
0.752093
0.752094
0.752094
0.752094
0.752094
0.752095
0.752095
0.752095
0.752095
0.752096
0.752096
0.752096
0.752096
0.752097
0.752097
0.752097
0.752097
68.1188
68.1188
67.8901
67.843
67.8279
67.8204
67.8135
67.8055
67.7965
67.7867
67.7766
67.7661
67.7555
67.7448
67.7339
67.723
67.7121
67.7011
67.6901
67.679
67.6679
67.6567
67.6455
67.6343
67.6231
67.6118
67.6004
67.5891
67.5777
67.5663
67.5548
67.5433
67.5318
67.5202
67.5086
67.4969
67.4852
67.4735
67.4617
67.4499
67.438
67.4261
67.4142
67.4022
67.3902
67.3781
67.366
67.3539
67.3417
67.3294
67.3171
67.3048
67.2924
67.28
67.2675
67.255
67.2424
67.2297
67.2171
67.2043
67.1916
67.1787
67.1658
67.1529
67.1399
67.1269
67.1137
67.1006
67.0874
67.0741
67.0608
67.0474
67.034
67.0204
67.0069
66.9933
66.9796
66.9658
66.952
66.9382
66.9242
66.9102
66.8962
66.882
66.8679
66.8536
66.8393
66.8249
66.8104
66.7959
66.7813
66.7666
66.7519
66.737
66.7222
66.7072
66.6921
66.677
66.6618
66.6465
66.6312
66.6157
66.6002
66.5845
66.5688
66.553
66.5371
66.5212
66.5051
66.4889
66.4726
66.4562
66.4398
66.4232
66.4065
66.3897
66.3728
66.3558
66.3386
66.3214
66.304
66.2865
66.2689
66.2512
66.2333
66.2154
66.1972
66.179
66.1606
66.1421
66.1234
66.1046
66.0857
66.0666
66.0473
66.028
66.0084
65.9887
65.9688
65.9488
65.9286
65.9082
65.8877
65.8669
65.846
65.8249
65.8036
65.7821
65.7604
65.7385
65.7164
65.694
65.6715
65.6487
65.6256
65.6023
65.5788
65.555
65.5309
65.5066
65.4819
65.457
65.4318
65.4063
65.3804
65.3542
65.3277
65.3008
65.2736
65.246
65.218
65.1896
65.1608
65.1316
65.1019
65.0717
65.0411
65.01
64.9784
64.9462
64.9135
64.8802
64.8462
64.8117
64.7764
64.7404
64.7037
64.6662
64.6278
64.5886
64.5483
64.507
64.4646
64.4209
64.3759
64.3293
64.2811
64.231
64.1787
64.1241
64.0667
64.0063
63.9422
63.8739
63.8009
63.7223
63.6373
63.5448
63.4436
63.3325
63.2098
63.0739
62.9227
62.754
62.5654
62.3542
62.1176
61.8521
61.5546
61.2213
60.8484
60.4319
59.9678
59.4519
58.8802
58.2484
57.5529
56.7899
55.9563
55.0492
54.0664
53.0064
51.8683
50.6522
49.3589
47.9904
46.5496
45.0404
43.4679
41.8378
40.1571
38.4335
36.6755
34.8919
33.0923
31.2864
29.4841
27.6953
25.9293
24.1955
22.5025
20.8581
19.2695
17.743
16.2839
14.8965
13.5842
12.3492
11.1929
10.1158
9.1174
8.19659
7.3515
6.57965
5.8781
5.24347
4.6721
4.1601
3.70342
3.29798
2.93966
2.62444
2.34838
2.10771
1.89882
1.71833
1.56306
1.43008
1.31668
1.22041
1.13904
1.07055
1.01316
0.965267
0.92548
0.892566
0.865453
0.843215
0.825051
0.810279
0.798315
0.788666
0.780918
0.774721
0.769786
0.765872
0.762781
0.76035
0.758446
0.75696
0.755806
0.754914
0.754226
0.753698
0.753295
0.752989
0.752756
0.752581
0.752449
0.75235
0.752277
0.752222
0.752182
0.752152
0.752131
0.752115
0.752103
0.752095
0.752089
0.752085
0.752083
0.752081
0.752079
0.752079
0.752078
0.752078
0.752078
0.752078
0.752078
0.752078
0.752078
0.752079
0.752079
0.752079
0.75208
0.75208
0.75208
0.752081
0.752081
0.752081
0.752082
0.752082
0.752082
0.752082
0.752083
0.752083
0.752083
0.752084
0.752084
0.752084
0.752085
0.752085
0.752085
0.752085
0.752086
0.752086
0.752086
0.752087
0.752087
0.752087
0.752087
0.752088
0.752088
0.752088
0.752088
0.752089
0.752089
0.752089
0.75209
0.75209
0.75209
0.75209
0.752091
0.752091
0.752091
0.752091
0.752092
0.752092
0.752092
0.752092
0.752093
0.752093
0.752093
0.752093
0.752094
0.752094
0.752094
0.752094
0.752095
0.752095
0.752095
0.752095
0.752096
0.752096
0.752096
0.752096
0.752097
0.752097
0.752097
0.752097
68.1048
68.1048
67.8926
67.844
67.8282
67.8205
67.8136
67.8055
67.7965
67.7867
67.7766
67.7661
67.7555
67.7448
67.7339
67.723
67.7121
67.7011
67.69
67.679
67.6679
67.6567
67.6455
67.6343
67.6231
67.6118
67.6004
67.5891
67.5777
67.5663
67.5548
67.5433
67.5317
67.5202
67.5085
67.4969
67.4852
67.4735
67.4617