# vtk DataFile Version 2.0
FlowField
ASCII
DATASET STRUCTURED_GRID
DIMENSIONS 400 1 200
POINTS 80000 float
0 0 0
0.08 0 0
0.16 0 0
0.24 0 0
0.32 0 0
0.4 0 0
0.48 0 0
0.56 0 0
0.64 0 0
0.72 0 0
0.8 0 0
0.88 0 0
0.96 0 0
1.04 0 0
1.12 0 0
1.2 0 0
1.28 0 0
1.36 0 0
1.44 0 0
1.52 0 0
1.6 0 0
1.68 0 0
1.76 0 0
1.84 0 0
1.92 0 0
2 0 0
2.08 0 0
2.16 0 0
2.24 0 0
2.32 0 0
2.4 0 0
2.48 0 0
2.56 0 0
2.64 0 0
2.72 0 0
2.8 0 0
2.88 0 0
2.96 0 0
3.04 0 0
3.12 0 0
3.2 0 0
3.28 0 0
3.36 0 0
3.44 0 0
3.52 0 0
3.6 0 0
3.68 0 0
3.76 0 0
3.84 0 0
3.92 0 0
4 0 0
4.08 0 0
4.16 0 0
4.24 0 0
4.32 0 0
4.4 0 0
4.48 0 0
4.56 0 0
4.64 0 0
4.72 0 0
4.8 0 0
4.88 0 0
4.96 0 0
5.04 0 0
5.12 0 0
5.2 0 0
5.28 0 0
5.36 0 0
5.44 0 0
5.52 0 0
5.6 0 0
5.68 0 0
5.76 0 0
5.84 0 0
5.92 0 0
6 0 0
6.08 0 0
6.16 0 0
6.24 0 0
6.32 0 0
6.4 0 0
6.48 0 0
6.56 0 0
6.64 0 0
6.72 0 0
6.8 0 0
6.88 0 0
6.96 0 0
7.04 0 0
7.12 0 0
7.2 0 0
7.28 0 0
7.36 0 0
7.44 0 0
7.52 0 0
7.6 0 0
7.68 0 0
7.76 0 0
7.84 0 0
7.92 0 0
8 0 0
8.08 0 0
8.16 0 0
8.24 0 0
8.32 0 0
8.4 0 0
8.48 0 0
8.56 0 0
8.64 0 0
8.72 0 0
8.8 0 0
8.88 0 0
8.96 0 0
9.04 0 0
9.12 0 0
9.2 0 0
9.28 0 0
9.36 0 0
9.44 0 0
9.52 0 0
9.6 0 0
9.68 0 0
9.76 0 0
9.84 0 0
9.92 0 0
10 0 0
10.08 0 0
10.16 0 0
10.24 0 0
10.32 0 0
10.4 0 0
10.48 0 0
10.56 0 0
10.64 0 0
10.72 0 0
10.8 0 0
10.88 0 0
10.96 0 0
11.04 0 0
11.12 0 0
11.2 0 0
11.28 0 0
11.36 0 0
11.44 0 0
11.52 0 0
11.6 0 0
11.68 0 0
11.76 0 0
11.84 0 0
11.92 0 0
12 0 0
12.08 0 0
12.16 0 0
12.24 0 0
12.32 0 0
12.4 0 0
12.48 0 0
12.56 0 0
12.64 0 0
12.72 0 0
12.8 0 0
12.88 0 0
12.96 0 0
13.04 0 0
13.12 0 0
13.2 0 0
13.28 0 0
13.36 0 0
13.44 0 0
13.52 0 0
13.6 0 0
13.68 0 0
13.76 0 0
13.84 0 0
13.92 0 0
14 0 0
14.08 0 0
14.16 0 0
14.24 0 0
14.32 0 0
14.4 0 0
14.48 0 0
14.56 0 0
14.64 0 0
14.72 0 0
14.8 0 0
14.88 0 0
14.96 0 0
15.04 0 0
15.12 0 0
15.2 0 0
15.28 0 0
15.36 0 0
15.44 0 0
15.52 0 0
15.6 0 0
15.68 0 0
15.76 0 0
15.84 0 0
15.92 0 0
16 0 0
16.08 0 0
16.16 0 0
16.24 0 0
16.32 0 0
16.4 0 0
16.48 0 0
16.56 0 0
16.64 0 0
16.72 0 0
16.8 0 0
16.88 0 0
16.96 0 0
17.04 0 0
17.12 0 0
17.2 0 0
17.28 0 0
17.36 0 0
17.44 0 0
17.52 0 0
17.6 0 0
17.68 0 0
17.76 0 0
17.84 0 0
17.92 0 0
18 0 0
18.08 0 0
18.16 0 0
18.24 0 0
18.32 0 0
18.4 0 0
18.48 0 0
18.56 0 0
18.64 0 0
18.72 0 0
18.8 0 0
18.88 0 0
18.96 0 0
19.04 0 0
19.12 0 0
19.2 0 0
19.28 0 0
19.36 0 0
19.44 0 0
19.52 0 0
19.6 0 0
19.68 0 0
19.76 0 0
19.84 0 0
19.92 0 0
20 0 0
20.08 0 0
20.16 0 0
20.24 0 0
20.32 0 0
20.4 0 0
20.48 0 0
20.56 0 0
20.64 0 0
20.72 0 0
20.8 0 0
20.88 0 0
20.96 0 0
21.04 0 0
21.12 0 0
21.2 0 0
21.28 0 0
21.36 0 0
21.44 0 0
21.52 0 0
21.6 0 0
21.68 0 0
21.76 0 0
21.84 0 0
21.92 0 0
22 0 0
22.08 0 0
22.16 0 0
22.24 0 0
22.32 0 0
22.4 0 0
22.48 0 0
22.56 0 0
22.64 0 0
22.72 0 0
22.8 0 0
22.88 0 0
22.96 0 0
23.04 0 0
23.12 0 0
23.2 0 0
23.28 0 0
23.36 0 0
23.44 0 0
23.52 0 0
23.6 0 0
23.68 0 0
23.76 0 0
23.84 0 0
23.92 0 0
24 0 0
24.08 0 0
24.16 0 0
24.24 0 0
24.32 0 0
24.4 0 0
24.48 0 0
24.56 0 0
24.64 0 0
24.72 0 0
24.8 0 0
24.88 0 0
24.96 0 0
25.04 0 0
25.12 0 0
25.2 0 0
25.28 0 0
25.36 0 0
25.44 0 0
25.52 0 0
25.6 0 0
25.68 0 0
25.76 0 0
25.84 0 0
25.92 0 0
26 0 0
26.08 0 0
26.16 0 0
26.24 0 0
26.32 0 0
26.4 0 0
26.48 0 0
26.56 0 0
26.64 0 0
26.72 0 0
26.8 0 0
26.88 0 0
26.96 0 0
27.04 0 0
27.12 0 0
27.2 0 0
27.28 0 0
27.36 0 0
27.44 0 0
27.52 0 0
27.6 0 0
27.68 0 0
27.76 0 0
27.84 0 0
27.92 0 0
28 0 0
28.08 0 0
28.16 0 0
28.24 0 0
28.32 0 0
28.4 0 0
28.48 0 0
28.56 0 0
28.64 0 0
28.72 0 0
28.8 0 0
28.88 0 0
28.96 0 0
29.04 0 0
29.12 0 0
29.2 0 0
29.28 0 0
29.36 0 0
29.44 0 0
29.52 0 0
29.6 0 0
29.68 0 0
29.76 0 0
29.84 0 0
29.92 0 0
30 0 0
30.08 0 0
30.16 0 0
30.24 0 0
30.32 0 0
30.4 0 0
30.48 0 0
30.56 0 0
30.64 0 0
30.72 0 0
30.8 0 0
30.88 0 0
30.96 0 0
31.04 0 0
31.12 0 0
31.2 0 0
31.28 0 0
31.36 0 0
31.44 0 0
31.52 0 0
31.6 0 0
31.68 0 0
31.76 0 0
31.84 0 0
31.92 0 0
0 0.005 0
0.08 0.005 0
0.16 0.005 0
0.24 0.005 0
0.32 0.005 0
0.4 0.005 0
0.48 0.005 0
0.56 0.005 0
0.64 0.005 0
0.72 0.005 0
0.8 0.005 0
0.88 0.005 0
0.96 0.005 0
1.04 0.005 0
1.12 0.005 0
1.2 0.005 0
1.28 0.005 0
1.36 0.005 0
1.44 0.005 0
1.52 0.005 0
1.6 0.005 0
1.68 0.005 0
1.76 0.005 0
1.84 0.005 0
1.92 0.005 0
2 0.005 0
2.08 0.005 0
2.16 0.005 0
2.24 0.005 0
2.32 0.005 0
2.4 0.005 0
2.48 0.005 0
2.56 0.005 0
2.64 0.005 0
2.72 0.005 0
2.8 0.005 0
2.88 0.005 0
2.96 0.005 0
3.04 0.005 0
3.12 0.005 0
3.2 0.005 0
3.28 0.005 0
3.36 0.005 0
3.44 0.005 0
3.52 0.005 0
3.6 0.005 0
3.68 0.005 0
3.76 0.005 0
3.84 0.005 0
3.92 0.005 0
4 0.005 0
4.08 0.005 0
4.16 0.005 0
4.24 0.005 0
4.32 0.005 0
4.4 0.005 0
4.48 0.005 0
4.56 0.005 0
4.64 0.005 0
4.72 0.005 0
4.8 0.005 0
4.88 0.005 0
4.96 0.005 0
5.04 0.005 0
5.12 0.005 0
5.2 0.005 0
5.28 0.005 0
5.36 0.005 0
5.44 0.005 0
5.52 0.005 0
5.6 0.005 0
5.68 0.005 0
5.76 0.005 0
5.84 0.005 0
5.92 0.005 0
6 0.005 0
6.08 0.005 0
6.16 0.005 0
6.24 0.005 0
6.32 0.005 0
6.4 0.005 0
6.48 0.005 0
6.56 0.005 0
6.64 0.005 0
6.72 0.005 0
6.8 0.005 0
6.88 0.005 0
6.96 0.005 0
7.04 0.005 0
7.12 0.005 0
7.2 0.005 0
7.28 0.005 0
7.36 0.005 0
7.44 0.005 0
7.52 0.005 0
7.6 0.005 0
7.68 0.005 0
7.76 0.005 0
7.84 0.005 0
7.92 0.005 0
8 0.005 0
8.08 0.005 0
8.16 0.005 0
8.24 0.005 0
8.32 0.005 0
8.4 0.005 0
8.48 0.005 0
8.56 0.005 0
8.64 0.005 0
8.72 0.005 0
8.8 0.005 0
8.88 0.005 0
8.96 0.005 0
9.04 0.005 0
9.12 0.005 0
9.2 0.005 0
9.28 0.005 0
9.36 0.005 0
9.44 0.005 0
9.52 0.005 0
9.6 0.005 0
9.68 0.005 0
9.76 0.005 0
9.84 0.005 0
9.92 0.005 0
10 0.005 0
10.08 0.005 0
10.16 0.005 0
10.24 0.005 0
10.32 0.005 0
10.4 0.005 0
10.48 0.005 0
10.56 0.005 0
10.64 0.005 0
10.72 0.005 0
10.8 0.005 0
10.88 0.005 0
10.96 0.005 0
11.04 0.005 0
11.12 0.005 0
11.2 0.005 0
11.28 0.005 0
11.36 0.005 0
11.44 0.005 0
11.52 0.005 0
11.6 0.005 0
11.68 0.005 0
11.76 0.005 0
11.84 0.005 0
11.92 0.005 0
12 0.005 0
12.08 0.005 0
12.16 0.005 0
12.24 0.005 0
12.32 0.005 0
12.4 0.005 0
12.48 0.005 0
12.56 0.005 0
12.64 0.005 0
12.72 0.005 0
12.8 0.005 0
12.88 0.005 0
12.96 0.005 0
13.04 0.005 0
13.12 0.005 0
13.2 0.005 0
13.28 0.005 0
13.36 0.005 0
13.44 0.005 0
13.52 0.005 0
13.6 0.005 0
13.68 0.005 0
13.76 0.005 0
13.84 0.005 0
13.92 0.005 0
14 0.005 0
14.08 0.005 0
14.16 0.005 0
14.24 0.005 0
14.32 0.005 0
14.4 0.005 0
14.48 0.005 0
14.56 0.005 0
14.64 0.005 0
14.72 0.005 0
14.8 0.005 0
14.88 0.005 0
14.96 0.005 0
15.04 0.005 0
15.12 0.005 0
15.2 0.005 0
15.28 0.005 0
15.36 0.005 0
15.44 0.005 0
15.52 0.005 0
15.6 0.005 0
15.68 0.005 0
15.76 0.005 0
15.84 0.005 0
15.92 0.005 0
16 0.005 0
16.08 0.005 0
16.16 0.005 0
16.24 0.005 0
16.32 0.005 0
16.4 0.005 0
16.48 0.005 0
16.56 0.005 0
16.64 0.005 0
16.72 0.005 0
16.8 0.005 0
16.88 0.005 0
16.96 0.005 0
17.04 0.005 0
17.12 0.005 0
17.2 0.005 0
17.28 0.005 0
17.36 0.005 0
17.44 0.005 0
17.52 0.005 0
17.6 0.005 0
17.68 0.005 0
17.76 0.005 0
17.84 0.005 0
17.92 0.005 0
18 0.005 0
18.08 0.005 0
18.16 0.005 0
18.24 0.005 0
18.32 0.005 0
18.4 0.005 0
18.48 0.005 0
18.56 0.005 0
18.64 0.005 0
18.72 0.005 0
18.8 0.005 0
18.88 0.005 0
18.96 0.005 0
19.04 0.005 0
19.12 0.005 0
19.2 0.005 0
19.28 0.005 0
19.36 0.005 0
19.44 0.005 0
19.52 0.005 0
19.6 0.005 0
19.68 0.005 0
19.76 0.005 0
19.84 0.005 0
19.92 0.005 0
20 0.005 0
20.08 0.005 0
20.16 0.005 0
20.24 0.005 0
20.32 0.005 0
20.4 0.005 0
20.48 0.005 0
20.56 0.005 0
20.64 0.005 0
20.72 0.005 0
20.8 0.005 0
20.88 0.005 0
20.96 0.005 0
21.04 0.005 0
21.12 0.005 0
21.2 0.005 0
21.28 0.005 0
21.36 0.005 0
21.44 0.005 0
21.52 0.005 0
21.6 0.005 0
21.68 0.005 0
21.76 0.005 0
21.84 0.005 0
21.92 0.005 0
22 0.005 0
22.08 0.005 0
22.16 0.005 0
22.24 0.005 0
22.32 0.005 0
22.4 0.005 0
22.48 0.005 0
22.56 0.005 0
22.64 0.005 0
22.72 0.005 0
22.8 0.005 0
22.88 0.005 0
22.96 0.005 0
23.04 0.005 0
23.12 0.005 0
23.2 0.005 0
23.28 0.005 0
23.36 0.005 0
23.44 0.005 0
23.52 0.005 0
23.6 0.005 0
23.68 0.005 0
23.76 0.005 0
23.84 0.005 0
23.92 0.005 0
24 0.005 0
24.08 0.005 0
24.16 0.005 0
24.24 0.005 0
24.32 0.005 0
24.4 0.005 0
24.48 0.005 0
24.56 0.005 0
24.64 0.005 0
24.72 0.005 0
24.8 0.005 0
24.88 0.005 0
24.96 0.005 0
25.04 0.005 0
25.12 0.005 0
25.2 0.005 0
25.28 0.005 0
25.36 0.005 0
25.44 0.005 0
25.52 0.005 0
25.6 0.005 0
25.68 0.005 0
25.76 0.005 0
25.84 0.005 0
25.92 0.005 0
26 0.005 0
26.08 0.005 0
26.16 0.005 0
26.24 0.005 0
26.32 0.005 0
26.4 0.005 0
26.48 0.005 0
26.56 0.005 0
26.64 0.005 0
26.72 0.005 0
26.8 0.005 0
26.88 0.005 0
26.96 0.005 0
27.04 0.005 0
27.12 0.005 0
27.2 0.005 0
27.28 0.005 0
27.36 0.005 0
27.44 0.005 0
27.52 0.005 0
27.6 0.005 0
27.68 0.005 0
27.76 0.005 0
27.84 0.005 0
27.92 0.005 0
28 0.005 0
28.08 0.005 0
28.16 0.005 0
28.24 0.005 0
28.32 0.005 0
28.4 0.005 0
28.48 0.005 0
28.56 0.005 0
28.64 0.005 0
28.72 0.005 0
28.8 0.005 0
28.88 0.005 0
28.96 0.005 0
29.04 0.005 0
29.12 0.005 0
29.2 0.005 0
29.28 0.005 0
29.36 0.005 0
29.44 0.005 0
29.52 0.005 0
29.6 0.005 0
29.68 0.005 0
29.76 0.005 0
29.84 0.005 0
29.92 0.005 0
30 0.005 0
30.08 0.005 0
30.16 0.005 0
30.24 0.005 0
30.32 0.005 0
30.4 0.005 0
30.48 0.005 0
30.56 0.005 0
30.64 0.005 0
30.72 0.005 0
30.8 0.005 0
30.88 0.005 0
30.96 0.005 0
31.04 0.005 0
31.12 0.005 0
31.2 0.005 0
31.28 0.005 0
31.36 0.005 0
31.44 0.005 0
31.52 0.005 0
31.6 0.005 0
31.68 0.005 0
31.76 0.005 0
31.84 0.005 0
31.92 0.005 0
0 0.01 0
0.08 0.01 0
0.16 0.01 0
0.24 0.01 0
0.32 0.01 0
0.4 0.01 0
0.48 0.01 0
0.56 0.01 0
0.64 0.01 0
0.72 0.01 0
0.8 0.01 0
0.88 0.01 0
0.96 0.01 0
1.04 0.01 0
1.12 0.01 0
1.2 0.01 0
1.28 0.01 0
1.36 0.01 0
1.44 0.01 0
1.52 0.01 0
1.6 0.01 0
1.68 0.01 0
1.76 0.01 0
1.84 0.01 0
1.92 0.01 0
2 0.01 0
2.08 0.01 0
2.16 0.01 0
2.24 0.01 0
2.32 0.01 0
2.4 0.01 0
2.48 0.01 0
2.56 0.01 0
2.64 0.01 0
2.72 0.01 0
2.8 0.01 0
2.88 0.01 0
2.96 0.01 0
3.04 0.01 0
3.12 0.01 0
3.2 0.01 0
3.28 0.01 0
3.36 0.01 0
3.44 0.01 0
3.52 0.01 0
3.6 0.01 0
3.68 0.01 0
3.76 0.01 0
3.84 0.01 0
3.92 0.01 0
4 0.01 0
4.08 0.01 0
4.16 0.01 0
4.24 0.01 0
4.32 0.01 0
4.4 0.01 0
4.48 0.01 0
4.56 0.01 0
4.64 0.01 0
4.72 0.01 0
4.8 0.01 0
4.88 0.01 0
4.96 0.01 0
5.04 0.01 0
5.12 0.01 0
[...]
POINT_DATA 80000

SCALARS v float 1
LOOKUP_TABLE default
0
0
0
0
0
0
0
0
0
0
0
0
0
0
0
0
0
0
0
0
0
0
0
0
0
0
0
0
0
0
0
0
0
0
0
0
0
0
0
0
0
0
0
0
0
0
0
0
0
0
0
0
0
0
0
0
0
0
0
0
0
0
0
0
0
0
0
0
0
0
0
0
0
0
0
0
0
0
0
0
0
0
0
0
0
0
0
0
0
0
0
0
0
0
0
0
0
0
0
0
0
0
0
0
0
0
0
0
0
0
0
0
0
0
0
0
0
0
0
0
0
0
0
0
0
0
0
0
0
0
0
0
0
0
0
0
0
0
0
0
0
0
0
0
0
0
0
0
0
0
0
0
0
0
0
0
0
0
0
0
0
0
0
0
0
0
0
0
0
0
0
0
0
0
0
0
0
0
0
0
0
0
0
0
0
0
0
0
0
0
0
0
0
0
0
0
0
0
0
0
0
0
0
0
0
0
0
0
0
0
0
0
0
0
0
0
0
0
0
0
0
0
0
0
0
0
0
0
0
0
0
0
0
0
0
0
0
0
0
0
0
0
0
0
0
0
0
0
0
0
0
0
0
0
0
0
0
0
0
0
0
0
0
0
0
0
0
0
0
0
0
0
0
0
0
0
0
0
0
0
0
0
0
0
0
0
0
0
0
0
0
0
0
0
0
0
0
0
0
0
0
0
0
0
0
0
0
0
0
0
0
0
0
0
0
0
0
0
0
0
0
0
0
0
0
0
0
0
0
0
0
0
0
0
0
0
0
0
0
0
0
0
0
0
0
0
0
0
0
0
0
0
0
0
0
0
0
0
0
0
0
0
0
0
0
0
0
0
0
0
0
0
0
0
0
0
0
0
0
0
0
0
0
0
0
0
0
0
0
0
0
0
0
0
0
0
0
0
0
0
-0.0542713
0.0542713
0.00396233
0.000998571
0.000492503
0.00030294
0.000207564
0.000151936
0.000116495
9.25388e-05
7.56259e-05
6.32655e-05
5.39652e-05
4.67867e-05
4.11188e-05
3.65518e-05
3.28045e-05
2.96794e-05
2.70358e-05
2.47718e-05
2.28126e-05
2.11015e-05
1.95942e-05
1.82558e-05
1.70598e-05
1.59864e-05
1.50201e-05
1.41461e-05
1.33499e-05
1.26196e-05
1.19472e-05
1.13292e-05
1.07623e-05
1.02403e-05
9.75386e-06
9.29437e-06
8.85777e-06
8.44564e-06
8.0613e-06
7.70415e-06
7.36669e-06
7.03669e-06
6.70319e-06
6.36179e-06
6.01558e-06
5.67114e-06
5.33269e-06
4.99881e-06
4.66398e-06
4.32398e-06
3.98132e-06
3.647e-06
3.33703e-06
3.06558e-06
2.83851e-06
2.65055e-06
2.48775e-06
2.33345e-06
2.17516e-06
2.00893e-06
1.83985e-06
1.6788e-06
1.53732e-06
1.42293e-06
1.33648e-06
1.27224e-06
1.22016e-06
1.16917e-06
1.11021e-06
1.03819e-06
9.52493e-07
8.56309e-07
7.55209e-07
6.55506e-07
5.62862e-07
4.81388e-07
4.1329e-07
3.58981e-07
3.17491e-07
2.86989e-07
2.65286e-07
2.50223e-07
2.39914e-07
2.32855e-07
2.27939e-07
2.24397e-07
2.2173e-07
2.19627e-07
2.17899e-07
2.16433e-07
2.15156e-07
2.14021e-07
2.12991e-07
2.12037e-07
2.11137e-07
2.10272e-07
2.09429e-07
2.08599e-07
2.07774e-07
2.06952e-07
2.06129e-07
2.05306e-07
2.04481e-07
2.03655e-07
2.02828e-07
2.02001e-07
2.01174e-07
2.00347e-07
1.9952e-07
1.98694e-07
1.97867e-07
1.97041e-07
1.96215e-07
1.95389e-07
1.94563e-07
1.93737e-07
1.92911e-07
1.92085e-07
1.91259e-07
1.90433e-07
1.89608e-07
1.88782e-07
1.87956e-07
1.87131e-07
1.86306e-07
1.85481e-07
1.84656e-07
1.83831e-07
1.83007e-07
1.82182e-07
1.81358e-07
1.80535e-07
1.79712e-07
1.78889e-07
1.78066e-07
1.77244e-07
1.76422e-07
1.75601e-07
1.7478e-07
1.73959e-07
1.73139e-07
1.72319e-07
1.715e-07
1.70681e-07
1.69863e-07
1.69045e-07
1.68227e-07
1.6741e-07
1.66593e-07
1.65777e-07
1.64962e-07
1.64146e-07
1.63332e-07
1.62517e-07
1.61704e-07
1.6089e-07
1.60077e-07
1.59265e-07
1.58453e-07
1.57642e-07
1.56831e-07
1.5602e-07
1.5521e-07
1.54401e-07
1.53592e-07
1.52783e-07
1.51975e-07
1.51167e-07
1.5036e-07
1.49553e-07
1.48747e-07
1.47941e-07
1.47136e-07
1.46331e-07
1.45526e-07
1.44722e-07
1.43918e-07
1.43115e-07
1.42312e-07
1.41509e-07
1.40707e-07
1.39905e-07
1.39104e-07
1.38303e-07
1.37502e-07
1.36702e-07
1.35902e-07
1.35102e-07
1.34303e-07
1.33504e-07
1.32705e-07
1.31907e-07
1.31108e-07
1.30311e-07
1.29513e-07
1.28716e-07
1.27918e-07
1.27122e-07
1.26325e-07
1.25529e-07
1.24732e-07
1.23936e-07
1.23141e-07
1.22345e-07
1.2155e-07
1.20754e-07
1.19959e-07
1.19164e-07
1.1837e-07
1.17575e-07
1.1678e-07
1.15986e-07
1.15192e-07
1.14397e-07
1.13603e-07
1.12809e-07
1.12015e-07
1.11221e-07
1.10427e-07
1.09633e-07
1.0884e-07
1.08046e-07
1.07252e-07
1.06458e-07
1.05665e-07
1.04871e-07
1.04077e-07
1.03283e-07
1.0249e-07
1.01696e-07
1.00902e-07
1.00108e-07
9.93142e-08
9.85202e-08
9.77261e-08
9.6932e-08
9.61378e-08
9.53435e-08
9.45491e-08
9.37547e-08
9.29601e-08
9.21654e-08
9.13706e-08
9.05757e-08
8.97807e-08
8.89856e-08
8.81903e-08
8.73949e-08
8.65993e-08
8.58036e-08
8.50077e-08
8.42117e-08
8.34156e-08
8.26192e-08
8.18227e-08
8.10261e-08
8.02292e-08
7.94322e-08
7.8635e-08
7.78376e-08
7.704e-08
7.62422e-08
7.54443e-08
7.46461e-08
7.38477e-08
7.30491e-08
7.22503e-08
7.14513e-08
7.06521e-08
6.98527e-08
6.9053e-08
6.82532e-08
6.74531e-08
6.66527e-08
6.58522e-08
6.50514e-08
6.42503e-08
6.34491e-08
6.26476e-08
6.18458e-08
6.10438e-08
6.02416e-08
5.94391e-08
5.86364e-08
5.78334e-08
5.70301e-08
5.62266e-08
5.54228e-08
5.46188e-08
5.38145e-08
5.301e-08
5.22052e-08
5.14001e-08
5.05947e-08
4.97891e-08
4.89832e-08
4.81771e-08
4.73706e-08
4.65639e-08
4.57569e-08
4.49497e-08
4.41421e-08
4.33343e-08
4.25262e-08
4.17178e-08
4.09091e-08
4.01001e-08
3.92908e-08
3.84813e-08
3.76714e-08
3.68613e-08
3.60508e-08
3.52401e-08
3.44291e-08
3.36177e-08
3.28061e-08
3.19942e-08
3.1182e-08
3.03694e-08
2.95566e-08
2.87434e-08
2.793e-08
2.71162e-08
2.63021e-08
2.54877e-08
2.4673e-08
2.3858e-08
2.30427e-08
2.22271e-08
2.1411e-08
2.05949e-08
1.97781e-08
1.89614e-08
1.81437e-08
1.73268e-08
1.65079e-08
1.56912e-08
1.48703e-08
1.40548e-08
1.32309e-08
1.24177e-08
1.15893e-08
1.07801e-08
9.94535e-09
9.14227e-09
8.29899e-09
7.50412e-09
6.65022e-09
5.86555e-09
4.99915e-09
4.22645e-09
3.34591e-09
2.58667e-09
1.69047e-09
9.46438e-10
3.22925e-11
-6.93402e-10
-1.62971e-09
-2.33154e-09
-3.29715e-09
-3.96613e-09
-4.9721e-09
-5.5948e-09
-6.65726e-09
-7.21456e-09
-8.35563e-09
-8.82251e-09
-1.00698e-08
-1.04162e-08
-1.18022e-08
-1.1993e-08
-1.3555e-08
-1.35511e-08
-1.53295e-08
-1.50892e-08
-1.71269e-08
-1.66065e-08
-1.89469e-08
-1.81053e-08
-2.07856e-08
-1.95944e-08
-2.2631e-08
-2.10976e-08
-2.44547e-08
-2.26718e-08
-2.61927e-08
-2.44465e-08
-2.77035e-08
-2.67179e-08
-2.86665e-08
-3.01642e-08
-2.82956e-08
-3.63895e-08
-2.42542e-08
-4.92833e-08
-6.48853e-09
-7.77167e-08
1.24502e-07
-3.52246e-08
-3.52246e-08
-0.0952161
0.0952161
0.0129759
0.00385491
0.00193461
0.0011965
0.000822046
0.000602621
0.000462375
0.000367349
0.00030014
0.000250955
0.000213913
0.000185305
0.000162711
0.000144506
0.000129572
0.000117121
0.000106594
9.75824e-05
8.9788e-05
8.29835e-05
7.69918e-05
7.16737e-05
6.69237e-05
6.26629e-05
5.88272e-05
5.53572e-05
5.21963e-05
4.92974e-05
4.66307e-05
4.41803e-05
4.1931e-05
3.98569e-05
3.79218e-05
3.60936e-05
3.43583e-05
3.27215e-05
3.11932e-05
2.97673e-05
2.84126e-05
2.70829e-05
2.57388e-05
2.43666e-05
2.2979e-05
2.15998e-05
2.0243e-05
1.89022e-05
1.75587e-05
1.6201e-05
1.4844e-05
1.35322e-05
1.23253e-05
1.12727e-05
1.03904e-05
9.65349e-06
9.00726e-06
8.39038e-06
7.75951e-06
7.10399e-06
6.44559e-06
5.82527e-06
5.28407e-06
4.84633e-06
4.51129e-06
4.2547e-06
4.03796e-06
3.82049e-06
3.57054e-06
3.27177e-06
2.9245e-06
2.54257e-06
2.14778e-06
1.76382e-06
1.41123e-06
1.10435e-06
8.50266e-07
6.49444e-07
4.97398e-07
3.86689e-07
3.08781e-07
2.55442e-07
2.19583e-07
1.95623e-07
1.79475e-07
1.68338e-07
1.60393e-07
1.54512e-07
1.50014e-07
1.46484e-07
1.43659e-07
1.41359e-07
1.39447e-07
1.37818e-07
1.36386e-07
1.35083e-07
1.33861e-07
1.32685e-07
1.3153e-07
1.30382e-07
1.29235e-07
1.28085e-07
1.26931e-07
1.25775e-07
1.24616e-07
1.23457e-07
1.22298e-07
1.2114e-07
1.19982e-07
1.18826e-07
1.17672e-07
1.16518e-07
1.15364e-07
1.14211e-07
1.13059e-07
1.11906e-07
1.10754e-07
1.09601e-07
1.08449e-07
1.07296e-07
1.06143e-07
1.0499e-07
1.03837e-07
1.02685e-07
1.01532e-07
1.0038e-07
9.92278e-08
9.80761e-08
9.69246e-08
9.57736e-08
9.4623e-08
9.34729e-08
9.23232e-08
9.11741e-08
9.00255e-08
8.88774e-08
8.77298e-08
8.65829e-08
8.54364e-08
8.42906e-08
8.31453e-08
8.20006e-08
8.08565e-08
7.9713e-08
7.85701e-08
7.74277e-08
7.62859e-08
7.51447e-08
7.40041e-08
7.28641e-08
7.17246e-08
7.05858e-08
6.94475e-08
6.83097e-08
6.71726e-08
6.6036e-08
6.49e-08
6.37645e-08
6.26296e-08
6.14953e-08
6.03615e-08
5.92283e-08
5.80956e-08
5.69634e-08
5.58318e-08
5.47008e-08
5.35702e-08
5.24402e-08
5.13107e-08
5.01816e-08
4.90531e-08
4.79251e-08
4.67975e-08
4.56705e-08
4.45439e-08
4.34177e-08
4.2292e-08
4.11668e-08
4.00419e-08
3.89175e-08
3.77935e-08
3.66699e-08
3.55467e-08
3.44238e-08
3.33013e-08
3.21792e-08
3.10574e-08
2.9936e-08
2.88149e-08
2.76941e-08
2.65736e-08
2.54534e-08
2.43334e-08
2.32138e-08
2.20944e-08
2.09752e-08
1.98563e-08
1.87375e-08
1.7619e-08
1.65007e-08
1.53826e-08
1.42646e-08
1.31468e-08
1.20292e-08
1.09117e-08
9.79428e-09
8.67702e-09
7.55985e-09
6.44279e-09
5.32579e-09
4.20886e-09
3.092e-09
1.97519e-09
8.58418e-10
-2.58333e-10
-1.37506e-09
-2.49179e-09
-3.60853e-09
-4.72528e-09
-5.84205e-09
-6.95886e-09
-8.07571e-09
-9.19263e-09
-1.03096e-08
-1.14267e-08
-1.25438e-08
-1.3661e-08
-1.47783e-08
-1.58958e-08
-1.70133e-08
-1.8131e-08
-1.92489e-08
-2.03668e-08
-2.1485e-08
-2.26033e-08
-2.37217e-08
-2.48404e-08
-2.59592e-08
-2.70782e-08
-2.81974e-08
-2.93169e-08
-3.04365e-08
-3.15564e-08
-3.26764e-08
-3.37968e-08
-3.49173e-08
-3.60382e-08
-3.71592e-08
-3.82806e-08
-3.94021e-08
-4.0524e-08
-4.16461e-08
-4.27686e-08
-4.38913e-08
-4.50143e-08
-4.61376e-08
-4.72612e-08
-4.8385e-08
-4.95093e-08
-5.06338e-08
-5.17586e-08
-5.28838e-08
-5.40093e-08
-5.51351e-08
-5.62613e-08
-5.73878e-08
-5.85146e-08
-5.96418e-08
-6.07694e-08
-6.18973e-08
-6.30256e-08
-6.41542e-08
-6.52832e-08
-6.64125e-08
-6.75423e-08
-6.86724e-08
-6.98029e-08
-7.09338e-08
-7.20651e-08
-7.31967e-08
-7.43288e-08
-7.54612e-08
-7.65941e-08
-7.77274e-08
-7.8861e-08
-7.99951e-08
-8.11296e-08
-8.22645e-08
-8.33998e-08
-8.45355e-08
-8.56717e-08
-8.68083e-08
-8.79453e-08
-8.90827e-08
-9.02206e-08
-9.13589e-08
-9.24976e-08
-9.36368e-08
-9.47765e-08
-9.59165e-08
-9.70571e-08
-9.8198e-08
-9.93395e-08
-1.00481e-07
-1.01624e-07
-1.02767e-07
-1.0391e-07
-1.05054e-07
-1.06198e-07
-1.07342e-07
-1.08488e-07
-1.09633e-07
-1.10779e-07
-1.11926e-07
-1.13073e-07
-1.1422e-07
-1.15369e-07
-1.16517e-07
-1.17666e-07
-1.18816e-07
-1.19966e-07
-1.21116e-07
-1.22267e-07
-1.23419e-07
-1.24571e-07
-1.25723e-07
-1.26877e-07
-1.2803e-07
-1.29184e-07
-1.30339e-07
-1.31494e-07
-1.3265e-07
-1.33806e-07
-1.34964e-07
-1.36119e-07
-1.37281e-07
-1.38433e-07
-1.39601e-07
-1.40748e-07
-1.41926e-07
-1.43063e-07
-1.44255e-07
-1.45376e-07
-1.46591e-07
-1.47688e-07
-1.48934e-07
-1.49998e-07
-1.51282e-07
-1.52307e-07
-1.53637e-07
-1.54616e-07
-1.55996e-07
-1.56923e-07
-1.58362e-07
-1.5923e-07
-1.60734e-07
-1.61533e-07
-1.63118e-07
-1.63826e-07
-1.65519e-07
-1.66104e-07
-1.67945e-07
-1.68356e-07
-1.70407e-07
-1.70573e-07
-1.72914e-07
-1.72742e-07
-1.75479e-07
-1.74855e-07
-1.78108e-07
-1.76902e-07
-1.80811e-07
-1.78876e-07
-1.83593e-07
-1.80772e-07
-1.86457e-07
-1.82586e-07
-1.89403e-07
-1.84328e-07
-1.92417e-07
-1.86029e-07
-1.95456e-07
-1.87777e-07
-1.98414e-07
-1.89784e-07
-2.01059e-07
-1.92528e-07
-2.02873e-07
-1.97108e-07
-2.02688e-07
-2.06037e-07
-1.97632e-07
-2.25244e-07
-1.79165e-07
-2.68965e-07
-1.10414e-07
-3.68002e-07
3.67863e-07
-2.09695e-07
-2.09695e-07
-0.125293
0.125293
0.0249362
0.00835835
0.00427834
0.00266187
0.00183409
0.00134671
0.00103425
0.000822068
0.000671753
0.000561618
0.000478602
0.000414455
0.00036378
0.000322946
0.000289451
0.000261534
0.000237936
0.000217745
0.000200285
0.000185048
0.000171635
0.000159734
0.000149108
0.00013958
0.000131002
0.000123242
0.000116173
0.000109691
0.000103732
9.82566e-05
9.32284e-05
8.8587e-05
8.42534e-05
8.01594e-05
7.62765e-05
7.26155e-05
6.91934e-05
6.59912e-05
6.2938e-05
5.99346e-05
5.68998e-05
5.38077e-05
5.06869e-05
4.75868e-05
4.45343e-05
4.15156e-05
3.8494e-05
3.54526e-05
3.24308e-05
2.95286e-05
2.68724e-05
2.45607e-05
2.26188e-05
2.09861e-05
1.95425e-05
1.81592e-05
1.67491e-05
1.52953e-05
1.38477e-05
1.24934e-05
1.1316e-05
1.03614e-05
9.62224e-06
9.04282e-06
8.53989e-06
8.02863e-06
7.44502e-06
6.75855e-06
5.97378e-06
5.12297e-06
4.25385e-06
3.41677e-06
2.65436e-06
1.99542e-06
1.45319e-06
1.02698e-06
7.05905e-07
4.73228e-07
3.10239e-07
1.99167e-07
1.24874e-07
7.55291e-08
4.25291e-08
2.00021e-08
4.15416e-09
-7.36333e-09
-1.59698e-08
-2.25299e-08
-2.75964e-08
-3.15525e-08
-3.46863e-08
-3.72253e-08
-3.93506e-08
-4.12031e-08
-4.28878e-08
-4.44788e-08
-4.60247e-08
-4.75545e-08
-4.90839e-08
-5.06191e-08
-5.21614e-08
-5.37093e-08
-5.52603e-08
-5.68122e-08
-5.8363e-08
-5.99117e-08
-6.14578e-08
-6.30011e-08
-6.4542e-08
-6.60809e-08
-6.76184e-08
-6.91548e-08
-7.06907e-08
-7.22264e-08
-7.37622e-08
-7.52981e-08
-7.68344e-08
-7.8371e-08
-7.99078e-08
-8.14448e-08
-8.29819e-08
-8.45191e-08
-8.60561e-08
-8.7593e-08
-8.91296e-08
-9.06657e-08
-9.22015e-08
-9.37367e-08
-9.52713e-08
-9.68052e-08
-9.83385e-08
-9.98711e-08
-1.01403e-07
-1.02934e-07
-1.04465e-07
-1.05994e-07
-1.07523e-07
-1.09051e-07
-1.10579e-07
-1.12105e-07
-1.13631e-07
-1.15156e-07
-1.16681e-07
-1.18204e-07
-1.19727e-07
-1.2125e-07
-1.22771e-07
-1.24292e-07
-1.25813e-07
-1.27332e-07
-1.28851e-07
-1.3037e-07
-1.31888e-07
-1.33405e-07
-1.34921e-07
-1.36437e-07
-1.37952e-07
-1.39467e-07
-1.40981e-07
-1.42494e-07
-1.44007e-07
-1.4552e-07
-1.47032e-07
-1.48543e-07
-1.50053e-07
-1.51564e-07
-1.53073e-07
-1.54583e-07
-1.56091e-07
-1.57599e-07
-1.59107e-07
-1.60614e-07
-1.62121e-07
-1.63628e-07
-1.65133e-07
-1.66639e-07
-1.68144e-07
-1.69649e-07
-1.71153e-07
-1.72657e-07
-1.74161e-07
-1.75664e-07
-1.77167e-07
-1.7867e-07
-1.80172e-07
-1.81674e-07
-1.83176e-07
-1.84678e-07
-1.86179e-07
-1.8768e-07
-1.89181e-07
-1.90682e-07
-1.92182e-07
-1.93682e-07
-1.95183e-07
-1.96683e-07
-1.98183e-07
-1.99682e-07
-2.01182e-07
-2.02682e-07
-2.04181e-07
-2.05681e-07
-2.0718e-07
-2.08679e-07
-2.10179e-07
-2.11678e-07
-2.13178e-07
-2.14677e-07
-2.16176e-07
-2.17676e-07
-2.19176e-07
-2.20675e-07
-2.22175e-07
-2.23675e-07
-2.25175e-07
-2.26675e-07
-2.28175e-07
-2.29675e-07
-2.31176e-07
-2.32676e-07
-2.34177e-07
-2.35678e-07
-2.3718e-07
-2.38681e-07
-2.40183e-07
-2.41685e-07
-2.43187e-07
-2.44689e-07
-2.46192e-07
-2.47695e-07
-2.49198e-07
-2.50702e-07
-2.52206e-07
-2.5371e-07
-2.55215e-07
-2.5672e-07
-2.58225e-07
-2.59731e-07
-2.61237e-07
-2.62743e-07
-2.6425e-07
-2.65757e-07
-2.67264e-07
-2.68772e-07
-2.70281e-07
-2.71789e-07
-2.73299e-07
-2.74808e-07
-2.76318e-07
-2.77829e-07
-2.7934e-07
-2.80851e-07
-2.82363e-07
-2.83875e-07
-2.85388e-07
-2.86901e-07
-2.88415e-07
-2.8993e-07
-2.91444e-07
-2.9296e-07
-2.94475e-07
-2.95992e-07
-2.97509e-07
-2.99026e-07
-3.00544e-07
-3.02062e-07
-3.03581e-07
-3.05101e-07
-3.06621e-07
-3.08141e-07
-3.09663e-07
-3.11184e-07
-3.12707e-07
-3.1423e-07
-3.15753e-07
-3.17277e-07
-3.18802e-07
-3.20327e-07
-3.21853e-07
-3.23379e-07
-3.24906e-07
-3.26434e-07
-3.27962e-07
-3.29491e-07
-3.31021e-07
-3.32551e-07
-3.34081e-07
-3.35613e-07
-3.37145e-07
-3.38677e-07
-3.40211e-07
-3.41745e-07
-3.43279e-07
-3.44815e-07
-3.46351e-07
-3.47887e-07
-3.49424e-07
-3.50962e-07
-3.52501e-07
-3.5404e-07
-3.5558e-07
-3.57121e-07
-3.58662e-07
-3.60204e-07
-3.61747e-07
-3.63291e-07
-3.64835e-07
-3.6638e-07
-3.67926e-07
-3.69472e-07
-3.71019e-07
-3.72567e-07
-3.74115e-07
-3.75665e-07
-3.77215e-07
-3.78766e-07
-3.80317e-07
-3.8187e-07
-3.83423e-07
-3.84977e-07
-3.86531e-07
-3.88087e-07
-3.89643e-07
-3.912e-07
-3.92758e-07
-3.94317e-07
-3.95876e-07
-3.97437e-07
-3.98997e-07
-4.0056e-07
-4.02121e-07
-4.03688e-07
-4.05247e-07
-4.06821e-07
-4.08374e-07
-4.0996e-07
-4.11502e-07
-4.13107e-07
-4.14627e-07
-4.16264e-07
-4.17749e-07
-4.19433e-07
-4.20865e-07
-4.22614e-07
-4.23977e-07
-4.25808e-07
-4.27085e-07
-4.29013e-07
-4.3019e-07
-4.32227e-07
-4.33293e-07
-4.35452e-07
-4.36393e-07
-4.38691e-07
-4.39483e-07
-4.41953e-07
-4.42552e-07
-4.45251e-07
-4.45585e-07
-4.48601e-07
-4.48564e-07
-4.52025e-07
-4.51464e-07
-4.55547e-07
-4.54263e-07
-4.59188e-07
-4.56938e-07
-4.62968e-07
-4.59472e-07
-4.66904e-07
-4.61847e-07
-4.71007e-07
-4.64053e-07
-4.75285e-07
-4.66084e-07
-4.79739e-07
-4.67955e-07
-4.84338e-07
-4.69736e-07
-4.88991e-07
-4.71613e-07
-4.9348e-07
-4.74032e-07
-4.97314e-07
-4.7801e-07
-4.99409e-07
-4.85879e-07
-4.97309e-07
-5.02974e-07
-4.84997e-07
-5.41849e-07
-4.44544e-07
-6.3244e-07
-2.98485e-07
-8.37165e-07
6.95367e-07
-5.03474e-07
-5.03474e-07
-0.146488
0.146488
0.0383108
0.0142344
0.0074564
0.00467314
0.00323094
0.00237693
0.00182749
0.00145347
0.00118804
0.000993303
0.00084638
0.000732785
0.000643017
0.000570673
0.000511333
0.000461883
0.000420095
0.000384348
0.000353449
0.000326489
0.000302762
0.000281717
0.000262933
0.000246093
0.000230934
0.000217219
0.000204725
0.000193273
0.000182747
0.000173078
0.000164194
0.000155987
0.000148319
0.000141076
0.000134212
0.00012774
0.000121685
0.000116004
0.000110572
0.00010522
9.98146e-05
9.43168e-05
8.87766e-05
8.32746e-05
7.78533e-05
7.24894e-05
6.71272e-05
6.17494e-05
5.64343e-05
5.13569e-05
4.67287e-05
4.27064e-05
3.93196e-05
3.64553e-05
3.39064e-05
3.14582e-05
2.89712e-05
2.64247e-05
2.39074e-05
2.15653e-05
1.95333e-05
1.78801e-05
1.6585e-05
1.55487e-05
1.46295e-05
1.36871e-05
1.26188e-05
1.13796e-05
9.98293e-06
8.48711e-06
6.97448e-06
5.52972e-06
4.22301e-06
3.10037e-06
2.18133e-06
1.46221e-06
9.22672e-07
5.33074e-07
2.61034e-07
7.61728e-08
-4.7159e-08
-1.28875e-07
-1.83378e-07
-2.20454e-07
-2.46407e-07
-2.6513e-07
-2.78977e-07
-2.89388e-07
-2.97285e-07
-3.03315e-07
-3.07963e-07
-3.11614e-07
-3.14574e-07
-3.17079e-07
-3.19306e-07
-3.21377e-07
-3.23375e-07
-3.25345e-07
-3.27315e-07
-3.29294e-07
-3.31285e-07
-3.33283e-07
-3.35286e-07
-3.3729e-07
-3.39291e-07
-3.41288e-07
-3.43281e-07
-3.45268e-07
-3.47251e-07
-3.49231e-07
-3.51208e-07
-3.53184e-07
-3.55159e-07
-3.57133e-07
-3.59108e-07
-3.61083e-07
-3.63058e-07
-3.65034e-07
-3.67011e-07
-3.68988e-07
-3.70966e-07
-3.72943e-07
-3.74921e-07
-3.76898e-07
-3.78876e-07
-3.80852e-07
-3.82828e-07
-3.84804e-07
-3.86779e-07
-3.88752e-07
-3.90725e-07
-3.92697e-07
-3.94668e-07
-3.96639e-07
-3.98608e-07
-4.00576e-07
-4.02543e-07
-4.04509e-07
-4.06475e-07
-4.08439e-07
-4.10402e-07
-4.12365e-07
-4.14327e-07
-4.16288e-07
-4.18248e-07
-4.20207e-07
-4.22166e-07
-4.24123e-07
-4.2608e-07
-4.28037e-07
-4.29992e-07
-4.31947e-07
-4.33902e-07
-4.35855e-07
-4.37808e-07
-4.3976e-07
-4.41712e-07
-4.43663e-07
-4.45614e-07
-4.47564e-07
-4.49513e-07
-4.51462e-07
-4.5341e-07
-4.55358e-07
-4.57306e-07
-4.59252e-07
-4.61199e-07
-4.63145e-07
-4.6509e-07
-4.67035e-07
-4.68979e-07
-4.70924e-07
-4.72867e-07
-4.74811e-07
-4.76754e-07
-4.78696e-07
-4.80639e-07
-4.82581e-07
-4.84523e-07
-4.86464e-07
-4.88405e-07
-4.90346e-07
-4.92287e-07
-4.94227e-07
-4.96168e-07
-4.98108e-07
-5.00048e-07
-5.01987e-07
-5.03927e-07
-5.05867e-07
-5.07806e-07
-5.09746e-07
-5.11685e-07
-5.13624e-07
-5.15563e-07
-5.17503e-07
-5.19442e-07
-5.21381e-07
-5.2332e-07
-5.2526e-07
-5.27199e-07
-5.29138e-07
-5.31078e-07
-5.33018e-07
-5.34957e-07
-5.36897e-07
-5.38837e-07
-5.40778e-07
-5.42718e-07
-5.44659e-07
-5.466e-07
-5.48541e-07
-5.50482e-07
-5.52424e-07
-5.54365e-07
-5.56308e-07
-5.5825e-07
-5.60193e-07
-5.62136e-07
-5.64079e-07
-5.66023e-07
-5.67967e-07
-5.69912e-07
-5.71857e-07
-5.73802e-07
-5.75748e-07
-5.77694e-07
-5.79641e-07
-5.81588e-07
-5.83536e-07
-5.85484e-07
-5.87432e-07
-5.89382e-07
-5.91331e-07
-5.93281e-07
-5.95232e-07
-5.97183e-07
-5.99135e-07
-6.01087e-07
-6.0304e-07
-6.04994e-07
-6.06948e-07
-6.08903e-07
-6.10858e-07
-6.12814e-07
-6.14771e-07
-6.16728e-07
-6.18686e-07
-6.20644e-07
-6.22603e-07
-6.24563e-07
-6.26524e-07
-6.28485e-07
-6.30447e-07
-6.3241e-07
-6.34373e-07
-6.36337e-07
-6.38302e-07
-6.40267e-07
-6.42234e-07
-6.442e-07
-6.46168e-07
-6.48137e-07
-6.50106e-07
-6.52076e-07
-6.54047e-07
-6.56018e-07
-6.5799e-07
-6.59963e-07
-6.61937e-07
-6.63912e-07
-6.65887e-07
-6.67864e-07
-6.69841e-07
-6.71819e-07
-6.73798e-07
-6.75777e-07
-6.77758e-07
-6.79739e-07
-6.81721e-07
-6.83704e-07
-6.85688e-07
-6.87673e-07
-6.89659e-07
-6.91645e-07
-6.93633e-07
-6.95621e-07
-6.9761e-07
-6.99601e-07
-7.01592e-07
-7.03584e-07
-7.05577e-07
-7.0757e-07
-7.09565e-07
-7.11561e-07
-7.13558e-07
-7.15555e-07
-7.17554e-07
-7.19553e-07
-7.21554e-07
-7.23555e-07
-7.25558e-07
-7.27561e-07
-7.29566e-07
-7.31571e-07
-7.33578e-07
-7.35586e-07
-7.37594e-07
-7.39604e-07
-7.41614e-07
-7.43626e-07
-7.45639e-07
-7.47653e-07
-7.49667e-07
-7.51683e-07
-7.537e-07
-7.55719e-07
-7.57738e-07
-7.59758e-07
-7.6178e-07
-7.63802e-07
-7.65826e-07
-7.67851e-07
-7.69877e-07
-7.71904e-07
-7.73933e-07
-7.75962e-07
-7.77993e-07
-7.80024e-07
-7.82059e-07
-7.8409e-07
-7.86131e-07
-7.88159e-07
-7.90211e-07
-7.9223e-07
-7.94301e-07
-7.96299e-07
-7.98404e-07
-8.00365e-07
-8.02523e-07
-8.04423e-07