# vtk DataFile Version 2.0
FlowField
ASCII
DATASET STRUCTURED_GRID
DIMENSIONS 400 1 200
POINTS 80000 float
0 0 0
0.08 0 0
0.16 0 0
0.24 0 0
0.32 0 0
0.4 0 0
0.48 0 0
0.56 0 0
0.64 0 0
0.72 0 0
0.8 0 0
0.88 0 0
0.96 0 0
1.04 0 0
1.12 0 0
1.2 0 0
1.28 0 0
1.36 0 0
1.44 0 0
1.52 0 0
1.6 0 0
1.68 0 0
1.76 0 0
1.84 0 0
1.92 0 0
2 0 0
2.08 0 0
2.16 0 0
2.24 0 0
2.32 0 0
2.4 0 0
2.48 0 0
2.56 0 0
2.64 0 0
2.72 0 0
2.8 0 0
2.88 0 0
2.96 0 0
3.04 0 0
3.12 0 0
3.2 0 0
3.28 0 0
3.36 0 0
3.44 0 0
3.52 0 0
3.6 0 0
3.68 0 0
3.76 0 0
3.84 0 0
3.92 0 0
4 0 0
4.08 0 0
4.16 0 0
4.24 0 0
4.32 0 0
4.4 0 0
4.48 0 0
4.56 0 0
4.64 0 0
4.72 0 0
4.8 0 0
4.88 0 0
4.96 0 0
5.04 0 0
5.12 0 0
5.2 0 0
5.28 0 0
5.36 0 0
5.44 0 0
5.52 0 0
5.6 0 0
5.68 0 0
5.76 0 0
5.84 0 0
5.92 0 0
6 0 0
6.08 0 0
6.16 0 0
6.24 0 0
6.32 0 0
6.4 0 0
6.48 0 0
6.56 0 0
6.64 0 0
6.72 0 0
6.8 0 0
6.88 0 0
6.96 0 0
7.04 0 0
7.12 0 0
7.2 0 0
7.28 0 0
7.36 0 0
7.44 0 0
7.52 0 0
7.6 0 0
7.68 0 0
7.76 0 0
7.84 0 0
7.92 0 0
8 0 0
8.08 0 0
8.16 0 0
8.24 0 0
8.32 0 0
8.4 0 0
8.48 0 0
8.56 0 0
8.64 0 0
8.72 0 0
8.8 0 0
8.88 0 0
8.96 0 0
9.04 0 0
9.12 0 0
9.2 0 0
9.28 0 0
9.36 0 0
9.44 0 0
9.52 0 0
9.6 0 0
9.68 0 0
9.76 0 0
9.84 0 0
9.92 0 0
10 0 0
10.08 0 0
10.16 0 0
10.24 0 0
10.32 0 0
10.4 0 0
10.48 0 0
10.56 0 0
10.64 0 0
10.72 0 0
10.8 0 0
10.88 0 0
10.96 0 0
11.04 0 0
11.12 0 0
11.2 0 0
11.28 0 0
11.36 0 0
11.44 0 0
11.52 0 0
11.6 0 0
11.68 0 0
11.76 0 0
11.84 0 0
11.92 0 0
12 0 0
12.08 0 0
12.16 0 0
12.24 0 0
12.32 0 0
12.4 0 0
12.48 0 0
12.56 0 0
12.64 0 0
12.72 0 0
12.8 0 0
12.88 0 0
12.96 0 0
13.04 0 0
13.12 0 0
13.2 0 0
13.28 0 0
13.36 0 0
13.44 0 0
13.52 0 0
13.6 0 0
13.68 0 0
13.76 0 0
13.84 0 0
13.92 0 0
14 0 0
14.08 0 0
14.16 0 0
14.24 0 0
14.32 0 0
14.4 0 0
14.48 0 0
14.56 0 0
14.64 0 0
14.72 0 0
14.8 0 0
14.88 0 0
14.96 0 0
15.04 0 0
15.12 0 0
15.2 0 0
15.28 0 0
15.36 0 0
15.44 0 0
15.52 0 0
15.6 0 0
15.68 0 0
15.76 0 0
15.84 0 0
15.92 0 0
16 0 0
16.08 0 0
16.16 0 0
16.24 0 0
16.32 0 0
16.4 0 0
16.48 0 0
16.56 0 0
16.64 0 0
16.72 0 0
16.8 0 0
16.88 0 0
16.96 0 0
17.04 0 0
17.12 0 0
17.2 0 0
17.28 0 0
17.36 0 0
17.44 0 0
17.52 0 0
17.6 0 0
17.68 0 0
17.76 0 0
17.84 0 0
17.92 0 0
18 0 0
18.08 0 0
18.16 0 0
18.24 0 0
18.32 0 0
18.4 0 0
18.48 0 0
18.56 0 0
18.64 0 0
18.72 0 0
18.8 0 0
18.88 0 0
18.96 0 0
19.04 0 0
19.12 0 0
19.2 0 0
19.28 0 0
19.36 0 0
19.44 0 0
19.52 0 0
19.6 0 0
19.68 0 0
19.76 0 0
19.84 0 0
19.92 0 0
20 0 0
20.08 0 0
20.16 0 0
20.24 0 0
20.32 0 0
20.4 0 0
20.48 0 0
20.56 0 0
20.64 0 0
20.72 0 0
20.8 0 0
20.88 0 0
20.96 0 0
21.04 0 0
21.12 0 0
21.2 0 0
21.28 0 0
21.36 0 0
21.44 0 0
21.52 0 0
21.6 0 0
21.68 0 0
21.76 0 0
21.84 0 0
21.92 0 0
22 0 0
22.08 0 0
22.16 0 0
22.24 0 0
22.32 0 0
22.4 0 0
22.48 0 0
22.56 0 0
22.64 0 0
22.72 0 0
22.8 0 0
22.88 0 0
22.96 0 0
23.04 0 0
23.12 0 0
23.2 0 0
23.28 0 0
23.36 0 0
23.44 0 0
23.52 0 0
23.6 0 0
23.68 0 0
23.76 0 0
23.84 0 0
23.92 0 0
24 0 0
24.08 0 0
24.16 0 0
24.24 0 0
24.32 0 0
24.4 0 0
24.48 0 0
24.56 0 0
24.64 0 0
24.72 0 0
24.8 0 0
24.88 0 0
24.96 0 0
25.04 0 0
25.12 0 0
25.2 0 0
25.28 0 0
25.36 0 0
25.44 0 0
25.52 0 0
25.6 0 0
25.68 0 0
25.76 0 0
25.84 0 0
25.92 0 0
26 0 0
26.08 0 0
26.16 0 0
26.24 0 0
26.32 0 0
26.4 0 0
26.48 0 0
26.56 0 0
26.64 0 0
26.72 0 0
26.8 0 0
26.88 0 0
26.96 0 0
27.04 0 0
27.12 0 0
27.2 0 0
27.28 0 0
27.36 0 0
27.44 0 0
27.52 0 0
27.6 0 0
27.68 0 0
27.76 0 0
27.84 0 0
27.92 0 0
28 0 0
28.08 0 0
28.16 0 0
28.24 0 0
28.32 0 0
28.4 0 0
28.48 0 0
28.56 0 0
28.64 0 0
28.72 0 0
28.8 0 0
28.88 0 0
28.96 0 0
29.04 0 0
29.12 0 0
29.2 0 0
29.28 0 0
29.36 0 0
29.44 0 0
29.52 0 0
29.6 0 0
29.68 0 0
29.76 0 0
29.84 0 0
29.92 0 0
30 0 0
30.08 0 0
30.16 0 0
30.24 0 0
30.32 0 0
30.4 0 0
30.48 0 0
30.56 0 0
30.64 0 0
30.72 0 0
30.8 0 0
30.88 0 0
30.96 0 0
31.04 0 0
31.12 0 0
31.2 0 0
31.28 0 0
31.36 0 0
31.44 0 0
31.52 0 0
31.6 0 0
31.68 0 0
31.76 0 0
31.84 0 0
31.92 0 0
0 0.005 0
0.08 0.005 0
0.16 0.005 0
0.24 0.005 0
0.32 0.005 0
0.4 0.005 0
0.48 0.005 0
0.56 0.005 0
0.64 0.005 0
0.72 0.005 0
0.8 0.005 0
0.88 0.005 0
0.96 0.005 0
1.04 0.005 0
1.12 0.005 0
1.2 0.005 0
1.28 0.005 0
1.36 0.005 0
1.44 0.005 0
1.52 0.005 0
1.6 0.005 0
1.68 0.005 0
1.76 0.005 0
1.84 0.005 0
1.92 0.005 0
2 0.005 0
2.08 0.005 0
2.16 0.005 0
2.24 0.005 0
2.32 0.005 0
2.4 0.005 0
2.48 0.005 0
2.56 0.005 0
2.64 0.005 0
2.72 0.005 0
2.8 0.005 0
2.88 0.005 0
2.96 0.005 0
3.04 0.005 0
3.12 0.005 0
3.2 0.005 0
3.28 0.005 0
3.36 0.005 0
3.44 0.005 0
3.52 0.005 0
3.6 0.005 0
3.68 0.005 0
3.76 0.005 0
3.84 0.005 0
3.92 0.005 0
4 0.005 0
4.08 0.005 0
4.16 0.005 0
4.24 0.005 0
4.32 0.005 0
4.4 0.005 0
4.48 0.005 0
4.56 0.005 0
4.64 0.005 0
4.72 0.005 0
4.8 0.005 0
4.88 0.005 0
4.96 0.005 0
5.04 0.005 0
5.12 0.005 0
5.2 0.005 0
5.28 0.005 0
5.36 0.005 0
5.44 0.005 0
5.52 0.005 0
5.6 0.005 0
5.68 0.005 0
5.76 0.005 0
5.84 0.005 0
5.92 0.005 0
6 0.005 0
6.08 0.005 0
6.16 0.005 0
6.24 0.005 0
6.32 0.005 0
6.4 0.005 0
6.48 0.005 0
6.56 0.005 0
6.64 0.005 0
6.72 0.005 0
6.8 0.005 0
6.88 0.005 0
6.96 0.005 0
7.04 0.005 0
7.12 0.005 0
7.2 0.005 0
7.28 0.005 0
7.36 0.005 0
7.44 0.005 0
7.52 0.005 0
7.6 0.005 0
7.68 0.005 0
7.76 0.005 0
7.84 0.005 0
7.92 0.005 0
8 0.005 0
8.08 0.005 0
8.16 0.005 0
8.24 0.005 0
8.32 0.005 0
8.4 0.005 0
8.48 0.005 0
8.56 0.005 0
8.64 0.005 0
8.72 0.005 0
8.8 0.005 0
8.88 0.005 0
8.96 0.005 0
9.04 0.005 0
9.12 0.005 0
9.2 0.005 0
9.28 0.005 0
9.36 0.005 0
9.44 0.005 0
9.52 0.005 0
9.6 0.005 0
9.68 0.005 0
9.76 0.005 0
9.84 0.005 0
9.92 0.005 0
10 0.005 0
10.08 0.005 0
10.16 0.005 0
10.24 0.005 0
10.32 0.005 0
10.4 0.005 0
10.48 0.005 0
10.56 0.005 0
10.64 0.005 0
10.72 0.005 0
10.8 0.005 0
10.88 0.005 0
10.96 0.005 0
11.04 0.005 0
11.12 0.005 0
11.2 0.005 0
11.28 0.005 0
11.36 0.005 0
11.44 0.005 0
11.52 0.005 0
11.6 0.005 0
11.68 0.005 0
11.76 0.005 0
11.84 0.005 0
11.92 0.005 0
12 0.005 0
12.08 0.005 0
12.16 0.005 0
12.24 0.005 0
12.32 0.005 0
12.4 0.005 0
12.48 0.005 0
12.56 0.005 0
12.64 0.005 0
12.72 0.005 0
12.8 0.005 0
12.88 0.005 0
12.96 0.005 0
13.04 0.005 0
13.12 0.005 0
13.2 0.005 0
13.28 0.005 0
13.36 0.005 0
13.44 0.005 0
13.52 0.005 0
13.6 0.005 0
13.68 0.005 0
13.76 0.005 0
13.84 0.005 0
13.92 0.005 0
14 0.005 0
14.08 0.005 0
14.16 0.005 0
14.24 0.005 0
14.32 0.005 0
14.4 0.005 0
14.48 0.005 0
14.56 0.005 0
14.64 0.005 0
14.72 0.005 0
14.8 0.005 0
14.88 0.005 0
14.96 0.005 0
15.04 0.005 0
15.12 0.005 0
15.2 0.005 0
15.28 0.005 0
15.36 0.005 0
15.44 0.005 0
15.52 0.005 0
15.6 0.005 0
15.68 0.005 0
15.76 0.005 0
15.84 0.005 0
15.92 0.005 0
16 0.005 0
16.08 0.005 0
16.16 0.005 0
16.24 0.005 0
16.32 0.005 0
16.4 0.005 0
16.48 0.005 0
16.56 0.005 0
16.64 0.005 0
16.72 0.005 0
16.8 0.005 0
16.88 0.005 0
16.96 0.005 0
17.04 0.005 0
17.12 0.005 0
17.2 0.005 0
17.28 0.005 0
17.36 0.005 0
17.44 0.005 0
17.52 0.005 0
17.6 0.005 0
17.68 0.005 0
17.76 0.005 0
17.84 0.005 0
17.92 0.005 0
18 0.005 0
18.08 0.005 0
18.16 0.005 0
18.24 0.005 0
18.32 0.005 0
18.4 0.005 0
18.48 0.005 0
18.56 0.005 0
18.64 0.005 0
18.72 0.005 0
18.8 0.005 0
18.88 0.005 0
18.96 0.005 0
19.04 0.005 0
19.12 0.005 0
19.2 0.005 0
19.28 0.005 0
19.36 0.005 0
19.44 0.005 0
19.52 0.005 0
19.6 0.005 0
19.68 0.005 0
19.76 0.005 0
19.84 0.005 0
19.92 0.005 0
20 0.005 0
20.08 0.005 0
20.16 0.005 0
20.24 0.005 0
20.32 0.005 0
20.4 0.005 0
20.48 0.005 0
20.56 0.005 0
20.64 0.005 0
20.72 0.005 0
20.8 0.005 0
20.88 0.005 0
20.96 0.005 0
21.04 0.005 0
21.12 0.005 0
21.2 0.005 0
21.28 0.005 0
21.36 0.005 0
21.44 0.005 0
21.52 0.005 0
21.6 0.005 0
21.68 0.005 0
21.76 0.005 0
21.84 0.005 0
21.92 0.005 0
22 0.005 0
22.08 0.005 0
22.16 0.005 0
22.24 0.005 0
22.32 0.005 0
22.4 0.005 0
22.48 0.005 0
22.56 0.005 0
22.64 0.005 0
22.72 0.005 0
22.8 0.005 0
22.88 0.005 0
22.96 0.005 0
23.04 0.005 0
23.12 0.005 0
23.2 0.005 0
23.28 0.005 0
23.36 0.005 0
23.44 0.005 0
23.52 0.005 0
23.6 0.005 0
23.68 0.005 0
23.76 0.005 0
23.84 0.005 0
23.92 0.005 0
24 0.005 0
24.08 0.005 0
24.16 0.005 0
24.24 0.005 0
24.32 0.005 0
24.4 0.005 0
24.48 0.005 0
24.56 0.005 0
24.64 0.005 0
24.72 0.005 0
24.8 0.005 0
24.88 0.005 0
24.96 0.005 0
25.04 0.005 0
25.12 0.005 0
25.2 0.005 0
25.28 0.005 0
25.36 0.005 0
25.44 0.005 0
25.52 0.005 0
25.6 0.005 0
25.68 0.005 0
25.76 0.005 0
25.84 0.005 0
25.92 0.005 0
26 0.005 0
26.08 0.005 0
26.16 0.005 0
26.24 0.005 0
26.32 0.005 0
26.4 0.005 0
26.48 0.005 0
26.56 0.005 0
26.64 0.005 0
26.72 0.005 0
26.8 0.005 0
26.88 0.005 0
26.96 0.005 0
27.04 0.005 0
27.12 0.005 0
27.2 0.005 0
27.28 0.005 0
27.36 0.005 0
27.44 0.005 0
27.52 0.005 0
27.6 0.005 0
27.68 0.005 0
27.76 0.005 0
27.84 0.005 0
27.92 0.005 0
28 0.005 0
28.08 0.005 0
28.16 0.005 0
28.24 0.005 0
28.32 0.005 0
28.4 0.005 0
28.48 0.005 0
28.56 0.005 0
28.64 0.005 0
28.72 0.005 0
28.8 0.005 0
28.88 0.005 0
28.96 0.005 0
29.04 0.005 0
29.12 0.005 0
29.2 0.005 0
29.28 0.005 0
29.36 0.005 0
29.44 0.005 0
29.52 0.005 0
29.6 0.005 0
29.68 0.005 0
29.76 0.005 0
29.84 0.005 0
29.92 0.005 0
30 0.005 0
30.08 0.005 0
30.16 0.005 0
30.24 0.005 0
30.32 0.005 0
30.4 0.005 0
30.48 0.005 0
30.56 0.005 0
30.64 0.005 0
30.72 0.005 0
30.8 0.005 0
30.88 0.005 0
30.96 0.005 0
31.04 0.005 0
31.12 0.005 0
31.2 0.005 0
31.28 0.005 0
31.36 0.005 0
31.44 0.005 0
31.52 0.005 0
31.6 0.005 0
31.68 0.005 0
31.76 0.005 0
31.84 0.005 0
31.92 0.005 0
0 0.01 0
0.08 0.01 0
0.16 0.01 0
0.24 0.01 0
0.32 0.01 0
0.4 0.01 0
0.48 0.01 0
0.56 0.01 0
0.64 0.01 0
0.72 0.01 0
0.8 0.01 0
0.88 0.01 0
0.96 0.01 0
1.04 0.01 0
1.12 0.01 0
1.2 0.01 0
1.28 0.01 0
1.36 0.01 0
1.44 0.01 0
1.52 0.01 0
1.6 0.01 0
1.68 0.01 0
1.76 0.01 0
1.84 0.01 0
1.92 0.01 0
2 0.01 0
2.08 0.01 0
2.16 0.01 0
2.24 0.01 0
2.32 0.01 0
2.4 0.01 0
2.48 0.01 0
2.56 0.01 0
2.64 0.01 0
2.72 0.01 0
2.8 0.01 0
2.88 0.01 0
2.96 0.01 0
3.04 0.01 0
3.12 0.01 0
3.2 0.01 0
3.28 0.01 0
3.36 0.01 0
3.44 0.01 0
3.52 0.01 0
3.6 0.01 0
3.68 0.01 0
3.76 0.01 0
3.84 0.01 0
3.92 0.01 0
4 0.01 0
4.08 0.01 0
4.16 0.01 0
4.24 0.01 0
4.32 0.01 0
4.4 0.01 0
4.48 0.01 0
4.56 0.01 0
4.64 0.01 0
4.72 0.01 0
4.8 0.01 0
4.88 0.01 0
4.96 0.01 0
5.04 0.01 0
5.12 0.01 0
[...]
POINT_DATA 80000

SCALARS v float 1
LOOKUP_TABLE default
0
0
0
0
0
0
0
0
0
0
0
0
0
0
0
0
0
0
0
0
0
0
0
0
0
0
0
0
0
0
0
0
0
0
0
0
0
0
0
0
0
0
0
0
0
0
0
0
0
0
0
0
0
0
0
0
0
0
0
0
0
0
0
0
0
0
0
0
0
0
0
0
0
0
0
0
0
0
0
0
0
0
0
0
0
0
0
0
0
0
0
0
0
0
0
0
0
0
0
0
0
0
0
0
0
0
0
0
0
0
0
0
0
0
0
0
0
0
0
0
0
0
0
0
0
0
0
0
0
0
0
0
0
0
0
0
0
0
0
0
0
0
0
0
0
0
0
0
0
0
0
0
0
0
0
0
0
0
0
0
0
0
0
0
0
0
0
0
0
0
0
0
0
0
0
0
0
0
0
0
0
0
0
0
0
0
0
0
0
0
0
0
0
0
0
0
0
0
0
0
0
0
0
0
0
0
0
0
0
0
0
0
0
0
0
0
0
0
0
0
0
0
0
0
0
0
0
0
0
0
0
0
0
0
0
0
0
0
0
0
0
0
0
0
0
0
0
0
0
0
0
0
0
0
0
0
0
0
0
0
0
0
0
0
0
0
0
0
0
0
0
0
0
0
0
0
0
0
0
0
0
0
0
0
0
0
0
0
0
0
0
0
0
0
0
0
0
0
0
0
0
0
0
0
0
0
0
0
0
0
0
0
0
0
0
0
0
0
0
0
0
0
0
0
0
0
0
0
0
0
0
0
0
0
0
0
0
0
0
0
0
0
0
0
0
0
0
0
0
0
0
0
0
0
0
0
0
0
0
0
0
0
0
0
0
0
0
0
0
0
0
0
0
0
0
0
0
0
0
0
0
0
0
0
0
0
0
0
0
0
0
0
0
0
0
0
0
0
0
0
-0.0542606
0.0542606
0.00390467
0.000811584
0.000225347
4.3151e-05
-7.42118e-06
-1.92785e-05
-2.19452e-05
-2.27002e-05
-2.301e-05
-2.31652e-05
-2.32537e-05
-2.33162e-05
-2.33756e-05
-2.34413e-05
-2.35178e-05
-2.36043e-05
-2.37005e-05
-2.3804e-05
-2.39141e-05
-2.40287e-05
-2.41479e-05
-2.427e-05
-2.43955e-05
-2.45231e-05
-2.46536e-05
-2.47858e-05
-2.49207e-05
-2.50572e-05
-2.51963e-05
-2.53369e-05
-2.54801e-05
-2.56248e-05
-2.57722e-05
-2.59212e-05
-2.60728e-05
-2.6226e-05
-2.6382e-05
-2.65397e-05
-2.67001e-05
-2.68623e-05
-2.70274e-05
-2.71943e-05
-2.7364e-05
-2.75356e-05
-2.77102e-05
-2.78866e-05
-2.80659e-05
-2.82471e-05
-2.84313e-05
-2.86173e-05
-2.88061e-05
-2.89968e-05
-2.91903e-05
-2.93854e-05
-2.95834e-05
-2.97829e-05
-2.99852e-05
-3.01889e-05
-3.03952e-05
-3.06029e-05
-3.08131e-05
-3.10246e-05
-3.12384e-05
-3.14535e-05
-3.16708e-05
-3.18893e-05
-3.21099e-05
-3.23317e-05
-3.25555e-05
-3.27804e-05
-3.30073e-05
-3.32353e-05
-3.34653e-05
-3.36964e-05
-3.39296e-05
-3.41638e-05
-3.44003e-05
-3.4638e-05
-3.4878e-05
-3.51194e-05
-3.53634e-05
-3.5609e-05
-3.58576e-05
-3.61081e-05
-3.63619e-05
-3.6618e-05
-3.6878e-05
-3.71408e-05
-3.74079e-05
-3.76785e-05
-3.79539e-05
-3.82335e-05
-3.85186e-05
-3.88084e-05
-3.91045e-05
-3.94059e-05
-3.97142e-05
-4.00286e-05
-4.03505e-05
-4.06791e-05
-4.10158e-05
-4.13598e-05
-4.17124e-05
-4.20728e-05
-4.24422e-05
-4.28199e-05
-4.3207e-05
-4.36026e-05
-4.40079e-05
-4.44221e-05
-4.48462e-05
-4.52792e-05
-4.57223e-05
-4.61745e-05
-4.66369e-05
-4.71084e-05
-4.75901e-05
-4.80811e-05
-4.85825e-05
-4.90931e-05
-4.96143e-05
-5.0145e-05
-5.06864e-05
-5.12376e-05
-5.17998e-05
-5.23723e-05
-5.29564e-05
-5.35513e-05
-5.41584e-05
-5.47772e-05
-5.5409e-05
-5.60535e-05
-5.67122e-05
-5.73846e-05
-5.80725e-05
-5.87754e-05
-5.94952e-05
-6.02315e-05
-6.09861e-05
-6.17589e-05
-6.25516e-05
-6.3364e-05
-6.4198e-05
-6.50535e-05
-6.59323e-05
-6.68342e-05
-6.77612e-05
-6.87131e-05
-6.9692e-05
-7.06976e-05
-7.17322e-05
-7.27956e-05
-7.389e-05
-7.50156e-05
-7.61745e-05
-7.73672e-05
-7.85961e-05
-7.98617e-05
-8.11667e-05
-8.25118e-05
-8.39002e-05
-8.53327e-05
-8.68129e-05
-8.83421e-05
-8.9924e-05
-9.15604e-05
-9.32555e-05
-9.50115e-05
-9.68332e-05
-9.87232e-05
-0.000100687
-0.000102728
-0.000104852
-0.000107064
-0.00010937
-0.000111776
-0.000114291
-0.00011692
-0.000119675
-0.000122564
-0.0001256
-0.000128796
-0.000132166
-0.000135728
-0.000139502
-0.000143513
-0.000147787
-0.000152358
-0.000157265
-0.000162553
-0.000168277
-0.000174499
-0.000181298
-0.000188761
-0.000196994
-0.000206122
-0.000216289
-0.000227665
-0.000240446
-0.000254858
-0.000271163
-0.000289656
-0.000310674
-0.000334594
-0.000361839
-0.000392872
-0.000428207
-0.000468396
-0.000514035
-0.000565753
-0.000624211
-0.000690088
-0.000764073
-0.00084685
-0.000939081
-0.00104138
-0.00115432
-0.00127835
-0.00141383
-0.00156099
-0.00171987
-0.00189032
-0.00207198
-0.00226423
-0.00246621
-0.00267676
-0.00289446
-0.00311757
-0.00334411
-0.00357182
-0.00379823
-0.00402065
-0.00423627
-0.00444219
-0.00463548
-0.00481325
-0.00497275
-0.00511141
-0.00522693
-0.00531733
-0.00538104
-0.00541689
-0.00542422
-0.00540285
-0.00535308
-0.0052757
-0.00517198
-0.0050436
-0.00489259
-0.00472131
-0.00453238
-0.00432855
-0.00411272
-0.00388778
-0.0036566
-0.00342198
-0.00318653
-0.00295269
-0.00272269
-0.00249848
-0.00228176
-0.00207394
-0.00187618
-0.00168936
-0.00151408
-0.00135076
-0.00119954
-0.00106043
-0.000933218
-0.000817589
-0.000713096
-0.0006192
-0.000535298
-0.000460732
-0.00039482
-0.000336865
-0.000286171
-0.000242055
-0.000203859
-0.000170953
-0.000142745
-0.000118684
-9.82587e-05
-8.10034e-05
-6.64964e-05
-5.43569e-05
-4.42471e-05
-3.58661e-05
-2.89514e-05
-2.32718e-05
-1.86291e-05
-1.48502e-05
-1.17893e-05
-9.32027e-06
-7.33842e-06
-5.75384e-06
-4.49339e-06
-3.49432e-06
-2.70678e-06
-2.08781e-06
-1.60433e-06
-1.22744e-06
-9.3577e-07
-7.10166e-07
-5.37262e-07
-4.04462e-07
-3.03745e-07
-2.2684e-07
-1.69208e-07
-1.25363e-07
-9.29868e-08
-6.83508e-08
-5.05185e-08
-3.68468e-08
-2.72439e-08
-1.97221e-08
-1.46952e-08
-1.05634e-08
-8.03708e-09
-5.74199e-09
-4.55883e-09
-3.24173e-09
-2.76756e-09
-1.96217e-09
-1.85566e-09
-1.31323e-09
-1.39387e-09
-9.83967e-10
-1.15797e-09
-8.13433e-10
-1.03291e-09
-7.19777e-10
-9.60746e-10
-6.62171e-10
-9.12868e-10
-6.20684e-10
-8.75485e-10
-5.85854e-10
-8.4217e-10
-5.53373e-10
-8.10088e-10
-5.21423e-10
-7.7812e-10
-4.89365e-10
-7.45953e-10
-4.57102e-10
-7.13629e-10
-4.24766e-10
-6.81339e-10
-3.92582e-10
-6.49321e-10
-3.60791e-10
-6.17814e-10
-3.29622e-10
-5.87033e-10
-2.99277e-10
-5.57166e-10
-2.69925e-10
-5.28362e-10
-2.41699e-10
-5.00739e-10
-2.14699e-10
-4.74379e-10
-1.88991e-10
-4.49334e-10
-1.64614e-10
-4.25626e-10
-1.41574e-10
-4.03251e-10
-1.19858e-10
-3.82182e-10
-9.94242e-11
-3.62369e-10
-8.02126e-11
-3.43738e-10
-6.21377e-11
-3.26192e-10
-4.50901e-11
-3.09609e-10
-2.89351e-11
-2.93844e-10
-1.35229e-11
-2.78753e-10
1.26101e-12
-2.64293e-10
1.53198e-11
-2.50829e-10
2.77893e-11
-2.40119e-10
3.53138e-11
-2.38433e-10
2.60895e-11
-2.68822e-10
-4.46303e-11
-3.82887e-10
-1.5826e-11
2.55608e-10
2.55608e-10
-0.0952243
0.0952243
0.0127768
0.00313844
0.000919139
0.000220665
2.31186e-05
-2.6149e-05
-3.88686e-05
-4.31344e-05
-4.502e-05
-4.59411e-05
-4.63991e-05
-4.66374e-05
-4.67926e-05
-4.69275e-05
-4.70762e-05
-4.72452e-05
-4.74398e-05
-4.76534e-05
-4.78866e-05
-4.8132e-05
-4.83908e-05
-4.86568e-05
-4.89326e-05
-4.92128e-05
-4.95007e-05
-4.97919e-05
-5.00898e-05
-5.03903e-05
-5.06971e-05
-5.10063e-05
-5.13216e-05
-5.16392e-05
-5.1963e-05
-5.22891e-05
-5.26215e-05
-5.29561e-05
-5.32972e-05
-5.36408e-05
-5.39908e-05
-5.43435e-05
-5.47028e-05
-5.50649e-05
-5.54337e-05
-5.58054e-05
-5.6184e-05
-5.65656e-05
-5.69542e-05
-5.73457e-05
-5.77443e-05
-5.8146e-05
-5.85548e-05
-5.89667e-05
-5.93856e-05
-5.98077e-05
-6.02368e-05
-6.0669e-05
-6.11082e-05
-6.15505e-05
-6.19997e-05
-6.2452e-05
-6.29113e-05
-6.33735e-05
-6.38427e-05
-6.43148e-05
-6.47939e-05
-6.52759e-05
-6.57648e-05
-6.62568e-05
-6.67557e-05
-6.72577e-05
-6.77667e-05
-6.82789e-05
-6.87983e-05
-6.93209e-05
-6.9851e-05
-7.03845e-05
-7.09258e-05
-7.14708e-05
-7.20239e-05
-7.25812e-05
-7.3147e-05
-7.37175e-05
-7.42971e-05
-7.48819e-05
-7.54766e-05
-7.60772e-05
-7.66884e-05
-7.73065e-05
-7.79359e-05
-7.85732e-05
-7.92229e-05
-7.98814e-05
-8.05533e-05
-8.12351e-05
-8.19314e-05
-8.26387e-05
-8.33616e-05
-8.40965e-05
-8.48481e-05
-8.56128e-05
-8.63952e-05
-8.71918e-05
-8.8007e-05
-8.88374e-05
-8.96873e-05
-9.05531e-05
-9.14394e-05
-9.23424e-05
-9.32665e-05
-9.42081e-05
-9.51715e-05
-9.6153e-05
-9.71569e-05
-9.81794e-05
-9.9225e-05
-0.00010029
-0.000101378
-0.000102487
-0.000103619
-0.000104772
-0.00010595
-0.00010715
-0.000108376
-0.000109624
-0.000110899
-0.000112197
-0.000113525
-0.000114877
-0.000116259
-0.000117669
-0.000119111
-0.000120581
-0.000122087
-0.000123623
-0.000125197
-0.000126805
-0.000128453
-0.000130139
-0.000131867
-0.000133636
-0.000135451
-0.00013731
-0.00013922
-0.000141176
-0.000143187
-0.000145249
-0.000147369
-0.000149544
-0.000151781
-0.000154079
-0.000156443
-0.000158872
-0.000161372
-0.000163943
-0.000166592
-0.000169317
-0.000172125
-0.000175017
-0.000178
-0.000181075
-0.000184249
-0.000187523
-0.000190907
-0.000194401
-0.000198016
-0.000201754
-0.000205625
-0.000209633
-0.000213789
-0.000218098
-0.000222573
-0.000227218
-0.00023205
-0.000237074
-0.000242308
-0.000247761
-0.000253452
-0.000259393
-0.000265606
-0.000272108
-0.000278923
-0.000286074
-0.000293592
-0.000301505
-0.000309852
-0.000318671
-0.000328012
-0.000337923
-0.000348471
-0.000359722
-0.00037176
-0.000384675
-0.000398579
-0.000413592
-0.00042986
-0.000447544
-0.000466836
-0.000487946
-0.000511123
-0.000536639
-0.000564809
-0.000595979
-0.000630542
-0.000668922
-0.000711595
-0.000759071
-0.000811905
-0.000870682
-0.00093603
-0.00100859
-0.00108903
-0.00117801
-0.00127619
-0.00138421
-0.00150266
-0.00163206
-0.00177285
-0.00192534
-0.00208972
-0.00226599
-0.00245397
-0.00265326
-0.00286321
-0.0030829
-0.00331114
-0.00354644
-0.00378706
-0.00403091
-0.00427569
-0.00451883
-0.00475757
-0.00498898
-0.00521002
-0.00541762
-0.00560874
-0.00578042
-0.00592991
-0.00605468
-0.00615255
-0.00622172
-0.00626081
-0.00626897
-0.00624581
-0.00619151
-0.00610674
-0.00599269
-0.00585101
-0.00568379
-0.00549345
-0.00528273
-0.00505459
-0.00481213
-0.00455853
-0.00429694
-0.00403048
-0.0037621
-0.00349459
-0.0032305
-0.00297212
-0.00272146
-0.00248024
-0.00224985
-0.00203142
-0.00182577
-0.00163345
-0.00145476
-0.00128978
-0.00113838
-0.00100029
-0.000875051
-0.000762121
-0.000660853
-0.00057054
-0.000490427
-0.000419738
-0.000357687
-0.0003035
-0.000256417
-0.000215714
-0.000180697
-0.000150724
-0.000125189
-0.000103542
-8.52756e-05
-6.99384e-05
-5.71176e-05
-4.64538e-05
-3.76217e-05
-3.03438e-05
-2.43706e-05
-1.94939e-05
-1.5527e-05
-1.23182e-05
-9.73075e-06
-7.657e-06
-5.99901e-06
-4.68256e-06
-3.63862e-06
-2.81763e-06
-2.17156e-06
-1.66857e-06
-1.27545e-06
-9.72725e-07
-7.37424e-07
-5.58498e-07
-4.19861e-07
-3.16069e-07
-2.35569e-07
-1.76558e-07
-1.30397e-07
-9.7602e-08
-7.13667e-08
-5.36502e-08
-3.87749e-08
-2.958e-08
-2.10694e-08
-1.66075e-08
-1.16015e-08
-9.72344e-09
-6.61413e-09
-6.1224e-09
-4.02201e-09
-4.2613e-09
-2.68822e-09
-3.30616e-09
-2.00372e-09
-2.81415e-09
-1.6479e-09
-2.55417e-09
-1.45495e-09
-2.40778e-09
-1.34065e-09
-2.31538e-09
-1.26304e-09
-2.24761e-09
-1.20169e-09
-2.19036e-09
-1.14697e-09
-2.13711e-09
-1.09451e-09
-2.08501e-09
-1.04253e-09
-2.03302e-09
-9.90466e-10
-1.98088e-09
-9.38292e-10
-1.92873e-09
-8.86223e-10
-1.87682e-09
-8.3456e-10
-1.82548e-09
-7.83617e-10
-1.77501e-09
-7.33686e-10
-1.72568e-09
-6.85022e-10
-1.67773e-09
-6.37837e-10
-1.63136e-09
-5.92299e-10
-1.58669e-09
-5.48529e-10
-1.54384e-09
-5.06606e-10
-1.50285e-09
-4.66567e-10
-1.46376e-09
-4.28408e-10
-1.42652e-09
-3.92085e-10
-1.39109e-09
-3.57512e-10
-1.35734e-09
-3.24551e-10
-1.32512e-09
-2.93004e-10
-1.29418e-09
-2.62595e-10
-1.26421e-09
-2.32963e-10
-1.23481e-09
-2.03696e-10
-1.2056e-09
-1.74524e-10
-1.17658e-09
-1.4602e-10
-1.1494e-09
-1.21786e-10
-1.13117e-09
-1.15209e-10
-1.14667e-09
-1.72569e-10
-1.28532e-09
-4.63873e-10
-1.73076e-09
-3.41354e-10
7.19579e-10
7.19579e-10
-0.125343
0.125343
0.0245001
0.00676944
0.00204817
0.000528956
8.97665e-05
-2.55581e-05
-5.81999e-05
-7.01916e-05
-7.57475e-05
-7.85372e-05
-7.99547e-05
-8.06872e-05
-8.11169e-05
-8.14296e-05
-8.17274e-05
-8.20419e-05
-8.23947e-05
-8.27781e-05
-8.31969e-05
-8.36373e-05
-8.41033e-05
-8.45825e-05
-8.50803e-05
-8.5586e-05
-8.61065e-05
-8.66323e-05
-8.71709e-05
-8.77134e-05
-8.82678e-05
-8.88255e-05
-8.93948e-05
-8.9967e-05
-9.05508e-05
-9.11376e-05
-9.17359e-05
-9.23374e-05
-9.29507e-05
-9.35673e-05
-9.41959e-05
-9.4828e-05
-9.54724e-05
-9.61207e-05
-9.67814e-05
-9.74462e-05
-9.81237e-05
-9.88056e-05
-9.95003e-05
-0.0001002
-0.000100912
-0.000101629
-0.000102359
-0.000103094
-0.000103843
-0.000104596
-0.000105363
-0.000106135
-0.00010692
-0.000107711
-0.000108515
-0.000109325
-0.000110148
-0.000110976
-0.000111818
-0.000112666
-0.000113528
-0.000114395
-0.000115276
-0.000116163
-0.000117064
-0.000117971
-0.000118893
-0.000119821
-0.000120763
-0.000121713
-0.000122677
-0.000123649
-0.000124637
-0.000125632
-0.000126643
-0.000127663
-0.0001287
-0.000129746
-0.000130811
-0.000131885
-0.000132979
-0.000134083
-0.000135209
-0.000136346
-0.000137505
-0.000138678
-0.000139875
-0.000141086
-0.000142322
-0.000143575
-0.000144855
-0.000146153
-0.000147478
-0.000148824
-0.0001502
-0.000151597
-0.000153025
-0.000154477
-0.000155962
-0.000157471
-0.000159014
-0.000160584
-0.00016219
-0.000163823
-0.000165494
-0.000167193
-0.000168931
-0.000170699
-0.000172506
-0.000174346
-0.000176226
-0.000178139
-0.000180094
-0.000182084
-0.000184117
-0.000186186
-0.0001883
-0.000190452
-0.000192651
-0.00019489
-0.000197177
-0.000199507
-0.000201888
-0.000204314
-0.000206795
-0.000209324
-0.00021191
-0.000214548
-0.000217248
-0.000220003
-0.000222825
-0.000225706
-0.000228658
-0.000231676
-0.000234769
-0.000237932
-0.000241177
-0.000244498
-0.000247907
-0.000251397
-0.000254982
-0.000258655
-0.000262428
-0.000266297
-0.000270274
-0.000274355
-0.000278551
-0.000282858
-0.00028729
-0.000291843
-0.00029653
-0.000301347
-0.00030631
-0.000311415
-0.000316678
-0.000322096
-0.000327685
-0.000333444
-0.000339391
-0.000345524
-0.000351863
-0.000358408
-0.000365178
-0.000372177
-0.000379425
-0.000386927
-0.000394705
-0.000402766
-0.000411134
-0.000419819
-0.000428847
-0.000438231
-0.000448002
-0.000458175
-0.000468785
-0.000479853
-0.000491418
-0.000503508
-0.00051617
-0.000529438
-0.000543369
-0.000558007
-0.000573423
-0.000589674
-0.000606845
-0.000625014
-0.000644286
-0.000664763
-0.000686578
-0.000709863
-0.000734787
-0.00076152
-0.000790276
-0.000821274
-0.000854779
-0.000891071
-0.000930477
-0.00097334
-0.00102006
-0.00107105
-0.00112678
-0.00118773
-0.00125445
-0.00132747
-0.00140738
-0.00149477
-0.00159024
-0.00169437
-0.00180775
-0.0019309
-0.0020643
-0.00220834
-0.00236334
-0.00252945
-0.00270672
-0.00289499
-0.00309393
-0.00330295
-0.00352125
-0.00374777
-0.00398116
-0.0042198
-0.00446181
-0.00470504
-0.00494708
-0.00518533
-0.00541699
-0.00563913
-0.00584876
-0.00604287
-0.0062185
-0.00637282
-0.00650323
-0.00660736
-0.00668322
-0.00672921
-0.00674419
-0.00672749
-0.00667899
-0.00659905
-0.00648858
-0.00634898
-0.00618208
-0.00599014
-0.00577577
-0.00554182
-0.00529138
-0.00502764
-0.00475387
-0.00447327
-0.00418899
-0.00390401
-0.00362113
-0.00334286
-0.0030715
-0.00280899
-0.00255703
-0.00231694
-0.00208981
-0.00187637
-0.00167713
-0.00149231
-0.00132194
-0.00116582
-0.0010236
-0.000894775
-0.000778748
-0.000674812
-0.000582215
-0.000500151
-0.000427808
-0.000364356
-0.000308992
-0.00026092
-0.000219394
-0.000183692
-0.000153153
-0.000127149
-0.00010512
-8.654e-05
-7.09492e-05
-5.79209e-05
-4.70917e-05
-3.81246e-05
-3.07406e-05
-2.46809e-05
-1.97375e-05
-1.57159e-05
-1.24659e-05
-9.84422e-06
-7.7457e-06
-6.06642e-06
-4.73546e-06
-3.67831e-06
-2.84916e-06
-2.19483e-06
-1.68753e-06
-1.28913e-06
-9.84394e-07
-7.45587e-07
-5.66002e-07
-4.24891e-07
-3.21224e-07
-2.38841e-07
-1.80401e-07
-1.32693e-07
-1.00719e-07
-7.31222e-08
-5.63647e-08
-4.02304e-08
-3.20696e-08
-2.23551e-08
-1.89676e-08
-1.27869e-08
-1.20045e-08
-7.73584e-09
-8.3507e-09
-5.09883e-09
-6.4503e-09
-3.72969e-09
-5.46256e-09
-3.01449e-09
-4.94115e-09
-2.63016e-09
-4.65324e-09
-2.40965e-09
-4.47951e-09
-2.26813e-09
-4.35997e-09
-2.16341e-09
-4.26509e-09
-2.07496e-09
-4.18074e-09
-1.99313e-09
-4.10039e-09
-1.91361e-09
-4.02129e-09
-1.83468e-09
-3.94243e-09
-1.75586e-09
-3.86366e-09
-1.67719e-09
-3.78517e-09
-1.59897e-09
-3.70731e-09
-1.52157e-09
-3.63046e-09
-1.44537e-09
-3.555e-09
-1.37071e-09
-3.48123e-09
-1.29791e-09
-3.40944e-09
-1.2272e-09
-3.33986e-09
-1.15878e-09
-3.27264e-09
-1.09279e-09
-3.2079e-09
-1.02931e-09
-3.14569e-09
-9.68372e-10
-3.08601e-09
-9.0994e-10
-3.02881e-09
-8.53926e-10
-2.97394e-09
-8.00168e-10
-2.92123e-09
-7.48412e-10
-2.87034e-09
-6.98283e-10
-2.82083e-09
-6.49244e-10
-2.77208e-09
-6.00581e-10
-2.7233e-09
-5.51471e-10
-2.67372e-09
-5.01426e-10
-2.62349e-09
-4.5183e-10
-2.57635e-09
-4.10775e-10
-2.54816e-09
-4.07888e-10
-2.59347e-09
-5.44588e-10
-2.90671e-09
-1.18446e-09
-3.85892e-09
-8.75661e-10
1.45007e-09
1.45007e-09
-0.146607
0.146607
0.0375535
0.0114628
0.00358781
0.000977229
0.000202634
-1.08341e-05
-7.56953e-05
-0.000100938
-0.000112947
-0.000119085
-0.000122267
-0.000123937
-0.000124891
-0.000125529
-0.000126072
-0.000126602
-0.000127171
-0.000127777
-0.000128434
-0.000129122
-0.000129849
-0.000130596
-0.000131372
-0.000132161
-0.000132973
-0.000133793
-0.000134634
-0.000135479
-0.000136344
-0.000137213
-0.0001381
-0.000138991
-0.0001399
-0.000140812
-0.000141743
-0.000142678
-0.00014363
-0.000144588
-0.000145563
-0.000146544
-0.000147543
-0.000148548
-0.000149572
-0.000150601
-0.00015165
-0.000152705
-0.000153779
-0.000154861
-0.000155962
-0.00015707
-0.000158199
-0.000159334
-0.000160491
-0.000161654
-0.000162839
-0.000164031
-0.000165244
-0.000166465
-0.000167708
-0.000168958
-0.00017023
-0.00017151
-0.000172813
-0.000174123
-0.000175456
-0.000176798
-0.000178162
-0.000179535
-0.000180931
-0.000182337
-0.000183766
-0.000185205
-0.000186668
-0.000188141
-0.000189639
-0.000191149
-0.000192684
-0.000194231
-0.000195804
-0.000197391
-0.000199005
-0.000200633
-0.00020229
-0.000203963
-0.000205666
-0.000207386
-0.000209138
-0.000210909
-0.000212714
-0.000214539
-0.0002164
-0.000218283
-0.000220205
-0.000222151
-0.000224137
-0.00022615
-0.000228205
-0.00023029
-0.000232418
-0.000234579
-0.000236785
-0.000239026
-0.000241315
-0.00024364
-0.000246016
-0.00024843
-0.000250896
-0.000253403
-0.000255965
-0.000258569
-0.000261229
-0.000263934
-0.000266698
-0.000269507
-0.000272377
-0.000275296
-0.000278277
-0.000281309
-0.000284405
-0.000287554
-0.000290771
-0.000294043
-0.000297386
-0.000300787
-0.000304261
-0.000307797
-0.00031141
-0.000315089
-0.000318849
-0.000322679
-0.000326596
-0.000330588
-0.000334671
-0.000338835
-0.000343097
-0.000347445
-0.000351897
-0.000356443
-0.000361101
-0.000365859
-0.000370736
-0.000375722
-0.000380835
-0.000386065
-0.00039143
-0.000396922
-0.000402559
-0.000408332
-0.00041426
-0.000420334
-0.000426574
-0.000432972
-0.000439547
-0.000446293
-0.000453229
-0.00046035
-0.000467675
-0.000475201
-0.000482948
-0.000490911
-0.000499115
-0.000507555
-0.000516255
-0.000525214
-0.000534456
-0.000543982
-0.000553818
-0.000563965
-0.000574452
-0.000585282
-0.000596486
-0.000608069
-0.000620065
-0.000632482
-0.000645356
-0.000658698
-0.000672549
-0.000686923
-0.000701865
-0.000717395
-0.000733564
-0.000750397
-0.000767952
-0.000786262
-0.000805395
-0.000825395
-0.000846339
-0.000868284
-0.000891325
-0.000915536
-0.000941029
-0.000967902
-0.000996292
-0.00102632
-0.00105817
-0.00109199
-0.00112799
-0.00116638
-0.00120742
-0.00125135
-0.00129851
-0.00134919
-0.00140377
-0.00146264
-0.00152623
-0.00159497
-0.00166936
-0.00174989
-0.00183709
-0.00193147
-0.00203359
-0.00214394
-0.00226304
-0.00239133
-0.00252922
-0.00267702
-0.00283496
-0.00300313
-0.00318149
-0.00336983
-0.00356774
-0.00377459
-0.00398954
-0.00421148
-0.00443907
-0.00467068
-0.00490443
-0.0051382
-0.00536964
-0.00559618
-0.0058151
-0.00602357
-0.00621869
-0.00639755
-0.00655732
-0.00669529
-0.00680898
-0.00689617
-0.00695498
-0.00698394
-0.00698203
-0.00694871
-0.00688393
-0.00678818
-0.00666244
-0.00650816
-0.00632727
-0.00612205
-0.00589514
-0.00564943
-0.00538801
-0.00511408
-0.0048309
-0.00454165
-0.00424946
-0.00395728
-0.00366788
-0.00338374
-0.0031071
-0.00283989
-0.00258375
-0.00233996
-0.00210956
-0.00189327
-0.00169153
-0.00150453
-0.00133228
-0.00117453
-0.00103092
-0.000900904
-0.000783862
-0.000679061
-0.000585737
-0.000503058
-0.000430202
-0.000366318
-0.000310597
-0.000262227
-0.000220457
-0.000184551
-0.000153848
-0.000127708
-0.00010557
-8.68985e-05
-7.12367e-05
-5.81485e-05
-4.72737e-05
-3.82676e-05
-3.0855e-05
-2.47699e-05
-1.9809e-05
-1.57709e-05
-1.25106e-05
-9.87813e-06
-7.77374e-06
-6.08734e-06
-4.75337e-06
-3.69134e-06
-2.86094e-06
-2.20312e-06
-1.69565e-06
-1.2946e-06
-9.90351e-07
-7.49397e-07
-5.70686e-07
-4.27727e-07
-3.25163e-07