# vtk DataFile Version 2.0
FlowField
ASCII
DATASET STRUCTURED_GRID
DIMENSIONS 400 1 200
POINTS 80000 float
0 0 0
0.08 0 0
0.16 0 0
0.24 0 0
0.32 0 0
0.4 0 0
0.48 0 0
0.56 0 0
0.64 0 0
0.72 0 0
0.8 0 0
0.88 0 0
0.96 0 0
1.04 0 0
1.12 0 0
1.2 0 0
1.28 0 0
1.36 0 0
1.44 0 0
1.52 0 0
1.6 0 0
1.68 0 0
1.76 0 0
1.84 0 0
1.92 0 0
2 0 0
2.08 0 0
2.16 0 0
2.24 0 0
2.32 0 0
2.4 0 0
2.48 0 0
2.56 0 0
2.64 0 0
2.72 0 0
2.8 0 0
2.88 0 0
2.96 0 0
3.04 0 0
3.12 0 0
3.2 0 0
3.28 0 0
3.36 0 0
3.44 0 0
3.52 0 0
3.6 0 0
3.68 0 0
3.76 0 0
3.84 0 0
3.92 0 0
4 0 0
4.08 0 0
4.16 0 0
4.24 0 0
4.32 0 0
4.4 0 0
4.48 0 0
4.56 0 0
4.64 0 0
4.72 0 0
4.8 0 0
4.88 0 0
4.96 0 0
5.04 0 0
5.12 0 0
5.2 0 0
5.28 0 0
5.36 0 0
5.44 0 0
5.52 0 0
5.6 0 0
5.68 0 0
5.76 0 0
5.84 0 0
5.92 0 0
6 0 0
6.08 0 0
6.16 0 0
6.24 0 0
6.32 0 0
6.4 0 0
6.48 0 0
6.56 0 0
6.64 0 0
6.72 0 0
6.8 0 0
6.88 0 0
6.96 0 0
7.04 0 0
7.12 0 0
7.2 0 0
7.28 0 0
7.36 0 0
7.44 0 0
7.52 0 0
7.6 0 0
7.68 0 0
7.76 0 0
7.84 0 0
7.92 0 0
8 0 0
8.08 0 0
8.16 0 0
8.24 0 0
8.32 0 0
8.4 0 0
8.48 0 0
8.56 0 0
8.64 0 0
8.72 0 0
8.8 0 0
8.88 0 0
8.96 0 0
9.04 0 0
9.12 0 0
9.2 0 0
9.28 0 0
9.36 0 0
9.44 0 0
9.52 0 0
9.6 0 0
9.68 0 0
9.76 0 0
9.84 0 0
9.92 0 0
10 0 0
10.08 0 0
10.16 0 0
10.24 0 0
10.32 0 0
10.4 0 0
10.48 0 0
10.56 0 0
10.64 0 0
10.72 0 0
10.8 0 0
10.88 0 0
10.96 0 0
11.04 0 0
11.12 0 0
11.2 0 0
11.28 0 0
11.36 0 0
11.44 0 0
11.52 0 0
11.6 0 0
11.68 0 0
11.76 0 0
11.84 0 0
11.92 0 0
12 0 0
12.08 0 0
12.16 0 0
12.24 0 0
12.32 0 0
12.4 0 0
12.48 0 0
12.56 0 0
12.64 0 0
12.72 0 0
12.8 0 0
12.88 0 0
12.96 0 0
13.04 0 0
13.12 0 0
13.2 0 0
13.28 0 0
13.36 0 0
13.44 0 0
13.52 0 0
13.6 0 0
13.68 0 0
13.76 0 0
13.84 0 0
13.92 0 0
14 0 0
14.08 0 0
14.16 0 0
14.24 0 0
14.32 0 0
14.4 0 0
14.48 0 0
14.56 0 0
14.64 0 0
14.72 0 0
14.8 0 0
14.88 0 0
14.96 0 0
15.04 0 0
15.12 0 0
15.2 0 0
15.28 0 0
15.36 0 0
15.44 0 0
15.52 0 0
15.6 0 0
15.68 0 0
15.76 0 0
15.84 0 0
15.92 0 0
16 0 0
16.08 0 0
16.16 0 0
16.24 0 0
16.32 0 0
16.4 0 0
16.48 0 0
16.56 0 0
16.64 0 0
16.72 0 0
16.8 0 0
16.88 0 0
16.96 0 0
17.04 0 0
17.12 0 0
17.2 0 0
17.28 0 0
17.36 0 0
17.44 0 0
17.52 0 0
17.6 0 0
17.68 0 0
17.76 0 0
17.84 0 0
17.92 0 0
18 0 0
18.08 0 0
18.16 0 0
18.24 0 0
18.32 0 0
18.4 0 0
18.48 0 0
18.56 0 0
18.64 0 0
18.72 0 0
18.8 0 0
18.88 0 0
18.96 0 0
19.04 0 0
19.12 0 0
19.2 0 0
19.28 0 0
19.36 0 0
19.44 0 0
19.52 0 0
19.6 0 0
19.68 0 0
19.76 0 0
19.84 0 0
19.92 0 0
20 0 0
20.08 0 0
20.16 0 0
20.24 0 0
20.32 0 0
20.4 0 0
20.48 0 0
20.56 0 0
20.64 0 0
20.72 0 0
20.8 0 0
20.88 0 0
20.96 0 0
21.04 0 0
21.12 0 0
21.2 0 0
21.28 0 0
21.36 0 0
21.44 0 0
21.52 0 0
21.6 0 0
21.68 0 0
21.76 0 0
21.84 0 0
21.92 0 0
22 0 0
22.08 0 0
22.16 0 0
22.24 0 0
22.32 0 0
22.4 0 0
22.48 0 0
22.56 0 0
22.64 0 0
22.72 0 0
22.8 0 0
22.88 0 0
22.96 0 0
23.04 0 0
23.12 0 0
23.2 0 0
23.28 0 0
23.36 0 0
23.44 0 0
23.52 0 0
23.6 0 0
23.68 0 0
23.76 0 0
23.84 0 0
23.92 0 0
24 0 0
24.08 0 0
24.16 0 0
24.24 0 0
24.32 0 0
24.4 0 0
24.48 0 0
24.56 0 0
24.64 0 0
24.72 0 0
24.8 0 0
24.88 0 0
24.96 0 0
25.04 0 0
25.12 0 0
25.2 0 0
25.28 0 0
25.36 0 0
25.44 0 0
25.52 0 0
25.6 0 0
25.68 0 0
25.76 0 0
25.84 0 0
25.92 0 0
26 0 0
26.08 0 0
26.16 0 0
26.24 0 0
26.32 0 0
26.4 0 0
26.48 0 0
26.56 0 0
26.64 0 0
26.72 0 0
26.8 0 0
26.88 0 0
26.96 0 0
27.04 0 0
27.12 0 0
27.2 0 0
27.28 0 0
27.36 0 0
27.44 0 0
27.52 0 0
27.6 0 0
27.68 0 0
27.76 0 0
27.84 0 0
27.92 0 0
28 0 0
28.08 0 0
28.16 0 0
28.24 0 0
28.32 0 0
28.4 0 0
28.48 0 0
28.56 0 0
28.64 0 0
28.72 0 0
28.8 0 0
28.88 0 0
28.96 0 0
29.04 0 0
29.12 0 0
29.2 0 0
29.28 0 0
29.36 0 0
29.44 0 0
29.52 0 0
29.6 0 0
29.68 0 0
29.76 0 0
29.84 0 0
29.92 0 0
30 0 0
30.08 0 0
30.16 0 0
30.24 0 0
30.32 0 0
30.4 0 0
30.48 0 0
30.56 0 0
30.64 0 0
30.72 0 0
30.8 0 0
30.88 0 0
30.96 0 0
31.04 0 0
31.12 0 0
31.2 0 0
31.28 0 0
31.36 0 0
31.44 0 0
31.52 0 0
31.6 0 0
31.68 0 0
31.76 0 0
31.84 0 0
31.92 0 0
0 0.005 0
0.08 0.005 0
0.16 0.005 0
0.24 0.005 0
0.32 0.005 0
0.4 0.005 0
0.48 0.005 0
0.56 0.005 0
0.64 0.005 0
0.72 0.005 0
0.8 0.005 0
0.88 0.005 0
0.96 0.005 0
1.04 0.005 0
1.12 0.005 0
1.2 0.005 0
1.28 0.005 0
1.36 0.005 0
1.44 0.005 0
1.52 0.005 0
1.6 0.005 0
1.68 0.005 0
1.76 0.005 0
1.84 0.005 0
1.92 0.005 0
2 0.005 0
2.08 0.005 0
2.16 0.005 0
2.24 0.005 0
2.32 0.005 0
2.4 0.005 0
2.48 0.005 0
2.56 0.005 0
2.64 0.005 0
2.72 0.005 0
2.8 0.005 0
2.88 0.005 0
2.96 0.005 0
3.04 0.005 0
3.12 0.005 0
3.2 0.005 0
3.28 0.005 0
3.36 0.005 0
3.44 0.005 0
3.52 0.005 0
3.6 0.005 0
3.68 0.005 0
3.76 0.005 0
3.84 0.005 0
3.92 0.005 0
4 0.005 0
4.08 0.005 0
4.16 0.005 0
4.24 0.005 0
4.32 0.005 0
4.4 0.005 0
4.48 0.005 0
4.56 0.005 0
4.64 0.005 0
4.72 0.005 0
4.8 0.005 0
4.88 0.005 0
4.96 0.005 0
5.04 0.005 0
5.12 0.005 0
5.2 0.005 0
5.28 0.005 0
5.36 0.005 0
5.44 0.005 0
5.52 0.005 0
5.6 0.005 0
5.68 0.005 0
5.76 0.005 0
5.84 0.005 0
5.92 0.005 0
6 0.005 0
6.08 0.005 0
6.16 0.005 0
6.24 0.005 0
6.32 0.005 0
6.4 0.005 0
6.48 0.005 0
6.56 0.005 0
6.64 0.005 0
6.72 0.005 0
6.8 0.005 0
6.88 0.005 0
6.96 0.005 0
7.04 0.005 0
7.12 0.005 0
7.2 0.005 0
7.28 0.005 0
7.36 0.005 0
7.44 0.005 0
7.52 0.005 0
7.6 0.005 0
7.68 0.005 0
7.76 0.005 0
7.84 0.005 0
7.92 0.005 0
8 0.005 0
8.08 0.005 0
8.16 0.005 0
8.24 0.005 0
8.32 0.005 0
8.4 0.005 0
8.48 0.005 0
8.56 0.005 0
8.64 0.005 0
8.72 0.005 0
8.8 0.005 0
8.88 0.005 0
8.96 0.005 0
9.04 0.005 0
9.12 0.005 0
9.2 0.005 0
9.28 0.005 0
9.36 0.005 0
9.44 0.005 0
9.52 0.005 0
9.6 0.005 0
9.68 0.005 0
9.76 0.005 0
9.84 0.005 0
9.92 0.005 0
10 0.005 0
10.08 0.005 0
10.16 0.005 0
10.24 0.005 0
10.32 0.005 0
10.4 0.005 0
10.48 0.005 0
10.56 0.005 0
10.64 0.005 0
10.72 0.005 0
10.8 0.005 0
10.88 0.005 0
10.96 0.005 0
11.04 0.005 0
11.12 0.005 0
11.2 0.005 0
11.28 0.005 0
11.36 0.005 0
11.44 0.005 0
11.52 0.005 0
11.6 0.005 0
11.68 0.005 0
11.76 0.005 0
11.84 0.005 0
11.92 0.005 0
12 0.005 0
12.08 0.005 0
12.16 0.005 0
12.24 0.005 0
12.32 0.005 0
12.4 0.005 0
12.48 0.005 0
12.56 0.005 0
12.64 0.005 0
12.72 0.005 0
12.8 0.005 0
12.88 0.005 0
12.96 0.005 0
13.04 0.005 0
13.12 0.005 0
13.2 0.005 0
13.28 0.005 0
13.36 0.005 0
13.44 0.005 0
13.52 0.005 0
13.6 0.005 0
13.68 0.005 0
13.76 0.005 0
13.84 0.005 0
13.92 0.005 0
14 0.005 0
14.08 0.005 0
14.16 0.005 0
14.24 0.005 0
14.32 0.005 0
14.4 0.005 0
14.48 0.005 0
14.56 0.005 0
14.64 0.005 0
14.72 0.005 0
14.8 0.005 0
14.88 0.005 0
14.96 0.005 0
15.04 0.005 0
15.12 0.005 0
15.2 0.005 0
15.28 0.005 0
15.36 0.005 0
15.44 0.005 0
15.52 0.005 0
15.6 0.005 0
15.68 0.005 0
15.76 0.005 0
15.84 0.005 0
15.92 0.005 0
16 0.005 0
16.08 0.005 0
16.16 0.005 0
16.24 0.005 0
16.32 0.005 0
16.4 0.005 0
16.48 0.005 0
16.56 0.005 0
16.64 0.005 0
16.72 0.005 0
16.8 0.005 0
16.88 0.005 0
16.96 0.005 0
17.04 0.005 0
17.12 0.005 0
17.2 0.005 0
17.28 0.005 0
17.36 0.005 0
17.44 0.005 0
17.52 0.005 0
17.6 0.005 0
17.68 0.005 0
17.76 0.005 0
17.84 0.005 0
17.92 0.005 0
18 0.005 0
18.08 0.005 0
18.16 0.005 0
18.24 0.005 0
18.32 0.005 0
18.4 0.005 0
18.48 0.005 0
18.56 0.005 0
18.64 0.005 0
18.72 0.005 0
18.8 0.005 0
18.88 0.005 0
18.96 0.005 0
19.04 0.005 0
19.12 0.005 0
19.2 0.005 0
19.28 0.005 0
19.36 0.005 0
19.44 0.005 0
19.52 0.005 0
19.6 0.005 0
19.68 0.005 0
19.76 0.005 0
19.84 0.005 0
19.92 0.005 0
20 0.005 0
20.08 0.005 0
20.16 0.005 0
20.24 0.005 0
20.32 0.005 0
20.4 0.005 0
20.48 0.005 0
20.56 0.005 0
20.64 0.005 0
20.72 0.005 0
20.8 0.005 0
20.88 0.005 0
20.96 0.005 0
21.04 0.005 0
21.12 0.005 0
21.2 0.005 0
21.28 0.005 0
21.36 0.005 0
21.44 0.005 0
21.52 0.005 0
21.6 0.005 0
21.68 0.005 0
21.76 0.005 0
21.84 0.005 0
21.92 0.005 0
22 0.005 0
22.08 0.005 0
22.16 0.005 0
22.24 0.005 0
22.32 0.005 0
22.4 0.005 0
22.48 0.005 0
22.56 0.005 0
22.64 0.005 0
22.72 0.005 0
22.8 0.005 0
22.88 0.005 0
22.96 0.005 0
23.04 0.005 0
23.12 0.005 0
23.2 0.005 0
23.28 0.005 0
23.36 0.005 0
23.44 0.005 0
23.52 0.005 0
23.6 0.005 0
23.68 0.005 0
23.76 0.005 0
23.84 0.005 0
23.92 0.005 0
24 0.005 0
24.08 0.005 0
24.16 0.005 0
24.24 0.005 0
24.32 0.005 0
24.4 0.005 0
24.48 0.005 0
24.56 0.005 0
24.64 0.005 0
24.72 0.005 0
24.8 0.005 0
24.88 0.005 0
24.96 0.005 0
25.04 0.005 0
25.12 0.005 0
25.2 0.005 0
25.28 0.005 0
25.36 0.005 0
25.44 0.005 0
25.52 0.005 0
25.6 0.005 0
25.68 0.005 0
25.76 0.005 0
25.84 0.005 0
25.92 0.005 0
26 0.005 0
26.08 0.005 0
26.16 0.005 0
26.24 0.005 0
26.32 0.005 0
26.4 0.005 0
26.48 0.005 0
26.56 0.005 0
26.64 0.005 0
26.72 0.005 0
26.8 0.005 0
26.88 0.005 0
26.96 0.005 0
27.04 0.005 0
27.12 0.005 0
27.2 0.005 0
27.28 0.005 0
27.36 0.005 0
27.44 0.005 0
27.52 0.005 0
27.6 0.005 0
27.68 0.005 0
27.76 0.005 0
27.84 0.005 0
27.92 0.005 0
28 0.005 0
28.08 0.005 0
28.16 0.005 0
28.24 0.005 0
28.32 0.005 0
28.4 0.005 0
28.48 0.005 0
28.56 0.005 0
28.64 0.005 0
28.72 0.005 0
28.8 0.005 0
28.88 0.005 0
28.96 0.005 0
29.04 0.005 0
29.12 0.005 0
29.2 0.005 0
29.28 0.005 0
29.36 0.005 0
29.44 0.005 0
29.52 0.005 0
29.6 0.005 0
29.68 0.005 0
29.76 0.005 0
29.84 0.005 0
29.92 0.005 0
30 0.005 0
30.08 0.005 0
30.16 0.005 0
30.24 0.005 0
30.32 0.005 0
30.4 0.005 0
30.48 0.005 0
30.56 0.005 0
30.64 0.005 0
30.72 0.005 0
30.8 0.005 0
30.88 0.005 0
30.96 0.005 0
31.04 0.005 0
31.12 0.005 0
31.2 0.005 0
31.28 0.005 0
31.36 0.005 0
31.44 0.005 0
31.52 0.005 0
31.6 0.005 0
31.68 0.005 0
31.76 0.005 0
31.84 0.005 0
31.92 0.005 0
0 0.01 0
0.08 0.01 0
0.16 0.01 0
0.24 0.01 0
0.32 0.01 0
0.4 0.01 0
0.48 0.01 0
0.56 0.01 0
0.64 0.01 0
0.72 0.01 0
0.8 0.01 0
0.88 0.01 0
0.96 0.01 0
1.04 0.01 0
1.12 0.01 0
1.2 0.01 0
1.28 0.01 0
1.36 0.01 0
1.44 0.01 0
1.52 0.01 0
1.6 0.01 0
1.68 0.01 0
1.76 0.01 0
1.84 0.01 0
1.92 0.01 0
2 0.01 0
2.08 0.01 0
2.16 0.01 0
2.24 0.01 0
2.32 0.01 0
2.4 0.01 0
2.48 0.01 0
2.56 0.01 0
2.64 0.01 0
2.72 0.01 0
2.8 0.01 0
2.88 0.01 0
2.96 0.01 0
3.04 0.01 0
3.12 0.01 0
3.2 0.01 0
3.28 0.01 0
3.36 0.01 0
3.44 0.01 0
3.52 0.01 0
3.6 0.01 0
3.68 0.01 0
3.76 0.01 0
3.84 0.01 0
3.92 0.01 0
4 0.01 0
4.08 0.01 0
4.16 0.01 0
4.24 0.01 0
4.32 0.01 0
4.4 0.01 0
4.48 0.01 0
4.56 0.01 0
4.64 0.01 0
4.72 0.01 0
4.8 0.01 0
4.88 0.01 0
4.96 0.01 0
5.04 0.01 0
5.12 0.01 0
[...]
POINT_DATA 80000

SCALARS u float 1
LOOKUP_TABLE default
0
-0.131713
-0.0683336
-0.0523446
-0.0444512
-0.0396191
-0.0363289
-0.033918
-0.032087
-0.0307236
-0.0297711
-0.0291554
-0.0287809
-0.0285579
-0.028422
-0.028334
-0.0282717
-0.028222
-0.0281765
-0.0281302
-0.0280805
-0.0280264
-0.0279683
-0.0279069
-0.0278428
-0.0277768
-0.0277093
-0.0276407
-0.0275713
-0.0275011
-0.0274303
-0.0273589
-0.0272869
-0.0272145
-0.0271417
-0.0270684
-0.0269949
-0.0269211
-0.0268471
-0.0267731
-0.026699
-0.026625
-0.0265512
-0.0264777
-0.0264047
-0.0263323
-0.0262605
-0.0261897
-0.0261199
-0.0260514
-0.0259842
-0.0259187
-0.025855
-0.0257932
-0.0257337
-0.0256767
-0.0256224
-0.0255709
-0.0255227
-0.0254778
-0.0254366
-0.0253993
-0.0253661
-0.0253373
-0.0253131
-0.0252939
-0.0252797
-0.0252709
-0.0252677
-0.0252702
-0.0252788
-0.0252935
-0.0253146
-0.0253423
-0.0253766
-0.0254178
-0.0254659
-0.0255211
-0.0255834
-0.0256529
-0.0257296
-0.0258136
-0.0259048
-0.0260033
-0.0261089
-0.0262216
-0.0263413
-0.0264679
-0.0266012
-0.026741
-0.0268873
-0.0270397
-0.027198
-0.027362
-0.0275314
-0.0277059
-0.0278852
-0.028069
-0.028257
-0.0284487
-0.0286439
-0.0288422
-0.0290432
-0.0292465
-0.0294518
-0.0296586
-0.0298665
-0.0300752
-0.0302844
-0.0304935
-0.0307023
-0.0309104
-0.0311174
-0.031323
-0.0315269
-0.0317287
-0.0319281
-0.0321248
-0.0323187
-0.0325093
-0.0326965
-0.0328801
-0.0330599
-0.0332356
-0.0334071
-0.0335743
-0.0337371
-0.0338953
-0.0340488
-0.0341976
-0.0343417
-0.0344809
-0.0346153
-0.034745
-0.0348697
-0.0349898
-0.035105
-0.0352156
-0.0353216
-0.035423
-0.03552
-0.0356126
-0.0357009
-0.0357851
-0.0358653
-0.0359416
-0.0360141
-0.036083
-0.0361483
-0.0362103
-0.036269
-0.0363247
-0.0363773
-0.0364272
-0.0364744
-0.036519
-0.0365612
-0.0366011
-0.0366388
-0.0366745
-0.0367083
-0.0367403
-0.0367706
-0.0367993
-0.0368265
-0.0368524
-0.036877
-0.0369004
-0.0369227
-0.036944
-0.0369643
-0.0369838
-0.0370025
-0.0370205
-0.0370378
-0.0370545
-0.0370707
-0.0370863
-0.0371015
-0.0371163
-0.0371308
-0.0371449
-0.0371587
-0.0371723
-0.0371856
-0.0371987
-0.0372117
-0.0372245
-0.0372371
-0.0372497
-0.0372622
-0.0372746
-0.0372869
-0.0372992
-0.0373114
-0.0373236
-0.0373358
-0.037348
-0.0373602
-0.0373725
-0.0373847
-0.0373969
-0.0374092
-0.0374215
-0.0374339
-0.0374463
-0.0374587
-0.0374712
-0.0374837
-0.0374963
-0.0375089
-0.0375216
-0.0375344
-0.0375472
-0.0375601
-0.037573
-0.037586
-0.037599
-0.0376122
-0.0376253
-0.0376386
-0.0376519
-0.0376653
-0.0376787
-0.0376922
-0.0377058
-0.0377195
-0.0377332
-0.0377469
-0.0377608
-0.0377747
-0.0377887
-0.0378027
-0.0378168
-0.037831
-0.0378453
-0.0378596
-0.037874
-0.0378884
-0.0379029
-0.0379175
-0.0379322
-0.0379469
-0.0379617
-0.0379765
-0.0379915
-0.0380065
-0.0380215
-0.0380367
-0.0380518
-0.0380671
-0.0380824
-0.0380979
-0.0381133
-0.0381289
-0.0381445
-0.0381601
-0.0381759
-0.0381917
-0.0382076
-0.0382235
-0.0382395
-0.0382556
-0.0382718
-0.038288
-0.0383043
-0.0383207
-0.0383371
-0.0383536
-0.0383702
-0.0383868
-0.0384035
-0.0384203
-0.0384371
-0.038454
-0.038471
-0.0384881
-0.0385052
-0.0385224
-0.0385397
-0.038557
-0.0385744
-0.0385919
-0.0386094
-0.038627
-0.0386447
-0.0386625
-0.0386803
-0.0386982
-0.0387162
-0.0387342
-0.0387523
-0.0387705
-0.0387888
-0.0388071
-0.0388255
-0.038844
-0.0388625
-0.0388811
-0.0388998
-0.0389186
-0.0389374
-0.0389563
-0.0389753
-0.0389943
-0.0390135
-0.0390326
-0.0390519
-0.0390713
-0.0390907
-0.0391102
-0.0391297
-0.0391494
-0.0391691
-0.0391889
-0.0392087
-0.0392287
-0.0392487
-0.0392688
-0.0392889
-0.0393092
-0.0393295
-0.0393499
-0.0393704
-0.0393909
-0.0394115
-0.0394322
-0.039453
-0.0394738
-0.0394948
-0.0395158
-0.0395369
-0.039558
-0.0395793
-0.0396006
-0.039622
-0.0396435
-0.0396651
-0.0396867
-0.0397084
-0.0397302
-0.0397521
-0.0397741
-0.0397961
-0.0398183
-0.0398405
-0.0398628
-0.0398852
-0.0399076
-0.0399302
-0.0399528
-0.0399755
-0.0399983
-0.0400212
-0.0400441
-0.0400672
-0.0400903
-0.0401135
-0.0401369
-0.0401602
-0.0401837
-0.0402073
-0.040231
-0.0402547
-0.0402785
-0.0403025
-0.0403265
-0.0403506
-0.0403748
-0.040399
-0.0404234
-0.0404479
-0.0404724
-0.0404971
-0.0405218
-0.0405467
-0.0405716
-0.0405966
-0.0406218
-0.040647
-0.0406723
-0.0406977
-0.0407232
-0.0407488
-0.0407745
-0.0408004
-0.0408263
-0.0408524
-0.0408783
-0.0409053
-0.0409298
-0.0409606
-0.0409792
-0.0410199
-0.0410293
-0.0410758
-0.041094
-0.0411041
-0.0411041
-0.0411041
1
0.131713
0.0683336
0.0523446
0.0444512
0.0396191
0.0363289
0.033918
0.032087
0.0307236
0.0297711
0.0291554
0.0287809
0.0285579
0.028422
0.028334
0.0282717
0.028222
0.0281765
0.0281302
0.0280805
0.0280264
0.0279683
0.0279069
0.0278428
0.0277768
0.0277093
0.0276407
0.0275713
0.0275011
0.0274303
0.0273589
0.0272869
0.0272145
0.0271417
0.0270684
0.0269949
0.0269211
0.0268471
0.0267731
0.026699
0.026625
0.0265512
0.0264777
0.0264047
0.0263323
0.0262605
0.0261897
0.0261199
0.0260514
0.0259842
0.0259187
0.025855
0.0257932
0.0257337
0.0256767
0.0256224
0.0255709
0.0255227
0.0254778
0.0254366
0.0253993
0.0253661
0.0253373
0.0253131
0.0252939
0.0252797
0.0252709
0.0252677
0.0252702
0.0252788
0.0252935
0.0253146
0.0253423
0.0253766
0.0254178
0.0254659
0.0255211
0.0255834
0.0256529
0.0257296
0.0258136
0.0259048
0.0260033
0.0261089
0.0262216
0.0263413
0.0264679
0.0266012
0.026741
0.0268873
0.0270397
0.027198
0.027362
0.0275314
0.0277059
0.0278852
0.028069
0.028257
0.0284487
0.0286439
0.0288422
0.0290432
0.0292465
0.0294518
0.0296586
0.0298665
0.0300752
0.0302844
0.0304935
0.0307023
0.0309104
0.0311174
0.031323
0.0315269
0.0317287
0.0319281
0.0321248
0.0323187
0.0325093
0.0326965
0.0328801
0.0330599
0.0332356
0.0334071
0.0335743
0.0337371
0.0338953
0.0340488
0.0341976
0.0343417
0.0344809
0.0346153
0.034745
0.0348697
0.0349898
0.035105
0.0352156
0.0353216
0.035423
0.03552
0.0356126
0.0357009
0.0357851
0.0358653
0.0359416
0.0360141
0.036083
0.0361483
0.0362103
0.036269
0.0363247
0.0363773
0.0364272
0.0364744
0.036519
0.0365612
0.0366011
0.0366388
0.0366745
0.0367083
0.0367403
0.0367706
0.0367993
0.0368265
0.0368524
0.036877
0.0369004
0.0369227
0.036944
0.0369643
0.0369838
0.0370025
0.0370205
0.0370378
0.0370545
0.0370707
0.0370863
0.0371015
0.0371163
0.0371308
0.0371449
0.0371587
0.0371723
0.0371856
0.0371987
0.0372117
0.0372245
0.0372371
0.0372497
0.0372622
0.0372746
0.0372869
0.0372992
0.0373114
0.0373236
0.0373358
0.037348
0.0373602
0.0373725
0.0373847
0.0373969
0.0374092
0.0374215
0.0374339
0.0374463
0.0374587
0.0374712
0.0374837
0.0374963
0.0375089
0.0375216
0.0375344
0.0375472
0.0375601
0.037573
0.037586
0.037599
0.0376122
0.0376253
0.0376386
0.0376519
0.0376653
0.0376787
0.0376922
0.0377058
0.0377195
0.0377332
0.0377469
0.0377608
0.0377747
0.0377887
0.0378027
0.0378168
0.037831
0.0378453
0.0378596
0.037874
0.0378884
0.0379029
0.0379175
0.0379322
0.0379469
0.0379617
0.0379765
0.0379915
0.0380065
0.0380215
0.0380367
0.0380518
0.0380671
0.0380824
0.0380979
0.0381133
0.0381289
0.0381445
0.0381601
0.0381759
0.0381917
0.0382076
0.0382235
0.0382395
0.0382556
0.0382718
0.038288
0.0383043
0.0383207
0.0383371
0.0383536
0.0383702
0.0383868
0.0384035
0.0384203
0.0384371
0.038454
0.038471
0.0384881
0.0385052
0.0385224
0.0385397
0.038557
0.0385744
0.0385919
0.0386094
0.038627
0.0386447
0.0386625
0.0386803
0.0386982
0.0387162
0.0387342
0.0387523
0.0387705
0.0387888
0.0388071
0.0388255
0.038844
0.0388625
0.0388811
0.0388998
0.0389186
0.0389374
0.0389563
0.0389753
0.0389943
0.0390135
0.0390326
0.0390519
0.0390713
0.0390907
0.0391102
0.0391297
0.0391494
0.0391691
0.0391889
0.0392087
0.0392287
0.0392487
0.0392688
0.0392889
0.0393092
0.0393295
0.0393499
0.0393704
0.0393909
0.0394115
0.0394322
0.039453
0.0394738
0.0394948
0.0395158
0.0395369
0.039558
0.0395793
0.0396006
0.039622
0.0396435
0.0396651
0.0396867
0.0397084
0.0397302
0.0397521
0.0397741
0.0397961
0.0398183
0.0398405
0.0398628
0.0398852
0.0399076
0.0399302
0.0399528
0.0399755
0.0399983
0.0400212
0.0400441
0.0400672
0.0400903
0.0401135
0.0401369
0.0401602
0.0401837
0.0402073
0.040231
0.0402547
0.0402785
0.0403025
0.0403265
0.0403506
0.0403748
0.040399
0.0404234
0.0404479
0.0404724
0.0404971
0.0405218
0.0405467
0.0405716
0.0405966
0.0406218
0.040647
0.0406723
0.0406977
0.0407232
0.0407488
0.0407745
0.0408004
0.0408263
0.0408524
0.0408783
0.0409053
0.0409298
0.0409606
0.0409792
0.0410199
0.0410293
0.0410758
0.041094
0.0411041
0.0411041
0.0411041
1
0.345017
0.200858
0.155134
0.132042
0.11781
0.108084
0.100955
0.0955661
0.0915862
0.0888297
0.0870608
0.0859927
0.0853653
0.0849927
0.0847619
0.0846075
0.0844904
0.0843863
0.0842805
0.0841659
0.0840403
0.0839047
0.0837611
0.0836117
0.0834583
0.0833024
0.083145
0.0829867
0.0828281
0.0826693
0.0825107
0.0823525
0.0821949
0.082038
0.0818822
0.0817275
0.0815743
0.0814228
0.0812733
0.081126
0.0809813
0.0808395
0.0807009
0.080566
0.0804351
0.0803086
0.0801869
0.0800705
0.0799598
0.0798553
0.0797574
0.0796667
0.0795837
0.0795088
0.0794426
0.0793855
0.0793382
0.0793011
0.0792748
0.0792597
0.0792564
0.0792653
0.079287
0.0793218
0.0793703
0.0794329
0.07951
0.0796018
0.0797089
0.0798315
0.0799698
0.0801241
0.0802946
0.0804815
0.0806848
0.0809046
0.081141
0.0813939
0.0816632
0.0819489
0.0822506
0.0825682
0.0829015
0.0832499
0.0836133
0.0839912
0.084383
0.0847882
0.0852063
0.0856367
0.0860786
0.0865315
0.0869946
0.0874671
0.0879482
0.0884372
0.0889332
0.0894353
0.0899427
0.0904545
0.0909698
0.0914878
0.0920076
0.0925282
0.0930488
0.0935686
0.0940867
0.0946023
0.0951146
0.0956228
0.0961262
0.096624
0.0971156
0.0976004
0.0980776
0.0985468
0.0990074
0.0994589
0.0999008
0.100333
0.100755
0.101166
0.101566
0.101955
0.102333
0.102699
0.103054
0.103397
0.103729
0.104049
0.104357
0.104654
0.104939
0.105213
0.105476
0.105728
0.10597
0.1062
0.106421
0.106631
0.106832
0.107023
0.107206
0.107379
0.107544
0.107701
0.10785
0.107991
0.108126
0.108253
0.108374
0.108489
0.108598
0.108701
0.108799
0.108893
0.108981
0.109065
0.109145
0.109221
0.109294
0.109363
0.109429
0.109492
0.109553
0.109611
0.109666
0.10972
0.109771
0.109821
0.109869
0.109916
0.109962
0.110006
0.110049
0.110091
0.110132
0.110172
0.110212
0.110251
0.110289
0.110327
0.110365
0.110402
0.110439
0.110476
0.110512
0.110548
0.110584
0.11062
0.110656
0.110692
0.110728
0.110764
0.1108
0.110836
0.110872
0.110908
0.110944
0.11098
0.111017
0.111053
0.11109
0.111127
0.111164
0.111201
0.111238
0.111275
0.111313
0.111351
0.111389
0.111427
0.111465
0.111504
0.111542
0.111581
0.11162
0.111659
0.111699
0.111738
0.111778
0.111818
0.111858
0.111899
0.111939
0.11198
0.112021
0.112062
0.112103
0.112145
0.112187
0.112229
0.112271
0.112313
0.112356
0.112398
0.112441
0.112484
0.112528
0.112571
0.112615
0.112659
0.112703
0.112747
0.112791
0.112836
0.112881
0.112926
0.112971
0.113017
0.113062
0.113108
0.113154
0.113201
0.113247
0.113294
0.113341
0.113388
0.113435
0.113482
0.11353
0.113578
0.113626
0.113674
0.113722
0.113771
0.11382
0.113869
0.113918
0.113968
0.114017
0.114067
0.114117
0.114167
0.114218
0.114268
0.114319
0.11437
0.114421
0.114473
0.114525
0.114576
0.114628
0.114681
0.114733
0.114786
0.114839
0.114892
0.114945
0.114999
0.115052
0.115106
0.11516
0.115215
0.115269
0.115324
0.115379
0.115434
0.115489
0.115545
0.115601
0.115657
0.115713
0.11577
0.115826
0.115883
0.11594
0.115997
0.116055
0.116113
0.11617
0.116229
0.116287
0.116346
0.116404
0.116463
0.116523
0.116582
0.116642
0.116702
0.116762
0.116822
0.116883
0.116943
0.117004
0.117066
0.117127
0.117189
0.117251
0.117313
0.117375
0.117438
0.117501
0.117564
0.117627
0.11769
0.117754
0.117818
0.117882
0.117947
0.118011
0.118076
0.118141
0.118207
0.118272
0.118338
0.118404
0.118471
0.118537
0.118604
0.118671
0.118739
0.118806
0.118874
0.118942
0.11901
0.119079
0.119148
0.119217
0.119286
0.119356
0.119425
0.119496
0.119566
0.119636
0.119707
0.119778
0.11985
0.119921
0.119993
0.120066
0.120138
0.120211
0.120284
0.120357
0.120431
0.120504
0.120578
0.120653
0.120727
0.120802
0.120878
0.120953
0.121029
0.121105
0.121181
0.121258
0.121335
0.121414
0.121487
0.121576
0.121634
0.12175
0.121781
0.121915
0.121969
0.122013
0.122013
0.122013
1
0.518968
0.327723
0.255667
0.218183
0.194891
0.178914
0.167197
0.158366
0.151878
0.147407
0.144551
0.142837
0.141843
0.141269
0.140931
0.140721
0.140575
0.140452
0.140327
0.14019
0.140037
0.13987
0.139692
0.139506
0.139315
0.139123
0.138929
0.138736
0.138544
0.138353
0.138164
0.137978
0.137795
0.137614
0.137438
0.137265
0.137096
0.136932
0.136772
0.136619
0.136471
0.13633
0.136196
0.136069
0.13595
0.13584
0.13574
0.135649
0.135569
0.135499
0.135442
0.135397
0.135364
0.135346
0.135342
0.135353
0.135379
0.135422
0.135482
0.135559
0.135654
0.135767
0.1359
0.136053
0.136225
0.136418
0.136632
0.136867
0.137123
0.137402
0.137702
0.138024
0.138369
0.138735
0.139124
0.139534
0.139967
0.140421
0.140896
0.141392
0.141909
0.142445
0.143001
0.143576
0.144169
0.144779
0.145406
0.146048
0.146705
0.147376
0.14806
0.148755
0.149461
0.150177
0.150901
0.151633
0.15237
0.153113
0.153859
0.154608
0.155359
0.156109
0.156859
0.157607
0.158351
0.159091
0.159826
0.160554
0.161275
0.161988
0.162692
0.163385
0.164067
0.164738
0.165396
0.166042
0.166674
0.167291
0.167894
0.168482
0.169055
0.169612
0.170153
0.170677
0.171186
0.171678
0.172154
0.172613
0.173056
0.173483
0.173894
0.174289
0.174669
0.175033
0.175382
0.175716
0.176036
0.176342
0.176634
0.176913
0.17718
0.177433
0.177675
0.177906
0.178125
0.178334
0.178533
0.178722
0.178902
0.179073
0.179235
0.17939
0.179538
0.179678
0.179812
0.17994
0.180061
0.180178
0.180289
0.180395
0.180497
0.180595
0.180689
0.180779
0.180866
0.18095
0.181032
0.18111
0.181187
0.181261
0.181333
0.181404
0.181473
0.181541
0.181607
0.181672
0.181736
0.1818
0.181862
0.181924
0.181985
0.182046
0.182106
0.182166
0.182226
0.182285
0.182344
0.182403
0.182462
0.182521
0.18258
0.182639
0.182698
0.182757
0.182817
0.182876
0.182935
0.182995
0.183055
0.183115
0.183175
0.183236
0.183297
0.183358
0.183419
0.18348
0.183542
0.183604
0.183667
0.183729
0.183792
0.183855
0.183919
0.183983
0.184047
0.184111
0.184176
0.184241
0.184306
0.184372
0.184438
0.184504
0.184571
0.184638
0.184705
0.184772
0.18484
0.184908
0.184977
0.185045
0.185114
0.185184
0.185253
0.185323
0.185394
0.185464
0.185535
0.185606
0.185678
0.18575
0.185822
0.185894
0.185967
0.18604
0.186113
0.186187
0.186261
0.186336
0.18641
0.186485
0.186561
0.186636
0.186712
0.186788
0.186865
0.186942
0.187019
0.187096
0.187174
0.187252
0.187331
0.18741
0.187489
0.187568
0.187648
0.187728
0.187808
0.187889
0.18797
0.188051
0.188133
0.188215
0.188297
0.18838
0.188463
0.188546
0.18863
0.188713
0.188798
0.188882
0.188967
0.189052
0.189138
0.189224
0.18931
0.189397
0.189483
0.189571
0.189658
0.189746
0.189834
0.189923
0.190011
0.190101
0.19019
0.19028
0.19037
0.190461
0.190552
0.190643
0.190734
0.190826
0.190918
0.191011
0.191104
0.191197
0.191291
0.191385
0.191479
0.191573
0.191668
0.191764
0.191859
0.191955
0.192052
0.192148
0.192245
0.192343
0.192441
0.192539
0.192637
0.192736
0.192835
0.192935
0.193035
0.193135
0.193235
0.193336
0.193438
0.19354
0.193642
0.193744
0.193847
0.19395
0.194054
0.194157
0.194262
0.194366
0.194471
0.194577
0.194683
0.194789
0.194895
0.195002
0.19511
0.195217
0.195325
0.195434
0.195543
0.195652
0.195762
0.195872
0.195982
0.196093
0.196204
0.196316
0.196428
0.19654
0.196653
0.196766
0.19688
0.196994
0.197108
0.197223
0.197339
0.197454
0.197571
0.197687
0.197804
0.197921
0.198039
0.198158
0.198276
0.198395
0.198515
0.198635
0.198755
0.198876
0.198998
0.19912
0.199242
0.199365
0.199488
0.199611
0.199736
0.19986
0.199986
0.20011
0.200239
0.200359
0.200503
0.200599
0.200784
0.20084
0.201055
0.201142
0.201234
0.201234
0.201234
1
0.66115
0.447347
0.353382
0.302619
0.270715
0.248727
0.23258
0.220433
0.21154
0.205433
0.201541
0.199215
0.197882
0.197134
0.196721
0.19649
0.196352
0.196247
0.196144
0.196026
0.195889
0.195734
0.195567
0.195391
0.19521
0.195028
0.194846
0.194666
0.194489
0.194316
0.194147
0.193982
0.193823
0.19367
0.193522
0.193382
0.193248
0.193122
0.193004
0.192894
0.192794
0.192704
0.192624
0.192556
0.192499
0.192454
0.192422
0.192405
0.192401
0.192413
0.19244
0.192484
0.192546
0.192625
0.192722
0.192839
0.192976
0.193133
0.193311
0.193511
0.193733
0.193977
0.194245
0.194537
0.194852
0.195192
0.195556
0.195945
0.19636
0.196799
0.197263
0.197753
0.198267
0.198807
0.199371
0.199959
0.200571
0.201207
0.201866
0.202548
0.203251
0.203975
0.204719
0.205483
0.206265
0.207065
0.207881
0.208713
0.209559
0.210418
0.211288
0.21217
0.21306
0.213959
0.214864
0.215775
0.216689
0.217606
0.218525
0.219443
0.22036
0.221274
0.222184
0.223089
0.223988
0.224878
0.22576
0.226632
0.227493
0.228342
0.229178
0.23
0.230808
0.2316
0.232375
0.233135
0.233876
0.234601
0.235306
0.235993
0.236662
0.237311
0.23794
0.23855
0.239141
0.239712
0.240264
0.240796
0.241309
0.241803
0.242279
0.242736
0.243174
0.243595
0.243999
0.244386
0.244756
0.24511
0.245449
0.245772
0.246081
0.246376
0.246657
0.246926
0.247182
0.247426
0.24766
0.247882
0.248094
0.248296
0.248489
0.248673
0.248849
0.249018
0.249179
0.249333
0.249481
0.249623
0.249759
0.24989
0.250017
0.250138
0.250256
0.25037
0.25048
0.250587
0.250691
0.250793
0.250892
0.250988
0.251083
0.251176
0.251267
0.251357
0.251445
0.251532
0.251619
0.251704
0.251788
0.251872
0.251956
0.252039
0.252121
0.252203
0.252285
0.252367
0.252448
0.25253
0.252611
0.252693
0.252775
0.252856
0.252938
0.25302
0.253103
0.253185
0.253268
0.253351
0.253434
0.253518
0.253602
0.253686
0.25377
0.253855
0.253941
0.254026
0.254112
0.254198
0.254285
0.254372
0.25446
0.254548
0.254636
0.254725
0.254814
0.254903
0.254993
0.255083
0.255174
0.255265
0.255357
0.255449
0.255541
0.255634
0.255727
0.25582
0.255914
0.256009
0.256103
0.256199
0.256294
0.25639
0.256487
0.256583
0.256681
0.256778
0.256876
0.256975
0.257074
0.257173
0.257273
0.257373
0.257474
0.257575
0.257676
0.257778
0.25788
0.257983
0.258086
0.258189
0.258293
0.258398
0.258502
0.258608
0.258713
0.258819
0.258926
0.259032
0.25914
0.259247
0.259355
0.259464
0.259573
0.259682
0.259792
0.259902
0.260013
0.260124
0.260236
0.260348
0.26046
0.260573
0.260686
0.2608
0.260914
0.261028
0.261143
0.261259
0.261374
0.261491
0.261607
0.261724
0.261842
0.26196
0.262078
0.262197
0.262317
0.262436
0.262556
0.262677
0.262798
0.26292
0.263042
0.263164
0.263287
0.26341
0.263534
0.263658
0.263783
0.263908
0.264033
0.264159
0.264286
0.264413
0.26454
0.264668
0.264796
0.264925
0.265054
0.265184
0.265314
0.265444
0.265576
0.265707
0.265839
0.265971
0.266104
0.266238
0.266372
0.266506
0.266641
0.266776
0.266912
0.267048
0.267185
0.267322
0.26746
0.267598
0.267736
0.267875
0.268015
0.268155
0.268296
0.268437
0.268578
0.268721
0.268863
0.269006
0.26915
0.269294
0.269438
0.269584
0.269729
0.269875
0.270022
0.270169
0.270317
0.270465
0.270613
0.270763
0.270912
0.271063
0.271213
0.271365
0.271517
0.271669
0.271822
0.271975
0.272129
0.272284
0.272439
0.272595
0.272751
0.272907
0.273065
0.273223
0.273381
0.27354
0.273699
0.273859
0.27402
0.274181
0.274343
0.274506
0.274669
0.274832
0.274996
0.275161
0.275326
0.275492
0.275659
0.275826
0.275994
0.276163
0.276332
0.276501
0.276672
0.276842
0.277017
0.277181
0.277376
0.277509
0.277757
0.277838
0.278126
0.278243
0.278393
0.278393
0.278393
1
0.777114
0.558407
0.447585
0.384994
0.345063
0.317364
0.296979
0.281655
0.270455
0.262774
0.257882
0.254963
0.253304
0.252399
0.25193
0.251705
0.251602
0.251548
0.251499
0.251435
0.251349
0.251244
0.251124
0.250996
0.250863
0.250729
0.250596
0.250468
0.250343
0.250224
0.250112
0.250006
0.249907
0.249817
0.249734
0.249661
0.249597
0.249542
0.249499
0.249467
0.249446
0.249438
0.249443
0.249462
0.249495
0.249543
0.249607
0.249687
0.249785
0.2499
0.250033
0.250186
0.250359
0.250552
0.250766
0.251002
0.251261
0.251542
0.251847
0.252175
0.252529
0.252906
0.253309
0.253738
0.254193
0.254673
0.25518
0.255713
0.256272
0.256858
0.25747
0.258108
0.258772
0.259461
0.260176
0.260915
0.261679
0.262466
0.263276
0.264108
0.264962
0.265836
0.26673
0.267642
0.268572
0.269518
0.270479
0.271455
0.272443
0.273442
0.274451
0.27547
0.276495
0.277526
0.278562
0.279601
0.280641