# vtk DataFile Version 2.0
FlowField
ASCII
DATASET STRUCTURED_GRID
DIMENSIONS 400 1 200
POINTS 80000 float
0 0 0
0.08 0 0
0.16 0 0
0.24 0 0
0.32 0 0
0.4 0 0
0.48 0 0
0.56 0 0
0.64 0 0
0.72 0 0
0.8 0 0
0.88 0 0
0.96 0 0
1.04 0 0
1.12 0 0
1.2 0 0
1.28 0 0
1.36 0 0
1.44 0 0
1.52 0 0
1.6 0 0
1.68 0 0
1.76 0 0
1.84 0 0
1.92 0 0
2 0 0
2.08 0 0
2.16 0 0
2.24 0 0
2.32 0 0
2.4 0 0
2.48 0 0
2.56 0 0
2.64 0 0
2.72 0 0
2.8 0 0
2.88 0 0
2.96 0 0
3.04 0 0
3.12 0 0
3.2 0 0
3.28 0 0
3.36 0 0
3.44 0 0
3.52 0 0
3.6 0 0
3.68 0 0
3.76 0 0
3.84 0 0
3.92 0 0
4 0 0
4.08 0 0
4.16 0 0
4.24 0 0
4.32 0 0
4.4 0 0
4.48 0 0
4.56 0 0
4.64 0 0
4.72 0 0
4.8 0 0
4.88 0 0
4.96 0 0
5.04 0 0
5.12 0 0
5.2 0 0
5.28 0 0
5.36 0 0
5.44 0 0
5.52 0 0
5.6 0 0
5.68 0 0
5.76 0 0
5.84 0 0
5.92 0 0
6 0 0
6.08 0 0
6.16 0 0
6.24 0 0
6.32 0 0
6.4 0 0
6.48 0 0
6.56 0 0
6.64 0 0
6.72 0 0
6.8 0 0
6.88 0 0
6.96 0 0
7.04 0 0
7.12 0 0
7.2 0 0
7.28 0 0
7.36 0 0
7.44 0 0
7.52 0 0
7.6 0 0
7.68 0 0
7.76 0 0
7.84 0 0
7.92 0 0
8 0 0
8.08 0 0
8.16 0 0
8.24 0 0
8.32 0 0
8.4 0 0
8.48 0 0
8.56 0 0
8.64 0 0
8.72 0 0
8.8 0 0
8.88 0 0
8.96 0 0
9.04 0 0
9.12 0 0
9.2 0 0
9.28 0 0
9.36 0 0
9.44 0 0
9.52 0 0
9.6 0 0
9.68 0 0
9.76 0 0
9.84 0 0
9.92 0 0
10 0 0
10.08 0 0
10.16 0 0
10.24 0 0
10.32 0 0
10.4 0 0
10.48 0 0
10.56 0 0
10.64 0 0
10.72 0 0
10.8 0 0
10.88 0 0
10.96 0 0
11.04 0 0
11.12 0 0
11.2 0 0
11.28 0 0
11.36 0 0
11.44 0 0
11.52 0 0
11.6 0 0
11.68 0 0
11.76 0 0
11.84 0 0
11.92 0 0
12 0 0
12.08 0 0
12.16 0 0
12.24 0 0
12.32 0 0
12.4 0 0
12.48 0 0
12.56 0 0
12.64 0 0
12.72 0 0
12.8 0 0
12.88 0 0
12.96 0 0
13.04 0 0
13.12 0 0
13.2 0 0
13.28 0 0
13.36 0 0
13.44 0 0
13.52 0 0
13.6 0 0
13.68 0 0
13.76 0 0
13.84 0 0
13.92 0 0
14 0 0
14.08 0 0
14.16 0 0
14.24 0 0
14.32 0 0
14.4 0 0
14.48 0 0
14.56 0 0
14.64 0 0
14.72 0 0
14.8 0 0
14.88 0 0
14.96 0 0
15.04 0 0
15.12 0 0
15.2 0 0
15.28 0 0
15.36 0 0
15.44 0 0
15.52 0 0
15.6 0 0
15.68 0 0
15.76 0 0
15.84 0 0
15.92 0 0
16 0 0
16.08 0 0
16.16 0 0
16.24 0 0
16.32 0 0
16.4 0 0
16.48 0 0
16.56 0 0
16.64 0 0
16.72 0 0
16.8 0 0
16.88 0 0
16.96 0 0
17.04 0 0
17.12 0 0
17.2 0 0
17.28 0 0
17.36 0 0
17.44 0 0
17.52 0 0
17.6 0 0
17.68 0 0
17.76 0 0
17.84 0 0
17.92 0 0
18 0 0
18.08 0 0
18.16 0 0
18.24 0 0
18.32 0 0
18.4 0 0
18.48 0 0
18.56 0 0
18.64 0 0
18.72 0 0
18.8 0 0
18.88 0 0
18.96 0 0
19.04 0 0
19.12 0 0
19.2 0 0
19.28 0 0
19.36 0 0
19.44 0 0
19.52 0 0
19.6 0 0
19.68 0 0
19.76 0 0
19.84 0 0
19.92 0 0
20 0 0
20.08 0 0
20.16 0 0
20.24 0 0
20.32 0 0
20.4 0 0
20.48 0 0
20.56 0 0
20.64 0 0
20.72 0 0
20.8 0 0
20.88 0 0
20.96 0 0
21.04 0 0
21.12 0 0
21.2 0 0
21.28 0 0
21.36 0 0
21.44 0 0
21.52 0 0
21.6 0 0
21.68 0 0
21.76 0 0
21.84 0 0
21.92 0 0
22 0 0
22.08 0 0
22.16 0 0
22.24 0 0
22.32 0 0
22.4 0 0
22.48 0 0
22.56 0 0
22.64 0 0
22.72 0 0
22.8 0 0
22.88 0 0
22.96 0 0
23.04 0 0
23.12 0 0
23.2 0 0
23.28 0 0
23.36 0 0
23.44 0 0
23.52 0 0
23.6 0 0
23.68 0 0
23.76 0 0
23.84 0 0
23.92 0 0
24 0 0
24.08 0 0
24.16 0 0
24.24 0 0
24.32 0 0
24.4 0 0
24.48 0 0
24.56 0 0
24.64 0 0
24.72 0 0
24.8 0 0
24.88 0 0
24.96 0 0
25.04 0 0
25.12 0 0
25.2 0 0
25.28 0 0
25.36 0 0
25.44 0 0
25.52 0 0
25.6 0 0
25.68 0 0
25.76 0 0
25.84 0 0
25.92 0 0
26 0 0
26.08 0 0
26.16 0 0
26.24 0 0
26.32 0 0
26.4 0 0
26.48 0 0
26.56 0 0
26.64 0 0
26.72 0 0
26.8 0 0
26.88 0 0
26.96 0 0
27.04 0 0
27.12 0 0
27.2 0 0
27.28 0 0
27.36 0 0
27.44 0 0
27.52 0 0
27.6 0 0
27.68 0 0
27.76 0 0
27.84 0 0
27.92 0 0
28 0 0
28.08 0 0
28.16 0 0
28.24 0 0
28.32 0 0
28.4 0 0
28.48 0 0
28.56 0 0
28.64 0 0
28.72 0 0
28.8 0 0
28.88 0 0
28.96 0 0
29.04 0 0
29.12 0 0
29.2 0 0
29.28 0 0
29.36 0 0
29.44 0 0
29.52 0 0
29.6 0 0
29.68 0 0
29.76 0 0
29.84 0 0
29.92 0 0
30 0 0
30.08 0 0
30.16 0 0
30.24 0 0
30.32 0 0
30.4 0 0
30.48 0 0
30.56 0 0
30.64 0 0
30.72 0 0
30.8 0 0
30.88 0 0
30.96 0 0
31.04 0 0
31.12 0 0
31.2 0 0
31.28 0 0
31.36 0 0
31.44 0 0
31.52 0 0
31.6 0 0
31.68 0 0
31.76 0 0
31.84 0 0
31.92 0 0
0 0.005 0
0.08 0.005 0
0.16 0.005 0
0.24 0.005 0
0.32 0.005 0
0.4 0.005 0
0.48 0.005 0
0.56 0.005 0
0.64 0.005 0
0.72 0.005 0
0.8 0.005 0
0.88 0.005 0
0.96 0.005 0
1.04 0.005 0
1.12 0.005 0
1.2 0.005 0
1.28 0.005 0
1.36 0.005 0
1.44 0.005 0
1.52 0.005 0
1.6 0.005 0
1.68 0.005 0
1.76 0.005 0
1.84 0.005 0
1.92 0.005 0
2 0.005 0
2.08 0.005 0
2.16 0.005 0
2.24 0.005 0
2.32 0.005 0
2.4 0.005 0
2.48 0.005 0
2.56 0.005 0
2.64 0.005 0
2.72 0.005 0
2.8 0.005 0
2.88 0.005 0
2.96 0.005 0
3.04 0.005 0
3.12 0.005 0
3.2 0.005 0
3.28 0.005 0
3.36 0.005 0
3.44 0.005 0
3.52 0.005 0
3.6 0.005 0
3.68 0.005 0
3.76 0.005 0
3.84 0.005 0
3.92 0.005 0
4 0.005 0
4.08 0.005 0
4.16 0.005 0
4.24 0.005 0
4.32 0.005 0
4.4 0.005 0
4.48 0.005 0
4.56 0.005 0
4.64 0.005 0
4.72 0.005 0
4.8 0.005 0
4.88 0.005 0
4.96 0.005 0
5.04 0.005 0
5.12 0.005 0
5.2 0.005 0
5.28 0.005 0
5.36 0.005 0
5.44 0.005 0
5.52 0.005 0
5.6 0.005 0
5.68 0.005 0
5.76 0.005 0
5.84 0.005 0
5.92 0.005 0
6 0.005 0
6.08 0.005 0
6.16 0.005 0
6.24 0.005 0
6.32 0.005 0
6.4 0.005 0
6.48 0.005 0
6.56 0.005 0
6.64 0.005 0
6.72 0.005 0
6.8 0.005 0
6.88 0.005 0
6.96 0.005 0
7.04 0.005 0
7.12 0.005 0
7.2 0.005 0
7.28 0.005 0
7.36 0.005 0
7.44 0.005 0
7.52 0.005 0
7.6 0.005 0
7.68 0.005 0
7.76 0.005 0
7.84 0.005 0
7.92 0.005 0
8 0.005 0
8.08 0.005 0
8.16 0.005 0
8.24 0.005 0
8.32 0.005 0
8.4 0.005 0
8.48 0.005 0
8.56 0.005 0
8.64 0.005 0
8.72 0.005 0
8.8 0.005 0
8.88 0.005 0
8.96 0.005 0
9.04 0.005 0
9.12 0.005 0
9.2 0.005 0
9.28 0.005 0
9.36 0.005 0
9.44 0.005 0
9.52 0.005 0
9.6 0.005 0
9.68 0.005 0
9.76 0.005 0
9.84 0.005 0
9.92 0.005 0
10 0.005 0
10.08 0.005 0
10.16 0.005 0
10.24 0.005 0
10.32 0.005 0
10.4 0.005 0
10.48 0.005 0
10.56 0.005 0
10.64 0.005 0
10.72 0.005 0
10.8 0.005 0
10.88 0.005 0
10.96 0.005 0
11.04 0.005 0
11.12 0.005 0
11.2 0.005 0
11.28 0.005 0
11.36 0.005 0
11.44 0.005 0
11.52 0.005 0
11.6 0.005 0
11.68 0.005 0
11.76 0.005 0
11.84 0.005 0
11.92 0.005 0
12 0.005 0
12.08 0.005 0
12.16 0.005 0
12.24 0.005 0
12.32 0.005 0
12.4 0.005 0
12.48 0.005 0
12.56 0.005 0
12.64 0.005 0
12.72 0.005 0
12.8 0.005 0
12.88 0.005 0
12.96 0.005 0
13.04 0.005 0
13.12 0.005 0
13.2 0.005 0
13.28 0.005 0
13.36 0.005 0
13.44 0.005 0
13.52 0.005 0
13.6 0.005 0
13.68 0.005 0
13.76 0.005 0
13.84 0.005 0
13.92 0.005 0
14 0.005 0
14.08 0.005 0
14.16 0.005 0
14.24 0.005 0
14.32 0.005 0
14.4 0.005 0
14.48 0.005 0
14.56 0.005 0
14.64 0.005 0
14.72 0.005 0
14.8 0.005 0
14.88 0.005 0
14.96 0.005 0
15.04 0.005 0
15.12 0.005 0
15.2 0.005 0
15.28 0.005 0
15.36 0.005 0
15.44 0.005 0
15.52 0.005 0
15.6 0.005 0
15.68 0.005 0
15.76 0.005 0
15.84 0.005 0
15.92 0.005 0
16 0.005 0
16.08 0.005 0
16.16 0.005 0
16.24 0.005 0
16.32 0.005 0
16.4 0.005 0
16.48 0.005 0
16.56 0.005 0
16.64 0.005 0
16.72 0.005 0
16.8 0.005 0
16.88 0.005 0
16.96 0.005 0
17.04 0.005 0
17.12 0.005 0
17.2 0.005 0
17.28 0.005 0
17.36 0.005 0
17.44 0.005 0
17.52 0.005 0
17.6 0.005 0
17.68 0.005 0
17.76 0.005 0
17.84 0.005 0
17.92 0.005 0
18 0.005 0
18.08 0.005 0
18.16 0.005 0
18.24 0.005 0
18.32 0.005 0
18.4 0.005 0
18.48 0.005 0
18.56 0.005 0
18.64 0.005 0
18.72 0.005 0
18.8 0.005 0
18.88 0.005 0
18.96 0.005 0
19.04 0.005 0
19.12 0.005 0
19.2 0.005 0
19.28 0.005 0
19.36 0.005 0
19.44 0.005 0
19.52 0.005 0
19.6 0.005 0
19.68 0.005 0
19.76 0.005 0
19.84 0.005 0
19.92 0.005 0
20 0.005 0
20.08 0.005 0
20.16 0.005 0
20.24 0.005 0
20.32 0.005 0
20.4 0.005 0
20.48 0.005 0
20.56 0.005 0
20.64 0.005 0
20.72 0.005 0
20.8 0.005 0
20.88 0.005 0
20.96 0.005 0
21.04 0.005 0
21.12 0.005 0
21.2 0.005 0
21.28 0.005 0
21.36 0.005 0
21.44 0.005 0
21.52 0.005 0
21.6 0.005 0
21.68 0.005 0
21.76 0.005 0
21.84 0.005 0
21.92 0.005 0
22 0.005 0
22.08 0.005 0
22.16 0.005 0
22.24 0.005 0
22.32 0.005 0
22.4 0.005 0
22.48 0.005 0
22.56 0.005 0
22.64 0.005 0
22.72 0.005 0
22.8 0.005 0
22.88 0.005 0
22.96 0.005 0
23.04 0.005 0
23.12 0.005 0
23.2 0.005 0
23.28 0.005 0
23.36 0.005 0
23.44 0.005 0
23.52 0.005 0
23.6 0.005 0
23.68 0.005 0
23.76 0.005 0
23.84 0.005 0
23.92 0.005 0
24 0.005 0
24.08 0.005 0
24.16 0.005 0
24.24 0.005 0
24.32 0.005 0
24.4 0.005 0
24.48 0.005 0
24.56 0.005 0
24.64 0.005 0
24.72 0.005 0
24.8 0.005 0
24.88 0.005 0
24.96 0.005 0
25.04 0.005 0
25.12 0.005 0
25.2 0.005 0
25.28 0.005 0
25.36 0.005 0
25.44 0.005 0
25.52 0.005 0
25.6 0.005 0
25.68 0.005 0
25.76 0.005 0
25.84 0.005 0
25.92 0.005 0
26 0.005 0
26.08 0.005 0
26.16 0.005 0
26.24 0.005 0
26.32 0.005 0
26.4 0.005 0
26.48 0.005 0
26.56 0.005 0
26.64 0.005 0
26.72 0.005 0
26.8 0.005 0
26.88 0.005 0
26.96 0.005 0
27.04 0.005 0
27.12 0.005 0
27.2 0.005 0
27.28 0.005 0
27.36 0.005 0
27.44 0.005 0
27.52 0.005 0
27.6 0.005 0
27.68 0.005 0
27.76 0.005 0
27.84 0.005 0
27.92 0.005 0
28 0.005 0
28.08 0.005 0
28.16 0.005 0
28.24 0.005 0
28.32 0.005 0
28.4 0.005 0
28.48 0.005 0
28.56 0.005 0
28.64 0.005 0
28.72 0.005 0
28.8 0.005 0
28.88 0.005 0
28.96 0.005 0
29.04 0.005 0
29.12 0.005 0
29.2 0.005 0
29.28 0.005 0
29.36 0.005 0
29.44 0.005 0
29.52 0.005 0
29.6 0.005 0
29.68 0.005 0
29.76 0.005 0
29.84 0.005 0
29.92 0.005 0
30 0.005 0
30.08 0.005 0
30.16 0.005 0
30.24 0.005 0
30.32 0.005 0
30.4 0.005 0
30.48 0.005 0
30.56 0.005 0
30.64 0.005 0
30.72 0.005 0
30.8 0.005 0
30.88 0.005 0
30.96 0.005 0
31.04 0.005 0
31.12 0.005 0
31.2 0.005 0
31.28 0.005 0
31.36 0.005 0
31.44 0.005 0
31.52 0.005 0
31.6 0.005 0
31.68 0.005 0
31.76 0.005 0
31.84 0.005 0
31.92 0.005 0
0 0.01 0
0.08 0.01 0
0.16 0.01 0
0.24 0.01 0
0.32 0.01 0
0.4 0.01 0
0.48 0.01 0
0.56 0.01 0
0.64 0.01 0
0.72 0.01 0
0.8 0.01 0
0.88 0.01 0
0.96 0.01 0
1.04 0.01 0
1.12 0.01 0
1.2 0.01 0
1.28 0.01 0
1.36 0.01 0
1.44 0.01 0
1.52 0.01 0
1.6 0.01 0
1.68 0.01 0
1.76 0.01 0
1.84 0.01 0
1.92 0.01 0
2 0.01 0
2.08 0.01 0
2.16 0.01 0
2.24 0.01 0
2.32 0.01 0
2.4 0.01 0
2.48 0.01 0
2.56 0.01 0
2.64 0.01 0
2.72 0.01 0
2.8 0.01 0
2.88 0.01 0
2.96 0.01 0
3.04 0.01 0
3.12 0.01 0
3.2 0.01 0
3.28 0.01 0
3.36 0.01 0
3.44 0.01 0
3.52 0.01 0
3.6 0.01 0
3.68 0.01 0
3.76 0.01 0
3.84 0.01 0
3.92 0.01 0
4 0.01 0
4.08 0.01 0
4.16 0.01 0
4.24 0.01 0
4.32 0.01 0
4.4 0.01 0
4.48 0.01 0
4.56 0.01 0
4.64 0.01 0
4.72 0.01 0
4.8 0.01 0
4.88 0.01 0
4.96 0.01 0
5.04 0.01 0
5.12 0.01 0
[...]
POINT_DATA 80000

SCALARS u float 1
LOOKUP_TABLE default
0
-0.131663
-0.0682705
-0.0522976
-0.0444217
-0.0395788
-0.036262
-0.0338351
-0.0319754
-0.030499
-0.0292933
-0.0282855
-0.0274266
-0.0266826
-0.0260295
-0.0254499
-0.0249309
-0.0244623
-0.0240363
-0.023647
-0.0232899
-0.022962
-0.0226602
-0.0223815
-0.0221231
-0.0218829
-0.0216605
-0.0214563
-0.0212711
-0.0211049
-0.0209572
-0.0208268
-0.0207125
-0.0206136
-0.0205294
-0.0204589
-0.0204002
-0.0203507
-0.0203076
-0.0202681
-0.0202307
-0.0201945
-0.0201599
-0.0201279
-0.0200995
-0.0200755
-0.0200564
-0.020042
-0.020032
-0.0200255
-0.0200218
-0.0200201
-0.0200198
-0.0200204
-0.0200214
-0.0200227
-0.0200242
-0.0200257
-0.0200272
-0.0200287
-0.0200302
-0.0200318
-0.0200333
-0.0200349
-0.0200365
-0.0200381
-0.0200396
-0.0200412
-0.0200428
-0.0200444
-0.020046
-0.0200477
-0.0200493
-0.0200509
-0.0200525
-0.0200541
-0.0200557
-0.0200574
-0.020059
-0.0200606
-0.0200622
-0.0200639
-0.0200655
-0.0200671
-0.0200688
-0.0200704
-0.020072
-0.0200737
-0.0200753
-0.0200769
-0.0200786
-0.0200802
-0.0200818
-0.0200835
-0.0200851
-0.0200868
-0.0200884
-0.0200901
-0.0200917
-0.0200934
-0.020095
-0.0200967
-0.0200983
-0.0201
-0.0201016
-0.0201033
-0.0201049
-0.0201066
-0.0201083
-0.0201099
-0.0201116
-0.0201132
-0.0201149
-0.0201166
-0.0201182
-0.0201199
-0.0201216
-0.0201232
-0.0201249
-0.0201266
-0.0201282
-0.0201299
-0.0201316
-0.0201333
-0.0201349
-0.0201366
-0.0201383
-0.02014
-0.0201416
-0.0201433
-0.020145
-0.0201467
-0.0201484
-0.0201501
-0.0201517
-0.0201534
-0.0201551
-0.0201568
-0.0201585
-0.0201602
-0.0201619
-0.0201636
-0.0201653
-0.020167
-0.0201687
-0.0201703
-0.020172
-0.0201737
-0.0201754
-0.0201771
-0.0201788
-0.0201806
-0.0201823
-0.020184
-0.0201857
-0.0201874
-0.0201891
-0.0201908
-0.0201925
-0.0201942
-0.0201959
-0.0201976
-0.0201994
-0.0202011
-0.0202028
-0.0202045
-0.0202062
-0.020208
-0.0202097
-0.0202114
-0.0202131
-0.0202149
-0.0202166
-0.0202183
-0.0202201
-0.0202218
-0.0202235
-0.0202253
-0.020227
-0.0202287
-0.0202305
-0.0202322
-0.020234
-0.0202357
-0.0202375
-0.0202392
-0.020241
-0.0202428
-0.0202445
-0.0202463
-0.0202481
-0.0202498
-0.0202516
-0.0202534
-0.0202552
-0.0202569
-0.0202587
-0.0202605
-0.0202623
-0.0202641
-0.0202659
-0.0202677
-0.0202695
-0.0202713
-0.0202731
-0.020275
-0.0202768
-0.0202786
-0.0202805
-0.0202823
-0.0202841
-0.020286
-0.0202878
-0.0202897
-0.0202916
-0.0202935
-0.0202953
-0.0202972
-0.0202991
-0.020301
-0.0203029
-0.0203048
-0.0203067
-0.0203087
-0.0203106
-0.0203125
-0.0203145
-0.0203164
-0.0203184
-0.0203204
-0.0203223
-0.0203243
-0.0203263
-0.0203283
-0.0203304
-0.0203324
-0.0203344
-0.0203364
-0.0203385
-0.0203406
-0.0203426
-0.0203447
-0.0203468
-0.0203489
-0.020351
-0.0203531
-0.0203552
-0.0203574
-0.0203595
-0.0203617
-0.0203639
-0.020366
-0.0203682
-0.0203704
-0.0203726
-0.0203749
-0.0203771
-0.0203793
-0.0203816
-0.0203839
-0.0203861
-0.0203884
-0.0203907
-0.020393
-0.0203954
-0.0203977
-0.0204
-0.0204024
-0.0204047
-0.0204071
-0.0204095
-0.0204119
-0.0204143
-0.0204167
-0.0204191
-0.0204216
-0.020424
-0.0204264
-0.0204289
-0.0204314
-0.0204339
-0.0204363
-0.0204388
-0.0204413
-0.0204438
-0.0204464
-0.0204489
-0.0204514
-0.0204539
-0.0204565
-0.020459
-0.0204616
-0.0204642
-0.0204667
-0.0204693
-0.0204719
-0.0204745
-0.020477
-0.0204796
-0.0204822
-0.0204848
-0.0204874
-0.02049
-0.0204926
-0.0204953
-0.0204979
-0.0205005
-0.0205031
-0.0205057
-0.0205083
-0.0205109
-0.0205136
-0.0205162
-0.0205188
-0.0205214
-0.020524
-0.0205266
-0.0205292
-0.0205319
-0.0205345
-0.0205371
-0.0205397
-0.0205423
-0.0205449
-0.0205475
-0.0205501
-0.0205527
-0.0205552
-0.0205578
-0.0205604
-0.020563
-0.0205655
-0.0205681
-0.0205707
-0.0205732
-0.0205758
-0.0205783
-0.0205809
-0.0205834
-0.0205859
-0.0205884
-0.020591
-0.0205935
-0.020596
-0.0205985
-0.020601
-0.0206035
-0.0206059
-0.0206084
-0.0206109
-0.0206133
-0.0206158
-0.0206183
-0.0206207
-0.0206231
-0.0206256
-0.020628
-0.0206304
-0.0206328
-0.0206352
-0.0206376
-0.02064
-0.0206424
-0.0206448
-0.0206472
-0.0206496
-0.0206519
-0.0206543
-0.0206567
-0.020659
-0.0206614
-0.0206637
-0.020666
-0.0206684
-0.0206707
-0.0206731
-0.0206754
-0.0206777
-0.02068
-0.0206823
-0.0206846
-0.020687
-0.0206892
-0.0206916
-0.0206938
-0.0206961
-0.0206984
-0.0207007
-0.0207029
-0.0207053
-0.0207075
-0.0207099
-0.0207122
-0.0207144
-0.020717
-0.0207186
-0.0207222
-0.0207194
-0.0207194
-0.0207194
1
0.131663
0.0682705
0.0522976
0.0444217
0.0395788
0.036262
0.0338351
0.0319754
0.030499
0.0292933
0.0282855
0.0274266
0.0266826
0.0260295
0.0254499
0.0249309
0.0244623
0.0240363
0.023647
0.0232899
0.022962
0.0226602
0.0223815
0.0221231
0.0218829
0.0216605
0.0214563
0.0212711
0.0211049
0.0209572
0.0208268
0.0207125
0.0206136
0.0205294
0.0204589
0.0204002
0.0203507
0.0203076
0.0202681
0.0202307
0.0201945
0.0201599
0.0201279
0.0200995
0.0200755
0.0200564
0.020042
0.020032
0.0200255
0.0200218
0.0200201
0.0200198
0.0200204
0.0200214
0.0200227
0.0200242
0.0200257
0.0200272
0.0200287
0.0200302
0.0200318
0.0200333
0.0200349
0.0200365
0.0200381
0.0200396
0.0200412
0.0200428
0.0200444
0.020046
0.0200477
0.0200493
0.0200509
0.0200525
0.0200541
0.0200557
0.0200574
0.020059
0.0200606
0.0200622
0.0200639
0.0200655
0.0200671
0.0200688
0.0200704
0.020072
0.0200737
0.0200753
0.0200769
0.0200786
0.0200802
0.0200818
0.0200835
0.0200851
0.0200868
0.0200884
0.0200901
0.0200917
0.0200934
0.020095
0.0200967
0.0200983
0.0201
0.0201016
0.0201033
0.0201049
0.0201066
0.0201083
0.0201099
0.0201116
0.0201132
0.0201149
0.0201166
0.0201182
0.0201199
0.0201216
0.0201232
0.0201249
0.0201266
0.0201282
0.0201299
0.0201316
0.0201333
0.0201349
0.0201366
0.0201383
0.02014
0.0201416
0.0201433
0.020145
0.0201467
0.0201484
0.0201501
0.0201517
0.0201534
0.0201551
0.0201568
0.0201585
0.0201602
0.0201619
0.0201636
0.0201653
0.020167
0.0201687
0.0201703
0.020172
0.0201737
0.0201754
0.0201771
0.0201788
0.0201806
0.0201823
0.020184
0.0201857
0.0201874
0.0201891
0.0201908
0.0201925
0.0201942
0.0201959
0.0201976
0.0201994
0.0202011
0.0202028
0.0202045
0.0202062
0.020208
0.0202097
0.0202114
0.0202131
0.0202149
0.0202166
0.0202183
0.0202201
0.0202218
0.0202235
0.0202253
0.020227
0.0202287
0.0202305
0.0202322
0.020234
0.0202357
0.0202375
0.0202392
0.020241
0.0202428
0.0202445
0.0202463
0.0202481
0.0202498
0.0202516
0.0202534
0.0202552
0.0202569
0.0202587
0.0202605
0.0202623
0.0202641
0.0202659
0.0202677
0.0202695
0.0202713
0.0202731
0.020275
0.0202768
0.0202786
0.0202805
0.0202823
0.0202841
0.020286
0.0202878
0.0202897
0.0202916
0.0202935
0.0202953
0.0202972
0.0202991
0.020301
0.0203029
0.0203048
0.0203067
0.0203087
0.0203106
0.0203125
0.0203145
0.0203164
0.0203184
0.0203204
0.0203223
0.0203243
0.0203263
0.0203283
0.0203304
0.0203324
0.0203344
0.0203364
0.0203385
0.0203406
0.0203426
0.0203447
0.0203468
0.0203489
0.020351
0.0203531
0.0203552
0.0203574
0.0203595
0.0203617
0.0203639
0.020366
0.0203682
0.0203704
0.0203726
0.0203749
0.0203771
0.0203793
0.0203816
0.0203839
0.0203861
0.0203884
0.0203907
0.020393
0.0203954
0.0203977
0.0204
0.0204024
0.0204047
0.0204071
0.0204095
0.0204119
0.0204143
0.0204167
0.0204191
0.0204216
0.020424
0.0204264
0.0204289
0.0204314
0.0204339
0.0204363
0.0204388
0.0204413
0.0204438
0.0204464
0.0204489
0.0204514
0.0204539
0.0204565
0.020459
0.0204616
0.0204642
0.0204667
0.0204693
0.0204719
0.0204745
0.020477
0.0204796
0.0204822
0.0204848
0.0204874
0.02049
0.0204926
0.0204953
0.0204979
0.0205005
0.0205031
0.0205057
0.0205083
0.0205109
0.0205136
0.0205162
0.0205188
0.0205214
0.020524
0.0205266
0.0205292
0.0205319
0.0205345
0.0205371
0.0205397
0.0205423
0.0205449
0.0205475
0.0205501
0.0205527
0.0205552
0.0205578
0.0205604
0.020563
0.0205655
0.0205681
0.0205707
0.0205732
0.0205758
0.0205783
0.0205809
0.0205834
0.0205859
0.0205884
0.020591
0.0205935
0.020596
0.0205985
0.020601
0.0206035
0.0206059
0.0206084
0.0206109
0.0206133
0.0206158
0.0206183
0.0206207
0.0206231
0.0206256
0.020628
0.0206304
0.0206328
0.0206352
0.0206376
0.02064
0.0206424
0.0206448
0.0206472
0.0206496
0.0206519
0.0206543
0.0206567
0.020659
0.0206614
0.0206637
0.020666
0.0206684
0.0206707
0.0206731
0.0206754
0.0206777
0.02068
0.0206823
0.0206846
0.020687
0.0206892
0.0206916
0.0206938
0.0206961
0.0206984
0.0207007
0.0207029
0.0207053
0.0207075
0.0207099
0.0207122
0.0207144
0.020717
0.0207186
0.0207222
0.0207194
0.0207194
0.0207194
1
0.344886
0.200671
0.154971
0.1319
0.117604
0.107774
0.100565
0.095033
0.090638
0.087048
0.0840476
0.0814913
0.0792782
0.0773366
0.0756145
0.0740731
0.0726824
0.0714188
0.0702648
0.0692075
0.0682368
0.0673439
0.0665197
0.0657562
0.0650483
0.0643944
0.0637957
0.0632539
0.062769
0.062339
0.0619605
0.0616302
0.0613455
0.0611036
0.0609007
0.0607308
0.0605862
0.0604589
0.060342
0.0602313
0.0601254
0.0600256
0.0599346
0.0598551
0.059789
0.059737
0.0596987
0.0596723
0.0596558
0.0596467
0.0596431
0.059643
0.0596451
0.0596485
0.0596526
0.059657
0.0596615
0.0596661
0.0596706
0.0596753
0.0596799
0.0596846
0.0596893
0.059694
0.0596987
0.0597035
0.0597083
0.0597131
0.0597179
0.0597227
0.0597276
0.0597324
0.0597372
0.0597421
0.059747
0.0597518
0.0597567
0.0597616
0.0597664
0.0597713
0.0597762
0.0597811
0.059786
0.0597909
0.0597958
0.0598007
0.0598056
0.0598105
0.0598154
0.0598203
0.0598253
0.0598302
0.0598351
0.05984
0.059845
0.0598499
0.0598549
0.0598598
0.0598648
0.0598697
0.0598747
0.0598796
0.0598846
0.0598896
0.0598946
0.0598995
0.0599045
0.0599095
0.0599145
0.0599195
0.0599245
0.0599295
0.0599345
0.0599395
0.0599445
0.0599495
0.0599545
0.0599595
0.0599646
0.0599696
0.0599746
0.0599797
0.0599847
0.0599898
0.0599948
0.0599999
0.0600049
0.06001
0.060015
0.0600201
0.0600252
0.0600302
0.0600353
0.0600404
0.0600455
0.0600506
0.0600557
0.0600608
0.0600659
0.060071
0.0600761
0.0600812
0.0600863
0.0600914
0.0600965
0.0601017
0.0601068
0.0601119
0.0601171
0.0601222
0.0601274
0.0601325
0.0601377
0.0601428
0.060148
0.0601532
0.0601583
0.0601635
0.0601687
0.0601739
0.0601791
0.0601843
0.0601895
0.0601947
0.0601999
0.0602052
0.0602104
0.0602156
0.0602209
0.0602261
0.0602314
0.0602366
0.0602419
0.0602472
0.0602524
0.0602577
0.060263
0.0602683
0.0602736
0.0602789
0.0602843
0.0602896
0.0602949
0.0603003
0.0603056
0.060311
0.0603164
0.0603217
0.0603271
0.0603325
0.060338
0.0603434
0.0603488
0.0603543
0.0603597
0.0603652
0.0603707
0.0603762
0.0603817
0.0603872
0.0603927
0.0603982
0.0604038
0.0604094
0.060415
0.0604206
0.0604262
0.0604318
0.0604375
0.0604431
0.0604488
0.0604545
0.0604602
0.0604659
0.0604717
0.0604775
0.0604832
0.060489
0.0604949
0.0605007
0.0605066
0.0605125
0.0605184
0.0605243
0.0605302
0.0605362
0.0605422
0.0605482
0.0605542
0.0605603
0.0605664
0.0605725
0.0605786
0.0605848
0.060591
0.0605972
0.0606034
0.0606096
0.0606159
0.0606222
0.0606286
0.0606349
0.0606413
0.0606477
0.0606542
0.0606606
0.0606671
0.0606736
0.0606802
0.0606867
0.0606933
0.0607
0.0607066
0.0607133
0.06072
0.0607267
0.0607335
0.0607403
0.0607471
0.0607539
0.0607608
0.0607677
0.0607746
0.0607815
0.0607885
0.0607955
0.0608025
0.0608095
0.0608166
0.0608237
0.0608308
0.0608379
0.0608451
0.0608522
0.0608594
0.0608666
0.0608739
0.0608811
0.0608884
0.0608957
0.060903
0.0609103
0.0609177
0.0609251
0.0609324
0.0609398
0.0609472
0.0609547
0.0609621
0.0609695
0.060977
0.0609845
0.0609919
0.0609994
0.0610069
0.0610144
0.0610219
0.0610294
0.061037
0.0610445
0.061052
0.0610596
0.0610671
0.0610746
0.0610822
0.0610897
0.0610973
0.0611048
0.0611123
0.0611199
0.0611274
0.0611349
0.0611425
0.06115
0.0611575
0.061165
0.0611725
0.06118
0.0611875
0.061195
0.0612025
0.0612099
0.0612174
0.0612248
0.0612323
0.0612397
0.0612471
0.0612545
0.0612619
0.0612693
0.0612766
0.061284
0.0612913
0.0612987
0.061306
0.0613133
0.0613205
0.0613278
0.0613351
0.0613423
0.0613495
0.0613567
0.0613639
0.0613711
0.0613783
0.0613854
0.0613926
0.0613997
0.0614068
0.0614139
0.061421
0.061428
0.0614351
0.0614421
0.0614491
0.0614562
0.0614631
0.0614701
0.0614771
0.061484
0.061491
0.0614979
0.0615048
0.0615117
0.0615186
0.0615255
0.0615324
0.0615392
0.0615461
0.0615528
0.0615597
0.0615665
0.0615734
0.06158
0.0615869
0.0615936
0.0616005
0.0616071
0.061614
0.0616206
0.0616275
0.0616341
0.0616409
0.0616475
0.0616544
0.0616609
0.0616678
0.0616743
0.0616812
0.0616877
0.0616946
0.0617014
0.061708
0.0617156
0.0617205
0.0617307
0.0617242
0.0617242
0.0617242
1
0.518768
0.327407
0.255354
0.217857
0.194413
0.178222
0.166319
0.157171
0.149898
0.143956
0.138989
0.134757
0.131096
0.127884
0.125038
0.12249
0.120193
0.118107
0.116202
0.114458
0.112858
0.111387
0.110029
0.108772
0.107609
0.106536
0.105556
0.10467
0.103879
0.103178
0.102563
0.102028
0.101568
0.101177
0.100849
0.100573
0.100336
0.100127
0.0999335
0.099751
0.099578
0.0994167
0.0992712
0.0991455
0.0990423
0.0989622
0.0989037
0.0988642
0.0988399
0.0988271
0.0988225
0.0988233
0.0988274
0.0988333
0.0988402
0.0988476
0.0988551
0.0988628
0.0988704
0.0988781
0.0988858
0.0988936
0.0989014
0.0989093
0.0989172
0.0989252
0.0989331
0.0989411
0.0989491
0.0989572
0.0989652
0.0989733
0.0989814
0.0989894
0.0989975
0.0990056
0.0990137
0.0990218
0.09903
0.0990381
0.0990462
0.0990544
0.0990625
0.0990707
0.0990788
0.099087
0.0990952
0.0991033
0.0991115
0.0991197
0.0991279
0.0991361
0.0991443
0.0991526
0.0991608
0.099169
0.0991773
0.0991855
0.0991938
0.099202
0.0992103
0.0992186
0.0992268
0.0992351
0.0992434
0.0992517
0.09926
0.0992683
0.0992766
0.099285
0.0992933
0.0993016
0.09931
0.0993183
0.0993267
0.0993351
0.0993434
0.0993518
0.0993602
0.0993686
0.099377
0.0993854
0.0993938
0.0994022
0.0994106
0.0994191
0.0994275
0.099436
0.0994444
0.0994529
0.0994613
0.0994698
0.0994783
0.0994868
0.0994953
0.0995038
0.0995123
0.0995208
0.0995293
0.0995379
0.0995464
0.0995549
0.0995635
0.0995721
0.0995806
0.0995892
0.0995978
0.0996064
0.099615
0.0996236
0.0996322
0.0996408
0.0996495
0.0996581
0.0996668
0.0996755
0.0996841
0.0996928
0.0997015
0.0997102
0.0997189
0.0997276
0.0997364
0.0997451
0.0997539
0.0997626
0.0997714
0.0997802
0.099789
0.0997978
0.0998066
0.0998154
0.0998243
0.0998331
0.099842
0.0998509
0.0998598
0.0998687
0.0998776
0.0998866
0.0998955
0.0999045
0.0999135
0.0999225
0.0999315
0.0999405
0.0999495
0.0999586
0.0999677
0.0999768
0.0999859
0.099995
0.100004
0.100013
0.100023
0.100032
0.100041
0.10005
0.10006
0.100069
0.100078
0.100088
0.100097
0.100106
0.100116
0.100125
0.100135
0.100144
0.100154
0.100163
0.100173
0.100182
0.100192
0.100202
0.100211
0.100221
0.100231
0.100241
0.10025
0.10026
0.10027
0.10028
0.10029
0.1003
0.10031
0.10032
0.10033
0.10034
0.10035
0.10036
0.100371
0.100381
0.100391
0.100401
0.100412
0.100422
0.100433
0.100443
0.100454
0.100464
0.100475
0.100485
0.100496
0.100507
0.100517
0.100528
0.100539
0.10055
0.100561
0.100572
0.100583
0.100594
0.100605
0.100616
0.100627
0.100638
0.100649
0.100661
0.100672
0.100683
0.100695
0.100706
0.100717
0.100729
0.10074
0.100752
0.100763
0.100775
0.100787
0.100798
0.10081
0.100822
0.100833
0.100845
0.100857
0.100869
0.100881
0.100892
0.100904
0.100916
0.100928
0.10094
0.100952
0.100964
0.100976
0.100988
0.101
0.101012
0.101024
0.101036
0.101049
0.101061
0.101073
0.101085
0.101097
0.101109
0.101121
0.101134
0.101146
0.101158
0.10117
0.101182
0.101195
0.101207
0.101219
0.101231
0.101243
0.101255
0.101268
0.10128
0.101292
0.101304
0.101316
0.101328
0.10134
0.101353
0.101365
0.101377
0.101389
0.101401
0.101413
0.101425
0.101437
0.101449
0.101461
0.101473
0.101485
0.101497
0.101509
0.101521
0.101532
0.101544
0.101556
0.101568
0.10158
0.101592
0.101603
0.101615
0.101627
0.101638
0.10165
0.101662
0.101673
0.101685
0.101697
0.101708
0.10172
0.101731
0.101743
0.101754
0.101766
0.101777
0.101788
0.1018
0.101811
0.101823
0.101834
0.101845
0.101857
0.101868
0.101879
0.10189
0.101902
0.101913
0.101924
0.101935
0.101946
0.101958
0.101969
0.10198
0.101991
0.102002
0.102013
0.102024
0.102035
0.102046
0.102058
0.102068
0.10208
0.10209
0.102102
0.102113
0.102124
0.102134
0.102146
0.102156
0.102168
0.102178
0.10219
0.1022
0.102212
0.102223
0.102234
0.102246
0.102254
0.102271
0.102262
0.102262
0.102262
1
0.660891
0.4469
0.352886
0.30204
0.269862
0.247515
0.231034
0.218345
0.208246
0.199989
0.193087
0.187207
0.18212
0.17766
0.173708
0.170172
0.166985
0.164092
0.161452
0.159036
0.156819
0.154781
0.152902
0.151164
0.149557
0.148078
0.146729
0.145511
0.144424
0.143464
0.142622
0.141892
0.141265
0.140734
0.140286
0.139908
0.139582
0.139291
0.139022
0.13877
0.138532
0.138312
0.138116
0.137949
0.137813
0.137708
0.137633
0.137583
0.137553
0.137537
0.137533
0.137535
0.137541
0.13755
0.137559
0.13757
0.13758
0.137591
0.137602
0.137612
0.137623
0.137634
0.137645
0.137656
0.137667
0.137678
0.137689
0.137701
0.137712
0.137723
0.137734
0.137745
0.137757
0.137768
0.137779
0.137791
0.137802
0.137813
0.137825
0.137836
0.137847
0.137859
0.13787
0.137882
0.137893
0.137904
0.137916
0.137927
0.137939
0.13795
0.137962
0.137973
0.137985
0.137996
0.138007
0.138019
0.138031
0.138042
0.138054
0.138065
0.138077
0.138088
0.1381
0.138111
0.138123
0.138135
0.138146
0.138158
0.138169
0.138181
0.138193
0.138204
0.138216
0.138228
0.138239
0.138251
0.138263
0.138275
0.138286
0.138298
0.13831
0.138322
0.138333
0.138345
0.138357
0.138369
0.138381
0.138392
0.138404
0.138416
0.138428
0.13844
0.138452
0.138464
0.138476
0.138487
0.138499
0.138511
0.138523
0.138535
0.138547
0.138559
0.138571
0.138583
0.138595
0.138607
0.138619
0.138631
0.138643
0.138655
0.138668
0.13868
0.138692
0.138704
0.138716
0.138728
0.13874
0.138753
0.138765
0.138777
0.138789
0.138802
0.138814
0.138826
0.138838
0.138851
0.138863
0.138875
0.138888
0.1389
0.138913
0.138925
0.138937
0.13895
0.138962
0.138975
0.138987
0.139
0.139012
0.139025
0.139038
0.13905
0.139063
0.139076
0.139088
0.139101
0.139114
0.139126
0.139139
0.139152
0.139165
0.139178
0.139191
0.139204
0.139216
0.139229
0.139242
0.139255
0.139269
0.139282
0.139295
0.139308
0.139321
0.139334
0.139348
0.139361
0.139374
0.139388
0.139401
0.139414
0.139428
0.139441
0.139455
0.139468
0.139482
0.139496
0.139509
0.139523
0.139537
0.139551
0.139565
0.139579
0.139592
0.139606
0.13962
0.139635
0.139649
0.139663
0.139677
0.139691
0.139706
0.13972
0.139734
0.139749
0.139763
0.139778
0.139792
0.139807
0.139822
0.139836
0.139851
0.139866
0.139881
0.139896
0.139911
0.139926
0.139941
0.139956
0.139971
0.139986
0.140001
0.140017
0.140032
0.140047
0.140063
0.140078
0.140094
0.140109
0.140125
0.140141
0.140156
0.140172
0.140188
0.140204
0.140219
0.140235
0.140251
0.140267
0.140283
0.140299
0.140315
0.140331
0.140347
0.140364
0.14038
0.140396
0.140412
0.140429
0.140445
0.140461
0.140477
0.140494
0.14051
0.140527
0.140543
0.14056
0.140576
0.140592
0.140609
0.140625
0.140642
0.140659
0.140675
0.140692
0.140708
0.140725
0.140741
0.140758
0.140774
0.140791
0.140808
0.140824
0.140841
0.140857
0.140874
0.14089
0.140907
0.140923
0.14094
0.140956
0.140973
0.14099
0.141006
0.141022
0.141039
0.141055
0.141072
0.141088
0.141105
0.141121
0.141137
0.141154
0.14117
0.141186
0.141202
0.141219
0.141235
0.141251
0.141267
0.141284
0.1413
0.141316
0.141332
0.141348
0.141364
0.14138
0.141396
0.141412
0.141428
0.141444
0.14146
0.141475
0.141491
0.141507
0.141523
0.141539
0.141554
0.14157
0.141586
0.141601
0.141617
0.141633
0.141648
0.141664
0.141679
0.141695
0.141711
0.141726
0.141741
0.141757
0.141772
0.141788
0.141803
0.141819
0.141834
0.141849
0.141865
0.14188
0.141895
0.14191
0.141926
0.141941
0.141956
0.141971
0.141987
0.142002
0.142017
0.142032
0.142048
0.142062
0.142078
0.142093
0.142108
0.142123
0.142139
0.142153
0.142169
0.142184
0.142199
0.142214
0.14223
0.142245
0.14226
0.142277
0.142289
0.14231
0.142302
0.142302
0.142302
1
0.776806
0.557832
0.446888
0.384114
0.343758
0.315527
0.294623
0.27849
0.265631
0.25511
0.24631
0.238815
0.232329
0.226645
0.221609
0.217105
0.213045
0.209362
0.206003
0.202929
0.200111
0.19752
0.195131
0.192924
0.190885
0.189012
0.187305
0.185766
0.184394
0.183184
0.182125
0.181208
0.180422
0.179756
0.179194
0.178717
0.178303
0.177932
0.177589
0.177267
0.176967
0.176692
0.176449
0.176243
0.176078
0.175952
0.175862
0.175803
0.175769
0.175752
0.175748
0.175752
0.17576
0.175772
0.175784