# vtk DataFile Version 2.0
FlowField
ASCII
DATASET STRUCTURED_GRID
DIMENSIONS 400 1 200
POINTS 80000 float
0 0 0
0.08 0 0
0.16 0 0
0.24 0 0
0.32 0 0
0.4 0 0
0.48 0 0
0.56 0 0
0.64 0 0
0.72 0 0
0.8 0 0
0.88 0 0
0.96 0 0
1.04 0 0
1.12 0 0
1.2 0 0
1.28 0 0
1.36 0 0
1.44 0 0
1.52 0 0
1.6 0 0
1.68 0 0
1.76 0 0
1.84 0 0
1.92 0 0
2 0 0
2.08 0 0
2.16 0 0
2.24 0 0
2.32 0 0
2.4 0 0
2.48 0 0
2.56 0 0
2.64 0 0
2.72 0 0
2.8 0 0
2.88 0 0
2.96 0 0
3.04 0 0
3.12 0 0
3.2 0 0
3.28 0 0
3.36 0 0
3.44 0 0
3.52 0 0
3.6 0 0
3.68 0 0
3.76 0 0
3.84 0 0
3.92 0 0
4 0 0
4.08 0 0
4.16 0 0
4.24 0 0
4.32 0 0
4.4 0 0
4.48 0 0
4.56 0 0
4.64 0 0
4.72 0 0
4.8 0 0
4.88 0 0
4.96 0 0
5.04 0 0
5.12 0 0
5.2 0 0
5.28 0 0
5.36 0 0
5.44 0 0
5.52 0 0
5.6 0 0
5.68 0 0
5.76 0 0
5.84 0 0
5.92 0 0
6 0 0
6.08 0 0
6.16 0 0
6.24 0 0
6.32 0 0
6.4 0 0
6.48 0 0
6.56 0 0
6.64 0 0
6.72 0 0
6.8 0 0
6.88 0 0
6.96 0 0
7.04 0 0
7.12 0 0
7.2 0 0
7.28 0 0
7.36 0 0
7.44 0 0
7.52 0 0
7.6 0 0
7.68 0 0
7.76 0 0
7.84 0 0
7.92 0 0
8 0 0
8.08 0 0
8.16 0 0
8.24 0 0
8.32 0 0
8.4 0 0
8.48 0 0
8.56 0 0
8.64 0 0
8.72 0 0
8.8 0 0
8.88 0 0
8.96 0 0
9.04 0 0
9.12 0 0
9.2 0 0
9.28 0 0
9.36 0 0
9.44 0 0
9.52 0 0
9.6 0 0
9.68 0 0
9.76 0 0
9.84 0 0
9.92 0 0
10 0 0
10.08 0 0
10.16 0 0
10.24 0 0
10.32 0 0
10.4 0 0
10.48 0 0
10.56 0 0
10.64 0 0
10.72 0 0
10.8 0 0
10.88 0 0
10.96 0 0
11.04 0 0
11.12 0 0
11.2 0 0
11.28 0 0
11.36 0 0
11.44 0 0
11.52 0 0
11.6 0 0
11.68 0 0
11.76 0 0
11.84 0 0
11.92 0 0
12 0 0
12.08 0 0
12.16 0 0
12.24 0 0
12.32 0 0
12.4 0 0
12.48 0 0
12.56 0 0
12.64 0 0
12.72 0 0
12.8 0 0
12.88 0 0
12.96 0 0
13.04 0 0
13.12 0 0
13.2 0 0
13.28 0 0
13.36 0 0
13.44 0 0
13.52 0 0
13.6 0 0
13.68 0 0
13.76 0 0
13.84 0 0
13.92 0 0
14 0 0
14.08 0 0
14.16 0 0
14.24 0 0
14.32 0 0
14.4 0 0
14.48 0 0
14.56 0 0
14.64 0 0
14.72 0 0
14.8 0 0
14.88 0 0
14.96 0 0
15.04 0 0
15.12 0 0
15.2 0 0
15.28 0 0
15.36 0 0
15.44 0 0
15.52 0 0
15.6 0 0
15.68 0 0
15.76 0 0
15.84 0 0
15.92 0 0
16 0 0
16.08 0 0
16.16 0 0
16.24 0 0
16.32 0 0
16.4 0 0
16.48 0 0
16.56 0 0
16.64 0 0
16.72 0 0
16.8 0 0
16.88 0 0
16.96 0 0
17.04 0 0
17.12 0 0
17.2 0 0
17.28 0 0
17.36 0 0
17.44 0 0
17.52 0 0
17.6 0 0
17.68 0 0
17.76 0 0
17.84 0 0
17.92 0 0
18 0 0
18.08 0 0
18.16 0 0
18.24 0 0
18.32 0 0
18.4 0 0
18.48 0 0
18.56 0 0
18.64 0 0
18.72 0 0
18.8 0 0
18.88 0 0
18.96 0 0
19.04 0 0
19.12 0 0
19.2 0 0
19.28 0 0
19.36 0 0
19.44 0 0
19.52 0 0
19.6 0 0
19.68 0 0
19.76 0 0
19.84 0 0
19.92 0 0
20 0 0
20.08 0 0
20.16 0 0
20.24 0 0
20.32 0 0
20.4 0 0
20.48 0 0
20.56 0 0
20.64 0 0
20.72 0 0
20.8 0 0
20.88 0 0
20.96 0 0
21.04 0 0
21.12 0 0
21.2 0 0
21.28 0 0
21.36 0 0
21.44 0 0
21.52 0 0
21.6 0 0
21.68 0 0
21.76 0 0
21.84 0 0
21.92 0 0
22 0 0
22.08 0 0
22.16 0 0
22.24 0 0
22.32 0 0
22.4 0 0
22.48 0 0
22.56 0 0
22.64 0 0
22.72 0 0
22.8 0 0
22.88 0 0
22.96 0 0
23.04 0 0
23.12 0 0
23.2 0 0
23.28 0 0
23.36 0 0
23.44 0 0
23.52 0 0
23.6 0 0
23.68 0 0
23.76 0 0
23.84 0 0
23.92 0 0
24 0 0
24.08 0 0
24.16 0 0
24.24 0 0
24.32 0 0
24.4 0 0
24.48 0 0
24.56 0 0
24.64 0 0
24.72 0 0
24.8 0 0
24.88 0 0
24.96 0 0
25.04 0 0
25.12 0 0
25.2 0 0
25.28 0 0
25.36 0 0
25.44 0 0
25.52 0 0
25.6 0 0
25.68 0 0
25.76 0 0
25.84 0 0
25.92 0 0
26 0 0
26.08 0 0
26.16 0 0
26.24 0 0
26.32 0 0
26.4 0 0
26.48 0 0
26.56 0 0
26.64 0 0
26.72 0 0
26.8 0 0
26.88 0 0
26.96 0 0
27.04 0 0
27.12 0 0
27.2 0 0
27.28 0 0
27.36 0 0
27.44 0 0
27.52 0 0
27.6 0 0
27.68 0 0
27.76 0 0
27.84 0 0
27.92 0 0
28 0 0
28.08 0 0
28.16 0 0
28.24 0 0
28.32 0 0
28.4 0 0
28.48 0 0
28.56 0 0
28.64 0 0
28.72 0 0
28.8 0 0
28.88 0 0
28.96 0 0
29.04 0 0
29.12 0 0
29.2 0 0
29.28 0 0
29.36 0 0
29.44 0 0
29.52 0 0
29.6 0 0
29.68 0 0
29.76 0 0
29.84 0 0
29.92 0 0
30 0 0
30.08 0 0
30.16 0 0
30.24 0 0
30.32 0 0
30.4 0 0
30.48 0 0
30.56 0 0
30.64 0 0
30.72 0 0
30.8 0 0
30.88 0 0
30.96 0 0
31.04 0 0
31.12 0 0
31.2 0 0
31.28 0 0
31.36 0 0
31.44 0 0
31.52 0 0
31.6 0 0
31.68 0 0
31.76 0 0
31.84 0 0
31.92 0 0
0 0.005 0
0.08 0.005 0
0.16 0.005 0
0.24 0.005 0
0.32 0.005 0
0.4 0.005 0
0.48 0.005 0
0.56 0.005 0
0.64 0.005 0
0.72 0.005 0
0.8 0.005 0
0.88 0.005 0
0.96 0.005 0
1.04 0.005 0
1.12 0.005 0
1.2 0.005 0
1.28 0.005 0
1.36 0.005 0
1.44 0.005 0
1.52 0.005 0
1.6 0.005 0
1.68 0.005 0
1.76 0.005 0
1.84 0.005 0
1.92 0.005 0
2 0.005 0
2.08 0.005 0
2.16 0.005 0
2.24 0.005 0
2.32 0.005 0
2.4 0.005 0
2.48 0.005 0
2.56 0.005 0
2.64 0.005 0
2.72 0.005 0
2.8 0.005 0
2.88 0.005 0
2.96 0.005 0
3.04 0.005 0
3.12 0.005 0
3.2 0.005 0
3.28 0.005 0
3.36 0.005 0
3.44 0.005 0
3.52 0.005 0
3.6 0.005 0
3.68 0.005 0
3.76 0.005 0
3.84 0.005 0
3.92 0.005 0
4 0.005 0
4.08 0.005 0
4.16 0.005 0
4.24 0.005 0
4.32 0.005 0
4.4 0.005 0
4.48 0.005 0
4.56 0.005 0
4.64 0.005 0
4.72 0.005 0
4.8 0.005 0
4.88 0.005 0
4.96 0.005 0
5.04 0.005 0
5.12 0.005 0
5.2 0.005 0
5.28 0.005 0
5.36 0.005 0
5.44 0.005 0
5.52 0.005 0
5.6 0.005 0
5.68 0.005 0
5.76 0.005 0
5.84 0.005 0
5.92 0.005 0
6 0.005 0
6.08 0.005 0
6.16 0.005 0
6.24 0.005 0
6.32 0.005 0
6.4 0.005 0
6.48 0.005 0
6.56 0.005 0
6.64 0.005 0
6.72 0.005 0
6.8 0.005 0
6.88 0.005 0
6.96 0.005 0
7.04 0.005 0
7.12 0.005 0
7.2 0.005 0
7.28 0.005 0
7.36 0.005 0
7.44 0.005 0
7.52 0.005 0
7.6 0.005 0
7.68 0.005 0
7.76 0.005 0
7.84 0.005 0
7.92 0.005 0
8 0.005 0
8.08 0.005 0
8.16 0.005 0
8.24 0.005 0
8.32 0.005 0
8.4 0.005 0
8.48 0.005 0
8.56 0.005 0
8.64 0.005 0
8.72 0.005 0
8.8 0.005 0
8.88 0.005 0
8.96 0.005 0
9.04 0.005 0
9.12 0.005 0
9.2 0.005 0
9.28 0.005 0
9.36 0.005 0
9.44 0.005 0
9.52 0.005 0
9.6 0.005 0
9.68 0.005 0
9.76 0.005 0
9.84 0.005 0
9.92 0.005 0
10 0.005 0
10.08 0.005 0
10.16 0.005 0
10.24 0.005 0
10.32 0.005 0
10.4 0.005 0
10.48 0.005 0
10.56 0.005 0
10.64 0.005 0
10.72 0.005 0
10.8 0.005 0
10.88 0.005 0
10.96 0.005 0
11.04 0.005 0
11.12 0.005 0
11.2 0.005 0
11.28 0.005 0
11.36 0.005 0
11.44 0.005 0
11.52 0.005 0
11.6 0.005 0
11.68 0.005 0
11.76 0.005 0
11.84 0.005 0
11.92 0.005 0
12 0.005 0
12.08 0.005 0
12.16 0.005 0
12.24 0.005 0
12.32 0.005 0
12.4 0.005 0
12.48 0.005 0
12.56 0.005 0
12.64 0.005 0
12.72 0.005 0
12.8 0.005 0
12.88 0.005 0
12.96 0.005 0
13.04 0.005 0
13.12 0.005 0
13.2 0.005 0
13.28 0.005 0
13.36 0.005 0
13.44 0.005 0
13.52 0.005 0
13.6 0.005 0
13.68 0.005 0
13.76 0.005 0
13.84 0.005 0
13.92 0.005 0
14 0.005 0
14.08 0.005 0
14.16 0.005 0
14.24 0.005 0
14.32 0.005 0
14.4 0.005 0
14.48 0.005 0
14.56 0.005 0
14.64 0.005 0
14.72 0.005 0
14.8 0.005 0
14.88 0.005 0
14.96 0.005 0
15.04 0.005 0
15.12 0.005 0
15.2 0.005 0
15.28 0.005 0
15.36 0.005 0
15.44 0.005 0
15.52 0.005 0
15.6 0.005 0
15.68 0.005 0
15.76 0.005 0
15.84 0.005 0
15.92 0.005 0
16 0.005 0
16.08 0.005 0
16.16 0.005 0
16.24 0.005 0
16.32 0.005 0
16.4 0.005 0
16.48 0.005 0
16.56 0.005 0
16.64 0.005 0
16.72 0.005 0
16.8 0.005 0
16.88 0.005 0
16.96 0.005 0
17.04 0.005 0
17.12 0.005 0
17.2 0.005 0
17.28 0.005 0
17.36 0.005 0
17.44 0.005 0
17.52 0.005 0
17.6 0.005 0
17.68 0.005 0
17.76 0.005 0
17.84 0.005 0
17.92 0.005 0
18 0.005 0
18.08 0.005 0
18.16 0.005 0
18.24 0.005 0
18.32 0.005 0
18.4 0.005 0
18.48 0.005 0
18.56 0.005 0
18.64 0.005 0
18.72 0.005 0
18.8 0.005 0
18.88 0.005 0
18.96 0.005 0
19.04 0.005 0
19.12 0.005 0
19.2 0.005 0
19.28 0.005 0
19.36 0.005 0
19.44 0.005 0
19.52 0.005 0
19.6 0.005 0
19.68 0.005 0
19.76 0.005 0
19.84 0.005 0
19.92 0.005 0
20 0.005 0
20.08 0.005 0
20.16 0.005 0
20.24 0.005 0
20.32 0.005 0
20.4 0.005 0
20.48 0.005 0
20.56 0.005 0
20.64 0.005 0
20.72 0.005 0
20.8 0.005 0
20.88 0.005 0
20.96 0.005 0
21.04 0.005 0
21.12 0.005 0
21.2 0.005 0
21.28 0.005 0
21.36 0.005 0
21.44 0.005 0
21.52 0.005 0
21.6 0.005 0
21.68 0.005 0
21.76 0.005 0
21.84 0.005 0
21.92 0.005 0
22 0.005 0
22.08 0.005 0
22.16 0.005 0
22.24 0.005 0
22.32 0.005 0
22.4 0.005 0
22.48 0.005 0
22.56 0.005 0
22.64 0.005 0
22.72 0.005 0
22.8 0.005 0
22.88 0.005 0
22.96 0.005 0
23.04 0.005 0
23.12 0.005 0
23.2 0.005 0
23.28 0.005 0
23.36 0.005 0
23.44 0.005 0
23.52 0.005 0
23.6 0.005 0
23.68 0.005 0
23.76 0.005 0
23.84 0.005 0
23.92 0.005 0
24 0.005 0
24.08 0.005 0
24.16 0.005 0
24.24 0.005 0
24.32 0.005 0
24.4 0.005 0
24.48 0.005 0
24.56 0.005 0
24.64 0.005 0
24.72 0.005 0
24.8 0.005 0
24.88 0.005 0
24.96 0.005 0
25.04 0.005 0
25.12 0.005 0
25.2 0.005 0
25.28 0.005 0
25.36 0.005 0
25.44 0.005 0
25.52 0.005 0
25.6 0.005 0
25.68 0.005 0
25.76 0.005 0
25.84 0.005 0
25.92 0.005 0
26 0.005 0
26.08 0.005 0
26.16 0.005 0
26.24 0.005 0
26.32 0.005 0
26.4 0.005 0
26.48 0.005 0
26.56 0.005 0
26.64 0.005 0
26.72 0.005 0
26.8 0.005 0
26.88 0.005 0
26.96 0.005 0
27.04 0.005 0
27.12 0.005 0
27.2 0.005 0
27.28 0.005 0
27.36 0.005 0
27.44 0.005 0
27.52 0.005 0
27.6 0.005 0
27.68 0.005 0
27.76 0.005 0
27.84 0.005 0
27.92 0.005 0
28 0.005 0
28.08 0.005 0
28.16 0.005 0
28.24 0.005 0
28.32 0.005 0
28.4 0.005 0
28.48 0.005 0
28.56 0.005 0
28.64 0.005 0
28.72 0.005 0
28.8 0.005 0
28.88 0.005 0
28.96 0.005 0
29.04 0.005 0
29.12 0.005 0
29.2 0.005 0
29.28 0.005 0
29.36 0.005 0
29.44 0.005 0
29.52 0.005 0
29.6 0.005 0
29.68 0.005 0
29.76 0.005 0
29.84 0.005 0
29.92 0.005 0
30 0.005 0
30.08 0.005 0
30.16 0.005 0
30.24 0.005 0
30.32 0.005 0
30.4 0.005 0
30.48 0.005 0
30.56 0.005 0
30.64 0.005 0
30.72 0.005 0
30.8 0.005 0
30.88 0.005 0
30.96 0.005 0
31.04 0.005 0
31.12 0.005 0
31.2 0.005 0
31.28 0.005 0
31.36 0.005 0
31.44 0.005 0
31.52 0.005 0
31.6 0.005 0
31.68 0.005 0
31.76 0.005 0
31.84 0.005 0
31.92 0.005 0
0 0.01 0
0.08 0.01 0
0.16 0.01 0
0.24 0.01 0
0.32 0.01 0
0.4 0.01 0
0.48 0.01 0
0.56 0.01 0
0.64 0.01 0
0.72 0.01 0
0.8 0.01 0
0.88 0.01 0
0.96 0.01 0
1.04 0.01 0
1.12 0.01 0
1.2 0.01 0
1.28 0.01 0
1.36 0.01 0
1.44 0.01 0
1.52 0.01 0
1.6 0.01 0
1.68 0.01 0
1.76 0.01 0
1.84 0.01 0
1.92 0.01 0
2 0.01 0
2.08 0.01 0
2.16 0.01 0
2.24 0.01 0
2.32 0.01 0
2.4 0.01 0
2.48 0.01 0
2.56 0.01 0
2.64 0.01 0
2.72 0.01 0
2.8 0.01 0
2.88 0.01 0
2.96 0.01 0
3.04 0.01 0
3.12 0.01 0
3.2 0.01 0
3.28 0.01 0
3.36 0.01 0
3.44 0.01 0
3.52 0.01 0
3.6 0.01 0
3.68 0.01 0
3.76 0.01 0
3.84 0.01 0
3.92 0.01 0
4 0.01 0
4.08 0.01 0
4.16 0.01 0
4.24 0.01 0
4.32 0.01 0
4.4 0.01 0
4.48 0.01 0
4.56 0.01 0
4.64 0.01 0
4.72 0.01 0
4.8 0.01 0
4.88 0.01 0
4.96 0.01 0
5.04 0.01 0
5.12 0.01 0
[...]
POINT_DATA 80000

SCALARS u float 1
LOOKUP_TABLE default
0
-0.131663
-0.0682696
-0.0522964
-0.0444204
-0.0395773
-0.0362603
-0.0338333
-0.0319734
-0.0304968
-0.0292907
-0.0282825
-0.027423
-0.0266784
-0.0260245
-0.0254437
-0.0249229
-0.024452
-0.0240234
-0.0236311
-0.0232702
-0.0229367
-0.0226273
-0.0223393
-0.0220705
-0.0218189
-0.021583
-0.0213611
-0.0211521
-0.0209547
-0.0207682
-0.0205919
-0.0204251
-0.020267
-0.0201169
-0.0199743
-0.0198389
-0.0197107
-0.0195896
-0.0194754
-0.019368
-0.0192672
-0.0191732
-0.0190861
-0.0190063
-0.0189341
-0.0188691
-0.0188106
-0.0187577
-0.0187094
-0.0186648
-0.0186237
-0.0185859
-0.0185516
-0.0185208
-0.0184934
-0.0184689
-0.0184467
-0.0184262
-0.018407
-0.0183887
-0.0183713
-0.018355
-0.0183401
-0.018327
-0.0183158
-0.0183066
-0.0182994
-0.018294
-0.0182903
-0.0182878
-0.0182864
-0.0182857
-0.0182856
-0.0182859
-0.0182864
-0.018287
-0.0182878
-0.0182886
-0.0182894
-0.0182903
-0.0182912
-0.0182921
-0.018293
-0.018294
-0.0182949
-0.0182959
-0.0182968
-0.0182978
-0.0182987
-0.0182997
-0.0183006
-0.0183016
-0.0183025
-0.0183035
-0.0183045
-0.0183054
-0.0183064
-0.0183073
-0.0183083
-0.0183092
-0.0183102
-0.0183112
-0.0183121
-0.0183131
-0.0183141
-0.018315
-0.018316
-0.018317
-0.0183179
-0.0183189
-0.0183199
-0.0183208
-0.0183218
-0.0183228
-0.0183237
-0.0183247
-0.0183257
-0.0183266
-0.0183276
-0.0183286
-0.0183296
-0.0183305
-0.0183315
-0.0183325
-0.0183335
-0.0183344
-0.0183354
-0.0183364
-0.0183374
-0.0183383
-0.0183393
-0.0183403
-0.0183413
-0.0183423
-0.0183433
-0.0183442
-0.0183452
-0.0183462
-0.0183472
-0.0183482
-0.0183492
-0.0183501
-0.0183511
-0.0183521
-0.0183531
-0.0183541
-0.0183551
-0.0183561
-0.0183571
-0.0183581
-0.0183591
-0.0183601
-0.018361
-0.018362
-0.018363
-0.018364
-0.018365
-0.018366
-0.018367
-0.018368
-0.018369
-0.01837
-0.018371
-0.018372
-0.018373
-0.018374
-0.018375
-0.018376
-0.018377
-0.018378
-0.0183791
-0.0183801
-0.0183811
-0.0183821
-0.0183831
-0.0183841
-0.0183851
-0.0183861
-0.0183871
-0.0183881
-0.0183892
-0.0183902
-0.0183912
-0.0183922
-0.0183932
-0.0183942
-0.0183952
-0.0183963
-0.0183973
-0.0183983
-0.0183993
-0.0184003
-0.0184014
-0.0184024
-0.0184034
-0.0184044
-0.0184054
-0.0184065
-0.0184075
-0.0184085
-0.0184095
-0.0184106
-0.0184116
-0.0184126
-0.0184137
-0.0184147
-0.0184157
-0.0184167
-0.0184178
-0.0184188
-0.0184198
-0.0184209
-0.0184219
-0.0184229
-0.018424
-0.018425
-0.0184261
-0.0184271
-0.0184281
-0.0184292
-0.0184302
-0.0184312
-0.0184323
-0.0184333
-0.0184344
-0.0184354
-0.0184365
-0.0184375
-0.0184385
-0.0184396
-0.0184406
-0.0184417
-0.0184427
-0.0184438
-0.0184448
-0.0184459
-0.0184469
-0.018448
-0.018449
-0.0184501
-0.0184511
-0.0184522
-0.0184532
-0.0184543
-0.0184554
-0.0184564
-0.0184575
-0.0184585
-0.0184596
-0.0184606
-0.0184617
-0.0184628
-0.0184638
-0.0184649
-0.0184659
-0.018467
-0.0184681
-0.0184691
-0.0184702
-0.0184713
-0.0184723
-0.0184734
-0.0184745
-0.0184755
-0.0184766
-0.0184777
-0.0184787
-0.0184798
-0.0184809
-0.0184819
-0.018483
-0.0184841
-0.0184852
-0.0184862
-0.0184873
-0.0184884
-0.0184895
-0.0184905
-0.0184916
-0.0184927
-0.0184938
-0.0184948
-0.0184959
-0.018497
-0.0184981
-0.0184992
-0.0185002
-0.0185013
-0.0185024
-0.0185035
-0.0185046
-0.0185057
-0.0185067
-0.0185078
-0.0185089
-0.01851
-0.0185111
-0.0185122
-0.0185133
-0.0185144
-0.0185155
-0.0185165
-0.0185176
-0.0185187
-0.0185198
-0.0185209
-0.018522
-0.0185231
-0.0185242
-0.0185253
-0.0185264
-0.0185275
-0.0185286
-0.0185297
-0.0185308
-0.0185319
-0.018533
-0.0185341
-0.0185352
-0.0185363
-0.0185374
-0.0185385
-0.0185396
-0.0185407
-0.0185418
-0.0185429
-0.018544
-0.0185452
-0.0185463
-0.0185474
-0.0185485
-0.0185496
-0.0185507
-0.0185518
-0.0185529
-0.018554
-0.0185552
-0.0185563
-0.0185574
-0.0185585
-0.0185596
-0.0185607
-0.0185619
-0.018563
-0.0185641
-0.0185652
-0.0185663
-0.0185675
-0.0185686
-0.0185697
-0.0185708
-0.018572
-0.0185731
-0.0185742
-0.0185753
-0.0185765
-0.0185776
-0.0185787
-0.0185799
-0.018581
-0.0185821
-0.0185832
-0.0185844
-0.0185855
-0.0185867
-0.0185878
-0.0185889
-0.0185901
-0.0185912
-0.0185923
-0.0185935
-0.0185946
-0.0185958
-0.0185969
-0.018598
-0.0185992
-0.0186003
-0.0186015
-0.0186026
-0.0186037
-0.0186049
-0.018606
-0.0186072
-0.0186083
-0.0186095
-0.0186106
-0.0186118
-0.0186129
-0.0186141
-0.0186153
-0.0186164
-0.0186177
-0.0186187
-0.0186202
-0.0186208
-0.0186228
-0.018621
-0.018621
-0.018621
1
0.131663
0.0682696
0.0522964
0.0444204
0.0395773
0.0362603
0.0338333
0.0319734
0.0304968
0.0292907
0.0282825
0.027423
0.0266784
0.0260245
0.0254437
0.0249229
0.024452
0.0240234
0.0236311
0.0232702
0.0229367
0.0226273
0.0223393
0.0220705
0.0218189
0.021583
0.0213611
0.0211521
0.0209547
0.0207682
0.0205919
0.0204251
0.020267
0.0201169
0.0199743
0.0198389
0.0197107
0.0195896
0.0194754
0.019368
0.0192672
0.0191732
0.0190861
0.0190063
0.0189341
0.0188691
0.0188106
0.0187577
0.0187094
0.0186648
0.0186237
0.0185859
0.0185516
0.0185208
0.0184934
0.0184689
0.0184467
0.0184262
0.018407
0.0183887
0.0183713
0.018355
0.0183401
0.018327
0.0183158
0.0183066
0.0182994
0.018294
0.0182903
0.0182878
0.0182864
0.0182857
0.0182856
0.0182859
0.0182864
0.018287
0.0182878
0.0182886
0.0182894
0.0182903
0.0182912
0.0182921
0.018293
0.018294
0.0182949
0.0182959
0.0182968
0.0182978
0.0182987
0.0182997
0.0183006
0.0183016
0.0183025
0.0183035
0.0183045
0.0183054
0.0183064
0.0183073
0.0183083
0.0183092
0.0183102
0.0183112
0.0183121
0.0183131
0.0183141
0.018315
0.018316
0.018317
0.0183179
0.0183189
0.0183199
0.0183208
0.0183218
0.0183228
0.0183237
0.0183247
0.0183257
0.0183266
0.0183276
0.0183286
0.0183296
0.0183305
0.0183315
0.0183325
0.0183335
0.0183344
0.0183354
0.0183364
0.0183374
0.0183383
0.0183393
0.0183403
0.0183413
0.0183423
0.0183433
0.0183442
0.0183452
0.0183462
0.0183472
0.0183482
0.0183492
0.0183501
0.0183511
0.0183521
0.0183531
0.0183541
0.0183551
0.0183561
0.0183571
0.0183581
0.0183591
0.0183601
0.018361
0.018362
0.018363
0.018364
0.018365
0.018366
0.018367
0.018368
0.018369
0.01837
0.018371
0.018372
0.018373
0.018374
0.018375
0.018376
0.018377
0.018378
0.0183791
0.0183801
0.0183811
0.0183821
0.0183831
0.0183841
0.0183851
0.0183861
0.0183871
0.0183881
0.0183892
0.0183902
0.0183912
0.0183922
0.0183932
0.0183942
0.0183952
0.0183963
0.0183973
0.0183983
0.0183993
0.0184003
0.0184014
0.0184024
0.0184034
0.0184044
0.0184054
0.0184065
0.0184075
0.0184085
0.0184095
0.0184106
0.0184116
0.0184126
0.0184137
0.0184147
0.0184157
0.0184167
0.0184178
0.0184188
0.0184198
0.0184209
0.0184219
0.0184229
0.018424
0.018425
0.0184261
0.0184271
0.0184281
0.0184292
0.0184302
0.0184312
0.0184323
0.0184333
0.0184344
0.0184354
0.0184365
0.0184375
0.0184385
0.0184396
0.0184406
0.0184417
0.0184427
0.0184438
0.0184448
0.0184459
0.0184469
0.018448
0.018449
0.0184501
0.0184511
0.0184522
0.0184532
0.0184543
0.0184554
0.0184564
0.0184575
0.0184585
0.0184596
0.0184606
0.0184617
0.0184628
0.0184638
0.0184649
0.0184659
0.018467
0.0184681
0.0184691
0.0184702
0.0184713
0.0184723
0.0184734
0.0184745
0.0184755
0.0184766
0.0184777
0.0184787
0.0184798
0.0184809
0.0184819
0.018483
0.0184841
0.0184852
0.0184862
0.0184873
0.0184884
0.0184895
0.0184905
0.0184916
0.0184927
0.0184938
0.0184948
0.0184959
0.018497
0.0184981
0.0184992
0.0185002
0.0185013
0.0185024
0.0185035
0.0185046
0.0185057
0.0185067
0.0185078
0.0185089
0.01851
0.0185111
0.0185122
0.0185133
0.0185144
0.0185155
0.0185165
0.0185176
0.0185187
0.0185198
0.0185209
0.018522
0.0185231
0.0185242
0.0185253
0.0185264
0.0185275
0.0185286
0.0185297
0.0185308
0.0185319
0.018533
0.0185341
0.0185352
0.0185363
0.0185374
0.0185385
0.0185396
0.0185407
0.0185418
0.0185429
0.018544
0.0185452
0.0185463
0.0185474
0.0185485
0.0185496
0.0185507
0.0185518
0.0185529
0.018554
0.0185552
0.0185563
0.0185574
0.0185585
0.0185596
0.0185607
0.0185619
0.018563
0.0185641
0.0185652
0.0185663
0.0185675
0.0185686
0.0185697
0.0185708
0.018572
0.0185731
0.0185742
0.0185753
0.0185765
0.0185776
0.0185787
0.0185799
0.018581
0.0185821
0.0185832
0.0185844
0.0185855
0.0185867
0.0185878
0.0185889
0.0185901
0.0185912
0.0185923
0.0185935
0.0185946
0.0185958
0.0185969
0.018598
0.0185992
0.0186003
0.0186015
0.0186026
0.0186037
0.0186049
0.018606
0.0186072
0.0186083
0.0186095
0.0186106
0.0186118
0.0186129
0.0186141
0.0186153
0.0186164
0.0186177
0.0186187
0.0186202
0.0186208
0.0186228
0.018621
0.018621
0.018621
1
0.344884
0.200669
0.154968
0.131896
0.1176
0.10777
0.10056
0.0950272
0.0906315
0.0870405
0.0840387
0.0814807
0.0792657
0.0773215
0.0755955
0.0740485
0.0726508
0.0713792
0.0702156
0.0691455
0.068157
0.0672402
0.0663871
0.0655911
0.0648463
0.0641479
0.0634913
0.0628727
0.0622889
0.0617375
0.0612164
0.0607234
0.0602562
0.059813
0.0593924
0.0589935
0.0586161
0.05826
0.0579247
0.0576098
0.0573149
0.0570404
0.056787
0.0565555
0.0563461
0.0561577
0.0559881
0.0558345
0.0556941
0.0555648
0.0554457
0.0553365
0.0552375
0.0551487
0.0550694
0.0549983
0.0549337
0.054874
0.054818
0.054765
0.0547151
0.0546688
0.054627
0.0545905
0.0545596
0.0545347
0.0545154
0.0545012
0.0544914
0.0544852
0.0544818
0.0544803
0.0544803
0.0544813
0.0544829
0.054485
0.0544873
0.0544897
0.0544923
0.054495
0.0544977
0.0545004
0.0545032
0.054506
0.0545088
0.0545116
0.0545144
0.0545173
0.0545201
0.054523
0.0545258
0.0545286
0.0545315
0.0545343
0.0545372
0.0545401
0.0545429
0.0545458
0.0545486
0.0545515
0.0545544
0.0545572
0.0545601
0.054563
0.0545659
0.0545687
0.0545716
0.0545745
0.0545774
0.0545802
0.0545831
0.054586
0.0545889
0.0545918
0.0545947
0.0545976
0.0546005
0.0546034
0.0546063
0.0546092
0.0546121
0.054615
0.0546179
0.0546208
0.0546237
0.0546266
0.0546295
0.0546324
0.0546354
0.0546383
0.0546412
0.0546441
0.0546471
0.05465
0.0546529
0.0546558
0.0546588
0.0546617
0.0546646
0.0546676
0.0546705
0.0546735
0.0546764
0.0546794
0.0546823
0.0546853
0.0546882
0.0546912
0.0546941
0.0546971
0.0547
0.054703
0.054706
0.0547089
0.0547119
0.0547149
0.0547178
0.0547208
0.0547238
0.0547268
0.0547297
0.0547327
0.0547357
0.0547387
0.0547417
0.0547447
0.0547476
0.0547506
0.0547536
0.0547566
0.0547596
0.0547626
0.0547656
0.0547686
0.0547716
0.0547746
0.0547777
0.0547807
0.0547837
0.0547867
0.0547897
0.0547927
0.0547958
0.0547988
0.0548018
0.0548048
0.0548079
0.0548109
0.0548139
0.054817
0.05482
0.054823
0.0548261
0.0548291
0.0548322
0.0548352
0.0548383
0.0548413
0.0548444
0.0548474
0.0548505
0.0548535
0.0548566
0.0548597
0.0548627
0.0548658
0.0548689
0.0548719
0.054875
0.0548781
0.0548812
0.0548842
0.0548873
0.0548904
0.0548935
0.0548966
0.0548997
0.0549027
0.0549058
0.0549089
0.054912
0.0549151
0.0549182
0.0549213
0.0549244
0.0549275
0.0549306
0.0549338
0.0549369
0.05494
0.0549431
0.0549462
0.0549493
0.0549525
0.0549556
0.0549587
0.0549618
0.054965
0.0549681
0.0549712
0.0549744
0.0549775
0.0549806
0.0549838
0.0549869
0.0549901
0.0549932
0.0549964
0.0549995
0.0550027
0.0550058
0.055009
0.0550121
0.0550153
0.0550185
0.0550216
0.0550248
0.055028
0.0550311
0.0550343
0.0550375
0.0550407
0.0550438
0.055047
0.0550502
0.0550534
0.0550566
0.0550597
0.0550629
0.0550661
0.0550693
0.0550725
0.0550757
0.0550789
0.0550821
0.0550853
0.0550885
0.0550917
0.0550949
0.0550981
0.0551013
0.0551046
0.0551078
0.055111
0.0551142
0.0551174
0.0551207
0.0551239
0.0551271
0.0551303
0.0551336
0.0551368
0.05514
0.0551433
0.0551465
0.0551497
0.055153
0.0551562
0.0551595
0.0551627
0.055166
0.0551692
0.0551725
0.0551757
0.055179
0.0551822
0.0551855
0.0551888
0.055192
0.0551953
0.0551986
0.0552018
0.0552051
0.0552084
0.0552117
0.0552149
0.0552182
0.0552215
0.0552248
0.0552281
0.0552314
0.0552347
0.0552379
0.0552412
0.0552445
0.0552478
0.0552511
0.0552544
0.0552577
0.055261
0.0552643
0.0552677
0.055271
0.0552743
0.0552776
0.0552809
0.0552842
0.0552876
0.0552909
0.0552942
0.0552975
0.0553009
0.0553042
0.0553075
0.0553109
0.0553142
0.0553175
0.0553209
0.0553242
0.0553276
0.0553309
0.0553343
0.0553376
0.055341
0.0553443
0.0553477
0.0553511
0.0553544
0.0553578
0.0553611
0.0553645
0.0553679
0.0553713
0.0553746
0.055378
0.0553814
0.0553848
0.0553882
0.0553916
0.0553949
0.0553983
0.0554017
0.0554051
0.0554085
0.0554119
0.0554153
0.0554187
0.0554221
0.0554256
0.0554289
0.0554324
0.0554357
0.0554392
0.0554426
0.0554461
0.0554494
0.0554529
0.0554563
0.0554598
0.0554632
0.0554666
0.0554703
0.0554734
0.0554777
0.0554798
0.0554854
0.0554811
0.0554811
0.0554811
1
0.518766
0.327403
0.25535
0.217851
0.194406
0.178215
0.166311
0.157162
0.149888
0.143943
0.138974
0.13474
0.131075
0.127859
0.125006
0.122449
0.12014
0.11804
0.116118
0.114352
0.112721
0.111209
0.109802
0.108489
0.107261
0.10611
0.105027
0.104008
0.103046
0.102138
0.10128
0.100468
0.099699
0.0989698
0.0982781
0.0976228
0.0970033
0.0964191
0.0958697
0.0953542
0.0948723
0.0944246
0.0940121
0.0936359
0.0932959
0.09299
0.0927146
0.0924649
0.0922366
0.0920266
0.0918334
0.0916566
0.0914964
0.0913525
0.0912238
0.0911081
0.0910029
0.0909055
0.0908143
0.0907285
0.0906482
0.0905744
0.0905082
0.0904508
0.0904028
0.0903643
0.0903349
0.0903135
0.0902989
0.0902898
0.090285
0.0902832
0.0902836
0.0902855
0.0902884
0.0902919
0.0902958
0.0902999
0.0903042
0.0903086
0.0903131
0.0903177
0.0903223
0.0903269
0.0903316
0.0903363
0.0903409
0.0903456
0.0903503
0.0903551
0.0903598
0.0903645
0.0903692
0.0903739
0.0903787
0.0903834
0.0903881
0.0903929
0.0903976
0.0904024
0.0904071
0.0904119
0.0904166
0.0904214
0.0904261
0.0904309
0.0904357
0.0904404
0.0904452
0.09045
0.0904548
0.0904595
0.0904643
0.0904691
0.0904739
0.0904787
0.0904835
0.0904883
0.0904931
0.0904979
0.0905027
0.0905075
0.0905123
0.0905172
0.090522
0.0905268
0.0905316
0.0905365
0.0905413
0.0905461
0.090551
0.0905558
0.0905607
0.0905655
0.0905704
0.0905752
0.0905801
0.0905849
0.0905898
0.0905947
0.0905995
0.0906044
0.0906093
0.0906142
0.0906191
0.0906239
0.0906288
0.0906337
0.0906386
0.0906435
0.0906484
0.0906533
0.0906582
0.0906631
0.0906681
0.090673
0.0906779
0.0906828
0.0906878
0.0906927
0.0906976
0.0907026
0.0907075
0.0907124
0.0907174
0.0907223
0.0907273
0.0907322
0.0907372
0.0907422
0.0907471
0.0907521
0.0907571
0.090762
0.090767
0.090772
0.090777
0.090782
0.0907869
0.0907919
0.0907969
0.0908019
0.0908069
0.0908119
0.090817
0.090822
0.090827
0.090832
0.090837
0.090842
0.0908471
0.0908521
0.0908571
0.0908622
0.0908672
0.0908723
0.0908773
0.0908824
0.0908874
0.0908925
0.0908975
0.0909026
0.0909077
0.0909127
0.0909178
0.0909229
0.090928
0.0909331
0.0909381
0.0909432
0.0909483
0.0909534
0.0909585
0.0909636
0.0909687
0.0909738
0.0909789
0.0909841
0.0909892
0.0909943
0.0909994
0.0910046
0.0910097
0.0910148
0.09102
0.0910251
0.0910302
0.0910354
0.0910405
0.0910457
0.0910509
0.091056
0.0910612
0.0910663
0.0910715
0.0910767
0.0910819
0.091087
0.0910922
0.0910974
0.0911026
0.0911078
0.091113
0.0911182
0.0911234
0.0911286
0.0911338
0.091139
0.0911442
0.0911495
0.0911547
0.0911599
0.0911651
0.0911704
0.0911756
0.0911808
0.0911861
0.0911913
0.0911966
0.0912018
0.0912071
0.0912123
0.0912176
0.0912228
0.0912281
0.0912334
0.0912386
0.0912439
0.0912492
0.0912545
0.0912598
0.0912651
0.0912703
0.0912756
0.0912809
0.0912862
0.0912915
0.0912968
0.0913021
0.0913075
0.0913128
0.0913181
0.0913234
0.0913287
0.0913341
0.0913394
0.0913447
0.0913501
0.0913554
0.0913608
0.0913661
0.0913715
0.0913768
0.0913822
0.0913875
0.0913929
0.0913982
0.0914036
0.091409
0.0914144
0.0914197
0.0914251
0.0914305
0.0914359
0.0914413
0.0914467
0.0914521
0.0914575
0.0914629
0.0914683
0.0914737
0.0914791
0.0914845
0.0914899
0.0914954
0.0915008
0.0915062
0.0915116
0.0915171
0.0915225
0.091528
0.0915334
0.0915389
0.0915443
0.0915498
0.0915552
0.0915607
0.0915661
0.0915716
0.0915771
0.0915826
0.091588
0.0915935
0.091599
0.0916045
0.09161
0.0916155
0.091621
0.0916265
0.091632
0.0916375
0.091643
0.0916485
0.091654
0.0916595
0.0916651
0.0916706
0.0916761
0.0916816
0.0916872
0.0916927
0.0916983
0.0917038
0.0917094
0.0917149
0.0917205
0.091726
0.0917316
0.0917372
0.0917427
0.0917483
0.0917539
0.0917595
0.091765
0.0917706
0.0917762
0.0917818
0.0917874
0.091793
0.0917986
0.0918043
0.0918098
0.0918155
0.0918211
0.0918267
0.0918323
0.091838
0.0918436
0.0918493
0.0918548
0.0918606
0.0918661
0.0918719
0.0918774
0.0918832
0.0918887
0.0918945
0.0919001
0.0919059
0.0919116
0.0919172
0.0919233
0.0919285
0.0919354
0.0919392
0.0919481
0.0919423
0.0919423
0.0919423
1
0.660888
0.446896
0.35288
0.302033
0.269854
0.247505
0.231023
0.218332
0.208231
0.199972
0.193066
0.187183
0.182091
0.177625
0.173663
0.170114
0.16691
0.163997
0.161333
0.158884
0.156623
0.154527
0.152578
0.150759
0.149059
0.147464
0.145965
0.144554
0.143223
0.141966
0.140779
0.139656
0.138592
0.137584
0.136629
0.135724
0.134869
0.134064
0.133307
0.132597
0.131935
0.131321
0.130756
0.130242
0.129777
0.129359
0.128982
0.128641
0.128328
0.128041
0.127777
0.127536
0.127318
0.127122
0.126946
0.126787
0.126643
0.126509
0.126384
0.126267
0.126159
0.12606
0.125971
0.125895
0.125832
0.125782
0.125744
0.125717
0.125698
0.125687
0.125682
0.12568
0.125681
0.125684
0.125688
0.125693
0.125699
0.125704
0.12571
0.125717
0.125723
0.125729
0.125736
0.125742
0.125748
0.125755
0.125761
0.125768
0.125775
0.125781
0.125788
0.125794
0.125801
0.125807
0.125814
0.125821
0.125827
0.125834
0.12584
0.125847
0.125854
0.12586
0.125867
0.125873
0.12588
0.125887
0.125893
0.1259
0.125906
0.125913
0.12592
0.125926
0.125933
0.12594
0.125946
0.125953
0.12596
0.125966
0.125973
0.12598
0.125986
0.125993
0.126
0.126007
0.126013
0.12602
0.126027
0.126033
0.12604
0.126047
0.126054
0.12606
0.126067
0.126074
0.126081
0.126087
0.126094
0.126101
0.126108
0.126114
0.126121
0.126128
0.126135
0.126141
0.126148
0.126155
0.126162
0.126169
0.126175
0.126182
0.126189
0.126196
0.126203
0.126209
0.126216
0.126223
0.12623
0.126237
0.126244
0.126251
0.126257
0.126264
0.126271
0.126278
0.126285
0.126292
0.126299
0.126306
0.126312
0.126319
0.126326
0.126333
0.12634
0.126347
0.126354
0.126361
0.126368
0.126375
0.126382
0.126388
0.126395
0.126402
0.126409
0.126416
0.126423
0.12643
0.126437
0.126444
0.126451
0.126458
0.126465
0.126472
0.126479
0.126486
0.126493
0.1265
0.126507
0.126514
0.126521
0.126528
0.126535
0.126542
0.126549
0.126556
0.126563
0.12657
0.126578
0.126585
0.126592
0.126599
0.126606
0.126613
0.12662
0.126627
0.126634
0.126641
0.126648
0.126655
0.126663
0.12667
0.126677
0.126684
0.126691
0.126698
0.126705
0.126712
0.12672
0.126727
0.126734
0.126741
0.126748
0.126755
0.126763
0.12677
0.126777
0.126784
0.126791
0.126799
0.126806
0.126813
0.12682
0.126827
0.126835
0.126842
0.126849
0.126856
0.126863
0.126871
0.126878
0.126885
0.126892
0.1269
0.126907
0.126914
0.126922
0.126929
0.126936
0.126943
0.126951
0.126958
0.126965
0.126973
0.12698
0.126987
0.126994
0.127002
0.127009
0.127016
0.127024
0.127031
0.127038
0.127046
0.127053
0.12706
0.127068
0.127075
0.127083
0.12709
0.127097
0.127105
0.127112
0.127119
0.127127
0.127134
0.127142
0.127149
0.127156
0.127164
0.127171
0.127179
0.127186
0.127194
0.127201
0.127208
0.127216
0.127223
0.127231
0.127238
0.127246
0.127253
0.127261
0.127268
0.127276
0.127283
0.127291
0.127298
0.127306
0.127313
0.127321
0.127328
0.127336
0.127343
0.127351
0.127358
0.127366
0.127373
0.127381
0.127388
0.127396
0.127403
0.127411
0.127419
0.127426
0.127434
0.127441
0.127449
0.127456
0.127464
0.127472
0.127479
0.127487
0.127494
0.127502
0.12751
0.127517
0.127525
0.127533
0.12754
0.127548
0.127555
0.127563
0.127571
0.127578
0.127586
0.127594
0.127601
0.127609
0.127617
0.127624
0.127632
0.12764
0.127647
0.127655
0.127663
0.127671
0.127678
0.127686
0.127694
0.127702
0.127709
0.127717
0.127725
0.127732
0.12774
0.127748
0.127756
0.127764
0.127771
0.127779
0.127787
0.127795
0.127802
0.12781
0.127818
0.127826
0.127834
0.127841
0.127849
0.127857
0.127865
0.127873
0.127881
0.127889
0.127896
0.127904
0.127912
0.12792
0.127928
0.127936
0.127944
0.127951
0.12796
0.127967
0.127977
0.127982
0.127994
0.127988
0.127988
0.127988
1
0.776803
0.557827
0.446881
0.384105
0.343748
0.315515
0.29461
0.278475
0.265613
0.255088
0.246285
0.238784
0.232293
0.2266
0.221551
0.21703
0.212949
0.20924
0.205849
0.202732
0.199855
0.197189
0.194709
0.192396
0.190233
0.188206
0.186301
0.184507
0.182815
0.181218