# vtk DataFile Version 2.0
FlowField
ASCII
DATASET STRUCTURED_GRID
DIMENSIONS 400 1 200
POINTS 80000 float
0 0 0
0.08 0 0
0.16 0 0
0.24 0 0
0.32 0 0
0.4 0 0
0.48 0 0
0.56 0 0
0.64 0 0
0.72 0 0
0.8 0 0
0.88 0 0
0.96 0 0
1.04 0 0
1.12 0 0
1.2 0 0
1.28 0 0
1.36 0 0
1.44 0 0
1.52 0 0
1.6 0 0
1.68 0 0
1.76 0 0
1.84 0 0
1.92 0 0
2 0 0
2.08 0 0
2.16 0 0
2.24 0 0
2.32 0 0
2.4 0 0
2.48 0 0
2.56 0 0
2.64 0 0
2.72 0 0
2.8 0 0
2.88 0 0
2.96 0 0
3.04 0 0
3.12 0 0
3.2 0 0
3.28 0 0
3.36 0 0
3.44 0 0
3.52 0 0
3.6 0 0
3.68 0 0
3.76 0 0
3.84 0 0
3.92 0 0
4 0 0
4.08 0 0
4.16 0 0
4.24 0 0
4.32 0 0
4.4 0 0
4.48 0 0
4.56 0 0
4.64 0 0
4.72 0 0
4.8 0 0
4.88 0 0
4.96 0 0
5.04 0 0
5.12 0 0
5.2 0 0
5.28 0 0
5.36 0 0
5.44 0 0
5.52 0 0
5.6 0 0
5.68 0 0
5.76 0 0
5.84 0 0
5.92 0 0
6 0 0
6.08 0 0
6.16 0 0
6.24 0 0
6.32 0 0
6.4 0 0
6.48 0 0
6.56 0 0
6.64 0 0
6.72 0 0
6.8 0 0
6.88 0 0
6.96 0 0
7.04 0 0
7.12 0 0
7.2 0 0
7.28 0 0
7.36 0 0
7.44 0 0
7.52 0 0
7.6 0 0
7.68 0 0
7.76 0 0
7.84 0 0
7.92 0 0
8 0 0
8.08 0 0
8.16 0 0
8.24 0 0
8.32 0 0
8.4 0 0
8.48 0 0
8.56 0 0
8.64 0 0
8.72 0 0
8.8 0 0
8.88 0 0
8.96 0 0
9.04 0 0
9.12 0 0
9.2 0 0
9.28 0 0
9.36 0 0
9.44 0 0
9.52 0 0
9.6 0 0
9.68 0 0
9.76 0 0
9.84 0 0
9.92 0 0
10 0 0
10.08 0 0
10.16 0 0
10.24 0 0
10.32 0 0
10.4 0 0
10.48 0 0
10.56 0 0
10.64 0 0
10.72 0 0
10.8 0 0
10.88 0 0
10.96 0 0
11.04 0 0
11.12 0 0
11.2 0 0
11.28 0 0
11.36 0 0
11.44 0 0
11.52 0 0
11.6 0 0
11.68 0 0
11.76 0 0
11.84 0 0
11.92 0 0
12 0 0
12.08 0 0
12.16 0 0
12.24 0 0
12.32 0 0
12.4 0 0
12.48 0 0
12.56 0 0
12.64 0 0
12.72 0 0
12.8 0 0
12.88 0 0
12.96 0 0
13.04 0 0
13.12 0 0
13.2 0 0
13.28 0 0
13.36 0 0
13.44 0 0
13.52 0 0
13.6 0 0
13.68 0 0
13.76 0 0
13.84 0 0
13.92 0 0
14 0 0
14.08 0 0
14.16 0 0
14.24 0 0
14.32 0 0
14.4 0 0
14.48 0 0
14.56 0 0
14.64 0 0
14.72 0 0
14.8 0 0
14.88 0 0
14.96 0 0
15.04 0 0
15.12 0 0
15.2 0 0
15.28 0 0
15.36 0 0
15.44 0 0
15.52 0 0
15.6 0 0
15.68 0 0
15.76 0 0
15.84 0 0
15.92 0 0
16 0 0
16.08 0 0
16.16 0 0
16.24 0 0
16.32 0 0
16.4 0 0
16.48 0 0
16.56 0 0
16.64 0 0
16.72 0 0
16.8 0 0
16.88 0 0
16.96 0 0
17.04 0 0
17.12 0 0
17.2 0 0
17.28 0 0
17.36 0 0
17.44 0 0
17.52 0 0
17.6 0 0
17.68 0 0
17.76 0 0
17.84 0 0
17.92 0 0
18 0 0
18.08 0 0
18.16 0 0
18.24 0 0
18.32 0 0
18.4 0 0
18.48 0 0
18.56 0 0
18.64 0 0
18.72 0 0
18.8 0 0
18.88 0 0
18.96 0 0
19.04 0 0
19.12 0 0
19.2 0 0
19.28 0 0
19.36 0 0
19.44 0 0
19.52 0 0
19.6 0 0
19.68 0 0
19.76 0 0
19.84 0 0
19.92 0 0
20 0 0
20.08 0 0
20.16 0 0
20.24 0 0
20.32 0 0
20.4 0 0
20.48 0 0
20.56 0 0
20.64 0 0
20.72 0 0
20.8 0 0
20.88 0 0
20.96 0 0
21.04 0 0
21.12 0 0
21.2 0 0
21.28 0 0
21.36 0 0
21.44 0 0
21.52 0 0
21.6 0 0
21.68 0 0
21.76 0 0
21.84 0 0
21.92 0 0
22 0 0
22.08 0 0
22.16 0 0
22.24 0 0
22.32 0 0
22.4 0 0
22.48 0 0
22.56 0 0
22.64 0 0
22.72 0 0
22.8 0 0
22.88 0 0
22.96 0 0
23.04 0 0
23.12 0 0
23.2 0 0
23.28 0 0
23.36 0 0
23.44 0 0
23.52 0 0
23.6 0 0
23.68 0 0
23.76 0 0
23.84 0 0
23.92 0 0
24 0 0
24.08 0 0
24.16 0 0
24.24 0 0
24.32 0 0
24.4 0 0
24.48 0 0
24.56 0 0
24.64 0 0
24.72 0 0
24.8 0 0
24.88 0 0
24.96 0 0
25.04 0 0
25.12 0 0
25.2 0 0
25.28 0 0
25.36 0 0
25.44 0 0
25.52 0 0
25.6 0 0
25.68 0 0
25.76 0 0
25.84 0 0
25.92 0 0
26 0 0
26.08 0 0
26.16 0 0
26.24 0 0
26.32 0 0
26.4 0 0
26.48 0 0
26.56 0 0
26.64 0 0
26.72 0 0
26.8 0 0
26.88 0 0
26.96 0 0
27.04 0 0
27.12 0 0
27.2 0 0
27.28 0 0
27.36 0 0
27.44 0 0
27.52 0 0
27.6 0 0
27.68 0 0
27.76 0 0
27.84 0 0
27.92 0 0
28 0 0
28.08 0 0
28.16 0 0
28.24 0 0
28.32 0 0
28.4 0 0
28.48 0 0
28.56 0 0
28.64 0 0
28.72 0 0
28.8 0 0
28.88 0 0
28.96 0 0
29.04 0 0
29.12 0 0
29.2 0 0
29.28 0 0
29.36 0 0
29.44 0 0
29.52 0 0
29.6 0 0
29.68 0 0
29.76 0 0
29.84 0 0
29.92 0 0
30 0 0
30.08 0 0
30.16 0 0
30.24 0 0
30.32 0 0
30.4 0 0
30.48 0 0
30.56 0 0
30.64 0 0
30.72 0 0
30.8 0 0
30.88 0 0
30.96 0 0
31.04 0 0
31.12 0 0
31.2 0 0
31.28 0 0
31.36 0 0
31.44 0 0
31.52 0 0
31.6 0 0
31.68 0 0
31.76 0 0
31.84 0 0
31.92 0 0
0 0.005 0
0.08 0.005 0
0.16 0.005 0
0.24 0.005 0
0.32 0.005 0
0.4 0.005 0
0.48 0.005 0
0.56 0.005 0
0.64 0.005 0
0.72 0.005 0
0.8 0.005 0
0.88 0.005 0
0.96 0.005 0
1.04 0.005 0
1.12 0.005 0
1.2 0.005 0
1.28 0.005 0
1.36 0.005 0
1.44 0.005 0
1.52 0.005 0
1.6 0.005 0
1.68 0.005 0
1.76 0.005 0
1.84 0.005 0
1.92 0.005 0
2 0.005 0
2.08 0.005 0
2.16 0.005 0
2.24 0.005 0
2.32 0.005 0
2.4 0.005 0
2.48 0.005 0
2.56 0.005 0
2.64 0.005 0
2.72 0.005 0
2.8 0.005 0
2.88 0.005 0
2.96 0.005 0
3.04 0.005 0
3.12 0.005 0
3.2 0.005 0
3.28 0.005 0
3.36 0.005 0
3.44 0.005 0
3.52 0.005 0
3.6 0.005 0
3.68 0.005 0
3.76 0.005 0
3.84 0.005 0
3.92 0.005 0
4 0.005 0
4.08 0.005 0
4.16 0.005 0
4.24 0.005 0
4.32 0.005 0
4.4 0.005 0
4.48 0.005 0
4.56 0.005 0
4.64 0.005 0
4.72 0.005 0
4.8 0.005 0
4.88 0.005 0
4.96 0.005 0
5.04 0.005 0
5.12 0.005 0
5.2 0.005 0
5.28 0.005 0
5.36 0.005 0
5.44 0.005 0
5.52 0.005 0
5.6 0.005 0
5.68 0.005 0
5.76 0.005 0
5.84 0.005 0
5.92 0.005 0
6 0.005 0
6.08 0.005 0
6.16 0.005 0
6.24 0.005 0
6.32 0.005 0
6.4 0.005 0
6.48 0.005 0
6.56 0.005 0
6.64 0.005 0
6.72 0.005 0
6.8 0.005 0
6.88 0.005 0
6.96 0.005 0
7.04 0.005 0
7.12 0.005 0
7.2 0.005 0
7.28 0.005 0
7.36 0.005 0
7.44 0.005 0
7.52 0.005 0
7.6 0.005 0
7.68 0.005 0
7.76 0.005 0
7.84 0.005 0
7.92 0.005 0
8 0.005 0
8.08 0.005 0
8.16 0.005 0
8.24 0.005 0
8.32 0.005 0
8.4 0.005 0
8.48 0.005 0
8.56 0.005 0
8.64 0.005 0
8.72 0.005 0
8.8 0.005 0
8.88 0.005 0
8.96 0.005 0
9.04 0.005 0
9.12 0.005 0
9.2 0.005 0
9.28 0.005 0
9.36 0.005 0
9.44 0.005 0
9.52 0.005 0
9.6 0.005 0
9.68 0.005 0
9.76 0.005 0
9.84 0.005 0
9.92 0.005 0
10 0.005 0
10.08 0.005 0
10.16 0.005 0
10.24 0.005 0
10.32 0.005 0
10.4 0.005 0
10.48 0.005 0
10.56 0.005 0
10.64 0.005 0
10.72 0.005 0
10.8 0.005 0
10.88 0.005 0
10.96 0.005 0
11.04 0.005 0
11.12 0.005 0
11.2 0.005 0
11.28 0.005 0
11.36 0.005 0
11.44 0.005 0
11.52 0.005 0
11.6 0.005 0
11.68 0.005 0
11.76 0.005 0
11.84 0.005 0
11.92 0.005 0
12 0.005 0
12.08 0.005 0
12.16 0.005 0
12.24 0.005 0
12.32 0.005 0
12.4 0.005 0
12.48 0.005 0
12.56 0.005 0
12.64 0.005 0
12.72 0.005 0
12.8 0.005 0
12.88 0.005 0
12.96 0.005 0
13.04 0.005 0
13.12 0.005 0
13.2 0.005 0
13.28 0.005 0
13.36 0.005 0
13.44 0.005 0
13.52 0.005 0
13.6 0.005 0
13.68 0.005 0
13.76 0.005 0
13.84 0.005 0
13.92 0.005 0
14 0.005 0
14.08 0.005 0
14.16 0.005 0
14.24 0.005 0
14.32 0.005 0
14.4 0.005 0
14.48 0.005 0
14.56 0.005 0
14.64 0.005 0
14.72 0.005 0
14.8 0.005 0
14.88 0.005 0
14.96 0.005 0
15.04 0.005 0
15.12 0.005 0
15.2 0.005 0
15.28 0.005 0
15.36 0.005 0
15.44 0.005 0
15.52 0.005 0
15.6 0.005 0
15.68 0.005 0
15.76 0.005 0
15.84 0.005 0
15.92 0.005 0
16 0.005 0
16.08 0.005 0
16.16 0.005 0
16.24 0.005 0
16.32 0.005 0
16.4 0.005 0
16.48 0.005 0
16.56 0.005 0
16.64 0.005 0
16.72 0.005 0
16.8 0.005 0
16.88 0.005 0
16.96 0.005 0
17.04 0.005 0
17.12 0.005 0
17.2 0.005 0
17.28 0.005 0
17.36 0.005 0
17.44 0.005 0
17.52 0.005 0
17.6 0.005 0
17.68 0.005 0
17.76 0.005 0
17.84 0.005 0
17.92 0.005 0
18 0.005 0
18.08 0.005 0
18.16 0.005 0
18.24 0.005 0
18.32 0.005 0
18.4 0.005 0
18.48 0.005 0
18.56 0.005 0
18.64 0.005 0
18.72 0.005 0
18.8 0.005 0
18.88 0.005 0
18.96 0.005 0
19.04 0.005 0
19.12 0.005 0
19.2 0.005 0
19.28 0.005 0
19.36 0.005 0
19.44 0.005 0
19.52 0.005 0
19.6 0.005 0
19.68 0.005 0
19.76 0.005 0
19.84 0.005 0
19.92 0.005 0
20 0.005 0
20.08 0.005 0
20.16 0.005 0
20.24 0.005 0
20.32 0.005 0
20.4 0.005 0
20.48 0.005 0
20.56 0.005 0
20.64 0.005 0
20.72 0.005 0
20.8 0.005 0
20.88 0.005 0
20.96 0.005 0
21.04 0.005 0
21.12 0.005 0
21.2 0.005 0
21.28 0.005 0
21.36 0.005 0
21.44 0.005 0
21.52 0.005 0
21.6 0.005 0
21.68 0.005 0
21.76 0.005 0
21.84 0.005 0
21.92 0.005 0
22 0.005 0
22.08 0.005 0
22.16 0.005 0
22.24 0.005 0
22.32 0.005 0
22.4 0.005 0
22.48 0.005 0
22.56 0.005 0
22.64 0.005 0
22.72 0.005 0
22.8 0.005 0
22.88 0.005 0
22.96 0.005 0
23.04 0.005 0
23.12 0.005 0
23.2 0.005 0
23.28 0.005 0
23.36 0.005 0
23.44 0.005 0
23.52 0.005 0
23.6 0.005 0
23.68 0.005 0
23.76 0.005 0
23.84 0.005 0
23.92 0.005 0
24 0.005 0
24.08 0.005 0
24.16 0.005 0
24.24 0.005 0
24.32 0.005 0
24.4 0.005 0
24.48 0.005 0
24.56 0.005 0
24.64 0.005 0
24.72 0.005 0
24.8 0.005 0
24.88 0.005 0
24.96 0.005 0
25.04 0.005 0
25.12 0.005 0
25.2 0.005 0
25.28 0.005 0
25.36 0.005 0
25.44 0.005 0
25.52 0.005 0
25.6 0.005 0
25.68 0.005 0
25.76 0.005 0
25.84 0.005 0
25.92 0.005 0
26 0.005 0
26.08 0.005 0
26.16 0.005 0
26.24 0.005 0
26.32 0.005 0
26.4 0.005 0
26.48 0.005 0
26.56 0.005 0
26.64 0.005 0
26.72 0.005 0
26.8 0.005 0
26.88 0.005 0
26.96 0.005 0
27.04 0.005 0
27.12 0.005 0
27.2 0.005 0
27.28 0.005 0
27.36 0.005 0
27.44 0.005 0
27.52 0.005 0
27.6 0.005 0
27.68 0.005 0
27.76 0.005 0
27.84 0.005 0
27.92 0.005 0
28 0.005 0
28.08 0.005 0
28.16 0.005 0
28.24 0.005 0
28.32 0.005 0
28.4 0.005 0
28.48 0.005 0
28.56 0.005 0
28.64 0.005 0
28.72 0.005 0
28.8 0.005 0
28.88 0.005 0
28.96 0.005 0
29.04 0.005 0
29.12 0.005 0
29.2 0.005 0
29.28 0.005 0
29.36 0.005 0
29.44 0.005 0
29.52 0.005 0
29.6 0.005 0
29.68 0.005 0
29.76 0.005 0
29.84 0.005 0
29.92 0.005 0
30 0.005 0
30.08 0.005 0
30.16 0.005 0
30.24 0.005 0
30.32 0.005 0
30.4 0.005 0
30.48 0.005 0
30.56 0.005 0
30.64 0.005 0
30.72 0.005 0
30.8 0.005 0
30.88 0.005 0
30.96 0.005 0
31.04 0.005 0
31.12 0.005 0
31.2 0.005 0
31.28 0.005 0
31.36 0.005 0
31.44 0.005 0
31.52 0.005 0
31.6 0.005 0
31.68 0.005 0
31.76 0.005 0
31.84 0.005 0
31.92 0.005 0
0 0.01 0
0.08 0.01 0
0.16 0.01 0
0.24 0.01 0
0.32 0.01 0
0.4 0.01 0
0.48 0.01 0
0.56 0.01 0
0.64 0.01 0
0.72 0.01 0
0.8 0.01 0
0.88 0.01 0
0.96 0.01 0
1.04 0.01 0
1.12 0.01 0
1.2 0.01 0
1.28 0.01 0
1.36 0.01 0
1.44 0.01 0
1.52 0.01 0
1.6 0.01 0
1.68 0.01 0
1.76 0.01 0
1.84 0.01 0
1.92 0.01 0
2 0.01 0
2.08 0.01 0
2.16 0.01 0
2.24 0.01 0
2.32 0.01 0
2.4 0.01 0
2.48 0.01 0
2.56 0.01 0
2.64 0.01 0
2.72 0.01 0
2.8 0.01 0
2.88 0.01 0
2.96 0.01 0
3.04 0.01 0
3.12 0.01 0
3.2 0.01 0
3.28 0.01 0
3.36 0.01 0
3.44 0.01 0
3.52 0.01 0
3.6 0.01 0
3.68 0.01 0
3.76 0.01 0
3.84 0.01 0
3.92 0.01 0
4 0.01 0
4.08 0.01 0
4.16 0.01 0
4.24 0.01 0
4.32 0.01 0
4.4 0.01 0
4.48 0.01 0
4.56 0.01 0
4.64 0.01 0
4.72 0.01 0
4.8 0.01 0
4.88 0.01 0
4.96 0.01 0
5.04 0.01 0
5.12 0.01 0
[...]
POINT_DATA 80000

SCALARS u float 1
LOOKUP_TABLE default
0
-0.131767
-0.0726531
-0.0634581
-0.0616858
-0.0613776
-0.0613627
-0.0614368
-0.0615575
-0.0617064
-0.0618725
-0.0620492
-0.0622324
-0.0624198
-0.0626105
-0.0628036
-0.062999
-0.0631964
-0.063396
-0.0635975
-0.0638012
-0.064007
-0.064215
-0.0644252
-0.0646377
-0.0648525
-0.0650697
-0.0652892
-0.0655112
-0.0657357
-0.0659628
-0.0661925
-0.0664248
-0.0666598
-0.0668975
-0.0671381
-0.0673815
-0.0676278
-0.0678771
-0.0681294
-0.0683849
-0.0686435
-0.0689053
-0.0691704
-0.0694389
-0.0697109
-0.0699864
-0.0702655
-0.0705484
-0.070835
-0.0711255
-0.07142
-0.0717186
-0.0720215
-0.0723286
-0.0726402
-0.0729563
-0.0732771
-0.0736027
-0.0739333
-0.074269
-0.0746098
-0.0749561
-0.0753078
-0.0756652
-0.0760285
-0.0763977
-0.076773
-0.0771546
-0.0775427
-0.0779375
-0.078339
-0.0787475
-0.0791632
-0.0795862
-0.0800168
-0.0804552
-0.0809015
-0.0813561
-0.081819
-0.0822906
-0.0827712
-0.0832609
-0.0837601
-0.0842692
-0.0847883
-0.0853179
-0.0858583
-0.08641
-0.0869733
-0.0875487
-0.0881367
-0.0887378
-0.0893526
-0.0899815
-0.0906253
-0.0912846
-0.09196
-0.0926524
-0.0933625
-0.0940911
-0.0948391
-0.0956074
-0.096397
-0.097209
-0.0980445
-0.0989047
-0.0997909
-0.100704
-0.101647
-0.10262
-0.103626
-0.104666
-0.105742
-0.106857
-0.108014
-0.109216
-0.110465
-0.111766
-0.113122
-0.114538
-0.116019
-0.117571
-0.119199
-0.120911
-0.122713
-0.124614
-0.126622
-0.128746
-0.130995
-0.133378
-0.135905
-0.138584
-0.141424
-0.14443
-0.147607
-0.150957
-0.154477
-0.158161
-0.161999
-0.165971
-0.170055
-0.174217
-0.178419
-0.18261
-0.186734
-0.190726
-0.194512
-0.198012
-0.201141
-0.203813
-0.205938
-0.20743
-0.208208
-0.208199
-0.207341
-0.205587
-0.202906
-0.199285
-0.194733
-0.189278
-0.182969
-0.175874
-0.168078
-0.159681
-0.150795
-0.141537
-0.132032
-0.122401
-0.112766
-0.103238
-0.093922
-0.084909
-0.0762779
-0.0680934
-0.0604053
-0.0532494
-0.0466478
-0.0406097
-0.0351333
-0.0302069
-0.0258107
-0.0219183
-0.0184985
-0.0155165
-0.0129356
-0.0107183
-0.00882696
-0.00722528
-0.00587841
-0.00475374
-0.00382107
-0.00305293
-0.00242457
-0.00191402
-0.00150195
-0.00117159
-0.000908453
-0.000700247
-0.00053656
-0.000408716
-0.000309491
-0.000232982
-0.000174347
-0.000129706
-9.59143e-05
-7.05071e-05
-5.15036e-05
-3.73881e-05
-2.69474e-05
-1.92806e-05
-1.36627e-05
-9.57702e-06
-6.5987e-06
-4.44369e-06
-2.86564e-06
-1.71683e-06
-8.54113e-07
-2.07344e-07
3.08645e-07
7.20937e-07
1.08288e-06
1.39812e-06
1.7028e-06
1.98794e-06
2.28039e-06
2.56433e-06
2.86152e-06
3.15238e-06
3.45585e-06
3.75023e-06
4.05295e-06
4.34122e-06
4.63174e-06
4.90136e-06
5.1667e-06
5.40477e-06
5.6326e-06
5.82782e-06
6.00825e-06
6.15245e-06
6.27925e-06
6.36829e-06
6.43953e-06
6.47367e-06
6.49168e-06
6.4752e-06
6.44601e-06
6.38639e-06
6.31864e-06
6.22537e-06
6.12907e-06
6.01239e-06
5.89768e-06
5.76739e-06
5.64352e-06
5.50813e-06
5.38275e-06
5.24895e-06
5.12777e-06
5.00027e-06
4.88704e-06
4.76872e-06
4.66549e-06
4.55765e-06
4.46512e-06
4.36795e-06
4.28587e-06
4.19879e-06
4.12633e-06
4.04834e-06
3.98441e-06
3.91435e-06
3.85777e-06
3.7945e-06
3.74416e-06
3.68662e-06
3.64154e-06
3.58882e-06
3.54816e-06
3.4995e-06
3.46259e-06
3.41739e-06
3.38367e-06
3.34144e-06
3.3105e-06
3.27086e-06
3.24235e-06
3.20502e-06
3.17869e-06
3.14342e-06
3.11906e-06
3.08567e-06
3.06311e-06
3.03145e-06
3.01054e-06
2.98046e-06
2.96106e-06
2.93242e-06
2.9144e-06
2.88707e-06
2.87028e-06
2.84412e-06
2.82843e-06
2.8033e-06
2.78859e-06
2.76436e-06
2.75048e-06
2.72705e-06
2.7139e-06
2.69115e-06
2.67864e-06
2.65648e-06
2.64454e-06
2.62292e-06
2.6115e-06
2.59037e-06
2.57943e-06
2.55878e-06
2.5483e-06
2.52812e-06
2.51811e-06
2.49839e-06
2.48886e-06
2.46963e-06
2.46058e-06
2.44184e-06
2.43329e-06
2.41506e-06
2.40702e-06
2.38929e-06
2.38176e-06
2.36454e-06
2.35752e-06
2.3408e-06
2.33427e-06
2.31804e-06
2.31198e-06
2.29621e-06
2.29061e-06
2.27528e-06
2.27009e-06
2.25516e-06
2.25037e-06
2.23581e-06
2.23137e-06
2.21715e-06
2.21302e-06
2.19911e-06
2.19527e-06
2.18162e-06
2.17804e-06
2.16463e-06
2.16128e-06
2.14808e-06
2.14493e-06
2.13193e-06
2.12896e-06
2.11613e-06
2.11332e-06
2.10065e-06
2.098e-06
2.08547e-06
2.08295e-06
2.07056e-06
2.06817e-06
2.0559e-06
2.05364e-06
2.04149e-06
2.03935e-06
2.02733e-06
2.0253e-06
2.01339e-06
2.01148e-06
1.99969e-06
1.9979e-06
1.98622e-06
1.98455e-06
1.97299e-06
1.97144e-06
1.96001e-06
1.95858e-06
1.94728e-06
1.94598e-06
1.93482e-06
1.93367e-06
1.92265e-06
1.92164e-06
1.91076e-06
1.90988e-06
1.89908e-06
1.8982e-06
1.88724e-06
1.88588e-06
1.87381e-06
1.87009e-06
1.85391e-06
1.8492e-06
1.8492e-06
1.8492e-06
1
0.131767
0.0726531
0.0634581
0.0616858
0.0613776
0.0613627
0.0614368
0.0615575
0.0617064
0.0618725
0.0620492
0.0622324
0.0624198
0.0626105
0.0628036
0.062999
0.0631964
0.063396
0.0635975
0.0638012
0.064007
0.064215
0.0644252
0.0646377
0.0648525
0.0650697
0.0652892
0.0655112
0.0657357
0.0659628
0.0661925
0.0664248
0.0666598
0.0668975
0.0671381
0.0673815
0.0676278
0.0678771
0.0681294
0.0683849
0.0686435
0.0689053
0.0691704
0.0694389
0.0697109
0.0699864
0.0702655
0.0705484
0.070835
0.0711255
0.07142
0.0717186
0.0720215
0.0723286
0.0726402
0.0729563
0.0732771
0.0736027
0.0739333
0.074269
0.0746098
0.0749561
0.0753078
0.0756652
0.0760285
0.0763977
0.076773
0.0771546
0.0775427
0.0779375
0.078339
0.0787475
0.0791632
0.0795862
0.0800168
0.0804552
0.0809015
0.0813561
0.081819
0.0822906
0.0827712
0.0832609
0.0837601
0.0842692
0.0847883
0.0853179
0.0858583
0.08641
0.0869733
0.0875487
0.0881367
0.0887378
0.0893526
0.0899815
0.0906253
0.0912846
0.09196
0.0926524
0.0933625
0.0940911
0.0948391
0.0956074
0.096397
0.097209
0.0980445
0.0989047
0.0997909
0.100704
0.101647
0.10262
0.103626
0.104666
0.105742
0.106857
0.108014
0.109216
0.110465
0.111766
0.113122
0.114538
0.116019
0.117571
0.119199
0.120911
0.122713
0.124614
0.126622
0.128746
0.130995
0.133378
0.135905
0.138584
0.141424
0.14443
0.147607
0.150957
0.154477
0.158161
0.161999
0.165971
0.170055
0.174217
0.178419
0.18261
0.186734
0.190726
0.194512
0.198012
0.201141
0.203813
0.205938
0.20743
0.208208
0.208199
0.207341
0.205587
0.202906
0.199285
0.194733
0.189278
0.182969
0.175874
0.168078
0.159681
0.150795
0.141537
0.132032
0.122401
0.112766
0.103238
0.093922
0.084909
0.0762779
0.0680934
0.0604053
0.0532494
0.0466478
0.0406097
0.0351333
0.0302069
0.0258107
0.0219183
0.0184985
0.0155165
0.0129356
0.0107183
0.00882696
0.00722528
0.00587841
0.00475374
0.00382107
0.00305293
0.00242457
0.00191402
0.00150195
0.00117159
0.000908453
0.000700247
0.00053656
0.000408716
0.000309491
0.000232982
0.000174347
0.000129706
9.59143e-05
7.05071e-05
5.15036e-05
3.73881e-05
2.69474e-05
1.92806e-05
1.36627e-05
9.57702e-06
6.5987e-06
4.44369e-06
2.86564e-06
1.71683e-06
8.54113e-07
2.07344e-07
-3.08645e-07
-7.20937e-07
-1.08288e-06
-1.39812e-06
-1.7028e-06
-1.98794e-06
-2.28039e-06
-2.56433e-06
-2.86152e-06
-3.15238e-06
-3.45585e-06
-3.75023e-06
-4.05295e-06
-4.34122e-06
-4.63174e-06
-4.90136e-06
-5.1667e-06
-5.40477e-06
-5.6326e-06
-5.82782e-06
-6.00825e-06
-6.15245e-06
-6.27925e-06
-6.36829e-06
-6.43953e-06
-6.47367e-06
-6.49168e-06
-6.4752e-06
-6.44601e-06
-6.38639e-06
-6.31864e-06
-6.22537e-06
-6.12907e-06
-6.01239e-06
-5.89768e-06
-5.76739e-06
-5.64352e-06
-5.50813e-06
-5.38275e-06
-5.24895e-06
-5.12777e-06
-5.00027e-06
-4.88704e-06
-4.76872e-06
-4.66549e-06
-4.55765e-06
-4.46512e-06
-4.36795e-06
-4.28587e-06
-4.19879e-06
-4.12633e-06
-4.04834e-06
-3.98441e-06
-3.91435e-06
-3.85777e-06
-3.7945e-06
-3.74416e-06
-3.68662e-06
-3.64154e-06
-3.58882e-06
-3.54816e-06
-3.4995e-06
-3.46259e-06
-3.41739e-06
-3.38367e-06
-3.34144e-06
-3.3105e-06
-3.27086e-06
-3.24235e-06
-3.20502e-06
-3.17869e-06
-3.14342e-06
-3.11906e-06
-3.08567e-06
-3.06311e-06
-3.03145e-06
-3.01054e-06
-2.98046e-06
-2.96106e-06
-2.93242e-06
-2.9144e-06
-2.88707e-06
-2.87028e-06
-2.84412e-06
-2.82843e-06
-2.8033e-06
-2.78859e-06
-2.76436e-06
-2.75048e-06
-2.72705e-06
-2.7139e-06
-2.69115e-06
-2.67864e-06
-2.65648e-06
-2.64454e-06
-2.62292e-06
-2.6115e-06
-2.59037e-06
-2.57943e-06
-2.55878e-06
-2.5483e-06
-2.52812e-06
-2.51811e-06
-2.49839e-06
-2.48886e-06
-2.46963e-06
-2.46058e-06
-2.44184e-06
-2.43329e-06
-2.41506e-06
-2.40702e-06
-2.38929e-06
-2.38176e-06
-2.36454e-06
-2.35752e-06
-2.3408e-06
-2.33427e-06
-2.31804e-06
-2.31198e-06
-2.29621e-06
-2.29061e-06
-2.27528e-06
-2.27009e-06
-2.25516e-06
-2.25037e-06
-2.23581e-06
-2.23137e-06
-2.21715e-06
-2.21302e-06
-2.19911e-06
-2.19527e-06
-2.18162e-06
-2.17804e-06
-2.16463e-06
-2.16128e-06
-2.14808e-06
-2.14493e-06
-2.13193e-06
-2.12896e-06
-2.11613e-06
-2.11332e-06
-2.10065e-06
-2.098e-06
-2.08547e-06
-2.08295e-06
-2.07056e-06
-2.06817e-06
-2.0559e-06
-2.05364e-06
-2.04149e-06
-2.03935e-06
-2.02733e-06
-2.0253e-06
-2.01339e-06
-2.01148e-06
-1.99969e-06
-1.9979e-06
-1.98622e-06
-1.98455e-06
-1.97299e-06
-1.97144e-06
-1.96001e-06
-1.95858e-06
-1.94728e-06
-1.94598e-06
-1.93482e-06
-1.93367e-06
-1.92265e-06
-1.92164e-06
-1.91076e-06
-1.90988e-06
-1.89908e-06
-1.8982e-06
-1.88724e-06
-1.88588e-06
-1.87381e-06
-1.87009e-06
-1.85391e-06
-1.8492e-06
-1.8492e-06
-1.8492e-06
1
0.345367
0.2142
0.188474
0.183138
0.182043
0.181889
0.182047
0.182367
0.182783
0.183255
0.183762
0.18429
0.184832
0.185384
0.185944
0.18651
0.187083
0.187661
0.188246
0.188837
0.189433
0.190036
0.190646
0.191261
0.191884
0.192513
0.193149
0.193792
0.194442
0.1951
0.195765
0.196437
0.197117
0.197805
0.198501
0.199206
0.199918
0.200639
0.201369
0.202107
0.202855
0.203612
0.204378
0.205154
0.20594
0.206736
0.207542
0.208359
0.209186
0.210025
0.210875
0.211736
0.21261
0.213495
0.214393
0.215304
0.216228
0.217166
0.218117
0.219082
0.220062
0.221056
0.222066
0.223092
0.224133
0.225191
0.226266
0.227358
0.228467
0.229595
0.230742
0.231907
0.233092
0.234297
0.235523
0.23677
0.238039
0.23933
0.240645
0.241983
0.243345
0.244733
0.246147
0.247588
0.249057
0.250554
0.252081
0.253639
0.255229
0.256851
0.258509
0.260202
0.261931
0.2637
0.265508
0.267359
0.269253
0.271192
0.273178
0.275213
0.2773
0.27944
0.281637
0.283892
0.286209
0.28859
0.291038
0.293557
0.29615
0.298822
0.301577
0.304418
0.307351
0.310382
0.313515
0.316758
0.320117
0.323599
0.327213
0.330966
0.334867
0.338926
0.343153
0.347557
0.352149
0.356939
0.361935
0.367148
0.372583
0.378246
0.384138
0.390259
0.396601
0.403152
0.409892
0.416795
0.423823
0.430927
0.438049
0.445115
0.45204
0.458726
0.46506
0.470918
0.476165
0.480656
0.484243
0.486774
0.488096
0.488066
0.486552
0.483435
0.47862
0.472038
0.46365
0.453449
0.441466
0.427767
0.412455
0.395668
0.377573
0.358367
0.338265
0.317499
0.296308
0.274933
0.253608
0.232557
0.211987
0.192082
0.173003
0.154882
0.137823
0.121904
0.107174
0.0936555
0.0813492
0.0702348
0.0602745
0.0514163
0.0435971
0.0367459
0.0307863
0.0256396
0.021226
0.0174678
0.0142897
0.0116206
0.00939409
0.00754936
0.00603109
0.00478982
0.00378164
0.00296818
0.00231603
0.00179663
0.00138556
0.00106234
0.000809764
0.000613678
0.000462358
0.000346352
0.000257927
0.000190979
0.000140559
0.000102855
7.47839e-05
5.40452e-05
3.87665e-05
2.76074e-05
1.9453e-05
1.35545e-05
9.25545e-06
6.15976e-06
3.88005e-06
2.22429e-06
9.58465e-07
5.18682e-09
-7.84441e-07
-1.42493e-06
-2.01896e-06
-2.54713e-06
-3.08728e-06
-3.60181e-06
-4.15509e-06
-4.69948e-06
-5.29182e-06
-5.87869e-06
-6.5124e-06
-7.13601e-06
-7.79904e-06
-8.44234e-06
-9.11378e-06
-9.753e-06
-1.04071e-05
-1.10155e-05
-1.16254e-05
-1.21766e-05
-1.27172e-05
-1.31883e-05
-1.36396e-05
-1.40137e-05
-1.43621e-05
-1.46296e-05
-1.48698e-05
-1.50293e-05
-1.51635e-05
-1.52209e-05
-1.52583e-05
-1.52254e-05
-1.51802e-05
-1.5073e-05
-1.49623e-05
-1.47985e-05
-1.46401e-05
-1.44374e-05
-1.42482e-05
-1.40224e-05
-1.38172e-05
-1.35815e-05
-1.33717e-05
-1.31362e-05
-1.29305e-05
-1.27022e-05
-1.25062e-05
-1.22895e-05
-1.21064e-05
-1.19034e-05
-1.17345e-05
-1.15459e-05
-1.13914e-05
-1.12168e-05
-1.10759e-05
-1.09145e-05
-1.0786e-05
-1.06365e-05
-1.05193e-05
-1.03802e-05
-1.0273e-05
-1.01433e-05
-1.00448e-05
-9.92332e-06
-9.83252e-06
-9.71831e-06
-9.63433e-06
-9.52655e-06
-9.44864e-06
-9.34662e-06
-9.27418e-06
-9.17735e-06
-9.10987e-06
-9.01778e-06
-8.95484e-06
-8.86711e-06
-8.80835e-06
-8.72462e-06
-8.66972e-06
-8.5897e-06
-8.53835e-06
-8.46174e-06
-8.41365e-06
-8.34017e-06
-8.29507e-06
-8.22443e-06
-8.18203e-06
-8.11396e-06
-8.07401e-06
-8.00825e-06
-7.97048e-06
-7.90679e-06
-7.87097e-06
-7.80914e-06
-7.77508e-06
-7.71492e-06
-7.68246e-06
-7.62382e-06
-7.59282e-06
-7.53559e-06
-7.50596e-06
-7.45006e-06
-7.42173e-06
-7.36711e-06
-7.34005e-06
-7.28667e-06
-7.26085e-06
-7.2087e-06
-7.1841e-06
-7.13319e-06
-7.10981e-06
-7.06011e-06
-7.03794e-06
-6.98945e-06
-6.96848e-06
-6.92118e-06
-6.9014e-06
-6.85527e-06
-6.83664e-06
-6.79164e-06
-6.77413e-06
-6.73022e-06
-6.71378e-06
-6.67091e-06
-6.65548e-06
-6.6136e-06
-6.59912e-06
-6.55817e-06
-6.54459e-06
-6.5045e-06
-6.49174e-06
-6.45245e-06
-6.44047e-06
-6.40192e-06
-6.39064e-06
-6.35277e-06
-6.34215e-06
-6.30491e-06
-6.2949e-06
-6.25824e-06
-6.24878e-06
-6.21266e-06
-6.20372e-06
-6.1681e-06
-6.15965e-06
-6.1245e-06
-6.1165e-06
-6.08178e-06
-6.07421e-06
-6.03992e-06
-6.03276e-06
-5.99887e-06
-5.9921e-06
-5.95859e-06
-5.9522e-06
-5.91907e-06
-5.91306e-06
-5.88029e-06
-5.87465e-06
-5.84225e-06
-5.83698e-06
-5.80496e-06
-5.80006e-06
-5.76843e-06
-5.76394e-06
-5.73272e-06
-5.72864e-06
-5.69785e-06
-5.6942e-06
-5.66382e-06
-5.66053e-06
-5.63039e-06
-5.62709e-06
-5.59646e-06
-5.59176e-06
-5.55794e-06
-5.5465e-06
-5.50134e-06
-5.48813e-06
-5.48813e-06
-5.48813e-06
1
0.519558
0.349423
0.30954
0.30058
0.298511
0.2981
0.298269
0.298733
0.299367
0.300101
0.300896
0.301727
0.302582
0.303454
0.304339
0.305234
0.30614
0.307055
0.307979
0.308912
0.309854
0.310807
0.311768
0.31274
0.313722
0.314714
0.315717
0.31673
0.317755
0.31879
0.319837
0.320895
0.321965
0.323047
0.324141
0.325247
0.326366
0.327498
0.328643
0.329802
0.330974
0.33216
0.333361
0.334576
0.335805
0.33705
0.338311
0.339587
0.340879
0.342188
0.343514
0.344857
0.346218
0.347597
0.348994
0.350411
0.351846
0.353302
0.354778
0.356274
0.357792
0.359332
0.360893
0.362478
0.364086
0.365718
0.367374
0.369056
0.370763
0.372496
0.374257
0.376044
0.377861
0.379706
0.381581
0.383486
0.385423
0.387392
0.389394
0.39143
0.393501
0.395609
0.397753
0.399935
0.402157
0.40442
0.406724
0.409072
0.411465
0.413904
0.41639
0.418927
0.421515
0.424155
0.426851
0.429604
0.432417
0.43529
0.438228
0.441231
0.444304
0.447447
0.450665
0.453961
0.457336
0.460796
0.464342
0.46798
0.471712
0.475544
0.479479
0.483522
0.487678
0.491953
0.496351
0.500879
0.505543
0.510349
0.515303
0.520411
0.525681
0.531118
0.536727
0.542515
0.548484
0.554638
0.560976
0.567496
0.574192
0.581056
0.588071
0.595217
0.602466
0.609781
0.617116
0.624415
0.631609
0.638618
0.645348
0.651693
0.657534
0.662737
0.667161
0.670652
0.673052
0.674198
0.673928
0.672083
0.668517
0.663097
0.655708
0.646265
0.634709
0.621018
0.605206
0.58733
0.567483
0.545802
0.522459
0.497663
0.471651
0.444683
0.417035
0.388993
0.360843
0.332864
0.305322
0.278463
0.252508
0.227648
0.204042
0.181817
0.161064
0.141843
0.124183
0.108081
0.0935146
0.0804353
0.0687784
0.0584653
0.0494067
0.0415065
0.0346651
0.0287817
0.023757
0.0194948
0.0159037
0.0128985
0.0104001
0.00833677
0.00664391
0.00526406
0.00414655
0.00324737
0.00252843
0.00195731
0.00150641
0.00115274
0.000876993
0.000663404
0.000498921
0.000373096
0.000277368
0.000205042
0.000150663
0.000110081
7.99101e-05
5.76669e-05
4.12954e-05
2.93657e-05
2.06495e-05
1.43613e-05
9.77129e-06
6.47641e-06
4.03778e-06
2.27238e-06
9.06438e-07
-1.19966e-07
-9.89428e-07
-1.69466e-06
-2.36895e-06
-2.96893e-06
-3.60148e-06
-4.20386e-06
-4.86865e-06
-5.52242e-06
-6.24962e-06
-6.97054e-06
-7.76466e-06
-8.54823e-06
-9.39746e-06
-1.02259e-05
-1.11077e-05
-1.19546e-05
-1.28395e-05
-1.36734e-05
-1.4529e-05
-1.53174e-05
-1.61116e-05
-1.68239e-05
-1.75287e-05
-1.81398e-05
-1.87335e-05
-1.92258e-05
-1.96953e-05
-2.006e-05
-2.04009e-05
-2.06383e-05
-2.08548e-05
-2.09727e-05
-2.10762e-05
-2.10886e-05
-2.10951e-05
-2.10199e-05
-2.09484e-05
-2.08048e-05
-2.06746e-05
-2.04815e-05
-2.03106e-05
-2.00851e-05
-1.98892e-05
-1.96454e-05
-1.94371e-05
-1.9186e-05
-1.89749e-05
-1.87246e-05
-1.85173e-05
-1.82732e-05
-1.80739e-05
-1.78393e-05
-1.76505e-05
-1.74269e-05
-1.72496e-05
-1.70377e-05
-1.68719e-05
-1.66715e-05
-1.6517e-05
-1.63276e-05
-1.61836e-05
-1.60043e-05
-1.58701e-05
-1.57001e-05
-1.55748e-05
-1.54132e-05
-1.52961e-05
-1.51423e-05
-1.50325e-05
-1.48859e-05
-1.47829e-05
-1.46427e-05
-1.4546e-05
-1.44119e-05
-1.4321e-05
-1.41925e-05
-1.41069e-05
-1.39836e-05
-1.39031e-05
-1.37847e-05
-1.37089e-05
-1.3595e-05
-1.35235e-05
-1.34138e-05
-1.33464e-05
-1.32406e-05
-1.31769e-05
-1.30746e-05
-1.30144e-05
-1.29154e-05
-1.28582e-05
-1.27622e-05
-1.27079e-05
-1.26145e-05
-1.25628e-05
-1.24719e-05
-1.24226e-05
-1.2334e-05
-1.22868e-05
-1.22003e-05
-1.21552e-05
-1.20706e-05
-1.20274e-05
-1.19448e-05
-1.19034e-05
-1.18226e-05
-1.1783e-05
-1.1704e-05
-1.16662e-05
-1.15888e-05
-1.15527e-05
-1.14771e-05
-1.14427e-05
-1.13687e-05
-1.1336e-05
-1.12637e-05
-1.12325e-05
-1.11618e-05
-1.11323e-05
-1.10632e-05
-1.10352e-05
-1.09676e-05
-1.09411e-05
-1.08749e-05
-1.08498e-05
-1.07851e-05
-1.07614e-05
-1.06979e-05
-1.06755e-05
-1.06133e-05
-1.05921e-05
-1.05311e-05
-1.05111e-05
-1.04512e-05
-1.04322e-05
-1.03733e-05
-1.03553e-05
-1.02974e-05
-1.02804e-05
-1.02234e-05
-1.02072e-05
-1.01511e-05
-1.01358e-05
-1.00804e-05
-1.00659e-05
-1.00113e-05
-9.99747e-06
-9.94363e-06
-9.93049e-06
-9.87733e-06
-9.86486e-06
-9.81235e-06
-9.80051e-06
-9.74864e-06
-9.73742e-06
-9.68615e-06
-9.67554e-06
-9.62488e-06
-9.61486e-06
-9.56479e-06
-9.55538e-06
-9.50591e-06
-9.4971e-06
-9.44826e-06
-9.44009e-06
-9.3919e-06
-9.38441e-06
-9.3369e-06
-9.33009e-06
-9.28324e-06
-9.27699e-06
-9.2305e-06
-9.22423e-06
-9.17696e-06
-9.16845e-06
-9.11612e-06
-9.09712e-06
-9.02763e-06
-9.00727e-06
-9.00727e-06
-9.00727e-06
1
0.661739
0.475928
0.424713
0.412111
0.408883
0.408095
0.408192
0.408733
0.409524
0.41046
0.411484
0.41256
0.41367
0.414803
0.415953
0.417117
0.418294
0.419482
0.420682
0.421894
0.423117
0.424352
0.425599
0.426858
0.42813
0.429414
0.430711
0.432022
0.433345
0.434683
0.436034
0.437399
0.438778
0.440172
0.441581
0.443005
0.444444
0.445899
0.44737
0.448857
0.45036
0.451881
0.453418
0.454973
0.456546
0.458137
0.459746
0.461374
0.463022
0.464689
0.466376
0.468084
0.469813
0.471563
0.473335
0.475129
0.476946
0.478787
0.480651
0.482539
0.484452
0.48639
0.488354
0.490345
0.492362
0.494407
0.496481
0.498583
0.500714
0.502875
0.505068
0.507291
0.509547
0.511835
0.514157
0.516514
0.518906
0.521334
0.523799
0.526301
0.528843
0.531424
0.534047
0.536711
0.539418
0.54217
0.544967
0.547812
0.550704
0.553646
0.556639
0.559685
0.562784
0.56594
0.569153
0.572425
0.575758
0.579155
0.582616
0.586144
0.58974
0.593409
0.59715
0.600967
0.604862
0.608837
0.612896
0.61704
0.621272
0.625595
0.630012
0.634525
0.639138
0.643854
0.648674
0.653603
0.658642
0.663794
0.669061
0.674444
0.679944
0.685561
0.691294
0.697141
0.703095
0.709151
0.715298
0.721523
0.727809
0.734133
0.740466
0.746773
0.753012
0.759131
0.76507
0.770757
0.776112
0.78104
0.785438
0.78919
0.79217
0.794242
0.795262
0.795082
0.793549
0.790513
0.785827
0.779353
0.770968
0.760566
0.748066
0.733415
0.716591
0.69761
0.676524
0.653427
0.62845
0.601763
0.573572
0.544114
0.51365
0.482461
0.45084
0.419083
0.387485
0.356328
0.325876
0.296371
0.268026
0.241022
0.215506
0.19159
0.16935
0.148829
0.13004
0.112966
0.0975655
0.0837762
0.0715186
0.0607003
0.0512196
0.042969
0.0358384
0.0297178
0.0244996
0.0200807
0.0163635
0.0132573
0.0106786
0.00855174
0.00680893
0.00539005
0.00424221
0.00331962
0.00258269
0.00199785
0.00153653
0.001175
0.000893352
0.000675369
0.000507618
0.000379391
0.000281893
0.000208284
0.000152966
0.000111715
8.10555e-05
5.8471e-05
4.18486e-05
2.97488e-05
2.09038e-05
1.45321e-05
9.874e-06
6.53749e-06
4.05913e-06
2.27063e-06
8.76365e-07
-1.66985e-07
-1.06254e-06
-1.78548e-06
-2.48899e-06
-3.11176e-06
-3.78027e-06
-4.41364e-06
-5.12393e-06
-5.81946e-06
-6.60407e-06
-7.37972e-06
-8.24516e-06
-9.09821e-06
-1.00342e-05