# vtk DataFile Version 2.0
FlowField
ASCII
DATASET STRUCTURED_GRID
DIMENSIONS 400 1 200
POINTS 80000 float
0 0 0
0.08 0 0
0.16 0 0
0.24 0 0
0.32 0 0
0.4 0 0
0.48 0 0
0.56 0 0
0.64 0 0
0.72 0 0
0.8 0 0
0.88 0 0
0.96 0 0
1.04 0 0
1.12 0 0
1.2 0 0
1.28 0 0
1.36 0 0
1.44 0 0
1.52 0 0
1.6 0 0
1.68 0 0
1.76 0 0
1.84 0 0
1.92 0 0
2 0 0
2.08 0 0
2.16 0 0
2.24 0 0
2.32 0 0
2.4 0 0
2.48 0 0
2.56 0 0
2.64 0 0
2.72 0 0
2.8 0 0
2.88 0 0
2.96 0 0
3.04 0 0
3.12 0 0
3.2 0 0
3.28 0 0
3.36 0 0
3.44 0 0
3.52 0 0
3.6 0 0
3.68 0 0
3.76 0 0
3.84 0 0
3.92 0 0
4 0 0
4.08 0 0
4.16 0 0
4.24 0 0
4.32 0 0
4.4 0 0
4.48 0 0
4.56 0 0
4.64 0 0
4.72 0 0
4.8 0 0
4.88 0 0
4.96 0 0
5.04 0 0
5.12 0 0
5.2 0 0
5.28 0 0
5.36 0 0
5.44 0 0
5.52 0 0
5.6 0 0
5.68 0 0
5.76 0 0
5.84 0 0
5.92 0 0
6 0 0
6.08 0 0
6.16 0 0
6.24 0 0
6.32 0 0
6.4 0 0
6.48 0 0
6.56 0 0
6.64 0 0
6.72 0 0
6.8 0 0
6.88 0 0
6.96 0 0
7.04 0 0
7.12 0 0
7.2 0 0
7.28 0 0
7.36 0 0
7.44 0 0
7.52 0 0
7.6 0 0
7.68 0 0
7.76 0 0
7.84 0 0
7.92 0 0
8 0 0
8.08 0 0
8.16 0 0
8.24 0 0
8.32 0 0
8.4 0 0
8.48 0 0
8.56 0 0
8.64 0 0
8.72 0 0
8.8 0 0
8.88 0 0
8.96 0 0
9.04 0 0
9.12 0 0
9.2 0 0
9.28 0 0
9.36 0 0
9.44 0 0
9.52 0 0
9.6 0 0
9.68 0 0
9.76 0 0
9.84 0 0
9.92 0 0
10 0 0
10.08 0 0
10.16 0 0
10.24 0 0
10.32 0 0
10.4 0 0
10.48 0 0
10.56 0 0
10.64 0 0
10.72 0 0
10.8 0 0
10.88 0 0
10.96 0 0
11.04 0 0
11.12 0 0
11.2 0 0
11.28 0 0
11.36 0 0
11.44 0 0
11.52 0 0
11.6 0 0
11.68 0 0
11.76 0 0
11.84 0 0
11.92 0 0
12 0 0
12.08 0 0
12.16 0 0
12.24 0 0
12.32 0 0
12.4 0 0
12.48 0 0
12.56 0 0
12.64 0 0
12.72 0 0
12.8 0 0
12.88 0 0
12.96 0 0
13.04 0 0
13.12 0 0
13.2 0 0
13.28 0 0
13.36 0 0
13.44 0 0
13.52 0 0
13.6 0 0
13.68 0 0
13.76 0 0
13.84 0 0
13.92 0 0
14 0 0
14.08 0 0
14.16 0 0
14.24 0 0
14.32 0 0
14.4 0 0
14.48 0 0
14.56 0 0
14.64 0 0
14.72 0 0
14.8 0 0
14.88 0 0
14.96 0 0
15.04 0 0
15.12 0 0
15.2 0 0
15.28 0 0
15.36 0 0
15.44 0 0
15.52 0 0
15.6 0 0
15.68 0 0
15.76 0 0
15.84 0 0
15.92 0 0
16 0 0
16.08 0 0
16.16 0 0
16.24 0 0
16.32 0 0
16.4 0 0
16.48 0 0
16.56 0 0
16.64 0 0
16.72 0 0
16.8 0 0
16.88 0 0
16.96 0 0
17.04 0 0
17.12 0 0
17.2 0 0
17.28 0 0
17.36 0 0
17.44 0 0
17.52 0 0
17.6 0 0
17.68 0 0
17.76 0 0
17.84 0 0
17.92 0 0
18 0 0
18.08 0 0
18.16 0 0
18.24 0 0
18.32 0 0
18.4 0 0
18.48 0 0
18.56 0 0
18.64 0 0
18.72 0 0
18.8 0 0
18.88 0 0
18.96 0 0
19.04 0 0
19.12 0 0
19.2 0 0
19.28 0 0
19.36 0 0
19.44 0 0
19.52 0 0
19.6 0 0
19.68 0 0
19.76 0 0
19.84 0 0
19.92 0 0
20 0 0
20.08 0 0
20.16 0 0
20.24 0 0
20.32 0 0
20.4 0 0
20.48 0 0
20.56 0 0
20.64 0 0
20.72 0 0
20.8 0 0
20.88 0 0
20.96 0 0
21.04 0 0
21.12 0 0
21.2 0 0
21.28 0 0
21.36 0 0
21.44 0 0
21.52 0 0
21.6 0 0
21.68 0 0
21.76 0 0
21.84 0 0
21.92 0 0
22 0 0
22.08 0 0
22.16 0 0
22.24 0 0
22.32 0 0
22.4 0 0
22.48 0 0
22.56 0 0
22.64 0 0
22.72 0 0
22.8 0 0
22.88 0 0
22.96 0 0
23.04 0 0
23.12 0 0
23.2 0 0
23.28 0 0
23.36 0 0
23.44 0 0
23.52 0 0
23.6 0 0
23.68 0 0
23.76 0 0
23.84 0 0
23.92 0 0
24 0 0
24.08 0 0
24.16 0 0
24.24 0 0
24.32 0 0
24.4 0 0
24.48 0 0
24.56 0 0
24.64 0 0
24.72 0 0
24.8 0 0
24.88 0 0
24.96 0 0
25.04 0 0
25.12 0 0
25.2 0 0
25.28 0 0
25.36 0 0
25.44 0 0
25.52 0 0
25.6 0 0
25.68 0 0
25.76 0 0
25.84 0 0
25.92 0 0
26 0 0
26.08 0 0
26.16 0 0
26.24 0 0
26.32 0 0
26.4 0 0
26.48 0 0
26.56 0 0
26.64 0 0
26.72 0 0
26.8 0 0
26.88 0 0
26.96 0 0
27.04 0 0
27.12 0 0
27.2 0 0
27.28 0 0
27.36 0 0
27.44 0 0
27.52 0 0
27.6 0 0
27.68 0 0
27.76 0 0
27.84 0 0
27.92 0 0
28 0 0
28.08 0 0
28.16 0 0
28.24 0 0
28.32 0 0
28.4 0 0
28.48 0 0
28.56 0 0
28.64 0 0
28.72 0 0
28.8 0 0
28.88 0 0
28.96 0 0
29.04 0 0
29.12 0 0
29.2 0 0
29.28 0 0
29.36 0 0
29.44 0 0
29.52 0 0
29.6 0 0
29.68 0 0
29.76 0 0
29.84 0 0
29.92 0 0
30 0 0
30.08 0 0
30.16 0 0
30.24 0 0
30.32 0 0
30.4 0 0
30.48 0 0
30.56 0 0
30.64 0 0
30.72 0 0
30.8 0 0
30.88 0 0
30.96 0 0
31.04 0 0
31.12 0 0
31.2 0 0
31.28 0 0
31.36 0 0
31.44 0 0
31.52 0 0
31.6 0 0
31.68 0 0
31.76 0 0
31.84 0 0
31.92 0 0
0 0.005 0
0.08 0.005 0
0.16 0.005 0
0.24 0.005 0
0.32 0.005 0
0.4 0.005 0
0.48 0.005 0
0.56 0.005 0
0.64 0.005 0
0.72 0.005 0
0.8 0.005 0
0.88 0.005 0
0.96 0.005 0
1.04 0.005 0
1.12 0.005 0
1.2 0.005 0
1.28 0.005 0
1.36 0.005 0
1.44 0.005 0
1.52 0.005 0
1.6 0.005 0
1.68 0.005 0
1.76 0.005 0
1.84 0.005 0
1.92 0.005 0
2 0.005 0
2.08 0.005 0
2.16 0.005 0
2.24 0.005 0
2.32 0.005 0
2.4 0.005 0
2.48 0.005 0
2.56 0.005 0
2.64 0.005 0
2.72 0.005 0
2.8 0.005 0
2.88 0.005 0
2.96 0.005 0
3.04 0.005 0
3.12 0.005 0
3.2 0.005 0
3.28 0.005 0
3.36 0.005 0
3.44 0.005 0
3.52 0.005 0
3.6 0.005 0
3.68 0.005 0
3.76 0.005 0
3.84 0.005 0
3.92 0.005 0
4 0.005 0
4.08 0.005 0
4.16 0.005 0
4.24 0.005 0
4.32 0.005 0
4.4 0.005 0
4.48 0.005 0
4.56 0.005 0
4.64 0.005 0
4.72 0.005 0
4.8 0.005 0
4.88 0.005 0
4.96 0.005 0
5.04 0.005 0
5.12 0.005 0
5.2 0.005 0
5.28 0.005 0
5.36 0.005 0
5.44 0.005 0
5.52 0.005 0
5.6 0.005 0
5.68 0.005 0
5.76 0.005 0
5.84 0.005 0
5.92 0.005 0
6 0.005 0
6.08 0.005 0
6.16 0.005 0
6.24 0.005 0
6.32 0.005 0
6.4 0.005 0
6.48 0.005 0
6.56 0.005 0
6.64 0.005 0
6.72 0.005 0
6.8 0.005 0
6.88 0.005 0
6.96 0.005 0
7.04 0.005 0
7.12 0.005 0
7.2 0.005 0
7.28 0.005 0
7.36 0.005 0
7.44 0.005 0
7.52 0.005 0
7.6 0.005 0
7.68 0.005 0
7.76 0.005 0
7.84 0.005 0
7.92 0.005 0
8 0.005 0
8.08 0.005 0
8.16 0.005 0
8.24 0.005 0
8.32 0.005 0
8.4 0.005 0
8.48 0.005 0
8.56 0.005 0
8.64 0.005 0
8.72 0.005 0
8.8 0.005 0
8.88 0.005 0
8.96 0.005 0
9.04 0.005 0
9.12 0.005 0
9.2 0.005 0
9.28 0.005 0
9.36 0.005 0
9.44 0.005 0
9.52 0.005 0
9.6 0.005 0
9.68 0.005 0
9.76 0.005 0
9.84 0.005 0
9.92 0.005 0
10 0.005 0
10.08 0.005 0
10.16 0.005 0
10.24 0.005 0
10.32 0.005 0
10.4 0.005 0
10.48 0.005 0
10.56 0.005 0
10.64 0.005 0
10.72 0.005 0
10.8 0.005 0
10.88 0.005 0
10.96 0.005 0
11.04 0.005 0
11.12 0.005 0
11.2 0.005 0
11.28 0.005 0
11.36 0.005 0
11.44 0.005 0
11.52 0.005 0
11.6 0.005 0
11.68 0.005 0
11.76 0.005 0
11.84 0.005 0
11.92 0.005 0
12 0.005 0
12.08 0.005 0
12.16 0.005 0
12.24 0.005 0
12.32 0.005 0
12.4 0.005 0
12.48 0.005 0
12.56 0.005 0
12.64 0.005 0
12.72 0.005 0
12.8 0.005 0
12.88 0.005 0
12.96 0.005 0
13.04 0.005 0
13.12 0.005 0
13.2 0.005 0
13.28 0.005 0
13.36 0.005 0
13.44 0.005 0
13.52 0.005 0
13.6 0.005 0
13.68 0.005 0
13.76 0.005 0
13.84 0.005 0
13.92 0.005 0
14 0.005 0
14.08 0.005 0
14.16 0.005 0
14.24 0.005 0
14.32 0.005 0
14.4 0.005 0
14.48 0.005 0
14.56 0.005 0
14.64 0.005 0
14.72 0.005 0
14.8 0.005 0
14.88 0.005 0
14.96 0.005 0
15.04 0.005 0
15.12 0.005 0
15.2 0.005 0
15.28 0.005 0
15.36 0.005 0
15.44 0.005 0
15.52 0.005 0
15.6 0.005 0
15.68 0.005 0
15.76 0.005 0
15.84 0.005 0
15.92 0.005 0
16 0.005 0
16.08 0.005 0
16.16 0.005 0
16.24 0.005 0
16.32 0.005 0
16.4 0.005 0
16.48 0.005 0
16.56 0.005 0
16.64 0.005 0
16.72 0.005 0
16.8 0.005 0
16.88 0.005 0
16.96 0.005 0
17.04 0.005 0
17.12 0.005 0
17.2 0.005 0
17.28 0.005 0
17.36 0.005 0
17.44 0.005 0
17.52 0.005 0
17.6 0.005 0
17.68 0.005 0
17.76 0.005 0
17.84 0.005 0
17.92 0.005 0
18 0.005 0
18.08 0.005 0
18.16 0.005 0
18.24 0.005 0
18.32 0.005 0
18.4 0.005 0
18.48 0.005 0
18.56 0.005 0
18.64 0.005 0
18.72 0.005 0
18.8 0.005 0
18.88 0.005 0
18.96 0.005 0
19.04 0.005 0
19.12 0.005 0
19.2 0.005 0
19.28 0.005 0
19.36 0.005 0
19.44 0.005 0
19.52 0.005 0
19.6 0.005 0
19.68 0.005 0
19.76 0.005 0
19.84 0.005 0
19.92 0.005 0
20 0.005 0
20.08 0.005 0
20.16 0.005 0
20.24 0.005 0
20.32 0.005 0
20.4 0.005 0
20.48 0.005 0
20.56 0.005 0
20.64 0.005 0
20.72 0.005 0
20.8 0.005 0
20.88 0.005 0
20.96 0.005 0
21.04 0.005 0
21.12 0.005 0
21.2 0.005 0
21.28 0.005 0
21.36 0.005 0
21.44 0.005 0
21.52 0.005 0
21.6 0.005 0
21.68 0.005 0
21.76 0.005 0
21.84 0.005 0
21.92 0.005 0
22 0.005 0
22.08 0.005 0
22.16 0.005 0
22.24 0.005 0
22.32 0.005 0
22.4 0.005 0
22.48 0.005 0
22.56 0.005 0
22.64 0.005 0
22.72 0.005 0
22.8 0.005 0
22.88 0.005 0
22.96 0.005 0
23.04 0.005 0
23.12 0.005 0
23.2 0.005 0
23.28 0.005 0
23.36 0.005 0
23.44 0.005 0
23.52 0.005 0
23.6 0.005 0
23.68 0.005 0
23.76 0.005 0
23.84 0.005 0
23.92 0.005 0
24 0.005 0
24.08 0.005 0
24.16 0.005 0
24.24 0.005 0
24.32 0.005 0
24.4 0.005 0
24.48 0.005 0
24.56 0.005 0
24.64 0.005 0
24.72 0.005 0
24.8 0.005 0
24.88 0.005 0
24.96 0.005 0
25.04 0.005 0
25.12 0.005 0
25.2 0.005 0
25.28 0.005 0
25.36 0.005 0
25.44 0.005 0
25.52 0.005 0
25.6 0.005 0
25.68 0.005 0
25.76 0.005 0
25.84 0.005 0
25.92 0.005 0
26 0.005 0
26.08 0.005 0
26.16 0.005 0
26.24 0.005 0
26.32 0.005 0
26.4 0.005 0
26.48 0.005 0
26.56 0.005 0
26.64 0.005 0
26.72 0.005 0
26.8 0.005 0
26.88 0.005 0
26.96 0.005 0
27.04 0.005 0
27.12 0.005 0
27.2 0.005 0
27.28 0.005 0
27.36 0.005 0
27.44 0.005 0
27.52 0.005 0
27.6 0.005 0
27.68 0.005 0
27.76 0.005 0
27.84 0.005 0
27.92 0.005 0
28 0.005 0
28.08 0.005 0
28.16 0.005 0
28.24 0.005 0
28.32 0.005 0
28.4 0.005 0
28.48 0.005 0
28.56 0.005 0
28.64 0.005 0
28.72 0.005 0
28.8 0.005 0
28.88 0.005 0
28.96 0.005 0
29.04 0.005 0
29.12 0.005 0
29.2 0.005 0
29.28 0.005 0
29.36 0.005 0
29.44 0.005 0
29.52 0.005 0
29.6 0.005 0
29.68 0.005 0
29.76 0.005 0
29.84 0.005 0
29.92 0.005 0
30 0.005 0
30.08 0.005 0
30.16 0.005 0
30.24 0.005 0
30.32 0.005 0
30.4 0.005 0
30.48 0.005 0
30.56 0.005 0
30.64 0.005 0
30.72 0.005 0
30.8 0.005 0
30.88 0.005 0
30.96 0.005 0
31.04 0.005 0
31.12 0.005 0
31.2 0.005 0
31.28 0.005 0
31.36 0.005 0
31.44 0.005 0
31.52 0.005 0
31.6 0.005 0
31.68 0.005 0
31.76 0.005 0
31.84 0.005 0
31.92 0.005 0
0 0.01 0
0.08 0.01 0
0.16 0.01 0
0.24 0.01 0
0.32 0.01 0
0.4 0.01 0
0.48 0.01 0
0.56 0.01 0
0.64 0.01 0
0.72 0.01 0
0.8 0.01 0
0.88 0.01 0
0.96 0.01 0
1.04 0.01 0
1.12 0.01 0
1.2 0.01 0
1.28 0.01 0
1.36 0.01 0
1.44 0.01 0
1.52 0.01 0
1.6 0.01 0
1.68 0.01 0
1.76 0.01 0
1.84 0.01 0
1.92 0.01 0
2 0.01 0
2.08 0.01 0
2.16 0.01 0
2.24 0.01 0
2.32 0.01 0
2.4 0.01 0
2.48 0.01 0
2.56 0.01 0
2.64 0.01 0
2.72 0.01 0
2.8 0.01 0
2.88 0.01 0
2.96 0.01 0
3.04 0.01 0
3.12 0.01 0
3.2 0.01 0
3.28 0.01 0
3.36 0.01 0
3.44 0.01 0
3.52 0.01 0
3.6 0.01 0
3.68 0.01 0
3.76 0.01 0
3.84 0.01 0
3.92 0.01 0
4 0.01 0
4.08 0.01 0
4.16 0.01 0
4.24 0.01 0
4.32 0.01 0
4.4 0.01 0
4.48 0.01 0
4.56 0.01 0
4.64 0.01 0
4.72 0.01 0
4.8 0.01 0
4.88 0.01 0
4.96 0.01 0
5.04 0.01 0
5.12 0.01 0
[...]
POINT_DATA 80000

SCALARS p float 1
LOOKUP_TABLE default
1
63.2174
62.9118
62.8694
62.8503
62.8389
62.832
62.8282
62.8273
62.8295
62.8346
62.8422
62.852
62.8634
62.8763
62.8906
62.906
62.9226
62.9402
62.9586
62.9778
62.9978
63.0183
63.0393
63.0607
63.0824
63.1043
63.1262
63.1481
63.1699
63.1915
63.2128
63.2336
63.254
63.2739
63.2931
63.3116
63.3294
63.3464
63.3626
63.3779
63.3922
63.4056
63.418
63.4294
63.4398
63.4492
63.4575
63.4649
63.4712
63.4765
63.4807
63.4841
63.4864
63.4878
63.4882
63.4878
63.4865
63.4844
63.4814
63.4777
63.4732
63.468
63.4621
63.4556
63.4485
63.4407
63.4325
63.4237
63.4145
63.4047
63.3946
63.3841
63.3732
63.362
63.3504
63.3386
63.3265
63.3142
63.3017
63.2889
63.276
63.263
63.2497
63.2364
63.2229
63.2094
63.1957
63.182
63.1683
63.1544
63.1406
63.1267
63.1127
63.0988
63.0848
63.0708
63.0568
63.0429
63.0289
63.0149
63.001
62.987
62.9731
62.9592
62.9453
62.9315
62.9176
62.9038
62.89
62.8763
62.8626
62.8489
62.8352
62.8216
62.808
62.7944
62.7809
62.7674
62.7539
62.7404
62.727
62.7136
62.7002
62.6869
62.6736
62.6603
62.6471
62.6338
62.6206
62.6075
62.5943
62.5812
62.5681
62.555
62.5419
62.5289
62.5159
62.5029
62.49
62.477
62.4641
62.4512
62.4383
62.4255
62.4127
62.3998
62.387
62.3743
62.3615
62.3488
62.336
62.3233
62.3106
62.298
62.2853
62.2727
62.2601
62.2474
62.2348
62.2223
62.2097
62.1972
62.1846
62.1721
62.1596
62.1471
62.1346
62.1221
62.1097
62.0972
62.0848
62.0724
62.06
62.0476
62.0352
62.0228
62.0104
61.9981
61.9857
61.9734
61.9611
61.9487
61.9364
61.9241
61.9118
61.8996
61.8873
61.875
61.8628
61.8505
61.8383
61.826
61.8138
61.8016
61.7894
61.7772
61.765
61.7528
61.7406
61.7284
61.7162
61.7041
61.6919
61.6798
61.6676
61.6555
61.6433
61.6312
61.619
61.6069
61.5948
61.5827
61.5706
61.5585
61.5463
61.5342
61.5221
61.5101
61.498
61.4859
61.4738
61.4617
61.4496
61.4376
61.4255
61.4134
61.4013
61.3893
61.3772
61.3651
61.3531
61.341
61.329
61.3169
61.3049
61.2928
61.2808
61.2687
61.2567
61.2446
61.2326
61.2205
61.2085
61.1964
61.1844
61.1723
61.1603
61.1482
61.1362
61.1242
61.1121
61.1001
61.088
61.076
61.0639
61.0519
61.0398
61.0278
61.0157
61.0037
60.9916
60.9796
60.9675
60.9554
60.9434
60.9313
60.9193
60.9072
60.8951
60.883
60.871
60.8589
60.8468
60.8347
60.8227
60.8106
60.7985
60.7864
60.7743
60.7622
60.7501
60.738
60.7259
60.7138
60.7017
60.6895
60.6774
60.6653
60.6532
60.641
60.6289
60.6168
60.6046
60.5925
60.5803
60.5682
60.556
60.5438
60.5316
60.5195
60.5073
60.4951
60.4829
60.4707
60.4585
60.4463
60.4341
60.4219
60.4096
60.3974
60.3852
60.3729
60.3607
60.3484
60.3362
60.3239
60.3116
60.2993
60.287
60.2748
60.2625
60.2501
60.2378
60.2255
60.2132
60.2008
60.1885
60.1761
60.1638
60.1514
60.1391
60.1267
60.1143
60.1019
60.0895
60.0771
60.0646
60.0522
60.0398
60.0273
60.0149
60.0024
59.9899
59.9775
59.965
59.9525
59.94
59.9275
59.9149
59.9024
59.8898
59.8773
59.8647
59.8522
59.8396
59.827
59.8144
59.8018
59.7891
59.7765
59.7638
59.7512
59.7385
59.7258
59.7132
59.7005
59.6877
59.675
59.6623
59.6495
59.6368
59.624
59.6112
59.5984
59.5856
59.5728
59.56
59.5471
59.5343
59.5214
59.5085
59.4956
59.4827
59.4698
59.4569
59.4439
59.431
59.418
59.405
59.392
59.379
59.366
59.353
59.3399
59.3268
59.3137
59.3006
59.2877
0.5
63.2174
63.2174
62.9118
62.8694
62.8503
62.8389
62.832
62.8282
62.8273
62.8295
62.8346
62.8422
62.852
62.8634
62.8763
62.8906
62.906
62.9226
62.9402
62.9586
62.9778
62.9978
63.0183
63.0393
63.0607
63.0824
63.1043
63.1262
63.1481
63.1699
63.1915
63.2128
63.2336
63.254
63.2739
63.2931
63.3116
63.3294
63.3464
63.3626
63.3779
63.3922
63.4056
63.418
63.4294
63.4398
63.4492
63.4575
63.4649
63.4712
63.4765
63.4807
63.4841
63.4864
63.4878
63.4882
63.4878
63.4865
63.4844
63.4814
63.4777
63.4732
63.468
63.4621
63.4556
63.4485
63.4407
63.4325
63.4237
63.4145
63.4047
63.3946
63.3841
63.3732
63.362
63.3504
63.3386
63.3265
63.3142
63.3017
63.2889
63.276
63.263
63.2497
63.2364
63.2229
63.2094
63.1957
63.182
63.1683
63.1544
63.1406
63.1267
63.1127
63.0988
63.0848
63.0708
63.0568
63.0429
63.0289
63.0149
63.001
62.987
62.9731
62.9592
62.9453
62.9315
62.9176
62.9038
62.89
62.8763
62.8626
62.8489
62.8352
62.8216
62.808
62.7944
62.7809
62.7674
62.7539
62.7404
62.727
62.7136
62.7002
62.6869
62.6736
62.6603
62.6471
62.6338
62.6206
62.6075
62.5943
62.5812
62.5681
62.555
62.5419
62.5289
62.5159
62.5029
62.49
62.477
62.4641
62.4512
62.4383
62.4255
62.4127
62.3998
62.387
62.3743
62.3615
62.3488
62.336
62.3233
62.3106
62.298
62.2853
62.2727
62.2601
62.2474
62.2348
62.2223
62.2097
62.1972
62.1846
62.1721
62.1596
62.1471
62.1346
62.1221
62.1097
62.0972
62.0848
62.0724
62.06
62.0476
62.0352
62.0228
62.0104
61.9981
61.9857
61.9734
61.9611
61.9487
61.9364
61.9241
61.9118
61.8996
61.8873
61.875
61.8628
61.8505
61.8383
61.826
61.8138
61.8016
61.7894
61.7772
61.765
61.7528
61.7406
61.7284
61.7162
61.7041
61.6919
61.6798
61.6676
61.6555
61.6433
61.6312
61.619
61.6069
61.5948
61.5827
61.5706
61.5585
61.5463
61.5342
61.5221
61.5101
61.498
61.4859
61.4738
61.4617
61.4496
61.4376
61.4255
61.4134
61.4013
61.3893
61.3772
61.3651
61.3531
61.341
61.329
61.3169
61.3049
61.2928
61.2808
61.2687
61.2567
61.2446
61.2326
61.2205
61.2085
61.1964
61.1844
61.1723
61.1603
61.1482
61.1362
61.1242
61.1121
61.1001
61.088
61.076
61.0639
61.0519
61.0398
61.0278
61.0157
61.0037
60.9916
60.9796
60.9675
60.9554
60.9434
60.9313
60.9193
60.9072
60.8951
60.883
60.871
60.8589
60.8468
60.8347
60.8227
60.8106
60.7985
60.7864
60.7743
60.7622
60.7501
60.738
60.7259
60.7138
60.7017
60.6895
60.6774
60.6653
60.6532
60.641
60.6289
60.6168
60.6046
60.5925
60.5803
60.5682
60.556
60.5438
60.5316
60.5195
60.5073
60.4951
60.4829
60.4707
60.4585
60.4463
60.4341
60.4219
60.4096
60.3974
60.3852
60.3729
60.3607
60.3484
60.3362
60.3239
60.3116
60.2993
60.287
60.2748
60.2625
60.2501
60.2378
60.2255
60.2132
60.2008
60.1885
60.1761
60.1638
60.1514
60.1391
60.1267
60.1143
60.1019
60.0895
60.0771
60.0646
60.0522
60.0398
60.0273
60.0149
60.0024
59.9899
59.9775
59.965
59.9525
59.94
59.9275
59.9149
59.9024
59.8898
59.8773
59.8647
59.8522
59.8396
59.827
59.8144
59.8018
59.7891
59.7765
59.7638
59.7512
59.7385
59.7258
59.7132
59.7005
59.6877
59.675
59.6623
59.6495
59.6368
59.624
59.6112
59.5984
59.5856
59.5728
59.56
59.5471
59.5343
59.5214
59.5085
59.4956
59.4827
59.4698
59.4569
59.4439
59.431
59.418
59.405
59.392
59.379
59.366
59.353
59.3399
59.3268
59.3137
59.3006
59.2877
59.2877
63.2025
63.2025
62.9154
62.8704
62.8507
62.8391
62.832
62.8281
62.8272
62.8294
62.8345
62.8421
62.8518
62.8632
62.8761
62.8904
62.9058
62.9224
62.94
62.9584
62.9777
62.9976
63.0181
63.0391
63.0605
63.0822
63.1041
63.126
63.1479
63.1697
63.1913
63.2126
63.2335
63.2539
63.2737
63.293
63.3115
63.3293
63.3463
63.3625
63.3777
63.3921
63.4055
63.4179
63.4293
63.4397
63.4491
63.4575
63.4648
63.4711
63.4764
63.4807
63.484
63.4863
63.4877
63.4882
63.4878
63.4865
63.4843
63.4814
63.4776
63.4731
63.468
63.4621
63.4556
63.4484
63.4407
63.4325
63.4237
63.4144
63.4047
63.3946
63.3841
63.3732
63.362
63.3504
63.3386
63.3265
63.3142
63.3017
63.2889
63.276
63.2629
63.2497
63.2364
63.2229
63.2094
63.1957
63.182
63.1683
63.1544
63.1406
63.1266
63.1127
63.0988
63.0848
63.0708
63.0568
63.0428
63.0289
63.0149
63.001
62.987
62.9731
62.9592
62.9453
62.9315
62.9176
62.9038
62.89
62.8763
62.8626
62.8489
62.8352
62.8216
62.808
62.7944
62.7809
62.7674
62.7539
62.7404
62.727
62.7136
62.7002
62.6869
62.6736
62.6603
62.6471
62.6338
62.6206
62.6074
62.5943
62.5812
62.5681
62.555
62.5419
62.5289
62.5159
62.5029
62.49
62.477
62.4641
62.4512
62.4383
62.4255
62.4127
62.3998
62.387
62.3743
62.3615
62.3488
62.336
62.3233
62.3106
62.298
62.2853
62.2727
62.2601
62.2474
62.2348
62.2223
62.2097
62.1972
62.1846
62.1721
62.1596
62.1471
62.1346
62.1221
62.1097
62.0972
62.0848
62.0724
62.06
62.0476
62.0352
62.0228
62.0104
61.9981
61.9857
61.9734
61.9611
61.9487
61.9364
61.9241
61.9118
61.8996
61.8873
61.875
61.8628
61.8505
61.8383
61.826
61.8138
61.8016
61.7894
61.7772
61.765
61.7528
61.7406
61.7284
61.7162
61.7041
61.6919
61.6797
61.6676
61.6555
61.6433
61.6312
61.619
61.6069
61.5948
61.5827
61.5706
61.5585
61.5463
61.5342
61.5221
61.5101
61.498
61.4859
61.4738
61.4617
61.4496
61.4375
61.4255
61.4134
61.4013
61.3893
61.3772
61.3651
61.3531
61.341
61.329
61.3169
61.3049
61.2928
61.2808
61.2687
61.2567
61.2446
61.2326
61.2205
61.2085
61.1964
61.1844
61.1723
61.1603
61.1482
61.1362
61.1242
61.1121
61.1001
61.088
61.076
61.0639
61.0519
61.0398
61.0278
61.0157
61.0037
60.9916
60.9796
60.9675
60.9554
60.9434
60.9313
60.9193
60.9072
60.8951
60.883
60.871
60.8589
60.8468
60.8347
60.8227
60.8106
60.7985
60.7864
60.7743
60.7622
60.7501
60.738
60.7259
60.7138
60.7017
60.6895
60.6774
60.6653
60.6532
60.641
60.6289
60.6168
60.6046
60.5925
60.5803
60.5682
60.556
60.5438
60.5316
60.5195
60.5073
60.4951
60.4829
60.4707
60.4585
60.4463
60.4341
60.4219
60.4096
60.3974
60.3852
60.3729
60.3607
60.3484
60.3362
60.3239
60.3116
60.2993
60.287
60.2748
60.2625
60.2501
60.2378
60.2255
60.2132
60.2008
60.1885
60.1761
60.1638
60.1514
60.1391
60.1267
60.1143
60.1019
60.0895
60.0771
60.0647
60.0522
60.0398
60.0273
60.0149
60.0024
59.9899
59.9775
59.965
59.9525
59.94
59.9275
59.9149
59.9024
59.8898
59.8773
59.8647
59.8522
59.8396
59.827
59.8144
59.8018
59.7891
59.7765
59.7638
59.7512
59.7385
59.7258
59.7132
59.7005
59.6877
59.675
59.6623
59.6495
59.6368
59.624
59.6112
59.5984
59.5856
59.5728
59.56
59.5471
59.5343
59.5214
59.5085
59.4957
59.4827
59.4698
59.4569
59.4439
59.431
59.418
59.405
59.392
59.379
59.366
59.353
59.3399
59.3268
59.3137
59.3006
59.2877
59.2877
63.1865
63.1865
62.9186
62.8716
62.8513
62.8395
62.8323
62.8283
62.8274
62.8295
62.8345
62.8421
62.8518
62.8632
62.8761
62.8903
62.9058
62.9224
62.94
62.9584
62.9776
62.9976
63.0181
63.0391
63.0605
63.0822
63.1041
63.126
63.1479
63.1697
63.1913
63.2126
63.2335
63.2539
63.2737
63.293
63.3115
63.3293
63.3463
63.3625
63.3777
63.3921
63.4055
63.4179
63.4293
63.4397
63.4491
63.4574
63.4648
63.4711
63.4764
63.4807
63.484
63.4863
63.4877
63.4882
63.4877
63.4864
63.4843
63.4813
63.4776
63.4731
63.4679
63.4621
63.4556
63.4484
63.4407
63.4325
63.4237
63.4144
63.4047
63.3946
63.3841
63.3732
63.3619
63.3504
63.3386
63.3265
63.3142
63.3017
63.2889
63.276
63.2629
63.2497
63.2364
63.2229
63.2094
63.1957
63.182
63.1683
63.1544
63.1406
63.1266
63.1127
63.0988
63.0848
63.0708
63.0568
63.0428
63.0289
63.0149
63.001
62.987
62.9731
62.9592
62.9453
62.9315
62.9176
62.9038
62.89
62.8763
62.8626
62.8489
62.8352
62.8216
62.808
62.7944
62.7809
62.7674
62.7539
62.7404
62.727
62.7136
62.7002
62.6869
62.6736
62.6603
62.6471
62.6338
62.6206
62.6074
62.5943
62.5812
62.5681
62.555
62.5419
62.5289
62.5159
62.5029
62.49
62.477
62.4641
62.4512
62.4383
62.4255
62.4127
62.3998
62.387
62.3743
62.3615
62.3488
62.336
62.3233
62.3106
62.298
62.2853
62.2727
62.2601
62.2474
62.2348
62.2223
62.2097
62.1972
62.1846
62.1721
62.1596
62.1471
62.1346
62.1221
62.1097
62.0972
62.0848
62.0724
62.06
62.0476
62.0352
62.0228
62.0104
61.9981
61.9857
61.9734
61.9611
61.9487
61.9364
61.9241
61.9118
61.8996
61.8873
61.875
61.8628
61.8505
61.8383
61.826
61.8138
61.8016
61.7894
61.7772
61.765
61.7528
61.7406
61.7284
61.7162
61.7041
61.6919
61.6797
61.6676
61.6555
61.6433
61.6312
61.619
61.6069
61.5948
61.5827
61.5706
61.5585
61.5463
61.5342
61.5221
61.51
61.498
61.4859
61.4738
61.4617
61.4496
61.4375
61.4255
61.4134
61.4013
61.3893
61.3772
61.3651
61.3531
61.341
61.329
61.3169
61.3049
61.2928
61.2808
61.2687
61.2567
61.2446
61.2326
61.2205
61.2085
61.1964
61.1844
61.1723
61.1603
61.1482
61.1362
61.1241
61.1121
61.1001
61.088
61.076
61.0639
61.0519
61.0398
61.0278
61.0157
61.0037
60.9916
60.9796
60.9675
60.9554
60.9434
60.9313
60.9192
60.9072
60.8951
60.883
60.871
60.8589
60.8468
60.8347
60.8227
60.8106
60.7985
60.7864
60.7743
60.7622
60.7501
60.738
60.7259
60.7138
60.7017
60.6895
60.6774
60.6653
60.6532
60.641
60.6289
60.6168
60.6046
60.5925
60.5803
60.5682
60.556
60.5438
60.5316
60.5195
60.5073
60.4951
60.4829
60.4707
60.4585
60.4463
60.4341
60.4219
60.4096
60.3974
60.3852
60.3729
60.3607
60.3484
60.3362
60.3239
60.3116
60.2993
60.287
60.2747
60.2624
60.2501
60.2378
60.2255
60.2132
60.2008
60.1885
60.1761
60.1638
60.1514
60.1391
60.1267
60.1143
60.1019
60.0895
60.0771
60.0646
60.0522
60.0398
60.0273
60.0149
60.0024
59.9899
59.9775
59.965
59.9525
59.94
59.9275
59.9149
59.9024
59.8898
59.8773
59.8647
59.8522
59.8396
59.827
59.8144
59.8018
59.7891
59.7765
59.7638
59.7512
59.7385
59.7258
59.7132
59.7005
59.6877
59.675
59.6623
59.6495
59.6368
59.624
59.6112
59.5984
59.5856
59.5728
59.56
59.5471
59.5343
59.5214
59.5085
59.4956
59.4827
59.4698
59.4569
59.4439
59.431
59.418
59.405
59.392
59.379
59.366
59.353
59.3399
59.3268
59.3137
59.3006
59.2877
59.2877
63.1705
63.1705
62.9215
62.8728
62.8519
62.8398
62.8325
62.8285
62.8275
62.8296
62.8346
62.8421
62.8518
62.8632
62.8761
62.8903
62.9058
62.9224
62.9399
62.9584
62.9776
62.9976
63.0181
63.0391
63.0605
63.0822
63.1041
63.126
63.1479
63.1697
63.1913
63.2126
63.2334
63.2538
63.2737
63.2929
63.3115
63.3293
63.3463
63.3624
63.3777
63.3921
63.4054
63.4179
63.4293
63.4397
63.4491
63.4574
63.4647
63.4711
63.4764
63.4806
63.484
63.4863
63.4877
63.4882
63.4877
63.4864
63.4843
63.4813
63.4776
63.4731
63.4679
63.4621
63.4555
63.4484
63.4407
63.4324
63.4237
63.4144
63.4047
63.3946
63.3841
63.3732
63.3619
63.3504
63.3386
63.3265
63.3142
63.3017
63.2889
63.276
63.2629
63.2497
63.2364
63.2229
63.2094
63.1957
63.182
63.1683
63.1544
63.1406
63.1266
63.1127
63.0988
63.0848
63.0708
63.0568
63.0428
63.0289
63.0149
63.001
62.987
62.9731
62.9592
62.9453
62.9315
62.9176
62.9038
62.89
62.8763
62.8626
62.8489
62.8352
62.8216
62.808
62.7944
62.7809
62.7674
62.7539
62.7404
62.727
62.7136
62.7002
62.6869
62.6736
62.6603
62.6471
62.6338
62.6206
62.6074
62.5943
62.5812
62.5681
62.555
62.5419
62.5289
62.5159
62.5029
62.49
62.477
62.4641
62.4512
62.4383
62.4255
62.4127
62.3998
62.387
62.3743
62.3615
62.3488
62.336
62.3233
62.3106
62.298
62.2853
62.2727
62.26
62.2474
62.2348
62.2223
62.2097
62.1972
62.1846
62.1721
62.1596
62.1471
62.1346
62.1221
62.1097
62.0972
62.0848
62.0724
62.06
62.0476
62.0352
62.0228
62.0104
61.9981
61.9857
61.9734
61.9611
61.9487
61.9364
61.9241
61.9118
61.8996
61.8873
61.875
61.8628
61.8505
61.8383
61.826
61.8138
61.8016
61.7894
61.7772
61.765
61.7528
61.7406
61.7284
61.7162
61.7041
61.6919
61.6797
61.6676
61.6554
61.6433
61.6312
61.619
61.6069
61.5948
61.5827
61.5706
61.5584
61.5463
61.5342
61.5221
61.51
61.498
61.4859
61.4738
61.4617
61.4496
61.4375
61.4255
61.4134
61.4013
61.3893
61.3772
61.3651
61.3531
61.341
61.329
61.3169
61.3049
61.2928
61.2808
61.2687
61.2567
61.2446
61.2326
61.2205
61.2085
61.1964
61.1844
61.1723
61.1603
61.1482
61.1362
61.1241
61.1121
61.1001
61.088
61.076
61.0639
61.0519
61.0398
61.0278
61.0157
61.0037
60.9916
60.9796
60.9675
60.9554
60.9434
60.9313
60.9192
60.9072
60.8951
60.883
60.871
60.8589
60.8468
60.8347
60.8227
60.8106
60.7985
60.7864
60.7743
60.7622
60.7501
60.738
60.7259
60.7138
60.7017
60.6895
60.6774
60.6653
60.6532
60.641
60.6289
60.6168
60.6046
60.5925
60.5803
60.5681
60.556
60.5438
60.5316
60.5195
60.5073
60.4951
60.4829
60.4707
60.4585
60.4463
60.4341
60.4219
60.4096
60.3974
60.3852
60.3729
60.3607
60.3484
60.3362
60.3239
60.3116
60.2993
60.287
60.2747
60.2624
60.2501
60.2378
60.2255
60.2132
60.2008
60.1885
60.1761
60.1638
60.1514
60.139
60.1267
60.1143
60.1019
60.0895
60.0771
60.0646
60.0522
60.0398
60.0273
60.0149
60.0024
59.9899
59.9775
59.965
59.9525
59.94
59.9275
59.9149
59.9024
59.8898
59.8773
59.8647
59.8521
59.8396
59.827
59.8144
59.8018
59.7891
59.7765
59.7638
59.7512
59.7385
59.7258
59.7132
59.7005
59.6877
59.675
59.6623
59.6495
59.6368
59.624
59.6112
59.5984
59.5856
59.5728
59.56
59.5471
59.5343
59.5214
59.5085
59.4956
59.4827
59.4698
59.4569
59.4439
59.431
59.418
59.405
59.392
59.379
59.366
59.353
59.3399
59.3268
59.3137
59.3006
59.2877
59.2877
63.1553
63.1553
62.9242
62.8739
62.8525
62.8402
62.8328
62.8287
62.8276
62.8296
62.8346
62.8421
62.8518
62.8632
62.8761
62.8903
62.9058
62.9224
62.9399
62.9584
62.9776
62.9975
63.0181
63.0391
63.0605
63.0822
63.104
63.126
63.1479
63.1697
63.1913
63.2125
63.2334
63.2538
63.2737
63.2929
63.3115
63.3293
63.3463
63.3624
63.3777
63.392
63.4054
63.4178
63.4293
63.4397
63.449
63.4574
63.4647
63.471
63.4763
63.4806
63.4839
63.4863
63.4877
63.4881
63.4877
63.4864
63.4843
63.4813
63.4776
63.4731
63.4679
63.4621
63.4555
63.4484
63.4407
63.4324
63.4237
63.4144
63.4047
63.3946
63.3841
63.3732
63.3619
63.3504
63.3386
63.3265
63.3142
63.3017
63.2889
63.276
63.2629
63.2497
63.2364
63.2229
63.2094
63.1957
63.182
63.1683
63.1544
63.1406
63.1266
63.1127
63.0988
63.0848
63.0708
63.0568
63.0428
63.0289
63.0149
63.001
62.987
62.9731
62.9592
62.9453
62.9315
62.9176
62.9038
62.89
62.8763
62.8626
62.8489
62.8352
62.8216
62.808
62.7944
62.7809
62.7674
62.7539
62.7404
62.727
62.7136
62.7002
62.6869
62.6736
62.6603
62.6471
62.6338
62.6206
62.6074
62.5943
62.5812
62.5681
62.555
62.5419
62.5289
62.5159
62.5029
62.49
62.477
62.4641
62.4512
62.4383
62.4255
62.4127
62.3998
62.387
62.3743
62.3615
62.3488
62.336
62.3233
62.3106
62.298
62.2853
62.2727
62.26
62.2474
62.2348
62.2223
62.2097
62.1972
62.1846
62.1721
62.1596
62.1471
62.1346
62.1221
62.1097
62.0972
62.0848
62.0724
62.06
62.0476
62.0352
62.0228
62.0104
61.9981
61.9857
61.9734
61.9611
61.9487
61.9364
61.9241
61.9118
61.8996
61.8873
61.875
61.8628
61.8505
61.8383
61.826
61.8138
61.8016
61.7894
61.7772
61.765
61.7528
61.7406
61.7284
61.7162
61.7041
61.6919
61.6797
61.6676
61.6554
61.6433
61.6312
61.619
61.6069
61.5948
61.5827
61.5706
61.5584
61.5463
61.5342
61.5221
61.51
61.498
61.4859
61.4738
61.4617
61.4496
61.4375
61.4255
61.4134
61.4013
61.3893
61.3772
61.3651
61.3531
61.341
61.329
61.3169
61.3049
61.2928
61.2808
61.2687
61.2567
61.2446
61.2326
61.2205
61.2085
61.1964
61.1844
61.1723
61.1603
61.1482
61.1362
61.1241
61.1121
61.1001
61.088
61.076
61.0639
61.0519
61.0398
61.0278
61.0157
61.0037
60.9916
60.9795
60.9675
60.9554
60.9434
60.9313
60.9192
60.9072
60.8951
60.883
60.871
60.8589
60.8468
60.8347
60.8227
60.8106
60.7985
60.7864
60.7743
60.7622
60.7501
60.738
60.7259
60.7138
60.7017
60.6895
60.6774
60.6653
60.6532
60.641
60.6289
60.6168
60.6046
60.5925
60.5803
60.5681
60.556
60.5438
60.5316
60.5195
60.5073
60.4951
60.4829
60.4707
60.4585
60.4463
60.4341
60.4219
60.4096
60.3974
60.3852
60.3729
60.3607
60.3484
60.3361
60.3239
60.3116
60.2993
60.287
60.2747
60.2624
60.2501
60.2378
60.2255
60.2132
60.2008
60.1885
60.1761
60.1638
60.1514
60.139
60.1267
60.1143
60.1019
60.0895
60.0771
60.0646
60.0522
60.0398
60.0273
60.0149
60.0024
59.9899
59.9775
59.965
59.9525
59.94
59.9274
59.9149
59.9024
59.8898
59.8773
59.8647
59.8521
59.8396
59.827
59.8144
59.8017
59.7891
59.7765
59.7638
59.7512
59.7385
59.7258
59.7131
59.7004
59.6877
59.675
59.6623
59.6495
59.6368
59.624
59.6112
59.5984
59.5856
59.5728
59.56
59.5471
59.5343
59.5214
59.5085
59.4956
59.4827
59.4698
59.4569
59.4439
59.431
59.418
59.405
59.392
59.379
59.366
59.3529
59.3399
59.3268
59.3137
59.3006
59.2877
59.2877
63.1413
63.1413
62.9268
62.875
62.8531
62.8406
62.833
62.8289
62.8278
62.8297
62.8346
62.8422
62.8518
62.8632
62.8761
62.8903
62.9058
62.9224
62.9399
62.9584
62.9776
62.9975
63.0181
63.0391
63.0605
63.0822
63.104
63.126
63.1479
63.1697
63.1913
63.2125
63.2334
63.2538
63.2737
63.2929
63.3114
63.3292
63.3462
63.3624
63.3777
63.392
63.4054
63.4178
63.4292
63.4396
63.449
63.4574
63.4647
63.471
63.4763
63.4806
63.4839
63.4863
63.4877
63.4881
63.4877
63.4864
63.4843
63.4813
63.4776
63.4731
63.4679
63.462
63.4555
63.4484
63.4407
63.4324
63.4237
63.4144
63.4047
63.3946
63.384
63.3732
63.3619
63.3504
63.3386
63.3265
63.3142
63.3017
63.2889
63.276
63.2629
63.2497
63.2364
63.2229
63.2094
63.1957
63.182
63.1683
63.1544
63.1406
63.1266
63.1127
63.0988
63.0848
63.0708
63.0568
63.0429
63.0289
63.0149
63.001
62.987
62.9731
62.9592
62.9453
62.9315
62.9176
62.9038
62.89
62.8763
62.8626
62.8489
62.8352
62.8216
62.808
62.7944
62.7809
62.7674
62.7539
62.7404
62.727
62.7136
62.7002
62.6869
62.6736
62.6603
62.6471
62.6338
62.6206
62.6074
62.5943
62.5812
62.5681
62.555
62.5419
62.5289