# vtk DataFile Version 2.0
FlowField
ASCII
DATASET STRUCTURED_GRID
DIMENSIONS 400 1 200
POINTS 80000 float
0 0 0
0.08 0 0
0.16 0 0
0.24 0 0
0.32 0 0
0.4 0 0
0.48 0 0
0.56 0 0
0.64 0 0
0.72 0 0
0.8 0 0
0.88 0 0
0.96 0 0
1.04 0 0
1.12 0 0
1.2 0 0
1.28 0 0
1.36 0 0
1.44 0 0
1.52 0 0
1.6 0 0
1.68 0 0
1.76 0 0
1.84 0 0
1.92 0 0
2 0 0
2.08 0 0
2.16 0 0
2.24 0 0
2.32 0 0
2.4 0 0
2.48 0 0
2.56 0 0
2.64 0 0
2.72 0 0
2.8 0 0
2.88 0 0
2.96 0 0
3.04 0 0
3.12 0 0
3.2 0 0
3.28 0 0
3.36 0 0
3.44 0 0
3.52 0 0
3.6 0 0
3.68 0 0
3.76 0 0
3.84 0 0
3.92 0 0
4 0 0
4.08 0 0
4.16 0 0
4.24 0 0
4.32 0 0
4.4 0 0
4.48 0 0
4.56 0 0
4.64 0 0
4.72 0 0
4.8 0 0
4.88 0 0
4.96 0 0
5.04 0 0
5.12 0 0
5.2 0 0
5.28 0 0
5.36 0 0
5.44 0 0
5.52 0 0
5.6 0 0
5.68 0 0
5.76 0 0
5.84 0 0
5.92 0 0
6 0 0
6.08 0 0
6.16 0 0
6.24 0 0
6.32 0 0
6.4 0 0
6.48 0 0
6.56 0 0
6.64 0 0
6.72 0 0
6.8 0 0
6.88 0 0
6.96 0 0
7.04 0 0
7.12 0 0
7.2 0 0
7.28 0 0
7.36 0 0
7.44 0 0
7.52 0 0
7.6 0 0
7.68 0 0
7.76 0 0
7.84 0 0
7.92 0 0
8 0 0
8.08 0 0
8.16 0 0
8.24 0 0
8.32 0 0
8.4 0 0
8.48 0 0
8.56 0 0
8.64 0 0
8.72 0 0
8.8 0 0
8.88 0 0
8.96 0 0
9.04 0 0
9.12 0 0
9.2 0 0
9.28 0 0
9.36 0 0
9.44 0 0
9.52 0 0
9.6 0 0
9.68 0 0
9.76 0 0
9.84 0 0
9.92 0 0
10 0 0
10.08 0 0
10.16 0 0
10.24 0 0
10.32 0 0
10.4 0 0
10.48 0 0
10.56 0 0
10.64 0 0
10.72 0 0
10.8 0 0
10.88 0 0
10.96 0 0
11.04 0 0
11.12 0 0
11.2 0 0
11.28 0 0
11.36 0 0
11.44 0 0
11.52 0 0
11.6 0 0
11.68 0 0
11.76 0 0
11.84 0 0
11.92 0 0
12 0 0
12.08 0 0
12.16 0 0
12.24 0 0
12.32 0 0
12.4 0 0
12.48 0 0
12.56 0 0
12.64 0 0
12.72 0 0
12.8 0 0
12.88 0 0
12.96 0 0
13.04 0 0
13.12 0 0
13.2 0 0
13.28 0 0
13.36 0 0
13.44 0 0
13.52 0 0
13.6 0 0
13.68 0 0
13.76 0 0
13.84 0 0
13.92 0 0
14 0 0
14.08 0 0
14.16 0 0
14.24 0 0
14.32 0 0
14.4 0 0
14.48 0 0
14.56 0 0
14.64 0 0
14.72 0 0
14.8 0 0
14.88 0 0
14.96 0 0
15.04 0 0
15.12 0 0
15.2 0 0
15.28 0 0
15.36 0 0
15.44 0 0
15.52 0 0
15.6 0 0
15.68 0 0
15.76 0 0
15.84 0 0
15.92 0 0
16 0 0
16.08 0 0
16.16 0 0
16.24 0 0
16.32 0 0
16.4 0 0
16.48 0 0
16.56 0 0
16.64 0 0
16.72 0 0
16.8 0 0
16.88 0 0
16.96 0 0
17.04 0 0
17.12 0 0
17.2 0 0
17.28 0 0
17.36 0 0
17.44 0 0
17.52 0 0
17.6 0 0
17.68 0 0
17.76 0 0
17.84 0 0
17.92 0 0
18 0 0
18.08 0 0
18.16 0 0
18.24 0 0
18.32 0 0
18.4 0 0
18.48 0 0
18.56 0 0
18.64 0 0
18.72 0 0
18.8 0 0
18.88 0 0
18.96 0 0
19.04 0 0
19.12 0 0
19.2 0 0
19.28 0 0
19.36 0 0
19.44 0 0
19.52 0 0
19.6 0 0
19.68 0 0
19.76 0 0
19.84 0 0
19.92 0 0
20 0 0
20.08 0 0
20.16 0 0
20.24 0 0
20.32 0 0
20.4 0 0
20.48 0 0
20.56 0 0
20.64 0 0
20.72 0 0
20.8 0 0
20.88 0 0
20.96 0 0
21.04 0 0
21.12 0 0
21.2 0 0
21.28 0 0
21.36 0 0
21.44 0 0
21.52 0 0
21.6 0 0
21.68 0 0
21.76 0 0
21.84 0 0
21.92 0 0
22 0 0
22.08 0 0
22.16 0 0
22.24 0 0
22.32 0 0
22.4 0 0
22.48 0 0
22.56 0 0
22.64 0 0
22.72 0 0
22.8 0 0
22.88 0 0
22.96 0 0
23.04 0 0
23.12 0 0
23.2 0 0
23.28 0 0
23.36 0 0
23.44 0 0
23.52 0 0
23.6 0 0
23.68 0 0
23.76 0 0
23.84 0 0
23.92 0 0
24 0 0
24.08 0 0
24.16 0 0
24.24 0 0
24.32 0 0
24.4 0 0
24.48 0 0
24.56 0 0
24.64 0 0
24.72 0 0
24.8 0 0
24.88 0 0
24.96 0 0
25.04 0 0
25.12 0 0
25.2 0 0
25.28 0 0
25.36 0 0
25.44 0 0
25.52 0 0
25.6 0 0
25.68 0 0
25.76 0 0
25.84 0 0
25.92 0 0
26 0 0
26.08 0 0
26.16 0 0
26.24 0 0
26.32 0 0
26.4 0 0
26.48 0 0
26.56 0 0
26.64 0 0
26.72 0 0
26.8 0 0
26.88 0 0
26.96 0 0
27.04 0 0
27.12 0 0
27.2 0 0
27.28 0 0
27.36 0 0
27.44 0 0
27.52 0 0
27.6 0 0
27.68 0 0
27.76 0 0
27.84 0 0
27.92 0 0
28 0 0
28.08 0 0
28.16 0 0
28.24 0 0
28.32 0 0
28.4 0 0
28.48 0 0
28.56 0 0
28.64 0 0
28.72 0 0
28.8 0 0
28.88 0 0
28.96 0 0
29.04 0 0
29.12 0 0
29.2 0 0
29.28 0 0
29.36 0 0
29.44 0 0
29.52 0 0
29.6 0 0
29.68 0 0
29.76 0 0
29.84 0 0
29.92 0 0
30 0 0
30.08 0 0
30.16 0 0
30.24 0 0
30.32 0 0
30.4 0 0
30.48 0 0
30.56 0 0
30.64 0 0
30.72 0 0
30.8 0 0
30.88 0 0
30.96 0 0
31.04 0 0
31.12 0 0
31.2 0 0
31.28 0 0
31.36 0 0
31.44 0 0
31.52 0 0
31.6 0 0
31.68 0 0
31.76 0 0
31.84 0 0
31.92 0 0
0 0.005 0
0.08 0.005 0
0.16 0.005 0
0.24 0.005 0
0.32 0.005 0
0.4 0.005 0
0.48 0.005 0
0.56 0.005 0
0.64 0.005 0
0.72 0.005 0
0.8 0.005 0
0.88 0.005 0
0.96 0.005 0
1.04 0.005 0
1.12 0.005 0
1.2 0.005 0
1.28 0.005 0
1.36 0.005 0
1.44 0.005 0
1.52 0.005 0
1.6 0.005 0
1.68 0.005 0
1.76 0.005 0
1.84 0.005 0
1.92 0.005 0
2 0.005 0
2.08 0.005 0
2.16 0.005 0
2.24 0.005 0
2.32 0.005 0
2.4 0.005 0
2.48 0.005 0
2.56 0.005 0
2.64 0.005 0
2.72 0.005 0
2.8 0.005 0
2.88 0.005 0
2.96 0.005 0
3.04 0.005 0
3.12 0.005 0
3.2 0.005 0
3.28 0.005 0
3.36 0.005 0
3.44 0.005 0
3.52 0.005 0
3.6 0.005 0
3.68 0.005 0
3.76 0.005 0
3.84 0.005 0
3.92 0.005 0
4 0.005 0
4.08 0.005 0
4.16 0.005 0
4.24 0.005 0
4.32 0.005 0
4.4 0.005 0
4.48 0.005 0
4.56 0.005 0
4.64 0.005 0
4.72 0.005 0
4.8 0.005 0
4.88 0.005 0
4.96 0.005 0
5.04 0.005 0
5.12 0.005 0
5.2 0.005 0
5.28 0.005 0
5.36 0.005 0
5.44 0.005 0
5.52 0.005 0
5.6 0.005 0
5.68 0.005 0
5.76 0.005 0
5.84 0.005 0
5.92 0.005 0
6 0.005 0
6.08 0.005 0
6.16 0.005 0
6.24 0.005 0
6.32 0.005 0
6.4 0.005 0
6.48 0.005 0
6.56 0.005 0
6.64 0.005 0
6.72 0.005 0
6.8 0.005 0
6.88 0.005 0
6.96 0.005 0
7.04 0.005 0
7.12 0.005 0
7.2 0.005 0
7.28 0.005 0
7.36 0.005 0
7.44 0.005 0
7.52 0.005 0
7.6 0.005 0
7.68 0.005 0
7.76 0.005 0
7.84 0.005 0
7.92 0.005 0
8 0.005 0
8.08 0.005 0
8.16 0.005 0
8.24 0.005 0
8.32 0.005 0
8.4 0.005 0
8.48 0.005 0
8.56 0.005 0
8.64 0.005 0
8.72 0.005 0
8.8 0.005 0
8.88 0.005 0
8.96 0.005 0
9.04 0.005 0
9.12 0.005 0
9.2 0.005 0
9.28 0.005 0
9.36 0.005 0
9.44 0.005 0
9.52 0.005 0
9.6 0.005 0
9.68 0.005 0
9.76 0.005 0
9.84 0.005 0
9.92 0.005 0
10 0.005 0
10.08 0.005 0
10.16 0.005 0
10.24 0.005 0
10.32 0.005 0
10.4 0.005 0
10.48 0.005 0
10.56 0.005 0
10.64 0.005 0
10.72 0.005 0
10.8 0.005 0
10.88 0.005 0
10.96 0.005 0
11.04 0.005 0
11.12 0.005 0
11.2 0.005 0
11.28 0.005 0
11.36 0.005 0
11.44 0.005 0
11.52 0.005 0
11.6 0.005 0
11.68 0.005 0
11.76 0.005 0
11.84 0.005 0
11.92 0.005 0
12 0.005 0
12.08 0.005 0
12.16 0.005 0
12.24 0.005 0
12.32 0.005 0
12.4 0.005 0
12.48 0.005 0
12.56 0.005 0
12.64 0.005 0
12.72 0.005 0
12.8 0.005 0
12.88 0.005 0
12.96 0.005 0
13.04 0.005 0
13.12 0.005 0
13.2 0.005 0
13.28 0.005 0
13.36 0.005 0
13.44 0.005 0
13.52 0.005 0
13.6 0.005 0
13.68 0.005 0
13.76 0.005 0
13.84 0.005 0
13.92 0.005 0
14 0.005 0
14.08 0.005 0
14.16 0.005 0
14.24 0.005 0
14.32 0.005 0
14.4 0.005 0
14.48 0.005 0
14.56 0.005 0
14.64 0.005 0
14.72 0.005 0
14.8 0.005 0
14.88 0.005 0
14.96 0.005 0
15.04 0.005 0
15.12 0.005 0
15.2 0.005 0
15.28 0.005 0
15.36 0.005 0
15.44 0.005 0
15.52 0.005 0
15.6 0.005 0
15.68 0.005 0
15.76 0.005 0
15.84 0.005 0
15.92 0.005 0
16 0.005 0
16.08 0.005 0
16.16 0.005 0
16.24 0.005 0
16.32 0.005 0
16.4 0.005 0
16.48 0.005 0
16.56 0.005 0
16.64 0.005 0
16.72 0.005 0
16.8 0.005 0
16.88 0.005 0
16.96 0.005 0
17.04 0.005 0
17.12 0.005 0
17.2 0.005 0
17.28 0.005 0
17.36 0.005 0
17.44 0.005 0
17.52 0.005 0
17.6 0.005 0
17.68 0.005 0
17.76 0.005 0
17.84 0.005 0
17.92 0.005 0
18 0.005 0
18.08 0.005 0
18.16 0.005 0
18.24 0.005 0
18.32 0.005 0
18.4 0.005 0
18.48 0.005 0
18.56 0.005 0
18.64 0.005 0
18.72 0.005 0
18.8 0.005 0
18.88 0.005 0
18.96 0.005 0
19.04 0.005 0
19.12 0.005 0
19.2 0.005 0
19.28 0.005 0
19.36 0.005 0
19.44 0.005 0
19.52 0.005 0
19.6 0.005 0
19.68 0.005 0
19.76 0.005 0
19.84 0.005 0
19.92 0.005 0
20 0.005 0
20.08 0.005 0
20.16 0.005 0
20.24 0.005 0
20.32 0.005 0
20.4 0.005 0
20.48 0.005 0
20.56 0.005 0
20.64 0.005 0
20.72 0.005 0
20.8 0.005 0
20.88 0.005 0
20.96 0.005 0
21.04 0.005 0
21.12 0.005 0
21.2 0.005 0
21.28 0.005 0
21.36 0.005 0
21.44 0.005 0
21.52 0.005 0
21.6 0.005 0
21.68 0.005 0
21.76 0.005 0
21.84 0.005 0
21.92 0.005 0
22 0.005 0
22.08 0.005 0
22.16 0.005 0
22.24 0.005 0
22.32 0.005 0
22.4 0.005 0
22.48 0.005 0
22.56 0.005 0
22.64 0.005 0
22.72 0.005 0
22.8 0.005 0
22.88 0.005 0
22.96 0.005 0
23.04 0.005 0
23.12 0.005 0
23.2 0.005 0
23.28 0.005 0
23.36 0.005 0
23.44 0.005 0
23.52 0.005 0
23.6 0.005 0
23.68 0.005 0
23.76 0.005 0
23.84 0.005 0
23.92 0.005 0
24 0.005 0
24.08 0.005 0
24.16 0.005 0
24.24 0.005 0
24.32 0.005 0
24.4 0.005 0
24.48 0.005 0
24.56 0.005 0
24.64 0.005 0
24.72 0.005 0
24.8 0.005 0
24.88 0.005 0
24.96 0.005 0
25.04 0.005 0
25.12 0.005 0
25.2 0.005 0
25.28 0.005 0
25.36 0.005 0
25.44 0.005 0
25.52 0.005 0
25.6 0.005 0
25.68 0.005 0
25.76 0.005 0
25.84 0.005 0
25.92 0.005 0
26 0.005 0
26.08 0.005 0
26.16 0.005 0
26.24 0.005 0
26.32 0.005 0
26.4 0.005 0
26.48 0.005 0
26.56 0.005 0
26.64 0.005 0
26.72 0.005 0
26.8 0.005 0
26.88 0.005 0
26.96 0.005 0
27.04 0.005 0
27.12 0.005 0
27.2 0.005 0
27.28 0.005 0
27.36 0.005 0
27.44 0.005 0
27.52 0.005 0
27.6 0.005 0
27.68 0.005 0
27.76 0.005 0
27.84 0.005 0
27.92 0.005 0
28 0.005 0
28.08 0.005 0
28.16 0.005 0
28.24 0.005 0
28.32 0.005 0
28.4 0.005 0
28.48 0.005 0
28.56 0.005 0
28.64 0.005 0
28.72 0.005 0
28.8 0.005 0
28.88 0.005 0
28.96 0.005 0
29.04 0.005 0
29.12 0.005 0
29.2 0.005 0
29.28 0.005 0
29.36 0.005 0
29.44 0.005 0
29.52 0.005 0
29.6 0.005 0
29.68 0.005 0
29.76 0.005 0
29.84 0.005 0
29.92 0.005 0
30 0.005 0
30.08 0.005 0
30.16 0.005 0
30.24 0.005 0
30.32 0.005 0
30.4 0.005 0
30.48 0.005 0
30.56 0.005 0
30.64 0.005 0
30.72 0.005 0
30.8 0.005 0
30.88 0.005 0
30.96 0.005 0
31.04 0.005 0
31.12 0.005 0
31.2 0.005 0
31.28 0.005 0
31.36 0.005 0
31.44 0.005 0
31.52 0.005 0
31.6 0.005 0
31.68 0.005 0
31.76 0.005 0
31.84 0.005 0
31.92 0.005 0
0 0.01 0
0.08 0.01 0
0.16 0.01 0
0.24 0.01 0
0.32 0.01 0
0.4 0.01 0
0.48 0.01 0
0.56 0.01 0
0.64 0.01 0
0.72 0.01 0
0.8 0.01 0
0.88 0.01 0
0.96 0.01 0
1.04 0.01 0
1.12 0.01 0
1.2 0.01 0
1.28 0.01 0
1.36 0.01 0
1.44 0.01 0
1.52 0.01 0
1.6 0.01 0
1.68 0.01 0
1.76 0.01 0
1.84 0.01 0
1.92 0.01 0
2 0.01 0
2.08 0.01 0
2.16 0.01 0
2.24 0.01 0
2.32 0.01 0
2.4 0.01 0
2.48 0.01 0
2.56 0.01 0
2.64 0.01 0
2.72 0.01 0
2.8 0.01 0
2.88 0.01 0
2.96 0.01 0
3.04 0.01 0
3.12 0.01 0
3.2 0.01 0
3.28 0.01 0
3.36 0.01 0
3.44 0.01 0
3.52 0.01 0
3.6 0.01 0
3.68 0.01 0
3.76 0.01 0
3.84 0.01 0
3.92 0.01 0
4 0.01 0
4.08 0.01 0
4.16 0.01 0
4.24 0.01 0
4.32 0.01 0
4.4 0.01 0
4.48 0.01 0
4.56 0.01 0
4.64 0.01 0
4.72 0.01 0
4.8 0.01 0
4.88 0.01 0
4.96 0.01 0
5.04 0.01 0
5.12 0.01 0
[...]
POINT_DATA 80000

SCALARS p float 1
LOOKUP_TABLE default
1
58.5765
58.2743
58.233
58.213
58.1989
58.1876
58.1776
58.1687
58.1609
58.1542
58.1487
58.1441
58.1401
58.1366
58.1334
58.1305
58.1279
58.1256
58.1235
58.1218
58.1203
58.1191
58.1183
58.1178
58.1177
58.118
58.1188
58.12
58.1216
58.1237
58.1264
58.1296
58.1333
58.1376
58.1426
58.1481
58.1544
58.1613
58.1689
58.1773
58.1865
58.1966
58.2074
58.2192
58.2318
58.2455
58.2601
58.2757
58.2924
58.3101
58.329
58.349
58.3703
58.3927
58.4164
58.4413
58.4675
58.4951
58.524
58.5543
58.5859
58.6189
58.6534
58.6893
58.7266
58.7653
58.8055
58.847
58.89
58.9344
58.9802
59.0274
59.0759
59.1257
59.1768
59.2292
59.2828
59.3375
59.3933
59.4503
59.5082
59.567
59.6267
59.6873
59.7485
59.8105
59.873
59.936
59.9995
60.0632
60.1273
60.1915
60.2558
60.32
60.3842
60.4481
60.5118
60.5751
60.638
60.7003
60.762
60.8229
60.8831
60.9424
61.0007
61.058
61.1143
61.1694
61.2233
61.2759
61.3271
61.377
61.4255
61.4725
61.5181
61.5621
61.6045
61.6454
61.6847
61.7224
61.7585
61.7929
61.8258
61.857
61.8866
61.9146
61.9411
61.9659
61.9893
62.0111
62.0314
62.0503
62.0677
62.0838
62.0985
62.1118
62.1239
62.1347
62.1443
62.1528
62.1601
62.1664
62.1716
62.1758
62.1791
62.1815
62.183
62.1837
62.1836
62.1827
62.1811
62.1789
62.176
62.1726
62.1686
62.164
62.159
62.1534
62.1475
62.1411
62.1344
62.1273
62.1199
62.1122
62.1042
62.0959
62.0874
62.0787
62.0697
62.0606
62.0513
62.0418
62.0322
62.0224
62.0126
62.0026
61.9925
61.9823
61.9721
61.9617
61.9513
61.9408
61.9303
61.9197
61.9091
61.8984
61.8877
61.877
61.8662
61.8555
61.8446
61.8338
61.823
61.8121
61.8012
61.7903
61.7794
61.7685
61.7576
61.7466
61.7357
61.7247
61.7138
61.7028
61.6919
61.6809
61.67
61.659
61.648
61.6371
61.6261
61.6151
61.6041
61.5932
61.5822
61.5712
61.5602
61.5493
61.5383
61.5273
61.5163
61.5053
61.4944
61.4834
61.4724
61.4614
61.4504
61.4395
61.4285
61.4175
61.4065
61.3955
61.3845
61.3735
61.3626
61.3516
61.3406
61.3296
61.3186
61.3076
61.2966
61.2856
61.2746
61.2636
61.2526
61.2416
61.2306
61.2196
61.2086
61.1976
61.1866
61.1755
61.1645
61.1535
61.1425
61.1315
61.1205
61.1094
61.0984
61.0874
61.0763
61.0653
61.0543
61.0432
61.0322
61.0211
61.0101
60.999
60.988
60.9769
60.9659
60.9548
60.9437
60.9327
60.9216
60.9105
60.8994
60.8884
60.8773
60.8662
60.8551
60.844
60.8329
60.8218
60.8107
60.7996
60.7885
60.7773
60.7662
60.7551
60.744
60.7328
60.7217
60.7105
60.6994
60.6883
60.6771
60.6659
60.6548
60.6436
60.6324
60.6213
60.6101
60.5989
60.5877
60.5765
60.5653
60.5541
60.5429
60.5317
60.5204
60.5092
60.498
60.4868
60.4755
60.4643
60.453
60.4418
60.4305
60.4192
60.408
60.3967
60.3854
60.3741
60.3628
60.3515
60.3402
60.3289
60.3176
60.3062
60.2949
60.2836
60.2722
60.2609
60.2495
60.2382
60.2268
60.2154
60.204
60.1926
60.1813
60.1699
60.1584
60.147
60.1356
60.1242
60.1127
60.1013
60.0899
60.0784
60.0669
60.0555
60.044
60.0325
60.021
60.0095
59.998
59.9865
59.975
59.9634
59.9519
59.9403
59.9288
59.9172
59.9057
59.8941
59.8825
59.8709
59.8593
59.8477
59.8361
59.8244
59.8128
59.8012
59.7895
59.7778
59.7662
59.7545
59.7428
59.7311
59.7194
59.7077
59.696
59.6842
59.6725
59.6607
59.649
59.6372
59.6254
59.6136
59.6018
59.59
59.5782
59.5663
59.5545
59.5427
59.5308
59.5191
0.5
58.5765
58.5765
58.2743
58.233
58.213
58.1989
58.1876
58.1776
58.1687
58.1609
58.1542
58.1487
58.1441
58.1401
58.1366
58.1334
58.1305
58.1279
58.1256
58.1235
58.1218
58.1203
58.1191
58.1183
58.1178
58.1177
58.118
58.1188
58.12
58.1216
58.1237
58.1264
58.1296
58.1333
58.1376
58.1426
58.1481
58.1544
58.1613
58.1689
58.1773
58.1865
58.1966
58.2074
58.2192
58.2318
58.2455
58.2601
58.2757
58.2924
58.3101
58.329
58.349
58.3703
58.3927
58.4164
58.4413
58.4675
58.4951
58.524
58.5543
58.5859
58.6189
58.6534
58.6893
58.7266
58.7653
58.8055
58.847
58.89
58.9344
58.9802
59.0274
59.0759
59.1257
59.1768
59.2292
59.2828
59.3375
59.3933
59.4503
59.5082
59.567
59.6267
59.6873
59.7485
59.8105
59.873
59.936
59.9995
60.0632
60.1273
60.1915
60.2558
60.32
60.3842
60.4481
60.5118
60.5751
60.638
60.7003
60.762
60.8229
60.8831
60.9424
61.0007
61.058
61.1143
61.1694
61.2233
61.2759
61.3271
61.377
61.4255
61.4725
61.5181
61.5621
61.6045
61.6454
61.6847
61.7224
61.7585
61.7929
61.8258
61.857
61.8866
61.9146
61.9411
61.9659
61.9893
62.0111
62.0314
62.0503
62.0677
62.0838
62.0985
62.1118
62.1239
62.1347
62.1443
62.1528
62.1601
62.1664
62.1716
62.1758
62.1791
62.1815
62.183
62.1837
62.1836
62.1827
62.1811
62.1789
62.176
62.1726
62.1686
62.164
62.159
62.1534
62.1475
62.1411
62.1344
62.1273
62.1199
62.1122
62.1042
62.0959
62.0874
62.0787
62.0697
62.0606
62.0513
62.0418
62.0322
62.0224
62.0126
62.0026
61.9925
61.9823
61.9721
61.9617
61.9513
61.9408
61.9303
61.9197
61.9091
61.8984
61.8877
61.877
61.8662
61.8555
61.8446
61.8338
61.823
61.8121
61.8012
61.7903
61.7794
61.7685
61.7576
61.7466
61.7357
61.7247
61.7138
61.7028
61.6919
61.6809
61.67
61.659
61.648
61.6371
61.6261
61.6151
61.6041
61.5932
61.5822
61.5712
61.5602
61.5493
61.5383
61.5273
61.5163
61.5053
61.4944
61.4834
61.4724
61.4614
61.4504
61.4395
61.4285
61.4175
61.4065
61.3955
61.3845
61.3735
61.3626
61.3516
61.3406
61.3296
61.3186
61.3076
61.2966
61.2856
61.2746
61.2636
61.2526
61.2416
61.2306
61.2196
61.2086
61.1976
61.1866
61.1755
61.1645
61.1535
61.1425
61.1315
61.1205
61.1094
61.0984
61.0874
61.0763
61.0653
61.0543
61.0432
61.0322
61.0211
61.0101
60.999
60.988
60.9769
60.9659
60.9548
60.9437
60.9327
60.9216
60.9105
60.8994
60.8884
60.8773
60.8662
60.8551
60.844
60.8329
60.8218
60.8107
60.7996
60.7885
60.7773
60.7662
60.7551
60.744
60.7328
60.7217
60.7105
60.6994
60.6883
60.6771
60.6659
60.6548
60.6436
60.6324
60.6213
60.6101
60.5989
60.5877
60.5765
60.5653
60.5541
60.5429
60.5317
60.5204
60.5092
60.498
60.4868
60.4755
60.4643
60.453
60.4418
60.4305
60.4192
60.408
60.3967
60.3854
60.3741
60.3628
60.3515
60.3402
60.3289
60.3176
60.3062
60.2949
60.2836
60.2722
60.2609
60.2495
60.2382
60.2268
60.2154
60.204
60.1926
60.1813
60.1699
60.1584
60.147
60.1356
60.1242
60.1127
60.1013
60.0899
60.0784
60.0669
60.0555
60.044
60.0325
60.021
60.0095
59.998
59.9865
59.975
59.9634
59.9519
59.9403
59.9288
59.9172
59.9057
59.8941
59.8825
59.8709
59.8593
59.8477
59.8361
59.8244
59.8128
59.8012
59.7895
59.7778
59.7662
59.7545
59.7428
59.7311
59.7194
59.7077
59.696
59.6842
59.6725
59.6607
59.649
59.6372
59.6254
59.6136
59.6018
59.59
59.5782
59.5663
59.5545
59.5427
59.5308
59.5191
59.5191
58.5618
58.5618
58.2782
58.2343
58.2136
58.1993
58.1878
58.1778
58.1689
58.161
58.1543
58.1488
58.1441
58.1401
58.1366
58.1334
58.1305
58.1279
58.1256
58.1235
58.1218
58.1203
58.1191
58.1183
58.1178
58.1177
58.118
58.1188
58.1199
58.1216
58.1237
58.1264
58.1295
58.1333
58.1376
58.1425
58.1481
58.1543
58.1613
58.1689
58.1773
58.1865
58.1965
58.2074
58.2191
58.2318
58.2454
58.26
58.2757
58.2923
58.3101
58.329
58.349
58.3702
58.3926
58.4163
58.4413
58.4675
58.495
58.5239
58.5542
58.5859
58.6189
58.6533
58.6892
58.7265
58.7652
58.8054
58.847
58.89
58.9344
58.9802
59.0273
59.0758
59.1256
59.1767
59.2291
59.2827
59.3374
59.3932
59.4501
59.5081
59.5669
59.6266
59.6872
59.7484
59.8104
59.8729
59.9359
59.9993
60.0631
60.1272
60.1913
60.2556
60.3199
60.384
60.448
60.5117
60.575
60.6378
60.7001
60.7618
60.8228
60.8829
60.9422
61.0006
61.0579
61.1142
61.1693
61.2231
61.2757
61.327
61.3769
61.4254
61.4724
61.518
61.562
61.6044
61.6453
61.6846
61.7223
61.7584
61.7928
61.8257
61.8569
61.8865
61.9145
61.941
61.9659
61.9892
62.011
62.0314
62.0502
62.0677
62.0837
62.0984
62.1118
62.1238
62.1347
62.1443
62.1527
62.1601
62.1663
62.1716
62.1758
62.1791
62.1815
62.183
62.1836
62.1835
62.1827
62.1811
62.1789
62.176
62.1726
62.1685
62.164
62.1589
62.1534
62.1475
62.1411
62.1344
62.1273
62.1199
62.1122
62.1042
62.0959
62.0874
62.0786
62.0697
62.0606
62.0513
62.0418
62.0322
62.0224
62.0126
62.0026
61.9925
61.9823
61.9721
61.9617
61.9513
61.9408
61.9303
61.9197
61.9091
61.8984
61.8877
61.877
61.8662
61.8555
61.8446
61.8338
61.823
61.8121
61.8012
61.7903
61.7794
61.7685
61.7576
61.7466
61.7357
61.7247
61.7138
61.7028
61.6919
61.6809
61.67
61.659
61.648
61.6371
61.6261
61.6151
61.6041
61.5932
61.5822
61.5712
61.5602
61.5493
61.5383
61.5273
61.5163
61.5053
61.4944
61.4834
61.4724
61.4614
61.4504
61.4395
61.4285
61.4175
61.4065
61.3955
61.3845
61.3735
61.3626
61.3516
61.3406
61.3296
61.3186
61.3076
61.2966
61.2856
61.2746
61.2636
61.2526
61.2416
61.2306
61.2196
61.2086
61.1976
61.1866
61.1755
61.1645
61.1535
61.1425
61.1315
61.1205
61.1094
61.0984
61.0874
61.0763
61.0653
61.0543
61.0432
61.0322
61.0211
61.0101
60.999
60.988
60.9769
60.9659
60.9548
60.9437
60.9327
60.9216
60.9105
60.8994
60.8884
60.8773
60.8662
60.8551
60.844
60.8329
60.8218
60.8107
60.7996
60.7885
60.7773
60.7662
60.7551
60.744
60.7328
60.7217
60.7106
60.6994
60.6883
60.6771
60.6659
60.6548
60.6436
60.6324
60.6213
60.6101
60.5989
60.5877
60.5765
60.5653
60.5541
60.5429
60.5317
60.5204
60.5092
60.498
60.4868
60.4755
60.4643
60.453
60.4418
60.4305
60.4192
60.408
60.3967
60.3854
60.3741
60.3628
60.3515
60.3402
60.3289
60.3176
60.3062
60.2949
60.2836
60.2722
60.2609
60.2495
60.2382
60.2268
60.2154
60.204
60.1927
60.1813
60.1699
60.1584
60.147
60.1356
60.1242
60.1127
60.1013
60.0899
60.0784
60.0669
60.0555
60.044
60.0325
60.021
60.0095
59.998
59.9865
59.975
59.9634
59.9519
59.9403
59.9288
59.9172
59.9057
59.8941
59.8825
59.8709
59.8593
59.8477
59.8361
59.8244
59.8128
59.8012
59.7895
59.7778
59.7662
59.7545
59.7428
59.7311
59.7194
59.7077
59.696
59.6842
59.6725
59.6607
59.649
59.6372
59.6254
59.6136
59.6018
59.59
59.5782
59.5663
59.5545
59.5427
59.5308
59.5191
59.5191
58.5459
58.5459
58.2814
58.2355
58.2142
58.1997
58.1881
58.178
58.169
58.1611
58.1544
58.1488
58.1441
58.1401
58.1366
58.1334
58.1305
58.1279
58.1256
58.1235
58.1218
58.1203
58.1191
58.1183
58.1178
58.1177
58.118
58.1188
58.1199
58.1216
58.1237
58.1264
58.1296
58.1333
58.1376
58.1425
58.1481
58.1543
58.1613
58.1689
58.1773
58.1865
58.1965
58.2074
58.2192
58.2318
58.2454
58.2601
58.2757
58.2924
58.3101
58.329
58.349
58.3702
58.3927
58.4163
58.4413
58.4675
58.4951
58.524
58.5542
58.5859
58.6189
58.6534
58.6892
58.7265
58.7652
58.8054
58.847
58.89
58.9344
58.9802
59.0273
59.0758
59.1256
59.1768
59.2291
59.2827
59.3374
59.3932
59.4501
59.5081
59.5669
59.6266
59.6872
59.7484
59.8104
59.8729
59.9359
59.9993
60.0631
60.1271
60.1913
60.2556
60.3199
60.384
60.448
60.5117
60.575
60.6378
60.7001
60.7618
60.8228
60.8829
60.9422
61.0006
61.0579
61.1141
61.1692
61.2231
61.2757
61.327
61.3769
61.4254
61.4724
61.5179
61.5619
61.6044
61.6453
61.6846
61.7223
61.7583
61.7928
61.8256
61.8569
61.8865
61.9145
61.941
61.9658
61.9892
62.011
62.0313
62.0502
62.0676
62.0837
62.0984
62.1117
62.1238
62.1346
62.1443
62.1527
62.1601
62.1663
62.1716
62.1758
62.1791
62.1814
62.1829
62.1836
62.1835
62.1827
62.1811
62.1789
62.176
62.1725
62.1685
62.164
62.1589
62.1534
62.1475
62.1411
62.1344
62.1273
62.1199
62.1122
62.1042
62.0959
62.0874
62.0786
62.0697
62.0606
62.0513
62.0418
62.0322
62.0224
62.0126
62.0026
61.9925
61.9823
61.9721
61.9617
61.9513
61.9408
61.9303
61.9197
61.9091
61.8984
61.8877
61.877
61.8662
61.8554
61.8446
61.8338
61.823
61.8121
61.8012
61.7903
61.7794
61.7685
61.7576
61.7466
61.7357
61.7247
61.7138
61.7028
61.6919
61.6809
61.67
61.659
61.648
61.6371
61.6261
61.6151
61.6041
61.5932
61.5822
61.5712
61.5602
61.5493
61.5383
61.5273
61.5163
61.5053
61.4944
61.4834
61.4724
61.4614
61.4504
61.4395
61.4285
61.4175
61.4065
61.3955
61.3845
61.3735
61.3626
61.3516
61.3406
61.3296
61.3186
61.3076
61.2966
61.2856
61.2746
61.2636
61.2526
61.2416
61.2306
61.2196
61.2086
61.1976
61.1866
61.1755
61.1645
61.1535
61.1425
61.1315
61.1204
61.1094
61.0984
61.0874
61.0763
61.0653
61.0543
61.0432
61.0322
61.0211
61.0101
60.999
60.988
60.9769
60.9659
60.9548
60.9437
60.9327
60.9216
60.9105
60.8994
60.8884
60.8773
60.8662
60.8551
60.844
60.8329
60.8218
60.8107
60.7996
60.7885
60.7773
60.7662
60.7551
60.744
60.7328
60.7217
60.7105
60.6994
60.6883
60.6771
60.6659
60.6548
60.6436
60.6324
60.6213
60.6101
60.5989
60.5877
60.5765
60.5653
60.5541
60.5429
60.5317
60.5204
60.5092
60.498
60.4868
60.4755
60.4643
60.453
60.4418
60.4305
60.4192
60.408
60.3967
60.3854
60.3741
60.3628
60.3515
60.3402
60.3289
60.3176
60.3062
60.2949
60.2836
60.2722
60.2609
60.2495
60.2382
60.2268
60.2154
60.204
60.1926
60.1813
60.1699
60.1584
60.147
60.1356
60.1242
60.1127
60.1013
60.0899
60.0784
60.0669
60.0555
60.044
60.0325
60.021
60.0095
59.998
59.9865
59.975
59.9634
59.9519
59.9403
59.9288
59.9172
59.9057
59.8941
59.8825
59.8709
59.8593
59.8477
59.8361
59.8244
59.8128
59.8012
59.7895
59.7778
59.7662
59.7545
59.7428
59.7311
59.7194
59.7077
59.696
59.6842
59.6725
59.6607
59.649
59.6372
59.6254
59.6136
59.6018
59.59
59.5782
59.5663
59.5545
59.5427
59.5308
59.5191
59.5191
58.5299
58.5299
58.2842
58.2366
58.2148
58.2001
58.1883
58.1782
58.1692
58.1612
58.1544
58.1488
58.1442
58.1402
58.1366
58.1334
58.1305
58.1279
58.1256
58.1235
58.1218
58.1203
58.1191
58.1183
58.1178
58.1177
58.118
58.1188
58.12
58.1216
58.1237
58.1264
58.1296
58.1333
58.1376
58.1426
58.1481
58.1544
58.1613
58.1689
58.1774
58.1865
58.1966
58.2074
58.2192
58.2318
58.2455
58.2601
58.2757
58.2924
58.3101
58.329
58.349
58.3703
58.3927
58.4163
58.4413
58.4675
58.4951
58.524
58.5542
58.5859
58.6189
58.6534
58.6892
58.7265
58.7653
58.8054
58.847
58.89
58.9344
58.9802
59.0273
59.0758
59.1257
59.1768
59.2291
59.2827
59.3374
59.3933
59.4502
59.5081
59.5669
59.6266
59.6872
59.7484
59.8103
59.8729
59.9359
59.9993
60.0631
60.1271
60.1913
60.2556
60.3199
60.384
60.448
60.5116
60.575
60.6378
60.7001
60.7618
60.8227
60.8829
60.9422
61.0005
61.0579
61.1141
61.1692
61.2231
61.2757
61.3269
61.3769
61.4253
61.4724
61.5179
61.5619
61.6044
61.6453
61.6846
61.7222
61.7583
61.7928
61.8256
61.8568
61.8865
61.9145
61.9409
61.9658
61.9892
62.011
62.0313
62.0502
62.0676
62.0837
62.0984
62.1117
62.1238
62.1346
62.1442
62.1527
62.1601
62.1663
62.1715
62.1758
62.1791
62.1814
62.1829
62.1836
62.1835
62.1827
62.1811
62.1789
62.176
62.1725
62.1685
62.164
62.1589
62.1534
62.1475
62.1411
62.1344
62.1273
62.1199
62.1122
62.1042
62.0959
62.0874
62.0786
62.0697
62.0606
62.0513
62.0418
62.0322
62.0224
62.0126
62.0026
61.9925
61.9823
61.972
61.9617
61.9513
61.9408
61.9303
61.9197
61.9091
61.8984
61.8877
61.877
61.8662
61.8554
61.8446
61.8338
61.8229
61.8121
61.8012
61.7903
61.7794
61.7685
61.7576
61.7466
61.7357
61.7247
61.7138
61.7028
61.6919
61.6809
61.67
61.659
61.648
61.6371
61.6261
61.6151
61.6041
61.5932
61.5822
61.5712
61.5602
61.5493
61.5383
61.5273
61.5163
61.5053
61.4944
61.4834
61.4724
61.4614
61.4504
61.4395
61.4285
61.4175
61.4065
61.3955
61.3845
61.3735
61.3625
61.3516
61.3406
61.3296
61.3186
61.3076
61.2966
61.2856
61.2746
61.2636
61.2526
61.2416
61.2306
61.2196
61.2086
61.1976
61.1866
61.1755
61.1645
61.1535
61.1425
61.1315
61.1204
61.1094
61.0984
61.0874
61.0763
61.0653
61.0543
61.0432
61.0322
61.0211
61.0101
60.999
60.988
60.9769
60.9659
60.9548
60.9437
60.9327
60.9216
60.9105
60.8994
60.8884
60.8773
60.8662
60.8551
60.844
60.8329
60.8218
60.8107
60.7996
60.7885
60.7773
60.7662
60.7551
60.744
60.7328
60.7217
60.7105
60.6994
60.6883
60.6771
60.6659
60.6548
60.6436
60.6324
60.6213
60.6101
60.5989
60.5877
60.5765
60.5653
60.5541
60.5429
60.5317
60.5204
60.5092
60.498
60.4868
60.4755
60.4643
60.453
60.4418
60.4305
60.4192
60.408
60.3967
60.3854
60.3741
60.3628
60.3515
60.3402
60.3289
60.3176
60.3062
60.2949
60.2836
60.2722
60.2609
60.2495
60.2382
60.2268
60.2154
60.204
60.1926
60.1813
60.1699
60.1584
60.147
60.1356
60.1242
60.1127
60.1013
60.0899
60.0784
60.0669
60.0555
60.044
60.0325
60.021
60.0095
59.998
59.9865
59.975
59.9634
59.9519
59.9403
59.9288
59.9172
59.9057
59.8941
59.8825
59.8709
59.8593
59.8477
59.8361
59.8244
59.8128
59.8012
59.7895
59.7778
59.7662
59.7545
59.7428
59.7311
59.7194
59.7077
59.696
59.6842
59.6725
59.6607
59.649
59.6372
59.6254
59.6136
59.6018
59.59
59.5782
59.5663
59.5545
59.5427
59.5308
59.5191
59.5191
58.5148
58.5148
58.287
58.2377
58.2154
58.2005
58.1886
58.1784
58.1693
58.1613
58.1545
58.1489
58.1442
58.1402
58.1366
58.1334
58.1305
58.1279
58.1256
58.1235
58.1218
58.1203
58.1191
58.1183
58.1178
58.1177
58.1181
58.1188
58.12
58.1216
58.1238
58.1264
58.1296
58.1333
58.1376
58.1426
58.1481
58.1544
58.1613
58.169
58.1774
58.1866
58.1966
58.2074
58.2192
58.2319
58.2455
58.2601
58.2757
58.2924
58.3101
58.329
58.3491
58.3703
58.3927
58.4164
58.4413
58.4675
58.4951
58.524
58.5543
58.5859
58.6189
58.6534
58.6893
58.7266
58.7653
58.8054
58.847
58.89
58.9344
58.9802
59.0273
59.0758
59.1257
59.1768
59.2291
59.2827
59.3374
59.3933
59.4502
59.5081
59.5669
59.6266
59.6871
59.7484
59.8103
59.8729
59.9359
59.9993
60.0631
60.1271
60.1913
60.2556
60.3198
60.384
60.4479
60.5116
60.5749
60.6378
60.7001
60.7618
60.8227
60.8829
60.9422
61.0005
61.0578
61.1141
61.1692
61.223
61.2756
61.3269
61.3768
61.4253
61.4723
61.5179
61.5619
61.6043
61.6452
61.6845
61.7222
61.7583
61.7927
61.8256
61.8568
61.8864
61.9145
61.9409
61.9658
61.9891
62.011
62.0313
62.0502
62.0676
62.0836
62.0983
62.1117
62.1238
62.1346
62.1442
62.1527
62.16
62.1663
62.1715
62.1758
62.179
62.1814
62.1829
62.1836
62.1835
62.1826
62.1811
62.1788
62.176
62.1725
62.1685
62.164
62.1589
62.1534
62.1475
62.1411
62.1344
62.1273
62.1199
62.1122
62.1041
62.0959
62.0874
62.0786
62.0697
62.0606
62.0513
62.0418
62.0322
62.0224
62.0126
62.0026
61.9925
61.9823
61.972
61.9617
61.9513
61.9408
61.9303
61.9197
61.9091
61.8984
61.8877
61.877
61.8662
61.8554
61.8446
61.8338
61.8229
61.8121
61.8012
61.7903
61.7794
61.7685
61.7576
61.7466
61.7357
61.7247
61.7138
61.7028
61.6919
61.6809
61.67
61.659
61.648
61.6371
61.6261
61.6151
61.6041
61.5932
61.5822
61.5712
61.5602
61.5493
61.5383
61.5273
61.5163
61.5053
61.4944
61.4834
61.4724
61.4614
61.4504
61.4395
61.4285
61.4175
61.4065
61.3955
61.3845
61.3735
61.3625
61.3516
61.3406
61.3296
61.3186
61.3076
61.2966
61.2856
61.2746
61.2636
61.2526
61.2416
61.2306
61.2196
61.2086
61.1976
61.1866
61.1755
61.1645
61.1535
61.1425
61.1315
61.1204
61.1094
61.0984
61.0874
61.0763
61.0653
61.0543
61.0432
61.0322
61.0211
61.0101
60.999
60.988
60.9769
60.9659
60.9548
60.9437
60.9327
60.9216
60.9105
60.8994
60.8884
60.8773
60.8662
60.8551
60.844
60.8329
60.8218
60.8107
60.7996
60.7885
60.7773
60.7662
60.7551
60.744
60.7328
60.7217
60.7105
60.6994
60.6882
60.6771
60.6659
60.6548
60.6436
60.6324
60.6213
60.6101
60.5989
60.5877
60.5765
60.5653
60.5541
60.5429
60.5317
60.5204
60.5092
60.498
60.4868
60.4755
60.4643
60.453
60.4418
60.4305
60.4192
60.408
60.3967
60.3854
60.3741
60.3628
60.3515
60.3402
60.3289
60.3176
60.3062
60.2949
60.2836
60.2722
60.2609
60.2495
60.2382
60.2268
60.2154
60.204
60.1926
60.1813
60.1698
60.1584
60.147
60.1356
60.1242
60.1127
60.1013
60.0898
60.0784
60.0669
60.0555
60.044
60.0325
60.021
60.0095
59.998
59.9865
59.975
59.9634
59.9519
59.9403
59.9288
59.9172
59.9057
59.8941
59.8825
59.8709
59.8593
59.8477
59.8361
59.8244
59.8128
59.8011
59.7895
59.7778
59.7662
59.7545
59.7428
59.7311
59.7194
59.7077
59.696
59.6842
59.6725
59.6607
59.649
59.6372
59.6254
59.6136
59.6018
59.59
59.5782
59.5663
59.5545
59.5427
59.5308
59.5191
59.5191
58.5008
58.5008
58.2895
58.2389
58.216
58.2008
58.1889
58.1786
58.1694
58.1614
58.1546
58.1489
58.1442
58.1402
58.1366
58.1334
58.1305
58.1279
58.1256
58.1236
58.1218
58.1203
58.1191
58.1183
58.1178
58.1178
58.1181
58.1188
58.12
58.1216
58.1238
58.1264
58.1296
58.1333
58.1376
58.1426
58.1481
58.1544
58.1613
58.169
58.1774
58.1866
58.1966
58.2075
58.2192
58.2319
58.2455
58.2601
58.2757
58.2924
58.3102
58.329
58.3491
58.3703
58.3927
58.4164
58.4413
58.4676
58.4951
58.524
58.5543
58.5859
58.619
58.6534
58.6893
58.7266
58.7653
58.8054
58.847
58.89
58.9344
58.9802
59.0274
59.0759
59.1257
59.1768
59.2291
59.2827
59.3374
59.3933
59.4502
59.5081
59.5669
59.6266
59.6871
59.7484
59.8103
59.8729
59.9359
59.9993
60.0631
60.1271
60.1913
60.2556
60.3198
60.384
60.4479
60.5116
60.5749
60.6378
60.7001
60.7617
60.8227
60.8828
60.9421
61.0005
61.0578
61.1141
61.1691
61.223
61.2756
61.3269
61.3768
61.4253
61.4723
61.5178
61.5619
61.6043
61.6452
61.6845
61.7222
61.7583
61.7927
61.8256
61.8568
61.8864
61.9144