# vtk DataFile Version 2.0
FlowField
ASCII
DATASET STRUCTURED_GRID
DIMENSIONS 400 1 200
POINTS 80000 float
0 0 0
0.08 0 0
0.16 0 0
0.24 0 0
0.32 0 0
0.4 0 0
0.48 0 0
0.56 0 0
0.64 0 0
0.72 0 0
0.8 0 0
0.88 0 0
0.96 0 0
1.04 0 0
1.12 0 0
1.2 0 0
1.28 0 0
1.36 0 0
1.44 0 0
1.52 0 0
1.6 0 0
1.68 0 0
1.76 0 0
1.84 0 0
1.92 0 0
2 0 0
2.08 0 0
2.16 0 0
2.24 0 0
2.32 0 0
2.4 0 0
2.48 0 0
2.56 0 0
2.64 0 0
2.72 0 0
2.8 0 0
2.88 0 0
2.96 0 0
3.04 0 0
3.12 0 0
3.2 0 0
3.28 0 0
3.36 0 0
3.44 0 0
3.52 0 0
3.6 0 0
3.68 0 0
3.76 0 0
3.84 0 0
3.92 0 0
4 0 0
4.08 0 0
4.16 0 0
4.24 0 0
4.32 0 0
4.4 0 0
4.48 0 0
4.56 0 0
4.64 0 0
4.72 0 0
4.8 0 0
4.88 0 0
4.96 0 0
5.04 0 0
5.12 0 0
5.2 0 0
5.28 0 0
5.36 0 0
5.44 0 0
5.52 0 0
5.6 0 0
5.68 0 0
5.76 0 0
5.84 0 0
5.92 0 0
6 0 0
6.08 0 0
6.16 0 0
6.24 0 0
6.32 0 0
6.4 0 0
6.48 0 0
6.56 0 0
6.64 0 0
6.72 0 0
6.8 0 0
6.88 0 0
6.96 0 0
7.04 0 0
7.12 0 0
7.2 0 0
7.28 0 0
7.36 0 0
7.44 0 0
7.52 0 0
7.6 0 0
7.68 0 0
7.76 0 0
7.84 0 0
7.92 0 0
8 0 0
8.08 0 0
8.16 0 0
8.24 0 0
8.32 0 0
8.4 0 0
8.48 0 0
8.56 0 0
8.64 0 0
8.72 0 0
8.8 0 0
8.88 0 0
8.96 0 0
9.04 0 0
9.12 0 0
9.2 0 0
9.28 0 0
9.36 0 0
9.44 0 0
9.52 0 0
9.6 0 0
9.68 0 0
9.76 0 0
9.84 0 0
9.92 0 0
10 0 0
10.08 0 0
10.16 0 0
10.24 0 0
10.32 0 0
10.4 0 0
10.48 0 0
10.56 0 0
10.64 0 0
10.72 0 0
10.8 0 0
10.88 0 0
10.96 0 0
11.04 0 0
11.12 0 0
11.2 0 0
11.28 0 0
11.36 0 0
11.44 0 0
11.52 0 0
11.6 0 0
11.68 0 0
11.76 0 0
11.84 0 0
11.92 0 0
12 0 0
12.08 0 0
12.16 0 0
12.24 0 0
12.32 0 0
12.4 0 0
12.48 0 0
12.56 0 0
12.64 0 0
12.72 0 0
12.8 0 0
12.88 0 0
12.96 0 0
13.04 0 0
13.12 0 0
13.2 0 0
13.28 0 0
13.36 0 0
13.44 0 0
13.52 0 0
13.6 0 0
13.68 0 0
13.76 0 0
13.84 0 0
13.92 0 0
14 0 0
14.08 0 0
14.16 0 0
14.24 0 0
14.32 0 0
14.4 0 0
14.48 0 0
14.56 0 0
14.64 0 0
14.72 0 0
14.8 0 0
14.88 0 0
14.96 0 0
15.04 0 0
15.12 0 0
15.2 0 0
15.28 0 0
15.36 0 0
15.44 0 0
15.52 0 0
15.6 0 0
15.68 0 0
15.76 0 0
15.84 0 0
15.92 0 0
16 0 0
16.08 0 0
16.16 0 0
16.24 0 0
16.32 0 0
16.4 0 0
16.48 0 0
16.56 0 0
16.64 0 0
16.72 0 0
16.8 0 0
16.88 0 0
16.96 0 0
17.04 0 0
17.12 0 0
17.2 0 0
17.28 0 0
17.36 0 0
17.44 0 0
17.52 0 0
17.6 0 0
17.68 0 0
17.76 0 0
17.84 0 0
17.92 0 0
18 0 0
18.08 0 0
18.16 0 0
18.24 0 0
18.32 0 0
18.4 0 0
18.48 0 0
18.56 0 0
18.64 0 0
18.72 0 0
18.8 0 0
18.88 0 0
18.96 0 0
19.04 0 0
19.12 0 0
19.2 0 0
19.28 0 0
19.36 0 0
19.44 0 0
19.52 0 0
19.6 0 0
19.68 0 0
19.76 0 0
19.84 0 0
19.92 0 0
20 0 0
20.08 0 0
20.16 0 0
20.24 0 0
20.32 0 0
20.4 0 0
20.48 0 0
20.56 0 0
20.64 0 0
20.72 0 0
20.8 0 0
20.88 0 0
20.96 0 0
21.04 0 0
21.12 0 0
21.2 0 0
21.28 0 0
21.36 0 0
21.44 0 0
21.52 0 0
21.6 0 0
21.68 0 0
21.76 0 0
21.84 0 0
21.92 0 0
22 0 0
22.08 0 0
22.16 0 0
22.24 0 0
22.32 0 0
22.4 0 0
22.48 0 0
22.56 0 0
22.64 0 0
22.72 0 0
22.8 0 0
22.88 0 0
22.96 0 0
23.04 0 0
23.12 0 0
23.2 0 0
23.28 0 0
23.36 0 0
23.44 0 0
23.52 0 0
23.6 0 0
23.68 0 0
23.76 0 0
23.84 0 0
23.92 0 0
24 0 0
24.08 0 0
24.16 0 0
24.24 0 0
24.32 0 0
24.4 0 0
24.48 0 0
24.56 0 0
24.64 0 0
24.72 0 0
24.8 0 0
24.88 0 0
24.96 0 0
25.04 0 0
25.12 0 0
25.2 0 0
25.28 0 0
25.36 0 0
25.44 0 0
25.52 0 0
25.6 0 0
25.68 0 0
25.76 0 0
25.84 0 0
25.92 0 0
26 0 0
26.08 0 0
26.16 0 0
26.24 0 0
26.32 0 0
26.4 0 0
26.48 0 0
26.56 0 0
26.64 0 0
26.72 0 0
26.8 0 0
26.88 0 0
26.96 0 0
27.04 0 0
27.12 0 0
27.2 0 0
27.28 0 0
27.36 0 0
27.44 0 0
27.52 0 0
27.6 0 0
27.68 0 0
27.76 0 0
27.84 0 0
27.92 0 0
28 0 0
28.08 0 0
28.16 0 0
28.24 0 0
28.32 0 0
28.4 0 0
28.48 0 0
28.56 0 0
28.64 0 0
28.72 0 0
28.8 0 0
28.88 0 0
28.96 0 0
29.04 0 0
29.12 0 0
29.2 0 0
29.28 0 0
29.36 0 0
29.44 0 0
29.52 0 0
29.6 0 0
29.68 0 0
29.76 0 0
29.84 0 0
29.92 0 0
30 0 0
30.08 0 0
30.16 0 0
30.24 0 0
30.32 0 0
30.4 0 0
30.48 0 0
30.56 0 0
30.64 0 0
30.72 0 0
30.8 0 0
30.88 0 0
30.96 0 0
31.04 0 0
31.12 0 0
31.2 0 0
31.28 0 0
31.36 0 0
31.44 0 0
31.52 0 0
31.6 0 0
31.68 0 0
31.76 0 0
31.84 0 0
31.92 0 0
0 0.005 0
0.08 0.005 0
0.16 0.005 0
0.24 0.005 0
0.32 0.005 0
0.4 0.005 0
0.48 0.005 0
0.56 0.005 0
0.64 0.005 0
0.72 0.005 0
0.8 0.005 0
0.88 0.005 0
0.96 0.005 0
1.04 0.005 0
1.12 0.005 0
1.2 0.005 0
1.28 0.005 0
1.36 0.005 0
1.44 0.005 0
1.52 0.005 0
1.6 0.005 0
1.68 0.005 0
1.76 0.005 0
1.84 0.005 0
1.92 0.005 0
2 0.005 0
2.08 0.005 0
2.16 0.005 0
2.24 0.005 0
2.32 0.005 0
2.4 0.005 0
2.48 0.005 0
2.56 0.005 0
2.64 0.005 0
2.72 0.005 0
2.8 0.005 0
2.88 0.005 0
2.96 0.005 0
3.04 0.005 0
3.12 0.005 0
3.2 0.005 0
3.28 0.005 0
3.36 0.005 0
3.44 0.005 0
3.52 0.005 0
3.6 0.005 0
3.68 0.005 0
3.76 0.005 0
3.84 0.005 0
3.92 0.005 0
4 0.005 0
4.08 0.005 0
4.16 0.005 0
4.24 0.005 0
4.32 0.005 0
4.4 0.005 0
4.48 0.005 0
4.56 0.005 0
4.64 0.005 0
4.72 0.005 0
4.8 0.005 0
4.88 0.005 0
4.96 0.005 0
5.04 0.005 0
5.12 0.005 0
5.2 0.005 0
5.28 0.005 0
5.36 0.005 0
5.44 0.005 0
5.52 0.005 0
5.6 0.005 0
5.68 0.005 0
5.76 0.005 0
5.84 0.005 0
5.92 0.005 0
6 0.005 0
6.08 0.005 0
6.16 0.005 0
6.24 0.005 0
6.32 0.005 0
6.4 0.005 0
6.48 0.005 0
6.56 0.005 0
6.64 0.005 0
6.72 0.005 0
6.8 0.005 0
6.88 0.005 0
6.96 0.005 0
7.04 0.005 0
7.12 0.005 0
7.2 0.005 0
7.28 0.005 0
7.36 0.005 0
7.44 0.005 0
7.52 0.005 0
7.6 0.005 0
7.68 0.005 0
7.76 0.005 0
7.84 0.005 0
7.92 0.005 0
8 0.005 0
8.08 0.005 0
8.16 0.005 0
8.24 0.005 0
8.32 0.005 0
8.4 0.005 0
8.48 0.005 0
8.56 0.005 0
8.64 0.005 0
8.72 0.005 0
8.8 0.005 0
8.88 0.005 0
8.96 0.005 0
9.04 0.005 0
9.12 0.005 0
9.2 0.005 0
9.28 0.005 0
9.36 0.005 0
9.44 0.005 0
9.52 0.005 0
9.6 0.005 0
9.68 0.005 0
9.76 0.005 0
9.84 0.005 0
9.92 0.005 0
10 0.005 0
10.08 0.005 0
10.16 0.005 0
10.24 0.005 0
10.32 0.005 0
10.4 0.005 0
10.48 0.005 0
10.56 0.005 0
10.64 0.005 0
10.72 0.005 0
10.8 0.005 0
10.88 0.005 0
10.96 0.005 0
11.04 0.005 0
11.12 0.005 0
11.2 0.005 0
11.28 0.005 0
11.36 0.005 0
11.44 0.005 0
11.52 0.005 0
11.6 0.005 0
11.68 0.005 0
11.76 0.005 0
11.84 0.005 0
11.92 0.005 0
12 0.005 0
12.08 0.005 0
12.16 0.005 0
12.24 0.005 0
12.32 0.005 0
12.4 0.005 0
12.48 0.005 0
12.56 0.005 0
12.64 0.005 0
12.72 0.005 0
12.8 0.005 0
12.88 0.005 0
12.96 0.005 0
13.04 0.005 0
13.12 0.005 0
13.2 0.005 0
13.28 0.005 0
13.36 0.005 0
13.44 0.005 0
13.52 0.005 0
13.6 0.005 0
13.68 0.005 0
13.76 0.005 0
13.84 0.005 0
13.92 0.005 0
14 0.005 0
14.08 0.005 0
14.16 0.005 0
14.24 0.005 0
14.32 0.005 0
14.4 0.005 0
14.48 0.005 0
14.56 0.005 0
14.64 0.005 0
14.72 0.005 0
14.8 0.005 0
14.88 0.005 0
14.96 0.005 0
15.04 0.005 0
15.12 0.005 0
15.2 0.005 0
15.28 0.005 0
15.36 0.005 0
15.44 0.005 0
15.52 0.005 0
15.6 0.005 0
15.68 0.005 0
15.76 0.005 0
15.84 0.005 0
15.92 0.005 0
16 0.005 0
16.08 0.005 0
16.16 0.005 0
16.24 0.005 0
16.32 0.005 0
16.4 0.005 0
16.48 0.005 0
16.56 0.005 0
16.64 0.005 0
16.72 0.005 0
16.8 0.005 0
16.88 0.005 0
16.96 0.005 0
17.04 0.005 0
17.12 0.005 0
17.2 0.005 0
17.28 0.005 0
17.36 0.005 0
17.44 0.005 0
17.52 0.005 0
17.6 0.005 0
17.68 0.005 0
17.76 0.005 0
17.84 0.005 0
17.92 0.005 0
18 0.005 0
18.08 0.005 0
18.16 0.005 0
18.24 0.005 0
18.32 0.005 0
18.4 0.005 0
18.48 0.005 0
18.56 0.005 0
18.64 0.005 0
18.72 0.005 0
18.8 0.005 0
18.88 0.005 0
18.96 0.005 0
19.04 0.005 0
19.12 0.005 0
19.2 0.005 0
19.28 0.005 0
19.36 0.005 0
19.44 0.005 0
19.52 0.005 0
19.6 0.005 0
19.68 0.005 0
19.76 0.005 0
19.84 0.005 0
19.92 0.005 0
20 0.005 0
20.08 0.005 0
20.16 0.005 0
20.24 0.005 0
20.32 0.005 0
20.4 0.005 0
20.48 0.005 0
20.56 0.005 0
20.64 0.005 0
20.72 0.005 0
20.8 0.005 0
20.88 0.005 0
20.96 0.005 0
21.04 0.005 0
21.12 0.005 0
21.2 0.005 0
21.28 0.005 0
21.36 0.005 0
21.44 0.005 0
21.52 0.005 0
21.6 0.005 0
21.68 0.005 0
21.76 0.005 0
21.84 0.005 0
21.92 0.005 0
22 0.005 0
22.08 0.005 0
22.16 0.005 0
22.24 0.005 0
22.32 0.005 0
22.4 0.005 0
22.48 0.005 0
22.56 0.005 0
22.64 0.005 0
22.72 0.005 0
22.8 0.005 0
22.88 0.005 0
22.96 0.005 0
23.04 0.005 0
23.12 0.005 0
23.2 0.005 0
23.28 0.005 0
23.36 0.005 0
23.44 0.005 0
23.52 0.005 0
23.6 0.005 0
23.68 0.005 0
23.76 0.005 0
23.84 0.005 0
23.92 0.005 0
24 0.005 0
24.08 0.005 0
24.16 0.005 0
24.24 0.005 0
24.32 0.005 0
24.4 0.005 0
24.48 0.005 0
24.56 0.005 0
24.64 0.005 0
24.72 0.005 0
24.8 0.005 0
24.88 0.005 0
24.96 0.005 0
25.04 0.005 0
25.12 0.005 0
25.2 0.005 0
25.28 0.005 0
25.36 0.005 0
25.44 0.005 0
25.52 0.005 0
25.6 0.005 0
25.68 0.005 0
25.76 0.005 0
25.84 0.005 0
25.92 0.005 0
26 0.005 0
26.08 0.005 0
26.16 0.005 0
26.24 0.005 0
26.32 0.005 0
26.4 0.005 0
26.48 0.005 0
26.56 0.005 0
26.64 0.005 0
26.72 0.005 0
26.8 0.005 0
26.88 0.005 0
26.96 0.005 0
27.04 0.005 0
27.12 0.005 0
27.2 0.005 0
27.28 0.005 0
27.36 0.005 0
27.44 0.005 0
27.52 0.005 0
27.6 0.005 0
27.68 0.005 0
27.76 0.005 0
27.84 0.005 0
27.92 0.005 0
28 0.005 0
28.08 0.005 0
28.16 0.005 0
28.24 0.005 0
28.32 0.005 0
28.4 0.005 0
28.48 0.005 0
28.56 0.005 0
28.64 0.005 0
28.72 0.005 0
28.8 0.005 0
28.88 0.005 0
28.96 0.005 0
29.04 0.005 0
29.12 0.005 0
29.2 0.005 0
29.28 0.005 0
29.36 0.005 0
29.44 0.005 0
29.52 0.005 0
29.6 0.005 0
29.68 0.005 0
29.76 0.005 0
29.84 0.005 0
29.92 0.005 0
30 0.005 0
30.08 0.005 0
30.16 0.005 0
30.24 0.005 0
30.32 0.005 0
30.4 0.005 0
30.48 0.005 0
30.56 0.005 0
30.64 0.005 0
30.72 0.005 0
30.8 0.005 0
30.88 0.005 0
30.96 0.005 0
31.04 0.005 0
31.12 0.005 0
31.2 0.005 0
31.28 0.005 0
31.36 0.005 0
31.44 0.005 0
31.52 0.005 0
31.6 0.005 0
31.68 0.005 0
31.76 0.005 0
31.84 0.005 0
31.92 0.005 0
0 0.01 0
0.08 0.01 0
0.16 0.01 0
0.24 0.01 0
0.32 0.01 0
0.4 0.01 0
0.48 0.01 0
0.56 0.01 0
0.64 0.01 0
0.72 0.01 0
0.8 0.01 0
0.88 0.01 0
0.96 0.01 0
1.04 0.01 0
1.12 0.01 0
1.2 0.01 0
1.28 0.01 0
1.36 0.01 0
1.44 0.01 0
1.52 0.01 0
1.6 0.01 0
1.68 0.01 0
1.76 0.01 0
1.84 0.01 0
1.92 0.01 0
2 0.01 0
2.08 0.01 0
2.16 0.01 0
2.24 0.01 0
2.32 0.01 0
2.4 0.01 0
2.48 0.01 0
2.56 0.01 0
2.64 0.01 0
2.72 0.01 0
2.8 0.01 0
2.88 0.01 0
2.96 0.01 0
3.04 0.01 0
3.12 0.01 0
3.2 0.01 0
3.28 0.01 0
3.36 0.01 0
3.44 0.01 0
3.52 0.01 0
3.6 0.01 0
3.68 0.01 0
3.76 0.01 0
3.84 0.01 0
3.92 0.01 0
4 0.01 0
4.08 0.01 0
4.16 0.01 0
4.24 0.01 0
4.32 0.01 0
4.4 0.01 0
4.48 0.01 0
4.56 0.01 0
4.64 0.01 0
4.72 0.01 0
4.8 0.01 0
4.88 0.01 0
4.96 0.01 0
5.04 0.01 0
5.12 0.01 0
[...]
POINT_DATA 80000

SCALARS u float 1
LOOKUP_TABLE default
0
-0.131663
-0.0682703
-0.0522974
-0.0444215
-0.0395786
-0.0362617
-0.0338349
-0.0319751
-0.0304987
-0.0292929
-0.028285
-0.027426
-0.026682
-0.0260287
-0.0254486
-0.024929
-0.0244599
-0.0240336
-0.0236438
-0.0232857
-0.0229558
-0.0226517
-0.0223709
-0.0221109
-0.0218693
-0.0216441
-0.0214349
-0.0212422
-0.0210669
-0.0209094
-0.0207694
-0.0206455
-0.0205366
-0.0204414
-0.0203594
-0.0202896
-0.0202309
-0.0201814
-0.0201386
-0.0201001
-0.020064
-0.0200293
-0.0199959
-0.0199645
-0.019936
-0.0199112
-0.0198909
-0.019875
-0.0198635
-0.0198556
-0.0198507
-0.0198481
-0.0198471
-0.0198472
-0.0198479
-0.019849
-0.0198503
-0.0198517
-0.0198531
-0.0198545
-0.019856
-0.0198575
-0.019859
-0.0198605
-0.019862
-0.0198635
-0.0198651
-0.0198666
-0.0198681
-0.0198697
-0.0198712
-0.0198728
-0.0198743
-0.0198759
-0.0198774
-0.019879
-0.0198806
-0.0198821
-0.0198837
-0.0198853
-0.0198868
-0.0198884
-0.01989
-0.0198915
-0.0198931
-0.0198947
-0.0198963
-0.0198978
-0.0198994
-0.019901
-0.0199026
-0.0199042
-0.0199057
-0.0199073
-0.0199089
-0.0199105
-0.0199121
-0.0199137
-0.0199153
-0.0199169
-0.0199185
-0.01992
-0.0199216
-0.0199232
-0.0199248
-0.0199264
-0.019928
-0.0199296
-0.0199312
-0.0199328
-0.0199344
-0.0199361
-0.0199377
-0.0199393
-0.0199409
-0.0199425
-0.0199441
-0.0199457
-0.0199473
-0.0199489
-0.0199506
-0.0199522
-0.0199538
-0.0199554
-0.019957
-0.0199587
-0.0199603
-0.0199619
-0.0199635
-0.0199652
-0.0199668
-0.0199684
-0.0199701
-0.0199717
-0.0199733
-0.019975
-0.0199766
-0.0199782
-0.0199799
-0.0199815
-0.0199831
-0.0199848
-0.0199864
-0.0199881
-0.0199897
-0.0199914
-0.019993
-0.0199947
-0.0199963
-0.019998
-0.0199996
-0.0200013
-0.0200029
-0.0200046
-0.0200062
-0.0200079
-0.0200095
-0.0200112
-0.0200129
-0.0200145
-0.0200162
-0.0200179
-0.0200195
-0.0200212
-0.0200229
-0.0200245
-0.0200262
-0.0200279
-0.0200295
-0.0200312
-0.0200329
-0.0200346
-0.0200362
-0.0200379
-0.0200396
-0.0200413
-0.0200429
-0.0200446
-0.0200463
-0.020048
-0.0200497
-0.0200514
-0.020053
-0.0200547
-0.0200564
-0.0200581
-0.0200598
-0.0200615
-0.0200632
-0.0200649
-0.0200666
-0.0200683
-0.02007
-0.0200717
-0.0200734
-0.0200751
-0.0200768
-0.0200785
-0.0200802
-0.0200819
-0.0200836
-0.0200853
-0.020087
-0.0200887
-0.0200904
-0.0200921
-0.0200938
-0.0200955
-0.0200972
-0.020099
-0.0201007
-0.0201024
-0.0201041
-0.0201058
-0.0201075
-0.0201093
-0.020111
-0.0201127
-0.0201144
-0.0201161
-0.0201179
-0.0201196
-0.0201213
-0.0201231
-0.0201248
-0.0201265
-0.0201282
-0.02013
-0.0201317
-0.0201334
-0.0201352
-0.0201369
-0.0201386
-0.0201404
-0.0201421
-0.0201439
-0.0201456
-0.0201473
-0.0201491
-0.0201508
-0.0201526
-0.0201543
-0.0201561
-0.0201578
-0.0201596
-0.0201613
-0.0201631
-0.0201648
-0.0201666
-0.0201683
-0.0201701
-0.0201719
-0.0201736
-0.0201754
-0.0201772
-0.0201789
-0.0201807
-0.0201825
-0.0201842
-0.020186
-0.0201878
-0.0201896
-0.0201914
-0.0201931
-0.0201949
-0.0201967
-0.0201985
-0.0202003
-0.0202021
-0.0202039
-0.0202057
-0.0202075
-0.0202093
-0.0202111
-0.0202129
-0.0202147
-0.0202165
-0.0202184
-0.0202202
-0.020222
-0.0202239
-0.0202257
-0.0202275
-0.0202294
-0.0202312
-0.0202331
-0.0202349
-0.0202368
-0.0202387
-0.0202405
-0.0202424
-0.0202443
-0.0202462
-0.020248
-0.0202499
-0.0202518
-0.0202538
-0.0202557
-0.0202576
-0.0202595
-0.0202614
-0.0202634
-0.0202653
-0.0202673
-0.0202692
-0.0202712
-0.0202732
-0.0202751
-0.0202771
-0.0202791
-0.0202811
-0.0202831
-0.0202851
-0.0202871
-0.0202892
-0.0202912
-0.0202933
-0.0202953
-0.0202974
-0.0202995
-0.0203015
-0.0203036
-0.0203057
-0.0203078
-0.02031
-0.0203121
-0.0203142
-0.0203164
-0.0203185
-0.0203207
-0.0203229
-0.020325
-0.0203272
-0.0203294
-0.0203316
-0.0203339
-0.0203361
-0.0203383
-0.0203406
-0.0203429
-0.0203451
-0.0203474
-0.0203497
-0.020352
-0.0203543
-0.0203566
-0.020359
-0.0203613
-0.0203636
-0.020366
-0.0203684
-0.0203707
-0.0203731
-0.0203755
-0.0203779
-0.0203803
-0.0203827
-0.0203852
-0.0203876
-0.02039
-0.0203925
-0.0203949
-0.0203974
-0.0203999
-0.0204024
-0.0204048
-0.0204073
-0.0204098
-0.0204123
-0.0204148
-0.0204174
-0.0204199
-0.0204224
-0.0204249
-0.0204275
-0.02043
-0.0204326
-0.0204351
-0.0204377
-0.0204402
-0.0204428
-0.0204453
-0.0204479
-0.0204504
-0.0204531
-0.0204556
-0.0204582
-0.0204607
-0.0204634
-0.0204659
-0.0204685
-0.0204712
-0.0204737
-0.0204766
-0.0204785
-0.0204823
-0.02048
-0.02048
-0.02048
1
0.131663
0.0682703
0.0522974
0.0444215
0.0395786
0.0362617
0.0338349
0.0319751
0.0304987
0.0292929
0.028285
0.027426
0.026682
0.0260287
0.0254486
0.024929
0.0244599
0.0240336
0.0236438
0.0232857
0.0229558
0.0226517
0.0223709
0.0221109
0.0218693
0.0216441
0.0214349
0.0212422
0.0210669
0.0209094
0.0207694
0.0206455
0.0205366
0.0204414
0.0203594
0.0202896
0.0202309
0.0201814
0.0201386
0.0201001
0.020064
0.0200293
0.0199959
0.0199645
0.019936
0.0199112
0.0198909
0.019875
0.0198635
0.0198556
0.0198507
0.0198481
0.0198471
0.0198472
0.0198479
0.019849
0.0198503
0.0198517
0.0198531
0.0198545
0.019856
0.0198575
0.019859
0.0198605
0.019862
0.0198635
0.0198651
0.0198666
0.0198681
0.0198697
0.0198712
0.0198728
0.0198743
0.0198759
0.0198774
0.019879
0.0198806
0.0198821
0.0198837
0.0198853
0.0198868
0.0198884
0.01989
0.0198915
0.0198931
0.0198947
0.0198963
0.0198978
0.0198994
0.019901
0.0199026
0.0199042
0.0199057
0.0199073
0.0199089
0.0199105
0.0199121
0.0199137
0.0199153
0.0199169
0.0199185
0.01992
0.0199216
0.0199232
0.0199248
0.0199264
0.019928
0.0199296
0.0199312
0.0199328
0.0199344
0.0199361
0.0199377
0.0199393
0.0199409
0.0199425
0.0199441
0.0199457
0.0199473
0.0199489
0.0199506
0.0199522
0.0199538
0.0199554
0.019957
0.0199587
0.0199603
0.0199619
0.0199635
0.0199652
0.0199668
0.0199684
0.0199701
0.0199717
0.0199733
0.019975
0.0199766
0.0199782
0.0199799
0.0199815
0.0199831
0.0199848
0.0199864
0.0199881
0.0199897
0.0199914
0.019993
0.0199947
0.0199963
0.019998
0.0199996
0.0200013
0.0200029
0.0200046
0.0200062
0.0200079
0.0200095
0.0200112
0.0200129
0.0200145
0.0200162
0.0200179
0.0200195
0.0200212
0.0200229
0.0200245
0.0200262
0.0200279
0.0200295
0.0200312
0.0200329
0.0200346
0.0200362
0.0200379
0.0200396
0.0200413
0.0200429
0.0200446
0.0200463
0.020048
0.0200497
0.0200514
0.020053
0.0200547
0.0200564
0.0200581
0.0200598
0.0200615
0.0200632
0.0200649
0.0200666
0.0200683
0.02007
0.0200717
0.0200734
0.0200751
0.0200768
0.0200785
0.0200802
0.0200819
0.0200836
0.0200853
0.020087
0.0200887
0.0200904
0.0200921
0.0200938
0.0200955
0.0200972
0.020099
0.0201007
0.0201024
0.0201041
0.0201058
0.0201075
0.0201093
0.020111
0.0201127
0.0201144
0.0201161
0.0201179
0.0201196
0.0201213
0.0201231
0.0201248
0.0201265
0.0201282
0.02013
0.0201317
0.0201334
0.0201352
0.0201369
0.0201386
0.0201404
0.0201421
0.0201439
0.0201456
0.0201473
0.0201491
0.0201508
0.0201526
0.0201543
0.0201561
0.0201578
0.0201596
0.0201613
0.0201631
0.0201648
0.0201666
0.0201683
0.0201701
0.0201719
0.0201736
0.0201754
0.0201772
0.0201789
0.0201807
0.0201825
0.0201842
0.020186
0.0201878
0.0201896
0.0201914
0.0201931
0.0201949
0.0201967
0.0201985
0.0202003
0.0202021
0.0202039
0.0202057
0.0202075
0.0202093
0.0202111
0.0202129
0.0202147
0.0202165
0.0202184
0.0202202
0.020222
0.0202239
0.0202257
0.0202275
0.0202294
0.0202312
0.0202331
0.0202349
0.0202368
0.0202387
0.0202405
0.0202424
0.0202443
0.0202462
0.020248
0.0202499
0.0202518
0.0202538
0.0202557
0.0202576
0.0202595
0.0202614
0.0202634
0.0202653
0.0202673
0.0202692
0.0202712
0.0202732
0.0202751
0.0202771
0.0202791
0.0202811
0.0202831
0.0202851
0.0202871
0.0202892
0.0202912
0.0202933
0.0202953
0.0202974
0.0202995
0.0203015
0.0203036
0.0203057
0.0203078
0.02031
0.0203121
0.0203142
0.0203164
0.0203185
0.0203207
0.0203229
0.020325
0.0203272
0.0203294
0.0203316
0.0203339
0.0203361
0.0203383
0.0203406
0.0203429
0.0203451
0.0203474
0.0203497
0.020352
0.0203543
0.0203566
0.020359
0.0203613
0.0203636
0.020366
0.0203684
0.0203707
0.0203731
0.0203755
0.0203779
0.0203803
0.0203827
0.0203852
0.0203876
0.02039
0.0203925
0.0203949
0.0203974
0.0203999
0.0204024
0.0204048
0.0204073
0.0204098
0.0204123
0.0204148
0.0204174
0.0204199
0.0204224
0.0204249
0.0204275
0.02043
0.0204326
0.0204351
0.0204377
0.0204402
0.0204428
0.0204453
0.0204479
0.0204504
0.0204531
0.0204556
0.0204582
0.0204607
0.0204634
0.0204659
0.0204685
0.0204712
0.0204737
0.0204766
0.0204785
0.0204823
0.02048
0.02048
0.02048
1
0.344886
0.200671
0.154971
0.131899
0.117604
0.107774
0.100565
0.0950322
0.0906371
0.0870468
0.0840461
0.0814896
0.0792762
0.0773339
0.0756105
0.0740673
0.072675
0.0714103
0.0702546
0.0691937
0.0682171
0.0673173
0.0664868
0.0657183
0.0650046
0.0643409
0.0637259
0.063161
0.0626486
0.0621894
0.0617818
0.0614222
0.0611069
0.0608325
0.0605964
0.0603959
0.0602265
0.0600823
0.0599566
0.0598427
0.0597358
0.0596338
0.0595369
0.059447
0.0593667
0.059298
0.0592424
0.0591997
0.059169
0.0591485
0.0591362
0.05913
0.059128
0.0591289
0.0591314
0.0591348
0.0591388
0.059143
0.0591474
0.0591518
0.0591562
0.0591606
0.0591651
0.0591696
0.0591741
0.0591787
0.0591832
0.0591878
0.0591925
0.0591971
0.0592017
0.0592064
0.059211
0.0592157
0.0592203
0.059225
0.0592297
0.0592344
0.0592391
0.0592437
0.0592484
0.0592531
0.0592578
0.0592625
0.0592672
0.059272
0.0592767
0.0592814
0.0592861
0.0592908
0.0592956
0.0593003
0.059305
0.0593098
0.0593145
0.0593193
0.059324
0.0593288
0.0593335
0.0593383
0.0593431
0.0593478
0.0593526
0.0593574
0.0593622
0.059367
0.0593718
0.0593765
0.0593813
0.0593861
0.0593909
0.0593958
0.0594006
0.0594054
0.0594102
0.059415
0.0594198
0.0594247
0.0594295
0.0594343
0.0594392
0.059444
0.0594489
0.0594537
0.0594586
0.0594634
0.0594683
0.0594732
0.059478
0.0594829
0.0594878
0.0594927
0.0594976
0.0595024
0.0595073
0.0595122
0.0595171
0.059522
0.0595269
0.0595318
0.0595368
0.0595417
0.0595466
0.0595515
0.0595564
0.0595614
0.0595663
0.0595712
0.0595762
0.0595811
0.0595861
0.059591
0.059596
0.0596009
0.0596059
0.0596109
0.0596158
0.0596208
0.0596258
0.0596308
0.0596357
0.0596407
0.0596457
0.0596507
0.0596557
0.0596607
0.0596657
0.0596707
0.0596757
0.0596807
0.0596858
0.0596908
0.0596958
0.0597008
0.0597059
0.0597109
0.0597159
0.059721
0.059726
0.0597311
0.0597361
0.0597412
0.0597462
0.0597513
0.0597564
0.0597614
0.0597665
0.0597716
0.0597767
0.0597818
0.0597869
0.0597919
0.059797
0.0598021
0.0598072
0.0598123
0.0598174
0.0598226
0.0598277
0.0598328
0.0598379
0.059843
0.0598482
0.0598533
0.0598584
0.0598636
0.0598687
0.0598739
0.059879
0.0598842
0.0598893
0.0598945
0.0598997
0.0599048
0.05991
0.0599152
0.0599204
0.0599255
0.0599307
0.0599359
0.0599411
0.0599463
0.0599515
0.0599567
0.0599619
0.0599671
0.0599724
0.0599776
0.0599828
0.059988
0.0599933
0.0599985
0.0600038
0.060009
0.0600143
0.0600195
0.0600248
0.0600301
0.0600353
0.0600406
0.0600459
0.0600512
0.0600565
0.0600618
0.0600671
0.0600724
0.0600777
0.060083
0.0600883
0.0600937
0.060099
0.0601043
0.0601097
0.060115
0.0601204
0.0601258
0.0601311
0.0601365
0.0601419
0.0601473
0.0601527
0.0601581
0.0601635
0.060169
0.0601744
0.0601798
0.0601853
0.0601908
0.0601962
0.0602017
0.0602072
0.0602127
0.0602182
0.0602237
0.0602293
0.0602348
0.0602404
0.0602459
0.0602515
0.0602571
0.0602627
0.0602683
0.0602739
0.0602796
0.0602852
0.0602909
0.0602966
0.0603023
0.060308
0.0603137
0.0603195
0.0603252
0.060331
0.0603368
0.0603426
0.0603484
0.0603542
0.0603601
0.060366
0.0603719
0.0603778
0.0603837
0.0603896
0.0603956
0.0604016
0.0604076
0.0604136
0.0604197
0.0604258
0.0604319
0.060438
0.0604441
0.0604503
0.0604564
0.0604626
0.0604689
0.0604751
0.0604814
0.0604877
0.060494
0.0605003
0.0605067
0.0605131
0.0605195
0.0605259
0.0605324
0.0605389
0.0605454
0.0605519
0.0605585
0.0605651
0.0605717
0.0605783
0.060585
0.0605917
0.0605984
0.0606051
0.0606119
0.0606186
0.0606255
0.0606323
0.0606391
0.060646
0.0606529
0.0606598
0.0606668
0.0606737
0.0606807
0.0606877
0.0606948
0.0607018
0.0607089
0.060716
0.0607231
0.0607302
0.0607374
0.0607446
0.0607517
0.060759
0.0607662
0.0607734
0.0607807
0.060788
0.0607952
0.0608025
0.0608098
0.0608172
0.0608245
0.0608319
0.0608392
0.0608466
0.060854
0.0608614
0.0608687
0.0608762
0.0608836
0.0608911
0.0608984
0.060906
0.0609133
0.0609209
0.0609282
0.0609358
0.0609431
0.0609507
0.060958
0.0609657
0.0609729
0.0609806
0.0609879
0.0609956
0.0610031
0.0610104
0.0610188
0.0610245
0.0610353
0.0610299
0.0610299
0.0610299
1
0.518768
0.327406
0.255353
0.217856
0.194412
0.178221
0.166318
0.15717
0.149897
0.143954
0.138986
0.134755
0.131092
0.12788
0.125031
0.12248
0.120181
0.118092
0.116184
0.114434
0.112824
0.111341
0.109973
0.108707
0.107532
0.106442
0.105433
0.104509
0.103671
0.102922
0.102258
0.101674
0.101162
0.100718
0.100337
0.100013
0.0997383
0.0995031
0.0992965
0.0991085
0.0989323
0.0987652
0.0986078
0.0984634
0.0983358
0.0982281
0.0981416
0.0980762
0.0980297
0.0979992
0.0979814
0.0979728
0.0979707
0.0979728
0.0979774
0.0979834
0.0979901
0.0979971
0.0980044
0.0980117
0.098019
0.0980264
0.0980338
0.0980413
0.0980489
0.0980564
0.098064
0.0980717
0.0980793
0.098087
0.0980947
0.0981025
0.0981102
0.0981179
0.0981257
0.0981334
0.0981412
0.098149
0.0981568
0.0981646
0.0981723
0.0981801
0.098188
0.0981958
0.0982036
0.0982114
0.0982193
0.0982271
0.0982349
0.0982428
0.0982507
0.0982585
0.0982664
0.0982743
0.0982821
0.09829
0.0982979
0.0983058
0.0983137
0.0983217
0.0983296
0.0983375
0.0983454
0.0983534
0.0983613
0.0983693
0.0983772
0.0983852
0.0983932
0.0984011
0.0984091
0.0984171
0.0984251
0.0984331
0.0984411
0.0984491
0.0984571
0.0984652
0.0984732
0.0984812
0.0984893
0.0984973
0.0985054
0.0985134
0.0985215
0.0985296
0.0985377
0.0985457
0.0985538
0.0985619
0.09857
0.0985782
0.0985863
0.0985944
0.0986025
0.0986107
0.0986188
0.0986269
0.0986351
0.0986433
0.0986514
0.0986596
0.0986678
0.098676
0.0986841
0.0986923
0.0987005
0.0987088
0.098717
0.0987252
0.0987334
0.0987416
0.0987499
0.0987581
0.0987664
0.0987746
0.0987829
0.0987912
0.0987994
0.0988077
0.098816
0.0988243
0.0988326
0.0988409
0.0988492
0.0988575
0.0988659
0.0988742
0.0988825
0.0988909
0.0988992
0.0989076
0.0989159
0.0989243
0.0989327
0.0989411
0.0989494
0.0989578
0.0989662
0.0989746
0.098983
0.0989915
0.0989999
0.0990083
0.0990167
0.0990252
0.0990336
0.0990421
0.0990505
0.099059
0.0990675
0.099076
0.0990845
0.0990929
0.0991014
0.0991099
0.0991185
0.099127
0.0991355
0.099144
0.0991526
0.0991611
0.0991697
0.0991782
0.0991868
0.0991953
0.0992039
0.0992125
0.0992211
0.0992297
0.0992383
0.0992469
0.0992555
0.0992641
0.0992728
0.0992814
0.0992901
0.0992987
0.0993074
0.099316
0.0993247
0.0993334
0.0993421
0.0993508
0.0993595
0.0993682
0.0993769
0.0993856
0.0993944
0.0994031
0.0994119
0.0994206
0.0994294
0.0994382
0.099447
0.0994558
0.0994646
0.0994734
0.0994822
0.099491
0.0994999
0.0995087
0.0995176
0.0995265
0.0995353
0.0995442
0.0995531
0.0995621
0.099571
0.0995799
0.0995889
0.0995978
0.0996068
0.0996158
0.0996248
0.0996338
0.0996428
0.0996518
0.0996609
0.0996699
0.099679
0.0996881
0.0996972
0.0997063
0.0997155
0.0997246
0.0997338
0.099743
0.0997522
0.0997614
0.0997706
0.0997799
0.0997891
0.0997984
0.0998077
0.099817
0.0998264
0.0998357
0.0998451
0.0998545
0.099864
0.0998734
0.0998829
0.0998924
0.0999019
0.0999114
0.099921
0.0999306
0.0999402
0.0999498
0.0999595
0.0999692
0.0999789
0.0999886
0.0999984
0.100008
0.100018
0.100028
0.100038
0.100048
0.100058
0.100068
0.100078
0.100088
0.100098
0.100108
0.100118
0.100128
0.100138
0.100148
0.100159
0.100169
0.100179
0.10019
0.1002
0.10021
0.100221
0.100231
0.100242
0.100253
0.100263
0.100274
0.100284
0.100295
0.100306
0.100317
0.100328
0.100338
0.100349
0.10036
0.100371
0.100382
0.100393
0.100404
0.100415
0.100426
0.100438
0.100449
0.10046
0.100471
0.100483
0.100494
0.100505
0.100517
0.100528
0.10054
0.100551
0.100563
0.100574
0.100586
0.100598
0.100609
0.100621
0.100633
0.100644
0.100656
0.100668
0.10068
0.100691
0.100703
0.100715
0.100727
0.100739
0.100751
0.100763
0.100775
0.100787
0.100799
0.100811
0.100823
0.100835
0.100847
0.100859
0.100871
0.100883
0.100895
0.100907
0.100919
0.100931
0.100943
0.100955
0.100967
0.10098
0.100991
0.101004
0.101016
0.101028
0.10104
0.101052
0.101064
0.101076
0.101089
0.1011
0.101114
0.101123
0.10114
0.101134
0.101134
0.101134
1
0.66089
0.446899
0.352885
0.302039
0.269861
0.247514
0.231033
0.218343
0.208244
0.199986
0.193083
0.187203
0.182115
0.177653
0.173698
0.170158
0.166967
0.164071
0.161426
0.159
0.15677
0.154717
0.152823
0.151071
0.149447
0.147941
0.14655
0.145278
0.144127
0.143099
0.142189
0.141389
0.14069
0.140085
0.139566
0.139125
0.138749
0.138425
0.138139
0.137879
0.137634
0.137404
0.137189
0.136994
0.136823
0.13668
0.136567
0.136482
0.136422
0.136384
0.136362
0.136352
0.136351
0.136354
0.136361
0.13637
0.136379
0.136389
0.136399
0.136409
0.136419
0.13643
0.13644
0.136451
0.136461
0.136472
0.136482
0.136493
0.136504
0.136514
0.136525
0.136536
0.136547
0.136557
0.136568
0.136579
0.13659
0.136601
0.136612
0.136622
0.136633
0.136644
0.136655
0.136666
0.136677
0.136688
0.136699
0.13671
0.136721
0.136732
0.136742
0.136753
0.136764
0.136775
0.136786
0.136797
0.136808
0.136819
0.13683
0.136841
0.136852
0.136864
0.136875
0.136886
0.136897
0.136908
0.136919
0.13693
0.136941
0.136952
0.136963
0.136975
0.136986
0.136997
0.137008
0.137019
0.13703
0.137042
0.137053
0.137064
0.137075
0.137086
0.137098
0.137109
0.13712
0.137131
0.137143
0.137154
0.137165
0.137176
0.137188
0.137199
0.13721
0.137222
0.137233
0.137244
0.137256
0.137267
0.137278
0.13729
0.137301
0.137313
0.137324
0.137335
0.137347
0.137358
0.13737
0.137381
0.137393
0.137404
0.137416
0.137427
0.137439
0.13745
0.137462
0.137473
0.137485
0.137496
0.137508
0.137519
0.137531
0.137542
0.137554
0.137566
0.137577
0.137589
0.1376
0.137612
0.137624
0.137635
0.137647
0.137659
0.13767
0.137682
0.137694
0.137705
0.137717
0.137729
0.137741
0.137752
0.137764
0.137776
0.137788
0.137799
0.137811
0.137823
0.137835
0.137846
0.137858
0.13787
0.137882
0.137894
0.137906
0.137918
0.137929
0.137941
0.137953
0.137965
0.137977
0.137989
0.138001
0.138013
0.138025
0.138037
0.138049
0.138061
0.138073
0.138085
0.138097
0.138109
0.138121
0.138133
0.138145
0.138157
0.138169
0.138181
0.138193
0.138205
0.138217
0.13823
0.138242
0.138254
0.138266
0.138278
0.13829
0.138303
0.138315
0.138327
0.138339
0.138351
0.138364
0.138376
0.138388
0.138401
0.138413
0.138425
0.138438
0.13845
0.138462
0.138475
0.138487
0.1385
0.138512
0.138524
0.138537
0.138549
0.138562
0.138574
0.138587
0.138599
0.138612
0.138625
0.138637
0.13865
0.138662
0.138675
0.138688
0.1387
0.138713
0.138726
0.138739
0.138751
0.138764
0.138777
0.13879
0.138803
0.138816
0.138829
0.138841
0.138854
0.138867
0.13888
0.138893
0.138907
0.13892
0.138933
0.138946
0.138959
0.138972
0.138985
0.138999
0.139012
0.139025
0.139039
0.139052
0.139065
0.139079
0.139092
0.139106
0.139119
0.139133
0.139147
0.13916
0.139174
0.139188
0.139201
0.139215
0.139229
0.139243
0.139257
0.139271
0.139285
0.139299
0.139313
0.139327
0.139341
0.139355
0.13937
0.139384
0.139398
0.139412
0.139427
0.139441
0.139456
0.13947
0.139485
0.1395
0.139514
0.139529
0.139544
0.139558
0.139573
0.139588
0.139603
0.139618
0.139633
0.139648
0.139663
0.139678
0.139694
0.139709
0.139724
0.139739
0.139755
0.13977
0.139786
0.139801
0.139817
0.139832
0.139848
0.139863
0.139879
0.139895
0.139911
0.139926
0.139942
0.139958
0.139974
0.13999
0.140006
0.140022
0.140038
0.140054
0.14007
0.140086
0.140102
0.140119
0.140135
0.140151
0.140167
0.140184
0.1402
0.140216
0.140232
0.140249
0.140265
0.140282
0.140298
0.140314
0.140331
0.140347
0.140364
0.14038
0.140396
0.140413
0.140429
0.140446
0.140462
0.140479
0.140495
0.140512
0.140528
0.140545
0.140561
0.140578
0.140594
0.140611
0.140627
0.140644
0.14066
0.140677
0.140694
0.14071
0.140728
0.140741
0.140764
0.140757
0.140757
0.140757
1
0.776805
0.557831
0.446887
0.384112
0.343756
0.315526
0.294621
0.278488
0.265628
0.255106
0.246306
0.238809
0.232323
0.226636
0.221595
0.217087
0.213023
0.209335
0.205969
0.202883
0.200047
0.197436
0.195028
0.192802
0.19074
0.18883
0.187069
0.185459
0.184006
0.182708
0.181561
0.180554
0.179676
0.178918
0.178267
0.177713
0.17724
0.176831
0.176467
0.176134
0.175823