# vtk DataFile Version 2.0
FlowField
ASCII
DATASET STRUCTURED_GRID
DIMENSIONS 400 1 200
POINTS 80000 float
0 0 0
0.08 0 0
0.16 0 0
0.24 0 0
0.32 0 0
0.4 0 0
0.48 0 0
0.56 0 0
0.64 0 0
0.72 0 0
0.8 0 0
0.88 0 0
0.96 0 0
1.04 0 0
1.12 0 0
1.2 0 0
1.28 0 0
1.36 0 0
1.44 0 0
1.52 0 0
1.6 0 0
1.68 0 0
1.76 0 0
1.84 0 0
1.92 0 0
2 0 0
2.08 0 0
2.16 0 0
2.24 0 0
2.32 0 0
2.4 0 0
2.48 0 0
2.56 0 0
2.64 0 0
2.72 0 0
2.8 0 0
2.88 0 0
2.96 0 0
3.04 0 0
3.12 0 0
3.2 0 0
3.28 0 0
3.36 0 0
3.44 0 0
3.52 0 0
3.6 0 0
3.68 0 0
3.76 0 0
3.84 0 0
3.92 0 0
4 0 0
4.08 0 0
4.16 0 0
4.24 0 0
4.32 0 0
4.4 0 0
4.48 0 0
4.56 0 0
4.64 0 0
4.72 0 0
4.8 0 0
4.88 0 0
4.96 0 0
5.04 0 0
5.12 0 0
5.2 0 0
5.28 0 0
5.36 0 0
5.44 0 0
5.52 0 0
5.6 0 0
5.68 0 0
5.76 0 0
5.84 0 0
5.92 0 0
6 0 0
6.08 0 0
6.16 0 0
6.24 0 0
6.32 0 0
6.4 0 0
6.48 0 0
6.56 0 0
6.64 0 0
6.72 0 0
6.8 0 0
6.88 0 0
6.96 0 0
7.04 0 0
7.12 0 0
7.2 0 0
7.28 0 0
7.36 0 0
7.44 0 0
7.52 0 0
7.6 0 0
7.68 0 0
7.76 0 0
7.84 0 0
7.92 0 0
8 0 0
8.08 0 0
8.16 0 0
8.24 0 0
8.32 0 0
8.4 0 0
8.48 0 0
8.56 0 0
8.64 0 0
8.72 0 0
8.8 0 0
8.88 0 0
8.96 0 0
9.04 0 0
9.12 0 0
9.2 0 0
9.28 0 0
9.36 0 0
9.44 0 0
9.52 0 0
9.6 0 0
9.68 0 0
9.76 0 0
9.84 0 0
9.92 0 0
10 0 0
10.08 0 0
10.16 0 0
10.24 0 0
10.32 0 0
10.4 0 0
10.48 0 0
10.56 0 0
10.64 0 0
10.72 0 0
10.8 0 0
10.88 0 0
10.96 0 0
11.04 0 0
11.12 0 0
11.2 0 0
11.28 0 0
11.36 0 0
11.44 0 0
11.52 0 0
11.6 0 0
11.68 0 0
11.76 0 0
11.84 0 0
11.92 0 0
12 0 0
12.08 0 0
12.16 0 0
12.24 0 0
12.32 0 0
12.4 0 0
12.48 0 0
12.56 0 0
12.64 0 0
12.72 0 0
12.8 0 0
12.88 0 0
12.96 0 0
13.04 0 0
13.12 0 0
13.2 0 0
13.28 0 0
13.36 0 0
13.44 0 0
13.52 0 0
13.6 0 0
13.68 0 0
13.76 0 0
13.84 0 0
13.92 0 0
14 0 0
14.08 0 0
14.16 0 0
14.24 0 0
14.32 0 0
14.4 0 0
14.48 0 0
14.56 0 0
14.64 0 0
14.72 0 0
14.8 0 0
14.88 0 0
14.96 0 0
15.04 0 0
15.12 0 0
15.2 0 0
15.28 0 0
15.36 0 0
15.44 0 0
15.52 0 0
15.6 0 0
15.68 0 0
15.76 0 0
15.84 0 0
15.92 0 0
16 0 0
16.08 0 0
16.16 0 0
16.24 0 0
16.32 0 0
16.4 0 0
16.48 0 0
16.56 0 0
16.64 0 0
16.72 0 0
16.8 0 0
16.88 0 0
16.96 0 0
17.04 0 0
17.12 0 0
17.2 0 0
17.28 0 0
17.36 0 0
17.44 0 0
17.52 0 0
17.6 0 0
17.68 0 0
17.76 0 0
17.84 0 0
17.92 0 0
18 0 0
18.08 0 0
18.16 0 0
18.24 0 0
18.32 0 0
18.4 0 0
18.48 0 0
18.56 0 0
18.64 0 0
18.72 0 0
18.8 0 0
18.88 0 0
18.96 0 0
19.04 0 0
19.12 0 0
19.2 0 0
19.28 0 0
19.36 0 0
19.44 0 0
19.52 0 0
19.6 0 0
19.68 0 0
19.76 0 0
19.84 0 0
19.92 0 0
20 0 0
20.08 0 0
20.16 0 0
20.24 0 0
20.32 0 0
20.4 0 0
20.48 0 0
20.56 0 0
20.64 0 0
20.72 0 0
20.8 0 0
20.88 0 0
20.96 0 0
21.04 0 0
21.12 0 0
21.2 0 0
21.28 0 0
21.36 0 0
21.44 0 0
21.52 0 0
21.6 0 0
21.68 0 0
21.76 0 0
21.84 0 0
21.92 0 0
22 0 0
22.08 0 0
22.16 0 0
22.24 0 0
22.32 0 0
22.4 0 0
22.48 0 0
22.56 0 0
22.64 0 0
22.72 0 0
22.8 0 0
22.88 0 0
22.96 0 0
23.04 0 0
23.12 0 0
23.2 0 0
23.28 0 0
23.36 0 0
23.44 0 0
23.52 0 0
23.6 0 0
23.68 0 0
23.76 0 0
23.84 0 0
23.92 0 0
24 0 0
24.08 0 0
24.16 0 0
24.24 0 0
24.32 0 0
24.4 0 0
24.48 0 0
24.56 0 0
24.64 0 0
24.72 0 0
24.8 0 0
24.88 0 0
24.96 0 0
25.04 0 0
25.12 0 0
25.2 0 0
25.28 0 0
25.36 0 0
25.44 0 0
25.52 0 0
25.6 0 0
25.68 0 0
25.76 0 0
25.84 0 0
25.92 0 0
26 0 0
26.08 0 0
26.16 0 0
26.24 0 0
26.32 0 0
26.4 0 0
26.48 0 0
26.56 0 0
26.64 0 0
26.72 0 0
26.8 0 0
26.88 0 0
26.96 0 0
27.04 0 0
27.12 0 0
27.2 0 0
27.28 0 0
27.36 0 0
27.44 0 0
27.52 0 0
27.6 0 0
27.68 0 0
27.76 0 0
27.84 0 0
27.92 0 0
28 0 0
28.08 0 0
28.16 0 0
28.24 0 0
28.32 0 0
28.4 0 0
28.48 0 0
28.56 0 0
28.64 0 0
28.72 0 0
28.8 0 0
28.88 0 0
28.96 0 0
29.04 0 0
29.12 0 0
29.2 0 0
29.28 0 0
29.36 0 0
29.44 0 0
29.52 0 0
29.6 0 0
29.68 0 0
29.76 0 0
29.84 0 0
29.92 0 0
30 0 0
30.08 0 0
30.16 0 0
30.24 0 0
30.32 0 0
30.4 0 0
30.48 0 0
30.56 0 0
30.64 0 0
30.72 0 0
30.8 0 0
30.88 0 0
30.96 0 0
31.04 0 0
31.12 0 0
31.2 0 0
31.28 0 0
31.36 0 0
31.44 0 0
31.52 0 0
31.6 0 0
31.68 0 0
31.76 0 0
31.84 0 0
31.92 0 0
0 0.005 0
0.08 0.005 0
0.16 0.005 0
0.24 0.005 0
0.32 0.005 0
0.4 0.005 0
0.48 0.005 0
0.56 0.005 0
0.64 0.005 0
0.72 0.005 0
0.8 0.005 0
0.88 0.005 0
0.96 0.005 0
1.04 0.005 0
1.12 0.005 0
1.2 0.005 0
1.28 0.005 0
1.36 0.005 0
1.44 0.005 0
1.52 0.005 0
1.6 0.005 0
1.68 0.005 0
1.76 0.005 0
1.84 0.005 0
1.92 0.005 0
2 0.005 0
2.08 0.005 0
2.16 0.005 0
2.24 0.005 0
2.32 0.005 0
2.4 0.005 0
2.48 0.005 0
2.56 0.005 0
2.64 0.005 0
2.72 0.005 0
2.8 0.005 0
2.88 0.005 0
2.96 0.005 0
3.04 0.005 0
3.12 0.005 0
3.2 0.005 0
3.28 0.005 0
3.36 0.005 0
3.44 0.005 0
3.52 0.005 0
3.6 0.005 0
3.68 0.005 0
3.76 0.005 0
3.84 0.005 0
3.92 0.005 0
4 0.005 0
4.08 0.005 0
4.16 0.005 0
4.24 0.005 0
4.32 0.005 0
4.4 0.005 0
4.48 0.005 0
4.56 0.005 0
4.64 0.005 0
4.72 0.005 0
4.8 0.005 0
4.88 0.005 0
4.96 0.005 0
5.04 0.005 0
5.12 0.005 0
5.2 0.005 0
5.28 0.005 0
5.36 0.005 0
5.44 0.005 0
5.52 0.005 0
5.6 0.005 0
5.68 0.005 0
5.76 0.005 0
5.84 0.005 0
5.92 0.005 0
6 0.005 0
6.08 0.005 0
6.16 0.005 0
6.24 0.005 0
6.32 0.005 0
6.4 0.005 0
6.48 0.005 0
6.56 0.005 0
6.64 0.005 0
6.72 0.005 0
6.8 0.005 0
6.88 0.005 0
6.96 0.005 0
7.04 0.005 0
7.12 0.005 0
7.2 0.005 0
7.28 0.005 0
7.36 0.005 0
7.44 0.005 0
7.52 0.005 0
7.6 0.005 0
7.68 0.005 0
7.76 0.005 0
7.84 0.005 0
7.92 0.005 0
8 0.005 0
8.08 0.005 0
8.16 0.005 0
8.24 0.005 0
8.32 0.005 0
8.4 0.005 0
8.48 0.005 0
8.56 0.005 0
8.64 0.005 0
8.72 0.005 0
8.8 0.005 0
8.88 0.005 0
8.96 0.005 0
9.04 0.005 0
9.12 0.005 0
9.2 0.005 0
9.28 0.005 0
9.36 0.005 0
9.44 0.005 0
9.52 0.005 0
9.6 0.005 0
9.68 0.005 0
9.76 0.005 0
9.84 0.005 0
9.92 0.005 0
10 0.005 0
10.08 0.005 0
10.16 0.005 0
10.24 0.005 0
10.32 0.005 0
10.4 0.005 0
10.48 0.005 0
10.56 0.005 0
10.64 0.005 0
10.72 0.005 0
10.8 0.005 0
10.88 0.005 0
10.96 0.005 0
11.04 0.005 0
11.12 0.005 0
11.2 0.005 0
11.28 0.005 0
11.36 0.005 0
11.44 0.005 0
11.52 0.005 0
11.6 0.005 0
11.68 0.005 0
11.76 0.005 0
11.84 0.005 0
11.92 0.005 0
12 0.005 0
12.08 0.005 0
12.16 0.005 0
12.24 0.005 0
12.32 0.005 0
12.4 0.005 0
12.48 0.005 0
12.56 0.005 0
12.64 0.005 0
12.72 0.005 0
12.8 0.005 0
12.88 0.005 0
12.96 0.005 0
13.04 0.005 0
13.12 0.005 0
13.2 0.005 0
13.28 0.005 0
13.36 0.005 0
13.44 0.005 0
13.52 0.005 0
13.6 0.005 0
13.68 0.005 0
13.76 0.005 0
13.84 0.005 0
13.92 0.005 0
14 0.005 0
14.08 0.005 0
14.16 0.005 0
14.24 0.005 0
14.32 0.005 0
14.4 0.005 0
14.48 0.005 0
14.56 0.005 0
14.64 0.005 0
14.72 0.005 0
14.8 0.005 0
14.88 0.005 0
14.96 0.005 0
15.04 0.005 0
15.12 0.005 0
15.2 0.005 0
15.28 0.005 0
15.36 0.005 0
15.44 0.005 0
15.52 0.005 0
15.6 0.005 0
15.68 0.005 0
15.76 0.005 0
15.84 0.005 0
15.92 0.005 0
16 0.005 0
16.08 0.005 0
16.16 0.005 0
16.24 0.005 0
16.32 0.005 0
16.4 0.005 0
16.48 0.005 0
16.56 0.005 0
16.64 0.005 0
16.72 0.005 0
16.8 0.005 0
16.88 0.005 0
16.96 0.005 0
17.04 0.005 0
17.12 0.005 0
17.2 0.005 0
17.28 0.005 0
17.36 0.005 0
17.44 0.005 0
17.52 0.005 0
17.6 0.005 0
17.68 0.005 0
17.76 0.005 0
17.84 0.005 0
17.92 0.005 0
18 0.005 0
18.08 0.005 0
18.16 0.005 0
18.24 0.005 0
18.32 0.005 0
18.4 0.005 0
18.48 0.005 0
18.56 0.005 0
18.64 0.005 0
18.72 0.005 0
18.8 0.005 0
18.88 0.005 0
18.96 0.005 0
19.04 0.005 0
19.12 0.005 0
19.2 0.005 0
19.28 0.005 0
19.36 0.005 0
19.44 0.005 0
19.52 0.005 0
19.6 0.005 0
19.68 0.005 0
19.76 0.005 0
19.84 0.005 0
19.92 0.005 0
20 0.005 0
20.08 0.005 0
20.16 0.005 0
20.24 0.005 0
20.32 0.005 0
20.4 0.005 0
20.48 0.005 0
20.56 0.005 0
20.64 0.005 0
20.72 0.005 0
20.8 0.005 0
20.88 0.005 0
20.96 0.005 0
21.04 0.005 0
21.12 0.005 0
21.2 0.005 0
21.28 0.005 0
21.36 0.005 0
21.44 0.005 0
21.52 0.005 0
21.6 0.005 0
21.68 0.005 0
21.76 0.005 0
21.84 0.005 0
21.92 0.005 0
22 0.005 0
22.08 0.005 0
22.16 0.005 0
22.24 0.005 0
22.32 0.005 0
22.4 0.005 0
22.48 0.005 0
22.56 0.005 0
22.64 0.005 0
22.72 0.005 0
22.8 0.005 0
22.88 0.005 0
22.96 0.005 0
23.04 0.005 0
23.12 0.005 0
23.2 0.005 0
23.28 0.005 0
23.36 0.005 0
23.44 0.005 0
23.52 0.005 0
23.6 0.005 0
23.68 0.005 0
23.76 0.005 0
23.84 0.005 0
23.92 0.005 0
24 0.005 0
24.08 0.005 0
24.16 0.005 0
24.24 0.005 0
24.32 0.005 0
24.4 0.005 0
24.48 0.005 0
24.56 0.005 0
24.64 0.005 0
24.72 0.005 0
24.8 0.005 0
24.88 0.005 0
24.96 0.005 0
25.04 0.005 0
25.12 0.005 0
25.2 0.005 0
25.28 0.005 0
25.36 0.005 0
25.44 0.005 0
25.52 0.005 0
25.6 0.005 0
25.68 0.005 0
25.76 0.005 0
25.84 0.005 0
25.92 0.005 0
26 0.005 0
26.08 0.005 0
26.16 0.005 0
26.24 0.005 0
26.32 0.005 0
26.4 0.005 0
26.48 0.005 0
26.56 0.005 0
26.64 0.005 0
26.72 0.005 0
26.8 0.005 0
26.88 0.005 0
26.96 0.005 0
27.04 0.005 0
27.12 0.005 0
27.2 0.005 0
27.28 0.005 0
27.36 0.005 0
27.44 0.005 0
27.52 0.005 0
27.6 0.005 0
27.68 0.005 0
27.76 0.005 0
27.84 0.005 0
27.92 0.005 0
28 0.005 0
28.08 0.005 0
28.16 0.005 0
28.24 0.005 0
28.32 0.005 0
28.4 0.005 0
28.48 0.005 0
28.56 0.005 0
28.64 0.005 0
28.72 0.005 0
28.8 0.005 0
28.88 0.005 0
28.96 0.005 0
29.04 0.005 0
29.12 0.005 0
29.2 0.005 0
29.28 0.005 0
29.36 0.005 0
29.44 0.005 0
29.52 0.005 0
29.6 0.005 0
29.68 0.005 0
29.76 0.005 0
29.84 0.005 0
29.92 0.005 0
30 0.005 0
30.08 0.005 0
30.16 0.005 0
30.24 0.005 0
30.32 0.005 0
30.4 0.005 0
30.48 0.005 0
30.56 0.005 0
30.64 0.005 0
30.72 0.005 0
30.8 0.005 0
30.88 0.005 0
30.96 0.005 0
31.04 0.005 0
31.12 0.005 0
31.2 0.005 0
31.28 0.005 0
31.36 0.005 0
31.44 0.005 0
31.52 0.005 0
31.6 0.005 0
31.68 0.005 0
31.76 0.005 0
31.84 0.005 0
31.92 0.005 0
0 0.01 0
0.08 0.01 0
0.16 0.01 0
0.24 0.01 0
0.32 0.01 0
0.4 0.01 0
0.48 0.01 0
0.56 0.01 0
0.64 0.01 0
0.72 0.01 0
0.8 0.01 0
0.88 0.01 0
0.96 0.01 0
1.04 0.01 0
1.12 0.01 0
1.2 0.01 0
1.28 0.01 0
1.36 0.01 0
1.44 0.01 0
1.52 0.01 0
1.6 0.01 0
1.68 0.01 0
1.76 0.01 0
1.84 0.01 0
1.92 0.01 0
2 0.01 0
2.08 0.01 0
2.16 0.01 0
2.24 0.01 0
2.32 0.01 0
2.4 0.01 0
2.48 0.01 0
2.56 0.01 0
2.64 0.01 0
2.72 0.01 0
2.8 0.01 0
2.88 0.01 0
2.96 0.01 0
3.04 0.01 0
3.12 0.01 0
3.2 0.01 0
3.28 0.01 0
3.36 0.01 0
3.44 0.01 0
3.52 0.01 0
3.6 0.01 0
3.68 0.01 0
3.76 0.01 0
3.84 0.01 0
3.92 0.01 0
4 0.01 0
4.08 0.01 0
4.16 0.01 0
4.24 0.01 0
4.32 0.01 0
4.4 0.01 0
4.48 0.01 0
4.56 0.01 0
4.64 0.01 0
4.72 0.01 0
4.8 0.01 0
4.88 0.01 0
4.96 0.01 0
5.04 0.01 0
5.12 0.01 0
[...]
POINT_DATA 80000

SCALARS u float 1
LOOKUP_TABLE default
0
-0.131663
-0.0682697
-0.0522965
-0.0444205
-0.0395775
-0.0362605
-0.0338335
-0.0319736
-0.030497
-0.029291
-0.0282827
-0.0274233
-0.0266788
-0.0260249
-0.0254441
-0.0249233
-0.0244526
-0.0240241
-0.0236319
-0.0232711
-0.0229377
-0.0226287
-0.0223412
-0.0220728
-0.0218216
-0.0215861
-0.0213651
-0.0211572
-0.0209614
-0.0207766
-0.0206019
-0.0204369
-0.0202811
-0.0201344
-0.0199963
-0.0198664
-0.0197442
-0.01963
-0.0195242
-0.0194274
-0.0193401
-0.019262
-0.0191922
-0.0191296
-0.0190728
-0.019021
-0.0189737
-0.0189308
-0.0188923
-0.0188582
-0.0188281
-0.0188011
-0.0187765
-0.0187536
-0.0187319
-0.0187112
-0.0186915
-0.0186734
-0.0186571
-0.0186431
-0.0186315
-0.0186222
-0.0186153
-0.0186104
-0.0186071
-0.0186052
-0.0186042
-0.018604
-0.0186042
-0.0186047
-0.0186054
-0.0186063
-0.0186072
-0.0186082
-0.0186091
-0.0186102
-0.0186112
-0.0186122
-0.0186133
-0.0186143
-0.0186154
-0.0186164
-0.0186175
-0.0186186
-0.0186197
-0.0186207
-0.0186218
-0.0186229
-0.018624
-0.018625
-0.0186261
-0.0186272
-0.0186283
-0.0186293
-0.0186304
-0.0186315
-0.0186326
-0.0186337
-0.0186347
-0.0186358
-0.0186369
-0.018638
-0.0186391
-0.0186402
-0.0186413
-0.0186423
-0.0186434
-0.0186445
-0.0186456
-0.0186467
-0.0186478
-0.0186489
-0.01865
-0.0186511
-0.0186522
-0.0186533
-0.0186544
-0.0186555
-0.0186566
-0.0186577
-0.0186588
-0.0186599
-0.018661
-0.0186621
-0.0186632
-0.0186643
-0.0186654
-0.0186665
-0.0186676
-0.0186687
-0.0186698
-0.0186709
-0.018672
-0.0186731
-0.0186742
-0.0186753
-0.0186764
-0.0186776
-0.0186787
-0.0186798
-0.0186809
-0.018682
-0.0186831
-0.0186842
-0.0186854
-0.0186865
-0.0186876
-0.0186887
-0.0186898
-0.0186909
-0.0186921
-0.0186932
-0.0186943
-0.0186954
-0.0186966
-0.0186977
-0.0186988
-0.0186999
-0.0187011
-0.0187022
-0.0187033
-0.0187044
-0.0187056
-0.0187067
-0.0187078
-0.018709
-0.0187101
-0.0187112
-0.0187124
-0.0187135
-0.0187146
-0.0187158
-0.0187169
-0.018718
-0.0187192
-0.0187203
-0.0187215
-0.0187226
-0.0187237
-0.0187249
-0.018726
-0.0187272
-0.0187283
-0.0187295
-0.0187306
-0.0187317
-0.0187329
-0.018734
-0.0187352
-0.0187363
-0.0187375
-0.0187386
-0.0187398
-0.0187409
-0.0187421
-0.0187432
-0.0187444
-0.0187455
-0.0187467
-0.0187478
-0.018749
-0.0187502
-0.0187513
-0.0187525
-0.0187536
-0.0187548
-0.0187559
-0.0187571
-0.0187583
-0.0187594
-0.0187606
-0.0187617
-0.0187629
-0.0187641
-0.0187652
-0.0187664
-0.0187675
-0.0187687
-0.0187699
-0.018771
-0.0187722
-0.0187734
-0.0187745
-0.0187757
-0.0187769
-0.018778
-0.0187792
-0.0187804
-0.0187815
-0.0187827
-0.0187839
-0.018785
-0.0187862
-0.0187874
-0.0187886
-0.0187897
-0.0187909
-0.0187921
-0.0187932
-0.0187944
-0.0187956
-0.0187968
-0.0187979
-0.0187991
-0.0188003
-0.0188015
-0.0188026
-0.0188038
-0.018805
-0.0188062
-0.0188073
-0.0188085
-0.0188097
-0.0188109
-0.018812
-0.0188132
-0.0188144
-0.0188156
-0.0188168
-0.0188179
-0.0188191
-0.0188203
-0.0188215
-0.0188227
-0.0188238
-0.018825
-0.0188262
-0.0188274
-0.0188286
-0.0188297
-0.0188309
-0.0188321
-0.0188333
-0.0188345
-0.0188356
-0.0188368
-0.018838
-0.0188392
-0.0188404
-0.0188416
-0.0188428
-0.0188439
-0.0188451
-0.0188463
-0.0188475
-0.0188487
-0.0188499
-0.0188511
-0.0188522
-0.0188534
-0.0188546
-0.0188558
-0.018857
-0.0188582
-0.0188594
-0.0188606
-0.0188618
-0.018863
-0.0188642
-0.0188653
-0.0188665
-0.0188677
-0.0188689
-0.0188701
-0.0188713
-0.0188725
-0.0188737
-0.0188749
-0.0188761
-0.0188773
-0.0188785
-0.0188797
-0.0188809
-0.0188821
-0.0188833
-0.0188845
-0.0188857
-0.0188869
-0.0188882
-0.0188894
-0.0188906
-0.0188918
-0.018893
-0.0188942
-0.0188954
-0.0188966
-0.0188978
-0.0188991
-0.0189003
-0.0189015
-0.0189027
-0.0189039
-0.0189052
-0.0189064
-0.0189076
-0.0189088
-0.01891
-0.0189113
-0.0189125
-0.0189137
-0.018915
-0.0189162
-0.0189174
-0.0189187
-0.0189199
-0.0189211
-0.0189224
-0.0189236
-0.0189248
-0.0189261
-0.0189273
-0.0189286
-0.0189298
-0.018931
-0.0189323
-0.0189335
-0.0189348
-0.018936
-0.0189373
-0.0189385
-0.0189398
-0.0189411
-0.0189423
-0.0189436
-0.0189448
-0.0189461
-0.0189474
-0.0189486
-0.0189499
-0.0189512
-0.0189524
-0.0189537
-0.018955
-0.0189562
-0.0189575
-0.0189588
-0.0189601
-0.0189613
-0.0189626
-0.0189639
-0.0189652
-0.0189665
-0.0189678
-0.018969
-0.0189704
-0.0189716
-0.0189729
-0.0189742
-0.0189755
-0.0189768
-0.0189781
-0.0189795
-0.0189807
-0.0189823
-0.0189831
-0.0189853
-0.0189833
-0.0189833
-0.0189833
1
0.131663
0.0682697
0.0522965
0.0444205
0.0395775
0.0362605
0.0338335
0.0319736
0.030497
0.029291
0.0282827
0.0274233
0.0266788
0.0260249
0.0254441
0.0249233
0.0244526
0.0240241
0.0236319
0.0232711
0.0229377
0.0226287
0.0223412
0.0220728
0.0218216
0.0215861
0.0213651
0.0211572
0.0209614
0.0207766
0.0206019
0.0204369
0.0202811
0.0201344
0.0199963
0.0198664
0.0197442
0.01963
0.0195242
0.0194274
0.0193401
0.019262
0.0191922
0.0191296
0.0190728
0.019021
0.0189737
0.0189308
0.0188923
0.0188582
0.0188281
0.0188011
0.0187765
0.0187536
0.0187319
0.0187112
0.0186915
0.0186734
0.0186571
0.0186431
0.0186315
0.0186222
0.0186153
0.0186104
0.0186071
0.0186052
0.0186042
0.018604
0.0186042
0.0186047
0.0186054
0.0186063
0.0186072
0.0186082
0.0186091
0.0186102
0.0186112
0.0186122
0.0186133
0.0186143
0.0186154
0.0186164
0.0186175
0.0186186
0.0186197
0.0186207
0.0186218
0.0186229
0.018624
0.018625
0.0186261
0.0186272
0.0186283
0.0186293
0.0186304
0.0186315
0.0186326
0.0186337
0.0186347
0.0186358
0.0186369
0.018638
0.0186391
0.0186402
0.0186413
0.0186423
0.0186434
0.0186445
0.0186456
0.0186467
0.0186478
0.0186489
0.01865
0.0186511
0.0186522
0.0186533
0.0186544
0.0186555
0.0186566
0.0186577
0.0186588
0.0186599
0.018661
0.0186621
0.0186632
0.0186643
0.0186654
0.0186665
0.0186676
0.0186687
0.0186698
0.0186709
0.018672
0.0186731
0.0186742
0.0186753
0.0186764
0.0186776
0.0186787
0.0186798
0.0186809
0.018682
0.0186831
0.0186842
0.0186854
0.0186865
0.0186876
0.0186887
0.0186898
0.0186909
0.0186921
0.0186932
0.0186943
0.0186954
0.0186966
0.0186977
0.0186988
0.0186999
0.0187011
0.0187022
0.0187033
0.0187044
0.0187056
0.0187067
0.0187078
0.018709
0.0187101
0.0187112
0.0187124
0.0187135
0.0187146
0.0187158
0.0187169
0.018718
0.0187192
0.0187203
0.0187215
0.0187226
0.0187237
0.0187249
0.018726
0.0187272
0.0187283
0.0187295
0.0187306
0.0187317
0.0187329
0.018734
0.0187352
0.0187363
0.0187375
0.0187386
0.0187398
0.0187409
0.0187421
0.0187432
0.0187444
0.0187455
0.0187467
0.0187478
0.018749
0.0187502
0.0187513
0.0187525
0.0187536
0.0187548
0.0187559
0.0187571
0.0187583
0.0187594
0.0187606
0.0187617
0.0187629
0.0187641
0.0187652
0.0187664
0.0187675
0.0187687
0.0187699
0.018771
0.0187722
0.0187734
0.0187745
0.0187757
0.0187769
0.018778
0.0187792
0.0187804
0.0187815
0.0187827
0.0187839
0.018785
0.0187862
0.0187874
0.0187886
0.0187897
0.0187909
0.0187921
0.0187932
0.0187944
0.0187956
0.0187968
0.0187979
0.0187991
0.0188003
0.0188015
0.0188026
0.0188038
0.018805
0.0188062
0.0188073
0.0188085
0.0188097
0.0188109
0.018812
0.0188132
0.0188144
0.0188156
0.0188168
0.0188179
0.0188191
0.0188203
0.0188215
0.0188227
0.0188238
0.018825
0.0188262
0.0188274
0.0188286
0.0188297
0.0188309
0.0188321
0.0188333
0.0188345
0.0188356
0.0188368
0.018838
0.0188392
0.0188404
0.0188416
0.0188428
0.0188439
0.0188451
0.0188463
0.0188475
0.0188487
0.0188499
0.0188511
0.0188522
0.0188534
0.0188546
0.0188558
0.018857
0.0188582
0.0188594
0.0188606
0.0188618
0.018863
0.0188642
0.0188653
0.0188665
0.0188677
0.0188689
0.0188701
0.0188713
0.0188725
0.0188737
0.0188749
0.0188761
0.0188773
0.0188785
0.0188797
0.0188809
0.0188821
0.0188833
0.0188845
0.0188857
0.0188869
0.0188882
0.0188894
0.0188906
0.0188918
0.018893
0.0188942
0.0188954
0.0188966
0.0188978
0.0188991
0.0189003
0.0189015
0.0189027
0.0189039
0.0189052
0.0189064
0.0189076
0.0189088
0.01891
0.0189113
0.0189125
0.0189137
0.018915
0.0189162
0.0189174
0.0189187
0.0189199
0.0189211
0.0189224
0.0189236
0.0189248
0.0189261
0.0189273
0.0189286
0.0189298
0.018931
0.0189323
0.0189335
0.0189348
0.018936
0.0189373
0.0189385
0.0189398
0.0189411
0.0189423
0.0189436
0.0189448
0.0189461
0.0189474
0.0189486
0.0189499
0.0189512
0.0189524
0.0189537
0.018955
0.0189562
0.0189575
0.0189588
0.0189601
0.0189613
0.0189626
0.0189639
0.0189652
0.0189665
0.0189678
0.018969
0.0189704
0.0189716
0.0189729
0.0189742
0.0189755
0.0189768
0.0189781
0.0189795
0.0189807
0.0189823
0.0189831
0.0189853
0.0189833
0.0189833
0.0189833
1
0.344885
0.200669
0.154969
0.131896
0.117601
0.10777
0.100561
0.0950277
0.0906321
0.0870411
0.0840394
0.0814816
0.0792666
0.0773225
0.0755967
0.0740499
0.0726525
0.0713812
0.0702179
0.0691481
0.0681603
0.0672446
0.0663929
0.0655982
0.0648547
0.0641579
0.0635039
0.0628891
0.0623101
0.0617639
0.0612481
0.0607611
0.0603021
0.05987
0.0594636
0.0590817
0.0587235
0.0583896
0.0580813
0.0578001
0.0575468
0.0573203
0.057118
0.0569362
0.0567715
0.0566213
0.0564844
0.0563606
0.0562496
0.056151
0.0560634
0.0559849
0.0559131
0.0558461
0.0557828
0.0557229
0.0556668
0.0556155
0.0555701
0.0555313
0.0554995
0.0554747
0.0554563
0.0554434
0.0554351
0.0554303
0.0554282
0.0554279
0.0554288
0.0554306
0.0554328
0.0554354
0.0554382
0.0554411
0.0554441
0.0554471
0.0554502
0.0554533
0.0554564
0.0554595
0.0554627
0.0554659
0.0554691
0.0554722
0.0554754
0.0554786
0.0554818
0.055485
0.0554882
0.0554914
0.0554947
0.0554979
0.0555011
0.0555043
0.0555075
0.0555107
0.055514
0.0555172
0.0555204
0.0555236
0.0555269
0.0555301
0.0555333
0.0555366
0.0555398
0.0555431
0.0555463
0.0555496
0.0555528
0.0555561
0.0555593
0.0555626
0.0555658
0.0555691
0.0555723
0.0555756
0.0555789
0.0555821
0.0555854
0.0555887
0.055592
0.0555952
0.0555985
0.0556018
0.0556051
0.0556084
0.0556117
0.055615
0.0556182
0.0556215
0.0556248
0.0556281
0.0556314
0.0556347
0.055638
0.0556414
0.0556447
0.055648
0.0556513
0.0556546
0.0556579
0.0556612
0.0556646
0.0556679
0.0556712
0.0556745
0.0556779
0.0556812
0.0556845
0.0556879
0.0556912
0.0556946
0.0556979
0.0557012
0.0557046
0.0557079
0.0557113
0.0557146
0.055718
0.0557214
0.0557247
0.0557281
0.0557314
0.0557348
0.0557382
0.0557415
0.0557449
0.0557483
0.0557517
0.055755
0.0557584
0.0557618
0.0557652
0.0557686
0.055772
0.0557753
0.0557787
0.0557821
0.0557855
0.0557889
0.0557923
0.0557957
0.0557991
0.0558025
0.0558059
0.0558093
0.0558127
0.0558162
0.0558196
0.055823
0.0558264
0.0558298
0.0558332
0.0558367
0.0558401
0.0558435
0.0558469
0.0558504
0.0558538
0.0558572
0.0558607
0.0558641
0.0558675
0.055871
0.0558744
0.0558779
0.0558813
0.0558847
0.0558882
0.0558916
0.0558951
0.0558985
0.055902
0.0559054
0.0559089
0.0559124
0.0559158
0.0559193
0.0559227
0.0559262
0.0559297
0.0559331
0.0559366
0.0559401
0.0559435
0.055947
0.0559505
0.055954
0.0559574
0.0559609
0.0559644
0.0559679
0.0559713
0.0559748
0.0559783
0.0559818
0.0559853
0.0559888
0.0559922
0.0559957
0.0559992
0.0560027
0.0560062
0.0560097
0.0560132
0.0560167
0.0560202
0.0560237
0.0560272
0.0560307
0.0560342
0.0560377
0.0560412
0.0560447
0.0560482
0.0560517
0.0560552
0.0560587
0.0560622
0.0560657
0.0560692
0.0560727
0.0560762
0.0560798
0.0560833
0.0560868
0.0560903
0.0560938
0.0560974
0.0561009
0.0561044
0.0561079
0.0561114
0.056115
0.0561185
0.056122
0.0561256
0.0561291
0.0561326
0.0561362
0.0561397
0.0561432
0.0561468
0.0561503
0.0561538
0.0561574
0.0561609
0.0561645
0.056168
0.0561716
0.0561751
0.0561787
0.0561822
0.0561858
0.0561894
0.0561929
0.0561965
0.0562
0.0562036
0.0562072
0.0562107
0.0562143
0.0562179
0.0562215
0.056225
0.0562286
0.0562322
0.0562358
0.0562394
0.056243
0.0562466
0.0562502
0.0562538
0.0562574
0.056261
0.0562646
0.0562682
0.0562718
0.0562754
0.056279
0.0562826
0.0562862
0.0562899
0.0562935
0.0562971
0.0563008
0.0563044
0.056308
0.0563117
0.0563153
0.056319
0.0563226
0.0563263
0.0563299
0.0563336
0.0563373
0.0563409
0.0563446
0.0563483
0.056352
0.0563556
0.0563593
0.056363
0.0563667
0.0563704
0.0563741
0.0563778
0.0563815
0.0563852
0.0563889
0.0563927
0.0563964
0.0564001
0.0564038
0.0564076
0.0564113
0.0564151
0.0564188
0.0564226
0.0564263
0.0564301
0.0564338
0.0564376
0.0564413
0.0564451
0.0564489
0.0564527
0.0564565
0.0564603
0.056464
0.0564678
0.0564716
0.0564755
0.0564792
0.0564831
0.0564868
0.0564907
0.0564945
0.0564984
0.0565021
0.0565061
0.0565098
0.0565137
0.0565175
0.0565214
0.0565252
0.0565292
0.0565329
0.0565369
0.0565408
0.0565446
0.0565488
0.0565523
0.0565571
0.0565595
0.0565659
0.056561
0.056561
0.056561
1
0.518767
0.327404
0.25535
0.217852
0.194407
0.178216
0.166311
0.157163
0.149889
0.143944
0.138975
0.134741
0.131077
0.127861
0.125007
0.122451
0.120142
0.118043
0.116122
0.114357
0.112727
0.111216
0.109811
0.108501
0.107275
0.106127
0.105049
0.104036
0.103083
0.102183
0.101334
0.100534
0.0997793
0.0990696
0.0984026
0.0977764
0.0971902
0.0966448
0.0961424
0.0956851
0.0952736
0.0949057
0.094577
0.0942816
0.0940139
0.0937702
0.0935484
0.0933478
0.0931682
0.0930082
0.0928658
0.0927376
0.0926202
0.0925108
0.0924077
0.0923108
0.0922208
0.0921392
0.0920676
0.092007
0.0919578
0.0919198
0.0918919
0.0918726
0.0918604
0.0918536
0.0918509
0.0918509
0.0918528
0.091856
0.0918598
0.0918642
0.0918688
0.0918737
0.0918786
0.0918836
0.0918887
0.0918939
0.0918991
0.0919043
0.0919095
0.0919148
0.0919201
0.0919253
0.0919306
0.0919359
0.0919412
0.0919465
0.0919518
0.0919571
0.0919625
0.0919678
0.0919731
0.0919784
0.0919838
0.0919891
0.0919944
0.0919998
0.0920051
0.0920105
0.0920158
0.0920212
0.0920265
0.0920319
0.0920373
0.0920426
0.092048
0.0920534
0.0920588
0.0920642
0.0920695
0.0920749
0.0920803
0.0920857
0.0920911
0.0920965
0.0921019
0.0921074
0.0921128
0.0921182
0.0921236
0.092129
0.0921345
0.0921399
0.0921453
0.0921508
0.0921562
0.0921617
0.0921671
0.0921726
0.092178
0.0921835
0.092189
0.0921944
0.0921999
0.0922054
0.0922108
0.0922163
0.0922218
0.0922273
0.0922328
0.0922383
0.0922438
0.0922493
0.0922548
0.0922603
0.0922658
0.0922713
0.0922768
0.0922824
0.0922879
0.0922934
0.092299
0.0923045
0.09231
0.0923156
0.0923211
0.0923267
0.0923322
0.0923378
0.0923433
0.0923489
0.0923545
0.09236
0.0923656
0.0923712
0.0923767
0.0923823
0.0923879
0.0923935
0.0923991
0.0924047
0.0924103
0.0924159
0.0924215
0.0924271
0.0924327
0.0924383
0.0924439
0.0924495
0.0924552
0.0924608
0.0924664
0.092472
0.0924777
0.0924833
0.092489
0.0924946
0.0925002
0.0925059
0.0925115
0.0925172
0.0925229
0.0925285
0.0925342
0.0925398
0.0925455
0.0925512
0.0925569
0.0925625
0.0925682
0.0925739
0.0925796
0.0925853
0.0925909
0.0925966
0.0926023
0.092608
0.0926137
0.0926194
0.0926251
0.0926308
0.0926366
0.0926423
0.092648
0.0926537
0.0926594
0.0926651
0.0926709
0.0926766
0.0926823
0.092688
0.0926938
0.0926995
0.0927053
0.092711
0.0927167
0.0927225
0.0927282
0.092734
0.0927397
0.0927455
0.0927512
0.092757
0.0927628
0.0927685
0.0927743
0.09278
0.0927858
0.0927916
0.0927974
0.0928031
0.0928089
0.0928147
0.0928205
0.0928262
0.092832
0.0928378
0.0928436
0.0928494
0.0928552
0.092861
0.0928668
0.0928726
0.0928784
0.0928842
0.09289
0.0928958
0.0929016
0.0929074
0.0929132
0.0929191
0.0929249
0.0929307
0.0929365
0.0929423
0.0929482
0.092954
0.0929598
0.0929657
0.0929715
0.0929773
0.0929832
0.092989
0.0929949
0.0930007
0.0930066
0.0930124
0.0930183
0.0930241
0.09303
0.0930359
0.0930417
0.0930476
0.0930535
0.0930593
0.0930652
0.0930711
0.093077
0.0930829
0.0930888
0.0930947
0.0931006
0.0931065
0.0931124
0.0931183
0.0931242
0.0931301
0.093136
0.0931419
0.0931479
0.0931538
0.0931597
0.0931657
0.0931716
0.0931776
0.0931835
0.0931895
0.0931954
0.0932014
0.0932073
0.0932133
0.0932193
0.0932253
0.0932312
0.0932372
0.0932432
0.0932492
0.0932552
0.0932612
0.0932672
0.0932733
0.0932793
0.0932853
0.0932913
0.0932974
0.0933034
0.0933095
0.0933155
0.0933216
0.0933276
0.0933337
0.0933398
0.0933458
0.0933519
0.093358
0.0933641
0.0933702
0.0933763
0.0933824
0.0933885
0.0933947
0.0934008
0.0934069
0.0934131
0.0934192
0.0934254
0.0934315
0.0934377
0.0934439
0.09345
0.0934562
0.0934624
0.0934686
0.0934748
0.093481
0.0934872
0.0934934
0.0934997
0.0935059
0.0935121
0.0935184
0.0935246
0.0935309
0.0935371
0.0935434
0.0935497
0.0935559
0.0935623
0.0935685
0.0935749
0.0935811
0.0935875
0.0935937
0.0936001
0.0936064
0.0936128
0.093619
0.0936255
0.0936317
0.0936382
0.0936445
0.093651
0.0936572
0.0936638
0.09367
0.0936766
0.0936828
0.0936894
0.0936958
0.0937022
0.093709
0.0937149
0.0937228
0.0937271
0.0937372
0.0937306
0.0937306
0.0937306
1
0.660889
0.446896
0.352881
0.302033
0.269854
0.247506
0.231024
0.218334
0.208232
0.199973
0.193068
0.187185
0.182093
0.177627
0.173665
0.170117
0.166914
0.164001
0.161338
0.15889
0.156631
0.154538
0.152592
0.150776
0.149079
0.147489
0.145997
0.144595
0.143275
0.142031
0.140858
0.139751
0.138709
0.137729
0.136809
0.135946
0.13514
0.134391
0.133702
0.133076
0.132513
0.13201
0.131561
0.131157
0.130791
0.130458
0.130155
0.129881
0.129636
0.129418
0.129223
0.129047
0.128885
0.128735
0.128594
0.128462
0.12834
0.128231
0.128136
0.128056
0.127992
0.127942
0.127906
0.127882
0.127867
0.127859
0.127856
0.127857
0.12786
0.127864
0.12787
0.127876
0.127882
0.127889
0.127896
0.127903
0.12791
0.127917
0.127925
0.127932
0.127939
0.127946
0.127954
0.127961
0.127968
0.127976
0.127983
0.127991
0.127998
0.128005
0.128013
0.12802
0.128028
0.128035
0.128042
0.12805
0.128057
0.128065
0.128072
0.128079
0.128087
0.128094
0.128102
0.128109
0.128117
0.128124
0.128132
0.128139
0.128147
0.128154
0.128162
0.128169
0.128177
0.128184
0.128192
0.128199
0.128207
0.128214
0.128222
0.128229
0.128237
0.128244
0.128252
0.128259
0.128267
0.128274
0.128282
0.12829
0.128297
0.128305
0.128312
0.12832
0.128327
0.128335
0.128343
0.12835
0.128358
0.128365
0.128373
0.128381
0.128388
0.128396
0.128404
0.128411
0.128419
0.128427
0.128434
0.128442
0.12845
0.128457
0.128465
0.128473
0.12848
0.128488
0.128496
0.128503
0.128511
0.128519
0.128526
0.128534
0.128542
0.12855
0.128557
0.128565
0.128573
0.128581
0.128588
0.128596
0.128604
0.128612
0.128619
0.128627
0.128635
0.128643
0.12865
0.128658
0.128666
0.128674
0.128682
0.128689
0.128697
0.128705
0.128713
0.128721
0.128728
0.128736
0.128744
0.128752
0.12876
0.128768
0.128775
0.128783
0.128791
0.128799
0.128807
0.128815
0.128823
0.128831
0.128838
0.128846
0.128854
0.128862
0.12887
0.128878
0.128886
0.128894
0.128902
0.128909
0.128917
0.128925
0.128933
0.128941
0.128949
0.128957
0.128965
0.128973
0.128981
0.128989
0.128997
0.129005
0.129013
0.129021
0.129029
0.129036
0.129044
0.129052
0.12906
0.129068
0.129076
0.129084
0.129092
0.1291
0.129108
0.129116
0.129124
0.129132
0.12914
0.129148
0.129156
0.129164
0.129172
0.12918
0.129188
0.129196
0.129204
0.129213
0.129221
0.129229
0.129237
0.129245
0.129253
0.129261
0.129269
0.129277
0.129285
0.129293
0.129301
0.129309
0.129317
0.129325
0.129333
0.129342
0.12935
0.129358
0.129366
0.129374
0.129382
0.12939
0.129398
0.129406
0.129414
0.129423
0.129431
0.129439
0.129447
0.129455
0.129463
0.129471
0.12948
0.129488
0.129496
0.129504
0.129512
0.12952
0.129529
0.129537
0.129545
0.129553
0.129561
0.129569
0.129578
0.129586
0.129594
0.129602
0.129611
0.129619
0.129627
0.129635
0.129643
0.129652
0.12966
0.129668
0.129676
0.129685
0.129693
0.129701
0.12971
0.129718
0.129726
0.129734
0.129743
0.129751
0.129759
0.129768
0.129776
0.129784
0.129793
0.129801
0.12981
0.129818
0.129826
0.129835
0.129843
0.129851
0.12986
0.129868
0.129877
0.129885
0.129894
0.129902
0.12991
0.129919
0.129927
0.129936
0.129944
0.129953
0.129961
0.12997
0.129978
0.129987
0.129995
0.130004
0.130012
0.130021
0.130029
0.130038
0.130047
0.130055
0.130064
0.130072
0.130081
0.13009
0.130098
0.130107
0.130115
0.130124
0.130133
0.130141
0.13015
0.130159
0.130167
0.130176
0.130185
0.130193
0.130202
0.130211
0.13022
0.130228
0.130237
0.130246
0.130255
0.130263
0.130272
0.130281
0.13029
0.130299
0.130308
0.130316
0.130325
0.130334
0.130343
0.130352
0.130361
0.130369
0.130378
0.130387
0.130396
0.130405
0.130414
0.130423
0.130432
0.130441
0.13045
0.13046
0.130467
0.13048
0.130473
0.130473
0.130473
1
0.776803
0.557827
0.446881
0.384106
0.343748
0.315516
0.294611
0.278476
0.265615
0.25509
0.246287
0.238786
0.232295
0.226602
0.221554
0.217034
0.212954
0.209246
0.205855
0.20274
0.199865
0.197202
0.194727
0.192418