# vtk DataFile Version 2.0
FlowField
ASCII
DATASET STRUCTURED_GRID
DIMENSIONS 400 1 200
POINTS 80000 float
0 0 0
0.08 0 0
0.16 0 0
0.24 0 0
0.32 0 0
0.4 0 0
0.48 0 0
0.56 0 0
0.64 0 0
0.72 0 0
0.8 0 0
0.88 0 0
0.96 0 0
1.04 0 0
1.12 0 0
1.2 0 0
1.28 0 0
1.36 0 0
1.44 0 0
1.52 0 0
1.6 0 0
1.68 0 0
1.76 0 0
1.84 0 0
1.92 0 0
2 0 0
2.08 0 0
2.16 0 0
2.24 0 0
2.32 0 0
2.4 0 0
2.48 0 0
2.56 0 0
2.64 0 0
2.72 0 0
2.8 0 0
2.88 0 0
2.96 0 0
3.04 0 0
3.12 0 0
3.2 0 0
3.28 0 0
3.36 0 0
3.44 0 0
3.52 0 0
3.6 0 0
3.68 0 0
3.76 0 0
3.84 0 0
3.92 0 0
4 0 0
4.08 0 0
4.16 0 0
4.24 0 0
4.32 0 0
4.4 0 0
4.48 0 0
4.56 0 0
4.64 0 0
4.72 0 0
4.8 0 0
4.88 0 0
4.96 0 0
5.04 0 0
5.12 0 0
5.2 0 0
5.28 0 0
5.36 0 0
5.44 0 0
5.52 0 0
5.6 0 0
5.68 0 0
5.76 0 0
5.84 0 0
5.92 0 0
6 0 0
6.08 0 0
6.16 0 0
6.24 0 0
6.32 0 0
6.4 0 0
6.48 0 0
6.56 0 0
6.64 0 0
6.72 0 0
6.8 0 0
6.88 0 0
6.96 0 0
7.04 0 0
7.12 0 0
7.2 0 0
7.28 0 0
7.36 0 0
7.44 0 0
7.52 0 0
7.6 0 0
7.68 0 0
7.76 0 0
7.84 0 0
7.92 0 0
8 0 0
8.08 0 0
8.16 0 0
8.24 0 0
8.32 0 0
8.4 0 0
8.48 0 0
8.56 0 0
8.64 0 0
8.72 0 0
8.8 0 0
8.88 0 0
8.96 0 0
9.04 0 0
9.12 0 0
9.2 0 0
9.28 0 0
9.36 0 0
9.44 0 0
9.52 0 0
9.6 0 0
9.68 0 0
9.76 0 0
9.84 0 0
9.92 0 0
10 0 0
10.08 0 0
10.16 0 0
10.24 0 0
10.32 0 0
10.4 0 0
10.48 0 0
10.56 0 0
10.64 0 0
10.72 0 0
10.8 0 0
10.88 0 0
10.96 0 0
11.04 0 0
11.12 0 0
11.2 0 0
11.28 0 0
11.36 0 0
11.44 0 0
11.52 0 0
11.6 0 0
11.68 0 0
11.76 0 0
11.84 0 0
11.92 0 0
12 0 0
12.08 0 0
12.16 0 0
12.24 0 0
12.32 0 0
12.4 0 0
12.48 0 0
12.56 0 0
12.64 0 0
12.72 0 0
12.8 0 0
12.88 0 0
12.96 0 0
13.04 0 0
13.12 0 0
13.2 0 0
13.28 0 0
13.36 0 0
13.44 0 0
13.52 0 0
13.6 0 0
13.68 0 0
13.76 0 0
13.84 0 0
13.92 0 0
14 0 0
14.08 0 0
14.16 0 0
14.24 0 0
14.32 0 0
14.4 0 0
14.48 0 0
14.56 0 0
14.64 0 0
14.72 0 0
14.8 0 0
14.88 0 0
14.96 0 0
15.04 0 0
15.12 0 0
15.2 0 0
15.28 0 0
15.36 0 0
15.44 0 0
15.52 0 0
15.6 0 0
15.68 0 0
15.76 0 0
15.84 0 0
15.92 0 0
16 0 0
16.08 0 0
16.16 0 0
16.24 0 0
16.32 0 0
16.4 0 0
16.48 0 0
16.56 0 0
16.64 0 0
16.72 0 0
16.8 0 0
16.88 0 0
16.96 0 0
17.04 0 0
17.12 0 0
17.2 0 0
17.28 0 0
17.36 0 0
17.44 0 0
17.52 0 0
17.6 0 0
17.68 0 0
17.76 0 0
17.84 0 0
17.92 0 0
18 0 0
18.08 0 0
18.16 0 0
18.24 0 0
18.32 0 0
18.4 0 0
18.48 0 0
18.56 0 0
18.64 0 0
18.72 0 0
18.8 0 0
18.88 0 0
18.96 0 0
19.04 0 0
19.12 0 0
19.2 0 0
19.28 0 0
19.36 0 0
19.44 0 0
19.52 0 0
19.6 0 0
19.68 0 0
19.76 0 0
19.84 0 0
19.92 0 0
20 0 0
20.08 0 0
20.16 0 0
20.24 0 0
20.32 0 0
20.4 0 0
20.48 0 0
20.56 0 0
20.64 0 0
20.72 0 0
20.8 0 0
20.88 0 0
20.96 0 0
21.04 0 0
21.12 0 0
21.2 0 0
21.28 0 0
21.36 0 0
21.44 0 0
21.52 0 0
21.6 0 0
21.68 0 0
21.76 0 0
21.84 0 0
21.92 0 0
22 0 0
22.08 0 0
22.16 0 0
22.24 0 0
22.32 0 0
22.4 0 0
22.48 0 0
22.56 0 0
22.64 0 0
22.72 0 0
22.8 0 0
22.88 0 0
22.96 0 0
23.04 0 0
23.12 0 0
23.2 0 0
23.28 0 0
23.36 0 0
23.44 0 0
23.52 0 0
23.6 0 0
23.68 0 0
23.76 0 0
23.84 0 0
23.92 0 0
24 0 0
24.08 0 0
24.16 0 0
24.24 0 0
24.32 0 0
24.4 0 0
24.48 0 0
24.56 0 0
24.64 0 0
24.72 0 0
24.8 0 0
24.88 0 0
24.96 0 0
25.04 0 0
25.12 0 0
25.2 0 0
25.28 0 0
25.36 0 0
25.44 0 0
25.52 0 0
25.6 0 0
25.68 0 0
25.76 0 0
25.84 0 0
25.92 0 0
26 0 0
26.08 0 0
26.16 0 0
26.24 0 0
26.32 0 0
26.4 0 0
26.48 0 0
26.56 0 0
26.64 0 0
26.72 0 0
26.8 0 0
26.88 0 0
26.96 0 0
27.04 0 0
27.12 0 0
27.2 0 0
27.28 0 0
27.36 0 0
27.44 0 0
27.52 0 0
27.6 0 0
27.68 0 0
27.76 0 0
27.84 0 0
27.92 0 0
28 0 0
28.08 0 0
28.16 0 0
28.24 0 0
28.32 0 0
28.4 0 0
28.48 0 0
28.56 0 0
28.64 0 0
28.72 0 0
28.8 0 0
28.88 0 0
28.96 0 0
29.04 0 0
29.12 0 0
29.2 0 0
29.28 0 0
29.36 0 0
29.44 0 0
29.52 0 0
29.6 0 0
29.68 0 0
29.76 0 0
29.84 0 0
29.92 0 0
30 0 0
30.08 0 0
30.16 0 0
30.24 0 0
30.32 0 0
30.4 0 0
30.48 0 0
30.56 0 0
30.64 0 0
30.72 0 0
30.8 0 0
30.88 0 0
30.96 0 0
31.04 0 0
31.12 0 0
31.2 0 0
31.28 0 0
31.36 0 0
31.44 0 0
31.52 0 0
31.6 0 0
31.68 0 0
31.76 0 0
31.84 0 0
31.92 0 0
0 0.005 0
0.08 0.005 0
0.16 0.005 0
0.24 0.005 0
0.32 0.005 0
0.4 0.005 0
0.48 0.005 0
0.56 0.005 0
0.64 0.005 0
0.72 0.005 0
0.8 0.005 0
0.88 0.005 0
0.96 0.005 0
1.04 0.005 0
1.12 0.005 0
1.2 0.005 0
1.28 0.005 0
1.36 0.005 0
1.44 0.005 0
1.52 0.005 0
1.6 0.005 0
1.68 0.005 0
1.76 0.005 0
1.84 0.005 0
1.92 0.005 0
2 0.005 0
2.08 0.005 0
2.16 0.005 0
2.24 0.005 0
2.32 0.005 0
2.4 0.005 0
2.48 0.005 0
2.56 0.005 0
2.64 0.005 0
2.72 0.005 0
2.8 0.005 0
2.88 0.005 0
2.96 0.005 0
3.04 0.005 0
3.12 0.005 0
3.2 0.005 0
3.28 0.005 0
3.36 0.005 0
3.44 0.005 0
3.52 0.005 0
3.6 0.005 0
3.68 0.005 0
3.76 0.005 0
3.84 0.005 0
3.92 0.005 0
4 0.005 0
4.08 0.005 0
4.16 0.005 0
4.24 0.005 0
4.32 0.005 0
4.4 0.005 0
4.48 0.005 0
4.56 0.005 0
4.64 0.005 0
4.72 0.005 0
4.8 0.005 0
4.88 0.005 0
4.96 0.005 0
5.04 0.005 0
5.12 0.005 0
5.2 0.005 0
5.28 0.005 0
5.36 0.005 0
5.44 0.005 0
5.52 0.005 0
5.6 0.005 0
5.68 0.005 0
5.76 0.005 0
5.84 0.005 0
5.92 0.005 0
6 0.005 0
6.08 0.005 0
6.16 0.005 0
6.24 0.005 0
6.32 0.005 0
6.4 0.005 0
6.48 0.005 0
6.56 0.005 0
6.64 0.005 0
6.72 0.005 0
6.8 0.005 0
6.88 0.005 0
6.96 0.005 0
7.04 0.005 0
7.12 0.005 0
7.2 0.005 0
7.28 0.005 0
7.36 0.005 0
7.44 0.005 0
7.52 0.005 0
7.6 0.005 0
7.68 0.005 0
7.76 0.005 0
7.84 0.005 0
7.92 0.005 0
8 0.005 0
8.08 0.005 0
8.16 0.005 0
8.24 0.005 0
8.32 0.005 0
8.4 0.005 0
8.48 0.005 0
8.56 0.005 0
8.64 0.005 0
8.72 0.005 0
8.8 0.005 0
8.88 0.005 0
8.96 0.005 0
9.04 0.005 0
9.12 0.005 0
9.2 0.005 0
9.28 0.005 0
9.36 0.005 0
9.44 0.005 0
9.52 0.005 0
9.6 0.005 0
9.68 0.005 0
9.76 0.005 0
9.84 0.005 0
9.92 0.005 0
10 0.005 0
10.08 0.005 0
10.16 0.005 0
10.24 0.005 0
10.32 0.005 0
10.4 0.005 0
10.48 0.005 0
10.56 0.005 0
10.64 0.005 0
10.72 0.005 0
10.8 0.005 0
10.88 0.005 0
10.96 0.005 0
11.04 0.005 0
11.12 0.005 0
11.2 0.005 0
11.28 0.005 0
11.36 0.005 0
11.44 0.005 0
11.52 0.005 0
11.6 0.005 0
11.68 0.005 0
11.76 0.005 0
11.84 0.005 0
11.92 0.005 0
12 0.005 0
12.08 0.005 0
12.16 0.005 0
12.24 0.005 0
12.32 0.005 0
12.4 0.005 0
12.48 0.005 0
12.56 0.005 0
12.64 0.005 0
12.72 0.005 0
12.8 0.005 0
12.88 0.005 0
12.96 0.005 0
13.04 0.005 0
13.12 0.005 0
13.2 0.005 0
13.28 0.005 0
13.36 0.005 0
13.44 0.005 0
13.52 0.005 0
13.6 0.005 0
13.68 0.005 0
13.76 0.005 0
13.84 0.005 0
13.92 0.005 0
14 0.005 0
14.08 0.005 0
14.16 0.005 0
14.24 0.005 0
14.32 0.005 0
14.4 0.005 0
14.48 0.005 0
14.56 0.005 0
14.64 0.005 0
14.72 0.005 0
14.8 0.005 0
14.88 0.005 0
14.96 0.005 0
15.04 0.005 0
15.12 0.005 0
15.2 0.005 0
15.28 0.005 0
15.36 0.005 0
15.44 0.005 0
15.52 0.005 0
15.6 0.005 0
15.68 0.005 0
15.76 0.005 0
15.84 0.005 0
15.92 0.005 0
16 0.005 0
16.08 0.005 0
16.16 0.005 0
16.24 0.005 0
16.32 0.005 0
16.4 0.005 0
16.48 0.005 0
16.56 0.005 0
16.64 0.005 0
16.72 0.005 0
16.8 0.005 0
16.88 0.005 0
16.96 0.005 0
17.04 0.005 0
17.12 0.005 0
17.2 0.005 0
17.28 0.005 0
17.36 0.005 0
17.44 0.005 0
17.52 0.005 0
17.6 0.005 0
17.68 0.005 0
17.76 0.005 0
17.84 0.005 0
17.92 0.005 0
18 0.005 0
18.08 0.005 0
18.16 0.005 0
18.24 0.005 0
18.32 0.005 0
18.4 0.005 0
18.48 0.005 0
18.56 0.005 0
18.64 0.005 0
18.72 0.005 0
18.8 0.005 0
18.88 0.005 0
18.96 0.005 0
19.04 0.005 0
19.12 0.005 0
19.2 0.005 0
19.28 0.005 0
19.36 0.005 0
19.44 0.005 0
19.52 0.005 0
19.6 0.005 0
19.68 0.005 0
19.76 0.005 0
19.84 0.005 0
19.92 0.005 0
20 0.005 0
20.08 0.005 0
20.16 0.005 0
20.24 0.005 0
20.32 0.005 0
20.4 0.005 0
20.48 0.005 0
20.56 0.005 0
20.64 0.005 0
20.72 0.005 0
20.8 0.005 0
20.88 0.005 0
20.96 0.005 0
21.04 0.005 0
21.12 0.005 0
21.2 0.005 0
21.28 0.005 0
21.36 0.005 0
21.44 0.005 0
21.52 0.005 0
21.6 0.005 0
21.68 0.005 0
21.76 0.005 0
21.84 0.005 0
21.92 0.005 0
22 0.005 0
22.08 0.005 0
22.16 0.005 0
22.24 0.005 0
22.32 0.005 0
22.4 0.005 0
22.48 0.005 0
22.56 0.005 0
22.64 0.005 0
22.72 0.005 0
22.8 0.005 0
22.88 0.005 0
22.96 0.005 0
23.04 0.005 0
23.12 0.005 0
23.2 0.005 0
23.28 0.005 0
23.36 0.005 0
23.44 0.005 0
23.52 0.005 0
23.6 0.005 0
23.68 0.005 0
23.76 0.005 0
23.84 0.005 0
23.92 0.005 0
24 0.005 0
24.08 0.005 0
24.16 0.005 0
24.24 0.005 0
24.32 0.005 0
24.4 0.005 0
24.48 0.005 0
24.56 0.005 0
24.64 0.005 0
24.72 0.005 0
24.8 0.005 0
24.88 0.005 0
24.96 0.005 0
25.04 0.005 0
25.12 0.005 0
25.2 0.005 0
25.28 0.005 0
25.36 0.005 0
25.44 0.005 0
25.52 0.005 0
25.6 0.005 0
25.68 0.005 0
25.76 0.005 0
25.84 0.005 0
25.92 0.005 0
26 0.005 0
26.08 0.005 0
26.16 0.005 0
26.24 0.005 0
26.32 0.005 0
26.4 0.005 0
26.48 0.005 0
26.56 0.005 0
26.64 0.005 0
26.72 0.005 0
26.8 0.005 0
26.88 0.005 0
26.96 0.005 0
27.04 0.005 0
27.12 0.005 0
27.2 0.005 0
27.28 0.005 0
27.36 0.005 0
27.44 0.005 0
27.52 0.005 0
27.6 0.005 0
27.68 0.005 0
27.76 0.005 0
27.84 0.005 0
27.92 0.005 0
28 0.005 0
28.08 0.005 0
28.16 0.005 0
28.24 0.005 0
28.32 0.005 0
28.4 0.005 0
28.48 0.005 0
28.56 0.005 0
28.64 0.005 0
28.72 0.005 0
28.8 0.005 0
28.88 0.005 0
28.96 0.005 0
29.04 0.005 0
29.12 0.005 0
29.2 0.005 0
29.28 0.005 0
29.36 0.005 0
29.44 0.005 0
29.52 0.005 0
29.6 0.005 0
29.68 0.005 0
29.76 0.005 0
29.84 0.005 0
29.92 0.005 0
30 0.005 0
30.08 0.005 0
30.16 0.005 0
30.24 0.005 0
30.32 0.005 0
30.4 0.005 0
30.48 0.005 0
30.56 0.005 0
30.64 0.005 0
30.72 0.005 0
30.8 0.005 0
30.88 0.005 0
30.96 0.005 0
31.04 0.005 0
31.12 0.005 0
31.2 0.005 0
31.28 0.005 0
31.36 0.005 0
31.44 0.005 0
31.52 0.005 0
31.6 0.005 0
31.68 0.005 0
31.76 0.005 0
31.84 0.005 0
31.92 0.005 0
0 0.01 0
0.08 0.01 0
0.16 0.01 0
0.24 0.01 0
0.32 0.01 0
0.4 0.01 0
0.48 0.01 0
0.56 0.01 0
0.64 0.01 0
0.72 0.01 0
0.8 0.01 0
0.88 0.01 0
0.96 0.01 0
1.04 0.01 0
1.12 0.01 0
1.2 0.01 0
1.28 0.01 0
1.36 0.01 0
1.44 0.01 0
1.52 0.01 0
1.6 0.01 0
1.68 0.01 0
1.76 0.01 0
1.84 0.01 0
1.92 0.01 0
2 0.01 0
2.08 0.01 0
2.16 0.01 0
2.24 0.01 0
2.32 0.01 0
2.4 0.01 0
2.48 0.01 0
2.56 0.01 0
2.64 0.01 0
2.72 0.01 0
2.8 0.01 0
2.88 0.01 0
2.96 0.01 0
3.04 0.01 0
3.12 0.01 0
3.2 0.01 0
3.28 0.01 0
3.36 0.01 0
3.44 0.01 0
3.52 0.01 0
3.6 0.01 0
3.68 0.01 0
3.76 0.01 0
3.84 0.01 0
3.92 0.01 0
4 0.01 0
4.08 0.01 0
4.16 0.01 0
4.24 0.01 0
4.32 0.01 0
4.4 0.01 0
4.48 0.01 0
4.56 0.01 0
4.64 0.01 0
4.72 0.01 0
4.8 0.01 0
4.88 0.01 0
4.96 0.01 0
5.04 0.01 0
5.12 0.01 0
[...]
POINT_DATA 80000

SCALARS p float 1
LOOKUP_TABLE default
1
69.2855
68.9837
68.9421
68.9212
68.9071
68.8974
68.8907
68.8851
68.8795
68.8734
68.8668
68.8598
68.8524
68.8449
68.8372
68.8294
68.8215
68.8136
68.8056
68.7976
68.7896
68.7816
68.7736
68.7655
68.7575
68.7494
68.7413
68.7332
68.7251
68.717
68.7089
68.7008
68.6926
68.6845
68.6763
68.6681
68.66
68.6518
68.6435
68.6353
68.6271
68.6188
68.6106
68.6023
68.594
68.5857
68.5774
68.5691
68.5608
68.5524
68.544
68.5357
68.5273
68.5189
68.5105
68.5021
68.4936
68.4852
68.4767
68.4682
68.4597
68.4512
68.4427
68.4342
68.4256
68.417
68.4085
68.3999
68.3913
68.3827
68.374
68.3654
68.3567
68.348
68.3393
68.3306
68.3219
68.3132
68.3044
68.2956
68.2869
68.2781
68.2693
68.2604
68.2516
68.2427
68.2339
68.225
68.2161
68.2072
68.1983
68.1893
68.1804
68.1714
68.1624
68.1534
68.1444
68.1354
68.1263
68.1173
68.1082
68.0991
68.09
68.0809
68.0717
68.0626
68.0534
68.0442
68.035
68.0258
68.0166
68.0074
67.9981
67.9888
67.9796
67.9702
67.9609
67.9516
67.9422
67.9329
67.9235
67.9141
67.9047
67.8952
67.8858
67.8763
67.8668
67.8573
67.8478
67.8382
67.8287
67.8191
67.8095
67.7999
67.7902
67.7806
67.7709
67.7612
67.7515
67.7418
67.732
67.7222
67.7124
67.7026
67.6928
67.683
67.6731
67.6632
67.6533
67.6433
67.6334
67.6234
67.6134
67.6034
67.5934
67.5833
67.5732
67.5631
67.553
67.5429
67.5327
67.5225
67.5123
67.502
67.4918
67.4815
67.4712
67.4609
67.4505
67.4401
67.4297
67.4193
67.4089
67.3984
67.3879
67.3774
67.3668
67.3563
67.3457
67.335
67.3244
67.3137
67.303
67.2923
67.2815
67.2708
67.26
67.2491
67.2383
67.2274
67.2165
67.2056
67.1946
67.1836
67.1726
67.1615
67.1504
67.1393
67.1282
67.117
67.1058
67.0946
67.0834
67.0721
67.0608
67.0494
67.038
67.0266
67.0152
67.0037
66.9922
66.9807
66.9691
66.9575
66.9459
66.9342
66.9225
66.9108
66.899
66.8872
66.8754
66.8635
66.8516
66.8397
66.8277
66.8157
66.8036
66.7915
66.7793
66.7671
66.7549
66.7426
66.7303
66.7179
66.7054
66.6929
66.6803
66.6677
66.655
66.6422
66.6293
66.6163
66.6032
66.59
66.5766
66.5631
66.5495
66.5356
66.5216
66.5073
66.4928
66.478
66.4629
66.4475
66.4316
66.4154
66.3986
66.3813
66.3635
66.3449
66.3257
66.3056
66.2847
66.2629
66.2399
66.2159
66.1906
66.1639
66.1357
66.106
66.0746
66.0413
66.006
65.9687
65.929
65.887
65.8425
65.7953
65.7453
65.6923
65.6363
65.5771
65.5146
65.4486
65.3792
65.3061
65.2293
65.1488
65.0645
64.9764
64.8845
64.7889
64.6894
64.5863
64.4795
64.3692
64.2555
64.1386
64.0187
63.8958
63.7703
63.6424
63.5123
63.3803
63.2466
63.1116
62.9756
62.8388
62.7016
62.5644
62.4273
62.2907
62.155
62.0204
61.8872
61.7556
61.626
61.4985
61.3734
61.2508
61.131
61.0141
60.9003
60.7895
60.682
60.5778
60.4769
60.3793
60.2851
60.1942
60.1066
60.0222
59.941
59.8629
59.7878
59.7156
59.6461
59.5793
59.5151
59.4533
59.3938
59.3364
59.2811
59.2276
59.176
59.126
59.0775
59.0305
58.9847
58.9402
58.8967
58.8543
58.8127
58.772
58.732
58.6927
58.6539
58.6157
58.578
58.5406
58.5037
58.467
58.4306
58.3944
58.3584
58.3226
58.2869
58.2512
58.2157
58.1801
58.1446
58.1091
58.0736
58.038
58.0023
57.9666
57.9308
57.8949
57.8589
57.8227
57.7864
57.7499
57.7133
57.6765
57.6394
57.6022
57.5648
57.5271
57.4892
57.451
57.4126
57.3739
57.3349
57.2956
57.2559
57.2159
57.1757
57.1352
0.5
69.2855
69.2855
68.9837
68.9421
68.9212
68.9071
68.8974
68.8907
68.8851
68.8795
68.8734
68.8668
68.8598
68.8524
68.8449
68.8372
68.8294
68.8215
68.8136
68.8056
68.7976
68.7896
68.7816
68.7736
68.7655
68.7575
68.7494
68.7413
68.7332
68.7251
68.717
68.7089
68.7008
68.6926
68.6845
68.6763
68.6681
68.66
68.6518
68.6435
68.6353
68.6271
68.6188
68.6106
68.6023
68.594
68.5857
68.5774
68.5691
68.5608
68.5524
68.544
68.5357
68.5273
68.5189
68.5105
68.5021
68.4936
68.4852
68.4767
68.4682
68.4597
68.4512
68.4427
68.4342
68.4256
68.417
68.4085
68.3999
68.3913
68.3827
68.374
68.3654
68.3567
68.348
68.3393
68.3306
68.3219
68.3132
68.3044
68.2956
68.2869
68.2781
68.2693
68.2604
68.2516
68.2427
68.2339
68.225
68.2161
68.2072
68.1983
68.1893
68.1804
68.1714
68.1624
68.1534
68.1444
68.1354
68.1263
68.1173
68.1082
68.0991
68.09
68.0809
68.0717
68.0626
68.0534
68.0442
68.035
68.0258
68.0166
68.0074
67.9981
67.9888
67.9796
67.9702
67.9609
67.9516
67.9422
67.9329
67.9235
67.9141
67.9047
67.8952
67.8858
67.8763
67.8668
67.8573
67.8478
67.8382
67.8287
67.8191
67.8095
67.7999
67.7902
67.7806
67.7709
67.7612
67.7515
67.7418
67.732
67.7222
67.7124
67.7026
67.6928
67.683
67.6731
67.6632
67.6533
67.6433
67.6334
67.6234
67.6134
67.6034
67.5934
67.5833
67.5732
67.5631
67.553
67.5429
67.5327
67.5225
67.5123
67.502
67.4918
67.4815
67.4712
67.4609
67.4505
67.4401
67.4297
67.4193
67.4089
67.3984
67.3879
67.3774
67.3668
67.3563
67.3457
67.335
67.3244
67.3137
67.303
67.2923
67.2815
67.2708
67.26
67.2491
67.2383
67.2274
67.2165
67.2056
67.1946
67.1836
67.1726
67.1615
67.1504
67.1393
67.1282
67.117
67.1058
67.0946
67.0834
67.0721
67.0608
67.0494
67.038
67.0266
67.0152
67.0037
66.9922
66.9807
66.9691
66.9575
66.9459
66.9342
66.9225
66.9108
66.899
66.8872
66.8754
66.8635
66.8516
66.8397
66.8277
66.8157
66.8036
66.7915
66.7793
66.7671
66.7549
66.7426
66.7303
66.7179
66.7054
66.6929
66.6803
66.6677
66.655
66.6422
66.6293
66.6163
66.6032
66.59
66.5766
66.5631
66.5495
66.5356
66.5216
66.5073
66.4928
66.478
66.4629
66.4475
66.4316
66.4154
66.3986
66.3813
66.3635
66.3449
66.3257
66.3056
66.2847
66.2629
66.2399
66.2159
66.1906
66.1639
66.1357
66.106
66.0746
66.0413
66.006
65.9687
65.929
65.887
65.8425
65.7953
65.7453
65.6923
65.6363
65.5771
65.5146
65.4486
65.3792
65.3061
65.2293
65.1488
65.0645
64.9764
64.8845
64.7889
64.6894
64.5863
64.4795
64.3692
64.2555
64.1386
64.0187
63.8958
63.7703
63.6424
63.5123
63.3803
63.2466
63.1116
62.9756
62.8388
62.7016
62.5644
62.4273
62.2907
62.155
62.0204
61.8872
61.7556
61.626
61.4985
61.3734
61.2508
61.131
61.0141
60.9003
60.7895
60.682
60.5778
60.4769
60.3793
60.2851
60.1942
60.1066
60.0222
59.941
59.8629
59.7878
59.7156
59.6461
59.5793
59.5151
59.4533
59.3938
59.3364
59.2811
59.2276
59.176
59.126
59.0775
59.0305
58.9847
58.9402
58.8967
58.8543
58.8127
58.772
58.732
58.6927
58.6539
58.6157
58.578
58.5406
58.5037
58.467
58.4306
58.3944
58.3584
58.3226
58.2869
58.2512
58.2157
58.1801
58.1446
58.1091
58.0736
58.038
58.0023
57.9666
57.9308
57.8949
57.8589
57.8227
57.7864
57.7499
57.7133
57.6765
57.6394
57.6022
57.5648
57.5271
57.4892
57.451
57.4126
57.3739
57.3349
57.2956
57.2559
57.2159
57.1757
57.1352
57.1352
69.2709
69.2709
68.9875
68.9433
68.9218
68.9074
68.8976
68.8908
68.8851
68.8795
68.8734
68.8668
68.8598
68.8524
68.8449
68.8372
68.8294
68.8215
68.8136
68.8056
68.7976
68.7896
68.7816
68.7736
68.7655
68.7575
68.7494
68.7413
68.7332
68.7251
68.717
68.7089
68.7008
68.6926
68.6845
68.6763
68.6681
68.66
68.6518
68.6435
68.6353
68.6271
68.6188
68.6106
68.6023
68.594
68.5857
68.5774
68.5691
68.5608
68.5524
68.5441
68.5357
68.5273
68.5189
68.5105
68.5021
68.4936
68.4852
68.4767
68.4682
68.4597
68.4512
68.4427
68.4342
68.4256
68.417
68.4085
68.3999
68.3913
68.3827
68.374
68.3654
68.3567
68.348
68.3393
68.3306
68.3219
68.3132
68.3044
68.2957
68.2869
68.2781
68.2693
68.2604
68.2516
68.2427
68.2339
68.225
68.2161
68.2072
68.1983
68.1893
68.1804
68.1714
68.1624
68.1534
68.1444
68.1354
68.1263
68.1173
68.1082
68.0991
68.09
68.0809
68.0717
68.0626
68.0534
68.0442
68.035
68.0258
68.0166
68.0074
67.9981
67.9888
67.9796
67.9702
67.9609
67.9516
67.9422
67.9329
67.9235
67.9141
67.9047
67.8952
67.8858
67.8763
67.8668
67.8573
67.8478
67.8382
67.8287
67.8191
67.8095
67.7999
67.7902
67.7806
67.7709
67.7612
67.7515
67.7418
67.732
67.7222
67.7124
67.7026
67.6928
67.683
67.6731
67.6632
67.6533
67.6434
67.6334
67.6234
67.6134
67.6034
67.5934
67.5833
67.5732
67.5631
67.553
67.5429
67.5327
67.5225
67.5123
67.502
67.4918
67.4815
67.4712
67.4609
67.4505
67.4401
67.4297
67.4193
67.4089
67.3984
67.3879
67.3774
67.3668
67.3563
67.3457
67.335
67.3244
67.3137
67.303
67.2923
67.2816
67.2708
67.26
67.2491
67.2383
67.2274
67.2165
67.2056
67.1946
67.1836
67.1726
67.1615
67.1504
67.1393
67.1282
67.117
67.1058
67.0946
67.0834
67.0721
67.0608
67.0494
67.038
67.0266
67.0152
67.0037
66.9922
66.9807
66.9691
66.9575
66.9459
66.9342
66.9225
66.9108
66.899
66.8872
66.8754
66.8635
66.8516
66.8397
66.8277
66.8157
66.8036
66.7915
66.7793
66.7671
66.7549
66.7426
66.7303
66.7179
66.7054
66.6929
66.6804
66.6677
66.655
66.6422
66.6293
66.6163
66.6032
66.59
66.5766
66.5631
66.5495
66.5356
66.5216
66.5073
66.4928
66.478
66.4629
66.4475
66.4316
66.4154
66.3986
66.3813
66.3634
66.3449
66.3257
66.3056
66.2847
66.2628
66.2399
66.2158
66.1905
66.1639
66.1357
66.106
66.0745
66.0412
66.006
65.9686
65.929
65.887
65.8424
65.7952
65.7452
65.6922
65.6362
65.577
65.5145
65.4485
65.379
65.3059
65.2292
65.1487
65.0644
64.9763
64.8844
64.7887
64.6892
64.5861
64.4793
64.369
64.2554
64.1384
64.0185
63.8956
63.7701
63.6422
63.5121
63.38
63.2464
63.1114
62.9754
62.8386
62.7014
62.5642
62.4271
62.2905
62.1548
62.0202
61.887
61.7554
61.6258
61.4983
61.3732
61.2507
61.1309
61.014
60.9002
60.7894
60.6819
60.5777
60.4768
60.3793
60.285
60.1942
60.1066
60.0222
59.941
59.8629
59.7878
59.7155
59.6461
59.5793
59.5151
59.4533
59.3937
59.3364
59.281
59.2276
59.176
59.126
59.0775
59.0304
58.9847
58.9402
58.8967
58.8543
58.8127
58.772
58.732
58.6927
58.6539
58.6157
58.578
58.5406
58.5037
58.467
58.4306
58.3944
58.3584
58.3226
58.2869
58.2512
58.2157
58.1801
58.1446
58.1091
58.0736
58.038
58.0023
57.9666
57.9308
57.8949
57.8589
57.8227
57.7864
57.7499
57.7133
57.6765
57.6394
57.6022
57.5648
57.5271
57.4892
57.451
57.4126
57.3739
57.3349
57.2956
57.2559
57.2159
57.1756
57.1352
57.1352
69.2549
69.2549
68.9907
68.9445
68.9224
68.9077
68.8978
68.8909
68.8851
68.8795
68.8734
68.8668
68.8598
68.8524
68.8449
68.8372
68.8294
68.8215
68.8136
68.8056
68.7976
68.7896
68.7816
68.7736
68.7655
68.7575
68.7494
68.7413
68.7332
68.7251
68.717
68.7089
68.7008
68.6926
68.6845
68.6763
68.6681
68.66
68.6518
68.6435
68.6353
68.6271
68.6188
68.6106
68.6023
68.594
68.5857
68.5774
68.5691
68.5608
68.5524
68.544
68.5357
68.5273
68.5189
68.5105
68.5021
68.4936
68.4852
68.4767
68.4682
68.4597
68.4512
68.4427
68.4342
68.4256
68.417
68.4085
68.3999
68.3913
68.3827
68.374
68.3654
68.3567
68.348
68.3393
68.3306
68.3219
68.3132
68.3044
68.2956
68.2869
68.2781
68.2693
68.2604
68.2516
68.2427
68.2339
68.225
68.2161
68.2072
68.1983
68.1893
68.1804
68.1714
68.1624
68.1534
68.1444
68.1354
68.1263
68.1173
68.1082
68.0991
68.09
68.0809
68.0717
68.0626
68.0534
68.0442
68.035
68.0258
68.0166
68.0074
67.9981
67.9888
67.9796
67.9702
67.9609
67.9516
67.9422
67.9329
67.9235
67.9141
67.9047
67.8952
67.8858
67.8763
67.8668
67.8573
67.8478
67.8382
67.8287
67.8191
67.8095
67.7999
67.7902
67.7806
67.7709
67.7612
67.7515
67.7418
67.732
67.7222
67.7124
67.7026
67.6928
67.683
67.6731
67.6632
67.6533
67.6433
67.6334
67.6234
67.6134
67.6034
67.5934
67.5833
67.5732
67.5631
67.553
67.5429
67.5327
67.5225
67.5123
67.502
67.4918
67.4815
67.4712
67.4609
67.4505
67.4401
67.4297
67.4193
67.4089
67.3984
67.3879
67.3774
67.3668
67.3563
67.3457
67.335
67.3244
67.3137
67.303
67.2923
67.2815
67.2708
67.26
67.2491
67.2383
67.2274
67.2165
67.2055
67.1946
67.1836
67.1726
67.1615
67.1504
67.1393
67.1282
67.117
67.1058
67.0946
67.0834
67.0721
67.0608
67.0494
67.038
67.0266
67.0152
67.0037
66.9922
66.9807
66.9691
66.9575
66.9459
66.9342
66.9225
66.9108
66.899
66.8872
66.8754
66.8635
66.8516
66.8397
66.8277
66.8157
66.8036
66.7915
66.7793
66.7671
66.7549
66.7426
66.7303
66.7179
66.7054
66.6929
66.6803
66.6677
66.655
66.6422
66.6293
66.6163
66.6032
66.59
66.5766
66.5631
66.5495
66.5356
66.5216
66.5073
66.4928
66.478
66.4629
66.4475
66.4316
66.4153
66.3986
66.3813
66.3634
66.3449
66.3257
66.3056
66.2847
66.2628
66.2399
66.2158
66.1905
66.1638
66.1357
66.1059
66.0745
66.0412
66.0059
65.9686
65.9289
65.8869
65.8424
65.7952
65.7452
65.6922
65.6362
65.5769
65.5144
65.4484
65.379
65.3059
65.2291
65.1486
65.0643
64.9762
64.8843
64.7886
64.6892
64.586
64.4792
64.369
64.2553
64.1384
64.0184
63.8956
63.7701
63.6421
63.512
63.38
63.2463
63.1114
62.9753
62.8386
62.7014
62.5641
62.4271
62.2905
62.1548
62.0202
61.887
61.7554
61.6258
61.4983
61.3732
61.2507
61.1309
61.014
60.9002
60.7895
60.6819
60.5777
60.4768
60.3793
60.2851
60.1942
60.1066
60.0222
59.941
59.8629
59.7878
59.7155
59.6461
59.5793
59.5151
59.4533
59.3937
59.3364
59.2811
59.2276
59.176
59.126
59.0775
59.0305
58.9847
58.9402
58.8967
58.8543
58.8127
58.772
58.732
58.6927
58.6539
58.6157
58.578
58.5406
58.5037
58.467
58.4306
58.3944
58.3584
58.3226
58.2868
58.2512
58.2156
58.1801
58.1446
58.1091
58.0735
58.038
58.0023
57.9666
57.9308
57.8949
57.8588
57.8227
57.7864
57.7499
57.7133
57.6764
57.6394
57.6022
57.5647
57.5271
57.4892
57.451
57.4126
57.3738
57.3348
57.2955
57.2559
57.2158
57.1756
57.1351
57.1351
69.239
69.239
68.9936
68.9457
68.923
68.908
68.8979
68.8909
68.8852
68.8795
68.8734
68.8668
68.8598
68.8524
68.8449
68.8372
68.8294
68.8215
68.8135
68.8056
68.7976
68.7896
68.7816
68.7736
68.7655
68.7575
68.7494
68.7413
68.7332
68.7251
68.717
68.7089
68.7008
68.6926
68.6845
68.6763
68.6681
68.66
68.6518
68.6435
68.6353
68.6271
68.6188
68.6106
68.6023
68.594
68.5857
68.5774
68.5691
68.5608
68.5524
68.544
68.5357
68.5273
68.5189
68.5105
68.502
68.4936
68.4852
68.4767
68.4682
68.4597
68.4512
68.4427
68.4342
68.4256
68.417
68.4085
68.3999
68.3913
68.3826
68.374
68.3654
68.3567
68.348
68.3393
68.3306
68.3219
68.3132
68.3044
68.2956
68.2869
68.2781
68.2693
68.2604
68.2516
68.2427
68.2339
68.225
68.2161
68.2072
68.1983
68.1893
68.1804
68.1714
68.1624
68.1534
68.1444
68.1354
68.1263
68.1172
68.1082
68.0991
68.09
68.0809
68.0717
68.0626
68.0534
68.0442
68.035
68.0258
68.0166
68.0074
67.9981
67.9888
67.9795
67.9702
67.9609
67.9516
67.9422
67.9329
67.9235
67.9141
67.9046
67.8952
67.8858
67.8763
67.8668
67.8573
67.8478
67.8382
67.8286
67.8191
67.8095
67.7999
67.7902
67.7806
67.7709
67.7612
67.7515
67.7418
67.732
67.7222
67.7124
67.7026
67.6928
67.6829
67.6731
67.6632
67.6533
67.6433
67.6334
67.6234
67.6134
67.6034
67.5934
67.5833
67.5732
67.5631
67.553
67.5428
67.5327
67.5225
67.5123
67.502
67.4918
67.4815
67.4712
67.4609
67.4505
67.4401
67.4297
67.4193
67.4089
67.3984
67.3879
67.3774
67.3668
67.3563
67.3457
67.335
67.3244
67.3137
67.303
67.2923
67.2815
67.2708
67.26
67.2491
67.2383
67.2274
67.2165
67.2055
67.1946
67.1836
67.1726
67.1615
67.1504
67.1393
67.1282
67.117
67.1058
67.0946
67.0834
67.0721
67.0608
67.0494
67.038
67.0266
67.0152
67.0037
66.9922
66.9807
66.9691
66.9575
66.9459
66.9342
66.9225
66.9108
66.899
66.8872
66.8754
66.8635
66.8516
66.8397
66.8277
66.8156
66.8036
66.7915
66.7793
66.7671
66.7549
66.7426
66.7303
66.7179
66.7054
66.6929
66.6803
66.6677
66.655
66.6422
66.6293
66.6163
66.6032
66.59
66.5766
66.5631
66.5495
66.5356
66.5216
66.5073
66.4928
66.478
66.4629
66.4474
66.4316
66.4153
66.3986
66.3813
66.3634
66.3449
66.3256
66.3056
66.2847
66.2628
66.2399
66.2158
66.1905
66.1638
66.1357
66.1059
66.0745
66.0412
66.0059
65.9685
65.9289
65.8869
65.8423
65.7951
65.7451
65.6921
65.6361
65.5769
65.5144
65.4484
65.3789
65.3058
65.229
65.1485
65.0642
64.9761
64.8842
64.7885
64.6891
64.5859
64.4792
64.3689
64.2552
64.1383
64.0183
63.8955
63.77
63.6421
63.512
63.3799
63.2463
63.1113
62.9753
62.8385
62.7014
62.5641
62.427
62.2905
62.1548
62.0202
61.887
61.7554
61.6258
61.4983
61.3732
61.2507
61.1309
61.014
60.9002
60.7895
60.682
60.5777
60.4768
60.3793
60.2851
60.1942
60.1066
60.0222
59.941
59.8629
59.7878
59.7156
59.6461
59.5793
59.5151
59.4533
59.3938
59.3364
59.2811
59.2276
59.176
59.126
59.0775
59.0305
58.9847
58.9402
58.8967
58.8543
58.8127
58.772
58.732
58.6927
58.6539
58.6157
58.578
58.5406
58.5036
58.467
58.4306
58.3944
58.3584
58.3225
58.2868
58.2512
58.2156
58.1801
58.1446
58.1091
58.0735
58.0379
58.0023
57.9666
57.9308
57.8949
57.8588
57.8227
57.7863
57.7499
57.7132
57.6764
57.6394
57.6022
57.5647
57.527
57.4891
57.451
57.4125
57.3738
57.3348
57.2955
57.2559
57.2158
57.1755
57.1351
57.1351
69.2239
69.2239
68.9963
68.9468
68.9236
68.9084
68.8981
68.891
68.8852
68.8795
68.8734
68.8668
68.8598
68.8524
68.8449
68.8372
68.8294
68.8215
68.8135
68.8056
68.7976
68.7896
68.7816
68.7736
68.7655
68.7575
68.7494
68.7413
68.7332
68.7251
68.717
68.7089
68.7008
68.6926
68.6845
68.6763
68.6681
68.66
68.6518
68.6435
68.6353
68.6271
68.6188
68.6106
68.6023
68.594
68.5857
68.5774
68.5691
68.5607
68.5524
68.544
68.5357
68.5273
68.5189
68.5105
68.502
68.4936
68.4852
68.4767
68.4682
68.4597
68.4512
68.4427
68.4342
68.4256
68.417
68.4085
68.3999
68.3913
68.3826
68.374
68.3654
68.3567
68.348
68.3393
68.3306
68.3219
68.3132
68.3044
68.2956
68.2869
68.2781
68.2693
68.2604
68.2516
68.2427
68.2339
68.225
68.2161
68.2072
68.1982
68.1893
68.1804
68.1714
68.1624
68.1534
68.1444
68.1353
68.1263
68.1172
68.1082
68.0991
68.09
68.0809
68.0717
68.0626
68.0534
68.0442
68.035
68.0258
68.0166
68.0074
67.9981
67.9888
67.9795
67.9702
67.9609
67.9516
67.9422
67.9329
67.9235
67.9141
67.9046
67.8952
67.8857
67.8763
67.8668
67.8573
67.8478
67.8382
67.8286
67.8191
67.8095
67.7998
67.7902
67.7806
67.7709
67.7612
67.7515
67.7417
67.732
67.7222
67.7124
67.7026
67.6928
67.6829
67.6731
67.6632
67.6533
67.6433
67.6334
67.6234
67.6134
67.6034
67.5934
67.5833
67.5732
67.5631
67.553
67.5428
67.5327
67.5225
67.5123
67.502
67.4918
67.4815
67.4712
67.4609
67.4505
67.4401
67.4297
67.4193
67.4089
67.3984
67.3879
67.3774
67.3668
67.3562
67.3456
67.335
67.3244
67.3137
67.303
67.2923
67.2815
67.2708
67.26
67.2491
67.2383
67.2274
67.2165
67.2055
67.1946
67.1836
67.1726
67.1615
67.1504
67.1393
67.1282
67.117
67.1058
67.0946
67.0833
67.0721
67.0607
67.0494
67.038
67.0266
67.0152
67.0037
66.9922
66.9807
66.9691
66.9575
66.9459
66.9342
66.9225
66.9108
66.899
66.8872
66.8754
66.8635
66.8516
66.8397
66.8277
66.8156
66.8036
66.7915
66.7793
66.7671
66.7549
66.7426
66.7303
66.7179
66.7054
66.6929
66.6803
66.6677
66.655
66.6422
66.6293
66.6163
66.6032
66.59
66.5766
66.5631
66.5495
66.5356
66.5216
66.5073
66.4928
66.478
66.4629
66.4474
66.4316
66.4153
66.3986
66.3813
66.3634
66.3449
66.3256
66.3056
66.2847
66.2628
66.2398
66.2158
66.1905
66.1638
66.1356
66.1059
66.0744
66.0411
66.0059
65.9685
65.9288
65.8868
65.8423
65.7951
65.7451
65.6921
65.6361
65.5768
65.5143
65.4483
65.3788
65.3058
65.229
65.1485
65.0642
64.9761
64.8842
64.7885
64.689
64.5859
64.4791
64.3688
64.2551
64.1382
64.0183
63.8954
63.7699
63.642
63.5119
63.3799
63.2462
63.1113
62.9752
62.8385
62.7013
62.5641
62.427
62.2905
62.1548
62.0202
61.8869
61.7554
61.6258
61.4983
61.3732
61.2507
61.1309
61.0141
60.9002
60.7895
60.682
60.5778
60.4769
60.3793
60.2851
60.1942
60.1066
60.0222
59.941
59.8629
59.7878
59.7156
59.6461
59.5794
59.5151
59.4533
59.3938
59.3364
59.2811
59.2276
59.176
59.126
59.0775
59.0305
58.9847
58.9402
58.8967
58.8543
58.8127
58.772
58.732
58.6926
58.6539
58.6157
58.578
58.5406
58.5036
58.467
58.4306
58.3944
58.3584
58.3225
58.2868
58.2512
58.2156
58.1801
58.1446
58.1091
58.0735
58.0379
58.0023
57.9666
57.9308
57.8948
57.8588
57.8226
57.7863
57.7498
57.7132
57.6764
57.6394
57.6021
57.5647
57.527
57.4891
57.4509
57.4125
57.3738
57.3348
57.2955
57.2558
57.2158
57.1755
57.1351
57.1351
69.2099
69.2099
68.9989
68.9479
68.9242
68.9087
68.8982
68.8911
68.8852
68.8795
68.8734
68.8668
68.8598
68.8524
68.8449
68.8372
68.8294
68.8215
68.8135
68.8056
68.7976
68.7896
68.7816
68.7736
68.7655
68.7575
68.7494
68.7413
68.7332
68.7251
68.717
68.7089
68.7008
68.6926
68.6845
68.6763
68.6681
68.6599
68.6517
68.6435
68.6353
68.6271
68.6188
68.6106
68.6023
68.594
68.5857
68.5774
68.5691
68.5607
68.5524
68.544
68.5357
68.5273
68.5189
68.5105
68.502
68.4936
68.4852
68.4767
68.4682
68.4597
68.4512
68.4427
68.4341
68.4256
68.417
68.4085
68.3999
68.3913
68.3826
68.374
68.3654
68.3567
68.348
68.3393
68.3306
68.3219
68.3132
68.3044
68.2956
68.2869
68.2781
68.2693
68.2604
68.2516
68.2427
68.2339
68.225
68.2161
68.2072
68.1982
68.1893
68.1803
68.1714
68.1624
68.1534
68.1444
68.1353
68.1263
68.1172
68.1082
68.0991
68.09
68.0809
68.0717
68.0626
68.0534
68.0442
68.035
68.0258
68.0166
68.0074
67.9981
67.9888
67.9795
67.9702
67.9609
67.9516
67.9422
67.9329
67.9235
67.9141
67.9046
67.8952
67.8857
67.8763
67.8668
67.8573