# vtk DataFile Version 2.0
FlowField
ASCII
DATASET STRUCTURED_GRID
DIMENSIONS 400 1 200
POINTS 80000 float
0 0 0
0.08 0 0
0.16 0 0
0.24 0 0
0.32 0 0
0.4 0 0
0.48 0 0
0.56 0 0
0.64 0 0
0.72 0 0
0.8 0 0
0.88 0 0
0.96 0 0
1.04 0 0
1.12 0 0
1.2 0 0
1.28 0 0
1.36 0 0
1.44 0 0
1.52 0 0
1.6 0 0
1.68 0 0
1.76 0 0
1.84 0 0
1.92 0 0
2 0 0
2.08 0 0
2.16 0 0
2.24 0 0
2.32 0 0
2.4 0 0
2.48 0 0
2.56 0 0
2.64 0 0
2.72 0 0
2.8 0 0
2.88 0 0
2.96 0 0
3.04 0 0
3.12 0 0
3.2 0 0
3.28 0 0
3.36 0 0
3.44 0 0
3.52 0 0
3.6 0 0
3.68 0 0
3.76 0 0
3.84 0 0
3.92 0 0
4 0 0
4.08 0 0
4.16 0 0
4.24 0 0
4.32 0 0
4.4 0 0
4.48 0 0
4.56 0 0
4.64 0 0
4.72 0 0
4.8 0 0
4.88 0 0
4.96 0 0
5.04 0 0
5.12 0 0
5.2 0 0
5.28 0 0
5.36 0 0
5.44 0 0
5.52 0 0
5.6 0 0
5.68 0 0
5.76 0 0
5.84 0 0
5.92 0 0
6 0 0
6.08 0 0
6.16 0 0
6.24 0 0
6.32 0 0
6.4 0 0
6.48 0 0
6.56 0 0
6.64 0 0
6.72 0 0
6.8 0 0
6.88 0 0
6.96 0 0
7.04 0 0
7.12 0 0
7.2 0 0
7.28 0 0
7.36 0 0
7.44 0 0
7.52 0 0
7.6 0 0
7.68 0 0
7.76 0 0
7.84 0 0
7.92 0 0
8 0 0
8.08 0 0
8.16 0 0
8.24 0 0
8.32 0 0
8.4 0 0
8.48 0 0
8.56 0 0
8.64 0 0
8.72 0 0
8.8 0 0
8.88 0 0
8.96 0 0
9.04 0 0
9.12 0 0
9.2 0 0
9.28 0 0
9.36 0 0
9.44 0 0
9.52 0 0
9.6 0 0
9.68 0 0
9.76 0 0
9.84 0 0
9.92 0 0
10 0 0
10.08 0 0
10.16 0 0
10.24 0 0
10.32 0 0
10.4 0 0
10.48 0 0
10.56 0 0
10.64 0 0
10.72 0 0
10.8 0 0
10.88 0 0
10.96 0 0
11.04 0 0
11.12 0 0
11.2 0 0
11.28 0 0
11.36 0 0
11.44 0 0
11.52 0 0
11.6 0 0
11.68 0 0
11.76 0 0
11.84 0 0
11.92 0 0
12 0 0
12.08 0 0
12.16 0 0
12.24 0 0
12.32 0 0
12.4 0 0
12.48 0 0
12.56 0 0
12.64 0 0
12.72 0 0
12.8 0 0
12.88 0 0
12.96 0 0
13.04 0 0
13.12 0 0
13.2 0 0
13.28 0 0
13.36 0 0
13.44 0 0
13.52 0 0
13.6 0 0
13.68 0 0
13.76 0 0
13.84 0 0
13.92 0 0
14 0 0
14.08 0 0
14.16 0 0
14.24 0 0
14.32 0 0
14.4 0 0
14.48 0 0
14.56 0 0
14.64 0 0
14.72 0 0
14.8 0 0
14.88 0 0
14.96 0 0
15.04 0 0
15.12 0 0
15.2 0 0
15.28 0 0
15.36 0 0
15.44 0 0
15.52 0 0
15.6 0 0
15.68 0 0
15.76 0 0
15.84 0 0
15.92 0 0
16 0 0
16.08 0 0
16.16 0 0
16.24 0 0
16.32 0 0
16.4 0 0
16.48 0 0
16.56 0 0
16.64 0 0
16.72 0 0
16.8 0 0
16.88 0 0
16.96 0 0
17.04 0 0
17.12 0 0
17.2 0 0
17.28 0 0
17.36 0 0
17.44 0 0
17.52 0 0
17.6 0 0
17.68 0 0
17.76 0 0
17.84 0 0
17.92 0 0
18 0 0
18.08 0 0
18.16 0 0
18.24 0 0
18.32 0 0
18.4 0 0
18.48 0 0
18.56 0 0
18.64 0 0
18.72 0 0
18.8 0 0
18.88 0 0
18.96 0 0
19.04 0 0
19.12 0 0
19.2 0 0
19.28 0 0
19.36 0 0
19.44 0 0
19.52 0 0
19.6 0 0
19.68 0 0
19.76 0 0
19.84 0 0
19.92 0 0
20 0 0
20.08 0 0
20.16 0 0
20.24 0 0
20.32 0 0
20.4 0 0
20.48 0 0
20.56 0 0
20.64 0 0
20.72 0 0
20.8 0 0
20.88 0 0
20.96 0 0
21.04 0 0
21.12 0 0
21.2 0 0
21.28 0 0
21.36 0 0
21.44 0 0
21.52 0 0
21.6 0 0
21.68 0 0
21.76 0 0
21.84 0 0
21.92 0 0
22 0 0
22.08 0 0
22.16 0 0
22.24 0 0
22.32 0 0
22.4 0 0
22.48 0 0
22.56 0 0
22.64 0 0
22.72 0 0
22.8 0 0
22.88 0 0
22.96 0 0
23.04 0 0
23.12 0 0
23.2 0 0
23.28 0 0
23.36 0 0
23.44 0 0
23.52 0 0
23.6 0 0
23.68 0 0
23.76 0 0
23.84 0 0
23.92 0 0
24 0 0
24.08 0 0
24.16 0 0
24.24 0 0
24.32 0 0
24.4 0 0
24.48 0 0
24.56 0 0
24.64 0 0
24.72 0 0
24.8 0 0
24.88 0 0
24.96 0 0
25.04 0 0
25.12 0 0
25.2 0 0
25.28 0 0
25.36 0 0
25.44 0 0
25.52 0 0
25.6 0 0
25.68 0 0
25.76 0 0
25.84 0 0
25.92 0 0
26 0 0
26.08 0 0
26.16 0 0
26.24 0 0
26.32 0 0
26.4 0 0
26.48 0 0
26.56 0 0
26.64 0 0
26.72 0 0
26.8 0 0
26.88 0 0
26.96 0 0
27.04 0 0
27.12 0 0
27.2 0 0
27.28 0 0
27.36 0 0
27.44 0 0
27.52 0 0
27.6 0 0
27.68 0 0
27.76 0 0
27.84 0 0
27.92 0 0
28 0 0
28.08 0 0
28.16 0 0
28.24 0 0
28.32 0 0
28.4 0 0
28.48 0 0
28.56 0 0
28.64 0 0
28.72 0 0
28.8 0 0
28.88 0 0
28.96 0 0
29.04 0 0
29.12 0 0
29.2 0 0
29.28 0 0
29.36 0 0
29.44 0 0
29.52 0 0
29.6 0 0
29.68 0 0
29.76 0 0
29.84 0 0
29.92 0 0
30 0 0
30.08 0 0
30.16 0 0
30.24 0 0
30.32 0 0
30.4 0 0
30.48 0 0
30.56 0 0
30.64 0 0
30.72 0 0
30.8 0 0
30.88 0 0
30.96 0 0
31.04 0 0
31.12 0 0
31.2 0 0
31.28 0 0
31.36 0 0
31.44 0 0
31.52 0 0
31.6 0 0
31.68 0 0
31.76 0 0
31.84 0 0
31.92 0 0
0 0.005 0
0.08 0.005 0
0.16 0.005 0
0.24 0.005 0
0.32 0.005 0
0.4 0.005 0
0.48 0.005 0
0.56 0.005 0
0.64 0.005 0
0.72 0.005 0
0.8 0.005 0
0.88 0.005 0
0.96 0.005 0
1.04 0.005 0
1.12 0.005 0
1.2 0.005 0
1.28 0.005 0
1.36 0.005 0
1.44 0.005 0
1.52 0.005 0
1.6 0.005 0
1.68 0.005 0
1.76 0.005 0
1.84 0.005 0
1.92 0.005 0
2 0.005 0
2.08 0.005 0
2.16 0.005 0
2.24 0.005 0
2.32 0.005 0
2.4 0.005 0
2.48 0.005 0
2.56 0.005 0
2.64 0.005 0
2.72 0.005 0
2.8 0.005 0
2.88 0.005 0
2.96 0.005 0
3.04 0.005 0
3.12 0.005 0
3.2 0.005 0
3.28 0.005 0
3.36 0.005 0
3.44 0.005 0
3.52 0.005 0
3.6 0.005 0
3.68 0.005 0
3.76 0.005 0
3.84 0.005 0
3.92 0.005 0
4 0.005 0
4.08 0.005 0
4.16 0.005 0
4.24 0.005 0
4.32 0.005 0
4.4 0.005 0
4.48 0.005 0
4.56 0.005 0
4.64 0.005 0
4.72 0.005 0
4.8 0.005 0
4.88 0.005 0
4.96 0.005 0
5.04 0.005 0
5.12 0.005 0
5.2 0.005 0
5.28 0.005 0
5.36 0.005 0
5.44 0.005 0
5.52 0.005 0
5.6 0.005 0
5.68 0.005 0
5.76 0.005 0
5.84 0.005 0
5.92 0.005 0
6 0.005 0
6.08 0.005 0
6.16 0.005 0
6.24 0.005 0
6.32 0.005 0
6.4 0.005 0
6.48 0.005 0
6.56 0.005 0
6.64 0.005 0
6.72 0.005 0
6.8 0.005 0
6.88 0.005 0
6.96 0.005 0
7.04 0.005 0
7.12 0.005 0
7.2 0.005 0
7.28 0.005 0
7.36 0.005 0
7.44 0.005 0
7.52 0.005 0
7.6 0.005 0
7.68 0.005 0
7.76 0.005 0
7.84 0.005 0
7.92 0.005 0
8 0.005 0
8.08 0.005 0
8.16 0.005 0
8.24 0.005 0
8.32 0.005 0
8.4 0.005 0
8.48 0.005 0
8.56 0.005 0
8.64 0.005 0
8.72 0.005 0
8.8 0.005 0
8.88 0.005 0
8.96 0.005 0
9.04 0.005 0
9.12 0.005 0
9.2 0.005 0
9.28 0.005 0
9.36 0.005 0
9.44 0.005 0
9.52 0.005 0
9.6 0.005 0
9.68 0.005 0
9.76 0.005 0
9.84 0.005 0
9.92 0.005 0
10 0.005 0
10.08 0.005 0
10.16 0.005 0
10.24 0.005 0
10.32 0.005 0
10.4 0.005 0
10.48 0.005 0
10.56 0.005 0
10.64 0.005 0
10.72 0.005 0
10.8 0.005 0
10.88 0.005 0
10.96 0.005 0
11.04 0.005 0
11.12 0.005 0
11.2 0.005 0
11.28 0.005 0
11.36 0.005 0
11.44 0.005 0
11.52 0.005 0
11.6 0.005 0
11.68 0.005 0
11.76 0.005 0
11.84 0.005 0
11.92 0.005 0
12 0.005 0
12.08 0.005 0
12.16 0.005 0
12.24 0.005 0
12.32 0.005 0
12.4 0.005 0
12.48 0.005 0
12.56 0.005 0
12.64 0.005 0
12.72 0.005 0
12.8 0.005 0
12.88 0.005 0
12.96 0.005 0
13.04 0.005 0
13.12 0.005 0
13.2 0.005 0
13.28 0.005 0
13.36 0.005 0
13.44 0.005 0
13.52 0.005 0
13.6 0.005 0
13.68 0.005 0
13.76 0.005 0
13.84 0.005 0
13.92 0.005 0
14 0.005 0
14.08 0.005 0
14.16 0.005 0
14.24 0.005 0
14.32 0.005 0
14.4 0.005 0
14.48 0.005 0
14.56 0.005 0
14.64 0.005 0
14.72 0.005 0
14.8 0.005 0
14.88 0.005 0
14.96 0.005 0
15.04 0.005 0
15.12 0.005 0
15.2 0.005 0
15.28 0.005 0
15.36 0.005 0
15.44 0.005 0
15.52 0.005 0
15.6 0.005 0
15.68 0.005 0
15.76 0.005 0
15.84 0.005 0
15.92 0.005 0
16 0.005 0
16.08 0.005 0
16.16 0.005 0
16.24 0.005 0
16.32 0.005 0
16.4 0.005 0
16.48 0.005 0
16.56 0.005 0
16.64 0.005 0
16.72 0.005 0
16.8 0.005 0
16.88 0.005 0
16.96 0.005 0
17.04 0.005 0
17.12 0.005 0
17.2 0.005 0
17.28 0.005 0
17.36 0.005 0
17.44 0.005 0
17.52 0.005 0
17.6 0.005 0
17.68 0.005 0
17.76 0.005 0
17.84 0.005 0
17.92 0.005 0
18 0.005 0
18.08 0.005 0
18.16 0.005 0
18.24 0.005 0
18.32 0.005 0
18.4 0.005 0
18.48 0.005 0
18.56 0.005 0
18.64 0.005 0
18.72 0.005 0
18.8 0.005 0
18.88 0.005 0
18.96 0.005 0
19.04 0.005 0
19.12 0.005 0
19.2 0.005 0
19.28 0.005 0
19.36 0.005 0
19.44 0.005 0
19.52 0.005 0
19.6 0.005 0
19.68 0.005 0
19.76 0.005 0
19.84 0.005 0
19.92 0.005 0
20 0.005 0
20.08 0.005 0
20.16 0.005 0
20.24 0.005 0
20.32 0.005 0
20.4 0.005 0
20.48 0.005 0
20.56 0.005 0
20.64 0.005 0
20.72 0.005 0
20.8 0.005 0
20.88 0.005 0
20.96 0.005 0
21.04 0.005 0
21.12 0.005 0
21.2 0.005 0
21.28 0.005 0
21.36 0.005 0
21.44 0.005 0
21.52 0.005 0
21.6 0.005 0
21.68 0.005 0
21.76 0.005 0
21.84 0.005 0
21.92 0.005 0
22 0.005 0
22.08 0.005 0
22.16 0.005 0
22.24 0.005 0
22.32 0.005 0
22.4 0.005 0
22.48 0.005 0
22.56 0.005 0
22.64 0.005 0
22.72 0.005 0
22.8 0.005 0
22.88 0.005 0
22.96 0.005 0
23.04 0.005 0
23.12 0.005 0
23.2 0.005 0
23.28 0.005 0
23.36 0.005 0
23.44 0.005 0
23.52 0.005 0
23.6 0.005 0
23.68 0.005 0
23.76 0.005 0
23.84 0.005 0
23.92 0.005 0
24 0.005 0
24.08 0.005 0
24.16 0.005 0
24.24 0.005 0
24.32 0.005 0
24.4 0.005 0
24.48 0.005 0
24.56 0.005 0
24.64 0.005 0
24.72 0.005 0
24.8 0.005 0
24.88 0.005 0
24.96 0.005 0
25.04 0.005 0
25.12 0.005 0
25.2 0.005 0
25.28 0.005 0
25.36 0.005 0
25.44 0.005 0
25.52 0.005 0
25.6 0.005 0
25.68 0.005 0
25.76 0.005 0
25.84 0.005 0
25.92 0.005 0
26 0.005 0
26.08 0.005 0
26.16 0.005 0
26.24 0.005 0
26.32 0.005 0
26.4 0.005 0
26.48 0.005 0
26.56 0.005 0
26.64 0.005 0
26.72 0.005 0
26.8 0.005 0
26.88 0.005 0
26.96 0.005 0
27.04 0.005 0
27.12 0.005 0
27.2 0.005 0
27.28 0.005 0
27.36 0.005 0
27.44 0.005 0
27.52 0.005 0
27.6 0.005 0
27.68 0.005 0
27.76 0.005 0
27.84 0.005 0
27.92 0.005 0
28 0.005 0
28.08 0.005 0
28.16 0.005 0
28.24 0.005 0
28.32 0.005 0
28.4 0.005 0
28.48 0.005 0
28.56 0.005 0
28.64 0.005 0
28.72 0.005 0
28.8 0.005 0
28.88 0.005 0
28.96 0.005 0
29.04 0.005 0
29.12 0.005 0
29.2 0.005 0
29.28 0.005 0
29.36 0.005 0
29.44 0.005 0
29.52 0.005 0
29.6 0.005 0
29.68 0.005 0
29.76 0.005 0
29.84 0.005 0
29.92 0.005 0
30 0.005 0
30.08 0.005 0
30.16 0.005 0
30.24 0.005 0
30.32 0.005 0
30.4 0.005 0
30.48 0.005 0
30.56 0.005 0
30.64 0.005 0
30.72 0.005 0
30.8 0.005 0
30.88 0.005 0
30.96 0.005 0
31.04 0.005 0
31.12 0.005 0
31.2 0.005 0
31.28 0.005 0
31.36 0.005 0
31.44 0.005 0
31.52 0.005 0
31.6 0.005 0
31.68 0.005 0
31.76 0.005 0
31.84 0.005 0
31.92 0.005 0
0 0.01 0
0.08 0.01 0
0.16 0.01 0
0.24 0.01 0
0.32 0.01 0
0.4 0.01 0
0.48 0.01 0
0.56 0.01 0
0.64 0.01 0
0.72 0.01 0
0.8 0.01 0
0.88 0.01 0
0.96 0.01 0
1.04 0.01 0
1.12 0.01 0
1.2 0.01 0
1.28 0.01 0
1.36 0.01 0
1.44 0.01 0
1.52 0.01 0
1.6 0.01 0
1.68 0.01 0
1.76 0.01 0
1.84 0.01 0
1.92 0.01 0
2 0.01 0
2.08 0.01 0
2.16 0.01 0
2.24 0.01 0
2.32 0.01 0
2.4 0.01 0
2.48 0.01 0
2.56 0.01 0
2.64 0.01 0
2.72 0.01 0
2.8 0.01 0
2.88 0.01 0
2.96 0.01 0
3.04 0.01 0
3.12 0.01 0
3.2 0.01 0
3.28 0.01 0
3.36 0.01 0
3.44 0.01 0
3.52 0.01 0
3.6 0.01 0
3.68 0.01 0
3.76 0.01 0
3.84 0.01 0
3.92 0.01 0
4 0.01 0
4.08 0.01 0
4.16 0.01 0
4.24 0.01 0
4.32 0.01 0
4.4 0.01 0
4.48 0.01 0
4.56 0.01 0
4.64 0.01 0
4.72 0.01 0
4.8 0.01 0
4.88 0.01 0
4.96 0.01 0
5.04 0.01 0
5.12 0.01 0
[...]
POINT_DATA 80000

SCALARS p float 1
LOOKUP_TABLE default
1
57.418
57.1161
57.0748
57.0546
57.04
57.0279
57.0171
57.0071
56.9977
56.9887
56.9804
56.9729
56.9659
56.9594
56.9532
56.9472
56.9412
56.9354
56.9298
56.9241
56.9186
56.913
56.9074
56.9019
56.8963
56.8907
56.8852
56.8796
56.8741
56.8686
56.8631
56.8576
56.8521
56.8467
56.8413
56.8359
56.8305
56.8251
56.8198
56.8144
56.8091
56.8038
56.7985
56.7933
56.788
56.7828
56.7776
56.7724
56.7673
56.7621
56.757
56.7519
56.7468
56.7418
56.7368
56.7317
56.7267
56.7218
56.7168
56.7119
56.7069
56.7021
56.6972
56.6923
56.6875
56.6827
56.6779
56.6731
56.6684
56.6637
56.659
56.6543
56.6496
56.645
56.6404
56.6358
56.6313
56.6267
56.6222
56.6177
56.6133
56.6088
56.6044
56.6
56.5957
56.5913
56.587
56.5827
56.5785
56.5742
56.57
56.5658
56.5617
56.5576
56.5535
56.5494
56.5454
56.5413
56.5374
56.5334
56.5295
56.5256
56.5217
56.5179
56.5141
56.5103
56.5066
56.5029
56.4992
56.4956
56.492
56.4884
56.4849
56.4814
56.478
56.4745
56.4711
56.4678
56.4645
56.4612
56.458
56.4548
56.4517
56.4486
56.4455
56.4425
56.4395
56.4366
56.4337
56.4309
56.4281
56.4253
56.4226
56.42
56.4174
56.4149
56.4124
56.41
56.4076
56.4053
56.403
56.4009
56.3987
56.3967
56.3947
56.3927
56.3909
56.3891
56.3874
56.3857
56.3842
56.3827
56.3813
56.38
56.3787
56.3776
56.3765
56.3756
56.3748
56.374
56.3734
56.3729
56.3725
56.3722
56.3721
56.372
56.3722
56.3724
56.3729
56.3734
56.3742
56.3751
56.3762
56.3775
56.3789
56.3806
56.3825
56.3846
56.387
56.3896
56.3925
56.3956
56.399
56.4028
56.4068
56.4112
56.4159
56.4209
56.4264
56.4322
56.4385
56.4452
56.4523
56.4599
56.468
56.4766
56.4857
56.4954
56.5057
56.5166
56.5281
56.5402
56.553
56.5665
56.5808
56.5958
56.6115
56.6281
56.6455
56.6637
56.6828
56.7028
56.7237
56.7456
56.7684
56.7922
56.817
56.8429
56.8697
56.8976
56.9266
56.9567
56.9879
57.0202
57.0536
57.0881
57.1238
57.1606
57.1985
57.2375
57.2776
57.3189
57.3612
57.4046
57.4491
57.4946
57.5412
57.5888
57.6373
57.6868
57.7371
57.7884
57.8405
57.8933
57.947
58.0013
58.0562
58.1118
58.1679
58.2245
58.2815
58.3389
58.3966
58.4546
58.5127
58.571
58.6293
58.6876
58.7459
58.804
58.8618
58.9195
58.9768
59.0336
59.0901
59.1459
59.2012
59.2559
59.3098
59.363
59.4154
59.4669
59.5175
59.5671
59.6157
59.6632
59.7097
59.755
59.7991
59.8421
59.8839
59.9244
59.9636
60.0015
60.0382
60.0735
60.1076
60.1402
60.1716
60.2016
60.2303
60.2577
60.2837
60.3085
60.3319
60.3541
60.375
60.3947
60.4131
60.4303
60.4463
60.4612
60.475
60.4876
60.4992
60.5097
60.5193
60.5278
60.5354
60.542
60.5478
60.5527
60.5568
60.5601
60.5626
60.5644
60.5655
60.5659
60.5657
60.5648
60.5634
60.5615
60.559
60.556
60.5525
60.5486
60.5443
60.5395
60.5344
60.529
60.5232
60.5171
60.5107
60.504
60.4971
60.4899
60.4825
60.4749
60.4671
60.4591
60.4509
60.4426
60.4341
60.4255
60.4168
60.408
60.399
60.39
60.3809
60.3716
60.3623
60.353
60.3435
60.334
60.3245
60.3148
60.3052
60.2955
60.2858
60.276
60.2662
60.2563
60.2465
60.2366
60.2266
60.2167
60.2067
60.1967
60.1867
60.1767
60.1667
60.1566
60.1466
60.1365
60.1264
60.1163
60.1062
60.0961
60.086
60.0758
60.0657
60.0555
60.0454
60.0352
60.025
60.0148
60.0046
59.9944
59.9842
59.974
59.9638
59.9535
59.9433
59.9331
59.9228
59.9126
59.9023
59.8921
0.5
57.418
57.418
57.1161
57.0748
57.0546
57.04
57.0279
57.0171
57.0071
56.9977
56.9887
56.9804
56.9729
56.9659
56.9594
56.9532
56.9472
56.9412
56.9354
56.9298
56.9241
56.9186
56.913
56.9074
56.9019
56.8963
56.8907
56.8852
56.8796
56.8741
56.8686
56.8631
56.8576
56.8521
56.8467
56.8413
56.8359
56.8305
56.8251
56.8198
56.8144
56.8091
56.8038
56.7985
56.7933
56.788
56.7828
56.7776
56.7724
56.7673
56.7621
56.757
56.7519
56.7468
56.7418
56.7368
56.7317
56.7267
56.7218
56.7168
56.7119
56.7069
56.7021
56.6972
56.6923
56.6875
56.6827
56.6779
56.6731
56.6684
56.6637
56.659
56.6543
56.6496
56.645
56.6404
56.6358
56.6313
56.6267
56.6222
56.6177
56.6133
56.6088
56.6044
56.6
56.5957
56.5913
56.587
56.5827
56.5785
56.5742
56.57
56.5658
56.5617
56.5576
56.5535
56.5494
56.5454
56.5413
56.5374
56.5334
56.5295
56.5256
56.5217
56.5179
56.5141
56.5103
56.5066
56.5029
56.4992
56.4956
56.492
56.4884
56.4849
56.4814
56.478
56.4745
56.4711
56.4678
56.4645
56.4612
56.458
56.4548
56.4517
56.4486
56.4455
56.4425
56.4395
56.4366
56.4337
56.4309
56.4281
56.4253
56.4226
56.42
56.4174
56.4149
56.4124
56.41
56.4076
56.4053
56.403
56.4009
56.3987
56.3967
56.3947
56.3927
56.3909
56.3891
56.3874
56.3857
56.3842
56.3827
56.3813
56.38
56.3787
56.3776
56.3765
56.3756
56.3748
56.374
56.3734
56.3729
56.3725
56.3722
56.3721
56.372
56.3722
56.3724
56.3729
56.3734
56.3742
56.3751
56.3762
56.3775
56.3789
56.3806
56.3825
56.3846
56.387
56.3896
56.3925
56.3956
56.399
56.4028
56.4068
56.4112
56.4159
56.4209
56.4264
56.4322
56.4385
56.4452
56.4523
56.4599
56.468
56.4766
56.4857
56.4954
56.5057
56.5166
56.5281
56.5402
56.553
56.5665
56.5808
56.5958
56.6115
56.6281
56.6455
56.6637
56.6828
56.7028
56.7237
56.7456
56.7684
56.7922
56.817
56.8429
56.8697
56.8976
56.9266
56.9567
56.9879
57.0202
57.0536
57.0881
57.1238
57.1606
57.1985
57.2375
57.2776
57.3189
57.3612
57.4046
57.4491
57.4946
57.5412
57.5888
57.6373
57.6868
57.7371
57.7884
57.8405
57.8933
57.947
58.0013
58.0562
58.1118
58.1679
58.2245
58.2815
58.3389
58.3966
58.4546
58.5127
58.571
58.6293
58.6876
58.7459
58.804
58.8618
58.9195
58.9768
59.0336
59.0901
59.1459
59.2012
59.2559
59.3098
59.363
59.4154
59.4669
59.5175
59.5671
59.6157
59.6632
59.7097
59.755
59.7991
59.8421
59.8839
59.9244
59.9636
60.0015
60.0382
60.0735
60.1076
60.1402
60.1716
60.2016
60.2303
60.2577
60.2837
60.3085
60.3319
60.3541
60.375
60.3947
60.4131
60.4303
60.4463
60.4612
60.475
60.4876
60.4992
60.5097
60.5193
60.5278
60.5354
60.542
60.5478
60.5527
60.5568
60.5601
60.5626
60.5644
60.5655
60.5659
60.5657
60.5648
60.5634
60.5615
60.559
60.556
60.5525
60.5486
60.5443
60.5395
60.5344
60.529
60.5232
60.5171
60.5107
60.504
60.4971
60.4899
60.4825
60.4749
60.4671
60.4591
60.4509
60.4426
60.4341
60.4255
60.4168
60.408
60.399
60.39
60.3809
60.3716
60.3623
60.353
60.3435
60.334
60.3245
60.3148
60.3052
60.2955
60.2858
60.276
60.2662
60.2563
60.2465
60.2366
60.2266
60.2167
60.2067
60.1967
60.1867
60.1767
60.1667
60.1566
60.1466
60.1365
60.1264
60.1163
60.1062
60.0961
60.086
60.0758
60.0657
60.0555
60.0454
60.0352
60.025
60.0148
60.0046
59.9944
59.9842
59.974
59.9638
59.9535
59.9433
59.9331
59.9228
59.9126
59.9023
59.8921
59.8921
57.4034
57.4034
57.1199
57.0761
57.0552
57.0404
57.0282
57.0173
57.0073
56.9978
56.9888
56.9805
56.9729
56.966
56.9595
56.9532
56.9472
56.9412
56.9354
56.9297
56.9241
56.9185
56.913
56.9074
56.9019
56.8963
56.8907
56.8852
56.8796
56.8741
56.8686
56.8631
56.8576
56.8521
56.8467
56.8413
56.8359
56.8305
56.8251
56.8197
56.8144
56.8091
56.8038
56.7985
56.7933
56.788
56.7828
56.7776
56.7724
56.7673
56.7621
56.757
56.7519
56.7468
56.7418
56.7367
56.7317
56.7267
56.7217
56.7168
56.7119
56.7069
56.702
56.6972
56.6923
56.6875
56.6827
56.6779
56.6731
56.6684
56.6637
56.659
56.6543
56.6496
56.645
56.6404
56.6358
56.6313
56.6267
56.6222
56.6177
56.6133
56.6088
56.6044
56.6
56.5956
56.5913
56.587
56.5827
56.5784
56.5742
56.57
56.5658
56.5617
56.5576
56.5535
56.5494
56.5453
56.5413
56.5374
56.5334
56.5295
56.5256
56.5217
56.5179
56.5141
56.5103
56.5066
56.5029
56.4992
56.4956
56.492
56.4884
56.4849
56.4814
56.4779
56.4745
56.4711
56.4678
56.4645
56.4612
56.458
56.4548
56.4517
56.4486
56.4455
56.4425
56.4395
56.4366
56.4337
56.4309
56.4281
56.4253
56.4226
56.42
56.4174
56.4149
56.4124
56.41
56.4076
56.4053
56.403
56.4008
56.3987
56.3967
56.3947
56.3927
56.3909
56.3891
56.3874
56.3857
56.3841
56.3827
56.3813
56.3799
56.3787
56.3776
56.3765
56.3756
56.3748
56.374
56.3734
56.3729
56.3725
56.3722
56.3721
56.372
56.3722
56.3724
56.3728
56.3734
56.3742
56.3751
56.3762
56.3774
56.3789
56.3806
56.3825
56.3846
56.387
56.3896
56.3925
56.3956
56.399
56.4028
56.4068
56.4112
56.4159
56.4209
56.4264
56.4322
56.4385
56.4451
56.4523
56.4599
56.468
56.4766
56.4857
56.4954
56.5057
56.5165
56.528
56.5402
56.553
56.5665
56.5808
56.5958
56.6115
56.6281
56.6455
56.6637
56.6828
56.7028
56.7237
56.7456
56.7684
56.7922
56.817
56.8428
56.8697
56.8976
56.9266
56.9567
56.9879
57.0202
57.0536
57.0881
57.1237
57.1605
57.1984
57.2374
57.2775
57.3188
57.3611
57.4046
57.449
57.4946
57.5411
57.5887
57.6372
57.6867
57.7371
57.7883
57.8404
57.8933
57.9469
58.0012
58.0561
58.1117
58.1678
58.2244
58.2814
58.3388
58.3965
58.4545
58.5126
58.5709
58.6292
58.6875
58.7457
58.8038
58.8617
58.9194
58.9766
59.0335
59.0899
59.1458
59.2011
59.2558
59.3097
59.3629
59.4153
59.4668
59.5173
59.567
59.6156
59.6631
59.7096
59.7549
59.799
59.842
59.8838
59.9243
59.9635
60.0015
60.0381
60.0734
60.1075
60.1402
60.1715
60.2015
60.2302
60.2576
60.2837
60.3084
60.3319
60.354
60.3749
60.3946
60.413
60.4302
60.4463
60.4612
60.4749
60.4876
60.4992
60.5097
60.5192
60.5278
60.5353
60.542
60.5478
60.5527
60.5568
60.56
60.5626
60.5644
60.5654
60.5659
60.5656
60.5648
60.5634
60.5614
60.559
60.556
60.5525
60.5486
60.5443
60.5395
60.5344
60.529
60.5232
60.5171
60.5107
60.504
60.4971
60.4899
60.4825
60.4749
60.4671
60.4591
60.4509
60.4426
60.4341
60.4255
60.4168
60.408
60.399
60.39
60.3809
60.3716
60.3623
60.353
60.3435
60.334
60.3245
60.3148
60.3052
60.2955
60.2858
60.276
60.2662
60.2563
60.2465
60.2366
60.2266
60.2167
60.2067
60.1967
60.1867
60.1767
60.1667
60.1566
60.1466
60.1365
60.1264
60.1163
60.1062
60.0961
60.086
60.0758
60.0657
60.0555
60.0454
60.0352
60.025
60.0148
60.0046
59.9944
59.9842
59.974
59.9638
59.9535
59.9433
59.9331
59.9228
59.9126
59.9023
59.8921
59.8921
57.3874
57.3874
57.1231
57.0772
57.0558
57.0408
57.0284
57.0175
57.0074
56.9979
56.9889
56.9806
56.973
56.966
56.9595
56.9532
56.9472
56.9412
56.9354
56.9297
56.9241
56.9185
56.913
56.9074
56.9019
56.8963
56.8907
56.8852
56.8796
56.8741
56.8686
56.8631
56.8576
56.8521
56.8467
56.8413
56.8359
56.8305
56.8251
56.8197
56.8144
56.8091
56.8038
56.7985
56.7933
56.788
56.7828
56.7776
56.7724
56.7673
56.7621
56.757
56.7519
56.7468
56.7418
56.7367
56.7317
56.7267
56.7217
56.7168
56.7119
56.7069
56.702
56.6972
56.6923
56.6875
56.6827
56.6779
56.6731
56.6684
56.6637
56.659
56.6543
56.6496
56.645
56.6404
56.6358
56.6313
56.6267
56.6222
56.6177
56.6133
56.6088
56.6044
56.6
56.5956
56.5913
56.587
56.5827
56.5785
56.5742
56.57
56.5658
56.5617
56.5576
56.5535
56.5494
56.5453
56.5413
56.5374
56.5334
56.5295
56.5256
56.5217
56.5179
56.5141
56.5103
56.5066
56.5029
56.4992
56.4956
56.492
56.4884
56.4849
56.4814
56.4779
56.4745
56.4711
56.4678
56.4645
56.4612
56.458
56.4548
56.4517
56.4486
56.4455
56.4425
56.4395
56.4366
56.4337
56.4309
56.4281
56.4253
56.4226
56.42
56.4174
56.4149
56.4124
56.41
56.4076
56.4053
56.403
56.4008
56.3987
56.3967
56.3947
56.3927
56.3909
56.3891
56.3874
56.3857
56.3841
56.3827
56.3813
56.3799
56.3787
56.3776
56.3765
56.3756
56.3748
56.374
56.3734
56.3729
56.3725
56.3722
56.3721
56.372
56.3722
56.3724
56.3729
56.3734
56.3742
56.3751
56.3762
56.3775
56.3789
56.3806
56.3825
56.3846
56.387
56.3896
56.3925
56.3956
56.399
56.4028
56.4068
56.4112
56.4159
56.4209
56.4264
56.4322
56.4385
56.4451
56.4523
56.4599
56.468
56.4766
56.4857
56.4954
56.5057
56.5165
56.528
56.5402
56.553
56.5665
56.5808
56.5958
56.6115
56.6281
56.6455
56.6637
56.6828
56.7028
56.7237
56.7456
56.7684
56.7922
56.817
56.8428
56.8697
56.8976
56.9266
56.9567
56.9879
57.0202
57.0536
57.0881
57.1237
57.1605
57.1984
57.2374
57.2776
57.3188
57.3611
57.4046
57.449
57.4946
57.5411
57.5887
57.6372
57.6867
57.7371
57.7883
57.8404
57.8933
57.9469
58.0012
58.0561
58.1117
58.1678
58.2244
58.2814
58.3388
58.3965
58.4545
58.5126
58.5709
58.6292
58.6875
58.7457
58.8038
58.8617
58.9193
58.9766
59.0335
59.0899
59.1458
59.2011
59.2558
59.3097
59.3629
59.4152
59.4667
59.5173
59.5669
59.6155
59.6631
59.7095
59.7549
59.799
59.842
59.8837
59.9242
59.9635
60.0014
60.0381
60.0734
60.1074
60.1401
60.1715
60.2015
60.2302
60.2576
60.2836
60.3084
60.3318
60.354
60.3749
60.3946
60.413
60.4302
60.4463
60.4612
60.4749
60.4876
60.4992
60.5097
60.5192
60.5277
60.5353
60.542
60.5477
60.5527
60.5567
60.56
60.5626
60.5643
60.5654
60.5659
60.5656
60.5648
60.5634
60.5614
60.5589
60.556
60.5525
60.5486
60.5443
60.5395
60.5344
60.529
60.5232
60.5171
60.5107
60.504
60.497
60.4899
60.4825
60.4749
60.4671
60.4591
60.4509
60.4426
60.4341
60.4255
60.4168
60.408
60.399
60.39
60.3808
60.3716
60.3623
60.353
60.3435
60.334
60.3245
60.3148
60.3052
60.2955
60.2858
60.276
60.2662
60.2563
60.2465
60.2366
60.2266
60.2167
60.2067
60.1967
60.1867
60.1767
60.1667
60.1566
60.1466
60.1365
60.1264
60.1163
60.1062
60.0961
60.086
60.0758
60.0657
60.0555
60.0454
60.0352
60.025
60.0148
60.0046
59.9944
59.9842
59.974
59.9638
59.9535
59.9433
59.9331
59.9228
59.9126
59.9023
59.8921
59.8921
57.3715
57.3715
57.126
57.0784
57.0564
57.0412
57.0287
57.0177
57.0076
56.998
56.989
56.9806
56.973
56.966
56.9595
56.9532
56.9472
56.9412
56.9354
56.9297
56.9241
56.9185
56.913
56.9074
56.9019
56.8963
56.8907
56.8852
56.8796
56.8741
56.8686
56.8631
56.8576
56.8521
56.8467
56.8413
56.8359
56.8305
56.8251
56.8197
56.8144
56.8091
56.8038
56.7985
56.7933
56.788
56.7828
56.7776
56.7724
56.7673
56.7621
56.757
56.7519
56.7468
56.7418
56.7367
56.7317
56.7267
56.7217
56.7168
56.7119
56.7069
56.702
56.6972
56.6923
56.6875
56.6827
56.6779
56.6731
56.6684
56.6637
56.659
56.6543
56.6496
56.645
56.6404
56.6358
56.6313
56.6267
56.6222
56.6177
56.6133
56.6088
56.6044
56.6
56.5957
56.5913
56.587
56.5827
56.5785
56.5742
56.57
56.5658
56.5617
56.5576
56.5535
56.5494
56.5453
56.5413
56.5374
56.5334
56.5295
56.5256
56.5217
56.5179
56.5141
56.5103
56.5066
56.5029
56.4992
56.4956
56.492
56.4884
56.4849
56.4814
56.4779
56.4745
56.4711
56.4678
56.4645
56.4612
56.458
56.4548
56.4517
56.4486
56.4455
56.4425
56.4395
56.4366
56.4337
56.4309
56.4281
56.4253
56.4226
56.42
56.4174
56.4149
56.4124
56.41
56.4076
56.4053
56.403
56.4009
56.3987
56.3967
56.3947
56.3927
56.3909
56.3891
56.3874
56.3857
56.3842
56.3827
56.3813
56.38
56.3787
56.3776
56.3765
56.3756
56.3748
56.374
56.3734
56.3729
56.3725
56.3722
56.3721
56.372
56.3722
56.3724
56.3729
56.3734
56.3742
56.3751
56.3762
56.3775
56.3789
56.3806
56.3825
56.3846
56.387
56.3896
56.3925
56.3956
56.399
56.4028
56.4068
56.4112
56.4159
56.4209
56.4264
56.4322
56.4385
56.4452
56.4523
56.4599
56.468
56.4766
56.4857
56.4954
56.5057
56.5166
56.5281
56.5402
56.553
56.5665
56.5808
56.5958
56.6115
56.6281
56.6455
56.6637
56.6828
56.7028
56.7237
56.7456
56.7684
56.7922
56.817
56.8428
56.8697
56.8976
56.9266
56.9567
56.9879
57.0202
57.0536
57.0881
57.1237
57.1605
57.1984
57.2374
57.2776
57.3188
57.3611
57.4046
57.4491
57.4946
57.5411
57.5887
57.6372
57.6867
57.7371
57.7883
57.8404
57.8933
57.9469
58.0012
58.0561
58.1117
58.1678
58.2244
58.2814
58.3388
58.3965
58.4544
58.5126
58.5709
58.6292
58.6875
58.7457
58.8038
58.8617
58.9193
58.9766
59.0335
59.0899
59.1458
59.2011
59.2557
59.3097
59.3629
59.4152
59.4667
59.5173
59.5669
59.6155
59.663
59.7095
59.7548
59.799
59.842
59.8837
59.9242
59.9634
60.0014
60.0381
60.0734
60.1074
60.1401
60.1715
60.2015
60.2302
60.2576
60.2836
60.3084
60.3318
60.354
60.3749
60.3945
60.413
60.4302
60.4463
60.4611
60.4749
60.4876
60.4991
60.5097
60.5192
60.5277
60.5353
60.542
60.5477
60.5526
60.5567
60.56
60.5625
60.5643
60.5654
60.5658
60.5656
60.5648
60.5634
60.5614
60.5589
60.5559
60.5525
60.5486
60.5442
60.5395
60.5344
60.529
60.5232
60.5171
60.5107
60.504
60.497
60.4899
60.4825
60.4749
60.4671
60.4591
60.4509
60.4426
60.4341
60.4255
60.4168
60.408
60.399
60.39
60.3808
60.3716
60.3623
60.3529
60.3435
60.334
60.3245
60.3148
60.3052
60.2955
60.2858
60.276
60.2662
60.2563
60.2465
60.2366
60.2266
60.2167
60.2067
60.1967
60.1867
60.1767
60.1667
60.1566
60.1466
60.1365
60.1264
60.1163
60.1062
60.0961
60.086
60.0758
60.0657
60.0555
60.0453
60.0352
60.025
60.0148
60.0046
59.9944
59.9842
59.974
59.9638
59.9535
59.9433
59.9331
59.9228
59.9126
59.9023
59.8921
59.8921
57.3564
57.3564
57.1287
57.0795
57.057
57.0415
57.029
57.0179
57.0077
56.9981
56.9891
56.9807
56.9731
56.9661
56.9595
56.9532
56.9472
56.9412
56.9354
56.9297
56.9241
56.9185
56.913
56.9074
56.9019
56.8963
56.8907
56.8852
56.8796
56.8741
56.8686
56.8631
56.8576
56.8521
56.8467
56.8413
56.8359
56.8305
56.8251
56.8197
56.8144
56.8091
56.8038
56.7985
56.7933
56.788
56.7828
56.7776
56.7724
56.7673
56.7621
56.757
56.7519
56.7468
56.7418
56.7367
56.7317
56.7267
56.7218
56.7168
56.7119
56.7069
56.702
56.6972
56.6923
56.6875
56.6827
56.6779
56.6731
56.6684
56.6637
56.659
56.6543
56.6496
56.645
56.6404
56.6358
56.6313
56.6267
56.6222
56.6177
56.6133
56.6088
56.6044
56.6
56.5957
56.5913
56.587
56.5827
56.5785
56.5742
56.57
56.5658
56.5617
56.5576
56.5535
56.5494
56.5453
56.5413
56.5374
56.5334
56.5295
56.5256
56.5217
56.5179
56.5141
56.5103
56.5066
56.5029
56.4992
56.4956
56.492
56.4884
56.4849
56.4814
56.4779
56.4745
56.4711
56.4678
56.4645
56.4612
56.458
56.4548
56.4517
56.4486
56.4455
56.4425
56.4395
56.4366
56.4337
56.4309
56.4281
56.4253
56.4226
56.42
56.4174
56.4149
56.4124
56.41
56.4076
56.4053
56.403
56.4009
56.3987
56.3967
56.3947
56.3927
56.3909
56.3891
56.3874
56.3857
56.3842
56.3827
56.3813
56.38
56.3787
56.3776
56.3765
56.3756
56.3748
56.374
56.3734
56.3729
56.3725
56.3722
56.3721
56.372
56.3722
56.3724
56.3729
56.3734
56.3742
56.3751
56.3762
56.3775
56.3789
56.3806
56.3825
56.3846
56.387
56.3896
56.3925
56.3956
56.399
56.4028
56.4068
56.4112
56.4159
56.421
56.4264
56.4322
56.4385
56.4452
56.4523
56.4599
56.468
56.4766
56.4857
56.4954
56.5057
56.5166
56.5281
56.5402
56.553
56.5666
56.5808
56.5958
56.6116
56.6281
56.6455
56.6637
56.6828
56.7028
56.7237
56.7456
56.7684
56.7922
56.817
56.8428
56.8697
56.8976
56.9266
56.9567
56.9879
57.0202
57.0536
57.0881
57.1238
57.1605
57.1984
57.2374
57.2776
57.3188
57.3612
57.4046
57.4491
57.4946
57.5411
57.5887
57.6372
57.6867
57.7371
57.7883
57.8404
57.8933
57.9469
58.0012
58.0561
58.1117
58.1678
58.2244
58.2814
58.3388
58.3965
58.4544
58.5126
58.5708
58.6292
58.6875
58.7457
58.8038
58.8617
58.9193
58.9766
59.0335
59.0899
59.1458
59.2011
59.2557
59.3097
59.3628
59.4152
59.4667
59.5173
59.5669
59.6155
59.663
59.7095
59.7548
59.799
59.8419
59.8837
59.9242
59.9634
60.0014
60.038
60.0734
60.1074
60.1401
60.1714
60.2015
60.2302
60.2575
60.2836
60.3083
60.3318
60.354
60.3749
60.3945
60.413
60.4302
60.4462
60.4611
60.4749
60.4875
60.4991
60.5097
60.5192
60.5277
60.5353
60.542
60.5477
60.5526
60.5567
60.56
60.5625
60.5643
60.5654
60.5658
60.5656
60.5648
60.5634
60.5614
60.5589
60.5559
60.5525
60.5486
60.5442
60.5395
60.5344
60.5289
60.5232
60.517
60.5106
60.504
60.497
60.4899
60.4825
60.4749
60.4671
60.4591
60.4509
60.4426
60.4341
60.4255
60.4168
60.408
60.399
60.39
60.3808
60.3716
60.3623
60.3529
60.3435
60.334
60.3245
60.3148
60.3052
60.2955
60.2857
60.276
60.2662
60.2563
60.2464
60.2366
60.2266
60.2167
60.2067
60.1967
60.1867
60.1767
60.1667
60.1566
60.1466
60.1365
60.1264
60.1163
60.1062
60.0961
60.086
60.0758
60.0657
60.0555
60.0453
60.0352
60.025
60.0148
60.0046
59.9944
59.9842
59.974
59.9638
59.9535
59.9433
59.9331
59.9228
59.9126
59.9023
59.8921
59.8921
57.3424
57.3424
57.1313
57.0806
57.0576
57.0419
57.0292
57.0181
57.0078
56.9982
56.9891
56.9808
56.9731
56.9661
56.9595
56.9533
56.9472
56.9413
56.9354
56.9297
56.9241
56.9185
56.913
56.9074
56.9019
56.8963
56.8907
56.8852
56.8796
56.8741
56.8686
56.8631
56.8576
56.8521
56.8467
56.8413
56.8359
56.8305
56.8251
56.8197
56.8144
56.8091
56.8038
56.7985
56.7933
56.788
56.7828
56.7776
56.7724
56.7673
56.7621
56.757
56.7519
56.7468
56.7418
56.7367
56.7317
56.7267
56.7218
56.7168
56.7119
56.7069
56.702
56.6972
56.6923
56.6875
56.6827
56.6779
56.6731
56.6684
56.6637
56.659
56.6543
56.6496
56.645
56.6404
56.6358
56.6313
56.6267
56.6222
56.6177
56.6133
56.6088
56.6044
56.6
56.5957
56.5913
56.587
56.5827
56.5785
56.5742
56.57
56.5658
56.5617
56.5576
56.5535
56.5494
56.5453
56.5413
56.5374
56.5334
56.5295
56.5256
56.5217
56.5179
56.5141
56.5103
56.5066
56.5029
56.4992
56.4956
56.492
56.4884
56.4849
56.4814
56.478
56.4745
56.4711
56.4678
56.4645
56.4612
56.458
56.4548
56.4517
56.4486
56.4455
56.4425
56.4395
56.4366
56.4337
56.4309
56.4281
56.4253
56.4226
56.42