# vtk DataFile Version 2.0
FlowField
ASCII
DATASET STRUCTURED_GRID
DIMENSIONS 400 1 200
POINTS 80000 float
0 0 0
0.08 0 0
0.16 0 0
0.24 0 0
0.32 0 0
0.4 0 0
0.48 0 0
0.56 0 0
0.64 0 0
0.72 0 0
0.8 0 0
0.88 0 0
0.96 0 0
1.04 0 0
1.12 0 0
1.2 0 0
1.28 0 0
1.36 0 0
1.44 0 0
1.52 0 0
1.6 0 0
1.68 0 0
1.76 0 0
1.84 0 0
1.92 0 0
2 0 0
2.08 0 0
2.16 0 0
2.24 0 0
2.32 0 0
2.4 0 0
2.48 0 0
2.56 0 0
2.64 0 0
2.72 0 0
2.8 0 0
2.88 0 0
2.96 0 0
3.04 0 0
3.12 0 0
3.2 0 0
3.28 0 0
3.36 0 0
3.44 0 0
3.52 0 0
3.6 0 0
3.68 0 0
3.76 0 0
3.84 0 0
3.92 0 0
4 0 0
4.08 0 0
4.16 0 0
4.24 0 0
4.32 0 0
4.4 0 0
4.48 0 0
4.56 0 0
4.64 0 0
4.72 0 0
4.8 0 0
4.88 0 0
4.96 0 0
5.04 0 0
5.12 0 0
5.2 0 0
5.28 0 0
5.36 0 0
5.44 0 0
5.52 0 0
5.6 0 0
5.68 0 0
5.76 0 0
5.84 0 0
5.92 0 0
6 0 0
6.08 0 0
6.16 0 0
6.24 0 0
6.32 0 0
6.4 0 0
6.48 0 0
6.56 0 0
6.64 0 0
6.72 0 0
6.8 0 0
6.88 0 0
6.96 0 0
7.04 0 0
7.12 0 0
7.2 0 0
7.28 0 0
7.36 0 0
7.44 0 0
7.52 0 0
7.6 0 0
7.68 0 0
7.76 0 0
7.84 0 0
7.92 0 0
8 0 0
8.08 0 0
8.16 0 0
8.24 0 0
8.32 0 0
8.4 0 0
8.48 0 0
8.56 0 0
8.64 0 0
8.72 0 0
8.8 0 0
8.88 0 0
8.96 0 0
9.04 0 0
9.12 0 0
9.2 0 0
9.28 0 0
9.36 0 0
9.44 0 0
9.52 0 0
9.6 0 0
9.68 0 0
9.76 0 0
9.84 0 0
9.92 0 0
10 0 0
10.08 0 0
10.16 0 0
10.24 0 0
10.32 0 0
10.4 0 0
10.48 0 0
10.56 0 0
10.64 0 0
10.72 0 0
10.8 0 0
10.88 0 0
10.96 0 0
11.04 0 0
11.12 0 0
11.2 0 0
11.28 0 0
11.36 0 0
11.44 0 0
11.52 0 0
11.6 0 0
11.68 0 0
11.76 0 0
11.84 0 0
11.92 0 0
12 0 0
12.08 0 0
12.16 0 0
12.24 0 0
12.32 0 0
12.4 0 0
12.48 0 0
12.56 0 0
12.64 0 0
12.72 0 0
12.8 0 0
12.88 0 0
12.96 0 0
13.04 0 0
13.12 0 0
13.2 0 0
13.28 0 0
13.36 0 0
13.44 0 0
13.52 0 0
13.6 0 0
13.68 0 0
13.76 0 0
13.84 0 0
13.92 0 0
14 0 0
14.08 0 0
14.16 0 0
14.24 0 0
14.32 0 0
14.4 0 0
14.48 0 0
14.56 0 0
14.64 0 0
14.72 0 0
14.8 0 0
14.88 0 0
14.96 0 0
15.04 0 0
15.12 0 0
15.2 0 0
15.28 0 0
15.36 0 0
15.44 0 0
15.52 0 0
15.6 0 0
15.68 0 0
15.76 0 0
15.84 0 0
15.92 0 0
16 0 0
16.08 0 0
16.16 0 0
16.24 0 0
16.32 0 0
16.4 0 0
16.48 0 0
16.56 0 0
16.64 0 0
16.72 0 0
16.8 0 0
16.88 0 0
16.96 0 0
17.04 0 0
17.12 0 0
17.2 0 0
17.28 0 0
17.36 0 0
17.44 0 0
17.52 0 0
17.6 0 0
17.68 0 0
17.76 0 0
17.84 0 0
17.92 0 0
18 0 0
18.08 0 0
18.16 0 0
18.24 0 0
18.32 0 0
18.4 0 0
18.48 0 0
18.56 0 0
18.64 0 0
18.72 0 0
18.8 0 0
18.88 0 0
18.96 0 0
19.04 0 0
19.12 0 0
19.2 0 0
19.28 0 0
19.36 0 0
19.44 0 0
19.52 0 0
19.6 0 0
19.68 0 0
19.76 0 0
19.84 0 0
19.92 0 0
20 0 0
20.08 0 0
20.16 0 0
20.24 0 0
20.32 0 0
20.4 0 0
20.48 0 0
20.56 0 0
20.64 0 0
20.72 0 0
20.8 0 0
20.88 0 0
20.96 0 0
21.04 0 0
21.12 0 0
21.2 0 0
21.28 0 0
21.36 0 0
21.44 0 0
21.52 0 0
21.6 0 0
21.68 0 0
21.76 0 0
21.84 0 0
21.92 0 0
22 0 0
22.08 0 0
22.16 0 0
22.24 0 0
22.32 0 0
22.4 0 0
22.48 0 0
22.56 0 0
22.64 0 0
22.72 0 0
22.8 0 0
22.88 0 0
22.96 0 0
23.04 0 0
23.12 0 0
23.2 0 0
23.28 0 0
23.36 0 0
23.44 0 0
23.52 0 0
23.6 0 0
23.68 0 0
23.76 0 0
23.84 0 0
23.92 0 0
24 0 0
24.08 0 0
24.16 0 0
24.24 0 0
24.32 0 0
24.4 0 0
24.48 0 0
24.56 0 0
24.64 0 0
24.72 0 0
24.8 0 0
24.88 0 0
24.96 0 0
25.04 0 0
25.12 0 0
25.2 0 0
25.28 0 0
25.36 0 0
25.44 0 0
25.52 0 0
25.6 0 0
25.68 0 0
25.76 0 0
25.84 0 0
25.92 0 0
26 0 0
26.08 0 0
26.16 0 0
26.24 0 0
26.32 0 0
26.4 0 0
26.48 0 0
26.56 0 0
26.64 0 0
26.72 0 0
26.8 0 0
26.88 0 0
26.96 0 0
27.04 0 0
27.12 0 0
27.2 0 0
27.28 0 0
27.36 0 0
27.44 0 0
27.52 0 0
27.6 0 0
27.68 0 0
27.76 0 0
27.84 0 0
27.92 0 0
28 0 0
28.08 0 0
28.16 0 0
28.24 0 0
28.32 0 0
28.4 0 0
28.48 0 0
28.56 0 0
28.64 0 0
28.72 0 0
28.8 0 0
28.88 0 0
28.96 0 0
29.04 0 0
29.12 0 0
29.2 0 0
29.28 0 0
29.36 0 0
29.44 0 0
29.52 0 0
29.6 0 0
29.68 0 0
29.76 0 0
29.84 0 0
29.92 0 0
30 0 0
30.08 0 0
30.16 0 0
30.24 0 0
30.32 0 0
30.4 0 0
30.48 0 0
30.56 0 0
30.64 0 0
30.72 0 0
30.8 0 0
30.88 0 0
30.96 0 0
31.04 0 0
31.12 0 0
31.2 0 0
31.28 0 0
31.36 0 0
31.44 0 0
31.52 0 0
31.6 0 0
31.68 0 0
31.76 0 0
31.84 0 0
31.92 0 0
0 0.005 0
0.08 0.005 0
0.16 0.005 0
0.24 0.005 0
0.32 0.005 0
0.4 0.005 0
0.48 0.005 0
0.56 0.005 0
0.64 0.005 0
0.72 0.005 0
0.8 0.005 0
0.88 0.005 0
0.96 0.005 0
1.04 0.005 0
1.12 0.005 0
1.2 0.005 0
1.28 0.005 0
1.36 0.005 0
1.44 0.005 0
1.52 0.005 0
1.6 0.005 0
1.68 0.005 0
1.76 0.005 0
1.84 0.005 0
1.92 0.005 0
2 0.005 0
2.08 0.005 0
2.16 0.005 0
2.24 0.005 0
2.32 0.005 0
2.4 0.005 0
2.48 0.005 0
2.56 0.005 0
2.64 0.005 0
2.72 0.005 0
2.8 0.005 0
2.88 0.005 0
2.96 0.005 0
3.04 0.005 0
3.12 0.005 0
3.2 0.005 0
3.28 0.005 0
3.36 0.005 0
3.44 0.005 0
3.52 0.005 0
3.6 0.005 0
3.68 0.005 0
3.76 0.005 0
3.84 0.005 0
3.92 0.005 0
4 0.005 0
4.08 0.005 0
4.16 0.005 0
4.24 0.005 0
4.32 0.005 0
4.4 0.005 0
4.48 0.005 0
4.56 0.005 0
4.64 0.005 0
4.72 0.005 0
4.8 0.005 0
4.88 0.005 0
4.96 0.005 0
5.04 0.005 0
5.12 0.005 0
5.2 0.005 0
5.28 0.005 0
5.36 0.005 0
5.44 0.005 0
5.52 0.005 0
5.6 0.005 0
5.68 0.005 0
5.76 0.005 0
5.84 0.005 0
5.92 0.005 0
6 0.005 0
6.08 0.005 0
6.16 0.005 0
6.24 0.005 0
6.32 0.005 0
6.4 0.005 0
6.48 0.005 0
6.56 0.005 0
6.64 0.005 0
6.72 0.005 0
6.8 0.005 0
6.88 0.005 0
6.96 0.005 0
7.04 0.005 0
7.12 0.005 0
7.2 0.005 0
7.28 0.005 0
7.36 0.005 0
7.44 0.005 0
7.52 0.005 0
7.6 0.005 0
7.68 0.005 0
7.76 0.005 0
7.84 0.005 0
7.92 0.005 0
8 0.005 0
8.08 0.005 0
8.16 0.005 0
8.24 0.005 0
8.32 0.005 0
8.4 0.005 0
8.48 0.005 0
8.56 0.005 0
8.64 0.005 0
8.72 0.005 0
8.8 0.005 0
8.88 0.005 0
8.96 0.005 0
9.04 0.005 0
9.12 0.005 0
9.2 0.005 0
9.28 0.005 0
9.36 0.005 0
9.44 0.005 0
9.52 0.005 0
9.6 0.005 0
9.68 0.005 0
9.76 0.005 0
9.84 0.005 0
9.92 0.005 0
10 0.005 0
10.08 0.005 0
10.16 0.005 0
10.24 0.005 0
10.32 0.005 0
10.4 0.005 0
10.48 0.005 0
10.56 0.005 0
10.64 0.005 0
10.72 0.005 0
10.8 0.005 0
10.88 0.005 0
10.96 0.005 0
11.04 0.005 0
11.12 0.005 0
11.2 0.005 0
11.28 0.005 0
11.36 0.005 0
11.44 0.005 0
11.52 0.005 0
11.6 0.005 0
11.68 0.005 0
11.76 0.005 0
11.84 0.005 0
11.92 0.005 0
12 0.005 0
12.08 0.005 0
12.16 0.005 0
12.24 0.005 0
12.32 0.005 0
12.4 0.005 0
12.48 0.005 0
12.56 0.005 0
12.64 0.005 0
12.72 0.005 0
12.8 0.005 0
12.88 0.005 0
12.96 0.005 0
13.04 0.005 0
13.12 0.005 0
13.2 0.005 0
13.28 0.005 0
13.36 0.005 0
13.44 0.005 0
13.52 0.005 0
13.6 0.005 0
13.68 0.005 0
13.76 0.005 0
13.84 0.005 0
13.92 0.005 0
14 0.005 0
14.08 0.005 0
14.16 0.005 0
14.24 0.005 0
14.32 0.005 0
14.4 0.005 0
14.48 0.005 0
14.56 0.005 0
14.64 0.005 0
14.72 0.005 0
14.8 0.005 0
14.88 0.005 0
14.96 0.005 0
15.04 0.005 0
15.12 0.005 0
15.2 0.005 0
15.28 0.005 0
15.36 0.005 0
15.44 0.005 0
15.52 0.005 0
15.6 0.005 0
15.68 0.005 0
15.76 0.005 0
15.84 0.005 0
15.92 0.005 0
16 0.005 0
16.08 0.005 0
16.16 0.005 0
16.24 0.005 0
16.32 0.005 0
16.4 0.005 0
16.48 0.005 0
16.56 0.005 0
16.64 0.005 0
16.72 0.005 0
16.8 0.005 0
16.88 0.005 0
16.96 0.005 0
17.04 0.005 0
17.12 0.005 0
17.2 0.005 0
17.28 0.005 0
17.36 0.005 0
17.44 0.005 0
17.52 0.005 0
17.6 0.005 0
17.68 0.005 0
17.76 0.005 0
17.84 0.005 0
17.92 0.005 0
18 0.005 0
18.08 0.005 0
18.16 0.005 0
18.24 0.005 0
18.32 0.005 0
18.4 0.005 0
18.48 0.005 0
18.56 0.005 0
18.64 0.005 0
18.72 0.005 0
18.8 0.005 0
18.88 0.005 0
18.96 0.005 0
19.04 0.005 0
19.12 0.005 0
19.2 0.005 0
19.28 0.005 0
19.36 0.005 0
19.44 0.005 0
19.52 0.005 0
19.6 0.005 0
19.68 0.005 0
19.76 0.005 0
19.84 0.005 0
19.92 0.005 0
20 0.005 0
20.08 0.005 0
20.16 0.005 0
20.24 0.005 0
20.32 0.005 0
20.4 0.005 0
20.48 0.005 0
20.56 0.005 0
20.64 0.005 0
20.72 0.005 0
20.8 0.005 0
20.88 0.005 0
20.96 0.005 0
21.04 0.005 0
21.12 0.005 0
21.2 0.005 0
21.28 0.005 0
21.36 0.005 0
21.44 0.005 0
21.52 0.005 0
21.6 0.005 0
21.68 0.005 0
21.76 0.005 0
21.84 0.005 0
21.92 0.005 0
22 0.005 0
22.08 0.005 0
22.16 0.005 0
22.24 0.005 0
22.32 0.005 0
22.4 0.005 0
22.48 0.005 0
22.56 0.005 0
22.64 0.005 0
22.72 0.005 0
22.8 0.005 0
22.88 0.005 0
22.96 0.005 0
23.04 0.005 0
23.12 0.005 0
23.2 0.005 0
23.28 0.005 0
23.36 0.005 0
23.44 0.005 0
23.52 0.005 0
23.6 0.005 0
23.68 0.005 0
23.76 0.005 0
23.84 0.005 0
23.92 0.005 0
24 0.005 0
24.08 0.005 0
24.16 0.005 0
24.24 0.005 0
24.32 0.005 0
24.4 0.005 0
24.48 0.005 0
24.56 0.005 0
24.64 0.005 0
24.72 0.005 0
24.8 0.005 0
24.88 0.005 0
24.96 0.005 0
25.04 0.005 0
25.12 0.005 0
25.2 0.005 0
25.28 0.005 0
25.36 0.005 0
25.44 0.005 0
25.52 0.005 0
25.6 0.005 0
25.68 0.005 0
25.76 0.005 0
25.84 0.005 0
25.92 0.005 0
26 0.005 0
26.08 0.005 0
26.16 0.005 0
26.24 0.005 0
26.32 0.005 0
26.4 0.005 0
26.48 0.005 0
26.56 0.005 0
26.64 0.005 0
26.72 0.005 0
26.8 0.005 0
26.88 0.005 0
26.96 0.005 0
27.04 0.005 0
27.12 0.005 0
27.2 0.005 0
27.28 0.005 0
27.36 0.005 0
27.44 0.005 0
27.52 0.005 0
27.6 0.005 0
27.68 0.005 0
27.76 0.005 0
27.84 0.005 0
27.92 0.005 0
28 0.005 0
28.08 0.005 0
28.16 0.005 0
28.24 0.005 0
28.32 0.005 0
28.4 0.005 0
28.48 0.005 0
28.56 0.005 0
28.64 0.005 0
28.72 0.005 0
28.8 0.005 0
28.88 0.005 0
28.96 0.005 0
29.04 0.005 0
29.12 0.005 0
29.2 0.005 0
29.28 0.005 0
29.36 0.005 0
29.44 0.005 0
29.52 0.005 0
29.6 0.005 0
29.68 0.005 0
29.76 0.005 0
29.84 0.005 0
29.92 0.005 0
30 0.005 0
30.08 0.005 0
30.16 0.005 0
30.24 0.005 0
30.32 0.005 0
30.4 0.005 0
30.48 0.005 0
30.56 0.005 0
30.64 0.005 0
30.72 0.005 0
30.8 0.005 0
30.88 0.005 0
30.96 0.005 0
31.04 0.005 0
31.12 0.005 0
31.2 0.005 0
31.28 0.005 0
31.36 0.005 0
31.44 0.005 0
31.52 0.005 0
31.6 0.005 0
31.68 0.005 0
31.76 0.005 0
31.84 0.005 0
31.92 0.005 0
0 0.01 0
0.08 0.01 0
0.16 0.01 0
0.24 0.01 0
0.32 0.01 0
0.4 0.01 0
0.48 0.01 0
0.56 0.01 0
0.64 0.01 0
0.72 0.01 0
0.8 0.01 0
0.88 0.01 0
0.96 0.01 0
1.04 0.01 0
1.12 0.01 0
1.2 0.01 0
1.28 0.01 0
1.36 0.01 0
1.44 0.01 0
1.52 0.01 0
1.6 0.01 0
1.68 0.01 0
1.76 0.01 0
1.84 0.01 0
1.92 0.01 0
2 0.01 0
2.08 0.01 0
2.16 0.01 0
2.24 0.01 0
2.32 0.01 0
2.4 0.01 0
2.48 0.01 0
2.56 0.01 0
2.64 0.01 0
2.72 0.01 0
2.8 0.01 0
2.88 0.01 0
2.96 0.01 0
3.04 0.01 0
3.12 0.01 0
3.2 0.01 0
3.28 0.01 0
3.36 0.01 0
3.44 0.01 0
3.52 0.01 0
3.6 0.01 0
3.68 0.01 0
3.76 0.01 0
3.84 0.01 0
3.92 0.01 0
4 0.01 0
4.08 0.01 0
4.16 0.01 0
4.24 0.01 0
4.32 0.01 0
4.4 0.01 0
4.48 0.01 0
4.56 0.01 0
4.64 0.01 0
4.72 0.01 0
4.8 0.01 0
4.88 0.01 0
4.96 0.01 0
5.04 0.01 0
5.12 0.01 0
[...]
POINT_DATA 80000

SCALARS p float 1
LOOKUP_TABLE default
1
57.0319
56.7302
56.689
56.6689
56.6545
56.6425
56.6317
56.6217
56.6122
56.603
56.5942
56.5855
56.5771
56.5689
56.5609
56.5531
56.5454
56.5379
56.5306
56.5234
56.5164
56.5096
56.503
56.4965
56.4903
56.4842
56.4784
56.4727
56.4673
56.462
56.4568
56.4516
56.4464
56.4412
56.4361
56.431
56.4259
56.421
56.4161
56.4114
56.4066
56.402
56.3973
56.3927
56.3881
56.3835
56.3789
56.3744
56.3697
56.3651
56.3605
56.3559
56.3513
56.3467
56.3421
56.3374
56.3328
56.3282
56.3235
56.3189
56.3142
56.3096
56.3049
56.3003
56.2956
56.2909
56.2862
56.2816
56.2769
56.2722
56.2675
56.2628
56.2581
56.2534
56.2486
56.2439
56.2392
56.2345
56.2297
56.225
56.2202
56.2155
56.2107
56.206
56.2012
56.1964
56.1916
56.1869
56.1821
56.1773
56.1725
56.1677
56.1629
56.158
56.1532
56.1484
56.1436
56.1387
56.1339
56.129
56.1242
56.1193
56.1145
56.1096
56.1048
56.0999
56.095
56.0901
56.0853
56.0804
56.0755
56.0706
56.0657
56.0608
56.0559
56.051
56.0461
56.0412
56.0363
56.0314
56.0264
56.0215
56.0166
56.0117
56.0068
56.0018
55.9969
55.992
55.9871
55.9821
55.9772
55.9723
55.9673
55.9624
55.9575
55.9525
55.9476
55.9427
55.9377
55.9328
55.9279
55.923
55.918
55.9131
55.9082
55.9032
55.8983
55.8934
55.8885
55.8836
55.8786
55.8737
55.8688
55.8639
55.859
55.8541
55.8492
55.8442
55.8393
55.8344
55.8295
55.8246
55.8197
55.8149
55.81
55.8051
55.8002
55.7953
55.7904
55.7855
55.7807
55.7758
55.7709
55.766
55.7612
55.7563
55.7515
55.7466
55.7417
55.7369
55.732
55.7272
55.7223
55.7175
55.7126
55.7078
55.703
55.6981
55.6933
55.6885
55.6836
55.6788
55.674
55.6692
55.6643
55.6595
55.6547
55.6499
55.6451
55.6403
55.6355
55.6306
55.6258
55.621
55.6162
55.6114
55.6066
55.6018
55.597
55.5922
55.5874
55.5826
55.5779
55.5731
55.5683
55.5635
55.5587
55.5539
55.5491
55.5443
55.5396
55.5348
55.53
55.5252
55.5204
55.5156
55.5109
55.5061
55.5013
55.4965
55.4918
55.487
55.4822
55.4774
55.4726
55.4679
55.4631
55.4583
55.4536
55.4488
55.444
55.4392
55.4345
55.4297
55.4249
55.4201
55.4154
55.4106
55.4058
55.4011
55.3963
55.3915
55.3867
55.382
55.3772
55.3724
55.3677
55.3629
55.3581
55.3533
55.3486
55.3438
55.339
55.3342
55.3295
55.3247
55.3199
55.3151
55.3104
55.3056
55.3008
55.2961
55.2913
55.2865
55.2817
55.2769
55.2722
55.2674
55.2626
55.2578
55.2531
55.2483
55.2435
55.2387
55.2339
55.2292
55.2244
55.2196
55.2148
55.21
55.2053
55.2005
55.1957
55.1909
55.1861
55.1813
55.1765
55.1718
55.167
55.1622
55.1574
55.1526
55.1478
55.143
55.1382
55.1335
55.1287
55.1239
55.1191
55.1143
55.1095
55.1047
55.0999
55.0951
55.0903
55.0855
55.0807
55.0759
55.0711
55.0663
55.0615
55.0567
55.0519
55.0471
55.0423
55.0375
55.0327
55.0279
55.0231
55.0183
55.0134
55.0086
55.0038
54.999
54.9942
54.9894
54.9846
54.9798
54.9749
54.9701
54.9653
54.9605
54.9557
54.9508
54.946
54.9412
54.9364
54.9316
54.9267
54.9219
54.9171
54.9122
54.9074
54.9026
54.8978
54.8929
54.8881
54.8833
54.8784
54.8736
54.8688
54.8639
54.8591
54.8542
54.8494
54.8445
54.8397
54.8349
54.83
54.8252
54.8203
54.8155
54.8106
54.8058
54.8009
54.7961
54.7912
54.7864
54.7815
54.7766
54.7718
54.7669
54.7621
54.7572
54.7523
54.7475
54.7426
54.7377
54.7329
54.728
54.7231
54.7182
54.7134
54.7085
54.7036
54.6987
54.6938
54.689
0.5
57.0319
57.0319
56.7302
56.689
56.6689
56.6545
56.6425
56.6317
56.6217
56.6122
56.603
56.5942
56.5855
56.5771
56.5689
56.5609
56.5531
56.5454
56.5379
56.5306
56.5234
56.5164
56.5096
56.503
56.4965
56.4903
56.4842
56.4784
56.4727
56.4673
56.462
56.4568
56.4516
56.4464
56.4412
56.4361
56.431
56.4259
56.421
56.4161
56.4114
56.4066
56.402
56.3973
56.3927
56.3881
56.3835
56.3789
56.3744
56.3697
56.3651
56.3605
56.3559
56.3513
56.3467
56.3421
56.3374
56.3328
56.3282
56.3235
56.3189
56.3142
56.3096
56.3049
56.3003
56.2956
56.2909
56.2862
56.2816
56.2769
56.2722
56.2675
56.2628
56.2581
56.2534
56.2486
56.2439
56.2392
56.2345
56.2297
56.225
56.2202
56.2155
56.2107
56.206
56.2012
56.1964
56.1916
56.1869
56.1821
56.1773
56.1725
56.1677
56.1629
56.158
56.1532
56.1484
56.1436
56.1387
56.1339
56.129
56.1242
56.1193
56.1145
56.1096
56.1048
56.0999
56.095
56.0901
56.0853
56.0804
56.0755
56.0706
56.0657
56.0608
56.0559
56.051
56.0461
56.0412
56.0363
56.0314
56.0264
56.0215
56.0166
56.0117
56.0068
56.0018
55.9969
55.992
55.9871
55.9821
55.9772
55.9723
55.9673
55.9624
55.9575
55.9525
55.9476
55.9427
55.9377
55.9328
55.9279
55.923
55.918
55.9131
55.9082
55.9032
55.8983
55.8934
55.8885
55.8836
55.8786
55.8737
55.8688
55.8639
55.859
55.8541
55.8492
55.8442
55.8393
55.8344
55.8295
55.8246
55.8197
55.8149
55.81
55.8051
55.8002
55.7953
55.7904
55.7855
55.7807
55.7758
55.7709
55.766
55.7612
55.7563
55.7515
55.7466
55.7417
55.7369
55.732
55.7272
55.7223
55.7175
55.7126
55.7078
55.703
55.6981
55.6933
55.6885
55.6836
55.6788
55.674
55.6692
55.6643
55.6595
55.6547
55.6499
55.6451
55.6403
55.6355
55.6306
55.6258
55.621
55.6162
55.6114
55.6066
55.6018
55.597
55.5922
55.5874
55.5826
55.5779
55.5731
55.5683
55.5635
55.5587
55.5539
55.5491
55.5443
55.5396
55.5348
55.53
55.5252
55.5204
55.5156
55.5109
55.5061
55.5013
55.4965
55.4918
55.487
55.4822
55.4774
55.4726
55.4679
55.4631
55.4583
55.4536
55.4488
55.444
55.4392
55.4345
55.4297
55.4249
55.4201
55.4154
55.4106
55.4058
55.4011
55.3963
55.3915
55.3867
55.382
55.3772
55.3724
55.3677
55.3629
55.3581
55.3533
55.3486
55.3438
55.339
55.3342
55.3295
55.3247
55.3199
55.3151
55.3104
55.3056
55.3008
55.2961
55.2913
55.2865
55.2817
55.2769
55.2722
55.2674
55.2626
55.2578
55.2531
55.2483
55.2435
55.2387
55.2339
55.2292
55.2244
55.2196
55.2148
55.21
55.2053
55.2005
55.1957
55.1909
55.1861
55.1813
55.1765
55.1718
55.167
55.1622
55.1574
55.1526
55.1478
55.143
55.1382
55.1335
55.1287
55.1239
55.1191
55.1143
55.1095
55.1047
55.0999
55.0951
55.0903
55.0855
55.0807
55.0759
55.0711
55.0663
55.0615
55.0567
55.0519
55.0471
55.0423
55.0375
55.0327
55.0279
55.0231
55.0183
55.0134
55.0086
55.0038
54.999
54.9942
54.9894
54.9846
54.9798
54.9749
54.9701
54.9653
54.9605
54.9557
54.9508
54.946
54.9412
54.9364
54.9316
54.9267
54.9219
54.9171
54.9122
54.9074
54.9026
54.8978
54.8929
54.8881
54.8833
54.8784
54.8736
54.8688
54.8639
54.8591
54.8542
54.8494
54.8445
54.8397
54.8349
54.83
54.8252
54.8203
54.8155
54.8106
54.8058
54.8009
54.7961
54.7912
54.7864
54.7815
54.7766
54.7718
54.7669
54.7621
54.7572
54.7523
54.7475
54.7426
54.7377
54.7329
54.728
54.7231
54.7182
54.7134
54.7085
54.7036
54.6987
54.6938
54.689
54.689
57.0173
57.0173
56.734
56.6903
56.6695
56.6549
56.6427
56.6319
56.6219
56.6123
56.6031
56.5942
56.5856
56.5772
56.569
56.5609
56.5531
56.5454
56.5379
56.5306
56.5234
56.5165
56.5096
56.503
56.4965
56.4903
56.4842
56.4784
56.4727
56.4673
56.462
56.4568
56.4516
56.4464
56.4412
56.4361
56.431
56.4259
56.421
56.4161
56.4114
56.4066
56.402
56.3973
56.3927
56.3881
56.3835
56.3789
56.3744
56.3697
56.3651
56.3605
56.3559
56.3513
56.3467
56.3421
56.3374
56.3328
56.3282
56.3235
56.3189
56.3142
56.3096
56.3049
56.3003
56.2956
56.2909
56.2862
56.2816
56.2769
56.2722
56.2675
56.2628
56.2581
56.2534
56.2486
56.2439
56.2392
56.2345
56.2297
56.225
56.2202
56.2155
56.2107
56.206
56.2012
56.1964
56.1916
56.1869
56.1821
56.1773
56.1725
56.1677
56.1629
56.158
56.1532
56.1484
56.1436
56.1387
56.1339
56.129
56.1242
56.1193
56.1145
56.1096
56.1048
56.0999
56.095
56.0901
56.0853
56.0804
56.0755
56.0706
56.0657
56.0608
56.0559
56.051
56.0461
56.0412
56.0363
56.0314
56.0264
56.0215
56.0166
56.0117
56.0068
56.0018
55.9969
55.992
55.9871
55.9821
55.9772
55.9723
55.9673
55.9624
55.9575
55.9525
55.9476
55.9427
55.9377
55.9328
55.9279
55.923
55.918
55.9131
55.9082
55.9032
55.8983
55.8934
55.8885
55.8835
55.8786
55.8737
55.8688
55.8639
55.859
55.8541
55.8492
55.8442
55.8393
55.8344
55.8295
55.8246
55.8197
55.8148
55.81
55.8051
55.8002
55.7953
55.7904
55.7855
55.7807
55.7758
55.7709
55.766
55.7612
55.7563
55.7515
55.7466
55.7417
55.7369
55.732
55.7272
55.7223
55.7175
55.7126
55.7078
55.703
55.6981
55.6933
55.6885
55.6836
55.6788
55.674
55.6692
55.6643
55.6595
55.6547
55.6499
55.6451
55.6403
55.6355
55.6306
55.6258
55.621
55.6162
55.6114
55.6066
55.6018
55.597
55.5922
55.5874
55.5826
55.5779
55.5731
55.5683
55.5635
55.5587
55.5539
55.5491
55.5443
55.5396
55.5348
55.53
55.5252
55.5204
55.5156
55.5109
55.5061
55.5013
55.4965
55.4918
55.487
55.4822
55.4774
55.4726
55.4679
55.4631
55.4583
55.4536
55.4488
55.444
55.4392
55.4345
55.4297
55.4249
55.4201
55.4154
55.4106
55.4058
55.4011
55.3963
55.3915
55.3867
55.382
55.3772
55.3724
55.3677
55.3629
55.3581
55.3533
55.3486
55.3438
55.339
55.3342
55.3295
55.3247
55.3199
55.3151
55.3104
55.3056
55.3008
55.2961
55.2913
55.2865
55.2817
55.2769
55.2722
55.2674
55.2626
55.2578
55.2531
55.2483
55.2435
55.2387
55.2339
55.2292
55.2244
55.2196
55.2148
55.21
55.2053
55.2005
55.1957
55.1909
55.1861
55.1813
55.1765
55.1718
55.167
55.1622
55.1574
55.1526
55.1478
55.143
55.1382
55.1335
55.1287
55.1239
55.1191
55.1143
55.1095
55.1047
55.0999
55.0951
55.0903
55.0855
55.0807
55.0759
55.0711
55.0663
55.0615
55.0567
55.0519
55.0471
55.0423
55.0375
55.0327
55.0279
55.0231
55.0183
55.0134
55.0086
55.0038
54.999
54.9942
54.9894
54.9846
54.9798
54.9749
54.9701
54.9653
54.9605
54.9557
54.9508
54.946
54.9412
54.9364
54.9316
54.9267
54.9219
54.9171
54.9122
54.9074
54.9026
54.8978
54.8929
54.8881
54.8833
54.8784
54.8736
54.8688
54.8639
54.8591
54.8542
54.8494
54.8445
54.8397
54.8349
54.83
54.8252
54.8203
54.8155
54.8106
54.8058
54.8009
54.7961
54.7912
54.7864
54.7815
54.7766
54.7718
54.7669
54.7621
54.7572
54.7523
54.7475
54.7426
54.7377
54.7329
54.728
54.7231
54.7182
54.7134
54.7085
54.7036
54.6987
54.6938
54.689
54.689
57.0013
57.0013
56.7372
56.6914
56.6701
56.6553
56.643
56.6321
56.622
56.6124
56.6032
56.5943
56.5857
56.5772
56.569
56.561
56.5531
56.5455
56.538
56.5306
56.5235
56.5165
56.5097
56.503
56.4966
56.4903
56.4842
56.4784
56.4727
56.4673
56.462
56.4568
56.4516
56.4464
56.4412
56.4361
56.431
56.4259
56.421
56.4161
56.4114
56.4066
56.402
56.3973
56.3927
56.3881
56.3835
56.3789
56.3743
56.3697
56.3651
56.3605
56.3559
56.3513
56.3467
56.3421
56.3374
56.3328
56.3282
56.3235
56.3189
56.3142
56.3096
56.3049
56.3003
56.2956
56.2909
56.2862
56.2816
56.2769
56.2722
56.2675
56.2628
56.2581
56.2534
56.2486
56.2439
56.2392
56.2345
56.2297
56.225
56.2202
56.2155
56.2107
56.206
56.2012
56.1964
56.1916
56.1869
56.1821
56.1773
56.1725
56.1677
56.1629
56.158
56.1532
56.1484
56.1436
56.1387
56.1339
56.129
56.1242
56.1193
56.1145
56.1096
56.1048
56.0999
56.095
56.0901
56.0853
56.0804
56.0755
56.0706
56.0657
56.0608
56.0559
56.051
56.0461
56.0412
56.0363
56.0314
56.0264
56.0215
56.0166
56.0117
56.0068
56.0018
55.9969
55.992
55.9871
55.9821
55.9772
55.9723
55.9673
55.9624
55.9575
55.9525
55.9476
55.9427
55.9377
55.9328
55.9279
55.923
55.918
55.9131
55.9082
55.9032
55.8983
55.8934
55.8885
55.8835
55.8786
55.8737
55.8688
55.8639
55.859
55.8541
55.8492
55.8442
55.8393
55.8344
55.8295
55.8246
55.8197
55.8148
55.81
55.8051
55.8002
55.7953
55.7904
55.7855
55.7807
55.7758
55.7709
55.766
55.7612
55.7563
55.7515
55.7466
55.7417
55.7369
55.732
55.7272
55.7223
55.7175
55.7126
55.7078
55.703
55.6981
55.6933
55.6885
55.6836
55.6788
55.674
55.6692
55.6643
55.6595
55.6547
55.6499
55.6451
55.6403
55.6355
55.6306
55.6258
55.621
55.6162
55.6114
55.6066
55.6018
55.597
55.5922
55.5874
55.5826
55.5779
55.5731
55.5683
55.5635
55.5587
55.5539
55.5491
55.5443
55.5396
55.5348
55.53
55.5252
55.5204
55.5156
55.5109
55.5061
55.5013
55.4965
55.4918
55.487
55.4822
55.4774
55.4726
55.4679
55.4631
55.4583
55.4535
55.4488
55.444
55.4392
55.4345
55.4297
55.4249
55.4201
55.4154
55.4106
55.4058
55.4011
55.3963
55.3915
55.3867
55.382
55.3772
55.3724
55.3676
55.3629
55.3581
55.3533
55.3486
55.3438
55.339
55.3342
55.3295
55.3247
55.3199
55.3151
55.3104
55.3056
55.3008
55.2961
55.2913
55.2865
55.2817
55.2769
55.2722
55.2674
55.2626
55.2578
55.2531
55.2483
55.2435
55.2387
55.2339
55.2292
55.2244
55.2196
55.2148
55.21
55.2053
55.2005
55.1957
55.1909
55.1861
55.1813
55.1765
55.1718
55.167
55.1622
55.1574
55.1526
55.1478
55.143
55.1382
55.1334
55.1287
55.1239
55.1191
55.1143
55.1095
55.1047
55.0999
55.0951
55.0903
55.0855
55.0807
55.0759
55.0711
55.0663
55.0615
55.0567
55.0519
55.0471
55.0423
55.0375
55.0327
55.0279
55.0231
55.0183
55.0134
55.0086
55.0038
54.999
54.9942
54.9894
54.9846
54.9798
54.9749
54.9701
54.9653
54.9605
54.9557
54.9508
54.946
54.9412
54.9364
54.9316
54.9267
54.9219
54.9171
54.9122
54.9074
54.9026
54.8978
54.8929
54.8881
54.8833
54.8784
54.8736
54.8688
54.8639
54.8591
54.8542
54.8494
54.8445
54.8397
54.8349
54.83
54.8252
54.8203
54.8155
54.8106
54.8058
54.8009
54.7961
54.7912
54.7864
54.7815
54.7766
54.7718
54.7669
54.7621
54.7572
54.7523
54.7475
54.7426
54.7377
54.7329
54.728
54.7231
54.7182
54.7134
54.7085
54.7036
54.6987
54.6938
54.689
54.689
56.9854
56.9854
56.7401
56.6926
56.6708
56.6556
56.6433
56.6323
56.6222
56.6125
56.6033
56.5944
56.5857
56.5773
56.5691
56.561
56.5532
56.5455
56.538
56.5307
56.5235
56.5165
56.5097
56.503
56.4966
56.4903
56.4842
56.4784
56.4728
56.4673
56.462
56.4568
56.4516
56.4464
56.4412
56.4361
56.431
56.4259
56.421
56.4161
56.4114
56.4066
56.402
56.3973
56.3927
56.3881
56.3835
56.3789
56.3743
56.3697
56.3651
56.3605
56.3559
56.3513
56.3467
56.3421
56.3374
56.3328
56.3282
56.3235
56.3189
56.3142
56.3096
56.3049
56.3003
56.2956
56.2909
56.2862
56.2816
56.2769
56.2722
56.2675
56.2628
56.2581
56.2534
56.2486
56.2439
56.2392
56.2345
56.2297
56.225
56.2202
56.2155
56.2107
56.206
56.2012
56.1964
56.1916
56.1869
56.1821
56.1773
56.1725
56.1677
56.1629
56.158
56.1532
56.1484
56.1436
56.1387
56.1339
56.129
56.1242
56.1193
56.1145
56.1096
56.1048
56.0999
56.095
56.0901
56.0853
56.0804
56.0755
56.0706
56.0657
56.0608
56.0559
56.051
56.0461
56.0412
56.0363
56.0314
56.0264
56.0215
56.0166
56.0117
56.0068
56.0018
55.9969
55.992
55.9871
55.9821
55.9772
55.9723
55.9673
55.9624
55.9575
55.9525
55.9476
55.9427
55.9377
55.9328
55.9279
55.923
55.918
55.9131
55.9082
55.9032
55.8983
55.8934
55.8885
55.8835
55.8786
55.8737
55.8688
55.8639
55.859
55.8541
55.8491
55.8442
55.8393
55.8344
55.8295
55.8246
55.8197
55.8148
55.81
55.8051
55.8002
55.7953
55.7904
55.7855
55.7807
55.7758
55.7709
55.766
55.7612
55.7563
55.7515
55.7466
55.7417
55.7369
55.732
55.7272
55.7223
55.7175
55.7126
55.7078
55.703
55.6981
55.6933
55.6885
55.6836
55.6788
55.674
55.6692
55.6643
55.6595
55.6547
55.6499
55.6451
55.6403
55.6355
55.6306
55.6258
55.621
55.6162
55.6114
55.6066
55.6018
55.597
55.5922
55.5874
55.5826
55.5779
55.5731
55.5683
55.5635
55.5587
55.5539
55.5491
55.5443
55.5396
55.5348
55.53
55.5252
55.5204
55.5156
55.5109
55.5061
55.5013
55.4965
55.4918
55.487
55.4822
55.4774
55.4726
55.4679
55.4631
55.4583
55.4535
55.4488
55.444
55.4392
55.4345
55.4297
55.4249
55.4201
55.4154
55.4106
55.4058
55.4011
55.3963
55.3915
55.3867
55.382
55.3772
55.3724
55.3676
55.3629
55.3581
55.3533
55.3486
55.3438
55.339
55.3342
55.3295
55.3247
55.3199
55.3151
55.3104
55.3056
55.3008
55.2961
55.2913
55.2865
55.2817
55.2769
55.2722
55.2674
55.2626
55.2578
55.2531
55.2483
55.2435
55.2387
55.2339
55.2292
55.2244
55.2196
55.2148
55.21
55.2053
55.2005
55.1957
55.1909
55.1861
55.1813
55.1765
55.1718
55.167
55.1622
55.1574
55.1526
55.1478
55.143
55.1382
55.1334
55.1287
55.1239
55.1191
55.1143
55.1095
55.1047
55.0999
55.0951
55.0903
55.0855
55.0807
55.0759
55.0711
55.0663
55.0615
55.0567
55.0519
55.0471
55.0423
55.0375
55.0327
55.0279
55.0231
55.0183
55.0134
55.0086
55.0038
54.999
54.9942
54.9894
54.9846
54.9798
54.9749
54.9701
54.9653
54.9605
54.9557
54.9508
54.946
54.9412
54.9364
54.9316
54.9267
54.9219
54.9171
54.9122
54.9074
54.9026
54.8978
54.8929
54.8881
54.8833
54.8784
54.8736
54.8687
54.8639
54.8591
54.8542
54.8494
54.8445
54.8397
54.8349
54.83
54.8252
54.8203
54.8155
54.8106
54.8058
54.8009
54.7961
54.7912
54.7864
54.7815
54.7766
54.7718
54.7669
54.7621
54.7572
54.7523
54.7475
54.7426
54.7377
54.7329
54.728
54.7231
54.7182
54.7134
54.7085
54.7036
54.6987
54.6938
54.689
54.689
56.9703
56.9703
56.7428
56.6937
56.6713
56.656
56.6435
56.6325
56.6223
56.6127
56.6034
56.5945
56.5858
56.5774
56.5691
56.5611
56.5532
56.5455
56.538
56.5307
56.5235
56.5165
56.5097
56.5031
56.4966
56.4903
56.4842
56.4784
56.4728
56.4673
56.462
56.4568
56.4516
56.4464
56.4412
56.4361
56.431
56.4259
56.421
56.4161
56.4114
56.4066
56.402
56.3973
56.3927
56.3881
56.3835
56.3789
56.3743
56.3697
56.3651
56.3605
56.3559
56.3513
56.3467
56.3421
56.3374
56.3328
56.3282
56.3235
56.3189
56.3142
56.3096
56.3049
56.3003
56.2956
56.2909
56.2862
56.2816
56.2769
56.2722
56.2675
56.2628
56.2581
56.2534
56.2486
56.2439
56.2392
56.2345
56.2297
56.225
56.2202
56.2155
56.2107
56.206
56.2012
56.1964
56.1916
56.1869
56.1821
56.1773
56.1725
56.1677
56.1629
56.158
56.1532
56.1484
56.1436
56.1387
56.1339
56.129
56.1242
56.1193
56.1145
56.1096
56.1048
56.0999
56.095
56.0901
56.0853
56.0804
56.0755
56.0706
56.0657
56.0608
56.0559
56.051
56.0461
56.0412
56.0363
56.0314
56.0264
56.0215
56.0166
56.0117
56.0068
56.0018
55.9969
55.992
55.9871
55.9821
55.9772
55.9723
55.9673
55.9624
55.9575
55.9525
55.9476
55.9427
55.9377
55.9328
55.9279
55.923
55.918
55.9131
55.9082
55.9032
55.8983
55.8934
55.8885
55.8835
55.8786
55.8737
55.8688
55.8639
55.859
55.8541
55.8491
55.8442
55.8393
55.8344
55.8295
55.8246
55.8197
55.8148
55.81
55.8051
55.8002
55.7953
55.7904
55.7855
55.7807
55.7758
55.7709
55.766
55.7612
55.7563
55.7515
55.7466
55.7417
55.7369
55.732
55.7272
55.7223
55.7175
55.7126
55.7078
55.703
55.6981
55.6933
55.6885
55.6836
55.6788
55.674
55.6692
55.6643
55.6595
55.6547
55.6499
55.6451
55.6403
55.6355
55.6306
55.6258
55.621
55.6162
55.6114
55.6066
55.6018
55.597
55.5922
55.5874
55.5826
55.5779
55.5731
55.5683
55.5635
55.5587
55.5539
55.5491
55.5443
55.5395
55.5348
55.53
55.5252
55.5204
55.5156
55.5109
55.5061
55.5013
55.4965
55.4917
55.487
55.4822
55.4774
55.4726
55.4679
55.4631
55.4583
55.4535
55.4488
55.444
55.4392
55.4345
55.4297
55.4249
55.4201
55.4154
55.4106
55.4058
55.4011
55.3963
55.3915
55.3867
55.382
55.3772
55.3724
55.3676
55.3629
55.3581
55.3533
55.3486
55.3438
55.339
55.3342
55.3295
55.3247
55.3199
55.3151
55.3104
55.3056
55.3008
55.2961
55.2913
55.2865
55.2817
55.2769
55.2722
55.2674
55.2626
55.2578
55.2531
55.2483
55.2435
55.2387
55.2339
55.2292
55.2244
55.2196
55.2148
55.21
55.2053
55.2005
55.1957
55.1909
55.1861
55.1813
55.1765
55.1718
55.167
55.1622
55.1574
55.1526
55.1478
55.143
55.1382
55.1334
55.1287
55.1239
55.1191
55.1143
55.1095
55.1047
55.0999
55.0951
55.0903
55.0855
55.0807
55.0759
55.0711
55.0663
55.0615
55.0567
55.0519
55.0471
55.0423
55.0375
55.0327
55.0279
55.0231
55.0183
55.0134
55.0086
55.0038
54.999
54.9942
54.9894
54.9846
54.9798
54.9749
54.9701
54.9653
54.9605
54.9557
54.9508
54.946
54.9412
54.9364
54.9316
54.9267
54.9219
54.9171
54.9122
54.9074
54.9026
54.8978
54.8929
54.8881
54.8833
54.8784
54.8736
54.8687
54.8639
54.8591
54.8542
54.8494
54.8445
54.8397
54.8349
54.83
54.8252
54.8203
54.8155
54.8106
54.8058
54.8009
54.7961
54.7912
54.7864
54.7815
54.7766
54.7718
54.7669
54.7621
54.7572
54.7523
54.7475
54.7426
54.7377
54.7329
54.728
54.7231
54.7182
54.7134
54.7085
54.7036
54.6987
54.6938
54.689
54.689
56.9563
56.9563
56.7454
56.6948
56.6719
56.6564
56.6438
56.6327
56.6225
56.6128
56.6035
56.5946
56.5859
56.5774
56.5692
56.5611
56.5533
56.5456
56.5381
56.5307
56.5235
56.5165
56.5097
56.5031
56.4966
56.4903
56.4843
56.4784
56.4728
56.4673
56.462
56.4568
56.4516
56.4464
56.4412
56.4361
56.431
56.4259
56.421
56.4161
56.4114
56.4066
56.402
56.3973
56.3927
56.3881
56.3835
56.3789
56.3743
56.3697
56.3651
56.3605
56.3559
56.3513
56.3467
56.3421
56.3374
56.3328
56.3282
56.3235
56.3189
56.3142
56.3096
56.3049
56.3003
56.2956
56.2909
56.2862
56.2816
56.2769
56.2722
56.2675
56.2628
56.2581
56.2534
56.2486
56.2439
56.2392
56.2345
56.2297
56.225
56.2202
56.2155
56.2107
56.206
56.2012
56.1964
56.1916
56.1869
56.1821
56.1773
56.1725
56.1677
56.1628
56.158
56.1532
56.1484
56.1436
56.1387
56.1339
56.129
56.1242
56.1193
56.1145
56.1096
56.1048
56.0999
56.095
56.0901
56.0853
56.0804
56.0755
56.0706
56.0657
56.0608
56.0559
56.051
56.0461
56.0412
56.0363
56.0314
56.0264
56.0215
56.0166
56.0117
56.0068
56.0018