# vtk DataFile Version 2.0
FlowField
ASCII
DATASET STRUCTURED_GRID
DIMENSIONS 400 1 200
POINTS 80000 float
0 0 0
0.08 0 0
0.16 0 0
0.24 0 0
0.32 0 0
0.4 0 0
0.48 0 0
0.56 0 0
0.64 0 0
0.72 0 0
0.8 0 0
0.88 0 0
0.96 0 0
1.04 0 0
1.12 0 0
1.2 0 0
1.28 0 0
1.36 0 0
1.44 0 0
1.52 0 0
1.6 0 0
1.68 0 0
1.76 0 0
1.84 0 0
1.92 0 0
2 0 0
2.08 0 0
2.16 0 0
2.24 0 0
2.32 0 0
2.4 0 0
2.48 0 0
2.56 0 0
2.64 0 0
2.72 0 0
2.8 0 0
2.88 0 0
2.96 0 0
3.04 0 0
3.12 0 0
3.2 0 0
3.28 0 0
3.36 0 0
3.44 0 0
3.52 0 0
3.6 0 0
3.68 0 0
3.76 0 0
3.84 0 0
3.92 0 0
4 0 0
4.08 0 0
4.16 0 0
4.24 0 0
4.32 0 0
4.4 0 0
4.48 0 0
4.56 0 0
4.64 0 0
4.72 0 0
4.8 0 0
4.88 0 0
4.96 0 0
5.04 0 0
5.12 0 0
5.2 0 0
5.28 0 0
5.36 0 0
5.44 0 0
5.52 0 0
5.6 0 0
5.68 0 0
5.76 0 0
5.84 0 0
5.92 0 0
6 0 0
6.08 0 0
6.16 0 0
6.24 0 0
6.32 0 0
6.4 0 0
6.48 0 0
6.56 0 0
6.64 0 0
6.72 0 0
6.8 0 0
6.88 0 0
6.96 0 0
7.04 0 0
7.12 0 0
7.2 0 0
7.28 0 0
7.36 0 0
7.44 0 0
7.52 0 0
7.6 0 0
7.68 0 0
7.76 0 0
7.84 0 0
7.92 0 0
8 0 0
8.08 0 0
8.16 0 0
8.24 0 0
8.32 0 0
8.4 0 0
8.48 0 0
8.56 0 0
8.64 0 0
8.72 0 0
8.8 0 0
8.88 0 0
8.96 0 0
9.04 0 0
9.12 0 0
9.2 0 0
9.28 0 0
9.36 0 0
9.44 0 0
9.52 0 0
9.6 0 0
9.68 0 0
9.76 0 0
9.84 0 0
9.92 0 0
10 0 0
10.08 0 0
10.16 0 0
10.24 0 0
10.32 0 0
10.4 0 0
10.48 0 0
10.56 0 0
10.64 0 0
10.72 0 0
10.8 0 0
10.88 0 0
10.96 0 0
11.04 0 0
11.12 0 0
11.2 0 0
11.28 0 0
11.36 0 0
11.44 0 0
11.52 0 0
11.6 0 0
11.68 0 0
11.76 0 0
11.84 0 0
11.92 0 0
12 0 0
12.08 0 0
12.16 0 0
12.24 0 0
12.32 0 0
12.4 0 0
12.48 0 0
12.56 0 0
12.64 0 0
12.72 0 0
12.8 0 0
12.88 0 0
12.96 0 0
13.04 0 0
13.12 0 0
13.2 0 0
13.28 0 0
13.36 0 0
13.44 0 0
13.52 0 0
13.6 0 0
13.68 0 0
13.76 0 0
13.84 0 0
13.92 0 0
14 0 0
14.08 0 0
14.16 0 0
14.24 0 0
14.32 0 0
14.4 0 0
14.48 0 0
14.56 0 0
14.64 0 0
14.72 0 0
14.8 0 0
14.88 0 0
14.96 0 0
15.04 0 0
15.12 0 0
15.2 0 0
15.28 0 0
15.36 0 0
15.44 0 0
15.52 0 0
15.6 0 0
15.68 0 0
15.76 0 0
15.84 0 0
15.92 0 0
16 0 0
16.08 0 0
16.16 0 0
16.24 0 0
16.32 0 0
16.4 0 0
16.48 0 0
16.56 0 0
16.64 0 0
16.72 0 0
16.8 0 0
16.88 0 0
16.96 0 0
17.04 0 0
17.12 0 0
17.2 0 0
17.28 0 0
17.36 0 0
17.44 0 0
17.52 0 0
17.6 0 0
17.68 0 0
17.76 0 0
17.84 0 0
17.92 0 0
18 0 0
18.08 0 0
18.16 0 0
18.24 0 0
18.32 0 0
18.4 0 0
18.48 0 0
18.56 0 0
18.64 0 0
18.72 0 0
18.8 0 0
18.88 0 0
18.96 0 0
19.04 0 0
19.12 0 0
19.2 0 0
19.28 0 0
19.36 0 0
19.44 0 0
19.52 0 0
19.6 0 0
19.68 0 0
19.76 0 0
19.84 0 0
19.92 0 0
20 0 0
20.08 0 0
20.16 0 0
20.24 0 0
20.32 0 0
20.4 0 0
20.48 0 0
20.56 0 0
20.64 0 0
20.72 0 0
20.8 0 0
20.88 0 0
20.96 0 0
21.04 0 0
21.12 0 0
21.2 0 0
21.28 0 0
21.36 0 0
21.44 0 0
21.52 0 0
21.6 0 0
21.68 0 0
21.76 0 0
21.84 0 0
21.92 0 0
22 0 0
22.08 0 0
22.16 0 0
22.24 0 0
22.32 0 0
22.4 0 0
22.48 0 0
22.56 0 0
22.64 0 0
22.72 0 0
22.8 0 0
22.88 0 0
22.96 0 0
23.04 0 0
23.12 0 0
23.2 0 0
23.28 0 0
23.36 0 0
23.44 0 0
23.52 0 0
23.6 0 0
23.68 0 0
23.76 0 0
23.84 0 0
23.92 0 0
24 0 0
24.08 0 0
24.16 0 0
24.24 0 0
24.32 0 0
24.4 0 0
24.48 0 0
24.56 0 0
24.64 0 0
24.72 0 0
24.8 0 0
24.88 0 0
24.96 0 0
25.04 0 0
25.12 0 0
25.2 0 0
25.28 0 0
25.36 0 0
25.44 0 0
25.52 0 0
25.6 0 0
25.68 0 0
25.76 0 0
25.84 0 0
25.92 0 0
26 0 0
26.08 0 0
26.16 0 0
26.24 0 0
26.32 0 0
26.4 0 0
26.48 0 0
26.56 0 0
26.64 0 0
26.72 0 0
26.8 0 0
26.88 0 0
26.96 0 0
27.04 0 0
27.12 0 0
27.2 0 0
27.28 0 0
27.36 0 0
27.44 0 0
27.52 0 0
27.6 0 0
27.68 0 0
27.76 0 0
27.84 0 0
27.92 0 0
28 0 0
28.08 0 0
28.16 0 0
28.24 0 0
28.32 0 0
28.4 0 0
28.48 0 0
28.56 0 0
28.64 0 0
28.72 0 0
28.8 0 0
28.88 0 0
28.96 0 0
29.04 0 0
29.12 0 0
29.2 0 0
29.28 0 0
29.36 0 0
29.44 0 0
29.52 0 0
29.6 0 0
29.68 0 0
29.76 0 0
29.84 0 0
29.92 0 0
30 0 0
30.08 0 0
30.16 0 0
30.24 0 0
30.32 0 0
30.4 0 0
30.48 0 0
30.56 0 0
30.64 0 0
30.72 0 0
30.8 0 0
30.88 0 0
30.96 0 0
31.04 0 0
31.12 0 0
31.2 0 0
31.28 0 0
31.36 0 0
31.44 0 0
31.52 0 0
31.6 0 0
31.68 0 0
31.76 0 0
31.84 0 0
31.92 0 0
0 0.005 0
0.08 0.005 0
0.16 0.005 0
0.24 0.005 0
0.32 0.005 0
0.4 0.005 0
0.48 0.005 0
0.56 0.005 0
0.64 0.005 0
0.72 0.005 0
0.8 0.005 0
0.88 0.005 0
0.96 0.005 0
1.04 0.005 0
1.12 0.005 0
1.2 0.005 0
1.28 0.005 0
1.36 0.005 0
1.44 0.005 0
1.52 0.005 0
1.6 0.005 0
1.68 0.005 0
1.76 0.005 0
1.84 0.005 0
1.92 0.005 0
2 0.005 0
2.08 0.005 0
2.16 0.005 0
2.24 0.005 0
2.32 0.005 0
2.4 0.005 0
2.48 0.005 0
2.56 0.005 0
2.64 0.005 0
2.72 0.005 0
2.8 0.005 0
2.88 0.005 0
2.96 0.005 0
3.04 0.005 0
3.12 0.005 0
3.2 0.005 0
3.28 0.005 0
3.36 0.005 0
3.44 0.005 0
3.52 0.005 0
3.6 0.005 0
3.68 0.005 0
3.76 0.005 0
3.84 0.005 0
3.92 0.005 0
4 0.005 0
4.08 0.005 0
4.16 0.005 0
4.24 0.005 0
4.32 0.005 0
4.4 0.005 0
4.48 0.005 0
4.56 0.005 0
4.64 0.005 0
4.72 0.005 0
4.8 0.005 0
4.88 0.005 0
4.96 0.005 0
5.04 0.005 0
5.12 0.005 0
5.2 0.005 0
5.28 0.005 0
5.36 0.005 0
5.44 0.005 0
5.52 0.005 0
5.6 0.005 0
5.68 0.005 0
5.76 0.005 0
5.84 0.005 0
5.92 0.005 0
6 0.005 0
6.08 0.005 0
6.16 0.005 0
6.24 0.005 0
6.32 0.005 0
6.4 0.005 0
6.48 0.005 0
6.56 0.005 0
6.64 0.005 0
6.72 0.005 0
6.8 0.005 0
6.88 0.005 0
6.96 0.005 0
7.04 0.005 0
7.12 0.005 0
7.2 0.005 0
7.28 0.005 0
7.36 0.005 0
7.44 0.005 0
7.52 0.005 0
7.6 0.005 0
7.68 0.005 0
7.76 0.005 0
7.84 0.005 0
7.92 0.005 0
8 0.005 0
8.08 0.005 0
8.16 0.005 0
8.24 0.005 0
8.32 0.005 0
8.4 0.005 0
8.48 0.005 0
8.56 0.005 0
8.64 0.005 0
8.72 0.005 0
8.8 0.005 0
8.88 0.005 0
8.96 0.005 0
9.04 0.005 0
9.12 0.005 0
9.2 0.005 0
9.28 0.005 0
9.36 0.005 0
9.44 0.005 0
9.52 0.005 0
9.6 0.005 0
9.68 0.005 0
9.76 0.005 0
9.84 0.005 0
9.92 0.005 0
10 0.005 0
10.08 0.005 0
10.16 0.005 0
10.24 0.005 0
10.32 0.005 0
10.4 0.005 0
10.48 0.005 0
10.56 0.005 0
10.64 0.005 0
10.72 0.005 0
10.8 0.005 0
10.88 0.005 0
10.96 0.005 0
11.04 0.005 0
11.12 0.005 0
11.2 0.005 0
11.28 0.005 0
11.36 0.005 0
11.44 0.005 0
11.52 0.005 0
11.6 0.005 0
11.68 0.005 0
11.76 0.005 0
11.84 0.005 0
11.92 0.005 0
12 0.005 0
12.08 0.005 0
12.16 0.005 0
12.24 0.005 0
12.32 0.005 0
12.4 0.005 0
12.48 0.005 0
12.56 0.005 0
12.64 0.005 0
12.72 0.005 0
12.8 0.005 0
12.88 0.005 0
12.96 0.005 0
13.04 0.005 0
13.12 0.005 0
13.2 0.005 0
13.28 0.005 0
13.36 0.005 0
13.44 0.005 0
13.52 0.005 0
13.6 0.005 0
13.68 0.005 0
13.76 0.005 0
13.84 0.005 0
13.92 0.005 0
14 0.005 0
14.08 0.005 0
14.16 0.005 0
14.24 0.005 0
14.32 0.005 0
14.4 0.005 0
14.48 0.005 0
14.56 0.005 0
14.64 0.005 0
14.72 0.005 0
14.8 0.005 0
14.88 0.005 0
14.96 0.005 0
15.04 0.005 0
15.12 0.005 0
15.2 0.005 0
15.28 0.005 0
15.36 0.005 0
15.44 0.005 0
15.52 0.005 0
15.6 0.005 0
15.68 0.005 0
15.76 0.005 0
15.84 0.005 0
15.92 0.005 0
16 0.005 0
16.08 0.005 0
16.16 0.005 0
16.24 0.005 0
16.32 0.005 0
16.4 0.005 0
16.48 0.005 0
16.56 0.005 0
16.64 0.005 0
16.72 0.005 0
16.8 0.005 0
16.88 0.005 0
16.96 0.005 0
17.04 0.005 0
17.12 0.005 0
17.2 0.005 0
17.28 0.005 0
17.36 0.005 0
17.44 0.005 0
17.52 0.005 0
17.6 0.005 0
17.68 0.005 0
17.76 0.005 0
17.84 0.005 0
17.92 0.005 0
18 0.005 0
18.08 0.005 0
18.16 0.005 0
18.24 0.005 0
18.32 0.005 0
18.4 0.005 0
18.48 0.005 0
18.56 0.005 0
18.64 0.005 0
18.72 0.005 0
18.8 0.005 0
18.88 0.005 0
18.96 0.005 0
19.04 0.005 0
19.12 0.005 0
19.2 0.005 0
19.28 0.005 0
19.36 0.005 0
19.44 0.005 0
19.52 0.005 0
19.6 0.005 0
19.68 0.005 0
19.76 0.005 0
19.84 0.005 0
19.92 0.005 0
20 0.005 0
20.08 0.005 0
20.16 0.005 0
20.24 0.005 0
20.32 0.005 0
20.4 0.005 0
20.48 0.005 0
20.56 0.005 0
20.64 0.005 0
20.72 0.005 0
20.8 0.005 0
20.88 0.005 0
20.96 0.005 0
21.04 0.005 0
21.12 0.005 0
21.2 0.005 0
21.28 0.005 0
21.36 0.005 0
21.44 0.005 0
21.52 0.005 0
21.6 0.005 0
21.68 0.005 0
21.76 0.005 0
21.84 0.005 0
21.92 0.005 0
22 0.005 0
22.08 0.005 0
22.16 0.005 0
22.24 0.005 0
22.32 0.005 0
22.4 0.005 0
22.48 0.005 0
22.56 0.005 0
22.64 0.005 0
22.72 0.005 0
22.8 0.005 0
22.88 0.005 0
22.96 0.005 0
23.04 0.005 0
23.12 0.005 0
23.2 0.005 0
23.28 0.005 0
23.36 0.005 0
23.44 0.005 0
23.52 0.005 0
23.6 0.005 0
23.68 0.005 0
23.76 0.005 0
23.84 0.005 0
23.92 0.005 0
24 0.005 0
24.08 0.005 0
24.16 0.005 0
24.24 0.005 0
24.32 0.005 0
24.4 0.005 0
24.48 0.005 0
24.56 0.005 0
24.64 0.005 0
24.72 0.005 0
24.8 0.005 0
24.88 0.005 0
24.96 0.005 0
25.04 0.005 0
25.12 0.005 0
25.2 0.005 0
25.28 0.005 0
25.36 0.005 0
25.44 0.005 0
25.52 0.005 0
25.6 0.005 0
25.68 0.005 0
25.76 0.005 0
25.84 0.005 0
25.92 0.005 0
26 0.005 0
26.08 0.005 0
26.16 0.005 0
26.24 0.005 0
26.32 0.005 0
26.4 0.005 0
26.48 0.005 0
26.56 0.005 0
26.64 0.005 0
26.72 0.005 0
26.8 0.005 0
26.88 0.005 0
26.96 0.005 0
27.04 0.005 0
27.12 0.005 0
27.2 0.005 0
27.28 0.005 0
27.36 0.005 0
27.44 0.005 0
27.52 0.005 0
27.6 0.005 0
27.68 0.005 0
27.76 0.005 0
27.84 0.005 0
27.92 0.005 0
28 0.005 0
28.08 0.005 0
28.16 0.005 0
28.24 0.005 0
28.32 0.005 0
28.4 0.005 0
28.48 0.005 0
28.56 0.005 0
28.64 0.005 0
28.72 0.005 0
28.8 0.005 0
28.88 0.005 0
28.96 0.005 0
29.04 0.005 0
29.12 0.005 0
29.2 0.005 0
29.28 0.005 0
29.36 0.005 0
29.44 0.005 0
29.52 0.005 0
29.6 0.005 0
29.68 0.005 0
29.76 0.005 0
29.84 0.005 0
29.92 0.005 0
30 0.005 0
30.08 0.005 0
30.16 0.005 0
30.24 0.005 0
30.32 0.005 0
30.4 0.005 0
30.48 0.005 0
30.56 0.005 0
30.64 0.005 0
30.72 0.005 0
30.8 0.005 0
30.88 0.005 0
30.96 0.005 0
31.04 0.005 0
31.12 0.005 0
31.2 0.005 0
31.28 0.005 0
31.36 0.005 0
31.44 0.005 0
31.52 0.005 0
31.6 0.005 0
31.68 0.005 0
31.76 0.005 0
31.84 0.005 0
31.92 0.005 0
0 0.01 0
0.08 0.01 0
0.16 0.01 0
0.24 0.01 0
0.32 0.01 0
0.4 0.01 0
0.48 0.01 0
0.56 0.01 0
0.64 0.01 0
0.72 0.01 0
0.8 0.01 0
0.88 0.01 0
0.96 0.01 0
1.04 0.01 0
1.12 0.01 0
1.2 0.01 0
1.28 0.01 0
1.36 0.01 0
1.44 0.01 0
1.52 0.01 0
1.6 0.01 0
1.68 0.01 0
1.76 0.01 0
1.84 0.01 0
1.92 0.01 0
2 0.01 0
2.08 0.01 0
2.16 0.01 0
2.24 0.01 0
2.32 0.01 0
2.4 0.01 0
2.48 0.01 0
2.56 0.01 0
2.64 0.01 0
2.72 0.01 0
2.8 0.01 0
2.88 0.01 0
2.96 0.01 0
3.04 0.01 0
3.12 0.01 0
3.2 0.01 0
3.28 0.01 0
3.36 0.01 0
3.44 0.01 0
3.52 0.01 0
3.6 0.01 0
3.68 0.01 0
3.76 0.01 0
3.84 0.01 0
3.92 0.01 0
4 0.01 0
4.08 0.01 0
4.16 0.01 0
4.24 0.01 0
4.32 0.01 0
4.4 0.01 0
4.48 0.01 0
4.56 0.01 0
4.64 0.01 0
4.72 0.01 0
4.8 0.01 0
4.88 0.01 0
4.96 0.01 0
5.04 0.01 0
5.12 0.01 0
[...]
POINT_DATA 80000

SCALARS v float 1
LOOKUP_TABLE default
0
0
0
0
0
0
0
0
0
0
0
0
0
0
0
0
0
0
0
0
0
0
0
0
0
0
0
0
0
0
0
0
0
0
0
0
0
0
0
0
0
0
0
0
0
0
0
0
0
0
0
0
0
0
0
0
0
0
0
0
0
0
0
0
0
0
0
0
0
0
0
0
0
0
0
0
0
0
0
0
0
0
0
0
0
0
0
0
0
0
0
0
0
0
0
0
0
0
0
0
0
0
0
0
0
0
0
0
0
0
0
0
0
0
0
0
0
0
0
0
0
0
0
0
0
0
0
0
0
0
0
0
0
0
0
0
0
0
0
0
0
0
0
0
0
0
0
0
0
0
0
0
0
0
0
0
0
0
0
0
0
0
0
0
0
0
0
0
0
0
0
0
0
0
0
0
0
0
0
0
0
0
0
0
0
0
0
0
0
0
0
0
0
0
0
0
0
0
0
0
0
0
0
0
0
0
0
0
0
0
0
0
0
0
0
0
0
0
0
0
0
0
0
0
0
0
0
0
0
0
0
0
0
0
0
0
0
0
0
0
0
0
0
0
0
0
0
0
0
0
0
0
0
0
0
0
0
0
0
0
0
0
0
0
0
0
0
0
0
0
0
0
0
0
0
0
0
0
0
0
0
0
0
0
0
0
0
0
0
0
0
0
0
0
0
0
0
0
0
0
0
0
0
0
0
0
0
0
0
0
0
0
0
0
0
0
0
0
0
0
0
0
0
0
0
0
0
0
0
0
0
0
0
0
0
0
0
0
0
0
0
0
0
0
0
0
0
0
0
0
0
0
0
0
0
0
0
0
0
0
0
0
0
0
0
0
0
0
0
0
0
0
0
0
0
0
0
0
0
0
0
0
0
0
0
0
0
0
0
0
0
0
0
0
0
0
0
0
0
0
-0.054284
0.054284
0.00397498
0.00101099
0.000505088
0.000315599
0.00021927
0.000162334
0.000126541
0.000102571
8.38359e-05
6.68416e-05
5.13734e-05
3.87041e-05
2.96026e-05
2.37059e-05
2.00337e-05
1.76705e-05
1.60649e-05
1.49761e-05
1.43047e-05
1.39724e-05
1.38842e-05
1.39411e-05
1.40613e-05
1.41908e-05
1.43022e-05
1.43869e-05
1.44464e-05
1.44863e-05
1.45127e-05
1.45305e-05
1.45434e-05
1.45537e-05
1.45629e-05
1.45718e-05
1.45809e-05
1.45904e-05
1.46004e-05
1.46111e-05
1.46224e-05
1.46344e-05
1.4647e-05
1.46604e-05
1.46744e-05
1.46891e-05
1.47045e-05
1.47205e-05
1.47373e-05
1.47548e-05
1.47729e-05
1.47918e-05
1.48113e-05
1.48316e-05
1.48526e-05
1.48743e-05
1.48967e-05
1.49199e-05
1.49438e-05
1.49685e-05
1.49939e-05
1.50201e-05
1.50471e-05
1.50748e-05
1.51034e-05
1.51327e-05
1.51629e-05
1.51938e-05
1.52257e-05
1.52583e-05
1.52919e-05
1.53263e-05
1.53615e-05
1.53977e-05
1.54348e-05
1.54728e-05
1.55118e-05
1.55517e-05
1.55926e-05
1.56345e-05
1.56774e-05
1.57213e-05
1.57662e-05
1.58122e-05
1.58593e-05
1.59074e-05
1.59567e-05
1.60071e-05
1.60587e-05
1.61115e-05
1.61654e-05
1.62206e-05
1.6277e-05
1.63347e-05
1.63937e-05
1.6454e-05
1.65157e-05
1.65787e-05
1.66432e-05
1.67091e-05
1.67764e-05
1.68453e-05
1.69157e-05
1.69877e-05
1.70612e-05
1.71364e-05
1.72133e-05
1.7292e-05
1.73724e-05
1.74546e-05
1.75386e-05
1.76246e-05
1.77125e-05
1.78024e-05
1.78944e-05
1.79884e-05
1.80847e-05
1.81832e-05
1.82839e-05
1.83871e-05
1.84926e-05
1.86007e-05
1.87113e-05
1.88247e-05
1.89407e-05
1.90596e-05
1.91814e-05
1.93063e-05
1.94342e-05
1.95655e-05
1.97e-05
1.98381e-05
1.99797e-05
2.01251e-05
2.02744e-05
2.04278e-05
2.05853e-05
2.07473e-05
2.09138e-05
2.1085e-05
2.12612e-05
2.14426e-05
2.16294e-05
2.18219e-05
2.20203e-05
2.22249e-05
2.24361e-05
2.2654e-05
2.28792e-05
2.31118e-05
2.33524e-05
2.36013e-05
2.3859e-05
2.41258e-05
2.44024e-05
2.46892e-05
2.49868e-05
2.52958e-05
2.56168e-05
2.59505e-05
2.62975e-05
2.66586e-05
2.70346e-05
2.74264e-05
2.78347e-05
2.82605e-05
2.87049e-05
2.91688e-05
2.96532e-05
3.01594e-05
3.06885e-05
3.12417e-05
3.18203e-05
3.24257e-05
3.30593e-05
3.37225e-05
3.44168e-05
3.51437e-05
3.5905e-05
3.67022e-05
3.75371e-05
3.84114e-05
3.93268e-05
4.02852e-05
4.12885e-05
4.23385e-05
4.34371e-05
4.45862e-05
4.57877e-05
4.70436e-05
4.83556e-05
4.97256e-05
5.11556e-05
5.26472e-05
5.42021e-05
5.58222e-05
5.75088e-05
5.92634e-05
6.10875e-05
6.29823e-05
6.49489e-05
6.69881e-05
6.91008e-05
7.12875e-05
7.35487e-05
7.58844e-05
7.82946e-05
8.07789e-05
8.33368e-05
8.59673e-05
8.86694e-05
9.14415e-05
9.42817e-05
9.71881e-05
0.000100158
0.000103189
0.000106277
0.00010942
0.000112613
0.000115851
0.000119131
0.000122448
0.000125795
0.000129168
0.00013256
0.000135964
0.000139376
0.000142786
0.000146189
0.000149576
0.00015294
0.000156272
0.000159566
0.000162811
0.000166001
0.000169127
0.000172179
0.00017515
0.00017803
0.000180812
0.000183487
0.000186046
0.000188482
0.000190786
0.000192952
0.000194971
0.000196837
0.000198543
0.000200082
0.00020145
0.00020264
0.000203647
0.000204468
0.000205099
0.000205536
0.000205776
0.000205818
0.00020566
0.000205301
0.000204741
0.000203981
0.000203022
0.000201865
0.000200513
0.000198969
0.000197236
0.000195319
0.000193222
0.00019095
0.00018851
0.000185907
0.000183149
0.000180242
0.000177195
0.000174014
0.000170709
0.000167287
0.000163758
0.00016013
0.000156413
0.000152615
0.000148747
0.000144817
0.000140834
0.000136809
0.00013275
0.000128665
0.000124565
0.000120458
0.000116353
0.000112256
0.000108178
0.000104124
0.000100104
9.61224e-05
9.21873e-05
8.83046e-05
8.44802e-05
8.07195e-05
7.70276e-05
7.34091e-05
6.98682e-05
6.64087e-05
6.30339e-05
5.97469e-05
5.65502e-05
5.34459e-05
5.04359e-05
4.75214e-05
4.47036e-05
4.19831e-05
3.93602e-05
3.6835e-05
3.44072e-05
3.20761e-05
2.98411e-05
2.77009e-05
2.56544e-05
2.36998e-05
2.18357e-05
2.00599e-05
1.83706e-05
1.67655e-05
1.52424e-05
1.37988e-05
1.24322e-05
1.11402e-05
9.91999e-06
8.76908e-06
7.68476e-06
6.66434e-06
5.70515e-06
4.8045e-06
3.95976e-06
3.1683e-06
2.42754e-06
1.73495e-06
1.08804e-06
4.84393e-07
-7.83479e-08
-6.02485e-07
-1.09022e-06
-1.54371e-06
-1.96501e-06
-2.35611e-06
-2.71891e-06
-3.05525e-06
-3.36684e-06
-3.65538e-06
-3.92241e-06
-4.16946e-06
-4.39793e-06
-4.60919e-06
-4.80448e-06
-4.98502e-06
-5.15191e-06
-5.30623e-06
-5.44896e-06
-5.58104e-06
-5.70331e-06
-5.81661e-06
-5.92167e-06
-6.0192e-06
-6.10984e-06
-6.1942e-06
-6.27284e-06
-6.34627e-06
-6.41496e-06
-6.47937e-06
-6.53988e-06
-6.59687e-06
-6.65067e-06
-6.70161e-06
-6.74996e-06
-6.79598e-06
-6.83991e-06
-6.88198e-06
-6.92237e-06
-6.96126e-06
-6.99883e-06
-7.03519e-06
-7.07061e-06
-7.10473e-06
-7.13931e-06
-7.16933e-06
-7.20998e-06
-7.22006e-06
-7.30494e-06
-7.21757e-06
-7.48998e-06
-7.08474e-06
-7.82002e-06
-6.87572e-06
-8.07471e-06
-6.9771e-06
-7.91542e-06
-7.53894e-06
-6.48256e-06
-7.5428e-06
-7.5428e-06
-0.0952299
0.0952299
0.0129892
0.00386727
0.00194766
0.00120962
0.000831185
0.000606696
0.000464994
0.000369159
0.000293643
0.000225493
0.000164221
0.000114534
7.89582e-05
5.58012e-05
4.12352e-05
3.18015e-05
2.54297e-05
2.11826e-05
1.86258e-05
1.74011e-05
1.71073e-05
1.73495e-05
1.78142e-05
1.83012e-05
1.87122e-05
1.90183e-05
1.92277e-05
1.93625e-05
1.94459e-05
1.94965e-05
1.95277e-05
1.95483e-05
1.95633e-05
1.9576e-05
1.95881e-05
1.96005e-05
1.96135e-05
1.96276e-05
1.96427e-05
1.9659e-05
1.96764e-05
1.96949e-05
1.97146e-05
1.97354e-05
1.97574e-05
1.97805e-05
1.98046e-05
1.983e-05
1.98564e-05
1.9884e-05
1.99127e-05
1.99425e-05
1.99734e-05
2.00055e-05
2.00387e-05
2.00731e-05
2.01086e-05
2.01452e-05
2.0183e-05
2.02221e-05
2.02622e-05
2.03037e-05
2.03463e-05
2.03901e-05
2.04352e-05
2.04816e-05
2.05292e-05
2.05781e-05
2.06284e-05
2.068e-05
2.07329e-05
2.07872e-05
2.08429e-05
2.09e-05
2.09585e-05
2.10186e-05
2.10801e-05
2.11431e-05
2.12076e-05
2.12737e-05
2.13414e-05
2.14107e-05
2.14817e-05
2.15543e-05
2.16286e-05
2.17047e-05
2.17825e-05
2.18622e-05
2.19436e-05
2.2027e-05
2.21122e-05
2.21994e-05
2.22886e-05
2.23798e-05
2.24731e-05
2.25685e-05
2.2666e-05
2.27657e-05
2.28677e-05
2.2972e-05
2.30786e-05
2.31876e-05
2.32991e-05
2.34131e-05
2.35297e-05
2.36489e-05
2.37708e-05
2.38955e-05
2.40229e-05
2.41534e-05
2.42867e-05
2.44232e-05
2.45627e-05
2.47055e-05
2.48516e-05
2.50011e-05
2.51541e-05
2.53107e-05
2.5471e-05
2.56351e-05
2.58031e-05
2.59752e-05
2.61514e-05
2.63319e-05
2.65169e-05
2.67064e-05
2.69007e-05
2.70998e-05
2.7304e-05
2.75135e-05
2.77283e-05
2.79488e-05
2.81751e-05
2.84075e-05
2.86461e-05
2.88912e-05
2.91431e-05
2.94021e-05
2.96684e-05
2.99423e-05
3.02241e-05
3.05143e-05
3.08131e-05
3.1121e-05
3.14383e-05
3.17655e-05
3.21029e-05
3.24512e-05
3.28108e-05
3.31822e-05
3.3566e-05
3.39629e-05
3.43733e-05
3.47982e-05
3.5238e-05
3.56936e-05
3.61657e-05
3.66553e-05
3.7163e-05
3.76901e-05
3.82372e-05
3.88056e-05
3.93962e-05
4.00102e-05
4.06487e-05
4.13131e-05
4.20045e-05
4.27244e-05
4.3474e-05
4.4255e-05
4.50687e-05
4.59167e-05
4.68007e-05
4.77224e-05
4.86834e-05
4.96856e-05
5.07307e-05
5.18207e-05
5.29573e-05
5.41426e-05
5.53785e-05
5.6667e-05
5.80101e-05
5.94098e-05
6.08682e-05
6.23871e-05
6.39687e-05
6.56149e-05
6.73275e-05
6.91086e-05
7.09598e-05
7.28829e-05
7.48796e-05
7.69513e-05
7.90996e-05
8.13257e-05
8.36306e-05
8.60155e-05
8.84811e-05
9.10278e-05
9.36562e-05
9.63663e-05
9.9158e-05
0.000102031
0.000104984
0.000108017
0.000111128
0.000114316
0.000117578
0.000120912
0.000124316
0.000127787
0.00013132
0.000134912
0.00013856
0.000142257
0.000145999
0.000149781
0.000153597
0.00015744
0.000161304
0.000165182
0.000169066
0.000172949
0.000176823
0.000180679
0.000184509
0.000188304
0.000192055
0.000195753
0.000199388
0.00020295
0.000206431
0.00020982
0.000213108
0.000216286
0.000219343
0.00022227
0.000225058
0.000227699
0.000230182
0.0002325
0.000234645
0.000236609
0.000238384
0.000239963
0.000241341
0.000242512
0.000243469
0.000244209
0.000244727
0.000245021
0.000245086
0.000244922
0.000244526
0.000243899
0.00024304
0.00024195
0.000240631
0.000239084
0.000237313
0.000235322
0.000233114
0.000230695
0.00022807
0.000225246
0.000222229
0.000219027
0.000215648
0.0002121
0.000208391
0.000204532
0.000200531
0.000196399
0.000192145
0.00018778
0.000183315
0.00017876
0.000174125
0.000169423
0.000164663
0.000159856
0.000155012
0.000150143
0.000145258
0.000140368
0.000135482
0.000130609
0.00012576
0.000120942
0.000116165
0.000111436
0.000106763
0.000102153
9.76127e-05
9.31487e-05
8.87667e-05
8.44719e-05
8.02693e-05
7.61632e-05
7.21574e-05
6.82555e-05
6.44604e-05
6.07744e-05
5.71997e-05
5.37379e-05
5.03901e-05
4.71572e-05
4.40394e-05
4.10368e-05
3.81491e-05
3.53755e-05
3.27152e-05
3.01668e-05
2.77288e-05
2.53994e-05
2.31766e-05
2.10582e-05
1.90418e-05
1.71249e-05
1.53048e-05
1.35786e-05
1.19435e-05
1.03965e-05
8.93447e-06
7.5544e-06
6.25311e-06
5.0275e-06
3.87437e-06
2.79064e-06
1.77314e-06
8.18842e-07
-7.53373e-08
-9.12327e-07
-1.69511e-06
-2.42647e-06
-3.10926e-06
-3.74611e-06
-4.33971e-06
-4.89252e-06
-5.40704e-06
-5.88555e-06
-6.33038e-06
-6.74362e-06
-7.12738e-06
-7.48359e-06
-7.81416e-06
-8.12083e-06
-8.40534e-06
-8.66922e-06
-8.91404e-06
-9.14117e-06
-9.35201e-06
-9.54776e-06
-9.72965e-06
-9.89873e-06
-1.00561e-05
-1.02027e-05
-1.03394e-05
-1.0467e-05
-1.05864e-05
-1.06983e-05
-1.08033e-05
-1.0902e-05
-1.09951e-05
-1.1083e-05
-1.11662e-05
-1.12452e-05
-1.13204e-05
-1.13922e-05
-1.14609e-05
-1.15268e-05
-1.15902e-05
-1.16513e-05
-1.17105e-05
-1.17679e-05
-1.18238e-05
-1.18783e-05
-1.19315e-05
-1.19839e-05
-1.20343e-05
-1.20881e-05
-1.21281e-05
-1.22067e-05
-1.21793e-05
-1.2418e-05
-1.2044e-05
-1.29629e-05
-1.14301e-05
-1.40618e-05
-1.05069e-05
-1.4925e-05
-1.07159e-05
-1.42439e-05
-1.26598e-05
-9.17794e-06
-1.26682e-05
-1.26682e-05
-0.125307
0.125307
0.0249479
0.00836793
0.00428949
0.00267281
0.00183589
0.00133737
0.00102147
0.000806283
0.000635873
0.000482706
0.000346143
0.000236095
0.000157399
0.00010594
7.3308e-05
5.20665e-05
3.77718e-05
2.83524e-05
2.27704e-05
2.01523e-05
1.95628e-05
2.01174e-05
2.11322e-05
2.21798e-05
2.30553e-05
2.37019e-05
2.41402e-05
2.4419e-05
2.45879e-05
2.4687e-05
2.47445e-05
2.47787e-05
2.48009e-05
2.48175e-05
2.4832e-05
2.48465e-05
2.48619e-05
2.48787e-05
2.48971e-05
2.49173e-05
2.49391e-05
2.49628e-05
2.49881e-05
2.50153e-05
2.5044e-05
2.50746e-05
2.51067e-05
2.51406e-05
2.51761e-05
2.52133e-05
2.52521e-05
2.52926e-05
2.53347e-05
2.53785e-05
2.54238e-05
2.54709e-05
2.55195e-05
2.55699e-05
2.56218e-05
2.56755e-05
2.57309e-05
2.5788e-05
2.58467e-05
2.59073e-05
2.59696e-05
2.60337e-05
2.60996e-05
2.61673e-05
2.62369e-05
2.63084e-05
2.63818e-05
2.64571e-05
2.65344e-05
2.66137e-05
2.66949e-05
2.67783e-05
2.68638e-05
2.69514e-05
2.70411e-05
2.71331e-05
2.72272e-05
2.73237e-05
2.74225e-05
2.75236e-05
2.76271e-05
2.77331e-05
2.78415e-05
2.79525e-05
2.80661e-05
2.81823e-05
2.83011e-05
2.84228e-05
2.85471e-05
2.86743e-05
2.88044e-05
2.89375e-05
2.90736e-05
2.92128e-05
2.93551e-05
2.95006e-05
2.96494e-05
2.98016e-05
2.99572e-05
3.01163e-05
3.0279e-05
3.04454e-05
3.06155e-05
3.07895e-05
3.09674e-05
3.11495e-05
3.13355e-05
3.15259e-05
3.17206e-05
3.19198e-05
3.21236e-05
3.23321e-05
3.25454e-05
3.27637e-05
3.2987e-05
3.32157e-05
3.34497e-05
3.36893e-05
3.39346e-05
3.41858e-05
3.44431e-05
3.47067e-05
3.49767e-05
3.52533e-05
3.55369e-05
3.58276e-05
3.61255e-05
3.64311e-05
3.67446e-05
3.70662e-05
3.73962e-05
3.77349e-05
3.80827e-05
3.84398e-05
3.88067e-05
3.91837e-05
3.95712e-05
3.99696e-05
4.03794e-05
4.0801e-05
4.12348e-05
4.16815e-05
4.21414e-05
4.26154e-05
4.31037e-05
4.36073e-05
4.41265e-05
4.46624e-05
4.52153e-05
4.57863e-05
4.6376e-05
4.69854e-05
4.76153e-05
4.82666e-05
4.89404e-05
4.96376e-05
5.03593e-05
5.11068e-05
5.1881e-05
5.26833e-05
5.35148e-05
5.43771e-05
5.52713e-05
5.6199e-05
5.71616e-05
5.81608e-05
5.91979e-05
6.02748e-05
6.13929e-05
6.25542e-05
6.37603e-05
6.50131e-05
6.63144e-05
6.7666e-05
6.90699e-05
7.05281e-05
7.20423e-05
7.36146e-05
7.52468e-05
7.69411e-05
7.86991e-05
8.0523e-05
8.24144e-05
8.43752e-05
8.6407e-05
8.85118e-05
9.06908e-05
9.29457e-05
9.52778e-05
9.76884e-05
0.000100178
0.000102749
0.0001054
0.000108134
0.000110949
0.000113847
0.000116826
0.000119887
0.000123029
0.000126251
0.000129551
0.000132929
0.000136381
0.000139906
0.000143501
0.000147162
0.000150888
0.000154672
0.000158512
0.000162402
0.000166338
0.000170314
0.000174325
0.000178363
0.000182422
0.000186495
0.000190575
0.000194654
0.000198723
0.000202775
0.0002068
0.00021079
0.000214735
0.000218626
0.000222452
0.000226205
0.000229874
0.00023345
0.000236921
0.000240278
0.000243512
0.000246612
0.000249568
0.000252371
0.000255012
0.000257481
0.000259769
0.000261869
0.000263771
0.00026547
0.000266957
0.000268226
0.000269271
0.000270086
0.000270668
0.000271011
0.000271112
0.000270969
0.000270579
0.000269942
0.000269056
0.000267922
0.000266541
0.000264915
0.000263046
0.000260938
0.000258594
0.000256018
0.000253218
0.000250198
0.000246965
0.000243527
0.000239891
0.000236066
0.000232061
0.000227885
0.000223549
0.000219062
0.000214435
0.000209679
0.000204805
0.000199824
0.000194748
0.000189588
0.000184356
0.000179063
0.00017372
0.00016834
0.000162933
0.000157511
0.000152083
0.000146662
0.000141256
0.000135876
0.000130532
0.000125232
0.000119986
0.000114801
0.000109685
0.000104646
9.96909e-05
9.48252e-05
9.00551e-05
8.53859e-05
8.08223e-05
7.63688e-05
7.20289e-05
6.7806e-05
6.37028e-05
5.97216e-05
5.58641e-05
5.21317e-05
4.85254e-05
4.50455e-05
4.16922e-05
3.84652e-05
3.53637e-05
3.23868e-05
2.95331e-05
2.68011e-05
2.41887e-05
2.1694e-05
1.93145e-05
1.70476e-05
1.48907e-05
1.28408e-05
1.08948e-05
9.04979e-06
7.30227e-06
5.64909e-06
4.08676e-06
2.61199e-06
1.22123e-06
-8.88391e-08
-1.32177e-06
-2.48086e-06
-3.5696e-06
-4.59121e-06
-5.54907e-06
-6.4463e-06
-7.28616e-06
-8.07158e-06
-8.80568e-06
-9.49123e-06
-1.01312e-05
-1.0728e-05
-1.12846e-05
-1.18032e-05
-1.22863e-05
-1.27363e-05
-1.31552e-05
-1.35452e-05
-1.39084e-05
-1.42464e-05
-1.45613e-05
-1.48545e-05
-1.51278e-05
-1.53826e-05
-1.56204e-05
-1.58424e-05
-1.605e-05
-1.62442e-05
-1.64263e-05
-1.65971e-05
-1.67576e-05
-1.69088e-05
-1.70514e-05
-1.71861e-05
-1.73139e-05
-1.74351e-05
-1.75505e-05
-1.76605e-05
-1.77658e-05
-1.78667e-05
-1.79638e-05
-1.80574e-05
-1.81478e-05
-1.82354e-05
-1.83206e-05
-1.84034e-05
-1.84844e-05
-1.85635e-05
-1.86412e-05
-1.87175e-05
-1.87926e-05
-1.88674e-05
-1.89388e-05
-1.90184e-05
-1.90705e-05
-1.92024e-05
-1.91176e-05
-1.95816e-05
-1.87778e-05
-2.06641e-05
-1.74254e-05
-2.29401e-05
-1.53796e-05
-2.47719e-05
-1.57059e-05
-2.33235e-05
-1.9729e-05
-1.32301e-05
-1.98287e-05
-1.98287e-05
-0.1465
0.1465
0.0383191
0.0142386
0.00746333
0.00467921
0.00322059
0.00234715
0.00179124
0.00141013
0.00110716
0.000835818
0.000595506
0.00040274
0.000264895
0.000174298
0.000116384
7.84852e-05
5.30338e-05
3.64044e-05
2.66625e-05
2.21559e-05
2.11737e-05
2.21475e-05
2.38907e-05
2.5675e-05
2.71569e-05
2.82458e-05
2.898e-05
2.94438e-05
2.97219e-05
2.98821e-05
2.99719e-05
3.00223e-05
3.00518e-05
3.00715e-05
3.00873e-05
3.01025e-05
3.01187e-05
3.01368e-05
3.01571e-05
3.01798e-05
3.02049e-05
3.02326e-05
3.02626e-05
3.02951e-05
3.03299e-05
3.03671e-05
3.04065e-05
3.04484e-05
3.04924e-05
3.05388e-05
3.05873e-05
3.06381e-05
3.0691e-05
3.07463e-05
3.08036e-05
3.08632e-05
3.09249e-05
3.09889e-05
3.10551e-05
3.11235e-05
3.11941e-05
3.1267e-05
3.13421e-05
3.14195e-05
3.14992e-05
3.15814e-05
3.16658e-05
3.17526e-05
3.18419e-05
3.19336e-05
3.20278e-05
3.21246e-05
3.22239e-05
3.23259e-05
3.24304e-05
3.25377e-05
3.26476e-05
3.27604e-05
3.2876e-05
3.29944e-05
3.31157e-05
3.32401e-05
3.33673e-05
3.34977e-05
3.36312e-05
3.37678e-05
3.39077e-05
3.40508e-05
3.41973e-05
3.43472e-05
3.45005e-05
3.46574e-05
3.48178e-05
3.4982e-05
3.51498e-05
3.53216e-05
3.54971e-05
3.56767e-05
3.58602e-05
3.6048e-05
3.62398e-05
3.64361e-05
3.66367e-05
3.68419e-05
3.70516e-05
3.72661e-05
3.74853e-05
3.77095e-05
3.79386e-05
3.8173e-05
3.84126e-05
3.86576e-05
3.89081e-05
3.91644e-05
3.94264e-05
3.96944e-05
3.99684e-05
4.02488e-05
4.05356e-05
4.0829e-05
4.11291e-05
4.14363e-05
4.17506e-05
4.20723e-05
4.24015e-05
4.27387e-05
4.30837e-05
4.34371e-05
4.3799e-05
4.41697e-05
4.45494e-05
4.49385e-05
4.53372e-05
4.57459e-05
4.61648e-05
4.65945e-05
4.7035e-05
4.7487e-05
4.79507e-05
4.84266e-05
4.8915e-05
4.94167e-05
4.99317e-05
5.04609e-05
5.10046e-05
5.15635e-05
5.2138e-05
5.27289e-05
5.33367e-05
5.39622e-05
5.46059e-05
5.52687e-05
5.59513e-05
5.66546e-05
5.73792e-05
5.81263e-05
5.88966e-05
5.96911e-05
6.05109e-05
6.1357e-05
6.22303e-05
6.31323e-05
6.40639e-05
6.50265e-05
6.60212e-05
6.70495e-05
6.81126e-05
6.9212e-05
7.03492e-05
7.15257e-05
7.27429e-05
7.40026e-05
7.53062e-05
7.66555e-05
7.80522e-05
7.9498e-05
8.09945e-05
8.25438e-05
8.41473e-05
8.5807e-05
8.75246e-05
8.93021e-05
9.11409e-05
9.30431e-05
9.50101e-05
9.70439e-05
9.91458e-05
0.000101318
0.000103561
0.000105876
0.000108266
0.000110731
0.000113272
0.00011589
0.000118585
0.000121359
0.000124212
0.000127144
0.000130154
0.000133243
0.000136409
0.000139653
0.000142972
0.000146366
0.000149832
0.000153369
0.000156974
0.000160644
0.000164376
0.000168167
0.000172012
0.000175908
0.000179848
0.000183829
0.000187845
0.00019189
0.000195957
0.00020004
0.000204132
0.000208225
0.000212311
0.000216383
0.000220431
0.000224448
0.000228423
0.000232349
0.000236214
0.00024001
0.000243727
0.000247355
0.000250883
0.000254302
0.000257602
0.000260772
0.000263803
0.000266685
0.000269408
0.000271964
0.000274341
0.000276533
0.00027853
0.000280324
0.000281908
0.000283275
0.000284417
0.000285329
0.000286006
0.000286442
0.000286633
0.000286575
0.000286267
0.000285706
0.000284889
0.000283818
0.000282492
0.000280911
0.000279078
0.000276995
0.000274665
0.000272092
0.000269281
0.000266237
0.000262967
0.000259477
0.000255774
0.000251866
0.000247763
0.000243472
0.000239005
0.00023437
0.000229578
0.000224641
0.000219568
0.000214372
0.000209064
0.000203655
0.000198159
0.000192585
0.000186947
0.000181257
0.000175525
0.000169764
0.000163985
0.0001582
0.000152419
0.000146653
0.000140912
0.000135207
0.000129547
0.000123941
0.000118398
0.000112926
0.000107533
0.000102227
9.70128e-05
9.18983e-05
8.68885e-05
8.19888e-05
7.72037e-05
7.25374e-05
6.79933e-05
6.35748e-05
5.9284e-05
5.51233e-05
5.10941e-05
4.71976e-05
4.34344e-05
3.98048e-05
3.63086e-05
3.29453e-05
2.97139e-05
2.66132e-05
2.36416e-05
2.07973e-05
1.8078e-05
1.54815e-05
1.30051e-05
1.06462e-05
8.40148e-06
6.26814e-06
4.24271e-06
2.32201e-06
5.02406e-07
-1.21941e-06
-2.84722e-06
-4.3844e-06
-5.83478e-06
-7.20176e-06
-8.48914e-06
-9.70028e-06
-1.08389e-05
-1.19083e-05
-1.29122e-05
-1.38535e-05
-1.47359e-05
-1.55622e-05
-1.63359e-05
-1.70597e-05
-1.77366e-05
-1.83693e-05
-1.89607e-05
-1.95132e-05
-2.00294e-05
-2.05115e-05
-2.0962e-05
-2.13828e-05
-2.17762e-05
-2.21439e-05
-2.24879e-05
-2.28098e-05
-2.31115e-05
-2.33942e-05
-2.36596e-05
-2.3909e-05
-2.41437e-05
-2.43647e-05
-2.45734e-05
-2.47707e-05
-2.49576e-05
-2.5135e-05
-2.53038e-05
-2.54646e-05
-2.56183e-05
-2.57654e-05
-2.59067e-05
-2.60427e-05
-2.61739e-05
-2.63007e-05
-2.64238e-05
-2.65433e-05
-2.66598e-05
-2.67734e-05
-2.68847e-05
-2.69938e-05
-2.71011e-05
-2.72066e-05
-2.73108e-05
-2.74137e-05
-2.75155e-05
-2.76176e-05
-2.77149e-05
-2.78262e-05
-2.78929e-05
-2.80912e-05
-2.79331e-05
-2.86819e-05
-2.7331e-05