# vtk DataFile Version 2.0
FlowField
ASCII
DATASET STRUCTURED_GRID
DIMENSIONS 400 1 200
POINTS 80000 float
0 0 0
0.08 0 0
0.16 0 0
0.24 0 0
0.32 0 0
0.4 0 0
0.48 0 0
0.56 0 0
0.64 0 0
0.72 0 0
0.8 0 0
0.88 0 0
0.96 0 0
1.04 0 0
1.12 0 0
1.2 0 0
1.28 0 0
1.36 0 0
1.44 0 0
1.52 0 0
1.6 0 0
1.68 0 0
1.76 0 0
1.84 0 0
1.92 0 0
2 0 0
2.08 0 0
2.16 0 0
2.24 0 0
2.32 0 0
2.4 0 0
2.48 0 0
2.56 0 0
2.64 0 0
2.72 0 0
2.8 0 0
2.88 0 0
2.96 0 0
3.04 0 0
3.12 0 0
3.2 0 0
3.28 0 0
3.36 0 0
3.44 0 0
3.52 0 0
3.6 0 0
3.68 0 0
3.76 0 0
3.84 0 0
3.92 0 0
4 0 0
4.08 0 0
4.16 0 0
4.24 0 0
4.32 0 0
4.4 0 0
4.48 0 0
4.56 0 0
4.64 0 0
4.72 0 0
4.8 0 0
4.88 0 0
4.96 0 0
5.04 0 0
5.12 0 0
5.2 0 0
5.28 0 0
5.36 0 0
5.44 0 0
5.52 0 0
5.6 0 0
5.68 0 0
5.76 0 0
5.84 0 0
5.92 0 0
6 0 0
6.08 0 0
6.16 0 0
6.24 0 0
6.32 0 0
6.4 0 0
6.48 0 0
6.56 0 0
6.64 0 0
6.72 0 0
6.8 0 0
6.88 0 0
6.96 0 0
7.04 0 0
7.12 0 0
7.2 0 0
7.28 0 0
7.36 0 0
7.44 0 0
7.52 0 0
7.6 0 0
7.68 0 0
7.76 0 0
7.84 0 0
7.92 0 0
8 0 0
8.08 0 0
8.16 0 0
8.24 0 0
8.32 0 0
8.4 0 0
8.48 0 0
8.56 0 0
8.64 0 0
8.72 0 0
8.8 0 0
8.88 0 0
8.96 0 0
9.04 0 0
9.12 0 0
9.2 0 0
9.28 0 0
9.36 0 0
9.44 0 0
9.52 0 0
9.6 0 0
9.68 0 0
9.76 0 0
9.84 0 0
9.92 0 0
10 0 0
10.08 0 0
10.16 0 0
10.24 0 0
10.32 0 0
10.4 0 0
10.48 0 0
10.56 0 0
10.64 0 0
10.72 0 0
10.8 0 0
10.88 0 0
10.96 0 0
11.04 0 0
11.12 0 0
11.2 0 0
11.28 0 0
11.36 0 0
11.44 0 0
11.52 0 0
11.6 0 0
11.68 0 0
11.76 0 0
11.84 0 0
11.92 0 0
12 0 0
12.08 0 0
12.16 0 0
12.24 0 0
12.32 0 0
12.4 0 0
12.48 0 0
12.56 0 0
12.64 0 0
12.72 0 0
12.8 0 0
12.88 0 0
12.96 0 0
13.04 0 0
13.12 0 0
13.2 0 0
13.28 0 0
13.36 0 0
13.44 0 0
13.52 0 0
13.6 0 0
13.68 0 0
13.76 0 0
13.84 0 0
13.92 0 0
14 0 0
14.08 0 0
14.16 0 0
14.24 0 0
14.32 0 0
14.4 0 0
14.48 0 0
14.56 0 0
14.64 0 0
14.72 0 0
14.8 0 0
14.88 0 0
14.96 0 0
15.04 0 0
15.12 0 0
15.2 0 0
15.28 0 0
15.36 0 0
15.44 0 0
15.52 0 0
15.6 0 0
15.68 0 0
15.76 0 0
15.84 0 0
15.92 0 0
16 0 0
16.08 0 0
16.16 0 0
16.24 0 0
16.32 0 0
16.4 0 0
16.48 0 0
16.56 0 0
16.64 0 0
16.72 0 0
16.8 0 0
16.88 0 0
16.96 0 0
17.04 0 0
17.12 0 0
17.2 0 0
17.28 0 0
17.36 0 0
17.44 0 0
17.52 0 0
17.6 0 0
17.68 0 0
17.76 0 0
17.84 0 0
17.92 0 0
18 0 0
18.08 0 0
18.16 0 0
18.24 0 0
18.32 0 0
18.4 0 0
18.48 0 0
18.56 0 0
18.64 0 0
18.72 0 0
18.8 0 0
18.88 0 0
18.96 0 0
19.04 0 0
19.12 0 0
19.2 0 0
19.28 0 0
19.36 0 0
19.44 0 0
19.52 0 0
19.6 0 0
19.68 0 0
19.76 0 0
19.84 0 0
19.92 0 0
20 0 0
20.08 0 0
20.16 0 0
20.24 0 0
20.32 0 0
20.4 0 0
20.48 0 0
20.56 0 0
20.64 0 0
20.72 0 0
20.8 0 0
20.88 0 0
20.96 0 0
21.04 0 0
21.12 0 0
21.2 0 0
21.28 0 0
21.36 0 0
21.44 0 0
21.52 0 0
21.6 0 0
21.68 0 0
21.76 0 0
21.84 0 0
21.92 0 0
22 0 0
22.08 0 0
22.16 0 0
22.24 0 0
22.32 0 0
22.4 0 0
22.48 0 0
22.56 0 0
22.64 0 0
22.72 0 0
22.8 0 0
22.88 0 0
22.96 0 0
23.04 0 0
23.12 0 0
23.2 0 0
23.28 0 0
23.36 0 0
23.44 0 0
23.52 0 0
23.6 0 0
23.68 0 0
23.76 0 0
23.84 0 0
23.92 0 0
24 0 0
24.08 0 0
24.16 0 0
24.24 0 0
24.32 0 0
24.4 0 0
24.48 0 0
24.56 0 0
24.64 0 0
24.72 0 0
24.8 0 0
24.88 0 0
24.96 0 0
25.04 0 0
25.12 0 0
25.2 0 0
25.28 0 0
25.36 0 0
25.44 0 0
25.52 0 0
25.6 0 0
25.68 0 0
25.76 0 0
25.84 0 0
25.92 0 0
26 0 0
26.08 0 0
26.16 0 0
26.24 0 0
26.32 0 0
26.4 0 0
26.48 0 0
26.56 0 0
26.64 0 0
26.72 0 0
26.8 0 0
26.88 0 0
26.96 0 0
27.04 0 0
27.12 0 0
27.2 0 0
27.28 0 0
27.36 0 0
27.44 0 0
27.52 0 0
27.6 0 0
27.68 0 0
27.76 0 0
27.84 0 0
27.92 0 0
28 0 0
28.08 0 0
28.16 0 0
28.24 0 0
28.32 0 0
28.4 0 0
28.48 0 0
28.56 0 0
28.64 0 0
28.72 0 0
28.8 0 0
28.88 0 0
28.96 0 0
29.04 0 0
29.12 0 0
29.2 0 0
29.28 0 0
29.36 0 0
29.44 0 0
29.52 0 0
29.6 0 0
29.68 0 0
29.76 0 0
29.84 0 0
29.92 0 0
30 0 0
30.08 0 0
30.16 0 0
30.24 0 0
30.32 0 0
30.4 0 0
30.48 0 0
30.56 0 0
30.64 0 0
30.72 0 0
30.8 0 0
30.88 0 0
30.96 0 0
31.04 0 0
31.12 0 0
31.2 0 0
31.28 0 0
31.36 0 0
31.44 0 0
31.52 0 0
31.6 0 0
31.68 0 0
31.76 0 0
31.84 0 0
31.92 0 0
0 0.005 0
0.08 0.005 0
0.16 0.005 0
0.24 0.005 0
0.32 0.005 0
0.4 0.005 0
0.48 0.005 0
0.56 0.005 0
0.64 0.005 0
0.72 0.005 0
0.8 0.005 0
0.88 0.005 0
0.96 0.005 0
1.04 0.005 0
1.12 0.005 0
1.2 0.005 0
1.28 0.005 0
1.36 0.005 0
1.44 0.005 0
1.52 0.005 0
1.6 0.005 0
1.68 0.005 0
1.76 0.005 0
1.84 0.005 0
1.92 0.005 0
2 0.005 0
2.08 0.005 0
2.16 0.005 0
2.24 0.005 0
2.32 0.005 0
2.4 0.005 0
2.48 0.005 0
2.56 0.005 0
2.64 0.005 0
2.72 0.005 0
2.8 0.005 0
2.88 0.005 0
2.96 0.005 0
3.04 0.005 0
3.12 0.005 0
3.2 0.005 0
3.28 0.005 0
3.36 0.005 0
3.44 0.005 0
3.52 0.005 0
3.6 0.005 0
3.68 0.005 0
3.76 0.005 0
3.84 0.005 0
3.92 0.005 0
4 0.005 0
4.08 0.005 0
4.16 0.005 0
4.24 0.005 0
4.32 0.005 0
4.4 0.005 0
4.48 0.005 0
4.56 0.005 0
4.64 0.005 0
4.72 0.005 0
4.8 0.005 0
4.88 0.005 0
4.96 0.005 0
5.04 0.005 0
5.12 0.005 0
5.2 0.005 0
5.28 0.005 0
5.36 0.005 0
5.44 0.005 0
5.52 0.005 0
5.6 0.005 0
5.68 0.005 0
5.76 0.005 0
5.84 0.005 0
5.92 0.005 0
6 0.005 0
6.08 0.005 0
6.16 0.005 0
6.24 0.005 0
6.32 0.005 0
6.4 0.005 0
6.48 0.005 0
6.56 0.005 0
6.64 0.005 0
6.72 0.005 0
6.8 0.005 0
6.88 0.005 0
6.96 0.005 0
7.04 0.005 0
7.12 0.005 0
7.2 0.005 0
7.28 0.005 0
7.36 0.005 0
7.44 0.005 0
7.52 0.005 0
7.6 0.005 0
7.68 0.005 0
7.76 0.005 0
7.84 0.005 0
7.92 0.005 0
8 0.005 0
8.08 0.005 0
8.16 0.005 0
8.24 0.005 0
8.32 0.005 0
8.4 0.005 0
8.48 0.005 0
8.56 0.005 0
8.64 0.005 0
8.72 0.005 0
8.8 0.005 0
8.88 0.005 0
8.96 0.005 0
9.04 0.005 0
9.12 0.005 0
9.2 0.005 0
9.28 0.005 0
9.36 0.005 0
9.44 0.005 0
9.52 0.005 0
9.6 0.005 0
9.68 0.005 0
9.76 0.005 0
9.84 0.005 0
9.92 0.005 0
10 0.005 0
10.08 0.005 0
10.16 0.005 0
10.24 0.005 0
10.32 0.005 0
10.4 0.005 0
10.48 0.005 0
10.56 0.005 0
10.64 0.005 0
10.72 0.005 0
10.8 0.005 0
10.88 0.005 0
10.96 0.005 0
11.04 0.005 0
11.12 0.005 0
11.2 0.005 0
11.28 0.005 0
11.36 0.005 0
11.44 0.005 0
11.52 0.005 0
11.6 0.005 0
11.68 0.005 0
11.76 0.005 0
11.84 0.005 0
11.92 0.005 0
12 0.005 0
12.08 0.005 0
12.16 0.005 0
12.24 0.005 0
12.32 0.005 0
12.4 0.005 0
12.48 0.005 0
12.56 0.005 0
12.64 0.005 0
12.72 0.005 0
12.8 0.005 0
12.88 0.005 0
12.96 0.005 0
13.04 0.005 0
13.12 0.005 0
13.2 0.005 0
13.28 0.005 0
13.36 0.005 0
13.44 0.005 0
13.52 0.005 0
13.6 0.005 0
13.68 0.005 0
13.76 0.005 0
13.84 0.005 0
13.92 0.005 0
14 0.005 0
14.08 0.005 0
14.16 0.005 0
14.24 0.005 0
14.32 0.005 0
14.4 0.005 0
14.48 0.005 0
14.56 0.005 0
14.64 0.005 0
14.72 0.005 0
14.8 0.005 0
14.88 0.005 0
14.96 0.005 0
15.04 0.005 0
15.12 0.005 0
15.2 0.005 0
15.28 0.005 0
15.36 0.005 0
15.44 0.005 0
15.52 0.005 0
15.6 0.005 0
15.68 0.005 0
15.76 0.005 0
15.84 0.005 0
15.92 0.005 0
16 0.005 0
16.08 0.005 0
16.16 0.005 0
16.24 0.005 0
16.32 0.005 0
16.4 0.005 0
16.48 0.005 0
16.56 0.005 0
16.64 0.005 0
16.72 0.005 0
16.8 0.005 0
16.88 0.005 0
16.96 0.005 0
17.04 0.005 0
17.12 0.005 0
17.2 0.005 0
17.28 0.005 0
17.36 0.005 0
17.44 0.005 0
17.52 0.005 0
17.6 0.005 0
17.68 0.005 0
17.76 0.005 0
17.84 0.005 0
17.92 0.005 0
18 0.005 0
18.08 0.005 0
18.16 0.005 0
18.24 0.005 0
18.32 0.005 0
18.4 0.005 0
18.48 0.005 0
18.56 0.005 0
18.64 0.005 0
18.72 0.005 0
18.8 0.005 0
18.88 0.005 0
18.96 0.005 0
19.04 0.005 0
19.12 0.005 0
19.2 0.005 0
19.28 0.005 0
19.36 0.005 0
19.44 0.005 0
19.52 0.005 0
19.6 0.005 0
19.68 0.005 0
19.76 0.005 0
19.84 0.005 0
19.92 0.005 0
20 0.005 0
20.08 0.005 0
20.16 0.005 0
20.24 0.005 0
20.32 0.005 0
20.4 0.005 0
20.48 0.005 0
20.56 0.005 0
20.64 0.005 0
20.72 0.005 0
20.8 0.005 0
20.88 0.005 0
20.96 0.005 0
21.04 0.005 0
21.12 0.005 0
21.2 0.005 0
21.28 0.005 0
21.36 0.005 0
21.44 0.005 0
21.52 0.005 0
21.6 0.005 0
21.68 0.005 0
21.76 0.005 0
21.84 0.005 0
21.92 0.005 0
22 0.005 0
22.08 0.005 0
22.16 0.005 0
22.24 0.005 0
22.32 0.005 0
22.4 0.005 0
22.48 0.005 0
22.56 0.005 0
22.64 0.005 0
22.72 0.005 0
22.8 0.005 0
22.88 0.005 0
22.96 0.005 0
23.04 0.005 0
23.12 0.005 0
23.2 0.005 0
23.28 0.005 0
23.36 0.005 0
23.44 0.005 0
23.52 0.005 0
23.6 0.005 0
23.68 0.005 0
23.76 0.005 0
23.84 0.005 0
23.92 0.005 0
24 0.005 0
24.08 0.005 0
24.16 0.005 0
24.24 0.005 0
24.32 0.005 0
24.4 0.005 0
24.48 0.005 0
24.56 0.005 0
24.64 0.005 0
24.72 0.005 0
24.8 0.005 0
24.88 0.005 0
24.96 0.005 0
25.04 0.005 0
25.12 0.005 0
25.2 0.005 0
25.28 0.005 0
25.36 0.005 0
25.44 0.005 0
25.52 0.005 0
25.6 0.005 0
25.68 0.005 0
25.76 0.005 0
25.84 0.005 0
25.92 0.005 0
26 0.005 0
26.08 0.005 0
26.16 0.005 0
26.24 0.005 0
26.32 0.005 0
26.4 0.005 0
26.48 0.005 0
26.56 0.005 0
26.64 0.005 0
26.72 0.005 0
26.8 0.005 0
26.88 0.005 0
26.96 0.005 0
27.04 0.005 0
27.12 0.005 0
27.2 0.005 0
27.28 0.005 0
27.36 0.005 0
27.44 0.005 0
27.52 0.005 0
27.6 0.005 0
27.68 0.005 0
27.76 0.005 0
27.84 0.005 0
27.92 0.005 0
28 0.005 0
28.08 0.005 0
28.16 0.005 0
28.24 0.005 0
28.32 0.005 0
28.4 0.005 0
28.48 0.005 0
28.56 0.005 0
28.64 0.005 0
28.72 0.005 0
28.8 0.005 0
28.88 0.005 0
28.96 0.005 0
29.04 0.005 0
29.12 0.005 0
29.2 0.005 0
29.28 0.005 0
29.36 0.005 0
29.44 0.005 0
29.52 0.005 0
29.6 0.005 0
29.68 0.005 0
29.76 0.005 0
29.84 0.005 0
29.92 0.005 0
30 0.005 0
30.08 0.005 0
30.16 0.005 0
30.24 0.005 0
30.32 0.005 0
30.4 0.005 0
30.48 0.005 0
30.56 0.005 0
30.64 0.005 0
30.72 0.005 0
30.8 0.005 0
30.88 0.005 0
30.96 0.005 0
31.04 0.005 0
31.12 0.005 0
31.2 0.005 0
31.28 0.005 0
31.36 0.005 0
31.44 0.005 0
31.52 0.005 0
31.6 0.005 0
31.68 0.005 0
31.76 0.005 0
31.84 0.005 0
31.92 0.005 0
0 0.01 0
0.08 0.01 0
0.16 0.01 0
0.24 0.01 0
0.32 0.01 0
0.4 0.01 0
0.48 0.01 0
0.56 0.01 0
0.64 0.01 0
0.72 0.01 0
0.8 0.01 0
0.88 0.01 0
0.96 0.01 0
1.04 0.01 0
1.12 0.01 0
1.2 0.01 0
1.28 0.01 0
1.36 0.01 0
1.44 0.01 0
1.52 0.01 0
1.6 0.01 0
1.68 0.01 0
1.76 0.01 0
1.84 0.01 0
1.92 0.01 0
2 0.01 0
2.08 0.01 0
2.16 0.01 0
2.24 0.01 0
2.32 0.01 0
2.4 0.01 0
2.48 0.01 0
2.56 0.01 0
2.64 0.01 0
2.72 0.01 0
2.8 0.01 0
2.88 0.01 0
2.96 0.01 0
3.04 0.01 0
3.12 0.01 0
3.2 0.01 0
3.28 0.01 0
3.36 0.01 0
3.44 0.01 0
3.52 0.01 0
3.6 0.01 0
3.68 0.01 0
3.76 0.01 0
3.84 0.01 0
3.92 0.01 0
4 0.01 0
4.08 0.01 0
4.16 0.01 0
4.24 0.01 0
4.32 0.01 0
4.4 0.01 0
4.48 0.01 0
4.56 0.01 0
4.64 0.01 0
4.72 0.01 0
4.8 0.01 0
4.88 0.01 0
4.96 0.01 0
5.04 0.01 0
5.12 0.01 0
[...]
POINT_DATA 80000

SCALARS u float 1
LOOKUP_TABLE default
0
-0.131663
-0.0682695
-0.0522964
-0.0444203
-0.0395772
-0.0362602
-0.0338332
-0.0319732
-0.0304966
-0.0292906
-0.0282823
-0.0274228
-0.0266782
-0.0260243
-0.0254434
-0.0249225
-0.0244517
-0.0240231
-0.0236307
-0.0232697
-0.022936
-0.0226265
-0.0223384
-0.0220694
-0.0218176
-0.0215812
-0.0213589
-0.0211492
-0.0209513
-0.0207641
-0.0205868
-0.0204186
-0.0202587
-0.0201066
-0.0199619
-0.0198241
-0.019693
-0.0195679
-0.0194487
-0.0193348
-0.0192262
-0.0191229
-0.0190251
-0.0189328
-0.0188461
-0.0187648
-0.0186888
-0.0186182
-0.0185531
-0.0184934
-0.0184392
-0.0183899
-0.018345
-0.0183037
-0.0182655
-0.01823
-0.0181969
-0.0181663
-0.0181384
-0.0181132
-0.0180906
-0.0180703
-0.0180519
-0.0180348
-0.0180188
-0.0180036
-0.0179892
-0.0179758
-0.0179635
-0.0179525
-0.0179431
-0.0179354
-0.0179292
-0.0179246
-0.0179212
-0.0179189
-0.0179176
-0.0179168
-0.0179166
-0.0179167
-0.0179171
-0.0179176
-0.0179182
-0.0179189
-0.0179196
-0.0179203
-0.0179211
-0.0179219
-0.0179227
-0.0179235
-0.0179243
-0.0179252
-0.017926
-0.0179268
-0.0179276
-0.0179285
-0.0179293
-0.0179301
-0.0179309
-0.0179318
-0.0179326
-0.0179334
-0.0179343
-0.0179351
-0.0179359
-0.0179368
-0.0179376
-0.0179384
-0.0179392
-0.0179401
-0.0179409
-0.0179417
-0.0179426
-0.0179434
-0.0179443
-0.0179451
-0.0179459
-0.0179468
-0.0179476
-0.0179484
-0.0179493
-0.0179501
-0.017951
-0.0179518
-0.0179526
-0.0179535
-0.0179543
-0.0179552
-0.017956
-0.0179568
-0.0179577
-0.0179585
-0.0179594
-0.0179602
-0.0179611
-0.0179619
-0.0179628
-0.0179636
-0.0179644
-0.0179653
-0.0179661
-0.017967
-0.0179678
-0.0179687
-0.0179695
-0.0179704
-0.0179712
-0.0179721
-0.0179729
-0.0179738
-0.0179746
-0.0179755
-0.0179764
-0.0179772
-0.0179781
-0.0179789
-0.0179798
-0.0179806
-0.0179815
-0.0179823
-0.0179832
-0.0179841
-0.0179849
-0.0179858
-0.0179866
-0.0179875
-0.0179883
-0.0179892
-0.0179901
-0.0179909
-0.0179918
-0.0179927
-0.0179935
-0.0179944
-0.0179952
-0.0179961
-0.017997
-0.0179978
-0.0179987
-0.0179996
-0.0180004
-0.0180013
-0.0180022
-0.018003
-0.0180039
-0.0180048
-0.0180056
-0.0180065
-0.0180074
-0.0180083
-0.0180091
-0.01801
-0.0180109
-0.0180117
-0.0180126
-0.0180135
-0.0180144
-0.0180152
-0.0180161
-0.018017
-0.0180179
-0.0180187
-0.0180196
-0.0180205
-0.0180214
-0.0180223
-0.0180231
-0.018024
-0.0180249
-0.0180258
-0.0180267
-0.0180275
-0.0180284
-0.0180293
-0.0180302
-0.0180311
-0.018032
-0.0180328
-0.0180337
-0.0180346
-0.0180355
-0.0180364
-0.0180373
-0.0180382
-0.018039
-0.0180399
-0.0180408
-0.0180417
-0.0180426
-0.0180435
-0.0180444
-0.0180453
-0.0180462
-0.0180471
-0.018048
-0.0180489
-0.0180497
-0.0180506
-0.0180515
-0.0180524
-0.0180533
-0.0180542
-0.0180551
-0.018056
-0.0180569
-0.0180578
-0.0180587
-0.0180596
-0.0180605
-0.0180614
-0.0180623
-0.0180632
-0.0180641
-0.018065
-0.0180659
-0.0180668
-0.0180677
-0.0180686
-0.0180696
-0.0180705
-0.0180714
-0.0180723
-0.0180732
-0.0180741
-0.018075
-0.0180759
-0.0180768
-0.0180777
-0.0180786
-0.0180796
-0.0180805
-0.0180814
-0.0180823
-0.0180832
-0.0180841
-0.018085
-0.018086
-0.0180869
-0.0180878
-0.0180887
-0.0180896
-0.0180905
-0.0180915
-0.0180924
-0.0180933
-0.0180942
-0.0180951
-0.0180961
-0.018097
-0.0180979
-0.0180988
-0.0180997
-0.0181007
-0.0181016
-0.0181025
-0.0181034
-0.0181044
-0.0181053
-0.0181062
-0.0181072
-0.0181081
-0.018109
-0.0181099
-0.0181109
-0.0181118
-0.0181127
-0.0181137
-0.0181146
-0.0181155
-0.0181165
-0.0181174
-0.0181183
-0.0181193
-0.0181202
-0.0181211
-0.0181221
-0.018123
-0.0181239
-0.0181249
-0.0181258
-0.0181268
-0.0181277
-0.0181286
-0.0181296
-0.0181305
-0.0181315
-0.0181324
-0.0181334
-0.0181343
-0.0181352
-0.0181362
-0.0181371
-0.0181381
-0.018139
-0.01814
-0.0181409
-0.0181419
-0.0181428
-0.0181438
-0.0181447
-0.0181457
-0.0181466
-0.0181476
-0.0181485
-0.0181495
-0.0181504
-0.0181514
-0.0181523
-0.0181533
-0.0181542
-0.0181552
-0.0181562
-0.0181571
-0.0181581
-0.018159
-0.01816
-0.018161
-0.0181619
-0.0181629
-0.0181638
-0.0181648
-0.0181658
-0.0181667
-0.0181677
-0.0181687
-0.0181696
-0.0181706
-0.0181715
-0.0181725
-0.0181735
-0.0181745
-0.0181754
-0.0181764
-0.0181774
-0.0181783
-0.0181793
-0.0181803
-0.0181812
-0.0181822
-0.0181832
-0.0181842
-0.0181851
-0.0181861
-0.0181871
-0.0181881
-0.018189
-0.01819
-0.018191
-0.018192
-0.018193
-0.0181939
-0.018195
-0.0181959
-0.0181971
-0.0181977
-0.0181994
-0.0181978
-0.0181978
-0.0181978
1
0.131663
0.0682695
0.0522964
0.0444203
0.0395772
0.0362602
0.0338332
0.0319732
0.0304966
0.0292906
0.0282823
0.0274228
0.0266782
0.0260243
0.0254434
0.0249225
0.0244517
0.0240231
0.0236307
0.0232697
0.022936
0.0226265
0.0223384
0.0220694
0.0218176
0.0215812
0.0213589
0.0211492
0.0209513
0.0207641
0.0205868
0.0204186
0.0202587
0.0201066
0.0199619
0.0198241
0.019693
0.0195679
0.0194487
0.0193348
0.0192262
0.0191229
0.0190251
0.0189328
0.0188461
0.0187648
0.0186888
0.0186182
0.0185531
0.0184934
0.0184392
0.0183899
0.018345
0.0183037
0.0182655
0.01823
0.0181969
0.0181663
0.0181384
0.0181132
0.0180906
0.0180703
0.0180519
0.0180348
0.0180188
0.0180036
0.0179892
0.0179758
0.0179635
0.0179525
0.0179431
0.0179354
0.0179292
0.0179246
0.0179212
0.0179189
0.0179176
0.0179168
0.0179166
0.0179167
0.0179171
0.0179176
0.0179182
0.0179189
0.0179196
0.0179203
0.0179211
0.0179219
0.0179227
0.0179235
0.0179243
0.0179252
0.017926
0.0179268
0.0179276
0.0179285
0.0179293
0.0179301
0.0179309
0.0179318
0.0179326
0.0179334
0.0179343
0.0179351
0.0179359
0.0179368
0.0179376
0.0179384
0.0179392
0.0179401
0.0179409
0.0179417
0.0179426
0.0179434
0.0179443
0.0179451
0.0179459
0.0179468
0.0179476
0.0179484
0.0179493
0.0179501
0.017951
0.0179518
0.0179526
0.0179535
0.0179543
0.0179552
0.017956
0.0179568
0.0179577
0.0179585
0.0179594
0.0179602
0.0179611
0.0179619
0.0179628
0.0179636
0.0179644
0.0179653
0.0179661
0.017967
0.0179678
0.0179687
0.0179695
0.0179704
0.0179712
0.0179721
0.0179729
0.0179738
0.0179746
0.0179755
0.0179764
0.0179772
0.0179781
0.0179789
0.0179798
0.0179806
0.0179815
0.0179823
0.0179832
0.0179841
0.0179849
0.0179858
0.0179866
0.0179875
0.0179883
0.0179892
0.0179901
0.0179909
0.0179918
0.0179927
0.0179935
0.0179944
0.0179952
0.0179961
0.017997
0.0179978
0.0179987
0.0179996
0.0180004
0.0180013
0.0180022
0.018003
0.0180039
0.0180048
0.0180056
0.0180065
0.0180074
0.0180083
0.0180091
0.01801
0.0180109
0.0180117
0.0180126
0.0180135
0.0180144
0.0180152
0.0180161
0.018017
0.0180179
0.0180187
0.0180196
0.0180205
0.0180214
0.0180223
0.0180231
0.018024
0.0180249
0.0180258
0.0180267
0.0180275
0.0180284
0.0180293
0.0180302
0.0180311
0.018032
0.0180328
0.0180337
0.0180346
0.0180355
0.0180364
0.0180373
0.0180382
0.018039
0.0180399
0.0180408
0.0180417
0.0180426
0.0180435
0.0180444
0.0180453
0.0180462
0.0180471
0.018048
0.0180489
0.0180497
0.0180506
0.0180515
0.0180524
0.0180533
0.0180542
0.0180551
0.018056
0.0180569
0.0180578
0.0180587
0.0180596
0.0180605
0.0180614
0.0180623
0.0180632
0.0180641
0.018065
0.0180659
0.0180668
0.0180677
0.0180686
0.0180696
0.0180705
0.0180714
0.0180723
0.0180732
0.0180741
0.018075
0.0180759
0.0180768
0.0180777
0.0180786
0.0180796
0.0180805
0.0180814
0.0180823
0.0180832
0.0180841
0.018085
0.018086
0.0180869
0.0180878
0.0180887
0.0180896
0.0180905
0.0180915
0.0180924
0.0180933
0.0180942
0.0180951
0.0180961
0.018097
0.0180979
0.0180988
0.0180997
0.0181007
0.0181016
0.0181025
0.0181034
0.0181044
0.0181053
0.0181062
0.0181072
0.0181081
0.018109
0.0181099
0.0181109
0.0181118
0.0181127
0.0181137
0.0181146
0.0181155
0.0181165
0.0181174
0.0181183
0.0181193
0.0181202
0.0181211
0.0181221
0.018123
0.0181239
0.0181249
0.0181258
0.0181268
0.0181277
0.0181286
0.0181296
0.0181305
0.0181315
0.0181324
0.0181334
0.0181343
0.0181352
0.0181362
0.0181371
0.0181381
0.018139
0.01814
0.0181409
0.0181419
0.0181428
0.0181438
0.0181447
0.0181457
0.0181466
0.0181476
0.0181485
0.0181495
0.0181504
0.0181514
0.0181523
0.0181533
0.0181542
0.0181552
0.0181562
0.0181571
0.0181581
0.018159
0.01816
0.018161
0.0181619
0.0181629
0.0181638
0.0181648
0.0181658
0.0181667
0.0181677
0.0181687
0.0181696
0.0181706
0.0181715
0.0181725
0.0181735
0.0181745
0.0181754
0.0181764
0.0181774
0.0181783
0.0181793
0.0181803
0.0181812
0.0181822
0.0181832
0.0181842
0.0181851
0.0181861
0.0181871
0.0181881
0.018189
0.01819
0.018191
0.018192
0.018193
0.0181939
0.018195
0.0181959
0.0181971
0.0181977
0.0181994
0.0181978
0.0181978
0.0181978
1
0.344884
0.200668
0.154968
0.131896
0.1176
0.107769
0.10056
0.0950268
0.090631
0.08704
0.0840381
0.0814802
0.0792651
0.0773208
0.0755947
0.0740476
0.0726498
0.071378
0.0702143
0.0691439
0.0681549
0.0672378
0.0663843
0.0655876
0.064842
0.0641423
0.0634841
0.0628638
0.0622781
0.0617243
0.0611999
0.0607024
0.0602297
0.0597802
0.0593526
0.0589457
0.0585584
0.0581895
0.0578376
0.057502
0.0571824
0.0568789
0.0565918
0.0563214
0.0560676
0.05583
0.0556085
0.0554031
0.055214
0.0550411
0.0548838
0.0547409
0.0546106
0.0544908
0.0543799
0.0542767
0.0541809
0.0540926
0.0540122
0.0539395
0.0538743
0.0538154
0.0537618
0.0537123
0.0536658
0.053622
0.0535808
0.0535426
0.0535081
0.0534777
0.0534518
0.0534307
0.0534141
0.0534017
0.0533929
0.0533871
0.0533837
0.0533821
0.0533817
0.0533823
0.0533835
0.0533851
0.053387
0.0533891
0.0533913
0.0533936
0.0533959
0.0533983
0.0534007
0.0534031
0.0534055
0.053408
0.0534104
0.0534129
0.0534153
0.0534178
0.0534203
0.0534227
0.0534252
0.0534277
0.0534301
0.0534326
0.0534351
0.0534375
0.05344
0.0534425
0.053445
0.0534475
0.0534499
0.0534524
0.0534549
0.0534574
0.0534599
0.0534624
0.0534649
0.0534674
0.0534699
0.0534723
0.0534748
0.0534773
0.0534798
0.0534823
0.0534848
0.0534873
0.0534898
0.0534924
0.0534949
0.0534974
0.0534999
0.0535024
0.0535049
0.0535074
0.0535099
0.0535125
0.053515
0.0535175
0.05352
0.0535225
0.0535251
0.0535276
0.0535301
0.0535326
0.0535352
0.0535377
0.0535402
0.0535428
0.0535453
0.0535478
0.0535504
0.0535529
0.0535555
0.053558
0.0535605
0.0535631
0.0535656
0.0535682
0.0535707
0.0535733
0.0535758
0.0535784
0.0535809
0.0535835
0.0535861
0.0535886
0.0535912
0.0535937
0.0535963
0.0535989
0.0536014
0.053604
0.0536066
0.0536091
0.0536117
0.0536143
0.0536169
0.0536194
0.053622
0.0536246
0.0536272
0.0536298
0.0536323
0.0536349
0.0536375
0.0536401
0.0536427
0.0536453
0.0536479
0.0536505
0.0536531
0.0536557
0.0536583
0.0536609
0.0536635
0.0536661
0.0536687
0.0536713
0.0536739
0.0536765
0.0536791
0.0536817
0.0536843
0.0536869
0.0536895
0.0536922
0.0536948
0.0536974
0.0537
0.0537026
0.0537053
0.0537079
0.0537105
0.0537131
0.0537158
0.0537184
0.053721
0.0537237
0.0537263
0.0537289
0.0537316
0.0537342
0.0537369
0.0537395
0.0537422
0.0537448
0.0537475
0.0537501
0.0537528
0.0537554
0.0537581
0.0537607
0.0537634
0.053766
0.0537687
0.0537713
0.053774
0.0537767
0.0537793
0.053782
0.0537847
0.0537873
0.05379
0.0537927
0.0537954
0.053798
0.0538007
0.0538034
0.0538061
0.0538088
0.0538115
0.0538141
0.0538168
0.0538195
0.0538222
0.0538249
0.0538276
0.0538303
0.053833
0.0538357
0.0538384
0.0538411
0.0538438
0.0538465
0.0538492
0.0538519
0.0538546
0.0538573
0.05386
0.0538628
0.0538655
0.0538682
0.0538709
0.0538736
0.0538763
0.0538791
0.0538818
0.0538845
0.0538872
0.05389
0.0538927
0.0538954
0.0538982
0.0539009
0.0539036
0.0539064
0.0539091
0.0539119
0.0539146
0.0539174
0.0539201
0.0539229
0.0539256
0.0539284
0.0539311
0.0539339
0.0539366
0.0539394
0.0539421
0.0539449
0.0539477
0.0539504
0.0539532
0.053956
0.0539587
0.0539615
0.0539643
0.053967
0.0539698
0.0539726
0.0539754
0.0539782
0.0539809
0.0539837
0.0539865
0.0539893
0.0539921
0.0539949
0.0539977
0.0540005
0.0540033
0.0540061
0.0540089
0.0540117
0.0540145
0.0540173
0.0540201
0.0540229
0.0540257
0.0540285
0.0540313
0.0540341
0.0540369
0.0540398
0.0540426
0.0540454
0.0540482
0.054051
0.0540539
0.0540567
0.0540595
0.0540623
0.0540652
0.054068
0.0540709
0.0540737
0.0540765
0.0540794
0.0540822
0.0540851
0.0540879
0.0540907
0.0540936
0.0540964
0.0540993
0.0541022
0.054105
0.0541079
0.0541107
0.0541136
0.0541165
0.0541193
0.0541222
0.054125
0.0541279
0.0541308
0.0541337
0.0541365
0.0541394
0.0541423
0.0541452
0.054148
0.0541509
0.0541538
0.0541567
0.0541596
0.0541625
0.0541654
0.0541683
0.0541712
0.0541741
0.0541769
0.0541799
0.0541827
0.0541857
0.0541886
0.0541915
0.0541944
0.0541974
0.0542002
0.0542032
0.0542061
0.054209
0.0542122
0.0542148
0.0542184
0.0542202
0.054225
0.0542212
0.0542212
0.0542212
1
0.518766
0.327403
0.255349
0.217851
0.194406
0.178214
0.16631
0.157161
0.149887
0.143942
0.138973
0.134739
0.131074
0.127858
0.125004
0.122447
0.120138
0.118038
0.116116
0.11435
0.112718
0.111205
0.109797
0.108483
0.107254
0.1061
0.105015
0.103993
0.103027
0.102115
0.101251
0.100431
0.0996528
0.0989126
0.0982087
0.0975391
0.0969019
0.096295
0.0957166
0.0951652
0.0946406
0.094143
0.0936729
0.0932304
0.0928155
0.0924276
0.0920666
0.0917323
0.091425
0.0911443
0.090889
0.0906569
0.0904452
0.0902504
0.0900701
0.0899025
0.0897472
0.0896043
0.0894742
0.0893566
0.0892509
0.0891554
0.0890683
0.0889877
0.0889122
0.0888414
0.0887753
0.0887144
0.0886597
0.088612
0.0885717
0.088539
0.0885136
0.0884948
0.0884816
0.0884731
0.0884683
0.0884661
0.088466
0.0884672
0.0884694
0.0884722
0.0884754
0.0884789
0.0884826
0.0884863
0.0884902
0.0884942
0.0884981
0.0885021
0.0885062
0.0885102
0.0885143
0.0885184
0.0885224
0.0885265
0.0885306
0.0885347
0.0885388
0.0885429
0.088547
0.0885511
0.0885552
0.0885593
0.0885634
0.0885675
0.0885716
0.0885757
0.0885798
0.0885839
0.088588
0.0885921
0.0885963
0.0886004
0.0886045
0.0886086
0.0886128
0.0886169
0.088621
0.0886252
0.0886293
0.0886335
0.0886376
0.0886418
0.0886459
0.0886501
0.0886542
0.0886584
0.0886625
0.0886667
0.0886708
0.088675
0.0886792
0.0886833
0.0886875
0.0886917
0.0886959
0.0887001
0.0887042
0.0887084
0.0887126
0.0887168
0.088721
0.0887252
0.0887294
0.0887336
0.0887378
0.088742
0.0887462
0.0887504
0.0887546
0.0887588
0.088763
0.0887672
0.0887714
0.0887757
0.0887799
0.0887841
0.0887883
0.0887926
0.0887968
0.088801
0.0888053
0.0888095
0.0888138
0.088818
0.0888222
0.0888265
0.0888307
0.088835
0.0888393
0.0888435
0.0888478
0.088852
0.0888563
0.0888606
0.0888648
0.0888691
0.0888734
0.0888777
0.0888819
0.0888862
0.0888905
0.0888948
0.0888991
0.0889034
0.0889077
0.088912
0.0889162
0.0889206
0.0889249
0.0889292
0.0889335
0.0889378
0.0889421
0.0889464
0.0889507
0.088955
0.0889594
0.0889637
0.088968
0.0889723
0.0889767
0.088981
0.0889853
0.0889897
0.088994
0.0889984
0.0890027
0.0890071
0.0890114
0.0890158
0.0890201
0.0890245
0.0890288
0.0890332
0.0890376
0.0890419
0.0890463
0.0890507
0.0890551
0.0890594
0.0890638
0.0890682
0.0890726
0.089077
0.0890814
0.0890858
0.0890902
0.0890945
0.0890989
0.0891034
0.0891078
0.0891122
0.0891166
0.089121
0.0891254
0.0891298
0.0891342
0.0891387
0.0891431
0.0891475
0.0891519
0.0891564
0.0891608
0.0891653
0.0891697
0.0891741
0.0891786
0.089183
0.0891875
0.0891919
0.0891964
0.0892008
0.0892053
0.0892098
0.0892142
0.0892187
0.0892232
0.0892277
0.0892321
0.0892366
0.0892411
0.0892456
0.0892501
0.0892545
0.089259
0.0892635
0.089268
0.0892725
0.089277
0.0892815
0.089286
0.0892906
0.0892951
0.0892996
0.0893041
0.0893086
0.0893131
0.0893177
0.0893222
0.0893267
0.0893313
0.0893358
0.0893403
0.0893449
0.0893494
0.089354
0.0893585
0.0893631
0.0893676
0.0893722
0.0893767
0.0893813
0.0893859
0.0893904
0.089395
0.0893996
0.0894041
0.0894087
0.0894133
0.0894179
0.0894225
0.089427
0.0894316
0.0894362
0.0894408
0.0894454
0.08945
0.0894546
0.0894592
0.0894639
0.0894685
0.0894731
0.0894777
0.0894823
0.0894869
0.0894916
0.0894962
0.0895008
0.0895055
0.0895101
0.0895147
0.0895194
0.089524
0.0895287
0.0895333
0.089538
0.0895426
0.0895473
0.0895519
0.0895566
0.0895613
0.0895659
0.0895706
0.0895753
0.08958
0.0895846
0.0895893
0.089594
0.0895987
0.0896034
0.0896081
0.0896128
0.0896175
0.0896222
0.0896269
0.0896316
0.0896363
0.089641
0.0896457
0.0896505
0.0896552
0.0896599
0.0896646
0.0896694
0.0896741
0.0896788
0.0896836
0.0896883
0.0896931
0.0896978
0.0897026
0.0897073
0.0897121
0.0897168
0.0897216
0.0897263
0.0897311
0.0897359
0.0897407
0.0897454
0.0897502
0.089755
0.0897598
0.0897645
0.0897694
0.0897741
0.089779
0.0897837
0.0897886
0.0897933
0.0897982
0.0898029
0.0898078
0.0898126
0.0898175
0.0898223
0.0898271
0.089832
0.0898368
0.089842
0.0898464
0.0898523
0.0898555
0.0898631
0.089858
0.089858
0.089858
1
0.660888
0.446896
0.35288
0.302032
0.269853
0.247505
0.231022
0.218332
0.20823
0.199971
0.193065
0.187182
0.18209
0.177623
0.173661
0.170112
0.166908
0.163994
0.16133
0.15888
0.156618
0.154522
0.152571
0.150751
0.149048
0.14745
0.145948
0.144532
0.143196
0.141933
0.140737
0.139603
0.138525
0.137501
0.136528
0.135602
0.134721
0.133882
0.133083
0.132322
0.131598
0.130913
0.130265
0.129657
0.129086
0.128554
0.128059
0.127601
0.127181
0.126797
0.126448
0.126131
0.125842
0.125575
0.125328
0.1251
0.124888
0.124693
0.124516
0.124355
0.124211
0.124081
0.123961
0.123851
0.123748
0.123652
0.123562
0.123481
0.123408
0.123344
0.123291
0.123249
0.123216
0.123192
0.123175
0.123165
0.123159
0.123157
0.123157
0.123159
0.123162
0.123166
0.123171
0.123176
0.123181
0.123186
0.123191
0.123197
0.123202
0.123208
0.123214
0.123219
0.123225
0.123231
0.123236
0.123242
0.123248
0.123253
0.123259
0.123265
0.12327
0.123276
0.123282
0.123287
0.123293
0.123299
0.123305
0.12331
0.123316
0.123322
0.123327
0.123333
0.123339
0.123345
0.12335
0.123356
0.123362
0.123368
0.123373
0.123379
0.123385
0.123391
0.123396
0.123402
0.123408
0.123414
0.123419
0.123425
0.123431
0.123437
0.123443
0.123448
0.123454
0.12346
0.123466
0.123472
0.123477
0.123483
0.123489
0.123495
0.123501
0.123506
0.123512
0.123518
0.123524
0.12353
0.123536
0.123541
0.123547
0.123553
0.123559
0.123565
0.123571
0.123577
0.123582
0.123588
0.123594
0.1236
0.123606
0.123612
0.123618
0.123624
0.123629
0.123635
0.123641
0.123647
0.123653
0.123659
0.123665
0.123671
0.123677
0.123683
0.123689
0.123694
0.1237
0.123706
0.123712
0.123718
0.123724
0.12373
0.123736
0.123742
0.123748
0.123754
0.12376
0.123766
0.123772
0.123778
0.123784
0.12379
0.123796
0.123802
0.123808
0.123814
0.12382
0.123826
0.123832
0.123838
0.123844
0.12385
0.123856
0.123862
0.123868
0.123874
0.12388
0.123886
0.123892
0.123898
0.123904
0.12391
0.123916
0.123922
0.123928
0.123934
0.12394
0.123946
0.123952
0.123958
0.123965
0.123971
0.123977
0.123983
0.123989
0.123995
0.124001
0.124007
0.124013
0.124019
0.124025
0.124032
0.124038
0.124044
0.12405
0.124056
0.124062
0.124068
0.124074
0.124081
0.124087
0.124093
0.124099
0.124105
0.124111
0.124118
0.124124
0.12413
0.124136
0.124142
0.124148
0.124155
0.124161
0.124167
0.124173
0.124179
0.124186
0.124192
0.124198
0.124204
0.12421
0.124217
0.124223
0.124229
0.124235
0.124242
0.124248
0.124254
0.12426
0.124266
0.124273
0.124279
0.124285
0.124292
0.124298
0.124304
0.12431
0.124317
0.124323
0.124329
0.124335
0.124342
0.124348
0.124354
0.124361
0.124367
0.124373
0.12438
0.124386
0.124392
0.124398
0.124405
0.124411
0.124417
0.124424
0.12443
0.124436
0.124443
0.124449
0.124456
0.124462
0.124468
0.124475
0.124481
0.124487
0.124494
0.1245
0.124506
0.124513
0.124519
0.124526
0.124532
0.124538
0.124545
0.124551
0.124558
0.124564
0.124571
0.124577
0.124583
0.12459
0.124596
0.124603
0.124609
0.124616
0.124622
0.124628
0.124635
0.124641
0.124648
0.124654
0.124661
0.124667
0.124674
0.12468
0.124687
0.124693
0.1247
0.124706
0.124713
0.124719
0.124726
0.124732
0.124739
0.124745
0.124752
0.124758
0.124765
0.124771
0.124778
0.124784
0.124791
0.124798
0.124804
0.124811
0.124817
0.124824
0.12483
0.124837
0.124844
0.12485
0.124857
0.124863
0.12487
0.124877
0.124883
0.12489
0.124896
0.124903
0.12491
0.124916
0.124923
0.124929
0.124936
0.124943
0.124949
0.124956
0.124963
0.124969
0.124976
0.124983
0.124989
0.124996
0.125003
0.125009
0.125016
0.125023
0.125029
0.125036
0.125043
0.12505
0.125056
0.125063
0.12507
0.125076
0.125084
0.125089
0.125099
0.125094
0.125094
0.125094
1
0.776803
0.557827
0.44688
0.384104
0.343747
0.315514
0.294609
0.278474
0.265612
0.255087
0.246284
0.238783
0.232291
0.226598
0.221548
0.217027
0.212946
0.209236
0.205845
0.202727
0.199849
0.197181
0.1947
0.192385
0.190219
0.188188
0.186278