# vtk DataFile Version 2.0
FlowField
ASCII
DATASET STRUCTURED_GRID
DIMENSIONS 400 1 200
POINTS 80000 float
0 0 0
0.08 0 0
0.16 0 0
0.24 0 0
0.32 0 0
0.4 0 0
0.48 0 0
0.56 0 0
0.64 0 0
0.72 0 0
0.8 0 0
0.88 0 0
0.96 0 0
1.04 0 0
1.12 0 0
1.2 0 0
1.28 0 0
1.36 0 0
1.44 0 0
1.52 0 0
1.6 0 0
1.68 0 0
1.76 0 0
1.84 0 0
1.92 0 0
2 0 0
2.08 0 0
2.16 0 0
2.24 0 0
2.32 0 0
2.4 0 0
2.48 0 0
2.56 0 0
2.64 0 0
2.72 0 0
2.8 0 0
2.88 0 0
2.96 0 0
3.04 0 0
3.12 0 0
3.2 0 0
3.28 0 0
3.36 0 0
3.44 0 0
3.52 0 0
3.6 0 0
3.68 0 0
3.76 0 0
3.84 0 0
3.92 0 0
4 0 0
4.08 0 0
4.16 0 0
4.24 0 0
4.32 0 0
4.4 0 0
4.48 0 0
4.56 0 0
4.64 0 0
4.72 0 0
4.8 0 0
4.88 0 0
4.96 0 0
5.04 0 0
5.12 0 0
5.2 0 0
5.28 0 0
5.36 0 0
5.44 0 0
5.52 0 0
5.6 0 0
5.68 0 0
5.76 0 0
5.84 0 0
5.92 0 0
6 0 0
6.08 0 0
6.16 0 0
6.24 0 0
6.32 0 0
6.4 0 0
6.48 0 0
6.56 0 0
6.64 0 0
6.72 0 0
6.8 0 0
6.88 0 0
6.96 0 0
7.04 0 0
7.12 0 0
7.2 0 0
7.28 0 0
7.36 0 0
7.44 0 0
7.52 0 0
7.6 0 0
7.68 0 0
7.76 0 0
7.84 0 0
7.92 0 0
8 0 0
8.08 0 0
8.16 0 0
8.24 0 0
8.32 0 0
8.4 0 0
8.48 0 0
8.56 0 0
8.64 0 0
8.72 0 0
8.8 0 0
8.88 0 0
8.96 0 0
9.04 0 0
9.12 0 0
9.2 0 0
9.28 0 0
9.36 0 0
9.44 0 0
9.52 0 0
9.6 0 0
9.68 0 0
9.76 0 0
9.84 0 0
9.92 0 0
10 0 0
10.08 0 0
10.16 0 0
10.24 0 0
10.32 0 0
10.4 0 0
10.48 0 0
10.56 0 0
10.64 0 0
10.72 0 0
10.8 0 0
10.88 0 0
10.96 0 0
11.04 0 0
11.12 0 0
11.2 0 0
11.28 0 0
11.36 0 0
11.44 0 0
11.52 0 0
11.6 0 0
11.68 0 0
11.76 0 0
11.84 0 0
11.92 0 0
12 0 0
12.08 0 0
12.16 0 0
12.24 0 0
12.32 0 0
12.4 0 0
12.48 0 0
12.56 0 0
12.64 0 0
12.72 0 0
12.8 0 0
12.88 0 0
12.96 0 0
13.04 0 0
13.12 0 0
13.2 0 0
13.28 0 0
13.36 0 0
13.44 0 0
13.52 0 0
13.6 0 0
13.68 0 0
13.76 0 0
13.84 0 0
13.92 0 0
14 0 0
14.08 0 0
14.16 0 0
14.24 0 0
14.32 0 0
14.4 0 0
14.48 0 0
14.56 0 0
14.64 0 0
14.72 0 0
14.8 0 0
14.88 0 0
14.96 0 0
15.04 0 0
15.12 0 0
15.2 0 0
15.28 0 0
15.36 0 0
15.44 0 0
15.52 0 0
15.6 0 0
15.68 0 0
15.76 0 0
15.84 0 0
15.92 0 0
16 0 0
16.08 0 0
16.16 0 0
16.24 0 0
16.32 0 0
16.4 0 0
16.48 0 0
16.56 0 0
16.64 0 0
16.72 0 0
16.8 0 0
16.88 0 0
16.96 0 0
17.04 0 0
17.12 0 0
17.2 0 0
17.28 0 0
17.36 0 0
17.44 0 0
17.52 0 0
17.6 0 0
17.68 0 0
17.76 0 0
17.84 0 0
17.92 0 0
18 0 0
18.08 0 0
18.16 0 0
18.24 0 0
18.32 0 0
18.4 0 0
18.48 0 0
18.56 0 0
18.64 0 0
18.72 0 0
18.8 0 0
18.88 0 0
18.96 0 0
19.04 0 0
19.12 0 0
19.2 0 0
19.28 0 0
19.36 0 0
19.44 0 0
19.52 0 0
19.6 0 0
19.68 0 0
19.76 0 0
19.84 0 0
19.92 0 0
20 0 0
20.08 0 0
20.16 0 0
20.24 0 0
20.32 0 0
20.4 0 0
20.48 0 0
20.56 0 0
20.64 0 0
20.72 0 0
20.8 0 0
20.88 0 0
20.96 0 0
21.04 0 0
21.12 0 0
21.2 0 0
21.28 0 0
21.36 0 0
21.44 0 0
21.52 0 0
21.6 0 0
21.68 0 0
21.76 0 0
21.84 0 0
21.92 0 0
22 0 0
22.08 0 0
22.16 0 0
22.24 0 0
22.32 0 0
22.4 0 0
22.48 0 0
22.56 0 0
22.64 0 0
22.72 0 0
22.8 0 0
22.88 0 0
22.96 0 0
23.04 0 0
23.12 0 0
23.2 0 0
23.28 0 0
23.36 0 0
23.44 0 0
23.52 0 0
23.6 0 0
23.68 0 0
23.76 0 0
23.84 0 0
23.92 0 0
24 0 0
24.08 0 0
24.16 0 0
24.24 0 0
24.32 0 0
24.4 0 0
24.48 0 0
24.56 0 0
24.64 0 0
24.72 0 0
24.8 0 0
24.88 0 0
24.96 0 0
25.04 0 0
25.12 0 0
25.2 0 0
25.28 0 0
25.36 0 0
25.44 0 0
25.52 0 0
25.6 0 0
25.68 0 0
25.76 0 0
25.84 0 0
25.92 0 0
26 0 0
26.08 0 0
26.16 0 0
26.24 0 0
26.32 0 0
26.4 0 0
26.48 0 0
26.56 0 0
26.64 0 0
26.72 0 0
26.8 0 0
26.88 0 0
26.96 0 0
27.04 0 0
27.12 0 0
27.2 0 0
27.28 0 0
27.36 0 0
27.44 0 0
27.52 0 0
27.6 0 0
27.68 0 0
27.76 0 0
27.84 0 0
27.92 0 0
28 0 0
28.08 0 0
28.16 0 0
28.24 0 0
28.32 0 0
28.4 0 0
28.48 0 0
28.56 0 0
28.64 0 0
28.72 0 0
28.8 0 0
28.88 0 0
28.96 0 0
29.04 0 0
29.12 0 0
29.2 0 0
29.28 0 0
29.36 0 0
29.44 0 0
29.52 0 0
29.6 0 0
29.68 0 0
29.76 0 0
29.84 0 0
29.92 0 0
30 0 0
30.08 0 0
30.16 0 0
30.24 0 0
30.32 0 0
30.4 0 0
30.48 0 0
30.56 0 0
30.64 0 0
30.72 0 0
30.8 0 0
30.88 0 0
30.96 0 0
31.04 0 0
31.12 0 0
31.2 0 0
31.28 0 0
31.36 0 0
31.44 0 0
31.52 0 0
31.6 0 0
31.68 0 0
31.76 0 0
31.84 0 0
31.92 0 0
0 0.005 0
0.08 0.005 0
0.16 0.005 0
0.24 0.005 0
0.32 0.005 0
0.4 0.005 0
0.48 0.005 0
0.56 0.005 0
0.64 0.005 0
0.72 0.005 0
0.8 0.005 0
0.88 0.005 0
0.96 0.005 0
1.04 0.005 0
1.12 0.005 0
1.2 0.005 0
1.28 0.005 0
1.36 0.005 0
1.44 0.005 0
1.52 0.005 0
1.6 0.005 0
1.68 0.005 0
1.76 0.005 0
1.84 0.005 0
1.92 0.005 0
2 0.005 0
2.08 0.005 0
2.16 0.005 0
2.24 0.005 0
2.32 0.005 0
2.4 0.005 0
2.48 0.005 0
2.56 0.005 0
2.64 0.005 0
2.72 0.005 0
2.8 0.005 0
2.88 0.005 0
2.96 0.005 0
3.04 0.005 0
3.12 0.005 0
3.2 0.005 0
3.28 0.005 0
3.36 0.005 0
3.44 0.005 0
3.52 0.005 0
3.6 0.005 0
3.68 0.005 0
3.76 0.005 0
3.84 0.005 0
3.92 0.005 0
4 0.005 0
4.08 0.005 0
4.16 0.005 0
4.24 0.005 0
4.32 0.005 0
4.4 0.005 0
4.48 0.005 0
4.56 0.005 0
4.64 0.005 0
4.72 0.005 0
4.8 0.005 0
4.88 0.005 0
4.96 0.005 0
5.04 0.005 0
5.12 0.005 0
5.2 0.005 0
5.28 0.005 0
5.36 0.005 0
5.44 0.005 0
5.52 0.005 0
5.6 0.005 0
5.68 0.005 0
5.76 0.005 0
5.84 0.005 0
5.92 0.005 0
6 0.005 0
6.08 0.005 0
6.16 0.005 0
6.24 0.005 0
6.32 0.005 0
6.4 0.005 0
6.48 0.005 0
6.56 0.005 0
6.64 0.005 0
6.72 0.005 0
6.8 0.005 0
6.88 0.005 0
6.96 0.005 0
7.04 0.005 0
7.12 0.005 0
7.2 0.005 0
7.28 0.005 0
7.36 0.005 0
7.44 0.005 0
7.52 0.005 0
7.6 0.005 0
7.68 0.005 0
7.76 0.005 0
7.84 0.005 0
7.92 0.005 0
8 0.005 0
8.08 0.005 0
8.16 0.005 0
8.24 0.005 0
8.32 0.005 0
8.4 0.005 0
8.48 0.005 0
8.56 0.005 0
8.64 0.005 0
8.72 0.005 0
8.8 0.005 0
8.88 0.005 0
8.96 0.005 0
9.04 0.005 0
9.12 0.005 0
9.2 0.005 0
9.28 0.005 0
9.36 0.005 0
9.44 0.005 0
9.52 0.005 0
9.6 0.005 0
9.68 0.005 0
9.76 0.005 0
9.84 0.005 0
9.92 0.005 0
10 0.005 0
10.08 0.005 0
10.16 0.005 0
10.24 0.005 0
10.32 0.005 0
10.4 0.005 0
10.48 0.005 0
10.56 0.005 0
10.64 0.005 0
10.72 0.005 0
10.8 0.005 0
10.88 0.005 0
10.96 0.005 0
11.04 0.005 0
11.12 0.005 0
11.2 0.005 0
11.28 0.005 0
11.36 0.005 0
11.44 0.005 0
11.52 0.005 0
11.6 0.005 0
11.68 0.005 0
11.76 0.005 0
11.84 0.005 0
11.92 0.005 0
12 0.005 0
12.08 0.005 0
12.16 0.005 0
12.24 0.005 0
12.32 0.005 0
12.4 0.005 0
12.48 0.005 0
12.56 0.005 0
12.64 0.005 0
12.72 0.005 0
12.8 0.005 0
12.88 0.005 0
12.96 0.005 0
13.04 0.005 0
13.12 0.005 0
13.2 0.005 0
13.28 0.005 0
13.36 0.005 0
13.44 0.005 0
13.52 0.005 0
13.6 0.005 0
13.68 0.005 0
13.76 0.005 0
13.84 0.005 0
13.92 0.005 0
14 0.005 0
14.08 0.005 0
14.16 0.005 0
14.24 0.005 0
14.32 0.005 0
14.4 0.005 0
14.48 0.005 0
14.56 0.005 0
14.64 0.005 0
14.72 0.005 0
14.8 0.005 0
14.88 0.005 0
14.96 0.005 0
15.04 0.005 0
15.12 0.005 0
15.2 0.005 0
15.28 0.005 0
15.36 0.005 0
15.44 0.005 0
15.52 0.005 0
15.6 0.005 0
15.68 0.005 0
15.76 0.005 0
15.84 0.005 0
15.92 0.005 0
16 0.005 0
16.08 0.005 0
16.16 0.005 0
16.24 0.005 0
16.32 0.005 0
16.4 0.005 0
16.48 0.005 0
16.56 0.005 0
16.64 0.005 0
16.72 0.005 0
16.8 0.005 0
16.88 0.005 0
16.96 0.005 0
17.04 0.005 0
17.12 0.005 0
17.2 0.005 0
17.28 0.005 0
17.36 0.005 0
17.44 0.005 0
17.52 0.005 0
17.6 0.005 0
17.68 0.005 0
17.76 0.005 0
17.84 0.005 0
17.92 0.005 0
18 0.005 0
18.08 0.005 0
18.16 0.005 0
18.24 0.005 0
18.32 0.005 0
18.4 0.005 0
18.48 0.005 0
18.56 0.005 0
18.64 0.005 0
18.72 0.005 0
18.8 0.005 0
18.88 0.005 0
18.96 0.005 0
19.04 0.005 0
19.12 0.005 0
19.2 0.005 0
19.28 0.005 0
19.36 0.005 0
19.44 0.005 0
19.52 0.005 0
19.6 0.005 0
19.68 0.005 0
19.76 0.005 0
19.84 0.005 0
19.92 0.005 0
20 0.005 0
20.08 0.005 0
20.16 0.005 0
20.24 0.005 0
20.32 0.005 0
20.4 0.005 0
20.48 0.005 0
20.56 0.005 0
20.64 0.005 0
20.72 0.005 0
20.8 0.005 0
20.88 0.005 0
20.96 0.005 0
21.04 0.005 0
21.12 0.005 0
21.2 0.005 0
21.28 0.005 0
21.36 0.005 0
21.44 0.005 0
21.52 0.005 0
21.6 0.005 0
21.68 0.005 0
21.76 0.005 0
21.84 0.005 0
21.92 0.005 0
22 0.005 0
22.08 0.005 0
22.16 0.005 0
22.24 0.005 0
22.32 0.005 0
22.4 0.005 0
22.48 0.005 0
22.56 0.005 0
22.64 0.005 0
22.72 0.005 0
22.8 0.005 0
22.88 0.005 0
22.96 0.005 0
23.04 0.005 0
23.12 0.005 0
23.2 0.005 0
23.28 0.005 0
23.36 0.005 0
23.44 0.005 0
23.52 0.005 0
23.6 0.005 0
23.68 0.005 0
23.76 0.005 0
23.84 0.005 0
23.92 0.005 0
24 0.005 0
24.08 0.005 0
24.16 0.005 0
24.24 0.005 0
24.32 0.005 0
24.4 0.005 0
24.48 0.005 0
24.56 0.005 0
24.64 0.005 0
24.72 0.005 0
24.8 0.005 0
24.88 0.005 0
24.96 0.005 0
25.04 0.005 0
25.12 0.005 0
25.2 0.005 0
25.28 0.005 0
25.36 0.005 0
25.44 0.005 0
25.52 0.005 0
25.6 0.005 0
25.68 0.005 0
25.76 0.005 0
25.84 0.005 0
25.92 0.005 0
26 0.005 0
26.08 0.005 0
26.16 0.005 0
26.24 0.005 0
26.32 0.005 0
26.4 0.005 0
26.48 0.005 0
26.56 0.005 0
26.64 0.005 0
26.72 0.005 0
26.8 0.005 0
26.88 0.005 0
26.96 0.005 0
27.04 0.005 0
27.12 0.005 0
27.2 0.005 0
27.28 0.005 0
27.36 0.005 0
27.44 0.005 0
27.52 0.005 0
27.6 0.005 0
27.68 0.005 0
27.76 0.005 0
27.84 0.005 0
27.92 0.005 0
28 0.005 0
28.08 0.005 0
28.16 0.005 0
28.24 0.005 0
28.32 0.005 0
28.4 0.005 0
28.48 0.005 0
28.56 0.005 0
28.64 0.005 0
28.72 0.005 0
28.8 0.005 0
28.88 0.005 0
28.96 0.005 0
29.04 0.005 0
29.12 0.005 0
29.2 0.005 0
29.28 0.005 0
29.36 0.005 0
29.44 0.005 0
29.52 0.005 0
29.6 0.005 0
29.68 0.005 0
29.76 0.005 0
29.84 0.005 0
29.92 0.005 0
30 0.005 0
30.08 0.005 0
30.16 0.005 0
30.24 0.005 0
30.32 0.005 0
30.4 0.005 0
30.48 0.005 0
30.56 0.005 0
30.64 0.005 0
30.72 0.005 0
30.8 0.005 0
30.88 0.005 0
30.96 0.005 0
31.04 0.005 0
31.12 0.005 0
31.2 0.005 0
31.28 0.005 0
31.36 0.005 0
31.44 0.005 0
31.52 0.005 0
31.6 0.005 0
31.68 0.005 0
31.76 0.005 0
31.84 0.005 0
31.92 0.005 0
0 0.01 0
0.08 0.01 0
0.16 0.01 0
0.24 0.01 0
0.32 0.01 0
0.4 0.01 0
0.48 0.01 0
0.56 0.01 0
0.64 0.01 0
0.72 0.01 0
0.8 0.01 0
0.88 0.01 0
0.96 0.01 0
1.04 0.01 0
1.12 0.01 0
1.2 0.01 0
1.28 0.01 0
1.36 0.01 0
1.44 0.01 0
1.52 0.01 0
1.6 0.01 0
1.68 0.01 0
1.76 0.01 0
1.84 0.01 0
1.92 0.01 0
2 0.01 0
2.08 0.01 0
2.16 0.01 0
2.24 0.01 0
2.32 0.01 0
2.4 0.01 0
2.48 0.01 0
2.56 0.01 0
2.64 0.01 0
2.72 0.01 0
2.8 0.01 0
2.88 0.01 0
2.96 0.01 0
3.04 0.01 0
3.12 0.01 0
3.2 0.01 0
3.28 0.01 0
3.36 0.01 0
3.44 0.01 0
3.52 0.01 0
3.6 0.01 0
3.68 0.01 0
3.76 0.01 0
3.84 0.01 0
3.92 0.01 0
4 0.01 0
4.08 0.01 0
4.16 0.01 0
4.24 0.01 0
4.32 0.01 0
4.4 0.01 0
4.48 0.01 0
4.56 0.01 0
4.64 0.01 0
4.72 0.01 0
4.8 0.01 0
4.88 0.01 0
4.96 0.01 0
5.04 0.01 0
5.12 0.01 0
[...]
POINT_DATA 80000

SCALARS u float 1
LOOKUP_TABLE default
0
-0.131664
-0.0683196
-0.0524599
-0.0446917
-0.0399167
-0.0367582
-0.034759
-0.0336417
-0.0331194
-0.0329349
-0.0329124
-0.0329559
-0.0330196
-0.0330837
-0.0331408
-0.0331888
-0.0332286
-0.0332619
-0.0332907
-0.0333163
-0.03334
-0.0333625
-0.0333843
-0.0334057
-0.0334269
-0.033448
-0.033469
-0.0334901
-0.0335112
-0.0335324
-0.0335536
-0.0335748
-0.0335961
-0.0336175
-0.033639
-0.0336605
-0.033682
-0.0337037
-0.0337253
-0.0337471
-0.0337689
-0.0337908
-0.0338127
-0.0338347
-0.0338568
-0.0338789
-0.0339011
-0.0339234
-0.0339457
-0.0339681
-0.0339906
-0.0340131
-0.0340357
-0.0340584
-0.0340812
-0.0341041
-0.0341271
-0.0341502
-0.0341734
-0.0341967
-0.0342202
-0.0342438
-0.0342675
-0.0342914
-0.0343155
-0.0343398
-0.0343644
-0.0343891
-0.0344142
-0.0344396
-0.0344653
-0.0344914
-0.0345179
-0.0345449
-0.0345724
-0.0346004
-0.0346292
-0.0346586
-0.0346888
-0.0347199
-0.034752
-0.0347851
-0.0348194
-0.0348551
-0.0348921
-0.0349307
-0.0349711
-0.0350133
-0.0350576
-0.0351041
-0.035153
-0.0352046
-0.0352591
-0.0353166
-0.0353775
-0.035442
-0.0355103
-0.0355827
-0.0356596
-0.0357411
-0.0358276
-0.0359194
-0.0360167
-0.03612
-0.0362294
-0.0363453
-0.0364681
-0.0365978
-0.036735
-0.0368797
-0.0370323
-0.037193
-0.037362
-0.0375394
-0.0377255
-0.0379203
-0.038124
-0.0383366
-0.038558
-0.0387883
-0.0390274
-0.0392752
-0.0395314
-0.0397959
-0.0400683
-0.0403484
-0.0406358
-0.04093
-0.0412305
-0.0415368
-0.0418483
-0.0421644
-0.0424843
-0.0428075
-0.0431331
-0.0434603
-0.0437883
-0.0441163
-0.0444435
-0.0447688
-0.0450916
-0.0454109
-0.0457258
-0.0460354
-0.0463391
-0.0466358
-0.0469249
-0.0472056
-0.0474771
-0.0477389
-0.0479903
-0.0482308
-0.0484598
-0.0486769
-0.0488818
-0.0490741
-0.0492536
-0.0494201
-0.0495736
-0.0497139
-0.0498412
-0.0499554
-0.0500568
-0.0501456
-0.050222
-0.0502863
-0.0503389
-0.0503803
-0.0504108
-0.050431
-0.0504413
-0.0504423
-0.0504346
-0.0504187
-0.0503952
-0.0503647
-0.0503278
-0.0502851
-0.050237
-0.0501843
-0.0501275
-0.050067
-0.0500035
-0.0499374
-0.0498692
-0.0497994
-0.0497283
-0.0496563
-0.0495839
-0.0495114
-0.0494391
-0.0493672
-0.0492961
-0.049226
-0.049157
-0.0490894
-0.0490233
-0.0489589
-0.0488963
-0.0488355
-0.0487767
-0.04872
-0.0486653
-0.0486127
-0.0485622
-0.0485139
-0.0484676
-0.0484235
-0.0483816
-0.0483416
-0.0483038
-0.0482679
-0.048234
-0.0482021
-0.048172
-0.0481437
-0.0481173
-0.0480925
-0.0480695
-0.0480481
-0.0480283
-0.04801
-0.0479932
-0.0479778
-0.0479638
-0.0479512
-0.0479399
-0.0479298
-0.047921
-0.0479133
-0.0479068
-0.0479014
-0.047897
-0.0478937
-0.0478914
-0.0478901
-0.0478897
-0.0478902
-0.0478917
-0.047894
-0.0478971
-0.0479011
-0.0479059
-0.0479115
-0.0479178
-0.0479248
-0.0479326
-0.0479411
-0.0479503
-0.0479602
-0.0479708
-0.047982
-0.0479938
-0.0480063
-0.0480193
-0.048033
-0.0480473
-0.0480621
-0.0480776
-0.0480935
-0.0481101
-0.0481272
-0.0481448
-0.048163
-0.0481817
-0.0482008
-0.0482206
-0.0482408
-0.0482615
-0.0482827
-0.0483043
-0.0483265
-0.0483491
-0.0483722
-0.0483958
-0.0484198
-0.0484443
-0.0484692
-0.0484946
-0.0485204
-0.0485467
-0.0485734
-0.0486005
-0.048628
-0.048656
-0.0486844
-0.0487132
-0.0487424
-0.0487721
-0.0488021
-0.0488326
-0.0488634
-0.0488947
-0.0489264
-0.0489584
-0.0489909
-0.0490238
-0.049057
-0.0490907
-0.0491247
-0.0491591
-0.0491939
-0.0492291
-0.0492647
-0.0493007
-0.049337
-0.0493737
-0.0494108
-0.0494483
-0.0494862
-0.0495244
-0.049563
-0.049602
-0.0496414
-0.0496812
-0.0497213
-0.0497618
-0.0498027
-0.0498439
-0.0498855
-0.0499276
-0.0499699
-0.0500127
-0.0500558
-0.0500993
-0.0501432
-0.0501875
-0.0502321
-0.0502771
-0.0503225
-0.0503683
-0.0504144
-0.050461
-0.0505079
-0.0505552
-0.0506028
-0.0506509
-0.0506993
-0.0507482
-0.0507974
-0.050847
-0.050897
-0.0509474
-0.0509982
-0.0510494
-0.0511009
-0.0511529
-0.0512053
-0.051258
-0.0513112
-0.0513648
-0.0514187
-0.0514731
-0.0515279
-0.0515831
-0.0516387
-0.0516947
-0.0517512
-0.0518081
-0.0518653
-0.0519231
-0.0519812
-0.0520398
-0.0520988
-0.0521582
-0.0522181
-0.0522784
-0.0523391
-0.0524003
-0.052462
-0.0525241
-0.0525866
-0.0526497
-0.0527131
-0.0527771
-0.0528415
-0.0529064
-0.0529717
-0.0530376
-0.0531039
-0.0531707
-0.053238
-0.0533059
-0.0533742
-0.053443
-0.0535123
-0.0535822
-0.0536525
-0.0537235
-0.053795
-0.0538674
-0.0539393
-0.0540169
-0.0540802
-0.054187
-0.0542153
-0.0543239
-0.0543239
-0.0543239
1
0.131664
0.0683196
0.0524599
0.0446917
0.0399167
0.0367582
0.034759
0.0336417
0.0331194
0.0329349
0.0329124
0.0329559
0.0330196
0.0330837
0.0331408
0.0331888
0.0332286
0.0332619
0.0332907
0.0333163
0.03334
0.0333625
0.0333843
0.0334057
0.0334269
0.033448
0.033469
0.0334901
0.0335112
0.0335324
0.0335536
0.0335748
0.0335961
0.0336175
0.033639
0.0336605
0.033682
0.0337037
0.0337253
0.0337471
0.0337689
0.0337908
0.0338127
0.0338347
0.0338568
0.0338789
0.0339011
0.0339234
0.0339457
0.0339681
0.0339906
0.0340131
0.0340357
0.0340584
0.0340812
0.0341041
0.0341271
0.0341502
0.0341734
0.0341967
0.0342202
0.0342438
0.0342675
0.0342914
0.0343155
0.0343398
0.0343644
0.0343891
0.0344142
0.0344396
0.0344653
0.0344914
0.0345179
0.0345449
0.0345724
0.0346004
0.0346292
0.0346586
0.0346888
0.0347199
0.034752
0.0347851
0.0348194
0.0348551
0.0348921
0.0349307
0.0349711
0.0350133
0.0350576
0.0351041
0.035153
0.0352046
0.0352591
0.0353166
0.0353775
0.035442
0.0355103
0.0355827
0.0356596
0.0357411
0.0358276
0.0359194
0.0360167
0.03612
0.0362294
0.0363453
0.0364681
0.0365978
0.036735
0.0368797
0.0370323
0.037193
0.037362
0.0375394
0.0377255
0.0379203
0.038124
0.0383366
0.038558
0.0387883
0.0390274
0.0392752
0.0395314
0.0397959
0.0400683
0.0403484
0.0406358
0.04093
0.0412305
0.0415368
0.0418483
0.0421644
0.0424843
0.0428075
0.0431331
0.0434603
0.0437883
0.0441163
0.0444435
0.0447688
0.0450916
0.0454109
0.0457258
0.0460354
0.0463391
0.0466358
0.0469249
0.0472056
0.0474771
0.0477389
0.0479903
0.0482308
0.0484598
0.0486769
0.0488818
0.0490741
0.0492536
0.0494201
0.0495736
0.0497139
0.0498412
0.0499554
0.0500568
0.0501456
0.050222
0.0502863
0.0503389
0.0503803
0.0504108
0.050431
0.0504413
0.0504423
0.0504346
0.0504187
0.0503952
0.0503647
0.0503278
0.0502851
0.050237
0.0501843
0.0501275
0.050067
0.0500035
0.0499374
0.0498692
0.0497994
0.0497283
0.0496563
0.0495839
0.0495114
0.0494391
0.0493672
0.0492961
0.049226
0.049157
0.0490894
0.0490233
0.0489589
0.0488963
0.0488355
0.0487767
0.04872
0.0486653
0.0486127
0.0485622
0.0485139
0.0484676
0.0484235
0.0483816
0.0483416
0.0483038
0.0482679
0.048234
0.0482021
0.048172
0.0481437
0.0481173
0.0480925
0.0480695
0.0480481
0.0480283
0.04801
0.0479932
0.0479778
0.0479638
0.0479512
0.0479399
0.0479298
0.047921
0.0479133
0.0479068
0.0479014
0.047897
0.0478937
0.0478914
0.0478901
0.0478897
0.0478902
0.0478917
0.047894
0.0478971
0.0479011
0.0479059
0.0479115
0.0479178
0.0479248
0.0479326
0.0479411
0.0479503
0.0479602
0.0479708
0.047982
0.0479938
0.0480063
0.0480193
0.048033
0.0480473
0.0480621
0.0480776
0.0480935
0.0481101
0.0481272
0.0481448
0.048163
0.0481817
0.0482008
0.0482206
0.0482408
0.0482615
0.0482827
0.0483043
0.0483265
0.0483491
0.0483722
0.0483958
0.0484198
0.0484443
0.0484692
0.0484946
0.0485204
0.0485467
0.0485734
0.0486005
0.048628
0.048656
0.0486844
0.0487132
0.0487424
0.0487721
0.0488021
0.0488326
0.0488634
0.0488947
0.0489264
0.0489584
0.0489909
0.0490238
0.049057
0.0490907
0.0491247
0.0491591
0.0491939
0.0492291
0.0492647
0.0493007
0.049337
0.0493737
0.0494108
0.0494483
0.0494862
0.0495244
0.049563
0.049602
0.0496414
0.0496812
0.0497213
0.0497618
0.0498027
0.0498439
0.0498855
0.0499276
0.0499699
0.0500127
0.0500558
0.0500993
0.0501432
0.0501875
0.0502321
0.0502771
0.0503225
0.0503683
0.0504144
0.050461
0.0505079
0.0505552
0.0506028
0.0506509
0.0506993
0.0507482
0.0507974
0.050847
0.050897
0.0509474
0.0509982
0.0510494
0.0511009
0.0511529
0.0512053
0.051258
0.0513112
0.0513648
0.0514187
0.0514731
0.0515279
0.0515831
0.0516387
0.0516947
0.0517512
0.0518081
0.0518653
0.0519231
0.0519812
0.0520398
0.0520988
0.0521582
0.0522181
0.0522784
0.0523391
0.0524003
0.052462
0.0525241
0.0525866
0.0526497
0.0527131
0.0527771
0.0528415
0.0529064
0.0529717
0.0530376
0.0531039
0.0531707
0.053238
0.0533059
0.0533742
0.053443
0.0535123
0.0535822
0.0536525
0.0537235
0.053795
0.0538674
0.0539393
0.0540169
0.0540802
0.054187
0.0542153
0.0543239
0.0543239
0.0543239
1
0.344887
0.200818
0.155448
0.132676
0.118596
0.109314
0.103479
0.10023
0.0987014
0.0981435
0.0980546
0.0981603
0.0983293
0.0985037
0.0986606
0.098794
0.0989058
0.0990005
0.099083
0.0991574
0.0992266
0.0992925
0.0993567
0.0994197
0.0994822
0.0995445
0.0996067
0.099669
0.0997313
0.0997938
0.0998564
0.0999193
0.0999822
0.100045
0.100109
0.100172
0.100236
0.1003
0.100364
0.100428
0.100492
0.100557
0.100622
0.100687
0.100752
0.100817
0.100883
0.100948
0.101014
0.10108
0.101146
0.101213
0.10128
0.101346
0.101413
0.101481
0.101548
0.101616
0.101684
0.101753
0.101821
0.10189
0.101959
0.102029
0.102099
0.10217
0.102241
0.102312
0.102384
0.102457
0.10253
0.102604
0.102679
0.102755
0.102832
0.10291
0.10299
0.10307
0.103152
0.103236
0.103322
0.10341
0.1035
0.103592
0.103688
0.103786
0.103888
0.103993
0.104103
0.104217
0.104335
0.104459
0.104588
0.104724
0.104866
0.105015
0.105172
0.105337
0.105511
0.105695
0.105889
0.106093
0.106309
0.106538
0.106779
0.107034
0.107303
0.107587
0.107887
0.108203
0.108536
0.108887
0.109256
0.109644
0.110052
0.110479
0.110927
0.111395
0.111883
0.112393
0.112924
0.113477
0.11405
0.114644
0.115259
0.115893
0.116548
0.117221
0.117913
0.118622
0.119347
0.120087
0.120842
0.121609
0.122388
0.123176
0.123973
0.124776
0.125584
0.126395
0.127207
0.128018
0.128826
0.12963
0.130427
0.131215
0.131993
0.132758
0.13351
0.134245
0.134963
0.135662
0.13634
0.136996
0.137628
0.138237
0.138819
0.139375
0.139904
0.140406
0.140878
0.141323
0.141738
0.142125
0.142483
0.142812
0.143114
0.143387
0.143633
0.143853
0.144047
0.144216
0.144361
0.144483
0.144583
0.144663
0.144722
0.144763
0.144787
0.144795
0.144787
0.144766
0.144732
0.144687
0.144631
0.144566
0.144493
0.144413
0.144327
0.144235
0.144139
0.14404
0.143938
0.143834
0.143728
0.143622
0.143516
0.143411
0.143306
0.143202
0.1431
0.143001
0.142903
0.142808
0.142716
0.142628
0.142542
0.142459
0.14238
0.142305
0.142233
0.142165
0.1421
0.142039
0.141981
0.141927
0.141877
0.141831
0.141787
0.141748
0.141711
0.141678
0.141649
0.141622
0.141599
0.141579
0.141562
0.141547
0.141536
0.141527
0.141521
0.141518
0.141518
0.14152
0.141524
0.141531
0.14154
0.141552
0.141566
0.141582
0.1416
0.14162
0.141643
0.141667
0.141693
0.141722
0.141752
0.141784
0.141818
0.141854
0.141891
0.14193
0.141971
0.142014
0.142058
0.142104
0.142151
0.1422
0.142251
0.142303
0.142357
0.142412
0.142468
0.142526
0.142585
0.142646
0.142708
0.142772
0.142837
0.142903
0.142971
0.14304
0.14311
0.143181
0.143254
0.143328
0.143403
0.14348
0.143558
0.143637
0.143717
0.143798
0.143881
0.143965
0.14405
0.144136
0.144223
0.144312
0.144401
0.144492
0.144584
0.144677
0.144771
0.144866
0.144963
0.14506
0.145159
0.145259
0.14536
0.145462
0.145565
0.145669
0.145774
0.14588
0.145988
0.146096
0.146206
0.146316
0.146428
0.146541
0.146654
0.146769
0.146885
0.147002
0.14712
0.14724
0.14736
0.147481
0.147603
0.147727
0.147851
0.147977
0.148103
0.148231
0.14836
0.14849
0.148621
0.148753
0.148886
0.14902
0.149155
0.149291
0.149429
0.149567
0.149707
0.149847
0.149989
0.150132
0.150276
0.150421
0.150567
0.150714
0.150863
0.151012
0.151163
0.151315
0.151468
0.151622
0.151777
0.151933
0.152091
0.152249
0.152409
0.15257
0.152732
0.152896
0.15306
0.153226
0.153393
0.153561
0.15373
0.153901
0.154073
0.154246
0.15442
0.154595
0.154772
0.15495
0.15513
0.15531
0.155492
0.155675
0.15586
0.156046
0.156233
0.156421
0.156611
0.156803
0.156995
0.157189
0.157385
0.157582
0.15778
0.157979
0.158181
0.158383
0.158587
0.158793
0.159
0.159209
0.15942
0.159631
0.159855
0.160044
0.160347
0.16044
0.16078
0.16078
0.16078
1
0.518767
0.327641
0.256123
0.219098
0.196026
0.180815
0.171272
0.16595
0.163415
0.162457
0.162267
0.162403
0.162653
0.162918
0.163161
0.163369
0.163546
0.163697
0.163829
0.163949
0.164061
0.164169
0.164273
0.164376
0.164479
0.164581
0.164682
0.164784
0.164886
0.164988
0.165091
0.165194
0.165297
0.1654
0.165503
0.165607
0.165711
0.165816
0.165921
0.166026
0.166131
0.166237
0.166342
0.166449
0.166555
0.166662
0.166769
0.166876
0.166984
0.167092
0.1672
0.167309
0.167417
0.167527
0.167636
0.167746
0.167856
0.167967
0.168078
0.168189
0.168301
0.168413
0.168526
0.168639
0.168753
0.168867
0.168982
0.169098
0.169215
0.169332
0.16945
0.169569
0.169689
0.169811
0.169933
0.170057
0.170183
0.17031
0.170439
0.170571
0.170704
0.17084
0.170979
0.171121
0.171267
0.171416
0.171569
0.171727
0.17189
0.172058
0.172232
0.172412
0.172599
0.172794
0.172998
0.17321
0.173431
0.173663
0.173906
0.174161
0.174429
0.17471
0.175006
0.175317
0.175645
0.17599
0.176353
0.176735
0.177138
0.177562
0.178008
0.178477
0.17897
0.179488
0.180031
0.180601
0.181197
0.181822
0.182474
0.183155
0.183866
0.184605
0.185373
0.186171
0.186998
0.187854
0.188738
0.18965
0.19059
0.191556
0.192547
0.193562
0.1946
0.195659
0.196738
0.197835
0.198948
0.200075
0.201214
0.202363
0.203519
0.204681
0.205845
0.207009
0.20817
0.209327
0.210476
0.211615
0.212742
0.213853
0.214948
0.216022
0.217075
0.218103
0.219106
0.22008
0.221025
0.221939
0.222821
0.223669
0.224482
0.225259
0.226
0.226704
0.22737
0.227999
0.228591
0.229146
0.229663
0.230144
0.230589
0.230999
0.231374
0.231716
0.232026
0.232305
0.232553
0.232774
0.232966
0.233133
0.233276
0.233395
0.233493
0.233571
0.233631
0.233673
0.233699
0.233711
0.23371
0.233697
0.233673
0.23364
0.233599
0.233551
0.233497
0.233438
0.233374
0.233308
0.233239
0.233168
0.233095
0.233023
0.23295
0.232878
0.232807
0.232738
0.23267
0.232605
0.232542
0.232482
0.232424
0.23237
0.232319
0.232272
0.232228
0.232187
0.232151
0.232118
0.232088
0.232063
0.232041
0.232024
0.232009
0.231999
0.231992
0.23199
0.23199
0.231995
0.232002
0.232014
0.232029
0.232047
0.232068
0.232093
0.232121
0.232153
0.232187
0.232224
0.232265
0.232308
0.232355
0.232404
0.232456
0.232511
0.232569
0.232629
0.232692
0.232758
0.232826
0.232896
0.232969
0.233045
0.233123
0.233204
0.233286
0.233371
0.233459
0.233548
0.23364
0.233734
0.233831
0.233929
0.23403
0.234132
0.234237
0.234344
0.234453
0.234564
0.234677
0.234791
0.234908
0.235027
0.235148
0.235271
0.235395
0.235522
0.23565
0.23578
0.235913
0.236047
0.236182
0.23632
0.236459
0.236601
0.236744
0.236888
0.237035
0.237183
0.237333
0.237485
0.237639
0.237794
0.237951
0.23811
0.23827
0.238432
0.238596
0.238761
0.238929
0.239098
0.239268
0.23944
0.239614
0.23979
0.239967
0.240146
0.240327
0.240509
0.240693
0.240878
0.241065
0.241254
0.241445
0.241637
0.241831
0.242026
0.242223
0.242422
0.242623
0.242825
0.243029
0.243234
0.243441
0.24365
0.24386
0.244072
0.244286
0.244501
0.244719
0.244937
0.245158
0.24538
0.245604
0.245829
0.246057
0.246286
0.246516
0.246749
0.246983
0.247219
0.247456
0.247695
0.247937
0.248179
0.248424
0.24867
0.248918
0.249168
0.24942
0.249674
0.249929
0.250186
0.250445
0.250706
0.250968
0.251233
0.251499
0.251767
0.252037
0.252309
0.252583
0.252859
0.253137
0.253416
0.253698
0.253982
0.254267
0.254555
0.254844
0.255136
0.255429
0.255725
0.256023
0.256322
0.256624
0.256928
0.257234
0.257542
0.257853
0.258165
0.25848
0.258797
0.259116
0.259438
0.259761
0.260087
0.260416
0.260746
0.26108
0.261415
0.261755
0.262093
0.262453
0.262761
0.263237
0.263398
0.263973
0.263973
0.263973
1
0.660881
0.447207
0.353915
0.3037
0.272052
0.25113
0.237989
0.230617
0.227052
0.225645
0.225309
0.22544
0.225743
0.226079
0.226393
0.226666
0.2269
0.227101
0.22728
0.227442
0.227595
0.227741
0.227884
0.228025
0.228165
0.228304
0.228443
0.228582
0.228722
0.228861
0.229002
0.229142
0.229283
0.229424
0.229566
0.229708
0.22985
0.229993
0.230136
0.230279
0.230423
0.230568
0.230712
0.230857
0.231003
0.231149
0.231295
0.231441
0.231588
0.231736
0.231884
0.232032
0.232181
0.23233
0.232479
0.232629
0.232779
0.23293
0.233082
0.233234
0.233386
0.233539
0.233693
0.233847
0.234002
0.234157
0.234313
0.23447
0.234628
0.234787
0.234947
0.235108
0.23527
0.235434
0.235599
0.235766
0.235934
0.236104
0.236276
0.236451
0.236628
0.236808
0.236991
0.237178
0.237368
0.237562
0.237761
0.237965
0.238174
0.238389
0.23861
0.238838
0.239074
0.239318
0.239572
0.239835
0.240108
0.240393
0.24069
0.241
0.241324
0.241663
0.242018
0.24239
0.24278
0.243189
0.243619
0.24407
0.244544
0.245041
0.245564
0.246112
0.246687
0.24729
0.247922
0.248584
0.249277
0.250001
0.250758
0.251548
0.252371
0.253229
0.25412
0.255046
0.256007
0.257002
0.258031
0.259094
0.260191
0.261319
0.262479
0.26367
0.264889
0.266137
0.26741
0.268708
0.270028
0.271369
0.272728
0.274103
0.275491
0.276891
0.278298
0.279711
0.281127
0.282543
0.283957
0.285364
0.286763
0.28815
0.289524
0.29088
0.292217
0.293532
0.294823
0.296087
0.297322
0.298526
0.299697
0.300834
0.301935
0.302999
0.304024
0.30501
0.305956
0.30686
0.307724
0.308546
0.309327
0.310067
0.310766
0.311424
0.312043
0.312622
0.313163
0.313667
0.314135
0.314567
0.314966
0.315333
0.315669
0.315975
0.316254
0.316505
0.316732
0.316935
0.317117
0.317277
0.317419
0.317543
0.317651
0.317744
0.317824
0.317891
0.317948
0.317994
0.318032
0.318063
0.318086
0.318104
0.318117
0.318126
0.318132
0.318135
0.318137
0.318137
0.318136
0.318135
0.318134
0.318134
0.318135
0.318137
0.318141
0.318147
0.318155
0.318165
0.318178
0.318193
0.318212
0.318233
0.318257
0.318285
0.318315
0.318349
0.318386
0.318427
0.31847
0.318517
0.318568
0.318621
0.318678
0.318739
0.318803
0.31887
0.31894
0.319013
0.31909
0.31917
0.319253
0.319339
0.319428
0.319521
0.319616
0.319714
0.319816
0.31992
0.320027
0.320138
0.320251
0.320366
0.320485
0.320606
0.32073
0.320857
0.320987
0.321119
0.321254
0.321391
0.321531
0.321674
0.321819
0.321967
0.322117
0.32227
0.322425
0.322583
0.322743
0.322906
0.323071
0.323238
0.323408
0.32358
0.323754
0.323931
0.32411
0.324291
0.324475
0.324661
0.324849
0.325039
0.325232
0.325427
0.325624
0.325823
0.326025
0.326229
0.326435
0.326643
0.326853
0.327066
0.32728
0.327497
0.327716
0.327937
0.32816
0.328386
0.328613
0.328843
0.329074
0.329308
0.329544
0.329782
0.330022
0.330265
0.330509
0.330756
0.331004
0.331255
0.331508
0.331763
0.33202
0.332279
0.33254
0.332803
0.333069
0.333336
0.333606
0.333878
0.334152
0.334428
0.334706
0.334986
0.335269
0.335553
0.33584
0.336128
0.336419
0.336712
0.337008
0.337305
0.337605
0.337906
0.33821
0.338516
0.338825
0.339135
0.339448
0.339763
0.34008
0.340399
0.340721
0.341044
0.34137
0.341699
0.342029
0.342362
0.342697
0.343035
0.343374
0.343716
0.344061
0.344407
0.344757
0.345108
0.345462
0.345818
0.346177
0.346538
0.346901
0.347267
0.347635
0.348006
0.348379
0.348755
0.349133
0.349514
0.349898
0.350284
0.350672
0.351063
0.351457
0.351853
0.352252
0.352654
0.353058
0.353466
0.353875
0.354288
0.354704
0.355122
0.355543
0.355967
0.356393
0.356823
0.357256
0.357691
0.35813
0.358571
0.359016
0.359464
0.359917
0.360369
0.360847
0.361261
0.361887
0.362112
0.362914
0.362914
0.362914
1
0.776783
0.558191
0.448138
0.386142
0.346472
0.320099
0.303464
0.29405
0.289406
0.287492
0.286955
0.287039
0.287364
0.287751
0.288121
0.288449
0.288733
0.288979
0.289199
0.2894
0.28959
0.289772
0.28995
0.290126
0.290301
0.290475
0.290648
0.290822
0.290996
0.291171
0.291346
0.291521
0.291697
0.291873
0.29205
0.292227
0.292405
0.292583
0.292762
0.292941
0.293121
0.293301
0.293482
0.293663
0.293844
0.294026
0.294209
0.294392
0.294575
0.294759
0.294943
0.295128
0.295314
0.2955
0.295686
0.295873
0.296061
0.296249
0.296437
0.296627
0.296816
0.297007
0.297198
0.29739
0.297583
0.297776
0.29797
0.298166
0.298362
0.298559
0.298757
0.298957
0.299158
0.29936
0.299564
0.299769
0.299977
0.300186
0.300398
0.300612
0.300829
0.301048
0.301271
0.301498
0.301728
0.301963
0.302202
0.302447
0.302697
0.302953
0.303216
0.303487
0.303765
0.304052
0.304348
0.304654
0.304971
0.3053
0.305642
0.305997
0.306368
0.306753
0.307156
0.307576
0.308015
0.308475
0.308955
0.309459
0.309986
0.310538
0.311116
0.311721
0.312355
0.313019