# vtk DataFile Version 2.0
FlowField
ASCII
DATASET STRUCTURED_GRID
DIMENSIONS 400 1 200
POINTS 80000 float
0 0 0
0.08 0 0
0.16 0 0
0.24 0 0
0.32 0 0
0.4 0 0
0.48 0 0
0.56 0 0
0.64 0 0
0.72 0 0
0.8 0 0
0.88 0 0
0.96 0 0
1.04 0 0
1.12 0 0
1.2 0 0
1.28 0 0
1.36 0 0
1.44 0 0
1.52 0 0
1.6 0 0
1.68 0 0
1.76 0 0
1.84 0 0
1.92 0 0
2 0 0
2.08 0 0
2.16 0 0
2.24 0 0
2.32 0 0
2.4 0 0
2.48 0 0
2.56 0 0
2.64 0 0
2.72 0 0
2.8 0 0
2.88 0 0
2.96 0 0
3.04 0 0
3.12 0 0
3.2 0 0
3.28 0 0
3.36 0 0
3.44 0 0
3.52 0 0
3.6 0 0
3.68 0 0
3.76 0 0
3.84 0 0
3.92 0 0
4 0 0
4.08 0 0
4.16 0 0
4.24 0 0
4.32 0 0
4.4 0 0
4.48 0 0
4.56 0 0
4.64 0 0
4.72 0 0
4.8 0 0
4.88 0 0
4.96 0 0
5.04 0 0
5.12 0 0
5.2 0 0
5.28 0 0
5.36 0 0
5.44 0 0
5.52 0 0
5.6 0 0
5.68 0 0
5.76 0 0
5.84 0 0
5.92 0 0
6 0 0
6.08 0 0
6.16 0 0
6.24 0 0
6.32 0 0
6.4 0 0
6.48 0 0
6.56 0 0
6.64 0 0
6.72 0 0
6.8 0 0
6.88 0 0
6.96 0 0
7.04 0 0
7.12 0 0
7.2 0 0
7.28 0 0
7.36 0 0
7.44 0 0
7.52 0 0
7.6 0 0
7.68 0 0
7.76 0 0
7.84 0 0
7.92 0 0
8 0 0
8.08 0 0
8.16 0 0
8.24 0 0
8.32 0 0
8.4 0 0
8.48 0 0
8.56 0 0
8.64 0 0
8.72 0 0
8.8 0 0
8.88 0 0
8.96 0 0
9.04 0 0
9.12 0 0
9.2 0 0
9.28 0 0
9.36 0 0
9.44 0 0
9.52 0 0
9.6 0 0
9.68 0 0
9.76 0 0
9.84 0 0
9.92 0 0
10 0 0
10.08 0 0
10.16 0 0
10.24 0 0
10.32 0 0
10.4 0 0
10.48 0 0
10.56 0 0
10.64 0 0
10.72 0 0
10.8 0 0
10.88 0 0
10.96 0 0
11.04 0 0
11.12 0 0
11.2 0 0
11.28 0 0
11.36 0 0
11.44 0 0
11.52 0 0
11.6 0 0
11.68 0 0
11.76 0 0
11.84 0 0
11.92 0 0
12 0 0
12.08 0 0
12.16 0 0
12.24 0 0
12.32 0 0
12.4 0 0
12.48 0 0
12.56 0 0
12.64 0 0
12.72 0 0
12.8 0 0
12.88 0 0
12.96 0 0
13.04 0 0
13.12 0 0
13.2 0 0
13.28 0 0
13.36 0 0
13.44 0 0
13.52 0 0
13.6 0 0
13.68 0 0
13.76 0 0
13.84 0 0
13.92 0 0
14 0 0
14.08 0 0
14.16 0 0
14.24 0 0
14.32 0 0
14.4 0 0
14.48 0 0
14.56 0 0
14.64 0 0
14.72 0 0
14.8 0 0
14.88 0 0
14.96 0 0
15.04 0 0
15.12 0 0
15.2 0 0
15.28 0 0
15.36 0 0
15.44 0 0
15.52 0 0
15.6 0 0
15.68 0 0
15.76 0 0
15.84 0 0
15.92 0 0
16 0 0
16.08 0 0
16.16 0 0
16.24 0 0
16.32 0 0
16.4 0 0
16.48 0 0
16.56 0 0
16.64 0 0
16.72 0 0
16.8 0 0
16.88 0 0
16.96 0 0
17.04 0 0
17.12 0 0
17.2 0 0
17.28 0 0
17.36 0 0
17.44 0 0
17.52 0 0
17.6 0 0
17.68 0 0
17.76 0 0
17.84 0 0
17.92 0 0
18 0 0
18.08 0 0
18.16 0 0
18.24 0 0
18.32 0 0
18.4 0 0
18.48 0 0
18.56 0 0
18.64 0 0
18.72 0 0
18.8 0 0
18.88 0 0
18.96 0 0
19.04 0 0
19.12 0 0
19.2 0 0
19.28 0 0
19.36 0 0
19.44 0 0
19.52 0 0
19.6 0 0
19.68 0 0
19.76 0 0
19.84 0 0
19.92 0 0
20 0 0
20.08 0 0
20.16 0 0
20.24 0 0
20.32 0 0
20.4 0 0
20.48 0 0
20.56 0 0
20.64 0 0
20.72 0 0
20.8 0 0
20.88 0 0
20.96 0 0
21.04 0 0
21.12 0 0
21.2 0 0
21.28 0 0
21.36 0 0
21.44 0 0
21.52 0 0
21.6 0 0
21.68 0 0
21.76 0 0
21.84 0 0
21.92 0 0
22 0 0
22.08 0 0
22.16 0 0
22.24 0 0
22.32 0 0
22.4 0 0
22.48 0 0
22.56 0 0
22.64 0 0
22.72 0 0
22.8 0 0
22.88 0 0
22.96 0 0
23.04 0 0
23.12 0 0
23.2 0 0
23.28 0 0
23.36 0 0
23.44 0 0
23.52 0 0
23.6 0 0
23.68 0 0
23.76 0 0
23.84 0 0
23.92 0 0
24 0 0
24.08 0 0
24.16 0 0
24.24 0 0
24.32 0 0
24.4 0 0
24.48 0 0
24.56 0 0
24.64 0 0
24.72 0 0
24.8 0 0
24.88 0 0
24.96 0 0
25.04 0 0
25.12 0 0
25.2 0 0
25.28 0 0
25.36 0 0
25.44 0 0
25.52 0 0
25.6 0 0
25.68 0 0
25.76 0 0
25.84 0 0
25.92 0 0
26 0 0
26.08 0 0
26.16 0 0
26.24 0 0
26.32 0 0
26.4 0 0
26.48 0 0
26.56 0 0
26.64 0 0
26.72 0 0
26.8 0 0
26.88 0 0
26.96 0 0
27.04 0 0
27.12 0 0
27.2 0 0
27.28 0 0
27.36 0 0
27.44 0 0
27.52 0 0
27.6 0 0
27.68 0 0
27.76 0 0
27.84 0 0
27.92 0 0
28 0 0
28.08 0 0
28.16 0 0
28.24 0 0
28.32 0 0
28.4 0 0
28.48 0 0
28.56 0 0
28.64 0 0
28.72 0 0
28.8 0 0
28.88 0 0
28.96 0 0
29.04 0 0
29.12 0 0
29.2 0 0
29.28 0 0
29.36 0 0
29.44 0 0
29.52 0 0
29.6 0 0
29.68 0 0
29.76 0 0
29.84 0 0
29.92 0 0
30 0 0
30.08 0 0
30.16 0 0
30.24 0 0
30.32 0 0
30.4 0 0
30.48 0 0
30.56 0 0
30.64 0 0
30.72 0 0
30.8 0 0
30.88 0 0
30.96 0 0
31.04 0 0
31.12 0 0
31.2 0 0
31.28 0 0
31.36 0 0
31.44 0 0
31.52 0 0
31.6 0 0
31.68 0 0
31.76 0 0
31.84 0 0
31.92 0 0
0 0.005 0
0.08 0.005 0
0.16 0.005 0
0.24 0.005 0
0.32 0.005 0
0.4 0.005 0
0.48 0.005 0
0.56 0.005 0
0.64 0.005 0
0.72 0.005 0
0.8 0.005 0
0.88 0.005 0
0.96 0.005 0
1.04 0.005 0
1.12 0.005 0
1.2 0.005 0
1.28 0.005 0
1.36 0.005 0
1.44 0.005 0
1.52 0.005 0
1.6 0.005 0
1.68 0.005 0
1.76 0.005 0
1.84 0.005 0
1.92 0.005 0
2 0.005 0
2.08 0.005 0
2.16 0.005 0
2.24 0.005 0
2.32 0.005 0
2.4 0.005 0
2.48 0.005 0
2.56 0.005 0
2.64 0.005 0
2.72 0.005 0
2.8 0.005 0
2.88 0.005 0
2.96 0.005 0
3.04 0.005 0
3.12 0.005 0
3.2 0.005 0
3.28 0.005 0
3.36 0.005 0
3.44 0.005 0
3.52 0.005 0
3.6 0.005 0
3.68 0.005 0
3.76 0.005 0
3.84 0.005 0
3.92 0.005 0
4 0.005 0
4.08 0.005 0
4.16 0.005 0
4.24 0.005 0
4.32 0.005 0
4.4 0.005 0
4.48 0.005 0
4.56 0.005 0
4.64 0.005 0
4.72 0.005 0
4.8 0.005 0
4.88 0.005 0
4.96 0.005 0
5.04 0.005 0
5.12 0.005 0
5.2 0.005 0
5.28 0.005 0
5.36 0.005 0
5.44 0.005 0
5.52 0.005 0
5.6 0.005 0
5.68 0.005 0
5.76 0.005 0
5.84 0.005 0
5.92 0.005 0
6 0.005 0
6.08 0.005 0
6.16 0.005 0
6.24 0.005 0
6.32 0.005 0
6.4 0.005 0
6.48 0.005 0
6.56 0.005 0
6.64 0.005 0
6.72 0.005 0
6.8 0.005 0
6.88 0.005 0
6.96 0.005 0
7.04 0.005 0
7.12 0.005 0
7.2 0.005 0
7.28 0.005 0
7.36 0.005 0
7.44 0.005 0
7.52 0.005 0
7.6 0.005 0
7.68 0.005 0
7.76 0.005 0
7.84 0.005 0
7.92 0.005 0
8 0.005 0
8.08 0.005 0
8.16 0.005 0
8.24 0.005 0
8.32 0.005 0
8.4 0.005 0
8.48 0.005 0
8.56 0.005 0
8.64 0.005 0
8.72 0.005 0
8.8 0.005 0
8.88 0.005 0
8.96 0.005 0
9.04 0.005 0
9.12 0.005 0
9.2 0.005 0
9.28 0.005 0
9.36 0.005 0
9.44 0.005 0
9.52 0.005 0
9.6 0.005 0
9.68 0.005 0
9.76 0.005 0
9.84 0.005 0
9.92 0.005 0
10 0.005 0
10.08 0.005 0
10.16 0.005 0
10.24 0.005 0
10.32 0.005 0
10.4 0.005 0
10.48 0.005 0
10.56 0.005 0
10.64 0.005 0
10.72 0.005 0
10.8 0.005 0
10.88 0.005 0
10.96 0.005 0
11.04 0.005 0
11.12 0.005 0
11.2 0.005 0
11.28 0.005 0
11.36 0.005 0
11.44 0.005 0
11.52 0.005 0
11.6 0.005 0
11.68 0.005 0
11.76 0.005 0
11.84 0.005 0
11.92 0.005 0
12 0.005 0
12.08 0.005 0
12.16 0.005 0
12.24 0.005 0
12.32 0.005 0
12.4 0.005 0
12.48 0.005 0
12.56 0.005 0
12.64 0.005 0
12.72 0.005 0
12.8 0.005 0
12.88 0.005 0
12.96 0.005 0
13.04 0.005 0
13.12 0.005 0
13.2 0.005 0
13.28 0.005 0
13.36 0.005 0
13.44 0.005 0
13.52 0.005 0
13.6 0.005 0
13.68 0.005 0
13.76 0.005 0
13.84 0.005 0
13.92 0.005 0
14 0.005 0
14.08 0.005 0
14.16 0.005 0
14.24 0.005 0
14.32 0.005 0
14.4 0.005 0
14.48 0.005 0
14.56 0.005 0
14.64 0.005 0
14.72 0.005 0
14.8 0.005 0
14.88 0.005 0
14.96 0.005 0
15.04 0.005 0
15.12 0.005 0
15.2 0.005 0
15.28 0.005 0
15.36 0.005 0
15.44 0.005 0
15.52 0.005 0
15.6 0.005 0
15.68 0.005 0
15.76 0.005 0
15.84 0.005 0
15.92 0.005 0
16 0.005 0
16.08 0.005 0
16.16 0.005 0
16.24 0.005 0
16.32 0.005 0
16.4 0.005 0
16.48 0.005 0
16.56 0.005 0
16.64 0.005 0
16.72 0.005 0
16.8 0.005 0
16.88 0.005 0
16.96 0.005 0
17.04 0.005 0
17.12 0.005 0
17.2 0.005 0
17.28 0.005 0
17.36 0.005 0
17.44 0.005 0
17.52 0.005 0
17.6 0.005 0
17.68 0.005 0
17.76 0.005 0
17.84 0.005 0
17.92 0.005 0
18 0.005 0
18.08 0.005 0
18.16 0.005 0
18.24 0.005 0
18.32 0.005 0
18.4 0.005 0
18.48 0.005 0
18.56 0.005 0
18.64 0.005 0
18.72 0.005 0
18.8 0.005 0
18.88 0.005 0
18.96 0.005 0
19.04 0.005 0
19.12 0.005 0
19.2 0.005 0
19.28 0.005 0
19.36 0.005 0
19.44 0.005 0
19.52 0.005 0
19.6 0.005 0
19.68 0.005 0
19.76 0.005 0
19.84 0.005 0
19.92 0.005 0
20 0.005 0
20.08 0.005 0
20.16 0.005 0
20.24 0.005 0
20.32 0.005 0
20.4 0.005 0
20.48 0.005 0
20.56 0.005 0
20.64 0.005 0
20.72 0.005 0
20.8 0.005 0
20.88 0.005 0
20.96 0.005 0
21.04 0.005 0
21.12 0.005 0
21.2 0.005 0
21.28 0.005 0
21.36 0.005 0
21.44 0.005 0
21.52 0.005 0
21.6 0.005 0
21.68 0.005 0
21.76 0.005 0
21.84 0.005 0
21.92 0.005 0
22 0.005 0
22.08 0.005 0
22.16 0.005 0
22.24 0.005 0
22.32 0.005 0
22.4 0.005 0
22.48 0.005 0
22.56 0.005 0
22.64 0.005 0
22.72 0.005 0
22.8 0.005 0
22.88 0.005 0
22.96 0.005 0
23.04 0.005 0
23.12 0.005 0
23.2 0.005 0
23.28 0.005 0
23.36 0.005 0
23.44 0.005 0
23.52 0.005 0
23.6 0.005 0
23.68 0.005 0
23.76 0.005 0
23.84 0.005 0
23.92 0.005 0
24 0.005 0
24.08 0.005 0
24.16 0.005 0
24.24 0.005 0
24.32 0.005 0
24.4 0.005 0
24.48 0.005 0
24.56 0.005 0
24.64 0.005 0
24.72 0.005 0
24.8 0.005 0
24.88 0.005 0
24.96 0.005 0
25.04 0.005 0
25.12 0.005 0
25.2 0.005 0
25.28 0.005 0
25.36 0.005 0
25.44 0.005 0
25.52 0.005 0
25.6 0.005 0
25.68 0.005 0
25.76 0.005 0
25.84 0.005 0
25.92 0.005 0
26 0.005 0
26.08 0.005 0
26.16 0.005 0
26.24 0.005 0
26.32 0.005 0
26.4 0.005 0
26.48 0.005 0
26.56 0.005 0
26.64 0.005 0
26.72 0.005 0
26.8 0.005 0
26.88 0.005 0
26.96 0.005 0
27.04 0.005 0
27.12 0.005 0
27.2 0.005 0
27.28 0.005 0
27.36 0.005 0
27.44 0.005 0
27.52 0.005 0
27.6 0.005 0
27.68 0.005 0
27.76 0.005 0
27.84 0.005 0
27.92 0.005 0
28 0.005 0
28.08 0.005 0
28.16 0.005 0
28.24 0.005 0
28.32 0.005 0
28.4 0.005 0
28.48 0.005 0
28.56 0.005 0
28.64 0.005 0
28.72 0.005 0
28.8 0.005 0
28.88 0.005 0
28.96 0.005 0
29.04 0.005 0
29.12 0.005 0
29.2 0.005 0
29.28 0.005 0
29.36 0.005 0
29.44 0.005 0
29.52 0.005 0
29.6 0.005 0
29.68 0.005 0
29.76 0.005 0
29.84 0.005 0
29.92 0.005 0
30 0.005 0
30.08 0.005 0
30.16 0.005 0
30.24 0.005 0
30.32 0.005 0
30.4 0.005 0
30.48 0.005 0
30.56 0.005 0
30.64 0.005 0
30.72 0.005 0
30.8 0.005 0
30.88 0.005 0
30.96 0.005 0
31.04 0.005 0
31.12 0.005 0
31.2 0.005 0
31.28 0.005 0
31.36 0.005 0
31.44 0.005 0
31.52 0.005 0
31.6 0.005 0
31.68 0.005 0
31.76 0.005 0
31.84 0.005 0
31.92 0.005 0
0 0.01 0
0.08 0.01 0
0.16 0.01 0
0.24 0.01 0
0.32 0.01 0
0.4 0.01 0
0.48 0.01 0
0.56 0.01 0
0.64 0.01 0
0.72 0.01 0
0.8 0.01 0
0.88 0.01 0
0.96 0.01 0
1.04 0.01 0
1.12 0.01 0
1.2 0.01 0
1.28 0.01 0
1.36 0.01 0
1.44 0.01 0
1.52 0.01 0
1.6 0.01 0
1.68 0.01 0
1.76 0.01 0
1.84 0.01 0
1.92 0.01 0
2 0.01 0
2.08 0.01 0
2.16 0.01 0
2.24 0.01 0
2.32 0.01 0
2.4 0.01 0
2.48 0.01 0
2.56 0.01 0
2.64 0.01 0
2.72 0.01 0
2.8 0.01 0
2.88 0.01 0
2.96 0.01 0
3.04 0.01 0
3.12 0.01 0
3.2 0.01 0
3.28 0.01 0
3.36 0.01 0
3.44 0.01 0
3.52 0.01 0
3.6 0.01 0
3.68 0.01 0
3.76 0.01 0
3.84 0.01 0
3.92 0.01 0
4 0.01 0
4.08 0.01 0
4.16 0.01 0
4.24 0.01 0
4.32 0.01 0
4.4 0.01 0
4.48 0.01 0
4.56 0.01 0
4.64 0.01 0
4.72 0.01 0
4.8 0.01 0
4.88 0.01 0
4.96 0.01 0
5.04 0.01 0
5.12 0.01 0
[...]
POINT_DATA 80000

SCALARS u float 1
LOOKUP_TABLE default
0
-0.131665
-0.0682731
-0.0523013
-0.0444267
-0.039585
-0.0362695
-0.0338441
-0.0319859
-0.0305111
-0.0293072
-0.0283016
-0.0274453
-0.0267042
-0.0260542
-0.0254783
-0.0249638
-0.0245012
-0.0240826
-0.0237019
-0.0233543
-0.0230367
-0.0227474
-0.0224849
-0.0222482
-0.0220362
-0.0218485
-0.0216855
-0.0215477
-0.0214348
-0.0213445
-0.0212728
-0.0212143
-0.0211636
-0.0211168
-0.0210718
-0.0210285
-0.0209882
-0.0209524
-0.0209225
-0.0208992
-0.0208824
-0.0208713
-0.020865
-0.0208622
-0.0208619
-0.0208631
-0.0208652
-0.0208678
-0.0208705
-0.0208732
-0.020876
-0.0208787
-0.0208814
-0.020884
-0.0208866
-0.0208892
-0.0208918
-0.0208944
-0.020897
-0.0208996
-0.0209022
-0.0209048
-0.0209073
-0.0209099
-0.0209124
-0.0209149
-0.0209174
-0.0209199
-0.0209224
-0.0209248
-0.0209273
-0.0209297
-0.0209321
-0.0209346
-0.020937
-0.0209393
-0.0209417
-0.0209441
-0.0209464
-0.0209487
-0.0209511
-0.0209534
-0.0209557
-0.020958
-0.0209602
-0.0209625
-0.0209648
-0.020967
-0.0209692
-0.0209715
-0.0209737
-0.0209759
-0.0209781
-0.0209803
-0.0209825
-0.0209847
-0.0209868
-0.020989
-0.0209912
-0.0209933
-0.0209955
-0.0209976
-0.0209997
-0.0210019
-0.021004
-0.0210061
-0.0210082
-0.0210103
-0.0210124
-0.0210145
-0.0210166
-0.0210187
-0.0210208
-0.0210229
-0.021025
-0.0210271
-0.0210292
-0.0210313
-0.0210333
-0.0210354
-0.0210375
-0.0210396
-0.0210417
-0.0210437
-0.0210458
-0.0210479
-0.02105
-0.0210521
-0.0210541
-0.0210562
-0.0210583
-0.0210604
-0.0210625
-0.0210645
-0.0210666
-0.0210687
-0.0210708
-0.0210729
-0.021075
-0.0210771
-0.0210792
-0.0210813
-0.0210834
-0.0210855
-0.0210876
-0.0210897
-0.0210918
-0.0210939
-0.021096
-0.0210981
-0.0211002
-0.0211023
-0.0211045
-0.0211066
-0.0211087
-0.0211108
-0.021113
-0.0211151
-0.0211172
-0.0211194
-0.0211215
-0.0211237
-0.0211258
-0.021128
-0.0211301
-0.0211323
-0.0211344
-0.0211366
-0.0211388
-0.0211409
-0.0211431
-0.0211453
-0.0211475
-0.0211497
-0.0211518
-0.021154
-0.0211562
-0.0211584
-0.0211606
-0.0211628
-0.021165
-0.0211672
-0.0211694
-0.0211716
-0.0211739
-0.0211761
-0.0211783
-0.0211805
-0.0211827
-0.021185
-0.0211872
-0.0211894
-0.0211917
-0.0211939
-0.0211962
-0.0211984
-0.0212007
-0.0212029
-0.0212052
-0.0212074
-0.0212097
-0.021212
-0.0212142
-0.0212165
-0.0212188
-0.0212211
-0.0212233
-0.0212256
-0.0212279
-0.0212302
-0.0212325
-0.0212348
-0.0212371
-0.0212394
-0.0212417
-0.021244
-0.0212463
-0.0212486
-0.0212509
-0.0212533
-0.0212556
-0.0212579
-0.0212602
-0.0212626
-0.0212649
-0.0212672
-0.0212696
-0.0212719
-0.0212742
-0.0212766
-0.0212789
-0.0212813
-0.0212836
-0.021286
-0.0212884
-0.0212907
-0.0212931
-0.0212955
-0.0212978
-0.0213002
-0.0213026
-0.021305
-0.0213073
-0.0213097
-0.0213121
-0.0213145
-0.0213169
-0.0213193
-0.0213217
-0.0213241
-0.0213265
-0.0213289
-0.0213313
-0.0213337
-0.0213362
-0.0213386
-0.021341
-0.0213434
-0.0213459
-0.0213483
-0.0213507
-0.0213532
-0.0213556
-0.021358
-0.0213605
-0.0213629
-0.0213654
-0.0213678
-0.0213703
-0.0213727
-0.0213752
-0.0213777
-0.0213801
-0.0213826
-0.0213851
-0.0213875
-0.02139
-0.0213925
-0.021395
-0.0213975
-0.0214
-0.0214025
-0.021405
-0.0214074
-0.0214099
-0.0214125
-0.021415
-0.0214175
-0.02142
-0.0214225
-0.021425
-0.0214275
-0.0214301
-0.0214326
-0.0214351
-0.0214376
-0.0214402
-0.0214427
-0.0214453
-0.0214478
-0.0214503
-0.0214529
-0.0214554
-0.021458
-0.0214606
-0.0214631
-0.0214657
-0.0214682
-0.0214708
-0.0214734
-0.021476
-0.0214785
-0.0214811
-0.0214837
-0.0214863
-0.0214889
-0.0214915
-0.0214941
-0.0214967
-0.0214993
-0.0215019
-0.0215045
-0.0215071
-0.0215097
-0.0215123
-0.0215149
-0.0215176
-0.0215202
-0.0215228
-0.0215255
-0.0215281
-0.0215307
-0.0215334
-0.021536
-0.0215387
-0.0215413
-0.021544
-0.0215466
-0.0215493
-0.0215519
-0.0215546
-0.0215573
-0.0215599
-0.0215626
-0.0215653
-0.021568
-0.0215707
-0.0215733
-0.021576
-0.0215787
-0.0215814
-0.0215841
-0.0215868
-0.0215895
-0.0215922
-0.021595
-0.0215977
-0.0216004
-0.0216031
-0.0216058
-0.0216086
-0.0216113
-0.021614
-0.0216168
-0.0216195
-0.0216223
-0.021625
-0.0216278
-0.0216305
-0.0216333
-0.0216361
-0.0216388
-0.0216416
-0.0216443
-0.0216472
-0.0216499
-0.0216527
-0.0216554
-0.0216583
-0.021661
-0.0216639
-0.0216666
-0.0216695
-0.0216722
-0.0216751
-0.0216779
-0.0216807
-0.0216835
-0.0216864
-0.0216892
-0.0216921
-0.021695
-0.0216978
-0.021701
-0.0217033
-0.0217074
-0.0217044
-0.0217044
-0.0217044
1
0.131665
0.0682731
0.0523013
0.0444267
0.039585
0.0362695
0.0338441
0.0319859
0.0305111
0.0293072
0.0283016
0.0274453
0.0267042
0.0260542
0.0254783
0.0249638
0.0245012
0.0240826
0.0237019
0.0233543
0.0230367
0.0227474
0.0224849
0.0222482
0.0220362
0.0218485
0.0216855
0.0215477
0.0214348
0.0213445
0.0212728
0.0212143
0.0211636
0.0211168
0.0210718
0.0210285
0.0209882
0.0209524
0.0209225
0.0208992
0.0208824
0.0208713
0.020865
0.0208622
0.0208619
0.0208631
0.0208652
0.0208678
0.0208705
0.0208732
0.020876
0.0208787
0.0208814
0.020884
0.0208866
0.0208892
0.0208918
0.0208944
0.020897
0.0208996
0.0209022
0.0209048
0.0209073
0.0209099
0.0209124
0.0209149
0.0209174
0.0209199
0.0209224
0.0209248
0.0209273
0.0209297
0.0209321
0.0209346
0.020937
0.0209393
0.0209417
0.0209441
0.0209464
0.0209487
0.0209511
0.0209534
0.0209557
0.020958
0.0209602
0.0209625
0.0209648
0.020967
0.0209692
0.0209715
0.0209737
0.0209759
0.0209781
0.0209803
0.0209825
0.0209847
0.0209868
0.020989
0.0209912
0.0209933
0.0209955
0.0209976
0.0209997
0.0210019
0.021004
0.0210061
0.0210082
0.0210103
0.0210124
0.0210145
0.0210166
0.0210187
0.0210208
0.0210229
0.021025
0.0210271
0.0210292
0.0210313
0.0210333
0.0210354
0.0210375
0.0210396
0.0210417
0.0210437
0.0210458
0.0210479
0.02105
0.0210521
0.0210541
0.0210562
0.0210583
0.0210604
0.0210625
0.0210645
0.0210666
0.0210687
0.0210708
0.0210729
0.021075
0.0210771
0.0210792
0.0210813
0.0210834
0.0210855
0.0210876
0.0210897
0.0210918
0.0210939
0.021096
0.0210981
0.0211002
0.0211023
0.0211045
0.0211066
0.0211087
0.0211108
0.021113
0.0211151
0.0211172
0.0211194
0.0211215
0.0211237
0.0211258
0.021128
0.0211301
0.0211323
0.0211344
0.0211366
0.0211388
0.0211409
0.0211431
0.0211453
0.0211475
0.0211497
0.0211518
0.021154
0.0211562
0.0211584
0.0211606
0.0211628
0.021165
0.0211672
0.0211694
0.0211716
0.0211739
0.0211761
0.0211783
0.0211805
0.0211827
0.021185
0.0211872
0.0211894
0.0211917
0.0211939
0.0211962
0.0211984
0.0212007
0.0212029
0.0212052
0.0212074
0.0212097
0.021212
0.0212142
0.0212165
0.0212188
0.0212211
0.0212233
0.0212256
0.0212279
0.0212302
0.0212325
0.0212348
0.0212371
0.0212394
0.0212417
0.021244
0.0212463
0.0212486
0.0212509
0.0212533
0.0212556
0.0212579
0.0212602
0.0212626
0.0212649
0.0212672
0.0212696
0.0212719
0.0212742
0.0212766
0.0212789
0.0212813
0.0212836
0.021286
0.0212884
0.0212907
0.0212931
0.0212955
0.0212978
0.0213002
0.0213026
0.021305
0.0213073
0.0213097
0.0213121
0.0213145
0.0213169
0.0213193
0.0213217
0.0213241
0.0213265
0.0213289
0.0213313
0.0213337
0.0213362
0.0213386
0.021341
0.0213434
0.0213459
0.0213483
0.0213507
0.0213532
0.0213556
0.021358
0.0213605
0.0213629
0.0213654
0.0213678
0.0213703
0.0213727
0.0213752
0.0213777
0.0213801
0.0213826
0.0213851
0.0213875
0.02139
0.0213925
0.021395
0.0213975
0.0214
0.0214025
0.021405
0.0214074
0.0214099
0.0214125
0.021415
0.0214175
0.02142
0.0214225
0.021425
0.0214275
0.0214301
0.0214326
0.0214351
0.0214376
0.0214402
0.0214427
0.0214453
0.0214478
0.0214503
0.0214529
0.0214554
0.021458
0.0214606
0.0214631
0.0214657
0.0214682
0.0214708
0.0214734
0.021476
0.0214785
0.0214811
0.0214837
0.0214863
0.0214889
0.0214915
0.0214941
0.0214967
0.0214993
0.0215019
0.0215045
0.0215071
0.0215097
0.0215123
0.0215149
0.0215176
0.0215202
0.0215228
0.0215255
0.0215281
0.0215307
0.0215334
0.021536
0.0215387
0.0215413
0.021544
0.0215466
0.0215493
0.0215519
0.0215546
0.0215573
0.0215599
0.0215626
0.0215653
0.021568
0.0215707
0.0215733
0.021576
0.0215787
0.0215814
0.0215841
0.0215868
0.0215895
0.0215922
0.021595
0.0215977
0.0216004
0.0216031
0.0216058
0.0216086
0.0216113
0.021614
0.0216168
0.0216195
0.0216223
0.021625
0.0216278
0.0216305
0.0216333
0.0216361
0.0216388
0.0216416
0.0216443
0.0216472
0.0216499
0.0216527
0.0216554
0.0216583
0.021661
0.0216639
0.0216666
0.0216695
0.0216722
0.0216751
0.0216779
0.0216807
0.0216835
0.0216864
0.0216892
0.0216921
0.021695
0.0216978
0.021701
0.0217033
0.0217074
0.0217044
0.0217044
0.0217044
1
0.344889
0.200677
0.15498
0.131911
0.117619
0.107792
0.100586
0.095058
0.090667
0.0870819
0.0840874
0.0815382
0.0793331
0.0774005
0.0756891
0.0741613
0.0727883
0.0715469
0.0704188
0.0693902
0.0684523
0.0675992
0.0668268
0.0661316
0.0655112
0.0649648
0.0644931
0.0640965
0.0637724
0.0635126
0.0633042
0.0631316
0.0629804
0.0628404
0.062707
0.0625807
0.062465
0.0623642
0.0622814
0.0622179
0.062173
0.0621442
0.0621283
0.0621219
0.0621221
0.0621263
0.0621327
0.0621403
0.0621482
0.0621563
0.0621643
0.0621721
0.0621799
0.0621877
0.0621953
0.062203
0.0622107
0.0622183
0.062226
0.0622336
0.0622412
0.0622489
0.0622564
0.062264
0.0622715
0.062279
0.0622865
0.062294
0.0623014
0.0623088
0.0623162
0.0623235
0.0623308
0.0623381
0.0623453
0.0623525
0.0623597
0.0623668
0.062374
0.062381
0.0623881
0.0623951
0.0624021
0.0624091
0.0624161
0.062423
0.0624299
0.0624368
0.0624436
0.0624505
0.0624573
0.062464
0.0624708
0.0624775
0.0624842
0.0624909
0.0624976
0.0625043
0.0625109
0.0625175
0.0625241
0.0625307
0.0625373
0.0625438
0.0625504
0.0625569
0.0625634
0.0625699
0.0625764
0.0625828
0.0625893
0.0625958
0.0626022
0.0626086
0.0626151
0.0626215
0.0626279
0.0626343
0.0626407
0.0626471
0.0626535
0.0626598
0.0626662
0.0626726
0.062679
0.0626853
0.0626917
0.062698
0.0627044
0.0627108
0.0627171
0.0627235
0.0627298
0.0627362
0.0627426
0.0627489
0.0627553
0.0627616
0.062768
0.0627744
0.0627807
0.0627871
0.0627935
0.0627999
0.0628063
0.0628127
0.062819
0.0628254
0.0628318
0.0628383
0.0628447
0.0628511
0.0628575
0.0628639
0.0628704
0.0628768
0.0628833
0.0628897
0.0628962
0.0629026
0.0629091
0.0629156
0.0629221
0.0629286
0.0629351
0.0629416
0.0629481
0.0629546
0.0629611
0.0629677
0.0629742
0.0629807
0.0629873
0.0629939
0.0630004
0.063007
0.0630136
0.0630202
0.0630268
0.0630334
0.06304
0.0630466
0.0630533
0.0630599
0.0630666
0.0630732
0.0630799
0.0630865
0.0630932
0.0630999
0.0631066
0.0631133
0.06312
0.0631267
0.0631335
0.0631402
0.0631469
0.0631537
0.0631605
0.0631672
0.063174
0.0631808
0.0631876
0.0631944
0.0632012
0.063208
0.0632148
0.0632216
0.0632285
0.0632353
0.0632422
0.063249
0.0632559
0.0632628
0.0632697
0.0632765
0.0632834
0.0632904
0.0632973
0.0633042
0.0633111
0.0633181
0.063325
0.063332
0.0633389
0.0633459
0.0633529
0.0633599
0.0633669
0.0633739
0.0633809
0.0633879
0.0633949
0.063402
0.063409
0.0634161
0.0634231
0.0634302
0.0634372
0.0634443
0.0634514
0.0634585
0.0634656
0.0634727
0.0634799
0.063487
0.0634941
0.0635013
0.0635084
0.0635156
0.0635228
0.0635299
0.0635371
0.0635443
0.0635515
0.0635587
0.0635659
0.0635732
0.0635804
0.0635876
0.0635949
0.0636021
0.0636094
0.0636167
0.0636239
0.0636312
0.0636385
0.0636458
0.0636531
0.0636605
0.0636678
0.0636751
0.0636825
0.0636898
0.0636972
0.0637046
0.0637119
0.0637193
0.0637267
0.0637341
0.0637415
0.0637489
0.0637564
0.0637638
0.0637712
0.0637787
0.0637861
0.0637936
0.0638011
0.0638086
0.0638161
0.0638235
0.0638311
0.0638386
0.0638461
0.0638536
0.0638612
0.0638687
0.0638763
0.0638838
0.0638914
0.063899
0.0639066
0.0639142
0.0639218
0.0639294
0.063937
0.0639446
0.0639523
0.0639599
0.0639676
0.0639752
0.0639829
0.0639906
0.0639983
0.064006
0.0640137
0.0640214
0.0640291
0.0640368
0.0640446
0.0640523
0.0640601
0.0640679
0.0640756
0.0640834
0.0640912
0.064099
0.0641068
0.0641146
0.0641225
0.0641303
0.0641381
0.064146
0.0641538
0.0641617
0.0641696
0.0641775
0.0641854
0.0641933
0.0642012
0.0642091
0.0642171
0.064225
0.0642329
0.0642409
0.0642489
0.0642568
0.0642648
0.0642728
0.0642808
0.0642888
0.0642969
0.0643049
0.0643129
0.064321
0.064329
0.0643371
0.0643452
0.0643533
0.0643614
0.0643695
0.0643776
0.0643857
0.0643939
0.064402
0.0644102
0.0644183
0.0644265
0.0644346
0.0644429
0.064451
0.0644593
0.0644674
0.0644758
0.0644838
0.0644924
0.0645003
0.0645089
0.0645169
0.0645255
0.0645335
0.0645421
0.0645501
0.0645587
0.0645669
0.0645754
0.0645836
0.0645922
0.0646005
0.0646091
0.0646177
0.0646259
0.0646354
0.0646424
0.0646541
0.0646476
0.0646476
0.0646476
1
0.518772
0.327414
0.255365
0.217872
0.194432
0.178246
0.166348
0.157206
0.149939
0.144004
0.139046
0.134826
0.131176
0.12798
0.12515
0.122626
0.120358
0.118308
0.116446
0.114751
0.113207
0.111805
0.110537
0.109397
0.108383
0.107493
0.106727
0.106087
0.105563
0.105143
0.104803
0.104518
0.104267
0.104034
0.103814
0.103608
0.103421
0.103261
0.103131
0.103033
0.102965
0.102921
0.102898
0.10289
0.102891
0.102899
0.10291
0.102922
0.102935
0.102948
0.102961
0.102974
0.102986
0.102999
0.103011
0.103024
0.103036
0.103049
0.103061
0.103074
0.103086
0.103099
0.103111
0.103124
0.103136
0.103149
0.103161
0.103173
0.103185
0.103198
0.10321
0.103222
0.103234
0.103246
0.103258
0.10327
0.103282
0.103294
0.103306
0.103318
0.103329
0.103341
0.103353
0.103365
0.103376
0.103388
0.103399
0.103411
0.103422
0.103434
0.103445
0.103457
0.103468
0.103479
0.103491
0.103502
0.103513
0.103524
0.103536
0.103547
0.103558
0.103569
0.10358
0.103591
0.103602
0.103613
0.103624
0.103635
0.103646
0.103657
0.103668
0.103679
0.10369
0.1037
0.103711
0.103722
0.103733
0.103744
0.103754
0.103765
0.103776
0.103787
0.103798
0.103808
0.103819
0.10383
0.10384
0.103851
0.103862
0.103873
0.103883
0.103894
0.103905
0.103915
0.103926
0.103937
0.103947
0.103958
0.103969
0.10398
0.10399
0.104001
0.104012
0.104022
0.104033
0.104044
0.104055
0.104065
0.104076
0.104087
0.104098
0.104108
0.104119
0.10413
0.104141
0.104151
0.104162
0.104173
0.104184
0.104195
0.104205
0.104216
0.104227
0.104238
0.104249
0.10426
0.10427
0.104281
0.104292
0.104303
0.104314
0.104325
0.104336
0.104347
0.104358
0.104369
0.10438
0.104391
0.104402
0.104413
0.104424
0.104435
0.104446
0.104457
0.104468
0.104479
0.10449
0.104501
0.104512
0.104523
0.104535
0.104546
0.104557
0.104568
0.104579
0.10459
0.104602
0.104613
0.104624
0.104635
0.104646
0.104658
0.104669
0.10468
0.104692
0.104703
0.104714
0.104726
0.104737
0.104748
0.10476
0.104771
0.104782
0.104794
0.104805
0.104817
0.104828
0.10484
0.104851
0.104863
0.104874
0.104886
0.104897
0.104909
0.10492
0.104932
0.104943
0.104955
0.104966
0.104978
0.10499
0.105001
0.105013
0.105025
0.105036
0.105048
0.10506
0.105071
0.105083
0.105095
0.105107
0.105118
0.10513
0.105142
0.105154
0.105165
0.105177
0.105189
0.105201
0.105213
0.105225
0.105236
0.105248
0.10526
0.105272
0.105284
0.105296
0.105308
0.10532
0.105332
0.105344
0.105356
0.105368
0.10538
0.105392
0.105404
0.105416
0.105428
0.10544
0.105452
0.105465
0.105477
0.105489
0.105501
0.105513
0.105525
0.105537
0.10555
0.105562
0.105574
0.105586
0.105599
0.105611
0.105623
0.105636
0.105648
0.10566
0.105672
0.105685
0.105697
0.10571
0.105722
0.105734
0.105747
0.105759
0.105772
0.105784
0.105797
0.105809
0.105822
0.105834
0.105847
0.105859
0.105872
0.105884
0.105897
0.105909
0.105922
0.105935
0.105947
0.10596
0.105972
0.105985
0.105998
0.106011
0.106023
0.106036
0.106049
0.106061
0.106074
0.106087
0.1061
0.106113
0.106125
0.106138
0.106151
0.106164
0.106177
0.10619
0.106203
0.106215
0.106228
0.106241
0.106254
0.106267
0.10628
0.106293
0.106306
0.106319
0.106332
0.106345
0.106358
0.106371
0.106385
0.106398
0.106411
0.106424
0.106437
0.10645
0.106463
0.106477
0.10649
0.106503
0.106516
0.10653
0.106543
0.106556
0.106569
0.106583
0.106596
0.106609
0.106623
0.106636
0.10665
0.106663
0.106676
0.10669
0.106703
0.106717
0.10673
0.106744
0.106757
0.106771
0.106784
0.106798
0.106811
0.106825
0.106838
0.106852
0.106866
0.10688
0.106893
0.106907
0.10692
0.106934
0.106948
0.106962
0.106976
0.10699
0.107003
0.107017
0.107032
0.107045
0.107061
0.107072
0.107091
0.107083
0.107083
0.107083
1
0.660895
0.446909
0.352899
0.302057
0.269885
0.247543
0.231068
0.218386
0.208294
0.200047
0.193156
0.187291
0.182221
0.177781
0.173852
0.170348
0.167201
0.164359
0.161779
0.159432
0.157296
0.155359
0.153608
0.152037
0.150642
0.149422
0.148377
0.147504
0.146791
0.146216
0.145748
0.145353
0.145002
0.144677
0.144372
0.144089
0.143836
0.143621
0.143449
0.14332
0.143232
0.143177
0.143149
0.143139
0.143142
0.143153
0.143168
0.143185
0.143203
0.143221
0.143238
0.143256
0.143273
0.14329
0.143307
0.143324
0.143341
0.143358
0.143375
0.143393
0.14341
0.143427
0.143444
0.143461
0.143478
0.143495
0.143512
0.143529
0.143546
0.143563
0.14358
0.143597
0.143613
0.14363
0.143647
0.143663
0.14368
0.143696
0.143713
0.143729
0.143746
0.143762
0.143778
0.143795
0.143811
0.143827
0.143843
0.143859
0.143875
0.143891
0.143907
0.143923
0.143939
0.143955
0.143971
0.143987
0.144003
0.144018
0.144034
0.14405
0.144065
0.144081
0.144096
0.144112
0.144127
0.144143
0.144158
0.144174
0.144189
0.144205
0.14422
0.144235
0.144251
0.144266
0.144281
0.144296
0.144312
0.144327
0.144342
0.144357
0.144372
0.144388
0.144403
0.144418
0.144433
0.144448
0.144463
0.144478
0.144493
0.144508
0.144523
0.144538
0.144554
0.144569
0.144584
0.144599
0.144614
0.144629
0.144644
0.144659
0.144674
0.144689
0.144704
0.144719
0.144734
0.144749
0.144764
0.144779
0.144794
0.144809
0.144824
0.14484
0.144855
0.14487
0.144885
0.1449
0.144915
0.14493
0.144945
0.14496
0.144976
0.144991
0.145006
0.145021
0.145036
0.145051
0.145067
0.145082
0.145097
0.145112
0.145128
0.145143
0.145158
0.145174
0.145189
0.145204
0.145219
0.145235
0.14525
0.145266
0.145281
0.145296
0.145312
0.145327
0.145343
0.145358
0.145374
0.145389
0.145404
0.14542
0.145436
0.145451
0.145467
0.145482
0.145498
0.145513
0.145529
0.145545
0.14556
0.145576
0.145592
0.145607
0.145623
0.145639
0.145654
0.14567
0.145686
0.145702
0.145718
0.145733
0.145749
0.145765
0.145781
0.145797
0.145813
0.145829
0.145844
0.14586
0.145876
0.145892
0.145908
0.145924
0.14594
0.145956
0.145972
0.145988
0.146005
0.146021
0.146037
0.146053
0.146069
0.146085
0.146101
0.146118
0.146134
0.14615
0.146166
0.146182
0.146199
0.146215
0.146231
0.146248
0.146264
0.14628
0.146297
0.146313
0.14633
0.146346
0.146362
0.146379
0.146395
0.146412
0.146428
0.146445
0.146461
0.146478
0.146494
0.146511
0.146528
0.146544
0.146561
0.146578
0.146594
0.146611
0.146628
0.146644
0.146661
0.146678
0.146695
0.146711
0.146728
0.146745
0.146762
0.146779
0.146796
0.146813
0.146829
0.146846
0.146863
0.14688
0.146897
0.146914
0.146931
0.146948
0.146965
0.146982
0.146999
0.147017
0.147034
0.147051
0.147068
0.147085
0.147102
0.147119
0.147137
0.147154
0.147171
0.147188
0.147206
0.147223
0.14724
0.147258
0.147275
0.147292
0.14731
0.147327
0.147345
0.147362
0.14738
0.147397
0.147415
0.147432
0.14745
0.147467
0.147485
0.147502
0.14752
0.147538
0.147555
0.147573
0.147591
0.147608
0.147626
0.147644
0.147662
0.147679
0.147697
0.147715
0.147733
0.147751
0.147768
0.147786
0.147804
0.147822
0.14784
0.147858
0.147876
0.147894
0.147912
0.14793
0.147948
0.147966
0.147984
0.148002
0.148021
0.148039
0.148057
0.148075
0.148093
0.148112
0.14813
0.148148
0.148166
0.148185
0.148203
0.148221
0.14824
0.148258
0.148276
0.148295
0.148313
0.148332
0.14835
0.148369
0.148387
0.148406
0.148424
0.148443
0.148462
0.14848
0.148499
0.148517
0.148536
0.148555
0.148574
0.148592
0.148612
0.14863
0.148649
0.148667
0.148687
0.148705
0.148725
0.148743
0.148762
0.148781
0.1488
0.148819
0.148839
0.148857
0.148877
0.148896
0.148915
0.148936
0.148953
0.148978
0.148971
0.148971
0.148971
1
0.77681
0.557841
0.446901
0.384132
0.343782
0.315557
0.29466
0.278535
0.265685
0.255174
0.246389
0.238911
0.232446
0.226786
0.22178
0.217316
0.213309
0.209689
0.206407
0.203423
0.200711
0.198251
0.196032
0.194042
0.192278
0.19074
0.189426
0.188332
0.187438
0.186715
0.186122
0.185617
0.185166
0.184749
0.18436
0.184002
0.183686
0.18342
0.18321
0.183054
0.182949
0.182884
0.182852
0.182842
0.182848
0.182862
0.182881
0.182902
0.182924
0.182947
0.182968
0.18299
0.183012
0.183033
0.183054
0.183076
0.183097
0.183119
0.18314
0.183162
0.183183
0.183205
0.183226
0.183248
0.183269
0.183291
0.183312
0.183334
0.183355