# vtk DataFile Version 2.0
FlowField
ASCII
DATASET STRUCTURED_GRID
DIMENSIONS 400 1 200
POINTS 80000 float
0 0 0
0.08 0 0
0.16 0 0
0.24 0 0
0.32 0 0
0.4 0 0
0.48 0 0
0.56 0 0
0.64 0 0
0.72 0 0
0.8 0 0
0.88 0 0
0.96 0 0
1.04 0 0
1.12 0 0
1.2 0 0
1.28 0 0
1.36 0 0
1.44 0 0
1.52 0 0
1.6 0 0
1.68 0 0
1.76 0 0
1.84 0 0
1.92 0 0
2 0 0
2.08 0 0
2.16 0 0
2.24 0 0
2.32 0 0
2.4 0 0
2.48 0 0
2.56 0 0
2.64 0 0
2.72 0 0
2.8 0 0
2.88 0 0
2.96 0 0
3.04 0 0
3.12 0 0
3.2 0 0
3.28 0 0
3.36 0 0
3.44 0 0
3.52 0 0
3.6 0 0
3.68 0 0
3.76 0 0
3.84 0 0
3.92 0 0
4 0 0
4.08 0 0
4.16 0 0
4.24 0 0
4.32 0 0
4.4 0 0
4.48 0 0
4.56 0 0
4.64 0 0
4.72 0 0
4.8 0 0
4.88 0 0
4.96 0 0
5.04 0 0
5.12 0 0
5.2 0 0
5.28 0 0
5.36 0 0
5.44 0 0
5.52 0 0
5.6 0 0
5.68 0 0
5.76 0 0
5.84 0 0
5.92 0 0
6 0 0
6.08 0 0
6.16 0 0
6.24 0 0
6.32 0 0
6.4 0 0
6.48 0 0
6.56 0 0
6.64 0 0
6.72 0 0
6.8 0 0
6.88 0 0
6.96 0 0
7.04 0 0
7.12 0 0
7.2 0 0
7.28 0 0
7.36 0 0
7.44 0 0
7.52 0 0
7.6 0 0
7.68 0 0
7.76 0 0
7.84 0 0
7.92 0 0
8 0 0
8.08 0 0
8.16 0 0
8.24 0 0
8.32 0 0
8.4 0 0
8.48 0 0
8.56 0 0
8.64 0 0
8.72 0 0
8.8 0 0
8.88 0 0
8.96 0 0
9.04 0 0
9.12 0 0
9.2 0 0
9.28 0 0
9.36 0 0
9.44 0 0
9.52 0 0
9.6 0 0
9.68 0 0
9.76 0 0
9.84 0 0
9.92 0 0
10 0 0
10.08 0 0
10.16 0 0
10.24 0 0
10.32 0 0
10.4 0 0
10.48 0 0
10.56 0 0
10.64 0 0
10.72 0 0
10.8 0 0
10.88 0 0
10.96 0 0
11.04 0 0
11.12 0 0
11.2 0 0
11.28 0 0
11.36 0 0
11.44 0 0
11.52 0 0
11.6 0 0
11.68 0 0
11.76 0 0
11.84 0 0
11.92 0 0
12 0 0
12.08 0 0
12.16 0 0
12.24 0 0
12.32 0 0
12.4 0 0
12.48 0 0
12.56 0 0
12.64 0 0
12.72 0 0
12.8 0 0
12.88 0 0
12.96 0 0
13.04 0 0
13.12 0 0
13.2 0 0
13.28 0 0
13.36 0 0
13.44 0 0
13.52 0 0
13.6 0 0
13.68 0 0
13.76 0 0
13.84 0 0
13.92 0 0
14 0 0
14.08 0 0
14.16 0 0
14.24 0 0
14.32 0 0
14.4 0 0
14.48 0 0
14.56 0 0
14.64 0 0
14.72 0 0
14.8 0 0
14.88 0 0
14.96 0 0
15.04 0 0
15.12 0 0
15.2 0 0
15.28 0 0
15.36 0 0
15.44 0 0
15.52 0 0
15.6 0 0
15.68 0 0
15.76 0 0
15.84 0 0
15.92 0 0
16 0 0
16.08 0 0
16.16 0 0
16.24 0 0
16.32 0 0
16.4 0 0
16.48 0 0
16.56 0 0
16.64 0 0
16.72 0 0
16.8 0 0
16.88 0 0
16.96 0 0
17.04 0 0
17.12 0 0
17.2 0 0
17.28 0 0
17.36 0 0
17.44 0 0
17.52 0 0
17.6 0 0
17.68 0 0
17.76 0 0
17.84 0 0
17.92 0 0
18 0 0
18.08 0 0
18.16 0 0
18.24 0 0
18.32 0 0
18.4 0 0
18.48 0 0
18.56 0 0
18.64 0 0
18.72 0 0
18.8 0 0
18.88 0 0
18.96 0 0
19.04 0 0
19.12 0 0
19.2 0 0
19.28 0 0
19.36 0 0
19.44 0 0
19.52 0 0
19.6 0 0
19.68 0 0
19.76 0 0
19.84 0 0
19.92 0 0
20 0 0
20.08 0 0
20.16 0 0
20.24 0 0
20.32 0 0
20.4 0 0
20.48 0 0
20.56 0 0
20.64 0 0
20.72 0 0
20.8 0 0
20.88 0 0
20.96 0 0
21.04 0 0
21.12 0 0
21.2 0 0
21.28 0 0
21.36 0 0
21.44 0 0
21.52 0 0
21.6 0 0
21.68 0 0
21.76 0 0
21.84 0 0
21.92 0 0
22 0 0
22.08 0 0
22.16 0 0
22.24 0 0
22.32 0 0
22.4 0 0
22.48 0 0
22.56 0 0
22.64 0 0
22.72 0 0
22.8 0 0
22.88 0 0
22.96 0 0
23.04 0 0
23.12 0 0
23.2 0 0
23.28 0 0
23.36 0 0
23.44 0 0
23.52 0 0
23.6 0 0
23.68 0 0
23.76 0 0
23.84 0 0
23.92 0 0
24 0 0
24.08 0 0
24.16 0 0
24.24 0 0
24.32 0 0
24.4 0 0
24.48 0 0
24.56 0 0
24.64 0 0
24.72 0 0
24.8 0 0
24.88 0 0
24.96 0 0
25.04 0 0
25.12 0 0
25.2 0 0
25.28 0 0
25.36 0 0
25.44 0 0
25.52 0 0
25.6 0 0
25.68 0 0
25.76 0 0
25.84 0 0
25.92 0 0
26 0 0
26.08 0 0
26.16 0 0
26.24 0 0
26.32 0 0
26.4 0 0
26.48 0 0
26.56 0 0
26.64 0 0
26.72 0 0
26.8 0 0
26.88 0 0
26.96 0 0
27.04 0 0
27.12 0 0
27.2 0 0
27.28 0 0
27.36 0 0
27.44 0 0
27.52 0 0
27.6 0 0
27.68 0 0
27.76 0 0
27.84 0 0
27.92 0 0
28 0 0
28.08 0 0
28.16 0 0
28.24 0 0
28.32 0 0
28.4 0 0
28.48 0 0
28.56 0 0
28.64 0 0
28.72 0 0
28.8 0 0
28.88 0 0
28.96 0 0
29.04 0 0
29.12 0 0
29.2 0 0
29.28 0 0
29.36 0 0
29.44 0 0
29.52 0 0
29.6 0 0
29.68 0 0
29.76 0 0
29.84 0 0
29.92 0 0
30 0 0
30.08 0 0
30.16 0 0
30.24 0 0
30.32 0 0
30.4 0 0
30.48 0 0
30.56 0 0
30.64 0 0
30.72 0 0
30.8 0 0
30.88 0 0
30.96 0 0
31.04 0 0
31.12 0 0
31.2 0 0
31.28 0 0
31.36 0 0
31.44 0 0
31.52 0 0
31.6 0 0
31.68 0 0
31.76 0 0
31.84 0 0
31.92 0 0
0 0.005 0
0.08 0.005 0
0.16 0.005 0
0.24 0.005 0
0.32 0.005 0
0.4 0.005 0
0.48 0.005 0
0.56 0.005 0
0.64 0.005 0
0.72 0.005 0
0.8 0.005 0
0.88 0.005 0
0.96 0.005 0
1.04 0.005 0
1.12 0.005 0
1.2 0.005 0
1.28 0.005 0
1.36 0.005 0
1.44 0.005 0
1.52 0.005 0
1.6 0.005 0
1.68 0.005 0
1.76 0.005 0
1.84 0.005 0
1.92 0.005 0
2 0.005 0
2.08 0.005 0
2.16 0.005 0
2.24 0.005 0
2.32 0.005 0
2.4 0.005 0
2.48 0.005 0
2.56 0.005 0
2.64 0.005 0
2.72 0.005 0
2.8 0.005 0
2.88 0.005 0
2.96 0.005 0
3.04 0.005 0
3.12 0.005 0
3.2 0.005 0
3.28 0.005 0
3.36 0.005 0
3.44 0.005 0
3.52 0.005 0
3.6 0.005 0
3.68 0.005 0
3.76 0.005 0
3.84 0.005 0
3.92 0.005 0
4 0.005 0
4.08 0.005 0
4.16 0.005 0
4.24 0.005 0
4.32 0.005 0
4.4 0.005 0
4.48 0.005 0
4.56 0.005 0
4.64 0.005 0
4.72 0.005 0
4.8 0.005 0
4.88 0.005 0
4.96 0.005 0
5.04 0.005 0
5.12 0.005 0
5.2 0.005 0
5.28 0.005 0
5.36 0.005 0
5.44 0.005 0
5.52 0.005 0
5.6 0.005 0
5.68 0.005 0
5.76 0.005 0
5.84 0.005 0
5.92 0.005 0
6 0.005 0
6.08 0.005 0
6.16 0.005 0
6.24 0.005 0
6.32 0.005 0
6.4 0.005 0
6.48 0.005 0
6.56 0.005 0
6.64 0.005 0
6.72 0.005 0
6.8 0.005 0
6.88 0.005 0
6.96 0.005 0
7.04 0.005 0
7.12 0.005 0
7.2 0.005 0
7.28 0.005 0
7.36 0.005 0
7.44 0.005 0
7.52 0.005 0
7.6 0.005 0
7.68 0.005 0
7.76 0.005 0
7.84 0.005 0
7.92 0.005 0
8 0.005 0
8.08 0.005 0
8.16 0.005 0
8.24 0.005 0
8.32 0.005 0
8.4 0.005 0
8.48 0.005 0
8.56 0.005 0
8.64 0.005 0
8.72 0.005 0
8.8 0.005 0
8.88 0.005 0
8.96 0.005 0
9.04 0.005 0
9.12 0.005 0
9.2 0.005 0
9.28 0.005 0
9.36 0.005 0
9.44 0.005 0
9.52 0.005 0
9.6 0.005 0
9.68 0.005 0
9.76 0.005 0
9.84 0.005 0
9.92 0.005 0
10 0.005 0
10.08 0.005 0
10.16 0.005 0
10.24 0.005 0
10.32 0.005 0
10.4 0.005 0
10.48 0.005 0
10.56 0.005 0
10.64 0.005 0
10.72 0.005 0
10.8 0.005 0
10.88 0.005 0
10.96 0.005 0
11.04 0.005 0
11.12 0.005 0
11.2 0.005 0
11.28 0.005 0
11.36 0.005 0
11.44 0.005 0
11.52 0.005 0
11.6 0.005 0
11.68 0.005 0
11.76 0.005 0
11.84 0.005 0
11.92 0.005 0
12 0.005 0
12.08 0.005 0
12.16 0.005 0
12.24 0.005 0
12.32 0.005 0
12.4 0.005 0
12.48 0.005 0
12.56 0.005 0
12.64 0.005 0
12.72 0.005 0
12.8 0.005 0
12.88 0.005 0
12.96 0.005 0
13.04 0.005 0
13.12 0.005 0
13.2 0.005 0
13.28 0.005 0
13.36 0.005 0
13.44 0.005 0
13.52 0.005 0
13.6 0.005 0
13.68 0.005 0
13.76 0.005 0
13.84 0.005 0
13.92 0.005 0
14 0.005 0
14.08 0.005 0
14.16 0.005 0
14.24 0.005 0
14.32 0.005 0
14.4 0.005 0
14.48 0.005 0
14.56 0.005 0
14.64 0.005 0
14.72 0.005 0
14.8 0.005 0
14.88 0.005 0
14.96 0.005 0
15.04 0.005 0
15.12 0.005 0
15.2 0.005 0
15.28 0.005 0
15.36 0.005 0
15.44 0.005 0
15.52 0.005 0
15.6 0.005 0
15.68 0.005 0
15.76 0.005 0
15.84 0.005 0
15.92 0.005 0
16 0.005 0
16.08 0.005 0
16.16 0.005 0
16.24 0.005 0
16.32 0.005 0
16.4 0.005 0
16.48 0.005 0
16.56 0.005 0
16.64 0.005 0
16.72 0.005 0
16.8 0.005 0
16.88 0.005 0
16.96 0.005 0
17.04 0.005 0
17.12 0.005 0
17.2 0.005 0
17.28 0.005 0
17.36 0.005 0
17.44 0.005 0
17.52 0.005 0
17.6 0.005 0
17.68 0.005 0
17.76 0.005 0
17.84 0.005 0
17.92 0.005 0
18 0.005 0
18.08 0.005 0
18.16 0.005 0
18.24 0.005 0
18.32 0.005 0
18.4 0.005 0
18.48 0.005 0
18.56 0.005 0
18.64 0.005 0
18.72 0.005 0
18.8 0.005 0
18.88 0.005 0
18.96 0.005 0
19.04 0.005 0
19.12 0.005 0
19.2 0.005 0
19.28 0.005 0
19.36 0.005 0
19.44 0.005 0
19.52 0.005 0
19.6 0.005 0
19.68 0.005 0
19.76 0.005 0
19.84 0.005 0
19.92 0.005 0
20 0.005 0
20.08 0.005 0
20.16 0.005 0
20.24 0.005 0
20.32 0.005 0
20.4 0.005 0
20.48 0.005 0
20.56 0.005 0
20.64 0.005 0
20.72 0.005 0
20.8 0.005 0
20.88 0.005 0
20.96 0.005 0
21.04 0.005 0
21.12 0.005 0
21.2 0.005 0
21.28 0.005 0
21.36 0.005 0
21.44 0.005 0
21.52 0.005 0
21.6 0.005 0
21.68 0.005 0
21.76 0.005 0
21.84 0.005 0
21.92 0.005 0
22 0.005 0
22.08 0.005 0
22.16 0.005 0
22.24 0.005 0
22.32 0.005 0
22.4 0.005 0
22.48 0.005 0
22.56 0.005 0
22.64 0.005 0
22.72 0.005 0
22.8 0.005 0
22.88 0.005 0
22.96 0.005 0
23.04 0.005 0
23.12 0.005 0
23.2 0.005 0
23.28 0.005 0
23.36 0.005 0
23.44 0.005 0
23.52 0.005 0
23.6 0.005 0
23.68 0.005 0
23.76 0.005 0
23.84 0.005 0
23.92 0.005 0
24 0.005 0
24.08 0.005 0
24.16 0.005 0
24.24 0.005 0
24.32 0.005 0
24.4 0.005 0
24.48 0.005 0
24.56 0.005 0
24.64 0.005 0
24.72 0.005 0
24.8 0.005 0
24.88 0.005 0
24.96 0.005 0
25.04 0.005 0
25.12 0.005 0
25.2 0.005 0
25.28 0.005 0
25.36 0.005 0
25.44 0.005 0
25.52 0.005 0
25.6 0.005 0
25.68 0.005 0
25.76 0.005 0
25.84 0.005 0
25.92 0.005 0
26 0.005 0
26.08 0.005 0
26.16 0.005 0
26.24 0.005 0
26.32 0.005 0
26.4 0.005 0
26.48 0.005 0
26.56 0.005 0
26.64 0.005 0
26.72 0.005 0
26.8 0.005 0
26.88 0.005 0
26.96 0.005 0
27.04 0.005 0
27.12 0.005 0
27.2 0.005 0
27.28 0.005 0
27.36 0.005 0
27.44 0.005 0
27.52 0.005 0
27.6 0.005 0
27.68 0.005 0
27.76 0.005 0
27.84 0.005 0
27.92 0.005 0
28 0.005 0
28.08 0.005 0
28.16 0.005 0
28.24 0.005 0
28.32 0.005 0
28.4 0.005 0
28.48 0.005 0
28.56 0.005 0
28.64 0.005 0
28.72 0.005 0
28.8 0.005 0
28.88 0.005 0
28.96 0.005 0
29.04 0.005 0
29.12 0.005 0
29.2 0.005 0
29.28 0.005 0
29.36 0.005 0
29.44 0.005 0
29.52 0.005 0
29.6 0.005 0
29.68 0.005 0
29.76 0.005 0
29.84 0.005 0
29.92 0.005 0
30 0.005 0
30.08 0.005 0
30.16 0.005 0
30.24 0.005 0
30.32 0.005 0
30.4 0.005 0
30.48 0.005 0
30.56 0.005 0
30.64 0.005 0
30.72 0.005 0
30.8 0.005 0
30.88 0.005 0
30.96 0.005 0
31.04 0.005 0
31.12 0.005 0
31.2 0.005 0
31.28 0.005 0
31.36 0.005 0
31.44 0.005 0
31.52 0.005 0
31.6 0.005 0
31.68 0.005 0
31.76 0.005 0
31.84 0.005 0
31.92 0.005 0
0 0.01 0
0.08 0.01 0
0.16 0.01 0
0.24 0.01 0
0.32 0.01 0
0.4 0.01 0
0.48 0.01 0
0.56 0.01 0
0.64 0.01 0
0.72 0.01 0
0.8 0.01 0
0.88 0.01 0
0.96 0.01 0
1.04 0.01 0
1.12 0.01 0
1.2 0.01 0
1.28 0.01 0
1.36 0.01 0
1.44 0.01 0
1.52 0.01 0
1.6 0.01 0
1.68 0.01 0
1.76 0.01 0
1.84 0.01 0
1.92 0.01 0
2 0.01 0
2.08 0.01 0
2.16 0.01 0
2.24 0.01 0
2.32 0.01 0
2.4 0.01 0
2.48 0.01 0
2.56 0.01 0
2.64 0.01 0
2.72 0.01 0
2.8 0.01 0
2.88 0.01 0
2.96 0.01 0
3.04 0.01 0
3.12 0.01 0
3.2 0.01 0
3.28 0.01 0
3.36 0.01 0
3.44 0.01 0
3.52 0.01 0
3.6 0.01 0
3.68 0.01 0
3.76 0.01 0
3.84 0.01 0
3.92 0.01 0
4 0.01 0
4.08 0.01 0
4.16 0.01 0
4.24 0.01 0
4.32 0.01 0
4.4 0.01 0
4.48 0.01 0
4.56 0.01 0
4.64 0.01 0
4.72 0.01 0
4.8 0.01 0
4.88 0.01 0
4.96 0.01 0
5.04 0.01 0
5.12 0.01 0
[...]
POINT_DATA 80000

SCALARS u float 1
LOOKUP_TABLE default
0
-0.131679
-0.0683967
-0.0525476
-0.0447304
-0.0400244
-0.0371828
-0.0356555
-0.034978
-0.0347598
-0.0347471
-0.034809
-0.0348885
-0.034964
-0.035029
-0.0350829
-0.0351278
-0.0351659
-0.0351994
-0.0352299
-0.0352585
-0.035286
-0.0353128
-0.0353392
-0.0353654
-0.0353915
-0.0354177
-0.0354438
-0.03547
-0.0354963
-0.0355226
-0.0355491
-0.0355755
-0.0356021
-0.0356288
-0.0356555
-0.0356824
-0.0357093
-0.0357363
-0.0357634
-0.0357905
-0.0358178
-0.0358451
-0.0358725
-0.0359
-0.0359276
-0.0359552
-0.035983
-0.0360108
-0.0360387
-0.0360667
-0.0360948
-0.0361229
-0.0361512
-0.0361795
-0.0362079
-0.0362364
-0.036265
-0.0362937
-0.0363224
-0.0363512
-0.0363802
-0.0364092
-0.0364383
-0.0364675
-0.0364968
-0.0365261
-0.0365556
-0.0365851
-0.0366148
-0.0366445
-0.0366743
-0.0367042
-0.0367342
-0.0367643
-0.0367945
-0.0368248
-0.0368552
-0.0368856
-0.0369162
-0.0369469
-0.0369776
-0.0370085
-0.0370394
-0.0370705
-0.0371016
-0.0371329
-0.0371642
-0.0371957
-0.0372272
-0.0372589
-0.0372906
-0.0373225
-0.0373544
-0.0373865
-0.0374186
-0.0374509
-0.0374832
-0.0375157
-0.0375483
-0.037581
-0.0376137
-0.0376466
-0.0376796
-0.0377127
-0.037746
-0.0377793
-0.0378127
-0.0378463
-0.03788
-0.0379137
-0.0379476
-0.0379816
-0.0380157
-0.03805
-0.0380843
-0.0381188
-0.0381533
-0.038188
-0.0382229
-0.0382578
-0.0382928
-0.038328
-0.0383633
-0.0383987
-0.0384343
-0.0384699
-0.0385057
-0.0385416
-0.0385777
-0.0386138
-0.0386502
-0.0386866
-0.0387232
-0.0387599
-0.0387967
-0.0388337
-0.0388708
-0.0389081
-0.0389455
-0.0389831
-0.0390209
-0.0390588
-0.0390969
-0.0391352
-0.0391737
-0.0392124
-0.0392513
-0.0392905
-0.0393299
-0.0393696
-0.0394096
-0.0394499
-0.0394906
-0.0395317
-0.0395732
-0.0396152
-0.0396577
-0.0397008
-0.0397445
-0.0397889
-0.0398341
-0.0398802
-0.0399272
-0.0399753
-0.0400246
-0.0400752
-0.0401273
-0.0401809
-0.0402364
-0.0402937
-0.0403532
-0.0404151
-0.0404795
-0.0405467
-0.040617
-0.0406906
-0.0407679
-0.0408491
-0.0409345
-0.0410246
-0.0411196
-0.0412198
-0.0413258
-0.0414378
-0.0415562
-0.0416815
-0.041814
-0.0419541
-0.0421023
-0.0422588
-0.0424242
-0.0425987
-0.0427826
-0.0429763
-0.0431802
-0.0433943
-0.043619
-0.0438544
-0.0441007
-0.0443578
-0.0446259
-0.0449049
-0.0451946
-0.045495
-0.0458057
-0.0461265
-0.0464568
-0.0467964
-0.0471446
-0.0475007
-0.0478642
-0.0482343
-0.0486101
-0.0489907
-0.0493751
-0.0497625
-0.0501517
-0.0505416
-0.0509311
-0.051319
-0.0517043
-0.0520857
-0.0524621
-0.0528323
-0.0531952
-0.0535498
-0.053895
-0.0542297
-0.0545531
-0.0548643
-0.0551624
-0.0554469
-0.0557171
-0.0559724
-0.0562123
-0.0564367
-0.0566452
-0.0568376
-0.0570139
-0.0571743
-0.0573187
-0.0574475
-0.0575609
-0.0576594
-0.0577433
-0.0578133
-0.0578699
-0.0579138
-0.0579456
-0.0579661
-0.057976
-0.0579761
-0.0579672
-0.05795
-0.0579254
-0.0578941
-0.0578569
-0.0578146
-0.0577679
-0.0577174
-0.057664
-0.0576081
-0.0575505
-0.0574917
-0.0574322
-0.0573725
-0.057313
-0.0572542
-0.0571964
-0.0571399
-0.0570851
-0.0570322
-0.0569814
-0.0569329
-0.0568869
-0.0568435
-0.0568028
-0.0567648
-0.0567297
-0.0566975
-0.0566681
-0.0566417
-0.0566182
-0.0565975
-0.0565796
-0.0565646
-0.0565523
-0.0565427
-0.0565358
-0.0565314
-0.0565295
-0.0565301
-0.0565331
-0.0565384
-0.0565459
-0.0565557
-0.0565675
-0.0565814
-0.0565974
-0.0566152
-0.056635
-0.0566565
-0.0566799
-0.0567049
-0.0567317
-0.0567601
-0.05679
-0.0568215
-0.0568546
-0.0568891
-0.056925
-0.0569624
-0.0570011
-0.0570412
-0.0570826
-0.0571253
-0.0571693
-0.0572145
-0.057261
-0.0573087
-0.0573576
-0.0574076
-0.0574588
-0.0575112
-0.0575647
-0.0576193
-0.0576751
-0.0577319
-0.0577898
-0.0578488
-0.0579089
-0.05797
-0.0580322
-0.0580955
-0.0581598
-0.0582251
-0.0582915
-0.0583588
-0.0584273
-0.0584967
-0.0585672
-0.0586386
-0.0587111
-0.0587846
-0.0588592
-0.0589347
-0.0590113
-0.0590888
-0.0591674
-0.059247
-0.0593276
-0.0594092
-0.0594919
-0.0595756
-0.0596603
-0.059746
-0.0598328
-0.0599206
-0.0600094
-0.0600993
-0.0601903
-0.0602823
-0.0603753
-0.0604695
-0.0605647
-0.060661
-0.0607583
-0.0608568
-0.0609564
-0.0610571
-0.0611589
-0.0612618
-0.0613659
-0.0614712
-0.0615776
-0.0616851
-0.0617939
-0.0619038
-0.0620149
-0.0621273
-0.0622409
-0.0623557
-0.0624718
-0.0625891
-0.0627077
-0.0628276
-0.0629488
-0.0630714
-0.0631953
-0.0633207
-0.0634476
-0.063576
-0.0637075
-0.0638356
-0.0639931
-0.0640814
-0.0643041
-0.0643041
-0.0643041
1
0.131679
0.0683967
0.0525476
0.0447304
0.0400244
0.0371828
0.0356555
0.034978
0.0347598
0.0347471
0.034809
0.0348885
0.034964
0.035029
0.0350829
0.0351278
0.0351659
0.0351994
0.0352299
0.0352585
0.035286
0.0353128
0.0353392
0.0353654
0.0353915
0.0354177
0.0354438
0.03547
0.0354963
0.0355226
0.0355491
0.0355755
0.0356021
0.0356288
0.0356555
0.0356824
0.0357093
0.0357363
0.0357634
0.0357905
0.0358178
0.0358451
0.0358725
0.0359
0.0359276
0.0359552
0.035983
0.0360108
0.0360387
0.0360667
0.0360948
0.0361229
0.0361512
0.0361795
0.0362079
0.0362364
0.036265
0.0362937
0.0363224
0.0363512
0.0363802
0.0364092
0.0364383
0.0364675
0.0364968
0.0365261
0.0365556
0.0365851
0.0366148
0.0366445
0.0366743
0.0367042
0.0367342
0.0367643
0.0367945
0.0368248
0.0368552
0.0368856
0.0369162
0.0369469
0.0369776
0.0370085
0.0370394
0.0370705
0.0371016
0.0371329
0.0371642
0.0371957
0.0372272
0.0372589
0.0372906
0.0373225
0.0373544
0.0373865
0.0374186
0.0374509
0.0374832
0.0375157
0.0375483
0.037581
0.0376137
0.0376466
0.0376796
0.0377127
0.037746
0.0377793
0.0378127
0.0378463
0.03788
0.0379137
0.0379476
0.0379816
0.0380157
0.03805
0.0380843
0.0381188
0.0381533
0.038188
0.0382229
0.0382578
0.0382928
0.038328
0.0383633
0.0383987
0.0384343
0.0384699
0.0385057
0.0385416
0.0385777
0.0386138
0.0386502
0.0386866
0.0387232
0.0387599
0.0387967
0.0388337
0.0388708
0.0389081
0.0389455
0.0389831
0.0390209
0.0390588
0.0390969
0.0391352
0.0391737
0.0392124
0.0392513
0.0392905
0.0393299
0.0393696
0.0394096
0.0394499
0.0394906
0.0395317
0.0395732
0.0396152
0.0396577
0.0397008
0.0397445
0.0397889
0.0398341
0.0398802
0.0399272
0.0399753
0.0400246
0.0400752
0.0401273
0.0401809
0.0402364
0.0402937
0.0403532
0.0404151
0.0404795
0.0405467
0.040617
0.0406906
0.0407679
0.0408491
0.0409345
0.0410246
0.0411196
0.0412198
0.0413258
0.0414378
0.0415562
0.0416815
0.041814
0.0419541
0.0421023
0.0422588
0.0424242
0.0425987
0.0427826
0.0429763
0.0431802
0.0433943
0.043619
0.0438544
0.0441007
0.0443578
0.0446259
0.0449049
0.0451946
0.045495
0.0458057
0.0461265
0.0464568
0.0467964
0.0471446
0.0475007
0.0478642
0.0482343
0.0486101
0.0489907
0.0493751
0.0497625
0.0501517
0.0505416
0.0509311
0.051319
0.0517043
0.0520857
0.0524621
0.0528323
0.0531952
0.0535498
0.053895
0.0542297
0.0545531
0.0548643
0.0551624
0.0554469
0.0557171
0.0559724
0.0562123
0.0564367
0.0566452
0.0568376
0.0570139
0.0571743
0.0573187
0.0574475
0.0575609
0.0576594
0.0577433
0.0578133
0.0578699
0.0579138
0.0579456
0.0579661
0.057976
0.0579761
0.0579672
0.05795
0.0579254
0.0578941
0.0578569
0.0578146
0.0577679
0.0577174
0.057664
0.0576081
0.0575505
0.0574917
0.0574322
0.0573725
0.057313
0.0572542
0.0571964
0.0571399
0.0570851
0.0570322
0.0569814
0.0569329
0.0568869
0.0568435
0.0568028
0.0567648
0.0567297
0.0566975
0.0566681
0.0566417
0.0566182
0.0565975
0.0565796
0.0565646
0.0565523
0.0565427
0.0565358
0.0565314
0.0565295
0.0565301
0.0565331
0.0565384
0.0565459
0.0565557
0.0565675
0.0565814
0.0565974
0.0566152
0.056635
0.0566565
0.0566799
0.0567049
0.0567317
0.0567601
0.05679
0.0568215
0.0568546
0.0568891
0.056925
0.0569624
0.0570011
0.0570412
0.0570826
0.0571253
0.0571693
0.0572145
0.057261
0.0573087
0.0573576
0.0574076
0.0574588
0.0575112
0.0575647
0.0576193
0.0576751
0.0577319
0.0577898
0.0578488
0.0579089
0.05797
0.0580322
0.0580955
0.0581598
0.0582251
0.0582915
0.0583588
0.0584273
0.0584967
0.0585672
0.0586386
0.0587111
0.0587846
0.0588592
0.0589347
0.0590113
0.0590888
0.0591674
0.059247
0.0593276
0.0594092
0.0594919
0.0595756
0.0596603
0.059746
0.0598328
0.0599206
0.0600094
0.0600993
0.0601903
0.0602823
0.0603753
0.0604695
0.0605647
0.060661
0.0607583
0.0608568
0.0609564
0.0610571
0.0611589
0.0612618
0.0613659
0.0614712
0.0615776
0.0616851
0.0617939
0.0619038
0.0620149
0.0621273
0.0622409
0.0623557
0.0624718
0.0625891
0.0627077
0.0628276
0.0629488
0.0630714
0.0631953
0.0633207
0.0634476
0.063576
0.0637075
0.0638356
0.0639931
0.0640814
0.0643041
0.0643041
0.0643041
1
0.344933
0.201038
0.155678
0.132779
0.118974
0.110688
0.10625
0.104264
0.103597
0.103524
0.103673
0.10388
0.104083
0.104261
0.10441
0.104536
0.104645
0.104741
0.104829
0.104913
0.104994
0.105072
0.10515
0.105228
0.105305
0.105382
0.105459
0.105536
0.105614
0.105692
0.10577
0.105848
0.105926
0.106005
0.106084
0.106163
0.106243
0.106322
0.106402
0.106482
0.106563
0.106643
0.106724
0.106805
0.106887
0.106968
0.10705
0.107132
0.107215
0.107297
0.10738
0.107463
0.107546
0.10763
0.107714
0.107798
0.107882
0.107967
0.108052
0.108137
0.108222
0.108308
0.108393
0.10848
0.108566
0.108653
0.108739
0.108827
0.108914
0.109002
0.10909
0.109178
0.109266
0.109355
0.109444
0.109533
0.109623
0.109713
0.109803
0.109893
0.109984
0.110075
0.110166
0.110258
0.11035
0.110442
0.110534
0.110627
0.11072
0.110813
0.110907
0.111
0.111095
0.111189
0.111284
0.111379
0.111474
0.11157
0.111666
0.111762
0.111859
0.111956
0.112053
0.112151
0.112248
0.112347
0.112445
0.112544
0.112643
0.112743
0.112843
0.112943
0.113043
0.113144
0.113245
0.113347
0.113448
0.113551
0.113653
0.113756
0.113859
0.113963
0.114067
0.114171
0.114276
0.11438
0.114486
0.114592
0.114698
0.114804
0.114911
0.115018
0.115126
0.115233
0.115342
0.115451
0.11556
0.115669
0.115779
0.11589
0.116
0.116112
0.116223
0.116336
0.116448
0.116562
0.116675
0.11679
0.116905
0.11702
0.117137
0.117254
0.117371
0.11749
0.11761
0.11773
0.117852
0.117975
0.118099
0.118225
0.118352
0.118481
0.118612
0.118744
0.11888
0.119018
0.119158
0.119302
0.119449
0.1196
0.119756
0.119916
0.12008
0.120251
0.120427
0.12061
0.1208
0.120998
0.121204
0.12142
0.121645
0.121881
0.122128
0.122388
0.12266
0.122947
0.123248
0.123566
0.1239
0.124251
0.124621
0.125011
0.125421
0.125852
0.126305
0.126781
0.12728
0.127803
0.12835
0.128923
0.129521
0.130145
0.130795
0.13147
0.132171
0.132898
0.133649
0.134425
0.135224
0.136046
0.13689
0.137754
0.138637
0.139537
0.140453
0.141383
0.142325
0.143276
0.144235
0.145199
0.146166
0.147133
0.148097
0.149057
0.15001
0.150952
0.151882
0.152798
0.153696
0.154574
0.155431
0.156264
0.157072
0.157852
0.158603
0.159323
0.160012
0.160669
0.161291
0.16188
0.162434
0.162953
0.163438
0.163888
0.164304
0.164685
0.165034
0.165351
0.165637
0.165892
0.166118
0.166317
0.16649
0.166638
0.166763
0.166866
0.166949
0.167014
0.167062
0.167094
0.167113
0.167119
0.167115
0.167101
0.16708
0.167051
0.167017
0.166979
0.166937
0.166893
0.166848
0.166802
0.166757
0.166712
0.16667
0.166629
0.166591
0.166557
0.166526
0.166499
0.166476
0.166458
0.166444
0.166435
0.166431
0.166432
0.166438
0.16645
0.166466
0.166488
0.166515
0.166547
0.166584
0.166626
0.166673
0.166725
0.166781
0.166843
0.166909
0.166979
0.167054
0.167134
0.167217
0.167305
0.167397
0.167494
0.167594
0.167698
0.167806
0.167917
0.168033
0.168152
0.168275
0.168401
0.16853
0.168663
0.1688
0.16894
0.169083
0.169229
0.169379
0.169531
0.169687
0.169846
0.170008
0.170173
0.170341
0.170512
0.170686
0.170863
0.171043
0.171226
0.171412
0.171601
0.171792
0.171987
0.172184
0.172384
0.172587
0.172793
0.173002
0.173213
0.173428
0.173645
0.173865
0.174087
0.174313
0.174542
0.174773
0.175007
0.175244
0.175484
0.175727
0.175972
0.176221
0.176472
0.176726
0.176984
0.177244
0.177507
0.177773
0.178042
0.178314
0.178589
0.178867
0.179148
0.179432
0.179719
0.180009
0.180303
0.1806
0.180899
0.181202
0.181509
0.181818
0.182131
0.182447
0.182767
0.18309
0.183416
0.183746
0.184079
0.184416
0.184756
0.1851
0.185448
0.185799
0.186154
0.186513
0.186876
0.187243
0.187615
0.187995
0.188367
0.188814
0.189083
0.189752
0.189752
0.189752
1
0.518841
0.327991
0.256467
0.219254
0.196701
0.18317
0.175908
0.172616
0.171458
0.171274
0.171468
0.171771
0.172077
0.17235
0.172583
0.172781
0.172954
0.173109
0.173252
0.173387
0.173518
0.173647
0.173774
0.1739
0.174026
0.174152
0.174278
0.174405
0.174531
0.174658
0.174786
0.174913
0.175041
0.17517
0.175299
0.175428
0.175558
0.175688
0.175818
0.175949
0.176081
0.176212
0.176344
0.176477
0.17661
0.176743
0.176877
0.177011
0.177145
0.17728
0.177415
0.177551
0.177687
0.177823
0.17796
0.178097
0.178235
0.178373
0.178511
0.17865
0.178789
0.178929
0.179069
0.179209
0.17935
0.179491
0.179633
0.179775
0.179918
0.180061
0.180204
0.180348
0.180493
0.180637
0.180783
0.180928
0.181074
0.181221
0.181368
0.181515
0.181663
0.181811
0.18196
0.182109
0.182259
0.182409
0.18256
0.182711
0.182863
0.183015
0.183167
0.18332
0.183474
0.183628
0.183782
0.183937
0.184092
0.184248
0.184405
0.184562
0.184719
0.184877
0.185035
0.185194
0.185354
0.185514
0.185674
0.185835
0.185997
0.186159
0.186321
0.186484
0.186648
0.186812
0.186977
0.187142
0.187308
0.187474
0.187641
0.187809
0.187977
0.188145
0.188314
0.188484
0.188654
0.188825
0.188996
0.189168
0.189341
0.189514
0.189688
0.189862
0.190037
0.190213
0.190389
0.190566
0.190743
0.190921
0.1911
0.191279
0.191459
0.19164
0.191821
0.192004
0.192187
0.19237
0.192555
0.19274
0.192926
0.193114
0.193302
0.193491
0.193681
0.193873
0.194065
0.194259
0.194455
0.194652
0.194851
0.195051
0.195254
0.195459
0.195666
0.195876
0.196089
0.196305
0.196525
0.196749
0.196977
0.19721
0.197447
0.197691
0.197941
0.198197
0.198461
0.198734
0.199015
0.199305
0.199606
0.199919
0.200244
0.200582
0.200934
0.201302
0.201686
0.202087
0.202508
0.202948
0.20341
0.203894
0.204402
0.204934
0.205493
0.206079
0.206694
0.207338
0.208014
0.20872
0.20946
0.210233
0.21104
0.211881
0.212758
0.213671
0.214619
0.215602
0.216621
0.217675
0.218763
0.219885
0.221039
0.222224
0.223439
0.224681
0.225951
0.227244
0.228559
0.229893
0.231244
0.232608
0.233984
0.235368
0.236756
0.238146
0.239534
0.240918
0.242293
0.243656
0.245004
0.246334
0.247643
0.248928
0.250186
0.251414
0.252611
0.253772
0.254897
0.255984
0.257031
0.258036
0.258999
0.259918
0.260793
0.261624
0.26241
0.263151
0.263848
0.264502
0.265112
0.265681
0.266209
0.266696
0.267146
0.267559
0.267937
0.268281
0.268594
0.268877
0.269132
0.269362
0.269567
0.26975
0.269913
0.270057
0.270185
0.270298
0.270398
0.270487
0.270565
0.270635
0.270698
0.270755
0.270808
0.270857
0.270904
0.270949
0.270994
0.27104
0.271086
0.271135
0.271185
0.271239
0.271296
0.271357
0.271422
0.271491
0.271566
0.271645
0.271729
0.271819
0.271914
0.272015
0.272121
0.272234
0.272351
0.272475
0.272604
0.272739
0.27288
0.273026
0.273178
0.273335
0.273498
0.273666
0.27384
0.27402
0.274204
0.274394
0.274589
0.274789
0.274994
0.275204
0.27542
0.27564
0.275865
0.276094
0.276329
0.276568
0.276812
0.277061
0.277314
0.277572
0.277834
0.278101
0.278373
0.278648
0.278929
0.279213
0.279502
0.279796
0.280093
0.280396
0.280702
0.281013
0.281328
0.281647
0.28197
0.282298
0.28263
0.282967
0.283307
0.283652
0.284001
0.284354
0.284712
0.285074
0.28544
0.285811
0.286186
0.286565
0.286948
0.287336
0.287728
0.288124
0.288525
0.288931
0.28934
0.289754
0.290173
0.290596
0.291024
0.291456
0.291892
0.292334
0.29278
0.29323
0.293685
0.294145
0.29461
0.29508
0.295554
0.296033
0.296517
0.297006
0.2975
0.297999
0.298504
0.299013
0.299528
0.300047
0.300572
0.301103
0.301638
0.30218
0.302726
0.303279
0.303837
0.3044
0.30497
0.305546
0.306128
0.306717
0.307318
0.307909
0.308609
0.309047
0.310139
0.310139
0.310139
1
0.660978
0.447672
0.354354
0.303899
0.273024
0.25444
0.244402
0.239769
0.238058
0.237703
0.237892
0.238256
0.238641
0.238992
0.239296
0.239559
0.239789
0.239998
0.240191
0.240375
0.240554
0.240729
0.240902
0.241074
0.241246
0.241418
0.24159
0.241762
0.241935
0.242108
0.242282
0.242456
0.242631
0.242806
0.242982
0.243158
0.243335
0.243512
0.24369
0.243869
0.244048
0.244227
0.244407
0.244588
0.244769
0.244951
0.245133
0.245315
0.245499
0.245682
0.245867
0.246051
0.246237
0.246423
0.246609
0.246796
0.246984
0.247172
0.24736
0.247549
0.247739
0.247929
0.24812
0.248311
0.248503
0.248696
0.248889
0.249082
0.249276
0.249471
0.249667
0.249862
0.250059
0.250256
0.250454
0.250652
0.250851
0.25105
0.25125
0.251451
0.251652
0.251854
0.252056
0.252259
0.252463
0.252668
0.252872
0.253078
0.253284
0.253491
0.253699
0.253907
0.254115
0.254325
0.254535
0.254746
0.254957
0.255169
0.255382
0.255595
0.255809
0.256024
0.256239
0.256455
0.256672
0.256889
0.257107
0.257326
0.257545
0.257766
0.257986
0.258208
0.25843
0.258653
0.258877
0.259102
0.259327
0.259553
0.259779
0.260007
0.260235
0.260464
0.260693
0.260924
0.261155
0.261387
0.261619
0.261853
0.262087
0.262322
0.262558
0.262794
0.263032
0.26327
0.263509
0.263748
0.263989
0.264231
0.264473
0.264716
0.26496
0.265205
0.265451
0.265698
0.265946
0.266194
0.266444
0.266695
0.266947
0.2672
0.267454
0.26771
0.267967
0.268225
0.268485
0.268747
0.26901
0.269275
0.269542
0.269811
0.270083
0.270357
0.270634
0.270913
0.271197
0.271483
0.271774
0.272069
0.272369
0.272674
0.272985
0.273302
0.273626
0.273958
0.274297
0.274646
0.275004
0.275373
0.275753
0.276146
0.276552
0.276973
0.277409
0.277863
0.278334
0.278825
0.279336
0.27987
0.280427
0.281009
0.281617
0.282253
0.282919
0.283614
0.284342
0.285103
0.285899
0.286731
0.2876
0.288507
0.289453
0.290439
0.291465
0.292533
0.293642
0.294793
0.295986
0.29722
0.298495
0.299811
0.301166
0.30256
0.303991
0.305458
0.306958
0.30849
0.310052
0.31164
0.313253
0.314887
0.31654
0.318208
0.319888
0.321576
0.323268
0.324962
0.326654
0.328339
0.330015
0.331677
0.333322
0.334947
0.336548
0.338121
0.339665
0.341176
0.342651
0.344088
0.345485
0.34684
0.34815
0.349415
0.350634
0.351805
0.352928
0.354003
0.355028
0.356005
0.356934
0.357815
0.358649
0.359437
0.36018
0.36088
0.361537
0.362154
0.362732
0.363274
0.363779
0.364252
0.364693
0.365105
0.365489
0.365847
0.366182
0.366496
0.366789
0.367065
0.367324
0.367569
0.367801
0.368022
0.368233
0.368435
0.36863
0.368819
0.369004
0.369185
0.369363
0.369539
0.369714
0.36989
0.370065
0.370242
0.370421
0.370602
0.370786
0.370973
0.371163
0.371357
0.371556
0.371759
0.371966
0.372178
0.372396
0.372618
0.372845
0.373078
0.373316
0.373559
0.373808
0.374063
0.374323
0.374588
0.37486
0.375136
0.375418
0.375706
0.376
0.376298
0.376603
0.376913
0.377228
0.377549
0.377875
0.378206
0.378543
0.378886
0.379233
0.379586
0.379945
0.380308
0.380677
0.381051
0.38143
0.381815
0.382205
0.3826
0.383
0.383406
0.383816
0.384232
0.384653
0.385079
0.38551
0.385947
0.386388
0.386835
0.387287
0.387744
0.388207
0.388674
0.389147
0.389625
0.390108
0.390597
0.391091
0.39159
0.392094
0.392604
0.393119
0.393639
0.394165
0.394696
0.395232
0.395774
0.396322
0.396875
0.397433
0.397997
0.398567
0.399142
0.399723
0.40031
0.400902
0.401501
0.402105
0.402715
0.40333
0.403952
0.40458
0.405214
0.405854
0.4065
0.407152
0.407811
0.408476
0.409148
0.409825
0.41051
0.411201
0.411898
0.412602
0.413313
0.414031
0.414756
0.415488
0.416227
0.416973
0.417727
0.418489
0.419259
0.420045
0.420818
0.421727
0.422308
0.423774
0.423774
0.423774
1
0.776896
0.558756
0.448657
0.386375
0.347716
0.324284
0.311499
0.305468
0.303125
0.302529
0.302663
0.303051
0.303489
0.303901
0.304265
0.304582
0.304864
0.30512
0.305359
0.305588
0.305809
0.306027
0.306243
0.306457
0.306671
0.306885
0.307099
0.307314
0.307529
0.307745
0.307961
0.308178
0.308395
0.308614
0.308832
0.309052
0.309272
0.309493
0.309714
0.309936
0.310159
0.310382
0.310606
0.310831
0.311056
0.311282
0.311509
0.311736
0.311964
0.312192
0.312422
0.312651
0.312882
0.313113
0.313345
0.313577
0.31381
0.314044
0.314279
0.314514
0.314749
0.314986
0.315223
0.315461
0.315699
0.315938
0.316178
0.316419
0.31666
0.316902
0.317145
0.317388
0.317632
0.317877
0.318122
0.318368
0.318615
0.318863
0.319111
0.319361
0.31961
0.319861
0.320112
0.320364
0.320617
0.320871
0.321125
0.32138
0.321636
0.321893
0.32215
0.322408
0.322667
0.322927
0.323188
0.323449
0.323711
0.323974
0.324238
0.324502
0.324767
0.325034
0.325301
0.325568
0.325837
0.326106
0.326377
0.326648
0.32692
0.327193
0.327466
0.327741
0.328016