# vtk DataFile Version 2.0
FlowField
ASCII
DATASET STRUCTURED_GRID
DIMENSIONS 400 1 200
POINTS 80000 float
0 0 0
0.08 0 0
0.16 0 0
0.24 0 0
0.32 0 0
0.4 0 0
0.48 0 0
0.56 0 0
0.64 0 0
0.72 0 0
0.8 0 0
0.88 0 0
0.96 0 0
1.04 0 0
1.12 0 0
1.2 0 0
1.28 0 0
1.36 0 0
1.44 0 0
1.52 0 0
1.6 0 0
1.68 0 0
1.76 0 0
1.84 0 0
1.92 0 0
2 0 0
2.08 0 0
2.16 0 0
2.24 0 0
2.32 0 0
2.4 0 0
2.48 0 0
2.56 0 0
2.64 0 0
2.72 0 0
2.8 0 0
2.88 0 0
2.96 0 0
3.04 0 0
3.12 0 0
3.2 0 0
3.28 0 0
3.36 0 0
3.44 0 0
3.52 0 0
3.6 0 0
3.68 0 0
3.76 0 0
3.84 0 0
3.92 0 0
4 0 0
4.08 0 0
4.16 0 0
4.24 0 0
4.32 0 0
4.4 0 0
4.48 0 0
4.56 0 0
4.64 0 0
4.72 0 0
4.8 0 0
4.88 0 0
4.96 0 0
5.04 0 0
5.12 0 0
5.2 0 0
5.28 0 0
5.36 0 0
5.44 0 0
5.52 0 0
5.6 0 0
5.68 0 0
5.76 0 0
5.84 0 0
5.92 0 0
6 0 0
6.08 0 0
6.16 0 0
6.24 0 0
6.32 0 0
6.4 0 0
6.48 0 0
6.56 0 0
6.64 0 0
6.72 0 0
6.8 0 0
6.88 0 0
6.96 0 0
7.04 0 0
7.12 0 0
7.2 0 0
7.28 0 0
7.36 0 0
7.44 0 0
7.52 0 0
7.6 0 0
7.68 0 0
7.76 0 0
7.84 0 0
7.92 0 0
8 0 0
8.08 0 0
8.16 0 0
8.24 0 0
8.32 0 0
8.4 0 0
8.48 0 0
8.56 0 0
8.64 0 0
8.72 0 0
8.8 0 0
8.88 0 0
8.96 0 0
9.04 0 0
9.12 0 0
9.2 0 0
9.28 0 0
9.36 0 0
9.44 0 0
9.52 0 0
9.6 0 0
9.68 0 0
9.76 0 0
9.84 0 0
9.92 0 0
10 0 0
10.08 0 0
10.16 0 0
10.24 0 0
10.32 0 0
10.4 0 0
10.48 0 0
10.56 0 0
10.64 0 0
10.72 0 0
10.8 0 0
10.88 0 0
10.96 0 0
11.04 0 0
11.12 0 0
11.2 0 0
11.28 0 0
11.36 0 0
11.44 0 0
11.52 0 0
11.6 0 0
11.68 0 0
11.76 0 0
11.84 0 0
11.92 0 0
12 0 0
12.08 0 0
12.16 0 0
12.24 0 0
12.32 0 0
12.4 0 0
12.48 0 0
12.56 0 0
12.64 0 0
12.72 0 0
12.8 0 0
12.88 0 0
12.96 0 0
13.04 0 0
13.12 0 0
13.2 0 0
13.28 0 0
13.36 0 0
13.44 0 0
13.52 0 0
13.6 0 0
13.68 0 0
13.76 0 0
13.84 0 0
13.92 0 0
14 0 0
14.08 0 0
14.16 0 0
14.24 0 0
14.32 0 0
14.4 0 0
14.48 0 0
14.56 0 0
14.64 0 0
14.72 0 0
14.8 0 0
14.88 0 0
14.96 0 0
15.04 0 0
15.12 0 0
15.2 0 0
15.28 0 0
15.36 0 0
15.44 0 0
15.52 0 0
15.6 0 0
15.68 0 0
15.76 0 0
15.84 0 0
15.92 0 0
16 0 0
16.08 0 0
16.16 0 0
16.24 0 0
16.32 0 0
16.4 0 0
16.48 0 0
16.56 0 0
16.64 0 0
16.72 0 0
16.8 0 0
16.88 0 0
16.96 0 0
17.04 0 0
17.12 0 0
17.2 0 0
17.28 0 0
17.36 0 0
17.44 0 0
17.52 0 0
17.6 0 0
17.68 0 0
17.76 0 0
17.84 0 0
17.92 0 0
18 0 0
18.08 0 0
18.16 0 0
18.24 0 0
18.32 0 0
18.4 0 0
18.48 0 0
18.56 0 0
18.64 0 0
18.72 0 0
18.8 0 0
18.88 0 0
18.96 0 0
19.04 0 0
19.12 0 0
19.2 0 0
19.28 0 0
19.36 0 0
19.44 0 0
19.52 0 0
19.6 0 0
19.68 0 0
19.76 0 0
19.84 0 0
19.92 0 0
20 0 0
20.08 0 0
20.16 0 0
20.24 0 0
20.32 0 0
20.4 0 0
20.48 0 0
20.56 0 0
20.64 0 0
20.72 0 0
20.8 0 0
20.88 0 0
20.96 0 0
21.04 0 0
21.12 0 0
21.2 0 0
21.28 0 0
21.36 0 0
21.44 0 0
21.52 0 0
21.6 0 0
21.68 0 0
21.76 0 0
21.84 0 0
21.92 0 0
22 0 0
22.08 0 0
22.16 0 0
22.24 0 0
22.32 0 0
22.4 0 0
22.48 0 0
22.56 0 0
22.64 0 0
22.72 0 0
22.8 0 0
22.88 0 0
22.96 0 0
23.04 0 0
23.12 0 0
23.2 0 0
23.28 0 0
23.36 0 0
23.44 0 0
23.52 0 0
23.6 0 0
23.68 0 0
23.76 0 0
23.84 0 0
23.92 0 0
24 0 0
24.08 0 0
24.16 0 0
24.24 0 0
24.32 0 0
24.4 0 0
24.48 0 0
24.56 0 0
24.64 0 0
24.72 0 0
24.8 0 0
24.88 0 0
24.96 0 0
25.04 0 0
25.12 0 0
25.2 0 0
25.28 0 0
25.36 0 0
25.44 0 0
25.52 0 0
25.6 0 0
25.68 0 0
25.76 0 0
25.84 0 0
25.92 0 0
26 0 0
26.08 0 0
26.16 0 0
26.24 0 0
26.32 0 0
26.4 0 0
26.48 0 0
26.56 0 0
26.64 0 0
26.72 0 0
26.8 0 0
26.88 0 0
26.96 0 0
27.04 0 0
27.12 0 0
27.2 0 0
27.28 0 0
27.36 0 0
27.44 0 0
27.52 0 0
27.6 0 0
27.68 0 0
27.76 0 0
27.84 0 0
27.92 0 0
28 0 0
28.08 0 0
28.16 0 0
28.24 0 0
28.32 0 0
28.4 0 0
28.48 0 0
28.56 0 0
28.64 0 0
28.72 0 0
28.8 0 0
28.88 0 0
28.96 0 0
29.04 0 0
29.12 0 0
29.2 0 0
29.28 0 0
29.36 0 0
29.44 0 0
29.52 0 0
29.6 0 0
29.68 0 0
29.76 0 0
29.84 0 0
29.92 0 0
30 0 0
30.08 0 0
30.16 0 0
30.24 0 0
30.32 0 0
30.4 0 0
30.48 0 0
30.56 0 0
30.64 0 0
30.72 0 0
30.8 0 0
30.88 0 0
30.96 0 0
31.04 0 0
31.12 0 0
31.2 0 0
31.28 0 0
31.36 0 0
31.44 0 0
31.52 0 0
31.6 0 0
31.68 0 0
31.76 0 0
31.84 0 0
31.92 0 0
0 0.005 0
0.08 0.005 0
0.16 0.005 0
0.24 0.005 0
0.32 0.005 0
0.4 0.005 0
0.48 0.005 0
0.56 0.005 0
0.64 0.005 0
0.72 0.005 0
0.8 0.005 0
0.88 0.005 0
0.96 0.005 0
1.04 0.005 0
1.12 0.005 0
1.2 0.005 0
1.28 0.005 0
1.36 0.005 0
1.44 0.005 0
1.52 0.005 0
1.6 0.005 0
1.68 0.005 0
1.76 0.005 0
1.84 0.005 0
1.92 0.005 0
2 0.005 0
2.08 0.005 0
2.16 0.005 0
2.24 0.005 0
2.32 0.005 0
2.4 0.005 0
2.48 0.005 0
2.56 0.005 0
2.64 0.005 0
2.72 0.005 0
2.8 0.005 0
2.88 0.005 0
2.96 0.005 0
3.04 0.005 0
3.12 0.005 0
3.2 0.005 0
3.28 0.005 0
3.36 0.005 0
3.44 0.005 0
3.52 0.005 0
3.6 0.005 0
3.68 0.005 0
3.76 0.005 0
3.84 0.005 0
3.92 0.005 0
4 0.005 0
4.08 0.005 0
4.16 0.005 0
4.24 0.005 0
4.32 0.005 0
4.4 0.005 0
4.48 0.005 0
4.56 0.005 0
4.64 0.005 0
4.72 0.005 0
4.8 0.005 0
4.88 0.005 0
4.96 0.005 0
5.04 0.005 0
5.12 0.005 0
5.2 0.005 0
5.28 0.005 0
5.36 0.005 0
5.44 0.005 0
5.52 0.005 0
5.6 0.005 0
5.68 0.005 0
5.76 0.005 0
5.84 0.005 0
5.92 0.005 0
6 0.005 0
6.08 0.005 0
6.16 0.005 0
6.24 0.005 0
6.32 0.005 0
6.4 0.005 0
6.48 0.005 0
6.56 0.005 0
6.64 0.005 0
6.72 0.005 0
6.8 0.005 0
6.88 0.005 0
6.96 0.005 0
7.04 0.005 0
7.12 0.005 0
7.2 0.005 0
7.28 0.005 0
7.36 0.005 0
7.44 0.005 0
7.52 0.005 0
7.6 0.005 0
7.68 0.005 0
7.76 0.005 0
7.84 0.005 0
7.92 0.005 0
8 0.005 0
8.08 0.005 0
8.16 0.005 0
8.24 0.005 0
8.32 0.005 0
8.4 0.005 0
8.48 0.005 0
8.56 0.005 0
8.64 0.005 0
8.72 0.005 0
8.8 0.005 0
8.88 0.005 0
8.96 0.005 0
9.04 0.005 0
9.12 0.005 0
9.2 0.005 0
9.28 0.005 0
9.36 0.005 0
9.44 0.005 0
9.52 0.005 0
9.6 0.005 0
9.68 0.005 0
9.76 0.005 0
9.84 0.005 0
9.92 0.005 0
10 0.005 0
10.08 0.005 0
10.16 0.005 0
10.24 0.005 0
10.32 0.005 0
10.4 0.005 0
10.48 0.005 0
10.56 0.005 0
10.64 0.005 0
10.72 0.005 0
10.8 0.005 0
10.88 0.005 0
10.96 0.005 0
11.04 0.005 0
11.12 0.005 0
11.2 0.005 0
11.28 0.005 0
11.36 0.005 0
11.44 0.005 0
11.52 0.005 0
11.6 0.005 0
11.68 0.005 0
11.76 0.005 0
11.84 0.005 0
11.92 0.005 0
12 0.005 0
12.08 0.005 0
12.16 0.005 0
12.24 0.005 0
12.32 0.005 0
12.4 0.005 0
12.48 0.005 0
12.56 0.005 0
12.64 0.005 0
12.72 0.005 0
12.8 0.005 0
12.88 0.005 0
12.96 0.005 0
13.04 0.005 0
13.12 0.005 0
13.2 0.005 0
13.28 0.005 0
13.36 0.005 0
13.44 0.005 0
13.52 0.005 0
13.6 0.005 0
13.68 0.005 0
13.76 0.005 0
13.84 0.005 0
13.92 0.005 0
14 0.005 0
14.08 0.005 0
14.16 0.005 0
14.24 0.005 0
14.32 0.005 0
14.4 0.005 0
14.48 0.005 0
14.56 0.005 0
14.64 0.005 0
14.72 0.005 0
14.8 0.005 0
14.88 0.005 0
14.96 0.005 0
15.04 0.005 0
15.12 0.005 0
15.2 0.005 0
15.28 0.005 0
15.36 0.005 0
15.44 0.005 0
15.52 0.005 0
15.6 0.005 0
15.68 0.005 0
15.76 0.005 0
15.84 0.005 0
15.92 0.005 0
16 0.005 0
16.08 0.005 0
16.16 0.005 0
16.24 0.005 0
16.32 0.005 0
16.4 0.005 0
16.48 0.005 0
16.56 0.005 0
16.64 0.005 0
16.72 0.005 0
16.8 0.005 0
16.88 0.005 0
16.96 0.005 0
17.04 0.005 0
17.12 0.005 0
17.2 0.005 0
17.28 0.005 0
17.36 0.005 0
17.44 0.005 0
17.52 0.005 0
17.6 0.005 0
17.68 0.005 0
17.76 0.005 0
17.84 0.005 0
17.92 0.005 0
18 0.005 0
18.08 0.005 0
18.16 0.005 0
18.24 0.005 0
18.32 0.005 0
18.4 0.005 0
18.48 0.005 0
18.56 0.005 0
18.64 0.005 0
18.72 0.005 0
18.8 0.005 0
18.88 0.005 0
18.96 0.005 0
19.04 0.005 0
19.12 0.005 0
19.2 0.005 0
19.28 0.005 0
19.36 0.005 0
19.44 0.005 0
19.52 0.005 0
19.6 0.005 0
19.68 0.005 0
19.76 0.005 0
19.84 0.005 0
19.92 0.005 0
20 0.005 0
20.08 0.005 0
20.16 0.005 0
20.24 0.005 0
20.32 0.005 0
20.4 0.005 0
20.48 0.005 0
20.56 0.005 0
20.64 0.005 0
20.72 0.005 0
20.8 0.005 0
20.88 0.005 0
20.96 0.005 0
21.04 0.005 0
21.12 0.005 0
21.2 0.005 0
21.28 0.005 0
21.36 0.005 0
21.44 0.005 0
21.52 0.005 0
21.6 0.005 0
21.68 0.005 0
21.76 0.005 0
21.84 0.005 0
21.92 0.005 0
22 0.005 0
22.08 0.005 0
22.16 0.005 0
22.24 0.005 0
22.32 0.005 0
22.4 0.005 0
22.48 0.005 0
22.56 0.005 0
22.64 0.005 0
22.72 0.005 0
22.8 0.005 0
22.88 0.005 0
22.96 0.005 0
23.04 0.005 0
23.12 0.005 0
23.2 0.005 0
23.28 0.005 0
23.36 0.005 0
23.44 0.005 0
23.52 0.005 0
23.6 0.005 0
23.68 0.005 0
23.76 0.005 0
23.84 0.005 0
23.92 0.005 0
24 0.005 0
24.08 0.005 0
24.16 0.005 0
24.24 0.005 0
24.32 0.005 0
24.4 0.005 0
24.48 0.005 0
24.56 0.005 0
24.64 0.005 0
24.72 0.005 0
24.8 0.005 0
24.88 0.005 0
24.96 0.005 0
25.04 0.005 0
25.12 0.005 0
25.2 0.005 0
25.28 0.005 0
25.36 0.005 0
25.44 0.005 0
25.52 0.005 0
25.6 0.005 0
25.68 0.005 0
25.76 0.005 0
25.84 0.005 0
25.92 0.005 0
26 0.005 0
26.08 0.005 0
26.16 0.005 0
26.24 0.005 0
26.32 0.005 0
26.4 0.005 0
26.48 0.005 0
26.56 0.005 0
26.64 0.005 0
26.72 0.005 0
26.8 0.005 0
26.88 0.005 0
26.96 0.005 0
27.04 0.005 0
27.12 0.005 0
27.2 0.005 0
27.28 0.005 0
27.36 0.005 0
27.44 0.005 0
27.52 0.005 0
27.6 0.005 0
27.68 0.005 0
27.76 0.005 0
27.84 0.005 0
27.92 0.005 0
28 0.005 0
28.08 0.005 0
28.16 0.005 0
28.24 0.005 0
28.32 0.005 0
28.4 0.005 0
28.48 0.005 0
28.56 0.005 0
28.64 0.005 0
28.72 0.005 0
28.8 0.005 0
28.88 0.005 0
28.96 0.005 0
29.04 0.005 0
29.12 0.005 0
29.2 0.005 0
29.28 0.005 0
29.36 0.005 0
29.44 0.005 0
29.52 0.005 0
29.6 0.005 0
29.68 0.005 0
29.76 0.005 0
29.84 0.005 0
29.92 0.005 0
30 0.005 0
30.08 0.005 0
30.16 0.005 0
30.24 0.005 0
30.32 0.005 0
30.4 0.005 0
30.48 0.005 0
30.56 0.005 0
30.64 0.005 0
30.72 0.005 0
30.8 0.005 0
30.88 0.005 0
30.96 0.005 0
31.04 0.005 0
31.12 0.005 0
31.2 0.005 0
31.28 0.005 0
31.36 0.005 0
31.44 0.005 0
31.52 0.005 0
31.6 0.005 0
31.68 0.005 0
31.76 0.005 0
31.84 0.005 0
31.92 0.005 0
0 0.01 0
0.08 0.01 0
0.16 0.01 0
0.24 0.01 0
0.32 0.01 0
0.4 0.01 0
0.48 0.01 0
0.56 0.01 0
0.64 0.01 0
0.72 0.01 0
0.8 0.01 0
0.88 0.01 0
0.96 0.01 0
1.04 0.01 0
1.12 0.01 0
1.2 0.01 0
1.28 0.01 0
1.36 0.01 0
1.44 0.01 0
1.52 0.01 0
1.6 0.01 0
1.68 0.01 0
1.76 0.01 0
1.84 0.01 0
1.92 0.01 0
2 0.01 0
2.08 0.01 0
2.16 0.01 0
2.24 0.01 0
2.32 0.01 0
2.4 0.01 0
2.48 0.01 0
2.56 0.01 0
2.64 0.01 0
2.72 0.01 0
2.8 0.01 0
2.88 0.01 0
2.96 0.01 0
3.04 0.01 0
3.12 0.01 0
3.2 0.01 0
3.28 0.01 0
3.36 0.01 0
3.44 0.01 0
3.52 0.01 0
3.6 0.01 0
3.68 0.01 0
3.76 0.01 0
3.84 0.01 0
3.92 0.01 0
4 0.01 0
4.08 0.01 0
4.16 0.01 0
4.24 0.01 0
4.32 0.01 0
4.4 0.01 0
4.48 0.01 0
4.56 0.01 0
4.64 0.01 0
4.72 0.01 0
4.8 0.01 0
4.88 0.01 0
4.96 0.01 0
5.04 0.01 0
5.12 0.01 0
[...]
POINT_DATA 80000

SCALARS p float 1
LOOKUP_TABLE default
1
56.7558
56.454
56.4129
56.3928
56.3784
56.3663
56.3556
56.3456
56.3361
56.3269
56.3181
56.3095
56.3011
56.2928
56.2848
56.277
56.2693
56.2618
56.2544
56.2472
56.2401
56.2331
56.2263
56.2196
56.2129
56.2064
56.2
56.1937
56.1875
56.1814
56.1754
56.1695
56.1636
56.1579
56.1522
56.1467
56.1412
56.1358
56.1305
56.1254
56.1203
56.1153
56.1105
56.1056
56.1009
56.0962
56.0916
56.087
56.0825
56.078
56.0735
56.0691
56.0647
56.0603
56.056
56.0516
56.0473
56.0431
56.0388
56.0347
56.0305
56.0264
56.0223
56.0182
56.0142
56.0101
56.0061
56.0021
55.9981
55.994
55.99
55.986
55.982
55.9779
55.9739
55.9699
55.9659
55.9618
55.9578
55.9538
55.9498
55.9457
55.9417
55.9377
55.9336
55.9296
55.9256
55.9216
55.9175
55.9135
55.9095
55.9055
55.9014
55.8974
55.8934
55.8893
55.8853
55.8813
55.8773
55.8732
55.8692
55.8652
55.8611
55.8571
55.8531
55.849
55.845
55.841
55.8369
55.8329
55.8289
55.8248
55.8208
55.8168
55.8127
55.8087
55.8047
55.8006
55.7966
55.7926
55.7885
55.7845
55.7805
55.7764
55.7724
55.7683
55.7643
55.7603
55.7562
55.7522
55.7482
55.7441
55.7401
55.736
55.732
55.728
55.7239
55.7199
55.7158
55.7118
55.7078
55.7037
55.6997
55.6956
55.6916
55.6875
55.6835
55.6795
55.6754
55.6714
55.6673
55.6633
55.6592
55.6552
55.6511
55.6471
55.6431
55.639
55.635
55.6309
55.6269
55.6228
55.6188
55.6147
55.6107
55.6066
55.6026
55.5985
55.5945
55.5904
55.5864
55.5823
55.5783
55.5742
55.5702
55.5661
55.5621
55.558
55.554
55.5499
55.5459
55.5418
55.5378
55.5337
55.5297
55.5256
55.5215
55.5175
55.5134
55.5094
55.5053
55.5013
55.4972
55.4932
55.4891
55.4851
55.481
55.4769
55.4729
55.4688
55.4648
55.4607
55.4567
55.4526
55.4485
55.4445
55.4404
55.4364
55.4323
55.4282
55.4242
55.4201
55.4161
55.412
55.408
55.4039
55.3998
55.3958
55.3917
55.3877
55.3836
55.3795
55.3755
55.3714
55.3674
55.3633
55.3592
55.3552
55.3511
55.3471
55.343
55.3389
55.3349
55.3308
55.3268
55.3227
55.3186
55.3146
55.3105
55.3065
55.3024
55.2983
55.2943
55.2902
55.2862
55.2821
55.278
55.274
55.2699
55.2659
55.2618
55.2577
55.2537
55.2496
55.2456
55.2415
55.2374
55.2334
55.2293
55.2253
55.2212
55.2171
55.2131
55.209
55.205
55.2009
55.1968
55.1928
55.1887
55.1847
55.1806
55.1765
55.1725
55.1684
55.1644
55.1603
55.1562
55.1522
55.1481
55.1441
55.14
55.1359
55.1319
55.1278
55.1238
55.1197
55.1156
55.1116
55.1075
55.1035
55.0994
55.0954
55.0913
55.0872
55.0832
55.0791
55.0751
55.071
55.0669
55.0629
55.0588
55.0548
55.0507
55.0466
55.0426
55.0385
55.0345
55.0304
55.0263
55.0223
55.0182
55.0142
55.0101
55.006
55.002
54.9979
54.9938
54.9898
54.9857
54.9817
54.9776
54.9735
54.9695
54.9654
54.9614
54.9573
54.9532
54.9492
54.9451
54.941
54.937
54.9329
54.9289
54.9248
54.9207
54.9167
54.9126
54.9085
54.9045
54.9004
54.8963
54.8923
54.8882
54.8842
54.8801
54.876
54.872
54.8679
54.8638
54.8598
54.8557
54.8516
54.8476
54.8435
54.8394
54.8354
54.8313
54.8272
54.8232
54.8191
54.815
54.811
54.8069
54.8028
54.7987
54.7947
54.7906
54.7865
54.7825
54.7784
54.7743
54.7703
54.7662
54.7621
54.758
54.754
54.7499
54.7458
54.7418
54.7377
54.7336
54.7295
54.7255
54.7214
54.7173
54.7133
54.7092
54.7051
54.701
54.697
54.6929
54.6888
54.6847
54.6807
54.6766
54.6725
54.6684
54.6644
0.5
56.7558
56.7558
56.454
56.4129
56.3928
56.3784
56.3663
56.3556
56.3456
56.3361
56.3269
56.3181
56.3095
56.3011
56.2928
56.2848
56.277
56.2693
56.2618
56.2544
56.2472
56.2401
56.2331
56.2263
56.2196
56.2129
56.2064
56.2
56.1937
56.1875
56.1814
56.1754
56.1695
56.1636
56.1579
56.1522
56.1467
56.1412
56.1358
56.1305
56.1254
56.1203
56.1153
56.1105
56.1056
56.1009
56.0962
56.0916
56.087
56.0825
56.078
56.0735
56.0691
56.0647
56.0603
56.056
56.0516
56.0473
56.0431
56.0388
56.0347
56.0305
56.0264
56.0223
56.0182
56.0142
56.0101
56.0061
56.0021
55.9981
55.994
55.99
55.986
55.982
55.9779
55.9739
55.9699
55.9659
55.9618
55.9578
55.9538
55.9498
55.9457
55.9417
55.9377
55.9336
55.9296
55.9256
55.9216
55.9175
55.9135
55.9095
55.9055
55.9014
55.8974
55.8934
55.8893
55.8853
55.8813
55.8773
55.8732
55.8692
55.8652
55.8611
55.8571
55.8531
55.849
55.845
55.841
55.8369
55.8329
55.8289
55.8248
55.8208
55.8168
55.8127
55.8087
55.8047
55.8006
55.7966
55.7926
55.7885
55.7845
55.7805
55.7764
55.7724
55.7683
55.7643
55.7603
55.7562
55.7522
55.7482
55.7441
55.7401
55.736
55.732
55.728
55.7239
55.7199
55.7158
55.7118
55.7078
55.7037
55.6997
55.6956
55.6916
55.6875
55.6835
55.6795
55.6754
55.6714
55.6673
55.6633
55.6592
55.6552
55.6511
55.6471
55.6431
55.639
55.635
55.6309
55.6269
55.6228
55.6188
55.6147
55.6107
55.6066
55.6026
55.5985
55.5945
55.5904
55.5864
55.5823
55.5783
55.5742
55.5702
55.5661
55.5621
55.558
55.554
55.5499
55.5459
55.5418
55.5378
55.5337
55.5297
55.5256
55.5215
55.5175
55.5134
55.5094
55.5053
55.5013
55.4972
55.4932
55.4891
55.4851
55.481
55.4769
55.4729
55.4688
55.4648
55.4607
55.4567
55.4526
55.4485
55.4445
55.4404
55.4364
55.4323
55.4282
55.4242
55.4201
55.4161
55.412
55.408
55.4039
55.3998
55.3958
55.3917
55.3877
55.3836
55.3795
55.3755
55.3714
55.3674
55.3633
55.3592
55.3552
55.3511
55.3471
55.343
55.3389
55.3349
55.3308
55.3268
55.3227
55.3186
55.3146
55.3105
55.3065
55.3024
55.2983
55.2943
55.2902
55.2862
55.2821
55.278
55.274
55.2699
55.2659
55.2618
55.2577
55.2537
55.2496
55.2456
55.2415
55.2374
55.2334
55.2293
55.2253
55.2212
55.2171
55.2131
55.209
55.205
55.2009
55.1968
55.1928
55.1887
55.1847
55.1806
55.1765
55.1725
55.1684
55.1644
55.1603
55.1562
55.1522
55.1481
55.1441
55.14
55.1359
55.1319
55.1278
55.1238
55.1197
55.1156
55.1116
55.1075
55.1035
55.0994
55.0954
55.0913
55.0872
55.0832
55.0791
55.0751
55.071
55.0669
55.0629
55.0588
55.0548
55.0507
55.0466
55.0426
55.0385
55.0345
55.0304
55.0263
55.0223
55.0182
55.0142
55.0101
55.006
55.002
54.9979
54.9938
54.9898
54.9857
54.9817
54.9776
54.9735
54.9695
54.9654
54.9614
54.9573
54.9532
54.9492
54.9451
54.941
54.937
54.9329
54.9289
54.9248
54.9207
54.9167
54.9126
54.9085
54.9045
54.9004
54.8963
54.8923
54.8882
54.8842
54.8801
54.876
54.872
54.8679
54.8638
54.8598
54.8557
54.8516
54.8476
54.8435
54.8394
54.8354
54.8313
54.8272
54.8232
54.8191
54.815
54.811
54.8069
54.8028
54.7987
54.7947
54.7906
54.7865
54.7825
54.7784
54.7743
54.7703
54.7662
54.7621
54.758
54.754
54.7499
54.7458
54.7418
54.7377
54.7336
54.7295
54.7255
54.7214
54.7173
54.7133
54.7092
54.7051
54.701
54.697
54.6929
54.6888
54.6847
54.6807
54.6766
54.6725
54.6684
54.6644
54.6644
56.7412
56.7412
56.4579
56.4141
56.3934
56.3787
56.3666
56.3558
56.3458
56.3362
56.327
56.3182
56.3095
56.3011
56.2929
56.2849
56.277
56.2693
56.2618
56.2544
56.2472
56.2401
56.2332
56.2263
56.2196
56.213
56.2065
56.2001
56.1938
56.1876
56.1814
56.1754
56.1695
56.1636
56.1579
56.1522
56.1467
56.1412
56.1358
56.1305
56.1254
56.1203
56.1154
56.1105
56.1056
56.1009
56.0962
56.0916
56.087
56.0825
56.078
56.0736
56.0691
56.0647
56.0603
56.056
56.0516
56.0473
56.0431
56.0388
56.0347
56.0305
56.0264
56.0223
56.0182
56.0142
56.0101
56.0061
56.0021
55.9981
55.994
55.99
55.986
55.982
55.9779
55.9739
55.9699
55.9659
55.9618
55.9578
55.9538
55.9498
55.9457
55.9417
55.9377
55.9336
55.9296
55.9256
55.9216
55.9175
55.9135
55.9095
55.9055
55.9014
55.8974
55.8934
55.8893
55.8853
55.8813
55.8773
55.8732
55.8692
55.8652
55.8611
55.8571
55.8531
55.849
55.845
55.841
55.8369
55.8329
55.8289
55.8248
55.8208
55.8168
55.8127
55.8087
55.8047
55.8006
55.7966
55.7926
55.7885
55.7845
55.7805
55.7764
55.7724
55.7683
55.7643
55.7603
55.7562
55.7522
55.7482
55.7441
55.7401
55.736
55.732
55.728
55.7239
55.7199
55.7158
55.7118
55.7078
55.7037
55.6997
55.6956
55.6916
55.6875
55.6835
55.6795
55.6754
55.6714
55.6673
55.6633
55.6592
55.6552
55.6511
55.6471
55.6431
55.639
55.635
55.6309
55.6269
55.6228
55.6188
55.6147
55.6107
55.6066
55.6026
55.5985
55.5945
55.5904
55.5864
55.5823
55.5783
55.5742
55.5702
55.5661
55.5621
55.558
55.554
55.5499
55.5459
55.5418
55.5378
55.5337
55.5297
55.5256
55.5215
55.5175
55.5134
55.5094
55.5053
55.5013
55.4972
55.4932
55.4891
55.4851
55.481
55.4769
55.4729
55.4688
55.4648
55.4607
55.4567
55.4526
55.4485
55.4445
55.4404
55.4364
55.4323
55.4282
55.4242
55.4201
55.4161
55.412
55.408
55.4039
55.3998
55.3958
55.3917
55.3877
55.3836
55.3795
55.3755
55.3714
55.3674
55.3633
55.3592
55.3552
55.3511
55.3471
55.343
55.3389
55.3349
55.3308
55.3268
55.3227
55.3186
55.3146
55.3105
55.3065
55.3024
55.2983
55.2943
55.2902
55.2862
55.2821
55.278
55.274
55.2699
55.2659
55.2618
55.2577
55.2537
55.2496
55.2456
55.2415
55.2374
55.2334
55.2293
55.2253
55.2212
55.2171
55.2131
55.209
55.205
55.2009
55.1968
55.1928
55.1887
55.1847
55.1806
55.1765
55.1725
55.1684
55.1644
55.1603
55.1562
55.1522
55.1481
55.1441
55.14
55.1359
55.1319
55.1278
55.1238
55.1197
55.1156
55.1116
55.1075
55.1035
55.0994
55.0954
55.0913
55.0872
55.0832
55.0791
55.0751
55.071
55.0669
55.0629
55.0588
55.0548
55.0507
55.0466
55.0426
55.0385
55.0345
55.0304
55.0263
55.0223
55.0182
55.0142
55.0101
55.006
55.002
54.9979
54.9938
54.9898
54.9857
54.9817
54.9776
54.9735
54.9695
54.9654
54.9614
54.9573
54.9532
54.9492
54.9451
54.941
54.937
54.9329
54.9289
54.9248
54.9207
54.9167
54.9126
54.9085
54.9045
54.9004
54.8963
54.8923
54.8882
54.8842
54.8801
54.876
54.872
54.8679
54.8638
54.8598
54.8557
54.8516
54.8476
54.8435
54.8394
54.8354
54.8313
54.8272
54.8232
54.8191
54.815
54.811
54.8069
54.8028
54.7987
54.7947
54.7906
54.7865
54.7825
54.7784
54.7743
54.7703
54.7662
54.7621
54.758
54.754
54.7499
54.7458
54.7418
54.7377
54.7336
54.7295
54.7255
54.7214
54.7173
54.7133
54.7092
54.7051
54.701
54.697
54.6929
54.6888
54.6847
54.6807
54.6766
54.6725
54.6684
54.6644
54.6644
56.7252
56.7252
56.4611
56.4153
56.394
56.3791
56.3669
56.356
56.3459
56.3363
56.3271
56.3182
56.3096
56.3012
56.293
56.2849
56.2771
56.2694
56.2618
56.2545
56.2472
56.2401
56.2332
56.2263
56.2196
56.213
56.2065
56.2001
56.1938
56.1876
56.1815
56.1754
56.1695
56.1637
56.1579
56.1522
56.1467
56.1412
56.1358
56.1306
56.1254
56.1203
56.1154
56.1105
56.1057
56.1009
56.0962
56.0916
56.087
56.0825
56.078
56.0736
56.0691
56.0647
56.0603
56.056
56.0516
56.0473
56.0431
56.0388
56.0347
56.0305
56.0264
56.0223
56.0182
56.0142
56.0101
56.0061
56.0021
55.9981
55.994
55.99
55.986
55.982
55.9779
55.9739
55.9699
55.9659
55.9618
55.9578
55.9538
55.9498
55.9457
55.9417
55.9377
55.9336
55.9296
55.9256
55.9216
55.9175
55.9135
55.9095
55.9055
55.9014
55.8974
55.8934
55.8893
55.8853
55.8813
55.8773
55.8732
55.8692
55.8652
55.8611
55.8571
55.8531
55.849
55.845
55.841
55.8369
55.8329
55.8289
55.8248
55.8208
55.8168
55.8127
55.8087
55.8047
55.8006
55.7966
55.7926
55.7885
55.7845
55.7805
55.7764
55.7724
55.7683
55.7643
55.7603
55.7562
55.7522
55.7482
55.7441
55.7401
55.736
55.732
55.728
55.7239
55.7199
55.7158
55.7118
55.7078
55.7037
55.6997
55.6956
55.6916
55.6875
55.6835
55.6795
55.6754
55.6714
55.6673
55.6633
55.6592
55.6552
55.6511
55.6471
55.6431
55.639
55.635
55.6309
55.6269
55.6228
55.6188
55.6147
55.6107
55.6066
55.6026
55.5985
55.5945
55.5904
55.5864
55.5823
55.5783
55.5742
55.5702
55.5661
55.5621
55.558
55.554
55.5499
55.5459
55.5418
55.5378
55.5337
55.5297
55.5256
55.5215
55.5175
55.5134
55.5094
55.5053
55.5013
55.4972
55.4932
55.4891
55.4851
55.481
55.4769
55.4729
55.4688
55.4648
55.4607
55.4567
55.4526
55.4485
55.4445
55.4404
55.4364
55.4323
55.4282
55.4242
55.4201
55.4161
55.412
55.408
55.4039
55.3998
55.3958
55.3917
55.3877
55.3836
55.3795
55.3755
55.3714
55.3674
55.3633
55.3592
55.3552
55.3511
55.3471
55.343
55.3389
55.3349
55.3308
55.3268
55.3227
55.3186
55.3146
55.3105
55.3065
55.3024
55.2983
55.2943
55.2902
55.2862
55.2821
55.278
55.274
55.2699
55.2659
55.2618
55.2577
55.2537
55.2496
55.2456
55.2415
55.2374
55.2334
55.2293
55.2253
55.2212
55.2171
55.2131
55.209
55.205
55.2009
55.1968
55.1928
55.1887
55.1847
55.1806
55.1765
55.1725
55.1684
55.1644
55.1603
55.1562
55.1522
55.1481
55.1441
55.14
55.1359
55.1319
55.1278
55.1238
55.1197
55.1156
55.1116
55.1075
55.1035
55.0994
55.0954
55.0913
55.0872
55.0832
55.0791
55.0751
55.071
55.0669
55.0629
55.0588
55.0548
55.0507
55.0466
55.0426
55.0385
55.0345
55.0304
55.0263
55.0223
55.0182
55.0142
55.0101
55.006
55.002
54.9979
54.9938
54.9898
54.9857
54.9817
54.9776
54.9735
54.9695
54.9654
54.9614
54.9573
54.9532
54.9492
54.9451
54.941
54.937
54.9329
54.9289
54.9248
54.9207
54.9167
54.9126
54.9085
54.9045
54.9004
54.8963
54.8923
54.8882
54.8842
54.8801
54.876
54.872
54.8679
54.8638
54.8598
54.8557
54.8516
54.8476
54.8435
54.8394
54.8354
54.8313
54.8272
54.8232
54.8191
54.815
54.811
54.8069
54.8028
54.7987
54.7947
54.7906
54.7865
54.7825
54.7784
54.7743
54.7703
54.7662
54.7621
54.758
54.754
54.7499
54.7458
54.7418
54.7377
54.7336
54.7295
54.7255
54.7214
54.7173
54.7133
54.7092
54.7051
54.701
54.697
54.6929
54.6888
54.6847
54.6807
54.6766
54.6725
54.6684
54.6644
54.6644
56.7093
56.7093
56.4639
56.4164
56.3946
56.3795
56.3671
56.3562
56.3461
56.3365
56.3272
56.3183
56.3097
56.3012
56.293
56.285
56.2771
56.2694
56.2619
56.2545
56.2473
56.2402
56.2332
56.2264
56.2196
56.213
56.2065
56.2001
56.1938
56.1876
56.1815
56.1754
56.1695
56.1637
56.1579
56.1523
56.1467
56.1412
56.1358
56.1306
56.1254
56.1203
56.1154
56.1105
56.1057
56.1009
56.0962
56.0916
56.087
56.0825
56.078
56.0736
56.0691
56.0647
56.0603
56.056
56.0516
56.0473
56.0431
56.0388
56.0347
56.0305
56.0264
56.0223
56.0182
56.0142
56.0101
56.0061
56.0021
55.9981
55.994
55.99
55.986
55.982
55.9779
55.9739
55.9699
55.9659
55.9618
55.9578
55.9538
55.9498
55.9457
55.9417
55.9377
55.9336
55.9296
55.9256
55.9216
55.9175
55.9135
55.9095
55.9055
55.9014
55.8974
55.8934
55.8893
55.8853
55.8813
55.8773
55.8732
55.8692
55.8652
55.8611
55.8571
55.8531
55.849
55.845
55.841
55.8369
55.8329
55.8289
55.8248
55.8208
55.8168
55.8127
55.8087
55.8047
55.8006
55.7966
55.7926
55.7885
55.7845
55.7805
55.7764
55.7724
55.7683
55.7643
55.7603
55.7562
55.7522
55.7482
55.7441
55.7401
55.736
55.732
55.728
55.7239
55.7199
55.7158
55.7118
55.7078
55.7037
55.6997
55.6956
55.6916
55.6875
55.6835
55.6795
55.6754
55.6714
55.6673
55.6633
55.6592
55.6552
55.6511
55.6471
55.6431
55.639
55.635
55.6309
55.6269
55.6228
55.6188
55.6147
55.6107
55.6066
55.6026
55.5985
55.5945
55.5904
55.5864
55.5823
55.5783
55.5742
55.5702
55.5661
55.5621
55.558
55.554
55.5499
55.5459
55.5418
55.5378
55.5337
55.5297
55.5256
55.5215
55.5175
55.5134
55.5094
55.5053
55.5013
55.4972
55.4932
55.4891
55.4851
55.481
55.4769
55.4729
55.4688
55.4648
55.4607
55.4567
55.4526
55.4485
55.4445
55.4404
55.4364
55.4323
55.4282
55.4242
55.4201
55.4161
55.412
55.408
55.4039
55.3998
55.3958
55.3917
55.3877
55.3836
55.3795
55.3755
55.3714
55.3674
55.3633
55.3592
55.3552
55.3511
55.3471
55.343
55.3389
55.3349
55.3308
55.3268
55.3227
55.3186
55.3146
55.3105
55.3065
55.3024
55.2983
55.2943
55.2902
55.2862
55.2821
55.278
55.274
55.2699
55.2659
55.2618
55.2577
55.2537
55.2496
55.2456
55.2415
55.2374
55.2334
55.2293
55.2253
55.2212
55.2171
55.2131
55.209
55.205
55.2009
55.1968
55.1928
55.1887
55.1847
55.1806
55.1765
55.1725
55.1684
55.1644
55.1603
55.1562
55.1522
55.1481
55.1441
55.14
55.1359
55.1319
55.1278
55.1238
55.1197
55.1156
55.1116
55.1075
55.1035
55.0994
55.0954
55.0913
55.0872
55.0832
55.0791
55.0751
55.071
55.0669
55.0629
55.0588
55.0548
55.0507
55.0466
55.0426
55.0385
55.0345
55.0304
55.0263
55.0223
55.0182
55.0142
55.0101
55.006
55.002
54.9979
54.9938
54.9898
54.9857
54.9817
54.9776
54.9735
54.9695
54.9654
54.9614
54.9573
54.9532
54.9492
54.9451
54.941
54.937
54.9329
54.9289
54.9248
54.9207
54.9167
54.9126
54.9085
54.9045
54.9004
54.8963
54.8923
54.8882
54.8842
54.8801
54.876
54.872
54.8679
54.8638
54.8598
54.8557
54.8516
54.8476
54.8435
54.8394
54.8354
54.8313
54.8272
54.8232
54.8191
54.815
54.811
54.8069
54.8028
54.7987
54.7947
54.7906
54.7865
54.7825
54.7784
54.7743
54.7703
54.7662
54.7621
54.758
54.754
54.7499
54.7458
54.7418
54.7377
54.7336
54.7295
54.7255
54.7214
54.7173
54.7133
54.7092
54.7051
54.701
54.697
54.6929
54.6888
54.6847
54.6807
54.6766
54.6725
54.6684
54.6644
54.6644
56.6942
56.6942
56.4667
56.4176
56.3952
56.3799
56.3674
56.3564
56.3462
56.3366
56.3273
56.3184
56.3097
56.3013
56.2931
56.285
56.2771
56.2695
56.2619
56.2545
56.2473
56.2402
56.2332
56.2264
56.2196
56.213
56.2065
56.2001
56.1938
56.1876
56.1815
56.1755
56.1695
56.1637
56.1579
56.1523
56.1467
56.1412
56.1358
56.1306
56.1254
56.1203
56.1154
56.1105
56.1057
56.1009
56.0962
56.0916
56.087
56.0825
56.078
56.0736
56.0691
56.0647
56.0603
56.056
56.0516
56.0473
56.0431
56.0388
56.0347
56.0305
56.0264
56.0223
56.0182
56.0142
56.0101
56.0061
56.0021
55.9981
55.994
55.99
55.986
55.982
55.9779
55.9739
55.9699
55.9659
55.9618
55.9578
55.9538
55.9498
55.9457
55.9417
55.9377
55.9336
55.9296
55.9256
55.9216
55.9175
55.9135
55.9095
55.9055
55.9014
55.8974
55.8934
55.8893
55.8853
55.8813
55.8773
55.8732
55.8692
55.8652
55.8611
55.8571
55.8531
55.849
55.845
55.841
55.8369
55.8329
55.8289
55.8248
55.8208
55.8168
55.8127
55.8087
55.8047
55.8006
55.7966
55.7926
55.7885
55.7845
55.7805
55.7764
55.7724
55.7683
55.7643
55.7603
55.7562
55.7522
55.7482
55.7441
55.7401
55.736
55.732
55.728
55.7239
55.7199
55.7158
55.7118
55.7078
55.7037
55.6997
55.6956
55.6916
55.6875
55.6835
55.6795
55.6754
55.6714
55.6673
55.6633
55.6592
55.6552
55.6511
55.6471
55.6431
55.639
55.635
55.6309
55.6269
55.6228
55.6188
55.6147
55.6107
55.6066
55.6026
55.5985
55.5945
55.5904
55.5864
55.5823
55.5783
55.5742
55.5702
55.5661
55.5621
55.558
55.554
55.5499
55.5459
55.5418
55.5378
55.5337
55.5297
55.5256
55.5215
55.5175
55.5134
55.5094
55.5053
55.5013
55.4972
55.4932
55.4891
55.485
55.481
55.4769
55.4729
55.4688
55.4648
55.4607
55.4567
55.4526
55.4485
55.4445
55.4404
55.4364
55.4323
55.4282
55.4242
55.4201
55.4161
55.412
55.408
55.4039
55.3998
55.3958
55.3917
55.3877
55.3836
55.3795
55.3755
55.3714
55.3674
55.3633
55.3592
55.3552
55.3511
55.3471
55.343
55.3389
55.3349
55.3308
55.3268
55.3227
55.3186
55.3146
55.3105
55.3065
55.3024
55.2983
55.2943
55.2902
55.2862
55.2821
55.278
55.274
55.2699
55.2659
55.2618
55.2577
55.2537
55.2496
55.2456
55.2415
55.2374
55.2334
55.2293
55.2253
55.2212
55.2171
55.2131
55.209
55.205
55.2009
55.1968
55.1928
55.1887
55.1847
55.1806
55.1765
55.1725
55.1684
55.1644
55.1603
55.1562
55.1522
55.1481
55.1441
55.14
55.1359
55.1319
55.1278
55.1238
55.1197
55.1156
55.1116
55.1075
55.1035
55.0994
55.0954
55.0913
55.0872
55.0832
55.0791
55.0751
55.071
55.0669
55.0629
55.0588
55.0548
55.0507
55.0466
55.0426
55.0385
55.0345
55.0304
55.0263
55.0223
55.0182
55.0142
55.0101
55.006
55.002
54.9979
54.9938
54.9898
54.9857
54.9817
54.9776
54.9735
54.9695
54.9654
54.9614
54.9573
54.9532
54.9492
54.9451
54.941
54.937
54.9329
54.9289
54.9248
54.9207
54.9167
54.9126
54.9085
54.9045
54.9004
54.8963
54.8923
54.8882
54.8842
54.8801
54.876
54.872
54.8679
54.8638
54.8598
54.8557
54.8516
54.8476
54.8435
54.8394
54.8354
54.8313
54.8272
54.8232
54.8191
54.815
54.811
54.8069
54.8028
54.7987
54.7947
54.7906
54.7865
54.7825
54.7784
54.7743
54.7703
54.7662
54.7621
54.758
54.754
54.7499
54.7458
54.7418
54.7377
54.7336
54.7295
54.7255
54.7214
54.7173
54.7133
54.7092
54.7051
54.701
54.697
54.6929
54.6888
54.6847
54.6807
54.6766
54.6725
54.6684
54.6644
54.6644
56.6802
56.6802
56.4692
56.4187
56.3958
56.3803
56.3677
56.3566
56.3464
56.3367
56.3274
56.3185
56.3098
56.3014
56.2931
56.2851
56.2772
56.2695
56.262
56.2546
56.2473
56.2402
56.2332
56.2264
56.2197
56.213
56.2065
56.2001
56.1938
56.1876
56.1815
56.1755
56.1695
56.1637
56.1579
56.1523
56.1467
56.1412
56.1358
56.1306
56.1254
56.1203
56.1154
56.1105
56.1057
56.1009
56.0962
56.0916
56.087
56.0825
56.078
56.0736
56.0691
56.0647
56.0603
56.056
56.0516
56.0473
56.0431
56.0389
56.0347
56.0305
56.0264
56.0223
56.0182
56.0142
56.0101
56.0061
56.0021
55.9981
55.994
55.99
55.986
55.982
55.9779
55.9739
55.9699
55.9659
55.9618
55.9578
55.9538
55.9498
55.9457
55.9417
55.9377
55.9336
55.9296
55.9256
55.9216
55.9175
55.9135
55.9095
55.9055
55.9014
55.8974
55.8934
55.8893
55.8853
55.8813
55.8773
55.8732
55.8692
55.8652
55.8611
55.8571
55.8531
55.849
55.845
55.841
55.8369
55.8329
55.8289
55.8248
55.8208
55.8168
55.8127
55.8087
55.8047
55.8006
55.7966
55.7926
55.7885
55.7845
55.7805
55.7764
55.7724
55.7683
55.7643
55.7603