# vtk DataFile Version 2.0
FlowField
ASCII
DATASET STRUCTURED_GRID
DIMENSIONS 400 1 200
POINTS 80000 float
0 0 0
0.08 0 0
0.16 0 0
0.24 0 0
0.32 0 0
0.4 0 0
0.48 0 0
0.56 0 0
0.64 0 0
0.72 0 0
0.8 0 0
0.88 0 0
0.96 0 0
1.04 0 0
1.12 0 0
1.2 0 0
1.28 0 0
1.36 0 0
1.44 0 0
1.52 0 0
1.6 0 0
1.68 0 0
1.76 0 0
1.84 0 0
1.92 0 0
2 0 0
2.08 0 0
2.16 0 0
2.24 0 0
2.32 0 0
2.4 0 0
2.48 0 0
2.56 0 0
2.64 0 0
2.72 0 0
2.8 0 0
2.88 0 0
2.96 0 0
3.04 0 0
3.12 0 0
3.2 0 0
3.28 0 0
3.36 0 0
3.44 0 0
3.52 0 0
3.6 0 0
3.68 0 0
3.76 0 0
3.84 0 0
3.92 0 0
4 0 0
4.08 0 0
4.16 0 0
4.24 0 0
4.32 0 0
4.4 0 0
4.48 0 0
4.56 0 0
4.64 0 0
4.72 0 0
4.8 0 0
4.88 0 0
4.96 0 0
5.04 0 0
5.12 0 0
5.2 0 0
5.28 0 0
5.36 0 0
5.44 0 0
5.52 0 0
5.6 0 0
5.68 0 0
5.76 0 0
5.84 0 0
5.92 0 0
6 0 0
6.08 0 0
6.16 0 0
6.24 0 0
6.32 0 0
6.4 0 0
6.48 0 0
6.56 0 0
6.64 0 0
6.72 0 0
6.8 0 0
6.88 0 0
6.96 0 0
7.04 0 0
7.12 0 0
7.2 0 0
7.28 0 0
7.36 0 0
7.44 0 0
7.52 0 0
7.6 0 0
7.68 0 0
7.76 0 0
7.84 0 0
7.92 0 0
8 0 0
8.08 0 0
8.16 0 0
8.24 0 0
8.32 0 0
8.4 0 0
8.48 0 0
8.56 0 0
8.64 0 0
8.72 0 0
8.8 0 0
8.88 0 0
8.96 0 0
9.04 0 0
9.12 0 0
9.2 0 0
9.28 0 0
9.36 0 0
9.44 0 0
9.52 0 0
9.6 0 0
9.68 0 0
9.76 0 0
9.84 0 0
9.92 0 0
10 0 0
10.08 0 0
10.16 0 0
10.24 0 0
10.32 0 0
10.4 0 0
10.48 0 0
10.56 0 0
10.64 0 0
10.72 0 0
10.8 0 0
10.88 0 0
10.96 0 0
11.04 0 0
11.12 0 0
11.2 0 0
11.28 0 0
11.36 0 0
11.44 0 0
11.52 0 0
11.6 0 0
11.68 0 0
11.76 0 0
11.84 0 0
11.92 0 0
12 0 0
12.08 0 0
12.16 0 0
12.24 0 0
12.32 0 0
12.4 0 0
12.48 0 0
12.56 0 0
12.64 0 0
12.72 0 0
12.8 0 0
12.88 0 0
12.96 0 0
13.04 0 0
13.12 0 0
13.2 0 0
13.28 0 0
13.36 0 0
13.44 0 0
13.52 0 0
13.6 0 0
13.68 0 0
13.76 0 0
13.84 0 0
13.92 0 0
14 0 0
14.08 0 0
14.16 0 0
14.24 0 0
14.32 0 0
14.4 0 0
14.48 0 0
14.56 0 0
14.64 0 0
14.72 0 0
14.8 0 0
14.88 0 0
14.96 0 0
15.04 0 0
15.12 0 0
15.2 0 0
15.28 0 0
15.36 0 0
15.44 0 0
15.52 0 0
15.6 0 0
15.68 0 0
15.76 0 0
15.84 0 0
15.92 0 0
16 0 0
16.08 0 0
16.16 0 0
16.24 0 0
16.32 0 0
16.4 0 0
16.48 0 0
16.56 0 0
16.64 0 0
16.72 0 0
16.8 0 0
16.88 0 0
16.96 0 0
17.04 0 0
17.12 0 0
17.2 0 0
17.28 0 0
17.36 0 0
17.44 0 0
17.52 0 0
17.6 0 0
17.68 0 0
17.76 0 0
17.84 0 0
17.92 0 0
18 0 0
18.08 0 0
18.16 0 0
18.24 0 0
18.32 0 0
18.4 0 0
18.48 0 0
18.56 0 0
18.64 0 0
18.72 0 0
18.8 0 0
18.88 0 0
18.96 0 0
19.04 0 0
19.12 0 0
19.2 0 0
19.28 0 0
19.36 0 0
19.44 0 0
19.52 0 0
19.6 0 0
19.68 0 0
19.76 0 0
19.84 0 0
19.92 0 0
20 0 0
20.08 0 0
20.16 0 0
20.24 0 0
20.32 0 0
20.4 0 0
20.48 0 0
20.56 0 0
20.64 0 0
20.72 0 0
20.8 0 0
20.88 0 0
20.96 0 0
21.04 0 0
21.12 0 0
21.2 0 0
21.28 0 0
21.36 0 0
21.44 0 0
21.52 0 0
21.6 0 0
21.68 0 0
21.76 0 0
21.84 0 0
21.92 0 0
22 0 0
22.08 0 0
22.16 0 0
22.24 0 0
22.32 0 0
22.4 0 0
22.48 0 0
22.56 0 0
22.64 0 0
22.72 0 0
22.8 0 0
22.88 0 0
22.96 0 0
23.04 0 0
23.12 0 0
23.2 0 0
23.28 0 0
23.36 0 0
23.44 0 0
23.52 0 0
23.6 0 0
23.68 0 0
23.76 0 0
23.84 0 0
23.92 0 0
24 0 0
24.08 0 0
24.16 0 0
24.24 0 0
24.32 0 0
24.4 0 0
24.48 0 0
24.56 0 0
24.64 0 0
24.72 0 0
24.8 0 0
24.88 0 0
24.96 0 0
25.04 0 0
25.12 0 0
25.2 0 0
25.28 0 0
25.36 0 0
25.44 0 0
25.52 0 0
25.6 0 0
25.68 0 0
25.76 0 0
25.84 0 0
25.92 0 0
26 0 0
26.08 0 0
26.16 0 0
26.24 0 0
26.32 0 0
26.4 0 0
26.48 0 0
26.56 0 0
26.64 0 0
26.72 0 0
26.8 0 0
26.88 0 0
26.96 0 0
27.04 0 0
27.12 0 0
27.2 0 0
27.28 0 0
27.36 0 0
27.44 0 0
27.52 0 0
27.6 0 0
27.68 0 0
27.76 0 0
27.84 0 0
27.92 0 0
28 0 0
28.08 0 0
28.16 0 0
28.24 0 0
28.32 0 0
28.4 0 0
28.48 0 0
28.56 0 0
28.64 0 0
28.72 0 0
28.8 0 0
28.88 0 0
28.96 0 0
29.04 0 0
29.12 0 0
29.2 0 0
29.28 0 0
29.36 0 0
29.44 0 0
29.52 0 0
29.6 0 0
29.68 0 0
29.76 0 0
29.84 0 0
29.92 0 0
30 0 0
30.08 0 0
30.16 0 0
30.24 0 0
30.32 0 0
30.4 0 0
30.48 0 0
30.56 0 0
30.64 0 0
30.72 0 0
30.8 0 0
30.88 0 0
30.96 0 0
31.04 0 0
31.12 0 0
31.2 0 0
31.28 0 0
31.36 0 0
31.44 0 0
31.52 0 0
31.6 0 0
31.68 0 0
31.76 0 0
31.84 0 0
31.92 0 0
0 0.005 0
0.08 0.005 0
0.16 0.005 0
0.24 0.005 0
0.32 0.005 0
0.4 0.005 0
0.48 0.005 0
0.56 0.005 0
0.64 0.005 0
0.72 0.005 0
0.8 0.005 0
0.88 0.005 0
0.96 0.005 0
1.04 0.005 0
1.12 0.005 0
1.2 0.005 0
1.28 0.005 0
1.36 0.005 0
1.44 0.005 0
1.52 0.005 0
1.6 0.005 0
1.68 0.005 0
1.76 0.005 0
1.84 0.005 0
1.92 0.005 0
2 0.005 0
2.08 0.005 0
2.16 0.005 0
2.24 0.005 0
2.32 0.005 0
2.4 0.005 0
2.48 0.005 0
2.56 0.005 0
2.64 0.005 0
2.72 0.005 0
2.8 0.005 0
2.88 0.005 0
2.96 0.005 0
3.04 0.005 0
3.12 0.005 0
3.2 0.005 0
3.28 0.005 0
3.36 0.005 0
3.44 0.005 0
3.52 0.005 0
3.6 0.005 0
3.68 0.005 0
3.76 0.005 0
3.84 0.005 0
3.92 0.005 0
4 0.005 0
4.08 0.005 0
4.16 0.005 0
4.24 0.005 0
4.32 0.005 0
4.4 0.005 0
4.48 0.005 0
4.56 0.005 0
4.64 0.005 0
4.72 0.005 0
4.8 0.005 0
4.88 0.005 0
4.96 0.005 0
5.04 0.005 0
5.12 0.005 0
5.2 0.005 0
5.28 0.005 0
5.36 0.005 0
5.44 0.005 0
5.52 0.005 0
5.6 0.005 0
5.68 0.005 0
5.76 0.005 0
5.84 0.005 0
5.92 0.005 0
6 0.005 0
6.08 0.005 0
6.16 0.005 0
6.24 0.005 0
6.32 0.005 0
6.4 0.005 0
6.48 0.005 0
6.56 0.005 0
6.64 0.005 0
6.72 0.005 0
6.8 0.005 0
6.88 0.005 0
6.96 0.005 0
7.04 0.005 0
7.12 0.005 0
7.2 0.005 0
7.28 0.005 0
7.36 0.005 0
7.44 0.005 0
7.52 0.005 0
7.6 0.005 0
7.68 0.005 0
7.76 0.005 0
7.84 0.005 0
7.92 0.005 0
8 0.005 0
8.08 0.005 0
8.16 0.005 0
8.24 0.005 0
8.32 0.005 0
8.4 0.005 0
8.48 0.005 0
8.56 0.005 0
8.64 0.005 0
8.72 0.005 0
8.8 0.005 0
8.88 0.005 0
8.96 0.005 0
9.04 0.005 0
9.12 0.005 0
9.2 0.005 0
9.28 0.005 0
9.36 0.005 0
9.44 0.005 0
9.52 0.005 0
9.6 0.005 0
9.68 0.005 0
9.76 0.005 0
9.84 0.005 0
9.92 0.005 0
10 0.005 0
10.08 0.005 0
10.16 0.005 0
10.24 0.005 0
10.32 0.005 0
10.4 0.005 0
10.48 0.005 0
10.56 0.005 0
10.64 0.005 0
10.72 0.005 0
10.8 0.005 0
10.88 0.005 0
10.96 0.005 0
11.04 0.005 0
11.12 0.005 0
11.2 0.005 0
11.28 0.005 0
11.36 0.005 0
11.44 0.005 0
11.52 0.005 0
11.6 0.005 0
11.68 0.005 0
11.76 0.005 0
11.84 0.005 0
11.92 0.005 0
12 0.005 0
12.08 0.005 0
12.16 0.005 0
12.24 0.005 0
12.32 0.005 0
12.4 0.005 0
12.48 0.005 0
12.56 0.005 0
12.64 0.005 0
12.72 0.005 0
12.8 0.005 0
12.88 0.005 0
12.96 0.005 0
13.04 0.005 0
13.12 0.005 0
13.2 0.005 0
13.28 0.005 0
13.36 0.005 0
13.44 0.005 0
13.52 0.005 0
13.6 0.005 0
13.68 0.005 0
13.76 0.005 0
13.84 0.005 0
13.92 0.005 0
14 0.005 0
14.08 0.005 0
14.16 0.005 0
14.24 0.005 0
14.32 0.005 0
14.4 0.005 0
14.48 0.005 0
14.56 0.005 0
14.64 0.005 0
14.72 0.005 0
14.8 0.005 0
14.88 0.005 0
14.96 0.005 0
15.04 0.005 0
15.12 0.005 0
15.2 0.005 0
15.28 0.005 0
15.36 0.005 0
15.44 0.005 0
15.52 0.005 0
15.6 0.005 0
15.68 0.005 0
15.76 0.005 0
15.84 0.005 0
15.92 0.005 0
16 0.005 0
16.08 0.005 0
16.16 0.005 0
16.24 0.005 0
16.32 0.005 0
16.4 0.005 0
16.48 0.005 0
16.56 0.005 0
16.64 0.005 0
16.72 0.005 0
16.8 0.005 0
16.88 0.005 0
16.96 0.005 0
17.04 0.005 0
17.12 0.005 0
17.2 0.005 0
17.28 0.005 0
17.36 0.005 0
17.44 0.005 0
17.52 0.005 0
17.6 0.005 0
17.68 0.005 0
17.76 0.005 0
17.84 0.005 0
17.92 0.005 0
18 0.005 0
18.08 0.005 0
18.16 0.005 0
18.24 0.005 0
18.32 0.005 0
18.4 0.005 0
18.48 0.005 0
18.56 0.005 0
18.64 0.005 0
18.72 0.005 0
18.8 0.005 0
18.88 0.005 0
18.96 0.005 0
19.04 0.005 0
19.12 0.005 0
19.2 0.005 0
19.28 0.005 0
19.36 0.005 0
19.44 0.005 0
19.52 0.005 0
19.6 0.005 0
19.68 0.005 0
19.76 0.005 0
19.84 0.005 0
19.92 0.005 0
20 0.005 0
20.08 0.005 0
20.16 0.005 0
20.24 0.005 0
20.32 0.005 0
20.4 0.005 0
20.48 0.005 0
20.56 0.005 0
20.64 0.005 0
20.72 0.005 0
20.8 0.005 0
20.88 0.005 0
20.96 0.005 0
21.04 0.005 0
21.12 0.005 0
21.2 0.005 0
21.28 0.005 0
21.36 0.005 0
21.44 0.005 0
21.52 0.005 0
21.6 0.005 0
21.68 0.005 0
21.76 0.005 0
21.84 0.005 0
21.92 0.005 0
22 0.005 0
22.08 0.005 0
22.16 0.005 0
22.24 0.005 0
22.32 0.005 0
22.4 0.005 0
22.48 0.005 0
22.56 0.005 0
22.64 0.005 0
22.72 0.005 0
22.8 0.005 0
22.88 0.005 0
22.96 0.005 0
23.04 0.005 0
23.12 0.005 0
23.2 0.005 0
23.28 0.005 0
23.36 0.005 0
23.44 0.005 0
23.52 0.005 0
23.6 0.005 0
23.68 0.005 0
23.76 0.005 0
23.84 0.005 0
23.92 0.005 0
24 0.005 0
24.08 0.005 0
24.16 0.005 0
24.24 0.005 0
24.32 0.005 0
24.4 0.005 0
24.48 0.005 0
24.56 0.005 0
24.64 0.005 0
24.72 0.005 0
24.8 0.005 0
24.88 0.005 0
24.96 0.005 0
25.04 0.005 0
25.12 0.005 0
25.2 0.005 0
25.28 0.005 0
25.36 0.005 0
25.44 0.005 0
25.52 0.005 0
25.6 0.005 0
25.68 0.005 0
25.76 0.005 0
25.84 0.005 0
25.92 0.005 0
26 0.005 0
26.08 0.005 0
26.16 0.005 0
26.24 0.005 0
26.32 0.005 0
26.4 0.005 0
26.48 0.005 0
26.56 0.005 0
26.64 0.005 0
26.72 0.005 0
26.8 0.005 0
26.88 0.005 0
26.96 0.005 0
27.04 0.005 0
27.12 0.005 0
27.2 0.005 0
27.28 0.005 0
27.36 0.005 0
27.44 0.005 0
27.52 0.005 0
27.6 0.005 0
27.68 0.005 0
27.76 0.005 0
27.84 0.005 0
27.92 0.005 0
28 0.005 0
28.08 0.005 0
28.16 0.005 0
28.24 0.005 0
28.32 0.005 0
28.4 0.005 0
28.48 0.005 0
28.56 0.005 0
28.64 0.005 0
28.72 0.005 0
28.8 0.005 0
28.88 0.005 0
28.96 0.005 0
29.04 0.005 0
29.12 0.005 0
29.2 0.005 0
29.28 0.005 0
29.36 0.005 0
29.44 0.005 0
29.52 0.005 0
29.6 0.005 0
29.68 0.005 0
29.76 0.005 0
29.84 0.005 0
29.92 0.005 0
30 0.005 0
30.08 0.005 0
30.16 0.005 0
30.24 0.005 0
30.32 0.005 0
30.4 0.005 0
30.48 0.005 0
30.56 0.005 0
30.64 0.005 0
30.72 0.005 0
30.8 0.005 0
30.88 0.005 0
30.96 0.005 0
31.04 0.005 0
31.12 0.005 0
31.2 0.005 0
31.28 0.005 0
31.36 0.005 0
31.44 0.005 0
31.52 0.005 0
31.6 0.005 0
31.68 0.005 0
31.76 0.005 0
31.84 0.005 0
31.92 0.005 0
0 0.01 0
0.08 0.01 0
0.16 0.01 0
0.24 0.01 0
0.32 0.01 0
0.4 0.01 0
0.48 0.01 0
0.56 0.01 0
0.64 0.01 0
0.72 0.01 0
0.8 0.01 0
0.88 0.01 0
0.96 0.01 0
1.04 0.01 0
1.12 0.01 0
1.2 0.01 0
1.28 0.01 0
1.36 0.01 0
1.44 0.01 0
1.52 0.01 0
1.6 0.01 0
1.68 0.01 0
1.76 0.01 0
1.84 0.01 0
1.92 0.01 0
2 0.01 0
2.08 0.01 0
2.16 0.01 0
2.24 0.01 0
2.32 0.01 0
2.4 0.01 0
2.48 0.01 0
2.56 0.01 0
2.64 0.01 0
2.72 0.01 0
2.8 0.01 0
2.88 0.01 0
2.96 0.01 0
3.04 0.01 0
3.12 0.01 0
3.2 0.01 0
3.28 0.01 0
3.36 0.01 0
3.44 0.01 0
3.52 0.01 0
3.6 0.01 0
3.68 0.01 0
3.76 0.01 0
3.84 0.01 0
3.92 0.01 0
4 0.01 0
4.08 0.01 0
4.16 0.01 0
4.24 0.01 0
4.32 0.01 0
4.4 0.01 0
4.48 0.01 0
4.56 0.01 0
4.64 0.01 0
4.72 0.01 0
4.8 0.01 0
4.88 0.01 0
4.96 0.01 0
5.04 0.01 0
5.12 0.01 0
[...]
POINT_DATA 80000

SCALARS u float 1
LOOKUP_TABLE default
0
-0.131663
-0.0682695
-0.0522964
-0.0444203
-0.0395772
-0.0362602
-0.0338332
-0.0319732
-0.0304966
-0.0292906
-0.0282823
-0.0274228
-0.0266782
-0.0260243
-0.0254434
-0.0249226
-0.0244517
-0.0240231
-0.0236307
-0.0232697
-0.022936
-0.0226265
-0.0223384
-0.0220694
-0.0218176
-0.0215812
-0.0213589
-0.0211493
-0.0209513
-0.0207641
-0.0205869
-0.0204186
-0.0202588
-0.0201067
-0.019962
-0.0198243
-0.0196931
-0.0195682
-0.0194489
-0.0193351
-0.0192265
-0.0191233
-0.0190256
-0.0189335
-0.0188469
-0.0187658
-0.01869
-0.0186196
-0.0185547
-0.0184953
-0.0184412
-0.0183922
-0.0183475
-0.0183064
-0.0182684
-0.0182329
-0.0181999
-0.0181695
-0.0181418
-0.0181168
-0.0180943
-0.0180741
-0.0180558
-0.0180388
-0.0180228
-0.0180076
-0.0179933
-0.0179799
-0.0179677
-0.0179569
-0.0179476
-0.01794
-0.0179339
-0.0179294
-0.0179261
-0.0179239
-0.0179226
-0.017922
-0.0179218
-0.0179219
-0.0179223
-0.0179228
-0.0179234
-0.0179241
-0.0179248
-0.0179256
-0.0179264
-0.0179272
-0.017928
-0.0179288
-0.0179296
-0.0179304
-0.0179312
-0.0179321
-0.0179329
-0.0179337
-0.0179346
-0.0179354
-0.0179362
-0.017937
-0.0179379
-0.0179387
-0.0179395
-0.0179404
-0.0179412
-0.017942
-0.0179429
-0.0179437
-0.0179445
-0.0179454
-0.0179462
-0.017947
-0.0179479
-0.0179487
-0.0179496
-0.0179504
-0.0179512
-0.0179521
-0.0179529
-0.0179537
-0.0179546
-0.0179554
-0.0179563
-0.0179571
-0.017958
-0.0179588
-0.0179596
-0.0179605
-0.0179613
-0.0179622
-0.017963
-0.0179639
-0.0179647
-0.0179656
-0.0179664
-0.0179672
-0.0179681
-0.0179689
-0.0179698
-0.0179706
-0.0179715
-0.0179723
-0.0179732
-0.017974
-0.0179749
-0.0179757
-0.0179766
-0.0179774
-0.0179783
-0.0179792
-0.01798
-0.0179809
-0.0179817
-0.0179826
-0.0179834
-0.0179843
-0.0179851
-0.017986
-0.0179869
-0.0179877
-0.0179886
-0.0179894
-0.0179903
-0.0179912
-0.017992
-0.0179929
-0.0179937
-0.0179946
-0.0179955
-0.0179963
-0.0179972
-0.0179981
-0.0179989
-0.0179998
-0.0180007
-0.0180015
-0.0180024
-0.0180033
-0.0180041
-0.018005
-0.0180059
-0.0180067
-0.0180076
-0.0180085
-0.0180093
-0.0180102
-0.0180111
-0.0180119
-0.0180128
-0.0180137
-0.0180146
-0.0180154
-0.0180163
-0.0180172
-0.0180181
-0.0180189
-0.0180198
-0.0180207
-0.0180216
-0.0180224
-0.0180233
-0.0180242
-0.0180251
-0.018026
-0.0180268
-0.0180277
-0.0180286
-0.0180295
-0.0180304
-0.0180313
-0.0180321
-0.018033
-0.0180339
-0.0180348
-0.0180357
-0.0180366
-0.0180374
-0.0180383
-0.0180392
-0.0180401
-0.018041
-0.0180419
-0.0180428
-0.0180437
-0.0180446
-0.0180454
-0.0180463
-0.0180472
-0.0180481
-0.018049
-0.0180499
-0.0180508
-0.0180517
-0.0180526
-0.0180535
-0.0180544
-0.0180553
-0.0180562
-0.0180571
-0.018058
-0.0180589
-0.0180598
-0.0180607
-0.0180616
-0.0180625
-0.0180634
-0.0180643
-0.0180652
-0.0180661
-0.018067
-0.0180679
-0.0180688
-0.0180697
-0.0180706
-0.0180715
-0.0180724
-0.0180733
-0.0180742
-0.0180751
-0.018076
-0.0180769
-0.0180779
-0.0180788
-0.0180797
-0.0180806
-0.0180815
-0.0180824
-0.0180833
-0.0180842
-0.0180852
-0.0180861
-0.018087
-0.0180879
-0.0180888
-0.0180897
-0.0180906
-0.0180916
-0.0180925
-0.0180934
-0.0180943
-0.0180952
-0.0180962
-0.0180971
-0.018098
-0.0180989
-0.0180998
-0.0181008
-0.0181017
-0.0181026
-0.0181035
-0.0181045
-0.0181054
-0.0181063
-0.0181072
-0.0181082
-0.0181091
-0.01811
-0.018111
-0.0181119
-0.0181128
-0.0181137
-0.0181147
-0.0181156
-0.0181165
-0.0181175
-0.0181184
-0.0181193
-0.0181203
-0.0181212
-0.0181221
-0.0181231
-0.018124
-0.018125
-0.0181259
-0.0181268
-0.0181278
-0.0181287
-0.0181296
-0.0181306
-0.0181315
-0.0181325
-0.0181334
-0.0181344
-0.0181353
-0.0181362
-0.0181372
-0.0181381
-0.0181391
-0.01814
-0.018141
-0.0181419
-0.0181429
-0.0181438
-0.0181448
-0.0181457
-0.0181467
-0.0181476
-0.0181486
-0.0181495
-0.0181505
-0.0181514
-0.0181524
-0.0181533
-0.0181543
-0.0181552
-0.0181562
-0.0181571
-0.0181581
-0.0181591
-0.01816
-0.018161
-0.0181619
-0.0181629
-0.0181639
-0.0181648
-0.0181658
-0.0181667
-0.0181677
-0.0181687
-0.0181696
-0.0181706
-0.0181716
-0.0181725
-0.0181735
-0.0181745
-0.0181754
-0.0181764
-0.0181774
-0.0181783
-0.0181793
-0.0181803
-0.0181812
-0.0181822
-0.0181832
-0.0181842
-0.0181851
-0.0181861
-0.0181871
-0.0181881
-0.018189
-0.01819
-0.018191
-0.018192
-0.0181929
-0.0181939
-0.0181949
-0.0181959
-0.0181969
-0.0181978
-0.0181988
-0.0181998
-0.0182009
-0.0182017
-0.018203
-0.0182036
-0.0182052
-0.0182037
-0.0182037
-0.0182037
1
0.131663
0.0682695
0.0522964
0.0444203
0.0395772
0.0362602
0.0338332
0.0319732
0.0304966
0.0292906
0.0282823
0.0274228
0.0266782
0.0260243
0.0254434
0.0249226
0.0244517
0.0240231
0.0236307
0.0232697
0.022936
0.0226265
0.0223384
0.0220694
0.0218176
0.0215812
0.0213589
0.0211493
0.0209513
0.0207641
0.0205869
0.0204186
0.0202588
0.0201067
0.019962
0.0198243
0.0196931
0.0195682
0.0194489
0.0193351
0.0192265
0.0191233
0.0190256
0.0189335
0.0188469
0.0187658
0.01869
0.0186196
0.0185547
0.0184953
0.0184412
0.0183922
0.0183475
0.0183064
0.0182684
0.0182329
0.0181999
0.0181695
0.0181418
0.0181168
0.0180943
0.0180741
0.0180558
0.0180388
0.0180228
0.0180076
0.0179933
0.0179799
0.0179677
0.0179569
0.0179476
0.01794
0.0179339
0.0179294
0.0179261
0.0179239
0.0179226
0.017922
0.0179218
0.0179219
0.0179223
0.0179228
0.0179234
0.0179241
0.0179248
0.0179256
0.0179264
0.0179272
0.017928
0.0179288
0.0179296
0.0179304
0.0179312
0.0179321
0.0179329
0.0179337
0.0179346
0.0179354
0.0179362
0.017937
0.0179379
0.0179387
0.0179395
0.0179404
0.0179412
0.017942
0.0179429
0.0179437
0.0179445
0.0179454
0.0179462
0.017947
0.0179479
0.0179487
0.0179496
0.0179504
0.0179512
0.0179521
0.0179529
0.0179537
0.0179546
0.0179554
0.0179563
0.0179571
0.017958
0.0179588
0.0179596
0.0179605
0.0179613
0.0179622
0.017963
0.0179639
0.0179647
0.0179656
0.0179664
0.0179672
0.0179681
0.0179689
0.0179698
0.0179706
0.0179715
0.0179723
0.0179732
0.017974
0.0179749
0.0179757
0.0179766
0.0179774
0.0179783
0.0179792
0.01798
0.0179809
0.0179817
0.0179826
0.0179834
0.0179843
0.0179851
0.017986
0.0179869
0.0179877
0.0179886
0.0179894
0.0179903
0.0179912
0.017992
0.0179929
0.0179937
0.0179946
0.0179955
0.0179963
0.0179972
0.0179981
0.0179989
0.0179998
0.0180007
0.0180015
0.0180024
0.0180033
0.0180041
0.018005
0.0180059
0.0180067
0.0180076
0.0180085
0.0180093
0.0180102
0.0180111
0.0180119
0.0180128
0.0180137
0.0180146
0.0180154
0.0180163
0.0180172
0.0180181
0.0180189
0.0180198
0.0180207
0.0180216
0.0180224
0.0180233
0.0180242
0.0180251
0.018026
0.0180268
0.0180277
0.0180286
0.0180295
0.0180304
0.0180313
0.0180321
0.018033
0.0180339
0.0180348
0.0180357
0.0180366
0.0180374
0.0180383
0.0180392
0.0180401
0.018041
0.0180419
0.0180428
0.0180437
0.0180446
0.0180454
0.0180463
0.0180472
0.0180481
0.018049
0.0180499
0.0180508
0.0180517
0.0180526
0.0180535
0.0180544
0.0180553
0.0180562
0.0180571
0.018058
0.0180589
0.0180598
0.0180607
0.0180616
0.0180625
0.0180634
0.0180643
0.0180652
0.0180661
0.018067
0.0180679
0.0180688
0.0180697
0.0180706
0.0180715
0.0180724
0.0180733
0.0180742
0.0180751
0.018076
0.0180769
0.0180779
0.0180788
0.0180797
0.0180806
0.0180815
0.0180824
0.0180833
0.0180842
0.0180852
0.0180861
0.018087
0.0180879
0.0180888
0.0180897
0.0180906
0.0180916
0.0180925
0.0180934
0.0180943
0.0180952
0.0180962
0.0180971
0.018098
0.0180989
0.0180998
0.0181008
0.0181017
0.0181026
0.0181035
0.0181045
0.0181054
0.0181063
0.0181072
0.0181082
0.0181091
0.01811
0.018111
0.0181119
0.0181128
0.0181137
0.0181147
0.0181156
0.0181165
0.0181175
0.0181184
0.0181193
0.0181203
0.0181212
0.0181221
0.0181231
0.018124
0.018125
0.0181259
0.0181268
0.0181278
0.0181287
0.0181296
0.0181306
0.0181315
0.0181325
0.0181334
0.0181344
0.0181353
0.0181362
0.0181372
0.0181381
0.0181391
0.01814
0.018141
0.0181419
0.0181429
0.0181438
0.0181448
0.0181457
0.0181467
0.0181476
0.0181486
0.0181495
0.0181505
0.0181514
0.0181524
0.0181533
0.0181543
0.0181552
0.0181562
0.0181571
0.0181581
0.0181591
0.01816
0.018161
0.0181619
0.0181629
0.0181639
0.0181648
0.0181658
0.0181667
0.0181677
0.0181687
0.0181696
0.0181706
0.0181716
0.0181725
0.0181735
0.0181745
0.0181754
0.0181764
0.0181774
0.0181783
0.0181793
0.0181803
0.0181812
0.0181822
0.0181832
0.0181842
0.0181851
0.0181861
0.0181871
0.0181881
0.018189
0.01819
0.018191
0.018192
0.0181929
0.0181939
0.0181949
0.0181959
0.0181969
0.0181978
0.0181988
0.0181998
0.0182009
0.0182017
0.018203
0.0182036
0.0182052
0.0182037
0.0182037
0.0182037
1
0.344884
0.200668
0.154968
0.131896
0.1176
0.107769
0.10056
0.0950268
0.090631
0.08704
0.0840382
0.0814802
0.0792651
0.0773208
0.0755947
0.0740477
0.0726498
0.0713781
0.0702143
0.0691439
0.068155
0.0672378
0.0663843
0.0655877
0.0648421
0.0641424
0.0634842
0.0628638
0.0622782
0.0617245
0.0612001
0.0607026
0.0602299
0.0597805
0.0593529
0.0589462
0.058559
0.0581901
0.0578384
0.0575029
0.0571835
0.0568803
0.0565936
0.0563236
0.0560702
0.0558331
0.0556122
0.0554074
0.055219
0.0550468
0.0548903
0.0547481
0.0546183
0.054499
0.0543884
0.0542856
0.0541901
0.0541023
0.0540223
0.0539502
0.0538854
0.0538269
0.0537736
0.0537242
0.0536778
0.0536341
0.0535931
0.0535551
0.0535208
0.0534907
0.0534652
0.0534445
0.0534282
0.0534161
0.0534076
0.0534021
0.0533988
0.0533974
0.0533971
0.0533978
0.053399
0.0534007
0.0534026
0.0534047
0.0534069
0.0534092
0.0534115
0.0534139
0.0534163
0.0534187
0.0534212
0.0534236
0.0534261
0.0534285
0.053431
0.0534335
0.0534359
0.0534384
0.0534409
0.0534434
0.0534458
0.0534483
0.0534508
0.0534533
0.0534557
0.0534582
0.0534607
0.0534632
0.0534657
0.0534682
0.0534707
0.0534732
0.0534757
0.0534781
0.0534806
0.0534831
0.0534856
0.0534881
0.0534906
0.0534931
0.0534957
0.0534982
0.0535007
0.0535032
0.0535057
0.0535082
0.0535107
0.0535132
0.0535157
0.0535183
0.0535208
0.0535233
0.0535258
0.0535283
0.0535309
0.0535334
0.0535359
0.0535384
0.053541
0.0535435
0.053546
0.0535486
0.0535511
0.0535536
0.0535562
0.0535587
0.0535613
0.0535638
0.0535663
0.0535689
0.0535714
0.053574
0.0535765
0.0535791
0.0535816
0.0535842
0.0535867
0.0535893
0.0535919
0.0535944
0.053597
0.0535995
0.0536021
0.0536047
0.0536072
0.0536098
0.0536124
0.0536149
0.0536175
0.0536201
0.0536227
0.0536252
0.0536278
0.0536304
0.053633
0.0536355
0.0536381
0.0536407
0.0536433
0.0536459
0.0536485
0.0536511
0.0536537
0.0536563
0.0536588
0.0536614
0.053664
0.0536666
0.0536692
0.0536718
0.0536744
0.053677
0.0536797
0.0536823
0.0536849
0.0536875
0.0536901
0.0536927
0.0536953
0.0536979
0.0537006
0.0537032
0.0537058
0.0537084
0.053711
0.0537137
0.0537163
0.0537189
0.0537216
0.0537242
0.0537268
0.0537295
0.0537321
0.0537347
0.0537374
0.05374
0.0537426
0.0537453
0.0537479
0.0537506
0.0537532
0.0537559
0.0537585
0.0537612
0.0537638
0.0537665
0.0537691
0.0537718
0.0537745
0.0537771
0.0537798
0.0537825
0.0537851
0.0537878
0.0537905
0.0537931
0.0537958
0.0537985
0.0538011
0.0538038
0.0538065
0.0538092
0.0538119
0.0538145
0.0538172
0.0538199
0.0538226
0.0538253
0.053828
0.0538307
0.0538334
0.0538361
0.0538388
0.0538415
0.0538442
0.0538469
0.0538496
0.0538523
0.053855
0.0538577
0.0538604
0.0538631
0.0538658
0.0538685
0.0538712
0.053874
0.0538767
0.0538794
0.0538821
0.0538848
0.0538876
0.0538903
0.053893
0.0538958
0.0538985
0.0539012
0.053904
0.0539067
0.0539094
0.0539122
0.0539149
0.0539176
0.0539204
0.0539231
0.0539259
0.0539286
0.0539314
0.0539341
0.0539369
0.0539396
0.0539424
0.0539452
0.0539479
0.0539507
0.0539534
0.0539562
0.053959
0.0539617
0.0539645
0.0539673
0.0539701
0.0539728
0.0539756
0.0539784
0.0539812
0.0539839
0.0539867
0.0539895
0.0539923
0.0539951
0.0539979
0.0540007
0.0540035
0.0540062
0.054009
0.0540118
0.0540146
0.0540174
0.0540202
0.054023
0.0540258
0.0540287
0.0540315
0.0540343
0.0540371
0.0540399
0.0540427
0.0540455
0.0540483
0.0540512
0.054054
0.0540568
0.0540596
0.0540625
0.0540653
0.0540681
0.054071
0.0540738
0.0540766
0.0540795
0.0540823
0.0540851
0.054088
0.0540908
0.0540937
0.0540965
0.0540994
0.0541022
0.0541051
0.0541079
0.0541108
0.0541136
0.0541165
0.0541194
0.0541222
0.0541251
0.054128
0.0541308
0.0541337
0.0541366
0.0541394
0.0541423
0.0541452
0.0541481
0.0541509
0.0541538
0.0541567
0.0541596
0.0541625
0.0541654
0.0541683
0.0541711
0.0541741
0.0541769
0.0541799
0.0541827
0.0541857
0.0541885
0.0541915
0.0541943
0.0541973
0.0542001
0.0542031
0.054206
0.0542089
0.0542118
0.0542148
0.0542177
0.0542206
0.0542236
0.0542265
0.0542296
0.0542323
0.0542359
0.0542377
0.0542425
0.0542387
0.0542387
0.0542387
1
0.518766
0.327403
0.255349
0.217851
0.194406
0.178214
0.16631
0.157161
0.149887
0.143942
0.138973
0.134739
0.131074
0.127858
0.125004
0.122447
0.120138
0.118038
0.116116
0.11435
0.112718
0.111205
0.109797
0.108483
0.107254
0.1061
0.105015
0.103993
0.103028
0.102115
0.101251
0.100432
0.0996532
0.0989131
0.0982094
0.09754
0.0969029
0.0962962
0.0957179
0.0951669
0.0946426
0.0941455
0.093676
0.0932342
0.0928201
0.092433
0.0920729
0.0917397
0.0914335
0.091154
0.0908999
0.090669
0.0904581
0.0902641
0.0900844
0.0899174
0.0897627
0.0896205
0.0894911
0.0893744
0.0892694
0.0891744
0.0890877
0.0890074
0.0889322
0.0888616
0.0887957
0.0887352
0.0886809
0.0886337
0.0885941
0.088562
0.0885371
0.0885188
0.0885061
0.088498
0.0884934
0.0884915
0.0884915
0.0884928
0.0884951
0.0884979
0.0885012
0.0885047
0.0885084
0.0885122
0.0885161
0.08852
0.088524
0.088528
0.0885321
0.0885361
0.0885402
0.0885443
0.0885484
0.0885525
0.0885566
0.0885607
0.0885647
0.0885688
0.0885729
0.0885771
0.0885812
0.0885853
0.0885894
0.0885935
0.0885976
0.0886017
0.0886058
0.08861
0.0886141
0.0886182
0.0886224
0.0886265
0.0886306
0.0886348
0.0886389
0.088643
0.0886472
0.0886513
0.0886555
0.0886596
0.0886638
0.0886679
0.0886721
0.0886763
0.0886804
0.0886846
0.0886887
0.0886929
0.0886971
0.0887013
0.0887054
0.0887096
0.0887138
0.088718
0.0887222
0.0887264
0.0887305
0.0887347
0.0887389
0.0887431
0.0887473
0.0887515
0.0887557
0.0887599
0.0887641
0.0887684
0.0887726
0.0887768
0.088781
0.0887852
0.0887894
0.0887937
0.0887979
0.0888021
0.0888064
0.0888106
0.0888148
0.0888191
0.0888233
0.0888276
0.0888318
0.088836
0.0888403
0.0888445
0.0888488
0.0888531
0.0888573
0.0888616
0.0888658
0.0888701
0.0888744
0.0888787
0.0888829
0.0888872
0.0888915
0.0888958
0.0889
0.0889043
0.0889086
0.0889129
0.0889172
0.0889215
0.0889258
0.0889301
0.0889344
0.0889387
0.088943
0.0889473
0.0889516
0.0889559
0.0889603
0.0889646
0.0889689
0.0889732
0.0889776
0.0889819
0.0889862
0.0889906
0.0889949
0.0889992
0.0890036
0.0890079
0.0890123
0.0890166
0.089021
0.0890253
0.0890297
0.089034
0.0890384
0.0890427
0.0890471
0.0890515
0.0890559
0.0890602
0.0890646
0.089069
0.0890734
0.0890777
0.0890821
0.0890865
0.0890909
0.0890953
0.0890997
0.0891041
0.0891085
0.0891129
0.0891173
0.0891217
0.0891261
0.0891305
0.0891349
0.0891394
0.0891438
0.0891482
0.0891526
0.0891571
0.0891615
0.0891659
0.0891704
0.0891748
0.0891792
0.0891837
0.0891881
0.0891926
0.089197
0.0892015
0.0892059
0.0892104
0.0892149
0.0892193
0.0892238
0.0892283
0.0892327
0.0892372
0.0892417
0.0892462
0.0892506
0.0892551
0.0892596
0.0892641
0.0892686
0.0892731
0.0892776
0.0892821
0.0892866
0.0892911
0.0892956
0.0893001
0.0893046
0.0893091
0.0893136
0.0893182
0.0893227
0.0893272
0.0893317
0.0893363
0.0893408
0.0893453
0.0893499
0.0893544
0.089359
0.0893635
0.0893681
0.0893726
0.0893772
0.0893817
0.0893863
0.0893908
0.0893954
0.0894
0.0894045
0.0894091
0.0894137
0.0894183
0.0894228
0.0894274
0.089432
0.0894366
0.0894412
0.0894458
0.0894504
0.089455
0.0894596
0.0894642
0.0894688
0.0894734
0.089478
0.0894826
0.0894872
0.0894919
0.0894965
0.0895011
0.0895057
0.0895104
0.089515
0.0895196
0.0895243
0.0895289
0.0895336
0.0895382
0.0895429
0.0895475
0.0895522
0.0895568
0.0895615
0.0895662
0.0895708
0.0895755
0.0895802
0.0895848
0.0895895
0.0895942
0.0895989
0.0896036
0.0896082
0.0896129
0.0896176
0.0896223
0.089627
0.0896317
0.0896364
0.0896411
0.0896459
0.0896506
0.0896553
0.08966
0.0896647
0.0896694
0.0896742
0.0896789
0.0896836
0.0896884
0.0896931
0.0896979
0.0897026
0.0897073
0.0897121
0.0897168
0.0897216
0.0897264
0.0897311
0.0897359
0.0897407
0.0897454
0.0897502
0.089755
0.0897598
0.0897645
0.0897693
0.0897741
0.0897789
0.0897837
0.0897885
0.0897933
0.0897981
0.0898029
0.0898077
0.0898125
0.0898174
0.0898221
0.089827
0.0898317
0.0898367
0.0898414
0.0898463
0.0898511
0.089856
0.0898609
0.0898657
0.0898709
0.0898753
0.0898812
0.0898844
0.089892
0.0898869
0.0898869
0.0898869
1
0.660888
0.446896
0.35288
0.302032
0.269853
0.247505
0.231022
0.218332
0.20823
0.199971
0.193065
0.187182
0.18209
0.177623
0.173661
0.170112
0.166908
0.163994
0.16133
0.15888
0.156618
0.154522
0.152571
0.150751
0.149048
0.14745
0.145948
0.144532
0.143196
0.141933
0.140737
0.139603
0.138526
0.137502
0.136529
0.135603
0.134723
0.133884
0.133085
0.132324
0.131601
0.130916
0.13027
0.129662
0.129093
0.128562
0.128068
0.127612
0.127193
0.126811
0.126464
0.126148
0.12586
0.125594
0.125349
0.12512
0.124909
0.124716
0.124539
0.12438
0.124237
0.124107
0.123988
0.123878
0.123776
0.12368
0.123591
0.12351
0.123437
0.123375
0.123323
0.123281
0.123249
0.123225
0.123209
0.123199
0.123194
0.123192
0.123192
0.123194
0.123198
0.123202
0.123206
0.123211
0.123217
0.123222
0.123227
0.123233
0.123238
0.123244
0.12325
0.123255
0.123261
0.123267
0.123272
0.123278
0.123284
0.123289
0.123295
0.123301
0.123306
0.123312
0.123318
0.123324
0.123329
0.123335
0.123341
0.123346
0.123352
0.123358
0.123364
0.123369
0.123375
0.123381
0.123387
0.123392
0.123398
0.123404
0.12341
0.123415
0.123421
0.123427
0.123433
0.123438
0.123444
0.12345
0.123456
0.123462
0.123467
0.123473
0.123479
0.123485
0.123491
0.123496
0.123502
0.123508
0.123514
0.12352
0.123526
0.123531
0.123537
0.123543
0.123549
0.123555
0.123561
0.123566
0.123572
0.123578
0.123584
0.12359
0.123596
0.123602
0.123607
0.123613
0.123619
0.123625
0.123631
0.123637
0.123643
0.123649
0.123654
0.12366
0.123666
0.123672
0.123678
0.123684
0.12369
0.123696
0.123702
0.123708
0.123714
0.12372
0.123725
0.123731
0.123737
0.123743
0.123749
0.123755
0.123761
0.123767
0.123773
0.123779
0.123785
0.123791
0.123797
0.123803
0.123809
0.123815
0.123821
0.123827
0.123833
0.123839
0.123845
0.123851
0.123857
0.123863
0.123869
0.123875
0.123881
0.123887
0.123893
0.123899
0.123905
0.123911
0.123917
0.123923
0.123929
0.123935
0.123941
0.123947
0.123954
0.12396
0.123966
0.123972
0.123978
0.123984
0.12399
0.123996
0.124002
0.124008
0.124014
0.12402
0.124027
0.124033
0.124039
0.124045
0.124051
0.124057
0.124063
0.124069
0.124075
0.124082
0.124088
0.124094
0.1241
0.124106
0.124112
0.124118
0.124125
0.124131
0.124137
0.124143
0.124149
0.124155
0.124162
0.124168
0.124174
0.12418
0.124186
0.124193
0.124199
0.124205
0.124211
0.124217
0.124224
0.12423
0.124236
0.124242
0.124249
0.124255
0.124261
0.124267
0.124273
0.12428
0.124286
0.124292
0.124298
0.124305
0.124311
0.124317
0.124324
0.12433
0.124336
0.124342
0.124349
0.124355
0.124361
0.124368
0.124374
0.12438
0.124386
0.124393
0.124399
0.124405
0.124412
0.124418
0.124424
0.124431
0.124437
0.124443
0.12445
0.124456
0.124462
0.124469
0.124475
0.124481
0.124488
0.124494
0.124501
0.124507
0.124513
0.12452
0.124526
0.124533
0.124539
0.124545
0.124552
0.124558
0.124565
0.124571
0.124577
0.124584
0.12459
0.124597
0.124603
0.124609
0.124616
0.124622
0.124629
0.124635
0.124642
0.124648
0.124655
0.124661
0.124668
0.124674
0.124681
0.124687
0.124693
0.1247
0.124706
0.124713
0.124719
0.124726
0.124732
0.124739
0.124745
0.124752
0.124759
0.124765
0.124772
0.124778
0.124785
0.124791
0.124798
0.124804
0.124811
0.124817
0.124824
0.124831
0.124837
0.124844
0.12485
0.124857
0.124863
0.12487
0.124877
0.124883
0.12489
0.124896
0.124903
0.12491
0.124916
0.124923
0.124929
0.124936
0.124943
0.124949
0.124956
0.124963
0.124969
0.124976
0.124983
0.124989
0.124996
0.125003
0.125009
0.125016
0.125023
0.125029
0.125036
0.125043
0.125049
0.125056
0.125063
0.125069
0.125076
0.125083
0.12509
0.125097
0.125103
0.12511
0.125116
0.125125
0.125129
0.12514
0.125134
0.125134
0.125134
1
0.776803
0.557827
0.44688
0.384104
0.343747
0.315514
0.294609
0.278474
0.265612
0.255087
0.246284
0.238783
0.232291
0.226598
0.221548
0.217027
0.212946
0.209237
0.205845
0.202727
0.199849
0.197181
0.1947
0.192385
0.19022
0.188188