# vtk DataFile Version 2.0
FlowField
ASCII
DATASET STRUCTURED_GRID
DIMENSIONS 400 1 200
POINTS 80000 float
0 0 0
0.08 0 0
0.16 0 0
0.24 0 0
0.32 0 0
0.4 0 0
0.48 0 0
0.56 0 0
0.64 0 0
0.72 0 0
0.8 0 0
0.88 0 0
0.96 0 0
1.04 0 0
1.12 0 0
1.2 0 0
1.28 0 0
1.36 0 0
1.44 0 0
1.52 0 0
1.6 0 0
1.68 0 0
1.76 0 0
1.84 0 0
1.92 0 0
2 0 0
2.08 0 0
2.16 0 0
2.24 0 0
2.32 0 0
2.4 0 0
2.48 0 0
2.56 0 0
2.64 0 0
2.72 0 0
2.8 0 0
2.88 0 0
2.96 0 0
3.04 0 0
3.12 0 0
3.2 0 0
3.28 0 0
3.36 0 0
3.44 0 0
3.52 0 0
3.6 0 0
3.68 0 0
3.76 0 0
3.84 0 0
3.92 0 0
4 0 0
4.08 0 0
4.16 0 0
4.24 0 0
4.32 0 0
4.4 0 0
4.48 0 0
4.56 0 0
4.64 0 0
4.72 0 0
4.8 0 0
4.88 0 0
4.96 0 0
5.04 0 0
5.12 0 0
5.2 0 0
5.28 0 0
5.36 0 0
5.44 0 0
5.52 0 0
5.6 0 0
5.68 0 0
5.76 0 0
5.84 0 0
5.92 0 0
6 0 0
6.08 0 0
6.16 0 0
6.24 0 0
6.32 0 0
6.4 0 0
6.48 0 0
6.56 0 0
6.64 0 0
6.72 0 0
6.8 0 0
6.88 0 0
6.96 0 0
7.04 0 0
7.12 0 0
7.2 0 0
7.28 0 0
7.36 0 0
7.44 0 0
7.52 0 0
7.6 0 0
7.68 0 0
7.76 0 0
7.84 0 0
7.92 0 0
8 0 0
8.08 0 0
8.16 0 0
8.24 0 0
8.32 0 0
8.4 0 0
8.48 0 0
8.56 0 0
8.64 0 0
8.72 0 0
8.8 0 0
8.88 0 0
8.96 0 0
9.04 0 0
9.12 0 0
9.2 0 0
9.28 0 0
9.36 0 0
9.44 0 0
9.52 0 0
9.6 0 0
9.68 0 0
9.76 0 0
9.84 0 0
9.92 0 0
10 0 0
10.08 0 0
10.16 0 0
10.24 0 0
10.32 0 0
10.4 0 0
10.48 0 0
10.56 0 0
10.64 0 0
10.72 0 0
10.8 0 0
10.88 0 0
10.96 0 0
11.04 0 0
11.12 0 0
11.2 0 0
11.28 0 0
11.36 0 0
11.44 0 0
11.52 0 0
11.6 0 0
11.68 0 0
11.76 0 0
11.84 0 0
11.92 0 0
12 0 0
12.08 0 0
12.16 0 0
12.24 0 0
12.32 0 0
12.4 0 0
12.48 0 0
12.56 0 0
12.64 0 0
12.72 0 0
12.8 0 0
12.88 0 0
12.96 0 0
13.04 0 0
13.12 0 0
13.2 0 0
13.28 0 0
13.36 0 0
13.44 0 0
13.52 0 0
13.6 0 0
13.68 0 0
13.76 0 0
13.84 0 0
13.92 0 0
14 0 0
14.08 0 0
14.16 0 0
14.24 0 0
14.32 0 0
14.4 0 0
14.48 0 0
14.56 0 0
14.64 0 0
14.72 0 0
14.8 0 0
14.88 0 0
14.96 0 0
15.04 0 0
15.12 0 0
15.2 0 0
15.28 0 0
15.36 0 0
15.44 0 0
15.52 0 0
15.6 0 0
15.68 0 0
15.76 0 0
15.84 0 0
15.92 0 0
16 0 0
16.08 0 0
16.16 0 0
16.24 0 0
16.32 0 0
16.4 0 0
16.48 0 0
16.56 0 0
16.64 0 0
16.72 0 0
16.8 0 0
16.88 0 0
16.96 0 0
17.04 0 0
17.12 0 0
17.2 0 0
17.28 0 0
17.36 0 0
17.44 0 0
17.52 0 0
17.6 0 0
17.68 0 0
17.76 0 0
17.84 0 0
17.92 0 0
18 0 0
18.08 0 0
18.16 0 0
18.24 0 0
18.32 0 0
18.4 0 0
18.48 0 0
18.56 0 0
18.64 0 0
18.72 0 0
18.8 0 0
18.88 0 0
18.96 0 0
19.04 0 0
19.12 0 0
19.2 0 0
19.28 0 0
19.36 0 0
19.44 0 0
19.52 0 0
19.6 0 0
19.68 0 0
19.76 0 0
19.84 0 0
19.92 0 0
20 0 0
20.08 0 0
20.16 0 0
20.24 0 0
20.32 0 0
20.4 0 0
20.48 0 0
20.56 0 0
20.64 0 0
20.72 0 0
20.8 0 0
20.88 0 0
20.96 0 0
21.04 0 0
21.12 0 0
21.2 0 0
21.28 0 0
21.36 0 0
21.44 0 0
21.52 0 0
21.6 0 0
21.68 0 0
21.76 0 0
21.84 0 0
21.92 0 0
22 0 0
22.08 0 0
22.16 0 0
22.24 0 0
22.32 0 0
22.4 0 0
22.48 0 0
22.56 0 0
22.64 0 0
22.72 0 0
22.8 0 0
22.88 0 0
22.96 0 0
23.04 0 0
23.12 0 0
23.2 0 0
23.28 0 0
23.36 0 0
23.44 0 0
23.52 0 0
23.6 0 0
23.68 0 0
23.76 0 0
23.84 0 0
23.92 0 0
24 0 0
24.08 0 0
24.16 0 0
24.24 0 0
24.32 0 0
24.4 0 0
24.48 0 0
24.56 0 0
24.64 0 0
24.72 0 0
24.8 0 0
24.88 0 0
24.96 0 0
25.04 0 0
25.12 0 0
25.2 0 0
25.28 0 0
25.36 0 0
25.44 0 0
25.52 0 0
25.6 0 0
25.68 0 0
25.76 0 0
25.84 0 0
25.92 0 0
26 0 0
26.08 0 0
26.16 0 0
26.24 0 0
26.32 0 0
26.4 0 0
26.48 0 0
26.56 0 0
26.64 0 0
26.72 0 0
26.8 0 0
26.88 0 0
26.96 0 0
27.04 0 0
27.12 0 0
27.2 0 0
27.28 0 0
27.36 0 0
27.44 0 0
27.52 0 0
27.6 0 0
27.68 0 0
27.76 0 0
27.84 0 0
27.92 0 0
28 0 0
28.08 0 0
28.16 0 0
28.24 0 0
28.32 0 0
28.4 0 0
28.48 0 0
28.56 0 0
28.64 0 0
28.72 0 0
28.8 0 0
28.88 0 0
28.96 0 0
29.04 0 0
29.12 0 0
29.2 0 0
29.28 0 0
29.36 0 0
29.44 0 0
29.52 0 0
29.6 0 0
29.68 0 0
29.76 0 0
29.84 0 0
29.92 0 0
30 0 0
30.08 0 0
30.16 0 0
30.24 0 0
30.32 0 0
30.4 0 0
30.48 0 0
30.56 0 0
30.64 0 0
30.72 0 0
30.8 0 0
30.88 0 0
30.96 0 0
31.04 0 0
31.12 0 0
31.2 0 0
31.28 0 0
31.36 0 0
31.44 0 0
31.52 0 0
31.6 0 0
31.68 0 0
31.76 0 0
31.84 0 0
31.92 0 0
0 0.005 0
0.08 0.005 0
0.16 0.005 0
0.24 0.005 0
0.32 0.005 0
0.4 0.005 0
0.48 0.005 0
0.56 0.005 0
0.64 0.005 0
0.72 0.005 0
0.8 0.005 0
0.88 0.005 0
0.96 0.005 0
1.04 0.005 0
1.12 0.005 0
1.2 0.005 0
1.28 0.005 0
1.36 0.005 0
1.44 0.005 0
1.52 0.005 0
1.6 0.005 0
1.68 0.005 0
1.76 0.005 0
1.84 0.005 0
1.92 0.005 0
2 0.005 0
2.08 0.005 0
2.16 0.005 0
2.24 0.005 0
2.32 0.005 0
2.4 0.005 0
2.48 0.005 0
2.56 0.005 0
2.64 0.005 0
2.72 0.005 0
2.8 0.005 0
2.88 0.005 0
2.96 0.005 0
3.04 0.005 0
3.12 0.005 0
3.2 0.005 0
3.28 0.005 0
3.36 0.005 0
3.44 0.005 0
3.52 0.005 0
3.6 0.005 0
3.68 0.005 0
3.76 0.005 0
3.84 0.005 0
3.92 0.005 0
4 0.005 0
4.08 0.005 0
4.16 0.005 0
4.24 0.005 0
4.32 0.005 0
4.4 0.005 0
4.48 0.005 0
4.56 0.005 0
4.64 0.005 0
4.72 0.005 0
4.8 0.005 0
4.88 0.005 0
4.96 0.005 0
5.04 0.005 0
5.12 0.005 0
5.2 0.005 0
5.28 0.005 0
5.36 0.005 0
5.44 0.005 0
5.52 0.005 0
5.6 0.005 0
5.68 0.005 0
5.76 0.005 0
5.84 0.005 0
5.92 0.005 0
6 0.005 0
6.08 0.005 0
6.16 0.005 0
6.24 0.005 0
6.32 0.005 0
6.4 0.005 0
6.48 0.005 0
6.56 0.005 0
6.64 0.005 0
6.72 0.005 0
6.8 0.005 0
6.88 0.005 0
6.96 0.005 0
7.04 0.005 0
7.12 0.005 0
7.2 0.005 0
7.28 0.005 0
7.36 0.005 0
7.44 0.005 0
7.52 0.005 0
7.6 0.005 0
7.68 0.005 0
7.76 0.005 0
7.84 0.005 0
7.92 0.005 0
8 0.005 0
8.08 0.005 0
8.16 0.005 0
8.24 0.005 0
8.32 0.005 0
8.4 0.005 0
8.48 0.005 0
8.56 0.005 0
8.64 0.005 0
8.72 0.005 0
8.8 0.005 0
8.88 0.005 0
8.96 0.005 0
9.04 0.005 0
9.12 0.005 0
9.2 0.005 0
9.28 0.005 0
9.36 0.005 0
9.44 0.005 0
9.52 0.005 0
9.6 0.005 0
9.68 0.005 0
9.76 0.005 0
9.84 0.005 0
9.92 0.005 0
10 0.005 0
10.08 0.005 0
10.16 0.005 0
10.24 0.005 0
10.32 0.005 0
10.4 0.005 0
10.48 0.005 0
10.56 0.005 0
10.64 0.005 0
10.72 0.005 0
10.8 0.005 0
10.88 0.005 0
10.96 0.005 0
11.04 0.005 0
11.12 0.005 0
11.2 0.005 0
11.28 0.005 0
11.36 0.005 0
11.44 0.005 0
11.52 0.005 0
11.6 0.005 0
11.68 0.005 0
11.76 0.005 0
11.84 0.005 0
11.92 0.005 0
12 0.005 0
12.08 0.005 0
12.16 0.005 0
12.24 0.005 0
12.32 0.005 0
12.4 0.005 0
12.48 0.005 0
12.56 0.005 0
12.64 0.005 0
12.72 0.005 0
12.8 0.005 0
12.88 0.005 0
12.96 0.005 0
13.04 0.005 0
13.12 0.005 0
13.2 0.005 0
13.28 0.005 0
13.36 0.005 0
13.44 0.005 0
13.52 0.005 0
13.6 0.005 0
13.68 0.005 0
13.76 0.005 0
13.84 0.005 0
13.92 0.005 0
14 0.005 0
14.08 0.005 0
14.16 0.005 0
14.24 0.005 0
14.32 0.005 0
14.4 0.005 0
14.48 0.005 0
14.56 0.005 0
14.64 0.005 0
14.72 0.005 0
14.8 0.005 0
14.88 0.005 0
14.96 0.005 0
15.04 0.005 0
15.12 0.005 0
15.2 0.005 0
15.28 0.005 0
15.36 0.005 0
15.44 0.005 0
15.52 0.005 0
15.6 0.005 0
15.68 0.005 0
15.76 0.005 0
15.84 0.005 0
15.92 0.005 0
16 0.005 0
16.08 0.005 0
16.16 0.005 0
16.24 0.005 0
16.32 0.005 0
16.4 0.005 0
16.48 0.005 0
16.56 0.005 0
16.64 0.005 0
16.72 0.005 0
16.8 0.005 0
16.88 0.005 0
16.96 0.005 0
17.04 0.005 0
17.12 0.005 0
17.2 0.005 0
17.28 0.005 0
17.36 0.005 0
17.44 0.005 0
17.52 0.005 0
17.6 0.005 0
17.68 0.005 0
17.76 0.005 0
17.84 0.005 0
17.92 0.005 0
18 0.005 0
18.08 0.005 0
18.16 0.005 0
18.24 0.005 0
18.32 0.005 0
18.4 0.005 0
18.48 0.005 0
18.56 0.005 0
18.64 0.005 0
18.72 0.005 0
18.8 0.005 0
18.88 0.005 0
18.96 0.005 0
19.04 0.005 0
19.12 0.005 0
19.2 0.005 0
19.28 0.005 0
19.36 0.005 0
19.44 0.005 0
19.52 0.005 0
19.6 0.005 0
19.68 0.005 0
19.76 0.005 0
19.84 0.005 0
19.92 0.005 0
20 0.005 0
20.08 0.005 0
20.16 0.005 0
20.24 0.005 0
20.32 0.005 0
20.4 0.005 0
20.48 0.005 0
20.56 0.005 0
20.64 0.005 0
20.72 0.005 0
20.8 0.005 0
20.88 0.005 0
20.96 0.005 0
21.04 0.005 0
21.12 0.005 0
21.2 0.005 0
21.28 0.005 0
21.36 0.005 0
21.44 0.005 0
21.52 0.005 0
21.6 0.005 0
21.68 0.005 0
21.76 0.005 0
21.84 0.005 0
21.92 0.005 0
22 0.005 0
22.08 0.005 0
22.16 0.005 0
22.24 0.005 0
22.32 0.005 0
22.4 0.005 0
22.48 0.005 0
22.56 0.005 0
22.64 0.005 0
22.72 0.005 0
22.8 0.005 0
22.88 0.005 0
22.96 0.005 0
23.04 0.005 0
23.12 0.005 0
23.2 0.005 0
23.28 0.005 0
23.36 0.005 0
23.44 0.005 0
23.52 0.005 0
23.6 0.005 0
23.68 0.005 0
23.76 0.005 0
23.84 0.005 0
23.92 0.005 0
24 0.005 0
24.08 0.005 0
24.16 0.005 0
24.24 0.005 0
24.32 0.005 0
24.4 0.005 0
24.48 0.005 0
24.56 0.005 0
24.64 0.005 0
24.72 0.005 0
24.8 0.005 0
24.88 0.005 0
24.96 0.005 0
25.04 0.005 0
25.12 0.005 0
25.2 0.005 0
25.28 0.005 0
25.36 0.005 0
25.44 0.005 0
25.52 0.005 0
25.6 0.005 0
25.68 0.005 0
25.76 0.005 0
25.84 0.005 0
25.92 0.005 0
26 0.005 0
26.08 0.005 0
26.16 0.005 0
26.24 0.005 0
26.32 0.005 0
26.4 0.005 0
26.48 0.005 0
26.56 0.005 0
26.64 0.005 0
26.72 0.005 0
26.8 0.005 0
26.88 0.005 0
26.96 0.005 0
27.04 0.005 0
27.12 0.005 0
27.2 0.005 0
27.28 0.005 0
27.36 0.005 0
27.44 0.005 0
27.52 0.005 0
27.6 0.005 0
27.68 0.005 0
27.76 0.005 0
27.84 0.005 0
27.92 0.005 0
28 0.005 0
28.08 0.005 0
28.16 0.005 0
28.24 0.005 0
28.32 0.005 0
28.4 0.005 0
28.48 0.005 0
28.56 0.005 0
28.64 0.005 0
28.72 0.005 0
28.8 0.005 0
28.88 0.005 0
28.96 0.005 0
29.04 0.005 0
29.12 0.005 0
29.2 0.005 0
29.28 0.005 0
29.36 0.005 0
29.44 0.005 0
29.52 0.005 0
29.6 0.005 0
29.68 0.005 0
29.76 0.005 0
29.84 0.005 0
29.92 0.005 0
30 0.005 0
30.08 0.005 0
30.16 0.005 0
30.24 0.005 0
30.32 0.005 0
30.4 0.005 0
30.48 0.005 0
30.56 0.005 0
30.64 0.005 0
30.72 0.005 0
30.8 0.005 0
30.88 0.005 0
30.96 0.005 0
31.04 0.005 0
31.12 0.005 0
31.2 0.005 0
31.28 0.005 0
31.36 0.005 0
31.44 0.005 0
31.52 0.005 0
31.6 0.005 0
31.68 0.005 0
31.76 0.005 0
31.84 0.005 0
31.92 0.005 0
0 0.01 0
0.08 0.01 0
0.16 0.01 0
0.24 0.01 0
0.32 0.01 0
0.4 0.01 0
0.48 0.01 0
0.56 0.01 0
0.64 0.01 0
0.72 0.01 0
0.8 0.01 0
0.88 0.01 0
0.96 0.01 0
1.04 0.01 0
1.12 0.01 0
1.2 0.01 0
1.28 0.01 0
1.36 0.01 0
1.44 0.01 0
1.52 0.01 0
1.6 0.01 0
1.68 0.01 0
1.76 0.01 0
1.84 0.01 0
1.92 0.01 0
2 0.01 0
2.08 0.01 0
2.16 0.01 0
2.24 0.01 0
2.32 0.01 0
2.4 0.01 0
2.48 0.01 0
2.56 0.01 0
2.64 0.01 0
2.72 0.01 0
2.8 0.01 0
2.88 0.01 0
2.96 0.01 0
3.04 0.01 0
3.12 0.01 0
3.2 0.01 0
3.28 0.01 0
3.36 0.01 0
3.44 0.01 0
3.52 0.01 0
3.6 0.01 0
3.68 0.01 0
3.76 0.01 0
3.84 0.01 0
3.92 0.01 0
4 0.01 0
4.08 0.01 0
4.16 0.01 0
4.24 0.01 0
4.32 0.01 0
4.4 0.01 0
4.48 0.01 0
4.56 0.01 0
4.64 0.01 0
4.72 0.01 0
4.8 0.01 0
4.88 0.01 0
4.96 0.01 0
5.04 0.01 0
5.12 0.01 0
[...]
POINT_DATA 80000

SCALARS u float 1
LOOKUP_TABLE default
0
-0.131663
-0.0682695
-0.0522964
-0.0444203
-0.0395772
-0.0362602
-0.0338332
-0.0319732
-0.0304966
-0.0292906
-0.0282823
-0.0274228
-0.0266782
-0.0260243
-0.0254434
-0.0249225
-0.0244517
-0.0240231
-0.0236307
-0.0232697
-0.022936
-0.0226265
-0.0223384
-0.0220694
-0.0218176
-0.0215812
-0.0213589
-0.0211492
-0.0209513
-0.0207641
-0.0205868
-0.0204186
-0.0202587
-0.0201066
-0.0199619
-0.0198242
-0.019693
-0.019568
-0.0194487
-0.0193349
-0.0192263
-0.019123
-0.0190253
-0.018933
-0.0188464
-0.0187651
-0.0186892
-0.0186187
-0.0185536
-0.018494
-0.0184398
-0.0183906
-0.0183458
-0.0183046
-0.0182665
-0.0182309
-0.0181979
-0.0181674
-0.0181395
-0.0181144
-0.0180919
-0.0180716
-0.0180532
-0.0180361
-0.0180201
-0.0180049
-0.0179906
-0.0179771
-0.0179649
-0.017954
-0.0179446
-0.0179369
-0.0179308
-0.0179262
-0.0179228
-0.0179206
-0.0179192
-0.0179185
-0.0179183
-0.0179185
-0.0179188
-0.0179193
-0.0179199
-0.0179206
-0.0179213
-0.0179221
-0.0179229
-0.0179237
-0.0179245
-0.0179253
-0.0179261
-0.0179269
-0.0179277
-0.0179286
-0.0179294
-0.0179302
-0.017931
-0.0179319
-0.0179327
-0.0179335
-0.0179344
-0.0179352
-0.017936
-0.0179368
-0.0179377
-0.0179385
-0.0179393
-0.0179402
-0.017941
-0.0179418
-0.0179427
-0.0179435
-0.0179443
-0.0179452
-0.017946
-0.0179469
-0.0179477
-0.0179485
-0.0179494
-0.0179502
-0.017951
-0.0179519
-0.0179527
-0.0179536
-0.0179544
-0.0179552
-0.0179561
-0.0179569
-0.0179578
-0.0179586
-0.0179595
-0.0179603
-0.0179611
-0.017962
-0.0179628
-0.0179637
-0.0179645
-0.0179654
-0.0179662
-0.0179671
-0.0179679
-0.0179688
-0.0179696
-0.0179705
-0.0179713
-0.0179722
-0.017973
-0.0179739
-0.0179747
-0.0179756
-0.0179764
-0.0179773
-0.0179781
-0.017979
-0.0179798
-0.0179807
-0.0179816
-0.0179824
-0.0179833
-0.0179841
-0.017985
-0.0179858
-0.0179867
-0.0179876
-0.0179884
-0.0179893
-0.0179901
-0.017991
-0.0179919
-0.0179927
-0.0179936
-0.0179945
-0.0179953
-0.0179962
-0.017997
-0.0179979
-0.0179988
-0.0179996
-0.0180005
-0.0180014
-0.0180022
-0.0180031
-0.018004
-0.0180048
-0.0180057
-0.0180066
-0.0180075
-0.0180083
-0.0180092
-0.0180101
-0.0180109
-0.0180118
-0.0180127
-0.0180136
-0.0180144
-0.0180153
-0.0180162
-0.0180171
-0.0180179
-0.0180188
-0.0180197
-0.0180206
-0.0180214
-0.0180223
-0.0180232
-0.0180241
-0.018025
-0.0180258
-0.0180267
-0.0180276
-0.0180285
-0.0180294
-0.0180302
-0.0180311
-0.018032
-0.0180329
-0.0180338
-0.0180347
-0.0180356
-0.0180364
-0.0180373
-0.0180382
-0.0180391
-0.01804
-0.0180409
-0.0180418
-0.0180427
-0.0180436
-0.0180444
-0.0180453
-0.0180462
-0.0180471
-0.018048
-0.0180489
-0.0180498
-0.0180507
-0.0180516
-0.0180525
-0.0180534
-0.0180543
-0.0180552
-0.0180561
-0.018057
-0.0180579
-0.0180588
-0.0180597
-0.0180606
-0.0180615
-0.0180624
-0.0180633
-0.0180642
-0.0180651
-0.018066
-0.0180669
-0.0180678
-0.0180687
-0.0180696
-0.0180705
-0.0180714
-0.0180723
-0.0180732
-0.0180741
-0.018075
-0.018076
-0.0180769
-0.0180778
-0.0180787
-0.0180796
-0.0180805
-0.0180814
-0.0180823
-0.0180832
-0.0180842
-0.0180851
-0.018086
-0.0180869
-0.0180878
-0.0180887
-0.0180897
-0.0180906
-0.0180915
-0.0180924
-0.0180933
-0.0180942
-0.0180952
-0.0180961
-0.018097
-0.0180979
-0.0180989
-0.0180998
-0.0181007
-0.0181016
-0.0181025
-0.0181035
-0.0181044
-0.0181053
-0.0181063
-0.0181072
-0.0181081
-0.018109
-0.01811
-0.0181109
-0.0181118
-0.0181128
-0.0181137
-0.0181146
-0.0181156
-0.0181165
-0.0181174
-0.0181184
-0.0181193
-0.0181202
-0.0181212
-0.0181221
-0.018123
-0.018124
-0.0181249
-0.0181258
-0.0181268
-0.0181277
-0.0181287
-0.0181296
-0.0181305
-0.0181315
-0.0181324
-0.0181334
-0.0181343
-0.0181353
-0.0181362
-0.0181371
-0.0181381
-0.018139
-0.01814
-0.0181409
-0.0181419
-0.0181428
-0.0181438
-0.0181447
-0.0181457
-0.0181466
-0.0181476
-0.0181485
-0.0181495
-0.0181504
-0.0181514
-0.0181523
-0.0181533
-0.0181543
-0.0181552
-0.0181562
-0.0181571
-0.0181581
-0.018159
-0.01816
-0.018161
-0.0181619
-0.0181629
-0.0181638
-0.0181648
-0.0181658
-0.0181667
-0.0181677
-0.0181687
-0.0181696
-0.0181706
-0.0181715
-0.0181725
-0.0181735
-0.0181745
-0.0181754
-0.0181764
-0.0181774
-0.0181783
-0.0181793
-0.0181803
-0.0181812
-0.0181822
-0.0181832
-0.0181842
-0.0181851
-0.0181861
-0.0181871
-0.0181881
-0.018189
-0.01819
-0.018191
-0.018192
-0.018193
-0.0181939
-0.0181949
-0.0181959
-0.018197
-0.0181978
-0.0181991
-0.0181996
-0.0182013
-0.0181998
-0.0181998
-0.0181998
1
0.131663
0.0682695
0.0522964
0.0444203
0.0395772
0.0362602
0.0338332
0.0319732
0.0304966
0.0292906
0.0282823
0.0274228
0.0266782
0.0260243
0.0254434
0.0249225
0.0244517
0.0240231
0.0236307
0.0232697
0.022936
0.0226265
0.0223384
0.0220694
0.0218176
0.0215812
0.0213589
0.0211492
0.0209513
0.0207641
0.0205868
0.0204186
0.0202587
0.0201066
0.0199619
0.0198242
0.019693
0.019568
0.0194487
0.0193349
0.0192263
0.019123
0.0190253
0.018933
0.0188464
0.0187651
0.0186892
0.0186187
0.0185536
0.018494
0.0184398
0.0183906
0.0183458
0.0183046
0.0182665
0.0182309
0.0181979
0.0181674
0.0181395
0.0181144
0.0180919
0.0180716
0.0180532
0.0180361
0.0180201
0.0180049
0.0179906
0.0179771
0.0179649
0.017954
0.0179446
0.0179369
0.0179308
0.0179262
0.0179228
0.0179206
0.0179192
0.0179185
0.0179183
0.0179185
0.0179188
0.0179193
0.0179199
0.0179206
0.0179213
0.0179221
0.0179229
0.0179237
0.0179245
0.0179253
0.0179261
0.0179269
0.0179277
0.0179286
0.0179294
0.0179302
0.017931
0.0179319
0.0179327
0.0179335
0.0179344
0.0179352
0.017936
0.0179368
0.0179377
0.0179385
0.0179393
0.0179402
0.017941
0.0179418
0.0179427
0.0179435
0.0179443
0.0179452
0.017946
0.0179469
0.0179477
0.0179485
0.0179494
0.0179502
0.017951
0.0179519
0.0179527
0.0179536
0.0179544
0.0179552
0.0179561
0.0179569
0.0179578
0.0179586
0.0179595
0.0179603
0.0179611
0.017962
0.0179628
0.0179637
0.0179645
0.0179654
0.0179662
0.0179671
0.0179679
0.0179688
0.0179696
0.0179705
0.0179713
0.0179722
0.017973
0.0179739
0.0179747
0.0179756
0.0179764
0.0179773
0.0179781
0.017979
0.0179798
0.0179807
0.0179816
0.0179824
0.0179833
0.0179841
0.017985
0.0179858
0.0179867
0.0179876
0.0179884
0.0179893
0.0179901
0.017991
0.0179919
0.0179927
0.0179936
0.0179945
0.0179953
0.0179962
0.017997
0.0179979
0.0179988
0.0179996
0.0180005
0.0180014
0.0180022
0.0180031
0.018004
0.0180048
0.0180057
0.0180066
0.0180075
0.0180083
0.0180092
0.0180101
0.0180109
0.0180118
0.0180127
0.0180136
0.0180144
0.0180153
0.0180162
0.0180171
0.0180179
0.0180188
0.0180197
0.0180206
0.0180214
0.0180223
0.0180232
0.0180241
0.018025
0.0180258
0.0180267
0.0180276
0.0180285
0.0180294
0.0180302
0.0180311
0.018032
0.0180329
0.0180338
0.0180347
0.0180356
0.0180364
0.0180373
0.0180382
0.0180391
0.01804
0.0180409
0.0180418
0.0180427
0.0180436
0.0180444
0.0180453
0.0180462
0.0180471
0.018048
0.0180489
0.0180498
0.0180507
0.0180516
0.0180525
0.0180534
0.0180543
0.0180552
0.0180561
0.018057
0.0180579
0.0180588
0.0180597
0.0180606
0.0180615
0.0180624
0.0180633
0.0180642
0.0180651
0.018066
0.0180669
0.0180678
0.0180687
0.0180696
0.0180705
0.0180714
0.0180723
0.0180732
0.0180741
0.018075
0.018076
0.0180769
0.0180778
0.0180787
0.0180796
0.0180805
0.0180814
0.0180823
0.0180832
0.0180842
0.0180851
0.018086
0.0180869
0.0180878
0.0180887
0.0180897
0.0180906
0.0180915
0.0180924
0.0180933
0.0180942
0.0180952
0.0180961
0.018097
0.0180979
0.0180989
0.0180998
0.0181007
0.0181016
0.0181025
0.0181035
0.0181044
0.0181053
0.0181063
0.0181072
0.0181081
0.018109
0.01811
0.0181109
0.0181118
0.0181128
0.0181137
0.0181146
0.0181156
0.0181165
0.0181174
0.0181184
0.0181193
0.0181202
0.0181212
0.0181221
0.018123
0.018124
0.0181249
0.0181258
0.0181268
0.0181277
0.0181287
0.0181296
0.0181305
0.0181315
0.0181324
0.0181334
0.0181343
0.0181353
0.0181362
0.0181371
0.0181381
0.018139
0.01814
0.0181409
0.0181419
0.0181428
0.0181438
0.0181447
0.0181457
0.0181466
0.0181476
0.0181485
0.0181495
0.0181504
0.0181514
0.0181523
0.0181533
0.0181543
0.0181552
0.0181562
0.0181571
0.0181581
0.018159
0.01816
0.018161
0.0181619
0.0181629
0.0181638
0.0181648
0.0181658
0.0181667
0.0181677
0.0181687
0.0181696
0.0181706
0.0181715
0.0181725
0.0181735
0.0181745
0.0181754
0.0181764
0.0181774
0.0181783
0.0181793
0.0181803
0.0181812
0.0181822
0.0181832
0.0181842
0.0181851
0.0181861
0.0181871
0.0181881
0.018189
0.01819
0.018191
0.018192
0.018193
0.0181939
0.0181949
0.0181959
0.018197
0.0181978
0.0181991
0.0181996
0.0182013
0.0181998
0.0181998
0.0181998
1
0.344884
0.200668
0.154968
0.131896
0.1176
0.107769
0.10056
0.0950268
0.090631
0.08704
0.0840381
0.0814802
0.0792651
0.0773208
0.0755947
0.0740477
0.0726498
0.0713781
0.0702143
0.0691439
0.068155
0.0672378
0.0663843
0.0655877
0.064842
0.0641423
0.0634841
0.0628638
0.0622781
0.0617244
0.0612
0.0607025
0.0602298
0.0597803
0.0593527
0.0589458
0.0585586
0.0581897
0.0578379
0.0575023
0.0571827
0.0568793
0.0565924
0.0563221
0.0560684
0.055831
0.0556097
0.0554045
0.0552156
0.055043
0.054886
0.0547433
0.0546132
0.0544935
0.0543827
0.0542796
0.054184
0.0540958
0.0540155
0.0539431
0.053878
0.0538193
0.0537657
0.0537162
0.0536698
0.053626
0.0535849
0.0535468
0.0535123
0.053482
0.0534563
0.0534353
0.0534188
0.0534065
0.0533978
0.0533921
0.0533887
0.0533872
0.0533869
0.0533875
0.0533887
0.0533903
0.0533922
0.0533943
0.0533965
0.0533988
0.0534011
0.0534035
0.0534059
0.0534083
0.0534107
0.0534132
0.0534156
0.0534181
0.0534205
0.053423
0.0534255
0.0534279
0.0534304
0.0534329
0.0534354
0.0534378
0.0534403
0.0534428
0.0534453
0.0534477
0.0534502
0.0534527
0.0534552
0.0534577
0.0534602
0.0534626
0.0534651
0.0534676
0.0534701
0.0534726
0.0534751
0.0534776
0.0534801
0.0534826
0.0534851
0.0534876
0.0534901
0.0534926
0.0534951
0.0534976
0.0535001
0.0535027
0.0535052
0.0535077
0.0535102
0.0535127
0.0535152
0.0535177
0.0535203
0.0535228
0.0535253
0.0535278
0.0535304
0.0535329
0.0535354
0.0535379
0.0535405
0.053543
0.0535455
0.0535481
0.0535506
0.0535532
0.0535557
0.0535582
0.0535608
0.0535633
0.0535659
0.0535684
0.053571
0.0535735
0.0535761
0.0535786
0.0535812
0.0535837
0.0535863
0.0535888
0.0535914
0.053594
0.0535965
0.0535991
0.0536017
0.0536042
0.0536068
0.0536094
0.0536119
0.0536145
0.0536171
0.0536197
0.0536222
0.0536248
0.0536274
0.05363
0.0536325
0.0536351
0.0536377
0.0536403
0.0536429
0.0536455
0.0536481
0.0536507
0.0536533
0.0536559
0.0536585
0.053661
0.0536636
0.0536662
0.0536689
0.0536715
0.0536741
0.0536767
0.0536793
0.0536819
0.0536845
0.0536871
0.0536897
0.0536923
0.053695
0.0536976
0.0537002
0.0537028
0.0537054
0.0537081
0.0537107
0.0537133
0.0537159
0.0537186
0.0537212
0.0537238
0.0537265
0.0537291
0.0537318
0.0537344
0.053737
0.0537397
0.0537423
0.053745
0.0537476
0.0537503
0.0537529
0.0537556
0.0537582
0.0537609
0.0537635
0.0537662
0.0537688
0.0537715
0.0537742
0.0537768
0.0537795
0.0537822
0.0537848
0.0537875
0.0537902
0.0537928
0.0537955
0.0537982
0.0538009
0.0538035
0.0538062
0.0538089
0.0538116
0.0538143
0.053817
0.0538196
0.0538223
0.053825
0.0538277
0.0538304
0.0538331
0.0538358
0.0538385
0.0538412
0.0538439
0.0538466
0.0538493
0.053852
0.0538547
0.0538574
0.0538602
0.0538629
0.0538656
0.0538683
0.053871
0.0538737
0.0538765
0.0538792
0.0538819
0.0538846
0.0538874
0.0538901
0.0538928
0.0538955
0.0538983
0.053901
0.0539037
0.0539065
0.0539092
0.053912
0.0539147
0.0539175
0.0539202
0.0539229
0.0539257
0.0539284
0.0539312
0.053934
0.0539367
0.0539395
0.0539422
0.053945
0.0539477
0.0539505
0.0539533
0.053956
0.0539588
0.0539616
0.0539644
0.0539671
0.0539699
0.0539727
0.0539755
0.0539782
0.053981
0.0539838
0.0539866
0.0539894
0.0539922
0.0539949
0.0539977
0.0540005
0.0540033
0.0540061
0.0540089
0.0540117
0.0540145
0.0540173
0.0540201
0.0540229
0.0540257
0.0540285
0.0540314
0.0540342
0.054037
0.0540398
0.0540426
0.0540454
0.0540483
0.0540511
0.0540539
0.0540567
0.0540596
0.0540624
0.0540652
0.054068
0.0540709
0.0540737
0.0540766
0.0540794
0.0540822
0.0540851
0.0540879
0.0540908
0.0540936
0.0540965
0.0540993
0.0541022
0.054105
0.0541079
0.0541107
0.0541136
0.0541165
0.0541193
0.0541222
0.0541251
0.0541279
0.0541308
0.0541337
0.0541365
0.0541394
0.0541423
0.0541452
0.054148
0.0541509
0.0541538
0.0541567
0.0541596
0.0541625
0.0541654
0.0541683
0.0541711
0.0541741
0.0541769
0.0541799
0.0541827
0.0541857
0.0541885
0.0541915
0.0541944
0.0541973
0.0542002
0.0542032
0.054206
0.054209
0.054212
0.0542148
0.054218
0.0542206
0.0542243
0.0542261
0.0542308
0.0542271
0.0542271
0.0542271
1
0.518766
0.327403
0.255349
0.217851
0.194406
0.178214
0.16631
0.157161
0.149887
0.143942
0.138973
0.134739
0.131074
0.127858
0.125004
0.122447
0.120138
0.118038
0.116116
0.11435
0.112718
0.111205
0.109797
0.108483
0.107254
0.1061
0.105015
0.103993
0.103027
0.102115
0.101251
0.100431
0.0996529
0.0989128
0.0982089
0.0975394
0.0969023
0.0962954
0.095717
0.0951658
0.0946413
0.0941439
0.0936739
0.0932317
0.092817
0.0924294
0.0920687
0.0917348
0.0914278
0.0911475
0.0908926
0.0906609
0.0904495
0.090255
0.0900748
0.0899075
0.0897523
0.0896097
0.0894798
0.0893625
0.089257
0.0891617
0.0890747
0.0889942
0.0889189
0.0888481
0.0887821
0.0887213
0.0886668
0.0886192
0.0885791
0.0885467
0.0885214
0.0885028
0.0884898
0.0884814
0.0884766
0.0884746
0.0884745
0.0884758
0.088478
0.0884808
0.088484
0.0884875
0.0884912
0.0884949
0.0884988
0.0885028
0.0885067
0.0885108
0.0885148
0.0885189
0.0885229
0.088527
0.0885311
0.0885352
0.0885393
0.0885433
0.0885474
0.0885515
0.0885556
0.0885597
0.0885638
0.0885679
0.088572
0.0885761
0.0885802
0.0885844
0.0885885
0.0885926
0.0885967
0.0886008
0.088605
0.0886091
0.0886132
0.0886173
0.0886215
0.0886256
0.0886297
0.0886339
0.088638
0.0886422
0.0886463
0.0886505
0.0886546
0.0886588
0.0886629
0.0886671
0.0886713
0.0886754
0.0886796
0.0886838
0.0886879
0.0886921
0.0886963
0.0887004
0.0887046
0.0887088
0.088713
0.0887172
0.0887214
0.0887256
0.0887298
0.088734
0.0887381
0.0887423
0.0887466
0.0887508
0.088755
0.0887592
0.0887634
0.0887676
0.0887718
0.088776
0.0887803
0.0887845
0.0887887
0.0887929
0.0887972
0.0888014
0.0888056
0.0888099
0.0888141
0.0888184
0.0888226
0.0888268
0.0888311
0.0888353
0.0888396
0.0888439
0.0888481
0.0888524
0.0888566
0.0888609
0.0888652
0.0888694
0.0888737
0.088878
0.0888823
0.0888865
0.0888908
0.0888951
0.0888994
0.0889037
0.088908
0.0889123
0.0889166
0.0889209
0.0889252
0.0889295
0.0889338
0.0889381
0.0889424
0.0889467
0.088951
0.0889553
0.0889597
0.088964
0.0889683
0.0889726
0.088977
0.0889813
0.0889856
0.08899
0.0889943
0.0889986
0.089003
0.0890073
0.0890117
0.089016
0.0890204
0.0890248
0.0890291
0.0890335
0.0890378
0.0890422
0.0890466
0.0890509
0.0890553
0.0890597
0.0890641
0.0890685
0.0890728
0.0890772
0.0890816
0.089086
0.0890904
0.0890948
0.0890992
0.0891036
0.089108
0.0891124
0.0891168
0.0891212
0.0891256
0.0891301
0.0891345
0.0891389
0.0891433
0.0891477
0.0891522
0.0891566
0.089161
0.0891655
0.0891699
0.0891744
0.0891788
0.0891832
0.0891877
0.0891921
0.0891966
0.0892011
0.0892055
0.08921
0.0892144
0.0892189
0.0892234
0.0892278
0.0892323
0.0892368
0.0892413
0.0892458
0.0892502
0.0892547
0.0892592
0.0892637
0.0892682
0.0892727
0.0892772
0.0892817
0.0892862
0.0892907
0.0892952
0.0892997
0.0893043
0.0893088
0.0893133
0.0893178
0.0893224
0.0893269
0.0893314
0.0893359
0.0893405
0.089345
0.0893496
0.0893541
0.0893587
0.0893632
0.0893678
0.0893723
0.0893769
0.0893814
0.089386
0.0893906
0.0893951
0.0893997
0.0894043
0.0894088
0.0894134
0.089418
0.0894226
0.0894272
0.0894318
0.0894364
0.0894409
0.0894455
0.0894501
0.0894547
0.0894593
0.089464
0.0894686
0.0894732
0.0894778
0.0894824
0.089487
0.0894917
0.0894963
0.0895009
0.0895055
0.0895102
0.0895148
0.0895195
0.0895241
0.0895287
0.0895334
0.089538
0.0895427
0.0895474
0.089552
0.0895567
0.0895613
0.089566
0.0895707
0.0895753
0.08958
0.0895847
0.0895894
0.0895941
0.0895988
0.0896034
0.0896081
0.0896128
0.0896175
0.0896222
0.0896269
0.0896316
0.0896363
0.0896411
0.0896458
0.0896505
0.0896552
0.0896599
0.0896647
0.0896694
0.0896741
0.0896788
0.0896836
0.0896883
0.0896931
0.0896978
0.0897026
0.0897073
0.0897121
0.0897168
0.0897216
0.0897263
0.0897311
0.0897359
0.0897407
0.0897454
0.0897502
0.089755
0.0897598
0.0897645
0.0897694
0.0897741
0.089779
0.0897837
0.0897886
0.0897933
0.0897982
0.0898029
0.0898078
0.0898125
0.0898174
0.0898222
0.0898271
0.0898319
0.0898367
0.0898416
0.0898464
0.0898516
0.089856
0.0898619
0.0898651
0.0898727
0.0898676
0.0898676
0.0898676
1
0.660888
0.446896
0.35288
0.302032
0.269853
0.247505
0.231022
0.218332
0.20823
0.199971
0.193065
0.187182
0.18209
0.177623
0.173661
0.170112
0.166908
0.163994
0.16133
0.15888
0.156618
0.154522
0.152571
0.150751
0.149048
0.14745
0.145948
0.144532
0.143196
0.141933
0.140737
0.139603
0.138526
0.137502
0.136528
0.135602
0.134722
0.133883
0.133084
0.132323
0.131599
0.130914
0.130267
0.129658
0.129088
0.128556
0.128062
0.127605
0.127185
0.126802
0.126454
0.126137
0.125848
0.125581
0.125335
0.125106
0.124895
0.1247
0.124523
0.124364
0.12422
0.124089
0.12397
0.12386
0.123757
0.123661
0.123572
0.12349
0.123417
0.123355
0.123302
0.12326
0.123227
0.123203
0.123187
0.123176
0.12317
0.123168
0.123169
0.123171
0.123174
0.123178
0.123183
0.123187
0.123193
0.123198
0.123203
0.123209
0.123214
0.12322
0.123226
0.123231
0.123237
0.123243
0.123248
0.123254
0.12326
0.123265
0.123271
0.123277
0.123282
0.123288
0.123294
0.123299
0.123305
0.123311
0.123317
0.123322
0.123328
0.123334
0.123339
0.123345
0.123351
0.123357
0.123362
0.123368
0.123374
0.12338
0.123385
0.123391
0.123397
0.123403
0.123408
0.123414
0.12342
0.123426
0.123432
0.123437
0.123443
0.123449
0.123455
0.12346
0.123466
0.123472
0.123478
0.123484
0.12349
0.123495
0.123501
0.123507
0.123513
0.123519
0.123524
0.12353
0.123536
0.123542
0.123548
0.123554
0.123559
0.123565
0.123571
0.123577
0.123583
0.123589
0.123595
0.123601
0.123606
0.123612
0.123618
0.123624
0.12363
0.123636
0.123642
0.123648
0.123654
0.123659
0.123665
0.123671
0.123677
0.123683
0.123689
0.123695
0.123701
0.123707
0.123713
0.123719
0.123725
0.123731
0.123736
0.123742
0.123748
0.123754
0.12376
0.123766
0.123772
0.123778
0.123784
0.12379
0.123796
0.123802
0.123808
0.123814
0.12382
0.123826
0.123832
0.123838
0.123844
0.12385
0.123856
0.123862
0.123868
0.123874
0.12388
0.123886
0.123892
0.123898
0.123904
0.12391
0.123916
0.123922
0.123929
0.123935
0.123941
0.123947
0.123953
0.123959
0.123965
0.123971
0.123977
0.123983
0.123989
0.123995
0.124001
0.124008
0.124014
0.12402
0.124026
0.124032
0.124038
0.124044
0.12405
0.124056
0.124063
0.124069
0.124075
0.124081
0.124087
0.124093
0.124099
0.124106
0.124112
0.124118
0.124124
0.12413
0.124136
0.124143
0.124149
0.124155
0.124161
0.124167
0.124173
0.12418
0.124186
0.124192
0.124198
0.124204
0.124211
0.124217
0.124223
0.124229
0.124236
0.124242
0.124248
0.124254
0.12426
0.124267
0.124273
0.124279
0.124285
0.124292
0.124298
0.124304
0.124311
0.124317
0.124323
0.124329
0.124336
0.124342
0.124348
0.124355
0.124361
0.124367
0.124373
0.12438
0.124386
0.124392
0.124399
0.124405
0.124411
0.124418
0.124424
0.12443
0.124437
0.124443
0.124449
0.124456
0.124462
0.124468
0.124475
0.124481
0.124488
0.124494
0.1245
0.124507
0.124513
0.124519
0.124526
0.124532
0.124539
0.124545
0.124551
0.124558
0.124564
0.124571
0.124577
0.124584
0.12459
0.124596
0.124603
0.124609
0.124616
0.124622
0.124629
0.124635
0.124641
0.124648
0.124654
0.124661
0.124667
0.124674
0.12468
0.124687
0.124693
0.1247
0.124706
0.124713
0.124719
0.124726
0.124732
0.124739
0.124745
0.124752
0.124758
0.124765
0.124771
0.124778
0.124785
0.124791
0.124798
0.124804
0.124811
0.124817
0.124824
0.12483
0.124837
0.124844
0.12485
0.124857
0.124863
0.12487
0.124877
0.124883
0.12489
0.124896
0.124903
0.12491
0.124916
0.124923
0.124929
0.124936
0.124943
0.124949
0.124956
0.124963
0.124969
0.124976
0.124983
0.124989
0.124996
0.125003
0.125009
0.125016
0.125023
0.125029
0.125036
0.125043
0.12505
0.125056
0.125063
0.12507
0.125076
0.125084
0.12509
0.125098
0.125102
0.125113
0.125107
0.125107
0.125107
1
0.776803
0.557827
0.44688
0.384104
0.343747
0.315514
0.294609
0.278474
0.265612
0.255087
0.246284
0.238783
0.232291
0.226598
0.221548
0.217027
0.212946
0.209236
0.205845
0.202727
0.199849
0.197181
0.1947
0.192385
0.19022
0.188188
0.186278
0.184478
0.18278