# vtk DataFile Version 2.0
FlowField
ASCII
DATASET STRUCTURED_GRID
DIMENSIONS 400 1 200
POINTS 80000 float
0 0 0
0.08 0 0
0.16 0 0
0.24 0 0
0.32 0 0
0.4 0 0
0.48 0 0
0.56 0 0
0.64 0 0
0.72 0 0
0.8 0 0
0.88 0 0
0.96 0 0
1.04 0 0
1.12 0 0
1.2 0 0
1.28 0 0
1.36 0 0
1.44 0 0
1.52 0 0
1.6 0 0
1.68 0 0
1.76 0 0
1.84 0 0
1.92 0 0
2 0 0
2.08 0 0
2.16 0 0
2.24 0 0
2.32 0 0
2.4 0 0
2.48 0 0
2.56 0 0
2.64 0 0
2.72 0 0
2.8 0 0
2.88 0 0
2.96 0 0
3.04 0 0
3.12 0 0
3.2 0 0
3.28 0 0
3.36 0 0
3.44 0 0
3.52 0 0
3.6 0 0
3.68 0 0
3.76 0 0
3.84 0 0
3.92 0 0
4 0 0
4.08 0 0
4.16 0 0
4.24 0 0
4.32 0 0
4.4 0 0
4.48 0 0
4.56 0 0
4.64 0 0
4.72 0 0
4.8 0 0
4.88 0 0
4.96 0 0
5.04 0 0
5.12 0 0
5.2 0 0
5.28 0 0
5.36 0 0
5.44 0 0
5.52 0 0
5.6 0 0
5.68 0 0
5.76 0 0
5.84 0 0
5.92 0 0
6 0 0
6.08 0 0
6.16 0 0
6.24 0 0
6.32 0 0
6.4 0 0
6.48 0 0
6.56 0 0
6.64 0 0
6.72 0 0
6.8 0 0
6.88 0 0
6.96 0 0
7.04 0 0
7.12 0 0
7.2 0 0
7.28 0 0
7.36 0 0
7.44 0 0
7.52 0 0
7.6 0 0
7.68 0 0
7.76 0 0
7.84 0 0
7.92 0 0
8 0 0
8.08 0 0
8.16 0 0
8.24 0 0
8.32 0 0
8.4 0 0
8.48 0 0
8.56 0 0
8.64 0 0
8.72 0 0
8.8 0 0
8.88 0 0
8.96 0 0
9.04 0 0
9.12 0 0
9.2 0 0
9.28 0 0
9.36 0 0
9.44 0 0
9.52 0 0
9.6 0 0
9.68 0 0
9.76 0 0
9.84 0 0
9.92 0 0
10 0 0
10.08 0 0
10.16 0 0
10.24 0 0
10.32 0 0
10.4 0 0
10.48 0 0
10.56 0 0
10.64 0 0
10.72 0 0
10.8 0 0
10.88 0 0
10.96 0 0
11.04 0 0
11.12 0 0
11.2 0 0
11.28 0 0
11.36 0 0
11.44 0 0
11.52 0 0
11.6 0 0
11.68 0 0
11.76 0 0
11.84 0 0
11.92 0 0
12 0 0
12.08 0 0
12.16 0 0
12.24 0 0
12.32 0 0
12.4 0 0
12.48 0 0
12.56 0 0
12.64 0 0
12.72 0 0
12.8 0 0
12.88 0 0
12.96 0 0
13.04 0 0
13.12 0 0
13.2 0 0
13.28 0 0
13.36 0 0
13.44 0 0
13.52 0 0
13.6 0 0
13.68 0 0
13.76 0 0
13.84 0 0
13.92 0 0
14 0 0
14.08 0 0
14.16 0 0
14.24 0 0
14.32 0 0
14.4 0 0
14.48 0 0
14.56 0 0
14.64 0 0
14.72 0 0
14.8 0 0
14.88 0 0
14.96 0 0
15.04 0 0
15.12 0 0
15.2 0 0
15.28 0 0
15.36 0 0
15.44 0 0
15.52 0 0
15.6 0 0
15.68 0 0
15.76 0 0
15.84 0 0
15.92 0 0
16 0 0
16.08 0 0
16.16 0 0
16.24 0 0
16.32 0 0
16.4 0 0
16.48 0 0
16.56 0 0
16.64 0 0
16.72 0 0
16.8 0 0
16.88 0 0
16.96 0 0
17.04 0 0
17.12 0 0
17.2 0 0
17.28 0 0
17.36 0 0
17.44 0 0
17.52 0 0
17.6 0 0
17.68 0 0
17.76 0 0
17.84 0 0
17.92 0 0
18 0 0
18.08 0 0
18.16 0 0
18.24 0 0
18.32 0 0
18.4 0 0
18.48 0 0
18.56 0 0
18.64 0 0
18.72 0 0
18.8 0 0
18.88 0 0
18.96 0 0
19.04 0 0
19.12 0 0
19.2 0 0
19.28 0 0
19.36 0 0
19.44 0 0
19.52 0 0
19.6 0 0
19.68 0 0
19.76 0 0
19.84 0 0
19.92 0 0
20 0 0
20.08 0 0
20.16 0 0
20.24 0 0
20.32 0 0
20.4 0 0
20.48 0 0
20.56 0 0
20.64 0 0
20.72 0 0
20.8 0 0
20.88 0 0
20.96 0 0
21.04 0 0
21.12 0 0
21.2 0 0
21.28 0 0
21.36 0 0
21.44 0 0
21.52 0 0
21.6 0 0
21.68 0 0
21.76 0 0
21.84 0 0
21.92 0 0
22 0 0
22.08 0 0
22.16 0 0
22.24 0 0
22.32 0 0
22.4 0 0
22.48 0 0
22.56 0 0
22.64 0 0
22.72 0 0
22.8 0 0
22.88 0 0
22.96 0 0
23.04 0 0
23.12 0 0
23.2 0 0
23.28 0 0
23.36 0 0
23.44 0 0
23.52 0 0
23.6 0 0
23.68 0 0
23.76 0 0
23.84 0 0
23.92 0 0
24 0 0
24.08 0 0
24.16 0 0
24.24 0 0
24.32 0 0
24.4 0 0
24.48 0 0
24.56 0 0
24.64 0 0
24.72 0 0
24.8 0 0
24.88 0 0
24.96 0 0
25.04 0 0
25.12 0 0
25.2 0 0
25.28 0 0
25.36 0 0
25.44 0 0
25.52 0 0
25.6 0 0
25.68 0 0
25.76 0 0
25.84 0 0
25.92 0 0
26 0 0
26.08 0 0
26.16 0 0
26.24 0 0
26.32 0 0
26.4 0 0
26.48 0 0
26.56 0 0
26.64 0 0
26.72 0 0
26.8 0 0
26.88 0 0
26.96 0 0
27.04 0 0
27.12 0 0
27.2 0 0
27.28 0 0
27.36 0 0
27.44 0 0
27.52 0 0
27.6 0 0
27.68 0 0
27.76 0 0
27.84 0 0
27.92 0 0
28 0 0
28.08 0 0
28.16 0 0
28.24 0 0
28.32 0 0
28.4 0 0
28.48 0 0
28.56 0 0
28.64 0 0
28.72 0 0
28.8 0 0
28.88 0 0
28.96 0 0
29.04 0 0
29.12 0 0
29.2 0 0
29.28 0 0
29.36 0 0
29.44 0 0
29.52 0 0
29.6 0 0
29.68 0 0
29.76 0 0
29.84 0 0
29.92 0 0
30 0 0
30.08 0 0
30.16 0 0
30.24 0 0
30.32 0 0
30.4 0 0
30.48 0 0
30.56 0 0
30.64 0 0
30.72 0 0
30.8 0 0
30.88 0 0
30.96 0 0
31.04 0 0
31.12 0 0
31.2 0 0
31.28 0 0
31.36 0 0
31.44 0 0
31.52 0 0
31.6 0 0
31.68 0 0
31.76 0 0
31.84 0 0
31.92 0 0
0 0.005 0
0.08 0.005 0
0.16 0.005 0
0.24 0.005 0
0.32 0.005 0
0.4 0.005 0
0.48 0.005 0
0.56 0.005 0
0.64 0.005 0
0.72 0.005 0
0.8 0.005 0
0.88 0.005 0
0.96 0.005 0
1.04 0.005 0
1.12 0.005 0
1.2 0.005 0
1.28 0.005 0
1.36 0.005 0
1.44 0.005 0
1.52 0.005 0
1.6 0.005 0
1.68 0.005 0
1.76 0.005 0
1.84 0.005 0
1.92 0.005 0
2 0.005 0
2.08 0.005 0
2.16 0.005 0
2.24 0.005 0
2.32 0.005 0
2.4 0.005 0
2.48 0.005 0
2.56 0.005 0
2.64 0.005 0
2.72 0.005 0
2.8 0.005 0
2.88 0.005 0
2.96 0.005 0
3.04 0.005 0
3.12 0.005 0
3.2 0.005 0
3.28 0.005 0
3.36 0.005 0
3.44 0.005 0
3.52 0.005 0
3.6 0.005 0
3.68 0.005 0
3.76 0.005 0
3.84 0.005 0
3.92 0.005 0
4 0.005 0
4.08 0.005 0
4.16 0.005 0
4.24 0.005 0
4.32 0.005 0
4.4 0.005 0
4.48 0.005 0
4.56 0.005 0
4.64 0.005 0
4.72 0.005 0
4.8 0.005 0
4.88 0.005 0
4.96 0.005 0
5.04 0.005 0
5.12 0.005 0
5.2 0.005 0
5.28 0.005 0
5.36 0.005 0
5.44 0.005 0
5.52 0.005 0
5.6 0.005 0
5.68 0.005 0
5.76 0.005 0
5.84 0.005 0
5.92 0.005 0
6 0.005 0
6.08 0.005 0
6.16 0.005 0
6.24 0.005 0
6.32 0.005 0
6.4 0.005 0
6.48 0.005 0
6.56 0.005 0
6.64 0.005 0
6.72 0.005 0
6.8 0.005 0
6.88 0.005 0
6.96 0.005 0
7.04 0.005 0
7.12 0.005 0
7.2 0.005 0
7.28 0.005 0
7.36 0.005 0
7.44 0.005 0
7.52 0.005 0
7.6 0.005 0
7.68 0.005 0
7.76 0.005 0
7.84 0.005 0
7.92 0.005 0
8 0.005 0
8.08 0.005 0
8.16 0.005 0
8.24 0.005 0
8.32 0.005 0
8.4 0.005 0
8.48 0.005 0
8.56 0.005 0
8.64 0.005 0
8.72 0.005 0
8.8 0.005 0
8.88 0.005 0
8.96 0.005 0
9.04 0.005 0
9.12 0.005 0
9.2 0.005 0
9.28 0.005 0
9.36 0.005 0
9.44 0.005 0
9.52 0.005 0
9.6 0.005 0
9.68 0.005 0
9.76 0.005 0
9.84 0.005 0
9.92 0.005 0
10 0.005 0
10.08 0.005 0
10.16 0.005 0
10.24 0.005 0
10.32 0.005 0
10.4 0.005 0
10.48 0.005 0
10.56 0.005 0
10.64 0.005 0
10.72 0.005 0
10.8 0.005 0
10.88 0.005 0
10.96 0.005 0
11.04 0.005 0
11.12 0.005 0
11.2 0.005 0
11.28 0.005 0
11.36 0.005 0
11.44 0.005 0
11.52 0.005 0
11.6 0.005 0
11.68 0.005 0
11.76 0.005 0
11.84 0.005 0
11.92 0.005 0
12 0.005 0
12.08 0.005 0
12.16 0.005 0
12.24 0.005 0
12.32 0.005 0
12.4 0.005 0
12.48 0.005 0
12.56 0.005 0
12.64 0.005 0
12.72 0.005 0
12.8 0.005 0
12.88 0.005 0
12.96 0.005 0
13.04 0.005 0
13.12 0.005 0
13.2 0.005 0
13.28 0.005 0
13.36 0.005 0
13.44 0.005 0
13.52 0.005 0
13.6 0.005 0
13.68 0.005 0
13.76 0.005 0
13.84 0.005 0
13.92 0.005 0
14 0.005 0
14.08 0.005 0
14.16 0.005 0
14.24 0.005 0
14.32 0.005 0
14.4 0.005 0
14.48 0.005 0
14.56 0.005 0
14.64 0.005 0
14.72 0.005 0
14.8 0.005 0
14.88 0.005 0
14.96 0.005 0
15.04 0.005 0
15.12 0.005 0
15.2 0.005 0
15.28 0.005 0
15.36 0.005 0
15.44 0.005 0
15.52 0.005 0
15.6 0.005 0
15.68 0.005 0
15.76 0.005 0
15.84 0.005 0
15.92 0.005 0
16 0.005 0
16.08 0.005 0
16.16 0.005 0
16.24 0.005 0
16.32 0.005 0
16.4 0.005 0
16.48 0.005 0
16.56 0.005 0
16.64 0.005 0
16.72 0.005 0
16.8 0.005 0
16.88 0.005 0
16.96 0.005 0
17.04 0.005 0
17.12 0.005 0
17.2 0.005 0
17.28 0.005 0
17.36 0.005 0
17.44 0.005 0
17.52 0.005 0
17.6 0.005 0
17.68 0.005 0
17.76 0.005 0
17.84 0.005 0
17.92 0.005 0
18 0.005 0
18.08 0.005 0
18.16 0.005 0
18.24 0.005 0
18.32 0.005 0
18.4 0.005 0
18.48 0.005 0
18.56 0.005 0
18.64 0.005 0
18.72 0.005 0
18.8 0.005 0
18.88 0.005 0
18.96 0.005 0
19.04 0.005 0
19.12 0.005 0
19.2 0.005 0
19.28 0.005 0
19.36 0.005 0
19.44 0.005 0
19.52 0.005 0
19.6 0.005 0
19.68 0.005 0
19.76 0.005 0
19.84 0.005 0
19.92 0.005 0
20 0.005 0
20.08 0.005 0
20.16 0.005 0
20.24 0.005 0
20.32 0.005 0
20.4 0.005 0
20.48 0.005 0
20.56 0.005 0
20.64 0.005 0
20.72 0.005 0
20.8 0.005 0
20.88 0.005 0
20.96 0.005 0
21.04 0.005 0
21.12 0.005 0
21.2 0.005 0
21.28 0.005 0
21.36 0.005 0
21.44 0.005 0
21.52 0.005 0
21.6 0.005 0
21.68 0.005 0
21.76 0.005 0
21.84 0.005 0
21.92 0.005 0
22 0.005 0
22.08 0.005 0
22.16 0.005 0
22.24 0.005 0
22.32 0.005 0
22.4 0.005 0
22.48 0.005 0
22.56 0.005 0
22.64 0.005 0
22.72 0.005 0
22.8 0.005 0
22.88 0.005 0
22.96 0.005 0
23.04 0.005 0
23.12 0.005 0
23.2 0.005 0
23.28 0.005 0
23.36 0.005 0
23.44 0.005 0
23.52 0.005 0
23.6 0.005 0
23.68 0.005 0
23.76 0.005 0
23.84 0.005 0
23.92 0.005 0
24 0.005 0
24.08 0.005 0
24.16 0.005 0
24.24 0.005 0
24.32 0.005 0
24.4 0.005 0
24.48 0.005 0
24.56 0.005 0
24.64 0.005 0
24.72 0.005 0
24.8 0.005 0
24.88 0.005 0
24.96 0.005 0
25.04 0.005 0
25.12 0.005 0
25.2 0.005 0
25.28 0.005 0
25.36 0.005 0
25.44 0.005 0
25.52 0.005 0
25.6 0.005 0
25.68 0.005 0
25.76 0.005 0
25.84 0.005 0
25.92 0.005 0
26 0.005 0
26.08 0.005 0
26.16 0.005 0
26.24 0.005 0
26.32 0.005 0
26.4 0.005 0
26.48 0.005 0
26.56 0.005 0
26.64 0.005 0
26.72 0.005 0
26.8 0.005 0
26.88 0.005 0
26.96 0.005 0
27.04 0.005 0
27.12 0.005 0
27.2 0.005 0
27.28 0.005 0
27.36 0.005 0
27.44 0.005 0
27.52 0.005 0
27.6 0.005 0
27.68 0.005 0
27.76 0.005 0
27.84 0.005 0
27.92 0.005 0
28 0.005 0
28.08 0.005 0
28.16 0.005 0
28.24 0.005 0
28.32 0.005 0
28.4 0.005 0
28.48 0.005 0
28.56 0.005 0
28.64 0.005 0
28.72 0.005 0
28.8 0.005 0
28.88 0.005 0
28.96 0.005 0
29.04 0.005 0
29.12 0.005 0
29.2 0.005 0
29.28 0.005 0
29.36 0.005 0
29.44 0.005 0
29.52 0.005 0
29.6 0.005 0
29.68 0.005 0
29.76 0.005 0
29.84 0.005 0
29.92 0.005 0
30 0.005 0
30.08 0.005 0
30.16 0.005 0
30.24 0.005 0
30.32 0.005 0
30.4 0.005 0
30.48 0.005 0
30.56 0.005 0
30.64 0.005 0
30.72 0.005 0
30.8 0.005 0
30.88 0.005 0
30.96 0.005 0
31.04 0.005 0
31.12 0.005 0
31.2 0.005 0
31.28 0.005 0
31.36 0.005 0
31.44 0.005 0
31.52 0.005 0
31.6 0.005 0
31.68 0.005 0
31.76 0.005 0
31.84 0.005 0
31.92 0.005 0
0 0.01 0
0.08 0.01 0
0.16 0.01 0
0.24 0.01 0
0.32 0.01 0
0.4 0.01 0
0.48 0.01 0
0.56 0.01 0
0.64 0.01 0
0.72 0.01 0
0.8 0.01 0
0.88 0.01 0
0.96 0.01 0
1.04 0.01 0
1.12 0.01 0
1.2 0.01 0
1.28 0.01 0
1.36 0.01 0
1.44 0.01 0
1.52 0.01 0
1.6 0.01 0
1.68 0.01 0
1.76 0.01 0
1.84 0.01 0
1.92 0.01 0
2 0.01 0
2.08 0.01 0
2.16 0.01 0
2.24 0.01 0
2.32 0.01 0
2.4 0.01 0
2.48 0.01 0
2.56 0.01 0
2.64 0.01 0
2.72 0.01 0
2.8 0.01 0
2.88 0.01 0
2.96 0.01 0
3.04 0.01 0
3.12 0.01 0
3.2 0.01 0
3.28 0.01 0
3.36 0.01 0
3.44 0.01 0
3.52 0.01 0
3.6 0.01 0
3.68 0.01 0
3.76 0.01 0
3.84 0.01 0
3.92 0.01 0
4 0.01 0
4.08 0.01 0
4.16 0.01 0
4.24 0.01 0
4.32 0.01 0
4.4 0.01 0
4.48 0.01 0
4.56 0.01 0
4.64 0.01 0
4.72 0.01 0
4.8 0.01 0
4.88 0.01 0
4.96 0.01 0
5.04 0.01 0
5.12 0.01 0
[...]
POINT_DATA 80000

SCALARS v float 1
LOOKUP_TABLE default
0
0
0
0
0
0
0
0
0
0
0
0
0
0
0
0
0
0
0
0
0
0
0
0
0
0
0
0
0
0
0
0
0
0
0
0
0
0
0
0
0
0
0
0
0
0
0
0
0
0
0
0
0
0
0
0
0
0
0
0
0
0
0
0
0
0
0
0
0
0
0
0
0
0
0
0
0
0
0
0
0
0
0
0
0
0
0
0
0
0
0
0
0
0
0
0
0
0
0
0
0
0
0
0
0
0
0
0
0
0
0
0
0
0
0
0
0
0
0
0
0
0
0
0
0
0
0
0
0
0
0
0
0
0
0
0
0
0
0
0
0
0
0
0
0
0
0
0
0
0
0
0
0
0
0
0
0
0
0
0
0
0
0
0
0
0
0
0
0
0
0
0
0
0
0
0
0
0
0
0
0
0
0
0
0
0
0
0
0
0
0
0
0
0
0
0
0
0
0
0
0
0
0
0
0
0
0
0
0
0
0
0
0
0
0
0
0
0
0
0
0
0
0
0
0
0
0
0
0
0
0
0
0
0
0
0
0
0
0
0
0
0
0
0
0
0
0
0
0
0
0
0
0
0
0
0
0
0
0
0
0
0
0
0
0
0
0
0
0
0
0
0
0
0
0
0
0
0
0
0
0
0
0
0
0
0
0
0
0
0
0
0
0
0
0
0
0
0
0
0
0
0
0
0
0
0
0
0
0
0
0
0
0
0
0
0
0
0
0
0
0
0
0
0
0
0
0
0
0
0
0
0
0
0
0
0
0
0
0
0
0
0
0
0
0
0
0
0
0
0
0
0
0
0
0
0
0
0
0
0
0
0
0
0
0
0
0
0
0
0
0
0
0
0
0
0
0
0
0
0
0
0
0
0
0
0
0
0
0
0
0
0
0
0
0
0
0
0
0
0
-0.0542583
0.0542583
0.00394351
0.000978895
0.000476891
0.000282443
0.000165963
8.3873e-05
3.08139e-05
2.12686e-06
-1.07105e-05
-1.53814e-05
-1.65052e-05
-1.62798e-05
-1.56426e-05
-1.49785e-05
-1.44305e-05
-1.40299e-05
-1.37604e-05
-1.3591e-05
-1.34917e-05
-1.34387e-05
-1.34155e-05
-1.34108e-05
-1.34176e-05
-1.34312e-05
-1.34492e-05
-1.34696e-05
-1.34916e-05
-1.35146e-05
-1.35382e-05
-1.35621e-05
-1.35863e-05
-1.36107e-05
-1.36353e-05
-1.36599e-05
-1.36846e-05
-1.37094e-05
-1.37344e-05
-1.37593e-05
-1.37844e-05
-1.38095e-05
-1.38348e-05
-1.38601e-05
-1.38855e-05
-1.3911e-05
-1.39366e-05
-1.39622e-05
-1.3988e-05
-1.40138e-05
-1.40398e-05
-1.40659e-05
-1.40921e-05
-1.41183e-05
-1.41448e-05
-1.41713e-05
-1.41979e-05
-1.42246e-05
-1.42515e-05
-1.42785e-05
-1.43056e-05
-1.43329e-05
-1.43602e-05
-1.43877e-05
-1.44153e-05
-1.4443e-05
-1.44709e-05
-1.44989e-05
-1.45271e-05
-1.45553e-05
-1.45837e-05
-1.46122e-05
-1.46409e-05
-1.46697e-05
-1.46986e-05
-1.47277e-05
-1.47569e-05
-1.47862e-05
-1.48158e-05
-1.48454e-05
-1.48752e-05
-1.4905e-05
-1.49351e-05
-1.49653e-05
-1.49957e-05
-1.50262e-05
-1.50569e-05
-1.50877e-05
-1.51187e-05
-1.51498e-05
-1.51811e-05
-1.52125e-05
-1.52441e-05
-1.52758e-05
-1.53078e-05
-1.53398e-05
-1.53721e-05
-1.54045e-05
-1.54371e-05
-1.54698e-05
-1.55028e-05
-1.55359e-05
-1.55692e-05
-1.56027e-05
-1.56364e-05
-1.56702e-05
-1.57043e-05
-1.57385e-05
-1.5773e-05
-1.58075e-05
-1.58424e-05
-1.58774e-05
-1.59127e-05
-1.59481e-05
-1.59838e-05
-1.60196e-05
-1.60558e-05
-1.6092e-05
-1.61286e-05
-1.61653e-05
-1.62022e-05
-1.62393e-05
-1.62767e-05
-1.63142e-05
-1.63519e-05
-1.63897e-05
-1.64277e-05
-1.64658e-05
-1.6504e-05
-1.65422e-05
-1.65805e-05
-1.66186e-05
-1.66568e-05
-1.66946e-05
-1.67322e-05
-1.67694e-05
-1.68061e-05
-1.6842e-05
-1.68771e-05
-1.6911e-05
-1.69437e-05
-1.69747e-05
-1.70037e-05
-1.70303e-05
-1.70541e-05
-1.70744e-05
-1.70908e-05
-1.71025e-05
-1.71087e-05
-1.71085e-05
-1.71008e-05
-1.70844e-05
-1.70581e-05
-1.70202e-05
-1.69691e-05
-1.69028e-05
-1.68193e-05
-1.67159e-05
-1.65902e-05
-1.6439e-05
-1.62591e-05
-1.60468e-05
-1.57981e-05
-1.55086e-05
-1.51734e-05
-1.47873e-05
-1.43445e-05
-1.38387e-05
-1.32635e-05
-1.26113e-05
-1.18747e-05
-1.10452e-05
-1.01142e-05
-9.07236e-06
-7.90998e-06
-6.61669e-06
-5.18194e-06
-3.5945e-06
-1.84307e-06
8.42368e-08
2.19926e-06
4.51423e-06
7.04118e-06
9.79235e-06
1.27795e-05
1.60145e-05
1.95083e-05
2.32716e-05
2.73142e-05
3.1645e-05
3.62719e-05
4.12013e-05
4.64384e-05
5.19867e-05
5.78475e-05
6.40208e-05
7.05036e-05
7.72914e-05
8.43766e-05
9.17492e-05
9.93966e-05
0.000107303
0.000115451
0.000123818
0.00013238
0.000141111
0.00014998
0.000158956
0.000168003
0.000177083
0.000186159
0.000195187
0.000204126
0.000212932
0.000221559
0.000229962
0.000238096
0.000245916
0.000253377
0.000260437
0.000267054
0.000273189
0.000278804
0.000283867
0.000288346
0.000292215
0.00029545
0.000298034
0.00029995
0.00030119
0.000301748
0.000301623
0.00030082
0.000299348
0.00029722
0.000294453
0.00029107
0.000287097
0.000282562
0.000277499
0.000271943
0.000265931
0.000259505
0.000252705
0.000245575
0.000238157
0.000230496
0.000222636
0.000214619
0.000206489
0.000198285
0.000190049
0.000181816
0.000173623
0.000165503
0.000157487
0.000149603
0.000141876
0.000134329
0.000126981
0.000119851
0.000112952
0.000106296
9.98929e-05
9.37485e-05
8.78678e-05
8.22529e-05
7.69045e-05
7.1821e-05
6.69994e-05
6.24351e-05
5.81226e-05
5.4055e-05
5.02245e-05
4.66225e-05
4.32402e-05
4.00677e-05
3.70954e-05
3.4313e-05
3.17104e-05
2.92775e-05
2.70042e-05
2.48805e-05
2.28969e-05
2.10439e-05
1.93125e-05
1.76941e-05
1.61803e-05
1.47634e-05
1.34358e-05
1.21907e-05
1.10214e-05
9.92172e-06
8.88611e-06
7.90909e-06
6.98588e-06
6.1118e-06
5.2828e-06
4.4949e-06
3.74469e-06
3.02883e-06
2.34449e-06
1.68885e-06
1.05958e-06
4.54333e-07
-1.28792e-07
-6.91768e-07
-1.23613e-06
-1.76353e-06
-2.27521e-06
-2.77255e-06
-3.25655e-06
-3.72836e-06
-4.1888e-06
-4.63883e-06
-5.07911e-06
-5.51048e-06
-5.93344e-06
-6.34871e-06
-6.75671e-06
-7.15806e-06
-7.5531e-06
-7.94236e-06
-8.32612e-06
-8.70486e-06
-9.0788e-06
-9.44837e-06
-9.81374e-06
-1.01753e-05
-1.05332e-05
-1.08878e-05
-1.12392e-05
-1.15878e-05
-1.19336e-05
-1.22769e-05
-1.26178e-05
-1.29567e-05
-1.32935e-05
-1.36285e-05
-1.39618e-05
-1.42937e-05
-1.46241e-05
-1.49534e-05
-1.52814e-05
-1.56086e-05
-1.59349e-05
-1.62605e-05
-1.65854e-05
-1.691e-05
-1.72341e-05
-1.75579e-05
-1.78816e-05
-1.82053e-05
-1.85289e-05
-1.88528e-05
-1.91769e-05
-1.95014e-05
-1.98262e-05
-2.01517e-05
-2.04778e-05
-2.08046e-05
-2.11323e-05
-2.14609e-05
-2.17904e-05
-2.21212e-05
-2.2453e-05
-2.27862e-05
-2.31208e-05
-2.34569e-05
-2.37944e-05
-2.41337e-05
-2.44747e-05
-2.48175e-05
-2.51623e-05
-2.55091e-05
-2.58579e-05
-2.6209e-05
-2.65623e-05
-2.6918e-05
-2.72762e-05
-2.76369e-05
-2.80002e-05
-2.83663e-05
-2.87352e-05
-2.91072e-05
-2.94821e-05
-2.98605e-05
-3.02423e-05
-3.06282e-05
-3.10188e-05
-3.1415e-05
-3.18212e-05
-3.22256e-05
-3.27396e-05
-3.28402e-05
-3.49984e-05
-3.10021e-05
-3.9724e-05
-3.44056e-05
-3.44056e-05
-0.0951965
0.0951965
0.0129335
0.00381039
0.00190456
0.0011417
0.000680385
0.000357762
0.000151425
4.03759e-05
-9.58465e-06
-2.81493e-05
-3.29595e-05
-3.24356e-05
-3.0216e-05
-2.78147e-05
-2.58025e-05
-2.43135e-05
-2.32957e-05
-2.26389e-05
-2.22357e-05
-2.20003e-05
-2.1873e-05
-2.18128e-05
-2.17945e-05
-2.18012e-05
-2.18236e-05
-2.1855e-05
-2.18922e-05
-2.19326e-05
-2.19753e-05
-2.2019e-05
-2.20637e-05
-2.21088e-05
-2.21544e-05
-2.21999e-05
-2.22459e-05
-2.22918e-05
-2.2338e-05
-2.2384e-05
-2.24304e-05
-2.24766e-05
-2.25232e-05
-2.25696e-05
-2.26164e-05
-2.2663e-05
-2.271e-05
-2.27569e-05
-2.28041e-05
-2.28513e-05
-2.28989e-05
-2.29464e-05
-2.29944e-05
-2.30423e-05
-2.30906e-05
-2.31388e-05
-2.31876e-05
-2.32363e-05
-2.32854e-05
-2.33345e-05
-2.33841e-05
-2.34337e-05
-2.34837e-05
-2.35338e-05
-2.35843e-05
-2.36348e-05
-2.36857e-05
-2.37367e-05
-2.37882e-05
-2.38396e-05
-2.38916e-05
-2.39435e-05
-2.3996e-05
-2.40484e-05
-2.41014e-05
-2.41544e-05
-2.42078e-05
-2.42613e-05
-2.43153e-05
-2.43693e-05
-2.44238e-05
-2.44783e-05
-2.45334e-05
-2.45884e-05
-2.4644e-05
-2.46997e-05
-2.47558e-05
-2.4812e-05
-2.48687e-05
-2.49255e-05
-2.49827e-05
-2.50401e-05
-2.5098e-05
-2.51559e-05
-2.52143e-05
-2.52729e-05
-2.5332e-05
-2.53911e-05
-2.54508e-05
-2.55106e-05
-2.55709e-05
-2.56313e-05
-2.56923e-05
-2.57534e-05
-2.5815e-05
-2.58768e-05
-2.59391e-05
-2.60016e-05
-2.60646e-05
-2.61277e-05
-2.61915e-05
-2.62554e-05
-2.63198e-05
-2.63844e-05
-2.64497e-05
-2.6515e-05
-2.6581e-05
-2.66471e-05
-2.67138e-05
-2.67807e-05
-2.68482e-05
-2.69158e-05
-2.6984e-05
-2.70524e-05
-2.71213e-05
-2.71903e-05
-2.72599e-05
-2.73295e-05
-2.73996e-05
-2.74697e-05
-2.75402e-05
-2.76106e-05
-2.76812e-05
-2.77516e-05
-2.78221e-05
-2.7892e-05
-2.79619e-05
-2.80309e-05
-2.80994e-05
-2.81666e-05
-2.82329e-05
-2.82973e-05
-2.836e-05
-2.84201e-05
-2.84777e-05
-2.85315e-05
-2.85815e-05
-2.86265e-05
-2.8666e-05
-2.86986e-05
-2.87236e-05
-2.87394e-05
-2.87449e-05
-2.8738e-05
-2.87174e-05
-2.86805e-05
-2.86254e-05
-2.85492e-05
-2.84493e-05
-2.8322e-05
-2.81643e-05
-2.79717e-05
-2.77404e-05
-2.74649e-05
-2.71406e-05
-2.67612e-05
-2.6321e-05
-2.58126e-05
-2.52291e-05
-2.45623e-05
-2.3804e-05
-2.29447e-05
-2.19751e-05
-2.08846e-05
-1.96627e-05
-1.82976e-05
-1.67778e-05
-1.50903e-05
-1.32228e-05
-1.11616e-05
-8.89345e-06
-6.40418e-06
-3.68032e-06
-7.07426e-07
2.52786e-06
6.03965e-06
9.84066e-06
1.3944e-05
1.83613e-05
2.31038e-05
2.81812e-05
3.36024e-05
3.93743e-05
4.55025e-05
5.19903e-05
5.88394e-05
6.60485e-05
7.36145e-05
8.1531e-05
8.97895e-05
9.83775e-05
0.000107281
0.00011648
0.000125955
0.000135681
0.000145629
0.000155769
0.000166067
0.000176486
0.000186985
0.000197522
0.000208052
0.00021853
0.000228905
0.00023913
0.000249152
0.000258921
0.000268387
0.000277497
0.000286203
0.000294457
0.000302213
0.000309425
0.000316054
0.000322061
0.000327413
0.000332079
0.000336034
0.000339256
0.000341729
0.000343443
0.00034439
0.00034457
0.000343987
0.000342651
0.000340576
0.000337781
0.000334289
0.000330129
0.000325332
0.000319934
0.000313973
0.00030749
0.00030053
0.000293136
0.000285355
0.000277236
0.000268825
0.00026017
0.000251318
0.000242316
0.000233209
0.000224039
0.000214848
0.000205676
0.000196559
0.000187531
0.000178624
0.000169866
0.000161283
0.000152896
0.000144728
0.000136793
0.000129106
0.000121679
0.000114519
0.000107634
0.000101027
9.47003e-05
8.86536e-05
8.28846e-05
7.73905e-05
7.21657e-05
6.72047e-05
6.24997e-05
5.80433e-05
5.38262e-05
4.98395e-05
4.6073e-05
4.25171e-05
3.91612e-05
3.59954e-05
3.30089e-05
3.01921e-05
2.75345e-05
2.5027e-05
2.26595e-05
2.04234e-05
1.83095e-05
1.63099e-05
1.44162e-05
1.26214e-05
1.09178e-05
9.29915e-06
7.75879e-06
6.29128e-06
4.89064e-06
3.55228e-06
2.27095e-06
1.04277e-06
-1.36838e-07
-1.27111e-06
-2.36401e-06
-3.41821e-06
-4.43715e-06
-5.42302e-06
-6.37879e-06
-7.30622e-06
-8.20789e-06
-9.08523e-06
-9.94048e-06
-1.07747e-05
-1.159e-05
-1.23871e-05
-1.31679e-05
-1.39329e-05
-1.46837e-05
-1.54208e-05
-1.61457e-05
-1.68586e-05
-1.75608e-05
-1.82526e-05
-1.89351e-05
-1.96084e-05
-2.02737e-05
-2.0931e-05
-2.15813e-05
-2.22246e-05
-2.28619e-05
-2.3493e-05
-2.4119e-05
-2.47396e-05
-2.53558e-05
-2.59674e-05
-2.65752e-05
-2.71791e-05
-2.77799e-05
-2.83773e-05
-2.89721e-05
-2.95642e-05
-3.01542e-05
-3.07419e-05
-3.13282e-05
-3.19126e-05
-3.24959e-05
-3.30779e-05
-3.36593e-05
-3.42398e-05
-3.482e-05
-3.53998e-05
-3.59797e-05
-3.65595e-05
-3.71399e-05
-3.77205e-05
-3.83021e-05
-3.88842e-05
-3.94677e-05
-4.00522e-05
-4.06383e-05
-4.12258e-05
-4.18152e-05
-4.24064e-05
-4.29999e-05
-4.35954e-05
-4.41936e-05
-4.47942e-05
-4.53978e-05
-4.60041e-05
-4.66138e-05
-4.72266e-05
-4.78431e-05
-4.8463e-05
-4.90869e-05
-4.97146e-05
-5.03467e-05
-5.09829e-05
-5.16238e-05
-5.22691e-05
-5.29194e-05
-5.35745e-05
-5.42349e-05
-5.49004e-05
-5.55716e-05
-5.62482e-05
-5.69311e-05
-5.762e-05
-5.8316e-05
-5.90195e-05
-5.97323e-05
-6.04562e-05
-6.11952e-05
-6.19641e-05
-6.27252e-05
-6.3858e-05
-6.35767e-05
-7.05099e-05
-5.54935e-05
-8.92985e-05
-6.65203e-05
-6.65203e-05
-0.125265
0.125265
0.024858
0.00827713
0.00422686
0.00254777
0.00152255
0.000808163
0.00035373
0.000109276
-1.57547e-06
-4.36838e-05
-5.53762e-05
-5.50468e-05
-5.07441e-05
-4.58646e-05
-4.17114e-05
-3.86125e-05
-3.64805e-05
-3.5094e-05
-3.42331e-05
-3.37212e-05
-3.34345e-05
-3.32883e-05
-3.32297e-05
-3.32238e-05
-3.32508e-05
-3.32969e-05
-3.33553e-05
-3.34204e-05
-3.34904e-05
-3.35625e-05
-3.36368e-05
-3.37116e-05
-3.37876e-05
-3.38634e-05
-3.39401e-05
-3.40163e-05
-3.40933e-05
-3.41698e-05
-3.42468e-05
-3.43235e-05
-3.44008e-05
-3.44776e-05
-3.45551e-05
-3.46322e-05
-3.47099e-05
-3.47874e-05
-3.48655e-05
-3.49434e-05
-3.5022e-05
-3.51003e-05
-3.51795e-05
-3.52584e-05
-3.53382e-05
-3.54177e-05
-3.54981e-05
-3.55783e-05
-3.56594e-05
-3.57403e-05
-3.58221e-05
-3.59037e-05
-3.59863e-05
-3.60687e-05
-3.6152e-05
-3.62351e-05
-3.63192e-05
-3.64032e-05
-3.64881e-05
-3.65728e-05
-3.66585e-05
-3.67441e-05
-3.68307e-05
-3.69171e-05
-3.70044e-05
-3.70917e-05
-3.71799e-05
-3.7268e-05
-3.7357e-05
-3.7446e-05
-3.75359e-05
-3.76258e-05
-3.77166e-05
-3.78074e-05
-3.78991e-05
-3.79907e-05
-3.80834e-05
-3.8176e-05
-3.82695e-05
-3.8363e-05
-3.84576e-05
-3.8552e-05
-3.86475e-05
-3.8743e-05
-3.88394e-05
-3.89359e-05
-3.90333e-05
-3.91308e-05
-3.92293e-05
-3.93278e-05
-3.94273e-05
-3.95268e-05
-3.96274e-05
-3.9728e-05
-3.98297e-05
-3.99314e-05
-4.00341e-05
-4.01369e-05
-4.02408e-05
-4.03448e-05
-4.04498e-05
-4.05549e-05
-4.06611e-05
-4.07674e-05
-4.08748e-05
-4.09823e-05
-4.10909e-05
-4.11996e-05
-4.13095e-05
-4.14194e-05
-4.15305e-05
-4.16416e-05
-4.17539e-05
-4.18662e-05
-4.19796e-05
-4.20931e-05
-4.22077e-05
-4.23223e-05
-4.24379e-05
-4.25534e-05
-4.26698e-05
-4.27861e-05
-4.29032e-05
-4.302e-05
-4.31374e-05
-4.32543e-05
-4.33716e-05
-4.3488e-05
-4.36043e-05
-4.37195e-05
-4.38341e-05
-4.39468e-05
-4.40584e-05
-4.41673e-05
-4.4274e-05
-4.43771e-05
-4.44767e-05
-4.45712e-05
-4.46607e-05
-4.47432e-05
-4.48185e-05
-4.48844e-05
-4.49403e-05
-4.49836e-05
-4.50135e-05
-4.50267e-05
-4.5022e-05
-4.49957e-05
-4.49457e-05
-4.48678e-05
-4.47593e-05
-4.46151e-05
-4.44318e-05
-4.42033e-05
-4.39254e-05
-4.35909e-05
-4.31945e-05
-4.27282e-05
-4.21853e-05
-4.15566e-05
-4.08344e-05
-4.00081e-05
-3.90688e-05
-3.80046e-05
-3.68053e-05
-3.54579e-05
-3.3951e-05
-3.22705e-05
-3.04038e-05
-2.83359e-05
-2.60536e-05
-2.35411e-05
-2.07846e-05
-1.77682e-05
-1.44781e-05
-1.08985e-05
-7.01619e-06
-2.81616e-06
1.71368e-06
6.58672e-06
1.18132e-05
1.74041e-05
2.3367e-05
2.97098e-05
3.64363e-05
4.35505e-05
5.10518e-05
5.89394e-05
6.72073e-05
7.58491e-05
8.48531e-05
9.42065e-05
0.000103891
0.000113888
0.000124172
0.000134717
0.000145491
0.000156462
0.000167591
0.00017884
0.000190165
0.000201522
0.000212861
0.000224134
0.00023529
0.000246277
0.00025704
0.000267528
0.000277686
0.000287463
0.000296806
0.000305668
0.000313998
0.000321754
0.000328892
0.000335375
0.000341168
0.000346242
0.000350569
0.00035413
0.000356908
0.000358894
0.000360081
0.000360469
0.000360064
0.000358876
0.00035692
0.000354216
0.000350789
0.000346668
0.000341884
0.000336476
0.00033048
0.000323941
0.000316901
0.000309406
0.000301504
0.000293242
0.000284667
0.000275829
0.000266774
0.000257549
0.000248199
0.000238767
0.000229295
0.000219822
0.000210385
0.000201018
0.000191753
0.00018262
0.000173642
0.000164846
0.000156248
0.000147869
0.000139721
0.000131818
0.000124169
0.00011678
0.000109657
0.000102802
9.62167e-05
8.98999e-05
8.38484e-05
7.80595e-05
7.2527e-05
6.7246e-05
6.22083e-05
5.74072e-05
5.28335e-05
4.84794e-05
4.43346e-05
4.0391e-05
3.66381e-05
3.30673e-05
2.96683e-05
2.64328e-05
2.33506e-05
2.04139e-05
1.7613e-05
1.49407e-05
1.23879e-05
9.94812e-06
7.61291e-06
5.37648e-06
3.23124e-06
1.17209e-06
-8.07845e-07
-2.71294e-06
-4.54937e-06
-6.32084e-06
-8.03286e-06
-9.68852e-06
-1.12928e-05
-1.28481e-05
-1.43589e-05
-1.58272e-05
-1.7257e-05
-1.86498e-05
-2.00092e-05
-2.13364e-05
-2.26346e-05
-2.39046e-05
-2.51494e-05
-2.63697e-05
-2.75679e-05
-2.87446e-05
-2.99022e-05
-3.10408e-05
-3.21627e-05
-3.3268e-05
-3.43588e-05
-3.54349e-05
-3.64984e-05
-3.7549e-05
-3.85886e-05
-3.9617e-05
-4.06358e-05
-4.16447e-05
-4.26455e-05
-4.36376e-05
-4.46228e-05
-4.56005e-05
-4.65723e-05
-4.75376e-05
-4.84981e-05
-4.94531e-05
-5.04041e-05
-5.13505e-05
-5.22938e-05
-5.32333e-05
-5.41705e-05
-5.51046e-05
-5.60372e-05
-5.69675e-05
-5.78969e-05
-5.88247e-05
-5.97523e-05
-6.06789e-05
-6.1606e-05
-6.25327e-05
-6.34604e-05
-6.43884e-05
-6.53181e-05
-6.62486e-05
-6.71813e-05
-6.81154e-05
-6.90523e-05
-6.99912e-05
-7.09334e-05
-7.18781e-05
-7.28268e-05
-7.37785e-05
-7.47346e-05
-7.56944e-05
-7.66592e-05
-7.76282e-05
-7.86027e-05
-7.9582e-05
-8.05674e-05
-8.15581e-05
-8.25555e-05
-8.35587e-05
-8.45691e-05
-8.5586e-05
-8.66106e-05
-8.76421e-05
-8.86819e-05
-8.97292e-05
-9.07852e-05
-9.18492e-05
-9.29225e-05
-9.40043e-05
-9.50959e-05
-9.61966e-05
-9.7308e-05
-9.84297e-05
-9.95638e-05
-0.000100711
-0.000101875
-0.000103059
-0.000104273
-0.000105545
-0.000106804
-0.000108812
-0.00010798
-0.000121869
-9.05152e-05
-0.000165297
-0.000112791
-0.000112791
-0.146451
0.146451
0.0381862
0.014106
0.00737676
0.00447399
0.00268053
0.00143206
0.000639833
0.00021276
1.71201e-05
-5.89898e-05
-8.15826e-05
-8.25832e-05
-7.61568e-05
-6.83758e-05
-6.16181e-05
-5.65275e-05
-5.30035e-05
-5.0699e-05
-4.92591e-05
-4.83955e-05
-4.79049e-05
-4.76475e-05
-4.75362e-05
-4.75131e-05
-4.75451e-05
-4.76092e-05
-4.76943e-05
-4.77906e-05
-4.78952e-05
-4.80035e-05
-4.81155e-05
-4.82283e-05
-4.83431e-05
-4.84576e-05
-4.85734e-05
-4.86886e-05
-4.88048e-05
-4.89202e-05
-4.90365e-05
-4.91521e-05
-4.92685e-05
-4.93842e-05
-4.95009e-05
-4.96169e-05
-4.97339e-05
-4.98503e-05
-4.99678e-05
-5.00847e-05
-5.02029e-05
-5.03205e-05
-5.04394e-05
-5.05578e-05
-5.06776e-05
-5.07969e-05
-5.09176e-05
-5.10379e-05
-5.11596e-05
-5.12809e-05
-5.14037e-05
-5.15261e-05
-5.165e-05
-5.17736e-05
-5.18986e-05
-5.20233e-05
-5.21495e-05
-5.22754e-05
-5.24028e-05
-5.25299e-05
-5.26585e-05
-5.27868e-05
-5.29167e-05
-5.30462e-05
-5.31773e-05
-5.33081e-05
-5.34405e-05
-5.35726e-05
-5.37062e-05
-5.38396e-05
-5.39745e-05
-5.41092e-05
-5.42455e-05
-5.43815e-05
-5.45191e-05
-5.46565e-05
-5.47955e-05
-5.49343e-05
-5.50746e-05
-5.52148e-05
-5.53566e-05
-5.54982e-05
-5.56414e-05
-5.57844e-05
-5.59291e-05
-5.60736e-05
-5.62198e-05
-5.63658e-05
-5.65135e-05
-5.6661e-05
-5.68102e-05
-5.69593e-05
-5.71101e-05
-5.72608e-05
-5.74132e-05
-5.75655e-05
-5.77194e-05
-5.78734e-05
-5.8029e-05
-5.81846e-05
-5.8342e-05
-5.84993e-05
-5.86583e-05
-5.88174e-05
-5.89782e-05
-5.91389e-05
-5.93015e-05
-5.94641e-05
-5.96284e-05
-5.97928e-05
-5.99589e-05
-6.0125e-05
-6.0293e-05
-6.04609e-05
-6.06306e-05
-6.08002e-05
-6.09717e-05
-6.1143e-05
-6.1316e-05
-6.14889e-05
-6.16634e-05
-6.18377e-05
-6.20135e-05
-6.21889e-05
-6.23656e-05
-6.25417e-05
-6.27189e-05
-6.28951e-05
-6.30721e-05
-6.32477e-05
-6.34236e-05
-6.35975e-05
-6.37709e-05
-6.39416e-05
-6.41109e-05
-6.42764e-05
-6.44392e-05
-6.45969e-05
-6.47503e-05
-6.48965e-05
-6.50364e-05
-6.51667e-05
-6.52878e-05
-6.53963e-05
-6.5492e-05
-6.5571e-05
-6.56327e-05
-6.56727e-05
-6.56897e-05
-6.56787e-05
-6.56377e-05
-6.55608e-05
-6.54454e-05
-6.52846e-05
-6.50748e-05
-6.48082e-05
-6.448e-05
-6.40814e-05
-6.36065e-05
-6.30452e-05
-6.23904e-05
-6.16308e-05
-6.07578e-05
-5.97589e-05
-5.86244e-05
-5.73403e-05
-5.58957e-05
-5.42756e-05
-5.2468e-05
-5.04566e-05
-4.82287e-05
-4.57675e-05
-4.30595e-05
-4.00876e-05
-3.68382e-05
-3.32944e-05
-2.9443e-05
-2.52678e-05
-2.07568e-05
-1.5895e-05
-1.06724e-05
-5.0764e-06
9.00667e-07
7.26825e-06
1.40304e-05
2.11928e-05
2.8755e-05
3.67178e-05
4.50759e-05
5.38243e-05
6.29518e-05
7.24473e-05
8.22932e-05
9.24718e-05
0.000102959
0.000113729
0.000124752
0.000135996
0.000147423
0.000158996
0.000170671
0.000182404
0.000194148
0.000205853
0.000217468
0.000228942
0.00024022
0.00025125
0.000261976
0.000272347
0.00028231
0.000291814
0.000300809
0.000309251
0.000317095
0.000324301
0.000330831
0.000336656
0.000341744
0.000346075
0.000349628
0.000352391
0.000354354
0.000355517
0.000355878
0.000355448
0.000354237
0.000352263
0.000349547
0.000346116
0.000341998
0.000337229
0.000331843
0.000325881
0.000319384
0.000312398
0.000304964
0.000297132
0.000288946
0.000280455
0.000271702
0.000262737
0.000253601
0.00024434
0.000234994
0.000225602
0.000216203
0.000206831
0.000197518
0.000188296
0.000179189
0.000170224
0.000161422
0.000152802
0.00014438
0.00013617
0.000128183
0.00012043
0.000112914
0.000105644
9.86189e-05
9.18427e-05
8.53128e-05
7.90288e-05
7.29859e-05
6.71815e-05
6.16084e-05
5.62623e-05
5.11347e-05
4.62201e-05
4.15088e-05
3.69946e-05
3.26676e-05
2.85211e-05
2.45449e-05
2.07325e-05
1.70737e-05
1.35623e-05
1.01885e-05
6.94639e-06
3.82674e-06
8.24177e-07
-2.06997e-06
-4.86049e-06
-7.55541e-06
-1.01589e-05
-1.26784e-05
-1.51173e-05
-1.74826e-05
-1.97771e-05
-2.2007e-05
-2.41748e-05
-2.6286e-05
-2.83427e-05
-3.03498e-05
-3.2309e-05
-3.42249e-05
-3.60985e-05
-3.79342e-05
-3.97327e-05
-4.1498e-05
-4.32305e-05
-4.49339e-05
-4.66082e-05
-4.82571e-05
-4.98804e-05
-5.14814e-05
-5.30597e-05
-5.46185e-05
-5.61572e-05
-5.76789e-05
-5.9183e-05
-6.06722e-05
-6.21458e-05
-6.36065e-05