# vtk DataFile Version 2.0
FlowField
ASCII
DATASET STRUCTURED_GRID
DIMENSIONS 400 1 200
POINTS 80000 float
0 0 0
0.08 0 0
0.16 0 0
0.24 0 0
0.32 0 0
0.4 0 0
0.48 0 0
0.56 0 0
0.64 0 0
0.72 0 0
0.8 0 0
0.88 0 0
0.96 0 0
1.04 0 0
1.12 0 0
1.2 0 0
1.28 0 0
1.36 0 0
1.44 0 0
1.52 0 0
1.6 0 0
1.68 0 0
1.76 0 0
1.84 0 0
1.92 0 0
2 0 0
2.08 0 0
2.16 0 0
2.24 0 0
2.32 0 0
2.4 0 0
2.48 0 0
2.56 0 0
2.64 0 0
2.72 0 0
2.8 0 0
2.88 0 0
2.96 0 0
3.04 0 0
3.12 0 0
3.2 0 0
3.28 0 0
3.36 0 0
3.44 0 0
3.52 0 0
3.6 0 0
3.68 0 0
3.76 0 0
3.84 0 0
3.92 0 0
4 0 0
4.08 0 0
4.16 0 0
4.24 0 0
4.32 0 0
4.4 0 0
4.48 0 0
4.56 0 0
4.64 0 0
4.72 0 0
4.8 0 0
4.88 0 0
4.96 0 0
5.04 0 0
5.12 0 0
5.2 0 0
5.28 0 0
5.36 0 0
5.44 0 0
5.52 0 0
5.6 0 0
5.68 0 0
5.76 0 0
5.84 0 0
5.92 0 0
6 0 0
6.08 0 0
6.16 0 0
6.24 0 0
6.32 0 0
6.4 0 0
6.48 0 0
6.56 0 0
6.64 0 0
6.72 0 0
6.8 0 0
6.88 0 0
6.96 0 0
7.04 0 0
7.12 0 0
7.2 0 0
7.28 0 0
7.36 0 0
7.44 0 0
7.52 0 0
7.6 0 0
7.68 0 0
7.76 0 0
7.84 0 0
7.92 0 0
8 0 0
8.08 0 0
8.16 0 0
8.24 0 0
8.32 0 0
8.4 0 0
8.48 0 0
8.56 0 0
8.64 0 0
8.72 0 0
8.8 0 0
8.88 0 0
8.96 0 0
9.04 0 0
9.12 0 0
9.2 0 0
9.28 0 0
9.36 0 0
9.44 0 0
9.52 0 0
9.6 0 0
9.68 0 0
9.76 0 0
9.84 0 0
9.92 0 0
10 0 0
10.08 0 0
10.16 0 0
10.24 0 0
10.32 0 0
10.4 0 0
10.48 0 0
10.56 0 0
10.64 0 0
10.72 0 0
10.8 0 0
10.88 0 0
10.96 0 0
11.04 0 0
11.12 0 0
11.2 0 0
11.28 0 0
11.36 0 0
11.44 0 0
11.52 0 0
11.6 0 0
11.68 0 0
11.76 0 0
11.84 0 0
11.92 0 0
12 0 0
12.08 0 0
12.16 0 0
12.24 0 0
12.32 0 0
12.4 0 0
12.48 0 0
12.56 0 0
12.64 0 0
12.72 0 0
12.8 0 0
12.88 0 0
12.96 0 0
13.04 0 0
13.12 0 0
13.2 0 0
13.28 0 0
13.36 0 0
13.44 0 0
13.52 0 0
13.6 0 0
13.68 0 0
13.76 0 0
13.84 0 0
13.92 0 0
14 0 0
14.08 0 0
14.16 0 0
14.24 0 0
14.32 0 0
14.4 0 0
14.48 0 0
14.56 0 0
14.64 0 0
14.72 0 0
14.8 0 0
14.88 0 0
14.96 0 0
15.04 0 0
15.12 0 0
15.2 0 0
15.28 0 0
15.36 0 0
15.44 0 0
15.52 0 0
15.6 0 0
15.68 0 0
15.76 0 0
15.84 0 0
15.92 0 0
16 0 0
16.08 0 0
16.16 0 0
16.24 0 0
16.32 0 0
16.4 0 0
16.48 0 0
16.56 0 0
16.64 0 0
16.72 0 0
16.8 0 0
16.88 0 0
16.96 0 0
17.04 0 0
17.12 0 0
17.2 0 0
17.28 0 0
17.36 0 0
17.44 0 0
17.52 0 0
17.6 0 0
17.68 0 0
17.76 0 0
17.84 0 0
17.92 0 0
18 0 0
18.08 0 0
18.16 0 0
18.24 0 0
18.32 0 0
18.4 0 0
18.48 0 0
18.56 0 0
18.64 0 0
18.72 0 0
18.8 0 0
18.88 0 0
18.96 0 0
19.04 0 0
19.12 0 0
19.2 0 0
19.28 0 0
19.36 0 0
19.44 0 0
19.52 0 0
19.6 0 0
19.68 0 0
19.76 0 0
19.84 0 0
19.92 0 0
20 0 0
20.08 0 0
20.16 0 0
20.24 0 0
20.32 0 0
20.4 0 0
20.48 0 0
20.56 0 0
20.64 0 0
20.72 0 0
20.8 0 0
20.88 0 0
20.96 0 0
21.04 0 0
21.12 0 0
21.2 0 0
21.28 0 0
21.36 0 0
21.44 0 0
21.52 0 0
21.6 0 0
21.68 0 0
21.76 0 0
21.84 0 0
21.92 0 0
22 0 0
22.08 0 0
22.16 0 0
22.24 0 0
22.32 0 0
22.4 0 0
22.48 0 0
22.56 0 0
22.64 0 0
22.72 0 0
22.8 0 0
22.88 0 0
22.96 0 0
23.04 0 0
23.12 0 0
23.2 0 0
23.28 0 0
23.36 0 0
23.44 0 0
23.52 0 0
23.6 0 0
23.68 0 0
23.76 0 0
23.84 0 0
23.92 0 0
24 0 0
24.08 0 0
24.16 0 0
24.24 0 0
24.32 0 0
24.4 0 0
24.48 0 0
24.56 0 0
24.64 0 0
24.72 0 0
24.8 0 0
24.88 0 0
24.96 0 0
25.04 0 0
25.12 0 0
25.2 0 0
25.28 0 0
25.36 0 0
25.44 0 0
25.52 0 0
25.6 0 0
25.68 0 0
25.76 0 0
25.84 0 0
25.92 0 0
26 0 0
26.08 0 0
26.16 0 0
26.24 0 0
26.32 0 0
26.4 0 0
26.48 0 0
26.56 0 0
26.64 0 0
26.72 0 0
26.8 0 0
26.88 0 0
26.96 0 0
27.04 0 0
27.12 0 0
27.2 0 0
27.28 0 0
27.36 0 0
27.44 0 0
27.52 0 0
27.6 0 0
27.68 0 0
27.76 0 0
27.84 0 0
27.92 0 0
28 0 0
28.08 0 0
28.16 0 0
28.24 0 0
28.32 0 0
28.4 0 0
28.48 0 0
28.56 0 0
28.64 0 0
28.72 0 0
28.8 0 0
28.88 0 0
28.96 0 0
29.04 0 0
29.12 0 0
29.2 0 0
29.28 0 0
29.36 0 0
29.44 0 0
29.52 0 0
29.6 0 0
29.68 0 0
29.76 0 0
29.84 0 0
29.92 0 0
30 0 0
30.08 0 0
30.16 0 0
30.24 0 0
30.32 0 0
30.4 0 0
30.48 0 0
30.56 0 0
30.64 0 0
30.72 0 0
30.8 0 0
30.88 0 0
30.96 0 0
31.04 0 0
31.12 0 0
31.2 0 0
31.28 0 0
31.36 0 0
31.44 0 0
31.52 0 0
31.6 0 0
31.68 0 0
31.76 0 0
31.84 0 0
31.92 0 0
0 0.005 0
0.08 0.005 0
0.16 0.005 0
0.24 0.005 0
0.32 0.005 0
0.4 0.005 0
0.48 0.005 0
0.56 0.005 0
0.64 0.005 0
0.72 0.005 0
0.8 0.005 0
0.88 0.005 0
0.96 0.005 0
1.04 0.005 0
1.12 0.005 0
1.2 0.005 0
1.28 0.005 0
1.36 0.005 0
1.44 0.005 0
1.52 0.005 0
1.6 0.005 0
1.68 0.005 0
1.76 0.005 0
1.84 0.005 0
1.92 0.005 0
2 0.005 0
2.08 0.005 0
2.16 0.005 0
2.24 0.005 0
2.32 0.005 0
2.4 0.005 0
2.48 0.005 0
2.56 0.005 0
2.64 0.005 0
2.72 0.005 0
2.8 0.005 0
2.88 0.005 0
2.96 0.005 0
3.04 0.005 0
3.12 0.005 0
3.2 0.005 0
3.28 0.005 0
3.36 0.005 0
3.44 0.005 0
3.52 0.005 0
3.6 0.005 0
3.68 0.005 0
3.76 0.005 0
3.84 0.005 0
3.92 0.005 0
4 0.005 0
4.08 0.005 0
4.16 0.005 0
4.24 0.005 0
4.32 0.005 0
4.4 0.005 0
4.48 0.005 0
4.56 0.005 0
4.64 0.005 0
4.72 0.005 0
4.8 0.005 0
4.88 0.005 0
4.96 0.005 0
5.04 0.005 0
5.12 0.005 0
5.2 0.005 0
5.28 0.005 0
5.36 0.005 0
5.44 0.005 0
5.52 0.005 0
5.6 0.005 0
5.68 0.005 0
5.76 0.005 0
5.84 0.005 0
5.92 0.005 0
6 0.005 0
6.08 0.005 0
6.16 0.005 0
6.24 0.005 0
6.32 0.005 0
6.4 0.005 0
6.48 0.005 0
6.56 0.005 0
6.64 0.005 0
6.72 0.005 0
6.8 0.005 0
6.88 0.005 0
6.96 0.005 0
7.04 0.005 0
7.12 0.005 0
7.2 0.005 0
7.28 0.005 0
7.36 0.005 0
7.44 0.005 0
7.52 0.005 0
7.6 0.005 0
7.68 0.005 0
7.76 0.005 0
7.84 0.005 0
7.92 0.005 0
8 0.005 0
8.08 0.005 0
8.16 0.005 0
8.24 0.005 0
8.32 0.005 0
8.4 0.005 0
8.48 0.005 0
8.56 0.005 0
8.64 0.005 0
8.72 0.005 0
8.8 0.005 0
8.88 0.005 0
8.96 0.005 0
9.04 0.005 0
9.12 0.005 0
9.2 0.005 0
9.28 0.005 0
9.36 0.005 0
9.44 0.005 0
9.52 0.005 0
9.6 0.005 0
9.68 0.005 0
9.76 0.005 0
9.84 0.005 0
9.92 0.005 0
10 0.005 0
10.08 0.005 0
10.16 0.005 0
10.24 0.005 0
10.32 0.005 0
10.4 0.005 0
10.48 0.005 0
10.56 0.005 0
10.64 0.005 0
10.72 0.005 0
10.8 0.005 0
10.88 0.005 0
10.96 0.005 0
11.04 0.005 0
11.12 0.005 0
11.2 0.005 0
11.28 0.005 0
11.36 0.005 0
11.44 0.005 0
11.52 0.005 0
11.6 0.005 0
11.68 0.005 0
11.76 0.005 0
11.84 0.005 0
11.92 0.005 0
12 0.005 0
12.08 0.005 0
12.16 0.005 0
12.24 0.005 0
12.32 0.005 0
12.4 0.005 0
12.48 0.005 0
12.56 0.005 0
12.64 0.005 0
12.72 0.005 0
12.8 0.005 0
12.88 0.005 0
12.96 0.005 0
13.04 0.005 0
13.12 0.005 0
13.2 0.005 0
13.28 0.005 0
13.36 0.005 0
13.44 0.005 0
13.52 0.005 0
13.6 0.005 0
13.68 0.005 0
13.76 0.005 0
13.84 0.005 0
13.92 0.005 0
14 0.005 0
14.08 0.005 0
14.16 0.005 0
14.24 0.005 0
14.32 0.005 0
14.4 0.005 0
14.48 0.005 0
14.56 0.005 0
14.64 0.005 0
14.72 0.005 0
14.8 0.005 0
14.88 0.005 0
14.96 0.005 0
15.04 0.005 0
15.12 0.005 0
15.2 0.005 0
15.28 0.005 0
15.36 0.005 0
15.44 0.005 0
15.52 0.005 0
15.6 0.005 0
15.68 0.005 0
15.76 0.005 0
15.84 0.005 0
15.92 0.005 0
16 0.005 0
16.08 0.005 0
16.16 0.005 0
16.24 0.005 0
16.32 0.005 0
16.4 0.005 0
16.48 0.005 0
16.56 0.005 0
16.64 0.005 0
16.72 0.005 0
16.8 0.005 0
16.88 0.005 0
16.96 0.005 0
17.04 0.005 0
17.12 0.005 0
17.2 0.005 0
17.28 0.005 0
17.36 0.005 0
17.44 0.005 0
17.52 0.005 0
17.6 0.005 0
17.68 0.005 0
17.76 0.005 0
17.84 0.005 0
17.92 0.005 0
18 0.005 0
18.08 0.005 0
18.16 0.005 0
18.24 0.005 0
18.32 0.005 0
18.4 0.005 0
18.48 0.005 0
18.56 0.005 0
18.64 0.005 0
18.72 0.005 0
18.8 0.005 0
18.88 0.005 0
18.96 0.005 0
19.04 0.005 0
19.12 0.005 0
19.2 0.005 0
19.28 0.005 0
19.36 0.005 0
19.44 0.005 0
19.52 0.005 0
19.6 0.005 0
19.68 0.005 0
19.76 0.005 0
19.84 0.005 0
19.92 0.005 0
20 0.005 0
20.08 0.005 0
20.16 0.005 0
20.24 0.005 0
20.32 0.005 0
20.4 0.005 0
20.48 0.005 0
20.56 0.005 0
20.64 0.005 0
20.72 0.005 0
20.8 0.005 0
20.88 0.005 0
20.96 0.005 0
21.04 0.005 0
21.12 0.005 0
21.2 0.005 0
21.28 0.005 0
21.36 0.005 0
21.44 0.005 0
21.52 0.005 0
21.6 0.005 0
21.68 0.005 0
21.76 0.005 0
21.84 0.005 0
21.92 0.005 0
22 0.005 0
22.08 0.005 0
22.16 0.005 0
22.24 0.005 0
22.32 0.005 0
22.4 0.005 0
22.48 0.005 0
22.56 0.005 0
22.64 0.005 0
22.72 0.005 0
22.8 0.005 0
22.88 0.005 0
22.96 0.005 0
23.04 0.005 0
23.12 0.005 0
23.2 0.005 0
23.28 0.005 0
23.36 0.005 0
23.44 0.005 0
23.52 0.005 0
23.6 0.005 0
23.68 0.005 0
23.76 0.005 0
23.84 0.005 0
23.92 0.005 0
24 0.005 0
24.08 0.005 0
24.16 0.005 0
24.24 0.005 0
24.32 0.005 0
24.4 0.005 0
24.48 0.005 0
24.56 0.005 0
24.64 0.005 0
24.72 0.005 0
24.8 0.005 0
24.88 0.005 0
24.96 0.005 0
25.04 0.005 0
25.12 0.005 0
25.2 0.005 0
25.28 0.005 0
25.36 0.005 0
25.44 0.005 0
25.52 0.005 0
25.6 0.005 0
25.68 0.005 0
25.76 0.005 0
25.84 0.005 0
25.92 0.005 0
26 0.005 0
26.08 0.005 0
26.16 0.005 0
26.24 0.005 0
26.32 0.005 0
26.4 0.005 0
26.48 0.005 0
26.56 0.005 0
26.64 0.005 0
26.72 0.005 0
26.8 0.005 0
26.88 0.005 0
26.96 0.005 0
27.04 0.005 0
27.12 0.005 0
27.2 0.005 0
27.28 0.005 0
27.36 0.005 0
27.44 0.005 0
27.52 0.005 0
27.6 0.005 0
27.68 0.005 0
27.76 0.005 0
27.84 0.005 0
27.92 0.005 0
28 0.005 0
28.08 0.005 0
28.16 0.005 0
28.24 0.005 0
28.32 0.005 0
28.4 0.005 0
28.48 0.005 0
28.56 0.005 0
28.64 0.005 0
28.72 0.005 0
28.8 0.005 0
28.88 0.005 0
28.96 0.005 0
29.04 0.005 0
29.12 0.005 0
29.2 0.005 0
29.28 0.005 0
29.36 0.005 0
29.44 0.005 0
29.52 0.005 0
29.6 0.005 0
29.68 0.005 0
29.76 0.005 0
29.84 0.005 0
29.92 0.005 0
30 0.005 0
30.08 0.005 0
30.16 0.005 0
30.24 0.005 0
30.32 0.005 0
30.4 0.005 0
30.48 0.005 0
30.56 0.005 0
30.64 0.005 0
30.72 0.005 0
30.8 0.005 0
30.88 0.005 0
30.96 0.005 0
31.04 0.005 0
31.12 0.005 0
31.2 0.005 0
31.28 0.005 0
31.36 0.005 0
31.44 0.005 0
31.52 0.005 0
31.6 0.005 0
31.68 0.005 0
31.76 0.005 0
31.84 0.005 0
31.92 0.005 0
0 0.01 0
0.08 0.01 0
0.16 0.01 0
0.24 0.01 0
0.32 0.01 0
0.4 0.01 0
0.48 0.01 0
0.56 0.01 0
0.64 0.01 0
0.72 0.01 0
0.8 0.01 0
0.88 0.01 0
0.96 0.01 0
1.04 0.01 0
1.12 0.01 0
1.2 0.01 0
1.28 0.01 0
1.36 0.01 0
1.44 0.01 0
1.52 0.01 0
1.6 0.01 0
1.68 0.01 0
1.76 0.01 0
1.84 0.01 0
1.92 0.01 0
2 0.01 0
2.08 0.01 0
2.16 0.01 0
2.24 0.01 0
2.32 0.01 0
2.4 0.01 0
2.48 0.01 0
2.56 0.01 0
2.64 0.01 0
2.72 0.01 0
2.8 0.01 0
2.88 0.01 0
2.96 0.01 0
3.04 0.01 0
3.12 0.01 0
3.2 0.01 0
3.28 0.01 0
3.36 0.01 0
3.44 0.01 0
3.52 0.01 0
3.6 0.01 0
3.68 0.01 0
3.76 0.01 0
3.84 0.01 0
3.92 0.01 0
4 0.01 0
4.08 0.01 0
4.16 0.01 0
4.24 0.01 0
4.32 0.01 0
4.4 0.01 0
4.48 0.01 0
4.56 0.01 0
4.64 0.01 0
4.72 0.01 0
4.8 0.01 0
4.88 0.01 0
4.96 0.01 0
5.04 0.01 0
5.12 0.01 0
[...]
POINT_DATA 80000

SCALARS v float 1
LOOKUP_TABLE default
0
0
0
0
0
0
0
0
0
0
0
0
0
0
0
0
0
0
0
0
0
0
0
0
0
0
0
0
0
0
0
0
0
0
0
0
0
0
0
0
0
0
0
0
0
0
0
0
0
0
0
0
0
0
0
0
0
0
0
0
0
0
0
0
0
0
0
0
0
0
0
0
0
0
0
0
0
0
0
0
0
0
0
0
0
0
0
0
0
0
0
0
0
0
0
0
0
0
0
0
0
0
0
0
0
0
0
0
0
0
0
0
0
0
0
0
0
0
0
0
0
0
0
0
0
0
0
0
0
0
0
0
0
0
0
0
0
0
0
0
0
0
0
0
0
0
0
0
0
0
0
0
0
0
0
0
0
0
0
0
0
0
0
0
0
0
0
0
0
0
0
0
0
0
0
0
0
0
0
0
0
0
0
0
0
0
0
0
0
0
0
0
0
0
0
0
0
0
0
0
0
0
0
0
0
0
0
0
0
0
0
0
0
0
0
0
0
0
0
0
0
0
0
0
0
0
0
0
0
0
0
0
0
0
0
0
0
0
0
0
0
0
0
0
0
0
0
0
0
0
0
0
0
0
0
0
0
0
0
0
0
0
0
0
0
0
0
0
0
0
0
0
0
0
0
0
0
0
0
0
0
0
0
0
0
0
0
0
0
0
0
0
0
0
0
0
0
0
0
0
0
0
0
0
0
0
0
0
0
0
0
0
0
0
0
0
0
0
0
0
0
0
0
0
0
0
0
0
0
0
0
0
0
0
0
0
0
0
0
0
0
0
0
0
0
0
0
0
0
0
0
0
0
0
0
0
0
0
0
0
0
0
0
0
0
0
0
0
0
0
0
0
0
0
0
0
0
0
0
0
0
0
0
0
0
0
0
0
0
0
0
0
0
0
0
0
0
0
0
0
-0.0542713
0.0542713
0.00396231
0.000998545
0.000492467
0.000302893
0.0002075
0.000151839
0.000116361
9.23776e-05
7.54248e-05
6.2977e-05
5.35543e-05
4.62683e-05
4.05185e-05
3.58319e-05
3.1853e-05
2.83886e-05
2.53852e-05
2.28135e-05
2.05527e-05
1.83767e-05
1.60608e-05
1.35248e-05
1.08982e-05
8.46076e-06
6.49625e-06
5.15478e-06
4.3974e-06
4.03849e-06
3.84358e-06
3.62234e-06
3.27704e-06
2.80138e-06
2.24825e-06
1.69054e-06
1.19116e-06
7.88221e-07
4.93258e-07
2.97509e-07
1.8091e-07
1.20225e-07
9.45209e-08
8.7795e-08
8.93908e-08
9.3156e-08
9.61354e-08
9.73286e-08
9.67406e-08
9.47753e-08
9.19009e-08
8.85077e-08
8.48678e-08
8.11488e-08
7.74402e-08
7.37821e-08
7.01856e-08
6.6648e-08
6.31598e-08
5.9711e-08
5.62913e-08
5.28928e-08
4.9508e-08
4.61318e-08
4.27595e-08
3.93879e-08
3.60137e-08
3.2635e-08
2.92495e-08
2.58561e-08
2.24528e-08
1.90391e-08
1.56134e-08
1.21754e-08
8.72406e-09
5.25912e-09
1.77966e-09
-1.71429e-09
-5.22349e-09
-8.74781e-09
-1.22879e-08
-1.58436e-08
-1.94155e-08
-2.30032e-08
-2.66073e-08
-3.02276e-08
-3.38644e-08
-3.75176e-08
-4.11875e-08
-4.48739e-08
-4.85772e-08
-5.22971e-08
-5.60342e-08
-5.97881e-08
-6.35593e-08
-6.73475e-08
-7.11532e-08
-7.49761e-08
-7.88168e-08
-8.26749e-08
-8.6551e-08
-9.04448e-08
-9.43569e-08
-9.82869e-08
-1.02235e-07
-1.06202e-07
-1.10188e-07
-1.14192e-07
-1.18215e-07
-1.22257e-07
-1.26319e-07
-1.30399e-07
-1.34499e-07
-1.38619e-07
-1.42759e-07
-1.46918e-07
-1.51098e-07
-1.55298e-07
-1.59519e-07
-1.6376e-07
-1.68023e-07
-1.72306e-07
-1.7661e-07
-1.80936e-07
-1.85283e-07
-1.89652e-07
-1.94043e-07
-1.98457e-07
-2.02892e-07
-2.0735e-07
-2.11831e-07
-2.16335e-07
-2.20862e-07
-2.25412e-07
-2.29986e-07
-2.34584e-07
-2.39206e-07
-2.43852e-07
-2.48522e-07
-2.53218e-07
-2.57938e-07
-2.62683e-07
-2.67454e-07
-2.72251e-07
-2.77074e-07
-2.81922e-07
-2.86798e-07
-2.917e-07
-2.96629e-07
-3.01585e-07
-3.06569e-07
-3.11581e-07
-3.16621e-07
-3.21689e-07
-3.26787e-07
-3.31913e-07
-3.37068e-07
-3.42253e-07
-3.47468e-07
-3.52714e-07
-3.5799e-07
-3.63297e-07
-3.68635e-07
-3.74005e-07
-3.79407e-07
-3.8484e-07
-3.90307e-07
-3.95807e-07
-4.0134e-07
-4.06907e-07
-4.12508e-07
-4.18144e-07
-4.23814e-07
-4.2952e-07
-4.35261e-07
-4.41039e-07
-4.46853e-07
-4.52704e-07
-4.58592e-07
-4.64517e-07
-4.70481e-07
-4.76484e-07
-4.82525e-07
-4.88606e-07
-4.94727e-07
-5.00887e-07
-5.07089e-07
-5.13331e-07
-5.19615e-07
-5.25941e-07
-5.3231e-07
-5.38721e-07
-5.45175e-07
-5.51674e-07
-5.58216e-07
-5.64803e-07
-5.71434e-07
-5.78111e-07
-5.84834e-07
-5.91603e-07
-5.98419e-07
-6.05281e-07
-6.12191e-07
-6.19149e-07
-6.26154e-07
-6.33208e-07
-6.40311e-07
-6.47462e-07
-6.54663e-07
-6.61913e-07
-6.69213e-07
-6.76563e-07
-6.83963e-07
-6.91413e-07
-6.98914e-07
-7.06466e-07
-7.14068e-07
-7.21721e-07
-7.29424e-07
-7.37178e-07
-7.44983e-07
-7.52837e-07
-7.60743e-07
-7.68698e-07
-7.76703e-07
-7.84757e-07
-7.92861e-07
-8.01013e-07
-8.09213e-07
-8.17461e-07
-8.25756e-07
-8.34097e-07
-8.42484e-07
-8.50916e-07
-8.59391e-07
-8.6791e-07
-8.7647e-07
-8.85072e-07
-8.93713e-07
-9.02392e-07
-9.11109e-07
-9.19862e-07
-9.28649e-07
-9.37469e-07
-9.4632e-07
-9.55201e-07
-9.6411e-07
-9.73045e-07
-9.82005e-07
-9.90987e-07
-9.9999e-07
-1.00901e-06
-1.01805e-06
-1.0271e-06
-1.03617e-06
-1.04524e-06
-1.05433e-06
-1.06342e-06
-1.07251e-06
-1.08161e-06
-1.0907e-06
-1.0998e-06
-1.10889e-06
-1.11797e-06
-1.12705e-06
-1.13612e-06
-1.14518e-06
-1.15422e-06
-1.16325e-06
-1.17227e-06
-1.18127e-06
-1.19026e-06
-1.19923e-06
-1.20818e-06
-1.21712e-06
-1.22604e-06
-1.23494e-06
-1.24384e-06
-1.25272e-06
-1.26158e-06
-1.27044e-06
-1.2793e-06
-1.28815e-06
-1.29701e-06
-1.30587e-06
-1.31475e-06
-1.32364e-06
-1.33256e-06
-1.3415e-06
-1.35049e-06
-1.35953e-06
-1.36862e-06
-1.37778e-06
-1.38701e-06
-1.39634e-06
-1.40577e-06
-1.41532e-06
-1.425e-06
-1.43483e-06
-1.44482e-06
-1.45499e-06
-1.46537e-06
-1.47596e-06
-1.4868e-06
-1.4979e-06
-1.50929e-06
-1.52099e-06
-1.53303e-06
-1.54543e-06
-1.55822e-06
-1.57143e-06
-1.58509e-06
-1.59923e-06
-1.61389e-06
-1.6291e-06
-1.64488e-06
-1.66129e-06
-1.67835e-06
-1.6961e-06
-1.71458e-06
-1.73383e-06
-1.7539e-06
-1.77481e-06
-1.79662e-06
-1.81937e-06
-1.8431e-06
-1.86785e-06
-1.89368e-06
-1.92062e-06
-1.94872e-06
-1.97804e-06
-2.0086e-06
-2.04047e-06
-2.07369e-06
-2.1083e-06
-2.14436e-06
-2.1819e-06
-2.22097e-06
-2.26163e-06
-2.30391e-06
-2.34786e-06
-2.39352e-06
-2.44093e-06
-2.49015e-06
-2.54119e-06
-2.59412e-06
-2.64895e-06
-2.70573e-06
-2.7645e-06
-2.82527e-06
-2.88809e-06
-2.95298e-06
-3.01996e-06
-3.08907e-06
-3.1603e-06
-3.2337e-06
-3.30926e-06
-3.38699e-06
-3.46692e-06
-3.54903e-06
-3.63333e-06
-3.71982e-06
-3.80849e-06
-3.89933e-06
-3.99231e-06
-4.08744e-06
-4.18464e-06
-4.28401e-06
-4.38525e-06
-4.48886e-06
-4.59371e-06
-4.70187e-06
-4.80938e-06
-4.92307e-06
-5.03126e-06
-5.1526e-06
-5.25829e-06
-5.39023e-06
-5.49e-06
-5.63457e-06
-5.72712e-06
-5.88314e-06
-5.97061e-06
-6.13393e-06
-6.22028e-06
-6.38579e-06
-6.47619e-06
-6.63561e-06
-6.74114e-06
-6.87942e-06
-7.01438e-06
-7.12304e-06
-7.2853e-06
-7.37311e-06
-7.56885e-06
-7.58234e-06
-7.94249e-06
-7.61315e-06
-7.95773e-06
-7.95773e-06
-0.0952161
0.0952161
0.0129758
0.00385484
0.00193449
0.00119634
0.000821816
0.000602258
0.000461867
0.00036673
0.000299343
0.000249796
0.000212272
0.000183243
0.000160292
0.000141535
0.000125604
0.000111777
9.98258e-05
8.95544e-05
8.04081e-05
7.14951e-05
6.20261e-05
5.1819e-05
4.14723e-05
3.20738e-05
2.4638e-05
1.96227e-05
1.67781e-05
1.53483e-05
1.44487e-05
1.33995e-05
1.18813e-05
9.90922e-06
7.70188e-06
5.5348e-06
3.63386e-06
2.12667e-06
1.04165e-06
3.34564e-07
-7.68111e-08
-2.82802e-07
-3.62508e-07
-3.75177e-07
-3.59547e-07
-3.37533e-07
-3.19354e-07
-3.08214e-07
-3.03796e-07
-3.04459e-07
-3.08408e-07
-3.14188e-07
-3.20798e-07
-3.27632e-07
-3.34371e-07
-3.40872e-07
-3.47103e-07
-3.53076e-07
-3.58827e-07
-3.64396e-07
-3.6982e-07
-3.75131e-07
-3.80354e-07
-3.8551e-07
-3.90616e-07
-3.95684e-07
-4.00726e-07
-4.05749e-07
-4.10763e-07
-4.15771e-07
-4.2078e-07
-4.25793e-07
-4.30815e-07
-4.35848e-07
-4.40895e-07
-4.45956e-07
-4.51036e-07
-4.56135e-07
-4.61253e-07
-4.66392e-07
-4.71554e-07
-4.76736e-07
-4.81942e-07
-4.8717e-07
-4.92422e-07
-4.97696e-07
-5.02995e-07
-5.08315e-07
-5.13661e-07
-5.19029e-07
-5.24421e-07
-5.29836e-07
-5.35276e-07
-5.40738e-07
-5.46226e-07
-5.51736e-07
-5.57272e-07
-5.6283e-07
-5.68414e-07
-5.74022e-07
-5.79655e-07
-5.85312e-07
-5.90995e-07
-5.96702e-07
-6.02436e-07
-6.08194e-07
-6.13979e-07
-6.19789e-07
-6.25627e-07
-6.3149e-07
-6.37381e-07
-6.43297e-07
-6.49242e-07
-6.55214e-07
-6.61213e-07
-6.6724e-07
-6.73296e-07
-6.7938e-07
-6.85493e-07
-6.91634e-07
-6.97805e-07
-7.04005e-07
-7.10235e-07
-7.16494e-07
-7.22785e-07
-7.29105e-07
-7.35456e-07
-7.41838e-07
-7.48252e-07
-7.54697e-07
-7.61174e-07
-7.67683e-07
-7.74225e-07
-7.80799e-07
-7.87407e-07
-7.94047e-07
-8.00722e-07
-8.07431e-07
-8.14174e-07
-8.20951e-07
-8.27764e-07
-8.34612e-07
-8.41496e-07
-8.48415e-07
-8.55372e-07
-8.62365e-07
-8.69395e-07
-8.76463e-07
-8.83569e-07
-8.90712e-07
-8.97895e-07
-9.05116e-07
-9.12378e-07
-9.19678e-07
-9.2702e-07
-9.34402e-07
-9.41826e-07
-9.4929e-07
-9.56798e-07
-9.64347e-07
-9.71939e-07
-9.79575e-07
-9.87255e-07
-9.94979e-07
-1.00275e-06
-1.01056e-06
-1.01842e-06
-1.02633e-06
-1.03428e-06
-1.04228e-06
-1.05033e-06
-1.05843e-06
-1.06658e-06
-1.07477e-06
-1.08302e-06
-1.09132e-06
-1.09966e-06
-1.10806e-06
-1.11652e-06
-1.12502e-06
-1.13358e-06
-1.14219e-06
-1.15086e-06
-1.15959e-06
-1.16837e-06
-1.1772e-06
-1.1861e-06
-1.19505e-06
-1.20406e-06
-1.21313e-06
-1.22226e-06
-1.23145e-06
-1.2407e-06
-1.25001e-06
-1.25939e-06
-1.26882e-06
-1.27833e-06
-1.28789e-06
-1.29753e-06
-1.30722e-06
-1.31699e-06
-1.32682e-06
-1.33672e-06
-1.34669e-06
-1.35672e-06
-1.36683e-06
-1.377e-06
-1.38725e-06
-1.39756e-06
-1.40795e-06
-1.41841e-06
-1.42895e-06
-1.43955e-06
-1.45023e-06
-1.46099e-06
-1.47182e-06
-1.48272e-06
-1.4937e-06
-1.50475e-06
-1.51588e-06
-1.52708e-06
-1.53836e-06
-1.54972e-06
-1.56115e-06
-1.57266e-06
-1.58424e-06
-1.5959e-06
-1.60764e-06
-1.61945e-06
-1.63134e-06
-1.6433e-06
-1.65534e-06
-1.66745e-06
-1.67963e-06
-1.69189e-06
-1.70422e-06
-1.71662e-06
-1.72909e-06
-1.74163e-06
-1.75424e-06
-1.76692e-06
-1.77967e-06
-1.79248e-06
-1.80535e-06
-1.81829e-06
-1.83129e-06
-1.84435e-06
-1.85747e-06
-1.87064e-06
-1.88387e-06
-1.89716e-06
-1.91049e-06
-1.92388e-06
-1.93731e-06
-1.95079e-06
-1.96432e-06
-1.97789e-06
-1.9915e-06
-2.00514e-06
-2.01883e-06
-2.03255e-06
-2.0463e-06
-2.06009e-06
-2.07391e-06
-2.08775e-06
-2.10163e-06
-2.11553e-06
-2.12945e-06
-2.1434e-06
-2.15737e-06
-2.17137e-06
-2.18539e-06
-2.19943e-06
-2.2135e-06
-2.22759e-06
-2.24171e-06
-2.25585e-06
-2.27002e-06
-2.28423e-06
-2.29846e-06
-2.31274e-06
-2.32705e-06
-2.34141e-06
-2.35582e-06
-2.37029e-06
-2.38482e-06
-2.39942e-06
-2.41409e-06
-2.42885e-06
-2.44371e-06
-2.45867e-06
-2.47375e-06
-2.48896e-06
-2.50431e-06
-2.51981e-06
-2.53549e-06
-2.55135e-06
-2.56742e-06
-2.58371e-06
-2.60024e-06
-2.61704e-06
-2.63412e-06
-2.6515e-06
-2.66922e-06
-2.6873e-06
-2.70576e-06
-2.72463e-06
-2.74395e-06
-2.76373e-06
-2.78402e-06
-2.80485e-06
-2.82625e-06
-2.84826e-06
-2.87091e-06
-2.89424e-06
-2.91829e-06
-2.94311e-06
-2.96873e-06
-2.9952e-06
-3.02256e-06
-3.05085e-06
-3.08013e-06
-3.11044e-06
-3.14182e-06
-3.17432e-06
-3.20801e-06
-3.24291e-06
-3.27909e-06
-3.3166e-06
-3.35548e-06
-3.39579e-06
-3.43758e-06
-3.48091e-06
-3.52582e-06
-3.57236e-06
-3.62059e-06
-3.67056e-06
-3.72232e-06
-3.77592e-06
-3.8314e-06
-3.88882e-06
-3.94822e-06
-4.00965e-06
-4.07314e-06
-4.13876e-06
-4.20652e-06
-4.27648e-06
-4.34866e-06
-4.42311e-06
-4.49985e-06
-4.57892e-06
-4.66033e-06
-4.74412e-06
-4.8303e-06
-4.91889e-06
-5.0099e-06
-5.10334e-06
-5.19922e-06
-5.29754e-06
-5.39829e-06
-5.50148e-06
-5.60708e-06
-5.71508e-06
-5.82547e-06
-5.93818e-06
-6.05328e-06
-6.17054e-06
-6.29033e-06
-6.41169e-06
-6.53651e-06
-6.66081e-06
-6.7921e-06
-6.91629e-06
-7.05817e-06
-7.17551e-06
-7.33641e-06
-7.43563e-06
-7.62742e-06
-7.6963e-06
-7.92769e-06
-7.96179e-06
-8.22965e-06
-8.23783e-06
-8.52758e-06
-8.52579e-06
-8.81953e-06
-8.82786e-06
-9.09647e-06
-9.15723e-06
-9.34532e-06
-9.51493e-06
-9.58968e-06
-9.86324e-06
-9.86068e-06
-1.02557e-05
-9.98857e-06
-1.09838e-05
-9.44926e-06
-1.05261e-05
-1.05261e-05
-0.125293
0.125293
0.0249361
0.0083582
0.0042781
0.00266153
0.00183359
0.00134591
0.00103313
0.000820691
0.000669951
0.000558986
0.000474904
0.000409821
0.000358292
0.000316104
0.000280269
0.000249238
0.000222464
0.000199386
0.000178652
0.000158294
0.000136717
0.000113726
9.07744e-05
7.02377e-05
5.41945e-05
4.3452e-05
3.73137e-05
3.40736e-05
3.18389e-05
2.92134e-05
2.55892e-05
2.10578e-05
1.61166e-05
1.13552e-05
7.23877e-06
4.01498e-06
1.72066e-06
2.43307e-07
-6.03717e-07
-1.01838e-06
-1.17064e-06
-1.18593e-06
-1.14515e-06
-1.09338e-06
-1.05116e-06
-1.02452e-06
-1.01234e-06
-1.01092e-06
-1.01638e-06
-1.02561e-06
-1.03651e-06
-1.04781e-06
-1.05886e-06
-1.06936e-06
-1.07926e-06
-1.08859e-06
-1.09742e-06
-1.10584e-06
-1.11394e-06
-1.12177e-06
-1.12939e-06
-1.13685e-06
-1.14419e-06
-1.15142e-06
-1.15858e-06
-1.16568e-06
-1.17274e-06
-1.17977e-06
-1.18679e-06
-1.19379e-06
-1.2008e-06
-1.20781e-06
-1.21483e-06
-1.22186e-06
-1.22892e-06
-1.236e-06
-1.2431e-06
-1.25023e-06
-1.25739e-06
-1.26458e-06
-1.27179e-06
-1.27904e-06
-1.28632e-06
-1.29363e-06
-1.30097e-06
-1.30834e-06
-1.31574e-06
-1.32318e-06
-1.33064e-06
-1.33814e-06
-1.34567e-06
-1.35323e-06
-1.36082e-06
-1.36844e-06
-1.37609e-06
-1.38378e-06
-1.39149e-06
-1.39924e-06
-1.40702e-06
-1.41484e-06
-1.42268e-06
-1.43056e-06
-1.43847e-06
-1.44642e-06
-1.4544e-06
-1.46241e-06
-1.47046e-06
-1.47854e-06
-1.48666e-06
-1.49481e-06
-1.503e-06
-1.51123e-06
-1.51949e-06
-1.52779e-06
-1.53612e-06
-1.54449e-06
-1.5529e-06
-1.56135e-06
-1.56984e-06
-1.57836e-06
-1.58693e-06
-1.59553e-06
-1.60417e-06
-1.61286e-06
-1.62158e-06
-1.63035e-06
-1.63915e-06
-1.648e-06
-1.65689e-06
-1.66582e-06
-1.6748e-06
-1.68381e-06
-1.69288e-06
-1.70198e-06
-1.71113e-06
-1.72033e-06
-1.72957e-06
-1.73885e-06
-1.74819e-06
-1.75756e-06
-1.76699e-06
-1.77646e-06
-1.78599e-06
-1.79556e-06
-1.80517e-06
-1.81484e-06
-1.82456e-06
-1.83433e-06
-1.84415e-06
-1.85402e-06
-1.86394e-06
-1.87392e-06
-1.88395e-06
-1.89403e-06
-1.90417e-06
-1.91436e-06
-1.92461e-06
-1.93491e-06
-1.94527e-06
-1.95568e-06
-1.96616e-06
-1.97669e-06
-1.98729e-06
-1.99794e-06
-2.00865e-06
-2.01942e-06
-2.03026e-06
-2.04115e-06
-2.05212e-06
-2.06314e-06
-2.07423e-06
-2.08538e-06
-2.0966e-06
-2.10789e-06
-2.11924e-06
-2.13067e-06
-2.14216e-06
-2.15372e-06
-2.16535e-06
-2.17705e-06
-2.18883e-06
-2.20068e-06
-2.2126e-06
-2.2246e-06
-2.23667e-06
-2.24882e-06
-2.26105e-06
-2.27335e-06
-2.28574e-06
-2.2982e-06
-2.31075e-06
-2.32337e-06
-2.33608e-06
-2.34887e-06
-2.36175e-06
-2.37471e-06
-2.38776e-06
-2.4009e-06
-2.41412e-06
-2.42743e-06
-2.44083e-06
-2.45433e-06
-2.46791e-06
-2.48159e-06
-2.49536e-06
-2.50922e-06
-2.52318e-06
-2.53724e-06
-2.55139e-06
-2.56564e-06
-2.57999e-06
-2.59443e-06
-2.60898e-06
-2.62362e-06
-2.63837e-06
-2.65322e-06
-2.66818e-06
-2.68323e-06
-2.69839e-06
-2.71365e-06
-2.72902e-06
-2.7445e-06
-2.76007e-06
-2.77576e-06
-2.79155e-06
-2.80744e-06
-2.82345e-06
-2.83956e-06
-2.85577e-06
-2.8721e-06
-2.88853e-06
-2.90506e-06
-2.9217e-06
-2.93845e-06
-2.9553e-06
-2.97226e-06
-2.98933e-06
-3.00649e-06
-3.02376e-06
-3.04114e-06
-3.05861e-06
-3.07619e-06
-3.09387e-06
-3.11164e-06
-3.12952e-06
-3.14749e-06
-3.16556e-06
-3.18372e-06
-3.20198e-06
-3.22033e-06
-3.23877e-06
-3.2573e-06
-3.27591e-06
-3.29462e-06
-3.31341e-06
-3.33228e-06
-3.35124e-06
-3.37027e-06
-3.38939e-06
-3.40859e-06
-3.42786e-06
-3.44721e-06
-3.46664e-06
-3.48614e-06
-3.50571e-06
-3.52536e-06
-3.54508e-06
-3.56487e-06
-3.58474e-06
-3.60468e-06
-3.62469e-06
-3.64478e-06
-3.66494e-06
-3.68519e-06
-3.70551e-06
-3.72591e-06
-3.7464e-06
-3.76698e-06
-3.78765e-06
-3.80841e-06
-3.82928e-06
-3.85026e-06
-3.87135e-06
-3.89256e-06
-3.91391e-06
-3.93539e-06
-3.95702e-06
-3.9788e-06
-4.00076e-06
-4.02289e-06
-4.04522e-06
-4.06776e-06
-4.09052e-06
-4.11352e-06
-4.13678e-06
-4.16031e-06
-4.18414e-06
-4.20828e-06
-4.23276e-06
-4.2576e-06
-4.28283e-06
-4.30846e-06
-4.33454e-06
-4.36107e-06
-4.38811e-06
-4.41567e-06
-4.44378e-06
-4.47249e-06
-4.50182e-06
-4.53182e-06
-4.56251e-06
-4.59394e-06
-4.62615e-06
-4.65918e-06
-4.69306e-06
-4.72785e-06
-4.76359e-06
-4.80033e-06
-4.8381e-06
-4.87696e-06
-4.91695e-06
-4.95813e-06
-5.00055e-06
-5.04425e-06
-5.08928e-06
-5.13571e-06
-5.18357e-06
-5.23292e-06
-5.28382e-06
-5.33632e-06
-5.39046e-06
-5.44631e-06
-5.5039e-06
-5.5633e-06
-5.62456e-06
-5.68771e-06
-5.75283e-06
-5.81994e-06
-5.8891e-06
-5.96035e-06
-6.03374e-06
-6.10931e-06
-6.18709e-06
-6.26713e-06
-6.34947e-06
-6.43412e-06
-6.52113e-06
-6.61053e-06
-6.70233e-06
-6.79656e-06
-6.89323e-06
-6.99237e-06
-7.09398e-06
-7.19806e-06
-7.30463e-06
-7.41367e-06
-7.52519e-06
-7.63916e-06
-7.75558e-06
-7.87443e-06
-7.99567e-06
-8.11929e-06
-8.2452e-06
-8.37352e-06
-8.5038e-06
-8.63689e-06
-8.77079e-06
-8.90948e-06
-9.04474e-06
-9.19227e-06
-9.3227e-06
-9.488e-06
-9.59962e-06
-9.80093e-06
-9.87e-06
-1.01332e-05
-1.01336e-05
-1.04781e-05
-1.04004e-05
-1.08204e-05
-1.06839e-05
-1.11486e-05
-1.09879e-05
-1.14599e-05
-1.13178e-05
-1.17365e-05
-1.17034e-05
-1.19505e-05
-1.21496e-05
-1.21529e-05
-1.25759e-05
-1.24161e-05
-1.30908e-05
-1.23853e-05
-1.43132e-05
-1.09297e-05
-1.31245e-05
-1.31245e-05
-0.146488
0.146488
0.0383106
0.0142342
0.007456
0.00467257
0.00323008
0.00237554
0.00182554
0.00145105
0.00118483
0.000988598
0.000839808
0.000724567
0.000633206
0.000558294
0.000494661
0.000439662
0.000392273
0.000351312
0.000314244
0.000277639
0.000238944
0.000198122
0.000157891
0.000122347
9.48686e-05
7.65646e-05
6.60104e-05
6.01844e-05
5.58772e-05
5.08096e-05
4.40626e-05
3.58795e-05
2.71456e-05
1.88613e-05
1.17875e-05
6.30596e-06
2.44299e-06
-1.92192e-08
-1.41366e-06
-2.08361e-06
-2.31887e-06
-2.33061e-06
-2.25346e-06
-2.16142e-06
-2.08749e-06
-2.04074e-06
-2.01866e-06
-2.0147e-06
-2.02222e-06
-2.03596e-06
-2.05239e-06
-2.06942e-06
-2.08595e-06
-2.10153e-06
-2.11605e-06
-2.12957e-06
-2.14224e-06
-2.1542e-06
-2.16558e-06
-2.1765e-06
-2.18705e-06
-2.1973e-06
-2.20733e-06
-2.21716e-06
-2.22686e-06
-2.23644e-06
-2.24593e-06
-2.25536e-06
-2.26475e-06
-2.27411e-06
-2.28345e-06
-2.29279e-06
-2.30213e-06
-2.31149e-06
-2.32087e-06
-2.33027e-06
-2.3397e-06
-2.34916e-06
-2.35866e-06
-2.36819e-06
-2.37776e-06
-2.38737e-06
-2.39702e-06
-2.4067e-06
-2.41643e-06
-2.4262e-06
-2.43601e-06
-2.44585e-06
-2.45574e-06
-2.46566e-06
-2.47562e-06
-2.48562e-06
-2.49567e-06
-2.50575e-06
-2.51587e-06
-2.52602e-06
-2.53622e-06
-2.54646e-06
-2.55674e-06
-2.56706e-06
-2.57742e-06
-2.58781e-06
-2.59826e-06
-2.60874e-06
-2.61926e-06
-2.62983e-06
-2.64044e-06
-2.65109e-06
-2.66179e-06
-2.67253e-06
-2.68331e-06
-2.69414e-06
-2.70502e-06
-2.71594e-06
-2.7269e-06
-2.73792e-06
-2.74898e-06
-2.76008e-06
-2.77124e-06
-2.78244e-06
-2.7937e-06
-2.805e-06
-2.81635e-06
-2.82775e-06
-2.83921e-06
-2.85071e-06
-2.86227e-06
-2.87387e-06
-2.88554e-06
-2.89725e-06
-2.90902e-06
-2.92083e-06
-2.93271e-06
-2.94464e-06
-2.95663e-06
-2.96867e-06
-2.98077e-06
-2.99292e-06
-3.00514e-06
-3.01741e-06
-3.02974e-06
-3.04213e-06
-3.05458e-06
-3.06709e-06
-3.07966e-06
-3.09229e-06
-3.10499e-06
-3.11774e-06
-3.13057e-06
-3.14345e-06
-3.1564e-06
-3.16942e-06
-3.1825e-06
-3.19565e-06
-3.20887e-06
-3.22216e-06
-3.23551e-06
-3.24894e-06
-3.26243e-06
-3.276e-06
-3.28964e-06
-3.30335e-06
-3.31713e-06
-3.33099e-06
-3.34493e-06
-3.35894e-06
-3.37303e-06
-3.38719e-06
-3.40144e-06
-3.41576e-06
-3.43016e-06
-3.44465e-06
-3.45921e-06
-3.47386e-06
-3.4886e-06
-3.50341e-06
-3.51832e-06
-3.53331e-06
-3.54839e-06
-3.56356e-06
-3.57882e-06
-3.59416e-06
-3.6096e-06
-3.62514e-06
-3.64077e-06
-3.65649e-06
-3.67231e-06
-3.68822e-06
-3.70423e-06
-3.72035e-06
-3.73656e-06
-3.75287e-06
-3.76929e-06
-3.78581e-06
-3.80244e-06
-3.81917e-06
-3.83601e-06
-3.85296e-06
-3.87002e-06
-3.88718e-06
-3.90446e-06
-3.92186e-06
-3.93937e-06
-3.95699e-06
-3.97473e-06
-3.99258e-06
-4.01056e-06
-4.02865e-06
-4.04687e-06
-4.06521e-06
-4.08367e-06
-4.10226e-06
-4.12097e-06
-4.1398e-06
-4.15877e-06
-4.17786e-06
-4.19709e-06
-4.21644e-06
-4.23592e-06
-4.25554e-06
-4.27529e-06
-4.29517e-06
-4.31519e-06
-4.33534e-06
-4.35563e-06
-4.37605e-06
-4.39661e-06
-4.41731e-06
-4.43815e-06
-4.45912e-06
-4.48023e-06
-4.50148e-06
-4.52287e-06
-4.5444e-06
-4.56607e-06
-4.58787e-06
-4.60982e-06
-4.6319e-06
-4.65412e-06
-4.67648e-06
-4.69898e-06
-4.72162e-06
-4.74439e-06
-4.7673e-06
-4.79035e-06
-4.81353e-06
-4.83685e-06
-4.86029e-06
-4.88388e-06
-4.90759e-06
-4.93144e-06
-4.95541e-06
-4.97952e-06
-5.00375e-06
-5.02811e-06
-5.0526e-06
-5.07721e-06
-5.10195e-06
-5.12681e-06
-5.15179e-06
-5.1769e-06
-5.20213e-06
-5.22747e-06
-5.25294e-06
-5.27853e-06
-5.30424e-06
-5.33007e-06
-5.35601e-06
-5.38208e-06
-5.40827e-06
-5.43458e-06
-5.46102e-06
-5.48758e-06
-5.51426e-06
-5.54108e-06
-5.56803e-06
-5.59512e-06
-5.62234e-06
-5.64971e-06
-5.67723e-06
-5.7049e-06
-5.73273e-06
-5.76073e-06
-5.7889e-06
-5.81726e-06
-5.8458e-06
-5.87455e-06
-5.9035e-06
-5.93268e-06
-5.96209e-06
-5.99176e-06
-6.02168e-06
-6.05188e-06
-6.08237e-06
-6.11318e-06
-6.14432e-06
-6.1758e-06
-6.20765e-06
-6.2399e-06
-6.27255e-06