# vtk DataFile Version 2.0
FlowField
ASCII
DATASET STRUCTURED_GRID
DIMENSIONS 400 1 200
POINTS 80000 float
0 0 0
0.08 0 0
0.16 0 0
0.24 0 0
0.32 0 0
0.4 0 0
0.48 0 0
0.56 0 0
0.64 0 0
0.72 0 0
0.8 0 0
0.88 0 0
0.96 0 0
1.04 0 0
1.12 0 0
1.2 0 0
1.28 0 0
1.36 0 0
1.44 0 0
1.52 0 0
1.6 0 0
1.68 0 0
1.76 0 0
1.84 0 0
1.92 0 0
2 0 0
2.08 0 0
2.16 0 0
2.24 0 0
2.32 0 0
2.4 0 0
2.48 0 0
2.56 0 0
2.64 0 0
2.72 0 0
2.8 0 0
2.88 0 0
2.96 0 0
3.04 0 0
3.12 0 0
3.2 0 0
3.28 0 0
3.36 0 0
3.44 0 0
3.52 0 0
3.6 0 0
3.68 0 0
3.76 0 0
3.84 0 0
3.92 0 0
4 0 0
4.08 0 0
4.16 0 0
4.24 0 0
4.32 0 0
4.4 0 0
4.48 0 0
4.56 0 0
4.64 0 0
4.72 0 0
4.8 0 0
4.88 0 0
4.96 0 0
5.04 0 0
5.12 0 0
5.2 0 0
5.28 0 0
5.36 0 0
5.44 0 0
5.52 0 0
5.6 0 0
5.68 0 0
5.76 0 0
5.84 0 0
5.92 0 0
6 0 0
6.08 0 0
6.16 0 0
6.24 0 0
6.32 0 0
6.4 0 0
6.48 0 0
6.56 0 0
6.64 0 0
6.72 0 0
6.8 0 0
6.88 0 0
6.96 0 0
7.04 0 0
7.12 0 0
7.2 0 0
7.28 0 0
7.36 0 0
7.44 0 0
7.52 0 0
7.6 0 0
7.68 0 0
7.76 0 0
7.84 0 0
7.92 0 0
8 0 0
8.08 0 0
8.16 0 0
8.24 0 0
8.32 0 0
8.4 0 0
8.48 0 0
8.56 0 0
8.64 0 0
8.72 0 0
8.8 0 0
8.88 0 0
8.96 0 0
9.04 0 0
9.12 0 0
9.2 0 0
9.28 0 0
9.36 0 0
9.44 0 0
9.52 0 0
9.6 0 0
9.68 0 0
9.76 0 0
9.84 0 0
9.92 0 0
10 0 0
10.08 0 0
10.16 0 0
10.24 0 0
10.32 0 0
10.4 0 0
10.48 0 0
10.56 0 0
10.64 0 0
10.72 0 0
10.8 0 0
10.88 0 0
10.96 0 0
11.04 0 0
11.12 0 0
11.2 0 0
11.28 0 0
11.36 0 0
11.44 0 0
11.52 0 0
11.6 0 0
11.68 0 0
11.76 0 0
11.84 0 0
11.92 0 0
12 0 0
12.08 0 0
12.16 0 0
12.24 0 0
12.32 0 0
12.4 0 0
12.48 0 0
12.56 0 0
12.64 0 0
12.72 0 0
12.8 0 0
12.88 0 0
12.96 0 0
13.04 0 0
13.12 0 0
13.2 0 0
13.28 0 0
13.36 0 0
13.44 0 0
13.52 0 0
13.6 0 0
13.68 0 0
13.76 0 0
13.84 0 0
13.92 0 0
14 0 0
14.08 0 0
14.16 0 0
14.24 0 0
14.32 0 0
14.4 0 0
14.48 0 0
14.56 0 0
14.64 0 0
14.72 0 0
14.8 0 0
14.88 0 0
14.96 0 0
15.04 0 0
15.12 0 0
15.2 0 0
15.28 0 0
15.36 0 0
15.44 0 0
15.52 0 0
15.6 0 0
15.68 0 0
15.76 0 0
15.84 0 0
15.92 0 0
16 0 0
16.08 0 0
16.16 0 0
16.24 0 0
16.32 0 0
16.4 0 0
16.48 0 0
16.56 0 0
16.64 0 0
16.72 0 0
16.8 0 0
16.88 0 0
16.96 0 0
17.04 0 0
17.12 0 0
17.2 0 0
17.28 0 0
17.36 0 0
17.44 0 0
17.52 0 0
17.6 0 0
17.68 0 0
17.76 0 0
17.84 0 0
17.92 0 0
18 0 0
18.08 0 0
18.16 0 0
18.24 0 0
18.32 0 0
18.4 0 0
18.48 0 0
18.56 0 0
18.64 0 0
18.72 0 0
18.8 0 0
18.88 0 0
18.96 0 0
19.04 0 0
19.12 0 0
19.2 0 0
19.28 0 0
19.36 0 0
19.44 0 0
19.52 0 0
19.6 0 0
19.68 0 0
19.76 0 0
19.84 0 0
19.92 0 0
20 0 0
20.08 0 0
20.16 0 0
20.24 0 0
20.32 0 0
20.4 0 0
20.48 0 0
20.56 0 0
20.64 0 0
20.72 0 0
20.8 0 0
20.88 0 0
20.96 0 0
21.04 0 0
21.12 0 0
21.2 0 0
21.28 0 0
21.36 0 0
21.44 0 0
21.52 0 0
21.6 0 0
21.68 0 0
21.76 0 0
21.84 0 0
21.92 0 0
22 0 0
22.08 0 0
22.16 0 0
22.24 0 0
22.32 0 0
22.4 0 0
22.48 0 0
22.56 0 0
22.64 0 0
22.72 0 0
22.8 0 0
22.88 0 0
22.96 0 0
23.04 0 0
23.12 0 0
23.2 0 0
23.28 0 0
23.36 0 0
23.44 0 0
23.52 0 0
23.6 0 0
23.68 0 0
23.76 0 0
23.84 0 0
23.92 0 0
24 0 0
24.08 0 0
24.16 0 0
24.24 0 0
24.32 0 0
24.4 0 0
24.48 0 0
24.56 0 0
24.64 0 0
24.72 0 0
24.8 0 0
24.88 0 0
24.96 0 0
25.04 0 0
25.12 0 0
25.2 0 0
25.28 0 0
25.36 0 0
25.44 0 0
25.52 0 0
25.6 0 0
25.68 0 0
25.76 0 0
25.84 0 0
25.92 0 0
26 0 0
26.08 0 0
26.16 0 0
26.24 0 0
26.32 0 0
26.4 0 0
26.48 0 0
26.56 0 0
26.64 0 0
26.72 0 0
26.8 0 0
26.88 0 0
26.96 0 0
27.04 0 0
27.12 0 0
27.2 0 0
27.28 0 0
27.36 0 0
27.44 0 0
27.52 0 0
27.6 0 0
27.68 0 0
27.76 0 0
27.84 0 0
27.92 0 0
28 0 0
28.08 0 0
28.16 0 0
28.24 0 0
28.32 0 0
28.4 0 0
28.48 0 0
28.56 0 0
28.64 0 0
28.72 0 0
28.8 0 0
28.88 0 0
28.96 0 0
29.04 0 0
29.12 0 0
29.2 0 0
29.28 0 0
29.36 0 0
29.44 0 0
29.52 0 0
29.6 0 0
29.68 0 0
29.76 0 0
29.84 0 0
29.92 0 0
30 0 0
30.08 0 0
30.16 0 0
30.24 0 0
30.32 0 0
30.4 0 0
30.48 0 0
30.56 0 0
30.64 0 0
30.72 0 0
30.8 0 0
30.88 0 0
30.96 0 0
31.04 0 0
31.12 0 0
31.2 0 0
31.28 0 0
31.36 0 0
31.44 0 0
31.52 0 0
31.6 0 0
31.68 0 0
31.76 0 0
31.84 0 0
31.92 0 0
0 0.005 0
0.08 0.005 0
0.16 0.005 0
0.24 0.005 0
0.32 0.005 0
0.4 0.005 0
0.48 0.005 0
0.56 0.005 0
0.64 0.005 0
0.72 0.005 0
0.8 0.005 0
0.88 0.005 0
0.96 0.005 0
1.04 0.005 0
1.12 0.005 0
1.2 0.005 0
1.28 0.005 0
1.36 0.005 0
1.44 0.005 0
1.52 0.005 0
1.6 0.005 0
1.68 0.005 0
1.76 0.005 0
1.84 0.005 0
1.92 0.005 0
2 0.005 0
2.08 0.005 0
2.16 0.005 0
2.24 0.005 0
2.32 0.005 0
2.4 0.005 0
2.48 0.005 0
2.56 0.005 0
2.64 0.005 0
2.72 0.005 0
2.8 0.005 0
2.88 0.005 0
2.96 0.005 0
3.04 0.005 0
3.12 0.005 0
3.2 0.005 0
3.28 0.005 0
3.36 0.005 0
3.44 0.005 0
3.52 0.005 0
3.6 0.005 0
3.68 0.005 0
3.76 0.005 0
3.84 0.005 0
3.92 0.005 0
4 0.005 0
4.08 0.005 0
4.16 0.005 0
4.24 0.005 0
4.32 0.005 0
4.4 0.005 0
4.48 0.005 0
4.56 0.005 0
4.64 0.005 0
4.72 0.005 0
4.8 0.005 0
4.88 0.005 0
4.96 0.005 0
5.04 0.005 0
5.12 0.005 0
5.2 0.005 0
5.28 0.005 0
5.36 0.005 0
5.44 0.005 0
5.52 0.005 0
5.6 0.005 0
5.68 0.005 0
5.76 0.005 0
5.84 0.005 0
5.92 0.005 0
6 0.005 0
6.08 0.005 0
6.16 0.005 0
6.24 0.005 0
6.32 0.005 0
6.4 0.005 0
6.48 0.005 0
6.56 0.005 0
6.64 0.005 0
6.72 0.005 0
6.8 0.005 0
6.88 0.005 0
6.96 0.005 0
7.04 0.005 0
7.12 0.005 0
7.2 0.005 0
7.28 0.005 0
7.36 0.005 0
7.44 0.005 0
7.52 0.005 0
7.6 0.005 0
7.68 0.005 0
7.76 0.005 0
7.84 0.005 0
7.92 0.005 0
8 0.005 0
8.08 0.005 0
8.16 0.005 0
8.24 0.005 0
8.32 0.005 0
8.4 0.005 0
8.48 0.005 0
8.56 0.005 0
8.64 0.005 0
8.72 0.005 0
8.8 0.005 0
8.88 0.005 0
8.96 0.005 0
9.04 0.005 0
9.12 0.005 0
9.2 0.005 0
9.28 0.005 0
9.36 0.005 0
9.44 0.005 0
9.52 0.005 0
9.6 0.005 0
9.68 0.005 0
9.76 0.005 0
9.84 0.005 0
9.92 0.005 0
10 0.005 0
10.08 0.005 0
10.16 0.005 0
10.24 0.005 0
10.32 0.005 0
10.4 0.005 0
10.48 0.005 0
10.56 0.005 0
10.64 0.005 0
10.72 0.005 0
10.8 0.005 0
10.88 0.005 0
10.96 0.005 0
11.04 0.005 0
11.12 0.005 0
11.2 0.005 0
11.28 0.005 0
11.36 0.005 0
11.44 0.005 0
11.52 0.005 0
11.6 0.005 0
11.68 0.005 0
11.76 0.005 0
11.84 0.005 0
11.92 0.005 0
12 0.005 0
12.08 0.005 0
12.16 0.005 0
12.24 0.005 0
12.32 0.005 0
12.4 0.005 0
12.48 0.005 0
12.56 0.005 0
12.64 0.005 0
12.72 0.005 0
12.8 0.005 0
12.88 0.005 0
12.96 0.005 0
13.04 0.005 0
13.12 0.005 0
13.2 0.005 0
13.28 0.005 0
13.36 0.005 0
13.44 0.005 0
13.52 0.005 0
13.6 0.005 0
13.68 0.005 0
13.76 0.005 0
13.84 0.005 0
13.92 0.005 0
14 0.005 0
14.08 0.005 0
14.16 0.005 0
14.24 0.005 0
14.32 0.005 0
14.4 0.005 0
14.48 0.005 0
14.56 0.005 0
14.64 0.005 0
14.72 0.005 0
14.8 0.005 0
14.88 0.005 0
14.96 0.005 0
15.04 0.005 0
15.12 0.005 0
15.2 0.005 0
15.28 0.005 0
15.36 0.005 0
15.44 0.005 0
15.52 0.005 0
15.6 0.005 0
15.68 0.005 0
15.76 0.005 0
15.84 0.005 0
15.92 0.005 0
16 0.005 0
16.08 0.005 0
16.16 0.005 0
16.24 0.005 0
16.32 0.005 0
16.4 0.005 0
16.48 0.005 0
16.56 0.005 0
16.64 0.005 0
16.72 0.005 0
16.8 0.005 0
16.88 0.005 0
16.96 0.005 0
17.04 0.005 0
17.12 0.005 0
17.2 0.005 0
17.28 0.005 0
17.36 0.005 0
17.44 0.005 0
17.52 0.005 0
17.6 0.005 0
17.68 0.005 0
17.76 0.005 0
17.84 0.005 0
17.92 0.005 0
18 0.005 0
18.08 0.005 0
18.16 0.005 0
18.24 0.005 0
18.32 0.005 0
18.4 0.005 0
18.48 0.005 0
18.56 0.005 0
18.64 0.005 0
18.72 0.005 0
18.8 0.005 0
18.88 0.005 0
18.96 0.005 0
19.04 0.005 0
19.12 0.005 0
19.2 0.005 0
19.28 0.005 0
19.36 0.005 0
19.44 0.005 0
19.52 0.005 0
19.6 0.005 0
19.68 0.005 0
19.76 0.005 0
19.84 0.005 0
19.92 0.005 0
20 0.005 0
20.08 0.005 0
20.16 0.005 0
20.24 0.005 0
20.32 0.005 0
20.4 0.005 0
20.48 0.005 0
20.56 0.005 0
20.64 0.005 0
20.72 0.005 0
20.8 0.005 0
20.88 0.005 0
20.96 0.005 0
21.04 0.005 0
21.12 0.005 0
21.2 0.005 0
21.28 0.005 0
21.36 0.005 0
21.44 0.005 0
21.52 0.005 0
21.6 0.005 0
21.68 0.005 0
21.76 0.005 0
21.84 0.005 0
21.92 0.005 0
22 0.005 0
22.08 0.005 0
22.16 0.005 0
22.24 0.005 0
22.32 0.005 0
22.4 0.005 0
22.48 0.005 0
22.56 0.005 0
22.64 0.005 0
22.72 0.005 0
22.8 0.005 0
22.88 0.005 0
22.96 0.005 0
23.04 0.005 0
23.12 0.005 0
23.2 0.005 0
23.28 0.005 0
23.36 0.005 0
23.44 0.005 0
23.52 0.005 0
23.6 0.005 0
23.68 0.005 0
23.76 0.005 0
23.84 0.005 0
23.92 0.005 0
24 0.005 0
24.08 0.005 0
24.16 0.005 0
24.24 0.005 0
24.32 0.005 0
24.4 0.005 0
24.48 0.005 0
24.56 0.005 0
24.64 0.005 0
24.72 0.005 0
24.8 0.005 0
24.88 0.005 0
24.96 0.005 0
25.04 0.005 0
25.12 0.005 0
25.2 0.005 0
25.28 0.005 0
25.36 0.005 0
25.44 0.005 0
25.52 0.005 0
25.6 0.005 0
25.68 0.005 0
25.76 0.005 0
25.84 0.005 0
25.92 0.005 0
26 0.005 0
26.08 0.005 0
26.16 0.005 0
26.24 0.005 0
26.32 0.005 0
26.4 0.005 0
26.48 0.005 0
26.56 0.005 0
26.64 0.005 0
26.72 0.005 0
26.8 0.005 0
26.88 0.005 0
26.96 0.005 0
27.04 0.005 0
27.12 0.005 0
27.2 0.005 0
27.28 0.005 0
27.36 0.005 0
27.44 0.005 0
27.52 0.005 0
27.6 0.005 0
27.68 0.005 0
27.76 0.005 0
27.84 0.005 0
27.92 0.005 0
28 0.005 0
28.08 0.005 0
28.16 0.005 0
28.24 0.005 0
28.32 0.005 0
28.4 0.005 0
28.48 0.005 0
28.56 0.005 0
28.64 0.005 0
28.72 0.005 0
28.8 0.005 0
28.88 0.005 0
28.96 0.005 0
29.04 0.005 0
29.12 0.005 0
29.2 0.005 0
29.28 0.005 0
29.36 0.005 0
29.44 0.005 0
29.52 0.005 0
29.6 0.005 0
29.68 0.005 0
29.76 0.005 0
29.84 0.005 0
29.92 0.005 0
30 0.005 0
30.08 0.005 0
30.16 0.005 0
30.24 0.005 0
30.32 0.005 0
30.4 0.005 0
30.48 0.005 0
30.56 0.005 0
30.64 0.005 0
30.72 0.005 0
30.8 0.005 0
30.88 0.005 0
30.96 0.005 0
31.04 0.005 0
31.12 0.005 0
31.2 0.005 0
31.28 0.005 0
31.36 0.005 0
31.44 0.005 0
31.52 0.005 0
31.6 0.005 0
31.68 0.005 0
31.76 0.005 0
31.84 0.005 0
31.92 0.005 0
0 0.01 0
0.08 0.01 0
0.16 0.01 0
0.24 0.01 0
0.32 0.01 0
0.4 0.01 0
0.48 0.01 0
0.56 0.01 0
0.64 0.01 0
0.72 0.01 0
0.8 0.01 0
0.88 0.01 0
0.96 0.01 0
1.04 0.01 0
1.12 0.01 0
1.2 0.01 0
1.28 0.01 0
1.36 0.01 0
1.44 0.01 0
1.52 0.01 0
1.6 0.01 0
1.68 0.01 0
1.76 0.01 0
1.84 0.01 0
1.92 0.01 0
2 0.01 0
2.08 0.01 0
2.16 0.01 0
2.24 0.01 0
2.32 0.01 0
2.4 0.01 0
2.48 0.01 0
2.56 0.01 0
2.64 0.01 0
2.72 0.01 0
2.8 0.01 0
2.88 0.01 0
2.96 0.01 0
3.04 0.01 0
3.12 0.01 0
3.2 0.01 0
3.28 0.01 0
3.36 0.01 0
3.44 0.01 0
3.52 0.01 0
3.6 0.01 0
3.68 0.01 0
3.76 0.01 0
3.84 0.01 0
3.92 0.01 0
4 0.01 0
4.08 0.01 0
4.16 0.01 0
4.24 0.01 0
4.32 0.01 0
4.4 0.01 0
4.48 0.01 0
4.56 0.01 0
4.64 0.01 0
4.72 0.01 0
4.8 0.01 0
4.88 0.01 0
4.96 0.01 0
5.04 0.01 0
5.12 0.01 0
[...]
POINT_DATA 80000

SCALARS p float 1
LOOKUP_TABLE default
1
57.055
56.7533
56.7121
56.692
56.6776
56.6656
56.6549
56.6448
56.6353
56.6262
56.6173
56.6087
56.6003
56.5921
56.5841
56.5763
56.5688
56.5614
56.5541
56.5471
56.5403
56.5337
56.5274
56.5214
56.5156
56.5101
56.5046
56.4992
56.4939
56.4885
56.4832
56.4779
56.4727
56.4677
56.4627
56.4578
56.453
56.4482
56.4435
56.4388
56.4341
56.4294
56.4247
56.42
56.4153
56.4106
56.4059
56.4012
56.3965
56.3918
56.3871
56.3824
56.3777
56.3729
56.3682
56.3635
56.3588
56.3541
56.3494
56.3447
56.34
56.3352
56.3305
56.3258
56.3211
56.3164
56.3116
56.3069
56.3022
56.2975
56.2927
56.288
56.2833
56.2786
56.2738
56.2691
56.2644
56.2596
56.2549
56.2502
56.2454
56.2407
56.236
56.2312
56.2265
56.2217
56.217
56.2123
56.2075
56.2028
56.198
56.1933
56.1885
56.1838
56.179
56.1743
56.1695
56.1648
56.16
56.1553
56.1505
56.1457
56.141
56.1362
56.1315
56.1267
56.1219
56.1172
56.1124
56.1077
56.1029
56.0981
56.0934
56.0886
56.0838
56.079
56.0743
56.0695
56.0647
56.0599
56.0552
56.0504
56.0456
56.0408
56.036
56.0312
56.0265
56.0217
56.0169
56.0121
56.0073
56.0025
55.9977
55.9929
55.9881
55.9833
55.9785
55.9737
55.9689
55.9641
55.9593
55.9545
55.9497
55.9449
55.9401
55.9353
55.9305
55.9257
55.9209
55.9161
55.9112
55.9064
55.9016
55.8968
55.892
55.8871
55.8823
55.8775
55.8727
55.8678
55.863
55.8582
55.8533
55.8485
55.8437
55.8388
55.834
55.8291
55.8243
55.8195
55.8146
55.8098
55.8049
55.8001
55.7952
55.7904
55.7855
55.7806
55.7758
55.7709
55.7661
55.7612
55.7563
55.7515
55.7466
55.7417
55.7369
55.732
55.7271
55.7222
55.7174
55.7125
55.7076
55.7027
55.6978
55.6929
55.688
55.6831
55.6783
55.6734
55.6685
55.6636
55.6587
55.6538
55.6488
55.6439
55.639
55.6341
55.6292
55.6243
55.6194
55.6144
55.6095
55.6046
55.5997
55.5947
55.5898
55.5849
55.5799
55.575
55.5701
55.5651
55.5602
55.5552
55.5503
55.5453
55.5404
55.5354
55.5304
55.5255
55.5205
55.5155
55.5106
55.5056
55.5006
55.4956
55.4907
55.4857
55.4807
55.4757
55.4707
55.4657
55.4607
55.4557
55.4507
55.4457
55.4407
55.4356
55.4306
55.4256
55.4206
55.4155
55.4105
55.4054
55.4004
55.3953
55.3903
55.3852
55.3802
55.3751
55.37
55.365
55.3599
55.3548
55.3497
55.3446
55.3395
55.3344
55.3293
55.3242
55.319
55.3139
55.3088
55.3036
55.2985
55.2933
55.2882
55.283
55.2778
55.2726
55.2674
55.2622
55.257
55.2518
55.2466
55.2414
55.2361
55.2309
55.2256
55.2204
55.2151
55.2098
55.2045
55.1992
55.1939
55.1886
55.1833
55.1779
55.1726
55.1672
55.1619
55.1565
55.1511
55.1457
55.1402
55.1348
55.1294
55.1239
55.1184
55.1129
55.1074
55.1019
55.0964
55.0909
55.0853
55.0797
55.0741
55.0685
55.0629
55.0573
55.0516
55.046
55.0403
55.0346
55.0289
55.0231
55.0174
55.0116
55.0058
55
54.9942
54.9883
54.9825
54.9766
54.9707
54.9647
54.9588
54.9528
54.9468
54.9408
54.9347
54.9287
54.9226
54.9165
54.9103
54.9042
54.898
54.8918
54.8855
54.8793
54.873
54.8667
54.8603
54.854
54.8476
54.8412
54.8347
54.8282
54.8217
54.8152
54.8086
54.802
54.7954
54.7887
54.782
54.7753
54.7685
54.7617
54.7549
54.748
54.7411
54.7342
54.7273
54.7203
54.7132
54.7062
54.6991
54.6919
54.6848
54.6775
54.6703
54.663
54.6557
54.6484
54.641
54.6335
54.6261
54.6186
54.611
54.6035
54.5959
54.5882
54.5805
54.5728
54.5651
54.5573
54.5495
54.5416
0.5
57.055
57.055
56.7533
56.7121
56.692
56.6776
56.6656
56.6549
56.6448
56.6353
56.6262
56.6173
56.6087
56.6003
56.5921
56.5841
56.5763
56.5688
56.5614
56.5541
56.5471
56.5403
56.5337
56.5274
56.5214
56.5156
56.5101
56.5046
56.4992
56.4939
56.4885
56.4832
56.4779
56.4727
56.4677
56.4627
56.4578
56.453
56.4482
56.4435
56.4388
56.4341
56.4294
56.4247
56.42
56.4153
56.4106
56.4059
56.4012
56.3965
56.3918
56.3871
56.3824
56.3777
56.3729
56.3682
56.3635
56.3588
56.3541
56.3494
56.3447
56.34
56.3352
56.3305
56.3258
56.3211
56.3164
56.3116
56.3069
56.3022
56.2975
56.2927
56.288
56.2833
56.2786
56.2738
56.2691
56.2644
56.2596
56.2549
56.2502
56.2454
56.2407
56.236
56.2312
56.2265
56.2217
56.217
56.2123
56.2075
56.2028
56.198
56.1933
56.1885
56.1838
56.179
56.1743
56.1695
56.1648
56.16
56.1553
56.1505
56.1457
56.141
56.1362
56.1315
56.1267
56.1219
56.1172
56.1124
56.1077
56.1029
56.0981
56.0934
56.0886
56.0838
56.079
56.0743
56.0695
56.0647
56.0599
56.0552
56.0504
56.0456
56.0408
56.036
56.0312
56.0265
56.0217
56.0169
56.0121
56.0073
56.0025
55.9977
55.9929
55.9881
55.9833
55.9785
55.9737
55.9689
55.9641
55.9593
55.9545
55.9497
55.9449
55.9401
55.9353
55.9305
55.9257
55.9209
55.9161
55.9112
55.9064
55.9016
55.8968
55.892
55.8871
55.8823
55.8775
55.8727
55.8678
55.863
55.8582
55.8533
55.8485
55.8437
55.8388
55.834
55.8291
55.8243
55.8195
55.8146
55.8098
55.8049
55.8001
55.7952
55.7904
55.7855
55.7806
55.7758
55.7709
55.7661
55.7612
55.7563
55.7515
55.7466
55.7417
55.7369
55.732
55.7271
55.7222
55.7174
55.7125
55.7076
55.7027
55.6978
55.6929
55.688
55.6831
55.6783
55.6734
55.6685
55.6636
55.6587
55.6538
55.6488
55.6439
55.639
55.6341
55.6292
55.6243
55.6194
55.6144
55.6095
55.6046
55.5997
55.5947
55.5898
55.5849
55.5799
55.575
55.5701
55.5651
55.5602
55.5552
55.5503
55.5453
55.5404
55.5354
55.5304
55.5255
55.5205
55.5155
55.5106
55.5056
55.5006
55.4956
55.4907
55.4857
55.4807
55.4757
55.4707
55.4657
55.4607
55.4557
55.4507
55.4457
55.4407
55.4356
55.4306
55.4256
55.4206
55.4155
55.4105
55.4054
55.4004
55.3953
55.3903
55.3852
55.3802
55.3751
55.37
55.365
55.3599
55.3548
55.3497
55.3446
55.3395
55.3344
55.3293
55.3242
55.319
55.3139
55.3088
55.3036
55.2985
55.2933
55.2882
55.283
55.2778
55.2726
55.2674
55.2622
55.257
55.2518
55.2466
55.2414
55.2361
55.2309
55.2256
55.2204
55.2151
55.2098
55.2045
55.1992
55.1939
55.1886
55.1833
55.1779
55.1726
55.1672
55.1619
55.1565
55.1511
55.1457
55.1402
55.1348
55.1294
55.1239
55.1184
55.1129
55.1074
55.1019
55.0964
55.0909
55.0853
55.0797
55.0741
55.0685
55.0629
55.0573
55.0516
55.046
55.0403
55.0346
55.0289
55.0231
55.0174
55.0116
55.0058
55
54.9942
54.9883
54.9825
54.9766
54.9707
54.9647
54.9588
54.9528
54.9468
54.9408
54.9347
54.9287
54.9226
54.9165
54.9103
54.9042
54.898
54.8918
54.8855
54.8793
54.873
54.8667
54.8603
54.854
54.8476
54.8412
54.8347
54.8282
54.8217
54.8152
54.8086
54.802
54.7954
54.7887
54.782
54.7753
54.7685
54.7617
54.7549
54.748
54.7411
54.7342
54.7273
54.7203
54.7132
54.7062
54.6991
54.6919
54.6848
54.6775
54.6703
54.663
54.6557
54.6484
54.641
54.6335
54.6261
54.6186
54.611
54.6035
54.5959
54.5882
54.5805
54.5728
54.5651
54.5573
54.5495
54.5416
54.5416
57.0404
57.0404
56.7571
56.7134
56.6927
56.678
56.6659
56.6551
56.645
56.6355
56.6263
56.6174
56.6088
56.6004
56.5922
56.5842
56.5764
56.5688
56.5614
56.5542
56.5471
56.5403
56.5337
56.5274
56.5214
56.5156
56.5101
56.5046
56.4992
56.4939
56.4885
56.4832
56.4779
56.4727
56.4677
56.4627
56.4578
56.453
56.4482
56.4435
56.4388
56.4341
56.4294
56.4247
56.42
56.4153
56.4106
56.4059
56.4012
56.3965
56.3918
56.3871
56.3824
56.3777
56.3729
56.3682
56.3635
56.3588
56.3541
56.3494
56.3447
56.34
56.3352
56.3305
56.3258
56.3211
56.3164
56.3116
56.3069
56.3022
56.2975
56.2927
56.288
56.2833
56.2786
56.2738
56.2691
56.2644
56.2596
56.2549
56.2502
56.2454
56.2407
56.236
56.2312
56.2265
56.2217
56.217
56.2123
56.2075
56.2028
56.198
56.1933
56.1885
56.1838
56.179
56.1743
56.1695
56.1648
56.16
56.1553
56.1505
56.1457
56.141
56.1362
56.1315
56.1267
56.1219
56.1172
56.1124
56.1077
56.1029
56.0981
56.0934
56.0886
56.0838
56.079
56.0743
56.0695
56.0647
56.0599
56.0552
56.0504
56.0456
56.0408
56.036
56.0312
56.0265
56.0217
56.0169
56.0121
56.0073
56.0025
55.9977
55.9929
55.9881
55.9833
55.9785
55.9737
55.9689
55.9641
55.9593
55.9545
55.9497
55.9449
55.9401
55.9353
55.9305
55.9257
55.9209
55.9161
55.9112
55.9064
55.9016
55.8968
55.892
55.8871
55.8823
55.8775
55.8727
55.8678
55.863
55.8582
55.8533
55.8485
55.8437
55.8388
55.834
55.8291
55.8243
55.8195
55.8146
55.8098
55.8049
55.8001
55.7952
55.7904
55.7855
55.7806
55.7758
55.7709
55.7661
55.7612
55.7563
55.7515
55.7466
55.7417
55.7369
55.732
55.7271
55.7222
55.7174
55.7125
55.7076
55.7027
55.6978
55.6929
55.688
55.6831
55.6783
55.6734
55.6685
55.6636
55.6587
55.6538
55.6488
55.6439
55.639
55.6341
55.6292
55.6243
55.6194
55.6144
55.6095
55.6046
55.5997
55.5947
55.5898
55.5849
55.5799
55.575
55.5701
55.5651
55.5602
55.5552
55.5503
55.5453
55.5404
55.5354
55.5304
55.5255
55.5205
55.5155
55.5106
55.5056
55.5006
55.4956
55.4907
55.4857
55.4807
55.4757
55.4707
55.4657
55.4607
55.4557
55.4507
55.4457
55.4407
55.4356
55.4306
55.4256
55.4206
55.4155
55.4105
55.4054
55.4004
55.3953
55.3903
55.3852
55.3802
55.3751
55.37
55.365
55.3599
55.3548
55.3497
55.3446
55.3395
55.3344
55.3293
55.3242
55.319
55.3139
55.3088
55.3036
55.2985
55.2933
55.2882
55.283
55.2778
55.2726
55.2674
55.2622
55.257
55.2518
55.2466
55.2414
55.2361
55.2309
55.2256
55.2204
55.2151
55.2098
55.2045
55.1992
55.1939
55.1886
55.1833
55.1779
55.1726
55.1672
55.1619
55.1565
55.1511
55.1457
55.1402
55.1348
55.1294
55.1239
55.1184
55.1129
55.1074
55.1019
55.0964
55.0909
55.0853
55.0797
55.0741
55.0685
55.0629
55.0573
55.0516
55.046
55.0403
55.0346
55.0289
55.0231
55.0174
55.0116
55.0058
55
54.9942
54.9883
54.9825
54.9766
54.9707
54.9647
54.9588
54.9528
54.9468
54.9408
54.9347
54.9287
54.9226
54.9165
54.9103
54.9042
54.898
54.8918
54.8855
54.8793
54.873
54.8667
54.8603
54.854
54.8476
54.8412
54.8347
54.8282
54.8217
54.8152
54.8086
54.802
54.7954
54.7887
54.782
54.7753
54.7685
54.7617
54.7549
54.748
54.7411
54.7342
54.7273
54.7203
54.7132
54.7062
54.6991
54.6919
54.6848
54.6775
54.6703
54.663
54.6557
54.6484
54.641
54.6335
54.6261
54.6186
54.6111
54.6035
54.5959
54.5882
54.5805
54.5728
54.5651
54.5573
54.5495
54.5416
54.5416
57.0245
57.0245
56.7603
56.7146
56.6933
56.6784
56.6661
56.6552
56.6452
56.6356
56.6264
56.6175
56.6089
56.6004
56.5922
56.5842
56.5764
56.5688
56.5614
56.5542
56.5472
56.5403
56.5337
56.5274
56.5214
56.5156
56.5101
56.5046
56.4993
56.4939
56.4885
56.4832
56.4779
56.4727
56.4677
56.4627
56.4578
56.453
56.4482
56.4435
56.4388
56.4341
56.4294
56.4247
56.42
56.4153
56.4106
56.4059
56.4012
56.3965
56.3918
56.3871
56.3824
56.3777
56.3729
56.3682
56.3635
56.3588
56.3541
56.3494
56.3447
56.34
56.3352
56.3305
56.3258
56.3211
56.3164
56.3116
56.3069
56.3022
56.2975
56.2927
56.288
56.2833
56.2786
56.2738
56.2691
56.2644
56.2596
56.2549
56.2502
56.2454
56.2407
56.236
56.2312
56.2265
56.2217
56.217
56.2123
56.2075
56.2028
56.198
56.1933
56.1885
56.1838
56.179
56.1743
56.1695
56.1648
56.16
56.1553
56.1505
56.1457
56.141
56.1362
56.1315
56.1267
56.1219
56.1172
56.1124
56.1077
56.1029
56.0981
56.0934
56.0886
56.0838
56.079
56.0743
56.0695
56.0647
56.0599
56.0552
56.0504
56.0456
56.0408
56.036
56.0312
56.0265
56.0217
56.0169
56.0121
56.0073
56.0025
55.9977
55.9929
55.9881
55.9833
55.9785
55.9737
55.9689
55.9641
55.9593
55.9545
55.9497
55.9449
55.9401
55.9353
55.9305
55.9257
55.9209
55.9161
55.9112
55.9064
55.9016
55.8968
55.892
55.8871
55.8823
55.8775
55.8727
55.8678
55.863
55.8582
55.8533
55.8485
55.8437
55.8388
55.834
55.8291
55.8243
55.8195
55.8146
55.8098
55.8049
55.8001
55.7952
55.7904
55.7855
55.7806
55.7758
55.7709
55.7661
55.7612
55.7563
55.7515
55.7466
55.7417
55.7369
55.732
55.7271
55.7222
55.7174
55.7125
55.7076
55.7027
55.6978
55.6929
55.688
55.6831
55.6783
55.6734
55.6685
55.6636
55.6587
55.6538
55.6488
55.6439
55.639
55.6341
55.6292
55.6243
55.6194
55.6144
55.6095
55.6046
55.5997
55.5947
55.5898
55.5849
55.5799
55.575
55.5701
55.5651
55.5602
55.5552
55.5503
55.5453
55.5404
55.5354
55.5304
55.5255
55.5205
55.5155
55.5106
55.5056
55.5006
55.4956
55.4907
55.4857
55.4807
55.4757
55.4707
55.4657
55.4607
55.4557
55.4507
55.4457
55.4407
55.4356
55.4306
55.4256
55.4206
55.4155
55.4105
55.4054
55.4004
55.3953
55.3903
55.3852
55.3802
55.3751
55.37
55.365
55.3599
55.3548
55.3497
55.3446
55.3395
55.3344
55.3293
55.3242
55.319
55.3139
55.3088
55.3036
55.2985
55.2933
55.2882
55.283
55.2778
55.2726
55.2674
55.2622
55.257
55.2518
55.2466
55.2414
55.2361
55.2309
55.2256
55.2204
55.2151
55.2098
55.2045
55.1992
55.1939
55.1886
55.1833
55.1779
55.1726
55.1672
55.1618
55.1565
55.1511
55.1457
55.1402
55.1348
55.1294
55.1239
55.1184
55.1129
55.1074
55.1019
55.0964
55.0909
55.0853
55.0797
55.0741
55.0685
55.0629
55.0573
55.0516
55.046
55.0403
55.0346
55.0289
55.0231
55.0174
55.0116
55.0058
55
54.9942
54.9883
54.9825
54.9766
54.9707
54.9647
54.9588
54.9528
54.9468
54.9408
54.9347
54.9287
54.9226
54.9165
54.9103
54.9042
54.898
54.8918
54.8855
54.8793
54.873
54.8667
54.8603
54.854
54.8476
54.8412
54.8347
54.8282
54.8217
54.8152
54.8086
54.802
54.7954
54.7887
54.782
54.7753
54.7685
54.7617
54.7549
54.748
54.7411
54.7342
54.7273
54.7203
54.7132
54.7062
54.6991
54.6919
54.6848
54.6775
54.6703
54.663
54.6557
54.6484
54.641
54.6335
54.6261
54.6186
54.611
54.6035
54.5959
54.5882
54.5805
54.5728
54.5651
54.5573
54.5495
54.5416
54.5416
57.0085
57.0085
56.7632
56.7157
56.6939
56.6788
56.6664
56.6554
56.6453
56.6357
56.6265
56.6176
56.6089
56.6005
56.5923
56.5843
56.5765
56.5689
56.5615
56.5542
56.5472
56.5404
56.5338
56.5274
56.5214
56.5156
56.5101
56.5046
56.4993
56.4939
56.4885
56.4832
56.4779
56.4727
56.4677
56.4627
56.4578
56.453
56.4482
56.4435
56.4388
56.4341
56.4294
56.4247
56.42
56.4153
56.4106
56.4059
56.4012
56.3965
56.3918
56.3871
56.3824
56.3777
56.3729
56.3682
56.3635
56.3588
56.3541
56.3494
56.3447
56.3399
56.3352
56.3305
56.3258
56.3211
56.3164
56.3116
56.3069
56.3022
56.2975
56.2927
56.288
56.2833
56.2786
56.2738
56.2691
56.2644
56.2596
56.2549
56.2502
56.2454
56.2407
56.236
56.2312
56.2265
56.2217
56.217
56.2123
56.2075
56.2028
56.198
56.1933
56.1885
56.1838
56.179
56.1743
56.1695
56.1648
56.16
56.1553
56.1505
56.1457
56.141
56.1362
56.1315
56.1267
56.1219
56.1172
56.1124
56.1077
56.1029
56.0981
56.0934
56.0886
56.0838
56.079
56.0743
56.0695
56.0647
56.0599
56.0552
56.0504
56.0456
56.0408
56.036
56.0312
56.0265
56.0217
56.0169
56.0121
56.0073
56.0025
55.9977
55.9929
55.9881
55.9833
55.9785
55.9737
55.9689
55.9641
55.9593
55.9545
55.9497
55.9449
55.9401
55.9353
55.9305
55.9257
55.9209
55.916
55.9112
55.9064
55.9016
55.8968
55.892
55.8871
55.8823
55.8775
55.8727
55.8678
55.863
55.8582
55.8533
55.8485
55.8437
55.8388
55.834
55.8291
55.8243
55.8195
55.8146
55.8098
55.8049
55.8001
55.7952
55.7904
55.7855
55.7806
55.7758
55.7709
55.7661
55.7612
55.7563
55.7515
55.7466
55.7417
55.7369
55.732
55.7271
55.7222
55.7174
55.7125
55.7076
55.7027
55.6978
55.6929
55.688
55.6831
55.6783
55.6734
55.6685
55.6636
55.6587
55.6538
55.6488
55.6439
55.639
55.6341
55.6292
55.6243
55.6194
55.6144
55.6095
55.6046
55.5997
55.5947
55.5898
55.5849
55.5799
55.575
55.5701
55.5651
55.5602
55.5552
55.5503
55.5453
55.5404
55.5354
55.5304
55.5255
55.5205
55.5155
55.5106
55.5056
55.5006
55.4956
55.4907
55.4857
55.4807
55.4757
55.4707
55.4657
55.4607
55.4557
55.4507
55.4457
55.4407
55.4356
55.4306
55.4256
55.4206
55.4155
55.4105
55.4054
55.4004
55.3953
55.3903
55.3852
55.3802
55.3751
55.37
55.3649
55.3599
55.3548
55.3497
55.3446
55.3395
55.3344
55.3293
55.3242
55.319
55.3139
55.3088
55.3036
55.2985
55.2933
55.2882
55.283
55.2778
55.2726
55.2674
55.2622
55.257
55.2518
55.2466
55.2414
55.2361
55.2309
55.2256
55.2204
55.2151
55.2098
55.2045
55.1992
55.1939
55.1886
55.1833
55.1779
55.1726
55.1672
55.1618
55.1565
55.1511
55.1457
55.1402
55.1348
55.1294
55.1239
55.1184
55.1129
55.1074
55.1019
55.0964
55.0909
55.0853
55.0797
55.0741
55.0685
55.0629
55.0573
55.0516
55.046
55.0403
55.0346
55.0289
55.0231
55.0174
55.0116
55.0058
55
54.9942
54.9883
54.9825
54.9766
54.9707
54.9647
54.9588
54.9528
54.9468
54.9408
54.9347
54.9287
54.9226
54.9165
54.9103
54.9042
54.898
54.8918
54.8855
54.8793
54.873
54.8667
54.8603
54.854
54.8476
54.8412
54.8347
54.8282
54.8217
54.8152
54.8086
54.802
54.7954
54.7887
54.782
54.7753
54.7685
54.7617
54.7549
54.748
54.7411
54.7342
54.7273
54.7203
54.7132
54.7062
54.6991
54.6919
54.6848
54.6775
54.6703
54.663
54.6557
54.6484
54.641
54.6335
54.6261
54.6186
54.611
54.6035
54.5959
54.5882
54.5805
54.5728
54.5651
54.5573
54.5495
54.5416
54.5416
56.9934
56.9934
56.7659
56.7168
56.6945
56.6791
56.6667
56.6556
56.6455
56.6358
56.6266
56.6177
56.609
56.6006
56.5923
56.5843
56.5765
56.5689
56.5615
56.5543
56.5472
56.5404
56.5338
56.5275
56.5214
56.5157
56.5101
56.5047
56.4993
56.4939
56.4885
56.4832
56.4779
56.4727
56.4677
56.4627
56.4578
56.453
56.4482
56.4435
56.4388
56.4341
56.4294
56.4247
56.42
56.4153
56.4106
56.4059
56.4012
56.3965
56.3918
56.3871
56.3824
56.3777
56.3729
56.3682
56.3635
56.3588
56.3541
56.3494
56.3447
56.3399
56.3352
56.3305
56.3258
56.3211
56.3164
56.3116
56.3069
56.3022
56.2975
56.2927
56.288
56.2833
56.2786
56.2738
56.2691
56.2644
56.2596
56.2549
56.2502
56.2454
56.2407
56.236
56.2312
56.2265
56.2217
56.217
56.2123
56.2075
56.2028
56.198
56.1933
56.1885
56.1838
56.179
56.1743
56.1695
56.1648
56.16
56.1553
56.1505
56.1457
56.141
56.1362
56.1315
56.1267
56.1219
56.1172
56.1124
56.1077
56.1029
56.0981
56.0933
56.0886
56.0838
56.079
56.0743
56.0695
56.0647
56.0599
56.0552
56.0504
56.0456
56.0408
56.036
56.0312
56.0265
56.0217
56.0169
56.0121
56.0073
56.0025
55.9977
55.9929
55.9881
55.9833
55.9785
55.9737
55.9689
55.9641
55.9593
55.9545
55.9497
55.9449
55.9401
55.9353
55.9305
55.9257
55.9209
55.916
55.9112
55.9064
55.9016
55.8968
55.892
55.8871
55.8823
55.8775
55.8727
55.8678
55.863
55.8582
55.8533
55.8485
55.8437
55.8388
55.834
55.8291
55.8243
55.8195
55.8146
55.8098
55.8049
55.8001
55.7952
55.7904
55.7855
55.7806
55.7758
55.7709
55.7661
55.7612
55.7563
55.7515
55.7466
55.7417
55.7369
55.732
55.7271
55.7222
55.7173
55.7125
55.7076
55.7027
55.6978
55.6929
55.688
55.6831
55.6783
55.6734
55.6685
55.6636
55.6587
55.6538
55.6488
55.6439
55.639
55.6341
55.6292
55.6243
55.6194
55.6144
55.6095
55.6046
55.5997
55.5947
55.5898
55.5849
55.5799
55.575
55.5701
55.5651
55.5602
55.5552
55.5503
55.5453
55.5404
55.5354
55.5304
55.5255
55.5205
55.5155
55.5106
55.5056
55.5006
55.4956
55.4907
55.4857
55.4807
55.4757
55.4707
55.4657
55.4607
55.4557
55.4507
55.4457
55.4407
55.4356
55.4306
55.4256
55.4206
55.4155
55.4105
55.4054
55.4004
55.3953
55.3903
55.3852
55.3802
55.3751
55.37
55.3649
55.3599
55.3548
55.3497
55.3446
55.3395
55.3344
55.3293
55.3242
55.319
55.3139
55.3088
55.3036
55.2985
55.2933
55.2882
55.283
55.2778
55.2726
55.2674
55.2622
55.257
55.2518
55.2466
55.2414
55.2361
55.2309
55.2256
55.2204
55.2151
55.2098
55.2045
55.1992
55.1939
55.1886
55.1833
55.1779
55.1726
55.1672
55.1618
55.1565
55.1511
55.1457
55.1402
55.1348
55.1294
55.1239
55.1184
55.1129
55.1074
55.1019
55.0964
55.0909
55.0853
55.0797
55.0741
55.0685
55.0629
55.0573
55.0516
55.046
55.0403
55.0346
55.0289
55.0231
55.0174
55.0116
55.0058
55
54.9942
54.9883
54.9825
54.9766
54.9707
54.9647
54.9588
54.9528
54.9468
54.9408
54.9347
54.9287
54.9226
54.9165
54.9103
54.9042
54.898
54.8918
54.8855
54.8793
54.873
54.8667
54.8603
54.854
54.8476
54.8411
54.8347
54.8282
54.8217
54.8152
54.8086
54.802
54.7954
54.7887
54.782
54.7753
54.7685
54.7617
54.7549
54.748
54.7411
54.7342
54.7273
54.7203
54.7132
54.7062
54.6991
54.6919
54.6848
54.6775
54.6703
54.663
54.6557
54.6484
54.641
54.6335
54.6261
54.6186
54.611
54.6035
54.5959
54.5882
54.5805
54.5728
54.5651
54.5573
54.5495
54.5416
54.5416
56.9794
56.9794
56.7685
56.7179
56.6951
56.6795
56.6669
56.6558
56.6456
56.6359
56.6267
56.6177
56.6091
56.6006
56.5924
56.5844
56.5765
56.5689
56.5615
56.5543
56.5472
56.5404
56.5338
56.5275
56.5214
56.5157
56.5101
56.5047
56.4993
56.4939
56.4885
56.4832
56.4779
56.4728
56.4677
56.4627
56.4578
56.453
56.4482
56.4435
56.4388
56.4341
56.4294
56.4247
56.42
56.4153
56.4106
56.4059
56.4012
56.3965
56.3918
56.3871
56.3824
56.3777
56.3729
56.3682
56.3635
56.3588
56.3541
56.3494
56.3447
56.3399
56.3352
56.3305
56.3258
56.3211
56.3164
56.3116
56.3069
56.3022
56.2975
56.2927
56.288
56.2833
56.2786
56.2738
56.2691
56.2644
56.2596
56.2549
56.2502
56.2454
56.2407
56.236
56.2312
56.2265
56.2217
56.217
56.2123
56.2075
56.2028
56.198
56.1933
56.1885
56.1838
56.179
56.1743
56.1695
56.1648
56.16
56.1553
56.1505
56.1457
56.141
56.1362
56.1315
56.1267
56.1219
56.1172
56.1124
56.1077
56.1029
56.0981
56.0933
56.0886
56.0838
56.079
56.0743
56.0695
56.0647
56.0599
56.0552
56.0504
56.0456
56.0408
56.036
56.0312
56.0265