# vtk DataFile Version 2.0
FlowField
ASCII
DATASET STRUCTURED_GRID
DIMENSIONS 400 1 200
POINTS 80000 float
0 0 0
0.08 0 0
0.16 0 0
0.24 0 0
0.32 0 0
0.4 0 0
0.48 0 0
0.56 0 0
0.64 0 0
0.72 0 0
0.8 0 0
0.88 0 0
0.96 0 0
1.04 0 0
1.12 0 0
1.2 0 0
1.28 0 0
1.36 0 0
1.44 0 0
1.52 0 0
1.6 0 0
1.68 0 0
1.76 0 0
1.84 0 0
1.92 0 0
2 0 0
2.08 0 0
2.16 0 0
2.24 0 0
2.32 0 0
2.4 0 0
2.48 0 0
2.56 0 0
2.64 0 0
2.72 0 0
2.8 0 0
2.88 0 0
2.96 0 0
3.04 0 0
3.12 0 0
3.2 0 0
3.28 0 0
3.36 0 0
3.44 0 0
3.52 0 0
3.6 0 0
3.68 0 0
3.76 0 0
3.84 0 0
3.92 0 0
4 0 0
4.08 0 0
4.16 0 0
4.24 0 0
4.32 0 0
4.4 0 0
4.48 0 0
4.56 0 0
4.64 0 0
4.72 0 0
4.8 0 0
4.88 0 0
4.96 0 0
5.04 0 0
5.12 0 0
5.2 0 0
5.28 0 0
5.36 0 0
5.44 0 0
5.52 0 0
5.6 0 0
5.68 0 0
5.76 0 0
5.84 0 0
5.92 0 0
6 0 0
6.08 0 0
6.16 0 0
6.24 0 0
6.32 0 0
6.4 0 0
6.48 0 0
6.56 0 0
6.64 0 0
6.72 0 0
6.8 0 0
6.88 0 0
6.96 0 0
7.04 0 0
7.12 0 0
7.2 0 0
7.28 0 0
7.36 0 0
7.44 0 0
7.52 0 0
7.6 0 0
7.68 0 0
7.76 0 0
7.84 0 0
7.92 0 0
8 0 0
8.08 0 0
8.16 0 0
8.24 0 0
8.32 0 0
8.4 0 0
8.48 0 0
8.56 0 0
8.64 0 0
8.72 0 0
8.8 0 0
8.88 0 0
8.96 0 0
9.04 0 0
9.12 0 0
9.2 0 0
9.28 0 0
9.36 0 0
9.44 0 0
9.52 0 0
9.6 0 0
9.68 0 0
9.76 0 0
9.84 0 0
9.92 0 0
10 0 0
10.08 0 0
10.16 0 0
10.24 0 0
10.32 0 0
10.4 0 0
10.48 0 0
10.56 0 0
10.64 0 0
10.72 0 0
10.8 0 0
10.88 0 0
10.96 0 0
11.04 0 0
11.12 0 0
11.2 0 0
11.28 0 0
11.36 0 0
11.44 0 0
11.52 0 0
11.6 0 0
11.68 0 0
11.76 0 0
11.84 0 0
11.92 0 0
12 0 0
12.08 0 0
12.16 0 0
12.24 0 0
12.32 0 0
12.4 0 0
12.48 0 0
12.56 0 0
12.64 0 0
12.72 0 0
12.8 0 0
12.88 0 0
12.96 0 0
13.04 0 0
13.12 0 0
13.2 0 0
13.28 0 0
13.36 0 0
13.44 0 0
13.52 0 0
13.6 0 0
13.68 0 0
13.76 0 0
13.84 0 0
13.92 0 0
14 0 0
14.08 0 0
14.16 0 0
14.24 0 0
14.32 0 0
14.4 0 0
14.48 0 0
14.56 0 0
14.64 0 0
14.72 0 0
14.8 0 0
14.88 0 0
14.96 0 0
15.04 0 0
15.12 0 0
15.2 0 0
15.28 0 0
15.36 0 0
15.44 0 0
15.52 0 0
15.6 0 0
15.68 0 0
15.76 0 0
15.84 0 0
15.92 0 0
16 0 0
16.08 0 0
16.16 0 0
16.24 0 0
16.32 0 0
16.4 0 0
16.48 0 0
16.56 0 0
16.64 0 0
16.72 0 0
16.8 0 0
16.88 0 0
16.96 0 0
17.04 0 0
17.12 0 0
17.2 0 0
17.28 0 0
17.36 0 0
17.44 0 0
17.52 0 0
17.6 0 0
17.68 0 0
17.76 0 0
17.84 0 0
17.92 0 0
18 0 0
18.08 0 0
18.16 0 0
18.24 0 0
18.32 0 0
18.4 0 0
18.48 0 0
18.56 0 0
18.64 0 0
18.72 0 0
18.8 0 0
18.88 0 0
18.96 0 0
19.04 0 0
19.12 0 0
19.2 0 0
19.28 0 0
19.36 0 0
19.44 0 0
19.52 0 0
19.6 0 0
19.68 0 0
19.76 0 0
19.84 0 0
19.92 0 0
20 0 0
20.08 0 0
20.16 0 0
20.24 0 0
20.32 0 0
20.4 0 0
20.48 0 0
20.56 0 0
20.64 0 0
20.72 0 0
20.8 0 0
20.88 0 0
20.96 0 0
21.04 0 0
21.12 0 0
21.2 0 0
21.28 0 0
21.36 0 0
21.44 0 0
21.52 0 0
21.6 0 0
21.68 0 0
21.76 0 0
21.84 0 0
21.92 0 0
22 0 0
22.08 0 0
22.16 0 0
22.24 0 0
22.32 0 0
22.4 0 0
22.48 0 0
22.56 0 0
22.64 0 0
22.72 0 0
22.8 0 0
22.88 0 0
22.96 0 0
23.04 0 0
23.12 0 0
23.2 0 0
23.28 0 0
23.36 0 0
23.44 0 0
23.52 0 0
23.6 0 0
23.68 0 0
23.76 0 0
23.84 0 0
23.92 0 0
24 0 0
24.08 0 0
24.16 0 0
24.24 0 0
24.32 0 0
24.4 0 0
24.48 0 0
24.56 0 0
24.64 0 0
24.72 0 0
24.8 0 0
24.88 0 0
24.96 0 0
25.04 0 0
25.12 0 0
25.2 0 0
25.28 0 0
25.36 0 0
25.44 0 0
25.52 0 0
25.6 0 0
25.68 0 0
25.76 0 0
25.84 0 0
25.92 0 0
26 0 0
26.08 0 0
26.16 0 0
26.24 0 0
26.32 0 0
26.4 0 0
26.48 0 0
26.56 0 0
26.64 0 0
26.72 0 0
26.8 0 0
26.88 0 0
26.96 0 0
27.04 0 0
27.12 0 0
27.2 0 0
27.28 0 0
27.36 0 0
27.44 0 0
27.52 0 0
27.6 0 0
27.68 0 0
27.76 0 0
27.84 0 0
27.92 0 0
28 0 0
28.08 0 0
28.16 0 0
28.24 0 0
28.32 0 0
28.4 0 0
28.48 0 0
28.56 0 0
28.64 0 0
28.72 0 0
28.8 0 0
28.88 0 0
28.96 0 0
29.04 0 0
29.12 0 0
29.2 0 0
29.28 0 0
29.36 0 0
29.44 0 0
29.52 0 0
29.6 0 0
29.68 0 0
29.76 0 0
29.84 0 0
29.92 0 0
30 0 0
30.08 0 0
30.16 0 0
30.24 0 0
30.32 0 0
30.4 0 0
30.48 0 0
30.56 0 0
30.64 0 0
30.72 0 0
30.8 0 0
30.88 0 0
30.96 0 0
31.04 0 0
31.12 0 0
31.2 0 0
31.28 0 0
31.36 0 0
31.44 0 0
31.52 0 0
31.6 0 0
31.68 0 0
31.76 0 0
31.84 0 0
31.92 0 0
0 0.005 0
0.08 0.005 0
0.16 0.005 0
0.24 0.005 0
0.32 0.005 0
0.4 0.005 0
0.48 0.005 0
0.56 0.005 0
0.64 0.005 0
0.72 0.005 0
0.8 0.005 0
0.88 0.005 0
0.96 0.005 0
1.04 0.005 0
1.12 0.005 0
1.2 0.005 0
1.28 0.005 0
1.36 0.005 0
1.44 0.005 0
1.52 0.005 0
1.6 0.005 0
1.68 0.005 0
1.76 0.005 0
1.84 0.005 0
1.92 0.005 0
2 0.005 0
2.08 0.005 0
2.16 0.005 0
2.24 0.005 0
2.32 0.005 0
2.4 0.005 0
2.48 0.005 0
2.56 0.005 0
2.64 0.005 0
2.72 0.005 0
2.8 0.005 0
2.88 0.005 0
2.96 0.005 0
3.04 0.005 0
3.12 0.005 0
3.2 0.005 0
3.28 0.005 0
3.36 0.005 0
3.44 0.005 0
3.52 0.005 0
3.6 0.005 0
3.68 0.005 0
3.76 0.005 0
3.84 0.005 0
3.92 0.005 0
4 0.005 0
4.08 0.005 0
4.16 0.005 0
4.24 0.005 0
4.32 0.005 0
4.4 0.005 0
4.48 0.005 0
4.56 0.005 0
4.64 0.005 0
4.72 0.005 0
4.8 0.005 0
4.88 0.005 0
4.96 0.005 0
5.04 0.005 0
5.12 0.005 0
5.2 0.005 0
5.28 0.005 0
5.36 0.005 0
5.44 0.005 0
5.52 0.005 0
5.6 0.005 0
5.68 0.005 0
5.76 0.005 0
5.84 0.005 0
5.92 0.005 0
6 0.005 0
6.08 0.005 0
6.16 0.005 0
6.24 0.005 0
6.32 0.005 0
6.4 0.005 0
6.48 0.005 0
6.56 0.005 0
6.64 0.005 0
6.72 0.005 0
6.8 0.005 0
6.88 0.005 0
6.96 0.005 0
7.04 0.005 0
7.12 0.005 0
7.2 0.005 0
7.28 0.005 0
7.36 0.005 0
7.44 0.005 0
7.52 0.005 0
7.6 0.005 0
7.68 0.005 0
7.76 0.005 0
7.84 0.005 0
7.92 0.005 0
8 0.005 0
8.08 0.005 0
8.16 0.005 0
8.24 0.005 0
8.32 0.005 0
8.4 0.005 0
8.48 0.005 0
8.56 0.005 0
8.64 0.005 0
8.72 0.005 0
8.8 0.005 0
8.88 0.005 0
8.96 0.005 0
9.04 0.005 0
9.12 0.005 0
9.2 0.005 0
9.28 0.005 0
9.36 0.005 0
9.44 0.005 0
9.52 0.005 0
9.6 0.005 0
9.68 0.005 0
9.76 0.005 0
9.84 0.005 0
9.92 0.005 0
10 0.005 0
10.08 0.005 0
10.16 0.005 0
10.24 0.005 0
10.32 0.005 0
10.4 0.005 0
10.48 0.005 0
10.56 0.005 0
10.64 0.005 0
10.72 0.005 0
10.8 0.005 0
10.88 0.005 0
10.96 0.005 0
11.04 0.005 0
11.12 0.005 0
11.2 0.005 0
11.28 0.005 0
11.36 0.005 0
11.44 0.005 0
11.52 0.005 0
11.6 0.005 0
11.68 0.005 0
11.76 0.005 0
11.84 0.005 0
11.92 0.005 0
12 0.005 0
12.08 0.005 0
12.16 0.005 0
12.24 0.005 0
12.32 0.005 0
12.4 0.005 0
12.48 0.005 0
12.56 0.005 0
12.64 0.005 0
12.72 0.005 0
12.8 0.005 0
12.88 0.005 0
12.96 0.005 0
13.04 0.005 0
13.12 0.005 0
13.2 0.005 0
13.28 0.005 0
13.36 0.005 0
13.44 0.005 0
13.52 0.005 0
13.6 0.005 0
13.68 0.005 0
13.76 0.005 0
13.84 0.005 0
13.92 0.005 0
14 0.005 0
14.08 0.005 0
14.16 0.005 0
14.24 0.005 0
14.32 0.005 0
14.4 0.005 0
14.48 0.005 0
14.56 0.005 0
14.64 0.005 0
14.72 0.005 0
14.8 0.005 0
14.88 0.005 0
14.96 0.005 0
15.04 0.005 0
15.12 0.005 0
15.2 0.005 0
15.28 0.005 0
15.36 0.005 0
15.44 0.005 0
15.52 0.005 0
15.6 0.005 0
15.68 0.005 0
15.76 0.005 0
15.84 0.005 0
15.92 0.005 0
16 0.005 0
16.08 0.005 0
16.16 0.005 0
16.24 0.005 0
16.32 0.005 0
16.4 0.005 0
16.48 0.005 0
16.56 0.005 0
16.64 0.005 0
16.72 0.005 0
16.8 0.005 0
16.88 0.005 0
16.96 0.005 0
17.04 0.005 0
17.12 0.005 0
17.2 0.005 0
17.28 0.005 0
17.36 0.005 0
17.44 0.005 0
17.52 0.005 0
17.6 0.005 0
17.68 0.005 0
17.76 0.005 0
17.84 0.005 0
17.92 0.005 0
18 0.005 0
18.08 0.005 0
18.16 0.005 0
18.24 0.005 0
18.32 0.005 0
18.4 0.005 0
18.48 0.005 0
18.56 0.005 0
18.64 0.005 0
18.72 0.005 0
18.8 0.005 0
18.88 0.005 0
18.96 0.005 0
19.04 0.005 0
19.12 0.005 0
19.2 0.005 0
19.28 0.005 0
19.36 0.005 0
19.44 0.005 0
19.52 0.005 0
19.6 0.005 0
19.68 0.005 0
19.76 0.005 0
19.84 0.005 0
19.92 0.005 0
20 0.005 0
20.08 0.005 0
20.16 0.005 0
20.24 0.005 0
20.32 0.005 0
20.4 0.005 0
20.48 0.005 0
20.56 0.005 0
20.64 0.005 0
20.72 0.005 0
20.8 0.005 0
20.88 0.005 0
20.96 0.005 0
21.04 0.005 0
21.12 0.005 0
21.2 0.005 0
21.28 0.005 0
21.36 0.005 0
21.44 0.005 0
21.52 0.005 0
21.6 0.005 0
21.68 0.005 0
21.76 0.005 0
21.84 0.005 0
21.92 0.005 0
22 0.005 0
22.08 0.005 0
22.16 0.005 0
22.24 0.005 0
22.32 0.005 0
22.4 0.005 0
22.48 0.005 0
22.56 0.005 0
22.64 0.005 0
22.72 0.005 0
22.8 0.005 0
22.88 0.005 0
22.96 0.005 0
23.04 0.005 0
23.12 0.005 0
23.2 0.005 0
23.28 0.005 0
23.36 0.005 0
23.44 0.005 0
23.52 0.005 0
23.6 0.005 0
23.68 0.005 0
23.76 0.005 0
23.84 0.005 0
23.92 0.005 0
24 0.005 0
24.08 0.005 0
24.16 0.005 0
24.24 0.005 0
24.32 0.005 0
24.4 0.005 0
24.48 0.005 0
24.56 0.005 0
24.64 0.005 0
24.72 0.005 0
24.8 0.005 0
24.88 0.005 0
24.96 0.005 0
25.04 0.005 0
25.12 0.005 0
25.2 0.005 0
25.28 0.005 0
25.36 0.005 0
25.44 0.005 0
25.52 0.005 0
25.6 0.005 0
25.68 0.005 0
25.76 0.005 0
25.84 0.005 0
25.92 0.005 0
26 0.005 0
26.08 0.005 0
26.16 0.005 0
26.24 0.005 0
26.32 0.005 0
26.4 0.005 0
26.48 0.005 0
26.56 0.005 0
26.64 0.005 0
26.72 0.005 0
26.8 0.005 0
26.88 0.005 0
26.96 0.005 0
27.04 0.005 0
27.12 0.005 0
27.2 0.005 0
27.28 0.005 0
27.36 0.005 0
27.44 0.005 0
27.52 0.005 0
27.6 0.005 0
27.68 0.005 0
27.76 0.005 0
27.84 0.005 0
27.92 0.005 0
28 0.005 0
28.08 0.005 0
28.16 0.005 0
28.24 0.005 0
28.32 0.005 0
28.4 0.005 0
28.48 0.005 0
28.56 0.005 0
28.64 0.005 0
28.72 0.005 0
28.8 0.005 0
28.88 0.005 0
28.96 0.005 0
29.04 0.005 0
29.12 0.005 0
29.2 0.005 0
29.28 0.005 0
29.36 0.005 0
29.44 0.005 0
29.52 0.005 0
29.6 0.005 0
29.68 0.005 0
29.76 0.005 0
29.84 0.005 0
29.92 0.005 0
30 0.005 0
30.08 0.005 0
30.16 0.005 0
30.24 0.005 0
30.32 0.005 0
30.4 0.005 0
30.48 0.005 0
30.56 0.005 0
30.64 0.005 0
30.72 0.005 0
30.8 0.005 0
30.88 0.005 0
30.96 0.005 0
31.04 0.005 0
31.12 0.005 0
31.2 0.005 0
31.28 0.005 0
31.36 0.005 0
31.44 0.005 0
31.52 0.005 0
31.6 0.005 0
31.68 0.005 0
31.76 0.005 0
31.84 0.005 0
31.92 0.005 0
0 0.01 0
0.08 0.01 0
0.16 0.01 0
0.24 0.01 0
0.32 0.01 0
0.4 0.01 0
0.48 0.01 0
0.56 0.01 0
0.64 0.01 0
0.72 0.01 0
0.8 0.01 0
0.88 0.01 0
0.96 0.01 0
1.04 0.01 0
1.12 0.01 0
1.2 0.01 0
1.28 0.01 0
1.36 0.01 0
1.44 0.01 0
1.52 0.01 0
1.6 0.01 0
1.68 0.01 0
1.76 0.01 0
1.84 0.01 0
1.92 0.01 0
2 0.01 0
2.08 0.01 0
2.16 0.01 0
2.24 0.01 0
2.32 0.01 0
2.4 0.01 0
2.48 0.01 0
2.56 0.01 0
2.64 0.01 0
2.72 0.01 0
2.8 0.01 0
2.88 0.01 0
2.96 0.01 0
3.04 0.01 0
3.12 0.01 0
3.2 0.01 0
3.28 0.01 0
3.36 0.01 0
3.44 0.01 0
3.52 0.01 0
3.6 0.01 0
3.68 0.01 0
3.76 0.01 0
3.84 0.01 0
3.92 0.01 0
4 0.01 0
4.08 0.01 0
4.16 0.01 0
4.24 0.01 0
4.32 0.01 0
4.4 0.01 0
4.48 0.01 0
4.56 0.01 0
4.64 0.01 0
4.72 0.01 0
4.8 0.01 0
4.88 0.01 0
4.96 0.01 0
5.04 0.01 0
5.12 0.01 0
[...]
POINT_DATA 80000

SCALARS v float 1
LOOKUP_TABLE default
0
0
0
0
0
0
0
0
0
0
0
0
0
0
0
0
0
0
0
0
0
0
0
0
0
0
0
0
0
0
0
0
0
0
0
0
0
0
0
0
0
0
0
0
0
0
0
0
0
0
0
0
0
0
0
0
0
0
0
0
0
0
0
0
0
0
0
0
0
0
0
0
0
0
0
0
0
0
0
0
0
0
0
0
0
0
0
0
0
0
0
0
0
0
0
0
0
0
0
0
0
0
0
0
0
0
0
0
0
0
0
0
0
0
0
0
0
0
0
0
0
0
0
0
0
0
0
0
0
0
0
0
0
0
0
0
0
0
0
0
0
0
0
0
0
0
0
0
0
0
0
0
0
0
0
0
0
0
0
0
0
0
0
0
0
0
0
0
0
0
0
0
0
0
0
0
0
0
0
0
0
0
0
0
0
0
0
0
0
0
0
0
0
0
0
0
0
0
0
0
0
0
0
0
0
0
0
0
0
0
0
0
0
0
0
0
0
0
0
0
0
0
0
0
0
0
0
0
0
0
0
0
0
0
0
0
0
0
0
0
0
0
0
0
0
0
0
0
0
0
0
0
0
0
0
0
0
0
0
0
0
0
0
0
0
0
0
0
0
0
0
0
0
0
0
0
0
0
0
0
0
0
0
0
0
0
0
0
0
0
0
0
0
0
0
0
0
0
0
0
0
0
0
0
0
0
0
0
0
0
0
0
0
0
0
0
0
0
0
0
0
0
0
0
0
0
0
0
0
0
0
0
0
0
0
0
0
0
0
0
0
0
0
0
0
0
0
0
0
0
0
0
0
0
0
0
0
0
0
0
0
0
0
0
0
0
0
0
0
0
0
0
0
0
0
0
0
0
0
0
0
0
0
0
0
0
0
0
0
0
0
0
0
0
0
0
0
0
0
0
-0.0542713
0.0542713
0.00396233
0.000998571
0.000492503
0.00030294
0.000207564
0.000151936
0.000116495
9.25391e-05
7.56262e-05
6.32658e-05
5.39654e-05
4.6787e-05
4.11191e-05
3.65521e-05
3.28047e-05
2.96797e-05
2.70361e-05
2.47721e-05
2.28128e-05
2.11018e-05
1.95945e-05
1.82561e-05
1.706e-05
1.59866e-05
1.50204e-05
1.41463e-05
1.33501e-05
1.26196e-05
1.19473e-05
1.13293e-05
1.07624e-05
1.02404e-05
9.75383e-06
9.2941e-06
8.85731e-06
8.44514e-06
8.06089e-06
7.7038e-06
7.36617e-06
7.03573e-06
6.7016e-06
6.3596e-06
6.01298e-06
5.66832e-06
5.32969e-06
4.99549e-06
4.66012e-06
4.31948e-06
3.97634e-06
3.64193e-06
3.33236e-06
3.06169e-06
2.83548e-06
2.64818e-06
2.48561e-06
2.33113e-06
2.1724e-06
2.00577e-06
1.83655e-06
1.67573e-06
1.53482e-06
1.42117e-06
1.33542e-06
1.27165e-06
1.21973e-06
1.16859e-06
1.10924e-06
1.03672e-06
9.50547e-07
8.54017e-07
7.52754e-07
6.53079e-07
5.60625e-07
4.79452e-07
4.11711e-07
3.57764e-07
3.16605e-07
2.86382e-07
2.64899e-07
2.49999e-07
2.39804e-07
2.32823e-07
2.27957e-07
2.24447e-07
2.21799e-07
2.19708e-07
2.17988e-07
2.16527e-07
2.15254e-07
2.14121e-07
2.13092e-07
2.12139e-07
2.11238e-07
2.10372e-07
2.09529e-07
2.08697e-07
2.07871e-07
2.07047e-07
2.06223e-07
2.05399e-07
2.04572e-07
2.03745e-07
2.02918e-07
2.0209e-07
2.01262e-07
2.00434e-07
1.99606e-07
1.98778e-07
1.97951e-07
1.97124e-07
1.96297e-07
1.9547e-07
1.94644e-07
1.93817e-07
1.92991e-07
1.92164e-07
1.91338e-07
1.90512e-07
1.89685e-07
1.88859e-07
1.88033e-07
1.87207e-07
1.86382e-07
1.85556e-07
1.84731e-07
1.83906e-07
1.83082e-07
1.82257e-07
1.81433e-07
1.8061e-07
1.79786e-07
1.78963e-07
1.78141e-07
1.77318e-07
1.76497e-07
1.75675e-07
1.74854e-07
1.74034e-07
1.73214e-07
1.72394e-07
1.71575e-07
1.70756e-07
1.69938e-07
1.6912e-07
1.68303e-07
1.67486e-07
1.66669e-07
1.65854e-07
1.65038e-07
1.64223e-07
1.63409e-07
1.62595e-07
1.61781e-07
1.60968e-07
1.60155e-07
1.59343e-07
1.58532e-07
1.57721e-07
1.5691e-07
1.561e-07
1.5529e-07
1.54481e-07
1.53672e-07
1.52864e-07
1.52056e-07
1.51249e-07
1.50442e-07
1.49635e-07
1.48829e-07
1.48024e-07
1.47219e-07
1.46414e-07
1.4561e-07
1.44806e-07
1.44002e-07
1.43199e-07
1.42396e-07
1.41594e-07
1.40792e-07
1.3999e-07
1.39189e-07
1.38388e-07
1.37588e-07
1.36788e-07
1.35988e-07
1.35188e-07
1.34389e-07
1.3359e-07
1.32792e-07
1.31993e-07
1.31195e-07
1.30397e-07
1.296e-07
1.28803e-07
1.28005e-07
1.27209e-07
1.26412e-07
1.25616e-07
1.24819e-07
1.24023e-07
1.23228e-07
1.22432e-07
1.21637e-07
1.20841e-07
1.20046e-07
1.19251e-07
1.18456e-07
1.17661e-07
1.16867e-07
1.16072e-07
1.15277e-07
1.14483e-07
1.13689e-07
1.12894e-07
1.121e-07
1.11306e-07
1.10512e-07
1.09718e-07
1.08924e-07
1.0813e-07
1.07336e-07
1.06542e-07
1.05748e-07
1.04954e-07
1.0416e-07
1.03366e-07
1.02571e-07
1.01777e-07
1.00983e-07
1.00189e-07
9.93945e-08
9.86001e-08
9.78056e-08
9.70111e-08
9.62165e-08
9.54218e-08
9.4627e-08
9.38321e-08
9.3037e-08
9.22419e-08
9.14467e-08
9.06513e-08
8.98558e-08
8.90601e-08
8.82644e-08
8.74685e-08
8.66724e-08
8.58762e-08
8.50798e-08
8.42833e-08
8.34866e-08
8.26897e-08
8.18927e-08
8.10955e-08
8.02981e-08
7.95005e-08
7.87027e-08
7.79048e-08
7.71066e-08
7.63083e-08
7.55098e-08
7.4711e-08
7.3912e-08
7.31129e-08
7.23135e-08
7.15139e-08
7.07141e-08
6.99141e-08
6.91138e-08
6.83133e-08
6.75126e-08
6.67117e-08
6.59105e-08
6.51091e-08
6.43074e-08
6.35055e-08
6.27034e-08
6.1901e-08
6.10984e-08
6.02955e-08
5.94924e-08
5.8689e-08
5.78854e-08
5.70815e-08
5.62774e-08
5.5473e-08
5.46683e-08
5.38634e-08
5.30582e-08
5.22527e-08
5.1447e-08
5.0641e-08
4.98347e-08
4.90282e-08
4.82213e-08
4.74143e-08
4.66069e-08
4.57992e-08
4.49913e-08
4.41831e-08
4.33746e-08
4.25658e-08
4.17567e-08
4.09474e-08
4.01377e-08
3.93278e-08
3.85175e-08
3.7707e-08
3.68962e-08
3.60851e-08
3.52737e-08
3.4462e-08
3.365e-08
3.28377e-08
3.20251e-08
3.12122e-08
3.0399e-08
2.95854e-08
2.87716e-08
2.79575e-08
2.7143e-08
2.63283e-08
2.55132e-08
2.46978e-08
2.38821e-08
2.30661e-08
2.22498e-08
2.14331e-08
2.06162e-08
1.97987e-08
1.89814e-08
1.8163e-08
1.73454e-08
1.65258e-08
1.57085e-08
1.48869e-08
1.40706e-08
1.3246e-08
1.24321e-08
1.16031e-08
1.07932e-08
9.95775e-09
9.15394e-09
8.30998e-09
7.5144e-09
6.65979e-09
5.87447e-09
5.00731e-09
4.23397e-09
3.35266e-09
2.59282e-09
1.69579e-09
9.51214e-10
3.61902e-11
-6.9003e-10
-1.62723e-09
-2.32956e-09
-3.29608e-09
-3.96558e-09
-4.97244e-09
-5.59565e-09
-6.65901e-09
-7.21683e-09
-8.35882e-09
-8.82618e-09
-1.00745e-08
-1.04212e-08
-1.18084e-08
-1.19994e-08
-1.35627e-08
-1.35587e-08
-1.53389e-08
-1.5098e-08
-1.71379e-08
-1.66166e-08
-1.89596e-08
-1.81164e-08
-2.08e-08
-1.96067e-08
-2.26472e-08
-2.11111e-08
-2.44726e-08
-2.26866e-08
-2.62122e-08
-2.44627e-08
-2.77245e-08
-2.67358e-08
-2.86886e-08
-3.01847e-08
-2.83179e-08
-3.64145e-08
-2.4274e-08
-4.93181e-08
-6.49604e-09
-7.77737e-08
1.24592e-07
-3.52508e-08
-3.52508e-08
-0.0952161
0.0952161
0.0129759
0.00385491
0.00193461
0.0011965
0.000822046
0.000602621
0.000462375
0.00036735
0.00030014
0.000250956
0.000213913
0.000185305
0.000162711
0.000144507
0.000129572
0.000117122
0.000106594
9.75827e-05
8.97883e-05
8.29839e-05
7.6992e-05
7.16738e-05
6.69238e-05
6.2663e-05
5.88275e-05
5.53575e-05
5.21962e-05
4.92969e-05
4.66301e-05
4.41798e-05
4.19307e-05
3.98565e-05
3.79208e-05
3.60917e-05
3.43557e-05
3.27188e-05
3.11907e-05
2.97649e-05
2.84094e-05
2.70778e-05
2.57313e-05
2.43568e-05
2.29677e-05
2.15876e-05
2.02299e-05
1.88878e-05
1.75422e-05
1.61822e-05
1.48236e-05
1.35117e-05
1.23066e-05
1.12571e-05
1.0378e-05
9.64344e-06
8.99794e-06
8.38029e-06
7.74787e-06
7.091e-06
6.43229e-06
5.81305e-06
5.27409e-06
4.83911e-06
4.50658e-06
4.2516e-06
4.03528e-06
3.81706e-06
3.56557e-06
3.26496e-06
2.916e-06
2.53291e-06
2.13768e-06
1.75397e-06
1.40223e-06
1.09659e-06
8.43907e-07
6.44485e-07
4.937e-07
3.84043e-07
3.06959e-07
2.54226e-07
2.18794e-07
1.95121e-07
1.79161e-07
1.68143e-07
1.60274e-07
1.54443e-07
1.49977e-07
1.4647e-07
1.43662e-07
1.41373e-07
1.39469e-07
1.37845e-07
1.36415e-07
1.35114e-07
1.33892e-07
1.32714e-07
1.31558e-07
1.30409e-07
1.2926e-07
1.28108e-07
1.26953e-07
1.25795e-07
1.24635e-07
1.23474e-07
1.22314e-07
1.21155e-07
1.19996e-07
1.18839e-07
1.17684e-07
1.16529e-07
1.15374e-07
1.1422e-07
1.13067e-07
1.11914e-07
1.1076e-07
1.09607e-07
1.08454e-07
1.073e-07
1.06147e-07
1.04994e-07
1.0384e-07
1.02687e-07
1.01534e-07
1.00381e-07
9.92288e-08
9.80767e-08
9.69249e-08
9.57736e-08
9.46228e-08
9.34724e-08
9.23226e-08
9.11733e-08
9.00245e-08
8.88763e-08
8.77287e-08
8.65817e-08
8.54352e-08
8.42894e-08
8.31441e-08
8.19995e-08
8.08554e-08
7.9712e-08
7.85691e-08
7.74269e-08
7.62852e-08
7.51442e-08
7.40037e-08
7.28638e-08
7.17245e-08
7.05858e-08
6.94477e-08
6.83102e-08
6.71732e-08
6.60369e-08
6.49011e-08
6.37658e-08
6.26312e-08
6.14971e-08
6.03635e-08
5.92305e-08
5.80981e-08
5.69662e-08
5.58348e-08
5.47039e-08
5.35736e-08
5.24438e-08
5.13145e-08
5.01857e-08
4.90573e-08
4.79295e-08
4.68021e-08
4.56752e-08
4.45488e-08
4.34228e-08
4.22973e-08
4.11721e-08
4.00474e-08
3.89231e-08
3.77992e-08
3.66757e-08
3.55526e-08
3.44298e-08
3.33074e-08
3.21853e-08
3.10636e-08
2.99421e-08
2.8821e-08
2.77002e-08
2.65797e-08
2.54594e-08
2.43394e-08
2.32197e-08
2.21002e-08
2.09809e-08
1.98619e-08
1.8743e-08
1.76244e-08
1.65059e-08
1.53875e-08
1.42694e-08
1.31514e-08
1.20335e-08
1.09158e-08
9.79812e-09
8.68057e-09
7.56312e-09
6.44573e-09
5.32842e-09
4.21116e-09
3.09396e-09
1.97678e-09
8.59618e-10
-2.5753e-10
-1.37467e-09
-2.49183e-09
-3.60899e-09
-4.7262e-09
-5.84344e-09
-6.96072e-09
-8.07808e-09
-9.19549e-09
-1.0313e-08
-1.14306e-08
-1.25482e-08
-1.3666e-08
-1.47839e-08
-1.59019e-08
-1.70201e-08
-1.81384e-08
-1.92568e-08
-2.03754e-08
-2.14942e-08
-2.26131e-08
-2.37322e-08
-2.48516e-08
-2.59711e-08
-2.70908e-08
-2.82107e-08
-2.93308e-08
-3.04512e-08
-3.15717e-08
-3.26926e-08
-3.38136e-08
-3.49349e-08
-3.60565e-08
-3.71784e-08
-3.83004e-08
-3.94228e-08
-4.05455e-08
-4.16684e-08
-4.27916e-08
-4.39151e-08
-4.50389e-08
-4.6163e-08
-4.72874e-08
-4.84122e-08
-4.95372e-08
-5.06626e-08
-5.17882e-08
-5.29143e-08
-5.40406e-08
-5.51673e-08
-5.62943e-08
-5.74217e-08
-5.85494e-08
-5.96775e-08
-6.08059e-08
-6.19347e-08
-6.30639e-08
-6.41934e-08
-6.53233e-08
-6.64535e-08
-6.75842e-08
-6.87152e-08
-6.98466e-08
-7.09784e-08
-7.21106e-08
-7.32432e-08
-7.43762e-08
-7.55095e-08
-7.66433e-08
-7.77775e-08
-7.89121e-08
-8.00471e-08
-8.11825e-08
-8.23183e-08
-8.34546e-08
-8.45913e-08
-8.57284e-08
-8.68659e-08
-8.80038e-08
-8.91422e-08
-9.02811e-08
-9.14203e-08
-9.256e-08
-9.37001e-08
-9.48407e-08
-9.59818e-08
-9.71232e-08
-9.82652e-08
-9.94076e-08
-1.0055e-07
-1.01694e-07
-1.02837e-07
-1.03982e-07
-1.05126e-07
-1.06272e-07
-1.07417e-07
-1.08563e-07
-1.0971e-07
-1.10857e-07
-1.12005e-07
-1.13153e-07
-1.14301e-07
-1.1545e-07
-1.166e-07
-1.1775e-07
-1.189e-07
-1.20051e-07
-1.21203e-07
-1.22355e-07
-1.23507e-07
-1.2466e-07
-1.25814e-07
-1.26968e-07
-1.28123e-07
-1.29278e-07
-1.30434e-07
-1.31589e-07
-1.32747e-07
-1.33903e-07
-1.35063e-07
-1.36218e-07
-1.37381e-07
-1.38535e-07
-1.39703e-07
-1.40852e-07
-1.4203e-07
-1.43168e-07
-1.44362e-07
-1.45484e-07
-1.467e-07
-1.47798e-07
-1.49044e-07
-1.5011e-07
-1.51395e-07
-1.52421e-07
-1.53751e-07
-1.54731e-07
-1.56113e-07
-1.57041e-07
-1.5848e-07
-1.59349e-07
-1.60855e-07
-1.61654e-07
-1.63241e-07
-1.6395e-07
-1.65644e-07
-1.66229e-07
-1.68072e-07
-1.68484e-07
-1.70536e-07
-1.70702e-07
-1.73046e-07
-1.72874e-07
-1.75612e-07
-1.74989e-07
-1.78244e-07
-1.77037e-07
-1.8095e-07
-1.79012e-07
-1.83734e-07
-1.80909e-07
-1.86601e-07
-1.82725e-07
-1.89551e-07
-1.84467e-07
-1.92568e-07
-1.8617e-07
-1.95609e-07
-1.87919e-07
-1.98571e-07
-1.89927e-07
-2.01218e-07
-1.92673e-07
-2.03035e-07
-1.97256e-07
-2.0285e-07
-2.06192e-07
-1.97793e-07
-2.25413e-07
-1.79313e-07
-2.69166e-07
-1.10514e-07
-3.6828e-07
3.68118e-07
-2.09858e-07
-2.09858e-07
-0.125293
0.125293
0.0249362
0.00835835
0.00427834
0.00266187
0.00183409
0.00134671
0.00103425
0.000822069
0.000671754
0.000561619
0.000478602
0.000414455
0.00036378
0.000322947
0.000289452
0.000261535
0.000237937
0.000217745
0.000200286
0.000185049
0.000171635
0.000159734
0.000149108
0.00013958
0.000131003
0.000123242
0.000116172
0.00010969
0.00010373
9.82551e-05
9.32273e-05
8.85856e-05
8.42505e-05
8.01545e-05
7.62702e-05
7.2609e-05
6.91873e-05
6.59849e-05
6.29297e-05
5.99221e-05
5.6882e-05
5.37849e-05
5.06608e-05
4.75585e-05
4.4504e-05
4.14821e-05
3.8456e-05
3.54098e-05
3.2385e-05
2.94832e-05
2.68312e-05
2.45263e-05
2.25912e-05
2.09633e-05
1.95211e-05
1.81361e-05
1.67227e-05
1.52663e-05
1.38184e-05
1.24667e-05
1.12943e-05
1.03455e-05
9.61148e-06
9.03521e-06
8.53286e-06
8.01981e-06
7.43282e-06
6.74245e-06
5.95424e-06
5.10119e-06
4.23137e-06
3.39509e-06
2.63468e-06
1.97852e-06
1.43939e-06
1.01622e-06
6.9787e-07
4.67442e-07
3.06201e-07
1.96413e-07
1.23019e-07
7.42781e-08
4.16717e-08
1.93969e-08
3.71063e-09
-7.70099e-09
-1.62358e-08
-2.27456e-08
-2.7776e-08
-3.17062e-08
-3.48219e-08
-3.73488e-08
-3.94668e-08
-4.13154e-08
-4.29989e-08
-4.45902e-08
-4.61373e-08
-4.7669e-08
-4.92004e-08
-5.07377e-08
-5.22819e-08
-5.38315e-08
-5.53842e-08
-5.69376e-08
-5.84898e-08
-6.00399e-08
-6.15872e-08
-6.31318e-08
-6.46739e-08
-6.6214e-08
-6.77526e-08
-6.92902e-08
-7.08272e-08
-7.23639e-08
-7.39007e-08
-7.54376e-08
-7.69748e-08
-7.85122e-08
-8.00499e-08
-8.15877e-08
-8.31256e-08
-8.46634e-08
-8.62011e-08
-8.77386e-08
-8.92757e-08
-9.08124e-08
-9.23487e-08
-9.38843e-08
-9.54193e-08
-9.69537e-08
-9.84874e-08
-1.0002e-07
-1.01552e-07
-1.03084e-07
-1.04614e-07
-1.06144e-07
-1.07673e-07
-1.09202e-07
-1.10729e-07
-1.12256e-07
-1.13782e-07
-1.15307e-07
-1.16832e-07
-1.18356e-07
-1.19879e-07
-1.21401e-07
-1.22923e-07
-1.24444e-07
-1.25964e-07
-1.27484e-07
-1.29003e-07
-1.30521e-07
-1.32039e-07
-1.33556e-07
-1.35072e-07
-1.36588e-07
-1.38103e-07
-1.39618e-07
-1.41132e-07
-1.42645e-07
-1.44158e-07
-1.45671e-07
-1.47182e-07
-1.48694e-07
-1.50204e-07
-1.51714e-07
-1.53224e-07
-1.54733e-07
-1.56242e-07
-1.5775e-07
-1.59258e-07
-1.60765e-07
-1.62272e-07
-1.63778e-07
-1.65284e-07
-1.6679e-07
-1.68295e-07
-1.698e-07
-1.71304e-07
-1.72809e-07
-1.74312e-07
-1.75816e-07
-1.77319e-07
-1.78822e-07
-1.80324e-07
-1.81827e-07
-1.83329e-07
-1.84831e-07
-1.86332e-07
-1.87834e-07
-1.89335e-07
-1.90836e-07
-1.92337e-07
-1.93837e-07
-1.95338e-07
-1.96838e-07
-1.98339e-07
-1.99839e-07
-2.01339e-07
-2.02839e-07
-2.04339e-07
-2.05839e-07
-2.07339e-07
-2.08839e-07
-2.10339e-07
-2.11839e-07
-2.13339e-07
-2.14839e-07
-2.16339e-07
-2.17839e-07
-2.19339e-07
-2.2084e-07
-2.2234e-07
-2.23841e-07
-2.25341e-07
-2.26842e-07
-2.28343e-07
-2.29844e-07
-2.31346e-07
-2.32847e-07
-2.34349e-07
-2.35851e-07
-2.37353e-07
-2.38855e-07
-2.40358e-07
-2.4186e-07
-2.43364e-07
-2.44867e-07
-2.46371e-07
-2.47875e-07
-2.49379e-07
-2.50883e-07
-2.52388e-07
-2.53893e-07
-2.55399e-07
-2.56905e-07
-2.58411e-07
-2.59918e-07
-2.61425e-07
-2.62932e-07
-2.6444e-07
-2.65948e-07
-2.67457e-07
-2.68966e-07
-2.70475e-07
-2.71985e-07
-2.73495e-07
-2.75006e-07
-2.76517e-07
-2.78029e-07
-2.79541e-07
-2.81054e-07
-2.82567e-07
-2.8408e-07
-2.85594e-07
-2.87109e-07
-2.88624e-07
-2.90139e-07
-2.91655e-07
-2.93172e-07
-2.94689e-07
-2.96206e-07
-2.97724e-07
-2.99243e-07
-3.00762e-07
-3.02281e-07
-3.03802e-07
-3.05322e-07
-3.06844e-07
-3.08366e-07
-3.09888e-07
-3.11411e-07
-3.12935e-07
-3.14459e-07
-3.15983e-07
-3.17509e-07
-3.19035e-07
-3.20561e-07
-3.22088e-07
-3.23616e-07
-3.25144e-07
-3.26673e-07
-3.28203e-07
-3.29733e-07
-3.31264e-07
-3.32795e-07
-3.34327e-07
-3.3586e-07
-3.37393e-07
-3.38927e-07
-3.40462e-07
-3.41997e-07
-3.43533e-07
-3.4507e-07
-3.46607e-07
-3.48145e-07
-3.49683e-07
-3.51223e-07
-3.52763e-07
-3.54303e-07
-3.55845e-07
-3.57387e-07
-3.58929e-07
-3.60473e-07
-3.62017e-07
-3.63562e-07
-3.65107e-07
-3.66653e-07
-3.682e-07
-3.69748e-07
-3.71297e-07
-3.72846e-07
-3.74396e-07
-3.75946e-07
-3.77498e-07
-3.7905e-07
-3.80603e-07
-3.82157e-07
-3.83711e-07
-3.85266e-07
-3.86822e-07
-3.88379e-07
-3.89937e-07
-3.91495e-07
-3.93054e-07
-3.94614e-07
-3.96175e-07
-3.97737e-07
-3.99299e-07
-4.00864e-07
-4.02426e-07
-4.03994e-07
-4.05554e-07
-4.07129e-07
-4.08685e-07
-4.10271e-07
-4.11815e-07
-4.13421e-07
-4.14943e-07
-4.16581e-07
-4.18067e-07
-4.19753e-07
-4.21187e-07
-4.22937e-07
-4.24302e-07
-4.26133e-07
-4.27412e-07
-4.29341e-07
-4.3052e-07
-4.32559e-07
-4.33625e-07
-4.35787e-07
-4.36727e-07
-4.39029e-07
-4.3982e-07
-4.42294e-07
-4.42892e-07
-4.45594e-07
-4.45928e-07
-4.48947e-07
-4.48909e-07
-4.52374e-07
-4.51813e-07
-4.55899e-07
-4.54614e-07
-4.59543e-07
-4.57292e-07
-4.63327e-07
-4.59828e-07
-4.67266e-07
-4.62204e-07
-4.71373e-07
-4.64411e-07
-4.75656e-07
-4.66443e-07
-4.80115e-07
-4.68315e-07
-4.8472e-07
-4.70097e-07
-4.89378e-07
-4.71975e-07
-4.93872e-07
-4.74395e-07
-4.97711e-07
-4.78375e-07
-4.99809e-07
-4.86249e-07
-4.97709e-07
-5.03356e-07
-4.85391e-07
-5.42258e-07
-4.44911e-07
-6.32917e-07
-2.9875e-07
-8.378e-07
6.95834e-07
-5.03868e-07
-5.03868e-07
-0.146488
0.146488
0.0383108
0.0142344
0.0074564
0.00467314
0.00323095
0.00237693
0.00182749
0.00145347
0.00118804
0.000993303
0.000846381
0.000732785
0.000643017
0.000570673
0.000511333
0.000461884
0.000420095
0.000384349
0.000353449
0.00032649
0.000302762
0.000281716
0.000262933
0.000246092
0.000230935
0.000217219
0.000204723
0.00019327
0.000182744
0.000173075
0.000164192
0.000155984
0.000148314
0.000141067
0.0001342
0.000127728
0.000121673
0.000115992
0.000110556
0.000105196
9.97818e-05
9.42755e-05
8.87293e-05
8.32235e-05
7.77984e-05
7.24288e-05
6.70588e-05
6.16733e-05
5.63536e-05
5.12775e-05
4.6657e-05
4.26464e-05
3.92712e-05
3.64147e-05
3.38679e-05
3.14167e-05
2.89245e-05
2.6374e-05
2.38567e-05
2.15194e-05
1.94958e-05
1.78524e-05
1.65657e-05
1.55343e-05
1.46157e-05
1.36699e-05
1.25958e-05
1.13502e-05
9.9479e-06
8.44863e-06
6.93519e-06
5.49215e-06
4.18914e-06
3.07144e-06
2.1578e-06
1.44391e-06
9.09004e-07
5.23217e-07
2.54124e-07
7.14182e-08
-5.04093e-08
-1.31117e-07
-1.84963e-07
-2.21618e-07
-2.47299e-07
-2.65844e-07
-2.7957e-07
-2.89895e-07
-2.97731e-07
-3.03716e-07
-3.08332e-07
-3.11962e-07
-3.14908e-07
-3.17406e-07
-3.1963e-07
-3.21701e-07
-3.23699e-07
-3.25672e-07
-3.27645e-07
-3.29626e-07
-3.31619e-07
-3.33619e-07
-3.35624e-07
-3.3763e-07
-3.39633e-07
-3.41632e-07
-3.43625e-07
-3.45614e-07
-3.47599e-07
-3.4958e-07
-3.51559e-07
-3.53536e-07
-3.55512e-07
-3.57487e-07
-3.59463e-07
-3.61439e-07
-3.63416e-07
-3.65393e-07
-3.67371e-07
-3.69349e-07
-3.71328e-07
-3.73306e-07
-3.75285e-07
-3.77263e-07
-3.79241e-07
-3.81219e-07
-3.83196e-07
-3.85172e-07
-3.87147e-07
-3.89122e-07
-3.91095e-07
-3.93068e-07
-3.9504e-07
-3.9701e-07
-3.9898e-07
-4.00948e-07
-4.02916e-07
-4.04883e-07
-4.06848e-07
-4.08813e-07
-4.10777e-07
-4.1274e-07
-4.14702e-07
-4.16663e-07
-4.18624e-07
-4.20583e-07
-4.22542e-07
-4.245e-07
-4.26457e-07
-4.28414e-07
-4.3037e-07
-4.32325e-07
-4.3428e-07
-4.36233e-07
-4.38187e-07
-4.40139e-07
-4.42091e-07
-4.44042e-07
-4.45993e-07
-4.47943e-07
-4.49893e-07
-4.51842e-07
-4.53791e-07
-4.55739e-07
-4.57686e-07
-4.59634e-07
-4.6158e-07
-4.63526e-07
-4.65472e-07
-4.67417e-07
-4.69362e-07
-4.71307e-07
-4.73251e-07
-4.75194e-07
-4.77138e-07
-4.79081e-07
-4.81024e-07
-4.82966e-07
-4.84908e-07
-4.8685e-07
-4.88792e-07
-4.90733e-07
-4.92675e-07
-4.94616e-07
-4.96556e-07
-4.98497e-07
-5.00438e-07
-5.02378e-07
-5.04318e-07
-5.06258e-07
-5.08199e-07
-5.10139e-07
-5.12079e-07
-5.14019e-07
-5.15959e-07
-5.17898e-07
-5.19838e-07
-5.21778e-07
-5.23718e-07
-5.25659e-07
-5.27599e-07
-5.29539e-07
-5.3148e-07
-5.3342e-07
-5.35361e-07
-5.37302e-07
-5.39243e-07
-5.41184e-07
-5.43125e-07
-5.45067e-07
-5.47009e-07
-5.48951e-07
-5.50894e-07
-5.52836e-07
-5.54779e-07
-5.56722e-07
-5.58666e-07
-5.6061e-07
-5.62554e-07
-5.64499e-07
-5.66444e-07
-5.68389e-07
-5.70335e-07
-5.72281e-07
-5.74228e-07
-5.76175e-07
-5.78123e-07
-5.80071e-07
-5.82019e-07
-5.83968e-07
-5.85917e-07
-5.87867e-07
-5.89818e-07
-5.91769e-07
-5.9372e-07
-5.95672e-07
-5.97625e-07
-5.99578e-07
-6.01532e-07
-6.03486e-07
-6.05441e-07
-6.07397e-07
-6.09353e-07
-6.1131e-07
-6.13267e-07
-6.15226e-07
-6.17184e-07
-6.19144e-07
-6.21104e-07
-6.23065e-07
-6.25026e-07
-6.26988e-07
-6.28951e-07
-6.30914e-07
-6.32879e-07
-6.34844e-07
-6.36809e-07
-6.38775e-07
-6.40743e-07
-6.4271e-07
-6.44679e-07
-6.46648e-07
-6.48618e-07
-6.50589e-07
-6.52561e-07
-6.54533e-07
-6.56506e-07
-6.5848e-07
-6.60455e-07
-6.62431e-07
-6.64407e-07
-6.66384e-07
-6.68362e-07
-6.70341e-07
-6.72321e-07
-6.74301e-07
-6.76282e-07
-6.78265e-07
-6.80248e-07
-6.82231e-07
-6.84216e-07
-6.86202e-07
-6.88188e-07
-6.90176e-07
-6.92164e-07
-6.94153e-07
-6.96143e-07
-6.98134e-07
-7.00126e-07
-7.02119e-07
-7.04113e-07
-7.06107e-07
-7.08103e-07
-7.10099e-07
-7.12097e-07
-7.14095e-07
-7.16095e-07
-7.18095e-07
-7.20096e-07
-7.22099e-07
-7.24102e-07
-7.26106e-07
-7.28111e-07
-7.30118e-07
-7.32125e-07
-7.34133e-07
-7.36143e-07
-7.38153e-07
-7.40164e-07
-7.42177e-07
-7.4419e-07
-7.46205e-07
-7.4822e-07
-7.50237e-07
-7.52255e-07
-7.54274e-07
-7.56293e-07
-7.58314e-07
-7.60337e-07
-7.6236e-07
-7.64384e-07
-7.6641e-07
-7.68436e-07
-7.70464e-07
-7.72493e-07
-7.74524e-07
-7.76555e-07
-7.78588e-07
-7.8062e-07
-7.82657e-07
-7.8469e-07
-7.86733e-07
-7.88763e-07
-7.90817e-07
-7.92837e-07
-7.9491e-07
-7.96911e-07
-7.99017e-07
-8.0098e-07
-8.03139e-07
-8.05041e-07
-8.07281e-07
-8.09094e-07