# vtk DataFile Version 2.0
FlowField
ASCII
DATASET STRUCTURED_GRID
DIMENSIONS 400 1 200
POINTS 80000 float
0 0 0
0.08 0 0
0.16 0 0
0.24 0 0
0.32 0 0
0.4 0 0
0.48 0 0
0.56 0 0
0.64 0 0
0.72 0 0
0.8 0 0
0.88 0 0
0.96 0 0
1.04 0 0
1.12 0 0
1.2 0 0
1.28 0 0
1.36 0 0
1.44 0 0
1.52 0 0
1.6 0 0
1.68 0 0
1.76 0 0
1.84 0 0
1.92 0 0
2 0 0
2.08 0 0
2.16 0 0
2.24 0 0
2.32 0 0
2.4 0 0
2.48 0 0
2.56 0 0
2.64 0 0
2.72 0 0
2.8 0 0
2.88 0 0
2.96 0 0
3.04 0 0
3.12 0 0
3.2 0 0
3.28 0 0
3.36 0 0
3.44 0 0
3.52 0 0
3.6 0 0
3.68 0 0
3.76 0 0
3.84 0 0
3.92 0 0
4 0 0
4.08 0 0
4.16 0 0
4.24 0 0
4.32 0 0
4.4 0 0
4.48 0 0
4.56 0 0
4.64 0 0
4.72 0 0
4.8 0 0
4.88 0 0
4.96 0 0
5.04 0 0
5.12 0 0
5.2 0 0
5.28 0 0
5.36 0 0
5.44 0 0
5.52 0 0
5.6 0 0
5.68 0 0
5.76 0 0
5.84 0 0
5.92 0 0
6 0 0
6.08 0 0
6.16 0 0
6.24 0 0
6.32 0 0
6.4 0 0
6.48 0 0
6.56 0 0
6.64 0 0
6.72 0 0
6.8 0 0
6.88 0 0
6.96 0 0
7.04 0 0
7.12 0 0
7.2 0 0
7.28 0 0
7.36 0 0
7.44 0 0
7.52 0 0
7.6 0 0
7.68 0 0
7.76 0 0
7.84 0 0
7.92 0 0
8 0 0
8.08 0 0
8.16 0 0
8.24 0 0
8.32 0 0
8.4 0 0
8.48 0 0
8.56 0 0
8.64 0 0
8.72 0 0
8.8 0 0
8.88 0 0
8.96 0 0
9.04 0 0
9.12 0 0
9.2 0 0
9.28 0 0
9.36 0 0
9.44 0 0
9.52 0 0
9.6 0 0
9.68 0 0
9.76 0 0
9.84 0 0
9.92 0 0
10 0 0
10.08 0 0
10.16 0 0
10.24 0 0
10.32 0 0
10.4 0 0
10.48 0 0
10.56 0 0
10.64 0 0
10.72 0 0
10.8 0 0
10.88 0 0
10.96 0 0
11.04 0 0
11.12 0 0
11.2 0 0
11.28 0 0
11.36 0 0
11.44 0 0
11.52 0 0
11.6 0 0
11.68 0 0
11.76 0 0
11.84 0 0
11.92 0 0
12 0 0
12.08 0 0
12.16 0 0
12.24 0 0
12.32 0 0
12.4 0 0
12.48 0 0
12.56 0 0
12.64 0 0
12.72 0 0
12.8 0 0
12.88 0 0
12.96 0 0
13.04 0 0
13.12 0 0
13.2 0 0
13.28 0 0
13.36 0 0
13.44 0 0
13.52 0 0
13.6 0 0
13.68 0 0
13.76 0 0
13.84 0 0
13.92 0 0
14 0 0
14.08 0 0
14.16 0 0
14.24 0 0
14.32 0 0
14.4 0 0
14.48 0 0
14.56 0 0
14.64 0 0
14.72 0 0
14.8 0 0
14.88 0 0
14.96 0 0
15.04 0 0
15.12 0 0
15.2 0 0
15.28 0 0
15.36 0 0
15.44 0 0
15.52 0 0
15.6 0 0
15.68 0 0
15.76 0 0
15.84 0 0
15.92 0 0
16 0 0
16.08 0 0
16.16 0 0
16.24 0 0
16.32 0 0
16.4 0 0
16.48 0 0
16.56 0 0
16.64 0 0
16.72 0 0
16.8 0 0
16.88 0 0
16.96 0 0
17.04 0 0
17.12 0 0
17.2 0 0
17.28 0 0
17.36 0 0
17.44 0 0
17.52 0 0
17.6 0 0
17.68 0 0
17.76 0 0
17.84 0 0
17.92 0 0
18 0 0
18.08 0 0
18.16 0 0
18.24 0 0
18.32 0 0
18.4 0 0
18.48 0 0
18.56 0 0
18.64 0 0
18.72 0 0
18.8 0 0
18.88 0 0
18.96 0 0
19.04 0 0
19.12 0 0
19.2 0 0
19.28 0 0
19.36 0 0
19.44 0 0
19.52 0 0
19.6 0 0
19.68 0 0
19.76 0 0
19.84 0 0
19.92 0 0
20 0 0
20.08 0 0
20.16 0 0
20.24 0 0
20.32 0 0
20.4 0 0
20.48 0 0
20.56 0 0
20.64 0 0
20.72 0 0
20.8 0 0
20.88 0 0
20.96 0 0
21.04 0 0
21.12 0 0
21.2 0 0
21.28 0 0
21.36 0 0
21.44 0 0
21.52 0 0
21.6 0 0
21.68 0 0
21.76 0 0
21.84 0 0
21.92 0 0
22 0 0
22.08 0 0
22.16 0 0
22.24 0 0
22.32 0 0
22.4 0 0
22.48 0 0
22.56 0 0
22.64 0 0
22.72 0 0
22.8 0 0
22.88 0 0
22.96 0 0
23.04 0 0
23.12 0 0
23.2 0 0
23.28 0 0
23.36 0 0
23.44 0 0
23.52 0 0
23.6 0 0
23.68 0 0
23.76 0 0
23.84 0 0
23.92 0 0
24 0 0
24.08 0 0
24.16 0 0
24.24 0 0
24.32 0 0
24.4 0 0
24.48 0 0
24.56 0 0
24.64 0 0
24.72 0 0
24.8 0 0
24.88 0 0
24.96 0 0
25.04 0 0
25.12 0 0
25.2 0 0
25.28 0 0
25.36 0 0
25.44 0 0
25.52 0 0
25.6 0 0
25.68 0 0
25.76 0 0
25.84 0 0
25.92 0 0
26 0 0
26.08 0 0
26.16 0 0
26.24 0 0
26.32 0 0
26.4 0 0
26.48 0 0
26.56 0 0
26.64 0 0
26.72 0 0
26.8 0 0
26.88 0 0
26.96 0 0
27.04 0 0
27.12 0 0
27.2 0 0
27.28 0 0
27.36 0 0
27.44 0 0
27.52 0 0
27.6 0 0
27.68 0 0
27.76 0 0
27.84 0 0
27.92 0 0
28 0 0
28.08 0 0
28.16 0 0
28.24 0 0
28.32 0 0
28.4 0 0
28.48 0 0
28.56 0 0
28.64 0 0
28.72 0 0
28.8 0 0
28.88 0 0
28.96 0 0
29.04 0 0
29.12 0 0
29.2 0 0
29.28 0 0
29.36 0 0
29.44 0 0
29.52 0 0
29.6 0 0
29.68 0 0
29.76 0 0
29.84 0 0
29.92 0 0
30 0 0
30.08 0 0
30.16 0 0
30.24 0 0
30.32 0 0
30.4 0 0
30.48 0 0
30.56 0 0
30.64 0 0
30.72 0 0
30.8 0 0
30.88 0 0
30.96 0 0
31.04 0 0
31.12 0 0
31.2 0 0
31.28 0 0
31.36 0 0
31.44 0 0
31.52 0 0
31.6 0 0
31.68 0 0
31.76 0 0
31.84 0 0
31.92 0 0
0 0.005 0
0.08 0.005 0
0.16 0.005 0
0.24 0.005 0
0.32 0.005 0
0.4 0.005 0
0.48 0.005 0
0.56 0.005 0
0.64 0.005 0
0.72 0.005 0
0.8 0.005 0
0.88 0.005 0
0.96 0.005 0
1.04 0.005 0
1.12 0.005 0
1.2 0.005 0
1.28 0.005 0
1.36 0.005 0
1.44 0.005 0
1.52 0.005 0
1.6 0.005 0
1.68 0.005 0
1.76 0.005 0
1.84 0.005 0
1.92 0.005 0
2 0.005 0
2.08 0.005 0
2.16 0.005 0
2.24 0.005 0
2.32 0.005 0
2.4 0.005 0
2.48 0.005 0
2.56 0.005 0
2.64 0.005 0
2.72 0.005 0
2.8 0.005 0
2.88 0.005 0
2.96 0.005 0
3.04 0.005 0
3.12 0.005 0
3.2 0.005 0
3.28 0.005 0
3.36 0.005 0
3.44 0.005 0
3.52 0.005 0
3.6 0.005 0
3.68 0.005 0
3.76 0.005 0
3.84 0.005 0
3.92 0.005 0
4 0.005 0
4.08 0.005 0
4.16 0.005 0
4.24 0.005 0
4.32 0.005 0
4.4 0.005 0
4.48 0.005 0
4.56 0.005 0
4.64 0.005 0
4.72 0.005 0
4.8 0.005 0
4.88 0.005 0
4.96 0.005 0
5.04 0.005 0
5.12 0.005 0
5.2 0.005 0
5.28 0.005 0
5.36 0.005 0
5.44 0.005 0
5.52 0.005 0
5.6 0.005 0
5.68 0.005 0
5.76 0.005 0
5.84 0.005 0
5.92 0.005 0
6 0.005 0
6.08 0.005 0
6.16 0.005 0
6.24 0.005 0
6.32 0.005 0
6.4 0.005 0
6.48 0.005 0
6.56 0.005 0
6.64 0.005 0
6.72 0.005 0
6.8 0.005 0
6.88 0.005 0
6.96 0.005 0
7.04 0.005 0
7.12 0.005 0
7.2 0.005 0
7.28 0.005 0
7.36 0.005 0
7.44 0.005 0
7.52 0.005 0
7.6 0.005 0
7.68 0.005 0
7.76 0.005 0
7.84 0.005 0
7.92 0.005 0
8 0.005 0
8.08 0.005 0
8.16 0.005 0
8.24 0.005 0
8.32 0.005 0
8.4 0.005 0
8.48 0.005 0
8.56 0.005 0
8.64 0.005 0
8.72 0.005 0
8.8 0.005 0
8.88 0.005 0
8.96 0.005 0
9.04 0.005 0
9.12 0.005 0
9.2 0.005 0
9.28 0.005 0
9.36 0.005 0
9.44 0.005 0
9.52 0.005 0
9.6 0.005 0
9.68 0.005 0
9.76 0.005 0
9.84 0.005 0
9.92 0.005 0
10 0.005 0
10.08 0.005 0
10.16 0.005 0
10.24 0.005 0
10.32 0.005 0
10.4 0.005 0
10.48 0.005 0
10.56 0.005 0
10.64 0.005 0
10.72 0.005 0
10.8 0.005 0
10.88 0.005 0
10.96 0.005 0
11.04 0.005 0
11.12 0.005 0
11.2 0.005 0
11.28 0.005 0
11.36 0.005 0
11.44 0.005 0
11.52 0.005 0
11.6 0.005 0
11.68 0.005 0
11.76 0.005 0
11.84 0.005 0
11.92 0.005 0
12 0.005 0
12.08 0.005 0
12.16 0.005 0
12.24 0.005 0
12.32 0.005 0
12.4 0.005 0
12.48 0.005 0
12.56 0.005 0
12.64 0.005 0
12.72 0.005 0
12.8 0.005 0
12.88 0.005 0
12.96 0.005 0
13.04 0.005 0
13.12 0.005 0
13.2 0.005 0
13.28 0.005 0
13.36 0.005 0
13.44 0.005 0
13.52 0.005 0
13.6 0.005 0
13.68 0.005 0
13.76 0.005 0
13.84 0.005 0
13.92 0.005 0
14 0.005 0
14.08 0.005 0
14.16 0.005 0
14.24 0.005 0
14.32 0.005 0
14.4 0.005 0
14.48 0.005 0
14.56 0.005 0
14.64 0.005 0
14.72 0.005 0
14.8 0.005 0
14.88 0.005 0
14.96 0.005 0
15.04 0.005 0
15.12 0.005 0
15.2 0.005 0
15.28 0.005 0
15.36 0.005 0
15.44 0.005 0
15.52 0.005 0
15.6 0.005 0
15.68 0.005 0
15.76 0.005 0
15.84 0.005 0
15.92 0.005 0
16 0.005 0
16.08 0.005 0
16.16 0.005 0
16.24 0.005 0
16.32 0.005 0
16.4 0.005 0
16.48 0.005 0
16.56 0.005 0
16.64 0.005 0
16.72 0.005 0
16.8 0.005 0
16.88 0.005 0
16.96 0.005 0
17.04 0.005 0
17.12 0.005 0
17.2 0.005 0
17.28 0.005 0
17.36 0.005 0
17.44 0.005 0
17.52 0.005 0
17.6 0.005 0
17.68 0.005 0
17.76 0.005 0
17.84 0.005 0
17.92 0.005 0
18 0.005 0
18.08 0.005 0
18.16 0.005 0
18.24 0.005 0
18.32 0.005 0
18.4 0.005 0
18.48 0.005 0
18.56 0.005 0
18.64 0.005 0
18.72 0.005 0
18.8 0.005 0
18.88 0.005 0
18.96 0.005 0
19.04 0.005 0
19.12 0.005 0
19.2 0.005 0
19.28 0.005 0
19.36 0.005 0
19.44 0.005 0
19.52 0.005 0
19.6 0.005 0
19.68 0.005 0
19.76 0.005 0
19.84 0.005 0
19.92 0.005 0
20 0.005 0
20.08 0.005 0
20.16 0.005 0
20.24 0.005 0
20.32 0.005 0
20.4 0.005 0
20.48 0.005 0
20.56 0.005 0
20.64 0.005 0
20.72 0.005 0
20.8 0.005 0
20.88 0.005 0
20.96 0.005 0
21.04 0.005 0
21.12 0.005 0
21.2 0.005 0
21.28 0.005 0
21.36 0.005 0
21.44 0.005 0
21.52 0.005 0
21.6 0.005 0
21.68 0.005 0
21.76 0.005 0
21.84 0.005 0
21.92 0.005 0
22 0.005 0
22.08 0.005 0
22.16 0.005 0
22.24 0.005 0
22.32 0.005 0
22.4 0.005 0
22.48 0.005 0
22.56 0.005 0
22.64 0.005 0
22.72 0.005 0
22.8 0.005 0
22.88 0.005 0
22.96 0.005 0
23.04 0.005 0
23.12 0.005 0
23.2 0.005 0
23.28 0.005 0
23.36 0.005 0
23.44 0.005 0
23.52 0.005 0
23.6 0.005 0
23.68 0.005 0
23.76 0.005 0
23.84 0.005 0
23.92 0.005 0
24 0.005 0
24.08 0.005 0
24.16 0.005 0
24.24 0.005 0
24.32 0.005 0
24.4 0.005 0
24.48 0.005 0
24.56 0.005 0
24.64 0.005 0
24.72 0.005 0
24.8 0.005 0
24.88 0.005 0
24.96 0.005 0
25.04 0.005 0
25.12 0.005 0
25.2 0.005 0
25.28 0.005 0
25.36 0.005 0
25.44 0.005 0
25.52 0.005 0
25.6 0.005 0
25.68 0.005 0
25.76 0.005 0
25.84 0.005 0
25.92 0.005 0
26 0.005 0
26.08 0.005 0
26.16 0.005 0
26.24 0.005 0
26.32 0.005 0
26.4 0.005 0
26.48 0.005 0
26.56 0.005 0
26.64 0.005 0
26.72 0.005 0
26.8 0.005 0
26.88 0.005 0
26.96 0.005 0
27.04 0.005 0
27.12 0.005 0
27.2 0.005 0
27.28 0.005 0
27.36 0.005 0
27.44 0.005 0
27.52 0.005 0
27.6 0.005 0
27.68 0.005 0
27.76 0.005 0
27.84 0.005 0
27.92 0.005 0
28 0.005 0
28.08 0.005 0
28.16 0.005 0
28.24 0.005 0
28.32 0.005 0
28.4 0.005 0
28.48 0.005 0
28.56 0.005 0
28.64 0.005 0
28.72 0.005 0
28.8 0.005 0
28.88 0.005 0
28.96 0.005 0
29.04 0.005 0
29.12 0.005 0
29.2 0.005 0
29.28 0.005 0
29.36 0.005 0
29.44 0.005 0
29.52 0.005 0
29.6 0.005 0
29.68 0.005 0
29.76 0.005 0
29.84 0.005 0
29.92 0.005 0
30 0.005 0
30.08 0.005 0
30.16 0.005 0
30.24 0.005 0
30.32 0.005 0
30.4 0.005 0
30.48 0.005 0
30.56 0.005 0
30.64 0.005 0
30.72 0.005 0
30.8 0.005 0
30.88 0.005 0
30.96 0.005 0
31.04 0.005 0
31.12 0.005 0
31.2 0.005 0
31.28 0.005 0
31.36 0.005 0
31.44 0.005 0
31.52 0.005 0
31.6 0.005 0
31.68 0.005 0
31.76 0.005 0
31.84 0.005 0
31.92 0.005 0
0 0.01 0
0.08 0.01 0
0.16 0.01 0
0.24 0.01 0
0.32 0.01 0
0.4 0.01 0
0.48 0.01 0
0.56 0.01 0
0.64 0.01 0
0.72 0.01 0
0.8 0.01 0
0.88 0.01 0
0.96 0.01 0
1.04 0.01 0
1.12 0.01 0
1.2 0.01 0
1.28 0.01 0
1.36 0.01 0
1.44 0.01 0
1.52 0.01 0
1.6 0.01 0
1.68 0.01 0
1.76 0.01 0
1.84 0.01 0
1.92 0.01 0
2 0.01 0
2.08 0.01 0
2.16 0.01 0
2.24 0.01 0
2.32 0.01 0
2.4 0.01 0
2.48 0.01 0
2.56 0.01 0
2.64 0.01 0
2.72 0.01 0
2.8 0.01 0
2.88 0.01 0
2.96 0.01 0
3.04 0.01 0
3.12 0.01 0
3.2 0.01 0
3.28 0.01 0
3.36 0.01 0
3.44 0.01 0
3.52 0.01 0
3.6 0.01 0
3.68 0.01 0
3.76 0.01 0
3.84 0.01 0
3.92 0.01 0
4 0.01 0
4.08 0.01 0
4.16 0.01 0
4.24 0.01 0
4.32 0.01 0
4.4 0.01 0
4.48 0.01 0
4.56 0.01 0
4.64 0.01 0
4.72 0.01 0
4.8 0.01 0
4.88 0.01 0
4.96 0.01 0
5.04 0.01 0
5.12 0.01 0
[...]
POINT_DATA 80000

SCALARS u float 1
LOOKUP_TABLE default
0
-0.131663
-0.0682697
-0.0522969
-0.0444214
-0.0395791
-0.0362635
-0.0338385
-0.0319812
-0.0305077
-0.0293063
-0.0283048
-0.0274538
-0.0267189
-0.0260767
-0.0255118
-0.0250132
-0.0245707
-0.024175
-0.0238197
-0.0235034
-0.0232293
-0.0230018
-0.0228221
-0.0226858
-0.0225832
-0.0225026
-0.0224339
-0.0223709
-0.0223116
-0.022257
-0.0222095
-0.0221709
-0.0221421
-0.0221227
-0.0221112
-0.0221057
-0.0221044
-0.0221057
-0.0221083
-0.0221116
-0.022115
-0.0221183
-0.0221215
-0.0221245
-0.0221274
-0.0221303
-0.0221332
-0.022136
-0.0221389
-0.0221417
-0.0221446
-0.0221475
-0.0221504
-0.0221533
-0.0221562
-0.0221591
-0.0221621
-0.022165
-0.022168
-0.0221709
-0.0221739
-0.0221768
-0.0221798
-0.0221828
-0.0221858
-0.0221888
-0.0221918
-0.0221948
-0.0221978
-0.0222008
-0.0222038
-0.0222068
-0.0222098
-0.0222128
-0.0222159
-0.0222189
-0.0222219
-0.022225
-0.022228
-0.0222311
-0.0222341
-0.0222372
-0.0222402
-0.0222433
-0.0222464
-0.0222495
-0.0222525
-0.0222556
-0.0222587
-0.0222618
-0.0222649
-0.022268
-0.0222712
-0.0222743
-0.0222774
-0.0222805
-0.0222837
-0.0222868
-0.0222899
-0.0222931
-0.0222962
-0.0222994
-0.0223026
-0.0223057
-0.0223089
-0.0223121
-0.0223153
-0.0223185
-0.0223217
-0.0223249
-0.0223281
-0.0223313
-0.0223345
-0.0223377
-0.0223409
-0.0223442
-0.0223474
-0.0223507
-0.0223539
-0.0223572
-0.0223604
-0.0223637
-0.022367
-0.0223703
-0.0223736
-0.0223768
-0.0223802
-0.0223835
-0.0223868
-0.0223901
-0.0223934
-0.0223967
-0.0224001
-0.0224034
-0.0224068
-0.0224101
-0.0224135
-0.0224169
-0.0224203
-0.0224236
-0.022427
-0.0224304
-0.0224338
-0.0224373
-0.0224407
-0.0224441
-0.0224475
-0.022451
-0.0224544
-0.0224579
-0.0224613
-0.0224648
-0.0224683
-0.0224718
-0.0224753
-0.0224788
-0.0224823
-0.0224858
-0.0224893
-0.0224929
-0.0224964
-0.0225
-0.0225035
-0.0225071
-0.0225107
-0.0225143
-0.0225179
-0.0225215
-0.0225251
-0.0225287
-0.0225323
-0.022536
-0.0225396
-0.0225433
-0.0225469
-0.0225506
-0.0225543
-0.022558
-0.0225617
-0.0225654
-0.0225692
-0.0225729
-0.0225766
-0.0225804
-0.0225842
-0.022588
-0.0225917
-0.0225955
-0.0225994
-0.0226032
-0.022607
-0.0226109
-0.0226147
-0.0226186
-0.0226225
-0.0226264
-0.0226303
-0.0226342
-0.0226382
-0.0226421
-0.0226461
-0.02265
-0.022654
-0.022658
-0.0226621
-0.0226661
-0.0226701
-0.0226742
-0.0226783
-0.0226823
-0.0226864
-0.0226906
-0.0226947
-0.0226988
-0.022703
-0.0227072
-0.0227114
-0.0227156
-0.0227198
-0.0227241
-0.0227283
-0.0227326
-0.0227369
-0.0227412
-0.0227456
-0.0227499
-0.0227543
-0.0227587
-0.0227631
-0.0227675
-0.0227719
-0.0227764
-0.0227809
-0.0227854
-0.0227899
-0.0227944
-0.022799
-0.0228035
-0.0228081
-0.0228127
-0.0228174
-0.022822
-0.0228267
-0.0228314
-0.0228361
-0.0228408
-0.0228455
-0.0228503
-0.022855
-0.0228598
-0.0228646
-0.0228695
-0.0228743
-0.0228792
-0.022884
-0.0228889
-0.0228938
-0.0228987
-0.0229037
-0.0229086
-0.0229135
-0.0229185
-0.0229235
-0.0229284
-0.0229334
-0.0229384
-0.0229434
-0.0229484
-0.0229534
-0.0229583
-0.0229633
-0.0229683
-0.0229733
-0.0229782
-0.0229832
-0.0229882
-0.0229931
-0.022998
-0.0230029
-0.0230078
-0.0230126
-0.0230174
-0.0230222
-0.023027
-0.0230317
-0.0230364
-0.0230411
-0.0230457
-0.0230502
-0.0230547
-0.0230592
-0.0230636
-0.0230679
-0.0230722
-0.0230764
-0.0230806
-0.0230846
-0.0230886
-0.0230925
-0.0230963
-0.0231
-0.0231036
-0.0231072
-0.0231106
-0.0231139
-0.0231171
-0.0231202
-0.0231232
-0.0231261
-0.0231288
-0.0231314
-0.0231339
-0.0231363
-0.0231385
-0.0231405
-0.0231424
-0.0231442
-0.0231458
-0.0231473
-0.0231486
-0.0231498
-0.0231508
-0.0231516
-0.0231522
-0.0231527
-0.0231531
-0.0231532
-0.0231532
-0.023153
-0.0231527
-0.0231521
-0.0231514
-0.0231505
-0.0231495
-0.0231482
-0.0231468
-0.0231453
-0.0231435
-0.0231416
-0.0231395
-0.0231373
-0.0231349
-0.0231323
-0.0231296
-0.0231267
-0.0231237
-0.0231205
-0.0231172
-0.0231137
-0.0231101
-0.0231064
-0.0231026
-0.0230986
-0.0230945
-0.0230903
-0.023086
-0.0230816
-0.0230771
-0.0230725
-0.0230679
-0.0230631
-0.0230583
-0.0230535
-0.0230486
-0.0230436
-0.0230386
-0.0230335
-0.0230285
-0.0230234
-0.0230183
-0.0230132
-0.0230081
-0.023003
-0.0229979
-0.0229929
-0.0229877
-0.0229829
-0.0229777
-0.022973
-0.0229679
-0.0229635
-0.0229584
-0.0229541
-0.0229491
-0.022945
-0.0229403
-0.0229363
-0.0229319
-0.0229279
-0.022924
-0.0229199
-0.0229167
-0.0229125
-0.02291
-0.0229054
-0.0229049
-0.0228939
-0.0228939
-0.0228939
1
0.131663
0.0682697
0.0522969
0.0444214
0.0395791
0.0362635
0.0338385
0.0319812
0.0305077
0.0293063
0.0283048
0.0274538
0.0267189
0.0260767
0.0255118
0.0250132
0.0245707
0.024175
0.0238197
0.0235034
0.0232293
0.0230018
0.0228221
0.0226858
0.0225832
0.0225026
0.0224339
0.0223709
0.0223116
0.022257
0.0222095
0.0221709
0.0221421
0.0221227
0.0221112
0.0221057
0.0221044
0.0221057
0.0221083
0.0221116
0.022115
0.0221183
0.0221215
0.0221245
0.0221274
0.0221303
0.0221332
0.022136
0.0221389
0.0221417
0.0221446
0.0221475
0.0221504
0.0221533
0.0221562
0.0221591
0.0221621
0.022165
0.022168
0.0221709
0.0221739
0.0221768
0.0221798
0.0221828
0.0221858
0.0221888
0.0221918
0.0221948
0.0221978
0.0222008
0.0222038
0.0222068
0.0222098
0.0222128
0.0222159
0.0222189
0.0222219
0.022225
0.022228
0.0222311
0.0222341
0.0222372
0.0222402
0.0222433
0.0222464
0.0222495
0.0222525
0.0222556
0.0222587
0.0222618
0.0222649
0.022268
0.0222712
0.0222743
0.0222774
0.0222805
0.0222837
0.0222868
0.0222899
0.0222931
0.0222962
0.0222994
0.0223026
0.0223057
0.0223089
0.0223121
0.0223153
0.0223185
0.0223217
0.0223249
0.0223281
0.0223313
0.0223345
0.0223377
0.0223409
0.0223442
0.0223474
0.0223507
0.0223539
0.0223572
0.0223604
0.0223637
0.022367
0.0223703
0.0223736
0.0223768
0.0223802
0.0223835
0.0223868
0.0223901
0.0223934
0.0223967
0.0224001
0.0224034
0.0224068
0.0224101
0.0224135
0.0224169
0.0224203
0.0224236
0.022427
0.0224304
0.0224338
0.0224373
0.0224407
0.0224441
0.0224475
0.022451
0.0224544
0.0224579
0.0224613
0.0224648
0.0224683
0.0224718
0.0224753
0.0224788
0.0224823
0.0224858
0.0224893
0.0224929
0.0224964
0.0225
0.0225035
0.0225071
0.0225107
0.0225143
0.0225179
0.0225215
0.0225251
0.0225287
0.0225323
0.022536
0.0225396
0.0225433
0.0225469
0.0225506
0.0225543
0.022558
0.0225617
0.0225654
0.0225692
0.0225729
0.0225766
0.0225804
0.0225842
0.022588
0.0225917
0.0225955
0.0225994
0.0226032
0.022607
0.0226109
0.0226147
0.0226186
0.0226225
0.0226264
0.0226303
0.0226342
0.0226382
0.0226421
0.0226461
0.02265
0.022654
0.022658
0.0226621
0.0226661
0.0226701
0.0226742
0.0226783
0.0226823
0.0226864
0.0226906
0.0226947
0.0226988
0.022703
0.0227072
0.0227114
0.0227156
0.0227198
0.0227241
0.0227283
0.0227326
0.0227369
0.0227412
0.0227456
0.0227499
0.0227543
0.0227587
0.0227631
0.0227675
0.0227719
0.0227764
0.0227809
0.0227854
0.0227899
0.0227944
0.022799
0.0228035
0.0228081
0.0228127
0.0228174
0.022822
0.0228267
0.0228314
0.0228361
0.0228408
0.0228455
0.0228503
0.022855
0.0228598
0.0228646
0.0228695
0.0228743
0.0228792
0.022884
0.0228889
0.0228938
0.0228987
0.0229037
0.0229086
0.0229135
0.0229185
0.0229235
0.0229284
0.0229334
0.0229384
0.0229434
0.0229484
0.0229534
0.0229583
0.0229633
0.0229683
0.0229733
0.0229782
0.0229832
0.0229882
0.0229931
0.022998
0.0230029
0.0230078
0.0230126
0.0230174
0.0230222
0.023027
0.0230317
0.0230364
0.0230411
0.0230457
0.0230502
0.0230547
0.0230592
0.0230636
0.0230679
0.0230722
0.0230764
0.0230806
0.0230846
0.0230886
0.0230925
0.0230963
0.0231
0.0231036
0.0231072
0.0231106
0.0231139
0.0231171
0.0231202
0.0231232
0.0231261
0.0231288
0.0231314
0.0231339
0.0231363
0.0231385
0.0231405
0.0231424
0.0231442
0.0231458
0.0231473
0.0231486
0.0231498
0.0231508
0.0231516
0.0231522
0.0231527
0.0231531
0.0231532
0.0231532
0.023153
0.0231527
0.0231521
0.0231514
0.0231505
0.0231495
0.0231482
0.0231468
0.0231453
0.0231435
0.0231416
0.0231395
0.0231373
0.0231349
0.0231323
0.0231296
0.0231267
0.0231237
0.0231205
0.0231172
0.0231137
0.0231101
0.0231064
0.0231026
0.0230986
0.0230945
0.0230903
0.023086
0.0230816
0.0230771
0.0230725
0.0230679
0.0230631
0.0230583
0.0230535
0.0230486
0.0230436
0.0230386
0.0230335
0.0230285
0.0230234
0.0230183
0.0230132
0.0230081
0.023003
0.0229979
0.0229929
0.0229877
0.0229829
0.0229777
0.022973
0.0229679
0.0229635
0.0229584
0.0229541
0.0229491
0.022945
0.0229403
0.0229363
0.0229319
0.0229279
0.022924
0.0229199
0.0229167
0.0229125
0.02291
0.0229054
0.0229049
0.0228939
0.0228939
0.0228939
1
0.344884
0.200669
0.154969
0.131899
0.117605
0.107779
0.100575
0.0950499
0.0906639
0.0870872
0.0841058
0.0815733
0.0793879
0.0774807
0.0758057
0.0743284
0.0730181
0.0718479
0.0708012
0.0698755
0.06908
0.0684247
0.0679089
0.0675162
0.0672171
0.0669784
0.0667731
0.0665856
0.0664116
0.0662546
0.0661207
0.0660143
0.0659366
0.0658854
0.0658561
0.0658432
0.0658414
0.0658462
0.0658545
0.0658641
0.065874
0.0658837
0.065893
0.0659019
0.0659105
0.065919
0.0659274
0.0659358
0.0659442
0.0659526
0.0659611
0.0659696
0.0659781
0.0659867
0.0659953
0.0660039
0.0660126
0.0660213
0.0660299
0.0660387
0.0660474
0.0660561
0.0660649
0.0660736
0.0660824
0.0660912
0.0661
0.0661089
0.0661177
0.0661266
0.0661354
0.0661443
0.0661532
0.0661621
0.066171
0.0661799
0.0661889
0.0661978
0.0662068
0.0662158
0.0662248
0.0662338
0.0662428
0.0662518
0.0662608
0.0662699
0.066279
0.0662881
0.0662972
0.0663063
0.0663154
0.0663245
0.0663337
0.0663428
0.066352
0.0663612
0.0663704
0.0663796
0.0663889
0.0663981
0.0664074
0.0664167
0.066426
0.0664353
0.0664446
0.0664539
0.0664633
0.0664726
0.066482
0.0664914
0.0665008
0.0665103
0.0665197
0.0665292
0.0665386
0.0665481
0.0665576
0.0665672
0.0665767
0.0665862
0.0665958
0.0666054
0.066615
0.0666246
0.0666343
0.0666439
0.0666536
0.0666633
0.066673
0.0666827
0.0666924
0.0667022
0.0667119
0.0667217
0.0667315
0.0667414
0.0667512
0.0667611
0.0667709
0.0667808
0.0667908
0.0668007
0.0668106
0.0668206
0.0668306
0.0668406
0.0668506
0.0668607
0.0668707
0.0668808
0.0668909
0.0669011
0.0669112
0.0669214
0.0669316
0.0669418
0.066952
0.0669623
0.0669725
0.0669828
0.0669931
0.0670035
0.0670138
0.0670242
0.0670346
0.067045
0.0670555
0.067066
0.0670764
0.067087
0.0670975
0.0671081
0.0671187
0.0671293
0.0671399
0.0671506
0.0671612
0.067172
0.0671827
0.0671935
0.0672042
0.0672151
0.0672259
0.0672368
0.0672477
0.0672586
0.0672695
0.0672805
0.0672915
0.0673025
0.0673136
0.0673247
0.0673358
0.0673469
0.0673581
0.0673693
0.0673805
0.0673918
0.0674031
0.0674144
0.0674258
0.0674372
0.0674486
0.06746
0.0674715
0.067483
0.0674946
0.0675062
0.0675178
0.0675294
0.0675411
0.0675528
0.0675646
0.0675763
0.0675882
0.0676
0.0676119
0.0676238
0.0676358
0.0676478
0.0676598
0.0676719
0.067684
0.0676961
0.0677083
0.0677205
0.0677327
0.067745
0.0677573
0.0677697
0.0677821
0.0677945
0.0678069
0.0678194
0.0678319
0.0678445
0.0678571
0.0678697
0.0678824
0.067895
0.0679077
0.0679205
0.0679333
0.067946
0.0679589
0.0679717
0.0679846
0.0679975
0.0680104
0.0680233
0.0680363
0.0680492
0.0680622
0.0680752
0.0680882
0.0681012
0.0681142
0.0681272
0.0681402
0.0681532
0.0681661
0.0681791
0.0681921
0.068205
0.0682179
0.0682308
0.0682436
0.0682564
0.0682692
0.0682819
0.0682946
0.0683072
0.0683198
0.0683322
0.0683447
0.068357
0.0683692
0.0683814
0.0683934
0.0684054
0.0684172
0.0684289
0.0684405
0.068452
0.0684633
0.0684744
0.0684855
0.0684963
0.068507
0.0685174
0.0685277
0.0685378
0.0685477
0.0685574
0.0685668
0.0685761
0.068585
0.0685938
0.0686022
0.0686104
0.0686183
0.068626
0.0686333
0.0686404
0.0686471
0.0686535
0.0686596
0.0686654
0.0686708
0.0686759
0.0686806
0.068685
0.068689
0.0686926
0.0686958
0.0686987
0.0687012
0.0687032
0.0687049
0.0687062
0.0687071
0.0687075
0.0687076
0.0687072
0.0687065
0.0687053
0.0687037
0.0687017
0.0686992
0.0686964
0.0686931
0.0686895
0.0686854
0.0686809
0.0686761
0.0686708
0.0686652
0.0686592
0.0686528
0.068646
0.0686389
0.0686314
0.0686236
0.0686155
0.068607
0.0685983
0.0685892
0.0685799
0.0685703
0.0685604
0.0685502
0.0685399
0.0685293
0.0685185
0.0685075
0.0684964
0.0684851
0.0684736
0.068462
0.0684504
0.0684386
0.0684267
0.0684148
0.0684028
0.0683908
0.0683788
0.0683668
0.0683548
0.0683429
0.068331
0.0683192
0.0683074
0.0682959
0.0682843
0.0682731
0.0682616
0.0682509
0.0682396
0.0682296
0.0682184
0.068209
0.0681981
0.0681894
0.0681788
0.0681708
0.0681608
0.0681532
0.0681442
0.0681366
0.0681292
0.0681212
0.0681157
0.0681077
0.068104
0.0680948
0.0680964
0.0680702
0.0680702
0.0680702
1
0.518766
0.327403
0.255351
0.217855
0.194414
0.178229
0.166335
0.157199
0.149941
0.14402
0.139085
0.134893
0.131278
0.128126
0.12536
0.122923
0.120761
0.118833
0.117113
0.1156
0.114306
0.113246
0.112413
0.111776
0.111286
0.110891
0.11055
0.110239
0.109953
0.1097
0.109487
0.10932
0.1092
0.109123
0.10908
0.109062
0.109061
0.10907
0.109084
0.1091
0.109116
0.109132
0.109147
0.109162
0.109176
0.10919
0.109203
0.109217
0.109231
0.109245
0.109259
0.109272
0.109286
0.1093
0.109315
0.109329
0.109343
0.109357
0.109371
0.109386
0.1094
0.109414
0.109428
0.109443
0.109457
0.109472
0.109486
0.1095
0.109515
0.109529
0.109544
0.109558
0.109573
0.109588
0.109602
0.109617
0.109631
0.109646
0.109661
0.109675
0.10969
0.109705
0.109719
0.109734
0.109749
0.109764
0.109779
0.109793
0.109808
0.109823
0.109838
0.109853
0.109868
0.109883
0.109898
0.109913
0.109928
0.109943
0.109958
0.109973
0.109988
0.110004
0.110019
0.110034
0.110049
0.110064
0.11008
0.110095
0.11011
0.110126
0.110141
0.110156
0.110172
0.110187
0.110203
0.110218
0.110233
0.110249
0.110265
0.11028
0.110296
0.110311
0.110327
0.110343
0.110358
0.110374
0.11039
0.110406
0.110421
0.110437
0.110453
0.110469
0.110485
0.110501
0.110517
0.110533
0.110549
0.110565
0.110581
0.110597
0.110613
0.110629
0.110645
0.110661
0.110678
0.110694
0.11071
0.110726
0.110743
0.110759
0.110775
0.110792
0.110808
0.110825
0.110841
0.110858
0.110874
0.110891
0.110908
0.110924
0.110941
0.110958
0.110974
0.110991
0.111008
0.111025
0.111042
0.111059
0.111076
0.111093
0.11111
0.111127
0.111144
0.111161
0.111178
0.111195
0.111212
0.11123
0.111247
0.111264
0.111282
0.111299
0.111316
0.111334
0.111351
0.111369
0.111387
0.111404
0.111422
0.111439
0.111457
0.111475
0.111493
0.111511
0.111528
0.111546
0.111564
0.111582
0.1116
0.111618
0.111637
0.111655
0.111673
0.111691
0.111709
0.111728
0.111746
0.111764
0.111783
0.111801
0.11182
0.111838
0.111857
0.111876
0.111894
0.111913
0.111932
0.111951
0.111969
0.111988
0.112007
0.112026
0.112045
0.112064
0.112083
0.112102
0.112122
0.112141
0.11216
0.112179
0.112199
0.112218
0.112237
0.112257
0.112276
0.112296
0.112315
0.112334
0.112354
0.112374
0.112393
0.112413
0.112432
0.112452
0.112471
0.112491
0.112511
0.11253
0.11255
0.112569
0.112589
0.112609
0.112628
0.112648
0.112667
0.112687
0.112706
0.112726
0.112745
0.112764
0.112784
0.112803
0.112822
0.112841
0.11286
0.112879
0.112898
0.112917
0.112935
0.112954
0.112972
0.11299
0.113008
0.113026
0.113044
0.113062
0.113079
0.113096
0.113113
0.11313
0.113147
0.113163
0.113179
0.113195
0.113211
0.113226
0.113242
0.113256
0.113271
0.113285
0.113299
0.113313
0.113326
0.113339
0.113351
0.113363
0.113375
0.113386
0.113397
0.113408
0.113418
0.113427
0.113436
0.113445
0.113453
0.113461
0.113468
0.113475
0.113481
0.113486
0.113492
0.113496
0.1135
0.113504
0.113507
0.113509
0.113511
0.113512
0.113513
0.113513
0.113513
0.113512
0.11351
0.113508
0.113505
0.113502
0.113498
0.113493
0.113488
0.113483
0.113477
0.11347
0.113463
0.113455
0.113447
0.113438
0.113429
0.113419
0.113409
0.113398
0.113387
0.113376
0.113364
0.113352
0.113339
0.113326
0.113312
0.113299
0.113285
0.11327
0.113256
0.113241
0.113226
0.11321
0.113195
0.113179
0.113163
0.113148
0.113132
0.113116
0.113099
0.113083
0.113067
0.113051
0.113035
0.113019
0.113003
0.112988
0.112972
0.112957
0.112941
0.112926
0.112912
0.112897
0.112883
0.112869
0.112855
0.112841
0.112829
0.112816
0.112805
0.112791
0.112782
0.112769
0.11276
0.112749
0.112741
0.11273
0.112723
0.112715
0.112706
0.112702
0.112693
0.112691
0.112681
0.112687
0.112651
0.112651
0.112651
1
0.660888
0.446896
0.352882
0.302038
0.269864
0.247524
0.231055
0.218382
0.208303
0.200078
0.193219
0.187395
0.182373
0.177998
0.174161
0.170782
0.167786
0.165117
0.162742
0.160659
0.158889
0.157442
0.156307
0.155435
0.154759
0.154208
0.15373
0.153296
0.152902
0.152557
0.15227
0.152049
0.151893
0.151793
0.151739
0.151719
0.15172
0.151733
0.151753
0.151775
0.151797
0.151818
0.151839
0.151859
0.151878
0.151897
0.151916
0.151935
0.151954
0.151973
0.151992
0.152011
0.15203
0.152049
0.152069
0.152088
0.152107
0.152127
0.152146
0.152166
0.152186
0.152205
0.152225
0.152245
0.152264
0.152284
0.152304
0.152324
0.152343
0.152363
0.152383
0.152403
0.152423
0.152443
0.152463
0.152483
0.152503
0.152523
0.152543
0.152563
0.152583
0.152604
0.152624
0.152644
0.152664
0.152685
0.152705
0.152725
0.152745
0.152766
0.152786
0.152807
0.152827
0.152848
0.152868
0.152889
0.152909
0.15293
0.152951
0.152971
0.152992
0.153013
0.153033
0.153054
0.153075
0.153096
0.153117
0.153138
0.153159
0.153179
0.1532
0.153221
0.153243
0.153264
0.153285
0.153306
0.153327
0.153348
0.153369
0.153391
0.153412
0.153433
0.153455
0.153476
0.153497
0.153519
0.15354
0.153562
0.153583
0.153605
0.153626
0.153648
0.15367
0.153691
0.153713
0.153735
0.153757
0.153778
0.1538
0.153822
0.153844
0.153866
0.153888
0.15391
0.153932
0.153954
0.153976
0.153998
0.154021
0.154043
0.154065
0.154087
0.15411
0.154132
0.154155
0.154177
0.154199
0.154222
0.154245
0.154267
0.15429
0.154312
0.154335
0.154358
0.154381
0.154403
0.154426
0.154449
0.154472
0.154495
0.154518
0.154541
0.154564
0.154587
0.15461
0.154633
0.154657
0.15468
0.154703
0.154727
0.15475
0.154773
0.154797
0.15482
0.154844
0.154867
0.154891
0.154915
0.154938
0.154962
0.154986
0.15501
0.155034
0.155057
0.155081
0.155105
0.155129
0.155153
0.155178
0.155202
0.155226
0.15525
0.155274
0.155299
0.155323
0.155347
0.155372
0.155396
0.155421
0.155445
0.15547
0.155494
0.155519
0.155544
0.155568
0.155593
0.155618
0.155643
0.155668
0.155693
0.155717
0.155742
0.155767
0.155792
0.155817
0.155843
0.155868
0.155893
0.155918
0.155943
0.155968
0.155993
0.156019
0.156044
0.156069
0.156094
0.156119
0.156145
0.15617
0.156195
0.15622
0.156245
0.156271
0.156296
0.156321
0.156346
0.156371
0.156396
0.156421
0.156446
0.156471
0.156496
0.156521
0.156546
0.15657
0.156595
0.156619
0.156644
0.156668
0.156692
0.156716
0.15674
0.156764
0.156788
0.156812
0.156835
0.156858
0.156881
0.156904
0.156927
0.156949
0.156972
0.156994
0.157016
0.157037
0.157059
0.15708
0.1571
0.157121
0.157141
0.157161
0.157181
0.1572
0.157219
0.157237
0.157255
0.157273
0.15729
0.157307
0.157324
0.15734
0.157355
0.157371
0.157385
0.157399
0.157413
0.157426
0.157439
0.157451
0.157463
0.157474
0.157484
0.157494
0.157503
0.157512
0.15752
0.157527
0.157534
0.15754
0.157546
0.157551
0.157555
0.157559
0.157562
0.157564
0.157565
0.157566
0.157567
0.157566
0.157565
0.157563
0.157561
0.157558
0.157554
0.15755
0.157545
0.157539
0.157533
0.157526
0.157518
0.15751
0.157501
0.157492
0.157482
0.157471
0.15746
0.157449
0.157436
0.157424
0.157411
0.157397
0.157383
0.157369
0.157354
0.157339
0.157323
0.157307
0.157291
0.157275
0.157258
0.157241
0.157224
0.157206
0.157189
0.157171
0.157153
0.157136
0.157118
0.1571
0.157082
0.157064
0.157046
0.157029
0.157011
0.156994
0.156977
0.15696
0.156943
0.156926
0.15691
0.156894
0.156879
0.156863
0.156848
0.156834
0.15682
0.156807
0.156793
0.156781
0.156768
0.156758
0.156745
0.156737
0.156725
0.156718
0.156707
0.156701
0.156692
0.156686
0.156681
0.156674
0.156672
0.156666
0.156667
0.156658
0.15667
0.156629
0.156629
0.156629
1
0.776803
0.557827
0.446883
0.384111
0.34376
0.315538
0.294649
0.278535
0.265703
0.255221
0.246477
0.239051
0.232649
0.227075
0.22219
0.217888
0.214076
0.210683
0.207669
0.205036
0.202806
0.200989
0.199563
0.198463
0.197603
0.196896
0.19628
0.195724
0.195224
0.194789
0.194434
0.194163
0.193973
0.193855
0.193792
0.19377
0.193773
0.193791
0.193816
0.193844
0.193872
0.193899
0.193925
0.193949
0.193974
0.193998
0.194021
0.194045
0.194069
0.194093
0.194117
0.194141
0.194165
0.194189
0.194213
0.194238
0.194262
0.194287
0.194311
0.194336
0.19436
0.194385
0.19441
0.194434
0.194459
0.194484
0.194509