# vtk DataFile Version 2.0
FlowField
ASCII
DATASET STRUCTURED_GRID
DIMENSIONS 400 1 200
POINTS 80000 float
0 0 0
0.08 0 0
0.16 0 0
0.24 0 0
0.32 0 0
0.4 0 0
0.48 0 0
0.56 0 0
0.64 0 0
0.72 0 0
0.8 0 0
0.88 0 0
0.96 0 0
1.04 0 0
1.12 0 0
1.2 0 0
1.28 0 0
1.36 0 0
1.44 0 0
1.52 0 0
1.6 0 0
1.68 0 0
1.76 0 0
1.84 0 0
1.92 0 0
2 0 0
2.08 0 0
2.16 0 0
2.24 0 0
2.32 0 0
2.4 0 0
2.48 0 0
2.56 0 0
2.64 0 0
2.72 0 0
2.8 0 0
2.88 0 0
2.96 0 0
3.04 0 0
3.12 0 0
3.2 0 0
3.28 0 0
3.36 0 0
3.44 0 0
3.52 0 0
3.6 0 0
3.68 0 0
3.76 0 0
3.84 0 0
3.92 0 0
4 0 0
4.08 0 0
4.16 0 0
4.24 0 0
4.32 0 0
4.4 0 0
4.48 0 0
4.56 0 0
4.64 0 0
4.72 0 0
4.8 0 0
4.88 0 0
4.96 0 0
5.04 0 0
5.12 0 0
5.2 0 0
5.28 0 0
5.36 0 0
5.44 0 0
5.52 0 0
5.6 0 0
5.68 0 0
5.76 0 0
5.84 0 0
5.92 0 0
6 0 0
6.08 0 0
6.16 0 0
6.24 0 0
6.32 0 0
6.4 0 0
6.48 0 0
6.56 0 0
6.64 0 0
6.72 0 0
6.8 0 0
6.88 0 0
6.96 0 0
7.04 0 0
7.12 0 0
7.2 0 0
7.28 0 0
7.36 0 0
7.44 0 0
7.52 0 0
7.6 0 0
7.68 0 0
7.76 0 0
7.84 0 0
7.92 0 0
8 0 0
8.08 0 0
8.16 0 0
8.24 0 0
8.32 0 0
8.4 0 0
8.48 0 0
8.56 0 0
8.64 0 0
8.72 0 0
8.8 0 0
8.88 0 0
8.96 0 0
9.04 0 0
9.12 0 0
9.2 0 0
9.28 0 0
9.36 0 0
9.44 0 0
9.52 0 0
9.6 0 0
9.68 0 0
9.76 0 0
9.84 0 0
9.92 0 0
10 0 0
10.08 0 0
10.16 0 0
10.24 0 0
10.32 0 0
10.4 0 0
10.48 0 0
10.56 0 0
10.64 0 0
10.72 0 0
10.8 0 0
10.88 0 0
10.96 0 0
11.04 0 0
11.12 0 0
11.2 0 0
11.28 0 0
11.36 0 0
11.44 0 0
11.52 0 0
11.6 0 0
11.68 0 0
11.76 0 0
11.84 0 0
11.92 0 0
12 0 0
12.08 0 0
12.16 0 0
12.24 0 0
12.32 0 0
12.4 0 0
12.48 0 0
12.56 0 0
12.64 0 0
12.72 0 0
12.8 0 0
12.88 0 0
12.96 0 0
13.04 0 0
13.12 0 0
13.2 0 0
13.28 0 0
13.36 0 0
13.44 0 0
13.52 0 0
13.6 0 0
13.68 0 0
13.76 0 0
13.84 0 0
13.92 0 0
14 0 0
14.08 0 0
14.16 0 0
14.24 0 0
14.32 0 0
14.4 0 0
14.48 0 0
14.56 0 0
14.64 0 0
14.72 0 0
14.8 0 0
14.88 0 0
14.96 0 0
15.04 0 0
15.12 0 0
15.2 0 0
15.28 0 0
15.36 0 0
15.44 0 0
15.52 0 0
15.6 0 0
15.68 0 0
15.76 0 0
15.84 0 0
15.92 0 0
16 0 0
16.08 0 0
16.16 0 0
16.24 0 0
16.32 0 0
16.4 0 0
16.48 0 0
16.56 0 0
16.64 0 0
16.72 0 0
16.8 0 0
16.88 0 0
16.96 0 0
17.04 0 0
17.12 0 0
17.2 0 0
17.28 0 0
17.36 0 0
17.44 0 0
17.52 0 0
17.6 0 0
17.68 0 0
17.76 0 0
17.84 0 0
17.92 0 0
18 0 0
18.08 0 0
18.16 0 0
18.24 0 0
18.32 0 0
18.4 0 0
18.48 0 0
18.56 0 0
18.64 0 0
18.72 0 0
18.8 0 0
18.88 0 0
18.96 0 0
19.04 0 0
19.12 0 0
19.2 0 0
19.28 0 0
19.36 0 0
19.44 0 0
19.52 0 0
19.6 0 0
19.68 0 0
19.76 0 0
19.84 0 0
19.92 0 0
20 0 0
20.08 0 0
20.16 0 0
20.24 0 0
20.32 0 0
20.4 0 0
20.48 0 0
20.56 0 0
20.64 0 0
20.72 0 0
20.8 0 0
20.88 0 0
20.96 0 0
21.04 0 0
21.12 0 0
21.2 0 0
21.28 0 0
21.36 0 0
21.44 0 0
21.52 0 0
21.6 0 0
21.68 0 0
21.76 0 0
21.84 0 0
21.92 0 0
22 0 0
22.08 0 0
22.16 0 0
22.24 0 0
22.32 0 0
22.4 0 0
22.48 0 0
22.56 0 0
22.64 0 0
22.72 0 0
22.8 0 0
22.88 0 0
22.96 0 0
23.04 0 0
23.12 0 0
23.2 0 0
23.28 0 0
23.36 0 0
23.44 0 0
23.52 0 0
23.6 0 0
23.68 0 0
23.76 0 0
23.84 0 0
23.92 0 0
24 0 0
24.08 0 0
24.16 0 0
24.24 0 0
24.32 0 0
24.4 0 0
24.48 0 0
24.56 0 0
24.64 0 0
24.72 0 0
24.8 0 0
24.88 0 0
24.96 0 0
25.04 0 0
25.12 0 0
25.2 0 0
25.28 0 0
25.36 0 0
25.44 0 0
25.52 0 0
25.6 0 0
25.68 0 0
25.76 0 0
25.84 0 0
25.92 0 0
26 0 0
26.08 0 0
26.16 0 0
26.24 0 0
26.32 0 0
26.4 0 0
26.48 0 0
26.56 0 0
26.64 0 0
26.72 0 0
26.8 0 0
26.88 0 0
26.96 0 0
27.04 0 0
27.12 0 0
27.2 0 0
27.28 0 0
27.36 0 0
27.44 0 0
27.52 0 0
27.6 0 0
27.68 0 0
27.76 0 0
27.84 0 0
27.92 0 0
28 0 0
28.08 0 0
28.16 0 0
28.24 0 0
28.32 0 0
28.4 0 0
28.48 0 0
28.56 0 0
28.64 0 0
28.72 0 0
28.8 0 0
28.88 0 0
28.96 0 0
29.04 0 0
29.12 0 0
29.2 0 0
29.28 0 0
29.36 0 0
29.44 0 0
29.52 0 0
29.6 0 0
29.68 0 0
29.76 0 0
29.84 0 0
29.92 0 0
30 0 0
30.08 0 0
30.16 0 0
30.24 0 0
30.32 0 0
30.4 0 0
30.48 0 0
30.56 0 0
30.64 0 0
30.72 0 0
30.8 0 0
30.88 0 0
30.96 0 0
31.04 0 0
31.12 0 0
31.2 0 0
31.28 0 0
31.36 0 0
31.44 0 0
31.52 0 0
31.6 0 0
31.68 0 0
31.76 0 0
31.84 0 0
31.92 0 0
0 0.005 0
0.08 0.005 0
0.16 0.005 0
0.24 0.005 0
0.32 0.005 0
0.4 0.005 0
0.48 0.005 0
0.56 0.005 0
0.64 0.005 0
0.72 0.005 0
0.8 0.005 0
0.88 0.005 0
0.96 0.005 0
1.04 0.005 0
1.12 0.005 0
1.2 0.005 0
1.28 0.005 0
1.36 0.005 0
1.44 0.005 0
1.52 0.005 0
1.6 0.005 0
1.68 0.005 0
1.76 0.005 0
1.84 0.005 0
1.92 0.005 0
2 0.005 0
2.08 0.005 0
2.16 0.005 0
2.24 0.005 0
2.32 0.005 0
2.4 0.005 0
2.48 0.005 0
2.56 0.005 0
2.64 0.005 0
2.72 0.005 0
2.8 0.005 0
2.88 0.005 0
2.96 0.005 0
3.04 0.005 0
3.12 0.005 0
3.2 0.005 0
3.28 0.005 0
3.36 0.005 0
3.44 0.005 0
3.52 0.005 0
3.6 0.005 0
3.68 0.005 0
3.76 0.005 0
3.84 0.005 0
3.92 0.005 0
4 0.005 0
4.08 0.005 0
4.16 0.005 0
4.24 0.005 0
4.32 0.005 0
4.4 0.005 0
4.48 0.005 0
4.56 0.005 0
4.64 0.005 0
4.72 0.005 0
4.8 0.005 0
4.88 0.005 0
4.96 0.005 0
5.04 0.005 0
5.12 0.005 0
5.2 0.005 0
5.28 0.005 0
5.36 0.005 0
5.44 0.005 0
5.52 0.005 0
5.6 0.005 0
5.68 0.005 0
5.76 0.005 0
5.84 0.005 0
5.92 0.005 0
6 0.005 0
6.08 0.005 0
6.16 0.005 0
6.24 0.005 0
6.32 0.005 0
6.4 0.005 0
6.48 0.005 0
6.56 0.005 0
6.64 0.005 0
6.72 0.005 0
6.8 0.005 0
6.88 0.005 0
6.96 0.005 0
7.04 0.005 0
7.12 0.005 0
7.2 0.005 0
7.28 0.005 0
7.36 0.005 0
7.44 0.005 0
7.52 0.005 0
7.6 0.005 0
7.68 0.005 0
7.76 0.005 0
7.84 0.005 0
7.92 0.005 0
8 0.005 0
8.08 0.005 0
8.16 0.005 0
8.24 0.005 0
8.32 0.005 0
8.4 0.005 0
8.48 0.005 0
8.56 0.005 0
8.64 0.005 0
8.72 0.005 0
8.8 0.005 0
8.88 0.005 0
8.96 0.005 0
9.04 0.005 0
9.12 0.005 0
9.2 0.005 0
9.28 0.005 0
9.36 0.005 0
9.44 0.005 0
9.52 0.005 0
9.6 0.005 0
9.68 0.005 0
9.76 0.005 0
9.84 0.005 0
9.92 0.005 0
10 0.005 0
10.08 0.005 0
10.16 0.005 0
10.24 0.005 0
10.32 0.005 0
10.4 0.005 0
10.48 0.005 0
10.56 0.005 0
10.64 0.005 0
10.72 0.005 0
10.8 0.005 0
10.88 0.005 0
10.96 0.005 0
11.04 0.005 0
11.12 0.005 0
11.2 0.005 0
11.28 0.005 0
11.36 0.005 0
11.44 0.005 0
11.52 0.005 0
11.6 0.005 0
11.68 0.005 0
11.76 0.005 0
11.84 0.005 0
11.92 0.005 0
12 0.005 0
12.08 0.005 0
12.16 0.005 0
12.24 0.005 0
12.32 0.005 0
12.4 0.005 0
12.48 0.005 0
12.56 0.005 0
12.64 0.005 0
12.72 0.005 0
12.8 0.005 0
12.88 0.005 0
12.96 0.005 0
13.04 0.005 0
13.12 0.005 0
13.2 0.005 0
13.28 0.005 0
13.36 0.005 0
13.44 0.005 0
13.52 0.005 0
13.6 0.005 0
13.68 0.005 0
13.76 0.005 0
13.84 0.005 0
13.92 0.005 0
14 0.005 0
14.08 0.005 0
14.16 0.005 0
14.24 0.005 0
14.32 0.005 0
14.4 0.005 0
14.48 0.005 0
14.56 0.005 0
14.64 0.005 0
14.72 0.005 0
14.8 0.005 0
14.88 0.005 0
14.96 0.005 0
15.04 0.005 0
15.12 0.005 0
15.2 0.005 0
15.28 0.005 0
15.36 0.005 0
15.44 0.005 0
15.52 0.005 0
15.6 0.005 0
15.68 0.005 0
15.76 0.005 0
15.84 0.005 0
15.92 0.005 0
16 0.005 0
16.08 0.005 0
16.16 0.005 0
16.24 0.005 0
16.32 0.005 0
16.4 0.005 0
16.48 0.005 0
16.56 0.005 0
16.64 0.005 0
16.72 0.005 0
16.8 0.005 0
16.88 0.005 0
16.96 0.005 0
17.04 0.005 0
17.12 0.005 0
17.2 0.005 0
17.28 0.005 0
17.36 0.005 0
17.44 0.005 0
17.52 0.005 0
17.6 0.005 0
17.68 0.005 0
17.76 0.005 0
17.84 0.005 0
17.92 0.005 0
18 0.005 0
18.08 0.005 0
18.16 0.005 0
18.24 0.005 0
18.32 0.005 0
18.4 0.005 0
18.48 0.005 0
18.56 0.005 0
18.64 0.005 0
18.72 0.005 0
18.8 0.005 0
18.88 0.005 0
18.96 0.005 0
19.04 0.005 0
19.12 0.005 0
19.2 0.005 0
19.28 0.005 0
19.36 0.005 0
19.44 0.005 0
19.52 0.005 0
19.6 0.005 0
19.68 0.005 0
19.76 0.005 0
19.84 0.005 0
19.92 0.005 0
20 0.005 0
20.08 0.005 0
20.16 0.005 0
20.24 0.005 0
20.32 0.005 0
20.4 0.005 0
20.48 0.005 0
20.56 0.005 0
20.64 0.005 0
20.72 0.005 0
20.8 0.005 0
20.88 0.005 0
20.96 0.005 0
21.04 0.005 0
21.12 0.005 0
21.2 0.005 0
21.28 0.005 0
21.36 0.005 0
21.44 0.005 0
21.52 0.005 0
21.6 0.005 0
21.68 0.005 0
21.76 0.005 0
21.84 0.005 0
21.92 0.005 0
22 0.005 0
22.08 0.005 0
22.16 0.005 0
22.24 0.005 0
22.32 0.005 0
22.4 0.005 0
22.48 0.005 0
22.56 0.005 0
22.64 0.005 0
22.72 0.005 0
22.8 0.005 0
22.88 0.005 0
22.96 0.005 0
23.04 0.005 0
23.12 0.005 0
23.2 0.005 0
23.28 0.005 0
23.36 0.005 0
23.44 0.005 0
23.52 0.005 0
23.6 0.005 0
23.68 0.005 0
23.76 0.005 0
23.84 0.005 0
23.92 0.005 0
24 0.005 0
24.08 0.005 0
24.16 0.005 0
24.24 0.005 0
24.32 0.005 0
24.4 0.005 0
24.48 0.005 0
24.56 0.005 0
24.64 0.005 0
24.72 0.005 0
24.8 0.005 0
24.88 0.005 0
24.96 0.005 0
25.04 0.005 0
25.12 0.005 0
25.2 0.005 0
25.28 0.005 0
25.36 0.005 0
25.44 0.005 0
25.52 0.005 0
25.6 0.005 0
25.68 0.005 0
25.76 0.005 0
25.84 0.005 0
25.92 0.005 0
26 0.005 0
26.08 0.005 0
26.16 0.005 0
26.24 0.005 0
26.32 0.005 0
26.4 0.005 0
26.48 0.005 0
26.56 0.005 0
26.64 0.005 0
26.72 0.005 0
26.8 0.005 0
26.88 0.005 0
26.96 0.005 0
27.04 0.005 0
27.12 0.005 0
27.2 0.005 0
27.28 0.005 0
27.36 0.005 0
27.44 0.005 0
27.52 0.005 0
27.6 0.005 0
27.68 0.005 0
27.76 0.005 0
27.84 0.005 0
27.92 0.005 0
28 0.005 0
28.08 0.005 0
28.16 0.005 0
28.24 0.005 0
28.32 0.005 0
28.4 0.005 0
28.48 0.005 0
28.56 0.005 0
28.64 0.005 0
28.72 0.005 0
28.8 0.005 0
28.88 0.005 0
28.96 0.005 0
29.04 0.005 0
29.12 0.005 0
29.2 0.005 0
29.28 0.005 0
29.36 0.005 0
29.44 0.005 0
29.52 0.005 0
29.6 0.005 0
29.68 0.005 0
29.76 0.005 0
29.84 0.005 0
29.92 0.005 0
30 0.005 0
30.08 0.005 0
30.16 0.005 0
30.24 0.005 0
30.32 0.005 0
30.4 0.005 0
30.48 0.005 0
30.56 0.005 0
30.64 0.005 0
30.72 0.005 0
30.8 0.005 0
30.88 0.005 0
30.96 0.005 0
31.04 0.005 0
31.12 0.005 0
31.2 0.005 0
31.28 0.005 0
31.36 0.005 0
31.44 0.005 0
31.52 0.005 0
31.6 0.005 0
31.68 0.005 0
31.76 0.005 0
31.84 0.005 0
31.92 0.005 0
0 0.01 0
0.08 0.01 0
0.16 0.01 0
0.24 0.01 0
0.32 0.01 0
0.4 0.01 0
0.48 0.01 0
0.56 0.01 0
0.64 0.01 0
0.72 0.01 0
0.8 0.01 0
0.88 0.01 0
0.96 0.01 0
1.04 0.01 0
1.12 0.01 0
1.2 0.01 0
1.28 0.01 0
1.36 0.01 0
1.44 0.01 0
1.52 0.01 0
1.6 0.01 0
1.68 0.01 0
1.76 0.01 0
1.84 0.01 0
1.92 0.01 0
2 0.01 0
2.08 0.01 0
2.16 0.01 0
2.24 0.01 0
2.32 0.01 0
2.4 0.01 0
2.48 0.01 0
2.56 0.01 0
2.64 0.01 0
2.72 0.01 0
2.8 0.01 0
2.88 0.01 0
2.96 0.01 0
3.04 0.01 0
3.12 0.01 0
3.2 0.01 0
3.28 0.01 0
3.36 0.01 0
3.44 0.01 0
3.52 0.01 0
3.6 0.01 0
3.68 0.01 0
3.76 0.01 0
3.84 0.01 0
3.92 0.01 0
4 0.01 0
4.08 0.01 0
4.16 0.01 0
4.24 0.01 0
4.32 0.01 0
4.4 0.01 0
4.48 0.01 0
4.56 0.01 0
4.64 0.01 0
4.72 0.01 0
4.8 0.01 0
4.88 0.01 0
4.96 0.01 0
5.04 0.01 0
5.12 0.01 0
[...]
POINT_DATA 80000

SCALARS v float 1
LOOKUP_TABLE default
0
0
0
0
0
0
0
0
0
0
0
0
0
0
0
0
0
0
0
0
0
0
0
0
0
0
0
0
0
0
0
0
0
0
0
0
0
0
0
0
0
0
0
0
0
0
0
0
0
0
0
0
0
0
0
0
0
0
0
0
0
0
0
0
0
0
0
0
0
0
0
0
0
0
0
0
0
0
0
0
0
0
0
0
0
0
0
0
0
0
0
0
0
0
0
0
0
0
0
0
0
0
0
0
0
0
0
0
0
0
0
0
0
0
0
0
0
0
0
0
0
0
0
0
0
0
0
0
0
0
0
0
0
0
0
0
0
0
0
0
0
0
0
0
0
0
0
0
0
0
0
0
0
0
0
0
0
0
0
0
0
0
0
0
0
0
0
0
0
0
0
0
0
0
0
0
0
0
0
0
0
0
0
0
0
0
0
0
0
0
0
0
0
0
0
0
0
0
0
0
0
0
0
0
0
0
0
0
0
0
0
0
0
0
0
0
0
0
0
0
0
0
0
0
0
0
0
0
0
0
0
0
0
0
0
0
0
0
0
0
0
0
0
0
0
0
0
0
0
0
0
0
0
0
0
0
0
0
0
0
0
0
0
0
0
0
0
0
0
0
0
0
0
0
0
0
0
0
0
0
0
0
0
0
0
0
0
0
0
0
0
0
0
0
0
0
0
0
0
0
0
0
0
0
0
0
0
0
0
0
0
0
0
0
0
0
0
0
0
0
0
0
0
0
0
0
0
0
0
0
0
0
0
0
0
0
0
0
0
0
0
0
0
0
0
0
0
0
0
0
0
0
0
0
0
0
0
0
0
0
0
0
0
0
0
0
0
0
0
0
0
0
0
0
0
0
0
0
0
0
0
0
0
0
0
0
0
0
0
0
0
0
0
0
0
0
0
0
0
0
-0.0542709
0.0542709
0.00396191
0.000998129
0.00049204
0.000302442
0.000207015
0.000151344
0.000115863
9.182e-05
7.47703e-05
6.22927e-05
5.29187e-05
4.56093e-05
3.9638e-05
3.46297e-05
3.04784e-05
2.71035e-05
2.42447e-05
2.14844e-05
1.84704e-05
1.51409e-05
1.17654e-05
8.77701e-06
6.52379e-06
5.10214e-06
4.35093e-06
3.97101e-06
3.67426e-06
3.28135e-06
2.7427e-06
2.10321e-06
1.44799e-06
8.57049e-07
3.80984e-07
3.61305e-08
-1.87988e-07
-3.16734e-07
-3.79473e-07
-4.02317e-07
-4.04811e-07
-3.99559e-07
-3.93498e-07
-3.89667e-07
-3.88832e-07
-3.90668e-07
-3.94486e-07
-3.99603e-07
-4.05488e-07
-4.11781e-07
-4.18266e-07
-4.24827e-07
-4.3141e-07
-4.37998e-07
-4.44591e-07
-4.51196e-07
-4.57826e-07
-4.64488e-07
-4.71195e-07
-4.77952e-07
-4.84767e-07
-4.91645e-07
-4.98592e-07
-5.05611e-07
-5.12706e-07
-5.19881e-07
-5.27138e-07
-5.34479e-07
-5.41909e-07
-5.49428e-07
-5.57039e-07
-5.64745e-07
-5.72547e-07
-5.80447e-07
-5.88447e-07
-5.96549e-07
-6.04756e-07
-6.13067e-07
-6.21487e-07
-6.30015e-07
-6.38655e-07
-6.47408e-07
-6.56276e-07
-6.65261e-07
-6.74365e-07
-6.8359e-07
-6.92939e-07
-7.02413e-07
-7.12014e-07
-7.21746e-07
-7.3161e-07
-7.4161e-07
-7.51747e-07
-7.62024e-07
-7.72445e-07
-7.83012e-07
-7.93728e-07
-8.04596e-07
-8.1562e-07
-8.26803e-07
-8.38149e-07
-8.4966e-07
-8.61341e-07
-8.73196e-07
-8.85229e-07
-8.97444e-07
-9.09845e-07
-9.22437e-07
-9.35225e-07
-9.48213e-07
-9.61407e-07
-9.74811e-07
-9.88432e-07
-1.00228e-06
-1.01635e-06
-1.03065e-06
-1.0452e-06
-1.05999e-06
-1.07504e-06
-1.09035e-06
-1.10592e-06
-1.12178e-06
-1.13792e-06
-1.15435e-06
-1.17108e-06
-1.18813e-06
-1.2055e-06
-1.2232e-06
-1.24123e-06
-1.25963e-06
-1.27838e-06
-1.29751e-06
-1.31702e-06
-1.33694e-06
-1.35727e-06
-1.37802e-06
-1.39921e-06
-1.42086e-06
-1.44298e-06
-1.46558e-06
-1.48869e-06
-1.51231e-06
-1.53647e-06
-1.56119e-06
-1.58648e-06
-1.61236e-06
-1.63885e-06
-1.66598e-06
-1.69377e-06
-1.72223e-06
-1.75139e-06
-1.78128e-06
-1.81192e-06
-1.84333e-06
-1.87554e-06
-1.90857e-06
-1.94246e-06
-1.97723e-06
-2.01291e-06
-2.04953e-06
-2.08712e-06
-2.1257e-06
-2.16532e-06
-2.206e-06
-2.24778e-06
-2.29068e-06
-2.33475e-06
-2.38001e-06
-2.4265e-06
-2.47426e-06
-2.52331e-06
-2.5737e-06
-2.62546e-06
-2.67862e-06
-2.73322e-06
-2.7893e-06
-2.84689e-06
-2.90603e-06
-2.96675e-06
-3.02908e-06
-3.09306e-06
-3.15873e-06
-3.22611e-06
-3.29523e-06
-3.36613e-06
-3.43883e-06
-3.51337e-06
-3.58976e-06
-3.66804e-06
-3.74823e-06
-3.83034e-06
-3.9144e-06
-4.00042e-06
-4.08841e-06
-4.1784e-06
-4.27038e-06
-4.36436e-06
-4.46034e-06
-4.55833e-06
-4.65832e-06
-4.7603e-06
-4.86426e-06
-4.97018e-06
-5.07805e-06
-5.18783e-06
-5.29951e-06
-5.41304e-06
-5.52839e-06
-5.64551e-06
-5.76436e-06
-5.88489e-06
-6.00703e-06
-6.13071e-06
-6.25588e-06
-6.38246e-06
-6.51036e-06
-6.6395e-06
-6.76978e-06
-6.90111e-06
-7.03339e-06
-7.16651e-06
-7.30034e-06
-7.43478e-06
-7.56969e-06
-7.70495e-06
-7.84041e-06
-7.97595e-06
-8.1114e-06
-8.24662e-06
-8.38145e-06
-8.51574e-06
-8.64932e-06
-8.78201e-06
-8.91366e-06
-9.04408e-06
-9.17309e-06
-9.30052e-06
-9.42617e-06
-9.54988e-06
-9.67144e-06
-9.79068e-06
-9.9074e-06
-1.00214e-05
-1.01325e-05
-1.02406e-05
-1.03453e-05
-1.04466e-05
-1.05443e-05
-1.06382e-05
-1.0728e-05
-1.08137e-05
-1.0895e-05
-1.09718e-05
-1.1044e-05
-1.11113e-05
-1.11737e-05
-1.12309e-05
-1.12828e-05
-1.13294e-05
-1.13705e-05
-1.14059e-05
-1.14355e-05
-1.14594e-05
-1.14773e-05
-1.14892e-05
-1.1495e-05
-1.14947e-05
-1.14882e-05
-1.14755e-05
-1.14565e-05
-1.14312e-05
-1.13996e-05
-1.13618e-05
-1.13177e-05
-1.12673e-05
-1.12107e-05
-1.11479e-05
-1.1079e-05
-1.1004e-05
-1.09231e-05
-1.08362e-05
-1.07436e-05
-1.06453e-05
-1.05414e-05
-1.04321e-05
-1.03175e-05
-1.01977e-05
-1.00728e-05
-9.94317e-06
-9.80881e-06
-9.66993e-06
-9.52672e-06
-9.37936e-06
-9.22804e-06
-9.07297e-06
-8.91434e-06
-8.75237e-06
-8.58726e-06
-8.41922e-06
-8.24848e-06
-8.07524e-06
-7.89973e-06
-7.72218e-06
-7.54279e-06
-7.36179e-06
-7.17941e-06
-6.99586e-06
-6.81135e-06
-6.62612e-06
-6.44035e-06
-6.25428e-06
-6.0681e-06
-5.88203e-06
-5.69624e-06
-5.51095e-06
-5.32634e-06
-5.1426e-06
-4.95989e-06
-4.77841e-06
-4.59831e-06
-4.41975e-06
-4.24289e-06
-4.06787e-06
-3.89483e-06
-3.72392e-06
-3.55524e-06
-3.38893e-06
-3.22509e-06
-3.06382e-06
-2.90523e-06
-2.74939e-06
-2.5964e-06
-2.44633e-06
-2.29924e-06
-2.1552e-06
-2.01425e-06
-1.87644e-06
-1.74181e-06
-1.6104e-06
-1.48222e-06
-1.3573e-06
-1.23565e-06
-1.11728e-06
-1.00218e-06
-8.90361e-07
-7.81803e-07
-6.76495e-07
-5.74415e-07
-4.75541e-07
-3.79844e-07
-2.8729e-07
-1.97843e-07
-1.11463e-07
-2.8106e-08
5.22745e-08
1.29729e-07
2.04309e-07
2.7607e-07
3.45068e-07
4.11362e-07
4.75013e-07
5.36084e-07
5.94637e-07
6.50736e-07
7.04449e-07
7.55838e-07
8.04976e-07
8.51914e-07
8.96761e-07
9.3948e-07
9.80383e-07
1.01899e-06
1.05653e-06
1.0907e-06
1.12619e-06
1.15443e-06
1.19086e-06
1.20949e-06
1.25229e-06
1.25542e-06
1.31112e-06
1.29385e-06
1.36516e-06
1.32903e-06
1.41089e-06
1.36416e-06
1.4478e-06
1.3994e-06
1.47479e-06
1.44111e-06
1.48016e-06
1.50231e-06
1.45997e-06
1.56756e-06
1.44394e-06
1.63603e-06
1.37252e-06
2.16903e-06
1.55834e-06
1.55834e-06
-0.0952157
0.0952157
0.0129753
0.00385427
0.00193388
0.00119563
0.000820975
0.000601379
0.000460961
0.000365576
0.000297828
0.000248187
0.000210813
0.000181594
0.000157721
0.000137768
0.000121271
0.00010778
9.61623e-05
8.48042e-05
7.24843e-05
5.91453e-05
4.59279e-05
3.44639e-05
2.59534e-05
2.0611e-05
1.77209e-05
1.61226e-05
1.47611e-05
1.302e-05
1.0766e-05
8.19908e-06
5.64495e-06
3.39272e-06
1.613e-06
3.47821e-07
-4.56868e-07
-9.05198e-07
-1.11131e-06
-1.17379e-06
-1.16485e-06
-1.1302e-06
-1.09439e-06
-1.06777e-06
-1.05259e-06
-1.04728e-06
-1.04914e-06
-1.05558e-06
-1.06462e-06
-1.07494e-06
-1.08576e-06
-1.09665e-06
-1.10743e-06
-1.11804e-06
-1.12848e-06
-1.13877e-06
-1.14896e-06
-1.15909e-06
-1.16918e-06
-1.17927e-06
-1.18938e-06
-1.19952e-06
-1.20971e-06
-1.21997e-06
-1.23031e-06
-1.24073e-06
-1.25125e-06
-1.26187e-06
-1.2726e-06
-1.28344e-06
-1.29441e-06
-1.3055e-06
-1.31672e-06
-1.32808e-06
-1.33957e-06
-1.3512e-06
-1.36298e-06
-1.37491e-06
-1.38698e-06
-1.39921e-06
-1.4116e-06
-1.42414e-06
-1.43685e-06
-1.44971e-06
-1.46275e-06
-1.47596e-06
-1.48933e-06
-1.50289e-06
-1.51662e-06
-1.53053e-06
-1.54463e-06
-1.55892e-06
-1.5734e-06
-1.58807e-06
-1.60294e-06
-1.61802e-06
-1.63331e-06
-1.6488e-06
-1.66452e-06
-1.68045e-06
-1.69661e-06
-1.713e-06
-1.72962e-06
-1.74649e-06
-1.7636e-06
-1.78096e-06
-1.79859e-06
-1.81647e-06
-1.83463e-06
-1.85306e-06
-1.87178e-06
-1.89078e-06
-1.91009e-06
-1.92969e-06
-1.94962e-06
-1.96986e-06
-1.99043e-06
-2.01134e-06
-2.0326e-06
-2.05422e-06
-2.0762e-06
-2.09856e-06
-2.12131e-06
-2.14446e-06
-2.16801e-06
-2.19199e-06
-2.2164e-06
-2.24125e-06
-2.26657e-06
-2.29236e-06
-2.31864e-06
-2.34542e-06
-2.37271e-06
-2.40054e-06
-2.42892e-06
-2.45787e-06
-2.4874e-06
-2.51753e-06
-2.54828e-06
-2.57967e-06
-2.61172e-06
-2.64446e-06
-2.67789e-06
-2.71206e-06
-2.74697e-06
-2.78264e-06
-2.81912e-06
-2.85642e-06
-2.89456e-06
-2.93358e-06
-2.9735e-06
-3.01434e-06
-3.05615e-06
-3.09894e-06
-3.14275e-06
-3.1876e-06
-3.23354e-06
-3.28059e-06
-3.32878e-06
-3.37816e-06
-3.42874e-06
-3.48058e-06
-3.5337e-06
-3.58814e-06
-3.64394e-06
-3.70113e-06
-3.75975e-06
-3.81985e-06
-3.88144e-06
-3.94459e-06
-4.00931e-06
-4.07566e-06
-4.14367e-06
-4.21337e-06
-4.28481e-06
-4.35802e-06
-4.43305e-06
-4.50991e-06
-4.58866e-06
-4.66933e-06
-4.75195e-06
-4.83654e-06
-4.92316e-06
-5.01182e-06
-5.10255e-06
-5.19538e-06
-5.29034e-06
-5.38744e-06
-5.48671e-06
-5.58817e-06
-5.69183e-06
-5.79771e-06
-5.90581e-06
-6.01614e-06
-6.1287e-06
-6.2435e-06
-6.36053e-06
-6.47978e-06
-6.60124e-06
-6.7249e-06
-6.85072e-06
-6.97869e-06
-7.10878e-06
-7.24095e-06
-7.37516e-06
-7.51135e-06
-7.64949e-06
-7.78951e-06
-7.93136e-06
-8.07495e-06
-8.22022e-06
-8.36708e-06
-8.51545e-06
-8.66523e-06
-8.81632e-06
-8.96862e-06
-9.12201e-06
-9.27637e-06
-9.43158e-06
-9.58751e-06
-9.74401e-06
-9.90095e-06
-1.00582e-05
-1.02155e-05
-1.03728e-05
-1.05299e-05
-1.06867e-05
-1.08428e-05
-1.09983e-05
-1.11528e-05
-1.13062e-05
-1.14582e-05
-1.16088e-05
-1.17576e-05
-1.19045e-05
-1.20493e-05
-1.21917e-05
-1.23316e-05
-1.24686e-05
-1.26027e-05
-1.27336e-05
-1.28611e-05
-1.29849e-05
-1.31048e-05
-1.32207e-05
-1.33323e-05
-1.34394e-05
-1.35419e-05
-1.36394e-05
-1.37318e-05
-1.3819e-05
-1.39007e-05
-1.39767e-05
-1.40469e-05
-1.41112e-05
-1.41692e-05
-1.4221e-05
-1.42663e-05
-1.43051e-05
-1.43371e-05
-1.43623e-05
-1.43806e-05
-1.43919e-05
-1.4396e-05
-1.4393e-05
-1.43827e-05
-1.43652e-05
-1.43403e-05
-1.43081e-05
-1.42685e-05
-1.42215e-05
-1.41672e-05
-1.41055e-05
-1.40365e-05
-1.39603e-05
-1.38769e-05
-1.37864e-05
-1.36888e-05
-1.35843e-05
-1.3473e-05
-1.3355e-05
-1.32304e-05
-1.30994e-05
-1.29621e-05
-1.28187e-05
-1.26694e-05
-1.25143e-05
-1.23536e-05
-1.21876e-05
-1.20164e-05
-1.18403e-05
-1.16595e-05
-1.14741e-05
-1.12845e-05
-1.10909e-05
-1.08936e-05
-1.06927e-05
-1.04885e-05
-1.02813e-05
-1.00714e-05
-9.85893e-06
-9.64424e-06
-9.42756e-06
-9.20915e-06
-8.98928e-06
-8.76819e-06
-8.54614e-06
-8.32339e-06
-8.10018e-06
-7.87676e-06
-7.65336e-06
-7.43023e-06
-7.2076e-06
-6.98569e-06
-6.76472e-06
-6.54491e-06
-6.32646e-06
-6.10957e-06
-5.89443e-06
-5.68124e-06
-5.47016e-06
-5.26138e-06
-5.05504e-06
-4.8513e-06
-4.65032e-06
-4.45221e-06
-4.25712e-06
-4.06516e-06
-3.87644e-06
-3.69106e-06
-3.50912e-06
-3.33069e-06
-3.15586e-06
-2.9847e-06
-2.81725e-06
-2.65358e-06
-2.49373e-06
-2.33772e-06
-2.1856e-06
-2.03737e-06
-1.89306e-06
-1.75266e-06
-1.61618e-06
-1.48361e-06
-1.35494e-06
-1.23014e-06
-1.1092e-06
-9.92075e-07
-8.78741e-07
-7.69151e-07
-6.63265e-07
-5.61031e-07
-4.62397e-07
-3.67307e-07
-2.75701e-07
-1.87515e-07
-1.02686e-07
-2.11437e-08
5.71805e-08
1.32361e-07
2.0447e-07
2.73584e-07
3.39779e-07
4.03133e-07
4.63726e-07
5.2163e-07
5.76947e-07
6.29695e-07
6.80108e-07
7.27893e-07
7.73995e-07
8.16563e-07
8.59798e-07
8.95329e-07
9.39805e-07
9.6223e-07
1.01824e-06
1.01334e-06
1.10048e-06
1.04548e-06
1.18789e-06
1.06321e-06
1.27125e-06
1.08129e-06
1.33592e-06
1.11103e-06
1.3785e-06
1.1517e-06
1.39489e-06
1.22487e-06
1.34034e-06
1.38017e-06
1.19533e-06
1.56195e-06
1.07257e-06
1.75359e-06
7.69957e-07
3.616e-06
1.4135e-06
1.4135e-06
-0.125293
0.125293
0.0249355
0.00835748
0.00427728
0.00266049
0.00183226
0.0013445
0.00103163
0.00081862
0.000667112
0.000555966
0.000472144
0.000406491
0.000352849
0.00030812
0.000271192
0.000240851
0.000214429
0.000188411
0.000160351
0.000130403
0.0001012
7.62281e-05
5.78763e-05
4.63697e-05
4.0007e-05
3.62534e-05
3.28985e-05
2.87141e-05
2.34975e-05
1.77221e-05
1.20918e-05
7.20487e-06
3.39456e-06
7.19827e-07
-9.58314e-07
-1.8766e-06
-2.28525e-06
-2.39602e-06
-2.3617e-06
-2.27752e-06
-2.19383e-06
-2.13118e-06
-2.0934e-06
-2.07671e-06
-2.07511e-06
-2.08302e-06
-2.09626e-06
-2.11204e-06
-2.12873e-06
-2.14545e-06
-2.16182e-06
-2.17771e-06
-2.19314e-06
-2.20817e-06
-2.22289e-06
-2.23737e-06
-2.25167e-06
-2.26587e-06
-2.28e-06
-2.2941e-06
-2.30822e-06
-2.32237e-06
-2.33658e-06
-2.35086e-06
-2.36524e-06
-2.37973e-06
-2.39435e-06
-2.4091e-06
-2.424e-06
-2.43905e-06
-2.45426e-06
-2.46964e-06
-2.4852e-06
-2.50094e-06
-2.51687e-06
-2.53298e-06
-2.54929e-06
-2.5658e-06
-2.58251e-06
-2.59943e-06
-2.61656e-06
-2.6339e-06
-2.65146e-06
-2.66923e-06
-2.68724e-06
-2.70547e-06
-2.72393e-06
-2.74262e-06
-2.76156e-06
-2.78074e-06
-2.80017e-06
-2.81984e-06
-2.83978e-06
-2.85998e-06
-2.88045e-06
-2.90118e-06
-2.9222e-06
-2.94349e-06
-2.96508e-06
-2.98696e-06
-3.00915e-06
-3.03164e-06
-3.05445e-06
-3.07757e-06
-3.10103e-06
-3.12482e-06
-3.14896e-06
-3.17344e-06
-3.19829e-06
-3.22351e-06
-3.2491e-06
-3.27508e-06
-3.30145e-06
-3.32823e-06
-3.35543e-06
-3.38305e-06
-3.41111e-06
-3.43961e-06
-3.46857e-06
-3.49801e-06
-3.52793e-06
-3.55834e-06
-3.58926e-06
-3.62071e-06
-3.6527e-06
-3.68523e-06
-3.71834e-06
-3.75202e-06
-3.78631e-06
-3.82121e-06
-3.85674e-06
-3.89293e-06
-3.92978e-06
-3.96732e-06
-4.00558e-06
-4.04456e-06
-4.08429e-06
-4.12479e-06
-4.16609e-06
-4.2082e-06
-4.25115e-06
-4.29497e-06
-4.33968e-06
-4.3853e-06
-4.43187e-06
-4.47941e-06
-4.52795e-06
-4.5775e-06
-4.62812e-06
-4.67982e-06
-4.73264e-06
-4.78661e-06
-4.84176e-06
-4.89812e-06
-4.95572e-06
-5.01461e-06
-5.07481e-06
-5.13636e-06
-5.19929e-06
-5.26364e-06
-5.32946e-06
-5.39676e-06
-5.4656e-06
-5.53601e-06
-5.60802e-06
-5.68167e-06
-5.75701e-06
-5.83406e-06
-5.91287e-06
-5.99347e-06
-6.0759e-06
-6.1602e-06
-6.2464e-06
-6.33453e-06
-6.42464e-06
-6.51674e-06
-6.61089e-06
-6.7071e-06
-6.80541e-06
-6.90585e-06
-7.00843e-06
-7.11319e-06
-7.22015e-06
-7.32933e-06
-7.44075e-06
-7.55442e-06
-7.67036e-06
-7.78856e-06
-7.90906e-06
-8.03183e-06
-8.1569e-06
-8.28424e-06
-8.41386e-06
-8.54574e-06
-8.67986e-06
-8.81621e-06
-8.95477e-06
-9.09549e-06
-9.23834e-06
-9.38329e-06
-9.53029e-06
-9.67929e-06
-9.83023e-06
-9.98304e-06
-1.01377e-05
-1.0294e-05
-1.0452e-05
-1.06116e-05
-1.07726e-05
-1.09351e-05
-1.10987e-05
-1.12636e-05
-1.14294e-05
-1.15962e-05
-1.17637e-05
-1.19319e-05
-1.21005e-05
-1.22695e-05
-1.24386e-05
-1.26078e-05
-1.27768e-05
-1.29454e-05
-1.31135e-05
-1.32809e-05
-1.34474e-05
-1.36128e-05
-1.37769e-05
-1.39395e-05
-1.41003e-05
-1.42592e-05
-1.44159e-05
-1.45703e-05
-1.4722e-05
-1.48709e-05
-1.50168e-05
-1.51593e-05
-1.52984e-05
-1.54337e-05
-1.5565e-05
-1.56921e-05
-1.58148e-05
-1.59328e-05
-1.6046e-05
-1.6154e-05
-1.62568e-05
-1.6354e-05
-1.64455e-05
-1.65311e-05
-1.66105e-05
-1.66837e-05
-1.67503e-05
-1.68103e-05
-1.68635e-05
-1.69097e-05
-1.69488e-05
-1.69806e-05
-1.70051e-05
-1.7022e-05
-1.70313e-05
-1.70329e-05
-1.70268e-05
-1.70127e-05
-1.69908e-05
-1.69609e-05
-1.6923e-05
-1.68771e-05
-1.68232e-05
-1.67613e-05
-1.66914e-05
-1.66136e-05
-1.65278e-05
-1.64342e-05
-1.63328e-05
-1.62238e-05
-1.61071e-05
-1.5983e-05
-1.58515e-05
-1.57128e-05
-1.5567e-05
-1.54144e-05
-1.5255e-05
-1.5089e-05
-1.49167e-05
-1.47383e-05
-1.45539e-05
-1.43638e-05
-1.41681e-05
-1.39673e-05
-1.37614e-05
-1.35508e-05
-1.33356e-05
-1.31162e-05
-1.28929e-05
-1.26658e-05
-1.24354e-05
-1.22017e-05
-1.19652e-05
-1.17262e-05
-1.14848e-05
-1.12414e-05
-1.09962e-05
-1.07496e-05
-1.05018e-05
-1.02531e-05
-1.00038e-05
-9.75406e-06
-9.50427e-06
-9.25463e-06
-9.00543e-06
-8.75689e-06
-8.50927e-06
-8.26281e-06
-8.01774e-06
-7.77427e-06
-7.53264e-06
-7.29304e-06
-7.05568e-06
-6.82074e-06
-6.58843e-06
-6.3589e-06
-6.13232e-06
-5.90885e-06
-5.68865e-06
-5.47183e-06
-5.25854e-06
-5.04889e-06
-4.843e-06
-4.64095e-06
-4.44285e-06
-4.24877e-06
-4.05879e-06
-3.87296e-06
-3.69135e-06
-3.514e-06
-3.34095e-06
-3.17222e-06
-3.00784e-06
-2.84782e-06
-2.69216e-06
-2.54086e-06
-2.39393e-06
-2.25132e-06
-2.11304e-06
-1.97904e-06
-1.84929e-06
-1.72376e-06
-1.6024e-06
-1.48515e-06
-1.37198e-06
-1.2628e-06
-1.15758e-06
-1.05622e-06
-9.5868e-07
-8.64869e-07
-7.74721e-07
-6.88151e-07
-6.05087e-07
-5.25438e-07
-4.4913e-07
-3.7607e-07
-3.06178e-07
-2.39364e-07
-1.75539e-07
-1.14629e-07
-5.65014e-08
-1.19124e-09
5.17043e-08
1.01506e-07
1.50085e-07
1.93544e-07
2.40503e-07
2.73511e-07
3.27144e-07
3.36638e-07
4.18355e-07
3.73892e-07
5.2511e-07
3.77646e-07
6.50114e-07
3.56636e-07
7.73326e-07
3.41931e-07
8.6241e-07
3.57859e-07
9.09243e-07
4.01812e-07
9.05946e-07
5.17778e-07
7.56703e-07
8.13733e-07
4.14441e-07
1.17393e-06
1.23188e-07
1.54422e-06
-5.19413e-07
5.34795e-06
8.118e-07
8.118e-07
-0.146487
0.146487
0.03831
0.0142333
0.00745494
0.00467112
0.00322813
0.00237345
0.00182325
0.00144776
0.00118023
0.000983716
0.000835272
0.000718816
0.000623663
0.000544466
0.00047914
0.000425238
0.000377873
0.000330992
0.000280703
0.000227675
0.000176654
0.000133537
0.000102102
8.23807e-05
7.12377e-05
6.42985e-05
5.78859e-05
5.00508e-05
4.05704e-05
3.03145e-05
2.04863e-05
1.20697e-05
5.58174e-06
1.0759e-06
-1.71896e-06
-3.2258e-06
-3.87878e-06
-4.03898e-06
-3.9635e-06
-3.81065e-06
-3.6628e-06
-3.55263e-06
-3.48534e-06
-3.45382e-06
-3.44763e-06
-3.45729e-06
-3.4757e-06
-3.49822e-06
-3.52212e-06
-3.54596e-06
-3.56911e-06
-3.59137e-06
-3.61277e-06
-3.63341e-06
-3.65345e-06
-3.673e-06
-3.69219e-06
-3.7111e-06
-3.72984e-06
-3.74845e-06
-3.76699e-06
-3.78552e-06
-3.80406e-06
-3.82266e-06
-3.84133e-06
-3.86011e-06
-3.87903e-06
-3.89808e-06
-3.9173e-06
-3.93669e-06
-3.95628e-06
-3.97606e-06
-3.99605e-06
-4.01626e-06
-4.03669e-06
-4.05736e-06
-4.07826e-06
-4.0994e-06
-4.1208e-06
-4.14244e-06
-4.16434e-06
-4.1865e-06
-4.20892e-06
-4.23161e-06
-4.25457e-06
-4.27781e-06
-4.30133e-06
-4.32513e-06
-4.34923e-06
-4.37361e-06
-4.3983e-06
-4.42329e-06
-4.44859e-06
-4.4742e-06
-4.50014e-06
-4.5264e-06
-4.55299e-06
-4.57992e-06
-4.60721e-06
-4.63484e-06
-4.66283e-06
-4.69119e-06
-4.71993e-06
-4.74904e-06
-4.77855e-06
-4.80846e-06
-4.83878e-06
-4.8695e-06
-4.90066e-06
-4.93225e-06
-4.9643e-06
-4.99679e-06
-5.02975e-06
-5.06318e-06
-5.0971e-06
-5.13152e-06
-5.16645e-06
-5.2019e-06
-5.23789e-06
-5.27443e-06
-5.31153e-06
-5.3492e-06
-5.38746e-06
-5.42633e-06
-5.46581e-06
-5.50593e-06
-5.54671e-06
-5.58815e-06
-5.63028e-06
-5.6731e-06
-5.71666e-06
-5.76094e-06
-5.806e-06
-5.85182e-06
-5.89846e-06
-5.9459e-06
-5.9942e-06
-6.04336e-06
-6.09341e-06
-6.14437e-06
-6.19627e-06
-6.24912e-06
-6.30297e-06
-6.35783e-06
-6.41373e-06
-6.4707e-06
-6.52876e-06
-6.58795e-06
-6.64829e-06
-6.70982e-06
-6.77256e-06
-6.83654e-06
-6.90181e-06
-6.96838e-06
-7.0363e-06
-7.10558e-06
-7.17628e-06
-7.24842e-06
-7.32204e-06
-7.39716e-06
-7.47384e-06
-7.55209e-06
-7.63196e-06
-7.71348e-06
-7.79669e-06
-7.88161e-06
-7.96829e-06
-8.05676e-06
-8.14706e-06
-8.2392e-06
-8.33325e-06
-8.4292e-06
-8.52712e-06
-8.62702e-06
-8.72893e-06
-8.83288e-06
-8.9389e-06
-9.04701e-06
-9.15724e-06
-9.2696e-06
-9.38412e-06
-9.50082e-06
-9.61971e-06
-9.7408e-06
-9.86411e-06
-9.98963e-06
-1.01174e-05
-1.02474e-05
-1.03796e-05
-1.0514e-05
-1.06506e-05
-1.07894e-05
-1.09304e-05
-1.10736e-05
-1.12188e-05
-1.13662e-05
-1.15156e-05
-1.1667e-05
-1.18205e-05
-1.19758e-05
-1.2133e-05
-1.22919e-05
-1.24526e-05
-1.2615e-05
-1.27789e-05
-1.29443e-05
-1.3111e-05
-1.32791e-05
-1.34483e-05
-1.36186e-05
-1.37899e-05
-1.39619e-05
-1.41347e-05
-1.43079e-05
-1.44816e-05
-1.46555e-05
-1.48295e-05
-1.50034e-05
-1.51771e-05
-1.53503e-05
-1.55229e-05
-1.56947e-05
-1.58656e-05
-1.60352e-05
-1.62034e-05
-1.637e-05
-1.65348e-05
-1.66976e-05
-1.68581e-05
-1.70161e-05
-1.71714e-05
-1.73237e-05
-1.7473e-05
-1.76188e-05
-1.77609e-05
-1.78993e-05
-1.80335e-05
-1.81634e-05
-1.82887e-05
-1.84093e-05
-1.85248e-05
-1.86351e-05
-1.874e-05
-1.88391e-05
-1.89324e-05
-1.90196e-05
-1.91005e-05
-1.9175e-05
-1.92427e-05
-1.93036e-05
-1.93574e-05
-1.94041e-05
-1.94434e-05
-1.94752e-05
-1.94994e-05
-1.95159e-05
-1.95244e-05
-1.9525e-05
-1.95176e-05
-1.9502e-05
-1.94781e-05
-1.94461e-05
-1.94057e-05
-1.9357e-05
-1.92999e-05
-1.92345e-05
-1.91607e-05
-1.90787e-05
-1.89883e-05
-1.88898e-05
-1.8783e-05
-1.86682e-05
-1.85455e-05
-1.84148e-05
-1.82764e-05
-1.81304e-05
-1.79769e-05
-1.7816e-05
-1.76481e-05
-1.74731e-05
-1.72914e-05
-1.71031e-05
-1.69084e-05
-1.67076e-05
-1.65009e-05
-1.62885e-05
-1.60707e-05
-1.58478e-05
-1.56199e-05
-1.53874e-05
-1.51505e-05
-1.49096e-05
-1.46649e-05
-1.44166e-05
-1.41652e-05
-1.39108e-05
-1.36538e-05
-1.33944e-05
-1.3133e-05
-1.28698e-05
-1.26052e-05
-1.23395e-05
-1.20728e-05
-1.18056e-05
-1.1538e-05
-1.12705e-05
-1.10031e-05
-1.07363e-05
-1.04703e-05