# vtk DataFile Version 2.0
FlowField
ASCII
DATASET STRUCTURED_GRID
DIMENSIONS 400 1 200
POINTS 80000 float
0 0 0
0.08 0 0
0.16 0 0
0.24 0 0
0.32 0 0
0.4 0 0
0.48 0 0
0.56 0 0
0.64 0 0
0.72 0 0
0.8 0 0
0.88 0 0
0.96 0 0
1.04 0 0
1.12 0 0
1.2 0 0
1.28 0 0
1.36 0 0
1.44 0 0
1.52 0 0
1.6 0 0
1.68 0 0
1.76 0 0
1.84 0 0
1.92 0 0
2 0 0
2.08 0 0
2.16 0 0
2.24 0 0
2.32 0 0
2.4 0 0
2.48 0 0
2.56 0 0
2.64 0 0
2.72 0 0
2.8 0 0
2.88 0 0
2.96 0 0
3.04 0 0
3.12 0 0
3.2 0 0
3.28 0 0
3.36 0 0
3.44 0 0
3.52 0 0
3.6 0 0
3.68 0 0
3.76 0 0
3.84 0 0
3.92 0 0
4 0 0
4.08 0 0
4.16 0 0
4.24 0 0
4.32 0 0
4.4 0 0
4.48 0 0
4.56 0 0
4.64 0 0
4.72 0 0
4.8 0 0
4.88 0 0
4.96 0 0
5.04 0 0
5.12 0 0
5.2 0 0
5.28 0 0
5.36 0 0
5.44 0 0
5.52 0 0
5.6 0 0
5.68 0 0
5.76 0 0
5.84 0 0
5.92 0 0
6 0 0
6.08 0 0
6.16 0 0
6.24 0 0
6.32 0 0
6.4 0 0
6.48 0 0
6.56 0 0
6.64 0 0
6.72 0 0
6.8 0 0
6.88 0 0
6.96 0 0
7.04 0 0
7.12 0 0
7.2 0 0
7.28 0 0
7.36 0 0
7.44 0 0
7.52 0 0
7.6 0 0
7.68 0 0
7.76 0 0
7.84 0 0
7.92 0 0
8 0 0
8.08 0 0
8.16 0 0
8.24 0 0
8.32 0 0
8.4 0 0
8.48 0 0
8.56 0 0
8.64 0 0
8.72 0 0
8.8 0 0
8.88 0 0
8.96 0 0
9.04 0 0
9.12 0 0
9.2 0 0
9.28 0 0
9.36 0 0
9.44 0 0
9.52 0 0
9.6 0 0
9.68 0 0
9.76 0 0
9.84 0 0
9.92 0 0
10 0 0
10.08 0 0
10.16 0 0
10.24 0 0
10.32 0 0
10.4 0 0
10.48 0 0
10.56 0 0
10.64 0 0
10.72 0 0
10.8 0 0
10.88 0 0
10.96 0 0
11.04 0 0
11.12 0 0
11.2 0 0
11.28 0 0
11.36 0 0
11.44 0 0
11.52 0 0
11.6 0 0
11.68 0 0
11.76 0 0
11.84 0 0
11.92 0 0
12 0 0
12.08 0 0
12.16 0 0
12.24 0 0
12.32 0 0
12.4 0 0
12.48 0 0
12.56 0 0
12.64 0 0
12.72 0 0
12.8 0 0
12.88 0 0
12.96 0 0
13.04 0 0
13.12 0 0
13.2 0 0
13.28 0 0
13.36 0 0
13.44 0 0
13.52 0 0
13.6 0 0
13.68 0 0
13.76 0 0
13.84 0 0
13.92 0 0
14 0 0
14.08 0 0
14.16 0 0
14.24 0 0
14.32 0 0
14.4 0 0
14.48 0 0
14.56 0 0
14.64 0 0
14.72 0 0
14.8 0 0
14.88 0 0
14.96 0 0
15.04 0 0
15.12 0 0
15.2 0 0
15.28 0 0
15.36 0 0
15.44 0 0
15.52 0 0
15.6 0 0
15.68 0 0
15.76 0 0
15.84 0 0
15.92 0 0
16 0 0
16.08 0 0
16.16 0 0
16.24 0 0
16.32 0 0
16.4 0 0
16.48 0 0
16.56 0 0
16.64 0 0
16.72 0 0
16.8 0 0
16.88 0 0
16.96 0 0
17.04 0 0
17.12 0 0
17.2 0 0
17.28 0 0
17.36 0 0
17.44 0 0
17.52 0 0
17.6 0 0
17.68 0 0
17.76 0 0
17.84 0 0
17.92 0 0
18 0 0
18.08 0 0
18.16 0 0
18.24 0 0
18.32 0 0
18.4 0 0
18.48 0 0
18.56 0 0
18.64 0 0
18.72 0 0
18.8 0 0
18.88 0 0
18.96 0 0
19.04 0 0
19.12 0 0
19.2 0 0
19.28 0 0
19.36 0 0
19.44 0 0
19.52 0 0
19.6 0 0
19.68 0 0
19.76 0 0
19.84 0 0
19.92 0 0
20 0 0
20.08 0 0
20.16 0 0
20.24 0 0
20.32 0 0
20.4 0 0
20.48 0 0
20.56 0 0
20.64 0 0
20.72 0 0
20.8 0 0
20.88 0 0
20.96 0 0
21.04 0 0
21.12 0 0
21.2 0 0
21.28 0 0
21.36 0 0
21.44 0 0
21.52 0 0
21.6 0 0
21.68 0 0
21.76 0 0
21.84 0 0
21.92 0 0
22 0 0
22.08 0 0
22.16 0 0
22.24 0 0
22.32 0 0
22.4 0 0
22.48 0 0
22.56 0 0
22.64 0 0
22.72 0 0
22.8 0 0
22.88 0 0
22.96 0 0
23.04 0 0
23.12 0 0
23.2 0 0
23.28 0 0
23.36 0 0
23.44 0 0
23.52 0 0
23.6 0 0
23.68 0 0
23.76 0 0
23.84 0 0
23.92 0 0
24 0 0
24.08 0 0
24.16 0 0
24.24 0 0
24.32 0 0
24.4 0 0
24.48 0 0
24.56 0 0
24.64 0 0
24.72 0 0
24.8 0 0
24.88 0 0
24.96 0 0
25.04 0 0
25.12 0 0
25.2 0 0
25.28 0 0
25.36 0 0
25.44 0 0
25.52 0 0
25.6 0 0
25.68 0 0
25.76 0 0
25.84 0 0
25.92 0 0
26 0 0
26.08 0 0
26.16 0 0
26.24 0 0
26.32 0 0
26.4 0 0
26.48 0 0
26.56 0 0
26.64 0 0
26.72 0 0
26.8 0 0
26.88 0 0
26.96 0 0
27.04 0 0
27.12 0 0
27.2 0 0
27.28 0 0
27.36 0 0
27.44 0 0
27.52 0 0
27.6 0 0
27.68 0 0
27.76 0 0
27.84 0 0
27.92 0 0
28 0 0
28.08 0 0
28.16 0 0
28.24 0 0
28.32 0 0
28.4 0 0
28.48 0 0
28.56 0 0
28.64 0 0
28.72 0 0
28.8 0 0
28.88 0 0
28.96 0 0
29.04 0 0
29.12 0 0
29.2 0 0
29.28 0 0
29.36 0 0
29.44 0 0
29.52 0 0
29.6 0 0
29.68 0 0
29.76 0 0
29.84 0 0
29.92 0 0
30 0 0
30.08 0 0
30.16 0 0
30.24 0 0
30.32 0 0
30.4 0 0
30.48 0 0
30.56 0 0
30.64 0 0
30.72 0 0
30.8 0 0
30.88 0 0
30.96 0 0
31.04 0 0
31.12 0 0
31.2 0 0
31.28 0 0
31.36 0 0
31.44 0 0
31.52 0 0
31.6 0 0
31.68 0 0
31.76 0 0
31.84 0 0
31.92 0 0
0 0.005 0
0.08 0.005 0
0.16 0.005 0
0.24 0.005 0
0.32 0.005 0
0.4 0.005 0
0.48 0.005 0
0.56 0.005 0
0.64 0.005 0
0.72 0.005 0
0.8 0.005 0
0.88 0.005 0
0.96 0.005 0
1.04 0.005 0
1.12 0.005 0
1.2 0.005 0
1.28 0.005 0
1.36 0.005 0
1.44 0.005 0
1.52 0.005 0
1.6 0.005 0
1.68 0.005 0
1.76 0.005 0
1.84 0.005 0
1.92 0.005 0
2 0.005 0
2.08 0.005 0
2.16 0.005 0
2.24 0.005 0
2.32 0.005 0
2.4 0.005 0
2.48 0.005 0
2.56 0.005 0
2.64 0.005 0
2.72 0.005 0
2.8 0.005 0
2.88 0.005 0
2.96 0.005 0
3.04 0.005 0
3.12 0.005 0
3.2 0.005 0
3.28 0.005 0
3.36 0.005 0
3.44 0.005 0
3.52 0.005 0
3.6 0.005 0
3.68 0.005 0
3.76 0.005 0
3.84 0.005 0
3.92 0.005 0
4 0.005 0
4.08 0.005 0
4.16 0.005 0
4.24 0.005 0
4.32 0.005 0
4.4 0.005 0
4.48 0.005 0
4.56 0.005 0
4.64 0.005 0
4.72 0.005 0
4.8 0.005 0
4.88 0.005 0
4.96 0.005 0
5.04 0.005 0
5.12 0.005 0
5.2 0.005 0
5.28 0.005 0
5.36 0.005 0
5.44 0.005 0
5.52 0.005 0
5.6 0.005 0
5.68 0.005 0
5.76 0.005 0
5.84 0.005 0
5.92 0.005 0
6 0.005 0
6.08 0.005 0
6.16 0.005 0
6.24 0.005 0
6.32 0.005 0
6.4 0.005 0
6.48 0.005 0
6.56 0.005 0
6.64 0.005 0
6.72 0.005 0
6.8 0.005 0
6.88 0.005 0
6.96 0.005 0
7.04 0.005 0
7.12 0.005 0
7.2 0.005 0
7.28 0.005 0
7.36 0.005 0
7.44 0.005 0
7.52 0.005 0
7.6 0.005 0
7.68 0.005 0
7.76 0.005 0
7.84 0.005 0
7.92 0.005 0
8 0.005 0
8.08 0.005 0
8.16 0.005 0
8.24 0.005 0
8.32 0.005 0
8.4 0.005 0
8.48 0.005 0
8.56 0.005 0
8.64 0.005 0
8.72 0.005 0
8.8 0.005 0
8.88 0.005 0
8.96 0.005 0
9.04 0.005 0
9.12 0.005 0
9.2 0.005 0
9.28 0.005 0
9.36 0.005 0
9.44 0.005 0
9.52 0.005 0
9.6 0.005 0
9.68 0.005 0
9.76 0.005 0
9.84 0.005 0
9.92 0.005 0
10 0.005 0
10.08 0.005 0
10.16 0.005 0
10.24 0.005 0
10.32 0.005 0
10.4 0.005 0
10.48 0.005 0
10.56 0.005 0
10.64 0.005 0
10.72 0.005 0
10.8 0.005 0
10.88 0.005 0
10.96 0.005 0
11.04 0.005 0
11.12 0.005 0
11.2 0.005 0
11.28 0.005 0
11.36 0.005 0
11.44 0.005 0
11.52 0.005 0
11.6 0.005 0
11.68 0.005 0
11.76 0.005 0
11.84 0.005 0
11.92 0.005 0
12 0.005 0
12.08 0.005 0
12.16 0.005 0
12.24 0.005 0
12.32 0.005 0
12.4 0.005 0
12.48 0.005 0
12.56 0.005 0
12.64 0.005 0
12.72 0.005 0
12.8 0.005 0
12.88 0.005 0
12.96 0.005 0
13.04 0.005 0
13.12 0.005 0
13.2 0.005 0
13.28 0.005 0
13.36 0.005 0
13.44 0.005 0
13.52 0.005 0
13.6 0.005 0
13.68 0.005 0
13.76 0.005 0
13.84 0.005 0
13.92 0.005 0
14 0.005 0
14.08 0.005 0
14.16 0.005 0
14.24 0.005 0
14.32 0.005 0
14.4 0.005 0
14.48 0.005 0
14.56 0.005 0
14.64 0.005 0
14.72 0.005 0
14.8 0.005 0
14.88 0.005 0
14.96 0.005 0
15.04 0.005 0
15.12 0.005 0
15.2 0.005 0
15.28 0.005 0
15.36 0.005 0
15.44 0.005 0
15.52 0.005 0
15.6 0.005 0
15.68 0.005 0
15.76 0.005 0
15.84 0.005 0
15.92 0.005 0
16 0.005 0
16.08 0.005 0
16.16 0.005 0
16.24 0.005 0
16.32 0.005 0
16.4 0.005 0
16.48 0.005 0
16.56 0.005 0
16.64 0.005 0
16.72 0.005 0
16.8 0.005 0
16.88 0.005 0
16.96 0.005 0
17.04 0.005 0
17.12 0.005 0
17.2 0.005 0
17.28 0.005 0
17.36 0.005 0
17.44 0.005 0
17.52 0.005 0
17.6 0.005 0
17.68 0.005 0
17.76 0.005 0
17.84 0.005 0
17.92 0.005 0
18 0.005 0
18.08 0.005 0
18.16 0.005 0
18.24 0.005 0
18.32 0.005 0
18.4 0.005 0
18.48 0.005 0
18.56 0.005 0
18.64 0.005 0
18.72 0.005 0
18.8 0.005 0
18.88 0.005 0
18.96 0.005 0
19.04 0.005 0
19.12 0.005 0
19.2 0.005 0
19.28 0.005 0
19.36 0.005 0
19.44 0.005 0
19.52 0.005 0
19.6 0.005 0
19.68 0.005 0
19.76 0.005 0
19.84 0.005 0
19.92 0.005 0
20 0.005 0
20.08 0.005 0
20.16 0.005 0
20.24 0.005 0
20.32 0.005 0
20.4 0.005 0
20.48 0.005 0
20.56 0.005 0
20.64 0.005 0
20.72 0.005 0
20.8 0.005 0
20.88 0.005 0
20.96 0.005 0
21.04 0.005 0
21.12 0.005 0
21.2 0.005 0
21.28 0.005 0
21.36 0.005 0
21.44 0.005 0
21.52 0.005 0
21.6 0.005 0
21.68 0.005 0
21.76 0.005 0
21.84 0.005 0
21.92 0.005 0
22 0.005 0
22.08 0.005 0
22.16 0.005 0
22.24 0.005 0
22.32 0.005 0
22.4 0.005 0
22.48 0.005 0
22.56 0.005 0
22.64 0.005 0
22.72 0.005 0
22.8 0.005 0
22.88 0.005 0
22.96 0.005 0
23.04 0.005 0
23.12 0.005 0
23.2 0.005 0
23.28 0.005 0
23.36 0.005 0
23.44 0.005 0
23.52 0.005 0
23.6 0.005 0
23.68 0.005 0
23.76 0.005 0
23.84 0.005 0
23.92 0.005 0
24 0.005 0
24.08 0.005 0
24.16 0.005 0
24.24 0.005 0
24.32 0.005 0
24.4 0.005 0
24.48 0.005 0
24.56 0.005 0
24.64 0.005 0
24.72 0.005 0
24.8 0.005 0
24.88 0.005 0
24.96 0.005 0
25.04 0.005 0
25.12 0.005 0
25.2 0.005 0
25.28 0.005 0
25.36 0.005 0
25.44 0.005 0
25.52 0.005 0
25.6 0.005 0
25.68 0.005 0
25.76 0.005 0
25.84 0.005 0
25.92 0.005 0
26 0.005 0
26.08 0.005 0
26.16 0.005 0
26.24 0.005 0
26.32 0.005 0
26.4 0.005 0
26.48 0.005 0
26.56 0.005 0
26.64 0.005 0
26.72 0.005 0
26.8 0.005 0
26.88 0.005 0
26.96 0.005 0
27.04 0.005 0
27.12 0.005 0
27.2 0.005 0
27.28 0.005 0
27.36 0.005 0
27.44 0.005 0
27.52 0.005 0
27.6 0.005 0
27.68 0.005 0
27.76 0.005 0
27.84 0.005 0
27.92 0.005 0
28 0.005 0
28.08 0.005 0
28.16 0.005 0
28.24 0.005 0
28.32 0.005 0
28.4 0.005 0
28.48 0.005 0
28.56 0.005 0
28.64 0.005 0
28.72 0.005 0
28.8 0.005 0
28.88 0.005 0
28.96 0.005 0
29.04 0.005 0
29.12 0.005 0
29.2 0.005 0
29.28 0.005 0
29.36 0.005 0
29.44 0.005 0
29.52 0.005 0
29.6 0.005 0
29.68 0.005 0
29.76 0.005 0
29.84 0.005 0
29.92 0.005 0
30 0.005 0
30.08 0.005 0
30.16 0.005 0
30.24 0.005 0
30.32 0.005 0
30.4 0.005 0
30.48 0.005 0
30.56 0.005 0
30.64 0.005 0
30.72 0.005 0
30.8 0.005 0
30.88 0.005 0
30.96 0.005 0
31.04 0.005 0
31.12 0.005 0
31.2 0.005 0
31.28 0.005 0
31.36 0.005 0
31.44 0.005 0
31.52 0.005 0
31.6 0.005 0
31.68 0.005 0
31.76 0.005 0
31.84 0.005 0
31.92 0.005 0
0 0.01 0
0.08 0.01 0
0.16 0.01 0
0.24 0.01 0
0.32 0.01 0
0.4 0.01 0
0.48 0.01 0
0.56 0.01 0
0.64 0.01 0
0.72 0.01 0
0.8 0.01 0
0.88 0.01 0
0.96 0.01 0
1.04 0.01 0
1.12 0.01 0
1.2 0.01 0
1.28 0.01 0
1.36 0.01 0
1.44 0.01 0
1.52 0.01 0
1.6 0.01 0
1.68 0.01 0
1.76 0.01 0
1.84 0.01 0
1.92 0.01 0
2 0.01 0
2.08 0.01 0
2.16 0.01 0
2.24 0.01 0
2.32 0.01 0
2.4 0.01 0
2.48 0.01 0
2.56 0.01 0
2.64 0.01 0
2.72 0.01 0
2.8 0.01 0
2.88 0.01 0
2.96 0.01 0
3.04 0.01 0
3.12 0.01 0
3.2 0.01 0
3.28 0.01 0
3.36 0.01 0
3.44 0.01 0
3.52 0.01 0
3.6 0.01 0
3.68 0.01 0
3.76 0.01 0
3.84 0.01 0
3.92 0.01 0
4 0.01 0
4.08 0.01 0
4.16 0.01 0
4.24 0.01 0
4.32 0.01 0
4.4 0.01 0
4.48 0.01 0
4.56 0.01 0
4.64 0.01 0
4.72 0.01 0
4.8 0.01 0
4.88 0.01 0
4.96 0.01 0
5.04 0.01 0
5.12 0.01 0
[...]
POINT_DATA 80000

SCALARS v float 1
LOOKUP_TABLE default
0
0
0
0
0
0
0
0
0
0
0
0
0
0
0
0
0
0
0
0
0
0
0
0
0
0
0
0
0
0
0
0
0
0
0
0
0
0
0
0
0
0
0
0
0
0
0
0
0
0
0
0
0
0
0
0
0
0
0
0
0
0
0
0
0
0
0
0
0
0
0
0
0
0
0
0
0
0
0
0
0
0
0
0
0
0
0
0
0
0
0
0
0
0
0
0
0
0
0
0
0
0
0
0
0
0
0
0
0
0
0
0
0
0
0
0
0
0
0
0
0
0
0
0
0
0
0
0
0
0
0
0
0
0
0
0
0
0
0
0
0
0
0
0
0
0
0
0
0
0
0
0
0
0
0
0
0
0
0
0
0
0
0
0
0
0
0
0
0
0
0
0
0
0
0
0
0
0
0
0
0
0
0
0
0
0
0
0
0
0
0
0
0
0
0
0
0
0
0
0
0
0
0
0
0
0
0
0
0
0
0
0
0
0
0
0
0
0
0
0
0
0
0
0
0
0
0
0
0
0
0
0
0
0
0
0
0
0
0
0
0
0
0
0
0
0
0
0
0
0
0
0
0
0
0
0
0
0
0
0
0
0
0
0
0
0
0
0
0
0
0
0
0
0
0
0
0
0
0
0
0
0
0
0
0
0
0
0
0
0
0
0
0
0
0
0
0
0
0
0
0
0
0
0
0
0
0
0
0
0
0
0
0
0
0
0
0
0
0
0
0
0
0
0
0
0
0
0
0
0
0
0
0
0
0
0
0
0
0
0
0
0
0
0
0
0
0
0
0
0
0
0
0
0
0
0
0
0
0
0
0
0
0
0
0
0
0
0
0
0
0
0
0
0
0
0
0
0
0
0
0
0
0
0
0
0
0
0
0
0
0
0
0
0
0
0
0
0
0
0
-0.0542714
0.0542714
0.00396237
0.000998606
0.000492538
0.000302975
0.0002076
0.000151972
0.000116531
9.25745e-05
7.56614e-05
6.3301e-05
5.40008e-05
4.68222e-05
4.11538e-05
3.65861e-05
3.28386e-05
2.97139e-05
2.70701e-05
2.48044e-05
2.28425e-05
2.11296e-05
1.96224e-05
1.82846e-05
1.70863e-05
1.60063e-05
1.50312e-05
1.41507e-05
1.33524e-05
1.26205e-05
1.19404e-05
1.13046e-05
1.07132e-05
1.01684e-05
9.66729e-06
9.19851e-06
8.74678e-06
8.3009e-06
7.85879e-06
7.42518e-06
7.00382e-06
6.59049e-06
6.17281e-06
5.73758e-06
5.28107e-06
4.81509e-06
4.36447e-06
3.95692e-06
3.61073e-06
3.32714e-06
3.09096e-06
2.87868e-06
2.6694e-06
2.45331e-06
2.23411e-06
2.0253e-06
1.84275e-06
1.69737e-06
1.59076e-06
1.51502e-06
1.456e-06
1.39812e-06
1.32883e-06
1.24129e-06
1.13501e-06
1.01472e-06
8.88235e-07
7.64129e-07
6.49853e-07
5.50587e-07
4.68876e-07
4.04884e-07
3.5702e-07
3.2268e-07
2.98912e-07
2.82912e-07
2.72305e-07
2.65259e-07
2.60463e-07
2.57045e-07
2.54461e-07
2.52389e-07
2.50647e-07
2.49134e-07
2.4779e-07
2.46576e-07
2.45461e-07
2.44422e-07
2.43439e-07
2.42494e-07
2.41575e-07
2.40671e-07
2.39777e-07
2.38887e-07
2.37999e-07
2.37111e-07
2.36224e-07
2.35336e-07
2.34448e-07
2.33561e-07
2.32673e-07
2.31785e-07
2.30898e-07
2.30011e-07
2.29125e-07
2.28238e-07
2.27352e-07
2.26465e-07
2.25579e-07
2.24693e-07
2.23807e-07
2.22921e-07
2.22035e-07
2.21149e-07
2.20262e-07
2.19376e-07
2.1849e-07
2.17604e-07
2.16718e-07
2.15832e-07
2.14947e-07
2.14061e-07
2.13176e-07
2.12291e-07
2.11406e-07
2.10521e-07
2.09636e-07
2.08752e-07
2.07868e-07
2.06984e-07
2.06101e-07
2.05218e-07
2.04335e-07
2.03452e-07
2.0257e-07
2.01688e-07
2.00806e-07
1.99925e-07
1.99044e-07
1.98163e-07
1.97283e-07
1.96403e-07
1.95524e-07
1.94645e-07
1.93766e-07
1.92887e-07
1.92009e-07
1.91132e-07
1.90255e-07
1.89378e-07
1.88502e-07
1.87626e-07
1.86751e-07
1.85876e-07
1.85001e-07
1.84127e-07
1.83253e-07
1.8238e-07
1.81507e-07
1.80635e-07
1.79763e-07
1.78892e-07
1.78021e-07
1.77151e-07
1.76281e-07
1.75411e-07
1.74542e-07
1.73673e-07
1.72805e-07
1.71937e-07
1.7107e-07
1.70203e-07
1.69337e-07
1.68471e-07
1.67605e-07
1.6674e-07
1.65875e-07
1.65011e-07
1.64147e-07
1.63283e-07
1.6242e-07
1.61557e-07
1.60694e-07
1.59832e-07
1.58969e-07
1.58108e-07
1.57246e-07
1.56385e-07
1.55524e-07
1.54663e-07
1.53802e-07
1.52941e-07
1.52081e-07
1.51221e-07
1.5036e-07
1.495e-07
1.4864e-07
1.4778e-07
1.4692e-07
1.46059e-07
1.45199e-07
1.44339e-07
1.43478e-07
1.42617e-07
1.41757e-07
1.40896e-07
1.40034e-07
1.39173e-07
1.38311e-07
1.37448e-07
1.36586e-07
1.35723e-07
1.34859e-07
1.33995e-07
1.3313e-07
1.32265e-07
1.314e-07
1.30533e-07
1.29666e-07
1.28799e-07
1.2793e-07
1.27061e-07
1.26191e-07
1.2532e-07
1.24449e-07
1.23576e-07
1.22703e-07
1.21828e-07
1.20953e-07
1.20076e-07
1.19198e-07
1.1832e-07
1.1744e-07
1.16559e-07
1.15677e-07
1.14793e-07
1.13908e-07
1.13022e-07
1.12135e-07
1.11246e-07
1.10356e-07
1.09464e-07
1.08571e-07
1.07677e-07
1.06781e-07
1.05884e-07
1.04984e-07
1.04084e-07
1.03182e-07
1.02278e-07
1.01373e-07
1.00465e-07
9.95567e-08
9.86463e-08
9.77342e-08
9.68204e-08
9.59048e-08
9.49874e-08
9.40684e-08
9.31475e-08
9.22249e-08
9.13004e-08
9.03742e-08
8.94462e-08
8.85163e-08
8.75846e-08
8.66511e-08
8.57157e-08
8.47786e-08
8.38395e-08
8.28987e-08
8.1956e-08
8.10114e-08
8.00651e-08
7.91168e-08
7.81668e-08
7.72149e-08
7.62612e-08
7.53057e-08
7.43484e-08
7.33892e-08
7.24283e-08
7.14655e-08
7.0501e-08
6.95347e-08
6.85667e-08
6.75969e-08
6.66253e-08
6.56521e-08
6.46771e-08
6.37004e-08
6.2722e-08
6.1742e-08
6.07602e-08
5.97769e-08
5.87918e-08
5.78052e-08
5.6817e-08
5.58271e-08
5.48357e-08
5.38427e-08
5.28482e-08
5.18521e-08
5.08546e-08
4.98555e-08
4.88549e-08
4.78529e-08
4.68493e-08
4.58444e-08
4.4838e-08
4.38302e-08
4.2821e-08
4.18104e-08
4.07985e-08
3.97852e-08
3.87705e-08
3.77545e-08
3.67371e-08
3.57185e-08
3.46985e-08
3.36773e-08
3.26548e-08
3.1631e-08
3.06059e-08
2.95796e-08
2.8552e-08
2.75232e-08
2.64932e-08
2.54619e-08
2.44294e-08
2.33957e-08
2.23608e-08
2.13247e-08
2.02873e-08
1.92488e-08
1.82089e-08
1.71682e-08
1.61256e-08
1.50829e-08
1.40371e-08
1.29933e-08
1.19432e-08
1.08996e-08
9.84329e-09
8.80243e-09
7.73664e-09
6.70253e-09
5.62248e-09
4.60042e-09
3.50024e-09
2.49635e-09
1.36976e-09
3.90081e-10
-7.68659e-10
-1.71911e-09
-2.91436e-09
-3.83216e-09
-5.06663e-09
-5.9498e-09
-7.22547e-09
-8.07151e-09
-9.39269e-09
-1.01946e-08
-1.15722e-08
-1.23146e-08
-1.37694e-08
-1.4426e-08
-1.59907e-08
-1.65219e-08
-1.82437e-08
-1.85949e-08
-2.05354e-08
-2.06393e-08
-2.28702e-08
-2.26525e-08
-2.52497e-08
-2.46351e-08
-2.76714e-08
-2.65935e-08
-3.01268e-08
-2.85417e-08
-3.26002e-08
-3.05098e-08
-3.50552e-08
-3.25695e-08
-3.74119e-08
-3.48763e-08
-3.95041e-08
-3.77747e-08
-4.09601e-08
-4.20512e-08
-4.08738e-08
-4.95599e-08
-3.65453e-08
-6.49015e-08
-1.62484e-08
-9.87665e-08
1.3549e-07
-4.94775e-08
-4.94775e-08
-0.0952162
0.0952162
0.0129759
0.00385496
0.00193465
0.00119655
0.00082209
0.000602665
0.000462419
0.000367394
0.000300184
0.000250999
0.000213957
0.000185348
0.000162753
0.000144545
0.00012961
0.00011716
0.000106631
9.76131e-05
8.98086e-05
8.29975e-05
7.70056e-05
7.16877e-05
6.69265e-05
6.26383e-05
5.87687e-05
5.52739e-05
5.2102e-05
4.91913e-05
4.64873e-05
4.3962e-05
4.16149e-05
3.94505e-05
3.74525e-05
3.55756e-05
3.37626e-05
3.19741e-05
3.02037e-05
2.84675e-05
2.67753e-05
2.51076e-05
2.34181e-05
2.16631e-05
1.98377e-05
1.79947e-05
1.62304e-05
1.46458e-05
1.33019e-05
1.2195e-05
1.1263e-05
1.04176e-05
9.58458e-06
8.73263e-06
7.87974e-06
7.07704e-06
6.38089e-06
5.82669e-06
5.41474e-06
5.11143e-06
4.86247e-06
4.61091e-06
4.31292e-06
3.94686e-06
3.51454e-06
3.03618e-06
2.54218e-06
2.06454e-06
1.63012e-06
1.2568e-06
9.52487e-07
7.16378e-07
5.41427e-07
4.1717e-07
3.32174e-07
2.75796e-07
2.39156e-07
2.15475e-07
1.99954e-07
1.89421e-07
1.81909e-07
1.76265e-07
1.71835e-07
1.68252e-07
1.65298e-07
1.62827e-07
1.60727e-07
1.58909e-07
1.57295e-07
1.55823e-07
1.54444e-07
1.53123e-07
1.51835e-07
1.50563e-07
1.49299e-07
1.48037e-07
1.46775e-07
1.45513e-07
1.4425e-07
1.42988e-07
1.41727e-07
1.40466e-07
1.39206e-07
1.37948e-07
1.3669e-07
1.35433e-07
1.34177e-07
1.32921e-07
1.31665e-07
1.30409e-07
1.29153e-07
1.27896e-07
1.2664e-07
1.25383e-07
1.24126e-07
1.22868e-07
1.21611e-07
1.20353e-07
1.19096e-07
1.17838e-07
1.1658e-07
1.15323e-07
1.14066e-07
1.12809e-07
1.11552e-07
1.10295e-07
1.09039e-07
1.07783e-07
1.06528e-07
1.05272e-07
1.04017e-07
1.02763e-07
1.01509e-07
1.00255e-07
9.90019e-08
9.77491e-08
9.64965e-08
9.52445e-08
9.39928e-08
9.27415e-08
9.14907e-08
9.02402e-08
8.89902e-08
8.77406e-08
8.64915e-08
8.52428e-08
8.39945e-08
8.27467e-08
8.14993e-08
8.02523e-08
7.90059e-08
7.77598e-08
7.65143e-08
7.52692e-08
7.40246e-08
7.27805e-08
7.15368e-08
7.02937e-08
6.9051e-08
6.78088e-08
6.65671e-08
6.53258e-08
6.40851e-08
6.28449e-08
6.16051e-08
6.03658e-08
5.91271e-08
5.78887e-08
5.66509e-08
5.54136e-08
5.41766e-08
5.29402e-08
5.17042e-08
5.04687e-08
4.92336e-08
4.79989e-08
4.67646e-08
4.55308e-08
4.42973e-08
4.30642e-08
4.18314e-08
4.0599e-08
3.9367e-08
3.81353e-08
3.69038e-08
3.56726e-08
3.44417e-08
3.32111e-08
3.19806e-08
3.07503e-08
2.95202e-08
2.82903e-08
2.70604e-08
2.58307e-08
2.4601e-08
2.33714e-08
2.21417e-08
2.09121e-08
1.96824e-08
1.84526e-08
1.72227e-08
1.59926e-08
1.47623e-08
1.35319e-08
1.23012e-08
1.10702e-08
9.8388e-09
8.60711e-09
7.37499e-09
6.14244e-09
4.90941e-09
3.67586e-09
2.44175e-09
1.20703e-09
-2.83187e-11
-1.26435e-09
-2.50112e-09
-3.73865e-09
-4.97699e-09
-6.21617e-09
-7.45626e-09
-8.69727e-09
-9.93927e-09
-1.11823e-08
-1.24264e-08
-1.36716e-08
-1.49179e-08
-1.61654e-08
-1.74142e-08
-1.86642e-08
-1.99156e-08
-2.11683e-08
-2.24224e-08
-2.3678e-08
-2.4935e-08
-2.61936e-08
-2.74537e-08
-2.87154e-08
-2.99787e-08
-3.12438e-08
-3.25105e-08
-3.3779e-08
-3.50492e-08
-3.63212e-08
-3.75952e-08
-3.88709e-08
-4.01486e-08
-4.14282e-08
-4.27098e-08
-4.39934e-08
-4.5279e-08
-4.65666e-08
-4.78564e-08
-4.91482e-08
-5.04421e-08
-5.17382e-08
-5.30364e-08
-5.43369e-08
-5.56395e-08
-5.69444e-08
-5.82514e-08
-5.95608e-08
-6.08724e-08
-6.21863e-08
-6.35025e-08
-6.4821e-08
-6.61418e-08
-6.74649e-08
-6.87904e-08
-7.01182e-08
-7.14483e-08
-7.27808e-08
-7.41157e-08
-7.54529e-08
-7.67924e-08
-7.81343e-08
-7.94786e-08
-8.08252e-08
-8.21742e-08
-8.35255e-08
-8.48791e-08
-8.62351e-08
-8.75934e-08
-8.89541e-08
-9.03171e-08
-9.16824e-08
-9.30499e-08
-9.44198e-08
-9.57919e-08
-9.71664e-08
-9.85431e-08
-9.9922e-08
-1.01303e-07
-1.02687e-07
-1.04072e-07
-1.0546e-07
-1.0685e-07
-1.08242e-07
-1.09636e-07
-1.11033e-07
-1.12431e-07
-1.13832e-07
-1.15235e-07
-1.1664e-07
-1.18046e-07
-1.19455e-07
-1.20866e-07
-1.22279e-07
-1.23694e-07
-1.25111e-07
-1.2653e-07
-1.27951e-07
-1.29374e-07
-1.30799e-07
-1.32226e-07
-1.33654e-07
-1.35085e-07
-1.36517e-07
-1.37951e-07
-1.39388e-07
-1.40826e-07
-1.42265e-07
-1.43707e-07
-1.4515e-07
-1.46596e-07
-1.48043e-07
-1.49492e-07
-1.50942e-07
-1.52395e-07
-1.53849e-07
-1.55305e-07
-1.56763e-07
-1.58223e-07
-1.59684e-07
-1.61147e-07
-1.62612e-07
-1.64078e-07
-1.65548e-07
-1.67016e-07
-1.68492e-07
-1.69959e-07
-1.71446e-07
-1.72907e-07
-1.74411e-07
-1.75856e-07
-1.7739e-07
-1.78804e-07
-1.80386e-07
-1.8175e-07
-1.834e-07
-1.84691e-07
-1.86434e-07
-1.87628e-07
-1.89487e-07
-1.90565e-07
-1.92554e-07
-1.93503e-07
-1.95634e-07
-1.96447e-07
-1.98725e-07
-1.99393e-07
-2.01834e-07
-2.02331e-07
-2.04976e-07
-2.05245e-07
-2.08169e-07
-2.08112e-07
-2.11438e-07
-2.10908e-07
-2.14811e-07
-2.13603e-07
-2.18313e-07
-2.16175e-07
-2.21962e-07
-2.18614e-07
-2.25763e-07
-2.2092e-07
-2.29705e-07
-2.23119e-07
-2.33757e-07
-2.25259e-07
-2.37862e-07
-2.27453e-07
-2.41885e-07
-2.29964e-07
-2.45533e-07
-2.33369e-07
-2.48197e-07
-2.38947e-07
-2.4852e-07
-2.49609e-07
-2.43197e-07
-2.72204e-07
-2.22368e-07
-3.23567e-07
-1.43051e-07
-4.40982e-07
4.11215e-07
-2.56662e-07
-2.56662e-07
-0.125293
0.125293
0.0249362
0.0083584
0.00427839
0.00266192
0.00183414
0.00134676
0.0010343
0.00082212
0.000671804
0.000561669
0.000478653
0.000414504
0.000363825
0.000322986
0.00028949
0.000261574
0.000237971
0.000217764
0.000200283
0.000185032
0.000171617
0.000159713
0.000149059
0.000139468
0.000130817
0.000123001
0.000115904
0.000109387
0.000103334
9.7686e-05
9.24386e-05
8.75951e-05
8.31128e-05
7.88903e-05
7.48066e-05
7.07805e-05
6.68e-05
6.2896e-05
5.90825e-05
5.53127e-05
5.14896e-05
4.75299e-05
4.34375e-05
3.93371e-05
3.5439e-05
3.19532e-05
2.89979e-05
2.65532e-05
2.44792e-05
2.2588e-05
2.07272e-05
1.88383e-05
1.69647e-05
1.52152e-05
1.37045e-05
1.24993e-05
1.15919e-05
1.0905e-05
1.03216e-05
9.72285e-06
9.02078e-06
8.17548e-06
7.19621e-06
6.1297e-06
5.04225e-06
4.00161e-06
3.06324e-06
2.26275e-06
1.61441e-06
1.11429e-06
7.45677e-07
4.85198e-07
3.07905e-07
1.90902e-07
1.15286e-07
6.67354e-08
3.51786e-08
1.40002e-08
-8.83921e-10
-1.18641e-08
-2.029e-08
-2.69235e-08
-3.2222e-08
-3.6494e-08
-3.99762e-08
-4.28638e-08
-4.53199e-08
-4.74769e-08
-4.94378e-08
-5.12781e-08
-5.30497e-08
-5.4786e-08
-5.65067e-08
-5.82222e-08
-5.99369e-08
-6.1652e-08
-6.3367e-08
-6.50811e-08
-6.67935e-08
-6.85034e-08
-7.02109e-08
-7.1916e-08
-7.36191e-08
-7.53206e-08
-7.7021e-08
-7.87209e-08
-8.04206e-08
-8.21205e-08
-8.38208e-08
-8.55216e-08
-8.72231e-08
-8.89253e-08
-9.0628e-08
-9.23313e-08
-9.40351e-08
-9.57392e-08
-9.74436e-08
-9.91481e-08
-1.00853e-07
-1.02557e-07
-1.04261e-07
-1.05965e-07
-1.07669e-07
-1.09372e-07
-1.11075e-07
-1.12778e-07
-1.1448e-07
-1.16181e-07
-1.17882e-07
-1.19583e-07
-1.21283e-07
-1.22983e-07
-1.24682e-07
-1.2638e-07
-1.28079e-07
-1.29776e-07
-1.31473e-07
-1.3317e-07
-1.34866e-07
-1.36562e-07
-1.38258e-07
-1.39952e-07
-1.41647e-07
-1.43341e-07
-1.45035e-07
-1.46728e-07
-1.4842e-07
-1.50113e-07
-1.51805e-07
-1.53496e-07
-1.55187e-07
-1.56877e-07
-1.58567e-07
-1.60257e-07
-1.61946e-07
-1.63635e-07
-1.65323e-07
-1.67011e-07
-1.68698e-07
-1.70385e-07
-1.72072e-07
-1.73758e-07
-1.75443e-07
-1.77128e-07
-1.78813e-07
-1.80497e-07
-1.82181e-07
-1.83864e-07
-1.85547e-07
-1.8723e-07
-1.88912e-07
-1.90594e-07
-1.92275e-07
-1.93956e-07
-1.95636e-07
-1.97317e-07
-1.98997e-07
-2.00676e-07
-2.02355e-07
-2.04034e-07
-2.05713e-07
-2.07392e-07
-2.0907e-07
-2.10748e-07
-2.12426e-07
-2.14103e-07
-2.15781e-07
-2.17458e-07
-2.19135e-07
-2.20812e-07
-2.2249e-07
-2.24167e-07
-2.25844e-07
-2.27521e-07
-2.29198e-07
-2.30876e-07
-2.32553e-07
-2.34231e-07
-2.35909e-07
-2.37587e-07
-2.39265e-07
-2.40944e-07
-2.42623e-07
-2.44302e-07
-2.45982e-07
-2.47663e-07
-2.49344e-07
-2.51025e-07
-2.52707e-07
-2.5439e-07
-2.56073e-07
-2.57757e-07
-2.59442e-07
-2.61128e-07
-2.62815e-07
-2.64502e-07
-2.66191e-07
-2.6788e-07
-2.69571e-07
-2.71263e-07
-2.72956e-07
-2.7465e-07
-2.76345e-07
-2.78042e-07
-2.7974e-07
-2.81439e-07
-2.8314e-07
-2.84843e-07
-2.86547e-07
-2.88252e-07
-2.89959e-07
-2.91668e-07
-2.93379e-07
-2.95091e-07
-2.96805e-07
-2.98521e-07
-3.00239e-07
-3.01959e-07
-3.03681e-07
-3.05405e-07
-3.07131e-07
-3.0886e-07
-3.1059e-07
-3.12323e-07
-3.14057e-07
-3.15794e-07
-3.17534e-07
-3.19275e-07
-3.2102e-07
-3.22766e-07
-3.24515e-07
-3.26266e-07
-3.2802e-07
-3.29777e-07
-3.31536e-07
-3.33297e-07
-3.35061e-07
-3.36828e-07
-3.38598e-07
-3.4037e-07
-3.42145e-07
-3.43922e-07
-3.45702e-07
-3.47485e-07
-3.49271e-07
-3.5106e-07
-3.52851e-07
-3.54645e-07
-3.56442e-07
-3.58242e-07
-3.60045e-07
-3.6185e-07
-3.63658e-07
-3.65469e-07
-3.67283e-07
-3.691e-07
-3.7092e-07
-3.72743e-07
-3.74568e-07
-3.76396e-07
-3.78228e-07
-3.80062e-07
-3.81898e-07
-3.83738e-07
-3.85581e-07
-3.87426e-07
-3.89274e-07
-3.91125e-07
-3.92979e-07
-3.94836e-07
-3.96695e-07
-3.98558e-07
-4.00423e-07
-4.0229e-07
-4.04161e-07
-4.06034e-07
-4.0791e-07
-4.09789e-07
-4.1167e-07
-4.13555e-07
-4.15441e-07
-4.17331e-07
-4.19223e-07
-4.21118e-07
-4.23015e-07
-4.24915e-07
-4.26818e-07
-4.28723e-07
-4.30631e-07
-4.32541e-07
-4.34454e-07
-4.3637e-07
-4.38288e-07
-4.40208e-07
-4.42131e-07
-4.44057e-07
-4.45985e-07
-4.47915e-07
-4.49848e-07
-4.51784e-07
-4.53722e-07
-4.55662e-07
-4.57605e-07
-4.5955e-07
-4.61498e-07
-4.63448e-07
-4.654e-07
-4.67355e-07
-4.69313e-07
-4.71273e-07
-4.73235e-07
-4.752e-07
-4.77167e-07
-4.79137e-07
-4.81107e-07
-4.83085e-07
-4.85057e-07
-4.87045e-07
-4.89013e-07
-4.9102e-07
-4.92972e-07
-4.95014e-07
-4.9693e-07
-4.99032e-07
-5.00881e-07
-5.03081e-07
-5.04819e-07
-5.07165e-07
-5.08742e-07
-5.11284e-07
-5.12652e-07
-5.15436e-07
-5.16553e-07
-5.19616e-07
-5.20453e-07
-5.23815e-07
-5.24357e-07
-5.28033e-07
-5.28261e-07
-5.32282e-07
-5.32143e-07
-5.36593e-07
-5.35966e-07
-5.41009e-07
-5.39683e-07
-5.4558e-07
-5.43239e-07
-5.50364e-07
-5.46573e-07
-5.55418e-07
-5.49637e-07
-5.60778e-07
-5.52406e-07
-5.66457e-07
-5.54882e-07
-5.72432e-07
-5.57117e-07
-5.78636e-07
-5.59217e-07
-5.84948e-07
-5.61415e-07
-5.91086e-07
-5.64272e-07
-5.96435e-07
-5.69014e-07
-5.99712e-07
-5.78351e-07
-5.98071e-07
-5.98466e-07
-5.84585e-07
-6.43851e-07
-5.38579e-07
-7.49901e-07
-3.69797e-07
-9.92395e-07
7.81298e-07
-6.03571e-07
-6.03571e-07
-0.146488
0.146488
0.0383108
0.0142345
0.00745646
0.00467319
0.003231
0.00237699
0.00182754
0.00145353
0.0011881
0.000993359
0.000846437
0.000732838
0.000643062
0.00057071
0.000511367
0.000461918
0.00042012
0.000384346
0.00035341
0.000326426
0.000302695
0.000281638
0.0002628
0.000245849
0.000230563
0.000216751
0.000204199
0.000192671
0.000181966
0.000171985
0.000162714
0.000154147
0.000146203
0.000138703
0.000131443
0.00012429
0.000117224
0.000110292
0.000103508
9.67859e-05
8.99652e-05
8.29207e-05
7.56808e-05
6.84736e-05
6.16603e-05
5.55875e-05
5.0438e-05
4.61606e-05
4.25098e-05
3.91683e-05
3.5888e-05
3.25803e-05
2.9325e-05
2.63045e-05
2.37033e-05
2.16214e-05
2.00333e-05
1.8801e-05
1.77256e-05
1.6611e-05
1.53168e-05
1.37847e-05
1.20385e-05
1.01621e-05
8.26959e-06
6.4745e-06
4.8677e-06
3.50554e-06
2.40829e-06
1.56592e-06
9.47738e-07
5.12588e-07
2.17439e-07
2.32653e-08
-1.01877e-07
-1.82025e-07
-2.33988e-07
-2.68751e-07
-2.93071e-07
-3.10891e-07
-3.24435e-07
-3.34965e-07
-3.43242e-07
-3.49787e-07
-3.54999e-07
-3.59211e-07
-3.62698e-07
-3.65685e-07
-3.68343e-07
-3.708e-07
-3.73143e-07
-3.75426e-07
-3.77683e-07
-3.7993e-07
-3.82175e-07
-3.8442e-07
-3.86664e-07
-3.88906e-07
-3.91144e-07
-3.93377e-07
-3.95606e-07
-3.9783e-07
-4.00051e-07
-4.0227e-07
-4.04486e-07
-4.06701e-07
-4.08917e-07
-4.11132e-07
-4.13348e-07
-4.15565e-07
-4.17784e-07
-4.20003e-07
-4.22224e-07
-4.24445e-07
-4.26668e-07
-4.28891e-07
-4.31114e-07
-4.33338e-07
-4.35562e-07
-4.37786e-07
-4.40009e-07
-4.42233e-07
-4.44456e-07
-4.46678e-07
-4.489e-07
-4.51121e-07
-4.53342e-07
-4.55562e-07
-4.57782e-07
-4.6e-07
-4.62219e-07
-4.64436e-07
-4.66653e-07
-4.68869e-07
-4.71085e-07
-4.733e-07
-4.75515e-07
-4.77729e-07
-4.79942e-07
-4.82156e-07
-4.84368e-07
-4.8658e-07
-4.88792e-07
-4.91004e-07
-4.93214e-07
-4.95425e-07
-4.97635e-07
-4.99845e-07
-5.02054e-07
-5.04263e-07
-5.06472e-07
-5.0868e-07
-5.10888e-07
-5.13095e-07
-5.15302e-07
-5.17509e-07
-5.19715e-07
-5.21921e-07
-5.24126e-07
-5.26332e-07
-5.28536e-07
-5.30741e-07
-5.32945e-07
-5.35149e-07
-5.37352e-07
-5.39555e-07
-5.41758e-07
-5.4396e-07
-5.46162e-07
-5.48364e-07
-5.50566e-07
-5.52767e-07
-5.54968e-07
-5.57169e-07
-5.59369e-07
-5.61569e-07
-5.63769e-07
-5.65969e-07
-5.68168e-07
-5.70368e-07
-5.72567e-07
-5.74766e-07
-5.76965e-07
-5.79164e-07
-5.81363e-07
-5.83561e-07
-5.8576e-07
-5.87959e-07
-5.90158e-07
-5.92356e-07
-5.94555e-07
-5.96754e-07
-5.98954e-07
-6.01153e-07
-6.03353e-07
-6.05552e-07
-6.07752e-07
-6.09953e-07
-6.12154e-07
-6.14355e-07
-6.16556e-07
-6.18759e-07
-6.20961e-07
-6.23164e-07
-6.25368e-07
-6.27572e-07
-6.29777e-07
-6.31983e-07
-6.3419e-07
-6.36397e-07
-6.38606e-07
-6.40815e-07
-6.43025e-07
-6.45236e-07
-6.47448e-07
-6.49662e-07
-6.51876e-07
-6.54092e-07
-6.56309e-07
-6.58527e-07
-6.60747e-07
-6.62968e-07
-6.6519e-07
-6.67414e-07
-6.6964e-07
-6.71867e-07
-6.74096e-07
-6.76327e-07
-6.7856e-07
-6.80794e-07
-6.8303e-07
-6.85268e-07
-6.87509e-07
-6.89751e-07
-6.91995e-07
-6.94242e-07
-6.9649e-07
-6.98741e-07
-7.00995e-07
-7.0325e-07
-7.05508e-07
-7.07769e-07
-7.10031e-07
-7.12297e-07
-7.14565e-07
-7.16835e-07
-7.19108e-07
-7.21384e-07
-7.23663e-07
-7.25944e-07
-7.28228e-07
-7.30515e-07
-7.32805e-07
-7.35098e-07
-7.37393e-07
-7.39692e-07
-7.41993e-07
-7.44298e-07
-7.46605e-07
-7.48916e-07
-7.5123e-07
-7.53547e-07
-7.55867e-07
-7.5819e-07
-7.60516e-07
-7.62846e-07
-7.65179e-07
-7.67515e-07
-7.69854e-07
-7.72197e-07
-7.74543e-07
-7.76892e-07
-7.79245e-07
-7.81601e-07
-7.8396e-07
-7.86322e-07
-7.88688e-07
-7.91058e-07
-7.9343e-07
-7.95806e-07
-7.98186e-07
-8.00568e-07
-8.02954e-07
-8.05344e-07
-8.07737e-07
-8.10133e-07
-8.12533e-07
-8.14936e-07
-8.17342e-07
-8.19751e-07
-8.22165e-07
-8.24581e-07
-8.27001e-07
-8.29424e-07
-8.3185e-07
-8.3428e-07
-8.36713e-07
-8.39149e-07
-8.41589e-07
-8.44032e-07
-8.46478e-07
-8.48927e-07
-8.5138e-07
-8.53836e-07
-8.56295e-07
-8.58757e-07
-8.61223e-07
-8.63692e-07
-8.66164e-07
-8.68639e-07
-8.71118e-07
-8.73599e-07
-8.76084e-07
-8.78572e-07
-8.81063e-07
-8.83558e-07
-8.86055e-07
-8.88556e-07
-8.91059e-07
-8.93566e-07
-8.96076e-07
-8.98589e-07
-9.01106e-07
-9.03625e-07
-9.06148e-07
-9.08673e-07
-9.11202e-07
-9.13734e-07
-9.16269e-07
-9.18807e-07
-9.21349e-07
-9.23894e-07
-9.2644e-07
-9.28993e-07
-9.31544e-07
-9.34107e-07
-9.36658e-07
-9.39237e-07
-9.41779e-07
-9.44388e-07
-9.46902e-07
-9.49567e-07
-9.52019e-07