# vtk DataFile Version 2.0
FlowField
ASCII
DATASET STRUCTURED_GRID
DIMENSIONS 400 1 200
POINTS 80000 float
0 0 0
0.08 0 0
0.16 0 0
0.24 0 0
0.32 0 0
0.4 0 0
0.48 0 0
0.56 0 0
0.64 0 0
0.72 0 0
0.8 0 0
0.88 0 0
0.96 0 0
1.04 0 0
1.12 0 0
1.2 0 0
1.28 0 0
1.36 0 0
1.44 0 0
1.52 0 0
1.6 0 0
1.68 0 0
1.76 0 0
1.84 0 0
1.92 0 0
2 0 0
2.08 0 0
2.16 0 0
2.24 0 0
2.32 0 0
2.4 0 0
2.48 0 0
2.56 0 0
2.64 0 0
2.72 0 0
2.8 0 0
2.88 0 0
2.96 0 0
3.04 0 0
3.12 0 0
3.2 0 0
3.28 0 0
3.36 0 0
3.44 0 0
3.52 0 0
3.6 0 0
3.68 0 0
3.76 0 0
3.84 0 0
3.92 0 0
4 0 0
4.08 0 0
4.16 0 0
4.24 0 0
4.32 0 0
4.4 0 0
4.48 0 0
4.56 0 0
4.64 0 0
4.72 0 0
4.8 0 0
4.88 0 0
4.96 0 0
5.04 0 0
5.12 0 0
5.2 0 0
5.28 0 0
5.36 0 0
5.44 0 0
5.52 0 0
5.6 0 0
5.68 0 0
5.76 0 0
5.84 0 0
5.92 0 0
6 0 0
6.08 0 0
6.16 0 0
6.24 0 0
6.32 0 0
6.4 0 0
6.48 0 0
6.56 0 0
6.64 0 0
6.72 0 0
6.8 0 0
6.88 0 0
6.96 0 0
7.04 0 0
7.12 0 0
7.2 0 0
7.28 0 0
7.36 0 0
7.44 0 0
7.52 0 0
7.6 0 0
7.68 0 0
7.76 0 0
7.84 0 0
7.92 0 0
8 0 0
8.08 0 0
8.16 0 0
8.24 0 0
8.32 0 0
8.4 0 0
8.48 0 0
8.56 0 0
8.64 0 0
8.72 0 0
8.8 0 0
8.88 0 0
8.96 0 0
9.04 0 0
9.12 0 0
9.2 0 0
9.28 0 0
9.36 0 0
9.44 0 0
9.52 0 0
9.6 0 0
9.68 0 0
9.76 0 0
9.84 0 0
9.92 0 0
10 0 0
10.08 0 0
10.16 0 0
10.24 0 0
10.32 0 0
10.4 0 0
10.48 0 0
10.56 0 0
10.64 0 0
10.72 0 0
10.8 0 0
10.88 0 0
10.96 0 0
11.04 0 0
11.12 0 0
11.2 0 0
11.28 0 0
11.36 0 0
11.44 0 0
11.52 0 0
11.6 0 0
11.68 0 0
11.76 0 0
11.84 0 0
11.92 0 0
12 0 0
12.08 0 0
12.16 0 0
12.24 0 0
12.32 0 0
12.4 0 0
12.48 0 0
12.56 0 0
12.64 0 0
12.72 0 0
12.8 0 0
12.88 0 0
12.96 0 0
13.04 0 0
13.12 0 0
13.2 0 0
13.28 0 0
13.36 0 0
13.44 0 0
13.52 0 0
13.6 0 0
13.68 0 0
13.76 0 0
13.84 0 0
13.92 0 0
14 0 0
14.08 0 0
14.16 0 0
14.24 0 0
14.32 0 0
14.4 0 0
14.48 0 0
14.56 0 0
14.64 0 0
14.72 0 0
14.8 0 0
14.88 0 0
14.96 0 0
15.04 0 0
15.12 0 0
15.2 0 0
15.28 0 0
15.36 0 0
15.44 0 0
15.52 0 0
15.6 0 0
15.68 0 0
15.76 0 0
15.84 0 0
15.92 0 0
16 0 0
16.08 0 0
16.16 0 0
16.24 0 0
16.32 0 0
16.4 0 0
16.48 0 0
16.56 0 0
16.64 0 0
16.72 0 0
16.8 0 0
16.88 0 0
16.96 0 0
17.04 0 0
17.12 0 0
17.2 0 0
17.28 0 0
17.36 0 0
17.44 0 0
17.52 0 0
17.6 0 0
17.68 0 0
17.76 0 0
17.84 0 0
17.92 0 0
18 0 0
18.08 0 0
18.16 0 0
18.24 0 0
18.32 0 0
18.4 0 0
18.48 0 0
18.56 0 0
18.64 0 0
18.72 0 0
18.8 0 0
18.88 0 0
18.96 0 0
19.04 0 0
19.12 0 0
19.2 0 0
19.28 0 0
19.36 0 0
19.44 0 0
19.52 0 0
19.6 0 0
19.68 0 0
19.76 0 0
19.84 0 0
19.92 0 0
20 0 0
20.08 0 0
20.16 0 0
20.24 0 0
20.32 0 0
20.4 0 0
20.48 0 0
20.56 0 0
20.64 0 0
20.72 0 0
20.8 0 0
20.88 0 0
20.96 0 0
21.04 0 0
21.12 0 0
21.2 0 0
21.28 0 0
21.36 0 0
21.44 0 0
21.52 0 0
21.6 0 0
21.68 0 0
21.76 0 0
21.84 0 0
21.92 0 0
22 0 0
22.08 0 0
22.16 0 0
22.24 0 0
22.32 0 0
22.4 0 0
22.48 0 0
22.56 0 0
22.64 0 0
22.72 0 0
22.8 0 0
22.88 0 0
22.96 0 0
23.04 0 0
23.12 0 0
23.2 0 0
23.28 0 0
23.36 0 0
23.44 0 0
23.52 0 0
23.6 0 0
23.68 0 0
23.76 0 0
23.84 0 0
23.92 0 0
24 0 0
24.08 0 0
24.16 0 0
24.24 0 0
24.32 0 0
24.4 0 0
24.48 0 0
24.56 0 0
24.64 0 0
24.72 0 0
24.8 0 0
24.88 0 0
24.96 0 0
25.04 0 0
25.12 0 0
25.2 0 0
25.28 0 0
25.36 0 0
25.44 0 0
25.52 0 0
25.6 0 0
25.68 0 0
25.76 0 0
25.84 0 0
25.92 0 0
26 0 0
26.08 0 0
26.16 0 0
26.24 0 0
26.32 0 0
26.4 0 0
26.48 0 0
26.56 0 0
26.64 0 0
26.72 0 0
26.8 0 0
26.88 0 0
26.96 0 0
27.04 0 0
27.12 0 0
27.2 0 0
27.28 0 0
27.36 0 0
27.44 0 0
27.52 0 0
27.6 0 0
27.68 0 0
27.76 0 0
27.84 0 0
27.92 0 0
28 0 0
28.08 0 0
28.16 0 0
28.24 0 0
28.32 0 0
28.4 0 0
28.48 0 0
28.56 0 0
28.64 0 0
28.72 0 0
28.8 0 0
28.88 0 0
28.96 0 0
29.04 0 0
29.12 0 0
29.2 0 0
29.28 0 0
29.36 0 0
29.44 0 0
29.52 0 0
29.6 0 0
29.68 0 0
29.76 0 0
29.84 0 0
29.92 0 0
30 0 0
30.08 0 0
30.16 0 0
30.24 0 0
30.32 0 0
30.4 0 0
30.48 0 0
30.56 0 0
30.64 0 0
30.72 0 0
30.8 0 0
30.88 0 0
30.96 0 0
31.04 0 0
31.12 0 0
31.2 0 0
31.28 0 0
31.36 0 0
31.44 0 0
31.52 0 0
31.6 0 0
31.68 0 0
31.76 0 0
31.84 0 0
31.92 0 0
0 0.005 0
0.08 0.005 0
0.16 0.005 0
0.24 0.005 0
0.32 0.005 0
0.4 0.005 0
0.48 0.005 0
0.56 0.005 0
0.64 0.005 0
0.72 0.005 0
0.8 0.005 0
0.88 0.005 0
0.96 0.005 0
1.04 0.005 0
1.12 0.005 0
1.2 0.005 0
1.28 0.005 0
1.36 0.005 0
1.44 0.005 0
1.52 0.005 0
1.6 0.005 0
1.68 0.005 0
1.76 0.005 0
1.84 0.005 0
1.92 0.005 0
2 0.005 0
2.08 0.005 0
2.16 0.005 0
2.24 0.005 0
2.32 0.005 0
2.4 0.005 0
2.48 0.005 0
2.56 0.005 0
2.64 0.005 0
2.72 0.005 0
2.8 0.005 0
2.88 0.005 0
2.96 0.005 0
3.04 0.005 0
3.12 0.005 0
3.2 0.005 0
3.28 0.005 0
3.36 0.005 0
3.44 0.005 0
3.52 0.005 0
3.6 0.005 0
3.68 0.005 0
3.76 0.005 0
3.84 0.005 0
3.92 0.005 0
4 0.005 0
4.08 0.005 0
4.16 0.005 0
4.24 0.005 0
4.32 0.005 0
4.4 0.005 0
4.48 0.005 0
4.56 0.005 0
4.64 0.005 0
4.72 0.005 0
4.8 0.005 0
4.88 0.005 0
4.96 0.005 0
5.04 0.005 0
5.12 0.005 0
5.2 0.005 0
5.28 0.005 0
5.36 0.005 0
5.44 0.005 0
5.52 0.005 0
5.6 0.005 0
5.68 0.005 0
5.76 0.005 0
5.84 0.005 0
5.92 0.005 0
6 0.005 0
6.08 0.005 0
6.16 0.005 0
6.24 0.005 0
6.32 0.005 0
6.4 0.005 0
6.48 0.005 0
6.56 0.005 0
6.64 0.005 0
6.72 0.005 0
6.8 0.005 0
6.88 0.005 0
6.96 0.005 0
7.04 0.005 0
7.12 0.005 0
7.2 0.005 0
7.28 0.005 0
7.36 0.005 0
7.44 0.005 0
7.52 0.005 0
7.6 0.005 0
7.68 0.005 0
7.76 0.005 0
7.84 0.005 0
7.92 0.005 0
8 0.005 0
8.08 0.005 0
8.16 0.005 0
8.24 0.005 0
8.32 0.005 0
8.4 0.005 0
8.48 0.005 0
8.56 0.005 0
8.64 0.005 0
8.72 0.005 0
8.8 0.005 0
8.88 0.005 0
8.96 0.005 0
9.04 0.005 0
9.12 0.005 0
9.2 0.005 0
9.28 0.005 0
9.36 0.005 0
9.44 0.005 0
9.52 0.005 0
9.6 0.005 0
9.68 0.005 0
9.76 0.005 0
9.84 0.005 0
9.92 0.005 0
10 0.005 0
10.08 0.005 0
10.16 0.005 0
10.24 0.005 0
10.32 0.005 0
10.4 0.005 0
10.48 0.005 0
10.56 0.005 0
10.64 0.005 0
10.72 0.005 0
10.8 0.005 0
10.88 0.005 0
10.96 0.005 0
11.04 0.005 0
11.12 0.005 0
11.2 0.005 0
11.28 0.005 0
11.36 0.005 0
11.44 0.005 0
11.52 0.005 0
11.6 0.005 0
11.68 0.005 0
11.76 0.005 0
11.84 0.005 0
11.92 0.005 0
12 0.005 0
12.08 0.005 0
12.16 0.005 0
12.24 0.005 0
12.32 0.005 0
12.4 0.005 0
12.48 0.005 0
12.56 0.005 0
12.64 0.005 0
12.72 0.005 0
12.8 0.005 0
12.88 0.005 0
12.96 0.005 0
13.04 0.005 0
13.12 0.005 0
13.2 0.005 0
13.28 0.005 0
13.36 0.005 0
13.44 0.005 0
13.52 0.005 0
13.6 0.005 0
13.68 0.005 0
13.76 0.005 0
13.84 0.005 0
13.92 0.005 0
14 0.005 0
14.08 0.005 0
14.16 0.005 0
14.24 0.005 0
14.32 0.005 0
14.4 0.005 0
14.48 0.005 0
14.56 0.005 0
14.64 0.005 0
14.72 0.005 0
14.8 0.005 0
14.88 0.005 0
14.96 0.005 0
15.04 0.005 0
15.12 0.005 0
15.2 0.005 0
15.28 0.005 0
15.36 0.005 0
15.44 0.005 0
15.52 0.005 0
15.6 0.005 0
15.68 0.005 0
15.76 0.005 0
15.84 0.005 0
15.92 0.005 0
16 0.005 0
16.08 0.005 0
16.16 0.005 0
16.24 0.005 0
16.32 0.005 0
16.4 0.005 0
16.48 0.005 0
16.56 0.005 0
16.64 0.005 0
16.72 0.005 0
16.8 0.005 0
16.88 0.005 0
16.96 0.005 0
17.04 0.005 0
17.12 0.005 0
17.2 0.005 0
17.28 0.005 0
17.36 0.005 0
17.44 0.005 0
17.52 0.005 0
17.6 0.005 0
17.68 0.005 0
17.76 0.005 0
17.84 0.005 0
17.92 0.005 0
18 0.005 0
18.08 0.005 0
18.16 0.005 0
18.24 0.005 0
18.32 0.005 0
18.4 0.005 0
18.48 0.005 0
18.56 0.005 0
18.64 0.005 0
18.72 0.005 0
18.8 0.005 0
18.88 0.005 0
18.96 0.005 0
19.04 0.005 0
19.12 0.005 0
19.2 0.005 0
19.28 0.005 0
19.36 0.005 0
19.44 0.005 0
19.52 0.005 0
19.6 0.005 0
19.68 0.005 0
19.76 0.005 0
19.84 0.005 0
19.92 0.005 0
20 0.005 0
20.08 0.005 0
20.16 0.005 0
20.24 0.005 0
20.32 0.005 0
20.4 0.005 0
20.48 0.005 0
20.56 0.005 0
20.64 0.005 0
20.72 0.005 0
20.8 0.005 0
20.88 0.005 0
20.96 0.005 0
21.04 0.005 0
21.12 0.005 0
21.2 0.005 0
21.28 0.005 0
21.36 0.005 0
21.44 0.005 0
21.52 0.005 0
21.6 0.005 0
21.68 0.005 0
21.76 0.005 0
21.84 0.005 0
21.92 0.005 0
22 0.005 0
22.08 0.005 0
22.16 0.005 0
22.24 0.005 0
22.32 0.005 0
22.4 0.005 0
22.48 0.005 0
22.56 0.005 0
22.64 0.005 0
22.72 0.005 0
22.8 0.005 0
22.88 0.005 0
22.96 0.005 0
23.04 0.005 0
23.12 0.005 0
23.2 0.005 0
23.28 0.005 0
23.36 0.005 0
23.44 0.005 0
23.52 0.005 0
23.6 0.005 0
23.68 0.005 0
23.76 0.005 0
23.84 0.005 0
23.92 0.005 0
24 0.005 0
24.08 0.005 0
24.16 0.005 0
24.24 0.005 0
24.32 0.005 0
24.4 0.005 0
24.48 0.005 0
24.56 0.005 0
24.64 0.005 0
24.72 0.005 0
24.8 0.005 0
24.88 0.005 0
24.96 0.005 0
25.04 0.005 0
25.12 0.005 0
25.2 0.005 0
25.28 0.005 0
25.36 0.005 0
25.44 0.005 0
25.52 0.005 0
25.6 0.005 0
25.68 0.005 0
25.76 0.005 0
25.84 0.005 0
25.92 0.005 0
26 0.005 0
26.08 0.005 0
26.16 0.005 0
26.24 0.005 0
26.32 0.005 0
26.4 0.005 0
26.48 0.005 0
26.56 0.005 0
26.64 0.005 0
26.72 0.005 0
26.8 0.005 0
26.88 0.005 0
26.96 0.005 0
27.04 0.005 0
27.12 0.005 0
27.2 0.005 0
27.28 0.005 0
27.36 0.005 0
27.44 0.005 0
27.52 0.005 0
27.6 0.005 0
27.68 0.005 0
27.76 0.005 0
27.84 0.005 0
27.92 0.005 0
28 0.005 0
28.08 0.005 0
28.16 0.005 0
28.24 0.005 0
28.32 0.005 0
28.4 0.005 0
28.48 0.005 0
28.56 0.005 0
28.64 0.005 0
28.72 0.005 0
28.8 0.005 0
28.88 0.005 0
28.96 0.005 0
29.04 0.005 0
29.12 0.005 0
29.2 0.005 0
29.28 0.005 0
29.36 0.005 0
29.44 0.005 0
29.52 0.005 0
29.6 0.005 0
29.68 0.005 0
29.76 0.005 0
29.84 0.005 0
29.92 0.005 0
30 0.005 0
30.08 0.005 0
30.16 0.005 0
30.24 0.005 0
30.32 0.005 0
30.4 0.005 0
30.48 0.005 0
30.56 0.005 0
30.64 0.005 0
30.72 0.005 0
30.8 0.005 0
30.88 0.005 0
30.96 0.005 0
31.04 0.005 0
31.12 0.005 0
31.2 0.005 0
31.28 0.005 0
31.36 0.005 0
31.44 0.005 0
31.52 0.005 0
31.6 0.005 0
31.68 0.005 0
31.76 0.005 0
31.84 0.005 0
31.92 0.005 0
0 0.01 0
0.08 0.01 0
0.16 0.01 0
0.24 0.01 0
0.32 0.01 0
0.4 0.01 0
0.48 0.01 0
0.56 0.01 0
0.64 0.01 0
0.72 0.01 0
0.8 0.01 0
0.88 0.01 0
0.96 0.01 0
1.04 0.01 0
1.12 0.01 0
1.2 0.01 0
1.28 0.01 0
1.36 0.01 0
1.44 0.01 0
1.52 0.01 0
1.6 0.01 0
1.68 0.01 0
1.76 0.01 0
1.84 0.01 0
1.92 0.01 0
2 0.01 0
2.08 0.01 0
2.16 0.01 0
2.24 0.01 0
2.32 0.01 0
2.4 0.01 0
2.48 0.01 0
2.56 0.01 0
2.64 0.01 0
2.72 0.01 0
2.8 0.01 0
2.88 0.01 0
2.96 0.01 0
3.04 0.01 0
3.12 0.01 0
3.2 0.01 0
3.28 0.01 0
3.36 0.01 0
3.44 0.01 0
3.52 0.01 0
3.6 0.01 0
3.68 0.01 0
3.76 0.01 0
3.84 0.01 0
3.92 0.01 0
4 0.01 0
4.08 0.01 0
4.16 0.01 0
4.24 0.01 0
4.32 0.01 0
4.4 0.01 0
4.48 0.01 0
4.56 0.01 0
4.64 0.01 0
4.72 0.01 0
4.8 0.01 0
4.88 0.01 0
4.96 0.01 0
5.04 0.01 0
5.12 0.01 0
[...]
POINT_DATA 80000

SCALARS u float 1
LOOKUP_TABLE default
0
-0.131663
-0.0682695
-0.0522964
-0.0444203
-0.0395773
-0.0362602
-0.0338332
-0.0319733
-0.0304967
-0.0292906
-0.0282824
-0.0274229
-0.0266783
-0.0260244
-0.0254436
-0.0249227
-0.0244518
-0.0240232
-0.0236309
-0.0232698
-0.0229362
-0.0226268
-0.0223388
-0.0220699
-0.0218181
-0.0215818
-0.0213596
-0.0211503
-0.0209527
-0.0207658
-0.0205888
-0.0204208
-0.0202615
-0.0201103
-0.0199667
-0.0198301
-0.0197
-0.0195761
-0.0194583
-0.0193466
-0.0192411
-0.0191418
-0.0190486
-0.0189613
-0.01888
-0.018805
-0.0187363
-0.018674
-0.0186177
-0.0185668
-0.0185203
-0.0184776
-0.0184379
-0.0184011
-0.0183673
-0.0183364
-0.0183086
-0.0182837
-0.0182615
-0.0182412
-0.0182226
-0.018205
-0.0181884
-0.0181726
-0.0181578
-0.0181443
-0.0181323
-0.0181221
-0.0181136
-0.0181069
-0.0181019
-0.0180984
-0.018096
-0.0180946
-0.0180939
-0.0180937
-0.0180939
-0.0180943
-0.0180949
-0.0180956
-0.0180963
-0.0180971
-0.0180979
-0.0180987
-0.0180996
-0.0181005
-0.0181013
-0.0181022
-0.0181031
-0.018104
-0.0181049
-0.0181057
-0.0181066
-0.0181075
-0.0181084
-0.0181093
-0.0181102
-0.0181111
-0.018112
-0.0181129
-0.0181138
-0.0181147
-0.0181155
-0.0181164
-0.0181173
-0.0181182
-0.0181191
-0.01812
-0.0181209
-0.0181218
-0.0181227
-0.0181236
-0.0181245
-0.0181254
-0.0181263
-0.0181272
-0.0181281
-0.018129
-0.0181299
-0.0181308
-0.0181317
-0.0181326
-0.0181335
-0.0181344
-0.0181353
-0.0181363
-0.0181372
-0.0181381
-0.018139
-0.0181399
-0.0181408
-0.0181417
-0.0181426
-0.0181435
-0.0181444
-0.0181453
-0.0181463
-0.0181472
-0.0181481
-0.018149
-0.0181499
-0.0181508
-0.0181517
-0.0181527
-0.0181536
-0.0181545
-0.0181554
-0.0181563
-0.0181572
-0.0181582
-0.0181591
-0.01816
-0.0181609
-0.0181618
-0.0181628
-0.0181637
-0.0181646
-0.0181655
-0.0181664
-0.0181674
-0.0181683
-0.0181692
-0.0181701
-0.0181711
-0.018172
-0.0181729
-0.0181739
-0.0181748
-0.0181757
-0.0181766
-0.0181776
-0.0181785
-0.0181794
-0.0181804
-0.0181813
-0.0181822
-0.0181832
-0.0181841
-0.018185
-0.018186
-0.0181869
-0.0181878
-0.0181888
-0.0181897
-0.0181906
-0.0181916
-0.0181925
-0.0181935
-0.0181944
-0.0181953
-0.0181963
-0.0181972
-0.0181982
-0.0181991
-0.0182
-0.018201
-0.0182019
-0.0182029
-0.0182038
-0.0182048
-0.0182057
-0.0182066
-0.0182076
-0.0182085
-0.0182095
-0.0182104
-0.0182114
-0.0182123
-0.0182133
-0.0182142
-0.0182152
-0.0182161
-0.0182171
-0.018218
-0.018219
-0.01822
-0.0182209
-0.0182219
-0.0182228
-0.0182238
-0.0182247
-0.0182257
-0.0182266
-0.0182276
-0.0182286
-0.0182295
-0.0182305
-0.0182314
-0.0182324
-0.0182334
-0.0182343
-0.0182353
-0.0182363
-0.0182372
-0.0182382
-0.0182392
-0.0182401
-0.0182411
-0.0182421
-0.018243
-0.018244
-0.018245
-0.0182459
-0.0182469
-0.0182479
-0.0182488
-0.0182498
-0.0182508
-0.0182518
-0.0182527
-0.0182537
-0.0182547
-0.0182557
-0.0182566
-0.0182576
-0.0182586
-0.0182596
-0.0182605
-0.0182615
-0.0182625
-0.0182635
-0.0182645
-0.0182654
-0.0182664
-0.0182674
-0.0182684
-0.0182694
-0.0182704
-0.0182713
-0.0182723
-0.0182733
-0.0182743
-0.0182753
-0.0182763
-0.0182773
-0.0182782
-0.0182792
-0.0182802
-0.0182812
-0.0182822
-0.0182832
-0.0182842
-0.0182852
-0.0182862
-0.0182872
-0.0182882
-0.0182892
-0.0182902
-0.0182912
-0.0182921
-0.0182931
-0.0182941
-0.0182951
-0.0182961
-0.0182971
-0.0182981
-0.0182991
-0.0183001
-0.0183011
-0.0183022
-0.0183032
-0.0183042
-0.0183052
-0.0183062
-0.0183072
-0.0183082
-0.0183092
-0.0183102
-0.0183112
-0.0183122
-0.0183132
-0.0183142
-0.0183152
-0.0183163
-0.0183173
-0.0183183
-0.0183193
-0.0183203
-0.0183213
-0.0183223
-0.0183234
-0.0183244
-0.0183254
-0.0183264
-0.0183274
-0.0183284
-0.0183295
-0.0183305
-0.0183315
-0.0183325
-0.0183336
-0.0183346
-0.0183356
-0.0183366
-0.0183376
-0.0183387
-0.0183397
-0.0183407
-0.0183418
-0.0183428
-0.0183438
-0.0183448
-0.0183459
-0.0183469
-0.0183479
-0.018349
-0.01835
-0.018351
-0.0183521
-0.0183531
-0.0183541
-0.0183552
-0.0183562
-0.0183572
-0.0183583
-0.0183593
-0.0183604
-0.0183614
-0.0183624
-0.0183635
-0.0183645
-0.0183656
-0.0183666
-0.0183676
-0.0183687
-0.0183697
-0.0183708
-0.0183718
-0.0183729
-0.0183739
-0.018375
-0.018376
-0.0183771
-0.0183781
-0.0183792
-0.0183802
-0.0183813
-0.0183823
-0.0183834
-0.0183844
-0.0183855
-0.0183865
-0.0183876
-0.0183886
-0.0183897
-0.0183908
-0.0183918
-0.0183929
-0.018394
-0.018395
-0.0183961
-0.0183972
-0.0183982
-0.0183995
-0.0184001
-0.0184019
-0.0184003
-0.0184003
-0.0184003
1
0.131663
0.0682695
0.0522964
0.0444203
0.0395773
0.0362602
0.0338332
0.0319733
0.0304967
0.0292906
0.0282824
0.0274229
0.0266783
0.0260244
0.0254436
0.0249227
0.0244518
0.0240232
0.0236309
0.0232698
0.0229362
0.0226268
0.0223388
0.0220699
0.0218181
0.0215818
0.0213596
0.0211503
0.0209527
0.0207658
0.0205888
0.0204208
0.0202615
0.0201103
0.0199667
0.0198301
0.0197
0.0195761
0.0194583
0.0193466
0.0192411
0.0191418
0.0190486
0.0189613
0.01888
0.018805
0.0187363
0.018674
0.0186177
0.0185668
0.0185203
0.0184776
0.0184379
0.0184011
0.0183673
0.0183364
0.0183086
0.0182837
0.0182615
0.0182412
0.0182226
0.018205
0.0181884
0.0181726
0.0181578
0.0181443
0.0181323
0.0181221
0.0181136
0.0181069
0.0181019
0.0180984
0.018096
0.0180946
0.0180939
0.0180937
0.0180939
0.0180943
0.0180949
0.0180956
0.0180963
0.0180971
0.0180979
0.0180987
0.0180996
0.0181005
0.0181013
0.0181022
0.0181031
0.018104
0.0181049
0.0181057
0.0181066
0.0181075
0.0181084
0.0181093
0.0181102
0.0181111
0.018112
0.0181129
0.0181138
0.0181147
0.0181155
0.0181164
0.0181173
0.0181182
0.0181191
0.01812
0.0181209
0.0181218
0.0181227
0.0181236
0.0181245
0.0181254
0.0181263
0.0181272
0.0181281
0.018129
0.0181299
0.0181308
0.0181317
0.0181326
0.0181335
0.0181344
0.0181353
0.0181363
0.0181372
0.0181381
0.018139
0.0181399
0.0181408
0.0181417
0.0181426
0.0181435
0.0181444
0.0181453
0.0181463
0.0181472
0.0181481
0.018149
0.0181499
0.0181508
0.0181517
0.0181527
0.0181536
0.0181545
0.0181554
0.0181563
0.0181572
0.0181582
0.0181591
0.01816
0.0181609
0.0181618
0.0181628
0.0181637
0.0181646
0.0181655
0.0181664
0.0181674
0.0181683
0.0181692
0.0181701
0.0181711
0.018172
0.0181729
0.0181739
0.0181748
0.0181757
0.0181766
0.0181776
0.0181785
0.0181794
0.0181804
0.0181813
0.0181822
0.0181832
0.0181841
0.018185
0.018186
0.0181869
0.0181878
0.0181888
0.0181897
0.0181906
0.0181916
0.0181925
0.0181935
0.0181944
0.0181953
0.0181963
0.0181972
0.0181982
0.0181991
0.0182
0.018201
0.0182019
0.0182029
0.0182038
0.0182048
0.0182057
0.0182066
0.0182076
0.0182085
0.0182095
0.0182104
0.0182114
0.0182123
0.0182133
0.0182142
0.0182152
0.0182161
0.0182171
0.018218
0.018219
0.01822
0.0182209
0.0182219
0.0182228
0.0182238
0.0182247
0.0182257
0.0182266
0.0182276
0.0182286
0.0182295
0.0182305
0.0182314
0.0182324
0.0182334
0.0182343
0.0182353
0.0182363
0.0182372
0.0182382
0.0182392
0.0182401
0.0182411
0.0182421
0.018243
0.018244
0.018245
0.0182459
0.0182469
0.0182479
0.0182488
0.0182498
0.0182508
0.0182518
0.0182527
0.0182537
0.0182547
0.0182557
0.0182566
0.0182576
0.0182586
0.0182596
0.0182605
0.0182615
0.0182625
0.0182635
0.0182645
0.0182654
0.0182664
0.0182674
0.0182684
0.0182694
0.0182704
0.0182713
0.0182723
0.0182733
0.0182743
0.0182753
0.0182763
0.0182773
0.0182782
0.0182792
0.0182802
0.0182812
0.0182822
0.0182832
0.0182842
0.0182852
0.0182862
0.0182872
0.0182882
0.0182892
0.0182902
0.0182912
0.0182921
0.0182931
0.0182941
0.0182951
0.0182961
0.0182971
0.0182981
0.0182991
0.0183001
0.0183011
0.0183022
0.0183032
0.0183042
0.0183052
0.0183062
0.0183072
0.0183082
0.0183092
0.0183102
0.0183112
0.0183122
0.0183132
0.0183142
0.0183152
0.0183163
0.0183173
0.0183183
0.0183193
0.0183203
0.0183213
0.0183223
0.0183234
0.0183244
0.0183254
0.0183264
0.0183274
0.0183284
0.0183295
0.0183305
0.0183315
0.0183325
0.0183336
0.0183346
0.0183356
0.0183366
0.0183376
0.0183387
0.0183397
0.0183407
0.0183418
0.0183428
0.0183438
0.0183448
0.0183459
0.0183469
0.0183479
0.018349
0.01835
0.018351
0.0183521
0.0183531
0.0183541
0.0183552
0.0183562
0.0183572
0.0183583
0.0183593
0.0183604
0.0183614
0.0183624
0.0183635
0.0183645
0.0183656
0.0183666
0.0183676
0.0183687
0.0183697
0.0183708
0.0183718
0.0183729
0.0183739
0.018375
0.018376
0.0183771
0.0183781
0.0183792
0.0183802
0.0183813
0.0183823
0.0183834
0.0183844
0.0183855
0.0183865
0.0183876
0.0183886
0.0183897
0.0183908
0.0183918
0.0183929
0.018394
0.018395
0.0183961
0.0183972
0.0183982
0.0183995
0.0184001
0.0184019
0.0184003
0.0184003
0.0184003
1
0.344884
0.200669
0.154968
0.131896
0.1176
0.10777
0.10056
0.095027
0.0906312
0.0870402
0.0840384
0.0814804
0.0792653
0.0773211
0.075595
0.074048
0.0726502
0.0713785
0.0702148
0.0691444
0.0681556
0.0672387
0.0663855
0.0655891
0.0648436
0.0641441
0.0634865
0.0628671
0.0622825
0.0617297
0.061206
0.0607096
0.0602389
0.0597923
0.0593681
0.0589648
0.0585809
0.0582157
0.057869
0.0575408
0.0572313
0.0569401
0.0566672
0.0564123
0.0561755
0.0559574
0.0557583
0.0555778
0.0554146
0.0552669
0.055132
0.0550077
0.0548927
0.0547861
0.0546882
0.0545992
0.054519
0.0544471
0.0543826
0.0543238
0.0542695
0.0542185
0.0541704
0.0541251
0.0540832
0.0540452
0.0540118
0.0539836
0.0539606
0.0539427
0.0539294
0.0539201
0.0539141
0.0539106
0.053909
0.0539089
0.0539096
0.053911
0.0539128
0.0539149
0.0539172
0.0539196
0.053922
0.0539245
0.0539271
0.0539297
0.0539323
0.0539349
0.0539375
0.0539401
0.0539428
0.0539454
0.0539481
0.0539507
0.0539534
0.053956
0.0539587
0.0539613
0.053964
0.0539667
0.0539693
0.053972
0.0539747
0.0539773
0.05398
0.0539827
0.0539853
0.053988
0.0539907
0.0539934
0.053996
0.0539987
0.0540014
0.0540041
0.0540068
0.0540095
0.0540122
0.0540148
0.0540175
0.0540202
0.0540229
0.0540256
0.0540283
0.054031
0.0540337
0.0540364
0.0540391
0.0540418
0.0540445
0.0540472
0.05405
0.0540527
0.0540554
0.0540581
0.0540608
0.0540635
0.0540662
0.054069
0.0540717
0.0540744
0.0540771
0.0540799
0.0540826
0.0540853
0.0540881
0.0540908
0.0540935
0.0540963
0.054099
0.0541017
0.0541045
0.0541072
0.05411
0.0541127
0.0541155
0.0541182
0.054121
0.0541237
0.0541265
0.0541292
0.054132
0.0541347
0.0541375
0.0541403
0.054143
0.0541458
0.0541485
0.0541513
0.0541541
0.0541569
0.0541596
0.0541624
0.0541652
0.054168
0.0541707
0.0541735
0.0541763
0.0541791
0.0541819
0.0541846
0.0541874
0.0541902
0.054193
0.0541958
0.0541986
0.0542014
0.0542042
0.054207
0.0542098
0.0542126
0.0542154
0.0542182
0.054221
0.0542238
0.0542266
0.0542294
0.0542323
0.0542351
0.0542379
0.0542407
0.0542435
0.0542463
0.0542492
0.054252
0.0542548
0.0542576
0.0542605
0.0542633
0.0542661
0.054269
0.0542718
0.0542747
0.0542775
0.0542803
0.0542832
0.054286
0.0542889
0.0542917
0.0542946
0.0542974
0.0543003
0.0543031
0.054306
0.0543088
0.0543117
0.0543146
0.0543174
0.0543203
0.0543231
0.054326
0.0543289
0.0543318
0.0543346
0.0543375
0.0543404
0.0543433
0.0543461
0.054349
0.0543519
0.0543548
0.0543577
0.0543606
0.0543635
0.0543663
0.0543692
0.0543721
0.054375
0.0543779
0.0543808
0.0543837
0.0543866
0.0543895
0.0543924
0.0543953
0.0543983
0.0544012
0.0544041
0.054407
0.0544099
0.0544128
0.0544158
0.0544187
0.0544216
0.0544245
0.0544275
0.0544304
0.0544333
0.0544362
0.0544392
0.0544421
0.0544451
0.054448
0.0544509
0.0544539
0.0544568
0.0544598
0.0544627
0.0544657
0.0544686
0.0544716
0.0544745
0.0544775
0.0544804
0.0544834
0.0544864
0.0544893
0.0544923
0.0544953
0.0544982
0.0545012
0.0545042
0.0545072
0.0545101
0.0545131
0.0545161
0.0545191
0.0545221
0.054525
0.054528
0.054531
0.054534
0.054537
0.05454
0.054543
0.054546
0.054549
0.054552
0.054555
0.054558
0.054561
0.054564
0.054567
0.05457
0.0545731
0.0545761
0.0545791
0.0545821
0.0545851
0.0545882
0.0545912
0.0545942
0.0545972
0.0546003
0.0546033
0.0546063
0.0546094
0.0546124
0.0546154
0.0546185
0.0546215
0.0546246
0.0546276
0.0546307
0.0546337
0.0546368
0.0546398
0.0546429
0.0546459
0.054649
0.0546521
0.0546551
0.0546582
0.0546613
0.0546643
0.0546674
0.0546705
0.0546736
0.0546766
0.0546797
0.0546828
0.0546859
0.054689
0.0546921
0.0546951
0.0546982
0.0547013
0.0547044
0.0547075
0.0547106
0.0547137
0.0547168
0.0547199
0.054723
0.0547261
0.0547293
0.0547324
0.0547355
0.0547386
0.0547417
0.0547448
0.054748
0.0547511
0.0547542
0.0547573
0.0547605
0.0547636
0.0547667
0.0547698
0.054773
0.0547761
0.0547793
0.0547824
0.0547856
0.0547887
0.0547919
0.054795
0.0547982
0.0548013
0.0548045
0.0548077
0.0548108
0.0548142
0.0548171
0.054821
0.054823
0.0548282
0.0548241
0.0548241
0.0548241
1
0.518766
0.327403
0.255349
0.217851
0.194406
0.178215
0.16631
0.157162
0.149887
0.143943
0.138973
0.13474
0.131074
0.127859
0.125005
0.122448
0.120139
0.118038
0.116117
0.11435
0.112719
0.111206
0.109799
0.108485
0.107256
0.106103
0.105019
0.103998
0.103035
0.102124
0.101261
0.100444
0.099669
0.0989338
0.0982357
0.0975722
0.096941
0.0963411
0.095772
0.0952338
0.0947267
0.0942503
0.0938041
0.0933881
0.0930024
0.0926478
0.0923244
0.0920313
0.0917665
0.0915263
0.091307
0.091105
0.0909182
0.0907454
0.0905869
0.0904428
0.090313
0.0901965
0.0900915
0.0899959
0.0899074
0.0898246
0.0897468
0.089674
0.089607
0.0895469
0.0894946
0.0894506
0.0894151
0.0893877
0.0893675
0.0893536
0.0893448
0.0893399
0.0893379
0.089338
0.0893396
0.0893421
0.0893452
0.0893487
0.0893525
0.0893565
0.0893606
0.0893647
0.089369
0.0893733
0.0893776
0.0893819
0.0893863
0.0893906
0.089395
0.0893994
0.0894038
0.0894082
0.0894126
0.089417
0.0894214
0.0894258
0.0894302
0.0894346
0.089439
0.0894434
0.0894478
0.0894522
0.0894567
0.0894611
0.0894655
0.0894699
0.0894744
0.0894788
0.0894832
0.0894877
0.0894921
0.0894966
0.089501
0.0895055
0.0895099
0.0895144
0.0895188
0.0895233
0.0895278
0.0895322
0.0895367
0.0895412
0.0895456
0.0895501
0.0895546
0.0895591
0.0895636
0.0895681
0.0895725
0.089577
0.0895815
0.089586
0.0895905
0.089595
0.0895995
0.089604
0.0896086
0.0896131
0.0896176
0.0896221
0.0896266
0.0896312
0.0896357
0.0896402
0.0896447
0.0896493
0.0896538
0.0896583
0.0896629
0.0896674
0.089672
0.0896765
0.0896811
0.0896856
0.0896902
0.0896947
0.0896993
0.0897039
0.0897084
0.089713
0.0897176
0.0897222
0.0897267
0.0897313
0.0897359
0.0897405
0.0897451
0.0897497
0.0897542
0.0897588
0.0897634
0.089768
0.0897726
0.0897773
0.0897819
0.0897865
0.0897911
0.0897957
0.0898003
0.0898049
0.0898096
0.0898142
0.0898188
0.0898235
0.0898281
0.0898327
0.0898374
0.089842
0.0898466
0.0898513
0.0898559
0.0898606
0.0898653
0.0898699
0.0898746
0.0898792
0.0898839
0.0898886
0.0898932
0.0898979
0.0899026
0.0899073
0.089912
0.0899166
0.0899213
0.089926
0.0899307
0.0899354
0.0899401
0.0899448
0.0899495
0.0899542
0.0899589
0.0899636
0.0899683
0.0899731
0.0899778
0.0899825
0.0899872
0.089992
0.0899967
0.0900014
0.0900062
0.0900109
0.0900156
0.0900204
0.0900251
0.0900299
0.0900346
0.0900394
0.0900441
0.0900489
0.0900537
0.0900584
0.0900632
0.090068
0.0900728
0.0900775
0.0900823
0.0900871
0.0900919
0.0900967
0.0901015
0.0901063
0.090111
0.0901158
0.0901207
0.0901255
0.0901303
0.0901351
0.0901399
0.0901447
0.0901495
0.0901543
0.0901592
0.090164
0.0901688
0.0901737
0.0901785
0.0901833
0.0901882
0.090193
0.0901979
0.0902027
0.0902076
0.0902124
0.0902173
0.0902222
0.090227
0.0902319
0.0902368
0.0902416
0.0902465
0.0902514
0.0902563
0.0902612
0.090266
0.0902709
0.0902758
0.0902807
0.0902856
0.0902905
0.0902954
0.0903003
0.0903052
0.0903102
0.0903151
0.09032
0.0903249
0.0903298
0.0903348
0.0903397
0.0903446
0.0903496
0.0903545
0.0903595
0.0903644
0.0903694
0.0903743
0.0903793
0.0903842
0.0903892
0.0903941
0.0903991
0.0904041
0.0904091
0.090414
0.090419
0.090424
0.090429
0.090434
0.0904389
0.0904439
0.0904489
0.0904539
0.0904589
0.0904639
0.090469
0.090474
0.090479
0.090484
0.090489
0.090494
0.0904991
0.0905041
0.0905091
0.0905142
0.0905192
0.0905242
0.0905293
0.0905343
0.0905394
0.0905444
0.0905495
0.0905546
0.0905596
0.0905647
0.0905698
0.0905748
0.0905799
0.090585
0.0905901
0.0905951
0.0906002
0.0906053
0.0906104
0.0906155
0.0906206
0.0906257
0.0906308
0.0906359
0.090641
0.0906462
0.0906513
0.0906564
0.0906615
0.0906667
0.0906718
0.0906769
0.0906821
0.0906872
0.0906923
0.0906975
0.0907026
0.0907078
0.090713
0.0907181
0.0907233
0.0907285
0.0907336
0.0907388
0.090744
0.0907492
0.0907543
0.0907596
0.0907647
0.0907699
0.0907751
0.0907803
0.0907855
0.0907908
0.0907959
0.0908012
0.0908063
0.0908116
0.0908168
0.0908221
0.0908274
0.0908325
0.0908381
0.0908429
0.0908493
0.0908528
0.090861
0.0908556
0.0908556
0.0908556
1
0.660888
0.446896
0.35288
0.302032
0.269853
0.247505
0.231023
0.218332
0.208231
0.199971
0.193066
0.187182
0.18209
0.177624
0.173661
0.170113
0.166908
0.163995
0.161331
0.158882
0.15662
0.154524
0.152574
0.150754
0.149052
0.147455
0.145954
0.14454
0.143207
0.141946
0.140752
0.139621
0.138549
0.137532
0.136567
0.13565
0.134778
0.133949
0.133164
0.132423
0.131724
0.131069
0.130455
0.129884
0.129356
0.128871
0.128429
0.128028
0.127666
0.127338
0.127038
0.126761
0.126506
0.12627
0.126054
0.125858
0.125681
0.125522
0.125378
0.125247
0.125126
0.125013
0.124907
0.124808
0.124718
0.124638
0.124569
0.124511
0.124465
0.124429
0.124403
0.124386
0.124375
0.124369
0.124367
0.124368
0.12437
0.124374
0.124378
0.124383
0.124389
0.124394
0.1244
0.124406
0.124412
0.124418
0.124424
0.12443
0.124436
0.124442
0.124448
0.124454
0.12446
0.124466
0.124472
0.124478
0.124484
0.124491
0.124497
0.124503
0.124509
0.124515
0.124521
0.124527
0.124534
0.12454
0.124546
0.124552
0.124558
0.124564
0.12457
0.124577
0.124583
0.124589
0.124595
0.124601
0.124608
0.124614
0.12462
0.124626
0.124632
0.124639
0.124645
0.124651
0.124657
0.124663
0.12467
0.124676
0.124682
0.124688
0.124695
0.124701
0.124707
0.124713
0.12472
0.124726
0.124732
0.124738
0.124745
0.124751
0.124757
0.124764
0.12477
0.124776
0.124782
0.124789
0.124795
0.124801
0.124808
0.124814
0.12482
0.124827
0.124833
0.124839
0.124846
0.124852
0.124858
0.124865
0.124871
0.124877
0.124884
0.12489
0.124896
0.124903
0.124909
0.124915
0.124922
0.124928
0.124935
0.124941
0.124947
0.124954
0.12496
0.124966
0.124973
0.124979
0.124986
0.124992
0.124999
0.125005
0.125011
0.125018
0.125024
0.125031
0.125037
0.125044
0.12505
0.125056
0.125063
0.125069
0.125076
0.125082
0.125089
0.125095
0.125102
0.125108
0.125115
0.125121
0.125128
0.125134
0.125141
0.125147
0.125154
0.12516
0.125167
0.125173
0.12518
0.125186
0.125193
0.125199
0.125206
0.125212
0.125219
0.125225
0.125232
0.125238
0.125245
0.125252
0.125258
0.125265
0.125271
0.125278
0.125284
0.125291
0.125298
0.125304
0.125311
0.125317
0.125324
0.12533
0.125337
0.125344
0.12535
0.125357
0.125364
0.12537
0.125377
0.125383
0.12539
0.125397
0.125403
0.12541
0.125417
0.125423
0.12543
0.125437
0.125443
0.12545
0.125457
0.125463
0.12547
0.125477
0.125483
0.12549
0.125497
0.125503
0.12551
0.125517
0.125524
0.12553
0.125537
0.125544
0.125551
0.125557
0.125564
0.125571
0.125577
0.125584
0.125591
0.125598
0.125604
0.125611
0.125618
0.125625
0.125632
0.125638
0.125645
0.125652
0.125659
0.125666
0.125672
0.125679
0.125686
0.125693
0.1257
0.125706
0.125713
0.12572
0.125727
0.125734
0.125741
0.125747
0.125754
0.125761
0.125768
0.125775
0.125782
0.125789
0.125795
0.125802
0.125809
0.125816
0.125823
0.12583
0.125837
0.125844
0.125851
0.125857
0.125864
0.125871
0.125878
0.125885
0.125892
0.125899
0.125906
0.125913
0.12592
0.125927
0.125934
0.125941
0.125948
0.125955
0.125962
0.125969
0.125976
0.125983
0.12599
0.125996
0.126003
0.12601
0.126017
0.126025
0.126032
0.126039
0.126046
0.126053
0.12606
0.126067
0.126074
0.126081
0.126088
0.126095
0.126102
0.126109
0.126116
0.126123
0.12613
0.126137
0.126144
0.126151
0.126158
0.126166
0.126173
0.12618
0.126187
0.126194
0.126201
0.126208
0.126215
0.126222
0.12623
0.126237
0.126244
0.126251
0.126258
0.126265
0.126273
0.12628
0.126287
0.126294
0.126301
0.126308
0.126316
0.126323
0.12633
0.126337
0.126344
0.126351
0.126359
0.126366
0.126373
0.12638
0.126388
0.126395
0.126402
0.126409
0.126417
0.126424
0.126431
0.126439
0.126446
0.126453
0.12646
0.126469
0.126474
0.126485
0.126479
0.126479
0.126479
1
0.776803
0.557827
0.44688
0.384105
0.343747
0.315515
0.294609
0.278474
0.265612
0.255087
0.246284
0.238783
0.232292
0.226598
0.221549
0.217028
0.212947
0.209238
0.205846
0.202729
0.199851
0.197184
0.194704
0.192389
0.190224
0.188194
0.186286
0.184489
0.182793
0.181191