# vtk DataFile Version 2.0
FlowField
ASCII
DATASET STRUCTURED_GRID
DIMENSIONS 400 1 200
POINTS 80000 float
0 0 0
0.08 0 0
0.16 0 0
0.24 0 0
0.32 0 0
0.4 0 0
0.48 0 0
0.56 0 0
0.64 0 0
0.72 0 0
0.8 0 0
0.88 0 0
0.96 0 0
1.04 0 0
1.12 0 0
1.2 0 0
1.28 0 0
1.36 0 0
1.44 0 0
1.52 0 0
1.6 0 0
1.68 0 0
1.76 0 0
1.84 0 0
1.92 0 0
2 0 0
2.08 0 0
2.16 0 0
2.24 0 0
2.32 0 0
2.4 0 0
2.48 0 0
2.56 0 0
2.64 0 0
2.72 0 0
2.8 0 0
2.88 0 0
2.96 0 0
3.04 0 0
3.12 0 0
3.2 0 0
3.28 0 0
3.36 0 0
3.44 0 0
3.52 0 0
3.6 0 0
3.68 0 0
3.76 0 0
3.84 0 0
3.92 0 0
4 0 0
4.08 0 0
4.16 0 0
4.24 0 0
4.32 0 0
4.4 0 0
4.48 0 0
4.56 0 0
4.64 0 0
4.72 0 0
4.8 0 0
4.88 0 0
4.96 0 0
5.04 0 0
5.12 0 0
5.2 0 0
5.28 0 0
5.36 0 0
5.44 0 0
5.52 0 0
5.6 0 0
5.68 0 0
5.76 0 0
5.84 0 0
5.92 0 0
6 0 0
6.08 0 0
6.16 0 0
6.24 0 0
6.32 0 0
6.4 0 0
6.48 0 0
6.56 0 0
6.64 0 0
6.72 0 0
6.8 0 0
6.88 0 0
6.96 0 0
7.04 0 0
7.12 0 0
7.2 0 0
7.28 0 0
7.36 0 0
7.44 0 0
7.52 0 0
7.6 0 0
7.68 0 0
7.76 0 0
7.84 0 0
7.92 0 0
8 0 0
8.08 0 0
8.16 0 0
8.24 0 0
8.32 0 0
8.4 0 0
8.48 0 0
8.56 0 0
8.64 0 0
8.72 0 0
8.8 0 0
8.88 0 0
8.96 0 0
9.04 0 0
9.12 0 0
9.2 0 0
9.28 0 0
9.36 0 0
9.44 0 0
9.52 0 0
9.6 0 0
9.68 0 0
9.76 0 0
9.84 0 0
9.92 0 0
10 0 0
10.08 0 0
10.16 0 0
10.24 0 0
10.32 0 0
10.4 0 0
10.48 0 0
10.56 0 0
10.64 0 0
10.72 0 0
10.8 0 0
10.88 0 0
10.96 0 0
11.04 0 0
11.12 0 0
11.2 0 0
11.28 0 0
11.36 0 0
11.44 0 0
11.52 0 0
11.6 0 0
11.68 0 0
11.76 0 0
11.84 0 0
11.92 0 0
12 0 0
12.08 0 0
12.16 0 0
12.24 0 0
12.32 0 0
12.4 0 0
12.48 0 0
12.56 0 0
12.64 0 0
12.72 0 0
12.8 0 0
12.88 0 0
12.96 0 0
13.04 0 0
13.12 0 0
13.2 0 0
13.28 0 0
13.36 0 0
13.44 0 0
13.52 0 0
13.6 0 0
13.68 0 0
13.76 0 0
13.84 0 0
13.92 0 0
14 0 0
14.08 0 0
14.16 0 0
14.24 0 0
14.32 0 0
14.4 0 0
14.48 0 0
14.56 0 0
14.64 0 0
14.72 0 0
14.8 0 0
14.88 0 0
14.96 0 0
15.04 0 0
15.12 0 0
15.2 0 0
15.28 0 0
15.36 0 0
15.44 0 0
15.52 0 0
15.6 0 0
15.68 0 0
15.76 0 0
15.84 0 0
15.92 0 0
16 0 0
16.08 0 0
16.16 0 0
16.24 0 0
16.32 0 0
16.4 0 0
16.48 0 0
16.56 0 0
16.64 0 0
16.72 0 0
16.8 0 0
16.88 0 0
16.96 0 0
17.04 0 0
17.12 0 0
17.2 0 0
17.28 0 0
17.36 0 0
17.44 0 0
17.52 0 0
17.6 0 0
17.68 0 0
17.76 0 0
17.84 0 0
17.92 0 0
18 0 0
18.08 0 0
18.16 0 0
18.24 0 0
18.32 0 0
18.4 0 0
18.48 0 0
18.56 0 0
18.64 0 0
18.72 0 0
18.8 0 0
18.88 0 0
18.96 0 0
19.04 0 0
19.12 0 0
19.2 0 0
19.28 0 0
19.36 0 0
19.44 0 0
19.52 0 0
19.6 0 0
19.68 0 0
19.76 0 0
19.84 0 0
19.92 0 0
20 0 0
20.08 0 0
20.16 0 0
20.24 0 0
20.32 0 0
20.4 0 0
20.48 0 0
20.56 0 0
20.64 0 0
20.72 0 0
20.8 0 0
20.88 0 0
20.96 0 0
21.04 0 0
21.12 0 0
21.2 0 0
21.28 0 0
21.36 0 0
21.44 0 0
21.52 0 0
21.6 0 0
21.68 0 0
21.76 0 0
21.84 0 0
21.92 0 0
22 0 0
22.08 0 0
22.16 0 0
22.24 0 0
22.32 0 0
22.4 0 0
22.48 0 0
22.56 0 0
22.64 0 0
22.72 0 0
22.8 0 0
22.88 0 0
22.96 0 0
23.04 0 0
23.12 0 0
23.2 0 0
23.28 0 0
23.36 0 0
23.44 0 0
23.52 0 0
23.6 0 0
23.68 0 0
23.76 0 0
23.84 0 0
23.92 0 0
24 0 0
24.08 0 0
24.16 0 0
24.24 0 0
24.32 0 0
24.4 0 0
24.48 0 0
24.56 0 0
24.64 0 0
24.72 0 0
24.8 0 0
24.88 0 0
24.96 0 0
25.04 0 0
25.12 0 0
25.2 0 0
25.28 0 0
25.36 0 0
25.44 0 0
25.52 0 0
25.6 0 0
25.68 0 0
25.76 0 0
25.84 0 0
25.92 0 0
26 0 0
26.08 0 0
26.16 0 0
26.24 0 0
26.32 0 0
26.4 0 0
26.48 0 0
26.56 0 0
26.64 0 0
26.72 0 0
26.8 0 0
26.88 0 0
26.96 0 0
27.04 0 0
27.12 0 0
27.2 0 0
27.28 0 0
27.36 0 0
27.44 0 0
27.52 0 0
27.6 0 0
27.68 0 0
27.76 0 0
27.84 0 0
27.92 0 0
28 0 0
28.08 0 0
28.16 0 0
28.24 0 0
28.32 0 0
28.4 0 0
28.48 0 0
28.56 0 0
28.64 0 0
28.72 0 0
28.8 0 0
28.88 0 0
28.96 0 0
29.04 0 0
29.12 0 0
29.2 0 0
29.28 0 0
29.36 0 0
29.44 0 0
29.52 0 0
29.6 0 0
29.68 0 0
29.76 0 0
29.84 0 0
29.92 0 0
30 0 0
30.08 0 0
30.16 0 0
30.24 0 0
30.32 0 0
30.4 0 0
30.48 0 0
30.56 0 0
30.64 0 0
30.72 0 0
30.8 0 0
30.88 0 0
30.96 0 0
31.04 0 0
31.12 0 0
31.2 0 0
31.28 0 0
31.36 0 0
31.44 0 0
31.52 0 0
31.6 0 0
31.68 0 0
31.76 0 0
31.84 0 0
31.92 0 0
0 0.005 0
0.08 0.005 0
0.16 0.005 0
0.24 0.005 0
0.32 0.005 0
0.4 0.005 0
0.48 0.005 0
0.56 0.005 0
0.64 0.005 0
0.72 0.005 0
0.8 0.005 0
0.88 0.005 0
0.96 0.005 0
1.04 0.005 0
1.12 0.005 0
1.2 0.005 0
1.28 0.005 0
1.36 0.005 0
1.44 0.005 0
1.52 0.005 0
1.6 0.005 0
1.68 0.005 0
1.76 0.005 0
1.84 0.005 0
1.92 0.005 0
2 0.005 0
2.08 0.005 0
2.16 0.005 0
2.24 0.005 0
2.32 0.005 0
2.4 0.005 0
2.48 0.005 0
2.56 0.005 0
2.64 0.005 0
2.72 0.005 0
2.8 0.005 0
2.88 0.005 0
2.96 0.005 0
3.04 0.005 0
3.12 0.005 0
3.2 0.005 0
3.28 0.005 0
3.36 0.005 0
3.44 0.005 0
3.52 0.005 0
3.6 0.005 0
3.68 0.005 0
3.76 0.005 0
3.84 0.005 0
3.92 0.005 0
4 0.005 0
4.08 0.005 0
4.16 0.005 0
4.24 0.005 0
4.32 0.005 0
4.4 0.005 0
4.48 0.005 0
4.56 0.005 0
4.64 0.005 0
4.72 0.005 0
4.8 0.005 0
4.88 0.005 0
4.96 0.005 0
5.04 0.005 0
5.12 0.005 0
5.2 0.005 0
5.28 0.005 0
5.36 0.005 0
5.44 0.005 0
5.52 0.005 0
5.6 0.005 0
5.68 0.005 0
5.76 0.005 0
5.84 0.005 0
5.92 0.005 0
6 0.005 0
6.08 0.005 0
6.16 0.005 0
6.24 0.005 0
6.32 0.005 0
6.4 0.005 0
6.48 0.005 0
6.56 0.005 0
6.64 0.005 0
6.72 0.005 0
6.8 0.005 0
6.88 0.005 0
6.96 0.005 0
7.04 0.005 0
7.12 0.005 0
7.2 0.005 0
7.28 0.005 0
7.36 0.005 0
7.44 0.005 0
7.52 0.005 0
7.6 0.005 0
7.68 0.005 0
7.76 0.005 0
7.84 0.005 0
7.92 0.005 0
8 0.005 0
8.08 0.005 0
8.16 0.005 0
8.24 0.005 0
8.32 0.005 0
8.4 0.005 0
8.48 0.005 0
8.56 0.005 0
8.64 0.005 0
8.72 0.005 0
8.8 0.005 0
8.88 0.005 0
8.96 0.005 0
9.04 0.005 0
9.12 0.005 0
9.2 0.005 0
9.28 0.005 0
9.36 0.005 0
9.44 0.005 0
9.52 0.005 0
9.6 0.005 0
9.68 0.005 0
9.76 0.005 0
9.84 0.005 0
9.92 0.005 0
10 0.005 0
10.08 0.005 0
10.16 0.005 0
10.24 0.005 0
10.32 0.005 0
10.4 0.005 0
10.48 0.005 0
10.56 0.005 0
10.64 0.005 0
10.72 0.005 0
10.8 0.005 0
10.88 0.005 0
10.96 0.005 0
11.04 0.005 0
11.12 0.005 0
11.2 0.005 0
11.28 0.005 0
11.36 0.005 0
11.44 0.005 0
11.52 0.005 0
11.6 0.005 0
11.68 0.005 0
11.76 0.005 0
11.84 0.005 0
11.92 0.005 0
12 0.005 0
12.08 0.005 0
12.16 0.005 0
12.24 0.005 0
12.32 0.005 0
12.4 0.005 0
12.48 0.005 0
12.56 0.005 0
12.64 0.005 0
12.72 0.005 0
12.8 0.005 0
12.88 0.005 0
12.96 0.005 0
13.04 0.005 0
13.12 0.005 0
13.2 0.005 0
13.28 0.005 0
13.36 0.005 0
13.44 0.005 0
13.52 0.005 0
13.6 0.005 0
13.68 0.005 0
13.76 0.005 0
13.84 0.005 0
13.92 0.005 0
14 0.005 0
14.08 0.005 0
14.16 0.005 0
14.24 0.005 0
14.32 0.005 0
14.4 0.005 0
14.48 0.005 0
14.56 0.005 0
14.64 0.005 0
14.72 0.005 0
14.8 0.005 0
14.88 0.005 0
14.96 0.005 0
15.04 0.005 0
15.12 0.005 0
15.2 0.005 0
15.28 0.005 0
15.36 0.005 0
15.44 0.005 0
15.52 0.005 0
15.6 0.005 0
15.68 0.005 0
15.76 0.005 0
15.84 0.005 0
15.92 0.005 0
16 0.005 0
16.08 0.005 0
16.16 0.005 0
16.24 0.005 0
16.32 0.005 0
16.4 0.005 0
16.48 0.005 0
16.56 0.005 0
16.64 0.005 0
16.72 0.005 0
16.8 0.005 0
16.88 0.005 0
16.96 0.005 0
17.04 0.005 0
17.12 0.005 0
17.2 0.005 0
17.28 0.005 0
17.36 0.005 0
17.44 0.005 0
17.52 0.005 0
17.6 0.005 0
17.68 0.005 0
17.76 0.005 0
17.84 0.005 0
17.92 0.005 0
18 0.005 0
18.08 0.005 0
18.16 0.005 0
18.24 0.005 0
18.32 0.005 0
18.4 0.005 0
18.48 0.005 0
18.56 0.005 0
18.64 0.005 0
18.72 0.005 0
18.8 0.005 0
18.88 0.005 0
18.96 0.005 0
19.04 0.005 0
19.12 0.005 0
19.2 0.005 0
19.28 0.005 0
19.36 0.005 0
19.44 0.005 0
19.52 0.005 0
19.6 0.005 0
19.68 0.005 0
19.76 0.005 0
19.84 0.005 0
19.92 0.005 0
20 0.005 0
20.08 0.005 0
20.16 0.005 0
20.24 0.005 0
20.32 0.005 0
20.4 0.005 0
20.48 0.005 0
20.56 0.005 0
20.64 0.005 0
20.72 0.005 0
20.8 0.005 0
20.88 0.005 0
20.96 0.005 0
21.04 0.005 0
21.12 0.005 0
21.2 0.005 0
21.28 0.005 0
21.36 0.005 0
21.44 0.005 0
21.52 0.005 0
21.6 0.005 0
21.68 0.005 0
21.76 0.005 0
21.84 0.005 0
21.92 0.005 0
22 0.005 0
22.08 0.005 0
22.16 0.005 0
22.24 0.005 0
22.32 0.005 0
22.4 0.005 0
22.48 0.005 0
22.56 0.005 0
22.64 0.005 0
22.72 0.005 0
22.8 0.005 0
22.88 0.005 0
22.96 0.005 0
23.04 0.005 0
23.12 0.005 0
23.2 0.005 0
23.28 0.005 0
23.36 0.005 0
23.44 0.005 0
23.52 0.005 0
23.6 0.005 0
23.68 0.005 0
23.76 0.005 0
23.84 0.005 0
23.92 0.005 0
24 0.005 0
24.08 0.005 0
24.16 0.005 0
24.24 0.005 0
24.32 0.005 0
24.4 0.005 0
24.48 0.005 0
24.56 0.005 0
24.64 0.005 0
24.72 0.005 0
24.8 0.005 0
24.88 0.005 0
24.96 0.005 0
25.04 0.005 0
25.12 0.005 0
25.2 0.005 0
25.28 0.005 0
25.36 0.005 0
25.44 0.005 0
25.52 0.005 0
25.6 0.005 0
25.68 0.005 0
25.76 0.005 0
25.84 0.005 0
25.92 0.005 0
26 0.005 0
26.08 0.005 0
26.16 0.005 0
26.24 0.005 0
26.32 0.005 0
26.4 0.005 0
26.48 0.005 0
26.56 0.005 0
26.64 0.005 0
26.72 0.005 0
26.8 0.005 0
26.88 0.005 0
26.96 0.005 0
27.04 0.005 0
27.12 0.005 0
27.2 0.005 0
27.28 0.005 0
27.36 0.005 0
27.44 0.005 0
27.52 0.005 0
27.6 0.005 0
27.68 0.005 0
27.76 0.005 0
27.84 0.005 0
27.92 0.005 0
28 0.005 0
28.08 0.005 0
28.16 0.005 0
28.24 0.005 0
28.32 0.005 0
28.4 0.005 0
28.48 0.005 0
28.56 0.005 0
28.64 0.005 0
28.72 0.005 0
28.8 0.005 0
28.88 0.005 0
28.96 0.005 0
29.04 0.005 0
29.12 0.005 0
29.2 0.005 0
29.28 0.005 0
29.36 0.005 0
29.44 0.005 0
29.52 0.005 0
29.6 0.005 0
29.68 0.005 0
29.76 0.005 0
29.84 0.005 0
29.92 0.005 0
30 0.005 0
30.08 0.005 0
30.16 0.005 0
30.24 0.005 0
30.32 0.005 0
30.4 0.005 0
30.48 0.005 0
30.56 0.005 0
30.64 0.005 0
30.72 0.005 0
30.8 0.005 0
30.88 0.005 0
30.96 0.005 0
31.04 0.005 0
31.12 0.005 0
31.2 0.005 0
31.28 0.005 0
31.36 0.005 0
31.44 0.005 0
31.52 0.005 0
31.6 0.005 0
31.68 0.005 0
31.76 0.005 0
31.84 0.005 0
31.92 0.005 0
0 0.01 0
0.08 0.01 0
0.16 0.01 0
0.24 0.01 0
0.32 0.01 0
0.4 0.01 0
0.48 0.01 0
0.56 0.01 0
0.64 0.01 0
0.72 0.01 0
0.8 0.01 0
0.88 0.01 0
0.96 0.01 0
1.04 0.01 0
1.12 0.01 0
1.2 0.01 0
1.28 0.01 0
1.36 0.01 0
1.44 0.01 0
1.52 0.01 0
1.6 0.01 0
1.68 0.01 0
1.76 0.01 0
1.84 0.01 0
1.92 0.01 0
2 0.01 0
2.08 0.01 0
2.16 0.01 0
2.24 0.01 0
2.32 0.01 0
2.4 0.01 0
2.48 0.01 0
2.56 0.01 0
2.64 0.01 0
2.72 0.01 0
2.8 0.01 0
2.88 0.01 0
2.96 0.01 0
3.04 0.01 0
3.12 0.01 0
3.2 0.01 0
3.28 0.01 0
3.36 0.01 0
3.44 0.01 0
3.52 0.01 0
3.6 0.01 0
3.68 0.01 0
3.76 0.01 0
3.84 0.01 0
3.92 0.01 0
4 0.01 0
4.08 0.01 0
4.16 0.01 0
4.24 0.01 0
4.32 0.01 0
4.4 0.01 0
4.48 0.01 0
4.56 0.01 0
4.64 0.01 0
4.72 0.01 0
4.8 0.01 0
4.88 0.01 0
4.96 0.01 0
5.04 0.01 0
5.12 0.01 0
[...]
POINT_DATA 80000

SCALARS p float 1
LOOKUP_TABLE default
1
57.8486
57.5466
57.5053
57.485
57.4704
57.4584
57.4477
57.4377
57.4284
57.4199
57.4122
57.4053
57.3989
57.3928
57.387
57.3814
57.3758
57.3704
57.365
57.3596
57.3543
57.3489
57.3436
57.3383
57.3331
57.3278
57.3226
57.3175
57.3124
57.3073
57.3023
57.2973
57.2923
57.2875
57.2826
57.2778
57.2731
57.2684
57.2637
57.2591
57.2546
57.2501
57.2456
57.2412
57.2369
57.2326
57.2283
57.2242
57.22
57.2159
57.2119
57.208
57.2041
57.2002
57.1964
57.1927
57.189
57.1854
57.1819
57.1784
57.175
57.1717
57.1684
57.1652
57.1621
57.159
57.156
57.1531
57.1503
57.1476
57.1449
57.1424
57.1399
57.1375
57.1352
57.133
57.1309
57.1289
57.127
57.1253
57.1236
57.1221
57.1206
57.1194
57.1182
57.1172
57.1163
57.1156
57.115
57.1146
57.1144
57.1143
57.1145
57.1148
57.1153
57.1161
57.117
57.1183
57.1197
57.1214
57.1234
57.1257
57.1283
57.1312
57.1344
57.138
57.1419
57.1463
57.151
57.1561
57.1617
57.1678
57.1743
57.1814
57.189
57.1971
57.2058
57.2152
57.2251
57.2358
57.2471
57.2591
57.2719
57.2854
57.2998
57.315
57.331
57.3479
57.3658
57.3846
57.4043
57.4251
57.4469
57.4697
57.4937
57.5187
57.5449
57.5722
57.6007
57.6303
57.6612
57.6933
57.7266
57.7612
57.797
57.8341
57.8724
57.912
57.9528
57.9949
58.0382
58.0828
58.1285
58.1754
58.2235
58.2728
58.3231
58.3745
58.4269
58.4804
58.5348
58.5901
58.6462
58.7032
58.7609
58.8192
58.8783
58.9378
58.9979
59.0584
59.1192
59.1804
59.2417
59.3032
59.3647
59.4262
59.4877
59.549
59.61
59.6707
59.731
59.7908
59.8501
59.9088
59.9668
60.0241
60.0805
60.1361
60.1907
60.2443
60.2969
60.3483
60.3986
60.4477
60.4956
60.5421
60.5874
60.6313
60.6738
60.715
60.7547
60.793
60.8298
60.8652
60.8991
60.9315
60.9625
60.992
61.0201
61.0467
61.0719
61.0957
61.1181
61.1391
61.1588
61.1771
61.1942
61.2099
61.2245
61.2378
61.2499
61.261
61.2709
61.2797
61.2875
61.2943
61.3001
61.305
61.3091
61.3122
61.3146
61.3162
61.317
61.3171
61.3166
61.3154
61.3136
61.3112
61.3082
61.3048
61.3008
61.2964
61.2916
61.2864
61.2808
61.2748
61.2685
61.2618
61.2549
61.2477
61.2403
61.2326
61.2247
61.2166
61.2083
61.1998
61.1912
61.1824
61.1735
61.1644
61.1553
61.146
61.1366
61.1272
61.1176
61.108
61.0983
61.0886
61.0788
61.0689
61.059
61.049
61.039
61.029
61.0189
61.0089
60.9987
60.9886
60.9784
60.9682
60.958
60.9478
60.9375
60.9273
60.917
60.9067
60.8964
60.8861
60.8758
60.8654
60.8551
60.8447
60.8344
60.824
60.8137
60.8033
60.7929
60.7825
60.7721
60.7617
60.7513
60.7409
60.7305
60.7201
60.7097
60.6992
60.6888
60.6784
60.6679
60.6575
60.647
60.6366
60.6261
60.6157
60.6052
60.5947
60.5842
60.5738
60.5633
60.5528
60.5423
60.5318
60.5213
60.5108
60.5002
60.4897
60.4792
60.4687
60.4581
60.4476
60.437
60.4265
60.4159
60.4054
60.3948
60.3842
60.3737
60.3631
60.3525
60.3419
60.3313
60.3207
60.3101
60.2995
60.2889
60.2782
60.2676
60.257
60.2463
60.2357
60.225
60.2144
60.2037
60.193
60.1824
60.1717
60.161
60.1503
60.1396
60.1289
60.1182
60.1075
60.0967
60.086
60.0753
60.0645
60.0538
60.043
60.0323
60.0215
60.0107
59.9999
59.9891
59.9784
59.9676
59.9567
59.9459
59.9351
59.9243
59.9134
59.9026
59.8918
59.8809
59.87
59.8592
59.8483
59.8374
59.8265
59.8156
59.8047
59.7938
59.7829
59.7719
59.761
59.7501
59.7391
59.7281
59.7173
0.5
57.8486
57.8486
57.5466
57.5053
57.485
57.4704
57.4584
57.4477
57.4377
57.4284
57.4199
57.4122
57.4053
57.3989
57.3928
57.387
57.3814
57.3758
57.3704
57.365
57.3596
57.3543
57.3489
57.3436
57.3383
57.3331
57.3278
57.3226
57.3175
57.3124
57.3073
57.3023
57.2973
57.2923
57.2875
57.2826
57.2778
57.2731
57.2684
57.2637
57.2591
57.2546
57.2501
57.2456
57.2412
57.2369
57.2326
57.2283
57.2242
57.22
57.2159
57.2119
57.208
57.2041
57.2002
57.1964
57.1927
57.189
57.1854
57.1819
57.1784
57.175
57.1717
57.1684
57.1652
57.1621
57.159
57.156
57.1531
57.1503
57.1476
57.1449
57.1424
57.1399
57.1375
57.1352
57.133
57.1309
57.1289
57.127
57.1253
57.1236
57.1221
57.1206
57.1194
57.1182
57.1172
57.1163
57.1156
57.115
57.1146
57.1144
57.1143
57.1145
57.1148
57.1153
57.1161
57.117
57.1183
57.1197
57.1214
57.1234
57.1257
57.1283
57.1312
57.1344
57.138
57.1419
57.1463
57.151
57.1561
57.1617
57.1678
57.1743
57.1814
57.189
57.1971
57.2058
57.2152
57.2251
57.2358
57.2471
57.2591
57.2719
57.2854
57.2998
57.315
57.331
57.3479
57.3658
57.3846
57.4043
57.4251
57.4469
57.4697
57.4937
57.5187
57.5449
57.5722
57.6007
57.6303
57.6612
57.6933
57.7266
57.7612
57.797
57.8341
57.8724
57.912
57.9528
57.9949
58.0382
58.0828
58.1285
58.1754
58.2235
58.2728
58.3231
58.3745
58.4269
58.4804
58.5348
58.5901
58.6462
58.7032
58.7609
58.8192
58.8783
58.9378
58.9979
59.0584
59.1192
59.1804
59.2417
59.3032
59.3647
59.4262
59.4877
59.549
59.61
59.6707
59.731
59.7908
59.8501
59.9088
59.9668
60.0241
60.0805
60.1361
60.1907
60.2443
60.2969
60.3483
60.3986
60.4477
60.4956
60.5421
60.5874
60.6313
60.6738
60.715
60.7547
60.793
60.8298
60.8652
60.8991
60.9315
60.9625
60.992
61.0201
61.0467
61.0719
61.0957
61.1181
61.1391
61.1588
61.1771
61.1942
61.2099
61.2245
61.2378
61.2499
61.261
61.2709
61.2797
61.2875
61.2943
61.3001
61.305
61.3091
61.3122
61.3146
61.3162
61.317
61.3171
61.3166
61.3154
61.3136
61.3112
61.3082
61.3048
61.3008
61.2964
61.2916
61.2864
61.2808
61.2748
61.2685
61.2618
61.2549
61.2477
61.2403
61.2326
61.2247
61.2166
61.2083
61.1998
61.1912
61.1824
61.1735
61.1644
61.1553
61.146
61.1366
61.1272
61.1176
61.108
61.0983
61.0886
61.0788
61.0689
61.059
61.049
61.039
61.029
61.0189
61.0089
60.9987
60.9886
60.9784
60.9682
60.958
60.9478
60.9375
60.9273
60.917
60.9067
60.8964
60.8861
60.8758
60.8654
60.8551
60.8447
60.8344
60.824
60.8137
60.8033
60.7929
60.7825
60.7721
60.7617
60.7513
60.7409
60.7305
60.7201
60.7097
60.6992
60.6888
60.6784
60.6679
60.6575
60.647
60.6366
60.6261
60.6157
60.6052
60.5947
60.5842
60.5738
60.5633
60.5528
60.5423
60.5318
60.5213
60.5108
60.5002
60.4897
60.4792
60.4687
60.4581
60.4476
60.437
60.4265
60.4159
60.4054
60.3948
60.3842
60.3737
60.3631
60.3525
60.3419
60.3313
60.3207
60.3101
60.2995
60.2889
60.2782
60.2676
60.257
60.2463
60.2357
60.225
60.2144
60.2037
60.193
60.1824
60.1717
60.161
60.1503
60.1396
60.1289
60.1182
60.1075
60.0967
60.086
60.0753
60.0645
60.0538
60.043
60.0323
60.0215
60.0107
59.9999
59.9891
59.9784
59.9676
59.9567
59.9459
59.9351
59.9243
59.9134
59.9026
59.8918
59.8809
59.87
59.8592
59.8483
59.8374
59.8265
59.8156
59.8047
59.7938
59.7829
59.7719
59.761
59.7501
59.7391
59.7281
59.7173
59.7173
57.834
57.834
57.5504
57.5065
57.4856
57.4708
57.4586
57.4479
57.4379
57.4285
57.42
57.4122
57.4053
57.3989
57.3928
57.387
57.3814
57.3758
57.3703
57.365
57.3596
57.3543
57.3489
57.3436
57.3383
57.3331
57.3278
57.3226
57.3175
57.3124
57.3073
57.3023
57.2973
57.2923
57.2874
57.2826
57.2778
57.2731
57.2684
57.2637
57.2591
57.2546
57.2501
57.2456
57.2412
57.2369
57.2326
57.2283
57.2241
57.22
57.2159
57.2119
57.2079
57.204
57.2002
57.1964
57.1927
57.189
57.1854
57.1819
57.1784
57.175
57.1717
57.1684
57.1652
57.1621
57.159
57.156
57.1531
57.1503
57.1476
57.1449
57.1424
57.1399
57.1375
57.1352
57.133
57.1309
57.1289
57.127
57.1253
57.1236
57.1221
57.1206
57.1193
57.1182
57.1172
57.1163
57.1156
57.115
57.1146
57.1144
57.1143
57.1144
57.1148
57.1153
57.1161
57.117
57.1182
57.1197
57.1214
57.1234
57.1257
57.1283
57.1312
57.1344
57.138
57.1419
57.1462
57.151
57.1561
57.1617
57.1678
57.1743
57.1814
57.189
57.1971
57.2058
57.2152
57.2251
57.2357
57.2471
57.2591
57.2719
57.2854
57.2998
57.3149
57.331
57.3479
57.3657
57.3845
57.4043
57.4251
57.4468
57.4697
57.4936
57.5187
57.5448
57.5721
57.6006
57.6303
57.6612
57.6933
57.7266
57.7611
57.797
57.834
57.8724
57.9119
57.9528
57.9948
58.0382
58.0827
58.1284
58.1754
58.2234
58.2727
58.323
58.3744
58.4268
58.4803
58.5347
58.59
58.6461
58.7031
58.7608
58.8191
58.8781
58.9377
58.9978
59.0583
59.1191
59.1802
59.2416
59.3031
59.3646
59.4261
59.4876
59.5488
59.6099
59.6706
59.7309
59.7907
59.85
59.9087
59.9667
60.024
60.0804
60.1359
60.1906
60.2442
60.2967
60.3482
60.3985
60.4476
60.4954
60.542
60.5873
60.6312
60.6737
60.7149
60.7546
60.7929
60.8297
60.8651
60.899
60.9314
60.9624
60.9919
61.02
61.0466
61.0718
61.0956
61.118
61.139
61.1587
61.1771
61.1941
61.2099
61.2244
61.2377
61.2499
61.2609
61.2708
61.2797
61.2875
61.2943
61.3001
61.305
61.309
61.3122
61.3146
61.3161
61.317
61.3171
61.3165
61.3153
61.3135
61.3112
61.3082
61.3048
61.3008
61.2964
61.2916
61.2864
61.2807
61.2748
61.2685
61.2618
61.2549
61.2477
61.2403
61.2326
61.2247
61.2166
61.2083
61.1998
61.1912
61.1824
61.1735
61.1644
61.1553
61.146
61.1366
61.1272
61.1176
61.108
61.0983
61.0886
61.0788
61.0689
61.059
61.049
61.039
61.029
61.0189
61.0089
60.9987
60.9886
60.9784
60.9682
60.958
60.9478
60.9375
60.9273
60.917
60.9067
60.8964
60.8861
60.8758
60.8654
60.8551
60.8447
60.8344
60.824
60.8137
60.8033
60.7929
60.7825
60.7721
60.7617
60.7513
60.7409
60.7305
60.7201
60.7097
60.6992
60.6888
60.6784
60.6679
60.6575
60.647
60.6366
60.6261
60.6157
60.6052
60.5947
60.5842
60.5738
60.5633
60.5528
60.5423
60.5318
60.5213
60.5108
60.5002
60.4897
60.4792
60.4687
60.4581
60.4476
60.437
60.4265
60.4159
60.4054
60.3948
60.3842
60.3737
60.3631
60.3525
60.3419
60.3313
60.3207
60.3101
60.2995
60.2889
60.2782
60.2676
60.257
60.2463
60.2357
60.225
60.2144
60.2037
60.193
60.1824
60.1717
60.161
60.1503
60.1396
60.1289
60.1182
60.1075
60.0967
60.086
60.0753
60.0645
60.0538
60.043
60.0323
60.0215
60.0107
59.9999
59.9892
59.9784
59.9676
59.9567
59.9459
59.9351
59.9243
59.9134
59.9026
59.8918
59.8809
59.87
59.8592
59.8483
59.8374
59.8265
59.8156
59.8047
59.7938
59.7829
59.7719
59.761
59.7501
59.7391
59.7281
59.7173
59.7173
57.818
57.818
57.5536
57.5077
57.4862
57.4712
57.4589
57.448
57.438
57.4287
57.42
57.4123
57.4053
57.3989
57.3929
57.387
57.3814
57.3758
57.3703
57.365
57.3596
57.3543
57.3489
57.3436
57.3383
57.3331
57.3278
57.3226
57.3175
57.3124
57.3073
57.3023
57.2973
57.2923
57.2875
57.2826
57.2778
57.2731
57.2684
57.2637
57.2591
57.2546
57.2501
57.2456
57.2412
57.2369
57.2326
57.2283
57.2241
57.22
57.2159
57.2119
57.208
57.204
57.2002
57.1964
57.1927
57.189
57.1854
57.1819
57.1784
57.175
57.1717
57.1684
57.1652
57.1621
57.159
57.156
57.1531
57.1503
57.1476
57.1449
57.1424
57.1399
57.1375
57.1352
57.133
57.1309
57.1289
57.127
57.1253
57.1236
57.1221
57.1206
57.1193
57.1182
57.1172
57.1163
57.1156
57.115
57.1146
57.1144
57.1143
57.1145
57.1148
57.1153
57.1161
57.117
57.1183
57.1197
57.1214
57.1234
57.1257
57.1283
57.1312
57.1344
57.138
57.1419
57.1463
57.151
57.1561
57.1617
57.1678
57.1743
57.1814
57.189
57.1971
57.2058
57.2152
57.2251
57.2358
57.2471
57.2591
57.2719
57.2854
57.2998
57.3149
57.331
57.3479
57.3657
57.3845
57.4043
57.4251
57.4469
57.4697
57.4936
57.5187
57.5448
57.5722
57.6006
57.6303
57.6612
57.6933
57.7266
57.7612
57.797
57.834
57.8724
57.9119
57.9528
57.9949
58.0382
58.0827
58.1284
58.1754
58.2235
58.2727
58.323
58.3744
58.4269
58.4803
58.5347
58.59
58.6461
58.7031
58.7608
58.8191
58.8781
58.9377
58.9978
59.0583
59.1191
59.1802
59.2416
59.3031
59.3646
59.4261
59.4875
59.5488
59.6098
59.6705
59.7308
59.7907
59.85
59.9087
59.9667
60.0239
60.0804
60.1359
60.1905
60.2441
60.2967
60.3482
60.3985
60.4476
60.4954
60.542
60.5872
60.6312
60.6737
60.7148
60.7545
60.7928
60.8297
60.865
60.899
60.9314
60.9624
60.9919
61.02
61.0466
61.0718
61.0956
61.118
61.139
61.1587
61.177
61.1941
61.2099
61.2244
61.2377
61.2499
61.2609
61.2708
61.2796
61.2874
61.2942
61.3001
61.305
61.309
61.3122
61.3146
61.3161
61.317
61.3171
61.3165
61.3153
61.3135
61.3111
61.3082
61.3048
61.3008
61.2964
61.2916
61.2864
61.2807
61.2748
61.2685
61.2618
61.2549
61.2477
61.2403
61.2326
61.2247
61.2166
61.2083
61.1998
61.1912
61.1824
61.1735
61.1644
61.1553
61.146
61.1366
61.1272
61.1176
61.108
61.0983
61.0886
61.0788
61.0689
61.059
61.049
61.039
61.029
61.0189
61.0089
60.9987
60.9886
60.9784
60.9682
60.958
60.9478
60.9375
60.9273
60.917
60.9067
60.8964
60.8861
60.8758
60.8654
60.8551
60.8447
60.8344
60.824
60.8137
60.8033
60.7929
60.7825
60.7721
60.7617
60.7513
60.7409
60.7305
60.7201
60.7097
60.6992
60.6888
60.6784
60.6679
60.6575
60.647
60.6366
60.6261
60.6157
60.6052
60.5947
60.5842
60.5738
60.5633
60.5528
60.5423
60.5318
60.5213
60.5108
60.5002
60.4897
60.4792
60.4687
60.4581
60.4476
60.437
60.4265
60.4159
60.4054
60.3948
60.3842
60.3737
60.3631
60.3525
60.3419
60.3313
60.3207
60.3101
60.2995
60.2889
60.2782
60.2676
60.257
60.2463
60.2357
60.225
60.2144
60.2037
60.193
60.1824
60.1717
60.161
60.1503
60.1396
60.1289
60.1182
60.1075
60.0967
60.086
60.0753
60.0645
60.0538
60.043
60.0323
60.0215
60.0107
59.9999
59.9891
59.9784
59.9676
59.9567
59.9459
59.9351
59.9243
59.9134
59.9026
59.8918
59.8809
59.87
59.8592
59.8483
59.8374
59.8265
59.8156
59.8047
59.7938
59.7829
59.7719
59.761
59.7501
59.7391
59.7281
59.7173
59.7173
57.8021
57.8021
57.5565
57.5088
57.4868
57.4716
57.4592
57.4482
57.4382
57.4288
57.4201
57.4124
57.4054
57.3989
57.3929
57.387
57.3814
57.3758
57.3703
57.365
57.3596
57.3543
57.3489
57.3436
57.3383
57.3331
57.3278
57.3226
57.3175
57.3124
57.3073
57.3023
57.2973
57.2923
57.2875
57.2826
57.2778
57.2731
57.2684
57.2637
57.2591
57.2546
57.2501
57.2456
57.2412
57.2369
57.2326
57.2283
57.2241
57.22
57.2159
57.2119
57.208
57.204
57.2002
57.1964
57.1927
57.189
57.1854
57.1819
57.1784
57.175
57.1717
57.1684
57.1652
57.1621
57.159
57.156
57.1531
57.1503
57.1476
57.1449
57.1424
57.1399
57.1375
57.1352
57.133
57.1309
57.1289
57.127
57.1253
57.1236
57.1221
57.1206
57.1194
57.1182
57.1172
57.1163
57.1156
57.115
57.1146
57.1144
57.1143
57.1145
57.1148
57.1153
57.1161
57.117
57.1183
57.1197
57.1214
57.1234
57.1257
57.1283
57.1312
57.1344
57.138
57.1419
57.1463
57.151
57.1561
57.1617
57.1678
57.1743
57.1814
57.189
57.1971
57.2058
57.2152
57.2251
57.2358
57.2471
57.2591
57.2719
57.2854
57.2998
57.315
57.331
57.3479
57.3658
57.3846
57.4043
57.4251
57.4469
57.4697
57.4937
57.5187
57.5449
57.5722
57.6006
57.6303
57.6612
57.6933
57.7266
57.7612
57.797
57.8341
57.8724
57.912
57.9528
57.9949
58.0382
58.0827
58.1284
58.1754
58.2235
58.2727
58.323
58.3744
58.4269
58.4803
58.5347
58.59
58.6461
58.7031
58.7608
58.8191
58.8781
58.9377
58.9978
59.0583
59.1191
59.1802
59.2416
59.303
59.3646
59.4261
59.4875
59.5488
59.6098
59.6705
59.7308
59.7907
59.85
59.9087
59.9667
60.0239
60.0803
60.1359
60.1905
60.2441
60.2967
60.3481
60.3984
60.4475
60.4954
60.542
60.5872
60.6311
60.6737
60.7148
60.7545
60.7928
60.8296
60.865
60.8989
60.9314
60.9624
60.9919
61.02
61.0466
61.0718
61.0956
61.118
61.139
61.1587
61.177
61.1941
61.2098
61.2244
61.2377
61.2499
61.2609
61.2708
61.2796
61.2874
61.2942
61.3001
61.305
61.309
61.3122
61.3145
61.3161
61.317
61.3171
61.3165
61.3153
61.3135
61.3111
61.3082
61.3048
61.3008
61.2964
61.2916
61.2864
61.2807
61.2748
61.2684
61.2618
61.2549
61.2477
61.2403
61.2326
61.2247
61.2166
61.2083
61.1998
61.1912
61.1824
61.1735
61.1644
61.1553
61.146
61.1366
61.1272
61.1176
61.108
61.0983
61.0886
61.0788
61.0689
61.059
61.049
61.039
61.029
61.0189
61.0088
60.9987
60.9886
60.9784
60.9682
60.958
60.9478
60.9375
60.9273
60.917
60.9067
60.8964
60.8861
60.8758
60.8654
60.8551
60.8447
60.8344
60.824
60.8137
60.8033
60.7929
60.7825
60.7721
60.7617
60.7513
60.7409
60.7305
60.7201
60.7097
60.6992
60.6888
60.6784
60.6679
60.6575
60.647
60.6366
60.6261
60.6157
60.6052
60.5947
60.5842
60.5738
60.5633
60.5528
60.5423
60.5318
60.5213
60.5108
60.5002
60.4897
60.4792
60.4687
60.4581
60.4476
60.437
60.4265
60.4159
60.4054
60.3948
60.3842
60.3737
60.3631
60.3525
60.3419
60.3313
60.3207
60.3101
60.2995
60.2889
60.2782
60.2676
60.257
60.2463
60.2357
60.225
60.2144
60.2037
60.193
60.1824
60.1717
60.161
60.1503
60.1396
60.1289
60.1182
60.1075
60.0967
60.086
60.0753
60.0645
60.0538
60.043
60.0323
60.0215
60.0107
59.9999
59.9891
59.9784
59.9676
59.9567
59.9459
59.9351
59.9243
59.9134
59.9026
59.8917
59.8809
59.87
59.8592
59.8483
59.8374
59.8265
59.8156
59.8047
59.7938
59.7829
59.7719
59.761
59.75
59.7391
59.7281
59.7173
59.7173
57.787
57.787
57.5592
57.51
57.4874
57.4719
57.4594
57.4484
57.4383
57.4289
57.4202
57.4124
57.4054
57.399
57.3929
57.387
57.3814
57.3758
57.3703
57.365
57.3596
57.3543
57.3489
57.3436
57.3383
57.3331
57.3278
57.3226
57.3175
57.3124
57.3073
57.3023
57.2973
57.2923
57.2875
57.2826
57.2778
57.2731
57.2684
57.2637
57.2591
57.2546
57.2501
57.2456
57.2412
57.2369
57.2326
57.2283
57.2242
57.22
57.2159
57.2119
57.208
57.204
57.2002
57.1964
57.1927
57.189
57.1854
57.1819
57.1784
57.175
57.1717
57.1684
57.1652
57.1621
57.159
57.156
57.1531
57.1503
57.1476
57.1449
57.1424
57.1399
57.1375
57.1352
57.133
57.1309
57.1289
57.127
57.1253
57.1236
57.1221
57.1206
57.1194
57.1182
57.1172
57.1163
57.1156
57.115
57.1146
57.1144
57.1143
57.1145
57.1148
57.1153
57.1161
57.1171
57.1183
57.1197
57.1214
57.1234
57.1257
57.1283
57.1312
57.1344
57.138
57.1419
57.1463
57.151
57.1562
57.1617
57.1678
57.1744
57.1814
57.189
57.1971
57.2059
57.2152
57.2252
57.2358
57.2471
57.2591
57.2719
57.2854
57.2998
57.315
57.331
57.3479
57.3658
57.3846
57.4043
57.4251
57.4469
57.4697
57.4937
57.5187
57.5449
57.5722
57.6007
57.6303
57.6612
57.6933
57.7266
57.7612
57.797
57.8341
57.8724
57.912
57.9528
57.9949
58.0382
58.0827
58.1285
58.1754
58.2235
58.2727
58.323
58.3744
58.4269
58.4803
58.5347
58.59
58.6461
58.7031
58.7608
58.8191
58.8781
58.9377
58.9978
59.0582
59.1191
59.1802
59.2416
59.303
59.3646
59.4261
59.4875
59.5488
59.6098
59.6705
59.7308
59.7907
59.8499
59.9086
59.9666
60.0239
60.0803
60.1359
60.1905
60.2441
60.2967
60.3481
60.3984
60.4475
60.4954
60.5419
60.5872
60.6311
60.6736
60.7148
60.7545
60.7928
60.8296
60.865
60.8989
60.9313
60.9623
60.9919
61.0199
61.0466
61.0718
61.0956
61.1179
61.139
61.1586
61.177
61.194
61.2098
61.2244
61.2377
61.2498
61.2609
61.2708
61.2796
61.2874
61.2942
61.3001
61.305
61.309
61.3122
61.3145
61.3161
61.3169
61.3171
61.3165
61.3153
61.3135
61.3111
61.3082
61.3047
61.3008
61.2964
61.2916
61.2863
61.2807
61.2748
61.2684
61.2618
61.2549
61.2477
61.2403
61.2326
61.2247
61.2166
61.2083
61.1998
61.1912
61.1824
61.1735
61.1644
61.1553
61.146
61.1366
61.1272
61.1176
61.108
61.0983
61.0886
61.0788
61.0689
61.059
61.049
61.039
61.029
61.0189
61.0088
60.9987
60.9886
60.9784
60.9682
60.958
60.9478
60.9375
60.9273
60.917
60.9067
60.8964
60.8861
60.8758
60.8654
60.8551
60.8447
60.8344
60.824
60.8137
60.8033
60.7929
60.7825
60.7721
60.7617
60.7513
60.7409
60.7305
60.7201
60.7097
60.6992
60.6888
60.6784
60.6679
60.6575
60.647
60.6366
60.6261
60.6157
60.6052
60.5947
60.5842
60.5738
60.5633
60.5528
60.5423
60.5318
60.5213
60.5108
60.5002
60.4897
60.4792
60.4687
60.4581
60.4476
60.437
60.4265
60.4159
60.4054
60.3948
60.3842
60.3737
60.3631
60.3525
60.3419
60.3313
60.3207
60.3101
60.2995
60.2889
60.2782
60.2676
60.257
60.2463
60.2357
60.225
60.2144
60.2037
60.193
60.1824
60.1717
60.161
60.1503
60.1396
60.1289
60.1182
60.1075
60.0967
60.086
60.0753
60.0645
60.0538
60.043
60.0323
60.0215
60.0107
59.9999
59.9891
59.9784
59.9675
59.9567
59.9459
59.9351
59.9243
59.9134
59.9026
59.8917
59.8809
59.87
59.8592
59.8483
59.8374
59.8265
59.8156
59.8047
59.7938
59.7829
59.7719
59.761
59.75
59.7391
59.7281
59.7173
59.7173
57.773
57.773
57.5618
57.5111
57.488
57.4723
57.4597
57.4486
57.4385
57.429
57.4203
57.4125
57.4054
57.399
57.3929
57.3871
57.3814
57.3758
57.3704
57.365
57.3596
57.3543
57.3489
57.3436
57.3383
57.3331
57.3278
57.3226
57.3175
57.3124
57.3073
57.3023
57.2973
57.2923
57.2875
57.2826
57.2778
57.2731
57.2684
57.2637
57.2591
57.2546
57.2501
57.2456
57.2412
57.2369
57.2326
57.2283
57.2242
57.22
57.2159
57.2119
57.208
57.2041
57.2002
57.1964
57.1927
57.189
57.1854
57.1819
57.1784
57.175
57.1717
57.1684
57.1652
57.1621
57.159
57.156
57.1531
57.1503
57.1476
57.1449
57.1424
57.1399
57.1375
57.1352
57.133
57.1309
57.1289
57.127
57.1253
57.1236
57.1221
57.1206
57.1194
57.1182
57.1172
57.1163
57.1156
57.115
57.1146
57.1144
57.1143
57.1145
57.1148
57.1153
57.1161
57.1171
57.1183
57.1197
57.1215
57.1234
57.1257
57.1283
57.1312
57.1344
57.138
57.142
57.1463
57.151
57.1562
57.1618
57.1678
57.1744
57.1814
57.189
57.1971
57.2059
57.2152
57.2252
57.2358
57.2471
57.2591
57.2719
57.2855
57.2998
57.315
57.331
57.3479
57.3658
57.3846
57.4043
57.4251
57.4469
57.4698
57.4937
57.5187
57.5449
57.5722