# vtk DataFile Version 2.0
FlowField
ASCII
DATASET STRUCTURED_GRID
DIMENSIONS 400 1 200
POINTS 80000 float
0 0 0
0.08 0 0
0.16 0 0
0.24 0 0
0.32 0 0
0.4 0 0
0.48 0 0
0.56 0 0
0.64 0 0
0.72 0 0
0.8 0 0
0.88 0 0
0.96 0 0
1.04 0 0
1.12 0 0
1.2 0 0
1.28 0 0
1.36 0 0
1.44 0 0
1.52 0 0
1.6 0 0
1.68 0 0
1.76 0 0
1.84 0 0
1.92 0 0
2 0 0
2.08 0 0
2.16 0 0
2.24 0 0
2.32 0 0
2.4 0 0
2.48 0 0
2.56 0 0
2.64 0 0
2.72 0 0
2.8 0 0
2.88 0 0
2.96 0 0
3.04 0 0
3.12 0 0
3.2 0 0
3.28 0 0
3.36 0 0
3.44 0 0
3.52 0 0
3.6 0 0
3.68 0 0
3.76 0 0
3.84 0 0
3.92 0 0
4 0 0
4.08 0 0
4.16 0 0
4.24 0 0
4.32 0 0
4.4 0 0
4.48 0 0
4.56 0 0
4.64 0 0
4.72 0 0
4.8 0 0
4.88 0 0
4.96 0 0
5.04 0 0
5.12 0 0
5.2 0 0
5.28 0 0
5.36 0 0
5.44 0 0
5.52 0 0
5.6 0 0
5.68 0 0
5.76 0 0
5.84 0 0
5.92 0 0
6 0 0
6.08 0 0
6.16 0 0
6.24 0 0
6.32 0 0
6.4 0 0
6.48 0 0
6.56 0 0
6.64 0 0
6.72 0 0
6.8 0 0
6.88 0 0
6.96 0 0
7.04 0 0
7.12 0 0
7.2 0 0
7.28 0 0
7.36 0 0
7.44 0 0
7.52 0 0
7.6 0 0
7.68 0 0
7.76 0 0
7.84 0 0
7.92 0 0
8 0 0
8.08 0 0
8.16 0 0
8.24 0 0
8.32 0 0
8.4 0 0
8.48 0 0
8.56 0 0
8.64 0 0
8.72 0 0
8.8 0 0
8.88 0 0
8.96 0 0
9.04 0 0
9.12 0 0
9.2 0 0
9.28 0 0
9.36 0 0
9.44 0 0
9.52 0 0
9.6 0 0
9.68 0 0
9.76 0 0
9.84 0 0
9.92 0 0
10 0 0
10.08 0 0
10.16 0 0
10.24 0 0
10.32 0 0
10.4 0 0
10.48 0 0
10.56 0 0
10.64 0 0
10.72 0 0
10.8 0 0
10.88 0 0
10.96 0 0
11.04 0 0
11.12 0 0
11.2 0 0
11.28 0 0
11.36 0 0
11.44 0 0
11.52 0 0
11.6 0 0
11.68 0 0
11.76 0 0
11.84 0 0
11.92 0 0
12 0 0
12.08 0 0
12.16 0 0
12.24 0 0
12.32 0 0
12.4 0 0
12.48 0 0
12.56 0 0
12.64 0 0
12.72 0 0
12.8 0 0
12.88 0 0
12.96 0 0
13.04 0 0
13.12 0 0
13.2 0 0
13.28 0 0
13.36 0 0
13.44 0 0
13.52 0 0
13.6 0 0
13.68 0 0
13.76 0 0
13.84 0 0
13.92 0 0
14 0 0
14.08 0 0
14.16 0 0
14.24 0 0
14.32 0 0
14.4 0 0
14.48 0 0
14.56 0 0
14.64 0 0
14.72 0 0
14.8 0 0
14.88 0 0
14.96 0 0
15.04 0 0
15.12 0 0
15.2 0 0
15.28 0 0
15.36 0 0
15.44 0 0
15.52 0 0
15.6 0 0
15.68 0 0
15.76 0 0
15.84 0 0
15.92 0 0
16 0 0
16.08 0 0
16.16 0 0
16.24 0 0
16.32 0 0
16.4 0 0
16.48 0 0
16.56 0 0
16.64 0 0
16.72 0 0
16.8 0 0
16.88 0 0
16.96 0 0
17.04 0 0
17.12 0 0
17.2 0 0
17.28 0 0
17.36 0 0
17.44 0 0
17.52 0 0
17.6 0 0
17.68 0 0
17.76 0 0
17.84 0 0
17.92 0 0
18 0 0
18.08 0 0
18.16 0 0
18.24 0 0
18.32 0 0
18.4 0 0
18.48 0 0
18.56 0 0
18.64 0 0
18.72 0 0
18.8 0 0
18.88 0 0
18.96 0 0
19.04 0 0
19.12 0 0
19.2 0 0
19.28 0 0
19.36 0 0
19.44 0 0
19.52 0 0
19.6 0 0
19.68 0 0
19.76 0 0
19.84 0 0
19.92 0 0
20 0 0
20.08 0 0
20.16 0 0
20.24 0 0
20.32 0 0
20.4 0 0
20.48 0 0
20.56 0 0
20.64 0 0
20.72 0 0
20.8 0 0
20.88 0 0
20.96 0 0
21.04 0 0
21.12 0 0
21.2 0 0
21.28 0 0
21.36 0 0
21.44 0 0
21.52 0 0
21.6 0 0
21.68 0 0
21.76 0 0
21.84 0 0
21.92 0 0
22 0 0
22.08 0 0
22.16 0 0
22.24 0 0
22.32 0 0
22.4 0 0
22.48 0 0
22.56 0 0
22.64 0 0
22.72 0 0
22.8 0 0
22.88 0 0
22.96 0 0
23.04 0 0
23.12 0 0
23.2 0 0
23.28 0 0
23.36 0 0
23.44 0 0
23.52 0 0
23.6 0 0
23.68 0 0
23.76 0 0
23.84 0 0
23.92 0 0
24 0 0
24.08 0 0
24.16 0 0
24.24 0 0
24.32 0 0
24.4 0 0
24.48 0 0
24.56 0 0
24.64 0 0
24.72 0 0
24.8 0 0
24.88 0 0
24.96 0 0
25.04 0 0
25.12 0 0
25.2 0 0
25.28 0 0
25.36 0 0
25.44 0 0
25.52 0 0
25.6 0 0
25.68 0 0
25.76 0 0
25.84 0 0
25.92 0 0
26 0 0
26.08 0 0
26.16 0 0
26.24 0 0
26.32 0 0
26.4 0 0
26.48 0 0
26.56 0 0
26.64 0 0
26.72 0 0
26.8 0 0
26.88 0 0
26.96 0 0
27.04 0 0
27.12 0 0
27.2 0 0
27.28 0 0
27.36 0 0
27.44 0 0
27.52 0 0
27.6 0 0
27.68 0 0
27.76 0 0
27.84 0 0
27.92 0 0
28 0 0
28.08 0 0
28.16 0 0
28.24 0 0
28.32 0 0
28.4 0 0
28.48 0 0
28.56 0 0
28.64 0 0
28.72 0 0
28.8 0 0
28.88 0 0
28.96 0 0
29.04 0 0
29.12 0 0
29.2 0 0
29.28 0 0
29.36 0 0
29.44 0 0
29.52 0 0
29.6 0 0
29.68 0 0
29.76 0 0
29.84 0 0
29.92 0 0
30 0 0
30.08 0 0
30.16 0 0
30.24 0 0
30.32 0 0
30.4 0 0
30.48 0 0
30.56 0 0
30.64 0 0
30.72 0 0
30.8 0 0
30.88 0 0
30.96 0 0
31.04 0 0
31.12 0 0
31.2 0 0
31.28 0 0
31.36 0 0
31.44 0 0
31.52 0 0
31.6 0 0
31.68 0 0
31.76 0 0
31.84 0 0
31.92 0 0
0 0.005 0
0.08 0.005 0
0.16 0.005 0
0.24 0.005 0
0.32 0.005 0
0.4 0.005 0
0.48 0.005 0
0.56 0.005 0
0.64 0.005 0
0.72 0.005 0
0.8 0.005 0
0.88 0.005 0
0.96 0.005 0
1.04 0.005 0
1.12 0.005 0
1.2 0.005 0
1.28 0.005 0
1.36 0.005 0
1.44 0.005 0
1.52 0.005 0
1.6 0.005 0
1.68 0.005 0
1.76 0.005 0
1.84 0.005 0
1.92 0.005 0
2 0.005 0
2.08 0.005 0
2.16 0.005 0
2.24 0.005 0
2.32 0.005 0
2.4 0.005 0
2.48 0.005 0
2.56 0.005 0
2.64 0.005 0
2.72 0.005 0
2.8 0.005 0
2.88 0.005 0
2.96 0.005 0
3.04 0.005 0
3.12 0.005 0
3.2 0.005 0
3.28 0.005 0
3.36 0.005 0
3.44 0.005 0
3.52 0.005 0
3.6 0.005 0
3.68 0.005 0
3.76 0.005 0
3.84 0.005 0
3.92 0.005 0
4 0.005 0
4.08 0.005 0
4.16 0.005 0
4.24 0.005 0
4.32 0.005 0
4.4 0.005 0
4.48 0.005 0
4.56 0.005 0
4.64 0.005 0
4.72 0.005 0
4.8 0.005 0
4.88 0.005 0
4.96 0.005 0
5.04 0.005 0
5.12 0.005 0
5.2 0.005 0
5.28 0.005 0
5.36 0.005 0
5.44 0.005 0
5.52 0.005 0
5.6 0.005 0
5.68 0.005 0
5.76 0.005 0
5.84 0.005 0
5.92 0.005 0
6 0.005 0
6.08 0.005 0
6.16 0.005 0
6.24 0.005 0
6.32 0.005 0
6.4 0.005 0
6.48 0.005 0
6.56 0.005 0
6.64 0.005 0
6.72 0.005 0
6.8 0.005 0
6.88 0.005 0
6.96 0.005 0
7.04 0.005 0
7.12 0.005 0
7.2 0.005 0
7.28 0.005 0
7.36 0.005 0
7.44 0.005 0
7.52 0.005 0
7.6 0.005 0
7.68 0.005 0
7.76 0.005 0
7.84 0.005 0
7.92 0.005 0
8 0.005 0
8.08 0.005 0
8.16 0.005 0
8.24 0.005 0
8.32 0.005 0
8.4 0.005 0
8.48 0.005 0
8.56 0.005 0
8.64 0.005 0
8.72 0.005 0
8.8 0.005 0
8.88 0.005 0
8.96 0.005 0
9.04 0.005 0
9.12 0.005 0
9.2 0.005 0
9.28 0.005 0
9.36 0.005 0
9.44 0.005 0
9.52 0.005 0
9.6 0.005 0
9.68 0.005 0
9.76 0.005 0
9.84 0.005 0
9.92 0.005 0
10 0.005 0
10.08 0.005 0
10.16 0.005 0
10.24 0.005 0
10.32 0.005 0
10.4 0.005 0
10.48 0.005 0
10.56 0.005 0
10.64 0.005 0
10.72 0.005 0
10.8 0.005 0
10.88 0.005 0
10.96 0.005 0
11.04 0.005 0
11.12 0.005 0
11.2 0.005 0
11.28 0.005 0
11.36 0.005 0
11.44 0.005 0
11.52 0.005 0
11.6 0.005 0
11.68 0.005 0
11.76 0.005 0
11.84 0.005 0
11.92 0.005 0
12 0.005 0
12.08 0.005 0
12.16 0.005 0
12.24 0.005 0
12.32 0.005 0
12.4 0.005 0
12.48 0.005 0
12.56 0.005 0
12.64 0.005 0
12.72 0.005 0
12.8 0.005 0
12.88 0.005 0
12.96 0.005 0
13.04 0.005 0
13.12 0.005 0
13.2 0.005 0
13.28 0.005 0
13.36 0.005 0
13.44 0.005 0
13.52 0.005 0
13.6 0.005 0
13.68 0.005 0
13.76 0.005 0
13.84 0.005 0
13.92 0.005 0
14 0.005 0
14.08 0.005 0
14.16 0.005 0
14.24 0.005 0
14.32 0.005 0
14.4 0.005 0
14.48 0.005 0
14.56 0.005 0
14.64 0.005 0
14.72 0.005 0
14.8 0.005 0
14.88 0.005 0
14.96 0.005 0
15.04 0.005 0
15.12 0.005 0
15.2 0.005 0
15.28 0.005 0
15.36 0.005 0
15.44 0.005 0
15.52 0.005 0
15.6 0.005 0
15.68 0.005 0
15.76 0.005 0
15.84 0.005 0
15.92 0.005 0
16 0.005 0
16.08 0.005 0
16.16 0.005 0
16.24 0.005 0
16.32 0.005 0
16.4 0.005 0
16.48 0.005 0
16.56 0.005 0
16.64 0.005 0
16.72 0.005 0
16.8 0.005 0
16.88 0.005 0
16.96 0.005 0
17.04 0.005 0
17.12 0.005 0
17.2 0.005 0
17.28 0.005 0
17.36 0.005 0
17.44 0.005 0
17.52 0.005 0
17.6 0.005 0
17.68 0.005 0
17.76 0.005 0
17.84 0.005 0
17.92 0.005 0
18 0.005 0
18.08 0.005 0
18.16 0.005 0
18.24 0.005 0
18.32 0.005 0
18.4 0.005 0
18.48 0.005 0
18.56 0.005 0
18.64 0.005 0
18.72 0.005 0
18.8 0.005 0
18.88 0.005 0
18.96 0.005 0
19.04 0.005 0
19.12 0.005 0
19.2 0.005 0
19.28 0.005 0
19.36 0.005 0
19.44 0.005 0
19.52 0.005 0
19.6 0.005 0
19.68 0.005 0
19.76 0.005 0
19.84 0.005 0
19.92 0.005 0
20 0.005 0
20.08 0.005 0
20.16 0.005 0
20.24 0.005 0
20.32 0.005 0
20.4 0.005 0
20.48 0.005 0
20.56 0.005 0
20.64 0.005 0
20.72 0.005 0
20.8 0.005 0
20.88 0.005 0
20.96 0.005 0
21.04 0.005 0
21.12 0.005 0
21.2 0.005 0
21.28 0.005 0
21.36 0.005 0
21.44 0.005 0
21.52 0.005 0
21.6 0.005 0
21.68 0.005 0
21.76 0.005 0
21.84 0.005 0
21.92 0.005 0
22 0.005 0
22.08 0.005 0
22.16 0.005 0
22.24 0.005 0
22.32 0.005 0
22.4 0.005 0
22.48 0.005 0
22.56 0.005 0
22.64 0.005 0
22.72 0.005 0
22.8 0.005 0
22.88 0.005 0
22.96 0.005 0
23.04 0.005 0
23.12 0.005 0
23.2 0.005 0
23.28 0.005 0
23.36 0.005 0
23.44 0.005 0
23.52 0.005 0
23.6 0.005 0
23.68 0.005 0
23.76 0.005 0
23.84 0.005 0
23.92 0.005 0
24 0.005 0
24.08 0.005 0
24.16 0.005 0
24.24 0.005 0
24.32 0.005 0
24.4 0.005 0
24.48 0.005 0
24.56 0.005 0
24.64 0.005 0
24.72 0.005 0
24.8 0.005 0
24.88 0.005 0
24.96 0.005 0
25.04 0.005 0
25.12 0.005 0
25.2 0.005 0
25.28 0.005 0
25.36 0.005 0
25.44 0.005 0
25.52 0.005 0
25.6 0.005 0
25.68 0.005 0
25.76 0.005 0
25.84 0.005 0
25.92 0.005 0
26 0.005 0
26.08 0.005 0
26.16 0.005 0
26.24 0.005 0
26.32 0.005 0
26.4 0.005 0
26.48 0.005 0
26.56 0.005 0
26.64 0.005 0
26.72 0.005 0
26.8 0.005 0
26.88 0.005 0
26.96 0.005 0
27.04 0.005 0
27.12 0.005 0
27.2 0.005 0
27.28 0.005 0
27.36 0.005 0
27.44 0.005 0
27.52 0.005 0
27.6 0.005 0
27.68 0.005 0
27.76 0.005 0
27.84 0.005 0
27.92 0.005 0
28 0.005 0
28.08 0.005 0
28.16 0.005 0
28.24 0.005 0
28.32 0.005 0
28.4 0.005 0
28.48 0.005 0
28.56 0.005 0
28.64 0.005 0
28.72 0.005 0
28.8 0.005 0
28.88 0.005 0
28.96 0.005 0
29.04 0.005 0
29.12 0.005 0
29.2 0.005 0
29.28 0.005 0
29.36 0.005 0
29.44 0.005 0
29.52 0.005 0
29.6 0.005 0
29.68 0.005 0
29.76 0.005 0
29.84 0.005 0
29.92 0.005 0
30 0.005 0
30.08 0.005 0
30.16 0.005 0
30.24 0.005 0
30.32 0.005 0
30.4 0.005 0
30.48 0.005 0
30.56 0.005 0
30.64 0.005 0
30.72 0.005 0
30.8 0.005 0
30.88 0.005 0
30.96 0.005 0
31.04 0.005 0
31.12 0.005 0
31.2 0.005 0
31.28 0.005 0
31.36 0.005 0
31.44 0.005 0
31.52 0.005 0
31.6 0.005 0
31.68 0.005 0
31.76 0.005 0
31.84 0.005 0
31.92 0.005 0
0 0.01 0
0.08 0.01 0
0.16 0.01 0
0.24 0.01 0
0.32 0.01 0
0.4 0.01 0
0.48 0.01 0
0.56 0.01 0
0.64 0.01 0
0.72 0.01 0
0.8 0.01 0
0.88 0.01 0
0.96 0.01 0
1.04 0.01 0
1.12 0.01 0
1.2 0.01 0
1.28 0.01 0
1.36 0.01 0
1.44 0.01 0
1.52 0.01 0
1.6 0.01 0
1.68 0.01 0
1.76 0.01 0
1.84 0.01 0
1.92 0.01 0
2 0.01 0
2.08 0.01 0
2.16 0.01 0
2.24 0.01 0
2.32 0.01 0
2.4 0.01 0
2.48 0.01 0
2.56 0.01 0
2.64 0.01 0
2.72 0.01 0
2.8 0.01 0
2.88 0.01 0
2.96 0.01 0
3.04 0.01 0
3.12 0.01 0
3.2 0.01 0
3.28 0.01 0
3.36 0.01 0
3.44 0.01 0
3.52 0.01 0
3.6 0.01 0
3.68 0.01 0
3.76 0.01 0
3.84 0.01 0
3.92 0.01 0
4 0.01 0
4.08 0.01 0
4.16 0.01 0
4.24 0.01 0
4.32 0.01 0
4.4 0.01 0
4.48 0.01 0
4.56 0.01 0
4.64 0.01 0
4.72 0.01 0
4.8 0.01 0
4.88 0.01 0
4.96 0.01 0
5.04 0.01 0
5.12 0.01 0
[...]
POINT_DATA 80000

SCALARS u float 1
LOOKUP_TABLE default
0
-0.132225
-0.069152
-0.053443
-0.0458538
-0.0413216
-0.0382989
-0.0361643
-0.0346846
-0.0337592
-0.033283
-0.0331242
-0.0331589
-0.0332983
-0.0334894
-0.0337036
-0.0339251
-0.0341454
-0.03436
-0.0345674
-0.0347673
-0.0349607
-0.0351484
-0.0353313
-0.03551
-0.0356849
-0.0358562
-0.036024
-0.0361883
-0.036349
-0.0365062
-0.0366596
-0.0368092
-0.0369548
-0.0370965
-0.037234
-0.0373673
-0.0374964
-0.0376211
-0.0377414
-0.0378573
-0.0379687
-0.0380756
-0.0381779
-0.0382757
-0.038369
-0.0384577
-0.038542
-0.0386218
-0.0386972
-0.0387683
-0.0388351
-0.0388977
-0.0389563
-0.0390108
-0.0390615
-0.0391083
-0.0391515
-0.0391912
-0.0392274
-0.0392604
-0.0392902
-0.039317
-0.0393409
-0.0393621
-0.0393807
-0.0393969
-0.0394107
-0.0394224
-0.039432
-0.0394397
-0.0394457
-0.03945
-0.0394527
-0.0394541
-0.0394541
-0.039453
-0.0394508
-0.0394476
-0.0394436
-0.0394388
-0.0394333
-0.0394272
-0.0394205
-0.0394134
-0.0394059
-0.0393981
-0.03939
-0.0393817
-0.0393732
-0.0393647
-0.039356
-0.0393474
-0.0393388
-0.0393302
-0.0393216
-0.0393132
-0.0393049
-0.0392968
-0.0392888
-0.0392811
-0.0392735
-0.0392661
-0.039259
-0.0392521
-0.0392455
-0.0392391
-0.039233
-0.0392271
-0.0392216
-0.0392162
-0.0392112
-0.0392065
-0.039202
-0.0391978
-0.0391939
-0.0391902
-0.0391869
-0.0391838
-0.039181
-0.0391784
-0.0391761
-0.0391741
-0.0391724
-0.0391709
-0.0391697
-0.0391687
-0.039168
-0.0391675
-0.0391673
-0.0391673
-0.0391676
-0.039168
-0.0391688
-0.0391697
-0.0391709
-0.0391723
-0.039174
-0.0391758
-0.0391779
-0.0391802
-0.0391827
-0.0391854
-0.0391883
-0.0391914
-0.0391947
-0.0391983
-0.039202
-0.0392059
-0.03921
-0.0392142
-0.0392187
-0.0392234
-0.0392282
-0.0392332
-0.0392384
-0.0392438
-0.0392493
-0.0392551
-0.039261
-0.039267
-0.0392733
-0.0392797
-0.0392862
-0.0392929
-0.0392998
-0.0393069
-0.0393141
-0.0393214
-0.0393289
-0.0393366
-0.0393444
-0.0393524
-0.0393605
-0.0393688
-0.0393772
-0.0393858
-0.0393945
-0.0394033
-0.0394123
-0.0394215
-0.0394308
-0.0394402
-0.0394498
-0.0394594
-0.0394693
-0.0394793
-0.0394894
-0.0394996
-0.03951
-0.0395205
-0.0395311
-0.0395419
-0.0395528
-0.0395638
-0.039575
-0.0395863
-0.0395977
-0.0396092
-0.0396209
-0.0396327
-0.0396446
-0.0396566
-0.0396688
-0.039681
-0.0396934
-0.039706
-0.0397186
-0.0397314
-0.0397443
-0.0397573
-0.0397704
-0.0397836
-0.039797
-0.0398105
-0.0398241
-0.0398378
-0.0398516
-0.0398655
-0.0398796
-0.0398938
-0.039908
-0.0399224
-0.039937
-0.0399516
-0.0399663
-0.0399812
-0.0399961
-0.0400112
-0.0400264
-0.0400417
-0.0400571
-0.0400726
-0.0400883
-0.040104
-0.0401198
-0.0401358
-0.0401519
-0.0401681
-0.0401844
-0.0402008
-0.0402173
-0.0402339
-0.0402506
-0.0402674
-0.0402844
-0.0403014
-0.0403186
-0.0403358
-0.0403532
-0.0403707
-0.0403883
-0.040406
-0.0404238
-0.0404417
-0.0404597
-0.0404778
-0.0404961
-0.0405144
-0.0405328
-0.0405514
-0.0405701
-0.0405888
-0.0406077
-0.0406267
-0.0406457
-0.0406649
-0.0406842
-0.0407036
-0.0407232
-0.0407428
-0.0407625
-0.0407823
-0.0408023
-0.0408223
-0.0408425
-0.0408627
-0.0408831
-0.0409036
-0.0409241
-0.0409448
-0.0409656
-0.0409865
-0.0410075
-0.0410286
-0.0410499
-0.0410712
-0.0410926
-0.0411142
-0.0411358
-0.0411576
-0.0411795
-0.0412015
-0.0412236
-0.0412458
-0.0412681
-0.0412905
-0.041313
-0.0413357
-0.0413584
-0.0413813
-0.0414042
-0.0414273
-0.0414505
-0.0414738
-0.0414972
-0.0415207
-0.0415444
-0.0415681
-0.041592
-0.0416159
-0.04164
-0.0416642
-0.0416885
-0.041713
-0.0417375
-0.0417621
-0.0417869
-0.0418118
-0.0418368
-0.0418619
-0.0418871
-0.0419125
-0.0419379
-0.0419635
-0.0419892
-0.042015
-0.0420409
-0.042067
-0.0420931
-0.0421194
-0.0421458
-0.0421723
-0.042199
-0.0422257
-0.0422526
-0.0422796
-0.0423067
-0.042334
-0.0423613
-0.0423888
-0.0424164
-0.0424442
-0.042472
-0.0425
-0.0425281
-0.0425564
-0.0425847
-0.0426132
-0.0426418
-0.0426706
-0.0426994
-0.0427284
-0.0427576
-0.0427868
-0.0428162
-0.0428457
-0.0428754
-0.0429051
-0.0429351
-0.0429651
-0.0429953
-0.0430256
-0.043056
-0.0430866
-0.0431174
-0.0431482
-0.0431792
-0.0432103
-0.0432416
-0.043273
-0.0433046
-0.0433363
-0.0433681
-0.0434001
-0.0434322
-0.0434644
-0.0434969
-0.0435294
-0.0435621
-0.0435949
-0.0436279
-0.0436611
-0.0436944
-0.0437278
-0.0437614
-0.0437952
-0.0438291
-0.0438632
-0.0438977
-0.0439314
-0.0439684
-0.0439977
-0.0440449
-0.0440606
-0.044124
-0.0441392
-0.0441631
-0.0441631
-0.0441631
1
0.132225
0.069152
0.053443
0.0458538
0.0413216
0.0382989
0.0361643
0.0346846
0.0337592
0.033283
0.0331242
0.0331589
0.0332983
0.0334894
0.0337036
0.0339251
0.0341454
0.03436
0.0345674
0.0347673
0.0349607
0.0351484
0.0353313
0.03551
0.0356849
0.0358562
0.036024
0.0361883
0.036349
0.0365062
0.0366596
0.0368092
0.0369548
0.0370965
0.037234
0.0373673
0.0374964
0.0376211
0.0377414
0.0378573
0.0379687
0.0380756
0.0381779
0.0382757
0.038369
0.0384577
0.038542
0.0386218
0.0386972
0.0387683
0.0388351
0.0388977
0.0389563
0.0390108
0.0390615
0.0391083
0.0391515
0.0391912
0.0392274
0.0392604
0.0392902
0.039317
0.0393409
0.0393621
0.0393807
0.0393969
0.0394107
0.0394224
0.039432
0.0394397
0.0394457
0.03945
0.0394527
0.0394541
0.0394541
0.039453
0.0394508
0.0394476
0.0394436
0.0394388
0.0394333
0.0394272
0.0394205
0.0394134
0.0394059
0.0393981
0.03939
0.0393817
0.0393732
0.0393647
0.039356
0.0393474
0.0393388
0.0393302
0.0393216
0.0393132
0.0393049
0.0392968
0.0392888
0.0392811
0.0392735
0.0392661
0.039259
0.0392521
0.0392455
0.0392391
0.039233
0.0392271
0.0392216
0.0392162
0.0392112
0.0392065
0.039202
0.0391978
0.0391939
0.0391902
0.0391869
0.0391838
0.039181
0.0391784
0.0391761
0.0391741
0.0391724
0.0391709
0.0391697
0.0391687
0.039168
0.0391675
0.0391673
0.0391673
0.0391676
0.039168
0.0391688
0.0391697
0.0391709
0.0391723
0.039174
0.0391758
0.0391779
0.0391802
0.0391827
0.0391854
0.0391883
0.0391914
0.0391947
0.0391983
0.039202
0.0392059
0.03921
0.0392142
0.0392187
0.0392234
0.0392282
0.0392332
0.0392384
0.0392438
0.0392493
0.0392551
0.039261
0.039267
0.0392733
0.0392797
0.0392862
0.0392929
0.0392998
0.0393069
0.0393141
0.0393214
0.0393289
0.0393366
0.0393444
0.0393524
0.0393605
0.0393688
0.0393772
0.0393858
0.0393945
0.0394033
0.0394123
0.0394215
0.0394308
0.0394402
0.0394498
0.0394594
0.0394693
0.0394793
0.0394894
0.0394996
0.03951
0.0395205
0.0395311
0.0395419
0.0395528
0.0395638
0.039575
0.0395863
0.0395977
0.0396092
0.0396209
0.0396327
0.0396446
0.0396566
0.0396688
0.039681
0.0396934
0.039706
0.0397186
0.0397314
0.0397443
0.0397573
0.0397704
0.0397836
0.039797
0.0398105
0.0398241
0.0398378
0.0398516
0.0398655
0.0398796
0.0398938
0.039908
0.0399224
0.039937
0.0399516
0.0399663
0.0399812
0.0399961
0.0400112
0.0400264
0.0400417
0.0400571
0.0400726
0.0400883
0.040104
0.0401198
0.0401358
0.0401519
0.0401681
0.0401844
0.0402008
0.0402173
0.0402339
0.0402506
0.0402674
0.0402844
0.0403014
0.0403186
0.0403358
0.0403532
0.0403707
0.0403883
0.040406
0.0404238
0.0404417
0.0404597
0.0404778
0.0404961
0.0405144
0.0405328
0.0405514
0.0405701
0.0405888
0.0406077
0.0406267
0.0406457
0.0406649
0.0406842
0.0407036
0.0407232
0.0407428
0.0407625
0.0407823
0.0408023
0.0408223
0.0408425
0.0408627
0.0408831
0.0409036
0.0409241
0.0409448
0.0409656
0.0409865
0.0410075
0.0410286
0.0410499
0.0410712
0.0410926
0.0411142
0.0411358
0.0411576
0.0411795
0.0412015
0.0412236
0.0412458
0.0412681
0.0412905
0.041313
0.0413357
0.0413584
0.0413813
0.0414042
0.0414273
0.0414505
0.0414738
0.0414972
0.0415207
0.0415444
0.0415681
0.041592
0.0416159
0.04164
0.0416642
0.0416885
0.041713
0.0417375
0.0417621
0.0417869
0.0418118
0.0418368
0.0418619
0.0418871
0.0419125
0.0419379
0.0419635
0.0419892
0.042015
0.0420409
0.042067
0.0420931
0.0421194
0.0421458
0.0421723
0.042199
0.0422257
0.0422526
0.0422796
0.0423067
0.042334
0.0423613
0.0423888
0.0424164
0.0424442
0.042472
0.0425
0.0425281
0.0425564
0.0425847
0.0426132
0.0426418
0.0426706
0.0426994
0.0427284
0.0427576
0.0427868
0.0428162
0.0428457
0.0428754
0.0429051
0.0429351
0.0429651
0.0429953
0.0430256
0.043056
0.0430866
0.0431174
0.0431482
0.0431792
0.0432103
0.0432416
0.043273
0.0433046
0.0433363
0.0433681
0.0434001
0.0434322
0.0434644
0.0434969
0.0435294
0.0435621
0.0435949
0.0436279
0.0436611
0.0436944
0.0437278
0.0437614
0.0437952
0.0438291
0.0438632
0.0438977
0.0439314
0.0439684
0.0439977
0.0440449
0.0440606
0.044124
0.0441392
0.0441631
0.0441631
0.0441631
1
0.346317
0.203126
0.158311
0.136196
0.122917
0.114057
0.107839
0.103587
0.100983
0.099694
0.0993212
0.0995038
0.099986
0.100615
0.101307
0.102015
0.102714
0.103392
0.104043
0.104667
0.105267
0.105844
0.106402
0.106942
0.107464
0.107971
0.108462
0.108937
0.109396
0.10984
0.110268
0.110681
0.111077
0.111459
0.111824
0.112175
0.112509
0.112829
0.113134
0.113423
0.113698
0.113959
0.114205
0.114437
0.114656
0.114862
0.115054
0.115234
0.115402
0.115557
0.115702
0.115835
0.115957
0.116069
0.116172
0.116265
0.116349
0.116424
0.116492
0.116551
0.116603
0.116649
0.116688
0.116721
0.116748
0.11677
0.116787
0.116799
0.116807
0.116811
0.116812
0.116809
0.116804
0.116795
0.116785
0.116772
0.116757
0.11674
0.116722
0.116703
0.116683
0.116661
0.116639
0.116617
0.116594
0.11657
0.116547
0.116523
0.116499
0.116476
0.116453
0.11643
0.116407
0.116385
0.116363
0.116342
0.116321
0.116301
0.116281
0.116262
0.116244
0.116227
0.11621
0.116194
0.116179
0.116165
0.116151
0.116138
0.116126
0.116115
0.116104
0.116095
0.116086
0.116078
0.11607
0.116064
0.116058
0.116053
0.116048
0.116045
0.116042
0.11604
0.116039
0.116038
0.116038
0.116039
0.11604
0.116042
0.116045
0.116048
0.116052
0.116057
0.116062
0.116068
0.116075
0.116082
0.11609
0.116098
0.116107
0.116117
0.116127
0.116138
0.116149
0.116161
0.116174
0.116186
0.1162
0.116214
0.116229
0.116244
0.116259
0.116275
0.116292
0.116309
0.116327
0.116345
0.116363
0.116382
0.116402
0.116422
0.116442
0.116463
0.116484
0.116506
0.116528
0.116551
0.116574
0.116598
0.116622
0.116646
0.116671
0.116697
0.116722
0.116748
0.116775
0.116802
0.116829
0.116857
0.116885
0.116914
0.116943
0.116972
0.117002
0.117032
0.117062
0.117093
0.117124
0.117156
0.117188
0.117221
0.117253
0.117286
0.11732
0.117354
0.117388
0.117423
0.117458
0.117493
0.117529
0.117565
0.117601
0.117638
0.117675
0.117712
0.11775
0.117788
0.117826
0.117865
0.117904
0.117944
0.117984
0.118024
0.118064
0.118105
0.118146
0.118188
0.118229
0.118271
0.118314
0.118357
0.1184
0.118443
0.118487
0.118531
0.118575
0.11862
0.118665
0.118711
0.118756
0.118802
0.118849
0.118895
0.118942
0.118989
0.119037
0.119085
0.119133
0.119182
0.11923
0.11928
0.119329
0.119379
0.119429
0.119479
0.11953
0.119581
0.119632
0.119684
0.119736
0.119788
0.119841
0.119893
0.119947
0.12
0.120054
0.120108
0.120162
0.120217
0.120272
0.120327
0.120383
0.120439
0.120495
0.120552
0.120609
0.120666
0.120723
0.120781
0.120839
0.120898
0.120956
0.121015
0.121075
0.121134
0.121194
0.121254
0.121315
0.121376
0.121437
0.121498
0.12156
0.121622
0.121685
0.121747
0.12181
0.121874
0.121937
0.122001
0.122066
0.12213
0.122195
0.12226
0.122326
0.122392
0.122458
0.122524
0.122591
0.122658
0.122726
0.122794
0.122862
0.12293
0.122999
0.123068
0.123137
0.123207
0.123277
0.123347
0.123418
0.123489
0.12356
0.123632
0.123704
0.123776
0.123848
0.123921
0.123995
0.124068
0.124142
0.124216
0.124291
0.124366
0.124441
0.124517
0.124593
0.124669
0.124746
0.124823
0.1249
0.124978
0.125056
0.125134
0.125213
0.125292
0.125371
0.125451
0.125531
0.125611
0.125692
0.125773
0.125855
0.125937
0.126019
0.126101
0.126184
0.126268
0.126351
0.126435
0.12652
0.126605
0.12669
0.126775
0.126861
0.126947
0.127034
0.127121
0.127208
0.127296
0.127384
0.127473
0.127562
0.127651
0.127741
0.127831
0.127921
0.128012
0.128104
0.128195
0.128287
0.12838
0.128473
0.128566
0.12866
0.128754
0.128848
0.128943
0.129039
0.129135
0.129231
0.129328
0.129425
0.129522
0.12962
0.129718
0.129817
0.129917
0.130016
0.130117
0.130218
0.130317
0.130425
0.130513
0.130648
0.1307
0.130881
0.130927
0.131015
0.131015
0.131015
1
0.52082
0.331093
0.260509
0.224605
0.202846
0.188269
0.178045
0.171083
0.166839
0.164742
0.164134
0.164429
0.165214
0.166242
0.167374
0.168533
0.169677
0.170785
0.171848
0.172867
0.173843
0.174782
0.175687
0.17656
0.177403
0.178218
0.179005
0.179763
0.180495
0.181199
0.181875
0.182525
0.183147
0.183743
0.184313
0.184856
0.185373
0.185865
0.186332
0.186775
0.187193
0.187588
0.18796
0.18831
0.188638
0.188945
0.189231
0.189498
0.189746
0.189976
0.190188
0.190383
0.190562
0.190726
0.190875
0.19101
0.191131
0.19124
0.191338
0.191424
0.191499
0.191565
0.191621
0.191669
0.191709
0.191741
0.191766
0.191785
0.191798
0.191806
0.191809
0.191808
0.191802
0.191793
0.191781
0.191766
0.191748
0.191728
0.191706
0.191683
0.191658
0.191632
0.191605
0.191578
0.19155
0.191522
0.191493
0.191465
0.191437
0.191409
0.191381
0.191354
0.191327
0.191302
0.191277
0.191252
0.191229
0.191206
0.191185
0.191164
0.191144
0.191126
0.191109
0.191092
0.191077
0.191063
0.19105
0.191038
0.191027
0.191018
0.191009
0.191002
0.190996
0.190991
0.190987
0.190984
0.190982
0.190982
0.190982
0.190984
0.190986
0.19099
0.190995
0.191
0.191007
0.191015
0.191024
0.191034
0.191044
0.191056
0.191069
0.191082
0.191097
0.191113
0.191129
0.191146
0.191165
0.191184
0.191204
0.191225
0.191246
0.191269
0.191292
0.191316
0.191341
0.191367
0.191394
0.191421
0.19145
0.191479
0.191508
0.191539
0.19157
0.191602
0.191635
0.191669
0.191703
0.191738
0.191774
0.19181
0.191847
0.191885
0.191923
0.191963
0.192002
0.192043
0.192084
0.192126
0.192169
0.192212
0.192256
0.1923
0.192345
0.192391
0.192437
0.192484
0.192532
0.19258
0.192629
0.192679
0.192729
0.192779
0.192831
0.192883
0.192935
0.192988
0.193042
0.193096
0.193151
0.193206
0.193262
0.193319
0.193376
0.193433
0.193492
0.19355
0.19361
0.19367
0.19373
0.193791
0.193853
0.193915
0.193977
0.194041
0.194104
0.194169
0.194233
0.194299
0.194364
0.194431
0.194498
0.194565
0.194633
0.194702
0.194771
0.19484
0.19491
0.194981
0.195052
0.195123
0.195195
0.195268
0.195341
0.195415
0.195489
0.195563
0.195638
0.195714
0.19579
0.195867
0.195944
0.196021
0.1961
0.196178
0.196257
0.196337
0.196417
0.196497
0.196579
0.19666
0.196742
0.196825
0.196908
0.196991
0.197075
0.19716
0.197245
0.19733
0.197416
0.197503
0.19759
0.197677
0.197765
0.197854
0.197943
0.198032
0.198122
0.198212
0.198303
0.198394
0.198486
0.198579
0.198671
0.198765
0.198858
0.198953
0.199048
0.199143
0.199238
0.199335
0.199431
0.199529
0.199626
0.199724
0.199823
0.199922
0.200022
0.200122
0.200223
0.200324
0.200426
0.200528
0.20063
0.200733
0.200837
0.200941
0.201046
0.201151
0.201256
0.201362
0.201469
0.201576
0.201684
0.201792
0.2019
0.202009
0.202119
0.202229
0.20234
0.202451
0.202562
0.202675
0.202787
0.2029
0.203014
0.203128
0.203243
0.203358
0.203474
0.20359
0.203707
0.203824
0.203942
0.20406
0.204179
0.204298
0.204418
0.204539
0.20466
0.204781
0.204903
0.205026
0.205149
0.205273
0.205397
0.205522
0.205647
0.205773
0.205899
0.206026
0.206153
0.206281
0.20641
0.206539
0.206669
0.206799
0.20693
0.207061
0.207193
0.207326
0.207459
0.207592
0.207727
0.207861
0.207997
0.208133
0.208269
0.208406
0.208544
0.208682
0.208821
0.208961
0.209101
0.209241
0.209383
0.209525
0.209667
0.20981
0.209954
0.210098
0.210243
0.210389
0.210535
0.210682
0.210829
0.210977
0.211126
0.211275
0.211425
0.211576
0.211727
0.211879
0.212031
0.212184
0.212338
0.212493
0.212648
0.212804
0.212961
0.213118
0.213276
0.213434
0.213594
0.213754
0.213915
0.214076
0.214238
0.214401
0.214566
0.214728
0.214902
0.215048
0.215263
0.215352
0.215639
0.215717
0.215883
0.215883
0.215883
1
0.663347
0.451456
0.359393
0.310683
0.280764
0.260588
0.246403
0.236736
0.230821
0.227851
0.226921
0.227233
0.228229
0.229568
0.23106
0.232596
0.234115
0.235587
0.237002
0.238357
0.239658
0.240908
0.242112
0.243274
0.244396
0.24548
0.246526
0.247534
0.248506
0.249441
0.25034
0.251202
0.252029
0.25282
0.253576
0.254297
0.254984
0.255638
0.256258
0.256847
0.257403
0.25793
0.258426
0.258893
0.259332
0.259743
0.260128
0.260488
0.260823
0.261135
0.261424
0.261691
0.261938
0.262165
0.262373
0.262564
0.262737
0.262895
0.263037
0.263166
0.263281
0.263383
0.263474
0.263554
0.263624
0.263684
0.263736
0.263779
0.263816
0.263845
0.263868
0.263886
0.263898
0.263906
0.26391
0.263909
0.263906
0.2639
0.263891
0.263881
0.263868
0.263854
0.263838
0.263822
0.263805
0.263787
0.263769
0.26375
0.263732
0.263714
0.263696
0.263679
0.263662
0.263646
0.26363
0.263615
0.263602
0.263589
0.263577
0.263566
0.263556
0.263548
0.263541
0.263534
0.263529
0.263526
0.263523
0.263522
0.263522
0.263524
0.263526
0.26353
0.263535
0.263542
0.26355
0.263559
0.263569
0.263581
0.263594
0.263608
0.263623
0.26364
0.263657
0.263676
0.263696
0.263718
0.26374
0.263764
0.263789
0.263815
0.263842
0.26387
0.2639
0.26393
0.263962
0.263994
0.264028
0.264063
0.264098
0.264135
0.264173
0.264212
0.264252
0.264293
0.264335
0.264378
0.264421
0.264466
0.264512
0.264559
0.264606
0.264655
0.264704
0.264755
0.264806
0.264858
0.264911
0.264965
0.26502
0.265076
0.265133
0.26519
0.265249
0.265308
0.265368
0.265429
0.265491
0.265553
0.265616
0.265681
0.265746
0.265811
0.265878
0.265946
0.266014
0.266083
0.266153
0.266223
0.266294
0.266366
0.266439
0.266513
0.266587
0.266663
0.266738
0.266815
0.266892
0.266971
0.267049
0.267129
0.267209
0.26729
0.267372
0.267455
0.267538
0.267622
0.267706
0.267792
0.267878
0.267964
0.268052
0.26814
0.268229
0.268318
0.268409
0.2685
0.268591
0.268683
0.268776
0.26887
0.268964
0.269059
0.269155
0.269251
0.269348
0.269446
0.269545
0.269644
0.269743
0.269844
0.269945
0.270046
0.270149
0.270252
0.270355
0.27046
0.270565
0.27067
0.270776
0.270883
0.270991
0.271099
0.271208
0.271317
0.271428
0.271538
0.27165
0.271762
0.271875
0.271988
0.272102
0.272217
0.272332
0.272448
0.272565
0.272682
0.2728
0.272918
0.273038
0.273157
0.273278
0.273399
0.273521
0.273643
0.273766
0.27389
0.274014
0.274139
0.274264
0.274391
0.274517
0.274645
0.274773
0.274902
0.275031
0.275161
0.275292
0.275423
0.275555
0.275688
0.275821
0.275955
0.27609
0.276225
0.276361
0.276497
0.276634
0.276772
0.27691
0.277049
0.277189
0.27733
0.277471
0.277612
0.277755
0.277898
0.278041
0.278186
0.278331
0.278476
0.278622
0.278769
0.278917
0.279065
0.279214
0.279364
0.279514
0.279665
0.279817
0.279969
0.280122
0.280276
0.28043
0.280585
0.280741
0.280897
0.281054
0.281212
0.28137
0.281529
0.281689
0.281849
0.28201
0.282172
0.282335
0.282498
0.282662
0.282827
0.282992
0.283158
0.283325
0.283492
0.28366
0.283829
0.283999
0.284169
0.28434
0.284512
0.284684
0.284858
0.285032
0.285206
0.285382
0.285558
0.285735
0.285912
0.286091
0.28627
0.28645
0.28663
0.286812
0.286994
0.287177
0.28736
0.287545
0.28773
0.287916
0.288103
0.28829
0.288478
0.288667
0.288857
0.289048
0.289239
0.289431
0.289624
0.289818
0.290013
0.290208
0.290405
0.290602
0.2908
0.290998
0.291198
0.291398
0.291599
0.291802
0.292004
0.292208
0.292413
0.292618
0.292825
0.293032
0.29324
0.293449
0.293659
0.293869
0.294081
0.294293
0.294507
0.294721
0.294936
0.295153
0.29537
0.295588
0.295807
0.296027
0.296248
0.296471
0.296691
0.296926
0.297125
0.297413
0.29754
0.297922
0.29803
0.298282
0.298282
0.298282
1
0.779496
0.56294
0.454313
0.394107
0.356474
0.330871
0.312789
0.300415
0.292775
0.288839
0.287472
0.287685
0.288778
0.290327
0.292084
0.293909
0.295723
0.297486
0.299182
0.300809
0.302371
0.303874
0.305324
0.306724
0.308077
0.309386
0.310649
0.31187
0.313047
0.314181
0.315272
0.316321
0.317328
0.318293
0.319218
0.320101
0.320945
0.321749
0.322515
0.323242
0.323934
0.324589
0.325209
0.325795
0.326348
0.326869
0.327359
0.327819
0.32825
0.328654
0.329032
0.329384
0.329712
0.330016
0.330299
0.330561
0.330803
0.331026
0.331231
0.331419
0.331592
0.33175
0.331894
0.332025
0.332143
0.332251
0.332348
0.332435
0.332513
0.332583
0.332646
0.332701
0.33275
0.332794
0.332832
0.332865
0.332894
0.33292
0.332942
0.332961
0.332978
0.332992
0.333004
0.333015
0.333024
0.333033
0.33304
0.333047
0.333054
0.33306
0.333066
0.333072
0.333079
0.333086
0.333093
0.333101
0.333109
0.333119
0.333129
0.33314
0.333151
0.333164
0.333178
0.333193
0.333209
0.333226
0.333244
0.333264
0.333285
0.333306
0.33333
0.333354
0.33338
0.333406
0.333434