# vtk DataFile Version 2.0
FlowField
ASCII
DATASET STRUCTURED_GRID
DIMENSIONS 400 1 200
POINTS 80000 float
0 0 0
0.08 0 0
0.16 0 0
0.24 0 0
0.32 0 0
0.4 0 0
0.48 0 0
0.56 0 0
0.64 0 0
0.72 0 0
0.8 0 0
0.88 0 0
0.96 0 0
1.04 0 0
1.12 0 0
1.2 0 0
1.28 0 0
1.36 0 0
1.44 0 0
1.52 0 0
1.6 0 0
1.68 0 0
1.76 0 0
1.84 0 0
1.92 0 0
2 0 0
2.08 0 0
2.16 0 0
2.24 0 0
2.32 0 0
2.4 0 0
2.48 0 0
2.56 0 0
2.64 0 0
2.72 0 0
2.8 0 0
2.88 0 0
2.96 0 0
3.04 0 0
3.12 0 0
3.2 0 0
3.28 0 0
3.36 0 0
3.44 0 0
3.52 0 0
3.6 0 0
3.68 0 0
3.76 0 0
3.84 0 0
3.92 0 0
4 0 0
4.08 0 0
4.16 0 0
4.24 0 0
4.32 0 0
4.4 0 0
4.48 0 0
4.56 0 0
4.64 0 0
4.72 0 0
4.8 0 0
4.88 0 0
4.96 0 0
5.04 0 0
5.12 0 0
5.2 0 0
5.28 0 0
5.36 0 0
5.44 0 0
5.52 0 0
5.6 0 0
5.68 0 0
5.76 0 0
5.84 0 0
5.92 0 0
6 0 0
6.08 0 0
6.16 0 0
6.24 0 0
6.32 0 0
6.4 0 0
6.48 0 0
6.56 0 0
6.64 0 0
6.72 0 0
6.8 0 0
6.88 0 0
6.96 0 0
7.04 0 0
7.12 0 0
7.2 0 0
7.28 0 0
7.36 0 0
7.44 0 0
7.52 0 0
7.6 0 0
7.68 0 0
7.76 0 0
7.84 0 0
7.92 0 0
8 0 0
8.08 0 0
8.16 0 0
8.24 0 0
8.32 0 0
8.4 0 0
8.48 0 0
8.56 0 0
8.64 0 0
8.72 0 0
8.8 0 0
8.88 0 0
8.96 0 0
9.04 0 0
9.12 0 0
9.2 0 0
9.28 0 0
9.36 0 0
9.44 0 0
9.52 0 0
9.6 0 0
9.68 0 0
9.76 0 0
9.84 0 0
9.92 0 0
10 0 0
10.08 0 0
10.16 0 0
10.24 0 0
10.32 0 0
10.4 0 0
10.48 0 0
10.56 0 0
10.64 0 0
10.72 0 0
10.8 0 0
10.88 0 0
10.96 0 0
11.04 0 0
11.12 0 0
11.2 0 0
11.28 0 0
11.36 0 0
11.44 0 0
11.52 0 0
11.6 0 0
11.68 0 0
11.76 0 0
11.84 0 0
11.92 0 0
12 0 0
12.08 0 0
12.16 0 0
12.24 0 0
12.32 0 0
12.4 0 0
12.48 0 0
12.56 0 0
12.64 0 0
12.72 0 0
12.8 0 0
12.88 0 0
12.96 0 0
13.04 0 0
13.12 0 0
13.2 0 0
13.28 0 0
13.36 0 0
13.44 0 0
13.52 0 0
13.6 0 0
13.68 0 0
13.76 0 0
13.84 0 0
13.92 0 0
14 0 0
14.08 0 0
14.16 0 0
14.24 0 0
14.32 0 0
14.4 0 0
14.48 0 0
14.56 0 0
14.64 0 0
14.72 0 0
14.8 0 0
14.88 0 0
14.96 0 0
15.04 0 0
15.12 0 0
15.2 0 0
15.28 0 0
15.36 0 0
15.44 0 0
15.52 0 0
15.6 0 0
15.68 0 0
15.76 0 0
15.84 0 0
15.92 0 0
16 0 0
16.08 0 0
16.16 0 0
16.24 0 0
16.32 0 0
16.4 0 0
16.48 0 0
16.56 0 0
16.64 0 0
16.72 0 0
16.8 0 0
16.88 0 0
16.96 0 0
17.04 0 0
17.12 0 0
17.2 0 0
17.28 0 0
17.36 0 0
17.44 0 0
17.52 0 0
17.6 0 0
17.68 0 0
17.76 0 0
17.84 0 0
17.92 0 0
18 0 0
18.08 0 0
18.16 0 0
18.24 0 0
18.32 0 0
18.4 0 0
18.48 0 0
18.56 0 0
18.64 0 0
18.72 0 0
18.8 0 0
18.88 0 0
18.96 0 0
19.04 0 0
19.12 0 0
19.2 0 0
19.28 0 0
19.36 0 0
19.44 0 0
19.52 0 0
19.6 0 0
19.68 0 0
19.76 0 0
19.84 0 0
19.92 0 0
20 0 0
20.08 0 0
20.16 0 0
20.24 0 0
20.32 0 0
20.4 0 0
20.48 0 0
20.56 0 0
20.64 0 0
20.72 0 0
20.8 0 0
20.88 0 0
20.96 0 0
21.04 0 0
21.12 0 0
21.2 0 0
21.28 0 0
21.36 0 0
21.44 0 0
21.52 0 0
21.6 0 0
21.68 0 0
21.76 0 0
21.84 0 0
21.92 0 0
22 0 0
22.08 0 0
22.16 0 0
22.24 0 0
22.32 0 0
22.4 0 0
22.48 0 0
22.56 0 0
22.64 0 0
22.72 0 0
22.8 0 0
22.88 0 0
22.96 0 0
23.04 0 0
23.12 0 0
23.2 0 0
23.28 0 0
23.36 0 0
23.44 0 0
23.52 0 0
23.6 0 0
23.68 0 0
23.76 0 0
23.84 0 0
23.92 0 0
24 0 0
24.08 0 0
24.16 0 0
24.24 0 0
24.32 0 0
24.4 0 0
24.48 0 0
24.56 0 0
24.64 0 0
24.72 0 0
24.8 0 0
24.88 0 0
24.96 0 0
25.04 0 0
25.12 0 0
25.2 0 0
25.28 0 0
25.36 0 0
25.44 0 0
25.52 0 0
25.6 0 0
25.68 0 0
25.76 0 0
25.84 0 0
25.92 0 0
26 0 0
26.08 0 0
26.16 0 0
26.24 0 0
26.32 0 0
26.4 0 0
26.48 0 0
26.56 0 0
26.64 0 0
26.72 0 0
26.8 0 0
26.88 0 0
26.96 0 0
27.04 0 0
27.12 0 0
27.2 0 0
27.28 0 0
27.36 0 0
27.44 0 0
27.52 0 0
27.6 0 0
27.68 0 0
27.76 0 0
27.84 0 0
27.92 0 0
28 0 0
28.08 0 0
28.16 0 0
28.24 0 0
28.32 0 0
28.4 0 0
28.48 0 0
28.56 0 0
28.64 0 0
28.72 0 0
28.8 0 0
28.88 0 0
28.96 0 0
29.04 0 0
29.12 0 0
29.2 0 0
29.28 0 0
29.36 0 0
29.44 0 0
29.52 0 0
29.6 0 0
29.68 0 0
29.76 0 0
29.84 0 0
29.92 0 0
30 0 0
30.08 0 0
30.16 0 0
30.24 0 0
30.32 0 0
30.4 0 0
30.48 0 0
30.56 0 0
30.64 0 0
30.72 0 0
30.8 0 0
30.88 0 0
30.96 0 0
31.04 0 0
31.12 0 0
31.2 0 0
31.28 0 0
31.36 0 0
31.44 0 0
31.52 0 0
31.6 0 0
31.68 0 0
31.76 0 0
31.84 0 0
31.92 0 0
0 0.005 0
0.08 0.005 0
0.16 0.005 0
0.24 0.005 0
0.32 0.005 0
0.4 0.005 0
0.48 0.005 0
0.56 0.005 0
0.64 0.005 0
0.72 0.005 0
0.8 0.005 0
0.88 0.005 0
0.96 0.005 0
1.04 0.005 0
1.12 0.005 0
1.2 0.005 0
1.28 0.005 0
1.36 0.005 0
1.44 0.005 0
1.52 0.005 0
1.6 0.005 0
1.68 0.005 0
1.76 0.005 0
1.84 0.005 0
1.92 0.005 0
2 0.005 0
2.08 0.005 0
2.16 0.005 0
2.24 0.005 0
2.32 0.005 0
2.4 0.005 0
2.48 0.005 0
2.56 0.005 0
2.64 0.005 0
2.72 0.005 0
2.8 0.005 0
2.88 0.005 0
2.96 0.005 0
3.04 0.005 0
3.12 0.005 0
3.2 0.005 0
3.28 0.005 0
3.36 0.005 0
3.44 0.005 0
3.52 0.005 0
3.6 0.005 0
3.68 0.005 0
3.76 0.005 0
3.84 0.005 0
3.92 0.005 0
4 0.005 0
4.08 0.005 0
4.16 0.005 0
4.24 0.005 0
4.32 0.005 0
4.4 0.005 0
4.48 0.005 0
4.56 0.005 0
4.64 0.005 0
4.72 0.005 0
4.8 0.005 0
4.88 0.005 0
4.96 0.005 0
5.04 0.005 0
5.12 0.005 0
5.2 0.005 0
5.28 0.005 0
5.36 0.005 0
5.44 0.005 0
5.52 0.005 0
5.6 0.005 0
5.68 0.005 0
5.76 0.005 0
5.84 0.005 0
5.92 0.005 0
6 0.005 0
6.08 0.005 0
6.16 0.005 0
6.24 0.005 0
6.32 0.005 0
6.4 0.005 0
6.48 0.005 0
6.56 0.005 0
6.64 0.005 0
6.72 0.005 0
6.8 0.005 0
6.88 0.005 0
6.96 0.005 0
7.04 0.005 0
7.12 0.005 0
7.2 0.005 0
7.28 0.005 0
7.36 0.005 0
7.44 0.005 0
7.52 0.005 0
7.6 0.005 0
7.68 0.005 0
7.76 0.005 0
7.84 0.005 0
7.92 0.005 0
8 0.005 0
8.08 0.005 0
8.16 0.005 0
8.24 0.005 0
8.32 0.005 0
8.4 0.005 0
8.48 0.005 0
8.56 0.005 0
8.64 0.005 0
8.72 0.005 0
8.8 0.005 0
8.88 0.005 0
8.96 0.005 0
9.04 0.005 0
9.12 0.005 0
9.2 0.005 0
9.28 0.005 0
9.36 0.005 0
9.44 0.005 0
9.52 0.005 0
9.6 0.005 0
9.68 0.005 0
9.76 0.005 0
9.84 0.005 0
9.92 0.005 0
10 0.005 0
10.08 0.005 0
10.16 0.005 0
10.24 0.005 0
10.32 0.005 0
10.4 0.005 0
10.48 0.005 0
10.56 0.005 0
10.64 0.005 0
10.72 0.005 0
10.8 0.005 0
10.88 0.005 0
10.96 0.005 0
11.04 0.005 0
11.12 0.005 0
11.2 0.005 0
11.28 0.005 0
11.36 0.005 0
11.44 0.005 0
11.52 0.005 0
11.6 0.005 0
11.68 0.005 0
11.76 0.005 0
11.84 0.005 0
11.92 0.005 0
12 0.005 0
12.08 0.005 0
12.16 0.005 0
12.24 0.005 0
12.32 0.005 0
12.4 0.005 0
12.48 0.005 0
12.56 0.005 0
12.64 0.005 0
12.72 0.005 0
12.8 0.005 0
12.88 0.005 0
12.96 0.005 0
13.04 0.005 0
13.12 0.005 0
13.2 0.005 0
13.28 0.005 0
13.36 0.005 0
13.44 0.005 0
13.52 0.005 0
13.6 0.005 0
13.68 0.005 0
13.76 0.005 0
13.84 0.005 0
13.92 0.005 0
14 0.005 0
14.08 0.005 0
14.16 0.005 0
14.24 0.005 0
14.32 0.005 0
14.4 0.005 0
14.48 0.005 0
14.56 0.005 0
14.64 0.005 0
14.72 0.005 0
14.8 0.005 0
14.88 0.005 0
14.96 0.005 0
15.04 0.005 0
15.12 0.005 0
15.2 0.005 0
15.28 0.005 0
15.36 0.005 0
15.44 0.005 0
15.52 0.005 0
15.6 0.005 0
15.68 0.005 0
15.76 0.005 0
15.84 0.005 0
15.92 0.005 0
16 0.005 0
16.08 0.005 0
16.16 0.005 0
16.24 0.005 0
16.32 0.005 0
16.4 0.005 0
16.48 0.005 0
16.56 0.005 0
16.64 0.005 0
16.72 0.005 0
16.8 0.005 0
16.88 0.005 0
16.96 0.005 0
17.04 0.005 0
17.12 0.005 0
17.2 0.005 0
17.28 0.005 0
17.36 0.005 0
17.44 0.005 0
17.52 0.005 0
17.6 0.005 0
17.68 0.005 0
17.76 0.005 0
17.84 0.005 0
17.92 0.005 0
18 0.005 0
18.08 0.005 0
18.16 0.005 0
18.24 0.005 0
18.32 0.005 0
18.4 0.005 0
18.48 0.005 0
18.56 0.005 0
18.64 0.005 0
18.72 0.005 0
18.8 0.005 0
18.88 0.005 0
18.96 0.005 0
19.04 0.005 0
19.12 0.005 0
19.2 0.005 0
19.28 0.005 0
19.36 0.005 0
19.44 0.005 0
19.52 0.005 0
19.6 0.005 0
19.68 0.005 0
19.76 0.005 0
19.84 0.005 0
19.92 0.005 0
20 0.005 0
20.08 0.005 0
20.16 0.005 0
20.24 0.005 0
20.32 0.005 0
20.4 0.005 0
20.48 0.005 0
20.56 0.005 0
20.64 0.005 0
20.72 0.005 0
20.8 0.005 0
20.88 0.005 0
20.96 0.005 0
21.04 0.005 0
21.12 0.005 0
21.2 0.005 0
21.28 0.005 0
21.36 0.005 0
21.44 0.005 0
21.52 0.005 0
21.6 0.005 0
21.68 0.005 0
21.76 0.005 0
21.84 0.005 0
21.92 0.005 0
22 0.005 0
22.08 0.005 0
22.16 0.005 0
22.24 0.005 0
22.32 0.005 0
22.4 0.005 0
22.48 0.005 0
22.56 0.005 0
22.64 0.005 0
22.72 0.005 0
22.8 0.005 0
22.88 0.005 0
22.96 0.005 0
23.04 0.005 0
23.12 0.005 0
23.2 0.005 0
23.28 0.005 0
23.36 0.005 0
23.44 0.005 0
23.52 0.005 0
23.6 0.005 0
23.68 0.005 0
23.76 0.005 0
23.84 0.005 0
23.92 0.005 0
24 0.005 0
24.08 0.005 0
24.16 0.005 0
24.24 0.005 0
24.32 0.005 0
24.4 0.005 0
24.48 0.005 0
24.56 0.005 0
24.64 0.005 0
24.72 0.005 0
24.8 0.005 0
24.88 0.005 0
24.96 0.005 0
25.04 0.005 0
25.12 0.005 0
25.2 0.005 0
25.28 0.005 0
25.36 0.005 0
25.44 0.005 0
25.52 0.005 0
25.6 0.005 0
25.68 0.005 0
25.76 0.005 0
25.84 0.005 0
25.92 0.005 0
26 0.005 0
26.08 0.005 0
26.16 0.005 0
26.24 0.005 0
26.32 0.005 0
26.4 0.005 0
26.48 0.005 0
26.56 0.005 0
26.64 0.005 0
26.72 0.005 0
26.8 0.005 0
26.88 0.005 0
26.96 0.005 0
27.04 0.005 0
27.12 0.005 0
27.2 0.005 0
27.28 0.005 0
27.36 0.005 0
27.44 0.005 0
27.52 0.005 0
27.6 0.005 0
27.68 0.005 0
27.76 0.005 0
27.84 0.005 0
27.92 0.005 0
28 0.005 0
28.08 0.005 0
28.16 0.005 0
28.24 0.005 0
28.32 0.005 0
28.4 0.005 0
28.48 0.005 0
28.56 0.005 0
28.64 0.005 0
28.72 0.005 0
28.8 0.005 0
28.88 0.005 0
28.96 0.005 0
29.04 0.005 0
29.12 0.005 0
29.2 0.005 0
29.28 0.005 0
29.36 0.005 0
29.44 0.005 0
29.52 0.005 0
29.6 0.005 0
29.68 0.005 0
29.76 0.005 0
29.84 0.005 0
29.92 0.005 0
30 0.005 0
30.08 0.005 0
30.16 0.005 0
30.24 0.005 0
30.32 0.005 0
30.4 0.005 0
30.48 0.005 0
30.56 0.005 0
30.64 0.005 0
30.72 0.005 0
30.8 0.005 0
30.88 0.005 0
30.96 0.005 0
31.04 0.005 0
31.12 0.005 0
31.2 0.005 0
31.28 0.005 0
31.36 0.005 0
31.44 0.005 0
31.52 0.005 0
31.6 0.005 0
31.68 0.005 0
31.76 0.005 0
31.84 0.005 0
31.92 0.005 0
0 0.01 0
0.08 0.01 0
0.16 0.01 0
0.24 0.01 0
0.32 0.01 0
0.4 0.01 0
0.48 0.01 0
0.56 0.01 0
0.64 0.01 0
0.72 0.01 0
0.8 0.01 0
0.88 0.01 0
0.96 0.01 0
1.04 0.01 0
1.12 0.01 0
1.2 0.01 0
1.28 0.01 0
1.36 0.01 0
1.44 0.01 0
1.52 0.01 0
1.6 0.01 0
1.68 0.01 0
1.76 0.01 0
1.84 0.01 0
1.92 0.01 0
2 0.01 0
2.08 0.01 0
2.16 0.01 0
2.24 0.01 0
2.32 0.01 0
2.4 0.01 0
2.48 0.01 0
2.56 0.01 0
2.64 0.01 0
2.72 0.01 0
2.8 0.01 0
2.88 0.01 0
2.96 0.01 0
3.04 0.01 0
3.12 0.01 0
3.2 0.01 0
3.28 0.01 0
3.36 0.01 0
3.44 0.01 0
3.52 0.01 0
3.6 0.01 0
3.68 0.01 0
3.76 0.01 0
3.84 0.01 0
3.92 0.01 0
4 0.01 0
4.08 0.01 0
4.16 0.01 0
4.24 0.01 0
4.32 0.01 0
4.4 0.01 0
4.48 0.01 0
4.56 0.01 0
4.64 0.01 0
4.72 0.01 0
4.8 0.01 0
4.88 0.01 0
4.96 0.01 0
5.04 0.01 0
5.12 0.01 0
[...]
POINT_DATA 80000

SCALARS v float 1
LOOKUP_TABLE default
0
0
0
0
0
0
0
0
0
0
0
0
0
0
0
0
0
0
0
0
0
0
0
0
0
0
0
0
0
0
0
0
0
0
0
0
0
0
0
0
0
0
0
0
0
0
0
0
0
0
0
0
0
0
0
0
0
0
0
0
0
0
0
0
0
0
0
0
0
0
0
0
0
0
0
0
0
0
0
0
0
0
0
0
0
0
0
0
0
0
0
0
0
0
0
0
0
0
0
0
0
0
0
0
0
0
0
0
0
0
0
0
0
0
0
0
0
0
0
0
0
0
0
0
0
0
0
0
0
0
0
0
0
0
0
0
0
0
0
0
0
0
0
0
0
0
0
0
0
0
0
0
0
0
0
0
0
0
0
0
0
0
0
0
0
0
0
0
0
0
0
0
0
0
0
0
0
0
0
0
0
0
0
0
0
0
0
0
0
0
0
0
0
0
0
0
0
0
0
0
0
0
0
0
0
0
0
0
0
0
0
0
0
0
0
0
0
0
0
0
0
0
0
0
0
0
0
0
0
0
0
0
0
0
0
0
0
0
0
0
0
0
0
0
0
0
0
0
0
0
0
0
0
0
0
0
0
0
0
0
0
0
0
0
0
0
0
0
0
0
0
0
0
0
0
0
0
0
0
0
0
0
0
0
0
0
0
0
0
0
0
0
0
0
0
0
0
0
0
0
0
0
0
0
0
0
0
0
0
0
0
0
0
0
0
0
0
0
0
0
0
0
0
0
0
0
0
0
0
0
0
0
0
0
0
0
0
0
0
0
0
0
0
0
0
0
0
0
0
0
0
0
0
0
0
0
0
0
0
0
0
0
0
0
0
0
0
0
0
0
0
0
0
0
0
0
0
0
0
0
0
0
0
0
0
0
0
0
0
0
0
0
0
0
0
0
0
0
0
0
-0.0542725
0.0542725
0.00396358
0.000999827
0.00049376
0.000304196
0.000208816
0.000153183
0.000117738
9.37738e-05
7.68417e-05
6.44513e-05
5.51211e-05
4.79193e-05
4.22234e-05
3.76015e-05
3.3761e-05
3.05193e-05
2.77633e-05
2.54018e-05
2.33344e-05
2.14583e-05
1.96967e-05
1.80163e-05
1.64114e-05
1.48695e-05
1.33523e-05
1.18141e-05
1.02437e-05
8.69541e-06
7.28075e-06
6.12301e-06
5.29981e-06
4.80742e-06
4.56406e-06
4.44599e-06
4.3343e-06
4.14978e-06
3.86514e-06
3.49689e-06
3.0865e-06
2.68078e-06
2.31784e-06
2.02043e-06
1.79565e-06
1.63844e-06
1.5367e-06
1.47586e-06
1.44226e-06
1.42492e-06
1.41604e-06
1.41072e-06
1.40623e-06
1.40134e-06
1.39563e-06
1.38913e-06
1.38199e-06
1.37441e-06
1.36653e-06
1.35845e-06
1.35021e-06
1.34184e-06
1.33335e-06
1.32472e-06
1.31596e-06
1.30705e-06
1.29799e-06
1.28878e-06
1.27942e-06
1.2699e-06
1.26023e-06
1.25042e-06
1.24046e-06
1.23037e-06
1.22014e-06
1.20979e-06
1.19931e-06
1.18872e-06
1.17803e-06
1.16723e-06
1.15634e-06
1.14536e-06
1.13431e-06
1.12318e-06
1.11199e-06
1.10074e-06
1.08943e-06
1.07809e-06
1.06671e-06
1.0553e-06
1.04388e-06
1.03243e-06
1.02098e-06
1.00953e-06
9.9809e-07
9.86659e-07
9.75248e-07
9.63862e-07
9.52507e-07
9.41189e-07
9.29914e-07
9.18688e-07
9.07515e-07
8.964e-07
8.85348e-07
8.74365e-07
8.63453e-07
8.52618e-07
8.41863e-07
8.31191e-07
8.20607e-07
8.10113e-07
7.99712e-07
7.89408e-07
7.79202e-07
7.69098e-07
7.59096e-07
7.492e-07
7.39411e-07
7.29729e-07
7.20158e-07
7.10697e-07
7.01348e-07
6.92112e-07
6.82989e-07
6.73979e-07
6.65083e-07
6.563e-07
6.47632e-07
6.39077e-07
6.30636e-07
6.22307e-07
6.14091e-07
6.05987e-07
5.97993e-07
5.90109e-07
5.82334e-07
5.74667e-07
5.67106e-07
5.59651e-07
5.523e-07
5.45051e-07
5.37904e-07
5.30857e-07
5.23907e-07
5.17054e-07
5.10296e-07
5.03632e-07
4.97058e-07
4.90575e-07
4.84179e-07
4.7787e-07
4.71646e-07
4.65504e-07
4.59443e-07
4.53461e-07
4.47556e-07
4.41727e-07
4.35971e-07
4.30288e-07
4.24675e-07
4.1913e-07
4.13652e-07
4.08239e-07
4.02889e-07
3.97602e-07
3.92374e-07
3.87204e-07
3.82091e-07
3.77034e-07
3.7203e-07
3.67078e-07
3.62177e-07
3.57326e-07
3.52522e-07
3.47765e-07
3.43053e-07
3.38384e-07
3.33758e-07
3.29173e-07
3.24629e-07
3.20123e-07
3.15654e-07
3.11222e-07
3.06826e-07
3.02463e-07
2.98134e-07
2.93837e-07
2.89572e-07
2.85336e-07
2.8113e-07
2.76952e-07
2.72802e-07
2.68679e-07
2.64581e-07
2.60508e-07
2.56459e-07
2.52434e-07
2.48432e-07
2.44452e-07
2.40493e-07
2.36555e-07
2.32636e-07
2.28737e-07
2.24857e-07
2.20995e-07
2.17151e-07
2.13324e-07
2.09513e-07
2.05718e-07
2.01939e-07
1.98175e-07
1.94425e-07
1.9069e-07
1.86968e-07
1.83259e-07
1.79563e-07
1.75879e-07
1.72207e-07
1.68547e-07
1.64898e-07
1.6126e-07
1.57633e-07
1.54016e-07
1.50408e-07
1.4681e-07
1.43221e-07
1.39641e-07
1.3607e-07
1.32507e-07
1.28952e-07
1.25405e-07
1.21865e-07
1.18332e-07
1.14807e-07
1.11288e-07
1.07776e-07
1.0427e-07
1.00769e-07
9.72753e-08
9.37866e-08
9.03034e-08
8.68253e-08
8.33523e-08
7.9884e-08
7.64203e-08
7.29609e-08
6.95058e-08
6.60547e-08
6.26074e-08
5.91638e-08
5.57238e-08
5.2287e-08
4.88535e-08
4.54229e-08
4.19952e-08
3.85701e-08
3.51477e-08
3.17276e-08
2.83098e-08
2.4894e-08
2.14803e-08
1.80683e-08
1.46581e-08
1.12493e-08
7.84209e-09
4.43605e-09
1.03125e-09
-2.3726e-09
-5.77546e-09
-9.17762e-09
-1.2579e-08
-1.598e-08
-1.93804e-08
-2.27807e-08
-2.61806e-08
-2.95806e-08
-3.29804e-08
-3.63806e-08
-3.97809e-08
-4.31816e-08
-4.65827e-08
-4.99845e-08
-5.33869e-08
-5.67901e-08
-6.01941e-08
-6.35992e-08
-6.70053e-08
-7.04127e-08
-7.38213e-08
-7.72313e-08
-8.06427e-08
-8.40558e-08
-8.74704e-08
-9.08869e-08
-9.43052e-08
-9.77255e-08
-1.01148e-07
-1.04572e-07
-1.07999e-07
-1.11428e-07
-1.14859e-07
-1.18293e-07
-1.21729e-07
-1.25168e-07
-1.2861e-07
-1.32055e-07
-1.35502e-07
-1.38953e-07
-1.42407e-07
-1.45863e-07
-1.49323e-07
-1.52787e-07
-1.56254e-07
-1.59724e-07
-1.63198e-07
-1.66676e-07
-1.70157e-07
-1.73643e-07
-1.77132e-07
-1.80625e-07
-1.84122e-07
-1.87624e-07
-1.91129e-07
-1.94639e-07
-1.98154e-07
-2.01673e-07
-2.05197e-07
-2.08725e-07
-2.12258e-07
-2.15796e-07
-2.19338e-07
-2.22886e-07
-2.26439e-07
-2.29997e-07
-2.3356e-07
-2.37129e-07
-2.40703e-07
-2.44282e-07
-2.47868e-07
-2.51458e-07
-2.55055e-07
-2.58657e-07
-2.62266e-07
-2.6588e-07
-2.69501e-07
-2.73127e-07
-2.7676e-07
-2.804e-07
-2.84046e-07
-2.87698e-07
-2.91357e-07
-2.95023e-07
-2.98696e-07
-3.02375e-07
-3.06062e-07
-3.09756e-07
-3.13458e-07
-3.17164e-07
-3.20884e-07
-3.24599e-07
-3.28347e-07
-3.32053e-07
-3.35862e-07
-3.39499e-07
-3.43475e-07
-3.46874e-07
-3.51278e-07
-3.54056e-07
-3.59416e-07
-3.60895e-07
-3.68024e-07
-3.67312e-07
-3.77086e-07
-3.7345e-07
-3.86339e-07
-3.79665e-07
-3.95395e-07
-3.86319e-07
-4.03962e-07
-3.93653e-07
-4.11833e-07
-4.01889e-07
-4.18827e-07
-4.11106e-07
-4.25234e-07
-4.2061e-07
-4.32344e-07
-4.29117e-07
-4.41123e-07
-4.37754e-07
-4.48313e-07
-4.53122e-07
-4.47435e-07
-4.80643e-07
-4.25664e-07
-5.43477e-07
-1.05215e-07
-4.68551e-07
-4.68551e-07
-0.0952175
0.0952175
0.0129773
0.00385635
0.00193605
0.00119794
0.000823463
0.000604016
0.000463749
0.000368687
0.000301394
0.000252089
0.000214928
0.000186219
0.000163493
0.000145046
0.00012973
0.000116816
0.000105833
9.63953e-05
8.8102e-05
8.05651e-05
7.35013e-05
6.67771e-05
6.03452e-05
5.41322e-05
4.79916e-05
4.1783e-05
3.55184e-05
2.94495e-05
2.40116e-05
1.96422e-05
1.65789e-05
1.47493e-05
1.3806e-05
1.32733e-05
1.27187e-05
1.18719e-05
1.06587e-05
9.16097e-06
7.54312e-06
5.98e-06
4.60756e-06
3.5017e-06
2.67989e-06
2.11622e-06
1.76077e-06
1.55672e-06
1.45223e-06
1.40645e-06
1.39087e-06
1.38781e-06
1.38768e-06
1.3862e-06
1.3821e-06
1.37556e-06
1.36724e-06
1.35784e-06
1.3479e-06
1.33775e-06
1.32756e-06
1.3174e-06
1.30727e-06
1.29715e-06
1.28699e-06
1.27676e-06
1.26641e-06
1.25594e-06
1.24532e-06
1.23454e-06
1.22359e-06
1.21246e-06
1.20117e-06
1.18969e-06
1.17805e-06
1.16624e-06
1.15426e-06
1.14213e-06
1.12984e-06
1.1174e-06
1.10483e-06
1.09212e-06
1.07929e-06
1.06634e-06
1.05329e-06
1.04013e-06
1.02688e-06
1.01355e-06
1.00014e-06
9.86664e-07
9.73131e-07
9.59549e-07
9.45925e-07
9.32269e-07
9.18588e-07
9.04891e-07
8.91185e-07
8.77479e-07
8.63779e-07
8.50093e-07
8.36429e-07
8.22793e-07
8.09192e-07
7.95632e-07
7.82119e-07
7.68661e-07
7.55261e-07
7.41926e-07
7.28662e-07
7.15472e-07
7.02362e-07
6.89336e-07
6.76398e-07
6.63553e-07
6.50803e-07
6.38154e-07
6.25606e-07
6.13165e-07
6.00832e-07
5.8861e-07
5.765e-07
5.64506e-07
5.52629e-07
5.4087e-07
5.29231e-07
5.17713e-07
5.06317e-07
4.95044e-07
4.83894e-07
4.72868e-07
4.61966e-07
4.51188e-07
4.40534e-07
4.30004e-07
4.19596e-07
4.09312e-07
3.9915e-07
3.89109e-07
3.79189e-07
3.69388e-07
3.59706e-07
3.50141e-07
3.40691e-07
3.31357e-07
3.22135e-07
3.13025e-07
3.04025e-07
2.95133e-07
2.86348e-07
2.77669e-07
2.69092e-07
2.60617e-07
2.52241e-07
2.43963e-07
2.35781e-07
2.27693e-07
2.19697e-07
2.11791e-07
2.03974e-07
1.96243e-07
1.88596e-07
1.81032e-07
1.73548e-07
1.66144e-07
1.58816e-07
1.51563e-07
1.44384e-07
1.37276e-07
1.30237e-07
1.23266e-07
1.16361e-07
1.09521e-07
1.02743e-07
9.60261e-08
8.93684e-08
8.27687e-08
7.62249e-08
6.97358e-08
6.32996e-08
5.69152e-08
5.05807e-08
4.42951e-08
3.80566e-08
3.18643e-08
2.57163e-08
1.96119e-08
1.35493e-08
7.52782e-09
1.54569e-09
-4.3977e-09
-1.0304e-08
-1.61739e-08
-2.20089e-08
-2.78095e-08
-3.35773e-08
-3.93128e-08
-4.50175e-08
-5.06917e-08
-5.63369e-08
-6.19535e-08
-6.75428e-08
-7.31052e-08
-7.86421e-08
-8.41535e-08
-8.9641e-08
-9.51046e-08
-1.00546e-07
-1.05964e-07
-1.11362e-07
-1.16738e-07
-1.22095e-07
-1.27432e-07
-1.3275e-07
-1.3805e-07
-1.43332e-07
-1.48596e-07
-1.53845e-07
-1.59077e-07
-1.64294e-07
-1.69495e-07
-1.74682e-07
-1.79854e-07
-1.85014e-07
-1.90159e-07
-1.95292e-07
-2.00413e-07
-2.05522e-07
-2.10619e-07
-2.15705e-07
-2.2078e-07
-2.25845e-07
-2.30899e-07
-2.35944e-07
-2.4098e-07
-2.46006e-07
-2.51024e-07
-2.56033e-07
-2.61035e-07
-2.66028e-07
-2.71014e-07
-2.75993e-07
-2.80965e-07
-2.8593e-07
-2.90889e-07
-2.95842e-07
-3.00789e-07
-3.05731e-07
-3.10667e-07
-3.15598e-07
-3.20524e-07
-3.25446e-07
-3.30363e-07
-3.35276e-07
-3.40185e-07
-3.4509e-07
-3.49992e-07
-3.54891e-07
-3.59786e-07
-3.64679e-07
-3.69569e-07
-3.74457e-07
-3.79342e-07
-3.84225e-07
-3.89106e-07
-3.93986e-07
-3.98864e-07
-4.03741e-07
-4.08616e-07
-4.13491e-07
-4.18364e-07
-4.23237e-07
-4.28109e-07
-4.32982e-07
-4.37853e-07
-4.42725e-07
-4.47597e-07
-4.5247e-07
-4.57342e-07
-4.62216e-07
-4.6709e-07
-4.71965e-07
-4.76841e-07
-4.81718e-07
-4.86596e-07
-4.91477e-07
-4.96358e-07
-5.01242e-07
-5.06127e-07
-5.11014e-07
-5.15904e-07
-5.20796e-07
-5.2569e-07
-5.30587e-07
-5.35486e-07
-5.40389e-07
-5.45294e-07
-5.50203e-07
-5.55115e-07
-5.6003e-07
-5.64948e-07
-5.69871e-07
-5.74796e-07
-5.79726e-07
-5.8466e-07
-5.89598e-07
-5.9454e-07
-5.99487e-07
-6.04437e-07
-6.09393e-07
-6.14353e-07
-6.19318e-07
-6.24288e-07
-6.29264e-07
-6.34244e-07
-6.3923e-07
-6.4422e-07
-6.49217e-07
-6.54219e-07
-6.59228e-07
-6.64242e-07
-6.69262e-07
-6.74288e-07
-6.79321e-07
-6.84359e-07
-6.89405e-07
-6.94457e-07
-6.99516e-07
-7.04581e-07
-7.09654e-07
-7.14734e-07
-7.19821e-07
-7.24915e-07
-7.30017e-07
-7.35127e-07
-7.40244e-07
-7.45369e-07
-7.50503e-07
-7.55644e-07
-7.60793e-07
-7.65951e-07
-7.71118e-07
-7.76293e-07
-7.81477e-07
-7.86669e-07
-7.91871e-07
-7.97082e-07
-8.02302e-07
-8.07532e-07
-8.12771e-07
-8.1802e-07
-8.2328e-07
-8.28548e-07
-8.33828e-07
-8.39117e-07
-8.44417e-07
-8.49729e-07
-8.55049e-07
-8.60384e-07
-8.65722e-07
-8.7109e-07
-8.76429e-07
-8.81864e-07
-8.8714e-07
-8.92766e-07
-8.97757e-07
-9.03952e-07
-9.08046e-07
-9.15764e-07
-9.17557e-07
-9.28746e-07
-9.2571e-07
-9.4342e-07
-9.32192e-07
-9.59747e-07
-9.37504e-07
-9.76754e-07
-9.4299e-07
-9.92961e-07
-9.50033e-07
-1.00726e-06
-9.59516e-07
-1.0189e-06
-9.72283e-07
-1.02713e-06
-9.88731e-07
-1.03293e-06
-1.00635e-06
-1.04117e-06
-1.02012e-06
-1.05584e-06
-1.03388e-06
-1.06507e-06
-1.07247e-06
-1.04425e-06
-1.15638e-06
-9.48227e-07
-1.36252e-06
2.14493e-07
-1.0786e-06
-1.0786e-06
-0.125295
0.125295
0.0249377
0.00835989
0.00427987
0.00266339
0.00183557
0.00134814
0.00103562
0.00082335
0.000672843
0.000562439
0.000479161
0.000414776
0.000363774
0.000322366
0.000288004
0.000259054
0.000234423
0.000213214
0.000194531
0.000177541
0.000161642
0.000146529
0.000132055
0.000118021
0.000104113
9.00887e-05
7.60632e-05
6.26493e-05
5.07965e-05
4.13934e-05
3.48575e-05
3.09408e-05
2.88399e-05
2.75234e-05
2.60914e-05
2.40114e-05
2.11682e-05
1.77671e-05
1.41721e-05
1.07539e-05
7.79105e-06
5.42997e-06
3.69348e-06
2.51516e-06
1.78136e-06
1.3673e-06
1.16138e-06
1.07684e-06
1.05389e-06
1.05589e-06
1.06326e-06
1.06746e-06
1.06615e-06
1.05986e-06
1.05013e-06
1.03843e-06
1.02589e-06
1.01321e-06
1.00073e-06
9.88595e-07
9.76784e-07
9.65233e-07
9.53849e-07
9.42547e-07
9.31251e-07
9.19902e-07
9.08455e-07
8.96876e-07
8.85141e-07
8.73234e-07
8.61144e-07
8.48864e-07
8.36389e-07
8.2372e-07
8.10854e-07
7.97796e-07
7.84548e-07
7.71115e-07
7.57501e-07
7.43713e-07
7.29757e-07
7.15642e-07
7.01374e-07
6.86962e-07
6.72415e-07
6.57741e-07
6.4295e-07
6.28051e-07
6.13052e-07
5.97965e-07
5.82796e-07
5.67558e-07
5.52257e-07
5.36904e-07
5.21507e-07
5.06076e-07
4.90617e-07
4.75142e-07
4.59656e-07
4.4417e-07
4.28689e-07
4.13222e-07
3.97776e-07
3.82358e-07
3.66975e-07
3.51634e-07
3.3634e-07
3.211e-07
3.0592e-07
2.90805e-07
2.75759e-07
2.6079e-07
2.45899e-07
2.31094e-07
2.16377e-07
2.01752e-07
1.87223e-07
1.72794e-07
1.58468e-07
1.44247e-07
1.30134e-07
1.16133e-07
1.02243e-07
8.84694e-08
7.48114e-08
6.12722e-08
4.78519e-08
3.45527e-08
2.13743e-08
8.31881e-09
-4.61455e-09
-1.74242e-08
-3.01111e-08
-4.26739e-08
-5.51142e-08
-6.74308e-08
-7.96254e-08
-9.16973e-08
-1.03648e-07
-1.15478e-07
-1.27189e-07
-1.3878e-07
-1.50255e-07
-1.61612e-07
-1.72854e-07
-1.83982e-07
-1.94998e-07
-2.05903e-07
-2.16699e-07
-2.27386e-07
-2.37967e-07
-2.48443e-07
-2.58817e-07
-2.6909e-07
-2.79263e-07
-2.89339e-07
-2.99319e-07
-3.09205e-07
-3.18999e-07
-3.28703e-07
-3.38319e-07
-3.47847e-07
-3.57292e-07
-3.66654e-07
-3.75935e-07
-3.85136e-07
-3.94261e-07
-4.03309e-07
-4.12285e-07
-4.21188e-07
-4.30021e-07
-4.38786e-07
-4.47484e-07
-4.56117e-07
-4.64686e-07
-4.73194e-07
-4.81642e-07
-4.9003e-07
-4.98363e-07
-5.06639e-07
-5.14861e-07
-5.23031e-07
-5.3115e-07
-5.39218e-07
-5.47239e-07
-5.55212e-07
-5.6314e-07
-5.71023e-07
-5.78863e-07
-5.86661e-07
-5.94419e-07
-6.02136e-07
-6.09815e-07
-6.17457e-07
-6.25063e-07
-6.32633e-07
-6.40169e-07
-6.47671e-07
-6.55142e-07
-6.62581e-07
-6.6999e-07
-6.77369e-07
-6.8472e-07
-6.92043e-07
-6.99339e-07
-7.06609e-07
-7.13854e-07
-7.21074e-07
-7.28271e-07
-7.35444e-07
-7.42595e-07
-7.49724e-07
-7.56833e-07
-7.63921e-07
-7.7099e-07
-7.78039e-07
-7.8507e-07
-7.92083e-07
-7.99079e-07
-8.06058e-07
-8.13021e-07
-8.19968e-07
-8.269e-07
-8.33818e-07
-8.40721e-07
-8.47611e-07
-8.54488e-07
-8.61351e-07
-8.68203e-07
-8.75043e-07
-8.81872e-07
-8.88689e-07
-8.95496e-07
-9.02292e-07
-9.09079e-07
-9.15856e-07
-9.22625e-07
-9.29385e-07
-9.36136e-07
-9.42879e-07
-9.49615e-07
-9.56344e-07
-9.63065e-07
-9.6978e-07
-9.76489e-07
-9.83191e-07
-9.89888e-07
-9.96579e-07
-1.00327e-06
-1.00995e-06
-1.01662e-06
-1.0233e-06
-1.02997e-06
-1.03663e-06
-1.04329e-06
-1.04995e-06
-1.05661e-06
-1.06326e-06
-1.06991e-06
-1.07656e-06
-1.0832e-06
-1.08985e-06
-1.09649e-06
-1.10313e-06
-1.10977e-06
-1.11641e-06
-1.12305e-06
-1.12969e-06
-1.13633e-06
-1.14297e-06
-1.14961e-06
-1.15624e-06
-1.16288e-06
-1.16953e-06
-1.17617e-06
-1.18281e-06
-1.18946e-06
-1.1961e-06
-1.20275e-06
-1.2094e-06
-1.21605e-06
-1.22271e-06
-1.22937e-06
-1.23603e-06
-1.24269e-06
-1.24936e-06
-1.25603e-06
-1.2627e-06
-1.26938e-06
-1.27606e-06
-1.28274e-06
-1.28943e-06
-1.29613e-06
-1.30282e-06
-1.30953e-06
-1.31623e-06
-1.32295e-06
-1.32967e-06
-1.33639e-06
-1.34312e-06
-1.34985e-06
-1.35659e-06
-1.36334e-06
-1.37009e-06
-1.37685e-06
-1.38362e-06
-1.39039e-06
-1.39717e-06
-1.40396e-06
-1.41075e-06
-1.41755e-06
-1.42436e-06
-1.43117e-06
-1.438e-06
-1.44483e-06
-1.45167e-06
-1.45852e-06
-1.46537e-06
-1.47224e-06
-1.47911e-06
-1.486e-06
-1.49289e-06
-1.49979e-06
-1.5067e-06
-1.51362e-06
-1.52055e-06
-1.52749e-06
-1.53444e-06
-1.5414e-06
-1.54837e-06
-1.55536e-06
-1.56235e-06
-1.56935e-06
-1.57637e-06
-1.58339e-06
-1.59043e-06
-1.59748e-06
-1.60454e-06
-1.61161e-06
-1.6187e-06
-1.6258e-06
-1.63291e-06
-1.64003e-06
-1.64717e-06
-1.65432e-06
-1.66148e-06
-1.66866e-06
-1.67585e-06
-1.68306e-06
-1.69027e-06
-1.69751e-06
-1.70476e-06
-1.71202e-06
-1.7193e-06
-1.72659e-06
-1.73391e-06
-1.74122e-06
-1.74859e-06
-1.75589e-06
-1.76339e-06
-1.77054e-06
-1.77842e-06
-1.78497e-06
-1.79401e-06
-1.79866e-06
-1.8109e-06
-1.81068e-06
-1.83024e-06
-1.81976e-06
-1.85316e-06
-1.82521e-06
-1.87963e-06
-1.82806e-06
-1.90757e-06
-1.8312e-06
-1.93378e-06
-1.83764e-06
-1.95588e-06
-1.84921e-06
-1.97229e-06
-1.86775e-06
-1.98136e-06
-1.89425e-06
-1.98497e-06
-1.92341e-06
-1.99371e-06
-1.94419e-06
-2.01659e-06
-1.96437e-06
-2.02862e-06
-2.03714e-06
-1.97695e-06
-2.20642e-06
-1.76975e-06
-2.623e-06
6.2194e-07
-2.02631e-06
-2.02631e-06
-0.146489
0.146489
0.0383123
0.014236
0.00745796
0.00467466
0.00323239
0.00237829
0.00182875
0.00145457
0.00118879
0.000993576
0.000846197
0.000732165
0.000641774
0.000568369
0.000507483
0.000456213
0.000412577
0.000374934
0.000341709
0.000311484
0.000283242
0.000256427
0.000230716
0.000205706
0.000180872
0.000155897
0.000131114
0.000107673
8.72069e-05
7.11434e-05
6.00498e-05
5.3365e-05
4.96382e-05
4.71024e-05
4.42726e-05
4.03139e-05
3.50971e-05
2.90144e-05
2.27002e-05
1.67777e-05
1.16999e-05
7.6913e-06
4.76851e-06
2.80229e-06
1.58949e-06
9.13511e-07
5.83744e-07
4.53877e-07
4.2407e-07
4.33804e-07
4.51191e-07
4.6262e-07
4.64616e-07
4.58372e-07
4.46539e-07
4.31673e-07
4.15656e-07
3.99642e-07
3.84208e-07
3.69549e-07
3.5564e-07
3.42355e-07
3.29537e-07
3.17034e-07
3.04714e-07
2.92473e-07
2.8023e-07
2.67925e-07
2.55511e-07
2.42956e-07
2.30234e-07
2.1733e-07
2.0423e-07
1.90926e-07
1.77412e-07
1.63687e-07
1.49747e-07
1.35597e-07
1.21236e-07
1.0667e-07
9.19024e-08
7.69412e-08
6.1791e-08
4.64615e-08
3.09587e-08
1.52935e-08
-5.27374e-10
-1.64924e-08
-3.25942e-08
-4.8821e-08
-6.51652e-08
-8.1615e-08
-9.81628e-08
-1.14797e-07
-1.31509e-07
-1.4829e-07
-1.6513e-07
-1.82019e-07
-1.98951e-07
-2.15914e-07
-2.32902e-07
-2.49906e-07
-2.66918e-07
-2.8393e-07
-3.00936e-07
-3.17926e-07
-3.34896e-07
-3.51837e-07
-3.68744e-07
-3.8561e-07
-4.02431e-07
-4.19198e-07
-4.35908e-07
-4.52555e-07
-4.69135e-07
-4.85641e-07
-5.02072e-07
-5.18421e-07
-5.34687e-07
-5.50863e-07
-5.66949e-07
-5.82938e-07
-5.98831e-07
-6.14623e-07
-6.30313e-07
-6.45897e-07
-6.61375e-07
-6.76743e-07
-6.92002e-07
-7.07149e-07
-7.22183e-07
-7.37103e-07
-7.51909e-07
-7.66599e-07
-7.81174e-07
-7.95633e-07
-8.09976e-07
-8.24202e-07
-8.38313e-07
-8.52308e-07
-8.66188e-07
-8.79953e-07
-8.93605e-07
-9.07142e-07
-9.20569e-07
-9.33882e-07
-9.47086e-07
-9.6018e-07
-9.73167e-07
-9.86046e-07
-9.98821e-07
-1.01149e-06
-1.02406e-06
-1.03652e-06
-1.04889e-06
-1.06116e-06
-1.07333e-06
-1.0854e-06
-1.09739e-06
-1.10928e-06
-1.12108e-06
-1.13279e-06
-1.14442e-06
-1.15596e-06
-1.16742e-06
-1.1788e-06
-1.19009e-06
-1.20131e-06
-1.21246e-06
-1.22352e-06
-1.23452e-06
-1.24544e-06
-1.2563e-06
-1.26708e-06
-1.2778e-06
-1.28846e-06
-1.29905e-06
-1.30958e-06
-1.32005e-06
-1.33046e-06
-1.34081e-06
-1.35111e-06
-1.36135e-06
-1.37154e-06
-1.38168e-06
-1.39177e-06
-1.40181e-06
-1.4118e-06
-1.42175e-06
-1.43165e-06
-1.4415e-06
-1.45132e-06
-1.46109e-06
-1.47082e-06
-1.48052e-06
-1.49017e-06
-1.49979e-06
-1.50937e-06
-1.51892e-06
-1.52843e-06
-1.53791e-06
-1.54736e-06
-1.55678e-06
-1.56616e-06
-1.57552e-06
-1.58485e-06
-1.59415e-06
-1.60343e-06
-1.61268e-06
-1.6219e-06
-1.6311e-06
-1.64028e-06
-1.64943e-06
-1.65856e-06
-1.66767e-06
-1.67676e-06
-1.68583e-06
-1.69488e-06
-1.70391e-06
-1.71292e-06
-1.72192e-06
-1.7309e-06
-1.73986e-06
-1.7488e-06
-1.75774e-06
-1.76665e-06
-1.77555e-06
-1.78444e-06
-1.79332e-06
-1.80218e-06
-1.81103e-06
-1.81986e-06
-1.82869e-06
-1.83751e-06
-1.84631e-06
-1.85511e-06
-1.8639e-06
-1.87267e-06
-1.88144e-06
-1.8902e-06
-1.89895e-06
-1.9077e-06
-1.91643e-06
-1.92516e-06
-1.93389e-06
-1.94261e-06
-1.95132e-06
-1.96002e-06
-1.96873e-06
-1.97742e-06
-1.98612e-06
-1.99481e-06
-2.00349e-06
-2.01217e-06
-2.02085e-06
-2.02953e-06
-2.0382e-06
-2.04687e-06
-2.05554e-06
-2.06421e-06
-2.07288e-06
-2.08154e-06
-2.09021e-06
-2.09887e-06
-2.10754e-06
-2.1162e-06
-2.12487e-06
-2.13353e-06
-2.1422e-06
-2.15087e-06
-2.15954e-06
-2.16821e-06
-2.17688e-06
-2.18555e-06
-2.19423e-06
-2.20291e-06
-2.21159e-06
-2.22028e-06
-2.22897e-06
-2.23766e-06
-2.24636e-06
-2.25506e-06
-2.26376e-06
-2.27247e-06
-2.28118e-06
-2.2899e-06
-2.29862e-06
-2.30735e-06
-2.31609e-06
-2.32483e-06
-2.33357e-06
-2.34233e-06
-2.35108e-06
-2.35985e-06
-2.36862e-06
-2.3774e-06
-2.38619e-06
-2.39498e-06
-2.40378e-06
-2.41259e-06
-2.42141e-06
-2.43023e-06
-2.43907e-06
-2.44791e-06
-2.45676e-06
-2.46562e-06
-2.47449e-06
-2.48337e-06
-2.49226e-06
-2.50116e-06
-2.51007e-06
-2.51899e-06
-2.52792e-06
-2.53686e-06
-2.54581e-06
-2.55477e-06
-2.56375e-06
-2.57273e-06
-2.58173e-06
-2.59074e-06
-2.59976e-06
-2.60879e-06
-2.61784e-06
-2.6269e-06
-2.63597e-06
-2.64506e-06
-2.65416e-06
-2.66327e-06
-2.67239e-06
-2.68153e-06
-2.69069e-06
-2.69986e-06
-2.70904e-06
-2.71824e-06
-2.72746e-06
-2.73669e-06
-2.74593e-06
-2.7552e-06