# vtk DataFile Version 2.0
FlowField
ASCII
DATASET STRUCTURED_GRID
DIMENSIONS 400 1 200
POINTS 80000 float
0 0 0
0.08 0 0
0.16 0 0
0.24 0 0
0.32 0 0
0.4 0 0
0.48 0 0
0.56 0 0
0.64 0 0
0.72 0 0
0.8 0 0
0.88 0 0
0.96 0 0
1.04 0 0
1.12 0 0
1.2 0 0
1.28 0 0
1.36 0 0
1.44 0 0
1.52 0 0
1.6 0 0
1.68 0 0
1.76 0 0
1.84 0 0
1.92 0 0
2 0 0
2.08 0 0
2.16 0 0
2.24 0 0
2.32 0 0
2.4 0 0
2.48 0 0
2.56 0 0
2.64 0 0
2.72 0 0
2.8 0 0
2.88 0 0
2.96 0 0
3.04 0 0
3.12 0 0
3.2 0 0
3.28 0 0
3.36 0 0
3.44 0 0
3.52 0 0
3.6 0 0
3.68 0 0
3.76 0 0
3.84 0 0
3.92 0 0
4 0 0
4.08 0 0
4.16 0 0
4.24 0 0
4.32 0 0
4.4 0 0
4.48 0 0
4.56 0 0
4.64 0 0
4.72 0 0
4.8 0 0
4.88 0 0
4.96 0 0
5.04 0 0
5.12 0 0
5.2 0 0
5.28 0 0
5.36 0 0
5.44 0 0
5.52 0 0
5.6 0 0
5.68 0 0
5.76 0 0
5.84 0 0
5.92 0 0
6 0 0
6.08 0 0
6.16 0 0
6.24 0 0
6.32 0 0
6.4 0 0
6.48 0 0
6.56 0 0
6.64 0 0
6.72 0 0
6.8 0 0
6.88 0 0
6.96 0 0
7.04 0 0
7.12 0 0
7.2 0 0
7.28 0 0
7.36 0 0
7.44 0 0
7.52 0 0
7.6 0 0
7.68 0 0
7.76 0 0
7.84 0 0
7.92 0 0
8 0 0
8.08 0 0
8.16 0 0
8.24 0 0
8.32 0 0
8.4 0 0
8.48 0 0
8.56 0 0
8.64 0 0
8.72 0 0
8.8 0 0
8.88 0 0
8.96 0 0
9.04 0 0
9.12 0 0
9.2 0 0
9.28 0 0
9.36 0 0
9.44 0 0
9.52 0 0
9.6 0 0
9.68 0 0
9.76 0 0
9.84 0 0
9.92 0 0
10 0 0
10.08 0 0
10.16 0 0
10.24 0 0
10.32 0 0
10.4 0 0
10.48 0 0
10.56 0 0
10.64 0 0
10.72 0 0
10.8 0 0
10.88 0 0
10.96 0 0
11.04 0 0
11.12 0 0
11.2 0 0
11.28 0 0
11.36 0 0
11.44 0 0
11.52 0 0
11.6 0 0
11.68 0 0
11.76 0 0
11.84 0 0
11.92 0 0
12 0 0
12.08 0 0
12.16 0 0
12.24 0 0
12.32 0 0
12.4 0 0
12.48 0 0
12.56 0 0
12.64 0 0
12.72 0 0
12.8 0 0
12.88 0 0
12.96 0 0
13.04 0 0
13.12 0 0
13.2 0 0
13.28 0 0
13.36 0 0
13.44 0 0
13.52 0 0
13.6 0 0
13.68 0 0
13.76 0 0
13.84 0 0
13.92 0 0
14 0 0
14.08 0 0
14.16 0 0
14.24 0 0
14.32 0 0
14.4 0 0
14.48 0 0
14.56 0 0
14.64 0 0
14.72 0 0
14.8 0 0
14.88 0 0
14.96 0 0
15.04 0 0
15.12 0 0
15.2 0 0
15.28 0 0
15.36 0 0
15.44 0 0
15.52 0 0
15.6 0 0
15.68 0 0
15.76 0 0
15.84 0 0
15.92 0 0
16 0 0
16.08 0 0
16.16 0 0
16.24 0 0
16.32 0 0
16.4 0 0
16.48 0 0
16.56 0 0
16.64 0 0
16.72 0 0
16.8 0 0
16.88 0 0
16.96 0 0
17.04 0 0
17.12 0 0
17.2 0 0
17.28 0 0
17.36 0 0
17.44 0 0
17.52 0 0
17.6 0 0
17.68 0 0
17.76 0 0
17.84 0 0
17.92 0 0
18 0 0
18.08 0 0
18.16 0 0
18.24 0 0
18.32 0 0
18.4 0 0
18.48 0 0
18.56 0 0
18.64 0 0
18.72 0 0
18.8 0 0
18.88 0 0
18.96 0 0
19.04 0 0
19.12 0 0
19.2 0 0
19.28 0 0
19.36 0 0
19.44 0 0
19.52 0 0
19.6 0 0
19.68 0 0
19.76 0 0
19.84 0 0
19.92 0 0
20 0 0
20.08 0 0
20.16 0 0
20.24 0 0
20.32 0 0
20.4 0 0
20.48 0 0
20.56 0 0
20.64 0 0
20.72 0 0
20.8 0 0
20.88 0 0
20.96 0 0
21.04 0 0
21.12 0 0
21.2 0 0
21.28 0 0
21.36 0 0
21.44 0 0
21.52 0 0
21.6 0 0
21.68 0 0
21.76 0 0
21.84 0 0
21.92 0 0
22 0 0
22.08 0 0
22.16 0 0
22.24 0 0
22.32 0 0
22.4 0 0
22.48 0 0
22.56 0 0
22.64 0 0
22.72 0 0
22.8 0 0
22.88 0 0
22.96 0 0
23.04 0 0
23.12 0 0
23.2 0 0
23.28 0 0
23.36 0 0
23.44 0 0
23.52 0 0
23.6 0 0
23.68 0 0
23.76 0 0
23.84 0 0
23.92 0 0
24 0 0
24.08 0 0
24.16 0 0
24.24 0 0
24.32 0 0
24.4 0 0
24.48 0 0
24.56 0 0
24.64 0 0
24.72 0 0
24.8 0 0
24.88 0 0
24.96 0 0
25.04 0 0
25.12 0 0
25.2 0 0
25.28 0 0
25.36 0 0
25.44 0 0
25.52 0 0
25.6 0 0
25.68 0 0
25.76 0 0
25.84 0 0
25.92 0 0
26 0 0
26.08 0 0
26.16 0 0
26.24 0 0
26.32 0 0
26.4 0 0
26.48 0 0
26.56 0 0
26.64 0 0
26.72 0 0
26.8 0 0
26.88 0 0
26.96 0 0
27.04 0 0
27.12 0 0
27.2 0 0
27.28 0 0
27.36 0 0
27.44 0 0
27.52 0 0
27.6 0 0
27.68 0 0
27.76 0 0
27.84 0 0
27.92 0 0
28 0 0
28.08 0 0
28.16 0 0
28.24 0 0
28.32 0 0
28.4 0 0
28.48 0 0
28.56 0 0
28.64 0 0
28.72 0 0
28.8 0 0
28.88 0 0
28.96 0 0
29.04 0 0
29.12 0 0
29.2 0 0
29.28 0 0
29.36 0 0
29.44 0 0
29.52 0 0
29.6 0 0
29.68 0 0
29.76 0 0
29.84 0 0
29.92 0 0
30 0 0
30.08 0 0
30.16 0 0
30.24 0 0
30.32 0 0
30.4 0 0
30.48 0 0
30.56 0 0
30.64 0 0
30.72 0 0
30.8 0 0
30.88 0 0
30.96 0 0
31.04 0 0
31.12 0 0
31.2 0 0
31.28 0 0
31.36 0 0
31.44 0 0
31.52 0 0
31.6 0 0
31.68 0 0
31.76 0 0
31.84 0 0
31.92 0 0
0 0.005 0
0.08 0.005 0
0.16 0.005 0
0.24 0.005 0
0.32 0.005 0
0.4 0.005 0
0.48 0.005 0
0.56 0.005 0
0.64 0.005 0
0.72 0.005 0
0.8 0.005 0
0.88 0.005 0
0.96 0.005 0
1.04 0.005 0
1.12 0.005 0
1.2 0.005 0
1.28 0.005 0
1.36 0.005 0
1.44 0.005 0
1.52 0.005 0
1.6 0.005 0
1.68 0.005 0
1.76 0.005 0
1.84 0.005 0
1.92 0.005 0
2 0.005 0
2.08 0.005 0
2.16 0.005 0
2.24 0.005 0
2.32 0.005 0
2.4 0.005 0
2.48 0.005 0
2.56 0.005 0
2.64 0.005 0
2.72 0.005 0
2.8 0.005 0
2.88 0.005 0
2.96 0.005 0
3.04 0.005 0
3.12 0.005 0
3.2 0.005 0
3.28 0.005 0
3.36 0.005 0
3.44 0.005 0
3.52 0.005 0
3.6 0.005 0
3.68 0.005 0
3.76 0.005 0
3.84 0.005 0
3.92 0.005 0
4 0.005 0
4.08 0.005 0
4.16 0.005 0
4.24 0.005 0
4.32 0.005 0
4.4 0.005 0
4.48 0.005 0
4.56 0.005 0
4.64 0.005 0
4.72 0.005 0
4.8 0.005 0
4.88 0.005 0
4.96 0.005 0
5.04 0.005 0
5.12 0.005 0
5.2 0.005 0
5.28 0.005 0
5.36 0.005 0
5.44 0.005 0
5.52 0.005 0
5.6 0.005 0
5.68 0.005 0
5.76 0.005 0
5.84 0.005 0
5.92 0.005 0
6 0.005 0
6.08 0.005 0
6.16 0.005 0
6.24 0.005 0
6.32 0.005 0
6.4 0.005 0
6.48 0.005 0
6.56 0.005 0
6.64 0.005 0
6.72 0.005 0
6.8 0.005 0
6.88 0.005 0
6.96 0.005 0
7.04 0.005 0
7.12 0.005 0
7.2 0.005 0
7.28 0.005 0
7.36 0.005 0
7.44 0.005 0
7.52 0.005 0
7.6 0.005 0
7.68 0.005 0
7.76 0.005 0
7.84 0.005 0
7.92 0.005 0
8 0.005 0
8.08 0.005 0
8.16 0.005 0
8.24 0.005 0
8.32 0.005 0
8.4 0.005 0
8.48 0.005 0
8.56 0.005 0
8.64 0.005 0
8.72 0.005 0
8.8 0.005 0
8.88 0.005 0
8.96 0.005 0
9.04 0.005 0
9.12 0.005 0
9.2 0.005 0
9.28 0.005 0
9.36 0.005 0
9.44 0.005 0
9.52 0.005 0
9.6 0.005 0
9.68 0.005 0
9.76 0.005 0
9.84 0.005 0
9.92 0.005 0
10 0.005 0
10.08 0.005 0
10.16 0.005 0
10.24 0.005 0
10.32 0.005 0
10.4 0.005 0
10.48 0.005 0
10.56 0.005 0
10.64 0.005 0
10.72 0.005 0
10.8 0.005 0
10.88 0.005 0
10.96 0.005 0
11.04 0.005 0
11.12 0.005 0
11.2 0.005 0
11.28 0.005 0
11.36 0.005 0
11.44 0.005 0
11.52 0.005 0
11.6 0.005 0
11.68 0.005 0
11.76 0.005 0
11.84 0.005 0
11.92 0.005 0
12 0.005 0
12.08 0.005 0
12.16 0.005 0
12.24 0.005 0
12.32 0.005 0
12.4 0.005 0
12.48 0.005 0
12.56 0.005 0
12.64 0.005 0
12.72 0.005 0
12.8 0.005 0
12.88 0.005 0
12.96 0.005 0
13.04 0.005 0
13.12 0.005 0
13.2 0.005 0
13.28 0.005 0
13.36 0.005 0
13.44 0.005 0
13.52 0.005 0
13.6 0.005 0
13.68 0.005 0
13.76 0.005 0
13.84 0.005 0
13.92 0.005 0
14 0.005 0
14.08 0.005 0
14.16 0.005 0
14.24 0.005 0
14.32 0.005 0
14.4 0.005 0
14.48 0.005 0
14.56 0.005 0
14.64 0.005 0
14.72 0.005 0
14.8 0.005 0
14.88 0.005 0
14.96 0.005 0
15.04 0.005 0
15.12 0.005 0
15.2 0.005 0
15.28 0.005 0
15.36 0.005 0
15.44 0.005 0
15.52 0.005 0
15.6 0.005 0
15.68 0.005 0
15.76 0.005 0
15.84 0.005 0
15.92 0.005 0
16 0.005 0
16.08 0.005 0
16.16 0.005 0
16.24 0.005 0
16.32 0.005 0
16.4 0.005 0
16.48 0.005 0
16.56 0.005 0
16.64 0.005 0
16.72 0.005 0
16.8 0.005 0
16.88 0.005 0
16.96 0.005 0
17.04 0.005 0
17.12 0.005 0
17.2 0.005 0
17.28 0.005 0
17.36 0.005 0
17.44 0.005 0
17.52 0.005 0
17.6 0.005 0
17.68 0.005 0
17.76 0.005 0
17.84 0.005 0
17.92 0.005 0
18 0.005 0
18.08 0.005 0
18.16 0.005 0
18.24 0.005 0
18.32 0.005 0
18.4 0.005 0
18.48 0.005 0
18.56 0.005 0
18.64 0.005 0
18.72 0.005 0
18.8 0.005 0
18.88 0.005 0
18.96 0.005 0
19.04 0.005 0
19.12 0.005 0
19.2 0.005 0
19.28 0.005 0
19.36 0.005 0
19.44 0.005 0
19.52 0.005 0
19.6 0.005 0
19.68 0.005 0
19.76 0.005 0
19.84 0.005 0
19.92 0.005 0
20 0.005 0
20.08 0.005 0
20.16 0.005 0
20.24 0.005 0
20.32 0.005 0
20.4 0.005 0
20.48 0.005 0
20.56 0.005 0
20.64 0.005 0
20.72 0.005 0
20.8 0.005 0
20.88 0.005 0
20.96 0.005 0
21.04 0.005 0
21.12 0.005 0
21.2 0.005 0
21.28 0.005 0
21.36 0.005 0
21.44 0.005 0
21.52 0.005 0
21.6 0.005 0
21.68 0.005 0
21.76 0.005 0
21.84 0.005 0
21.92 0.005 0
22 0.005 0
22.08 0.005 0
22.16 0.005 0
22.24 0.005 0
22.32 0.005 0
22.4 0.005 0
22.48 0.005 0
22.56 0.005 0
22.64 0.005 0
22.72 0.005 0
22.8 0.005 0
22.88 0.005 0
22.96 0.005 0
23.04 0.005 0
23.12 0.005 0
23.2 0.005 0
23.28 0.005 0
23.36 0.005 0
23.44 0.005 0
23.52 0.005 0
23.6 0.005 0
23.68 0.005 0
23.76 0.005 0
23.84 0.005 0
23.92 0.005 0
24 0.005 0
24.08 0.005 0
24.16 0.005 0
24.24 0.005 0
24.32 0.005 0
24.4 0.005 0
24.48 0.005 0
24.56 0.005 0
24.64 0.005 0
24.72 0.005 0
24.8 0.005 0
24.88 0.005 0
24.96 0.005 0
25.04 0.005 0
25.12 0.005 0
25.2 0.005 0
25.28 0.005 0
25.36 0.005 0
25.44 0.005 0
25.52 0.005 0
25.6 0.005 0
25.68 0.005 0
25.76 0.005 0
25.84 0.005 0
25.92 0.005 0
26 0.005 0
26.08 0.005 0
26.16 0.005 0
26.24 0.005 0
26.32 0.005 0
26.4 0.005 0
26.48 0.005 0
26.56 0.005 0
26.64 0.005 0
26.72 0.005 0
26.8 0.005 0
26.88 0.005 0
26.96 0.005 0
27.04 0.005 0
27.12 0.005 0
27.2 0.005 0
27.28 0.005 0
27.36 0.005 0
27.44 0.005 0
27.52 0.005 0
27.6 0.005 0
27.68 0.005 0
27.76 0.005 0
27.84 0.005 0
27.92 0.005 0
28 0.005 0
28.08 0.005 0
28.16 0.005 0
28.24 0.005 0
28.32 0.005 0
28.4 0.005 0
28.48 0.005 0
28.56 0.005 0
28.64 0.005 0
28.72 0.005 0
28.8 0.005 0
28.88 0.005 0
28.96 0.005 0
29.04 0.005 0
29.12 0.005 0
29.2 0.005 0
29.28 0.005 0
29.36 0.005 0
29.44 0.005 0
29.52 0.005 0
29.6 0.005 0
29.68 0.005 0
29.76 0.005 0
29.84 0.005 0
29.92 0.005 0
30 0.005 0
30.08 0.005 0
30.16 0.005 0
30.24 0.005 0
30.32 0.005 0
30.4 0.005 0
30.48 0.005 0
30.56 0.005 0
30.64 0.005 0
30.72 0.005 0
30.8 0.005 0
30.88 0.005 0
30.96 0.005 0
31.04 0.005 0
31.12 0.005 0
31.2 0.005 0
31.28 0.005 0
31.36 0.005 0
31.44 0.005 0
31.52 0.005 0
31.6 0.005 0
31.68 0.005 0
31.76 0.005 0
31.84 0.005 0
31.92 0.005 0
0 0.01 0
0.08 0.01 0
0.16 0.01 0
0.24 0.01 0
0.32 0.01 0
0.4 0.01 0
0.48 0.01 0
0.56 0.01 0
0.64 0.01 0
0.72 0.01 0
0.8 0.01 0
0.88 0.01 0
0.96 0.01 0
1.04 0.01 0
1.12 0.01 0
1.2 0.01 0
1.28 0.01 0
1.36 0.01 0
1.44 0.01 0
1.52 0.01 0
1.6 0.01 0
1.68 0.01 0
1.76 0.01 0
1.84 0.01 0
1.92 0.01 0
2 0.01 0
2.08 0.01 0
2.16 0.01 0
2.24 0.01 0
2.32 0.01 0
2.4 0.01 0
2.48 0.01 0
2.56 0.01 0
2.64 0.01 0
2.72 0.01 0
2.8 0.01 0
2.88 0.01 0
2.96 0.01 0
3.04 0.01 0
3.12 0.01 0
3.2 0.01 0
3.28 0.01 0
3.36 0.01 0
3.44 0.01 0
3.52 0.01 0
3.6 0.01 0
3.68 0.01 0
3.76 0.01 0
3.84 0.01 0
3.92 0.01 0
4 0.01 0
4.08 0.01 0
4.16 0.01 0
4.24 0.01 0
4.32 0.01 0
4.4 0.01 0
4.48 0.01 0
4.56 0.01 0
4.64 0.01 0
4.72 0.01 0
4.8 0.01 0
4.88 0.01 0
4.96 0.01 0
5.04 0.01 0
5.12 0.01 0
[...]
POINT_DATA 80000

SCALARS u float 1
LOOKUP_TABLE default
0
-0.131683
-0.0683085
-0.052358
-0.044502
-0.0396778
-0.0363949
-0.0340229
-0.0322237
-0.030808
-0.0296923
-0.0288487
-0.0282529
-0.02786
-0.0276131
-0.0274606
-0.0273671
-0.0273116
-0.0272819
-0.0272698
-0.0272685
-0.0272725
-0.027278
-0.0272826
-0.0272854
-0.027286
-0.027285
-0.0272827
-0.0272794
-0.0272756
-0.0272715
-0.0272672
-0.0272628
-0.0272583
-0.0272538
-0.0272493
-0.0272448
-0.0272403
-0.0272358
-0.0272313
-0.0272268
-0.0272223
-0.0272178
-0.0272132
-0.0272087
-0.0272041
-0.0271995
-0.0271949
-0.0271903
-0.0271857
-0.027181
-0.0271763
-0.0271716
-0.0271669
-0.0271621
-0.0271573
-0.0271525
-0.0271477
-0.0271428
-0.0271379
-0.0271329
-0.027128
-0.027123
-0.0271179
-0.0271128
-0.0271077
-0.0271025
-0.0270973
-0.027092
-0.0270867
-0.0270813
-0.0270759
-0.0270705
-0.027065
-0.0270594
-0.0270538
-0.0270481
-0.0270424
-0.0270366
-0.0270308
-0.0270249
-0.0270189
-0.0270128
-0.0270067
-0.0270006
-0.0269943
-0.026988
-0.0269816
-0.0269751
-0.0269686
-0.0269619
-0.0269552
-0.0269484
-0.0269416
-0.0269346
-0.0269275
-0.0269204
-0.0269131
-0.0269058
-0.0268983
-0.0268908
-0.0268831
-0.0268754
-0.0268675
-0.0268595
-0.0268514
-0.0268432
-0.0268349
-0.0268264
-0.0268178
-0.0268091
-0.0268002
-0.0267913
-0.0267821
-0.0267728
-0.0267634
-0.0267539
-0.0267441
-0.0267342
-0.0267242
-0.026714
-0.0267036
-0.026693
-0.0266823
-0.0266713
-0.0266602
-0.0266489
-0.0266374
-0.0266257
-0.0266138
-0.0266016
-0.0265892
-0.0265766
-0.0265638
-0.0265507
-0.0265374
-0.0265239
-0.02651
-0.0264959
-0.0264815
-0.0264669
-0.0264519
-0.0264367
-0.0264211
-0.0264052
-0.026389
-0.0263725
-0.0263556
-0.0263383
-0.0263207
-0.0263027
-0.0262844
-0.0262656
-0.0262464
-0.0262268
-0.0262068
-0.0261863
-0.0261653
-0.0261439
-0.026122
-0.0260996
-0.0260767
-0.0260533
-0.0260293
-0.0260048
-0.0259798
-0.0259541
-0.0259279
-0.025901
-0.0258736
-0.0258455
-0.0258168
-0.0257874
-0.0257574
-0.0257267
-0.0256954
-0.0256633
-0.0256306
-0.0255971
-0.025563
-0.0255282
-0.0254926
-0.0254564
-0.0254194
-0.0253818
-0.0253435
-0.0253045
-0.0252648
-0.0252246
-0.0251837
-0.0251422
-0.0251001
-0.0250575
-0.0250145
-0.0249709
-0.024927
-0.0248827
-0.0248381
-0.0247933
-0.0247483
-0.0247032
-0.0246581
-0.024613
-0.0245681
-0.0245234
-0.0244791
-0.0244353
-0.024392
-0.0243494
-0.0243076
-0.0242668
-0.024227
-0.0241885
-0.0241513
-0.0241156
-0.0240817
-0.0240495
-0.0240194
-0.0239914
-0.0239657
-0.0239426
-0.0239221
-0.0239045
-0.0238899
-0.0238785
-0.0238705
-0.023866
-0.0238653
-0.0238684
-0.0238755
-0.0238869
-0.0239026
-0.0239229
-0.0239477
-0.0239773
-0.0240119
-0.0240514
-0.024096
-0.0241459
-0.024201
-0.0242615
-0.0243273
-0.0243987
-0.0244755
-0.0245578
-0.0246456
-0.0247389
-0.0248377
-0.0249419
-0.0250514
-0.0251663
-0.0252863
-0.0254115
-0.0255416
-0.0256766
-0.0258162
-0.0259605
-0.0261091
-0.0262619
-0.0264187
-0.0265793
-0.0267434
-0.0269109
-0.0270815
-0.027255
-0.027431
-0.0276095
-0.02779
-0.0279723
-0.0281563
-0.0283414
-0.0285277
-0.0287146
-0.028902
-0.0290896
-0.0292772
-0.0294644
-0.0296511
-0.0298369
-0.0300216
-0.0302051
-0.0303869
-0.0305671
-0.0307452
-0.0309212
-0.0310948
-0.0312658
-0.0314342
-0.0315996
-0.0317621
-0.0319214
-0.0320774
-0.0322301
-0.0323793
-0.032525
-0.032667
-0.0328054
-0.03294
-0.0330709
-0.033198
-0.0333212
-0.0334407
-0.0335564
-0.0336683
-0.0337765
-0.0338809
-0.0339817
-0.0340788
-0.0341724
-0.0342624
-0.0343491
-0.0344323
-0.0345123
-0.0345891
-0.0346627
-0.0347334
-0.0348011
-0.034866
-0.0349281
-0.0349876
-0.0350446
-0.0350991
-0.0351513
-0.0352012
-0.035249
-0.0352947
-0.0353385
-0.0353804
-0.0354206
-0.0354591
-0.035496
-0.0355314
-0.0355654
-0.035598
-0.0356294
-0.0356596
-0.0356888
-0.0357168
-0.0357439
-0.0357701
-0.0357955
-0.03582
-0.0358438
-0.035867
-0.0358895
-0.0359115
-0.0359329
-0.0359538
-0.0359742
-0.0359943
-0.036014
-0.0360333
-0.0360523
-0.036071
-0.0360894
-0.0361077
-0.0361257
-0.0361435
-0.0361612
-0.0361786
-0.036196
-0.0362133
-0.0362304
-0.0362475
-0.0362645
-0.0362814
-0.0362982
-0.036315
-0.0363318
-0.0363486
-0.0363653
-0.036382
-0.0363988
-0.0364155
-0.0364322
-0.0364489
-0.0364656
-0.0364824
-0.0364992
-0.036516
-0.0365328
-0.0365497
-0.0365666
-0.0365835
-0.0366004
-0.0366175
-0.0366343
-0.036652
-0.0366679
-0.0366876
-0.0367005
-0.0367247
-0.0367333
-0.0367608
-0.0367702
-0.0367942
-0.0368118
-0.0368121
-0.0368121
-0.0368121
1
0.131683
0.0683085
0.052358
0.044502
0.0396778
0.0363949
0.0340229
0.0322237
0.030808
0.0296923
0.0288487
0.0282529
0.02786
0.0276131
0.0274606
0.0273671
0.0273116
0.0272819
0.0272698
0.0272685
0.0272725
0.027278
0.0272826
0.0272854
0.027286
0.027285
0.0272827
0.0272794
0.0272756
0.0272715
0.0272672
0.0272628
0.0272583
0.0272538
0.0272493
0.0272448
0.0272403
0.0272358
0.0272313
0.0272268
0.0272223
0.0272178
0.0272132
0.0272087
0.0272041
0.0271995
0.0271949
0.0271903
0.0271857
0.027181
0.0271763
0.0271716
0.0271669
0.0271621
0.0271573
0.0271525
0.0271477
0.0271428
0.0271379
0.0271329
0.027128
0.027123
0.0271179
0.0271128
0.0271077
0.0271025
0.0270973
0.027092
0.0270867
0.0270813
0.0270759
0.0270705
0.027065
0.0270594
0.0270538
0.0270481
0.0270424
0.0270366
0.0270308
0.0270249
0.0270189
0.0270128
0.0270067
0.0270006
0.0269943
0.026988
0.0269816
0.0269751
0.0269686
0.0269619
0.0269552
0.0269484
0.0269416
0.0269346
0.0269275
0.0269204
0.0269131
0.0269058
0.0268983
0.0268908
0.0268831
0.0268754
0.0268675
0.0268595
0.0268514
0.0268432
0.0268349
0.0268264
0.0268178
0.0268091
0.0268002
0.0267913
0.0267821
0.0267728
0.0267634
0.0267539
0.0267441
0.0267342
0.0267242
0.026714
0.0267036
0.026693
0.0266823
0.0266713
0.0266602
0.0266489
0.0266374
0.0266257
0.0266138
0.0266016
0.0265892
0.0265766
0.0265638
0.0265507
0.0265374
0.0265239
0.02651
0.0264959
0.0264815
0.0264669
0.0264519
0.0264367
0.0264211
0.0264052
0.026389
0.0263725
0.0263556
0.0263383
0.0263207
0.0263027
0.0262844
0.0262656
0.0262464
0.0262268
0.0262068
0.0261863
0.0261653
0.0261439
0.026122
0.0260996
0.0260767
0.0260533
0.0260293
0.0260048
0.0259798
0.0259541
0.0259279
0.025901
0.0258736
0.0258455
0.0258168
0.0257874
0.0257574
0.0257267
0.0256954
0.0256633
0.0256306
0.0255971
0.025563
0.0255282
0.0254926
0.0254564
0.0254194
0.0253818
0.0253435
0.0253045
0.0252648
0.0252246
0.0251837
0.0251422
0.0251001
0.0250575
0.0250145
0.0249709
0.024927
0.0248827
0.0248381
0.0247933
0.0247483
0.0247032
0.0246581
0.024613
0.0245681
0.0245234
0.0244791
0.0244353
0.024392
0.0243494
0.0243076
0.0242668
0.024227
0.0241885
0.0241513
0.0241156
0.0240817
0.0240495
0.0240194
0.0239914
0.0239657
0.0239426
0.0239221
0.0239045
0.0238899
0.0238785
0.0238705
0.023866
0.0238653
0.0238684
0.0238755
0.0238869
0.0239026
0.0239229
0.0239477
0.0239773
0.0240119
0.0240514
0.024096
0.0241459
0.024201
0.0242615
0.0243273
0.0243987
0.0244755
0.0245578
0.0246456
0.0247389
0.0248377
0.0249419
0.0250514
0.0251663
0.0252863
0.0254115
0.0255416
0.0256766
0.0258162
0.0259605
0.0261091
0.0262619
0.0264187
0.0265793
0.0267434
0.0269109
0.0270815
0.027255
0.027431
0.0276095
0.02779
0.0279723
0.0281563
0.0283414
0.0285277
0.0287146
0.028902
0.0290896
0.0292772
0.0294644
0.0296511
0.0298369
0.0300216
0.0302051
0.0303869
0.0305671
0.0307452
0.0309212
0.0310948
0.0312658
0.0314342
0.0315996
0.0317621
0.0319214
0.0320774
0.0322301
0.0323793
0.032525
0.032667
0.0328054
0.03294
0.0330709
0.033198
0.0333212
0.0334407
0.0335564
0.0336683
0.0337765
0.0338809
0.0339817
0.0340788
0.0341724
0.0342624
0.0343491
0.0344323
0.0345123
0.0345891
0.0346627
0.0347334
0.0348011
0.034866
0.0349281
0.0349876
0.0350446
0.0350991
0.0351513
0.0352012
0.035249
0.0352947
0.0353385
0.0353804
0.0354206
0.0354591
0.035496
0.0355314
0.0355654
0.035598
0.0356294
0.0356596
0.0356888
0.0357168
0.0357439
0.0357701
0.0357955
0.03582
0.0358438
0.035867
0.0358895
0.0359115
0.0359329
0.0359538
0.0359742
0.0359943
0.036014
0.0360333
0.0360523
0.036071
0.0360894
0.0361077
0.0361257
0.0361435
0.0361612
0.0361786
0.036196
0.0362133
0.0362304
0.0362475
0.0362645
0.0362814
0.0362982
0.036315
0.0363318
0.0363486
0.0363653
0.036382
0.0363988
0.0364155
0.0364322
0.0364489
0.0364656
0.0364824
0.0364992
0.036516
0.0365328
0.0365497
0.0365666
0.0365835
0.0366004
0.0366175
0.0366343
0.036652
0.0366679
0.0366876
0.0367005
0.0367247
0.0367333
0.0367608
0.0367702
0.0367942
0.0368118
0.0368121
0.0368121
0.0368121
1
0.344933
0.200774
0.155142
0.132128
0.117892
0.108169
0.101127
0.0957793
0.0915818
0.0882927
0.0858223
0.0840847
0.0829396
0.0822181
0.0817728
0.0815018
0.0813441
0.0812627
0.0812318
0.0812311
0.0812447
0.0812616
0.0812756
0.081284
0.0812868
0.0812847
0.0812792
0.0812712
0.0812618
0.0812515
0.0812407
0.0812296
0.0812184
0.0812071
0.0811958
0.0811845
0.0811732
0.081162
0.0811507
0.0811394
0.081128
0.0811167
0.0811053
0.081094
0.0810826
0.0810711
0.0810596
0.0810481
0.0810365
0.0810249
0.0810132
0.0810014
0.0809896
0.0809777
0.0809658
0.0809538
0.0809417
0.0809295
0.0809173
0.0809049
0.0808925
0.08088
0.0808673
0.0808546
0.0808418
0.0808289
0.0808158
0.0808027
0.0807894
0.080776
0.0807625
0.0807488
0.0807351
0.0807212
0.0807071
0.0806929
0.0806786
0.0806641
0.0806494
0.0806346
0.0806197
0.0806045
0.0805892
0.0805738
0.0805581
0.0805423
0.0805262
0.08051
0.0804936
0.0804769
0.0804601
0.080443
0.0804257
0.0804082
0.0803905
0.0803725
0.0803543
0.0803358
0.0803171
0.0802981
0.0802789
0.0802594
0.0802396
0.0802195
0.0801991
0.0801784
0.0801574
0.0801362
0.0801145
0.0800926
0.0800703
0.0800477
0.0800247
0.0800013
0.0799776
0.0799535
0.079929
0.0799041
0.0798788
0.0798531
0.079827
0.0798004
0.0797734
0.0797459
0.0797179
0.0796895
0.0796606
0.0796311
0.0796012
0.0795707
0.0795396
0.079508
0.0794759
0.0794431
0.0794098
0.0793758
0.0793412
0.079306
0.0792701
0.0792335
0.0791962
0.0791583
0.0791195
0.0790801
0.0790399
0.0789988
0.078957
0.0789144
0.0788709
0.0788266
0.0787814
0.0787353
0.0786883
0.0786403
0.0785914
0.0785415
0.0784906
0.0784387
0.0783858
0.0783318
0.0782767
0.0782206
0.0781634
0.078105
0.0780455
0.0779849
0.0779232
0.0778602
0.0777961
0.0777309
0.0776644
0.0775968
0.0775281
0.0774581
0.0773871
0.0773149
0.0772416
0.0771672
0.0770917
0.0770153
0.0769378
0.0768595
0.0767802
0.0767002
0.0766194
0.0765379
0.0764559
0.0763733
0.0762904
0.0762072
0.0761239
0.0760406
0.0759574
0.0758745
0.075792
0.0757102
0.0756291
0.0755492
0.0754704
0.0753931
0.0753175
0.0752438
0.0751723
0.0751033
0.0750371
0.0749739
0.0749141
0.0748579
0.0748058
0.074758
0.0747148
0.0746767
0.074644
0.074617
0.0745961
0.0745817
0.0745741
0.0745738
0.074581
0.0745963
0.0746199
0.0746522
0.0746935
0.0747443
0.0748048
0.0748754
0.0749564
0.075048
0.0751507
0.0752647
0.0753901
0.0755273
0.0756764
0.0758377
0.0760112
0.0761972
0.0763956
0.0766067
0.0768304
0.0770668
0.0773158
0.0775774
0.0778515
0.078138
0.0784368
0.0787476
0.0790703
0.0794046
0.0797502
0.0801069
0.0804742
0.0808519
0.0812394
0.0816365
0.0820425
0.0824572
0.0828798
0.08331
0.0837472
0.0841908
0.0846402
0.0850949
0.0855543
0.0860176
0.0864844
0.086954
0.0874257
0.0878989
0.088373
0.0888475
0.0893215
0.0897946
0.0902662
0.0907357
0.0912024
0.0916659
0.0921255
0.0925809
0.0930314
0.0934767
0.0939162
0.0943496
0.0947763
0.0951962
0.0956087
0.0960137
0.0964107
0.0967996
0.09718
0.0975519
0.0979149
0.0982691
0.0986142
0.0989501
0.0992768
0.0995942
0.0999023
0.100201
0.100491
0.100771
0.101042
0.101305
0.101558
0.101802
0.102038
0.102265
0.102484
0.102695
0.102898
0.103093
0.10328
0.103461
0.103634
0.1038
0.103959
0.104112
0.104259
0.1044
0.104536
0.104666
0.10479
0.10491
0.105025
0.105135
0.105241
0.105343
0.105441
0.105536
0.105627
0.105715
0.105799
0.105881
0.10596
0.106037
0.106111
0.106183
0.106253
0.106321
0.106387
0.106451
0.106514
0.106576
0.106636
0.106695
0.106753
0.10681
0.106866
0.106921
0.106975
0.107029
0.107082
0.107134
0.107186
0.107237
0.107288
0.107339
0.107389
0.107439
0.107489
0.107539
0.107588
0.107638
0.107687
0.107736
0.107785
0.107834
0.107882
0.107931
0.10798
0.108029
0.108078
0.108127
0.108176
0.108225
0.108274
0.108323
0.108372
0.108422
0.108471
0.108521
0.10857
0.10862
0.10867
0.10872
0.10877
0.10882
0.108872
0.108919
0.108977
0.109016
0.109085
0.109113
0.109192
0.109221
0.109291
0.109342
0.109354
0.109354
0.109354
1
0.518836
0.327564
0.255621
0.21822
0.194877
0.178869
0.167246
0.15841
0.151484
0.146076
0.142029
0.139186
0.137309
0.136123
0.135389
0.134944
0.134688
0.134559
0.134512
0.134515
0.134539
0.134568
0.134592
0.134608
0.134614
0.134613
0.134607
0.134597
0.134585
0.134571
0.134556
0.134542
0.134527
0.134512
0.134497
0.134481
0.134466
0.134451
0.134436
0.134421
0.134406
0.134391
0.134376
0.134361
0.134346
0.134331
0.134315
0.1343
0.134285
0.134269
0.134254
0.134238
0.134223
0.134207
0.134191
0.134175
0.134159
0.134143
0.134127
0.134111
0.134094
0.134077
0.134061
0.134044
0.134027
0.13401
0.133993
0.133975
0.133958
0.13394
0.133922
0.133904
0.133886
0.133867
0.133848
0.13383
0.133811
0.133791
0.133772
0.133752
0.133732
0.133712
0.133692
0.133671
0.133651
0.13363
0.133608
0.133587
0.133565
0.133543
0.13352
0.133497
0.133474
0.133451
0.133427
0.133403
0.133379
0.133355
0.13333
0.133304
0.133279
0.133253
0.133226
0.133199
0.133172
0.133145
0.133117
0.133088
0.133059
0.13303
0.133
0.13297
0.132939
0.132908
0.132876
0.132844
0.132811
0.132778
0.132744
0.13271
0.132675
0.13264
0.132604
0.132567
0.13253
0.132492
0.132453
0.132414
0.132374
0.132334
0.132293
0.132251
0.132208
0.132164
0.13212
0.132075
0.132029
0.131983
0.131935
0.131887
0.131838
0.131788
0.131737
0.131685
0.131632
0.131579
0.131524
0.131468
0.131412
0.131354
0.131295
0.131236
0.131175
0.131113
0.13105
0.130986
0.130921
0.130854
0.130787
0.130718
0.130649
0.130578
0.130506
0.130433
0.130358
0.130283
0.130207
0.130129
0.13005
0.129971
0.12989
0.129808
0.129726
0.129642
0.129558
0.129473
0.129387
0.1293
0.129213
0.129126
0.129038
0.128949
0.128861
0.128773
0.128685
0.128597
0.128509
0.128423
0.128337
0.128252
0.128168
0.128086
0.128006
0.127927
0.127851
0.127777
0.127707
0.127639
0.127575
0.127515
0.127458
0.127407
0.12736
0.127319
0.127284
0.127255
0.127232
0.127216
0.127208
0.127208
0.127217
0.127234
0.127261
0.127297
0.127344
0.127402
0.127471
0.127551
0.127644
0.12775
0.127868
0.128
0.128146
0.128307
0.128482
0.128672
0.128878
0.129099
0.129336
0.129589
0.129859
0.130146
0.130449
0.130769
0.131107
0.131461
0.131833
0.132221
0.132626
0.133049
0.133488
0.133943
0.134415
0.134902
0.135405
0.135924
0.136457
0.137005
0.137566
0.138141
0.138728
0.139328
0.139939
0.140561
0.141193
0.141834
0.142485
0.143143
0.143808
0.144479
0.145156
0.145837
0.146522
0.14721
0.1479
0.148591
0.149283
0.149974
0.150664
0.151352
0.152036
0.152717
0.153394
0.154065
0.15473
0.155389
0.15604
0.156684
0.157318
0.157944
0.15856
0.159166
0.159762
0.160346
0.160919
0.16148
0.162029
0.162566
0.16309
0.163602
0.164101
0.164586
0.165059
0.165518
0.165965
0.166398
0.166818
0.167225
0.167619
0.168
0.168369
0.168725
0.169069
0.169401
0.169721
0.17003
0.170327
0.170614
0.17089
0.171155
0.171411
0.171657
0.171893
0.17212
0.172339
0.172549
0.172751
0.172946
0.173133
0.173313
0.173486
0.173653
0.173814
0.173968
0.174118
0.174262
0.174402
0.174536
0.174667
0.174793
0.174915
0.175034
0.17515
0.175262
0.175371
0.175478
0.175582
0.175683
0.175783
0.17588
0.175975
0.176069
0.176161
0.176252
0.176341
0.17643
0.176517
0.176603
0.176688
0.176772
0.176856
0.176939
0.177021
0.177103
0.177184
0.177265
0.177346
0.177426
0.177506
0.177586
0.177666
0.177746
0.177825
0.177905
0.177984
0.178064
0.178143
0.178222
0.178302
0.178381
0.178461
0.178541
0.178621
0.178701
0.178781
0.178861
0.178942
0.179022
0.179103
0.179184
0.179265
0.179347
0.179428
0.17951
0.179592
0.179674
0.179758
0.179836
0.179929
0.179995
0.180107
0.180154
0.180281
0.18033
0.180444
0.180527
0.18056
0.18056
0.18056
1
0.660972
0.4471
0.353237
0.302524
0.270489
0.248402
0.232313
0.220065
0.210471
0.202998
0.197416
0.193495
0.190896
0.189245
0.188219
0.187598
0.187244
0.187068
0.187008
0.187014
0.18705
0.187093
0.187129
0.187153
0.187166
0.187169
0.187165
0.187156
0.187144
0.18713
0.187116
0.187101
0.187086
0.187071
0.187055
0.18704
0.187025
0.18701
0.186994
0.186979
0.186964
0.186949
0.186934
0.186919
0.186904
0.186888
0.186873
0.186858
0.186843
0.186827
0.186812
0.186796
0.186781
0.186765
0.18675
0.186734
0.186718
0.186702
0.186686
0.186669
0.186653
0.186637
0.18662
0.186603
0.186586
0.186569
0.186552
0.186535
0.186517
0.186499
0.186482
0.186464
0.186445
0.186427
0.186408
0.186389
0.18637
0.186351
0.186332
0.186312
0.186292
0.186272
0.186252
0.186231
0.18621
0.186189
0.186168
0.186146
0.186124
0.186102
0.186079
0.186056
0.186033
0.186009
0.185985
0.185961
0.185937
0.185912
0.185887
0.185861
0.185835
0.185809
0.185782
0.185755
0.185727
0.185699
0.185671
0.185642
0.185613
0.185583
0.185553
0.185522
0.185491
0.185459
0.185427
0.185395
0.185361
0.185328
0.185293
0.185258
0.185223
0.185187
0.185151
0.185113
0.185076
0.185037
0.184998
0.184958
0.184918
0.184877
0.184835
0.184793
0.18475
0.184706
0.184661
0.184616
0.18457
0.184523
0.184476
0.184427
0.184378
0.184328
0.184277
0.184226
0.184173
0.18412
0.184066
0.184011
0.183955
0.183898
0.183841
0.183782
0.183723
0.183663
0.183602
0.18354
0.183477
0.183413
0.183349
0.183284
0.183218
0.183151
0.183083
0.183015
0.182946
0.182876
0.182806
0.182735
0.182664
0.182592
0.18252
0.182448
0.182376
0.182303
0.18223
0.182158
0.182085
0.182013
0.181942
0.181871
0.1818
0.181731
0.181663
0.181596
0.181531
0.181467
0.181406
0.181346
0.18129
0.181236
0.181185
0.181137
0.181093
0.181053
0.181017
0.180986
0.180961
0.18094
0.180926
0.180918
0.180917
0.180922
0.180936
0.180958
0.180988
0.181027
0.181076
0.181135
0.181205
0.181286
0.181378
0.181482
0.1816
0.18173
0.181874
0.182032
0.182204
0.182392
0.182595
0.182815
0.18305
0.183303
0.183573
0.18386
0.184166
0.18449
0.184832
0.185193
0.185573
0.185973
0.186392
0.18683
0.187287
0.187765
0.188261
0.188778
0.189313
0.189868
0.190441
0.191033
0.191644
0.192273
0.192919
0.193582
0.194262
0.194958
0.19567
0.196397
0.197138
0.197892
0.19866
0.199439
0.200229
0.20103
0.201841
0.202659
0.203486
0.20432
0.205159
0.206003
0.206851
0.207702
0.208554
0.209408
0.210262
0.211114
0.211965
0.212813
0.213657
0.214496
0.215329
0.216156
0.216976
0.217787
0.21859
0.219383
0.220166
0.220938
0.221698
0.222446
0.223181
0.223903
0.224611
0.225306
0.225985
0.22665
0.2273
0.227935
0.228554
0.229158
0.229746
0.230318
0.230875
0.231415
0.23194
0.232449
0.232943
0.233421
0.233884
0.234333
0.234766
0.235185
0.235589
0.23598
0.236357
0.23672
0.237071
0.237409
0.237735
0.238049
0.238352
0.238643
0.238924
0.239195
0.239456
0.239707
0.239949
0.240183
0.240408
0.240626
0.240836
0.241038
0.241234
0.241424
0.241607
0.241785
0.241957
0.242124
0.242287
0.242444
0.242598
0.242748
0.242894
0.243036
0.243175
0.243311
0.243445
0.243576
0.243705
0.243831
0.243955
0.244078
0.244199
0.244318
0.244436
0.244552
0.244668
0.244782
0.244896
0.245009
0.24512
0.245232
0.245342
0.245453
0.245562
0.245672
0.245781
0.24589
0.245998
0.246107
0.246215
0.246323
0.246431
0.246539
0.246648
0.246756
0.246864
0.246973
0.247081
0.24719
0.247298
0.247407
0.247517
0.247626
0.247735
0.247845
0.247955
0.248065
0.248176
0.248287
0.248398
0.248509
0.248621
0.248732
0.248845
0.248957
0.249072
0.249179
0.249306
0.249397
0.249548
0.249615
0.249786
0.249855
0.250011
0.250121
0.250185
0.250185
0.250185
1
0.776894
0.558064
0.447309
0.384703
0.344532
0.316636
0.296234
0.280671
0.268483
0.259002
0.251924
0.246942
0.243625
0.241501
0.240175
0.239371
0.238914
0.238689
0.238614
0.238624
0.238674
0.238731
0.238781
0.238817
0.238839
0.238849
0.23885
0.238846
0.238839
0.238829
0.238819
0.238807
0.238796
0.238784
0.238773
0.238761
0.23875
0.238739
0.238727
0.238716
0.238705
0.238694
0.238683
0.238672
0.238661
0.23865
0.238639
0.238628
0.238617
0.238606
0.238594
0.238583
0.238572
0.238561
0.23855
0.238538
0.238527
0.238515
0.238504
0.238492
0.23848
0.238468
0.238456
0.238444
0.238432
0.23842
0.238407
0.238395
0.238382
0.238369
0.238356
0.238343
0.23833
0.238316
0.238303
0.238289
0.238275
0.238261
0.238247
0.238232
0.238218
0.238203