# vtk DataFile Version 2.0
FlowField
ASCII
DATASET STRUCTURED_GRID
DIMENSIONS 400 1 200
POINTS 80000 float
0 0 0
0.08 0 0
0.16 0 0
0.24 0 0
0.32 0 0
0.4 0 0
0.48 0 0
0.56 0 0
0.64 0 0
0.72 0 0
0.8 0 0
0.88 0 0
0.96 0 0
1.04 0 0
1.12 0 0
1.2 0 0
1.28 0 0
1.36 0 0
1.44 0 0
1.52 0 0
1.6 0 0
1.68 0 0
1.76 0 0
1.84 0 0
1.92 0 0
2 0 0
2.08 0 0
2.16 0 0
2.24 0 0
2.32 0 0
2.4 0 0
2.48 0 0
2.56 0 0
2.64 0 0
2.72 0 0
2.8 0 0
2.88 0 0
2.96 0 0
3.04 0 0
3.12 0 0
3.2 0 0
3.28 0 0
3.36 0 0
3.44 0 0
3.52 0 0
3.6 0 0
3.68 0 0
3.76 0 0
3.84 0 0
3.92 0 0
4 0 0
4.08 0 0
4.16 0 0
4.24 0 0
4.32 0 0
4.4 0 0
4.48 0 0
4.56 0 0
4.64 0 0
4.72 0 0
4.8 0 0
4.88 0 0
4.96 0 0
5.04 0 0
5.12 0 0
5.2 0 0
5.28 0 0
5.36 0 0
5.44 0 0
5.52 0 0
5.6 0 0
5.68 0 0
5.76 0 0
5.84 0 0
5.92 0 0
6 0 0
6.08 0 0
6.16 0 0
6.24 0 0
6.32 0 0
6.4 0 0
6.48 0 0
6.56 0 0
6.64 0 0
6.72 0 0
6.8 0 0
6.88 0 0
6.96 0 0
7.04 0 0
7.12 0 0
7.2 0 0
7.28 0 0
7.36 0 0
7.44 0 0
7.52 0 0
7.6 0 0
7.68 0 0
7.76 0 0
7.84 0 0
7.92 0 0
8 0 0
8.08 0 0
8.16 0 0
8.24 0 0
8.32 0 0
8.4 0 0
8.48 0 0
8.56 0 0
8.64 0 0
8.72 0 0
8.8 0 0
8.88 0 0
8.96 0 0
9.04 0 0
9.12 0 0
9.2 0 0
9.28 0 0
9.36 0 0
9.44 0 0
9.52 0 0
9.6 0 0
9.68 0 0
9.76 0 0
9.84 0 0
9.92 0 0
10 0 0
10.08 0 0
10.16 0 0
10.24 0 0
10.32 0 0
10.4 0 0
10.48 0 0
10.56 0 0
10.64 0 0
10.72 0 0
10.8 0 0
10.88 0 0
10.96 0 0
11.04 0 0
11.12 0 0
11.2 0 0
11.28 0 0
11.36 0 0
11.44 0 0
11.52 0 0
11.6 0 0
11.68 0 0
11.76 0 0
11.84 0 0
11.92 0 0
12 0 0
12.08 0 0
12.16 0 0
12.24 0 0
12.32 0 0
12.4 0 0
12.48 0 0
12.56 0 0
12.64 0 0
12.72 0 0
12.8 0 0
12.88 0 0
12.96 0 0
13.04 0 0
13.12 0 0
13.2 0 0
13.28 0 0
13.36 0 0
13.44 0 0
13.52 0 0
13.6 0 0
13.68 0 0
13.76 0 0
13.84 0 0
13.92 0 0
14 0 0
14.08 0 0
14.16 0 0
14.24 0 0
14.32 0 0
14.4 0 0
14.48 0 0
14.56 0 0
14.64 0 0
14.72 0 0
14.8 0 0
14.88 0 0
14.96 0 0
15.04 0 0
15.12 0 0
15.2 0 0
15.28 0 0
15.36 0 0
15.44 0 0
15.52 0 0
15.6 0 0
15.68 0 0
15.76 0 0
15.84 0 0
15.92 0 0
16 0 0
16.08 0 0
16.16 0 0
16.24 0 0
16.32 0 0
16.4 0 0
16.48 0 0
16.56 0 0
16.64 0 0
16.72 0 0
16.8 0 0
16.88 0 0
16.96 0 0
17.04 0 0
17.12 0 0
17.2 0 0
17.28 0 0
17.36 0 0
17.44 0 0
17.52 0 0
17.6 0 0
17.68 0 0
17.76 0 0
17.84 0 0
17.92 0 0
18 0 0
18.08 0 0
18.16 0 0
18.24 0 0
18.32 0 0
18.4 0 0
18.48 0 0
18.56 0 0
18.64 0 0
18.72 0 0
18.8 0 0
18.88 0 0
18.96 0 0
19.04 0 0
19.12 0 0
19.2 0 0
19.28 0 0
19.36 0 0
19.44 0 0
19.52 0 0
19.6 0 0
19.68 0 0
19.76 0 0
19.84 0 0
19.92 0 0
20 0 0
20.08 0 0
20.16 0 0
20.24 0 0
20.32 0 0
20.4 0 0
20.48 0 0
20.56 0 0
20.64 0 0
20.72 0 0
20.8 0 0
20.88 0 0
20.96 0 0
21.04 0 0
21.12 0 0
21.2 0 0
21.28 0 0
21.36 0 0
21.44 0 0
21.52 0 0
21.6 0 0
21.68 0 0
21.76 0 0
21.84 0 0
21.92 0 0
22 0 0
22.08 0 0
22.16 0 0
22.24 0 0
22.32 0 0
22.4 0 0
22.48 0 0
22.56 0 0
22.64 0 0
22.72 0 0
22.8 0 0
22.88 0 0
22.96 0 0
23.04 0 0
23.12 0 0
23.2 0 0
23.28 0 0
23.36 0 0
23.44 0 0
23.52 0 0
23.6 0 0
23.68 0 0
23.76 0 0
23.84 0 0
23.92 0 0
24 0 0
24.08 0 0
24.16 0 0
24.24 0 0
24.32 0 0
24.4 0 0
24.48 0 0
24.56 0 0
24.64 0 0
24.72 0 0
24.8 0 0
24.88 0 0
24.96 0 0
25.04 0 0
25.12 0 0
25.2 0 0
25.28 0 0
25.36 0 0
25.44 0 0
25.52 0 0
25.6 0 0
25.68 0 0
25.76 0 0
25.84 0 0
25.92 0 0
26 0 0
26.08 0 0
26.16 0 0
26.24 0 0
26.32 0 0
26.4 0 0
26.48 0 0
26.56 0 0
26.64 0 0
26.72 0 0
26.8 0 0
26.88 0 0
26.96 0 0
27.04 0 0
27.12 0 0
27.2 0 0
27.28 0 0
27.36 0 0
27.44 0 0
27.52 0 0
27.6 0 0
27.68 0 0
27.76 0 0
27.84 0 0
27.92 0 0
28 0 0
28.08 0 0
28.16 0 0
28.24 0 0
28.32 0 0
28.4 0 0
28.48 0 0
28.56 0 0
28.64 0 0
28.72 0 0
28.8 0 0
28.88 0 0
28.96 0 0
29.04 0 0
29.12 0 0
29.2 0 0
29.28 0 0
29.36 0 0
29.44 0 0
29.52 0 0
29.6 0 0
29.68 0 0
29.76 0 0
29.84 0 0
29.92 0 0
30 0 0
30.08 0 0
30.16 0 0
30.24 0 0
30.32 0 0
30.4 0 0
30.48 0 0
30.56 0 0
30.64 0 0
30.72 0 0
30.8 0 0
30.88 0 0
30.96 0 0
31.04 0 0
31.12 0 0
31.2 0 0
31.28 0 0
31.36 0 0
31.44 0 0
31.52 0 0
31.6 0 0
31.68 0 0
31.76 0 0
31.84 0 0
31.92 0 0
0 0.005 0
0.08 0.005 0
0.16 0.005 0
0.24 0.005 0
0.32 0.005 0
0.4 0.005 0
0.48 0.005 0
0.56 0.005 0
0.64 0.005 0
0.72 0.005 0
0.8 0.005 0
0.88 0.005 0
0.96 0.005 0
1.04 0.005 0
1.12 0.005 0
1.2 0.005 0
1.28 0.005 0
1.36 0.005 0
1.44 0.005 0
1.52 0.005 0
1.6 0.005 0
1.68 0.005 0
1.76 0.005 0
1.84 0.005 0
1.92 0.005 0
2 0.005 0
2.08 0.005 0
2.16 0.005 0
2.24 0.005 0
2.32 0.005 0
2.4 0.005 0
2.48 0.005 0
2.56 0.005 0
2.64 0.005 0
2.72 0.005 0
2.8 0.005 0
2.88 0.005 0
2.96 0.005 0
3.04 0.005 0
3.12 0.005 0
3.2 0.005 0
3.28 0.005 0
3.36 0.005 0
3.44 0.005 0
3.52 0.005 0
3.6 0.005 0
3.68 0.005 0
3.76 0.005 0
3.84 0.005 0
3.92 0.005 0
4 0.005 0
4.08 0.005 0
4.16 0.005 0
4.24 0.005 0
4.32 0.005 0
4.4 0.005 0
4.48 0.005 0
4.56 0.005 0
4.64 0.005 0
4.72 0.005 0
4.8 0.005 0
4.88 0.005 0
4.96 0.005 0
5.04 0.005 0
5.12 0.005 0
5.2 0.005 0
5.28 0.005 0
5.36 0.005 0
5.44 0.005 0
5.52 0.005 0
5.6 0.005 0
5.68 0.005 0
5.76 0.005 0
5.84 0.005 0
5.92 0.005 0
6 0.005 0
6.08 0.005 0
6.16 0.005 0
6.24 0.005 0
6.32 0.005 0
6.4 0.005 0
6.48 0.005 0
6.56 0.005 0
6.64 0.005 0
6.72 0.005 0
6.8 0.005 0
6.88 0.005 0
6.96 0.005 0
7.04 0.005 0
7.12 0.005 0
7.2 0.005 0
7.28 0.005 0
7.36 0.005 0
7.44 0.005 0
7.52 0.005 0
7.6 0.005 0
7.68 0.005 0
7.76 0.005 0
7.84 0.005 0
7.92 0.005 0
8 0.005 0
8.08 0.005 0
8.16 0.005 0
8.24 0.005 0
8.32 0.005 0
8.4 0.005 0
8.48 0.005 0
8.56 0.005 0
8.64 0.005 0
8.72 0.005 0
8.8 0.005 0
8.88 0.005 0
8.96 0.005 0
9.04 0.005 0
9.12 0.005 0
9.2 0.005 0
9.28 0.005 0
9.36 0.005 0
9.44 0.005 0
9.52 0.005 0
9.6 0.005 0
9.68 0.005 0
9.76 0.005 0
9.84 0.005 0
9.92 0.005 0
10 0.005 0
10.08 0.005 0
10.16 0.005 0
10.24 0.005 0
10.32 0.005 0
10.4 0.005 0
10.48 0.005 0
10.56 0.005 0
10.64 0.005 0
10.72 0.005 0
10.8 0.005 0
10.88 0.005 0
10.96 0.005 0
11.04 0.005 0
11.12 0.005 0
11.2 0.005 0
11.28 0.005 0
11.36 0.005 0
11.44 0.005 0
11.52 0.005 0
11.6 0.005 0
11.68 0.005 0
11.76 0.005 0
11.84 0.005 0
11.92 0.005 0
12 0.005 0
12.08 0.005 0
12.16 0.005 0
12.24 0.005 0
12.32 0.005 0
12.4 0.005 0
12.48 0.005 0
12.56 0.005 0
12.64 0.005 0
12.72 0.005 0
12.8 0.005 0
12.88 0.005 0
12.96 0.005 0
13.04 0.005 0
13.12 0.005 0
13.2 0.005 0
13.28 0.005 0
13.36 0.005 0
13.44 0.005 0
13.52 0.005 0
13.6 0.005 0
13.68 0.005 0
13.76 0.005 0
13.84 0.005 0
13.92 0.005 0
14 0.005 0
14.08 0.005 0
14.16 0.005 0
14.24 0.005 0
14.32 0.005 0
14.4 0.005 0
14.48 0.005 0
14.56 0.005 0
14.64 0.005 0
14.72 0.005 0
14.8 0.005 0
14.88 0.005 0
14.96 0.005 0
15.04 0.005 0
15.12 0.005 0
15.2 0.005 0
15.28 0.005 0
15.36 0.005 0
15.44 0.005 0
15.52 0.005 0
15.6 0.005 0
15.68 0.005 0
15.76 0.005 0
15.84 0.005 0
15.92 0.005 0
16 0.005 0
16.08 0.005 0
16.16 0.005 0
16.24 0.005 0
16.32 0.005 0
16.4 0.005 0
16.48 0.005 0
16.56 0.005 0
16.64 0.005 0
16.72 0.005 0
16.8 0.005 0
16.88 0.005 0
16.96 0.005 0
17.04 0.005 0
17.12 0.005 0
17.2 0.005 0
17.28 0.005 0
17.36 0.005 0
17.44 0.005 0
17.52 0.005 0
17.6 0.005 0
17.68 0.005 0
17.76 0.005 0
17.84 0.005 0
17.92 0.005 0
18 0.005 0
18.08 0.005 0
18.16 0.005 0
18.24 0.005 0
18.32 0.005 0
18.4 0.005 0
18.48 0.005 0
18.56 0.005 0
18.64 0.005 0
18.72 0.005 0
18.8 0.005 0
18.88 0.005 0
18.96 0.005 0
19.04 0.005 0
19.12 0.005 0
19.2 0.005 0
19.28 0.005 0
19.36 0.005 0
19.44 0.005 0
19.52 0.005 0
19.6 0.005 0
19.68 0.005 0
19.76 0.005 0
19.84 0.005 0
19.92 0.005 0
20 0.005 0
20.08 0.005 0
20.16 0.005 0
20.24 0.005 0
20.32 0.005 0
20.4 0.005 0
20.48 0.005 0
20.56 0.005 0
20.64 0.005 0
20.72 0.005 0
20.8 0.005 0
20.88 0.005 0
20.96 0.005 0
21.04 0.005 0
21.12 0.005 0
21.2 0.005 0
21.28 0.005 0
21.36 0.005 0
21.44 0.005 0
21.52 0.005 0
21.6 0.005 0
21.68 0.005 0
21.76 0.005 0
21.84 0.005 0
21.92 0.005 0
22 0.005 0
22.08 0.005 0
22.16 0.005 0
22.24 0.005 0
22.32 0.005 0
22.4 0.005 0
22.48 0.005 0
22.56 0.005 0
22.64 0.005 0
22.72 0.005 0
22.8 0.005 0
22.88 0.005 0
22.96 0.005 0
23.04 0.005 0
23.12 0.005 0
23.2 0.005 0
23.28 0.005 0
23.36 0.005 0
23.44 0.005 0
23.52 0.005 0
23.6 0.005 0
23.68 0.005 0
23.76 0.005 0
23.84 0.005 0
23.92 0.005 0
24 0.005 0
24.08 0.005 0
24.16 0.005 0
24.24 0.005 0
24.32 0.005 0
24.4 0.005 0
24.48 0.005 0
24.56 0.005 0
24.64 0.005 0
24.72 0.005 0
24.8 0.005 0
24.88 0.005 0
24.96 0.005 0
25.04 0.005 0
25.12 0.005 0
25.2 0.005 0
25.28 0.005 0
25.36 0.005 0
25.44 0.005 0
25.52 0.005 0
25.6 0.005 0
25.68 0.005 0
25.76 0.005 0
25.84 0.005 0
25.92 0.005 0
26 0.005 0
26.08 0.005 0
26.16 0.005 0
26.24 0.005 0
26.32 0.005 0
26.4 0.005 0
26.48 0.005 0
26.56 0.005 0
26.64 0.005 0
26.72 0.005 0
26.8 0.005 0
26.88 0.005 0
26.96 0.005 0
27.04 0.005 0
27.12 0.005 0
27.2 0.005 0
27.28 0.005 0
27.36 0.005 0
27.44 0.005 0
27.52 0.005 0
27.6 0.005 0
27.68 0.005 0
27.76 0.005 0
27.84 0.005 0
27.92 0.005 0
28 0.005 0
28.08 0.005 0
28.16 0.005 0
28.24 0.005 0
28.32 0.005 0
28.4 0.005 0
28.48 0.005 0
28.56 0.005 0
28.64 0.005 0
28.72 0.005 0
28.8 0.005 0
28.88 0.005 0
28.96 0.005 0
29.04 0.005 0
29.12 0.005 0
29.2 0.005 0
29.28 0.005 0
29.36 0.005 0
29.44 0.005 0
29.52 0.005 0
29.6 0.005 0
29.68 0.005 0
29.76 0.005 0
29.84 0.005 0
29.92 0.005 0
30 0.005 0
30.08 0.005 0
30.16 0.005 0
30.24 0.005 0
30.32 0.005 0
30.4 0.005 0
30.48 0.005 0
30.56 0.005 0
30.64 0.005 0
30.72 0.005 0
30.8 0.005 0
30.88 0.005 0
30.96 0.005 0
31.04 0.005 0
31.12 0.005 0
31.2 0.005 0
31.28 0.005 0
31.36 0.005 0
31.44 0.005 0
31.52 0.005 0
31.6 0.005 0
31.68 0.005 0
31.76 0.005 0
31.84 0.005 0
31.92 0.005 0
0 0.01 0
0.08 0.01 0
0.16 0.01 0
0.24 0.01 0
0.32 0.01 0
0.4 0.01 0
0.48 0.01 0
0.56 0.01 0
0.64 0.01 0
0.72 0.01 0
0.8 0.01 0
0.88 0.01 0
0.96 0.01 0
1.04 0.01 0
1.12 0.01 0
1.2 0.01 0
1.28 0.01 0
1.36 0.01 0
1.44 0.01 0
1.52 0.01 0
1.6 0.01 0
1.68 0.01 0
1.76 0.01 0
1.84 0.01 0
1.92 0.01 0
2 0.01 0
2.08 0.01 0
2.16 0.01 0
2.24 0.01 0
2.32 0.01 0
2.4 0.01 0
2.48 0.01 0
2.56 0.01 0
2.64 0.01 0
2.72 0.01 0
2.8 0.01 0
2.88 0.01 0
2.96 0.01 0
3.04 0.01 0
3.12 0.01 0
3.2 0.01 0
3.28 0.01 0
3.36 0.01 0
3.44 0.01 0
3.52 0.01 0
3.6 0.01 0
3.68 0.01 0
3.76 0.01 0
3.84 0.01 0
3.92 0.01 0
4 0.01 0
4.08 0.01 0
4.16 0.01 0
4.24 0.01 0
4.32 0.01 0
4.4 0.01 0
4.48 0.01 0
4.56 0.01 0
4.64 0.01 0
4.72 0.01 0
4.8 0.01 0
4.88 0.01 0
4.96 0.01 0
5.04 0.01 0
5.12 0.01 0
[...]
POINT_DATA 80000

SCALARS u float 1
LOOKUP_TABLE default
0
-0.131663
-0.0682695
-0.0522964
-0.0444203
-0.0395772
-0.0362602
-0.0338332
-0.0319732
-0.0304966
-0.0292906
-0.0282823
-0.0274228
-0.0266782
-0.0260243
-0.0254434
-0.0249226
-0.0244517
-0.0240231
-0.0236307
-0.0232697
-0.022936
-0.0226265
-0.0223384
-0.0220694
-0.0218176
-0.0215812
-0.0213589
-0.0211492
-0.0209513
-0.0207641
-0.0205868
-0.0204186
-0.0202588
-0.0201067
-0.019962
-0.0198242
-0.0196931
-0.0195681
-0.0194489
-0.019335
-0.0192265
-0.0191233
-0.0190255
-0.0189334
-0.0188468
-0.0187656
-0.0186898
-0.0186193
-0.0185544
-0.018495
-0.0184409
-0.0183918
-0.0183471
-0.018306
-0.0182679
-0.0182324
-0.0181994
-0.018169
-0.0181412
-0.0181162
-0.0180937
-0.0180735
-0.0180551
-0.0180381
-0.0180221
-0.0180069
-0.0179926
-0.0179792
-0.017967
-0.0179561
-0.0179468
-0.0179392
-0.0179331
-0.0179286
-0.0179253
-0.0179231
-0.0179218
-0.0179211
-0.0179209
-0.0179211
-0.0179214
-0.0179219
-0.0179226
-0.0179232
-0.017924
-0.0179247
-0.0179255
-0.0179263
-0.0179271
-0.0179279
-0.0179287
-0.0179295
-0.0179304
-0.0179312
-0.017932
-0.0179329
-0.0179337
-0.0179345
-0.0179353
-0.0179362
-0.017937
-0.0179378
-0.0179387
-0.0179395
-0.0179403
-0.0179412
-0.017942
-0.0179428
-0.0179437
-0.0179445
-0.0179453
-0.0179462
-0.017947
-0.0179478
-0.0179487
-0.0179495
-0.0179503
-0.0179512
-0.017952
-0.0179529
-0.0179537
-0.0179545
-0.0179554
-0.0179562
-0.0179571
-0.0179579
-0.0179588
-0.0179596
-0.0179604
-0.0179613
-0.0179621
-0.017963
-0.0179638
-0.0179647
-0.0179655
-0.0179664
-0.0179672
-0.0179681
-0.0179689
-0.0179697
-0.0179706
-0.0179714
-0.0179723
-0.0179731
-0.017974
-0.0179748
-0.0179757
-0.0179766
-0.0179774
-0.0179783
-0.0179791
-0.01798
-0.0179808
-0.0179817
-0.0179825
-0.0179834
-0.0179842
-0.0179851
-0.017986
-0.0179868
-0.0179877
-0.0179885
-0.0179894
-0.0179903
-0.0179911
-0.017992
-0.0179928
-0.0179937
-0.0179946
-0.0179954
-0.0179963
-0.0179972
-0.017998
-0.0179989
-0.0179997
-0.0180006
-0.0180015
-0.0180023
-0.0180032
-0.0180041
-0.0180049
-0.0180058
-0.0180067
-0.0180076
-0.0180084
-0.0180093
-0.0180102
-0.018011
-0.0180119
-0.0180128
-0.0180137
-0.0180145
-0.0180154
-0.0180163
-0.0180172
-0.018018
-0.0180189
-0.0180198
-0.0180207
-0.0180215
-0.0180224
-0.0180233
-0.0180242
-0.0180251
-0.0180259
-0.0180268
-0.0180277
-0.0180286
-0.0180295
-0.0180303
-0.0180312
-0.0180321
-0.018033
-0.0180339
-0.0180348
-0.0180356
-0.0180365
-0.0180374
-0.0180383
-0.0180392
-0.0180401
-0.018041
-0.0180419
-0.0180427
-0.0180436
-0.0180445
-0.0180454
-0.0180463
-0.0180472
-0.0180481
-0.018049
-0.0180499
-0.0180508
-0.0180517
-0.0180526
-0.0180535
-0.0180544
-0.0180552
-0.0180561
-0.018057
-0.0180579
-0.0180588
-0.0180597
-0.0180606
-0.0180615
-0.0180624
-0.0180633
-0.0180642
-0.0180651
-0.018066
-0.018067
-0.0180679
-0.0180688
-0.0180697
-0.0180706
-0.0180715
-0.0180724
-0.0180733
-0.0180742
-0.0180751
-0.018076
-0.0180769
-0.0180778
-0.0180787
-0.0180797
-0.0180806
-0.0180815
-0.0180824
-0.0180833
-0.0180842
-0.0180851
-0.018086
-0.018087
-0.0180879
-0.0180888
-0.0180897
-0.0180906
-0.0180915
-0.0180925
-0.0180934
-0.0180943
-0.0180952
-0.0180961
-0.0180971
-0.018098
-0.0180989
-0.0180998
-0.0181007
-0.0181017
-0.0181026
-0.0181035
-0.0181044
-0.0181054
-0.0181063
-0.0181072
-0.0181082
-0.0181091
-0.01811
-0.0181109
-0.0181119
-0.0181128
-0.0181137
-0.0181147
-0.0181156
-0.0181165
-0.0181175
-0.0181184
-0.0181193
-0.0181203
-0.0181212
-0.0181221
-0.0181231
-0.018124
-0.0181249
-0.0181259
-0.0181268
-0.0181278
-0.0181287
-0.0181296
-0.0181306
-0.0181315
-0.0181325
-0.0181334
-0.0181343
-0.0181353
-0.0181362
-0.0181372
-0.0181381
-0.0181391
-0.01814
-0.018141
-0.0181419
-0.0181429
-0.0181438
-0.0181447
-0.0181457
-0.0181466
-0.0181476
-0.0181486
-0.0181495
-0.0181505
-0.0181514
-0.0181524
-0.0181533
-0.0181543
-0.0181552
-0.0181562
-0.0181571
-0.0181581
-0.0181591
-0.01816
-0.018161
-0.0181619
-0.0181629
-0.0181638
-0.0181648
-0.0181658
-0.0181667
-0.0181677
-0.0181687
-0.0181696
-0.0181706
-0.0181716
-0.0181725
-0.0181735
-0.0181745
-0.0181754
-0.0181764
-0.0181774
-0.0181783
-0.0181793
-0.0181803
-0.0181812
-0.0181822
-0.0181832
-0.0181841
-0.0181851
-0.0181861
-0.0181871
-0.018188
-0.018189
-0.01819
-0.018191
-0.018192
-0.018193
-0.0181939
-0.0181949
-0.0181959
-0.0181969
-0.0181979
-0.0181988
-0.0181999
-0.0182008
-0.018202
-0.0182026
-0.0182043
-0.0182027
-0.0182027
-0.0182027
1
0.131663
0.0682695
0.0522964
0.0444203
0.0395772
0.0362602
0.0338332
0.0319732
0.0304966
0.0292906
0.0282823
0.0274228
0.0266782
0.0260243
0.0254434
0.0249226
0.0244517
0.0240231
0.0236307
0.0232697
0.022936
0.0226265
0.0223384
0.0220694
0.0218176
0.0215812
0.0213589
0.0211492
0.0209513
0.0207641
0.0205868
0.0204186
0.0202588
0.0201067
0.019962
0.0198242
0.0196931
0.0195681
0.0194489
0.019335
0.0192265
0.0191233
0.0190255
0.0189334
0.0188468
0.0187656
0.0186898
0.0186193
0.0185544
0.018495
0.0184409
0.0183918
0.0183471
0.018306
0.0182679
0.0182324
0.0181994
0.018169
0.0181412
0.0181162
0.0180937
0.0180735
0.0180551
0.0180381
0.0180221
0.0180069
0.0179926
0.0179792
0.017967
0.0179561
0.0179468
0.0179392
0.0179331
0.0179286
0.0179253
0.0179231
0.0179218
0.0179211
0.0179209
0.0179211
0.0179214
0.0179219
0.0179226
0.0179232
0.017924
0.0179247
0.0179255
0.0179263
0.0179271
0.0179279
0.0179287
0.0179295
0.0179304
0.0179312
0.017932
0.0179329
0.0179337
0.0179345
0.0179353
0.0179362
0.017937
0.0179378
0.0179387
0.0179395
0.0179403
0.0179412
0.017942
0.0179428
0.0179437
0.0179445
0.0179453
0.0179462
0.017947
0.0179478
0.0179487
0.0179495
0.0179503
0.0179512
0.017952
0.0179529
0.0179537
0.0179545
0.0179554
0.0179562
0.0179571
0.0179579
0.0179588
0.0179596
0.0179604
0.0179613
0.0179621
0.017963
0.0179638
0.0179647
0.0179655
0.0179664
0.0179672
0.0179681
0.0179689
0.0179697
0.0179706
0.0179714
0.0179723
0.0179731
0.017974
0.0179748
0.0179757
0.0179766
0.0179774
0.0179783
0.0179791
0.01798
0.0179808
0.0179817
0.0179825
0.0179834
0.0179842
0.0179851
0.017986
0.0179868
0.0179877
0.0179885
0.0179894
0.0179903
0.0179911
0.017992
0.0179928
0.0179937
0.0179946
0.0179954
0.0179963
0.0179972
0.017998
0.0179989
0.0179997
0.0180006
0.0180015
0.0180023
0.0180032
0.0180041
0.0180049
0.0180058
0.0180067
0.0180076
0.0180084
0.0180093
0.0180102
0.018011
0.0180119
0.0180128
0.0180137
0.0180145
0.0180154
0.0180163
0.0180172
0.018018
0.0180189
0.0180198
0.0180207
0.0180215
0.0180224
0.0180233
0.0180242
0.0180251
0.0180259
0.0180268
0.0180277
0.0180286
0.0180295
0.0180303
0.0180312
0.0180321
0.018033
0.0180339
0.0180348
0.0180356
0.0180365
0.0180374
0.0180383
0.0180392
0.0180401
0.018041
0.0180419
0.0180427
0.0180436
0.0180445
0.0180454
0.0180463
0.0180472
0.0180481
0.018049
0.0180499
0.0180508
0.0180517
0.0180526
0.0180535
0.0180544
0.0180552
0.0180561
0.018057
0.0180579
0.0180588
0.0180597
0.0180606
0.0180615
0.0180624
0.0180633
0.0180642
0.0180651
0.018066
0.018067
0.0180679
0.0180688
0.0180697
0.0180706
0.0180715
0.0180724
0.0180733
0.0180742
0.0180751
0.018076
0.0180769
0.0180778
0.0180787
0.0180797
0.0180806
0.0180815
0.0180824
0.0180833
0.0180842
0.0180851
0.018086
0.018087
0.0180879
0.0180888
0.0180897
0.0180906
0.0180915
0.0180925
0.0180934
0.0180943
0.0180952
0.0180961
0.0180971
0.018098
0.0180989
0.0180998
0.0181007
0.0181017
0.0181026
0.0181035
0.0181044
0.0181054
0.0181063
0.0181072
0.0181082
0.0181091
0.01811
0.0181109
0.0181119
0.0181128
0.0181137
0.0181147
0.0181156
0.0181165
0.0181175
0.0181184
0.0181193
0.0181203
0.0181212
0.0181221
0.0181231
0.018124
0.0181249
0.0181259
0.0181268
0.0181278
0.0181287
0.0181296
0.0181306
0.0181315
0.0181325
0.0181334
0.0181343
0.0181353
0.0181362
0.0181372
0.0181381
0.0181391
0.01814
0.018141
0.0181419
0.0181429
0.0181438
0.0181447
0.0181457
0.0181466
0.0181476
0.0181486
0.0181495
0.0181505
0.0181514
0.0181524
0.0181533
0.0181543
0.0181552
0.0181562
0.0181571
0.0181581
0.0181591
0.01816
0.018161
0.0181619
0.0181629
0.0181638
0.0181648
0.0181658
0.0181667
0.0181677
0.0181687
0.0181696
0.0181706
0.0181716
0.0181725
0.0181735
0.0181745
0.0181754
0.0181764
0.0181774
0.0181783
0.0181793
0.0181803
0.0181812
0.0181822
0.0181832
0.0181841
0.0181851
0.0181861
0.0181871
0.018188
0.018189
0.01819
0.018191
0.018192
0.018193
0.0181939
0.0181949
0.0181959
0.0181969
0.0181979
0.0181988
0.0181999
0.0182008
0.018202
0.0182026
0.0182043
0.0182027
0.0182027
0.0182027
1
0.344884
0.200668
0.154968
0.131896
0.1176
0.107769
0.10056
0.0950268
0.090631
0.08704
0.0840382
0.0814802
0.0792651
0.0773208
0.0755947
0.0740477
0.0726498
0.0713781
0.0702143
0.0691439
0.068155
0.0672378
0.0663843
0.0655877
0.0648421
0.0641424
0.0634842
0.0628638
0.0622782
0.0617245
0.0612001
0.0607026
0.0602299
0.0597804
0.0593529
0.0589461
0.0585589
0.05819
0.0578383
0.0575028
0.0571833
0.05688
0.0565933
0.0563232
0.0560698
0.0558326
0.0556116
0.0554067
0.0552181
0.0550458
0.0548892
0.0547469
0.054617
0.0544976
0.054387
0.0542841
0.0541886
0.0541007
0.0540206
0.0539484
0.0538835
0.053825
0.0537716
0.0537222
0.0536758
0.0536321
0.053591
0.053553
0.0535187
0.0534885
0.053463
0.0534422
0.0534259
0.0534137
0.0534052
0.0533996
0.0533963
0.0533948
0.0533946
0.0533952
0.0533964
0.0533981
0.0534
0.0534021
0.0534043
0.0534066
0.0534089
0.0534113
0.0534137
0.0534161
0.0534185
0.053421
0.0534235
0.0534259
0.0534284
0.0534309
0.0534333
0.0534358
0.0534383
0.0534407
0.0534432
0.0534457
0.0534482
0.0534506
0.0534531
0.0534556
0.0534581
0.0534606
0.0534631
0.0534656
0.053468
0.0534705
0.053473
0.0534755
0.053478
0.0534805
0.053483
0.0534855
0.053488
0.0534905
0.053493
0.0534955
0.053498
0.0535005
0.053503
0.0535056
0.0535081
0.0535106
0.0535131
0.0535156
0.0535181
0.0535206
0.0535232
0.0535257
0.0535282
0.0535307
0.0535333
0.0535358
0.0535383
0.0535408
0.0535434
0.0535459
0.0535484
0.053551
0.0535535
0.0535561
0.0535586
0.0535611
0.0535637
0.0535662
0.0535688
0.0535713
0.0535739
0.0535764
0.053579
0.0535815
0.0535841
0.0535866
0.0535892
0.0535917
0.0535943
0.0535969
0.0535994
0.053602
0.0536046
0.0536071
0.0536097
0.0536123
0.0536148
0.0536174
0.05362
0.0536225
0.0536251
0.0536277
0.0536303
0.0536329
0.0536354
0.053638
0.0536406
0.0536432
0.0536458
0.0536484
0.053651
0.0536536
0.0536562
0.0536587
0.0536613
0.0536639
0.0536665
0.0536691
0.0536717
0.0536743
0.053677
0.0536796
0.0536822
0.0536848
0.0536874
0.05369
0.0536926
0.0536952
0.0536978
0.0537005
0.0537031
0.0537057
0.0537083
0.053711
0.0537136
0.0537162
0.0537188
0.0537215
0.0537241
0.0537267
0.0537294
0.053732
0.0537346
0.0537373
0.0537399
0.0537426
0.0537452
0.0537479
0.0537505
0.0537531
0.0537558
0.0537584
0.0537611
0.0537638
0.0537664
0.0537691
0.0537717
0.0537744
0.0537771
0.0537797
0.0537824
0.053785
0.0537877
0.0537904
0.0537931
0.0537957
0.0537984
0.0538011
0.0538038
0.0538064
0.0538091
0.0538118
0.0538145
0.0538172
0.0538199
0.0538225
0.0538252
0.0538279
0.0538306
0.0538333
0.053836
0.0538387
0.0538414
0.0538441
0.0538468
0.0538495
0.0538522
0.0538549
0.0538576
0.0538603
0.053863
0.0538658
0.0538685
0.0538712
0.0538739
0.0538766
0.0538793
0.0538821
0.0538848
0.0538875
0.0538902
0.053893
0.0538957
0.0538984
0.0539012
0.0539039
0.0539066
0.0539094
0.0539121
0.0539149
0.0539176
0.0539203
0.0539231
0.0539258
0.0539286
0.0539313
0.0539341
0.0539368
0.0539396
0.0539424
0.0539451
0.0539479
0.0539506
0.0539534
0.0539562
0.0539589
0.0539617
0.0539645
0.0539672
0.05397
0.0539728
0.0539756
0.0539783
0.0539811
0.0539839
0.0539867
0.0539895
0.0539923
0.053995
0.0539978
0.0540006
0.0540034
0.0540062
0.054009
0.0540118
0.0540146
0.0540174
0.0540202
0.054023
0.0540258
0.0540286
0.0540314
0.0540342
0.0540371
0.0540399
0.0540427
0.0540455
0.0540483
0.0540511
0.054054
0.0540568
0.0540596
0.0540624
0.0540653
0.0540681
0.0540709
0.0540738
0.0540766
0.0540794
0.0540823
0.0540851
0.054088
0.0540908
0.0540937
0.0540965
0.0540994
0.0541022
0.0541051
0.0541079
0.0541108
0.0541136
0.0541165
0.0541194
0.0541222
0.0541251
0.0541279
0.0541308
0.0541337
0.0541366
0.0541394
0.0541423
0.0541452
0.0541481
0.0541509
0.0541538
0.0541567
0.0541596
0.0541625
0.0541654
0.0541683
0.0541712
0.054174
0.054177
0.0541798
0.0541828
0.0541856
0.0541886
0.0541914
0.0541944
0.0541972
0.0542002
0.0542031
0.054206
0.0542089
0.0542119
0.0542148
0.0542177
0.0542207
0.0542235
0.0542267
0.0542293
0.054233
0.0542348
0.0542396
0.0542358
0.0542358
0.0542358
1
0.518766
0.327403
0.255349
0.217851
0.194406
0.178214
0.16631
0.157161
0.149887
0.143942
0.138973
0.134739
0.131074
0.127858
0.125004
0.122447
0.120138
0.118038
0.116116
0.11435
0.112718
0.111205
0.109797
0.108483
0.107254
0.1061
0.105015
0.103993
0.103028
0.102115
0.101251
0.100432
0.0996531
0.0989131
0.0982093
0.0975398
0.0969028
0.096296
0.0957177
0.0951666
0.0946423
0.0941451
0.0936755
0.0932336
0.0928193
0.0924321
0.0920719
0.0917385
0.0914321
0.0911524
0.0908981
0.090667
0.0904559
0.0902618
0.090082
0.0899149
0.0897601
0.0896178
0.0894883
0.0893714
0.0892663
0.0891713
0.0890845
0.0890041
0.0889289
0.0888582
0.0887923
0.0887317
0.0886774
0.0886301
0.0885903
0.0885581
0.0885332
0.0885148
0.088502
0.0884938
0.0884892
0.0884872
0.0884872
0.0884886
0.0884908
0.0884936
0.0884969
0.0885004
0.0885041
0.0885079
0.0885117
0.0885157
0.0885197
0.0885237
0.0885278
0.0885318
0.0885359
0.08854
0.0885441
0.0885481
0.0885522
0.0885563
0.0885604
0.0885645
0.0885686
0.0885727
0.0885768
0.0885809
0.088585
0.0885892
0.0885933
0.0885974
0.0886015
0.0886056
0.0886097
0.0886139
0.088618
0.0886221
0.0886263
0.0886304
0.0886345
0.0886387
0.0886428
0.088647
0.0886511
0.0886553
0.0886594
0.0886636
0.0886677
0.0886719
0.088676
0.0886802
0.0886844
0.0886885
0.0886927
0.0886969
0.0887011
0.0887052
0.0887094
0.0887136
0.0887178
0.088722
0.0887262
0.0887303
0.0887345
0.0887387
0.0887429
0.0887471
0.0887513
0.0887555
0.0887597
0.088764
0.0887682
0.0887724
0.0887766
0.0887808
0.088785
0.0887893
0.0887935
0.0887977
0.0888019
0.0888062
0.0888104
0.0888146
0.0888189
0.0888231
0.0888274
0.0888316
0.0888359
0.0888401
0.0888444
0.0888486
0.0888529
0.0888571
0.0888614
0.0888657
0.0888699
0.0888742
0.0888785
0.0888828
0.088887
0.0888913
0.0888956
0.0888999
0.0889042
0.0889085
0.0889128
0.088917
0.0889213
0.0889256
0.0889299
0.0889342
0.0889385
0.0889429
0.0889472
0.0889515
0.0889558
0.0889601
0.0889644
0.0889688
0.0889731
0.0889774
0.0889817
0.0889861
0.0889904
0.0889947
0.0889991
0.0890034
0.0890078
0.0890121
0.0890165
0.0890208
0.0890252
0.0890295
0.0890339
0.0890382
0.0890426
0.089047
0.0890513
0.0890557
0.0890601
0.0890645
0.0890688
0.0890732
0.0890776
0.089082
0.0890864
0.0890908
0.0890952
0.0890996
0.089104
0.0891084
0.0891128
0.0891172
0.0891216
0.089126
0.0891304
0.0891348
0.0891392
0.0891437
0.0891481
0.0891525
0.0891569
0.0891614
0.0891658
0.0891702
0.0891747
0.0891791
0.0891836
0.089188
0.0891925
0.0891969
0.0892014
0.0892058
0.0892103
0.0892148
0.0892192
0.0892237
0.0892282
0.0892326
0.0892371
0.0892416
0.0892461
0.0892505
0.089255
0.0892595
0.089264
0.0892685
0.089273
0.0892775
0.089282
0.0892865
0.089291
0.0892955
0.0893
0.0893045
0.089309
0.0893136
0.0893181
0.0893226
0.0893271
0.0893317
0.0893362
0.0893407
0.0893453
0.0893498
0.0893543
0.0893589
0.0893634
0.089368
0.0893725
0.0893771
0.0893816
0.0893862
0.0893908
0.0893953
0.0893999
0.0894045
0.089409
0.0894136
0.0894182
0.0894228
0.0894274
0.0894319
0.0894365
0.0894411
0.0894457
0.0894503
0.0894549
0.0894595
0.0894641
0.0894687
0.0894733
0.089478
0.0894826
0.0894872
0.0894918
0.0894964
0.0895011
0.0895057
0.0895103
0.089515
0.0895196
0.0895242
0.0895289
0.0895335
0.0895382
0.0895428
0.0895475
0.0895521
0.0895568
0.0895615
0.0895661
0.0895708
0.0895755
0.0895801
0.0895848
0.0895895
0.0895942
0.0895988
0.0896035
0.0896082
0.0896129
0.0896176
0.0896223
0.089627
0.0896317
0.0896364
0.0896411
0.0896458
0.0896505
0.0896553
0.08966
0.0896647
0.0896694
0.0896742
0.0896789
0.0896836
0.0896884
0.0896931
0.0896978
0.0897026
0.0897073
0.0897121
0.0897168
0.0897216
0.0897264
0.0897311
0.0897359
0.0897406
0.0897454
0.0897502
0.089755
0.0897597
0.0897646
0.0897693
0.0897741
0.0897789
0.0897837
0.0897885
0.0897933
0.0897981
0.0898029
0.0898077
0.0898126
0.0898173
0.0898222
0.0898269
0.0898319
0.0898366
0.0898415
0.0898463
0.0898512
0.0898561
0.0898608
0.0898661
0.0898705
0.0898764
0.0898796
0.0898872
0.0898821
0.0898821
0.0898821
1
0.660888
0.446896
0.35288
0.302032
0.269853
0.247505
0.231022
0.218332
0.20823
0.199971
0.193065
0.187182
0.18209
0.177623
0.173661
0.170112
0.166908
0.163994
0.16133
0.15888
0.156618
0.154522
0.152571
0.150751
0.149048
0.14745
0.145948
0.144532
0.143196
0.141933
0.140737
0.139603
0.138526
0.137502
0.136529
0.135603
0.134722
0.133884
0.133085
0.132324
0.131601
0.130916
0.130269
0.129661
0.129092
0.12856
0.128066
0.12761
0.127191
0.126809
0.126461
0.126145
0.125857
0.125591
0.125345
0.125117
0.124906
0.124712
0.124535
0.124376
0.124233
0.124103
0.123984
0.123874
0.123771
0.123675
0.123586
0.123505
0.123432
0.12337
0.123318
0.123276
0.123243
0.12322
0.123204
0.123193
0.123188
0.123186
0.123186
0.123188
0.123192
0.123196
0.1232
0.123205
0.123211
0.123216
0.123221
0.123227
0.123232
0.123238
0.123244
0.123249
0.123255
0.123261
0.123266
0.123272
0.123278
0.123283
0.123289
0.123295
0.1233
0.123306
0.123312
0.123318
0.123323
0.123329
0.123335
0.12334
0.123346
0.123352
0.123358
0.123363
0.123369
0.123375
0.123381
0.123386
0.123392
0.123398
0.123404
0.123409
0.123415
0.123421
0.123427
0.123432
0.123438
0.123444
0.12345
0.123456
0.123461
0.123467
0.123473
0.123479
0.123485
0.12349
0.123496
0.123502
0.123508
0.123514
0.123519
0.123525
0.123531
0.123537
0.123543
0.123549
0.123554
0.12356
0.123566
0.123572
0.123578
0.123584
0.12359
0.123595
0.123601
0.123607
0.123613
0.123619
0.123625
0.123631
0.123637
0.123642
0.123648
0.123654
0.12366
0.123666
0.123672
0.123678
0.123684
0.12369
0.123696
0.123702
0.123707
0.123713
0.123719
0.123725
0.123731
0.123737
0.123743
0.123749
0.123755
0.123761
0.123767
0.123773
0.123779
0.123785
0.123791
0.123797
0.123803
0.123809
0.123815
0.123821
0.123827
0.123833
0.123839
0.123845
0.123851
0.123857
0.123863
0.123869
0.123875
0.123881
0.123887
0.123893
0.123899
0.123905
0.123911
0.123917
0.123923
0.123929
0.123935
0.123941
0.123947
0.123953
0.123959
0.123965
0.123972
0.123978
0.123984
0.12399
0.123996
0.124002
0.124008
0.124014
0.12402
0.124026
0.124032
0.124039
0.124045
0.124051
0.124057
0.124063
0.124069
0.124075
0.124081
0.124088
0.124094
0.1241
0.124106
0.124112
0.124118
0.124124
0.124131
0.124137
0.124143
0.124149
0.124155
0.124162
0.124168
0.124174
0.12418
0.124186
0.124192
0.124199
0.124205
0.124211
0.124217
0.124224
0.12423
0.124236
0.124242
0.124248
0.124255
0.124261
0.124267
0.124273
0.12428
0.124286
0.124292
0.124298
0.124305
0.124311
0.124317
0.124323
0.12433
0.124336
0.124342
0.124349
0.124355
0.124361
0.124367
0.124374
0.12438
0.124386
0.124393
0.124399
0.124405
0.124412
0.124418
0.124424
0.124431
0.124437
0.124443
0.12445
0.124456
0.124462
0.124469
0.124475
0.124481
0.124488
0.124494
0.124501
0.124507
0.124513
0.12452
0.124526
0.124532
0.124539
0.124545
0.124552
0.124558
0.124564
0.124571
0.124577
0.124584
0.12459
0.124597
0.124603
0.124609
0.124616
0.124622
0.124629
0.124635
0.124642
0.124648
0.124655
0.124661
0.124668
0.124674
0.12468
0.124687
0.124693
0.1247
0.124706
0.124713
0.124719
0.124726
0.124732
0.124739
0.124745
0.124752
0.124758
0.124765
0.124772
0.124778
0.124785
0.124791
0.124798
0.124804
0.124811
0.124817
0.124824
0.124831
0.124837
0.124844
0.12485
0.124857
0.124863
0.12487
0.124877
0.124883
0.12489
0.124896
0.124903
0.12491
0.124916
0.124923
0.124929
0.124936
0.124943
0.124949
0.124956
0.124963
0.124969
0.124976
0.124983
0.124989
0.124996
0.125003
0.125009
0.125016
0.125023
0.125029
0.125036
0.125043
0.125049
0.125056
0.125063
0.12507
0.125076
0.125083
0.12509
0.125096
0.125104
0.12511
0.125118
0.125123
0.125133
0.125127
0.125127
0.125127
1
0.776803
0.557827
0.44688
0.384104
0.343747
0.315514
0.294609
0.278474
0.265612
0.255087
0.246284
0.238783
0.232291
0.226598
0.221548
0.217027
0.212946
0.209237
0.205845
0.202727
0.199849
0.197181
0.1947
0.192385
0.19022
0.188188
0.186278
0.184478
0.18278