# vtk DataFile Version 2.0
FlowField
ASCII
DATASET STRUCTURED_GRID
DIMENSIONS 400 1 200
POINTS 80000 float
0 0 0
0.08 0 0
0.16 0 0
0.24 0 0
0.32 0 0
0.4 0 0
0.48 0 0
0.56 0 0
0.64 0 0
0.72 0 0
0.8 0 0
0.88 0 0
0.96 0 0
1.04 0 0
1.12 0 0
1.2 0 0
1.28 0 0
1.36 0 0
1.44 0 0
1.52 0 0
1.6 0 0
1.68 0 0
1.76 0 0
1.84 0 0
1.92 0 0
2 0 0
2.08 0 0
2.16 0 0
2.24 0 0
2.32 0 0
2.4 0 0
2.48 0 0
2.56 0 0
2.64 0 0
2.72 0 0
2.8 0 0
2.88 0 0
2.96 0 0
3.04 0 0
3.12 0 0
3.2 0 0
3.28 0 0
3.36 0 0
3.44 0 0
3.52 0 0
3.6 0 0
3.68 0 0
3.76 0 0
3.84 0 0
3.92 0 0
4 0 0
4.08 0 0
4.16 0 0
4.24 0 0
4.32 0 0
4.4 0 0
4.48 0 0
4.56 0 0
4.64 0 0
4.72 0 0
4.8 0 0
4.88 0 0
4.96 0 0
5.04 0 0
5.12 0 0
5.2 0 0
5.28 0 0
5.36 0 0
5.44 0 0
5.52 0 0
5.6 0 0
5.68 0 0
5.76 0 0
5.84 0 0
5.92 0 0
6 0 0
6.08 0 0
6.16 0 0
6.24 0 0
6.32 0 0
6.4 0 0
6.48 0 0
6.56 0 0
6.64 0 0
6.72 0 0
6.8 0 0
6.88 0 0
6.96 0 0
7.04 0 0
7.12 0 0
7.2 0 0
7.28 0 0
7.36 0 0
7.44 0 0
7.52 0 0
7.6 0 0
7.68 0 0
7.76 0 0
7.84 0 0
7.92 0 0
8 0 0
8.08 0 0
8.16 0 0
8.24 0 0
8.32 0 0
8.4 0 0
8.48 0 0
8.56 0 0
8.64 0 0
8.72 0 0
8.8 0 0
8.88 0 0
8.96 0 0
9.04 0 0
9.12 0 0
9.2 0 0
9.28 0 0
9.36 0 0
9.44 0 0
9.52 0 0
9.6 0 0
9.68 0 0
9.76 0 0
9.84 0 0
9.92 0 0
10 0 0
10.08 0 0
10.16 0 0
10.24 0 0
10.32 0 0
10.4 0 0
10.48 0 0
10.56 0 0
10.64 0 0
10.72 0 0
10.8 0 0
10.88 0 0
10.96 0 0
11.04 0 0
11.12 0 0
11.2 0 0
11.28 0 0
11.36 0 0
11.44 0 0
11.52 0 0
11.6 0 0
11.68 0 0
11.76 0 0
11.84 0 0
11.92 0 0
12 0 0
12.08 0 0
12.16 0 0
12.24 0 0
12.32 0 0
12.4 0 0
12.48 0 0
12.56 0 0
12.64 0 0
12.72 0 0
12.8 0 0
12.88 0 0
12.96 0 0
13.04 0 0
13.12 0 0
13.2 0 0
13.28 0 0
13.36 0 0
13.44 0 0
13.52 0 0
13.6 0 0
13.68 0 0
13.76 0 0
13.84 0 0
13.92 0 0
14 0 0
14.08 0 0
14.16 0 0
14.24 0 0
14.32 0 0
14.4 0 0
14.48 0 0
14.56 0 0
14.64 0 0
14.72 0 0
14.8 0 0
14.88 0 0
14.96 0 0
15.04 0 0
15.12 0 0
15.2 0 0
15.28 0 0
15.36 0 0
15.44 0 0
15.52 0 0
15.6 0 0
15.68 0 0
15.76 0 0
15.84 0 0
15.92 0 0
16 0 0
16.08 0 0
16.16 0 0
16.24 0 0
16.32 0 0
16.4 0 0
16.48 0 0
16.56 0 0
16.64 0 0
16.72 0 0
16.8 0 0
16.88 0 0
16.96 0 0
17.04 0 0
17.12 0 0
17.2 0 0
17.28 0 0
17.36 0 0
17.44 0 0
17.52 0 0
17.6 0 0
17.68 0 0
17.76 0 0
17.84 0 0
17.92 0 0
18 0 0
18.08 0 0
18.16 0 0
18.24 0 0
18.32 0 0
18.4 0 0
18.48 0 0
18.56 0 0
18.64 0 0
18.72 0 0
18.8 0 0
18.88 0 0
18.96 0 0
19.04 0 0
19.12 0 0
19.2 0 0
19.28 0 0
19.36 0 0
19.44 0 0
19.52 0 0
19.6 0 0
19.68 0 0
19.76 0 0
19.84 0 0
19.92 0 0
20 0 0
20.08 0 0
20.16 0 0
20.24 0 0
20.32 0 0
20.4 0 0
20.48 0 0
20.56 0 0
20.64 0 0
20.72 0 0
20.8 0 0
20.88 0 0
20.96 0 0
21.04 0 0
21.12 0 0
21.2 0 0
21.28 0 0
21.36 0 0
21.44 0 0
21.52 0 0
21.6 0 0
21.68 0 0
21.76 0 0
21.84 0 0
21.92 0 0
22 0 0
22.08 0 0
22.16 0 0
22.24 0 0
22.32 0 0
22.4 0 0
22.48 0 0
22.56 0 0
22.64 0 0
22.72 0 0
22.8 0 0
22.88 0 0
22.96 0 0
23.04 0 0
23.12 0 0
23.2 0 0
23.28 0 0
23.36 0 0
23.44 0 0
23.52 0 0
23.6 0 0
23.68 0 0
23.76 0 0
23.84 0 0
23.92 0 0
24 0 0
24.08 0 0
24.16 0 0
24.24 0 0
24.32 0 0
24.4 0 0
24.48 0 0
24.56 0 0
24.64 0 0
24.72 0 0
24.8 0 0
24.88 0 0
24.96 0 0
25.04 0 0
25.12 0 0
25.2 0 0
25.28 0 0
25.36 0 0
25.44 0 0
25.52 0 0
25.6 0 0
25.68 0 0
25.76 0 0
25.84 0 0
25.92 0 0
26 0 0
26.08 0 0
26.16 0 0
26.24 0 0
26.32 0 0
26.4 0 0
26.48 0 0
26.56 0 0
26.64 0 0
26.72 0 0
26.8 0 0
26.88 0 0
26.96 0 0
27.04 0 0
27.12 0 0
27.2 0 0
27.28 0 0
27.36 0 0
27.44 0 0
27.52 0 0
27.6 0 0
27.68 0 0
27.76 0 0
27.84 0 0
27.92 0 0
28 0 0
28.08 0 0
28.16 0 0
28.24 0 0
28.32 0 0
28.4 0 0
28.48 0 0
28.56 0 0
28.64 0 0
28.72 0 0
28.8 0 0
28.88 0 0
28.96 0 0
29.04 0 0
29.12 0 0
29.2 0 0
29.28 0 0
29.36 0 0
29.44 0 0
29.52 0 0
29.6 0 0
29.68 0 0
29.76 0 0
29.84 0 0
29.92 0 0
30 0 0
30.08 0 0
30.16 0 0
30.24 0 0
30.32 0 0
30.4 0 0
30.48 0 0
30.56 0 0
30.64 0 0
30.72 0 0
30.8 0 0
30.88 0 0
30.96 0 0
31.04 0 0
31.12 0 0
31.2 0 0
31.28 0 0
31.36 0 0
31.44 0 0
31.52 0 0
31.6 0 0
31.68 0 0
31.76 0 0
31.84 0 0
31.92 0 0
0 0.005 0
0.08 0.005 0
0.16 0.005 0
0.24 0.005 0
0.32 0.005 0
0.4 0.005 0
0.48 0.005 0
0.56 0.005 0
0.64 0.005 0
0.72 0.005 0
0.8 0.005 0
0.88 0.005 0
0.96 0.005 0
1.04 0.005 0
1.12 0.005 0
1.2 0.005 0
1.28 0.005 0
1.36 0.005 0
1.44 0.005 0
1.52 0.005 0
1.6 0.005 0
1.68 0.005 0
1.76 0.005 0
1.84 0.005 0
1.92 0.005 0
2 0.005 0
2.08 0.005 0
2.16 0.005 0
2.24 0.005 0
2.32 0.005 0
2.4 0.005 0
2.48 0.005 0
2.56 0.005 0
2.64 0.005 0
2.72 0.005 0
2.8 0.005 0
2.88 0.005 0
2.96 0.005 0
3.04 0.005 0
3.12 0.005 0
3.2 0.005 0
3.28 0.005 0
3.36 0.005 0
3.44 0.005 0
3.52 0.005 0
3.6 0.005 0
3.68 0.005 0
3.76 0.005 0
3.84 0.005 0
3.92 0.005 0
4 0.005 0
4.08 0.005 0
4.16 0.005 0
4.24 0.005 0
4.32 0.005 0
4.4 0.005 0
4.48 0.005 0
4.56 0.005 0
4.64 0.005 0
4.72 0.005 0
4.8 0.005 0
4.88 0.005 0
4.96 0.005 0
5.04 0.005 0
5.12 0.005 0
5.2 0.005 0
5.28 0.005 0
5.36 0.005 0
5.44 0.005 0
5.52 0.005 0
5.6 0.005 0
5.68 0.005 0
5.76 0.005 0
5.84 0.005 0
5.92 0.005 0
6 0.005 0
6.08 0.005 0
6.16 0.005 0
6.24 0.005 0
6.32 0.005 0
6.4 0.005 0
6.48 0.005 0
6.56 0.005 0
6.64 0.005 0
6.72 0.005 0
6.8 0.005 0
6.88 0.005 0
6.96 0.005 0
7.04 0.005 0
7.12 0.005 0
7.2 0.005 0
7.28 0.005 0
7.36 0.005 0
7.44 0.005 0
7.52 0.005 0
7.6 0.005 0
7.68 0.005 0
7.76 0.005 0
7.84 0.005 0
7.92 0.005 0
8 0.005 0
8.08 0.005 0
8.16 0.005 0
8.24 0.005 0
8.32 0.005 0
8.4 0.005 0
8.48 0.005 0
8.56 0.005 0
8.64 0.005 0
8.72 0.005 0
8.8 0.005 0
8.88 0.005 0
8.96 0.005 0
9.04 0.005 0
9.12 0.005 0
9.2 0.005 0
9.28 0.005 0
9.36 0.005 0
9.44 0.005 0
9.52 0.005 0
9.6 0.005 0
9.68 0.005 0
9.76 0.005 0
9.84 0.005 0
9.92 0.005 0
10 0.005 0
10.08 0.005 0
10.16 0.005 0
10.24 0.005 0
10.32 0.005 0
10.4 0.005 0
10.48 0.005 0
10.56 0.005 0
10.64 0.005 0
10.72 0.005 0
10.8 0.005 0
10.88 0.005 0
10.96 0.005 0
11.04 0.005 0
11.12 0.005 0
11.2 0.005 0
11.28 0.005 0
11.36 0.005 0
11.44 0.005 0
11.52 0.005 0
11.6 0.005 0
11.68 0.005 0
11.76 0.005 0
11.84 0.005 0
11.92 0.005 0
12 0.005 0
12.08 0.005 0
12.16 0.005 0
12.24 0.005 0
12.32 0.005 0
12.4 0.005 0
12.48 0.005 0
12.56 0.005 0
12.64 0.005 0
12.72 0.005 0
12.8 0.005 0
12.88 0.005 0
12.96 0.005 0
13.04 0.005 0
13.12 0.005 0
13.2 0.005 0
13.28 0.005 0
13.36 0.005 0
13.44 0.005 0
13.52 0.005 0
13.6 0.005 0
13.68 0.005 0
13.76 0.005 0
13.84 0.005 0
13.92 0.005 0
14 0.005 0
14.08 0.005 0
14.16 0.005 0
14.24 0.005 0
14.32 0.005 0
14.4 0.005 0
14.48 0.005 0
14.56 0.005 0
14.64 0.005 0
14.72 0.005 0
14.8 0.005 0
14.88 0.005 0
14.96 0.005 0
15.04 0.005 0
15.12 0.005 0
15.2 0.005 0
15.28 0.005 0
15.36 0.005 0
15.44 0.005 0
15.52 0.005 0
15.6 0.005 0
15.68 0.005 0
15.76 0.005 0
15.84 0.005 0
15.92 0.005 0
16 0.005 0
16.08 0.005 0
16.16 0.005 0
16.24 0.005 0
16.32 0.005 0
16.4 0.005 0
16.48 0.005 0
16.56 0.005 0
16.64 0.005 0
16.72 0.005 0
16.8 0.005 0
16.88 0.005 0
16.96 0.005 0
17.04 0.005 0
17.12 0.005 0
17.2 0.005 0
17.28 0.005 0
17.36 0.005 0
17.44 0.005 0
17.52 0.005 0
17.6 0.005 0
17.68 0.005 0
17.76 0.005 0
17.84 0.005 0
17.92 0.005 0
18 0.005 0
18.08 0.005 0
18.16 0.005 0
18.24 0.005 0
18.32 0.005 0
18.4 0.005 0
18.48 0.005 0
18.56 0.005 0
18.64 0.005 0
18.72 0.005 0
18.8 0.005 0
18.88 0.005 0
18.96 0.005 0
19.04 0.005 0
19.12 0.005 0
19.2 0.005 0
19.28 0.005 0
19.36 0.005 0
19.44 0.005 0
19.52 0.005 0
19.6 0.005 0
19.68 0.005 0
19.76 0.005 0
19.84 0.005 0
19.92 0.005 0
20 0.005 0
20.08 0.005 0
20.16 0.005 0
20.24 0.005 0
20.32 0.005 0
20.4 0.005 0
20.48 0.005 0
20.56 0.005 0
20.64 0.005 0
20.72 0.005 0
20.8 0.005 0
20.88 0.005 0
20.96 0.005 0
21.04 0.005 0
21.12 0.005 0
21.2 0.005 0
21.28 0.005 0
21.36 0.005 0
21.44 0.005 0
21.52 0.005 0
21.6 0.005 0
21.68 0.005 0
21.76 0.005 0
21.84 0.005 0
21.92 0.005 0
22 0.005 0
22.08 0.005 0
22.16 0.005 0
22.24 0.005 0
22.32 0.005 0
22.4 0.005 0
22.48 0.005 0
22.56 0.005 0
22.64 0.005 0
22.72 0.005 0
22.8 0.005 0
22.88 0.005 0
22.96 0.005 0
23.04 0.005 0
23.12 0.005 0
23.2 0.005 0
23.28 0.005 0
23.36 0.005 0
23.44 0.005 0
23.52 0.005 0
23.6 0.005 0
23.68 0.005 0
23.76 0.005 0
23.84 0.005 0
23.92 0.005 0
24 0.005 0
24.08 0.005 0
24.16 0.005 0
24.24 0.005 0
24.32 0.005 0
24.4 0.005 0
24.48 0.005 0
24.56 0.005 0
24.64 0.005 0
24.72 0.005 0
24.8 0.005 0
24.88 0.005 0
24.96 0.005 0
25.04 0.005 0
25.12 0.005 0
25.2 0.005 0
25.28 0.005 0
25.36 0.005 0
25.44 0.005 0
25.52 0.005 0
25.6 0.005 0
25.68 0.005 0
25.76 0.005 0
25.84 0.005 0
25.92 0.005 0
26 0.005 0
26.08 0.005 0
26.16 0.005 0
26.24 0.005 0
26.32 0.005 0
26.4 0.005 0
26.48 0.005 0
26.56 0.005 0
26.64 0.005 0
26.72 0.005 0
26.8 0.005 0
26.88 0.005 0
26.96 0.005 0
27.04 0.005 0
27.12 0.005 0
27.2 0.005 0
27.28 0.005 0
27.36 0.005 0
27.44 0.005 0
27.52 0.005 0
27.6 0.005 0
27.68 0.005 0
27.76 0.005 0
27.84 0.005 0
27.92 0.005 0
28 0.005 0
28.08 0.005 0
28.16 0.005 0
28.24 0.005 0
28.32 0.005 0
28.4 0.005 0
28.48 0.005 0
28.56 0.005 0
28.64 0.005 0
28.72 0.005 0
28.8 0.005 0
28.88 0.005 0
28.96 0.005 0
29.04 0.005 0
29.12 0.005 0
29.2 0.005 0
29.28 0.005 0
29.36 0.005 0
29.44 0.005 0
29.52 0.005 0
29.6 0.005 0
29.68 0.005 0
29.76 0.005 0
29.84 0.005 0
29.92 0.005 0
30 0.005 0
30.08 0.005 0
30.16 0.005 0
30.24 0.005 0
30.32 0.005 0
30.4 0.005 0
30.48 0.005 0
30.56 0.005 0
30.64 0.005 0
30.72 0.005 0
30.8 0.005 0
30.88 0.005 0
30.96 0.005 0
31.04 0.005 0
31.12 0.005 0
31.2 0.005 0
31.28 0.005 0
31.36 0.005 0
31.44 0.005 0
31.52 0.005 0
31.6 0.005 0
31.68 0.005 0
31.76 0.005 0
31.84 0.005 0
31.92 0.005 0
0 0.01 0
0.08 0.01 0
0.16 0.01 0
0.24 0.01 0
0.32 0.01 0
0.4 0.01 0
0.48 0.01 0
0.56 0.01 0
0.64 0.01 0
0.72 0.01 0
0.8 0.01 0
0.88 0.01 0
0.96 0.01 0
1.04 0.01 0
1.12 0.01 0
1.2 0.01 0
1.28 0.01 0
1.36 0.01 0
1.44 0.01 0
1.52 0.01 0
1.6 0.01 0
1.68 0.01 0
1.76 0.01 0
1.84 0.01 0
1.92 0.01 0
2 0.01 0
2.08 0.01 0
2.16 0.01 0
2.24 0.01 0
2.32 0.01 0
2.4 0.01 0
2.48 0.01 0
2.56 0.01 0
2.64 0.01 0
2.72 0.01 0
2.8 0.01 0
2.88 0.01 0
2.96 0.01 0
3.04 0.01 0
3.12 0.01 0
3.2 0.01 0
3.28 0.01 0
3.36 0.01 0
3.44 0.01 0
3.52 0.01 0
3.6 0.01 0
3.68 0.01 0
3.76 0.01 0
3.84 0.01 0
3.92 0.01 0
4 0.01 0
4.08 0.01 0
4.16 0.01 0
4.24 0.01 0
4.32 0.01 0
4.4 0.01 0
4.48 0.01 0
4.56 0.01 0
4.64 0.01 0
4.72 0.01 0
4.8 0.01 0
4.88 0.01 0
4.96 0.01 0
5.04 0.01 0
5.12 0.01 0
[...]
POINT_DATA 80000

SCALARS u float 1
LOOKUP_TABLE default
0
-0.131792
-0.0684658
-0.0525505
-0.0452714
-0.0418598
-0.0405136
-0.0401295
-0.0401073
-0.0401902
-0.0402897
-0.0403809
-0.0404596
-0.0405274
-0.0405871
-0.0406412
-0.0406915
-0.0407395
-0.0407859
-0.0408315
-0.0408766
-0.0409214
-0.0409662
-0.0410109
-0.0410558
-0.0411008
-0.0411459
-0.0411913
-0.0412368
-0.0412824
-0.0413283
-0.0413744
-0.0414206
-0.0414671
-0.0415138
-0.0415606
-0.0416077
-0.041655
-0.0417024
-0.0417501
-0.041798
-0.0418461
-0.0418944
-0.0419429
-0.0419916
-0.0420405
-0.0420896
-0.0421389
-0.0421885
-0.0422382
-0.0422882
-0.0423384
-0.0423888
-0.0424394
-0.0424902
-0.0425413
-0.0425926
-0.042644
-0.0426958
-0.0427477
-0.0427999
-0.0428523
-0.0429049
-0.0429578
-0.0430109
-0.0430642
-0.0431178
-0.0431716
-0.0432257
-0.04328
-0.0433345
-0.0433893
-0.0434443
-0.0434996
-0.0435551
-0.0436109
-0.043667
-0.0437233
-0.0437798
-0.0438367
-0.0438937
-0.0439511
-0.0440087
-0.0440666
-0.0441248
-0.0441832
-0.0442419
-0.0443009
-0.0443602
-0.0444197
-0.0444795
-0.0445397
-0.0446001
-0.0446608
-0.0447218
-0.0447831
-0.0448447
-0.0449065
-0.0449687
-0.0450312
-0.0450941
-0.0451572
-0.0452206
-0.0452844
-0.0453484
-0.0454128
-0.0454775
-0.0455426
-0.045608
-0.0456737
-0.0457397
-0.0458061
-0.0458728
-0.0459399
-0.0460073
-0.046075
-0.0461431
-0.0462116
-0.0462804
-0.0463496
-0.0464192
-0.0464891
-0.0465594
-0.0466301
-0.0467011
-0.0467725
-0.0468444
-0.0469166
-0.0469892
-0.0470621
-0.0471355
-0.0472093
-0.0472835
-0.0473581
-0.0474332
-0.0475086
-0.0475845
-0.0476607
-0.0477375
-0.0478146
-0.0478922
-0.0479702
-0.0480487
-0.0481276
-0.048207
-0.0482869
-0.0483672
-0.0484479
-0.0485292
-0.0486109
-0.0486931
-0.0487758
-0.048859
-0.0489426
-0.0490268
-0.0491115
-0.0491967
-0.0492824
-0.0493686
-0.0494554
-0.0495427
-0.0496305
-0.0497189
-0.0498078
-0.0498973
-0.0499873
-0.0500779
-0.0501691
-0.0502608
-0.0503531
-0.0504461
-0.0505396
-0.0506337
-0.0507284
-0.0508238
-0.0509197
-0.0510163
-0.0511136
-0.0512115
-0.05131
-0.0514092
-0.051509
-0.0516096
-0.0517108
-0.0518126
-0.0519152
-0.0520185
-0.0521225
-0.0522273
-0.0523327
-0.0524389
-0.0525458
-0.0526535
-0.052762
-0.0528712
-0.0529812
-0.053092
-0.0532036
-0.053316
-0.0534292
-0.0535432
-0.0536581
-0.0537738
-0.0538904
-0.0540079
-0.0541263
-0.0542455
-0.0543657
-0.0544867
-0.0546087
-0.0547317
-0.0548555
-0.0549804
-0.0551062
-0.055233
-0.0553609
-0.0554897
-0.0556196
-0.0557505
-0.0558824
-0.0560155
-0.0561496
-0.0562848
-0.0564211
-0.0565586
-0.0566972
-0.056837
-0.056978
-0.0571202
-0.0572635
-0.0574081
-0.057554
-0.0577011
-0.0578495
-0.0579992
-0.0581503
-0.0583027
-0.0584564
-0.0586116
-0.0587681
-0.0589261
-0.0590855
-0.0592464
-0.0594088
-0.0595727
-0.0597381
-0.0599051
-0.0600737
-0.060244
-0.0604158
-0.0605894
-0.0607646
-0.0609416
-0.0611203
-0.0613008
-0.0614831
-0.0616673
-0.0618533
-0.0620413
-0.0622312
-0.062423
-0.0626169
-0.0628128
-0.0630109
-0.063211
-0.0634133
-0.0636178
-0.0638245
-0.0640335
-0.0642449
-0.0644586
-0.0646747
-0.0648933
-0.0651144
-0.0653381
-0.0655644
-0.0657933
-0.066025
-0.0662594
-0.0664966
-0.0667367
-0.0669798
-0.0672259
-0.067475
-0.0677273
-0.0679828
-0.0682416
-0.0685037
-0.0687692
-0.0690382
-0.0693108
-0.069587
-0.069867
-0.0701508
-0.0704386
-0.0707303
-0.0710262
-0.0713262
-0.0716306
-0.0719394
-0.0722528
-0.0725707
-0.0728935
-0.0732211
-0.0735538
-0.0738916
-0.0742348
-0.0745834
-0.0749375
-0.0752975
-0.0756634
-0.0760353
-0.0764136
-0.0767984
-0.0771898
-0.0775882
-0.0779936
-0.0784064
-0.0788269
-0.0792552
-0.0796917
-0.0801366
-0.0805903
-0.0810531
-0.0815254
-0.0820076
-0.0825001
-0.0830032
-0.0835176
-0.0840437
-0.084582
-0.0851332
-0.0856979
-0.0862768
-0.0868707
-0.0874802
-0.0881064
-0.0887501
-0.0894123
-0.0900941
-0.0907967
-0.0915214
-0.0922693
-0.0930421
-0.0938411
-0.0946681
-0.0955246
-0.0964126
-0.0973339
-0.0982904
-0.0992844
-0.100318
-0.101393
-0.102512
-0.103678
-0.104892
-0.106156
-0.107474
-0.108848
-0.110278
-0.111768
-0.113319
-0.114932
-0.116609
-0.118351
-0.120157
-0.122027
-0.123962
-0.125959
-0.128016
-0.130132
-0.132301
-0.13452
-0.136783
-0.139083
-0.141412
-0.143763
-0.146125
-0.148486
-0.150836
-0.153159
-0.155443
-0.157672
-0.159828
-0.161896
-0.163858
-0.165694
-0.167386
-0.168916
-0.170264
-0.171413
-0.172343
-0.173038
-0.173482
-0.173661
-0.173565
-0.173197
-0.173078
-0.173078
-0.173078
1
0.131792
0.0684658
0.0525505
0.0452714
0.0418598
0.0405136
0.0401295
0.0401073
0.0401902
0.0402897
0.0403809
0.0404596
0.0405274
0.0405871
0.0406412
0.0406915
0.0407395
0.0407859
0.0408315
0.0408766
0.0409214
0.0409662
0.0410109
0.0410558
0.0411008
0.0411459
0.0411913
0.0412368
0.0412824
0.0413283
0.0413744
0.0414206
0.0414671
0.0415138
0.0415606
0.0416077
0.041655
0.0417024
0.0417501
0.041798
0.0418461
0.0418944
0.0419429
0.0419916
0.0420405
0.0420896
0.0421389
0.0421885
0.0422382
0.0422882
0.0423384
0.0423888
0.0424394
0.0424902
0.0425413
0.0425926
0.042644
0.0426958
0.0427477
0.0427999
0.0428523
0.0429049
0.0429578
0.0430109
0.0430642
0.0431178
0.0431716
0.0432257
0.04328
0.0433345
0.0433893
0.0434443
0.0434996
0.0435551
0.0436109
0.043667
0.0437233
0.0437798
0.0438367
0.0438937
0.0439511
0.0440087
0.0440666
0.0441248
0.0441832
0.0442419
0.0443009
0.0443602
0.0444197
0.0444795
0.0445397
0.0446001
0.0446608
0.0447218
0.0447831
0.0448447
0.0449065
0.0449687
0.0450312
0.0450941
0.0451572
0.0452206
0.0452844
0.0453484
0.0454128
0.0454775
0.0455426
0.045608
0.0456737
0.0457397
0.0458061
0.0458728
0.0459399
0.0460073
0.046075
0.0461431
0.0462116
0.0462804
0.0463496
0.0464192
0.0464891
0.0465594
0.0466301
0.0467011
0.0467725
0.0468444
0.0469166
0.0469892
0.0470621
0.0471355
0.0472093
0.0472835
0.0473581
0.0474332
0.0475086
0.0475845
0.0476607
0.0477375
0.0478146
0.0478922
0.0479702
0.0480487
0.0481276
0.048207
0.0482869
0.0483672
0.0484479
0.0485292
0.0486109
0.0486931
0.0487758
0.048859
0.0489426
0.0490268
0.0491115
0.0491967
0.0492824
0.0493686
0.0494554
0.0495427
0.0496305
0.0497189
0.0498078
0.0498973
0.0499873
0.0500779
0.0501691
0.0502608
0.0503531
0.0504461
0.0505396
0.0506337
0.0507284
0.0508238
0.0509197
0.0510163
0.0511136
0.0512115
0.05131
0.0514092
0.051509
0.0516096
0.0517108
0.0518126
0.0519152
0.0520185
0.0521225
0.0522273
0.0523327
0.0524389
0.0525458
0.0526535
0.052762
0.0528712
0.0529812
0.053092
0.0532036
0.053316
0.0534292
0.0535432
0.0536581
0.0537738
0.0538904
0.0540079
0.0541263
0.0542455
0.0543657
0.0544867
0.0546087
0.0547317
0.0548555
0.0549804
0.0551062
0.055233
0.0553609
0.0554897
0.0556196
0.0557505
0.0558824
0.0560155
0.0561496
0.0562848
0.0564211
0.0565586
0.0566972
0.056837
0.056978
0.0571202
0.0572635
0.0574081
0.057554
0.0577011
0.0578495
0.0579992
0.0581503
0.0583027
0.0584564
0.0586116
0.0587681
0.0589261
0.0590855
0.0592464
0.0594088
0.0595727
0.0597381
0.0599051
0.0600737
0.060244
0.0604158
0.0605894
0.0607646
0.0609416
0.0611203
0.0613008
0.0614831
0.0616673
0.0618533
0.0620413
0.0622312
0.062423
0.0626169
0.0628128
0.0630109
0.063211
0.0634133
0.0636178
0.0638245
0.0640335
0.0642449
0.0644586
0.0646747
0.0648933
0.0651144
0.0653381
0.0655644
0.0657933
0.066025
0.0662594
0.0664966
0.0667367
0.0669798
0.0672259
0.067475
0.0677273
0.0679828
0.0682416
0.0685037
0.0687692
0.0690382
0.0693108
0.069587
0.069867
0.0701508
0.0704386
0.0707303
0.0710262
0.0713262
0.0716306
0.0719394
0.0722528
0.0725707
0.0728935
0.0732211
0.0735538
0.0738916
0.0742348
0.0745834
0.0749375
0.0752975
0.0756634
0.0760353
0.0764136
0.0767984
0.0771898
0.0775882
0.0779936
0.0784064
0.0788269
0.0792552
0.0796917
0.0801366
0.0805903
0.0810531
0.0815254
0.0820076
0.0825001
0.0830032
0.0835176
0.0840437
0.084582
0.0851332
0.0856979
0.0862768
0.0868707
0.0874802
0.0881064
0.0887501
0.0894123
0.0900941
0.0907967
0.0915214
0.0922693
0.0930421
0.0938411
0.0946681
0.0955246
0.0964126
0.0973339
0.0982904
0.0992844
0.100318
0.101393
0.102512
0.103678
0.104892
0.106156
0.107474
0.108848
0.110278
0.111768
0.113319
0.114932
0.116609
0.118351
0.120157
0.122027
0.123962
0.125959
0.128016
0.130132
0.132301
0.13452
0.136783
0.139083
0.141412
0.143763
0.146125
0.148486
0.150836
0.153159
0.155443
0.157672
0.159828
0.161896
0.163858
0.165694
0.167386
0.168916
0.170264
0.171413
0.172343
0.173038
0.173482
0.173661
0.173565
0.173197
0.173078
0.173078
0.173078
1
0.34523
0.201164
0.155705
0.134612
0.124735
0.120793
0.119602
0.11946
0.119641
0.119889
0.120128
0.12034
0.120528
0.120696
0.12085
0.120996
0.121135
0.121271
0.121405
0.121537
0.121669
0.121801
0.121933
0.122065
0.122197
0.12233
0.122464
0.122598
0.122732
0.122867
0.123003
0.123139
0.123276
0.123413
0.123551
0.12369
0.123829
0.123969
0.124109
0.12425
0.124392
0.124534
0.124676
0.12482
0.124964
0.125108
0.125253
0.125399
0.125545
0.125692
0.12584
0.125988
0.126137
0.126287
0.126437
0.126588
0.126739
0.126891
0.127044
0.127197
0.127352
0.127506
0.127662
0.127818
0.127975
0.128132
0.12829
0.128449
0.128609
0.128769
0.12893
0.129092
0.129254
0.129418
0.129582
0.129746
0.129912
0.130078
0.130245
0.130413
0.130581
0.13075
0.13092
0.131091
0.131263
0.131435
0.131609
0.131783
0.131958
0.132133
0.13231
0.132487
0.132665
0.132845
0.133024
0.133205
0.133387
0.13357
0.133753
0.133937
0.134123
0.134309
0.134496
0.134684
0.134873
0.135063
0.135254
0.135445
0.135638
0.135832
0.136027
0.136222
0.136419
0.136617
0.136815
0.137015
0.137216
0.137418
0.13762
0.137824
0.138029
0.138235
0.138442
0.138651
0.13886
0.139071
0.139282
0.139495
0.139709
0.139924
0.14014
0.140357
0.140576
0.140795
0.141016
0.141239
0.141462
0.141687
0.141913
0.14214
0.142368
0.142598
0.142829
0.143061
0.143295
0.14353
0.143766
0.144004
0.144243
0.144483
0.144725
0.144969
0.145213
0.14546
0.145707
0.145956
0.146207
0.146459
0.146713
0.146968
0.147224
0.147483
0.147743
0.148004
0.148267
0.148532
0.148798
0.149066
0.149336
0.149607
0.14988
0.150155
0.150432
0.15071
0.15099
0.151272
0.151556
0.151842
0.152129
0.152418
0.15271
0.153003
0.153298
0.153595
0.153895
0.154196
0.154499
0.154804
0.155112
0.155421
0.155733
0.156047
0.156362
0.156681
0.157001
0.157324
0.157649
0.157976
0.158306
0.158638
0.158972
0.159309
0.159648
0.15999
0.160334
0.160681
0.161031
0.161383
0.161738
0.162095
0.162455
0.162818
0.163184
0.163552
0.163924
0.164298
0.164675
0.165055
0.165439
0.165825
0.166214
0.166607
0.167002
0.167401
0.167803
0.168209
0.168618
0.16903
0.169445
0.169865
0.170287
0.170714
0.171144
0.171577
0.172015
0.172456
0.172901
0.17335
0.173803
0.17426
0.174721
0.175187
0.175656
0.17613
0.176608
0.177091
0.177578
0.17807
0.178566
0.179067
0.179573
0.180084
0.1806
0.18112
0.181646
0.182177
0.182714
0.183255
0.183803
0.184355
0.184914
0.185478
0.186048
0.186624
0.187206
0.187794
0.188388
0.188989
0.189596
0.19021
0.190831
0.191459
0.192093
0.192735
0.193384
0.194041
0.194705
0.195376
0.196056
0.196744
0.197439
0.198144
0.198856
0.199578
0.200308
0.201047
0.201796
0.202554
0.203322
0.204099
0.204887
0.205685
0.206493
0.207313
0.208143
0.208985
0.209838
0.210703
0.21158
0.21247
0.213372
0.214287
0.215216
0.216159
0.217115
0.218086
0.219071
0.220072
0.221089
0.222121
0.22317
0.224236
0.225319
0.226421
0.227541
0.228679
0.229838
0.231016
0.232216
0.233437
0.234681
0.235947
0.237238
0.238553
0.239894
0.241261
0.242656
0.24408
0.245533
0.247018
0.248535
0.250085
0.251671
0.253294
0.254956
0.256657
0.258402
0.26019
0.262025
0.263908
0.265843
0.267832
0.269877
0.271982
0.274149
0.276381
0.278682
0.281054
0.283502
0.286029
0.288638
0.291332
0.294115
0.296991
0.299961
0.30303
0.306199
0.30947
0.312846
0.316328
0.319915
0.323608
0.327405
0.331303
0.335299
0.339389
0.343566
0.347821
0.352146
0.356529
0.360956
0.365413
0.369881
0.374341
0.378772
0.383149
0.387447
0.391636
0.395688
0.399569
0.403247
0.406685
0.409849
0.412701
0.415203
0.417319
0.419011
0.420244
0.420982
0.421193
0.420846
0.419916
0.418377
0.416212
0.413411
0.409992
0.406795
0.406795
0.406795
1
0.519294
0.328116
0.256514
0.222442
0.206376
0.199859
0.19778
0.197427
0.197634
0.19798
0.198332
0.198655
0.198945
0.19921
0.199457
0.19969
0.199915
0.200135
0.200352
0.200567
0.200781
0.200995
0.201209
0.201424
0.201639
0.201855
0.202072
0.20229
0.202509
0.202728
0.202949
0.20317
0.203392
0.203615
0.20384
0.204065
0.204291
0.204518
0.204746
0.204974
0.205204
0.205435
0.205667
0.2059
0.206133
0.206368
0.206604
0.20684
0.207078
0.207316
0.207556
0.207797
0.208038
0.208281
0.208525
0.208769
0.209015
0.209262
0.20951
0.209758
0.210008
0.210259
0.210511
0.210765
0.211019
0.211274
0.211531
0.211788
0.212047
0.212307
0.212568
0.21283
0.213094
0.213358
0.213624
0.213891
0.214159
0.214428
0.214698
0.21497
0.215243
0.215517
0.215793
0.216069
0.216347
0.216626
0.216907
0.217189
0.217472
0.217756
0.218042
0.218329
0.218618
0.218907
0.219199
0.219491
0.219785
0.22008
0.220377
0.220675
0.220975
0.221276
0.221578
0.221882
0.222188
0.222495
0.222803
0.223113
0.223425
0.223738
0.224052
0.224369
0.224686
0.225006
0.225327
0.225649
0.225973
0.226299
0.226627
0.226956
0.227287
0.22762
0.227954
0.22829
0.228628
0.228967
0.229309
0.229652
0.229997
0.230344
0.230692
0.231043
0.231395
0.231749
0.232105
0.232464
0.232824
0.233186
0.23355
0.233916
0.234284
0.234654
0.235026
0.2354
0.235776
0.236154
0.236535
0.236918
0.237302
0.237689
0.238079
0.23847
0.238864
0.23926
0.239658
0.240059
0.240461
0.240867
0.241274
0.241685
0.242097
0.242512
0.24293
0.24335
0.243772
0.244197
0.244625
0.245055
0.245488
0.245924
0.246362
0.246803
0.247247
0.247693
0.248142
0.248595
0.24905
0.249508
0.249968
0.250432
0.250899
0.251369
0.251842
0.252318
0.252797
0.253279
0.253764
0.254253
0.254745
0.25524
0.255739
0.25624
0.256746
0.257255
0.257767
0.258283
0.258802
0.259325
0.259851
0.260382
0.260916
0.261454
0.261995
0.262541
0.26309
0.263644
0.264201
0.264762
0.265328
0.265898
0.266472
0.26705
0.267632
0.268219
0.268811
0.269406
0.270007
0.270612
0.271221
0.271836
0.272455
0.273079
0.273708
0.274341
0.27498
0.275624
0.276273
0.276928
0.277587
0.278252
0.278923
0.279599
0.28028
0.280968
0.281661
0.28236
0.283065
0.283775
0.284492
0.285216
0.285945
0.286681
0.287423
0.288172
0.288927
0.289689
0.290459
0.291235
0.292018
0.292808
0.293606
0.294411
0.295223
0.296043
0.296871
0.297707
0.29855
0.299402
0.300263
0.301131
0.302008
0.302894
0.303788
0.304692
0.305605
0.306527
0.307458
0.308399
0.30935
0.310311
0.311281
0.312263
0.313254
0.314257
0.31527
0.316294
0.31733
0.318377
0.319435
0.320506
0.321589
0.322684
0.323792
0.324912
0.326046
0.327193
0.328354
0.329529
0.330718
0.331921
0.33314
0.334373
0.335622
0.336887
0.338168
0.339465
0.340779
0.34211
0.343459
0.344826
0.346211
0.347615
0.349039
0.350482
0.351945
0.353429
0.354934
0.356461
0.35801
0.359582
0.361177
0.362796
0.36444
0.366109
0.367804
0.369526
0.371275
0.373053
0.374859
0.376695
0.378563
0.380461
0.382393
0.384358
0.386358
0.388394
0.390467
0.392578
0.39473
0.396922
0.399157
0.401436
0.403761
0.406134
0.408556
0.41103
0.413557
0.41614
0.41878
0.421481
0.424245
0.427073
0.42997
0.432937
0.435977
0.439093
0.442288
0.445565
0.448927
0.452375
0.455914
0.459544
0.463269
0.467089
0.471007
0.475024
0.479139
0.483352
0.487663
0.492068
0.496566
0.501151
0.505819
0.510561
0.515369
0.520234
0.525142
0.530079
0.535029
0.539973
0.54489
0.549757
0.554548
0.559234
0.563786
0.568171
0.572352
0.576294
0.579957
0.5833
0.586283
0.588861
0.590991
0.59263
0.593735
0.594264
0.594176
0.593433
0.591998
0.589839
0.586928
0.583239
0.578756
0.573465
0.567365
0.560489
0.553561
0.553561
0.553561
1
0.661567
0.447759
0.354396
0.308372
0.286374
0.277254
0.274178
0.27351
0.273667
0.27406
0.27449
0.2749
0.275277
0.275626
0.275954
0.276267
0.27657
0.276867
0.27716
0.277451
0.277741
0.278031
0.278321
0.278612
0.278903
0.279196
0.27949
0.279784
0.28008
0.280377
0.280676
0.280975
0.281276
0.281578
0.281881
0.282186
0.282492
0.282799
0.283107
0.283417
0.283728
0.28404
0.284353
0.284668
0.284984
0.285301
0.285619
0.285939
0.28626
0.286583
0.286907
0.287232
0.287558
0.287886
0.288215
0.288546
0.288878
0.289211
0.289546
0.289882
0.290219
0.290558
0.290898
0.29124
0.291583
0.291928
0.292274
0.292622
0.292971
0.293321
0.293673
0.294027
0.294382
0.294739
0.295097
0.295457
0.295818
0.296181
0.296546
0.296912
0.29728
0.297649
0.29802
0.298393
0.298767
0.299143
0.299521
0.299901
0.300282
0.300665
0.301049
0.301436
0.301824
0.302214
0.302606
0.302999
0.303395
0.303792
0.304191
0.304592
0.304995
0.3054
0.305806
0.306215
0.306625
0.307038
0.307452
0.307869
0.308287
0.308708
0.30913
0.309555
0.309981
0.31041
0.310841
0.311274
0.311709
0.312146
0.312586
0.313027
0.313471
0.313917
0.314365
0.314816
0.315269
0.315724
0.316181
0.316641
0.317103
0.317568
0.318034
0.318504
0.318976
0.31945
0.319927
0.320406
0.320888
0.321372
0.321859
0.322348
0.32284
0.323335
0.323833
0.324333
0.324836
0.325341
0.325849
0.326361
0.326874
0.327391
0.327911
0.328433
0.328959
0.329487
0.330019
0.330553
0.33109
0.331631
0.332174
0.332721
0.333271
0.333824
0.33438
0.334939
0.335502
0.336068
0.336637
0.33721
0.337786
0.338366
0.338948
0.339535
0.340125
0.340719
0.341316
0.341917
0.342521
0.343129
0.343741
0.344357
0.344977
0.3456
0.346227
0.346859
0.347494
0.348133
0.348777
0.349424
0.350076
0.350732
0.351392
0.352057
0.352726
0.353399
0.354077
0.354759
0.355446
0.356137
0.356833
0.357533
0.358239
0.358949
0.359664
0.360384
0.361109
0.361839
0.362574
0.363314
0.36406
0.36481
0.365566
0.366328
0.367095
0.367867
0.368645
0.369429
0.370218
0.371013
0.371814
0.372621
0.373434
0.374253
0.375078
0.37591
0.376747
0.377591
0.378442
0.379299
0.380163
0.381033
0.381911
0.382795
0.383686
0.384584
0.38549
0.386403
0.387323
0.38825
0.389186
0.390129
0.391079
0.392038
0.393004
0.393979
0.394962
0.395953
0.396953
0.397961
0.398978
0.400004
0.401039
0.402083
0.403136
0.404198
0.40527
0.406352
0.407443
0.408545
0.409656
0.410778
0.41191
0.413052
0.414206
0.41537
0.416545
0.417732
0.41893
0.42014
0.421361
0.422594
0.42384
0.425098
0.426369
0.427652
0.428948
0.430258
0.431581
0.432918
0.434269
0.435634
0.437013
0.438407
0.439816
0.44124
0.44268
0.444136
0.445607
0.447095
0.4486
0.450121
0.45166
0.453217
0.454791
0.456384
0.457995
0.459626
0.461276
0.462945
0.464635
0.466346
0.468078
0.469831
0.471606
0.473403
0.475223
0.477067
0.478934
0.480826
0.482742
0.484684
0.486652
0.488647
0.490668
0.492718
0.494796
0.496903
0.49904
0.501207
0.503406
0.505637
0.507901
0.510198
0.51253
0.514898
0.517302
0.519743
0.522223
0.524742
0.527302
0.529903
0.532548
0.535237
0.537971
0.540753
0.543582
0.546462
0.549393
0.552377
0.555415
0.55851
0.561663
0.564875
0.568149
0.571485
0.574887
0.578355
0.58189
0.585495
0.589171
0.592918
0.596737
0.600629
0.604593
0.60863
0.612738
0.616915
0.62116
0.625469
0.629837
0.63426
0.638731
0.643242
0.647784
0.652346
0.656915
0.661477
0.666016
0.670514
0.674949
0.6793
0.68354
0.687644
0.691581
0.69532
0.698827
0.702066
0.704999
0.707587
0.70979
0.711565
0.71287
0.713662
0.713899
0.713536
0.712535
0.710855
0.708459
0.705312
0.701384
0.696648
0.691081
0.684666
0.677393
0.669257
0.660266
0.650462
0.640294
0.640294
0.640294
1
0.777607
0.558785
0.448651
0.391954
0.36431
0.352538
0.348339
0.347245
0.347275
0.347663
0.348137
0.348609
0.349056
0.349476
0.349874
0.350256
0.350628
0.350993
0.351354
0.351713
0.35207
0.352428
0.352785
0.353144
0.353504
0.353864
0.354227
0.35459
0.354955
0.355321
0.355689
0.356058
0.356428
0.3568
0.357174
0.357549
0.357926
0.358304
0.358683
0.359064
0.359447
0.359831
0.360217
0.360604
0.360993
0.361383
0.361775
0.362169
0.362564
0.36296
0.363358
0.363758
0.36416
0.364563
0.364967
0.365373
0.365781
0.366191
0.366602
0.367015
0.367429
0.367845
0.368263
0.368683
0.369104
0.369528
0.369952
0.370379
0.370807
0.371238
0.371669
0.372103
0.372539
0.372976
0.373416
0.373857
0.3743
0.374745
0.375191
0.37564
0.376091
0.376543
0.376998
0.377454
0.377913
0.378373
0.378836
0.3793
0.379767
0.380235
0.380706
0.381179
0.381654
0.38213
0.38261
0.383091
0.383574
0.38406
0.384547
0.385037
0.38553
0.386024
0.386521
0.38702
0.387521
0.388024
0.38853
0.389039
0.389549
0.390062
0.390578
0.391095
0.391616
0.392138
0.392663
0.393191
0.393721
0.394254
0.394789
0.395327
0.395867
0.396411