# vtk DataFile Version 2.0
FlowField
ASCII
DATASET STRUCTURED_GRID
DIMENSIONS 400 1 200
POINTS 80000 float
0 0 0
0.08 0 0
0.16 0 0
0.24 0 0
0.32 0 0
0.4 0 0
0.48 0 0
0.56 0 0
0.64 0 0
0.72 0 0
0.8 0 0
0.88 0 0
0.96 0 0
1.04 0 0
1.12 0 0
1.2 0 0
1.28 0 0
1.36 0 0
1.44 0 0
1.52 0 0
1.6 0 0
1.68 0 0
1.76 0 0
1.84 0 0
1.92 0 0
2 0 0
2.08 0 0
2.16 0 0
2.24 0 0
2.32 0 0
2.4 0 0
2.48 0 0
2.56 0 0
2.64 0 0
2.72 0 0
2.8 0 0
2.88 0 0
2.96 0 0
3.04 0 0
3.12 0 0
3.2 0 0
3.28 0 0
3.36 0 0
3.44 0 0
3.52 0 0
3.6 0 0
3.68 0 0
3.76 0 0
3.84 0 0
3.92 0 0
4 0 0
4.08 0 0
4.16 0 0
4.24 0 0
4.32 0 0
4.4 0 0
4.48 0 0
4.56 0 0
4.64 0 0
4.72 0 0
4.8 0 0
4.88 0 0
4.96 0 0
5.04 0 0
5.12 0 0
5.2 0 0
5.28 0 0
5.36 0 0
5.44 0 0
5.52 0 0
5.6 0 0
5.68 0 0
5.76 0 0
5.84 0 0
5.92 0 0
6 0 0
6.08 0 0
6.16 0 0
6.24 0 0
6.32 0 0
6.4 0 0
6.48 0 0
6.56 0 0
6.64 0 0
6.72 0 0
6.8 0 0
6.88 0 0
6.96 0 0
7.04 0 0
7.12 0 0
7.2 0 0
7.28 0 0
7.36 0 0
7.44 0 0
7.52 0 0
7.6 0 0
7.68 0 0
7.76 0 0
7.84 0 0
7.92 0 0
8 0 0
8.08 0 0
8.16 0 0
8.24 0 0
8.32 0 0
8.4 0 0
8.48 0 0
8.56 0 0
8.64 0 0
8.72 0 0
8.8 0 0
8.88 0 0
8.96 0 0
9.04 0 0
9.12 0 0
9.2 0 0
9.28 0 0
9.36 0 0
9.44 0 0
9.52 0 0
9.6 0 0
9.68 0 0
9.76 0 0
9.84 0 0
9.92 0 0
10 0 0
10.08 0 0
10.16 0 0
10.24 0 0
10.32 0 0
10.4 0 0
10.48 0 0
10.56 0 0
10.64 0 0
10.72 0 0
10.8 0 0
10.88 0 0
10.96 0 0
11.04 0 0
11.12 0 0
11.2 0 0
11.28 0 0
11.36 0 0
11.44 0 0
11.52 0 0
11.6 0 0
11.68 0 0
11.76 0 0
11.84 0 0
11.92 0 0
12 0 0
12.08 0 0
12.16 0 0
12.24 0 0
12.32 0 0
12.4 0 0
12.48 0 0
12.56 0 0
12.64 0 0
12.72 0 0
12.8 0 0
12.88 0 0
12.96 0 0
13.04 0 0
13.12 0 0
13.2 0 0
13.28 0 0
13.36 0 0
13.44 0 0
13.52 0 0
13.6 0 0
13.68 0 0
13.76 0 0
13.84 0 0
13.92 0 0
14 0 0
14.08 0 0
14.16 0 0
14.24 0 0
14.32 0 0
14.4 0 0
14.48 0 0
14.56 0 0
14.64 0 0
14.72 0 0
14.8 0 0
14.88 0 0
14.96 0 0
15.04 0 0
15.12 0 0
15.2 0 0
15.28 0 0
15.36 0 0
15.44 0 0
15.52 0 0
15.6 0 0
15.68 0 0
15.76 0 0
15.84 0 0
15.92 0 0
16 0 0
16.08 0 0
16.16 0 0
16.24 0 0
16.32 0 0
16.4 0 0
16.48 0 0
16.56 0 0
16.64 0 0
16.72 0 0
16.8 0 0
16.88 0 0
16.96 0 0
17.04 0 0
17.12 0 0
17.2 0 0
17.28 0 0
17.36 0 0
17.44 0 0
17.52 0 0
17.6 0 0
17.68 0 0
17.76 0 0
17.84 0 0
17.92 0 0
18 0 0
18.08 0 0
18.16 0 0
18.24 0 0
18.32 0 0
18.4 0 0
18.48 0 0
18.56 0 0
18.64 0 0
18.72 0 0
18.8 0 0
18.88 0 0
18.96 0 0
19.04 0 0
19.12 0 0
19.2 0 0
19.28 0 0
19.36 0 0
19.44 0 0
19.52 0 0
19.6 0 0
19.68 0 0
19.76 0 0
19.84 0 0
19.92 0 0
20 0 0
20.08 0 0
20.16 0 0
20.24 0 0
20.32 0 0
20.4 0 0
20.48 0 0
20.56 0 0
20.64 0 0
20.72 0 0
20.8 0 0
20.88 0 0
20.96 0 0
21.04 0 0
21.12 0 0
21.2 0 0
21.28 0 0
21.36 0 0
21.44 0 0
21.52 0 0
21.6 0 0
21.68 0 0
21.76 0 0
21.84 0 0
21.92 0 0
22 0 0
22.08 0 0
22.16 0 0
22.24 0 0
22.32 0 0
22.4 0 0
22.48 0 0
22.56 0 0
22.64 0 0
22.72 0 0
22.8 0 0
22.88 0 0
22.96 0 0
23.04 0 0
23.12 0 0
23.2 0 0
23.28 0 0
23.36 0 0
23.44 0 0
23.52 0 0
23.6 0 0
23.68 0 0
23.76 0 0
23.84 0 0
23.92 0 0
24 0 0
24.08 0 0
24.16 0 0
24.24 0 0
24.32 0 0
24.4 0 0
24.48 0 0
24.56 0 0
24.64 0 0
24.72 0 0
24.8 0 0
24.88 0 0
24.96 0 0
25.04 0 0
25.12 0 0
25.2 0 0
25.28 0 0
25.36 0 0
25.44 0 0
25.52 0 0
25.6 0 0
25.68 0 0
25.76 0 0
25.84 0 0
25.92 0 0
26 0 0
26.08 0 0
26.16 0 0
26.24 0 0
26.32 0 0
26.4 0 0
26.48 0 0
26.56 0 0
26.64 0 0
26.72 0 0
26.8 0 0
26.88 0 0
26.96 0 0
27.04 0 0
27.12 0 0
27.2 0 0
27.28 0 0
27.36 0 0
27.44 0 0
27.52 0 0
27.6 0 0
27.68 0 0
27.76 0 0
27.84 0 0
27.92 0 0
28 0 0
28.08 0 0
28.16 0 0
28.24 0 0
28.32 0 0
28.4 0 0
28.48 0 0
28.56 0 0
28.64 0 0
28.72 0 0
28.8 0 0
28.88 0 0
28.96 0 0
29.04 0 0
29.12 0 0
29.2 0 0
29.28 0 0
29.36 0 0
29.44 0 0
29.52 0 0
29.6 0 0
29.68 0 0
29.76 0 0
29.84 0 0
29.92 0 0
30 0 0
30.08 0 0
30.16 0 0
30.24 0 0
30.32 0 0
30.4 0 0
30.48 0 0
30.56 0 0
30.64 0 0
30.72 0 0
30.8 0 0
30.88 0 0
30.96 0 0
31.04 0 0
31.12 0 0
31.2 0 0
31.28 0 0
31.36 0 0
31.44 0 0
31.52 0 0
31.6 0 0
31.68 0 0
31.76 0 0
31.84 0 0
31.92 0 0
0 0.005 0
0.08 0.005 0
0.16 0.005 0
0.24 0.005 0
0.32 0.005 0
0.4 0.005 0
0.48 0.005 0
0.56 0.005 0
0.64 0.005 0
0.72 0.005 0
0.8 0.005 0
0.88 0.005 0
0.96 0.005 0
1.04 0.005 0
1.12 0.005 0
1.2 0.005 0
1.28 0.005 0
1.36 0.005 0
1.44 0.005 0
1.52 0.005 0
1.6 0.005 0
1.68 0.005 0
1.76 0.005 0
1.84 0.005 0
1.92 0.005 0
2 0.005 0
2.08 0.005 0
2.16 0.005 0
2.24 0.005 0
2.32 0.005 0
2.4 0.005 0
2.48 0.005 0
2.56 0.005 0
2.64 0.005 0
2.72 0.005 0
2.8 0.005 0
2.88 0.005 0
2.96 0.005 0
3.04 0.005 0
3.12 0.005 0
3.2 0.005 0
3.28 0.005 0
3.36 0.005 0
3.44 0.005 0
3.52 0.005 0
3.6 0.005 0
3.68 0.005 0
3.76 0.005 0
3.84 0.005 0
3.92 0.005 0
4 0.005 0
4.08 0.005 0
4.16 0.005 0
4.24 0.005 0
4.32 0.005 0
4.4 0.005 0
4.48 0.005 0
4.56 0.005 0
4.64 0.005 0
4.72 0.005 0
4.8 0.005 0
4.88 0.005 0
4.96 0.005 0
5.04 0.005 0
5.12 0.005 0
5.2 0.005 0
5.28 0.005 0
5.36 0.005 0
5.44 0.005 0
5.52 0.005 0
5.6 0.005 0
5.68 0.005 0
5.76 0.005 0
5.84 0.005 0
5.92 0.005 0
6 0.005 0
6.08 0.005 0
6.16 0.005 0
6.24 0.005 0
6.32 0.005 0
6.4 0.005 0
6.48 0.005 0
6.56 0.005 0
6.64 0.005 0
6.72 0.005 0
6.8 0.005 0
6.88 0.005 0
6.96 0.005 0
7.04 0.005 0
7.12 0.005 0
7.2 0.005 0
7.28 0.005 0
7.36 0.005 0
7.44 0.005 0
7.52 0.005 0
7.6 0.005 0
7.68 0.005 0
7.76 0.005 0
7.84 0.005 0
7.92 0.005 0
8 0.005 0
8.08 0.005 0
8.16 0.005 0
8.24 0.005 0
8.32 0.005 0
8.4 0.005 0
8.48 0.005 0
8.56 0.005 0
8.64 0.005 0
8.72 0.005 0
8.8 0.005 0
8.88 0.005 0
8.96 0.005 0
9.04 0.005 0
9.12 0.005 0
9.2 0.005 0
9.28 0.005 0
9.36 0.005 0
9.44 0.005 0
9.52 0.005 0
9.6 0.005 0
9.68 0.005 0
9.76 0.005 0
9.84 0.005 0
9.92 0.005 0
10 0.005 0
10.08 0.005 0
10.16 0.005 0
10.24 0.005 0
10.32 0.005 0
10.4 0.005 0
10.48 0.005 0
10.56 0.005 0
10.64 0.005 0
10.72 0.005 0
10.8 0.005 0
10.88 0.005 0
10.96 0.005 0
11.04 0.005 0
11.12 0.005 0
11.2 0.005 0
11.28 0.005 0
11.36 0.005 0
11.44 0.005 0
11.52 0.005 0
11.6 0.005 0
11.68 0.005 0
11.76 0.005 0
11.84 0.005 0
11.92 0.005 0
12 0.005 0
12.08 0.005 0
12.16 0.005 0
12.24 0.005 0
12.32 0.005 0
12.4 0.005 0
12.48 0.005 0
12.56 0.005 0
12.64 0.005 0
12.72 0.005 0
12.8 0.005 0
12.88 0.005 0
12.96 0.005 0
13.04 0.005 0
13.12 0.005 0
13.2 0.005 0
13.28 0.005 0
13.36 0.005 0
13.44 0.005 0
13.52 0.005 0
13.6 0.005 0
13.68 0.005 0
13.76 0.005 0
13.84 0.005 0
13.92 0.005 0
14 0.005 0
14.08 0.005 0
14.16 0.005 0
14.24 0.005 0
14.32 0.005 0
14.4 0.005 0
14.48 0.005 0
14.56 0.005 0
14.64 0.005 0
14.72 0.005 0
14.8 0.005 0
14.88 0.005 0
14.96 0.005 0
15.04 0.005 0
15.12 0.005 0
15.2 0.005 0
15.28 0.005 0
15.36 0.005 0
15.44 0.005 0
15.52 0.005 0
15.6 0.005 0
15.68 0.005 0
15.76 0.005 0
15.84 0.005 0
15.92 0.005 0
16 0.005 0
16.08 0.005 0
16.16 0.005 0
16.24 0.005 0
16.32 0.005 0
16.4 0.005 0
16.48 0.005 0
16.56 0.005 0
16.64 0.005 0
16.72 0.005 0
16.8 0.005 0
16.88 0.005 0
16.96 0.005 0
17.04 0.005 0
17.12 0.005 0
17.2 0.005 0
17.28 0.005 0
17.36 0.005 0
17.44 0.005 0
17.52 0.005 0
17.6 0.005 0
17.68 0.005 0
17.76 0.005 0
17.84 0.005 0
17.92 0.005 0
18 0.005 0
18.08 0.005 0
18.16 0.005 0
18.24 0.005 0
18.32 0.005 0
18.4 0.005 0
18.48 0.005 0
18.56 0.005 0
18.64 0.005 0
18.72 0.005 0
18.8 0.005 0
18.88 0.005 0
18.96 0.005 0
19.04 0.005 0
19.12 0.005 0
19.2 0.005 0
19.28 0.005 0
19.36 0.005 0
19.44 0.005 0
19.52 0.005 0
19.6 0.005 0
19.68 0.005 0
19.76 0.005 0
19.84 0.005 0
19.92 0.005 0
20 0.005 0
20.08 0.005 0
20.16 0.005 0
20.24 0.005 0
20.32 0.005 0
20.4 0.005 0
20.48 0.005 0
20.56 0.005 0
20.64 0.005 0
20.72 0.005 0
20.8 0.005 0
20.88 0.005 0
20.96 0.005 0
21.04 0.005 0
21.12 0.005 0
21.2 0.005 0
21.28 0.005 0
21.36 0.005 0
21.44 0.005 0
21.52 0.005 0
21.6 0.005 0
21.68 0.005 0
21.76 0.005 0
21.84 0.005 0
21.92 0.005 0
22 0.005 0
22.08 0.005 0
22.16 0.005 0
22.24 0.005 0
22.32 0.005 0
22.4 0.005 0
22.48 0.005 0
22.56 0.005 0
22.64 0.005 0
22.72 0.005 0
22.8 0.005 0
22.88 0.005 0
22.96 0.005 0
23.04 0.005 0
23.12 0.005 0
23.2 0.005 0
23.28 0.005 0
23.36 0.005 0
23.44 0.005 0
23.52 0.005 0
23.6 0.005 0
23.68 0.005 0
23.76 0.005 0
23.84 0.005 0
23.92 0.005 0
24 0.005 0
24.08 0.005 0
24.16 0.005 0
24.24 0.005 0
24.32 0.005 0
24.4 0.005 0
24.48 0.005 0
24.56 0.005 0
24.64 0.005 0
24.72 0.005 0
24.8 0.005 0
24.88 0.005 0
24.96 0.005 0
25.04 0.005 0
25.12 0.005 0
25.2 0.005 0
25.28 0.005 0
25.36 0.005 0
25.44 0.005 0
25.52 0.005 0
25.6 0.005 0
25.68 0.005 0
25.76 0.005 0
25.84 0.005 0
25.92 0.005 0
26 0.005 0
26.08 0.005 0
26.16 0.005 0
26.24 0.005 0
26.32 0.005 0
26.4 0.005 0
26.48 0.005 0
26.56 0.005 0
26.64 0.005 0
26.72 0.005 0
26.8 0.005 0
26.88 0.005 0
26.96 0.005 0
27.04 0.005 0
27.12 0.005 0
27.2 0.005 0
27.28 0.005 0
27.36 0.005 0
27.44 0.005 0
27.52 0.005 0
27.6 0.005 0
27.68 0.005 0
27.76 0.005 0
27.84 0.005 0
27.92 0.005 0
28 0.005 0
28.08 0.005 0
28.16 0.005 0
28.24 0.005 0
28.32 0.005 0
28.4 0.005 0
28.48 0.005 0
28.56 0.005 0
28.64 0.005 0
28.72 0.005 0
28.8 0.005 0
28.88 0.005 0
28.96 0.005 0
29.04 0.005 0
29.12 0.005 0
29.2 0.005 0
29.28 0.005 0
29.36 0.005 0
29.44 0.005 0
29.52 0.005 0
29.6 0.005 0
29.68 0.005 0
29.76 0.005 0
29.84 0.005 0
29.92 0.005 0
30 0.005 0
30.08 0.005 0
30.16 0.005 0
30.24 0.005 0
30.32 0.005 0
30.4 0.005 0
30.48 0.005 0
30.56 0.005 0
30.64 0.005 0
30.72 0.005 0
30.8 0.005 0
30.88 0.005 0
30.96 0.005 0
31.04 0.005 0
31.12 0.005 0
31.2 0.005 0
31.28 0.005 0
31.36 0.005 0
31.44 0.005 0
31.52 0.005 0
31.6 0.005 0
31.68 0.005 0
31.76 0.005 0
31.84 0.005 0
31.92 0.005 0
0 0.01 0
0.08 0.01 0
0.16 0.01 0
0.24 0.01 0
0.32 0.01 0
0.4 0.01 0
0.48 0.01 0
0.56 0.01 0
0.64 0.01 0
0.72 0.01 0
0.8 0.01 0
0.88 0.01 0
0.96 0.01 0
1.04 0.01 0
1.12 0.01 0
1.2 0.01 0
1.28 0.01 0
1.36 0.01 0
1.44 0.01 0
1.52 0.01 0
1.6 0.01 0
1.68 0.01 0
1.76 0.01 0
1.84 0.01 0
1.92 0.01 0
2 0.01 0
2.08 0.01 0
2.16 0.01 0
2.24 0.01 0
2.32 0.01 0
2.4 0.01 0
2.48 0.01 0
2.56 0.01 0
2.64 0.01 0
2.72 0.01 0
2.8 0.01 0
2.88 0.01 0
2.96 0.01 0
3.04 0.01 0
3.12 0.01 0
3.2 0.01 0
3.28 0.01 0
3.36 0.01 0
3.44 0.01 0
3.52 0.01 0
3.6 0.01 0
3.68 0.01 0
3.76 0.01 0
3.84 0.01 0
3.92 0.01 0
4 0.01 0
4.08 0.01 0
4.16 0.01 0
4.24 0.01 0
4.32 0.01 0
4.4 0.01 0
4.48 0.01 0
4.56 0.01 0
4.64 0.01 0
4.72 0.01 0
4.8 0.01 0
4.88 0.01 0
4.96 0.01 0
5.04 0.01 0
5.12 0.01 0
[...]
POINT_DATA 80000

SCALARS v float 1
LOOKUP_TABLE default
0
0
0
0
0
0
0
0
0
0
0
0
0
0
0
0
0
0
0
0
0
0
0
0
0
0
0
0
0
0
0
0
0
0
0
0
0
0
0
0
0
0
0
0
0
0
0
0
0
0
0
0
0
0
0
0
0
0
0
0
0
0
0
0
0
0
0
0
0
0
0
0
0
0
0
0
0
0
0
0
0
0
0
0
0
0
0
0
0
0
0
0
0
0
0
0
0
0
0
0
0
0
0
0
0
0
0
0
0
0
0
0
0
0
0
0
0
0
0
0
0
0
0
0
0
0
0
0
0
0
0
0
0
0
0
0
0
0
0
0
0
0
0
0
0
0
0
0
0
0
0
0
0
0
0
0
0
0
0
0
0
0
0
0
0
0
0
0
0
0
0
0
0
0
0
0
0
0
0
0
0
0
0
0
0
0
0
0
0
0
0
0
0
0
0
0
0
0
0
0
0
0
0
0
0
0
0
0
0
0
0
0
0
0
0
0
0
0
0
0
0
0
0
0
0
0
0
0
0
0
0
0
0
0
0
0
0
0
0
0
0
0
0
0
0
0
0
0
0
0
0
0
0
0
0
0
0
0
0
0
0
0
0
0
0
0
0
0
0
0
0
0
0
0
0
0
0
0
0
0
0
0
0
0
0
0
0
0
0
0
0
0
0
0
0
0
0
0
0
0
0
0
0
0
0
0
0
0
0
0
0
0
0
0
0
0
0
0
0
0
0
0
0
0
0
0
0
0
0
0
0
0
0
0
0
0
0
0
0
0
0
0
0
0
0
0
0
0
0
0
0
0
0
0
0
0
0
0
0
0
0
0
0
0
0
0
0
0
0
0
0
0
0
0
0
0
0
0
0
0
0
0
0
0
0
0
0
0
0
0
0
0
0
0
0
0
0
0
0
0
-0.0542694
0.0542694
0.00395989
0.000993589
0.000484929
0.000296561
0.000202784
0.000141986
9.38546e-05
5.59966e-05
3.01373e-05
1.54056e-05
8.5568e-06
6.2967e-06
6.44552e-06
7.84452e-06
9.91178e-06
1.23378e-05
1.4954e-05
1.76809e-05
2.04965e-05
2.34106e-05
2.6445e-05
2.96233e-05
3.29651e-05
3.64854e-05
4.01946e-05
4.41e-05
4.82056e-05
5.2514e-05
5.70255e-05
6.17393e-05
6.66532e-05
7.17635e-05
7.70654e-05
8.25527e-05
8.82179e-05
9.40521e-05
0.000100045
0.000106185
0.000112459
0.000118852
0.000125349
0.000131934
0.000138586
0.000145288
0.000152018
0.000158754
0.000165476
0.000172158
0.000178777
0.00018531
0.00019173
0.000198013
0.000204135
0.00021007
0.000215794
0.000221283
0.000226514
0.000231464
0.000236112
0.000240437
0.000244421
0.000248047
0.000251299
0.000254163
0.000256626
0.00025868
0.000260315
0.000261526
0.00026231
0.000262665
0.000262591
0.000262091
0.000261171
0.000259838
0.000258101
0.00025597
0.000253459
0.000250583
0.000247358
0.000243801
0.000239932
0.000235771
0.00023134
0.000226659
0.000221753
0.000216643
0.000211354
0.000205909
0.000200332
0.000194646
0.000188873
0.000183037
0.000177158
0.000171259
0.00016536
0.000159479
0.000153635
0.000147845
0.000142124
0.000136489
0.000130951
0.000125523
0.000120217
0.000115041
0.000110003
0.000105112
0.000100372
9.57896e-05
9.13668e-05
8.71068e-05
8.3011e-05
7.90802e-05
7.53139e-05
7.17112e-05
6.82703e-05
6.49888e-05
6.18637e-05
5.88915e-05
5.60681e-05
5.33893e-05
5.08504e-05
4.84466e-05
4.61725e-05
4.40232e-05
4.19931e-05
4.00769e-05
3.82691e-05
3.65645e-05
3.49576e-05
3.34432e-05
3.20162e-05
3.06717e-05
2.94047e-05
2.82106e-05
2.7085e-05
2.60234e-05
2.50219e-05
2.40764e-05
2.31834e-05
2.23392e-05
2.15405e-05
2.07842e-05
2.00674e-05
1.93874e-05
1.87415e-05
1.81274e-05
1.75428e-05
1.69857e-05
1.6454e-05
1.59461e-05
1.54603e-05
1.49949e-05
1.45487e-05
1.41203e-05
1.37085e-05
1.33122e-05
1.29303e-05
1.25619e-05
1.22062e-05
1.18623e-05
1.15296e-05
1.12073e-05
1.08947e-05
1.05915e-05
1.02969e-05
1.00106e-05
9.73195e-06
9.46073e-06
9.19645e-06
8.9388e-06
8.6874e-06
8.442e-06
8.20225e-06
7.96795e-06
7.7388e-06
7.51461e-06
7.29512e-06
7.08019e-06
6.86956e-06
6.66311e-06
6.46063e-06
6.26201e-06
6.06705e-06
5.87566e-06
5.68765e-06
5.50296e-06
5.32141e-06
5.14295e-06
4.96741e-06
4.79474e-06
4.6248e-06
4.45754e-06
4.29283e-06
4.13063e-06
3.97081e-06
3.81335e-06
3.65811e-06
3.50509e-06
3.35416e-06
3.2053e-06
3.05842e-06
2.91349e-06
2.7704e-06
2.62916e-06
2.48966e-06
2.35189e-06
2.21577e-06
2.08128e-06
1.94834e-06
1.81695e-06
1.68702e-06
1.55856e-06
1.43146e-06
1.30576e-06
1.18136e-06
1.05827e-06
9.3641e-07
8.15797e-07
6.96341e-07
5.78069e-07
4.60892e-07
3.44839e-07
2.29821e-07
1.1587e-07
2.89839e-09
-1.09061e-07
-2.20093e-07
-3.30163e-07
-4.39356e-07
-5.47635e-07
-6.55084e-07
-7.61665e-07
-8.6746e-07
-9.7243e-07
-1.07666e-06
-1.1801e-06
-1.28284e-06
-1.38483e-06
-1.48616e-06
-1.58678e-06
-1.68677e-06
-1.78609e-06
-1.88482e-06
-1.98291e-06
-2.08043e-06
-2.17735e-06
-2.27374e-06
-2.36956e-06
-2.46487e-06
-2.55964e-06
-2.65395e-06
-2.74773e-06
-2.84108e-06
-2.93393e-06
-3.02638e-06
-3.11836e-06
-3.20995e-06
-3.30111e-06
-3.3919e-06
-3.48229e-06
-3.57234e-06
-3.662e-06
-3.75135e-06
-3.84034e-06
-3.92904e-06
-4.0174e-06
-4.10549e-06
-4.19327e-06
-4.28081e-06
-4.36805e-06
-4.45507e-06
-4.54182e-06
-4.62837e-06
-4.71467e-06
-4.80079e-06
-4.88668e-06
-4.97242e-06
-5.05794e-06
-5.14332e-06
-5.22851e-06
-5.31359e-06
-5.39849e-06
-5.48329e-06
-5.56793e-06
-5.65249e-06
-5.73691e-06
-5.82127e-06
-5.9055e-06
-5.98968e-06
-6.07375e-06
-6.15778e-06
-6.24172e-06
-6.32563e-06
-6.40946e-06
-6.49327e-06
-6.57701e-06
-6.66075e-06
-6.74442e-06
-6.82808e-06
-6.9117e-06
-6.99532e-06
-7.07889e-06
-7.16247e-06
-7.246e-06
-7.32955e-06
-7.41306e-06
-7.49658e-06
-7.58006e-06
-7.66355e-06
-7.747e-06
-7.83047e-06
-7.91389e-06
-7.99733e-06
-8.08072e-06
-8.16413e-06
-8.24749e-06
-8.33086e-06
-8.41418e-06
-8.49751e-06
-8.58079e-06
-8.66408e-06
-8.74732e-06
-8.83057e-06
-8.91377e-06
-8.99698e-06
-9.08014e-06
-9.16332e-06
-9.24645e-06
-9.32959e-06
-9.4127e-06
-9.49584e-06
-9.57894e-06
-9.66208e-06
-9.7452e-06
-9.82836e-06
-9.91152e-06
-9.99473e-06
-1.0078e-05
-1.01612e-05
-1.02446e-05
-1.0328e-05
-1.04114e-05
-1.0495e-05
-1.05786e-05
-1.06624e-05
-1.07462e-05
-1.08302e-05
-1.09144e-05
-1.09986e-05
-1.10831e-05
-1.11677e-05
-1.12525e-05
-1.13375e-05
-1.14227e-05
-1.15082e-05
-1.15938e-05
-1.16798e-05
-1.1766e-05
-1.18525e-05
-1.19392e-05
-1.20263e-05
-1.21136e-05
-1.22013e-05
-1.22893e-05
-1.23777e-05
-1.24664e-05
-1.25555e-05
-1.2645e-05
-1.27349e-05
-1.28251e-05
-1.29158e-05
-1.30068e-05
-1.30983e-05
-1.31902e-05
-1.32826e-05
-1.33754e-05
-1.34687e-05
-1.35624e-05
-1.36566e-05
-1.37512e-05
-1.38464e-05
-1.3942e-05
-1.40382e-05
-1.41349e-05
-1.42323e-05
-1.43307e-05
-1.44288e-05
-1.45338e-05
-1.46168e-05
-1.47934e-05
-1.46673e-05
-1.54561e-05
-1.3982e-05
-1.72359e-05
-1.30537e-05
-1.55248e-05
-1.53249e-05
-1.53249e-05
-0.095211
0.095211
0.0129682
0.00383603
0.00190516
0.00117077
0.00079897
0.00055422
0.000360336
0.000208754
0.000105038
4.45501e-05
1.42028e-05
1.22491e-06
-2.7568e-06
-2.23388e-06
4.93209e-07
4.1845e-06
8.16419e-06
1.21123e-05
1.59325e-05
1.96492e-05
2.3333e-05
2.706e-05
3.08936e-05
3.48807e-05
3.90535e-05
4.34333e-05
4.80334e-05
5.28622e-05
5.79238e-05
6.32199e-05
6.87499e-05
7.45117e-05
8.05011e-05
8.67127e-05
9.31392e-05
9.97723e-05
0.000106601
0.000113615
0.000120799
0.00012814
0.00013562
0.000143222
0.000150926
0.000158711
0.000166555
0.000174435
0.000182325
0.000190201
0.000198037
0.000205804
0.000213475
0.000221023
0.000228418
0.000235633
0.000242639
0.00024941
0.000255916
0.000262134
0.000268035
0.000273597
0.000278797
0.000283613
0.000288025
0.000292015
0.000295568
0.00029867
0.000301308
0.000303474
0.000305161
0.000306363
0.00030708
0.00030731
0.000307057
0.000306326
0.000305124
0.000303461
0.000301349
0.000298801
0.000295834
0.000292465
0.000288713
0.000284599
0.000280145
0.000275375
0.000270312
0.00026498
0.000259407
0.000253616
0.000247635
0.000241489
0.000235203
0.000228804
0.000222316
0.000215763
0.000209169
0.000202556
0.000195947
0.000189361
0.000182818
0.000176336
0.000169931
0.00016362
0.000157415
0.00015133
0.000145376
0.000139563
0.0001339
0.000128393
0.00012305
0.000117874
0.000112869
0.000108038
0.000103383
9.89032e-05
9.45993e-05
9.047e-05
8.65132e-05
8.27267e-05
7.9107e-05
7.56507e-05
7.23536e-05
6.92113e-05
6.6219e-05
6.33716e-05
6.06638e-05
5.80905e-05
5.56458e-05
5.33245e-05
5.11208e-05
4.90295e-05
4.70448e-05
4.51616e-05
4.33744e-05
4.16782e-05
4.0068e-05
3.85391e-05
3.70866e-05
3.57063e-05
3.43937e-05
3.31451e-05
3.19562e-05
3.08236e-05
2.97437e-05
2.87133e-05
2.77292e-05
2.67886e-05
2.58886e-05
2.50269e-05
2.42007e-05
2.34082e-05
2.26469e-05
2.19151e-05
2.12108e-05
2.05325e-05
1.98784e-05
1.92473e-05
1.86375e-05
1.8048e-05
1.74775e-05
1.6925e-05
1.63894e-05
1.58698e-05
1.53652e-05
1.48751e-05
1.43983e-05
1.39345e-05
1.34828e-05
1.30428e-05
1.26137e-05
1.21951e-05
1.17865e-05
1.13874e-05
1.09974e-05
1.06161e-05
1.02431e-05
9.8781e-06
9.52062e-06
9.17057e-06
8.82741e-06
8.4911e-06
8.16115e-06
7.83752e-06
7.51977e-06
7.20789e-06
6.90145e-06
6.60047e-06
6.30454e-06
6.01369e-06
5.72754e-06
5.44613e-06
5.1691e-06
4.89651e-06
4.628e-06
4.36365e-06
4.10311e-06
3.84648e-06
3.59341e-06
3.34401e-06
3.09796e-06
2.85535e-06
2.61588e-06
2.37965e-06
2.14637e-06
1.91615e-06
1.6887e-06
1.46413e-06
1.24217e-06
1.02293e-06
8.0614e-07
5.91935e-07
3.80025e-07
1.70564e-07
-3.67362e-08
-2.41716e-07
-4.44661e-07
-6.45407e-07
-8.44235e-07
-1.04098e-06
-1.23591e-06
-1.42887e-06
-1.62012e-06
-1.8095e-06
-1.99727e-06
-2.18325e-06
-2.36772e-06
-2.5505e-06
-2.73185e-06
-2.91158e-06
-3.08997e-06
-3.26683e-06
-3.44243e-06
-3.61656e-06
-3.7895e-06
-3.96106e-06
-4.13149e-06
-4.3006e-06
-4.46865e-06
-4.63545e-06
-4.80126e-06
-4.96587e-06
-5.12955e-06
-5.2921e-06
-5.45376e-06
-5.61435e-06
-5.77411e-06
-5.93285e-06
-6.09082e-06
-6.24782e-06
-6.40409e-06
-6.55944e-06
-6.71412e-06
-6.86792e-06
-7.02109e-06
-7.17344e-06
-7.3252e-06
-7.47617e-06
-7.6266e-06
-7.77629e-06
-7.92548e-06
-8.07397e-06
-8.222e-06
-8.36937e-06
-8.51632e-06
-8.66264e-06
-8.80858e-06
-8.95394e-06
-9.09895e-06
-9.24341e-06
-9.38756e-06
-9.5312e-06
-9.67456e-06
-9.81744e-06
-9.96009e-06
-1.01023e-05
-1.02443e-05
-1.03858e-05
-1.05272e-05
-1.06683e-05
-1.08091e-05
-1.09496e-05
-1.109e-05
-1.12301e-05
-1.13701e-05
-1.15098e-05
-1.16494e-05
-1.17888e-05
-1.19281e-05
-1.20672e-05
-1.22063e-05
-1.23451e-05
-1.2484e-05
-1.26227e-05
-1.27614e-05
-1.28999e-05
-1.30385e-05
-1.31769e-05
-1.33153e-05
-1.34537e-05
-1.35921e-05
-1.37303e-05
-1.38687e-05
-1.4007e-05
-1.41453e-05
-1.42836e-05
-1.44219e-05
-1.45602e-05
-1.46986e-05
-1.48369e-05
-1.49753e-05
-1.51137e-05
-1.52521e-05
-1.53905e-05
-1.55291e-05
-1.56676e-05
-1.58062e-05
-1.59447e-05
-1.60834e-05
-1.6222e-05
-1.63608e-05
-1.64996e-05
-1.66384e-05
-1.67773e-05
-1.69163e-05
-1.70553e-05
-1.71944e-05
-1.73335e-05
-1.74728e-05
-1.76121e-05
-1.77516e-05
-1.78911e-05
-1.80308e-05
-1.81705e-05
-1.83104e-05
-1.84504e-05
-1.85906e-05
-1.87309e-05
-1.88715e-05
-1.90121e-05
-1.91531e-05
-1.92941e-05
-1.94355e-05
-1.95771e-05
-1.9719e-05
-1.9861e-05
-2.00035e-05
-2.01462e-05
-2.02893e-05
-2.04326e-05
-2.05764e-05
-2.07204e-05
-2.0865e-05
-2.10099e-05
-2.11553e-05
-2.13011e-05
-2.14474e-05
-2.15942e-05
-2.17415e-05
-2.18893e-05
-2.20377e-05
-2.21866e-05
-2.23362e-05
-2.24863e-05
-2.26371e-05
-2.27884e-05
-2.29405e-05
-2.30932e-05
-2.32467e-05
-2.34008e-05
-2.35557e-05
-2.37113e-05
-2.38678e-05
-2.40249e-05
-2.41829e-05
-2.43417e-05
-2.45013e-05
-2.46618e-05
-2.48231e-05
-2.49853e-05
-2.51484e-05
-2.53123e-05
-2.54773e-05
-2.56432e-05
-2.58103e-05
-2.59786e-05
-2.61483e-05
-2.63206e-05
-2.64917e-05
-2.66855e-05
-2.68037e-05
-2.72457e-05
-2.66292e-05
-2.92511e-05
-2.37707e-05
-3.54659e-05
-1.96994e-05
-3.01373e-05
-2.79537e-05
-2.79537e-05
-0.125284
0.125284
0.0249212
0.00831756
0.00421447
0.00260588
0.00178017
0.00123146
0.000797252
0.000459773
0.000229513
9.45297e-05
2.54892e-05
-5.554e-06
-1.68445e-05
-1.82489e-05
-1.48942e-05
-9.56645e-06
-3.78083e-06
1.74755e-06
6.79888e-06
1.14164e-05
1.57433e-05
1.9935e-05
2.41196e-05
2.83919e-05
3.28157e-05
3.74335e-05
4.22712e-05
4.73455e-05
5.26656e-05
5.82367e-05
6.40602e-05
7.01359e-05
7.64605e-05
8.303e-05
8.98378e-05
9.68763e-05
0.000104135
0.000111605
0.00011927
0.000127118
0.000135132
0.000143294
0.000151584
0.000159983
0.000168467
0.000177012
0.000185594
0.000194186
0.000202761
0.000211292
0.000219749
0.000228104
0.000236326
0.000244386
0.000252254
0.0002599
0.000267297
0.000274414
0.000281225
0.000287703
0.000293822
0.00029956
0.000304893
0.000309801
0.000314266
0.00031827
0.000321801
0.000324845
0.000327392
0.000329437
0.000330973
0.000332
0.000332516
0.000332524
0.000332031
0.000331042
0.000329569
0.000327624
0.000325219
0.000322373
0.000319101
0.000315425
0.000311365
0.000306943
0.000302184
0.000297111
0.00029175
0.000286127
0.000280267
0.000274197
0.000267944
0.000261533
0.000254991
0.000248343
0.000241613
0.000234826
0.000228005
0.000221171
0.000214346
0.000207549
0.0002008
0.000194115
0.00018751
0.000181001
0.000174599
0.000168318
0.000162168
0.000156158
0.000150296
0.000144588
0.000139041
0.000133658
0.000128444
0.000123399
0.000118525
0.000113823
0.000109292
0.000104932
0.000100739
9.6712e-05
9.28474e-05
8.91421e-05
8.55919e-05
8.21928e-05
7.894e-05
7.58291e-05
7.28548e-05
7.00126e-05
6.72967e-05
6.47026e-05
6.22246e-05
5.9858e-05
5.75973e-05
5.54379e-05
5.33745e-05
5.14028e-05
4.95177e-05
4.7715e-05
4.59902e-05
4.43393e-05
4.27581e-05
4.1243e-05
3.97901e-05
3.83963e-05
3.70578e-05
3.5772e-05
3.45355e-05
3.33459e-05
3.22002e-05
3.10962e-05
3.00313e-05
2.90037e-05
2.80108e-05
2.70512e-05
2.61227e-05
2.52239e-05
2.43529e-05
2.35086e-05
2.26892e-05
2.18937e-05
2.11206e-05
2.03692e-05
1.96379e-05
1.89262e-05
1.82327e-05
1.75569e-05
1.68977e-05
1.62547e-05
1.56266e-05
1.50134e-05
1.44138e-05
1.38278e-05
1.32543e-05
1.26933e-05
1.21437e-05
1.16057e-05
1.10782e-05
1.05613e-05
1.00541e-05
9.55683e-06
9.06853e-06
8.58937e-06
8.11854e-06
7.65621e-06
7.20162e-06
6.75496e-06
6.31549e-06
5.88343e-06
5.45807e-06
5.03964e-06
4.62746e-06
4.22177e-06
3.82191e-06
3.42816e-06
3.03985e-06
2.65729e-06
2.27982e-06
1.90775e-06
1.54045e-06
1.17824e-06
8.20507e-07
4.67578e-07
1.18841e-07
-2.25357e-07
-5.6562e-07
-9.01592e-07
-1.23387e-06
-1.56209e-06
-1.88683e-06
-2.20774e-06
-2.52537e-06
-2.83937e-06
-3.1503e-06
-3.45777e-06
-3.76236e-06
-4.06367e-06
-4.36227e-06
-4.65776e-06
-4.95069e-06
-5.24067e-06
-5.52825e-06
-5.81302e-06
-6.09553e-06
-6.37537e-06
-6.65308e-06
-6.92826e-06
-7.20144e-06
-7.47221e-06
-7.7411e-06
-8.00769e-06
-8.27252e-06
-8.53516e-06
-8.79615e-06
-9.05505e-06
-9.31241e-06
-9.56778e-06
-9.82169e-06
-1.00737e-05
-1.03244e-05
-1.05733e-05
-1.08209e-05
-1.10668e-05
-1.13115e-05
-1.15545e-05
-1.17965e-05
-1.20369e-05
-1.22763e-05
-1.25142e-05
-1.27512e-05
-1.29867e-05
-1.32214e-05
-1.34548e-05
-1.36873e-05
-1.39186e-05
-1.41491e-05
-1.43784e-05
-1.4607e-05
-1.48345e-05
-1.50614e-05
-1.52872e-05
-1.55124e-05
-1.57366e-05
-1.59603e-05
-1.61831e-05
-1.64053e-05
-1.66267e-05
-1.68477e-05
-1.70678e-05
-1.72876e-05
-1.75066e-05
-1.77253e-05
-1.79432e-05
-1.81609e-05
-1.83779e-05
-1.85947e-05
-1.88108e-05
-1.90267e-05
-1.92421e-05
-1.94574e-05
-1.9672e-05
-1.98867e-05
-2.01008e-05
-2.03148e-05
-2.05284e-05
-2.0742e-05
-2.09551e-05
-2.11684e-05
-2.13811e-05
-2.1594e-05
-2.18065e-05
-2.20192e-05
-2.22315e-05
-2.24439e-05
-2.2656e-05
-2.28683e-05
-2.30804e-05
-2.32926e-05
-2.35046e-05
-2.37168e-05
-2.39288e-05
-2.4141e-05
-2.43531e-05
-2.45654e-05
-2.47775e-05
-2.499e-05
-2.52022e-05
-2.54148e-05
-2.56272e-05
-2.584e-05
-2.60526e-05
-2.62656e-05
-2.64784e-05
-2.66917e-05
-2.69048e-05
-2.71183e-05
-2.73317e-05
-2.75455e-05
-2.77593e-05
-2.79734e-05
-2.81875e-05
-2.8402e-05
-2.86165e-05
-2.88314e-05
-2.90463e-05
-2.92617e-05
-2.94771e-05
-2.9693e-05
-2.99089e-05
-3.01253e-05
-3.03418e-05
-3.05588e-05
-3.07759e-05
-3.09935e-05
-3.12113e-05
-3.14297e-05
-3.16482e-05
-3.18674e-05
-3.20868e-05
-3.23068e-05
-3.25271e-05
-3.27481e-05
-3.29693e-05
-3.31913e-05
-3.34137e-05
-3.36368e-05
-3.38603e-05
-3.40847e-05
-3.43095e-05
-3.45352e-05
-3.47613e-05
-3.49884e-05
-3.52161e-05
-3.54447e-05
-3.56739e-05
-3.59042e-05
-3.6135e-05
-3.6367e-05
-3.65997e-05
-3.68336e-05
-3.70681e-05
-3.7304e-05
-3.75406e-05
-3.77785e-05
-3.80172e-05
-3.82573e-05
-3.84983e-05
-3.87407e-05
-3.89841e-05
-3.92289e-05
-3.94748e-05
-3.97222e-05
-3.99706e-05
-4.02207e-05
-4.04719e-05
-4.07247e-05
-4.09786e-05
-4.12343e-05
-4.14911e-05
-4.17497e-05
-4.20096e-05
-4.22713e-05
-4.25346e-05
-4.27999e-05
-4.30674e-05
-4.33375e-05
-4.36127e-05
-4.38851e-05
-4.42034e-05
-4.43693e-05
-4.5194e-05
-4.38557e-05
-4.91846e-05
-3.77213e-05
-6.21761e-05
-2.85932e-05
-5.3117e-05
-4.61246e-05
-4.61246e-05
-0.146475
0.146475
0.0382871
0.0141645
0.00734667
0.00457685
0.00313349
0.00216597
0.00140071
0.0008085
0.000405218
0.000167896
4.49949e-05
-1.17752e-05
-3.38966e-05
-3.85519e-05
-3.47956e-05
-2.75899e-05
-1.9633e-05
-1.21973e-05
-5.68266e-06
-3.00485e-08
4.99317e-06
9.64205e-06
1.4127e-05
1.86032e-05
2.31745e-05
2.79096e-05
3.28502e-05
3.80235e-05
4.34442e-05
4.9122e-05
5.50602e-05
6.12608e-05
6.77215e-05
7.44395e-05
8.14086e-05
8.86224e-05
9.60714e-05
0.000103746
0.000111632
0.000119717
0.000127985
0.000136419
0.000144999
0.000153706
0.000162516
0.000171407
0.000180354
0.000189331
0.00019831
0.000207264
0.000216164
0.00022498
0.000233683
0.000242243
0.000250629
0.000258812
0.000266761
0.000274448
0.000281844
0.000288921
0.000295654
0.000302017
0.000307987
0.000313542
0.000318661
0.000323328
0.000327526
0.000331241
0.000334462
0.000337181
0.00033939
0.000341086
0.000342266
0.000342933
0.000343088
0.000342739
0.000341893
0.00034056
0.000338753
0.000336486
0.000333776
0.000330641
0.000327101
0.000323176
0.000318888
0.000314262
0.000309321
0.000304091
0.000298595
0.000292862
0.000286915
0.000280782
0.000274486
0.000268055
0.000261511
0.000254881
0.000248185
0.000241448
0.00023469
0.000227933
0.000221194
0.000214492
0.000207844
0.000201265
0.000194769
0.000188371
0.000182079
0.000175907
0.000169861
0.000163951
0.000158183
0.000152563
0.000147093
0.00014178
0.000136624
0.000131627
0.00012679
0.000122113
0.000117595
0.000113235
0.00010903
0.000104979
0.000101077
9.73228e-05
9.37112e-05
9.02394e-05
8.69023e-05
8.36964e-05
8.06165e-05
7.76588e-05
7.48179e-05
7.20901e-05
6.94699e-05
6.69536e-05
6.45359e-05
6.22131e-05
5.99802e-05
5.78338e-05
5.57689e-05
5.37824e-05
5.18697e-05
5.00279e-05
4.82527e-05
4.65415e-05
4.48904e-05
4.32971e-05
4.17577e-05
4.02704e-05
3.88318e-05
3.74401e-05
3.60922e-05
3.47866e-05
3.35205e-05
3.22926e-05
3.11003e-05
2.99426e-05
2.88171e-05
2.77229e-05
2.66579e-05
2.56214e-05
2.46113e-05
2.36272e-05
2.2667e-05
2.17307e-05
2.08162e-05
1.99234e-05
1.90506e-05
1.81978e-05
1.73633e-05
1.65472e-05
1.57479e-05
1.49656e-05
1.41987e-05
1.34475e-05
1.27106e-05
1.19883e-05
1.12791e-05
1.05835e-05
9.90006e-06
9.22922e-06
8.56973e-06
7.92197e-06
7.28476e-06
6.65851e-06
6.04207e-06
5.43591e-06
4.83888e-06
4.25149e-06
3.67262e-06
3.10281e-06
2.54095e-06
1.9876e-06
1.4417e-06
9.03811e-07
3.72889e-07
-1.50483e-07
-6.67328e-07
-1.17705e-06
-1.68065e-06
-2.17752e-06
-2.66866e-06
-3.15343e-06
-3.63282e-06
-4.10618e-06
-4.57449e-06
-5.0371e-06
-5.49496e-06
-5.94742e-06
-6.39541e-06
-6.83828e-06
-7.27696e-06
-7.71077e-06
-8.14065e-06
-8.5659e-06
-8.98745e-06
-9.40461e-06
-9.81829e-06
-1.02278e-05
-1.0634e-05
-1.10363e-05
-1.14355e-05
-1.18309e-05
-1.22235e-05
-1.26124e-05
-1.29986e-05
-1.33814e-05
-1.37617e-05
-1.41387e-05
-1.45134e-05
-1.48849e-05
-1.52542e-05
-1.56205e-05
-1.59848e-05
-1.63462e-05
-1.67057e-05
-1.70624e-05
-1.74174e-05
-1.77698e-05
-1.81205e-05
-1.84688e-05
-1.88155e-05
-1.91598e-05
-1.95027e-05
-1.98434e-05
-2.01827e-05
-2.05199e-05
-2.08559e-05
-2.11898e-05
-2.15226e-05
-2.18535e-05
-2.21833e-05
-2.25113e-05
-2.28383e-05
-2.31636e-05
-2.3488e-05
-2.38108e-05
-2.41328e-05
-2.44532e-05
-2.47729e-05
-2.50911e-05
-2.54087e-05
-2.57249e-05
-2.60405e-05
-2.63548e-05
-2.66686e-05
-2.69812e-05
-2.72933e-05
-2.76043e-05
-2.7915e-05
-2.82245e-05
-2.85337e-05
-2.88419e-05
-2.91499e-05
-2.9457e-05
-2.97638e-05
-3.00698e-05
-3.03757e-05
-3.06807e-05
-3.09857e-05
-3.12899e-05
-3.15941e-05
-3.18976e-05
-3.22012e-05
-3.2504e-05
-3.28071e-05
-3.31095e-05
-3.34121e-05
-3.37141e-05
-3.40163e-05
-3.43181e-05
-3.46201e-05
-3.49216e-05
-3.52235e-05
-3.55249e-05
-3.58267e-05
-3.61281e-05
-3.64299e-05
-3.67313e-05
-3.70332e-05
-3.73348e-05
-3.76369e-05
-3.79386e-05
-3.82409e-05
-3.8543e-05
-3.88456e-05
-3.91479e-05
-3.94509e-05
-3.97536e-05
-4.0057e-05
-4.03602e-05
-4.0664e-05
-4.09678e-05
-4.12721e-05
-4.15764e-05
-4.18814e-05
-4.21862e-05
-4.24919e-05
-4.27974e-05
-4.31037e-05
-4.341e-05
-4.37171e-05
-4.40241e-05
-4.4332e-05
-4.464e-05
-4.49487e-05
-4.52576e-05
-4.55673e-05
-4.58771e-05
-4.61879e-05
-4.64988e-05
-4.68107e-05
-4.71228e-05
-4.74359e-05
-4.77492e-05
-4.80636e-05
-4.83782e-05
-4.8694e-05
-4.90101e-05
-4.93273e-05
-4.9645e-05
-4.99639e-05
-5.02832e-05
-5.06038e-05
-5.09249e-05
-5.12473e-05
-5.15703e-05
-5.18947e-05
-5.22197e-05
-5.25462e-05
-5.28734e-05