# vtk DataFile Version 2.0
FlowField
ASCII
DATASET STRUCTURED_GRID
DIMENSIONS 400 1 200
POINTS 80000 float
0 0 0
0.08 0 0
0.16 0 0
0.24 0 0
0.32 0 0
0.4 0 0
0.48 0 0
0.56 0 0
0.64 0 0
0.72 0 0
0.8 0 0
0.88 0 0
0.96 0 0
1.04 0 0
1.12 0 0
1.2 0 0
1.28 0 0
1.36 0 0
1.44 0 0
1.52 0 0
1.6 0 0
1.68 0 0
1.76 0 0
1.84 0 0
1.92 0 0
2 0 0
2.08 0 0
2.16 0 0
2.24 0 0
2.32 0 0
2.4 0 0
2.48 0 0
2.56 0 0
2.64 0 0
2.72 0 0
2.8 0 0
2.88 0 0
2.96 0 0
3.04 0 0
3.12 0 0
3.2 0 0
3.28 0 0
3.36 0 0
3.44 0 0
3.52 0 0
3.6 0 0
3.68 0 0
3.76 0 0
3.84 0 0
3.92 0 0
4 0 0
4.08 0 0
4.16 0 0
4.24 0 0
4.32 0 0
4.4 0 0
4.48 0 0
4.56 0 0
4.64 0 0
4.72 0 0
4.8 0 0
4.88 0 0
4.96 0 0
5.04 0 0
5.12 0 0
5.2 0 0
5.28 0 0
5.36 0 0
5.44 0 0
5.52 0 0
5.6 0 0
5.68 0 0
5.76 0 0
5.84 0 0
5.92 0 0
6 0 0
6.08 0 0
6.16 0 0
6.24 0 0
6.32 0 0
6.4 0 0
6.48 0 0
6.56 0 0
6.64 0 0
6.72 0 0
6.8 0 0
6.88 0 0
6.96 0 0
7.04 0 0
7.12 0 0
7.2 0 0
7.28 0 0
7.36 0 0
7.44 0 0
7.52 0 0
7.6 0 0
7.68 0 0
7.76 0 0
7.84 0 0
7.92 0 0
8 0 0
8.08 0 0
8.16 0 0
8.24 0 0
8.32 0 0
8.4 0 0
8.48 0 0
8.56 0 0
8.64 0 0
8.72 0 0
8.8 0 0
8.88 0 0
8.96 0 0
9.04 0 0
9.12 0 0
9.2 0 0
9.28 0 0
9.36 0 0
9.44 0 0
9.52 0 0
9.6 0 0
9.68 0 0
9.76 0 0
9.84 0 0
9.92 0 0
10 0 0
10.08 0 0
10.16 0 0
10.24 0 0
10.32 0 0
10.4 0 0
10.48 0 0
10.56 0 0
10.64 0 0
10.72 0 0
10.8 0 0
10.88 0 0
10.96 0 0
11.04 0 0
11.12 0 0
11.2 0 0
11.28 0 0
11.36 0 0
11.44 0 0
11.52 0 0
11.6 0 0
11.68 0 0
11.76 0 0
11.84 0 0
11.92 0 0
12 0 0
12.08 0 0
12.16 0 0
12.24 0 0
12.32 0 0
12.4 0 0
12.48 0 0
12.56 0 0
12.64 0 0
12.72 0 0
12.8 0 0
12.88 0 0
12.96 0 0
13.04 0 0
13.12 0 0
13.2 0 0
13.28 0 0
13.36 0 0
13.44 0 0
13.52 0 0
13.6 0 0
13.68 0 0
13.76 0 0
13.84 0 0
13.92 0 0
14 0 0
14.08 0 0
14.16 0 0
14.24 0 0
14.32 0 0
14.4 0 0
14.48 0 0
14.56 0 0
14.64 0 0
14.72 0 0
14.8 0 0
14.88 0 0
14.96 0 0
15.04 0 0
15.12 0 0
15.2 0 0
15.28 0 0
15.36 0 0
15.44 0 0
15.52 0 0
15.6 0 0
15.68 0 0
15.76 0 0
15.84 0 0
15.92 0 0
16 0 0
16.08 0 0
16.16 0 0
16.24 0 0
16.32 0 0
16.4 0 0
16.48 0 0
16.56 0 0
16.64 0 0
16.72 0 0
16.8 0 0
16.88 0 0
16.96 0 0
17.04 0 0
17.12 0 0
17.2 0 0
17.28 0 0
17.36 0 0
17.44 0 0
17.52 0 0
17.6 0 0
17.68 0 0
17.76 0 0
17.84 0 0
17.92 0 0
18 0 0
18.08 0 0
18.16 0 0
18.24 0 0
18.32 0 0
18.4 0 0
18.48 0 0
18.56 0 0
18.64 0 0
18.72 0 0
18.8 0 0
18.88 0 0
18.96 0 0
19.04 0 0
19.12 0 0
19.2 0 0
19.28 0 0
19.36 0 0
19.44 0 0
19.52 0 0
19.6 0 0
19.68 0 0
19.76 0 0
19.84 0 0
19.92 0 0
20 0 0
20.08 0 0
20.16 0 0
20.24 0 0
20.32 0 0
20.4 0 0
20.48 0 0
20.56 0 0
20.64 0 0
20.72 0 0
20.8 0 0
20.88 0 0
20.96 0 0
21.04 0 0
21.12 0 0
21.2 0 0
21.28 0 0
21.36 0 0
21.44 0 0
21.52 0 0
21.6 0 0
21.68 0 0
21.76 0 0
21.84 0 0
21.92 0 0
22 0 0
22.08 0 0
22.16 0 0
22.24 0 0
22.32 0 0
22.4 0 0
22.48 0 0
22.56 0 0
22.64 0 0
22.72 0 0
22.8 0 0
22.88 0 0
22.96 0 0
23.04 0 0
23.12 0 0
23.2 0 0
23.28 0 0
23.36 0 0
23.44 0 0
23.52 0 0
23.6 0 0
23.68 0 0
23.76 0 0
23.84 0 0
23.92 0 0
24 0 0
24.08 0 0
24.16 0 0
24.24 0 0
24.32 0 0
24.4 0 0
24.48 0 0
24.56 0 0
24.64 0 0
24.72 0 0
24.8 0 0
24.88 0 0
24.96 0 0
25.04 0 0
25.12 0 0
25.2 0 0
25.28 0 0
25.36 0 0
25.44 0 0
25.52 0 0
25.6 0 0
25.68 0 0
25.76 0 0
25.84 0 0
25.92 0 0
26 0 0
26.08 0 0
26.16 0 0
26.24 0 0
26.32 0 0
26.4 0 0
26.48 0 0
26.56 0 0
26.64 0 0
26.72 0 0
26.8 0 0
26.88 0 0
26.96 0 0
27.04 0 0
27.12 0 0
27.2 0 0
27.28 0 0
27.36 0 0
27.44 0 0
27.52 0 0
27.6 0 0
27.68 0 0
27.76 0 0
27.84 0 0
27.92 0 0
28 0 0
28.08 0 0
28.16 0 0
28.24 0 0
28.32 0 0
28.4 0 0
28.48 0 0
28.56 0 0
28.64 0 0
28.72 0 0
28.8 0 0
28.88 0 0
28.96 0 0
29.04 0 0
29.12 0 0
29.2 0 0
29.28 0 0
29.36 0 0
29.44 0 0
29.52 0 0
29.6 0 0
29.68 0 0
29.76 0 0
29.84 0 0
29.92 0 0
30 0 0
30.08 0 0
30.16 0 0
30.24 0 0
30.32 0 0
30.4 0 0
30.48 0 0
30.56 0 0
30.64 0 0
30.72 0 0
30.8 0 0
30.88 0 0
30.96 0 0
31.04 0 0
31.12 0 0
31.2 0 0
31.28 0 0
31.36 0 0
31.44 0 0
31.52 0 0
31.6 0 0
31.68 0 0
31.76 0 0
31.84 0 0
31.92 0 0
0 0.005 0
0.08 0.005 0
0.16 0.005 0
0.24 0.005 0
0.32 0.005 0
0.4 0.005 0
0.48 0.005 0
0.56 0.005 0
0.64 0.005 0
0.72 0.005 0
0.8 0.005 0
0.88 0.005 0
0.96 0.005 0
1.04 0.005 0
1.12 0.005 0
1.2 0.005 0
1.28 0.005 0
1.36 0.005 0
1.44 0.005 0
1.52 0.005 0
1.6 0.005 0
1.68 0.005 0
1.76 0.005 0
1.84 0.005 0
1.92 0.005 0
2 0.005 0
2.08 0.005 0
2.16 0.005 0
2.24 0.005 0
2.32 0.005 0
2.4 0.005 0
2.48 0.005 0
2.56 0.005 0
2.64 0.005 0
2.72 0.005 0
2.8 0.005 0
2.88 0.005 0
2.96 0.005 0
3.04 0.005 0
3.12 0.005 0
3.2 0.005 0
3.28 0.005 0
3.36 0.005 0
3.44 0.005 0
3.52 0.005 0
3.6 0.005 0
3.68 0.005 0
3.76 0.005 0
3.84 0.005 0
3.92 0.005 0
4 0.005 0
4.08 0.005 0
4.16 0.005 0
4.24 0.005 0
4.32 0.005 0
4.4 0.005 0
4.48 0.005 0
4.56 0.005 0
4.64 0.005 0
4.72 0.005 0
4.8 0.005 0
4.88 0.005 0
4.96 0.005 0
5.04 0.005 0
5.12 0.005 0
5.2 0.005 0
5.28 0.005 0
5.36 0.005 0
5.44 0.005 0
5.52 0.005 0
5.6 0.005 0
5.68 0.005 0
5.76 0.005 0
5.84 0.005 0
5.92 0.005 0
6 0.005 0
6.08 0.005 0
6.16 0.005 0
6.24 0.005 0
6.32 0.005 0
6.4 0.005 0
6.48 0.005 0
6.56 0.005 0
6.64 0.005 0
6.72 0.005 0
6.8 0.005 0
6.88 0.005 0
6.96 0.005 0
7.04 0.005 0
7.12 0.005 0
7.2 0.005 0
7.28 0.005 0
7.36 0.005 0
7.44 0.005 0
7.52 0.005 0
7.6 0.005 0
7.68 0.005 0
7.76 0.005 0
7.84 0.005 0
7.92 0.005 0
8 0.005 0
8.08 0.005 0
8.16 0.005 0
8.24 0.005 0
8.32 0.005 0
8.4 0.005 0
8.48 0.005 0
8.56 0.005 0
8.64 0.005 0
8.72 0.005 0
8.8 0.005 0
8.88 0.005 0
8.96 0.005 0
9.04 0.005 0
9.12 0.005 0
9.2 0.005 0
9.28 0.005 0
9.36 0.005 0
9.44 0.005 0
9.52 0.005 0
9.6 0.005 0
9.68 0.005 0
9.76 0.005 0
9.84 0.005 0
9.92 0.005 0
10 0.005 0
10.08 0.005 0
10.16 0.005 0
10.24 0.005 0
10.32 0.005 0
10.4 0.005 0
10.48 0.005 0
10.56 0.005 0
10.64 0.005 0
10.72 0.005 0
10.8 0.005 0
10.88 0.005 0
10.96 0.005 0
11.04 0.005 0
11.12 0.005 0
11.2 0.005 0
11.28 0.005 0
11.36 0.005 0
11.44 0.005 0
11.52 0.005 0
11.6 0.005 0
11.68 0.005 0
11.76 0.005 0
11.84 0.005 0
11.92 0.005 0
12 0.005 0
12.08 0.005 0
12.16 0.005 0
12.24 0.005 0
12.32 0.005 0
12.4 0.005 0
12.48 0.005 0
12.56 0.005 0
12.64 0.005 0
12.72 0.005 0
12.8 0.005 0
12.88 0.005 0
12.96 0.005 0
13.04 0.005 0
13.12 0.005 0
13.2 0.005 0
13.28 0.005 0
13.36 0.005 0
13.44 0.005 0
13.52 0.005 0
13.6 0.005 0
13.68 0.005 0
13.76 0.005 0
13.84 0.005 0
13.92 0.005 0
14 0.005 0
14.08 0.005 0
14.16 0.005 0
14.24 0.005 0
14.32 0.005 0
14.4 0.005 0
14.48 0.005 0
14.56 0.005 0
14.64 0.005 0
14.72 0.005 0
14.8 0.005 0
14.88 0.005 0
14.96 0.005 0
15.04 0.005 0
15.12 0.005 0
15.2 0.005 0
15.28 0.005 0
15.36 0.005 0
15.44 0.005 0
15.52 0.005 0
15.6 0.005 0
15.68 0.005 0
15.76 0.005 0
15.84 0.005 0
15.92 0.005 0
16 0.005 0
16.08 0.005 0
16.16 0.005 0
16.24 0.005 0
16.32 0.005 0
16.4 0.005 0
16.48 0.005 0
16.56 0.005 0
16.64 0.005 0
16.72 0.005 0
16.8 0.005 0
16.88 0.005 0
16.96 0.005 0
17.04 0.005 0
17.12 0.005 0
17.2 0.005 0
17.28 0.005 0
17.36 0.005 0
17.44 0.005 0
17.52 0.005 0
17.6 0.005 0
17.68 0.005 0
17.76 0.005 0
17.84 0.005 0
17.92 0.005 0
18 0.005 0
18.08 0.005 0
18.16 0.005 0
18.24 0.005 0
18.32 0.005 0
18.4 0.005 0
18.48 0.005 0
18.56 0.005 0
18.64 0.005 0
18.72 0.005 0
18.8 0.005 0
18.88 0.005 0
18.96 0.005 0
19.04 0.005 0
19.12 0.005 0
19.2 0.005 0
19.28 0.005 0
19.36 0.005 0
19.44 0.005 0
19.52 0.005 0
19.6 0.005 0
19.68 0.005 0
19.76 0.005 0
19.84 0.005 0
19.92 0.005 0
20 0.005 0
20.08 0.005 0
20.16 0.005 0
20.24 0.005 0
20.32 0.005 0
20.4 0.005 0
20.48 0.005 0
20.56 0.005 0
20.64 0.005 0
20.72 0.005 0
20.8 0.005 0
20.88 0.005 0
20.96 0.005 0
21.04 0.005 0
21.12 0.005 0
21.2 0.005 0
21.28 0.005 0
21.36 0.005 0
21.44 0.005 0
21.52 0.005 0
21.6 0.005 0
21.68 0.005 0
21.76 0.005 0
21.84 0.005 0
21.92 0.005 0
22 0.005 0
22.08 0.005 0
22.16 0.005 0
22.24 0.005 0
22.32 0.005 0
22.4 0.005 0
22.48 0.005 0
22.56 0.005 0
22.64 0.005 0
22.72 0.005 0
22.8 0.005 0
22.88 0.005 0
22.96 0.005 0
23.04 0.005 0
23.12 0.005 0
23.2 0.005 0
23.28 0.005 0
23.36 0.005 0
23.44 0.005 0
23.52 0.005 0
23.6 0.005 0
23.68 0.005 0
23.76 0.005 0
23.84 0.005 0
23.92 0.005 0
24 0.005 0
24.08 0.005 0
24.16 0.005 0
24.24 0.005 0
24.32 0.005 0
24.4 0.005 0
24.48 0.005 0
24.56 0.005 0
24.64 0.005 0
24.72 0.005 0
24.8 0.005 0
24.88 0.005 0
24.96 0.005 0
25.04 0.005 0
25.12 0.005 0
25.2 0.005 0
25.28 0.005 0
25.36 0.005 0
25.44 0.005 0
25.52 0.005 0
25.6 0.005 0
25.68 0.005 0
25.76 0.005 0
25.84 0.005 0
25.92 0.005 0
26 0.005 0
26.08 0.005 0
26.16 0.005 0
26.24 0.005 0
26.32 0.005 0
26.4 0.005 0
26.48 0.005 0
26.56 0.005 0
26.64 0.005 0
26.72 0.005 0
26.8 0.005 0
26.88 0.005 0
26.96 0.005 0
27.04 0.005 0
27.12 0.005 0
27.2 0.005 0
27.28 0.005 0
27.36 0.005 0
27.44 0.005 0
27.52 0.005 0
27.6 0.005 0
27.68 0.005 0
27.76 0.005 0
27.84 0.005 0
27.92 0.005 0
28 0.005 0
28.08 0.005 0
28.16 0.005 0
28.24 0.005 0
28.32 0.005 0
28.4 0.005 0
28.48 0.005 0
28.56 0.005 0
28.64 0.005 0
28.72 0.005 0
28.8 0.005 0
28.88 0.005 0
28.96 0.005 0
29.04 0.005 0
29.12 0.005 0
29.2 0.005 0
29.28 0.005 0
29.36 0.005 0
29.44 0.005 0
29.52 0.005 0
29.6 0.005 0
29.68 0.005 0
29.76 0.005 0
29.84 0.005 0
29.92 0.005 0
30 0.005 0
30.08 0.005 0
30.16 0.005 0
30.24 0.005 0
30.32 0.005 0
30.4 0.005 0
30.48 0.005 0
30.56 0.005 0
30.64 0.005 0
30.72 0.005 0
30.8 0.005 0
30.88 0.005 0
30.96 0.005 0
31.04 0.005 0
31.12 0.005 0
31.2 0.005 0
31.28 0.005 0
31.36 0.005 0
31.44 0.005 0
31.52 0.005 0
31.6 0.005 0
31.68 0.005 0
31.76 0.005 0
31.84 0.005 0
31.92 0.005 0
0 0.01 0
0.08 0.01 0
0.16 0.01 0
0.24 0.01 0
0.32 0.01 0
0.4 0.01 0
0.48 0.01 0
0.56 0.01 0
0.64 0.01 0
0.72 0.01 0
0.8 0.01 0
0.88 0.01 0
0.96 0.01 0
1.04 0.01 0
1.12 0.01 0
1.2 0.01 0
1.28 0.01 0
1.36 0.01 0
1.44 0.01 0
1.52 0.01 0
1.6 0.01 0
1.68 0.01 0
1.76 0.01 0
1.84 0.01 0
1.92 0.01 0
2 0.01 0
2.08 0.01 0
2.16 0.01 0
2.24 0.01 0
2.32 0.01 0
2.4 0.01 0
2.48 0.01 0
2.56 0.01 0
2.64 0.01 0
2.72 0.01 0
2.8 0.01 0
2.88 0.01 0
2.96 0.01 0
3.04 0.01 0
3.12 0.01 0
3.2 0.01 0
3.28 0.01 0
3.36 0.01 0
3.44 0.01 0
3.52 0.01 0
3.6 0.01 0
3.68 0.01 0
3.76 0.01 0
3.84 0.01 0
3.92 0.01 0
4 0.01 0
4.08 0.01 0
4.16 0.01 0
4.24 0.01 0
4.32 0.01 0
4.4 0.01 0
4.48 0.01 0
4.56 0.01 0
4.64 0.01 0
4.72 0.01 0
4.8 0.01 0
4.88 0.01 0
4.96 0.01 0
5.04 0.01 0
5.12 0.01 0
[...]
POINT_DATA 80000

SCALARS u float 1
LOOKUP_TABLE default
0
-0.131562
-0.0688208
-0.0555712
-0.0517036
-0.0507517
-0.0506081
-0.0506526
-0.0507381
-0.0508343
-0.0509342
-0.0510352
-0.0511365
-0.0512376
-0.0513384
-0.0514391
-0.0515399
-0.0516409
-0.0517422
-0.0518439
-0.0519461
-0.0520489
-0.0521524
-0.0522565
-0.0523613
-0.0524668
-0.052573
-0.05268
-0.0527877
-0.0528962
-0.0530055
-0.0531156
-0.0532264
-0.0533381
-0.0534506
-0.0535639
-0.053678
-0.053793
-0.0539088
-0.0540255
-0.0541431
-0.0542615
-0.0543809
-0.0545011
-0.0546223
-0.0547444
-0.0548674
-0.0549914
-0.0551163
-0.0552423
-0.0553692
-0.0554971
-0.055626
-0.0557559
-0.0558869
-0.0560189
-0.056152
-0.0562861
-0.0564214
-0.0565578
-0.0566953
-0.0568339
-0.0569736
-0.0571146
-0.0572567
-0.0574
-0.0575446
-0.0576904
-0.0578374
-0.0579857
-0.0581353
-0.0582862
-0.0584385
-0.0585921
-0.058747
-0.0589034
-0.0590611
-0.0592203
-0.059381
-0.0595431
-0.0597067
-0.0598719
-0.0600385
-0.0602068
-0.0603767
-0.0605482
-0.0607213
-0.0608962
-0.0610727
-0.061251
-0.0614311
-0.0616129
-0.0617966
-0.0619821
-0.0621696
-0.0623589
-0.0625502
-0.0627435
-0.0629389
-0.0631363
-0.0633358
-0.0635374
-0.0637413
-0.0639473
-0.0641556
-0.0643662
-0.0645791
-0.0647944
-0.0650121
-0.0652323
-0.065455
-0.0656803
-0.0659082
-0.0661387
-0.066372
-0.066608
-0.0668468
-0.0670885
-0.0673332
-0.0675808
-0.0678315
-0.0680853
-0.0683423
-0.0686025
-0.0688661
-0.069133
-0.0694034
-0.0696774
-0.0699549
-0.0702362
-0.0705213
-0.0708102
-0.0711031
-0.0714001
-0.0717012
-0.0720066
-0.0723164
-0.0726306
-0.0729494
-0.0732729
-0.0736012
-0.0739345
-0.0742729
-0.0746164
-0.0749653
-0.0753197
-0.0756797
-0.0760455
-0.0764173
-0.0767952
-0.0771794
-0.07757
-0.0779673
-0.0783715
-0.0787828
-0.0792013
-0.0796273
-0.0800611
-0.0805028
-0.0809528
-0.0814113
-0.0818785
-0.0823549
-0.0828406
-0.083336
-0.0838414
-0.0843573
-0.0848839
-0.0854217
-0.0859711
-0.0865325
-0.0871065
-0.0876934
-0.0882938
-0.0889082
-0.0895374
-0.0901818
-0.0908422
-0.0915192
-0.0922137
-0.0929265
-0.0936584
-0.0944104
-0.0951835
-0.0959789
-0.0967976
-0.0976412
-0.0985108
-0.0994081
-0.100335
-0.101293
-0.102283
-0.10331
-0.104373
-0.105477
-0.106623
-0.107816
-0.109057
-0.11035
-0.111699
-0.113108
-0.11458
-0.11612
-0.117731
-0.119419
-0.121187
-0.12304
-0.12498
-0.127013
-0.12914
-0.131364
-0.133685
-0.136105
-0.138621
-0.14123
-0.143928
-0.146708
-0.149559
-0.152469
-0.155422
-0.158401
-0.161383
-0.164344
-0.167254
-0.170082
-0.172793
-0.175351
-0.177714
-0.179843
-0.181694
-0.183225
-0.184394
-0.185161
-0.185488
-0.18534
-0.184688
-0.183509
-0.181784
-0.179504
-0.176666
-0.173276
-0.169347
-0.164903
-0.159972
-0.154593
-0.14881
-0.142672
-0.136234
-0.129555
-0.122693
-0.11571
-0.108666
-0.10162
-0.0946279
-0.0877429
-0.0810126
-0.07448
-0.0681827
-0.0621522
-0.0564143
-0.0509888
-0.0458899
-0.0411263
-0.0367018
-0.0326154
-0.0288624
-0.0254342
-0.0223195
-0.0195046
-0.0169738
-0.01471
-0.0126952
-0.0109111
-0.00933892
-0.00796029
-0.0067572
-0.00571232
-0.00480914
-0.00403211
-0.00336673
-0.00279961
-0.00231844
-0.00191208
-0.00157045
-0.00128455
-0.00104635
-0.00084879
-0.000685661
-0.000551566
-0.000441817
-0.000352397
-0.000279852
-0.00022126
-0.000174138
-0.000136411
-0.000106329
-8.24527e-05
-6.3577e-05
-4.87251e-05
-3.70822e-05
-2.80008e-05
-2.09405e-05
-1.54819e-05
-1.12726e-05
-8.04741e-06
-5.58007e-06
-3.70741e-06
-2.28557e-06
-1.21752e-06
-4.12183e-07
1.85548e-07
6.3365e-07
9.61216e-07
1.20588e-06
1.38092e-06
1.51172e-06
1.60213e-06
1.67029e-06
1.71453e-06
1.74882e-06
1.76831e-06
1.78461e-06
1.79109e-06
1.79801e-06
1.79776e-06
1.79989e-06
1.79625e-06
1.79598e-06
1.79067e-06
1.78926e-06
1.78316e-06
1.78121e-06
1.77477e-06
1.77261e-06
1.76603e-06
1.76381e-06
1.75721e-06
1.75499e-06
1.74842e-06
1.74623e-06
1.73971e-06
1.73758e-06
1.73111e-06
1.72904e-06
1.72264e-06
1.72063e-06
1.71429e-06
1.71234e-06
1.70606e-06
1.70417e-06
1.69796e-06
1.69613e-06
1.68997e-06
1.68821e-06
1.68211e-06
1.6804e-06
1.67436e-06
1.67272e-06
1.66673e-06
1.66514e-06
1.65921e-06
1.65768e-06
1.65181e-06
1.65033e-06
1.64451e-06
1.64308e-06
1.63732e-06
1.63595e-06
1.63024e-06
1.62891e-06
1.62325e-06
1.62198e-06
1.61637e-06
1.61515e-06
1.6096e-06
1.60843e-06
1.60292e-06
1.6018e-06
1.59634e-06
1.59528e-06
1.58987e-06
1.58886e-06
1.58351e-06
1.58255e-06
1.57726e-06
1.57637e-06
1.57114e-06
1.57031e-06
1.56515e-06
1.56437e-06
1.55923e-06
1.55843e-06
1.55319e-06
1.55212e-06
1.54627e-06
1.54395e-06
1.53617e-06
1.53421e-06
1.53421e-06
1.53421e-06
1
0.131562
0.0688208
0.0555712
0.0517036
0.0507517
0.0506081
0.0506526
0.0507381
0.0508343
0.0509342
0.0510352
0.0511365
0.0512376
0.0513384
0.0514391
0.0515399
0.0516409
0.0517422
0.0518439
0.0519461
0.0520489
0.0521524
0.0522565
0.0523613
0.0524668
0.052573
0.05268
0.0527877
0.0528962
0.0530055
0.0531156
0.0532264
0.0533381
0.0534506
0.0535639
0.053678
0.053793
0.0539088
0.0540255
0.0541431
0.0542615
0.0543809
0.0545011
0.0546223
0.0547444
0.0548674
0.0549914
0.0551163
0.0552423
0.0553692
0.0554971
0.055626
0.0557559
0.0558869
0.0560189
0.056152
0.0562861
0.0564214
0.0565578
0.0566953
0.0568339
0.0569736
0.0571146
0.0572567
0.0574
0.0575446
0.0576904
0.0578374
0.0579857
0.0581353
0.0582862
0.0584385
0.0585921
0.058747
0.0589034
0.0590611
0.0592203
0.059381
0.0595431
0.0597067
0.0598719
0.0600385
0.0602068
0.0603767
0.0605482
0.0607213
0.0608962
0.0610727
0.061251
0.0614311
0.0616129
0.0617966
0.0619821
0.0621696
0.0623589
0.0625502
0.0627435
0.0629389
0.0631363
0.0633358
0.0635374
0.0637413
0.0639473
0.0641556
0.0643662
0.0645791
0.0647944
0.0650121
0.0652323
0.065455
0.0656803
0.0659082
0.0661387
0.066372
0.066608
0.0668468
0.0670885
0.0673332
0.0675808
0.0678315
0.0680853
0.0683423
0.0686025
0.0688661
0.069133
0.0694034
0.0696774
0.0699549
0.0702362
0.0705213
0.0708102
0.0711031
0.0714001
0.0717012
0.0720066
0.0723164
0.0726306
0.0729494
0.0732729
0.0736012
0.0739345
0.0742729
0.0746164
0.0749653
0.0753197
0.0756797
0.0760455
0.0764173
0.0767952
0.0771794
0.07757
0.0779673
0.0783715
0.0787828
0.0792013
0.0796273
0.0800611
0.0805028
0.0809528
0.0814113
0.0818785
0.0823549
0.0828406
0.083336
0.0838414
0.0843573
0.0848839
0.0854217
0.0859711
0.0865325
0.0871065
0.0876934
0.0882938
0.0889082
0.0895374
0.0901818
0.0908422
0.0915192
0.0922137
0.0929265
0.0936584
0.0944104
0.0951835
0.0959789
0.0967976
0.0976412
0.0985108
0.0994081
0.100335
0.101293
0.102283
0.10331
0.104373
0.105477
0.106623
0.107816
0.109057
0.11035
0.111699
0.113108
0.11458
0.11612
0.117731
0.119419
0.121187
0.12304
0.12498
0.127013
0.12914
0.131364
0.133685
0.136105
0.138621
0.14123
0.143928
0.146708
0.149559
0.152469
0.155422
0.158401
0.161383
0.164344
0.167254
0.170082
0.172793
0.175351
0.177714
0.179843
0.181694
0.183225
0.184394
0.185161
0.185488
0.18534
0.184688
0.183509
0.181784
0.179504
0.176666
0.173276
0.169347
0.164903
0.159972
0.154593
0.14881
0.142672
0.136234
0.129555
0.122693
0.11571
0.108666
0.10162
0.0946279
0.0877429
0.0810126
0.07448
0.0681827
0.0621522
0.0564143
0.0509888
0.0458899
0.0411263
0.0367018
0.0326154
0.0288624
0.0254342
0.0223195
0.0195046
0.0169738
0.01471
0.0126952
0.0109111
0.00933892
0.00796029
0.0067572
0.00571232
0.00480914
0.00403211
0.00336673
0.00279961
0.00231844
0.00191208
0.00157045
0.00128455
0.00104635
0.00084879
0.000685661
0.000551566
0.000441817
0.000352397
0.000279852
0.00022126
0.000174138
0.000136411
0.000106329
8.24527e-05
6.3577e-05
4.87251e-05
3.70822e-05
2.80008e-05
2.09405e-05
1.54819e-05
1.12726e-05
8.04741e-06
5.58007e-06
3.70741e-06
2.28557e-06
1.21752e-06
4.12183e-07
-1.85548e-07
-6.3365e-07
-9.61216e-07
-1.20588e-06
-1.38092e-06
-1.51172e-06
-1.60213e-06
-1.67029e-06
-1.71453e-06
-1.74882e-06
-1.76831e-06
-1.78461e-06
-1.79109e-06
-1.79801e-06
-1.79776e-06
-1.79989e-06
-1.79625e-06
-1.79598e-06
-1.79067e-06
-1.78926e-06
-1.78316e-06
-1.78121e-06
-1.77477e-06
-1.77261e-06
-1.76603e-06
-1.76381e-06
-1.75721e-06
-1.75499e-06
-1.74842e-06
-1.74623e-06
-1.73971e-06
-1.73758e-06
-1.73111e-06
-1.72904e-06
-1.72264e-06
-1.72063e-06
-1.71429e-06
-1.71234e-06
-1.70606e-06
-1.70417e-06
-1.69796e-06
-1.69613e-06
-1.68997e-06
-1.68821e-06
-1.68211e-06
-1.6804e-06
-1.67436e-06
-1.67272e-06
-1.66673e-06
-1.66514e-06
-1.65921e-06
-1.65768e-06
-1.65181e-06
-1.65033e-06
-1.64451e-06
-1.64308e-06
-1.63732e-06
-1.63595e-06
-1.63024e-06
-1.62891e-06
-1.62325e-06
-1.62198e-06
-1.61637e-06
-1.61515e-06
-1.6096e-06
-1.60843e-06
-1.60292e-06
-1.6018e-06
-1.59634e-06
-1.59528e-06
-1.58987e-06
-1.58886e-06
-1.58351e-06
-1.58255e-06
-1.57726e-06
-1.57637e-06
-1.57114e-06
-1.57031e-06
-1.56515e-06
-1.56437e-06
-1.55923e-06
-1.55843e-06
-1.55319e-06
-1.55212e-06
-1.54627e-06
-1.54395e-06
-1.53617e-06
-1.53421e-06
-1.53421e-06
-1.53421e-06
1
0.344499
0.202464
0.165155
0.153975
0.151056
0.150489
0.150519
0.15071
0.150957
0.151228
0.151511
0.1518
0.152091
0.152384
0.152677
0.152971
0.153266
0.153562
0.15386
0.154159
0.15446
0.154763
0.155068
0.155374
0.155683
0.155994
0.156307
0.156622
0.156939
0.157259
0.157581
0.157905
0.158231
0.15856
0.158891
0.159225
0.159561
0.159899
0.16024
0.160584
0.16093
0.161279
0.16163
0.161984
0.16234
0.162699
0.163061
0.163426
0.163793
0.164164
0.164537
0.164913
0.165292
0.165674
0.166059
0.166447
0.166838
0.167233
0.16763
0.168031
0.168435
0.168842
0.169253
0.169667
0.170084
0.170505
0.17093
0.171358
0.17179
0.172225
0.172665
0.173108
0.173555
0.174006
0.17446
0.174919
0.175382
0.175849
0.176321
0.176796
0.177276
0.177761
0.17825
0.178743
0.179242
0.179745
0.180252
0.180765
0.181282
0.181805
0.182332
0.182865
0.183404
0.183947
0.184496
0.185051
0.185611
0.186177
0.186749
0.187326
0.18791
0.1885
0.189096
0.189699
0.190308
0.190923
0.191546
0.192175
0.192811
0.193455
0.194105
0.194763
0.195428
0.196101
0.196782
0.197471
0.198168
0.198873
0.199586
0.200309
0.201039
0.201779
0.202528
0.203287
0.204054
0.204832
0.205619
0.206417
0.207225
0.208044
0.208873
0.209714
0.210566
0.21143
0.212305
0.213193
0.214093
0.215006
0.215931
0.216871
0.217824
0.218791
0.219772
0.220768
0.22178
0.222807
0.22385
0.224909
0.225985
0.227079
0.22819
0.22932
0.230468
0.231636
0.232823
0.234032
0.235261
0.236512
0.237785
0.239082
0.240402
0.241747
0.243117
0.244514
0.245938
0.247389
0.24887
0.250381
0.251923
0.253497
0.255104
0.256746
0.258424
0.260139
0.261893
0.263688
0.265524
0.267404
0.269329
0.271302
0.273325
0.2754
0.277529
0.279715
0.28196
0.284267
0.286641
0.289083
0.291597
0.294187
0.296857
0.299611
0.302453
0.305389
0.308422
0.311557
0.314801
0.318157
0.32163
0.325226
0.32895
0.332804
0.336795
0.340923
0.345191
0.3496
0.354149
0.358835
0.363652
0.368594
0.37365
0.378804
0.384039
0.389333
0.394657
0.399981
0.405267
0.410471
0.415546
0.420438
0.425087
0.429429
0.433397
0.436917
0.439915
0.442314
0.444037
0.445009
0.445155
0.444406
0.4427
0.439981
0.436204
0.431335
0.425352
0.418246
0.410025
0.400712
0.390343
0.378973
0.366668
0.35351
0.339593
0.32502
0.309903
0.294362
0.278518
0.262495
0.246415
0.230397
0.214555
0.198996
0.183816
0.169103
0.154932
0.141369
0.128465
0.116261
0.104786
0.0940571
0.0840812
0.0748562
0.0663713
0.0586082
0.0515422
0.0451438
0.0393789
0.0342107
0.0296003
0.0255074
0.0218914
0.0187121
0.0159297
0.0135063
0.0114053
0.00959213
0.00803461
0.00670278
0.00556907
0.00460837
0.0037979
0.00311723
0.0025481
0.00207433
0.00168167
0.00135767
0.00109148
0.000873746
0.000696401
0.000552595
0.000436467
0.000343112
0.000268364
0.000208789
0.00016149
0.000124116
9.46899e-05
7.16385e-05
5.36384e-05
3.96608e-05
2.88341e-05
2.05022e-05
1.40991e-05
9.21803e-06
5.49493e-06
2.68612e-06
5.58399e-07
-1.02752e-06
-2.22191e-06
-3.09858e-06
-3.75631e-06
-4.22866e-06
-4.58309e-06
-4.82888e-06
-5.01481e-06
-5.13583e-06
-5.22976e-06
-5.28325e-06
-5.32784e-06
-5.34543e-06
-5.36404e-06
-5.36293e-06
-5.36814e-06
-5.3575e-06
-5.35597e-06
-5.3406e-06
-5.33579e-06
-5.31818e-06
-5.31186e-06
-5.29326e-06
-5.28632e-06
-5.26736e-06
-5.26023e-06
-5.2412e-06
-5.2341e-06
-5.21515e-06
-5.20817e-06
-5.18937e-06
-5.18255e-06
-5.16392e-06
-5.15728e-06
-5.13883e-06
-5.13238e-06
-5.11412e-06
-5.10785e-06
-5.08977e-06
-5.08369e-06
-5.06579e-06
-5.05988e-06
-5.04216e-06
-5.03643e-06
-5.01889e-06
-5.01333e-06
-4.99595e-06
-4.99056e-06
-4.97335e-06
-4.96813e-06
-4.95108e-06
-4.94602e-06
-4.92914e-06
-4.92423e-06
-4.9075e-06
-4.90276e-06
-4.88618e-06
-4.88158e-06
-4.86516e-06
-4.86071e-06
-4.84444e-06
-4.84014e-06
-4.82401e-06
-4.81986e-06
-4.80387e-06
-4.79986e-06
-4.78402e-06
-4.78015e-06
-4.76445e-06
-4.76073e-06
-4.74518e-06
-4.7416e-06
-4.7262e-06
-4.72278e-06
-4.70753e-06
-4.70428e-06
-4.68921e-06
-4.68613e-06
-4.67124e-06
-4.66834e-06
-4.65363e-06
-4.65087e-06
-4.63623e-06
-4.63342e-06
-4.61847e-06
-4.61485e-06
-4.59813e-06
-4.59095e-06
-4.5689e-06
-4.56318e-06
-4.56318e-06
-4.56318e-06
1
0.518017
0.330365
0.272189
0.254046
0.249034
0.247889
0.2478
0.24803
0.248382
0.248793
0.249233
0.249689
0.250152
0.250619
0.251088
0.25156
0.252033
0.252509
0.252987
0.253468
0.253951
0.254437
0.254926
0.255419
0.255915
0.256413
0.256916
0.257422
0.257931
0.258443
0.25896
0.25948
0.260003
0.26053
0.261061
0.261596
0.262134
0.262676
0.263223
0.263773
0.264327
0.264885
0.265447
0.266013
0.266584
0.267158
0.267737
0.268321
0.268908
0.2695
0.270097
0.270698
0.271303
0.271913
0.272528
0.273148
0.273772
0.274402
0.275036
0.275675
0.27632
0.276969
0.277624
0.278284
0.278949
0.27962
0.280296
0.280978
0.281666
0.282359
0.283058
0.283763
0.284474
0.285191
0.285914
0.286643
0.287379
0.288121
0.28887
0.289625
0.290387
0.291156
0.291931
0.292714
0.293504
0.294301
0.295105
0.295917
0.296737
0.297564
0.298399
0.299242
0.300093
0.300952
0.30182
0.302696
0.303581
0.304474
0.305377
0.306288
0.307209
0.308138
0.309078
0.310027
0.310986
0.311955
0.312934
0.313924
0.314924
0.315934
0.316956
0.317989
0.319033
0.320089
0.321156
0.322235
0.323327
0.324431
0.325548
0.326677
0.32782
0.328976
0.330146
0.331329
0.332527
0.33374
0.334967
0.336209
0.337467
0.338741
0.34003
0.341337
0.34266
0.344
0.345357
0.346733
0.348127
0.34954
0.350972
0.352423
0.353895
0.355387
0.356901
0.358436
0.359993
0.361572
0.363175
0.364802
0.366453
0.368129
0.36983
0.371558
0.373313
0.375096
0.376907
0.378747
0.380618
0.382519
0.384453
0.386419
0.388418
0.390453
0.392523
0.39463
0.396774
0.398958
0.401182
0.403448
0.405756
0.408109
0.410508
0.412954
0.415449
0.417994
0.420592
0.423244
0.425952
0.428718
0.431544
0.434433
0.437387
0.440409
0.4435
0.446664
0.449904
0.453222
0.456622
0.460107
0.46368
0.467345
0.471105
0.474964
0.478925
0.482992
0.487168
0.491456
0.49586
0.500382
0.505025
0.509788
0.514674
0.519681
0.524807
0.53005
0.535403
0.540858
0.546406
0.552034
0.557723
0.563454
0.569203
0.574939
0.580629
0.586233
0.591706
0.596998
0.602053
0.606808
0.611196
0.615145
0.618577
0.621413
0.623568
0.624957
0.625494
0.625094
0.623676
0.621162
0.61748
0.612568
0.606374
0.598857
0.58999
0.579761
0.568175
0.555254
0.541039
0.525585
0.508968
0.49128
0.472626
0.453128
0.432915
0.412129
0.390916
0.369428
0.347814
0.326225
0.304805
0.283691
0.263013
0.242888
0.223419
0.204699
0.186803
0.169794
0.153719
0.13861
0.124488
0.111357
0.0992138
0.0880412
0.0778146
0.0685011
0.0600614
0.0524513
0.0456226
0.0395246
0.0341051
0.0293114
0.0250909
0.0213926
0.0181665
0.0153655
0.0129444
0.0108612
0.00907681
0.0075552
0.0062634
0.00517159
0.00425283
0.00348311
0.00284105
0.00230783
0.00186688
0.00150384
0.00120621
0.000963273
0.000765797
0.00060599
0.000477186
0.00037384
0.000291242
0.000225535
0.000173455
0.000132379
0.000100089
7.48417e-05
5.51553e-05
3.98984e-05
2.80959e-05
1.9033e-05
1.20755e-05
6.7859e-06
2.75418e-06
-2.76758e-07
-2.57225e-06
-4.27433e-06
-5.55713e-06
-6.49077e-06
-7.19295e-06
-7.68978e-06
-8.06474e-06
-8.31749e-06
-8.51119e-06
-8.62991e-06
-8.72494e-06
-8.77135e-06
-8.81364e-06
-8.82177e-06
-8.83642e-06
-8.8247e-06
-8.82518e-06
-8.80342e-06
-8.79685e-06
-8.77019e-06
-8.76027e-06
-8.73135e-06
-8.71994e-06
-8.69009e-06
-8.67814e-06
-8.64802e-06
-8.63599e-06
-8.60592e-06
-8.59403e-06
-8.56415e-06
-8.55249e-06
-8.52288e-06
-8.5115e-06
-8.48218e-06
-8.47109e-06
-8.44206e-06
-8.43127e-06
-8.40253e-06
-8.39204e-06
-8.36359e-06
-8.35338e-06
-8.32523e-06
-8.3153e-06
-8.28742e-06
-8.27777e-06
-8.25016e-06
-8.24078e-06
-8.21345e-06
-8.20433e-06
-8.17725e-06
-8.16839e-06
-8.14157e-06
-8.13297e-06
-8.1064e-06
-8.09804e-06
-8.07171e-06
-8.0636e-06
-8.03751e-06
-8.02964e-06
-8.00379e-06
-7.99615e-06
-7.97053e-06
-7.96312e-06
-7.93773e-06
-7.93054e-06
-7.90538e-06
-7.89841e-06
-7.87347e-06
-7.86674e-06
-7.84202e-06
-7.83551e-06
-7.81102e-06
-7.80474e-06
-7.78049e-06
-7.77446e-06
-7.75046e-06
-7.74468e-06
-7.72095e-06
-7.71546e-06
-7.69202e-06
-7.68682e-06
-7.66365e-06
-7.65867e-06
-7.63562e-06
-7.63054e-06
-7.60698e-06
-7.60059e-06
-7.5742e-06
-7.5622e-06
-7.52766e-06
-7.51861e-06
-7.51861e-06
-7.51861e-06
1
0.659702
0.450769
0.375596
0.350883
0.343631
0.341747
0.341431
0.341631
0.342043
0.342557
0.343125
0.343721
0.344331
0.344949
0.345572
0.346199
0.346828
0.347461
0.348097
0.348736
0.349379
0.350026
0.350677
0.351332
0.351991
0.352654
0.353321
0.353993
0.354669
0.35535
0.356035
0.356725
0.35742
0.358119
0.358823
0.359532
0.360246
0.360965
0.361688
0.362417
0.363151
0.36389
0.364634
0.365383
0.366138
0.366898
0.367663
0.368434
0.369211
0.369993
0.370781
0.371574
0.372374
0.373179
0.37399
0.374807
0.375631
0.37646
0.377296
0.378138
0.378987
0.379842
0.380703
0.381572
0.382447
0.383329
0.384217
0.385113
0.386016
0.386926
0.387844
0.388769
0.389701
0.390641
0.391589
0.392544
0.393508
0.394479
0.395459
0.396447
0.397443
0.398448
0.399461
0.400484
0.401515
0.402555
0.403604
0.404662
0.40573
0.406808
0.407895
0.408992
0.410099
0.411216
0.412343
0.413481
0.414629
0.415789
0.416959
0.41814
0.419333
0.420537
0.421752
0.42298
0.424219
0.425471
0.426735
0.428012
0.429302
0.430604
0.43192
0.43325
0.434593
0.43595
0.437321
0.438707
0.440108
0.441523
0.442954
0.4444
0.445862
0.44734
0.448834
0.450345
0.451873
0.453418
0.454981
0.456562
0.458162
0.459779
0.461416
0.463073
0.464749
0.466445
0.468162
0.4699
0.47166
0.473441
0.475244
0.477071
0.478921
0.480794
0.482692
0.484615
0.486563
0.488537
0.490538
0.492566
0.494621
0.496705
0.498818
0.50096
0.503133
0.505337
0.507573
0.509842
0.512144
0.51448
0.516852
0.519259
0.521704
0.524186
0.526707
0.529268
0.53187
0.534513
0.5372
0.539931
0.542708
0.545531
0.548402
0.551322
0.554293
0.557316
0.560392
0.563524
0.566712
0.569958
0.573264
0.576631
0.580062
0.583558
0.58712
0.590752
0.594454
0.598228
0.602077
0.606002
0.610005
0.614087
0.618251
0.622497
0.626827
0.631241
0.63574
0.640324
0.644992
0.649742
0.654573
0.65948
0.664459
0.669504
0.674606
0.679755
0.68494
0.690143
0.695348
0.700533
0.705672
0.710737
0.715693
0.720503
0.725124
0.729507
0.7336
0.737345
0.740677
0.74353
0.74583
0.747503
0.748468
0.748645
0.74795
0.746303
0.743621
0.739827
0.734849
0.72862
0.721083
0.71219
0.701906
0.690208
0.67709
0.66256
0.646646
0.629392
0.610858
0.591125
0.570288
0.548458
0.525762
0.502336
0.478328
0.453892
0.429187
0.404372
0.379606
0.355044
0.330834
0.307115
0.284014
0.261646
0.240113
0.2195
0.199878
0.1813
0.163807
0.147422
0.132155
0.118004
0.104954
0.0929798
0.0820474
0.0721151
0.0631355
0.0550561
0.0478213
0.0413734
0.0356536
0.0306034
0.0261647
0.0222815
0.0188995
0.0159674
0.0134368
0.0112623
0.00940215
0.00781795
0.00647466
0.00534065
0.00438746
0.00358976
0.00292505
0.00237357
0.00191796
0.00154321
0.00123625
0.000985912
0.000782591
0.00061819
0.000485783
0.000379632
0.00029485
0.000227457
0.000174075
0.000132004
9.89517e-05
7.31288e-05
5.30033e-05
3.74203e-05
2.53702e-05
1.61276e-05
9.03373e-06
3.64871e-06
-4.55795e-07
-3.5343e-06
-5.86681e-06
-7.58981e-06
-8.88986e-06
-9.82983e-06
-1.05385e-05
-1.10338e-05
-1.14096e-05
-1.16567e-05
-1.18483e-05
-1.19593e-05
-1.20507e-05
-1.20883e-05
-1.21262e-05
-1.21251e-05
-1.21351e-05
-1.21139e-05
-1.21097e-05
-1.20784e-05
-1.20671e-05
-1.2031e-05
-1.20164e-05
-1.1978e-05
-1.1962e-05
-1.19229e-05
-1.19064e-05
-1.1867e-05
-1.18505e-05
-1.18113e-05
-1.17951e-05
-1.17562e-05
-1.17402e-05
-1.17017e-05
-1.16861e-05
-1.16479e-05
-1.16327e-05