# vtk DataFile Version 2.0
FlowField
ASCII
DATASET STRUCTURED_GRID
DIMENSIONS 400 1 200
POINTS 80000 float
0 0 0
0.08 0 0
0.16 0 0
0.24 0 0
0.32 0 0
0.4 0 0
0.48 0 0
0.56 0 0
0.64 0 0
0.72 0 0
0.8 0 0
0.88 0 0
0.96 0 0
1.04 0 0
1.12 0 0
1.2 0 0
1.28 0 0
1.36 0 0
1.44 0 0
1.52 0 0
1.6 0 0
1.68 0 0
1.76 0 0
1.84 0 0
1.92 0 0
2 0 0
2.08 0 0
2.16 0 0
2.24 0 0
2.32 0 0
2.4 0 0
2.48 0 0
2.56 0 0
2.64 0 0
2.72 0 0
2.8 0 0
2.88 0 0
2.96 0 0
3.04 0 0
3.12 0 0
3.2 0 0
3.28 0 0
3.36 0 0
3.44 0 0
3.52 0 0
3.6 0 0
3.68 0 0
3.76 0 0
3.84 0 0
3.92 0 0
4 0 0
4.08 0 0
4.16 0 0
4.24 0 0
4.32 0 0
4.4 0 0
4.48 0 0
4.56 0 0
4.64 0 0
4.72 0 0
4.8 0 0
4.88 0 0
4.96 0 0
5.04 0 0
5.12 0 0
5.2 0 0
5.28 0 0
5.36 0 0
5.44 0 0
5.52 0 0
5.6 0 0
5.68 0 0
5.76 0 0
5.84 0 0
5.92 0 0
6 0 0
6.08 0 0
6.16 0 0
6.24 0 0
6.32 0 0
6.4 0 0
6.48 0 0
6.56 0 0
6.64 0 0
6.72 0 0
6.8 0 0
6.88 0 0
6.96 0 0
7.04 0 0
7.12 0 0
7.2 0 0
7.28 0 0
7.36 0 0
7.44 0 0
7.52 0 0
7.6 0 0
7.68 0 0
7.76 0 0
7.84 0 0
7.92 0 0
8 0 0
8.08 0 0
8.16 0 0
8.24 0 0
8.32 0 0
8.4 0 0
8.48 0 0
8.56 0 0
8.64 0 0
8.72 0 0
8.8 0 0
8.88 0 0
8.96 0 0
9.04 0 0
9.12 0 0
9.2 0 0
9.28 0 0
9.36 0 0
9.44 0 0
9.52 0 0
9.6 0 0
9.68 0 0
9.76 0 0
9.84 0 0
9.92 0 0
10 0 0
10.08 0 0
10.16 0 0
10.24 0 0
10.32 0 0
10.4 0 0
10.48 0 0
10.56 0 0
10.64 0 0
10.72 0 0
10.8 0 0
10.88 0 0
10.96 0 0
11.04 0 0
11.12 0 0
11.2 0 0
11.28 0 0
11.36 0 0
11.44 0 0
11.52 0 0
11.6 0 0
11.68 0 0
11.76 0 0
11.84 0 0
11.92 0 0
12 0 0
12.08 0 0
12.16 0 0
12.24 0 0
12.32 0 0
12.4 0 0
12.48 0 0
12.56 0 0
12.64 0 0
12.72 0 0
12.8 0 0
12.88 0 0
12.96 0 0
13.04 0 0
13.12 0 0
13.2 0 0
13.28 0 0
13.36 0 0
13.44 0 0
13.52 0 0
13.6 0 0
13.68 0 0
13.76 0 0
13.84 0 0
13.92 0 0
14 0 0
14.08 0 0
14.16 0 0
14.24 0 0
14.32 0 0
14.4 0 0
14.48 0 0
14.56 0 0
14.64 0 0
14.72 0 0
14.8 0 0
14.88 0 0
14.96 0 0
15.04 0 0
15.12 0 0
15.2 0 0
15.28 0 0
15.36 0 0
15.44 0 0
15.52 0 0
15.6 0 0
15.68 0 0
15.76 0 0
15.84 0 0
15.92 0 0
16 0 0
16.08 0 0
16.16 0 0
16.24 0 0
16.32 0 0
16.4 0 0
16.48 0 0
16.56 0 0
16.64 0 0
16.72 0 0
16.8 0 0
16.88 0 0
16.96 0 0
17.04 0 0
17.12 0 0
17.2 0 0
17.28 0 0
17.36 0 0
17.44 0 0
17.52 0 0
17.6 0 0
17.68 0 0
17.76 0 0
17.84 0 0
17.92 0 0
18 0 0
18.08 0 0
18.16 0 0
18.24 0 0
18.32 0 0
18.4 0 0
18.48 0 0
18.56 0 0
18.64 0 0
18.72 0 0
18.8 0 0
18.88 0 0
18.96 0 0
19.04 0 0
19.12 0 0
19.2 0 0
19.28 0 0
19.36 0 0
19.44 0 0
19.52 0 0
19.6 0 0
19.68 0 0
19.76 0 0
19.84 0 0
19.92 0 0
20 0 0
20.08 0 0
20.16 0 0
20.24 0 0
20.32 0 0
20.4 0 0
20.48 0 0
20.56 0 0
20.64 0 0
20.72 0 0
20.8 0 0
20.88 0 0
20.96 0 0
21.04 0 0
21.12 0 0
21.2 0 0
21.28 0 0
21.36 0 0
21.44 0 0
21.52 0 0
21.6 0 0
21.68 0 0
21.76 0 0
21.84 0 0
21.92 0 0
22 0 0
22.08 0 0
22.16 0 0
22.24 0 0
22.32 0 0
22.4 0 0
22.48 0 0
22.56 0 0
22.64 0 0
22.72 0 0
22.8 0 0
22.88 0 0
22.96 0 0
23.04 0 0
23.12 0 0
23.2 0 0
23.28 0 0
23.36 0 0
23.44 0 0
23.52 0 0
23.6 0 0
23.68 0 0
23.76 0 0
23.84 0 0
23.92 0 0
24 0 0
24.08 0 0
24.16 0 0
24.24 0 0
24.32 0 0
24.4 0 0
24.48 0 0
24.56 0 0
24.64 0 0
24.72 0 0
24.8 0 0
24.88 0 0
24.96 0 0
25.04 0 0
25.12 0 0
25.2 0 0
25.28 0 0
25.36 0 0
25.44 0 0
25.52 0 0
25.6 0 0
25.68 0 0
25.76 0 0
25.84 0 0
25.92 0 0
26 0 0
26.08 0 0
26.16 0 0
26.24 0 0
26.32 0 0
26.4 0 0
26.48 0 0
26.56 0 0
26.64 0 0
26.72 0 0
26.8 0 0
26.88 0 0
26.96 0 0
27.04 0 0
27.12 0 0
27.2 0 0
27.28 0 0
27.36 0 0
27.44 0 0
27.52 0 0
27.6 0 0
27.68 0 0
27.76 0 0
27.84 0 0
27.92 0 0
28 0 0
28.08 0 0
28.16 0 0
28.24 0 0
28.32 0 0
28.4 0 0
28.48 0 0
28.56 0 0
28.64 0 0
28.72 0 0
28.8 0 0
28.88 0 0
28.96 0 0
29.04 0 0
29.12 0 0
29.2 0 0
29.28 0 0
29.36 0 0
29.44 0 0
29.52 0 0
29.6 0 0
29.68 0 0
29.76 0 0
29.84 0 0
29.92 0 0
30 0 0
30.08 0 0
30.16 0 0
30.24 0 0
30.32 0 0
30.4 0 0
30.48 0 0
30.56 0 0
30.64 0 0
30.72 0 0
30.8 0 0
30.88 0 0
30.96 0 0
31.04 0 0
31.12 0 0
31.2 0 0
31.28 0 0
31.36 0 0
31.44 0 0
31.52 0 0
31.6 0 0
31.68 0 0
31.76 0 0
31.84 0 0
31.92 0 0
0 0.005 0
0.08 0.005 0
0.16 0.005 0
0.24 0.005 0
0.32 0.005 0
0.4 0.005 0
0.48 0.005 0
0.56 0.005 0
0.64 0.005 0
0.72 0.005 0
0.8 0.005 0
0.88 0.005 0
0.96 0.005 0
1.04 0.005 0
1.12 0.005 0
1.2 0.005 0
1.28 0.005 0
1.36 0.005 0
1.44 0.005 0
1.52 0.005 0
1.6 0.005 0
1.68 0.005 0
1.76 0.005 0
1.84 0.005 0
1.92 0.005 0
2 0.005 0
2.08 0.005 0
2.16 0.005 0
2.24 0.005 0
2.32 0.005 0
2.4 0.005 0
2.48 0.005 0
2.56 0.005 0
2.64 0.005 0
2.72 0.005 0
2.8 0.005 0
2.88 0.005 0
2.96 0.005 0
3.04 0.005 0
3.12 0.005 0
3.2 0.005 0
3.28 0.005 0
3.36 0.005 0
3.44 0.005 0
3.52 0.005 0
3.6 0.005 0
3.68 0.005 0
3.76 0.005 0
3.84 0.005 0
3.92 0.005 0
4 0.005 0
4.08 0.005 0
4.16 0.005 0
4.24 0.005 0
4.32 0.005 0
4.4 0.005 0
4.48 0.005 0
4.56 0.005 0
4.64 0.005 0
4.72 0.005 0
4.8 0.005 0
4.88 0.005 0
4.96 0.005 0
5.04 0.005 0
5.12 0.005 0
5.2 0.005 0
5.28 0.005 0
5.36 0.005 0
5.44 0.005 0
5.52 0.005 0
5.6 0.005 0
5.68 0.005 0
5.76 0.005 0
5.84 0.005 0
5.92 0.005 0
6 0.005 0
6.08 0.005 0
6.16 0.005 0
6.24 0.005 0
6.32 0.005 0
6.4 0.005 0
6.48 0.005 0
6.56 0.005 0
6.64 0.005 0
6.72 0.005 0
6.8 0.005 0
6.88 0.005 0
6.96 0.005 0
7.04 0.005 0
7.12 0.005 0
7.2 0.005 0
7.28 0.005 0
7.36 0.005 0
7.44 0.005 0
7.52 0.005 0
7.6 0.005 0
7.68 0.005 0
7.76 0.005 0
7.84 0.005 0
7.92 0.005 0
8 0.005 0
8.08 0.005 0
8.16 0.005 0
8.24 0.005 0
8.32 0.005 0
8.4 0.005 0
8.48 0.005 0
8.56 0.005 0
8.64 0.005 0
8.72 0.005 0
8.8 0.005 0
8.88 0.005 0
8.96 0.005 0
9.04 0.005 0
9.12 0.005 0
9.2 0.005 0
9.28 0.005 0
9.36 0.005 0
9.44 0.005 0
9.52 0.005 0
9.6 0.005 0
9.68 0.005 0
9.76 0.005 0
9.84 0.005 0
9.92 0.005 0
10 0.005 0
10.08 0.005 0
10.16 0.005 0
10.24 0.005 0
10.32 0.005 0
10.4 0.005 0
10.48 0.005 0
10.56 0.005 0
10.64 0.005 0
10.72 0.005 0
10.8 0.005 0
10.88 0.005 0
10.96 0.005 0
11.04 0.005 0
11.12 0.005 0
11.2 0.005 0
11.28 0.005 0
11.36 0.005 0
11.44 0.005 0
11.52 0.005 0
11.6 0.005 0
11.68 0.005 0
11.76 0.005 0
11.84 0.005 0
11.92 0.005 0
12 0.005 0
12.08 0.005 0
12.16 0.005 0
12.24 0.005 0
12.32 0.005 0
12.4 0.005 0
12.48 0.005 0
12.56 0.005 0
12.64 0.005 0
12.72 0.005 0
12.8 0.005 0
12.88 0.005 0
12.96 0.005 0
13.04 0.005 0
13.12 0.005 0
13.2 0.005 0
13.28 0.005 0
13.36 0.005 0
13.44 0.005 0
13.52 0.005 0
13.6 0.005 0
13.68 0.005 0
13.76 0.005 0
13.84 0.005 0
13.92 0.005 0
14 0.005 0
14.08 0.005 0
14.16 0.005 0
14.24 0.005 0
14.32 0.005 0
14.4 0.005 0
14.48 0.005 0
14.56 0.005 0
14.64 0.005 0
14.72 0.005 0
14.8 0.005 0
14.88 0.005 0
14.96 0.005 0
15.04 0.005 0
15.12 0.005 0
15.2 0.005 0
15.28 0.005 0
15.36 0.005 0
15.44 0.005 0
15.52 0.005 0
15.6 0.005 0
15.68 0.005 0
15.76 0.005 0
15.84 0.005 0
15.92 0.005 0
16 0.005 0
16.08 0.005 0
16.16 0.005 0
16.24 0.005 0
16.32 0.005 0
16.4 0.005 0
16.48 0.005 0
16.56 0.005 0
16.64 0.005 0
16.72 0.005 0
16.8 0.005 0
16.88 0.005 0
16.96 0.005 0
17.04 0.005 0
17.12 0.005 0
17.2 0.005 0
17.28 0.005 0
17.36 0.005 0
17.44 0.005 0
17.52 0.005 0
17.6 0.005 0
17.68 0.005 0
17.76 0.005 0
17.84 0.005 0
17.92 0.005 0
18 0.005 0
18.08 0.005 0
18.16 0.005 0
18.24 0.005 0
18.32 0.005 0
18.4 0.005 0
18.48 0.005 0
18.56 0.005 0
18.64 0.005 0
18.72 0.005 0
18.8 0.005 0
18.88 0.005 0
18.96 0.005 0
19.04 0.005 0
19.12 0.005 0
19.2 0.005 0
19.28 0.005 0
19.36 0.005 0
19.44 0.005 0
19.52 0.005 0
19.6 0.005 0
19.68 0.005 0
19.76 0.005 0
19.84 0.005 0
19.92 0.005 0
20 0.005 0
20.08 0.005 0
20.16 0.005 0
20.24 0.005 0
20.32 0.005 0
20.4 0.005 0
20.48 0.005 0
20.56 0.005 0
20.64 0.005 0
20.72 0.005 0
20.8 0.005 0
20.88 0.005 0
20.96 0.005 0
21.04 0.005 0
21.12 0.005 0
21.2 0.005 0
21.28 0.005 0
21.36 0.005 0
21.44 0.005 0
21.52 0.005 0
21.6 0.005 0
21.68 0.005 0
21.76 0.005 0
21.84 0.005 0
21.92 0.005 0
22 0.005 0
22.08 0.005 0
22.16 0.005 0
22.24 0.005 0
22.32 0.005 0
22.4 0.005 0
22.48 0.005 0
22.56 0.005 0
22.64 0.005 0
22.72 0.005 0
22.8 0.005 0
22.88 0.005 0
22.96 0.005 0
23.04 0.005 0
23.12 0.005 0
23.2 0.005 0
23.28 0.005 0
23.36 0.005 0
23.44 0.005 0
23.52 0.005 0
23.6 0.005 0
23.68 0.005 0
23.76 0.005 0
23.84 0.005 0
23.92 0.005 0
24 0.005 0
24.08 0.005 0
24.16 0.005 0
24.24 0.005 0
24.32 0.005 0
24.4 0.005 0
24.48 0.005 0
24.56 0.005 0
24.64 0.005 0
24.72 0.005 0
24.8 0.005 0
24.88 0.005 0
24.96 0.005 0
25.04 0.005 0
25.12 0.005 0
25.2 0.005 0
25.28 0.005 0
25.36 0.005 0
25.44 0.005 0
25.52 0.005 0
25.6 0.005 0
25.68 0.005 0
25.76 0.005 0
25.84 0.005 0
25.92 0.005 0
26 0.005 0
26.08 0.005 0
26.16 0.005 0
26.24 0.005 0
26.32 0.005 0
26.4 0.005 0
26.48 0.005 0
26.56 0.005 0
26.64 0.005 0
26.72 0.005 0
26.8 0.005 0
26.88 0.005 0
26.96 0.005 0
27.04 0.005 0
27.12 0.005 0
27.2 0.005 0
27.28 0.005 0
27.36 0.005 0
27.44 0.005 0
27.52 0.005 0
27.6 0.005 0
27.68 0.005 0
27.76 0.005 0
27.84 0.005 0
27.92 0.005 0
28 0.005 0
28.08 0.005 0
28.16 0.005 0
28.24 0.005 0
28.32 0.005 0
28.4 0.005 0
28.48 0.005 0
28.56 0.005 0
28.64 0.005 0
28.72 0.005 0
28.8 0.005 0
28.88 0.005 0
28.96 0.005 0
29.04 0.005 0
29.12 0.005 0
29.2 0.005 0
29.28 0.005 0
29.36 0.005 0
29.44 0.005 0
29.52 0.005 0
29.6 0.005 0
29.68 0.005 0
29.76 0.005 0
29.84 0.005 0
29.92 0.005 0
30 0.005 0
30.08 0.005 0
30.16 0.005 0
30.24 0.005 0
30.32 0.005 0
30.4 0.005 0
30.48 0.005 0
30.56 0.005 0
30.64 0.005 0
30.72 0.005 0
30.8 0.005 0
30.88 0.005 0
30.96 0.005 0
31.04 0.005 0
31.12 0.005 0
31.2 0.005 0
31.28 0.005 0
31.36 0.005 0
31.44 0.005 0
31.52 0.005 0
31.6 0.005 0
31.68 0.005 0
31.76 0.005 0
31.84 0.005 0
31.92 0.005 0
0 0.01 0
0.08 0.01 0
0.16 0.01 0
0.24 0.01 0
0.32 0.01 0
0.4 0.01 0
0.48 0.01 0
0.56 0.01 0
0.64 0.01 0
0.72 0.01 0
0.8 0.01 0
0.88 0.01 0
0.96 0.01 0
1.04 0.01 0
1.12 0.01 0
1.2 0.01 0
1.28 0.01 0
1.36 0.01 0
1.44 0.01 0
1.52 0.01 0
1.6 0.01 0
1.68 0.01 0
1.76 0.01 0
1.84 0.01 0
1.92 0.01 0
2 0.01 0
2.08 0.01 0
2.16 0.01 0
2.24 0.01 0
2.32 0.01 0
2.4 0.01 0
2.48 0.01 0
2.56 0.01 0
2.64 0.01 0
2.72 0.01 0
2.8 0.01 0
2.88 0.01 0
2.96 0.01 0
3.04 0.01 0
3.12 0.01 0
3.2 0.01 0
3.28 0.01 0
3.36 0.01 0
3.44 0.01 0
3.52 0.01 0
3.6 0.01 0
3.68 0.01 0
3.76 0.01 0
3.84 0.01 0
3.92 0.01 0
4 0.01 0
4.08 0.01 0
4.16 0.01 0
4.24 0.01 0
4.32 0.01 0
4.4 0.01 0
4.48 0.01 0
4.56 0.01 0
4.64 0.01 0
4.72 0.01 0
4.8 0.01 0
4.88 0.01 0
4.96 0.01 0
5.04 0.01 0
5.12 0.01 0
[...]
POINT_DATA 80000

SCALARS p float 1
LOOKUP_TABLE default
1
67.0309
66.7458
66.7191
66.7014
66.6826
66.6632
66.6437
66.624
66.6041
66.5839
66.5634
66.5427
66.5217
66.5005
66.479
66.4573
66.4355
66.4135
66.3914
66.3693
66.3471
66.325
66.3029
66.2809
66.2591
66.2374
66.216
66.1948
66.1738
66.1531
66.1326
66.1123
66.0922
66.0721
66.0521
66.0319
66.0115
65.9907
65.9692
65.947
65.9237
65.8991
65.8731
65.8453
65.8155
65.7835
65.7492
65.7123
65.6727
65.6303
65.5849
65.5365
65.4846
65.4289
65.3687
65.3027
65.2293
65.146
65.0489
64.9332
64.792
64.6166
64.3959
64.1162
63.7612
63.3121
62.7475
62.0444
61.1788
60.1268
58.8661
57.3775
55.6466
53.6656
51.4346
48.9627
46.2687
43.3808
40.3362
37.179
33.959
30.7284
27.5397
24.4428
21.4827
18.6977
16.1177
13.764
11.6487
9.77563
8.14093
6.73452
5.5414
4.54314
3.71921
3.04824
2.50901
2.08129
1.74636
1.48742
1.28974
1.1407
1.0297
0.948051
0.888706
0.84609
0.815848
0.794639
0.779938
0.769864
0.763041
0.758471
0.755445
0.753464
0.752181
0.751359
0.750838
0.750512
0.750309
0.750185
0.75011
0.750064
0.750037
0.750021
0.750012
0.750007
0.750004
0.750002
0.750001
0.750001
0.75
0.75
0.75
0.75
0.75
0.75
0.75
0.75
0.75
0.75
0.75
0.75
0.75
0.75
0.75
0.75
0.75
0.75
0.75
0.75
0.75
0.75
0.75
0.75
0.75
0.75
0.75
0.75
0.75
0.75
0.75
0.75
0.75
0.75
0.75
0.75
0.75
0.75
0.75
0.75
0.75
0.75
0.75
0.75
0.75
0.75
0.75
0.75
0.75
0.75
0.75
0.75
0.75
0.75
0.75
0.75
0.75
0.75
0.75
0.75
0.75
0.75
0.75
0.75
0.75
0.75
0.75
0.75
0.75
0.75
0.75
0.75
0.75
0.75
0.75
0.75
0.75
0.75
0.75
0.75
0.75
0.75
0.75
0.75
0.75
0.75
0.75
0.75
0.75
0.75
0.75
0.75
0.75
0.75
0.75
0.75
0.75
0.75
0.75
0.75
0.75
0.75
0.75
0.75
0.75
0.75
0.75
0.75
0.75
0.75
0.75
0.75
0.75
0.75
0.75
0.75
0.75
0.75
0.75
0.75
0.75
0.75
0.75
0.75
0.75
0.75
0.75
0.75
0.75
0.75
0.75
0.75
0.75
0.75
0.75
0.75
0.75
0.75
0.75
0.75
0.75
0.75
0.75
0.75
0.75
0.75
0.75
0.75
0.75
0.75
0.75
0.75
0.75
0.75
0.75
0.75
0.75
0.75
0.750001
0.750001
0.750001
0.750002
0.750003
0.750004
0.750006
0.750009
0.750012
0.750017
0.750023
0.750032
0.750043
0.750057
0.750075
0.750097
0.750124
0.750157
0.750196
0.750243
0.750297
0.750358
0.750427
0.750504
0.750588
0.750678
0.750773
0.750872
0.750974
0.751076
0.751178
0.751278
0.751374
0.751464
0.751548
0.751625
0.751694
0.751755
0.751808
0.751854
0.751892
0.751923
0.751949
0.751969
0.751986
0.751999
0.752009
0.752017
0.752023
0.752028
0.752033
0.752037
0.752041
0.752044
0.752048
0.752051
0.752054
0.752057
0.75206
0.752063
0.752065
0.752067
0.752068
0.752069
0.752069
0.75207
0.752069
0.752068
0.752067
0.752066
0.752064
0.752062
0.75206
0.752057
0.752055
0.752053
0.75205
0.752048
0.752046
0.752044
0.752043
0.752041
0.75204
0.752039
0.752038
0.752037
0.752037
0.752036
0.752036
0.752036
0.752036
0.752036
0.752037
0.752037
0.752038
0.752039
0.752039
0.75204
0.752041
0.752041
0.752042
0.752043
0.752043
0.752044
0.752044
0.752045
0.752045
0.752045
0.752045
0.752045
0.5
67.0309
67.0309
66.7458
66.7191
66.7014
66.6826
66.6632
66.6437
66.624
66.6041
66.5839
66.5634
66.5427
66.5217
66.5005
66.479
66.4573
66.4355
66.4135
66.3914
66.3693
66.3471
66.325
66.3029
66.2809
66.2591
66.2374
66.216
66.1948
66.1738
66.1531
66.1326
66.1123
66.0922
66.0721
66.0521
66.0319
66.0115
65.9907
65.9692
65.947
65.9237
65.8991
65.8731
65.8453
65.8155
65.7835
65.7492
65.7123
65.6727
65.6303
65.5849
65.5365
65.4846
65.4289
65.3687
65.3027
65.2293
65.146
65.0489
64.9332
64.792
64.6166
64.3959
64.1162
63.7612
63.3121
62.7475
62.0444
61.1788
60.1268
58.8661
57.3775
55.6466
53.6656
51.4346
48.9627
46.2687
43.3808
40.3362
37.179
33.959
30.7284
27.5397
24.4428
21.4827
18.6977
16.1177
13.764
11.6487
9.77563
8.14093
6.73452
5.5414
4.54314
3.71921
3.04824
2.50901
2.08129
1.74636
1.48742
1.28974
1.1407
1.0297
0.948051
0.888706
0.84609
0.815848
0.794639
0.779938
0.769864
0.763041
0.758471
0.755445
0.753464
0.752181
0.751359
0.750838
0.750512
0.750309
0.750185
0.75011
0.750064
0.750037
0.750021
0.750012
0.750007
0.750004
0.750002
0.750001
0.750001
0.75
0.75
0.75
0.75
0.75
0.75
0.75
0.75
0.75
0.75
0.75
0.75
0.75
0.75
0.75
0.75
0.75
0.75
0.75
0.75
0.75
0.75
0.75
0.75
0.75
0.75
0.75
0.75
0.75
0.75
0.75
0.75
0.75
0.75
0.75
0.75
0.75
0.75
0.75
0.75
0.75
0.75
0.75
0.75
0.75
0.75
0.75
0.75
0.75
0.75
0.75
0.75
0.75
0.75
0.75
0.75
0.75
0.75
0.75
0.75
0.75
0.75
0.75
0.75
0.75
0.75
0.75
0.75
0.75
0.75
0.75
0.75
0.75
0.75
0.75
0.75
0.75
0.75
0.75
0.75
0.75
0.75
0.75
0.75
0.75
0.75
0.75
0.75
0.75
0.75
0.75
0.75
0.75
0.75
0.75
0.75
0.75
0.75
0.75
0.75
0.75
0.75
0.75
0.75
0.75
0.75
0.75
0.75
0.75
0.75
0.75
0.75
0.75
0.75
0.75
0.75
0.75
0.75
0.75
0.75
0.75
0.75
0.75
0.75
0.75
0.75
0.75
0.75
0.75
0.75
0.75
0.75
0.75
0.75
0.75
0.75
0.75
0.75
0.75
0.75
0.75
0.75
0.75
0.75
0.75
0.75
0.75
0.75
0.75
0.75
0.75
0.75
0.75
0.75
0.75
0.75
0.75
0.75
0.750001
0.750001
0.750001
0.750002
0.750003
0.750004
0.750006
0.750009
0.750012
0.750017
0.750023
0.750032
0.750043
0.750057
0.750075
0.750097
0.750124
0.750157
0.750196
0.750243
0.750297
0.750358
0.750427
0.750504
0.750588
0.750678
0.750773
0.750872
0.750974
0.751076
0.751178
0.751278
0.751374
0.751464
0.751548
0.751625
0.751694
0.751755
0.751808
0.751854
0.751892
0.751923
0.751949
0.751969
0.751986
0.751999
0.752009
0.752017
0.752023
0.752028
0.752033
0.752037
0.752041
0.752044
0.752048
0.752051
0.752054
0.752057
0.75206
0.752063
0.752065
0.752067
0.752068
0.752069
0.752069
0.75207
0.752069
0.752068
0.752067
0.752066
0.752064
0.752062
0.75206
0.752057
0.752055
0.752053
0.75205
0.752048
0.752046
0.752044
0.752043
0.752041
0.75204
0.752039
0.752038
0.752037
0.752037
0.752036
0.752036
0.752036
0.752036
0.752036
0.752037
0.752037
0.752038
0.752039
0.752039
0.75204
0.752041
0.752041
0.752042
0.752043
0.752043
0.752044
0.752044
0.752045
0.752045
0.752045
0.752045
0.752045
0.752045
67.0159
67.0159
66.7484
66.7195
66.7015
66.6827
66.6633
66.6438
66.6241
66.6041
66.5839
66.5635
66.5427
66.5217
66.5005
66.479
66.4573
66.4355
66.4135
66.3914
66.3693
66.3471
66.325
66.3029
66.2809
66.2591
66.2374
66.216
66.1947
66.1738
66.153
66.1325
66.1122
66.0921
66.072
66.052
66.0318
66.0114
65.9906
65.9691
65.9468
65.9235
65.899
65.8729
65.8451
65.8153
65.7833
65.749
65.7121
65.6725
65.6301
65.5847
65.5362
65.4844
65.4287
65.3684
65.3024
65.229
65.1456
65.0485
64.9327
64.7915
64.616
64.3952
64.1155
63.7605
63.3113
62.7467
62.0437
61.1782
60.1264
58.8659
57.3776
55.6472
53.6667
51.4363
48.965
46.2718
43.3846
40.3407
37.1843
33.9648
30.7347
27.5464
24.4497
21.4897
18.7046
16.1244
13.7704
11.6547
9.78107
8.14584
6.73887
5.5452
4.54641
3.72197
3.05054
2.5109
2.08282
1.74759
1.48839
1.29049
1.14127
1.03014
0.948377
0.888947
0.846265
0.815974
0.794729
0.780001
0.769908
0.763071
0.758492
0.755459
0.753473
0.752187
0.751363
0.75084
0.750513
0.75031
0.750186
0.75011
0.750064
0.750037
0.750022
0.750012
0.750007
0.750004
0.750002
0.750001
0.750001
0.75
0.75
0.75
0.75
0.75
0.75
0.75
0.75
0.75
0.75
0.75
0.75
0.75
0.75
0.75
0.75
0.75
0.75
0.75
0.75
0.75
0.75
0.75
0.75
0.75
0.75
0.75
0.75
0.75
0.75
0.75
0.75
0.75
0.75
0.75
0.75
0.75
0.75
0.75
0.75
0.75
0.75
0.75
0.75
0.75
0.75
0.75
0.75
0.75
0.75
0.75
0.75
0.75
0.75
0.75
0.75
0.75
0.75
0.75
0.75
0.75
0.75
0.75
0.75
0.75
0.75
0.75
0.75
0.75
0.75
0.75
0.75
0.75
0.75
0.75
0.75
0.75
0.75
0.75
0.75
0.75
0.75
0.75
0.75
0.75
0.75
0.75
0.75
0.75
0.75
0.75
0.75
0.75
0.75
0.75
0.75
0.75
0.75
0.75
0.75
0.75
0.75
0.75
0.75
0.75
0.75
0.75
0.75
0.75
0.75
0.75
0.75
0.75
0.75
0.75
0.75
0.75
0.75
0.75
0.75
0.75
0.75
0.75
0.75
0.75
0.75
0.75
0.75
0.75
0.75
0.75
0.75
0.75
0.75
0.75
0.75
0.75
0.75
0.75
0.75
0.75
0.75
0.75
0.75
0.75
0.75
0.75
0.75
0.75
0.75
0.75
0.75
0.75
0.75
0.75
0.75
0.75
0.75
0.750001
0.750001
0.750001
0.750002
0.750003
0.750004
0.750006
0.750009
0.750012
0.750017
0.750023
0.750032
0.750043
0.750057
0.750075
0.750097
0.750124
0.750157
0.750197
0.750243
0.750297
0.750358
0.750427
0.750504
0.750588
0.750678
0.750773
0.750872
0.750974
0.751077
0.751178
0.751278
0.751374
0.751464
0.751548
0.751625
0.751694
0.751755
0.751808
0.751854
0.751892
0.751923
0.751949
0.751969
0.751986
0.751999
0.752009
0.752017
0.752023
0.752028
0.752033
0.752037
0.752041
0.752044
0.752048
0.752051
0.752054
0.752057
0.75206
0.752063
0.752065
0.752067
0.752068
0.752069
0.752069
0.75207
0.752069
0.752068
0.752067
0.752066
0.752064
0.752062
0.75206
0.752057
0.752055
0.752053
0.75205
0.752048
0.752046
0.752044
0.752043
0.752041
0.75204
0.752039
0.752038
0.752037
0.752037
0.752036
0.752036
0.752036
0.752036
0.752037
0.752037
0.752037
0.752038
0.752039
0.752039
0.75204
0.752041
0.752041
0.752042
0.752043
0.752043
0.752044
0.752044
0.752045
0.752045
0.752045
0.752045
0.752045
0.752045
66.9997
66.9997
66.7506
66.7199
66.7017
66.6827
66.6633
66.6438
66.6241
66.6041
66.584
66.5635
66.5428
66.5218
66.5005
66.479
66.4574
66.4355
66.4136
66.3915
66.3693
66.3472
66.325
66.3029
66.2809
66.2591
66.2374
66.216
66.1947
66.1738
66.153
66.1325
66.1122
66.0921
66.072
66.0519
66.0317
66.0113
65.9904
65.969
65.9467
65.9234
65.8988
65.8727
65.8449
65.8151
65.7831
65.7487
65.7118
65.6722
65.6298
65.5844
65.536
65.4841
65.4283
65.3681
65.3021
65.2286
65.1451
65.048
64.9321
64.7907
64.6151
64.3942
64.1142
63.759
63.3096
62.7448
62.0416
61.1759
60.1239
58.8634
57.3751
55.6447
53.6644
51.4342
48.9633
46.2705
43.3839
40.3406
37.1847
33.9659
30.7363
27.5485
24.4522
21.4926
18.7077
16.1277
13.7737
11.6579
9.78419
8.14875
6.74154
5.5476
4.54852
3.72381
3.0521
2.51221
2.0839
1.74846
1.48909
1.29104
1.1417
1.03047
0.948624
0.889132
0.846401
0.816073
0.7948
0.780051
0.769943
0.763095
0.758508
0.75547
0.75348
0.752191
0.751366
0.750842
0.750514
0.750311
0.750186
0.75011
0.750065
0.750038
0.750022
0.750012
0.750007
0.750004
0.750002
0.750001
0.750001
0.75
0.75
0.75
0.75
0.75
0.75
0.75
0.75
0.75
0.75
0.75
0.75
0.75
0.75
0.75
0.75
0.75
0.75
0.75
0.75
0.75
0.75
0.75
0.75
0.75
0.75
0.75
0.75
0.75
0.75
0.75
0.75
0.75
0.75
0.75
0.75
0.75
0.75
0.75
0.75
0.75
0.75
0.75
0.75
0.75
0.75
0.75
0.75
0.75
0.75
0.75
0.75
0.75
0.75
0.75
0.75
0.75
0.75
0.75
0.75
0.75
0.75
0.75
0.75
0.75
0.75
0.75
0.75
0.75
0.75
0.75
0.75
0.75
0.75
0.75
0.75
0.75
0.75
0.75
0.75
0.75
0.75
0.75
0.75
0.75
0.75
0.75
0.75
0.75
0.75
0.75
0.75
0.75
0.75
0.75
0.75
0.75
0.75
0.75
0.75
0.75
0.75
0.75
0.75
0.75
0.75
0.75
0.75
0.75
0.75
0.75
0.75
0.75
0.75
0.75
0.75
0.75
0.75
0.75
0.75
0.75
0.75
0.75
0.75
0.75
0.75
0.75
0.75
0.75
0.75
0.75
0.75
0.75
0.75
0.75
0.75
0.75
0.75
0.75
0.75
0.75
0.75
0.75
0.75
0.75
0.75
0.75
0.75
0.75
0.75
0.75
0.75
0.75
0.75
0.75
0.75
0.75
0.75
0.750001
0.750001
0.750001
0.750002
0.750003
0.750004
0.750006
0.750009
0.750012
0.750017
0.750023
0.750032
0.750043
0.750057
0.750075
0.750097
0.750124
0.750157
0.750197
0.750243
0.750297
0.750358
0.750428
0.750504
0.750588
0.750678
0.750773
0.750872
0.750974
0.751077
0.751178
0.751278
0.751374
0.751464
0.751548
0.751625
0.751694
0.751755
0.751808
0.751854
0.751892
0.751923
0.751949
0.751969
0.751986
0.751999
0.752009
0.752017
0.752023
0.752028
0.752033
0.752037
0.752041
0.752044
0.752048
0.752051
0.752054
0.752057
0.75206
0.752063
0.752065
0.752067
0.752068
0.752069
0.752069
0.752069
0.752069
0.752068
0.752067
0.752066
0.752064
0.752062
0.75206
0.752057
0.752055
0.752053
0.75205
0.752048
0.752046
0.752044
0.752043
0.752041
0.75204
0.752039
0.752038
0.752037
0.752037
0.752036
0.752036
0.752036
0.752036
0.752037
0.752037
0.752037
0.752038
0.752039
0.752039
0.75204
0.752041
0.752041
0.752042
0.752043
0.752043
0.752044
0.752044
0.752045
0.752045
0.752045
0.752045
0.752045
0.752045
66.9838
66.9838
66.7528
66.7203
66.7018
66.6828
66.6634
66.6438
66.6241
66.6042
66.584
66.5635
66.5428
66.5218
66.5006
66.4791
66.4574
66.4356
66.4136
66.3915
66.3694
66.3472
66.3251
66.303
66.281
66.2591
66.2375
66.216
66.1948
66.1738
66.153
66.1325
66.1122
66.092
66.0719
66.0519
66.0317
66.0112
65.9903
65.9689
65.9466
65.9232
65.8986
65.8725
65.8447
65.8149
65.7829
65.7485
65.7116
65.672
65.6295
65.5842
65.5357
65.4838
65.428
65.3677
65.3017
65.2282
65.1447
65.0474
64.9314
64.79
64.6142
64.3931
64.113
63.7576
63.308
62.7429
62.0395
61.1736
60.1215
58.8609
57.3725
55.6422
53.662
51.4321
48.9616
46.2692
43.3832
40.3404
37.1852
33.9669
30.7379
27.5506
24.4548
21.4955
18.7109
16.131
13.777
11.6612
9.7873
8.15166
6.74421
5.55
4.55063
3.72564
3.05366
2.51352
2.08497
1.74933
1.48979
1.29159
1.14213
1.0308
0.948872
0.889317
0.846537
0.816172
0.794871
0.780101
0.769978
0.763119
0.758525
0.755481
0.753488
0.752196
0.751369
0.750844
0.750516
0.750312
0.750187
0.750111
0.750065
0.750038
0.750022
0.750012
0.750007
0.750004
0.750002
0.750001
0.750001
0.75
0.75
0.75
0.75
0.75
0.75
0.75
0.75
0.75
0.75
0.75
0.75
0.75
0.75
0.75
0.75
0.75
0.75
0.75
0.75
0.75
0.75
0.75
0.75
0.75
0.75
0.75
0.75
0.75
0.75
0.75
0.75
0.75
0.75
0.75
0.75
0.75
0.75
0.75
0.75
0.75
0.75
0.75
0.75
0.75
0.75
0.75
0.75
0.75
0.75
0.75
0.75
0.75
0.75
0.75
0.75
0.75
0.75
0.75
0.75
0.75
0.75
0.75
0.75
0.75
0.75
0.75
0.75
0.75
0.75
0.75
0.75
0.75
0.75
0.75
0.75
0.75
0.75
0.75
0.75
0.75
0.75
0.75
0.75
0.75
0.75
0.75
0.75
0.75
0.75
0.75
0.75
0.75
0.75
0.75
0.75
0.75
0.75
0.75
0.75
0.75
0.75
0.75
0.75
0.75
0.75
0.75
0.75
0.75
0.75
0.75
0.75
0.75
0.75
0.75
0.75
0.75
0.75
0.75
0.75
0.75
0.75
0.75
0.75
0.75
0.75
0.75
0.75
0.75
0.75
0.75
0.75
0.75
0.75
0.75
0.75
0.75
0.75
0.75
0.75
0.75
0.75
0.75
0.75
0.75
0.75
0.75
0.75
0.75
0.75
0.75
0.75
0.75
0.75
0.75
0.75
0.75
0.75
0.750001
0.750001
0.750001
0.750002
0.750003
0.750004
0.750006
0.750009
0.750012
0.750017
0.750023
0.750032
0.750043
0.750057
0.750075
0.750097
0.750124
0.750157
0.750197
0.750243
0.750297
0.750359
0.750428
0.750504
0.750588
0.750678
0.750773
0.750872
0.750974
0.751077
0.751178
0.751278
0.751374
0.751464
0.751548
0.751625
0.751694
0.751755
0.751808
0.751853
0.751892
0.751923
0.751949
0.751969
0.751986
0.751999
0.752009
0.752017
0.752023
0.752028
0.752033
0.752037
0.752041
0.752044
0.752048
0.752051
0.752054
0.752057
0.75206
0.752063
0.752065
0.752067
0.752068
0.752069
0.752069
0.752069
0.752069
0.752068
0.752067
0.752065
0.752064
0.752062
0.75206
0.752057
0.752055
0.752053
0.75205
0.752048
0.752046
0.752044
0.752043
0.752041
0.75204
0.752039
0.752038
0.752037
0.752037
0.752036
0.752036
0.752036
0.752036
0.752037
0.752037
0.752037
0.752038
0.752039
0.752039
0.75204
0.752041
0.752041
0.752042
0.752043
0.752043
0.752044
0.752044
0.752045
0.752045
0.752045
0.752045
0.752045
0.752045
66.969
66.969
66.7551
66.7209
66.702
66.6829
66.6635
66.6439
66.6242
66.6042
66.584
66.5636
66.5428
66.5219
66.5006
66.4791
66.4575
66.4356
66.4137
66.3916
66.3694
66.3473
66.3251
66.303
66.281
66.2592
66.2375
66.216
66.1948
66.1738
66.153
66.1325
66.1122
66.092
66.0719
66.0518
66.0316
66.0111
65.9902
65.9687
65.9464
65.9231
65.8985
65.8723
65.8445
65.8146
65.7826
65.7482
65.7113
65.6717
65.6293
65.5839
65.5354
65.4835
65.4277
65.3674
65.3013
65.2278
65.1442
65.0469
64.9308
64.7892
64.6133
64.3921
64.1118
63.7562
63.3063
62.7411
62.0374
61.1714
60.1191
58.8584
57.37
55.6397
53.6597
51.4301
48.9599
46.2679
43.3824
40.3402
37.1856
33.9679
30.7395
27.5527
24.4574
21.4984
18.714
16.1342
13.7803
11.6644
9.79041
8.15457
6.74687
5.55239
4.55274
3.72747
3.05522
2.51482
2.08605
1.75021
1.49048
1.29214
1.14256
1.03112
0.94912
0.889502
0.846674
0.816271
0.794942
0.780151
0.770013
0.763144
0.758541
0.755493
0.753495
0.752201
0.751372
0.750847
0.750517
0.750313
0.750187
0.750111
0.750065
0.750038
0.750022
0.750012
0.750007
0.750004
0.750002
0.750001
0.750001
0.75
0.75
0.75
0.75
0.75
0.75
0.75
0.75
0.75
0.75
0.75
0.75
0.75
0.75
0.75
0.75
0.75
0.75
0.75
0.75
0.75
0.75
0.75
0.75
0.75
0.75
0.75
0.75
0.75
0.75
0.75
0.75
0.75
0.75
0.75
0.75
0.75
0.75
0.75
0.75
0.75
0.75
0.75
0.75
0.75
0.75
0.75
0.75
0.75
0.75
0.75
0.75
0.75
0.75
0.75
0.75
0.75
0.75
0.75
0.75
0.75
0.75
0.75
0.75
0.75
0.75
0.75
0.75
0.75
0.75
0.75
0.75
0.75
0.75
0.75
0.75
0.75
0.75
0.75
0.75
0.75
0.75
0.75
0.75
0.75
0.75
0.75
0.75
0.75
0.75
0.75
0.75
0.75
0.75
0.75
0.75
0.75
0.75
0.75
0.75
0.75
0.75
0.75
0.75
0.75
0.75
0.75
0.75
0.75
0.75
0.75
0.75
0.75
0.75
0.75
0.75
0.75
0.75
0.75
0.75
0.75
0.75
0.75
0.75
0.75
0.75
0.75
0.75
0.75
0.75
0.75
0.75
0.75
0.75
0.75
0.75
0.75
0.75
0.75
0.75
0.75
0.75
0.75
0.75
0.75
0.75
0.75
0.75
0.75
0.75
0.75
0.75
0.75
0.75
0.75
0.75
0.75
0.75
0.750001
0.750001
0.750001
0.750002
0.750003
0.750004
0.750006
0.750009
0.750012
0.750017
0.750023
0.750032
0.750043
0.750057
0.750075
0.750097
0.750124
0.750157
0.750197
0.750243
0.750297
0.750359
0.750428
0.750505
0.750588
0.750678
0.750773
0.750872
0.750974
0.751077
0.751178
0.751278
0.751374
0.751464
0.751548
0.751625
0.751694
0.751755
0.751808
0.751853
0.751892
0.751923
0.751949
0.751969
0.751986
0.751998
0.752009
0.752017
0.752023
0.752028
0.752033
0.752037
0.752041
0.752044
0.752048
0.752051
0.752054
0.752057
0.75206
0.752063
0.752065
0.752067
0.752068
0.752069
0.752069
0.752069
0.752069
0.752068
0.752067
0.752065
0.752064
0.752062
0.75206
0.752057
0.752055
0.752053
0.75205
0.752048
0.752046
0.752044
0.752043
0.752041
0.75204
0.752039
0.752038
0.752037
0.752037
0.752036
0.752036
0.752036
0.752036
0.752037
0.752037
0.752038
0.752038
0.752039
0.752039
0.75204
0.752041
0.752041
0.752042
0.752043
0.752043
0.752044
0.752044
0.752045
0.752045
0.752045
0.752045
0.752045
0.752045
66.9556
66.9556
66.7575
66.7216
66.7023
66.683
66.6636
66.644
66.6243
66.6043
66.5841
66.5637
66.5429
66.5219
66.5007
66.4792
66.4575
66.4357
66.4137
66.3917
66.3695
66.3473
66.3252
66.3031
66.2811
66.2593
66.2376
66.2161
66.1949
66.1738
66.1531
66.1325
66.1122
66.092
66.0719
66.0518
66.0315
66.0111
65.9901
65.9686
65.9463
65.9229
65.8983
65.8721
65.8443
65.8144
65.7824
65.748
65.711
65.6714
65.629
65.5836
65.5351
65.4832
65.4274
65.367
65.3009
65.2274
65.1437
65.0464
64.9302
64.7885
64.6125
64.391
64.1106
63.7547
63.3047
62.7392
62.0354
61.1691
60.1167
58.8559
57.3675
55.6373
53.6574
51.428
48.9582
46.2667
43.3816
40.34
37.186
33.9689
30.7411
27.5548
24.4599
21.5013
18.7171
16.1375
13.7836
11.6676
9.7935
8.15747
6.74953
5.55478
4.55485
3.72929
3.05677
2.51612
2.08713
1.75108
1.49118
1.2927
1.14299
1.03145
0.949369
0.889687
0.84681
0.81637
0.795013
0.780202
0.770049
0.763168
0.758558
0.755504
0.753503
0.752206
0.751375
0.750849
0.750518
0.750313
0.750188
0.750111
0.750065
0.750038
0.750022
0.750012
0.750007
0.750004
0.750002
0.750001
0.750001
0.75
0.75
0.75
0.75
0.75
0.75
0.75
0.75
0.75
0.75
0.75
0.75
0.75
0.75
0.75
0.75
0.75
0.75
0.75
0.75
0.75
0.75
0.75
0.75
0.75
0.75
0.75
0.75
0.75
0.75
0.75
0.75
0.75
0.75
0.75
0.75
0.75
0.75
0.75
0.75
0.75
0.75
0.75
0.75
0.75
0.75
0.75
0.75
0.75
0.75
0.75
0.75
0.75
0.75
0.75
0.75
0.75
0.75
0.75
0.75
0.75
0.75
0.75
0.75
0.75
0.75
0.75
0.75
0.75
0.75
0.75
0.75
0.75
0.75
0.75
0.75
0.75
0.75
0.75
0.75
0.75
0.75
0.75
0.75
0.75
0.75
0.75
0.75
0.75
0.75
0.75
0.75
0.75
0.75
0.75
0.75
0.75
0.75
0.75
0.75
0.75
0.75
0.75
0.75
0.75
0.75
0.75
0.75
0.75
0.75
0.75
0.75
0.75
0.75
0.75
0.75
0.75
0.75
0.75
0.75
0.75
0.75
0.75
0.75
0.75
0.75
0.75
0.75
0.75
0.75
0.75
0.75
0.75
0.75
0.75
0.75
0.75
0.75
0.75
0.75
0.75
0.75
0.75
0.75
0.75
0.75
0.75
0.75
0.75
0.75
0.75
0.75
0.75
0.75
0.75
0.75
0.75
0.75
0.750001
0.750001
0.750001
0.750002
0.750003
0.750004
0.750006
0.750009
0.750012
0.750017
0.750023
0.750032
0.750043
0.750057
0.750075
0.750097
0.750124
0.750157
0.750197
0.750243
0.750297
0.750359
0.750428
0.750505
0.750588
0.750678
0.750773
0.750873
0.750974
0.751077
0.751178
0.751278
0.751374
0.751464
0.751548
0.751625
0.751694
0.751755
0.751808
0.751853
0.751891
0.751923
0.751949
0.751969
0.751986
0.751998
0.752009
0.752017
0.752023
0.752028
0.752033
0.752037
0.752041
0.752044
0.752048
0.752051
0.752054
0.752057
0.75206
0.752063
0.752065
0.752067
0.752068
0.752069
0.752069
0.752069
0.752069
0.752068
0.752067
0.752065
0.752064
0.752062
0.75206
0.752057
0.752055
0.752053
0.752051
0.752048
0.752046
0.752044
0.752043
0.752041
0.75204
0.752039
0.752038
0.752037
0.752037
0.752036
0.752036
0.752036
0.752036
0.752037
0.752037
0.752038
0.752038
0.752039
0.752039
0.75204
0.752041
0.752042
0.752042
0.752043
0.752043
0.752044
0.752044
0.752045
0.752045
0.752045
0.752046
0.752046
0.752046
66.9434
66.9434
66.7601
66.7225
66.7025
66.6832
66.6637