# vtk DataFile Version 2.0
FlowField
ASCII
DATASET STRUCTURED_GRID
DIMENSIONS 400 1 200
POINTS 80000 float
0 0 0
0.08 0 0
0.16 0 0
0.24 0 0
0.32 0 0
0.4 0 0
0.48 0 0
0.56 0 0
0.64 0 0
0.72 0 0
0.8 0 0
0.88 0 0
0.96 0 0
1.04 0 0
1.12 0 0
1.2 0 0
1.28 0 0
1.36 0 0
1.44 0 0
1.52 0 0
1.6 0 0
1.68 0 0
1.76 0 0
1.84 0 0
1.92 0 0
2 0 0
2.08 0 0
2.16 0 0
2.24 0 0
2.32 0 0
2.4 0 0
2.48 0 0
2.56 0 0
2.64 0 0
2.72 0 0
2.8 0 0
2.88 0 0
2.96 0 0
3.04 0 0
3.12 0 0
3.2 0 0
3.28 0 0
3.36 0 0
3.44 0 0
3.52 0 0
3.6 0 0
3.68 0 0
3.76 0 0
3.84 0 0
3.92 0 0
4 0 0
4.08 0 0
4.16 0 0
4.24 0 0
4.32 0 0
4.4 0 0
4.48 0 0
4.56 0 0
4.64 0 0
4.72 0 0
4.8 0 0
4.88 0 0
4.96 0 0
5.04 0 0
5.12 0 0
5.2 0 0
5.28 0 0
5.36 0 0
5.44 0 0
5.52 0 0
5.6 0 0
5.68 0 0
5.76 0 0
5.84 0 0
5.92 0 0
6 0 0
6.08 0 0
6.16 0 0
6.24 0 0
6.32 0 0
6.4 0 0
6.48 0 0
6.56 0 0
6.64 0 0
6.72 0 0
6.8 0 0
6.88 0 0
6.96 0 0
7.04 0 0
7.12 0 0
7.2 0 0
7.28 0 0
7.36 0 0
7.44 0 0
7.52 0 0
7.6 0 0
7.68 0 0
7.76 0 0
7.84 0 0
7.92 0 0
8 0 0
8.08 0 0
8.16 0 0
8.24 0 0
8.32 0 0
8.4 0 0
8.48 0 0
8.56 0 0
8.64 0 0
8.72 0 0
8.8 0 0
8.88 0 0
8.96 0 0
9.04 0 0
9.12 0 0
9.2 0 0
9.28 0 0
9.36 0 0
9.44 0 0
9.52 0 0
9.6 0 0
9.68 0 0
9.76 0 0
9.84 0 0
9.92 0 0
10 0 0
10.08 0 0
10.16 0 0
10.24 0 0
10.32 0 0
10.4 0 0
10.48 0 0
10.56 0 0
10.64 0 0
10.72 0 0
10.8 0 0
10.88 0 0
10.96 0 0
11.04 0 0
11.12 0 0
11.2 0 0
11.28 0 0
11.36 0 0
11.44 0 0
11.52 0 0
11.6 0 0
11.68 0 0
11.76 0 0
11.84 0 0
11.92 0 0
12 0 0
12.08 0 0
12.16 0 0
12.24 0 0
12.32 0 0
12.4 0 0
12.48 0 0
12.56 0 0
12.64 0 0
12.72 0 0
12.8 0 0
12.88 0 0
12.96 0 0
13.04 0 0
13.12 0 0
13.2 0 0
13.28 0 0
13.36 0 0
13.44 0 0
13.52 0 0
13.6 0 0
13.68 0 0
13.76 0 0
13.84 0 0
13.92 0 0
14 0 0
14.08 0 0
14.16 0 0
14.24 0 0
14.32 0 0
14.4 0 0
14.48 0 0
14.56 0 0
14.64 0 0
14.72 0 0
14.8 0 0
14.88 0 0
14.96 0 0
15.04 0 0
15.12 0 0
15.2 0 0
15.28 0 0
15.36 0 0
15.44 0 0
15.52 0 0
15.6 0 0
15.68 0 0
15.76 0 0
15.84 0 0
15.92 0 0
16 0 0
16.08 0 0
16.16 0 0
16.24 0 0
16.32 0 0
16.4 0 0
16.48 0 0
16.56 0 0
16.64 0 0
16.72 0 0
16.8 0 0
16.88 0 0
16.96 0 0
17.04 0 0
17.12 0 0
17.2 0 0
17.28 0 0
17.36 0 0
17.44 0 0
17.52 0 0
17.6 0 0
17.68 0 0
17.76 0 0
17.84 0 0
17.92 0 0
18 0 0
18.08 0 0
18.16 0 0
18.24 0 0
18.32 0 0
18.4 0 0
18.48 0 0
18.56 0 0
18.64 0 0
18.72 0 0
18.8 0 0
18.88 0 0
18.96 0 0
19.04 0 0
19.12 0 0
19.2 0 0
19.28 0 0
19.36 0 0
19.44 0 0
19.52 0 0
19.6 0 0
19.68 0 0
19.76 0 0
19.84 0 0
19.92 0 0
20 0 0
20.08 0 0
20.16 0 0
20.24 0 0
20.32 0 0
20.4 0 0
20.48 0 0
20.56 0 0
20.64 0 0
20.72 0 0
20.8 0 0
20.88 0 0
20.96 0 0
21.04 0 0
21.12 0 0
21.2 0 0
21.28 0 0
21.36 0 0
21.44 0 0
21.52 0 0
21.6 0 0
21.68 0 0
21.76 0 0
21.84 0 0
21.92 0 0
22 0 0
22.08 0 0
22.16 0 0
22.24 0 0
22.32 0 0
22.4 0 0
22.48 0 0
22.56 0 0
22.64 0 0
22.72 0 0
22.8 0 0
22.88 0 0
22.96 0 0
23.04 0 0
23.12 0 0
23.2 0 0
23.28 0 0
23.36 0 0
23.44 0 0
23.52 0 0
23.6 0 0
23.68 0 0
23.76 0 0
23.84 0 0
23.92 0 0
24 0 0
24.08 0 0
24.16 0 0
24.24 0 0
24.32 0 0
24.4 0 0
24.48 0 0
24.56 0 0
24.64 0 0
24.72 0 0
24.8 0 0
24.88 0 0
24.96 0 0
25.04 0 0
25.12 0 0
25.2 0 0
25.28 0 0
25.36 0 0
25.44 0 0
25.52 0 0
25.6 0 0
25.68 0 0
25.76 0 0
25.84 0 0
25.92 0 0
26 0 0
26.08 0 0
26.16 0 0
26.24 0 0
26.32 0 0
26.4 0 0
26.48 0 0
26.56 0 0
26.64 0 0
26.72 0 0
26.8 0 0
26.88 0 0
26.96 0 0
27.04 0 0
27.12 0 0
27.2 0 0
27.28 0 0
27.36 0 0
27.44 0 0
27.52 0 0
27.6 0 0
27.68 0 0
27.76 0 0
27.84 0 0
27.92 0 0
28 0 0
28.08 0 0
28.16 0 0
28.24 0 0
28.32 0 0
28.4 0 0
28.48 0 0
28.56 0 0
28.64 0 0
28.72 0 0
28.8 0 0
28.88 0 0
28.96 0 0
29.04 0 0
29.12 0 0
29.2 0 0
29.28 0 0
29.36 0 0
29.44 0 0
29.52 0 0
29.6 0 0
29.68 0 0
29.76 0 0
29.84 0 0
29.92 0 0
30 0 0
30.08 0 0
30.16 0 0
30.24 0 0
30.32 0 0
30.4 0 0
30.48 0 0
30.56 0 0
30.64 0 0
30.72 0 0
30.8 0 0
30.88 0 0
30.96 0 0
31.04 0 0
31.12 0 0
31.2 0 0
31.28 0 0
31.36 0 0
31.44 0 0
31.52 0 0
31.6 0 0
31.68 0 0
31.76 0 0
31.84 0 0
31.92 0 0
0 0.005 0
0.08 0.005 0
0.16 0.005 0
0.24 0.005 0
0.32 0.005 0
0.4 0.005 0
0.48 0.005 0
0.56 0.005 0
0.64 0.005 0
0.72 0.005 0
0.8 0.005 0
0.88 0.005 0
0.96 0.005 0
1.04 0.005 0
1.12 0.005 0
1.2 0.005 0
1.28 0.005 0
1.36 0.005 0
1.44 0.005 0
1.52 0.005 0
1.6 0.005 0
1.68 0.005 0
1.76 0.005 0
1.84 0.005 0
1.92 0.005 0
2 0.005 0
2.08 0.005 0
2.16 0.005 0
2.24 0.005 0
2.32 0.005 0
2.4 0.005 0
2.48 0.005 0
2.56 0.005 0
2.64 0.005 0
2.72 0.005 0
2.8 0.005 0
2.88 0.005 0
2.96 0.005 0
3.04 0.005 0
3.12 0.005 0
3.2 0.005 0
3.28 0.005 0
3.36 0.005 0
3.44 0.005 0
3.52 0.005 0
3.6 0.005 0
3.68 0.005 0
3.76 0.005 0
3.84 0.005 0
3.92 0.005 0
4 0.005 0
4.08 0.005 0
4.16 0.005 0
4.24 0.005 0
4.32 0.005 0
4.4 0.005 0
4.48 0.005 0
4.56 0.005 0
4.64 0.005 0
4.72 0.005 0
4.8 0.005 0
4.88 0.005 0
4.96 0.005 0
5.04 0.005 0
5.12 0.005 0
5.2 0.005 0
5.28 0.005 0
5.36 0.005 0
5.44 0.005 0
5.52 0.005 0
5.6 0.005 0
5.68 0.005 0
5.76 0.005 0
5.84 0.005 0
5.92 0.005 0
6 0.005 0
6.08 0.005 0
6.16 0.005 0
6.24 0.005 0
6.32 0.005 0
6.4 0.005 0
6.48 0.005 0
6.56 0.005 0
6.64 0.005 0
6.72 0.005 0
6.8 0.005 0
6.88 0.005 0
6.96 0.005 0
7.04 0.005 0
7.12 0.005 0
7.2 0.005 0
7.28 0.005 0
7.36 0.005 0
7.44 0.005 0
7.52 0.005 0
7.6 0.005 0
7.68 0.005 0
7.76 0.005 0
7.84 0.005 0
7.92 0.005 0
8 0.005 0
8.08 0.005 0
8.16 0.005 0
8.24 0.005 0
8.32 0.005 0
8.4 0.005 0
8.48 0.005 0
8.56 0.005 0
8.64 0.005 0
8.72 0.005 0
8.8 0.005 0
8.88 0.005 0
8.96 0.005 0
9.04 0.005 0
9.12 0.005 0
9.2 0.005 0
9.28 0.005 0
9.36 0.005 0
9.44 0.005 0
9.52 0.005 0
9.6 0.005 0
9.68 0.005 0
9.76 0.005 0
9.84 0.005 0
9.92 0.005 0
10 0.005 0
10.08 0.005 0
10.16 0.005 0
10.24 0.005 0
10.32 0.005 0
10.4 0.005 0
10.48 0.005 0
10.56 0.005 0
10.64 0.005 0
10.72 0.005 0
10.8 0.005 0
10.88 0.005 0
10.96 0.005 0
11.04 0.005 0
11.12 0.005 0
11.2 0.005 0
11.28 0.005 0
11.36 0.005 0
11.44 0.005 0
11.52 0.005 0
11.6 0.005 0
11.68 0.005 0
11.76 0.005 0
11.84 0.005 0
11.92 0.005 0
12 0.005 0
12.08 0.005 0
12.16 0.005 0
12.24 0.005 0
12.32 0.005 0
12.4 0.005 0
12.48 0.005 0
12.56 0.005 0
12.64 0.005 0
12.72 0.005 0
12.8 0.005 0
12.88 0.005 0
12.96 0.005 0
13.04 0.005 0
13.12 0.005 0
13.2 0.005 0
13.28 0.005 0
13.36 0.005 0
13.44 0.005 0
13.52 0.005 0
13.6 0.005 0
13.68 0.005 0
13.76 0.005 0
13.84 0.005 0
13.92 0.005 0
14 0.005 0
14.08 0.005 0
14.16 0.005 0
14.24 0.005 0
14.32 0.005 0
14.4 0.005 0
14.48 0.005 0
14.56 0.005 0
14.64 0.005 0
14.72 0.005 0
14.8 0.005 0
14.88 0.005 0
14.96 0.005 0
15.04 0.005 0
15.12 0.005 0
15.2 0.005 0
15.28 0.005 0
15.36 0.005 0
15.44 0.005 0
15.52 0.005 0
15.6 0.005 0
15.68 0.005 0
15.76 0.005 0
15.84 0.005 0
15.92 0.005 0
16 0.005 0
16.08 0.005 0
16.16 0.005 0
16.24 0.005 0
16.32 0.005 0
16.4 0.005 0
16.48 0.005 0
16.56 0.005 0
16.64 0.005 0
16.72 0.005 0
16.8 0.005 0
16.88 0.005 0
16.96 0.005 0
17.04 0.005 0
17.12 0.005 0
17.2 0.005 0
17.28 0.005 0
17.36 0.005 0
17.44 0.005 0
17.52 0.005 0
17.6 0.005 0
17.68 0.005 0
17.76 0.005 0
17.84 0.005 0
17.92 0.005 0
18 0.005 0
18.08 0.005 0
18.16 0.005 0
18.24 0.005 0
18.32 0.005 0
18.4 0.005 0
18.48 0.005 0
18.56 0.005 0
18.64 0.005 0
18.72 0.005 0
18.8 0.005 0
18.88 0.005 0
18.96 0.005 0
19.04 0.005 0
19.12 0.005 0
19.2 0.005 0
19.28 0.005 0
19.36 0.005 0
19.44 0.005 0
19.52 0.005 0
19.6 0.005 0
19.68 0.005 0
19.76 0.005 0
19.84 0.005 0
19.92 0.005 0
20 0.005 0
20.08 0.005 0
20.16 0.005 0
20.24 0.005 0
20.32 0.005 0
20.4 0.005 0
20.48 0.005 0
20.56 0.005 0
20.64 0.005 0
20.72 0.005 0
20.8 0.005 0
20.88 0.005 0
20.96 0.005 0
21.04 0.005 0
21.12 0.005 0
21.2 0.005 0
21.28 0.005 0
21.36 0.005 0
21.44 0.005 0
21.52 0.005 0
21.6 0.005 0
21.68 0.005 0
21.76 0.005 0
21.84 0.005 0
21.92 0.005 0
22 0.005 0
22.08 0.005 0
22.16 0.005 0
22.24 0.005 0
22.32 0.005 0
22.4 0.005 0
22.48 0.005 0
22.56 0.005 0
22.64 0.005 0
22.72 0.005 0
22.8 0.005 0
22.88 0.005 0
22.96 0.005 0
23.04 0.005 0
23.12 0.005 0
23.2 0.005 0
23.28 0.005 0
23.36 0.005 0
23.44 0.005 0
23.52 0.005 0
23.6 0.005 0
23.68 0.005 0
23.76 0.005 0
23.84 0.005 0
23.92 0.005 0
24 0.005 0
24.08 0.005 0
24.16 0.005 0
24.24 0.005 0
24.32 0.005 0
24.4 0.005 0
24.48 0.005 0
24.56 0.005 0
24.64 0.005 0
24.72 0.005 0
24.8 0.005 0
24.88 0.005 0
24.96 0.005 0
25.04 0.005 0
25.12 0.005 0
25.2 0.005 0
25.28 0.005 0
25.36 0.005 0
25.44 0.005 0
25.52 0.005 0
25.6 0.005 0
25.68 0.005 0
25.76 0.005 0
25.84 0.005 0
25.92 0.005 0
26 0.005 0
26.08 0.005 0
26.16 0.005 0
26.24 0.005 0
26.32 0.005 0
26.4 0.005 0
26.48 0.005 0
26.56 0.005 0
26.64 0.005 0
26.72 0.005 0
26.8 0.005 0
26.88 0.005 0
26.96 0.005 0
27.04 0.005 0
27.12 0.005 0
27.2 0.005 0
27.28 0.005 0
27.36 0.005 0
27.44 0.005 0
27.52 0.005 0
27.6 0.005 0
27.68 0.005 0
27.76 0.005 0
27.84 0.005 0
27.92 0.005 0
28 0.005 0
28.08 0.005 0
28.16 0.005 0
28.24 0.005 0
28.32 0.005 0
28.4 0.005 0
28.48 0.005 0
28.56 0.005 0
28.64 0.005 0
28.72 0.005 0
28.8 0.005 0
28.88 0.005 0
28.96 0.005 0
29.04 0.005 0
29.12 0.005 0
29.2 0.005 0
29.28 0.005 0
29.36 0.005 0
29.44 0.005 0
29.52 0.005 0
29.6 0.005 0
29.68 0.005 0
29.76 0.005 0
29.84 0.005 0
29.92 0.005 0
30 0.005 0
30.08 0.005 0
30.16 0.005 0
30.24 0.005 0
30.32 0.005 0
30.4 0.005 0
30.48 0.005 0
30.56 0.005 0
30.64 0.005 0
30.72 0.005 0
30.8 0.005 0
30.88 0.005 0
30.96 0.005 0
31.04 0.005 0
31.12 0.005 0
31.2 0.005 0
31.28 0.005 0
31.36 0.005 0
31.44 0.005 0
31.52 0.005 0
31.6 0.005 0
31.68 0.005 0
31.76 0.005 0
31.84 0.005 0
31.92 0.005 0
0 0.01 0
0.08 0.01 0
0.16 0.01 0
0.24 0.01 0
0.32 0.01 0
0.4 0.01 0
0.48 0.01 0
0.56 0.01 0
0.64 0.01 0
0.72 0.01 0
0.8 0.01 0
0.88 0.01 0
0.96 0.01 0
1.04 0.01 0
1.12 0.01 0
1.2 0.01 0
1.28 0.01 0
1.36 0.01 0
1.44 0.01 0
1.52 0.01 0
1.6 0.01 0
1.68 0.01 0
1.76 0.01 0
1.84 0.01 0
1.92 0.01 0
2 0.01 0
2.08 0.01 0
2.16 0.01 0
2.24 0.01 0
2.32 0.01 0
2.4 0.01 0
2.48 0.01 0
2.56 0.01 0
2.64 0.01 0
2.72 0.01 0
2.8 0.01 0
2.88 0.01 0
2.96 0.01 0
3.04 0.01 0
3.12 0.01 0
3.2 0.01 0
3.28 0.01 0
3.36 0.01 0
3.44 0.01 0
3.52 0.01 0
3.6 0.01 0
3.68 0.01 0
3.76 0.01 0
3.84 0.01 0
3.92 0.01 0
4 0.01 0
4.08 0.01 0
4.16 0.01 0
4.24 0.01 0
4.32 0.01 0
4.4 0.01 0
4.48 0.01 0
4.56 0.01 0
4.64 0.01 0
4.72 0.01 0
4.8 0.01 0
4.88 0.01 0
4.96 0.01 0
5.04 0.01 0
5.12 0.01 0
[...]
POINT_DATA 80000

SCALARS u float 1
LOOKUP_TABLE default
0
-0.131663
-0.0682695
-0.0522964
-0.0444203
-0.0395772
-0.0362602
-0.0338332
-0.0319732
-0.0304966
-0.0292906
-0.0282823
-0.0274228
-0.0266782
-0.0260243
-0.0254434
-0.0249226
-0.0244517
-0.0240231
-0.0236307
-0.0232697
-0.022936
-0.0226265
-0.0223384
-0.0220694
-0.0218176
-0.0215812
-0.0213589
-0.0211492
-0.0209513
-0.0207641
-0.0205868
-0.0204186
-0.0202588
-0.0201067
-0.0199619
-0.0198242
-0.0196931
-0.0195681
-0.0194488
-0.019335
-0.0192264
-0.0191232
-0.0190255
-0.0189333
-0.0188466
-0.0187654
-0.0186896
-0.0186191
-0.0185541
-0.0184946
-0.0184405
-0.0183914
-0.0183467
-0.0183055
-0.0182674
-0.0182319
-0.0181989
-0.0181684
-0.0181407
-0.0181156
-0.0180931
-0.0180729
-0.0180545
-0.0180374
-0.0180214
-0.0180063
-0.0179919
-0.0179785
-0.0179663
-0.0179554
-0.0179461
-0.0179384
-0.0179324
-0.0179278
-0.0179245
-0.0179223
-0.0179209
-0.0179203
-0.0179201
-0.0179202
-0.0179205
-0.0179211
-0.0179217
-0.0179224
-0.0179231
-0.0179238
-0.0179246
-0.0179254
-0.0179262
-0.017927
-0.0179278
-0.0179287
-0.0179295
-0.0179303
-0.0179311
-0.017932
-0.0179328
-0.0179336
-0.0179345
-0.0179353
-0.0179361
-0.0179369
-0.0179378
-0.0179386
-0.0179394
-0.0179403
-0.0179411
-0.0179419
-0.0179428
-0.0179436
-0.0179444
-0.0179453
-0.0179461
-0.017947
-0.0179478
-0.0179486
-0.0179495
-0.0179503
-0.0179511
-0.017952
-0.0179528
-0.0179537
-0.0179545
-0.0179553
-0.0179562
-0.017957
-0.0179579
-0.0179587
-0.0179595
-0.0179604
-0.0179612
-0.0179621
-0.0179629
-0.0179638
-0.0179646
-0.0179655
-0.0179663
-0.0179672
-0.017968
-0.0179689
-0.0179697
-0.0179706
-0.0179714
-0.0179723
-0.0179731
-0.017974
-0.0179748
-0.0179757
-0.0179765
-0.0179774
-0.0179782
-0.0179791
-0.0179799
-0.0179808
-0.0179816
-0.0179825
-0.0179834
-0.0179842
-0.0179851
-0.0179859
-0.0179868
-0.0179876
-0.0179885
-0.0179894
-0.0179902
-0.0179911
-0.0179919
-0.0179928
-0.0179937
-0.0179945
-0.0179954
-0.0179963
-0.0179971
-0.017998
-0.0179988
-0.0179997
-0.0180006
-0.0180014
-0.0180023
-0.0180032
-0.018004
-0.0180049
-0.0180058
-0.0180067
-0.0180075
-0.0180084
-0.0180093
-0.0180101
-0.018011
-0.0180119
-0.0180128
-0.0180136
-0.0180145
-0.0180154
-0.0180162
-0.0180171
-0.018018
-0.0180189
-0.0180197
-0.0180206
-0.0180215
-0.0180224
-0.0180233
-0.0180241
-0.018025
-0.0180259
-0.0180268
-0.0180277
-0.0180285
-0.0180294
-0.0180303
-0.0180312
-0.0180321
-0.018033
-0.0180338
-0.0180347
-0.0180356
-0.0180365
-0.0180374
-0.0180383
-0.0180392
-0.01804
-0.0180409
-0.0180418
-0.0180427
-0.0180436
-0.0180445
-0.0180454
-0.0180463
-0.0180472
-0.0180481
-0.018049
-0.0180499
-0.0180507
-0.0180516
-0.0180525
-0.0180534
-0.0180543
-0.0180552
-0.0180561
-0.018057
-0.0180579
-0.0180588
-0.0180597
-0.0180606
-0.0180615
-0.0180624
-0.0180633
-0.0180642
-0.0180651
-0.018066
-0.0180669
-0.0180678
-0.0180687
-0.0180696
-0.0180705
-0.0180715
-0.0180724
-0.0180733
-0.0180742
-0.0180751
-0.018076
-0.0180769
-0.0180778
-0.0180787
-0.0180796
-0.0180805
-0.0180815
-0.0180824
-0.0180833
-0.0180842
-0.0180851
-0.018086
-0.0180869
-0.0180879
-0.0180888
-0.0180897
-0.0180906
-0.0180915
-0.0180924
-0.0180934
-0.0180943
-0.0180952
-0.0180961
-0.018097
-0.018098
-0.0180989
-0.0180998
-0.0181007
-0.0181017
-0.0181026
-0.0181035
-0.0181044
-0.0181054
-0.0181063
-0.0181072
-0.0181081
-0.0181091
-0.01811
-0.0181109
-0.0181119
-0.0181128
-0.0181137
-0.0181146
-0.0181156
-0.0181165
-0.0181174
-0.0181184
-0.0181193
-0.0181202
-0.0181212
-0.0181221
-0.0181231
-0.018124
-0.0181249
-0.0181259
-0.0181268
-0.0181277
-0.0181287
-0.0181296
-0.0181306
-0.0181315
-0.0181324
-0.0181334
-0.0181343
-0.0181353
-0.0181362
-0.0181372
-0.0181381
-0.0181391
-0.01814
-0.0181409
-0.0181419
-0.0181428
-0.0181438
-0.0181447
-0.0181457
-0.0181466
-0.0181476
-0.0181485
-0.0181495
-0.0181504
-0.0181514
-0.0181524
-0.0181533
-0.0181543
-0.0181552
-0.0181562
-0.0181571
-0.0181581
-0.018159
-0.01816
-0.018161
-0.0181619
-0.0181629
-0.0181638
-0.0181648
-0.0181658
-0.0181667
-0.0181677
-0.0181687
-0.0181696
-0.0181706
-0.0181716
-0.0181725
-0.0181735
-0.0181745
-0.0181754
-0.0181764
-0.0181774
-0.0181783
-0.0181793
-0.0181803
-0.0181812
-0.0181822
-0.0181832
-0.0181842
-0.0181851
-0.0181861
-0.0181871
-0.0181881
-0.018189
-0.01819
-0.018191
-0.018192
-0.0181929
-0.0181939
-0.0181949
-0.0181959
-0.0181969
-0.0181978
-0.0181989
-0.0181998
-0.018201
-0.0182016
-0.0182033
-0.0182017
-0.0182017
-0.0182017
1
0.131663
0.0682695
0.0522964
0.0444203
0.0395772
0.0362602
0.0338332
0.0319732
0.0304966
0.0292906
0.0282823
0.0274228
0.0266782
0.0260243
0.0254434
0.0249226
0.0244517
0.0240231
0.0236307
0.0232697
0.022936
0.0226265
0.0223384
0.0220694
0.0218176
0.0215812
0.0213589
0.0211492
0.0209513
0.0207641
0.0205868
0.0204186
0.0202588
0.0201067
0.0199619
0.0198242
0.0196931
0.0195681
0.0194488
0.019335
0.0192264
0.0191232
0.0190255
0.0189333
0.0188466
0.0187654
0.0186896
0.0186191
0.0185541
0.0184946
0.0184405
0.0183914
0.0183467
0.0183055
0.0182674
0.0182319
0.0181989
0.0181684
0.0181407
0.0181156
0.0180931
0.0180729
0.0180545
0.0180374
0.0180214
0.0180063
0.0179919
0.0179785
0.0179663
0.0179554
0.0179461
0.0179384
0.0179324
0.0179278
0.0179245
0.0179223
0.0179209
0.0179203
0.0179201
0.0179202
0.0179205
0.0179211
0.0179217
0.0179224
0.0179231
0.0179238
0.0179246
0.0179254
0.0179262
0.017927
0.0179278
0.0179287
0.0179295
0.0179303
0.0179311
0.017932
0.0179328
0.0179336
0.0179345
0.0179353
0.0179361
0.0179369
0.0179378
0.0179386
0.0179394
0.0179403
0.0179411
0.0179419
0.0179428
0.0179436
0.0179444
0.0179453
0.0179461
0.017947
0.0179478
0.0179486
0.0179495
0.0179503
0.0179511
0.017952
0.0179528
0.0179537
0.0179545
0.0179553
0.0179562
0.017957
0.0179579
0.0179587
0.0179595
0.0179604
0.0179612
0.0179621
0.0179629
0.0179638
0.0179646
0.0179655
0.0179663
0.0179672
0.017968
0.0179689
0.0179697
0.0179706
0.0179714
0.0179723
0.0179731
0.017974
0.0179748
0.0179757
0.0179765
0.0179774
0.0179782
0.0179791
0.0179799
0.0179808
0.0179816
0.0179825
0.0179834
0.0179842
0.0179851
0.0179859
0.0179868
0.0179876
0.0179885
0.0179894
0.0179902
0.0179911
0.0179919
0.0179928
0.0179937
0.0179945
0.0179954
0.0179963
0.0179971
0.017998
0.0179988
0.0179997
0.0180006
0.0180014
0.0180023
0.0180032
0.018004
0.0180049
0.0180058
0.0180067
0.0180075
0.0180084
0.0180093
0.0180101
0.018011
0.0180119
0.0180128
0.0180136
0.0180145
0.0180154
0.0180162
0.0180171
0.018018
0.0180189
0.0180197
0.0180206
0.0180215
0.0180224
0.0180233
0.0180241
0.018025
0.0180259
0.0180268
0.0180277
0.0180285
0.0180294
0.0180303
0.0180312
0.0180321
0.018033
0.0180338
0.0180347
0.0180356
0.0180365
0.0180374
0.0180383
0.0180392
0.01804
0.0180409
0.0180418
0.0180427
0.0180436
0.0180445
0.0180454
0.0180463
0.0180472
0.0180481
0.018049
0.0180499
0.0180507
0.0180516
0.0180525
0.0180534
0.0180543
0.0180552
0.0180561
0.018057
0.0180579
0.0180588
0.0180597
0.0180606
0.0180615
0.0180624
0.0180633
0.0180642
0.0180651
0.018066
0.0180669
0.0180678
0.0180687
0.0180696
0.0180705
0.0180715
0.0180724
0.0180733
0.0180742
0.0180751
0.018076
0.0180769
0.0180778
0.0180787
0.0180796
0.0180805
0.0180815
0.0180824
0.0180833
0.0180842
0.0180851
0.018086
0.0180869
0.0180879
0.0180888
0.0180897
0.0180906
0.0180915
0.0180924
0.0180934
0.0180943
0.0180952
0.0180961
0.018097
0.018098
0.0180989
0.0180998
0.0181007
0.0181017
0.0181026
0.0181035
0.0181044
0.0181054
0.0181063
0.0181072
0.0181081
0.0181091
0.01811
0.0181109
0.0181119
0.0181128
0.0181137
0.0181146
0.0181156
0.0181165
0.0181174
0.0181184
0.0181193
0.0181202
0.0181212
0.0181221
0.0181231
0.018124
0.0181249
0.0181259
0.0181268
0.0181277
0.0181287
0.0181296
0.0181306
0.0181315
0.0181324
0.0181334
0.0181343
0.0181353
0.0181362
0.0181372
0.0181381
0.0181391
0.01814
0.0181409
0.0181419
0.0181428
0.0181438
0.0181447
0.0181457
0.0181466
0.0181476
0.0181485
0.0181495
0.0181504
0.0181514
0.0181524
0.0181533
0.0181543
0.0181552
0.0181562
0.0181571
0.0181581
0.018159
0.01816
0.018161
0.0181619
0.0181629
0.0181638
0.0181648
0.0181658
0.0181667
0.0181677
0.0181687
0.0181696
0.0181706
0.0181716
0.0181725
0.0181735
0.0181745
0.0181754
0.0181764
0.0181774
0.0181783
0.0181793
0.0181803
0.0181812
0.0181822
0.0181832
0.0181842
0.0181851
0.0181861
0.0181871
0.0181881
0.018189
0.01819
0.018191
0.018192
0.0181929
0.0181939
0.0181949
0.0181959
0.0181969
0.0181978
0.0181989
0.0181998
0.018201
0.0182016
0.0182033
0.0182017
0.0182017
0.0182017
1
0.344884
0.200668
0.154968
0.131896
0.1176
0.107769
0.10056
0.0950268
0.090631
0.08704
0.0840382
0.0814802
0.0792651
0.0773208
0.0755947
0.0740477
0.0726498
0.0713781
0.0702143
0.0691439
0.068155
0.0672378
0.0663843
0.0655877
0.0648421
0.0641423
0.0634842
0.0628638
0.0622782
0.0617244
0.0612
0.0607025
0.0602299
0.0597804
0.0593528
0.058946
0.0585588
0.0581899
0.0578381
0.0575026
0.0571831
0.0568798
0.056593
0.0563229
0.0560693
0.0558321
0.0556109
0.055406
0.0552173
0.0550449
0.0548881
0.0547457
0.0546157
0.0544963
0.0543856
0.0542826
0.054187
0.0540991
0.0540189
0.0539466
0.0538817
0.0538231
0.0537697
0.0537202
0.0536738
0.05363
0.053589
0.0535509
0.0535165
0.0534864
0.0534608
0.0534399
0.0534235
0.0534113
0.0534027
0.0533971
0.0533938
0.0533923
0.053392
0.0533926
0.0533939
0.0533955
0.0533974
0.0533995
0.0534017
0.053404
0.0534063
0.0534087
0.0534111
0.0534135
0.0534159
0.0534184
0.0534208
0.0534233
0.0534258
0.0534282
0.0534307
0.0534332
0.0534356
0.0534381
0.0534406
0.0534431
0.0534455
0.053448
0.0534505
0.053453
0.0534555
0.053458
0.0534604
0.0534629
0.0534654
0.0534679
0.0534704
0.0534729
0.0534754
0.0534779
0.0534804
0.0534829
0.0534854
0.0534879
0.0534904
0.0534929
0.0534954
0.0534979
0.0535004
0.0535029
0.0535054
0.0535079
0.0535104
0.053513
0.0535155
0.053518
0.0535205
0.053523
0.0535256
0.0535281
0.0535306
0.0535331
0.0535357
0.0535382
0.0535407
0.0535433
0.0535458
0.0535483
0.0535509
0.0535534
0.0535559
0.0535585
0.053561
0.0535636
0.0535661
0.0535687
0.0535712
0.0535737
0.0535763
0.0535788
0.0535814
0.053584
0.0535865
0.0535891
0.0535916
0.0535942
0.0535967
0.0535993
0.0536019
0.0536044
0.053607
0.0536096
0.0536121
0.0536147
0.0536173
0.0536199
0.0536224
0.053625
0.0536276
0.0536302
0.0536328
0.0536353
0.0536379
0.0536405
0.0536431
0.0536457
0.0536483
0.0536509
0.0536535
0.0536561
0.0536586
0.0536612
0.0536638
0.0536664
0.053669
0.0536716
0.0536743
0.0536769
0.0536795
0.0536821
0.0536847
0.0536873
0.0536899
0.0536925
0.0536951
0.0536978
0.0537004
0.053703
0.0537056
0.0537082
0.0537109
0.0537135
0.0537161
0.0537188
0.0537214
0.053724
0.0537266
0.0537293
0.0537319
0.0537346
0.0537372
0.0537398
0.0537425
0.0537451
0.0537478
0.0537504
0.0537531
0.0537557
0.0537584
0.053761
0.0537637
0.0537663
0.053769
0.0537717
0.0537743
0.053777
0.0537796
0.0537823
0.053785
0.0537876
0.0537903
0.053793
0.0537957
0.0537983
0.053801
0.0538037
0.0538064
0.053809
0.0538117
0.0538144
0.0538171
0.0538198
0.0538225
0.0538252
0.0538279
0.0538305
0.0538332
0.0538359
0.0538386
0.0538413
0.053844
0.0538467
0.0538494
0.0538521
0.0538549
0.0538576
0.0538603
0.053863
0.0538657
0.0538684
0.0538711
0.0538738
0.0538766
0.0538793
0.053882
0.0538847
0.0538875
0.0538902
0.0538929
0.0538956
0.0538984
0.0539011
0.0539038
0.0539066
0.0539093
0.0539121
0.0539148
0.0539175
0.0539203
0.053923
0.0539258
0.0539285
0.0539313
0.053934
0.0539368
0.0539396
0.0539423
0.0539451
0.0539478
0.0539506
0.0539534
0.0539561
0.0539589
0.0539617
0.0539644
0.0539672
0.05397
0.0539727
0.0539755
0.0539783
0.0539811
0.0539839
0.0539867
0.0539894
0.0539922
0.053995
0.0539978
0.0540006
0.0540034
0.0540062
0.054009
0.0540118
0.0540146
0.0540174
0.0540202
0.054023
0.0540258
0.0540286
0.0540314
0.0540342
0.054037
0.0540398
0.0540427
0.0540455
0.0540483
0.0540511
0.0540539
0.0540568
0.0540596
0.0540624
0.0540653
0.0540681
0.0540709
0.0540738
0.0540766
0.0540794
0.0540823
0.0540851
0.054088
0.0540908
0.0540936
0.0540965
0.0540993
0.0541022
0.054105
0.0541079
0.0541108
0.0541136
0.0541165
0.0541193
0.0541222
0.0541251
0.0541279
0.0541308
0.0541337
0.0541365
0.0541394
0.0541423
0.0541452
0.0541481
0.0541509
0.0541538
0.0541567
0.0541596
0.0541625
0.0541654
0.0541683
0.0541711
0.0541741
0.0541769
0.0541799
0.0541827
0.0541857
0.0541885
0.0541915
0.0541943
0.0541973
0.0542002
0.0542031
0.054206
0.054209
0.0542119
0.0542148
0.0542178
0.0542206
0.0542238
0.0542264
0.0542301
0.0542319
0.0542367
0.0542329
0.0542329
0.0542329
1
0.518766
0.327403
0.255349
0.217851
0.194406
0.178214
0.16631
0.157161
0.149887
0.143942
0.138973
0.134739
0.131074
0.127858
0.125004
0.122447
0.120138
0.118038
0.116116
0.11435
0.112718
0.111205
0.109797
0.108483
0.107254
0.1061
0.105015
0.103993
0.103028
0.102115
0.101251
0.100432
0.0996531
0.098913
0.0982091
0.0975397
0.0969026
0.0962958
0.0957175
0.0951663
0.094642
0.0941447
0.0936749
0.093233
0.0928185
0.0924312
0.0920708
0.0917372
0.0914307
0.0911507
0.0908963
0.090665
0.0904538
0.0902595
0.0900796
0.0899124
0.0897575
0.0896151
0.0894855
0.0893685
0.0892632
0.0891681
0.0890812
0.0890008
0.0889255
0.0888549
0.0887889
0.0887283
0.0886738
0.0886265
0.0885866
0.0885543
0.0885293
0.0885108
0.0884979
0.0884897
0.088485
0.088483
0.088483
0.0884843
0.0884865
0.0884894
0.0884926
0.0884961
0.0884998
0.0885036
0.0885074
0.0885114
0.0885154
0.0885194
0.0885234
0.0885275
0.0885316
0.0885356
0.0885397
0.0885438
0.0885479
0.088552
0.0885561
0.0885602
0.0885643
0.0885684
0.0885725
0.0885766
0.0885807
0.0885848
0.0885889
0.088593
0.0885972
0.0886013
0.0886054
0.0886095
0.0886137
0.0886178
0.0886219
0.088626
0.0886302
0.0886343
0.0886385
0.0886426
0.0886468
0.0886509
0.088655
0.0886592
0.0886634
0.0886675
0.0886717
0.0886758
0.08868
0.0886842
0.0886883
0.0886925
0.0886967
0.0887009
0.088705
0.0887092
0.0887134
0.0887176
0.0887218
0.088726
0.0887301
0.0887343
0.0887385
0.0887427
0.0887469
0.0887511
0.0887553
0.0887596
0.0887638
0.088768
0.0887722
0.0887764
0.0887806
0.0887848
0.0887891
0.0887933
0.0887975
0.0888018
0.088806
0.0888102
0.0888145
0.0888187
0.0888229
0.0888272
0.0888314
0.0888357
0.0888399
0.0888442
0.0888485
0.0888527
0.088857
0.0888612
0.0888655
0.0888698
0.088874
0.0888783
0.0888826
0.0888869
0.0888912
0.0888954
0.0888997
0.088904
0.0889083
0.0889126
0.0889169
0.0889212
0.0889255
0.0889298
0.0889341
0.0889384
0.0889427
0.088947
0.0889513
0.0889556
0.08896
0.0889643
0.0889686
0.0889729
0.0889773
0.0889816
0.0889859
0.0889903
0.0889946
0.0889989
0.0890033
0.0890076
0.089012
0.0890163
0.0890207
0.089025
0.0890294
0.0890337
0.0890381
0.0890425
0.0890468
0.0890512
0.0890556
0.08906
0.0890643
0.0890687
0.0890731
0.0890775
0.0890819
0.0890863
0.0890907
0.089095
0.0890994
0.0891038
0.0891082
0.0891126
0.0891171
0.0891215
0.0891259
0.0891303
0.0891347
0.0891391
0.0891436
0.089148
0.0891524
0.0891568
0.0891613
0.0891657
0.0891701
0.0891746
0.089179
0.0891835
0.0891879
0.0891924
0.0891968
0.0892013
0.0892057
0.0892102
0.0892146
0.0892191
0.0892236
0.0892281
0.0892325
0.089237
0.0892415
0.089246
0.0892504
0.0892549
0.0892594
0.0892639
0.0892684
0.0892729
0.0892774
0.0892819
0.0892864
0.0892909
0.0892954
0.0892999
0.0893044
0.089309
0.0893135
0.089318
0.0893225
0.089327
0.0893316
0.0893361
0.0893406
0.0893452
0.0893497
0.0893543
0.0893588
0.0893634
0.0893679
0.0893725
0.089377
0.0893816
0.0893861
0.0893907
0.0893953
0.0893998
0.0894044
0.089409
0.0894136
0.0894181
0.0894227
0.0894273
0.0894319
0.0894365
0.0894411
0.0894457
0.0894503
0.0894549
0.0894595
0.0894641
0.0894687
0.0894733
0.0894779
0.0894825
0.0894871
0.0894918
0.0894964
0.089501
0.0895056
0.0895103
0.0895149
0.0895195
0.0895242
0.0895288
0.0895335
0.0895381
0.0895428
0.0895474
0.0895521
0.0895568
0.0895614
0.0895661
0.0895707
0.0895754
0.0895801
0.0895848
0.0895894
0.0895941
0.0895988
0.0896035
0.0896082
0.0896129
0.0896176
0.0896223
0.089627
0.0896317
0.0896364
0.0896411
0.0896458
0.0896505
0.0896552
0.08966
0.0896647
0.0896694
0.0896741
0.0896789
0.0896836
0.0896883
0.0896931
0.0896978
0.0897026
0.0897073
0.0897121
0.0897168
0.0897216
0.0897264
0.0897311
0.0897359
0.0897407
0.0897454
0.0897502
0.089755
0.0897598
0.0897645
0.0897694
0.0897741
0.0897789
0.0897837
0.0897885
0.0897933
0.0897981
0.0898029
0.0898078
0.0898125
0.0898174
0.0898221
0.0898271
0.0898318
0.0898367
0.0898415
0.0898464
0.0898513
0.089856
0.0898612
0.0898656
0.0898716
0.0898747
0.0898824
0.0898773
0.0898773
0.0898773
1
0.660888
0.446896
0.35288
0.302032
0.269853
0.247505
0.231022
0.218332
0.20823
0.199971
0.193065
0.187182
0.18209
0.177623
0.173661
0.170112
0.166908
0.163994
0.16133
0.15888
0.156618
0.154522
0.152571
0.150751
0.149048
0.14745
0.145948
0.144532
0.143196
0.141933
0.140737
0.139603
0.138526
0.137502
0.136529
0.135603
0.134722
0.133883
0.133084
0.132324
0.1316
0.130915
0.130268
0.12966
0.129091
0.128559
0.128065
0.127608
0.127189
0.126806
0.126459
0.126143
0.125854
0.125588
0.125342
0.125113
0.124902
0.124708
0.124531
0.124372
0.124228
0.124098
0.123979
0.123869
0.123767
0.12367
0.123581
0.1235
0.123427
0.123365
0.123312
0.12327
0.123238
0.123214
0.123198
0.123188
0.123182
0.12318
0.12318
0.123183
0.123186
0.12319
0.123194
0.123199
0.123205
0.12321
0.123215
0.123221
0.123226
0.123232
0.123238
0.123243
0.123249
0.123255
0.12326
0.123266
0.123272
0.123277
0.123283
0.123289
0.123294
0.1233
0.123306
0.123311
0.123317
0.123323
0.123329
0.123334
0.12334
0.123346
0.123352
0.123357
0.123363
0.123369
0.123374
0.12338
0.123386
0.123392
0.123398
0.123403
0.123409
0.123415
0.123421
0.123426
0.123432
0.123438
0.123444
0.123449
0.123455
0.123461
0.123467
0.123473
0.123478
0.123484
0.12349
0.123496
0.123502
0.123508
0.123513
0.123519
0.123525
0.123531
0.123537
0.123542
0.123548
0.123554
0.12356
0.123566
0.123572
0.123578
0.123583
0.123589
0.123595
0.123601
0.123607
0.123613
0.123619
0.123625
0.12363
0.123636
0.123642
0.123648
0.123654
0.12366
0.123666
0.123672
0.123678
0.123684
0.123689
0.123695
0.123701
0.123707
0.123713
0.123719
0.123725
0.123731
0.123737
0.123743
0.123749
0.123755
0.123761
0.123767
0.123773
0.123779
0.123785
0.123791
0.123797
0.123803
0.123809
0.123815
0.12382
0.123826
0.123832
0.123838
0.123844
0.12385
0.123857
0.123863
0.123869
0.123875
0.123881
0.123887
0.123893
0.123899
0.123905
0.123911
0.123917
0.123923
0.123929
0.123935
0.123941
0.123947
0.123953
0.123959
0.123965
0.123971
0.123977
0.123984
0.12399
0.123996
0.124002
0.124008
0.124014
0.12402
0.124026
0.124032
0.124038
0.124045
0.124051
0.124057
0.124063
0.124069
0.124075
0.124081
0.124087
0.124094
0.1241
0.124106
0.124112
0.124118
0.124124
0.12413
0.124137
0.124143
0.124149
0.124155
0.124161
0.124168
0.124174
0.12418
0.124186
0.124192
0.124199
0.124205
0.124211
0.124217
0.124223
0.12423
0.124236
0.124242
0.124248
0.124255
0.124261
0.124267
0.124273
0.124279
0.124286
0.124292
0.124298
0.124305
0.124311
0.124317
0.124323
0.12433
0.124336
0.124342
0.124348
0.124355
0.124361
0.124367
0.124374
0.12438
0.124386
0.124393
0.124399
0.124405
0.124412
0.124418
0.124424
0.124431
0.124437
0.124443
0.12445
0.124456
0.124462
0.124469
0.124475
0.124481
0.124488
0.124494
0.1245
0.124507
0.124513
0.12452
0.124526
0.124532
0.124539
0.124545
0.124552
0.124558
0.124564
0.124571
0.124577
0.124584
0.12459
0.124596
0.124603
0.124609
0.124616
0.124622
0.124629
0.124635
0.124642
0.124648
0.124655
0.124661
0.124667
0.124674
0.12468
0.124687
0.124693
0.1247
0.124706
0.124713
0.124719
0.124726
0.124732
0.124739
0.124745
0.124752
0.124758
0.124765
0.124772
0.124778
0.124785
0.124791
0.124798
0.124804
0.124811
0.124817
0.124824
0.12483
0.124837
0.124844
0.12485
0.124857
0.124863
0.12487
0.124877
0.124883
0.12489
0.124896
0.124903
0.12491
0.124916
0.124923
0.124929
0.124936
0.124943
0.124949
0.124956
0.124963
0.124969
0.124976
0.124983
0.124989
0.124996
0.125003
0.125009
0.125016
0.125023
0.125029
0.125036
0.125043
0.125049
0.125056
0.125063
0.12507
0.125076
0.125083
0.12509
0.125097
0.125103
0.125111
0.125116
0.125126
0.12512
0.12512
0.12512
1
0.776803
0.557827
0.44688
0.384104
0.343747
0.315514
0.294609
0.278474
0.265612
0.255087
0.246284
0.238783
0.232291
0.226598
0.221548
0.217027
0.212946
0.209236
0.205845
0.202727
0.199849
0.197181
0.1947
0.192385
0.19022
0.188188
0.186278
0.184478
0.18278