# vtk DataFile Version 2.0
FlowField
ASCII
DATASET STRUCTURED_GRID
DIMENSIONS 400 1 200
POINTS 80000 float
0 0 0
0.08 0 0
0.16 0 0
0.24 0 0
0.32 0 0
0.4 0 0
0.48 0 0
0.56 0 0
0.64 0 0
0.72 0 0
0.8 0 0
0.88 0 0
0.96 0 0
1.04 0 0
1.12 0 0
1.2 0 0
1.28 0 0
1.36 0 0
1.44 0 0
1.52 0 0
1.6 0 0
1.68 0 0
1.76 0 0
1.84 0 0
1.92 0 0
2 0 0
2.08 0 0
2.16 0 0
2.24 0 0
2.32 0 0
2.4 0 0
2.48 0 0
2.56 0 0
2.64 0 0
2.72 0 0
2.8 0 0
2.88 0 0
2.96 0 0
3.04 0 0
3.12 0 0
3.2 0 0
3.28 0 0
3.36 0 0
3.44 0 0
3.52 0 0
3.6 0 0
3.68 0 0
3.76 0 0
3.84 0 0
3.92 0 0
4 0 0
4.08 0 0
4.16 0 0
4.24 0 0
4.32 0 0
4.4 0 0
4.48 0 0
4.56 0 0
4.64 0 0
4.72 0 0
4.8 0 0
4.88 0 0
4.96 0 0
5.04 0 0
5.12 0 0
5.2 0 0
5.28 0 0
5.36 0 0
5.44 0 0
5.52 0 0
5.6 0 0
5.68 0 0
5.76 0 0
5.84 0 0
5.92 0 0
6 0 0
6.08 0 0
6.16 0 0
6.24 0 0
6.32 0 0
6.4 0 0
6.48 0 0
6.56 0 0
6.64 0 0
6.72 0 0
6.8 0 0
6.88 0 0
6.96 0 0
7.04 0 0
7.12 0 0
7.2 0 0
7.28 0 0
7.36 0 0
7.44 0 0
7.52 0 0
7.6 0 0
7.68 0 0
7.76 0 0
7.84 0 0
7.92 0 0
8 0 0
8.08 0 0
8.16 0 0
8.24 0 0
8.32 0 0
8.4 0 0
8.48 0 0
8.56 0 0
8.64 0 0
8.72 0 0
8.8 0 0
8.88 0 0
8.96 0 0
9.04 0 0
9.12 0 0
9.2 0 0
9.28 0 0
9.36 0 0
9.44 0 0
9.52 0 0
9.6 0 0
9.68 0 0
9.76 0 0
9.84 0 0
9.92 0 0
10 0 0
10.08 0 0
10.16 0 0
10.24 0 0
10.32 0 0
10.4 0 0
10.48 0 0
10.56 0 0
10.64 0 0
10.72 0 0
10.8 0 0
10.88 0 0
10.96 0 0
11.04 0 0
11.12 0 0
11.2 0 0
11.28 0 0
11.36 0 0
11.44 0 0
11.52 0 0
11.6 0 0
11.68 0 0
11.76 0 0
11.84 0 0
11.92 0 0
12 0 0
12.08 0 0
12.16 0 0
12.24 0 0
12.32 0 0
12.4 0 0
12.48 0 0
12.56 0 0
12.64 0 0
12.72 0 0
12.8 0 0
12.88 0 0
12.96 0 0
13.04 0 0
13.12 0 0
13.2 0 0
13.28 0 0
13.36 0 0
13.44 0 0
13.52 0 0
13.6 0 0
13.68 0 0
13.76 0 0
13.84 0 0
13.92 0 0
14 0 0
14.08 0 0
14.16 0 0
14.24 0 0
14.32 0 0
14.4 0 0
14.48 0 0
14.56 0 0
14.64 0 0
14.72 0 0
14.8 0 0
14.88 0 0
14.96 0 0
15.04 0 0
15.12 0 0
15.2 0 0
15.28 0 0
15.36 0 0
15.44 0 0
15.52 0 0
15.6 0 0
15.68 0 0
15.76 0 0
15.84 0 0
15.92 0 0
16 0 0
16.08 0 0
16.16 0 0
16.24 0 0
16.32 0 0
16.4 0 0
16.48 0 0
16.56 0 0
16.64 0 0
16.72 0 0
16.8 0 0
16.88 0 0
16.96 0 0
17.04 0 0
17.12 0 0
17.2 0 0
17.28 0 0
17.36 0 0
17.44 0 0
17.52 0 0
17.6 0 0
17.68 0 0
17.76 0 0
17.84 0 0
17.92 0 0
18 0 0
18.08 0 0
18.16 0 0
18.24 0 0
18.32 0 0
18.4 0 0
18.48 0 0
18.56 0 0
18.64 0 0
18.72 0 0
18.8 0 0
18.88 0 0
18.96 0 0
19.04 0 0
19.12 0 0
19.2 0 0
19.28 0 0
19.36 0 0
19.44 0 0
19.52 0 0
19.6 0 0
19.68 0 0
19.76 0 0
19.84 0 0
19.92 0 0
20 0 0
20.08 0 0
20.16 0 0
20.24 0 0
20.32 0 0
20.4 0 0
20.48 0 0
20.56 0 0
20.64 0 0
20.72 0 0
20.8 0 0
20.88 0 0
20.96 0 0
21.04 0 0
21.12 0 0
21.2 0 0
21.28 0 0
21.36 0 0
21.44 0 0
21.52 0 0
21.6 0 0
21.68 0 0
21.76 0 0
21.84 0 0
21.92 0 0
22 0 0
22.08 0 0
22.16 0 0
22.24 0 0
22.32 0 0
22.4 0 0
22.48 0 0
22.56 0 0
22.64 0 0
22.72 0 0
22.8 0 0
22.88 0 0
22.96 0 0
23.04 0 0
23.12 0 0
23.2 0 0
23.28 0 0
23.36 0 0
23.44 0 0
23.52 0 0
23.6 0 0
23.68 0 0
23.76 0 0
23.84 0 0
23.92 0 0
24 0 0
24.08 0 0
24.16 0 0
24.24 0 0
24.32 0 0
24.4 0 0
24.48 0 0
24.56 0 0
24.64 0 0
24.72 0 0
24.8 0 0
24.88 0 0
24.96 0 0
25.04 0 0
25.12 0 0
25.2 0 0
25.28 0 0
25.36 0 0
25.44 0 0
25.52 0 0
25.6 0 0
25.68 0 0
25.76 0 0
25.84 0 0
25.92 0 0
26 0 0
26.08 0 0
26.16 0 0
26.24 0 0
26.32 0 0
26.4 0 0
26.48 0 0
26.56 0 0
26.64 0 0
26.72 0 0
26.8 0 0
26.88 0 0
26.96 0 0
27.04 0 0
27.12 0 0
27.2 0 0
27.28 0 0
27.36 0 0
27.44 0 0
27.52 0 0
27.6 0 0
27.68 0 0
27.76 0 0
27.84 0 0
27.92 0 0
28 0 0
28.08 0 0
28.16 0 0
28.24 0 0
28.32 0 0
28.4 0 0
28.48 0 0
28.56 0 0
28.64 0 0
28.72 0 0
28.8 0 0
28.88 0 0
28.96 0 0
29.04 0 0
29.12 0 0
29.2 0 0
29.28 0 0
29.36 0 0
29.44 0 0
29.52 0 0
29.6 0 0
29.68 0 0
29.76 0 0
29.84 0 0
29.92 0 0
30 0 0
30.08 0 0
30.16 0 0
30.24 0 0
30.32 0 0
30.4 0 0
30.48 0 0
30.56 0 0
30.64 0 0
30.72 0 0
30.8 0 0
30.88 0 0
30.96 0 0
31.04 0 0
31.12 0 0
31.2 0 0
31.28 0 0
31.36 0 0
31.44 0 0
31.52 0 0
31.6 0 0
31.68 0 0
31.76 0 0
31.84 0 0
31.92 0 0
0 0.005 0
0.08 0.005 0
0.16 0.005 0
0.24 0.005 0
0.32 0.005 0
0.4 0.005 0
0.48 0.005 0
0.56 0.005 0
0.64 0.005 0
0.72 0.005 0
0.8 0.005 0
0.88 0.005 0
0.96 0.005 0
1.04 0.005 0
1.12 0.005 0
1.2 0.005 0
1.28 0.005 0
1.36 0.005 0
1.44 0.005 0
1.52 0.005 0
1.6 0.005 0
1.68 0.005 0
1.76 0.005 0
1.84 0.005 0
1.92 0.005 0
2 0.005 0
2.08 0.005 0
2.16 0.005 0
2.24 0.005 0
2.32 0.005 0
2.4 0.005 0
2.48 0.005 0
2.56 0.005 0
2.64 0.005 0
2.72 0.005 0
2.8 0.005 0
2.88 0.005 0
2.96 0.005 0
3.04 0.005 0
3.12 0.005 0
3.2 0.005 0
3.28 0.005 0
3.36 0.005 0
3.44 0.005 0
3.52 0.005 0
3.6 0.005 0
3.68 0.005 0
3.76 0.005 0
3.84 0.005 0
3.92 0.005 0
4 0.005 0
4.08 0.005 0
4.16 0.005 0
4.24 0.005 0
4.32 0.005 0
4.4 0.005 0
4.48 0.005 0
4.56 0.005 0
4.64 0.005 0
4.72 0.005 0
4.8 0.005 0
4.88 0.005 0
4.96 0.005 0
5.04 0.005 0
5.12 0.005 0
5.2 0.005 0
5.28 0.005 0
5.36 0.005 0
5.44 0.005 0
5.52 0.005 0
5.6 0.005 0
5.68 0.005 0
5.76 0.005 0
5.84 0.005 0
5.92 0.005 0
6 0.005 0
6.08 0.005 0
6.16 0.005 0
6.24 0.005 0
6.32 0.005 0
6.4 0.005 0
6.48 0.005 0
6.56 0.005 0
6.64 0.005 0
6.72 0.005 0
6.8 0.005 0
6.88 0.005 0
6.96 0.005 0
7.04 0.005 0
7.12 0.005 0
7.2 0.005 0
7.28 0.005 0
7.36 0.005 0
7.44 0.005 0
7.52 0.005 0
7.6 0.005 0
7.68 0.005 0
7.76 0.005 0
7.84 0.005 0
7.92 0.005 0
8 0.005 0
8.08 0.005 0
8.16 0.005 0
8.24 0.005 0
8.32 0.005 0
8.4 0.005 0
8.48 0.005 0
8.56 0.005 0
8.64 0.005 0
8.72 0.005 0
8.8 0.005 0
8.88 0.005 0
8.96 0.005 0
9.04 0.005 0
9.12 0.005 0
9.2 0.005 0
9.28 0.005 0
9.36 0.005 0
9.44 0.005 0
9.52 0.005 0
9.6 0.005 0
9.68 0.005 0
9.76 0.005 0
9.84 0.005 0
9.92 0.005 0
10 0.005 0
10.08 0.005 0
10.16 0.005 0
10.24 0.005 0
10.32 0.005 0
10.4 0.005 0
10.48 0.005 0
10.56 0.005 0
10.64 0.005 0
10.72 0.005 0
10.8 0.005 0
10.88 0.005 0
10.96 0.005 0
11.04 0.005 0
11.12 0.005 0
11.2 0.005 0
11.28 0.005 0
11.36 0.005 0
11.44 0.005 0
11.52 0.005 0
11.6 0.005 0
11.68 0.005 0
11.76 0.005 0
11.84 0.005 0
11.92 0.005 0
12 0.005 0
12.08 0.005 0
12.16 0.005 0
12.24 0.005 0
12.32 0.005 0
12.4 0.005 0
12.48 0.005 0
12.56 0.005 0
12.64 0.005 0
12.72 0.005 0
12.8 0.005 0
12.88 0.005 0
12.96 0.005 0
13.04 0.005 0
13.12 0.005 0
13.2 0.005 0
13.28 0.005 0
13.36 0.005 0
13.44 0.005 0
13.52 0.005 0
13.6 0.005 0
13.68 0.005 0
13.76 0.005 0
13.84 0.005 0
13.92 0.005 0
14 0.005 0
14.08 0.005 0
14.16 0.005 0
14.24 0.005 0
14.32 0.005 0
14.4 0.005 0
14.48 0.005 0
14.56 0.005 0
14.64 0.005 0
14.72 0.005 0
14.8 0.005 0
14.88 0.005 0
14.96 0.005 0
15.04 0.005 0
15.12 0.005 0
15.2 0.005 0
15.28 0.005 0
15.36 0.005 0
15.44 0.005 0
15.52 0.005 0
15.6 0.005 0
15.68 0.005 0
15.76 0.005 0
15.84 0.005 0
15.92 0.005 0
16 0.005 0
16.08 0.005 0
16.16 0.005 0
16.24 0.005 0
16.32 0.005 0
16.4 0.005 0
16.48 0.005 0
16.56 0.005 0
16.64 0.005 0
16.72 0.005 0
16.8 0.005 0
16.88 0.005 0
16.96 0.005 0
17.04 0.005 0
17.12 0.005 0
17.2 0.005 0
17.28 0.005 0
17.36 0.005 0
17.44 0.005 0
17.52 0.005 0
17.6 0.005 0
17.68 0.005 0
17.76 0.005 0
17.84 0.005 0
17.92 0.005 0
18 0.005 0
18.08 0.005 0
18.16 0.005 0
18.24 0.005 0
18.32 0.005 0
18.4 0.005 0
18.48 0.005 0
18.56 0.005 0
18.64 0.005 0
18.72 0.005 0
18.8 0.005 0
18.88 0.005 0
18.96 0.005 0
19.04 0.005 0
19.12 0.005 0
19.2 0.005 0
19.28 0.005 0
19.36 0.005 0
19.44 0.005 0
19.52 0.005 0
19.6 0.005 0
19.68 0.005 0
19.76 0.005 0
19.84 0.005 0
19.92 0.005 0
20 0.005 0
20.08 0.005 0
20.16 0.005 0
20.24 0.005 0
20.32 0.005 0
20.4 0.005 0
20.48 0.005 0
20.56 0.005 0
20.64 0.005 0
20.72 0.005 0
20.8 0.005 0
20.88 0.005 0
20.96 0.005 0
21.04 0.005 0
21.12 0.005 0
21.2 0.005 0
21.28 0.005 0
21.36 0.005 0
21.44 0.005 0
21.52 0.005 0
21.6 0.005 0
21.68 0.005 0
21.76 0.005 0
21.84 0.005 0
21.92 0.005 0
22 0.005 0
22.08 0.005 0
22.16 0.005 0
22.24 0.005 0
22.32 0.005 0
22.4 0.005 0
22.48 0.005 0
22.56 0.005 0
22.64 0.005 0
22.72 0.005 0
22.8 0.005 0
22.88 0.005 0
22.96 0.005 0
23.04 0.005 0
23.12 0.005 0
23.2 0.005 0
23.28 0.005 0
23.36 0.005 0
23.44 0.005 0
23.52 0.005 0
23.6 0.005 0
23.68 0.005 0
23.76 0.005 0
23.84 0.005 0
23.92 0.005 0
24 0.005 0
24.08 0.005 0
24.16 0.005 0
24.24 0.005 0
24.32 0.005 0
24.4 0.005 0
24.48 0.005 0
24.56 0.005 0
24.64 0.005 0
24.72 0.005 0
24.8 0.005 0
24.88 0.005 0
24.96 0.005 0
25.04 0.005 0
25.12 0.005 0
25.2 0.005 0
25.28 0.005 0
25.36 0.005 0
25.44 0.005 0
25.52 0.005 0
25.6 0.005 0
25.68 0.005 0
25.76 0.005 0
25.84 0.005 0
25.92 0.005 0
26 0.005 0
26.08 0.005 0
26.16 0.005 0
26.24 0.005 0
26.32 0.005 0
26.4 0.005 0
26.48 0.005 0
26.56 0.005 0
26.64 0.005 0
26.72 0.005 0
26.8 0.005 0
26.88 0.005 0
26.96 0.005 0
27.04 0.005 0
27.12 0.005 0
27.2 0.005 0
27.28 0.005 0
27.36 0.005 0
27.44 0.005 0
27.52 0.005 0
27.6 0.005 0
27.68 0.005 0
27.76 0.005 0
27.84 0.005 0
27.92 0.005 0
28 0.005 0
28.08 0.005 0
28.16 0.005 0
28.24 0.005 0
28.32 0.005 0
28.4 0.005 0
28.48 0.005 0
28.56 0.005 0
28.64 0.005 0
28.72 0.005 0
28.8 0.005 0
28.88 0.005 0
28.96 0.005 0
29.04 0.005 0
29.12 0.005 0
29.2 0.005 0
29.28 0.005 0
29.36 0.005 0
29.44 0.005 0
29.52 0.005 0
29.6 0.005 0
29.68 0.005 0
29.76 0.005 0
29.84 0.005 0
29.92 0.005 0
30 0.005 0
30.08 0.005 0
30.16 0.005 0
30.24 0.005 0
30.32 0.005 0
30.4 0.005 0
30.48 0.005 0
30.56 0.005 0
30.64 0.005 0
30.72 0.005 0
30.8 0.005 0
30.88 0.005 0
30.96 0.005 0
31.04 0.005 0
31.12 0.005 0
31.2 0.005 0
31.28 0.005 0
31.36 0.005 0
31.44 0.005 0
31.52 0.005 0
31.6 0.005 0
31.68 0.005 0
31.76 0.005 0
31.84 0.005 0
31.92 0.005 0
0 0.01 0
0.08 0.01 0
0.16 0.01 0
0.24 0.01 0
0.32 0.01 0
0.4 0.01 0
0.48 0.01 0
0.56 0.01 0
0.64 0.01 0
0.72 0.01 0
0.8 0.01 0
0.88 0.01 0
0.96 0.01 0
1.04 0.01 0
1.12 0.01 0
1.2 0.01 0
1.28 0.01 0
1.36 0.01 0
1.44 0.01 0
1.52 0.01 0
1.6 0.01 0
1.68 0.01 0
1.76 0.01 0
1.84 0.01 0
1.92 0.01 0
2 0.01 0
2.08 0.01 0
2.16 0.01 0
2.24 0.01 0
2.32 0.01 0
2.4 0.01 0
2.48 0.01 0
2.56 0.01 0
2.64 0.01 0
2.72 0.01 0
2.8 0.01 0
2.88 0.01 0
2.96 0.01 0
3.04 0.01 0
3.12 0.01 0
3.2 0.01 0
3.28 0.01 0
3.36 0.01 0
3.44 0.01 0
3.52 0.01 0
3.6 0.01 0
3.68 0.01 0
3.76 0.01 0
3.84 0.01 0
3.92 0.01 0
4 0.01 0
4.08 0.01 0
4.16 0.01 0
4.24 0.01 0
4.32 0.01 0
4.4 0.01 0
4.48 0.01 0
4.56 0.01 0
4.64 0.01 0
4.72 0.01 0
4.8 0.01 0
4.88 0.01 0
4.96 0.01 0
5.04 0.01 0
5.12 0.01 0
[...]
POINT_DATA 80000

SCALARS p float 1
LOOKUP_TABLE default
1
56.2382
55.9367
55.8958
55.8761
55.8622
55.8509
55.8409
55.8318
55.8234
55.8154
55.8079
55.8008
55.794
55.7876
55.7815
55.776
55.771
55.7666
55.7626
55.759
55.7556
55.7523
55.7493
55.7464
55.7437
55.7413
55.7391
55.7371
55.7353
55.7336
55.7321
55.7307
55.7293
55.7281
55.7269
55.7258
55.7248
55.7239
55.7231
55.7223
55.7216
55.721
55.7204
55.7199
55.7195
55.7191
55.7188
55.7185
55.7183
55.7181
55.718
55.7179
55.7178
55.7178
55.7178
55.7178
55.7178
55.7179
55.7179
55.718
55.718
55.7181
55.7182
55.7182
55.7183
55.7183
55.7183
55.7183
55.7183
55.7183
55.7182
55.7181
55.718
55.7178
55.7176
55.7173
55.717
55.7167
55.7163
55.7159
55.7154
55.7149
55.7143
55.7137
55.713
55.7122
55.7114
55.7105
55.7096
55.7086
55.7076
55.7065
55.7053
55.704
55.7028
55.7014
55.7
55.6985
55.697
55.6954
55.6937
55.692
55.6902
55.6883
55.6864
55.6845
55.6825
55.6804
55.6783
55.6761
55.6738
55.6716
55.6692
55.6668
55.6644
55.6619
55.6594
55.6568
55.6542
55.6515
55.6488
55.646
55.6432
55.6404
55.6375
55.6346
55.6316
55.6287
55.6256
55.6226
55.6195
55.6164
55.6132
55.6101
55.6069
55.6036
55.6004
55.5971
55.5938
55.5905
55.5871
55.5837
55.5803
55.5769
55.5735
55.57
55.5665
55.5631
55.5595
55.556
55.5525
55.5489
55.5453
55.5418
55.5382
55.5345
55.5309
55.5273
55.5236
55.52
55.5163
55.5126
55.5089
55.5052
55.5015
55.4978
55.494
55.4903
55.4865
55.4828
55.479
55.4752
55.4714
55.4677
55.4639
55.4601
55.4562
55.4524
55.4486
55.4448
55.4409
55.4371
55.4333
55.4294
55.4255
55.4217
55.4178
55.4139
55.4101
55.4062
55.4023
55.3984
55.3945
55.3906
55.3867
55.3828
55.3789
55.375
55.3711
55.3672
55.3632
55.3593
55.3554
55.3515
55.3475
55.3436
55.3396
55.3357
55.3318
55.3278
55.3239
55.3199
55.3159
55.312
55.308
55.3041
55.3001
55.2961
55.2922
55.2882
55.2842
55.2802
55.2763
55.2723
55.2683
55.2643
55.2603
55.2564
55.2524
55.2484
55.2444
55.2404
55.2364
55.2324
55.2284
55.2244
55.2204
55.2164
55.2124
55.2084
55.2044
55.2004
55.1964
55.1924
55.1884
55.1844
55.1804
55.1764
55.1724
55.1683
55.1643
55.1603
55.1563
55.1523
55.1483
55.1443
55.1402
55.1362
55.1322
55.1282
55.1242
55.1202
55.1161
55.1121
55.1081
55.1041
55.1001
55.096
55.092
55.088
55.084
55.08
55.076
55.0719
55.0679
55.0639
55.0599
55.0559
55.0518
55.0478
55.0438
55.0398
55.0358
55.0317
55.0277
55.0237
55.0197
55.0157
55.0116
55.0076
55.0036
54.9996
54.9956
54.9916
54.9875
54.9835
54.9795
54.9755
54.9715
54.9675
54.9635
54.9595
54.9554
54.9514
54.9474
54.9434
54.9394
54.9354
54.9314
54.9274
54.9234
54.9194
54.9154
54.9114
54.9074
54.9034
54.8994
54.8954
54.8914
54.8874
54.8834
54.8794
54.8754
54.8714
54.8674
54.8634
54.8594
54.8555
54.8515
54.8475
54.8435
54.8395
54.8355
54.8316
54.8276
54.8236
54.8196
54.8157
54.8117
54.8077
54.8038
54.7998
54.7958
54.7919
54.7879
54.7839
54.78
54.776
54.7721
54.7681
54.7642
54.7602
54.7563
54.7523
54.7484
54.7444
54.7405
54.7365
54.7326
54.7287
54.7247
54.7208
54.7169
54.7129
54.709
54.7051
54.7012
54.6972
54.6933
54.6894
54.6855
54.6816
54.6777
54.6738
54.6699
54.666
54.6621
54.6582
54.6543
54.6504
54.6465
54.6426
54.6387
54.6348
54.631
54.6271
54.6232
54.6193
54.6155
54.6116
54.6077
54.6039
54.6
54.5962
54.5923
54.5885
54.5846
54.5808
0.5
56.2382
56.2382
55.9367
55.8958
55.8761
55.8622
55.8509
55.8409
55.8318
55.8234
55.8154
55.8079
55.8008
55.794
55.7876
55.7815
55.776
55.771
55.7666
55.7626
55.759
55.7556
55.7523
55.7493
55.7464
55.7437
55.7413
55.7391
55.7371
55.7353
55.7336
55.7321
55.7307
55.7293
55.7281
55.7269
55.7258
55.7248
55.7239
55.7231
55.7223
55.7216
55.721
55.7204
55.7199
55.7195
55.7191
55.7188
55.7185
55.7183
55.7181
55.718
55.7179
55.7178
55.7178
55.7178
55.7178
55.7178
55.7179
55.7179
55.718
55.718
55.7181
55.7182
55.7182
55.7183
55.7183
55.7183
55.7183
55.7183
55.7183
55.7182
55.7181
55.718
55.7178
55.7176
55.7173
55.717
55.7167
55.7163
55.7159
55.7154
55.7149
55.7143
55.7137
55.713
55.7122
55.7114
55.7105
55.7096
55.7086
55.7076
55.7065
55.7053
55.704
55.7028
55.7014
55.7
55.6985
55.697
55.6954
55.6937
55.692
55.6902
55.6883
55.6864
55.6845
55.6825
55.6804
55.6783
55.6761
55.6738
55.6716
55.6692
55.6668
55.6644
55.6619
55.6594
55.6568
55.6542
55.6515
55.6488
55.646
55.6432
55.6404
55.6375
55.6346
55.6316
55.6287
55.6256
55.6226
55.6195
55.6164
55.6132
55.6101
55.6069
55.6036
55.6004
55.5971
55.5938
55.5905
55.5871
55.5837
55.5803
55.5769
55.5735
55.57
55.5665
55.5631
55.5595
55.556
55.5525
55.5489
55.5453
55.5418
55.5382
55.5345
55.5309
55.5273
55.5236
55.52
55.5163
55.5126
55.5089
55.5052
55.5015
55.4978
55.494
55.4903
55.4865
55.4828
55.479
55.4752
55.4714
55.4677
55.4639
55.4601
55.4562
55.4524
55.4486
55.4448
55.4409
55.4371
55.4333
55.4294
55.4255
55.4217
55.4178
55.4139
55.4101
55.4062
55.4023
55.3984
55.3945
55.3906
55.3867
55.3828
55.3789
55.375
55.3711
55.3672
55.3632
55.3593
55.3554
55.3515
55.3475
55.3436
55.3396
55.3357
55.3318
55.3278
55.3239
55.3199
55.3159
55.312
55.308
55.3041
55.3001
55.2961
55.2922
55.2882
55.2842
55.2802
55.2763
55.2723
55.2683
55.2643
55.2603
55.2564
55.2524
55.2484
55.2444
55.2404
55.2364
55.2324
55.2284
55.2244
55.2204
55.2164
55.2124
55.2084
55.2044
55.2004
55.1964
55.1924
55.1884
55.1844
55.1804
55.1764
55.1724
55.1683
55.1643
55.1603
55.1563
55.1523
55.1483
55.1443
55.1402
55.1362
55.1322
55.1282
55.1242
55.1202
55.1161
55.1121
55.1081
55.1041
55.1001
55.096
55.092
55.088
55.084
55.08
55.076
55.0719
55.0679
55.0639
55.0599
55.0559
55.0518
55.0478
55.0438
55.0398
55.0358
55.0317
55.0277
55.0237
55.0197
55.0157
55.0116
55.0076
55.0036
54.9996
54.9956
54.9916
54.9875
54.9835
54.9795
54.9755
54.9715
54.9675
54.9635
54.9595
54.9554
54.9514
54.9474
54.9434
54.9394
54.9354
54.9314
54.9274
54.9234
54.9194
54.9154
54.9114
54.9074
54.9034
54.8994
54.8954
54.8914
54.8874
54.8834
54.8794
54.8754
54.8714
54.8674
54.8634
54.8594
54.8555
54.8515
54.8475
54.8435
54.8395
54.8355
54.8316
54.8276
54.8236
54.8196
54.8157
54.8117
54.8077
54.8038
54.7998
54.7958
54.7919
54.7879
54.7839
54.78
54.776
54.7721
54.7681
54.7642
54.7602
54.7563
54.7523
54.7484
54.7444
54.7405
54.7365
54.7326
54.7287
54.7247
54.7208
54.7169
54.7129
54.709
54.7051
54.7012
54.6972
54.6933
54.6894
54.6855
54.6816
54.6777
54.6738
54.6699
54.666
54.6621
54.6582
54.6543
54.6504
54.6465
54.6426
54.6387
54.6348
54.631
54.6271
54.6232
54.6193
54.6155
54.6116
54.6077
54.6039
54.6
54.5962
54.5923
54.5885
54.5846
54.5808
54.5808
56.2237
56.2237
55.9405
55.8971
55.8767
55.8626
55.8512
55.8411
55.832
55.8235
55.8155
55.808
55.8008
55.7941
55.7876
55.7816
55.776
55.771
55.7666
55.7627
55.759
55.7556
55.7524
55.7493
55.7464
55.7437
55.7413
55.7391
55.7371
55.7353
55.7336
55.7321
55.7307
55.7293
55.7281
55.7269
55.7258
55.7248
55.7239
55.7231
55.7223
55.7216
55.721
55.7204
55.7199
55.7195
55.7191
55.7188
55.7185
55.7183
55.7181
55.718
55.7179
55.7178
55.7178
55.7178
55.7178
55.7178
55.7179
55.7179
55.718
55.718
55.7181
55.7182
55.7182
55.7183
55.7183
55.7183
55.7183
55.7183
55.7183
55.7182
55.7181
55.718
55.7178
55.7176
55.7173
55.717
55.7167
55.7163
55.7159
55.7154
55.7149
55.7143
55.7137
55.713
55.7122
55.7114
55.7105
55.7096
55.7086
55.7076
55.7065
55.7053
55.7041
55.7028
55.7014
55.7
55.6985
55.697
55.6954
55.6937
55.692
55.6902
55.6883
55.6864
55.6845
55.6825
55.6804
55.6783
55.6761
55.6738
55.6716
55.6692
55.6668
55.6644
55.6619
55.6594
55.6568
55.6542
55.6515
55.6488
55.646
55.6432
55.6404
55.6375
55.6346
55.6316
55.6287
55.6256
55.6226
55.6195
55.6164
55.6132
55.6101
55.6069
55.6036
55.6004
55.5971
55.5938
55.5905
55.5871
55.5837
55.5803
55.5769
55.5735
55.57
55.5665
55.5631
55.5595
55.556
55.5525
55.5489
55.5453
55.5418
55.5382
55.5345
55.5309
55.5273
55.5236
55.52
55.5163
55.5126
55.5089
55.5052
55.5015
55.4978
55.494
55.4903
55.4865
55.4828
55.479
55.4752
55.4714
55.4677
55.4639
55.46
55.4562
55.4524
55.4486
55.4448
55.4409
55.4371
55.4332
55.4294
55.4255
55.4217
55.4178
55.4139
55.4101
55.4062
55.4023
55.3984
55.3945
55.3906
55.3867
55.3828
55.3789
55.375
55.3711
55.3672
55.3632
55.3593
55.3554
55.3515
55.3475
55.3436
55.3396
55.3357
55.3318
55.3278
55.3239
55.3199
55.3159
55.312
55.308
55.3041
55.3001
55.2961
55.2922
55.2882
55.2842
55.2802
55.2763
55.2723
55.2683
55.2643
55.2603
55.2564
55.2524
55.2484
55.2444
55.2404
55.2364
55.2324
55.2284
55.2244
55.2204
55.2164
55.2124
55.2084
55.2044
55.2004
55.1964
55.1924
55.1884
55.1844
55.1804
55.1764
55.1723
55.1683
55.1643
55.1603
55.1563
55.1523
55.1483
55.1443
55.1402
55.1362
55.1322
55.1282
55.1242
55.1202
55.1161
55.1121
55.1081
55.1041
55.1001
55.096
55.092
55.088
55.084
55.08
55.0759
55.0719
55.0679
55.0639
55.0599
55.0558
55.0518
55.0478
55.0438
55.0398
55.0358
55.0317
55.0277
55.0237
55.0197
55.0157
55.0116
55.0076
55.0036
54.9996
54.9956
54.9916
54.9875
54.9835
54.9795
54.9755
54.9715
54.9675
54.9635
54.9595
54.9554
54.9514
54.9474
54.9434
54.9394
54.9354
54.9314
54.9274
54.9234
54.9194
54.9154
54.9114
54.9074
54.9034
54.8994
54.8954
54.8914
54.8874
54.8834
54.8794
54.8754
54.8714
54.8674
54.8634
54.8594
54.8555
54.8515
54.8475
54.8435
54.8395
54.8355
54.8316
54.8276
54.8236
54.8196
54.8157
54.8117
54.8077
54.8038
54.7998
54.7958
54.7919
54.7879
54.7839
54.78
54.776
54.7721
54.7681
54.7641
54.7602
54.7562
54.7523
54.7484
54.7444
54.7405
54.7365
54.7326
54.7287
54.7247
54.7208
54.7169
54.7129
54.709
54.7051
54.7012
54.6972
54.6933
54.6894
54.6855
54.6816
54.6777
54.6738
54.6699
54.666
54.6621
54.6582
54.6543
54.6504
54.6465
54.6426
54.6387
54.6348
54.631
54.6271
54.6232
54.6193
54.6155
54.6116
54.6077
54.6039
54.6
54.5962
54.5923
54.5885
54.5846
54.5808
54.5808
56.2077
56.2077
55.9437
55.8982
55.8774
55.863
55.8514
55.8413
55.8321
55.8236
55.8156
55.8081
55.8009
55.7941
55.7877
55.7816
55.7761
55.7711
55.7666
55.7627
55.759
55.7556
55.7524
55.7493
55.7464
55.7437
55.7413
55.7391
55.7371
55.7353
55.7337
55.7321
55.7307
55.7293
55.7281
55.7269
55.7258
55.7248
55.7239
55.7231
55.7223
55.7216
55.721
55.7204
55.7199
55.7195
55.7191
55.7188
55.7185
55.7183
55.7181
55.718
55.7179
55.7178
55.7178
55.7178
55.7178
55.7178
55.7179
55.7179
55.718
55.718
55.7181
55.7182
55.7182
55.7183
55.7183
55.7183
55.7183
55.7183
55.7183
55.7182
55.7181
55.718
55.7178
55.7176
55.7173
55.717
55.7167
55.7163
55.7159
55.7154
55.7149
55.7143
55.7137
55.713
55.7122
55.7114
55.7105
55.7096
55.7086
55.7076
55.7065
55.7053
55.7041
55.7028
55.7014
55.7
55.6985
55.697
55.6954
55.6937
55.692
55.6902
55.6883
55.6864
55.6845
55.6825
55.6804
55.6783
55.6761
55.6738
55.6716
55.6692
55.6668
55.6644
55.6619
55.6594
55.6568
55.6542
55.6515
55.6488
55.646
55.6432
55.6404
55.6375
55.6346
55.6316
55.6287
55.6256
55.6226
55.6195
55.6164
55.6132
55.6101
55.6069
55.6036
55.6004
55.5971
55.5938
55.5905
55.5871
55.5837
55.5803
55.5769
55.5735
55.57
55.5665
55.5631
55.5595
55.556
55.5525
55.5489
55.5453
55.5418
55.5382
55.5345
55.5309
55.5273
55.5236
55.52
55.5163
55.5126
55.5089
55.5052
55.5015
55.4978
55.494
55.4903
55.4865
55.4828
55.479
55.4752
55.4714
55.4677
55.4639
55.46
55.4562
55.4524
55.4486
55.4448
55.4409
55.4371
55.4332
55.4294
55.4255
55.4217
55.4178
55.4139
55.4101
55.4062
55.4023
55.3984
55.3945
55.3906
55.3867
55.3828
55.3789
55.375
55.3711
55.3672
55.3632
55.3593
55.3554
55.3515
55.3475
55.3436
55.3396
55.3357
55.3318
55.3278
55.3239
55.3199
55.3159
55.312
55.308
55.3041
55.3001
55.2961
55.2922
55.2882
55.2842
55.2802
55.2763
55.2723
55.2683
55.2643
55.2603
55.2563
55.2524
55.2484
55.2444
55.2404
55.2364
55.2324
55.2284
55.2244
55.2204
55.2164
55.2124
55.2084
55.2044
55.2004
55.1964
55.1924
55.1884
55.1844
55.1804
55.1764
55.1723
55.1683
55.1643
55.1603
55.1563
55.1523
55.1483
55.1443
55.1402
55.1362
55.1322
55.1282
55.1242
55.1202
55.1161
55.1121
55.1081
55.1041
55.1001
55.096
55.092
55.088
55.084
55.08
55.0759
55.0719
55.0679
55.0639
55.0599
55.0558
55.0518
55.0478
55.0438
55.0398
55.0358
55.0317
55.0277
55.0237
55.0197
55.0157
55.0116
55.0076
55.0036
54.9996
54.9956
54.9916
54.9875
54.9835
54.9795
54.9755
54.9715
54.9675
54.9635
54.9595
54.9554
54.9514
54.9474
54.9434
54.9394
54.9354
54.9314
54.9274
54.9234
54.9194
54.9154
54.9114
54.9074
54.9034
54.8994
54.8954
54.8914
54.8874
54.8834
54.8794
54.8754
54.8714
54.8674
54.8634
54.8594
54.8555
54.8515
54.8475
54.8435
54.8395
54.8355
54.8316
54.8276
54.8236
54.8196
54.8157
54.8117
54.8077
54.8038
54.7998
54.7958
54.7919
54.7879
54.7839
54.78
54.776
54.7721
54.7681
54.7641
54.7602
54.7562
54.7523
54.7484
54.7444
54.7405
54.7365
54.7326
54.7287
54.7247
54.7208
54.7169
54.7129
54.709
54.7051
54.7012
54.6972
54.6933
54.6894
54.6855
54.6816
54.6777
54.6738
54.6699
54.666
54.6621
54.6582
54.6543
54.6504
54.6465
54.6426
54.6387
54.6348
54.631
54.6271
54.6232
54.6193
54.6155
54.6116
54.6077
54.6039
54.6
54.5962
54.5923
54.5885
54.5846
54.5808
54.5808
56.1918
56.1918
55.9466
55.8994
55.878
55.8634
55.8517
55.8415
55.8323
55.8237
55.8157
55.8081
55.801
55.7942
55.7877
55.7817
55.7761
55.7711
55.7667
55.7627
55.7591
55.7556
55.7524
55.7493
55.7464
55.7437
55.7413
55.7391
55.7371
55.7353
55.7337
55.7321
55.7307
55.7293
55.7281
55.7269
55.7258
55.7248
55.7239
55.7231
55.7223
55.7216
55.721
55.7204
55.7199
55.7195
55.7191
55.7188
55.7185
55.7183
55.7181
55.718
55.7179
55.7178
55.7178
55.7178
55.7178
55.7178
55.7179
55.7179
55.718
55.718
55.7181
55.7182
55.7182
55.7183
55.7183
55.7183
55.7183
55.7183
55.7183
55.7182
55.7181
55.718
55.7178
55.7176
55.7173
55.717
55.7167
55.7163
55.7159
55.7154
55.7149
55.7143
55.7137
55.713
55.7122
55.7114
55.7105
55.7096
55.7086
55.7076
55.7065
55.7053
55.7041
55.7028
55.7014
55.7
55.6985
55.697
55.6954
55.6937
55.692
55.6902
55.6883
55.6864
55.6845
55.6825
55.6804
55.6783
55.6761
55.6738
55.6716
55.6692
55.6668
55.6644
55.6619
55.6594
55.6568
55.6542
55.6515
55.6488
55.646
55.6432
55.6404
55.6375
55.6346
55.6316
55.6287
55.6256
55.6226
55.6195
55.6164
55.6132
55.6101
55.6069
55.6036
55.6004
55.5971
55.5938
55.5905
55.5871
55.5837
55.5803
55.5769
55.5735
55.57
55.5665
55.5631
55.5595
55.556
55.5525
55.5489
55.5453
55.5418
55.5382
55.5345
55.5309
55.5273
55.5236
55.52
55.5163
55.5126
55.5089
55.5052
55.5015
55.4978
55.494
55.4903
55.4865
55.4828
55.479
55.4752
55.4714
55.4676
55.4639
55.46
55.4562
55.4524
55.4486
55.4448
55.4409
55.4371
55.4332
55.4294
55.4255
55.4217
55.4178
55.4139
55.4101
55.4062
55.4023
55.3984
55.3945
55.3906
55.3867
55.3828
55.3789
55.375
55.3711
55.3672
55.3632
55.3593
55.3554
55.3515
55.3475
55.3436
55.3396
55.3357
55.3318
55.3278
55.3239
55.3199
55.3159
55.312
55.308
55.3041
55.3001
55.2961
55.2922
55.2882
55.2842
55.2802
55.2763
55.2723
55.2683
55.2643
55.2603
55.2563
55.2524
55.2484
55.2444
55.2404
55.2364
55.2324
55.2284
55.2244
55.2204
55.2164
55.2124
55.2084
55.2044
55.2004
55.1964
55.1924
55.1884
55.1844
55.1804
55.1764
55.1723
55.1683
55.1643
55.1603
55.1563
55.1523
55.1483
55.1443
55.1402
55.1362
55.1322
55.1282
55.1242
55.1202
55.1161
55.1121
55.1081
55.1041
55.1001
55.096
55.092
55.088
55.084
55.08
55.0759
55.0719
55.0679
55.0639
55.0599
55.0558
55.0518
55.0478
55.0438
55.0398
55.0358
55.0317
55.0277
55.0237
55.0197
55.0157
55.0116
55.0076
55.0036
54.9996
54.9956
54.9916
54.9875
54.9835
54.9795
54.9755
54.9715
54.9675
54.9635
54.9595
54.9554
54.9514
54.9474
54.9434
54.9394
54.9354
54.9314
54.9274
54.9234
54.9194
54.9154
54.9114
54.9074
54.9034
54.8994
54.8954
54.8914
54.8874
54.8834
54.8794
54.8754
54.8714
54.8674
54.8634
54.8594
54.8555
54.8515
54.8475
54.8435
54.8395
54.8355
54.8316
54.8276
54.8236
54.8196
54.8157
54.8117
54.8077
54.8037
54.7998
54.7958
54.7919
54.7879
54.7839
54.78
54.776
54.7721
54.7681
54.7641
54.7602
54.7562
54.7523
54.7484
54.7444
54.7405
54.7365
54.7326
54.7287
54.7247
54.7208
54.7169
54.7129
54.709
54.7051
54.7012
54.6972
54.6933
54.6894
54.6855
54.6816
54.6777
54.6738
54.6699
54.666
54.6621
54.6582
54.6543
54.6504
54.6465
54.6426
54.6387
54.6348
54.631
54.6271
54.6232
54.6193
54.6155
54.6116
54.6077
54.6039
54.6
54.5962
54.5923
54.5885
54.5846
54.5808
54.5808
56.1767
56.1767
55.9493
55.9005
55.8786
55.8638
55.8519
55.8417
55.8324
55.8239
55.8158
55.8082
55.801
55.7942
55.7878
55.7817
55.7761
55.7711
55.7667
55.7627
55.7591
55.7556
55.7524
55.7493
55.7464
55.7437
55.7413
55.7391
55.7371
55.7353
55.7337
55.7321
55.7307
55.7293
55.7281
55.7269
55.7258
55.7248
55.7239
55.7231
55.7223
55.7216
55.721
55.7204
55.7199
55.7195
55.7191
55.7188
55.7185
55.7183
55.7181
55.718
55.7179
55.7178
55.7178
55.7178
55.7178
55.7178
55.7179
55.7179
55.718
55.718
55.7181
55.7182
55.7182
55.7183
55.7183
55.7183
55.7183
55.7183
55.7183
55.7182
55.7181
55.718
55.7178
55.7176
55.7173
55.717
55.7167
55.7163
55.7159
55.7154
55.7149
55.7143
55.7137
55.713
55.7122
55.7114
55.7105
55.7096
55.7086
55.7076
55.7065
55.7053
55.704
55.7028
55.7014
55.7
55.6985
55.697
55.6954
55.6937
55.692
55.6902
55.6883
55.6864
55.6845
55.6825
55.6804
55.6783
55.6761
55.6738
55.6716
55.6692
55.6668
55.6644
55.6619
55.6594
55.6568
55.6542
55.6515
55.6488
55.646
55.6432
55.6404
55.6375
55.6346
55.6316
55.6287
55.6256
55.6226
55.6195
55.6164
55.6132
55.6101
55.6069
55.6036
55.6004
55.5971
55.5938
55.5905
55.5871
55.5837
55.5803
55.5769
55.5735
55.57
55.5665
55.5631
55.5595
55.556
55.5525
55.5489
55.5453
55.5418
55.5382
55.5345
55.5309
55.5273
55.5236
55.52
55.5163
55.5126
55.5089
55.5052
55.5015
55.4978
55.494
55.4903
55.4865
55.4828
55.479
55.4752
55.4714
55.4676
55.4639
55.46
55.4562
55.4524
55.4486
55.4448
55.4409
55.4371
55.4332
55.4294
55.4255
55.4217
55.4178
55.4139
55.4101
55.4062
55.4023
55.3984
55.3945
55.3906
55.3867
55.3828
55.3789
55.375
55.3711
55.3672
55.3632
55.3593
55.3554
55.3515
55.3475
55.3436
55.3396
55.3357
55.3318
55.3278
55.3239
55.3199
55.3159
55.312
55.308
55.3041
55.3001
55.2961
55.2922
55.2882
55.2842
55.2802
55.2763
55.2723
55.2683
55.2643
55.2603
55.2563
55.2524
55.2484
55.2444
55.2404
55.2364
55.2324
55.2284
55.2244
55.2204
55.2164
55.2124
55.2084
55.2044
55.2004
55.1964
55.1924
55.1884
55.1844
55.1804
55.1764
55.1723
55.1683
55.1643
55.1603
55.1563
55.1523
55.1483
55.1443
55.1402
55.1362
55.1322
55.1282
55.1242
55.1202
55.1161
55.1121
55.1081
55.1041
55.1001
55.096
55.092
55.088
55.084
55.08
55.0759
55.0719
55.0679
55.0639
55.0599
55.0558
55.0518
55.0478
55.0438
55.0398
55.0358
55.0317
55.0277
55.0237
55.0197
55.0157
55.0116
55.0076
55.0036
54.9996
54.9956
54.9916
54.9875
54.9835
54.9795
54.9755
54.9715
54.9675
54.9635
54.9595
54.9554
54.9514
54.9474
54.9434
54.9394
54.9354
54.9314
54.9274
54.9234
54.9194
54.9154
54.9114
54.9074
54.9034
54.8994
54.8954
54.8914
54.8874
54.8834
54.8794
54.8754
54.8714
54.8674
54.8634
54.8594
54.8555
54.8515
54.8475
54.8435
54.8395
54.8355
54.8316
54.8276
54.8236
54.8196
54.8157
54.8117
54.8077
54.8037
54.7998
54.7958
54.7919
54.7879
54.7839
54.78
54.776
54.7721
54.7681
54.7641
54.7602
54.7562
54.7523
54.7484
54.7444
54.7405
54.7365
54.7326
54.7287
54.7247
54.7208
54.7169
54.7129
54.709
54.7051
54.7012
54.6972
54.6933
54.6894
54.6855
54.6816
54.6777
54.6738
54.6699
54.666
54.6621
54.6582
54.6543
54.6504
54.6465
54.6426
54.6387
54.6348
54.631
54.6271
54.6232
54.6193
54.6155
54.6116
54.6077
54.6039
54.6
54.5962
54.5923
54.5885
54.5846
54.5808
54.5808
56.1627
56.1627
55.9519
55.9016
55.8792
55.8641
55.8522
55.8419
55.8326
55.824
55.8159
55.8083
55.8011
55.7943
55.7878
55.7817
55.7762
55.7711
55.7667
55.7627
55.7591
55.7556
55.7524
55.7493
55.7464
55.7437
55.7413
55.7391
55.7371
55.7353
55.7337
55.7321
55.7307
55.7293
55.7281
55.7269
55.7258
55.7248
55.7239
55.7231
55.7223
55.7216
55.721
55.7204
55.7199
55.7195
55.7191
55.7188
55.7185
55.7183
55.7181
55.718
55.7179
55.7178
55.7178
55.7178
55.7178
55.7178
55.7179
55.7179
55.718
55.7181
55.7181
55.7182
55.7182
55.7183
55.7183
55.7183
55.7183
55.7183
55.7183
55.7182
55.7181
55.718
55.7178
55.7176
55.7173
55.717
55.7167
55.7163
55.7159
55.7154
55.7149
55.7143
55.7137
55.713
55.7122
55.7114
55.7105
55.7096
55.7086
55.7076
55.7065
55.7053
55.704
55.7028
55.7014
55.7
55.6985
55.697
55.6954
55.6937
55.692
55.6902
55.6883
55.6864
55.6845
55.6825
55.6804
55.6783
55.6761
55.6738
55.6716
55.6692
55.6668
55.6644
55.6619
55.6594
55.6568
55.6542
55.6515
55.6488
55.646
55.6432
55.6404
55.6375
55.6346
55.6316