# vtk DataFile Version 2.0
FlowField
ASCII
DATASET STRUCTURED_GRID
DIMENSIONS 400 1 200
POINTS 80000 float
0 0 0
0.08 0 0
0.16 0 0
0.24 0 0
0.32 0 0
0.4 0 0
0.48 0 0
0.56 0 0
0.64 0 0
0.72 0 0
0.8 0 0
0.88 0 0
0.96 0 0
1.04 0 0
1.12 0 0
1.2 0 0
1.28 0 0
1.36 0 0
1.44 0 0
1.52 0 0
1.6 0 0
1.68 0 0
1.76 0 0
1.84 0 0
1.92 0 0
2 0 0
2.08 0 0
2.16 0 0
2.24 0 0
2.32 0 0
2.4 0 0
2.48 0 0
2.56 0 0
2.64 0 0
2.72 0 0
2.8 0 0
2.88 0 0
2.96 0 0
3.04 0 0
3.12 0 0
3.2 0 0
3.28 0 0
3.36 0 0
3.44 0 0
3.52 0 0
3.6 0 0
3.68 0 0
3.76 0 0
3.84 0 0
3.92 0 0
4 0 0
4.08 0 0
4.16 0 0
4.24 0 0
4.32 0 0
4.4 0 0
4.48 0 0
4.56 0 0
4.64 0 0
4.72 0 0
4.8 0 0
4.88 0 0
4.96 0 0
5.04 0 0
5.12 0 0
5.2 0 0
5.28 0 0
5.36 0 0
5.44 0 0
5.52 0 0
5.6 0 0
5.68 0 0
5.76 0 0
5.84 0 0
5.92 0 0
6 0 0
6.08 0 0
6.16 0 0
6.24 0 0
6.32 0 0
6.4 0 0
6.48 0 0
6.56 0 0
6.64 0 0
6.72 0 0
6.8 0 0
6.88 0 0
6.96 0 0
7.04 0 0
7.12 0 0
7.2 0 0
7.28 0 0
7.36 0 0
7.44 0 0
7.52 0 0
7.6 0 0
7.68 0 0
7.76 0 0
7.84 0 0
7.92 0 0
8 0 0
8.08 0 0
8.16 0 0
8.24 0 0
8.32 0 0
8.4 0 0
8.48 0 0
8.56 0 0
8.64 0 0
8.72 0 0
8.8 0 0
8.88 0 0
8.96 0 0
9.04 0 0
9.12 0 0
9.2 0 0
9.28 0 0
9.36 0 0
9.44 0 0
9.52 0 0
9.6 0 0
9.68 0 0
9.76 0 0
9.84 0 0
9.92 0 0
10 0 0
10.08 0 0
10.16 0 0
10.24 0 0
10.32 0 0
10.4 0 0
10.48 0 0
10.56 0 0
10.64 0 0
10.72 0 0
10.8 0 0
10.88 0 0
10.96 0 0
11.04 0 0
11.12 0 0
11.2 0 0
11.28 0 0
11.36 0 0
11.44 0 0
11.52 0 0
11.6 0 0
11.68 0 0
11.76 0 0
11.84 0 0
11.92 0 0
12 0 0
12.08 0 0
12.16 0 0
12.24 0 0
12.32 0 0
12.4 0 0
12.48 0 0
12.56 0 0
12.64 0 0
12.72 0 0
12.8 0 0
12.88 0 0
12.96 0 0
13.04 0 0
13.12 0 0
13.2 0 0
13.28 0 0
13.36 0 0
13.44 0 0
13.52 0 0
13.6 0 0
13.68 0 0
13.76 0 0
13.84 0 0
13.92 0 0
14 0 0
14.08 0 0
14.16 0 0
14.24 0 0
14.32 0 0
14.4 0 0
14.48 0 0
14.56 0 0
14.64 0 0
14.72 0 0
14.8 0 0
14.88 0 0
14.96 0 0
15.04 0 0
15.12 0 0
15.2 0 0
15.28 0 0
15.36 0 0
15.44 0 0
15.52 0 0
15.6 0 0
15.68 0 0
15.76 0 0
15.84 0 0
15.92 0 0
16 0 0
16.08 0 0
16.16 0 0
16.24 0 0
16.32 0 0
16.4 0 0
16.48 0 0
16.56 0 0
16.64 0 0
16.72 0 0
16.8 0 0
16.88 0 0
16.96 0 0
17.04 0 0
17.12 0 0
17.2 0 0
17.28 0 0
17.36 0 0
17.44 0 0
17.52 0 0
17.6 0 0
17.68 0 0
17.76 0 0
17.84 0 0
17.92 0 0
18 0 0
18.08 0 0
18.16 0 0
18.24 0 0
18.32 0 0
18.4 0 0
18.48 0 0
18.56 0 0
18.64 0 0
18.72 0 0
18.8 0 0
18.88 0 0
18.96 0 0
19.04 0 0
19.12 0 0
19.2 0 0
19.28 0 0
19.36 0 0
19.44 0 0
19.52 0 0
19.6 0 0
19.68 0 0
19.76 0 0
19.84 0 0
19.92 0 0
20 0 0
20.08 0 0
20.16 0 0
20.24 0 0
20.32 0 0
20.4 0 0
20.48 0 0
20.56 0 0
20.64 0 0
20.72 0 0
20.8 0 0
20.88 0 0
20.96 0 0
21.04 0 0
21.12 0 0
21.2 0 0
21.28 0 0
21.36 0 0
21.44 0 0
21.52 0 0
21.6 0 0
21.68 0 0
21.76 0 0
21.84 0 0
21.92 0 0
22 0 0
22.08 0 0
22.16 0 0
22.24 0 0
22.32 0 0
22.4 0 0
22.48 0 0
22.56 0 0
22.64 0 0
22.72 0 0
22.8 0 0
22.88 0 0
22.96 0 0
23.04 0 0
23.12 0 0
23.2 0 0
23.28 0 0
23.36 0 0
23.44 0 0
23.52 0 0
23.6 0 0
23.68 0 0
23.76 0 0
23.84 0 0
23.92 0 0
24 0 0
24.08 0 0
24.16 0 0
24.24 0 0
24.32 0 0
24.4 0 0
24.48 0 0
24.56 0 0
24.64 0 0
24.72 0 0
24.8 0 0
24.88 0 0
24.96 0 0
25.04 0 0
25.12 0 0
25.2 0 0
25.28 0 0
25.36 0 0
25.44 0 0
25.52 0 0
25.6 0 0
25.68 0 0
25.76 0 0
25.84 0 0
25.92 0 0
26 0 0
26.08 0 0
26.16 0 0
26.24 0 0
26.32 0 0
26.4 0 0
26.48 0 0
26.56 0 0
26.64 0 0
26.72 0 0
26.8 0 0
26.88 0 0
26.96 0 0
27.04 0 0
27.12 0 0
27.2 0 0
27.28 0 0
27.36 0 0
27.44 0 0
27.52 0 0
27.6 0 0
27.68 0 0
27.76 0 0
27.84 0 0
27.92 0 0
28 0 0
28.08 0 0
28.16 0 0
28.24 0 0
28.32 0 0
28.4 0 0
28.48 0 0
28.56 0 0
28.64 0 0
28.72 0 0
28.8 0 0
28.88 0 0
28.96 0 0
29.04 0 0
29.12 0 0
29.2 0 0
29.28 0 0
29.36 0 0
29.44 0 0
29.52 0 0
29.6 0 0
29.68 0 0
29.76 0 0
29.84 0 0
29.92 0 0
30 0 0
30.08 0 0
30.16 0 0
30.24 0 0
30.32 0 0
30.4 0 0
30.48 0 0
30.56 0 0
30.64 0 0
30.72 0 0
30.8 0 0
30.88 0 0
30.96 0 0
31.04 0 0
31.12 0 0
31.2 0 0
31.28 0 0
31.36 0 0
31.44 0 0
31.52 0 0
31.6 0 0
31.68 0 0
31.76 0 0
31.84 0 0
31.92 0 0
0 0.005 0
0.08 0.005 0
0.16 0.005 0
0.24 0.005 0
0.32 0.005 0
0.4 0.005 0
0.48 0.005 0
0.56 0.005 0
0.64 0.005 0
0.72 0.005 0
0.8 0.005 0
0.88 0.005 0
0.96 0.005 0
1.04 0.005 0
1.12 0.005 0
1.2 0.005 0
1.28 0.005 0
1.36 0.005 0
1.44 0.005 0
1.52 0.005 0
1.6 0.005 0
1.68 0.005 0
1.76 0.005 0
1.84 0.005 0
1.92 0.005 0
2 0.005 0
2.08 0.005 0
2.16 0.005 0
2.24 0.005 0
2.32 0.005 0
2.4 0.005 0
2.48 0.005 0
2.56 0.005 0
2.64 0.005 0
2.72 0.005 0
2.8 0.005 0
2.88 0.005 0
2.96 0.005 0
3.04 0.005 0
3.12 0.005 0
3.2 0.005 0
3.28 0.005 0
3.36 0.005 0
3.44 0.005 0
3.52 0.005 0
3.6 0.005 0
3.68 0.005 0
3.76 0.005 0
3.84 0.005 0
3.92 0.005 0
4 0.005 0
4.08 0.005 0
4.16 0.005 0
4.24 0.005 0
4.32 0.005 0
4.4 0.005 0
4.48 0.005 0
4.56 0.005 0
4.64 0.005 0
4.72 0.005 0
4.8 0.005 0
4.88 0.005 0
4.96 0.005 0
5.04 0.005 0
5.12 0.005 0
5.2 0.005 0
5.28 0.005 0
5.36 0.005 0
5.44 0.005 0
5.52 0.005 0
5.6 0.005 0
5.68 0.005 0
5.76 0.005 0
5.84 0.005 0
5.92 0.005 0
6 0.005 0
6.08 0.005 0
6.16 0.005 0
6.24 0.005 0
6.32 0.005 0
6.4 0.005 0
6.48 0.005 0
6.56 0.005 0
6.64 0.005 0
6.72 0.005 0
6.8 0.005 0
6.88 0.005 0
6.96 0.005 0
7.04 0.005 0
7.12 0.005 0
7.2 0.005 0
7.28 0.005 0
7.36 0.005 0
7.44 0.005 0
7.52 0.005 0
7.6 0.005 0
7.68 0.005 0
7.76 0.005 0
7.84 0.005 0
7.92 0.005 0
8 0.005 0
8.08 0.005 0
8.16 0.005 0
8.24 0.005 0
8.32 0.005 0
8.4 0.005 0
8.48 0.005 0
8.56 0.005 0
8.64 0.005 0
8.72 0.005 0
8.8 0.005 0
8.88 0.005 0
8.96 0.005 0
9.04 0.005 0
9.12 0.005 0
9.2 0.005 0
9.28 0.005 0
9.36 0.005 0
9.44 0.005 0
9.52 0.005 0
9.6 0.005 0
9.68 0.005 0
9.76 0.005 0
9.84 0.005 0
9.92 0.005 0
10 0.005 0
10.08 0.005 0
10.16 0.005 0
10.24 0.005 0
10.32 0.005 0
10.4 0.005 0
10.48 0.005 0
10.56 0.005 0
10.64 0.005 0
10.72 0.005 0
10.8 0.005 0
10.88 0.005 0
10.96 0.005 0
11.04 0.005 0
11.12 0.005 0
11.2 0.005 0
11.28 0.005 0
11.36 0.005 0
11.44 0.005 0
11.52 0.005 0
11.6 0.005 0
11.68 0.005 0
11.76 0.005 0
11.84 0.005 0
11.92 0.005 0
12 0.005 0
12.08 0.005 0
12.16 0.005 0
12.24 0.005 0
12.32 0.005 0
12.4 0.005 0
12.48 0.005 0
12.56 0.005 0
12.64 0.005 0
12.72 0.005 0
12.8 0.005 0
12.88 0.005 0
12.96 0.005 0
13.04 0.005 0
13.12 0.005 0
13.2 0.005 0
13.28 0.005 0
13.36 0.005 0
13.44 0.005 0
13.52 0.005 0
13.6 0.005 0
13.68 0.005 0
13.76 0.005 0
13.84 0.005 0
13.92 0.005 0
14 0.005 0
14.08 0.005 0
14.16 0.005 0
14.24 0.005 0
14.32 0.005 0
14.4 0.005 0
14.48 0.005 0
14.56 0.005 0
14.64 0.005 0
14.72 0.005 0
14.8 0.005 0
14.88 0.005 0
14.96 0.005 0
15.04 0.005 0
15.12 0.005 0
15.2 0.005 0
15.28 0.005 0
15.36 0.005 0
15.44 0.005 0
15.52 0.005 0
15.6 0.005 0
15.68 0.005 0
15.76 0.005 0
15.84 0.005 0
15.92 0.005 0
16 0.005 0
16.08 0.005 0
16.16 0.005 0
16.24 0.005 0
16.32 0.005 0
16.4 0.005 0
16.48 0.005 0
16.56 0.005 0
16.64 0.005 0
16.72 0.005 0
16.8 0.005 0
16.88 0.005 0
16.96 0.005 0
17.04 0.005 0
17.12 0.005 0
17.2 0.005 0
17.28 0.005 0
17.36 0.005 0
17.44 0.005 0
17.52 0.005 0
17.6 0.005 0
17.68 0.005 0
17.76 0.005 0
17.84 0.005 0
17.92 0.005 0
18 0.005 0
18.08 0.005 0
18.16 0.005 0
18.24 0.005 0
18.32 0.005 0
18.4 0.005 0
18.48 0.005 0
18.56 0.005 0
18.64 0.005 0
18.72 0.005 0
18.8 0.005 0
18.88 0.005 0
18.96 0.005 0
19.04 0.005 0
19.12 0.005 0
19.2 0.005 0
19.28 0.005 0
19.36 0.005 0
19.44 0.005 0
19.52 0.005 0
19.6 0.005 0
19.68 0.005 0
19.76 0.005 0
19.84 0.005 0
19.92 0.005 0
20 0.005 0
20.08 0.005 0
20.16 0.005 0
20.24 0.005 0
20.32 0.005 0
20.4 0.005 0
20.48 0.005 0
20.56 0.005 0
20.64 0.005 0
20.72 0.005 0
20.8 0.005 0
20.88 0.005 0
20.96 0.005 0
21.04 0.005 0
21.12 0.005 0
21.2 0.005 0
21.28 0.005 0
21.36 0.005 0
21.44 0.005 0
21.52 0.005 0
21.6 0.005 0
21.68 0.005 0
21.76 0.005 0
21.84 0.005 0
21.92 0.005 0
22 0.005 0
22.08 0.005 0
22.16 0.005 0
22.24 0.005 0
22.32 0.005 0
22.4 0.005 0
22.48 0.005 0
22.56 0.005 0
22.64 0.005 0
22.72 0.005 0
22.8 0.005 0
22.88 0.005 0
22.96 0.005 0
23.04 0.005 0
23.12 0.005 0
23.2 0.005 0
23.28 0.005 0
23.36 0.005 0
23.44 0.005 0
23.52 0.005 0
23.6 0.005 0
23.68 0.005 0
23.76 0.005 0
23.84 0.005 0
23.92 0.005 0
24 0.005 0
24.08 0.005 0
24.16 0.005 0
24.24 0.005 0
24.32 0.005 0
24.4 0.005 0
24.48 0.005 0
24.56 0.005 0
24.64 0.005 0
24.72 0.005 0
24.8 0.005 0
24.88 0.005 0
24.96 0.005 0
25.04 0.005 0
25.12 0.005 0
25.2 0.005 0
25.28 0.005 0
25.36 0.005 0
25.44 0.005 0
25.52 0.005 0
25.6 0.005 0
25.68 0.005 0
25.76 0.005 0
25.84 0.005 0
25.92 0.005 0
26 0.005 0
26.08 0.005 0
26.16 0.005 0
26.24 0.005 0
26.32 0.005 0
26.4 0.005 0
26.48 0.005 0
26.56 0.005 0
26.64 0.005 0
26.72 0.005 0
26.8 0.005 0
26.88 0.005 0
26.96 0.005 0
27.04 0.005 0
27.12 0.005 0
27.2 0.005 0
27.28 0.005 0
27.36 0.005 0
27.44 0.005 0
27.52 0.005 0
27.6 0.005 0
27.68 0.005 0
27.76 0.005 0
27.84 0.005 0
27.92 0.005 0
28 0.005 0
28.08 0.005 0
28.16 0.005 0
28.24 0.005 0
28.32 0.005 0
28.4 0.005 0
28.48 0.005 0
28.56 0.005 0
28.64 0.005 0
28.72 0.005 0
28.8 0.005 0
28.88 0.005 0
28.96 0.005 0
29.04 0.005 0
29.12 0.005 0
29.2 0.005 0
29.28 0.005 0
29.36 0.005 0
29.44 0.005 0
29.52 0.005 0
29.6 0.005 0
29.68 0.005 0
29.76 0.005 0
29.84 0.005 0
29.92 0.005 0
30 0.005 0
30.08 0.005 0
30.16 0.005 0
30.24 0.005 0
30.32 0.005 0
30.4 0.005 0
30.48 0.005 0
30.56 0.005 0
30.64 0.005 0
30.72 0.005 0
30.8 0.005 0
30.88 0.005 0
30.96 0.005 0
31.04 0.005 0
31.12 0.005 0
31.2 0.005 0
31.28 0.005 0
31.36 0.005 0
31.44 0.005 0
31.52 0.005 0
31.6 0.005 0
31.68 0.005 0
31.76 0.005 0
31.84 0.005 0
31.92 0.005 0
0 0.01 0
0.08 0.01 0
0.16 0.01 0
0.24 0.01 0
0.32 0.01 0
0.4 0.01 0
0.48 0.01 0
0.56 0.01 0
0.64 0.01 0
0.72 0.01 0
0.8 0.01 0
0.88 0.01 0
0.96 0.01 0
1.04 0.01 0
1.12 0.01 0
1.2 0.01 0
1.28 0.01 0
1.36 0.01 0
1.44 0.01 0
1.52 0.01 0
1.6 0.01 0
1.68 0.01 0
1.76 0.01 0
1.84 0.01 0
1.92 0.01 0
2 0.01 0
2.08 0.01 0
2.16 0.01 0
2.24 0.01 0
2.32 0.01 0
2.4 0.01 0
2.48 0.01 0
2.56 0.01 0
2.64 0.01 0
2.72 0.01 0
2.8 0.01 0
2.88 0.01 0
2.96 0.01 0
3.04 0.01 0
3.12 0.01 0
3.2 0.01 0
3.28 0.01 0
3.36 0.01 0
3.44 0.01 0
3.52 0.01 0
3.6 0.01 0
3.68 0.01 0
3.76 0.01 0
3.84 0.01 0
3.92 0.01 0
4 0.01 0
4.08 0.01 0
4.16 0.01 0
4.24 0.01 0
4.32 0.01 0
4.4 0.01 0
4.48 0.01 0
4.56 0.01 0
4.64 0.01 0
4.72 0.01 0
4.8 0.01 0
4.88 0.01 0
4.96 0.01 0
5.04 0.01 0
5.12 0.01 0
[...]
POINT_DATA 80000

SCALARS u float 1
LOOKUP_TABLE default
0
-0.131653
-0.0682516
-0.0522707
-0.0443873
-0.0395372
-0.0362145
-0.0337849
-0.0319246
-0.0304493
-0.0292496
-0.0282573
-0.0274226
-0.0267059
-0.0260807
-0.0255383
-0.0250834
-0.0247216
-0.024449
-0.0242493
-0.0241004
-0.0239819
-0.0238812
-0.0237932
-0.0237177
-0.023656
-0.0236086
-0.0235743
-0.0235506
-0.0235342
-0.0235225
-0.0235131
-0.0235045
-0.0234959
-0.0234869
-0.0234775
-0.0234677
-0.0234577
-0.0234475
-0.0234372
-0.0234269
-0.0234168
-0.0234066
-0.0233966
-0.0233867
-0.023377
-0.0233674
-0.0233579
-0.0233486
-0.0233395
-0.0233305
-0.0233217
-0.0233132
-0.0233048
-0.0232966
-0.0232887
-0.023281
-0.0232735
-0.0232663
-0.0232594
-0.0232527
-0.0232462
-0.0232401
-0.0232342
-0.0232286
-0.0232233
-0.0232182
-0.0232135
-0.0232091
-0.023205
-0.0232012
-0.0231976
-0.0231944
-0.0231915
-0.0231889
-0.0231867
-0.0231847
-0.023183
-0.0231816
-0.0231805
-0.0231798
-0.0231793
-0.0231791
-0.0231792
-0.0231795
-0.0231802
-0.0231811
-0.0231822
-0.0231837
-0.0231853
-0.0231873
-0.0231894
-0.0231918
-0.0231944
-0.0231972
-0.0232003
-0.0232035
-0.023207
-0.0232106
-0.0232144
-0.0232184
-0.0232225
-0.0232268
-0.0232312
-0.0232358
-0.0232405
-0.0232454
-0.0232503
-0.0232554
-0.0232606
-0.0232658
-0.0232712
-0.0232766
-0.0232822
-0.0232877
-0.0232934
-0.0232991
-0.0233049
-0.0233107
-0.0233166
-0.0233225
-0.0233284
-0.0233344
-0.0233404
-0.0233464
-0.0233524
-0.0233585
-0.0233645
-0.0233706
-0.0233766
-0.0233827
-0.0233887
-0.0233948
-0.0234008
-0.0234069
-0.0234129
-0.0234189
-0.0234249
-0.0234309
-0.0234368
-0.0234428
-0.0234487
-0.0234546
-0.0234605
-0.0234663
-0.0234721
-0.0234779
-0.0234837
-0.0234895
-0.0234952
-0.0235009
-0.0235066
-0.0235122
-0.0235178
-0.0235234
-0.023529
-0.0235345
-0.02354
-0.0235455
-0.023551
-0.0235564
-0.0235618
-0.0235672
-0.0235726
-0.0235779
-0.0235832
-0.0235885
-0.0235937
-0.023599
-0.0236042
-0.0236094
-0.0236146
-0.0236197
-0.0236248
-0.02363
-0.023635
-0.0236401
-0.0236452
-0.0236502
-0.0236552
-0.0236602
-0.0236652
-0.0236701
-0.0236751
-0.02368
-0.0236849
-0.0236898
-0.0236947
-0.0236996
-0.0237044
-0.0237092
-0.0237141
-0.0237189
-0.0237237
-0.0237285
-0.0237332
-0.023738
-0.0237427
-0.0237475
-0.0237522
-0.0237569
-0.0237616
-0.0237663
-0.023771
-0.0237756
-0.0237803
-0.0237849
-0.0237896
-0.0237942
-0.0237988
-0.0238035
-0.0238081
-0.0238127
-0.0238172
-0.0238218
-0.0238264
-0.023831
-0.0238355
-0.0238401
-0.0238446
-0.0238491
-0.0238537
-0.0238582
-0.0238627
-0.0238672
-0.0238717
-0.0238762
-0.0238807
-0.0238852
-0.0238896
-0.0238941
-0.0238986
-0.023903
-0.0239075
-0.0239119
-0.0239164
-0.0239208
-0.0239253
-0.0239297
-0.0239341
-0.0239385
-0.0239429
-0.0239473
-0.0239517
-0.0239561
-0.0239605
-0.0239649
-0.0239693
-0.0239737
-0.0239781
-0.0239825
-0.0239868
-0.0239912
-0.0239956
-0.0239999
-0.0240043
-0.0240086
-0.024013
-0.0240173
-0.0240217
-0.024026
-0.0240303
-0.0240347
-0.024039
-0.0240433
-0.0240476
-0.024052
-0.0240563
-0.0240606
-0.0240649
-0.0240692
-0.0240735
-0.0240778
-0.0240821
-0.0240864
-0.0240907
-0.024095
-0.0240993
-0.0241035
-0.0241078
-0.0241121
-0.0241164
-0.0241206
-0.0241249
-0.0241292
-0.0241334
-0.0241377
-0.024142
-0.0241462
-0.0241505
-0.0241547
-0.024159
-0.0241632
-0.0241675
-0.0241717
-0.0241759
-0.0241802
-0.0241844
-0.0241886
-0.0241929
-0.0241971
-0.0242013
-0.0242055
-0.0242098
-0.024214
-0.0242182
-0.0242224
-0.0242266
-0.0242308
-0.024235
-0.0242392
-0.0242434
-0.0242476
-0.0242518
-0.024256
-0.0242602
-0.0242644
-0.0242686
-0.0242728
-0.0242769
-0.0242811
-0.0242853
-0.0242895
-0.0242936
-0.0242978
-0.024302
-0.0243061
-0.0243103
-0.0243144
-0.0243186
-0.0243228
-0.0243269
-0.0243311
-0.0243352
-0.0243393
-0.0243435
-0.0243476
-0.0243518
-0.0243559
-0.02436
-0.0243641
-0.0243683
-0.0243724
-0.0243765
-0.0243806
-0.0243847
-0.0243888
-0.0243929
-0.024397
-0.0244011
-0.0244052
-0.0244093
-0.0244134
-0.0244175
-0.0244216
-0.0244257
-0.0244298
-0.0244338
-0.0244379
-0.024442
-0.024446
-0.0244501
-0.0244541
-0.0244582
-0.0244623
-0.0244663
-0.0244703
-0.0244744
-0.0244784
-0.0244824
-0.0244865
-0.0244905
-0.0244945
-0.0244985
-0.0245026
-0.0245066
-0.0245106
-0.0245146
-0.0245185
-0.0245226
-0.0245265
-0.0245307
-0.0245343
-0.0245388
-0.024542
-0.024547
-0.0245497
-0.0245551
-0.0245576
-0.0245631
-0.0245656
-0.0245709
-0.0245739
-0.0245779
-0.024584
-0.0245828
-0.0245952
-0.0245825
-0.0245825
-0.0245825
1
0.131653
0.0682516
0.0522707
0.0443873
0.0395372
0.0362145
0.0337849
0.0319246
0.0304493
0.0292496
0.0282573
0.0274226
0.0267059
0.0260807
0.0255383
0.0250834
0.0247216
0.024449
0.0242493
0.0241004
0.0239819
0.0238812
0.0237932
0.0237177
0.023656
0.0236086
0.0235743
0.0235506
0.0235342
0.0235225
0.0235131
0.0235045
0.0234959
0.0234869
0.0234775
0.0234677
0.0234577
0.0234475
0.0234372
0.0234269
0.0234168
0.0234066
0.0233966
0.0233867
0.023377
0.0233674
0.0233579
0.0233486
0.0233395
0.0233305
0.0233217
0.0233132
0.0233048
0.0232966
0.0232887
0.023281
0.0232735
0.0232663
0.0232594
0.0232527
0.0232462
0.0232401
0.0232342
0.0232286
0.0232233
0.0232182
0.0232135
0.0232091
0.023205
0.0232012
0.0231976
0.0231944
0.0231915
0.0231889
0.0231867
0.0231847
0.023183
0.0231816
0.0231805
0.0231798
0.0231793
0.0231791
0.0231792
0.0231795
0.0231802
0.0231811
0.0231822
0.0231837
0.0231853
0.0231873
0.0231894
0.0231918
0.0231944
0.0231972
0.0232003
0.0232035
0.023207
0.0232106
0.0232144
0.0232184
0.0232225
0.0232268
0.0232312
0.0232358
0.0232405
0.0232454
0.0232503
0.0232554
0.0232606
0.0232658
0.0232712
0.0232766
0.0232822
0.0232877
0.0232934
0.0232991
0.0233049
0.0233107
0.0233166
0.0233225
0.0233284
0.0233344
0.0233404
0.0233464
0.0233524
0.0233585
0.0233645
0.0233706
0.0233766
0.0233827
0.0233887
0.0233948
0.0234008
0.0234069
0.0234129
0.0234189
0.0234249
0.0234309
0.0234368
0.0234428
0.0234487
0.0234546
0.0234605
0.0234663
0.0234721
0.0234779
0.0234837
0.0234895
0.0234952
0.0235009
0.0235066
0.0235122
0.0235178
0.0235234
0.023529
0.0235345
0.02354
0.0235455
0.023551
0.0235564
0.0235618
0.0235672
0.0235726
0.0235779
0.0235832
0.0235885
0.0235937
0.023599
0.0236042
0.0236094
0.0236146
0.0236197
0.0236248
0.02363
0.023635
0.0236401
0.0236452
0.0236502
0.0236552
0.0236602
0.0236652
0.0236701
0.0236751
0.02368
0.0236849
0.0236898
0.0236947
0.0236996
0.0237044
0.0237092
0.0237141
0.0237189
0.0237237
0.0237285
0.0237332
0.023738
0.0237427
0.0237475
0.0237522
0.0237569
0.0237616
0.0237663
0.023771
0.0237756
0.0237803
0.0237849
0.0237896
0.0237942
0.0237988
0.0238035
0.0238081
0.0238127
0.0238172
0.0238218
0.0238264
0.023831
0.0238355
0.0238401
0.0238446
0.0238491
0.0238537
0.0238582
0.0238627
0.0238672
0.0238717
0.0238762
0.0238807
0.0238852
0.0238896
0.0238941
0.0238986
0.023903
0.0239075
0.0239119
0.0239164
0.0239208
0.0239253
0.0239297
0.0239341
0.0239385
0.0239429
0.0239473
0.0239517
0.0239561
0.0239605
0.0239649
0.0239693
0.0239737
0.0239781
0.0239825
0.0239868
0.0239912
0.0239956
0.0239999
0.0240043
0.0240086
0.024013
0.0240173
0.0240217
0.024026
0.0240303
0.0240347
0.024039
0.0240433
0.0240476
0.024052
0.0240563
0.0240606
0.0240649
0.0240692
0.0240735
0.0240778
0.0240821
0.0240864
0.0240907
0.024095
0.0240993
0.0241035
0.0241078
0.0241121
0.0241164
0.0241206
0.0241249
0.0241292
0.0241334
0.0241377
0.024142
0.0241462
0.0241505
0.0241547
0.024159
0.0241632
0.0241675
0.0241717
0.0241759
0.0241802
0.0241844
0.0241886
0.0241929
0.0241971
0.0242013
0.0242055
0.0242098
0.024214
0.0242182
0.0242224
0.0242266
0.0242308
0.024235
0.0242392
0.0242434
0.0242476
0.0242518
0.024256
0.0242602
0.0242644
0.0242686
0.0242728
0.0242769
0.0242811
0.0242853
0.0242895
0.0242936
0.0242978
0.024302
0.0243061
0.0243103
0.0243144
0.0243186
0.0243228
0.0243269
0.0243311
0.0243352
0.0243393
0.0243435
0.0243476
0.0243518
0.0243559
0.02436
0.0243641
0.0243683
0.0243724
0.0243765
0.0243806
0.0243847
0.0243888
0.0243929
0.024397
0.0244011
0.0244052
0.0244093
0.0244134
0.0244175
0.0244216
0.0244257
0.0244298
0.0244338
0.0244379
0.024442
0.024446
0.0244501
0.0244541
0.0244582
0.0244623
0.0244663
0.0244703
0.0244744
0.0244784
0.0244824
0.0244865
0.0244905
0.0244945
0.0244985
0.0245026
0.0245066
0.0245106
0.0245146
0.0245185
0.0245226
0.0245265
0.0245307
0.0245343
0.0245388
0.024542
0.024547
0.0245497
0.0245551
0.0245576
0.0245631
0.0245656
0.0245709
0.0245739
0.0245779
0.024584
0.0245828
0.0245952
0.0245825
0.0245825
0.0245825
1
0.344867
0.200635
0.154921
0.131836
0.117528
0.10769
0.100482
0.094958
0.0905769
0.0870171
0.0840747
0.0816009
0.0794802
0.0776392
0.0760551
0.0747387
0.0736997
0.0729188
0.0723452
0.0719146
0.0715716
0.0712825
0.0710344
0.0708266
0.0706614
0.0705382
0.0704521
0.070395
0.0703578
0.0703325
0.0703129
0.070295
0.0702766
0.070257
0.0702359
0.0702137
0.0701905
0.0701668
0.0701428
0.0701187
0.0700945
0.0700703
0.0700463
0.0700224
0.0699986
0.0699751
0.0699517
0.0699286
0.0699057
0.0698832
0.0698609
0.0698389
0.0698173
0.069796
0.0697752
0.0697548
0.0697348
0.0697153
0.0696962
0.0696777
0.0696597
0.0696422
0.0696253
0.069609
0.0695933
0.0695782
0.0695637
0.0695499
0.0695368
0.0695243
0.0695124
0.0695013
0.0694909
0.0694811
0.0694721
0.0694638
0.0694562
0.0694493
0.0694432
0.0694377
0.069433
0.0694289
0.0694256
0.069423
0.0694211
0.0694198
0.0694193
0.0694194
0.0694202
0.0694216
0.0694237
0.0694264
0.0694297
0.0694336
0.069438
0.0694431
0.0694487
0.0694549
0.0694615
0.0694687
0.0694764
0.0694846
0.0694932
0.0695022
0.0695117
0.0695216
0.0695319
0.0695426
0.0695536
0.0695649
0.0695766
0.0695886
0.0696009
0.0696135
0.0696263
0.0696394
0.0696527
0.0696663
0.06968
0.0696939
0.069708
0.0697223
0.0697367
0.0697513
0.069766
0.0697808
0.0697957
0.0698108
0.0698259
0.0698411
0.0698563
0.0698717
0.069887
0.0699025
0.0699179
0.0699334
0.069949
0.0699645
0.0699801
0.0699956
0.0700112
0.0700268
0.0700423
0.0700579
0.0700735
0.070089
0.0701045
0.07012
0.0701355
0.0701509
0.0701663
0.0701817
0.0701971
0.0702124
0.0702277
0.0702429
0.0702582
0.0702733
0.0702885
0.0703036
0.0703186
0.0703336
0.0703486
0.0703636
0.0703785
0.0703933
0.0704081
0.0704229
0.0704377
0.0704524
0.070467
0.0704816
0.0704962
0.0705108
0.0705253
0.0705397
0.0705542
0.0705685
0.0705829
0.0705972
0.0706115
0.0706258
0.07064
0.0706542
0.0706683
0.0706825
0.0706966
0.0707106
0.0707246
0.0707386
0.0707526
0.0707666
0.0707805
0.0707944
0.0708082
0.0708221
0.0708359
0.0708497
0.0708635
0.0708772
0.0708909
0.0709046
0.0709183
0.0709319
0.0709456
0.0709592
0.0709728
0.0709863
0.0709999
0.0710134
0.0710269
0.0710404
0.0710539
0.0710673
0.0710808
0.0710942
0.0711076
0.071121
0.0711344
0.0711477
0.0711611
0.0711744
0.0711877
0.071201
0.0712143
0.0712276
0.0712409
0.0712541
0.0712673
0.0712806
0.0712938
0.071307
0.0713202
0.0713333
0.0713465
0.0713597
0.0713728
0.0713859
0.0713991
0.0714122
0.0714253
0.0714384
0.0714515
0.0714645
0.0714776
0.0714907
0.0715037
0.0715167
0.0715298
0.0715428
0.0715558
0.0715688
0.0715818
0.0715948
0.0716078
0.0716208
0.0716337
0.0716467
0.0716596
0.0716726
0.0716855
0.0716985
0.0717114
0.0717243
0.0717372
0.0717501
0.071763
0.0717759
0.0717888
0.0718017
0.0718146
0.0718274
0.0718403
0.0718531
0.071866
0.0718788
0.0718917
0.0719045
0.0719173
0.0719302
0.071943
0.0719558
0.0719686
0.0719814
0.0719942
0.072007
0.0720198
0.0720326
0.0720454
0.0720581
0.0720709
0.0720837
0.0720964
0.0721092
0.0721219
0.0721347
0.0721474
0.0721601
0.0721729
0.0721856
0.0721983
0.072211
0.0722237
0.0722364
0.0722492
0.0722618
0.0722745
0.0722872
0.0722999
0.0723126
0.0723253
0.0723379
0.0723506
0.0723633
0.0723759
0.0723886
0.0724012
0.0724138
0.0724265
0.0724391
0.0724517
0.0724644
0.072477
0.0724896
0.0725022
0.0725148
0.0725274
0.07254
0.0725526
0.0725651
0.0725777
0.0725903
0.0726028
0.0726154
0.0726279
0.0726405
0.072653
0.0726656
0.0726781
0.0726906
0.0727031
0.0727157
0.0727282
0.0727407
0.0727531
0.0727656
0.0727781
0.0727906
0.0728031
0.0728155
0.072828
0.0728404
0.0728529
0.0728653
0.0728777
0.0728901
0.0729025
0.0729149
0.0729273
0.0729397
0.0729521
0.0729645
0.0729769
0.0729892
0.0730016
0.0730139
0.0730262
0.0730386
0.0730509
0.0730632
0.0730755
0.0730878
0.0731001
0.0731124
0.0731246
0.0731369
0.0731492
0.0731613
0.0731737
0.0731856
0.0731984
0.0732097
0.0732234
0.0732334
0.0732485
0.073257
0.0732733
0.0732812
0.0732976
0.0733058
0.0733217
0.0733311
0.0733439
0.0733614
0.0733599
0.0733948
0.0733627
0.0733627
0.0733627
1
0.518746
0.327365
0.255296
0.217785
0.19433
0.178136
0.166243
0.157118
0.149879
0.143998
0.139138
0.135053
0.131556
0.12853
0.125941
0.123803
0.122123
0.120861
0.119931
0.119228
0.118668
0.1182
0.117803
0.117477
0.117222
0.117037
0.116912
0.116832
0.116782
0.11675
0.116727
0.116706
0.116683
0.116659
0.116632
0.116603
0.116572
0.116541
0.116509
0.116476
0.116444
0.116411
0.116378
0.116346
0.116313
0.116281
0.116248
0.116216
0.116184
0.116153
0.116121
0.11609
0.116059
0.116029
0.115999
0.115969
0.11594
0.115912
0.115884
0.115856
0.115829
0.115803
0.115778
0.115753
0.115729
0.115705
0.115683
0.115661
0.11564
0.11562
0.115601
0.115582
0.115565
0.115548
0.115533
0.115518
0.115505
0.115492
0.11548
0.115469
0.115459
0.115451
0.115443
0.115436
0.11543
0.115425
0.115421
0.115418
0.115416
0.115415
0.115415
0.115416
0.115417
0.11542
0.115423
0.115428
0.115433
0.115439
0.115445
0.115453
0.115461
0.11547
0.11548
0.115491
0.115502
0.115514
0.115526
0.115539
0.115553
0.115568
0.115582
0.115598
0.115614
0.11563
0.115647
0.115664
0.115682
0.1157
0.115719
0.115738
0.115757
0.115777
0.115797
0.115817
0.115838
0.115859
0.11588
0.115901
0.115922
0.115944
0.115966
0.115988
0.11601
0.116033
0.116055
0.116078
0.1161
0.116123
0.116146
0.116169
0.116192
0.116216
0.116239
0.116262
0.116285
0.116309
0.116332
0.116356
0.116379
0.116403
0.116426
0.116449
0.116473
0.116496
0.11652
0.116543
0.116567
0.11659
0.116614
0.116637
0.116661
0.116684
0.116707
0.116731
0.116754
0.116777
0.1168
0.116824
0.116847
0.11687
0.116893
0.116916
0.116939
0.116962
0.116985
0.117008
0.117031
0.117054
0.117077
0.1171
0.117123
0.117145
0.117168
0.117191
0.117213
0.117236
0.117259
0.117281
0.117304
0.117326
0.117349
0.117371
0.117394
0.117416
0.117438
0.117461
0.117483
0.117505
0.117528
0.11755
0.117572
0.117594
0.117617
0.117639
0.117661
0.117683
0.117705
0.117727
0.117749
0.117771
0.117793
0.117815
0.117837
0.117859
0.117881
0.117903
0.117925
0.117947
0.117969
0.117991
0.118012
0.118034
0.118056
0.118078
0.1181
0.118121
0.118143
0.118165
0.118187
0.118208
0.11823
0.118252
0.118273
0.118295
0.118317
0.118338
0.11836
0.118381
0.118403
0.118425
0.118446
0.118468
0.118489
0.118511
0.118532
0.118554
0.118576
0.118597
0.118619
0.11864
0.118662
0.118683
0.118705
0.118726
0.118748
0.118769
0.11879
0.118812
0.118833
0.118855
0.118876
0.118898
0.118919
0.11894
0.118962
0.118983
0.119005
0.119026
0.119047
0.119069
0.11909
0.119112
0.119133
0.119154
0.119176
0.119197
0.119218
0.11924
0.119261
0.119282
0.119304
0.119325
0.119346
0.119368
0.119389
0.11941
0.119431
0.119453
0.119474
0.119495
0.119517
0.119538
0.119559
0.11958
0.119602
0.119623
0.119644
0.119665
0.119687
0.119708
0.119729
0.11975
0.119772
0.119793
0.119814
0.119835
0.119857
0.119878
0.119899
0.11992
0.119941
0.119963
0.119984
0.120005
0.120026
0.120047
0.120068
0.12009
0.120111
0.120132
0.120153
0.120174
0.120195
0.120217
0.120238
0.120259
0.12028
0.120301
0.120322
0.120343
0.120365
0.120386
0.120407
0.120428
0.120449
0.12047
0.120491
0.120512
0.120533
0.120554
0.120575
0.120596
0.120618
0.120639
0.12066
0.120681
0.120702
0.120723
0.120744
0.120765
0.120786
0.120807
0.120828
0.120849
0.12087
0.120891
0.120912
0.120932
0.120953
0.120974
0.120995
0.121016
0.121037
0.121058
0.121079
0.1211
0.121121
0.121141
0.121162
0.121183
0.121204
0.121225
0.121246
0.121266
0.121287
0.121308
0.121329
0.121349
0.12137
0.121391
0.121412
0.121432
0.121455
0.121472
0.121497
0.121512
0.121539
0.121553
0.121581
0.121595
0.121622
0.121638
0.12166
0.121688
0.121689
0.121744
0.121699
0.121699
0.121699
1
0.660868
0.446858
0.35283
0.301974
0.269788
0.247444
0.230987
0.218338
0.208296
0.200137
0.193395
0.187728
0.182881
0.1787
0.175139
0.172212
0.169918
0.168194
0.166918
0.165949
0.165176
0.164533
0.163995
0.163559
0.163226
0.162989
0.162832
0.162736
0.162681
0.162648
0.162625
0.162604
0.162582
0.162556
0.162528
0.162496
0.162463
0.162428
0.162392
0.162356
0.16232
0.162283
0.162246
0.162209
0.162172
0.162135
0.162098
0.162061
0.162024
0.161987
0.161951
0.161914
0.161878
0.161843
0.161807
0.161772
0.161738
0.161703
0.16167
0.161637
0.161604
0.161572
0.161541
0.161511
0.161481
0.161452
0.161424
0.161396
0.16137
0.161344
0.16132
0.161296
0.161274
0.161252
0.161231
0.161212
0.161193
0.161176
0.161159
0.161144
0.16113
0.161117
0.161105
0.161094
0.161085
0.161076
0.161069
0.161063
0.161057
0.161054
0.161051
0.161049
0.161048
0.161049
0.16105
0.161053
0.161057
0.161061
0.161067
0.161074
0.161081
0.16109
0.1611
0.16111
0.161121
0.161134
0.161147
0.161161
0.161175
0.161191
0.161207
0.161224
0.161242
0.16126
0.161279
0.161299
0.161319
0.16134
0.161361
0.161383
0.161406
0.161429
0.161452
0.161476
0.1615
0.161525
0.16155
0.161576
0.161602
0.161628
0.161654
0.161681
0.161708
0.161736
0.161763
0.161791
0.161819
0.161847
0.161876
0.161905
0.161933
0.161962
0.161992
0.162021
0.16205
0.16208
0.162109
0.162139
0.162169
0.162199
0.162229
0.162259
0.162289
0.162319
0.16235
0.16238
0.16241
0.162441
0.162471
0.162501
0.162532
0.162562
0.162593
0.162623
0.162654
0.162684
0.162715
0.162745
0.162776
0.162807
0.162837
0.162868
0.162898
0.162929
0.162959
0.16299
0.16302
0.163051
0.163081
0.163112
0.163142
0.163172
0.163203
0.163233
0.163264
0.163294
0.163324
0.163355
0.163385
0.163415
0.163446
0.163476
0.163506
0.163537
0.163567
0.163597
0.163627
0.163657
0.163688
0.163718
0.163748
0.163778
0.163808
0.163838
0.163869
0.163899
0.163929
0.163959
0.163989
0.164019
0.164049
0.164079
0.164109
0.164139
0.164169
0.164199
0.164229
0.164259
0.164289
0.164319
0.164349
0.164379
0.164409
0.164439
0.164468
0.164498
0.164528
0.164558
0.164588
0.164618
0.164648
0.164678
0.164707
0.164737
0.164767
0.164797
0.164827
0.164857
0.164886
0.164916
0.164946
0.164976
0.165006
0.165035
0.165065
0.165095
0.165125
0.165155
0.165184
0.165214
0.165244
0.165274
0.165303
0.165333
0.165363
0.165393
0.165423
0.165452
0.165482
0.165512
0.165542
0.165571
0.165601
0.165631
0.165661
0.16569
0.16572
0.16575
0.16578
0.165809
0.165839
0.165869
0.165899
0.165928
0.165958
0.165988
0.166018
0.166047
0.166077
0.166107
0.166137
0.166166
0.166196
0.166226
0.166256
0.166285
0.166315
0.166345
0.166375
0.166404
0.166434
0.166464
0.166494
0.166523
0.166553
0.166583
0.166613
0.166642
0.166672
0.166702
0.166732
0.166762
0.166791
0.166821
0.166851
0.166881
0.16691
0.16694
0.16697
0.167
0.167029
0.167059
0.167089
0.167119
0.167148
0.167178
0.167208
0.167238
0.167268
0.167297
0.167327
0.167357
0.167387
0.167416
0.167446
0.167476
0.167506
0.167535
0.167565
0.167595
0.167625
0.167655
0.167684
0.167714
0.167744
0.167774
0.167803
0.167833
0.167863
0.167893
0.167922
0.167952
0.167982
0.168012
0.168041
0.168071
0.168101
0.168131
0.16816
0.16819
0.16822
0.168249
0.168279
0.168309
0.168339
0.168368
0.168398
0.168428
0.168457
0.168487
0.168517
0.168546
0.168576
0.168606
0.168635
0.168665
0.168695
0.168724
0.168754
0.168784
0.168813
0.168843
0.168873
0.168902
0.168932
0.168961
0.168991
0.16902
0.16905
0.169079
0.16911
0.169138
0.16917
0.169195
0.169231
0.169253
0.169291
0.169312
0.16935
0.169371
0.169409
0.169433
0.169464
0.169503
0.169507
0.169581
0.169528
0.169528
0.169528
1
0.776784
0.557792
0.446837
0.384058
0.343699
0.315481
0.294615
0.278541
0.265765
0.255379
0.246793
0.239576
0.233408
0.228101
0.223597
0.219908
0.217023
0.214851
0.213235
0.212002
0.211015
0.210199
0.209524
0.208985
0.208579
0.208296
0.208114
0.208007
0.207949
0.207918
0.207898
0.207881
0.207862
0.207838
0.207811
0.20778
0.207747
0.207712
0.207677
0.20764
0.207603
0.207565
0.207527
0.207489
0.207451
0.207413
0.207374
0.207336
0.207298
0.207259
0.207221
0.207183
0.207145
0.207107
0.207069
0.207032
0.206995
0.206959
0.206923
0.206887
0.206852
0.206817
0.206783
0.20675
0.206717
0.206686