# vtk DataFile Version 2.0
FlowField
ASCII
DATASET STRUCTURED_GRID
DIMENSIONS 400 1 200
POINTS 80000 float
0 0 0
0.08 0 0
0.16 0 0
0.24 0 0
0.32 0 0
0.4 0 0
0.48 0 0
0.56 0 0
0.64 0 0
0.72 0 0
0.8 0 0
0.88 0 0
0.96 0 0
1.04 0 0
1.12 0 0
1.2 0 0
1.28 0 0
1.36 0 0
1.44 0 0
1.52 0 0
1.6 0 0
1.68 0 0
1.76 0 0
1.84 0 0
1.92 0 0
2 0 0
2.08 0 0
2.16 0 0
2.24 0 0
2.32 0 0
2.4 0 0
2.48 0 0
2.56 0 0
2.64 0 0
2.72 0 0
2.8 0 0
2.88 0 0
2.96 0 0
3.04 0 0
3.12 0 0
3.2 0 0
3.28 0 0
3.36 0 0
3.44 0 0
3.52 0 0
3.6 0 0
3.68 0 0
3.76 0 0
3.84 0 0
3.92 0 0
4 0 0
4.08 0 0
4.16 0 0
4.24 0 0
4.32 0 0
4.4 0 0
4.48 0 0
4.56 0 0
4.64 0 0
4.72 0 0
4.8 0 0
4.88 0 0
4.96 0 0
5.04 0 0
5.12 0 0
5.2 0 0
5.28 0 0
5.36 0 0
5.44 0 0
5.52 0 0
5.6 0 0
5.68 0 0
5.76 0 0
5.84 0 0
5.92 0 0
6 0 0
6.08 0 0
6.16 0 0
6.24 0 0
6.32 0 0
6.4 0 0
6.48 0 0
6.56 0 0
6.64 0 0
6.72 0 0
6.8 0 0
6.88 0 0
6.96 0 0
7.04 0 0
7.12 0 0
7.2 0 0
7.28 0 0
7.36 0 0
7.44 0 0
7.52 0 0
7.6 0 0
7.68 0 0
7.76 0 0
7.84 0 0
7.92 0 0
8 0 0
8.08 0 0
8.16 0 0
8.24 0 0
8.32 0 0
8.4 0 0
8.48 0 0
8.56 0 0
8.64 0 0
8.72 0 0
8.8 0 0
8.88 0 0
8.96 0 0
9.04 0 0
9.12 0 0
9.2 0 0
9.28 0 0
9.36 0 0
9.44 0 0
9.52 0 0
9.6 0 0
9.68 0 0
9.76 0 0
9.84 0 0
9.92 0 0
10 0 0
10.08 0 0
10.16 0 0
10.24 0 0
10.32 0 0
10.4 0 0
10.48 0 0
10.56 0 0
10.64 0 0
10.72 0 0
10.8 0 0
10.88 0 0
10.96 0 0
11.04 0 0
11.12 0 0
11.2 0 0
11.28 0 0
11.36 0 0
11.44 0 0
11.52 0 0
11.6 0 0
11.68 0 0
11.76 0 0
11.84 0 0
11.92 0 0
12 0 0
12.08 0 0
12.16 0 0
12.24 0 0
12.32 0 0
12.4 0 0
12.48 0 0
12.56 0 0
12.64 0 0
12.72 0 0
12.8 0 0
12.88 0 0
12.96 0 0
13.04 0 0
13.12 0 0
13.2 0 0
13.28 0 0
13.36 0 0
13.44 0 0
13.52 0 0
13.6 0 0
13.68 0 0
13.76 0 0
13.84 0 0
13.92 0 0
14 0 0
14.08 0 0
14.16 0 0
14.24 0 0
14.32 0 0
14.4 0 0
14.48 0 0
14.56 0 0
14.64 0 0
14.72 0 0
14.8 0 0
14.88 0 0
14.96 0 0
15.04 0 0
15.12 0 0
15.2 0 0
15.28 0 0
15.36 0 0
15.44 0 0
15.52 0 0
15.6 0 0
15.68 0 0
15.76 0 0
15.84 0 0
15.92 0 0
16 0 0
16.08 0 0
16.16 0 0
16.24 0 0
16.32 0 0
16.4 0 0
16.48 0 0
16.56 0 0
16.64 0 0
16.72 0 0
16.8 0 0
16.88 0 0
16.96 0 0
17.04 0 0
17.12 0 0
17.2 0 0
17.28 0 0
17.36 0 0
17.44 0 0
17.52 0 0
17.6 0 0
17.68 0 0
17.76 0 0
17.84 0 0
17.92 0 0
18 0 0
18.08 0 0
18.16 0 0
18.24 0 0
18.32 0 0
18.4 0 0
18.48 0 0
18.56 0 0
18.64 0 0
18.72 0 0
18.8 0 0
18.88 0 0
18.96 0 0
19.04 0 0
19.12 0 0
19.2 0 0
19.28 0 0
19.36 0 0
19.44 0 0
19.52 0 0
19.6 0 0
19.68 0 0
19.76 0 0
19.84 0 0
19.92 0 0
20 0 0
20.08 0 0
20.16 0 0
20.24 0 0
20.32 0 0
20.4 0 0
20.48 0 0
20.56 0 0
20.64 0 0
20.72 0 0
20.8 0 0
20.88 0 0
20.96 0 0
21.04 0 0
21.12 0 0
21.2 0 0
21.28 0 0
21.36 0 0
21.44 0 0
21.52 0 0
21.6 0 0
21.68 0 0
21.76 0 0
21.84 0 0
21.92 0 0
22 0 0
22.08 0 0
22.16 0 0
22.24 0 0
22.32 0 0
22.4 0 0
22.48 0 0
22.56 0 0
22.64 0 0
22.72 0 0
22.8 0 0
22.88 0 0
22.96 0 0
23.04 0 0
23.12 0 0
23.2 0 0
23.28 0 0
23.36 0 0
23.44 0 0
23.52 0 0
23.6 0 0
23.68 0 0
23.76 0 0
23.84 0 0
23.92 0 0
24 0 0
24.08 0 0
24.16 0 0
24.24 0 0
24.32 0 0
24.4 0 0
24.48 0 0
24.56 0 0
24.64 0 0
24.72 0 0
24.8 0 0
24.88 0 0
24.96 0 0
25.04 0 0
25.12 0 0
25.2 0 0
25.28 0 0
25.36 0 0
25.44 0 0
25.52 0 0
25.6 0 0
25.68 0 0
25.76 0 0
25.84 0 0
25.92 0 0
26 0 0
26.08 0 0
26.16 0 0
26.24 0 0
26.32 0 0
26.4 0 0
26.48 0 0
26.56 0 0
26.64 0 0
26.72 0 0
26.8 0 0
26.88 0 0
26.96 0 0
27.04 0 0
27.12 0 0
27.2 0 0
27.28 0 0
27.36 0 0
27.44 0 0
27.52 0 0
27.6 0 0
27.68 0 0
27.76 0 0
27.84 0 0
27.92 0 0
28 0 0
28.08 0 0
28.16 0 0
28.24 0 0
28.32 0 0
28.4 0 0
28.48 0 0
28.56 0 0
28.64 0 0
28.72 0 0
28.8 0 0
28.88 0 0
28.96 0 0
29.04 0 0
29.12 0 0
29.2 0 0
29.28 0 0
29.36 0 0
29.44 0 0
29.52 0 0
29.6 0 0
29.68 0 0
29.76 0 0
29.84 0 0
29.92 0 0
30 0 0
30.08 0 0
30.16 0 0
30.24 0 0
30.32 0 0
30.4 0 0
30.48 0 0
30.56 0 0
30.64 0 0
30.72 0 0
30.8 0 0
30.88 0 0
30.96 0 0
31.04 0 0
31.12 0 0
31.2 0 0
31.28 0 0
31.36 0 0
31.44 0 0
31.52 0 0
31.6 0 0
31.68 0 0
31.76 0 0
31.84 0 0
31.92 0 0
0 0.005 0
0.08 0.005 0
0.16 0.005 0
0.24 0.005 0
0.32 0.005 0
0.4 0.005 0
0.48 0.005 0
0.56 0.005 0
0.64 0.005 0
0.72 0.005 0
0.8 0.005 0
0.88 0.005 0
0.96 0.005 0
1.04 0.005 0
1.12 0.005 0
1.2 0.005 0
1.28 0.005 0
1.36 0.005 0
1.44 0.005 0
1.52 0.005 0
1.6 0.005 0
1.68 0.005 0
1.76 0.005 0
1.84 0.005 0
1.92 0.005 0
2 0.005 0
2.08 0.005 0
2.16 0.005 0
2.24 0.005 0
2.32 0.005 0
2.4 0.005 0
2.48 0.005 0
2.56 0.005 0
2.64 0.005 0
2.72 0.005 0
2.8 0.005 0
2.88 0.005 0
2.96 0.005 0
3.04 0.005 0
3.12 0.005 0
3.2 0.005 0
3.28 0.005 0
3.36 0.005 0
3.44 0.005 0
3.52 0.005 0
3.6 0.005 0
3.68 0.005 0
3.76 0.005 0
3.84 0.005 0
3.92 0.005 0
4 0.005 0
4.08 0.005 0
4.16 0.005 0
4.24 0.005 0
4.32 0.005 0
4.4 0.005 0
4.48 0.005 0
4.56 0.005 0
4.64 0.005 0
4.72 0.005 0
4.8 0.005 0
4.88 0.005 0
4.96 0.005 0
5.04 0.005 0
5.12 0.005 0
5.2 0.005 0
5.28 0.005 0
5.36 0.005 0
5.44 0.005 0
5.52 0.005 0
5.6 0.005 0
5.68 0.005 0
5.76 0.005 0
5.84 0.005 0
5.92 0.005 0
6 0.005 0
6.08 0.005 0
6.16 0.005 0
6.24 0.005 0
6.32 0.005 0
6.4 0.005 0
6.48 0.005 0
6.56 0.005 0
6.64 0.005 0
6.72 0.005 0
6.8 0.005 0
6.88 0.005 0
6.96 0.005 0
7.04 0.005 0
7.12 0.005 0
7.2 0.005 0
7.28 0.005 0
7.36 0.005 0
7.44 0.005 0
7.52 0.005 0
7.6 0.005 0
7.68 0.005 0
7.76 0.005 0
7.84 0.005 0
7.92 0.005 0
8 0.005 0
8.08 0.005 0
8.16 0.005 0
8.24 0.005 0
8.32 0.005 0
8.4 0.005 0
8.48 0.005 0
8.56 0.005 0
8.64 0.005 0
8.72 0.005 0
8.8 0.005 0
8.88 0.005 0
8.96 0.005 0
9.04 0.005 0
9.12 0.005 0
9.2 0.005 0
9.28 0.005 0
9.36 0.005 0
9.44 0.005 0
9.52 0.005 0
9.6 0.005 0
9.68 0.005 0
9.76 0.005 0
9.84 0.005 0
9.92 0.005 0
10 0.005 0
10.08 0.005 0
10.16 0.005 0
10.24 0.005 0
10.32 0.005 0
10.4 0.005 0
10.48 0.005 0
10.56 0.005 0
10.64 0.005 0
10.72 0.005 0
10.8 0.005 0
10.88 0.005 0
10.96 0.005 0
11.04 0.005 0
11.12 0.005 0
11.2 0.005 0
11.28 0.005 0
11.36 0.005 0
11.44 0.005 0
11.52 0.005 0
11.6 0.005 0
11.68 0.005 0
11.76 0.005 0
11.84 0.005 0
11.92 0.005 0
12 0.005 0
12.08 0.005 0
12.16 0.005 0
12.24 0.005 0
12.32 0.005 0
12.4 0.005 0
12.48 0.005 0
12.56 0.005 0
12.64 0.005 0
12.72 0.005 0
12.8 0.005 0
12.88 0.005 0
12.96 0.005 0
13.04 0.005 0
13.12 0.005 0
13.2 0.005 0
13.28 0.005 0
13.36 0.005 0
13.44 0.005 0
13.52 0.005 0
13.6 0.005 0
13.68 0.005 0
13.76 0.005 0
13.84 0.005 0
13.92 0.005 0
14 0.005 0
14.08 0.005 0
14.16 0.005 0
14.24 0.005 0
14.32 0.005 0
14.4 0.005 0
14.48 0.005 0
14.56 0.005 0
14.64 0.005 0
14.72 0.005 0
14.8 0.005 0
14.88 0.005 0
14.96 0.005 0
15.04 0.005 0
15.12 0.005 0
15.2 0.005 0
15.28 0.005 0
15.36 0.005 0
15.44 0.005 0
15.52 0.005 0
15.6 0.005 0
15.68 0.005 0
15.76 0.005 0
15.84 0.005 0
15.92 0.005 0
16 0.005 0
16.08 0.005 0
16.16 0.005 0
16.24 0.005 0
16.32 0.005 0
16.4 0.005 0
16.48 0.005 0
16.56 0.005 0
16.64 0.005 0
16.72 0.005 0
16.8 0.005 0
16.88 0.005 0
16.96 0.005 0
17.04 0.005 0
17.12 0.005 0
17.2 0.005 0
17.28 0.005 0
17.36 0.005 0
17.44 0.005 0
17.52 0.005 0
17.6 0.005 0
17.68 0.005 0
17.76 0.005 0
17.84 0.005 0
17.92 0.005 0
18 0.005 0
18.08 0.005 0
18.16 0.005 0
18.24 0.005 0
18.32 0.005 0
18.4 0.005 0
18.48 0.005 0
18.56 0.005 0
18.64 0.005 0
18.72 0.005 0
18.8 0.005 0
18.88 0.005 0
18.96 0.005 0
19.04 0.005 0
19.12 0.005 0
19.2 0.005 0
19.28 0.005 0
19.36 0.005 0
19.44 0.005 0
19.52 0.005 0
19.6 0.005 0
19.68 0.005 0
19.76 0.005 0
19.84 0.005 0
19.92 0.005 0
20 0.005 0
20.08 0.005 0
20.16 0.005 0
20.24 0.005 0
20.32 0.005 0
20.4 0.005 0
20.48 0.005 0
20.56 0.005 0
20.64 0.005 0
20.72 0.005 0
20.8 0.005 0
20.88 0.005 0
20.96 0.005 0
21.04 0.005 0
21.12 0.005 0
21.2 0.005 0
21.28 0.005 0
21.36 0.005 0
21.44 0.005 0
21.52 0.005 0
21.6 0.005 0
21.68 0.005 0
21.76 0.005 0
21.84 0.005 0
21.92 0.005 0
22 0.005 0
22.08 0.005 0
22.16 0.005 0
22.24 0.005 0
22.32 0.005 0
22.4 0.005 0
22.48 0.005 0
22.56 0.005 0
22.64 0.005 0
22.72 0.005 0
22.8 0.005 0
22.88 0.005 0
22.96 0.005 0
23.04 0.005 0
23.12 0.005 0
23.2 0.005 0
23.28 0.005 0
23.36 0.005 0
23.44 0.005 0
23.52 0.005 0
23.6 0.005 0
23.68 0.005 0
23.76 0.005 0
23.84 0.005 0
23.92 0.005 0
24 0.005 0
24.08 0.005 0
24.16 0.005 0
24.24 0.005 0
24.32 0.005 0
24.4 0.005 0
24.48 0.005 0
24.56 0.005 0
24.64 0.005 0
24.72 0.005 0
24.8 0.005 0
24.88 0.005 0
24.96 0.005 0
25.04 0.005 0
25.12 0.005 0
25.2 0.005 0
25.28 0.005 0
25.36 0.005 0
25.44 0.005 0
25.52 0.005 0
25.6 0.005 0
25.68 0.005 0
25.76 0.005 0
25.84 0.005 0
25.92 0.005 0
26 0.005 0
26.08 0.005 0
26.16 0.005 0
26.24 0.005 0
26.32 0.005 0
26.4 0.005 0
26.48 0.005 0
26.56 0.005 0
26.64 0.005 0
26.72 0.005 0
26.8 0.005 0
26.88 0.005 0
26.96 0.005 0
27.04 0.005 0
27.12 0.005 0
27.2 0.005 0
27.28 0.005 0
27.36 0.005 0
27.44 0.005 0
27.52 0.005 0
27.6 0.005 0
27.68 0.005 0
27.76 0.005 0
27.84 0.005 0
27.92 0.005 0
28 0.005 0
28.08 0.005 0
28.16 0.005 0
28.24 0.005 0
28.32 0.005 0
28.4 0.005 0
28.48 0.005 0
28.56 0.005 0
28.64 0.005 0
28.72 0.005 0
28.8 0.005 0
28.88 0.005 0
28.96 0.005 0
29.04 0.005 0
29.12 0.005 0
29.2 0.005 0
29.28 0.005 0
29.36 0.005 0
29.44 0.005 0
29.52 0.005 0
29.6 0.005 0
29.68 0.005 0
29.76 0.005 0
29.84 0.005 0
29.92 0.005 0
30 0.005 0
30.08 0.005 0
30.16 0.005 0
30.24 0.005 0
30.32 0.005 0
30.4 0.005 0
30.48 0.005 0
30.56 0.005 0
30.64 0.005 0
30.72 0.005 0
30.8 0.005 0
30.88 0.005 0
30.96 0.005 0
31.04 0.005 0
31.12 0.005 0
31.2 0.005 0
31.28 0.005 0
31.36 0.005 0
31.44 0.005 0
31.52 0.005 0
31.6 0.005 0
31.68 0.005 0
31.76 0.005 0
31.84 0.005 0
31.92 0.005 0
0 0.01 0
0.08 0.01 0
0.16 0.01 0
0.24 0.01 0
0.32 0.01 0
0.4 0.01 0
0.48 0.01 0
0.56 0.01 0
0.64 0.01 0
0.72 0.01 0
0.8 0.01 0
0.88 0.01 0
0.96 0.01 0
1.04 0.01 0
1.12 0.01 0
1.2 0.01 0
1.28 0.01 0
1.36 0.01 0
1.44 0.01 0
1.52 0.01 0
1.6 0.01 0
1.68 0.01 0
1.76 0.01 0
1.84 0.01 0
1.92 0.01 0
2 0.01 0
2.08 0.01 0
2.16 0.01 0
2.24 0.01 0
2.32 0.01 0
2.4 0.01 0
2.48 0.01 0
2.56 0.01 0
2.64 0.01 0
2.72 0.01 0
2.8 0.01 0
2.88 0.01 0
2.96 0.01 0
3.04 0.01 0
3.12 0.01 0
3.2 0.01 0
3.28 0.01 0
3.36 0.01 0
3.44 0.01 0
3.52 0.01 0
3.6 0.01 0
3.68 0.01 0
3.76 0.01 0
3.84 0.01 0
3.92 0.01 0
4 0.01 0
4.08 0.01 0
4.16 0.01 0
4.24 0.01 0
4.32 0.01 0
4.4 0.01 0
4.48 0.01 0
4.56 0.01 0
4.64 0.01 0
4.72 0.01 0
4.8 0.01 0
4.88 0.01 0
4.96 0.01 0
5.04 0.01 0
5.12 0.01 0
[...]
POINT_DATA 80000

SCALARS u float 1
LOOKUP_TABLE default
0
-0.131678
-0.068297
-0.05234
-0.0444842
-0.0396601
-0.0363653
-0.0339764
-0.0321702
-0.0307501
-0.029605
-0.0286904
-0.0279935
-0.0274965
-0.0271624
-0.0269445
-0.0268022
-0.026708
-0.0266469
-0.0266103
-0.0265922
-0.026587
-0.0265897
-0.0265958
-0.0266026
-0.0266085
-0.0266129
-0.0266158
-0.0266175
-0.0266183
-0.0266185
-0.0266184
-0.026618
-0.0266176
-0.0266171
-0.0266166
-0.0266161
-0.0266157
-0.0266152
-0.0266147
-0.0266143
-0.0266138
-0.0266134
-0.026613
-0.0266126
-0.0266122
-0.0266118
-0.0266114
-0.026611
-0.0266106
-0.0266103
-0.0266099
-0.0266095
-0.0266091
-0.0266087
-0.0266083
-0.026608
-0.0266076
-0.0266072
-0.0266068
-0.0266064
-0.026606
-0.0266056
-0.0266052
-0.0266048
-0.0266044
-0.0266039
-0.0266035
-0.0266031
-0.0266026
-0.0266022
-0.0266017
-0.0266013
-0.0266008
-0.0266003
-0.0265998
-0.0265993
-0.0265988
-0.0265982
-0.0265977
-0.0265972
-0.0265966
-0.026596
-0.0265954
-0.0265948
-0.0265942
-0.0265936
-0.026593
-0.0265923
-0.0265916
-0.026591
-0.0265902
-0.0265895
-0.0265888
-0.026588
-0.0265873
-0.0265865
-0.0265857
-0.0265848
-0.026584
-0.0265831
-0.0265822
-0.0265813
-0.0265803
-0.0265794
-0.0265784
-0.0265774
-0.0265764
-0.0265753
-0.0265742
-0.0265731
-0.026572
-0.0265708
-0.0265696
-0.0265684
-0.0265671
-0.0265658
-0.0265645
-0.0265632
-0.0265618
-0.0265604
-0.026559
-0.0265575
-0.026556
-0.0265544
-0.0265528
-0.0265512
-0.0265495
-0.0265478
-0.0265461
-0.0265443
-0.0265425
-0.0265406
-0.0265387
-0.0265368
-0.0265348
-0.0265328
-0.0265307
-0.0265285
-0.0265264
-0.0265241
-0.0265219
-0.0265195
-0.0265171
-0.0265147
-0.0265122
-0.0265097
-0.0265071
-0.0265044
-0.0265017
-0.0264989
-0.0264961
-0.0264932
-0.0264902
-0.0264872
-0.0264841
-0.0264809
-0.0264777
-0.0264744
-0.026471
-0.0264676
-0.026464
-0.0264604
-0.0264568
-0.026453
-0.0264492
-0.0264453
-0.0264413
-0.0264372
-0.026433
-0.0264288
-0.0264244
-0.02642
-0.0264154
-0.0264108
-0.0264061
-0.0264013
-0.0263963
-0.0263913
-0.0263862
-0.0263809
-0.0263755
-0.0263701
-0.0263645
-0.0263588
-0.026353
-0.026347
-0.0263409
-0.0263347
-0.0263284
-0.0263219
-0.0263153
-0.0263086
-0.0263017
-0.0262947
-0.0262875
-0.0262801
-0.0262726
-0.026265
-0.0262572
-0.0262492
-0.026241
-0.0262327
-0.0262242
-0.0262155
-0.0262066
-0.0261975
-0.0261883
-0.0261788
-0.0261691
-0.0261592
-0.0261491
-0.0261387
-0.0261282
-0.0261174
-0.0261063
-0.026095
-0.0260835
-0.0260717
-0.0260596
-0.0260473
-0.0260346
-0.0260217
-0.0260085
-0.025995
-0.0259812
-0.025967
-0.0259525
-0.0259377
-0.0259225
-0.025907
-0.0258911
-0.0258749
-0.0258582
-0.0258412
-0.0258237
-0.0258058
-0.0257875
-0.0257688
-0.0257496
-0.02573
-0.0257099
-0.0256893
-0.0256682
-0.0256466
-0.0256245
-0.0256019
-0.0255787
-0.025555
-0.0255307
-0.0255059
-0.0254805
-0.0254545
-0.0254279
-0.0254008
-0.025373
-0.0253446
-0.0253156
-0.025286
-0.0252558
-0.025225
-0.0251936
-0.0251615
-0.0251289
-0.0250956
-0.0250618
-0.0250274
-0.0249924
-0.0249569
-0.0249209
-0.0248844
-0.0248474
-0.0248099
-0.0247721
-0.0247339
-0.0246953
-0.0246565
-0.0246175
-0.0245782
-0.0245389
-0.0244995
-0.0244601
-0.0244207
-0.0243816
-0.0243426
-0.024304
-0.0242659
-0.0242282
-0.0241911
-0.0241548
-0.0241193
-0.0240847
-0.0240512
-0.0240189
-0.0239879
-0.0239583
-0.0239304
-0.0239041
-0.0238797
-0.0238573
-0.023837
-0.0238191
-0.0238035
-0.0237906
-0.0237804
-0.0237731
-0.0237688
-0.0237677
-0.0237699
-0.0237756
-0.0237848
-0.0237978
-0.0238147
-0.0238356
-0.0238605
-0.0238897
-0.0239232
-0.0239612
-0.0240037
-0.0240507
-0.0241024
-0.0241589
-0.0242202
-0.0242862
-0.0243572
-0.024433
-0.0245137
-0.0245994
-0.0246899
-0.0247852
-0.0248854
-0.0249903
-0.0250999
-0.0252141
-0.0253328
-0.025456
-0.0255835
-0.0257152
-0.025851
-0.0259907
-0.0261341
-0.0262812
-0.0264316
-0.0265853
-0.026742
-0.0269016
-0.0270638
-0.0272284
-0.0273952
-0.0275641
-0.0277346
-0.0279067
-0.0280801
-0.0282545
-0.0284298
-0.0286057
-0.0287819
-0.0289582
-0.0291344
-0.0293103
-0.0294857
-0.0296603
-0.0298338
-0.0300062
-0.0301772
-0.0303466
-0.0305143
-0.03068
-0.0308435
-0.0310048
-0.0311637
-0.0313199
-0.0314735
-0.0316242
-0.031772
-0.0319167
-0.0320583
-0.0321966
-0.0323317
-0.0324633
-0.0325916
-0.0327163
-0.0328376
-0.0329553
-0.0330694
-0.0331802
-0.0332867
-0.0333913
-0.0334892
-0.033589
-0.033677
-0.0337729
-0.033852
-0.0339413
-0.0340158
-0.0340954
-0.0341681
-0.0342149
-0.0342149
-0.0342149
1
0.131678
0.068297
0.05234
0.0444842
0.0396601
0.0363653
0.0339764
0.0321702
0.0307501
0.029605
0.0286904
0.0279935
0.0274965
0.0271624
0.0269445
0.0268022
0.026708
0.0266469
0.0266103
0.0265922
0.026587
0.0265897
0.0265958
0.0266026
0.0266085
0.0266129
0.0266158
0.0266175
0.0266183
0.0266185
0.0266184
0.026618
0.0266176
0.0266171
0.0266166
0.0266161
0.0266157
0.0266152
0.0266147
0.0266143
0.0266138
0.0266134
0.026613
0.0266126
0.0266122
0.0266118
0.0266114
0.026611
0.0266106
0.0266103
0.0266099
0.0266095
0.0266091
0.0266087
0.0266083
0.026608
0.0266076
0.0266072
0.0266068
0.0266064
0.026606
0.0266056
0.0266052
0.0266048
0.0266044
0.0266039
0.0266035
0.0266031
0.0266026
0.0266022
0.0266017
0.0266013
0.0266008
0.0266003
0.0265998
0.0265993
0.0265988
0.0265982
0.0265977
0.0265972
0.0265966
0.026596
0.0265954
0.0265948
0.0265942
0.0265936
0.026593
0.0265923
0.0265916
0.026591
0.0265902
0.0265895
0.0265888
0.026588
0.0265873
0.0265865
0.0265857
0.0265848
0.026584
0.0265831
0.0265822
0.0265813
0.0265803
0.0265794
0.0265784
0.0265774
0.0265764
0.0265753
0.0265742
0.0265731
0.026572
0.0265708
0.0265696
0.0265684
0.0265671
0.0265658
0.0265645
0.0265632
0.0265618
0.0265604
0.026559
0.0265575
0.026556
0.0265544
0.0265528
0.0265512
0.0265495
0.0265478
0.0265461
0.0265443
0.0265425
0.0265406
0.0265387
0.0265368
0.0265348
0.0265328
0.0265307
0.0265285
0.0265264
0.0265241
0.0265219
0.0265195
0.0265171
0.0265147
0.0265122
0.0265097
0.0265071
0.0265044
0.0265017
0.0264989
0.0264961
0.0264932
0.0264902
0.0264872
0.0264841
0.0264809
0.0264777
0.0264744
0.026471
0.0264676
0.026464
0.0264604
0.0264568
0.026453
0.0264492
0.0264453
0.0264413
0.0264372
0.026433
0.0264288
0.0264244
0.02642
0.0264154
0.0264108
0.0264061
0.0264013
0.0263963
0.0263913
0.0263862
0.0263809
0.0263755
0.0263701
0.0263645
0.0263588
0.026353
0.026347
0.0263409
0.0263347
0.0263284
0.0263219
0.0263153
0.0263086
0.0263017
0.0262947
0.0262875
0.0262801
0.0262726
0.026265
0.0262572
0.0262492
0.026241
0.0262327
0.0262242
0.0262155
0.0262066
0.0261975
0.0261883
0.0261788
0.0261691
0.0261592
0.0261491
0.0261387
0.0261282
0.0261174
0.0261063
0.026095
0.0260835
0.0260717
0.0260596
0.0260473
0.0260346
0.0260217
0.0260085
0.025995
0.0259812
0.025967
0.0259525
0.0259377
0.0259225
0.025907
0.0258911
0.0258749
0.0258582
0.0258412
0.0258237
0.0258058
0.0257875
0.0257688
0.0257496
0.02573
0.0257099
0.0256893
0.0256682
0.0256466
0.0256245
0.0256019
0.0255787
0.025555
0.0255307
0.0255059
0.0254805
0.0254545
0.0254279
0.0254008
0.025373
0.0253446
0.0253156
0.025286
0.0252558
0.025225
0.0251936
0.0251615
0.0251289
0.0250956
0.0250618
0.0250274
0.0249924
0.0249569
0.0249209
0.0248844
0.0248474
0.0248099
0.0247721
0.0247339
0.0246953
0.0246565
0.0246175
0.0245782
0.0245389
0.0244995
0.0244601
0.0244207
0.0243816
0.0243426
0.024304
0.0242659
0.0242282
0.0241911
0.0241548
0.0241193
0.0240847
0.0240512
0.0240189
0.0239879
0.0239583
0.0239304
0.0239041
0.0238797
0.0238573
0.023837
0.0238191
0.0238035
0.0237906
0.0237804
0.0237731
0.0237688
0.0237677
0.0237699
0.0237756
0.0237848
0.0237978
0.0238147
0.0238356
0.0238605
0.0238897
0.0239232
0.0239612
0.0240037
0.0240507
0.0241024
0.0241589
0.0242202
0.0242862
0.0243572
0.024433
0.0245137
0.0245994
0.0246899
0.0247852
0.0248854
0.0249903
0.0250999
0.0252141
0.0253328
0.025456
0.0255835
0.0257152
0.025851
0.0259907
0.0261341
0.0262812
0.0264316
0.0265853
0.026742
0.0269016
0.0270638
0.0272284
0.0273952
0.0275641
0.0277346
0.0279067
0.0280801
0.0282545
0.0284298
0.0286057
0.0287819
0.0289582
0.0291344
0.0293103
0.0294857
0.0296603
0.0298338
0.0300062
0.0301772
0.0303466
0.0305143
0.03068
0.0308435
0.0310048
0.0311637
0.0313199
0.0314735
0.0316242
0.031772
0.0319167
0.0320583
0.0321966
0.0323317
0.0324633
0.0325916
0.0327163
0.0328376
0.0329553
0.0330694
0.0331802
0.0332867
0.0333913
0.0334892
0.033589
0.033677
0.0337729
0.033852
0.0339413
0.0340158
0.0340954
0.0341681
0.0342149
0.0342149
0.0342149
1
0.344922
0.200742
0.15509
0.132078
0.117839
0.108077
0.100985
0.095615
0.0913939
0.0880026
0.0853116
0.0832742
0.0818254
0.0808502
0.0802122
0.0797953
0.0795222
0.0793484
0.0792476
0.0792004
0.0791895
0.0791996
0.0792187
0.0792389
0.0792562
0.0792692
0.079278
0.0792834
0.0792865
0.079288
0.0792886
0.0792886
0.0792884
0.0792881
0.0792877
0.0792874
0.079287
0.0792867
0.0792865
0.0792863
0.0792861
0.079286
0.0792858
0.0792857
0.0792857
0.0792856
0.0792856
0.0792856
0.0792855
0.0792855
0.0792855
0.0792855
0.0792856
0.0792856
0.0792856
0.0792856
0.0792856
0.0792856
0.0792856
0.0792856
0.0792856
0.0792856
0.0792856
0.0792855
0.0792855
0.0792854
0.0792853
0.0792852
0.0792851
0.079285
0.0792849
0.0792847
0.0792845
0.0792843
0.0792841
0.0792838
0.0792835
0.0792832
0.0792829
0.0792825
0.0792822
0.0792817
0.0792813
0.0792808
0.0792803
0.0792797
0.0792791
0.0792785
0.0792779
0.0792772
0.0792764
0.0792756
0.0792748
0.0792739
0.079273
0.079272
0.079271
0.0792699
0.0792688
0.0792676
0.0792664
0.0792651
0.0792638
0.0792624
0.0792609
0.0792594
0.0792578
0.0792562
0.0792545
0.0792527
0.0792508
0.0792489
0.0792469
0.0792448
0.0792427
0.0792405
0.0792382
0.0792358
0.0792333
0.0792308
0.0792281
0.0792254
0.0792226
0.0792197
0.0792167
0.0792136
0.0792104
0.0792071
0.0792037
0.0792002
0.0791966
0.0791928
0.079189
0.0791851
0.079181
0.0791768
0.0791725
0.0791681
0.0791636
0.0791589
0.0791541
0.0791492
0.0791441
0.0791389
0.0791336
0.0791281
0.0791224
0.0791167
0.0791107
0.0791046
0.0790984
0.079092
0.0790854
0.0790787
0.0790718
0.0790647
0.0790574
0.07905
0.0790424
0.0790346
0.0790266
0.0790184
0.07901
0.0790014
0.0789926
0.0789836
0.0789743
0.0789649
0.0789552
0.0789453
0.0789352
0.0789248
0.0789142
0.0789034
0.0788923
0.0788809
0.0788693
0.0788574
0.0788453
0.0788328
0.0788201
0.0788071
0.0787938
0.0787802
0.0787663
0.0787521
0.0787376
0.0787227
0.0787075
0.078692
0.0786762
0.0786599
0.0786433
0.0786264
0.0786091
0.0785913
0.0785732
0.0785547
0.0785358
0.0785165
0.0784967
0.0784765
0.0784559
0.0784348
0.0784132
0.0783912
0.0783687
0.0783456
0.0783221
0.0782981
0.0782735
0.0782484
0.0782227
0.0781964
0.0781696
0.0781422
0.0781141
0.0780855
0.0780562
0.0780262
0.0779956
0.0779643
0.0779324
0.0778997
0.0778663
0.0778321
0.0777972
0.0777615
0.077725
0.0776878
0.0776497
0.0776107
0.0775709
0.0775303
0.0774887
0.0774463
0.0774029
0.0773586
0.0773134
0.0772672
0.07722
0.0771718
0.0771227
0.0770725
0.0770214
0.0769692
0.0769159
0.0768617
0.0768064
0.0767501
0.0766927
0.0766343
0.0765749
0.0765145
0.0764532
0.0763908
0.0763275
0.0762632
0.0761981
0.0761321
0.0760653
0.0759977
0.0759294
0.0758605
0.0757909
0.0757209
0.0756504
0.0755795
0.0755084
0.0754371
0.0753657
0.0752945
0.0752234
0.0751526
0.0750824
0.0750127
0.0749439
0.074876
0.0748093
0.074744
0.0746802
0.0746181
0.0745581
0.0745002
0.0744449
0.0743922
0.0743426
0.0742962
0.0742533
0.0742142
0.0741792
0.0741486
0.0741227
0.0741018
0.0740862
0.0740763
0.0740723
0.0740746
0.0740834
0.0740992
0.0741223
0.0741528
0.0741912
0.0742378
0.0742928
0.0743566
0.0744294
0.0745115
0.0746032
0.0747047
0.0748162
0.074938
0.0750702
0.0752131
0.0753668
0.0755314
0.0757071
0.0758939
0.076092
0.0763013
0.076522
0.076754
0.0769973
0.0772518
0.0775175
0.0777942
0.0780818
0.0783802
0.0786891
0.0790084
0.0793378
0.0796771
0.0800259
0.0803839
0.0807508
0.0811263
0.0815098
0.0819011
0.0822997
0.0827052
0.083117
0.0835347
0.0839579
0.0843859
0.0848184
0.0852547
0.0856943
0.0861368
0.0865815
0.0870279
0.0874755
0.0879237
0.088372
0.0888198
0.0892667
0.0897121
0.0901555
0.0905964
0.0910343
0.0914688
0.0918994
0.0923256
0.0927471
0.0931635
0.0935743
0.0939792
0.0943779
0.09477
0.0951554
0.0955335
0.0959044
0.0962676
0.096623
0.0969705
0.0973099
0.0976409
0.0979636
0.0982779
0.0985836
0.0988807
0.0991692
0.099449
0.0997203
0.0999827
0.100237
0.100482
0.100722
0.100945
0.101175
0.101374
0.101596
0.101774
0.101982
0.10215
0.102335
0.102501
0.10261
0.10261
0.10261
1
0.51882
0.327513
0.25554
0.21814
0.194788
0.178715
0.167009
0.158131
0.151153
0.145561
0.141141
0.137806
0.135436
0.133836
0.132785
0.132098
0.13165
0.131368
0.131208
0.131136
0.131122
0.131141
0.131174
0.131207
0.131236
0.131258
0.131273
0.131283
0.13129
0.131294
0.131296
0.131298
0.1313
0.131301
0.131302
0.131303
0.131305
0.131306
0.131307
0.131309
0.13131
0.131312
0.131314
0.131315
0.131317
0.131319
0.13132
0.131322
0.131324
0.131326
0.131328
0.13133
0.131332
0.131334
0.131336
0.131337
0.131339
0.131341
0.131343
0.131345
0.131347
0.131349
0.131351
0.131353
0.131355
0.131357
0.131358
0.13136
0.131362
0.131364
0.131366
0.131367
0.131369
0.131371
0.131372
0.131374
0.131376
0.131377
0.131379
0.13138
0.131382
0.131383
0.131385
0.131386
0.131387
0.131389
0.13139
0.131391
0.131392
0.131393
0.131394
0.131395
0.131396
0.131397
0.131398
0.131398
0.131399
0.1314
0.1314
0.1314
0.131401
0.131401
0.131401
0.131401
0.131402
0.131401
0.131401
0.131401
0.131401
0.1314
0.1314
0.131399
0.131399
0.131398
0.131397
0.131396
0.131395
0.131394
0.131392
0.131391
0.131389
0.131388
0.131386
0.131384
0.131382
0.13138
0.131377
0.131375
0.131372
0.131369
0.131366
0.131363
0.13136
0.131357
0.131353
0.131349
0.131346
0.131342
0.131337
0.131333
0.131328
0.131324
0.131319
0.131314
0.131308
0.131303
0.131297
0.131291
0.131285
0.131279
0.131272
0.131265
0.131258
0.131251
0.131243
0.131236
0.131228
0.131219
0.131211
0.131202
0.131193
0.131184
0.131174
0.131165
0.131155
0.131144
0.131133
0.131123
0.131111
0.1311
0.131088
0.131075
0.131063
0.13105
0.131037
0.131023
0.131009
0.130995
0.13098
0.130965
0.13095
0.130934
0.130918
0.130901
0.130884
0.130866
0.130848
0.13083
0.130811
0.130792
0.130772
0.130752
0.130731
0.13071
0.130689
0.130666
0.130644
0.130621
0.130597
0.130572
0.130548
0.130522
0.130496
0.130469
0.130442
0.130414
0.130386
0.130357
0.130327
0.130296
0.130265
0.130233
0.130201
0.130167
0.130133
0.130099
0.130063
0.130027
0.12999
0.129952
0.129913
0.129873
0.129833
0.129792
0.129749
0.129706
0.129662
0.129617
0.129572
0.129525
0.129477
0.129428
0.129379
0.129328
0.129276
0.129224
0.12917
0.129115
0.12906
0.129003
0.128945
0.128887
0.128827
0.128766
0.128704
0.128642
0.128578
0.128513
0.128448
0.128381
0.128314
0.128246
0.128177
0.128107
0.128037
0.127966
0.127894
0.127822
0.12775
0.127677
0.127604
0.127531
0.127458
0.127385
0.127312
0.127239
0.127167
0.127096
0.127026
0.126956
0.126888
0.126822
0.126757
0.126693
0.126632
0.126574
0.126518
0.126464
0.126415
0.126368
0.126325
0.126287
0.126253
0.126223
0.126199
0.126181
0.126168
0.126161
0.126162
0.126169
0.126183
0.126206
0.126236
0.126276
0.126324
0.126382
0.12645
0.126528
0.126616
0.126716
0.126827
0.12695
0.127085
0.127233
0.127394
0.127568
0.127755
0.127956
0.128171
0.128401
0.128645
0.128904
0.129178
0.129466
0.12977
0.13009
0.130424
0.130774
0.131139
0.13152
0.131915
0.132326
0.132752
0.133192
0.133647
0.134116
0.134599
0.135096
0.135605
0.136128
0.136663
0.13721
0.137769
0.138338
0.138918
0.139508
0.140107
0.140714
0.141329
0.141952
0.142581
0.143216
0.143857
0.144502
0.14515
0.145802
0.146455
0.147111
0.147767
0.148423
0.149078
0.149732
0.150384
0.151033
0.151679
0.15232
0.152957
0.153588
0.154214
0.154832
0.155444
0.156047
0.156643
0.15723
0.157808
0.158376
0.158934
0.159482
0.16002
0.160547
0.161062
0.161566
0.162059
0.162539
0.163008
0.163465
0.16391
0.164342
0.164763
0.165171
0.165567
0.165951
0.166323
0.166683
0.167032
0.167367
0.167696
0.168002
0.168318
0.16859
0.168897
0.169138
0.169428
0.169656
0.169914
0.170143
0.170299
0.170299
0.170299
1
0.660952
0.447034
0.353129
0.302417
0.270366
0.248184
0.23198
0.219668
0.209987
0.202241
0.196137
0.19154
0.18827
0.186054
0.18459
0.183629
0.183005
0.182616
0.182399
0.182304
0.182289
0.182317
0.182363
0.18241
0.182451
0.182482
0.182505
0.182521
0.182532
0.18254
0.182546
0.182552
0.182556
0.182561
0.182565
0.18257
0.182574
0.182579
0.182584
0.182589
0.182594
0.182599
0.182604
0.182609
0.182614
0.18262
0.182625
0.18263
0.182636
0.182641
0.182647
0.182652
0.182658
0.182664
0.182669
0.182675
0.18268
0.182686
0.182692
0.182697
0.182703
0.182709
0.182714
0.18272
0.182726
0.182731
0.182737
0.182743
0.182748
0.182754
0.182759
0.182765
0.182771
0.182776
0.182782
0.182787
0.182793
0.182798
0.182803
0.182809
0.182814
0.182819
0.182825
0.18283
0.182835
0.18284
0.182845
0.18285
0.182855
0.18286
0.182865
0.18287
0.182875
0.182879
0.182884
0.182889
0.182893
0.182898
0.182902
0.182906
0.182911
0.182915
0.182919
0.182923
0.182927
0.18293
0.182934
0.182938
0.182941
0.182945
0.182948
0.182951
0.182954
0.182957
0.18296
0.182963
0.182966
0.182968
0.182971
0.182973
0.182975
0.182977
0.182979
0.182981
0.182982
0.182984
0.182985
0.182986
0.182987
0.182988
0.182989
0.18299
0.18299
0.18299
0.18299
0.18299
0.18299
0.182989
0.182988
0.182988
0.182987
0.182985
0.182984
0.182982
0.18298
0.182978
0.182976
0.182973
0.18297
0.182967
0.182964
0.182961
0.182957
0.182953
0.182949
0.182944
0.182939
0.182934
0.182929
0.182923
0.182917
0.182911
0.182905
0.182898
0.182891
0.182884
0.182876
0.182868
0.18286
0.182851
0.182842
0.182833
0.182823
0.182813
0.182802
0.182791
0.18278
0.182769
0.182757
0.182744
0.182732
0.182718
0.182705
0.182691
0.182676
0.182661
0.182646
0.18263
0.182614
0.182597
0.18258
0.182562
0.182544
0.182525
0.182506
0.182486
0.182466
0.182445
0.182424
0.182402
0.182379
0.182356
0.182333
0.182308
0.182283
0.182258
0.182232
0.182205
0.182177
0.182149
0.182121
0.182091
0.182061
0.18203
0.181999
0.181967
0.181934
0.1819
0.181866
0.18183
0.181795
0.181758
0.18172
0.181682
0.181643
0.181604
0.181563
0.181522
0.181479
0.181437
0.181393
0.181348
0.181303
0.181257
0.18121
0.181162
0.181114
0.181065
0.181015
0.180964
0.180913
0.180861
0.180809
0.180756
0.180702
0.180648
0.180593
0.180538
0.180482
0.180426
0.18037
0.180314
0.180258
0.180202
0.180145
0.180089
0.180033
0.179978
0.179923
0.179869
0.179816
0.179764
0.179712
0.179663
0.179614
0.179568
0.179523
0.17948
0.17944
0.179402
0.179368
0.179336
0.179308
0.179283
0.179263
0.179247
0.179235
0.179229
0.179228
0.179232
0.179243
0.17926
0.179284
0.179316
0.179355
0.179402
0.179457
0.179522
0.179596
0.17968
0.179774
0.179879
0.179995
0.180123
0.180262
0.180415
0.18058
0.180758
0.18095
0.181157
0.181378
0.181613
0.181864
0.182131
0.182413
0.182712
0.183027
0.183359
0.183708
0.184074
0.184457
0.184858
0.185276
0.185711
0.186165
0.186635
0.187124
0.18763
0.188153
0.188693
0.189251
0.189825
0.190415
0.191022
0.191644
0.192282
0.192935
0.193602
0.194283
0.194978
0.195685
0.196405
0.197136
0.197878
0.19863
0.199392
0.200162
0.20094
0.201726
0.202518
0.203315
0.204117
0.204923
0.205732
0.206543
0.207355
0.208168
0.208981
0.209792
0.210601
0.211407
0.21221
0.213008
0.213801
0.214588
0.215368
0.216141
0.216906
0.217662
0.218408
0.219145
0.219871
0.220586
0.22129
0.221982
0.222661
0.223328
0.223982
0.224622
0.225249
0.225861
0.22646
0.227044
0.227614
0.22817
0.228711
0.229237
0.229749
0.230247
0.230729
0.231198
0.231652
0.232092
0.232517
0.232931
0.233327
0.233717
0.234079
0.234455
0.234775
0.235144
0.235428
0.235776
0.236046
0.236357
0.236631
0.236828
0.236828
0.236828
1
0.776873
0.557985
0.447177
0.384571
0.344377
0.316358
0.295807
0.280154
0.267837
0.257993
0.250249
0.24442
0.240265
0.237434
0.235552
0.234311
0.233504
0.233005
0.232729
0.232611
0.232593
0.23263
0.23269
0.232751
0.232804
0.232846
0.232878
0.232901
0.232919
0.232932
0.232944
0.232955
0.232965
0.232974
0.232984
0.232994
0.233004
0.233014
0.233024
0.233034
0.233044
0.233054
0.233065
0.233076
0.233086
0.233097
0.233108
0.233119
0.23313
0.233141
0.233152
0.233163
0.233174
0.233185
0.233196
0.233208
0.233219
0.23323
0.233242
0.233253
0.233264
0.233276
0.233287
0.233299
0.23331
0.233322
0.233333
0.233345
0.233356
0.233368
0.233379