# vtk DataFile Version 2.0
FlowField
ASCII
DATASET STRUCTURED_GRID
DIMENSIONS 400 1 200
POINTS 80000 float
0 0 0
0.08 0 0
0.16 0 0
0.24 0 0
0.32 0 0
0.4 0 0
0.48 0 0
0.56 0 0
0.64 0 0
0.72 0 0
0.8 0 0
0.88 0 0
0.96 0 0
1.04 0 0
1.12 0 0
1.2 0 0
1.28 0 0
1.36 0 0
1.44 0 0
1.52 0 0
1.6 0 0
1.68 0 0
1.76 0 0
1.84 0 0
1.92 0 0
2 0 0
2.08 0 0
2.16 0 0
2.24 0 0
2.32 0 0
2.4 0 0
2.48 0 0
2.56 0 0
2.64 0 0
2.72 0 0
2.8 0 0
2.88 0 0
2.96 0 0
3.04 0 0
3.12 0 0
3.2 0 0
3.28 0 0
3.36 0 0
3.44 0 0
3.52 0 0
3.6 0 0
3.68 0 0
3.76 0 0
3.84 0 0
3.92 0 0
4 0 0
4.08 0 0
4.16 0 0
4.24 0 0
4.32 0 0
4.4 0 0
4.48 0 0
4.56 0 0
4.64 0 0
4.72 0 0
4.8 0 0
4.88 0 0
4.96 0 0
5.04 0 0
5.12 0 0
5.2 0 0
5.28 0 0
5.36 0 0
5.44 0 0
5.52 0 0
5.6 0 0
5.68 0 0
5.76 0 0
5.84 0 0
5.92 0 0
6 0 0
6.08 0 0
6.16 0 0
6.24 0 0
6.32 0 0
6.4 0 0
6.48 0 0
6.56 0 0
6.64 0 0
6.72 0 0
6.8 0 0
6.88 0 0
6.96 0 0
7.04 0 0
7.12 0 0
7.2 0 0
7.28 0 0
7.36 0 0
7.44 0 0
7.52 0 0
7.6 0 0
7.68 0 0
7.76 0 0
7.84 0 0
7.92 0 0
8 0 0
8.08 0 0
8.16 0 0
8.24 0 0
8.32 0 0
8.4 0 0
8.48 0 0
8.56 0 0
8.64 0 0
8.72 0 0
8.8 0 0
8.88 0 0
8.96 0 0
9.04 0 0
9.12 0 0
9.2 0 0
9.28 0 0
9.36 0 0
9.44 0 0
9.52 0 0
9.6 0 0
9.68 0 0
9.76 0 0
9.84 0 0
9.92 0 0
10 0 0
10.08 0 0
10.16 0 0
10.24 0 0
10.32 0 0
10.4 0 0
10.48 0 0
10.56 0 0
10.64 0 0
10.72 0 0
10.8 0 0
10.88 0 0
10.96 0 0
11.04 0 0
11.12 0 0
11.2 0 0
11.28 0 0
11.36 0 0
11.44 0 0
11.52 0 0
11.6 0 0
11.68 0 0
11.76 0 0
11.84 0 0
11.92 0 0
12 0 0
12.08 0 0
12.16 0 0
12.24 0 0
12.32 0 0
12.4 0 0
12.48 0 0
12.56 0 0
12.64 0 0
12.72 0 0
12.8 0 0
12.88 0 0
12.96 0 0
13.04 0 0
13.12 0 0
13.2 0 0
13.28 0 0
13.36 0 0
13.44 0 0
13.52 0 0
13.6 0 0
13.68 0 0
13.76 0 0
13.84 0 0
13.92 0 0
14 0 0
14.08 0 0
14.16 0 0
14.24 0 0
14.32 0 0
14.4 0 0
14.48 0 0
14.56 0 0
14.64 0 0
14.72 0 0
14.8 0 0
14.88 0 0
14.96 0 0
15.04 0 0
15.12 0 0
15.2 0 0
15.28 0 0
15.36 0 0
15.44 0 0
15.52 0 0
15.6 0 0
15.68 0 0
15.76 0 0
15.84 0 0
15.92 0 0
16 0 0
16.08 0 0
16.16 0 0
16.24 0 0
16.32 0 0
16.4 0 0
16.48 0 0
16.56 0 0
16.64 0 0
16.72 0 0
16.8 0 0
16.88 0 0
16.96 0 0
17.04 0 0
17.12 0 0
17.2 0 0
17.28 0 0
17.36 0 0
17.44 0 0
17.52 0 0
17.6 0 0
17.68 0 0
17.76 0 0
17.84 0 0
17.92 0 0
18 0 0
18.08 0 0
18.16 0 0
18.24 0 0
18.32 0 0
18.4 0 0
18.48 0 0
18.56 0 0
18.64 0 0
18.72 0 0
18.8 0 0
18.88 0 0
18.96 0 0
19.04 0 0
19.12 0 0
19.2 0 0
19.28 0 0
19.36 0 0
19.44 0 0
19.52 0 0
19.6 0 0
19.68 0 0
19.76 0 0
19.84 0 0
19.92 0 0
20 0 0
20.08 0 0
20.16 0 0
20.24 0 0
20.32 0 0
20.4 0 0
20.48 0 0
20.56 0 0
20.64 0 0
20.72 0 0
20.8 0 0
20.88 0 0
20.96 0 0
21.04 0 0
21.12 0 0
21.2 0 0
21.28 0 0
21.36 0 0
21.44 0 0
21.52 0 0
21.6 0 0
21.68 0 0
21.76 0 0
21.84 0 0
21.92 0 0
22 0 0
22.08 0 0
22.16 0 0
22.24 0 0
22.32 0 0
22.4 0 0
22.48 0 0
22.56 0 0
22.64 0 0
22.72 0 0
22.8 0 0
22.88 0 0
22.96 0 0
23.04 0 0
23.12 0 0
23.2 0 0
23.28 0 0
23.36 0 0
23.44 0 0
23.52 0 0
23.6 0 0
23.68 0 0
23.76 0 0
23.84 0 0
23.92 0 0
24 0 0
24.08 0 0
24.16 0 0
24.24 0 0
24.32 0 0
24.4 0 0
24.48 0 0
24.56 0 0
24.64 0 0
24.72 0 0
24.8 0 0
24.88 0 0
24.96 0 0
25.04 0 0
25.12 0 0
25.2 0 0
25.28 0 0
25.36 0 0
25.44 0 0
25.52 0 0
25.6 0 0
25.68 0 0
25.76 0 0
25.84 0 0
25.92 0 0
26 0 0
26.08 0 0
26.16 0 0
26.24 0 0
26.32 0 0
26.4 0 0
26.48 0 0
26.56 0 0
26.64 0 0
26.72 0 0
26.8 0 0
26.88 0 0
26.96 0 0
27.04 0 0
27.12 0 0
27.2 0 0
27.28 0 0
27.36 0 0
27.44 0 0
27.52 0 0
27.6 0 0
27.68 0 0
27.76 0 0
27.84 0 0
27.92 0 0
28 0 0
28.08 0 0
28.16 0 0
28.24 0 0
28.32 0 0
28.4 0 0
28.48 0 0
28.56 0 0
28.64 0 0
28.72 0 0
28.8 0 0
28.88 0 0
28.96 0 0
29.04 0 0
29.12 0 0
29.2 0 0
29.28 0 0
29.36 0 0
29.44 0 0
29.52 0 0
29.6 0 0
29.68 0 0
29.76 0 0
29.84 0 0
29.92 0 0
30 0 0
30.08 0 0
30.16 0 0
30.24 0 0
30.32 0 0
30.4 0 0
30.48 0 0
30.56 0 0
30.64 0 0
30.72 0 0
30.8 0 0
30.88 0 0
30.96 0 0
31.04 0 0
31.12 0 0
31.2 0 0
31.28 0 0
31.36 0 0
31.44 0 0
31.52 0 0
31.6 0 0
31.68 0 0
31.76 0 0
31.84 0 0
31.92 0 0
0 0.005 0
0.08 0.005 0
0.16 0.005 0
0.24 0.005 0
0.32 0.005 0
0.4 0.005 0
0.48 0.005 0
0.56 0.005 0
0.64 0.005 0
0.72 0.005 0
0.8 0.005 0
0.88 0.005 0
0.96 0.005 0
1.04 0.005 0
1.12 0.005 0
1.2 0.005 0
1.28 0.005 0
1.36 0.005 0
1.44 0.005 0
1.52 0.005 0
1.6 0.005 0
1.68 0.005 0
1.76 0.005 0
1.84 0.005 0
1.92 0.005 0
2 0.005 0
2.08 0.005 0
2.16 0.005 0
2.24 0.005 0
2.32 0.005 0
2.4 0.005 0
2.48 0.005 0
2.56 0.005 0
2.64 0.005 0
2.72 0.005 0
2.8 0.005 0
2.88 0.005 0
2.96 0.005 0
3.04 0.005 0
3.12 0.005 0
3.2 0.005 0
3.28 0.005 0
3.36 0.005 0
3.44 0.005 0
3.52 0.005 0
3.6 0.005 0
3.68 0.005 0
3.76 0.005 0
3.84 0.005 0
3.92 0.005 0
4 0.005 0
4.08 0.005 0
4.16 0.005 0
4.24 0.005 0
4.32 0.005 0
4.4 0.005 0
4.48 0.005 0
4.56 0.005 0
4.64 0.005 0
4.72 0.005 0
4.8 0.005 0
4.88 0.005 0
4.96 0.005 0
5.04 0.005 0
5.12 0.005 0
5.2 0.005 0
5.28 0.005 0
5.36 0.005 0
5.44 0.005 0
5.52 0.005 0
5.6 0.005 0
5.68 0.005 0
5.76 0.005 0
5.84 0.005 0
5.92 0.005 0
6 0.005 0
6.08 0.005 0
6.16 0.005 0
6.24 0.005 0
6.32 0.005 0
6.4 0.005 0
6.48 0.005 0
6.56 0.005 0
6.64 0.005 0
6.72 0.005 0
6.8 0.005 0
6.88 0.005 0
6.96 0.005 0
7.04 0.005 0
7.12 0.005 0
7.2 0.005 0
7.28 0.005 0
7.36 0.005 0
7.44 0.005 0
7.52 0.005 0
7.6 0.005 0
7.68 0.005 0
7.76 0.005 0
7.84 0.005 0
7.92 0.005 0
8 0.005 0
8.08 0.005 0
8.16 0.005 0
8.24 0.005 0
8.32 0.005 0
8.4 0.005 0
8.48 0.005 0
8.56 0.005 0
8.64 0.005 0
8.72 0.005 0
8.8 0.005 0
8.88 0.005 0
8.96 0.005 0
9.04 0.005 0
9.12 0.005 0
9.2 0.005 0
9.28 0.005 0
9.36 0.005 0
9.44 0.005 0
9.52 0.005 0
9.6 0.005 0
9.68 0.005 0
9.76 0.005 0
9.84 0.005 0
9.92 0.005 0
10 0.005 0
10.08 0.005 0
10.16 0.005 0
10.24 0.005 0
10.32 0.005 0
10.4 0.005 0
10.48 0.005 0
10.56 0.005 0
10.64 0.005 0
10.72 0.005 0
10.8 0.005 0
10.88 0.005 0
10.96 0.005 0
11.04 0.005 0
11.12 0.005 0
11.2 0.005 0
11.28 0.005 0
11.36 0.005 0
11.44 0.005 0
11.52 0.005 0
11.6 0.005 0
11.68 0.005 0
11.76 0.005 0
11.84 0.005 0
11.92 0.005 0
12 0.005 0
12.08 0.005 0
12.16 0.005 0
12.24 0.005 0
12.32 0.005 0
12.4 0.005 0
12.48 0.005 0
12.56 0.005 0
12.64 0.005 0
12.72 0.005 0
12.8 0.005 0
12.88 0.005 0
12.96 0.005 0
13.04 0.005 0
13.12 0.005 0
13.2 0.005 0
13.28 0.005 0
13.36 0.005 0
13.44 0.005 0
13.52 0.005 0
13.6 0.005 0
13.68 0.005 0
13.76 0.005 0
13.84 0.005 0
13.92 0.005 0
14 0.005 0
14.08 0.005 0
14.16 0.005 0
14.24 0.005 0
14.32 0.005 0
14.4 0.005 0
14.48 0.005 0
14.56 0.005 0
14.64 0.005 0
14.72 0.005 0
14.8 0.005 0
14.88 0.005 0
14.96 0.005 0
15.04 0.005 0
15.12 0.005 0
15.2 0.005 0
15.28 0.005 0
15.36 0.005 0
15.44 0.005 0
15.52 0.005 0
15.6 0.005 0
15.68 0.005 0
15.76 0.005 0
15.84 0.005 0
15.92 0.005 0
16 0.005 0
16.08 0.005 0
16.16 0.005 0
16.24 0.005 0
16.32 0.005 0
16.4 0.005 0
16.48 0.005 0
16.56 0.005 0
16.64 0.005 0
16.72 0.005 0
16.8 0.005 0
16.88 0.005 0
16.96 0.005 0
17.04 0.005 0
17.12 0.005 0
17.2 0.005 0
17.28 0.005 0
17.36 0.005 0
17.44 0.005 0
17.52 0.005 0
17.6 0.005 0
17.68 0.005 0
17.76 0.005 0
17.84 0.005 0
17.92 0.005 0
18 0.005 0
18.08 0.005 0
18.16 0.005 0
18.24 0.005 0
18.32 0.005 0
18.4 0.005 0
18.48 0.005 0
18.56 0.005 0
18.64 0.005 0
18.72 0.005 0
18.8 0.005 0
18.88 0.005 0
18.96 0.005 0
19.04 0.005 0
19.12 0.005 0
19.2 0.005 0
19.28 0.005 0
19.36 0.005 0
19.44 0.005 0
19.52 0.005 0
19.6 0.005 0
19.68 0.005 0
19.76 0.005 0
19.84 0.005 0
19.92 0.005 0
20 0.005 0
20.08 0.005 0
20.16 0.005 0
20.24 0.005 0
20.32 0.005 0
20.4 0.005 0
20.48 0.005 0
20.56 0.005 0
20.64 0.005 0
20.72 0.005 0
20.8 0.005 0
20.88 0.005 0
20.96 0.005 0
21.04 0.005 0
21.12 0.005 0
21.2 0.005 0
21.28 0.005 0
21.36 0.005 0
21.44 0.005 0
21.52 0.005 0
21.6 0.005 0
21.68 0.005 0
21.76 0.005 0
21.84 0.005 0
21.92 0.005 0
22 0.005 0
22.08 0.005 0
22.16 0.005 0
22.24 0.005 0
22.32 0.005 0
22.4 0.005 0
22.48 0.005 0
22.56 0.005 0
22.64 0.005 0
22.72 0.005 0
22.8 0.005 0
22.88 0.005 0
22.96 0.005 0
23.04 0.005 0
23.12 0.005 0
23.2 0.005 0
23.28 0.005 0
23.36 0.005 0
23.44 0.005 0
23.52 0.005 0
23.6 0.005 0
23.68 0.005 0
23.76 0.005 0
23.84 0.005 0
23.92 0.005 0
24 0.005 0
24.08 0.005 0
24.16 0.005 0
24.24 0.005 0
24.32 0.005 0
24.4 0.005 0
24.48 0.005 0
24.56 0.005 0
24.64 0.005 0
24.72 0.005 0
24.8 0.005 0
24.88 0.005 0
24.96 0.005 0
25.04 0.005 0
25.12 0.005 0
25.2 0.005 0
25.28 0.005 0
25.36 0.005 0
25.44 0.005 0
25.52 0.005 0
25.6 0.005 0
25.68 0.005 0
25.76 0.005 0
25.84 0.005 0
25.92 0.005 0
26 0.005 0
26.08 0.005 0
26.16 0.005 0
26.24 0.005 0
26.32 0.005 0
26.4 0.005 0
26.48 0.005 0
26.56 0.005 0
26.64 0.005 0
26.72 0.005 0
26.8 0.005 0
26.88 0.005 0
26.96 0.005 0
27.04 0.005 0
27.12 0.005 0
27.2 0.005 0
27.28 0.005 0
27.36 0.005 0
27.44 0.005 0
27.52 0.005 0
27.6 0.005 0
27.68 0.005 0
27.76 0.005 0
27.84 0.005 0
27.92 0.005 0
28 0.005 0
28.08 0.005 0
28.16 0.005 0
28.24 0.005 0
28.32 0.005 0
28.4 0.005 0
28.48 0.005 0
28.56 0.005 0
28.64 0.005 0
28.72 0.005 0
28.8 0.005 0
28.88 0.005 0
28.96 0.005 0
29.04 0.005 0
29.12 0.005 0
29.2 0.005 0
29.28 0.005 0
29.36 0.005 0
29.44 0.005 0
29.52 0.005 0
29.6 0.005 0
29.68 0.005 0
29.76 0.005 0
29.84 0.005 0
29.92 0.005 0
30 0.005 0
30.08 0.005 0
30.16 0.005 0
30.24 0.005 0
30.32 0.005 0
30.4 0.005 0
30.48 0.005 0
30.56 0.005 0
30.64 0.005 0
30.72 0.005 0
30.8 0.005 0
30.88 0.005 0
30.96 0.005 0
31.04 0.005 0
31.12 0.005 0
31.2 0.005 0
31.28 0.005 0
31.36 0.005 0
31.44 0.005 0
31.52 0.005 0
31.6 0.005 0
31.68 0.005 0
31.76 0.005 0
31.84 0.005 0
31.92 0.005 0
0 0.01 0
0.08 0.01 0
0.16 0.01 0
0.24 0.01 0
0.32 0.01 0
0.4 0.01 0
0.48 0.01 0
0.56 0.01 0
0.64 0.01 0
0.72 0.01 0
0.8 0.01 0
0.88 0.01 0
0.96 0.01 0
1.04 0.01 0
1.12 0.01 0
1.2 0.01 0
1.28 0.01 0
1.36 0.01 0
1.44 0.01 0
1.52 0.01 0
1.6 0.01 0
1.68 0.01 0
1.76 0.01 0
1.84 0.01 0
1.92 0.01 0
2 0.01 0
2.08 0.01 0
2.16 0.01 0
2.24 0.01 0
2.32 0.01 0
2.4 0.01 0
2.48 0.01 0
2.56 0.01 0
2.64 0.01 0
2.72 0.01 0
2.8 0.01 0
2.88 0.01 0
2.96 0.01 0
3.04 0.01 0
3.12 0.01 0
3.2 0.01 0
3.28 0.01 0
3.36 0.01 0
3.44 0.01 0
3.52 0.01 0
3.6 0.01 0
3.68 0.01 0
3.76 0.01 0
3.84 0.01 0
3.92 0.01 0
4 0.01 0
4.08 0.01 0
4.16 0.01 0
4.24 0.01 0
4.32 0.01 0
4.4 0.01 0
4.48 0.01 0
4.56 0.01 0
4.64 0.01 0
4.72 0.01 0
4.8 0.01 0
4.88 0.01 0
4.96 0.01 0
5.04 0.01 0
5.12 0.01 0
[...]
POINT_DATA 80000

SCALARS p float 1
LOOKUP_TABLE default
1
56.819
56.5173
56.4761
56.456
56.4416
56.4296
56.4189
56.4089
56.3994
56.3902
56.3813
56.3727
56.3643
56.3561
56.3481
56.3402
56.3326
56.325
56.3177
56.3105
56.3034
56.2964
56.2896
56.2829
56.2763
56.2699
56.2635
56.2573
56.2512
56.2452
56.2393
56.2336
56.228
56.2226
56.2173
56.212
56.2069
56.2019
56.197
56.1922
56.1874
56.1827
56.178
56.1733
56.1687
56.164
56.1594
56.1549
56.1504
56.1459
56.1415
56.1372
56.1329
56.1286
56.1244
56.1202
56.116
56.1118
56.1076
56.1034
56.0992
56.095
56.0908
56.0866
56.0824
56.0782
56.074
56.0698
56.0656
56.0614
56.0573
56.0531
56.0489
56.0447
56.0405
56.0363
56.0321
56.0279
56.0237
56.0195
56.0153
56.0111
56.0069
56.0027
55.9986
55.9944
55.9902
55.986
55.9818
55.9776
55.9734
55.9692
55.965
55.9608
55.9566
55.9524
55.9482
55.944
55.9398
55.9356
55.9314
55.9272
55.923
55.9188
55.9146
55.9104
55.9062
55.9021
55.8979
55.8937
55.8895
55.8853
55.8811
55.8769
55.8727
55.8685
55.8643
55.8601
55.8559
55.8517
55.8475
55.8433
55.8391
55.8349
55.8307
55.8265
55.8223
55.8181
55.8139
55.8097
55.8055
55.8013
55.7971
55.7929
55.7887
55.7845
55.7803
55.7761
55.7719
55.7677
55.7635
55.7593
55.7551
55.7509
55.7467
55.7425
55.7383
55.7341
55.7298
55.7256
55.7214
55.7172
55.713
55.7088
55.7046
55.7004
55.6962
55.692
55.6878
55.6836
55.6794
55.6752
55.671
55.6668
55.6626
55.6584
55.6542
55.65
55.6458
55.6416
55.6374
55.6332
55.629
55.6248
55.6206
55.6164
55.6122
55.6079
55.6037
55.5995
55.5953
55.5911
55.5869
55.5827
55.5785
55.5743
55.5701
55.5659
55.5617
55.5575
55.5533
55.5491
55.5449
55.5407
55.5365
55.5323
55.5281
55.5239
55.5197
55.5155
55.5113
55.5071
55.5029
55.4987
55.4945
55.4903
55.4861
55.4819
55.4777
55.4734
55.4692
55.465
55.4608
55.4566
55.4524
55.4482
55.444
55.4398
55.4356
55.4314
55.4272
55.423
55.4188
55.4146
55.4104
55.4062
55.402
55.3978
55.3936
55.3894
55.3852
55.381
55.3769
55.3727
55.3685
55.3643
55.3601
55.3559
55.3517
55.3475
55.3433
55.3391
55.3349
55.3307
55.3265
55.3223
55.3181
55.3139
55.3097
55.3055
55.3013
55.2971
55.2929
55.2887
55.2845
55.2803
55.2761
55.2719
55.2677
55.2635
55.2594
55.2552
55.251
55.2468
55.2426
55.2384
55.2342
55.23
55.2258
55.2216
55.2174
55.2132
55.209
55.2048
55.2006
55.1964
55.1922
55.188
55.1838
55.1796
55.1754
55.1712
55.167
55.1628
55.1587
55.1545
55.1503
55.1461
55.1419
55.1377
55.1335
55.1293
55.1251
55.1209
55.1167
55.1125
55.1083
55.1041
55.0999
55.0957
55.0915
55.0873
55.0831
55.0789
55.0747
55.0705
55.0663
55.0621
55.0579
55.0537
55.0495
55.0453
55.0411
55.0369
55.0327
55.0285
55.0243
55.0201
55.0158
55.0116
55.0074
55.0032
54.999
54.9948
54.9906
54.9864
54.9822
54.978
54.9738
54.9696
54.9654
54.9612
54.957
54.9528
54.9485
54.9443
54.9401
54.9359
54.9317
54.9275
54.9233
54.9191
54.9149
54.9107
54.9065
54.9022
54.898
54.8938
54.8896
54.8854
54.8812
54.877
54.8728
54.8686
54.8643
54.8601
54.8559
54.8517
54.8475
54.8433
54.8391
54.8349
54.8306
54.8264
54.8222
54.818
54.8138
54.8096
54.8054
54.8012
54.7969
54.7927
54.7885
54.7843
54.7801
54.7759
54.7717
54.7674
54.7632
54.759
54.7548
54.7506
54.7464
54.7422
54.738
54.7337
54.7295
54.7253
54.7211
54.7169
54.7127
54.7085
54.7043
54.7001
54.6958
54.6916
54.6874
54.6832
0.5
56.819
56.819
56.5173
56.4761
56.456
56.4416
56.4296
56.4189
56.4089
56.3994
56.3902
56.3813
56.3727
56.3643
56.3561
56.3481
56.3402
56.3326
56.325
56.3177
56.3105
56.3034
56.2964
56.2896
56.2829
56.2763
56.2699
56.2635
56.2573
56.2512
56.2452
56.2393
56.2336
56.228
56.2226
56.2173
56.212
56.2069
56.2019
56.197
56.1922
56.1874
56.1827
56.178
56.1733
56.1687
56.164
56.1594
56.1549
56.1504
56.1459
56.1415
56.1372
56.1329
56.1286
56.1244
56.1202
56.116
56.1118
56.1076
56.1034
56.0992
56.095
56.0908
56.0866
56.0824
56.0782
56.074
56.0698
56.0656
56.0614
56.0573
56.0531
56.0489
56.0447
56.0405
56.0363
56.0321
56.0279
56.0237
56.0195
56.0153
56.0111
56.0069
56.0027
55.9986
55.9944
55.9902
55.986
55.9818
55.9776
55.9734
55.9692
55.965
55.9608
55.9566
55.9524
55.9482
55.944
55.9398
55.9356
55.9314
55.9272
55.923
55.9188
55.9146
55.9104
55.9062
55.9021
55.8979
55.8937
55.8895
55.8853
55.8811
55.8769
55.8727
55.8685
55.8643
55.8601
55.8559
55.8517
55.8475
55.8433
55.8391
55.8349
55.8307
55.8265
55.8223
55.8181
55.8139
55.8097
55.8055
55.8013
55.7971
55.7929
55.7887
55.7845
55.7803
55.7761
55.7719
55.7677
55.7635
55.7593
55.7551
55.7509
55.7467
55.7425
55.7383
55.7341
55.7298
55.7256
55.7214
55.7172
55.713
55.7088
55.7046
55.7004
55.6962
55.692
55.6878
55.6836
55.6794
55.6752
55.671
55.6668
55.6626
55.6584
55.6542
55.65
55.6458
55.6416
55.6374
55.6332
55.629
55.6248
55.6206
55.6164
55.6122
55.6079
55.6037
55.5995
55.5953
55.5911
55.5869
55.5827
55.5785
55.5743
55.5701
55.5659
55.5617
55.5575
55.5533
55.5491
55.5449
55.5407
55.5365
55.5323
55.5281
55.5239
55.5197
55.5155
55.5113
55.5071
55.5029
55.4987
55.4945
55.4903
55.4861
55.4819
55.4777
55.4734
55.4692
55.465
55.4608
55.4566
55.4524
55.4482
55.444
55.4398
55.4356
55.4314
55.4272
55.423
55.4188
55.4146
55.4104
55.4062
55.402
55.3978
55.3936
55.3894
55.3852
55.381
55.3769
55.3727
55.3685
55.3643
55.3601
55.3559
55.3517
55.3475
55.3433
55.3391
55.3349
55.3307
55.3265
55.3223
55.3181
55.3139
55.3097
55.3055
55.3013
55.2971
55.2929
55.2887
55.2845
55.2803
55.2761
55.2719
55.2677
55.2635
55.2594
55.2552
55.251
55.2468
55.2426
55.2384
55.2342
55.23
55.2258
55.2216
55.2174
55.2132
55.209
55.2048
55.2006
55.1964
55.1922
55.188
55.1838
55.1796
55.1754
55.1712
55.167
55.1628
55.1587
55.1545
55.1503
55.1461
55.1419
55.1377
55.1335
55.1293
55.1251
55.1209
55.1167
55.1125
55.1083
55.1041
55.0999
55.0957
55.0915
55.0873
55.0831
55.0789
55.0747
55.0705
55.0663
55.0621
55.0579
55.0537
55.0495
55.0453
55.0411
55.0369
55.0327
55.0285
55.0243
55.0201
55.0158
55.0116
55.0074
55.0032
54.999
54.9948
54.9906
54.9864
54.9822
54.978
54.9738
54.9696
54.9654
54.9612
54.957
54.9528
54.9485
54.9443
54.9401
54.9359
54.9317
54.9275
54.9233
54.9191
54.9149
54.9107
54.9065
54.9022
54.898
54.8938
54.8896
54.8854
54.8812
54.877
54.8728
54.8686
54.8643
54.8601
54.8559
54.8517
54.8475
54.8433
54.8391
54.8349
54.8306
54.8264
54.8222
54.818
54.8138
54.8096
54.8054
54.8012
54.7969
54.7927
54.7885
54.7843
54.7801
54.7759
54.7717
54.7674
54.7632
54.759
54.7548
54.7506
54.7464
54.7422
54.738
54.7337
54.7295
54.7253
54.7211
54.7169
54.7127
54.7085
54.7043
54.7001
54.6958
54.6916
54.6874
54.6832
54.6832
56.8045
56.8045
56.5211
56.4774
56.4567
56.442
56.4299
56.4191
56.409
56.3995
56.3903
56.3814
56.3728
56.3644
56.3562
56.3481
56.3403
56.3326
56.3251
56.3177
56.3105
56.3034
56.2964
56.2896
56.2829
56.2764
56.2699
56.2636
56.2573
56.2512
56.2452
56.2394
56.2336
56.2281
56.2226
56.2173
56.2121
56.2069
56.2019
56.197
56.1922
56.1874
56.1827
56.178
56.1733
56.1687
56.164
56.1594
56.1549
56.1504
56.1459
56.1415
56.1372
56.1329
56.1286
56.1244
56.1202
56.116
56.1118
56.1076
56.1034
56.0992
56.095
56.0908
56.0866
56.0824
56.0782
56.074
56.0698
56.0656
56.0614
56.0573
56.0531
56.0489
56.0447
56.0405
56.0363
56.0321
56.0279
56.0237
56.0195
56.0153
56.0111
56.0069
56.0027
55.9986
55.9944
55.9902
55.986
55.9818
55.9776
55.9734
55.9692
55.965
55.9608
55.9566
55.9524
55.9482
55.944
55.9398
55.9356
55.9314
55.9272
55.923
55.9188
55.9146
55.9104
55.9062
55.9021
55.8979
55.8937
55.8895
55.8853
55.8811
55.8769
55.8727
55.8685
55.8643
55.8601
55.8559
55.8517
55.8475
55.8433
55.8391
55.8349
55.8307
55.8265
55.8223
55.8181
55.8139
55.8097
55.8055
55.8013
55.7971
55.7929
55.7887
55.7845
55.7803
55.7761
55.7719
55.7677
55.7635
55.7593
55.7551
55.7509
55.7467
55.7425
55.7383
55.7341
55.7298
55.7256
55.7214
55.7172
55.713
55.7088
55.7046
55.7004
55.6962
55.692
55.6878
55.6836
55.6794
55.6752
55.671
55.6668
55.6626
55.6584
55.6542
55.65
55.6458
55.6416
55.6374
55.6332
55.629
55.6248
55.6206
55.6164
55.6122
55.6079
55.6037
55.5995
55.5953
55.5911
55.5869
55.5827
55.5785
55.5743
55.5701
55.5659
55.5617
55.5575
55.5533
55.5491
55.5449
55.5407
55.5365
55.5323
55.5281
55.5239
55.5197
55.5155
55.5113
55.5071
55.5029
55.4987
55.4945
55.4903
55.4861
55.4819
55.4777
55.4734
55.4692
55.465
55.4608
55.4566
55.4524
55.4482
55.444
55.4398
55.4356
55.4314
55.4272
55.423
55.4188
55.4146
55.4104
55.4062
55.402
55.3978
55.3936
55.3894
55.3852
55.381
55.3769
55.3727
55.3685
55.3643
55.3601
55.3559
55.3517
55.3475
55.3433
55.3391
55.3349
55.3307
55.3265
55.3223
55.3181
55.3139
55.3097
55.3055
55.3013
55.2971
55.2929
55.2887
55.2845
55.2803
55.2761
55.2719
55.2677
55.2635
55.2593
55.2552
55.251
55.2468
55.2426
55.2384
55.2342
55.23
55.2258
55.2216
55.2174
55.2132
55.209
55.2048
55.2006
55.1964
55.1922
55.188
55.1838
55.1796
55.1754
55.1712
55.167
55.1628
55.1587
55.1545
55.1503
55.1461
55.1419
55.1377
55.1335
55.1293
55.1251
55.1209
55.1167
55.1125
55.1083
55.1041
55.0999
55.0957
55.0915
55.0873
55.0831
55.0789
55.0747
55.0705
55.0663
55.0621
55.0579
55.0537
55.0495
55.0453
55.0411
55.0369
55.0327
55.0285
55.0243
55.0201
55.0158
55.0116
55.0074
55.0032
54.999
54.9948
54.9906
54.9864
54.9822
54.978
54.9738
54.9696
54.9654
54.9612
54.957
54.9528
54.9485
54.9443
54.9401
54.9359
54.9317
54.9275
54.9233
54.9191
54.9149
54.9107
54.9065
54.9022
54.898
54.8938
54.8896
54.8854
54.8812
54.877
54.8728
54.8686
54.8643
54.8601
54.8559
54.8517
54.8475
54.8433
54.8391
54.8349
54.8306
54.8264
54.8222
54.818
54.8138
54.8096
54.8054
54.8012
54.7969
54.7927
54.7885
54.7843
54.7801
54.7759
54.7717
54.7674
54.7632
54.759
54.7548
54.7506
54.7464
54.7422
54.738
54.7337
54.7295
54.7253
54.7211
54.7169
54.7127
54.7085
54.7043
54.7001
54.6958
54.6916
54.6874
54.6832
54.6832
56.7885
56.7885
56.5243
56.4786
56.4573
56.4424
56.4302
56.4193
56.4092
56.3996
56.3904
56.3815
56.3729
56.3644
56.3562
56.3482
56.3403
56.3326
56.3251
56.3177
56.3105
56.3034
56.2965
56.2896
56.2829
56.2764
56.2699
56.2636
56.2573
56.2512
56.2452
56.2394
56.2336
56.2281
56.2226
56.2173
56.2121
56.207
56.2019
56.197
56.1922
56.1874
56.1827
56.178
56.1733
56.1687
56.164
56.1594
56.1549
56.1504
56.1459
56.1415
56.1372
56.1329
56.1286
56.1244
56.1202
56.116
56.1118
56.1076
56.1034
56.0992
56.095
56.0908
56.0866
56.0824
56.0782
56.074
56.0698
56.0656
56.0614
56.0573
56.0531
56.0489
56.0447
56.0405
56.0363
56.0321
56.0279
56.0237
56.0195
56.0153
56.0111
56.0069
56.0027
55.9986
55.9944
55.9902
55.986
55.9818
55.9776
55.9734
55.9692
55.965
55.9608
55.9566
55.9524
55.9482
55.944
55.9398
55.9356
55.9314
55.9272
55.923
55.9188
55.9146
55.9104
55.9062
55.9021
55.8979
55.8937
55.8895
55.8853
55.8811
55.8769
55.8727
55.8685
55.8643
55.8601
55.8559
55.8517
55.8475
55.8433
55.8391
55.8349
55.8307
55.8265
55.8223
55.8181
55.8139
55.8097
55.8055
55.8013
55.7971
55.7929
55.7887
55.7845
55.7803
55.7761
55.7719
55.7677
55.7635
55.7593
55.7551
55.7509
55.7467
55.7425
55.7383
55.7341
55.7298
55.7256
55.7214
55.7172
55.713
55.7088
55.7046
55.7004
55.6962
55.692
55.6878
55.6836
55.6794
55.6752
55.671
55.6668
55.6626
55.6584
55.6542
55.65
55.6458
55.6416
55.6374
55.6332
55.629
55.6248
55.6206
55.6164
55.6122
55.6079
55.6037
55.5995
55.5953
55.5911
55.5869
55.5827
55.5785
55.5743
55.5701
55.5659
55.5617
55.5575
55.5533
55.5491
55.5449
55.5407
55.5365
55.5323
55.5281
55.5239
55.5197
55.5155
55.5113
55.5071
55.5029
55.4987
55.4945
55.4903
55.4861
55.4819
55.4777
55.4734
55.4692
55.465
55.4608
55.4566
55.4524
55.4482
55.444
55.4398
55.4356
55.4314
55.4272
55.423
55.4188
55.4146
55.4104
55.4062
55.402
55.3978
55.3936
55.3894
55.3852
55.381
55.3769
55.3727
55.3685
55.3643
55.3601
55.3559
55.3517
55.3475
55.3433
55.3391
55.3349
55.3307
55.3265
55.3223
55.3181
55.3139
55.3097
55.3055
55.3013
55.2971
55.2929
55.2887
55.2845
55.2803
55.2761
55.2719
55.2677
55.2635
55.2593
55.2552
55.251
55.2468
55.2426
55.2384
55.2342
55.23
55.2258
55.2216
55.2174
55.2132
55.209
55.2048
55.2006
55.1964
55.1922
55.188
55.1838
55.1796
55.1754
55.1712
55.167
55.1628
55.1587
55.1545
55.1503
55.1461
55.1419
55.1377
55.1335
55.1293
55.1251
55.1209
55.1167
55.1125
55.1083
55.1041
55.0999
55.0957
55.0915
55.0873
55.0831
55.0789
55.0747
55.0705
55.0663
55.0621
55.0579
55.0537
55.0495
55.0453
55.0411
55.0369
55.0327
55.0285
55.0243
55.0201
55.0158
55.0116
55.0074
55.0032
54.999
54.9948
54.9906
54.9864
54.9822
54.978
54.9738
54.9696
54.9654
54.9612
54.957
54.9528
54.9485
54.9443
54.9401
54.9359
54.9317
54.9275
54.9233
54.9191
54.9149
54.9107
54.9065
54.9022
54.898
54.8938
54.8896
54.8854
54.8812
54.877
54.8728
54.8686
54.8643
54.8601
54.8559
54.8517
54.8475
54.8433
54.8391
54.8349
54.8306
54.8264
54.8222
54.818
54.8138
54.8096
54.8054
54.8012
54.7969
54.7927
54.7885
54.7843
54.7801
54.7759
54.7717
54.7674
54.7632
54.759
54.7548
54.7506
54.7464
54.7422
54.738
54.7337
54.7295
54.7253
54.7211
54.7169
54.7127
54.7085
54.7043
54.7001
54.6958
54.6916
54.6874
54.6832
54.6832
56.7726
56.7726
56.5272
56.4797
56.4579
56.4428
56.4304
56.4195
56.4093
56.3997
56.3905
56.3816
56.3729
56.3645
56.3563
56.3482
56.3404
56.3327
56.3251
56.3178
56.3105
56.3035
56.2965
56.2897
56.283
56.2764
56.2699
56.2636
56.2574
56.2512
56.2452
56.2394
56.2337
56.2281
56.2226
56.2173
56.2121
56.207
56.2019
56.197
56.1922
56.1874
56.1827
56.178
56.1733
56.1687
56.164
56.1594
56.1549
56.1504
56.1459
56.1415
56.1372
56.1329
56.1286
56.1244
56.1202
56.116
56.1118
56.1076
56.1034
56.0992
56.095
56.0908
56.0866
56.0824
56.0782
56.074
56.0698
56.0656
56.0614
56.0573
56.0531
56.0489
56.0447
56.0405
56.0363
56.0321
56.0279
56.0237
56.0195
56.0153
56.0111
56.0069
56.0027
55.9986
55.9944
55.9902
55.986
55.9818
55.9776
55.9734
55.9692
55.965
55.9608
55.9566
55.9524
55.9482
55.944
55.9398
55.9356
55.9314
55.9272
55.923
55.9188
55.9146
55.9104
55.9062
55.9021
55.8979
55.8937
55.8895
55.8853
55.8811
55.8769
55.8727
55.8685
55.8643
55.8601
55.8559
55.8517
55.8475
55.8433
55.8391
55.8349
55.8307
55.8265
55.8223
55.8181
55.8139
55.8097
55.8055
55.8013
55.7971
55.7929
55.7887
55.7845
55.7803
55.7761
55.7719
55.7677
55.7635
55.7593
55.7551
55.7509
55.7467
55.7425
55.7383
55.7341
55.7298
55.7256
55.7214
55.7172
55.713
55.7088
55.7046
55.7004
55.6962
55.692
55.6878
55.6836
55.6794
55.6752
55.671
55.6668
55.6626
55.6584
55.6542
55.65
55.6458
55.6416
55.6374
55.6332
55.629
55.6248
55.6206
55.6164
55.6122
55.6079
55.6037
55.5995
55.5953
55.5911
55.5869
55.5827
55.5785
55.5743
55.5701
55.5659
55.5617
55.5575
55.5533
55.5491
55.5449
55.5407
55.5365
55.5323
55.5281
55.5239
55.5197
55.5155
55.5113
55.5071
55.5029
55.4987
55.4945
55.4903
55.4861
55.4819
55.4777
55.4734
55.4692
55.465
55.4608
55.4566
55.4524
55.4482
55.444
55.4398
55.4356
55.4314
55.4272
55.423
55.4188
55.4146
55.4104
55.4062
55.402
55.3978
55.3936
55.3894
55.3852
55.381
55.3769
55.3727
55.3685
55.3643
55.3601
55.3559
55.3517
55.3475
55.3433
55.3391
55.3349
55.3307
55.3265
55.3223
55.3181
55.3139
55.3097
55.3055
55.3013
55.2971
55.2929
55.2887
55.2845
55.2803
55.2761
55.2719
55.2677
55.2635
55.2593
55.2552
55.251
55.2468
55.2426
55.2384
55.2342
55.23
55.2258
55.2216
55.2174
55.2132
55.209
55.2048
55.2006
55.1964
55.1922
55.188
55.1838
55.1796
55.1754
55.1712
55.167
55.1628
55.1587
55.1545
55.1503
55.1461
55.1419
55.1377
55.1335
55.1293
55.1251
55.1209
55.1167
55.1125
55.1083
55.1041
55.0999
55.0957
55.0915
55.0873
55.0831
55.0789
55.0747
55.0705
55.0663
55.0621
55.0579
55.0537
55.0495
55.0453
55.0411
55.0369
55.0327
55.0285
55.0243
55.0201
55.0158
55.0116
55.0074
55.0032
54.999
54.9948
54.9906
54.9864
54.9822
54.978
54.9738
54.9696
54.9654
54.9612
54.957
54.9528
54.9485
54.9443
54.9401
54.9359
54.9317
54.9275
54.9233
54.9191
54.9149
54.9107
54.9065
54.9022
54.898
54.8938
54.8896
54.8854
54.8812
54.877
54.8728
54.8686
54.8643
54.8601
54.8559
54.8517
54.8475
54.8433
54.8391
54.8349
54.8306
54.8264
54.8222
54.818
54.8138
54.8096
54.8054
54.8012
54.7969
54.7927
54.7885
54.7843
54.7801
54.7759
54.7717
54.7674
54.7632
54.759
54.7548
54.7506
54.7464
54.7422
54.738
54.7337
54.7295
54.7253
54.7211
54.7169
54.7127
54.7085
54.7043
54.7001
54.6958
54.6916
54.6874
54.6832
54.6832
56.7575
56.7575
56.5299
56.4808
56.4585
56.4432
56.4307
56.4196
56.4095
56.3998
56.3906
56.3817
56.373
56.3645
56.3563
56.3483
56.3404
56.3327
56.3252
56.3178
56.3106
56.3035
56.2965
56.2897
56.283
56.2764
56.27
56.2636
56.2574
56.2513
56.2453
56.2394
56.2337
56.2281
56.2226
56.2173
56.2121
56.207
56.202
56.197
56.1922
56.1874
56.1827
56.178
56.1733
56.1687
56.164
56.1594
56.1549
56.1504
56.1459
56.1415
56.1372
56.1329
56.1286
56.1244
56.1202
56.116
56.1118
56.1076
56.1034
56.0992
56.095
56.0908
56.0866
56.0824
56.0782
56.074
56.0698
56.0656
56.0614
56.0573
56.0531
56.0489
56.0447
56.0405
56.0363
56.0321
56.0279
56.0237
56.0195
56.0153
56.0111
56.0069
56.0027
55.9986
55.9944
55.9902
55.986
55.9818
55.9776
55.9734
55.9692
55.965
55.9608
55.9566
55.9524
55.9482
55.944
55.9398
55.9356
55.9314
55.9272
55.923
55.9188
55.9146
55.9104
55.9062
55.9021
55.8979
55.8937
55.8895
55.8853
55.8811
55.8769
55.8727
55.8685
55.8643
55.8601
55.8559
55.8517
55.8475
55.8433
55.8391
55.8349
55.8307
55.8265
55.8223
55.8181
55.8139
55.8097
55.8055
55.8013
55.7971
55.7929
55.7887
55.7845
55.7803
55.7761
55.7719
55.7677
55.7635
55.7593
55.7551
55.7509
55.7467
55.7425
55.7383
55.7341
55.7298
55.7256
55.7214
55.7172
55.713
55.7088
55.7046
55.7004
55.6962
55.692
55.6878
55.6836
55.6794
55.6752
55.671
55.6668
55.6626
55.6584
55.6542
55.65
55.6458
55.6416
55.6374
55.6332
55.629
55.6248
55.6206
55.6164
55.6122
55.6079
55.6037
55.5995
55.5953
55.5911
55.5869
55.5827
55.5785
55.5743
55.5701
55.5659
55.5617
55.5575
55.5533
55.5491
55.5449
55.5407
55.5365
55.5323
55.5281
55.5239
55.5197
55.5155
55.5113
55.5071
55.5029
55.4987
55.4945
55.4903
55.4861
55.4819
55.4777
55.4734
55.4692
55.465
55.4608
55.4566
55.4524
55.4482
55.444
55.4398
55.4356
55.4314
55.4272
55.423
55.4188
55.4146
55.4104
55.4062
55.402
55.3978
55.3936
55.3894
55.3852
55.381
55.3769
55.3727
55.3685
55.3643
55.3601
55.3559
55.3517
55.3475
55.3433
55.3391
55.3349
55.3307
55.3265
55.3223
55.3181
55.3139
55.3097
55.3055
55.3013
55.2971
55.2929
55.2887
55.2845
55.2803
55.2761
55.2719
55.2677
55.2635
55.2593
55.2552
55.251
55.2468
55.2426
55.2384
55.2342
55.23
55.2258
55.2216
55.2174
55.2132
55.209
55.2048
55.2006
55.1964
55.1922
55.188
55.1838
55.1796
55.1754
55.1712
55.167
55.1628
55.1587
55.1545
55.1503
55.1461
55.1419
55.1377
55.1335
55.1293
55.1251
55.1209
55.1167
55.1125
55.1083
55.1041
55.0999
55.0957
55.0915
55.0873
55.0831
55.0789
55.0747
55.0705
55.0663
55.0621
55.0579
55.0537
55.0495
55.0453
55.0411
55.0369
55.0327
55.0285
55.0243
55.0201
55.0158
55.0116
55.0074
55.0032
54.999
54.9948
54.9906
54.9864
54.9822
54.978
54.9738
54.9696
54.9654
54.9612
54.957
54.9528
54.9485
54.9443
54.9401
54.9359
54.9317
54.9275
54.9233
54.9191
54.9149
54.9107
54.9065
54.9022
54.898
54.8938
54.8896
54.8854
54.8812
54.877
54.8728
54.8686
54.8643
54.8601
54.8559
54.8517
54.8475
54.8433
54.8391
54.8349
54.8306
54.8264
54.8222
54.818
54.8138
54.8096
54.8054
54.8012
54.7969
54.7927
54.7885
54.7843
54.7801
54.7759
54.7717
54.7674
54.7632
54.759
54.7548
54.7506
54.7464
54.7422
54.738
54.7337
54.7295
54.7253
54.7211
54.7169
54.7127
54.7085
54.7043
54.7001
54.6958
54.6916
54.6874
54.6832
54.6832
56.7435
56.7435
56.5325
56.482
56.4591
56.4435
56.4309
56.4198
56.4096
56.4
56.3907
56.3817
56.3731
56.3646
56.3564
56.3483
56.3404
56.3327
56.3252
56.3178
56.3106
56.3035
56.2965
56.2897
56.283
56.2764
56.27
56.2636
56.2574
56.2513
56.2453
56.2394
56.2337
56.2281
56.2226
56.2173
56.2121
56.207
56.202
56.197
56.1922
56.1874
56.1827
56.178
56.1733
56.1687
56.164
56.1594
56.1549
56.1504
56.1459
56.1415
56.1372
56.1329
56.1286
56.1244
56.1202
56.116
56.1118
56.1076
56.1034
56.0992
56.095
56.0908
56.0866
56.0824
56.0782
56.074
56.0698
56.0656
56.0614
56.0573
56.0531
56.0489
56.0447
56.0405
56.0363
56.0321
56.0279
56.0237
56.0195
56.0153
56.0111
56.0069
56.0027
55.9986
55.9944
55.9902
55.986
55.9818
55.9776
55.9734
55.9692
55.965
55.9608
55.9566
55.9524
55.9482
55.944
55.9398
55.9356
55.9314
55.9272
55.923
55.9188
55.9146
55.9104
55.9062
55.9021
55.8979
55.8937
55.8895
55.8853
55.8811
55.8769
55.8727
55.8685
55.8643
55.8601
55.8559
55.8517
55.8475
55.8433
55.8391
55.8349