# vtk DataFile Version 2.0
FlowField
ASCII
DATASET STRUCTURED_GRID
DIMENSIONS 400 1 200
POINTS 80000 float
0 0 0
0.08 0 0
0.16 0 0
0.24 0 0
0.32 0 0
0.4 0 0
0.48 0 0
0.56 0 0
0.64 0 0
0.72 0 0
0.8 0 0
0.88 0 0
0.96 0 0
1.04 0 0
1.12 0 0
1.2 0 0
1.28 0 0
1.36 0 0
1.44 0 0
1.52 0 0
1.6 0 0
1.68 0 0
1.76 0 0
1.84 0 0
1.92 0 0
2 0 0
2.08 0 0
2.16 0 0
2.24 0 0
2.32 0 0
2.4 0 0
2.48 0 0
2.56 0 0
2.64 0 0
2.72 0 0
2.8 0 0
2.88 0 0
2.96 0 0
3.04 0 0
3.12 0 0
3.2 0 0
3.28 0 0
3.36 0 0
3.44 0 0
3.52 0 0
3.6 0 0
3.68 0 0
3.76 0 0
3.84 0 0
3.92 0 0
4 0 0
4.08 0 0
4.16 0 0
4.24 0 0
4.32 0 0
4.4 0 0
4.48 0 0
4.56 0 0
4.64 0 0
4.72 0 0
4.8 0 0
4.88 0 0
4.96 0 0
5.04 0 0
5.12 0 0
5.2 0 0
5.28 0 0
5.36 0 0
5.44 0 0
5.52 0 0
5.6 0 0
5.68 0 0
5.76 0 0
5.84 0 0
5.92 0 0
6 0 0
6.08 0 0
6.16 0 0
6.24 0 0
6.32 0 0
6.4 0 0
6.48 0 0
6.56 0 0
6.64 0 0
6.72 0 0
6.8 0 0
6.88 0 0
6.96 0 0
7.04 0 0
7.12 0 0
7.2 0 0
7.28 0 0
7.36 0 0
7.44 0 0
7.52 0 0
7.6 0 0
7.68 0 0
7.76 0 0
7.84 0 0
7.92 0 0
8 0 0
8.08 0 0
8.16 0 0
8.24 0 0
8.32 0 0
8.4 0 0
8.48 0 0
8.56 0 0
8.64 0 0
8.72 0 0
8.8 0 0
8.88 0 0
8.96 0 0
9.04 0 0
9.12 0 0
9.2 0 0
9.28 0 0
9.36 0 0
9.44 0 0
9.52 0 0
9.6 0 0
9.68 0 0
9.76 0 0
9.84 0 0
9.92 0 0
10 0 0
10.08 0 0
10.16 0 0
10.24 0 0
10.32 0 0
10.4 0 0
10.48 0 0
10.56 0 0
10.64 0 0
10.72 0 0
10.8 0 0
10.88 0 0
10.96 0 0
11.04 0 0
11.12 0 0
11.2 0 0
11.28 0 0
11.36 0 0
11.44 0 0
11.52 0 0
11.6 0 0
11.68 0 0
11.76 0 0
11.84 0 0
11.92 0 0
12 0 0
12.08 0 0
12.16 0 0
12.24 0 0
12.32 0 0
12.4 0 0
12.48 0 0
12.56 0 0
12.64 0 0
12.72 0 0
12.8 0 0
12.88 0 0
12.96 0 0
13.04 0 0
13.12 0 0
13.2 0 0
13.28 0 0
13.36 0 0
13.44 0 0
13.52 0 0
13.6 0 0
13.68 0 0
13.76 0 0
13.84 0 0
13.92 0 0
14 0 0
14.08 0 0
14.16 0 0
14.24 0 0
14.32 0 0
14.4 0 0
14.48 0 0
14.56 0 0
14.64 0 0
14.72 0 0
14.8 0 0
14.88 0 0
14.96 0 0
15.04 0 0
15.12 0 0
15.2 0 0
15.28 0 0
15.36 0 0
15.44 0 0
15.52 0 0
15.6 0 0
15.68 0 0
15.76 0 0
15.84 0 0
15.92 0 0
16 0 0
16.08 0 0
16.16 0 0
16.24 0 0
16.32 0 0
16.4 0 0
16.48 0 0
16.56 0 0
16.64 0 0
16.72 0 0
16.8 0 0
16.88 0 0
16.96 0 0
17.04 0 0
17.12 0 0
17.2 0 0
17.28 0 0
17.36 0 0
17.44 0 0
17.52 0 0
17.6 0 0
17.68 0 0
17.76 0 0
17.84 0 0
17.92 0 0
18 0 0
18.08 0 0
18.16 0 0
18.24 0 0
18.32 0 0
18.4 0 0
18.48 0 0
18.56 0 0
18.64 0 0
18.72 0 0
18.8 0 0
18.88 0 0
18.96 0 0
19.04 0 0
19.12 0 0
19.2 0 0
19.28 0 0
19.36 0 0
19.44 0 0
19.52 0 0
19.6 0 0
19.68 0 0
19.76 0 0
19.84 0 0
19.92 0 0
20 0 0
20.08 0 0
20.16 0 0
20.24 0 0
20.32 0 0
20.4 0 0
20.48 0 0
20.56 0 0
20.64 0 0
20.72 0 0
20.8 0 0
20.88 0 0
20.96 0 0
21.04 0 0
21.12 0 0
21.2 0 0
21.28 0 0
21.36 0 0
21.44 0 0
21.52 0 0
21.6 0 0
21.68 0 0
21.76 0 0
21.84 0 0
21.92 0 0
22 0 0
22.08 0 0
22.16 0 0
22.24 0 0
22.32 0 0
22.4 0 0
22.48 0 0
22.56 0 0
22.64 0 0
22.72 0 0
22.8 0 0
22.88 0 0
22.96 0 0
23.04 0 0
23.12 0 0
23.2 0 0
23.28 0 0
23.36 0 0
23.44 0 0
23.52 0 0
23.6 0 0
23.68 0 0
23.76 0 0
23.84 0 0
23.92 0 0
24 0 0
24.08 0 0
24.16 0 0
24.24 0 0
24.32 0 0
24.4 0 0
24.48 0 0
24.56 0 0
24.64 0 0
24.72 0 0
24.8 0 0
24.88 0 0
24.96 0 0
25.04 0 0
25.12 0 0
25.2 0 0
25.28 0 0
25.36 0 0
25.44 0 0
25.52 0 0
25.6 0 0
25.68 0 0
25.76 0 0
25.84 0 0
25.92 0 0
26 0 0
26.08 0 0
26.16 0 0
26.24 0 0
26.32 0 0
26.4 0 0
26.48 0 0
26.56 0 0
26.64 0 0
26.72 0 0
26.8 0 0
26.88 0 0
26.96 0 0
27.04 0 0
27.12 0 0
27.2 0 0
27.28 0 0
27.36 0 0
27.44 0 0
27.52 0 0
27.6 0 0
27.68 0 0
27.76 0 0
27.84 0 0
27.92 0 0
28 0 0
28.08 0 0
28.16 0 0
28.24 0 0
28.32 0 0
28.4 0 0
28.48 0 0
28.56 0 0
28.64 0 0
28.72 0 0
28.8 0 0
28.88 0 0
28.96 0 0
29.04 0 0
29.12 0 0
29.2 0 0
29.28 0 0
29.36 0 0
29.44 0 0
29.52 0 0
29.6 0 0
29.68 0 0
29.76 0 0
29.84 0 0
29.92 0 0
30 0 0
30.08 0 0
30.16 0 0
30.24 0 0
30.32 0 0
30.4 0 0
30.48 0 0
30.56 0 0
30.64 0 0
30.72 0 0
30.8 0 0
30.88 0 0
30.96 0 0
31.04 0 0
31.12 0 0
31.2 0 0
31.28 0 0
31.36 0 0
31.44 0 0
31.52 0 0
31.6 0 0
31.68 0 0
31.76 0 0
31.84 0 0
31.92 0 0
0 0.005 0
0.08 0.005 0
0.16 0.005 0
0.24 0.005 0
0.32 0.005 0
0.4 0.005 0
0.48 0.005 0
0.56 0.005 0
0.64 0.005 0
0.72 0.005 0
0.8 0.005 0
0.88 0.005 0
0.96 0.005 0
1.04 0.005 0
1.12 0.005 0
1.2 0.005 0
1.28 0.005 0
1.36 0.005 0
1.44 0.005 0
1.52 0.005 0
1.6 0.005 0
1.68 0.005 0
1.76 0.005 0
1.84 0.005 0
1.92 0.005 0
2 0.005 0
2.08 0.005 0
2.16 0.005 0
2.24 0.005 0
2.32 0.005 0
2.4 0.005 0
2.48 0.005 0
2.56 0.005 0
2.64 0.005 0
2.72 0.005 0
2.8 0.005 0
2.88 0.005 0
2.96 0.005 0
3.04 0.005 0
3.12 0.005 0
3.2 0.005 0
3.28 0.005 0
3.36 0.005 0
3.44 0.005 0
3.52 0.005 0
3.6 0.005 0
3.68 0.005 0
3.76 0.005 0
3.84 0.005 0
3.92 0.005 0
4 0.005 0
4.08 0.005 0
4.16 0.005 0
4.24 0.005 0
4.32 0.005 0
4.4 0.005 0
4.48 0.005 0
4.56 0.005 0
4.64 0.005 0
4.72 0.005 0
4.8 0.005 0
4.88 0.005 0
4.96 0.005 0
5.04 0.005 0
5.12 0.005 0
5.2 0.005 0
5.28 0.005 0
5.36 0.005 0
5.44 0.005 0
5.52 0.005 0
5.6 0.005 0
5.68 0.005 0
5.76 0.005 0
5.84 0.005 0
5.92 0.005 0
6 0.005 0
6.08 0.005 0
6.16 0.005 0
6.24 0.005 0
6.32 0.005 0
6.4 0.005 0
6.48 0.005 0
6.56 0.005 0
6.64 0.005 0
6.72 0.005 0
6.8 0.005 0
6.88 0.005 0
6.96 0.005 0
7.04 0.005 0
7.12 0.005 0
7.2 0.005 0
7.28 0.005 0
7.36 0.005 0
7.44 0.005 0
7.52 0.005 0
7.6 0.005 0
7.68 0.005 0
7.76 0.005 0
7.84 0.005 0
7.92 0.005 0
8 0.005 0
8.08 0.005 0
8.16 0.005 0
8.24 0.005 0
8.32 0.005 0
8.4 0.005 0
8.48 0.005 0
8.56 0.005 0
8.64 0.005 0
8.72 0.005 0
8.8 0.005 0
8.88 0.005 0
8.96 0.005 0
9.04 0.005 0
9.12 0.005 0
9.2 0.005 0
9.28 0.005 0
9.36 0.005 0
9.44 0.005 0
9.52 0.005 0
9.6 0.005 0
9.68 0.005 0
9.76 0.005 0
9.84 0.005 0
9.92 0.005 0
10 0.005 0
10.08 0.005 0
10.16 0.005 0
10.24 0.005 0
10.32 0.005 0
10.4 0.005 0
10.48 0.005 0
10.56 0.005 0
10.64 0.005 0
10.72 0.005 0
10.8 0.005 0
10.88 0.005 0
10.96 0.005 0
11.04 0.005 0
11.12 0.005 0
11.2 0.005 0
11.28 0.005 0
11.36 0.005 0
11.44 0.005 0
11.52 0.005 0
11.6 0.005 0
11.68 0.005 0
11.76 0.005 0
11.84 0.005 0
11.92 0.005 0
12 0.005 0
12.08 0.005 0
12.16 0.005 0
12.24 0.005 0
12.32 0.005 0
12.4 0.005 0
12.48 0.005 0
12.56 0.005 0
12.64 0.005 0
12.72 0.005 0
12.8 0.005 0
12.88 0.005 0
12.96 0.005 0
13.04 0.005 0
13.12 0.005 0
13.2 0.005 0
13.28 0.005 0
13.36 0.005 0
13.44 0.005 0
13.52 0.005 0
13.6 0.005 0
13.68 0.005 0
13.76 0.005 0
13.84 0.005 0
13.92 0.005 0
14 0.005 0
14.08 0.005 0
14.16 0.005 0
14.24 0.005 0
14.32 0.005 0
14.4 0.005 0
14.48 0.005 0
14.56 0.005 0
14.64 0.005 0
14.72 0.005 0
14.8 0.005 0
14.88 0.005 0
14.96 0.005 0
15.04 0.005 0
15.12 0.005 0
15.2 0.005 0
15.28 0.005 0
15.36 0.005 0
15.44 0.005 0
15.52 0.005 0
15.6 0.005 0
15.68 0.005 0
15.76 0.005 0
15.84 0.005 0
15.92 0.005 0
16 0.005 0
16.08 0.005 0
16.16 0.005 0
16.24 0.005 0
16.32 0.005 0
16.4 0.005 0
16.48 0.005 0
16.56 0.005 0
16.64 0.005 0
16.72 0.005 0
16.8 0.005 0
16.88 0.005 0
16.96 0.005 0
17.04 0.005 0
17.12 0.005 0
17.2 0.005 0
17.28 0.005 0
17.36 0.005 0
17.44 0.005 0
17.52 0.005 0
17.6 0.005 0
17.68 0.005 0
17.76 0.005 0
17.84 0.005 0
17.92 0.005 0
18 0.005 0
18.08 0.005 0
18.16 0.005 0
18.24 0.005 0
18.32 0.005 0
18.4 0.005 0
18.48 0.005 0
18.56 0.005 0
18.64 0.005 0
18.72 0.005 0
18.8 0.005 0
18.88 0.005 0
18.96 0.005 0
19.04 0.005 0
19.12 0.005 0
19.2 0.005 0
19.28 0.005 0
19.36 0.005 0
19.44 0.005 0
19.52 0.005 0
19.6 0.005 0
19.68 0.005 0
19.76 0.005 0
19.84 0.005 0
19.92 0.005 0
20 0.005 0
20.08 0.005 0
20.16 0.005 0
20.24 0.005 0
20.32 0.005 0
20.4 0.005 0
20.48 0.005 0
20.56 0.005 0
20.64 0.005 0
20.72 0.005 0
20.8 0.005 0
20.88 0.005 0
20.96 0.005 0
21.04 0.005 0
21.12 0.005 0
21.2 0.005 0
21.28 0.005 0
21.36 0.005 0
21.44 0.005 0
21.52 0.005 0
21.6 0.005 0
21.68 0.005 0
21.76 0.005 0
21.84 0.005 0
21.92 0.005 0
22 0.005 0
22.08 0.005 0
22.16 0.005 0
22.24 0.005 0
22.32 0.005 0
22.4 0.005 0
22.48 0.005 0
22.56 0.005 0
22.64 0.005 0
22.72 0.005 0
22.8 0.005 0
22.88 0.005 0
22.96 0.005 0
23.04 0.005 0
23.12 0.005 0
23.2 0.005 0
23.28 0.005 0
23.36 0.005 0
23.44 0.005 0
23.52 0.005 0
23.6 0.005 0
23.68 0.005 0
23.76 0.005 0
23.84 0.005 0
23.92 0.005 0
24 0.005 0
24.08 0.005 0
24.16 0.005 0
24.24 0.005 0
24.32 0.005 0
24.4 0.005 0
24.48 0.005 0
24.56 0.005 0
24.64 0.005 0
24.72 0.005 0
24.8 0.005 0
24.88 0.005 0
24.96 0.005 0
25.04 0.005 0
25.12 0.005 0
25.2 0.005 0
25.28 0.005 0
25.36 0.005 0
25.44 0.005 0
25.52 0.005 0
25.6 0.005 0
25.68 0.005 0
25.76 0.005 0
25.84 0.005 0
25.92 0.005 0
26 0.005 0
26.08 0.005 0
26.16 0.005 0
26.24 0.005 0
26.32 0.005 0
26.4 0.005 0
26.48 0.005 0
26.56 0.005 0
26.64 0.005 0
26.72 0.005 0
26.8 0.005 0
26.88 0.005 0
26.96 0.005 0
27.04 0.005 0
27.12 0.005 0
27.2 0.005 0
27.28 0.005 0
27.36 0.005 0
27.44 0.005 0
27.52 0.005 0
27.6 0.005 0
27.68 0.005 0
27.76 0.005 0
27.84 0.005 0
27.92 0.005 0
28 0.005 0
28.08 0.005 0
28.16 0.005 0
28.24 0.005 0
28.32 0.005 0
28.4 0.005 0
28.48 0.005 0
28.56 0.005 0
28.64 0.005 0
28.72 0.005 0
28.8 0.005 0
28.88 0.005 0
28.96 0.005 0
29.04 0.005 0
29.12 0.005 0
29.2 0.005 0
29.28 0.005 0
29.36 0.005 0
29.44 0.005 0
29.52 0.005 0
29.6 0.005 0
29.68 0.005 0
29.76 0.005 0
29.84 0.005 0
29.92 0.005 0
30 0.005 0
30.08 0.005 0
30.16 0.005 0
30.24 0.005 0
30.32 0.005 0
30.4 0.005 0
30.48 0.005 0
30.56 0.005 0
30.64 0.005 0
30.72 0.005 0
30.8 0.005 0
30.88 0.005 0
30.96 0.005 0
31.04 0.005 0
31.12 0.005 0
31.2 0.005 0
31.28 0.005 0
31.36 0.005 0
31.44 0.005 0
31.52 0.005 0
31.6 0.005 0
31.68 0.005 0
31.76 0.005 0
31.84 0.005 0
31.92 0.005 0
0 0.01 0
0.08 0.01 0
0.16 0.01 0
0.24 0.01 0
0.32 0.01 0
0.4 0.01 0
0.48 0.01 0
0.56 0.01 0
0.64 0.01 0
0.72 0.01 0
0.8 0.01 0
0.88 0.01 0
0.96 0.01 0
1.04 0.01 0
1.12 0.01 0
1.2 0.01 0
1.28 0.01 0
1.36 0.01 0
1.44 0.01 0
1.52 0.01 0
1.6 0.01 0
1.68 0.01 0
1.76 0.01 0
1.84 0.01 0
1.92 0.01 0
2 0.01 0
2.08 0.01 0
2.16 0.01 0
2.24 0.01 0
2.32 0.01 0
2.4 0.01 0
2.48 0.01 0
2.56 0.01 0
2.64 0.01 0
2.72 0.01 0
2.8 0.01 0
2.88 0.01 0
2.96 0.01 0
3.04 0.01 0
3.12 0.01 0
3.2 0.01 0
3.28 0.01 0
3.36 0.01 0
3.44 0.01 0
3.52 0.01 0
3.6 0.01 0
3.68 0.01 0
3.76 0.01 0
3.84 0.01 0
3.92 0.01 0
4 0.01 0
4.08 0.01 0
4.16 0.01 0
4.24 0.01 0
4.32 0.01 0
4.4 0.01 0
4.48 0.01 0
4.56 0.01 0
4.64 0.01 0
4.72 0.01 0
4.8 0.01 0
4.88 0.01 0
4.96 0.01 0
5.04 0.01 0
5.12 0.01 0
[...]
POINT_DATA 80000

SCALARS u float 1
LOOKUP_TABLE default
0
-0.131663
-0.0682693
-0.0522966
-0.0444214
-0.0395797
-0.0362648
-0.0338407
-0.0319843
-0.0305125
-0.0293136
-0.0283142
-0.0274649
-0.0267325
-0.0260956
-0.0255389
-0.0250487
-0.0246124
-0.0242219
-0.0238755
-0.0235775
-0.0233329
-0.0231424
-0.0229999
-0.0228934
-0.0228097
-0.0227379
-0.0226722
-0.0226111
-0.0225564
-0.0225102
-0.0224743
-0.022449
-0.0224331
-0.0224248
-0.022422
-0.0224227
-0.0224255
-0.0224292
-0.0224331
-0.0224371
-0.0224409
-0.0224444
-0.0224479
-0.0224513
-0.0224546
-0.0224578
-0.0224611
-0.0224644
-0.0224677
-0.022471
-0.0224743
-0.0224777
-0.022481
-0.0224844
-0.0224878
-0.0224911
-0.0224945
-0.0224979
-0.0225014
-0.0225048
-0.0225082
-0.0225116
-0.0225151
-0.0225185
-0.022522
-0.0225255
-0.0225289
-0.0225324
-0.0225359
-0.0225394
-0.0225429
-0.0225464
-0.0225499
-0.0225534
-0.022557
-0.0225605
-0.0225641
-0.0225676
-0.0225712
-0.0225747
-0.0225783
-0.0225819
-0.0225855
-0.0225891
-0.0225927
-0.0225963
-0.0226
-0.0226036
-0.0226072
-0.0226109
-0.0226146
-0.0226182
-0.0226219
-0.0226256
-0.0226293
-0.022633
-0.0226367
-0.0226405
-0.0226442
-0.0226479
-0.0226517
-0.0226555
-0.0226593
-0.022663
-0.0226668
-0.0226707
-0.0226745
-0.0226783
-0.0226822
-0.022686
-0.0226899
-0.0226938
-0.0226977
-0.0227016
-0.0227055
-0.0227094
-0.0227134
-0.0227173
-0.0227213
-0.0227253
-0.0227293
-0.0227333
-0.0227373
-0.0227413
-0.0227454
-0.0227494
-0.0227535
-0.0227576
-0.0227617
-0.0227658
-0.02277
-0.0227741
-0.0227783
-0.0227825
-0.0227867
-0.0227909
-0.0227952
-0.0227994
-0.0228037
-0.022808
-0.0228123
-0.0228166
-0.0228209
-0.0228253
-0.0228297
-0.0228341
-0.0228385
-0.0228429
-0.0228474
-0.0228519
-0.0228564
-0.0228609
-0.0228654
-0.02287
-0.0228745
-0.0228791
-0.0228837
-0.0228884
-0.022893
-0.0228977
-0.0229024
-0.0229071
-0.0229118
-0.0229166
-0.0229214
-0.0229262
-0.022931
-0.0229358
-0.0229407
-0.0229455
-0.0229504
-0.0229553
-0.0229603
-0.0229652
-0.0229702
-0.0229751
-0.0229801
-0.0229851
-0.0229901
-0.0229952
-0.0230002
-0.0230053
-0.0230103
-0.0230154
-0.0230205
-0.0230255
-0.0230306
-0.0230357
-0.0230408
-0.0230459
-0.023051
-0.023056
-0.0230611
-0.0230662
-0.0230712
-0.0230763
-0.0230813
-0.0230863
-0.0230913
-0.0230962
-0.0231012
-0.0231061
-0.0231109
-0.0231158
-0.0231206
-0.0231253
-0.02313
-0.0231347
-0.0231393
-0.0231438
-0.0231483
-0.0231528
-0.0231571
-0.0231614
-0.0231656
-0.0231697
-0.0231738
-0.0231778
-0.0231816
-0.0231854
-0.0231891
-0.0231926
-0.0231961
-0.0231994
-0.0232026
-0.0232057
-0.0232087
-0.0232115
-0.0232143
-0.0232168
-0.0232193
-0.0232215
-0.0232237
-0.0232256
-0.0232275
-0.0232291
-0.0232306
-0.0232319
-0.0232331
-0.0232341
-0.0232349
-0.0232355
-0.0232359
-0.0232362
-0.0232363
-0.0232362
-0.0232359
-0.0232354
-0.0232347
-0.0232339
-0.0232328
-0.0232316
-0.0232302
-0.0232285
-0.0232267
-0.0232247
-0.0232225
-0.0232202
-0.0232176
-0.0232149
-0.023212
-0.0232089
-0.0232056
-0.0232022
-0.0231986
-0.0231948
-0.0231909
-0.0231869
-0.0231827
-0.0231783
-0.0231738
-0.0231692
-0.0231644
-0.0231595
-0.0231545
-0.0231494
-0.0231442
-0.0231389
-0.0231335
-0.0231281
-0.0231225
-0.0231169
-0.0231112
-0.0231055
-0.0230997
-0.0230939
-0.023088
-0.0230822
-0.0230763
-0.0230704
-0.0230645
-0.0230586
-0.0230527
-0.0230468
-0.023041
-0.0230351
-0.0230294
-0.0230236
-0.023018
-0.0230124
-0.0230068
-0.0230013
-0.0229959
-0.0229906
-0.0229854
-0.0229803
-0.0229752
-0.0229703
-0.0229655
-0.0229608
-0.0229562
-0.0229518
-0.0229475
-0.0229432
-0.0229392
-0.0229353
-0.0229315
-0.0229278
-0.0229243
-0.0229209
-0.0229177
-0.0229147
-0.0229117
-0.022909
-0.0229064
-0.0229039
-0.0229016
-0.0228994
-0.0228974
-0.0228956
-0.0228939
-0.0228923
-0.0228909
-0.0228897
-0.0228886
-0.0228876
-0.0228868
-0.0228862
-0.0228856
-0.0228853
-0.022885
-0.0228849
-0.0228849
-0.0228851
-0.0228854
-0.0228858
-0.0228863
-0.022887
-0.0228878
-0.0228887
-0.0228897
-0.0228908
-0.022892
-0.0228933
-0.0228948
-0.0228963
-0.0228979
-0.0228996
-0.0229014
-0.0229033
-0.0229053
-0.0229074
-0.0229095
-0.0229117
-0.022914
-0.0229164
-0.0229188
-0.0229213
-0.0229239
-0.0229265
-0.0229292
-0.0229319
-0.0229347
-0.0229376
-0.0229405
-0.0229434
-0.0229465
-0.0229494
-0.0229527
-0.0229555
-0.022959
-0.0229618
-0.0229655
-0.0229683
-0.0229721
-0.0229749
-0.0229788
-0.0229817
-0.0229855
-0.0229888
-0.0229921
-0.0229963
-0.0229989
-0.0230037
-0.0230057
-0.023012
-0.0230058
-0.0230058
-0.0230058
1
0.131663
0.0682693
0.0522966
0.0444214
0.0395797
0.0362648
0.0338407
0.0319843
0.0305125
0.0293136
0.0283142
0.0274649
0.0267325
0.0260956
0.0255389
0.0250487
0.0246124
0.0242219
0.0238755
0.0235775
0.0233329
0.0231424
0.0229999
0.0228934
0.0228097
0.0227379
0.0226722
0.0226111
0.0225564
0.0225102
0.0224743
0.022449
0.0224331
0.0224248
0.022422
0.0224227
0.0224255
0.0224292
0.0224331
0.0224371
0.0224409
0.0224444
0.0224479
0.0224513
0.0224546
0.0224578
0.0224611
0.0224644
0.0224677
0.022471
0.0224743
0.0224777
0.022481
0.0224844
0.0224878
0.0224911
0.0224945
0.0224979
0.0225014
0.0225048
0.0225082
0.0225116
0.0225151
0.0225185
0.022522
0.0225255
0.0225289
0.0225324
0.0225359
0.0225394
0.0225429
0.0225464
0.0225499
0.0225534
0.022557
0.0225605
0.0225641
0.0225676
0.0225712
0.0225747
0.0225783
0.0225819
0.0225855
0.0225891
0.0225927
0.0225963
0.0226
0.0226036
0.0226072
0.0226109
0.0226146
0.0226182
0.0226219
0.0226256
0.0226293
0.022633
0.0226367
0.0226405
0.0226442
0.0226479
0.0226517
0.0226555
0.0226593
0.022663
0.0226668
0.0226707
0.0226745
0.0226783
0.0226822
0.022686
0.0226899
0.0226938
0.0226977
0.0227016
0.0227055
0.0227094
0.0227134
0.0227173
0.0227213
0.0227253
0.0227293
0.0227333
0.0227373
0.0227413
0.0227454
0.0227494
0.0227535
0.0227576
0.0227617
0.0227658
0.02277
0.0227741
0.0227783
0.0227825
0.0227867
0.0227909
0.0227952
0.0227994
0.0228037
0.022808
0.0228123
0.0228166
0.0228209
0.0228253
0.0228297
0.0228341
0.0228385
0.0228429
0.0228474
0.0228519
0.0228564
0.0228609
0.0228654
0.02287
0.0228745
0.0228791
0.0228837
0.0228884
0.022893
0.0228977
0.0229024
0.0229071
0.0229118
0.0229166
0.0229214
0.0229262
0.022931
0.0229358
0.0229407
0.0229455
0.0229504
0.0229553
0.0229603
0.0229652
0.0229702
0.0229751
0.0229801
0.0229851
0.0229901
0.0229952
0.0230002
0.0230053
0.0230103
0.0230154
0.0230205
0.0230255
0.0230306
0.0230357
0.0230408
0.0230459
0.023051
0.023056
0.0230611
0.0230662
0.0230712
0.0230763
0.0230813
0.0230863
0.0230913
0.0230962
0.0231012
0.0231061
0.0231109
0.0231158
0.0231206
0.0231253
0.02313
0.0231347
0.0231393
0.0231438
0.0231483
0.0231528
0.0231571
0.0231614
0.0231656
0.0231697
0.0231738
0.0231778
0.0231816
0.0231854
0.0231891
0.0231926
0.0231961
0.0231994
0.0232026
0.0232057
0.0232087
0.0232115
0.0232143
0.0232168
0.0232193
0.0232215
0.0232237
0.0232256
0.0232275
0.0232291
0.0232306
0.0232319
0.0232331
0.0232341
0.0232349
0.0232355
0.0232359
0.0232362
0.0232363
0.0232362
0.0232359
0.0232354
0.0232347
0.0232339
0.0232328
0.0232316
0.0232302
0.0232285
0.0232267
0.0232247
0.0232225
0.0232202
0.0232176
0.0232149
0.023212
0.0232089
0.0232056
0.0232022
0.0231986
0.0231948
0.0231909
0.0231869
0.0231827
0.0231783
0.0231738
0.0231692
0.0231644
0.0231595
0.0231545
0.0231494
0.0231442
0.0231389
0.0231335
0.0231281
0.0231225
0.0231169
0.0231112
0.0231055
0.0230997
0.0230939
0.023088
0.0230822
0.0230763
0.0230704
0.0230645
0.0230586
0.0230527
0.0230468
0.023041
0.0230351
0.0230294
0.0230236
0.023018
0.0230124
0.0230068
0.0230013
0.0229959
0.0229906
0.0229854
0.0229803
0.0229752
0.0229703
0.0229655
0.0229608
0.0229562
0.0229518
0.0229475
0.0229432
0.0229392
0.0229353
0.0229315
0.0229278
0.0229243
0.0229209
0.0229177
0.0229147
0.0229117
0.022909
0.0229064
0.0229039
0.0229016
0.0228994
0.0228974
0.0228956
0.0228939
0.0228923
0.0228909
0.0228897
0.0228886
0.0228876
0.0228868
0.0228862
0.0228856
0.0228853
0.022885
0.0228849
0.0228849
0.0228851
0.0228854
0.0228858
0.0228863
0.022887
0.0228878
0.0228887
0.0228897
0.0228908
0.022892
0.0228933
0.0228948
0.0228963
0.0228979
0.0228996
0.0229014
0.0229033
0.0229053
0.0229074
0.0229095
0.0229117
0.022914
0.0229164
0.0229188
0.0229213
0.0229239
0.0229265
0.0229292
0.0229319
0.0229347
0.0229376
0.0229405
0.0229434
0.0229465
0.0229494
0.0229527
0.0229555
0.022959
0.0229618
0.0229655
0.0229683
0.0229721
0.0229749
0.0229788
0.0229817
0.0229855
0.0229888
0.0229921
0.0229963
0.0229989
0.0230037
0.0230057
0.023012
0.0230058
0.0230058
0.0230058
1
0.344884
0.200668
0.154969
0.131899
0.117607
0.107783
0.100581
0.0950588
0.090678
0.0871082
0.0841331
0.081606
0.0794295
0.0775393
0.0758883
0.0744349
0.0731433
0.0719918
0.0709779
0.0701129
0.0694082
0.0688609
0.0684493
0.0681378
0.067889
0.0676744
0.0674793
0.0673012
0.0671447
0.0670157
0.0669175
0.0668497
0.0668085
0.0667881
0.0667824
0.066786
0.0667948
0.0668058
0.0668174
0.0668288
0.0668397
0.0668501
0.0668601
0.0668698
0.0668794
0.066889
0.0668986
0.0669081
0.0669178
0.0669274
0.0669371
0.0669469
0.0669567
0.0669665
0.0669763
0.0669862
0.0669961
0.067006
0.067016
0.0670259
0.0670359
0.0670459
0.067056
0.067066
0.0670761
0.0670862
0.0670963
0.0671064
0.0671166
0.0671267
0.0671369
0.0671471
0.0671573
0.0671676
0.0671779
0.0671881
0.0671984
0.0672088
0.0672191
0.0672295
0.0672399
0.0672503
0.0672607
0.0672712
0.0672816
0.0672921
0.0673026
0.0673132
0.0673237
0.0673343
0.0673449
0.0673556
0.0673662
0.0673769
0.0673876
0.0673983
0.0674091
0.0674199
0.0674307
0.0674415
0.0674524
0.0674632
0.0674741
0.0674851
0.067496
0.067507
0.067518
0.0675291
0.0675401
0.0675512
0.0675624
0.0675735
0.0675847
0.0675959
0.0676072
0.0676184
0.0676297
0.0676411
0.0676524
0.0676638
0.0676753
0.0676867
0.0676982
0.0677098
0.0677213
0.0677329
0.0677445
0.0677562
0.0677679
0.0677796
0.0677914
0.0678032
0.067815
0.0678269
0.0678388
0.0678508
0.0678627
0.0678748
0.0678868
0.0678989
0.067911
0.0679232
0.0679354
0.0679476
0.0679599
0.0679722
0.0679846
0.067997
0.0680094
0.0680219
0.0680344
0.0680469
0.0680595
0.0680721
0.0680848
0.0680975
0.0681102
0.0681229
0.0681357
0.0681486
0.0681614
0.0681743
0.0681872
0.0682002
0.0682131
0.0682261
0.0682392
0.0682522
0.0682653
0.0682784
0.0682915
0.0683046
0.0683178
0.0683309
0.0683441
0.0683572
0.0683704
0.0683836
0.0683967
0.0684099
0.0684231
0.0684362
0.0684493
0.0684624
0.0684755
0.0684885
0.0685015
0.0685145
0.0685274
0.0685403
0.0685531
0.0685659
0.0685786
0.0685912
0.0686037
0.0686161
0.0686285
0.0686407
0.0686529
0.0686649
0.0686768
0.0686885
0.0687002
0.0687116
0.0687229
0.0687341
0.0687451
0.0687559
0.0687665
0.0687769
0.0687871
0.068797
0.0688068
0.0688163
0.0688255
0.0688345
0.0688432
0.0688517
0.0688599
0.0688677
0.0688753
0.0688825
0.0688895
0.0688961
0.0689023
0.0689082
0.0689138
0.068919
0.0689238
0.0689282
0.0689322
0.0689358
0.0689391
0.0689419
0.0689443
0.0689463
0.0689478
0.068949
0.0689497
0.0689499
0.0689497
0.0689491
0.068948
0.0689465
0.0689445
0.068942
0.0689392
0.0689358
0.068932
0.0689278
0.0689231
0.068918
0.0689125
0.0689065
0.0689001
0.0688933
0.0688861
0.0688784
0.0688704
0.068862
0.0688532
0.068844
0.0688345
0.0688246
0.0688144
0.0688039
0.0687931
0.0687819
0.0687705
0.0687588
0.0687469
0.0687347
0.0687223
0.0687097
0.0686969
0.068684
0.0686708
0.0686576
0.0686442
0.0686307
0.0686171
0.0686035
0.0685898
0.068576
0.0685623
0.0685485
0.0685348
0.0685211
0.0685074
0.0684938
0.0684803
0.0684669
0.0684537
0.0684405
0.0684276
0.0684147
0.0684021
0.0683897
0.0683774
0.0683654
0.0683537
0.0683422
0.0683309
0.0683199
0.0683092
0.0682988
0.0682888
0.068279
0.0682695
0.0682604
0.0682516
0.0682432
0.0682351
0.0682274
0.0682201
0.0682131
0.0682065
0.0682003
0.0681944
0.0681889
0.0681839
0.0681792
0.0681749
0.0681709
0.0681674
0.0681643
0.0681615
0.0681591
0.0681571
0.0681555
0.0681542
0.0681534
0.0681529
0.0681527
0.0681529
0.0681535
0.0681544
0.0681557
0.0681573
0.0681592
0.0681615
0.0681641
0.0681669
0.0681701
0.0681737
0.0681775
0.0681815
0.0681859
0.0681905
0.0681955
0.0682006
0.068206
0.0682117
0.0682176
0.0682237
0.0682301
0.0682367
0.0682435
0.0682505
0.0682577
0.068265
0.0682726
0.0682803
0.0682883
0.0682963
0.0683046
0.068313
0.0683215
0.0683302
0.068339
0.0683479
0.068357
0.0683662
0.0683755
0.068385
0.0683944
0.0684043
0.0684136
0.068424
0.0684331
0.0684441
0.068453
0.0684645
0.0684733
0.0684851
0.068494
0.0685059
0.0685151
0.0685266
0.068537
0.0685472
0.0685597
0.0685681
0.0685825
0.0685891
0.0686072
0.0685926
0.0685926
0.0685926
1
0.518765
0.327402
0.25535
0.217855
0.194416
0.178235
0.166344
0.157213
0.149963
0.144054
0.139129
0.134947
0.131348
0.128225
0.125498
0.123099
0.120969
0.119076
0.117417
0.116011
0.11487
0.113985
0.113316
0.112805
0.112392
0.112035
0.111712
0.111421
0.111169
0.110965
0.110812
0.110708
0.110646
0.110617
0.11061
0.110618
0.110633
0.110651
0.11067
0.110688
0.110705
0.110722
0.110738
0.110754
0.11077
0.110785
0.110801
0.110816
0.110832
0.110848
0.110863
0.110879
0.110895
0.110911
0.110927
0.110943
0.110959
0.110975
0.110991
0.111007
0.111023
0.11104
0.111056
0.111072
0.111088
0.111105
0.111121
0.111138
0.111154
0.11117
0.111187
0.111203
0.11122
0.111236
0.111253
0.11127
0.111286
0.111303
0.11132
0.111336
0.111353
0.11137
0.111387
0.111404
0.111421
0.111437
0.111454
0.111471
0.111488
0.111505
0.111523
0.11154
0.111557
0.111574
0.111591
0.111608
0.111626
0.111643
0.11166
0.111678
0.111695
0.111713
0.11173
0.111748
0.111765
0.111783
0.1118
0.111818
0.111836
0.111854
0.111871
0.111889
0.111907
0.111925
0.111943
0.111961
0.111979
0.111997
0.112015
0.112033
0.112052
0.11207
0.112088
0.112106
0.112125
0.112143
0.112162
0.11218
0.112199
0.112217
0.112236
0.112254
0.112273
0.112292
0.112311
0.112329
0.112348
0.112367
0.112386
0.112405
0.112424
0.112443
0.112462
0.112482
0.112501
0.11252
0.112539
0.112559
0.112578
0.112597
0.112617
0.112636
0.112656
0.112675
0.112695
0.112714
0.112734
0.112754
0.112773
0.112793
0.112813
0.112832
0.112852
0.112872
0.112892
0.112911
0.112931
0.112951
0.112971
0.112991
0.11301
0.11303
0.11305
0.113069
0.113089
0.113109
0.113128
0.113148
0.113168
0.113187
0.113206
0.113226
0.113245
0.113264
0.113283
0.113302
0.113321
0.11334
0.113359
0.113377
0.113396
0.113414
0.113432
0.11345
0.113468
0.113486
0.113503
0.11352
0.113537
0.113554
0.113571
0.113587
0.113603
0.113619
0.113634
0.113649
0.113664
0.113679
0.113693
0.113707
0.11372
0.113733
0.113746
0.113759
0.113771
0.113782
0.113793
0.113804
0.113814
0.113824
0.113833
0.113842
0.11385
0.113858
0.113865
0.113872
0.113878
0.113884
0.113889
0.113893
0.113897
0.1139
0.113903
0.113905
0.113907
0.113908
0.113908
0.113908
0.113907
0.113905
0.113903
0.1139
0.113897
0.113893
0.113888
0.113883
0.113877
0.113871
0.113864
0.113856
0.113848
0.113839
0.11383
0.11382
0.113809
0.113798
0.113787
0.113775
0.113762
0.113749
0.113736
0.113722
0.113707
0.113693
0.113677
0.113662
0.113646
0.11363
0.113613
0.113596
0.113579
0.113562
0.113545
0.113527
0.113509
0.113491
0.113473
0.113454
0.113436
0.113418
0.113399
0.113381
0.113362
0.113344
0.113326
0.113308
0.113289
0.113272
0.113254
0.113236
0.113219
0.113202
0.113185
0.113168
0.113152
0.113136
0.11312
0.113105
0.11309
0.113076
0.113061
0.113048
0.113035
0.113022
0.113009
0.112997
0.112986
0.112975
0.112965
0.112955
0.112946
0.112937
0.112929
0.112921
0.112914
0.112907
0.112901
0.112895
0.11289
0.112886
0.112882
0.112879
0.112876
0.112874
0.112873
0.112872
0.112871
0.112871
0.112872
0.112873
0.112875
0.112877
0.11288
0.112883
0.112887
0.112891
0.112896
0.112901
0.112907
0.112913
0.112919
0.112926
0.112934
0.112942
0.11295
0.112959
0.112968
0.112977
0.112987
0.112997
0.113008
0.113019
0.11303
0.113042
0.113054
0.113066
0.113078
0.113091
0.113104
0.113118
0.113131
0.113145
0.113159
0.113173
0.113188
0.113203
0.113217
0.113233
0.113248
0.113263
0.113279
0.113295
0.113311
0.113327
0.113343
0.11336
0.113377
0.113393
0.11341
0.113426
0.113445
0.11346
0.11348
0.113495
0.113515
0.11353
0.11355
0.113566
0.113585
0.113602
0.11362
0.11364
0.113655
0.113679
0.11369
0.11372
0.1137
0.1137
0.1137
1
0.660887
0.446894
0.35288
0.302037
0.269866
0.247531
0.231067
0.2184
0.208334
0.200123
0.193278
0.187467
0.182469
0.178135
0.174353
0.171025
0.168074
0.165458
0.163176
0.16125
0.159693
0.158485
0.157567
0.156859
0.156282
0.155782
0.155332
0.154932
0.15459
0.154316
0.154114
0.153979
0.1539
0.153865
0.153858
0.15387
0.153891
0.153916
0.153941
0.153966
0.15399
0.154012
0.154034
0.154056
0.154077
0.154098
0.154119
0.15414
0.154161
0.154183
0.154204
0.154225
0.154247
0.154268
0.15429
0.154312
0.154334
0.154355
0.154377
0.154399
0.154421
0.154443
0.154465
0.154487
0.154509
0.154531
0.154553
0.154576
0.154598
0.15462
0.154642
0.154665
0.154687
0.15471
0.154732
0.154754
0.154777
0.154799
0.154822
0.154845
0.154867
0.15489
0.154913
0.154935
0.154958
0.154981
0.155004
0.155027
0.15505
0.155073
0.155096
0.155119
0.155142
0.155165
0.155188
0.155211
0.155235
0.155258
0.155281
0.155305
0.155328
0.155352
0.155375
0.155399
0.155422
0.155446
0.155469
0.155493
0.155517
0.155541
0.155564
0.155588
0.155612
0.155636
0.15566
0.155684
0.155708
0.155732
0.155756
0.155781
0.155805
0.155829
0.155853
0.155878
0.155902
0.155926
0.155951
0.155975
0.156
0.156025
0.156049
0.156074
0.156099
0.156123
0.156148
0.156173
0.156198
0.156223
0.156248
0.156273
0.156298
0.156323
0.156348
0.156373
0.156398
0.156423
0.156448
0.156473
0.156499
0.156524
0.156549
0.156574
0.1566
0.156625
0.15665
0.156676
0.156701
0.156726
0.156752
0.156777
0.156802
0.156827
0.156853
0.156878
0.156903
0.156929
0.156954
0.156979
0.157004
0.157029
0.157054
0.157079
0.157104
0.157129
0.157153
0.157178
0.157203
0.157227
0.157251
0.157276
0.1573
0.157324
0.157348
0.157371
0.157395
0.157418
0.157442
0.157465
0.157487
0.15751
0.157532
0.157555
0.157577
0.157598
0.15762
0.157641
0.157662
0.157682
0.157702
0.157722
0.157742
0.157761
0.15778
0.157798
0.157816
0.157834
0.157851
0.157868
0.157884
0.1579
0.157915
0.15793
0.157945
0.157958
0.157972
0.157984
0.157997
0.158008
0.158019
0.15803
0.15804
0.158049
0.158057
0.158065
0.158073
0.158079
0.158085
0.158091
0.158095
0.158099
0.158102
0.158105
0.158106
0.158108
0.158108
0.158108
0.158106
0.158105
0.158102
0.158099
0.158095
0.15809
0.158085
0.158079
0.158072
0.158064
0.158056
0.158047
0.158038
0.158028
0.158017
0.158005
0.157993
0.15798
0.157967
0.157953
0.157939
0.157924
0.157909
0.157893
0.157876
0.157859
0.157842
0.157824
0.157806
0.157788
0.157769
0.15775
0.157731
0.157711
0.157691
0.157671
0.157651
0.157631
0.15761
0.15759
0.157569
0.157549
0.157528
0.157508
0.157487
0.157467
0.157447
0.157427
0.157407
0.157387
0.157368
0.157349
0.15733
0.157311
0.157293
0.157275
0.157258
0.157241
0.157224
0.157208
0.157192
0.157177
0.157162
0.157148
0.157134
0.157121
0.157109
0.157097
0.157086
0.157075
0.157065
0.157056
0.157047
0.157039
0.157031
0.157025
0.157019
0.157013
0.157009
0.157005
0.157001
0.156999
0.156997
0.156996
0.156995
0.156995
0.156996
0.156998
0.157
0.157003
0.157007
0.157011
0.157016
0.157021
0.157027
0.157034
0.157042
0.15705
0.157058
0.157067
0.157077
0.157088
0.157099
0.15711
0.157122
0.157135
0.157148
0.157161
0.157175
0.15719
0.157205
0.15722
0.157236
0.157252
0.157269
0.157286
0.157303
0.157321
0.15734
0.157358
0.157377
0.157396
0.157416
0.157436
0.157456
0.157476
0.157497
0.157518
0.157539
0.157561
0.157583
0.157605
0.157627
0.157649
0.157672
0.157694
0.157718
0.157741
0.157764
0.157787
0.157811
0.157834
0.15786
0.157882
0.157908
0.15793
0.157958
0.157979
0.158007
0.158029
0.158057
0.158079
0.158106
0.158131
0.158155
0.158184
0.158205
0.158238
0.158255
0.158294
0.158274
0.158274
0.158274
1
0.776801
0.557825
0.44688
0.38411
0.343762
0.315546
0.294663
0.278557
0.265739
0.255276
0.246549
0.239141
0.232771
0.22725
0.222433
0.218195
0.214441
0.211121
0.208234
0.205807
0.20385
0.202331
0.20117
0.200267
0.199525
0.198881
0.198305
0.197797
0.197368
0.197029
0.196782
0.196619
0.196526
0.196486
0.19648
0.196496
0.196523
0.196554
0.196585
0.196616
0.196646
0.196674
0.196701
0.196727
0.196754
0.19678
0.196806
0.196832
0.196859
0.196885
0.196912
0.196938
0.196965
0.196992
0.197019
0.197046
0.197073
0.1971
0.197127
0.197154
0.197181
0.197209
0.197236
0.197263
0.197291
0.197318
0.197346