# vtk DataFile Version 2.0
FlowField
ASCII
DATASET STRUCTURED_GRID
DIMENSIONS 400 1 200
POINTS 80000 float
0 0 0
0.08 0 0
0.16 0 0
0.24 0 0
0.32 0 0
0.4 0 0
0.48 0 0
0.56 0 0
0.64 0 0
0.72 0 0
0.8 0 0
0.88 0 0
0.96 0 0
1.04 0 0
1.12 0 0
1.2 0 0
1.28 0 0
1.36 0 0
1.44 0 0
1.52 0 0
1.6 0 0
1.68 0 0
1.76 0 0
1.84 0 0
1.92 0 0
2 0 0
2.08 0 0
2.16 0 0
2.24 0 0
2.32 0 0
2.4 0 0
2.48 0 0
2.56 0 0
2.64 0 0
2.72 0 0
2.8 0 0
2.88 0 0
2.96 0 0
3.04 0 0
3.12 0 0
3.2 0 0
3.28 0 0
3.36 0 0
3.44 0 0
3.52 0 0
3.6 0 0
3.68 0 0
3.76 0 0
3.84 0 0
3.92 0 0
4 0 0
4.08 0 0
4.16 0 0
4.24 0 0
4.32 0 0
4.4 0 0
4.48 0 0
4.56 0 0
4.64 0 0
4.72 0 0
4.8 0 0
4.88 0 0
4.96 0 0
5.04 0 0
5.12 0 0
5.2 0 0
5.28 0 0
5.36 0 0
5.44 0 0
5.52 0 0
5.6 0 0
5.68 0 0
5.76 0 0
5.84 0 0
5.92 0 0
6 0 0
6.08 0 0
6.16 0 0
6.24 0 0
6.32 0 0
6.4 0 0
6.48 0 0
6.56 0 0
6.64 0 0
6.72 0 0
6.8 0 0
6.88 0 0
6.96 0 0
7.04 0 0
7.12 0 0
7.2 0 0
7.28 0 0
7.36 0 0
7.44 0 0
7.52 0 0
7.6 0 0
7.68 0 0
7.76 0 0
7.84 0 0
7.92 0 0
8 0 0
8.08 0 0
8.16 0 0
8.24 0 0
8.32 0 0
8.4 0 0
8.48 0 0
8.56 0 0
8.64 0 0
8.72 0 0
8.8 0 0
8.88 0 0
8.96 0 0
9.04 0 0
9.12 0 0
9.2 0 0
9.28 0 0
9.36 0 0
9.44 0 0
9.52 0 0
9.6 0 0
9.68 0 0
9.76 0 0
9.84 0 0
9.92 0 0
10 0 0
10.08 0 0
10.16 0 0
10.24 0 0
10.32 0 0
10.4 0 0
10.48 0 0
10.56 0 0
10.64 0 0
10.72 0 0
10.8 0 0
10.88 0 0
10.96 0 0
11.04 0 0
11.12 0 0
11.2 0 0
11.28 0 0
11.36 0 0
11.44 0 0
11.52 0 0
11.6 0 0
11.68 0 0
11.76 0 0
11.84 0 0
11.92 0 0
12 0 0
12.08 0 0
12.16 0 0
12.24 0 0
12.32 0 0
12.4 0 0
12.48 0 0
12.56 0 0
12.64 0 0
12.72 0 0
12.8 0 0
12.88 0 0
12.96 0 0
13.04 0 0
13.12 0 0
13.2 0 0
13.28 0 0
13.36 0 0
13.44 0 0
13.52 0 0
13.6 0 0
13.68 0 0
13.76 0 0
13.84 0 0
13.92 0 0
14 0 0
14.08 0 0
14.16 0 0
14.24 0 0
14.32 0 0
14.4 0 0
14.48 0 0
14.56 0 0
14.64 0 0
14.72 0 0
14.8 0 0
14.88 0 0
14.96 0 0
15.04 0 0
15.12 0 0
15.2 0 0
15.28 0 0
15.36 0 0
15.44 0 0
15.52 0 0
15.6 0 0
15.68 0 0
15.76 0 0
15.84 0 0
15.92 0 0
16 0 0
16.08 0 0
16.16 0 0
16.24 0 0
16.32 0 0
16.4 0 0
16.48 0 0
16.56 0 0
16.64 0 0
16.72 0 0
16.8 0 0
16.88 0 0
16.96 0 0
17.04 0 0
17.12 0 0
17.2 0 0
17.28 0 0
17.36 0 0
17.44 0 0
17.52 0 0
17.6 0 0
17.68 0 0
17.76 0 0
17.84 0 0
17.92 0 0
18 0 0
18.08 0 0
18.16 0 0
18.24 0 0
18.32 0 0
18.4 0 0
18.48 0 0
18.56 0 0
18.64 0 0
18.72 0 0
18.8 0 0
18.88 0 0
18.96 0 0
19.04 0 0
19.12 0 0
19.2 0 0
19.28 0 0
19.36 0 0
19.44 0 0
19.52 0 0
19.6 0 0
19.68 0 0
19.76 0 0
19.84 0 0
19.92 0 0
20 0 0
20.08 0 0
20.16 0 0
20.24 0 0
20.32 0 0
20.4 0 0
20.48 0 0
20.56 0 0
20.64 0 0
20.72 0 0
20.8 0 0
20.88 0 0
20.96 0 0
21.04 0 0
21.12 0 0
21.2 0 0
21.28 0 0
21.36 0 0
21.44 0 0
21.52 0 0
21.6 0 0
21.68 0 0
21.76 0 0
21.84 0 0
21.92 0 0
22 0 0
22.08 0 0
22.16 0 0
22.24 0 0
22.32 0 0
22.4 0 0
22.48 0 0
22.56 0 0
22.64 0 0
22.72 0 0
22.8 0 0
22.88 0 0
22.96 0 0
23.04 0 0
23.12 0 0
23.2 0 0
23.28 0 0
23.36 0 0
23.44 0 0
23.52 0 0
23.6 0 0
23.68 0 0
23.76 0 0
23.84 0 0
23.92 0 0
24 0 0
24.08 0 0
24.16 0 0
24.24 0 0
24.32 0 0
24.4 0 0
24.48 0 0
24.56 0 0
24.64 0 0
24.72 0 0
24.8 0 0
24.88 0 0
24.96 0 0
25.04 0 0
25.12 0 0
25.2 0 0
25.28 0 0
25.36 0 0
25.44 0 0
25.52 0 0
25.6 0 0
25.68 0 0
25.76 0 0
25.84 0 0
25.92 0 0
26 0 0
26.08 0 0
26.16 0 0
26.24 0 0
26.32 0 0
26.4 0 0
26.48 0 0
26.56 0 0
26.64 0 0
26.72 0 0
26.8 0 0
26.88 0 0
26.96 0 0
27.04 0 0
27.12 0 0
27.2 0 0
27.28 0 0
27.36 0 0
27.44 0 0
27.52 0 0
27.6 0 0
27.68 0 0
27.76 0 0
27.84 0 0
27.92 0 0
28 0 0
28.08 0 0
28.16 0 0
28.24 0 0
28.32 0 0
28.4 0 0
28.48 0 0
28.56 0 0
28.64 0 0
28.72 0 0
28.8 0 0
28.88 0 0
28.96 0 0
29.04 0 0
29.12 0 0
29.2 0 0
29.28 0 0
29.36 0 0
29.44 0 0
29.52 0 0
29.6 0 0
29.68 0 0
29.76 0 0
29.84 0 0
29.92 0 0
30 0 0
30.08 0 0
30.16 0 0
30.24 0 0
30.32 0 0
30.4 0 0
30.48 0 0
30.56 0 0
30.64 0 0
30.72 0 0
30.8 0 0
30.88 0 0
30.96 0 0
31.04 0 0
31.12 0 0
31.2 0 0
31.28 0 0
31.36 0 0
31.44 0 0
31.52 0 0
31.6 0 0
31.68 0 0
31.76 0 0
31.84 0 0
31.92 0 0
0 0.005 0
0.08 0.005 0
0.16 0.005 0
0.24 0.005 0
0.32 0.005 0
0.4 0.005 0
0.48 0.005 0
0.56 0.005 0
0.64 0.005 0
0.72 0.005 0
0.8 0.005 0
0.88 0.005 0
0.96 0.005 0
1.04 0.005 0
1.12 0.005 0
1.2 0.005 0
1.28 0.005 0
1.36 0.005 0
1.44 0.005 0
1.52 0.005 0
1.6 0.005 0
1.68 0.005 0
1.76 0.005 0
1.84 0.005 0
1.92 0.005 0
2 0.005 0
2.08 0.005 0
2.16 0.005 0
2.24 0.005 0
2.32 0.005 0
2.4 0.005 0
2.48 0.005 0
2.56 0.005 0
2.64 0.005 0
2.72 0.005 0
2.8 0.005 0
2.88 0.005 0
2.96 0.005 0
3.04 0.005 0
3.12 0.005 0
3.2 0.005 0
3.28 0.005 0
3.36 0.005 0
3.44 0.005 0
3.52 0.005 0
3.6 0.005 0
3.68 0.005 0
3.76 0.005 0
3.84 0.005 0
3.92 0.005 0
4 0.005 0
4.08 0.005 0
4.16 0.005 0
4.24 0.005 0
4.32 0.005 0
4.4 0.005 0
4.48 0.005 0
4.56 0.005 0
4.64 0.005 0
4.72 0.005 0
4.8 0.005 0
4.88 0.005 0
4.96 0.005 0
5.04 0.005 0
5.12 0.005 0
5.2 0.005 0
5.28 0.005 0
5.36 0.005 0
5.44 0.005 0
5.52 0.005 0
5.6 0.005 0
5.68 0.005 0
5.76 0.005 0
5.84 0.005 0
5.92 0.005 0
6 0.005 0
6.08 0.005 0
6.16 0.005 0
6.24 0.005 0
6.32 0.005 0
6.4 0.005 0
6.48 0.005 0
6.56 0.005 0
6.64 0.005 0
6.72 0.005 0
6.8 0.005 0
6.88 0.005 0
6.96 0.005 0
7.04 0.005 0
7.12 0.005 0
7.2 0.005 0
7.28 0.005 0
7.36 0.005 0
7.44 0.005 0
7.52 0.005 0
7.6 0.005 0
7.68 0.005 0
7.76 0.005 0
7.84 0.005 0
7.92 0.005 0
8 0.005 0
8.08 0.005 0
8.16 0.005 0
8.24 0.005 0
8.32 0.005 0
8.4 0.005 0
8.48 0.005 0
8.56 0.005 0
8.64 0.005 0
8.72 0.005 0
8.8 0.005 0
8.88 0.005 0
8.96 0.005 0
9.04 0.005 0
9.12 0.005 0
9.2 0.005 0
9.28 0.005 0
9.36 0.005 0
9.44 0.005 0
9.52 0.005 0
9.6 0.005 0
9.68 0.005 0
9.76 0.005 0
9.84 0.005 0
9.92 0.005 0
10 0.005 0
10.08 0.005 0
10.16 0.005 0
10.24 0.005 0
10.32 0.005 0
10.4 0.005 0
10.48 0.005 0
10.56 0.005 0
10.64 0.005 0
10.72 0.005 0
10.8 0.005 0
10.88 0.005 0
10.96 0.005 0
11.04 0.005 0
11.12 0.005 0
11.2 0.005 0
11.28 0.005 0
11.36 0.005 0
11.44 0.005 0
11.52 0.005 0
11.6 0.005 0
11.68 0.005 0
11.76 0.005 0
11.84 0.005 0
11.92 0.005 0
12 0.005 0
12.08 0.005 0
12.16 0.005 0
12.24 0.005 0
12.32 0.005 0
12.4 0.005 0
12.48 0.005 0
12.56 0.005 0
12.64 0.005 0
12.72 0.005 0
12.8 0.005 0
12.88 0.005 0
12.96 0.005 0
13.04 0.005 0
13.12 0.005 0
13.2 0.005 0
13.28 0.005 0
13.36 0.005 0
13.44 0.005 0
13.52 0.005 0
13.6 0.005 0
13.68 0.005 0
13.76 0.005 0
13.84 0.005 0
13.92 0.005 0
14 0.005 0
14.08 0.005 0
14.16 0.005 0
14.24 0.005 0
14.32 0.005 0
14.4 0.005 0
14.48 0.005 0
14.56 0.005 0
14.64 0.005 0
14.72 0.005 0
14.8 0.005 0
14.88 0.005 0
14.96 0.005 0
15.04 0.005 0
15.12 0.005 0
15.2 0.005 0
15.28 0.005 0
15.36 0.005 0
15.44 0.005 0
15.52 0.005 0
15.6 0.005 0
15.68 0.005 0
15.76 0.005 0
15.84 0.005 0
15.92 0.005 0
16 0.005 0
16.08 0.005 0
16.16 0.005 0
16.24 0.005 0
16.32 0.005 0
16.4 0.005 0
16.48 0.005 0
16.56 0.005 0
16.64 0.005 0
16.72 0.005 0
16.8 0.005 0
16.88 0.005 0
16.96 0.005 0
17.04 0.005 0
17.12 0.005 0
17.2 0.005 0
17.28 0.005 0
17.36 0.005 0
17.44 0.005 0
17.52 0.005 0
17.6 0.005 0
17.68 0.005 0
17.76 0.005 0
17.84 0.005 0
17.92 0.005 0
18 0.005 0
18.08 0.005 0
18.16 0.005 0
18.24 0.005 0
18.32 0.005 0
18.4 0.005 0
18.48 0.005 0
18.56 0.005 0
18.64 0.005 0
18.72 0.005 0
18.8 0.005 0
18.88 0.005 0
18.96 0.005 0
19.04 0.005 0
19.12 0.005 0
19.2 0.005 0
19.28 0.005 0
19.36 0.005 0
19.44 0.005 0
19.52 0.005 0
19.6 0.005 0
19.68 0.005 0
19.76 0.005 0
19.84 0.005 0
19.92 0.005 0
20 0.005 0
20.08 0.005 0
20.16 0.005 0
20.24 0.005 0
20.32 0.005 0
20.4 0.005 0
20.48 0.005 0
20.56 0.005 0
20.64 0.005 0
20.72 0.005 0
20.8 0.005 0
20.88 0.005 0
20.96 0.005 0
21.04 0.005 0
21.12 0.005 0
21.2 0.005 0
21.28 0.005 0
21.36 0.005 0
21.44 0.005 0
21.52 0.005 0
21.6 0.005 0
21.68 0.005 0
21.76 0.005 0
21.84 0.005 0
21.92 0.005 0
22 0.005 0
22.08 0.005 0
22.16 0.005 0
22.24 0.005 0
22.32 0.005 0
22.4 0.005 0
22.48 0.005 0
22.56 0.005 0
22.64 0.005 0
22.72 0.005 0
22.8 0.005 0
22.88 0.005 0
22.96 0.005 0
23.04 0.005 0
23.12 0.005 0
23.2 0.005 0
23.28 0.005 0
23.36 0.005 0
23.44 0.005 0
23.52 0.005 0
23.6 0.005 0
23.68 0.005 0
23.76 0.005 0
23.84 0.005 0
23.92 0.005 0
24 0.005 0
24.08 0.005 0
24.16 0.005 0
24.24 0.005 0
24.32 0.005 0
24.4 0.005 0
24.48 0.005 0
24.56 0.005 0
24.64 0.005 0
24.72 0.005 0
24.8 0.005 0
24.88 0.005 0
24.96 0.005 0
25.04 0.005 0
25.12 0.005 0
25.2 0.005 0
25.28 0.005 0
25.36 0.005 0
25.44 0.005 0
25.52 0.005 0
25.6 0.005 0
25.68 0.005 0
25.76 0.005 0
25.84 0.005 0
25.92 0.005 0
26 0.005 0
26.08 0.005 0
26.16 0.005 0
26.24 0.005 0
26.32 0.005 0
26.4 0.005 0
26.48 0.005 0
26.56 0.005 0
26.64 0.005 0
26.72 0.005 0
26.8 0.005 0
26.88 0.005 0
26.96 0.005 0
27.04 0.005 0
27.12 0.005 0
27.2 0.005 0
27.28 0.005 0
27.36 0.005 0
27.44 0.005 0
27.52 0.005 0
27.6 0.005 0
27.68 0.005 0
27.76 0.005 0
27.84 0.005 0
27.92 0.005 0
28 0.005 0
28.08 0.005 0
28.16 0.005 0
28.24 0.005 0
28.32 0.005 0
28.4 0.005 0
28.48 0.005 0
28.56 0.005 0
28.64 0.005 0
28.72 0.005 0
28.8 0.005 0
28.88 0.005 0
28.96 0.005 0
29.04 0.005 0
29.12 0.005 0
29.2 0.005 0
29.28 0.005 0
29.36 0.005 0
29.44 0.005 0
29.52 0.005 0
29.6 0.005 0
29.68 0.005 0
29.76 0.005 0
29.84 0.005 0
29.92 0.005 0
30 0.005 0
30.08 0.005 0
30.16 0.005 0
30.24 0.005 0
30.32 0.005 0
30.4 0.005 0
30.48 0.005 0
30.56 0.005 0
30.64 0.005 0
30.72 0.005 0
30.8 0.005 0
30.88 0.005 0
30.96 0.005 0
31.04 0.005 0
31.12 0.005 0
31.2 0.005 0
31.28 0.005 0
31.36 0.005 0
31.44 0.005 0
31.52 0.005 0
31.6 0.005 0
31.68 0.005 0
31.76 0.005 0
31.84 0.005 0
31.92 0.005 0
0 0.01 0
0.08 0.01 0
0.16 0.01 0
0.24 0.01 0
0.32 0.01 0
0.4 0.01 0
0.48 0.01 0
0.56 0.01 0
0.64 0.01 0
0.72 0.01 0
0.8 0.01 0
0.88 0.01 0
0.96 0.01 0
1.04 0.01 0
1.12 0.01 0
1.2 0.01 0
1.28 0.01 0
1.36 0.01 0
1.44 0.01 0
1.52 0.01 0
1.6 0.01 0
1.68 0.01 0
1.76 0.01 0
1.84 0.01 0
1.92 0.01 0
2 0.01 0
2.08 0.01 0
2.16 0.01 0
2.24 0.01 0
2.32 0.01 0
2.4 0.01 0
2.48 0.01 0
2.56 0.01 0
2.64 0.01 0
2.72 0.01 0
2.8 0.01 0
2.88 0.01 0
2.96 0.01 0
3.04 0.01 0
3.12 0.01 0
3.2 0.01 0
3.28 0.01 0
3.36 0.01 0
3.44 0.01 0
3.52 0.01 0
3.6 0.01 0
3.68 0.01 0
3.76 0.01 0
3.84 0.01 0
3.92 0.01 0
4 0.01 0
4.08 0.01 0
4.16 0.01 0
4.24 0.01 0
4.32 0.01 0
4.4 0.01 0
4.48 0.01 0
4.56 0.01 0
4.64 0.01 0
4.72 0.01 0
4.8 0.01 0
4.88 0.01 0
4.96 0.01 0
5.04 0.01 0
5.12 0.01 0
[...]
POINT_DATA 80000

SCALARS u float 1
LOOKUP_TABLE default
0
-0.131663
-0.0682698
-0.0522969
-0.044421
-0.0395783
-0.0362617
-0.0338353
-0.0319763
-0.0305012
-0.0292971
-0.0282911
-0.0274346
-0.026694
-0.0260459
-0.0254727
-0.024961
-0.024501
-0.0240859
-0.023711
-0.0233724
-0.0230667
-0.0227911
-0.0225444
-0.0223271
-0.0221411
-0.0219877
-0.0218658
-0.021771
-0.0216965
-0.0216347
-0.0215795
-0.0215273
-0.0214771
-0.0214301
-0.0213881
-0.0213528
-0.0213252
-0.0213053
-0.0212921
-0.0212845
-0.0212809
-0.0212801
-0.021281
-0.0212828
-0.0212851
-0.0212875
-0.0212898
-0.0212922
-0.0212945
-0.0212967
-0.0212989
-0.0213011
-0.0213033
-0.0213056
-0.0213078
-0.02131
-0.0213123
-0.0213146
-0.0213168
-0.0213191
-0.0213214
-0.0213237
-0.021326
-0.0213283
-0.0213306
-0.0213329
-0.0213353
-0.0213376
-0.0213399
-0.0213422
-0.0213446
-0.0213469
-0.0213493
-0.0213516
-0.021354
-0.0213563
-0.0213587
-0.021361
-0.0213634
-0.0213658
-0.0213681
-0.0213705
-0.0213729
-0.0213753
-0.0213777
-0.0213801
-0.0213825
-0.0213849
-0.0213873
-0.0213898
-0.0213922
-0.0213946
-0.0213971
-0.0213995
-0.0214019
-0.0214044
-0.0214069
-0.0214093
-0.0214118
-0.0214143
-0.0214168
-0.0214193
-0.0214218
-0.0214243
-0.0214268
-0.0214294
-0.0214319
-0.0214345
-0.021437
-0.0214396
-0.0214422
-0.0214448
-0.0214474
-0.02145
-0.0214526
-0.0214552
-0.0214579
-0.0214605
-0.0214632
-0.0214658
-0.0214685
-0.0214712
-0.0214739
-0.0214766
-0.0214794
-0.0214821
-0.0214849
-0.0214877
-0.0214904
-0.0214932
-0.0214961
-0.0214989
-0.0215017
-0.0215046
-0.0215074
-0.0215103
-0.0215132
-0.0215161
-0.0215191
-0.021522
-0.0215249
-0.0215279
-0.0215309
-0.0215339
-0.0215369
-0.0215399
-0.021543
-0.021546
-0.0215491
-0.0215522
-0.0215553
-0.0215584
-0.0215616
-0.0215647
-0.0215679
-0.021571
-0.0215742
-0.0215774
-0.0215807
-0.0215839
-0.0215871
-0.0215904
-0.0215936
-0.0215969
-0.0216002
-0.0216035
-0.0216068
-0.0216101
-0.0216135
-0.0216168
-0.0216202
-0.0216235
-0.0216269
-0.0216303
-0.0216337
-0.0216371
-0.0216405
-0.0216439
-0.0216473
-0.0216507
-0.0216541
-0.0216575
-0.021661
-0.0216644
-0.0216678
-0.0216713
-0.0216747
-0.0216781
-0.0216816
-0.021685
-0.0216884
-0.0216919
-0.0216953
-0.0216987
-0.0217022
-0.0217056
-0.021709
-0.0217124
-0.0217159
-0.0217193
-0.0217227
-0.0217261
-0.0217294
-0.0217328
-0.0217362
-0.0217396
-0.0217429
-0.0217463
-0.0217496
-0.021753
-0.0217563
-0.0217596
-0.0217629
-0.0217662
-0.0217695
-0.0217728
-0.021776
-0.0217793
-0.0217825
-0.0217857
-0.021789
-0.0217922
-0.0217954
-0.0217985
-0.0218017
-0.0218049
-0.021808
-0.0218112
-0.0218143
-0.0218174
-0.0218205
-0.0218236
-0.0218267
-0.0218298
-0.0218328
-0.0218359
-0.0218389
-0.021842
-0.021845
-0.021848
-0.021851
-0.021854
-0.021857
-0.0218599
-0.0218629
-0.0218659
-0.0218688
-0.0218718
-0.0218747
-0.0218776
-0.0218806
-0.0218835
-0.0218864
-0.0218893
-0.0218922
-0.0218951
-0.021898
-0.0219009
-0.0219037
-0.0219066
-0.0219095
-0.0219124
-0.0219152
-0.0219181
-0.0219209
-0.0219238
-0.0219267
-0.0219295
-0.0219324
-0.0219352
-0.0219381
-0.0219409
-0.0219438
-0.0219466
-0.0219495
-0.0219523
-0.0219552
-0.021958
-0.0219609
-0.0219637
-0.0219666
-0.0219695
-0.0219723
-0.0219752
-0.021978
-0.0219809
-0.0219838
-0.0219867
-0.0219895
-0.0219924
-0.0219953
-0.0219982
-0.0220011
-0.022004
-0.0220069
-0.0220098
-0.0220127
-0.0220156
-0.0220185
-0.0220214
-0.0220243
-0.0220273
-0.0220302
-0.0220331
-0.0220361
-0.022039
-0.022042
-0.0220449
-0.0220479
-0.0220509
-0.0220538
-0.0220568
-0.0220598
-0.0220628
-0.0220658
-0.0220688
-0.0220718
-0.0220748
-0.0220778
-0.0220808
-0.0220839
-0.0220869
-0.0220899
-0.022093
-0.022096
-0.0220991
-0.0221021
-0.0221052
-0.0221083
-0.0221114
-0.0221145
-0.0221175
-0.0221206
-0.0221237
-0.0221269
-0.02213
-0.0221331
-0.0221362
-0.0221393
-0.0221425
-0.0221456
-0.0221488
-0.0221519
-0.0221551
-0.0221583
-0.0221614
-0.0221646
-0.0221678
-0.022171
-0.0221742
-0.0221774
-0.0221806
-0.0221838
-0.0221871
-0.0221903
-0.0221935
-0.0221968
-0.0222
-0.0222033
-0.0222066
-0.0222098
-0.0222131
-0.0222164
-0.0222197
-0.022223
-0.0222263
-0.0222296
-0.0222329
-0.0222362
-0.0222396
-0.0222429
-0.0222462
-0.0222496
-0.0222529
-0.0222564
-0.0222597
-0.0222632
-0.0222664
-0.02227
-0.0222732
-0.0222768
-0.02228
-0.0222836
-0.0222869
-0.0222905
-0.0222938
-0.0222973
-0.0223008
-0.0223043
-0.0223078
-0.0223113
-0.0223149
-0.0223183
-0.0223224
-0.0223251
-0.02233
-0.0223279
-0.0223279
-0.0223279
1
0.131663
0.0682698
0.0522969
0.044421
0.0395783
0.0362617
0.0338353
0.0319763
0.0305012
0.0292971
0.0282911
0.0274346
0.026694
0.0260459
0.0254727
0.024961
0.024501
0.0240859
0.023711
0.0233724
0.0230667
0.0227911
0.0225444
0.0223271
0.0221411
0.0219877
0.0218658
0.021771
0.0216965
0.0216347
0.0215795
0.0215273
0.0214771
0.0214301
0.0213881
0.0213528
0.0213252
0.0213053
0.0212921
0.0212845
0.0212809
0.0212801
0.021281
0.0212828
0.0212851
0.0212875
0.0212898
0.0212922
0.0212945
0.0212967
0.0212989
0.0213011
0.0213033
0.0213056
0.0213078
0.02131
0.0213123
0.0213146
0.0213168
0.0213191
0.0213214
0.0213237
0.021326
0.0213283
0.0213306
0.0213329
0.0213353
0.0213376
0.0213399
0.0213422
0.0213446
0.0213469
0.0213493
0.0213516
0.021354
0.0213563
0.0213587
0.021361
0.0213634
0.0213658
0.0213681
0.0213705
0.0213729
0.0213753
0.0213777
0.0213801
0.0213825
0.0213849
0.0213873
0.0213898
0.0213922
0.0213946
0.0213971
0.0213995
0.0214019
0.0214044
0.0214069
0.0214093
0.0214118
0.0214143
0.0214168
0.0214193
0.0214218
0.0214243
0.0214268
0.0214294
0.0214319
0.0214345
0.021437
0.0214396
0.0214422
0.0214448
0.0214474
0.02145
0.0214526
0.0214552
0.0214579
0.0214605
0.0214632
0.0214658
0.0214685
0.0214712
0.0214739
0.0214766
0.0214794
0.0214821
0.0214849
0.0214877
0.0214904
0.0214932
0.0214961
0.0214989
0.0215017
0.0215046
0.0215074
0.0215103
0.0215132
0.0215161
0.0215191
0.021522
0.0215249
0.0215279
0.0215309
0.0215339
0.0215369
0.0215399
0.021543
0.021546
0.0215491
0.0215522
0.0215553
0.0215584
0.0215616
0.0215647
0.0215679
0.021571
0.0215742
0.0215774
0.0215807
0.0215839
0.0215871
0.0215904
0.0215936
0.0215969
0.0216002
0.0216035
0.0216068
0.0216101
0.0216135
0.0216168
0.0216202
0.0216235
0.0216269
0.0216303
0.0216337
0.0216371
0.0216405
0.0216439
0.0216473
0.0216507
0.0216541
0.0216575
0.021661
0.0216644
0.0216678
0.0216713
0.0216747
0.0216781
0.0216816
0.021685
0.0216884
0.0216919
0.0216953
0.0216987
0.0217022
0.0217056
0.021709
0.0217124
0.0217159
0.0217193
0.0217227
0.0217261
0.0217294
0.0217328
0.0217362
0.0217396
0.0217429
0.0217463
0.0217496
0.021753
0.0217563
0.0217596
0.0217629
0.0217662
0.0217695
0.0217728
0.021776
0.0217793
0.0217825
0.0217857
0.021789
0.0217922
0.0217954
0.0217985
0.0218017
0.0218049
0.021808
0.0218112
0.0218143
0.0218174
0.0218205
0.0218236
0.0218267
0.0218298
0.0218328
0.0218359
0.0218389
0.021842
0.021845
0.021848
0.021851
0.021854
0.021857
0.0218599
0.0218629
0.0218659
0.0218688
0.0218718
0.0218747
0.0218776
0.0218806
0.0218835
0.0218864
0.0218893
0.0218922
0.0218951
0.021898
0.0219009
0.0219037
0.0219066
0.0219095
0.0219124
0.0219152
0.0219181
0.0219209
0.0219238
0.0219267
0.0219295
0.0219324
0.0219352
0.0219381
0.0219409
0.0219438
0.0219466
0.0219495
0.0219523
0.0219552
0.021958
0.0219609
0.0219637
0.0219666
0.0219695
0.0219723
0.0219752
0.021978
0.0219809
0.0219838
0.0219867
0.0219895
0.0219924
0.0219953
0.0219982
0.0220011
0.022004
0.0220069
0.0220098
0.0220127
0.0220156
0.0220185
0.0220214
0.0220243
0.0220273
0.0220302
0.0220331
0.0220361
0.022039
0.022042
0.0220449
0.0220479
0.0220509
0.0220538
0.0220568
0.0220598
0.0220628
0.0220658
0.0220688
0.0220718
0.0220748
0.0220778
0.0220808
0.0220839
0.0220869
0.0220899
0.022093
0.022096
0.0220991
0.0221021
0.0221052
0.0221083
0.0221114
0.0221145
0.0221175
0.0221206
0.0221237
0.0221269
0.02213
0.0221331
0.0221362
0.0221393
0.0221425
0.0221456
0.0221488
0.0221519
0.0221551
0.0221583
0.0221614
0.0221646
0.0221678
0.022171
0.0221742
0.0221774
0.0221806
0.0221838
0.0221871
0.0221903
0.0221935
0.0221968
0.0222
0.0222033
0.0222066
0.0222098
0.0222131
0.0222164
0.0222197
0.022223
0.0222263
0.0222296
0.0222329
0.0222362
0.0222396
0.0222429
0.0222462
0.0222496
0.0222529
0.0222564
0.0222597
0.0222632
0.0222664
0.02227
0.0222732
0.0222768
0.02228
0.0222836
0.0222869
0.0222905
0.0222938
0.0222973
0.0223008
0.0223043
0.0223078
0.0223113
0.0223149
0.0223183
0.0223224
0.0223251
0.02233
0.0223279
0.0223279
0.0223279
1
0.344885
0.200669
0.15497
0.131898
0.117603
0.107774
0.100566
0.0950359
0.0906446
0.0870594
0.0840646
0.0815157
0.0793135
0.0773873
0.0756846
0.0741658
0.0728022
0.0715736
0.0704655
0.0694662
0.0685652
0.0677552
0.0670333
0.0664019
0.0658654
0.0654252
0.0650756
0.064802
0.064584
0.0644007
0.0642358
0.0640806
0.0639337
0.0637984
0.0636798
0.0635821
0.0635071
0.0634539
0.0634197
0.0634006
0.0633924
0.0633915
0.0633949
0.0634007
0.0634075
0.0634146
0.0634216
0.0634285
0.0634353
0.0634419
0.0634485
0.0634551
0.0634617
0.0634683
0.0634749
0.0634816
0.0634883
0.063495
0.0635018
0.0635086
0.0635154
0.0635222
0.063529
0.0635359
0.0635428
0.0635496
0.0635565
0.0635634
0.0635703
0.0635772
0.0635842
0.0635911
0.063598
0.063605
0.063612
0.0636189
0.0636259
0.0636329
0.0636399
0.063647
0.063654
0.0636611
0.0636681
0.0636752
0.0636823
0.0636894
0.0636965
0.0637036
0.0637107
0.0637179
0.063725
0.0637322
0.0637394
0.0637466
0.0637538
0.0637611
0.0637683
0.0637756
0.0637829
0.0637902
0.0637975
0.0638049
0.0638122
0.0638196
0.063827
0.0638344
0.0638419
0.0638494
0.0638568
0.0638643
0.0638719
0.0638794
0.063887
0.0638946
0.0639023
0.0639099
0.0639176
0.0639253
0.063933
0.0639408
0.0639486
0.0639564
0.0639643
0.0639721
0.06398
0.063988
0.063996
0.064004
0.064012
0.0640201
0.0640282
0.0640363
0.0640445
0.0640527
0.0640609
0.0640692
0.0640775
0.0640859
0.0640943
0.0641027
0.0641112
0.0641197
0.0641282
0.0641368
0.0641454
0.0641541
0.0641628
0.0641715
0.0641803
0.0641891
0.0641979
0.0642068
0.0642158
0.0642247
0.0642337
0.0642428
0.0642519
0.064261
0.0642701
0.0642793
0.0642885
0.0642978
0.0643071
0.0643164
0.0643258
0.0643352
0.0643446
0.0643541
0.0643636
0.0643731
0.0643827
0.0643923
0.0644019
0.0644115
0.0644212
0.0644309
0.0644406
0.0644504
0.0644601
0.0644699
0.0644797
0.0644895
0.0644994
0.0645092
0.0645191
0.064529
0.0645388
0.0645488
0.0645587
0.0645686
0.0645785
0.0645884
0.0645984
0.0646083
0.0646183
0.0646282
0.0646381
0.0646481
0.064658
0.0646679
0.0646779
0.0646878
0.0646977
0.0647076
0.0647175
0.0647274
0.0647372
0.0647471
0.0647569
0.0647668
0.0647766
0.0647864
0.0647961
0.0648059
0.0648156
0.0648253
0.064835
0.0648447
0.0648543
0.064864
0.0648736
0.0648831
0.0648927
0.0649022
0.0649117
0.0649212
0.0649307
0.0649401
0.0649495
0.0649589
0.0649683
0.0649776
0.0649869
0.0649962
0.0650054
0.0650147
0.0650239
0.065033
0.0650422
0.0650513
0.0650604
0.0650695
0.0650786
0.0650876
0.0650966
0.0651056
0.0651146
0.0651236
0.0651325
0.0651414
0.0651503
0.0651592
0.0651681
0.0651769
0.0651857
0.0651946
0.0652034
0.0652121
0.0652209
0.0652297
0.0652384
0.0652472
0.0652559
0.0652646
0.0652733
0.065282
0.0652907
0.0652994
0.065308
0.0653167
0.0653254
0.065334
0.0653427
0.0653514
0.06536
0.0653686
0.0653773
0.0653859
0.0653946
0.0654032
0.0654119
0.0654205
0.0654292
0.0654378
0.0654465
0.0654552
0.0654638
0.0654725
0.0654812
0.0654898
0.0654985
0.0655072
0.0655159
0.0655246
0.0655333
0.0655421
0.0655508
0.0655595
0.0655683
0.0655771
0.0655858
0.0655946
0.0656034
0.0656122
0.065621
0.0656298
0.0656386
0.0656475
0.0656563
0.0656652
0.0656741
0.065683
0.0656919
0.0657008
0.0657097
0.0657187
0.0657276
0.0657366
0.0657456
0.0657546
0.0657636
0.0657726
0.0657816
0.0657907
0.0657998
0.0658088
0.0658179
0.0658271
0.0658362
0.0658453
0.0658545
0.0658636
0.0658728
0.065882
0.0658912
0.0659005
0.0659097
0.065919
0.0659283
0.0659376
0.0659469
0.0659562
0.0659655
0.0659749
0.0659843
0.0659937
0.0660031
0.0660125
0.0660219
0.0660314
0.0660408
0.0660503
0.0660598
0.0660694
0.0660789
0.0660884
0.066098
0.0661076
0.0661172
0.0661268
0.0661365
0.0661461
0.0661558
0.0661655
0.0661752
0.0661849
0.0661947
0.0662045
0.0662143
0.066224
0.0662339
0.0662436
0.0662536
0.0662633
0.0662735
0.0662831
0.0662934
0.0663029
0.0663133
0.0663228
0.0663333
0.0663429
0.0663534
0.066363
0.0663735
0.0663833
0.0663937
0.0664038
0.066414
0.0664243
0.0664345
0.0664451
0.066455
0.0664668
0.066475
0.066489
0.0664851
0.0664851
0.0664851
1
0.518767
0.327404
0.255351
0.217854
0.194411
0.178221
0.16632
0.157176
0.149909
0.143974
0.139017
0.134798
0.131155
0.12797
0.125155
0.122646
0.120396
0.11837
0.116545
0.114901
0.11342
0.112091
0.110911
0.109884
0.109015
0.108305
0.107741
0.107297
0.106939
0.106635
0.106361
0.106105
0.105864
0.105646
0.105457
0.105304
0.105188
0.105107
0.105056
0.105028
0.105017
0.105017
0.105024
0.105033
0.105045
0.105056
0.105068
0.105079
0.105091
0.105101
0.105112
0.105123
0.105134
0.105145
0.105156
0.105167
0.105178
0.105189
0.1052
0.105212
0.105223
0.105234
0.105245
0.105257
0.105268
0.105279
0.105291
0.105302
0.105313
0.105325
0.105336
0.105348
0.105359
0.105371
0.105382
0.105394
0.105405
0.105417
0.105428
0.10544
0.105451
0.105463
0.105475
0.105486
0.105498
0.10551
0.105521
0.105533
0.105545
0.105557
0.105568
0.10558
0.105592
0.105604
0.105616
0.105628
0.105639
0.105651
0.105663
0.105675
0.105687
0.105699
0.105711
0.105724
0.105736
0.105748
0.10576
0.105772
0.105785
0.105797
0.105809
0.105821
0.105834
0.105846
0.105859
0.105871
0.105884
0.105896
0.105909
0.105922
0.105934
0.105947
0.10596
0.105973
0.105985
0.105998
0.106011
0.106024
0.106037
0.10605
0.106063
0.106077
0.10609
0.106103
0.106117
0.10613
0.106143
0.106157
0.10617
0.106184
0.106198
0.106211
0.106225
0.106239
0.106253
0.106267
0.106281
0.106295
0.106309
0.106323
0.106337
0.106352
0.106366
0.10638
0.106395
0.106409
0.106424
0.106438
0.106453
0.106468
0.106483
0.106498
0.106512
0.106527
0.106542
0.106558
0.106573
0.106588
0.106603
0.106618
0.106634
0.106649
0.106664
0.10668
0.106695
0.106711
0.106727
0.106742
0.106758
0.106774
0.106789
0.106805
0.106821
0.106837
0.106853
0.106868
0.106884
0.1069
0.106916
0.106932
0.106948
0.106964
0.10698
0.106996
0.107012
0.107029
0.107045
0.107061
0.107077
0.107093
0.107109
0.107125
0.107141
0.107157
0.107173
0.107189
0.107206
0.107222
0.107238
0.107254
0.10727
0.107286
0.107302
0.107318
0.107334
0.107349
0.107365
0.107381
0.107397
0.107413
0.107429
0.107444
0.10746
0.107476
0.107492
0.107507
0.107523
0.107538
0.107554
0.107569
0.107585
0.1076
0.107616
0.107631
0.107647
0.107662
0.107677
0.107692
0.107708
0.107723
0.107738
0.107753
0.107768
0.107783
0.107798
0.107813
0.107828
0.107843
0.107858
0.107873
0.107888
0.107903
0.107918
0.107932
0.107947
0.107962
0.107977
0.107991
0.108006
0.108021
0.108035
0.10805
0.108064
0.108079
0.108093
0.108108
0.108123
0.108137
0.108152
0.108166
0.108181
0.108195
0.10821
0.108224
0.108238
0.108253
0.108267
0.108282
0.108296
0.108311
0.108325
0.108339
0.108354
0.108368
0.108383
0.108397
0.108412
0.108426
0.108441
0.108455
0.108469
0.108484
0.108498
0.108513
0.108527
0.108542
0.108556
0.108571
0.108585
0.1086
0.108615
0.108629
0.108644
0.108658
0.108673
0.108688
0.108702
0.108717
0.108731
0.108746
0.108761
0.108776
0.10879
0.108805
0.10882
0.108835
0.108849
0.108864
0.108879
0.108894
0.108909
0.108924
0.108939
0.108954
0.108969
0.108983
0.108998
0.109014
0.109029
0.109044
0.109059
0.109074
0.109089
0.109104
0.109119
0.109134
0.10915
0.109165
0.10918
0.109195
0.109211
0.109226
0.109241
0.109257
0.109272
0.109288
0.109303
0.109318
0.109334
0.109349
0.109365
0.109381
0.109396
0.109412
0.109427
0.109443
0.109459
0.109474
0.10949
0.109506
0.109522
0.109538
0.109553
0.109569
0.109585
0.109601
0.109617
0.109633
0.109649
0.109665
0.109681
0.109697
0.109713
0.109729
0.109746
0.109761
0.109778
0.109794
0.109811
0.109826
0.109843
0.109859
0.109876
0.109892
0.109909
0.109925
0.109942
0.109958
0.109975
0.109992
0.110008
0.110025
0.110042
0.110061
0.110074
0.110097
0.110093
0.110093
0.110093
1
0.660889
0.446897
0.352883
0.302036
0.269859
0.247514
0.231036
0.218352
0.208261
0.200015
0.193125
0.187264
0.182204
0.17778
0.173873
0.170391
0.167271
0.164465
0.16194
0.159666
0.15762
0.155787
0.154165
0.152758
0.151573
0.150607
0.149838
0.149229
0.148734
0.148311
0.147928
0.147571
0.14724
0.146943
0.14669
0.146486
0.146334
0.146229
0.146165
0.146131
0.146118
0.14612
0.14613
0.146144
0.14616
0.146176
0.146192
0.146208
0.146223
0.146238
0.146254
0.146269
0.146284
0.146299
0.146314
0.146329
0.146345
0.14636
0.146375
0.146391
0.146407
0.146422
0.146438
0.146453
0.146469
0.146485
0.1465
0.146516
0.146532
0.146548
0.146564
0.146579
0.146595
0.146611
0.146627
0.146643
0.146659
0.146675
0.146691
0.146707
0.146723
0.146739
0.146755
0.146771
0.146787
0.146803
0.146819
0.146836
0.146852
0.146868
0.146884
0.146901
0.146917
0.146933
0.14695
0.146966
0.146983
0.146999
0.147016
0.147032
0.147049
0.147065
0.147082
0.147099
0.147115
0.147132
0.147149
0.147166
0.147182
0.147199
0.147216
0.147233
0.14725
0.147267
0.147284
0.147302
0.147319
0.147336
0.147353
0.147371
0.147388
0.147406
0.147423
0.147441
0.147458
0.147476
0.147493
0.147511
0.147529
0.147547
0.147565
0.147583
0.147601
0.147619
0.147637
0.147655
0.147674
0.147692
0.147711
0.147729
0.147748
0.147766
0.147785
0.147804
0.147823
0.147842
0.147861
0.14788
0.147899
0.147918
0.147937
0.147957
0.147976
0.147996
0.148015
0.148035
0.148055
0.148074
0.148094
0.148114
0.148134
0.148154
0.148174
0.148195
0.148215
0.148235
0.148256
0.148276
0.148297
0.148317
0.148338
0.148359
0.14838
0.148401
0.148422
0.148443
0.148464
0.148485
0.148506
0.148527
0.148548
0.14857
0.148591
0.148613
0.148634
0.148656
0.148677
0.148699
0.14872
0.148742
0.148764
0.148785
0.148807
0.148829
0.148851
0.148872
0.148894
0.148916
0.148938
0.14896
0.148982
0.149004
0.149026
0.149047
0.149069
0.149091
0.149113
0.149135
0.149157
0.149179
0.149201
0.149223
0.149244
0.149266
0.149288
0.14931
0.149332
0.149354
0.149375
0.149397
0.149419
0.14944
0.149462
0.149484
0.149505
0.149527
0.149548
0.14957
0.149591
0.149613
0.149634
0.149655
0.149677
0.149698
0.149719
0.14974
0.149762
0.149783
0.149804
0.149825
0.149846
0.149867
0.149888
0.149909
0.14993
0.149951
0.149971
0.149992
0.150013
0.150034
0.150054
0.150075
0.150096
0.150116
0.150137
0.150157
0.150178
0.150198
0.150219
0.150239
0.15026
0.15028
0.1503
0.150321
0.150341
0.150361
0.150382
0.150402
0.150422
0.150442
0.150463
0.150483
0.150503
0.150523
0.150543
0.150563
0.150584
0.150604
0.150624
0.150644
0.150664
0.150684
0.150704
0.150724
0.150745
0.150765
0.150785
0.150805
0.150825
0.150845
0.150865
0.150885
0.150906
0.150926
0.150946
0.150966
0.150986
0.151006
0.151027
0.151047
0.151067
0.151087
0.151108
0.151128
0.151148
0.151168
0.151189
0.151209
0.151229
0.15125
0.15127
0.151291
0.151311
0.151331
0.151352
0.151372
0.151393
0.151413
0.151434
0.151454
0.151475
0.151496
0.151516
0.151537
0.151558
0.151578
0.151599
0.15162
0.151641
0.151661
0.151682
0.151703
0.151724
0.151745
0.151766
0.151787
0.151808
0.151829
0.15185
0.151871
0.151892
0.151913
0.151934
0.151955
0.151976
0.151998
0.152019
0.15204
0.152061
0.152083
0.152104
0.152126
0.152147
0.152168
0.15219
0.152211
0.152233
0.152255
0.152276
0.152298
0.152319
0.152341
0.152363
0.152385
0.152406
0.152428
0.15245
0.152472
0.152494
0.152516
0.152538
0.15256
0.152582
0.152604
0.152626
0.152648
0.152671
0.152692
0.152715
0.152737
0.15276
0.152781
0.152805
0.152826
0.15285
0.152871
0.152894
0.152917
0.15294
0.152962
0.152985
0.153008
0.153031
0.153057
0.153075
0.153106
0.153104
0.153104
0.153104
1
0.776804
0.557828
0.446883
0.384109
0.343755
0.315526
0.294626
0.278499
0.26565
0.255142
0.246359
0.238887
0.232436
0.226798
0.221819
0.217385
0.213414
0.209845
0.206636
0.203747
0.201151
0.198829
0.196778
0.195006
0.193518
0.192307
0.191342
0.190573
0.189944
0.189401
0.188909
0.188453
0.188033
0.187661
0.187347
0.187098
0.186914
0.186789
0.186713
0.186674
0.186661
0.186665
0.186679
0.186697
0.186717
0.186738
0.186758
0.186778
0.186798
0.186817
0.186836
0.186855
0.186874
0.186894
0.186913
0.186932
0.186952
0.186971
0.186991
0.187011
0.18703
0.18705
0.18707
0.18709
0.18711
0.18713
0.18715
0.18717