# vtk DataFile Version 2.0
FlowField
ASCII
DATASET STRUCTURED_GRID
DIMENSIONS 400 1 200
POINTS 80000 float
0 0 0
0.08 0 0
0.16 0 0
0.24 0 0
0.32 0 0
0.4 0 0
0.48 0 0
0.56 0 0
0.64 0 0
0.72 0 0
0.8 0 0
0.88 0 0
0.96 0 0
1.04 0 0
1.12 0 0
1.2 0 0
1.28 0 0
1.36 0 0
1.44 0 0
1.52 0 0
1.6 0 0
1.68 0 0
1.76 0 0
1.84 0 0
1.92 0 0
2 0 0
2.08 0 0
2.16 0 0
2.24 0 0
2.32 0 0
2.4 0 0
2.48 0 0
2.56 0 0
2.64 0 0
2.72 0 0
2.8 0 0
2.88 0 0
2.96 0 0
3.04 0 0
3.12 0 0
3.2 0 0
3.28 0 0
3.36 0 0
3.44 0 0
3.52 0 0
3.6 0 0
3.68 0 0
3.76 0 0
3.84 0 0
3.92 0 0
4 0 0
4.08 0 0
4.16 0 0
4.24 0 0
4.32 0 0
4.4 0 0
4.48 0 0
4.56 0 0
4.64 0 0
4.72 0 0
4.8 0 0
4.88 0 0
4.96 0 0
5.04 0 0
5.12 0 0
5.2 0 0
5.28 0 0
5.36 0 0
5.44 0 0
5.52 0 0
5.6 0 0
5.68 0 0
5.76 0 0
5.84 0 0
5.92 0 0
6 0 0
6.08 0 0
6.16 0 0
6.24 0 0
6.32 0 0
6.4 0 0
6.48 0 0
6.56 0 0
6.64 0 0
6.72 0 0
6.8 0 0
6.88 0 0
6.96 0 0
7.04 0 0
7.12 0 0
7.2 0 0
7.28 0 0
7.36 0 0
7.44 0 0
7.52 0 0
7.6 0 0
7.68 0 0
7.76 0 0
7.84 0 0
7.92 0 0
8 0 0
8.08 0 0
8.16 0 0
8.24 0 0
8.32 0 0
8.4 0 0
8.48 0 0
8.56 0 0
8.64 0 0
8.72 0 0
8.8 0 0
8.88 0 0
8.96 0 0
9.04 0 0
9.12 0 0
9.2 0 0
9.28 0 0
9.36 0 0
9.44 0 0
9.52 0 0
9.6 0 0
9.68 0 0
9.76 0 0
9.84 0 0
9.92 0 0
10 0 0
10.08 0 0
10.16 0 0
10.24 0 0
10.32 0 0
10.4 0 0
10.48 0 0
10.56 0 0
10.64 0 0
10.72 0 0
10.8 0 0
10.88 0 0
10.96 0 0
11.04 0 0
11.12 0 0
11.2 0 0
11.28 0 0
11.36 0 0
11.44 0 0
11.52 0 0
11.6 0 0
11.68 0 0
11.76 0 0
11.84 0 0
11.92 0 0
12 0 0
12.08 0 0
12.16 0 0
12.24 0 0
12.32 0 0
12.4 0 0
12.48 0 0
12.56 0 0
12.64 0 0
12.72 0 0
12.8 0 0
12.88 0 0
12.96 0 0
13.04 0 0
13.12 0 0
13.2 0 0
13.28 0 0
13.36 0 0
13.44 0 0
13.52 0 0
13.6 0 0
13.68 0 0
13.76 0 0
13.84 0 0
13.92 0 0
14 0 0
14.08 0 0
14.16 0 0
14.24 0 0
14.32 0 0
14.4 0 0
14.48 0 0
14.56 0 0
14.64 0 0
14.72 0 0
14.8 0 0
14.88 0 0
14.96 0 0
15.04 0 0
15.12 0 0
15.2 0 0
15.28 0 0
15.36 0 0
15.44 0 0
15.52 0 0
15.6 0 0
15.68 0 0
15.76 0 0
15.84 0 0
15.92 0 0
16 0 0
16.08 0 0
16.16 0 0
16.24 0 0
16.32 0 0
16.4 0 0
16.48 0 0
16.56 0 0
16.64 0 0
16.72 0 0
16.8 0 0
16.88 0 0
16.96 0 0
17.04 0 0
17.12 0 0
17.2 0 0
17.28 0 0
17.36 0 0
17.44 0 0
17.52 0 0
17.6 0 0
17.68 0 0
17.76 0 0
17.84 0 0
17.92 0 0
18 0 0
18.08 0 0
18.16 0 0
18.24 0 0
18.32 0 0
18.4 0 0
18.48 0 0
18.56 0 0
18.64 0 0
18.72 0 0
18.8 0 0
18.88 0 0
18.96 0 0
19.04 0 0
19.12 0 0
19.2 0 0
19.28 0 0
19.36 0 0
19.44 0 0
19.52 0 0
19.6 0 0
19.68 0 0
19.76 0 0
19.84 0 0
19.92 0 0
20 0 0
20.08 0 0
20.16 0 0
20.24 0 0
20.32 0 0
20.4 0 0
20.48 0 0
20.56 0 0
20.64 0 0
20.72 0 0
20.8 0 0
20.88 0 0
20.96 0 0
21.04 0 0
21.12 0 0
21.2 0 0
21.28 0 0
21.36 0 0
21.44 0 0
21.52 0 0
21.6 0 0
21.68 0 0
21.76 0 0
21.84 0 0
21.92 0 0
22 0 0
22.08 0 0
22.16 0 0
22.24 0 0
22.32 0 0
22.4 0 0
22.48 0 0
22.56 0 0
22.64 0 0
22.72 0 0
22.8 0 0
22.88 0 0
22.96 0 0
23.04 0 0
23.12 0 0
23.2 0 0
23.28 0 0
23.36 0 0
23.44 0 0
23.52 0 0
23.6 0 0
23.68 0 0
23.76 0 0
23.84 0 0
23.92 0 0
24 0 0
24.08 0 0
24.16 0 0
24.24 0 0
24.32 0 0
24.4 0 0
24.48 0 0
24.56 0 0
24.64 0 0
24.72 0 0
24.8 0 0
24.88 0 0
24.96 0 0
25.04 0 0
25.12 0 0
25.2 0 0
25.28 0 0
25.36 0 0
25.44 0 0
25.52 0 0
25.6 0 0
25.68 0 0
25.76 0 0
25.84 0 0
25.92 0 0
26 0 0
26.08 0 0
26.16 0 0
26.24 0 0
26.32 0 0
26.4 0 0
26.48 0 0
26.56 0 0
26.64 0 0
26.72 0 0
26.8 0 0
26.88 0 0
26.96 0 0
27.04 0 0
27.12 0 0
27.2 0 0
27.28 0 0
27.36 0 0
27.44 0 0
27.52 0 0
27.6 0 0
27.68 0 0
27.76 0 0
27.84 0 0
27.92 0 0
28 0 0
28.08 0 0
28.16 0 0
28.24 0 0
28.32 0 0
28.4 0 0
28.48 0 0
28.56 0 0
28.64 0 0
28.72 0 0
28.8 0 0
28.88 0 0
28.96 0 0
29.04 0 0
29.12 0 0
29.2 0 0
29.28 0 0
29.36 0 0
29.44 0 0
29.52 0 0
29.6 0 0
29.68 0 0
29.76 0 0
29.84 0 0
29.92 0 0
30 0 0
30.08 0 0
30.16 0 0
30.24 0 0
30.32 0 0
30.4 0 0
30.48 0 0
30.56 0 0
30.64 0 0
30.72 0 0
30.8 0 0
30.88 0 0
30.96 0 0
31.04 0 0
31.12 0 0
31.2 0 0
31.28 0 0
31.36 0 0
31.44 0 0
31.52 0 0
31.6 0 0
31.68 0 0
31.76 0 0
31.84 0 0
31.92 0 0
0 0.005 0
0.08 0.005 0
0.16 0.005 0
0.24 0.005 0
0.32 0.005 0
0.4 0.005 0
0.48 0.005 0
0.56 0.005 0
0.64 0.005 0
0.72 0.005 0
0.8 0.005 0
0.88 0.005 0
0.96 0.005 0
1.04 0.005 0
1.12 0.005 0
1.2 0.005 0
1.28 0.005 0
1.36 0.005 0
1.44 0.005 0
1.52 0.005 0
1.6 0.005 0
1.68 0.005 0
1.76 0.005 0
1.84 0.005 0
1.92 0.005 0
2 0.005 0
2.08 0.005 0
2.16 0.005 0
2.24 0.005 0
2.32 0.005 0
2.4 0.005 0
2.48 0.005 0
2.56 0.005 0
2.64 0.005 0
2.72 0.005 0
2.8 0.005 0
2.88 0.005 0
2.96 0.005 0
3.04 0.005 0
3.12 0.005 0
3.2 0.005 0
3.28 0.005 0
3.36 0.005 0
3.44 0.005 0
3.52 0.005 0
3.6 0.005 0
3.68 0.005 0
3.76 0.005 0
3.84 0.005 0
3.92 0.005 0
4 0.005 0
4.08 0.005 0
4.16 0.005 0
4.24 0.005 0
4.32 0.005 0
4.4 0.005 0
4.48 0.005 0
4.56 0.005 0
4.64 0.005 0
4.72 0.005 0
4.8 0.005 0
4.88 0.005 0
4.96 0.005 0
5.04 0.005 0
5.12 0.005 0
5.2 0.005 0
5.28 0.005 0
5.36 0.005 0
5.44 0.005 0
5.52 0.005 0
5.6 0.005 0
5.68 0.005 0
5.76 0.005 0
5.84 0.005 0
5.92 0.005 0
6 0.005 0
6.08 0.005 0
6.16 0.005 0
6.24 0.005 0
6.32 0.005 0
6.4 0.005 0
6.48 0.005 0
6.56 0.005 0
6.64 0.005 0
6.72 0.005 0
6.8 0.005 0
6.88 0.005 0
6.96 0.005 0
7.04 0.005 0
7.12 0.005 0
7.2 0.005 0
7.28 0.005 0
7.36 0.005 0
7.44 0.005 0
7.52 0.005 0
7.6 0.005 0
7.68 0.005 0
7.76 0.005 0
7.84 0.005 0
7.92 0.005 0
8 0.005 0
8.08 0.005 0
8.16 0.005 0
8.24 0.005 0
8.32 0.005 0
8.4 0.005 0
8.48 0.005 0
8.56 0.005 0
8.64 0.005 0
8.72 0.005 0
8.8 0.005 0
8.88 0.005 0
8.96 0.005 0
9.04 0.005 0
9.12 0.005 0
9.2 0.005 0
9.28 0.005 0
9.36 0.005 0
9.44 0.005 0
9.52 0.005 0
9.6 0.005 0
9.68 0.005 0
9.76 0.005 0
9.84 0.005 0
9.92 0.005 0
10 0.005 0
10.08 0.005 0
10.16 0.005 0
10.24 0.005 0
10.32 0.005 0
10.4 0.005 0
10.48 0.005 0
10.56 0.005 0
10.64 0.005 0
10.72 0.005 0
10.8 0.005 0
10.88 0.005 0
10.96 0.005 0
11.04 0.005 0
11.12 0.005 0
11.2 0.005 0
11.28 0.005 0
11.36 0.005 0
11.44 0.005 0
11.52 0.005 0
11.6 0.005 0
11.68 0.005 0
11.76 0.005 0
11.84 0.005 0
11.92 0.005 0
12 0.005 0
12.08 0.005 0
12.16 0.005 0
12.24 0.005 0
12.32 0.005 0
12.4 0.005 0
12.48 0.005 0
12.56 0.005 0
12.64 0.005 0
12.72 0.005 0
12.8 0.005 0
12.88 0.005 0
12.96 0.005 0
13.04 0.005 0
13.12 0.005 0
13.2 0.005 0
13.28 0.005 0
13.36 0.005 0
13.44 0.005 0
13.52 0.005 0
13.6 0.005 0
13.68 0.005 0
13.76 0.005 0
13.84 0.005 0
13.92 0.005 0
14 0.005 0
14.08 0.005 0
14.16 0.005 0
14.24 0.005 0
14.32 0.005 0
14.4 0.005 0
14.48 0.005 0
14.56 0.005 0
14.64 0.005 0
14.72 0.005 0
14.8 0.005 0
14.88 0.005 0
14.96 0.005 0
15.04 0.005 0
15.12 0.005 0
15.2 0.005 0
15.28 0.005 0
15.36 0.005 0
15.44 0.005 0
15.52 0.005 0
15.6 0.005 0
15.68 0.005 0
15.76 0.005 0
15.84 0.005 0
15.92 0.005 0
16 0.005 0
16.08 0.005 0
16.16 0.005 0
16.24 0.005 0
16.32 0.005 0
16.4 0.005 0
16.48 0.005 0
16.56 0.005 0
16.64 0.005 0
16.72 0.005 0
16.8 0.005 0
16.88 0.005 0
16.96 0.005 0
17.04 0.005 0
17.12 0.005 0
17.2 0.005 0
17.28 0.005 0
17.36 0.005 0
17.44 0.005 0
17.52 0.005 0
17.6 0.005 0
17.68 0.005 0
17.76 0.005 0
17.84 0.005 0
17.92 0.005 0
18 0.005 0
18.08 0.005 0
18.16 0.005 0
18.24 0.005 0
18.32 0.005 0
18.4 0.005 0
18.48 0.005 0
18.56 0.005 0
18.64 0.005 0
18.72 0.005 0
18.8 0.005 0
18.88 0.005 0
18.96 0.005 0
19.04 0.005 0
19.12 0.005 0
19.2 0.005 0
19.28 0.005 0
19.36 0.005 0
19.44 0.005 0
19.52 0.005 0
19.6 0.005 0
19.68 0.005 0
19.76 0.005 0
19.84 0.005 0
19.92 0.005 0
20 0.005 0
20.08 0.005 0
20.16 0.005 0
20.24 0.005 0
20.32 0.005 0
20.4 0.005 0
20.48 0.005 0
20.56 0.005 0
20.64 0.005 0
20.72 0.005 0
20.8 0.005 0
20.88 0.005 0
20.96 0.005 0
21.04 0.005 0
21.12 0.005 0
21.2 0.005 0
21.28 0.005 0
21.36 0.005 0
21.44 0.005 0
21.52 0.005 0
21.6 0.005 0
21.68 0.005 0
21.76 0.005 0
21.84 0.005 0
21.92 0.005 0
22 0.005 0
22.08 0.005 0
22.16 0.005 0
22.24 0.005 0
22.32 0.005 0
22.4 0.005 0
22.48 0.005 0
22.56 0.005 0
22.64 0.005 0
22.72 0.005 0
22.8 0.005 0
22.88 0.005 0
22.96 0.005 0
23.04 0.005 0
23.12 0.005 0
23.2 0.005 0
23.28 0.005 0
23.36 0.005 0
23.44 0.005 0
23.52 0.005 0
23.6 0.005 0
23.68 0.005 0
23.76 0.005 0
23.84 0.005 0
23.92 0.005 0
24 0.005 0
24.08 0.005 0
24.16 0.005 0
24.24 0.005 0
24.32 0.005 0
24.4 0.005 0
24.48 0.005 0
24.56 0.005 0
24.64 0.005 0
24.72 0.005 0
24.8 0.005 0
24.88 0.005 0
24.96 0.005 0
25.04 0.005 0
25.12 0.005 0
25.2 0.005 0
25.28 0.005 0
25.36 0.005 0
25.44 0.005 0
25.52 0.005 0
25.6 0.005 0
25.68 0.005 0
25.76 0.005 0
25.84 0.005 0
25.92 0.005 0
26 0.005 0
26.08 0.005 0
26.16 0.005 0
26.24 0.005 0
26.32 0.005 0
26.4 0.005 0
26.48 0.005 0
26.56 0.005 0
26.64 0.005 0
26.72 0.005 0
26.8 0.005 0
26.88 0.005 0
26.96 0.005 0
27.04 0.005 0
27.12 0.005 0
27.2 0.005 0
27.28 0.005 0
27.36 0.005 0
27.44 0.005 0
27.52 0.005 0
27.6 0.005 0
27.68 0.005 0
27.76 0.005 0
27.84 0.005 0
27.92 0.005 0
28 0.005 0
28.08 0.005 0
28.16 0.005 0
28.24 0.005 0
28.32 0.005 0
28.4 0.005 0
28.48 0.005 0
28.56 0.005 0
28.64 0.005 0
28.72 0.005 0
28.8 0.005 0
28.88 0.005 0
28.96 0.005 0
29.04 0.005 0
29.12 0.005 0
29.2 0.005 0
29.28 0.005 0
29.36 0.005 0
29.44 0.005 0
29.52 0.005 0
29.6 0.005 0
29.68 0.005 0
29.76 0.005 0
29.84 0.005 0
29.92 0.005 0
30 0.005 0
30.08 0.005 0
30.16 0.005 0
30.24 0.005 0
30.32 0.005 0
30.4 0.005 0
30.48 0.005 0
30.56 0.005 0
30.64 0.005 0
30.72 0.005 0
30.8 0.005 0
30.88 0.005 0
30.96 0.005 0
31.04 0.005 0
31.12 0.005 0
31.2 0.005 0
31.28 0.005 0
31.36 0.005 0
31.44 0.005 0
31.52 0.005 0
31.6 0.005 0
31.68 0.005 0
31.76 0.005 0
31.84 0.005 0
31.92 0.005 0
0 0.01 0
0.08 0.01 0
0.16 0.01 0
0.24 0.01 0
0.32 0.01 0
0.4 0.01 0
0.48 0.01 0
0.56 0.01 0
0.64 0.01 0
0.72 0.01 0
0.8 0.01 0
0.88 0.01 0
0.96 0.01 0
1.04 0.01 0
1.12 0.01 0
1.2 0.01 0
1.28 0.01 0
1.36 0.01 0
1.44 0.01 0
1.52 0.01 0
1.6 0.01 0
1.68 0.01 0
1.76 0.01 0
1.84 0.01 0
1.92 0.01 0
2 0.01 0
2.08 0.01 0
2.16 0.01 0
2.24 0.01 0
2.32 0.01 0
2.4 0.01 0
2.48 0.01 0
2.56 0.01 0
2.64 0.01 0
2.72 0.01 0
2.8 0.01 0
2.88 0.01 0
2.96 0.01 0
3.04 0.01 0
3.12 0.01 0
3.2 0.01 0
3.28 0.01 0
3.36 0.01 0
3.44 0.01 0
3.52 0.01 0
3.6 0.01 0
3.68 0.01 0
3.76 0.01 0
3.84 0.01 0
3.92 0.01 0
4 0.01 0
4.08 0.01 0
4.16 0.01 0
4.24 0.01 0
4.32 0.01 0
4.4 0.01 0
4.48 0.01 0
4.56 0.01 0
4.64 0.01 0
4.72 0.01 0
4.8 0.01 0
4.88 0.01 0
4.96 0.01 0
5.04 0.01 0
5.12 0.01 0
[...]
POINT_DATA 80000

SCALARS v float 1
LOOKUP_TABLE default
0
0
0
0
0
0
0
0
0
0
0
0
0
0
0
0
0
0
0
0
0
0
0
0
0
0
0
0
0
0
0
0
0
0
0
0
0
0
0
0
0
0
0
0
0
0
0
0
0
0
0
0
0
0
0
0
0
0
0
0
0
0
0
0
0
0
0
0
0
0
0
0
0
0
0
0
0
0
0
0
0
0
0
0
0
0
0
0
0
0
0
0
0
0
0
0
0
0
0
0
0
0
0
0
0
0
0
0
0
0
0
0
0
0
0
0
0
0
0
0
0
0
0
0
0
0
0
0
0
0
0
0
0
0
0
0
0
0
0
0
0
0
0
0
0
0
0
0
0
0
0
0
0
0
0
0
0
0
0
0
0
0
0
0
0
0
0
0
0
0
0
0
0
0
0
0
0
0
0
0
0
0
0
0
0
0
0
0
0
0
0
0
0
0
0
0
0
0
0
0
0
0
0
0
0
0
0
0
0
0
0
0
0
0
0
0
0
0
0
0
0
0
0
0
0
0
0
0
0
0
0
0
0
0
0
0
0
0
0
0
0
0
0
0
0
0
0
0
0
0
0
0
0
0
0
0
0
0
0
0
0
0
0
0
0
0
0
0
0
0
0
0
0
0
0
0
0
0
0
0
0
0
0
0
0
0
0
0
0
0
0
0
0
0
0
0
0
0
0
0
0
0
0
0
0
0
0
0
0
0
0
0
0
0
0
0
0
0
0
0
0
0
0
0
0
0
0
0
0
0
0
0
0
0
0
0
0
0
0
0
0
0
0
0
0
0
0
0
0
0
0
0
0
0
0
0
0
0
0
0
0
0
0
0
0
0
0
0
0
0
0
0
0
0
0
0
0
0
0
0
0
0
0
0
0
0
0
0
0
0
0
0
0
0
0
0
0
0
0
0
-0.0542718
0.0542718
0.00396281
0.000999057
0.000492992
0.00030343
0.000208055
0.000152426
0.000116984
9.30246e-05
7.61055e-05
6.37381e-05
5.44327e-05
4.72494e-05
4.15687e-05
3.69744e-05
3.31909e-05
3.00362e-05
2.73744e-05
2.50853e-05
2.30648e-05
2.1247e-05
1.96141e-05
1.81718e-05
1.69069e-05
1.57628e-05
1.46561e-05
1.35201e-05
1.23396e-05
1.11489e-05
9.99949e-06
8.92224e-06
7.91487e-06
6.95796e-06
6.04375e-06
5.19452e-06
4.45738e-06
3.88017e-06
3.48448e-06
3.25172e-06
3.12857e-06
3.04667e-06
2.94537e-06
2.78749e-06
2.56388e-06
2.28844e-06
1.98801e-06
1.69201e-06
1.42474e-06
1.20143e-06
1.02777e-06
9.01678e-07
8.16093e-07
7.61833e-07
7.29753e-07
7.12077e-07
7.02932e-07
6.98326e-07
6.95818e-07
6.94078e-07
6.9249e-07
6.90842e-07
6.8911e-07
6.87345e-07
6.85601e-07
6.83918e-07
6.82318e-07
6.80803e-07
6.79368e-07
6.78002e-07
6.76693e-07
6.75429e-07
6.74202e-07
6.73005e-07
6.71831e-07
6.70678e-07
6.69543e-07
6.68423e-07
6.67316e-07
6.66224e-07
6.65143e-07
6.64075e-07
6.63018e-07
6.61973e-07
6.60939e-07
6.59917e-07
6.58905e-07
6.57905e-07
6.56916e-07
6.55938e-07
6.54971e-07
6.54016e-07
6.53073e-07
6.52141e-07
6.51222e-07
6.50315e-07
6.4942e-07
6.48539e-07
6.4767e-07
6.46815e-07
6.45974e-07
6.45147e-07
6.44334e-07
6.43536e-07
6.42752e-07
6.41984e-07
6.41231e-07
6.40495e-07
6.39774e-07
6.39071e-07
6.38384e-07
6.37715e-07
6.37063e-07
6.3643e-07
6.35815e-07
6.35219e-07
6.34642e-07
6.34085e-07
6.33549e-07
6.33033e-07
6.32539e-07
6.32066e-07
6.31615e-07
6.31187e-07
6.30782e-07
6.30402e-07
6.30045e-07
6.29714e-07
6.29408e-07
6.29128e-07
6.28875e-07
6.28649e-07
6.28451e-07
6.28283e-07
6.28143e-07
6.28034e-07
6.27955e-07
6.27909e-07
6.27894e-07
6.27913e-07
6.27966e-07
6.28053e-07
6.28176e-07
6.28336e-07
6.28532e-07
6.28767e-07
6.29041e-07
6.29355e-07
6.29709e-07
6.30106e-07
6.30545e-07
6.31027e-07
6.31555e-07
6.32127e-07
6.32747e-07
6.33414e-07
6.3413e-07
6.34895e-07
6.35711e-07
6.36578e-07
6.37498e-07
6.38472e-07
6.39501e-07
6.40585e-07
6.41726e-07
6.42925e-07
6.44183e-07
6.45501e-07
6.46879e-07
6.4832e-07
6.49823e-07
6.5139e-07
6.53022e-07
6.54719e-07
6.56483e-07
6.58314e-07
6.60214e-07
6.62182e-07
6.6422e-07
6.66329e-07
6.68509e-07
6.70761e-07
6.73086e-07
6.75483e-07
6.77954e-07
6.80499e-07
6.83118e-07
6.85811e-07
6.88579e-07
6.91423e-07
6.94341e-07
6.97334e-07
7.00402e-07
7.03545e-07
7.06763e-07
7.10054e-07
7.13419e-07
7.16857e-07
7.20367e-07
7.23949e-07
7.27601e-07
7.31323e-07
7.35113e-07
7.38971e-07
7.42894e-07
7.46881e-07
7.5093e-07
7.55041e-07
7.59209e-07
7.63435e-07
7.67714e-07
7.72045e-07
7.76426e-07
7.80853e-07
7.85324e-07
7.89836e-07
7.94385e-07
7.98968e-07
8.03581e-07
8.08222e-07
8.12886e-07
8.1757e-07
8.22268e-07
8.26977e-07
8.31693e-07
8.36411e-07
8.41125e-07
8.45832e-07
8.50526e-07
8.55203e-07
8.59856e-07
8.64481e-07
8.69071e-07
8.73622e-07
8.78128e-07
8.82582e-07
8.86979e-07
8.91312e-07
8.95576e-07
8.99764e-07
9.0387e-07
9.07887e-07
9.11809e-07
9.15631e-07
9.19344e-07
9.22943e-07
9.2642e-07
9.29771e-07
9.32987e-07
9.36062e-07
9.3899e-07
9.41764e-07
9.44379e-07
9.46826e-07
9.49101e-07
9.51196e-07
9.53106e-07
9.54824e-07
9.56345e-07
9.57663e-07
9.58772e-07
9.59666e-07
9.60341e-07
9.6079e-07
9.61009e-07
9.60993e-07
9.60737e-07
9.60237e-07
9.59489e-07
9.58488e-07
9.57231e-07
9.55715e-07
9.53935e-07
9.5189e-07
9.49576e-07
9.46991e-07
9.44132e-07
9.40999e-07
9.37589e-07
9.33901e-07
9.29934e-07
9.25687e-07
9.21161e-07
9.16354e-07
9.11268e-07
9.05904e-07
9.00261e-07
8.94341e-07
8.88147e-07
8.81679e-07
8.7494e-07
8.67932e-07
8.6066e-07
8.53124e-07
8.4533e-07
8.37281e-07
8.2898e-07
8.20433e-07
8.11643e-07
8.02617e-07
7.93358e-07
7.83873e-07
7.74167e-07
7.64246e-07
7.54116e-07
7.43784e-07
7.33256e-07
7.22538e-07
7.11639e-07
7.00565e-07
6.89323e-07
6.77921e-07
6.66366e-07
6.54666e-07
6.42829e-07
6.30863e-07
6.18776e-07
6.06576e-07
5.9427e-07
5.81868e-07
5.69378e-07
5.56807e-07
5.44164e-07
5.31457e-07
5.18695e-07
5.05885e-07
4.93035e-07
4.80155e-07
4.67251e-07
4.54332e-07
4.41405e-07
4.28478e-07
4.1556e-07
4.02656e-07
3.89775e-07
3.76924e-07
3.6411e-07
3.5134e-07
3.3862e-07
3.25957e-07
3.13357e-07
3.00826e-07
2.88372e-07
2.75998e-07
2.63711e-07
2.51516e-07
2.39418e-07
2.27422e-07
2.15532e-07
2.03754e-07
1.92091e-07
1.80547e-07
1.69127e-07
1.57831e-07
1.46668e-07
1.35631e-07
1.24744e-07
1.13967e-07
1.03382e-07
9.28476e-08
8.26143e-08
7.22663e-08
6.24853e-08
5.21998e-08
4.30451e-08
3.2617e-08
2.43335e-08
1.35054e-08
6.35049e-09
-5.10294e-09
-1.09594e-08
-2.3132e-08
-2.76876e-08
-4.04925e-08
-4.39293e-08
-5.71101e-08
-5.97573e-08
-7.29584e-08
-7.51691e-08
-8.81316e-08
-9.00221e-08
-1.02867e-07
-1.04083e-07
-1.17437e-07
-1.17184e-07
-1.31984e-07
-1.29448e-07
-1.46245e-07
-1.41636e-07
-1.59458e-07
-1.5501e-07
-1.70579e-07
-1.72421e-07
-1.74336e-07
-2.04973e-07
-1.47048e-07
-2.76471e-07
1.16477e-07
-2.01171e-07
-2.01171e-07
-0.0952166
0.0952166
0.0129765
0.0038555
0.00193521
0.00119711
0.000822653
0.000603227
0.000462976
0.000367937
0.000300703
0.000251491
0.000214428
0.000185795
0.000163144
0.000144828
0.000129753
0.000117185
0.000106573
9.74365e-05
8.93747e-05
8.21373e-05
7.56492e-05
6.99119e-05
6.485e-05
6.02343e-05
5.57518e-05
5.1166e-05
4.64328e-05
4.16848e-05
3.71072e-05
3.28099e-05
2.87885e-05
2.49866e-05
2.13967e-05
1.81151e-05
1.53141e-05
1.31514e-05
1.16773e-05
1.07946e-05
1.02878e-05
9.90038e-06
9.4163e-06
8.71297e-06
7.77211e-06
6.6568e-06
5.47249e-06
4.3288e-06
3.31254e-06
2.47501e-06
1.83178e-06
1.37037e-06
1.06123e-06
8.68228e-07
7.56432e-07
6.96735e-07
6.67493e-07
6.54201e-07
6.48103e-07
6.4452e-07
6.41337e-07
6.37862e-07
6.34065e-07
6.30142e-07
6.26306e-07
6.22702e-07
6.19397e-07
6.16401e-07
6.13688e-07
6.11214e-07
6.08933e-07
6.06804e-07
6.04792e-07
6.02869e-07
6.01016e-07
5.99217e-07
5.97462e-07
5.95744e-07
5.94056e-07
5.92395e-07
5.90758e-07
5.89143e-07
5.87548e-07
5.85971e-07
5.84411e-07
5.82868e-07
5.81341e-07
5.7983e-07
5.78333e-07
5.76852e-07
5.75385e-07
5.73934e-07
5.72497e-07
5.71076e-07
5.6967e-07
5.6828e-07
5.66906e-07
5.65549e-07
5.64209e-07
5.62887e-07
5.61582e-07
5.60296e-07
5.59028e-07
5.57779e-07
5.5655e-07
5.55342e-07
5.54153e-07
5.52986e-07
5.5184e-07
5.50716e-07
5.49614e-07
5.48535e-07
5.47479e-07
5.46447e-07
5.45439e-07
5.44456e-07
5.43499e-07
5.42567e-07
5.41661e-07
5.40782e-07
5.39931e-07
5.39107e-07
5.38313e-07
5.37547e-07
5.36812e-07
5.36107e-07
5.35433e-07
5.34792e-07
5.34183e-07
5.33607e-07
5.33065e-07
5.32559e-07
5.32088e-07
5.31653e-07
5.31256e-07
5.30896e-07
5.30576e-07
5.30296e-07
5.30056e-07
5.29858e-07
5.29702e-07
5.2959e-07
5.29523e-07
5.29501e-07
5.29525e-07
5.29596e-07
5.29716e-07
5.29886e-07
5.30105e-07
5.30377e-07
5.30701e-07
5.31078e-07
5.31511e-07
5.31999e-07
5.32544e-07
5.33148e-07
5.3381e-07
5.34533e-07
5.35317e-07
5.36163e-07
5.37074e-07
5.38049e-07
5.39089e-07
5.40197e-07
5.41373e-07
5.42618e-07
5.43933e-07
5.45319e-07
5.46778e-07
5.4831e-07
5.49916e-07
5.51597e-07
5.53354e-07
5.55189e-07
5.57101e-07
5.59092e-07
5.61162e-07
5.63313e-07
5.65544e-07
5.67856e-07
5.70251e-07
5.72728e-07
5.75288e-07
5.77932e-07
5.80659e-07
5.83469e-07
5.86364e-07
5.89342e-07
5.92405e-07
5.95551e-07
5.9878e-07
6.02093e-07
6.05488e-07
6.08966e-07
6.12524e-07
6.16164e-07
6.19883e-07
6.2368e-07
6.27555e-07
6.31506e-07
6.35532e-07
6.3963e-07
6.43799e-07
6.48038e-07
6.52344e-07
6.56715e-07
6.61148e-07
6.65642e-07
6.70192e-07
6.74797e-07
6.79452e-07
6.84156e-07
6.88904e-07
6.93694e-07
6.9852e-07
7.0338e-07
7.08268e-07
7.13182e-07
7.18115e-07
7.23064e-07
7.28024e-07
7.3299e-07
7.37956e-07
7.42917e-07
7.47868e-07
7.52803e-07
7.57716e-07
7.62602e-07
7.67453e-07
7.72264e-07
7.77027e-07
7.81738e-07
7.86389e-07
7.90973e-07
7.95482e-07
7.99912e-07
8.04253e-07
8.08498e-07
8.12642e-07
8.16675e-07
8.20591e-07
8.24382e-07
8.28041e-07
8.31559e-07
8.3493e-07
8.38146e-07
8.41199e-07
8.44081e-07
8.46786e-07
8.49305e-07
8.51631e-07
8.53757e-07
8.55675e-07
8.57378e-07
8.58859e-07
8.60112e-07
8.61128e-07
8.61901e-07
8.62426e-07
8.62694e-07
8.62701e-07
8.6244e-07
8.61904e-07
8.6109e-07
8.59991e-07
8.58602e-07
8.56918e-07
8.54934e-07
8.52647e-07
8.50052e-07
8.47146e-07
8.43924e-07
8.40384e-07
8.36524e-07
8.32339e-07
8.2783e-07
8.22993e-07
8.17827e-07
8.12331e-07
8.06504e-07
8.00346e-07
7.93858e-07
7.87038e-07
7.79889e-07
7.72411e-07
7.64606e-07
7.56475e-07
7.48021e-07
7.39247e-07
7.30155e-07
7.20748e-07
7.11031e-07
7.01008e-07
6.90682e-07
6.8006e-07
6.69145e-07
6.57943e-07
6.4646e-07
6.34702e-07
6.22676e-07
6.10388e-07
5.97845e-07
5.85054e-07
5.72022e-07
5.58759e-07
5.4527e-07
5.31565e-07
5.17652e-07
5.0354e-07
4.89237e-07
4.74752e-07
4.60094e-07
4.45273e-07
4.30297e-07
4.15177e-07
3.99922e-07
3.84541e-07
3.69044e-07
3.5344e-07
3.37741e-07
3.21954e-07
3.0609e-07
2.90159e-07
2.7417e-07
2.58133e-07
2.42058e-07
2.25953e-07
2.09829e-07
1.93695e-07
1.77559e-07
1.61432e-07
1.45321e-07
1.29236e-07
1.13185e-07
9.7176e-08
8.12183e-08
6.53191e-08
4.94867e-08
3.37283e-08
1.80516e-08
2.46349e-09
-1.3029e-08
-2.84193e-08
-4.37009e-08
-5.88678e-08
-7.39139e-08
-8.88338e-08
-1.03622e-07
-1.18274e-07
-1.32784e-07
-1.47147e-07
-1.61362e-07
-1.75419e-07
-1.89325e-07
-2.03056e-07
-2.16649e-07
-2.30023e-07
-2.43326e-07
-2.56273e-07
-2.69373e-07
-2.81732e-07
-2.94858e-07
-3.06279e-07
-3.19901e-07
-3.29752e-07
-3.44648e-07
-3.5202e-07
-3.69169e-07
-3.73088e-07
-3.93355e-07
-3.93167e-07
-4.16921e-07
-4.12601e-07
-4.39522e-07
-4.31734e-07
-4.60865e-07
-4.50827e-07
-4.8082e-07
-4.69866e-07
-4.99687e-07
-4.88306e-07
-5.18324e-07
-5.05218e-07
-5.3775e-07
-5.19893e-07
-5.58483e-07
-5.32747e-07
-5.79516e-07
-5.46561e-07
-5.9798e-07
-5.65985e-07
-6.10108e-07
-6.01295e-07
-5.96865e-07
-6.93157e-07
-4.71064e-07
-9.26555e-07
5.0256e-07
-6.30855e-07
-6.30855e-07
-0.125294
0.125294
0.0249368
0.00835901
0.00427903
0.00266257
0.00183479
0.00134741
0.00103493
0.000822721
0.000672352
0.000562159
0.000479094
0.000414884
0.000364069
0.000322984
0.000289181
0.000261001
0.000237193
0.000216683
0.000198591
0.000182376
0.000167858
0.000155005
0.000143617
0.000133177
0.000123019
0.000112657
0.000102013
9.13733e-05
8.11217e-05
7.14864e-05
6.24691e-05
5.39802e-05
4.60365e-05
3.88608e-05
3.28088e-05
2.81784e-05
2.50269e-05
2.31038e-05
2.19272e-05
2.09513e-05
1.97348e-05
1.80433e-05
1.58626e-05
1.33441e-05
1.07193e-05
8.22027e-06
6.02481e-06
4.23285e-06
2.86841e-06
1.89759e-06
1.25246e-06
8.5319e-07
6.24313e-07
5.03766e-07
4.45931e-07
4.20541e-07
4.09522e-07
4.03342e-07
3.97778e-07
3.91512e-07
3.84556e-07
3.7736e-07
3.70374e-07
3.63902e-07
3.58077e-07
3.52914e-07
3.48349e-07
3.44289e-07
3.40633e-07
3.37291e-07
3.3419e-07
3.31271e-07
3.2849e-07
3.25817e-07
3.23228e-07
3.20707e-07
3.18241e-07
3.15822e-07
3.13444e-07
3.111e-07
3.08788e-07
3.06504e-07
3.04244e-07
3.02008e-07
2.99792e-07
2.97597e-07
2.95421e-07
2.93264e-07
2.91124e-07
2.89003e-07
2.86899e-07
2.84814e-07
2.82746e-07
2.80698e-07
2.78669e-07
2.76659e-07
2.7467e-07
2.72702e-07
2.70755e-07
2.6883e-07
2.66928e-07
2.65049e-07
2.63194e-07
2.61363e-07
2.59557e-07
2.57777e-07
2.56022e-07
2.54294e-07
2.52593e-07
2.5092e-07
2.49275e-07
2.47658e-07
2.46071e-07
2.44513e-07
2.42986e-07
2.41489e-07
2.40024e-07
2.38591e-07
2.37191e-07
2.35824e-07
2.34491e-07
2.33193e-07
2.3193e-07
2.30704e-07
2.29513e-07
2.28361e-07
2.27247e-07
2.26172e-07
2.25136e-07
2.24142e-07
2.23188e-07
2.22278e-07
2.2141e-07
2.20587e-07
2.19808e-07
2.19076e-07
2.1839e-07
2.17752e-07
2.17163e-07
2.16624e-07
2.16135e-07
2.15699e-07
2.15315e-07
2.14985e-07
2.1471e-07
2.14491e-07
2.14329e-07
2.14225e-07
2.14179e-07
2.14195e-07
2.14271e-07
2.14411e-07
2.14613e-07
2.14881e-07
2.15213e-07
2.15613e-07
2.16081e-07
2.16618e-07
2.17224e-07
2.17902e-07
2.18652e-07
2.19476e-07
2.20373e-07
2.21346e-07
2.22395e-07
2.23521e-07
2.24725e-07
2.26008e-07
2.2737e-07
2.28814e-07
2.30338e-07
2.31945e-07
2.33635e-07
2.35408e-07
2.37264e-07
2.39206e-07
2.41232e-07
2.43343e-07
2.4554e-07
2.47823e-07
2.50191e-07
2.52646e-07
2.55187e-07
2.57813e-07
2.60525e-07
2.63323e-07
2.66205e-07
2.69171e-07
2.72222e-07
2.75355e-07
2.7857e-07
2.81866e-07
2.85242e-07
2.88696e-07
2.92227e-07
2.95834e-07
2.99515e-07
3.03268e-07
3.0709e-07
3.1098e-07
3.14935e-07
3.18953e-07
3.2303e-07
3.27165e-07
3.31354e-07
3.35594e-07
3.39881e-07
3.44212e-07
3.48583e-07
3.5299e-07
3.57429e-07
3.61895e-07
3.66385e-07
3.70893e-07
3.75414e-07
3.79943e-07
3.84476e-07
3.89006e-07
3.93528e-07
3.98037e-07
4.02526e-07
4.06988e-07
4.11419e-07
4.15811e-07
4.20157e-07
4.24452e-07
4.28687e-07
4.32856e-07
4.36952e-07
4.40967e-07
4.44894e-07
4.48725e-07
4.52453e-07
4.5607e-07
4.59568e-07
4.62939e-07
4.66175e-07
4.69268e-07
4.7221e-07
4.74994e-07
4.77609e-07
4.8005e-07
4.82307e-07
4.84372e-07
4.86237e-07
4.87895e-07
4.89337e-07
4.90555e-07
4.91542e-07
4.9229e-07
4.9279e-07
4.93036e-07
4.9302e-07
4.92735e-07
4.92174e-07
4.9133e-07
4.90197e-07
4.88767e-07
4.87035e-07
4.84995e-07
4.8264e-07
4.79966e-07
4.76967e-07
4.73638e-07
4.69974e-07
4.65971e-07
4.61626e-07
4.56934e-07
4.51892e-07
4.46497e-07
4.40746e-07
4.34637e-07
4.28168e-07
4.21338e-07
4.14144e-07
4.06588e-07
3.98667e-07
3.90383e-07
3.81735e-07
3.72724e-07
3.63351e-07
3.53619e-07
3.43528e-07
3.33083e-07
3.22284e-07
3.11136e-07
2.99642e-07
2.87806e-07
2.75632e-07
2.63126e-07
2.50291e-07
2.37135e-07
2.23663e-07
2.0988e-07
1.95794e-07
1.81412e-07
1.6674e-07
1.51786e-07
1.36558e-07
1.21064e-07
1.05313e-07
8.93131e-08
7.30729e-08
5.66021e-08
3.99095e-08
2.30052e-08
5.89852e-09
-1.14003e-08
-2.88816e-08
-4.65348e-08
-6.43499e-08
-8.23162e-08
-1.00424e-07
-1.18661e-07
-1.37018e-07
-1.55484e-07
-1.74048e-07
-1.927e-07
-2.11429e-07
-2.30224e-07
-2.49074e-07
-2.6797e-07
-2.869e-07
-3.05854e-07
-3.24823e-07
-3.43794e-07
-3.6276e-07
-3.8171e-07
-4.00634e-07
-4.19522e-07
-4.38366e-07
-4.57156e-07
-4.75884e-07
-4.94539e-07
-5.13115e-07
-5.31603e-07
-5.49995e-07
-5.68282e-07
-5.86458e-07
-6.04516e-07
-6.22448e-07
-6.40248e-07
-6.57909e-07
-6.75426e-07
-6.92793e-07
-7.10003e-07
-7.27053e-07
-7.43938e-07
-7.60651e-07
-7.77192e-07
-7.93548e-07
-8.09736e-07
-8.25711e-07
-8.41552e-07
-8.57094e-07
-8.72649e-07
-8.87627e-07
-9.03089e-07
-9.17172e-07
-9.33031e-07
-9.45486e-07
-9.62752e-07
-9.72239e-07
-9.92574e-07
-9.97149e-07
-1.02266e-06
-1.02023e-06
-1.05279e-06
-1.04192e-06
-1.08235e-06
-1.06297e-06
-1.11059e-06
-1.08411e-06
-1.13687e-06
-1.10588e-06
-1.1609e-06
-1.12828e-06
-1.18327e-06
-1.15014e-06
-1.2058e-06
-1.16941e-06
-1.23071e-06
-1.18453e-06
-1.25913e-06
-1.19635e-06
-1.28888e-06
-1.21078e-06
-1.31391e-06
-1.23766e-06
-1.32641e-06
-1.29845e-06
-1.28681e-06
-1.47876e-06
-1.01158e-06
-1.95412e-06
1.00753e-06
-1.32523e-06
-1.32523e-06
-0.146488
0.146488
0.0383114
0.0142351
0.00745714
0.0046739
0.00323171
0.0023777
0.00182823
0.00145415
0.00118863
0.000993789
0.000846779
0.00073306
0.00064303
0.000570239
0.000510363
0.000460448
0.000418254
0.000381889
0.000349825
0.000321125
0.000295454
0.000272701
0.000252463
0.000233834
0.000215688
0.000197228
0.000178344
0.000159517
0.00014138
0.000124315
0.000108349
9.33785e-05
7.94834e-05
6.70619e-05
5.66924e-05
4.8816e-05
4.34522e-05
4.01132e-05
3.79528e-05
3.60522e-05
3.36964e-05
3.053e-05
2.65664e-05
2.20858e-05
1.74892e-05
1.31655e-05
9.40415e-06
6.35961e-06
4.05859e-06
2.43273e-06
1.35967e-06
7.0034e-07
3.25437e-07
1.29948e-07
3.74234e-08
-2.4088e-09
-1.92839e-08
-2.87055e-08
-3.74128e-08
-4.74087e-08
-5.85653e-08
-7.00865e-08
-8.1206e-08
-9.14237e-08
-1.00523e-07
-1.08493e-07
-1.15448e-07
-1.2155e-07
-1.26972e-07
-1.31865e-07
-1.36358e-07
-1.40546e-07
-1.44504e-07
-1.48287e-07
-1.51932e-07
-1.55468e-07
-1.58916e-07
-1.62291e-07
-1.65604e-07
-1.68866e-07
-1.72082e-07
-1.7526e-07
-1.78403e-07
-1.81517e-07
-1.84603e-07
-1.87664e-07
-1.90703e-07
-1.9372e-07
-1.96717e-07
-1.99693e-07
-2.02649e-07
-2.05586e-07
-2.08502e-07
-2.11397e-07
-2.14272e-07
-2.17124e-07
-2.19953e-07
-2.22759e-07
-2.25541e-07
-2.28298e-07
-2.3103e-07
-2.33734e-07
-2.36413e-07
-2.39062e-07
-2.41684e-07
-2.44277e-07
-2.4684e-07
-2.49373e-07
-2.51875e-07
-2.54346e-07
-2.56785e-07
-2.59191e-07
-2.61565e-07
-2.63904e-07
-2.6621e-07
-2.68481e-07
-2.70717e-07
-2.72916e-07
-2.7508e-07
-2.77206e-07
-2.79295e-07
-2.81344e-07
-2.83355e-07
-2.85326e-07
-2.87257e-07
-2.89146e-07
-2.90993e-07
-2.92797e-07
-2.94558e-07
-2.96275e-07
-2.97946e-07
-2.99571e-07
-3.01149e-07
-3.02679e-07
-3.04161e-07
-3.05593e-07
-3.06975e-07
-3.08304e-07
-3.09582e-07
-3.10807e-07
-3.11977e-07
-3.13091e-07
-3.1415e-07
-3.15151e-07
-3.16094e-07
-3.16978e-07
-3.17801e-07
-3.18563e-07
-3.19264e-07
-3.199e-07
-3.20472e-07
-3.20979e-07
-3.2142e-07
-3.21793e-07
-3.22098e-07
-3.22333e-07
-3.22498e-07
-3.22592e-07
-3.22614e-07
-3.22562e-07
-3.22436e-07
-3.22236e-07
-3.21959e-07
-3.21606e-07
-3.21176e-07
-3.20667e-07
-3.20079e-07
-3.19411e-07
-3.18664e-07
-3.17835e-07
-3.16925e-07
-3.15933e-07
-3.14859e-07
-3.13702e-07
-3.12462e-07
-3.11138e-07
-3.09732e-07
-3.08241e-07
-3.06667e-07
-3.0501e-07
-3.03269e-07
-3.01445e-07
-2.99539e-07
-2.9755e-07
-2.95481e-07
-2.93329e-07
-2.91098e-07
-2.88788e-07
-2.86399e-07
-2.83934e-07
-2.81393e-07
-2.78777e-07
-2.7609e-07
-2.73331e-07
-2.70503e-07
-2.67608e-07
-2.64649e-07
-2.61627e-07
-2.58545e-07
-2.55406e-07
-2.52213e-07
-2.48968e-07
-2.45675e-07
-2.42338e-07
-2.3896e-07
-2.35543e-07
-2.32094e-07
-2.28615e-07
-2.25112e-07
-2.21588e-07
-2.18048e-07
-2.14496e-07
-2.1094e-07
-2.07382e-07
-2.03829e-07
-2.00286e-07
-1.9676e-07
-1.93255e-07
-1.89779e-07
-1.86337e-07
-1.82936e-07
-1.79582e-07
-1.76284e-07
-1.73046e-07
-1.69877e-07
-1.66784e-07
-1.63773e-07
-1.60854e-07
-1.58032e-07
-1.55317e-07
-1.52715e-07
-1.50235e-07
-1.47885e-07
-1.45672e-07
-1.43606e-07
-1.41693e-07
-1.39944e-07
-1.38365e-07
-1.36966e-07
-1.35753e-07
-1.34737e-07
-1.33925e-07
-1.33325e-07
-1.32946e-07
-1.32797e-07
-1.32884e-07
-1.33216e-07
-1.33801e-07
-1.34648e-07
-1.35763e-07
-1.37154e-07
-1.38829e-07
-1.40796e-07
-1.4306e-07
-1.45629e-07
-1.4851e-07
-1.5171e-07
-1.55233e-07
-1.59088e-07
-1.63278e-07
-1.6781e-07
-1.72689e-07
-1.7792e-07
-1.83507e-07
-1.89455e-07
-1.95766e-07
-2.02447e-07
-2.09498e-07
-2.16923e-07
-2.24725e-07
-2.32906e-07
-2.41467e-07
-2.5041e-07
-2.59736e-07
-2.69445e-07
-2.79537e-07
-2.90013e-07
-3.0087e-07
-3.1211e-07
-3.23729e-07
-3.35726e-07
-3.48098e-07
-3.60843e-07
-3.73958e-07
-3.87438e-07
-4.01281e-07
-4.15481e-07
-4.30033e-07
-4.44933e-07
-4.60175e-07
-4.75753e-07
-4.9166e-07
-5.0789e-07
-5.24436e-07
-5.4129e-07
-5.58444e-07
-5.75892e-07
-5.93623e-07
-6.11631e-07
-6.29904e-07
-6.48435e-07
-6.67214e-07
-6.86232e-07
-7.05477e-07
-7.24941e-07
-7.44613e-07
-7.64483e-07
-7.84539e-07
-8.04771e-07
-8.25168e-07
-8.4572e-07
-8.66415e-07
-8.87241e-07
-9.08188e-07
-9.29245e-07
-9.504e-07
-9.71642e-07
-9.9296e-07
-1.01434e-06
-1.03578e-06
-1.05725e-06
-1.07876e-06
-1.10029e-06
-1.12183e-06
-1.14337e-06
-1.1649e-06
-1.1864e-06
-1.20787e-06
-1.2293e-06
-1.25068e-06
-1.27199e-06
-1.29324e-06
-1.3144e-06
-1.33548e-06
-1.35646e-06
-1.37733e-06
-1.39809e-06
-1.41872e-06
-1.43923e-06
-1.4596e-06
-1.47983e-06
-1.4999e-06
-1.51982e-06
-1.53958e-06
-1.55917e-06
-1.57858e-06
-1.59782e-06
-1.61687e-06
-1.63574e-06
-1.65441e-06
-1.67289e-06
-1.69118e-06
-1.70922e-06
-1.72716e-06
-1.7447e-06
-1.76238e-06
-1.77921e-06
-1.79697e-06
-1.81253e-06
-1.8312e-06
-1.84427e-06
-1.86555e-06
-1.87387e-06
-1.90059e-06
-1.90084e-06
-1.93661e-06
-1.9252e-06
-1.97322e-06
-1.94772e-06