# vtk DataFile Version 2.0
FlowField
ASCII
DATASET STRUCTURED_GRID
DIMENSIONS 400 1 200
POINTS 80000 float
0 0 0
0.08 0 0
0.16 0 0
0.24 0 0
0.32 0 0
0.4 0 0
0.48 0 0
0.56 0 0
0.64 0 0
0.72 0 0
0.8 0 0
0.88 0 0
0.96 0 0
1.04 0 0
1.12 0 0
1.2 0 0
1.28 0 0
1.36 0 0
1.44 0 0
1.52 0 0
1.6 0 0
1.68 0 0
1.76 0 0
1.84 0 0
1.92 0 0
2 0 0
2.08 0 0
2.16 0 0
2.24 0 0
2.32 0 0
2.4 0 0
2.48 0 0
2.56 0 0
2.64 0 0
2.72 0 0
2.8 0 0
2.88 0 0
2.96 0 0
3.04 0 0
3.12 0 0
3.2 0 0
3.28 0 0
3.36 0 0
3.44 0 0
3.52 0 0
3.6 0 0
3.68 0 0
3.76 0 0
3.84 0 0
3.92 0 0
4 0 0
4.08 0 0
4.16 0 0
4.24 0 0
4.32 0 0
4.4 0 0
4.48 0 0
4.56 0 0
4.64 0 0
4.72 0 0
4.8 0 0
4.88 0 0
4.96 0 0
5.04 0 0
5.12 0 0
5.2 0 0
5.28 0 0
5.36 0 0
5.44 0 0
5.52 0 0
5.6 0 0
5.68 0 0
5.76 0 0
5.84 0 0
5.92 0 0
6 0 0
6.08 0 0
6.16 0 0
6.24 0 0
6.32 0 0
6.4 0 0
6.48 0 0
6.56 0 0
6.64 0 0
6.72 0 0
6.8 0 0
6.88 0 0
6.96 0 0
7.04 0 0
7.12 0 0
7.2 0 0
7.28 0 0
7.36 0 0
7.44 0 0
7.52 0 0
7.6 0 0
7.68 0 0
7.76 0 0
7.84 0 0
7.92 0 0
8 0 0
8.08 0 0
8.16 0 0
8.24 0 0
8.32 0 0
8.4 0 0
8.48 0 0
8.56 0 0
8.64 0 0
8.72 0 0
8.8 0 0
8.88 0 0
8.96 0 0
9.04 0 0
9.12 0 0
9.2 0 0
9.28 0 0
9.36 0 0
9.44 0 0
9.52 0 0
9.6 0 0
9.68 0 0
9.76 0 0
9.84 0 0
9.92 0 0
10 0 0
10.08 0 0
10.16 0 0
10.24 0 0
10.32 0 0
10.4 0 0
10.48 0 0
10.56 0 0
10.64 0 0
10.72 0 0
10.8 0 0
10.88 0 0
10.96 0 0
11.04 0 0
11.12 0 0
11.2 0 0
11.28 0 0
11.36 0 0
11.44 0 0
11.52 0 0
11.6 0 0
11.68 0 0
11.76 0 0
11.84 0 0
11.92 0 0
12 0 0
12.08 0 0
12.16 0 0
12.24 0 0
12.32 0 0
12.4 0 0
12.48 0 0
12.56 0 0
12.64 0 0
12.72 0 0
12.8 0 0
12.88 0 0
12.96 0 0
13.04 0 0
13.12 0 0
13.2 0 0
13.28 0 0
13.36 0 0
13.44 0 0
13.52 0 0
13.6 0 0
13.68 0 0
13.76 0 0
13.84 0 0
13.92 0 0
14 0 0
14.08 0 0
14.16 0 0
14.24 0 0
14.32 0 0
14.4 0 0
14.48 0 0
14.56 0 0
14.64 0 0
14.72 0 0
14.8 0 0
14.88 0 0
14.96 0 0
15.04 0 0
15.12 0 0
15.2 0 0
15.28 0 0
15.36 0 0
15.44 0 0
15.52 0 0
15.6 0 0
15.68 0 0
15.76 0 0
15.84 0 0
15.92 0 0
16 0 0
16.08 0 0
16.16 0 0
16.24 0 0
16.32 0 0
16.4 0 0
16.48 0 0
16.56 0 0
16.64 0 0
16.72 0 0
16.8 0 0
16.88 0 0
16.96 0 0
17.04 0 0
17.12 0 0
17.2 0 0
17.28 0 0
17.36 0 0
17.44 0 0
17.52 0 0
17.6 0 0
17.68 0 0
17.76 0 0
17.84 0 0
17.92 0 0
18 0 0
18.08 0 0
18.16 0 0
18.24 0 0
18.32 0 0
18.4 0 0
18.48 0 0
18.56 0 0
18.64 0 0
18.72 0 0
18.8 0 0
18.88 0 0
18.96 0 0
19.04 0 0
19.12 0 0
19.2 0 0
19.28 0 0
19.36 0 0
19.44 0 0
19.52 0 0
19.6 0 0
19.68 0 0
19.76 0 0
19.84 0 0
19.92 0 0
20 0 0
20.08 0 0
20.16 0 0
20.24 0 0
20.32 0 0
20.4 0 0
20.48 0 0
20.56 0 0
20.64 0 0
20.72 0 0
20.8 0 0
20.88 0 0
20.96 0 0
21.04 0 0
21.12 0 0
21.2 0 0
21.28 0 0
21.36 0 0
21.44 0 0
21.52 0 0
21.6 0 0
21.68 0 0
21.76 0 0
21.84 0 0
21.92 0 0
22 0 0
22.08 0 0
22.16 0 0
22.24 0 0
22.32 0 0
22.4 0 0
22.48 0 0
22.56 0 0
22.64 0 0
22.72 0 0
22.8 0 0
22.88 0 0
22.96 0 0
23.04 0 0
23.12 0 0
23.2 0 0
23.28 0 0
23.36 0 0
23.44 0 0
23.52 0 0
23.6 0 0
23.68 0 0
23.76 0 0
23.84 0 0
23.92 0 0
24 0 0
24.08 0 0
24.16 0 0
24.24 0 0
24.32 0 0
24.4 0 0
24.48 0 0
24.56 0 0
24.64 0 0
24.72 0 0
24.8 0 0
24.88 0 0
24.96 0 0
25.04 0 0
25.12 0 0
25.2 0 0
25.28 0 0
25.36 0 0
25.44 0 0
25.52 0 0
25.6 0 0
25.68 0 0
25.76 0 0
25.84 0 0
25.92 0 0
26 0 0
26.08 0 0
26.16 0 0
26.24 0 0
26.32 0 0
26.4 0 0
26.48 0 0
26.56 0 0
26.64 0 0
26.72 0 0
26.8 0 0
26.88 0 0
26.96 0 0
27.04 0 0
27.12 0 0
27.2 0 0
27.28 0 0
27.36 0 0
27.44 0 0
27.52 0 0
27.6 0 0
27.68 0 0
27.76 0 0
27.84 0 0
27.92 0 0
28 0 0
28.08 0 0
28.16 0 0
28.24 0 0
28.32 0 0
28.4 0 0
28.48 0 0
28.56 0 0
28.64 0 0
28.72 0 0
28.8 0 0
28.88 0 0
28.96 0 0
29.04 0 0
29.12 0 0
29.2 0 0
29.28 0 0
29.36 0 0
29.44 0 0
29.52 0 0
29.6 0 0
29.68 0 0
29.76 0 0
29.84 0 0
29.92 0 0
30 0 0
30.08 0 0
30.16 0 0
30.24 0 0
30.32 0 0
30.4 0 0
30.48 0 0
30.56 0 0
30.64 0 0
30.72 0 0
30.8 0 0
30.88 0 0
30.96 0 0
31.04 0 0
31.12 0 0
31.2 0 0
31.28 0 0
31.36 0 0
31.44 0 0
31.52 0 0
31.6 0 0
31.68 0 0
31.76 0 0
31.84 0 0
31.92 0 0
0 0.005 0
0.08 0.005 0
0.16 0.005 0
0.24 0.005 0
0.32 0.005 0
0.4 0.005 0
0.48 0.005 0
0.56 0.005 0
0.64 0.005 0
0.72 0.005 0
0.8 0.005 0
0.88 0.005 0
0.96 0.005 0
1.04 0.005 0
1.12 0.005 0
1.2 0.005 0
1.28 0.005 0
1.36 0.005 0
1.44 0.005 0
1.52 0.005 0
1.6 0.005 0
1.68 0.005 0
1.76 0.005 0
1.84 0.005 0
1.92 0.005 0
2 0.005 0
2.08 0.005 0
2.16 0.005 0
2.24 0.005 0
2.32 0.005 0
2.4 0.005 0
2.48 0.005 0
2.56 0.005 0
2.64 0.005 0
2.72 0.005 0
2.8 0.005 0
2.88 0.005 0
2.96 0.005 0
3.04 0.005 0
3.12 0.005 0
3.2 0.005 0
3.28 0.005 0
3.36 0.005 0
3.44 0.005 0
3.52 0.005 0
3.6 0.005 0
3.68 0.005 0
3.76 0.005 0
3.84 0.005 0
3.92 0.005 0
4 0.005 0
4.08 0.005 0
4.16 0.005 0
4.24 0.005 0
4.32 0.005 0
4.4 0.005 0
4.48 0.005 0
4.56 0.005 0
4.64 0.005 0
4.72 0.005 0
4.8 0.005 0
4.88 0.005 0
4.96 0.005 0
5.04 0.005 0
5.12 0.005 0
5.2 0.005 0
5.28 0.005 0
5.36 0.005 0
5.44 0.005 0
5.52 0.005 0
5.6 0.005 0
5.68 0.005 0
5.76 0.005 0
5.84 0.005 0
5.92 0.005 0
6 0.005 0
6.08 0.005 0
6.16 0.005 0
6.24 0.005 0
6.32 0.005 0
6.4 0.005 0
6.48 0.005 0
6.56 0.005 0
6.64 0.005 0
6.72 0.005 0
6.8 0.005 0
6.88 0.005 0
6.96 0.005 0
7.04 0.005 0
7.12 0.005 0
7.2 0.005 0
7.28 0.005 0
7.36 0.005 0
7.44 0.005 0
7.52 0.005 0
7.6 0.005 0
7.68 0.005 0
7.76 0.005 0
7.84 0.005 0
7.92 0.005 0
8 0.005 0
8.08 0.005 0
8.16 0.005 0
8.24 0.005 0
8.32 0.005 0
8.4 0.005 0
8.48 0.005 0
8.56 0.005 0
8.64 0.005 0
8.72 0.005 0
8.8 0.005 0
8.88 0.005 0
8.96 0.005 0
9.04 0.005 0
9.12 0.005 0
9.2 0.005 0
9.28 0.005 0
9.36 0.005 0
9.44 0.005 0
9.52 0.005 0
9.6 0.005 0
9.68 0.005 0
9.76 0.005 0
9.84 0.005 0
9.92 0.005 0
10 0.005 0
10.08 0.005 0
10.16 0.005 0
10.24 0.005 0
10.32 0.005 0
10.4 0.005 0
10.48 0.005 0
10.56 0.005 0
10.64 0.005 0
10.72 0.005 0
10.8 0.005 0
10.88 0.005 0
10.96 0.005 0
11.04 0.005 0
11.12 0.005 0
11.2 0.005 0
11.28 0.005 0
11.36 0.005 0
11.44 0.005 0
11.52 0.005 0
11.6 0.005 0
11.68 0.005 0
11.76 0.005 0
11.84 0.005 0
11.92 0.005 0
12 0.005 0
12.08 0.005 0
12.16 0.005 0
12.24 0.005 0
12.32 0.005 0
12.4 0.005 0
12.48 0.005 0
12.56 0.005 0
12.64 0.005 0
12.72 0.005 0
12.8 0.005 0
12.88 0.005 0
12.96 0.005 0
13.04 0.005 0
13.12 0.005 0
13.2 0.005 0
13.28 0.005 0
13.36 0.005 0
13.44 0.005 0
13.52 0.005 0
13.6 0.005 0
13.68 0.005 0
13.76 0.005 0
13.84 0.005 0
13.92 0.005 0
14 0.005 0
14.08 0.005 0
14.16 0.005 0
14.24 0.005 0
14.32 0.005 0
14.4 0.005 0
14.48 0.005 0
14.56 0.005 0
14.64 0.005 0
14.72 0.005 0
14.8 0.005 0
14.88 0.005 0
14.96 0.005 0
15.04 0.005 0
15.12 0.005 0
15.2 0.005 0
15.28 0.005 0
15.36 0.005 0
15.44 0.005 0
15.52 0.005 0
15.6 0.005 0
15.68 0.005 0
15.76 0.005 0
15.84 0.005 0
15.92 0.005 0
16 0.005 0
16.08 0.005 0
16.16 0.005 0
16.24 0.005 0
16.32 0.005 0
16.4 0.005 0
16.48 0.005 0
16.56 0.005 0
16.64 0.005 0
16.72 0.005 0
16.8 0.005 0
16.88 0.005 0
16.96 0.005 0
17.04 0.005 0
17.12 0.005 0
17.2 0.005 0
17.28 0.005 0
17.36 0.005 0
17.44 0.005 0
17.52 0.005 0
17.6 0.005 0
17.68 0.005 0
17.76 0.005 0
17.84 0.005 0
17.92 0.005 0
18 0.005 0
18.08 0.005 0
18.16 0.005 0
18.24 0.005 0
18.32 0.005 0
18.4 0.005 0
18.48 0.005 0
18.56 0.005 0
18.64 0.005 0
18.72 0.005 0
18.8 0.005 0
18.88 0.005 0
18.96 0.005 0
19.04 0.005 0
19.12 0.005 0
19.2 0.005 0
19.28 0.005 0
19.36 0.005 0
19.44 0.005 0
19.52 0.005 0
19.6 0.005 0
19.68 0.005 0
19.76 0.005 0
19.84 0.005 0
19.92 0.005 0
20 0.005 0
20.08 0.005 0
20.16 0.005 0
20.24 0.005 0
20.32 0.005 0
20.4 0.005 0
20.48 0.005 0
20.56 0.005 0
20.64 0.005 0
20.72 0.005 0
20.8 0.005 0
20.88 0.005 0
20.96 0.005 0
21.04 0.005 0
21.12 0.005 0
21.2 0.005 0
21.28 0.005 0
21.36 0.005 0
21.44 0.005 0
21.52 0.005 0
21.6 0.005 0
21.68 0.005 0
21.76 0.005 0
21.84 0.005 0
21.92 0.005 0
22 0.005 0
22.08 0.005 0
22.16 0.005 0
22.24 0.005 0
22.32 0.005 0
22.4 0.005 0
22.48 0.005 0
22.56 0.005 0
22.64 0.005 0
22.72 0.005 0
22.8 0.005 0
22.88 0.005 0
22.96 0.005 0
23.04 0.005 0
23.12 0.005 0
23.2 0.005 0
23.28 0.005 0
23.36 0.005 0
23.44 0.005 0
23.52 0.005 0
23.6 0.005 0
23.68 0.005 0
23.76 0.005 0
23.84 0.005 0
23.92 0.005 0
24 0.005 0
24.08 0.005 0
24.16 0.005 0
24.24 0.005 0
24.32 0.005 0
24.4 0.005 0
24.48 0.005 0
24.56 0.005 0
24.64 0.005 0
24.72 0.005 0
24.8 0.005 0
24.88 0.005 0
24.96 0.005 0
25.04 0.005 0
25.12 0.005 0
25.2 0.005 0
25.28 0.005 0
25.36 0.005 0
25.44 0.005 0
25.52 0.005 0
25.6 0.005 0
25.68 0.005 0
25.76 0.005 0
25.84 0.005 0
25.92 0.005 0
26 0.005 0
26.08 0.005 0
26.16 0.005 0
26.24 0.005 0
26.32 0.005 0
26.4 0.005 0
26.48 0.005 0
26.56 0.005 0
26.64 0.005 0
26.72 0.005 0
26.8 0.005 0
26.88 0.005 0
26.96 0.005 0
27.04 0.005 0
27.12 0.005 0
27.2 0.005 0
27.28 0.005 0
27.36 0.005 0
27.44 0.005 0
27.52 0.005 0
27.6 0.005 0
27.68 0.005 0
27.76 0.005 0
27.84 0.005 0
27.92 0.005 0
28 0.005 0
28.08 0.005 0
28.16 0.005 0
28.24 0.005 0
28.32 0.005 0
28.4 0.005 0
28.48 0.005 0
28.56 0.005 0
28.64 0.005 0
28.72 0.005 0
28.8 0.005 0
28.88 0.005 0
28.96 0.005 0
29.04 0.005 0
29.12 0.005 0
29.2 0.005 0
29.28 0.005 0
29.36 0.005 0
29.44 0.005 0
29.52 0.005 0
29.6 0.005 0
29.68 0.005 0
29.76 0.005 0
29.84 0.005 0
29.92 0.005 0
30 0.005 0
30.08 0.005 0
30.16 0.005 0
30.24 0.005 0
30.32 0.005 0
30.4 0.005 0
30.48 0.005 0
30.56 0.005 0
30.64 0.005 0
30.72 0.005 0
30.8 0.005 0
30.88 0.005 0
30.96 0.005 0
31.04 0.005 0
31.12 0.005 0
31.2 0.005 0
31.28 0.005 0
31.36 0.005 0
31.44 0.005 0
31.52 0.005 0
31.6 0.005 0
31.68 0.005 0
31.76 0.005 0
31.84 0.005 0
31.92 0.005 0
0 0.01 0
0.08 0.01 0
0.16 0.01 0
0.24 0.01 0
0.32 0.01 0
0.4 0.01 0
0.48 0.01 0
0.56 0.01 0
0.64 0.01 0
0.72 0.01 0
0.8 0.01 0
0.88 0.01 0
0.96 0.01 0
1.04 0.01 0
1.12 0.01 0
1.2 0.01 0
1.28 0.01 0
1.36 0.01 0
1.44 0.01 0
1.52 0.01 0
1.6 0.01 0
1.68 0.01 0
1.76 0.01 0
1.84 0.01 0
1.92 0.01 0
2 0.01 0
2.08 0.01 0
2.16 0.01 0
2.24 0.01 0
2.32 0.01 0
2.4 0.01 0
2.48 0.01 0
2.56 0.01 0
2.64 0.01 0
2.72 0.01 0
2.8 0.01 0
2.88 0.01 0
2.96 0.01 0
3.04 0.01 0
3.12 0.01 0
3.2 0.01 0
3.28 0.01 0
3.36 0.01 0
3.44 0.01 0
3.52 0.01 0
3.6 0.01 0
3.68 0.01 0
3.76 0.01 0
3.84 0.01 0
3.92 0.01 0
4 0.01 0
4.08 0.01 0
4.16 0.01 0
4.24 0.01 0
4.32 0.01 0
4.4 0.01 0
4.48 0.01 0
4.56 0.01 0
4.64 0.01 0
4.72 0.01 0
4.8 0.01 0
4.88 0.01 0
4.96 0.01 0
5.04 0.01 0
5.12 0.01 0
[...]
POINT_DATA 80000

SCALARS u float 1
LOOKUP_TABLE default
0
-0.131663
-0.0682701
-0.0522971
-0.0444212
-0.0395783
-0.0362614
-0.0338345
-0.0319747
-0.0304982
-0.0292923
-0.0282843
-0.027425
-0.0266808
-0.0260273
-0.0254471
-0.0249268
-0.0244567
-0.0240292
-0.0236385
-0.0232796
-0.0229485
-0.0226418
-0.0223571
-0.0220927
-0.0218472
-0.021619
-0.0214061
-0.0212068
-0.0210207
-0.0208481
-0.02069
-0.0205475
-0.0204204
-0.0203078
-0.0202083
-0.0201202
-0.0200427
-0.0199751
-0.0199169
-0.0198671
-0.0198243
-0.0197866
-0.0197524
-0.0197201
-0.0196892
-0.0196595
-0.0196317
-0.0196064
-0.0195844
-0.0195662
-0.0195519
-0.0195413
-0.0195339
-0.0195292
-0.0195266
-0.0195254
-0.0195253
-0.0195258
-0.0195267
-0.0195278
-0.019529
-0.0195303
-0.0195316
-0.019533
-0.0195343
-0.0195357
-0.0195371
-0.0195385
-0.0195399
-0.0195413
-0.0195427
-0.0195441
-0.0195456
-0.019547
-0.0195484
-0.0195498
-0.0195513
-0.0195527
-0.0195542
-0.0195556
-0.019557
-0.0195585
-0.0195599
-0.0195614
-0.0195628
-0.0195643
-0.0195657
-0.0195671
-0.0195686
-0.01957
-0.0195715
-0.0195729
-0.0195744
-0.0195759
-0.0195773
-0.0195788
-0.0195802
-0.0195817
-0.0195831
-0.0195846
-0.0195861
-0.0195875
-0.019589
-0.0195905
-0.0195919
-0.0195934
-0.0195949
-0.0195963
-0.0195978
-0.0195993
-0.0196007
-0.0196022
-0.0196037
-0.0196052
-0.0196067
-0.0196081
-0.0196096
-0.0196111
-0.0196126
-0.0196141
-0.0196155
-0.019617
-0.0196185
-0.01962
-0.0196215
-0.019623
-0.0196245
-0.019626
-0.0196274
-0.0196289
-0.0196304
-0.0196319
-0.0196334
-0.0196349
-0.0196364
-0.0196379
-0.0196394
-0.0196409
-0.0196424
-0.0196439
-0.0196454
-0.0196469
-0.0196484
-0.0196499
-0.0196514
-0.019653
-0.0196545
-0.019656
-0.0196575
-0.019659
-0.0196605
-0.019662
-0.0196635
-0.019665
-0.0196666
-0.0196681
-0.0196696
-0.0196711
-0.0196726
-0.0196741
-0.0196757
-0.0196772
-0.0196787
-0.0196802
-0.0196818
-0.0196833
-0.0196848
-0.0196863
-0.0196879
-0.0196894
-0.0196909
-0.0196924
-0.019694
-0.0196955
-0.019697
-0.0196986
-0.0197001
-0.0197016
-0.0197031
-0.0197047
-0.0197062
-0.0197077
-0.0197093
-0.0197108
-0.0197123
-0.0197139
-0.0197154
-0.019717
-0.0197185
-0.01972
-0.0197216
-0.0197231
-0.0197246
-0.0197262
-0.0197277
-0.0197293
-0.0197308
-0.0197323
-0.0197339
-0.0197354
-0.019737
-0.0197385
-0.0197401
-0.0197416
-0.0197431
-0.0197447
-0.0197462
-0.0197478
-0.0197493
-0.0197509
-0.0197524
-0.019754
-0.0197555
-0.0197571
-0.0197586
-0.0197602
-0.0197617
-0.0197632
-0.0197648
-0.0197663
-0.0197679
-0.0197695
-0.019771
-0.0197726
-0.0197741
-0.0197757
-0.0197772
-0.0197788
-0.0197803
-0.0197819
-0.0197834
-0.019785
-0.0197866
-0.0197881
-0.0197897
-0.0197912
-0.0197928
-0.0197944
-0.0197959
-0.0197975
-0.019799
-0.0198006
-0.0198022
-0.0198037
-0.0198053
-0.0198069
-0.0198085
-0.01981
-0.0198116
-0.0198132
-0.0198147
-0.0198163
-0.0198179
-0.0198195
-0.0198211
-0.0198226
-0.0198242
-0.0198258
-0.0198274
-0.019829
-0.0198306
-0.0198322
-0.0198337
-0.0198353
-0.0198369
-0.0198385
-0.0198401
-0.0198417
-0.0198433
-0.0198449
-0.0198465
-0.0198481
-0.0198497
-0.0198513
-0.0198529
-0.0198546
-0.0198562
-0.0198578
-0.0198594
-0.019861
-0.0198626
-0.0198643
-0.0198659
-0.0198675
-0.0198691
-0.0198708
-0.0198724
-0.019874
-0.0198757
-0.0198773
-0.0198789
-0.0198806
-0.0198822
-0.0198839
-0.0198855
-0.0198871
-0.0198888
-0.0198904
-0.0198921
-0.0198938
-0.0198954
-0.0198971
-0.0198987
-0.0199004
-0.0199021
-0.0199037
-0.0199054
-0.0199071
-0.0199087
-0.0199104
-0.0199121
-0.0199138
-0.0199154
-0.0199171
-0.0199188
-0.0199205
-0.0199222
-0.0199239
-0.0199256
-0.0199272
-0.0199289
-0.0199306
-0.0199323
-0.019934
-0.0199357
-0.0199374
-0.0199391
-0.0199408
-0.0199426
-0.0199443
-0.019946
-0.0199477
-0.0199494
-0.0199511
-0.0199528
-0.0199545
-0.0199563
-0.019958
-0.0199597
-0.0199614
-0.0199632
-0.0199649
-0.0199666
-0.0199683
-0.0199701
-0.0199718
-0.0199735
-0.0199753
-0.019977
-0.0199788
-0.0199805
-0.0199822
-0.019984
-0.0199857
-0.0199875
-0.0199892
-0.019991
-0.0199927
-0.0199945
-0.0199962
-0.019998
-0.0199997
-0.0200015
-0.0200032
-0.020005
-0.0200068
-0.0200085
-0.0200103
-0.0200121
-0.0200138
-0.0200156
-0.0200173
-0.0200191
-0.0200209
-0.0200227
-0.0200244
-0.0200262
-0.0200279
-0.0200298
-0.0200315
-0.0200333
-0.020035
-0.0200369
-0.0200386
-0.0200405
-0.0200422
-0.020044
-0.0200457
-0.0200476
-0.0200494
-0.0200512
-0.020053
-0.0200547
-0.0200569
-0.020058
-0.0200611
-0.0200582
-0.0200582
-0.0200582
1
0.131663
0.0682701
0.0522971
0.0444212
0.0395783
0.0362614
0.0338345
0.0319747
0.0304982
0.0292923
0.0282843
0.027425
0.0266808
0.0260273
0.0254471
0.0249268
0.0244567
0.0240292
0.0236385
0.0232796
0.0229485
0.0226418
0.0223571
0.0220927
0.0218472
0.021619
0.0214061
0.0212068
0.0210207
0.0208481
0.02069
0.0205475
0.0204204
0.0203078
0.0202083
0.0201202
0.0200427
0.0199751
0.0199169
0.0198671
0.0198243
0.0197866
0.0197524
0.0197201
0.0196892
0.0196595
0.0196317
0.0196064
0.0195844
0.0195662
0.0195519
0.0195413
0.0195339
0.0195292
0.0195266
0.0195254
0.0195253
0.0195258
0.0195267
0.0195278
0.019529
0.0195303
0.0195316
0.019533
0.0195343
0.0195357
0.0195371
0.0195385
0.0195399
0.0195413
0.0195427
0.0195441
0.0195456
0.019547
0.0195484
0.0195498
0.0195513
0.0195527
0.0195542
0.0195556
0.019557
0.0195585
0.0195599
0.0195614
0.0195628
0.0195643
0.0195657
0.0195671
0.0195686
0.01957
0.0195715
0.0195729
0.0195744
0.0195759
0.0195773
0.0195788
0.0195802
0.0195817
0.0195831
0.0195846
0.0195861
0.0195875
0.019589
0.0195905
0.0195919
0.0195934
0.0195949
0.0195963
0.0195978
0.0195993
0.0196007
0.0196022
0.0196037
0.0196052
0.0196067
0.0196081
0.0196096
0.0196111
0.0196126
0.0196141
0.0196155
0.019617
0.0196185
0.01962
0.0196215
0.019623
0.0196245
0.019626
0.0196274
0.0196289
0.0196304
0.0196319
0.0196334
0.0196349
0.0196364
0.0196379
0.0196394
0.0196409
0.0196424
0.0196439
0.0196454
0.0196469
0.0196484
0.0196499
0.0196514
0.019653
0.0196545
0.019656
0.0196575
0.019659
0.0196605
0.019662
0.0196635
0.019665
0.0196666
0.0196681
0.0196696
0.0196711
0.0196726
0.0196741
0.0196757
0.0196772
0.0196787
0.0196802
0.0196818
0.0196833
0.0196848
0.0196863
0.0196879
0.0196894
0.0196909
0.0196924
0.019694
0.0196955
0.019697
0.0196986
0.0197001
0.0197016
0.0197031
0.0197047
0.0197062
0.0197077
0.0197093
0.0197108
0.0197123
0.0197139
0.0197154
0.019717
0.0197185
0.01972
0.0197216
0.0197231
0.0197246
0.0197262
0.0197277
0.0197293
0.0197308
0.0197323
0.0197339
0.0197354
0.019737
0.0197385
0.0197401
0.0197416
0.0197431
0.0197447
0.0197462
0.0197478
0.0197493
0.0197509
0.0197524
0.019754
0.0197555
0.0197571
0.0197586
0.0197602
0.0197617
0.0197632
0.0197648
0.0197663
0.0197679
0.0197695
0.019771
0.0197726
0.0197741
0.0197757
0.0197772
0.0197788
0.0197803
0.0197819
0.0197834
0.019785
0.0197866
0.0197881
0.0197897
0.0197912
0.0197928
0.0197944
0.0197959
0.0197975
0.019799
0.0198006
0.0198022
0.0198037
0.0198053
0.0198069
0.0198085
0.01981
0.0198116
0.0198132
0.0198147
0.0198163
0.0198179
0.0198195
0.0198211
0.0198226
0.0198242
0.0198258
0.0198274
0.019829
0.0198306
0.0198322
0.0198337
0.0198353
0.0198369
0.0198385
0.0198401
0.0198417
0.0198433
0.0198449
0.0198465
0.0198481
0.0198497
0.0198513
0.0198529
0.0198546
0.0198562
0.0198578
0.0198594
0.019861
0.0198626
0.0198643
0.0198659
0.0198675
0.0198691
0.0198708
0.0198724
0.019874
0.0198757
0.0198773
0.0198789
0.0198806
0.0198822
0.0198839
0.0198855
0.0198871
0.0198888
0.0198904
0.0198921
0.0198938
0.0198954
0.0198971
0.0198987
0.0199004
0.0199021
0.0199037
0.0199054
0.0199071
0.0199087
0.0199104
0.0199121
0.0199138
0.0199154
0.0199171
0.0199188
0.0199205
0.0199222
0.0199239
0.0199256
0.0199272
0.0199289
0.0199306
0.0199323
0.019934
0.0199357
0.0199374
0.0199391
0.0199408
0.0199426
0.0199443
0.019946
0.0199477
0.0199494
0.0199511
0.0199528
0.0199545
0.0199563
0.019958
0.0199597
0.0199614
0.0199632
0.0199649
0.0199666
0.0199683
0.0199701
0.0199718
0.0199735
0.0199753
0.019977
0.0199788
0.0199805
0.0199822
0.019984
0.0199857
0.0199875
0.0199892
0.019991
0.0199927
0.0199945
0.0199962
0.019998
0.0199997
0.0200015
0.0200032
0.020005
0.0200068
0.0200085
0.0200103
0.0200121
0.0200138
0.0200156
0.0200173
0.0200191
0.0200209
0.0200227
0.0200244
0.0200262
0.0200279
0.0200298
0.0200315
0.0200333
0.020035
0.0200369
0.0200386
0.0200405
0.0200422
0.020044
0.0200457
0.0200476
0.0200494
0.0200512
0.020053
0.0200547
0.0200569
0.020058
0.0200611
0.0200582
0.0200582
0.0200582
1
0.344885
0.20067
0.15497
0.131898
0.117603
0.107773
0.100563
0.0950309
0.0906356
0.0870451
0.0840439
0.0814867
0.0792727
0.0773299
0.0756056
0.0740605
0.0726651
0.0713969
0.0702383
0.0691746
0.0681936
0.0672853
0.066443
0.0656614
0.064936
0.0642618
0.0636332
0.0630461
0.062499
0.0619933
0.0615317
0.0611164
0.0607467
0.0604197
0.0601311
0.0598765
0.059653
0.0594584
0.0592906
0.0591464
0.0590217
0.0589112
0.0588101
0.0587151
0.0586244
0.0585386
0.058459
0.0583879
0.0583269
0.058277
0.0582384
0.0582102
0.058191
0.0581791
0.0581727
0.0581703
0.0581705
0.0581724
0.0581753
0.0581787
0.0581824
0.0581863
0.0581903
0.0581944
0.0581984
0.0582025
0.0582067
0.0582108
0.058215
0.0582192
0.0582235
0.0582277
0.058232
0.0582362
0.0582405
0.0582448
0.0582491
0.0582534
0.0582576
0.0582619
0.0582662
0.0582705
0.0582749
0.0582792
0.0582835
0.0582878
0.0582921
0.0582964
0.0583008
0.0583051
0.0583094
0.0583138
0.0583181
0.0583225
0.0583268
0.0583312
0.0583355
0.0583399
0.0583442
0.0583486
0.058353
0.0583573
0.0583617
0.0583661
0.0583705
0.0583749
0.0583792
0.0583836
0.058388
0.0583924
0.0583968
0.0584012
0.0584056
0.0584101
0.0584145
0.0584189
0.0584233
0.0584277
0.0584322
0.0584366
0.058441
0.0584455
0.0584499
0.0584543
0.0584588
0.0584632
0.0584677
0.0584721
0.0584766
0.058481
0.0584855
0.05849
0.0584944
0.0584989
0.0585034
0.0585079
0.0585124
0.0585168
0.0585213
0.0585258
0.0585303
0.0585348
0.0585393
0.0585438
0.0585483
0.0585528
0.0585573
0.0585618
0.0585664
0.0585709
0.0585754
0.0585799
0.0585845
0.058589
0.0585935
0.0585981
0.0586026
0.0586071
0.0586117
0.0586162
0.0586208
0.0586253
0.0586299
0.0586344
0.058639
0.0586435
0.0586481
0.0586527
0.0586572
0.0586618
0.0586664
0.0586709
0.0586755
0.0586801
0.0586847
0.0586893
0.0586938
0.0586984
0.058703
0.0587076
0.0587122
0.0587168
0.0587214
0.058726
0.0587306
0.0587352
0.0587398
0.0587444
0.058749
0.0587536
0.0587582
0.0587628
0.0587674
0.0587721
0.0587767
0.0587813
0.0587859
0.0587905
0.0587952
0.0587998
0.0588044
0.058809
0.0588137
0.0588183
0.0588229
0.0588276
0.0588322
0.0588368
0.0588415
0.0588461
0.0588508
0.0588554
0.05886
0.0588647
0.0588693
0.058874
0.0588786
0.0588833
0.058888
0.0588926
0.0588973
0.0589019
0.0589066
0.0589113
0.0589159
0.0589206
0.0589253
0.0589299
0.0589346
0.0589393
0.0589439
0.0589486
0.0589533
0.058958
0.0589627
0.0589674
0.058972
0.0589767
0.0589814
0.0589861
0.0589908
0.0589955
0.0590002
0.0590049
0.0590096
0.0590144
0.0590191
0.0590238
0.0590285
0.0590332
0.059038
0.0590427
0.0590474
0.0590522
0.0590569
0.0590616
0.0590664
0.0590711
0.0590759
0.0590806
0.0590854
0.0590902
0.0590949
0.0590997
0.0591045
0.0591093
0.059114
0.0591188
0.0591236
0.0591284
0.0591332
0.059138
0.0591428
0.0591476
0.0591525
0.0591573
0.0591621
0.0591669
0.0591718
0.0591766
0.0591815
0.0591863
0.0591912
0.059196
0.0592009
0.0592058
0.0592106
0.0592155
0.0592204
0.0592253
0.0592302
0.0592351
0.05924
0.0592449
0.0592498
0.0592548
0.0592597
0.0592646
0.0592696
0.0592745
0.0592794
0.0592844
0.0592894
0.0592943
0.0592993
0.0593043
0.0593093
0.0593142
0.0593192
0.0593242
0.0593292
0.0593342
0.0593393
0.0593443
0.0593493
0.0593543
0.0593594
0.0593644
0.0593694
0.0593745
0.0593795
0.0593846
0.0593897
0.0593947
0.0593998
0.0594049
0.05941
0.0594151
0.0594202
0.0594253
0.0594304
0.0594355
0.0594406
0.0594457
0.0594509
0.059456
0.0594611
0.0594663
0.0594714
0.0594766
0.0594817
0.0594869
0.059492
0.0594972
0.0595024
0.0595076
0.0595128
0.0595179
0.0595231
0.0595283
0.0595335
0.0595387
0.0595439
0.0595492
0.0595544
0.0595596
0.0595648
0.0595701
0.0595753
0.0595805
0.0595858
0.059591
0.0595963
0.0596016
0.0596068
0.0596121
0.0596174
0.0596226
0.059628
0.0596332
0.0596385
0.0596438
0.0596491
0.0596544
0.0596597
0.059665
0.0596704
0.0596756
0.059681
0.0596863
0.0596917
0.0596969
0.0597024
0.0597076
0.0597131
0.0597183
0.0597239
0.059729
0.0597347
0.0597399
0.0597454
0.059751
0.0597561
0.0597625
0.0597662
0.0597748
0.059768
0.059768
0.059768
1
0.518768
0.327405
0.255352
0.217855
0.194411
0.17822
0.166316
0.157168
0.149894
0.143951
0.138982
0.13475
0.131086
0.127873
0.125022
0.122469
0.120164
0.11807
0.116157
0.114402
0.112783
0.111286
0.109897
0.10861
0.107416
0.106306
0.105272
0.104307
0.10341
0.102582
0.101829
0.101152
0.10055
0.100018
0.0995494
0.0991368
0.0987751
0.0984606
0.0981891
0.097955
0.0977513
0.0975698
0.0974034
0.0972471
0.097099
0.0969599
0.0968324
0.0967195
0.0966238
0.0965464
0.0964871
0.0964444
0.0964157
0.0963983
0.0963894
0.0963864
0.0963875
0.096391
0.096396
0.0964019
0.0964082
0.0964147
0.0964213
0.096428
0.0964348
0.0964416
0.0964485
0.0964554
0.0964623
0.0964693
0.0964764
0.0964834
0.0964905
0.0964975
0.0965046
0.0965117
0.0965188
0.0965259
0.0965331
0.0965402
0.0965473
0.0965545
0.0965616
0.0965688
0.0965759
0.0965831
0.0965902
0.0965974
0.0966046
0.0966118
0.096619
0.0966262
0.0966334
0.0966406
0.0966478
0.096655
0.0966622
0.0966695
0.0966767
0.0966839
0.0966912
0.0966984
0.0967057
0.096713
0.0967202
0.0967275
0.0967348
0.0967421
0.0967493
0.0967566
0.0967639
0.0967712
0.0967786
0.0967859
0.0967932
0.0968005
0.0968078
0.0968152
0.0968225
0.0968299
0.0968372
0.0968446
0.096852
0.0968593
0.0968667
0.0968741
0.0968815
0.0968888
0.0968962
0.0969036
0.096911
0.0969185
0.0969259
0.0969333
0.0969407
0.0969481
0.0969556
0.096963
0.0969705
0.0969779
0.0969854
0.0969928
0.0970003
0.0970078
0.0970152
0.0970227
0.0970302
0.0970377
0.0970452
0.0970527
0.0970602
0.0970677
0.0970752
0.0970827
0.0970903
0.0970978
0.0971053
0.0971128
0.0971204
0.0971279
0.0971355
0.097143
0.0971506
0.0971581
0.0971657
0.0971733
0.0971809
0.0971884
0.097196
0.0972036
0.0972112
0.0972188
0.0972264
0.097234
0.0972416
0.0972492
0.0972568
0.0972644
0.0972721
0.0972797
0.0972873
0.0972949
0.0973026
0.0973102
0.0973179
0.0973255
0.0973332
0.0973408
0.0973485
0.0973561
0.0973638
0.0973715
0.0973791
0.0973868
0.0973945
0.0974022
0.0974098
0.0974175
0.0974252
0.0974329
0.0974406
0.0974483
0.097456
0.0974637
0.0974714
0.0974791
0.0974868
0.0974945
0.0975023
0.09751
0.0975177
0.0975254
0.0975332
0.0975409
0.0975486
0.0975564
0.0975641
0.0975718
0.0975796
0.0975873
0.0975951
0.0976029
0.0976106
0.0976184
0.0976261
0.0976339
0.0976417
0.0976495
0.0976572
0.097665
0.0976728
0.0976806
0.0976884
0.0976962
0.097704
0.0977118
0.0977196
0.0977274
0.0977352
0.097743
0.0977509
0.0977587
0.0977665
0.0977744
0.0977822
0.09779
0.0977979
0.0978057
0.0978136
0.0978215
0.0978293
0.0978372
0.0978451
0.097853
0.0978608
0.0978687
0.0978766
0.0978845
0.0978924
0.0979004
0.0979083
0.0979162
0.0979241
0.0979321
0.09794
0.097948
0.0979559
0.0979639
0.0979719
0.0979798
0.0979878
0.0979958
0.0980038
0.0980118
0.0980198
0.0980278
0.0980358
0.0980439
0.0980519
0.09806
0.098068
0.0980761
0.0980841
0.0980922
0.0981003
0.0981084
0.0981165
0.0981246
0.0981327
0.0981408
0.098149
0.0981571
0.0981653
0.0981734
0.0981816
0.0981897
0.0981979
0.0982061
0.0982143
0.0982225
0.0982307
0.0982389
0.0982472
0.0982554
0.0982637
0.0982719
0.0982802
0.0982885
0.0982967
0.098305
0.0983133
0.0983216
0.09833
0.0983383
0.0983466
0.098355
0.0983633
0.0983717
0.09838
0.0983884
0.0983968
0.0984052
0.0984136
0.098422
0.0984304
0.0984389
0.0984473
0.0984558
0.0984642
0.0984727
0.0984811
0.0984896
0.0984981
0.0985066
0.0985151
0.0985236
0.0985322
0.0985407
0.0985492
0.0985578
0.0985663
0.0985749
0.0985835
0.098592
0.0986006
0.0986092
0.0986178
0.0986264
0.0986351
0.0986437
0.0986523
0.098661
0.0986696
0.0986783
0.098687
0.0986956
0.0987043
0.098713
0.0987217
0.0987304
0.0987392
0.0987479
0.0987566
0.0987653
0.0987741
0.0987828
0.0987916
0.0988004
0.0988092
0.0988179
0.0988268
0.0988355
0.0988444
0.0988532
0.0988621
0.0988708
0.0988798
0.0988885
0.0988975
0.0989062
0.0989153
0.098924
0.0989331
0.0989418
0.098951
0.0989596
0.0989689
0.0989775
0.0989868
0.0989956
0.0990048
0.099014
0.0990226
0.0990331
0.0990396
0.0990533
0.0990444
0.0990444
0.0990444
1
0.66089
0.446899
0.352884
0.302037
0.269859
0.247511
0.23103
0.21834
0.20824
0.199982
0.193078
0.187196
0.182107
0.177644
0.173686
0.170142
0.166943
0.164039
0.161387
0.158954
0.156711
0.154637
0.152715
0.150933
0.149281
0.147745
0.146316
0.144984
0.143747
0.142609
0.141574
0.140646
0.139821
0.139093
0.138452
0.137889
0.137396
0.136967
0.136597
0.136277
0.135996
0.135745
0.135515
0.135299
0.135095
0.134906
0.134733
0.134583
0.134456
0.134354
0.134277
0.134223
0.134186
0.134165
0.134154
0.134151
0.134154
0.134159
0.134166
0.134175
0.134183
0.134193
0.134202
0.134211
0.134221
0.13423
0.13424
0.134249
0.134259
0.134269
0.134279
0.134288
0.134298
0.134308
0.134318
0.134328
0.134338
0.134348
0.134358
0.134367
0.134377
0.134387
0.134397
0.134407
0.134417
0.134427
0.134437
0.134447
0.134457
0.134467
0.134477
0.134487
0.134497
0.134507
0.134517
0.134527
0.134537
0.134547
0.134557
0.134568
0.134578
0.134588
0.134598
0.134608
0.134618
0.134628
0.134638
0.134648
0.134659
0.134669
0.134679
0.134689
0.134699
0.134709
0.13472
0.13473
0.13474
0.13475
0.13476
0.134771
0.134781
0.134791
0.134801
0.134812
0.134822
0.134832
0.134842
0.134853
0.134863
0.134873
0.134884
0.134894
0.134904
0.134915
0.134925
0.134935
0.134946
0.134956
0.134966
0.134977
0.134987
0.134997
0.135008
0.135018
0.135029
0.135039
0.135049
0.13506
0.13507
0.135081
0.135091
0.135102
0.135112
0.135123
0.135133
0.135144
0.135154
0.135165
0.135175
0.135186
0.135196
0.135207
0.135217
0.135228
0.135238
0.135249
0.135259
0.13527
0.13528
0.135291
0.135302
0.135312
0.135323
0.135333
0.135344
0.135354
0.135365
0.135376
0.135386
0.135397
0.135408
0.135418
0.135429
0.135439
0.13545
0.135461
0.135471
0.135482
0.135493
0.135503
0.135514
0.135525
0.135536
0.135546
0.135557
0.135568
0.135578
0.135589
0.1356
0.13561
0.135621
0.135632
0.135643
0.135653
0.135664
0.135675
0.135686
0.135696
0.135707
0.135718
0.135729
0.13574
0.13575
0.135761
0.135772
0.135783
0.135794
0.135804
0.135815
0.135826
0.135837
0.135848
0.135858
0.135869
0.13588
0.135891
0.135902
0.135913
0.135923
0.135934
0.135945
0.135956
0.135967
0.135978
0.135989
0.136
0.136011
0.136021
0.136032
0.136043
0.136054
0.136065
0.136076
0.136087
0.136098
0.136109
0.13612
0.136131
0.136142
0.136153
0.136164
0.136175
0.136186
0.136197
0.136208
0.136219
0.13623
0.136241
0.136252
0.136263
0.136274
0.136285
0.136296
0.136307
0.136318
0.136329
0.13634
0.136352
0.136363
0.136374
0.136385
0.136396
0.136407
0.136418
0.13643
0.136441
0.136452
0.136463
0.136474
0.136486
0.136497
0.136508
0.136519
0.136531
0.136542
0.136553
0.136564
0.136576
0.136587
0.136598
0.13661
0.136621
0.136632
0.136644
0.136655
0.136666
0.136678
0.136689
0.136701
0.136712
0.136724
0.136735
0.136746
0.136758
0.136769
0.136781
0.136792
0.136804
0.136816
0.136827
0.136839
0.13685
0.136862
0.136873
0.136885
0.136897
0.136908
0.13692
0.136932
0.136943
0.136955
0.136967
0.136978
0.13699
0.137002
0.137013
0.137025
0.137037
0.137049
0.137061
0.137072
0.137084
0.137096
0.137108
0.13712
0.137132
0.137143
0.137155
0.137167
0.137179
0.137191
0.137203
0.137215
0.137227
0.137239
0.137251
0.137263
0.137275
0.137287
0.137299
0.137311
0.137323
0.137335
0.137347
0.137359
0.137371
0.137383
0.137395
0.137408
0.13742
0.137432
0.137444
0.137456
0.137468
0.137481
0.137493
0.137505
0.137517
0.13753
0.137542
0.137554
0.137566
0.137579
0.137591
0.137603
0.137615
0.137628
0.13764
0.137653
0.137665
0.137678
0.13769
0.137702
0.137715
0.137727
0.137739
0.137752
0.137764
0.137777
0.13779
0.137803
0.137815
0.137828
0.137842
0.137851
0.13787
0.13786
0.13786
0.13786
1
0.776805
0.55783
0.446885
0.38411
0.343754
0.315523
0.294618
0.278484
0.265624
0.255101
0.246299
0.238801
0.232312
0.226624
0.22158
0.217065
0.212992
0.209294
0.205919
0.202822
0.199969
0.197331
0.194887
0.192623
0.190524
0.188573
0.186759
0.18507
0.183504