# vtk DataFile Version 2.0
FlowField
ASCII
DATASET STRUCTURED_GRID
DIMENSIONS 400 1 200
POINTS 80000 float
0 0 0
0.08 0 0
0.16 0 0
0.24 0 0
0.32 0 0
0.4 0 0
0.48 0 0
0.56 0 0
0.64 0 0
0.72 0 0
0.8 0 0
0.88 0 0
0.96 0 0
1.04 0 0
1.12 0 0
1.2 0 0
1.28 0 0
1.36 0 0
1.44 0 0
1.52 0 0
1.6 0 0
1.68 0 0
1.76 0 0
1.84 0 0
1.92 0 0
2 0 0
2.08 0 0
2.16 0 0
2.24 0 0
2.32 0 0
2.4 0 0
2.48 0 0
2.56 0 0
2.64 0 0
2.72 0 0
2.8 0 0
2.88 0 0
2.96 0 0
3.04 0 0
3.12 0 0
3.2 0 0
3.28 0 0
3.36 0 0
3.44 0 0
3.52 0 0
3.6 0 0
3.68 0 0
3.76 0 0
3.84 0 0
3.92 0 0
4 0 0
4.08 0 0
4.16 0 0
4.24 0 0
4.32 0 0
4.4 0 0
4.48 0 0
4.56 0 0
4.64 0 0
4.72 0 0
4.8 0 0
4.88 0 0
4.96 0 0
5.04 0 0
5.12 0 0
5.2 0 0
5.28 0 0
5.36 0 0
5.44 0 0
5.52 0 0
5.6 0 0
5.68 0 0
5.76 0 0
5.84 0 0
5.92 0 0
6 0 0
6.08 0 0
6.16 0 0
6.24 0 0
6.32 0 0
6.4 0 0
6.48 0 0
6.56 0 0
6.64 0 0
6.72 0 0
6.8 0 0
6.88 0 0
6.96 0 0
7.04 0 0
7.12 0 0
7.2 0 0
7.28 0 0
7.36 0 0
7.44 0 0
7.52 0 0
7.6 0 0
7.68 0 0
7.76 0 0
7.84 0 0
7.92 0 0
8 0 0
8.08 0 0
8.16 0 0
8.24 0 0
8.32 0 0
8.4 0 0
8.48 0 0
8.56 0 0
8.64 0 0
8.72 0 0
8.8 0 0
8.88 0 0
8.96 0 0
9.04 0 0
9.12 0 0
9.2 0 0
9.28 0 0
9.36 0 0
9.44 0 0
9.52 0 0
9.6 0 0
9.68 0 0
9.76 0 0
9.84 0 0
9.92 0 0
10 0 0
10.08 0 0
10.16 0 0
10.24 0 0
10.32 0 0
10.4 0 0
10.48 0 0
10.56 0 0
10.64 0 0
10.72 0 0
10.8 0 0
10.88 0 0
10.96 0 0
11.04 0 0
11.12 0 0
11.2 0 0
11.28 0 0
11.36 0 0
11.44 0 0
11.52 0 0
11.6 0 0
11.68 0 0
11.76 0 0
11.84 0 0
11.92 0 0
12 0 0
12.08 0 0
12.16 0 0
12.24 0 0
12.32 0 0
12.4 0 0
12.48 0 0
12.56 0 0
12.64 0 0
12.72 0 0
12.8 0 0
12.88 0 0
12.96 0 0
13.04 0 0
13.12 0 0
13.2 0 0
13.28 0 0
13.36 0 0
13.44 0 0
13.52 0 0
13.6 0 0
13.68 0 0
13.76 0 0
13.84 0 0
13.92 0 0
14 0 0
14.08 0 0
14.16 0 0
14.24 0 0
14.32 0 0
14.4 0 0
14.48 0 0
14.56 0 0
14.64 0 0
14.72 0 0
14.8 0 0
14.88 0 0
14.96 0 0
15.04 0 0
15.12 0 0
15.2 0 0
15.28 0 0
15.36 0 0
15.44 0 0
15.52 0 0
15.6 0 0
15.68 0 0
15.76 0 0
15.84 0 0
15.92 0 0
16 0 0
16.08 0 0
16.16 0 0
16.24 0 0
16.32 0 0
16.4 0 0
16.48 0 0
16.56 0 0
16.64 0 0
16.72 0 0
16.8 0 0
16.88 0 0
16.96 0 0
17.04 0 0
17.12 0 0
17.2 0 0
17.28 0 0
17.36 0 0
17.44 0 0
17.52 0 0
17.6 0 0
17.68 0 0
17.76 0 0
17.84 0 0
17.92 0 0
18 0 0
18.08 0 0
18.16 0 0
18.24 0 0
18.32 0 0
18.4 0 0
18.48 0 0
18.56 0 0
18.64 0 0
18.72 0 0
18.8 0 0
18.88 0 0
18.96 0 0
19.04 0 0
19.12 0 0
19.2 0 0
19.28 0 0
19.36 0 0
19.44 0 0
19.52 0 0
19.6 0 0
19.68 0 0
19.76 0 0
19.84 0 0
19.92 0 0
20 0 0
20.08 0 0
20.16 0 0
20.24 0 0
20.32 0 0
20.4 0 0
20.48 0 0
20.56 0 0
20.64 0 0
20.72 0 0
20.8 0 0
20.88 0 0
20.96 0 0
21.04 0 0
21.12 0 0
21.2 0 0
21.28 0 0
21.36 0 0
21.44 0 0
21.52 0 0
21.6 0 0
21.68 0 0
21.76 0 0
21.84 0 0
21.92 0 0
22 0 0
22.08 0 0
22.16 0 0
22.24 0 0
22.32 0 0
22.4 0 0
22.48 0 0
22.56 0 0
22.64 0 0
22.72 0 0
22.8 0 0
22.88 0 0
22.96 0 0
23.04 0 0
23.12 0 0
23.2 0 0
23.28 0 0
23.36 0 0
23.44 0 0
23.52 0 0
23.6 0 0
23.68 0 0
23.76 0 0
23.84 0 0
23.92 0 0
24 0 0
24.08 0 0
24.16 0 0
24.24 0 0
24.32 0 0
24.4 0 0
24.48 0 0
24.56 0 0
24.64 0 0
24.72 0 0
24.8 0 0
24.88 0 0
24.96 0 0
25.04 0 0
25.12 0 0
25.2 0 0
25.28 0 0
25.36 0 0
25.44 0 0
25.52 0 0
25.6 0 0
25.68 0 0
25.76 0 0
25.84 0 0
25.92 0 0
26 0 0
26.08 0 0
26.16 0 0
26.24 0 0
26.32 0 0
26.4 0 0
26.48 0 0
26.56 0 0
26.64 0 0
26.72 0 0
26.8 0 0
26.88 0 0
26.96 0 0
27.04 0 0
27.12 0 0
27.2 0 0
27.28 0 0
27.36 0 0
27.44 0 0
27.52 0 0
27.6 0 0
27.68 0 0
27.76 0 0
27.84 0 0
27.92 0 0
28 0 0
28.08 0 0
28.16 0 0
28.24 0 0
28.32 0 0
28.4 0 0
28.48 0 0
28.56 0 0
28.64 0 0
28.72 0 0
28.8 0 0
28.88 0 0
28.96 0 0
29.04 0 0
29.12 0 0
29.2 0 0
29.28 0 0
29.36 0 0
29.44 0 0
29.52 0 0
29.6 0 0
29.68 0 0
29.76 0 0
29.84 0 0
29.92 0 0
30 0 0
30.08 0 0
30.16 0 0
30.24 0 0
30.32 0 0
30.4 0 0
30.48 0 0
30.56 0 0
30.64 0 0
30.72 0 0
30.8 0 0
30.88 0 0
30.96 0 0
31.04 0 0
31.12 0 0
31.2 0 0
31.28 0 0
31.36 0 0
31.44 0 0
31.52 0 0
31.6 0 0
31.68 0 0
31.76 0 0
31.84 0 0
31.92 0 0
0 0.005 0
0.08 0.005 0
0.16 0.005 0
0.24 0.005 0
0.32 0.005 0
0.4 0.005 0
0.48 0.005 0
0.56 0.005 0
0.64 0.005 0
0.72 0.005 0
0.8 0.005 0
0.88 0.005 0
0.96 0.005 0
1.04 0.005 0
1.12 0.005 0
1.2 0.005 0
1.28 0.005 0
1.36 0.005 0
1.44 0.005 0
1.52 0.005 0
1.6 0.005 0
1.68 0.005 0
1.76 0.005 0
1.84 0.005 0
1.92 0.005 0
2 0.005 0
2.08 0.005 0
2.16 0.005 0
2.24 0.005 0
2.32 0.005 0
2.4 0.005 0
2.48 0.005 0
2.56 0.005 0
2.64 0.005 0
2.72 0.005 0
2.8 0.005 0
2.88 0.005 0
2.96 0.005 0
3.04 0.005 0
3.12 0.005 0
3.2 0.005 0
3.28 0.005 0
3.36 0.005 0
3.44 0.005 0
3.52 0.005 0
3.6 0.005 0
3.68 0.005 0
3.76 0.005 0
3.84 0.005 0
3.92 0.005 0
4 0.005 0
4.08 0.005 0
4.16 0.005 0
4.24 0.005 0
4.32 0.005 0
4.4 0.005 0
4.48 0.005 0
4.56 0.005 0
4.64 0.005 0
4.72 0.005 0
4.8 0.005 0
4.88 0.005 0
4.96 0.005 0
5.04 0.005 0
5.12 0.005 0
5.2 0.005 0
5.28 0.005 0
5.36 0.005 0
5.44 0.005 0
5.52 0.005 0
5.6 0.005 0
5.68 0.005 0
5.76 0.005 0
5.84 0.005 0
5.92 0.005 0
6 0.005 0
6.08 0.005 0
6.16 0.005 0
6.24 0.005 0
6.32 0.005 0
6.4 0.005 0
6.48 0.005 0
6.56 0.005 0
6.64 0.005 0
6.72 0.005 0
6.8 0.005 0
6.88 0.005 0
6.96 0.005 0
7.04 0.005 0
7.12 0.005 0
7.2 0.005 0
7.28 0.005 0
7.36 0.005 0
7.44 0.005 0
7.52 0.005 0
7.6 0.005 0
7.68 0.005 0
7.76 0.005 0
7.84 0.005 0
7.92 0.005 0
8 0.005 0
8.08 0.005 0
8.16 0.005 0
8.24 0.005 0
8.32 0.005 0
8.4 0.005 0
8.48 0.005 0
8.56 0.005 0
8.64 0.005 0
8.72 0.005 0
8.8 0.005 0
8.88 0.005 0
8.96 0.005 0
9.04 0.005 0
9.12 0.005 0
9.2 0.005 0
9.28 0.005 0
9.36 0.005 0
9.44 0.005 0
9.52 0.005 0
9.6 0.005 0
9.68 0.005 0
9.76 0.005 0
9.84 0.005 0
9.92 0.005 0
10 0.005 0
10.08 0.005 0
10.16 0.005 0
10.24 0.005 0
10.32 0.005 0
10.4 0.005 0
10.48 0.005 0
10.56 0.005 0
10.64 0.005 0
10.72 0.005 0
10.8 0.005 0
10.88 0.005 0
10.96 0.005 0
11.04 0.005 0
11.12 0.005 0
11.2 0.005 0
11.28 0.005 0
11.36 0.005 0
11.44 0.005 0
11.52 0.005 0
11.6 0.005 0
11.68 0.005 0
11.76 0.005 0
11.84 0.005 0
11.92 0.005 0
12 0.005 0
12.08 0.005 0
12.16 0.005 0
12.24 0.005 0
12.32 0.005 0
12.4 0.005 0
12.48 0.005 0
12.56 0.005 0
12.64 0.005 0
12.72 0.005 0
12.8 0.005 0
12.88 0.005 0
12.96 0.005 0
13.04 0.005 0
13.12 0.005 0
13.2 0.005 0
13.28 0.005 0
13.36 0.005 0
13.44 0.005 0
13.52 0.005 0
13.6 0.005 0
13.68 0.005 0
13.76 0.005 0
13.84 0.005 0
13.92 0.005 0
14 0.005 0
14.08 0.005 0
14.16 0.005 0
14.24 0.005 0
14.32 0.005 0
14.4 0.005 0
14.48 0.005 0
14.56 0.005 0
14.64 0.005 0
14.72 0.005 0
14.8 0.005 0
14.88 0.005 0
14.96 0.005 0
15.04 0.005 0
15.12 0.005 0
15.2 0.005 0
15.28 0.005 0
15.36 0.005 0
15.44 0.005 0
15.52 0.005 0
15.6 0.005 0
15.68 0.005 0
15.76 0.005 0
15.84 0.005 0
15.92 0.005 0
16 0.005 0
16.08 0.005 0
16.16 0.005 0
16.24 0.005 0
16.32 0.005 0
16.4 0.005 0
16.48 0.005 0
16.56 0.005 0
16.64 0.005 0
16.72 0.005 0
16.8 0.005 0
16.88 0.005 0
16.96 0.005 0
17.04 0.005 0
17.12 0.005 0
17.2 0.005 0
17.28 0.005 0
17.36 0.005 0
17.44 0.005 0
17.52 0.005 0
17.6 0.005 0
17.68 0.005 0
17.76 0.005 0
17.84 0.005 0
17.92 0.005 0
18 0.005 0
18.08 0.005 0
18.16 0.005 0
18.24 0.005 0
18.32 0.005 0
18.4 0.005 0
18.48 0.005 0
18.56 0.005 0
18.64 0.005 0
18.72 0.005 0
18.8 0.005 0
18.88 0.005 0
18.96 0.005 0
19.04 0.005 0
19.12 0.005 0
19.2 0.005 0
19.28 0.005 0
19.36 0.005 0
19.44 0.005 0
19.52 0.005 0
19.6 0.005 0
19.68 0.005 0
19.76 0.005 0
19.84 0.005 0
19.92 0.005 0
20 0.005 0
20.08 0.005 0
20.16 0.005 0
20.24 0.005 0
20.32 0.005 0
20.4 0.005 0
20.48 0.005 0
20.56 0.005 0
20.64 0.005 0
20.72 0.005 0
20.8 0.005 0
20.88 0.005 0
20.96 0.005 0
21.04 0.005 0
21.12 0.005 0
21.2 0.005 0
21.28 0.005 0
21.36 0.005 0
21.44 0.005 0
21.52 0.005 0
21.6 0.005 0
21.68 0.005 0
21.76 0.005 0
21.84 0.005 0
21.92 0.005 0
22 0.005 0
22.08 0.005 0
22.16 0.005 0
22.24 0.005 0
22.32 0.005 0
22.4 0.005 0
22.48 0.005 0
22.56 0.005 0
22.64 0.005 0
22.72 0.005 0
22.8 0.005 0
22.88 0.005 0
22.96 0.005 0
23.04 0.005 0
23.12 0.005 0
23.2 0.005 0
23.28 0.005 0
23.36 0.005 0
23.44 0.005 0
23.52 0.005 0
23.6 0.005 0
23.68 0.005 0
23.76 0.005 0
23.84 0.005 0
23.92 0.005 0
24 0.005 0
24.08 0.005 0
24.16 0.005 0
24.24 0.005 0
24.32 0.005 0
24.4 0.005 0
24.48 0.005 0
24.56 0.005 0
24.64 0.005 0
24.72 0.005 0
24.8 0.005 0
24.88 0.005 0
24.96 0.005 0
25.04 0.005 0
25.12 0.005 0
25.2 0.005 0
25.28 0.005 0
25.36 0.005 0
25.44 0.005 0
25.52 0.005 0
25.6 0.005 0
25.68 0.005 0
25.76 0.005 0
25.84 0.005 0
25.92 0.005 0
26 0.005 0
26.08 0.005 0
26.16 0.005 0
26.24 0.005 0
26.32 0.005 0
26.4 0.005 0
26.48 0.005 0
26.56 0.005 0
26.64 0.005 0
26.72 0.005 0
26.8 0.005 0
26.88 0.005 0
26.96 0.005 0
27.04 0.005 0
27.12 0.005 0
27.2 0.005 0
27.28 0.005 0
27.36 0.005 0
27.44 0.005 0
27.52 0.005 0
27.6 0.005 0
27.68 0.005 0
27.76 0.005 0
27.84 0.005 0
27.92 0.005 0
28 0.005 0
28.08 0.005 0
28.16 0.005 0
28.24 0.005 0
28.32 0.005 0
28.4 0.005 0
28.48 0.005 0
28.56 0.005 0
28.64 0.005 0
28.72 0.005 0
28.8 0.005 0
28.88 0.005 0
28.96 0.005 0
29.04 0.005 0
29.12 0.005 0
29.2 0.005 0
29.28 0.005 0
29.36 0.005 0
29.44 0.005 0
29.52 0.005 0
29.6 0.005 0
29.68 0.005 0
29.76 0.005 0
29.84 0.005 0
29.92 0.005 0
30 0.005 0
30.08 0.005 0
30.16 0.005 0
30.24 0.005 0
30.32 0.005 0
30.4 0.005 0
30.48 0.005 0
30.56 0.005 0
30.64 0.005 0
30.72 0.005 0
30.8 0.005 0
30.88 0.005 0
30.96 0.005 0
31.04 0.005 0
31.12 0.005 0
31.2 0.005 0
31.28 0.005 0
31.36 0.005 0
31.44 0.005 0
31.52 0.005 0
31.6 0.005 0
31.68 0.005 0
31.76 0.005 0
31.84 0.005 0
31.92 0.005 0
0 0.01 0
0.08 0.01 0
0.16 0.01 0
0.24 0.01 0
0.32 0.01 0
0.4 0.01 0
0.48 0.01 0
0.56 0.01 0
0.64 0.01 0
0.72 0.01 0
0.8 0.01 0
0.88 0.01 0
0.96 0.01 0
1.04 0.01 0
1.12 0.01 0
1.2 0.01 0
1.28 0.01 0
1.36 0.01 0
1.44 0.01 0
1.52 0.01 0
1.6 0.01 0
1.68 0.01 0
1.76 0.01 0
1.84 0.01 0
1.92 0.01 0
2 0.01 0
2.08 0.01 0
2.16 0.01 0
2.24 0.01 0
2.32 0.01 0
2.4 0.01 0
2.48 0.01 0
2.56 0.01 0
2.64 0.01 0
2.72 0.01 0
2.8 0.01 0
2.88 0.01 0
2.96 0.01 0
3.04 0.01 0
3.12 0.01 0
3.2 0.01 0
3.28 0.01 0
3.36 0.01 0
3.44 0.01 0
3.52 0.01 0
3.6 0.01 0
3.68 0.01 0
3.76 0.01 0
3.84 0.01 0
3.92 0.01 0
4 0.01 0
4.08 0.01 0
4.16 0.01 0
4.24 0.01 0
4.32 0.01 0
4.4 0.01 0
4.48 0.01 0
4.56 0.01 0
4.64 0.01 0
4.72 0.01 0
4.8 0.01 0
4.88 0.01 0
4.96 0.01 0
5.04 0.01 0
5.12 0.01 0
[...]
POINT_DATA 80000

SCALARS p float 1
LOOKUP_TABLE default
1
68.5881
68.2853
68.2435
68.2261
68.2176
68.2119
68.206
68.1991
68.1914
68.1831
68.1743
68.1652
68.1559
68.1466
68.1371
68.1276
68.1181
68.1085
68.0988
68.0892
68.0795
68.0698
68.0601
68.0504
68.0406
68.0309
68.0211
68.0112
68.0014
67.9915
67.9817
67.9717
67.9618
67.9519
67.9419
67.9319
67.9219
67.9118
67.9018
67.8917
67.8816
67.8714
67.8613
67.8511
67.8409
67.8306
67.8204
67.8101
67.7998
67.7895
67.7791
67.7687
67.7583
67.7479
67.7375
67.727
67.7165
67.706
67.6954
67.6848
67.6742
67.6636
67.653
67.6423
67.6316
67.6208
67.6101
67.5993
67.5885
67.5776
67.5667
67.5558
67.5449
67.5339
67.5229
67.5119
67.5009
67.4898
67.4786
67.4675
67.4563
67.4451
67.4338
67.4225
67.4112
67.3998
67.3884
67.377
67.3655
67.354
67.3425
67.3309
67.3193
67.3076
67.2959
67.2842
67.2724
67.2606
67.2487
67.2368
67.2249
67.2129
67.2009
67.1888
67.1767
67.1646
67.1524
67.1402
67.1279
67.1156
67.1032
67.0908
67.0784
67.0659
67.0533
67.0407
67.0281
67.0154
67.0027
66.99
66.9771
66.9643
66.9514
66.9384
66.9254
66.9123
66.8992
66.8861
66.8729
66.8596
66.8463
66.8329
66.8195
66.806
66.7925
66.7789
66.7652
66.7515
66.7378
66.724
66.7101
66.6961
66.6821
66.6681
66.654
66.6398
66.6255
66.6112
66.5968
66.5824
66.5679
66.5533
66.5387
66.524
66.5092
66.4943
66.4794
66.4644
66.4493
66.4342
66.419
66.4037
66.3883
66.3728
66.3573
66.3417
66.326
66.3102
66.2943
66.2784
66.2623
66.2462
66.23
66.2137
66.1973
66.1808
66.1642
66.1475
66.1307
66.1138
66.0969
66.0798
66.0626
66.0453
66.0279
66.0104
65.9928
65.9751
65.9572
65.9393
65.9212
65.903
65.8847
65.8662
65.8476
65.8289
65.8101
65.7912
65.7721
65.7528
65.7334
65.7139
65.6943
65.6744
65.6545
65.6344
65.6141
65.5936
65.573
65.5523
65.5313
65.5102
65.4889
65.4675
65.4458
65.424
65.4019
65.3797
65.3573
65.3346
65.3118
65.2887
65.2654
65.2419
65.2181
65.1942
65.1699
65.1455
65.1207
65.0958
65.0705
65.045
65.0192
64.9931
64.9667
64.94
64.9129
64.8856
64.8579
64.8299
64.8015
64.7728
64.7437
64.7142
64.6843
64.654
64.6233
64.5921
64.5605
64.5284
64.4958
64.4627
64.4291
64.3949
64.3602
64.3248
64.2889
64.2522
64.2149
64.1769
64.1381
64.0985
64.0581
64.0167
63.9744
63.9311
63.8866
63.8409
63.7939
63.7455
63.6956
63.6439
63.5903
63.5346
63.4766
63.416
63.3525
63.2857
63.2152
63.1406
63.0612
62.9766
62.8861
62.7888
62.6838
62.5704
62.4472
62.3133
62.1672
62.0074
61.8326
61.6408
61.4303
61.1992
60.9452
60.6661
60.3597
60.0235
59.6549
59.2514
58.8103
58.3291
57.8052
57.236
56.6191
55.9523
55.2335
54.4609
53.6331
52.7488
51.8073
50.8082
49.7517
48.6386
47.4699
46.2474
44.9736
43.6513
42.284
40.8757
39.4309
37.9547
36.4525
34.93
33.3932
31.8484
30.302
28.7603
27.2296
25.7161
24.2258
22.7644
21.3371
19.9488
18.604
17.3064
16.0595
14.866
13.7282
12.6477
11.6255
10.6623
9.75808
8.91247
8.12462
7.39332
6.717
6.09382
5.52168
4.99829
4.52121
4.08786
3.69564
3.34187
3.02389
2.73907
2.48482
2.25864
2.05811
1.88092
1.72487
1.58792
1.46812
1.36367
1.27291
1.1943
1.12644
1.06805
1.01798
0.975173
0.938704
0.907732
0.881515
0.859394
0.840789
0.825192
0.812159
0.801302
0.792288
0.784828
0.778673
0.773612
0.769462
0.766072
0.76331
0.761067
0.759251
0.757786
0.756607
0.755661
0.754904
0.754301
0.75382
0.753438
0.753135
0.752894
0.752702
0.752548
0.5
68.5881
68.5881
68.2853
68.2435
68.2261
68.2176
68.2119
68.206
68.1991
68.1914
68.1831
68.1743
68.1652
68.1559
68.1466
68.1371
68.1276
68.1181
68.1085
68.0988
68.0892
68.0795
68.0698
68.0601
68.0504
68.0406
68.0309
68.0211
68.0112
68.0014
67.9915
67.9817
67.9717
67.9618
67.9519
67.9419
67.9319
67.9219
67.9118
67.9018
67.8917
67.8816
67.8714
67.8613
67.8511
67.8409
67.8306
67.8204
67.8101
67.7998
67.7895
67.7791
67.7687
67.7583
67.7479
67.7375
67.727
67.7165
67.706
67.6954
67.6848
67.6742
67.6636
67.653
67.6423
67.6316
67.6208
67.6101
67.5993
67.5885
67.5776
67.5667
67.5558
67.5449
67.5339
67.5229
67.5119
67.5009
67.4898
67.4786
67.4675
67.4563
67.4451
67.4338
67.4225
67.4112
67.3998
67.3884
67.377
67.3655
67.354
67.3425
67.3309
67.3193
67.3076
67.2959
67.2842
67.2724
67.2606
67.2487
67.2368
67.2249
67.2129
67.2009
67.1888
67.1767
67.1646
67.1524
67.1402
67.1279
67.1156
67.1032
67.0908
67.0784
67.0659
67.0533
67.0407
67.0281
67.0154
67.0027
66.99
66.9771
66.9643
66.9514
66.9384
66.9254
66.9123
66.8992
66.8861
66.8729
66.8596
66.8463
66.8329
66.8195
66.806
66.7925
66.7789
66.7652
66.7515
66.7378
66.724
66.7101
66.6961
66.6821
66.6681
66.654
66.6398
66.6255
66.6112
66.5968
66.5824
66.5679
66.5533
66.5387
66.524
66.5092
66.4943
66.4794
66.4644
66.4493
66.4342
66.419
66.4037
66.3883
66.3728
66.3573
66.3417
66.326
66.3102
66.2943
66.2784
66.2623
66.2462
66.23
66.2137
66.1973
66.1808
66.1642
66.1475
66.1307
66.1138
66.0969
66.0798
66.0626
66.0453
66.0279
66.0104
65.9928
65.9751
65.9572
65.9393
65.9212
65.903
65.8847
65.8662
65.8476
65.8289
65.8101
65.7912
65.7721
65.7528
65.7334
65.7139
65.6943
65.6744
65.6545
65.6344
65.6141
65.5936
65.573
65.5523
65.5313
65.5102
65.4889
65.4675
65.4458
65.424
65.4019
65.3797
65.3573
65.3346
65.3118
65.2887
65.2654
65.2419
65.2181
65.1942
65.1699
65.1455
65.1207
65.0958
65.0705
65.045
65.0192
64.9931
64.9667
64.94
64.9129
64.8856
64.8579
64.8299
64.8015
64.7728
64.7437
64.7142
64.6843
64.654
64.6233
64.5921
64.5605
64.5284
64.4958
64.4627
64.4291
64.3949
64.3602
64.3248
64.2889
64.2522
64.2149
64.1769
64.1381
64.0985
64.0581
64.0167
63.9744
63.9311
63.8866
63.8409
63.7939
63.7455
63.6956
63.6439
63.5903
63.5346
63.4766
63.416
63.3525
63.2857
63.2152
63.1406
63.0612
62.9766
62.8861
62.7888
62.6838
62.5704
62.4472
62.3133
62.1672
62.0074
61.8326
61.6408
61.4303
61.1992
60.9452
60.6661
60.3597
60.0235
59.6549
59.2514
58.8103
58.3291
57.8052
57.236
56.6191
55.9523
55.2335
54.4609
53.6331
52.7488
51.8073
50.8082
49.7517
48.6386
47.4699
46.2474
44.9736
43.6513
42.284
40.8757
39.4309
37.9547
36.4525
34.93
33.3932
31.8484
30.302
28.7603
27.2296
25.7161
24.2258
22.7644
21.3371
19.9488
18.604
17.3064
16.0595
14.866
13.7282
12.6477
11.6255
10.6623
9.75808
8.91247
8.12462
7.39332
6.717
6.09382
5.52168
4.99829
4.52121
4.08786
3.69564
3.34187
3.02389
2.73907
2.48482
2.25864
2.05811
1.88092
1.72487
1.58792
1.46812
1.36367
1.27291
1.1943
1.12644
1.06805
1.01798
0.975173
0.938704
0.907732
0.881515
0.859394
0.840789
0.825192
0.812159
0.801302
0.792288
0.784828
0.778673
0.773612
0.769462
0.766072
0.76331
0.761067
0.759251
0.757786
0.756607
0.755661
0.754904
0.754301
0.75382
0.753438
0.753135
0.752894
0.752702
0.752548
0.752548
68.5735
68.5735
68.2892
68.2447
68.2266
68.2178
68.2119
68.206
68.1992
68.1914
68.1831
68.1743
68.1652
68.156
68.1466
68.1371
68.1276
68.1181
68.1085
68.0988
68.0892
68.0795
68.0698
68.0601
68.0504
68.0406
68.0309
68.0211
68.0112
68.0014
67.9915
67.9817
67.9717
67.9618
67.9519
67.9419
67.9319
67.9219
67.9118
67.9018
67.8917
67.8816
67.8714
67.8613
67.8511
67.8409
67.8306
67.8204
67.8101
67.7998
67.7895
67.7791
67.7688
67.7584
67.7479
67.7375
67.727
67.7165
67.706
67.6954
67.6848
67.6742
67.6636
67.653
67.6423
67.6316
67.6208
67.6101
67.5993
67.5885
67.5776
67.5667
67.5558
67.5449
67.5339
67.5229
67.5119
67.5009
67.4898
67.4786
67.4675
67.4563
67.4451
67.4338
67.4225
67.4112
67.3998
67.3884
67.377
67.3655
67.354
67.3425
67.3309
67.3193
67.3076
67.2959
67.2842
67.2724
67.2606
67.2487
67.2368
67.2249
67.2129
67.2009
67.1888
67.1767
67.1646
67.1524
67.1402
67.1279
67.1156
67.1032
67.0908
67.0784
67.0659
67.0533
67.0407
67.0281
67.0154
67.0027
66.99
66.9771
66.9643
66.9514
66.9384
66.9254
66.9123
66.8992
66.8861
66.8729
66.8596
66.8463
66.8329
66.8195
66.806
66.7925
66.7789
66.7652
66.7515
66.7378
66.724
66.7101
66.6961
66.6821
66.6681
66.654
66.6398
66.6255
66.6112
66.5968
66.5824
66.5679
66.5533
66.5387
66.524
66.5092
66.4943
66.4794
66.4644
66.4493
66.4342
66.419
66.4037
66.3883
66.3728
66.3573
66.3417
66.326
66.3102
66.2943
66.2784
66.2623
66.2462
66.23
66.2137
66.1973
66.1808
66.1642
66.1475
66.1307
66.1138
66.0969
66.0798
66.0626
66.0453
66.0279
66.0104
65.9928
65.9751
65.9572
65.9393
65.9212
65.903
65.8847
65.8662
65.8476
65.8289
65.8101
65.7912
65.7721
65.7528
65.7334
65.7139
65.6943
65.6744
65.6545
65.6344
65.6141
65.5936
65.573
65.5523
65.5313
65.5102
65.4889
65.4675
65.4458
65.424
65.4019
65.3797
65.3572
65.3346
65.3118
65.2887
65.2654
65.2419
65.2181
65.1942
65.1699
65.1455
65.1207
65.0958
65.0705
65.045
65.0192
64.9931
64.9667
64.94
64.9129
64.8856
64.8579
64.8299
64.8015
64.7728
64.7437
64.7142
64.6843
64.654
64.6233
64.5921
64.5605
64.5284
64.4958
64.4627
64.4291
64.3949
64.3602
64.3248
64.2888
64.2522
64.2149
64.1769
64.1381
64.0985
64.0581
64.0167
63.9744
63.931
63.8866
63.8409
63.7939
63.7455
63.6955
63.6438
63.5903
63.5346
63.4766
63.416
63.3524
63.2856
63.2152
63.1405
63.0612
62.9766
62.886
62.7887
62.6838
62.5703
62.4472
62.3132
62.1671
62.0074
61.8325
61.6408
61.4303
61.1991
60.9452
60.6661
60.3598
60.0235
59.655
59.2515
58.8105
58.3293
57.8055
57.2363
56.6195
55.9528
55.234
54.4616
53.6338
52.7496
51.8082
50.8092
49.7529
48.6398
47.4713
46.249
44.9753
43.6531
42.2859
40.8777
39.4331
37.957
36.4549
34.9325
33.3958
31.8511
30.3047
28.7631
27.2324
25.719
24.2287
22.7672
21.3399
19.9516
18.6067
17.3091
16.0622
14.8686
13.7307
12.6501
11.6278
10.6645
9.76019
8.91447
8.12651
7.3951
6.71867
6.09537
5.52313
4.99963
4.52243
4.08899
3.69667
3.34281
3.02474
2.73984
2.48552
2.25926
2.05866
1.88141
1.72532
1.58831
1.46846
1.36397
1.27317
1.19453
1.12664
1.06822
1.01813
0.975303
0.938815
0.907828
0.881597
0.859463
0.840848
0.825242
0.8122
0.801337
0.792317
0.784852
0.778693
0.773628
0.769476
0.766083
0.763319
0.761074
0.759257
0.757791
0.756611
0.755664
0.754907
0.754303
0.753822
0.75344
0.753136
0.752895
0.752703
0.752549
0.752549
68.5575
68.5575
68.2924
68.2458
68.227
68.2179
68.212
68.206
68.1992
68.1914
68.1831
68.1743
68.1652
68.1559
68.1466
68.1371
68.1276
68.1181
68.1085
68.0988
68.0892
68.0795
68.0698
68.0601
68.0504
68.0406
68.0309
68.0211
68.0112
68.0014
67.9915
67.9817
67.9717
67.9618
67.9519
67.9419
67.9319
67.9219
67.9118
67.9018
67.8917
67.8816
67.8714
67.8613
67.8511
67.8409
67.8306
67.8204
67.8101
67.7998
67.7895
67.7791
67.7687
67.7583
67.7479
67.7375
67.727
67.7165
67.706
67.6954
67.6848
67.6742
67.6636
67.653
67.6423
67.6316
67.6208
67.6101
67.5993
67.5885
67.5776
67.5667
67.5558
67.5449
67.5339
67.5229
67.5119
67.5008
67.4898
67.4786
67.4675
67.4563
67.4451
67.4338
67.4225
67.4112
67.3998
67.3884
67.377
67.3655
67.354
67.3425
67.3309
67.3193
67.3076
67.2959
67.2842
67.2724
67.2606
67.2487
67.2368
67.2249
67.2129
67.2009
67.1888
67.1767
67.1646
67.1524
67.1401
67.1279
67.1156
67.1032
67.0908
67.0783
67.0659
67.0533
67.0407
67.0281
67.0154
67.0027
66.9899
66.9771
66.9643
66.9514
66.9384
66.9254
66.9123
66.8992
66.8861
66.8728
66.8596
66.8463
66.8329
66.8195
66.806
66.7925
66.7789
66.7652
66.7515
66.7378
66.7239
66.7101
66.6961
66.6821
66.6681
66.654
66.6398
66.6255
66.6112
66.5968
66.5824
66.5679
66.5533
66.5387
66.5239
66.5092
66.4943
66.4794
66.4644
66.4493
66.4342
66.4189
66.4036
66.3883
66.3728
66.3573
66.3416
66.3259
66.3102
66.2943
66.2783
66.2623
66.2462
66.23
66.2137
66.1973
66.1808
66.1642
66.1475
66.1307
66.1138
66.0969
66.0798
66.0626
66.0453
66.0279
66.0104
65.9928
65.975
65.9572
65.9392
65.9212
65.903
65.8846
65.8662
65.8476
65.8289
65.8101
65.7911
65.772
65.7528
65.7334
65.7139
65.6942
65.6744
65.6544
65.6343
65.6141
65.5936
65.573
65.5522
65.5313
65.5102
65.4889
65.4674
65.4458
65.4239
65.4019
65.3797
65.3572
65.3346
65.3117
65.2887
65.2654
65.2419
65.2181
65.1941
65.1699
65.1454
65.1207
65.0957
65.0705
65.0449
65.0191
64.993
64.9666
64.9399
64.9129
64.8856
64.8579
64.8299
64.8015
64.7728
64.7437
64.7142
64.6843
64.654
64.6232
64.5921
64.5604
64.5283
64.4958
64.4627
64.429
64.3949
64.3601
64.3248
64.2888
64.2522
64.2149
64.1768
64.138
64.0984
64.058
64.0166
63.9743
63.931
63.8865
63.8408
63.7938
63.7454
63.6954
63.6437
63.5902
63.5345
63.4765
63.4159
63.3523
63.2855
63.215
63.1404
63.061
62.9764
62.8858
62.7885
62.6836
62.5701
62.4469
62.3129
62.1668
62.0071
61.8322
61.6404
61.4299
61.1987
60.9447
60.6657
60.3593
60.0231
59.6545
59.251
58.81
58.3288
57.8049
57.2357
56.6189
55.9521
55.2334
54.4609
53.6332
52.749
51.8076
50.8087
49.7524
48.6393
47.4708
46.2486
44.9749
43.6528
42.2857
40.8776
39.433
37.957
36.455
34.9327
33.3961
31.8515
30.3052
28.7636
27.233
25.7196
24.2294
22.768
21.3408
19.9525
18.6076
17.3101
16.0631
14.8696
13.7317
12.651
11.6288
10.6654
9.76108
8.91533
8.12734
7.39589
6.71943
6.0961
5.52381
5.00027
4.52304
4.08955
3.69719
3.34329
3.02519
2.74025
2.48589
2.2596
2.05897
1.88169
1.72556
1.58853
1.46866
1.36415
1.27333
1.19466
1.12676
1.06833
1.01822
0.975381
0.938883
0.907886
0.881647
0.859506
0.840884
0.825273
0.812227
0.801359
0.792336
0.784868
0.778706
0.773639
0.769485
0.76609
0.763325
0.761079
0.759261
0.757794
0.756613
0.755666
0.754909
0.754304
0.753823
0.753441
0.753137
0.752896
0.752703
0.752549
0.752549
68.5416
68.5416
68.2953
68.2469
68.2275
68.2181
68.212
68.206
68.1992
68.1914
68.1831
68.1743
68.1652
68.1559
68.1466
68.1371
68.1276
68.118
68.1085
68.0988
68.0892
68.0795
68.0698
68.0601
68.0504
68.0406
68.0309
68.0211
68.0112
68.0014
67.9915
67.9816
67.9717
67.9618
67.9519
67.9419
67.9319
67.9219
67.9118
67.9018
67.8917
67.8815
67.8714
67.8613
67.8511
67.8409
67.8306
67.8204
67.8101
67.7998
67.7895
67.7791
67.7687
67.7583
67.7479
67.7375
67.727
67.7165
67.706
67.6954
67.6848
67.6742
67.6636
67.653
67.6423
67.6316
67.6208
67.6101
67.5993
67.5885
67.5776
67.5667
67.5558
67.5449
67.5339
67.5229
67.5119
67.5008
67.4897
67.4786
67.4675
67.4563
67.4451
67.4338
67.4225
67.4112
67.3998
67.3884
67.377
67.3655
67.354
67.3425
67.3309
67.3192
67.3076
67.2959
67.2841
67.2724
67.2606
67.2487
67.2368
67.2249
67.2129
67.2009
67.1888
67.1767
67.1646
67.1524
67.1401
67.1279
67.1155
67.1032
67.0908
67.0783
67.0658
67.0533
67.0407
67.0281
67.0154
67.0027
66.9899
66.9771
66.9643
66.9514
66.9384
66.9254
66.9123
66.8992
66.886
66.8728
66.8596
66.8463
66.8329
66.8195
66.806
66.7924
66.7789
66.7652
66.7515
66.7377
66.7239
66.7101
66.6961
66.6821
66.6681
66.6539
66.6398
66.6255
66.6112
66.5968
66.5824
66.5679
66.5533
66.5386
66.5239
66.5092
66.4943
66.4794
66.4644
66.4493
66.4341
66.4189
66.4036
66.3882
66.3728
66.3573
66.3416
66.3259
66.3102
66.2943
66.2783
66.2623
66.2462
66.2299
66.2136
66.1972
66.1807
66.1642
66.1475
66.1307
66.1138
66.0968
66.0798
66.0626
66.0453
66.0279
66.0104
65.9928
65.975
65.9572
65.9392
65.9211
65.9029
65.8846
65.8662
65.8476
65.8289
65.8101
65.7911
65.772
65.7528
65.7334
65.7139
65.6942
65.6744
65.6544
65.6343
65.614
65.5936
65.573
65.5522
65.5313
65.5102
65.4889
65.4674
65.4457
65.4239
65.4019
65.3796
65.3572
65.3346
65.3117
65.2886
65.2653
65.2418
65.2181
65.1941
65.1699
65.1454
65.1207
65.0957
65.0704
65.0449
65.0191
64.993
64.9666
64.9399
64.9129
64.8855
64.8578
64.8298
64.8015
64.7727
64.7436
64.7141
64.6842
64.6539
64.6232
64.592
64.5604
64.5283
64.4957
64.4626
64.429
64.3948
64.36
64.3247
64.2887
64.2521
64.2148
64.1768
64.138
64.0984
64.0579
64.0166
63.9742
63.9309
63.8864
63.8407
63.7937
63.7453
63.6953
63.6436
63.5901
63.5344
63.4764
63.4157
63.3522
63.2854
63.2149
63.1402
63.0609
62.9762
62.8856
62.7883
62.6833
62.5698
62.4467
62.3127
62.1665
62.0068
61.8319
61.6401
61.4296
61.1984
60.9443
60.6653
60.3588
60.0226
59.654
59.2504
58.8094
58.3282
57.8043
57.2351
56.6183
55.9515
55.2328
54.4603
53.6326
52.7484
51.807
50.8081
49.7518
48.6389
47.4704
46.2482
44.9746
43.6525
42.2855
40.8774
39.433
37.9571
36.4551
34.9328
33.3963
31.8518
30.3056
28.7641
27.2336
25.7203
24.2301
22.7688
21.3416
19.9533
18.6085
17.311
16.064
14.8705
13.7326
12.652
11.6297
10.6663
9.76197
8.91619
8.12817
7.39669
6.72019
6.09682
5.52449
5.00091
4.52364
4.09011
3.69771
3.34377
3.02563
2.74065
2.48626
2.25994
2.05927
1.88196
1.72581
1.58875
1.46886
1.36432
1.27348
1.1948
1.12688
1.06843
1.01831
0.97546
0.938951
0.907945
0.881697
0.859549
0.840921
0.825304
0.812253
0.801382
0.792355
0.784884
0.778719
0.77365
0.769494
0.766098
0.763331
0.761084
0.759265
0.757797
0.756616
0.755669
0.754911
0.754306
0.753824
0.753442
0.753138
0.752896
0.752704
0.752549
0.752549
68.5265
68.5265
68.298
68.2479
68.2279
68.2182
68.2121
68.2061
68.1992
68.1914
68.1831
68.1743
68.1652
68.1559
68.1466
68.1371
68.1276
68.118
68.1085
68.0988
68.0892
68.0795
68.0698
68.0601
68.0504
68.0406
68.0309
68.0211
68.0112
68.0014
67.9915
67.9816
67.9717
67.9618
67.9518
67.9419
67.9319
67.9219
67.9118
67.9017
67.8917
67.8815
67.8714
67.8612
67.8511
67.8409
67.8306
67.8204
67.8101
67.7998
67.7895
67.7791
67.7687
67.7583
67.7479
67.7375
67.727
67.7165
67.706
67.6954
67.6848
67.6742
67.6636
67.6529
67.6423
67.6316
67.6208
67.6101
67.5993
67.5884
67.5776
67.5667
67.5558
67.5449
67.5339
67.5229
67.5119
67.5008
67.4897
67.4786
67.4675
67.4563
67.445
67.4338
67.4225
67.4112
67.3998
67.3884
67.377
67.3655
67.354
67.3424
67.3309
67.3192
67.3076
67.2959
67.2841
67.2724
67.2605
67.2487
67.2368
67.2249
67.2129
67.2009
67.1888
67.1767
67.1645
67.1524
67.1401
67.1279
67.1155
67.1032
67.0908
67.0783
67.0658
67.0533
67.0407
67.0281
67.0154
67.0027
66.9899
66.9771
66.9643
66.9513
66.9384
66.9254
66.9123
66.8992
66.886
66.8728
66.8596
66.8462
66.8329
66.8194
66.806
66.7924
66.7788
66.7652
66.7515
66.7377
66.7239
66.71
66.6961
66.6821
66.668
66.6539
66.6397
66.6255
66.6112
66.5968
66.5824
66.5679
66.5533
66.5386
66.5239
66.5091
66.4943
66.4794
66.4644
66.4493
66.4341
66.4189
66.4036
66.3882
66.3728
66.3572
66.3416
66.3259
66.3101
66.2943
66.2783
66.2623
66.2461
66.2299
66.2136
66.1972
66.1807
66.1641
66.1475
66.1307
66.1138
66.0968
66.0797
66.0625
66.0453
66.0279
66.0104
65.9927
65.975
65.9572
65.9392
65.9211
65.9029
65.8846
65.8662
65.8476
65.8289
65.8101
65.7911
65.772
65.7528
65.7334
65.7139
65.6942
65.6744
65.6544
65.6343
65.614
65.5936
65.573
65.5522
65.5313
65.5101
65.4889
65.4674
65.4457
65.4239
65.4018
65.3796
65.3572
65.3345
65.3117
65.2886
65.2653
65.2418
65.2181
65.1941
65.1698
65.1454
65.1206
65.0957
65.0704
65.0449
65.0191
64.993
64.9666
64.9398
64.9128
64.8855
64.8578
64.8298
64.8014
64.7727
64.7436
64.7141
64.6842
64.6539
64.6231
64.592
64.5603
64.5282
64.4957
64.4626
64.4289
64.3947
64.36
64.3246
64.2887
64.252
64.2147
64.1767
64.1379
64.0983
64.0578
64.0165
63.9742
63.9308
63.8863
63.8406
63.7936
63.7452
63.6952
63.6435
63.59
63.5343
63.4762
63.4156
63.3521
63.2852
63.2147
63.14
63.0607
62.9761
62.8854
62.7881
62.6831
62.5696
62.4464
62.3124
62.1662
62.0065
61.8315
61.6397
61.4292
61.198
60.9439
60.6648
60.3584
60.0221
59.6535
59.2499
58.8088
58.3276
57.8037
57.2345
56.6176
55.9509
55.2322
54.4597
53.632
52.7478
51.8064
50.8076
49.7513
48.6384
47.4699
46.2478
44.9743
43.6523
42.2853
40.8773
39.4329
37.9571
36.4552
34.933
33.3966
31.8522
30.306
28.7646
27.2341
25.7209
24.2308
22.7695
21.3424
19.9542
18.6094
17.3119
16.0649
14.8714
13.7335
12.6529
11.6306
10.6672
9.76285
8.91705
8.129
7.39749
6.72095
6.09754
5.52518
5.00156
4.52424
4.09068
3.69823
3.34425
3.02607
2.74106
2.48663
2.26027
2.05958
1.88223
1.72605
1.58897
1.46905
1.36449
1.27363
1.19493
1.12699
1.06854
1.0184
0.975538
0.939019
0.908003
0.881747
0.859592
0.840958
0.825335
0.812279
0.801404
0.792373
0.784899
0.778733
0.773661
0.769503
0.766105
0.763337
0.761089
0.759269
0.757801
0.756619
0.755671
0.754912
0.754307
0.753825
0.753442
0.753138
0.752897
0.752704
0.75255
0.75255
68.5126
68.5126
68.3006
68.249
68.2283
68.2184
68.2121
68.2061
68.1992
68.1914
68.1831
68.1743
68.1652
68.1559
68.1466
68.1371
68.1276
68.118
68.1084
68.0988
68.0892
68.0795
68.0698
68.0601
68.0504
68.0406
68.0308
68.021
68.0112
68.0014
67.9915
67.9816
67.9717
67.9618
67.9518
67.9419
67.9319
67.9219
67.9118
67.9017
67.8916
67.8815
67.8714
67.8612
67.8511
67.8408
67.8306
67.8204
67.8101
67.7998
67.7895
67.7791
67.7687
67.7583
67.7479
67.7375
67.727
67.7165
67.706
67.6954
67.6848
67.6742
67.6636
67.6529
67.6423
67.6315
67.6208
67.61
67.5993
67.5884
67.5776
67.5667
67.5558
67.5449
67.5339
67.5229
67.5119
67.5008
67.4897
67.4786
67.4675
67.4563
67.445
67.4338
67.4225
67.4112
67.3998
67.3884
67.377
67.3655
67.354
67.3424
67.3309
67.3192
67.3076
67.2959
67.2841
67.2724
67.2605