# vtk DataFile Version 2.0
FlowField
ASCII
DATASET STRUCTURED_GRID
DIMENSIONS 400 1 200
POINTS 80000 float
0 0 0
0.08 0 0
0.16 0 0
0.24 0 0
0.32 0 0
0.4 0 0
0.48 0 0
0.56 0 0
0.64 0 0
0.72 0 0
0.8 0 0
0.88 0 0
0.96 0 0
1.04 0 0
1.12 0 0
1.2 0 0
1.28 0 0
1.36 0 0
1.44 0 0
1.52 0 0
1.6 0 0
1.68 0 0
1.76 0 0
1.84 0 0
1.92 0 0
2 0 0
2.08 0 0
2.16 0 0
2.24 0 0
2.32 0 0
2.4 0 0
2.48 0 0
2.56 0 0
2.64 0 0
2.72 0 0
2.8 0 0
2.88 0 0
2.96 0 0
3.04 0 0
3.12 0 0
3.2 0 0
3.28 0 0
3.36 0 0
3.44 0 0
3.52 0 0
3.6 0 0
3.68 0 0
3.76 0 0
3.84 0 0
3.92 0 0
4 0 0
4.08 0 0
4.16 0 0
4.24 0 0
4.32 0 0
4.4 0 0
4.48 0 0
4.56 0 0
4.64 0 0
4.72 0 0
4.8 0 0
4.88 0 0
4.96 0 0
5.04 0 0
5.12 0 0
5.2 0 0
5.28 0 0
5.36 0 0
5.44 0 0
5.52 0 0
5.6 0 0
5.68 0 0
5.76 0 0
5.84 0 0
5.92 0 0
6 0 0
6.08 0 0
6.16 0 0
6.24 0 0
6.32 0 0
6.4 0 0
6.48 0 0
6.56 0 0
6.64 0 0
6.72 0 0
6.8 0 0
6.88 0 0
6.96 0 0
7.04 0 0
7.12 0 0
7.2 0 0
7.28 0 0
7.36 0 0
7.44 0 0
7.52 0 0
7.6 0 0
7.68 0 0
7.76 0 0
7.84 0 0
7.92 0 0
8 0 0
8.08 0 0
8.16 0 0
8.24 0 0
8.32 0 0
8.4 0 0
8.48 0 0
8.56 0 0
8.64 0 0
8.72 0 0
8.8 0 0
8.88 0 0
8.96 0 0
9.04 0 0
9.12 0 0
9.2 0 0
9.28 0 0
9.36 0 0
9.44 0 0
9.52 0 0
9.6 0 0
9.68 0 0
9.76 0 0
9.84 0 0
9.92 0 0
10 0 0
10.08 0 0
10.16 0 0
10.24 0 0
10.32 0 0
10.4 0 0
10.48 0 0
10.56 0 0
10.64 0 0
10.72 0 0
10.8 0 0
10.88 0 0
10.96 0 0
11.04 0 0
11.12 0 0
11.2 0 0
11.28 0 0
11.36 0 0
11.44 0 0
11.52 0 0
11.6 0 0
11.68 0 0
11.76 0 0
11.84 0 0
11.92 0 0
12 0 0
12.08 0 0
12.16 0 0
12.24 0 0
12.32 0 0
12.4 0 0
12.48 0 0
12.56 0 0
12.64 0 0
12.72 0 0
12.8 0 0
12.88 0 0
12.96 0 0
13.04 0 0
13.12 0 0
13.2 0 0
13.28 0 0
13.36 0 0
13.44 0 0
13.52 0 0
13.6 0 0
13.68 0 0
13.76 0 0
13.84 0 0
13.92 0 0
14 0 0
14.08 0 0
14.16 0 0
14.24 0 0
14.32 0 0
14.4 0 0
14.48 0 0
14.56 0 0
14.64 0 0
14.72 0 0
14.8 0 0
14.88 0 0
14.96 0 0
15.04 0 0
15.12 0 0
15.2 0 0
15.28 0 0
15.36 0 0
15.44 0 0
15.52 0 0
15.6 0 0
15.68 0 0
15.76 0 0
15.84 0 0
15.92 0 0
16 0 0
16.08 0 0
16.16 0 0
16.24 0 0
16.32 0 0
16.4 0 0
16.48 0 0
16.56 0 0
16.64 0 0
16.72 0 0
16.8 0 0
16.88 0 0
16.96 0 0
17.04 0 0
17.12 0 0
17.2 0 0
17.28 0 0
17.36 0 0
17.44 0 0
17.52 0 0
17.6 0 0
17.68 0 0
17.76 0 0
17.84 0 0
17.92 0 0
18 0 0
18.08 0 0
18.16 0 0
18.24 0 0
18.32 0 0
18.4 0 0
18.48 0 0
18.56 0 0
18.64 0 0
18.72 0 0
18.8 0 0
18.88 0 0
18.96 0 0
19.04 0 0
19.12 0 0
19.2 0 0
19.28 0 0
19.36 0 0
19.44 0 0
19.52 0 0
19.6 0 0
19.68 0 0
19.76 0 0
19.84 0 0
19.92 0 0
20 0 0
20.08 0 0
20.16 0 0
20.24 0 0
20.32 0 0
20.4 0 0
20.48 0 0
20.56 0 0
20.64 0 0
20.72 0 0
20.8 0 0
20.88 0 0
20.96 0 0
21.04 0 0
21.12 0 0
21.2 0 0
21.28 0 0
21.36 0 0
21.44 0 0
21.52 0 0
21.6 0 0
21.68 0 0
21.76 0 0
21.84 0 0
21.92 0 0
22 0 0
22.08 0 0
22.16 0 0
22.24 0 0
22.32 0 0
22.4 0 0
22.48 0 0
22.56 0 0
22.64 0 0
22.72 0 0
22.8 0 0
22.88 0 0
22.96 0 0
23.04 0 0
23.12 0 0
23.2 0 0
23.28 0 0
23.36 0 0
23.44 0 0
23.52 0 0
23.6 0 0
23.68 0 0
23.76 0 0
23.84 0 0
23.92 0 0
24 0 0
24.08 0 0
24.16 0 0
24.24 0 0
24.32 0 0
24.4 0 0
24.48 0 0
24.56 0 0
24.64 0 0
24.72 0 0
24.8 0 0
24.88 0 0
24.96 0 0
25.04 0 0
25.12 0 0
25.2 0 0
25.28 0 0
25.36 0 0
25.44 0 0
25.52 0 0
25.6 0 0
25.68 0 0
25.76 0 0
25.84 0 0
25.92 0 0
26 0 0
26.08 0 0
26.16 0 0
26.24 0 0
26.32 0 0
26.4 0 0
26.48 0 0
26.56 0 0
26.64 0 0
26.72 0 0
26.8 0 0
26.88 0 0
26.96 0 0
27.04 0 0
27.12 0 0
27.2 0 0
27.28 0 0
27.36 0 0
27.44 0 0
27.52 0 0
27.6 0 0
27.68 0 0
27.76 0 0
27.84 0 0
27.92 0 0
28 0 0
28.08 0 0
28.16 0 0
28.24 0 0
28.32 0 0
28.4 0 0
28.48 0 0
28.56 0 0
28.64 0 0
28.72 0 0
28.8 0 0
28.88 0 0
28.96 0 0
29.04 0 0
29.12 0 0
29.2 0 0
29.28 0 0
29.36 0 0
29.44 0 0
29.52 0 0
29.6 0 0
29.68 0 0
29.76 0 0
29.84 0 0
29.92 0 0
30 0 0
30.08 0 0
30.16 0 0
30.24 0 0
30.32 0 0
30.4 0 0
30.48 0 0
30.56 0 0
30.64 0 0
30.72 0 0
30.8 0 0
30.88 0 0
30.96 0 0
31.04 0 0
31.12 0 0
31.2 0 0
31.28 0 0
31.36 0 0
31.44 0 0
31.52 0 0
31.6 0 0
31.68 0 0
31.76 0 0
31.84 0 0
31.92 0 0
0 0.005 0
0.08 0.005 0
0.16 0.005 0
0.24 0.005 0
0.32 0.005 0
0.4 0.005 0
0.48 0.005 0
0.56 0.005 0
0.64 0.005 0
0.72 0.005 0
0.8 0.005 0
0.88 0.005 0
0.96 0.005 0
1.04 0.005 0
1.12 0.005 0
1.2 0.005 0
1.28 0.005 0
1.36 0.005 0
1.44 0.005 0
1.52 0.005 0
1.6 0.005 0
1.68 0.005 0
1.76 0.005 0
1.84 0.005 0
1.92 0.005 0
2 0.005 0
2.08 0.005 0
2.16 0.005 0
2.24 0.005 0
2.32 0.005 0
2.4 0.005 0
2.48 0.005 0
2.56 0.005 0
2.64 0.005 0
2.72 0.005 0
2.8 0.005 0
2.88 0.005 0
2.96 0.005 0
3.04 0.005 0
3.12 0.005 0
3.2 0.005 0
3.28 0.005 0
3.36 0.005 0
3.44 0.005 0
3.52 0.005 0
3.6 0.005 0
3.68 0.005 0
3.76 0.005 0
3.84 0.005 0
3.92 0.005 0
4 0.005 0
4.08 0.005 0
4.16 0.005 0
4.24 0.005 0
4.32 0.005 0
4.4 0.005 0
4.48 0.005 0
4.56 0.005 0
4.64 0.005 0
4.72 0.005 0
4.8 0.005 0
4.88 0.005 0
4.96 0.005 0
5.04 0.005 0
5.12 0.005 0
5.2 0.005 0
5.28 0.005 0
5.36 0.005 0
5.44 0.005 0
5.52 0.005 0
5.6 0.005 0
5.68 0.005 0
5.76 0.005 0
5.84 0.005 0
5.92 0.005 0
6 0.005 0
6.08 0.005 0
6.16 0.005 0
6.24 0.005 0
6.32 0.005 0
6.4 0.005 0
6.48 0.005 0
6.56 0.005 0
6.64 0.005 0
6.72 0.005 0
6.8 0.005 0
6.88 0.005 0
6.96 0.005 0
7.04 0.005 0
7.12 0.005 0
7.2 0.005 0
7.28 0.005 0
7.36 0.005 0
7.44 0.005 0
7.52 0.005 0
7.6 0.005 0
7.68 0.005 0
7.76 0.005 0
7.84 0.005 0
7.92 0.005 0
8 0.005 0
8.08 0.005 0
8.16 0.005 0
8.24 0.005 0
8.32 0.005 0
8.4 0.005 0
8.48 0.005 0
8.56 0.005 0
8.64 0.005 0
8.72 0.005 0
8.8 0.005 0
8.88 0.005 0
8.96 0.005 0
9.04 0.005 0
9.12 0.005 0
9.2 0.005 0
9.28 0.005 0
9.36 0.005 0
9.44 0.005 0
9.52 0.005 0
9.6 0.005 0
9.68 0.005 0
9.76 0.005 0
9.84 0.005 0
9.92 0.005 0
10 0.005 0
10.08 0.005 0
10.16 0.005 0
10.24 0.005 0
10.32 0.005 0
10.4 0.005 0
10.48 0.005 0
10.56 0.005 0
10.64 0.005 0
10.72 0.005 0
10.8 0.005 0
10.88 0.005 0
10.96 0.005 0
11.04 0.005 0
11.12 0.005 0
11.2 0.005 0
11.28 0.005 0
11.36 0.005 0
11.44 0.005 0
11.52 0.005 0
11.6 0.005 0
11.68 0.005 0
11.76 0.005 0
11.84 0.005 0
11.92 0.005 0
12 0.005 0
12.08 0.005 0
12.16 0.005 0
12.24 0.005 0
12.32 0.005 0
12.4 0.005 0
12.48 0.005 0
12.56 0.005 0
12.64 0.005 0
12.72 0.005 0
12.8 0.005 0
12.88 0.005 0
12.96 0.005 0
13.04 0.005 0
13.12 0.005 0
13.2 0.005 0
13.28 0.005 0
13.36 0.005 0
13.44 0.005 0
13.52 0.005 0
13.6 0.005 0
13.68 0.005 0
13.76 0.005 0
13.84 0.005 0
13.92 0.005 0
14 0.005 0
14.08 0.005 0
14.16 0.005 0
14.24 0.005 0
14.32 0.005 0
14.4 0.005 0
14.48 0.005 0
14.56 0.005 0
14.64 0.005 0
14.72 0.005 0
14.8 0.005 0
14.88 0.005 0
14.96 0.005 0
15.04 0.005 0
15.12 0.005 0
15.2 0.005 0
15.28 0.005 0
15.36 0.005 0
15.44 0.005 0
15.52 0.005 0
15.6 0.005 0
15.68 0.005 0
15.76 0.005 0
15.84 0.005 0
15.92 0.005 0
16 0.005 0
16.08 0.005 0
16.16 0.005 0
16.24 0.005 0
16.32 0.005 0
16.4 0.005 0
16.48 0.005 0
16.56 0.005 0
16.64 0.005 0
16.72 0.005 0
16.8 0.005 0
16.88 0.005 0
16.96 0.005 0
17.04 0.005 0
17.12 0.005 0
17.2 0.005 0
17.28 0.005 0
17.36 0.005 0
17.44 0.005 0
17.52 0.005 0
17.6 0.005 0
17.68 0.005 0
17.76 0.005 0
17.84 0.005 0
17.92 0.005 0
18 0.005 0
18.08 0.005 0
18.16 0.005 0
18.24 0.005 0
18.32 0.005 0
18.4 0.005 0
18.48 0.005 0
18.56 0.005 0
18.64 0.005 0
18.72 0.005 0
18.8 0.005 0
18.88 0.005 0
18.96 0.005 0
19.04 0.005 0
19.12 0.005 0
19.2 0.005 0
19.28 0.005 0
19.36 0.005 0
19.44 0.005 0
19.52 0.005 0
19.6 0.005 0
19.68 0.005 0
19.76 0.005 0
19.84 0.005 0
19.92 0.005 0
20 0.005 0
20.08 0.005 0
20.16 0.005 0
20.24 0.005 0
20.32 0.005 0
20.4 0.005 0
20.48 0.005 0
20.56 0.005 0
20.64 0.005 0
20.72 0.005 0
20.8 0.005 0
20.88 0.005 0
20.96 0.005 0
21.04 0.005 0
21.12 0.005 0
21.2 0.005 0
21.28 0.005 0
21.36 0.005 0
21.44 0.005 0
21.52 0.005 0
21.6 0.005 0
21.68 0.005 0
21.76 0.005 0
21.84 0.005 0
21.92 0.005 0
22 0.005 0
22.08 0.005 0
22.16 0.005 0
22.24 0.005 0
22.32 0.005 0
22.4 0.005 0
22.48 0.005 0
22.56 0.005 0
22.64 0.005 0
22.72 0.005 0
22.8 0.005 0
22.88 0.005 0
22.96 0.005 0
23.04 0.005 0
23.12 0.005 0
23.2 0.005 0
23.28 0.005 0
23.36 0.005 0
23.44 0.005 0
23.52 0.005 0
23.6 0.005 0
23.68 0.005 0
23.76 0.005 0
23.84 0.005 0
23.92 0.005 0
24 0.005 0
24.08 0.005 0
24.16 0.005 0
24.24 0.005 0
24.32 0.005 0
24.4 0.005 0
24.48 0.005 0
24.56 0.005 0
24.64 0.005 0
24.72 0.005 0
24.8 0.005 0
24.88 0.005 0
24.96 0.005 0
25.04 0.005 0
25.12 0.005 0
25.2 0.005 0
25.28 0.005 0
25.36 0.005 0
25.44 0.005 0
25.52 0.005 0
25.6 0.005 0
25.68 0.005 0
25.76 0.005 0
25.84 0.005 0
25.92 0.005 0
26 0.005 0
26.08 0.005 0
26.16 0.005 0
26.24 0.005 0
26.32 0.005 0
26.4 0.005 0
26.48 0.005 0
26.56 0.005 0
26.64 0.005 0
26.72 0.005 0
26.8 0.005 0
26.88 0.005 0
26.96 0.005 0
27.04 0.005 0
27.12 0.005 0
27.2 0.005 0
27.28 0.005 0
27.36 0.005 0
27.44 0.005 0
27.52 0.005 0
27.6 0.005 0
27.68 0.005 0
27.76 0.005 0
27.84 0.005 0
27.92 0.005 0
28 0.005 0
28.08 0.005 0
28.16 0.005 0
28.24 0.005 0
28.32 0.005 0
28.4 0.005 0
28.48 0.005 0
28.56 0.005 0
28.64 0.005 0
28.72 0.005 0
28.8 0.005 0
28.88 0.005 0
28.96 0.005 0
29.04 0.005 0
29.12 0.005 0
29.2 0.005 0
29.28 0.005 0
29.36 0.005 0
29.44 0.005 0
29.52 0.005 0
29.6 0.005 0
29.68 0.005 0
29.76 0.005 0
29.84 0.005 0
29.92 0.005 0
30 0.005 0
30.08 0.005 0
30.16 0.005 0
30.24 0.005 0
30.32 0.005 0
30.4 0.005 0
30.48 0.005 0
30.56 0.005 0
30.64 0.005 0
30.72 0.005 0
30.8 0.005 0
30.88 0.005 0
30.96 0.005 0
31.04 0.005 0
31.12 0.005 0
31.2 0.005 0
31.28 0.005 0
31.36 0.005 0
31.44 0.005 0
31.52 0.005 0
31.6 0.005 0
31.68 0.005 0
31.76 0.005 0
31.84 0.005 0
31.92 0.005 0
0 0.01 0
0.08 0.01 0
0.16 0.01 0
0.24 0.01 0
0.32 0.01 0
0.4 0.01 0
0.48 0.01 0
0.56 0.01 0
0.64 0.01 0
0.72 0.01 0
0.8 0.01 0
0.88 0.01 0
0.96 0.01 0
1.04 0.01 0
1.12 0.01 0
1.2 0.01 0
1.28 0.01 0
1.36 0.01 0
1.44 0.01 0
1.52 0.01 0
1.6 0.01 0
1.68 0.01 0
1.76 0.01 0
1.84 0.01 0
1.92 0.01 0
2 0.01 0
2.08 0.01 0
2.16 0.01 0
2.24 0.01 0
2.32 0.01 0
2.4 0.01 0
2.48 0.01 0
2.56 0.01 0
2.64 0.01 0
2.72 0.01 0
2.8 0.01 0
2.88 0.01 0
2.96 0.01 0
3.04 0.01 0
3.12 0.01 0
3.2 0.01 0
3.28 0.01 0
3.36 0.01 0
3.44 0.01 0
3.52 0.01 0
3.6 0.01 0
3.68 0.01 0
3.76 0.01 0
3.84 0.01 0
3.92 0.01 0
4 0.01 0
4.08 0.01 0
4.16 0.01 0
4.24 0.01 0
4.32 0.01 0
4.4 0.01 0
4.48 0.01 0
4.56 0.01 0
4.64 0.01 0
4.72 0.01 0
4.8 0.01 0
4.88 0.01 0
4.96 0.01 0
5.04 0.01 0
5.12 0.01 0
[...]
POINT_DATA 80000

SCALARS u float 1
LOOKUP_TABLE default
0
-0.131663
-0.0682695
-0.0522964
-0.0444203
-0.0395772
-0.0362602
-0.0338332
-0.0319732
-0.0304966
-0.0292906
-0.0282823
-0.0274228
-0.0266782
-0.0260243
-0.0254434
-0.0249226
-0.0244517
-0.0240231
-0.0236307
-0.0232697
-0.022936
-0.0226265
-0.0223384
-0.0220694
-0.0218176
-0.0215812
-0.0213589
-0.0211492
-0.0209513
-0.0207641
-0.0205868
-0.0204186
-0.0202587
-0.0201067
-0.0199619
-0.0198242
-0.019693
-0.0195681
-0.0194488
-0.0193349
-0.0192263
-0.0191231
-0.0190254
-0.0189332
-0.0188465
-0.0187653
-0.0186894
-0.0186189
-0.0185539
-0.0184943
-0.0184402
-0.018391
-0.0183462
-0.0183051
-0.018267
-0.0182314
-0.0181984
-0.0181679
-0.0181401
-0.018115
-0.0180925
-0.0180722
-0.0180538
-0.0180368
-0.0180208
-0.0180056
-0.0179912
-0.0179778
-0.0179656
-0.0179547
-0.0179454
-0.0179377
-0.0179316
-0.017927
-0.0179237
-0.0179214
-0.0179201
-0.0179194
-0.0179192
-0.0179193
-0.0179197
-0.0179202
-0.0179208
-0.0179215
-0.0179222
-0.017923
-0.0179237
-0.0179245
-0.0179253
-0.0179262
-0.017927
-0.0179278
-0.0179286
-0.0179294
-0.0179303
-0.0179311
-0.0179319
-0.0179328
-0.0179336
-0.0179344
-0.0179352
-0.0179361
-0.0179369
-0.0179377
-0.0179386
-0.0179394
-0.0179402
-0.0179411
-0.0179419
-0.0179427
-0.0179436
-0.0179444
-0.0179452
-0.0179461
-0.0179469
-0.0179477
-0.0179486
-0.0179494
-0.0179503
-0.0179511
-0.0179519
-0.0179528
-0.0179536
-0.0179545
-0.0179553
-0.0179561
-0.017957
-0.0179578
-0.0179587
-0.0179595
-0.0179603
-0.0179612
-0.017962
-0.0179629
-0.0179637
-0.0179646
-0.0179654
-0.0179663
-0.0179671
-0.017968
-0.0179688
-0.0179697
-0.0179705
-0.0179714
-0.0179722
-0.0179731
-0.0179739
-0.0179748
-0.0179756
-0.0179765
-0.0179773
-0.0179782
-0.017979
-0.0179799
-0.0179807
-0.0179816
-0.0179825
-0.0179833
-0.0179842
-0.017985
-0.0179859
-0.0179867
-0.0179876
-0.0179885
-0.0179893
-0.0179902
-0.017991
-0.0179919
-0.0179928
-0.0179936
-0.0179945
-0.0179954
-0.0179962
-0.0179971
-0.0179979
-0.0179988
-0.0179997
-0.0180005
-0.0180014
-0.0180023
-0.0180031
-0.018004
-0.0180049
-0.0180057
-0.0180066
-0.0180075
-0.0180084
-0.0180092
-0.0180101
-0.018011
-0.0180118
-0.0180127
-0.0180136
-0.0180145
-0.0180153
-0.0180162
-0.0180171
-0.018018
-0.0180188
-0.0180197
-0.0180206
-0.0180215
-0.0180224
-0.0180232
-0.0180241
-0.018025
-0.0180259
-0.0180267
-0.0180276
-0.0180285
-0.0180294
-0.0180303
-0.0180312
-0.018032
-0.0180329
-0.0180338
-0.0180347
-0.0180356
-0.0180365
-0.0180374
-0.0180382
-0.0180391
-0.01804
-0.0180409
-0.0180418
-0.0180427
-0.0180436
-0.0180445
-0.0180454
-0.0180463
-0.0180471
-0.018048
-0.0180489
-0.0180498
-0.0180507
-0.0180516
-0.0180525
-0.0180534
-0.0180543
-0.0180552
-0.0180561
-0.018057
-0.0180579
-0.0180588
-0.0180597
-0.0180606
-0.0180615
-0.0180624
-0.0180633
-0.0180642
-0.0180651
-0.018066
-0.0180669
-0.0180678
-0.0180687
-0.0180696
-0.0180705
-0.0180714
-0.0180723
-0.0180732
-0.0180742
-0.0180751
-0.018076
-0.0180769
-0.0180778
-0.0180787
-0.0180796
-0.0180805
-0.0180814
-0.0180824
-0.0180833
-0.0180842
-0.0180851
-0.018086
-0.0180869
-0.0180878
-0.0180888
-0.0180897
-0.0180906
-0.0180915
-0.0180924
-0.0180933
-0.0180943
-0.0180952
-0.0180961
-0.018097
-0.0180979
-0.0180989
-0.0180998
-0.0181007
-0.0181016
-0.0181026
-0.0181035
-0.0181044
-0.0181053
-0.0181063
-0.0181072
-0.0181081
-0.0181091
-0.01811
-0.0181109
-0.0181118
-0.0181128
-0.0181137
-0.0181146
-0.0181156
-0.0181165
-0.0181174
-0.0181184
-0.0181193
-0.0181202
-0.0181212
-0.0181221
-0.018123
-0.018124
-0.0181249
-0.0181259
-0.0181268
-0.0181277
-0.0181287
-0.0181296
-0.0181306
-0.0181315
-0.0181324
-0.0181334
-0.0181343
-0.0181353
-0.0181362
-0.0181372
-0.0181381
-0.018139
-0.01814
-0.0181409
-0.0181419
-0.0181428
-0.0181438
-0.0181447
-0.0181457
-0.0181466
-0.0181476
-0.0181485
-0.0181495
-0.0181504
-0.0181514
-0.0181524
-0.0181533
-0.0181543
-0.0181552
-0.0181562
-0.0181571
-0.0181581
-0.018159
-0.01816
-0.018161
-0.0181619
-0.0181629
-0.0181638
-0.0181648
-0.0181658
-0.0181667
-0.0181677
-0.0181687
-0.0181696
-0.0181706
-0.0181716
-0.0181725
-0.0181735
-0.0181744
-0.0181754
-0.0181764
-0.0181774
-0.0181783
-0.0181793
-0.0181803
-0.0181812
-0.0181822
-0.0181832
-0.0181842
-0.0181851
-0.0181861
-0.0181871
-0.018188
-0.018189
-0.01819
-0.018191
-0.018192
-0.018193
-0.0181939
-0.0181949
-0.0181959
-0.0181969
-0.0181979
-0.0181988
-0.0182001
-0.0182006
-0.0182023
-0.0182007
-0.0182007
-0.0182007
1
0.131663
0.0682695
0.0522964
0.0444203
0.0395772
0.0362602
0.0338332
0.0319732
0.0304966
0.0292906
0.0282823
0.0274228
0.0266782
0.0260243
0.0254434
0.0249226
0.0244517
0.0240231
0.0236307
0.0232697
0.022936
0.0226265
0.0223384
0.0220694
0.0218176
0.0215812
0.0213589
0.0211492
0.0209513
0.0207641
0.0205868
0.0204186
0.0202587
0.0201067
0.0199619
0.0198242
0.019693
0.0195681
0.0194488
0.0193349
0.0192263
0.0191231
0.0190254
0.0189332
0.0188465
0.0187653
0.0186894
0.0186189
0.0185539
0.0184943
0.0184402
0.018391
0.0183462
0.0183051
0.018267
0.0182314
0.0181984
0.0181679
0.0181401
0.018115
0.0180925
0.0180722
0.0180538
0.0180368
0.0180208
0.0180056
0.0179912
0.0179778
0.0179656
0.0179547
0.0179454
0.0179377
0.0179316
0.017927
0.0179237
0.0179214
0.0179201
0.0179194
0.0179192
0.0179193
0.0179197
0.0179202
0.0179208
0.0179215
0.0179222
0.017923
0.0179237
0.0179245
0.0179253
0.0179262
0.017927
0.0179278
0.0179286
0.0179294
0.0179303
0.0179311
0.0179319
0.0179328
0.0179336
0.0179344
0.0179352
0.0179361
0.0179369
0.0179377
0.0179386
0.0179394
0.0179402
0.0179411
0.0179419
0.0179427
0.0179436
0.0179444
0.0179452
0.0179461
0.0179469
0.0179477
0.0179486
0.0179494
0.0179503
0.0179511
0.0179519
0.0179528
0.0179536
0.0179545
0.0179553
0.0179561
0.017957
0.0179578
0.0179587
0.0179595
0.0179603
0.0179612
0.017962
0.0179629
0.0179637
0.0179646
0.0179654
0.0179663
0.0179671
0.017968
0.0179688
0.0179697
0.0179705
0.0179714
0.0179722
0.0179731
0.0179739
0.0179748
0.0179756
0.0179765
0.0179773
0.0179782
0.017979
0.0179799
0.0179807
0.0179816
0.0179825
0.0179833
0.0179842
0.017985
0.0179859
0.0179867
0.0179876
0.0179885
0.0179893
0.0179902
0.017991
0.0179919
0.0179928
0.0179936
0.0179945
0.0179954
0.0179962
0.0179971
0.0179979
0.0179988
0.0179997
0.0180005
0.0180014
0.0180023
0.0180031
0.018004
0.0180049
0.0180057
0.0180066
0.0180075
0.0180084
0.0180092
0.0180101
0.018011
0.0180118
0.0180127
0.0180136
0.0180145
0.0180153
0.0180162
0.0180171
0.018018
0.0180188
0.0180197
0.0180206
0.0180215
0.0180224
0.0180232
0.0180241
0.018025
0.0180259
0.0180267
0.0180276
0.0180285
0.0180294
0.0180303
0.0180312
0.018032
0.0180329
0.0180338
0.0180347
0.0180356
0.0180365
0.0180374
0.0180382
0.0180391
0.01804
0.0180409
0.0180418
0.0180427
0.0180436
0.0180445
0.0180454
0.0180463
0.0180471
0.018048
0.0180489
0.0180498
0.0180507
0.0180516
0.0180525
0.0180534
0.0180543
0.0180552
0.0180561
0.018057
0.0180579
0.0180588
0.0180597
0.0180606
0.0180615
0.0180624
0.0180633
0.0180642
0.0180651
0.018066
0.0180669
0.0180678
0.0180687
0.0180696
0.0180705
0.0180714
0.0180723
0.0180732
0.0180742
0.0180751
0.018076
0.0180769
0.0180778
0.0180787
0.0180796
0.0180805
0.0180814
0.0180824
0.0180833
0.0180842
0.0180851
0.018086
0.0180869
0.0180878
0.0180888
0.0180897
0.0180906
0.0180915
0.0180924
0.0180933
0.0180943
0.0180952
0.0180961
0.018097
0.0180979
0.0180989
0.0180998
0.0181007
0.0181016
0.0181026
0.0181035
0.0181044
0.0181053
0.0181063
0.0181072
0.0181081
0.0181091
0.01811
0.0181109
0.0181118
0.0181128
0.0181137
0.0181146
0.0181156
0.0181165
0.0181174
0.0181184
0.0181193
0.0181202
0.0181212
0.0181221
0.018123
0.018124
0.0181249
0.0181259
0.0181268
0.0181277
0.0181287
0.0181296
0.0181306
0.0181315
0.0181324
0.0181334
0.0181343
0.0181353
0.0181362
0.0181372
0.0181381
0.018139
0.01814
0.0181409
0.0181419
0.0181428
0.0181438
0.0181447
0.0181457
0.0181466
0.0181476
0.0181485
0.0181495
0.0181504
0.0181514
0.0181524
0.0181533
0.0181543
0.0181552
0.0181562
0.0181571
0.0181581
0.018159
0.01816
0.018161
0.0181619
0.0181629
0.0181638
0.0181648
0.0181658
0.0181667
0.0181677
0.0181687
0.0181696
0.0181706
0.0181716
0.0181725
0.0181735
0.0181744
0.0181754
0.0181764
0.0181774
0.0181783
0.0181793
0.0181803
0.0181812
0.0181822
0.0181832
0.0181842
0.0181851
0.0181861
0.0181871
0.018188
0.018189
0.01819
0.018191
0.018192
0.018193
0.0181939
0.0181949
0.0181959
0.0181969
0.0181979
0.0181988
0.0182001
0.0182006
0.0182023
0.0182007
0.0182007
0.0182007
1
0.344884
0.200668
0.154968
0.131896
0.1176
0.107769
0.10056
0.0950268
0.090631
0.08704
0.0840381
0.0814802
0.0792651
0.0773208
0.0755947
0.0740477
0.0726498
0.0713781
0.0702143
0.0691439
0.068155
0.0672378
0.0663843
0.0655877
0.064842
0.0641423
0.0634841
0.0628638
0.0622782
0.0617244
0.0612
0.0607025
0.0602298
0.0597803
0.0593527
0.0589459
0.0585587
0.0581898
0.057838
0.0575025
0.0571829
0.0568796
0.0565927
0.0563225
0.0560689
0.0558315
0.0556103
0.0554053
0.0552165
0.0550439
0.054887
0.0547445
0.0546145
0.0544949
0.0543841
0.0542811
0.0541855
0.0540974
0.0540172
0.0539448
0.0538798
0.0538212
0.0537677
0.0537182
0.0536718
0.053628
0.0535869
0.0535489
0.0535144
0.0534842
0.0534585
0.0534376
0.0534212
0.0534089
0.0534003
0.0533946
0.0533913
0.0533897
0.0533894
0.05339
0.0533913
0.0533929
0.0533948
0.0533969
0.0533991
0.0534014
0.0534037
0.0534061
0.0534085
0.0534109
0.0534133
0.0534158
0.0534182
0.0534207
0.0534232
0.0534256
0.0534281
0.0534306
0.053433
0.0534355
0.053438
0.0534404
0.0534429
0.0534454
0.0534479
0.0534504
0.0534528
0.0534553
0.0534578
0.0534603
0.0534628
0.0534653
0.0534678
0.0534703
0.0534728
0.0534752
0.0534777
0.0534802
0.0534827
0.0534852
0.0534877
0.0534902
0.0534927
0.0534953
0.0534978
0.0535003
0.0535028
0.0535053
0.0535078
0.0535103
0.0535128
0.0535154
0.0535179
0.0535204
0.0535229
0.0535254
0.053528
0.0535305
0.053533
0.0535355
0.0535381
0.0535406
0.0535431
0.0535457
0.0535482
0.0535507
0.0535533
0.0535558
0.0535584
0.0535609
0.0535634
0.053566
0.0535685
0.0535711
0.0535736
0.0535762
0.0535787
0.0535813
0.0535838
0.0535864
0.053589
0.0535915
0.0535941
0.0535966
0.0535992
0.0536018
0.0536043
0.0536069
0.0536095
0.053612
0.0536146
0.0536172
0.0536198
0.0536223
0.0536249
0.0536275
0.0536301
0.0536327
0.0536352
0.0536378
0.0536404
0.053643
0.0536456
0.0536482
0.0536508
0.0536534
0.053656
0.0536585
0.0536611
0.0536637
0.0536663
0.0536689
0.0536716
0.0536742
0.0536768
0.0536794
0.053682
0.0536846
0.0536872
0.0536898
0.0536924
0.053695
0.0536977
0.0537003
0.0537029
0.0537055
0.0537082
0.0537108
0.0537134
0.053716
0.0537187
0.0537213
0.0537239
0.0537266
0.0537292
0.0537318
0.0537345
0.0537371
0.0537398
0.0537424
0.053745
0.0537477
0.0537503
0.053753
0.0537556
0.0537583
0.0537609
0.0537636
0.0537663
0.0537689
0.0537716
0.0537742
0.0537769
0.0537796
0.0537822
0.0537849
0.0537876
0.0537902
0.0537929
0.0537956
0.0537983
0.0538009
0.0538036
0.0538063
0.053809
0.0538117
0.0538143
0.053817
0.0538197
0.0538224
0.0538251
0.0538278
0.0538305
0.0538332
0.0538359
0.0538386
0.0538413
0.053844
0.0538467
0.0538494
0.0538521
0.0538548
0.0538575
0.0538602
0.0538629
0.0538656
0.0538684
0.0538711
0.0538738
0.0538765
0.0538792
0.053882
0.0538847
0.0538874
0.0538901
0.0538929
0.0538956
0.0538983
0.0539011
0.0539038
0.0539065
0.0539093
0.053912
0.0539148
0.0539175
0.0539202
0.053923
0.0539257
0.0539285
0.0539312
0.053934
0.0539368
0.0539395
0.0539423
0.053945
0.0539478
0.0539506
0.0539533
0.0539561
0.0539588
0.0539616
0.0539644
0.0539672
0.0539699
0.0539727
0.0539755
0.0539783
0.053981
0.0539838
0.0539866
0.0539894
0.0539922
0.053995
0.0539978
0.0540006
0.0540034
0.0540061
0.0540089
0.0540117
0.0540145
0.0540173
0.0540202
0.054023
0.0540258
0.0540286
0.0540314
0.0540342
0.054037
0.0540398
0.0540426
0.0540455
0.0540483
0.0540511
0.0540539
0.0540567
0.0540596
0.0540624
0.0540652
0.0540681
0.0540709
0.0540737
0.0540766
0.0540794
0.0540823
0.0540851
0.0540879
0.0540908
0.0540936
0.0540965
0.0540993
0.0541022
0.054105
0.0541079
0.0541107
0.0541136
0.0541165
0.0541193
0.0541222
0.0541251
0.0541279
0.0541308
0.0541337
0.0541365
0.0541394
0.0541423
0.0541452
0.0541481
0.0541509
0.0541538
0.0541567
0.0541596
0.0541625
0.0541654
0.0541683
0.0541712
0.054174
0.054177
0.0541798
0.0541828
0.0541856
0.0541886
0.0541914
0.0541944
0.0541973
0.0542002
0.0542031
0.0542061
0.054209
0.0542119
0.0542149
0.0542177
0.0542209
0.0542235
0.0542272
0.054229
0.0542337
0.05423
0.05423
0.05423
1
0.518766
0.327403
0.255349
0.217851
0.194406
0.178214
0.16631
0.157161
0.149887
0.143942
0.138973
0.134739
0.131074
0.127858
0.125004
0.122447
0.120138
0.118038
0.116116
0.11435
0.112718
0.111205
0.109797
0.108483
0.107254
0.1061
0.105015
0.103993
0.103027
0.102115
0.101251
0.100431
0.099653
0.0989129
0.098209
0.0975395
0.0969024
0.0962956
0.0957173
0.0951661
0.0946416
0.0941443
0.0936744
0.0932323
0.0928177
0.0924303
0.0920697
0.091736
0.0914292
0.0911491
0.0908944
0.0906629
0.0904516
0.0902572
0.0900772
0.0899099
0.0897549
0.0896124
0.0894826
0.0893655
0.0892601
0.0891649
0.089078
0.0889975
0.0889222
0.0888515
0.0887855
0.0887248
0.0886703
0.0886228
0.0885829
0.0885505
0.0885254
0.0885068
0.0884939
0.0884855
0.0884808
0.0884788
0.0884787
0.08848
0.0884822
0.0884851
0.0884883
0.0884918
0.0884955
0.0884992
0.0885031
0.0885071
0.0885111
0.0885151
0.0885191
0.0885232
0.0885272
0.0885313
0.0885354
0.0885395
0.0885436
0.0885477
0.0885518
0.0885559
0.08856
0.0885641
0.0885682
0.0885723
0.0885764
0.0885805
0.0885846
0.0885887
0.0885928
0.0885969
0.0886011
0.0886052
0.0886093
0.0886134
0.0886176
0.0886217
0.0886258
0.08863
0.0886341
0.0886382
0.0886424
0.0886465
0.0886507
0.0886548
0.088659
0.0886631
0.0886673
0.0886715
0.0886756
0.0886798
0.088684
0.0886881
0.0886923
0.0886965
0.0887007
0.0887048
0.088709
0.0887132
0.0887174
0.0887216
0.0887258
0.0887299
0.0887341
0.0887383
0.0887425
0.0887467
0.0887509
0.0887552
0.0887594
0.0887636
0.0887678
0.088772
0.0887762
0.0887804
0.0887847
0.0887889
0.0887931
0.0887973
0.0888016
0.0888058
0.08881
0.0888143
0.0888185
0.0888228
0.088827
0.0888313
0.0888355
0.0888398
0.088844
0.0888483
0.0888525
0.0888568
0.0888611
0.0888653
0.0888696
0.0888739
0.0888782
0.0888824
0.0888867
0.088891
0.0888953
0.0888996
0.0889038
0.0889081
0.0889124
0.0889167
0.088921
0.0889253
0.0889296
0.0889339
0.0889382
0.0889425
0.0889469
0.0889512
0.0889555
0.0889598
0.0889641
0.0889685
0.0889728
0.0889771
0.0889814
0.0889858
0.0889901
0.0889945
0.0889988
0.0890031
0.0890075
0.0890118
0.0890162
0.0890205
0.0890249
0.0890292
0.0890336
0.089038
0.0890423
0.0890467
0.0890511
0.0890555
0.0890598
0.0890642
0.0890686
0.089073
0.0890774
0.0890817
0.0890861
0.0890905
0.0890949
0.0890993
0.0891037
0.0891081
0.0891125
0.0891169
0.0891213
0.0891258
0.0891302
0.0891346
0.089139
0.0891434
0.0891479
0.0891523
0.0891567
0.0891612
0.0891656
0.08917
0.0891745
0.0891789
0.0891834
0.0891878
0.0891923
0.0891967
0.0892012
0.0892056
0.0892101
0.0892145
0.089219
0.0892235
0.0892279
0.0892324
0.0892369
0.0892414
0.0892459
0.0892503
0.0892548
0.0892593
0.0892638
0.0892683
0.0892728
0.0892773
0.0892818
0.0892863
0.0892908
0.0892953
0.0892998
0.0893043
0.0893089
0.0893134
0.0893179
0.0893224
0.089327
0.0893315
0.089336
0.0893406
0.0893451
0.0893496
0.0893542
0.0893587
0.0893633
0.0893678
0.0893724
0.0893769
0.0893815
0.0893861
0.0893906
0.0893952
0.0893998
0.0894043
0.0894089
0.0894135
0.0894181
0.0894226
0.0894272
0.0894318
0.0894364
0.089441
0.0894456
0.0894502
0.0894548
0.0894594
0.089464
0.0894686
0.0894732
0.0894778
0.0894825
0.0894871
0.0894917
0.0894963
0.089501
0.0895056
0.0895102
0.0895149
0.0895195
0.0895241
0.0895288
0.0895334
0.0895381
0.0895427
0.0895474
0.0895521
0.0895567
0.0895614
0.089566
0.0895707
0.0895754
0.0895801
0.0895847
0.0895894
0.0895941
0.0895988
0.0896035
0.0896082
0.0896129
0.0896176
0.0896223
0.089627
0.0896317
0.0896364
0.0896411
0.0896458
0.0896505
0.0896552
0.0896599
0.0896647
0.0896694
0.0896741
0.0896789
0.0896836
0.0896883
0.0896931
0.0896978
0.0897026
0.0897073
0.0897121
0.0897168
0.0897216
0.0897264
0.0897311
0.0897359
0.0897406
0.0897454
0.0897502
0.089755
0.0897597
0.0897646
0.0897693
0.0897742
0.0897789
0.0897837
0.0897885
0.0897934
0.0897981
0.089803
0.0898077
0.0898126
0.0898173
0.0898222
0.089827
0.0898319
0.0898367
0.0898416
0.0898465
0.0898512
0.0898564
0.0898608
0.0898668
0.0898699
0.0898776
0.0898724
0.0898724
0.0898724
1
0.660888
0.446896
0.35288
0.302032
0.269853
0.247505
0.231022
0.218332
0.20823
0.199971
0.193065
0.187182
0.18209
0.177623
0.173661
0.170112
0.166908
0.163994
0.16133
0.15888
0.156618
0.154522
0.152571
0.150751
0.149048
0.14745
0.145948
0.144532
0.143196
0.141933
0.140737
0.139603
0.138526
0.137502
0.136528
0.135603
0.134722
0.133883
0.133084
0.132323
0.1316
0.130914
0.130267
0.129659
0.129089
0.128558
0.128063
0.127606
0.127187
0.126804
0.126456
0.12614
0.125851
0.125585
0.125338
0.12511
0.124898
0.124704
0.124527
0.124368
0.124224
0.124094
0.123975
0.123865
0.123762
0.123666
0.123577
0.123495
0.123422
0.12336
0.123307
0.123265
0.123232
0.123209
0.123192
0.123182
0.123176
0.123174
0.123175
0.123177
0.12318
0.123184
0.123189
0.123193
0.123199
0.123204
0.123209
0.123215
0.12322
0.123226
0.123232
0.123237
0.123243
0.123249
0.123254
0.12326
0.123266
0.123271
0.123277
0.123283
0.123288
0.123294
0.1233
0.123305
0.123311
0.123317
0.123323
0.123328
0.123334
0.12334
0.123346
0.123351
0.123357
0.123363
0.123368
0.123374
0.12338
0.123386
0.123391
0.123397
0.123403
0.123409
0.123415
0.12342
0.123426
0.123432
0.123438
0.123443
0.123449
0.123455
0.123461
0.123467
0.123472
0.123478
0.123484
0.12349
0.123496
0.123501
0.123507
0.123513
0.123519
0.123525
0.123531
0.123536
0.123542
0.123548
0.123554
0.12356
0.123566
0.123571
0.123577
0.123583
0.123589
0.123595
0.123601
0.123607
0.123613
0.123618
0.123624
0.12363
0.123636
0.123642
0.123648
0.123654
0.12366
0.123666
0.123671
0.123677
0.123683
0.123689
0.123695
0.123701
0.123707
0.123713
0.123719
0.123725
0.123731
0.123737
0.123743
0.123749
0.123755
0.123761
0.123766
0.123772
0.123778
0.123784
0.12379
0.123796
0.123802
0.123808
0.123814
0.12382
0.123826
0.123832
0.123838
0.123844
0.12385
0.123856
0.123862
0.123868
0.123874
0.12388
0.123886
0.123892
0.123898
0.123905
0.123911
0.123917
0.123923
0.123929
0.123935
0.123941
0.123947
0.123953
0.123959
0.123965
0.123971
0.123977
0.123983
0.123989
0.123995
0.124002
0.124008
0.124014
0.12402
0.124026
0.124032
0.124038
0.124044
0.12405
0.124057
0.124063
0.124069
0.124075
0.124081
0.124087
0.124093
0.1241
0.124106
0.124112
0.124118
0.124124
0.12413
0.124137
0.124143
0.124149
0.124155
0.124161
0.124167
0.124174
0.12418
0.124186
0.124192
0.124198
0.124205
0.124211
0.124217
0.124223
0.124229
0.124236
0.124242
0.124248
0.124254
0.124261
0.124267
0.124273
0.124279
0.124286
0.124292
0.124298
0.124304
0.124311
0.124317
0.124323
0.124329
0.124336
0.124342
0.124348
0.124355
0.124361
0.124367
0.124374
0.12438
0.124386
0.124392
0.124399
0.124405
0.124411
0.124418
0.124424
0.12443
0.124437
0.124443
0.124449
0.124456
0.124462
0.124469
0.124475
0.124481
0.124488
0.124494
0.1245
0.124507
0.124513
0.12452
0.124526
0.124532
0.124539
0.124545
0.124551
0.124558
0.124564
0.124571
0.124577
0.124584
0.12459
0.124596
0.124603
0.124609
0.124616
0.124622
0.124629
0.124635
0.124642
0.124648
0.124654
0.124661
0.124667
0.124674
0.12468
0.124687
0.124693
0.1247
0.124706
0.124713
0.124719
0.124726
0.124732
0.124739
0.124745
0.124752
0.124758
0.124765
0.124771
0.124778
0.124785
0.124791
0.124798
0.124804
0.124811
0.124817
0.124824
0.12483
0.124837
0.124844
0.12485
0.124857
0.124863
0.12487
0.124877
0.124883
0.12489
0.124896
0.124903
0.12491
0.124916
0.124923
0.124929
0.124936
0.124943
0.124949
0.124956
0.124963
0.124969
0.124976
0.124983
0.124989
0.124996
0.125003
0.125009
0.125016
0.125023
0.125029
0.125036
0.125043
0.125049
0.125056
0.125063
0.12507
0.125076
0.125083
0.12509
0.125096
0.125105
0.125109
0.125119
0.125114
0.125114
0.125114
1
0.776803
0.557827
0.44688
0.384104
0.343747
0.315514
0.294609
0.278474
0.265612
0.255087
0.246284
0.238783
0.232291
0.226598
0.221548
0.217027
0.212946
0.209236
0.205845
0.202727
0.199849
0.197181
0.1947
0.192385
0.19022
0.188188
0.186278
0.184478