# vtk DataFile Version 2.0
FlowField
ASCII
DATASET STRUCTURED_GRID
DIMENSIONS 400 1 200
POINTS 80000 float
0 0 0
0.08 0 0
0.16 0 0
0.24 0 0
0.32 0 0
0.4 0 0
0.48 0 0
0.56 0 0
0.64 0 0
0.72 0 0
0.8 0 0
0.88 0 0
0.96 0 0
1.04 0 0
1.12 0 0
1.2 0 0
1.28 0 0
1.36 0 0
1.44 0 0
1.52 0 0
1.6 0 0
1.68 0 0
1.76 0 0
1.84 0 0
1.92 0 0
2 0 0
2.08 0 0
2.16 0 0
2.24 0 0
2.32 0 0
2.4 0 0
2.48 0 0
2.56 0 0
2.64 0 0
2.72 0 0
2.8 0 0
2.88 0 0
2.96 0 0
3.04 0 0
3.12 0 0
3.2 0 0
3.28 0 0
3.36 0 0
3.44 0 0
3.52 0 0
3.6 0 0
3.68 0 0
3.76 0 0
3.84 0 0
3.92 0 0
4 0 0
4.08 0 0
4.16 0 0
4.24 0 0
4.32 0 0
4.4 0 0
4.48 0 0
4.56 0 0
4.64 0 0
4.72 0 0
4.8 0 0
4.88 0 0
4.96 0 0
5.04 0 0
5.12 0 0
5.2 0 0
5.28 0 0
5.36 0 0
5.44 0 0
5.52 0 0
5.6 0 0
5.68 0 0
5.76 0 0
5.84 0 0
5.92 0 0
6 0 0
6.08 0 0
6.16 0 0
6.24 0 0
6.32 0 0
6.4 0 0
6.48 0 0
6.56 0 0
6.64 0 0
6.72 0 0
6.8 0 0
6.88 0 0
6.96 0 0
7.04 0 0
7.12 0 0
7.2 0 0
7.28 0 0
7.36 0 0
7.44 0 0
7.52 0 0
7.6 0 0
7.68 0 0
7.76 0 0
7.84 0 0
7.92 0 0
8 0 0
8.08 0 0
8.16 0 0
8.24 0 0
8.32 0 0
8.4 0 0
8.48 0 0
8.56 0 0
8.64 0 0
8.72 0 0
8.8 0 0
8.88 0 0
8.96 0 0
9.04 0 0
9.12 0 0
9.2 0 0
9.28 0 0
9.36 0 0
9.44 0 0
9.52 0 0
9.6 0 0
9.68 0 0
9.76 0 0
9.84 0 0
9.92 0 0
10 0 0
10.08 0 0
10.16 0 0
10.24 0 0
10.32 0 0
10.4 0 0
10.48 0 0
10.56 0 0
10.64 0 0
10.72 0 0
10.8 0 0
10.88 0 0
10.96 0 0
11.04 0 0
11.12 0 0
11.2 0 0
11.28 0 0
11.36 0 0
11.44 0 0
11.52 0 0
11.6 0 0
11.68 0 0
11.76 0 0
11.84 0 0
11.92 0 0
12 0 0
12.08 0 0
12.16 0 0
12.24 0 0
12.32 0 0
12.4 0 0
12.48 0 0
12.56 0 0
12.64 0 0
12.72 0 0
12.8 0 0
12.88 0 0
12.96 0 0
13.04 0 0
13.12 0 0
13.2 0 0
13.28 0 0
13.36 0 0
13.44 0 0
13.52 0 0
13.6 0 0
13.68 0 0
13.76 0 0
13.84 0 0
13.92 0 0
14 0 0
14.08 0 0
14.16 0 0
14.24 0 0
14.32 0 0
14.4 0 0
14.48 0 0
14.56 0 0
14.64 0 0
14.72 0 0
14.8 0 0
14.88 0 0
14.96 0 0
15.04 0 0
15.12 0 0
15.2 0 0
15.28 0 0
15.36 0 0
15.44 0 0
15.52 0 0
15.6 0 0
15.68 0 0
15.76 0 0
15.84 0 0
15.92 0 0
16 0 0
16.08 0 0
16.16 0 0
16.24 0 0
16.32 0 0
16.4 0 0
16.48 0 0
16.56 0 0
16.64 0 0
16.72 0 0
16.8 0 0
16.88 0 0
16.96 0 0
17.04 0 0
17.12 0 0
17.2 0 0
17.28 0 0
17.36 0 0
17.44 0 0
17.52 0 0
17.6 0 0
17.68 0 0
17.76 0 0
17.84 0 0
17.92 0 0
18 0 0
18.08 0 0
18.16 0 0
18.24 0 0
18.32 0 0
18.4 0 0
18.48 0 0
18.56 0 0
18.64 0 0
18.72 0 0
18.8 0 0
18.88 0 0
18.96 0 0
19.04 0 0
19.12 0 0
19.2 0 0
19.28 0 0
19.36 0 0
19.44 0 0
19.52 0 0
19.6 0 0
19.68 0 0
19.76 0 0
19.84 0 0
19.92 0 0
20 0 0
20.08 0 0
20.16 0 0
20.24 0 0
20.32 0 0
20.4 0 0
20.48 0 0
20.56 0 0
20.64 0 0
20.72 0 0
20.8 0 0
20.88 0 0
20.96 0 0
21.04 0 0
21.12 0 0
21.2 0 0
21.28 0 0
21.36 0 0
21.44 0 0
21.52 0 0
21.6 0 0
21.68 0 0
21.76 0 0
21.84 0 0
21.92 0 0
22 0 0
22.08 0 0
22.16 0 0
22.24 0 0
22.32 0 0
22.4 0 0
22.48 0 0
22.56 0 0
22.64 0 0
22.72 0 0
22.8 0 0
22.88 0 0
22.96 0 0
23.04 0 0
23.12 0 0
23.2 0 0
23.28 0 0
23.36 0 0
23.44 0 0
23.52 0 0
23.6 0 0
23.68 0 0
23.76 0 0
23.84 0 0
23.92 0 0
24 0 0
24.08 0 0
24.16 0 0
24.24 0 0
24.32 0 0
24.4 0 0
24.48 0 0
24.56 0 0
24.64 0 0
24.72 0 0
24.8 0 0
24.88 0 0
24.96 0 0
25.04 0 0
25.12 0 0
25.2 0 0
25.28 0 0
25.36 0 0
25.44 0 0
25.52 0 0
25.6 0 0
25.68 0 0
25.76 0 0
25.84 0 0
25.92 0 0
26 0 0
26.08 0 0
26.16 0 0
26.24 0 0
26.32 0 0
26.4 0 0
26.48 0 0
26.56 0 0
26.64 0 0
26.72 0 0
26.8 0 0
26.88 0 0
26.96 0 0
27.04 0 0
27.12 0 0
27.2 0 0
27.28 0 0
27.36 0 0
27.44 0 0
27.52 0 0
27.6 0 0
27.68 0 0
27.76 0 0
27.84 0 0
27.92 0 0
28 0 0
28.08 0 0
28.16 0 0
28.24 0 0
28.32 0 0
28.4 0 0
28.48 0 0
28.56 0 0
28.64 0 0
28.72 0 0
28.8 0 0
28.88 0 0
28.96 0 0
29.04 0 0
29.12 0 0
29.2 0 0
29.28 0 0
29.36 0 0
29.44 0 0
29.52 0 0
29.6 0 0
29.68 0 0
29.76 0 0
29.84 0 0
29.92 0 0
30 0 0
30.08 0 0
30.16 0 0
30.24 0 0
30.32 0 0
30.4 0 0
30.48 0 0
30.56 0 0
30.64 0 0
30.72 0 0
30.8 0 0
30.88 0 0
30.96 0 0
31.04 0 0
31.12 0 0
31.2 0 0
31.28 0 0
31.36 0 0
31.44 0 0
31.52 0 0
31.6 0 0
31.68 0 0
31.76 0 0
31.84 0 0
31.92 0 0
0 0.005 0
0.08 0.005 0
0.16 0.005 0
0.24 0.005 0
0.32 0.005 0
0.4 0.005 0
0.48 0.005 0
0.56 0.005 0
0.64 0.005 0
0.72 0.005 0
0.8 0.005 0
0.88 0.005 0
0.96 0.005 0
1.04 0.005 0
1.12 0.005 0
1.2 0.005 0
1.28 0.005 0
1.36 0.005 0
1.44 0.005 0
1.52 0.005 0
1.6 0.005 0
1.68 0.005 0
1.76 0.005 0
1.84 0.005 0
1.92 0.005 0
2 0.005 0
2.08 0.005 0
2.16 0.005 0
2.24 0.005 0
2.32 0.005 0
2.4 0.005 0
2.48 0.005 0
2.56 0.005 0
2.64 0.005 0
2.72 0.005 0
2.8 0.005 0
2.88 0.005 0
2.96 0.005 0
3.04 0.005 0
3.12 0.005 0
3.2 0.005 0
3.28 0.005 0
3.36 0.005 0
3.44 0.005 0
3.52 0.005 0
3.6 0.005 0
3.68 0.005 0
3.76 0.005 0
3.84 0.005 0
3.92 0.005 0
4 0.005 0
4.08 0.005 0
4.16 0.005 0
4.24 0.005 0
4.32 0.005 0
4.4 0.005 0
4.48 0.005 0
4.56 0.005 0
4.64 0.005 0
4.72 0.005 0
4.8 0.005 0
4.88 0.005 0
4.96 0.005 0
5.04 0.005 0
5.12 0.005 0
5.2 0.005 0
5.28 0.005 0
5.36 0.005 0
5.44 0.005 0
5.52 0.005 0
5.6 0.005 0
5.68 0.005 0
5.76 0.005 0
5.84 0.005 0
5.92 0.005 0
6 0.005 0
6.08 0.005 0
6.16 0.005 0
6.24 0.005 0
6.32 0.005 0
6.4 0.005 0
6.48 0.005 0
6.56 0.005 0
6.64 0.005 0
6.72 0.005 0
6.8 0.005 0
6.88 0.005 0
6.96 0.005 0
7.04 0.005 0
7.12 0.005 0
7.2 0.005 0
7.28 0.005 0
7.36 0.005 0
7.44 0.005 0
7.52 0.005 0
7.6 0.005 0
7.68 0.005 0
7.76 0.005 0
7.84 0.005 0
7.92 0.005 0
8 0.005 0
8.08 0.005 0
8.16 0.005 0
8.24 0.005 0
8.32 0.005 0
8.4 0.005 0
8.48 0.005 0
8.56 0.005 0
8.64 0.005 0
8.72 0.005 0
8.8 0.005 0
8.88 0.005 0
8.96 0.005 0
9.04 0.005 0
9.12 0.005 0
9.2 0.005 0
9.28 0.005 0
9.36 0.005 0
9.44 0.005 0
9.52 0.005 0
9.6 0.005 0
9.68 0.005 0
9.76 0.005 0
9.84 0.005 0
9.92 0.005 0
10 0.005 0
10.08 0.005 0
10.16 0.005 0
10.24 0.005 0
10.32 0.005 0
10.4 0.005 0
10.48 0.005 0
10.56 0.005 0
10.64 0.005 0
10.72 0.005 0
10.8 0.005 0
10.88 0.005 0
10.96 0.005 0
11.04 0.005 0
11.12 0.005 0
11.2 0.005 0
11.28 0.005 0
11.36 0.005 0
11.44 0.005 0
11.52 0.005 0
11.6 0.005 0
11.68 0.005 0
11.76 0.005 0
11.84 0.005 0
11.92 0.005 0
12 0.005 0
12.08 0.005 0
12.16 0.005 0
12.24 0.005 0
12.32 0.005 0
12.4 0.005 0
12.48 0.005 0
12.56 0.005 0
12.64 0.005 0
12.72 0.005 0
12.8 0.005 0
12.88 0.005 0
12.96 0.005 0
13.04 0.005 0
13.12 0.005 0
13.2 0.005 0
13.28 0.005 0
13.36 0.005 0
13.44 0.005 0
13.52 0.005 0
13.6 0.005 0
13.68 0.005 0
13.76 0.005 0
13.84 0.005 0
13.92 0.005 0
14 0.005 0
14.08 0.005 0
14.16 0.005 0
14.24 0.005 0
14.32 0.005 0
14.4 0.005 0
14.48 0.005 0
14.56 0.005 0
14.64 0.005 0
14.72 0.005 0
14.8 0.005 0
14.88 0.005 0
14.96 0.005 0
15.04 0.005 0
15.12 0.005 0
15.2 0.005 0
15.28 0.005 0
15.36 0.005 0
15.44 0.005 0
15.52 0.005 0
15.6 0.005 0
15.68 0.005 0
15.76 0.005 0
15.84 0.005 0
15.92 0.005 0
16 0.005 0
16.08 0.005 0
16.16 0.005 0
16.24 0.005 0
16.32 0.005 0
16.4 0.005 0
16.48 0.005 0
16.56 0.005 0
16.64 0.005 0
16.72 0.005 0
16.8 0.005 0
16.88 0.005 0
16.96 0.005 0
17.04 0.005 0
17.12 0.005 0
17.2 0.005 0
17.28 0.005 0
17.36 0.005 0
17.44 0.005 0
17.52 0.005 0
17.6 0.005 0
17.68 0.005 0
17.76 0.005 0
17.84 0.005 0
17.92 0.005 0
18 0.005 0
18.08 0.005 0
18.16 0.005 0
18.24 0.005 0
18.32 0.005 0
18.4 0.005 0
18.48 0.005 0
18.56 0.005 0
18.64 0.005 0
18.72 0.005 0
18.8 0.005 0
18.88 0.005 0
18.96 0.005 0
19.04 0.005 0
19.12 0.005 0
19.2 0.005 0
19.28 0.005 0
19.36 0.005 0
19.44 0.005 0
19.52 0.005 0
19.6 0.005 0
19.68 0.005 0
19.76 0.005 0
19.84 0.005 0
19.92 0.005 0
20 0.005 0
20.08 0.005 0
20.16 0.005 0
20.24 0.005 0
20.32 0.005 0
20.4 0.005 0
20.48 0.005 0
20.56 0.005 0
20.64 0.005 0
20.72 0.005 0
20.8 0.005 0
20.88 0.005 0
20.96 0.005 0
21.04 0.005 0
21.12 0.005 0
21.2 0.005 0
21.28 0.005 0
21.36 0.005 0
21.44 0.005 0
21.52 0.005 0
21.6 0.005 0
21.68 0.005 0
21.76 0.005 0
21.84 0.005 0
21.92 0.005 0
22 0.005 0
22.08 0.005 0
22.16 0.005 0
22.24 0.005 0
22.32 0.005 0
22.4 0.005 0
22.48 0.005 0
22.56 0.005 0
22.64 0.005 0
22.72 0.005 0
22.8 0.005 0
22.88 0.005 0
22.96 0.005 0
23.04 0.005 0
23.12 0.005 0
23.2 0.005 0
23.28 0.005 0
23.36 0.005 0
23.44 0.005 0
23.52 0.005 0
23.6 0.005 0
23.68 0.005 0
23.76 0.005 0
23.84 0.005 0
23.92 0.005 0
24 0.005 0
24.08 0.005 0
24.16 0.005 0
24.24 0.005 0
24.32 0.005 0
24.4 0.005 0
24.48 0.005 0
24.56 0.005 0
24.64 0.005 0
24.72 0.005 0
24.8 0.005 0
24.88 0.005 0
24.96 0.005 0
25.04 0.005 0
25.12 0.005 0
25.2 0.005 0
25.28 0.005 0
25.36 0.005 0
25.44 0.005 0
25.52 0.005 0
25.6 0.005 0
25.68 0.005 0
25.76 0.005 0
25.84 0.005 0
25.92 0.005 0
26 0.005 0
26.08 0.005 0
26.16 0.005 0
26.24 0.005 0
26.32 0.005 0
26.4 0.005 0
26.48 0.005 0
26.56 0.005 0
26.64 0.005 0
26.72 0.005 0
26.8 0.005 0
26.88 0.005 0
26.96 0.005 0
27.04 0.005 0
27.12 0.005 0
27.2 0.005 0
27.28 0.005 0
27.36 0.005 0
27.44 0.005 0
27.52 0.005 0
27.6 0.005 0
27.68 0.005 0
27.76 0.005 0
27.84 0.005 0
27.92 0.005 0
28 0.005 0
28.08 0.005 0
28.16 0.005 0
28.24 0.005 0
28.32 0.005 0
28.4 0.005 0
28.48 0.005 0
28.56 0.005 0
28.64 0.005 0
28.72 0.005 0
28.8 0.005 0
28.88 0.005 0
28.96 0.005 0
29.04 0.005 0
29.12 0.005 0
29.2 0.005 0
29.28 0.005 0
29.36 0.005 0
29.44 0.005 0
29.52 0.005 0
29.6 0.005 0
29.68 0.005 0
29.76 0.005 0
29.84 0.005 0
29.92 0.005 0
30 0.005 0
30.08 0.005 0
30.16 0.005 0
30.24 0.005 0
30.32 0.005 0
30.4 0.005 0
30.48 0.005 0
30.56 0.005 0
30.64 0.005 0
30.72 0.005 0
30.8 0.005 0
30.88 0.005 0
30.96 0.005 0
31.04 0.005 0
31.12 0.005 0
31.2 0.005 0
31.28 0.005 0
31.36 0.005 0
31.44 0.005 0
31.52 0.005 0
31.6 0.005 0
31.68 0.005 0
31.76 0.005 0
31.84 0.005 0
31.92 0.005 0
0 0.01 0
0.08 0.01 0
0.16 0.01 0
0.24 0.01 0
0.32 0.01 0
0.4 0.01 0
0.48 0.01 0
0.56 0.01 0
0.64 0.01 0
0.72 0.01 0
0.8 0.01 0
0.88 0.01 0
0.96 0.01 0
1.04 0.01 0
1.12 0.01 0
1.2 0.01 0
1.28 0.01 0
1.36 0.01 0
1.44 0.01 0
1.52 0.01 0
1.6 0.01 0
1.68 0.01 0
1.76 0.01 0
1.84 0.01 0
1.92 0.01 0
2 0.01 0
2.08 0.01 0
2.16 0.01 0
2.24 0.01 0
2.32 0.01 0
2.4 0.01 0
2.48 0.01 0
2.56 0.01 0
2.64 0.01 0
2.72 0.01 0
2.8 0.01 0
2.88 0.01 0
2.96 0.01 0
3.04 0.01 0
3.12 0.01 0
3.2 0.01 0
3.28 0.01 0
3.36 0.01 0
3.44 0.01 0
3.52 0.01 0
3.6 0.01 0
3.68 0.01 0
3.76 0.01 0
3.84 0.01 0
3.92 0.01 0
4 0.01 0
4.08 0.01 0
4.16 0.01 0
4.24 0.01 0
4.32 0.01 0
4.4 0.01 0
4.48 0.01 0
4.56 0.01 0
4.64 0.01 0
4.72 0.01 0
4.8 0.01 0
4.88 0.01 0
4.96 0.01 0
5.04 0.01 0
5.12 0.01 0
[...]
POINT_DATA 80000

SCALARS v float 1
LOOKUP_TABLE default
0
0
0
0
0
0
0
0
0
0
0
0
0
0
0
0
0
0
0
0
0
0
0
0
0
0
0
0
0
0
0
0
0
0
0
0
0
0
0
0
0
0
0
0
0
0
0
0
0
0
0
0
0
0
0
0
0
0
0
0
0
0
0
0
0
0
0
0
0
0
0
0
0
0
0
0
0
0
0
0
0
0
0
0
0
0
0
0
0
0
0
0
0
0
0
0
0
0
0
0
0
0
0
0
0
0
0
0
0
0
0
0
0
0
0
0
0
0
0
0
0
0
0
0
0
0
0
0
0
0
0
0
0
0
0
0
0
0
0
0
0
0
0
0
0
0
0
0
0
0
0
0
0
0
0
0
0
0
0
0
0
0
0
0
0
0
0
0
0
0
0
0
0
0
0
0
0
0
0
0
0
0
0
0
0
0
0
0
0
0
0
0
0
0
0
0
0
0
0
0
0
0
0
0
0
0
0
0
0
0
0
0
0
0
0
0
0
0
0
0
0
0
0
0
0
0
0
0
0
0
0
0
0
0
0
0
0
0
0
0
0
0
0
0
0
0
0
0
0
0
0
0
0
0
0
0
0
0
0
0
0
0
0
0
0
0
0
0
0
0
0
0
0
0
0
0
0
0
0
0
0
0
0
0
0
0
0
0
0
0
0
0
0
0
0
0
0
0
0
0
0
0
0
0
0
0
0
0
0
0
0
0
0
0
0
0
0
0
0
0
0
0
0
0
0
0
0
0
0
0
0
0
0
0
0
0
0
0
0
0
0
0
0
0
0
0
0
0
0
0
0
0
0
0
0
0
0
0
0
0
0
0
0
0
0
0
0
0
0
0
0
0
0
0
0
0
0
0
0
0
0
0
0
0
0
0
0
0
0
0
0
0
0
0
0
0
0
0
0
0
-0.0542713
0.0542713
0.00396233
0.000998571
0.000492502
0.000302939
0.000207564
0.000151936
0.000116495
9.25384e-05
7.56255e-05
6.32651e-05
5.39648e-05
4.67863e-05
4.11184e-05
3.65514e-05
3.2804e-05
2.9679e-05
2.70355e-05
2.47714e-05
2.28122e-05
2.11011e-05
1.95939e-05
1.82555e-05
1.70595e-05
1.59861e-05
1.50197e-05
1.41457e-05
1.33497e-05
1.26195e-05
1.19472e-05
1.13291e-05
1.07621e-05
1.02401e-05
9.75389e-06
9.29476e-06
8.85846e-06
8.44639e-06
8.06191e-06
7.70467e-06
7.36744e-06
7.0381e-06
6.70554e-06
6.36504e-06
6.01946e-06
5.67536e-06
5.33718e-06
5.00377e-06
4.66972e-06
4.33067e-06
3.98876e-06
3.6546e-06
3.34405e-06
3.07146e-06
2.84307e-06
2.65413e-06
2.49094e-06
2.3369e-06
2.17925e-06
2.01364e-06
1.8448e-06
1.68342e-06
1.54111e-06
1.42562e-06
1.33811e-06
1.27314e-06
1.2208e-06
1.17003e-06
1.11165e-06
1.04037e-06
9.55381e-07
8.59723e-07
7.58878e-07
6.59144e-07
5.66224e-07
4.84304e-07
4.15674e-07
3.60822e-07
3.18834e-07
2.8791e-07
2.65875e-07
2.50564e-07
2.4008e-07
2.32905e-07
2.27912e-07
2.24322e-07
2.21625e-07
2.19503e-07
2.17763e-07
2.16289e-07
2.15008e-07
2.1387e-07
2.12839e-07
2.11885e-07
2.10985e-07
2.10121e-07
2.0928e-07
2.08451e-07
2.07628e-07
2.06808e-07
2.05987e-07
2.05166e-07
2.04343e-07
2.03519e-07
2.02694e-07
2.01868e-07
2.01043e-07
2.00217e-07
1.99392e-07
1.98567e-07
1.97742e-07
1.96917e-07
1.96092e-07
1.95267e-07
1.94442e-07
1.93618e-07
1.92793e-07
1.91968e-07
1.91143e-07
1.90318e-07
1.89493e-07
1.88668e-07
1.87843e-07
1.87018e-07
1.86194e-07
1.85369e-07
1.84545e-07
1.8372e-07
1.82896e-07
1.82072e-07
1.81249e-07
1.80426e-07
1.79603e-07
1.7878e-07
1.77957e-07
1.77135e-07
1.76314e-07
1.75492e-07
1.74671e-07
1.73851e-07
1.7303e-07
1.7221e-07
1.71391e-07
1.70572e-07
1.69753e-07
1.68935e-07
1.68117e-07
1.673e-07
1.66483e-07
1.65666e-07
1.6485e-07
1.64035e-07
1.6322e-07
1.62405e-07
1.61591e-07
1.60777e-07
1.59964e-07
1.59151e-07
1.58339e-07
1.57527e-07
1.56715e-07
1.55904e-07
1.55094e-07
1.54284e-07
1.53474e-07
1.52665e-07
1.51857e-07
1.51049e-07
1.50241e-07
1.49434e-07
1.48627e-07
1.47821e-07
1.47015e-07
1.46209e-07
1.45404e-07
1.446e-07
1.43795e-07
1.42992e-07
1.42188e-07
1.41385e-07
1.40583e-07
1.39781e-07
1.38979e-07
1.38178e-07
1.37377e-07
1.36576e-07
1.35776e-07
1.34976e-07
1.34176e-07
1.33377e-07
1.32578e-07
1.31779e-07
1.30981e-07
1.30183e-07
1.29385e-07
1.28588e-07
1.27791e-07
1.26994e-07
1.26197e-07
1.254e-07
1.24604e-07
1.23808e-07
1.23012e-07
1.22217e-07
1.21422e-07
1.20626e-07
1.19831e-07
1.19036e-07
1.18242e-07
1.17447e-07
1.16653e-07
1.15859e-07
1.15064e-07
1.1427e-07
1.13477e-07
1.12683e-07
1.11889e-07
1.11095e-07
1.10302e-07
1.09508e-07
1.08715e-07
1.07921e-07
1.07128e-07
1.06335e-07
1.05541e-07
1.04748e-07
1.03955e-07
1.03162e-07
1.02368e-07
1.01575e-07
1.00782e-07
9.99883e-08
9.91949e-08
9.84014e-08
9.76079e-08
9.68144e-08
9.60208e-08
9.52271e-08
9.44333e-08
9.36395e-08
9.28456e-08
9.20516e-08
9.12574e-08
9.04632e-08
8.96689e-08
8.88744e-08
8.80799e-08
8.72852e-08
8.64904e-08
8.56954e-08
8.49003e-08
8.4105e-08
8.33096e-08
8.25141e-08
8.17184e-08
8.09225e-08
8.01265e-08
7.93302e-08
7.85339e-08
7.77373e-08
7.69405e-08
7.61436e-08
7.53465e-08
7.45492e-08
7.37516e-08
7.29539e-08
7.2156e-08
7.13579e-08
7.05595e-08
6.9761e-08
6.89622e-08
6.81633e-08
6.73641e-08
6.65646e-08
6.5765e-08
6.49651e-08
6.4165e-08
6.33646e-08
6.25641e-08
6.17632e-08
6.09622e-08
6.01609e-08
5.93593e-08
5.85575e-08
5.77555e-08
5.69532e-08
5.61506e-08
5.53478e-08
5.45448e-08
5.37415e-08
5.29379e-08
5.2134e-08
5.13299e-08
5.05256e-08
4.97209e-08
4.8916e-08
4.81108e-08
4.73054e-08
4.64996e-08
4.56936e-08
4.48873e-08
4.40808e-08
4.32739e-08
4.24668e-08
4.16594e-08
4.08517e-08
4.00437e-08
3.92354e-08
3.84269e-08
3.7618e-08
3.68089e-08
3.59995e-08
3.51897e-08
3.43797e-08
3.35694e-08
3.27588e-08
3.19479e-08
3.11366e-08
3.03251e-08
2.95133e-08
2.87012e-08
2.78887e-08
2.7076e-08
2.62629e-08
2.54495e-08
2.46359e-08
2.38219e-08
2.30076e-08
2.2193e-08
2.1378e-08
2.05628e-08
1.97471e-08
1.89314e-08
1.81148e-08
1.72989e-08
1.6481e-08
1.56654e-08
1.48455e-08
1.4031e-08
1.32081e-08
1.23959e-08
1.15686e-08
1.07605e-08
9.92671e-09
9.1247e-09
8.28245e-09
7.48862e-09
6.63578e-09
5.85212e-09
4.98683e-09
4.21506e-09
3.33572e-09
2.57735e-09
1.68241e-09
9.392e-10
2.63555e-11
-6.98563e-10
-1.63353e-09
-2.3346e-09
-3.29886e-09
-3.96707e-09
-4.9717e-09
-5.59361e-09
-6.65475e-09
-7.21126e-09
-8.35097e-09
-8.81714e-09
-1.0063e-08
-1.04088e-08
-1.1793e-08
-1.19837e-08
-1.35435e-08
-1.35399e-08
-1.53157e-08
-1.50761e-08
-1.71105e-08
-1.65916e-08
-1.8928e-08
-1.80886e-08
-2.07641e-08
-1.9576e-08
-2.2607e-08
-2.10775e-08
-2.44281e-08
-2.26498e-08
-2.61637e-08
-2.44224e-08
-2.76722e-08
-2.66912e-08
-2.86335e-08
-3.01337e-08
-2.82622e-08
-3.63521e-08
-2.42246e-08
-4.92312e-08
-6.47742e-09
-7.76316e-08
1.24366e-07
-3.51854e-08
-3.51854e-08
-0.0952161
0.0952161
0.0129759
0.00385491
0.00193461
0.0011965
0.000822045
0.00060262
0.000462374
0.000367349
0.00030014
0.000250955
0.000213912
0.000185304
0.000162711
0.000144506
0.000129571
0.000117121
0.000106593
9.7582e-05
8.97875e-05
8.2983e-05
7.69914e-05
7.16736e-05
6.69237e-05
6.26627e-05
5.88268e-05
5.53569e-05
5.21964e-05
4.92981e-05
4.66317e-05
4.41811e-05
4.19314e-05
3.98574e-05
3.79232e-05
3.60964e-05
3.43622e-05
3.27256e-05
3.11969e-05
2.97708e-05
2.84173e-05
2.70903e-05
2.57499e-05
2.43811e-05
2.29959e-05
2.16182e-05
2.02625e-05
1.89238e-05
1.75833e-05
1.62291e-05
1.48745e-05
1.35628e-05
1.23534e-05
1.12963e-05
1.04091e-05
9.66862e-06
9.0212e-06
8.40541e-06
7.77686e-06
7.1234e-06
6.46553e-06
5.84368e-06
5.29917e-06
4.85729e-06
4.51847e-06
4.2594e-06
4.04198e-06
3.82555e-06
3.57787e-06
3.28188e-06
2.93714e-06
2.55698e-06
2.16291e-06
1.77859e-06
1.42477e-06
1.11606e-06
8.59871e-07
6.56949e-07
5.03004e-07
3.90705e-07
3.11552e-07
2.57291e-07
2.20784e-07
1.96386e-07
1.79954e-07
1.68634e-07
1.60573e-07
1.54617e-07
1.50068e-07
1.46503e-07
1.43654e-07
1.41337e-07
1.39414e-07
1.37777e-07
1.36341e-07
1.35037e-07
1.33815e-07
1.3264e-07
1.31487e-07
1.30342e-07
1.29198e-07
1.2805e-07
1.26899e-07
1.25744e-07
1.24588e-07
1.23431e-07
1.22274e-07
1.21117e-07
1.19962e-07
1.18808e-07
1.17655e-07
1.16502e-07
1.1535e-07
1.14199e-07
1.13048e-07
1.11897e-07
1.10745e-07
1.09594e-07
1.08443e-07
1.07291e-07
1.06139e-07
1.04987e-07
1.03836e-07
1.02684e-07
1.01532e-07
1.0038e-07
9.9229e-08
9.80779e-08
9.69271e-08
9.57766e-08
9.46264e-08
9.34767e-08
9.23274e-08
9.11786e-08
9.00302e-08
8.88824e-08
8.7735e-08
8.65882e-08
8.54419e-08
8.42961e-08
8.31509e-08
8.20062e-08
8.0862e-08
7.97184e-08
7.85754e-08
7.74329e-08
7.6291e-08
7.51496e-08
7.40088e-08
7.28686e-08
7.17289e-08
7.05897e-08
6.94512e-08
6.83132e-08
6.71757e-08
6.60388e-08
6.49025e-08
6.37667e-08
6.26314e-08
6.14968e-08
6.03626e-08
5.92291e-08
5.8096e-08
5.69635e-08
5.58316e-08
5.47002e-08
5.35692e-08
5.24389e-08
5.1309e-08
5.01797e-08
4.90508e-08
4.79225e-08
4.67946e-08
4.56672e-08
4.45403e-08
4.34139e-08
4.22879e-08
4.11624e-08
4.00374e-08
3.89127e-08
3.77885e-08
3.66647e-08
3.55413e-08
3.44183e-08
3.32957e-08
3.21735e-08
3.10516e-08
2.99301e-08
2.8809e-08
2.76881e-08
2.65676e-08
2.54474e-08
2.43275e-08
2.32079e-08
2.20886e-08
2.09695e-08
1.98507e-08
1.87321e-08
1.76138e-08
1.64957e-08
1.53777e-08
1.426e-08
1.31425e-08
1.20252e-08
1.09079e-08
9.7909e-09
8.674e-09
7.55722e-09
6.44055e-09
5.324e-09
4.20751e-09
3.09113e-09
1.97483e-09
8.58568e-10
-2.57645e-10
-1.37381e-09
-2.48995e-09
-3.60608e-09
-4.72219e-09
-5.83832e-09
-6.95446e-09
-8.07062e-09
-9.18681e-09
-1.03031e-08
-1.14194e-08
-1.25357e-08
-1.36522e-08
-1.47687e-08
-1.58853e-08
-1.7002e-08
-1.81188e-08
-1.92358e-08
-2.03528e-08
-2.14701e-08
-2.25874e-08
-2.37049e-08
-2.48226e-08
-2.59404e-08
-2.70585e-08
-2.81767e-08
-2.92951e-08
-3.04137e-08
-3.15325e-08
-3.26515e-08
-3.37708e-08
-3.48903e-08
-3.601e-08
-3.71299e-08
-3.82501e-08
-3.93706e-08
-4.04913e-08
-4.16123e-08
-4.27335e-08
-4.3855e-08
-4.49769e-08
-4.60989e-08
-4.72213e-08
-4.8344e-08
-4.9467e-08
-5.05903e-08
-5.17139e-08
-5.28378e-08
-5.3962e-08
-5.50866e-08
-5.62114e-08
-5.73367e-08
-5.84622e-08
-5.95881e-08
-6.07144e-08
-6.1841e-08
-6.29679e-08
-6.40952e-08
-6.52229e-08
-6.63509e-08
-6.74793e-08
-6.86081e-08
-6.97373e-08
-7.08668e-08
-7.19967e-08
-7.3127e-08
-7.42577e-08
-7.53888e-08
-7.65203e-08
-7.76522e-08
-7.87844e-08
-7.99171e-08
-8.10502e-08
-8.21837e-08
-8.33176e-08
-8.4452e-08
-8.55867e-08
-8.67219e-08
-8.78575e-08
-8.89935e-08
-9.013e-08
-9.12669e-08
-9.24042e-08
-9.3542e-08
-9.46802e-08
-9.58188e-08
-9.69579e-08
-9.80975e-08
-9.92375e-08
-1.00378e-07
-1.01519e-07
-1.0266e-07
-1.03802e-07
-1.04944e-07
-1.06087e-07
-1.0723e-07
-1.08374e-07
-1.09518e-07
-1.10663e-07
-1.11808e-07
-1.12954e-07
-1.141e-07
-1.15246e-07
-1.16393e-07
-1.17541e-07
-1.18689e-07
-1.19837e-07
-1.20987e-07
-1.22136e-07
-1.23286e-07
-1.24437e-07
-1.25588e-07
-1.2674e-07
-1.27892e-07
-1.29044e-07
-1.30198e-07
-1.31351e-07
-1.32506e-07
-1.3366e-07
-1.34817e-07
-1.3597e-07
-1.3713e-07
-1.38281e-07
-1.39448e-07
-1.40593e-07
-1.41769e-07
-1.42905e-07
-1.44096e-07
-1.45215e-07
-1.46429e-07
-1.47524e-07
-1.48768e-07
-1.49832e-07
-1.51114e-07
-1.52137e-07
-1.53465e-07
-1.54443e-07
-1.55822e-07
-1.56748e-07
-1.58184e-07
-1.59052e-07
-1.60553e-07
-1.61351e-07
-1.62934e-07
-1.63642e-07
-1.65332e-07
-1.65916e-07
-1.67755e-07
-1.68166e-07
-1.70213e-07
-1.70379e-07
-1.72718e-07
-1.72546e-07
-1.75279e-07
-1.74656e-07
-1.77905e-07
-1.767e-07
-1.80604e-07
-1.78672e-07
-1.83381e-07
-1.80565e-07
-1.86241e-07
-1.82378e-07
-1.89183e-07
-1.84118e-07
-1.92192e-07
-1.85818e-07
-1.95226e-07
-1.87565e-07
-1.98179e-07
-1.89569e-07
-2.0082e-07
-1.9231e-07
-2.02631e-07
-1.96886e-07
-2.02444e-07
-2.05806e-07
-1.97392e-07
-2.24992e-07
-1.78943e-07
-2.68664e-07
-1.10264e-07
-3.67586e-07
3.67482e-07
-2.09451e-07
-2.09451e-07
-0.125293
0.125293
0.0249362
0.00835835
0.00427834
0.00266187
0.00183409
0.00134671
0.00103425
0.000822068
0.000671753
0.000561618
0.000478601
0.000414454
0.000363779
0.000322946
0.000289451
0.000261534
0.000237936
0.000217744
0.000200285
0.000185048
0.000171635
0.000159734
0.000149109
0.00013958
0.000131002
0.000123242
0.000116173
0.000109693
0.000103734
9.82588e-05
9.323e-05
8.85891e-05
8.42575e-05
8.01665e-05
7.62858e-05
7.26254e-05
6.92026e-05
6.60005e-05
6.29503e-05
5.9953e-05
5.69263e-05
5.38416e-05
5.07261e-05
4.76292e-05
4.45796e-05
4.15655e-05
3.85506e-05
3.55164e-05
3.24993e-05
2.95968e-05
2.69344e-05
2.46128e-05
2.26604e-05
2.10204e-05
1.95746e-05
1.81937e-05
1.67884e-05
1.53386e-05
1.38916e-05
1.25336e-05
1.1349e-05
1.03856e-05
9.63861e-06
9.05434e-06
8.5504e-06
8.04169e-06
7.46307e-06
6.78245e-06
6.00287e-06
5.1555e-06
4.28753e-06
3.44934e-06
2.68398e-06
2.0209e-06
1.47403e-06
1.04325e-06
7.18086e-07
4.82011e-07
3.16376e-07
2.03355e-07
1.27695e-07
7.74309e-08
4.38309e-08
2.09194e-08
4.82492e-09
-6.85376e-09
-1.55693e-08
-2.22057e-08
-2.7327e-08
-3.13223e-08
-3.44836e-08
-3.70408e-08
-3.91772e-08
-4.10354e-08
-4.27221e-08
-4.43125e-08
-4.58562e-08
-4.73832e-08
-4.89094e-08
-5.04415e-08
-5.19808e-08
-5.35258e-08
-5.50743e-08
-5.66237e-08
-5.81722e-08
-5.97188e-08
-6.12628e-08
-6.28041e-08
-6.4343e-08
-6.588e-08
-6.74156e-08
-6.89503e-08
-7.04844e-08
-7.20185e-08
-7.35526e-08
-7.5087e-08
-7.66218e-08
-7.81569e-08
-7.96923e-08
-8.12281e-08
-8.2764e-08
-8.43e-08
-8.58359e-08
-8.73717e-08
-8.89074e-08
-9.04426e-08
-9.19775e-08
-9.35119e-08
-9.50458e-08
-9.65791e-08
-9.81118e-08
-9.96438e-08
-1.01175e-07
-1.02706e-07
-1.04236e-07
-1.05765e-07
-1.07293e-07
-1.08821e-07
-1.10348e-07
-1.11875e-07
-1.134e-07
-1.14925e-07
-1.1645e-07
-1.17973e-07
-1.19496e-07
-1.21019e-07
-1.2254e-07
-1.24061e-07
-1.25581e-07
-1.27101e-07
-1.2862e-07
-1.30138e-07
-1.31656e-07
-1.33173e-07
-1.3469e-07
-1.36206e-07
-1.37721e-07
-1.39236e-07
-1.4075e-07
-1.42264e-07
-1.43777e-07
-1.45289e-07
-1.46801e-07
-1.48312e-07
-1.49823e-07
-1.51333e-07
-1.52843e-07
-1.54352e-07
-1.55861e-07
-1.57369e-07
-1.58877e-07
-1.60384e-07
-1.61891e-07
-1.63397e-07
-1.64903e-07
-1.66409e-07
-1.67914e-07
-1.69418e-07
-1.70922e-07
-1.72426e-07
-1.7393e-07
-1.75433e-07
-1.76936e-07
-1.78438e-07
-1.7994e-07
-1.81442e-07
-1.82943e-07
-1.84445e-07
-1.85946e-07
-1.87446e-07
-1.88947e-07
-1.90447e-07
-1.91947e-07
-1.93447e-07
-1.94947e-07
-1.96446e-07
-1.97945e-07
-1.99445e-07
-2.00944e-07
-2.02443e-07
-2.03942e-07
-2.0544e-07
-2.06939e-07
-2.08438e-07
-2.09936e-07
-2.11435e-07
-2.12933e-07
-2.14432e-07
-2.15931e-07
-2.17429e-07
-2.18928e-07
-2.20427e-07
-2.21925e-07
-2.23424e-07
-2.24923e-07
-2.26422e-07
-2.27921e-07
-2.2942e-07
-2.3092e-07
-2.32419e-07
-2.33919e-07
-2.35419e-07
-2.36919e-07
-2.38419e-07
-2.3992e-07
-2.4142e-07
-2.42921e-07
-2.44422e-07
-2.45924e-07
-2.47425e-07
-2.48927e-07
-2.50429e-07
-2.51932e-07
-2.53435e-07
-2.54938e-07
-2.56441e-07
-2.57945e-07
-2.59449e-07
-2.60954e-07
-2.62458e-07
-2.63964e-07
-2.65469e-07
-2.66975e-07
-2.68481e-07
-2.69988e-07
-2.71495e-07
-2.73003e-07
-2.74511e-07
-2.76019e-07
-2.77528e-07
-2.79037e-07
-2.80547e-07
-2.82057e-07
-2.83568e-07
-2.85079e-07
-2.86591e-07
-2.88103e-07
-2.89615e-07
-2.91128e-07
-2.92642e-07
-2.94156e-07
-2.9567e-07
-2.97185e-07
-2.98701e-07
-3.00217e-07
-3.01734e-07
-3.03251e-07
-3.04768e-07
-3.06287e-07
-3.07805e-07
-3.09325e-07
-3.10845e-07
-3.12365e-07
-3.13886e-07
-3.15408e-07
-3.1693e-07
-3.18453e-07
-3.19976e-07
-3.215e-07
-3.23024e-07
-3.24549e-07
-3.26075e-07
-3.27601e-07
-3.29128e-07
-3.30656e-07
-3.32184e-07
-3.33713e-07
-3.35242e-07
-3.36773e-07
-3.38303e-07
-3.39835e-07
-3.41367e-07
-3.42899e-07
-3.44433e-07
-3.45967e-07
-3.47501e-07
-3.49037e-07
-3.50573e-07
-3.52109e-07
-3.53646e-07
-3.55184e-07
-3.56723e-07
-3.58263e-07
-3.59803e-07
-3.61343e-07
-3.62885e-07
-3.64427e-07
-3.6597e-07
-3.67514e-07
-3.69058e-07
-3.70603e-07
-3.72149e-07
-3.73696e-07
-3.75243e-07
-3.76791e-07
-3.7834e-07
-3.79889e-07
-3.8144e-07
-3.82991e-07
-3.84543e-07
-3.86095e-07
-3.87649e-07
-3.89203e-07
-3.90758e-07
-3.92314e-07
-3.9387e-07
-3.95428e-07
-3.96986e-07
-3.98545e-07
-4.00106e-07
-4.01664e-07
-4.03229e-07
-4.04786e-07
-4.06358e-07
-4.0791e-07
-4.09493e-07
-4.11033e-07
-4.12636e-07
-4.14154e-07
-4.15789e-07
-4.17271e-07
-4.18954e-07
-4.20384e-07
-4.22131e-07
-4.23492e-07
-4.2532e-07
-4.26596e-07
-4.28521e-07
-4.29697e-07
-4.31731e-07
-4.32796e-07
-4.34951e-07
-4.35892e-07
-4.38186e-07
-4.38977e-07
-4.41444e-07
-4.42042e-07
-4.44737e-07
-4.45071e-07
-4.48083e-07
-4.48046e-07
-4.51503e-07
-4.50942e-07
-4.5502e-07
-4.53737e-07
-4.58657e-07
-4.56409e-07
-4.62431e-07
-4.58939e-07
-4.66361e-07
-4.61312e-07
-4.70457e-07
-4.63516e-07
-4.74728e-07
-4.65546e-07
-4.79175e-07
-4.67415e-07
-4.83766e-07
-4.69196e-07
-4.88412e-07
-4.71072e-07
-4.92893e-07
-4.73488e-07
-4.96721e-07
-4.77463e-07
-4.9881e-07
-4.85324e-07
-4.96709e-07
-5.02402e-07
-4.84406e-07
-5.41237e-07
-4.43995e-07
-6.31726e-07
-2.98089e-07
-8.36213e-07
6.94665e-07
-5.02885e-07
-5.02885e-07
-0.146488
0.146488
0.0383108
0.0142344
0.0074564
0.00467314
0.00323094
0.00237693
0.00182748
0.00145347
0.00118804
0.000993302
0.00084638
0.000732784
0.000643016
0.000570672
0.000511332
0.000461883
0.000420094
0.000384348
0.000353448
0.000326489
0.000302762
0.000281718
0.000262934
0.000246093
0.000230934
0.000217219
0.000204727
0.000193277
0.000182752
0.000173083
0.000164198
0.000155991
0.000148327
0.00014109
0.000134229
0.000127758
0.000121702
0.000116022
0.000110596
0.000105255
9.98634e-05
9.43784e-05
8.88472e-05
8.33511e-05
7.79354e-05
7.25798e-05
6.72291e-05
6.18632e-05
5.65551e-05
5.1476e-05
4.68366e-05
4.2797e-05
3.93926e-05
3.65163e-05
3.39641e-05
3.15201e-05
2.90409e-05
2.65005e-05
2.39835e-05
2.16345e-05
1.95899e-05
1.7922e-05
1.66142e-05
1.55704e-05
1.46501e-05
1.37125e-05
1.26528e-05
1.14234e-05
1.00352e-05
8.54462e-06
7.03335e-06
5.58616e-06
4.274e-06
3.14402e-06
2.21689e-06
1.48991e-06
9.43394e-07
5.48037e-07
2.71536e-07
8.34023e-08
-4.22168e-08
-1.25469e-07
-1.80973e-07
-2.18692e-07
-2.45057e-07
-2.64052e-07
-2.78084e-07
-2.88625e-07
-2.96616e-07
-3.02714e-07
-3.0741e-07
-3.11093e-07
-3.14073e-07
-3.16589e-07
-3.18821e-07
-3.20893e-07
-3.22888e-07
-3.24856e-07
-3.26822e-07
-3.28797e-07
-3.30784e-07
-3.32779e-07
-3.34779e-07
-3.3678e-07
-3.38778e-07
-3.40773e-07
-3.42763e-07
-3.44748e-07
-3.46729e-07
-3.48707e-07
-3.50682e-07
-3.52655e-07
-3.54628e-07
-3.566e-07
-3.58572e-07
-3.60545e-07
-3.62519e-07
-3.64493e-07
-3.66468e-07
-3.68444e-07
-3.7042e-07
-3.72396e-07
-3.74372e-07
-3.76348e-07
-3.78324e-07
-3.80299e-07
-3.82274e-07
-3.84248e-07
-3.86222e-07
-3.88195e-07
-3.90167e-07
-3.92138e-07
-3.94108e-07
-3.96077e-07
-3.98046e-07
-4.00013e-07
-4.01979e-07
-4.03945e-07
-4.0591e-07
-4.07873e-07
-4.09836e-07
-4.11798e-07
-4.13759e-07
-4.1572e-07
-4.1768e-07
-4.19638e-07
-4.21596e-07
-4.23554e-07
-4.2551e-07
-4.27466e-07
-4.29422e-07
-4.31376e-07
-4.3333e-07
-4.35283e-07
-4.37236e-07
-4.39188e-07
-4.41139e-07
-4.4309e-07
-4.4504e-07
-4.4699e-07
-4.48939e-07
-4.50888e-07
-4.52836e-07
-4.54783e-07
-4.5673e-07
-4.58676e-07
-4.60622e-07
-4.62568e-07
-4.64513e-07
-4.66457e-07
-4.68401e-07
-4.70345e-07
-4.72288e-07
-4.74231e-07
-4.76174e-07
-4.78116e-07
-4.80058e-07
-4.81999e-07
-4.8394e-07
-4.85881e-07
-4.87822e-07
-4.89762e-07
-4.91702e-07
-4.93642e-07
-4.95581e-07
-4.97521e-07
-4.9946e-07
-5.01399e-07
-5.03338e-07
-5.05276e-07
-5.07215e-07
-5.09153e-07
-5.11092e-07
-5.1303e-07
-5.14968e-07
-5.16906e-07
-5.18844e-07
-5.20782e-07
-5.2272e-07
-5.24659e-07
-5.26597e-07
-5.28535e-07
-5.30473e-07
-5.32412e-07
-5.3435e-07
-5.36289e-07
-5.38227e-07
-5.40166e-07
-5.42105e-07
-5.44044e-07
-5.45984e-07
-5.47923e-07
-5.49863e-07
-5.51803e-07
-5.53744e-07
-5.55684e-07
-5.57625e-07
-5.59566e-07
-5.61507e-07
-5.63449e-07
-5.65391e-07
-5.67334e-07
-5.69276e-07
-5.7122e-07
-5.73163e-07
-5.75107e-07
-5.77051e-07
-5.78996e-07
-5.80941e-07
-5.82887e-07
-5.84833e-07
-5.8678e-07
-5.88727e-07
-5.90674e-07
-5.92623e-07
-5.94571e-07
-5.9652e-07
-5.9847e-07
-6.0042e-07
-6.02371e-07
-6.04322e-07
-6.06274e-07
-6.08227e-07
-6.1018e-07
-6.12134e-07
-6.14088e-07
-6.16043e-07
-6.17999e-07
-6.19955e-07
-6.21912e-07
-6.2387e-07
-6.25828e-07
-6.27787e-07
-6.29746e-07
-6.31707e-07
-6.33668e-07
-6.35629e-07
-6.37592e-07
-6.39555e-07
-6.41519e-07
-6.43483e-07
-6.45449e-07
-6.47415e-07
-6.49381e-07
-6.51349e-07
-6.53317e-07
-6.55286e-07
-6.57256e-07
-6.59227e-07
-6.61198e-07
-6.6317e-07
-6.65143e-07
-6.67117e-07
-6.69092e-07
-6.71067e-07
-6.73044e-07
-6.75021e-07
-6.76999e-07
-6.78977e-07
-6.80957e-07
-6.82938e-07
-6.84919e-07
-6.86901e-07
-6.88884e-07
-6.90868e-07
-6.92853e-07
-6.94839e-07
-6.96826e-07
-6.98813e-07
-7.00802e-07
-7.02791e-07
-7.04781e-07
-7.06773e-07
-7.08765e-07
-7.10758e-07
-7.12752e-07
-7.14747e-07
-7.16743e-07
-7.1874e-07
-7.20738e-07
-7.22737e-07
-7.24737e-07
-7.26738e-07
-7.28739e-07
-7.30742e-07
-7.32746e-07
-7.34751e-07
-7.36757e-07
-7.38764e-07
-7.40772e-07
-7.42781e-07
-7.44791e-07
-7.46802e-07
-7.48814e-07
-7.50828e-07
-7.52842e-07
-7.54857e-07
-7.56874e-07
-7.58892e-07
-7.6091e-07
-7.6293e-07
-7.64951e-07
-7.66974e-07
-7.68997e-07
-7.71021e-07
-7.73047e-07
-7.75074e-07
-7.77102e-07
-7.7913e-07
-7.81163e-07
-7.83191e-07
-7.8523e-07
-7.87255e-07
-7.89304e-07
-7.9132e-07
-7.93389e-07
-7.95384e-07
-7.97486e-07
-7.99444e-07
-8.016e-07
-8.03496e-07
-8.05732e-07
-8.0754e-07
-8.09885e-07
-8.11575e-07