# vtk DataFile Version 2.0
FlowField
ASCII
DATASET STRUCTURED_GRID
DIMENSIONS 400 1 200
POINTS 80000 float
0 0 0
0.08 0 0
0.16 0 0
0.24 0 0
0.32 0 0
0.4 0 0
0.48 0 0
0.56 0 0
0.64 0 0
0.72 0 0
0.8 0 0
0.88 0 0
0.96 0 0
1.04 0 0
1.12 0 0
1.2 0 0
1.28 0 0
1.36 0 0
1.44 0 0
1.52 0 0
1.6 0 0
1.68 0 0
1.76 0 0
1.84 0 0
1.92 0 0
2 0 0
2.08 0 0
2.16 0 0
2.24 0 0
2.32 0 0
2.4 0 0
2.48 0 0
2.56 0 0
2.64 0 0
2.72 0 0
2.8 0 0
2.88 0 0
2.96 0 0
3.04 0 0
3.12 0 0
3.2 0 0
3.28 0 0
3.36 0 0
3.44 0 0
3.52 0 0
3.6 0 0
3.68 0 0
3.76 0 0
3.84 0 0
3.92 0 0
4 0 0
4.08 0 0
4.16 0 0
4.24 0 0
4.32 0 0
4.4 0 0
4.48 0 0
4.56 0 0
4.64 0 0
4.72 0 0
4.8 0 0
4.88 0 0
4.96 0 0
5.04 0 0
5.12 0 0
5.2 0 0
5.28 0 0
5.36 0 0
5.44 0 0
5.52 0 0
5.6 0 0
5.68 0 0
5.76 0 0
5.84 0 0
5.92 0 0
6 0 0
6.08 0 0
6.16 0 0
6.24 0 0
6.32 0 0
6.4 0 0
6.48 0 0
6.56 0 0
6.64 0 0
6.72 0 0
6.8 0 0
6.88 0 0
6.96 0 0
7.04 0 0
7.12 0 0
7.2 0 0
7.28 0 0
7.36 0 0
7.44 0 0
7.52 0 0
7.6 0 0
7.68 0 0
7.76 0 0
7.84 0 0
7.92 0 0
8 0 0
8.08 0 0
8.16 0 0
8.24 0 0
8.32 0 0
8.4 0 0
8.48 0 0
8.56 0 0
8.64 0 0
8.72 0 0
8.8 0 0
8.88 0 0
8.96 0 0
9.04 0 0
9.12 0 0
9.2 0 0
9.28 0 0
9.36 0 0
9.44 0 0
9.52 0 0
9.6 0 0
9.68 0 0
9.76 0 0
9.84 0 0
9.92 0 0
10 0 0
10.08 0 0
10.16 0 0
10.24 0 0
10.32 0 0
10.4 0 0
10.48 0 0
10.56 0 0
10.64 0 0
10.72 0 0
10.8 0 0
10.88 0 0
10.96 0 0
11.04 0 0
11.12 0 0
11.2 0 0
11.28 0 0
11.36 0 0
11.44 0 0
11.52 0 0
11.6 0 0
11.68 0 0
11.76 0 0
11.84 0 0
11.92 0 0
12 0 0
12.08 0 0
12.16 0 0
12.24 0 0
12.32 0 0
12.4 0 0
12.48 0 0
12.56 0 0
12.64 0 0
12.72 0 0
12.8 0 0
12.88 0 0
12.96 0 0
13.04 0 0
13.12 0 0
13.2 0 0
13.28 0 0
13.36 0 0
13.44 0 0
13.52 0 0
13.6 0 0
13.68 0 0
13.76 0 0
13.84 0 0
13.92 0 0
14 0 0
14.08 0 0
14.16 0 0
14.24 0 0
14.32 0 0
14.4 0 0
14.48 0 0
14.56 0 0
14.64 0 0
14.72 0 0
14.8 0 0
14.88 0 0
14.96 0 0
15.04 0 0
15.12 0 0
15.2 0 0
15.28 0 0
15.36 0 0
15.44 0 0
15.52 0 0
15.6 0 0
15.68 0 0
15.76 0 0
15.84 0 0
15.92 0 0
16 0 0
16.08 0 0
16.16 0 0
16.24 0 0
16.32 0 0
16.4 0 0
16.48 0 0
16.56 0 0
16.64 0 0
16.72 0 0
16.8 0 0
16.88 0 0
16.96 0 0
17.04 0 0
17.12 0 0
17.2 0 0
17.28 0 0
17.36 0 0
17.44 0 0
17.52 0 0
17.6 0 0
17.68 0 0
17.76 0 0
17.84 0 0
17.92 0 0
18 0 0
18.08 0 0
18.16 0 0
18.24 0 0
18.32 0 0
18.4 0 0
18.48 0 0
18.56 0 0
18.64 0 0
18.72 0 0
18.8 0 0
18.88 0 0
18.96 0 0
19.04 0 0
19.12 0 0
19.2 0 0
19.28 0 0
19.36 0 0
19.44 0 0
19.52 0 0
19.6 0 0
19.68 0 0
19.76 0 0
19.84 0 0
19.92 0 0
20 0 0
20.08 0 0
20.16 0 0
20.24 0 0
20.32 0 0
20.4 0 0
20.48 0 0
20.56 0 0
20.64 0 0
20.72 0 0
20.8 0 0
20.88 0 0
20.96 0 0
21.04 0 0
21.12 0 0
21.2 0 0
21.28 0 0
21.36 0 0
21.44 0 0
21.52 0 0
21.6 0 0
21.68 0 0
21.76 0 0
21.84 0 0
21.92 0 0
22 0 0
22.08 0 0
22.16 0 0
22.24 0 0
22.32 0 0
22.4 0 0
22.48 0 0
22.56 0 0
22.64 0 0
22.72 0 0
22.8 0 0
22.88 0 0
22.96 0 0
23.04 0 0
23.12 0 0
23.2 0 0
23.28 0 0
23.36 0 0
23.44 0 0
23.52 0 0
23.6 0 0
23.68 0 0
23.76 0 0
23.84 0 0
23.92 0 0
24 0 0
24.08 0 0
24.16 0 0
24.24 0 0
24.32 0 0
24.4 0 0
24.48 0 0
24.56 0 0
24.64 0 0
24.72 0 0
24.8 0 0
24.88 0 0
24.96 0 0
25.04 0 0
25.12 0 0
25.2 0 0
25.28 0 0
25.36 0 0
25.44 0 0
25.52 0 0
25.6 0 0
25.68 0 0
25.76 0 0
25.84 0 0
25.92 0 0
26 0 0
26.08 0 0
26.16 0 0
26.24 0 0
26.32 0 0
26.4 0 0
26.48 0 0
26.56 0 0
26.64 0 0
26.72 0 0
26.8 0 0
26.88 0 0
26.96 0 0
27.04 0 0
27.12 0 0
27.2 0 0
27.28 0 0
27.36 0 0
27.44 0 0
27.52 0 0
27.6 0 0
27.68 0 0
27.76 0 0
27.84 0 0
27.92 0 0
28 0 0
28.08 0 0
28.16 0 0
28.24 0 0
28.32 0 0
28.4 0 0
28.48 0 0
28.56 0 0
28.64 0 0
28.72 0 0
28.8 0 0
28.88 0 0
28.96 0 0
29.04 0 0
29.12 0 0
29.2 0 0
29.28 0 0
29.36 0 0
29.44 0 0
29.52 0 0
29.6 0 0
29.68 0 0
29.76 0 0
29.84 0 0
29.92 0 0
30 0 0
30.08 0 0
30.16 0 0
30.24 0 0
30.32 0 0
30.4 0 0
30.48 0 0
30.56 0 0
30.64 0 0
30.72 0 0
30.8 0 0
30.88 0 0
30.96 0 0
31.04 0 0
31.12 0 0
31.2 0 0
31.28 0 0
31.36 0 0
31.44 0 0
31.52 0 0
31.6 0 0
31.68 0 0
31.76 0 0
31.84 0 0
31.92 0 0
0 0.005 0
0.08 0.005 0
0.16 0.005 0
0.24 0.005 0
0.32 0.005 0
0.4 0.005 0
0.48 0.005 0
0.56 0.005 0
0.64 0.005 0
0.72 0.005 0
0.8 0.005 0
0.88 0.005 0
0.96 0.005 0
1.04 0.005 0
1.12 0.005 0
1.2 0.005 0
1.28 0.005 0
1.36 0.005 0
1.44 0.005 0
1.52 0.005 0
1.6 0.005 0
1.68 0.005 0
1.76 0.005 0
1.84 0.005 0
1.92 0.005 0
2 0.005 0
2.08 0.005 0
2.16 0.005 0
2.24 0.005 0
2.32 0.005 0
2.4 0.005 0
2.48 0.005 0
2.56 0.005 0
2.64 0.005 0
2.72 0.005 0
2.8 0.005 0
2.88 0.005 0
2.96 0.005 0
3.04 0.005 0
3.12 0.005 0
3.2 0.005 0
3.28 0.005 0
3.36 0.005 0
3.44 0.005 0
3.52 0.005 0
3.6 0.005 0
3.68 0.005 0
3.76 0.005 0
3.84 0.005 0
3.92 0.005 0
4 0.005 0
4.08 0.005 0
4.16 0.005 0
4.24 0.005 0
4.32 0.005 0
4.4 0.005 0
4.48 0.005 0
4.56 0.005 0
4.64 0.005 0
4.72 0.005 0
4.8 0.005 0
4.88 0.005 0
4.96 0.005 0
5.04 0.005 0
5.12 0.005 0
5.2 0.005 0
5.28 0.005 0
5.36 0.005 0
5.44 0.005 0
5.52 0.005 0
5.6 0.005 0
5.68 0.005 0
5.76 0.005 0
5.84 0.005 0
5.92 0.005 0
6 0.005 0
6.08 0.005 0
6.16 0.005 0
6.24 0.005 0
6.32 0.005 0
6.4 0.005 0
6.48 0.005 0
6.56 0.005 0
6.64 0.005 0
6.72 0.005 0
6.8 0.005 0
6.88 0.005 0
6.96 0.005 0
7.04 0.005 0
7.12 0.005 0
7.2 0.005 0
7.28 0.005 0
7.36 0.005 0
7.44 0.005 0
7.52 0.005 0
7.6 0.005 0
7.68 0.005 0
7.76 0.005 0
7.84 0.005 0
7.92 0.005 0
8 0.005 0
8.08 0.005 0
8.16 0.005 0
8.24 0.005 0
8.32 0.005 0
8.4 0.005 0
8.48 0.005 0
8.56 0.005 0
8.64 0.005 0
8.72 0.005 0
8.8 0.005 0
8.88 0.005 0
8.96 0.005 0
9.04 0.005 0
9.12 0.005 0
9.2 0.005 0
9.28 0.005 0
9.36 0.005 0
9.44 0.005 0
9.52 0.005 0
9.6 0.005 0
9.68 0.005 0
9.76 0.005 0
9.84 0.005 0
9.92 0.005 0
10 0.005 0
10.08 0.005 0
10.16 0.005 0
10.24 0.005 0
10.32 0.005 0
10.4 0.005 0
10.48 0.005 0
10.56 0.005 0
10.64 0.005 0
10.72 0.005 0
10.8 0.005 0
10.88 0.005 0
10.96 0.005 0
11.04 0.005 0
11.12 0.005 0
11.2 0.005 0
11.28 0.005 0
11.36 0.005 0
11.44 0.005 0
11.52 0.005 0
11.6 0.005 0
11.68 0.005 0
11.76 0.005 0
11.84 0.005 0
11.92 0.005 0
12 0.005 0
12.08 0.005 0
12.16 0.005 0
12.24 0.005 0
12.32 0.005 0
12.4 0.005 0
12.48 0.005 0
12.56 0.005 0
12.64 0.005 0
12.72 0.005 0
12.8 0.005 0
12.88 0.005 0
12.96 0.005 0
13.04 0.005 0
13.12 0.005 0
13.2 0.005 0
13.28 0.005 0
13.36 0.005 0
13.44 0.005 0
13.52 0.005 0
13.6 0.005 0
13.68 0.005 0
13.76 0.005 0
13.84 0.005 0
13.92 0.005 0
14 0.005 0
14.08 0.005 0
14.16 0.005 0
14.24 0.005 0
14.32 0.005 0
14.4 0.005 0
14.48 0.005 0
14.56 0.005 0
14.64 0.005 0
14.72 0.005 0
14.8 0.005 0
14.88 0.005 0
14.96 0.005 0
15.04 0.005 0
15.12 0.005 0
15.2 0.005 0
15.28 0.005 0
15.36 0.005 0
15.44 0.005 0
15.52 0.005 0
15.6 0.005 0
15.68 0.005 0
15.76 0.005 0
15.84 0.005 0
15.92 0.005 0
16 0.005 0
16.08 0.005 0
16.16 0.005 0
16.24 0.005 0
16.32 0.005 0
16.4 0.005 0
16.48 0.005 0
16.56 0.005 0
16.64 0.005 0
16.72 0.005 0
16.8 0.005 0
16.88 0.005 0
16.96 0.005 0
17.04 0.005 0
17.12 0.005 0
17.2 0.005 0
17.28 0.005 0
17.36 0.005 0
17.44 0.005 0
17.52 0.005 0
17.6 0.005 0
17.68 0.005 0
17.76 0.005 0
17.84 0.005 0
17.92 0.005 0
18 0.005 0
18.08 0.005 0
18.16 0.005 0
18.24 0.005 0
18.32 0.005 0
18.4 0.005 0
18.48 0.005 0
18.56 0.005 0
18.64 0.005 0
18.72 0.005 0
18.8 0.005 0
18.88 0.005 0
18.96 0.005 0
19.04 0.005 0
19.12 0.005 0
19.2 0.005 0
19.28 0.005 0
19.36 0.005 0
19.44 0.005 0
19.52 0.005 0
19.6 0.005 0
19.68 0.005 0
19.76 0.005 0
19.84 0.005 0
19.92 0.005 0
20 0.005 0
20.08 0.005 0
20.16 0.005 0
20.24 0.005 0
20.32 0.005 0
20.4 0.005 0
20.48 0.005 0
20.56 0.005 0
20.64 0.005 0
20.72 0.005 0
20.8 0.005 0
20.88 0.005 0
20.96 0.005 0
21.04 0.005 0
21.12 0.005 0
21.2 0.005 0
21.28 0.005 0
21.36 0.005 0
21.44 0.005 0
21.52 0.005 0
21.6 0.005 0
21.68 0.005 0
21.76 0.005 0
21.84 0.005 0
21.92 0.005 0
22 0.005 0
22.08 0.005 0
22.16 0.005 0
22.24 0.005 0
22.32 0.005 0
22.4 0.005 0
22.48 0.005 0
22.56 0.005 0
22.64 0.005 0
22.72 0.005 0
22.8 0.005 0
22.88 0.005 0
22.96 0.005 0
23.04 0.005 0
23.12 0.005 0
23.2 0.005 0
23.28 0.005 0
23.36 0.005 0
23.44 0.005 0
23.52 0.005 0
23.6 0.005 0
23.68 0.005 0
23.76 0.005 0
23.84 0.005 0
23.92 0.005 0
24 0.005 0
24.08 0.005 0
24.16 0.005 0
24.24 0.005 0
24.32 0.005 0
24.4 0.005 0
24.48 0.005 0
24.56 0.005 0
24.64 0.005 0
24.72 0.005 0
24.8 0.005 0
24.88 0.005 0
24.96 0.005 0
25.04 0.005 0
25.12 0.005 0
25.2 0.005 0
25.28 0.005 0
25.36 0.005 0
25.44 0.005 0
25.52 0.005 0
25.6 0.005 0
25.68 0.005 0
25.76 0.005 0
25.84 0.005 0
25.92 0.005 0
26 0.005 0
26.08 0.005 0
26.16 0.005 0
26.24 0.005 0
26.32 0.005 0
26.4 0.005 0
26.48 0.005 0
26.56 0.005 0
26.64 0.005 0
26.72 0.005 0
26.8 0.005 0
26.88 0.005 0
26.96 0.005 0
27.04 0.005 0
27.12 0.005 0
27.2 0.005 0
27.28 0.005 0
27.36 0.005 0
27.44 0.005 0
27.52 0.005 0
27.6 0.005 0
27.68 0.005 0
27.76 0.005 0
27.84 0.005 0
27.92 0.005 0
28 0.005 0
28.08 0.005 0
28.16 0.005 0
28.24 0.005 0
28.32 0.005 0
28.4 0.005 0
28.48 0.005 0
28.56 0.005 0
28.64 0.005 0
28.72 0.005 0
28.8 0.005 0
28.88 0.005 0
28.96 0.005 0
29.04 0.005 0
29.12 0.005 0
29.2 0.005 0
29.28 0.005 0
29.36 0.005 0
29.44 0.005 0
29.52 0.005 0
29.6 0.005 0
29.68 0.005 0
29.76 0.005 0
29.84 0.005 0
29.92 0.005 0
30 0.005 0
30.08 0.005 0
30.16 0.005 0
30.24 0.005 0
30.32 0.005 0
30.4 0.005 0
30.48 0.005 0
30.56 0.005 0
30.64 0.005 0
30.72 0.005 0
30.8 0.005 0
30.88 0.005 0
30.96 0.005 0
31.04 0.005 0
31.12 0.005 0
31.2 0.005 0
31.28 0.005 0
31.36 0.005 0
31.44 0.005 0
31.52 0.005 0
31.6 0.005 0
31.68 0.005 0
31.76 0.005 0
31.84 0.005 0
31.92 0.005 0
0 0.01 0
0.08 0.01 0
0.16 0.01 0
0.24 0.01 0
0.32 0.01 0
0.4 0.01 0
0.48 0.01 0
0.56 0.01 0
0.64 0.01 0
0.72 0.01 0
0.8 0.01 0
0.88 0.01 0
0.96 0.01 0
1.04 0.01 0
1.12 0.01 0
1.2 0.01 0
1.28 0.01 0
1.36 0.01 0
1.44 0.01 0
1.52 0.01 0
1.6 0.01 0
1.68 0.01 0
1.76 0.01 0
1.84 0.01 0
1.92 0.01 0
2 0.01 0
2.08 0.01 0
2.16 0.01 0
2.24 0.01 0
2.32 0.01 0
2.4 0.01 0
2.48 0.01 0
2.56 0.01 0
2.64 0.01 0
2.72 0.01 0
2.8 0.01 0
2.88 0.01 0
2.96 0.01 0
3.04 0.01 0
3.12 0.01 0
3.2 0.01 0
3.28 0.01 0
3.36 0.01 0
3.44 0.01 0
3.52 0.01 0
3.6 0.01 0
3.68 0.01 0
3.76 0.01 0
3.84 0.01 0
3.92 0.01 0
4 0.01 0
4.08 0.01 0
4.16 0.01 0
4.24 0.01 0
4.32 0.01 0
4.4 0.01 0
4.48 0.01 0
4.56 0.01 0
4.64 0.01 0
4.72 0.01 0
4.8 0.01 0
4.88 0.01 0
4.96 0.01 0
5.04 0.01 0
5.12 0.01 0
[...]
POINT_DATA 80000

SCALARS p float 1
LOOKUP_TABLE default
1
57.0481
56.7464
56.7052
56.6851
56.6707
56.6587
56.6479
56.6379
56.6284
56.6193
56.6104
56.6018
56.5934
56.5852
56.5772
56.5694
56.5618
56.5543
56.5471
56.54
56.5332
56.5265
56.52
56.5138
56.5078
56.5021
56.4966
56.4913
56.486
56.4807
56.4754
56.4701
56.4649
56.4598
56.4547
56.4498
56.4449
56.4402
56.4354
56.4308
56.4261
56.4215
56.4168
56.4122
56.4076
56.4029
56.3983
56.3937
56.389
56.3844
56.3797
56.3751
56.3705
56.3658
56.3612
56.3565
56.3519
56.3473
56.3426
56.338
56.3333
56.3287
56.324
56.3194
56.3147
56.3101
56.3054
56.3008
56.2961
56.2915
56.2868
56.2822
56.2775
56.2729
56.2682
56.2636
56.2589
56.2543
56.2496
56.2449
56.2403
56.2356
56.231
56.2263
56.2216
56.217
56.2123
56.2077
56.203
56.1983
56.1937
56.189
56.1843
56.1797
56.175
56.1703
56.1657
56.161
56.1563
56.1516
56.147
56.1423
56.1376
56.1329
56.1283
56.1236
56.1189
56.1142
56.1096
56.1049
56.1002
56.0955
56.0908
56.0861
56.0815
56.0768
56.0721
56.0674
56.0627
56.058
56.0533
56.0486
56.044
56.0393
56.0346
56.0299
56.0252
56.0205
56.0158
56.0111
56.0064
56.0017
55.997
55.9923
55.9876
55.9829
55.9782
55.9735
55.9688
55.9641
55.9594
55.9547
55.95
55.9452
55.9405
55.9358
55.9311
55.9264
55.9217
55.917
55.9122
55.9075
55.9028
55.8981
55.8934
55.8886
55.8839
55.8792
55.8745
55.8697
55.865
55.8603
55.8555
55.8508
55.8461
55.8413
55.8366
55.8319
55.8271
55.8224
55.8176
55.8129
55.8081
55.8034
55.7986
55.7939
55.7891
55.7844
55.7796
55.7748
55.7701
55.7653
55.7605
55.7558
55.751
55.7462
55.7414
55.7367
55.7319
55.7271
55.7223
55.7175
55.7127
55.7079
55.7031
55.6983
55.6935
55.6887
55.6839
55.6791
55.6742
55.6694
55.6646
55.6597
55.6549
55.6501
55.6452
55.6404
55.6355
55.6307
55.6258
55.6209
55.6161
55.6112
55.6063
55.6014
55.5965
55.5916
55.5867
55.5818
55.5769
55.572
55.567
55.5621
55.5572
55.5522
55.5473
55.5423
55.5374
55.5324
55.5274
55.5224
55.5174
55.5125
55.5075
55.5024
55.4974
55.4924
55.4874
55.4824
55.4773
55.4723
55.4672
55.4622
55.4571
55.452
55.4469
55.4418
55.4367
55.4316
55.4265
55.4214
55.4163
55.4112
55.406
55.4009
55.3958
55.3906
55.3854
55.3803
55.3751
55.3699
55.3647
55.3595
55.3544
55.3492
55.3439
55.3387
55.3335
55.3283
55.3231
55.3178
55.3126
55.3074
55.3021
55.2969
55.2916
55.2863
55.2811
55.2758
55.2706
55.2653
55.26
55.2547
55.2494
55.2442
55.2389
55.2336
55.2283
55.223
55.2177
55.2124
55.2071
55.2018
55.1965
55.1912
55.1859
55.1806
55.1753
55.1699
55.1646
55.1593
55.154
55.1487
55.1434
55.1381
55.1327
55.1274
55.1221
55.1168
55.1115
55.1062
55.1009
55.0955
55.0902
55.0849
55.0796
55.0743
55.069
55.0637
55.0584
55.053
55.0477
55.0424
55.0371
55.0318
55.0265
55.0212
55.0159
55.0106
55.0053
55
54.9946
54.9893
54.984
54.9787
54.9734
54.9681
54.9628
54.9575
54.9522
54.9469
54.9416
54.9363
54.931
54.9257
54.9203
54.915
54.9097
54.9044
54.8991
54.8938
54.8885
54.8831
54.8778
54.8725
54.8672
54.8619
54.8565
54.8512
54.8459
54.8405
54.8352
54.8299
54.8245
54.8192
54.8138
54.8085
54.8031
54.7978
54.7924
54.7871
54.7817
54.7763
54.771
54.7656
54.7602
54.7548
54.7494
54.744
54.7386
54.7332
54.7278
54.7224
54.7169
54.7115
54.7061
54.7006
54.6952
54.6897
54.6842
54.6788
54.6733
54.6678
54.6623
54.6568
54.6513
54.6458
0.5
57.0481
57.0481
56.7464
56.7052
56.6851
56.6707
56.6587
56.6479
56.6379
56.6284
56.6193
56.6104
56.6018
56.5934
56.5852
56.5772
56.5694
56.5618
56.5543
56.5471
56.54
56.5332
56.5265
56.52
56.5138
56.5078
56.5021
56.4966
56.4913
56.486
56.4807
56.4754
56.4701
56.4649
56.4598
56.4547
56.4498
56.4449
56.4402
56.4354
56.4308
56.4261
56.4215
56.4168
56.4122
56.4076
56.4029
56.3983
56.3937
56.389
56.3844
56.3797
56.3751
56.3705
56.3658
56.3612
56.3565
56.3519
56.3473
56.3426
56.338
56.3333
56.3287
56.324
56.3194
56.3147
56.3101
56.3054
56.3008
56.2961
56.2915
56.2868
56.2822
56.2775
56.2729
56.2682
56.2636
56.2589
56.2543
56.2496
56.2449
56.2403
56.2356
56.231
56.2263
56.2216
56.217
56.2123
56.2077
56.203
56.1983
56.1937
56.189
56.1843
56.1797
56.175
56.1703
56.1657
56.161
56.1563
56.1516
56.147
56.1423
56.1376
56.1329
56.1283
56.1236
56.1189
56.1142
56.1096
56.1049
56.1002
56.0955
56.0908
56.0861
56.0815
56.0768
56.0721
56.0674
56.0627
56.058
56.0533
56.0486
56.044
56.0393
56.0346
56.0299
56.0252
56.0205
56.0158
56.0111
56.0064
56.0017
55.997
55.9923
55.9876
55.9829
55.9782
55.9735
55.9688
55.9641
55.9594
55.9547
55.95
55.9452
55.9405
55.9358
55.9311
55.9264
55.9217
55.917
55.9122
55.9075
55.9028
55.8981
55.8934
55.8886
55.8839
55.8792
55.8745
55.8697
55.865
55.8603
55.8555
55.8508
55.8461
55.8413
55.8366
55.8319
55.8271
55.8224
55.8176
55.8129
55.8081
55.8034
55.7986
55.7939
55.7891
55.7844
55.7796
55.7748
55.7701
55.7653
55.7605
55.7558
55.751
55.7462
55.7414
55.7367
55.7319
55.7271
55.7223
55.7175
55.7127
55.7079
55.7031
55.6983
55.6935
55.6887
55.6839
55.6791
55.6742
55.6694
55.6646
55.6597
55.6549
55.6501
55.6452
55.6404
55.6355
55.6307
55.6258
55.6209
55.6161
55.6112
55.6063
55.6014
55.5965
55.5916
55.5867
55.5818
55.5769
55.572
55.567
55.5621
55.5572
55.5522
55.5473
55.5423
55.5374
55.5324
55.5274
55.5224
55.5174
55.5125
55.5075
55.5024
55.4974
55.4924
55.4874
55.4824
55.4773
55.4723
55.4672
55.4622
55.4571
55.452
55.4469
55.4418
55.4367
55.4316
55.4265
55.4214
55.4163
55.4112
55.406
55.4009
55.3958
55.3906
55.3854
55.3803
55.3751
55.3699
55.3647
55.3595
55.3544
55.3492
55.3439
55.3387
55.3335
55.3283
55.3231
55.3178
55.3126
55.3074
55.3021
55.2969
55.2916
55.2863
55.2811
55.2758
55.2706
55.2653
55.26
55.2547
55.2494
55.2442
55.2389
55.2336
55.2283
55.223
55.2177
55.2124
55.2071
55.2018
55.1965
55.1912
55.1859
55.1806
55.1753
55.1699
55.1646
55.1593
55.154
55.1487
55.1434
55.1381
55.1327
55.1274
55.1221
55.1168
55.1115
55.1062
55.1009
55.0955
55.0902
55.0849
55.0796
55.0743
55.069
55.0637
55.0584
55.053
55.0477
55.0424
55.0371
55.0318
55.0265
55.0212
55.0159
55.0106
55.0053
55
54.9946
54.9893
54.984
54.9787
54.9734
54.9681
54.9628
54.9575
54.9522
54.9469
54.9416
54.9363
54.931
54.9257
54.9203
54.915
54.9097
54.9044
54.8991
54.8938
54.8885
54.8831
54.8778
54.8725
54.8672
54.8619
54.8565
54.8512
54.8459
54.8405
54.8352
54.8299
54.8245
54.8192
54.8138
54.8085
54.8031
54.7978
54.7924
54.7871
54.7817
54.7763
54.771
54.7656
54.7602
54.7548
54.7494
54.744
54.7386
54.7332
54.7278
54.7224
54.7169
54.7115
54.7061
54.7006
54.6952
54.6897
54.6842
54.6788
54.6733
54.6678
54.6623
54.6568
54.6513
54.6458
54.6458
57.0335
57.0335
56.7502
56.7064
56.6857
56.6711
56.6589
56.6481
56.6381
56.6285
56.6194
56.6105
56.6018
56.5934
56.5853
56.5773
56.5694
56.5618
56.5544
56.5471
56.5401
56.5332
56.5265
56.52
56.5138
56.5079
56.5022
56.4967
56.4913
56.486
56.4807
56.4754
56.4701
56.4649
56.4598
56.4547
56.4498
56.4449
56.4402
56.4354
56.4308
56.4261
56.4215
56.4168
56.4122
56.4076
56.4029
56.3983
56.3937
56.389
56.3844
56.3797
56.3751
56.3705
56.3658
56.3612
56.3565
56.3519
56.3473
56.3426
56.338
56.3333
56.3287
56.324
56.3194
56.3147
56.3101
56.3054
56.3008
56.2961
56.2915
56.2868
56.2822
56.2775
56.2729
56.2682
56.2636
56.2589
56.2543
56.2496
56.2449
56.2403
56.2356
56.231
56.2263
56.2216
56.217
56.2123
56.2077
56.203
56.1983
56.1937
56.189
56.1843
56.1797
56.175
56.1703
56.1657
56.161
56.1563
56.1516
56.147
56.1423
56.1376
56.1329
56.1283
56.1236
56.1189
56.1142
56.1096
56.1049
56.1002
56.0955
56.0908
56.0861
56.0815
56.0768
56.0721
56.0674
56.0627
56.058
56.0533
56.0486
56.044
56.0393
56.0346
56.0299
56.0252
56.0205
56.0158
56.0111
56.0064
56.0017
55.997
55.9923
55.9876
55.9829
55.9782
55.9735
55.9688
55.9641
55.9594
55.9547
55.95
55.9452
55.9405
55.9358
55.9311
55.9264
55.9217
55.917
55.9122
55.9075
55.9028
55.8981
55.8934
55.8886
55.8839
55.8792
55.8745
55.8697
55.865
55.8603
55.8555
55.8508
55.8461
55.8413
55.8366
55.8319
55.8271
55.8224
55.8176
55.8129
55.8081
55.8034
55.7986
55.7939
55.7891
55.7844
55.7796
55.7748
55.7701
55.7653
55.7605
55.7558
55.751
55.7462
55.7414
55.7367
55.7319
55.7271
55.7223
55.7175
55.7127
55.7079
55.7031
55.6983
55.6935
55.6887
55.6839
55.6791
55.6742
55.6694
55.6646
55.6597
55.6549
55.6501
55.6452
55.6404
55.6355
55.6307
55.6258
55.6209
55.6161
55.6112
55.6063
55.6014
55.5965
55.5916
55.5867
55.5818
55.5769
55.572
55.567
55.5621
55.5572
55.5522
55.5473
55.5423
55.5374
55.5324
55.5274
55.5224
55.5174
55.5125
55.5075
55.5024
55.4974
55.4924
55.4874
55.4824
55.4773
55.4723
55.4672
55.4622
55.4571
55.452
55.4469
55.4418
55.4367
55.4316
55.4265
55.4214
55.4163
55.4112
55.406
55.4009
55.3958
55.3906
55.3854
55.3803
55.3751
55.3699
55.3647
55.3595
55.3544
55.3492
55.3439
55.3387
55.3335
55.3283
55.3231
55.3178
55.3126
55.3074
55.3021
55.2969
55.2916
55.2863
55.2811
55.2758
55.2706
55.2653
55.26
55.2547
55.2494
55.2442
55.2389
55.2336
55.2283
55.223
55.2177
55.2124
55.2071
55.2018
55.1965
55.1912
55.1859
55.1806
55.1752
55.1699
55.1646
55.1593
55.154
55.1487
55.1434
55.1381
55.1327
55.1274
55.1221
55.1168
55.1115
55.1062
55.1009
55.0955
55.0902
55.0849
55.0796
55.0743
55.069
55.0637
55.0584
55.053
55.0477
55.0424
55.0371
55.0318
55.0265
55.0212
55.0159
55.0106
55.0053
55
54.9946
54.9893
54.984
54.9787
54.9734
54.9681
54.9628
54.9575
54.9522
54.9469
54.9416
54.9363
54.931
54.9257
54.9203
54.915
54.9097
54.9044
54.8991
54.8938
54.8885
54.8831
54.8778
54.8725
54.8672
54.8619
54.8565
54.8512
54.8459
54.8405
54.8352
54.8299
54.8245
54.8192
54.8138
54.8085
54.8031
54.7978
54.7924
54.7871
54.7817
54.7763
54.771
54.7656
54.7602
54.7548
54.7494
54.744
54.7386
54.7332
54.7278
54.7224
54.7169
54.7115
54.7061
54.7006
54.6952
54.6897
54.6842
54.6788
54.6733
54.6678
54.6623
54.6568
54.6513
54.6458
54.6458
57.0175
57.0175
56.7534
56.7076
56.6863
56.6715
56.6592
56.6483
56.6382
56.6286
56.6195
56.6106
56.6019
56.5935
56.5853
56.5773
56.5695
56.5618
56.5544
56.5472
56.5401
56.5332
56.5265
56.52
56.5138
56.5079
56.5022
56.4967
56.4913
56.486
56.4807
56.4754
56.4701
56.4649
56.4598
56.4547
56.4498
56.4449
56.4402
56.4354
56.4308
56.4261
56.4215
56.4168
56.4122
56.4076
56.4029
56.3983
56.3937
56.389
56.3844
56.3797
56.3751
56.3705
56.3658
56.3612
56.3565
56.3519
56.3473
56.3426
56.338
56.3333
56.3287
56.324
56.3194
56.3147
56.3101
56.3054
56.3008
56.2961
56.2915
56.2868
56.2822
56.2775
56.2729
56.2682
56.2636
56.2589
56.2543
56.2496
56.2449
56.2403
56.2356
56.231
56.2263
56.2216
56.217
56.2123
56.2077
56.203
56.1983
56.1937
56.189
56.1843
56.1797
56.175
56.1703
56.1657
56.161
56.1563
56.1516
56.147
56.1423
56.1376
56.1329
56.1283
56.1236
56.1189
56.1142
56.1096
56.1049
56.1002
56.0955
56.0908
56.0861
56.0815
56.0768
56.0721
56.0674
56.0627
56.058
56.0533
56.0486
56.044
56.0393
56.0346
56.0299
56.0252
56.0205
56.0158
56.0111
56.0064
56.0017
55.997
55.9923
55.9876
55.9829
55.9782
55.9735
55.9688
55.9641
55.9594
55.9547
55.95
55.9452
55.9405
55.9358
55.9311
55.9264
55.9217
55.917
55.9122
55.9075
55.9028
55.8981
55.8934
55.8886
55.8839
55.8792
55.8745
55.8697
55.865
55.8603
55.8555
55.8508
55.8461
55.8413
55.8366
55.8319
55.8271
55.8224
55.8176
55.8129
55.8081
55.8034
55.7986
55.7939
55.7891
55.7844
55.7796
55.7748
55.7701
55.7653
55.7605
55.7558
55.751
55.7462
55.7414
55.7367
55.7319
55.7271
55.7223
55.7175
55.7127
55.7079
55.7031
55.6983
55.6935
55.6887
55.6839
55.6791
55.6742
55.6694
55.6646
55.6597
55.6549
55.6501
55.6452
55.6404
55.6355
55.6307
55.6258
55.6209
55.6161
55.6112
55.6063
55.6014
55.5965
55.5916
55.5867
55.5818
55.5769
55.572
55.567
55.5621
55.5572
55.5522
55.5473
55.5423
55.5374
55.5324
55.5274
55.5224
55.5174
55.5125
55.5075
55.5024
55.4974
55.4924
55.4874
55.4824
55.4773
55.4723
55.4672
55.4621
55.4571
55.452
55.4469
55.4418
55.4367
55.4316
55.4265
55.4214
55.4163
55.4112
55.406
55.4009
55.3957
55.3906
55.3854
55.3803
55.3751
55.3699
55.3647
55.3595
55.3544
55.3492
55.3439
55.3387
55.3335
55.3283
55.3231
55.3178
55.3126
55.3074
55.3021
55.2969
55.2916
55.2863
55.2811
55.2758
55.2706
55.2653
55.26
55.2547
55.2494
55.2442
55.2389
55.2336
55.2283
55.223
55.2177
55.2124
55.2071
55.2018
55.1965
55.1912
55.1859
55.1806
55.1752
55.1699
55.1646
55.1593
55.154
55.1487
55.1434
55.1381
55.1327
55.1274
55.1221
55.1168
55.1115
55.1062
55.1009
55.0955
55.0902
55.0849
55.0796
55.0743
55.069
55.0637
55.0584
55.053
55.0477
55.0424
55.0371
55.0318
55.0265
55.0212
55.0159
55.0106
55.0053
55
54.9946
54.9893
54.984
54.9787
54.9734
54.9681
54.9628
54.9575
54.9522
54.9469
54.9416
54.9363
54.931
54.9257
54.9203
54.915
54.9097
54.9044
54.8991
54.8938
54.8885
54.8831
54.8778
54.8725
54.8672
54.8619
54.8565
54.8512
54.8459
54.8405
54.8352
54.8299
54.8245
54.8192
54.8138
54.8085
54.8031
54.7978
54.7924
54.7871
54.7817
54.7763
54.771
54.7656
54.7602
54.7548
54.7494
54.744
54.7386
54.7332
54.7278
54.7224
54.7169
54.7115
54.7061
54.7006
54.6952
54.6897
54.6842
54.6788
54.6733
54.6678
54.6623
54.6568
54.6513
54.6458
54.6458
57.0016
57.0016
56.7563
56.7088
56.6869
56.6718
56.6595
56.6485
56.6384
56.6288
56.6196
56.6106
56.602
56.5936
56.5854
56.5773
56.5695
56.5619
56.5544
56.5472
56.5401
56.5332
56.5265
56.5201
56.5138
56.5079
56.5022
56.4967
56.4913
56.486
56.4807
56.4754
56.4701
56.4649
56.4598
56.4547
56.4498
56.4449
56.4402
56.4354
56.4308
56.4261
56.4215
56.4168
56.4122
56.4076
56.4029
56.3983
56.3937
56.389
56.3844
56.3797
56.3751
56.3705
56.3658
56.3612
56.3565
56.3519
56.3473
56.3426
56.338
56.3333
56.3287
56.324
56.3194
56.3147
56.3101
56.3054
56.3008
56.2961
56.2915
56.2868
56.2822
56.2775
56.2729
56.2682
56.2636
56.2589
56.2543
56.2496
56.2449
56.2403
56.2356
56.231
56.2263
56.2216
56.217
56.2123
56.2077
56.203
56.1983
56.1937
56.189
56.1843
56.1797
56.175
56.1703
56.1657
56.161
56.1563
56.1516
56.147
56.1423
56.1376
56.1329
56.1283
56.1236
56.1189
56.1142
56.1096
56.1049
56.1002
56.0955
56.0908
56.0861
56.0815
56.0768
56.0721
56.0674
56.0627
56.058
56.0533
56.0486
56.044
56.0393
56.0346
56.0299
56.0252
56.0205
56.0158
56.0111
56.0064
56.0017
55.997
55.9923
55.9876
55.9829
55.9782
55.9735
55.9688
55.9641
55.9594
55.9547
55.95
55.9452
55.9405
55.9358
55.9311
55.9264
55.9217
55.917
55.9122
55.9075
55.9028
55.8981
55.8934
55.8886
55.8839
55.8792
55.8745
55.8697
55.865
55.8603
55.8555
55.8508
55.8461
55.8413
55.8366
55.8319
55.8271
55.8224
55.8176
55.8129
55.8081
55.8034
55.7986
55.7939
55.7891
55.7844
55.7796
55.7748
55.7701
55.7653
55.7605
55.7558
55.751
55.7462
55.7414
55.7367
55.7319
55.7271
55.7223
55.7175
55.7127
55.7079
55.7031
55.6983
55.6935
55.6887
55.6839
55.6791
55.6742
55.6694
55.6646
55.6597
55.6549
55.6501
55.6452
55.6404
55.6355
55.6307
55.6258
55.6209
55.6161
55.6112
55.6063
55.6014
55.5965
55.5916
55.5867
55.5818
55.5769
55.572
55.567
55.5621
55.5572
55.5522
55.5473
55.5423
55.5374
55.5324
55.5274
55.5224
55.5174
55.5125
55.5075
55.5024
55.4974
55.4924
55.4874
55.4824
55.4773
55.4723
55.4672
55.4621
55.4571
55.452
55.4469
55.4418
55.4367
55.4316
55.4265
55.4214
55.4163
55.4112
55.406
55.4009
55.3957
55.3906
55.3854
55.3803
55.3751
55.3699
55.3647
55.3595
55.3544
55.3492
55.3439
55.3387
55.3335
55.3283
55.3231
55.3178
55.3126
55.3074
55.3021
55.2969
55.2916
55.2863
55.2811
55.2758
55.2706
55.2653
55.26
55.2547
55.2494
55.2442
55.2389
55.2336
55.2283
55.223
55.2177
55.2124
55.2071
55.2018
55.1965
55.1912
55.1859
55.1806
55.1752
55.1699
55.1646
55.1593
55.154
55.1487
55.1434
55.1381
55.1327
55.1274
55.1221
55.1168
55.1115
55.1062
55.1009
55.0955
55.0902
55.0849
55.0796
55.0743
55.069
55.0637
55.0584
55.053
55.0477
55.0424
55.0371
55.0318
55.0265
55.0212
55.0159
55.0106
55.0053
55
54.9946
54.9893
54.984
54.9787
54.9734
54.9681
54.9628
54.9575
54.9522
54.9469
54.9416
54.9363
54.931
54.9257
54.9203
54.915
54.9097
54.9044
54.8991
54.8938
54.8885
54.8831
54.8778
54.8725
54.8672
54.8619
54.8565
54.8512
54.8459
54.8405
54.8352
54.8299
54.8245
54.8192
54.8138
54.8085
54.8031
54.7978
54.7924
54.7871
54.7817
54.7763
54.771
54.7656
54.7602
54.7548
54.7494
54.744
54.7386
54.7332
54.7278
54.7224
54.7169
54.7115
54.7061
54.7006
54.6952
54.6897
54.6842
54.6788
54.6733
54.6678
54.6623
54.6568
54.6513
54.6458
54.6458
56.9865
56.9865
56.759
56.7099
56.6875
56.6722
56.6597
56.6487
56.6385
56.6289
56.6196
56.6107
56.6021
56.5936
56.5854
56.5774
56.5696
56.5619
56.5545
56.5472
56.5401
56.5332
56.5265
56.5201
56.5138
56.5079
56.5022
56.4967
56.4913
56.486
56.4807
56.4754
56.4701
56.4649
56.4598
56.4547
56.4498
56.4449
56.4402
56.4354
56.4308
56.4261
56.4215
56.4168
56.4122
56.4076
56.4029
56.3983
56.3937
56.389
56.3844
56.3797
56.3751
56.3705
56.3658
56.3612
56.3565
56.3519
56.3473
56.3426
56.338
56.3333
56.3287
56.324
56.3194
56.3147
56.3101
56.3054
56.3008
56.2961
56.2915
56.2868
56.2822
56.2775
56.2729
56.2682
56.2636
56.2589
56.2543
56.2496
56.2449
56.2403
56.2356
56.231
56.2263
56.2216
56.217
56.2123
56.2077
56.203
56.1983
56.1937
56.189
56.1843
56.1797
56.175
56.1703
56.1657
56.161
56.1563
56.1516
56.147
56.1423
56.1376
56.1329
56.1283
56.1236
56.1189
56.1142
56.1096
56.1049
56.1002
56.0955
56.0908
56.0861
56.0815
56.0768
56.0721
56.0674
56.0627
56.058
56.0533
56.0486
56.044
56.0393
56.0346
56.0299
56.0252
56.0205
56.0158
56.0111
56.0064
56.0017
55.997
55.9923
55.9876
55.9829
55.9782
55.9735
55.9688
55.9641
55.9594
55.9547
55.95
55.9452
55.9405
55.9358
55.9311
55.9264
55.9217
55.917
55.9122
55.9075
55.9028
55.8981
55.8934
55.8886
55.8839
55.8792
55.8745
55.8697
55.865
55.8603
55.8555
55.8508
55.8461
55.8413
55.8366
55.8319
55.8271
55.8224
55.8176
55.8129
55.8081
55.8034
55.7986
55.7939
55.7891
55.7844
55.7796
55.7748
55.7701
55.7653
55.7605
55.7558
55.751
55.7462
55.7414
55.7367
55.7319
55.7271
55.7223
55.7175
55.7127
55.7079
55.7031
55.6983
55.6935
55.6887
55.6839
55.6791
55.6742
55.6694
55.6646
55.6597
55.6549
55.6501
55.6452
55.6404
55.6355
55.6307
55.6258
55.6209
55.6161
55.6112
55.6063
55.6014
55.5965
55.5916
55.5867
55.5818
55.5769
55.572
55.567
55.5621
55.5572
55.5522
55.5473
55.5423
55.5374
55.5324
55.5274
55.5224
55.5174
55.5125
55.5075
55.5024
55.4974
55.4924
55.4874
55.4824
55.4773
55.4723
55.4672
55.4621
55.4571
55.452
55.4469
55.4418
55.4367
55.4316
55.4265
55.4214
55.4163
55.4112
55.406
55.4009
55.3957
55.3906
55.3854
55.3803
55.3751
55.3699
55.3647
55.3595
55.3544
55.3492
55.3439
55.3387
55.3335
55.3283
55.3231
55.3178
55.3126
55.3074
55.3021
55.2969
55.2916
55.2863
55.2811
55.2758
55.2705
55.2653
55.26
55.2547
55.2494
55.2442
55.2389
55.2336
55.2283
55.223
55.2177
55.2124
55.2071
55.2018
55.1965
55.1912
55.1859
55.1806
55.1752
55.1699
55.1646
55.1593
55.154
55.1487
55.1434
55.1381
55.1327
55.1274
55.1221
55.1168
55.1115
55.1062
55.1009
55.0955
55.0902
55.0849
55.0796
55.0743
55.069
55.0637
55.0584
55.053
55.0477
55.0424
55.0371
55.0318
55.0265
55.0212
55.0159
55.0106
55.0053
55
54.9946
54.9893
54.984
54.9787
54.9734
54.9681
54.9628
54.9575
54.9522
54.9469
54.9416
54.9363
54.931
54.9257
54.9203
54.915
54.9097
54.9044
54.8991
54.8938
54.8885
54.8831
54.8778
54.8725
54.8672
54.8619
54.8565
54.8512
54.8459
54.8405
54.8352
54.8299
54.8245
54.8192
54.8138
54.8085
54.8031
54.7978
54.7924
54.7871
54.7817
54.7763
54.7709
54.7656
54.7602
54.7548
54.7494
54.744
54.7386
54.7332
54.7278
54.7224
54.7169
54.7115
54.7061
54.7006
54.6952
54.6897
54.6842
54.6788
54.6733
54.6678
54.6623
54.6568
54.6513
54.6458
54.6458
56.9725
56.9725
56.7616
56.711
56.6881
56.6726
56.66
56.6489
56.6387
56.629
56.6197
56.6108
56.6021
56.5937
56.5855
56.5774
56.5696
56.5619
56.5545
56.5472
56.5402
56.5333
56.5266
56.5201
56.5139
56.5079
56.5022
56.4967
56.4913
56.486
56.4807
56.4754
56.4701
56.4649
56.4598
56.4547
56.4498
56.4449
56.4402
56.4354
56.4308
56.4261
56.4215
56.4168
56.4122
56.4076
56.4029
56.3983
56.3937
56.389
56.3844
56.3797
56.3751
56.3705
56.3658
56.3612
56.3565
56.3519
56.3473
56.3426
56.338
56.3333
56.3287
56.324
56.3194
56.3147
56.3101
56.3054
56.3008
56.2961
56.2915
56.2868
56.2822
56.2775
56.2729
56.2682
56.2636
56.2589
56.2543
56.2496
56.2449
56.2403
56.2356
56.231
56.2263
56.2216
56.217
56.2123
56.2077
56.203
56.1983
56.1937
56.189
56.1843
56.1797
56.175
56.1703
56.1657
56.161
56.1563
56.1516
56.147
56.1423
56.1376
56.1329
56.1283
56.1236
56.1189
56.1142
56.1096
56.1049
56.1002
56.0955
56.0908
56.0861
56.0815
56.0768
56.0721
56.0674
56.0627
56.058
56.0533
56.0486
56.044
56.0393
56.0346
56.0299