# vtk DataFile Version 2.0
FlowField
ASCII
DATASET STRUCTURED_GRID
DIMENSIONS 400 1 200
POINTS 80000 float
0 0 0
0.08 0 0
0.16 0 0
0.24 0 0
0.32 0 0
0.4 0 0
0.48 0 0
0.56 0 0
0.64 0 0
0.72 0 0
0.8 0 0
0.88 0 0
0.96 0 0
1.04 0 0
1.12 0 0
1.2 0 0
1.28 0 0
1.36 0 0
1.44 0 0
1.52 0 0
1.6 0 0
1.68 0 0
1.76 0 0
1.84 0 0
1.92 0 0
2 0 0
2.08 0 0
2.16 0 0
2.24 0 0
2.32 0 0
2.4 0 0
2.48 0 0
2.56 0 0
2.64 0 0
2.72 0 0
2.8 0 0
2.88 0 0
2.96 0 0
3.04 0 0
3.12 0 0
3.2 0 0
3.28 0 0
3.36 0 0
3.44 0 0
3.52 0 0
3.6 0 0
3.68 0 0
3.76 0 0
3.84 0 0
3.92 0 0
4 0 0
4.08 0 0
4.16 0 0
4.24 0 0
4.32 0 0
4.4 0 0
4.48 0 0
4.56 0 0
4.64 0 0
4.72 0 0
4.8 0 0
4.88 0 0
4.96 0 0
5.04 0 0
5.12 0 0
5.2 0 0
5.28 0 0
5.36 0 0
5.44 0 0
5.52 0 0
5.6 0 0
5.68 0 0
5.76 0 0
5.84 0 0
5.92 0 0
6 0 0
6.08 0 0
6.16 0 0
6.24 0 0
6.32 0 0
6.4 0 0
6.48 0 0
6.56 0 0
6.64 0 0
6.72 0 0
6.8 0 0
6.88 0 0
6.96 0 0
7.04 0 0
7.12 0 0
7.2 0 0
7.28 0 0
7.36 0 0
7.44 0 0
7.52 0 0
7.6 0 0
7.68 0 0
7.76 0 0
7.84 0 0
7.92 0 0
8 0 0
8.08 0 0
8.16 0 0
8.24 0 0
8.32 0 0
8.4 0 0
8.48 0 0
8.56 0 0
8.64 0 0
8.72 0 0
8.8 0 0
8.88 0 0
8.96 0 0
9.04 0 0
9.12 0 0
9.2 0 0
9.28 0 0
9.36 0 0
9.44 0 0
9.52 0 0
9.6 0 0
9.68 0 0
9.76 0 0
9.84 0 0
9.92 0 0
10 0 0
10.08 0 0
10.16 0 0
10.24 0 0
10.32 0 0
10.4 0 0
10.48 0 0
10.56 0 0
10.64 0 0
10.72 0 0
10.8 0 0
10.88 0 0
10.96 0 0
11.04 0 0
11.12 0 0
11.2 0 0
11.28 0 0
11.36 0 0
11.44 0 0
11.52 0 0
11.6 0 0
11.68 0 0
11.76 0 0
11.84 0 0
11.92 0 0
12 0 0
12.08 0 0
12.16 0 0
12.24 0 0
12.32 0 0
12.4 0 0
12.48 0 0
12.56 0 0
12.64 0 0
12.72 0 0
12.8 0 0
12.88 0 0
12.96 0 0
13.04 0 0
13.12 0 0
13.2 0 0
13.28 0 0
13.36 0 0
13.44 0 0
13.52 0 0
13.6 0 0
13.68 0 0
13.76 0 0
13.84 0 0
13.92 0 0
14 0 0
14.08 0 0
14.16 0 0
14.24 0 0
14.32 0 0
14.4 0 0
14.48 0 0
14.56 0 0
14.64 0 0
14.72 0 0
14.8 0 0
14.88 0 0
14.96 0 0
15.04 0 0
15.12 0 0
15.2 0 0
15.28 0 0
15.36 0 0
15.44 0 0
15.52 0 0
15.6 0 0
15.68 0 0
15.76 0 0
15.84 0 0
15.92 0 0
16 0 0
16.08 0 0
16.16 0 0
16.24 0 0
16.32 0 0
16.4 0 0
16.48 0 0
16.56 0 0
16.64 0 0
16.72 0 0
16.8 0 0
16.88 0 0
16.96 0 0
17.04 0 0
17.12 0 0
17.2 0 0
17.28 0 0
17.36 0 0
17.44 0 0
17.52 0 0
17.6 0 0
17.68 0 0
17.76 0 0
17.84 0 0
17.92 0 0
18 0 0
18.08 0 0
18.16 0 0
18.24 0 0
18.32 0 0
18.4 0 0
18.48 0 0
18.56 0 0
18.64 0 0
18.72 0 0
18.8 0 0
18.88 0 0
18.96 0 0
19.04 0 0
19.12 0 0
19.2 0 0
19.28 0 0
19.36 0 0
19.44 0 0
19.52 0 0
19.6 0 0
19.68 0 0
19.76 0 0
19.84 0 0
19.92 0 0
20 0 0
20.08 0 0
20.16 0 0
20.24 0 0
20.32 0 0
20.4 0 0
20.48 0 0
20.56 0 0
20.64 0 0
20.72 0 0
20.8 0 0
20.88 0 0
20.96 0 0
21.04 0 0
21.12 0 0
21.2 0 0
21.28 0 0
21.36 0 0
21.44 0 0
21.52 0 0
21.6 0 0
21.68 0 0
21.76 0 0
21.84 0 0
21.92 0 0
22 0 0
22.08 0 0
22.16 0 0
22.24 0 0
22.32 0 0
22.4 0 0
22.48 0 0
22.56 0 0
22.64 0 0
22.72 0 0
22.8 0 0
22.88 0 0
22.96 0 0
23.04 0 0
23.12 0 0
23.2 0 0
23.28 0 0
23.36 0 0
23.44 0 0
23.52 0 0
23.6 0 0
23.68 0 0
23.76 0 0
23.84 0 0
23.92 0 0
24 0 0
24.08 0 0
24.16 0 0
24.24 0 0
24.32 0 0
24.4 0 0
24.48 0 0
24.56 0 0
24.64 0 0
24.72 0 0
24.8 0 0
24.88 0 0
24.96 0 0
25.04 0 0
25.12 0 0
25.2 0 0
25.28 0 0
25.36 0 0
25.44 0 0
25.52 0 0
25.6 0 0
25.68 0 0
25.76 0 0
25.84 0 0
25.92 0 0
26 0 0
26.08 0 0
26.16 0 0
26.24 0 0
26.32 0 0
26.4 0 0
26.48 0 0
26.56 0 0
26.64 0 0
26.72 0 0
26.8 0 0
26.88 0 0
26.96 0 0
27.04 0 0
27.12 0 0
27.2 0 0
27.28 0 0
27.36 0 0
27.44 0 0
27.52 0 0
27.6 0 0
27.68 0 0
27.76 0 0
27.84 0 0
27.92 0 0
28 0 0
28.08 0 0
28.16 0 0
28.24 0 0
28.32 0 0
28.4 0 0
28.48 0 0
28.56 0 0
28.64 0 0
28.72 0 0
28.8 0 0
28.88 0 0
28.96 0 0
29.04 0 0
29.12 0 0
29.2 0 0
29.28 0 0
29.36 0 0
29.44 0 0
29.52 0 0
29.6 0 0
29.68 0 0
29.76 0 0
29.84 0 0
29.92 0 0
30 0 0
30.08 0 0
30.16 0 0
30.24 0 0
30.32 0 0
30.4 0 0
30.48 0 0
30.56 0 0
30.64 0 0
30.72 0 0
30.8 0 0
30.88 0 0
30.96 0 0
31.04 0 0
31.12 0 0
31.2 0 0
31.28 0 0
31.36 0 0
31.44 0 0
31.52 0 0
31.6 0 0
31.68 0 0
31.76 0 0
31.84 0 0
31.92 0 0
0 0.005 0
0.08 0.005 0
0.16 0.005 0
0.24 0.005 0
0.32 0.005 0
0.4 0.005 0
0.48 0.005 0
0.56 0.005 0
0.64 0.005 0
0.72 0.005 0
0.8 0.005 0
0.88 0.005 0
0.96 0.005 0
1.04 0.005 0
1.12 0.005 0
1.2 0.005 0
1.28 0.005 0
1.36 0.005 0
1.44 0.005 0
1.52 0.005 0
1.6 0.005 0
1.68 0.005 0
1.76 0.005 0
1.84 0.005 0
1.92 0.005 0
2 0.005 0
2.08 0.005 0
2.16 0.005 0
2.24 0.005 0
2.32 0.005 0
2.4 0.005 0
2.48 0.005 0
2.56 0.005 0
2.64 0.005 0
2.72 0.005 0
2.8 0.005 0
2.88 0.005 0
2.96 0.005 0
3.04 0.005 0
3.12 0.005 0
3.2 0.005 0
3.28 0.005 0
3.36 0.005 0
3.44 0.005 0
3.52 0.005 0
3.6 0.005 0
3.68 0.005 0
3.76 0.005 0
3.84 0.005 0
3.92 0.005 0
4 0.005 0
4.08 0.005 0
4.16 0.005 0
4.24 0.005 0
4.32 0.005 0
4.4 0.005 0
4.48 0.005 0
4.56 0.005 0
4.64 0.005 0
4.72 0.005 0
4.8 0.005 0
4.88 0.005 0
4.96 0.005 0
5.04 0.005 0
5.12 0.005 0
5.2 0.005 0
5.28 0.005 0
5.36 0.005 0
5.44 0.005 0
5.52 0.005 0
5.6 0.005 0
5.68 0.005 0
5.76 0.005 0
5.84 0.005 0
5.92 0.005 0
6 0.005 0
6.08 0.005 0
6.16 0.005 0
6.24 0.005 0
6.32 0.005 0
6.4 0.005 0
6.48 0.005 0
6.56 0.005 0
6.64 0.005 0
6.72 0.005 0
6.8 0.005 0
6.88 0.005 0
6.96 0.005 0
7.04 0.005 0
7.12 0.005 0
7.2 0.005 0
7.28 0.005 0
7.36 0.005 0
7.44 0.005 0
7.52 0.005 0
7.6 0.005 0
7.68 0.005 0
7.76 0.005 0
7.84 0.005 0
7.92 0.005 0
8 0.005 0
8.08 0.005 0
8.16 0.005 0
8.24 0.005 0
8.32 0.005 0
8.4 0.005 0
8.48 0.005 0
8.56 0.005 0
8.64 0.005 0
8.72 0.005 0
8.8 0.005 0
8.88 0.005 0
8.96 0.005 0
9.04 0.005 0
9.12 0.005 0
9.2 0.005 0
9.28 0.005 0
9.36 0.005 0
9.44 0.005 0
9.52 0.005 0
9.6 0.005 0
9.68 0.005 0
9.76 0.005 0
9.84 0.005 0
9.92 0.005 0
10 0.005 0
10.08 0.005 0
10.16 0.005 0
10.24 0.005 0
10.32 0.005 0
10.4 0.005 0
10.48 0.005 0
10.56 0.005 0
10.64 0.005 0
10.72 0.005 0
10.8 0.005 0
10.88 0.005 0
10.96 0.005 0
11.04 0.005 0
11.12 0.005 0
11.2 0.005 0
11.28 0.005 0
11.36 0.005 0
11.44 0.005 0
11.52 0.005 0
11.6 0.005 0
11.68 0.005 0
11.76 0.005 0
11.84 0.005 0
11.92 0.005 0
12 0.005 0
12.08 0.005 0
12.16 0.005 0
12.24 0.005 0
12.32 0.005 0
12.4 0.005 0
12.48 0.005 0
12.56 0.005 0
12.64 0.005 0
12.72 0.005 0
12.8 0.005 0
12.88 0.005 0
12.96 0.005 0
13.04 0.005 0
13.12 0.005 0
13.2 0.005 0
13.28 0.005 0
13.36 0.005 0
13.44 0.005 0
13.52 0.005 0
13.6 0.005 0
13.68 0.005 0
13.76 0.005 0
13.84 0.005 0
13.92 0.005 0
14 0.005 0
14.08 0.005 0
14.16 0.005 0
14.24 0.005 0
14.32 0.005 0
14.4 0.005 0
14.48 0.005 0
14.56 0.005 0
14.64 0.005 0
14.72 0.005 0
14.8 0.005 0
14.88 0.005 0
14.96 0.005 0
15.04 0.005 0
15.12 0.005 0
15.2 0.005 0
15.28 0.005 0
15.36 0.005 0
15.44 0.005 0
15.52 0.005 0
15.6 0.005 0
15.68 0.005 0
15.76 0.005 0
15.84 0.005 0
15.92 0.005 0
16 0.005 0
16.08 0.005 0
16.16 0.005 0
16.24 0.005 0
16.32 0.005 0
16.4 0.005 0
16.48 0.005 0
16.56 0.005 0
16.64 0.005 0
16.72 0.005 0
16.8 0.005 0
16.88 0.005 0
16.96 0.005 0
17.04 0.005 0
17.12 0.005 0
17.2 0.005 0
17.28 0.005 0
17.36 0.005 0
17.44 0.005 0
17.52 0.005 0
17.6 0.005 0
17.68 0.005 0
17.76 0.005 0
17.84 0.005 0
17.92 0.005 0
18 0.005 0
18.08 0.005 0
18.16 0.005 0
18.24 0.005 0
18.32 0.005 0
18.4 0.005 0
18.48 0.005 0
18.56 0.005 0
18.64 0.005 0
18.72 0.005 0
18.8 0.005 0
18.88 0.005 0
18.96 0.005 0
19.04 0.005 0
19.12 0.005 0
19.2 0.005 0
19.28 0.005 0
19.36 0.005 0
19.44 0.005 0
19.52 0.005 0
19.6 0.005 0
19.68 0.005 0
19.76 0.005 0
19.84 0.005 0
19.92 0.005 0
20 0.005 0
20.08 0.005 0
20.16 0.005 0
20.24 0.005 0
20.32 0.005 0
20.4 0.005 0
20.48 0.005 0
20.56 0.005 0
20.64 0.005 0
20.72 0.005 0
20.8 0.005 0
20.88 0.005 0
20.96 0.005 0
21.04 0.005 0
21.12 0.005 0
21.2 0.005 0
21.28 0.005 0
21.36 0.005 0
21.44 0.005 0
21.52 0.005 0
21.6 0.005 0
21.68 0.005 0
21.76 0.005 0
21.84 0.005 0
21.92 0.005 0
22 0.005 0
22.08 0.005 0
22.16 0.005 0
22.24 0.005 0
22.32 0.005 0
22.4 0.005 0
22.48 0.005 0
22.56 0.005 0
22.64 0.005 0
22.72 0.005 0
22.8 0.005 0
22.88 0.005 0
22.96 0.005 0
23.04 0.005 0
23.12 0.005 0
23.2 0.005 0
23.28 0.005 0
23.36 0.005 0
23.44 0.005 0
23.52 0.005 0
23.6 0.005 0
23.68 0.005 0
23.76 0.005 0
23.84 0.005 0
23.92 0.005 0
24 0.005 0
24.08 0.005 0
24.16 0.005 0
24.24 0.005 0
24.32 0.005 0
24.4 0.005 0
24.48 0.005 0
24.56 0.005 0
24.64 0.005 0
24.72 0.005 0
24.8 0.005 0
24.88 0.005 0
24.96 0.005 0
25.04 0.005 0
25.12 0.005 0
25.2 0.005 0
25.28 0.005 0
25.36 0.005 0
25.44 0.005 0
25.52 0.005 0
25.6 0.005 0
25.68 0.005 0
25.76 0.005 0
25.84 0.005 0
25.92 0.005 0
26 0.005 0
26.08 0.005 0
26.16 0.005 0
26.24 0.005 0
26.32 0.005 0
26.4 0.005 0
26.48 0.005 0
26.56 0.005 0
26.64 0.005 0
26.72 0.005 0
26.8 0.005 0
26.88 0.005 0
26.96 0.005 0
27.04 0.005 0
27.12 0.005 0
27.2 0.005 0
27.28 0.005 0
27.36 0.005 0
27.44 0.005 0
27.52 0.005 0
27.6 0.005 0
27.68 0.005 0
27.76 0.005 0
27.84 0.005 0
27.92 0.005 0
28 0.005 0
28.08 0.005 0
28.16 0.005 0
28.24 0.005 0
28.32 0.005 0
28.4 0.005 0
28.48 0.005 0
28.56 0.005 0
28.64 0.005 0
28.72 0.005 0
28.8 0.005 0
28.88 0.005 0
28.96 0.005 0
29.04 0.005 0
29.12 0.005 0
29.2 0.005 0
29.28 0.005 0
29.36 0.005 0
29.44 0.005 0
29.52 0.005 0
29.6 0.005 0
29.68 0.005 0
29.76 0.005 0
29.84 0.005 0
29.92 0.005 0
30 0.005 0
30.08 0.005 0
30.16 0.005 0
30.24 0.005 0
30.32 0.005 0
30.4 0.005 0
30.48 0.005 0
30.56 0.005 0
30.64 0.005 0
30.72 0.005 0
30.8 0.005 0
30.88 0.005 0
30.96 0.005 0
31.04 0.005 0
31.12 0.005 0
31.2 0.005 0
31.28 0.005 0
31.36 0.005 0
31.44 0.005 0
31.52 0.005 0
31.6 0.005 0
31.68 0.005 0
31.76 0.005 0
31.84 0.005 0
31.92 0.005 0
0 0.01 0
0.08 0.01 0
0.16 0.01 0
0.24 0.01 0
0.32 0.01 0
0.4 0.01 0
0.48 0.01 0
0.56 0.01 0
0.64 0.01 0
0.72 0.01 0
0.8 0.01 0
0.88 0.01 0
0.96 0.01 0
1.04 0.01 0
1.12 0.01 0
1.2 0.01 0
1.28 0.01 0
1.36 0.01 0
1.44 0.01 0
1.52 0.01 0
1.6 0.01 0
1.68 0.01 0
1.76 0.01 0
1.84 0.01 0
1.92 0.01 0
2 0.01 0
2.08 0.01 0
2.16 0.01 0
2.24 0.01 0
2.32 0.01 0
2.4 0.01 0
2.48 0.01 0
2.56 0.01 0
2.64 0.01 0
2.72 0.01 0
2.8 0.01 0
2.88 0.01 0
2.96 0.01 0
3.04 0.01 0
3.12 0.01 0
3.2 0.01 0
3.28 0.01 0
3.36 0.01 0
3.44 0.01 0
3.52 0.01 0
3.6 0.01 0
3.68 0.01 0
3.76 0.01 0
3.84 0.01 0
3.92 0.01 0
4 0.01 0
4.08 0.01 0
4.16 0.01 0
4.24 0.01 0
4.32 0.01 0
4.4 0.01 0
4.48 0.01 0
4.56 0.01 0
4.64 0.01 0
4.72 0.01 0
4.8 0.01 0
4.88 0.01 0
4.96 0.01 0
5.04 0.01 0
5.12 0.01 0
[...]
POINT_DATA 80000

SCALARS v float 1
LOOKUP_TABLE default
0
0
0
0
0
0
0
0
0
0
0
0
0
0
0
0
0
0
0
0
0
0
0
0
0
0
0
0
0
0
0
0
0
0
0
0
0
0
0
0
0
0
0
0
0
0
0
0
0
0
0
0
0
0
0
0
0
0
0
0
0
0
0
0
0
0
0
0
0
0
0
0
0
0
0
0
0
0
0
0
0
0
0
0
0
0
0
0
0
0
0
0
0
0
0
0
0
0
0
0
0
0
0
0
0
0
0
0
0
0
0
0
0
0
0
0
0
0
0
0
0
0
0
0
0
0
0
0
0
0
0
0
0
0
0
0
0
0
0
0
0
0
0
0
0
0
0
0
0
0
0
0
0
0
0
0
0
0
0
0
0
0
0
0
0
0
0
0
0
0
0
0
0
0
0
0
0
0
0
0
0
0
0
0
0
0
0
0
0
0
0
0
0
0
0
0
0
0
0
0
0
0
0
0
0
0
0
0
0
0
0
0
0
0
0
0
0
0
0
0
0
0
0
0
0
0
0
0
0
0
0
0
0
0
0
0
0
0
0
0
0
0
0
0
0
0
0
0
0
0
0
0
0
0
0
0
0
0
0
0
0
0
0
0
0
0
0
0
0
0
0
0
0
0
0
0
0
0
0
0
0
0
0
0
0
0
0
0
0
0
0
0
0
0
0
0
0
0
0
0
0
0
0
0
0
0
0
0
0
0
0
0
0
0
0
0
0
0
0
0
0
0
0
0
0
0
0
0
0
0
0
0
0
0
0
0
0
0
0
0
0
0
0
0
0
0
0
0
0
0
0
0
0
0
0
0
0
0
0
0
0
0
0
0
0
0
0
0
0
0
0
0
0
0
0
0
0
0
0
0
0
0
0
0
0
0
0
0
0
0
0
0
0
0
0
0
0
0
0
0
-0.0537631
0.0537631
0.00289838
0.000187271
-3.94609e-05
-7.49391e-05
-8.93002e-05
-9.75865e-05
-0.000102452
-0.000105241
-0.000106764
-0.000107473
-0.000107641
-0.000107407
-0.000106863
-0.000106047
-0.000104994
-0.000103709
-0.000102212
-0.000100501
-9.85978e-05
-9.65069e-05
-9.42573e-05
-9.18663e-05
-8.93764e-05
-8.68209e-05
-8.42599e-05
-8.17456e-05
-7.93577e-05
-7.71688e-05
-7.52787e-05
-7.37792e-05
-7.27877e-05
-7.24106e-05
-7.27765e-05
-7.39977e-05
-7.62025e-05
-7.94956e-05
-8.39894e-05
-8.97633e-05
-9.68949e-05
-0.00010542
-0.000115365
-0.000126707
-0.000139413
-0.000153405
-0.000168602
-0.0001849
-0.000202224
-0.00022052
-0.000239827
-0.000260287
-0.000282241
-0.000306266
-0.000333289
-0.000364652
-0.000402245
-0.000448578
-0.000506906
-0.00058127
-0.000676563
-0.000798469
-0.000953388
-0.00114818
-0.00138986
-0.00168511
-0.00203966
-0.00245763
-0.0029407
-0.0034874
-0.00409239
-0.00474602
-0.00543411
-0.0061381
-0.00683571
-0.00750194
-0.00811055
-0.00863573
-0.00905402
-0.00934603
-0.00949804
-0.00950302
-0.00936118
-0.00907985
-0.00867282
-0.00815907
-0.00756129
-0.00690414
-0.00621255
-0.0055102
-0.0048183
-0.00415471
-0.00353342
-0.00296444
-0.00245395
-0.00200466
-0.00161636
-0.00128656
-0.00101106
-0.000784583
-0.000601281
-0.000455136
-0.000340321
-0.000251397
-0.000183492
-0.000132338
-9.43271e-05
-6.64477e-05
-4.62711e-05
-3.1849e-05
-2.16762e-05
-1.45836e-05
-9.70518e-06
-6.38412e-06
-4.15641e-06
-2.67359e-06
-1.70417e-06
-1.07167e-06
-6.69679e-07
-4.11173e-07
-2.52681e-07
-1.50818e-07
-9.19064e-08
-5.26115e-08
-3.25617e-08
-1.71312e-08
-1.1572e-08
-4.84317e-09
-4.45239e-09
-7.60206e-10
-2.13457e-09
5.42388e-10
-1.40979e-09
9.41697e-10
-1.19194e-09
1.0594e-09
-1.12896e-09
1.09278e-09
-1.11143e-09
1.1019e-09
-1.10673e-09
1.1043e-09
-1.10551e-09
1.10491e-09
-1.10521e-09
1.10506e-09
-1.10514e-09
1.10509e-09
-1.10512e-09
1.1051e-09
-1.10512e-09
1.1051e-09
-1.10512e-09
1.1051e-09
-1.10512e-09
1.1051e-09
-1.10512e-09
1.1051e-09
-1.10512e-09
1.1051e-09
-1.10512e-09
1.1051e-09
-1.10512e-09
1.1051e-09
-1.10512e-09
1.1051e-09
-1.10512e-09
1.1051e-09
-1.10512e-09
1.1051e-09
-1.10512e-09
1.1051e-09
-1.10512e-09
1.1051e-09
-1.10512e-09
1.1051e-09
-1.10512e-09
1.1051e-09
-1.10512e-09
1.1051e-09
-1.10512e-09
1.1051e-09
-1.10512e-09
1.1051e-09
-1.10512e-09
1.1051e-09
-1.10512e-09
1.1051e-09
-1.10512e-09
1.1051e-09
-1.10512e-09
1.1051e-09
-1.10512e-09
1.1051e-09
-1.10512e-09
1.1051e-09
-1.10512e-09
1.1051e-09
-1.10512e-09
1.1051e-09
-1.10512e-09
1.1051e-09
-1.10512e-09
1.1051e-09
-1.10512e-09
1.1051e-09
-1.10512e-09
1.1051e-09
-1.10512e-09
1.1051e-09
-1.10512e-09
1.1051e-09
-1.10512e-09
1.1051e-09
-1.10512e-09
1.1051e-09
-1.10512e-09
1.1051e-09
-1.10512e-09
1.1051e-09
-1.10512e-09
1.1051e-09
-1.10512e-09
1.1051e-09
-1.10512e-09
1.1051e-09
-1.10512e-09
1.1051e-09
-1.10512e-09
1.1051e-09
-1.10512e-09
1.1051e-09
-1.10512e-09
1.1051e-09
-1.10512e-09
1.1051e-09
-1.10512e-09
1.1051e-09
-1.10512e-09
1.1051e-09
-1.10512e-09
1.1051e-09
-1.10512e-09
1.1051e-09
-1.10512e-09
1.1051e-09
-1.10512e-09
1.1051e-09
-1.10512e-09
1.1051e-09
-1.10512e-09
1.1051e-09
-1.10512e-09
1.1051e-09
-1.10512e-09
1.1051e-09
-1.10512e-09
1.1051e-09
-1.10512e-09
1.1051e-09
-1.10512e-09
1.1051e-09
-1.10512e-09
1.1051e-09
-1.10512e-09
1.1051e-09
-1.10512e-09
1.1051e-09
-1.10513e-09
1.10509e-09
-1.10515e-09
1.10504e-09
-1.10523e-09
1.1049e-09
-1.10548e-09
1.10446e-09
-1.10625e-09
1.10313e-09
-1.10851e-09
1.09934e-09
-1.11482e-09
1.08896e-09
-1.13166e-09
1.06196e-09
-1.17444e-09
9.95044e-10
-1.27779e-09
8.37424e-10
-1.51508e-09
4.84874e-10
-2.03197e-09
-2.62833e-10
-3.09887e-09
-1.76419e-09
-5.18203e-09
-4.61352e-09
-9.02291e-09
-9.7147e-09
-1.56962e-08
-1.83108e-08
-2.65957e-08
-3.19092e-08
-4.3282e-08
-5.20376e-08
-6.71381e-08
-7.97998e-08
-9.88366e-08
-1.15278e-07
-1.37718e-07
-1.56943e-07
-1.81298e-07
-2.01331e-07
-2.2518e-07
-2.43244e-07
-2.63586e-07
-2.76619e-07
-2.9052e-07
-2.95912e-07
-3.01275e-07
-2.97604e-07
-2.93792e-07
-2.81264e-07
-2.69321e-07
-2.49743e-07
-2.32109e-07
-2.08385e-07
-1.88228e-07
-1.63579e-07
-1.43981e-07
-1.21184e-07
-1.04488e-07
-8.53694e-08
-7.28496e-08
-5.81405e-08
-5.00262e-08
-3.95213e-08
-3.52572e-08
-2.81406e-08
-2.67386e-08
-2.19319e-08
-2.22934e-08
-1.87358e-08
-1.98832e-08
-1.67125e-08
-1.79199e-08
-1.45573e-08
-1.53955e-08
-1.15568e-08
-1.18755e-08
-7.52957e-09
-7.39876e-09
-2.6962e-09
-2.32661e-09
2.48207e-09
2.81942e-09
7.45976e-09
7.5015e-09
1.17329e-08
1.127e-08
1.49209e-08
1.38222e-08
1.68026e-08
1.50183e-08
1.73158e-08
1.48669e-08
1.65312e-08
1.34912e-08
1.46145e-08
1.10894e-08
1.17868e-08
7.89646e-09
8.28915e-09
4.15291e-09
4.35589e-09
8.25488e-11
1.96923e-10
-4.12105e-09
-4.01203e-09
-8.30081e-09
-8.13269e-09
-1.23369e-08
-1.2063e-08
-1.6144e-08
-1.5733e-08
-1.96662e-08
-1.90994e-08
-2.28714e-08
-2.21401e-08
-2.57465e-08
-2.48508e-08
-2.82966e-08
-2.72482e-08
-3.0556e-08
-2.93974e-08
-3.26513e-08
-3.15628e-08
-3.50432e-08
-3.34805e-08
-3.2212e-08
-3.2212e-08
-0.0933603
0.0933603
0.00902552
0.00090111
5.06758e-05
-9.50605e-05
-0.000153565
-0.000186717
-0.000206548
-0.00021871
-0.000226444
-0.00023154
-0.000235069
-0.000237595
-0.000239496
-0.00024094
-0.000242078
-0.00024295
-0.000243634
-0.000244133
-0.000244513
-0.000244772
-0.000244983
-0.000245159
-0.000245386
-0.000245698
-0.000246206
-0.000246967
-0.000248116
-0.000249737
-0.000251992
-0.000254989
-0.000258913
-0.000263889
-0.000270118
-0.000277736
-0.000286942
-0.000297867
-0.000310694
-0.000325528
-0.000342517
-0.000361722
-0.000383239
-0.000407074
-0.000433271
-0.000461789
-0.000492643
-0.000525789
-0.000561281
-0.000599168
-0.000639671
-0.000683099
-0.000730046
-0.000781331
-0.000838211
-0.00090234
-0.000975986
-0.00106199
-0.00116395
-0.00128617
-0.00143371
-0.00161224
-0.00182801
-0.00208738
-0.00239667
-0.00276143
-0.00318601
-0.00367274
-0.00422128
-0.00482787
-0.00548486
-0.00618021
-0.00689764
-0.00761674
-0.00831395
-0.0089635
-0.00953913
-0.0100157
-0.0103709
-0.0105875
-0.0106539
-0.0105657
-0.0103261
-0.00994504
-0.00943889
-0.00882894
-0.00813979
-0.00739755
-0.00662825
-0.00585615
-0.00510273
-0.00438574
-0.00371885
-0.00311149
-0.00256921
-0.00209393
-0.00168472
-0.00133829
-0.00104977
-0.000813216
-0.000622232
-0.000470286
-0.000351165
-0.000259065
-0.000188864
-0.000136053
-9.68774e-05
-6.81716e-05
-4.74324e-05
-3.2615e-05
-2.21845e-05
-1.49093e-05
-9.9197e-06
-6.51606e-06
-4.24446e-06
-2.72385e-06
-1.74001e-06
-1.08891e-06
-6.84855e-07
-4.15606e-07
-2.59997e-07
-1.50476e-07
-9.6349e-08
-5.05577e-08
-3.59946e-08
-1.44872e-08
-1.46632e-08
-2.00326e-09
-7.43222e-09
2.14239e-09
-5.07943e-09
3.46432e-09
-4.34405e-09
3.86939e-09
-4.12311e-09
3.98874e-09
-4.05925e-09
4.02259e-09
-4.04148e-09
4.03183e-09
-4.03672e-09
4.03426e-09
-4.03549e-09
4.03487e-09
-4.03518e-09
4.03502e-09
-4.03511e-09
4.03506e-09
-4.03509e-09
4.03507e-09
-4.03509e-09
4.03507e-09
-4.03509e-09
4.03507e-09
-4.03509e-09
4.03507e-09
-4.03509e-09
4.03507e-09
-4.03509e-09
4.03507e-09
-4.03509e-09
4.03507e-09
-4.03509e-09
4.03507e-09
-4.03509e-09
4.03507e-09
-4.03509e-09
4.03507e-09
-4.03509e-09
4.03507e-09
-4.03509e-09
4.03507e-09
-4.03509e-09
4.03507e-09
-4.03509e-09
4.03507e-09
-4.03509e-09
4.03507e-09
-4.03509e-09
4.03507e-09
-4.03509e-09
4.03507e-09
-4.03509e-09
4.03507e-09
-4.03509e-09
4.03507e-09
-4.03509e-09
4.03507e-09
-4.03509e-09
4.03507e-09
-4.03509e-09
4.03507e-09
-4.03509e-09
4.03507e-09
-4.03509e-09
4.03507e-09
-4.03509e-09
4.03507e-09
-4.03509e-09
4.03507e-09
-4.03509e-09
4.03507e-09
-4.03509e-09
4.03507e-09
-4.03509e-09
4.03507e-09
-4.03509e-09
4.03507e-09
-4.03509e-09
4.03507e-09
-4.03509e-09
4.03507e-09
-4.03509e-09
4.03507e-09
-4.03509e-09
4.03507e-09
-4.03509e-09
4.03507e-09
-4.03509e-09
4.03507e-09
-4.03509e-09
4.03507e-09
-4.03509e-09
4.03507e-09
-4.03509e-09
4.03507e-09
-4.03509e-09
4.03507e-09
-4.03509e-09
4.03507e-09
-4.03509e-09
4.03507e-09
-4.03509e-09
4.03507e-09
-4.03509e-09
4.03507e-09
-4.03509e-09
4.03507e-09
-4.03509e-09
4.03507e-09
-4.03509e-09
4.03507e-09
-4.03509e-09
4.03507e-09
-4.03509e-09
4.03507e-09
-4.03509e-09
4.03507e-09
-4.03509e-09
4.03507e-09
-4.03509e-09
4.03507e-09
-4.03509e-09
4.03507e-09
-4.03509e-09
4.03507e-09
-4.03509e-09
4.03507e-09
-4.03509e-09
4.03507e-09
-4.03509e-09
4.03507e-09
-4.03509e-09
4.03507e-09
-4.03509e-09
4.03507e-09
-4.03509e-09
4.03507e-09
-4.0351e-09
4.03505e-09
-4.03512e-09
4.03501e-09
-4.0352e-09
4.03487e-09
-4.03546e-09
4.03442e-09
-4.03624e-09
4.03307e-09
-4.03853e-09
4.02921e-09
-4.04496e-09
4.01864e-09
-4.06212e-09
3.99112e-09
-4.10574e-09
3.92283e-09
-4.21129e-09
3.76174e-09
-4.454e-09
3.40082e-09
-4.98366e-09
2.63387e-09
-6.07922e-09
1.09033e-09
-8.2237e-09
-1.84702e-09
-1.21893e-08
-7.12277e-09
-1.91037e-08
-1.60475e-08
-3.0445e-08
-3.02318e-08
-4.78976e-08
-5.13484e-08
-7.30098e-08
-8.06837e-08
-1.06649e-07
-1.1852e-07
-1.4835e-07
-1.63502e-07
-1.95769e-07
-2.12257e-07
-2.44531e-07
-2.59523e-07
-2.88696e-07
-2.98967e-07
-3.21886e-07
-3.24561e-07
-3.38825e-07
-3.32145e-07
-3.36769e-07
-3.20604e-07
-3.16323e-07
-2.92217e-07
-2.81274e-07
-2.52007e-07
-2.37527e-07
-2.06366e-07
-1.91556e-07
-1.6147e-07
-1.48918e-07
-1.22014e-07
-1.13294e-07
-9.06006e-08
-8.62203e-08
-6.7779e-08
-6.73866e-08
-5.25367e-08
-5.52503e-08
-4.29718e-08
-4.77089e-08
-3.69224e-08
-4.26599e-08
-3.24398e-08
-3.83794e-08
-2.80734e-08
-3.37171e-08
-2.29818e-08
-2.81339e-08
-1.69076e-08
-2.16225e-08
-1.00554e-08
-1.45569e-08
-2.92327e-09
-7.51426e-09
3.87398e-09
-1.11009e-09
9.75192e-09
4.12762e-09
1.42576e-08
7.83325e-09
1.71191e-08
9.82959e-09
1.82507e-08
1.01159e-08
1.77274e-08
8.83218e-09
1.57429e-08
6.21389e-09
1.25628e-08
2.54657e-09
8.48308e-09
-1.87209e-09
3.79618e-09
-6.76042e-09
-1.2315e-09
-1.18706e-08
-6.37297e-09
-1.69978e-08
-1.14459e-08
-2.19819e-08
-1.63119e-08
-2.67054e-08
-2.08729e-08
-3.10878e-08
-2.50646e-08
-3.50804e-08
-2.88532e-08
-3.86648e-08
-3.22389e-08
-4.18659e-08
-3.52844e-08
-4.48107e-08
-3.82335e-08
-4.79781e-08
-4.20808e-08
-5.3042e-08
-4.56291e-08
-3.9624e-08
-3.9624e-08
-0.121311
0.121311
0.016498
0.00202427
0.000231384
-0.000101716
-0.000234356
-0.000307867
-0.000351536
-0.000378464
-0.0003959
-0.000407798
-0.000416504
-0.000423267
-0.000428912
-0.000433819
-0.000438318
-0.000442503
-0.000446542
-0.000450443
-0.000454329
-0.000458191
-0.000462153
-0.000466215
-0.000470521
-0.000475093
-0.0004801
-0.000485595
-0.000491779
-0.000498733
-0.00050669
-0.000515762
-0.000526208
-0.000538165
-0.000551908
-0.000567585
-0.000585475
-0.00060572
-0.000628582
-0.000654176
-0.000682725
-0.000714296
-0.000749058
-0.000787018
-0.000828288
-0.000872823
-0.000920703
-0.00097188
-0.00102647
-0.00108451
-0.00114628
-0.00121209
-0.00128257
-0.00135851
-0.00144118
-0.00153216
-0.00163367
-0.00174836
-0.00187966
-0.00203153
-0.0022087
-0.00241628
-0.00265995
-0.00294533
-0.00327793
-0.00366241
-0.00410223
-0.00459877
-0.00515092
-0.00575416
-0.00640037
-0.00707721
-0.0077684
-0.00845383
-0.00911054
-0.00971362
-0.0102379
-0.0106595
-0.0109575
-0.0111159
-0.0111246
-0.0109803
-0.0106871
-0.0102558
-0.00970351
-0.00905176
-0.00832538
-0.00755047
-0.00675291
-0.0059567
-0.00518301
-0.00444917
-0.00376848
-0.00314993
-0.0025987
-0.00211633
-0.00170159
-0.00135087
-0.00105908
-0.000820028
-0.000627187
-0.000473848
-0.000353716
-0.000260864
-0.000190135
-0.000136931
-9.7491e-05
-6.85851e-05
-4.77205e-05
-3.28022e-05
-2.23166e-05
-1.49899e-05
-9.97967e-06
-6.54823e-06
-4.27217e-06
-2.73472e-06
-1.75379e-06
-1.09074e-06
-6.92822e-07
-4.13736e-07
-2.65627e-07
-1.47143e-07
-1.01074e-07
-4.66689e-08
-4.03806e-08
-1.03942e-08
-1.89273e-08
2.16182e-09
-1.16541e-08
6.332e-09
-9.2872e-09
7.66196e-09
-8.54729e-09
8.06956e-09
-8.32494e-09
8.18968e-09
-8.26067e-09
8.22375e-09
-8.24278e-09
8.23305e-09
-8.23799e-09
8.2355e-09
-8.23675e-09
8.23612e-09
-8.23644e-09
8.23627e-09
-8.23637e-09
8.23631e-09
-8.23635e-09
8.23632e-09
-8.23634e-09
8.23632e-09
-8.23634e-09
8.23632e-09
-8.23634e-09
8.23632e-09
-8.23634e-09
8.23632e-09
-8.23634e-09
8.23632e-09
-8.23634e-09
8.23632e-09
-8.23634e-09
8.23632e-09
-8.23634e-09
8.23632e-09
-8.23634e-09
8.23632e-09
-8.23634e-09
8.23632e-09
-8.23634e-09
8.23632e-09
-8.23634e-09
8.23632e-09
-8.23634e-09
8.23632e-09
-8.23634e-09
8.23632e-09
-8.23634e-09
8.23632e-09
-8.23634e-09
8.23632e-09
-8.23634e-09
8.23632e-09
-8.23634e-09
8.23632e-09
-8.23634e-09
8.23632e-09
-8.23634e-09
8.23632e-09
-8.23634e-09
8.23632e-09
-8.23634e-09
8.23632e-09
-8.23634e-09
8.23632e-09
-8.23634e-09
8.23632e-09
-8.23634e-09
8.23632e-09
-8.23634e-09
8.23632e-09
-8.23634e-09
8.23632e-09
-8.23634e-09
8.23632e-09
-8.23634e-09
8.23632e-09
-8.23634e-09
8.23632e-09
-8.23634e-09
8.23632e-09
-8.23634e-09
8.23632e-09
-8.23634e-09
8.23632e-09
-8.23634e-09
8.23632e-09
-8.23634e-09
8.23632e-09
-8.23634e-09
8.23632e-09
-8.23634e-09
8.23632e-09
-8.23634e-09
8.23632e-09
-8.23634e-09
8.23632e-09
-8.23634e-09
8.23632e-09
-8.23634e-09
8.23632e-09
-8.23634e-09
8.23632e-09
-8.23634e-09
8.23632e-09
-8.23634e-09
8.23632e-09
-8.23634e-09
8.23632e-09
-8.23634e-09
8.23632e-09
-8.23634e-09
8.23632e-09
-8.23634e-09
8.23632e-09
-8.23634e-09
8.23632e-09
-8.23634e-09
8.23632e-09
-8.23634e-09
8.23632e-09
-8.23634e-09
8.23632e-09
-8.23634e-09
8.23632e-09
-8.23634e-09
8.23632e-09
-8.23634e-09
8.23632e-09
-8.23634e-09
8.23632e-09
-8.23634e-09
8.23632e-09
-8.23634e-09
8.23632e-09
-8.23635e-09
8.23632e-09
-8.23635e-09
8.2363e-09
-8.23638e-09
8.23626e-09
-8.23646e-09
8.23612e-09
-8.23671e-09
8.23566e-09
-8.2375e-09
8.23431e-09
-8.23981e-09
8.23042e-09
-8.24627e-09
8.2198e-09
-8.26352e-09
8.19212e-09
-8.30739e-09
8.12346e-09
-8.41353e-09
7.96146e-09
-8.65761e-09
7.59846e-09
-9.19038e-09
6.8269e-09
-1.02927e-08
5.2735e-09
-1.24514e-08
2.31585e-09
-1.64458e-08
-3.00021e-09
-2.34162e-08
-1.2002e-08
-3.48625e-08
-2.6328e-08
-5.25044e-08
-4.76946e-08
-7.79431e-08
-7.74515e-08
-1.1212e-07
-1.15965e-07
-1.54665e-07
-1.61985e-07
-2.0334e-07
-2.12239e-07
-2.53868e-07
-2.61554e-07
-3.00371e-07
-3.03625e-07
-3.36464e-07
-3.32371e-07
-3.56765e-07
-3.43473e-07
-3.58319e-07
-3.35559e-07
-3.41436e-07
-3.10589e-07
-3.09577e-07
-2.73269e-07
-2.68359e-07
-2.29747e-07
-2.24065e-07
-1.86075e-07
-1.82203e-07
-1.46967e-07
-1.46533e-07
-1.15157e-07
-1.1876e-07
-9.1383e-08
-9.87697e-08
-7.48236e-08
-8.51916e-08
-6.37206e-08
-7.60362e-08
-5.5994e-08
-6.92539e-08
-4.97248e-08
-6.31337e-08
-4.34655e-08
-5.65264e-08
-3.63802e-08
-4.89072e-08
-2.82379e-08
-4.03098e-08
-1.92987e-08
-3.11757e-08
-1.01381e-08
-2.21669e-08
-1.45918e-09
-1.39867e-08
6.0699e-09
-7.23957e-09
1.19294e-08
-2.34644e-09
1.58049e-08
4.86724e-10
1.75956e-08
1.2571e-09
1.73868e-08
1.25887e-10
1.54025e-08
-2.633e-09
1.19534e-08
-6.68446e-09
7.38813e-09
-1.16763e-08
2.05403e-09
-1.72726e-08
-3.72956e-09
-2.31747e-08
-9.68771e-09
-2.91329e-08
-1.55966e-08
-3.49494e-08
-2.12837e-08
-4.04757e-08
-2.66231e-08
-4.56072e-08
-3.15306e-08
-5.02797e-08
-3.59627e-08
-5.44735e-08
-3.99315e-08
-5.82484e-08
-4.35743e-08
-6.18759e-08
-4.74092e-08
-6.63686e-08
-5.35124e-08
-7.51108e-08
-5.89832e-08
-4.56807e-08
-4.56807e-08
-0.139812
0.139812
0.0241715
0.0034783
0.00051496
-8.10253e-05
-0.000316971
-0.000444915
-0.000520032
-0.000566081
-0.000595814
-0.000616114
-0.000631032
-0.000642728
-0.000652619
-0.00066137
-0.000669538
-0.000677294
-0.000684912
-0.000692406
-0.000699968
-0.000707572
-0.000715399
-0.000723429
-0.000731861
-0.000740698
-0.000750169
-0.00076031
-0.000771384
-0.000783461
-0.00079684
-0.000811625
-0.000828144
-0.000846526
-0.000867118
-0.00089006
-0.000915699
-0.000944166
-0.000975785
-0.00101065
-0.00104904
-0.00109099
-0.00113671
-0.00118615
-0.00123944
-0.00129647
-0.00135731
-0.00142182
-0.00149008
-0.00156201
-0.00163782
-0.00171765
-0.00180204
-0.00189159
-0.00198743
-0.00209088
-0.00220398
-0.00232908
-0.00246938
-0.00262849
-0.00281085
-0.00302122
-0.00326497
-0.00354737
-0.0038737
-0.00424834
-0.00467466
-0.00515394
-0.00568516
-0.00626396
-0.00688254
-0.00752896
-0.00818753
-0.00883872
-0.0094603
-0.010028
-0.0105174
-0.0109052
-0.0111711
-0.0112995
-0.0112807
-0.0111116
-0.0107964
-0.0103459
-0.00977709
-0.00911129
-0.00837318
-0.00758856
-0.00678309
-0.00598047
-0.00520166
-0.00446374
-0.00377984
-0.00315876
-0.00260557
-0.00212164
-0.00170571
-0.00135403
-0.00106152
-0.000821894
-0.00062862
-0.000474928
-0.000354539
-0.000261473
-0.000190596
-0.000137264
-9.77425e-05
-6.87589e-05
-4.78535e-05
-3.28884e-05
-2.23854e-05
-1.50295e-05
-1.00151e-05
-6.56421e-06
-4.29101e-06
-2.73921e-06
-1.76476e-06
-1.0899e-06
-7.00225e-07
-4.10539e-07
-2.7149e-07
-1.42952e-07
-1.06301e-07
-4.2077e-08
-4.53584e-08
-5.64814e-09
-2.38111e-08
6.96466e-09
-1.65041e-08
1.11548e-08
-1.41255e-08
1.24915e-08
-1.33817e-08
1.29013e-08
-1.31582e-08
1.30221e-08
-1.30935e-08
1.30564e-08
-1.30755e-08
1.30657e-08
-1.30707e-08
1.30682e-08
-1.30695e-08
1.30688e-08
-1.30691e-08
1.3069e-08
-1.30691e-08
1.3069e-08
-1.3069e-08
1.3069e-08
-1.3069e-08
1.3069e-08
-1.3069e-08
1.3069e-08
-1.3069e-08
1.3069e-08
-1.3069e-08
1.3069e-08
-1.3069e-08
1.3069e-08
-1.3069e-08
1.3069e-08
-1.3069e-08
1.3069e-08
-1.3069e-08
1.3069e-08
-1.3069e-08
1.3069e-08
-1.3069e-08
1.3069e-08
-1.3069e-08
1.3069e-08
-1.3069e-08
1.3069e-08
-1.3069e-08
1.3069e-08
-1.3069e-08
1.3069e-08
-1.3069e-08
1.3069e-08
-1.3069e-08
1.3069e-08
-1.3069e-08
1.3069e-08
-1.3069e-08
1.3069e-08
-1.3069e-08
1.3069e-08
-1.3069e-08
1.3069e-08
-1.3069e-08
1.3069e-08
-1.3069e-08
1.3069e-08
-1.3069e-08
1.3069e-08
-1.3069e-08
1.3069e-08
-1.3069e-08
1.3069e-08
-1.3069e-08
1.3069e-08
-1.3069e-08
1.3069e-08
-1.3069e-08
1.3069e-08
-1.3069e-08
1.3069e-08
-1.3069e-08
1.3069e-08
-1.3069e-08
1.3069e-08
-1.3069e-08
1.3069e-08
-1.3069e-08
1.3069e-08
-1.3069e-08
1.3069e-08
-1.3069e-08
1.3069e-08
-1.3069e-08
1.3069e-08
-1.3069e-08
1.3069e-08
-1.3069e-08
1.3069e-08
-1.3069e-08
1.3069e-08
-1.3069e-08
1.3069e-08
-1.3069e-08
1.3069e-08
-1.3069e-08
1.3069e-08
-1.3069e-08
1.3069e-08
-1.3069e-08
1.3069e-08
-1.3069e-08
1.3069e-08
-1.3069e-08
1.3069e-08
-1.3069e-08
1.3069e-08
-1.3069e-08
1.3069e-08
-1.3069e-08
1.3069e-08
-1.3069e-08
1.3069e-08
-1.3069e-08
1.3069e-08
-1.3069e-08
1.3069e-08
-1.3069e-08
1.3069e-08
-1.3069e-08
1.3069e-08
-1.3069e-08
1.3069e-08
-1.3069e-08
1.3069e-08
-1.3069e-08
1.3069e-08
-1.3069e-08
1.3069e-08
-1.3069e-08
1.3069e-08
-1.30691e-08
1.3069e-08
-1.30691e-08
1.3069e-08
-1.30692e-08
1.30688e-08
-1.30694e-08
1.30684e-08
-1.30702e-08
1.3067e-08
-1.30725e-08
1.30631e-08
-1.3079e-08
1.30524e-08
-1.30963e-08
1.30247e-08
-1.31403e-08
1.29558e-08
-1.32468e-08
1.27933e-08
-1.34916e-08
1.24293e-08
-1.40258e-08
1.16557e-08
-1.51309e-08
1.00986e-08
-1.72946e-08
7.1342e-09
-2.12979e-08
1.80654e-09
-2.82834e-08
-7.21483e-09
-3.97551e-08
-2.15736e-08
-5.74391e-08
-4.29947e-08
-8.29484e-08
-7.28428e-08
-1.17243e-07
-1.11509e-07
-1.59983e-07
-1.57778e-07
-2.08975e-07
-2.0843e-07
-2.59998e-07
-2.58352e-07
-3.07237e-07
-3.01303e-07
-3.44367e-07
-3.31252e-07
-3.66038e-07
-3.43891e-07
-3.6929e-07
-3.37819e-07
-3.54371e-07
-3.14908e-07
-3.24635e-07
-2.7974e-07
-2.85559e-07
-2.38315e-07
-2.43285e-07
-1.96553e-07
-2.03199e-07
-1.5907e-07
-1.68986e-07
-1.28538e-07
-1.42309e-07
-1.05675e-07
-1.23042e-07
-8.96522e-08
-1.09813e-07
-7.87095e-08
-1.00628e-07
-7.0763e-08
-9.34348e-08
-6.38922e-08