# vtk DataFile Version 2.0
FlowField
ASCII
DATASET STRUCTURED_GRID
DIMENSIONS 400 1 200
POINTS 80000 float
0 0 0
0.08 0 0
0.16 0 0
0.24 0 0
0.32 0 0
0.4 0 0
0.48 0 0
0.56 0 0
0.64 0 0
0.72 0 0
0.8 0 0
0.88 0 0
0.96 0 0
1.04 0 0
1.12 0 0
1.2 0 0
1.28 0 0
1.36 0 0
1.44 0 0
1.52 0 0
1.6 0 0
1.68 0 0
1.76 0 0
1.84 0 0
1.92 0 0
2 0 0
2.08 0 0
2.16 0 0
2.24 0 0
2.32 0 0
2.4 0 0
2.48 0 0
2.56 0 0
2.64 0 0
2.72 0 0
2.8 0 0
2.88 0 0
2.96 0 0
3.04 0 0
3.12 0 0
3.2 0 0
3.28 0 0
3.36 0 0
3.44 0 0
3.52 0 0
3.6 0 0
3.68 0 0
3.76 0 0
3.84 0 0
3.92 0 0
4 0 0
4.08 0 0
4.16 0 0
4.24 0 0
4.32 0 0
4.4 0 0
4.48 0 0
4.56 0 0
4.64 0 0
4.72 0 0
4.8 0 0
4.88 0 0
4.96 0 0
5.04 0 0
5.12 0 0
5.2 0 0
5.28 0 0
5.36 0 0
5.44 0 0
5.52 0 0
5.6 0 0
5.68 0 0
5.76 0 0
5.84 0 0
5.92 0 0
6 0 0
6.08 0 0
6.16 0 0
6.24 0 0
6.32 0 0
6.4 0 0
6.48 0 0
6.56 0 0
6.64 0 0
6.72 0 0
6.8 0 0
6.88 0 0
6.96 0 0
7.04 0 0
7.12 0 0
7.2 0 0
7.28 0 0
7.36 0 0
7.44 0 0
7.52 0 0
7.6 0 0
7.68 0 0
7.76 0 0
7.84 0 0
7.92 0 0
8 0 0
8.08 0 0
8.16 0 0
8.24 0 0
8.32 0 0
8.4 0 0
8.48 0 0
8.56 0 0
8.64 0 0
8.72 0 0
8.8 0 0
8.88 0 0
8.96 0 0
9.04 0 0
9.12 0 0
9.2 0 0
9.28 0 0
9.36 0 0
9.44 0 0
9.52 0 0
9.6 0 0
9.68 0 0
9.76 0 0
9.84 0 0
9.92 0 0
10 0 0
10.08 0 0
10.16 0 0
10.24 0 0
10.32 0 0
10.4 0 0
10.48 0 0
10.56 0 0
10.64 0 0
10.72 0 0
10.8 0 0
10.88 0 0
10.96 0 0
11.04 0 0
11.12 0 0
11.2 0 0
11.28 0 0
11.36 0 0
11.44 0 0
11.52 0 0
11.6 0 0
11.68 0 0
11.76 0 0
11.84 0 0
11.92 0 0
12 0 0
12.08 0 0
12.16 0 0
12.24 0 0
12.32 0 0
12.4 0 0
12.48 0 0
12.56 0 0
12.64 0 0
12.72 0 0
12.8 0 0
12.88 0 0
12.96 0 0
13.04 0 0
13.12 0 0
13.2 0 0
13.28 0 0
13.36 0 0
13.44 0 0
13.52 0 0
13.6 0 0
13.68 0 0
13.76 0 0
13.84 0 0
13.92 0 0
14 0 0
14.08 0 0
14.16 0 0
14.24 0 0
14.32 0 0
14.4 0 0
14.48 0 0
14.56 0 0
14.64 0 0
14.72 0 0
14.8 0 0
14.88 0 0
14.96 0 0
15.04 0 0
15.12 0 0
15.2 0 0
15.28 0 0
15.36 0 0
15.44 0 0
15.52 0 0
15.6 0 0
15.68 0 0
15.76 0 0
15.84 0 0
15.92 0 0
16 0 0
16.08 0 0
16.16 0 0
16.24 0 0
16.32 0 0
16.4 0 0
16.48 0 0
16.56 0 0
16.64 0 0
16.72 0 0
16.8 0 0
16.88 0 0
16.96 0 0
17.04 0 0
17.12 0 0
17.2 0 0
17.28 0 0
17.36 0 0
17.44 0 0
17.52 0 0
17.6 0 0
17.68 0 0
17.76 0 0
17.84 0 0
17.92 0 0
18 0 0
18.08 0 0
18.16 0 0
18.24 0 0
18.32 0 0
18.4 0 0
18.48 0 0
18.56 0 0
18.64 0 0
18.72 0 0
18.8 0 0
18.88 0 0
18.96 0 0
19.04 0 0
19.12 0 0
19.2 0 0
19.28 0 0
19.36 0 0
19.44 0 0
19.52 0 0
19.6 0 0
19.68 0 0
19.76 0 0
19.84 0 0
19.92 0 0
20 0 0
20.08 0 0
20.16 0 0
20.24 0 0
20.32 0 0
20.4 0 0
20.48 0 0
20.56 0 0
20.64 0 0
20.72 0 0
20.8 0 0
20.88 0 0
20.96 0 0
21.04 0 0
21.12 0 0
21.2 0 0
21.28 0 0
21.36 0 0
21.44 0 0
21.52 0 0
21.6 0 0
21.68 0 0
21.76 0 0
21.84 0 0
21.92 0 0
22 0 0
22.08 0 0
22.16 0 0
22.24 0 0
22.32 0 0
22.4 0 0
22.48 0 0
22.56 0 0
22.64 0 0
22.72 0 0
22.8 0 0
22.88 0 0
22.96 0 0
23.04 0 0
23.12 0 0
23.2 0 0
23.28 0 0
23.36 0 0
23.44 0 0
23.52 0 0
23.6 0 0
23.68 0 0
23.76 0 0
23.84 0 0
23.92 0 0
24 0 0
24.08 0 0
24.16 0 0
24.24 0 0
24.32 0 0
24.4 0 0
24.48 0 0
24.56 0 0
24.64 0 0
24.72 0 0
24.8 0 0
24.88 0 0
24.96 0 0
25.04 0 0
25.12 0 0
25.2 0 0
25.28 0 0
25.36 0 0
25.44 0 0
25.52 0 0
25.6 0 0
25.68 0 0
25.76 0 0
25.84 0 0
25.92 0 0
26 0 0
26.08 0 0
26.16 0 0
26.24 0 0
26.32 0 0
26.4 0 0
26.48 0 0
26.56 0 0
26.64 0 0
26.72 0 0
26.8 0 0
26.88 0 0
26.96 0 0
27.04 0 0
27.12 0 0
27.2 0 0
27.28 0 0
27.36 0 0
27.44 0 0
27.52 0 0
27.6 0 0
27.68 0 0
27.76 0 0
27.84 0 0
27.92 0 0
28 0 0
28.08 0 0
28.16 0 0
28.24 0 0
28.32 0 0
28.4 0 0
28.48 0 0
28.56 0 0
28.64 0 0
28.72 0 0
28.8 0 0
28.88 0 0
28.96 0 0
29.04 0 0
29.12 0 0
29.2 0 0
29.28 0 0
29.36 0 0
29.44 0 0
29.52 0 0
29.6 0 0
29.68 0 0
29.76 0 0
29.84 0 0
29.92 0 0
30 0 0
30.08 0 0
30.16 0 0
30.24 0 0
30.32 0 0
30.4 0 0
30.48 0 0
30.56 0 0
30.64 0 0
30.72 0 0
30.8 0 0
30.88 0 0
30.96 0 0
31.04 0 0
31.12 0 0
31.2 0 0
31.28 0 0
31.36 0 0
31.44 0 0
31.52 0 0
31.6 0 0
31.68 0 0
31.76 0 0
31.84 0 0
31.92 0 0
0 0.005 0
0.08 0.005 0
0.16 0.005 0
0.24 0.005 0
0.32 0.005 0
0.4 0.005 0
0.48 0.005 0
0.56 0.005 0
0.64 0.005 0
0.72 0.005 0
0.8 0.005 0
0.88 0.005 0
0.96 0.005 0
1.04 0.005 0
1.12 0.005 0
1.2 0.005 0
1.28 0.005 0
1.36 0.005 0
1.44 0.005 0
1.52 0.005 0
1.6 0.005 0
1.68 0.005 0
1.76 0.005 0
1.84 0.005 0
1.92 0.005 0
2 0.005 0
2.08 0.005 0
2.16 0.005 0
2.24 0.005 0
2.32 0.005 0
2.4 0.005 0
2.48 0.005 0
2.56 0.005 0
2.64 0.005 0
2.72 0.005 0
2.8 0.005 0
2.88 0.005 0
2.96 0.005 0
3.04 0.005 0
3.12 0.005 0
3.2 0.005 0
3.28 0.005 0
3.36 0.005 0
3.44 0.005 0
3.52 0.005 0
3.6 0.005 0
3.68 0.005 0
3.76 0.005 0
3.84 0.005 0
3.92 0.005 0
4 0.005 0
4.08 0.005 0
4.16 0.005 0
4.24 0.005 0
4.32 0.005 0
4.4 0.005 0
4.48 0.005 0
4.56 0.005 0
4.64 0.005 0
4.72 0.005 0
4.8 0.005 0
4.88 0.005 0
4.96 0.005 0
5.04 0.005 0
5.12 0.005 0
5.2 0.005 0
5.28 0.005 0
5.36 0.005 0
5.44 0.005 0
5.52 0.005 0
5.6 0.005 0
5.68 0.005 0
5.76 0.005 0
5.84 0.005 0
5.92 0.005 0
6 0.005 0
6.08 0.005 0
6.16 0.005 0
6.24 0.005 0
6.32 0.005 0
6.4 0.005 0
6.48 0.005 0
6.56 0.005 0
6.64 0.005 0
6.72 0.005 0
6.8 0.005 0
6.88 0.005 0
6.96 0.005 0
7.04 0.005 0
7.12 0.005 0
7.2 0.005 0
7.28 0.005 0
7.36 0.005 0
7.44 0.005 0
7.52 0.005 0
7.6 0.005 0
7.68 0.005 0
7.76 0.005 0
7.84 0.005 0
7.92 0.005 0
8 0.005 0
8.08 0.005 0
8.16 0.005 0
8.24 0.005 0
8.32 0.005 0
8.4 0.005 0
8.48 0.005 0
8.56 0.005 0
8.64 0.005 0
8.72 0.005 0
8.8 0.005 0
8.88 0.005 0
8.96 0.005 0
9.04 0.005 0
9.12 0.005 0
9.2 0.005 0
9.28 0.005 0
9.36 0.005 0
9.44 0.005 0
9.52 0.005 0
9.6 0.005 0
9.68 0.005 0
9.76 0.005 0
9.84 0.005 0
9.92 0.005 0
10 0.005 0
10.08 0.005 0
10.16 0.005 0
10.24 0.005 0
10.32 0.005 0
10.4 0.005 0
10.48 0.005 0
10.56 0.005 0
10.64 0.005 0
10.72 0.005 0
10.8 0.005 0
10.88 0.005 0
10.96 0.005 0
11.04 0.005 0
11.12 0.005 0
11.2 0.005 0
11.28 0.005 0
11.36 0.005 0
11.44 0.005 0
11.52 0.005 0
11.6 0.005 0
11.68 0.005 0
11.76 0.005 0
11.84 0.005 0
11.92 0.005 0
12 0.005 0
12.08 0.005 0
12.16 0.005 0
12.24 0.005 0
12.32 0.005 0
12.4 0.005 0
12.48 0.005 0
12.56 0.005 0
12.64 0.005 0
12.72 0.005 0
12.8 0.005 0
12.88 0.005 0
12.96 0.005 0
13.04 0.005 0
13.12 0.005 0
13.2 0.005 0
13.28 0.005 0
13.36 0.005 0
13.44 0.005 0
13.52 0.005 0
13.6 0.005 0
13.68 0.005 0
13.76 0.005 0
13.84 0.005 0
13.92 0.005 0
14 0.005 0
14.08 0.005 0
14.16 0.005 0
14.24 0.005 0
14.32 0.005 0
14.4 0.005 0
14.48 0.005 0
14.56 0.005 0
14.64 0.005 0
14.72 0.005 0
14.8 0.005 0
14.88 0.005 0
14.96 0.005 0
15.04 0.005 0
15.12 0.005 0
15.2 0.005 0
15.28 0.005 0
15.36 0.005 0
15.44 0.005 0
15.52 0.005 0
15.6 0.005 0
15.68 0.005 0
15.76 0.005 0
15.84 0.005 0
15.92 0.005 0
16 0.005 0
16.08 0.005 0
16.16 0.005 0
16.24 0.005 0
16.32 0.005 0
16.4 0.005 0
16.48 0.005 0
16.56 0.005 0
16.64 0.005 0
16.72 0.005 0
16.8 0.005 0
16.88 0.005 0
16.96 0.005 0
17.04 0.005 0
17.12 0.005 0
17.2 0.005 0
17.28 0.005 0
17.36 0.005 0
17.44 0.005 0
17.52 0.005 0
17.6 0.005 0
17.68 0.005 0
17.76 0.005 0
17.84 0.005 0
17.92 0.005 0
18 0.005 0
18.08 0.005 0
18.16 0.005 0
18.24 0.005 0
18.32 0.005 0
18.4 0.005 0
18.48 0.005 0
18.56 0.005 0
18.64 0.005 0
18.72 0.005 0
18.8 0.005 0
18.88 0.005 0
18.96 0.005 0
19.04 0.005 0
19.12 0.005 0
19.2 0.005 0
19.28 0.005 0
19.36 0.005 0
19.44 0.005 0
19.52 0.005 0
19.6 0.005 0
19.68 0.005 0
19.76 0.005 0
19.84 0.005 0
19.92 0.005 0
20 0.005 0
20.08 0.005 0
20.16 0.005 0
20.24 0.005 0
20.32 0.005 0
20.4 0.005 0
20.48 0.005 0
20.56 0.005 0
20.64 0.005 0
20.72 0.005 0
20.8 0.005 0
20.88 0.005 0
20.96 0.005 0
21.04 0.005 0
21.12 0.005 0
21.2 0.005 0
21.28 0.005 0
21.36 0.005 0
21.44 0.005 0
21.52 0.005 0
21.6 0.005 0
21.68 0.005 0
21.76 0.005 0
21.84 0.005 0
21.92 0.005 0
22 0.005 0
22.08 0.005 0
22.16 0.005 0
22.24 0.005 0
22.32 0.005 0
22.4 0.005 0
22.48 0.005 0
22.56 0.005 0
22.64 0.005 0
22.72 0.005 0
22.8 0.005 0
22.88 0.005 0
22.96 0.005 0
23.04 0.005 0
23.12 0.005 0
23.2 0.005 0
23.28 0.005 0
23.36 0.005 0
23.44 0.005 0
23.52 0.005 0
23.6 0.005 0
23.68 0.005 0
23.76 0.005 0
23.84 0.005 0
23.92 0.005 0
24 0.005 0
24.08 0.005 0
24.16 0.005 0
24.24 0.005 0
24.32 0.005 0
24.4 0.005 0
24.48 0.005 0
24.56 0.005 0
24.64 0.005 0
24.72 0.005 0
24.8 0.005 0
24.88 0.005 0
24.96 0.005 0
25.04 0.005 0
25.12 0.005 0
25.2 0.005 0
25.28 0.005 0
25.36 0.005 0
25.44 0.005 0
25.52 0.005 0
25.6 0.005 0
25.68 0.005 0
25.76 0.005 0
25.84 0.005 0
25.92 0.005 0
26 0.005 0
26.08 0.005 0
26.16 0.005 0
26.24 0.005 0
26.32 0.005 0
26.4 0.005 0
26.48 0.005 0
26.56 0.005 0
26.64 0.005 0
26.72 0.005 0
26.8 0.005 0
26.88 0.005 0
26.96 0.005 0
27.04 0.005 0
27.12 0.005 0
27.2 0.005 0
27.28 0.005 0
27.36 0.005 0
27.44 0.005 0
27.52 0.005 0
27.6 0.005 0
27.68 0.005 0
27.76 0.005 0
27.84 0.005 0
27.92 0.005 0
28 0.005 0
28.08 0.005 0
28.16 0.005 0
28.24 0.005 0
28.32 0.005 0
28.4 0.005 0
28.48 0.005 0
28.56 0.005 0
28.64 0.005 0
28.72 0.005 0
28.8 0.005 0
28.88 0.005 0
28.96 0.005 0
29.04 0.005 0
29.12 0.005 0
29.2 0.005 0
29.28 0.005 0
29.36 0.005 0
29.44 0.005 0
29.52 0.005 0
29.6 0.005 0
29.68 0.005 0
29.76 0.005 0
29.84 0.005 0
29.92 0.005 0
30 0.005 0
30.08 0.005 0
30.16 0.005 0
30.24 0.005 0
30.32 0.005 0
30.4 0.005 0
30.48 0.005 0
30.56 0.005 0
30.64 0.005 0
30.72 0.005 0
30.8 0.005 0
30.88 0.005 0
30.96 0.005 0
31.04 0.005 0
31.12 0.005 0
31.2 0.005 0
31.28 0.005 0
31.36 0.005 0
31.44 0.005 0
31.52 0.005 0
31.6 0.005 0
31.68 0.005 0
31.76 0.005 0
31.84 0.005 0
31.92 0.005 0
0 0.01 0
0.08 0.01 0
0.16 0.01 0
0.24 0.01 0
0.32 0.01 0
0.4 0.01 0
0.48 0.01 0
0.56 0.01 0
0.64 0.01 0
0.72 0.01 0
0.8 0.01 0
0.88 0.01 0
0.96 0.01 0
1.04 0.01 0
1.12 0.01 0
1.2 0.01 0
1.28 0.01 0
1.36 0.01 0
1.44 0.01 0
1.52 0.01 0
1.6 0.01 0
1.68 0.01 0
1.76 0.01 0
1.84 0.01 0
1.92 0.01 0
2 0.01 0
2.08 0.01 0
2.16 0.01 0
2.24 0.01 0
2.32 0.01 0
2.4 0.01 0
2.48 0.01 0
2.56 0.01 0
2.64 0.01 0
2.72 0.01 0
2.8 0.01 0
2.88 0.01 0
2.96 0.01 0
3.04 0.01 0
3.12 0.01 0
3.2 0.01 0
3.28 0.01 0
3.36 0.01 0
3.44 0.01 0
3.52 0.01 0
3.6 0.01 0
3.68 0.01 0
3.76 0.01 0
3.84 0.01 0
3.92 0.01 0
4 0.01 0
4.08 0.01 0
4.16 0.01 0
4.24 0.01 0
4.32 0.01 0
4.4 0.01 0
4.48 0.01 0
4.56 0.01 0
4.64 0.01 0
4.72 0.01 0
4.8 0.01 0
4.88 0.01 0
4.96 0.01 0
5.04 0.01 0
5.12 0.01 0
[...]
POINT_DATA 80000

SCALARS v float 1
LOOKUP_TABLE default
0
0
0
0
0
0
0
0
0
0
0
0
0
0
0
0
0
0
0
0
0
0
0
0
0
0
0
0
0
0
0
0
0
0
0
0
0
0
0
0
0
0
0
0
0
0
0
0
0
0
0
0
0
0
0
0
0
0
0
0
0
0
0
0
0
0
0
0
0
0
0
0
0
0
0
0
0
0
0
0
0
0
0
0
0
0
0
0
0
0
0
0
0
0
0
0
0
0
0
0
0
0
0
0
0
0
0
0
0
0
0
0
0
0
0
0
0
0
0
0
0
0
0
0
0
0
0
0
0
0
0
0
0
0
0
0
0
0
0
0
0
0
0
0
0
0
0
0
0
0
0
0
0
0
0
0
0
0
0
0
0
0
0
0
0
0
0
0
0
0
0
0
0
0
0
0
0
0
0
0
0
0
0
0
0
0
0
0
0
0
0
0
0
0
0
0
0
0
0
0
0
0
0
0
0
0
0
0
0
0
0
0
0
0
0
0
0
0
0
0
0
0
0
0
0
0
0
0
0
0
0
0
0
0
0
0
0
0
0
0
0
0
0
0
0
0
0
0
0
0
0
0
0
0
0
0
0
0
0
0
0
0
0
0
0
0
0
0
0
0
0
0
0
0
0
0
0
0
0
0
0
0
0
0
0
0
0
0
0
0
0
0
0
0
0
0
0
0
0
0
0
0
0
0
0
0
0
0
0
0
0
0
0
0
0
0
0
0
0
0
0
0
0
0
0
0
0
0
0
0
0
0
0
0
0
0
0
0
0
0
0
0
0
0
0
0
0
0
0
0
0
0
0
0
0
0
0
0
0
0
0
0
0
0
0
0
0
0
0
0
0
0
0
0
0
0
0
0
0
0
0
0
0
0
0
0
0
0
0
0
0
0
0
0
0
0
0
0
0
0
-0.0542713
0.0542713
0.00396235
0.000998584
0.000492516
0.000302952
0.000207577
0.000151949
0.000116508
9.25517e-05
7.56388e-05
6.32782e-05
5.39778e-05
4.67995e-05
4.11319e-05
3.65648e-05
3.28167e-05
2.9691e-05
2.70478e-05
2.4785e-05
2.28258e-05
2.11124e-05
1.9602e-05
1.82629e-05
1.70695e-05
1.59988e-05
1.50306e-05
1.4149e-05
1.33445e-05
1.26115e-05
1.19434e-05
1.13296e-05
1.07579e-05
1.02195e-05
9.71235e-06
9.23956e-06
8.80281e-06
8.39704e-06
8.01017e-06
7.62872e-06
7.24461e-06
6.85818e-06
6.4749e-06
6.09869e-06
5.72698e-06
5.35158e-06
4.96495e-06
4.56761e-06
4.1716e-06
3.7973e-06
3.46495e-06
3.18565e-06
2.95663e-06
2.76292e-06
2.58441e-06
2.40462e-06
2.21681e-06
2.02541e-06
1.84253e-06
1.68181e-06
1.55253e-06
1.45611e-06
1.38607e-06
1.33061e-06
1.27664e-06
1.21341e-06
1.13486e-06
1.04028e-06
9.3342e-07
8.2081e-07
7.09785e-07
6.06873e-07
5.16748e-07
4.41857e-07
3.82572e-07
3.37691e-07
3.05056e-07
2.82137e-07
2.6647e-07
2.55929e-07
2.48842e-07
2.43988e-07
2.40538e-07
2.3796e-07
2.35933e-07
2.34265e-07
2.32846e-07
2.31608e-07
2.30506e-07
2.29507e-07
2.28584e-07
2.27715e-07
2.26883e-07
2.26073e-07
2.25277e-07
2.24487e-07
2.237e-07
2.22913e-07
2.22124e-07
2.21333e-07
2.20541e-07
2.19747e-07
2.18952e-07
2.18155e-07
2.17358e-07
2.16559e-07
2.1576e-07
2.14959e-07
2.14157e-07
2.13355e-07
2.12551e-07
2.11746e-07
2.10939e-07
2.10131e-07
2.09322e-07
2.08512e-07
2.077e-07
2.06887e-07
2.06072e-07
2.05256e-07
2.04439e-07
2.03621e-07
2.02801e-07
2.01981e-07
2.01159e-07
2.00335e-07
1.99511e-07
1.98685e-07
1.97859e-07
1.97031e-07
1.96202e-07
1.95372e-07
1.94541e-07
1.93708e-07
1.92875e-07
1.92041e-07
1.91206e-07
1.90369e-07
1.89532e-07
1.88694e-07
1.87855e-07
1.87015e-07
1.86174e-07
1.85332e-07
1.84489e-07
1.83645e-07
1.82801e-07
1.81956e-07
1.8111e-07
1.80263e-07
1.79415e-07
1.78567e-07
1.77717e-07
1.76868e-07
1.76017e-07
1.75166e-07
1.74314e-07
1.73461e-07
1.72608e-07
1.71754e-07
1.709e-07
1.70045e-07
1.6919e-07
1.68333e-07
1.67477e-07
1.6662e-07
1.65762e-07
1.64904e-07
1.64046e-07
1.63187e-07
1.62328e-07
1.61468e-07
1.60608e-07
1.59747e-07
1.58887e-07
1.58025e-07
1.57164e-07
1.56302e-07
1.5544e-07
1.54577e-07
1.53715e-07
1.52852e-07
1.51989e-07
1.51125e-07
1.50261e-07
1.49397e-07
1.48533e-07
1.47669e-07
1.46804e-07
1.4594e-07
1.45075e-07
1.4421e-07
1.43344e-07
1.42479e-07
1.41613e-07
1.40747e-07
1.39882e-07
1.39016e-07
1.3815e-07
1.37283e-07
1.36417e-07
1.3555e-07
1.34684e-07
1.33817e-07
1.3295e-07
1.32084e-07
1.31217e-07
1.30349e-07
1.29482e-07
1.28615e-07
1.27748e-07
1.2688e-07
1.26013e-07
1.25145e-07
1.24278e-07
1.2341e-07
1.22542e-07
1.21674e-07
1.20806e-07
1.19938e-07
1.1907e-07
1.18202e-07
1.17334e-07
1.16465e-07
1.15597e-07
1.14728e-07
1.1386e-07
1.12991e-07
1.12122e-07
1.11254e-07
1.10385e-07
1.09516e-07
1.08646e-07
1.07777e-07
1.06908e-07
1.06038e-07
1.05169e-07
1.04299e-07
1.03429e-07
1.0256e-07
1.0169e-07
1.00819e-07
9.99492e-08
9.90789e-08
9.82084e-08
9.73378e-08
9.6467e-08
9.55961e-08
9.47251e-08
9.38539e-08
9.29826e-08
9.21111e-08
9.12395e-08
9.03677e-08
8.94958e-08
8.86237e-08
8.77514e-08
8.6879e-08
8.60064e-08
8.51336e-08
8.42607e-08
8.33875e-08
8.25142e-08
8.16407e-08
8.0767e-08
7.98931e-08
7.90189e-08
7.81446e-08
7.72701e-08
7.63954e-08
7.55205e-08
7.46453e-08
7.37699e-08
7.28944e-08
7.20185e-08
7.11425e-08
7.02662e-08
6.93897e-08
6.8513e-08
6.7636e-08
6.67587e-08
6.58813e-08
6.50035e-08
6.41255e-08
6.32473e-08
6.23688e-08
6.149e-08
6.0611e-08
5.97317e-08
5.88521e-08
5.79723e-08
5.70922e-08
5.62118e-08
5.53311e-08
5.44502e-08
5.35689e-08
5.26874e-08
5.18055e-08
5.09234e-08
5.0041e-08
4.91582e-08
4.82752e-08
4.73918e-08
4.65082e-08
4.56242e-08
4.47399e-08
4.38553e-08
4.29703e-08
4.20851e-08
4.11995e-08
4.03136e-08
3.94273e-08
3.85408e-08
3.76538e-08
3.67666e-08
3.5879e-08
3.4991e-08
3.41027e-08
3.32141e-08
3.23251e-08
3.14357e-08
3.0546e-08
2.9656e-08
2.87655e-08
2.78747e-08
2.69835e-08
2.6092e-08
2.52e-08
2.43077e-08
2.3415e-08
2.2522e-08
2.16285e-08
2.07347e-08
1.98403e-08
1.8946e-08
1.80505e-08
1.71558e-08
1.62588e-08
1.53643e-08
1.4465e-08
1.35719e-08
1.26687e-08
1.17788e-08
1.08695e-08
9.98544e-09
9.06702e-09
8.19208e-09
7.26102e-09
6.3988e-09
5.45151e-09
4.60545e-09
3.63869e-09
2.81167e-09
1.82289e-09
1.01709e-09
4.37218e-12
-7.78337e-10
-1.8173e-09
-2.57369e-09
-3.64363e-09
-4.36698e-09
-5.47709e-09
-6.15534e-09
-7.32093e-09
-7.93517e-09
-9.17921e-09
-9.7019e-09
-1.10567e-08
-1.14508e-08
-1.29576e-08
-1.31783e-08
-1.48849e-08
-1.48816e-08
-1.68409e-08
-1.6559e-08
-1.88259e-08
-1.82116e-08
-2.08381e-08
-1.98424e-08
-2.28729e-08
-2.14619e-08
-2.49162e-08
-2.30975e-08
-2.69356e-08
-2.48116e-08
-2.88614e-08
-2.67445e-08
-3.05422e-08
-2.92114e-08
-3.16367e-08
-3.29393e-08
-3.13022e-08
-3.96535e-08
-2.70162e-08
-5.35859e-08
-7.96891e-09
-8.434e-08
1.32961e-07
-3.86739e-08
-3.86739e-08
-0.0952161
0.0952161
0.0129759
0.00385493
0.00193462
0.00119652
0.000822061
0.000602637
0.000462391
0.000367366
0.000300156
0.000250971
0.000213928
0.00018532
0.000162728
0.000144522
0.000129584
0.000117132
0.000106606
9.75986e-05
8.98032e-05
8.29895e-05
7.69865e-05
7.16664e-05
6.69258e-05
6.26727e-05
5.88268e-05
5.53272e-05
5.21361e-05
4.92285e-05
4.65757e-05
4.41353e-05
4.1861e-05
3.97204e-05
3.77067e-05
3.58293e-05
3.40907e-05
3.24679e-05
3.09138e-05
2.93789e-05
2.78355e-05
2.62861e-05
2.47501e-05
2.32393e-05
2.17422e-05
2.02294e-05
1.86781e-05
1.70972e-05
1.55375e-05
1.40765e-05
1.27865e-05
1.17023e-05
1.08067e-05
1.00399e-05
9.32726e-06
8.61052e-06
7.86937e-06
7.1238e-06
6.41963e-06
5.80545e-06
5.31146e-06
4.93831e-06
4.65829e-06
4.42607e-06
4.1936e-06
3.92324e-06
3.59563e-06
3.21113e-06
2.78603e-06
2.34582e-06
1.91799e-06
1.52619e-06
1.18667e-06
9.07198e-07
6.87942e-07
5.23423e-07
4.04911e-07
3.22562e-07
2.66997e-07
2.30246e-07
2.06103e-07
1.90087e-07
1.79173e-07
1.71435e-07
1.65707e-07
1.61302e-07
1.57821e-07
1.55015e-07
1.52718e-07
1.50803e-07
1.49172e-07
1.47743e-07
1.46449e-07
1.45243e-07
1.44086e-07
1.42957e-07
1.41838e-07
1.40722e-07
1.39603e-07
1.38482e-07
1.37357e-07
1.3623e-07
1.35101e-07
1.33972e-07
1.32841e-07
1.3171e-07
1.30579e-07
1.29447e-07
1.28315e-07
1.27181e-07
1.26047e-07
1.24911e-07
1.23773e-07
1.22634e-07
1.21493e-07
1.2035e-07
1.19205e-07
1.18059e-07
1.16911e-07
1.15761e-07
1.14609e-07
1.13456e-07
1.12301e-07
1.11144e-07
1.09986e-07
1.08827e-07
1.07666e-07
1.06504e-07
1.0534e-07
1.04175e-07
1.03009e-07
1.01841e-07
1.00673e-07
9.95024e-08
9.83311e-08
9.71586e-08
9.59848e-08
9.48098e-08
9.36337e-08
9.24563e-08
9.12778e-08
9.00982e-08
8.89174e-08
8.77354e-08
8.65524e-08
8.53683e-08
8.4183e-08
8.29968e-08
8.18095e-08
8.06211e-08
7.94317e-08
7.82414e-08
7.705e-08
7.58577e-08
7.46645e-08
7.34704e-08
7.22753e-08
7.10794e-08
6.98826e-08
6.8685e-08
6.74865e-08
6.62873e-08
6.50873e-08
6.38865e-08
6.2685e-08
6.14827e-08
6.02798e-08
5.90762e-08
5.78719e-08
5.66669e-08
5.54614e-08
5.42552e-08
5.30484e-08
5.1841e-08
5.06331e-08
4.94247e-08
4.82157e-08
4.70062e-08
4.57962e-08
4.45858e-08
4.33748e-08
4.21635e-08
4.09516e-08
3.97394e-08
3.85267e-08
3.73137e-08
3.61002e-08
3.48864e-08
3.36722e-08
3.24576e-08
3.12428e-08
3.00275e-08
2.8812e-08
2.75961e-08
2.638e-08
2.51635e-08
2.39468e-08
2.27297e-08
2.15124e-08
2.02948e-08
1.9077e-08
1.78589e-08
1.66406e-08
1.5422e-08
1.42032e-08
1.29841e-08
1.17648e-08
1.05453e-08
9.32556e-09
8.10561e-09
6.88543e-09
5.66504e-09
4.44443e-09
3.22363e-09
2.0026e-09
7.8137e-10
-4.40065e-10
-1.66171e-09
-2.88356e-09
-4.10561e-09
-5.32787e-09
-6.55032e-09
-7.77299e-09
-8.99586e-09
-1.02189e-08
-1.14422e-08
-1.26657e-08
-1.38894e-08
-1.51134e-08
-1.63375e-08
-1.75619e-08
-1.87864e-08
-2.00112e-08
-2.12363e-08
-2.24615e-08
-2.3687e-08
-2.49127e-08
-2.61387e-08
-2.73649e-08
-2.85913e-08
-2.9818e-08
-3.10449e-08
-3.22721e-08
-3.34995e-08
-3.47272e-08
-3.59552e-08
-3.71834e-08
-3.84119e-08
-3.96407e-08
-4.08697e-08
-4.2099e-08
-4.33286e-08
-4.45585e-08
-4.57887e-08
-4.70192e-08
-4.825e-08
-4.94811e-08
-5.07125e-08
-5.19442e-08
-5.31762e-08
-5.44086e-08
-5.56413e-08
-5.68743e-08
-5.81076e-08
-5.93413e-08
-6.05753e-08
-6.18097e-08
-6.30444e-08
-6.42794e-08
-6.55149e-08
-6.67507e-08
-6.79868e-08
-6.92234e-08
-7.04603e-08
-7.16976e-08
-7.29352e-08
-7.41733e-08
-7.54118e-08
-7.66506e-08
-7.78899e-08
-7.91296e-08
-8.03696e-08
-8.16101e-08
-8.28511e-08
-8.40924e-08
-8.53342e-08
-8.65764e-08
-8.7819e-08
-8.90621e-08
-9.03056e-08
-9.15496e-08
-9.27941e-08
-9.40389e-08
-9.52843e-08
-9.65301e-08
-9.77764e-08
-9.90232e-08
-1.0027e-07
-1.01518e-07
-1.02766e-07
-1.04015e-07
-1.05264e-07
-1.06514e-07
-1.07764e-07
-1.09015e-07
-1.10266e-07
-1.11518e-07
-1.1277e-07
-1.14023e-07
-1.15276e-07
-1.1653e-07
-1.17785e-07
-1.1904e-07
-1.20295e-07
-1.21551e-07
-1.22808e-07
-1.24065e-07
-1.25323e-07
-1.26581e-07
-1.2784e-07
-1.291e-07
-1.3036e-07
-1.3162e-07
-1.32882e-07
-1.34143e-07
-1.35406e-07
-1.36669e-07
-1.37933e-07
-1.39197e-07
-1.40462e-07
-1.41727e-07
-1.42994e-07
-1.4426e-07
-1.45528e-07
-1.46796e-07
-1.48066e-07
-1.49333e-07
-1.50607e-07
-1.51872e-07
-1.53153e-07
-1.54411e-07
-1.55704e-07
-1.56949e-07
-1.58263e-07
-1.59484e-07
-1.60831e-07
-1.62016e-07
-1.63408e-07
-1.64544e-07
-1.65996e-07
-1.67069e-07
-1.68591e-07
-1.69592e-07
-1.71195e-07
-1.72113e-07
-1.73805e-07
-1.74635e-07
-1.76422e-07
-1.77153e-07
-1.79054e-07
-1.79659e-07
-1.81707e-07
-1.82143e-07
-1.84396e-07
-1.84592e-07
-1.87135e-07
-1.86988e-07
-1.89941e-07
-1.89313e-07
-1.92831e-07
-1.91554e-07
-1.95816e-07
-1.937e-07
-1.98905e-07
-1.95744e-07
-2.02098e-07
-1.97691e-07
-2.05389e-07
-1.99552e-07
-2.08762e-07
-2.01365e-07
-2.12165e-07
-2.0323e-07
-2.15479e-07
-2.05381e-07
-2.18449e-07
-2.08335e-07
-2.20523e-07
-2.13263e-07
-2.20454e-07
-2.22857e-07
-2.1517e-07
-2.43491e-07
-1.95449e-07
-2.9066e-07
-1.21651e-07
-3.97741e-07
3.92731e-07
-2.27521e-07
-2.27521e-07
-0.125293
0.125293
0.0249362
0.00835837
0.00427836
0.00266189
0.00183411
0.00134673
0.00103427
0.000822087
0.000671772
0.000561636
0.000478618
0.000414473
0.0003638
0.000322964
0.000289462
0.000261541
0.000237947
0.000217763
0.0002003
0.000185042
0.000171606
0.000159702
0.000149095
0.000139579
0.000130976
0.00012315
0.000116018
0.000109519
0.000103586
9.81231e-05
9.30302e-05
8.82396e-05
8.37365e-05
7.95376e-05
7.56416e-05
7.19933e-05
6.84898e-05
6.50272e-05
6.15495e-05
5.80636e-05
5.46084e-05
5.12049e-05
4.78263e-05
4.44135e-05
4.0926e-05
3.73944e-05
3.39349e-05
3.07141e-05
2.78796e-05
2.54954e-05
2.35149e-05
2.18055e-05
2.02088e-05
1.86066e-05
1.69624e-05
1.53232e-05
1.37867e-05
1.2452e-05
1.13762e-05
1.05538e-05
9.92102e-06
9.37989e-06
8.83004e-06
8.19561e-06
7.44047e-06
6.57002e-06
5.62215e-06
4.65264e-06
3.71987e-06
2.87279e-06
2.14399e-06
1.54786e-06
1.08278e-06
7.35587e-07
4.86681e-07
3.14517e-07
1.98884e-07
1.22774e-07
7.30535e-08
4.03032e-08
1.81949e-08
2.71823e-09
-8.54963e-09
-1.70296e-08
-2.35579e-08
-2.8653e-08
-3.26687e-08
-3.58715e-08
-3.84753e-08
-4.06539e-08
-4.25452e-08
-4.42541e-08
-4.58563e-08
-4.74024e-08
-4.89243e-08
-5.04397e-08
-5.19573e-08
-5.34798e-08
-5.50071e-08
-5.65378e-08
-5.80702e-08
-5.9603e-08
-6.11352e-08
-6.26665e-08
-6.41969e-08
-6.57268e-08
-6.72567e-08
-6.87869e-08
-7.03181e-08
-7.18506e-08
-7.33849e-08
-7.49213e-08
-7.64598e-08
-7.80006e-08
-7.95437e-08
-8.10892e-08
-8.26368e-08
-8.41867e-08
-8.57387e-08
-8.72927e-08
-8.88485e-08
-9.04062e-08
-9.19656e-08
-9.35266e-08
-9.50892e-08
-9.66533e-08
-9.82189e-08
-9.97859e-08
-1.01354e-07
-1.02924e-07
-1.04495e-07
-1.06068e-07
-1.07642e-07
-1.09217e-07
-1.10793e-07
-1.12371e-07
-1.1395e-07
-1.15531e-07
-1.17112e-07
-1.18695e-07
-1.2028e-07
-1.21865e-07
-1.23452e-07
-1.25041e-07
-1.2663e-07
-1.28221e-07
-1.29813e-07
-1.31406e-07
-1.33001e-07
-1.34596e-07
-1.36193e-07
-1.37791e-07
-1.3939e-07
-1.40991e-07
-1.42592e-07
-1.44195e-07
-1.45799e-07
-1.47404e-07
-1.49009e-07
-1.50616e-07
-1.52224e-07
-1.53833e-07
-1.55443e-07
-1.57054e-07
-1.58666e-07
-1.60278e-07
-1.61892e-07
-1.63507e-07
-1.65122e-07
-1.66738e-07
-1.68355e-07
-1.69973e-07
-1.71592e-07
-1.73211e-07
-1.74832e-07
-1.76452e-07
-1.78074e-07
-1.79697e-07
-1.8132e-07
-1.82943e-07
-1.84568e-07
-1.86193e-07
-1.87819e-07
-1.89445e-07
-1.91072e-07
-1.927e-07
-1.94328e-07
-1.95957e-07
-1.97586e-07
-1.99216e-07
-2.00846e-07
-2.02477e-07
-2.04108e-07
-2.0574e-07
-2.07373e-07
-2.09006e-07
-2.10639e-07
-2.12273e-07
-2.13908e-07
-2.15542e-07
-2.17178e-07
-2.18813e-07
-2.2045e-07
-2.22086e-07
-2.23723e-07
-2.25361e-07
-2.26999e-07
-2.28637e-07
-2.30276e-07
-2.31915e-07
-2.33555e-07
-2.35195e-07
-2.36835e-07
-2.38476e-07
-2.40117e-07
-2.41759e-07
-2.43401e-07
-2.45043e-07
-2.46686e-07
-2.48329e-07
-2.49973e-07
-2.51617e-07
-2.53261e-07
-2.54906e-07
-2.56551e-07
-2.58197e-07
-2.59843e-07
-2.61489e-07
-2.63136e-07
-2.64783e-07
-2.66431e-07
-2.68079e-07
-2.69727e-07
-2.71376e-07
-2.73026e-07
-2.74675e-07
-2.76326e-07
-2.77976e-07
-2.79627e-07
-2.81279e-07
-2.82931e-07
-2.84583e-07
-2.86236e-07
-2.8789e-07
-2.89544e-07
-2.91198e-07
-2.92853e-07
-2.94508e-07
-2.96164e-07
-2.9782e-07
-2.99477e-07
-3.01134e-07
-3.02792e-07
-3.0445e-07
-3.06109e-07
-3.07768e-07
-3.09428e-07
-3.11088e-07
-3.12749e-07
-3.1441e-07
-3.16072e-07
-3.17734e-07
-3.19397e-07
-3.21061e-07
-3.22725e-07
-3.2439e-07
-3.26055e-07
-3.27721e-07
-3.29387e-07
-3.31054e-07
-3.32721e-07
-3.3439e-07
-3.36058e-07
-3.37728e-07
-3.39398e-07
-3.41068e-07
-3.42739e-07
-3.44411e-07
-3.46084e-07
-3.47757e-07
-3.49431e-07
-3.51105e-07
-3.5278e-07
-3.54456e-07
-3.56132e-07
-3.5781e-07
-3.59487e-07
-3.61166e-07
-3.62845e-07
-3.64525e-07
-3.66205e-07
-3.67887e-07
-3.69569e-07
-3.71251e-07
-3.72935e-07
-3.74619e-07
-3.76304e-07
-3.7799e-07
-3.79676e-07
-3.81363e-07
-3.83051e-07
-3.8474e-07
-3.8643e-07
-3.8812e-07
-3.89811e-07
-3.91503e-07
-3.93196e-07
-3.94889e-07
-3.96584e-07
-3.98279e-07
-3.99975e-07
-4.01672e-07
-4.0337e-07
-4.05068e-07
-4.06768e-07
-4.08468e-07
-4.10169e-07
-4.11871e-07
-4.13574e-07
-4.15278e-07
-4.16983e-07
-4.18688e-07
-4.20395e-07
-4.22102e-07
-4.23811e-07
-4.2552e-07
-4.27231e-07
-4.28942e-07
-4.30654e-07
-4.32368e-07
-4.34082e-07
-4.35798e-07
-4.37512e-07
-4.39233e-07
-4.40946e-07
-4.42674e-07
-4.44381e-07
-4.46124e-07
-4.47815e-07
-4.49583e-07
-4.51246e-07
-4.53058e-07
-4.5467e-07
-4.56549e-07
-4.58084e-07
-4.60059e-07
-4.61488e-07
-4.63589e-07
-4.64883e-07
-4.67136e-07
-4.68272e-07
-4.70697e-07
-4.71658e-07
-4.74271e-07
-4.75041e-07
-4.77859e-07
-4.78415e-07
-4.81474e-07
-4.81763e-07
-4.85135e-07
-4.85062e-07
-4.8887e-07
-4.88283e-07
-4.92709e-07
-4.91389e-07
-4.9669e-07
-4.94344e-07
-5.00849e-07
-4.97115e-07
-5.05211e-07
-4.9968e-07
-5.09792e-07
-5.02026e-07
-5.14595e-07
-5.04161e-07
-5.19608e-07
-5.06108e-07
-5.24795e-07
-5.07947e-07
-5.30049e-07
-5.09891e-07
-5.3512e-07
-5.12435e-07
-5.3947e-07
-5.16678e-07
-5.41942e-07
-5.25104e-07
-5.39922e-07
-5.43424e-07
-5.26968e-07
-5.85135e-07
-4.83731e-07
-6.82825e-07
-3.26934e-07
-9.04169e-07
7.41463e-07
-5.45344e-07
-5.45344e-07
-0.146488
0.146488
0.0383108
0.0142344
0.00745642
0.00467316
0.00323097
0.00237695
0.00182751
0.0014535
0.00118806
0.000993321
0.000846398
0.000732805
0.000643039
0.00057069
0.000511339
0.000461884
0.000420102
0.000384366
0.000353459
0.000326464
0.0003027
0.00028165
0.000262896
0.000246072
0.000230863
0.000217036
0.000204437
0.000192957
0.000182469
0.000172807
0.000163797
0.000155326
0.000147368
0.000139946
0.000133047
0.00012657
0.000120336
0.000114173
0.00010799
0.000101799
9.56627e-05
8.96104e-05
8.35949e-05
7.7522e-05
7.13373e-05
6.51084e-05
5.90432e-05
5.3424e-05
4.84906e-05
4.43358e-05
4.08671e-05
3.78535e-05
3.50293e-05
3.22032e-05
2.93227e-05
2.64728e-05
2.38172e-05
2.1516e-05
1.96554e-05
1.82158e-05
1.7083e-05
1.60904e-05
1.50719e-05
1.39061e-05
1.25396e-05
1.09881e-05
9.32045e-06
7.63259e-06
6.02265e-06
4.57113e-06
3.3299e-06
2.32e-06
1.53578e-06
9.52767e-07
5.36334e-07
2.49234e-07
5.69561e-08
-6.92882e-08
-1.51578e-07
-2.05661e-07
-2.42069e-07
-2.67452e-07
-2.85817e-07
-2.99514e-07
-3.09932e-07
-3.17936e-07
-3.24119e-07
-3.28935e-07
-3.32743e-07
-3.35839e-07
-3.38454e-07
-3.40764e-07
-3.42896e-07
-3.44934e-07
-3.46932e-07
-3.48917e-07
-3.50904e-07
-3.52898e-07
-3.54898e-07
-3.56902e-07
-3.58908e-07
-3.60912e-07
-3.62914e-07
-3.64912e-07
-3.66909e-07
-3.68902e-07
-3.70895e-07
-3.72887e-07
-3.7488e-07
-3.76874e-07
-3.7887e-07
-3.80868e-07
-3.82869e-07
-3.84872e-07
-3.86879e-07
-3.88888e-07
-3.909e-07
-3.92915e-07
-3.94932e-07
-3.96951e-07
-3.98973e-07
-4.00996e-07
-4.03021e-07
-4.05049e-07
-4.07077e-07
-4.09107e-07
-4.11139e-07
-4.13172e-07
-4.15207e-07
-4.17242e-07
-4.1928e-07
-4.21318e-07
-4.23358e-07
-4.25399e-07
-4.27441e-07
-4.29485e-07
-4.3153e-07
-4.33577e-07
-4.35625e-07
-4.37674e-07
-4.39725e-07
-4.41777e-07
-4.4383e-07
-4.45885e-07
-4.47941e-07
-4.49999e-07
-4.52058e-07
-4.54119e-07
-4.56181e-07
-4.58244e-07
-4.60309e-07
-4.62375e-07
-4.64442e-07
-4.66511e-07
-4.68581e-07
-4.70653e-07
-4.72726e-07
-4.748e-07
-4.76875e-07
-4.78952e-07
-4.8103e-07
-4.83109e-07
-4.8519e-07
-4.87271e-07
-4.89354e-07
-4.91438e-07
-4.93523e-07
-4.95609e-07
-4.97697e-07
-4.99785e-07
-5.01875e-07
-5.03965e-07
-5.06057e-07
-5.0815e-07
-5.10243e-07
-5.12338e-07
-5.14434e-07
-5.16531e-07
-5.18628e-07
-5.20727e-07
-5.22826e-07
-5.24927e-07
-5.27028e-07
-5.2913e-07
-5.31233e-07
-5.33337e-07
-5.35442e-07
-5.37548e-07
-5.39654e-07
-5.41761e-07
-5.43869e-07
-5.45978e-07
-5.48088e-07
-5.50198e-07
-5.52309e-07
-5.54421e-07
-5.56534e-07
-5.58647e-07
-5.60761e-07
-5.62876e-07
-5.64992e-07
-5.67108e-07
-5.69225e-07
-5.71343e-07
-5.73461e-07
-5.7558e-07
-5.777e-07
-5.7982e-07
-5.81941e-07
-5.84063e-07
-5.86185e-07
-5.88308e-07
-5.90432e-07
-5.92556e-07
-5.94681e-07
-5.96807e-07
-5.98933e-07
-6.0106e-07
-6.03188e-07
-6.05316e-07
-6.07445e-07
-6.09574e-07
-6.11704e-07
-6.13835e-07
-6.15967e-07
-6.18099e-07
-6.20232e-07
-6.22365e-07
-6.245e-07
-6.26634e-07
-6.2877e-07
-6.30906e-07
-6.33043e-07
-6.35181e-07
-6.37319e-07
-6.39458e-07
-6.41597e-07
-6.43738e-07
-6.45879e-07
-6.4802e-07
-6.50163e-07
-6.52306e-07
-6.5445e-07
-6.56595e-07
-6.5874e-07
-6.60886e-07
-6.63033e-07
-6.6518e-07
-6.67329e-07
-6.69478e-07
-6.71627e-07
-6.73778e-07
-6.75929e-07
-6.78081e-07
-6.80234e-07
-6.82388e-07
-6.84542e-07
-6.86697e-07
-6.88853e-07
-6.9101e-07
-6.93168e-07
-6.95326e-07
-6.97485e-07
-6.99645e-07
-7.01806e-07
-7.03968e-07
-7.06131e-07
-7.08294e-07
-7.10458e-07
-7.12623e-07
-7.1479e-07
-7.16956e-07
-7.19124e-07
-7.21293e-07
-7.23463e-07
-7.25633e-07
-7.27804e-07
-7.29977e-07
-7.3215e-07
-7.34324e-07
-7.365e-07
-7.38676e-07
-7.40853e-07
-7.43031e-07
-7.4521e-07
-7.4739e-07
-7.49571e-07
-7.51753e-07
-7.53936e-07
-7.5612e-07
-7.58305e-07
-7.60491e-07
-7.62678e-07
-7.64866e-07
-7.67056e-07
-7.69246e-07
-7.71437e-07
-7.7363e-07
-7.75823e-07
-7.78018e-07
-7.80214e-07
-7.8241e-07
-7.84608e-07
-7.86807e-07
-7.89008e-07
-7.91209e-07
-7.93412e-07
-7.95615e-07
-7.9782e-07
-8.00026e-07
-8.02234e-07
-8.04442e-07
-8.06652e-07
-8.08863e-07
-8.11075e-07
-8.13289e-07
-8.15503e-07
-8.17719e-07
-8.19937e-07
-8.22155e-07
-8.24375e-07
-8.26596e-07
-8.28819e-07
-8.31043e-07
-8.33268e-07
-8.35495e-07
-8.37723e-07
-8.39953e-07
-8.42183e-07
-8.44416e-07
-8.46648e-07
-8.48886e-07
-8.51119e-07
-8.53363e-07
-8.55593e-07
-8.57849e-07
-8.60069e-07
-8.62348e-07
-8.64542e-07
-8.66864e-07
-8.69008e-07
-8.71403e-07
-8.73461e-07
-8.75971e-07
-8.77897e-07