# vtk DataFile Version 2.0
FlowField
ASCII
DATASET STRUCTURED_GRID
DIMENSIONS 400 1 200
POINTS 80000 float
0 0 0
0.08 0 0
0.16 0 0
0.24 0 0
0.32 0 0
0.4 0 0
0.48 0 0
0.56 0 0
0.64 0 0
0.72 0 0
0.8 0 0
0.88 0 0
0.96 0 0
1.04 0 0
1.12 0 0
1.2 0 0
1.28 0 0
1.36 0 0
1.44 0 0
1.52 0 0
1.6 0 0
1.68 0 0
1.76 0 0
1.84 0 0
1.92 0 0
2 0 0
2.08 0 0
2.16 0 0
2.24 0 0
2.32 0 0
2.4 0 0
2.48 0 0
2.56 0 0
2.64 0 0
2.72 0 0
2.8 0 0
2.88 0 0
2.96 0 0
3.04 0 0
3.12 0 0
3.2 0 0
3.28 0 0
3.36 0 0
3.44 0 0
3.52 0 0
3.6 0 0
3.68 0 0
3.76 0 0
3.84 0 0
3.92 0 0
4 0 0
4.08 0 0
4.16 0 0
4.24 0 0
4.32 0 0
4.4 0 0
4.48 0 0
4.56 0 0
4.64 0 0
4.72 0 0
4.8 0 0
4.88 0 0
4.96 0 0
5.04 0 0
5.12 0 0
5.2 0 0
5.28 0 0
5.36 0 0
5.44 0 0
5.52 0 0
5.6 0 0
5.68 0 0
5.76 0 0
5.84 0 0
5.92 0 0
6 0 0
6.08 0 0
6.16 0 0
6.24 0 0
6.32 0 0
6.4 0 0
6.48 0 0
6.56 0 0
6.64 0 0
6.72 0 0
6.8 0 0
6.88 0 0
6.96 0 0
7.04 0 0
7.12 0 0
7.2 0 0
7.28 0 0
7.36 0 0
7.44 0 0
7.52 0 0
7.6 0 0
7.68 0 0
7.76 0 0
7.84 0 0
7.92 0 0
8 0 0
8.08 0 0
8.16 0 0
8.24 0 0
8.32 0 0
8.4 0 0
8.48 0 0
8.56 0 0
8.64 0 0
8.72 0 0
8.8 0 0
8.88 0 0
8.96 0 0
9.04 0 0
9.12 0 0
9.2 0 0
9.28 0 0
9.36 0 0
9.44 0 0
9.52 0 0
9.6 0 0
9.68 0 0
9.76 0 0
9.84 0 0
9.92 0 0
10 0 0
10.08 0 0
10.16 0 0
10.24 0 0
10.32 0 0
10.4 0 0
10.48 0 0
10.56 0 0
10.64 0 0
10.72 0 0
10.8 0 0
10.88 0 0
10.96 0 0
11.04 0 0
11.12 0 0
11.2 0 0
11.28 0 0
11.36 0 0
11.44 0 0
11.52 0 0
11.6 0 0
11.68 0 0
11.76 0 0
11.84 0 0
11.92 0 0
12 0 0
12.08 0 0
12.16 0 0
12.24 0 0
12.32 0 0
12.4 0 0
12.48 0 0
12.56 0 0
12.64 0 0
12.72 0 0
12.8 0 0
12.88 0 0
12.96 0 0
13.04 0 0
13.12 0 0
13.2 0 0
13.28 0 0
13.36 0 0
13.44 0 0
13.52 0 0
13.6 0 0
13.68 0 0
13.76 0 0
13.84 0 0
13.92 0 0
14 0 0
14.08 0 0
14.16 0 0
14.24 0 0
14.32 0 0
14.4 0 0
14.48 0 0
14.56 0 0
14.64 0 0
14.72 0 0
14.8 0 0
14.88 0 0
14.96 0 0
15.04 0 0
15.12 0 0
15.2 0 0
15.28 0 0
15.36 0 0
15.44 0 0
15.52 0 0
15.6 0 0
15.68 0 0
15.76 0 0
15.84 0 0
15.92 0 0
16 0 0
16.08 0 0
16.16 0 0
16.24 0 0
16.32 0 0
16.4 0 0
16.48 0 0
16.56 0 0
16.64 0 0
16.72 0 0
16.8 0 0
16.88 0 0
16.96 0 0
17.04 0 0
17.12 0 0
17.2 0 0
17.28 0 0
17.36 0 0
17.44 0 0
17.52 0 0
17.6 0 0
17.68 0 0
17.76 0 0
17.84 0 0
17.92 0 0
18 0 0
18.08 0 0
18.16 0 0
18.24 0 0
18.32 0 0
18.4 0 0
18.48 0 0
18.56 0 0
18.64 0 0
18.72 0 0
18.8 0 0
18.88 0 0
18.96 0 0
19.04 0 0
19.12 0 0
19.2 0 0
19.28 0 0
19.36 0 0
19.44 0 0
19.52 0 0
19.6 0 0
19.68 0 0
19.76 0 0
19.84 0 0
19.92 0 0
20 0 0
20.08 0 0
20.16 0 0
20.24 0 0
20.32 0 0
20.4 0 0
20.48 0 0
20.56 0 0
20.64 0 0
20.72 0 0
20.8 0 0
20.88 0 0
20.96 0 0
21.04 0 0
21.12 0 0
21.2 0 0
21.28 0 0
21.36 0 0
21.44 0 0
21.52 0 0
21.6 0 0
21.68 0 0
21.76 0 0
21.84 0 0
21.92 0 0
22 0 0
22.08 0 0
22.16 0 0
22.24 0 0
22.32 0 0
22.4 0 0
22.48 0 0
22.56 0 0
22.64 0 0
22.72 0 0
22.8 0 0
22.88 0 0
22.96 0 0
23.04 0 0
23.12 0 0
23.2 0 0
23.28 0 0
23.36 0 0
23.44 0 0
23.52 0 0
23.6 0 0
23.68 0 0
23.76 0 0
23.84 0 0
23.92 0 0
24 0 0
24.08 0 0
24.16 0 0
24.24 0 0
24.32 0 0
24.4 0 0
24.48 0 0
24.56 0 0
24.64 0 0
24.72 0 0
24.8 0 0
24.88 0 0
24.96 0 0
25.04 0 0
25.12 0 0
25.2 0 0
25.28 0 0
25.36 0 0
25.44 0 0
25.52 0 0
25.6 0 0
25.68 0 0
25.76 0 0
25.84 0 0
25.92 0 0
26 0 0
26.08 0 0
26.16 0 0
26.24 0 0
26.32 0 0
26.4 0 0
26.48 0 0
26.56 0 0
26.64 0 0
26.72 0 0
26.8 0 0
26.88 0 0
26.96 0 0
27.04 0 0
27.12 0 0
27.2 0 0
27.28 0 0
27.36 0 0
27.44 0 0
27.52 0 0
27.6 0 0
27.68 0 0
27.76 0 0
27.84 0 0
27.92 0 0
28 0 0
28.08 0 0
28.16 0 0
28.24 0 0
28.32 0 0
28.4 0 0
28.48 0 0
28.56 0 0
28.64 0 0
28.72 0 0
28.8 0 0
28.88 0 0
28.96 0 0
29.04 0 0
29.12 0 0
29.2 0 0
29.28 0 0
29.36 0 0
29.44 0 0
29.52 0 0
29.6 0 0
29.68 0 0
29.76 0 0
29.84 0 0
29.92 0 0
30 0 0
30.08 0 0
30.16 0 0
30.24 0 0
30.32 0 0
30.4 0 0
30.48 0 0
30.56 0 0
30.64 0 0
30.72 0 0
30.8 0 0
30.88 0 0
30.96 0 0
31.04 0 0
31.12 0 0
31.2 0 0
31.28 0 0
31.36 0 0
31.44 0 0
31.52 0 0
31.6 0 0
31.68 0 0
31.76 0 0
31.84 0 0
31.92 0 0
0 0.005 0
0.08 0.005 0
0.16 0.005 0
0.24 0.005 0
0.32 0.005 0
0.4 0.005 0
0.48 0.005 0
0.56 0.005 0
0.64 0.005 0
0.72 0.005 0
0.8 0.005 0
0.88 0.005 0
0.96 0.005 0
1.04 0.005 0
1.12 0.005 0
1.2 0.005 0
1.28 0.005 0
1.36 0.005 0
1.44 0.005 0
1.52 0.005 0
1.6 0.005 0
1.68 0.005 0
1.76 0.005 0
1.84 0.005 0
1.92 0.005 0
2 0.005 0
2.08 0.005 0
2.16 0.005 0
2.24 0.005 0
2.32 0.005 0
2.4 0.005 0
2.48 0.005 0
2.56 0.005 0
2.64 0.005 0
2.72 0.005 0
2.8 0.005 0
2.88 0.005 0
2.96 0.005 0
3.04 0.005 0
3.12 0.005 0
3.2 0.005 0
3.28 0.005 0
3.36 0.005 0
3.44 0.005 0
3.52 0.005 0
3.6 0.005 0
3.68 0.005 0
3.76 0.005 0
3.84 0.005 0
3.92 0.005 0
4 0.005 0
4.08 0.005 0
4.16 0.005 0
4.24 0.005 0
4.32 0.005 0
4.4 0.005 0
4.48 0.005 0
4.56 0.005 0
4.64 0.005 0
4.72 0.005 0
4.8 0.005 0
4.88 0.005 0
4.96 0.005 0
5.04 0.005 0
5.12 0.005 0
5.2 0.005 0
5.28 0.005 0
5.36 0.005 0
5.44 0.005 0
5.52 0.005 0
5.6 0.005 0
5.68 0.005 0
5.76 0.005 0
5.84 0.005 0
5.92 0.005 0
6 0.005 0
6.08 0.005 0
6.16 0.005 0
6.24 0.005 0
6.32 0.005 0
6.4 0.005 0
6.48 0.005 0
6.56 0.005 0
6.64 0.005 0
6.72 0.005 0
6.8 0.005 0
6.88 0.005 0
6.96 0.005 0
7.04 0.005 0
7.12 0.005 0
7.2 0.005 0
7.28 0.005 0
7.36 0.005 0
7.44 0.005 0
7.52 0.005 0
7.6 0.005 0
7.68 0.005 0
7.76 0.005 0
7.84 0.005 0
7.92 0.005 0
8 0.005 0
8.08 0.005 0
8.16 0.005 0
8.24 0.005 0
8.32 0.005 0
8.4 0.005 0
8.48 0.005 0
8.56 0.005 0
8.64 0.005 0
8.72 0.005 0
8.8 0.005 0
8.88 0.005 0
8.96 0.005 0
9.04 0.005 0
9.12 0.005 0
9.2 0.005 0
9.28 0.005 0
9.36 0.005 0
9.44 0.005 0
9.52 0.005 0
9.6 0.005 0
9.68 0.005 0
9.76 0.005 0
9.84 0.005 0
9.92 0.005 0
10 0.005 0
10.08 0.005 0
10.16 0.005 0
10.24 0.005 0
10.32 0.005 0
10.4 0.005 0
10.48 0.005 0
10.56 0.005 0
10.64 0.005 0
10.72 0.005 0
10.8 0.005 0
10.88 0.005 0
10.96 0.005 0
11.04 0.005 0
11.12 0.005 0
11.2 0.005 0
11.28 0.005 0
11.36 0.005 0
11.44 0.005 0
11.52 0.005 0
11.6 0.005 0
11.68 0.005 0
11.76 0.005 0
11.84 0.005 0
11.92 0.005 0
12 0.005 0
12.08 0.005 0
12.16 0.005 0
12.24 0.005 0
12.32 0.005 0
12.4 0.005 0
12.48 0.005 0
12.56 0.005 0
12.64 0.005 0
12.72 0.005 0
12.8 0.005 0
12.88 0.005 0
12.96 0.005 0
13.04 0.005 0
13.12 0.005 0
13.2 0.005 0
13.28 0.005 0
13.36 0.005 0
13.44 0.005 0
13.52 0.005 0
13.6 0.005 0
13.68 0.005 0
13.76 0.005 0
13.84 0.005 0
13.92 0.005 0
14 0.005 0
14.08 0.005 0
14.16 0.005 0
14.24 0.005 0
14.32 0.005 0
14.4 0.005 0
14.48 0.005 0
14.56 0.005 0
14.64 0.005 0
14.72 0.005 0
14.8 0.005 0
14.88 0.005 0
14.96 0.005 0
15.04 0.005 0
15.12 0.005 0
15.2 0.005 0
15.28 0.005 0
15.36 0.005 0
15.44 0.005 0
15.52 0.005 0
15.6 0.005 0
15.68 0.005 0
15.76 0.005 0
15.84 0.005 0
15.92 0.005 0
16 0.005 0
16.08 0.005 0
16.16 0.005 0
16.24 0.005 0
16.32 0.005 0
16.4 0.005 0
16.48 0.005 0
16.56 0.005 0
16.64 0.005 0
16.72 0.005 0
16.8 0.005 0
16.88 0.005 0
16.96 0.005 0
17.04 0.005 0
17.12 0.005 0
17.2 0.005 0
17.28 0.005 0
17.36 0.005 0
17.44 0.005 0
17.52 0.005 0
17.6 0.005 0
17.68 0.005 0
17.76 0.005 0
17.84 0.005 0
17.92 0.005 0
18 0.005 0
18.08 0.005 0
18.16 0.005 0
18.24 0.005 0
18.32 0.005 0
18.4 0.005 0
18.48 0.005 0
18.56 0.005 0
18.64 0.005 0
18.72 0.005 0
18.8 0.005 0
18.88 0.005 0
18.96 0.005 0
19.04 0.005 0
19.12 0.005 0
19.2 0.005 0
19.28 0.005 0
19.36 0.005 0
19.44 0.005 0
19.52 0.005 0
19.6 0.005 0
19.68 0.005 0
19.76 0.005 0
19.84 0.005 0
19.92 0.005 0
20 0.005 0
20.08 0.005 0
20.16 0.005 0
20.24 0.005 0
20.32 0.005 0
20.4 0.005 0
20.48 0.005 0
20.56 0.005 0
20.64 0.005 0
20.72 0.005 0
20.8 0.005 0
20.88 0.005 0
20.96 0.005 0
21.04 0.005 0
21.12 0.005 0
21.2 0.005 0
21.28 0.005 0
21.36 0.005 0
21.44 0.005 0
21.52 0.005 0
21.6 0.005 0
21.68 0.005 0
21.76 0.005 0
21.84 0.005 0
21.92 0.005 0
22 0.005 0
22.08 0.005 0
22.16 0.005 0
22.24 0.005 0
22.32 0.005 0
22.4 0.005 0
22.48 0.005 0
22.56 0.005 0
22.64 0.005 0
22.72 0.005 0
22.8 0.005 0
22.88 0.005 0
22.96 0.005 0
23.04 0.005 0
23.12 0.005 0
23.2 0.005 0
23.28 0.005 0
23.36 0.005 0
23.44 0.005 0
23.52 0.005 0
23.6 0.005 0
23.68 0.005 0
23.76 0.005 0
23.84 0.005 0
23.92 0.005 0
24 0.005 0
24.08 0.005 0
24.16 0.005 0
24.24 0.005 0
24.32 0.005 0
24.4 0.005 0
24.48 0.005 0
24.56 0.005 0
24.64 0.005 0
24.72 0.005 0
24.8 0.005 0
24.88 0.005 0
24.96 0.005 0
25.04 0.005 0
25.12 0.005 0
25.2 0.005 0
25.28 0.005 0
25.36 0.005 0
25.44 0.005 0
25.52 0.005 0
25.6 0.005 0
25.68 0.005 0
25.76 0.005 0
25.84 0.005 0
25.92 0.005 0
26 0.005 0
26.08 0.005 0
26.16 0.005 0
26.24 0.005 0
26.32 0.005 0
26.4 0.005 0
26.48 0.005 0
26.56 0.005 0
26.64 0.005 0
26.72 0.005 0
26.8 0.005 0
26.88 0.005 0
26.96 0.005 0
27.04 0.005 0
27.12 0.005 0
27.2 0.005 0
27.28 0.005 0
27.36 0.005 0
27.44 0.005 0
27.52 0.005 0
27.6 0.005 0
27.68 0.005 0
27.76 0.005 0
27.84 0.005 0
27.92 0.005 0
28 0.005 0
28.08 0.005 0
28.16 0.005 0
28.24 0.005 0
28.32 0.005 0
28.4 0.005 0
28.48 0.005 0
28.56 0.005 0
28.64 0.005 0
28.72 0.005 0
28.8 0.005 0
28.88 0.005 0
28.96 0.005 0
29.04 0.005 0
29.12 0.005 0
29.2 0.005 0
29.28 0.005 0
29.36 0.005 0
29.44 0.005 0
29.52 0.005 0
29.6 0.005 0
29.68 0.005 0
29.76 0.005 0
29.84 0.005 0
29.92 0.005 0
30 0.005 0
30.08 0.005 0
30.16 0.005 0
30.24 0.005 0
30.32 0.005 0
30.4 0.005 0
30.48 0.005 0
30.56 0.005 0
30.64 0.005 0
30.72 0.005 0
30.8 0.005 0
30.88 0.005 0
30.96 0.005 0
31.04 0.005 0
31.12 0.005 0
31.2 0.005 0
31.28 0.005 0
31.36 0.005 0
31.44 0.005 0
31.52 0.005 0
31.6 0.005 0
31.68 0.005 0
31.76 0.005 0
31.84 0.005 0
31.92 0.005 0
0 0.01 0
0.08 0.01 0
0.16 0.01 0
0.24 0.01 0
0.32 0.01 0
0.4 0.01 0
0.48 0.01 0
0.56 0.01 0
0.64 0.01 0
0.72 0.01 0
0.8 0.01 0
0.88 0.01 0
0.96 0.01 0
1.04 0.01 0
1.12 0.01 0
1.2 0.01 0
1.28 0.01 0
1.36 0.01 0
1.44 0.01 0
1.52 0.01 0
1.6 0.01 0
1.68 0.01 0
1.76 0.01 0
1.84 0.01 0
1.92 0.01 0
2 0.01 0
2.08 0.01 0
2.16 0.01 0
2.24 0.01 0
2.32 0.01 0
2.4 0.01 0
2.48 0.01 0
2.56 0.01 0
2.64 0.01 0
2.72 0.01 0
2.8 0.01 0
2.88 0.01 0
2.96 0.01 0
3.04 0.01 0
3.12 0.01 0
3.2 0.01 0
3.28 0.01 0
3.36 0.01 0
3.44 0.01 0
3.52 0.01 0
3.6 0.01 0
3.68 0.01 0
3.76 0.01 0
3.84 0.01 0
3.92 0.01 0
4 0.01 0
4.08 0.01 0
4.16 0.01 0
4.24 0.01 0
4.32 0.01 0
4.4 0.01 0
4.48 0.01 0
4.56 0.01 0
4.64 0.01 0
4.72 0.01 0
4.8 0.01 0
4.88 0.01 0
4.96 0.01 0
5.04 0.01 0
5.12 0.01 0
[...]
POINT_DATA 80000

SCALARS p float 1
LOOKUP_TABLE default
1
57.0037
56.702
56.6608
56.6407
56.6262
56.6141
56.6032
56.5931
56.5835
56.5741
56.5651
56.5563
56.5477
56.5393
56.5311
56.5231
56.5152
56.5077
56.5006
56.4938
56.4873
56.481
56.4747
56.4684
56.4622
56.4559
56.4497
56.4436
56.4376
56.4317
56.4258
56.42
56.4141
56.4083
56.4024
56.3965
56.3905
56.3845
56.3785
56.3724
56.3662
56.3601
56.3538
56.3476
56.3413
56.3349
56.3285
56.3221
56.3156
56.3091
56.3025
56.2958
56.2892
56.2824
56.2756
56.2688
56.2619
56.255
56.248
56.241
56.2339
56.2267
56.2195
56.2123
56.205
56.1976
56.1902
56.1827
56.1752
56.1677
56.1601
56.1524
56.1447
56.1369
56.1291
56.1212
56.1133
56.1053
56.0973
56.0893
56.0812
56.073
56.0648
56.0566
56.0483
56.04
56.0317
56.0233
56.0149
56.0065
55.998
55.9895
55.981
55.9724
55.9638
55.9553
55.9466
55.938
55.9294
55.9207
55.9121
55.9034
55.8948
55.8861
55.8774
55.8688
55.8601
55.8515
55.8428
55.8342
55.8256
55.817
55.8084
55.7999
55.7914
55.7829
55.7744
55.766
55.7576
55.7492
55.7409
55.7326
55.7244
55.7162
55.708
55.6999
55.6919
55.6839
55.676
55.6681
55.6602
55.6525
55.6447
55.6371
55.6295
55.622
55.6145
55.6071
55.5997
55.5925
55.5853
55.5781
55.571
55.564
55.5571
55.5502
55.5434
55.5366
55.53
55.5233
55.5168
55.5103
55.5039
55.4975
55.4913
55.485
55.4789
55.4728
55.4667
55.4608
55.4549
55.449
55.4432
55.4375
55.4318
55.4261
55.4206
55.415
55.4096
55.4041
55.3987
55.3934
55.3881
55.3829
55.3777
55.3725
55.3674
55.3624
55.3573
55.3523
55.3474
55.3424
55.3376
55.3327
55.3279
55.3231
55.3183
55.3136
55.3089
55.3042
55.2995
55.2949
55.2903
55.2857
55.2811
55.2765
55.272
55.2675
55.263
55.2585
55.2541
55.2496
55.2452
55.2407
55.2363
55.2319
55.2276
55.2232
55.2188
55.2145
55.2101
55.2058
55.2014
55.1971
55.1928
55.1885
55.1842
55.1799
55.1756
55.1713
55.167
55.1628
55.1585
55.1542
55.15
55.1457
55.1414
55.1372
55.1329
55.1287
55.1244
55.1202
55.116
55.1117
55.1075
55.1032
55.099
55.0948
55.0905
55.0863
55.0821
55.0779
55.0736
55.0694
55.0652
55.061
55.0567
55.0525
55.0483
55.0441
55.0398
55.0356
55.0314
55.0272
55.0229
55.0187
55.0145
55.0103
55.0061
55.0018
54.9976
54.9934
54.9892
54.985
54.9807
54.9765
54.9723
54.9681
54.9639
54.9596
54.9554
54.9512
54.947
54.9428
54.9386
54.9343
54.9301
54.9259
54.9217
54.9175
54.9132
54.909
54.9048
54.9006
54.8964
54.8922
54.8879
54.8837
54.8795
54.8753
54.8711
54.8669
54.8626
54.8584
54.8542
54.85
54.8458
54.8416
54.8374
54.8331
54.8289
54.8247
54.8205
54.8163
54.8121
54.8079
54.8036
54.7994
54.7952
54.791
54.7868
54.7826
54.7784
54.7742
54.7699
54.7657
54.7615
54.7573
54.7531
54.7489
54.7447
54.7405
54.7363
54.7321
54.7278
54.7236
54.7194
54.7152
54.711
54.7068
54.7026
54.6984
54.6942
54.69
54.6858
54.6816
54.6774
54.6732
54.669
54.6648
54.6606
54.6564
54.6522
54.6479
54.6437
54.6395
54.6353
54.6311
54.6269
54.6227
54.6186
54.6144
54.6102
54.606
54.6018
54.5976
54.5934
54.5892
54.585
54.5808
54.5766
54.5724
54.5682
54.564
54.5598
54.5556
54.5514
54.5473
54.5431
54.5389
54.5347
54.5305
54.5263
54.5221
54.5179
54.5138
54.5096
54.5054
54.5012
54.497
54.4928
54.4887
54.4845
54.4803
54.4761
54.4719
54.4678
54.4636
54.4594
54.4552
54.4511
54.4469
54.4427
54.4385
54.4344
54.4302
54.426
54.4219
0.5
57.0037
57.0037
56.702
56.6608
56.6407
56.6262
56.6141
56.6032
56.5931
56.5835
56.5741
56.5651
56.5563
56.5477
56.5393
56.5311
56.5231
56.5152
56.5077
56.5006
56.4938
56.4873
56.481
56.4747
56.4684
56.4622
56.4559
56.4497
56.4436
56.4376
56.4317
56.4258
56.42
56.4141
56.4083
56.4024
56.3965
56.3905
56.3845
56.3785
56.3724
56.3662
56.3601
56.3538
56.3476
56.3413
56.3349
56.3285
56.3221
56.3156
56.3091
56.3025
56.2958
56.2892
56.2824
56.2756
56.2688
56.2619
56.255
56.248
56.241
56.2339
56.2267
56.2195
56.2123
56.205
56.1976
56.1902
56.1827
56.1752
56.1677
56.1601
56.1524
56.1447
56.1369
56.1291
56.1212
56.1133
56.1053
56.0973
56.0893
56.0812
56.073
56.0648
56.0566
56.0483
56.04
56.0317
56.0233
56.0149
56.0065
55.998
55.9895
55.981
55.9724
55.9638
55.9553
55.9466
55.938
55.9294
55.9207
55.9121
55.9034
55.8948
55.8861
55.8774
55.8688
55.8601
55.8515
55.8428
55.8342
55.8256
55.817
55.8084
55.7999
55.7914
55.7829
55.7744
55.766
55.7576
55.7492
55.7409
55.7326
55.7244
55.7162
55.708
55.6999
55.6919
55.6839
55.676
55.6681
55.6602
55.6525
55.6447
55.6371
55.6295
55.622
55.6145
55.6071
55.5997
55.5925
55.5853
55.5781
55.571
55.564
55.5571
55.5502
55.5434
55.5366
55.53
55.5233
55.5168
55.5103
55.5039
55.4975
55.4913
55.485
55.4789
55.4728
55.4667
55.4608
55.4549
55.449
55.4432
55.4375
55.4318
55.4261
55.4206
55.415
55.4096
55.4041
55.3987
55.3934
55.3881
55.3829
55.3777
55.3725
55.3674
55.3624
55.3573
55.3523
55.3474
55.3424
55.3376
55.3327
55.3279
55.3231
55.3183
55.3136
55.3089
55.3042
55.2995
55.2949
55.2903
55.2857
55.2811
55.2765
55.272
55.2675
55.263
55.2585
55.2541
55.2496
55.2452
55.2407
55.2363
55.2319
55.2276
55.2232
55.2188
55.2145
55.2101
55.2058
55.2014
55.1971
55.1928
55.1885
55.1842
55.1799
55.1756
55.1713
55.167
55.1628
55.1585
55.1542
55.15
55.1457
55.1414
55.1372
55.1329
55.1287
55.1244
55.1202
55.116
55.1117
55.1075
55.1032
55.099
55.0948
55.0905
55.0863
55.0821
55.0779
55.0736
55.0694
55.0652
55.061
55.0567
55.0525
55.0483
55.0441
55.0398
55.0356
55.0314
55.0272
55.0229
55.0187
55.0145
55.0103
55.0061
55.0018
54.9976
54.9934
54.9892
54.985
54.9807
54.9765
54.9723
54.9681
54.9639
54.9596
54.9554
54.9512
54.947
54.9428
54.9386
54.9343
54.9301
54.9259
54.9217
54.9175
54.9132
54.909
54.9048
54.9006
54.8964
54.8922
54.8879
54.8837
54.8795
54.8753
54.8711
54.8669
54.8626
54.8584
54.8542
54.85
54.8458
54.8416
54.8374
54.8331
54.8289
54.8247
54.8205
54.8163
54.8121
54.8079
54.8036
54.7994
54.7952
54.791
54.7868
54.7826
54.7784
54.7742
54.7699
54.7657
54.7615
54.7573
54.7531
54.7489
54.7447
54.7405
54.7363
54.7321
54.7278
54.7236
54.7194
54.7152
54.711
54.7068
54.7026
54.6984
54.6942
54.69
54.6858
54.6816
54.6774
54.6732
54.669
54.6648
54.6606
54.6564
54.6522
54.6479
54.6437
54.6395
54.6353
54.6311
54.6269
54.6227
54.6186
54.6144
54.6102
54.606
54.6018
54.5976
54.5934
54.5892
54.585
54.5808
54.5766
54.5724
54.5682
54.564
54.5598
54.5556
54.5514
54.5473
54.5431
54.5389
54.5347
54.5305
54.5263
54.5221
54.5179
54.5138
54.5096
54.5054
54.5012
54.497
54.4928
54.4887
54.4845
54.4803
54.4761
54.4719
54.4678
54.4636
54.4594
54.4552
54.4511
54.4469
54.4427
54.4385
54.4344
54.4302
54.426
54.4219
54.4219
56.9891
56.9891
56.7058
56.662
56.6413
56.6266
56.6144
56.6034
56.5933
56.5836
56.5742
56.5652
56.5563
56.5477
56.5393
56.5311
56.5231
56.5153
56.5078
56.5006
56.4938
56.4873
56.481
56.4747
56.4684
56.4622
56.4559
56.4497
56.4436
56.4376
56.4317
56.4258
56.42
56.4141
56.4083
56.4024
56.3965
56.3905
56.3845
56.3785
56.3724
56.3662
56.3601
56.3538
56.3476
56.3413
56.3349
56.3285
56.3221
56.3156
56.3091
56.3025
56.2958
56.2892
56.2824
56.2756
56.2688
56.2619
56.255
56.248
56.241
56.2339
56.2267
56.2195
56.2123
56.205
56.1976
56.1902
56.1828
56.1752
56.1677
56.1601
56.1524
56.1447
56.1369
56.1291
56.1212
56.1133
56.1053
56.0973
56.0893
56.0812
56.073
56.0648
56.0566
56.0483
56.04
56.0317
56.0233
56.0149
56.0065
55.998
55.9895
55.981
55.9724
55.9638
55.9553
55.9466
55.938
55.9294
55.9207
55.9121
55.9034
55.8948
55.8861
55.8774
55.8688
55.8601
55.8515
55.8428
55.8342
55.8256
55.817
55.8084
55.7999
55.7914
55.7829
55.7744
55.766
55.7576
55.7492
55.7409
55.7326
55.7244
55.7162
55.708
55.6999
55.6919
55.6839
55.676
55.6681
55.6602
55.6525
55.6447
55.6371
55.6295
55.622
55.6145
55.6071
55.5997
55.5925
55.5853
55.5781
55.571
55.564
55.5571
55.5502
55.5434
55.5366
55.53
55.5233
55.5168
55.5103
55.5039
55.4976
55.4913
55.485
55.4789
55.4728
55.4667
55.4608
55.4549
55.449
55.4432
55.4375
55.4318
55.4261
55.4206
55.415
55.4096
55.4041
55.3987
55.3934
55.3881
55.3829
55.3777
55.3725
55.3674
55.3624
55.3573
55.3523
55.3474
55.3424
55.3376
55.3327
55.3279
55.3231
55.3183
55.3136
55.3089
55.3042
55.2995
55.2949
55.2903
55.2857
55.2811
55.2765
55.272
55.2675
55.263
55.2585
55.2541
55.2496
55.2452
55.2407
55.2363
55.2319
55.2276
55.2232
55.2188
55.2145
55.2101
55.2058
55.2014
55.1971
55.1928
55.1885
55.1842
55.1799
55.1756
55.1713
55.167
55.1628
55.1585
55.1542
55.15
55.1457
55.1414
55.1372
55.1329
55.1287
55.1244
55.1202
55.116
55.1117
55.1075
55.1032
55.099
55.0948
55.0905
55.0863
55.0821
55.0779
55.0736
55.0694
55.0652
55.0609
55.0567
55.0525
55.0483
55.0441
55.0398
55.0356
55.0314
55.0272
55.0229
55.0187
55.0145
55.0103
55.0061
55.0018
54.9976
54.9934
54.9892
54.985
54.9807
54.9765
54.9723
54.9681
54.9639
54.9596
54.9554
54.9512
54.947
54.9428
54.9386
54.9343
54.9301
54.9259
54.9217
54.9175
54.9132
54.909
54.9048
54.9006
54.8964
54.8922
54.8879
54.8837
54.8795
54.8753
54.8711
54.8669
54.8626
54.8584
54.8542
54.85
54.8458
54.8416
54.8374
54.8331
54.8289
54.8247
54.8205
54.8163
54.8121
54.8079
54.8036
54.7994
54.7952
54.791
54.7868
54.7826
54.7784
54.7742
54.7699
54.7657
54.7615
54.7573
54.7531
54.7489
54.7447
54.7405
54.7363
54.7321
54.7278
54.7236
54.7194
54.7152
54.711
54.7068
54.7026
54.6984
54.6942
54.69
54.6858
54.6816
54.6774
54.6732
54.669
54.6648
54.6606
54.6564
54.6521
54.6479
54.6437
54.6395
54.6353
54.6311
54.6269
54.6227
54.6185
54.6144
54.6102
54.606
54.6018
54.5976
54.5934
54.5892
54.585
54.5808
54.5766
54.5724
54.5682
54.564
54.5598
54.5556
54.5514
54.5473
54.5431
54.5389
54.5347
54.5305
54.5263
54.5221
54.5179
54.5138
54.5096
54.5054
54.5012
54.497
54.4928
54.4887
54.4845
54.4803
54.4761
54.4719
54.4678
54.4636
54.4594
54.4552
54.4511
54.4469
54.4427
54.4385
54.4344
54.4302
54.426
54.4219
54.4219
56.9731
56.9731
56.709
56.6632
56.6419
56.627
56.6146
56.6036
56.5934
56.5837
56.5743
56.5652
56.5564
56.5478
56.5394
56.5312
56.5231
56.5153
56.5078
56.5006
56.4938
56.4873
56.481
56.4747
56.4685
56.4622
56.4559
56.4498
56.4436
56.4376
56.4317
56.4258
56.42
56.4141
56.4083
56.4024
56.3965
56.3905
56.3845
56.3785
56.3724
56.3662
56.3601
56.3538
56.3476
56.3413
56.3349
56.3285
56.3221
56.3156
56.3091
56.3025
56.2958
56.2892
56.2824
56.2756
56.2688
56.2619
56.255
56.248
56.241
56.2339
56.2267
56.2195
56.2123
56.205
56.1976
56.1902
56.1828
56.1752
56.1677
56.1601
56.1524
56.1447
56.1369
56.1291
56.1212
56.1133
56.1053
56.0973
56.0893
56.0812
56.073
56.0648
56.0566
56.0483
56.04
56.0317
56.0233
56.0149
56.0065
55.998
55.9895
55.981
55.9724
55.9638
55.9553
55.9466
55.938
55.9294
55.9207
55.9121
55.9034
55.8948
55.8861
55.8774
55.8688
55.8601
55.8515
55.8428
55.8342
55.8256
55.817
55.8084
55.7999
55.7914
55.7829
55.7744
55.766
55.7576
55.7492
55.7409
55.7326
55.7244
55.7162
55.708
55.7
55.6919
55.6839
55.676
55.6681
55.6602
55.6525
55.6448
55.6371
55.6295
55.622
55.6145
55.6071
55.5997
55.5925
55.5853
55.5781
55.571
55.564
55.5571
55.5502
55.5434
55.5366
55.53
55.5233
55.5168
55.5103
55.5039
55.4976
55.4913
55.485
55.4789
55.4728
55.4668
55.4608
55.4549
55.449
55.4432
55.4375
55.4318
55.4261
55.4206
55.415
55.4096
55.4041
55.3988
55.3934
55.3881
55.3829
55.3777
55.3725
55.3674
55.3624
55.3573
55.3523
55.3474
55.3425
55.3376
55.3327
55.3279
55.3231
55.3183
55.3136
55.3089
55.3042
55.2995
55.2949
55.2903
55.2857
55.2811
55.2765
55.272
55.2675
55.263
55.2585
55.2541
55.2496
55.2452
55.2407
55.2363
55.2319
55.2276
55.2232
55.2188
55.2145
55.2101
55.2058
55.2014
55.1971
55.1928
55.1885
55.1842
55.1799
55.1756
55.1713
55.167
55.1628
55.1585
55.1542
55.15
55.1457
55.1414
55.1372
55.1329
55.1287
55.1244
55.1202
55.116
55.1117
55.1075
55.1032
55.099
55.0948
55.0905
55.0863
55.0821
55.0779
55.0736
55.0694
55.0652
55.0609
55.0567
55.0525
55.0483
55.0441
55.0398
55.0356
55.0314
55.0272
55.0229
55.0187
55.0145
55.0103
55.0061
55.0018
54.9976
54.9934
54.9892
54.985
54.9807
54.9765
54.9723
54.9681
54.9639
54.9596
54.9554
54.9512
54.947
54.9428
54.9386
54.9343
54.9301
54.9259
54.9217
54.9175
54.9132
54.909
54.9048
54.9006
54.8964
54.8922
54.8879
54.8837
54.8795
54.8753
54.8711
54.8669
54.8626
54.8584
54.8542
54.85
54.8458
54.8416
54.8374
54.8331
54.8289
54.8247
54.8205
54.8163
54.8121
54.8079
54.8036
54.7994
54.7952
54.791
54.7868
54.7826
54.7784
54.7742
54.7699
54.7657
54.7615
54.7573
54.7531
54.7489
54.7447
54.7405
54.7363
54.7321
54.7278
54.7236
54.7194
54.7152
54.711
54.7068
54.7026
54.6984
54.6942
54.69
54.6858
54.6816
54.6774
54.6732
54.669
54.6648
54.6606
54.6564
54.6521
54.6479
54.6437
54.6395
54.6353
54.6311
54.6269
54.6227
54.6185
54.6144
54.6102
54.606
54.6018
54.5976
54.5934
54.5892
54.585
54.5808
54.5766
54.5724
54.5682
54.564
54.5598
54.5556
54.5514
54.5473
54.5431
54.5389
54.5347
54.5305
54.5263
54.5221
54.5179
54.5138
54.5096
54.5054
54.5012
54.497
54.4928
54.4887
54.4845
54.4803
54.4761
54.4719
54.4678
54.4636
54.4594
54.4552
54.4511
54.4469
54.4427
54.4385
54.4344
54.4302
54.426
54.4219
54.4219
56.9572
56.9572
56.7119
56.6644
56.6425
56.6273
56.6149
56.6038
56.5936
56.5838
56.5744
56.5653
56.5565
56.5478
56.5394
56.5312
56.5232
56.5153
56.5078
56.5006
56.4938
56.4873
56.481
56.4747
56.4685
56.4622
56.4559
56.4498
56.4437
56.4376
56.4317
56.4258
56.42
56.4141
56.4083
56.4024
56.3965
56.3905
56.3845
56.3785
56.3724
56.3662
56.3601
56.3538
56.3476
56.3413
56.3349
56.3285
56.3221
56.3156
56.3091
56.3025
56.2958
56.2892
56.2824
56.2756
56.2688
56.2619
56.255
56.248
56.241
56.2339
56.2267
56.2195
56.2123
56.205
56.1976
56.1902
56.1828
56.1752
56.1677
56.1601
56.1524
56.1447
56.1369
56.1291
56.1212
56.1133
56.1053
56.0973
56.0893
56.0812
56.073
56.0648
56.0566
56.0483
56.04
56.0317
56.0233
56.0149
56.0065
55.998
55.9895
55.981
55.9724
55.9638
55.9553
55.9466
55.938
55.9294
55.9207
55.9121
55.9034
55.8948
55.8861
55.8774
55.8688
55.8601
55.8515
55.8428
55.8342
55.8256
55.817
55.8084
55.7999
55.7914
55.7829
55.7744
55.766
55.7576
55.7492
55.7409
55.7326
55.7244
55.7162
55.7081
55.7
55.6919
55.6839
55.676
55.6681
55.6602
55.6525
55.6448
55.6371
55.6295
55.622
55.6145
55.6071
55.5997
55.5925
55.5853
55.5781
55.571
55.564
55.5571
55.5502
55.5434
55.5366
55.53
55.5233
55.5168
55.5103
55.5039
55.4976
55.4913
55.485
55.4789
55.4728
55.4668
55.4608
55.4549
55.449
55.4432
55.4375
55.4318
55.4261
55.4206
55.415
55.4096
55.4041
55.3988
55.3934
55.3881
55.3829
55.3777
55.3725
55.3674
55.3624
55.3573
55.3523
55.3474
55.3425
55.3376
55.3327
55.3279
55.3231
55.3183
55.3136
55.3089
55.3042
55.2995
55.2949
55.2903
55.2857
55.2811
55.2765
55.272
55.2675
55.263
55.2585
55.2541
55.2496
55.2452
55.2407
55.2363
55.2319
55.2276
55.2232
55.2188
55.2145
55.2101
55.2058
55.2014
55.1971
55.1928
55.1885
55.1842
55.1799
55.1756
55.1713
55.167
55.1628
55.1585
55.1542
55.15
55.1457
55.1414
55.1372
55.1329
55.1287
55.1244
55.1202
55.116
55.1117
55.1075
55.1032
55.099
55.0948
55.0905
55.0863
55.0821
55.0779
55.0736
55.0694
55.0652
55.0609
55.0567
55.0525
55.0483
55.0441
55.0398
55.0356
55.0314
55.0272
55.0229
55.0187
55.0145
55.0103
55.0061
55.0018
54.9976
54.9934
54.9892
54.985
54.9807
54.9765
54.9723
54.9681
54.9639
54.9596
54.9554
54.9512
54.947
54.9428
54.9386
54.9343
54.9301
54.9259
54.9217
54.9175
54.9132
54.909
54.9048
54.9006
54.8964
54.8922
54.8879
54.8837
54.8795
54.8753
54.8711
54.8669
54.8626
54.8584
54.8542
54.85
54.8458
54.8416
54.8374
54.8331
54.8289
54.8247
54.8205
54.8163
54.8121
54.8079
54.8036
54.7994
54.7952
54.791
54.7868
54.7826
54.7784
54.7742
54.7699
54.7657
54.7615
54.7573
54.7531
54.7489
54.7447
54.7405
54.7363
54.7321
54.7278
54.7236
54.7194
54.7152
54.711
54.7068
54.7026
54.6984
54.6942
54.69
54.6858
54.6816
54.6774
54.6732
54.669
54.6648
54.6606
54.6564
54.6521
54.6479
54.6437
54.6395
54.6353
54.6311
54.6269
54.6227
54.6185
54.6144
54.6102
54.606
54.6018
54.5976
54.5934
54.5892
54.585
54.5808
54.5766
54.5724
54.5682
54.564
54.5598
54.5556
54.5514
54.5473
54.5431
54.5389
54.5347
54.5305
54.5263
54.5221
54.5179
54.5138
54.5096
54.5054
54.5012
54.497
54.4928
54.4887
54.4845
54.4803
54.4761
54.4719
54.4678
54.4636
54.4594
54.4552
54.4511
54.4469
54.4427
54.4385
54.4344
54.4302
54.426
54.4219
54.4219
56.9421
56.9421
56.7146
56.6655
56.6431
56.6277
56.6152
56.604
56.5937
56.5839
56.5745
56.5654
56.5565
56.5479
56.5395
56.5313
56.5232
56.5154
56.5078
56.5007
56.4939
56.4873
56.481
56.4747
56.4685
56.4622
56.4559
56.4498
56.4437
56.4376
56.4317
56.4258
56.42
56.4141
56.4083
56.4024
56.3965
56.3905
56.3845
56.3785
56.3724
56.3662
56.3601
56.3538
56.3476
56.3413
56.3349
56.3285
56.3221
56.3156
56.3091
56.3025
56.2958
56.2892
56.2824
56.2756
56.2688
56.2619
56.255
56.248
56.241
56.2339
56.2267
56.2195
56.2123
56.205
56.1976
56.1902
56.1828
56.1752
56.1677
56.1601
56.1524
56.1447
56.1369
56.1291
56.1212
56.1133
56.1053
56.0973
56.0893
56.0812
56.073
56.0648
56.0566
56.0483
56.04
56.0317
56.0233
56.0149
56.0065
55.998
55.9895
55.981
55.9724
55.9638
55.9553
55.9466
55.938
55.9294
55.9207
55.9121
55.9034
55.8948
55.8861
55.8774
55.8688
55.8601
55.8515
55.8428
55.8342
55.8256
55.817
55.8084
55.7999
55.7914
55.7829
55.7744
55.766
55.7576
55.7492
55.7409
55.7326
55.7244
55.7162
55.7081
55.7
55.6919
55.6839
55.676
55.6681
55.6602
55.6525
55.6448
55.6371
55.6295
55.622
55.6145
55.6071
55.5997
55.5925
55.5853
55.5781
55.571
55.564
55.5571
55.5502
55.5434
55.5366
55.53
55.5233
55.5168
55.5103
55.5039
55.4976
55.4913
55.485
55.4789
55.4728
55.4668
55.4608
55.4549
55.449
55.4432
55.4375
55.4318
55.4261
55.4206
55.415
55.4096
55.4041
55.3988
55.3934
55.3881
55.3829
55.3777
55.3725
55.3674
55.3624
55.3573
55.3523
55.3474
55.3425
55.3376
55.3327
55.3279
55.3231
55.3183
55.3136
55.3089
55.3042
55.2995
55.2949
55.2903
55.2857
55.2811
55.2765
55.272
55.2675
55.263
55.2585
55.2541
55.2496
55.2452
55.2407
55.2363
55.2319
55.2276
55.2232
55.2188
55.2145
55.2101
55.2058
55.2014
55.1971
55.1928
55.1885
55.1842
55.1799
55.1756
55.1713
55.167
55.1628
55.1585
55.1542
55.15
55.1457
55.1414
55.1372
55.1329
55.1287
55.1244
55.1202
55.116
55.1117
55.1075
55.1032
55.099
55.0948
55.0905
55.0863
55.0821
55.0779
55.0736
55.0694
55.0652
55.0609
55.0567
55.0525
55.0483
55.0441
55.0398
55.0356
55.0314
55.0272
55.0229
55.0187
55.0145
55.0103
55.0061
55.0018
54.9976
54.9934
54.9892
54.985
54.9807
54.9765
54.9723
54.9681
54.9639
54.9596
54.9554
54.9512
54.947
54.9428
54.9386
54.9343
54.9301
54.9259
54.9217
54.9175
54.9132
54.909
54.9048
54.9006
54.8964
54.8922
54.8879
54.8837
54.8795
54.8753
54.8711
54.8669
54.8626
54.8584
54.8542
54.85
54.8458
54.8416
54.8374
54.8331
54.8289
54.8247
54.8205
54.8163
54.8121
54.8079
54.8036
54.7994
54.7952
54.791
54.7868
54.7826
54.7784
54.7742
54.7699
54.7657
54.7615
54.7573
54.7531
54.7489
54.7447
54.7405
54.7363
54.7321
54.7278
54.7236
54.7194
54.7152
54.711
54.7068
54.7026
54.6984
54.6942
54.69
54.6858
54.6816
54.6774
54.6732
54.669
54.6648
54.6606
54.6564
54.6521
54.6479
54.6437
54.6395
54.6353
54.6311
54.6269
54.6227
54.6185
54.6144
54.6102
54.606
54.6018
54.5976
54.5934
54.5892
54.585
54.5808
54.5766
54.5724
54.5682
54.564
54.5598
54.5556
54.5514
54.5473
54.5431
54.5389
54.5347
54.5305
54.5263
54.5221
54.5179
54.5138
54.5096
54.5054
54.5012
54.497
54.4928
54.4887
54.4845
54.4803
54.4761
54.4719
54.4678
54.4636
54.4594
54.4552
54.4511
54.4469
54.4427
54.4385
54.4344
54.4302
54.426
54.4219
54.4219
56.9281
56.9281
56.7172
56.6666
56.6437
56.6281
56.6154
56.6042
56.5939
56.584
56.5746
56.5655
56.5566
56.548
56.5395
56.5313
56.5232
56.5154
56.5079
56.5007
56.4939
56.4874
56.481
56.4747
56.4685
56.4622
56.456
56.4498
56.4437
56.4376
56.4317
56.4258
56.42
56.4141
56.4083
56.4024
56.3965
56.3905
56.3845
56.3785
56.3724
56.3662
56.3601
56.3538
56.3476
56.3413
56.3349
56.3285
56.3221
56.3156
56.3091
56.3025
56.2958
56.2892
56.2824
56.2756
56.2688
56.2619
56.255
56.248
56.241
56.2339
56.2267
56.2195
56.2123
56.205
56.1976
56.1902
56.1828
56.1752
56.1677
56.1601
56.1524
56.1447
56.1369
56.1291
56.1212
56.1133
56.1053
56.0973
56.0893
56.0812
56.073
56.0648
56.0566
56.0483
56.04
56.0317
56.0233
56.0149
56.0065
55.998
55.9895
55.981
55.9724
55.9638
55.9553
55.9466
55.938
55.9294
55.9207
55.9121
55.9034
55.8948
55.8861
55.8774
55.8688
55.8601
55.8515
55.8428
55.8342
55.8256
55.817
55.8084
55.7999
55.7914
55.7829
55.7744
55.766
55.7576
55.7492
55.7409
55.7326
55.7244
55.7162
55.7081
55.7
55.6919
55.6839
55.676
55.6681
55.6602
55.6525
55.6448