# vtk DataFile Version 2.0
FlowField
ASCII
DATASET STRUCTURED_GRID
DIMENSIONS 400 1 200
POINTS 80000 float
0 0 0
0.08 0 0
0.16 0 0
0.24 0 0
0.32 0 0
0.4 0 0
0.48 0 0
0.56 0 0
0.64 0 0
0.72 0 0
0.8 0 0
0.88 0 0
0.96 0 0
1.04 0 0
1.12 0 0
1.2 0 0
1.28 0 0
1.36 0 0
1.44 0 0
1.52 0 0
1.6 0 0
1.68 0 0
1.76 0 0
1.84 0 0
1.92 0 0
2 0 0
2.08 0 0
2.16 0 0
2.24 0 0
2.32 0 0
2.4 0 0
2.48 0 0
2.56 0 0
2.64 0 0
2.72 0 0
2.8 0 0
2.88 0 0
2.96 0 0
3.04 0 0
3.12 0 0
3.2 0 0
3.28 0 0
3.36 0 0
3.44 0 0
3.52 0 0
3.6 0 0
3.68 0 0
3.76 0 0
3.84 0 0
3.92 0 0
4 0 0
4.08 0 0
4.16 0 0
4.24 0 0
4.32 0 0
4.4 0 0
4.48 0 0
4.56 0 0
4.64 0 0
4.72 0 0
4.8 0 0
4.88 0 0
4.96 0 0
5.04 0 0
5.12 0 0
5.2 0 0
5.28 0 0
5.36 0 0
5.44 0 0
5.52 0 0
5.6 0 0
5.68 0 0
5.76 0 0
5.84 0 0
5.92 0 0
6 0 0
6.08 0 0
6.16 0 0
6.24 0 0
6.32 0 0
6.4 0 0
6.48 0 0
6.56 0 0
6.64 0 0
6.72 0 0
6.8 0 0
6.88 0 0
6.96 0 0
7.04 0 0
7.12 0 0
7.2 0 0
7.28 0 0
7.36 0 0
7.44 0 0
7.52 0 0
7.6 0 0
7.68 0 0
7.76 0 0
7.84 0 0
7.92 0 0
8 0 0
8.08 0 0
8.16 0 0
8.24 0 0
8.32 0 0
8.4 0 0
8.48 0 0
8.56 0 0
8.64 0 0
8.72 0 0
8.8 0 0
8.88 0 0
8.96 0 0
9.04 0 0
9.12 0 0
9.2 0 0
9.28 0 0
9.36 0 0
9.44 0 0
9.52 0 0
9.6 0 0
9.68 0 0
9.76 0 0
9.84 0 0
9.92 0 0
10 0 0
10.08 0 0
10.16 0 0
10.24 0 0
10.32 0 0
10.4 0 0
10.48 0 0
10.56 0 0
10.64 0 0
10.72 0 0
10.8 0 0
10.88 0 0
10.96 0 0
11.04 0 0
11.12 0 0
11.2 0 0
11.28 0 0
11.36 0 0
11.44 0 0
11.52 0 0
11.6 0 0
11.68 0 0
11.76 0 0
11.84 0 0
11.92 0 0
12 0 0
12.08 0 0
12.16 0 0
12.24 0 0
12.32 0 0
12.4 0 0
12.48 0 0
12.56 0 0
12.64 0 0
12.72 0 0
12.8 0 0
12.88 0 0
12.96 0 0
13.04 0 0
13.12 0 0
13.2 0 0
13.28 0 0
13.36 0 0
13.44 0 0
13.52 0 0
13.6 0 0
13.68 0 0
13.76 0 0
13.84 0 0
13.92 0 0
14 0 0
14.08 0 0
14.16 0 0
14.24 0 0
14.32 0 0
14.4 0 0
14.48 0 0
14.56 0 0
14.64 0 0
14.72 0 0
14.8 0 0
14.88 0 0
14.96 0 0
15.04 0 0
15.12 0 0
15.2 0 0
15.28 0 0
15.36 0 0
15.44 0 0
15.52 0 0
15.6 0 0
15.68 0 0
15.76 0 0
15.84 0 0
15.92 0 0
16 0 0
16.08 0 0
16.16 0 0
16.24 0 0
16.32 0 0
16.4 0 0
16.48 0 0
16.56 0 0
16.64 0 0
16.72 0 0
16.8 0 0
16.88 0 0
16.96 0 0
17.04 0 0
17.12 0 0
17.2 0 0
17.28 0 0
17.36 0 0
17.44 0 0
17.52 0 0
17.6 0 0
17.68 0 0
17.76 0 0
17.84 0 0
17.92 0 0
18 0 0
18.08 0 0
18.16 0 0
18.24 0 0
18.32 0 0
18.4 0 0
18.48 0 0
18.56 0 0
18.64 0 0
18.72 0 0
18.8 0 0
18.88 0 0
18.96 0 0
19.04 0 0
19.12 0 0
19.2 0 0
19.28 0 0
19.36 0 0
19.44 0 0
19.52 0 0
19.6 0 0
19.68 0 0
19.76 0 0
19.84 0 0
19.92 0 0
20 0 0
20.08 0 0
20.16 0 0
20.24 0 0
20.32 0 0
20.4 0 0
20.48 0 0
20.56 0 0
20.64 0 0
20.72 0 0
20.8 0 0
20.88 0 0
20.96 0 0
21.04 0 0
21.12 0 0
21.2 0 0
21.28 0 0
21.36 0 0
21.44 0 0
21.52 0 0
21.6 0 0
21.68 0 0
21.76 0 0
21.84 0 0
21.92 0 0
22 0 0
22.08 0 0
22.16 0 0
22.24 0 0
22.32 0 0
22.4 0 0
22.48 0 0
22.56 0 0
22.64 0 0
22.72 0 0
22.8 0 0
22.88 0 0
22.96 0 0
23.04 0 0
23.12 0 0
23.2 0 0
23.28 0 0
23.36 0 0
23.44 0 0
23.52 0 0
23.6 0 0
23.68 0 0
23.76 0 0
23.84 0 0
23.92 0 0
24 0 0
24.08 0 0
24.16 0 0
24.24 0 0
24.32 0 0
24.4 0 0
24.48 0 0
24.56 0 0
24.64 0 0
24.72 0 0
24.8 0 0
24.88 0 0
24.96 0 0
25.04 0 0
25.12 0 0
25.2 0 0
25.28 0 0
25.36 0 0
25.44 0 0
25.52 0 0
25.6 0 0
25.68 0 0
25.76 0 0
25.84 0 0
25.92 0 0
26 0 0
26.08 0 0
26.16 0 0
26.24 0 0
26.32 0 0
26.4 0 0
26.48 0 0
26.56 0 0
26.64 0 0
26.72 0 0
26.8 0 0
26.88 0 0
26.96 0 0
27.04 0 0
27.12 0 0
27.2 0 0
27.28 0 0
27.36 0 0
27.44 0 0
27.52 0 0
27.6 0 0
27.68 0 0
27.76 0 0
27.84 0 0
27.92 0 0
28 0 0
28.08 0 0
28.16 0 0
28.24 0 0
28.32 0 0
28.4 0 0
28.48 0 0
28.56 0 0
28.64 0 0
28.72 0 0
28.8 0 0
28.88 0 0
28.96 0 0
29.04 0 0
29.12 0 0
29.2 0 0
29.28 0 0
29.36 0 0
29.44 0 0
29.52 0 0
29.6 0 0
29.68 0 0
29.76 0 0
29.84 0 0
29.92 0 0
30 0 0
30.08 0 0
30.16 0 0
30.24 0 0
30.32 0 0
30.4 0 0
30.48 0 0
30.56 0 0
30.64 0 0
30.72 0 0
30.8 0 0
30.88 0 0
30.96 0 0
31.04 0 0
31.12 0 0
31.2 0 0
31.28 0 0
31.36 0 0
31.44 0 0
31.52 0 0
31.6 0 0
31.68 0 0
31.76 0 0
31.84 0 0
31.92 0 0
0 0.005 0
0.08 0.005 0
0.16 0.005 0
0.24 0.005 0
0.32 0.005 0
0.4 0.005 0
0.48 0.005 0
0.56 0.005 0
0.64 0.005 0
0.72 0.005 0
0.8 0.005 0
0.88 0.005 0
0.96 0.005 0
1.04 0.005 0
1.12 0.005 0
1.2 0.005 0
1.28 0.005 0
1.36 0.005 0
1.44 0.005 0
1.52 0.005 0
1.6 0.005 0
1.68 0.005 0
1.76 0.005 0
1.84 0.005 0
1.92 0.005 0
2 0.005 0
2.08 0.005 0
2.16 0.005 0
2.24 0.005 0
2.32 0.005 0
2.4 0.005 0
2.48 0.005 0
2.56 0.005 0
2.64 0.005 0
2.72 0.005 0
2.8 0.005 0
2.88 0.005 0
2.96 0.005 0
3.04 0.005 0
3.12 0.005 0
3.2 0.005 0
3.28 0.005 0
3.36 0.005 0
3.44 0.005 0
3.52 0.005 0
3.6 0.005 0
3.68 0.005 0
3.76 0.005 0
3.84 0.005 0
3.92 0.005 0
4 0.005 0
4.08 0.005 0
4.16 0.005 0
4.24 0.005 0
4.32 0.005 0
4.4 0.005 0
4.48 0.005 0
4.56 0.005 0
4.64 0.005 0
4.72 0.005 0
4.8 0.005 0
4.88 0.005 0
4.96 0.005 0
5.04 0.005 0
5.12 0.005 0
5.2 0.005 0
5.28 0.005 0
5.36 0.005 0
5.44 0.005 0
5.52 0.005 0
5.6 0.005 0
5.68 0.005 0
5.76 0.005 0
5.84 0.005 0
5.92 0.005 0
6 0.005 0
6.08 0.005 0
6.16 0.005 0
6.24 0.005 0
6.32 0.005 0
6.4 0.005 0
6.48 0.005 0
6.56 0.005 0
6.64 0.005 0
6.72 0.005 0
6.8 0.005 0
6.88 0.005 0
6.96 0.005 0
7.04 0.005 0
7.12 0.005 0
7.2 0.005 0
7.28 0.005 0
7.36 0.005 0
7.44 0.005 0
7.52 0.005 0
7.6 0.005 0
7.68 0.005 0
7.76 0.005 0
7.84 0.005 0
7.92 0.005 0
8 0.005 0
8.08 0.005 0
8.16 0.005 0
8.24 0.005 0
8.32 0.005 0
8.4 0.005 0
8.48 0.005 0
8.56 0.005 0
8.64 0.005 0
8.72 0.005 0
8.8 0.005 0
8.88 0.005 0
8.96 0.005 0
9.04 0.005 0
9.12 0.005 0
9.2 0.005 0
9.28 0.005 0
9.36 0.005 0
9.44 0.005 0
9.52 0.005 0
9.6 0.005 0
9.68 0.005 0
9.76 0.005 0
9.84 0.005 0
9.92 0.005 0
10 0.005 0
10.08 0.005 0
10.16 0.005 0
10.24 0.005 0
10.32 0.005 0
10.4 0.005 0
10.48 0.005 0
10.56 0.005 0
10.64 0.005 0
10.72 0.005 0
10.8 0.005 0
10.88 0.005 0
10.96 0.005 0
11.04 0.005 0
11.12 0.005 0
11.2 0.005 0
11.28 0.005 0
11.36 0.005 0
11.44 0.005 0
11.52 0.005 0
11.6 0.005 0
11.68 0.005 0
11.76 0.005 0
11.84 0.005 0
11.92 0.005 0
12 0.005 0
12.08 0.005 0
12.16 0.005 0
12.24 0.005 0
12.32 0.005 0
12.4 0.005 0
12.48 0.005 0
12.56 0.005 0
12.64 0.005 0
12.72 0.005 0
12.8 0.005 0
12.88 0.005 0
12.96 0.005 0
13.04 0.005 0
13.12 0.005 0
13.2 0.005 0
13.28 0.005 0
13.36 0.005 0
13.44 0.005 0
13.52 0.005 0
13.6 0.005 0
13.68 0.005 0
13.76 0.005 0
13.84 0.005 0
13.92 0.005 0
14 0.005 0
14.08 0.005 0
14.16 0.005 0
14.24 0.005 0
14.32 0.005 0
14.4 0.005 0
14.48 0.005 0
14.56 0.005 0
14.64 0.005 0
14.72 0.005 0
14.8 0.005 0
14.88 0.005 0
14.96 0.005 0
15.04 0.005 0
15.12 0.005 0
15.2 0.005 0
15.28 0.005 0
15.36 0.005 0
15.44 0.005 0
15.52 0.005 0
15.6 0.005 0
15.68 0.005 0
15.76 0.005 0
15.84 0.005 0
15.92 0.005 0
16 0.005 0
16.08 0.005 0
16.16 0.005 0
16.24 0.005 0
16.32 0.005 0
16.4 0.005 0
16.48 0.005 0
16.56 0.005 0
16.64 0.005 0
16.72 0.005 0
16.8 0.005 0
16.88 0.005 0
16.96 0.005 0
17.04 0.005 0
17.12 0.005 0
17.2 0.005 0
17.28 0.005 0
17.36 0.005 0
17.44 0.005 0
17.52 0.005 0
17.6 0.005 0
17.68 0.005 0
17.76 0.005 0
17.84 0.005 0
17.92 0.005 0
18 0.005 0
18.08 0.005 0
18.16 0.005 0
18.24 0.005 0
18.32 0.005 0
18.4 0.005 0
18.48 0.005 0
18.56 0.005 0
18.64 0.005 0
18.72 0.005 0
18.8 0.005 0
18.88 0.005 0
18.96 0.005 0
19.04 0.005 0
19.12 0.005 0
19.2 0.005 0
19.28 0.005 0
19.36 0.005 0
19.44 0.005 0
19.52 0.005 0
19.6 0.005 0
19.68 0.005 0
19.76 0.005 0
19.84 0.005 0
19.92 0.005 0
20 0.005 0
20.08 0.005 0
20.16 0.005 0
20.24 0.005 0
20.32 0.005 0
20.4 0.005 0
20.48 0.005 0
20.56 0.005 0
20.64 0.005 0
20.72 0.005 0
20.8 0.005 0
20.88 0.005 0
20.96 0.005 0
21.04 0.005 0
21.12 0.005 0
21.2 0.005 0
21.28 0.005 0
21.36 0.005 0
21.44 0.005 0
21.52 0.005 0
21.6 0.005 0
21.68 0.005 0
21.76 0.005 0
21.84 0.005 0
21.92 0.005 0
22 0.005 0
22.08 0.005 0
22.16 0.005 0
22.24 0.005 0
22.32 0.005 0
22.4 0.005 0
22.48 0.005 0
22.56 0.005 0
22.64 0.005 0
22.72 0.005 0
22.8 0.005 0
22.88 0.005 0
22.96 0.005 0
23.04 0.005 0
23.12 0.005 0
23.2 0.005 0
23.28 0.005 0
23.36 0.005 0
23.44 0.005 0
23.52 0.005 0
23.6 0.005 0
23.68 0.005 0
23.76 0.005 0
23.84 0.005 0
23.92 0.005 0
24 0.005 0
24.08 0.005 0
24.16 0.005 0
24.24 0.005 0
24.32 0.005 0
24.4 0.005 0
24.48 0.005 0
24.56 0.005 0
24.64 0.005 0
24.72 0.005 0
24.8 0.005 0
24.88 0.005 0
24.96 0.005 0
25.04 0.005 0
25.12 0.005 0
25.2 0.005 0
25.28 0.005 0
25.36 0.005 0
25.44 0.005 0
25.52 0.005 0
25.6 0.005 0
25.68 0.005 0
25.76 0.005 0
25.84 0.005 0
25.92 0.005 0
26 0.005 0
26.08 0.005 0
26.16 0.005 0
26.24 0.005 0
26.32 0.005 0
26.4 0.005 0
26.48 0.005 0
26.56 0.005 0
26.64 0.005 0
26.72 0.005 0
26.8 0.005 0
26.88 0.005 0
26.96 0.005 0
27.04 0.005 0
27.12 0.005 0
27.2 0.005 0
27.28 0.005 0
27.36 0.005 0
27.44 0.005 0
27.52 0.005 0
27.6 0.005 0
27.68 0.005 0
27.76 0.005 0
27.84 0.005 0
27.92 0.005 0
28 0.005 0
28.08 0.005 0
28.16 0.005 0
28.24 0.005 0
28.32 0.005 0
28.4 0.005 0
28.48 0.005 0
28.56 0.005 0
28.64 0.005 0
28.72 0.005 0
28.8 0.005 0
28.88 0.005 0
28.96 0.005 0
29.04 0.005 0
29.12 0.005 0
29.2 0.005 0
29.28 0.005 0
29.36 0.005 0
29.44 0.005 0
29.52 0.005 0
29.6 0.005 0
29.68 0.005 0
29.76 0.005 0
29.84 0.005 0
29.92 0.005 0
30 0.005 0
30.08 0.005 0
30.16 0.005 0
30.24 0.005 0
30.32 0.005 0
30.4 0.005 0
30.48 0.005 0
30.56 0.005 0
30.64 0.005 0
30.72 0.005 0
30.8 0.005 0
30.88 0.005 0
30.96 0.005 0
31.04 0.005 0
31.12 0.005 0
31.2 0.005 0
31.28 0.005 0
31.36 0.005 0
31.44 0.005 0
31.52 0.005 0
31.6 0.005 0
31.68 0.005 0
31.76 0.005 0
31.84 0.005 0
31.92 0.005 0
0 0.01 0
0.08 0.01 0
0.16 0.01 0
0.24 0.01 0
0.32 0.01 0
0.4 0.01 0
0.48 0.01 0
0.56 0.01 0
0.64 0.01 0
0.72 0.01 0
0.8 0.01 0
0.88 0.01 0
0.96 0.01 0
1.04 0.01 0
1.12 0.01 0
1.2 0.01 0
1.28 0.01 0
1.36 0.01 0
1.44 0.01 0
1.52 0.01 0
1.6 0.01 0
1.68 0.01 0
1.76 0.01 0
1.84 0.01 0
1.92 0.01 0
2 0.01 0
2.08 0.01 0
2.16 0.01 0
2.24 0.01 0
2.32 0.01 0
2.4 0.01 0
2.48 0.01 0
2.56 0.01 0
2.64 0.01 0
2.72 0.01 0
2.8 0.01 0
2.88 0.01 0
2.96 0.01 0
3.04 0.01 0
3.12 0.01 0
3.2 0.01 0
3.28 0.01 0
3.36 0.01 0
3.44 0.01 0
3.52 0.01 0
3.6 0.01 0
3.68 0.01 0
3.76 0.01 0
3.84 0.01 0
3.92 0.01 0
4 0.01 0
4.08 0.01 0
4.16 0.01 0
4.24 0.01 0
4.32 0.01 0
4.4 0.01 0
4.48 0.01 0
4.56 0.01 0
4.64 0.01 0
4.72 0.01 0
4.8 0.01 0
4.88 0.01 0
4.96 0.01 0
5.04 0.01 0
5.12 0.01 0
[...]
POINT_DATA 80000

SCALARS v float 1
LOOKUP_TABLE default
0
0
0
0
0
0
0
0
0
0
0
0
0
0
0
0
0
0
0
0
0
0
0
0
0
0
0
0
0
0
0
0
0
0
0
0
0
0
0
0
0
0
0
0
0
0
0
0
0
0
0
0
0
0
0
0
0
0
0
0
0
0
0
0
0
0
0
0
0
0
0
0
0
0
0
0
0
0
0
0
0
0
0
0
0
0
0
0
0
0
0
0
0
0
0
0
0
0
0
0
0
0
0
0
0
0
0
0
0
0
0
0
0
0
0
0
0
0
0
0
0
0
0
0
0
0
0
0
0
0
0
0
0
0
0
0
0
0
0
0
0
0
0
0
0
0
0
0
0
0
0
0
0
0
0
0
0
0
0
0
0
0
0
0
0
0
0
0
0
0
0
0
0
0
0
0
0
0
0
0
0
0
0
0
0
0
0
0
0
0
0
0
0
0
0
0
0
0
0
0
0
0
0
0
0
0
0
0
0
0
0
0
0
0
0
0
0
0
0
0
0
0
0
0
0
0
0
0
0
0
0
0
0
0
0
0
0
0
0
0
0
0
0
0
0
0
0
0
0
0
0
0
0
0
0
0
0
0
0
0
0
0
0
0
0
0
0
0
0
0
0
0
0
0
0
0
0
0
0
0
0
0
0
0
0
0
0
0
0
0
0
0
0
0
0
0
0
0
0
0
0
0
0
0
0
0
0
0
0
0
0
0
0
0
0
0
0
0
0
0
0
0
0
0
0
0
0
0
0
0
0
0
0
0
0
0
0
0
0
0
0
0
0
0
0
0
0
0
0
0
0
0
0
0
0
0
0
0
0
0
0
0
0
0
0
0
0
0
0
0
0
0
0
0
0
0
0
0
0
0
0
0
0
0
0
0
0
0
0
0
0
0
0
0
0
0
0
0
0
0
-0.0542715
0.0542715
0.00396257
0.000998808
0.000492742
0.000303179
0.000207803
0.000152175
0.000116734
9.27772e-05
7.5863e-05
6.35005e-05
5.41986e-05
4.70196e-05
4.13494e-05
3.67754e-05
3.30176e-05
2.98844e-05
2.7238e-05
2.497e-05
2.29946e-05
2.12524e-05
1.97101e-05
1.83469e-05
1.71356e-05
1.6037e-05
1.50131e-05
1.40469e-05
1.31473e-05
1.23311e-05
1.15961e-05
1.09068e-05
1.0207e-05
9.45115e-06
8.63184e-06
7.78519e-06
6.97014e-06
6.2366e-06
5.60248e-06
5.05191e-06
4.55238e-06
4.078e-06
3.62472e-06
3.21029e-06
2.86169e-06
2.59847e-06
2.42135e-06
2.31068e-06
2.23378e-06
2.15635e-06
2.05249e-06
1.91016e-06
1.73123e-06
1.52776e-06
1.31668e-06
1.11474e-06
9.3498e-07
7.85109e-07
6.675e-07
5.80298e-07
5.18989e-07
4.77938e-07
4.51571e-07
4.35108e-07
4.24863e-07
4.18251e-07
4.13611e-07
4.09967e-07
4.06801e-07
4.03871e-07
4.0108e-07
3.98398e-07
3.95818e-07
3.93336e-07
3.90943e-07
3.88629e-07
3.86381e-07
3.84184e-07
3.82028e-07
3.79904e-07
3.77804e-07
3.75724e-07
3.7366e-07
3.7161e-07
3.69574e-07
3.6755e-07
3.6554e-07
3.63542e-07
3.61558e-07
3.59587e-07
3.57629e-07
3.55686e-07
3.53758e-07
3.51845e-07
3.49946e-07
3.48064e-07
3.46197e-07
3.44347e-07
3.42513e-07
3.40697e-07
3.38898e-07
3.37116e-07
3.35353e-07
3.33608e-07
3.31882e-07
3.30175e-07
3.28487e-07
3.26819e-07
3.2517e-07
3.23541e-07
3.21932e-07
3.20344e-07
3.18776e-07
3.17228e-07
3.157e-07
3.14194e-07
3.12707e-07
3.11242e-07
3.09797e-07
3.08372e-07
3.06968e-07
3.05585e-07
3.04222e-07
3.02879e-07
3.01555e-07
3.00252e-07
2.98969e-07
2.97705e-07
2.9646e-07
2.95235e-07
2.94028e-07
2.9284e-07
2.9167e-07
2.90518e-07
2.89383e-07
2.88266e-07
2.87166e-07
2.86083e-07
2.85016e-07
2.83965e-07
2.82929e-07
2.81909e-07
2.80904e-07
2.79912e-07
2.78935e-07
2.77972e-07
2.77021e-07
2.76083e-07
2.75158e-07
2.74244e-07
2.73341e-07
2.7245e-07
2.71569e-07
2.70698e-07
2.69837e-07
2.68985e-07
2.68141e-07
2.67306e-07
2.66479e-07
2.65659e-07
2.64846e-07
2.6404e-07
2.63239e-07
2.62445e-07
2.61655e-07
2.60871e-07
2.6009e-07
2.59314e-07
2.58542e-07
2.57773e-07
2.57007e-07
2.56243e-07
2.55481e-07
2.54721e-07
2.53963e-07
2.53206e-07
2.5245e-07
2.51694e-07
2.50938e-07
2.50182e-07
2.49426e-07
2.48669e-07
2.47911e-07
2.47152e-07
2.46391e-07
2.45629e-07
2.44865e-07
2.44098e-07
2.4333e-07
2.42558e-07
2.41784e-07
2.41007e-07
2.40227e-07
2.39444e-07
2.38657e-07
2.37867e-07
2.37073e-07
2.36275e-07
2.35474e-07
2.34668e-07
2.33858e-07
2.33044e-07
2.32226e-07
2.31403e-07
2.30576e-07
2.29744e-07
2.28908e-07
2.28067e-07
2.27221e-07
2.26371e-07
2.25516e-07
2.24657e-07
2.23792e-07
2.22923e-07
2.2205e-07
2.21171e-07
2.20288e-07
2.194e-07
2.18507e-07
2.17609e-07
2.16707e-07
2.158e-07
2.14889e-07
2.13973e-07
2.13052e-07
2.12127e-07
2.11198e-07
2.10264e-07
2.09326e-07
2.08383e-07
2.07436e-07
2.06485e-07
2.05529e-07
2.0457e-07
2.03607e-07
2.02639e-07
2.01668e-07
2.00692e-07
1.99713e-07
1.9873e-07
1.97744e-07
1.96754e-07
1.9576e-07
1.94763e-07
1.93762e-07
1.92758e-07
1.91751e-07
1.9074e-07
1.89726e-07
1.8871e-07
1.8769e-07
1.86667e-07
1.85641e-07
1.84613e-07
1.83581e-07
1.82547e-07
1.8151e-07
1.80471e-07
1.79429e-07
1.78385e-07
1.77338e-07
1.76289e-07
1.75237e-07
1.74183e-07
1.73127e-07
1.72069e-07
1.71009e-07
1.69947e-07
1.68882e-07
1.67816e-07
1.66748e-07
1.65678e-07
1.64607e-07
1.63533e-07
1.62458e-07
1.61381e-07
1.60303e-07
1.59223e-07
1.58141e-07
1.57058e-07
1.55974e-07
1.54888e-07
1.53801e-07
1.52713e-07
1.51623e-07
1.50532e-07
1.4944e-07
1.48347e-07
1.47252e-07
1.46157e-07
1.4506e-07
1.43963e-07
1.42864e-07
1.41765e-07
1.40664e-07
1.39563e-07
1.38461e-07
1.37358e-07
1.36254e-07
1.3515e-07
1.34045e-07
1.32939e-07
1.31832e-07
1.30725e-07
1.29617e-07
1.28508e-07
1.27399e-07
1.26289e-07
1.25179e-07
1.24068e-07
1.22957e-07
1.21846e-07
1.20734e-07
1.19621e-07
1.18508e-07
1.17395e-07
1.16282e-07
1.15168e-07
1.14054e-07
1.12939e-07
1.11825e-07
1.1071e-07
1.09595e-07
1.0848e-07
1.07364e-07
1.06249e-07
1.05133e-07
1.04017e-07
1.02901e-07
1.01786e-07
1.0067e-07
9.95536e-08
9.84376e-08
9.73216e-08
9.62056e-08
9.50898e-08
9.39739e-08
9.28582e-08
9.17425e-08
9.0627e-08
8.95117e-08
8.83964e-08
8.72814e-08
8.61665e-08
8.5052e-08
8.39373e-08
8.28237e-08
8.17088e-08
8.0597e-08
7.94804e-08
7.83733e-08
7.72505e-08
7.61551e-08
7.50157e-08
7.39474e-08
7.27699e-08
7.17578e-08
7.05052e-08
6.95945e-08
6.82146e-08
6.74627e-08
6.58962e-08
6.53607e-08
6.35563e-08
6.32786e-08
6.12083e-08
6.12012e-08
5.8869e-08
5.91118e-08
5.65532e-08
5.70021e-08
5.42596e-08
5.48881e-08
5.19566e-08
5.28152e-08
4.95913e-08
5.08379e-08
4.71132e-08
4.90008e-08
4.4481e-08
4.73366e-08
4.16735e-08
4.5831e-08
3.8735e-08
4.43736e-08
3.57995e-08
4.27187e-08
3.31424e-08
4.03165e-08
3.14046e-08
3.58997e-08
3.2042e-08
2.67562e-08
3.87976e-08
6.21947e-09
6.87048e-08
-4.40391e-08
2.88164e-07
2.64555e-08
2.64555e-08
-0.0952164
0.0952164
0.0129762
0.0038552
0.0019349
0.0011968
0.000822343
0.000602918
0.000462671
0.000367645
0.00030043
0.000251238
0.00021419
0.000185579
0.000162976
0.000144743
0.000129769
0.000117288
0.000106748
9.77135e-05
8.98481e-05
8.29194e-05
7.67926e-05
7.13752e-05
6.65514e-05
6.21667e-05
5.80811e-05
5.42362e-05
5.06644e-05
4.74176e-05
4.44697e-05
4.1675e-05
3.88243e-05
3.57609e-05
3.2477e-05
2.91208e-05
2.59142e-05
2.30349e-05
2.05393e-05
1.83631e-05
1.63885e-05
1.45275e-05
1.27728e-05
1.11915e-05
9.87686e-06
8.88854e-06
8.2152e-06
7.77368e-06
7.43902e-06
7.08675e-06
6.62806e-06
6.02689e-06
5.29782e-06
4.49068e-06
3.67027e-06
2.89812e-06
2.22027e-06
1.66217e-06
1.22947e-06
9.12663e-07
6.93125e-07
5.48781e-07
4.58383e-07
4.04023e-07
3.72091e-07
3.53149e-07
3.41196e-07
3.32751e-07
3.25989e-07
3.20067e-07
3.14655e-07
3.09651e-07
3.05029e-07
3.00771e-07
2.96842e-07
2.93197e-07
2.89783e-07
2.86547e-07
2.83446e-07
2.80442e-07
2.77508e-07
2.74625e-07
2.7178e-07
2.68964e-07
2.66171e-07
2.63399e-07
2.60646e-07
2.5791e-07
2.55191e-07
2.5249e-07
2.49805e-07
2.47137e-07
2.44486e-07
2.41852e-07
2.39236e-07
2.36637e-07
2.34055e-07
2.31492e-07
2.28947e-07
2.2642e-07
2.23913e-07
2.21426e-07
2.18959e-07
2.16512e-07
2.14087e-07
2.11683e-07
2.09301e-07
2.06941e-07
2.04603e-07
2.02289e-07
1.99997e-07
1.9773e-07
1.95486e-07
1.93265e-07
1.91069e-07
1.88897e-07
1.8675e-07
1.84626e-07
1.82527e-07
1.80453e-07
1.78403e-07
1.76377e-07
1.74375e-07
1.72398e-07
1.70445e-07
1.68515e-07
1.6661e-07
1.64727e-07
1.62869e-07
1.61033e-07
1.5922e-07
1.5743e-07
1.55662e-07
1.53917e-07
1.52192e-07
1.5049e-07
1.48808e-07
1.47147e-07
1.45506e-07
1.43884e-07
1.42283e-07
1.407e-07
1.39136e-07
1.3759e-07
1.36062e-07
1.3455e-07
1.33056e-07
1.31578e-07
1.30115e-07
1.28668e-07
1.27236e-07
1.25818e-07
1.24413e-07
1.23022e-07
1.21643e-07
1.20277e-07
1.18923e-07
1.17579e-07
1.16247e-07
1.14924e-07
1.13611e-07
1.12307e-07
1.11012e-07
1.09725e-07
1.08446e-07
1.07174e-07
1.05908e-07
1.04649e-07
1.03395e-07
1.02146e-07
1.00903e-07
9.96634e-08
9.8428e-08
9.71961e-08
9.59672e-08
9.47409e-08
9.35169e-08
9.22947e-08
9.10739e-08
8.98542e-08
8.86352e-08
8.74167e-08
8.61981e-08
8.49792e-08
8.37597e-08
8.25393e-08
8.13177e-08
8.00945e-08
7.88696e-08
7.76426e-08
7.64133e-08
7.51815e-08
7.39469e-08
7.27093e-08
7.14686e-08
7.02245e-08
6.89768e-08
6.77253e-08
6.647e-08
6.52106e-08
6.39469e-08
6.2679e-08
6.14066e-08
6.01296e-08
5.88479e-08
5.75614e-08
5.627e-08
5.49737e-08
5.36724e-08
5.23659e-08
5.10543e-08
4.97376e-08
4.84155e-08
4.70883e-08
4.57556e-08
4.44177e-08
4.30744e-08
4.17258e-08
4.03719e-08
3.90125e-08
3.76478e-08
3.62778e-08
3.49025e-08
3.35218e-08
3.21359e-08
3.07448e-08
2.93484e-08
2.79468e-08
2.65401e-08
2.51283e-08
2.37114e-08
2.22896e-08
2.08627e-08
1.9431e-08
1.79944e-08
1.65531e-08
1.5107e-08
1.36563e-08
1.22009e-08
1.0741e-08
9.27665e-09
7.80789e-09
6.33477e-09
4.85739e-09
3.37579e-09
1.89008e-09
4.00277e-10
-1.09349e-09
-2.59123e-09
-4.09279e-09
-5.59815e-09
-7.10721e-09
-8.61994e-09
-1.01362e-08
-1.16561e-08
-1.31793e-08
-1.47059e-08
-1.62358e-08
-1.7769e-08
-1.93053e-08
-2.08448e-08
-2.23873e-08
-2.39327e-08
-2.54811e-08
-2.70323e-08
-2.85863e-08
-3.0143e-08
-3.17024e-08
-3.32644e-08
-3.48289e-08
-3.6396e-08
-3.79654e-08
-3.95372e-08
-4.11113e-08
-4.26877e-08
-4.42662e-08
-4.5847e-08
-4.74298e-08
-4.90147e-08
-5.06015e-08
-5.21903e-08
-5.3781e-08
-5.53736e-08
-5.6968e-08
-5.85641e-08
-6.01619e-08
-6.17614e-08
-6.33625e-08
-6.49652e-08
-6.65694e-08
-6.81751e-08
-6.97822e-08
-7.13908e-08
-7.30008e-08
-7.4612e-08
-7.62246e-08
-7.78385e-08
-7.94535e-08
-8.10697e-08
-8.26871e-08
-8.43056e-08
-8.59252e-08
-8.75458e-08
-8.91674e-08
-9.07901e-08
-9.24136e-08
-9.40381e-08
-9.56634e-08
-9.72897e-08
-9.89167e-08
-1.00545e-07
-1.02173e-07
-1.03803e-07
-1.05433e-07
-1.07063e-07
-1.08695e-07
-1.10327e-07
-1.11959e-07
-1.13593e-07
-1.15226e-07
-1.16861e-07
-1.18495e-07
-1.20131e-07
-1.21766e-07
-1.23403e-07
-1.25039e-07
-1.26676e-07
-1.28313e-07
-1.29951e-07
-1.31589e-07
-1.33227e-07
-1.34866e-07
-1.36505e-07
-1.38144e-07
-1.39783e-07
-1.41422e-07
-1.43062e-07
-1.44702e-07
-1.46341e-07
-1.47981e-07
-1.49622e-07
-1.51262e-07
-1.52902e-07
-1.54542e-07
-1.56182e-07
-1.57823e-07
-1.59462e-07
-1.61106e-07
-1.62739e-07
-1.64391e-07
-1.6601e-07
-1.67687e-07
-1.69266e-07
-1.71005e-07
-1.72487e-07
-1.74369e-07
-1.75647e-07
-1.77808e-07
-1.78715e-07
-1.81352e-07
-1.8167e-07
-1.85007e-07
-1.84518e-07
-1.88751e-07
-1.87297e-07
-1.92534e-07
-1.90065e-07
-1.96293e-07
-1.92884e-07
-1.99973e-07
-1.95789e-07
-2.03575e-07
-1.98725e-07
-2.07213e-07
-2.01523e-07
-2.1109e-07
-2.03973e-07
-2.15401e-07
-2.05907e-07
-2.20298e-07
-2.07206e-07
-2.25863e-07
-2.07917e-07
-2.31944e-07
-2.08441e-07
-2.38054e-07
-2.09689e-07
-2.43182e-07
-2.13702e-07
-2.44977e-07
-2.25187e-07
-2.38097e-07
-2.54176e-07
-2.08899e-07
-3.24974e-07
-9.51647e-08
-5.02227e-07
7.02493e-07
-2.40796e-07
-2.40796e-07
-0.125294
0.125294
0.0249365
0.00835868
0.00427868
0.00266221
0.00183444
0.00134706
0.00103459
0.000822408
0.000672082
0.000561931
0.000478903
0.000414748
0.000364048
0.00032315
0.00028957
0.000261589
0.000237956
0.000217702
0.000200074
0.000184558
0.000170848
0.000158721
0.000147906
0.000138063
0.000128895
0.000120284
0.000112295
0.00010502
9.83748e-05
9.20314e-05
8.55456e-05
7.86071e-05
7.12276e-05
6.37423e-05
5.66243e-05
5.02398e-05
4.46945e-05
3.98462e-05
3.5451e-05
3.1335e-05
2.7492e-05
2.40635e-05
2.12335e-05
1.91066e-05
1.76373e-05
1.66344e-05
1.58292e-05
1.49639e-05
1.38624e-05
1.24624e-05
1.08064e-05
9.00728e-06
7.20481e-06
5.52778e-06
4.06959e-06
2.87895e-06
1.96281e-06
1.29689e-06
8.38785e-07
5.39961e-07
3.54555e-07
2.44392e-07
1.80749e-07
1.43871e-07
1.21307e-07
1.05893e-07
9.39094e-08
8.36566e-08
7.44805e-08
6.61832e-08
5.87118e-08
5.20223e-08
4.60388e-08
4.06573e-08
3.57618e-08
3.12409e-08
2.69973e-08
2.29534e-08
1.90503e-08
1.52459e-08
1.15114e-08
7.82801e-09
4.18353e-09
5.70656e-10
-3.01534e-09
-6.57718e-09
-1.01168e-08
-1.36354e-08
-1.7134e-08
-2.06132e-08
-2.40737e-08
-2.75157e-08
-3.09395e-08
-3.43453e-08
-3.7733e-08
-4.11024e-08
-4.44533e-08
-4.77852e-08
-5.10977e-08
-5.43903e-08
-5.76624e-08
-6.09134e-08
-6.41428e-08
-6.73498e-08
-7.0534e-08
-7.36949e-08
-7.68319e-08
-7.99444e-08
-8.30322e-08
-8.60948e-08
-8.91318e-08
-9.21429e-08
-9.5128e-08
-9.80867e-08
-1.01019e-07
-1.03924e-07
-1.06803e-07
-1.09655e-07
-1.1248e-07
-1.15279e-07
-1.1805e-07
-1.20795e-07
-1.23513e-07
-1.26204e-07
-1.28869e-07
-1.31508e-07
-1.3412e-07
-1.36707e-07
-1.39268e-07
-1.41804e-07
-1.44314e-07
-1.468e-07
-1.49261e-07
-1.51698e-07
-1.54111e-07
-1.56501e-07
-1.58867e-07
-1.61211e-07
-1.63533e-07
-1.65832e-07
-1.6811e-07
-1.70367e-07
-1.72604e-07
-1.74821e-07
-1.77018e-07
-1.79196e-07
-1.81355e-07
-1.83496e-07
-1.8562e-07
-1.87727e-07
-1.89817e-07
-1.91892e-07
-1.93951e-07
-1.95995e-07
-1.98025e-07
-2.00041e-07
-2.02044e-07
-2.04034e-07
-2.06013e-07
-2.07979e-07
-2.09935e-07
-2.1188e-07
-2.13816e-07
-2.15742e-07
-2.17659e-07
-2.19568e-07
-2.21469e-07
-2.23362e-07
-2.25249e-07
-2.2713e-07
-2.29005e-07
-2.30874e-07
-2.32739e-07
-2.34599e-07
-2.36456e-07
-2.38309e-07
-2.40159e-07
-2.42006e-07
-2.43852e-07
-2.45695e-07
-2.47537e-07
-2.49379e-07
-2.51219e-07
-2.53059e-07
-2.549e-07
-2.56741e-07
-2.58582e-07
-2.60425e-07
-2.62269e-07
-2.64114e-07
-2.65962e-07
-2.67812e-07
-2.69664e-07
-2.71519e-07
-2.73377e-07
-2.75238e-07
-2.77102e-07
-2.7897e-07
-2.80842e-07
-2.82718e-07
-2.84598e-07
-2.86482e-07
-2.8837e-07
-2.90263e-07
-2.92161e-07
-2.94063e-07
-2.95971e-07
-2.97883e-07
-2.99801e-07
-3.01723e-07
-3.03651e-07
-3.05584e-07
-3.07523e-07
-3.09467e-07
-3.11416e-07
-3.13371e-07
-3.15332e-07
-3.17298e-07
-3.19269e-07
-3.21246e-07
-3.23229e-07
-3.25217e-07
-3.27211e-07
-3.29211e-07
-3.31216e-07
-3.33227e-07
-3.35243e-07
-3.37265e-07
-3.39292e-07
-3.41324e-07
-3.43362e-07
-3.45406e-07
-3.47455e-07
-3.49509e-07
-3.51568e-07
-3.53632e-07
-3.55702e-07
-3.57776e-07
-3.59856e-07
-3.6194e-07
-3.64029e-07
-3.66124e-07
-3.68223e-07
-3.70326e-07
-3.72434e-07
-3.74547e-07
-3.76664e-07
-3.78786e-07
-3.80912e-07
-3.83043e-07
-3.85177e-07
-3.87316e-07
-3.89459e-07
-3.91605e-07
-3.93756e-07
-3.95911e-07
-3.98069e-07
-4.00232e-07
-4.02398e-07
-4.04567e-07
-4.0674e-07
-4.08917e-07
-4.11097e-07
-4.1328e-07
-4.15467e-07
-4.17657e-07
-4.1985e-07
-4.22046e-07
-4.24245e-07
-4.26447e-07
-4.28652e-07
-4.3086e-07
-4.33071e-07
-4.35284e-07
-4.37501e-07
-4.39719e-07
-4.41941e-07
-4.44165e-07
-4.46391e-07
-4.4862e-07
-4.50851e-07
-4.53085e-07
-4.55321e-07
-4.57559e-07
-4.59799e-07
-4.62041e-07
-4.64285e-07
-4.66532e-07
-4.6878e-07
-4.71031e-07
-4.73283e-07
-4.75537e-07
-4.77793e-07
-4.80051e-07
-4.8231e-07
-4.84571e-07
-4.86834e-07
-4.89098e-07
-4.91364e-07
-4.93632e-07
-4.95901e-07
-4.98171e-07
-5.00443e-07
-5.02717e-07
-5.04991e-07
-5.07267e-07
-5.09545e-07
-5.11823e-07
-5.14103e-07
-5.16384e-07
-5.18666e-07
-5.2095e-07
-5.23234e-07
-5.2552e-07
-5.27806e-07
-5.30094e-07
-5.32383e-07
-5.34672e-07
-5.36963e-07
-5.39254e-07
-5.41547e-07
-5.4384e-07
-5.46134e-07
-5.48429e-07
-5.50725e-07
-5.53021e-07
-5.55318e-07
-5.57616e-07
-5.59915e-07
-5.62215e-07
-5.64515e-07
-5.66816e-07
-5.69117e-07
-5.71419e-07
-5.73722e-07
-5.76025e-07
-5.78329e-07
-5.80633e-07
-5.82938e-07
-5.85244e-07
-5.8755e-07
-5.89857e-07
-5.92163e-07
-5.94472e-07
-5.96777e-07
-5.99092e-07
-6.01388e-07
-6.03722e-07
-6.05988e-07
-6.08374e-07
-6.10557e-07
-6.13077e-07
-6.15057e-07
-6.17879e-07
-6.1943e-07
-6.22846e-07
-6.23607e-07
-6.28038e-07
-6.27545e-07
-6.33475e-07
-6.31257e-07
-6.39108e-07
-6.34823e-07
-6.44831e-07
-6.38367e-07
-6.50507e-07
-6.42025e-07
-6.56017e-07
-6.45872e-07
-6.61361e-07
-6.49797e-07
-6.66779e-07
-6.53438e-07
-6.72709e-07
-6.56341e-07
-6.79576e-07
-6.5814e-07
-6.87703e-07
-6.58589e-07
-6.97267e-07
-6.57777e-07
-7.07962e-07
-6.56543e-07
-7.18767e-07
-6.56824e-07
-7.27553e-07
-6.62953e-07
-7.29367e-07
-6.84935e-07
-7.12968e-07
-7.44005e-07
-6.49802e-07
-8.91122e-07
-4.09558e-07
-1.25866e-06
1.24292e-06
-7.08742e-07
-7.08742e-07
-0.146488
0.146488
0.0383111
0.0142348
0.00745677
0.00467352
0.00323132
0.00237731
0.00182786
0.00145385
0.00118839
0.000993628
0.000846686
0.000733073
0.000643255
0.000570798
0.000511312
0.000461751
0.000419893
0.000384018
0.000352806
0.000325354
0.000301109
0.000279656
0.000260501
0.000243049
0.000226801
0.000211566
0.000197445
0.000184561
0.000172733
0.000161379
0.000149756
0.000137373
0.000124292
0.000111103
9.8606e-05
8.74026e-05
7.76525e-05
6.91118e-05
6.13804e-05
5.41842e-05
4.75239e-05
4.16323e-05
3.6795e-05
3.31546e-05
3.06016e-05
2.87944e-05
2.72767e-05
2.56254e-05
2.35639e-05
2.10082e-05
1.80471e-05
1.48809e-05
1.17476e-05
8.86103e-06
6.37165e-06
4.35335e-06
2.81018e-06
1.69505e-06
9.32259e-07
4.37518e-07
1.32403e-07
-4.7671e-08
-1.50885e-07
-2.10126e-07
-2.45978e-07
-2.70195e-07
-2.88827e-07
-3.04609e-07
-3.1858e-07
-3.31048e-07
-3.42098e-07
-3.5181e-07
-3.60319e-07
-3.67807e-07
-3.74474e-07
-3.80512e-07
-3.86084e-07
-3.91324e-07
-3.9633e-07
-4.01175e-07
-4.05906e-07
-4.10557e-07
-4.15149e-07
-4.19693e-07
-4.242e-07
-4.28673e-07
-4.33118e-07
-4.37537e-07
-4.41932e-07
-4.46304e-07
-4.50656e-07
-4.54988e-07
-4.59302e-07
-4.63597e-07
-4.67875e-07
-4.72135e-07
-4.76377e-07
-4.80602e-07
-4.84808e-07
-4.88995e-07
-4.93162e-07
-4.97308e-07
-5.01434e-07
-5.05537e-07
-5.09618e-07
-5.13676e-07
-5.17709e-07
-5.21717e-07
-5.25701e-07
-5.29658e-07
-5.33589e-07
-5.37493e-07
-5.4137e-07
-5.4522e-07
-5.49042e-07
-5.52836e-07
-5.56602e-07
-5.6034e-07
-5.6405e-07
-5.67731e-07
-5.71384e-07
-5.75009e-07
-5.78606e-07
-5.82174e-07
-5.85714e-07
-5.89227e-07
-5.92712e-07
-5.96169e-07
-5.99599e-07
-6.03002e-07
-6.06378e-07
-6.09727e-07
-6.13051e-07
-6.16348e-07
-6.19619e-07
-6.22865e-07
-6.26086e-07
-6.29283e-07
-6.32455e-07
-6.35603e-07
-6.38729e-07
-6.41831e-07
-6.44911e-07
-6.47968e-07
-6.51004e-07
-6.5402e-07
-6.57014e-07
-6.59989e-07
-6.62944e-07
-6.6588e-07
-6.68797e-07
-6.71697e-07
-6.74579e-07
-6.77444e-07
-6.80293e-07
-6.83127e-07
-6.85945e-07
-6.88748e-07
-6.91538e-07
-6.94314e-07
-6.97077e-07
-6.99828e-07
-7.02567e-07
-7.05295e-07
-7.08012e-07
-7.10719e-07
-7.13416e-07
-7.16105e-07
-7.18784e-07
-7.21456e-07
-7.24121e-07
-7.26778e-07
-7.29429e-07
-7.32074e-07
-7.34713e-07
-7.37348e-07
-7.39978e-07
-7.42604e-07
-7.45226e-07
-7.47845e-07
-7.50462e-07
-7.53076e-07
-7.55688e-07
-7.58299e-07
-7.60908e-07
-7.63517e-07
-7.66126e-07
-7.68734e-07
-7.71343e-07
-7.73952e-07
-7.76562e-07
-7.79174e-07
-7.81787e-07
-7.84402e-07
-7.87019e-07
-7.89638e-07
-7.9226e-07
-7.94884e-07
-7.97512e-07
-8.00143e-07
-8.02778e-07
-8.05416e-07
-8.08058e-07
-8.10704e-07
-8.13354e-07
-8.16008e-07
-8.18668e-07
-8.21331e-07
-8.23999e-07
-8.26672e-07
-8.29351e-07
-8.32034e-07
-8.34722e-07
-8.37415e-07
-8.40114e-07
-8.42818e-07
-8.45527e-07
-8.48242e-07
-8.50963e-07
-8.53689e-07
-8.5642e-07
-8.59157e-07
-8.619e-07
-8.64648e-07
-8.67402e-07
-8.70162e-07
-8.72927e-07
-8.75698e-07
-8.78475e-07
-8.81257e-07
-8.84045e-07
-8.86838e-07
-8.89637e-07
-8.92441e-07
-8.95251e-07
-8.98066e-07
-9.00887e-07
-9.03713e-07
-9.06545e-07
-9.09381e-07
-9.12223e-07
-9.1507e-07
-9.17922e-07
-9.20779e-07
-9.23641e-07
-9.26508e-07
-9.2938e-07
-9.32257e-07
-9.35139e-07
-9.38025e-07
-9.40916e-07
-9.43811e-07
-9.46711e-07
-9.49616e-07
-9.52525e-07
-9.55438e-07
-9.58355e-07
-9.61277e-07
-9.64203e-07
-9.67133e-07
-9.70067e-07
-9.73005e-07
-9.75947e-07
-9.78893e-07
-9.81842e-07
-9.84796e-07
-9.87753e-07
-9.90713e-07
-9.93677e-07
-9.96645e-07
-9.99616e-07
-1.00259e-06
-1.00557e-06
-1.00855e-06
-1.01153e-06
-1.01452e-06
-1.01751e-06
-1.02051e-06
-1.0235e-06
-1.0265e-06
-1.0295e-06
-1.03251e-06
-1.03552e-06
-1.03853e-06
-1.04154e-06
-1.04456e-06
-1.04758e-06
-1.0506e-06
-1.05362e-06
-1.05665e-06
-1.05968e-06
-1.06271e-06
-1.06574e-06
-1.06878e-06
-1.07182e-06
-1.07486e-06
-1.0779e-06
-1.08094e-06
-1.08399e-06
-1.08704e-06
-1.09009e-06
-1.09314e-06
-1.0962e-06
-1.09926e-06
-1.10231e-06
-1.10538e-06
-1.10844e-06
-1.1115e-06
-1.11457e-06
-1.11764e-06
-1.12071e-06
-1.12378e-06
-1.12685e-06
-1.12993e-06
-1.133e-06
-1.13608e-06
-1.13916e-06
-1.14224e-06
-1.14532e-06
-1.14841e-06
-1.15149e-06
-1.15458e-06
-1.15767e-06
-1.16076e-06
-1.16385e-06
-1.16694e-06
-1.17003e-06
-1.17313e-06
-1.17623e-06
-1.17932e-06
-1.18242e-06
-1.18552e-06
-1.18862e-06
-1.19173e-06
-1.19483e-06
-1.19794e-06
-1.20104e-06
-1.20415e-06
-1.20726e-06
-1.21037e-06
-1.21348e-06
-1.2166e-06
-1.21971e-06
-1.22283e-06
-1.22594e-06
-1.22907e-06
-1.23216e-06