# vtk DataFile Version 2.0
FlowField
ASCII
DATASET STRUCTURED_GRID
DIMENSIONS 400 1 200
POINTS 80000 float
0 0 0
0.08 0 0
0.16 0 0
0.24 0 0
0.32 0 0
0.4 0 0
0.48 0 0
0.56 0 0
0.64 0 0
0.72 0 0
0.8 0 0
0.88 0 0
0.96 0 0
1.04 0 0
1.12 0 0
1.2 0 0
1.28 0 0
1.36 0 0
1.44 0 0
1.52 0 0
1.6 0 0
1.68 0 0
1.76 0 0
1.84 0 0
1.92 0 0
2 0 0
2.08 0 0
2.16 0 0
2.24 0 0
2.32 0 0
2.4 0 0
2.48 0 0
2.56 0 0
2.64 0 0
2.72 0 0
2.8 0 0
2.88 0 0
2.96 0 0
3.04 0 0
3.12 0 0
3.2 0 0
3.28 0 0
3.36 0 0
3.44 0 0
3.52 0 0
3.6 0 0
3.68 0 0
3.76 0 0
3.84 0 0
3.92 0 0
4 0 0
4.08 0 0
4.16 0 0
4.24 0 0
4.32 0 0
4.4 0 0
4.48 0 0
4.56 0 0
4.64 0 0
4.72 0 0
4.8 0 0
4.88 0 0
4.96 0 0
5.04 0 0
5.12 0 0
5.2 0 0
5.28 0 0
5.36 0 0
5.44 0 0
5.52 0 0
5.6 0 0
5.68 0 0
5.76 0 0
5.84 0 0
5.92 0 0
6 0 0
6.08 0 0
6.16 0 0
6.24 0 0
6.32 0 0
6.4 0 0
6.48 0 0
6.56 0 0
6.64 0 0
6.72 0 0
6.8 0 0
6.88 0 0
6.96 0 0
7.04 0 0
7.12 0 0
7.2 0 0
7.28 0 0
7.36 0 0
7.44 0 0
7.52 0 0
7.6 0 0
7.68 0 0
7.76 0 0
7.84 0 0
7.92 0 0
8 0 0
8.08 0 0
8.16 0 0
8.24 0 0
8.32 0 0
8.4 0 0
8.48 0 0
8.56 0 0
8.64 0 0
8.72 0 0
8.8 0 0
8.88 0 0
8.96 0 0
9.04 0 0
9.12 0 0
9.2 0 0
9.28 0 0
9.36 0 0
9.44 0 0
9.52 0 0
9.6 0 0
9.68 0 0
9.76 0 0
9.84 0 0
9.92 0 0
10 0 0
10.08 0 0
10.16 0 0
10.24 0 0
10.32 0 0
10.4 0 0
10.48 0 0
10.56 0 0
10.64 0 0
10.72 0 0
10.8 0 0
10.88 0 0
10.96 0 0
11.04 0 0
11.12 0 0
11.2 0 0
11.28 0 0
11.36 0 0
11.44 0 0
11.52 0 0
11.6 0 0
11.68 0 0
11.76 0 0
11.84 0 0
11.92 0 0
12 0 0
12.08 0 0
12.16 0 0
12.24 0 0
12.32 0 0
12.4 0 0
12.48 0 0
12.56 0 0
12.64 0 0
12.72 0 0
12.8 0 0
12.88 0 0
12.96 0 0
13.04 0 0
13.12 0 0
13.2 0 0
13.28 0 0
13.36 0 0
13.44 0 0
13.52 0 0
13.6 0 0
13.68 0 0
13.76 0 0
13.84 0 0
13.92 0 0
14 0 0
14.08 0 0
14.16 0 0
14.24 0 0
14.32 0 0
14.4 0 0
14.48 0 0
14.56 0 0
14.64 0 0
14.72 0 0
14.8 0 0
14.88 0 0
14.96 0 0
15.04 0 0
15.12 0 0
15.2 0 0
15.28 0 0
15.36 0 0
15.44 0 0
15.52 0 0
15.6 0 0
15.68 0 0
15.76 0 0
15.84 0 0
15.92 0 0
16 0 0
16.08 0 0
16.16 0 0
16.24 0 0
16.32 0 0
16.4 0 0
16.48 0 0
16.56 0 0
16.64 0 0
16.72 0 0
16.8 0 0
16.88 0 0
16.96 0 0
17.04 0 0
17.12 0 0
17.2 0 0
17.28 0 0
17.36 0 0
17.44 0 0
17.52 0 0
17.6 0 0
17.68 0 0
17.76 0 0
17.84 0 0
17.92 0 0
18 0 0
18.08 0 0
18.16 0 0
18.24 0 0
18.32 0 0
18.4 0 0
18.48 0 0
18.56 0 0
18.64 0 0
18.72 0 0
18.8 0 0
18.88 0 0
18.96 0 0
19.04 0 0
19.12 0 0
19.2 0 0
19.28 0 0
19.36 0 0
19.44 0 0
19.52 0 0
19.6 0 0
19.68 0 0
19.76 0 0
19.84 0 0
19.92 0 0
20 0 0
20.08 0 0
20.16 0 0
20.24 0 0
20.32 0 0
20.4 0 0
20.48 0 0
20.56 0 0
20.64 0 0
20.72 0 0
20.8 0 0
20.88 0 0
20.96 0 0
21.04 0 0
21.12 0 0
21.2 0 0
21.28 0 0
21.36 0 0
21.44 0 0
21.52 0 0
21.6 0 0
21.68 0 0
21.76 0 0
21.84 0 0
21.92 0 0
22 0 0
22.08 0 0
22.16 0 0
22.24 0 0
22.32 0 0
22.4 0 0
22.48 0 0
22.56 0 0
22.64 0 0
22.72 0 0
22.8 0 0
22.88 0 0
22.96 0 0
23.04 0 0
23.12 0 0
23.2 0 0
23.28 0 0
23.36 0 0
23.44 0 0
23.52 0 0
23.6 0 0
23.68 0 0
23.76 0 0
23.84 0 0
23.92 0 0
24 0 0
24.08 0 0
24.16 0 0
24.24 0 0
24.32 0 0
24.4 0 0
24.48 0 0
24.56 0 0
24.64 0 0
24.72 0 0
24.8 0 0
24.88 0 0
24.96 0 0
25.04 0 0
25.12 0 0
25.2 0 0
25.28 0 0
25.36 0 0
25.44 0 0
25.52 0 0
25.6 0 0
25.68 0 0
25.76 0 0
25.84 0 0
25.92 0 0
26 0 0
26.08 0 0
26.16 0 0
26.24 0 0
26.32 0 0
26.4 0 0
26.48 0 0
26.56 0 0
26.64 0 0
26.72 0 0
26.8 0 0
26.88 0 0
26.96 0 0
27.04 0 0
27.12 0 0
27.2 0 0
27.28 0 0
27.36 0 0
27.44 0 0
27.52 0 0
27.6 0 0
27.68 0 0
27.76 0 0
27.84 0 0
27.92 0 0
28 0 0
28.08 0 0
28.16 0 0
28.24 0 0
28.32 0 0
28.4 0 0
28.48 0 0
28.56 0 0
28.64 0 0
28.72 0 0
28.8 0 0
28.88 0 0
28.96 0 0
29.04 0 0
29.12 0 0
29.2 0 0
29.28 0 0
29.36 0 0
29.44 0 0
29.52 0 0
29.6 0 0
29.68 0 0
29.76 0 0
29.84 0 0
29.92 0 0
30 0 0
30.08 0 0
30.16 0 0
30.24 0 0
30.32 0 0
30.4 0 0
30.48 0 0
30.56 0 0
30.64 0 0
30.72 0 0
30.8 0 0
30.88 0 0
30.96 0 0
31.04 0 0
31.12 0 0
31.2 0 0
31.28 0 0
31.36 0 0
31.44 0 0
31.52 0 0
31.6 0 0
31.68 0 0
31.76 0 0
31.84 0 0
31.92 0 0
0 0.005 0
0.08 0.005 0
0.16 0.005 0
0.24 0.005 0
0.32 0.005 0
0.4 0.005 0
0.48 0.005 0
0.56 0.005 0
0.64 0.005 0
0.72 0.005 0
0.8 0.005 0
0.88 0.005 0
0.96 0.005 0
1.04 0.005 0
1.12 0.005 0
1.2 0.005 0
1.28 0.005 0
1.36 0.005 0
1.44 0.005 0
1.52 0.005 0
1.6 0.005 0
1.68 0.005 0
1.76 0.005 0
1.84 0.005 0
1.92 0.005 0
2 0.005 0
2.08 0.005 0
2.16 0.005 0
2.24 0.005 0
2.32 0.005 0
2.4 0.005 0
2.48 0.005 0
2.56 0.005 0
2.64 0.005 0
2.72 0.005 0
2.8 0.005 0
2.88 0.005 0
2.96 0.005 0
3.04 0.005 0
3.12 0.005 0
3.2 0.005 0
3.28 0.005 0
3.36 0.005 0
3.44 0.005 0
3.52 0.005 0
3.6 0.005 0
3.68 0.005 0
3.76 0.005 0
3.84 0.005 0
3.92 0.005 0
4 0.005 0
4.08 0.005 0
4.16 0.005 0
4.24 0.005 0
4.32 0.005 0
4.4 0.005 0
4.48 0.005 0
4.56 0.005 0
4.64 0.005 0
4.72 0.005 0
4.8 0.005 0
4.88 0.005 0
4.96 0.005 0
5.04 0.005 0
5.12 0.005 0
5.2 0.005 0
5.28 0.005 0
5.36 0.005 0
5.44 0.005 0
5.52 0.005 0
5.6 0.005 0
5.68 0.005 0
5.76 0.005 0
5.84 0.005 0
5.92 0.005 0
6 0.005 0
6.08 0.005 0
6.16 0.005 0
6.24 0.005 0
6.32 0.005 0
6.4 0.005 0
6.48 0.005 0
6.56 0.005 0
6.64 0.005 0
6.72 0.005 0
6.8 0.005 0
6.88 0.005 0
6.96 0.005 0
7.04 0.005 0
7.12 0.005 0
7.2 0.005 0
7.28 0.005 0
7.36 0.005 0
7.44 0.005 0
7.52 0.005 0
7.6 0.005 0
7.68 0.005 0
7.76 0.005 0
7.84 0.005 0
7.92 0.005 0
8 0.005 0
8.08 0.005 0
8.16 0.005 0
8.24 0.005 0
8.32 0.005 0
8.4 0.005 0
8.48 0.005 0
8.56 0.005 0
8.64 0.005 0
8.72 0.005 0
8.8 0.005 0
8.88 0.005 0
8.96 0.005 0
9.04 0.005 0
9.12 0.005 0
9.2 0.005 0
9.28 0.005 0
9.36 0.005 0
9.44 0.005 0
9.52 0.005 0
9.6 0.005 0
9.68 0.005 0
9.76 0.005 0
9.84 0.005 0
9.92 0.005 0
10 0.005 0
10.08 0.005 0
10.16 0.005 0
10.24 0.005 0
10.32 0.005 0
10.4 0.005 0
10.48 0.005 0
10.56 0.005 0
10.64 0.005 0
10.72 0.005 0
10.8 0.005 0
10.88 0.005 0
10.96 0.005 0
11.04 0.005 0
11.12 0.005 0
11.2 0.005 0
11.28 0.005 0
11.36 0.005 0
11.44 0.005 0
11.52 0.005 0
11.6 0.005 0
11.68 0.005 0
11.76 0.005 0
11.84 0.005 0
11.92 0.005 0
12 0.005 0
12.08 0.005 0
12.16 0.005 0
12.24 0.005 0
12.32 0.005 0
12.4 0.005 0
12.48 0.005 0
12.56 0.005 0
12.64 0.005 0
12.72 0.005 0
12.8 0.005 0
12.88 0.005 0
12.96 0.005 0
13.04 0.005 0
13.12 0.005 0
13.2 0.005 0
13.28 0.005 0
13.36 0.005 0
13.44 0.005 0
13.52 0.005 0
13.6 0.005 0
13.68 0.005 0
13.76 0.005 0
13.84 0.005 0
13.92 0.005 0
14 0.005 0
14.08 0.005 0
14.16 0.005 0
14.24 0.005 0
14.32 0.005 0
14.4 0.005 0
14.48 0.005 0
14.56 0.005 0
14.64 0.005 0
14.72 0.005 0
14.8 0.005 0
14.88 0.005 0
14.96 0.005 0
15.04 0.005 0
15.12 0.005 0
15.2 0.005 0
15.28 0.005 0
15.36 0.005 0
15.44 0.005 0
15.52 0.005 0
15.6 0.005 0
15.68 0.005 0
15.76 0.005 0
15.84 0.005 0
15.92 0.005 0
16 0.005 0
16.08 0.005 0
16.16 0.005 0
16.24 0.005 0
16.32 0.005 0
16.4 0.005 0
16.48 0.005 0
16.56 0.005 0
16.64 0.005 0
16.72 0.005 0
16.8 0.005 0
16.88 0.005 0
16.96 0.005 0
17.04 0.005 0
17.12 0.005 0
17.2 0.005 0
17.28 0.005 0
17.36 0.005 0
17.44 0.005 0
17.52 0.005 0
17.6 0.005 0
17.68 0.005 0
17.76 0.005 0
17.84 0.005 0
17.92 0.005 0
18 0.005 0
18.08 0.005 0
18.16 0.005 0
18.24 0.005 0
18.32 0.005 0
18.4 0.005 0
18.48 0.005 0
18.56 0.005 0
18.64 0.005 0
18.72 0.005 0
18.8 0.005 0
18.88 0.005 0
18.96 0.005 0
19.04 0.005 0
19.12 0.005 0
19.2 0.005 0
19.28 0.005 0
19.36 0.005 0
19.44 0.005 0
19.52 0.005 0
19.6 0.005 0
19.68 0.005 0
19.76 0.005 0
19.84 0.005 0
19.92 0.005 0
20 0.005 0
20.08 0.005 0
20.16 0.005 0
20.24 0.005 0
20.32 0.005 0
20.4 0.005 0
20.48 0.005 0
20.56 0.005 0
20.64 0.005 0
20.72 0.005 0
20.8 0.005 0
20.88 0.005 0
20.96 0.005 0
21.04 0.005 0
21.12 0.005 0
21.2 0.005 0
21.28 0.005 0
21.36 0.005 0
21.44 0.005 0
21.52 0.005 0
21.6 0.005 0
21.68 0.005 0
21.76 0.005 0
21.84 0.005 0
21.92 0.005 0
22 0.005 0
22.08 0.005 0
22.16 0.005 0
22.24 0.005 0
22.32 0.005 0
22.4 0.005 0
22.48 0.005 0
22.56 0.005 0
22.64 0.005 0
22.72 0.005 0
22.8 0.005 0
22.88 0.005 0
22.96 0.005 0
23.04 0.005 0
23.12 0.005 0
23.2 0.005 0
23.28 0.005 0
23.36 0.005 0
23.44 0.005 0
23.52 0.005 0
23.6 0.005 0
23.68 0.005 0
23.76 0.005 0
23.84 0.005 0
23.92 0.005 0
24 0.005 0
24.08 0.005 0
24.16 0.005 0
24.24 0.005 0
24.32 0.005 0
24.4 0.005 0
24.48 0.005 0
24.56 0.005 0
24.64 0.005 0
24.72 0.005 0
24.8 0.005 0
24.88 0.005 0
24.96 0.005 0
25.04 0.005 0
25.12 0.005 0
25.2 0.005 0
25.28 0.005 0
25.36 0.005 0
25.44 0.005 0
25.52 0.005 0
25.6 0.005 0
25.68 0.005 0
25.76 0.005 0
25.84 0.005 0
25.92 0.005 0
26 0.005 0
26.08 0.005 0
26.16 0.005 0
26.24 0.005 0
26.32 0.005 0
26.4 0.005 0
26.48 0.005 0
26.56 0.005 0
26.64 0.005 0
26.72 0.005 0
26.8 0.005 0
26.88 0.005 0
26.96 0.005 0
27.04 0.005 0
27.12 0.005 0
27.2 0.005 0
27.28 0.005 0
27.36 0.005 0
27.44 0.005 0
27.52 0.005 0
27.6 0.005 0
27.68 0.005 0
27.76 0.005 0
27.84 0.005 0
27.92 0.005 0
28 0.005 0
28.08 0.005 0
28.16 0.005 0
28.24 0.005 0
28.32 0.005 0
28.4 0.005 0
28.48 0.005 0
28.56 0.005 0
28.64 0.005 0
28.72 0.005 0
28.8 0.005 0
28.88 0.005 0
28.96 0.005 0
29.04 0.005 0
29.12 0.005 0
29.2 0.005 0
29.28 0.005 0
29.36 0.005 0
29.44 0.005 0
29.52 0.005 0
29.6 0.005 0
29.68 0.005 0
29.76 0.005 0
29.84 0.005 0
29.92 0.005 0
30 0.005 0
30.08 0.005 0
30.16 0.005 0
30.24 0.005 0
30.32 0.005 0
30.4 0.005 0
30.48 0.005 0
30.56 0.005 0
30.64 0.005 0
30.72 0.005 0
30.8 0.005 0
30.88 0.005 0
30.96 0.005 0
31.04 0.005 0
31.12 0.005 0
31.2 0.005 0
31.28 0.005 0
31.36 0.005 0
31.44 0.005 0
31.52 0.005 0
31.6 0.005 0
31.68 0.005 0
31.76 0.005 0
31.84 0.005 0
31.92 0.005 0
0 0.01 0
0.08 0.01 0
0.16 0.01 0
0.24 0.01 0
0.32 0.01 0
0.4 0.01 0
0.48 0.01 0
0.56 0.01 0
0.64 0.01 0
0.72 0.01 0
0.8 0.01 0
0.88 0.01 0
0.96 0.01 0
1.04 0.01 0
1.12 0.01 0
1.2 0.01 0
1.28 0.01 0
1.36 0.01 0
1.44 0.01 0
1.52 0.01 0
1.6 0.01 0
1.68 0.01 0
1.76 0.01 0
1.84 0.01 0
1.92 0.01 0
2 0.01 0
2.08 0.01 0
2.16 0.01 0
2.24 0.01 0
2.32 0.01 0
2.4 0.01 0
2.48 0.01 0
2.56 0.01 0
2.64 0.01 0
2.72 0.01 0
2.8 0.01 0
2.88 0.01 0
2.96 0.01 0
3.04 0.01 0
3.12 0.01 0
3.2 0.01 0
3.28 0.01 0
3.36 0.01 0
3.44 0.01 0
3.52 0.01 0
3.6 0.01 0
3.68 0.01 0
3.76 0.01 0
3.84 0.01 0
3.92 0.01 0
4 0.01 0
4.08 0.01 0
4.16 0.01 0
4.24 0.01 0
4.32 0.01 0
4.4 0.01 0
4.48 0.01 0
4.56 0.01 0
4.64 0.01 0
4.72 0.01 0
4.8 0.01 0
4.88 0.01 0
4.96 0.01 0
5.04 0.01 0
5.12 0.01 0
[...]
POINT_DATA 80000

SCALARS u float 1
LOOKUP_TABLE default
0
-0.131663
-0.0682695
-0.0522964
-0.0444203
-0.0395772
-0.0362602
-0.0338332
-0.0319732
-0.0304966
-0.0292906
-0.0282823
-0.0274228
-0.0266782
-0.0260243
-0.0254434
-0.0249225
-0.0244517
-0.0240231
-0.0236307
-0.0232697
-0.022936
-0.0226265
-0.0223384
-0.0220694
-0.0218176
-0.0215812
-0.0213589
-0.0211492
-0.0209513
-0.0207641
-0.0205868
-0.0204186
-0.0202587
-0.0201066
-0.0199619
-0.0198241
-0.019693
-0.019568
-0.0194487
-0.0193348
-0.0192262
-0.019123
-0.0190252
-0.0189329
-0.0188462
-0.0187649
-0.018689
-0.0186184
-0.0185533
-0.0184937
-0.0184395
-0.0183903
-0.0183454
-0.0183042
-0.018266
-0.0182305
-0.0181974
-0.0181668
-0.018139
-0.0181138
-0.0180912
-0.018071
-0.0180525
-0.0180355
-0.0180194
-0.0180042
-0.0179899
-0.0179764
-0.0179642
-0.0179533
-0.0179439
-0.0179361
-0.01793
-0.0179254
-0.017922
-0.0179198
-0.0179184
-0.0179177
-0.0179175
-0.0179176
-0.0179179
-0.0179185
-0.0179191
-0.0179197
-0.0179205
-0.0179212
-0.017922
-0.0179228
-0.0179236
-0.0179244
-0.0179252
-0.017926
-0.0179269
-0.0179277
-0.0179285
-0.0179293
-0.0179302
-0.017931
-0.0179318
-0.0179326
-0.0179335
-0.0179343
-0.0179351
-0.017936
-0.0179368
-0.0179376
-0.0179385
-0.0179393
-0.0179401
-0.017941
-0.0179418
-0.0179426
-0.0179435
-0.0179443
-0.0179451
-0.017946
-0.0179468
-0.0179476
-0.0179485
-0.0179493
-0.0179502
-0.017951
-0.0179518
-0.0179527
-0.0179535
-0.0179544
-0.0179552
-0.017956
-0.0179569
-0.0179577
-0.0179586
-0.0179594
-0.0179603
-0.0179611
-0.017962
-0.0179628
-0.0179636
-0.0179645
-0.0179653
-0.0179662
-0.017967
-0.0179679
-0.0179687
-0.0179696
-0.0179704
-0.0179713
-0.0179721
-0.017973
-0.0179738
-0.0179747
-0.0179755
-0.0179764
-0.0179772
-0.0179781
-0.017979
-0.0179798
-0.0179807
-0.0179815
-0.0179824
-0.0179832
-0.0179841
-0.0179849
-0.0179858
-0.0179867
-0.0179875
-0.0179884
-0.0179892
-0.0179901
-0.017991
-0.0179918
-0.0179927
-0.0179936
-0.0179944
-0.0179953
-0.0179961
-0.017997
-0.0179979
-0.0179987
-0.0179996
-0.0180005
-0.0180013
-0.0180022
-0.0180031
-0.0180039
-0.0180048
-0.0180057
-0.0180065
-0.0180074
-0.0180083
-0.0180092
-0.01801
-0.0180109
-0.0180118
-0.0180127
-0.0180135
-0.0180144
-0.0180153
-0.0180161
-0.018017
-0.0180179
-0.0180188
-0.0180197
-0.0180205
-0.0180214
-0.0180223
-0.0180232
-0.018024
-0.0180249
-0.0180258
-0.0180267
-0.0180276
-0.0180285
-0.0180293
-0.0180302
-0.0180311
-0.018032
-0.0180329
-0.0180338
-0.0180346
-0.0180355
-0.0180364
-0.0180373
-0.0180382
-0.0180391
-0.01804
-0.0180409
-0.0180417
-0.0180426
-0.0180435
-0.0180444
-0.0180453
-0.0180462
-0.0180471
-0.018048
-0.0180489
-0.0180498
-0.0180507
-0.0180516
-0.0180525
-0.0180534
-0.0180543
-0.0180551
-0.018056
-0.0180569
-0.0180578
-0.0180587
-0.0180596
-0.0180605
-0.0180614
-0.0180623
-0.0180632
-0.0180642
-0.0180651
-0.018066
-0.0180669
-0.0180678
-0.0180687
-0.0180696
-0.0180705
-0.0180714
-0.0180723
-0.0180732
-0.0180741
-0.018075
-0.0180759
-0.0180768
-0.0180778
-0.0180787
-0.0180796
-0.0180805
-0.0180814
-0.0180823
-0.0180832
-0.0180841
-0.0180851
-0.018086
-0.0180869
-0.0180878
-0.0180887
-0.0180896
-0.0180906
-0.0180915
-0.0180924
-0.0180933
-0.0180942
-0.0180952
-0.0180961
-0.018097
-0.0180979
-0.0180988
-0.0180998
-0.0181007
-0.0181016
-0.0181025
-0.0181035
-0.0181044
-0.0181053
-0.0181062
-0.0181072
-0.0181081
-0.018109
-0.01811
-0.0181109
-0.0181118
-0.0181127
-0.0181137
-0.0181146
-0.0181155
-0.0181165
-0.0181174
-0.0181183
-0.0181193
-0.0181202
-0.0181211
-0.0181221
-0.018123
-0.018124
-0.0181249
-0.0181258
-0.0181268
-0.0181277
-0.0181287
-0.0181296
-0.0181305
-0.0181315
-0.0181324
-0.0181334
-0.0181343
-0.0181352
-0.0181362
-0.0181371
-0.0181381
-0.018139
-0.01814
-0.0181409
-0.0181419
-0.0181428
-0.0181438
-0.0181447
-0.0181457
-0.0181466
-0.0181476
-0.0181485
-0.0181495
-0.0181504
-0.0181514
-0.0181523
-0.0181533
-0.0181543
-0.0181552
-0.0181562
-0.0181571
-0.0181581
-0.018159
-0.01816
-0.018161
-0.0181619
-0.0181629
-0.0181638
-0.0181648
-0.0181658
-0.0181667
-0.0181677
-0.0181687
-0.0181696
-0.0181706
-0.0181716
-0.0181725
-0.0181735
-0.0181744
-0.0181754
-0.0181764
-0.0181774
-0.0181783
-0.0181793
-0.0181803
-0.0181812
-0.0181822
-0.0181832
-0.0181842
-0.0181851
-0.0181861
-0.0181871
-0.0181881
-0.0181891
-0.01819
-0.018191
-0.018192
-0.018193
-0.018194
-0.0181949
-0.018196
-0.0181969
-0.0181981
-0.0181987
-0.0182003
-0.0181988
-0.0181988
-0.0181988
1
0.131663
0.0682695
0.0522964
0.0444203
0.0395772
0.0362602
0.0338332
0.0319732
0.0304966
0.0292906
0.0282823
0.0274228
0.0266782
0.0260243
0.0254434
0.0249225
0.0244517
0.0240231
0.0236307
0.0232697
0.022936
0.0226265
0.0223384
0.0220694
0.0218176
0.0215812
0.0213589
0.0211492
0.0209513
0.0207641
0.0205868
0.0204186
0.0202587
0.0201066
0.0199619
0.0198241
0.019693
0.019568
0.0194487
0.0193348
0.0192262
0.019123
0.0190252
0.0189329
0.0188462
0.0187649
0.018689
0.0186184
0.0185533
0.0184937
0.0184395
0.0183903
0.0183454
0.0183042
0.018266
0.0182305
0.0181974
0.0181668
0.018139
0.0181138
0.0180912
0.018071
0.0180525
0.0180355
0.0180194
0.0180042
0.0179899
0.0179764
0.0179642
0.0179533
0.0179439
0.0179361
0.01793
0.0179254
0.017922
0.0179198
0.0179184
0.0179177
0.0179175
0.0179176
0.0179179
0.0179185
0.0179191
0.0179197
0.0179205
0.0179212
0.017922
0.0179228
0.0179236
0.0179244
0.0179252
0.017926
0.0179269
0.0179277
0.0179285
0.0179293
0.0179302
0.017931
0.0179318
0.0179326
0.0179335
0.0179343
0.0179351
0.017936
0.0179368
0.0179376
0.0179385
0.0179393
0.0179401
0.017941
0.0179418
0.0179426
0.0179435
0.0179443
0.0179451
0.017946
0.0179468
0.0179476
0.0179485
0.0179493
0.0179502
0.017951
0.0179518
0.0179527
0.0179535
0.0179544
0.0179552
0.017956
0.0179569
0.0179577
0.0179586
0.0179594
0.0179603
0.0179611
0.017962
0.0179628
0.0179636
0.0179645
0.0179653
0.0179662
0.017967
0.0179679
0.0179687
0.0179696
0.0179704
0.0179713
0.0179721
0.017973
0.0179738
0.0179747
0.0179755
0.0179764
0.0179772
0.0179781
0.017979
0.0179798
0.0179807
0.0179815
0.0179824
0.0179832
0.0179841
0.0179849
0.0179858
0.0179867
0.0179875
0.0179884
0.0179892
0.0179901
0.017991
0.0179918
0.0179927
0.0179936
0.0179944
0.0179953
0.0179961
0.017997
0.0179979
0.0179987
0.0179996
0.0180005
0.0180013
0.0180022
0.0180031
0.0180039
0.0180048
0.0180057
0.0180065
0.0180074
0.0180083
0.0180092
0.01801
0.0180109
0.0180118
0.0180127
0.0180135
0.0180144
0.0180153
0.0180161
0.018017
0.0180179
0.0180188
0.0180197
0.0180205
0.0180214
0.0180223
0.0180232
0.018024
0.0180249
0.0180258
0.0180267
0.0180276
0.0180285
0.0180293
0.0180302
0.0180311
0.018032
0.0180329
0.0180338
0.0180346
0.0180355
0.0180364
0.0180373
0.0180382
0.0180391
0.01804
0.0180409
0.0180417
0.0180426
0.0180435
0.0180444
0.0180453
0.0180462
0.0180471
0.018048
0.0180489
0.0180498
0.0180507
0.0180516
0.0180525
0.0180534
0.0180543
0.0180551
0.018056
0.0180569
0.0180578
0.0180587
0.0180596
0.0180605
0.0180614
0.0180623
0.0180632
0.0180642
0.0180651
0.018066
0.0180669
0.0180678
0.0180687
0.0180696
0.0180705
0.0180714
0.0180723
0.0180732
0.0180741
0.018075
0.0180759
0.0180768
0.0180778
0.0180787
0.0180796
0.0180805
0.0180814
0.0180823
0.0180832
0.0180841
0.0180851
0.018086
0.0180869
0.0180878
0.0180887
0.0180896
0.0180906
0.0180915
0.0180924
0.0180933
0.0180942
0.0180952
0.0180961
0.018097
0.0180979
0.0180988
0.0180998
0.0181007
0.0181016
0.0181025
0.0181035
0.0181044
0.0181053
0.0181062
0.0181072
0.0181081
0.018109
0.01811
0.0181109
0.0181118
0.0181127
0.0181137
0.0181146
0.0181155
0.0181165
0.0181174
0.0181183
0.0181193
0.0181202
0.0181211
0.0181221
0.018123
0.018124
0.0181249
0.0181258
0.0181268
0.0181277
0.0181287
0.0181296
0.0181305
0.0181315
0.0181324
0.0181334
0.0181343
0.0181352
0.0181362
0.0181371
0.0181381
0.018139
0.01814
0.0181409
0.0181419
0.0181428
0.0181438
0.0181447
0.0181457
0.0181466
0.0181476
0.0181485
0.0181495
0.0181504
0.0181514
0.0181523
0.0181533
0.0181543
0.0181552
0.0181562
0.0181571
0.0181581
0.018159
0.01816
0.018161
0.0181619
0.0181629
0.0181638
0.0181648
0.0181658
0.0181667
0.0181677
0.0181687
0.0181696
0.0181706
0.0181716
0.0181725
0.0181735
0.0181744
0.0181754
0.0181764
0.0181774
0.0181783
0.0181793
0.0181803
0.0181812
0.0181822
0.0181832
0.0181842
0.0181851
0.0181861
0.0181871
0.0181881
0.0181891
0.01819
0.018191
0.018192
0.018193
0.018194
0.0181949
0.018196
0.0181969
0.0181981
0.0181987
0.0182003
0.0181988
0.0181988
0.0181988
1
0.344884
0.200668
0.154968
0.131896
0.1176
0.107769
0.10056
0.0950268
0.090631
0.08704
0.0840381
0.0814802
0.0792651
0.0773208
0.0755947
0.0740477
0.0726498
0.071378
0.0702143
0.0691439
0.0681549
0.0672378
0.0663843
0.0655877
0.064842
0.0641423
0.0634841
0.0628638
0.0622781
0.0617244
0.0611999
0.0607024
0.0602297
0.0597802
0.0593526
0.0589458
0.0585585
0.0581896
0.0578377
0.0575022
0.0571826
0.0568791
0.0565921
0.0563218
0.056068
0.0558305
0.0556091
0.0554038
0.0552148
0.055042
0.0548849
0.0547421
0.0546119
0.0544922
0.0543813
0.0542782
0.0541824
0.0540942
0.0540138
0.0539413
0.0538761
0.0538174
0.0537638
0.0537143
0.0536678
0.053624
0.0535828
0.0535447
0.0535102
0.0534798
0.0534541
0.053433
0.0534164
0.0534041
0.0533953
0.0533896
0.0533862
0.0533846
0.0533843
0.0533849
0.0533861
0.0533877
0.0533896
0.0533917
0.0533939
0.0533962
0.0533985
0.0534009
0.0534033
0.0534057
0.0534081
0.0534106
0.053413
0.0534155
0.0534179
0.0534204
0.0534229
0.0534253
0.0534278
0.0534303
0.0534327
0.0534352
0.0534377
0.0534402
0.0534426
0.0534451
0.0534476
0.0534501
0.0534526
0.053455
0.0534575
0.05346
0.0534625
0.053465
0.0534675
0.05347
0.0534725
0.053475
0.0534775
0.05348
0.0534825
0.053485
0.0534875
0.05349
0.0534925
0.053495
0.0534975
0.0535
0.0535025
0.053505
0.0535075
0.0535101
0.0535126
0.0535151
0.0535176
0.0535201
0.0535227
0.0535252
0.0535277
0.0535302
0.0535328
0.0535353
0.0535378
0.0535404
0.0535429
0.0535454
0.053548
0.0535505
0.053553
0.0535556
0.0535581
0.0535607
0.0535632
0.0535658
0.0535683
0.0535709
0.0535734
0.053576
0.0535785
0.0535811
0.0535836
0.0535862
0.0535887
0.0535913
0.0535939
0.0535964
0.053599
0.0536015
0.0536041
0.0536067
0.0536093
0.0536118
0.0536144
0.053617
0.0536195
0.0536221
0.0536247
0.0536273
0.0536299
0.0536324
0.053635
0.0536376
0.0536402
0.0536428
0.0536454
0.053648
0.0536506
0.0536532
0.0536558
0.0536584
0.053661
0.0536636
0.0536662
0.0536688
0.0536714
0.053674
0.0536766
0.0536792
0.0536818
0.0536844
0.053687
0.0536896
0.0536922
0.0536949
0.0536975
0.0537001
0.0537027
0.0537054
0.053708
0.0537106
0.0537132
0.0537159
0.0537185
0.0537211
0.0537238
0.0537264
0.053729
0.0537317
0.0537343
0.0537369
0.0537396
0.0537422
0.0537449
0.0537475
0.0537502
0.0537528
0.0537555
0.0537581
0.0537608
0.0537634
0.0537661
0.0537688
0.0537714
0.0537741
0.0537768
0.0537794
0.0537821
0.0537848
0.0537874
0.0537901
0.0537928
0.0537954
0.0537981
0.0538008
0.0538035
0.0538062
0.0538088
0.0538115
0.0538142
0.0538169
0.0538196
0.0538223
0.053825
0.0538277
0.0538304
0.053833
0.0538357
0.0538384
0.0538411
0.0538438
0.0538466
0.0538493
0.053852
0.0538547
0.0538574
0.0538601
0.0538628
0.0538655
0.0538682
0.053871
0.0538737
0.0538764
0.0538791
0.0538818
0.0538846
0.0538873
0.05389
0.0538928
0.0538955
0.0538982
0.053901
0.0539037
0.0539064
0.0539092
0.0539119
0.0539147
0.0539174
0.0539202
0.0539229
0.0539256
0.0539284
0.0539312
0.0539339
0.0539367
0.0539394
0.0539422
0.0539449
0.0539477
0.0539505
0.0539532
0.053956
0.0539588
0.0539615
0.0539643
0.0539671
0.0539699
0.0539726
0.0539754
0.0539782
0.053981
0.0539838
0.0539865
0.0539893
0.0539921
0.0539949
0.0539977
0.0540005
0.0540033
0.0540061
0.0540089
0.0540117
0.0540145
0.0540173
0.0540201
0.0540229
0.0540257
0.0540285
0.0540313
0.0540341
0.054037
0.0540398
0.0540426
0.0540454
0.0540482
0.0540511
0.0540539
0.0540567
0.0540595
0.0540624
0.0540652
0.054068
0.0540709
0.0540737
0.0540765
0.0540794
0.0540822
0.0540851
0.0540879
0.0540908
0.0540936
0.0540965
0.0540993
0.0541022
0.054105
0.0541079
0.0541107
0.0541136
0.0541165
0.0541193
0.0541222
0.0541251
0.0541279
0.0541308
0.0541337
0.0541365
0.0541394
0.0541423
0.0541452
0.0541481
0.0541509
0.0541538
0.0541567
0.0541596
0.0541625
0.0541654
0.0541683
0.0541712
0.054174
0.054177
0.0541798
0.0541828
0.0541856
0.0541886
0.0541915
0.0541944
0.0541973
0.0542003
0.0542031
0.0542061
0.054209
0.0542119
0.0542151
0.0542177
0.0542213
0.0542231
0.0542279
0.0542242
0.0542242
0.0542242
1
0.518766
0.327403
0.255349
0.217851
0.194406
0.178214
0.16631
0.157161
0.149887
0.143942
0.138973
0.134739
0.131074
0.127858
0.125004
0.122447
0.120138
0.118038
0.116116
0.11435
0.112718
0.111205
0.109797
0.108483
0.107254
0.1061
0.105015
0.103993
0.103027
0.102115
0.101251
0.100431
0.0996529
0.0989127
0.0982088
0.0975393
0.0969021
0.0962952
0.0957168
0.0951655
0.094641
0.0941434
0.0936734
0.093231
0.0928162
0.0924285
0.0920676
0.0917336
0.0914264
0.0911459
0.0908908
0.0906589
0.0904473
0.0902527
0.0900725
0.089905
0.0897498
0.089607
0.089477
0.0893596
0.089254
0.0891586
0.0890715
0.0889909
0.0889156
0.0888448
0.0887787
0.0887179
0.0886632
0.0886156
0.0885754
0.0885428
0.0885175
0.0884988
0.0884857
0.0884773
0.0884724
0.0884704
0.0884702
0.0884715
0.0884737
0.0884765
0.0884797
0.0884832
0.0884869
0.0884906
0.0884945
0.0884985
0.0885024
0.0885065
0.0885105
0.0885146
0.0885186
0.0885227
0.0885268
0.0885308
0.0885349
0.088539
0.0885431
0.0885472
0.0885513
0.0885554
0.0885595
0.0885636
0.0885677
0.0885718
0.0885759
0.08858
0.0885841
0.0885883
0.0885924
0.0885965
0.0886006
0.0886047
0.0886089
0.088613
0.0886171
0.0886213
0.0886254
0.0886295
0.0886337
0.0886378
0.088642
0.0886461
0.0886503
0.0886544
0.0886586
0.0886627
0.0886669
0.0886711
0.0886752
0.0886794
0.0886836
0.0886877
0.0886919
0.0886961
0.0887002
0.0887044
0.0887086
0.0887128
0.088717
0.0887212
0.0887254
0.0887296
0.0887338
0.088738
0.0887422
0.0887464
0.0887506
0.0887548
0.088759
0.0887632
0.0887674
0.0887716
0.0887758
0.0887801
0.0887843
0.0887885
0.0887928
0.088797
0.0888012
0.0888055
0.0888097
0.0888139
0.0888182
0.0888224
0.0888267
0.0888309
0.0888352
0.0888394
0.0888437
0.0888479
0.0888522
0.0888565
0.0888607
0.088865
0.0888693
0.0888735
0.0888778
0.0888821
0.0888864
0.0888907
0.0888949
0.0888992
0.0889035
0.0889078
0.0889121
0.0889164
0.0889207
0.088925
0.0889293
0.0889336
0.0889379
0.0889422
0.0889466
0.0889509
0.0889552
0.0889595
0.0889638
0.0889682
0.0889725
0.0889768
0.0889812
0.0889855
0.0889898
0.0889942
0.0889985
0.0890029
0.0890072
0.0890116
0.0890159
0.0890203
0.0890246
0.089029
0.0890333
0.0890377
0.0890421
0.0890464
0.0890508
0.0890552
0.0890596
0.0890639
0.0890683
0.0890727
0.0890771
0.0890815
0.0890859
0.0890903
0.0890947
0.0890991
0.0891035
0.0891079
0.0891123
0.0891167
0.0891211
0.0891255
0.0891299
0.0891344
0.0891388
0.0891432
0.0891476
0.0891521
0.0891565
0.0891609
0.0891654
0.0891698
0.0891742
0.0891787
0.0891831
0.0891876
0.089192
0.0891965
0.089201
0.0892054
0.0892099
0.0892143
0.0892188
0.0892233
0.0892278
0.0892322
0.0892367
0.0892412
0.0892457
0.0892502
0.0892546
0.0892591
0.0892636
0.0892681
0.0892726
0.0892771
0.0892816
0.0892861
0.0892906
0.0892951
0.0892997
0.0893042
0.0893087
0.0893132
0.0893177
0.0893223
0.0893268
0.0893313
0.0893359
0.0893404
0.0893449
0.0893495
0.089354
0.0893586
0.0893631
0.0893677
0.0893722
0.0893768
0.0893814
0.0893859
0.0893905
0.0893951
0.0893996
0.0894042
0.0894088
0.0894134
0.0894179
0.0894225
0.0894271
0.0894317
0.0894363
0.0894409
0.0894455
0.0894501
0.0894547
0.0894593
0.0894639
0.0894685
0.0894731
0.0894777
0.0894824
0.089487
0.0894916
0.0894962
0.0895009
0.0895055
0.0895101
0.0895148
0.0895194
0.0895241
0.0895287
0.0895334
0.089538
0.0895427
0.0895473
0.089552
0.0895566
0.0895613
0.089566
0.0895706
0.0895753
0.08958
0.0895847
0.0895894
0.089594
0.0895987
0.0896034
0.0896081
0.0896128
0.0896175
0.0896222
0.0896269
0.0896316
0.0896363
0.089641
0.0896458
0.0896505
0.0896552
0.0896599
0.0896646
0.0896694
0.0896741
0.0896788
0.0896836
0.0896883
0.0896931
0.0896978
0.0897026
0.0897073
0.0897121
0.0897168
0.0897216
0.0897264
0.0897311
0.0897359
0.0897406
0.0897454
0.0897502
0.089755
0.0897598
0.0897646
0.0897693
0.0897742
0.0897789
0.0897838
0.0897885
0.0897934
0.0897981
0.089803
0.0898077
0.0898126
0.0898174
0.0898223
0.0898271
0.0898319
0.0898368
0.0898416
0.0898468
0.0898512
0.0898571
0.0898603
0.0898679
0.0898628
0.0898628
0.0898628
1
0.660888
0.446896
0.35288
0.302032
0.269853
0.247505
0.231022
0.218332
0.20823
0.199971
0.193065
0.187182
0.18209
0.177623
0.173661
0.170112
0.166908
0.163994
0.16133
0.15888
0.156618
0.154522
0.152571
0.150751
0.149048
0.14745
0.145948
0.144532
0.143196
0.141933
0.140737
0.139603
0.138526
0.137502
0.136528
0.135602
0.134721
0.133883
0.133083
0.132322
0.131599
0.130913
0.130266
0.129657
0.129087
0.128555
0.12806
0.127603
0.127183
0.126799
0.126451
0.126134
0.125845
0.125578
0.125332
0.125103
0.124891
0.124697
0.12452
0.12436
0.124215
0.124085
0.123966
0.123856
0.123753
0.123656
0.123567
0.123485
0.123413
0.123349
0.123297
0.123254
0.123221
0.123197
0.123181
0.12317
0.123165
0.123162
0.123163
0.123165
0.123168
0.123172
0.123177
0.123182
0.123187
0.123192
0.123197
0.123203
0.123208
0.123214
0.12322
0.123225
0.123231
0.123237
0.123242
0.123248
0.123254
0.123259
0.123265
0.123271
0.123276
0.123282
0.123288
0.123293
0.123299
0.123305
0.123311
0.123316
0.123322
0.123328
0.123333
0.123339
0.123345
0.123351
0.123356
0.123362
0.123368
0.123374
0.123379
0.123385
0.123391
0.123397
0.123402
0.123408
0.123414
0.12342
0.123425
0.123431
0.123437
0.123443
0.123449
0.123454
0.12346
0.123466
0.123472
0.123478
0.123483
0.123489
0.123495
0.123501
0.123507
0.123513
0.123518
0.123524
0.12353
0.123536
0.123542
0.123548
0.123553
0.123559
0.123565
0.123571
0.123577
0.123583
0.123589
0.123594
0.1236
0.123606
0.123612
0.123618
0.123624
0.12363
0.123636
0.123641
0.123647
0.123653
0.123659
0.123665
0.123671
0.123677
0.123683
0.123689
0.123695
0.123701
0.123707
0.123712
0.123718
0.123724
0.12373
0.123736
0.123742
0.123748
0.123754
0.12376
0.123766
0.123772
0.123778
0.123784
0.12379
0.123796
0.123802
0.123808
0.123814
0.12382
0.123826
0.123832
0.123838
0.123844
0.12385
0.123856
0.123862
0.123868
0.123874
0.12388
0.123886
0.123892
0.123898
0.123904
0.12391
0.123916
0.123922
0.123928
0.123934
0.12394
0.123947
0.123953
0.123959
0.123965
0.123971
0.123977
0.123983
0.123989
0.123995
0.124001
0.124007
0.124013
0.12402
0.124026
0.124032
0.124038
0.124044
0.12405
0.124056
0.124062
0.124069
0.124075
0.124081
0.124087
0.124093
0.124099
0.124105
0.124112
0.124118
0.124124
0.12413
0.124136
0.124142
0.124149
0.124155
0.124161
0.124167
0.124173
0.12418
0.124186
0.124192
0.124198
0.124204
0.124211
0.124217
0.124223
0.124229
0.124235
0.124242
0.124248
0.124254
0.12426
0.124267
0.124273
0.124279
0.124285
0.124292
0.124298
0.124304
0.12431
0.124317
0.124323
0.124329
0.124336
0.124342
0.124348
0.124354
0.124361
0.124367
0.124373
0.12438
0.124386
0.124392
0.124399
0.124405
0.124411
0.124418
0.124424
0.12443
0.124437
0.124443
0.124449
0.124456
0.124462
0.124468
0.124475
0.124481
0.124487
0.124494
0.1245
0.124507
0.124513
0.124519
0.124526
0.124532
0.124539
0.124545
0.124551
0.124558
0.124564
0.124571
0.124577
0.124583
0.12459
0.124596
0.124603
0.124609
0.124616
0.124622
0.124629
0.124635
0.124641
0.124648
0.124654
0.124661
0.124667
0.124674
0.12468
0.124687
0.124693
0.1247
0.124706
0.124713
0.124719
0.124726
0.124732
0.124739
0.124745
0.124752
0.124758
0.124765
0.124771
0.124778
0.124785
0.124791
0.124798
0.124804
0.124811
0.124817
0.124824
0.12483
0.124837
0.124844
0.12485
0.124857
0.124863
0.12487
0.124877
0.124883
0.12489
0.124896
0.124903
0.12491
0.124916
0.124923
0.124929
0.124936
0.124943
0.124949
0.124956
0.124963
0.124969
0.124976
0.124983
0.124989
0.124996
0.125003
0.125009
0.125016
0.125023
0.125029
0.125036
0.125043
0.12505
0.125056
0.125063
0.12507
0.125077
0.125083
0.125091
0.125096
0.125106
0.1251
0.1251
0.1251
1
0.776803
0.557827
0.44688
0.384104
0.343747
0.315514
0.294609
0.278474
0.265612
0.255087
0.246284
0.238783
0.232291
0.226598
0.221548
0.217027
0.212946
0.209236
0.205845
0.202727
0.199849
0.197181
0.1947
0.192385
0.19022
0.188188
0.186278
0.184478
0.18278
0.181174
0.179654