# vtk DataFile Version 2.0
FlowField
ASCII
DATASET STRUCTURED_GRID
DIMENSIONS 400 1 200
POINTS 80000 float
0 0 0
0.08 0 0
0.16 0 0
0.24 0 0
0.32 0 0
0.4 0 0
0.48 0 0
0.56 0 0
0.64 0 0
0.72 0 0
0.8 0 0
0.88 0 0
0.96 0 0
1.04 0 0
1.12 0 0
1.2 0 0
1.28 0 0
1.36 0 0
1.44 0 0
1.52 0 0
1.6 0 0
1.68 0 0
1.76 0 0
1.84 0 0
1.92 0 0
2 0 0
2.08 0 0
2.16 0 0
2.24 0 0
2.32 0 0
2.4 0 0
2.48 0 0
2.56 0 0
2.64 0 0
2.72 0 0
2.8 0 0
2.88 0 0
2.96 0 0
3.04 0 0
3.12 0 0
3.2 0 0
3.28 0 0
3.36 0 0
3.44 0 0
3.52 0 0
3.6 0 0
3.68 0 0
3.76 0 0
3.84 0 0
3.92 0 0
4 0 0
4.08 0 0
4.16 0 0
4.24 0 0
4.32 0 0
4.4 0 0
4.48 0 0
4.56 0 0
4.64 0 0
4.72 0 0
4.8 0 0
4.88 0 0
4.96 0 0
5.04 0 0
5.12 0 0
5.2 0 0
5.28 0 0
5.36 0 0
5.44 0 0
5.52 0 0
5.6 0 0
5.68 0 0
5.76 0 0
5.84 0 0
5.92 0 0
6 0 0
6.08 0 0
6.16 0 0
6.24 0 0
6.32 0 0
6.4 0 0
6.48 0 0
6.56 0 0
6.64 0 0
6.72 0 0
6.8 0 0
6.88 0 0
6.96 0 0
7.04 0 0
7.12 0 0
7.2 0 0
7.28 0 0
7.36 0 0
7.44 0 0
7.52 0 0
7.6 0 0
7.68 0 0
7.76 0 0
7.84 0 0
7.92 0 0
8 0 0
8.08 0 0
8.16 0 0
8.24 0 0
8.32 0 0
8.4 0 0
8.48 0 0
8.56 0 0
8.64 0 0
8.72 0 0
8.8 0 0
8.88 0 0
8.96 0 0
9.04 0 0
9.12 0 0
9.2 0 0
9.28 0 0
9.36 0 0
9.44 0 0
9.52 0 0
9.6 0 0
9.68 0 0
9.76 0 0
9.84 0 0
9.92 0 0
10 0 0
10.08 0 0
10.16 0 0
10.24 0 0
10.32 0 0
10.4 0 0
10.48 0 0
10.56 0 0
10.64 0 0
10.72 0 0
10.8 0 0
10.88 0 0
10.96 0 0
11.04 0 0
11.12 0 0
11.2 0 0
11.28 0 0
11.36 0 0
11.44 0 0
11.52 0 0
11.6 0 0
11.68 0 0
11.76 0 0
11.84 0 0
11.92 0 0
12 0 0
12.08 0 0
12.16 0 0
12.24 0 0
12.32 0 0
12.4 0 0
12.48 0 0
12.56 0 0
12.64 0 0
12.72 0 0
12.8 0 0
12.88 0 0
12.96 0 0
13.04 0 0
13.12 0 0
13.2 0 0
13.28 0 0
13.36 0 0
13.44 0 0
13.52 0 0
13.6 0 0
13.68 0 0
13.76 0 0
13.84 0 0
13.92 0 0
14 0 0
14.08 0 0
14.16 0 0
14.24 0 0
14.32 0 0
14.4 0 0
14.48 0 0
14.56 0 0
14.64 0 0
14.72 0 0
14.8 0 0
14.88 0 0
14.96 0 0
15.04 0 0
15.12 0 0
15.2 0 0
15.28 0 0
15.36 0 0
15.44 0 0
15.52 0 0
15.6 0 0
15.68 0 0
15.76 0 0
15.84 0 0
15.92 0 0
16 0 0
16.08 0 0
16.16 0 0
16.24 0 0
16.32 0 0
16.4 0 0
16.48 0 0
16.56 0 0
16.64 0 0
16.72 0 0
16.8 0 0
16.88 0 0
16.96 0 0
17.04 0 0
17.12 0 0
17.2 0 0
17.28 0 0
17.36 0 0
17.44 0 0
17.52 0 0
17.6 0 0
17.68 0 0
17.76 0 0
17.84 0 0
17.92 0 0
18 0 0
18.08 0 0
18.16 0 0
18.24 0 0
18.32 0 0
18.4 0 0
18.48 0 0
18.56 0 0
18.64 0 0
18.72 0 0
18.8 0 0
18.88 0 0
18.96 0 0
19.04 0 0
19.12 0 0
19.2 0 0
19.28 0 0
19.36 0 0
19.44 0 0
19.52 0 0
19.6 0 0
19.68 0 0
19.76 0 0
19.84 0 0
19.92 0 0
20 0 0
20.08 0 0
20.16 0 0
20.24 0 0
20.32 0 0
20.4 0 0
20.48 0 0
20.56 0 0
20.64 0 0
20.72 0 0
20.8 0 0
20.88 0 0
20.96 0 0
21.04 0 0
21.12 0 0
21.2 0 0
21.28 0 0
21.36 0 0
21.44 0 0
21.52 0 0
21.6 0 0
21.68 0 0
21.76 0 0
21.84 0 0
21.92 0 0
22 0 0
22.08 0 0
22.16 0 0
22.24 0 0
22.32 0 0
22.4 0 0
22.48 0 0
22.56 0 0
22.64 0 0
22.72 0 0
22.8 0 0
22.88 0 0
22.96 0 0
23.04 0 0
23.12 0 0
23.2 0 0
23.28 0 0
23.36 0 0
23.44 0 0
23.52 0 0
23.6 0 0
23.68 0 0
23.76 0 0
23.84 0 0
23.92 0 0
24 0 0
24.08 0 0
24.16 0 0
24.24 0 0
24.32 0 0
24.4 0 0
24.48 0 0
24.56 0 0
24.64 0 0
24.72 0 0
24.8 0 0
24.88 0 0
24.96 0 0
25.04 0 0
25.12 0 0
25.2 0 0
25.28 0 0
25.36 0 0
25.44 0 0
25.52 0 0
25.6 0 0
25.68 0 0
25.76 0 0
25.84 0 0
25.92 0 0
26 0 0
26.08 0 0
26.16 0 0
26.24 0 0
26.32 0 0
26.4 0 0
26.48 0 0
26.56 0 0
26.64 0 0
26.72 0 0
26.8 0 0
26.88 0 0
26.96 0 0
27.04 0 0
27.12 0 0
27.2 0 0
27.28 0 0
27.36 0 0
27.44 0 0
27.52 0 0
27.6 0 0
27.68 0 0
27.76 0 0
27.84 0 0
27.92 0 0
28 0 0
28.08 0 0
28.16 0 0
28.24 0 0
28.32 0 0
28.4 0 0
28.48 0 0
28.56 0 0
28.64 0 0
28.72 0 0
28.8 0 0
28.88 0 0
28.96 0 0
29.04 0 0
29.12 0 0
29.2 0 0
29.28 0 0
29.36 0 0
29.44 0 0
29.52 0 0
29.6 0 0
29.68 0 0
29.76 0 0
29.84 0 0
29.92 0 0
30 0 0
30.08 0 0
30.16 0 0
30.24 0 0
30.32 0 0
30.4 0 0
30.48 0 0
30.56 0 0
30.64 0 0
30.72 0 0
30.8 0 0
30.88 0 0
30.96 0 0
31.04 0 0
31.12 0 0
31.2 0 0
31.28 0 0
31.36 0 0
31.44 0 0
31.52 0 0
31.6 0 0
31.68 0 0
31.76 0 0
31.84 0 0
31.92 0 0
0 0.005 0
0.08 0.005 0
0.16 0.005 0
0.24 0.005 0
0.32 0.005 0
0.4 0.005 0
0.48 0.005 0
0.56 0.005 0
0.64 0.005 0
0.72 0.005 0
0.8 0.005 0
0.88 0.005 0
0.96 0.005 0
1.04 0.005 0
1.12 0.005 0
1.2 0.005 0
1.28 0.005 0
1.36 0.005 0
1.44 0.005 0
1.52 0.005 0
1.6 0.005 0
1.68 0.005 0
1.76 0.005 0
1.84 0.005 0
1.92 0.005 0
2 0.005 0
2.08 0.005 0
2.16 0.005 0
2.24 0.005 0
2.32 0.005 0
2.4 0.005 0
2.48 0.005 0
2.56 0.005 0
2.64 0.005 0
2.72 0.005 0
2.8 0.005 0
2.88 0.005 0
2.96 0.005 0
3.04 0.005 0
3.12 0.005 0
3.2 0.005 0
3.28 0.005 0
3.36 0.005 0
3.44 0.005 0
3.52 0.005 0
3.6 0.005 0
3.68 0.005 0
3.76 0.005 0
3.84 0.005 0
3.92 0.005 0
4 0.005 0
4.08 0.005 0
4.16 0.005 0
4.24 0.005 0
4.32 0.005 0
4.4 0.005 0
4.48 0.005 0
4.56 0.005 0
4.64 0.005 0
4.72 0.005 0
4.8 0.005 0
4.88 0.005 0
4.96 0.005 0
5.04 0.005 0
5.12 0.005 0
5.2 0.005 0
5.28 0.005 0
5.36 0.005 0
5.44 0.005 0
5.52 0.005 0
5.6 0.005 0
5.68 0.005 0
5.76 0.005 0
5.84 0.005 0
5.92 0.005 0
6 0.005 0
6.08 0.005 0
6.16 0.005 0
6.24 0.005 0
6.32 0.005 0
6.4 0.005 0
6.48 0.005 0
6.56 0.005 0
6.64 0.005 0
6.72 0.005 0
6.8 0.005 0
6.88 0.005 0
6.96 0.005 0
7.04 0.005 0
7.12 0.005 0
7.2 0.005 0
7.28 0.005 0
7.36 0.005 0
7.44 0.005 0
7.52 0.005 0
7.6 0.005 0
7.68 0.005 0
7.76 0.005 0
7.84 0.005 0
7.92 0.005 0
8 0.005 0
8.08 0.005 0
8.16 0.005 0
8.24 0.005 0
8.32 0.005 0
8.4 0.005 0
8.48 0.005 0
8.56 0.005 0
8.64 0.005 0
8.72 0.005 0
8.8 0.005 0
8.88 0.005 0
8.96 0.005 0
9.04 0.005 0
9.12 0.005 0
9.2 0.005 0
9.28 0.005 0
9.36 0.005 0
9.44 0.005 0
9.52 0.005 0
9.6 0.005 0
9.68 0.005 0
9.76 0.005 0
9.84 0.005 0
9.92 0.005 0
10 0.005 0
10.08 0.005 0
10.16 0.005 0
10.24 0.005 0
10.32 0.005 0
10.4 0.005 0
10.48 0.005 0
10.56 0.005 0
10.64 0.005 0
10.72 0.005 0
10.8 0.005 0
10.88 0.005 0
10.96 0.005 0
11.04 0.005 0
11.12 0.005 0
11.2 0.005 0
11.28 0.005 0
11.36 0.005 0
11.44 0.005 0
11.52 0.005 0
11.6 0.005 0
11.68 0.005 0
11.76 0.005 0
11.84 0.005 0
11.92 0.005 0
12 0.005 0
12.08 0.005 0
12.16 0.005 0
12.24 0.005 0
12.32 0.005 0
12.4 0.005 0
12.48 0.005 0
12.56 0.005 0
12.64 0.005 0
12.72 0.005 0
12.8 0.005 0
12.88 0.005 0
12.96 0.005 0
13.04 0.005 0
13.12 0.005 0
13.2 0.005 0
13.28 0.005 0
13.36 0.005 0
13.44 0.005 0
13.52 0.005 0
13.6 0.005 0
13.68 0.005 0
13.76 0.005 0
13.84 0.005 0
13.92 0.005 0
14 0.005 0
14.08 0.005 0
14.16 0.005 0
14.24 0.005 0
14.32 0.005 0
14.4 0.005 0
14.48 0.005 0
14.56 0.005 0
14.64 0.005 0
14.72 0.005 0
14.8 0.005 0
14.88 0.005 0
14.96 0.005 0
15.04 0.005 0
15.12 0.005 0
15.2 0.005 0
15.28 0.005 0
15.36 0.005 0
15.44 0.005 0
15.52 0.005 0
15.6 0.005 0
15.68 0.005 0
15.76 0.005 0
15.84 0.005 0
15.92 0.005 0
16 0.005 0
16.08 0.005 0
16.16 0.005 0
16.24 0.005 0
16.32 0.005 0
16.4 0.005 0
16.48 0.005 0
16.56 0.005 0
16.64 0.005 0
16.72 0.005 0
16.8 0.005 0
16.88 0.005 0
16.96 0.005 0
17.04 0.005 0
17.12 0.005 0
17.2 0.005 0
17.28 0.005 0
17.36 0.005 0
17.44 0.005 0
17.52 0.005 0
17.6 0.005 0
17.68 0.005 0
17.76 0.005 0
17.84 0.005 0
17.92 0.005 0
18 0.005 0
18.08 0.005 0
18.16 0.005 0
18.24 0.005 0
18.32 0.005 0
18.4 0.005 0
18.48 0.005 0
18.56 0.005 0
18.64 0.005 0
18.72 0.005 0
18.8 0.005 0
18.88 0.005 0
18.96 0.005 0
19.04 0.005 0
19.12 0.005 0
19.2 0.005 0
19.28 0.005 0
19.36 0.005 0
19.44 0.005 0
19.52 0.005 0
19.6 0.005 0
19.68 0.005 0
19.76 0.005 0
19.84 0.005 0
19.92 0.005 0
20 0.005 0
20.08 0.005 0
20.16 0.005 0
20.24 0.005 0
20.32 0.005 0
20.4 0.005 0
20.48 0.005 0
20.56 0.005 0
20.64 0.005 0
20.72 0.005 0
20.8 0.005 0
20.88 0.005 0
20.96 0.005 0
21.04 0.005 0
21.12 0.005 0
21.2 0.005 0
21.28 0.005 0
21.36 0.005 0
21.44 0.005 0
21.52 0.005 0
21.6 0.005 0
21.68 0.005 0
21.76 0.005 0
21.84 0.005 0
21.92 0.005 0
22 0.005 0
22.08 0.005 0
22.16 0.005 0
22.24 0.005 0
22.32 0.005 0
22.4 0.005 0
22.48 0.005 0
22.56 0.005 0
22.64 0.005 0
22.72 0.005 0
22.8 0.005 0
22.88 0.005 0
22.96 0.005 0
23.04 0.005 0
23.12 0.005 0
23.2 0.005 0
23.28 0.005 0
23.36 0.005 0
23.44 0.005 0
23.52 0.005 0
23.6 0.005 0
23.68 0.005 0
23.76 0.005 0
23.84 0.005 0
23.92 0.005 0
24 0.005 0
24.08 0.005 0
24.16 0.005 0
24.24 0.005 0
24.32 0.005 0
24.4 0.005 0
24.48 0.005 0
24.56 0.005 0
24.64 0.005 0
24.72 0.005 0
24.8 0.005 0
24.88 0.005 0
24.96 0.005 0
25.04 0.005 0
25.12 0.005 0
25.2 0.005 0
25.28 0.005 0
25.36 0.005 0
25.44 0.005 0
25.52 0.005 0
25.6 0.005 0
25.68 0.005 0
25.76 0.005 0
25.84 0.005 0
25.92 0.005 0
26 0.005 0
26.08 0.005 0
26.16 0.005 0
26.24 0.005 0
26.32 0.005 0
26.4 0.005 0
26.48 0.005 0
26.56 0.005 0
26.64 0.005 0
26.72 0.005 0
26.8 0.005 0
26.88 0.005 0
26.96 0.005 0
27.04 0.005 0
27.12 0.005 0
27.2 0.005 0
27.28 0.005 0
27.36 0.005 0
27.44 0.005 0
27.52 0.005 0
27.6 0.005 0
27.68 0.005 0
27.76 0.005 0
27.84 0.005 0
27.92 0.005 0
28 0.005 0
28.08 0.005 0
28.16 0.005 0
28.24 0.005 0
28.32 0.005 0
28.4 0.005 0
28.48 0.005 0
28.56 0.005 0
28.64 0.005 0
28.72 0.005 0
28.8 0.005 0
28.88 0.005 0
28.96 0.005 0
29.04 0.005 0
29.12 0.005 0
29.2 0.005 0
29.28 0.005 0
29.36 0.005 0
29.44 0.005 0
29.52 0.005 0
29.6 0.005 0
29.68 0.005 0
29.76 0.005 0
29.84 0.005 0
29.92 0.005 0
30 0.005 0
30.08 0.005 0
30.16 0.005 0
30.24 0.005 0
30.32 0.005 0
30.4 0.005 0
30.48 0.005 0
30.56 0.005 0
30.64 0.005 0
30.72 0.005 0
30.8 0.005 0
30.88 0.005 0
30.96 0.005 0
31.04 0.005 0
31.12 0.005 0
31.2 0.005 0
31.28 0.005 0
31.36 0.005 0
31.44 0.005 0
31.52 0.005 0
31.6 0.005 0
31.68 0.005 0
31.76 0.005 0
31.84 0.005 0
31.92 0.005 0
0 0.01 0
0.08 0.01 0
0.16 0.01 0
0.24 0.01 0
0.32 0.01 0
0.4 0.01 0
0.48 0.01 0
0.56 0.01 0
0.64 0.01 0
0.72 0.01 0
0.8 0.01 0
0.88 0.01 0
0.96 0.01 0
1.04 0.01 0
1.12 0.01 0
1.2 0.01 0
1.28 0.01 0
1.36 0.01 0
1.44 0.01 0
1.52 0.01 0
1.6 0.01 0
1.68 0.01 0
1.76 0.01 0
1.84 0.01 0
1.92 0.01 0
2 0.01 0
2.08 0.01 0
2.16 0.01 0
2.24 0.01 0
2.32 0.01 0
2.4 0.01 0
2.48 0.01 0
2.56 0.01 0
2.64 0.01 0
2.72 0.01 0
2.8 0.01 0
2.88 0.01 0
2.96 0.01 0
3.04 0.01 0
3.12 0.01 0
3.2 0.01 0
3.28 0.01 0
3.36 0.01 0
3.44 0.01 0
3.52 0.01 0
3.6 0.01 0
3.68 0.01 0
3.76 0.01 0
3.84 0.01 0
3.92 0.01 0
4 0.01 0
4.08 0.01 0
4.16 0.01 0
4.24 0.01 0
4.32 0.01 0
4.4 0.01 0
4.48 0.01 0
4.56 0.01 0
4.64 0.01 0
4.72 0.01 0
4.8 0.01 0
4.88 0.01 0
4.96 0.01 0
5.04 0.01 0
5.12 0.01 0
[...]
POINT_DATA 80000

SCALARS u float 1
LOOKUP_TABLE default
0
-0.131672
-0.0682851
-0.052318
-0.0444483
-0.0396146
-0.036311
-0.0338994
-0.0320579
-0.0306092
-0.0294427
-0.0284792
-0.0276649
-0.0269753
-0.0264087
-0.0259682
-0.0256459
-0.0254189
-0.0252582
-0.0251389
-0.0250456
-0.0249718
-0.0249159
-0.0248772
-0.0248538
-0.0248428
-0.0248405
-0.0248432
-0.0248484
-0.0248542
-0.0248596
-0.0248644
-0.0248684
-0.0248719
-0.0248749
-0.0248777
-0.0248803
-0.0248828
-0.0248853
-0.0248878
-0.0248903
-0.0248928
-0.0248953
-0.0248979
-0.0249004
-0.024903
-0.0249056
-0.0249082
-0.0249108
-0.0249134
-0.024916
-0.0249187
-0.0249213
-0.024924
-0.0249267
-0.0249293
-0.024932
-0.0249347
-0.0249374
-0.0249401
-0.0249428
-0.0249455
-0.0249482
-0.0249509
-0.0249537
-0.0249564
-0.0249592
-0.0249619
-0.0249646
-0.0249674
-0.0249702
-0.0249729
-0.0249757
-0.0249785
-0.0249813
-0.024984
-0.0249868
-0.0249896
-0.0249924
-0.0249952
-0.024998
-0.0250008
-0.0250037
-0.0250065
-0.0250093
-0.0250121
-0.0250149
-0.0250178
-0.0250206
-0.0250234
-0.0250262
-0.0250291
-0.0250319
-0.0250347
-0.0250376
-0.0250404
-0.0250432
-0.025046
-0.0250489
-0.0250517
-0.0250545
-0.0250573
-0.0250601
-0.0250629
-0.0250657
-0.0250684
-0.0250712
-0.0250739
-0.0250767
-0.0250794
-0.0250821
-0.0250848
-0.0250874
-0.0250901
-0.0250927
-0.0250953
-0.0250978
-0.0251003
-0.0251028
-0.0251053
-0.0251077
-0.0251101
-0.0251124
-0.0251147
-0.0251169
-0.0251191
-0.0251212
-0.0251232
-0.0251252
-0.0251271
-0.0251289
-0.0251307
-0.0251323
-0.0251339
-0.0251354
-0.0251368
-0.025138
-0.0251392
-0.0251402
-0.0251412
-0.0251419
-0.0251426
-0.0251431
-0.0251435
-0.0251437
-0.0251438
-0.0251437
-0.0251434
-0.0251429
-0.0251423
-0.0251415
-0.0251405
-0.0251392
-0.0251378
-0.0251362
-0.0251343
-0.0251322
-0.0251299
-0.0251274
-0.0251246
-0.0251216
-0.0251183
-0.0251148
-0.025111
-0.025107
-0.0251027
-0.0250982
-0.0250934
-0.0250883
-0.025083
-0.0250774
-0.0250715
-0.0250654
-0.025059
-0.0250524
-0.0250455
-0.0250383
-0.0250309
-0.0250233
-0.0250154
-0.0250073
-0.024999
-0.0249905
-0.0249817
-0.0249728
-0.0249636
-0.0249543
-0.0249448
-0.0249352
-0.0249254
-0.0249155
-0.0249054
-0.0248953
-0.0248851
-0.0248748
-0.0248644
-0.0248539
-0.0248435
-0.024833
-0.0248225
-0.024812
-0.0248016
-0.0247912
-0.0247809
-0.0247706
-0.0247605
-0.0247504
-0.0247405
-0.0247307
-0.0247211
-0.0247116
-0.0247024
-0.0246933
-0.0246844
-0.0246758
-0.0246674
-0.0246593
-0.0246514
-0.0246438
-0.0246365
-0.0246295
-0.0246227
-0.0246163
-0.0246102
-0.0246045
-0.024599
-0.024594
-0.0245892
-0.0245848
-0.0245807
-0.024577
-0.0245737
-0.0245707
-0.024568
-0.0245657
-0.0245637
-0.0245621
-0.0245609
-0.0245599
-0.0245593
-0.0245591
-0.0245591
-0.0245595
-0.0245602
-0.0245612
-0.0245625
-0.0245641
-0.024566
-0.0245681
-0.0245705
-0.0245732
-0.0245761
-0.0245792
-0.0245826
-0.0245862
-0.02459
-0.024594
-0.0245981
-0.0246025
-0.024607
-0.0246117
-0.0246165
-0.0246215
-0.0246266
-0.0246318
-0.0246371
-0.0246426
-0.0246481
-0.0246537
-0.0246594
-0.0246651
-0.0246709
-0.0246768
-0.0246827
-0.0246887
-0.0246946
-0.0247006
-0.0247067
-0.0247127
-0.0247187
-0.0247248
-0.0247308
-0.0247369
-0.0247429
-0.0247489
-0.0247549
-0.0247609
-0.0247668
-0.0247727
-0.0247786
-0.0247844
-0.0247902
-0.024796
-0.0248017
-0.0248074
-0.0248131
-0.0248186
-0.0248242
-0.0248297
-0.0248351
-0.0248405
-0.0248458
-0.0248511
-0.0248564
-0.0248615
-0.0248667
-0.0248717
-0.0248767
-0.0248817
-0.0248866
-0.0248914
-0.0248962
-0.024901
-0.0249057
-0.0249103
-0.0249149
-0.0249194
-0.0249239
-0.0249283
-0.0249326
-0.0249369
-0.0249412
-0.0249454
-0.0249495
-0.0249536
-0.0249577
-0.0249617
-0.0249656
-0.0249695
-0.0249733
-0.0249771
-0.0249809
-0.0249846
-0.0249882
-0.0249918
-0.0249953
-0.0249988
-0.0250023
-0.0250057
-0.025009
-0.0250123
-0.0250155
-0.0250187
-0.0250219
-0.025025
-0.025028
-0.0250311
-0.025034
-0.0250369
-0.0250398
-0.0250426
-0.0250454
-0.0250481
-0.0250507
-0.0250534
-0.0250559
-0.0250584
-0.0250609
-0.0250633
-0.0250657
-0.025068
-0.0250703
-0.0250725
-0.0250747
-0.0250768
-0.0250789
-0.0250809
-0.0250828
-0.0250847
-0.0250866
-0.0250884
-0.0250901
-0.0250918
-0.0250935
-0.0250951
-0.0250966
-0.0250981
-0.0250995
-0.0251008
-0.0251021
-0.0251034
-0.0251046
-0.0251056
-0.025107
-0.0251074
-0.0251093
-0.0251087
-0.0251115
-0.0251098
-0.0251133
-0.0251111
-0.0251143
-0.0251125
-0.0251149
-0.0251145
-0.0251118
-0.025124
-0.025092
-0.025092
-0.025092
1
0.131672
0.0682851
0.052318
0.0444483
0.0396146
0.036311
0.0338994
0.0320579
0.0306092
0.0294427
0.0284792
0.0276649
0.0269753
0.0264087
0.0259682
0.0256459
0.0254189
0.0252582
0.0251389
0.0250456
0.0249718
0.0249159
0.0248772
0.0248538
0.0248428
0.0248405
0.0248432
0.0248484
0.0248542
0.0248596
0.0248644
0.0248684
0.0248719
0.0248749
0.0248777
0.0248803
0.0248828
0.0248853
0.0248878
0.0248903
0.0248928
0.0248953
0.0248979
0.0249004
0.024903
0.0249056
0.0249082
0.0249108
0.0249134
0.024916
0.0249187
0.0249213
0.024924
0.0249267
0.0249293
0.024932
0.0249347
0.0249374
0.0249401
0.0249428
0.0249455
0.0249482
0.0249509
0.0249537
0.0249564
0.0249592
0.0249619
0.0249646
0.0249674
0.0249702
0.0249729
0.0249757
0.0249785
0.0249813
0.024984
0.0249868
0.0249896
0.0249924
0.0249952
0.024998
0.0250008
0.0250037
0.0250065
0.0250093
0.0250121
0.0250149
0.0250178
0.0250206
0.0250234
0.0250262
0.0250291
0.0250319
0.0250347
0.0250376
0.0250404
0.0250432
0.025046
0.0250489
0.0250517
0.0250545
0.0250573
0.0250601
0.0250629
0.0250657
0.0250684
0.0250712
0.0250739
0.0250767
0.0250794
0.0250821
0.0250848
0.0250874
0.0250901
0.0250927
0.0250953
0.0250978
0.0251003
0.0251028
0.0251053
0.0251077
0.0251101
0.0251124
0.0251147
0.0251169
0.0251191
0.0251212
0.0251232
0.0251252
0.0251271
0.0251289
0.0251307
0.0251323
0.0251339
0.0251354
0.0251368
0.025138
0.0251392
0.0251402
0.0251412
0.0251419
0.0251426
0.0251431
0.0251435
0.0251437
0.0251438
0.0251437
0.0251434
0.0251429
0.0251423
0.0251415
0.0251405
0.0251392
0.0251378
0.0251362
0.0251343
0.0251322
0.0251299
0.0251274
0.0251246
0.0251216
0.0251183
0.0251148
0.025111
0.025107
0.0251027
0.0250982
0.0250934
0.0250883
0.025083
0.0250774
0.0250715
0.0250654
0.025059
0.0250524
0.0250455
0.0250383
0.0250309
0.0250233
0.0250154
0.0250073
0.024999
0.0249905
0.0249817
0.0249728
0.0249636
0.0249543
0.0249448
0.0249352
0.0249254
0.0249155
0.0249054
0.0248953
0.0248851
0.0248748
0.0248644
0.0248539
0.0248435
0.024833
0.0248225
0.024812
0.0248016
0.0247912
0.0247809
0.0247706
0.0247605
0.0247504
0.0247405
0.0247307
0.0247211
0.0247116
0.0247024
0.0246933
0.0246844
0.0246758
0.0246674
0.0246593
0.0246514
0.0246438
0.0246365
0.0246295
0.0246227
0.0246163
0.0246102
0.0246045
0.024599
0.024594
0.0245892
0.0245848
0.0245807
0.024577
0.0245737
0.0245707
0.024568
0.0245657
0.0245637
0.0245621
0.0245609
0.0245599
0.0245593
0.0245591
0.0245591
0.0245595
0.0245602
0.0245612
0.0245625
0.0245641
0.024566
0.0245681
0.0245705
0.0245732
0.0245761
0.0245792
0.0245826
0.0245862
0.02459
0.024594
0.0245981
0.0246025
0.024607
0.0246117
0.0246165
0.0246215
0.0246266
0.0246318
0.0246371
0.0246426
0.0246481
0.0246537
0.0246594
0.0246651
0.0246709
0.0246768
0.0246827
0.0246887
0.0246946
0.0247006
0.0247067
0.0247127
0.0247187
0.0247248
0.0247308
0.0247369
0.0247429
0.0247489
0.0247549
0.0247609
0.0247668
0.0247727
0.0247786
0.0247844
0.0247902
0.024796
0.0248017
0.0248074
0.0248131
0.0248186
0.0248242
0.0248297
0.0248351
0.0248405
0.0248458
0.0248511
0.0248564
0.0248615
0.0248667
0.0248717
0.0248767
0.0248817
0.0248866
0.0248914
0.0248962
0.024901
0.0249057
0.0249103
0.0249149
0.0249194
0.0249239
0.0249283
0.0249326
0.0249369
0.0249412
0.0249454
0.0249495
0.0249536
0.0249577
0.0249617
0.0249656
0.0249695
0.0249733
0.0249771
0.0249809
0.0249846
0.0249882
0.0249918
0.0249953
0.0249988
0.0250023
0.0250057
0.025009
0.0250123
0.0250155
0.0250187
0.0250219
0.025025
0.025028
0.0250311
0.025034
0.0250369
0.0250398
0.0250426
0.0250454
0.0250481
0.0250507
0.0250534
0.0250559
0.0250584
0.0250609
0.0250633
0.0250657
0.025068
0.0250703
0.0250725
0.0250747
0.0250768
0.0250789
0.0250809
0.0250828
0.0250847
0.0250866
0.0250884
0.0250901
0.0250918
0.0250935
0.0250951
0.0250966
0.0250981
0.0250995
0.0251008
0.0251021
0.0251034
0.0251046
0.0251056
0.025107
0.0251074
0.0251093
0.0251087
0.0251115
0.0251098
0.0251133
0.0251111
0.0251143
0.0251125
0.0251149
0.0251145
0.0251118
0.025124
0.025092
0.025092
0.025092
1
0.344906
0.20071
0.155027
0.131974
0.117707
0.107917
0.100754
0.0952781
0.0909683
0.0874965
0.0846301
0.0822156
0.0801843
0.0785282
0.0772484
0.0763124
0.0756497
0.0751766
0.0748242
0.0745511
0.0743391
0.0741823
0.0740768
0.0740156
0.0739888
0.0739854
0.0739953
0.0740112
0.0740284
0.0740444
0.0740583
0.0740702
0.0740805
0.0740897
0.0740981
0.0741062
0.074114
0.0741218
0.0741295
0.0741373
0.0741451
0.074153
0.0741609
0.0741688
0.0741768
0.0741848
0.0741929
0.074201
0.0742091
0.0742173
0.0742255
0.0742337
0.074242
0.0742502
0.0742585
0.0742668
0.0742752
0.0742835
0.0742919
0.0743003
0.0743087
0.0743171
0.0743255
0.074334
0.0743425
0.074351
0.0743595
0.074368
0.0743765
0.0743851
0.0743937
0.0744023
0.0744109
0.0744195
0.0744281
0.0744368
0.0744454
0.0744541
0.0744628
0.0744715
0.0744802
0.0744889
0.0744977
0.0745064
0.0745152
0.074524
0.0745327
0.0745415
0.0745503
0.0745591
0.0745679
0.0745768
0.0745856
0.0745944
0.0746032
0.0746121
0.0746209
0.0746297
0.0746385
0.0746474
0.0746562
0.074665
0.0746738
0.0746825
0.0746913
0.0747001
0.0747088
0.0747175
0.0747262
0.0747348
0.0747434
0.074752
0.0747606
0.074769
0.0747775
0.0747859
0.0747942
0.0748025
0.0748107
0.0748188
0.0748268
0.0748348
0.0748426
0.0748504
0.074858
0.0748655
0.0748729
0.0748802
0.0748873
0.0748942
0.074901
0.0749076
0.074914
0.0749202
0.0749263
0.0749321
0.0749376
0.0749429
0.074948
0.0749528
0.0749573
0.0749615
0.0749654
0.0749689
0.0749721
0.074975
0.0749775
0.0749796
0.0749813
0.0749826
0.0749834
0.0749839
0.0749838
0.0749833
0.0749823
0.0749807
0.0749787
0.0749761
0.074973
0.0749693
0.0749651
0.0749603
0.0749548
0.0749488
0.0749422
0.0749349
0.074927
0.0749185
0.0749094
0.0748995
0.0748891
0.074878
0.0748662
0.0748538
0.0748408
0.074827
0.0748127
0.0747977
0.0747821
0.0747659
0.074749
0.0747316
0.0747136
0.074695
0.0746758
0.0746561
0.0746359
0.0746153
0.0745941
0.0745725
0.0745505
0.0745281
0.0745053
0.0744822
0.0744587
0.074435
0.0744111
0.0743869
0.0743626
0.0743382
0.0743136
0.074289
0.0742643
0.0742397
0.074215
0.0741905
0.0741661
0.0741419
0.0741178
0.074094
0.0740705
0.0740472
0.0740244
0.0740018
0.0739797
0.0739581
0.0739369
0.0739162
0.0738961
0.0738765
0.0738575
0.0738392
0.0738215
0.0738045
0.0737881
0.0737725
0.0737576
0.0737434
0.07373
0.0737174
0.0737056
0.0736945
0.0736843
0.0736748
0.0736662
0.0736584
0.0736514
0.0736453
0.0736399
0.0736354
0.0736316
0.0736287
0.0736265
0.0736252
0.0736246
0.0736247
0.0736256
0.0736273
0.0736296
0.0736327
0.0736364
0.0736408
0.0736458
0.0736515
0.0736577
0.0736646
0.073672
0.07368
0.0736885
0.0736975
0.0737069
0.0737169
0.0737272
0.073738
0.0737492
0.0737607
0.0737726
0.0737848
0.0737973
0.0738102
0.0738233
0.0738366
0.0738502
0.0738639
0.0738779
0.0738921
0.0739064
0.0739208
0.0739354
0.0739501
0.0739649
0.0739798
0.0739947
0.0740098
0.0740248
0.0740399
0.074055
0.0740701
0.0740853
0.0741004
0.0741155
0.0741306
0.0741456
0.0741606
0.0741756
0.0741905
0.0742053
0.0742201
0.0742348
0.0742495
0.0742641
0.0742785
0.0742929
0.0743072
0.0743215
0.0743356
0.0743496
0.0743635
0.0743773
0.074391
0.0744046
0.0744181
0.0744315
0.0744448
0.074458
0.074471
0.074484
0.0744968
0.0745095
0.0745221
0.0745346
0.0745469
0.0745592
0.0745713
0.0745833
0.0745952
0.074607
0.0746187
0.0746302
0.0746417
0.074653
0.0746642
0.0746752
0.0746862
0.074697
0.0747078
0.0747184
0.0747289
0.0747392
0.0747495
0.0747596
0.0747696
0.0747795
0.0747893
0.074799
0.0748085
0.0748179
0.0748272
0.0748364
0.0748454
0.0748544
0.0748632
0.0748719
0.0748805
0.0748889
0.0748972
0.0749054
0.0749135
0.0749214
0.0749292
0.0749369
0.0749445
0.0749519
0.0749592
0.0749664
0.0749734
0.0749804
0.0749871
0.0749938
0.0750003
0.0750066
0.0750129
0.075019
0.0750249
0.0750307
0.0750364
0.0750419
0.0750473
0.0750525
0.0750575
0.0750627
0.075067
0.0750725
0.0750755
0.0750823
0.0750826
0.0750919
0.0750891
0.0751003
0.0750962
0.0751068
0.0751034
0.0751122
0.0751122
0.0751077
0.0751405
0.0750559
0.0750559
0.0750559
1
0.518796
0.327465
0.25544
0.217973
0.194576
0.178452
0.166625
0.157574
0.150444
0.144698
0.139955
0.135969
0.132631
0.129923
0.127837
0.12631
0.125223
0.124442
0.123859
0.12341
0.123066
0.122816
0.122652
0.122559
0.122521
0.122519
0.122537
0.122564
0.122592
0.122618
0.122641
0.122661
0.122678
0.122693
0.122708
0.122721
0.122735
0.122748
0.122761
0.122775
0.122788
0.122802
0.122815
0.122829
0.122843
0.122856
0.12287
0.122884
0.122898
0.122912
0.122926
0.12294
0.122954
0.122968
0.122983
0.122997
0.123011
0.123026
0.12304
0.123054
0.123069
0.123083
0.123097
0.123112
0.123127
0.123141
0.123156
0.12317
0.123185
0.1232
0.123214
0.123229
0.123244
0.123258
0.123273
0.123288
0.123303
0.123318
0.123333
0.123347
0.123362
0.123377
0.123392
0.123407
0.123422
0.123437
0.123452
0.123467
0.123483
0.123498
0.123513
0.123528
0.123543
0.123558
0.123573
0.123589
0.123604
0.123619
0.123634
0.123649
0.123664
0.12368
0.123695
0.12371
0.123725
0.12374
0.123755
0.12377
0.123786
0.123801
0.123816
0.123831
0.123845
0.12386
0.123875
0.12389
0.123905
0.123919
0.123934
0.123948
0.123962
0.123977
0.123991
0.124005
0.124019
0.124032
0.124046
0.124059
0.124072
0.124086
0.124098
0.124111
0.124123
0.124135
0.124147
0.124159
0.12417
0.124181
0.124192
0.124202
0.124212
0.124221
0.12423
0.124239
0.124247
0.124255
0.124262
0.124269
0.124276
0.124281
0.124286
0.124291
0.124295
0.124298
0.124301
0.124303
0.124304
0.124305
0.124305
0.124304
0.124302
0.1243
0.124297
0.124292
0.124288
0.124282
0.124275
0.124268
0.124259
0.12425
0.12424
0.124228
0.124216
0.124203
0.124189
0.124175
0.124159
0.124142
0.124124
0.124106
0.124086
0.124066
0.124045
0.124023
0.124
0.123976
0.123951
0.123926
0.1239
0.123873
0.123845
0.123817
0.123788
0.123759
0.123729
0.123698
0.123667
0.123636
0.123604
0.123572
0.123539
0.123507
0.123474
0.123441
0.123408
0.123374
0.123341
0.123308
0.123275
0.123242
0.123209
0.123176
0.123144
0.123112
0.123081
0.12305
0.123019
0.122989
0.12296
0.122931
0.122903
0.122876
0.12285
0.122824
0.122799
0.122775
0.122752
0.122729
0.122708
0.122688
0.122669
0.12265
0.122633
0.122617
0.122602
0.122588
0.122575
0.122563
0.122553
0.122543
0.122535
0.122527
0.122521
0.122516
0.122512
0.122509
0.122507
0.122506
0.122506
0.122508
0.12251
0.122513
0.122517
0.122523
0.122529
0.122536
0.122544
0.122552
0.122562
0.122572
0.122583
0.122595
0.122608
0.122621
0.122635
0.12265
0.122665
0.122681
0.122697
0.122714
0.122732
0.122749
0.122768
0.122786
0.122806
0.122825
0.122845
0.122865
0.122886
0.122906
0.122927
0.122948
0.12297
0.122991
0.123013
0.123035
0.123057
0.123079
0.123102
0.123124
0.123147
0.123169
0.123192
0.123214
0.123237
0.123259
0.123282
0.123304
0.123327
0.12335
0.123372
0.123394
0.123417
0.123439
0.123461
0.123484
0.123506
0.123528
0.123549
0.123571
0.123593
0.123615
0.123636
0.123657
0.123679
0.1237
0.123721
0.123742
0.123762
0.123783
0.123803
0.123824
0.123844
0.123864
0.123884
0.123904
0.123923
0.123943
0.123962
0.123981
0.124
0.124019
0.124038
0.124057
0.124075
0.124093
0.124112
0.12413
0.124148
0.124165
0.124183
0.1242
0.124217
0.124234
0.124251
0.124268
0.124285
0.124301
0.124318
0.124334
0.12435
0.124365
0.124381
0.124396
0.124412
0.124427
0.124442
0.124457
0.124471
0.124486
0.1245
0.124514
0.124528
0.124542
0.124555
0.124569
0.124582
0.124595
0.124608
0.12462
0.124633
0.124645
0.124657
0.124669
0.124681
0.124692
0.124704
0.124715
0.124726
0.124736
0.124747
0.124757
0.124768
0.124776
0.124789
0.124793
0.12481
0.124809
0.124829
0.124826
0.124846
0.124843
0.12486
0.124863
0.12486
0.124911
0.124787
0.124787
0.124787
1
0.660925
0.446973
0.352997
0.302192
0.27008
0.247825
0.231451
0.218897
0.208999
0.201015
0.194426
0.188899
0.184287
0.180561
0.177695
0.175593
0.174089
0.173001
0.172186
0.171562
0.171089
0.170751
0.170532
0.170412
0.170365
0.170365
0.170392
0.17043
0.170469
0.170505
0.170537
0.170565
0.170589
0.170611
0.170631
0.170651
0.17067
0.17069
0.170709
0.170728
0.170747
0.170767
0.170786
0.170806
0.170826
0.170846
0.170866
0.170886
0.170906
0.170926
0.170946
0.170966
0.170987
0.171007
0.171027
0.171048
0.171068
0.171089
0.17111
0.17113
0.171151
0.171172
0.171193
0.171213
0.171234
0.171255
0.171276
0.171297
0.171318
0.171339
0.17136
0.171381
0.171403
0.171424
0.171445
0.171466
0.171488
0.171509
0.17153
0.171552
0.171573
0.171595
0.171616
0.171638
0.17166
0.171681
0.171703
0.171724
0.171746
0.171768
0.17179
0.171811
0.171833
0.171855
0.171877
0.171899
0.171921
0.171942
0.171964
0.171986
0.172008
0.17203
0.172052
0.172074
0.172096
0.172118
0.17214
0.172161
0.172183
0.172205
0.172227
0.172249
0.17227
0.172292
0.172314
0.172335
0.172357
0.172378
0.172399
0.172421
0.172442
0.172463
0.172484
0.172505
0.172525
0.172546
0.172566
0.172586
0.172606
0.172626
0.172645
0.172665
0.172684
0.172702
0.172721
0.172739
0.172757
0.172774
0.172791
0.172808
0.172824
0.17284
0.172856
0.172871
0.172885
0.172899
0.172913
0.172926
0.172938
0.172949
0.17296
0.172971
0.172981
0.172989
0.172998
0.173005
0.173012
0.173018
0.173023
0.173027
0.17303
0.173032
0.173034
0.173034
0.173033
0.173032
0.173029
0.173026
0.173021
0.173015
0.173008
0.173
0.172991
0.172981
0.17297
0.172958
0.172944
0.17293
0.172914
0.172897
0.172879
0.17286
0.17284
0.172819
0.172796
0.172773
0.172749
0.172723
0.172697
0.17267
0.172642
0.172612
0.172582
0.172552
0.17252
0.172488
0.172455
0.172421
0.172387
0.172352
0.172317
0.172281
0.172245
0.172209
0.172172
0.172135
0.172098
0.172061
0.172024
0.171986
0.171949
0.171912
0.171875
0.171839
0.171802
0.171766
0.171731
0.171696
0.171661
0.171628
0.171594
0.171562
0.17153
0.171499
0.171469
0.17144
0.171412
0.171384
0.171358
0.171333
0.171309
0.171285
0.171264
0.171243
0.171223
0.171205
0.171188
0.171172
0.171157
0.171144
0.171132
0.171121
0.171111
0.171103
0.171096
0.171091
0.171086
0.171083
0.171081
0.17108
0.171081
0.171083
0.171086
0.17109
0.171095
0.171102
0.171109
0.171118
0.171128
0.171138
0.17115
0.171163
0.171177
0.171191
0.171207
0.171223
0.17124
0.171258
0.171277
0.171296
0.171316
0.171337
0.171359
0.171381
0.171403
0.171427
0.17145
0.171475
0.1715
0.171525
0.17155
0.171576
0.171603
0.171629
0.171656
0.171684
0.171711
0.171739
0.171767
0.171795
0.171824
0.171853
0.171881
0.17191
0.171939
0.171969
0.171998
0.172027
0.172057
0.172086
0.172115
0.172145
0.172174
0.172204
0.172233
0.172263
0.172292
0.172322
0.172351
0.172381
0.17241
0.172439
0.172468
0.172497
0.172526
0.172555
0.172584
0.172613
0.172641
0.17267
0.172698
0.172726
0.172755
0.172783
0.17281
0.172838
0.172866
0.172893
0.172921
0.172948
0.172975
0.173002
0.173029
0.173056
0.173082
0.173109
0.173135
0.173161
0.173187
0.173213
0.173239
0.173264
0.173289
0.173315
0.17334
0.173364
0.173389
0.173414
0.173438
0.173462
0.173486
0.17351
0.173534
0.173557
0.17358
0.173604
0.173626
0.173649
0.173672
0.173694
0.173716
0.173739
0.17376
0.173782
0.173804
0.173825
0.173846
0.173867
0.173887
0.173908
0.173928
0.173948
0.173968
0.173988
0.174007
0.174027
0.174046
0.174065
0.174083
0.174102
0.17412
0.174137
0.174157
0.174171
0.174193
0.174203
0.17423
0.174234
0.174265
0.174266
0.174296
0.174298
0.174325
0.174334
0.174336
0.174405
0.174253
0.174253
0.174253
1
0.776843
0.557916
0.447018
0.384296
0.344023
0.315909
0.295141
0.279181
0.266579
0.256404
0.248006
0.240972
0.23512
0.230404
0.22678
0.224115
0.222195
0.220797
0.219748
0.218947
0.218346
0.217921
0.21765
0.217504
0.217449
0.217453
0.217489
0.217538
0.217587
0.217633
0.217674
0.217709
0.21774
0.217769
0.217796
0.217822
0.217848
0.217873
0.217899
0.217924
0.21795
0.217976
0.218002
0.218028
0.218054
0.21808
0.218106
0.218133
0.218159
0.218186
0.218213
0.218239
0.218266
0.218293
0.21832
0.218347
0.218374
0.218401
0.218429
0.218456
0.218483
0.218511
0.218538
0.218566
0.218593
0.218621
0.218648