# vtk DataFile Version 2.0
FlowField
ASCII
DATASET STRUCTURED_GRID
DIMENSIONS 400 1 200
POINTS 80000 float
0 0 0
0.08 0 0
0.16 0 0
0.24 0 0
0.32 0 0
0.4 0 0
0.48 0 0
0.56 0 0
0.64 0 0
0.72 0 0
0.8 0 0
0.88 0 0
0.96 0 0
1.04 0 0
1.12 0 0
1.2 0 0
1.28 0 0
1.36 0 0
1.44 0 0
1.52 0 0
1.6 0 0
1.68 0 0
1.76 0 0
1.84 0 0
1.92 0 0
2 0 0
2.08 0 0
2.16 0 0
2.24 0 0
2.32 0 0
2.4 0 0
2.48 0 0
2.56 0 0
2.64 0 0
2.72 0 0
2.8 0 0
2.88 0 0
2.96 0 0
3.04 0 0
3.12 0 0
3.2 0 0
3.28 0 0
3.36 0 0
3.44 0 0
3.52 0 0
3.6 0 0
3.68 0 0
3.76 0 0
3.84 0 0
3.92 0 0
4 0 0
4.08 0 0
4.16 0 0
4.24 0 0
4.32 0 0
4.4 0 0
4.48 0 0
4.56 0 0
4.64 0 0
4.72 0 0
4.8 0 0
4.88 0 0
4.96 0 0
5.04 0 0
5.12 0 0
5.2 0 0
5.28 0 0
5.36 0 0
5.44 0 0
5.52 0 0
5.6 0 0
5.68 0 0
5.76 0 0
5.84 0 0
5.92 0 0
6 0 0
6.08 0 0
6.16 0 0
6.24 0 0
6.32 0 0
6.4 0 0
6.48 0 0
6.56 0 0
6.64 0 0
6.72 0 0
6.8 0 0
6.88 0 0
6.96 0 0
7.04 0 0
7.12 0 0
7.2 0 0
7.28 0 0
7.36 0 0
7.44 0 0
7.52 0 0
7.6 0 0
7.68 0 0
7.76 0 0
7.84 0 0
7.92 0 0
8 0 0
8.08 0 0
8.16 0 0
8.24 0 0
8.32 0 0
8.4 0 0
8.48 0 0
8.56 0 0
8.64 0 0
8.72 0 0
8.8 0 0
8.88 0 0
8.96 0 0
9.04 0 0
9.12 0 0
9.2 0 0
9.28 0 0
9.36 0 0
9.44 0 0
9.52 0 0
9.6 0 0
9.68 0 0
9.76 0 0
9.84 0 0
9.92 0 0
10 0 0
10.08 0 0
10.16 0 0
10.24 0 0
10.32 0 0
10.4 0 0
10.48 0 0
10.56 0 0
10.64 0 0
10.72 0 0
10.8 0 0
10.88 0 0
10.96 0 0
11.04 0 0
11.12 0 0
11.2 0 0
11.28 0 0
11.36 0 0
11.44 0 0
11.52 0 0
11.6 0 0
11.68 0 0
11.76 0 0
11.84 0 0
11.92 0 0
12 0 0
12.08 0 0
12.16 0 0
12.24 0 0
12.32 0 0
12.4 0 0
12.48 0 0
12.56 0 0
12.64 0 0
12.72 0 0
12.8 0 0
12.88 0 0
12.96 0 0
13.04 0 0
13.12 0 0
13.2 0 0
13.28 0 0
13.36 0 0
13.44 0 0
13.52 0 0
13.6 0 0
13.68 0 0
13.76 0 0
13.84 0 0
13.92 0 0
14 0 0
14.08 0 0
14.16 0 0
14.24 0 0
14.32 0 0
14.4 0 0
14.48 0 0
14.56 0 0
14.64 0 0
14.72 0 0
14.8 0 0
14.88 0 0
14.96 0 0
15.04 0 0
15.12 0 0
15.2 0 0
15.28 0 0
15.36 0 0
15.44 0 0
15.52 0 0
15.6 0 0
15.68 0 0
15.76 0 0
15.84 0 0
15.92 0 0
16 0 0
16.08 0 0
16.16 0 0
16.24 0 0
16.32 0 0
16.4 0 0
16.48 0 0
16.56 0 0
16.64 0 0
16.72 0 0
16.8 0 0
16.88 0 0
16.96 0 0
17.04 0 0
17.12 0 0
17.2 0 0
17.28 0 0
17.36 0 0
17.44 0 0
17.52 0 0
17.6 0 0
17.68 0 0
17.76 0 0
17.84 0 0
17.92 0 0
18 0 0
18.08 0 0
18.16 0 0
18.24 0 0
18.32 0 0
18.4 0 0
18.48 0 0
18.56 0 0
18.64 0 0
18.72 0 0
18.8 0 0
18.88 0 0
18.96 0 0
19.04 0 0
19.12 0 0
19.2 0 0
19.28 0 0
19.36 0 0
19.44 0 0
19.52 0 0
19.6 0 0
19.68 0 0
19.76 0 0
19.84 0 0
19.92 0 0
20 0 0
20.08 0 0
20.16 0 0
20.24 0 0
20.32 0 0
20.4 0 0
20.48 0 0
20.56 0 0
20.64 0 0
20.72 0 0
20.8 0 0
20.88 0 0
20.96 0 0
21.04 0 0
21.12 0 0
21.2 0 0
21.28 0 0
21.36 0 0
21.44 0 0
21.52 0 0
21.6 0 0
21.68 0 0
21.76 0 0
21.84 0 0
21.92 0 0
22 0 0
22.08 0 0
22.16 0 0
22.24 0 0
22.32 0 0
22.4 0 0
22.48 0 0
22.56 0 0
22.64 0 0
22.72 0 0
22.8 0 0
22.88 0 0
22.96 0 0
23.04 0 0
23.12 0 0
23.2 0 0
23.28 0 0
23.36 0 0
23.44 0 0
23.52 0 0
23.6 0 0
23.68 0 0
23.76 0 0
23.84 0 0
23.92 0 0
24 0 0
24.08 0 0
24.16 0 0
24.24 0 0
24.32 0 0
24.4 0 0
24.48 0 0
24.56 0 0
24.64 0 0
24.72 0 0
24.8 0 0
24.88 0 0
24.96 0 0
25.04 0 0
25.12 0 0
25.2 0 0
25.28 0 0
25.36 0 0
25.44 0 0
25.52 0 0
25.6 0 0
25.68 0 0
25.76 0 0
25.84 0 0
25.92 0 0
26 0 0
26.08 0 0
26.16 0 0
26.24 0 0
26.32 0 0
26.4 0 0
26.48 0 0
26.56 0 0
26.64 0 0
26.72 0 0
26.8 0 0
26.88 0 0
26.96 0 0
27.04 0 0
27.12 0 0
27.2 0 0
27.28 0 0
27.36 0 0
27.44 0 0
27.52 0 0
27.6 0 0
27.68 0 0
27.76 0 0
27.84 0 0
27.92 0 0
28 0 0
28.08 0 0
28.16 0 0
28.24 0 0
28.32 0 0
28.4 0 0
28.48 0 0
28.56 0 0
28.64 0 0
28.72 0 0
28.8 0 0
28.88 0 0
28.96 0 0
29.04 0 0
29.12 0 0
29.2 0 0
29.28 0 0
29.36 0 0
29.44 0 0
29.52 0 0
29.6 0 0
29.68 0 0
29.76 0 0
29.84 0 0
29.92 0 0
30 0 0
30.08 0 0
30.16 0 0
30.24 0 0
30.32 0 0
30.4 0 0
30.48 0 0
30.56 0 0
30.64 0 0
30.72 0 0
30.8 0 0
30.88 0 0
30.96 0 0
31.04 0 0
31.12 0 0
31.2 0 0
31.28 0 0
31.36 0 0
31.44 0 0
31.52 0 0
31.6 0 0
31.68 0 0
31.76 0 0
31.84 0 0
31.92 0 0
0 0.005 0
0.08 0.005 0
0.16 0.005 0
0.24 0.005 0
0.32 0.005 0
0.4 0.005 0
0.48 0.005 0
0.56 0.005 0
0.64 0.005 0
0.72 0.005 0
0.8 0.005 0
0.88 0.005 0
0.96 0.005 0
1.04 0.005 0
1.12 0.005 0
1.2 0.005 0
1.28 0.005 0
1.36 0.005 0
1.44 0.005 0
1.52 0.005 0
1.6 0.005 0
1.68 0.005 0
1.76 0.005 0
1.84 0.005 0
1.92 0.005 0
2 0.005 0
2.08 0.005 0
2.16 0.005 0
2.24 0.005 0
2.32 0.005 0
2.4 0.005 0
2.48 0.005 0
2.56 0.005 0
2.64 0.005 0
2.72 0.005 0
2.8 0.005 0
2.88 0.005 0
2.96 0.005 0
3.04 0.005 0
3.12 0.005 0
3.2 0.005 0
3.28 0.005 0
3.36 0.005 0
3.44 0.005 0
3.52 0.005 0
3.6 0.005 0
3.68 0.005 0
3.76 0.005 0
3.84 0.005 0
3.92 0.005 0
4 0.005 0
4.08 0.005 0
4.16 0.005 0
4.24 0.005 0
4.32 0.005 0
4.4 0.005 0
4.48 0.005 0
4.56 0.005 0
4.64 0.005 0
4.72 0.005 0
4.8 0.005 0
4.88 0.005 0
4.96 0.005 0
5.04 0.005 0
5.12 0.005 0
5.2 0.005 0
5.28 0.005 0
5.36 0.005 0
5.44 0.005 0
5.52 0.005 0
5.6 0.005 0
5.68 0.005 0
5.76 0.005 0
5.84 0.005 0
5.92 0.005 0
6 0.005 0
6.08 0.005 0
6.16 0.005 0
6.24 0.005 0
6.32 0.005 0
6.4 0.005 0
6.48 0.005 0
6.56 0.005 0
6.64 0.005 0
6.72 0.005 0
6.8 0.005 0
6.88 0.005 0
6.96 0.005 0
7.04 0.005 0
7.12 0.005 0
7.2 0.005 0
7.28 0.005 0
7.36 0.005 0
7.44 0.005 0
7.52 0.005 0
7.6 0.005 0
7.68 0.005 0
7.76 0.005 0
7.84 0.005 0
7.92 0.005 0
8 0.005 0
8.08 0.005 0
8.16 0.005 0
8.24 0.005 0
8.32 0.005 0
8.4 0.005 0
8.48 0.005 0
8.56 0.005 0
8.64 0.005 0
8.72 0.005 0
8.8 0.005 0
8.88 0.005 0
8.96 0.005 0
9.04 0.005 0
9.12 0.005 0
9.2 0.005 0
9.28 0.005 0
9.36 0.005 0
9.44 0.005 0
9.52 0.005 0
9.6 0.005 0
9.68 0.005 0
9.76 0.005 0
9.84 0.005 0
9.92 0.005 0
10 0.005 0
10.08 0.005 0
10.16 0.005 0
10.24 0.005 0
10.32 0.005 0
10.4 0.005 0
10.48 0.005 0
10.56 0.005 0
10.64 0.005 0
10.72 0.005 0
10.8 0.005 0
10.88 0.005 0
10.96 0.005 0
11.04 0.005 0
11.12 0.005 0
11.2 0.005 0
11.28 0.005 0
11.36 0.005 0
11.44 0.005 0
11.52 0.005 0
11.6 0.005 0
11.68 0.005 0
11.76 0.005 0
11.84 0.005 0
11.92 0.005 0
12 0.005 0
12.08 0.005 0
12.16 0.005 0
12.24 0.005 0
12.32 0.005 0
12.4 0.005 0
12.48 0.005 0
12.56 0.005 0
12.64 0.005 0
12.72 0.005 0
12.8 0.005 0
12.88 0.005 0
12.96 0.005 0
13.04 0.005 0
13.12 0.005 0
13.2 0.005 0
13.28 0.005 0
13.36 0.005 0
13.44 0.005 0
13.52 0.005 0
13.6 0.005 0
13.68 0.005 0
13.76 0.005 0
13.84 0.005 0
13.92 0.005 0
14 0.005 0
14.08 0.005 0
14.16 0.005 0
14.24 0.005 0
14.32 0.005 0
14.4 0.005 0
14.48 0.005 0
14.56 0.005 0
14.64 0.005 0
14.72 0.005 0
14.8 0.005 0
14.88 0.005 0
14.96 0.005 0
15.04 0.005 0
15.12 0.005 0
15.2 0.005 0
15.28 0.005 0
15.36 0.005 0
15.44 0.005 0
15.52 0.005 0
15.6 0.005 0
15.68 0.005 0
15.76 0.005 0
15.84 0.005 0
15.92 0.005 0
16 0.005 0
16.08 0.005 0
16.16 0.005 0
16.24 0.005 0
16.32 0.005 0
16.4 0.005 0
16.48 0.005 0
16.56 0.005 0
16.64 0.005 0
16.72 0.005 0
16.8 0.005 0
16.88 0.005 0
16.96 0.005 0
17.04 0.005 0
17.12 0.005 0
17.2 0.005 0
17.28 0.005 0
17.36 0.005 0
17.44 0.005 0
17.52 0.005 0
17.6 0.005 0
17.68 0.005 0
17.76 0.005 0
17.84 0.005 0
17.92 0.005 0
18 0.005 0
18.08 0.005 0
18.16 0.005 0
18.24 0.005 0
18.32 0.005 0
18.4 0.005 0
18.48 0.005 0
18.56 0.005 0
18.64 0.005 0
18.72 0.005 0
18.8 0.005 0
18.88 0.005 0
18.96 0.005 0
19.04 0.005 0
19.12 0.005 0
19.2 0.005 0
19.28 0.005 0
19.36 0.005 0
19.44 0.005 0
19.52 0.005 0
19.6 0.005 0
19.68 0.005 0
19.76 0.005 0
19.84 0.005 0
19.92 0.005 0
20 0.005 0
20.08 0.005 0
20.16 0.005 0
20.24 0.005 0
20.32 0.005 0
20.4 0.005 0
20.48 0.005 0
20.56 0.005 0
20.64 0.005 0
20.72 0.005 0
20.8 0.005 0
20.88 0.005 0
20.96 0.005 0
21.04 0.005 0
21.12 0.005 0
21.2 0.005 0
21.28 0.005 0
21.36 0.005 0
21.44 0.005 0
21.52 0.005 0
21.6 0.005 0
21.68 0.005 0
21.76 0.005 0
21.84 0.005 0
21.92 0.005 0
22 0.005 0
22.08 0.005 0
22.16 0.005 0
22.24 0.005 0
22.32 0.005 0
22.4 0.005 0
22.48 0.005 0
22.56 0.005 0
22.64 0.005 0
22.72 0.005 0
22.8 0.005 0
22.88 0.005 0
22.96 0.005 0
23.04 0.005 0
23.12 0.005 0
23.2 0.005 0
23.28 0.005 0
23.36 0.005 0
23.44 0.005 0
23.52 0.005 0
23.6 0.005 0
23.68 0.005 0
23.76 0.005 0
23.84 0.005 0
23.92 0.005 0
24 0.005 0
24.08 0.005 0
24.16 0.005 0
24.24 0.005 0
24.32 0.005 0
24.4 0.005 0
24.48 0.005 0
24.56 0.005 0
24.64 0.005 0
24.72 0.005 0
24.8 0.005 0
24.88 0.005 0
24.96 0.005 0
25.04 0.005 0
25.12 0.005 0
25.2 0.005 0
25.28 0.005 0
25.36 0.005 0
25.44 0.005 0
25.52 0.005 0
25.6 0.005 0
25.68 0.005 0
25.76 0.005 0
25.84 0.005 0
25.92 0.005 0
26 0.005 0
26.08 0.005 0
26.16 0.005 0
26.24 0.005 0
26.32 0.005 0
26.4 0.005 0
26.48 0.005 0
26.56 0.005 0
26.64 0.005 0
26.72 0.005 0
26.8 0.005 0
26.88 0.005 0
26.96 0.005 0
27.04 0.005 0
27.12 0.005 0
27.2 0.005 0
27.28 0.005 0
27.36 0.005 0
27.44 0.005 0
27.52 0.005 0
27.6 0.005 0
27.68 0.005 0
27.76 0.005 0
27.84 0.005 0
27.92 0.005 0
28 0.005 0
28.08 0.005 0
28.16 0.005 0
28.24 0.005 0
28.32 0.005 0
28.4 0.005 0
28.48 0.005 0
28.56 0.005 0
28.64 0.005 0
28.72 0.005 0
28.8 0.005 0
28.88 0.005 0
28.96 0.005 0
29.04 0.005 0
29.12 0.005 0
29.2 0.005 0
29.28 0.005 0
29.36 0.005 0
29.44 0.005 0
29.52 0.005 0
29.6 0.005 0
29.68 0.005 0
29.76 0.005 0
29.84 0.005 0
29.92 0.005 0
30 0.005 0
30.08 0.005 0
30.16 0.005 0
30.24 0.005 0
30.32 0.005 0
30.4 0.005 0
30.48 0.005 0
30.56 0.005 0
30.64 0.005 0
30.72 0.005 0
30.8 0.005 0
30.88 0.005 0
30.96 0.005 0
31.04 0.005 0
31.12 0.005 0
31.2 0.005 0
31.28 0.005 0
31.36 0.005 0
31.44 0.005 0
31.52 0.005 0
31.6 0.005 0
31.68 0.005 0
31.76 0.005 0
31.84 0.005 0
31.92 0.005 0
0 0.01 0
0.08 0.01 0
0.16 0.01 0
0.24 0.01 0
0.32 0.01 0
0.4 0.01 0
0.48 0.01 0
0.56 0.01 0
0.64 0.01 0
0.72 0.01 0
0.8 0.01 0
0.88 0.01 0
0.96 0.01 0
1.04 0.01 0
1.12 0.01 0
1.2 0.01 0
1.28 0.01 0
1.36 0.01 0
1.44 0.01 0
1.52 0.01 0
1.6 0.01 0
1.68 0.01 0
1.76 0.01 0
1.84 0.01 0
1.92 0.01 0
2 0.01 0
2.08 0.01 0
2.16 0.01 0
2.24 0.01 0
2.32 0.01 0
2.4 0.01 0
2.48 0.01 0
2.56 0.01 0
2.64 0.01 0
2.72 0.01 0
2.8 0.01 0
2.88 0.01 0
2.96 0.01 0
3.04 0.01 0
3.12 0.01 0
3.2 0.01 0
3.28 0.01 0
3.36 0.01 0
3.44 0.01 0
3.52 0.01 0
3.6 0.01 0
3.68 0.01 0
3.76 0.01 0
3.84 0.01 0
3.92 0.01 0
4 0.01 0
4.08 0.01 0
4.16 0.01 0
4.24 0.01 0
4.32 0.01 0
4.4 0.01 0
4.48 0.01 0
4.56 0.01 0
4.64 0.01 0
4.72 0.01 0
4.8 0.01 0
4.88 0.01 0
4.96 0.01 0
5.04 0.01 0
5.12 0.01 0
[...]
POINT_DATA 80000

SCALARS u float 1
LOOKUP_TABLE default
0
-0.13166
-0.0682673
-0.0522968
-0.0444251
-0.0395877
-0.0362772
-0.0338577
-0.0320076
-0.0305432
-0.0293508
-0.0283583
-0.0275201
-0.0268054
-0.0261887
-0.0256482
-0.0251697
-0.0247502
-0.024395
-0.0241102
-0.0238946
-0.0237375
-0.0236223
-0.0235323
-0.0234557
-0.0233873
-0.0233269
-0.0232764
-0.0232378
-0.0232114
-0.0231961
-0.0231898
-0.0231898
-0.0231939
-0.0232002
-0.0232073
-0.0232145
-0.0232216
-0.0232283
-0.0232347
-0.0232408
-0.0232467
-0.0232525
-0.0232583
-0.0232639
-0.0232695
-0.023275
-0.0232805
-0.0232859
-0.0232912
-0.0232965
-0.0233017
-0.0233068
-0.0233118
-0.0233167
-0.0233215
-0.0233262
-0.0233308
-0.0233353
-0.0233397
-0.0233439
-0.023348
-0.023352
-0.0233558
-0.0233595
-0.023363
-0.0233663
-0.0233695
-0.0233725
-0.0233754
-0.0233781
-0.0233805
-0.0233828
-0.023385
-0.0233869
-0.0233886
-0.0233901
-0.0233914
-0.0233925
-0.0233934
-0.0233941
-0.0233945
-0.0233947
-0.0233948
-0.0233945
-0.0233941
-0.0233934
-0.0233926
-0.0233914
-0.0233901
-0.0233885
-0.0233867
-0.0233847
-0.0233825
-0.02338
-0.0233773
-0.0233744
-0.0233713
-0.023368
-0.0233645
-0.0233608
-0.0233568
-0.0233527
-0.0233484
-0.0233439
-0.0233393
-0.0233344
-0.0233294
-0.0233243
-0.023319
-0.0233135
-0.0233079
-0.0233022
-0.0232964
-0.0232904
-0.0232844
-0.0232782
-0.023272
-0.0232657
-0.0232593
-0.0232528
-0.0232463
-0.0232398
-0.0232332
-0.0232266
-0.02322
-0.0232134
-0.0232068
-0.0232001
-0.0231935
-0.023187
-0.0231805
-0.023174
-0.0231675
-0.0231612
-0.0231549
-0.0231486
-0.0231425
-0.0231364
-0.0231305
-0.0231246
-0.0231189
-0.0231133
-0.0231077
-0.0231024
-0.0230971
-0.023092
-0.0230871
-0.0230822
-0.0230776
-0.0230731
-0.0230687
-0.0230645
-0.0230605
-0.0230566
-0.0230529
-0.0230494
-0.023046
-0.0230428
-0.0230398
-0.023037
-0.0230343
-0.0230318
-0.0230295
-0.0230273
-0.0230253
-0.0230235
-0.0230219
-0.0230204
-0.0230191
-0.0230179
-0.0230169
-0.0230161
-0.0230155
-0.0230149
-0.0230146
-0.0230144
-0.0230143
-0.0230144
-0.0230146
-0.023015
-0.0230155
-0.0230161
-0.0230168
-0.0230177
-0.0230187
-0.0230198
-0.0230211
-0.0230224
-0.0230239
-0.0230254
-0.0230271
-0.0230288
-0.0230307
-0.0230326
-0.0230346
-0.0230367
-0.0230389
-0.0230412
-0.0230435
-0.0230459
-0.0230484
-0.023051
-0.0230536
-0.0230563
-0.023059
-0.0230618
-0.0230646
-0.0230675
-0.0230705
-0.0230734
-0.0230765
-0.0230795
-0.0230826
-0.0230858
-0.023089
-0.0230922
-0.0230954
-0.0230987
-0.023102
-0.0231054
-0.0231087
-0.0231121
-0.0231155
-0.023119
-0.0231224
-0.0231259
-0.0231294
-0.0231329
-0.0231364
-0.0231399
-0.0231435
-0.0231471
-0.0231507
-0.0231542
-0.0231579
-0.0231615
-0.0231651
-0.0231687
-0.0231724
-0.023176
-0.0231797
-0.0231834
-0.0231871
-0.0231907
-0.0231944
-0.0231981
-0.0232018
-0.0232056
-0.0232093
-0.023213
-0.0232167
-0.0232205
-0.0232242
-0.0232279
-0.0232317
-0.0232354
-0.0232392
-0.0232429
-0.0232467
-0.0232505
-0.0232542
-0.023258
-0.0232618
-0.0232655
-0.0232693
-0.0232731
-0.0232769
-0.0232807
-0.0232845
-0.0232883
-0.0232921
-0.0232959
-0.0232997
-0.0233035
-0.0233073
-0.0233111
-0.0233149
-0.0233187
-0.0233226
-0.0233264
-0.0233302
-0.023334
-0.0233379
-0.0233417
-0.0233455
-0.0233494
-0.0233532
-0.023357
-0.0233609
-0.0233647
-0.0233686
-0.0233724
-0.0233763
-0.0233801
-0.023384
-0.0233878
-0.0233917
-0.0233956
-0.0233994
-0.0234033
-0.0234072
-0.0234111
-0.0234149
-0.0234188
-0.0234227
-0.0234266
-0.0234305
-0.0234344
-0.0234382
-0.0234421
-0.023446
-0.0234499
-0.0234538
-0.0234577
-0.0234616
-0.0234655
-0.0234695
-0.0234734
-0.0234773
-0.0234812
-0.0234851
-0.023489
-0.023493
-0.0234969
-0.0235008
-0.0235048
-0.0235087
-0.0235126
-0.0235166
-0.0235205
-0.0235244
-0.0235284
-0.0235323
-0.0235363
-0.0235402
-0.0235442
-0.0235481
-0.0235521
-0.0235561
-0.02356
-0.023564
-0.023568
-0.0235719
-0.0235759
-0.0235799
-0.0235839
-0.0235878
-0.0235918
-0.0235958
-0.0235998
-0.0236038
-0.0236078
-0.0236118
-0.0236158
-0.0236198
-0.0236238
-0.0236278
-0.0236318
-0.0236358
-0.0236398
-0.0236438
-0.0236478
-0.0236519
-0.0236559
-0.0236599
-0.0236639
-0.023668
-0.023672
-0.023676
-0.02368
-0.0236841
-0.0236881
-0.0236922
-0.0236962
-0.0237003
-0.0237043
-0.0237084
-0.0237124
-0.0237166
-0.0237204
-0.0237248
-0.0237284
-0.0237331
-0.0237364
-0.0237413
-0.0237445
-0.0237495
-0.0237527
-0.0237576
-0.023761
-0.0237655
-0.02377
-0.0237729
-0.0237794
-0.0237803
-0.0237885
-0.0237809
-0.0237809
-0.0237809
1
0.13166
0.0682673
0.0522968
0.0444251
0.0395877
0.0362772
0.0338577
0.0320076
0.0305432
0.0293508
0.0283583
0.0275201
0.0268054
0.0261887
0.0256482
0.0251697
0.0247502
0.024395
0.0241102
0.0238946
0.0237375
0.0236223
0.0235323
0.0234557
0.0233873
0.0233269
0.0232764
0.0232378
0.0232114
0.0231961
0.0231898
0.0231898
0.0231939
0.0232002
0.0232073
0.0232145
0.0232216
0.0232283
0.0232347
0.0232408
0.0232467
0.0232525
0.0232583
0.0232639
0.0232695
0.023275
0.0232805
0.0232859
0.0232912
0.0232965
0.0233017
0.0233068
0.0233118
0.0233167
0.0233215
0.0233262
0.0233308
0.0233353
0.0233397
0.0233439
0.023348
0.023352
0.0233558
0.0233595
0.023363
0.0233663
0.0233695
0.0233725
0.0233754
0.0233781
0.0233805
0.0233828
0.023385
0.0233869
0.0233886
0.0233901
0.0233914
0.0233925
0.0233934
0.0233941
0.0233945
0.0233947
0.0233948
0.0233945
0.0233941
0.0233934
0.0233926
0.0233914
0.0233901
0.0233885
0.0233867
0.0233847
0.0233825
0.02338
0.0233773
0.0233744
0.0233713
0.023368
0.0233645
0.0233608
0.0233568
0.0233527
0.0233484
0.0233439
0.0233393
0.0233344
0.0233294
0.0233243
0.023319
0.0233135
0.0233079
0.0233022
0.0232964
0.0232904
0.0232844
0.0232782
0.023272
0.0232657
0.0232593
0.0232528
0.0232463
0.0232398
0.0232332
0.0232266
0.02322
0.0232134
0.0232068
0.0232001
0.0231935
0.023187
0.0231805
0.023174
0.0231675
0.0231612
0.0231549
0.0231486
0.0231425
0.0231364
0.0231305
0.0231246
0.0231189
0.0231133
0.0231077
0.0231024
0.0230971
0.023092
0.0230871
0.0230822
0.0230776
0.0230731
0.0230687
0.0230645
0.0230605
0.0230566
0.0230529
0.0230494
0.023046
0.0230428
0.0230398
0.023037
0.0230343
0.0230318
0.0230295
0.0230273
0.0230253
0.0230235
0.0230219
0.0230204
0.0230191
0.0230179
0.0230169
0.0230161
0.0230155
0.0230149
0.0230146
0.0230144
0.0230143
0.0230144
0.0230146
0.023015
0.0230155
0.0230161
0.0230168
0.0230177
0.0230187
0.0230198
0.0230211
0.0230224
0.0230239
0.0230254
0.0230271
0.0230288
0.0230307
0.0230326
0.0230346
0.0230367
0.0230389
0.0230412
0.0230435
0.0230459
0.0230484
0.023051
0.0230536
0.0230563
0.023059
0.0230618
0.0230646
0.0230675
0.0230705
0.0230734
0.0230765
0.0230795
0.0230826
0.0230858
0.023089
0.0230922
0.0230954
0.0230987
0.023102
0.0231054
0.0231087
0.0231121
0.0231155
0.023119
0.0231224
0.0231259
0.0231294
0.0231329
0.0231364
0.0231399
0.0231435
0.0231471
0.0231507
0.0231542
0.0231579
0.0231615
0.0231651
0.0231687
0.0231724
0.023176
0.0231797
0.0231834
0.0231871
0.0231907
0.0231944
0.0231981
0.0232018
0.0232056
0.0232093
0.023213
0.0232167
0.0232205
0.0232242
0.0232279
0.0232317
0.0232354
0.0232392
0.0232429
0.0232467
0.0232505
0.0232542
0.023258
0.0232618
0.0232655
0.0232693
0.0232731
0.0232769
0.0232807
0.0232845
0.0232883
0.0232921
0.0232959
0.0232997
0.0233035
0.0233073
0.0233111
0.0233149
0.0233187
0.0233226
0.0233264
0.0233302
0.023334
0.0233379
0.0233417
0.0233455
0.0233494
0.0233532
0.023357
0.0233609
0.0233647
0.0233686
0.0233724
0.0233763
0.0233801
0.023384
0.0233878
0.0233917
0.0233956
0.0233994
0.0234033
0.0234072
0.0234111
0.0234149
0.0234188
0.0234227
0.0234266
0.0234305
0.0234344
0.0234382
0.0234421
0.023446
0.0234499
0.0234538
0.0234577
0.0234616
0.0234655
0.0234695
0.0234734
0.0234773
0.0234812
0.0234851
0.023489
0.023493
0.0234969
0.0235008
0.0235048
0.0235087
0.0235126
0.0235166
0.0235205
0.0235244
0.0235284
0.0235323
0.0235363
0.0235402
0.0235442
0.0235481
0.0235521
0.0235561
0.02356
0.023564
0.023568
0.0235719
0.0235759
0.0235799
0.0235839
0.0235878
0.0235918
0.0235958
0.0235998
0.0236038
0.0236078
0.0236118
0.0236158
0.0236198
0.0236238
0.0236278
0.0236318
0.0236358
0.0236398
0.0236438
0.0236478
0.0236519
0.0236559
0.0236599
0.0236639
0.023668
0.023672
0.023676
0.02368
0.0236841
0.0236881
0.0236922
0.0236962
0.0237003
0.0237043
0.0237084
0.0237124
0.0237166
0.0237204
0.0237248
0.0237284
0.0237331
0.0237364
0.0237413
0.0237445
0.0237495
0.0237527
0.0237576
0.023761
0.0237655
0.02377
0.0237729
0.0237794
0.0237803
0.0237885
0.0237809
0.0237809
0.0237809
1
0.344876
0.20066
0.154966
0.131904
0.117622
0.107809
0.10062
0.0951138
0.0907522
0.0872
0.0842446
0.0817509
0.0796252
0.077791
0.0761852
0.0747698
0.073538
0.0725039
0.0716796
0.0710559
0.0705977
0.0702562
0.0699855
0.0697547
0.0695511
0.0693746
0.06923
0.0691214
0.0690484
0.0690068
0.0689898
0.0689898
0.0690004
0.0690163
0.0690342
0.0690522
0.0690694
0.0690857
0.069101
0.0691155
0.0691295
0.0691431
0.0691564
0.0691694
0.0691822
0.0691948
0.0692072
0.0692194
0.0692313
0.069243
0.0692545
0.0692656
0.0692765
0.0692871
0.0692973
0.0693073
0.0693168
0.0693261
0.0693349
0.0693434
0.0693515
0.0693592
0.0693665
0.0693734
0.0693798
0.0693858
0.0693913
0.0693964
0.069401
0.0694051
0.0694088
0.0694119
0.0694146
0.0694167
0.0694183
0.0694195
0.06942
0.0694201
0.0694196
0.0694186
0.0694171
0.0694151
0.0694125
0.0694093
0.0694057
0.0694015
0.0693967
0.0693915
0.0693857
0.0693794
0.0693726
0.0693654
0.0693576
0.0693493
0.0693406
0.0693314
0.0693217
0.0693116
0.0693011
0.0692901
0.0692788
0.0692671
0.069255
0.0692425
0.0692298
0.0692166
0.0692032
0.0691896
0.0691756
0.0691614
0.069147
0.0691324
0.0691176
0.0691026
0.0690875
0.0690723
0.0690569
0.0690415
0.0690261
0.0690106
0.0689951
0.0689795
0.0689641
0.0689486
0.0689333
0.068918
0.0689029
0.0688879
0.068873
0.0688583
0.0688438
0.0688295
0.0688154
0.0688015
0.0687879
0.0687746
0.0687616
0.0687489
0.0687364
0.0687244
0.0687126
0.0687012
0.0686902
0.0686795
0.0686692
0.0686594
0.0686499
0.0686408
0.0686321
0.0686239
0.068616
0.0686086
0.0686016
0.0685951
0.068589
0.0685833
0.068578
0.0685732
0.0685688
0.0685649
0.0685614
0.0685583
0.0685556
0.0685534
0.0685516
0.0685502
0.0685492
0.0685486
0.0685484
0.0685486
0.0685492
0.0685501
0.0685514
0.0685531
0.0685552
0.0685576
0.0685603
0.0685634
0.0685668
0.0685705
0.0685745
0.0685788
0.0685835
0.0685884
0.0685935
0.068599
0.0686047
0.0686106
0.0686168
0.0686232
0.0686298
0.0686367
0.0686438
0.068651
0.0686585
0.0686661
0.068674
0.068682
0.0686901
0.0686984
0.0687069
0.0687155
0.0687243
0.0687332
0.0687422
0.0687513
0.0687606
0.0687699
0.0687794
0.0687889
0.0687986
0.0688083
0.0688182
0.0688281
0.0688381
0.0688481
0.0688582
0.0688684
0.0688787
0.068889
0.0688994
0.0689098
0.0689203
0.0689308
0.0689414
0.068952
0.0689626
0.0689733
0.068984
0.0689948
0.0690056
0.0690164
0.0690273
0.0690381
0.069049
0.06906
0.0690709
0.0690819
0.0690929
0.0691039
0.069115
0.069126
0.0691371
0.0691482
0.0691593
0.0691704
0.0691815
0.0691927
0.0692039
0.069215
0.0692262
0.0692374
0.0692486
0.0692599
0.0692711
0.0692823
0.0692936
0.0693049
0.0693161
0.0693274
0.0693387
0.06935
0.0693614
0.0693727
0.069384
0.0693954
0.0694067
0.0694181
0.0694294
0.0694408
0.0694522
0.0694636
0.069475
0.0694864
0.0694978
0.0695092
0.0695207
0.0695321
0.0695436
0.069555
0.0695665
0.069578
0.0695894
0.0696009
0.0696124
0.0696239
0.0696354
0.069647
0.0696585
0.06967
0.0696816
0.0696931
0.0697047
0.0697162
0.0697278
0.0697394
0.069751
0.0697626
0.0697742
0.0697858
0.0697974
0.069809
0.0698207
0.0698323
0.069844
0.0698556
0.0698673
0.069879
0.0698906
0.0699023
0.069914
0.0699257
0.0699374
0.0699492
0.0699609
0.0699726
0.0699844
0.0699961
0.0700079
0.0700196
0.0700314
0.0700432
0.070055
0.0700668
0.0700786
0.0700904
0.0701022
0.070114
0.0701258
0.0701377
0.0701495
0.0701614
0.0701733
0.0701851
0.070197
0.0702089
0.0702208
0.0702327
0.0702446
0.0702565
0.0702684
0.0702804
0.0702923
0.0703043
0.0703162
0.0703282
0.0703401
0.0703521
0.0703641
0.0703761
0.0703881
0.0704001
0.0704121
0.0704242
0.0704362
0.0704482
0.0704603
0.0704723
0.0704844
0.0704965
0.0705086
0.0705206
0.0705327
0.0705448
0.0705569
0.0705691
0.0705812
0.0705933
0.0706055
0.0706176
0.0706298
0.0706419
0.0706541
0.0706663
0.0706785
0.0706907
0.070703
0.070715
0.0707276
0.0707392
0.0707524
0.0707633
0.0707773
0.0707875
0.0708021
0.0708119
0.0708267
0.0708366
0.0708513
0.0708617
0.0708753
0.0708883
0.0708977
0.0709166
0.0709202
0.0709436
0.0709254
0.0709254
0.0709254
1
0.518754
0.327388
0.25534
0.217856
0.194431
0.178264
0.166391
0.157284
0.150062
0.144179
0.139286
0.135158
0.13164
0.128605
0.12595
0.123617
0.121597
0.11991
0.118571
0.117556
0.116805
0.116239
0.115786
0.115399
0.115061
0.114771
0.114538
0.114364
0.114249
0.114184
0.114157
0.114156
0.114171
0.114194
0.11422
0.114245
0.114269
0.114292
0.114313
0.114332
0.114351
0.114369
0.114387
0.114404
0.114421
0.114438
0.114454
0.11447
0.114485
0.1145
0.114515
0.114529
0.114543
0.114556
0.114568
0.114581
0.114592
0.114603
0.114614
0.114624
0.114633
0.114642
0.11465
0.114657
0.114664
0.11467
0.114676
0.114681
0.114685
0.114688
0.114691
0.114693
0.114694
0.114695
0.114695
0.114694
0.114692
0.11469
0.114687
0.114683
0.114678
0.114673
0.114667
0.11466
0.114653
0.114645
0.114636
0.114626
0.114616
0.114605
0.114594
0.114582
0.114569
0.114555
0.114541
0.114527
0.114512
0.114496
0.11448
0.114463
0.114446
0.114429
0.114411
0.114392
0.114374
0.114354
0.114335
0.114315
0.114295
0.114275
0.114255
0.114234
0.114214
0.114193
0.114172
0.114151
0.11413
0.114109
0.114088
0.114067
0.114046
0.114026
0.114005
0.113985
0.113965
0.113945
0.113925
0.113906
0.113887
0.113868
0.11385
0.113832
0.113814
0.113797
0.11378
0.113764
0.113748
0.113733
0.113718
0.113704
0.11369
0.113677
0.113665
0.113653
0.113641
0.113631
0.11362
0.113611
0.113602
0.113593
0.113586
0.113579
0.113572
0.113566
0.113561
0.113557
0.113553
0.113549
0.113547
0.113545
0.113543
0.113542
0.113542
0.113542
0.113543
0.113545
0.113547
0.11355
0.113553
0.113556
0.113561
0.113566
0.113571
0.113577
0.113583
0.11359
0.113597
0.113605
0.113613
0.113621
0.11363
0.11364
0.11365
0.11366
0.11367
0.113681
0.113693
0.113704
0.113716
0.113728
0.113741
0.113754
0.113767
0.11378
0.113794
0.113807
0.113822
0.113836
0.11385
0.113865
0.11388
0.113895
0.113911
0.113926
0.113942
0.113958
0.113974
0.11399
0.114006
0.114022
0.114039
0.114056
0.114072
0.114089
0.114106
0.114123
0.11414
0.114158
0.114175
0.114192
0.11421
0.114227
0.114245
0.114263
0.11428
0.114298
0.114316
0.114334
0.114352
0.11437
0.114388
0.114406
0.114424
0.114442
0.11446
0.114478
0.114497
0.114515
0.114533
0.114552
0.11457
0.114589
0.114607
0.114625
0.114644
0.114662
0.114681
0.114699
0.114718
0.114737
0.114755
0.114774
0.114792
0.114811
0.11483
0.114849
0.114867
0.114886
0.114905
0.114923
0.114942
0.114961
0.11498
0.114999
0.115018
0.115036
0.115055
0.115074
0.115093
0.115112
0.115131
0.11515
0.115169
0.115188
0.115207
0.115226
0.115245
0.115264
0.115283
0.115302
0.115321
0.11534
0.115359
0.115378
0.115397
0.115416
0.115436
0.115455
0.115474
0.115493
0.115512
0.115532
0.115551
0.11557
0.115589
0.115609
0.115628
0.115647
0.115666
0.115686
0.115705
0.115724
0.115744
0.115763
0.115783
0.115802
0.115821
0.115841
0.11586
0.11588
0.115899
0.115919
0.115938
0.115958
0.115977
0.115997
0.116016
0.116036
0.116055
0.116075
0.116095
0.116114
0.116134
0.116154
0.116173
0.116193
0.116213
0.116232
0.116252
0.116272
0.116292
0.116311
0.116331
0.116351
0.116371
0.11639
0.11641
0.11643
0.11645
0.11647
0.11649
0.11651
0.11653
0.116549
0.116569
0.116589
0.116609
0.116629
0.116649
0.116669
0.116689
0.116709
0.116729
0.116749
0.11677
0.11679
0.11681
0.11683
0.11685
0.11687
0.11689
0.11691
0.116931
0.116951
0.116971
0.116991
0.117012
0.117032
0.117052
0.117072
0.117093
0.117113
0.117133
0.117154
0.117174
0.117194
0.117215
0.117235
0.117256
0.117275
0.117297
0.117316
0.117339
0.117356
0.11738
0.117397
0.117422
0.117438
0.117463
0.11748
0.117503
0.117524
0.117541
0.117571
0.117579
0.117616
0.117592
0.117592
0.117592
1
0.660872
0.446873
0.352862
0.302029
0.269874
0.247554
0.23111
0.218473
0.208441
0.200263
0.19346
0.187724
0.182834
0.178615
0.174928
0.171697
0.168911
0.166595
0.16476
0.163367
0.162329
0.161537
0.160898
0.160353
0.15988
0.15948
0.159161
0.158927
0.158772
0.158685
0.158648
0.158646
0.158664
0.158691
0.158722
0.158752
0.15878
0.158807
0.158831
0.158853
0.158874
0.158895
0.158914
0.158934
0.158952
0.158971
0.158988
0.159006
0.159022
0.159039
0.159054
0.159069
0.159084
0.159098
0.159111
0.159124
0.159135
0.159147
0.159157
0.159167
0.159176
0.159184
0.159192
0.159198
0.159204
0.159209
0.159214
0.159217
0.15922
0.159222
0.159223
0.159223
0.159222
0.159221
0.159218
0.159215
0.159211
0.159206
0.1592
0.159194
0.159186
0.159178
0.159169
0.159159
0.159149
0.159137
0.159125
0.159112
0.159098
0.159084
0.159069
0.159053
0.159037
0.159019
0.159002
0.158983
0.158965
0.158945
0.158925
0.158905
0.158884
0.158863
0.158841
0.158819
0.158797
0.158774
0.158751
0.158728
0.158705
0.158681
0.158658
0.158634
0.15861
0.158587
0.158563
0.158539
0.158516
0.158492
0.158469
0.158446
0.158423
0.1584
0.158378
0.158355
0.158334
0.158312
0.158291
0.158271
0.158251
0.158231
0.158212
0.158193
0.158175
0.158158
0.158141
0.158125
0.15811
0.158095
0.15808
0.158067
0.158054
0.158042
0.158031
0.15802
0.15801
0.158001
0.157993
0.157985
0.157978
0.157972
0.157967
0.157962
0.157959
0.157956
0.157953
0.157952
0.157951
0.157952
0.157952
0.157954
0.157956
0.157959
0.157963
0.157968
0.157973
0.157979
0.157986
0.157993
0.158001
0.158009
0.158018
0.158028
0.158039
0.15805
0.158061
0.158073
0.158086
0.158099
0.158113
0.158127
0.158142
0.158157
0.158173
0.158189
0.158206
0.158222
0.15824
0.158258
0.158276
0.158294
0.158313
0.158332
0.158352
0.158371
0.158391
0.158412
0.158432
0.158453
0.158475
0.158496
0.158518
0.158539
0.158561
0.158584
0.158606
0.158629
0.158652
0.158675
0.158698
0.158721
0.158744
0.158768
0.158792
0.158815
0.158839
0.158863
0.158888
0.158912
0.158936
0.158961
0.158985
0.15901
0.159034
0.159059
0.159084
0.159109
0.159134
0.159159
0.159184
0.159209
0.159234
0.15926
0.159285
0.15931
0.159336
0.159361
0.159387
0.159412
0.159438
0.159463
0.159489
0.159515
0.15954
0.159566
0.159592
0.159618
0.159643
0.159669
0.159695
0.159721
0.159747
0.159773
0.159799
0.159825
0.159851
0.159877
0.159903
0.159929
0.159955
0.159982
0.160008
0.160034
0.16006
0.160086
0.160113
0.160139
0.160165
0.160192
0.160218
0.160244
0.160271
0.160297
0.160324
0.16035
0.160376
0.160403
0.160429
0.160456
0.160483
0.160509
0.160536
0.160562
0.160589
0.160616
0.160642
0.160669
0.160696
0.160722
0.160749
0.160776
0.160803
0.16083
0.160856
0.160883
0.16091
0.160937
0.160964
0.160991
0.161018
0.161045
0.161072
0.161099
0.161126
0.161153
0.16118
0.161207
0.161234
0.161261
0.161289
0.161316
0.161343
0.16137
0.161397
0.161425
0.161452
0.161479
0.161507
0.161534
0.161561
0.161589
0.161616
0.161643
0.161671
0.161698
0.161726
0.161753
0.161781
0.161808
0.161836
0.161864
0.161891
0.161919
0.161946
0.161974
0.162002
0.162029
0.162057
0.162085
0.162113
0.16214
0.162168
0.162196
0.162224
0.162252
0.16228
0.162308
0.162336
0.162364
0.162392
0.16242
0.162448
0.162476
0.162504
0.162532
0.16256
0.162588
0.162616
0.162644
0.162672
0.162701
0.162729
0.162757
0.162785
0.162814
0.162842
0.16287
0.162899
0.162927
0.162955
0.162984
0.163012
0.163041
0.163069
0.163098
0.163126
0.163155
0.163184
0.163212
0.163241
0.163269
0.163299
0.163325
0.163357
0.163382
0.163415
0.163439
0.163473
0.163497
0.163531
0.163556
0.163587
0.163617
0.163641
0.163682
0.163694
0.163745
0.163719
0.163719
0.163719
1
0.776784
0.557797
0.446852
0.38409
0.343757
0.315556
0.294693
0.27862
0.265841
0.255416
0.246741
0.239425
0.233188
0.227805
0.223105
0.218996
0.215465
0.21254
0.210225
0.208464
0.207141
0.206122
0.205294
0.204588
0.20398
0.20347
0.203067
0.202774
0.202583
0.202474
0.202428
0.202424
0.202443
0.202473
0.202507
0.20254
0.20257
0.202598
0.202624
0.202647
0.202669
0.20269
0.202711
0.20273
0.202749
0.202768
0.202786
0.202803
0.20282
0.202836
0.202852
0.202867
0.202881
0.202895
0.202908
0.20292
0.202931
0.202941
0.202951
0.20296
0.202968
0.202975
0.202982
0.202987
0.202992
0.202996
0.202999
0.203001
0.203002
0.203002
0.203002