# vtk DataFile Version 2.0
FlowField
ASCII
DATASET STRUCTURED_GRID
DIMENSIONS 400 1 200
POINTS 80000 float
0 0 0
0.08 0 0
0.16 0 0
0.24 0 0
0.32 0 0
0.4 0 0
0.48 0 0
0.56 0 0
0.64 0 0
0.72 0 0
0.8 0 0
0.88 0 0
0.96 0 0
1.04 0 0
1.12 0 0
1.2 0 0
1.28 0 0
1.36 0 0
1.44 0 0
1.52 0 0
1.6 0 0
1.68 0 0
1.76 0 0
1.84 0 0
1.92 0 0
2 0 0
2.08 0 0
2.16 0 0
2.24 0 0
2.32 0 0
2.4 0 0
2.48 0 0
2.56 0 0
2.64 0 0
2.72 0 0
2.8 0 0
2.88 0 0
2.96 0 0
3.04 0 0
3.12 0 0
3.2 0 0
3.28 0 0
3.36 0 0
3.44 0 0
3.52 0 0
3.6 0 0
3.68 0 0
3.76 0 0
3.84 0 0
3.92 0 0
4 0 0
4.08 0 0
4.16 0 0
4.24 0 0
4.32 0 0
4.4 0 0
4.48 0 0
4.56 0 0
4.64 0 0
4.72 0 0
4.8 0 0
4.88 0 0
4.96 0 0
5.04 0 0
5.12 0 0
5.2 0 0
5.28 0 0
5.36 0 0
5.44 0 0
5.52 0 0
5.6 0 0
5.68 0 0
5.76 0 0
5.84 0 0
5.92 0 0
6 0 0
6.08 0 0
6.16 0 0
6.24 0 0
6.32 0 0
6.4 0 0
6.48 0 0
6.56 0 0
6.64 0 0
6.72 0 0
6.8 0 0
6.88 0 0
6.96 0 0
7.04 0 0
7.12 0 0
7.2 0 0
7.28 0 0
7.36 0 0
7.44 0 0
7.52 0 0
7.6 0 0
7.68 0 0
7.76 0 0
7.84 0 0
7.92 0 0
8 0 0
8.08 0 0
8.16 0 0
8.24 0 0
8.32 0 0
8.4 0 0
8.48 0 0
8.56 0 0
8.64 0 0
8.72 0 0
8.8 0 0
8.88 0 0
8.96 0 0
9.04 0 0
9.12 0 0
9.2 0 0
9.28 0 0
9.36 0 0
9.44 0 0
9.52 0 0
9.6 0 0
9.68 0 0
9.76 0 0
9.84 0 0
9.92 0 0
10 0 0
10.08 0 0
10.16 0 0
10.24 0 0
10.32 0 0
10.4 0 0
10.48 0 0
10.56 0 0
10.64 0 0
10.72 0 0
10.8 0 0
10.88 0 0
10.96 0 0
11.04 0 0
11.12 0 0
11.2 0 0
11.28 0 0
11.36 0 0
11.44 0 0
11.52 0 0
11.6 0 0
11.68 0 0
11.76 0 0
11.84 0 0
11.92 0 0
12 0 0
12.08 0 0
12.16 0 0
12.24 0 0
12.32 0 0
12.4 0 0
12.48 0 0
12.56 0 0
12.64 0 0
12.72 0 0
12.8 0 0
12.88 0 0
12.96 0 0
13.04 0 0
13.12 0 0
13.2 0 0
13.28 0 0
13.36 0 0
13.44 0 0
13.52 0 0
13.6 0 0
13.68 0 0
13.76 0 0
13.84 0 0
13.92 0 0
14 0 0
14.08 0 0
14.16 0 0
14.24 0 0
14.32 0 0
14.4 0 0
14.48 0 0
14.56 0 0
14.64 0 0
14.72 0 0
14.8 0 0
14.88 0 0
14.96 0 0
15.04 0 0
15.12 0 0
15.2 0 0
15.28 0 0
15.36 0 0
15.44 0 0
15.52 0 0
15.6 0 0
15.68 0 0
15.76 0 0
15.84 0 0
15.92 0 0
16 0 0
16.08 0 0
16.16 0 0
16.24 0 0
16.32 0 0
16.4 0 0
16.48 0 0
16.56 0 0
16.64 0 0
16.72 0 0
16.8 0 0
16.88 0 0
16.96 0 0
17.04 0 0
17.12 0 0
17.2 0 0
17.28 0 0
17.36 0 0
17.44 0 0
17.52 0 0
17.6 0 0
17.68 0 0
17.76 0 0
17.84 0 0
17.92 0 0
18 0 0
18.08 0 0
18.16 0 0
18.24 0 0
18.32 0 0
18.4 0 0
18.48 0 0
18.56 0 0
18.64 0 0
18.72 0 0
18.8 0 0
18.88 0 0
18.96 0 0
19.04 0 0
19.12 0 0
19.2 0 0
19.28 0 0
19.36 0 0
19.44 0 0
19.52 0 0
19.6 0 0
19.68 0 0
19.76 0 0
19.84 0 0
19.92 0 0
20 0 0
20.08 0 0
20.16 0 0
20.24 0 0
20.32 0 0
20.4 0 0
20.48 0 0
20.56 0 0
20.64 0 0
20.72 0 0
20.8 0 0
20.88 0 0
20.96 0 0
21.04 0 0
21.12 0 0
21.2 0 0
21.28 0 0
21.36 0 0
21.44 0 0
21.52 0 0
21.6 0 0
21.68 0 0
21.76 0 0
21.84 0 0
21.92 0 0
22 0 0
22.08 0 0
22.16 0 0
22.24 0 0
22.32 0 0
22.4 0 0
22.48 0 0
22.56 0 0
22.64 0 0
22.72 0 0
22.8 0 0
22.88 0 0
22.96 0 0
23.04 0 0
23.12 0 0
23.2 0 0
23.28 0 0
23.36 0 0
23.44 0 0
23.52 0 0
23.6 0 0
23.68 0 0
23.76 0 0
23.84 0 0
23.92 0 0
24 0 0
24.08 0 0
24.16 0 0
24.24 0 0
24.32 0 0
24.4 0 0
24.48 0 0
24.56 0 0
24.64 0 0
24.72 0 0
24.8 0 0
24.88 0 0
24.96 0 0
25.04 0 0
25.12 0 0
25.2 0 0
25.28 0 0
25.36 0 0
25.44 0 0
25.52 0 0
25.6 0 0
25.68 0 0
25.76 0 0
25.84 0 0
25.92 0 0
26 0 0
26.08 0 0
26.16 0 0
26.24 0 0
26.32 0 0
26.4 0 0
26.48 0 0
26.56 0 0
26.64 0 0
26.72 0 0
26.8 0 0
26.88 0 0
26.96 0 0
27.04 0 0
27.12 0 0
27.2 0 0
27.28 0 0
27.36 0 0
27.44 0 0
27.52 0 0
27.6 0 0
27.68 0 0
27.76 0 0
27.84 0 0
27.92 0 0
28 0 0
28.08 0 0
28.16 0 0
28.24 0 0
28.32 0 0
28.4 0 0
28.48 0 0
28.56 0 0
28.64 0 0
28.72 0 0
28.8 0 0
28.88 0 0
28.96 0 0
29.04 0 0
29.12 0 0
29.2 0 0
29.28 0 0
29.36 0 0
29.44 0 0
29.52 0 0
29.6 0 0
29.68 0 0
29.76 0 0
29.84 0 0
29.92 0 0
30 0 0
30.08 0 0
30.16 0 0
30.24 0 0
30.32 0 0
30.4 0 0
30.48 0 0
30.56 0 0
30.64 0 0
30.72 0 0
30.8 0 0
30.88 0 0
30.96 0 0
31.04 0 0
31.12 0 0
31.2 0 0
31.28 0 0
31.36 0 0
31.44 0 0
31.52 0 0
31.6 0 0
31.68 0 0
31.76 0 0
31.84 0 0
31.92 0 0
0 0.005 0
0.08 0.005 0
0.16 0.005 0
0.24 0.005 0
0.32 0.005 0
0.4 0.005 0
0.48 0.005 0
0.56 0.005 0
0.64 0.005 0
0.72 0.005 0
0.8 0.005 0
0.88 0.005 0
0.96 0.005 0
1.04 0.005 0
1.12 0.005 0
1.2 0.005 0
1.28 0.005 0
1.36 0.005 0
1.44 0.005 0
1.52 0.005 0
1.6 0.005 0
1.68 0.005 0
1.76 0.005 0
1.84 0.005 0
1.92 0.005 0
2 0.005 0
2.08 0.005 0
2.16 0.005 0
2.24 0.005 0
2.32 0.005 0
2.4 0.005 0
2.48 0.005 0
2.56 0.005 0
2.64 0.005 0
2.72 0.005 0
2.8 0.005 0
2.88 0.005 0
2.96 0.005 0
3.04 0.005 0
3.12 0.005 0
3.2 0.005 0
3.28 0.005 0
3.36 0.005 0
3.44 0.005 0
3.52 0.005 0
3.6 0.005 0
3.68 0.005 0
3.76 0.005 0
3.84 0.005 0
3.92 0.005 0
4 0.005 0
4.08 0.005 0
4.16 0.005 0
4.24 0.005 0
4.32 0.005 0
4.4 0.005 0
4.48 0.005 0
4.56 0.005 0
4.64 0.005 0
4.72 0.005 0
4.8 0.005 0
4.88 0.005 0
4.96 0.005 0
5.04 0.005 0
5.12 0.005 0
5.2 0.005 0
5.28 0.005 0
5.36 0.005 0
5.44 0.005 0
5.52 0.005 0
5.6 0.005 0
5.68 0.005 0
5.76 0.005 0
5.84 0.005 0
5.92 0.005 0
6 0.005 0
6.08 0.005 0
6.16 0.005 0
6.24 0.005 0
6.32 0.005 0
6.4 0.005 0
6.48 0.005 0
6.56 0.005 0
6.64 0.005 0
6.72 0.005 0
6.8 0.005 0
6.88 0.005 0
6.96 0.005 0
7.04 0.005 0
7.12 0.005 0
7.2 0.005 0
7.28 0.005 0
7.36 0.005 0
7.44 0.005 0
7.52 0.005 0
7.6 0.005 0
7.68 0.005 0
7.76 0.005 0
7.84 0.005 0
7.92 0.005 0
8 0.005 0
8.08 0.005 0
8.16 0.005 0
8.24 0.005 0
8.32 0.005 0
8.4 0.005 0
8.48 0.005 0
8.56 0.005 0
8.64 0.005 0
8.72 0.005 0
8.8 0.005 0
8.88 0.005 0
8.96 0.005 0
9.04 0.005 0
9.12 0.005 0
9.2 0.005 0
9.28 0.005 0
9.36 0.005 0
9.44 0.005 0
9.52 0.005 0
9.6 0.005 0
9.68 0.005 0
9.76 0.005 0
9.84 0.005 0
9.92 0.005 0
10 0.005 0
10.08 0.005 0
10.16 0.005 0
10.24 0.005 0
10.32 0.005 0
10.4 0.005 0
10.48 0.005 0
10.56 0.005 0
10.64 0.005 0
10.72 0.005 0
10.8 0.005 0
10.88 0.005 0
10.96 0.005 0
11.04 0.005 0
11.12 0.005 0
11.2 0.005 0
11.28 0.005 0
11.36 0.005 0
11.44 0.005 0
11.52 0.005 0
11.6 0.005 0
11.68 0.005 0
11.76 0.005 0
11.84 0.005 0
11.92 0.005 0
12 0.005 0
12.08 0.005 0
12.16 0.005 0
12.24 0.005 0
12.32 0.005 0
12.4 0.005 0
12.48 0.005 0
12.56 0.005 0
12.64 0.005 0
12.72 0.005 0
12.8 0.005 0
12.88 0.005 0
12.96 0.005 0
13.04 0.005 0
13.12 0.005 0
13.2 0.005 0
13.28 0.005 0
13.36 0.005 0
13.44 0.005 0
13.52 0.005 0
13.6 0.005 0
13.68 0.005 0
13.76 0.005 0
13.84 0.005 0
13.92 0.005 0
14 0.005 0
14.08 0.005 0
14.16 0.005 0
14.24 0.005 0
14.32 0.005 0
14.4 0.005 0
14.48 0.005 0
14.56 0.005 0
14.64 0.005 0
14.72 0.005 0
14.8 0.005 0
14.88 0.005 0
14.96 0.005 0
15.04 0.005 0
15.12 0.005 0
15.2 0.005 0
15.28 0.005 0
15.36 0.005 0
15.44 0.005 0
15.52 0.005 0
15.6 0.005 0
15.68 0.005 0
15.76 0.005 0
15.84 0.005 0
15.92 0.005 0
16 0.005 0
16.08 0.005 0
16.16 0.005 0
16.24 0.005 0
16.32 0.005 0
16.4 0.005 0
16.48 0.005 0
16.56 0.005 0
16.64 0.005 0
16.72 0.005 0
16.8 0.005 0
16.88 0.005 0
16.96 0.005 0
17.04 0.005 0
17.12 0.005 0
17.2 0.005 0
17.28 0.005 0
17.36 0.005 0
17.44 0.005 0
17.52 0.005 0
17.6 0.005 0
17.68 0.005 0
17.76 0.005 0
17.84 0.005 0
17.92 0.005 0
18 0.005 0
18.08 0.005 0
18.16 0.005 0
18.24 0.005 0
18.32 0.005 0
18.4 0.005 0
18.48 0.005 0
18.56 0.005 0
18.64 0.005 0
18.72 0.005 0
18.8 0.005 0
18.88 0.005 0
18.96 0.005 0
19.04 0.005 0
19.12 0.005 0
19.2 0.005 0
19.28 0.005 0
19.36 0.005 0
19.44 0.005 0
19.52 0.005 0
19.6 0.005 0
19.68 0.005 0
19.76 0.005 0
19.84 0.005 0
19.92 0.005 0
20 0.005 0
20.08 0.005 0
20.16 0.005 0
20.24 0.005 0
20.32 0.005 0
20.4 0.005 0
20.48 0.005 0
20.56 0.005 0
20.64 0.005 0
20.72 0.005 0
20.8 0.005 0
20.88 0.005 0
20.96 0.005 0
21.04 0.005 0
21.12 0.005 0
21.2 0.005 0
21.28 0.005 0
21.36 0.005 0
21.44 0.005 0
21.52 0.005 0
21.6 0.005 0
21.68 0.005 0
21.76 0.005 0
21.84 0.005 0
21.92 0.005 0
22 0.005 0
22.08 0.005 0
22.16 0.005 0
22.24 0.005 0
22.32 0.005 0
22.4 0.005 0
22.48 0.005 0
22.56 0.005 0
22.64 0.005 0
22.72 0.005 0
22.8 0.005 0
22.88 0.005 0
22.96 0.005 0
23.04 0.005 0
23.12 0.005 0
23.2 0.005 0
23.28 0.005 0
23.36 0.005 0
23.44 0.005 0
23.52 0.005 0
23.6 0.005 0
23.68 0.005 0
23.76 0.005 0
23.84 0.005 0
23.92 0.005 0
24 0.005 0
24.08 0.005 0
24.16 0.005 0
24.24 0.005 0
24.32 0.005 0
24.4 0.005 0
24.48 0.005 0
24.56 0.005 0
24.64 0.005 0
24.72 0.005 0
24.8 0.005 0
24.88 0.005 0
24.96 0.005 0
25.04 0.005 0
25.12 0.005 0
25.2 0.005 0
25.28 0.005 0
25.36 0.005 0
25.44 0.005 0
25.52 0.005 0
25.6 0.005 0
25.68 0.005 0
25.76 0.005 0
25.84 0.005 0
25.92 0.005 0
26 0.005 0
26.08 0.005 0
26.16 0.005 0
26.24 0.005 0
26.32 0.005 0
26.4 0.005 0
26.48 0.005 0
26.56 0.005 0
26.64 0.005 0
26.72 0.005 0
26.8 0.005 0
26.88 0.005 0
26.96 0.005 0
27.04 0.005 0
27.12 0.005 0
27.2 0.005 0
27.28 0.005 0
27.36 0.005 0
27.44 0.005 0
27.52 0.005 0
27.6 0.005 0
27.68 0.005 0
27.76 0.005 0
27.84 0.005 0
27.92 0.005 0
28 0.005 0
28.08 0.005 0
28.16 0.005 0
28.24 0.005 0
28.32 0.005 0
28.4 0.005 0
28.48 0.005 0
28.56 0.005 0
28.64 0.005 0
28.72 0.005 0
28.8 0.005 0
28.88 0.005 0
28.96 0.005 0
29.04 0.005 0
29.12 0.005 0
29.2 0.005 0
29.28 0.005 0
29.36 0.005 0
29.44 0.005 0
29.52 0.005 0
29.6 0.005 0
29.68 0.005 0
29.76 0.005 0
29.84 0.005 0
29.92 0.005 0
30 0.005 0
30.08 0.005 0
30.16 0.005 0
30.24 0.005 0
30.32 0.005 0
30.4 0.005 0
30.48 0.005 0
30.56 0.005 0
30.64 0.005 0
30.72 0.005 0
30.8 0.005 0
30.88 0.005 0
30.96 0.005 0
31.04 0.005 0
31.12 0.005 0
31.2 0.005 0
31.28 0.005 0
31.36 0.005 0
31.44 0.005 0
31.52 0.005 0
31.6 0.005 0
31.68 0.005 0
31.76 0.005 0
31.84 0.005 0
31.92 0.005 0
0 0.01 0
0.08 0.01 0
0.16 0.01 0
0.24 0.01 0
0.32 0.01 0
0.4 0.01 0
0.48 0.01 0
0.56 0.01 0
0.64 0.01 0
0.72 0.01 0
0.8 0.01 0
0.88 0.01 0
0.96 0.01 0
1.04 0.01 0
1.12 0.01 0
1.2 0.01 0
1.28 0.01 0
1.36 0.01 0
1.44 0.01 0
1.52 0.01 0
1.6 0.01 0
1.68 0.01 0
1.76 0.01 0
1.84 0.01 0
1.92 0.01 0
2 0.01 0
2.08 0.01 0
2.16 0.01 0
2.24 0.01 0
2.32 0.01 0
2.4 0.01 0
2.48 0.01 0
2.56 0.01 0
2.64 0.01 0
2.72 0.01 0
2.8 0.01 0
2.88 0.01 0
2.96 0.01 0
3.04 0.01 0
3.12 0.01 0
3.2 0.01 0
3.28 0.01 0
3.36 0.01 0
3.44 0.01 0
3.52 0.01 0
3.6 0.01 0
3.68 0.01 0
3.76 0.01 0
3.84 0.01 0
3.92 0.01 0
4 0.01 0
4.08 0.01 0
4.16 0.01 0
4.24 0.01 0
4.32 0.01 0
4.4 0.01 0
4.48 0.01 0
4.56 0.01 0
4.64 0.01 0
4.72 0.01 0
4.8 0.01 0
4.88 0.01 0
4.96 0.01 0
5.04 0.01 0
5.12 0.01 0
[...]
POINT_DATA 80000

SCALARS v float 1
LOOKUP_TABLE default
0
0
0
0
0
0
0
0
0
0
0
0
0
0
0
0
0
0
0
0
0
0
0
0
0
0
0
0
0
0
0
0
0
0
0
0
0
0
0
0
0
0
0
0
0
0
0
0
0
0
0
0
0
0
0
0
0
0
0
0
0
0
0
0
0
0
0
0
0
0
0
0
0
0
0
0
0
0
0
0
0
0
0
0
0
0
0
0
0
0
0
0
0
0
0
0
0
0
0
0
0
0
0
0
0
0
0
0
0
0
0
0
0
0
0
0
0
0
0
0
0
0
0
0
0
0
0
0
0
0
0
0
0
0
0
0
0
0
0
0
0
0
0
0
0
0
0
0
0
0
0
0
0
0
0
0
0
0
0
0
0
0
0
0
0
0
0
0
0
0
0
0
0
0
0
0
0
0
0
0
0
0
0
0
0
0
0
0
0
0
0
0
0
0
0
0
0
0
0
0
0
0
0
0
0
0
0
0
0
0
0
0
0
0
0
0
0
0
0
0
0
0
0
0
0
0
0
0
0
0
0
0
0
0
0
0
0
0
0
0
0
0
0
0
0
0
0
0
0
0
0
0
0
0
0
0
0
0
0
0
0
0
0
0
0
0
0
0
0
0
0
0
0
0
0
0
0
0
0
0
0
0
0
0
0
0
0
0
0
0
0
0
0
0
0
0
0
0
0
0
0
0
0
0
0
0
0
0
0
0
0
0
0
0
0
0
0
0
0
0
0
0
0
0
0
0
0
0
0
0
0
0
0
0
0
0
0
0
0
0
0
0
0
0
0
0
0
0
0
0
0
0
0
0
0
0
0
0
0
0
0
0
0
0
0
0
0
0
0
0
0
0
0
0
0
0
0
0
0
0
0
0
0
0
0
0
0
0
0
0
0
0
0
0
0
0
0
0
0
0
-0.0542716
0.0542716
0.00396261
0.000998854
0.000492787
0.000303224
0.000207849
0.000152221
0.00011678
9.28225e-05
7.5908e-05
6.35463e-05
5.42453e-05
4.70644e-05
4.13897e-05
3.68129e-05
3.30582e-05
2.99305e-05
2.72818e-05
2.49996e-05
2.30078e-05
2.1262e-05
1.97311e-05
1.83773e-05
1.71518e-05
1.60129e-05
1.49458e-05
1.39635e-05
1.30822e-05
1.22917e-05
1.15449e-05
1.07786e-05
9.94919e-06
9.05891e-06
8.15357e-06
7.29482e-06
6.5264e-06
5.85572e-06
5.25962e-06
4.70675e-06
4.1806e-06
3.68949e-06
3.25985e-06
2.91915e-06
2.67918e-06
2.52839e-06
2.43558e-06
2.36125e-06
2.27043e-06
2.1416e-06
1.9696e-06
1.7631e-06
1.5391e-06
1.3168e-06
1.11278e-06
9.38241e-07
7.98273e-07
6.9263e-07
6.17364e-07
5.66613e-07
5.34103e-07
5.1418e-07
5.02318e-07
4.95239e-07
4.90778e-07
4.87629e-07
4.85082e-07
4.82796e-07
4.80633e-07
4.78554e-07
4.76554e-07
4.74636e-07
4.72798e-07
4.71032e-07
4.69326e-07
4.67666e-07
4.66039e-07
4.64435e-07
4.62843e-07
4.61257e-07
4.59672e-07
4.58084e-07
4.56492e-07
4.54893e-07
4.53287e-07
4.51672e-07
4.50048e-07
4.48414e-07
4.46771e-07
4.45117e-07
4.43453e-07
4.41777e-07
4.4009e-07
4.38392e-07
4.36682e-07
4.3496e-07
4.33226e-07
4.31479e-07
4.2972e-07
4.27949e-07
4.26165e-07
4.24369e-07
4.2256e-07
4.20738e-07
4.18904e-07
4.17057e-07
4.15197e-07
4.13324e-07
4.11439e-07
4.09541e-07
4.07631e-07
4.05709e-07
4.03773e-07
4.01826e-07
3.99867e-07
3.97895e-07
3.95912e-07
3.93917e-07
3.9191e-07
3.89892e-07
3.87863e-07
3.85823e-07
3.83773e-07
3.81712e-07
3.79641e-07
3.7756e-07
3.75469e-07
3.7337e-07
3.71261e-07
3.69144e-07
3.67019e-07
3.64886e-07
3.62746e-07
3.60599e-07
3.58446e-07
3.56286e-07
3.54121e-07
3.51951e-07
3.49777e-07
3.47599e-07
3.45417e-07
3.43232e-07
3.41045e-07
3.38856e-07
3.36666e-07
3.34475e-07
3.32284e-07
3.30094e-07
3.27905e-07
3.25717e-07
3.23533e-07
3.21351e-07
3.19172e-07
3.16998e-07
3.14829e-07
3.12666e-07
3.10508e-07
3.08358e-07
3.06215e-07
3.0408e-07
3.01953e-07
2.99837e-07
2.9773e-07
2.95633e-07
2.93548e-07
2.91474e-07
2.89413e-07
2.87365e-07
2.8533e-07
2.83309e-07
2.81303e-07
2.79312e-07
2.77337e-07
2.75378e-07
2.73435e-07
2.71509e-07
2.69601e-07
2.67711e-07
2.65839e-07
2.63986e-07
2.62153e-07
2.60338e-07
2.58544e-07
2.56769e-07
2.55015e-07
2.53282e-07
2.5157e-07
2.49878e-07
2.48209e-07
2.4656e-07
2.44934e-07
2.43329e-07
2.41746e-07
2.40185e-07
2.38646e-07
2.3713e-07
2.35635e-07
2.34163e-07
2.32713e-07
2.31284e-07
2.29878e-07
2.28494e-07
2.27131e-07
2.2579e-07
2.2447e-07
2.23172e-07
2.21895e-07
2.20638e-07
2.19403e-07
2.18187e-07
2.16992e-07
2.15816e-07
2.1466e-07
2.13523e-07
2.12405e-07
2.11306e-07
2.10224e-07
2.0916e-07
2.08114e-07
2.07084e-07
2.06071e-07
2.05075e-07
2.04093e-07
2.03127e-07
2.02176e-07
2.0124e-07
2.00317e-07
1.99407e-07
1.98511e-07
1.97627e-07
1.96755e-07
1.95895e-07
1.95045e-07
1.94207e-07
1.93378e-07
1.9256e-07
1.9175e-07
1.90949e-07
1.90157e-07
1.89372e-07
1.88594e-07
1.87824e-07
1.8706e-07
1.86302e-07
1.8555e-07
1.84803e-07
1.8406e-07
1.83322e-07
1.82588e-07
1.81857e-07
1.8113e-07
1.80405e-07
1.79683e-07
1.78963e-07
1.78244e-07
1.77527e-07
1.76811e-07
1.76096e-07
1.75381e-07
1.74667e-07
1.73952e-07
1.73236e-07
1.7252e-07
1.71804e-07
1.71085e-07
1.70366e-07
1.69645e-07
1.68922e-07
1.68197e-07
1.6747e-07
1.6674e-07
1.66008e-07
1.65274e-07
1.64536e-07
1.63795e-07
1.63052e-07
1.62305e-07
1.61555e-07
1.60801e-07
1.60044e-07
1.59283e-07
1.58519e-07
1.57751e-07
1.56979e-07
1.56203e-07
1.55424e-07
1.54641e-07
1.53854e-07
1.53063e-07
1.52268e-07
1.51469e-07
1.50666e-07
1.4986e-07
1.49049e-07
1.48235e-07
1.47417e-07
1.46595e-07
1.45769e-07
1.4494e-07
1.44107e-07
1.4327e-07
1.4243e-07
1.41587e-07
1.4074e-07
1.3989e-07
1.39036e-07
1.38179e-07
1.37319e-07
1.36456e-07
1.3559e-07
1.34721e-07
1.33849e-07
1.32975e-07
1.32098e-07
1.31218e-07
1.30336e-07
1.29451e-07
1.28565e-07
1.27676e-07
1.26784e-07
1.25891e-07
1.24996e-07
1.24099e-07
1.23201e-07
1.223e-07
1.21398e-07
1.20495e-07
1.19591e-07
1.18685e-07
1.17778e-07
1.1687e-07
1.15961e-07
1.15051e-07
1.1414e-07
1.13229e-07
1.12317e-07
1.11404e-07
1.10491e-07
1.09578e-07
1.08665e-07
1.07751e-07
1.06838e-07
1.05925e-07
1.05011e-07
1.04099e-07
1.03186e-07
1.02274e-07
1.01362e-07
1.00452e-07
9.95397e-08
9.86334e-08
9.77191e-08
9.68217e-08
9.58978e-08
9.50214e-08
9.40707e-08
9.32408e-08
9.22293e-08
9.14914e-08
9.03629e-08
8.97845e-08
8.84641e-08
8.81248e-08
8.6535e-08
8.65059e-08
8.45891e-08
8.49109e-08
8.26487e-08
8.33171e-08
8.07384e-08
8.17033e-08
7.88747e-08
8.00665e-08
7.70448e-08
7.8443e-08
7.51932e-08
7.69033e-08
7.3247e-08
7.55163e-08
7.11462e-08
7.43322e-08
6.8849e-08
7.33652e-08
6.63718e-08
7.25215e-08
6.38483e-08
7.15496e-08
6.15493e-08
6.99107e-08
6.01208e-08
6.62492e-08
6.12203e-08
5.75149e-08
6.88963e-08
3.69544e-08
1.00326e-07
-1.50168e-08
3.33817e-07
5.84241e-08
5.84241e-08
-0.0952164
0.0952164
0.0129762
0.00385526
0.00193496
0.00119685
0.000822397
0.000602973
0.000462725
0.000367697
0.000300481
0.000251292
0.000214245
0.000185626
0.000163004
0.000144762
0.000129799
0.000117335
0.000106779
9.76888e-05
8.97643e-05
8.28247e-05
7.67362e-05
7.13403e-05
6.64476e-05
6.19043e-05
5.76604e-05
5.37606e-05
5.02508e-05
4.7073e-05
4.40401e-05
4.09191e-05
3.7564e-05
3.40021e-05
3.04152e-05
2.70315e-05
2.40048e-05
2.13541e-05
1.89925e-05
1.68106e-05
1.47568e-05
1.28676e-05
1.1238e-05
9.95772e-06
9.05443e-06
8.47068e-06
8.08237e-06
7.74254e-06
7.32746e-06
6.76673e-06
6.05064e-06
5.21855e-06
4.33732e-06
3.47875e-06
2.70254e-06
2.04699e-06
1.52739e-06
1.13964e-06
8.66641e-07
6.85037e-07
5.70691e-07
5.02284e-07
4.6302e-07
4.4089e-07
4.28051e-07
4.19832e-07
4.13725e-07
4.08548e-07
4.03835e-07
3.99458e-07
3.95409e-07
3.91697e-07
3.88311e-07
3.85219e-07
3.82374e-07
3.79724e-07
3.77219e-07
3.74818e-07
3.72489e-07
3.70205e-07
3.67949e-07
3.65709e-07
3.63476e-07
3.61245e-07
3.59013e-07
3.56775e-07
3.54531e-07
3.52279e-07
3.50017e-07
3.47746e-07
3.45463e-07
3.43168e-07
3.4086e-07
3.3854e-07
3.36205e-07
3.33856e-07
3.31493e-07
3.29115e-07
3.26722e-07
3.24313e-07
3.21889e-07
3.1945e-07
3.16996e-07
3.14526e-07
3.12041e-07
3.0954e-07
3.07024e-07
3.04493e-07
3.01946e-07
2.99385e-07
2.96808e-07
2.94216e-07
2.9161e-07
2.88988e-07
2.86352e-07
2.83702e-07
2.81036e-07
2.78357e-07
2.75664e-07
2.72956e-07
2.70235e-07
2.67501e-07
2.64753e-07
2.61993e-07
2.5922e-07
2.56434e-07
2.53636e-07
2.50827e-07
2.48006e-07
2.45175e-07
2.42332e-07
2.3948e-07
2.36618e-07
2.33747e-07
2.30867e-07
2.27979e-07
2.25083e-07
2.22181e-07
2.19271e-07
2.16356e-07
2.13435e-07
2.10509e-07
2.07579e-07
2.04646e-07
2.0171e-07
1.98772e-07
1.95832e-07
1.92891e-07
1.8995e-07
1.8701e-07
1.84071e-07
1.81134e-07
1.782e-07
1.75269e-07
1.72342e-07
1.69421e-07
1.66505e-07
1.63596e-07
1.60694e-07
1.57799e-07
1.54914e-07
1.52038e-07
1.49172e-07
1.46317e-07
1.43474e-07
1.40643e-07
1.37825e-07
1.35021e-07
1.32231e-07
1.29457e-07
1.26698e-07
1.23956e-07
1.21231e-07
1.18523e-07
1.15834e-07
1.13164e-07
1.10513e-07
1.07883e-07
1.05273e-07
1.02684e-07
1.00116e-07
9.75705e-08
9.50474e-08
9.25472e-08
9.00702e-08
8.76169e-08
8.51876e-08
8.27825e-08
8.0402e-08
7.80464e-08
7.57158e-08
7.34106e-08
7.11308e-08
6.88768e-08
6.66484e-08
6.4446e-08
6.22695e-08
6.0119e-08
5.79946e-08
5.58962e-08
5.38238e-08
5.17774e-08
4.97568e-08
4.7762e-08
4.57929e-08
4.38492e-08
4.19309e-08
4.00376e-08
3.81692e-08
3.63255e-08
3.45061e-08
3.27109e-08
3.09393e-08
2.91912e-08
2.74662e-08
2.57639e-08
2.40839e-08
2.24259e-08
2.07894e-08
1.9174e-08
1.75792e-08
1.60046e-08
1.44497e-08
1.29141e-08
1.13972e-08
9.89863e-09
8.41773e-09
6.9541e-09
5.50712e-09
4.07638e-09
2.66123e-09
1.26123e-09
-1.24229e-10
-1.49562e-09
-2.85356e-09
-4.19852e-09
-5.5311e-09
-6.8518e-09
-8.1612e-09
-9.45978e-09
-1.07481e-08
-1.20267e-08
-1.32962e-08
-1.45569e-08
-1.58095e-08
-1.70544e-08
-1.82922e-08
-1.95233e-08
-2.07482e-08
-2.19674e-08
-2.31814e-08
-2.43905e-08
-2.55954e-08
-2.67964e-08
-2.79939e-08
-2.91884e-08
-3.03802e-08
-3.15697e-08
-3.27575e-08
-3.39436e-08
-3.51287e-08
-3.6313e-08
-3.74968e-08
-3.86805e-08
-3.98643e-08
-4.10486e-08
-4.22337e-08
-4.34197e-08
-4.46071e-08
-4.5796e-08
-4.69867e-08
-4.81793e-08
-4.93741e-08
-5.05713e-08
-5.17712e-08
-5.29737e-08
-5.41792e-08
-5.53877e-08
-5.65995e-08
-5.78145e-08
-5.90331e-08
-6.02551e-08
-6.14809e-08
-6.27104e-08
-6.39438e-08
-6.5181e-08
-6.64222e-08
-6.76674e-08
-6.89166e-08
-7.01699e-08
-7.14274e-08
-7.26889e-08
-7.39546e-08
-7.52244e-08
-7.64984e-08
-7.77764e-08
-7.90586e-08
-8.03448e-08
-8.16351e-08
-8.29294e-08
-8.42277e-08
-8.55299e-08
-8.6836e-08
-8.81458e-08
-8.94595e-08
-9.07768e-08
-9.20977e-08
-9.34222e-08
-9.47502e-08
-9.60815e-08
-9.74162e-08
-9.87541e-08
-1.00095e-07
-1.01439e-07
-1.02786e-07
-1.04136e-07
-1.05489e-07
-1.06844e-07
-1.08202e-07
-1.09563e-07
-1.10926e-07
-1.12291e-07
-1.13658e-07
-1.15027e-07
-1.16398e-07
-1.17771e-07
-1.19146e-07
-1.20523e-07
-1.21901e-07
-1.2328e-07
-1.24661e-07
-1.26043e-07
-1.27426e-07
-1.28809e-07
-1.30194e-07
-1.3158e-07
-1.32966e-07
-1.34353e-07
-1.3574e-07
-1.37127e-07
-1.38515e-07
-1.39903e-07
-1.41291e-07
-1.42679e-07
-1.44066e-07
-1.45453e-07
-1.46839e-07
-1.48227e-07
-1.4961e-07
-1.51001e-07
-1.52373e-07
-1.53777e-07
-1.55122e-07
-1.56566e-07
-1.57841e-07
-1.59388e-07
-1.605e-07
-1.62278e-07
-1.63058e-07
-1.65276e-07
-1.65474e-07
-1.68415e-07
-1.6773e-07
-1.7169e-07
-1.69852e-07
-1.75051e-07
-1.71905e-07
-1.78418e-07
-1.73977e-07
-1.81698e-07
-1.76149e-07
-1.84831e-07
-1.7844e-07
-1.8786e-07
-1.8072e-07
-1.90992e-07
-1.82726e-07
-1.94509e-07
-1.84194e-07
-1.98643e-07
-1.84937e-07
-2.0355e-07
-1.84906e-07
-2.09179e-07
-1.84439e-07
-2.15052e-07
-1.84465e-07
-2.20183e-07
-1.86979e-07
-2.22215e-07
-1.97007e-07
-2.15055e-07
-2.25864e-07
-1.83878e-07
-2.98201e-07
-6.60711e-08
-4.82707e-07
7.80696e-07
-2.12097e-07
-2.12097e-07
-0.125294
0.125294
0.0249365
0.00835874
0.00427874
0.00266227
0.0018345
0.00134712
0.00103465
0.000822462
0.000672135
0.000561989
0.000478961
0.000414786
0.000364048
0.000323134
0.000289577
0.000261623
0.000237949
0.000217571
0.000199821
0.000184287
0.00017065
0.000158548
0.000147563
0.000137372
0.000127872
0.00011915
0.000111281
0.000104108
9.72184e-05
9.01221e-05
8.25343e-05
7.45412e-05
6.65441e-05
5.90253e-05
5.22982e-05
4.63935e-05
4.11278e-05
3.62808e-05
3.17574e-05
2.76406e-05
2.41227e-05
2.13733e-05
1.94242e-05
1.81316e-05
1.72214e-05
1.63834e-05
1.53664e-05
1.40364e-05
1.23879e-05
1.0515e-05
8.56448e-06
6.68879e-06
5.01082e-06
3.60632e-06
2.50182e-06
1.68355e-06
1.11146e-06
7.3361e-07
4.97531e-07
3.57571e-07
2.78158e-07
2.34089e-07
2.09045e-07
1.93396e-07
1.82025e-07
1.72546e-07
1.64043e-07
1.56275e-07
1.49231e-07
1.4293e-07
1.37346e-07
1.32405e-07
1.28003e-07
1.24027e-07
1.20372e-07
1.1695e-07
1.13689e-07
1.10539e-07
1.0746e-07
1.04427e-07
1.01423e-07
9.84351e-08
9.54563e-08
9.24811e-08
8.95052e-08
8.65258e-08
8.35403e-08
8.05467e-08
7.7543e-08
7.45278e-08
7.14997e-08
6.84576e-08
6.54004e-08
6.23275e-08
5.92382e-08
5.61321e-08
5.30087e-08
4.98681e-08
4.67099e-08
4.35342e-08
4.03409e-08
3.71302e-08
3.3902e-08
3.06564e-08
2.73935e-08
2.41136e-08
2.08165e-08
1.75025e-08
1.41717e-08
1.08241e-08
7.45989e-09
4.07921e-09
6.82044e-10
-2.73133e-09
-6.16095e-09
-9.60649e-09
-1.3068e-08
-1.65451e-08
-2.00378e-08
-2.35458e-08
-2.70689e-08
-3.06069e-08
-3.41595e-08
-3.77263e-08
-4.13073e-08
-4.49018e-08
-4.85098e-08
-5.21306e-08
-5.57641e-08
-5.94096e-08
-6.30669e-08
-6.67354e-08
-7.04146e-08
-7.4104e-08
-7.78031e-08
-8.15113e-08
-8.52281e-08
-8.89528e-08
-9.26848e-08
-9.64235e-08
-1.00168e-07
-1.03918e-07
-1.07673e-07
-1.11432e-07
-1.15194e-07
-1.18958e-07
-1.22725e-07
-1.26492e-07
-1.3026e-07
-1.34027e-07
-1.37792e-07
-1.41556e-07
-1.45317e-07
-1.49074e-07
-1.52826e-07
-1.56573e-07
-1.60314e-07
-1.64048e-07
-1.67774e-07
-1.71492e-07
-1.752e-07
-1.78898e-07
-1.82585e-07
-1.8626e-07
-1.89922e-07
-1.93571e-07
-1.97206e-07
-2.00826e-07
-2.0443e-07
-2.08018e-07
-2.11588e-07
-2.15141e-07
-2.18675e-07
-2.2219e-07
-2.25684e-07
-2.29159e-07
-2.32612e-07
-2.36043e-07
-2.39452e-07
-2.42839e-07
-2.46201e-07
-2.4954e-07
-2.52855e-07
-2.56144e-07
-2.59408e-07
-2.62647e-07
-2.65859e-07
-2.69045e-07
-2.72205e-07
-2.75337e-07
-2.78442e-07
-2.81519e-07
-2.84569e-07
-2.87591e-07
-2.90584e-07
-2.9355e-07
-2.96487e-07
-2.99396e-07
-3.02276e-07
-3.05128e-07
-3.07952e-07
-3.10747e-07
-3.13515e-07
-3.16254e-07
-3.18965e-07
-3.21648e-07
-3.24303e-07
-3.26931e-07
-3.29532e-07
-3.32106e-07
-3.34654e-07
-3.37174e-07
-3.39669e-07
-3.42138e-07
-3.44582e-07
-3.47001e-07
-3.49395e-07
-3.51765e-07
-3.54112e-07
-3.56435e-07
-3.58736e-07
-3.61014e-07
-3.63271e-07
-3.65506e-07
-3.6772e-07
-3.69914e-07
-3.72089e-07
-3.74244e-07
-3.76381e-07
-3.785e-07
-3.80601e-07
-3.82685e-07
-3.84753e-07
-3.86806e-07
-3.88843e-07
-3.90865e-07
-3.92874e-07
-3.94868e-07
-3.96851e-07
-3.9882e-07
-4.00778e-07
-4.02725e-07
-4.04661e-07
-4.06587e-07
-4.08504e-07
-4.10412e-07
-4.12311e-07
-4.14202e-07
-4.16086e-07
-4.17963e-07
-4.19833e-07
-4.21698e-07
-4.23557e-07
-4.25411e-07
-4.27261e-07
-4.29107e-07
-4.30949e-07
-4.32788e-07
-4.34624e-07
-4.36458e-07
-4.3829e-07
-4.4012e-07
-4.41949e-07
-4.43777e-07
-4.45605e-07
-4.47432e-07
-4.4926e-07
-4.51087e-07
-4.52916e-07
-4.54745e-07
-4.56576e-07
-4.58408e-07
-4.60242e-07
-4.62077e-07
-4.63915e-07
-4.65755e-07
-4.67598e-07
-4.69443e-07
-4.71291e-07
-4.73142e-07
-4.74996e-07
-4.76853e-07
-4.78714e-07
-4.80578e-07
-4.82446e-07
-4.84317e-07
-4.86192e-07
-4.88071e-07
-4.89954e-07
-4.91841e-07
-4.93731e-07
-4.95625e-07
-4.97524e-07
-4.99426e-07
-5.01333e-07
-5.03243e-07
-5.05157e-07
-5.07076e-07
-5.08998e-07
-5.10924e-07
-5.12854e-07
-5.14788e-07
-5.16726e-07
-5.18667e-07
-5.20613e-07
-5.22561e-07
-5.24514e-07
-5.2647e-07
-5.28429e-07
-5.30392e-07
-5.32358e-07
-5.34327e-07
-5.36299e-07
-5.38275e-07
-5.40253e-07
-5.42234e-07
-5.44218e-07
-5.46204e-07
-5.48194e-07
-5.50185e-07
-5.52179e-07
-5.54175e-07
-5.56174e-07
-5.58174e-07
-5.60176e-07
-5.62181e-07
-5.64186e-07
-5.66194e-07
-5.68203e-07
-5.70213e-07
-5.72225e-07
-5.74238e-07
-5.76252e-07
-5.78266e-07
-5.80282e-07
-5.82299e-07
-5.84316e-07
-5.86333e-07
-5.88351e-07
-5.90369e-07
-5.92387e-07
-5.94406e-07
-5.96424e-07
-5.98443e-07
-6.00459e-07
-6.0248e-07
-6.0449e-07
-6.0652e-07
-6.08512e-07
-6.1057e-07
-6.12507e-07
-6.14652e-07
-6.16444e-07
-6.1881e-07
-6.20262e-07
-6.23119e-07
-6.23872e-07
-6.27669e-07
-6.27187e-07
-6.32529e-07
-6.30167e-07
-6.37693e-07
-6.32868e-07
-6.43057e-07
-6.3543e-07
-6.48445e-07
-6.38044e-07
-6.53665e-07
-6.40884e-07
-6.58581e-07
-6.43996e-07
-6.63281e-07
-6.47114e-07
-6.68205e-07
-6.49669e-07
-6.7397e-07
-6.51083e-07
-6.8108e-07
-6.50964e-07
-6.89863e-07
-6.49208e-07
-7.00223e-07
-6.46516e-07
-7.11172e-07
-6.44853e-07
-7.2064e-07
-6.48449e-07
-7.23674e-07
-6.67977e-07
-7.07432e-07
-7.2744e-07
-6.4079e-07
-8.78532e-07
-3.92809e-07
-1.26133e-06
1.36018e-06
-6.93383e-07
-6.93383e-07
-0.146488
0.146488
0.0383112
0.0142348
0.00745683
0.00467358
0.00323139
0.00237738
0.00182792
0.0014539
0.00118844
0.000993685
0.000846741
0.000733091
0.000643212
0.000570729
0.000511283
0.000461756
0.000419816
0.000383728
0.000352317
0.000324837
0.000300704
0.00027926
0.000259784
0.00024173
0.00022493
0.000209514
0.000195569
0.000182789
0.000170451
0.000157742
0.000144219
0.000130065
0.000115978
0.000102764
9.09363e-05
8.05342e-05
7.12548e-05
6.27464e-05
5.48682e-05
4.77642e-05
4.17413e-05
3.70494e-05
3.37021e-05
3.14253e-05
2.9743e-05
2.81374e-05
2.62036e-05
2.37404e-05
2.07604e-05
1.74376e-05
1.40262e-05
1.0782e-05
7.90609e-06
5.51728e-06
3.65134e-06
2.27739e-06
1.32233e-06
6.95062e-07
3.05373e-07
7.5717e-08
-5.3761e-08
-1.25126e-07
-1.65412e-07
-1.90446e-07
-2.08567e-07
-2.23614e-07
-2.37032e-07
-2.49187e-07
-2.60084e-07
-2.69694e-07
-2.78068e-07
-2.85337e-07
-2.91684e-07
-2.973e-07
-3.02365e-07
-3.07029e-07
-3.11411e-07
-3.15598e-07
-3.19655e-07
-3.23624e-07
-3.27536e-07
-3.31409e-07
-3.35258e-07
-3.39091e-07
-3.42915e-07
-3.46736e-07
-3.50557e-07
-3.54382e-07
-3.58215e-07
-3.62058e-07
-3.65913e-07
-3.69782e-07
-3.73666e-07
-3.77567e-07
-3.81487e-07
-3.85424e-07
-3.8938e-07
-3.93356e-07
-3.97351e-07
-4.01365e-07
-4.05398e-07
-4.09451e-07
-4.13522e-07
-4.17613e-07
-4.21722e-07
-4.25849e-07
-4.29995e-07
-4.34159e-07
-4.38341e-07
-4.4254e-07
-4.46758e-07
-4.50992e-07
-4.55245e-07
-4.59514e-07
-4.63801e-07
-4.68105e-07
-4.72426e-07
-4.76764e-07
-4.81118e-07
-4.85489e-07
-4.89877e-07
-4.9428e-07
-4.987e-07
-5.03135e-07
-5.07585e-07
-5.12051e-07
-5.16532e-07
-5.21027e-07
-5.25536e-07
-5.30059e-07
-5.34595e-07
-5.39144e-07
-5.43705e-07
-5.48278e-07
-5.52863e-07
-5.57458e-07
-5.62064e-07
-5.66679e-07
-5.71303e-07
-5.75936e-07
-5.80576e-07
-5.85223e-07
-5.89877e-07
-5.94536e-07
-5.992e-07
-6.03869e-07
-6.08541e-07
-6.13215e-07
-6.17891e-07
-6.22569e-07
-6.27246e-07
-6.31923e-07
-6.36599e-07
-6.41272e-07
-6.45943e-07
-6.50609e-07
-6.55271e-07
-6.59927e-07
-6.64576e-07
-6.69218e-07
-6.73852e-07
-6.78477e-07
-6.83092e-07
-6.87696e-07
-6.92289e-07
-6.96869e-07
-7.01436e-07
-7.05989e-07
-7.10528e-07
-7.1505e-07
-7.19556e-07
-7.24045e-07
-7.28516e-07
-7.32968e-07
-7.37401e-07
-7.41813e-07
-7.46205e-07
-7.50576e-07
-7.54924e-07
-7.5925e-07
-7.63552e-07
-7.6783e-07
-7.72084e-07
-7.76313e-07
-7.80517e-07
-7.84695e-07
-7.88846e-07
-7.92971e-07
-7.97068e-07
-8.01138e-07
-8.0518e-07
-8.09194e-07
-8.13179e-07
-8.17136e-07
-8.21064e-07
-8.24963e-07
-8.28832e-07
-8.32673e-07
-8.36484e-07
-8.40265e-07
-8.44017e-07
-8.47739e-07
-8.51432e-07
-8.55095e-07
-8.58729e-07
-8.62334e-07
-8.6591e-07
-8.69456e-07
-8.72974e-07
-8.76463e-07
-8.79924e-07
-8.83357e-07
-8.86762e-07
-8.90139e-07
-8.9349e-07
-8.96813e-07
-9.00111e-07
-9.03382e-07
-9.06627e-07
-9.09847e-07
-9.13043e-07
-9.16214e-07
-9.19362e-07
-9.22486e-07
-9.25587e-07
-9.28667e-07
-9.31724e-07
-9.3476e-07
-9.37775e-07
-9.40771e-07
-9.43746e-07
-9.46703e-07
-9.49641e-07
-9.52562e-07
-9.55465e-07
-9.58351e-07
-9.61221e-07
-9.64076e-07
-9.66916e-07
-9.69741e-07
-9.72553e-07
-9.75351e-07
-9.78137e-07
-9.8091e-07
-9.83673e-07
-9.86424e-07
-9.89165e-07
-9.91895e-07
-9.94617e-07
-9.9733e-07
-1.00003e-06
-1.00273e-06
-1.00542e-06
-1.0081e-06
-1.01078e-06
-1.01345e-06
-1.01612e-06
-1.01878e-06
-1.02144e-06
-1.02409e-06
-1.02674e-06
-1.02939e-06
-1.03203e-06
-1.03467e-06
-1.03731e-06
-1.03995e-06
-1.04259e-06
-1.04522e-06
-1.04786e-06
-1.05049e-06
-1.05313e-06
-1.05576e-06
-1.0584e-06
-1.06104e-06
-1.06367e-06
-1.06631e-06
-1.06896e-06
-1.0716e-06
-1.07424e-06
-1.07689e-06
-1.07954e-06
-1.08219e-06
-1.08485e-06
-1.0875e-06
-1.09016e-06
-1.09283e-06
-1.09549e-06
-1.09816e-06
-1.10084e-06
-1.10351e-06
-1.10619e-06
-1.10887e-06
-1.11156e-06
-1.11425e-06
-1.11695e-06
-1.11964e-06
-1.12235e-06
-1.12505e-06
-1.12776e-06
-1.13047e-06
-1.13319e-06
-1.13591e-06
-1.13863e-06
-1.14136e-06
-1.14409e-06
-1.14682e-06
-1.14956e-06
-1.1523e-06
-1.15505e-06
-1.1578e-06
-1.16055e-06
-1.1633e-06
-1.16606e-06
-1.16882e-06
-1.17158e-06
-1.17435e-06
-1.17712e-06
-1.17989e-06
-1.18267e-06
-1.18545e-06
-1.18823e-06
-1.19101e-06
-1.19379e-06
-1.19658e-06
-1.19937e-06
-1.20216e-06
-1.20495e-06
-1.20775e-06
-1.21054e-06
-1.21334e-06
-1.21614e-06
-1.21894e-06
-1.22175e-06
-1.22455e-06
-1.22735e-06
-1.23016e-06
-1.23297e-06
-1.23577e-06
-1.23858e-06
-1.24139e-06
-1.2442e-06
-1.24701e-06
-1.24982e-06
-1.25263e-06
-1.25544e-06
-1.25825e-06
-1.26105e-06
-1.26388e-06
-1.26665e-06