# vtk DataFile Version 2.0
FlowField
ASCII
DATASET STRUCTURED_GRID
DIMENSIONS 400 1 200
POINTS 80000 float
0 0 0
0.08 0 0
0.16 0 0
0.24 0 0
0.32 0 0
0.4 0 0
0.48 0 0
0.56 0 0
0.64 0 0
0.72 0 0
0.8 0 0
0.88 0 0
0.96 0 0
1.04 0 0
1.12 0 0
1.2 0 0
1.28 0 0
1.36 0 0
1.44 0 0
1.52 0 0
1.6 0 0
1.68 0 0
1.76 0 0
1.84 0 0
1.92 0 0
2 0 0
2.08 0 0
2.16 0 0
2.24 0 0
2.32 0 0
2.4 0 0
2.48 0 0
2.56 0 0
2.64 0 0
2.72 0 0
2.8 0 0
2.88 0 0
2.96 0 0
3.04 0 0
3.12 0 0
3.2 0 0
3.28 0 0
3.36 0 0
3.44 0 0
3.52 0 0
3.6 0 0
3.68 0 0
3.76 0 0
3.84 0 0
3.92 0 0
4 0 0
4.08 0 0
4.16 0 0
4.24 0 0
4.32 0 0
4.4 0 0
4.48 0 0
4.56 0 0
4.64 0 0
4.72 0 0
4.8 0 0
4.88 0 0
4.96 0 0
5.04 0 0
5.12 0 0
5.2 0 0
5.28 0 0
5.36 0 0
5.44 0 0
5.52 0 0
5.6 0 0
5.68 0 0
5.76 0 0
5.84 0 0
5.92 0 0
6 0 0
6.08 0 0
6.16 0 0
6.24 0 0
6.32 0 0
6.4 0 0
6.48 0 0
6.56 0 0
6.64 0 0
6.72 0 0
6.8 0 0
6.88 0 0
6.96 0 0
7.04 0 0
7.12 0 0
7.2 0 0
7.28 0 0
7.36 0 0
7.44 0 0
7.52 0 0
7.6 0 0
7.68 0 0
7.76 0 0
7.84 0 0
7.92 0 0
8 0 0
8.08 0 0
8.16 0 0
8.24 0 0
8.32 0 0
8.4 0 0
8.48 0 0
8.56 0 0
8.64 0 0
8.72 0 0
8.8 0 0
8.88 0 0
8.96 0 0
9.04 0 0
9.12 0 0
9.2 0 0
9.28 0 0
9.36 0 0
9.44 0 0
9.52 0 0
9.6 0 0
9.68 0 0
9.76 0 0
9.84 0 0
9.92 0 0
10 0 0
10.08 0 0
10.16 0 0
10.24 0 0
10.32 0 0
10.4 0 0
10.48 0 0
10.56 0 0
10.64 0 0
10.72 0 0
10.8 0 0
10.88 0 0
10.96 0 0
11.04 0 0
11.12 0 0
11.2 0 0
11.28 0 0
11.36 0 0
11.44 0 0
11.52 0 0
11.6 0 0
11.68 0 0
11.76 0 0
11.84 0 0
11.92 0 0
12 0 0
12.08 0 0
12.16 0 0
12.24 0 0
12.32 0 0
12.4 0 0
12.48 0 0
12.56 0 0
12.64 0 0
12.72 0 0
12.8 0 0
12.88 0 0
12.96 0 0
13.04 0 0
13.12 0 0
13.2 0 0
13.28 0 0
13.36 0 0
13.44 0 0
13.52 0 0
13.6 0 0
13.68 0 0
13.76 0 0
13.84 0 0
13.92 0 0
14 0 0
14.08 0 0
14.16 0 0
14.24 0 0
14.32 0 0
14.4 0 0
14.48 0 0
14.56 0 0
14.64 0 0
14.72 0 0
14.8 0 0
14.88 0 0
14.96 0 0
15.04 0 0
15.12 0 0
15.2 0 0
15.28 0 0
15.36 0 0
15.44 0 0
15.52 0 0
15.6 0 0
15.68 0 0
15.76 0 0
15.84 0 0
15.92 0 0
16 0 0
16.08 0 0
16.16 0 0
16.24 0 0
16.32 0 0
16.4 0 0
16.48 0 0
16.56 0 0
16.64 0 0
16.72 0 0
16.8 0 0
16.88 0 0
16.96 0 0
17.04 0 0
17.12 0 0
17.2 0 0
17.28 0 0
17.36 0 0
17.44 0 0
17.52 0 0
17.6 0 0
17.68 0 0
17.76 0 0
17.84 0 0
17.92 0 0
18 0 0
18.08 0 0
18.16 0 0
18.24 0 0
18.32 0 0
18.4 0 0
18.48 0 0
18.56 0 0
18.64 0 0
18.72 0 0
18.8 0 0
18.88 0 0
18.96 0 0
19.04 0 0
19.12 0 0
19.2 0 0
19.28 0 0
19.36 0 0
19.44 0 0
19.52 0 0
19.6 0 0
19.68 0 0
19.76 0 0
19.84 0 0
19.92 0 0
20 0 0
20.08 0 0
20.16 0 0
20.24 0 0
20.32 0 0
20.4 0 0
20.48 0 0
20.56 0 0
20.64 0 0
20.72 0 0
20.8 0 0
20.88 0 0
20.96 0 0
21.04 0 0
21.12 0 0
21.2 0 0
21.28 0 0
21.36 0 0
21.44 0 0
21.52 0 0
21.6 0 0
21.68 0 0
21.76 0 0
21.84 0 0
21.92 0 0
22 0 0
22.08 0 0
22.16 0 0
22.24 0 0
22.32 0 0
22.4 0 0
22.48 0 0
22.56 0 0
22.64 0 0
22.72 0 0
22.8 0 0
22.88 0 0
22.96 0 0
23.04 0 0
23.12 0 0
23.2 0 0
23.28 0 0
23.36 0 0
23.44 0 0
23.52 0 0
23.6 0 0
23.68 0 0
23.76 0 0
23.84 0 0
23.92 0 0
24 0 0
24.08 0 0
24.16 0 0
24.24 0 0
24.32 0 0
24.4 0 0
24.48 0 0
24.56 0 0
24.64 0 0
24.72 0 0
24.8 0 0
24.88 0 0
24.96 0 0
25.04 0 0
25.12 0 0
25.2 0 0
25.28 0 0
25.36 0 0
25.44 0 0
25.52 0 0
25.6 0 0
25.68 0 0
25.76 0 0
25.84 0 0
25.92 0 0
26 0 0
26.08 0 0
26.16 0 0
26.24 0 0
26.32 0 0
26.4 0 0
26.48 0 0
26.56 0 0
26.64 0 0
26.72 0 0
26.8 0 0
26.88 0 0
26.96 0 0
27.04 0 0
27.12 0 0
27.2 0 0
27.28 0 0
27.36 0 0
27.44 0 0
27.52 0 0
27.6 0 0
27.68 0 0
27.76 0 0
27.84 0 0
27.92 0 0
28 0 0
28.08 0 0
28.16 0 0
28.24 0 0
28.32 0 0
28.4 0 0
28.48 0 0
28.56 0 0
28.64 0 0
28.72 0 0
28.8 0 0
28.88 0 0
28.96 0 0
29.04 0 0
29.12 0 0
29.2 0 0
29.28 0 0
29.36 0 0
29.44 0 0
29.52 0 0
29.6 0 0
29.68 0 0
29.76 0 0
29.84 0 0
29.92 0 0
30 0 0
30.08 0 0
30.16 0 0
30.24 0 0
30.32 0 0
30.4 0 0
30.48 0 0
30.56 0 0
30.64 0 0
30.72 0 0
30.8 0 0
30.88 0 0
30.96 0 0
31.04 0 0
31.12 0 0
31.2 0 0
31.28 0 0
31.36 0 0
31.44 0 0
31.52 0 0
31.6 0 0
31.68 0 0
31.76 0 0
31.84 0 0
31.92 0 0
0 0.005 0
0.08 0.005 0
0.16 0.005 0
0.24 0.005 0
0.32 0.005 0
0.4 0.005 0
0.48 0.005 0
0.56 0.005 0
0.64 0.005 0
0.72 0.005 0
0.8 0.005 0
0.88 0.005 0
0.96 0.005 0
1.04 0.005 0
1.12 0.005 0
1.2 0.005 0
1.28 0.005 0
1.36 0.005 0
1.44 0.005 0
1.52 0.005 0
1.6 0.005 0
1.68 0.005 0
1.76 0.005 0
1.84 0.005 0
1.92 0.005 0
2 0.005 0
2.08 0.005 0
2.16 0.005 0
2.24 0.005 0
2.32 0.005 0
2.4 0.005 0
2.48 0.005 0
2.56 0.005 0
2.64 0.005 0
2.72 0.005 0
2.8 0.005 0
2.88 0.005 0
2.96 0.005 0
3.04 0.005 0
3.12 0.005 0
3.2 0.005 0
3.28 0.005 0
3.36 0.005 0
3.44 0.005 0
3.52 0.005 0
3.6 0.005 0
3.68 0.005 0
3.76 0.005 0
3.84 0.005 0
3.92 0.005 0
4 0.005 0
4.08 0.005 0
4.16 0.005 0
4.24 0.005 0
4.32 0.005 0
4.4 0.005 0
4.48 0.005 0
4.56 0.005 0
4.64 0.005 0
4.72 0.005 0
4.8 0.005 0
4.88 0.005 0
4.96 0.005 0
5.04 0.005 0
5.12 0.005 0
5.2 0.005 0
5.28 0.005 0
5.36 0.005 0
5.44 0.005 0
5.52 0.005 0
5.6 0.005 0
5.68 0.005 0
5.76 0.005 0
5.84 0.005 0
5.92 0.005 0
6 0.005 0
6.08 0.005 0
6.16 0.005 0
6.24 0.005 0
6.32 0.005 0
6.4 0.005 0
6.48 0.005 0
6.56 0.005 0
6.64 0.005 0
6.72 0.005 0
6.8 0.005 0
6.88 0.005 0
6.96 0.005 0
7.04 0.005 0
7.12 0.005 0
7.2 0.005 0
7.28 0.005 0
7.36 0.005 0
7.44 0.005 0
7.52 0.005 0
7.6 0.005 0
7.68 0.005 0
7.76 0.005 0
7.84 0.005 0
7.92 0.005 0
8 0.005 0
8.08 0.005 0
8.16 0.005 0
8.24 0.005 0
8.32 0.005 0
8.4 0.005 0
8.48 0.005 0
8.56 0.005 0
8.64 0.005 0
8.72 0.005 0
8.8 0.005 0
8.88 0.005 0
8.96 0.005 0
9.04 0.005 0
9.12 0.005 0
9.2 0.005 0
9.28 0.005 0
9.36 0.005 0
9.44 0.005 0
9.52 0.005 0
9.6 0.005 0
9.68 0.005 0
9.76 0.005 0
9.84 0.005 0
9.92 0.005 0
10 0.005 0
10.08 0.005 0
10.16 0.005 0
10.24 0.005 0
10.32 0.005 0
10.4 0.005 0
10.48 0.005 0
10.56 0.005 0
10.64 0.005 0
10.72 0.005 0
10.8 0.005 0
10.88 0.005 0
10.96 0.005 0
11.04 0.005 0
11.12 0.005 0
11.2 0.005 0
11.28 0.005 0
11.36 0.005 0
11.44 0.005 0
11.52 0.005 0
11.6 0.005 0
11.68 0.005 0
11.76 0.005 0
11.84 0.005 0
11.92 0.005 0
12 0.005 0
12.08 0.005 0
12.16 0.005 0
12.24 0.005 0
12.32 0.005 0
12.4 0.005 0
12.48 0.005 0
12.56 0.005 0
12.64 0.005 0
12.72 0.005 0
12.8 0.005 0
12.88 0.005 0
12.96 0.005 0
13.04 0.005 0
13.12 0.005 0
13.2 0.005 0
13.28 0.005 0
13.36 0.005 0
13.44 0.005 0
13.52 0.005 0
13.6 0.005 0
13.68 0.005 0
13.76 0.005 0
13.84 0.005 0
13.92 0.005 0
14 0.005 0
14.08 0.005 0
14.16 0.005 0
14.24 0.005 0
14.32 0.005 0
14.4 0.005 0
14.48 0.005 0
14.56 0.005 0
14.64 0.005 0
14.72 0.005 0
14.8 0.005 0
14.88 0.005 0
14.96 0.005 0
15.04 0.005 0
15.12 0.005 0
15.2 0.005 0
15.28 0.005 0
15.36 0.005 0
15.44 0.005 0
15.52 0.005 0
15.6 0.005 0
15.68 0.005 0
15.76 0.005 0
15.84 0.005 0
15.92 0.005 0
16 0.005 0
16.08 0.005 0
16.16 0.005 0
16.24 0.005 0
16.32 0.005 0
16.4 0.005 0
16.48 0.005 0
16.56 0.005 0
16.64 0.005 0
16.72 0.005 0
16.8 0.005 0
16.88 0.005 0
16.96 0.005 0
17.04 0.005 0
17.12 0.005 0
17.2 0.005 0
17.28 0.005 0
17.36 0.005 0
17.44 0.005 0
17.52 0.005 0
17.6 0.005 0
17.68 0.005 0
17.76 0.005 0
17.84 0.005 0
17.92 0.005 0
18 0.005 0
18.08 0.005 0
18.16 0.005 0
18.24 0.005 0
18.32 0.005 0
18.4 0.005 0
18.48 0.005 0
18.56 0.005 0
18.64 0.005 0
18.72 0.005 0
18.8 0.005 0
18.88 0.005 0
18.96 0.005 0
19.04 0.005 0
19.12 0.005 0
19.2 0.005 0
19.28 0.005 0
19.36 0.005 0
19.44 0.005 0
19.52 0.005 0
19.6 0.005 0
19.68 0.005 0
19.76 0.005 0
19.84 0.005 0
19.92 0.005 0
20 0.005 0
20.08 0.005 0
20.16 0.005 0
20.24 0.005 0
20.32 0.005 0
20.4 0.005 0
20.48 0.005 0
20.56 0.005 0
20.64 0.005 0
20.72 0.005 0
20.8 0.005 0
20.88 0.005 0
20.96 0.005 0
21.04 0.005 0
21.12 0.005 0
21.2 0.005 0
21.28 0.005 0
21.36 0.005 0
21.44 0.005 0
21.52 0.005 0
21.6 0.005 0
21.68 0.005 0
21.76 0.005 0
21.84 0.005 0
21.92 0.005 0
22 0.005 0
22.08 0.005 0
22.16 0.005 0
22.24 0.005 0
22.32 0.005 0
22.4 0.005 0
22.48 0.005 0
22.56 0.005 0
22.64 0.005 0
22.72 0.005 0
22.8 0.005 0
22.88 0.005 0
22.96 0.005 0
23.04 0.005 0
23.12 0.005 0
23.2 0.005 0
23.28 0.005 0
23.36 0.005 0
23.44 0.005 0
23.52 0.005 0
23.6 0.005 0
23.68 0.005 0
23.76 0.005 0
23.84 0.005 0
23.92 0.005 0
24 0.005 0
24.08 0.005 0
24.16 0.005 0
24.24 0.005 0
24.32 0.005 0
24.4 0.005 0
24.48 0.005 0
24.56 0.005 0
24.64 0.005 0
24.72 0.005 0
24.8 0.005 0
24.88 0.005 0
24.96 0.005 0
25.04 0.005 0
25.12 0.005 0
25.2 0.005 0
25.28 0.005 0
25.36 0.005 0
25.44 0.005 0
25.52 0.005 0
25.6 0.005 0
25.68 0.005 0
25.76 0.005 0
25.84 0.005 0
25.92 0.005 0
26 0.005 0
26.08 0.005 0
26.16 0.005 0
26.24 0.005 0
26.32 0.005 0
26.4 0.005 0
26.48 0.005 0
26.56 0.005 0
26.64 0.005 0
26.72 0.005 0
26.8 0.005 0
26.88 0.005 0
26.96 0.005 0
27.04 0.005 0
27.12 0.005 0
27.2 0.005 0
27.28 0.005 0
27.36 0.005 0
27.44 0.005 0
27.52 0.005 0
27.6 0.005 0
27.68 0.005 0
27.76 0.005 0
27.84 0.005 0
27.92 0.005 0
28 0.005 0
28.08 0.005 0
28.16 0.005 0
28.24 0.005 0
28.32 0.005 0
28.4 0.005 0
28.48 0.005 0
28.56 0.005 0
28.64 0.005 0
28.72 0.005 0
28.8 0.005 0
28.88 0.005 0
28.96 0.005 0
29.04 0.005 0
29.12 0.005 0
29.2 0.005 0
29.28 0.005 0
29.36 0.005 0
29.44 0.005 0
29.52 0.005 0
29.6 0.005 0
29.68 0.005 0
29.76 0.005 0
29.84 0.005 0
29.92 0.005 0
30 0.005 0
30.08 0.005 0
30.16 0.005 0
30.24 0.005 0
30.32 0.005 0
30.4 0.005 0
30.48 0.005 0
30.56 0.005 0
30.64 0.005 0
30.72 0.005 0
30.8 0.005 0
30.88 0.005 0
30.96 0.005 0
31.04 0.005 0
31.12 0.005 0
31.2 0.005 0
31.28 0.005 0
31.36 0.005 0
31.44 0.005 0
31.52 0.005 0
31.6 0.005 0
31.68 0.005 0
31.76 0.005 0
31.84 0.005 0
31.92 0.005 0
0 0.01 0
0.08 0.01 0
0.16 0.01 0
0.24 0.01 0
0.32 0.01 0
0.4 0.01 0
0.48 0.01 0
0.56 0.01 0
0.64 0.01 0
0.72 0.01 0
0.8 0.01 0
0.88 0.01 0
0.96 0.01 0
1.04 0.01 0
1.12 0.01 0
1.2 0.01 0
1.28 0.01 0
1.36 0.01 0
1.44 0.01 0
1.52 0.01 0
1.6 0.01 0
1.68 0.01 0
1.76 0.01 0
1.84 0.01 0
1.92 0.01 0
2 0.01 0
2.08 0.01 0
2.16 0.01 0
2.24 0.01 0
2.32 0.01 0
2.4 0.01 0
2.48 0.01 0
2.56 0.01 0
2.64 0.01 0
2.72 0.01 0
2.8 0.01 0
2.88 0.01 0
2.96 0.01 0
3.04 0.01 0
3.12 0.01 0
3.2 0.01 0
3.28 0.01 0
3.36 0.01 0
3.44 0.01 0
3.52 0.01 0
3.6 0.01 0
3.68 0.01 0
3.76 0.01 0
3.84 0.01 0
3.92 0.01 0
4 0.01 0
4.08 0.01 0
4.16 0.01 0
4.24 0.01 0
4.32 0.01 0
4.4 0.01 0
4.48 0.01 0
4.56 0.01 0
4.64 0.01 0
4.72 0.01 0
4.8 0.01 0
4.88 0.01 0
4.96 0.01 0
5.04 0.01 0
5.12 0.01 0
[...]
POINT_DATA 80000

SCALARS p float 1
LOOKUP_TABLE default
1
56.8508
56.5491
56.5079
56.4878
56.4734
56.4614
56.4506
56.4406
56.4311
56.4219
56.4131
56.4045
56.396
56.3878
56.3798
56.372
56.3643
56.3568
56.3494
56.3422
56.3351
56.3282
56.3214
56.3148
56.3082
56.3018
56.2955
56.2893
56.2833
56.2775
56.2717
56.2662
56.2607
56.2554
56.2502
56.2452
56.2402
56.2353
56.2305
56.2257
56.2209
56.2162
56.2114
56.2067
56.202
56.1974
56.1929
56.1884
56.184
56.1796
56.1753
56.171
56.1667
56.1624
56.1582
56.1539
56.1497
56.1454
56.1411
56.1369
56.1326
56.1284
56.1241
56.1199
56.1156
56.1113
56.1071
56.1028
56.0986
56.0943
56.0901
56.0858
56.0815
56.0773
56.073
56.0688
56.0645
56.0603
56.056
56.0517
56.0475
56.0432
56.039
56.0347
56.0305
56.0262
56.0219
56.0177
56.0134
56.0092
56.0049
56.0006
55.9964
55.9921
55.9879
55.9836
55.9794
55.9751
55.9708
55.9666
55.9623
55.9581
55.9538
55.9495
55.9453
55.941
55.9368
55.9325
55.9282
55.924
55.9197
55.9155
55.9112
55.9069
55.9027
55.8984
55.8942
55.8899
55.8856
55.8814
55.8771
55.8729
55.8686
55.8643
55.8601
55.8558
55.8516
55.8473
55.843
55.8388
55.8345
55.8303
55.826
55.8217
55.8175
55.8132
55.8089
55.8047
55.8004
55.7962
55.7919
55.7876
55.7834
55.7791
55.7749
55.7706
55.7663
55.7621
55.7578
55.7536
55.7493
55.745
55.7408
55.7365
55.7322
55.728
55.7237
55.7195
55.7152
55.7109
55.7067
55.7024
55.6982
55.6939
55.6896
55.6854
55.6811
55.6768
55.6726
55.6683
55.6641
55.6598
55.6555
55.6513
55.647
55.6427
55.6385
55.6342
55.63
55.6257
55.6214
55.6172
55.6129
55.6087
55.6044
55.6001
55.5959
55.5916
55.5874
55.5831
55.5788
55.5746
55.5703
55.566
55.5618
55.5575
55.5533
55.549
55.5447
55.5405
55.5362
55.532
55.5277
55.5235
55.5192
55.5149
55.5107
55.5064
55.5022
55.4979
55.4936
55.4894
55.4851
55.4809
55.4766
55.4724
55.4681
55.4638
55.4596
55.4553
55.4511
55.4468
55.4426
55.4383
55.4341
55.4298
55.4255
55.4213
55.417
55.4128
55.4085
55.4043
55.4
55.3958
55.3915
55.3873
55.383
55.3788
55.3745
55.3703
55.366
55.3618
55.3575
55.3533
55.349
55.3448
55.3406
55.3363
55.3321
55.3278
55.3236
55.3193
55.3151
55.3109
55.3066
55.3024
55.2982
55.2939
55.2897
55.2854
55.2812
55.277
55.2727
55.2685
55.2643
55.2601
55.2558
55.2516
55.2474
55.2431
55.2389
55.2347
55.2305
55.2263
55.222
55.2178
55.2136
55.2094
55.2052
55.201
55.1968
55.1925
55.1883
55.1841
55.1799
55.1757
55.1715
55.1673
55.1631
55.1589
55.1547
55.1505
55.1463
55.1421
55.1379
55.1338
55.1296
55.1254
55.1212
55.117
55.1128
55.1087
55.1045
55.1003
55.0961
55.092
55.0878
55.0836
55.0795
55.0753
55.0711
55.067
55.0628
55.0587
55.0545
55.0503
55.0462
55.042
55.0379
55.0337
55.0296
55.0254
55.0213
55.0172
55.013
55.0089
55.0047
55.0006
54.9965
54.9923
54.9882
54.9841
54.98
54.9758
54.9717
54.9676
54.9634
54.9593
54.9552
54.9511
54.947
54.9428
54.9387
54.9346
54.9305
54.9264
54.9223
54.9181
54.914
54.9099
54.9058
54.9017
54.8976
54.8934
54.8893
54.8852
54.8811
54.877
54.8729
54.8687
54.8646
54.8605
54.8564
54.8523
54.8482
54.844
54.8399
54.8358
54.8317
54.8275
54.8234
54.8193
54.8152
54.811
54.8069
54.8028
54.7986
54.7945
54.7903
54.7862
54.7821
54.7779
54.7738
54.7696
54.7654
54.7613
54.7571
54.753
54.7488
54.7446
54.7405
54.7363
54.7321
54.7279
54.7238
54.7196
54.7154
54.7112
0.5
56.8508
56.8508
56.5491
56.5079
56.4878
56.4734
56.4614
56.4506
56.4406
56.4311
56.4219
56.4131
56.4045
56.396
56.3878
56.3798
56.372
56.3643
56.3568
56.3494
56.3422
56.3351
56.3282
56.3214
56.3148
56.3082
56.3018
56.2955
56.2893
56.2833
56.2775
56.2717
56.2662
56.2607
56.2554
56.2502
56.2452
56.2402
56.2353
56.2305
56.2257
56.2209
56.2162
56.2114
56.2067
56.202
56.1974
56.1929
56.1884
56.184
56.1796
56.1753
56.171
56.1667
56.1624
56.1582
56.1539
56.1497
56.1454
56.1411
56.1369
56.1326
56.1284
56.1241
56.1199
56.1156
56.1113
56.1071
56.1028
56.0986
56.0943
56.0901
56.0858
56.0815
56.0773
56.073
56.0688
56.0645
56.0603
56.056
56.0517
56.0475
56.0432
56.039
56.0347
56.0305
56.0262
56.0219
56.0177
56.0134
56.0092
56.0049
56.0006
55.9964
55.9921
55.9879
55.9836
55.9794
55.9751
55.9708
55.9666
55.9623
55.9581
55.9538
55.9495
55.9453
55.941
55.9368
55.9325
55.9282
55.924
55.9197
55.9155
55.9112
55.9069
55.9027
55.8984
55.8942
55.8899
55.8856
55.8814
55.8771
55.8729
55.8686
55.8643
55.8601
55.8558
55.8516
55.8473
55.843
55.8388
55.8345
55.8303
55.826
55.8217
55.8175
55.8132
55.8089
55.8047
55.8004
55.7962
55.7919
55.7876
55.7834
55.7791
55.7749
55.7706
55.7663
55.7621
55.7578
55.7536
55.7493
55.745
55.7408
55.7365
55.7322
55.728
55.7237
55.7195
55.7152
55.7109
55.7067
55.7024
55.6982
55.6939
55.6896
55.6854
55.6811
55.6768
55.6726
55.6683
55.6641
55.6598
55.6555
55.6513
55.647
55.6427
55.6385
55.6342
55.63
55.6257
55.6214
55.6172
55.6129
55.6087
55.6044
55.6001
55.5959
55.5916
55.5874
55.5831
55.5788
55.5746
55.5703
55.566
55.5618
55.5575
55.5533
55.549
55.5447
55.5405
55.5362
55.532
55.5277
55.5235
55.5192
55.5149
55.5107
55.5064
55.5022
55.4979
55.4936
55.4894
55.4851
55.4809
55.4766
55.4724
55.4681
55.4638
55.4596
55.4553
55.4511
55.4468
55.4426
55.4383
55.4341
55.4298
55.4255
55.4213
55.417
55.4128
55.4085
55.4043
55.4
55.3958
55.3915
55.3873
55.383
55.3788
55.3745
55.3703
55.366
55.3618
55.3575
55.3533
55.349
55.3448
55.3406
55.3363
55.3321
55.3278
55.3236
55.3193
55.3151
55.3109
55.3066
55.3024
55.2982
55.2939
55.2897
55.2854
55.2812
55.277
55.2727
55.2685
55.2643
55.2601
55.2558
55.2516
55.2474
55.2431
55.2389
55.2347
55.2305
55.2263
55.222
55.2178
55.2136
55.2094
55.2052
55.201
55.1968
55.1925
55.1883
55.1841
55.1799
55.1757
55.1715
55.1673
55.1631
55.1589
55.1547
55.1505
55.1463
55.1421
55.1379
55.1338
55.1296
55.1254
55.1212
55.117
55.1128
55.1087
55.1045
55.1003
55.0961
55.092
55.0878
55.0836
55.0795
55.0753
55.0711
55.067
55.0628
55.0587
55.0545
55.0503
55.0462
55.042
55.0379
55.0337
55.0296
55.0254
55.0213
55.0172
55.013
55.0089
55.0047
55.0006
54.9965
54.9923
54.9882
54.9841
54.98
54.9758
54.9717
54.9676
54.9634
54.9593
54.9552
54.9511
54.947
54.9428
54.9387
54.9346
54.9305
54.9264
54.9223
54.9181
54.914
54.9099
54.9058
54.9017
54.8976
54.8934
54.8893
54.8852
54.8811
54.877
54.8729
54.8687
54.8646
54.8605
54.8564
54.8523
54.8482
54.844
54.8399
54.8358
54.8317
54.8275
54.8234
54.8193
54.8152
54.811
54.8069
54.8028
54.7986
54.7945
54.7903
54.7862
54.7821
54.7779
54.7738
54.7696
54.7654
54.7613
54.7571
54.753
54.7488
54.7446
54.7405
54.7363
54.7321
54.7279
54.7238
54.7196
54.7154
54.7112
54.7112
56.8362
56.8362
56.5529
56.5091
56.4884
56.4738
56.4616
56.4508
56.4408
56.4312
56.422
56.4132
56.4045
56.3961
56.3879
56.3799
56.372
56.3643
56.3568
56.3495
56.3423
56.3352
56.3282
56.3214
56.3148
56.3082
56.3018
56.2955
56.2893
56.2833
56.2775
56.2717
56.2662
56.2607
56.2554
56.2502
56.2452
56.2402
56.2353
56.2305
56.2257
56.2209
56.2162
56.2114
56.2067
56.2021
56.1975
56.1929
56.1884
56.184
56.1796
56.1753
56.171
56.1667
56.1624
56.1582
56.1539
56.1497
56.1454
56.1411
56.1369
56.1326
56.1284
56.1241
56.1199
56.1156
56.1113
56.1071
56.1028
56.0986
56.0943
56.0901
56.0858
56.0815
56.0773
56.073
56.0688
56.0645
56.0603
56.056
56.0517
56.0475
56.0432
56.039
56.0347
56.0305
56.0262
56.0219
56.0177
56.0134
56.0092
56.0049
56.0006
55.9964
55.9921
55.9879
55.9836
55.9794
55.9751
55.9708
55.9666
55.9623
55.9581
55.9538
55.9495
55.9453
55.941
55.9368
55.9325
55.9282
55.924
55.9197
55.9155
55.9112
55.9069
55.9027
55.8984
55.8942
55.8899
55.8856
55.8814
55.8771
55.8729
55.8686
55.8643
55.8601
55.8558
55.8516
55.8473
55.843
55.8388
55.8345
55.8303
55.826
55.8217
55.8175
55.8132
55.8089
55.8047
55.8004
55.7962
55.7919
55.7876
55.7834
55.7791
55.7749
55.7706
55.7663
55.7621
55.7578
55.7536
55.7493
55.745
55.7408
55.7365
55.7322
55.728
55.7237
55.7195
55.7152
55.7109
55.7067
55.7024
55.6981
55.6939
55.6896
55.6854
55.6811
55.6768
55.6726
55.6683
55.6641
55.6598
55.6555
55.6513
55.647
55.6427
55.6385
55.6342
55.63
55.6257
55.6214
55.6172
55.6129
55.6087
55.6044
55.6001
55.5959
55.5916
55.5874
55.5831
55.5788
55.5746
55.5703
55.566
55.5618
55.5575
55.5533
55.549
55.5447
55.5405
55.5362
55.532
55.5277
55.5234
55.5192
55.5149
55.5107
55.5064
55.5022
55.4979
55.4936
55.4894
55.4851
55.4809
55.4766
55.4724
55.4681
55.4638
55.4596
55.4553
55.4511
55.4468
55.4426
55.4383
55.4341
55.4298
55.4255
55.4213
55.417
55.4128
55.4085
55.4043
55.4
55.3958
55.3915
55.3873
55.383
55.3788
55.3745
55.3703
55.366
55.3618
55.3575
55.3533
55.349
55.3448
55.3406
55.3363
55.3321
55.3278
55.3236
55.3193
55.3151
55.3109
55.3066
55.3024
55.2982
55.2939
55.2897
55.2854
55.2812
55.277
55.2727
55.2685
55.2643
55.2601
55.2558
55.2516
55.2474
55.2431
55.2389
55.2347
55.2305
55.2263
55.222
55.2178
55.2136
55.2094
55.2052
55.201
55.1968
55.1925
55.1883
55.1841
55.1799
55.1757
55.1715
55.1673
55.1631
55.1589
55.1547
55.1505
55.1463
55.1421
55.1379
55.1338
55.1296
55.1254
55.1212
55.117
55.1128
55.1087
55.1045
55.1003
55.0961
55.092
55.0878
55.0836
55.0795
55.0753
55.0711
55.067
55.0628
55.0587
55.0545
55.0503
55.0462
55.042
55.0379
55.0337
55.0296
55.0254
55.0213
55.0172
55.013
55.0089
55.0047
55.0006
54.9965
54.9923
54.9882
54.9841
54.98
54.9758
54.9717
54.9676
54.9634
54.9593
54.9552
54.9511
54.947
54.9428
54.9387
54.9346
54.9305
54.9264
54.9223
54.9181
54.914
54.9099
54.9058
54.9017
54.8976
54.8934
54.8893
54.8852
54.8811
54.877
54.8729
54.8687
54.8646
54.8605
54.8564
54.8523
54.8482
54.844
54.8399
54.8358
54.8317
54.8275
54.8234
54.8193
54.8152
54.811
54.8069
54.8028
54.7986
54.7945
54.7903
54.7862
54.7821
54.7779
54.7738
54.7696
54.7654
54.7613
54.7571
54.753
54.7488
54.7446
54.7405
54.7363
54.7321
54.7279
54.7238
54.7196
54.7154
54.7112
54.7112
56.8202
56.8202
56.5561
56.5103
56.489
56.4741
56.4619
56.451
56.4409
56.4313
56.4221
56.4132
56.4046
56.3962
56.388
56.3799
56.3721
56.3644
56.3569
56.3495
56.3423
56.3352
56.3283
56.3215
56.3148
56.3082
56.3018
56.2955
56.2894
56.2833
56.2775
56.2718
56.2662
56.2607
56.2554
56.2503
56.2452
56.2402
56.2353
56.2305
56.2257
56.2209
56.2162
56.2114
56.2067
56.2021
56.1975
56.1929
56.1884
56.184
56.1796
56.1753
56.171
56.1667
56.1624
56.1582
56.1539
56.1497
56.1454
56.1411
56.1369
56.1326
56.1284
56.1241
56.1199
56.1156
56.1113
56.1071
56.1028
56.0986
56.0943
56.0901
56.0858
56.0815
56.0773
56.073
56.0688
56.0645
56.0603
56.056
56.0517
56.0475
56.0432
56.039
56.0347
56.0305
56.0262
56.0219
56.0177
56.0134
56.0092
56.0049
56.0006
55.9964
55.9921
55.9879
55.9836
55.9794
55.9751
55.9708
55.9666
55.9623
55.9581
55.9538
55.9495
55.9453
55.941
55.9368
55.9325
55.9282
55.924
55.9197
55.9155
55.9112
55.9069
55.9027
55.8984
55.8942
55.8899
55.8856
55.8814
55.8771
55.8729
55.8686
55.8643
55.8601
55.8558
55.8516
55.8473
55.843
55.8388
55.8345
55.8303
55.826
55.8217
55.8175
55.8132
55.8089
55.8047
55.8004
55.7962
55.7919
55.7876
55.7834
55.7791
55.7749
55.7706
55.7663
55.7621
55.7578
55.7536
55.7493
55.745
55.7408
55.7365
55.7322
55.728
55.7237
55.7195
55.7152
55.7109
55.7067
55.7024
55.6981
55.6939
55.6896
55.6854
55.6811
55.6768
55.6726
55.6683
55.6641
55.6598
55.6555
55.6513
55.647
55.6427
55.6385
55.6342
55.63
55.6257
55.6214
55.6172
55.6129
55.6087
55.6044
55.6001
55.5959
55.5916
55.5874
55.5831
55.5788
55.5746
55.5703
55.566
55.5618
55.5575
55.5533
55.549
55.5447
55.5405
55.5362
55.532
55.5277
55.5234
55.5192
55.5149
55.5107
55.5064
55.5022
55.4979
55.4936
55.4894
55.4851
55.4809
55.4766
55.4724
55.4681
55.4638
55.4596
55.4553
55.4511
55.4468
55.4426
55.4383
55.4341
55.4298
55.4255
55.4213
55.417
55.4128
55.4085
55.4043
55.4
55.3958
55.3915
55.3873
55.383
55.3788
55.3745
55.3703
55.366
55.3618
55.3575
55.3533
55.349
55.3448
55.3406
55.3363
55.3321
55.3278
55.3236
55.3193
55.3151
55.3109
55.3066
55.3024
55.2982
55.2939
55.2897
55.2854
55.2812
55.277
55.2727
55.2685
55.2643
55.2601
55.2558
55.2516
55.2474
55.2431
55.2389
55.2347
55.2305
55.2263
55.222
55.2178
55.2136
55.2094
55.2052
55.201
55.1968
55.1925
55.1883
55.1841
55.1799
55.1757
55.1715
55.1673
55.1631
55.1589
55.1547
55.1505
55.1463
55.1421
55.1379
55.1338
55.1296
55.1254
55.1212
55.117
55.1128
55.1087
55.1045
55.1003
55.0961
55.092
55.0878
55.0836
55.0795
55.0753
55.0711
55.067
55.0628
55.0586
55.0545
55.0503
55.0462
55.042
55.0379
55.0337
55.0296
55.0254
55.0213
55.0172
55.013
55.0089
55.0047
55.0006
54.9965
54.9923
54.9882
54.9841
54.98
54.9758
54.9717
54.9676
54.9634
54.9593
54.9552
54.9511
54.947
54.9428
54.9387
54.9346
54.9305
54.9264
54.9223
54.9181
54.914
54.9099
54.9058
54.9017
54.8976
54.8934
54.8893
54.8852
54.8811
54.877
54.8729
54.8687
54.8646
54.8605
54.8564
54.8523
54.8482
54.844
54.8399
54.8358
54.8317
54.8275
54.8234
54.8193
54.8152
54.811
54.8069
54.8028
54.7986
54.7945
54.7903
54.7862
54.7821
54.7779
54.7738
54.7696
54.7654
54.7613
54.7571
54.753
54.7488
54.7446
54.7405
54.7363
54.7321
54.7279
54.7238
54.7196
54.7154
54.7112
54.7112
56.8043
56.8043
56.559
56.5115
56.4896
56.4745
56.4622
56.4512
56.4411
56.4315
56.4222
56.4133
56.4047
56.3962
56.388
56.38
56.3721
56.3644
56.3569
56.3495
56.3423
56.3352
56.3283
56.3215
56.3148
56.3083
56.3018
56.2955
56.2894
56.2834
56.2775
56.2718
56.2662
56.2608
56.2554
56.2503
56.2452
56.2402
56.2353
56.2305
56.2257
56.2209
56.2162
56.2114
56.2067
56.2021
56.1975
56.1929
56.1884
56.184
56.1796
56.1753
56.171
56.1667
56.1624
56.1582
56.1539
56.1497
56.1454
56.1411
56.1369
56.1326
56.1284
56.1241
56.1199
56.1156
56.1113
56.1071
56.1028
56.0986
56.0943
56.0901
56.0858
56.0815
56.0773
56.073
56.0688
56.0645
56.0603
56.056
56.0517
56.0475
56.0432
56.039
56.0347
56.0305
56.0262
56.0219
56.0177
56.0134
56.0092
56.0049
56.0006
55.9964
55.9921
55.9879
55.9836
55.9794
55.9751
55.9708
55.9666
55.9623
55.9581
55.9538
55.9495
55.9453
55.941
55.9368
55.9325
55.9282
55.924
55.9197
55.9155
55.9112
55.9069
55.9027
55.8984
55.8942
55.8899
55.8856
55.8814
55.8771
55.8729
55.8686
55.8643
55.8601
55.8558
55.8516
55.8473
55.843
55.8388
55.8345
55.8303
55.826
55.8217
55.8175
55.8132
55.8089
55.8047
55.8004
55.7962
55.7919
55.7876
55.7834
55.7791
55.7749
55.7706
55.7663
55.7621
55.7578
55.7536
55.7493
55.745
55.7408
55.7365
55.7322
55.728
55.7237
55.7195
55.7152
55.7109
55.7067
55.7024
55.6981
55.6939
55.6896
55.6854
55.6811
55.6768
55.6726
55.6683
55.6641
55.6598
55.6555
55.6513
55.647
55.6427
55.6385
55.6342
55.63
55.6257
55.6214
55.6172
55.6129
55.6087
55.6044
55.6001
55.5959
55.5916
55.5874
55.5831
55.5788
55.5746
55.5703
55.566
55.5618
55.5575
55.5533
55.549
55.5447
55.5405
55.5362
55.532
55.5277
55.5234
55.5192
55.5149
55.5107
55.5064
55.5022
55.4979
55.4936
55.4894
55.4851
55.4809
55.4766
55.4724
55.4681
55.4638
55.4596
55.4553
55.4511
55.4468
55.4426
55.4383
55.4341
55.4298
55.4255
55.4213
55.417
55.4128
55.4085
55.4043
55.4
55.3958
55.3915
55.3873
55.383
55.3788
55.3745
55.3703
55.366
55.3618
55.3575
55.3533
55.349
55.3448
55.3406
55.3363
55.3321
55.3278
55.3236
55.3193
55.3151
55.3109
55.3066
55.3024
55.2981
55.2939
55.2897
55.2854
55.2812
55.277
55.2727
55.2685
55.2643
55.2601
55.2558
55.2516
55.2474
55.2431
55.2389
55.2347
55.2305
55.2263
55.222
55.2178
55.2136
55.2094
55.2052
55.201
55.1968
55.1925
55.1883
55.1841
55.1799
55.1757
55.1715
55.1673
55.1631
55.1589
55.1547
55.1505
55.1463
55.1421
55.1379
55.1338
55.1296
55.1254
55.1212
55.117
55.1128
55.1087
55.1045
55.1003
55.0961
55.092
55.0878
55.0836
55.0795
55.0753
55.0711
55.067
55.0628
55.0586
55.0545
55.0503
55.0462
55.042
55.0379
55.0337
55.0296
55.0254
55.0213
55.0172
55.013
55.0089
55.0047
55.0006
54.9965
54.9923
54.9882
54.9841
54.98
54.9758
54.9717
54.9676
54.9634
54.9593
54.9552
54.9511
54.947
54.9428
54.9387
54.9346
54.9305
54.9264
54.9223
54.9181
54.914
54.9099
54.9058
54.9017
54.8976
54.8934
54.8893
54.8852
54.8811
54.877
54.8729
54.8687
54.8646
54.8605
54.8564
54.8523
54.8482
54.844
54.8399
54.8358
54.8317
54.8275
54.8234
54.8193
54.8152
54.811
54.8069
54.8028
54.7986
54.7945
54.7903
54.7862
54.7821
54.7779
54.7738
54.7696
54.7654
54.7613
54.7571
54.753
54.7488
54.7446
54.7405
54.7363
54.7321
54.7279
54.7238
54.7196
54.7154
54.7112
54.7112
56.7892
56.7892
56.5617
56.5126
56.4902
56.4749
56.4624
56.4514
56.4412
56.4316
56.4223
56.4134
56.4047
56.3963
56.3881
56.38
56.3721
56.3645
56.3569
56.3496
56.3423
56.3353
56.3283
56.3215
56.3148
56.3083
56.3019
56.2955
56.2894
56.2834
56.2775
56.2718
56.2662
56.2608
56.2554
56.2503
56.2452
56.2402
56.2353
56.2305
56.2257
56.2209
56.2162
56.2114
56.2067
56.2021
56.1975
56.1929
56.1884
56.184
56.1796
56.1753
56.171
56.1667
56.1624
56.1582
56.1539
56.1497
56.1454
56.1411
56.1369
56.1326
56.1284
56.1241
56.1199
56.1156
56.1113
56.1071
56.1028
56.0986
56.0943
56.0901
56.0858
56.0815
56.0773
56.073
56.0688
56.0645
56.0603
56.056
56.0517
56.0475
56.0432
56.039
56.0347
56.0305
56.0262
56.0219
56.0177
56.0134
56.0092
56.0049
56.0006
55.9964
55.9921
55.9879
55.9836
55.9794
55.9751
55.9708
55.9666
55.9623
55.9581
55.9538
55.9495
55.9453
55.941
55.9368
55.9325
55.9282
55.924
55.9197
55.9155
55.9112
55.9069
55.9027
55.8984
55.8942
55.8899
55.8856
55.8814
55.8771
55.8729
55.8686
55.8643
55.8601
55.8558
55.8516
55.8473
55.843
55.8388
55.8345
55.8303
55.826
55.8217
55.8175
55.8132
55.8089
55.8047
55.8004
55.7962
55.7919
55.7876
55.7834
55.7791
55.7749
55.7706
55.7663
55.7621
55.7578
55.7536
55.7493
55.745
55.7408
55.7365
55.7322
55.728
55.7237
55.7195
55.7152
55.7109
55.7067
55.7024
55.6981
55.6939
55.6896
55.6854
55.6811
55.6768
55.6726
55.6683
55.6641
55.6598
55.6555
55.6513
55.647
55.6427
55.6385
55.6342
55.63
55.6257
55.6214
55.6172
55.6129
55.6087
55.6044
55.6001
55.5959
55.5916
55.5874
55.5831
55.5788
55.5746
55.5703
55.566
55.5618
55.5575
55.5533
55.549
55.5447
55.5405
55.5362
55.532
55.5277
55.5234
55.5192
55.5149
55.5107
55.5064
55.5022
55.4979
55.4936
55.4894
55.4851
55.4809
55.4766
55.4724
55.4681
55.4638
55.4596
55.4553
55.4511
55.4468
55.4426
55.4383
55.4341
55.4298
55.4255
55.4213
55.417
55.4128
55.4085
55.4043
55.4
55.3958
55.3915
55.3873
55.383
55.3788
55.3745
55.3703
55.366
55.3618
55.3575
55.3533
55.349
55.3448
55.3406
55.3363
55.3321
55.3278
55.3236
55.3193
55.3151
55.3109
55.3066
55.3024
55.2981
55.2939
55.2897
55.2854
55.2812
55.277
55.2727
55.2685
55.2643
55.2601
55.2558
55.2516
55.2474
55.2431
55.2389
55.2347
55.2305
55.2263
55.222
55.2178
55.2136
55.2094
55.2052
55.201
55.1968
55.1925
55.1883
55.1841
55.1799
55.1757
55.1715
55.1673
55.1631
55.1589
55.1547
55.1505
55.1463
55.1421
55.1379
55.1338
55.1296
55.1254
55.1212
55.117
55.1128
55.1087
55.1045
55.1003
55.0961
55.092
55.0878
55.0836
55.0795
55.0753
55.0711
55.067
55.0628
55.0586
55.0545
55.0503
55.0462
55.042
55.0379
55.0337
55.0296
55.0254
55.0213
55.0172
55.013
55.0089
55.0047
55.0006
54.9965
54.9923
54.9882
54.9841
54.98
54.9758
54.9717
54.9676
54.9634
54.9593
54.9552
54.9511
54.947
54.9428
54.9387
54.9346
54.9305
54.9264
54.9223
54.9181
54.914
54.9099
54.9058
54.9017
54.8976
54.8934
54.8893
54.8852
54.8811
54.877
54.8729
54.8687
54.8646
54.8605
54.8564
54.8523
54.8482
54.844
54.8399
54.8358
54.8317
54.8275
54.8234
54.8193
54.8152
54.811
54.8069
54.8028
54.7986
54.7945
54.7903
54.7862
54.7821
54.7779
54.7738
54.7696
54.7654
54.7613
54.7571
54.753
54.7488
54.7446
54.7405
54.7363
54.7321
54.7279
54.7238
54.7196
54.7154
54.7112
54.7112
56.7752
56.7752
56.5643
56.5137
56.4908
56.4753
56.4627
56.4516
56.4414
56.4317
56.4224
56.4135
56.4048
56.3963
56.3881
56.3801
56.3722
56.3645
56.357
56.3496
56.3424
56.3353
56.3283
56.3215
56.3149
56.3083
56.3019
56.2956
56.2894
56.2834
56.2775
56.2718
56.2662
56.2608
56.2555
56.2503
56.2452
56.2402
56.2353
56.2305
56.2257
56.2209
56.2162
56.2114
56.2067
56.2021
56.1975
56.1929
56.1884
56.184
56.1796
56.1753
56.171
56.1667
56.1624
56.1582
56.1539
56.1497
56.1454
56.1411
56.1369
56.1326
56.1284
56.1241
56.1199
56.1156
56.1113
56.1071
56.1028
56.0986
56.0943
56.0901
56.0858
56.0815
56.0773
56.073
56.0688
56.0645
56.0603
56.056
56.0517
56.0475
56.0432
56.039
56.0347
56.0305
56.0262
56.0219
56.0177
56.0134
56.0092
56.0049
56.0006
55.9964
55.9921
55.9879
55.9836
55.9794
55.9751
55.9708
55.9666
55.9623
55.9581
55.9538
55.9495
55.9453
55.941
55.9368
55.9325
55.9282
55.924
55.9197
55.9155
55.9112
55.9069
55.9027
55.8984
55.8942
55.8899
55.8856
55.8814
55.8771
55.8729
55.8686
55.8643
55.8601
55.8558