# vtk DataFile Version 2.0
FlowField
ASCII
DATASET STRUCTURED_GRID
DIMENSIONS 400 1 200
POINTS 80000 float
0 0 0
0.08 0 0
0.16 0 0
0.24 0 0
0.32 0 0
0.4 0 0
0.48 0 0
0.56 0 0
0.64 0 0
0.72 0 0
0.8 0 0
0.88 0 0
0.96 0 0
1.04 0 0
1.12 0 0
1.2 0 0
1.28 0 0
1.36 0 0
1.44 0 0
1.52 0 0
1.6 0 0
1.68 0 0
1.76 0 0
1.84 0 0
1.92 0 0
2 0 0
2.08 0 0
2.16 0 0
2.24 0 0
2.32 0 0
2.4 0 0
2.48 0 0
2.56 0 0
2.64 0 0
2.72 0 0
2.8 0 0
2.88 0 0
2.96 0 0
3.04 0 0
3.12 0 0
3.2 0 0
3.28 0 0
3.36 0 0
3.44 0 0
3.52 0 0
3.6 0 0
3.68 0 0
3.76 0 0
3.84 0 0
3.92 0 0
4 0 0
4.08 0 0
4.16 0 0
4.24 0 0
4.32 0 0
4.4 0 0
4.48 0 0
4.56 0 0
4.64 0 0
4.72 0 0
4.8 0 0
4.88 0 0
4.96 0 0
5.04 0 0
5.12 0 0
5.2 0 0
5.28 0 0
5.36 0 0
5.44 0 0
5.52 0 0
5.6 0 0
5.68 0 0
5.76 0 0
5.84 0 0
5.92 0 0
6 0 0
6.08 0 0
6.16 0 0
6.24 0 0
6.32 0 0
6.4 0 0
6.48 0 0
6.56 0 0
6.64 0 0
6.72 0 0
6.8 0 0
6.88 0 0
6.96 0 0
7.04 0 0
7.12 0 0
7.2 0 0
7.28 0 0
7.36 0 0
7.44 0 0
7.52 0 0
7.6 0 0
7.68 0 0
7.76 0 0
7.84 0 0
7.92 0 0
8 0 0
8.08 0 0
8.16 0 0
8.24 0 0
8.32 0 0
8.4 0 0
8.48 0 0
8.56 0 0
8.64 0 0
8.72 0 0
8.8 0 0
8.88 0 0
8.96 0 0
9.04 0 0
9.12 0 0
9.2 0 0
9.28 0 0
9.36 0 0
9.44 0 0
9.52 0 0
9.6 0 0
9.68 0 0
9.76 0 0
9.84 0 0
9.92 0 0
10 0 0
10.08 0 0
10.16 0 0
10.24 0 0
10.32 0 0
10.4 0 0
10.48 0 0
10.56 0 0
10.64 0 0
10.72 0 0
10.8 0 0
10.88 0 0
10.96 0 0
11.04 0 0
11.12 0 0
11.2 0 0
11.28 0 0
11.36 0 0
11.44 0 0
11.52 0 0
11.6 0 0
11.68 0 0
11.76 0 0
11.84 0 0
11.92 0 0
12 0 0
12.08 0 0
12.16 0 0
12.24 0 0
12.32 0 0
12.4 0 0
12.48 0 0
12.56 0 0
12.64 0 0
12.72 0 0
12.8 0 0
12.88 0 0
12.96 0 0
13.04 0 0
13.12 0 0
13.2 0 0
13.28 0 0
13.36 0 0
13.44 0 0
13.52 0 0
13.6 0 0
13.68 0 0
13.76 0 0
13.84 0 0
13.92 0 0
14 0 0
14.08 0 0
14.16 0 0
14.24 0 0
14.32 0 0
14.4 0 0
14.48 0 0
14.56 0 0
14.64 0 0
14.72 0 0
14.8 0 0
14.88 0 0
14.96 0 0
15.04 0 0
15.12 0 0
15.2 0 0
15.28 0 0
15.36 0 0
15.44 0 0
15.52 0 0
15.6 0 0
15.68 0 0
15.76 0 0
15.84 0 0
15.92 0 0
16 0 0
16.08 0 0
16.16 0 0
16.24 0 0
16.32 0 0
16.4 0 0
16.48 0 0
16.56 0 0
16.64 0 0
16.72 0 0
16.8 0 0
16.88 0 0
16.96 0 0
17.04 0 0
17.12 0 0
17.2 0 0
17.28 0 0
17.36 0 0
17.44 0 0
17.52 0 0
17.6 0 0
17.68 0 0
17.76 0 0
17.84 0 0
17.92 0 0
18 0 0
18.08 0 0
18.16 0 0
18.24 0 0
18.32 0 0
18.4 0 0
18.48 0 0
18.56 0 0
18.64 0 0
18.72 0 0
18.8 0 0
18.88 0 0
18.96 0 0
19.04 0 0
19.12 0 0
19.2 0 0
19.28 0 0
19.36 0 0
19.44 0 0
19.52 0 0
19.6 0 0
19.68 0 0
19.76 0 0
19.84 0 0
19.92 0 0
20 0 0
20.08 0 0
20.16 0 0
20.24 0 0
20.32 0 0
20.4 0 0
20.48 0 0
20.56 0 0
20.64 0 0
20.72 0 0
20.8 0 0
20.88 0 0
20.96 0 0
21.04 0 0
21.12 0 0
21.2 0 0
21.28 0 0
21.36 0 0
21.44 0 0
21.52 0 0
21.6 0 0
21.68 0 0
21.76 0 0
21.84 0 0
21.92 0 0
22 0 0
22.08 0 0
22.16 0 0
22.24 0 0
22.32 0 0
22.4 0 0
22.48 0 0
22.56 0 0
22.64 0 0
22.72 0 0
22.8 0 0
22.88 0 0
22.96 0 0
23.04 0 0
23.12 0 0
23.2 0 0
23.28 0 0
23.36 0 0
23.44 0 0
23.52 0 0
23.6 0 0
23.68 0 0
23.76 0 0
23.84 0 0
23.92 0 0
24 0 0
24.08 0 0
24.16 0 0
24.24 0 0
24.32 0 0
24.4 0 0
24.48 0 0
24.56 0 0
24.64 0 0
24.72 0 0
24.8 0 0
24.88 0 0
24.96 0 0
25.04 0 0
25.12 0 0
25.2 0 0
25.28 0 0
25.36 0 0
25.44 0 0
25.52 0 0
25.6 0 0
25.68 0 0
25.76 0 0
25.84 0 0
25.92 0 0
26 0 0
26.08 0 0
26.16 0 0
26.24 0 0
26.32 0 0
26.4 0 0
26.48 0 0
26.56 0 0
26.64 0 0
26.72 0 0
26.8 0 0
26.88 0 0
26.96 0 0
27.04 0 0
27.12 0 0
27.2 0 0
27.28 0 0
27.36 0 0
27.44 0 0
27.52 0 0
27.6 0 0
27.68 0 0
27.76 0 0
27.84 0 0
27.92 0 0
28 0 0
28.08 0 0
28.16 0 0
28.24 0 0
28.32 0 0
28.4 0 0
28.48 0 0
28.56 0 0
28.64 0 0
28.72 0 0
28.8 0 0
28.88 0 0
28.96 0 0
29.04 0 0
29.12 0 0
29.2 0 0
29.28 0 0
29.36 0 0
29.44 0 0
29.52 0 0
29.6 0 0
29.68 0 0
29.76 0 0
29.84 0 0
29.92 0 0
30 0 0
30.08 0 0
30.16 0 0
30.24 0 0
30.32 0 0
30.4 0 0
30.48 0 0
30.56 0 0
30.64 0 0
30.72 0 0
30.8 0 0
30.88 0 0
30.96 0 0
31.04 0 0
31.12 0 0
31.2 0 0
31.28 0 0
31.36 0 0
31.44 0 0
31.52 0 0
31.6 0 0
31.68 0 0
31.76 0 0
31.84 0 0
31.92 0 0
0 0.005 0
0.08 0.005 0
0.16 0.005 0
0.24 0.005 0
0.32 0.005 0
0.4 0.005 0
0.48 0.005 0
0.56 0.005 0
0.64 0.005 0
0.72 0.005 0
0.8 0.005 0
0.88 0.005 0
0.96 0.005 0
1.04 0.005 0
1.12 0.005 0
1.2 0.005 0
1.28 0.005 0
1.36 0.005 0
1.44 0.005 0
1.52 0.005 0
1.6 0.005 0
1.68 0.005 0
1.76 0.005 0
1.84 0.005 0
1.92 0.005 0
2 0.005 0
2.08 0.005 0
2.16 0.005 0
2.24 0.005 0
2.32 0.005 0
2.4 0.005 0
2.48 0.005 0
2.56 0.005 0
2.64 0.005 0
2.72 0.005 0
2.8 0.005 0
2.88 0.005 0
2.96 0.005 0
3.04 0.005 0
3.12 0.005 0
3.2 0.005 0
3.28 0.005 0
3.36 0.005 0
3.44 0.005 0
3.52 0.005 0
3.6 0.005 0
3.68 0.005 0
3.76 0.005 0
3.84 0.005 0
3.92 0.005 0
4 0.005 0
4.08 0.005 0
4.16 0.005 0
4.24 0.005 0
4.32 0.005 0
4.4 0.005 0
4.48 0.005 0
4.56 0.005 0
4.64 0.005 0
4.72 0.005 0
4.8 0.005 0
4.88 0.005 0
4.96 0.005 0
5.04 0.005 0
5.12 0.005 0
5.2 0.005 0
5.28 0.005 0
5.36 0.005 0
5.44 0.005 0
5.52 0.005 0
5.6 0.005 0
5.68 0.005 0
5.76 0.005 0
5.84 0.005 0
5.92 0.005 0
6 0.005 0
6.08 0.005 0
6.16 0.005 0
6.24 0.005 0
6.32 0.005 0
6.4 0.005 0
6.48 0.005 0
6.56 0.005 0
6.64 0.005 0
6.72 0.005 0
6.8 0.005 0
6.88 0.005 0
6.96 0.005 0
7.04 0.005 0
7.12 0.005 0
7.2 0.005 0
7.28 0.005 0
7.36 0.005 0
7.44 0.005 0
7.52 0.005 0
7.6 0.005 0
7.68 0.005 0
7.76 0.005 0
7.84 0.005 0
7.92 0.005 0
8 0.005 0
8.08 0.005 0
8.16 0.005 0
8.24 0.005 0
8.32 0.005 0
8.4 0.005 0
8.48 0.005 0
8.56 0.005 0
8.64 0.005 0
8.72 0.005 0
8.8 0.005 0
8.88 0.005 0
8.96 0.005 0
9.04 0.005 0
9.12 0.005 0
9.2 0.005 0
9.28 0.005 0
9.36 0.005 0
9.44 0.005 0
9.52 0.005 0
9.6 0.005 0
9.68 0.005 0
9.76 0.005 0
9.84 0.005 0
9.92 0.005 0
10 0.005 0
10.08 0.005 0
10.16 0.005 0
10.24 0.005 0
10.32 0.005 0
10.4 0.005 0
10.48 0.005 0
10.56 0.005 0
10.64 0.005 0
10.72 0.005 0
10.8 0.005 0
10.88 0.005 0
10.96 0.005 0
11.04 0.005 0
11.12 0.005 0
11.2 0.005 0
11.28 0.005 0
11.36 0.005 0
11.44 0.005 0
11.52 0.005 0
11.6 0.005 0
11.68 0.005 0
11.76 0.005 0
11.84 0.005 0
11.92 0.005 0
12 0.005 0
12.08 0.005 0
12.16 0.005 0
12.24 0.005 0
12.32 0.005 0
12.4 0.005 0
12.48 0.005 0
12.56 0.005 0
12.64 0.005 0
12.72 0.005 0
12.8 0.005 0
12.88 0.005 0
12.96 0.005 0
13.04 0.005 0
13.12 0.005 0
13.2 0.005 0
13.28 0.005 0
13.36 0.005 0
13.44 0.005 0
13.52 0.005 0
13.6 0.005 0
13.68 0.005 0
13.76 0.005 0
13.84 0.005 0
13.92 0.005 0
14 0.005 0
14.08 0.005 0
14.16 0.005 0
14.24 0.005 0
14.32 0.005 0
14.4 0.005 0
14.48 0.005 0
14.56 0.005 0
14.64 0.005 0
14.72 0.005 0
14.8 0.005 0
14.88 0.005 0
14.96 0.005 0
15.04 0.005 0
15.12 0.005 0
15.2 0.005 0
15.28 0.005 0
15.36 0.005 0
15.44 0.005 0
15.52 0.005 0
15.6 0.005 0
15.68 0.005 0
15.76 0.005 0
15.84 0.005 0
15.92 0.005 0
16 0.005 0
16.08 0.005 0
16.16 0.005 0
16.24 0.005 0
16.32 0.005 0
16.4 0.005 0
16.48 0.005 0
16.56 0.005 0
16.64 0.005 0
16.72 0.005 0
16.8 0.005 0
16.88 0.005 0
16.96 0.005 0
17.04 0.005 0
17.12 0.005 0
17.2 0.005 0
17.28 0.005 0
17.36 0.005 0
17.44 0.005 0
17.52 0.005 0
17.6 0.005 0
17.68 0.005 0
17.76 0.005 0
17.84 0.005 0
17.92 0.005 0
18 0.005 0
18.08 0.005 0
18.16 0.005 0
18.24 0.005 0
18.32 0.005 0
18.4 0.005 0
18.48 0.005 0
18.56 0.005 0
18.64 0.005 0
18.72 0.005 0
18.8 0.005 0
18.88 0.005 0
18.96 0.005 0
19.04 0.005 0
19.12 0.005 0
19.2 0.005 0
19.28 0.005 0
19.36 0.005 0
19.44 0.005 0
19.52 0.005 0
19.6 0.005 0
19.68 0.005 0
19.76 0.005 0
19.84 0.005 0
19.92 0.005 0
20 0.005 0
20.08 0.005 0
20.16 0.005 0
20.24 0.005 0
20.32 0.005 0
20.4 0.005 0
20.48 0.005 0
20.56 0.005 0
20.64 0.005 0
20.72 0.005 0
20.8 0.005 0
20.88 0.005 0
20.96 0.005 0
21.04 0.005 0
21.12 0.005 0
21.2 0.005 0
21.28 0.005 0
21.36 0.005 0
21.44 0.005 0
21.52 0.005 0
21.6 0.005 0
21.68 0.005 0
21.76 0.005 0
21.84 0.005 0
21.92 0.005 0
22 0.005 0
22.08 0.005 0
22.16 0.005 0
22.24 0.005 0
22.32 0.005 0
22.4 0.005 0
22.48 0.005 0
22.56 0.005 0
22.64 0.005 0
22.72 0.005 0
22.8 0.005 0
22.88 0.005 0
22.96 0.005 0
23.04 0.005 0
23.12 0.005 0
23.2 0.005 0
23.28 0.005 0
23.36 0.005 0
23.44 0.005 0
23.52 0.005 0
23.6 0.005 0
23.68 0.005 0
23.76 0.005 0
23.84 0.005 0
23.92 0.005 0
24 0.005 0
24.08 0.005 0
24.16 0.005 0
24.24 0.005 0
24.32 0.005 0
24.4 0.005 0
24.48 0.005 0
24.56 0.005 0
24.64 0.005 0
24.72 0.005 0
24.8 0.005 0
24.88 0.005 0
24.96 0.005 0
25.04 0.005 0
25.12 0.005 0
25.2 0.005 0
25.28 0.005 0
25.36 0.005 0
25.44 0.005 0
25.52 0.005 0
25.6 0.005 0
25.68 0.005 0
25.76 0.005 0
25.84 0.005 0
25.92 0.005 0
26 0.005 0
26.08 0.005 0
26.16 0.005 0
26.24 0.005 0
26.32 0.005 0
26.4 0.005 0
26.48 0.005 0
26.56 0.005 0
26.64 0.005 0
26.72 0.005 0
26.8 0.005 0
26.88 0.005 0
26.96 0.005 0
27.04 0.005 0
27.12 0.005 0
27.2 0.005 0
27.28 0.005 0
27.36 0.005 0
27.44 0.005 0
27.52 0.005 0
27.6 0.005 0
27.68 0.005 0
27.76 0.005 0
27.84 0.005 0
27.92 0.005 0
28 0.005 0
28.08 0.005 0
28.16 0.005 0
28.24 0.005 0
28.32 0.005 0
28.4 0.005 0
28.48 0.005 0
28.56 0.005 0
28.64 0.005 0
28.72 0.005 0
28.8 0.005 0
28.88 0.005 0
28.96 0.005 0
29.04 0.005 0
29.12 0.005 0
29.2 0.005 0
29.28 0.005 0
29.36 0.005 0
29.44 0.005 0
29.52 0.005 0
29.6 0.005 0
29.68 0.005 0
29.76 0.005 0
29.84 0.005 0
29.92 0.005 0
30 0.005 0
30.08 0.005 0
30.16 0.005 0
30.24 0.005 0
30.32 0.005 0
30.4 0.005 0
30.48 0.005 0
30.56 0.005 0
30.64 0.005 0
30.72 0.005 0
30.8 0.005 0
30.88 0.005 0
30.96 0.005 0
31.04 0.005 0
31.12 0.005 0
31.2 0.005 0
31.28 0.005 0
31.36 0.005 0
31.44 0.005 0
31.52 0.005 0
31.6 0.005 0
31.68 0.005 0
31.76 0.005 0
31.84 0.005 0
31.92 0.005 0
0 0.01 0
0.08 0.01 0
0.16 0.01 0
0.24 0.01 0
0.32 0.01 0
0.4 0.01 0
0.48 0.01 0
0.56 0.01 0
0.64 0.01 0
0.72 0.01 0
0.8 0.01 0
0.88 0.01 0
0.96 0.01 0
1.04 0.01 0
1.12 0.01 0
1.2 0.01 0
1.28 0.01 0
1.36 0.01 0
1.44 0.01 0
1.52 0.01 0
1.6 0.01 0
1.68 0.01 0
1.76 0.01 0
1.84 0.01 0
1.92 0.01 0
2 0.01 0
2.08 0.01 0
2.16 0.01 0
2.24 0.01 0
2.32 0.01 0
2.4 0.01 0
2.48 0.01 0
2.56 0.01 0
2.64 0.01 0
2.72 0.01 0
2.8 0.01 0
2.88 0.01 0
2.96 0.01 0
3.04 0.01 0
3.12 0.01 0
3.2 0.01 0
3.28 0.01 0
3.36 0.01 0
3.44 0.01 0
3.52 0.01 0
3.6 0.01 0
3.68 0.01 0
3.76 0.01 0
3.84 0.01 0
3.92 0.01 0
4 0.01 0
4.08 0.01 0
4.16 0.01 0
4.24 0.01 0
4.32 0.01 0
4.4 0.01 0
4.48 0.01 0
4.56 0.01 0
4.64 0.01 0
4.72 0.01 0
4.8 0.01 0
4.88 0.01 0
4.96 0.01 0
5.04 0.01 0
5.12 0.01 0
[...]
POINT_DATA 80000

SCALARS p float 1
LOOKUP_TABLE default
1
57.0483
56.7466
56.7054
56.6853
56.6709
56.6589
56.6481
56.6381
56.6286
56.6194
56.6105
56.6019
56.5935
56.5853
56.5774
56.5696
56.562
56.5547
56.5476
56.541
56.5346
56.5286
56.5228
56.517
56.5113
56.5056
56.5
56.4944
56.4889
56.4835
56.4782
56.4731
56.468
56.4629
56.4579
56.4528
56.4478
56.4428
56.4377
56.4327
56.4276
56.4225
56.4174
56.4124
56.4073
56.4022
56.3971
56.392
56.3868
56.3817
56.3766
56.3715
56.3663
56.3612
56.356
56.3508
56.3457
56.3405
56.3353
56.3301
56.3249
56.3197
56.3145
56.3092
56.304
56.2988
56.2935
56.2882
56.283
56.2777
56.2724
56.2671
56.2618
56.2564
56.2511
56.2457
56.2404
56.235
56.2296
56.2242
56.2188
56.2134
56.208
56.2025
56.1971
56.1916
56.1861
56.1806
56.1751
56.1695
56.164
56.1584
56.1528
56.1472
56.1416
56.1359
56.1303
56.1246
56.1189
56.1132
56.1074
56.1016
56.0959
56.09
56.0842
56.0783
56.0725
56.0665
56.0606
56.0546
56.0486
56.0426
56.0366
56.0305
56.0244
56.0182
56.012
56.0058
55.9996
55.9933
55.987
55.9806
55.9742
55.9678
55.9614
55.9549
55.9483
55.9417
55.9351
55.9285
55.9218
55.915
55.9082
55.9014
55.8945
55.8876
55.8806
55.8736
55.8666
55.8595
55.8523
55.8451
55.8379
55.8306
55.8233
55.8159
55.8084
55.801
55.7934
55.7859
55.7782
55.7706
55.7629
55.7551
55.7473
55.7395
55.7316
55.7236
55.7156
55.7076
55.6996
55.6915
55.6833
55.6751
55.6669
55.6587
55.6504
55.6421
55.6337
55.6253
55.6169
55.6085
55.6
55.5915
55.583
55.5745
55.5659
55.5574
55.5488
55.5402
55.5316
55.523
55.5144
55.5057
55.4971
55.4885
55.4799
55.4713
55.4627
55.4541
55.4455
55.4369
55.4283
55.4198
55.4113
55.4028
55.3943
55.3858
55.3774
55.369
55.3607
55.3524
55.3441
55.3358
55.3276
55.3195
55.3114
55.3033
55.2953
55.2873
55.2794
55.2715
55.2637
55.2559
55.2482
55.2405
55.2329
55.2254
55.2179
55.2105
55.2032
55.1959
55.1886
55.1815
55.1743
55.1673
55.1603
55.1534
55.1466
55.1398
55.133
55.1264
55.1198
55.1132
55.1068
55.1004
55.094
55.0877
55.0815
55.0753
55.0692
55.0632
55.0572
55.0513
55.0454
55.0396
55.0338
55.0281
55.0224
55.0168
55.0113
55.0057
55.0003
54.9949
54.9895
54.9842
54.9789
54.9737
54.9685
54.9633
54.9582
54.9531
54.9481
54.9431
54.9381
54.9332
54.9283
54.9234
54.9185
54.9137
54.9089
54.9042
54.8994
54.8947
54.89
54.8854
54.8807
54.8761
54.8715
54.8669
54.8624
54.8578
54.8533
54.8488
54.8443
54.8398
54.8354
54.8309
54.8265
54.822
54.8176
54.8132
54.8088
54.8044
54.8001
54.7957
54.7913
54.787
54.7826
54.7783
54.774
54.7696
54.7653
54.761
54.7567
54.7524
54.7481
54.7438
54.7395
54.7352
54.7309
54.7267
54.7224
54.7181
54.7138
54.7096
54.7053
54.701
54.6968
54.6925
54.6883
54.684
54.6797
54.6755
54.6712
54.667
54.6627
54.6585
54.6542
54.65
54.6458
54.6415
54.6373
54.633
54.6288
54.6245
54.6203
54.6161
54.6118
54.6076
54.6033
54.5991
54.5949
54.5906
54.5864
54.5821
54.5779
54.5737
54.5694
54.5652
54.561
54.5567
54.5525
54.5483
54.544
54.5398
54.5356
54.5313
54.5271
54.5229
54.5186
54.5144
54.5102
54.5059
54.5017
54.4975
54.4933
54.489
54.4848
54.4806
54.4763
54.4721
54.4679
54.4636
54.4594
54.4552
54.451
54.4467
54.4425
54.4383
54.4341
54.4298
54.4256
54.4214
54.4172
54.4129
54.4087
54.4045
54.4003
54.396
54.3918
54.3876
54.3834
54.3791
54.3749
54.3707
54.3665
54.3623
0.5
57.0483
57.0483
56.7466
56.7054
56.6853
56.6709
56.6589
56.6481
56.6381
56.6286
56.6194
56.6105
56.6019
56.5935
56.5853
56.5774
56.5696
56.562
56.5547
56.5476
56.541
56.5346
56.5286
56.5228
56.517
56.5113
56.5056
56.5
56.4944
56.4889
56.4835
56.4782
56.4731
56.468
56.4629
56.4579
56.4528
56.4478
56.4428
56.4377
56.4327
56.4276
56.4225
56.4174
56.4124
56.4073
56.4022
56.3971
56.392
56.3868
56.3817
56.3766
56.3715
56.3663
56.3612
56.356
56.3508
56.3457
56.3405
56.3353
56.3301
56.3249
56.3197
56.3145
56.3092
56.304
56.2988
56.2935
56.2882
56.283
56.2777
56.2724
56.2671
56.2618
56.2564
56.2511
56.2457
56.2404
56.235
56.2296
56.2242
56.2188
56.2134
56.208
56.2025
56.1971
56.1916
56.1861
56.1806
56.1751
56.1695
56.164
56.1584
56.1528
56.1472
56.1416
56.1359
56.1303
56.1246
56.1189
56.1132
56.1074
56.1016
56.0959
56.09
56.0842
56.0783
56.0725
56.0665
56.0606
56.0546
56.0486
56.0426
56.0366
56.0305
56.0244
56.0182
56.012
56.0058
55.9996
55.9933
55.987
55.9806
55.9742
55.9678
55.9614
55.9549
55.9483
55.9417
55.9351
55.9285
55.9218
55.915
55.9082
55.9014
55.8945
55.8876
55.8806
55.8736
55.8666
55.8595
55.8523
55.8451
55.8379
55.8306
55.8233
55.8159
55.8084
55.801
55.7934
55.7859
55.7782
55.7706
55.7629
55.7551
55.7473
55.7395
55.7316
55.7236
55.7156
55.7076
55.6996
55.6915
55.6833
55.6751
55.6669
55.6587
55.6504
55.6421
55.6337
55.6253
55.6169
55.6085
55.6
55.5915
55.583
55.5745
55.5659
55.5574
55.5488
55.5402
55.5316
55.523
55.5144
55.5057
55.4971
55.4885
55.4799
55.4713
55.4627
55.4541
55.4455
55.4369
55.4283
55.4198
55.4113
55.4028
55.3943
55.3858
55.3774
55.369
55.3607
55.3524
55.3441
55.3358
55.3276
55.3195
55.3114
55.3033
55.2953
55.2873
55.2794
55.2715
55.2637
55.2559
55.2482
55.2405
55.2329
55.2254
55.2179
55.2105
55.2032
55.1959
55.1886
55.1815
55.1743
55.1673
55.1603
55.1534
55.1466
55.1398
55.133
55.1264
55.1198
55.1132
55.1068
55.1004
55.094
55.0877
55.0815
55.0753
55.0692
55.0632
55.0572
55.0513
55.0454
55.0396
55.0338
55.0281
55.0224
55.0168
55.0113
55.0057
55.0003
54.9949
54.9895
54.9842
54.9789
54.9737
54.9685
54.9633
54.9582
54.9531
54.9481
54.9431
54.9381
54.9332
54.9283
54.9234
54.9185
54.9137
54.9089
54.9042
54.8994
54.8947
54.89
54.8854
54.8807
54.8761
54.8715
54.8669
54.8624
54.8578
54.8533
54.8488
54.8443
54.8398
54.8354
54.8309
54.8265
54.822
54.8176
54.8132
54.8088
54.8044
54.8001
54.7957
54.7913
54.787
54.7826
54.7783
54.774
54.7696
54.7653
54.761
54.7567
54.7524
54.7481
54.7438
54.7395
54.7352
54.7309
54.7267
54.7224
54.7181
54.7138
54.7096
54.7053
54.701
54.6968
54.6925
54.6883
54.684
54.6797
54.6755
54.6712
54.667
54.6627
54.6585
54.6542
54.65
54.6458
54.6415
54.6373
54.633
54.6288
54.6245
54.6203
54.6161
54.6118
54.6076
54.6033
54.5991
54.5949
54.5906
54.5864
54.5821
54.5779
54.5737
54.5694
54.5652
54.561
54.5567
54.5525
54.5483
54.544
54.5398
54.5356
54.5313
54.5271
54.5229
54.5186
54.5144
54.5102
54.5059
54.5017
54.4975
54.4933
54.489
54.4848
54.4806
54.4763
54.4721
54.4679
54.4636
54.4594
54.4552
54.451
54.4467
54.4425
54.4383
54.4341
54.4298
54.4256
54.4214
54.4172
54.4129
54.4087
54.4045
54.4003
54.396
54.3918
54.3876
54.3834
54.3791
54.3749
54.3707
54.3665
54.3623
54.3623
57.0337
57.0337
56.7504
56.7067
56.686
56.6713
56.6591
56.6483
56.6382
56.6287
56.6195
56.6106
56.6019
56.5935
56.5854
56.5774
56.5696
56.5621
56.5547
56.5477
56.541
56.5346
56.5286
56.5228
56.517
56.5113
56.5056
56.5
56.4944
56.4889
56.4835
56.4782
56.4731
56.468
56.4629
56.4579
56.4528
56.4478
56.4428
56.4377
56.4327
56.4276
56.4225
56.4174
56.4124
56.4073
56.4022
56.3971
56.392
56.3868
56.3817
56.3766
56.3715
56.3663
56.3612
56.356
56.3508
56.3457
56.3405
56.3353
56.3301
56.3249
56.3197
56.3145
56.3092
56.304
56.2988
56.2935
56.2882
56.283
56.2777
56.2724
56.2671
56.2618
56.2564
56.2511
56.2457
56.2404
56.235
56.2296
56.2242
56.2188
56.2134
56.208
56.2025
56.1971
56.1916
56.1861
56.1806
56.1751
56.1695
56.164
56.1584
56.1528
56.1472
56.1416
56.1359
56.1303
56.1246
56.1189
56.1132
56.1074
56.1016
56.0959
56.09
56.0842
56.0783
56.0725
56.0665
56.0606
56.0546
56.0486
56.0426
56.0366
56.0305
56.0244
56.0182
56.012
56.0058
55.9996
55.9933
55.987
55.9806
55.9742
55.9678
55.9614
55.9549
55.9483
55.9417
55.9351
55.9285
55.9218
55.915
55.9082
55.9014
55.8945
55.8876
55.8806
55.8736
55.8666
55.8595
55.8523
55.8451
55.8379
55.8306
55.8233
55.8159
55.8084
55.801
55.7934
55.7859
55.7782
55.7706
55.7629
55.7551
55.7473
55.7395
55.7316
55.7236
55.7157
55.7076
55.6996
55.6915
55.6833
55.6751
55.6669
55.6587
55.6504
55.6421
55.6337
55.6253
55.6169
55.6085
55.6
55.5915
55.583
55.5745
55.5659
55.5574
55.5488
55.5402
55.5316
55.523
55.5144
55.5058
55.4971
55.4885
55.4799
55.4713
55.4627
55.4541
55.4455
55.4369
55.4283
55.4198
55.4113
55.4028
55.3943
55.3859
55.3774
55.369
55.3607
55.3524
55.3441
55.3358
55.3276
55.3195
55.3114
55.3033
55.2953
55.2873
55.2794
55.2715
55.2637
55.2559
55.2482
55.2405
55.2329
55.2254
55.2179
55.2105
55.2032
55.1959
55.1886
55.1815
55.1744
55.1673
55.1603
55.1534
55.1466
55.1398
55.133
55.1264
55.1198
55.1132
55.1068
55.1004
55.094
55.0877
55.0815
55.0753
55.0692
55.0632
55.0572
55.0513
55.0454
55.0396
55.0338
55.0281
55.0224
55.0168
55.0113
55.0057
55.0003
54.9949
54.9895
54.9842
54.9789
54.9737
54.9685
54.9633
54.9582
54.9531
54.9481
54.9431
54.9381
54.9332
54.9283
54.9234
54.9185
54.9137
54.9089
54.9042
54.8994
54.8947
54.89
54.8854
54.8807
54.8761
54.8715
54.8669
54.8624
54.8578
54.8533
54.8488
54.8443
54.8398
54.8354
54.8309
54.8265
54.822
54.8176
54.8132
54.8088
54.8044
54.8001
54.7957
54.7913
54.787
54.7826
54.7783
54.774
54.7696
54.7653
54.761
54.7567
54.7524
54.7481
54.7438
54.7395
54.7352
54.7309
54.7267
54.7224
54.7181
54.7138
54.7096
54.7053
54.701
54.6968
54.6925
54.6883
54.684
54.6797
54.6755
54.6712
54.667
54.6627
54.6585
54.6542
54.65
54.6457
54.6415
54.6373
54.633
54.6288
54.6245
54.6203
54.6161
54.6118
54.6076
54.6033
54.5991
54.5949
54.5906
54.5864
54.5821
54.5779
54.5737
54.5694
54.5652
54.561
54.5567
54.5525
54.5483
54.544
54.5398
54.5356
54.5313
54.5271
54.5229
54.5186
54.5144
54.5102
54.5059
54.5017
54.4975
54.4933
54.489
54.4848
54.4806
54.4763
54.4721
54.4679
54.4636
54.4594
54.4552
54.451
54.4467
54.4425
54.4383
54.4341
54.4298
54.4256
54.4214
54.4172
54.4129
54.4087
54.4045
54.4003
54.396
54.3918
54.3876
54.3834
54.3791
54.3749
54.3707
54.3665
54.3623
54.3623
57.0177
57.0177
56.7536
56.7079
56.6866
56.6717
56.6594
56.6485
56.6384
56.6288
56.6196
56.6107
56.602
56.5936
56.5854
56.5774
56.5697
56.5621
56.5547
56.5477
56.541
56.5347
56.5286
56.5228
56.5171
56.5113
56.5056
56.5
56.4944
56.4889
56.4835
56.4783
56.4731
56.468
56.4629
56.4579
56.4528
56.4478
56.4428
56.4377
56.4327
56.4276
56.4225
56.4174
56.4124
56.4073
56.4022
56.3971
56.392
56.3868
56.3817
56.3766
56.3715
56.3663
56.3612
56.356
56.3508
56.3457
56.3405
56.3353
56.3301
56.3249
56.3197
56.3145
56.3092
56.304
56.2988
56.2935
56.2882
56.283
56.2777
56.2724
56.2671
56.2618
56.2564
56.2511
56.2457
56.2404
56.235
56.2296
56.2242
56.2188
56.2134
56.208
56.2025
56.1971
56.1916
56.1861
56.1806
56.1751
56.1695
56.164
56.1584
56.1528
56.1472
56.1416
56.1359
56.1303
56.1246
56.1189
56.1132
56.1074
56.1016
56.0959
56.09
56.0842
56.0783
56.0725
56.0665
56.0606
56.0546
56.0486
56.0426
56.0366
56.0305
56.0244
56.0182
56.012
56.0058
55.9996
55.9933
55.987
55.9806
55.9742
55.9678
55.9614
55.9549
55.9483
55.9417
55.9351
55.9285
55.9218
55.915
55.9082
55.9014
55.8945
55.8876
55.8806
55.8736
55.8666
55.8595
55.8523
55.8451
55.8379
55.8306
55.8233
55.8159
55.8084
55.801
55.7934
55.7859
55.7782
55.7706
55.7629
55.7551
55.7473
55.7395
55.7316
55.7236
55.7157
55.7076
55.6996
55.6915
55.6833
55.6751
55.6669
55.6587
55.6504
55.6421
55.6337
55.6253
55.6169
55.6085
55.6
55.5915
55.583
55.5745
55.5659
55.5574
55.5488
55.5402
55.5316
55.523
55.5144
55.5058
55.4971
55.4885
55.4799
55.4713
55.4627
55.4541
55.4455
55.4369
55.4283
55.4198
55.4113
55.4028
55.3943
55.3859
55.3774
55.369
55.3607
55.3524
55.3441
55.3358
55.3276
55.3195
55.3114
55.3033
55.2953
55.2873
55.2794
55.2715
55.2637
55.2559
55.2482
55.2405
55.2329
55.2254
55.2179
55.2105
55.2032
55.1959
55.1886
55.1815
55.1744
55.1673
55.1603
55.1534
55.1466
55.1398
55.133
55.1264
55.1198
55.1133
55.1068
55.1004
55.094
55.0877
55.0815
55.0753
55.0692
55.0632
55.0572
55.0513
55.0454
55.0396
55.0338
55.0281
55.0224
55.0168
55.0113
55.0057
55.0003
54.9949
54.9895
54.9842
54.9789
54.9737
54.9685
54.9633
54.9582
54.9531
54.9481
54.9431
54.9381
54.9332
54.9283
54.9234
54.9185
54.9137
54.9089
54.9042
54.8994
54.8947
54.89
54.8854
54.8807
54.8761
54.8715
54.8669
54.8624
54.8578
54.8533
54.8488
54.8443
54.8398
54.8354
54.8309
54.8265
54.822
54.8176
54.8132
54.8088
54.8044
54.8001
54.7957
54.7913
54.787
54.7826
54.7783
54.774
54.7696
54.7653
54.761
54.7567
54.7524
54.7481
54.7438
54.7395
54.7352
54.7309
54.7267
54.7224
54.7181
54.7138
54.7096
54.7053
54.701
54.6968
54.6925
54.6883
54.684
54.6797
54.6755
54.6712
54.667
54.6627
54.6585
54.6542
54.65
54.6457
54.6415
54.6373
54.633
54.6288
54.6245
54.6203
54.6161
54.6118
54.6076
54.6033
54.5991
54.5949
54.5906
54.5864
54.5821
54.5779
54.5737
54.5694
54.5652
54.561
54.5567
54.5525
54.5483
54.544
54.5398
54.5356
54.5313
54.5271
54.5229
54.5186
54.5144
54.5102
54.5059
54.5017
54.4975
54.4933
54.489
54.4848
54.4806
54.4763
54.4721
54.4679
54.4636
54.4594
54.4552
54.451
54.4467
54.4425
54.4383
54.4341
54.4298
54.4256
54.4214
54.4172
54.4129
54.4087
54.4045
54.4003
54.396
54.3918
54.3876
54.3834
54.3791
54.3749
54.3707
54.3665
54.3623
54.3623
57.0018
57.0018
56.7565
56.709
56.6872
56.6721
56.6597
56.6487
56.6385
56.6289
56.6197
56.6108
56.6021
56.5937
56.5855
56.5775
56.5697
56.5621
56.5548
56.5477
56.541
56.5347
56.5286
56.5228
56.5171
56.5113
56.5057
56.5
56.4944
56.4889
56.4835
56.4783
56.4731
56.468
56.4629
56.4579
56.4528
56.4478
56.4428
56.4377
56.4327
56.4276
56.4225
56.4174
56.4124
56.4073
56.4022
56.3971
56.392
56.3868
56.3817
56.3766
56.3715
56.3663
56.3612
56.356
56.3508
56.3457
56.3405
56.3353
56.3301
56.3249
56.3197
56.3145
56.3092
56.304
56.2988
56.2935
56.2882
56.283
56.2777
56.2724
56.2671
56.2618
56.2564
56.2511
56.2457
56.2404
56.235
56.2296
56.2242
56.2188
56.2134
56.208
56.2025
56.1971
56.1916
56.1861
56.1806
56.1751
56.1695
56.164
56.1584
56.1528
56.1472
56.1416
56.1359
56.1303
56.1246
56.1189
56.1132
56.1074
56.1016
56.0959
56.09
56.0842
56.0783
56.0725
56.0665
56.0606
56.0546
56.0486
56.0426
56.0366
56.0305
56.0244
56.0182
56.012
56.0058
55.9996
55.9933
55.987
55.9806
55.9742
55.9678
55.9614
55.9549
55.9483
55.9417
55.9351
55.9285
55.9218
55.915
55.9082
55.9014
55.8945
55.8876
55.8806
55.8736
55.8666
55.8595
55.8523
55.8451
55.8379
55.8306
55.8233
55.8159
55.8084
55.801
55.7934
55.7859
55.7782
55.7706
55.7629
55.7551
55.7473
55.7395
55.7316
55.7236
55.7157
55.7076
55.6996
55.6915
55.6833
55.6751
55.6669
55.6587
55.6504
55.6421
55.6337
55.6253
55.6169
55.6085
55.6
55.5915
55.583
55.5745
55.5659
55.5574
55.5488
55.5402
55.5316
55.523
55.5144
55.5058
55.4971
55.4885
55.4799
55.4713
55.4627
55.4541
55.4455
55.4369
55.4283
55.4198
55.4113
55.4028
55.3943
55.3859
55.3774
55.369
55.3607
55.3524
55.3441
55.3358
55.3276
55.3195
55.3114
55.3033
55.2953
55.2873
55.2794
55.2715
55.2637
55.2559
55.2482
55.2405
55.2329
55.2254
55.2179
55.2105
55.2032
55.1959
55.1886
55.1815
55.1744
55.1673
55.1603
55.1534
55.1466
55.1398
55.133
55.1264
55.1198
55.1133
55.1068
55.1004
55.094
55.0877
55.0815
55.0753
55.0692
55.0632
55.0572
55.0513
55.0454
55.0396
55.0338
55.0281
55.0224
55.0168
55.0113
55.0057
55.0003
54.9949
54.9895
54.9842
54.9789
54.9737
54.9685
54.9633
54.9582
54.9531
54.9481
54.9431
54.9381
54.9332
54.9283
54.9234
54.9185
54.9137
54.9089
54.9042
54.8994
54.8947
54.89
54.8854
54.8807
54.8761
54.8715
54.8669
54.8624
54.8578
54.8533
54.8488
54.8443
54.8398
54.8354
54.8309
54.8265
54.822
54.8176
54.8132
54.8088
54.8044
54.8001
54.7957
54.7913
54.787
54.7826
54.7783
54.774
54.7696
54.7653
54.761
54.7567
54.7524
54.7481
54.7438
54.7395
54.7352
54.7309
54.7267
54.7224
54.7181
54.7138
54.7096
54.7053
54.701
54.6968
54.6925
54.6883
54.684
54.6797
54.6755
54.6712
54.667
54.6627
54.6585
54.6542
54.65
54.6457
54.6415
54.6373
54.633
54.6288
54.6245
54.6203
54.6161
54.6118
54.6076
54.6033
54.5991
54.5949
54.5906
54.5864
54.5821
54.5779
54.5737
54.5694
54.5652
54.561
54.5567
54.5525
54.5483
54.544
54.5398
54.5356
54.5313
54.5271
54.5229
54.5186
54.5144
54.5102
54.5059
54.5017
54.4975
54.4933
54.489
54.4848
54.4806
54.4763
54.4721
54.4679
54.4636
54.4594
54.4552
54.451
54.4467
54.4425
54.4383
54.4341
54.4298
54.4256
54.4214
54.4172
54.4129
54.4087
54.4045
54.4003
54.396
54.3918
54.3876
54.3834
54.3791
54.3749
54.3707
54.3665
54.3623
54.3623
56.9867
56.9867
56.7592
56.7101
56.6878
56.6724
56.6599
56.6489
56.6387
56.629
56.6198
56.6108
56.6021
56.5937
56.5855
56.5775
56.5698
56.5622
56.5548
56.5477
56.541
56.5347
56.5286
56.5228
56.5171
56.5114
56.5057
56.5
56.4944
56.4889
56.4835
56.4783
56.4731
56.468
56.4629
56.4579
56.4528
56.4478
56.4428
56.4377
56.4327
56.4276
56.4225
56.4174
56.4124
56.4073
56.4022
56.3971
56.392
56.3868
56.3817
56.3766
56.3715
56.3663
56.3612
56.356
56.3508
56.3457
56.3405
56.3353
56.3301
56.3249
56.3197
56.3145
56.3092
56.304
56.2988
56.2935
56.2882
56.283
56.2777
56.2724
56.2671
56.2618
56.2564
56.2511
56.2457
56.2404
56.235
56.2296
56.2242
56.2188
56.2134
56.208
56.2025
56.1971
56.1916
56.1861
56.1806
56.1751
56.1695
56.164
56.1584
56.1528
56.1472
56.1416
56.1359
56.1303
56.1246
56.1189
56.1132
56.1074
56.1016
56.0959
56.09
56.0842
56.0783
56.0725
56.0665
56.0606
56.0546
56.0486
56.0426
56.0366
56.0305
56.0244
56.0182
56.012
56.0058
55.9996
55.9933
55.987
55.9806
55.9742
55.9678
55.9614
55.9549
55.9483
55.9417
55.9351
55.9285
55.9218
55.915
55.9082
55.9014
55.8945
55.8876
55.8806
55.8736
55.8666
55.8595
55.8523
55.8451
55.8379
55.8306
55.8233
55.8159
55.8084
55.801
55.7934
55.7859
55.7782
55.7706
55.7629
55.7551
55.7473
55.7395
55.7316
55.7236
55.7157
55.7076
55.6996
55.6915
55.6833
55.6751
55.6669
55.6587
55.6504
55.6421
55.6337
55.6253
55.6169
55.6085
55.6
55.5915
55.583
55.5745
55.5659
55.5574
55.5488
55.5402
55.5316
55.523
55.5144
55.5058
55.4971
55.4885
55.4799
55.4713
55.4627
55.4541
55.4455
55.4369
55.4283
55.4198
55.4113
55.4028
55.3943
55.3859
55.3774
55.369
55.3607
55.3524
55.3441
55.3358
55.3276
55.3195
55.3114
55.3033
55.2953
55.2873
55.2794
55.2715
55.2637
55.2559
55.2482
55.2405
55.2329
55.2254
55.2179
55.2105
55.2032
55.1959
55.1886
55.1815
55.1744
55.1673
55.1603
55.1534
55.1466
55.1398
55.133
55.1264
55.1198
55.1133
55.1068
55.1004
55.094
55.0877
55.0815
55.0753
55.0692
55.0632
55.0572
55.0513
55.0454
55.0396
55.0338
55.0281
55.0224
55.0168
55.0113
55.0057
55.0003
54.9949
54.9895
54.9842
54.9789
54.9737
54.9685
54.9633
54.9582
54.9531
54.9481
54.9431
54.9381
54.9332
54.9283
54.9234
54.9185
54.9137
54.9089
54.9042
54.8994
54.8947
54.89
54.8854
54.8807
54.8761
54.8715
54.8669
54.8624
54.8578
54.8533
54.8488
54.8443
54.8398
54.8354
54.8309
54.8265
54.822
54.8176
54.8132
54.8088
54.8044
54.8001
54.7957
54.7913
54.787
54.7826
54.7783
54.774
54.7696
54.7653
54.761
54.7567
54.7524
54.7481
54.7438
54.7395
54.7352
54.7309
54.7267
54.7224
54.7181
54.7138
54.7096
54.7053
54.701
54.6968
54.6925
54.6883
54.684
54.6797
54.6755
54.6712
54.667
54.6627
54.6585
54.6542
54.65
54.6457
54.6415
54.6373
54.633
54.6288
54.6245
54.6203
54.6161
54.6118
54.6076
54.6033
54.5991
54.5949
54.5906
54.5864
54.5821
54.5779
54.5737
54.5694
54.5652
54.561
54.5567
54.5525
54.5483
54.544
54.5398
54.5356
54.5313
54.5271
54.5229
54.5186
54.5144
54.5102
54.5059
54.5017
54.4975
54.4932
54.489
54.4848
54.4806
54.4763
54.4721
54.4679
54.4636
54.4594
54.4552
54.451
54.4467
54.4425
54.4383
54.4341
54.4298
54.4256
54.4214
54.4172
54.4129
54.4087
54.4045
54.4003
54.396
54.3918
54.3876
54.3834
54.3791
54.3749
54.3707
54.3665
54.3623
54.3623
56.9727
56.9727
56.7618
56.7112
56.6884
56.6728
56.6602
56.6491
56.6388
56.6292
56.6199
56.6109
56.6022
56.5938
56.5856
56.5776
56.5698
56.5622
56.5548
56.5478
56.541
56.5347
56.5287
56.5228
56.5171
56.5114
56.5057
56.5
56.4944
56.4889
56.4835
56.4783
56.4731
56.468
56.4629
56.4579
56.4528
56.4478
56.4428
56.4377
56.4327
56.4276
56.4225
56.4174
56.4124
56.4073
56.4022
56.3971
56.392
56.3868
56.3817
56.3766
56.3715
56.3663
56.3612
56.356
56.3508
56.3457
56.3405
56.3353
56.3301
56.3249
56.3197
56.3145
56.3092
56.304
56.2988
56.2935
56.2882
56.283
56.2777
56.2724
56.2671
56.2618
56.2564
56.2511
56.2457
56.2404
56.235
56.2296
56.2242
56.2188
56.2134
56.208
56.2025
56.1971
56.1916
56.1861
56.1806
56.1751
56.1695
56.164
56.1584
56.1528
56.1472
56.1416
56.1359
56.1303
56.1246
56.1189
56.1132
56.1074
56.1016
56.0959
56.09
56.0842
56.0783
56.0724
56.0665
56.0606
56.0546
56.0486
56.0426
56.0366
56.0305
56.0244
56.0182
56.012
56.0058
55.9996
55.9933
55.987
55.9806
55.9742
55.9678
55.9614
55.9549
55.9483
55.9417