# vtk DataFile Version 2.0
FlowField
ASCII
DATASET STRUCTURED_GRID
DIMENSIONS 400 1 200
POINTS 80000 float
0 0 0
0.08 0 0
0.16 0 0
0.24 0 0
0.32 0 0
0.4 0 0
0.48 0 0
0.56 0 0
0.64 0 0
0.72 0 0
0.8 0 0
0.88 0 0
0.96 0 0
1.04 0 0
1.12 0 0
1.2 0 0
1.28 0 0
1.36 0 0
1.44 0 0
1.52 0 0
1.6 0 0
1.68 0 0
1.76 0 0
1.84 0 0
1.92 0 0
2 0 0
2.08 0 0
2.16 0 0
2.24 0 0
2.32 0 0
2.4 0 0
2.48 0 0
2.56 0 0
2.64 0 0
2.72 0 0
2.8 0 0
2.88 0 0
2.96 0 0
3.04 0 0
3.12 0 0
3.2 0 0
3.28 0 0
3.36 0 0
3.44 0 0
3.52 0 0
3.6 0 0
3.68 0 0
3.76 0 0
3.84 0 0
3.92 0 0
4 0 0
4.08 0 0
4.16 0 0
4.24 0 0
4.32 0 0
4.4 0 0
4.48 0 0
4.56 0 0
4.64 0 0
4.72 0 0
4.8 0 0
4.88 0 0
4.96 0 0
5.04 0 0
5.12 0 0
5.2 0 0
5.28 0 0
5.36 0 0
5.44 0 0
5.52 0 0
5.6 0 0
5.68 0 0
5.76 0 0
5.84 0 0
5.92 0 0
6 0 0
6.08 0 0
6.16 0 0
6.24 0 0
6.32 0 0
6.4 0 0
6.48 0 0
6.56 0 0
6.64 0 0
6.72 0 0
6.8 0 0
6.88 0 0
6.96 0 0
7.04 0 0
7.12 0 0
7.2 0 0
7.28 0 0
7.36 0 0
7.44 0 0
7.52 0 0
7.6 0 0
7.68 0 0
7.76 0 0
7.84 0 0
7.92 0 0
8 0 0
8.08 0 0
8.16 0 0
8.24 0 0
8.32 0 0
8.4 0 0
8.48 0 0
8.56 0 0
8.64 0 0
8.72 0 0
8.8 0 0
8.88 0 0
8.96 0 0
9.04 0 0
9.12 0 0
9.2 0 0
9.28 0 0
9.36 0 0
9.44 0 0
9.52 0 0
9.6 0 0
9.68 0 0
9.76 0 0
9.84 0 0
9.92 0 0
10 0 0
10.08 0 0
10.16 0 0
10.24 0 0
10.32 0 0
10.4 0 0
10.48 0 0
10.56 0 0
10.64 0 0
10.72 0 0
10.8 0 0
10.88 0 0
10.96 0 0
11.04 0 0
11.12 0 0
11.2 0 0
11.28 0 0
11.36 0 0
11.44 0 0
11.52 0 0
11.6 0 0
11.68 0 0
11.76 0 0
11.84 0 0
11.92 0 0
12 0 0
12.08 0 0
12.16 0 0
12.24 0 0
12.32 0 0
12.4 0 0
12.48 0 0
12.56 0 0
12.64 0 0
12.72 0 0
12.8 0 0
12.88 0 0
12.96 0 0
13.04 0 0
13.12 0 0
13.2 0 0
13.28 0 0
13.36 0 0
13.44 0 0
13.52 0 0
13.6 0 0
13.68 0 0
13.76 0 0
13.84 0 0
13.92 0 0
14 0 0
14.08 0 0
14.16 0 0
14.24 0 0
14.32 0 0
14.4 0 0
14.48 0 0
14.56 0 0
14.64 0 0
14.72 0 0
14.8 0 0
14.88 0 0
14.96 0 0
15.04 0 0
15.12 0 0
15.2 0 0
15.28 0 0
15.36 0 0
15.44 0 0
15.52 0 0
15.6 0 0
15.68 0 0
15.76 0 0
15.84 0 0
15.92 0 0
16 0 0
16.08 0 0
16.16 0 0
16.24 0 0
16.32 0 0
16.4 0 0
16.48 0 0
16.56 0 0
16.64 0 0
16.72 0 0
16.8 0 0
16.88 0 0
16.96 0 0
17.04 0 0
17.12 0 0
17.2 0 0
17.28 0 0
17.36 0 0
17.44 0 0
17.52 0 0
17.6 0 0
17.68 0 0
17.76 0 0
17.84 0 0
17.92 0 0
18 0 0
18.08 0 0
18.16 0 0
18.24 0 0
18.32 0 0
18.4 0 0
18.48 0 0
18.56 0 0
18.64 0 0
18.72 0 0
18.8 0 0
18.88 0 0
18.96 0 0
19.04 0 0
19.12 0 0
19.2 0 0
19.28 0 0
19.36 0 0
19.44 0 0
19.52 0 0
19.6 0 0
19.68 0 0
19.76 0 0
19.84 0 0
19.92 0 0
20 0 0
20.08 0 0
20.16 0 0
20.24 0 0
20.32 0 0
20.4 0 0
20.48 0 0
20.56 0 0
20.64 0 0
20.72 0 0
20.8 0 0
20.88 0 0
20.96 0 0
21.04 0 0
21.12 0 0
21.2 0 0
21.28 0 0
21.36 0 0
21.44 0 0
21.52 0 0
21.6 0 0
21.68 0 0
21.76 0 0
21.84 0 0
21.92 0 0
22 0 0
22.08 0 0
22.16 0 0
22.24 0 0
22.32 0 0
22.4 0 0
22.48 0 0
22.56 0 0
22.64 0 0
22.72 0 0
22.8 0 0
22.88 0 0
22.96 0 0
23.04 0 0
23.12 0 0
23.2 0 0
23.28 0 0
23.36 0 0
23.44 0 0
23.52 0 0
23.6 0 0
23.68 0 0
23.76 0 0
23.84 0 0
23.92 0 0
24 0 0
24.08 0 0
24.16 0 0
24.24 0 0
24.32 0 0
24.4 0 0
24.48 0 0
24.56 0 0
24.64 0 0
24.72 0 0
24.8 0 0
24.88 0 0
24.96 0 0
25.04 0 0
25.12 0 0
25.2 0 0
25.28 0 0
25.36 0 0
25.44 0 0
25.52 0 0
25.6 0 0
25.68 0 0
25.76 0 0
25.84 0 0
25.92 0 0
26 0 0
26.08 0 0
26.16 0 0
26.24 0 0
26.32 0 0
26.4 0 0
26.48 0 0
26.56 0 0
26.64 0 0
26.72 0 0
26.8 0 0
26.88 0 0
26.96 0 0
27.04 0 0
27.12 0 0
27.2 0 0
27.28 0 0
27.36 0 0
27.44 0 0
27.52 0 0
27.6 0 0
27.68 0 0
27.76 0 0
27.84 0 0
27.92 0 0
28 0 0
28.08 0 0
28.16 0 0
28.24 0 0
28.32 0 0
28.4 0 0
28.48 0 0
28.56 0 0
28.64 0 0
28.72 0 0
28.8 0 0
28.88 0 0
28.96 0 0
29.04 0 0
29.12 0 0
29.2 0 0
29.28 0 0
29.36 0 0
29.44 0 0
29.52 0 0
29.6 0 0
29.68 0 0
29.76 0 0
29.84 0 0
29.92 0 0
30 0 0
30.08 0 0
30.16 0 0
30.24 0 0
30.32 0 0
30.4 0 0
30.48 0 0
30.56 0 0
30.64 0 0
30.72 0 0
30.8 0 0
30.88 0 0
30.96 0 0
31.04 0 0
31.12 0 0
31.2 0 0
31.28 0 0
31.36 0 0
31.44 0 0
31.52 0 0
31.6 0 0
31.68 0 0
31.76 0 0
31.84 0 0
31.92 0 0
0 0.005 0
0.08 0.005 0
0.16 0.005 0
0.24 0.005 0
0.32 0.005 0
0.4 0.005 0
0.48 0.005 0
0.56 0.005 0
0.64 0.005 0
0.72 0.005 0
0.8 0.005 0
0.88 0.005 0
0.96 0.005 0
1.04 0.005 0
1.12 0.005 0
1.2 0.005 0
1.28 0.005 0
1.36 0.005 0
1.44 0.005 0
1.52 0.005 0
1.6 0.005 0
1.68 0.005 0
1.76 0.005 0
1.84 0.005 0
1.92 0.005 0
2 0.005 0
2.08 0.005 0
2.16 0.005 0
2.24 0.005 0
2.32 0.005 0
2.4 0.005 0
2.48 0.005 0
2.56 0.005 0
2.64 0.005 0
2.72 0.005 0
2.8 0.005 0
2.88 0.005 0
2.96 0.005 0
3.04 0.005 0
3.12 0.005 0
3.2 0.005 0
3.28 0.005 0
3.36 0.005 0
3.44 0.005 0
3.52 0.005 0
3.6 0.005 0
3.68 0.005 0
3.76 0.005 0
3.84 0.005 0
3.92 0.005 0
4 0.005 0
4.08 0.005 0
4.16 0.005 0
4.24 0.005 0
4.32 0.005 0
4.4 0.005 0
4.48 0.005 0
4.56 0.005 0
4.64 0.005 0
4.72 0.005 0
4.8 0.005 0
4.88 0.005 0
4.96 0.005 0
5.04 0.005 0
5.12 0.005 0
5.2 0.005 0
5.28 0.005 0
5.36 0.005 0
5.44 0.005 0
5.52 0.005 0
5.6 0.005 0
5.68 0.005 0
5.76 0.005 0
5.84 0.005 0
5.92 0.005 0
6 0.005 0
6.08 0.005 0
6.16 0.005 0
6.24 0.005 0
6.32 0.005 0
6.4 0.005 0
6.48 0.005 0
6.56 0.005 0
6.64 0.005 0
6.72 0.005 0
6.8 0.005 0
6.88 0.005 0
6.96 0.005 0
7.04 0.005 0
7.12 0.005 0
7.2 0.005 0
7.28 0.005 0
7.36 0.005 0
7.44 0.005 0
7.52 0.005 0
7.6 0.005 0
7.68 0.005 0
7.76 0.005 0
7.84 0.005 0
7.92 0.005 0
8 0.005 0
8.08 0.005 0
8.16 0.005 0
8.24 0.005 0
8.32 0.005 0
8.4 0.005 0
8.48 0.005 0
8.56 0.005 0
8.64 0.005 0
8.72 0.005 0
8.8 0.005 0
8.88 0.005 0
8.96 0.005 0
9.04 0.005 0
9.12 0.005 0
9.2 0.005 0
9.28 0.005 0
9.36 0.005 0
9.44 0.005 0
9.52 0.005 0
9.6 0.005 0
9.68 0.005 0
9.76 0.005 0
9.84 0.005 0
9.92 0.005 0
10 0.005 0
10.08 0.005 0
10.16 0.005 0
10.24 0.005 0
10.32 0.005 0
10.4 0.005 0
10.48 0.005 0
10.56 0.005 0
10.64 0.005 0
10.72 0.005 0
10.8 0.005 0
10.88 0.005 0
10.96 0.005 0
11.04 0.005 0
11.12 0.005 0
11.2 0.005 0
11.28 0.005 0
11.36 0.005 0
11.44 0.005 0
11.52 0.005 0
11.6 0.005 0
11.68 0.005 0
11.76 0.005 0
11.84 0.005 0
11.92 0.005 0
12 0.005 0
12.08 0.005 0
12.16 0.005 0
12.24 0.005 0
12.32 0.005 0
12.4 0.005 0
12.48 0.005 0
12.56 0.005 0
12.64 0.005 0
12.72 0.005 0
12.8 0.005 0
12.88 0.005 0
12.96 0.005 0
13.04 0.005 0
13.12 0.005 0
13.2 0.005 0
13.28 0.005 0
13.36 0.005 0
13.44 0.005 0
13.52 0.005 0
13.6 0.005 0
13.68 0.005 0
13.76 0.005 0
13.84 0.005 0
13.92 0.005 0
14 0.005 0
14.08 0.005 0
14.16 0.005 0
14.24 0.005 0
14.32 0.005 0
14.4 0.005 0
14.48 0.005 0
14.56 0.005 0
14.64 0.005 0
14.72 0.005 0
14.8 0.005 0
14.88 0.005 0
14.96 0.005 0
15.04 0.005 0
15.12 0.005 0
15.2 0.005 0
15.28 0.005 0
15.36 0.005 0
15.44 0.005 0
15.52 0.005 0
15.6 0.005 0
15.68 0.005 0
15.76 0.005 0
15.84 0.005 0
15.92 0.005 0
16 0.005 0
16.08 0.005 0
16.16 0.005 0
16.24 0.005 0
16.32 0.005 0
16.4 0.005 0
16.48 0.005 0
16.56 0.005 0
16.64 0.005 0
16.72 0.005 0
16.8 0.005 0
16.88 0.005 0
16.96 0.005 0
17.04 0.005 0
17.12 0.005 0
17.2 0.005 0
17.28 0.005 0
17.36 0.005 0
17.44 0.005 0
17.52 0.005 0
17.6 0.005 0
17.68 0.005 0
17.76 0.005 0
17.84 0.005 0
17.92 0.005 0
18 0.005 0
18.08 0.005 0
18.16 0.005 0
18.24 0.005 0
18.32 0.005 0
18.4 0.005 0
18.48 0.005 0
18.56 0.005 0
18.64 0.005 0
18.72 0.005 0
18.8 0.005 0
18.88 0.005 0
18.96 0.005 0
19.04 0.005 0
19.12 0.005 0
19.2 0.005 0
19.28 0.005 0
19.36 0.005 0
19.44 0.005 0
19.52 0.005 0
19.6 0.005 0
19.68 0.005 0
19.76 0.005 0
19.84 0.005 0
19.92 0.005 0
20 0.005 0
20.08 0.005 0
20.16 0.005 0
20.24 0.005 0
20.32 0.005 0
20.4 0.005 0
20.48 0.005 0
20.56 0.005 0
20.64 0.005 0
20.72 0.005 0
20.8 0.005 0
20.88 0.005 0
20.96 0.005 0
21.04 0.005 0
21.12 0.005 0
21.2 0.005 0
21.28 0.005 0
21.36 0.005 0
21.44 0.005 0
21.52 0.005 0
21.6 0.005 0
21.68 0.005 0
21.76 0.005 0
21.84 0.005 0
21.92 0.005 0
22 0.005 0
22.08 0.005 0
22.16 0.005 0
22.24 0.005 0
22.32 0.005 0
22.4 0.005 0
22.48 0.005 0
22.56 0.005 0
22.64 0.005 0
22.72 0.005 0
22.8 0.005 0
22.88 0.005 0
22.96 0.005 0
23.04 0.005 0
23.12 0.005 0
23.2 0.005 0
23.28 0.005 0
23.36 0.005 0
23.44 0.005 0
23.52 0.005 0
23.6 0.005 0
23.68 0.005 0
23.76 0.005 0
23.84 0.005 0
23.92 0.005 0
24 0.005 0
24.08 0.005 0
24.16 0.005 0
24.24 0.005 0
24.32 0.005 0
24.4 0.005 0
24.48 0.005 0
24.56 0.005 0
24.64 0.005 0
24.72 0.005 0
24.8 0.005 0
24.88 0.005 0
24.96 0.005 0
25.04 0.005 0
25.12 0.005 0
25.2 0.005 0
25.28 0.005 0
25.36 0.005 0
25.44 0.005 0
25.52 0.005 0
25.6 0.005 0
25.68 0.005 0
25.76 0.005 0
25.84 0.005 0
25.92 0.005 0
26 0.005 0
26.08 0.005 0
26.16 0.005 0
26.24 0.005 0
26.32 0.005 0
26.4 0.005 0
26.48 0.005 0
26.56 0.005 0
26.64 0.005 0
26.72 0.005 0
26.8 0.005 0
26.88 0.005 0
26.96 0.005 0
27.04 0.005 0
27.12 0.005 0
27.2 0.005 0
27.28 0.005 0
27.36 0.005 0
27.44 0.005 0
27.52 0.005 0
27.6 0.005 0
27.68 0.005 0
27.76 0.005 0
27.84 0.005 0
27.92 0.005 0
28 0.005 0
28.08 0.005 0
28.16 0.005 0
28.24 0.005 0
28.32 0.005 0
28.4 0.005 0
28.48 0.005 0
28.56 0.005 0
28.64 0.005 0
28.72 0.005 0
28.8 0.005 0
28.88 0.005 0
28.96 0.005 0
29.04 0.005 0
29.12 0.005 0
29.2 0.005 0
29.28 0.005 0
29.36 0.005 0
29.44 0.005 0
29.52 0.005 0
29.6 0.005 0
29.68 0.005 0
29.76 0.005 0
29.84 0.005 0
29.92 0.005 0
30 0.005 0
30.08 0.005 0
30.16 0.005 0
30.24 0.005 0
30.32 0.005 0
30.4 0.005 0
30.48 0.005 0
30.56 0.005 0
30.64 0.005 0
30.72 0.005 0
30.8 0.005 0
30.88 0.005 0
30.96 0.005 0
31.04 0.005 0
31.12 0.005 0
31.2 0.005 0
31.28 0.005 0
31.36 0.005 0
31.44 0.005 0
31.52 0.005 0
31.6 0.005 0
31.68 0.005 0
31.76 0.005 0
31.84 0.005 0
31.92 0.005 0
0 0.01 0
0.08 0.01 0
0.16 0.01 0
0.24 0.01 0
0.32 0.01 0
0.4 0.01 0
0.48 0.01 0
0.56 0.01 0
0.64 0.01 0
0.72 0.01 0
0.8 0.01 0
0.88 0.01 0
0.96 0.01 0
1.04 0.01 0
1.12 0.01 0
1.2 0.01 0
1.28 0.01 0
1.36 0.01 0
1.44 0.01 0
1.52 0.01 0
1.6 0.01 0
1.68 0.01 0
1.76 0.01 0
1.84 0.01 0
1.92 0.01 0
2 0.01 0
2.08 0.01 0
2.16 0.01 0
2.24 0.01 0
2.32 0.01 0
2.4 0.01 0
2.48 0.01 0
2.56 0.01 0
2.64 0.01 0
2.72 0.01 0
2.8 0.01 0
2.88 0.01 0
2.96 0.01 0
3.04 0.01 0
3.12 0.01 0
3.2 0.01 0
3.28 0.01 0
3.36 0.01 0
3.44 0.01 0
3.52 0.01 0
3.6 0.01 0
3.68 0.01 0
3.76 0.01 0
3.84 0.01 0
3.92 0.01 0
4 0.01 0
4.08 0.01 0
4.16 0.01 0
4.24 0.01 0
4.32 0.01 0
4.4 0.01 0
4.48 0.01 0
4.56 0.01 0
4.64 0.01 0
4.72 0.01 0
4.8 0.01 0
4.88 0.01 0
4.96 0.01 0
5.04 0.01 0
5.12 0.01 0
[...]
POINT_DATA 80000

SCALARS v float 1
LOOKUP_TABLE default
0
0
0
0
0
0
0
0
0
0
0
0
0
0
0
0
0
0
0
0
0
0
0
0
0
0
0
0
0
0
0
0
0
0
0
0
0
0
0
0
0
0
0
0
0
0
0
0
0
0
0
0
0
0
0
0
0
0
0
0
0
0
0
0
0
0
0
0
0
0
0
0
0
0
0
0
0
0
0
0
0
0
0
0
0
0
0
0
0
0
0
0
0
0
0
0
0
0
0
0
0
0
0
0
0
0
0
0
0
0
0
0
0
0
0
0
0
0
0
0
0
0
0
0
0
0
0
0
0
0
0
0
0
0
0
0
0
0
0
0
0
0
0
0
0
0
0
0
0
0
0
0
0
0
0
0
0
0
0
0
0
0
0
0
0
0
0
0
0
0
0
0
0
0
0
0
0
0
0
0
0
0
0
0
0
0
0
0
0
0
0
0
0
0
0
0
0
0
0
0
0
0
0
0
0
0
0
0
0
0
0
0
0
0
0
0
0
0
0
0
0
0
0
0
0
0
0
0
0
0
0
0
0
0
0
0
0
0
0
0
0
0
0
0
0
0
0
0
0
0
0
0
0
0
0
0
0
0
0
0
0
0
0
0
0
0
0
0
0
0
0
0
0
0
0
0
0
0
0
0
0
0
0
0
0
0
0
0
0
0
0
0
0
0
0
0
0
0
0
0
0
0
0
0
0
0
0
0
0
0
0
0
0
0
0
0
0
0
0
0
0
0
0
0
0
0
0
0
0
0
0
0
0
0
0
0
0
0
0
0
0
0
0
0
0
0
0
0
0
0
0
0
0
0
0
0
0
0
0
0
0
0
0
0
0
0
0
0
0
0
0
0
0
0
0
0
0
0
0
0
0
0
0
0
0
0
0
0
0
0
0
0
0
0
0
0
0
0
0
0
-0.0542714
0.0542714
0.00396237
0.000998605
0.000492531
0.000302959
0.000207574
0.000151927
0.000116453
9.24637e-05
7.55265e-05
6.31272e-05
5.3745e-05
4.64516e-05
4.06747e-05
3.60179e-05
3.21578e-05
2.88379e-05
2.59042e-05
2.33034e-05
2.10144e-05
1.8963e-05
1.69957e-05
1.49422e-05
1.27218e-05
1.04111e-05
8.2206e-06
6.39328e-06
5.08734e-06
4.31008e-06
3.93042e-06
3.74967e-06
3.58427e-06
3.32074e-06
2.92847e-06
2.44e-06
1.91792e-06
1.42518e-06
1.00682e-06
6.84005e-07
4.56863e-07
3.11628e-07
2.28331e-07
1.8681e-07
1.70261e-07
1.66545e-07
1.67972e-07
1.70338e-07
1.71772e-07
1.71759e-07
1.70434e-07
1.68157e-07
1.65293e-07
1.62125e-07
1.58843e-07
1.55554e-07
1.52312e-07
1.49137e-07
1.46029e-07
1.4298e-07
1.3998e-07
1.37019e-07
1.34086e-07
1.31176e-07
1.28281e-07
1.25397e-07
1.22521e-07
1.19649e-07
1.16779e-07
1.13909e-07
1.11037e-07
1.08163e-07
1.05284e-07
1.02401e-07
9.95128e-08
9.66182e-08
9.37168e-08
9.08085e-08
8.78925e-08
8.4969e-08
8.20374e-08
7.9098e-08
7.61501e-08
7.31941e-08
7.02296e-08
6.72569e-08
6.42756e-08
6.12861e-08
5.8288e-08
5.52817e-08
5.22668e-08
4.92438e-08
4.62123e-08
4.31726e-08
4.01245e-08
3.70683e-08
3.40037e-08
3.09311e-08
2.78502e-08
2.47613e-08
2.16641e-08
1.85591e-08
1.54459e-08
1.23249e-08
9.19587e-09
6.05915e-09
2.91448e-09
-2.37699e-10
-3.39765e-09
-6.56495e-09
-9.7398e-09
-1.29218e-08
-1.6111e-08
-1.93071e-08
-2.25102e-08
-2.57197e-08
-2.89359e-08
-3.2158e-08
-3.53864e-08
-3.86202e-08
-4.18597e-08
-4.51041e-08
-4.83534e-08
-5.1607e-08
-5.48648e-08
-5.8126e-08
-6.13904e-08
-6.46574e-08
-6.79265e-08
-7.11971e-08
-7.44687e-08
-7.77405e-08
-8.10119e-08
-8.4282e-08
-8.75503e-08
-9.08156e-08
-9.40774e-08
-9.73342e-08
-1.00585e-07
-1.0383e-07
-1.07066e-07
-1.10294e-07
-1.1351e-07
-1.16715e-07
-1.19907e-07
-1.23084e-07
-1.26245e-07
-1.29387e-07
-1.3251e-07
-1.35611e-07
-1.38689e-07
-1.4174e-07
-1.44765e-07
-1.47759e-07
-1.5072e-07
-1.53647e-07
-1.56537e-07
-1.59386e-07
-1.62193e-07
-1.64954e-07
-1.67667e-07
-1.70328e-07
-1.72934e-07
-1.75482e-07
-1.77969e-07
-1.8039e-07
-1.82742e-07
-1.85022e-07
-1.87226e-07
-1.89349e-07
-1.91388e-07
-1.93338e-07
-1.95195e-07
-1.96955e-07
-1.98613e-07
-2.00165e-07
-2.01606e-07
-2.02931e-07
-2.04136e-07
-2.05215e-07
-2.06165e-07
-2.06979e-07
-2.07653e-07
-2.08182e-07
-2.0856e-07
-2.08784e-07
-2.08847e-07
-2.08744e-07
-2.08472e-07
-2.08023e-07
-2.07395e-07
-2.06581e-07
-2.05578e-07
-2.04379e-07
-2.02981e-07
-2.0138e-07
-1.9957e-07
-1.97548e-07
-1.95309e-07
-1.9285e-07
-1.90168e-07
-1.87258e-07
-1.84118e-07
-1.80744e-07
-1.77134e-07
-1.73287e-07
-1.69199e-07
-1.64869e-07
-1.60295e-07
-1.55478e-07
-1.50415e-07
-1.45107e-07
-1.39555e-07
-1.33758e-07
-1.27718e-07
-1.21437e-07
-1.14916e-07
-1.08158e-07
-1.01166e-07
-9.39438e-08
-8.6495e-08
-7.88241e-08
-7.09365e-08
-6.28376e-08
-5.45339e-08
-4.60318e-08
-3.73389e-08
-2.84626e-08
-1.94117e-08
-1.01949e-08
-8.21813e-10
8.69779e-09
1.8353e-08
2.81332e-08
3.80263e-08
4.80207e-08
5.81034e-08
6.82619e-08
7.84821e-08
8.87506e-08
9.90527e-08
1.09374e-07
1.19699e-07
1.30013e-07
1.40299e-07
1.50542e-07
1.60725e-07
1.70832e-07
1.80847e-07
1.90751e-07
2.00529e-07
2.10163e-07
2.19635e-07
2.2893e-07
2.38029e-07
2.46915e-07
2.55571e-07
2.6398e-07
2.72126e-07
2.79992e-07
2.87561e-07
2.94817e-07
3.01745e-07
3.08329e-07
3.14554e-07
3.20405e-07
3.25869e-07
3.3093e-07
3.35576e-07
3.39795e-07
3.43573e-07
3.469e-07
3.49765e-07
3.52157e-07
3.54065e-07
3.55483e-07
3.564e-07
3.56811e-07
3.56706e-07
3.56081e-07
3.54931e-07
3.53249e-07
3.51034e-07
3.4828e-07
3.44987e-07
3.41153e-07
3.36775e-07
3.31856e-07
3.26395e-07
3.20394e-07
3.13854e-07
3.06779e-07
2.99172e-07
2.91037e-07
2.8238e-07
2.73206e-07
2.6352e-07
2.5333e-07
2.42643e-07
2.31467e-07
2.1981e-07
2.0768e-07
1.95088e-07
1.82043e-07
1.68555e-07
1.54634e-07
1.40291e-07
1.25538e-07
1.10385e-07
9.48446e-08
7.89279e-08
6.26471e-08
4.60139e-08
2.90408e-08
1.17397e-08
-5.87691e-09
-2.37972e-08
-4.20088e-08
-6.04998e-08
-7.9258e-08
-9.82718e-08
-1.17529e-07
-1.37019e-07
-1.5673e-07
-1.76652e-07
-1.96772e-07
-2.17081e-07
-2.37569e-07
-2.58226e-07
-2.79042e-07
-3.00009e-07
-3.21117e-07
-3.42358e-07
-3.63725e-07
-3.8521e-07
-4.06806e-07
-4.28506e-07
-4.50305e-07
-4.72196e-07
-4.94176e-07
-5.16238e-07
-5.3838e-07
-5.60597e-07
-5.82887e-07
-6.05246e-07
-6.27674e-07
-6.50168e-07
-6.72727e-07
-6.95351e-07
-7.1804e-07
-7.40794e-07
-7.63616e-07
-7.86505e-07
-8.09465e-07
-8.32499e-07
-8.55608e-07
-8.78797e-07
-9.02071e-07
-9.25433e-07
-9.4889e-07
-9.72446e-07
-9.96109e-07
-1.01988e-06
-1.04378e-06
-1.06779e-06
-1.09198e-06
-1.11622e-06
-1.1408e-06
-1.16517e-06
-1.19042e-06
-1.21457e-06
-1.24118e-06
-1.26416e-06
-1.29357e-06
-1.3136e-06
-1.34805e-06
-1.36284e-06
-1.40456e-06
-1.41258e-06
-1.4622e-06
-1.46415e-06
-1.51998e-06
-1.51853e-06
-1.57754e-06
-1.57623e-06
-1.63438e-06
-1.63883e-06
-1.68886e-06
-1.70799e-06
-1.74208e-06
-1.78017e-06
-1.80109e-06
-1.85223e-06
-1.86053e-06
-1.94855e-06
-1.87911e-06
-2.09226e-06
-1.69134e-06
-2.02976e-06
-2.02976e-06
-0.0952162
0.0952162
0.0129759
0.00385492
0.00193459
0.00119645
0.000821957
0.000602454
0.000462076
0.000366923
0.00029961
0.000250251
0.000212868
0.000183806
0.000160784
0.000142196
0.000126746
0.000113446
0.000101722
9.13595e-05
8.22192e-05
7.39433e-05
6.59146e-05
5.75282e-05
4.85749e-05
3.94413e-05
3.09648e-05
2.40295e-05
1.91456e-05
1.62464e-05
1.47751e-05
1.39684e-05
1.31595e-05
1.19632e-05
1.03036e-05
8.32754e-06
6.27805e-06
4.38613e-06
2.80851e-06
1.61078e-06
7.81644e-07
2.61382e-07
-2.93258e-08
-1.67679e-07
-2.16556e-07
-2.20547e-07
-2.07391e-07
-1.91938e-07
-1.80555e-07
-1.7479e-07
-1.7394e-07
-1.76578e-07
-1.81324e-07
-1.87122e-07
-1.93288e-07
-1.99428e-07
-2.05356e-07
-2.11007e-07
-2.16383e-07
-2.21515e-07
-2.26444e-07
-2.31208e-07
-2.35843e-07
-2.40376e-07
-2.44831e-07
-2.49223e-07
-2.5357e-07
-2.57879e-07
-2.62162e-07
-2.66424e-07
-2.70673e-07
-2.74913e-07
-2.79148e-07
-2.83382e-07
-2.87617e-07
-2.91856e-07
-2.96101e-07
-3.00354e-07
-3.04615e-07
-3.08886e-07
-3.13167e-07
-3.1746e-07
-3.21764e-07
-3.2608e-07
-3.30408e-07
-3.34748e-07
-3.39101e-07
-3.43466e-07
-3.47843e-07
-3.52232e-07
-3.56633e-07
-3.61046e-07
-3.65472e-07
-3.69908e-07
-3.74357e-07
-3.78817e-07
-3.83289e-07
-3.87773e-07
-3.92268e-07
-3.96774e-07
-4.01292e-07
-4.05821e-07
-4.10362e-07
-4.14914e-07
-4.19477e-07
-4.24051e-07
-4.28637e-07
-4.33233e-07
-4.37841e-07
-4.42459e-07
-4.47089e-07
-4.51729e-07
-4.56381e-07
-4.61042e-07
-4.65714e-07
-4.70396e-07
-4.75088e-07
-4.7979e-07
-4.84501e-07
-4.89222e-07
-4.93952e-07
-4.9869e-07
-5.03437e-07
-5.08191e-07
-5.12954e-07
-5.17723e-07
-5.22499e-07
-5.27281e-07
-5.32069e-07
-5.36861e-07
-5.41658e-07
-5.46458e-07
-5.51262e-07
-5.56067e-07
-5.60873e-07
-5.65679e-07
-5.70485e-07
-5.75289e-07
-5.8009e-07
-5.84887e-07
-5.89678e-07
-5.94463e-07
-5.99239e-07
-6.04006e-07
-6.08762e-07
-6.13504e-07
-6.18232e-07
-6.22943e-07
-6.27637e-07
-6.32309e-07
-6.36959e-07
-6.41583e-07
-6.4618e-07
-6.50747e-07
-6.55282e-07
-6.59781e-07
-6.64243e-07
-6.68662e-07
-6.73039e-07
-6.77367e-07
-6.81645e-07
-6.85868e-07
-6.90034e-07
-6.94137e-07
-6.98176e-07
-7.02144e-07
-7.0604e-07
-7.09856e-07
-7.13591e-07
-7.17238e-07
-7.20795e-07
-7.24254e-07
-7.27613e-07
-7.30864e-07
-7.34005e-07
-7.37029e-07
-7.39931e-07
-7.42704e-07
-7.45346e-07
-7.47848e-07
-7.50206e-07
-7.52413e-07
-7.54465e-07
-7.56354e-07
-7.58077e-07
-7.59624e-07
-7.60993e-07
-7.62175e-07
-7.63166e-07
-7.63959e-07
-7.64549e-07
-7.64929e-07
-7.65094e-07
-7.65038e-07
-7.64757e-07
-7.64242e-07
-7.63491e-07
-7.62497e-07
-7.61257e-07
-7.59763e-07
-7.58013e-07
-7.56002e-07
-7.53726e-07
-7.5118e-07
-7.48362e-07
-7.45268e-07
-7.41896e-07
-7.38243e-07
-7.34307e-07
-7.30085e-07
-7.25577e-07
-7.20782e-07
-7.15701e-07
-7.10331e-07
-7.04675e-07
-6.98733e-07
-6.92507e-07
-6.85999e-07
-6.79212e-07
-6.7215e-07
-6.64816e-07
-6.57214e-07
-6.4935e-07
-6.4123e-07
-6.3286e-07
-6.24246e-07
-6.15398e-07
-6.06322e-07
-5.97028e-07
-5.87526e-07
-5.77826e-07
-5.67937e-07
-5.57874e-07
-5.47646e-07
-5.37268e-07
-5.26751e-07
-5.16112e-07
-5.05362e-07
-4.94519e-07
-4.83597e-07
-4.72613e-07
-4.61583e-07
-4.50525e-07
-4.39454e-07
-4.28392e-07
-4.17354e-07
-4.0636e-07
-3.95428e-07
-3.8458e-07
-3.73832e-07
-3.63207e-07
-3.52722e-07
-3.42399e-07
-3.32258e-07
-3.22318e-07
-3.12601e-07
-3.03126e-07
-2.93913e-07
-2.84984e-07
-2.76356e-07
-2.6805e-07
-2.60086e-07
-2.52483e-07
-2.45259e-07
-2.38433e-07
-2.32023e-07
-2.26047e-07
-2.20521e-07
-2.15463e-07
-2.10888e-07
-2.06813e-07
-2.03251e-07
-2.00217e-07
-1.97724e-07
-1.95786e-07
-1.94414e-07
-1.9362e-07
-1.93414e-07
-1.93806e-07
-1.94803e-07
-1.96417e-07
-1.98651e-07
-2.01515e-07
-2.05011e-07
-2.09147e-07
-2.13924e-07
-2.19347e-07
-2.25416e-07
-2.32133e-07
-2.39499e-07
-2.47513e-07
-2.56172e-07
-2.65477e-07
-2.75422e-07
-2.86004e-07
-2.97219e-07
-3.09062e-07
-3.21525e-07
-3.34604e-07
-3.48289e-07
-3.62573e-07
-3.77448e-07
-3.92904e-07
-4.08931e-07
-4.2552e-07
-4.42658e-07
-4.60336e-07
-4.78541e-07
-4.97263e-07
-5.16487e-07
-5.36203e-07
-5.56396e-07
-5.77055e-07
-5.98165e-07
-6.19714e-07
-6.41688e-07
-6.64075e-07
-6.86859e-07
-7.10029e-07
-7.33571e-07
-7.57471e-07
-7.81715e-07
-8.06293e-07
-8.3119e-07
-8.56394e-07
-8.81892e-07
-9.07674e-07
-9.33726e-07
-9.60038e-07
-9.86599e-07
-1.0134e-06
-1.04042e-06
-1.06767e-06
-1.09512e-06
-1.12278e-06
-1.15062e-06
-1.17866e-06
-1.20686e-06
-1.23524e-06
-1.26378e-06
-1.29248e-06
-1.32133e-06
-1.35034e-06
-1.37948e-06
-1.40877e-06
-1.4382e-06
-1.46776e-06
-1.49746e-06
-1.5273e-06
-1.55727e-06
-1.58737e-06
-1.61762e-06
-1.64799e-06
-1.67851e-06
-1.70918e-06
-1.73998e-06
-1.77094e-06
-1.80206e-06
-1.83333e-06
-1.86477e-06
-1.89639e-06
-1.92818e-06
-1.96016e-06
-1.99236e-06
-2.0247e-06
-2.0574e-06
-2.09002e-06
-2.12352e-06
-2.15596e-06
-2.19117e-06
-2.22202e-06
-2.26137e-06
-2.28707e-06
-2.33575e-06
-2.34957e-06
-2.41583e-06
-2.40896e-06
-2.50118e-06
-2.46755e-06
-2.58825e-06
-2.53006e-06
-2.67279e-06
-2.59994e-06
-2.75321e-06
-2.67865e-06
-2.82743e-06
-2.77167e-06
-2.88873e-06
-2.88546e-06
-2.94025e-06
-3.0067e-06
-3.00858e-06
-3.12157e-06
-3.07627e-06
-3.3192e-06
-2.98909e-06
-3.69267e-06
-2.17528e-06
-3.31744e-06
-3.31744e-06
-0.125293
0.125293
0.0249362
0.00835831
0.00427825
0.0026617
0.00183383
0.00134627
0.00103352
0.000821055
0.000670497
0.000559942
0.000476142
0.000410985
0.00035936
0.000317625
0.000282872
0.000252939
0.000226604
0.000203373
0.000182844
0.000164122
0.000145827
0.000126728
0.000106533
8.62241e-05
6.76581e-05
5.2671e-05
4.22158e-05
3.59996e-05
3.27337e-05
3.07632e-05
2.87006e-05
2.57882e-05
2.19242e-05
1.74601e-05
1.29256e-05
8.80471e-06
5.41202e-06
2.86523e-06
1.12154e-06
4.05829e-08
-5.54022e-07
-8.29674e-07
-9.20496e-07
-9.20322e-07
-8.86753e-07
-8.50128e-07
-8.23077e-07
-8.0833e-07
-8.04097e-07
-8.07215e-07
-8.14713e-07
-8.24357e-07
-8.34708e-07
-8.44953e-07
-8.54711e-07
-8.63853e-07
-8.72392e-07
-8.80394e-07
-8.87949e-07
-8.95141e-07
-9.02045e-07
-9.08718e-07
-9.15212e-07
-9.21561e-07
-9.27799e-07
-9.33948e-07
-9.40028e-07
-9.46054e-07
-9.5204e-07
-9.57996e-07
-9.63932e-07
-9.69854e-07
-9.75771e-07
-9.81685e-07
-9.87603e-07
-9.93526e-07
-9.99459e-07
-1.0054e-06
-1.01136e-06
-1.01733e-06
-1.02332e-06
-1.02932e-06
-1.03534e-06
-1.04138e-06
-1.04743e-06
-1.0535e-06
-1.05958e-06
-1.06569e-06
-1.07181e-06
-1.07794e-06
-1.08409e-06
-1.09026e-06
-1.09644e-06
-1.10264e-06
-1.10885e-06
-1.11508e-06
-1.12133e-06
-1.12758e-06
-1.13386e-06
-1.14015e-06
-1.14645e-06
-1.15277e-06
-1.15911e-06
-1.16546e-06
-1.17182e-06
-1.1782e-06
-1.18459e-06
-1.191e-06
-1.19743e-06
-1.20387e-06
-1.21032e-06
-1.21679e-06
-1.22327e-06
-1.22977e-06
-1.23628e-06
-1.24281e-06
-1.24935e-06
-1.2559e-06
-1.26247e-06
-1.26905e-06
-1.27564e-06
-1.28224e-06
-1.28886e-06
-1.29549e-06
-1.30213e-06
-1.30878e-06
-1.31544e-06
-1.32211e-06
-1.32879e-06
-1.33547e-06
-1.34217e-06
-1.34887e-06
-1.35557e-06
-1.36228e-06
-1.369e-06
-1.37571e-06
-1.38243e-06
-1.38915e-06
-1.39587e-06
-1.40258e-06
-1.40929e-06
-1.416e-06
-1.4227e-06
-1.42939e-06
-1.43607e-06
-1.44273e-06
-1.44939e-06
-1.45602e-06
-1.46264e-06
-1.46923e-06
-1.4758e-06
-1.48235e-06
-1.48886e-06
-1.49535e-06
-1.5018e-06
-1.5082e-06
-1.51457e-06
-1.5209e-06
-1.52717e-06
-1.53339e-06
-1.53956e-06
-1.54567e-06
-1.55171e-06
-1.55769e-06
-1.56359e-06
-1.56941e-06
-1.57516e-06
-1.58081e-06
-1.58638e-06
-1.59184e-06
-1.59721e-06
-1.60247e-06
-1.60761e-06
-1.61264e-06
-1.61754e-06
-1.62231e-06
-1.62694e-06
-1.63144e-06
-1.63578e-06
-1.63997e-06
-1.644e-06
-1.64786e-06
-1.65155e-06
-1.65505e-06
-1.65837e-06
-1.6615e-06
-1.66442e-06
-1.66714e-06
-1.66965e-06
-1.67193e-06
-1.67399e-06
-1.67582e-06
-1.67741e-06
-1.67875e-06
-1.67985e-06
-1.68068e-06
-1.68126e-06
-1.68157e-06
-1.6816e-06
-1.68136e-06
-1.68083e-06
-1.68001e-06
-1.67891e-06
-1.6775e-06
-1.6758e-06
-1.6738e-06
-1.67149e-06
-1.66888e-06
-1.66595e-06
-1.66271e-06
-1.65917e-06
-1.65531e-06
-1.65113e-06
-1.64665e-06
-1.64185e-06
-1.63675e-06
-1.63134e-06
-1.62562e-06
-1.6196e-06
-1.61329e-06
-1.60669e-06
-1.5998e-06
-1.59263e-06
-1.58519e-06
-1.57748e-06
-1.56951e-06
-1.5613e-06
-1.55285e-06
-1.54416e-06
-1.53527e-06
-1.52616e-06
-1.51686e-06
-1.50739e-06
-1.49774e-06
-1.48794e-06
-1.47801e-06
-1.46795e-06
-1.45779e-06
-1.44754e-06
-1.43722e-06
-1.42685e-06
-1.41644e-06
-1.40602e-06
-1.39559e-06
-1.3852e-06
-1.37485e-06
-1.36456e-06
-1.35436e-06
-1.34427e-06
-1.3343e-06
-1.32449e-06
-1.31484e-06
-1.30539e-06
-1.29616e-06
-1.28717e-06
-1.27843e-06
-1.26998e-06
-1.26183e-06
-1.25401e-06
-1.24653e-06
-1.23943e-06
-1.23272e-06
-1.22641e-06
-1.22054e-06
-1.21512e-06
-1.21017e-06
-1.20571e-06
-1.20176e-06
-1.19834e-06
-1.19545e-06
-1.19314e-06
-1.19139e-06
-1.19024e-06
-1.18969e-06
-1.18977e-06
-1.19048e-06
-1.19183e-06
-1.19384e-06
-1.19652e-06
-1.19987e-06
-1.20391e-06
-1.20864e-06
-1.21407e-06
-1.22021e-06
-1.22706e-06
-1.23462e-06
-1.24291e-06
-1.25191e-06
-1.26164e-06
-1.27208e-06
-1.28325e-06
-1.29514e-06
-1.30775e-06
-1.32108e-06
-1.33512e-06
-1.34986e-06
-1.36531e-06
-1.38145e-06
-1.39828e-06
-1.41579e-06
-1.43398e-06
-1.45283e-06
-1.47233e-06
-1.49248e-06
-1.51326e-06
-1.53467e-06
-1.55669e-06
-1.57931e-06
-1.60252e-06
-1.62631e-06
-1.65066e-06
-1.67555e-06
-1.70099e-06
-1.72695e-06
-1.75342e-06
-1.78038e-06
-1.80783e-06
-1.83575e-06
-1.86413e-06
-1.89294e-06
-1.92219e-06
-1.95185e-06
-1.98192e-06
-2.01238e-06
-2.04321e-06
-2.07441e-06
-2.10597e-06
-2.13787e-06
-2.1701e-06
-2.20264e-06
-2.2355e-06
-2.26866e-06
-2.30211e-06
-2.33585e-06
-2.36985e-06
-2.40412e-06
-2.43865e-06
-2.47343e-06
-2.50846e-06
-2.54373e-06
-2.57923e-06
-2.61496e-06
-2.65092e-06
-2.68711e-06
-2.72351e-06
-2.76014e-06
-2.79698e-06
-2.83404e-06
-2.87132e-06
-2.90882e-06
-2.94654e-06
-2.98448e-06
-3.02265e-06
-3.06105e-06
-3.09969e-06
-3.13856e-06
-3.17768e-06
-3.21704e-06
-3.25667e-06
-3.29656e-06
-3.33671e-06
-3.3772e-06
-3.41785e-06
-3.4591e-06
-3.50001e-06
-3.5426e-06
-3.58282e-06
-3.62861e-06
-3.6651e-06
-3.71914e-06
-3.74432e-06
-3.81758e-06
-3.81707e-06
-3.92713e-06
-3.88192e-06
-4.04685e-06
-3.94355e-06
-4.16902e-06
-4.01202e-06
-4.28426e-06
-4.09467e-06
-4.38901e-06
-4.19428e-06
-4.47892e-06
-4.32229e-06
-4.53917e-06
-4.49307e-06
-4.5755e-06
-4.67835e-06
-4.6456e-06
-4.8461e-06
-4.71607e-06
-5.18428e-06
-4.45936e-06
-5.901e-06
-2.73605e-06
-5.03349e-06
-5.03349e-06
-0.146488
0.146488
0.0383107
0.0142343
0.0074562
0.0046728
0.00323045
0.00237611
0.00182615
0.00145165
0.00118577
0.000990248
0.000841912
0.000726543
0.000635103
0.000561097
0.000499378
0.000446202
0.000399491
0.000358351
0.000321931
0.000288517
0.000255683
0.000221443
0.000185539
0.000149868
0.000117672
9.19736e-05
7.4176e-05
6.3557e-05
5.77868e-05
5.40289e-05
4.99913e-05
4.44877e-05
3.74361e-05
2.94863e-05
2.15512e-05
1.44355e-05
8.64094e-06
4.33327e-06
1.41168e-06
-3.81018e-07
-1.35428e-06
-1.79577e-06
-1.93273e-06
-1.92229e-06
-1.85981e-06
-1.79474e-06
-1.74716e-06
-1.72087e-06
-1.71243e-06
-1.71632e-06
-1.72747e-06
-1.74213e-06
-1.75788e-06
-1.77339e-06
-1.78803e-06
-1.8016e-06
-1.81413e-06
-1.82573e-06
-1.83657e-06
-1.84677e-06
-1.85648e-06
-1.86578e-06
-1.87477e-06
-1.8835e-06
-1.89203e-06
-1.9004e-06
-1.90864e-06
-1.91678e-06
-1.92485e-06
-1.93285e-06
-1.94081e-06
-1.94874e-06
-1.95666e-06
-1.96456e-06
-1.97246e-06
-1.98036e-06
-1.98827e-06
-1.99619e-06
-2.00413e-06
-2.01208e-06
-2.02006e-06
-2.02805e-06
-2.03607e-06
-2.04411e-06
-2.05217e-06
-2.06025e-06
-2.06835e-06
-2.07647e-06
-2.08462e-06
-2.09278e-06
-2.10097e-06
-2.10918e-06
-2.1174e-06
-2.12565e-06
-2.13391e-06
-2.1422e-06
-2.1505e-06
-2.15882e-06
-2.16716e-06
-2.17552e-06
-2.1839e-06
-2.1923e-06
-2.20072e-06
-2.20915e-06
-2.21761e-06
-2.22608e-06
-2.23457e-06
-2.24308e-06
-2.25162e-06
-2.26017e-06
-2.26874e-06
-2.27732e-06
-2.28593e-06
-2.29456e-06
-2.3032e-06
-2.31187e-06
-2.32055e-06
-2.32925e-06
-2.33797e-06
-2.34671e-06
-2.35546e-06
-2.36423e-06
-2.37302e-06
-2.38183e-06
-2.39065e-06
-2.39949e-06
-2.40834e-06
-2.41721e-06
-2.42609e-06
-2.43498e-06
-2.44389e-06
-2.45281e-06
-2.46174e-06
-2.47068e-06
-2.47962e-06
-2.48858e-06
-2.49754e-06
-2.50651e-06
-2.51548e-06
-2.52446e-06
-2.53344e-06
-2.54241e-06
-2.55139e-06
-2.56036e-06
-2.56933e-06
-2.57829e-06
-2.58724e-06
-2.59618e-06
-2.6051e-06
-2.61401e-06
-2.6229e-06
-2.63177e-06
-2.64061e-06
-2.64943e-06
-2.65822e-06
-2.66697e-06
-2.67569e-06
-2.68437e-06
-2.69301e-06
-2.70159e-06
-2.71013e-06
-2.71861e-06
-2.72703e-06
-2.73539e-06
-2.74368e-06
-2.7519e-06
-2.76004e-06
-2.76809e-06
-2.77606e-06
-2.78393e-06
-2.79171e-06
-2.79938e-06
-2.80694e-06
-2.81439e-06
-2.82171e-06
-2.82891e-06
-2.83598e-06
-2.8429e-06
-2.84967e-06
-2.8563e-06
-2.86276e-06
-2.86906e-06
-2.87518e-06
-2.88112e-06
-2.88688e-06
-2.89245e-06
-2.89781e-06
-2.90296e-06
-2.90791e-06
-2.91263e-06
-2.91712e-06
-2.92138e-06
-2.92539e-06
-2.92916e-06
-2.93268e-06
-2.93593e-06
-2.93892e-06
-2.94163e-06
-2.94407e-06
-2.94622e-06
-2.94808e-06
-2.94965e-06
-2.95092e-06
-2.95189e-06
-2.95255e-06
-2.95289e-06
-2.95293e-06
-2.95264e-06
-2.95204e-06
-2.95112e-06
-2.94987e-06
-2.9483e-06
-2.9464e-06
-2.94418e-06
-2.94163e-06
-2.93876e-06
-2.93557e-06
-2.93207e-06
-2.92824e-06
-2.92411e-06
-2.91966e-06
-2.91492e-06
-2.90987e-06
-2.90454e-06
-2.89893e-06
-2.89303e-06
-2.88688e-06
-2.88046e-06
-2.8738e-06
-2.8669e-06
-2.85978e-06
-2.85244e-06
-2.84491e-06
-2.83718e-06
-2.82929e-06
-2.82124e-06
-2.81305e-06
-2.80473e-06
-2.79631e-06
-2.7878e-06
-2.77921e-06
-2.77057e-06
-2.7619e-06
-2.75322e-06
-2.74454e-06
-2.73589e-06
-2.72729e-06
-2.71876e-06
-2.71032e-06
-2.70199e-06
-2.69381e-06
-2.68578e-06
-2.67793e-06
-2.67029e-06
-2.66288e-06
-2.65571e-06
-2.64883e-06
-2.64224e-06
-2.63597e-06
-2.63005e-06
-2.62449e-06
-2.61932e-06
-2.61457e-06
-2.61024e-06
-2.60637e-06
-2.60297e-06
-2.60008e-06
-2.59769e-06
-2.59585e-06
-2.59456e-06
-2.59384e-06
-2.59371e-06
-2.59419e-06
-2.5953e-06
-2.59705e-06
-2.59945e-06
-2.60252e-06
-2.60627e-06
-2.61071e-06
-2.61587e-06
-2.62174e-06
-2.62833e-06
-2.63566e-06
-2.64373e-06
-2.65256e-06
-2.66213e-06
-2.67247e-06
-2.68358e-06
-2.69545e-06
-2.70809e-06
-2.72151e-06
-2.7357e-06
-2.75066e-06
-2.76639e-06
-2.78289e-06
-2.80015e-06
-2.81818e-06
-2.83696e-06
-2.85649e-06
-2.87677e-06
-2.89779e-06
-2.91954e-06
-2.94202e-06
-2.96521e-06
-2.9891e-06
-3.01369e-06
-3.03897e-06
-3.06492e-06
-3.09153e-06