# vtk DataFile Version 2.0
FlowField
ASCII
DATASET STRUCTURED_GRID
DIMENSIONS 400 1 200
POINTS 80000 float
0 0 0
0.08 0 0
0.16 0 0
0.24 0 0
0.32 0 0
0.4 0 0
0.48 0 0
0.56 0 0
0.64 0 0
0.72 0 0
0.8 0 0
0.88 0 0
0.96 0 0
1.04 0 0
1.12 0 0
1.2 0 0
1.28 0 0
1.36 0 0
1.44 0 0
1.52 0 0
1.6 0 0
1.68 0 0
1.76 0 0
1.84 0 0
1.92 0 0
2 0 0
2.08 0 0
2.16 0 0
2.24 0 0
2.32 0 0
2.4 0 0
2.48 0 0
2.56 0 0
2.64 0 0
2.72 0 0
2.8 0 0
2.88 0 0
2.96 0 0
3.04 0 0
3.12 0 0
3.2 0 0
3.28 0 0
3.36 0 0
3.44 0 0
3.52 0 0
3.6 0 0
3.68 0 0
3.76 0 0
3.84 0 0
3.92 0 0
4 0 0
4.08 0 0
4.16 0 0
4.24 0 0
4.32 0 0
4.4 0 0
4.48 0 0
4.56 0 0
4.64 0 0
4.72 0 0
4.8 0 0
4.88 0 0
4.96 0 0
5.04 0 0
5.12 0 0
5.2 0 0
5.28 0 0
5.36 0 0
5.44 0 0
5.52 0 0
5.6 0 0
5.68 0 0
5.76 0 0
5.84 0 0
5.92 0 0
6 0 0
6.08 0 0
6.16 0 0
6.24 0 0
6.32 0 0
6.4 0 0
6.48 0 0
6.56 0 0
6.64 0 0
6.72 0 0
6.8 0 0
6.88 0 0
6.96 0 0
7.04 0 0
7.12 0 0
7.2 0 0
7.28 0 0
7.36 0 0
7.44 0 0
7.52 0 0
7.6 0 0
7.68 0 0
7.76 0 0
7.84 0 0
7.92 0 0
8 0 0
8.08 0 0
8.16 0 0
8.24 0 0
8.32 0 0
8.4 0 0
8.48 0 0
8.56 0 0
8.64 0 0
8.72 0 0
8.8 0 0
8.88 0 0
8.96 0 0
9.04 0 0
9.12 0 0
9.2 0 0
9.28 0 0
9.36 0 0
9.44 0 0
9.52 0 0
9.6 0 0
9.68 0 0
9.76 0 0
9.84 0 0
9.92 0 0
10 0 0
10.08 0 0
10.16 0 0
10.24 0 0
10.32 0 0
10.4 0 0
10.48 0 0
10.56 0 0
10.64 0 0
10.72 0 0
10.8 0 0
10.88 0 0
10.96 0 0
11.04 0 0
11.12 0 0
11.2 0 0
11.28 0 0
11.36 0 0
11.44 0 0
11.52 0 0
11.6 0 0
11.68 0 0
11.76 0 0
11.84 0 0
11.92 0 0
12 0 0
12.08 0 0
12.16 0 0
12.24 0 0
12.32 0 0
12.4 0 0
12.48 0 0
12.56 0 0
12.64 0 0
12.72 0 0
12.8 0 0
12.88 0 0
12.96 0 0
13.04 0 0
13.12 0 0
13.2 0 0
13.28 0 0
13.36 0 0
13.44 0 0
13.52 0 0
13.6 0 0
13.68 0 0
13.76 0 0
13.84 0 0
13.92 0 0
14 0 0
14.08 0 0
14.16 0 0
14.24 0 0
14.32 0 0
14.4 0 0
14.48 0 0
14.56 0 0
14.64 0 0
14.72 0 0
14.8 0 0
14.88 0 0
14.96 0 0
15.04 0 0
15.12 0 0
15.2 0 0
15.28 0 0
15.36 0 0
15.44 0 0
15.52 0 0
15.6 0 0
15.68 0 0
15.76 0 0
15.84 0 0
15.92 0 0
16 0 0
16.08 0 0
16.16 0 0
16.24 0 0
16.32 0 0
16.4 0 0
16.48 0 0
16.56 0 0
16.64 0 0
16.72 0 0
16.8 0 0
16.88 0 0
16.96 0 0
17.04 0 0
17.12 0 0
17.2 0 0
17.28 0 0
17.36 0 0
17.44 0 0
17.52 0 0
17.6 0 0
17.68 0 0
17.76 0 0
17.84 0 0
17.92 0 0
18 0 0
18.08 0 0
18.16 0 0
18.24 0 0
18.32 0 0
18.4 0 0
18.48 0 0
18.56 0 0
18.64 0 0
18.72 0 0
18.8 0 0
18.88 0 0
18.96 0 0
19.04 0 0
19.12 0 0
19.2 0 0
19.28 0 0
19.36 0 0
19.44 0 0
19.52 0 0
19.6 0 0
19.68 0 0
19.76 0 0
19.84 0 0
19.92 0 0
20 0 0
20.08 0 0
20.16 0 0
20.24 0 0
20.32 0 0
20.4 0 0
20.48 0 0
20.56 0 0
20.64 0 0
20.72 0 0
20.8 0 0
20.88 0 0
20.96 0 0
21.04 0 0
21.12 0 0
21.2 0 0
21.28 0 0
21.36 0 0
21.44 0 0
21.52 0 0
21.6 0 0
21.68 0 0
21.76 0 0
21.84 0 0
21.92 0 0
22 0 0
22.08 0 0
22.16 0 0
22.24 0 0
22.32 0 0
22.4 0 0
22.48 0 0
22.56 0 0
22.64 0 0
22.72 0 0
22.8 0 0
22.88 0 0
22.96 0 0
23.04 0 0
23.12 0 0
23.2 0 0
23.28 0 0
23.36 0 0
23.44 0 0
23.52 0 0
23.6 0 0
23.68 0 0
23.76 0 0
23.84 0 0
23.92 0 0
24 0 0
24.08 0 0
24.16 0 0
24.24 0 0
24.32 0 0
24.4 0 0
24.48 0 0
24.56 0 0
24.64 0 0
24.72 0 0
24.8 0 0
24.88 0 0
24.96 0 0
25.04 0 0
25.12 0 0
25.2 0 0
25.28 0 0
25.36 0 0
25.44 0 0
25.52 0 0
25.6 0 0
25.68 0 0
25.76 0 0
25.84 0 0
25.92 0 0
26 0 0
26.08 0 0
26.16 0 0
26.24 0 0
26.32 0 0
26.4 0 0
26.48 0 0
26.56 0 0
26.64 0 0
26.72 0 0
26.8 0 0
26.88 0 0
26.96 0 0
27.04 0 0
27.12 0 0
27.2 0 0
27.28 0 0
27.36 0 0
27.44 0 0
27.52 0 0
27.6 0 0
27.68 0 0
27.76 0 0
27.84 0 0
27.92 0 0
28 0 0
28.08 0 0
28.16 0 0
28.24 0 0
28.32 0 0
28.4 0 0
28.48 0 0
28.56 0 0
28.64 0 0
28.72 0 0
28.8 0 0
28.88 0 0
28.96 0 0
29.04 0 0
29.12 0 0
29.2 0 0
29.28 0 0
29.36 0 0
29.44 0 0
29.52 0 0
29.6 0 0
29.68 0 0
29.76 0 0
29.84 0 0
29.92 0 0
30 0 0
30.08 0 0
30.16 0 0
30.24 0 0
30.32 0 0
30.4 0 0
30.48 0 0
30.56 0 0
30.64 0 0
30.72 0 0
30.8 0 0
30.88 0 0
30.96 0 0
31.04 0 0
31.12 0 0
31.2 0 0
31.28 0 0
31.36 0 0
31.44 0 0
31.52 0 0
31.6 0 0
31.68 0 0
31.76 0 0
31.84 0 0
31.92 0 0
0 0.005 0
0.08 0.005 0
0.16 0.005 0
0.24 0.005 0
0.32 0.005 0
0.4 0.005 0
0.48 0.005 0
0.56 0.005 0
0.64 0.005 0
0.72 0.005 0
0.8 0.005 0
0.88 0.005 0
0.96 0.005 0
1.04 0.005 0
1.12 0.005 0
1.2 0.005 0
1.28 0.005 0
1.36 0.005 0
1.44 0.005 0
1.52 0.005 0
1.6 0.005 0
1.68 0.005 0
1.76 0.005 0
1.84 0.005 0
1.92 0.005 0
2 0.005 0
2.08 0.005 0
2.16 0.005 0
2.24 0.005 0
2.32 0.005 0
2.4 0.005 0
2.48 0.005 0
2.56 0.005 0
2.64 0.005 0
2.72 0.005 0
2.8 0.005 0
2.88 0.005 0
2.96 0.005 0
3.04 0.005 0
3.12 0.005 0
3.2 0.005 0
3.28 0.005 0
3.36 0.005 0
3.44 0.005 0
3.52 0.005 0
3.6 0.005 0
3.68 0.005 0
3.76 0.005 0
3.84 0.005 0
3.92 0.005 0
4 0.005 0
4.08 0.005 0
4.16 0.005 0
4.24 0.005 0
4.32 0.005 0
4.4 0.005 0
4.48 0.005 0
4.56 0.005 0
4.64 0.005 0
4.72 0.005 0
4.8 0.005 0
4.88 0.005 0
4.96 0.005 0
5.04 0.005 0
5.12 0.005 0
5.2 0.005 0
5.28 0.005 0
5.36 0.005 0
5.44 0.005 0
5.52 0.005 0
5.6 0.005 0
5.68 0.005 0
5.76 0.005 0
5.84 0.005 0
5.92 0.005 0
6 0.005 0
6.08 0.005 0
6.16 0.005 0
6.24 0.005 0
6.32 0.005 0
6.4 0.005 0
6.48 0.005 0
6.56 0.005 0
6.64 0.005 0
6.72 0.005 0
6.8 0.005 0
6.88 0.005 0
6.96 0.005 0
7.04 0.005 0
7.12 0.005 0
7.2 0.005 0
7.28 0.005 0
7.36 0.005 0
7.44 0.005 0
7.52 0.005 0
7.6 0.005 0
7.68 0.005 0
7.76 0.005 0
7.84 0.005 0
7.92 0.005 0
8 0.005 0
8.08 0.005 0
8.16 0.005 0
8.24 0.005 0
8.32 0.005 0
8.4 0.005 0
8.48 0.005 0
8.56 0.005 0
8.64 0.005 0
8.72 0.005 0
8.8 0.005 0
8.88 0.005 0
8.96 0.005 0
9.04 0.005 0
9.12 0.005 0
9.2 0.005 0
9.28 0.005 0
9.36 0.005 0
9.44 0.005 0
9.52 0.005 0
9.6 0.005 0
9.68 0.005 0
9.76 0.005 0
9.84 0.005 0
9.92 0.005 0
10 0.005 0
10.08 0.005 0
10.16 0.005 0
10.24 0.005 0
10.32 0.005 0
10.4 0.005 0
10.48 0.005 0
10.56 0.005 0
10.64 0.005 0
10.72 0.005 0
10.8 0.005 0
10.88 0.005 0
10.96 0.005 0
11.04 0.005 0
11.12 0.005 0
11.2 0.005 0
11.28 0.005 0
11.36 0.005 0
11.44 0.005 0
11.52 0.005 0
11.6 0.005 0
11.68 0.005 0
11.76 0.005 0
11.84 0.005 0
11.92 0.005 0
12 0.005 0
12.08 0.005 0
12.16 0.005 0
12.24 0.005 0
12.32 0.005 0
12.4 0.005 0
12.48 0.005 0
12.56 0.005 0
12.64 0.005 0
12.72 0.005 0
12.8 0.005 0
12.88 0.005 0
12.96 0.005 0
13.04 0.005 0
13.12 0.005 0
13.2 0.005 0
13.28 0.005 0
13.36 0.005 0
13.44 0.005 0
13.52 0.005 0
13.6 0.005 0
13.68 0.005 0
13.76 0.005 0
13.84 0.005 0
13.92 0.005 0
14 0.005 0
14.08 0.005 0
14.16 0.005 0
14.24 0.005 0
14.32 0.005 0
14.4 0.005 0
14.48 0.005 0
14.56 0.005 0
14.64 0.005 0
14.72 0.005 0
14.8 0.005 0
14.88 0.005 0
14.96 0.005 0
15.04 0.005 0
15.12 0.005 0
15.2 0.005 0
15.28 0.005 0
15.36 0.005 0
15.44 0.005 0
15.52 0.005 0
15.6 0.005 0
15.68 0.005 0
15.76 0.005 0
15.84 0.005 0
15.92 0.005 0
16 0.005 0
16.08 0.005 0
16.16 0.005 0
16.24 0.005 0
16.32 0.005 0
16.4 0.005 0
16.48 0.005 0
16.56 0.005 0
16.64 0.005 0
16.72 0.005 0
16.8 0.005 0
16.88 0.005 0
16.96 0.005 0
17.04 0.005 0
17.12 0.005 0
17.2 0.005 0
17.28 0.005 0
17.36 0.005 0
17.44 0.005 0
17.52 0.005 0
17.6 0.005 0
17.68 0.005 0
17.76 0.005 0
17.84 0.005 0
17.92 0.005 0
18 0.005 0
18.08 0.005 0
18.16 0.005 0
18.24 0.005 0
18.32 0.005 0
18.4 0.005 0
18.48 0.005 0
18.56 0.005 0
18.64 0.005 0
18.72 0.005 0
18.8 0.005 0
18.88 0.005 0
18.96 0.005 0
19.04 0.005 0
19.12 0.005 0
19.2 0.005 0
19.28 0.005 0
19.36 0.005 0
19.44 0.005 0
19.52 0.005 0
19.6 0.005 0
19.68 0.005 0
19.76 0.005 0
19.84 0.005 0
19.92 0.005 0
20 0.005 0
20.08 0.005 0
20.16 0.005 0
20.24 0.005 0
20.32 0.005 0
20.4 0.005 0
20.48 0.005 0
20.56 0.005 0
20.64 0.005 0
20.72 0.005 0
20.8 0.005 0
20.88 0.005 0
20.96 0.005 0
21.04 0.005 0
21.12 0.005 0
21.2 0.005 0
21.28 0.005 0
21.36 0.005 0
21.44 0.005 0
21.52 0.005 0
21.6 0.005 0
21.68 0.005 0
21.76 0.005 0
21.84 0.005 0
21.92 0.005 0
22 0.005 0
22.08 0.005 0
22.16 0.005 0
22.24 0.005 0
22.32 0.005 0
22.4 0.005 0
22.48 0.005 0
22.56 0.005 0
22.64 0.005 0
22.72 0.005 0
22.8 0.005 0
22.88 0.005 0
22.96 0.005 0
23.04 0.005 0
23.12 0.005 0
23.2 0.005 0
23.28 0.005 0
23.36 0.005 0
23.44 0.005 0
23.52 0.005 0
23.6 0.005 0
23.68 0.005 0
23.76 0.005 0
23.84 0.005 0
23.92 0.005 0
24 0.005 0
24.08 0.005 0
24.16 0.005 0
24.24 0.005 0
24.32 0.005 0
24.4 0.005 0
24.48 0.005 0
24.56 0.005 0
24.64 0.005 0
24.72 0.005 0
24.8 0.005 0
24.88 0.005 0
24.96 0.005 0
25.04 0.005 0
25.12 0.005 0
25.2 0.005 0
25.28 0.005 0
25.36 0.005 0
25.44 0.005 0
25.52 0.005 0
25.6 0.005 0
25.68 0.005 0
25.76 0.005 0
25.84 0.005 0
25.92 0.005 0
26 0.005 0
26.08 0.005 0
26.16 0.005 0
26.24 0.005 0
26.32 0.005 0
26.4 0.005 0
26.48 0.005 0
26.56 0.005 0
26.64 0.005 0
26.72 0.005 0
26.8 0.005 0
26.88 0.005 0
26.96 0.005 0
27.04 0.005 0
27.12 0.005 0
27.2 0.005 0
27.28 0.005 0
27.36 0.005 0
27.44 0.005 0
27.52 0.005 0
27.6 0.005 0
27.68 0.005 0
27.76 0.005 0
27.84 0.005 0
27.92 0.005 0
28 0.005 0
28.08 0.005 0
28.16 0.005 0
28.24 0.005 0
28.32 0.005 0
28.4 0.005 0
28.48 0.005 0
28.56 0.005 0
28.64 0.005 0
28.72 0.005 0
28.8 0.005 0
28.88 0.005 0
28.96 0.005 0
29.04 0.005 0
29.12 0.005 0
29.2 0.005 0
29.28 0.005 0
29.36 0.005 0
29.44 0.005 0
29.52 0.005 0
29.6 0.005 0
29.68 0.005 0
29.76 0.005 0
29.84 0.005 0
29.92 0.005 0
30 0.005 0
30.08 0.005 0
30.16 0.005 0
30.24 0.005 0
30.32 0.005 0
30.4 0.005 0
30.48 0.005 0
30.56 0.005 0
30.64 0.005 0
30.72 0.005 0
30.8 0.005 0
30.88 0.005 0
30.96 0.005 0
31.04 0.005 0
31.12 0.005 0
31.2 0.005 0
31.28 0.005 0
31.36 0.005 0
31.44 0.005 0
31.52 0.005 0
31.6 0.005 0
31.68 0.005 0
31.76 0.005 0
31.84 0.005 0
31.92 0.005 0
0 0.01 0
0.08 0.01 0
0.16 0.01 0
0.24 0.01 0
0.32 0.01 0
0.4 0.01 0
0.48 0.01 0
0.56 0.01 0
0.64 0.01 0
0.72 0.01 0
0.8 0.01 0
0.88 0.01 0
0.96 0.01 0
1.04 0.01 0
1.12 0.01 0
1.2 0.01 0
1.28 0.01 0
1.36 0.01 0
1.44 0.01 0
1.52 0.01 0
1.6 0.01 0
1.68 0.01 0
1.76 0.01 0
1.84 0.01 0
1.92 0.01 0
2 0.01 0
2.08 0.01 0
2.16 0.01 0
2.24 0.01 0
2.32 0.01 0
2.4 0.01 0
2.48 0.01 0
2.56 0.01 0
2.64 0.01 0
2.72 0.01 0
2.8 0.01 0
2.88 0.01 0
2.96 0.01 0
3.04 0.01 0
3.12 0.01 0
3.2 0.01 0
3.28 0.01 0
3.36 0.01 0
3.44 0.01 0
3.52 0.01 0
3.6 0.01 0
3.68 0.01 0
3.76 0.01 0
3.84 0.01 0
3.92 0.01 0
4 0.01 0
4.08 0.01 0
4.16 0.01 0
4.24 0.01 0
4.32 0.01 0
4.4 0.01 0
4.48 0.01 0
4.56 0.01 0
4.64 0.01 0
4.72 0.01 0
4.8 0.01 0
4.88 0.01 0
4.96 0.01 0
5.04 0.01 0
5.12 0.01 0
[...]
POINT_DATA 80000

SCALARS u float 1
LOOKUP_TABLE default
0
-0.131663
-0.0682699
-0.052297
-0.0444212
-0.0395785
-0.0362618
-0.0338354
-0.0319761
-0.0305005
-0.029296
-0.0282897
-0.0274327
-0.026691
-0.026041
-0.0254658
-0.0249524
-0.0244906
-0.0240728
-0.0236934
-0.0233486
-0.0230357
-0.0227525
-0.0224972
-0.0222684
-0.0220663
-0.0218918
-0.0217461
-0.0216283
-0.0215355
-0.0214622
-0.0214019
-0.0213489
-0.0212991
-0.0212512
-0.0212056
-0.0211639
-0.0211279
-0.0210986
-0.0210766
-0.0210613
-0.0210517
-0.0210466
-0.0210447
-0.0210449
-0.0210463
-0.0210484
-0.0210508
-0.0210533
-0.0210558
-0.0210582
-0.0210607
-0.0210631
-0.0210655
-0.0210679
-0.0210704
-0.0210729
-0.0210754
-0.0210779
-0.0210804
-0.021083
-0.0210856
-0.0210882
-0.0210908
-0.0210934
-0.021096
-0.0210987
-0.0211014
-0.0211041
-0.0211068
-0.0211095
-0.0211122
-0.021115
-0.0211177
-0.0211205
-0.0211233
-0.0211261
-0.0211289
-0.0211317
-0.0211345
-0.0211374
-0.0211402
-0.0211431
-0.021146
-0.0211489
-0.0211518
-0.0211547
-0.0211576
-0.0211605
-0.0211635
-0.0211664
-0.0211694
-0.0211723
-0.0211753
-0.0211783
-0.0211813
-0.0211843
-0.0211873
-0.0211903
-0.0211933
-0.0211963
-0.0211993
-0.0212023
-0.0212053
-0.0212084
-0.0212114
-0.0212144
-0.0212174
-0.0212205
-0.0212235
-0.0212265
-0.0212296
-0.0212326
-0.0212356
-0.0212386
-0.0212417
-0.0212447
-0.0212477
-0.0212507
-0.0212537
-0.0212567
-0.0212597
-0.0212627
-0.0212656
-0.0212686
-0.0212716
-0.0212745
-0.0212775
-0.0212804
-0.0212833
-0.0212863
-0.0212892
-0.0212921
-0.021295
-0.0212979
-0.0213007
-0.0213036
-0.0213065
-0.0213093
-0.0213121
-0.0213149
-0.0213178
-0.0213206
-0.0213233
-0.0213261
-0.0213289
-0.0213316
-0.0213344
-0.0213371
-0.0213398
-0.0213425
-0.0213452
-0.0213479
-0.0213506
-0.0213533
-0.0213559
-0.0213586
-0.0213612
-0.0213638
-0.0213664
-0.021369
-0.0213716
-0.0213742
-0.0213768
-0.0213793
-0.0213819
-0.0213844
-0.021387
-0.0213895
-0.021392
-0.0213945
-0.021397
-0.0213995
-0.021402
-0.0214045
-0.021407
-0.0214094
-0.0214119
-0.0214144
-0.0214168
-0.0214193
-0.0214217
-0.0214241
-0.0214266
-0.021429
-0.0214314
-0.0214339
-0.0214363
-0.0214387
-0.0214411
-0.0214435
-0.0214459
-0.0214483
-0.0214507
-0.0214532
-0.0214556
-0.021458
-0.0214604
-0.0214628
-0.0214652
-0.0214676
-0.02147
-0.0214724
-0.0214748
-0.0214772
-0.0214796
-0.021482
-0.0214844
-0.0214868
-0.0214892
-0.0214916
-0.021494
-0.0214964
-0.0214988
-0.0215012
-0.0215037
-0.0215061
-0.0215085
-0.0215109
-0.0215134
-0.0215158
-0.0215182
-0.0215206
-0.0215231
-0.0215255
-0.021528
-0.0215304
-0.0215329
-0.0215353
-0.0215378
-0.0215402
-0.0215427
-0.0215452
-0.0215476
-0.0215501
-0.0215526
-0.0215551
-0.0215576
-0.02156
-0.0215625
-0.021565
-0.0215675
-0.02157
-0.0215725
-0.021575
-0.0215776
-0.0215801
-0.0215826
-0.0215851
-0.0215876
-0.0215902
-0.0215927
-0.0215952
-0.0215978
-0.0216003
-0.0216029
-0.0216054
-0.021608
-0.0216106
-0.0216131
-0.0216157
-0.0216183
-0.0216209
-0.0216234
-0.021626
-0.0216286
-0.0216312
-0.0216338
-0.0216364
-0.021639
-0.0216416
-0.0216442
-0.0216468
-0.0216495
-0.0216521
-0.0216547
-0.0216573
-0.02166
-0.0216626
-0.0216652
-0.0216679
-0.0216705
-0.0216732
-0.0216759
-0.0216785
-0.0216812
-0.0216838
-0.0216865
-0.0216892
-0.0216919
-0.0216946
-0.0216972
-0.0216999
-0.0217026
-0.0217053
-0.021708
-0.0217107
-0.0217134
-0.0217162
-0.0217189
-0.0217216
-0.0217243
-0.021727
-0.0217298
-0.0217325
-0.0217353
-0.021738
-0.0217407
-0.0217435
-0.0217462
-0.021749
-0.0217518
-0.0217545
-0.0217573
-0.0217601
-0.0217629
-0.0217656
-0.0217684
-0.0217712
-0.021774
-0.0217768
-0.0217796
-0.0217824
-0.0217852
-0.021788
-0.0217908
-0.0217937
-0.0217965
-0.0217993
-0.0218021
-0.021805
-0.0218078
-0.0218106
-0.0218135
-0.0218163
-0.0218192
-0.0218221
-0.0218249
-0.0218278
-0.0218307
-0.0218335
-0.0218364
-0.0218393
-0.0218422
-0.0218451
-0.021848
-0.0218509
-0.0218538
-0.0218567
-0.0218596
-0.0218625
-0.0218654
-0.0218683
-0.0218713
-0.0218742
-0.0218771
-0.0218801
-0.021883
-0.021886
-0.0218889
-0.0218919
-0.0218948
-0.0218978
-0.0219008
-0.0219037
-0.0219067
-0.0219097
-0.0219127
-0.0219157
-0.0219187
-0.0219217
-0.0219247
-0.0219277
-0.0219307
-0.0219337
-0.0219368
-0.0219397
-0.0219428
-0.0219457
-0.0219489
-0.0219518
-0.021955
-0.0219579
-0.0219611
-0.0219641
-0.0219672
-0.0219702
-0.0219734
-0.0219764
-0.0219796
-0.0219826
-0.0219858
-0.021989
-0.021992
-0.0219956
-0.021998
-0.0220024
-0.0219997
-0.0219997
-0.0219997
1
0.131663
0.0682699
0.052297
0.0444212
0.0395785
0.0362618
0.0338354
0.0319761
0.0305005
0.029296
0.0282897
0.0274327
0.026691
0.026041
0.0254658
0.0249524
0.0244906
0.0240728
0.0236934
0.0233486
0.0230357
0.0227525
0.0224972
0.0222684
0.0220663
0.0218918
0.0217461
0.0216283
0.0215355
0.0214622
0.0214019
0.0213489
0.0212991
0.0212512
0.0212056
0.0211639
0.0211279
0.0210986
0.0210766
0.0210613
0.0210517
0.0210466
0.0210447
0.0210449
0.0210463
0.0210484
0.0210508
0.0210533
0.0210558
0.0210582
0.0210607
0.0210631
0.0210655
0.0210679
0.0210704
0.0210729
0.0210754
0.0210779
0.0210804
0.021083
0.0210856
0.0210882
0.0210908
0.0210934
0.021096
0.0210987
0.0211014
0.0211041
0.0211068
0.0211095
0.0211122
0.021115
0.0211177
0.0211205
0.0211233
0.0211261
0.0211289
0.0211317
0.0211345
0.0211374
0.0211402
0.0211431
0.021146
0.0211489
0.0211518
0.0211547
0.0211576
0.0211605
0.0211635
0.0211664
0.0211694
0.0211723
0.0211753
0.0211783
0.0211813
0.0211843
0.0211873
0.0211903
0.0211933
0.0211963
0.0211993
0.0212023
0.0212053
0.0212084
0.0212114
0.0212144
0.0212174
0.0212205
0.0212235
0.0212265
0.0212296
0.0212326
0.0212356
0.0212386
0.0212417
0.0212447
0.0212477
0.0212507
0.0212537
0.0212567
0.0212597
0.0212627
0.0212656
0.0212686
0.0212716
0.0212745
0.0212775
0.0212804
0.0212833
0.0212863
0.0212892
0.0212921
0.021295
0.0212979
0.0213007
0.0213036
0.0213065
0.0213093
0.0213121
0.0213149
0.0213178
0.0213206
0.0213233
0.0213261
0.0213289
0.0213316
0.0213344
0.0213371
0.0213398
0.0213425
0.0213452
0.0213479
0.0213506
0.0213533
0.0213559
0.0213586
0.0213612
0.0213638
0.0213664
0.021369
0.0213716
0.0213742
0.0213768
0.0213793
0.0213819
0.0213844
0.021387
0.0213895
0.021392
0.0213945
0.021397
0.0213995
0.021402
0.0214045
0.021407
0.0214094
0.0214119
0.0214144
0.0214168
0.0214193
0.0214217
0.0214241
0.0214266
0.021429
0.0214314
0.0214339
0.0214363
0.0214387
0.0214411
0.0214435
0.0214459
0.0214483
0.0214507
0.0214532
0.0214556
0.021458
0.0214604
0.0214628
0.0214652
0.0214676
0.02147
0.0214724
0.0214748
0.0214772
0.0214796
0.021482
0.0214844
0.0214868
0.0214892
0.0214916
0.021494
0.0214964
0.0214988
0.0215012
0.0215037
0.0215061
0.0215085
0.0215109
0.0215134
0.0215158
0.0215182
0.0215206
0.0215231
0.0215255
0.021528
0.0215304
0.0215329
0.0215353
0.0215378
0.0215402
0.0215427
0.0215452
0.0215476
0.0215501
0.0215526
0.0215551
0.0215576
0.02156
0.0215625
0.021565
0.0215675
0.02157
0.0215725
0.021575
0.0215776
0.0215801
0.0215826
0.0215851
0.0215876
0.0215902
0.0215927
0.0215952
0.0215978
0.0216003
0.0216029
0.0216054
0.021608
0.0216106
0.0216131
0.0216157
0.0216183
0.0216209
0.0216234
0.021626
0.0216286
0.0216312
0.0216338
0.0216364
0.021639
0.0216416
0.0216442
0.0216468
0.0216495
0.0216521
0.0216547
0.0216573
0.02166
0.0216626
0.0216652
0.0216679
0.0216705
0.0216732
0.0216759
0.0216785
0.0216812
0.0216838
0.0216865
0.0216892
0.0216919
0.0216946
0.0216972
0.0216999
0.0217026
0.0217053
0.021708
0.0217107
0.0217134
0.0217162
0.0217189
0.0217216
0.0217243
0.021727
0.0217298
0.0217325
0.0217353
0.021738
0.0217407
0.0217435
0.0217462
0.021749
0.0217518
0.0217545
0.0217573
0.0217601
0.0217629
0.0217656
0.0217684
0.0217712
0.021774
0.0217768
0.0217796
0.0217824
0.0217852
0.021788
0.0217908
0.0217937
0.0217965
0.0217993
0.0218021
0.021805
0.0218078
0.0218106
0.0218135
0.0218163
0.0218192
0.0218221
0.0218249
0.0218278
0.0218307
0.0218335
0.0218364
0.0218393
0.0218422
0.0218451
0.021848
0.0218509
0.0218538
0.0218567
0.0218596
0.0218625
0.0218654
0.0218683
0.0218713
0.0218742
0.0218771
0.0218801
0.021883
0.021886
0.0218889
0.0218919
0.0218948
0.0218978
0.0219008
0.0219037
0.0219067
0.0219097
0.0219127
0.0219157
0.0219187
0.0219217
0.0219247
0.0219277
0.0219307
0.0219337
0.0219368
0.0219397
0.0219428
0.0219457
0.0219489
0.0219518
0.021955
0.0219579
0.0219611
0.0219641
0.0219672
0.0219702
0.0219734
0.0219764
0.0219796
0.0219826
0.0219858
0.021989
0.021992
0.0219956
0.021998
0.0220024
0.0219997
0.0219997
0.0219997
1
0.344885
0.200669
0.15497
0.131898
0.117603
0.107774
0.100566
0.0950348
0.0906421
0.0870556
0.0840598
0.081509
0.079303
0.0773713
0.0756626
0.0741384
0.0727687
0.0715307
0.0704081
0.0693896
0.0684669
0.0676332
0.0668831
0.0662139
0.0656261
0.0651223
0.0647036
0.0643659
0.0640985
0.0638848
0.0637066
0.0635482
0.0634
0.0632588
0.0631267
0.063008
0.0629073
0.062827
0.0627675
0.0627271
0.0627024
0.0626899
0.0626859
0.0626873
0.0626919
0.0626982
0.0627051
0.0627123
0.0627195
0.0627265
0.0627335
0.0627405
0.0627475
0.0627545
0.0627615
0.0627686
0.0627758
0.062783
0.0627903
0.0627976
0.062805
0.0628124
0.0628198
0.0628273
0.0628349
0.0628425
0.0628501
0.0628578
0.0628655
0.0628732
0.062881
0.0628888
0.0628966
0.0629045
0.0629124
0.0629204
0.0629284
0.0629364
0.0629444
0.0629525
0.0629606
0.0629688
0.062977
0.0629852
0.0629934
0.0630017
0.06301
0.0630184
0.0630267
0.0630351
0.0630435
0.063052
0.0630604
0.0630689
0.0630775
0.063086
0.0630946
0.0631031
0.0631117
0.0631204
0.063129
0.0631376
0.0631463
0.063155
0.0631637
0.0631724
0.0631811
0.0631898
0.0631985
0.0632073
0.063216
0.0632248
0.0632335
0.0632423
0.063251
0.0632598
0.0632685
0.0632773
0.063286
0.0632947
0.0633035
0.0633122
0.0633209
0.0633296
0.0633383
0.063347
0.0633556
0.0633643
0.0633729
0.0633816
0.0633902
0.0633988
0.0634073
0.0634159
0.0634244
0.0634329
0.0634414
0.0634499
0.0634583
0.0634668
0.0634752
0.0634835
0.0634919
0.0635002
0.0635085
0.0635168
0.0635251
0.0635333
0.0635415
0.0635497
0.0635578
0.063566
0.0635741
0.0635821
0.0635902
0.0635982
0.0636062
0.0636142
0.0636221
0.0636301
0.063638
0.0636458
0.0636537
0.0636615
0.0636693
0.0636771
0.0636849
0.0636926
0.0637003
0.063708
0.0637157
0.0637233
0.063731
0.0637386
0.0637462
0.0637537
0.0637613
0.0637689
0.0637764
0.0637839
0.0637914
0.0637989
0.0638063
0.0638138
0.0638213
0.0638287
0.0638361
0.0638435
0.0638509
0.0638583
0.0638657
0.0638731
0.0638804
0.0638878
0.0638952
0.0639025
0.0639099
0.0639172
0.0639245
0.0639319
0.0639392
0.0639465
0.0639538
0.0639612
0.0639685
0.0639758
0.0639831
0.0639905
0.0639978
0.0640051
0.0640124
0.0640198
0.0640271
0.0640344
0.0640418
0.0640491
0.0640565
0.0640638
0.0640712
0.0640785
0.0640859
0.0640932
0.0641006
0.064108
0.0641154
0.0641228
0.0641302
0.0641376
0.064145
0.0641524
0.0641598
0.0641673
0.0641747
0.0641822
0.0641896
0.0641971
0.0642045
0.064212
0.0642195
0.064227
0.0642345
0.064242
0.0642496
0.0642571
0.0642646
0.0642722
0.0642797
0.0642873
0.0642949
0.0643025
0.0643101
0.0643177
0.0643253
0.0643329
0.0643406
0.0643482
0.0643559
0.0643635
0.0643712
0.0643789
0.0643866
0.0643943
0.064402
0.0644097
0.0644175
0.0644252
0.064433
0.0644407
0.0644485
0.0644563
0.0644641
0.0644719
0.0644797
0.0644875
0.0644954
0.0645032
0.0645111
0.064519
0.0645268
0.0645347
0.0645426
0.0645505
0.0645584
0.0645664
0.0645743
0.0645823
0.0645902
0.0645982
0.0646062
0.0646141
0.0646221
0.0646302
0.0646382
0.0646462
0.0646542
0.0646623
0.0646704
0.0646784
0.0646865
0.0646946
0.0647027
0.0647108
0.0647189
0.0647271
0.0647352
0.0647434
0.0647515
0.0647597
0.0647679
0.0647761
0.0647843
0.0647925
0.0648008
0.064809
0.0648172
0.0648255
0.0648338
0.0648421
0.0648504
0.0648587
0.064867
0.0648753
0.0648836
0.064892
0.0649003
0.0649087
0.0649171
0.0649255
0.0649339
0.0649423
0.0649507
0.0649591
0.0649676
0.064976
0.0649845
0.064993
0.0650015
0.06501
0.0650185
0.065027
0.0650355
0.0650441
0.0650526
0.0650612
0.0650698
0.0650784
0.065087
0.0650956
0.0651042
0.0651128
0.0651215
0.0651301
0.0651388
0.0651475
0.0651562
0.0651649
0.0651736
0.0651823
0.0651911
0.0651998
0.0652086
0.0652174
0.0652261
0.0652349
0.0652438
0.0652526
0.0652614
0.0652702
0.0652791
0.065288
0.0652969
0.0653057
0.0653148
0.0653235
0.0653327
0.0653413
0.0653506
0.0653592
0.0653686
0.0653772
0.0653866
0.0653952
0.0654047
0.0654134
0.0654227
0.0654316
0.0654409
0.0654499
0.0654591
0.0654682
0.0654775
0.0654869
0.0654958
0.0655063
0.0655138
0.0655263
0.0655206
0.0655206
0.0655206
1
0.518767
0.327404
0.255351
0.217854
0.194411
0.178221
0.166319
0.157174
0.149905
0.143968
0.139008
0.134786
0.131137
0.127942
0.125118
0.1226
0.120338
0.118295
0.116445
0.114768
0.113251
0.111882
0.110652
0.109558
0.108601
0.107785
0.107109
0.106565
0.106131
0.105782
0.105487
0.105224
0.104978
0.104746
0.104532
0.104342
0.104183
0.104058
0.103966
0.103905
0.103869
0.103851
0.103846
0.103849
0.103858
0.103868
0.103879
0.103891
0.103903
0.103914
0.103925
0.103937
0.103948
0.103959
0.103971
0.103982
0.103994
0.104005
0.104017
0.104029
0.104041
0.104053
0.104065
0.104077
0.104089
0.104101
0.104113
0.104126
0.104138
0.10415
0.104163
0.104175
0.104188
0.104201
0.104213
0.104226
0.104239
0.104252
0.104265
0.104278
0.104291
0.104304
0.104317
0.10433
0.104343
0.104357
0.10437
0.104383
0.104397
0.10441
0.104424
0.104437
0.104451
0.104464
0.104478
0.104492
0.104505
0.104519
0.104533
0.104547
0.104561
0.104575
0.104588
0.104602
0.104616
0.10463
0.104644
0.104658
0.104673
0.104687
0.104701
0.104715
0.104729
0.104743
0.104757
0.104771
0.104786
0.1048
0.104814
0.104828
0.104842
0.104856
0.10487
0.104885
0.104899
0.104913
0.104927
0.104941
0.104955
0.104969
0.104983
0.104997
0.105012
0.105026
0.10504
0.105053
0.105067
0.105081
0.105095
0.105109
0.105123
0.105137
0.105151
0.105164
0.105178
0.105192
0.105205
0.105219
0.105233
0.105246
0.10526
0.105273
0.105287
0.1053
0.105314
0.105327
0.10534
0.105354
0.105367
0.10538
0.105393
0.105406
0.10542
0.105433
0.105446
0.105459
0.105472
0.105485
0.105498
0.105511
0.105523
0.105536
0.105549
0.105562
0.105575
0.105587
0.1056
0.105613
0.105625
0.105638
0.105651
0.105663
0.105676
0.105688
0.105701
0.105713
0.105726
0.105738
0.105751
0.105763
0.105776
0.105788
0.1058
0.105813
0.105825
0.105838
0.10585
0.105862
0.105875
0.105887
0.105899
0.105912
0.105924
0.105936
0.105948
0.105961
0.105973
0.105985
0.105998
0.10601
0.106022
0.106034
0.106047
0.106059
0.106071
0.106084
0.106096
0.106108
0.106121
0.106133
0.106145
0.106157
0.10617
0.106182
0.106194
0.106207
0.106219
0.106232
0.106244
0.106256
0.106269
0.106281
0.106294
0.106306
0.106318
0.106331
0.106343
0.106356
0.106368
0.106381
0.106393
0.106406
0.106418
0.106431
0.106443
0.106456
0.106468
0.106481
0.106494
0.106506
0.106519
0.106532
0.106544
0.106557
0.10657
0.106582
0.106595
0.106608
0.10662
0.106633
0.106646
0.106659
0.106671
0.106684
0.106697
0.10671
0.106723
0.106736
0.106749
0.106761
0.106774
0.106787
0.1068
0.106813
0.106826
0.106839
0.106852
0.106865
0.106878
0.106891
0.106904
0.106917
0.106931
0.106944
0.106957
0.10697
0.106983
0.106996
0.107009
0.107023
0.107036
0.107049
0.107062
0.107076
0.107089
0.107102
0.107116
0.107129
0.107142
0.107156
0.107169
0.107182
0.107196
0.107209
0.107223
0.107236
0.10725
0.107263
0.107277
0.10729
0.107304
0.107317
0.107331
0.107344
0.107358
0.107372
0.107385
0.107399
0.107413
0.107426
0.10744
0.107454
0.107468
0.107481
0.107495
0.107509
0.107523
0.107537
0.10755
0.107564
0.107578
0.107592
0.107606
0.10762
0.107634
0.107648
0.107662
0.107676
0.10769
0.107704
0.107718
0.107732
0.107746
0.10776
0.107774
0.107788
0.107803
0.107817
0.107831
0.107845
0.107859
0.107874
0.107888
0.107902
0.107916
0.107931
0.107945
0.107959
0.107974
0.107988
0.108003
0.108017
0.108032
0.108046
0.10806
0.108075
0.10809
0.108104
0.108119
0.108133
0.108148
0.108162
0.108177
0.108192
0.108207
0.108221
0.108236
0.10825
0.108266
0.10828
0.108295
0.108309
0.108325
0.108339
0.108355
0.108369
0.108384
0.108399
0.108414
0.108429
0.108444
0.10846
0.108474
0.108492
0.108504
0.108524
0.108518
0.108518
0.108518
1
0.660889
0.446897
0.352883
0.302036
0.269859
0.247513
0.231034
0.218348
0.208254
0.200005
0.193113
0.187247
0.182177
0.177741
0.17382
0.170325
0.167188
0.164357
0.161795
0.159476
0.157379
0.155488
0.153793
0.152289
0.150978
0.149864
0.148944
0.148203
0.14761
0.147128
0.146718
0.146351
0.146009
0.145688
0.145395
0.145139
0.144926
0.144762
0.144643
0.144564
0.144519
0.144497
0.144493
0.144498
0.14451
0.144524
0.14454
0.144556
0.144572
0.144587
0.144603
0.144618
0.144634
0.144649
0.144665
0.14468
0.144696
0.144712
0.144728
0.144744
0.14476
0.144776
0.144793
0.144809
0.144826
0.144842
0.144859
0.144876
0.144892
0.144909
0.144926
0.144943
0.14496
0.144977
0.144995
0.145012
0.145029
0.145047
0.145064
0.145082
0.145099
0.145117
0.145135
0.145152
0.14517
0.145188
0.145206
0.145224
0.145242
0.14526
0.145279
0.145297
0.145315
0.145334
0.145352
0.145371
0.145389
0.145408
0.145426
0.145445
0.145464
0.145483
0.145502
0.14552
0.145539
0.145558
0.145577
0.145596
0.145615
0.145634
0.145654
0.145673
0.145692
0.145711
0.14573
0.145749
0.145769
0.145788
0.145807
0.145826
0.145846
0.145865
0.145884
0.145904
0.145923
0.145942
0.145961
0.145981
0.146
0.146019
0.146039
0.146058
0.146077
0.146096
0.146115
0.146135
0.146154
0.146173
0.146192
0.146211
0.14623
0.146249
0.146268
0.146287
0.146306
0.146325
0.146344
0.146363
0.146382
0.1464
0.146419
0.146438
0.146456
0.146475
0.146494
0.146512
0.146531
0.146549
0.146568
0.146586
0.146604
0.146623
0.146641
0.146659
0.146678
0.146696
0.146714
0.146732
0.14675
0.146768
0.146786
0.146804
0.146822
0.14684
0.146858
0.146876
0.146893
0.146911
0.146929
0.146947
0.146964
0.146982
0.147
0.147017
0.147035
0.147052
0.14707
0.147087
0.147105
0.147122
0.14714
0.147157
0.147175
0.147192
0.147209
0.147227
0.147244
0.147261
0.147279
0.147296
0.147313
0.147331
0.147348
0.147365
0.147382
0.1474
0.147417
0.147434
0.147451
0.147469
0.147486
0.147503
0.14752
0.147537
0.147555
0.147572
0.147589
0.147606
0.147624
0.147641
0.147658
0.147675
0.147693
0.14771
0.147727
0.147744
0.147762
0.147779
0.147796
0.147814
0.147831
0.147848
0.147866
0.147883
0.1479
0.147918
0.147935
0.147952
0.14797
0.147987
0.148005
0.148022
0.14804
0.148057
0.148075
0.148092
0.14811
0.148127
0.148145
0.148162
0.14818
0.148197
0.148215
0.148233
0.14825
0.148268
0.148286
0.148303
0.148321
0.148339
0.148357
0.148374
0.148392
0.14841
0.148428
0.148446
0.148464
0.148481
0.148499
0.148517
0.148535
0.148553
0.148571
0.148589
0.148607
0.148625
0.148643
0.148661
0.148679
0.148698
0.148716
0.148734
0.148752
0.14877
0.148788
0.148807
0.148825
0.148843
0.148861
0.14888
0.148898
0.148916
0.148935
0.148953
0.148972
0.14899
0.149009
0.149027
0.149046
0.149064
0.149083
0.149101
0.14912
0.149138
0.149157
0.149176
0.149194
0.149213
0.149232
0.14925
0.149269
0.149288
0.149307
0.149325
0.149344
0.149363
0.149382
0.149401
0.14942
0.149439
0.149458
0.149477
0.149496
0.149515
0.149534
0.149553
0.149572
0.149591
0.14961
0.149629
0.149649
0.149668
0.149687
0.149706
0.149725
0.149745
0.149764
0.149783
0.149803
0.149822
0.149842
0.149861
0.14988
0.1499
0.149919
0.149939
0.149958
0.149978
0.149998
0.150017
0.150037
0.150057
0.150076
0.150096
0.150116
0.150135
0.150155
0.150175
0.150195
0.150215
0.150235
0.150254
0.150274
0.150294
0.150314
0.150334
0.150354
0.150374
0.150394
0.150414
0.150435
0.150455
0.150475
0.150495
0.150516
0.150535
0.150556
0.150576
0.150597
0.150616
0.150638
0.150657
0.150678
0.150698
0.150719
0.150739
0.15076
0.150781
0.150802
0.150822
0.150843
0.150864
0.150884
0.150908
0.150925
0.150952
0.150947
0.150947
0.150947
1
0.776804
0.557828
0.446883
0.384109
0.343754
0.315525
0.294623
0.278494
0.265642
0.25513
0.246343
0.238864
0.232401
0.226747
0.221752
0.2173
0.213306
0.209703
0.206446
0.2035
0.200838
0.19844
0.196292
0.194391
0.19274
0.191341
0.190188
0.189258
0.188511
0.187899
0.187375
0.186903
0.186465
0.186058
0.185689
0.18537
0.185109
0.184909
0.184766
0.184673
0.18462
0.184596
0.184592
0.184601
0.184616
0.184635
0.184654
0.184674
0.184694
0.184714
0.184733
0.184753
0.184772
0.184791
0.184811
0.18483
0.18485
0.18487
0.18489
0.18491
0.184931
0.184951
0.184971
0.184992
0.185013
0.185033
0.185054
0.185075
0.185096
0.185117