# vtk DataFile Version 2.0
FlowField
ASCII
DATASET STRUCTURED_GRID
DIMENSIONS 400 1 200
POINTS 80000 float
0 0 0
0.08 0 0
0.16 0 0
0.24 0 0
0.32 0 0
0.4 0 0
0.48 0 0
0.56 0 0
0.64 0 0
0.72 0 0
0.8 0 0
0.88 0 0
0.96 0 0
1.04 0 0
1.12 0 0
1.2 0 0
1.28 0 0
1.36 0 0
1.44 0 0
1.52 0 0
1.6 0 0
1.68 0 0
1.76 0 0
1.84 0 0
1.92 0 0
2 0 0
2.08 0 0
2.16 0 0
2.24 0 0
2.32 0 0
2.4 0 0
2.48 0 0
2.56 0 0
2.64 0 0
2.72 0 0
2.8 0 0
2.88 0 0
2.96 0 0
3.04 0 0
3.12 0 0
3.2 0 0
3.28 0 0
3.36 0 0
3.44 0 0
3.52 0 0
3.6 0 0
3.68 0 0
3.76 0 0
3.84 0 0
3.92 0 0
4 0 0
4.08 0 0
4.16 0 0
4.24 0 0
4.32 0 0
4.4 0 0
4.48 0 0
4.56 0 0
4.64 0 0
4.72 0 0
4.8 0 0
4.88 0 0
4.96 0 0
5.04 0 0
5.12 0 0
5.2 0 0
5.28 0 0
5.36 0 0
5.44 0 0
5.52 0 0
5.6 0 0
5.68 0 0
5.76 0 0
5.84 0 0
5.92 0 0
6 0 0
6.08 0 0
6.16 0 0
6.24 0 0
6.32 0 0
6.4 0 0
6.48 0 0
6.56 0 0
6.64 0 0
6.72 0 0
6.8 0 0
6.88 0 0
6.96 0 0
7.04 0 0
7.12 0 0
7.2 0 0
7.28 0 0
7.36 0 0
7.44 0 0
7.52 0 0
7.6 0 0
7.68 0 0
7.76 0 0
7.84 0 0
7.92 0 0
8 0 0
8.08 0 0
8.16 0 0
8.24 0 0
8.32 0 0
8.4 0 0
8.48 0 0
8.56 0 0
8.64 0 0
8.72 0 0
8.8 0 0
8.88 0 0
8.96 0 0
9.04 0 0
9.12 0 0
9.2 0 0
9.28 0 0
9.36 0 0
9.44 0 0
9.52 0 0
9.6 0 0
9.68 0 0
9.76 0 0
9.84 0 0
9.92 0 0
10 0 0
10.08 0 0
10.16 0 0
10.24 0 0
10.32 0 0
10.4 0 0
10.48 0 0
10.56 0 0
10.64 0 0
10.72 0 0
10.8 0 0
10.88 0 0
10.96 0 0
11.04 0 0
11.12 0 0
11.2 0 0
11.28 0 0
11.36 0 0
11.44 0 0
11.52 0 0
11.6 0 0
11.68 0 0
11.76 0 0
11.84 0 0
11.92 0 0
12 0 0
12.08 0 0
12.16 0 0
12.24 0 0
12.32 0 0
12.4 0 0
12.48 0 0
12.56 0 0
12.64 0 0
12.72 0 0
12.8 0 0
12.88 0 0
12.96 0 0
13.04 0 0
13.12 0 0
13.2 0 0
13.28 0 0
13.36 0 0
13.44 0 0
13.52 0 0
13.6 0 0
13.68 0 0
13.76 0 0
13.84 0 0
13.92 0 0
14 0 0
14.08 0 0
14.16 0 0
14.24 0 0
14.32 0 0
14.4 0 0
14.48 0 0
14.56 0 0
14.64 0 0
14.72 0 0
14.8 0 0
14.88 0 0
14.96 0 0
15.04 0 0
15.12 0 0
15.2 0 0
15.28 0 0
15.36 0 0
15.44 0 0
15.52 0 0
15.6 0 0
15.68 0 0
15.76 0 0
15.84 0 0
15.92 0 0
16 0 0
16.08 0 0
16.16 0 0
16.24 0 0
16.32 0 0
16.4 0 0
16.48 0 0
16.56 0 0
16.64 0 0
16.72 0 0
16.8 0 0
16.88 0 0
16.96 0 0
17.04 0 0
17.12 0 0
17.2 0 0
17.28 0 0
17.36 0 0
17.44 0 0
17.52 0 0
17.6 0 0
17.68 0 0
17.76 0 0
17.84 0 0
17.92 0 0
18 0 0
18.08 0 0
18.16 0 0
18.24 0 0
18.32 0 0
18.4 0 0
18.48 0 0
18.56 0 0
18.64 0 0
18.72 0 0
18.8 0 0
18.88 0 0
18.96 0 0
19.04 0 0
19.12 0 0
19.2 0 0
19.28 0 0
19.36 0 0
19.44 0 0
19.52 0 0
19.6 0 0
19.68 0 0
19.76 0 0
19.84 0 0
19.92 0 0
20 0 0
20.08 0 0
20.16 0 0
20.24 0 0
20.32 0 0
20.4 0 0
20.48 0 0
20.56 0 0
20.64 0 0
20.72 0 0
20.8 0 0
20.88 0 0
20.96 0 0
21.04 0 0
21.12 0 0
21.2 0 0
21.28 0 0
21.36 0 0
21.44 0 0
21.52 0 0
21.6 0 0
21.68 0 0
21.76 0 0
21.84 0 0
21.92 0 0
22 0 0
22.08 0 0
22.16 0 0
22.24 0 0
22.32 0 0
22.4 0 0
22.48 0 0
22.56 0 0
22.64 0 0
22.72 0 0
22.8 0 0
22.88 0 0
22.96 0 0
23.04 0 0
23.12 0 0
23.2 0 0
23.28 0 0
23.36 0 0
23.44 0 0
23.52 0 0
23.6 0 0
23.68 0 0
23.76 0 0
23.84 0 0
23.92 0 0
24 0 0
24.08 0 0
24.16 0 0
24.24 0 0
24.32 0 0
24.4 0 0
24.48 0 0
24.56 0 0
24.64 0 0
24.72 0 0
24.8 0 0
24.88 0 0
24.96 0 0
25.04 0 0
25.12 0 0
25.2 0 0
25.28 0 0
25.36 0 0
25.44 0 0
25.52 0 0
25.6 0 0
25.68 0 0
25.76 0 0
25.84 0 0
25.92 0 0
26 0 0
26.08 0 0
26.16 0 0
26.24 0 0
26.32 0 0
26.4 0 0
26.48 0 0
26.56 0 0
26.64 0 0
26.72 0 0
26.8 0 0
26.88 0 0
26.96 0 0
27.04 0 0
27.12 0 0
27.2 0 0
27.28 0 0
27.36 0 0
27.44 0 0
27.52 0 0
27.6 0 0
27.68 0 0
27.76 0 0
27.84 0 0
27.92 0 0
28 0 0
28.08 0 0
28.16 0 0
28.24 0 0
28.32 0 0
28.4 0 0
28.48 0 0
28.56 0 0
28.64 0 0
28.72 0 0
28.8 0 0
28.88 0 0
28.96 0 0
29.04 0 0
29.12 0 0
29.2 0 0
29.28 0 0
29.36 0 0
29.44 0 0
29.52 0 0
29.6 0 0
29.68 0 0
29.76 0 0
29.84 0 0
29.92 0 0
30 0 0
30.08 0 0
30.16 0 0
30.24 0 0
30.32 0 0
30.4 0 0
30.48 0 0
30.56 0 0
30.64 0 0
30.72 0 0
30.8 0 0
30.88 0 0
30.96 0 0
31.04 0 0
31.12 0 0
31.2 0 0
31.28 0 0
31.36 0 0
31.44 0 0
31.52 0 0
31.6 0 0
31.68 0 0
31.76 0 0
31.84 0 0
31.92 0 0
0 0.005 0
0.08 0.005 0
0.16 0.005 0
0.24 0.005 0
0.32 0.005 0
0.4 0.005 0
0.48 0.005 0
0.56 0.005 0
0.64 0.005 0
0.72 0.005 0
0.8 0.005 0
0.88 0.005 0
0.96 0.005 0
1.04 0.005 0
1.12 0.005 0
1.2 0.005 0
1.28 0.005 0
1.36 0.005 0
1.44 0.005 0
1.52 0.005 0
1.6 0.005 0
1.68 0.005 0
1.76 0.005 0
1.84 0.005 0
1.92 0.005 0
2 0.005 0
2.08 0.005 0
2.16 0.005 0
2.24 0.005 0
2.32 0.005 0
2.4 0.005 0
2.48 0.005 0
2.56 0.005 0
2.64 0.005 0
2.72 0.005 0
2.8 0.005 0
2.88 0.005 0
2.96 0.005 0
3.04 0.005 0
3.12 0.005 0
3.2 0.005 0
3.28 0.005 0
3.36 0.005 0
3.44 0.005 0
3.52 0.005 0
3.6 0.005 0
3.68 0.005 0
3.76 0.005 0
3.84 0.005 0
3.92 0.005 0
4 0.005 0
4.08 0.005 0
4.16 0.005 0
4.24 0.005 0
4.32 0.005 0
4.4 0.005 0
4.48 0.005 0
4.56 0.005 0
4.64 0.005 0
4.72 0.005 0
4.8 0.005 0
4.88 0.005 0
4.96 0.005 0
5.04 0.005 0
5.12 0.005 0
5.2 0.005 0
5.28 0.005 0
5.36 0.005 0
5.44 0.005 0
5.52 0.005 0
5.6 0.005 0
5.68 0.005 0
5.76 0.005 0
5.84 0.005 0
5.92 0.005 0
6 0.005 0
6.08 0.005 0
6.16 0.005 0
6.24 0.005 0
6.32 0.005 0
6.4 0.005 0
6.48 0.005 0
6.56 0.005 0
6.64 0.005 0
6.72 0.005 0
6.8 0.005 0
6.88 0.005 0
6.96 0.005 0
7.04 0.005 0
7.12 0.005 0
7.2 0.005 0
7.28 0.005 0
7.36 0.005 0
7.44 0.005 0
7.52 0.005 0
7.6 0.005 0
7.68 0.005 0
7.76 0.005 0
7.84 0.005 0
7.92 0.005 0
8 0.005 0
8.08 0.005 0
8.16 0.005 0
8.24 0.005 0
8.32 0.005 0
8.4 0.005 0
8.48 0.005 0
8.56 0.005 0
8.64 0.005 0
8.72 0.005 0
8.8 0.005 0
8.88 0.005 0
8.96 0.005 0
9.04 0.005 0
9.12 0.005 0
9.2 0.005 0
9.28 0.005 0
9.36 0.005 0
9.44 0.005 0
9.52 0.005 0
9.6 0.005 0
9.68 0.005 0
9.76 0.005 0
9.84 0.005 0
9.92 0.005 0
10 0.005 0
10.08 0.005 0
10.16 0.005 0
10.24 0.005 0
10.32 0.005 0
10.4 0.005 0
10.48 0.005 0
10.56 0.005 0
10.64 0.005 0
10.72 0.005 0
10.8 0.005 0
10.88 0.005 0
10.96 0.005 0
11.04 0.005 0
11.12 0.005 0
11.2 0.005 0
11.28 0.005 0
11.36 0.005 0
11.44 0.005 0
11.52 0.005 0
11.6 0.005 0
11.68 0.005 0
11.76 0.005 0
11.84 0.005 0
11.92 0.005 0
12 0.005 0
12.08 0.005 0
12.16 0.005 0
12.24 0.005 0
12.32 0.005 0
12.4 0.005 0
12.48 0.005 0
12.56 0.005 0
12.64 0.005 0
12.72 0.005 0
12.8 0.005 0
12.88 0.005 0
12.96 0.005 0
13.04 0.005 0
13.12 0.005 0
13.2 0.005 0
13.28 0.005 0
13.36 0.005 0
13.44 0.005 0
13.52 0.005 0
13.6 0.005 0
13.68 0.005 0
13.76 0.005 0
13.84 0.005 0
13.92 0.005 0
14 0.005 0
14.08 0.005 0
14.16 0.005 0
14.24 0.005 0
14.32 0.005 0
14.4 0.005 0
14.48 0.005 0
14.56 0.005 0
14.64 0.005 0
14.72 0.005 0
14.8 0.005 0
14.88 0.005 0
14.96 0.005 0
15.04 0.005 0
15.12 0.005 0
15.2 0.005 0
15.28 0.005 0
15.36 0.005 0
15.44 0.005 0
15.52 0.005 0
15.6 0.005 0
15.68 0.005 0
15.76 0.005 0
15.84 0.005 0
15.92 0.005 0
16 0.005 0
16.08 0.005 0
16.16 0.005 0
16.24 0.005 0
16.32 0.005 0
16.4 0.005 0
16.48 0.005 0
16.56 0.005 0
16.64 0.005 0
16.72 0.005 0
16.8 0.005 0
16.88 0.005 0
16.96 0.005 0
17.04 0.005 0
17.12 0.005 0
17.2 0.005 0
17.28 0.005 0
17.36 0.005 0
17.44 0.005 0
17.52 0.005 0
17.6 0.005 0
17.68 0.005 0
17.76 0.005 0
17.84 0.005 0
17.92 0.005 0
18 0.005 0
18.08 0.005 0
18.16 0.005 0
18.24 0.005 0
18.32 0.005 0
18.4 0.005 0
18.48 0.005 0
18.56 0.005 0
18.64 0.005 0
18.72 0.005 0
18.8 0.005 0
18.88 0.005 0
18.96 0.005 0
19.04 0.005 0
19.12 0.005 0
19.2 0.005 0
19.28 0.005 0
19.36 0.005 0
19.44 0.005 0
19.52 0.005 0
19.6 0.005 0
19.68 0.005 0
19.76 0.005 0
19.84 0.005 0
19.92 0.005 0
20 0.005 0
20.08 0.005 0
20.16 0.005 0
20.24 0.005 0
20.32 0.005 0
20.4 0.005 0
20.48 0.005 0
20.56 0.005 0
20.64 0.005 0
20.72 0.005 0
20.8 0.005 0
20.88 0.005 0
20.96 0.005 0
21.04 0.005 0
21.12 0.005 0
21.2 0.005 0
21.28 0.005 0
21.36 0.005 0
21.44 0.005 0
21.52 0.005 0
21.6 0.005 0
21.68 0.005 0
21.76 0.005 0
21.84 0.005 0
21.92 0.005 0
22 0.005 0
22.08 0.005 0
22.16 0.005 0
22.24 0.005 0
22.32 0.005 0
22.4 0.005 0
22.48 0.005 0
22.56 0.005 0
22.64 0.005 0
22.72 0.005 0
22.8 0.005 0
22.88 0.005 0
22.96 0.005 0
23.04 0.005 0
23.12 0.005 0
23.2 0.005 0
23.28 0.005 0
23.36 0.005 0
23.44 0.005 0
23.52 0.005 0
23.6 0.005 0
23.68 0.005 0
23.76 0.005 0
23.84 0.005 0
23.92 0.005 0
24 0.005 0
24.08 0.005 0
24.16 0.005 0
24.24 0.005 0
24.32 0.005 0
24.4 0.005 0
24.48 0.005 0
24.56 0.005 0
24.64 0.005 0
24.72 0.005 0
24.8 0.005 0
24.88 0.005 0
24.96 0.005 0
25.04 0.005 0
25.12 0.005 0
25.2 0.005 0
25.28 0.005 0
25.36 0.005 0
25.44 0.005 0
25.52 0.005 0
25.6 0.005 0
25.68 0.005 0
25.76 0.005 0
25.84 0.005 0
25.92 0.005 0
26 0.005 0
26.08 0.005 0
26.16 0.005 0
26.24 0.005 0
26.32 0.005 0
26.4 0.005 0
26.48 0.005 0
26.56 0.005 0
26.64 0.005 0
26.72 0.005 0
26.8 0.005 0
26.88 0.005 0
26.96 0.005 0
27.04 0.005 0
27.12 0.005 0
27.2 0.005 0
27.28 0.005 0
27.36 0.005 0
27.44 0.005 0
27.52 0.005 0
27.6 0.005 0
27.68 0.005 0
27.76 0.005 0
27.84 0.005 0
27.92 0.005 0
28 0.005 0
28.08 0.005 0
28.16 0.005 0
28.24 0.005 0
28.32 0.005 0
28.4 0.005 0
28.48 0.005 0
28.56 0.005 0
28.64 0.005 0
28.72 0.005 0
28.8 0.005 0
28.88 0.005 0
28.96 0.005 0
29.04 0.005 0
29.12 0.005 0
29.2 0.005 0
29.28 0.005 0
29.36 0.005 0
29.44 0.005 0
29.52 0.005 0
29.6 0.005 0
29.68 0.005 0
29.76 0.005 0
29.84 0.005 0
29.92 0.005 0
30 0.005 0
30.08 0.005 0
30.16 0.005 0
30.24 0.005 0
30.32 0.005 0
30.4 0.005 0
30.48 0.005 0
30.56 0.005 0
30.64 0.005 0
30.72 0.005 0
30.8 0.005 0
30.88 0.005 0
30.96 0.005 0
31.04 0.005 0
31.12 0.005 0
31.2 0.005 0
31.28 0.005 0
31.36 0.005 0
31.44 0.005 0
31.52 0.005 0
31.6 0.005 0
31.68 0.005 0
31.76 0.005 0
31.84 0.005 0
31.92 0.005 0
0 0.01 0
0.08 0.01 0
0.16 0.01 0
0.24 0.01 0
0.32 0.01 0
0.4 0.01 0
0.48 0.01 0
0.56 0.01 0
0.64 0.01 0
0.72 0.01 0
0.8 0.01 0
0.88 0.01 0
0.96 0.01 0
1.04 0.01 0
1.12 0.01 0
1.2 0.01 0
1.28 0.01 0
1.36 0.01 0
1.44 0.01 0
1.52 0.01 0
1.6 0.01 0
1.68 0.01 0
1.76 0.01 0
1.84 0.01 0
1.92 0.01 0
2 0.01 0
2.08 0.01 0
2.16 0.01 0
2.24 0.01 0
2.32 0.01 0
2.4 0.01 0
2.48 0.01 0
2.56 0.01 0
2.64 0.01 0
2.72 0.01 0
2.8 0.01 0
2.88 0.01 0
2.96 0.01 0
3.04 0.01 0
3.12 0.01 0
3.2 0.01 0
3.28 0.01 0
3.36 0.01 0
3.44 0.01 0
3.52 0.01 0
3.6 0.01 0
3.68 0.01 0
3.76 0.01 0
3.84 0.01 0
3.92 0.01 0
4 0.01 0
4.08 0.01 0
4.16 0.01 0
4.24 0.01 0
4.32 0.01 0
4.4 0.01 0
4.48 0.01 0
4.56 0.01 0
4.64 0.01 0
4.72 0.01 0
4.8 0.01 0
4.88 0.01 0
4.96 0.01 0
5.04 0.01 0
5.12 0.01 0
[...]
POINT_DATA 80000

SCALARS u float 1
LOOKUP_TABLE default
0
-0.131663
-0.0682695
-0.0522964
-0.0444203
-0.0395773
-0.0362602
-0.0338332
-0.0319733
-0.0304967
-0.0292906
-0.0282824
-0.0274229
-0.0266783
-0.0260244
-0.0254436
-0.0249227
-0.0244518
-0.0240232
-0.0236309
-0.0232698
-0.0229362
-0.0226267
-0.0223386
-0.0220697
-0.0218179
-0.0215816
-0.0213593
-0.0211498
-0.020952
-0.020765
-0.0205878
-0.0204197
-0.02026
-0.0201083
-0.019964
-0.0198269
-0.0196963
-0.0195718
-0.019453
-0.0193399
-0.0192326
-0.0191311
-0.0190354
-0.0189455
-0.0188613
-0.0187827
-0.0187099
-0.018643
-0.018582
-0.0185268
-0.0184767
-0.018431
-0.0183891
-0.0183501
-0.0183139
-0.0182804
-0.0182496
-0.0182217
-0.0181967
-0.0181742
-0.018154
-0.0181355
-0.0181182
-0.0181019
-0.0180864
-0.0180718
-0.0180583
-0.0180461
-0.0180354
-0.0180265
-0.0180192
-0.0180136
-0.0180095
-0.0180066
-0.0180048
-0.0180037
-0.0180033
-0.0180033
-0.0180035
-0.018004
-0.0180046
-0.0180053
-0.018006
-0.0180068
-0.0180076
-0.0180084
-0.0180092
-0.01801
-0.0180109
-0.0180117
-0.0180126
-0.0180134
-0.0180143
-0.0180151
-0.018016
-0.0180169
-0.0180177
-0.0180186
-0.0180194
-0.0180203
-0.0180211
-0.018022
-0.0180229
-0.0180237
-0.0180246
-0.0180254
-0.0180263
-0.0180272
-0.018028
-0.0180289
-0.0180297
-0.0180306
-0.0180315
-0.0180323
-0.0180332
-0.0180341
-0.0180349
-0.0180358
-0.0180367
-0.0180375
-0.0180384
-0.0180393
-0.0180401
-0.018041
-0.0180419
-0.0180428
-0.0180436
-0.0180445
-0.0180454
-0.0180462
-0.0180471
-0.018048
-0.0180489
-0.0180497
-0.0180506
-0.0180515
-0.0180524
-0.0180532
-0.0180541
-0.018055
-0.0180559
-0.0180567
-0.0180576
-0.0180585
-0.0180594
-0.0180603
-0.0180611
-0.018062
-0.0180629
-0.0180638
-0.0180647
-0.0180656
-0.0180664
-0.0180673
-0.0180682
-0.0180691
-0.01807
-0.0180709
-0.0180718
-0.0180727
-0.0180735
-0.0180744
-0.0180753
-0.0180762
-0.0180771
-0.018078
-0.0180789
-0.0180798
-0.0180807
-0.0180816
-0.0180825
-0.0180833
-0.0180842
-0.0180851
-0.018086
-0.0180869
-0.0180878
-0.0180887
-0.0180896
-0.0180905
-0.0180914
-0.0180923
-0.0180932
-0.0180941
-0.018095
-0.0180959
-0.0180968
-0.0180977
-0.0180986
-0.0180995
-0.0181004
-0.0181013
-0.0181022
-0.0181032
-0.0181041
-0.018105
-0.0181059
-0.0181068
-0.0181077
-0.0181086
-0.0181095
-0.0181104
-0.0181113
-0.0181122
-0.0181132
-0.0181141
-0.018115
-0.0181159
-0.0181168
-0.0181177
-0.0181186
-0.0181195
-0.0181205
-0.0181214
-0.0181223
-0.0181232
-0.0181241
-0.0181251
-0.018126
-0.0181269
-0.0181278
-0.0181287
-0.0181297
-0.0181306
-0.0181315
-0.0181324
-0.0181333
-0.0181343
-0.0181352
-0.0181361
-0.018137
-0.018138
-0.0181389
-0.0181398
-0.0181408
-0.0181417
-0.0181426
-0.0181435
-0.0181445
-0.0181454
-0.0181463
-0.0181473
-0.0181482
-0.0181491
-0.0181501
-0.018151
-0.0181519
-0.0181529
-0.0181538
-0.0181547
-0.0181557
-0.0181566
-0.0181575
-0.0181585
-0.0181594
-0.0181604
-0.0181613
-0.0181622
-0.0181632
-0.0181641
-0.0181651
-0.018166
-0.018167
-0.0181679
-0.0181688
-0.0181698
-0.0181707
-0.0181717
-0.0181726
-0.0181736
-0.0181745
-0.0181755
-0.0181764
-0.0181774
-0.0181783
-0.0181793
-0.0181802
-0.0181812
-0.0181821
-0.0181831
-0.018184
-0.018185
-0.0181859
-0.0181869
-0.0181878
-0.0181888
-0.0181898
-0.0181907
-0.0181917
-0.0181926
-0.0181936
-0.0181946
-0.0181955
-0.0181965
-0.0181974
-0.0181984
-0.0181994
-0.0182003
-0.0182013
-0.0182023
-0.0182032
-0.0182042
-0.0182051
-0.0182061
-0.0182071
-0.018208
-0.018209
-0.01821
-0.018211
-0.0182119
-0.0182129
-0.0182139
-0.0182148
-0.0182158
-0.0182168
-0.0182178
-0.0182187
-0.0182197
-0.0182207
-0.0182217
-0.0182226
-0.0182236
-0.0182246
-0.0182256
-0.0182265
-0.0182275
-0.0182285
-0.0182295
-0.0182305
-0.0182314
-0.0182324
-0.0182334
-0.0182344
-0.0182354
-0.0182364
-0.0182374
-0.0182383
-0.0182393
-0.0182403
-0.0182413
-0.0182423
-0.0182433
-0.0182443
-0.0182453
-0.0182462
-0.0182472
-0.0182482
-0.0182492
-0.0182502
-0.0182512
-0.0182522
-0.0182532
-0.0182542
-0.0182552
-0.0182562
-0.0182572
-0.0182582
-0.0182592
-0.0182602
-0.0182612
-0.0182622
-0.0182632
-0.0182642
-0.0182652
-0.0182662
-0.0182672
-0.0182682
-0.0182692
-0.0182702
-0.0182712
-0.0182722
-0.0182732
-0.0182742
-0.0182752
-0.0182763
-0.0182773
-0.0182783
-0.0182793
-0.0182803
-0.0182813
-0.0182823
-0.0182833
-0.0182844
-0.0182854
-0.0182864
-0.0182874
-0.0182884
-0.0182894
-0.0182905
-0.0182915
-0.0182925
-0.0182936
-0.0182945
-0.0182958
-0.0182964
-0.0182981
-0.0182965
-0.0182965
-0.0182965
1
0.131663
0.0682695
0.0522964
0.0444203
0.0395773
0.0362602
0.0338332
0.0319733
0.0304967
0.0292906
0.0282824
0.0274229
0.0266783
0.0260244
0.0254436
0.0249227
0.0244518
0.0240232
0.0236309
0.0232698
0.0229362
0.0226267
0.0223386
0.0220697
0.0218179
0.0215816
0.0213593
0.0211498
0.020952
0.020765
0.0205878
0.0204197
0.02026
0.0201083
0.019964
0.0198269
0.0196963
0.0195718
0.019453
0.0193399
0.0192326
0.0191311
0.0190354
0.0189455
0.0188613
0.0187827
0.0187099
0.018643
0.018582
0.0185268
0.0184767
0.018431
0.0183891
0.0183501
0.0183139
0.0182804
0.0182496
0.0182217
0.0181967
0.0181742
0.018154
0.0181355
0.0181182
0.0181019
0.0180864
0.0180718
0.0180583
0.0180461
0.0180354
0.0180265
0.0180192
0.0180136
0.0180095
0.0180066
0.0180048
0.0180037
0.0180033
0.0180033
0.0180035
0.018004
0.0180046
0.0180053
0.018006
0.0180068
0.0180076
0.0180084
0.0180092
0.01801
0.0180109
0.0180117
0.0180126
0.0180134
0.0180143
0.0180151
0.018016
0.0180169
0.0180177
0.0180186
0.0180194
0.0180203
0.0180211
0.018022
0.0180229
0.0180237
0.0180246
0.0180254
0.0180263
0.0180272
0.018028
0.0180289
0.0180297
0.0180306
0.0180315
0.0180323
0.0180332
0.0180341
0.0180349
0.0180358
0.0180367
0.0180375
0.0180384
0.0180393
0.0180401
0.018041
0.0180419
0.0180428
0.0180436
0.0180445
0.0180454
0.0180462
0.0180471
0.018048
0.0180489
0.0180497
0.0180506
0.0180515
0.0180524
0.0180532
0.0180541
0.018055
0.0180559
0.0180567
0.0180576
0.0180585
0.0180594
0.0180603
0.0180611
0.018062
0.0180629
0.0180638
0.0180647
0.0180656
0.0180664
0.0180673
0.0180682
0.0180691
0.01807
0.0180709
0.0180718
0.0180727
0.0180735
0.0180744
0.0180753
0.0180762
0.0180771
0.018078
0.0180789
0.0180798
0.0180807
0.0180816
0.0180825
0.0180833
0.0180842
0.0180851
0.018086
0.0180869
0.0180878
0.0180887
0.0180896
0.0180905
0.0180914
0.0180923
0.0180932
0.0180941
0.018095
0.0180959
0.0180968
0.0180977
0.0180986
0.0180995
0.0181004
0.0181013
0.0181022
0.0181032
0.0181041
0.018105
0.0181059
0.0181068
0.0181077
0.0181086
0.0181095
0.0181104
0.0181113
0.0181122
0.0181132
0.0181141
0.018115
0.0181159
0.0181168
0.0181177
0.0181186
0.0181195
0.0181205
0.0181214
0.0181223
0.0181232
0.0181241
0.0181251
0.018126
0.0181269
0.0181278
0.0181287
0.0181297
0.0181306
0.0181315
0.0181324
0.0181333
0.0181343
0.0181352
0.0181361
0.018137
0.018138
0.0181389
0.0181398
0.0181408
0.0181417
0.0181426
0.0181435
0.0181445
0.0181454
0.0181463
0.0181473
0.0181482
0.0181491
0.0181501
0.018151
0.0181519
0.0181529
0.0181538
0.0181547
0.0181557
0.0181566
0.0181575
0.0181585
0.0181594
0.0181604
0.0181613
0.0181622
0.0181632
0.0181641
0.0181651
0.018166
0.018167
0.0181679
0.0181688
0.0181698
0.0181707
0.0181717
0.0181726
0.0181736
0.0181745
0.0181755
0.0181764
0.0181774
0.0181783
0.0181793
0.0181802
0.0181812
0.0181821
0.0181831
0.018184
0.018185
0.0181859
0.0181869
0.0181878
0.0181888
0.0181898
0.0181907
0.0181917
0.0181926
0.0181936
0.0181946
0.0181955
0.0181965
0.0181974
0.0181984
0.0181994
0.0182003
0.0182013
0.0182023
0.0182032
0.0182042
0.0182051
0.0182061
0.0182071
0.018208
0.018209
0.01821
0.018211
0.0182119
0.0182129
0.0182139
0.0182148
0.0182158
0.0182168
0.0182178
0.0182187
0.0182197
0.0182207
0.0182217
0.0182226
0.0182236
0.0182246
0.0182256
0.0182265
0.0182275
0.0182285
0.0182295
0.0182305
0.0182314
0.0182324
0.0182334
0.0182344
0.0182354
0.0182364
0.0182374
0.0182383
0.0182393
0.0182403
0.0182413
0.0182423
0.0182433
0.0182443
0.0182453
0.0182462
0.0182472
0.0182482
0.0182492
0.0182502
0.0182512
0.0182522
0.0182532
0.0182542
0.0182552
0.0182562
0.0182572
0.0182582
0.0182592
0.0182602
0.0182612
0.0182622
0.0182632
0.0182642
0.0182652
0.0182662
0.0182672
0.0182682
0.0182692
0.0182702
0.0182712
0.0182722
0.0182732
0.0182742
0.0182752
0.0182763
0.0182773
0.0182783
0.0182793
0.0182803
0.0182813
0.0182823
0.0182833
0.0182844
0.0182854
0.0182864
0.0182874
0.0182884
0.0182894
0.0182905
0.0182915
0.0182925
0.0182936
0.0182945
0.0182958
0.0182964
0.0182981
0.0182965
0.0182965
0.0182965
1
0.344884
0.200669
0.154968
0.131896
0.1176
0.10777
0.10056
0.095027
0.0906312
0.0870402
0.0840384
0.0814804
0.0792653
0.0773211
0.075595
0.074048
0.0726501
0.0713785
0.0702147
0.0691443
0.0681554
0.0672384
0.0663851
0.0655886
0.064843
0.0641434
0.0634853
0.0628654
0.0622803
0.061727
0.061203
0.0607059
0.0602339
0.0597855
0.0593595
0.0589544
0.0585689
0.0582016
0.0578517
0.0575189
0.0572034
0.0569054
0.056625
0.0563619
0.0561159
0.0558869
0.0556752
0.0554811
0.0553043
0.0551442
0.0549989
0.0548663
0.0547444
0.0546314
0.0545265
0.0544295
0.0543407
0.0542602
0.0541879
0.054123
0.0540643
0.0540104
0.0539603
0.053913
0.0538684
0.0538268
0.0537885
0.0537544
0.053725
0.0537004
0.0536808
0.0536657
0.0536548
0.0536474
0.0536428
0.0536404
0.0536395
0.0536397
0.0536407
0.0536422
0.0536441
0.0536462
0.0536484
0.0536507
0.0536531
0.0536555
0.053658
0.0536605
0.053663
0.0536655
0.0536681
0.0536706
0.0536732
0.0536757
0.0536783
0.0536808
0.0536834
0.0536859
0.0536885
0.053691
0.0536936
0.0536962
0.0536987
0.0537013
0.0537039
0.0537064
0.053709
0.0537116
0.0537141
0.0537167
0.0537193
0.0537219
0.0537244
0.053727
0.0537296
0.0537322
0.0537348
0.0537373
0.0537399
0.0537425
0.0537451
0.0537477
0.0537503
0.0537529
0.0537555
0.0537581
0.0537607
0.0537633
0.0537659
0.0537685
0.0537711
0.0537737
0.0537763
0.0537789
0.0537815
0.0537841
0.0537867
0.0537893
0.053792
0.0537946
0.0537972
0.0537998
0.0538024
0.0538051
0.0538077
0.0538103
0.0538129
0.0538156
0.0538182
0.0538208
0.0538235
0.0538261
0.0538287
0.0538314
0.053834
0.0538367
0.0538393
0.053842
0.0538446
0.0538472
0.0538499
0.0538525
0.0538552
0.0538579
0.0538605
0.0538632
0.0538658
0.0538685
0.0538711
0.0538738
0.0538765
0.0538791
0.0538818
0.0538845
0.0538872
0.0538898
0.0538925
0.0538952
0.0538979
0.0539005
0.0539032
0.0539059
0.0539086
0.0539113
0.0539139
0.0539166
0.0539193
0.053922
0.0539247
0.0539274
0.0539301
0.0539328
0.0539355
0.0539382
0.0539409
0.0539436
0.0539463
0.053949
0.0539517
0.0539544
0.0539571
0.0539599
0.0539626
0.0539653
0.053968
0.0539707
0.0539735
0.0539762
0.0539789
0.0539816
0.0539844
0.0539871
0.0539898
0.0539925
0.0539953
0.053998
0.0540008
0.0540035
0.0540062
0.054009
0.0540117
0.0540145
0.0540172
0.05402
0.0540227
0.0540255
0.0540282
0.054031
0.0540337
0.0540365
0.0540392
0.054042
0.0540448
0.0540475
0.0540503
0.0540531
0.0540558
0.0540586
0.0540614
0.0540641
0.0540669
0.0540697
0.0540725
0.0540753
0.054078
0.0540808
0.0540836
0.0540864
0.0540892
0.054092
0.0540948
0.0540976
0.0541004
0.0541032
0.0541059
0.0541087
0.0541116
0.0541144
0.0541172
0.05412
0.0541228
0.0541256
0.0541284
0.0541312
0.054134
0.0541368
0.0541397
0.0541425
0.0541453
0.0541481
0.0541509
0.0541538
0.0541566
0.0541594
0.0541623
0.0541651
0.0541679
0.0541708
0.0541736
0.0541764
0.0541793
0.0541821
0.054185
0.0541878
0.0541907
0.0541935
0.0541964
0.0541992
0.0542021
0.0542049
0.0542078
0.0542106
0.0542135
0.0542164
0.0542192
0.0542221
0.054225
0.0542278
0.0542307
0.0542336
0.0542365
0.0542393
0.0542422
0.0542451
0.054248
0.0542509
0.0542537
0.0542566
0.0542595
0.0542624
0.0542653
0.0542682
0.0542711
0.054274
0.0542769
0.0542798
0.0542827
0.0542856
0.0542885
0.0542914
0.0542943
0.0542972
0.0543001
0.0543031
0.054306
0.0543089
0.0543118
0.0543147
0.0543177
0.0543206
0.0543235
0.0543264
0.0543294
0.0543323
0.0543352
0.0543382
0.0543411
0.054344
0.054347
0.0543499
0.0543529
0.0543558
0.0543588
0.0543617
0.0543647
0.0543676
0.0543706
0.0543735
0.0543765
0.0543794
0.0543824
0.0543854
0.0543883
0.0543913
0.0543943
0.0543972
0.0544002
0.0544032
0.0544062
0.0544092
0.0544121
0.0544151
0.0544181
0.0544211
0.0544241
0.0544271
0.0544301
0.054433
0.0544361
0.054439
0.0544421
0.054445
0.0544481
0.054451
0.0544541
0.054457
0.0544601
0.0544631
0.0544661
0.0544691
0.0544722
0.0544751
0.0544782
0.0544812
0.0544843
0.0544872
0.0544903
0.0544933
0.0544964
0.0544995
0.0545024
0.0545057
0.0545084
0.0545122
0.0545141
0.0545191
0.0545152
0.0545152
0.0545152
1
0.518766
0.327403
0.255349
0.217851
0.194406
0.178215
0.16631
0.157162
0.149887
0.143943
0.138973
0.13474
0.131074
0.127858
0.125005
0.122448
0.120139
0.118038
0.116117
0.11435
0.112718
0.111206
0.109798
0.108484
0.107255
0.106102
0.105017
0.103995
0.103031
0.102119
0.101256
0.100437
0.09966
0.0989219
0.0982207
0.0975542
0.09692
0.0963161
0.0957412
0.095195
0.0946777
0.0941896
0.0937307
0.0933006
0.0928991
0.092526
0.0921816
0.0918662
0.0915793
0.0913192
0.0910832
0.0908678
0.0906695
0.0904859
0.0903156
0.0901585
0.0900148
0.0898846
0.0897675
0.0896622
0.0895668
0.0894791
0.0893975
0.0893209
0.0892491
0.0891823
0.0891216
0.0890678
0.0890217
0.0889836
0.0889534
0.0889305
0.0889141
0.0889031
0.0888964
0.0888931
0.0888921
0.0888928
0.0888947
0.0888974
0.0889006
0.0889041
0.0889078
0.0889117
0.0889156
0.0889197
0.0889238
0.0889279
0.0889321
0.0889363
0.0889405
0.0889447
0.0889489
0.0889532
0.0889574
0.0889616
0.0889658
0.0889701
0.0889743
0.0889785
0.0889828
0.088987
0.0889913
0.0889955
0.0889998
0.089004
0.0890083
0.0890125
0.0890168
0.0890211
0.0890253
0.0890296
0.0890339
0.0890381
0.0890424
0.0890467
0.089051
0.0890553
0.0890595
0.0890638
0.0890681
0.0890724
0.0890767
0.089081
0.0890853
0.0890896
0.0890939
0.0890982
0.0891025
0.0891068
0.0891112
0.0891155
0.0891198
0.0891241
0.0891284
0.0891328
0.0891371
0.0891414
0.0891458
0.0891501
0.0891544
0.0891588
0.0891631
0.0891675
0.0891718
0.0891762
0.0891805
0.0891849
0.0891893
0.0891936
0.089198
0.0892023
0.0892067
0.0892111
0.0892155
0.0892198
0.0892242
0.0892286
0.089233
0.0892374
0.0892418
0.0892462
0.0892506
0.0892549
0.0892593
0.0892638
0.0892682
0.0892726
0.089277
0.0892814
0.0892858
0.0892902
0.0892946
0.0892991
0.0893035
0.0893079
0.0893123
0.0893168
0.0893212
0.0893256
0.0893301
0.0893345
0.089339
0.0893434
0.0893479
0.0893523
0.0893568
0.0893612
0.0893657
0.0893702
0.0893746
0.0893791
0.0893836
0.089388
0.0893925
0.089397
0.0894015
0.089406
0.0894105
0.0894149
0.0894194
0.0894239
0.0894284
0.0894329
0.0894374
0.0894419
0.0894464
0.089451
0.0894555
0.08946
0.0894645
0.089469
0.0894735
0.0894781
0.0894826
0.0894871
0.0894917
0.0894962
0.0895007
0.0895053
0.0895098
0.0895144
0.0895189
0.0895235
0.089528
0.0895326
0.0895371
0.0895417
0.0895463
0.0895508
0.0895554
0.08956
0.0895646
0.0895691
0.0895737
0.0895783
0.0895829
0.0895875
0.0895921
0.0895967
0.0896013
0.0896059
0.0896105
0.0896151
0.0896197
0.0896243
0.0896289
0.0896335
0.0896381
0.0896427
0.0896474
0.089652
0.0896566
0.0896613
0.0896659
0.0896705
0.0896752
0.0896798
0.0896845
0.0896891
0.0896938
0.0896984
0.0897031
0.0897077
0.0897124
0.089717
0.0897217
0.0897264
0.0897311
0.0897357
0.0897404
0.0897451
0.0897498
0.0897545
0.0897591
0.0897638
0.0897685
0.0897732
0.0897779
0.0897826
0.0897873
0.089792
0.0897967
0.0898015
0.0898062
0.0898109
0.0898156
0.0898203
0.0898251
0.0898298
0.0898345
0.0898393
0.089844
0.0898487
0.0898535
0.0898582
0.089863
0.0898677
0.0898725
0.0898772
0.089882
0.0898868
0.0898915
0.0898963
0.0899011
0.0899058
0.0899106
0.0899154
0.0899202
0.089925
0.0899298
0.0899345
0.0899393
0.0899441
0.0899489
0.0899537
0.0899585
0.0899633
0.0899682
0.089973
0.0899778
0.0899826
0.0899874
0.0899923
0.0899971
0.0900019
0.0900067
0.0900116
0.0900164
0.0900213
0.0900261
0.090031
0.0900358
0.0900407
0.0900455
0.0900504
0.0900552
0.0900601
0.090065
0.0900698
0.0900747
0.0900796
0.0900845
0.0900894
0.0900942
0.0900991
0.090104
0.0901089
0.0901138
0.0901187
0.0901236
0.0901285
0.0901334
0.0901384
0.0901433
0.0901482
0.0901531
0.090158
0.090163
0.0901679
0.0901728
0.0901778
0.0901827
0.0901876
0.0901926
0.0901975
0.0902025
0.0902074
0.0902124
0.0902173
0.0902223
0.0902273
0.0902323
0.0902372
0.0902422
0.0902472
0.0902522
0.0902571
0.0902622
0.0902671
0.0902722
0.0902771
0.0902822
0.0902871
0.0902922
0.0902971
0.0903022
0.0903072
0.0903123
0.0903173
0.0903223
0.0903277
0.0903323
0.0903384
0.0903417
0.0903496
0.0903444
0.0903444
0.0903444
1
0.660888
0.446896
0.35288
0.302032
0.269853
0.247505
0.231022
0.218332
0.208231
0.199971
0.193066
0.187182
0.18209
0.177624
0.173661
0.170112
0.166908
0.163995
0.161331
0.158881
0.156619
0.154523
0.152573
0.150753
0.14905
0.147453
0.145951
0.144536
0.143201
0.141939
0.140744
0.139611
0.138536
0.137515
0.136545
0.135624
0.134747
0.133913
0.133119
0.132366
0.131653
0.130981
0.130349
0.129758
0.129207
0.128695
0.128224
0.127793
0.127401
0.127045
0.126723
0.126428
0.126157
0.125906
0.125673
0.125459
0.125263
0.125086
0.124926
0.124782
0.124651
0.124531
0.12442
0.124315
0.124218
0.124128
0.124047
0.123975
0.123914
0.123864
0.123825
0.123796
0.123775
0.123761
0.123753
0.123749
0.123748
0.12375
0.123752
0.123756
0.123761
0.123766
0.123771
0.123776
0.123782
0.123788
0.123793
0.123799
0.123805
0.123811
0.123817
0.123822
0.123828
0.123834
0.12384
0.123846
0.123852
0.123858
0.123864
0.12387
0.123875
0.123881
0.123887
0.123893
0.123899
0.123905
0.123911
0.123917
0.123923
0.123929
0.123935
0.123941
0.123946
0.123952
0.123958
0.123964
0.12397
0.123976
0.123982
0.123988
0.123994
0.124
0.124006
0.124012
0.124018
0.124024
0.12403
0.124036
0.124042
0.124048
0.124054
0.12406
0.124066
0.124072
0.124078
0.124084
0.12409
0.124096
0.124102
0.124108
0.124114
0.12412
0.124126
0.124132
0.124138
0.124144
0.12415
0.124156
0.124163
0.124169
0.124175
0.124181
0.124187
0.124193
0.124199
0.124205
0.124211
0.124217
0.124223
0.124229
0.124236
0.124242
0.124248
0.124254
0.12426
0.124266
0.124272
0.124278
0.124285
0.124291
0.124297
0.124303
0.124309
0.124315
0.124321
0.124328
0.124334
0.12434
0.124346
0.124352
0.124358
0.124365
0.124371
0.124377
0.124383
0.124389
0.124396
0.124402
0.124408
0.124414
0.12442
0.124427
0.124433
0.124439
0.124445
0.124451
0.124458
0.124464
0.12447
0.124476
0.124483
0.124489
0.124495
0.124501
0.124508
0.124514
0.12452
0.124526
0.124533
0.124539
0.124545
0.124552
0.124558
0.124564
0.12457
0.124577
0.124583
0.124589
0.124596
0.124602
0.124608
0.124615
0.124621
0.124627
0.124634
0.12464
0.124646
0.124653
0.124659
0.124665
0.124672
0.124678
0.124684
0.124691
0.124697
0.124703
0.12471
0.124716
0.124723
0.124729
0.124735
0.124742
0.124748
0.124755
0.124761
0.124767
0.124774
0.12478
0.124787
0.124793
0.124799
0.124806
0.124812
0.124819
0.124825
0.124832
0.124838
0.124845
0.124851
0.124857
0.124864
0.12487
0.124877
0.124883
0.12489
0.124896
0.124903
0.124909
0.124916
0.124922
0.124929
0.124935
0.124942
0.124948
0.124955
0.124961
0.124968
0.124974
0.124981
0.124987
0.124994
0.125001
0.125007
0.125014
0.12502
0.125027
0.125033
0.12504
0.125046
0.125053
0.12506
0.125066
0.125073
0.125079
0.125086
0.125092
0.125099
0.125106
0.125112
0.125119
0.125126
0.125132
0.125139
0.125145
0.125152
0.125159
0.125165
0.125172
0.125179
0.125185
0.125192
0.125199
0.125205
0.125212
0.125219
0.125225
0.125232
0.125239
0.125245
0.125252
0.125259
0.125265
0.125272
0.125279
0.125285
0.125292
0.125299
0.125306
0.125312
0.125319
0.125326
0.125333
0.125339
0.125346
0.125353
0.125359
0.125366
0.125373
0.12538
0.125387
0.125393
0.1254
0.125407
0.125414
0.12542
0.125427
0.125434
0.125441
0.125448
0.125454
0.125461
0.125468
0.125475
0.125482
0.125489
0.125495
0.125502
0.125509
0.125516
0.125523
0.12553
0.125536
0.125543
0.12555
0.125557
0.125564
0.125571
0.125578
0.125585
0.125591
0.125598
0.125605
0.125612
0.125619
0.125626
0.125633
0.12564
0.125647
0.125654
0.125661
0.125668
0.125674
0.125682
0.125688
0.125695
0.125702
0.125709
0.125716
0.125723
0.12573
0.125737
0.125745
0.125751
0.12576
0.125764
0.125775
0.125769
0.125769
0.125769
1
0.776803
0.557827
0.44688
0.384105
0.343747
0.315515
0.294609
0.278474
0.265612
0.255087
0.246284
0.238783
0.232292
0.226598
0.221549
0.217028
0.212947
0.209237
0.205846
0.202728
0.19985
0.197183
0.194702
0.192388
0.190222