# vtk DataFile Version 2.0
FlowField
ASCII
DATASET STRUCTURED_GRID
DIMENSIONS 400 1 200
POINTS 80000 float
0 0 0
0.08 0 0
0.16 0 0
0.24 0 0
0.32 0 0
0.4 0 0
0.48 0 0
0.56 0 0
0.64 0 0
0.72 0 0
0.8 0 0
0.88 0 0
0.96 0 0
1.04 0 0
1.12 0 0
1.2 0 0
1.28 0 0
1.36 0 0
1.44 0 0
1.52 0 0
1.6 0 0
1.68 0 0
1.76 0 0
1.84 0 0
1.92 0 0
2 0 0
2.08 0 0
2.16 0 0
2.24 0 0
2.32 0 0
2.4 0 0
2.48 0 0
2.56 0 0
2.64 0 0
2.72 0 0
2.8 0 0
2.88 0 0
2.96 0 0
3.04 0 0
3.12 0 0
3.2 0 0
3.28 0 0
3.36 0 0
3.44 0 0
3.52 0 0
3.6 0 0
3.68 0 0
3.76 0 0
3.84 0 0
3.92 0 0
4 0 0
4.08 0 0
4.16 0 0
4.24 0 0
4.32 0 0
4.4 0 0
4.48 0 0
4.56 0 0
4.64 0 0
4.72 0 0
4.8 0 0
4.88 0 0
4.96 0 0
5.04 0 0
5.12 0 0
5.2 0 0
5.28 0 0
5.36 0 0
5.44 0 0
5.52 0 0
5.6 0 0
5.68 0 0
5.76 0 0
5.84 0 0
5.92 0 0
6 0 0
6.08 0 0
6.16 0 0
6.24 0 0
6.32 0 0
6.4 0 0
6.48 0 0
6.56 0 0
6.64 0 0
6.72 0 0
6.8 0 0
6.88 0 0
6.96 0 0
7.04 0 0
7.12 0 0
7.2 0 0
7.28 0 0
7.36 0 0
7.44 0 0
7.52 0 0
7.6 0 0
7.68 0 0
7.76 0 0
7.84 0 0
7.92 0 0
8 0 0
8.08 0 0
8.16 0 0
8.24 0 0
8.32 0 0
8.4 0 0
8.48 0 0
8.56 0 0
8.64 0 0
8.72 0 0
8.8 0 0
8.88 0 0
8.96 0 0
9.04 0 0
9.12 0 0
9.2 0 0
9.28 0 0
9.36 0 0
9.44 0 0
9.52 0 0
9.6 0 0
9.68 0 0
9.76 0 0
9.84 0 0
9.92 0 0
10 0 0
10.08 0 0
10.16 0 0
10.24 0 0
10.32 0 0
10.4 0 0
10.48 0 0
10.56 0 0
10.64 0 0
10.72 0 0
10.8 0 0
10.88 0 0
10.96 0 0
11.04 0 0
11.12 0 0
11.2 0 0
11.28 0 0
11.36 0 0
11.44 0 0
11.52 0 0
11.6 0 0
11.68 0 0
11.76 0 0
11.84 0 0
11.92 0 0
12 0 0
12.08 0 0
12.16 0 0
12.24 0 0
12.32 0 0
12.4 0 0
12.48 0 0
12.56 0 0
12.64 0 0
12.72 0 0
12.8 0 0
12.88 0 0
12.96 0 0
13.04 0 0
13.12 0 0
13.2 0 0
13.28 0 0
13.36 0 0
13.44 0 0
13.52 0 0
13.6 0 0
13.68 0 0
13.76 0 0
13.84 0 0
13.92 0 0
14 0 0
14.08 0 0
14.16 0 0
14.24 0 0
14.32 0 0
14.4 0 0
14.48 0 0
14.56 0 0
14.64 0 0
14.72 0 0
14.8 0 0
14.88 0 0
14.96 0 0
15.04 0 0
15.12 0 0
15.2 0 0
15.28 0 0
15.36 0 0
15.44 0 0
15.52 0 0
15.6 0 0
15.68 0 0
15.76 0 0
15.84 0 0
15.92 0 0
16 0 0
16.08 0 0
16.16 0 0
16.24 0 0
16.32 0 0
16.4 0 0
16.48 0 0
16.56 0 0
16.64 0 0
16.72 0 0
16.8 0 0
16.88 0 0
16.96 0 0
17.04 0 0
17.12 0 0
17.2 0 0
17.28 0 0
17.36 0 0
17.44 0 0
17.52 0 0
17.6 0 0
17.68 0 0
17.76 0 0
17.84 0 0
17.92 0 0
18 0 0
18.08 0 0
18.16 0 0
18.24 0 0
18.32 0 0
18.4 0 0
18.48 0 0
18.56 0 0
18.64 0 0
18.72 0 0
18.8 0 0
18.88 0 0
18.96 0 0
19.04 0 0
19.12 0 0
19.2 0 0
19.28 0 0
19.36 0 0
19.44 0 0
19.52 0 0
19.6 0 0
19.68 0 0
19.76 0 0
19.84 0 0
19.92 0 0
20 0 0
20.08 0 0
20.16 0 0
20.24 0 0
20.32 0 0
20.4 0 0
20.48 0 0
20.56 0 0
20.64 0 0
20.72 0 0
20.8 0 0
20.88 0 0
20.96 0 0
21.04 0 0
21.12 0 0
21.2 0 0
21.28 0 0
21.36 0 0
21.44 0 0
21.52 0 0
21.6 0 0
21.68 0 0
21.76 0 0
21.84 0 0
21.92 0 0
22 0 0
22.08 0 0
22.16 0 0
22.24 0 0
22.32 0 0
22.4 0 0
22.48 0 0
22.56 0 0
22.64 0 0
22.72 0 0
22.8 0 0
22.88 0 0
22.96 0 0
23.04 0 0
23.12 0 0
23.2 0 0
23.28 0 0
23.36 0 0
23.44 0 0
23.52 0 0
23.6 0 0
23.68 0 0
23.76 0 0
23.84 0 0
23.92 0 0
24 0 0
24.08 0 0
24.16 0 0
24.24 0 0
24.32 0 0
24.4 0 0
24.48 0 0
24.56 0 0
24.64 0 0
24.72 0 0
24.8 0 0
24.88 0 0
24.96 0 0
25.04 0 0
25.12 0 0
25.2 0 0
25.28 0 0
25.36 0 0
25.44 0 0
25.52 0 0
25.6 0 0
25.68 0 0
25.76 0 0
25.84 0 0
25.92 0 0
26 0 0
26.08 0 0
26.16 0 0
26.24 0 0
26.32 0 0
26.4 0 0
26.48 0 0
26.56 0 0
26.64 0 0
26.72 0 0
26.8 0 0
26.88 0 0
26.96 0 0
27.04 0 0
27.12 0 0
27.2 0 0
27.28 0 0
27.36 0 0
27.44 0 0
27.52 0 0
27.6 0 0
27.68 0 0
27.76 0 0
27.84 0 0
27.92 0 0
28 0 0
28.08 0 0
28.16 0 0
28.24 0 0
28.32 0 0
28.4 0 0
28.48 0 0
28.56 0 0
28.64 0 0
28.72 0 0
28.8 0 0
28.88 0 0
28.96 0 0
29.04 0 0
29.12 0 0
29.2 0 0
29.28 0 0
29.36 0 0
29.44 0 0
29.52 0 0
29.6 0 0
29.68 0 0
29.76 0 0
29.84 0 0
29.92 0 0
30 0 0
30.08 0 0
30.16 0 0
30.24 0 0
30.32 0 0
30.4 0 0
30.48 0 0
30.56 0 0
30.64 0 0
30.72 0 0
30.8 0 0
30.88 0 0
30.96 0 0
31.04 0 0
31.12 0 0
31.2 0 0
31.28 0 0
31.36 0 0
31.44 0 0
31.52 0 0
31.6 0 0
31.68 0 0
31.76 0 0
31.84 0 0
31.92 0 0
0 0.005 0
0.08 0.005 0
0.16 0.005 0
0.24 0.005 0
0.32 0.005 0
0.4 0.005 0
0.48 0.005 0
0.56 0.005 0
0.64 0.005 0
0.72 0.005 0
0.8 0.005 0
0.88 0.005 0
0.96 0.005 0
1.04 0.005 0
1.12 0.005 0
1.2 0.005 0
1.28 0.005 0
1.36 0.005 0
1.44 0.005 0
1.52 0.005 0
1.6 0.005 0
1.68 0.005 0
1.76 0.005 0
1.84 0.005 0
1.92 0.005 0
2 0.005 0
2.08 0.005 0
2.16 0.005 0
2.24 0.005 0
2.32 0.005 0
2.4 0.005 0
2.48 0.005 0
2.56 0.005 0
2.64 0.005 0
2.72 0.005 0
2.8 0.005 0
2.88 0.005 0
2.96 0.005 0
3.04 0.005 0
3.12 0.005 0
3.2 0.005 0
3.28 0.005 0
3.36 0.005 0
3.44 0.005 0
3.52 0.005 0
3.6 0.005 0
3.68 0.005 0
3.76 0.005 0
3.84 0.005 0
3.92 0.005 0
4 0.005 0
4.08 0.005 0
4.16 0.005 0
4.24 0.005 0
4.32 0.005 0
4.4 0.005 0
4.48 0.005 0
4.56 0.005 0
4.64 0.005 0
4.72 0.005 0
4.8 0.005 0
4.88 0.005 0
4.96 0.005 0
5.04 0.005 0
5.12 0.005 0
5.2 0.005 0
5.28 0.005 0
5.36 0.005 0
5.44 0.005 0
5.52 0.005 0
5.6 0.005 0
5.68 0.005 0
5.76 0.005 0
5.84 0.005 0
5.92 0.005 0
6 0.005 0
6.08 0.005 0
6.16 0.005 0
6.24 0.005 0
6.32 0.005 0
6.4 0.005 0
6.48 0.005 0
6.56 0.005 0
6.64 0.005 0
6.72 0.005 0
6.8 0.005 0
6.88 0.005 0
6.96 0.005 0
7.04 0.005 0
7.12 0.005 0
7.2 0.005 0
7.28 0.005 0
7.36 0.005 0
7.44 0.005 0
7.52 0.005 0
7.6 0.005 0
7.68 0.005 0
7.76 0.005 0
7.84 0.005 0
7.92 0.005 0
8 0.005 0
8.08 0.005 0
8.16 0.005 0
8.24 0.005 0
8.32 0.005 0
8.4 0.005 0
8.48 0.005 0
8.56 0.005 0
8.64 0.005 0
8.72 0.005 0
8.8 0.005 0
8.88 0.005 0
8.96 0.005 0
9.04 0.005 0
9.12 0.005 0
9.2 0.005 0
9.28 0.005 0
9.36 0.005 0
9.44 0.005 0
9.52 0.005 0
9.6 0.005 0
9.68 0.005 0
9.76 0.005 0
9.84 0.005 0
9.92 0.005 0
10 0.005 0
10.08 0.005 0
10.16 0.005 0
10.24 0.005 0
10.32 0.005 0
10.4 0.005 0
10.48 0.005 0
10.56 0.005 0
10.64 0.005 0
10.72 0.005 0
10.8 0.005 0
10.88 0.005 0
10.96 0.005 0
11.04 0.005 0
11.12 0.005 0
11.2 0.005 0
11.28 0.005 0
11.36 0.005 0
11.44 0.005 0
11.52 0.005 0
11.6 0.005 0
11.68 0.005 0
11.76 0.005 0
11.84 0.005 0
11.92 0.005 0
12 0.005 0
12.08 0.005 0
12.16 0.005 0
12.24 0.005 0
12.32 0.005 0
12.4 0.005 0
12.48 0.005 0
12.56 0.005 0
12.64 0.005 0
12.72 0.005 0
12.8 0.005 0
12.88 0.005 0
12.96 0.005 0
13.04 0.005 0
13.12 0.005 0
13.2 0.005 0
13.28 0.005 0
13.36 0.005 0
13.44 0.005 0
13.52 0.005 0
13.6 0.005 0
13.68 0.005 0
13.76 0.005 0
13.84 0.005 0
13.92 0.005 0
14 0.005 0
14.08 0.005 0
14.16 0.005 0
14.24 0.005 0
14.32 0.005 0
14.4 0.005 0
14.48 0.005 0
14.56 0.005 0
14.64 0.005 0
14.72 0.005 0
14.8 0.005 0
14.88 0.005 0
14.96 0.005 0
15.04 0.005 0
15.12 0.005 0
15.2 0.005 0
15.28 0.005 0
15.36 0.005 0
15.44 0.005 0
15.52 0.005 0
15.6 0.005 0
15.68 0.005 0
15.76 0.005 0
15.84 0.005 0
15.92 0.005 0
16 0.005 0
16.08 0.005 0
16.16 0.005 0
16.24 0.005 0
16.32 0.005 0
16.4 0.005 0
16.48 0.005 0
16.56 0.005 0
16.64 0.005 0
16.72 0.005 0
16.8 0.005 0
16.88 0.005 0
16.96 0.005 0
17.04 0.005 0
17.12 0.005 0
17.2 0.005 0
17.28 0.005 0
17.36 0.005 0
17.44 0.005 0
17.52 0.005 0
17.6 0.005 0
17.68 0.005 0
17.76 0.005 0
17.84 0.005 0
17.92 0.005 0
18 0.005 0
18.08 0.005 0
18.16 0.005 0
18.24 0.005 0
18.32 0.005 0
18.4 0.005 0
18.48 0.005 0
18.56 0.005 0
18.64 0.005 0
18.72 0.005 0
18.8 0.005 0
18.88 0.005 0
18.96 0.005 0
19.04 0.005 0
19.12 0.005 0
19.2 0.005 0
19.28 0.005 0
19.36 0.005 0
19.44 0.005 0
19.52 0.005 0
19.6 0.005 0
19.68 0.005 0
19.76 0.005 0
19.84 0.005 0
19.92 0.005 0
20 0.005 0
20.08 0.005 0
20.16 0.005 0
20.24 0.005 0
20.32 0.005 0
20.4 0.005 0
20.48 0.005 0
20.56 0.005 0
20.64 0.005 0
20.72 0.005 0
20.8 0.005 0
20.88 0.005 0
20.96 0.005 0
21.04 0.005 0
21.12 0.005 0
21.2 0.005 0
21.28 0.005 0
21.36 0.005 0
21.44 0.005 0
21.52 0.005 0
21.6 0.005 0
21.68 0.005 0
21.76 0.005 0
21.84 0.005 0
21.92 0.005 0
22 0.005 0
22.08 0.005 0
22.16 0.005 0
22.24 0.005 0
22.32 0.005 0
22.4 0.005 0
22.48 0.005 0
22.56 0.005 0
22.64 0.005 0
22.72 0.005 0
22.8 0.005 0
22.88 0.005 0
22.96 0.005 0
23.04 0.005 0
23.12 0.005 0
23.2 0.005 0
23.28 0.005 0
23.36 0.005 0
23.44 0.005 0
23.52 0.005 0
23.6 0.005 0
23.68 0.005 0
23.76 0.005 0
23.84 0.005 0
23.92 0.005 0
24 0.005 0
24.08 0.005 0
24.16 0.005 0
24.24 0.005 0
24.32 0.005 0
24.4 0.005 0
24.48 0.005 0
24.56 0.005 0
24.64 0.005 0
24.72 0.005 0
24.8 0.005 0
24.88 0.005 0
24.96 0.005 0
25.04 0.005 0
25.12 0.005 0
25.2 0.005 0
25.28 0.005 0
25.36 0.005 0
25.44 0.005 0
25.52 0.005 0
25.6 0.005 0
25.68 0.005 0
25.76 0.005 0
25.84 0.005 0
25.92 0.005 0
26 0.005 0
26.08 0.005 0
26.16 0.005 0
26.24 0.005 0
26.32 0.005 0
26.4 0.005 0
26.48 0.005 0
26.56 0.005 0
26.64 0.005 0
26.72 0.005 0
26.8 0.005 0
26.88 0.005 0
26.96 0.005 0
27.04 0.005 0
27.12 0.005 0
27.2 0.005 0
27.28 0.005 0
27.36 0.005 0
27.44 0.005 0
27.52 0.005 0
27.6 0.005 0
27.68 0.005 0
27.76 0.005 0
27.84 0.005 0
27.92 0.005 0
28 0.005 0
28.08 0.005 0
28.16 0.005 0
28.24 0.005 0
28.32 0.005 0
28.4 0.005 0
28.48 0.005 0
28.56 0.005 0
28.64 0.005 0
28.72 0.005 0
28.8 0.005 0
28.88 0.005 0
28.96 0.005 0
29.04 0.005 0
29.12 0.005 0
29.2 0.005 0
29.28 0.005 0
29.36 0.005 0
29.44 0.005 0
29.52 0.005 0
29.6 0.005 0
29.68 0.005 0
29.76 0.005 0
29.84 0.005 0
29.92 0.005 0
30 0.005 0
30.08 0.005 0
30.16 0.005 0
30.24 0.005 0
30.32 0.005 0
30.4 0.005 0
30.48 0.005 0
30.56 0.005 0
30.64 0.005 0
30.72 0.005 0
30.8 0.005 0
30.88 0.005 0
30.96 0.005 0
31.04 0.005 0
31.12 0.005 0
31.2 0.005 0
31.28 0.005 0
31.36 0.005 0
31.44 0.005 0
31.52 0.005 0
31.6 0.005 0
31.68 0.005 0
31.76 0.005 0
31.84 0.005 0
31.92 0.005 0
0 0.01 0
0.08 0.01 0
0.16 0.01 0
0.24 0.01 0
0.32 0.01 0
0.4 0.01 0
0.48 0.01 0
0.56 0.01 0
0.64 0.01 0
0.72 0.01 0
0.8 0.01 0
0.88 0.01 0
0.96 0.01 0
1.04 0.01 0
1.12 0.01 0
1.2 0.01 0
1.28 0.01 0
1.36 0.01 0
1.44 0.01 0
1.52 0.01 0
1.6 0.01 0
1.68 0.01 0
1.76 0.01 0
1.84 0.01 0
1.92 0.01 0
2 0.01 0
2.08 0.01 0
2.16 0.01 0
2.24 0.01 0
2.32 0.01 0
2.4 0.01 0
2.48 0.01 0
2.56 0.01 0
2.64 0.01 0
2.72 0.01 0
2.8 0.01 0
2.88 0.01 0
2.96 0.01 0
3.04 0.01 0
3.12 0.01 0
3.2 0.01 0
3.28 0.01 0
3.36 0.01 0
3.44 0.01 0
3.52 0.01 0
3.6 0.01 0
3.68 0.01 0
3.76 0.01 0
3.84 0.01 0
3.92 0.01 0
4 0.01 0
4.08 0.01 0
4.16 0.01 0
4.24 0.01 0
4.32 0.01 0
4.4 0.01 0
4.48 0.01 0
4.56 0.01 0
4.64 0.01 0
4.72 0.01 0
4.8 0.01 0
4.88 0.01 0
4.96 0.01 0
5.04 0.01 0
5.12 0.01 0
[...]
POINT_DATA 80000

SCALARS u float 1
LOOKUP_TABLE default
0
-0.131673
-0.0682881
-0.0523218
-0.0444552
-0.0396264
-0.0363261
-0.0339175
-0.0320842
-0.0306476
-0.0294892
-0.0285292
-0.027727
-0.0270732
-0.0265685
-0.0262021
-0.0259474
-0.0257711
-0.0256445
-0.0255498
-0.0254788
-0.0254283
-0.0253959
-0.0253788
-0.0253729
-0.0253741
-0.0253791
-0.0253854
-0.0253915
-0.0253968
-0.0254012
-0.0254048
-0.0254077
-0.0254103
-0.0254126
-0.0254148
-0.0254169
-0.025419
-0.0254211
-0.0254232
-0.0254253
-0.0254274
-0.0254296
-0.0254318
-0.0254339
-0.0254361
-0.0254383
-0.0254405
-0.0254428
-0.025445
-0.0254473
-0.0254495
-0.0254518
-0.0254541
-0.0254563
-0.0254586
-0.0254609
-0.0254632
-0.0254655
-0.0254678
-0.0254702
-0.0254725
-0.0254748
-0.0254772
-0.0254795
-0.0254818
-0.0254842
-0.0254866
-0.0254889
-0.0254913
-0.0254937
-0.025496
-0.0254984
-0.0255008
-0.0255032
-0.0255056
-0.025508
-0.0255104
-0.0255128
-0.0255153
-0.0255177
-0.0255201
-0.0255225
-0.025525
-0.0255274
-0.0255298
-0.0255323
-0.0255347
-0.0255372
-0.0255396
-0.0255421
-0.0255446
-0.025547
-0.0255495
-0.025552
-0.0255544
-0.0255569
-0.0255594
-0.0255619
-0.0255644
-0.0255669
-0.0255694
-0.0255719
-0.0255744
-0.0255769
-0.0255794
-0.0255819
-0.0255844
-0.0255869
-0.0255894
-0.0255919
-0.0255944
-0.0255969
-0.0255995
-0.025602
-0.0256045
-0.025607
-0.0256096
-0.0256121
-0.0256146
-0.0256171
-0.0256197
-0.0256222
-0.0256247
-0.0256273
-0.0256298
-0.0256323
-0.0256348
-0.0256374
-0.0256399
-0.0256424
-0.025645
-0.0256475
-0.02565
-0.0256526
-0.0256551
-0.0256576
-0.0256602
-0.0256627
-0.0256652
-0.0256677
-0.0256703
-0.0256728
-0.0256753
-0.0256778
-0.0256803
-0.0256829
-0.0256854
-0.0256879
-0.0256904
-0.0256929
-0.0256954
-0.0256979
-0.0257004
-0.0257029
-0.0257054
-0.0257079
-0.0257104
-0.0257129
-0.0257153
-0.0257178
-0.0257203
-0.0257228
-0.0257252
-0.0257277
-0.0257301
-0.0257326
-0.025735
-0.0257374
-0.0257399
-0.0257423
-0.0257447
-0.0257471
-0.0257495
-0.0257518
-0.0257542
-0.0257566
-0.0257589
-0.0257613
-0.0257636
-0.0257659
-0.0257682
-0.0257705
-0.0257727
-0.025775
-0.0257772
-0.0257794
-0.0257816
-0.0257838
-0.0257859
-0.025788
-0.0257901
-0.0257922
-0.0257942
-0.0257962
-0.0257981
-0.0258001
-0.0258019
-0.0258038
-0.0258056
-0.0258073
-0.025809
-0.0258106
-0.0258122
-0.0258137
-0.0258152
-0.0258165
-0.0258178
-0.0258191
-0.0258202
-0.0258213
-0.0258222
-0.0258231
-0.0258239
-0.0258245
-0.025825
-0.0258255
-0.0258258
-0.0258259
-0.025826
-0.0258258
-0.0258256
-0.0258251
-0.0258245
-0.0258238
-0.0258228
-0.0258217
-0.0258204
-0.0258189
-0.0258171
-0.0258152
-0.025813
-0.0258107
-0.025808
-0.0258052
-0.025802
-0.0257987
-0.025795
-0.0257911
-0.025787
-0.0257825
-0.0257778
-0.0257727
-0.0257674
-0.0257618
-0.0257559
-0.0257496
-0.0257431
-0.0257362
-0.0257291
-0.0257216
-0.0257138
-0.0257057
-0.0256973
-0.0256886
-0.0256796
-0.0256702
-0.0256606
-0.0256507
-0.0256404
-0.0256299
-0.0256192
-0.0256081
-0.0255968
-0.0255852
-0.0255734
-0.0255614
-0.0255491
-0.0255366
-0.025524
-0.0255111
-0.0254981
-0.025485
-0.0254716
-0.0254582
-0.0254447
-0.0254311
-0.0254174
-0.0254036
-0.0253898
-0.025376
-0.0253622
-0.0253484
-0.0253346
-0.0253209
-0.0253072
-0.0252936
-0.0252801
-0.0252668
-0.0252536
-0.0252405
-0.0252276
-0.0252149
-0.0252024
-0.0251901
-0.025178
-0.0251661
-0.0251545
-0.0251432
-0.0251321
-0.0251214
-0.0251109
-0.0251007
-0.0250908
-0.0250812
-0.025072
-0.0250631
-0.0250545
-0.0250462
-0.0250382
-0.0250306
-0.0250234
-0.0250164
-0.0250098
-0.0250035
-0.0249975
-0.0249918
-0.0249865
-0.0249815
-0.0249767
-0.0249722
-0.0249681
-0.0249642
-0.0249605
-0.0249572
-0.024954
-0.0249511
-0.0249484
-0.024946
-0.0249437
-0.0249416
-0.0249397
-0.0249379
-0.0249363
-0.0249349
-0.0249335
-0.0249323
-0.0249312
-0.0249301
-0.0249292
-0.0249282
-0.0249274
-0.0249265
-0.0249257
-0.0249249
-0.0249241
-0.0249233
-0.0249224
-0.0249215
-0.0249206
-0.0249196
-0.0249185
-0.0249174
-0.0249161
-0.0249148
-0.0249133
-0.0249117
-0.02491
-0.0249082
-0.0249062
-0.0249041
-0.0249018
-0.0248993
-0.0248967
-0.0248938
-0.0248908
-0.0248876
-0.0248841
-0.0248805
-0.0248766
-0.0248726
-0.0248682
-0.0248637
-0.0248589
-0.0248538
-0.0248485
-0.024843
-0.0248371
-0.024831
-0.0248246
-0.0248179
-0.024811
-0.0248036
-0.0247963
-0.024788
-0.0247805
-0.0247708
-0.0247638
-0.0247519
-0.0247457
-0.0247321
-0.0247255
-0.0247115
-0.0247032
-0.0246894
-0.0246768
-0.0246729
-0.0246102
-0.0246102
-0.0246102
1
0.131673
0.0682881
0.0523218
0.0444552
0.0396264
0.0363261
0.0339175
0.0320842
0.0306476
0.0294892
0.0285292
0.027727
0.0270732
0.0265685
0.0262021
0.0259474
0.0257711
0.0256445
0.0255498
0.0254788
0.0254283
0.0253959
0.0253788
0.0253729
0.0253741
0.0253791
0.0253854
0.0253915
0.0253968
0.0254012
0.0254048
0.0254077
0.0254103
0.0254126
0.0254148
0.0254169
0.025419
0.0254211
0.0254232
0.0254253
0.0254274
0.0254296
0.0254318
0.0254339
0.0254361
0.0254383
0.0254405
0.0254428
0.025445
0.0254473
0.0254495
0.0254518
0.0254541
0.0254563
0.0254586
0.0254609
0.0254632
0.0254655
0.0254678
0.0254702
0.0254725
0.0254748
0.0254772
0.0254795
0.0254818
0.0254842
0.0254866
0.0254889
0.0254913
0.0254937
0.025496
0.0254984
0.0255008
0.0255032
0.0255056
0.025508
0.0255104
0.0255128
0.0255153
0.0255177
0.0255201
0.0255225
0.025525
0.0255274
0.0255298
0.0255323
0.0255347
0.0255372
0.0255396
0.0255421
0.0255446
0.025547
0.0255495
0.025552
0.0255544
0.0255569
0.0255594
0.0255619
0.0255644
0.0255669
0.0255694
0.0255719
0.0255744
0.0255769
0.0255794
0.0255819
0.0255844
0.0255869
0.0255894
0.0255919
0.0255944
0.0255969
0.0255995
0.025602
0.0256045
0.025607
0.0256096
0.0256121
0.0256146
0.0256171
0.0256197
0.0256222
0.0256247
0.0256273
0.0256298
0.0256323
0.0256348
0.0256374
0.0256399
0.0256424
0.025645
0.0256475
0.02565
0.0256526
0.0256551
0.0256576
0.0256602
0.0256627
0.0256652
0.0256677
0.0256703
0.0256728
0.0256753
0.0256778
0.0256803
0.0256829
0.0256854
0.0256879
0.0256904
0.0256929
0.0256954
0.0256979
0.0257004
0.0257029
0.0257054
0.0257079
0.0257104
0.0257129
0.0257153
0.0257178
0.0257203
0.0257228
0.0257252
0.0257277
0.0257301
0.0257326
0.025735
0.0257374
0.0257399
0.0257423
0.0257447
0.0257471
0.0257495
0.0257518
0.0257542
0.0257566
0.0257589
0.0257613
0.0257636
0.0257659
0.0257682
0.0257705
0.0257727
0.025775
0.0257772
0.0257794
0.0257816
0.0257838
0.0257859
0.025788
0.0257901
0.0257922
0.0257942
0.0257962
0.0257981
0.0258001
0.0258019
0.0258038
0.0258056
0.0258073
0.025809
0.0258106
0.0258122
0.0258137
0.0258152
0.0258165
0.0258178
0.0258191
0.0258202
0.0258213
0.0258222
0.0258231
0.0258239
0.0258245
0.025825
0.0258255
0.0258258
0.0258259
0.025826
0.0258258
0.0258256
0.0258251
0.0258245
0.0258238
0.0258228
0.0258217
0.0258204
0.0258189
0.0258171
0.0258152
0.025813
0.0258107
0.025808
0.0258052
0.025802
0.0257987
0.025795
0.0257911
0.025787
0.0257825
0.0257778
0.0257727
0.0257674
0.0257618
0.0257559
0.0257496
0.0257431
0.0257362
0.0257291
0.0257216
0.0257138
0.0257057
0.0256973
0.0256886
0.0256796
0.0256702
0.0256606
0.0256507
0.0256404
0.0256299
0.0256192
0.0256081
0.0255968
0.0255852
0.0255734
0.0255614
0.0255491
0.0255366
0.025524
0.0255111
0.0254981
0.025485
0.0254716
0.0254582
0.0254447
0.0254311
0.0254174
0.0254036
0.0253898
0.025376
0.0253622
0.0253484
0.0253346
0.0253209
0.0253072
0.0252936
0.0252801
0.0252668
0.0252536
0.0252405
0.0252276
0.0252149
0.0252024
0.0251901
0.025178
0.0251661
0.0251545
0.0251432
0.0251321
0.0251214
0.0251109
0.0251007
0.0250908
0.0250812
0.025072
0.0250631
0.0250545
0.0250462
0.0250382
0.0250306
0.0250234
0.0250164
0.0250098
0.0250035
0.0249975
0.0249918
0.0249865
0.0249815
0.0249767
0.0249722
0.0249681
0.0249642
0.0249605
0.0249572
0.024954
0.0249511
0.0249484
0.024946
0.0249437
0.0249416
0.0249397
0.0249379
0.0249363
0.0249349
0.0249335
0.0249323
0.0249312
0.0249301
0.0249292
0.0249282
0.0249274
0.0249265
0.0249257
0.0249249
0.0249241
0.0249233
0.0249224
0.0249215
0.0249206
0.0249196
0.0249185
0.0249174
0.0249161
0.0249148
0.0249133
0.0249117
0.02491
0.0249082
0.0249062
0.0249041
0.0249018
0.0248993
0.0248967
0.0248938
0.0248908
0.0248876
0.0248841
0.0248805
0.0248766
0.0248726
0.0248682
0.0248637
0.0248589
0.0248538
0.0248485
0.024843
0.0248371
0.024831
0.0248246
0.0248179
0.024811
0.0248036
0.0247963
0.024788
0.0247805
0.0247708
0.0247638
0.0247519
0.0247457
0.0247321
0.0247255
0.0247115
0.0247032
0.0246894
0.0246768
0.0246729
0.0246102
0.0246102
0.0246102
1
0.34491
0.200717
0.155038
0.131994
0.117742
0.107961
0.100808
0.0953573
0.0910828
0.0876357
0.084786
0.0824184
0.0805036
0.0790338
0.0779681
0.0772243
0.0767057
0.076333
0.0760569
0.0758539
0.075713
0.0756258
0.075582
0.0755692
0.0755756
0.0755915
0.0756102
0.0756281
0.0756436
0.0756565
0.0756671
0.0756761
0.075684
0.0756913
0.0756982
0.0757049
0.0757116
0.0757183
0.0757251
0.0757318
0.0757386
0.0757455
0.0757524
0.0757594
0.0757664
0.0757734
0.0757804
0.0757875
0.0757947
0.0758018
0.075809
0.0758162
0.0758234
0.0758307
0.075838
0.0758453
0.0758526
0.0758599
0.0758673
0.0758746
0.075882
0.0758894
0.0758969
0.0759043
0.0759118
0.0759192
0.0759267
0.0759343
0.0759418
0.0759493
0.0759569
0.0759644
0.075972
0.0759796
0.0759872
0.0759949
0.0760025
0.0760102
0.0760178
0.0760255
0.0760332
0.0760409
0.0760487
0.0760564
0.0760642
0.0760719
0.0760797
0.0760875
0.0760953
0.0761031
0.0761109
0.0761187
0.0761266
0.0761344
0.0761423
0.0761502
0.076158
0.0761659
0.0761738
0.0761818
0.0761897
0.0761976
0.0762055
0.0762135
0.0762214
0.0762294
0.0762374
0.0762454
0.0762533
0.0762613
0.0762693
0.0762773
0.0762853
0.0762934
0.0763014
0.0763094
0.0763174
0.0763255
0.0763335
0.0763416
0.0763496
0.0763577
0.0763657
0.0763738
0.0763819
0.0763899
0.076398
0.0764061
0.0764141
0.0764222
0.0764303
0.0764384
0.0764465
0.0764545
0.0764626
0.0764707
0.0764788
0.0764869
0.0764949
0.076503
0.0765111
0.0765192
0.0765272
0.0765353
0.0765434
0.0765515
0.0765595
0.0765676
0.0765756
0.0765837
0.0765917
0.0765998
0.0766078
0.0766158
0.0766239
0.0766319
0.0766399
0.0766479
0.0766559
0.0766638
0.0766718
0.0766798
0.0766877
0.0766957
0.0767036
0.0767115
0.0767194
0.0767273
0.0767352
0.0767431
0.0767509
0.0767587
0.0767665
0.0767743
0.0767821
0.0767898
0.0767975
0.0768052
0.0768129
0.0768205
0.0768281
0.0768357
0.0768432
0.0768507
0.0768582
0.0768656
0.076873
0.0768803
0.0768876
0.0768948
0.076902
0.0769091
0.0769161
0.0769231
0.0769299
0.0769368
0.0769435
0.0769501
0.0769566
0.0769631
0.0769694
0.0769756
0.0769817
0.0769877
0.0769935
0.0769991
0.0770047
0.07701
0.0770152
0.0770202
0.077025
0.0770296
0.0770339
0.0770381
0.077042
0.0770456
0.077049
0.077052
0.0770548
0.0770573
0.0770595
0.0770613
0.0770627
0.0770638
0.0770645
0.0770648
0.0770646
0.0770641
0.077063
0.0770615
0.0770595
0.077057
0.0770539
0.0770503
0.0770462
0.0770414
0.0770361
0.0770301
0.0770236
0.0770163
0.0770085
0.0769999
0.0769906
0.0769807
0.07697
0.0769586
0.0769465
0.0769336
0.07692
0.0769056
0.0768904
0.0768745
0.0768578
0.0768403
0.076822
0.0768029
0.0767831
0.0767625
0.0767411
0.076719
0.0766962
0.0766725
0.0766482
0.0766232
0.0765975
0.0765711
0.076544
0.0765163
0.076488
0.0764592
0.0764297
0.0763998
0.0763693
0.0763384
0.0763071
0.0762753
0.0762432
0.0762108
0.0761781
0.0761451
0.0761119
0.0760786
0.0760451
0.0760116
0.0759779
0.0759443
0.0759107
0.0758772
0.0758438
0.0758106
0.0757775
0.0757447
0.0757122
0.07568
0.0756481
0.0756166
0.0755855
0.0755549
0.0755248
0.0754952
0.0754661
0.0754376
0.0754097
0.0753824
0.0753557
0.0753298
0.0753044
0.0752798
0.0752559
0.0752327
0.0752102
0.0751884
0.0751674
0.0751471
0.0751276
0.0751088
0.0750907
0.0750734
0.0750568
0.0750409
0.0750257
0.0750112
0.0749973
0.0749841
0.0749716
0.0749597
0.0749484
0.0749377
0.0749275
0.0749179
0.0749088
0.0749002
0.074892
0.0748843
0.074877
0.0748701
0.0748635
0.0748573
0.0748513
0.0748456
0.0748402
0.0748349
0.0748299
0.074825
0.0748202
0.0748155
0.0748109
0.0748063
0.0748017
0.0747971
0.0747925
0.0747878
0.074783
0.074778
0.0747729
0.0747677
0.0747622
0.0747566
0.0747507
0.0747445
0.074738
0.0747312
0.0747241
0.0747167
0.0747088
0.0747006
0.074692
0.074683
0.0746735
0.0746635
0.0746531
0.0746421
0.0746307
0.0746187
0.0746062
0.0745931
0.0745795
0.0745652
0.0745504
0.0745349
0.0745189
0.074502
0.0744851
0.074466
0.0744491
0.0744264
0.0744113
0.0743832
0.0743706
0.0743379
0.0743248
0.0742914
0.0742742
0.0742414
0.0742134
0.0742045
0.0740419
0.0740419
0.0740419
1
0.518803
0.327476
0.255456
0.218006
0.194633
0.178524
0.166714
0.157705
0.150633
0.144928
0.140221
0.136325
0.133189
0.13079
0.129049
0.127829
0.126973
0.126357
0.125904
0.125575
0.125351
0.125216
0.12515
0.125134
0.125147
0.125174
0.125205
0.125235
0.12526
0.125281
0.125299
0.125314
0.125328
0.125341
0.125353
0.125365
0.125376
0.125388
0.1254
0.125412
0.125424
0.125436
0.125448
0.12546
0.125473
0.125485
0.125497
0.12551
0.125522
0.125535
0.125547
0.12556
0.125573
0.125585
0.125598
0.125611
0.125624
0.125637
0.125649
0.125662
0.125675
0.125688
0.125701
0.125714
0.125727
0.12574
0.125754
0.125767
0.12578
0.125793
0.125806
0.12582
0.125833
0.125846
0.125859
0.125873
0.125886
0.1259
0.125913
0.125926
0.12594
0.125953
0.125967
0.12598
0.125994
0.126008
0.126021
0.126035
0.126048
0.126062
0.126076
0.126089
0.126103
0.126117
0.126131
0.126144
0.126158
0.126172
0.126186
0.1262
0.126214
0.126228
0.126241
0.126255
0.126269
0.126283
0.126297
0.126311
0.126325
0.126339
0.126353
0.126367
0.126381
0.126395
0.126409
0.126423
0.126438
0.126452
0.126466
0.12648
0.126494
0.126508
0.126522
0.126536
0.126551
0.126565
0.126579
0.126593
0.126607
0.126621
0.126636
0.12665
0.126664
0.126678
0.126693
0.126707
0.126721
0.126735
0.126749
0.126764
0.126778
0.126792
0.126806
0.126821
0.126835
0.126849
0.126863
0.126878
0.126892
0.126906
0.12692
0.126934
0.126949
0.126963
0.126977
0.126991
0.127005
0.12702
0.127034
0.127048
0.127062
0.127076
0.12709
0.127105
0.127119
0.127133
0.127147
0.127161
0.127175
0.127189
0.127203
0.127217
0.127231
0.127245
0.127259
0.127273
0.127286
0.1273
0.127314
0.127328
0.127342
0.127355
0.127369
0.127382
0.127396
0.127409
0.127423
0.127436
0.12745
0.127463
0.127476
0.127489
0.127502
0.127515
0.127528
0.127541
0.127553
0.127566
0.127578
0.12759
0.127602
0.127614
0.127626
0.127638
0.127649
0.127661
0.127672
0.127683
0.127693
0.127704
0.127714
0.127724
0.127733
0.127743
0.127752
0.12776
0.127769
0.127777
0.127784
0.127791
0.127798
0.127804
0.12781
0.127816
0.12782
0.127825
0.127829
0.127832
0.127834
0.127836
0.127838
0.127838
0.127838
0.127837
0.127836
0.127833
0.12783
0.127826
0.127822
0.127816
0.127809
0.127802
0.127793
0.127784
0.127774
0.127762
0.12775
0.127737
0.127722
0.127707
0.12769
0.127672
0.127654
0.127634
0.127613
0.127591
0.127567
0.127543
0.127518
0.127491
0.127463
0.127435
0.127405
0.127374
0.127342
0.127309
0.127275
0.12724
0.127204
0.127167
0.12713
0.127091
0.127052
0.127012
0.126971
0.126929
0.126887
0.126844
0.1268
0.126756
0.126712
0.126667
0.126621
0.126576
0.12653
0.126484
0.126438
0.126392
0.126345
0.126299
0.126253
0.126207
0.126161
0.126115
0.12607
0.126025
0.12598
0.125936
0.125892
0.125849
0.125807
0.125765
0.125723
0.125683
0.125643
0.125604
0.125566
0.125529
0.125492
0.125457
0.125422
0.125388
0.125356
0.125324
0.125293
0.125263
0.125234
0.125206
0.125179
0.125153
0.125129
0.125105
0.125082
0.125059
0.125038
0.125018
0.124999
0.12498
0.124963
0.124946
0.12493
0.124915
0.1249
0.124886
0.124873
0.124861
0.124849
0.124837
0.124827
0.124816
0.124807
0.124797
0.124788
0.12478
0.124771
0.124763
0.124755
0.124748
0.12474
0.124733
0.124726
0.124719
0.124712
0.124705
0.124697
0.12469
0.124683
0.124675
0.124667
0.12466
0.124651
0.124643
0.124634
0.124625
0.124616
0.124606
0.124596
0.124585
0.124574
0.124562
0.12455
0.124537
0.124524
0.12451
0.124496
0.124481
0.124465
0.124449
0.124432
0.124414
0.124396
0.124376
0.124357
0.124335
0.124316
0.124289
0.124274
0.124239
0.124229
0.124187
0.124177
0.124135
0.124119
0.124078
0.124046
0.124039
0.123806
0.123806
0.123806
1
0.660933
0.446987
0.353017
0.302236
0.270157
0.247922
0.231573
0.219078
0.209258
0.201334
0.194803
0.189416
0.185094
0.181794
0.179395
0.177705
0.176513
0.175652
0.175023
0.174571
0.174268
0.174088
0.174004
0.173986
0.174007
0.174045
0.174088
0.174129
0.174164
0.174194
0.174219
0.174241
0.174261
0.174279
0.174297
0.174315
0.174332
0.17435
0.174367
0.174385
0.174402
0.17442
0.174438
0.174456
0.174474
0.174492
0.17451
0.174529
0.174547
0.174566
0.174584
0.174603
0.174621
0.17464
0.174659
0.174678
0.174697
0.174715
0.174734
0.174753
0.174772
0.174791
0.174811
0.17483
0.174849
0.174868
0.174887
0.174907
0.174926
0.174945
0.174965
0.174984
0.175004
0.175023
0.175043
0.175063
0.175082
0.175102
0.175122
0.175141
0.175161
0.175181
0.175201
0.175221
0.175241
0.175261
0.175281
0.175301
0.175321
0.175341
0.175361
0.175381
0.175401
0.175421
0.175442
0.175462
0.175482
0.175502
0.175523
0.175543
0.175564
0.175584
0.175604
0.175625
0.175645
0.175666
0.175686
0.175707
0.175728
0.175748
0.175769
0.175789
0.17581
0.175831
0.175851
0.175872
0.175893
0.175914
0.175935
0.175955
0.175976
0.175997
0.176018
0.176039
0.17606
0.176081
0.176101
0.176122
0.176143
0.176164
0.176185
0.176206
0.176227
0.176248
0.176269
0.17629
0.176311
0.176332
0.176353
0.176374
0.176396
0.176417
0.176438
0.176459
0.17648
0.176501
0.176522
0.176543
0.176564
0.176585
0.176607
0.176628
0.176649
0.17667
0.176691
0.176712
0.176733
0.176754
0.176775
0.176797
0.176818
0.176839
0.17686
0.176881
0.176902
0.176923
0.176944
0.176965
0.176986
0.177007
0.177028
0.177049
0.17707
0.177091
0.177112
0.177133
0.177154
0.177174
0.177195
0.177216
0.177237
0.177257
0.177278
0.177299
0.177319
0.17734
0.17736
0.17738
0.177401
0.177421
0.177441
0.177461
0.177481
0.177501
0.177521
0.17754
0.17756
0.177579
0.177599
0.177618
0.177637
0.177656
0.177675
0.177693
0.177711
0.17773
0.177747
0.177765
0.177783
0.1778
0.177817
0.177833
0.17785
0.177866
0.177881
0.177897
0.177911
0.177926
0.17794
0.177954
0.177967
0.177979
0.177992
0.178003
0.178014
0.178025
0.178034
0.178044
0.178052
0.17806
0.178067
0.178073
0.178079
0.178083
0.178087
0.17809
0.178092
0.178093
0.178093
0.178092
0.17809
0.178087
0.178083
0.178078
0.178072
0.178064
0.178056
0.178046
0.178035
0.178022
0.178009
0.177994
0.177978
0.17796
0.177941
0.177921
0.1779
0.177877
0.177853
0.177827
0.1778
0.177772
0.177743
0.177712
0.17768
0.177646
0.177612
0.177576
0.177539
0.1775
0.177461
0.177421
0.177379
0.177336
0.177293
0.177248
0.177202
0.177156
0.177109
0.177061
0.177012
0.176963
0.176913
0.176862
0.176812
0.17676
0.176709
0.176657
0.176604
0.176552
0.1765
0.176447
0.176395
0.176343
0.176291
0.176239
0.176187
0.176136
0.176086
0.176035
0.175986
0.175936
0.175888
0.17584
0.175793
0.175747
0.175701
0.175657
0.175613
0.175571
0.175529
0.175488
0.175448
0.17541
0.175372
0.175336
0.1753
0.175266
0.175233
0.175201
0.17517
0.175141
0.175112
0.175085
0.175059
0.175033
0.175009
0.174986
0.174964
0.174943
0.174923
0.174904
0.174887
0.174869
0.174853
0.174838
0.174824
0.17481
0.174797
0.174785
0.174774
0.174763
0.174753
0.174743
0.174734
0.174726
0.174717
0.17471
0.174703
0.174696
0.174689
0.174683
0.174676
0.17467
0.174665
0.174659
0.174653
0.174648
0.174642
0.174636
0.174631
0.174625
0.174619
0.174613
0.174606
0.1746
0.174593
0.174586
0.174579
0.174571
0.174563
0.174554
0.174545
0.174536
0.174526
0.174516
0.174505
0.174494
0.174482
0.17447
0.174457
0.174444
0.174431
0.174414
0.174403
0.174381
0.174374
0.174343
0.174343
0.174304
0.174306
0.174267
0.174262
0.174226
0.174203
0.174206
0.173934
0.173934
0.173934
1
0.776853
0.557932
0.447042
0.38435
0.344118
0.31603
0.295294
0.279409
0.266904
0.256808
0.248494
0.241652
0.236178
0.232
0.228955
0.226797
0.225264
0.224155
0.223346
0.222771
0.22239
0.222167
0.222066
0.222046
0.222075
0.222124
0.22218
0.222231
0.222277
0.222315
0.222348
0.222377
0.222403
0.222428
0.222452
0.222476
0.222499
0.222523
0.222547
0.222571
0.222594
0.222619
0.222643
0.222667
0.222692
0.222716
0.222741
0.222766
0.222791
0.222815
0.222841
0.222866
0.222891
0.222916
0.222941
0.222967
0.222992
0.223018
0.223043
0.223069
0.223095
0.22312
0.223146
0.223172
0.223198
0.223224
0.22325