# vtk DataFile Version 2.0
FlowField
ASCII
DATASET STRUCTURED_GRID
DIMENSIONS 400 1 200
POINTS 80000 float
0 0 0
0.08 0 0
0.16 0 0
0.24 0 0
0.32 0 0
0.4 0 0
0.48 0 0
0.56 0 0
0.64 0 0
0.72 0 0
0.8 0 0
0.88 0 0
0.96 0 0
1.04 0 0
1.12 0 0
1.2 0 0
1.28 0 0
1.36 0 0
1.44 0 0
1.52 0 0
1.6 0 0
1.68 0 0
1.76 0 0
1.84 0 0
1.92 0 0
2 0 0
2.08 0 0
2.16 0 0
2.24 0 0
2.32 0 0
2.4 0 0
2.48 0 0
2.56 0 0
2.64 0 0
2.72 0 0
2.8 0 0
2.88 0 0
2.96 0 0
3.04 0 0
3.12 0 0
3.2 0 0
3.28 0 0
3.36 0 0
3.44 0 0
3.52 0 0
3.6 0 0
3.68 0 0
3.76 0 0
3.84 0 0
3.92 0 0
4 0 0
4.08 0 0
4.16 0 0
4.24 0 0
4.32 0 0
4.4 0 0
4.48 0 0
4.56 0 0
4.64 0 0
4.72 0 0
4.8 0 0
4.88 0 0
4.96 0 0
5.04 0 0
5.12 0 0
5.2 0 0
5.28 0 0
5.36 0 0
5.44 0 0
5.52 0 0
5.6 0 0
5.68 0 0
5.76 0 0
5.84 0 0
5.92 0 0
6 0 0
6.08 0 0
6.16 0 0
6.24 0 0
6.32 0 0
6.4 0 0
6.48 0 0
6.56 0 0
6.64 0 0
6.72 0 0
6.8 0 0
6.88 0 0
6.96 0 0
7.04 0 0
7.12 0 0
7.2 0 0
7.28 0 0
7.36 0 0
7.44 0 0
7.52 0 0
7.6 0 0
7.68 0 0
7.76 0 0
7.84 0 0
7.92 0 0
8 0 0
8.08 0 0
8.16 0 0
8.24 0 0
8.32 0 0
8.4 0 0
8.48 0 0
8.56 0 0
8.64 0 0
8.72 0 0
8.8 0 0
8.88 0 0
8.96 0 0
9.04 0 0
9.12 0 0
9.2 0 0
9.28 0 0
9.36 0 0
9.44 0 0
9.52 0 0
9.6 0 0
9.68 0 0
9.76 0 0
9.84 0 0
9.92 0 0
10 0 0
10.08 0 0
10.16 0 0
10.24 0 0
10.32 0 0
10.4 0 0
10.48 0 0
10.56 0 0
10.64 0 0
10.72 0 0
10.8 0 0
10.88 0 0
10.96 0 0
11.04 0 0
11.12 0 0
11.2 0 0
11.28 0 0
11.36 0 0
11.44 0 0
11.52 0 0
11.6 0 0
11.68 0 0
11.76 0 0
11.84 0 0
11.92 0 0
12 0 0
12.08 0 0
12.16 0 0
12.24 0 0
12.32 0 0
12.4 0 0
12.48 0 0
12.56 0 0
12.64 0 0
12.72 0 0
12.8 0 0
12.88 0 0
12.96 0 0
13.04 0 0
13.12 0 0
13.2 0 0
13.28 0 0
13.36 0 0
13.44 0 0
13.52 0 0
13.6 0 0
13.68 0 0
13.76 0 0
13.84 0 0
13.92 0 0
14 0 0
14.08 0 0
14.16 0 0
14.24 0 0
14.32 0 0
14.4 0 0
14.48 0 0
14.56 0 0
14.64 0 0
14.72 0 0
14.8 0 0
14.88 0 0
14.96 0 0
15.04 0 0
15.12 0 0
15.2 0 0
15.28 0 0
15.36 0 0
15.44 0 0
15.52 0 0
15.6 0 0
15.68 0 0
15.76 0 0
15.84 0 0
15.92 0 0
16 0 0
16.08 0 0
16.16 0 0
16.24 0 0
16.32 0 0
16.4 0 0
16.48 0 0
16.56 0 0
16.64 0 0
16.72 0 0
16.8 0 0
16.88 0 0
16.96 0 0
17.04 0 0
17.12 0 0
17.2 0 0
17.28 0 0
17.36 0 0
17.44 0 0
17.52 0 0
17.6 0 0
17.68 0 0
17.76 0 0
17.84 0 0
17.92 0 0
18 0 0
18.08 0 0
18.16 0 0
18.24 0 0
18.32 0 0
18.4 0 0
18.48 0 0
18.56 0 0
18.64 0 0
18.72 0 0
18.8 0 0
18.88 0 0
18.96 0 0
19.04 0 0
19.12 0 0
19.2 0 0
19.28 0 0
19.36 0 0
19.44 0 0
19.52 0 0
19.6 0 0
19.68 0 0
19.76 0 0
19.84 0 0
19.92 0 0
20 0 0
20.08 0 0
20.16 0 0
20.24 0 0
20.32 0 0
20.4 0 0
20.48 0 0
20.56 0 0
20.64 0 0
20.72 0 0
20.8 0 0
20.88 0 0
20.96 0 0
21.04 0 0
21.12 0 0
21.2 0 0
21.28 0 0
21.36 0 0
21.44 0 0
21.52 0 0
21.6 0 0
21.68 0 0
21.76 0 0
21.84 0 0
21.92 0 0
22 0 0
22.08 0 0
22.16 0 0
22.24 0 0
22.32 0 0
22.4 0 0
22.48 0 0
22.56 0 0
22.64 0 0
22.72 0 0
22.8 0 0
22.88 0 0
22.96 0 0
23.04 0 0
23.12 0 0
23.2 0 0
23.28 0 0
23.36 0 0
23.44 0 0
23.52 0 0
23.6 0 0
23.68 0 0
23.76 0 0
23.84 0 0
23.92 0 0
24 0 0
24.08 0 0
24.16 0 0
24.24 0 0
24.32 0 0
24.4 0 0
24.48 0 0
24.56 0 0
24.64 0 0
24.72 0 0
24.8 0 0
24.88 0 0
24.96 0 0
25.04 0 0
25.12 0 0
25.2 0 0
25.28 0 0
25.36 0 0
25.44 0 0
25.52 0 0
25.6 0 0
25.68 0 0
25.76 0 0
25.84 0 0
25.92 0 0
26 0 0
26.08 0 0
26.16 0 0
26.24 0 0
26.32 0 0
26.4 0 0
26.48 0 0
26.56 0 0
26.64 0 0
26.72 0 0
26.8 0 0
26.88 0 0
26.96 0 0
27.04 0 0
27.12 0 0
27.2 0 0
27.28 0 0
27.36 0 0
27.44 0 0
27.52 0 0
27.6 0 0
27.68 0 0
27.76 0 0
27.84 0 0
27.92 0 0
28 0 0
28.08 0 0
28.16 0 0
28.24 0 0
28.32 0 0
28.4 0 0
28.48 0 0
28.56 0 0
28.64 0 0
28.72 0 0
28.8 0 0
28.88 0 0
28.96 0 0
29.04 0 0
29.12 0 0
29.2 0 0
29.28 0 0
29.36 0 0
29.44 0 0
29.52 0 0
29.6 0 0
29.68 0 0
29.76 0 0
29.84 0 0
29.92 0 0
30 0 0
30.08 0 0
30.16 0 0
30.24 0 0
30.32 0 0
30.4 0 0
30.48 0 0
30.56 0 0
30.64 0 0
30.72 0 0
30.8 0 0
30.88 0 0
30.96 0 0
31.04 0 0
31.12 0 0
31.2 0 0
31.28 0 0
31.36 0 0
31.44 0 0
31.52 0 0
31.6 0 0
31.68 0 0
31.76 0 0
31.84 0 0
31.92 0 0
0 0.005 0
0.08 0.005 0
0.16 0.005 0
0.24 0.005 0
0.32 0.005 0
0.4 0.005 0
0.48 0.005 0
0.56 0.005 0
0.64 0.005 0
0.72 0.005 0
0.8 0.005 0
0.88 0.005 0
0.96 0.005 0
1.04 0.005 0
1.12 0.005 0
1.2 0.005 0
1.28 0.005 0
1.36 0.005 0
1.44 0.005 0
1.52 0.005 0
1.6 0.005 0
1.68 0.005 0
1.76 0.005 0
1.84 0.005 0
1.92 0.005 0
2 0.005 0
2.08 0.005 0
2.16 0.005 0
2.24 0.005 0
2.32 0.005 0
2.4 0.005 0
2.48 0.005 0
2.56 0.005 0
2.64 0.005 0
2.72 0.005 0
2.8 0.005 0
2.88 0.005 0
2.96 0.005 0
3.04 0.005 0
3.12 0.005 0
3.2 0.005 0
3.28 0.005 0
3.36 0.005 0
3.44 0.005 0
3.52 0.005 0
3.6 0.005 0
3.68 0.005 0
3.76 0.005 0
3.84 0.005 0
3.92 0.005 0
4 0.005 0
4.08 0.005 0
4.16 0.005 0
4.24 0.005 0
4.32 0.005 0
4.4 0.005 0
4.48 0.005 0
4.56 0.005 0
4.64 0.005 0
4.72 0.005 0
4.8 0.005 0
4.88 0.005 0
4.96 0.005 0
5.04 0.005 0
5.12 0.005 0
5.2 0.005 0
5.28 0.005 0
5.36 0.005 0
5.44 0.005 0
5.52 0.005 0
5.6 0.005 0
5.68 0.005 0
5.76 0.005 0
5.84 0.005 0
5.92 0.005 0
6 0.005 0
6.08 0.005 0
6.16 0.005 0
6.24 0.005 0
6.32 0.005 0
6.4 0.005 0
6.48 0.005 0
6.56 0.005 0
6.64 0.005 0
6.72 0.005 0
6.8 0.005 0
6.88 0.005 0
6.96 0.005 0
7.04 0.005 0
7.12 0.005 0
7.2 0.005 0
7.28 0.005 0
7.36 0.005 0
7.44 0.005 0
7.52 0.005 0
7.6 0.005 0
7.68 0.005 0
7.76 0.005 0
7.84 0.005 0
7.92 0.005 0
8 0.005 0
8.08 0.005 0
8.16 0.005 0
8.24 0.005 0
8.32 0.005 0
8.4 0.005 0
8.48 0.005 0
8.56 0.005 0
8.64 0.005 0
8.72 0.005 0
8.8 0.005 0
8.88 0.005 0
8.96 0.005 0
9.04 0.005 0
9.12 0.005 0
9.2 0.005 0
9.28 0.005 0
9.36 0.005 0
9.44 0.005 0
9.52 0.005 0
9.6 0.005 0
9.68 0.005 0
9.76 0.005 0
9.84 0.005 0
9.92 0.005 0
10 0.005 0
10.08 0.005 0
10.16 0.005 0
10.24 0.005 0
10.32 0.005 0
10.4 0.005 0
10.48 0.005 0
10.56 0.005 0
10.64 0.005 0
10.72 0.005 0
10.8 0.005 0
10.88 0.005 0
10.96 0.005 0
11.04 0.005 0
11.12 0.005 0
11.2 0.005 0
11.28 0.005 0
11.36 0.005 0
11.44 0.005 0
11.52 0.005 0
11.6 0.005 0
11.68 0.005 0
11.76 0.005 0
11.84 0.005 0
11.92 0.005 0
12 0.005 0
12.08 0.005 0
12.16 0.005 0
12.24 0.005 0
12.32 0.005 0
12.4 0.005 0
12.48 0.005 0
12.56 0.005 0
12.64 0.005 0
12.72 0.005 0
12.8 0.005 0
12.88 0.005 0
12.96 0.005 0
13.04 0.005 0
13.12 0.005 0
13.2 0.005 0
13.28 0.005 0
13.36 0.005 0
13.44 0.005 0
13.52 0.005 0
13.6 0.005 0
13.68 0.005 0
13.76 0.005 0
13.84 0.005 0
13.92 0.005 0
14 0.005 0
14.08 0.005 0
14.16 0.005 0
14.24 0.005 0
14.32 0.005 0
14.4 0.005 0
14.48 0.005 0
14.56 0.005 0
14.64 0.005 0
14.72 0.005 0
14.8 0.005 0
14.88 0.005 0
14.96 0.005 0
15.04 0.005 0
15.12 0.005 0
15.2 0.005 0
15.28 0.005 0
15.36 0.005 0
15.44 0.005 0
15.52 0.005 0
15.6 0.005 0
15.68 0.005 0
15.76 0.005 0
15.84 0.005 0
15.92 0.005 0
16 0.005 0
16.08 0.005 0
16.16 0.005 0
16.24 0.005 0
16.32 0.005 0
16.4 0.005 0
16.48 0.005 0
16.56 0.005 0
16.64 0.005 0
16.72 0.005 0
16.8 0.005 0
16.88 0.005 0
16.96 0.005 0
17.04 0.005 0
17.12 0.005 0
17.2 0.005 0
17.28 0.005 0
17.36 0.005 0
17.44 0.005 0
17.52 0.005 0
17.6 0.005 0
17.68 0.005 0
17.76 0.005 0
17.84 0.005 0
17.92 0.005 0
18 0.005 0
18.08 0.005 0
18.16 0.005 0
18.24 0.005 0
18.32 0.005 0
18.4 0.005 0
18.48 0.005 0
18.56 0.005 0
18.64 0.005 0
18.72 0.005 0
18.8 0.005 0
18.88 0.005 0
18.96 0.005 0
19.04 0.005 0
19.12 0.005 0
19.2 0.005 0
19.28 0.005 0
19.36 0.005 0
19.44 0.005 0
19.52 0.005 0
19.6 0.005 0
19.68 0.005 0
19.76 0.005 0
19.84 0.005 0
19.92 0.005 0
20 0.005 0
20.08 0.005 0
20.16 0.005 0
20.24 0.005 0
20.32 0.005 0
20.4 0.005 0
20.48 0.005 0
20.56 0.005 0
20.64 0.005 0
20.72 0.005 0
20.8 0.005 0
20.88 0.005 0
20.96 0.005 0
21.04 0.005 0
21.12 0.005 0
21.2 0.005 0
21.28 0.005 0
21.36 0.005 0
21.44 0.005 0
21.52 0.005 0
21.6 0.005 0
21.68 0.005 0
21.76 0.005 0
21.84 0.005 0
21.92 0.005 0
22 0.005 0
22.08 0.005 0
22.16 0.005 0
22.24 0.005 0
22.32 0.005 0
22.4 0.005 0
22.48 0.005 0
22.56 0.005 0
22.64 0.005 0
22.72 0.005 0
22.8 0.005 0
22.88 0.005 0
22.96 0.005 0
23.04 0.005 0
23.12 0.005 0
23.2 0.005 0
23.28 0.005 0
23.36 0.005 0
23.44 0.005 0
23.52 0.005 0
23.6 0.005 0
23.68 0.005 0
23.76 0.005 0
23.84 0.005 0
23.92 0.005 0
24 0.005 0
24.08 0.005 0
24.16 0.005 0
24.24 0.005 0
24.32 0.005 0
24.4 0.005 0
24.48 0.005 0
24.56 0.005 0
24.64 0.005 0
24.72 0.005 0
24.8 0.005 0
24.88 0.005 0
24.96 0.005 0
25.04 0.005 0
25.12 0.005 0
25.2 0.005 0
25.28 0.005 0
25.36 0.005 0
25.44 0.005 0
25.52 0.005 0
25.6 0.005 0
25.68 0.005 0
25.76 0.005 0
25.84 0.005 0
25.92 0.005 0
26 0.005 0
26.08 0.005 0
26.16 0.005 0
26.24 0.005 0
26.32 0.005 0
26.4 0.005 0
26.48 0.005 0
26.56 0.005 0
26.64 0.005 0
26.72 0.005 0
26.8 0.005 0
26.88 0.005 0
26.96 0.005 0
27.04 0.005 0
27.12 0.005 0
27.2 0.005 0
27.28 0.005 0
27.36 0.005 0
27.44 0.005 0
27.52 0.005 0
27.6 0.005 0
27.68 0.005 0
27.76 0.005 0
27.84 0.005 0
27.92 0.005 0
28 0.005 0
28.08 0.005 0
28.16 0.005 0
28.24 0.005 0
28.32 0.005 0
28.4 0.005 0
28.48 0.005 0
28.56 0.005 0
28.64 0.005 0
28.72 0.005 0
28.8 0.005 0
28.88 0.005 0
28.96 0.005 0
29.04 0.005 0
29.12 0.005 0
29.2 0.005 0
29.28 0.005 0
29.36 0.005 0
29.44 0.005 0
29.52 0.005 0
29.6 0.005 0
29.68 0.005 0
29.76 0.005 0
29.84 0.005 0
29.92 0.005 0
30 0.005 0
30.08 0.005 0
30.16 0.005 0
30.24 0.005 0
30.32 0.005 0
30.4 0.005 0
30.48 0.005 0
30.56 0.005 0
30.64 0.005 0
30.72 0.005 0
30.8 0.005 0
30.88 0.005 0
30.96 0.005 0
31.04 0.005 0
31.12 0.005 0
31.2 0.005 0
31.28 0.005 0
31.36 0.005 0
31.44 0.005 0
31.52 0.005 0
31.6 0.005 0
31.68 0.005 0
31.76 0.005 0
31.84 0.005 0
31.92 0.005 0
0 0.01 0
0.08 0.01 0
0.16 0.01 0
0.24 0.01 0
0.32 0.01 0
0.4 0.01 0
0.48 0.01 0
0.56 0.01 0
0.64 0.01 0
0.72 0.01 0
0.8 0.01 0
0.88 0.01 0
0.96 0.01 0
1.04 0.01 0
1.12 0.01 0
1.2 0.01 0
1.28 0.01 0
1.36 0.01 0
1.44 0.01 0
1.52 0.01 0
1.6 0.01 0
1.68 0.01 0
1.76 0.01 0
1.84 0.01 0
1.92 0.01 0
2 0.01 0
2.08 0.01 0
2.16 0.01 0
2.24 0.01 0
2.32 0.01 0
2.4 0.01 0
2.48 0.01 0
2.56 0.01 0
2.64 0.01 0
2.72 0.01 0
2.8 0.01 0
2.88 0.01 0
2.96 0.01 0
3.04 0.01 0
3.12 0.01 0
3.2 0.01 0
3.28 0.01 0
3.36 0.01 0
3.44 0.01 0
3.52 0.01 0
3.6 0.01 0
3.68 0.01 0
3.76 0.01 0
3.84 0.01 0
3.92 0.01 0
4 0.01 0
4.08 0.01 0
4.16 0.01 0
4.24 0.01 0
4.32 0.01 0
4.4 0.01 0
4.48 0.01 0
4.56 0.01 0
4.64 0.01 0
4.72 0.01 0
4.8 0.01 0
4.88 0.01 0
4.96 0.01 0
5.04 0.01 0
5.12 0.01 0
[...]
POINT_DATA 80000

SCALARS p float 1
LOOKUP_TABLE default
1
56.7101
56.4083
56.3672
56.3471
56.3327
56.3206
56.3099
56.2999
56.2904
56.2812
56.2724
56.2638
56.2554
56.2472
56.2391
56.2313
56.2236
56.2161
56.2087
56.2015
56.1944
56.1874
56.1806
56.1739
56.1672
56.1607
56.1543
56.148
56.1418
56.1356
56.1296
56.1236
56.1177
56.1119
56.1061
56.1005
56.0949
56.0893
56.0839
56.0785
56.0732
56.0679
56.0628
56.0577
56.0526
56.0477
56.0428
56.0381
56.0334
56.0287
56.0241
56.0196
56.0151
56.0106
56.0062
56.0019
55.9975
55.9932
55.989
55.9848
55.9805
55.9764
55.9722
55.968
55.9639
55.9598
55.9557
55.9517
55.9477
55.9437
55.9397
55.9357
55.9318
55.9279
55.924
55.9201
55.9162
55.9123
55.9084
55.9045
55.9006
55.8967
55.8928
55.8889
55.8851
55.8812
55.8773
55.8734
55.8695
55.8656
55.8617
55.8578
55.8539
55.85
55.8462
55.8423
55.8384
55.8345
55.8306
55.8267
55.8228
55.8189
55.815
55.8111
55.8072
55.8033
55.7994
55.7956
55.7917
55.7878
55.7839
55.78
55.7761
55.7722
55.7683
55.7644
55.7605
55.7566
55.7527
55.7488
55.7449
55.741
55.7371
55.7332
55.7293
55.7255
55.7216
55.7177
55.7138
55.7099
55.706
55.7021
55.6982
55.6943
55.6904
55.6865
55.6826
55.6787
55.6748
55.6709
55.667
55.6631
55.6592
55.6553
55.6514
55.6475
55.6436
55.6397
55.6358
55.6319
55.628
55.6241
55.6202
55.6163
55.6124
55.6085
55.6046
55.6007
55.5968
55.5929
55.589
55.5851
55.5812
55.5773
55.5734
55.5695
55.5656
55.5617
55.5578
55.5539
55.55
55.5461
55.5422
55.5383
55.5344
55.5305
55.5266
55.5227
55.5188
55.5149
55.511
55.5071
55.5032
55.4993
55.4953
55.4914
55.4875
55.4836
55.4797
55.4758
55.4719
55.468
55.4641
55.4602
55.4563
55.4524
55.4485
55.4446
55.4407
55.4368
55.4329
55.429
55.425
55.4211
55.4172
55.4133
55.4094
55.4055
55.4016
55.3977
55.3938
55.3899
55.386
55.3821
55.3782
55.3742
55.3703
55.3664
55.3625
55.3586
55.3547
55.3508
55.3469
55.343
55.3391
55.3351
55.3312
55.3273
55.3234
55.3195
55.3156
55.3117
55.3078
55.3039
55.2999
55.296
55.2921
55.2882
55.2843
55.2804
55.2765
55.2726
55.2686
55.2647
55.2608
55.2569
55.253
55.2491
55.2452
55.2412
55.2373
55.2334
55.2295
55.2256
55.2217
55.2178
55.2138
55.2099
55.206
55.2021
55.1982
55.1943
55.1903
55.1864
55.1825
55.1786
55.1747
55.1708
55.1668
55.1629
55.159
55.1551
55.1512
55.1472
55.1433
55.1394
55.1355
55.1316
55.1277
55.1237
55.1198
55.1159
55.112
55.1081
55.1041
55.1002
55.0963
55.0924
55.0884
55.0845
55.0806
55.0767
55.0728
55.0688
55.0649
55.061
55.0571
55.0531
55.0492
55.0453
55.0414
55.0375
55.0335
55.0296
55.0257
55.0218
55.0178
55.0139
55.01
55.0061
55.0021
54.9982
54.9943
54.9904
54.9864
54.9825
54.9786
54.9747
54.9707
54.9668
54.9629
54.9589
54.955
54.9511
54.9472
54.9432
54.9393
54.9354
54.9314
54.9275
54.9236
54.9197
54.9157
54.9118
54.9079
54.9039
54.9
54.8961
54.8921
54.8882
54.8843
54.8804
54.8764
54.8725
54.8686
54.8646
54.8607
54.8568
54.8528
54.8489
54.845
54.841
54.8371
54.8332
54.8292
54.8253
54.8214
54.8174
54.8135
54.8096
54.8056
54.8017
54.7978
54.7938
54.7899
54.7859
54.782
54.7781
54.7741
54.7702
54.7663
54.7623
54.7584
54.7545
54.7505
54.7466
54.7426
54.7387
54.7348
54.7308
54.7269
54.7229
54.719
54.7151
54.7111
54.7072
54.7032
54.6993
54.6954
54.6914
54.6875
54.6835
54.6796
54.6757
54.6717
54.6678
54.6638
54.6599
0.5
56.7101
56.7101
56.4083
56.3672
56.3471
56.3327
56.3206
56.3099
56.2999
56.2904
56.2812
56.2724
56.2638
56.2554
56.2472
56.2391
56.2313
56.2236
56.2161
56.2087
56.2015
56.1944
56.1874
56.1806
56.1739
56.1672
56.1607
56.1543
56.148
56.1418
56.1356
56.1296
56.1236
56.1177
56.1119
56.1061
56.1005
56.0949
56.0893
56.0839
56.0785
56.0732
56.0679
56.0628
56.0577
56.0526
56.0477
56.0428
56.0381
56.0334
56.0287
56.0241
56.0196
56.0151
56.0106
56.0062
56.0019
55.9975
55.9932
55.989
55.9848
55.9805
55.9764
55.9722
55.968
55.9639
55.9598
55.9557
55.9517
55.9477
55.9437
55.9397
55.9357
55.9318
55.9279
55.924
55.9201
55.9162
55.9123
55.9084
55.9045
55.9006
55.8967
55.8928
55.8889
55.8851
55.8812
55.8773
55.8734
55.8695
55.8656
55.8617
55.8578
55.8539
55.85
55.8462
55.8423
55.8384
55.8345
55.8306
55.8267
55.8228
55.8189
55.815
55.8111
55.8072
55.8033
55.7994
55.7956
55.7917
55.7878
55.7839
55.78
55.7761
55.7722
55.7683
55.7644
55.7605
55.7566
55.7527
55.7488
55.7449
55.741
55.7371
55.7332
55.7293
55.7255
55.7216
55.7177
55.7138
55.7099
55.706
55.7021
55.6982
55.6943
55.6904
55.6865
55.6826
55.6787
55.6748
55.6709
55.667
55.6631
55.6592
55.6553
55.6514
55.6475
55.6436
55.6397
55.6358
55.6319
55.628
55.6241
55.6202
55.6163
55.6124
55.6085
55.6046
55.6007
55.5968
55.5929
55.589
55.5851
55.5812
55.5773
55.5734
55.5695
55.5656
55.5617
55.5578
55.5539
55.55
55.5461
55.5422
55.5383
55.5344
55.5305
55.5266
55.5227
55.5188
55.5149
55.511
55.5071
55.5032
55.4993
55.4953
55.4914
55.4875
55.4836
55.4797
55.4758
55.4719
55.468
55.4641
55.4602
55.4563
55.4524
55.4485
55.4446
55.4407
55.4368
55.4329
55.429
55.425
55.4211
55.4172
55.4133
55.4094
55.4055
55.4016
55.3977
55.3938
55.3899
55.386
55.3821
55.3782
55.3742
55.3703
55.3664
55.3625
55.3586
55.3547
55.3508
55.3469
55.343
55.3391
55.3351
55.3312
55.3273
55.3234
55.3195
55.3156
55.3117
55.3078
55.3039
55.2999
55.296
55.2921
55.2882
55.2843
55.2804
55.2765
55.2726
55.2686
55.2647
55.2608
55.2569
55.253
55.2491
55.2452
55.2412
55.2373
55.2334
55.2295
55.2256
55.2217
55.2178
55.2138
55.2099
55.206
55.2021
55.1982
55.1943
55.1903
55.1864
55.1825
55.1786
55.1747
55.1708
55.1668
55.1629
55.159
55.1551
55.1512
55.1472
55.1433
55.1394
55.1355
55.1316
55.1277
55.1237
55.1198
55.1159
55.112
55.1081
55.1041
55.1002
55.0963
55.0924
55.0884
55.0845
55.0806
55.0767
55.0728
55.0688
55.0649
55.061
55.0571
55.0531
55.0492
55.0453
55.0414
55.0375
55.0335
55.0296
55.0257
55.0218
55.0178
55.0139
55.01
55.0061
55.0021
54.9982
54.9943
54.9904
54.9864
54.9825
54.9786
54.9747
54.9707
54.9668
54.9629
54.9589
54.955
54.9511
54.9472
54.9432
54.9393
54.9354
54.9314
54.9275
54.9236
54.9197
54.9157
54.9118
54.9079
54.9039
54.9
54.8961
54.8921
54.8882
54.8843
54.8804
54.8764
54.8725
54.8686
54.8646
54.8607
54.8568
54.8528
54.8489
54.845
54.841
54.8371
54.8332
54.8292
54.8253
54.8214
54.8174
54.8135
54.8096
54.8056
54.8017
54.7978
54.7938
54.7899
54.7859
54.782
54.7781
54.7741
54.7702
54.7663
54.7623
54.7584
54.7545
54.7505
54.7466
54.7426
54.7387
54.7348
54.7308
54.7269
54.7229
54.719
54.7151
54.7111
54.7072
54.7032
54.6993
54.6954
54.6914
54.6875
54.6835
54.6796
54.6757
54.6717
54.6678
54.6638
54.6599
54.6599
56.6955
56.6955
56.4122
56.3684
56.3477
56.333
56.3209
56.3101
56.3001
56.2905
56.2813
56.2725
56.2638
56.2554
56.2472
56.2392
56.2313
56.2236
56.2161
56.2087
56.2015
56.1944
56.1875
56.1806
56.1739
56.1673
56.1607
56.1543
56.148
56.1418
56.1356
56.1296
56.1236
56.1177
56.1119
56.1062
56.1005
56.0949
56.0893
56.0839
56.0785
56.0732
56.0679
56.0628
56.0577
56.0527
56.0477
56.0429
56.0381
56.0334
56.0287
56.0241
56.0196
56.0151
56.0106
56.0062
56.0019
55.9975
55.9932
55.989
55.9848
55.9805
55.9764
55.9722
55.968
55.9639
55.9598
55.9557
55.9517
55.9477
55.9437
55.9397
55.9357
55.9318
55.9279
55.924
55.9201
55.9162
55.9123
55.9084
55.9045
55.9006
55.8967
55.8928
55.8889
55.8851
55.8812
55.8773
55.8734
55.8695
55.8656
55.8617
55.8578
55.8539
55.85
55.8462
55.8423
55.8384
55.8345
55.8306
55.8267
55.8228
55.8189
55.815
55.8111
55.8072
55.8033
55.7994
55.7956
55.7917
55.7878
55.7839
55.78
55.7761
55.7722
55.7683
55.7644
55.7605
55.7566
55.7527
55.7488
55.7449
55.741
55.7371
55.7332
55.7293
55.7255
55.7216
55.7177
55.7138
55.7099
55.706
55.7021
55.6982
55.6943
55.6904
55.6865
55.6826
55.6787
55.6748
55.6709
55.667
55.6631
55.6592
55.6553
55.6514
55.6475
55.6436
55.6397
55.6358
55.6319
55.628
55.6241
55.6202
55.6163
55.6124
55.6085
55.6046
55.6007
55.5968
55.5929
55.589
55.5851
55.5812
55.5773
55.5734
55.5695
55.5656
55.5617
55.5578
55.5539
55.55
55.5461
55.5422
55.5383
55.5344
55.5305
55.5266
55.5227
55.5188
55.5149
55.511
55.5071
55.5032
55.4993
55.4953
55.4914
55.4875
55.4836
55.4797
55.4758
55.4719
55.468
55.4641
55.4602
55.4563
55.4524
55.4485
55.4446
55.4407
55.4368
55.4329
55.429
55.425
55.4211
55.4172
55.4133
55.4094
55.4055
55.4016
55.3977
55.3938
55.3899
55.386
55.3821
55.3782
55.3742
55.3703
55.3664
55.3625
55.3586
55.3547
55.3508
55.3469
55.343
55.3391
55.3351
55.3312
55.3273
55.3234
55.3195
55.3156
55.3117
55.3078
55.3039
55.2999
55.296
55.2921
55.2882
55.2843
55.2804
55.2765
55.2726
55.2686
55.2647
55.2608
55.2569
55.253
55.2491
55.2452
55.2412
55.2373
55.2334
55.2295
55.2256
55.2217
55.2178
55.2138
55.2099
55.206
55.2021
55.1982
55.1943
55.1903
55.1864
55.1825
55.1786
55.1747
55.1708
55.1668
55.1629
55.159
55.1551
55.1512
55.1472
55.1433
55.1394
55.1355
55.1316
55.1277
55.1237
55.1198
55.1159
55.112
55.1081
55.1041
55.1002
55.0963
55.0924
55.0884
55.0845
55.0806
55.0767
55.0728
55.0688
55.0649
55.061
55.0571
55.0531
55.0492
55.0453
55.0414
55.0375
55.0335
55.0296
55.0257
55.0218
55.0178
55.0139
55.01
55.0061
55.0021
54.9982
54.9943
54.9904
54.9864
54.9825
54.9786
54.9747
54.9707
54.9668
54.9629
54.9589
54.955
54.9511
54.9472
54.9432
54.9393
54.9354
54.9314
54.9275
54.9236
54.9197
54.9157
54.9118
54.9079
54.9039
54.9
54.8961
54.8921
54.8882
54.8843
54.8804
54.8764
54.8725
54.8686
54.8646
54.8607
54.8568
54.8528
54.8489
54.845
54.841
54.8371
54.8332
54.8292
54.8253
54.8214
54.8174
54.8135
54.8096
54.8056
54.8017
54.7978
54.7938
54.7899
54.7859
54.782
54.7781
54.7741
54.7702
54.7663
54.7623
54.7584
54.7545
54.7505
54.7466
54.7426
54.7387
54.7348
54.7308
54.7269
54.7229
54.719
54.7151
54.7111
54.7072
54.7032
54.6993
54.6954
54.6914
54.6875
54.6835
54.6796
54.6757
54.6717
54.6678
54.6638
54.6599
54.6599
56.6795
56.6795
56.4154
56.3696
56.3483
56.3334
56.3212
56.3103
56.3002
56.2906
56.2814
56.2725
56.2639
56.2555
56.2473
56.2392
56.2314
56.2237
56.2162
56.2088
56.2015
56.1944
56.1875
56.1806
56.1739
56.1673
56.1608
56.1543
56.148
56.1418
56.1357
56.1296
56.1236
56.1177
56.1119
56.1062
56.1005
56.0949
56.0894
56.0839
56.0785
56.0732
56.0679
56.0628
56.0577
56.0527
56.0477
56.0429
56.0381
56.0334
56.0287
56.0241
56.0196
56.0151
56.0106
56.0062
56.0019
55.9975
55.9932
55.989
55.9848
55.9805
55.9764
55.9722
55.968
55.9639
55.9598
55.9557
55.9517
55.9477
55.9437
55.9397
55.9357
55.9318
55.9279
55.924
55.9201
55.9162
55.9123
55.9084
55.9045
55.9006
55.8967
55.8928
55.8889
55.8851
55.8812
55.8773
55.8734
55.8695
55.8656
55.8617
55.8578
55.8539
55.85
55.8462
55.8423
55.8384
55.8345
55.8306
55.8267
55.8228
55.8189
55.815
55.8111
55.8072
55.8033
55.7994
55.7956
55.7917
55.7878
55.7839
55.78
55.7761
55.7722
55.7683
55.7644
55.7605
55.7566
55.7527
55.7488
55.7449
55.741
55.7371
55.7332
55.7293
55.7255
55.7216
55.7177
55.7138
55.7099
55.706
55.7021
55.6982
55.6943
55.6904
55.6865
55.6826
55.6787
55.6748
55.6709
55.667
55.6631
55.6592
55.6553
55.6514
55.6475
55.6436
55.6397
55.6358
55.6319
55.628
55.6241
55.6202
55.6163
55.6124
55.6085
55.6046
55.6007
55.5968
55.5929
55.589
55.5851
55.5812
55.5773
55.5734
55.5695
55.5656
55.5617
55.5578
55.5539
55.55
55.5461
55.5422
55.5383
55.5344
55.5305
55.5266
55.5227
55.5188
55.5149
55.511
55.5071
55.5032
55.4993
55.4953
55.4914
55.4875
55.4836
55.4797
55.4758
55.4719
55.468
55.4641
55.4602
55.4563
55.4524
55.4485
55.4446
55.4407
55.4368
55.4329
55.429
55.425
55.4211
55.4172
55.4133
55.4094
55.4055
55.4016
55.3977
55.3938
55.3899
55.386
55.3821
55.3782
55.3742
55.3703
55.3664
55.3625
55.3586
55.3547
55.3508
55.3469
55.343
55.3391
55.3351
55.3312
55.3273
55.3234
55.3195
55.3156
55.3117
55.3078
55.3039
55.2999
55.296
55.2921
55.2882
55.2843
55.2804
55.2765
55.2726
55.2686
55.2647
55.2608
55.2569
55.253
55.2491
55.2452
55.2412
55.2373
55.2334
55.2295
55.2256
55.2217
55.2178
55.2138
55.2099
55.206
55.2021
55.1982
55.1943
55.1903
55.1864
55.1825
55.1786
55.1747
55.1708
55.1668
55.1629
55.159
55.1551
55.1512
55.1472
55.1433
55.1394
55.1355
55.1316
55.1277
55.1237
55.1198
55.1159
55.112
55.1081
55.1041
55.1002
55.0963
55.0924
55.0884
55.0845
55.0806
55.0767
55.0728
55.0688
55.0649
55.061
55.0571
55.0531
55.0492
55.0453
55.0414
55.0375
55.0335
55.0296
55.0257
55.0218
55.0178
55.0139
55.01
55.0061
55.0021
54.9982
54.9943
54.9904
54.9864
54.9825
54.9786
54.9747
54.9707
54.9668
54.9629
54.9589
54.955
54.9511
54.9472
54.9432
54.9393
54.9354
54.9314
54.9275
54.9236
54.9197
54.9157
54.9118
54.9079
54.9039
54.9
54.8961
54.8921
54.8882
54.8843
54.8804
54.8764
54.8725
54.8686
54.8646
54.8607
54.8568
54.8528
54.8489
54.845
54.841
54.8371
54.8332
54.8292
54.8253
54.8214
54.8174
54.8135
54.8096
54.8056
54.8017
54.7978
54.7938
54.7899
54.7859
54.782
54.7781
54.7741
54.7702
54.7663
54.7623
54.7584
54.7545
54.7505
54.7466
54.7426
54.7387
54.7348
54.7308
54.7269
54.7229
54.719
54.7151
54.7111
54.7072
54.7032
54.6993
54.6954
54.6914
54.6875
54.6835
54.6796
54.6757
54.6717
54.6678
54.6638
54.6599
54.6599
56.6636
56.6636
56.4182
56.3707
56.3489
56.3338
56.3215
56.3105
56.3004
56.2908
56.2815
56.2726
56.264
56.2555
56.2473
56.2393
56.2314
56.2237
56.2162
56.2088
56.2016
56.1945
56.1875
56.1807
56.1739
56.1673
56.1608
56.1544
56.148
56.1418
56.1357
56.1296
56.1236
56.1177
56.1119
56.1062
56.1005
56.0949
56.0894
56.0839
56.0785
56.0732
56.0679
56.0628
56.0577
56.0527
56.0477
56.0429
56.0381
56.0334
56.0287
56.0241
56.0196
56.0151
56.0106
56.0062
56.0019
55.9975
55.9932
55.989
55.9848
55.9805
55.9764
55.9722
55.968
55.9639
55.9598
55.9557
55.9517
55.9477
55.9437
55.9397
55.9357
55.9318
55.9279
55.924
55.9201
55.9162
55.9123
55.9084
55.9045
55.9006
55.8967
55.8928
55.8889
55.8851
55.8812
55.8773
55.8734
55.8695
55.8656
55.8617
55.8578
55.8539
55.85
55.8462
55.8423
55.8384
55.8345
55.8306
55.8267
55.8228
55.8189
55.815
55.8111
55.8072
55.8033
55.7994
55.7956
55.7917
55.7878
55.7839
55.78
55.7761
55.7722
55.7683
55.7644
55.7605
55.7566
55.7527
55.7488
55.7449
55.741
55.7371
55.7332
55.7293
55.7255
55.7216
55.7177
55.7138
55.7099
55.706
55.7021
55.6982
55.6943
55.6904
55.6865
55.6826
55.6787
55.6748
55.6709
55.667
55.6631
55.6592
55.6553
55.6514
55.6475
55.6436
55.6397
55.6358
55.6319
55.628
55.6241
55.6202
55.6163
55.6124
55.6085
55.6046
55.6007
55.5968
55.5929
55.589
55.5851
55.5812
55.5773
55.5734
55.5695
55.5656
55.5617
55.5578
55.5539
55.55
55.5461
55.5422
55.5383
55.5344
55.5305
55.5266
55.5227
55.5188
55.5149
55.511
55.5071
55.5032
55.4993
55.4953
55.4914
55.4875
55.4836
55.4797
55.4758
55.4719
55.468
55.4641
55.4602
55.4563
55.4524
55.4485
55.4446
55.4407
55.4368
55.4329
55.429
55.425
55.4211
55.4172
55.4133
55.4094
55.4055
55.4016
55.3977
55.3938
55.3899
55.386
55.3821
55.3782
55.3742
55.3703
55.3664
55.3625
55.3586
55.3547
55.3508
55.3469
55.343
55.3391
55.3351
55.3312
55.3273
55.3234
55.3195
55.3156
55.3117
55.3078
55.3039
55.2999
55.296
55.2921
55.2882
55.2843
55.2804
55.2765
55.2726
55.2686
55.2647
55.2608
55.2569
55.253
55.2491
55.2452
55.2412
55.2373
55.2334
55.2295
55.2256
55.2217
55.2178
55.2138
55.2099
55.206
55.2021
55.1982
55.1943
55.1903
55.1864
55.1825
55.1786
55.1747
55.1708
55.1668
55.1629
55.159
55.1551
55.1512
55.1472
55.1433
55.1394
55.1355
55.1316
55.1277
55.1237
55.1198
55.1159
55.112
55.1081
55.1041
55.1002
55.0963
55.0924
55.0884
55.0845
55.0806
55.0767
55.0728
55.0688
55.0649
55.061
55.0571
55.0531
55.0492
55.0453
55.0414
55.0375
55.0335
55.0296
55.0257
55.0218
55.0178
55.0139
55.01
55.0061
55.0021
54.9982
54.9943
54.9904
54.9864
54.9825
54.9786
54.9747
54.9707
54.9668
54.9629
54.9589
54.955
54.9511
54.9472
54.9432
54.9393
54.9354
54.9314
54.9275
54.9236
54.9197
54.9157
54.9118
54.9079
54.9039
54.9
54.8961
54.8921
54.8882
54.8843
54.8804
54.8764
54.8725
54.8686
54.8646
54.8607
54.8568
54.8528
54.8489
54.845
54.841
54.8371
54.8332
54.8292
54.8253
54.8214
54.8174
54.8135
54.8096
54.8056
54.8017
54.7978
54.7938
54.7899
54.7859
54.782
54.7781
54.7741
54.7702
54.7663
54.7623
54.7584
54.7545
54.7505
54.7466
54.7426
54.7387
54.7348
54.7308
54.7269
54.7229
54.719
54.7151
54.7111
54.7072
54.7032
54.6993
54.6954
54.6914
54.6875
54.6835
54.6796
54.6757
54.6717
54.6678
54.6638
54.6599
54.6599
56.6485
56.6485
56.421
56.3719
56.3495
56.3342
56.3217
56.3107
56.3005
56.2909
56.2816
56.2727
56.264
56.2556
56.2474
56.2393
56.2315
56.2238
56.2162
56.2088
56.2016
56.1945
56.1875
56.1807
56.1739
56.1673
56.1608
56.1544
56.1481
56.1418
56.1357
56.1296
56.1237
56.1178
56.1119
56.1062
56.1005
56.0949
56.0894
56.0839
56.0785
56.0732
56.068
56.0628
56.0577
56.0527
56.0477
56.0429
56.0381
56.0334
56.0287
56.0241
56.0196
56.0151
56.0106
56.0062
56.0019
55.9975
55.9933
55.989
55.9848
55.9805
55.9764
55.9722
55.968
55.9639
55.9598
55.9557
55.9517
55.9477
55.9437
55.9397
55.9357
55.9318
55.9279
55.924
55.9201
55.9162
55.9123
55.9084
55.9045
55.9006
55.8967
55.8928
55.8889
55.8851
55.8812
55.8773
55.8734
55.8695
55.8656
55.8617
55.8578
55.8539
55.85
55.8462
55.8423
55.8384
55.8345
55.8306
55.8267
55.8228
55.8189
55.815
55.8111
55.8072
55.8033
55.7994
55.7956
55.7917
55.7878
55.7839
55.78
55.7761
55.7722
55.7683
55.7644
55.7605
55.7566
55.7527
55.7488
55.7449
55.741
55.7371
55.7332
55.7293
55.7255
55.7216
55.7177
55.7138
55.7099
55.706
55.7021
55.6982
55.6943
55.6904
55.6865
55.6826
55.6787
55.6748
55.6709
55.667
55.6631
55.6592
55.6553
55.6514
55.6475
55.6436
55.6397
55.6358
55.6319
55.628
55.6241
55.6202
55.6163
55.6124
55.6085
55.6046
55.6007
55.5968
55.5929
55.589
55.5851
55.5812
55.5773
55.5734
55.5695
55.5656
55.5617
55.5578
55.5539
55.55
55.5461
55.5422
55.5383
55.5344
55.5305
55.5266
55.5227
55.5188
55.5149
55.511
55.5071
55.5032
55.4993
55.4953
55.4914
55.4875
55.4836
55.4797
55.4758
55.4719
55.468
55.4641
55.4602
55.4563
55.4524
55.4485
55.4446
55.4407
55.4368
55.4329
55.429
55.425
55.4211
55.4172
55.4133
55.4094
55.4055
55.4016
55.3977
55.3938
55.3899
55.386
55.3821
55.3782
55.3742
55.3703
55.3664
55.3625
55.3586
55.3547
55.3508
55.3469
55.343
55.3391
55.3351
55.3312
55.3273
55.3234
55.3195
55.3156
55.3117
55.3078
55.3039
55.2999
55.296
55.2921
55.2882
55.2843
55.2804
55.2765
55.2726
55.2686
55.2647
55.2608
55.2569
55.253
55.2491
55.2452
55.2412
55.2373
55.2334
55.2295
55.2256
55.2217
55.2178
55.2138
55.2099
55.206
55.2021
55.1982
55.1943
55.1903
55.1864
55.1825
55.1786
55.1747
55.1708
55.1668
55.1629
55.159
55.1551
55.1512
55.1472
55.1433
55.1394
55.1355
55.1316
55.1277
55.1237
55.1198
55.1159
55.112
55.1081
55.1041
55.1002
55.0963
55.0924
55.0884
55.0845
55.0806
55.0767
55.0728
55.0688
55.0649
55.061
55.0571
55.0531
55.0492
55.0453
55.0414
55.0375
55.0335
55.0296
55.0257
55.0218
55.0178
55.0139
55.01
55.0061
55.0021
54.9982
54.9943
54.9904
54.9864
54.9825
54.9786
54.9747
54.9707
54.9668
54.9629
54.9589
54.955
54.9511
54.9472
54.9432
54.9393
54.9354
54.9314
54.9275
54.9236
54.9197
54.9157
54.9118
54.9079
54.9039
54.9
54.8961
54.8921
54.8882
54.8843
54.8804
54.8764
54.8725
54.8686
54.8646
54.8607
54.8568
54.8528
54.8489
54.845
54.841
54.8371
54.8332
54.8292
54.8253
54.8214
54.8174
54.8135
54.8096
54.8056
54.8017
54.7978
54.7938
54.7899
54.7859
54.782
54.7781
54.7741
54.7702
54.7663
54.7623
54.7584
54.7545
54.7505
54.7466
54.7426
54.7387
54.7348
54.7308
54.7269
54.7229
54.719
54.7151
54.7111
54.7072
54.7032
54.6993
54.6954
54.6914
54.6875
54.6835
54.6796
54.6757
54.6717
54.6678
54.6638
54.6599
54.6599
56.6345
56.6345
56.4235
56.373
56.3501
56.3346
56.322
56.3109
56.3007
56.291
56.2817
56.2728
56.2641
56.2557
56.2474
56.2394
56.2315
56.2238
56.2163
56.2089
56.2016
56.1945
56.1876
56.1807
56.174
56.1673
56.1608
56.1544
56.1481
56.1418
56.1357
56.1296
56.1237
56.1178
56.1119
56.1062
56.1005
56.0949
56.0894
56.0839
56.0785
56.0732
56.068
56.0628
56.0577
56.0527
56.0477
56.0429
56.0381
56.0334
56.0287
56.0241
56.0196
56.0151
56.0106
56.0062
56.0019
55.9975
55.9933
55.989
55.9848
55.9806
55.9764
55.9722
55.968
55.9639
55.9598
55.9557
55.9517
55.9477
55.9437
55.9397
55.9357
55.9318
55.9279
55.924
55.9201
55.9162
55.9123
55.9084
55.9045
55.9006
55.8967
55.8928
55.8889
55.8851
55.8812
55.8773
55.8734
55.8695
55.8656
55.8617
55.8578
55.8539
55.85
55.8462
55.8423
55.8384
55.8345
55.8306
55.8267
55.8228
55.8189
55.815
55.8111
55.8072
55.8033
55.7994
55.7956
55.7917
55.7878
55.7839
55.78
55.7761
55.7722
55.7683
55.7644
55.7605
55.7566
55.7527
55.7488
55.7449
55.741
55.7371