# vtk DataFile Version 2.0
FlowField
ASCII
DATASET STRUCTURED_GRID
DIMENSIONS 400 1 200
POINTS 80000 float
0 0 0
0.08 0 0
0.16 0 0
0.24 0 0
0.32 0 0
0.4 0 0
0.48 0 0
0.56 0 0
0.64 0 0
0.72 0 0
0.8 0 0
0.88 0 0
0.96 0 0
1.04 0 0
1.12 0 0
1.2 0 0
1.28 0 0
1.36 0 0
1.44 0 0
1.52 0 0
1.6 0 0
1.68 0 0
1.76 0 0
1.84 0 0
1.92 0 0
2 0 0
2.08 0 0
2.16 0 0
2.24 0 0
2.32 0 0
2.4 0 0
2.48 0 0
2.56 0 0
2.64 0 0
2.72 0 0
2.8 0 0
2.88 0 0
2.96 0 0
3.04 0 0
3.12 0 0
3.2 0 0
3.28 0 0
3.36 0 0
3.44 0 0
3.52 0 0
3.6 0 0
3.68 0 0
3.76 0 0
3.84 0 0
3.92 0 0
4 0 0
4.08 0 0
4.16 0 0
4.24 0 0
4.32 0 0
4.4 0 0
4.48 0 0
4.56 0 0
4.64 0 0
4.72 0 0
4.8 0 0
4.88 0 0
4.96 0 0
5.04 0 0
5.12 0 0
5.2 0 0
5.28 0 0
5.36 0 0
5.44 0 0
5.52 0 0
5.6 0 0
5.68 0 0
5.76 0 0
5.84 0 0
5.92 0 0
6 0 0
6.08 0 0
6.16 0 0
6.24 0 0
6.32 0 0
6.4 0 0
6.48 0 0
6.56 0 0
6.64 0 0
6.72 0 0
6.8 0 0
6.88 0 0
6.96 0 0
7.04 0 0
7.12 0 0
7.2 0 0
7.28 0 0
7.36 0 0
7.44 0 0
7.52 0 0
7.6 0 0
7.68 0 0
7.76 0 0
7.84 0 0
7.92 0 0
8 0 0
8.08 0 0
8.16 0 0
8.24 0 0
8.32 0 0
8.4 0 0
8.48 0 0
8.56 0 0
8.64 0 0
8.72 0 0
8.8 0 0
8.88 0 0
8.96 0 0
9.04 0 0
9.12 0 0
9.2 0 0
9.28 0 0
9.36 0 0
9.44 0 0
9.52 0 0
9.6 0 0
9.68 0 0
9.76 0 0
9.84 0 0
9.92 0 0
10 0 0
10.08 0 0
10.16 0 0
10.24 0 0
10.32 0 0
10.4 0 0
10.48 0 0
10.56 0 0
10.64 0 0
10.72 0 0
10.8 0 0
10.88 0 0
10.96 0 0
11.04 0 0
11.12 0 0
11.2 0 0
11.28 0 0
11.36 0 0
11.44 0 0
11.52 0 0
11.6 0 0
11.68 0 0
11.76 0 0
11.84 0 0
11.92 0 0
12 0 0
12.08 0 0
12.16 0 0
12.24 0 0
12.32 0 0
12.4 0 0
12.48 0 0
12.56 0 0
12.64 0 0
12.72 0 0
12.8 0 0
12.88 0 0
12.96 0 0
13.04 0 0
13.12 0 0
13.2 0 0
13.28 0 0
13.36 0 0
13.44 0 0
13.52 0 0
13.6 0 0
13.68 0 0
13.76 0 0
13.84 0 0
13.92 0 0
14 0 0
14.08 0 0
14.16 0 0
14.24 0 0
14.32 0 0
14.4 0 0
14.48 0 0
14.56 0 0
14.64 0 0
14.72 0 0
14.8 0 0
14.88 0 0
14.96 0 0
15.04 0 0
15.12 0 0
15.2 0 0
15.28 0 0
15.36 0 0
15.44 0 0
15.52 0 0
15.6 0 0
15.68 0 0
15.76 0 0
15.84 0 0
15.92 0 0
16 0 0
16.08 0 0
16.16 0 0
16.24 0 0
16.32 0 0
16.4 0 0
16.48 0 0
16.56 0 0
16.64 0 0
16.72 0 0
16.8 0 0
16.88 0 0
16.96 0 0
17.04 0 0
17.12 0 0
17.2 0 0
17.28 0 0
17.36 0 0
17.44 0 0
17.52 0 0
17.6 0 0
17.68 0 0
17.76 0 0
17.84 0 0
17.92 0 0
18 0 0
18.08 0 0
18.16 0 0
18.24 0 0
18.32 0 0
18.4 0 0
18.48 0 0
18.56 0 0
18.64 0 0
18.72 0 0
18.8 0 0
18.88 0 0
18.96 0 0
19.04 0 0
19.12 0 0
19.2 0 0
19.28 0 0
19.36 0 0
19.44 0 0
19.52 0 0
19.6 0 0
19.68 0 0
19.76 0 0
19.84 0 0
19.92 0 0
20 0 0
20.08 0 0
20.16 0 0
20.24 0 0
20.32 0 0
20.4 0 0
20.48 0 0
20.56 0 0
20.64 0 0
20.72 0 0
20.8 0 0
20.88 0 0
20.96 0 0
21.04 0 0
21.12 0 0
21.2 0 0
21.28 0 0
21.36 0 0
21.44 0 0
21.52 0 0
21.6 0 0
21.68 0 0
21.76 0 0
21.84 0 0
21.92 0 0
22 0 0
22.08 0 0
22.16 0 0
22.24 0 0
22.32 0 0
22.4 0 0
22.48 0 0
22.56 0 0
22.64 0 0
22.72 0 0
22.8 0 0
22.88 0 0
22.96 0 0
23.04 0 0
23.12 0 0
23.2 0 0
23.28 0 0
23.36 0 0
23.44 0 0
23.52 0 0
23.6 0 0
23.68 0 0
23.76 0 0
23.84 0 0
23.92 0 0
24 0 0
24.08 0 0
24.16 0 0
24.24 0 0
24.32 0 0
24.4 0 0
24.48 0 0
24.56 0 0
24.64 0 0
24.72 0 0
24.8 0 0
24.88 0 0
24.96 0 0
25.04 0 0
25.12 0 0
25.2 0 0
25.28 0 0
25.36 0 0
25.44 0 0
25.52 0 0
25.6 0 0
25.68 0 0
25.76 0 0
25.84 0 0
25.92 0 0
26 0 0
26.08 0 0
26.16 0 0
26.24 0 0
26.32 0 0
26.4 0 0
26.48 0 0
26.56 0 0
26.64 0 0
26.72 0 0
26.8 0 0
26.88 0 0
26.96 0 0
27.04 0 0
27.12 0 0
27.2 0 0
27.28 0 0
27.36 0 0
27.44 0 0
27.52 0 0
27.6 0 0
27.68 0 0
27.76 0 0
27.84 0 0
27.92 0 0
28 0 0
28.08 0 0
28.16 0 0
28.24 0 0
28.32 0 0
28.4 0 0
28.48 0 0
28.56 0 0
28.64 0 0
28.72 0 0
28.8 0 0
28.88 0 0
28.96 0 0
29.04 0 0
29.12 0 0
29.2 0 0
29.28 0 0
29.36 0 0
29.44 0 0
29.52 0 0
29.6 0 0
29.68 0 0
29.76 0 0
29.84 0 0
29.92 0 0
30 0 0
30.08 0 0
30.16 0 0
30.24 0 0
30.32 0 0
30.4 0 0
30.48 0 0
30.56 0 0
30.64 0 0
30.72 0 0
30.8 0 0
30.88 0 0
30.96 0 0
31.04 0 0
31.12 0 0
31.2 0 0
31.28 0 0
31.36 0 0
31.44 0 0
31.52 0 0
31.6 0 0
31.68 0 0
31.76 0 0
31.84 0 0
31.92 0 0
0 0.005 0
0.08 0.005 0
0.16 0.005 0
0.24 0.005 0
0.32 0.005 0
0.4 0.005 0
0.48 0.005 0
0.56 0.005 0
0.64 0.005 0
0.72 0.005 0
0.8 0.005 0
0.88 0.005 0
0.96 0.005 0
1.04 0.005 0
1.12 0.005 0
1.2 0.005 0
1.28 0.005 0
1.36 0.005 0
1.44 0.005 0
1.52 0.005 0
1.6 0.005 0
1.68 0.005 0
1.76 0.005 0
1.84 0.005 0
1.92 0.005 0
2 0.005 0
2.08 0.005 0
2.16 0.005 0
2.24 0.005 0
2.32 0.005 0
2.4 0.005 0
2.48 0.005 0
2.56 0.005 0
2.64 0.005 0
2.72 0.005 0
2.8 0.005 0
2.88 0.005 0
2.96 0.005 0
3.04 0.005 0
3.12 0.005 0
3.2 0.005 0
3.28 0.005 0
3.36 0.005 0
3.44 0.005 0
3.52 0.005 0
3.6 0.005 0
3.68 0.005 0
3.76 0.005 0
3.84 0.005 0
3.92 0.005 0
4 0.005 0
4.08 0.005 0
4.16 0.005 0
4.24 0.005 0
4.32 0.005 0
4.4 0.005 0
4.48 0.005 0
4.56 0.005 0
4.64 0.005 0
4.72 0.005 0
4.8 0.005 0
4.88 0.005 0
4.96 0.005 0
5.04 0.005 0
5.12 0.005 0
5.2 0.005 0
5.28 0.005 0
5.36 0.005 0
5.44 0.005 0
5.52 0.005 0
5.6 0.005 0
5.68 0.005 0
5.76 0.005 0
5.84 0.005 0
5.92 0.005 0
6 0.005 0
6.08 0.005 0
6.16 0.005 0
6.24 0.005 0
6.32 0.005 0
6.4 0.005 0
6.48 0.005 0
6.56 0.005 0
6.64 0.005 0
6.72 0.005 0
6.8 0.005 0
6.88 0.005 0
6.96 0.005 0
7.04 0.005 0
7.12 0.005 0
7.2 0.005 0
7.28 0.005 0
7.36 0.005 0
7.44 0.005 0
7.52 0.005 0
7.6 0.005 0
7.68 0.005 0
7.76 0.005 0
7.84 0.005 0
7.92 0.005 0
8 0.005 0
8.08 0.005 0
8.16 0.005 0
8.24 0.005 0
8.32 0.005 0
8.4 0.005 0
8.48 0.005 0
8.56 0.005 0
8.64 0.005 0
8.72 0.005 0
8.8 0.005 0
8.88 0.005 0
8.96 0.005 0
9.04 0.005 0
9.12 0.005 0
9.2 0.005 0
9.28 0.005 0
9.36 0.005 0
9.44 0.005 0
9.52 0.005 0
9.6 0.005 0
9.68 0.005 0
9.76 0.005 0
9.84 0.005 0
9.92 0.005 0
10 0.005 0
10.08 0.005 0
10.16 0.005 0
10.24 0.005 0
10.32 0.005 0
10.4 0.005 0
10.48 0.005 0
10.56 0.005 0
10.64 0.005 0
10.72 0.005 0
10.8 0.005 0
10.88 0.005 0
10.96 0.005 0
11.04 0.005 0
11.12 0.005 0
11.2 0.005 0
11.28 0.005 0
11.36 0.005 0
11.44 0.005 0
11.52 0.005 0
11.6 0.005 0
11.68 0.005 0
11.76 0.005 0
11.84 0.005 0
11.92 0.005 0
12 0.005 0
12.08 0.005 0
12.16 0.005 0
12.24 0.005 0
12.32 0.005 0
12.4 0.005 0
12.48 0.005 0
12.56 0.005 0
12.64 0.005 0
12.72 0.005 0
12.8 0.005 0
12.88 0.005 0
12.96 0.005 0
13.04 0.005 0
13.12 0.005 0
13.2 0.005 0
13.28 0.005 0
13.36 0.005 0
13.44 0.005 0
13.52 0.005 0
13.6 0.005 0
13.68 0.005 0
13.76 0.005 0
13.84 0.005 0
13.92 0.005 0
14 0.005 0
14.08 0.005 0
14.16 0.005 0
14.24 0.005 0
14.32 0.005 0
14.4 0.005 0
14.48 0.005 0
14.56 0.005 0
14.64 0.005 0
14.72 0.005 0
14.8 0.005 0
14.88 0.005 0
14.96 0.005 0
15.04 0.005 0
15.12 0.005 0
15.2 0.005 0
15.28 0.005 0
15.36 0.005 0
15.44 0.005 0
15.52 0.005 0
15.6 0.005 0
15.68 0.005 0
15.76 0.005 0
15.84 0.005 0
15.92 0.005 0
16 0.005 0
16.08 0.005 0
16.16 0.005 0
16.24 0.005 0
16.32 0.005 0
16.4 0.005 0
16.48 0.005 0
16.56 0.005 0
16.64 0.005 0
16.72 0.005 0
16.8 0.005 0
16.88 0.005 0
16.96 0.005 0
17.04 0.005 0
17.12 0.005 0
17.2 0.005 0
17.28 0.005 0
17.36 0.005 0
17.44 0.005 0
17.52 0.005 0
17.6 0.005 0
17.68 0.005 0
17.76 0.005 0
17.84 0.005 0
17.92 0.005 0
18 0.005 0
18.08 0.005 0
18.16 0.005 0
18.24 0.005 0
18.32 0.005 0
18.4 0.005 0
18.48 0.005 0
18.56 0.005 0
18.64 0.005 0
18.72 0.005 0
18.8 0.005 0
18.88 0.005 0
18.96 0.005 0
19.04 0.005 0
19.12 0.005 0
19.2 0.005 0
19.28 0.005 0
19.36 0.005 0
19.44 0.005 0
19.52 0.005 0
19.6 0.005 0
19.68 0.005 0
19.76 0.005 0
19.84 0.005 0
19.92 0.005 0
20 0.005 0
20.08 0.005 0
20.16 0.005 0
20.24 0.005 0
20.32 0.005 0
20.4 0.005 0
20.48 0.005 0
20.56 0.005 0
20.64 0.005 0
20.72 0.005 0
20.8 0.005 0
20.88 0.005 0
20.96 0.005 0
21.04 0.005 0
21.12 0.005 0
21.2 0.005 0
21.28 0.005 0
21.36 0.005 0
21.44 0.005 0
21.52 0.005 0
21.6 0.005 0
21.68 0.005 0
21.76 0.005 0
21.84 0.005 0
21.92 0.005 0
22 0.005 0
22.08 0.005 0
22.16 0.005 0
22.24 0.005 0
22.32 0.005 0
22.4 0.005 0
22.48 0.005 0
22.56 0.005 0
22.64 0.005 0
22.72 0.005 0
22.8 0.005 0
22.88 0.005 0
22.96 0.005 0
23.04 0.005 0
23.12 0.005 0
23.2 0.005 0
23.28 0.005 0
23.36 0.005 0
23.44 0.005 0
23.52 0.005 0
23.6 0.005 0
23.68 0.005 0
23.76 0.005 0
23.84 0.005 0
23.92 0.005 0
24 0.005 0
24.08 0.005 0
24.16 0.005 0
24.24 0.005 0
24.32 0.005 0
24.4 0.005 0
24.48 0.005 0
24.56 0.005 0
24.64 0.005 0
24.72 0.005 0
24.8 0.005 0
24.88 0.005 0
24.96 0.005 0
25.04 0.005 0
25.12 0.005 0
25.2 0.005 0
25.28 0.005 0
25.36 0.005 0
25.44 0.005 0
25.52 0.005 0
25.6 0.005 0
25.68 0.005 0
25.76 0.005 0
25.84 0.005 0
25.92 0.005 0
26 0.005 0
26.08 0.005 0
26.16 0.005 0
26.24 0.005 0
26.32 0.005 0
26.4 0.005 0
26.48 0.005 0
26.56 0.005 0
26.64 0.005 0
26.72 0.005 0
26.8 0.005 0
26.88 0.005 0
26.96 0.005 0
27.04 0.005 0
27.12 0.005 0
27.2 0.005 0
27.28 0.005 0
27.36 0.005 0
27.44 0.005 0
27.52 0.005 0
27.6 0.005 0
27.68 0.005 0
27.76 0.005 0
27.84 0.005 0
27.92 0.005 0
28 0.005 0
28.08 0.005 0
28.16 0.005 0
28.24 0.005 0
28.32 0.005 0
28.4 0.005 0
28.48 0.005 0
28.56 0.005 0
28.64 0.005 0
28.72 0.005 0
28.8 0.005 0
28.88 0.005 0
28.96 0.005 0
29.04 0.005 0
29.12 0.005 0
29.2 0.005 0
29.28 0.005 0
29.36 0.005 0
29.44 0.005 0
29.52 0.005 0
29.6 0.005 0
29.68 0.005 0
29.76 0.005 0
29.84 0.005 0
29.92 0.005 0
30 0.005 0
30.08 0.005 0
30.16 0.005 0
30.24 0.005 0
30.32 0.005 0
30.4 0.005 0
30.48 0.005 0
30.56 0.005 0
30.64 0.005 0
30.72 0.005 0
30.8 0.005 0
30.88 0.005 0
30.96 0.005 0
31.04 0.005 0
31.12 0.005 0
31.2 0.005 0
31.28 0.005 0
31.36 0.005 0
31.44 0.005 0
31.52 0.005 0
31.6 0.005 0
31.68 0.005 0
31.76 0.005 0
31.84 0.005 0
31.92 0.005 0
0 0.01 0
0.08 0.01 0
0.16 0.01 0
0.24 0.01 0
0.32 0.01 0
0.4 0.01 0
0.48 0.01 0
0.56 0.01 0
0.64 0.01 0
0.72 0.01 0
0.8 0.01 0
0.88 0.01 0
0.96 0.01 0
1.04 0.01 0
1.12 0.01 0
1.2 0.01 0
1.28 0.01 0
1.36 0.01 0
1.44 0.01 0
1.52 0.01 0
1.6 0.01 0
1.68 0.01 0
1.76 0.01 0
1.84 0.01 0
1.92 0.01 0
2 0.01 0
2.08 0.01 0
2.16 0.01 0
2.24 0.01 0
2.32 0.01 0
2.4 0.01 0
2.48 0.01 0
2.56 0.01 0
2.64 0.01 0
2.72 0.01 0
2.8 0.01 0
2.88 0.01 0
2.96 0.01 0
3.04 0.01 0
3.12 0.01 0
3.2 0.01 0
3.28 0.01 0
3.36 0.01 0
3.44 0.01 0
3.52 0.01 0
3.6 0.01 0
3.68 0.01 0
3.76 0.01 0
3.84 0.01 0
3.92 0.01 0
4 0.01 0
4.08 0.01 0
4.16 0.01 0
4.24 0.01 0
4.32 0.01 0
4.4 0.01 0
4.48 0.01 0
4.56 0.01 0
4.64 0.01 0
4.72 0.01 0
4.8 0.01 0
4.88 0.01 0
4.96 0.01 0
5.04 0.01 0
5.12 0.01 0
[...]
POINT_DATA 80000

SCALARS p float 1
LOOKUP_TABLE default
1
56.4768
56.175
56.1337
56.1136
56.0991
56.087
56.0762
56.0662
56.0567
56.0475
56.0387
56.0301
56.0218
56.014
56.0067
55.9998
55.9934
55.9871
55.981
55.975
55.9691
55.9633
55.9576
55.952
55.9466
55.9412
55.9359
55.9306
55.9253
55.92
55.9148
55.9095
55.9042
55.8989
55.8936
55.8883
55.883
55.8777
55.8724
55.8671
55.8618
55.8565
55.8512
55.846
55.8407
55.8354
55.8301
55.8249
55.8196
55.8144
55.8091
55.8038
55.7986
55.7933
55.7881
55.7828
55.7776
55.7724
55.7671
55.7619
55.7567
55.7514
55.7462
55.741
55.7358
55.7305
55.7253
55.7201
55.7149
55.7097
55.7045
55.6993
55.6941
55.6889
55.6837
55.6785
55.6733
55.6681
55.663
55.6578
55.6526
55.6474
55.6423
55.6371
55.6319
55.6268
55.6216
55.6165
55.6113
55.6062
55.601
55.5959
55.5907
55.5856
55.5805
55.5753
55.5702
55.5651
55.56
55.5549
55.5498
55.5447
55.5396
55.5345
55.5294
55.5243
55.5192
55.5142
55.5091
55.5041
55.499
55.494
55.4889
55.4839
55.4789
55.4739
55.4689
55.4639
55.4589
55.4539
55.449
55.444
55.4391
55.4342
55.4293
55.4244
55.4195
55.4147
55.4098
55.405
55.4002
55.3954
55.3907
55.386
55.3813
55.3766
55.3719
55.3673
55.3627
55.3581
55.3536
55.3491
55.3447
55.3402
55.3359
55.3315
55.3272
55.323
55.3188
55.3146
55.3105
55.3065
55.3025
55.2985
55.2947
55.2908
55.2871
55.2834
55.2798
55.2762
55.2727
55.2693
55.266
55.2627
55.2596
55.2565
55.2535
55.2505
55.2477
55.245
55.2423
55.2397
55.2373
55.2349
55.2326
55.2304
55.2283
55.2263
55.2244
55.2226
55.2209
55.2193
55.2178
55.2164
55.2152
55.214
55.2129
55.2119
55.211
55.2102
55.2094
55.2088
55.2083
55.2079
55.2075
55.2073
55.2071
55.207
55.207
55.2071
55.2072
55.2074
55.2077
55.208
55.2084
55.2089
55.2094
55.21
55.2106
55.2112
55.2119
55.2127
55.2134
55.2142
55.215
55.2159
55.2167
55.2176
55.2184
55.2193
55.2201
55.221
55.2219
55.2227
55.2235
55.2243
55.2251
55.2258
55.2266
55.2272
55.2279
55.2285
55.2291
55.2296
55.23
55.2305
55.2308
55.2311
55.2314
55.2316
55.2317
55.2318
55.2318
55.2318
55.2317
55.2315
55.2312
55.2309
55.2305
55.23
55.2295
55.2289
55.2283
55.2275
55.2267
55.2258
55.2249
55.2239
55.2228
55.2217
55.2205
55.2192
55.2179
55.2165
55.215
55.2135
55.2119
55.2103
55.2086
55.2068
55.205
55.2032
55.2013
55.1993
55.1973
55.1953
55.1932
55.1911
55.1889
55.1867
55.1844
55.1821
55.1798
55.1774
55.175
55.1726
55.1701
55.1677
55.1651
55.1626
55.16
55.1574
55.1548
55.1522
55.1495
55.1468
55.1441
55.1414
55.1386
55.1359
55.1331
55.1303
55.1275
55.1247
55.1219
55.119
55.1162
55.1133
55.1105
55.1076
55.1047
55.1018
55.0989
55.096
55.0931
55.0902
55.0872
55.0843
55.0814
55.0784
55.0755
55.0726
55.0696
55.0667
55.0637
55.0608
55.0578
55.0549
55.0519
55.049
55.046
55.0431
55.0401
55.0372
55.0342
55.0313
55.0284
55.0254
55.0225
55.0196
55.0166
55.0137
55.0108
55.0079
55.005
55.0021
54.9992
54.9963
54.9934
54.9905
54.9876
54.9847
54.9818
54.979
54.9761
54.9733
54.9704
54.9676
54.9647
54.9619
54.9591
54.9563
54.9535
54.9507
54.9479
54.9451
54.9424
54.9396
54.9369
54.9341
54.9314
54.9287
54.9259
54.9232
54.9206
54.9179
54.9152
54.9125
54.9099
54.9073
54.9046
54.902
54.8994
54.8968
54.8943
54.8917
54.8892
54.8866
54.8841
54.8816
54.8791
54.8766
54.8741
54.8717
54.8692
54.8668
54.8644
54.862
0.5
56.4768
56.4768
56.175
56.1337
56.1136
56.0991
56.087
56.0762
56.0662
56.0567
56.0475
56.0387
56.0301
56.0218
56.014
56.0067
55.9998
55.9934
55.9871
55.981
55.975
55.9691
55.9633
55.9576
55.952
55.9466
55.9412
55.9359
55.9306
55.9253
55.92
55.9148
55.9095
55.9042
55.8989
55.8936
55.8883
55.883
55.8777
55.8724
55.8671
55.8618
55.8565
55.8512
55.846
55.8407
55.8354
55.8301
55.8249
55.8196
55.8144
55.8091
55.8038
55.7986
55.7933
55.7881
55.7828
55.7776
55.7724
55.7671
55.7619
55.7567
55.7514
55.7462
55.741
55.7358
55.7305
55.7253
55.7201
55.7149
55.7097
55.7045
55.6993
55.6941
55.6889
55.6837
55.6785
55.6733
55.6681
55.663
55.6578
55.6526
55.6474
55.6423
55.6371
55.6319
55.6268
55.6216
55.6165
55.6113
55.6062
55.601
55.5959
55.5907
55.5856
55.5805
55.5753
55.5702
55.5651
55.56
55.5549
55.5498
55.5447
55.5396
55.5345
55.5294
55.5243
55.5192
55.5142
55.5091
55.5041
55.499
55.494
55.4889
55.4839
55.4789
55.4739
55.4689
55.4639
55.4589
55.4539
55.449
55.444
55.4391
55.4342
55.4293
55.4244
55.4195
55.4147
55.4098
55.405
55.4002
55.3954
55.3907
55.386
55.3813
55.3766
55.3719
55.3673
55.3627
55.3581
55.3536
55.3491
55.3447
55.3402
55.3359
55.3315
55.3272
55.323
55.3188
55.3146
55.3105
55.3065
55.3025
55.2985
55.2947
55.2908
55.2871
55.2834
55.2798
55.2762
55.2727
55.2693
55.266
55.2627
55.2596
55.2565
55.2535
55.2505
55.2477
55.245
55.2423
55.2397
55.2373
55.2349
55.2326
55.2304
55.2283
55.2263
55.2244
55.2226
55.2209
55.2193
55.2178
55.2164
55.2152
55.214
55.2129
55.2119
55.211
55.2102
55.2094
55.2088
55.2083
55.2079
55.2075
55.2073
55.2071
55.207
55.207
55.2071
55.2072
55.2074
55.2077
55.208
55.2084
55.2089
55.2094
55.21
55.2106
55.2112
55.2119
55.2127
55.2134
55.2142
55.215
55.2159
55.2167
55.2176
55.2184
55.2193
55.2201
55.221
55.2219
55.2227
55.2235
55.2243
55.2251
55.2258
55.2266
55.2272
55.2279
55.2285
55.2291
55.2296
55.23
55.2305
55.2308
55.2311
55.2314
55.2316
55.2317
55.2318
55.2318
55.2318
55.2317
55.2315
55.2312
55.2309
55.2305
55.23
55.2295
55.2289
55.2283
55.2275
55.2267
55.2258
55.2249
55.2239
55.2228
55.2217
55.2205
55.2192
55.2179
55.2165
55.215
55.2135
55.2119
55.2103
55.2086
55.2068
55.205
55.2032
55.2013
55.1993
55.1973
55.1953
55.1932
55.1911
55.1889
55.1867
55.1844
55.1821
55.1798
55.1774
55.175
55.1726
55.1701
55.1677
55.1651
55.1626
55.16
55.1574
55.1548
55.1522
55.1495
55.1468
55.1441
55.1414
55.1386
55.1359
55.1331
55.1303
55.1275
55.1247
55.1219
55.119
55.1162
55.1133
55.1105
55.1076
55.1047
55.1018
55.0989
55.096
55.0931
55.0902
55.0872
55.0843
55.0814
55.0784
55.0755
55.0726
55.0696
55.0667
55.0637
55.0608
55.0578
55.0549
55.0519
55.049
55.046
55.0431
55.0401
55.0372
55.0342
55.0313
55.0284
55.0254
55.0225
55.0196
55.0166
55.0137
55.0108
55.0079
55.005
55.0021
54.9992
54.9963
54.9934
54.9905
54.9876
54.9847
54.9818
54.979
54.9761
54.9733
54.9704
54.9676
54.9647
54.9619
54.9591
54.9563
54.9535
54.9507
54.9479
54.9451
54.9424
54.9396
54.9369
54.9341
54.9314
54.9287
54.9259
54.9232
54.9206
54.9179
54.9152
54.9125
54.9099
54.9073
54.9046
54.902
54.8994
54.8968
54.8943
54.8917
54.8892
54.8866
54.8841
54.8816
54.8791
54.8766
54.8741
54.8717
54.8692
54.8668
54.8644
54.862
54.862
56.4622
56.4622
56.1788
56.135
56.1142
56.0995
56.0873
56.0764
56.0663
56.0568
56.0476
56.0388
56.0302
56.0219
56.014
56.0067
55.9998
55.9934
55.9871
55.981
55.975
55.9691
55.9633
55.9576
55.952
55.9466
55.9412
55.9359
55.9306
55.9253
55.92
55.9148
55.9095
55.9042
55.8989
55.8936
55.8883
55.883
55.8777
55.8724
55.8671
55.8618
55.8565
55.8512
55.846
55.8407
55.8354
55.8301
55.8249
55.8196
55.8143
55.8091
55.8038
55.7986
55.7933
55.7881
55.7828
55.7776
55.7724
55.7671
55.7619
55.7567
55.7514
55.7462
55.741
55.7358
55.7305
55.7253
55.7201
55.7149
55.7097
55.7045
55.6993
55.6941
55.6889
55.6837
55.6785
55.6733
55.6681
55.6629
55.6578
55.6526
55.6474
55.6423
55.6371
55.6319
55.6268
55.6216
55.6164
55.6113
55.6061
55.601
55.5959
55.5907
55.5856
55.5805
55.5753
55.5702
55.5651
55.56
55.5549
55.5498
55.5447
55.5396
55.5345
55.5294
55.5243
55.5192
55.5142
55.5091
55.5041
55.499
55.494
55.4889
55.4839
55.4789
55.4739
55.4689
55.4639
55.4589
55.4539
55.449
55.444
55.4391
55.4342
55.4293
55.4244
55.4195
55.4147
55.4098
55.405
55.4002
55.3954
55.3907
55.386
55.3813
55.3766
55.3719
55.3673
55.3627
55.3581
55.3536
55.3491
55.3447
55.3402
55.3359
55.3315
55.3272
55.323
55.3188
55.3146
55.3105
55.3065
55.3025
55.2985
55.2946
55.2908
55.2871
55.2834
55.2798
55.2762
55.2727
55.2693
55.266
55.2627
55.2596
55.2565
55.2535
55.2505
55.2477
55.245
55.2423
55.2397
55.2373
55.2349
55.2326
55.2304
55.2283
55.2263
55.2244
55.2226
55.2209
55.2193
55.2178
55.2165
55.2152
55.214
55.2129
55.2119
55.211
55.2102
55.2095
55.2088
55.2083
55.2079
55.2075
55.2073
55.2071
55.207
55.207
55.2071
55.2072
55.2074
55.2077
55.208
55.2084
55.2089
55.2094
55.21
55.2106
55.2113
55.2119
55.2127
55.2134
55.2142
55.215
55.2159
55.2167
55.2176
55.2184
55.2193
55.2202
55.221
55.2219
55.2227
55.2235
55.2243
55.2251
55.2258
55.2266
55.2272
55.2279
55.2285
55.2291
55.2296
55.2301
55.2305
55.2308
55.2312
55.2314
55.2316
55.2317
55.2318
55.2318
55.2318
55.2317
55.2315
55.2312
55.2309
55.2305
55.23
55.2295
55.2289
55.2283
55.2275
55.2267
55.2258
55.2249
55.2239
55.2228
55.2217
55.2205
55.2192
55.2179
55.2165
55.215
55.2135
55.2119
55.2103
55.2086
55.2068
55.205
55.2032
55.2013
55.1993
55.1973
55.1953
55.1932
55.1911
55.1889
55.1867
55.1844
55.1821
55.1798
55.1774
55.175
55.1726
55.1701
55.1677
55.1651
55.1626
55.16
55.1574
55.1548
55.1522
55.1495
55.1468
55.1441
55.1414
55.1386
55.1359
55.1331
55.1303
55.1275
55.1247
55.1219
55.119
55.1162
55.1133
55.1105
55.1076
55.1047
55.1018
55.0989
55.096
55.0931
55.0902
55.0872
55.0843
55.0814
55.0784
55.0755
55.0726
55.0696
55.0667
55.0637
55.0608
55.0578
55.0549
55.0519
55.049
55.046
55.0431
55.0401
55.0372
55.0342
55.0313
55.0284
55.0254
55.0225
55.0196
55.0166
55.0137
55.0108
55.0079
55.005
55.0021
54.9991
54.9962
54.9934
54.9905
54.9876
54.9847
54.9818
54.979
54.9761
54.9733
54.9704
54.9676
54.9647
54.9619
54.9591
54.9563
54.9535
54.9507
54.9479
54.9451
54.9424
54.9396
54.9369
54.9341
54.9314
54.9287
54.9259
54.9232
54.9206
54.9179
54.9152
54.9125
54.9099
54.9073
54.9046
54.902
54.8994
54.8968
54.8943
54.8917
54.8891
54.8866
54.8841
54.8816
54.8791
54.8766
54.8741
54.8717
54.8692
54.8668
54.8644
54.862
54.862
56.4462
56.4462
56.182
56.1362
56.1148
56.0999
56.0876
56.0766
56.0665
56.0569
56.0477
56.0388
56.0302
56.022
56.0141
56.0067
55.9999
55.9934
55.9872
55.981
55.975
55.9691
55.9633
55.9576
55.952
55.9466
55.9412
55.9359
55.9306
55.9253
55.92
55.9148
55.9095
55.9042
55.8989
55.8936
55.8883
55.883
55.8777
55.8724
55.8671
55.8618
55.8565
55.8512
55.846
55.8407
55.8354
55.8301
55.8249
55.8196
55.8143
55.8091
55.8038
55.7986
55.7933
55.7881
55.7828
55.7776
55.7724
55.7671
55.7619
55.7567
55.7514
55.7462
55.741
55.7358
55.7305
55.7253
55.7201
55.7149
55.7097
55.7045
55.6993
55.6941
55.6889
55.6837
55.6785
55.6733
55.6681
55.6629
55.6578
55.6526
55.6474
55.6423
55.6371
55.6319
55.6268
55.6216
55.6164
55.6113
55.6061
55.601
55.5959
55.5907
55.5856
55.5805
55.5753
55.5702
55.5651
55.56
55.5549
55.5498
55.5447
55.5396
55.5345
55.5294
55.5243
55.5192
55.5142
55.5091
55.5041
55.499
55.494
55.4889
55.4839
55.4789
55.4739
55.4689
55.4639
55.4589
55.4539
55.449
55.444
55.4391
55.4342
55.4293
55.4244
55.4195
55.4147
55.4098
55.405
55.4002
55.3954
55.3907
55.386
55.3813
55.3766
55.3719
55.3673
55.3627
55.3581
55.3536
55.3491
55.3447
55.3402
55.3359
55.3315
55.3272
55.323
55.3188
55.3146
55.3105
55.3065
55.3025
55.2985
55.2946
55.2908
55.2871
55.2834
55.2798
55.2762
55.2727
55.2693
55.266
55.2627
55.2596
55.2565
55.2535
55.2505
55.2477
55.245
55.2423
55.2397
55.2373
55.2349
55.2326
55.2304
55.2283
55.2263
55.2244
55.2226
55.2209
55.2193
55.2178
55.2165
55.2152
55.214
55.2129
55.2119
55.211
55.2102
55.2095
55.2088
55.2083
55.2079
55.2075
55.2073
55.2071
55.207
55.207
55.2071
55.2072
55.2074
55.2077
55.208
55.2084
55.2089
55.2094
55.21
55.2106
55.2113
55.2119
55.2127
55.2134
55.2142
55.215
55.2159
55.2167
55.2176
55.2184
55.2193
55.2202
55.221
55.2219
55.2227
55.2235
55.2243
55.2251
55.2258
55.2266
55.2272
55.2279
55.2285
55.2291
55.2296
55.2301
55.2305
55.2308
55.2312
55.2314
55.2316
55.2317
55.2318
55.2318
55.2318
55.2317
55.2315
55.2312
55.2309
55.2305
55.23
55.2295
55.2289
55.2283
55.2275
55.2267
55.2258
55.2249
55.2239
55.2228
55.2217
55.2205
55.2192
55.2179
55.2165
55.215
55.2135
55.2119
55.2103
55.2086
55.2068
55.205
55.2032
55.2013
55.1993
55.1973
55.1953
55.1932
55.1911
55.1889
55.1867
55.1844
55.1821
55.1798
55.1774
55.175
55.1726
55.1701
55.1677
55.1651
55.1626
55.16
55.1574
55.1548
55.1522
55.1495
55.1468
55.1441
55.1414
55.1386
55.1359
55.1331
55.1303
55.1275
55.1247
55.1219
55.119
55.1162
55.1133
55.1105
55.1076
55.1047
55.1018
55.0989
55.096
55.0931
55.0902
55.0872
55.0843
55.0814
55.0784
55.0755
55.0726
55.0696
55.0667
55.0637
55.0608
55.0578
55.0549
55.0519
55.049
55.046
55.0431
55.0401
55.0372
55.0342
55.0313
55.0284
55.0254
55.0225
55.0196
55.0166
55.0137
55.0108
55.0079
55.005
55.0021
54.9991
54.9962
54.9934
54.9905
54.9876
54.9847
54.9818
54.979
54.9761
54.9733
54.9704
54.9676
54.9647
54.9619
54.9591
54.9563
54.9535
54.9507
54.9479
54.9451
54.9424
54.9396
54.9369
54.9341
54.9314
54.9287
54.9259
54.9232
54.9206
54.9179
54.9152
54.9125
54.9099
54.9073
54.9046
54.902
54.8994
54.8968
54.8943
54.8917
54.8891
54.8866
54.8841
54.8816
54.8791
54.8766
54.8741
54.8717
54.8692
54.8668
54.8644
54.862
54.862
56.4303
56.4303
56.1849
56.1373
56.1154
56.1002
56.0878
56.0768
56.0666
56.057
56.0478
56.0389
56.0303
56.022
56.0141
56.0068
55.9999
55.9934
55.9872
55.9811
55.975
55.9691
55.9633
55.9576
55.952
55.9466
55.9412
55.9359
55.9306
55.9253
55.92
55.9148
55.9095
55.9042
55.8989
55.8936
55.8883
55.883
55.8777
55.8724
55.8671
55.8618
55.8565
55.8512
55.846
55.8407
55.8354
55.8301
55.8249
55.8196
55.8143
55.8091
55.8038
55.7986
55.7933
55.7881
55.7828
55.7776
55.7724
55.7671
55.7619
55.7567
55.7514
55.7462
55.741
55.7358
55.7305
55.7253
55.7201
55.7149
55.7097
55.7045
55.6993
55.6941
55.6889
55.6837
55.6785
55.6733
55.6681
55.6629
55.6578
55.6526
55.6474
55.6423
55.6371
55.6319
55.6268
55.6216
55.6164
55.6113
55.6061
55.601
55.5959
55.5907
55.5856
55.5805
55.5753
55.5702
55.5651
55.56
55.5549
55.5498
55.5447
55.5396
55.5345
55.5294
55.5243
55.5192
55.5142
55.5091
55.5041
55.499
55.494
55.4889
55.4839
55.4789
55.4739
55.4689
55.4639
55.4589
55.4539
55.449
55.444
55.4391
55.4342
55.4293
55.4244
55.4195
55.4147
55.4098
55.405
55.4002
55.3954
55.3907
55.386
55.3813
55.3766
55.3719
55.3673
55.3627
55.3581
55.3536
55.3491
55.3447
55.3402
55.3359
55.3315
55.3272
55.323
55.3188
55.3146
55.3105
55.3065
55.3025
55.2985
55.2947
55.2908
55.2871
55.2834
55.2798
55.2762
55.2727
55.2693
55.266
55.2627
55.2596
55.2565
55.2535
55.2505
55.2477
55.245
55.2423
55.2397
55.2373
55.2349
55.2326
55.2304
55.2283
55.2263
55.2244
55.2226
55.2209
55.2193
55.2178
55.2165
55.2152
55.214
55.2129
55.2119
55.211
55.2102
55.2095
55.2088
55.2083
55.2079
55.2075
55.2073
55.2071
55.207
55.207
55.2071
55.2072
55.2074
55.2077
55.208
55.2084
55.2089
55.2094
55.21
55.2106
55.2113
55.212
55.2127
55.2134
55.2142
55.215
55.2159
55.2167
55.2176
55.2184
55.2193
55.2202
55.221
55.2219
55.2227
55.2235
55.2243
55.2251
55.2258
55.2266
55.2272
55.2279
55.2285
55.2291
55.2296
55.2301
55.2305
55.2308
55.2312
55.2314
55.2316
55.2317
55.2318
55.2318
55.2318
55.2317
55.2315
55.2312
55.2309
55.2305
55.23
55.2295
55.2289
55.2283
55.2275
55.2267
55.2258
55.2249
55.2239
55.2228
55.2217
55.2205
55.2192
55.2179
55.2165
55.215
55.2135
55.2119
55.2103
55.2086
55.2068
55.205
55.2032
55.2013
55.1993
55.1973
55.1953
55.1932
55.1911
55.1889
55.1867
55.1844
55.1821
55.1798
55.1774
55.175
55.1726
55.1701
55.1676
55.1651
55.1626
55.16
55.1574
55.1548
55.1521
55.1495
55.1468
55.1441
55.1414
55.1386
55.1359
55.1331
55.1303
55.1275
55.1247
55.1219
55.119
55.1162
55.1133
55.1105
55.1076
55.1047
55.1018
55.0989
55.096
55.0931
55.0902
55.0872
55.0843
55.0814
55.0784
55.0755
55.0726
55.0696
55.0667
55.0637
55.0608
55.0578
55.0549
55.0519
55.049
55.046
55.0431
55.0401
55.0372
55.0342
55.0313
55.0284
55.0254
55.0225
55.0196
55.0166
55.0137
55.0108
55.0079
55.005
55.0021
54.9991
54.9962
54.9934
54.9905
54.9876
54.9847
54.9818
54.979
54.9761
54.9733
54.9704
54.9676
54.9647
54.9619
54.9591
54.9563
54.9535
54.9507
54.9479
54.9451
54.9424
54.9396
54.9369
54.9341
54.9314
54.9287
54.9259
54.9232
54.9206
54.9179
54.9152
54.9125
54.9099
54.9073
54.9046
54.902
54.8994
54.8968
54.8943
54.8917
54.8891
54.8866
54.8841
54.8816
54.8791
54.8766
54.8741
54.8717
54.8692
54.8668
54.8644
54.862
54.862
56.4152
56.4152
56.1876
56.1384
56.116
56.1006
56.0881
56.077
56.0668
56.0571
56.0479
56.039
56.0304
56.0221
56.0142
56.0068
55.9999
55.9934
55.9872
55.9811
55.975
55.9691
55.9633
55.9576
55.952
55.9466
55.9412
55.9359
55.9306
55.9253
55.92
55.9148
55.9095
55.9042
55.8989
55.8936
55.8883
55.883
55.8777
55.8724
55.8671
55.8618
55.8565
55.8512
55.846
55.8407
55.8354
55.8301
55.8249
55.8196
55.8143
55.8091
55.8038
55.7986
55.7933
55.7881
55.7828
55.7776
55.7724
55.7671
55.7619
55.7567
55.7514
55.7462
55.741
55.7358
55.7305
55.7253
55.7201
55.7149
55.7097
55.7045
55.6993
55.6941
55.6889
55.6837
55.6785
55.6733
55.6681
55.6629
55.6578
55.6526
55.6474
55.6423
55.6371
55.6319
55.6268
55.6216
55.6164
55.6113
55.6061
55.601
55.5959
55.5907
55.5856
55.5805
55.5753
55.5702
55.5651
55.56
55.5549
55.5498
55.5447
55.5396
55.5345
55.5294
55.5243
55.5192
55.5142
55.5091
55.5041
55.499
55.494
55.4889
55.4839
55.4789
55.4739
55.4689
55.4639
55.4589
55.4539
55.449
55.444
55.4391
55.4342
55.4293
55.4244
55.4195
55.4147
55.4098
55.405
55.4002
55.3954
55.3907
55.386
55.3813
55.3766
55.3719
55.3673
55.3627
55.3581
55.3536
55.3491
55.3447
55.3402
55.3359
55.3315
55.3272
55.323
55.3188
55.3146
55.3105
55.3065
55.3025
55.2985
55.2947
55.2908
55.2871
55.2834
55.2798
55.2762
55.2727
55.2693
55.266
55.2627
55.2596
55.2565
55.2535
55.2505
55.2477
55.245
55.2423
55.2397
55.2373
55.2349
55.2326
55.2304
55.2283
55.2263
55.2244
55.2226
55.2209
55.2193
55.2178
55.2165
55.2152
55.214
55.2129
55.2119
55.211
55.2102
55.2095
55.2088
55.2083
55.2079
55.2075
55.2073
55.2071
55.207
55.207
55.2071
55.2072
55.2074
55.2077
55.208
55.2084
55.2089
55.2094
55.21
55.2106
55.2113
55.212
55.2127
55.2134
55.2142
55.215
55.2159
55.2167
55.2176
55.2184
55.2193
55.2202
55.221
55.2219
55.2227
55.2235
55.2243
55.2251
55.2258
55.2266
55.2272
55.2279
55.2285
55.2291
55.2296
55.2301
55.2305
55.2308
55.2312
55.2314
55.2316
55.2317
55.2318
55.2318
55.2318
55.2317
55.2315
55.2312
55.2309
55.2305
55.23
55.2295
55.2289
55.2282
55.2275
55.2267
55.2258
55.2249
55.2239
55.2228
55.2217
55.2205
55.2192
55.2179
55.2165
55.215
55.2135
55.2119
55.2103
55.2086
55.2068
55.205
55.2032
55.2013
55.1993
55.1973
55.1953
55.1932
55.1911
55.1889
55.1867
55.1844
55.1821
55.1798
55.1774
55.175
55.1726
55.1701
55.1676
55.1651
55.1626
55.16
55.1574
55.1548
55.1521
55.1495
55.1468
55.1441
55.1414
55.1386
55.1359
55.1331
55.1303
55.1275
55.1247
55.1219
55.119
55.1162
55.1133
55.1105
55.1076
55.1047
55.1018
55.0989
55.096
55.0931
55.0902
55.0872
55.0843
55.0814
55.0784
55.0755
55.0726
55.0696
55.0667
55.0637
55.0608
55.0578
55.0549
55.0519
55.049
55.046
55.0431
55.0401
55.0372
55.0342
55.0313
55.0284
55.0254
55.0225
55.0196
55.0166
55.0137
55.0108
55.0079
55.005
55.0021
54.9991
54.9962
54.9934
54.9905
54.9876
54.9847
54.9818
54.979
54.9761
54.9733
54.9704
54.9676
54.9647
54.9619
54.9591
54.9563
54.9535
54.9507
54.9479
54.9451
54.9424
54.9396
54.9369
54.9341
54.9314
54.9287
54.9259
54.9232
54.9206
54.9179
54.9152
54.9125
54.9099
54.9073
54.9046
54.902
54.8994
54.8968
54.8943
54.8917
54.8891
54.8866
54.8841
54.8816
54.8791
54.8766
54.8741
54.8717
54.8692
54.8668
54.8644
54.862
54.862
56.4012
56.4012
56.1902
56.1395
56.1166
56.101
56.0883
56.0772
56.0669
56.0572
56.048
56.0391
56.0304
56.0221
56.0142
56.0068
55.9999
55.9934
55.9872
55.9811
55.975
55.9691
55.9633
55.9576
55.952
55.9466
55.9412
55.9359
55.9306
55.9253
55.92
55.9148
55.9095
55.9042
55.8989
55.8936
55.8883
55.883
55.8777
55.8724
55.8671
55.8618
55.8565
55.8512
55.846
55.8407
55.8354
55.8301
55.8249
55.8196
55.8143
55.8091
55.8038
55.7986
55.7933
55.7881
55.7828
55.7776
55.7724
55.7671
55.7619
55.7567
55.7514
55.7462
55.741
55.7358
55.7305
55.7253
55.7201
55.7149
55.7097
55.7045
55.6993
55.6941
55.6889
55.6837
55.6785
55.6733
55.6681
55.6629
55.6578
55.6526
55.6474
55.6423
55.6371
55.6319
55.6268
55.6216
55.6164
55.6113
55.6061
55.601
55.5959
55.5907
55.5856
55.5805
55.5753
55.5702
55.5651
55.56
55.5549
55.5498
55.5447
55.5396
55.5345
55.5294
55.5243
55.5192
55.5142
55.5091
55.5041
55.499
55.494
55.4889
55.4839
55.4789
55.4739
55.4689
55.4639
55.4589
55.4539
55.449
55.444
55.4391
55.4342
55.4293
55.4244
55.4195
55.4147
55.4098
55.405
55.4002