# vtk DataFile Version 2.0
FlowField
ASCII
DATASET STRUCTURED_GRID
DIMENSIONS 400 1 200
POINTS 80000 float
0 0 0
0.08 0 0
0.16 0 0
0.24 0 0
0.32 0 0
0.4 0 0
0.48 0 0
0.56 0 0
0.64 0 0
0.72 0 0
0.8 0 0
0.88 0 0
0.96 0 0
1.04 0 0
1.12 0 0
1.2 0 0
1.28 0 0
1.36 0 0
1.44 0 0
1.52 0 0
1.6 0 0
1.68 0 0
1.76 0 0
1.84 0 0
1.92 0 0
2 0 0
2.08 0 0
2.16 0 0
2.24 0 0
2.32 0 0
2.4 0 0
2.48 0 0
2.56 0 0
2.64 0 0
2.72 0 0
2.8 0 0
2.88 0 0
2.96 0 0
3.04 0 0
3.12 0 0
3.2 0 0
3.28 0 0
3.36 0 0
3.44 0 0
3.52 0 0
3.6 0 0
3.68 0 0
3.76 0 0
3.84 0 0
3.92 0 0
4 0 0
4.08 0 0
4.16 0 0
4.24 0 0
4.32 0 0
4.4 0 0
4.48 0 0
4.56 0 0
4.64 0 0
4.72 0 0
4.8 0 0
4.88 0 0
4.96 0 0
5.04 0 0
5.12 0 0
5.2 0 0
5.28 0 0
5.36 0 0
5.44 0 0
5.52 0 0
5.6 0 0
5.68 0 0
5.76 0 0
5.84 0 0
5.92 0 0
6 0 0
6.08 0 0
6.16 0 0
6.24 0 0
6.32 0 0
6.4 0 0
6.48 0 0
6.56 0 0
6.64 0 0
6.72 0 0
6.8 0 0
6.88 0 0
6.96 0 0
7.04 0 0
7.12 0 0
7.2 0 0
7.28 0 0
7.36 0 0
7.44 0 0
7.52 0 0
7.6 0 0
7.68 0 0
7.76 0 0
7.84 0 0
7.92 0 0
8 0 0
8.08 0 0
8.16 0 0
8.24 0 0
8.32 0 0
8.4 0 0
8.48 0 0
8.56 0 0
8.64 0 0
8.72 0 0
8.8 0 0
8.88 0 0
8.96 0 0
9.04 0 0
9.12 0 0
9.2 0 0
9.28 0 0
9.36 0 0
9.44 0 0
9.52 0 0
9.6 0 0
9.68 0 0
9.76 0 0
9.84 0 0
9.92 0 0
10 0 0
10.08 0 0
10.16 0 0
10.24 0 0
10.32 0 0
10.4 0 0
10.48 0 0
10.56 0 0
10.64 0 0
10.72 0 0
10.8 0 0
10.88 0 0
10.96 0 0
11.04 0 0
11.12 0 0
11.2 0 0
11.28 0 0
11.36 0 0
11.44 0 0
11.52 0 0
11.6 0 0
11.68 0 0
11.76 0 0
11.84 0 0
11.92 0 0
12 0 0
12.08 0 0
12.16 0 0
12.24 0 0
12.32 0 0
12.4 0 0
12.48 0 0
12.56 0 0
12.64 0 0
12.72 0 0
12.8 0 0
12.88 0 0
12.96 0 0
13.04 0 0
13.12 0 0
13.2 0 0
13.28 0 0
13.36 0 0
13.44 0 0
13.52 0 0
13.6 0 0
13.68 0 0
13.76 0 0
13.84 0 0
13.92 0 0
14 0 0
14.08 0 0
14.16 0 0
14.24 0 0
14.32 0 0
14.4 0 0
14.48 0 0
14.56 0 0
14.64 0 0
14.72 0 0
14.8 0 0
14.88 0 0
14.96 0 0
15.04 0 0
15.12 0 0
15.2 0 0
15.28 0 0
15.36 0 0
15.44 0 0
15.52 0 0
15.6 0 0
15.68 0 0
15.76 0 0
15.84 0 0
15.92 0 0
16 0 0
16.08 0 0
16.16 0 0
16.24 0 0
16.32 0 0
16.4 0 0
16.48 0 0
16.56 0 0
16.64 0 0
16.72 0 0
16.8 0 0
16.88 0 0
16.96 0 0
17.04 0 0
17.12 0 0
17.2 0 0
17.28 0 0
17.36 0 0
17.44 0 0
17.52 0 0
17.6 0 0
17.68 0 0
17.76 0 0
17.84 0 0
17.92 0 0
18 0 0
18.08 0 0
18.16 0 0
18.24 0 0
18.32 0 0
18.4 0 0
18.48 0 0
18.56 0 0
18.64 0 0
18.72 0 0
18.8 0 0
18.88 0 0
18.96 0 0
19.04 0 0
19.12 0 0
19.2 0 0
19.28 0 0
19.36 0 0
19.44 0 0
19.52 0 0
19.6 0 0
19.68 0 0
19.76 0 0
19.84 0 0
19.92 0 0
20 0 0
20.08 0 0
20.16 0 0
20.24 0 0
20.32 0 0
20.4 0 0
20.48 0 0
20.56 0 0
20.64 0 0
20.72 0 0
20.8 0 0
20.88 0 0
20.96 0 0
21.04 0 0
21.12 0 0
21.2 0 0
21.28 0 0
21.36 0 0
21.44 0 0
21.52 0 0
21.6 0 0
21.68 0 0
21.76 0 0
21.84 0 0
21.92 0 0
22 0 0
22.08 0 0
22.16 0 0
22.24 0 0
22.32 0 0
22.4 0 0
22.48 0 0
22.56 0 0
22.64 0 0
22.72 0 0
22.8 0 0
22.88 0 0
22.96 0 0
23.04 0 0
23.12 0 0
23.2 0 0
23.28 0 0
23.36 0 0
23.44 0 0
23.52 0 0
23.6 0 0
23.68 0 0
23.76 0 0
23.84 0 0
23.92 0 0
24 0 0
24.08 0 0
24.16 0 0
24.24 0 0
24.32 0 0
24.4 0 0
24.48 0 0
24.56 0 0
24.64 0 0
24.72 0 0
24.8 0 0
24.88 0 0
24.96 0 0
25.04 0 0
25.12 0 0
25.2 0 0
25.28 0 0
25.36 0 0
25.44 0 0
25.52 0 0
25.6 0 0
25.68 0 0
25.76 0 0
25.84 0 0
25.92 0 0
26 0 0
26.08 0 0
26.16 0 0
26.24 0 0
26.32 0 0
26.4 0 0
26.48 0 0
26.56 0 0
26.64 0 0
26.72 0 0
26.8 0 0
26.88 0 0
26.96 0 0
27.04 0 0
27.12 0 0
27.2 0 0
27.28 0 0
27.36 0 0
27.44 0 0
27.52 0 0
27.6 0 0
27.68 0 0
27.76 0 0
27.84 0 0
27.92 0 0
28 0 0
28.08 0 0
28.16 0 0
28.24 0 0
28.32 0 0
28.4 0 0
28.48 0 0
28.56 0 0
28.64 0 0
28.72 0 0
28.8 0 0
28.88 0 0
28.96 0 0
29.04 0 0
29.12 0 0
29.2 0 0
29.28 0 0
29.36 0 0
29.44 0 0
29.52 0 0
29.6 0 0
29.68 0 0
29.76 0 0
29.84 0 0
29.92 0 0
30 0 0
30.08 0 0
30.16 0 0
30.24 0 0
30.32 0 0
30.4 0 0
30.48 0 0
30.56 0 0
30.64 0 0
30.72 0 0
30.8 0 0
30.88 0 0
30.96 0 0
31.04 0 0
31.12 0 0
31.2 0 0
31.28 0 0
31.36 0 0
31.44 0 0
31.52 0 0
31.6 0 0
31.68 0 0
31.76 0 0
31.84 0 0
31.92 0 0
0 0.005 0
0.08 0.005 0
0.16 0.005 0
0.24 0.005 0
0.32 0.005 0
0.4 0.005 0
0.48 0.005 0
0.56 0.005 0
0.64 0.005 0
0.72 0.005 0
0.8 0.005 0
0.88 0.005 0
0.96 0.005 0
1.04 0.005 0
1.12 0.005 0
1.2 0.005 0
1.28 0.005 0
1.36 0.005 0
1.44 0.005 0
1.52 0.005 0
1.6 0.005 0
1.68 0.005 0
1.76 0.005 0
1.84 0.005 0
1.92 0.005 0
2 0.005 0
2.08 0.005 0
2.16 0.005 0
2.24 0.005 0
2.32 0.005 0
2.4 0.005 0
2.48 0.005 0
2.56 0.005 0
2.64 0.005 0
2.72 0.005 0
2.8 0.005 0
2.88 0.005 0
2.96 0.005 0
3.04 0.005 0
3.12 0.005 0
3.2 0.005 0
3.28 0.005 0
3.36 0.005 0
3.44 0.005 0
3.52 0.005 0
3.6 0.005 0
3.68 0.005 0
3.76 0.005 0
3.84 0.005 0
3.92 0.005 0
4 0.005 0
4.08 0.005 0
4.16 0.005 0
4.24 0.005 0
4.32 0.005 0
4.4 0.005 0
4.48 0.005 0
4.56 0.005 0
4.64 0.005 0
4.72 0.005 0
4.8 0.005 0
4.88 0.005 0
4.96 0.005 0
5.04 0.005 0
5.12 0.005 0
5.2 0.005 0
5.28 0.005 0
5.36 0.005 0
5.44 0.005 0
5.52 0.005 0
5.6 0.005 0
5.68 0.005 0
5.76 0.005 0
5.84 0.005 0
5.92 0.005 0
6 0.005 0
6.08 0.005 0
6.16 0.005 0
6.24 0.005 0
6.32 0.005 0
6.4 0.005 0
6.48 0.005 0
6.56 0.005 0
6.64 0.005 0
6.72 0.005 0
6.8 0.005 0
6.88 0.005 0
6.96 0.005 0
7.04 0.005 0
7.12 0.005 0
7.2 0.005 0
7.28 0.005 0
7.36 0.005 0
7.44 0.005 0
7.52 0.005 0
7.6 0.005 0
7.68 0.005 0
7.76 0.005 0
7.84 0.005 0
7.92 0.005 0
8 0.005 0
8.08 0.005 0
8.16 0.005 0
8.24 0.005 0
8.32 0.005 0
8.4 0.005 0
8.48 0.005 0
8.56 0.005 0
8.64 0.005 0
8.72 0.005 0
8.8 0.005 0
8.88 0.005 0
8.96 0.005 0
9.04 0.005 0
9.12 0.005 0
9.2 0.005 0
9.28 0.005 0
9.36 0.005 0
9.44 0.005 0
9.52 0.005 0
9.6 0.005 0
9.68 0.005 0
9.76 0.005 0
9.84 0.005 0
9.92 0.005 0
10 0.005 0
10.08 0.005 0
10.16 0.005 0
10.24 0.005 0
10.32 0.005 0
10.4 0.005 0
10.48 0.005 0
10.56 0.005 0
10.64 0.005 0
10.72 0.005 0
10.8 0.005 0
10.88 0.005 0
10.96 0.005 0
11.04 0.005 0
11.12 0.005 0
11.2 0.005 0
11.28 0.005 0
11.36 0.005 0
11.44 0.005 0
11.52 0.005 0
11.6 0.005 0
11.68 0.005 0
11.76 0.005 0
11.84 0.005 0
11.92 0.005 0
12 0.005 0
12.08 0.005 0
12.16 0.005 0
12.24 0.005 0
12.32 0.005 0
12.4 0.005 0
12.48 0.005 0
12.56 0.005 0
12.64 0.005 0
12.72 0.005 0
12.8 0.005 0
12.88 0.005 0
12.96 0.005 0
13.04 0.005 0
13.12 0.005 0
13.2 0.005 0
13.28 0.005 0
13.36 0.005 0
13.44 0.005 0
13.52 0.005 0
13.6 0.005 0
13.68 0.005 0
13.76 0.005 0
13.84 0.005 0
13.92 0.005 0
14 0.005 0
14.08 0.005 0
14.16 0.005 0
14.24 0.005 0
14.32 0.005 0
14.4 0.005 0
14.48 0.005 0
14.56 0.005 0
14.64 0.005 0
14.72 0.005 0
14.8 0.005 0
14.88 0.005 0
14.96 0.005 0
15.04 0.005 0
15.12 0.005 0
15.2 0.005 0
15.28 0.005 0
15.36 0.005 0
15.44 0.005 0
15.52 0.005 0
15.6 0.005 0
15.68 0.005 0
15.76 0.005 0
15.84 0.005 0
15.92 0.005 0
16 0.005 0
16.08 0.005 0
16.16 0.005 0
16.24 0.005 0
16.32 0.005 0
16.4 0.005 0
16.48 0.005 0
16.56 0.005 0
16.64 0.005 0
16.72 0.005 0
16.8 0.005 0
16.88 0.005 0
16.96 0.005 0
17.04 0.005 0
17.12 0.005 0
17.2 0.005 0
17.28 0.005 0
17.36 0.005 0
17.44 0.005 0
17.52 0.005 0
17.6 0.005 0
17.68 0.005 0
17.76 0.005 0
17.84 0.005 0
17.92 0.005 0
18 0.005 0
18.08 0.005 0
18.16 0.005 0
18.24 0.005 0
18.32 0.005 0
18.4 0.005 0
18.48 0.005 0
18.56 0.005 0
18.64 0.005 0
18.72 0.005 0
18.8 0.005 0
18.88 0.005 0
18.96 0.005 0
19.04 0.005 0
19.12 0.005 0
19.2 0.005 0
19.28 0.005 0
19.36 0.005 0
19.44 0.005 0
19.52 0.005 0
19.6 0.005 0
19.68 0.005 0
19.76 0.005 0
19.84 0.005 0
19.92 0.005 0
20 0.005 0
20.08 0.005 0
20.16 0.005 0
20.24 0.005 0
20.32 0.005 0
20.4 0.005 0
20.48 0.005 0
20.56 0.005 0
20.64 0.005 0
20.72 0.005 0
20.8 0.005 0
20.88 0.005 0
20.96 0.005 0
21.04 0.005 0
21.12 0.005 0
21.2 0.005 0
21.28 0.005 0
21.36 0.005 0
21.44 0.005 0
21.52 0.005 0
21.6 0.005 0
21.68 0.005 0
21.76 0.005 0
21.84 0.005 0
21.92 0.005 0
22 0.005 0
22.08 0.005 0
22.16 0.005 0
22.24 0.005 0
22.32 0.005 0
22.4 0.005 0
22.48 0.005 0
22.56 0.005 0
22.64 0.005 0
22.72 0.005 0
22.8 0.005 0
22.88 0.005 0
22.96 0.005 0
23.04 0.005 0
23.12 0.005 0
23.2 0.005 0
23.28 0.005 0
23.36 0.005 0
23.44 0.005 0
23.52 0.005 0
23.6 0.005 0
23.68 0.005 0
23.76 0.005 0
23.84 0.005 0
23.92 0.005 0
24 0.005 0
24.08 0.005 0
24.16 0.005 0
24.24 0.005 0
24.32 0.005 0
24.4 0.005 0
24.48 0.005 0
24.56 0.005 0
24.64 0.005 0
24.72 0.005 0
24.8 0.005 0
24.88 0.005 0
24.96 0.005 0
25.04 0.005 0
25.12 0.005 0
25.2 0.005 0
25.28 0.005 0
25.36 0.005 0
25.44 0.005 0
25.52 0.005 0
25.6 0.005 0
25.68 0.005 0
25.76 0.005 0
25.84 0.005 0
25.92 0.005 0
26 0.005 0
26.08 0.005 0
26.16 0.005 0
26.24 0.005 0
26.32 0.005 0
26.4 0.005 0
26.48 0.005 0
26.56 0.005 0
26.64 0.005 0
26.72 0.005 0
26.8 0.005 0
26.88 0.005 0
26.96 0.005 0
27.04 0.005 0
27.12 0.005 0
27.2 0.005 0
27.28 0.005 0
27.36 0.005 0
27.44 0.005 0
27.52 0.005 0
27.6 0.005 0
27.68 0.005 0
27.76 0.005 0
27.84 0.005 0
27.92 0.005 0
28 0.005 0
28.08 0.005 0
28.16 0.005 0
28.24 0.005 0
28.32 0.005 0
28.4 0.005 0
28.48 0.005 0
28.56 0.005 0
28.64 0.005 0
28.72 0.005 0
28.8 0.005 0
28.88 0.005 0
28.96 0.005 0
29.04 0.005 0
29.12 0.005 0
29.2 0.005 0
29.28 0.005 0
29.36 0.005 0
29.44 0.005 0
29.52 0.005 0
29.6 0.005 0
29.68 0.005 0
29.76 0.005 0
29.84 0.005 0
29.92 0.005 0
30 0.005 0
30.08 0.005 0
30.16 0.005 0
30.24 0.005 0
30.32 0.005 0
30.4 0.005 0
30.48 0.005 0
30.56 0.005 0
30.64 0.005 0
30.72 0.005 0
30.8 0.005 0
30.88 0.005 0
30.96 0.005 0
31.04 0.005 0
31.12 0.005 0
31.2 0.005 0
31.28 0.005 0
31.36 0.005 0
31.44 0.005 0
31.52 0.005 0
31.6 0.005 0
31.68 0.005 0
31.76 0.005 0
31.84 0.005 0
31.92 0.005 0
0 0.01 0
0.08 0.01 0
0.16 0.01 0
0.24 0.01 0
0.32 0.01 0
0.4 0.01 0
0.48 0.01 0
0.56 0.01 0
0.64 0.01 0
0.72 0.01 0
0.8 0.01 0
0.88 0.01 0
0.96 0.01 0
1.04 0.01 0
1.12 0.01 0
1.2 0.01 0
1.28 0.01 0
1.36 0.01 0
1.44 0.01 0
1.52 0.01 0
1.6 0.01 0
1.68 0.01 0
1.76 0.01 0
1.84 0.01 0
1.92 0.01 0
2 0.01 0
2.08 0.01 0
2.16 0.01 0
2.24 0.01 0
2.32 0.01 0
2.4 0.01 0
2.48 0.01 0
2.56 0.01 0
2.64 0.01 0
2.72 0.01 0
2.8 0.01 0
2.88 0.01 0
2.96 0.01 0
3.04 0.01 0
3.12 0.01 0
3.2 0.01 0
3.28 0.01 0
3.36 0.01 0
3.44 0.01 0
3.52 0.01 0
3.6 0.01 0
3.68 0.01 0
3.76 0.01 0
3.84 0.01 0
3.92 0.01 0
4 0.01 0
4.08 0.01 0
4.16 0.01 0
4.24 0.01 0
4.32 0.01 0
4.4 0.01 0
4.48 0.01 0
4.56 0.01 0
4.64 0.01 0
4.72 0.01 0
4.8 0.01 0
4.88 0.01 0
4.96 0.01 0
5.04 0.01 0
5.12 0.01 0
[...]
POINT_DATA 80000

SCALARS u float 1
LOOKUP_TABLE default
0
-0.131663
-0.06827
-0.0522969
-0.0444209
-0.039578
-0.036261
-0.0338341
-0.0319742
-0.0304976
-0.0292917
-0.0282836
-0.0274242
-0.0266798
-0.026026
-0.0254455
-0.0249251
-0.0244547
-0.0240268
-0.0236351
-0.023275
-0.0229428
-0.0226352
-0.0223495
-0.0220831
-0.0218343
-0.0216019
-0.021385
-0.0211824
-0.0209929
-0.0208152
-0.0206485
-0.020493
-0.0203496
-0.0202194
-0.0201028
-0.0199992
-0.0199074
-0.0198258
-0.019753
-0.0196882
-0.019631
-0.0195811
-0.0195378
-0.0195001
-0.0194666
-0.019436
-0.019407
-0.0193793
-0.0193528
-0.019328
-0.0193054
-0.0192857
-0.0192693
-0.0192562
-0.0192464
-0.0192395
-0.0192349
-0.0192322
-0.0192309
-0.0192306
-0.0192309
-0.0192315
-0.0192325
-0.0192335
-0.0192346
-0.0192358
-0.0192369
-0.0192381
-0.0192393
-0.0192406
-0.0192418
-0.019243
-0.0192443
-0.0192455
-0.0192468
-0.019248
-0.0192493
-0.0192506
-0.0192518
-0.0192531
-0.0192544
-0.0192556
-0.0192569
-0.0192582
-0.0192594
-0.0192607
-0.019262
-0.0192633
-0.0192645
-0.0192658
-0.0192671
-0.0192684
-0.0192697
-0.0192709
-0.0192722
-0.0192735
-0.0192748
-0.0192761
-0.0192773
-0.0192786
-0.0192799
-0.0192812
-0.0192825
-0.0192838
-0.0192851
-0.0192864
-0.0192877
-0.019289
-0.0192903
-0.0192916
-0.0192929
-0.0192942
-0.0192955
-0.0192968
-0.0192981
-0.0192994
-0.0193007
-0.019302
-0.0193033
-0.0193046
-0.019306
-0.0193073
-0.0193086
-0.0193099
-0.0193112
-0.0193126
-0.0193139
-0.0193152
-0.0193165
-0.0193179
-0.0193192
-0.0193205
-0.0193219
-0.0193232
-0.0193246
-0.0193259
-0.0193272
-0.0193286
-0.0193299
-0.0193313
-0.0193326
-0.019334
-0.0193353
-0.0193367
-0.019338
-0.0193394
-0.0193407
-0.0193421
-0.0193435
-0.0193448
-0.0193462
-0.0193476
-0.0193489
-0.0193503
-0.0193517
-0.0193531
-0.0193544
-0.0193558
-0.0193572
-0.0193586
-0.0193599
-0.0193613
-0.0193627
-0.0193641
-0.0193655
-0.0193669
-0.0193683
-0.0193697
-0.0193711
-0.0193725
-0.0193739
-0.0193753
-0.0193767
-0.0193781
-0.0193795
-0.0193809
-0.0193823
-0.0193837
-0.0193851
-0.0193865
-0.0193879
-0.0193893
-0.0193907
-0.0193922
-0.0193936
-0.019395
-0.0193964
-0.0193978
-0.0193993
-0.0194007
-0.0194021
-0.0194035
-0.019405
-0.0194064
-0.0194078
-0.0194093
-0.0194107
-0.0194121
-0.0194136
-0.019415
-0.0194164
-0.0194179
-0.0194193
-0.0194208
-0.0194222
-0.0194236
-0.0194251
-0.0194265
-0.019428
-0.0194294
-0.0194309
-0.0194323
-0.0194338
-0.0194352
-0.0194367
-0.0194381
-0.0194396
-0.0194411
-0.0194425
-0.019444
-0.0194454
-0.0194469
-0.0194484
-0.0194498
-0.0194513
-0.0194528
-0.0194542
-0.0194557
-0.0194572
-0.0194586
-0.0194601
-0.0194616
-0.0194631
-0.0194645
-0.019466
-0.0194675
-0.019469
-0.0194704
-0.0194719
-0.0194734
-0.0194749
-0.0194764
-0.0194779
-0.0194793
-0.0194808
-0.0194823
-0.0194838
-0.0194853
-0.0194868
-0.0194883
-0.0194898
-0.0194913
-0.0194928
-0.0194943
-0.0194958
-0.0194973
-0.0194988
-0.0195003
-0.0195018
-0.0195033
-0.0195048
-0.0195063
-0.0195078
-0.0195093
-0.0195108
-0.0195123
-0.0195138
-0.0195153
-0.0195168
-0.0195183
-0.0195198
-0.0195214
-0.0195229
-0.0195244
-0.0195259
-0.0195274
-0.019529
-0.0195305
-0.019532
-0.0195335
-0.019535
-0.0195366
-0.0195381
-0.0195396
-0.0195411
-0.0195427
-0.0195442
-0.0195457
-0.0195473
-0.0195488
-0.0195503
-0.0195519
-0.0195534
-0.0195549
-0.0195565
-0.019558
-0.0195596
-0.0195611
-0.0195627
-0.0195642
-0.0195657
-0.0195673
-0.0195688
-0.0195704
-0.0195719
-0.0195735
-0.019575
-0.0195766
-0.0195781
-0.0195797
-0.0195813
-0.0195828
-0.0195844
-0.0195859
-0.0195875
-0.019589
-0.0195906
-0.0195922
-0.0195937
-0.0195953
-0.0195969
-0.0195984
-0.0196
-0.0196016
-0.0196031
-0.0196047
-0.0196063
-0.0196079
-0.0196094
-0.019611
-0.0196126
-0.0196142
-0.0196158
-0.0196173
-0.0196189
-0.0196205
-0.0196221
-0.0196237
-0.0196253
-0.0196268
-0.0196284
-0.01963
-0.0196316
-0.0196332
-0.0196348
-0.0196364
-0.019638
-0.0196396
-0.0196412
-0.0196428
-0.0196444
-0.019646
-0.0196476
-0.0196492
-0.0196508
-0.0196524
-0.019654
-0.0196556
-0.0196572
-0.0196588
-0.0196605
-0.0196621
-0.0196637
-0.0196653
-0.0196669
-0.0196685
-0.0196702
-0.0196718
-0.0196734
-0.019675
-0.0196766
-0.0196783
-0.0196799
-0.0196815
-0.0196831
-0.0196848
-0.0196864
-0.019688
-0.0196897
-0.0196913
-0.019693
-0.0196945
-0.0196962
-0.0196978
-0.0196995
-0.0197011
-0.0197028
-0.0197044
-0.0197061
-0.0197077
-0.0197094
-0.0197111
-0.0197127
-0.0197147
-0.0197157
-0.0197185
-0.019716
-0.019716
-0.019716
1
0.131663
0.06827
0.0522969
0.0444209
0.039578
0.036261
0.0338341
0.0319742
0.0304976
0.0292917
0.0282836
0.0274242
0.0266798
0.026026
0.0254455
0.0249251
0.0244547
0.0240268
0.0236351
0.023275
0.0229428
0.0226352
0.0223495
0.0220831
0.0218343
0.0216019
0.021385
0.0211824
0.0209929
0.0208152
0.0206485
0.020493
0.0203496
0.0202194
0.0201028
0.0199992
0.0199074
0.0198258
0.019753
0.0196882
0.019631
0.0195811
0.0195378
0.0195001
0.0194666
0.019436
0.019407
0.0193793
0.0193528
0.019328
0.0193054
0.0192857
0.0192693
0.0192562
0.0192464
0.0192395
0.0192349
0.0192322
0.0192309
0.0192306
0.0192309
0.0192315
0.0192325
0.0192335
0.0192346
0.0192358
0.0192369
0.0192381
0.0192393
0.0192406
0.0192418
0.019243
0.0192443
0.0192455
0.0192468
0.019248
0.0192493
0.0192506
0.0192518
0.0192531
0.0192544
0.0192556
0.0192569
0.0192582
0.0192594
0.0192607
0.019262
0.0192633
0.0192645
0.0192658
0.0192671
0.0192684
0.0192697
0.0192709
0.0192722
0.0192735
0.0192748
0.0192761
0.0192773
0.0192786
0.0192799
0.0192812
0.0192825
0.0192838
0.0192851
0.0192864
0.0192877
0.019289
0.0192903
0.0192916
0.0192929
0.0192942
0.0192955
0.0192968
0.0192981
0.0192994
0.0193007
0.019302
0.0193033
0.0193046
0.019306
0.0193073
0.0193086
0.0193099
0.0193112
0.0193126
0.0193139
0.0193152
0.0193165
0.0193179
0.0193192
0.0193205
0.0193219
0.0193232
0.0193246
0.0193259
0.0193272
0.0193286
0.0193299
0.0193313
0.0193326
0.019334
0.0193353
0.0193367
0.019338
0.0193394
0.0193407
0.0193421
0.0193435
0.0193448
0.0193462
0.0193476
0.0193489
0.0193503
0.0193517
0.0193531
0.0193544
0.0193558
0.0193572
0.0193586
0.0193599
0.0193613
0.0193627
0.0193641
0.0193655
0.0193669
0.0193683
0.0193697
0.0193711
0.0193725
0.0193739
0.0193753
0.0193767
0.0193781
0.0193795
0.0193809
0.0193823
0.0193837
0.0193851
0.0193865
0.0193879
0.0193893
0.0193907
0.0193922
0.0193936
0.019395
0.0193964
0.0193978
0.0193993
0.0194007
0.0194021
0.0194035
0.019405
0.0194064
0.0194078
0.0194093
0.0194107
0.0194121
0.0194136
0.019415
0.0194164
0.0194179
0.0194193
0.0194208
0.0194222
0.0194236
0.0194251
0.0194265
0.019428
0.0194294
0.0194309
0.0194323
0.0194338
0.0194352
0.0194367
0.0194381
0.0194396
0.0194411
0.0194425
0.019444
0.0194454
0.0194469
0.0194484
0.0194498
0.0194513
0.0194528
0.0194542
0.0194557
0.0194572
0.0194586
0.0194601
0.0194616
0.0194631
0.0194645
0.019466
0.0194675
0.019469
0.0194704
0.0194719
0.0194734
0.0194749
0.0194764
0.0194779
0.0194793
0.0194808
0.0194823
0.0194838
0.0194853
0.0194868
0.0194883
0.0194898
0.0194913
0.0194928
0.0194943
0.0194958
0.0194973
0.0194988
0.0195003
0.0195018
0.0195033
0.0195048
0.0195063
0.0195078
0.0195093
0.0195108
0.0195123
0.0195138
0.0195153
0.0195168
0.0195183
0.0195198
0.0195214
0.0195229
0.0195244
0.0195259
0.0195274
0.019529
0.0195305
0.019532
0.0195335
0.019535
0.0195366
0.0195381
0.0195396
0.0195411
0.0195427
0.0195442
0.0195457
0.0195473
0.0195488
0.0195503
0.0195519
0.0195534
0.0195549
0.0195565
0.019558
0.0195596
0.0195611
0.0195627
0.0195642
0.0195657
0.0195673
0.0195688
0.0195704
0.0195719
0.0195735
0.019575
0.0195766
0.0195781
0.0195797
0.0195813
0.0195828
0.0195844
0.0195859
0.0195875
0.019589
0.0195906
0.0195922
0.0195937
0.0195953
0.0195969
0.0195984
0.0196
0.0196016
0.0196031
0.0196047
0.0196063
0.0196079
0.0196094
0.019611
0.0196126
0.0196142
0.0196158
0.0196173
0.0196189
0.0196205
0.0196221
0.0196237
0.0196253
0.0196268
0.0196284
0.01963
0.0196316
0.0196332
0.0196348
0.0196364
0.019638
0.0196396
0.0196412
0.0196428
0.0196444
0.019646
0.0196476
0.0196492
0.0196508
0.0196524
0.019654
0.0196556
0.0196572
0.0196588
0.0196605
0.0196621
0.0196637
0.0196653
0.0196669
0.0196685
0.0196702
0.0196718
0.0196734
0.019675
0.0196766
0.0196783
0.0196799
0.0196815
0.0196831
0.0196848
0.0196864
0.019688
0.0196897
0.0196913
0.019693
0.0196945
0.0196962
0.0196978
0.0196995
0.0197011
0.0197028
0.0197044
0.0197061
0.0197077
0.0197094
0.0197111
0.0197127
0.0197147
0.0197157
0.0197185
0.019716
0.019716
0.019716
1
0.344885
0.20067
0.15497
0.131898
0.117602
0.107772
0.100562
0.0950296
0.0906341
0.0870434
0.0840419
0.0814844
0.0792698
0.0773262
0.0756011
0.0740554
0.0726593
0.0713895
0.070228
0.0691607
0.0681763
0.0672654
0.0664193
0.065631
0.0648952
0.0642085
0.0635678
0.0629699
0.0624108
0.0618872
0.0613973
0.0609418
0.0605232
0.060144
0.059805
0.0595043
0.0592379
0.0590014
0.0587908
0.0586038
0.0584391
0.0582951
0.0581699
0.0580601
0.0579619
0.0578716
0.0577866
0.0577057
0.0576292
0.0575584
0.057495
0.0574403
0.0573953
0.0573601
0.057334
0.0573158
0.0573042
0.0572976
0.0572947
0.0572943
0.0572955
0.0572978
0.0573007
0.0573039
0.0573073
0.0573108
0.0573143
0.0573179
0.0573216
0.0573253
0.057329
0.0573327
0.0573364
0.0573402
0.057344
0.0573478
0.0573516
0.0573554
0.0573592
0.057363
0.0573668
0.0573706
0.0573744
0.0573782
0.057382
0.0573858
0.0573897
0.0573935
0.0573973
0.0574011
0.057405
0.0574088
0.0574127
0.0574165
0.0574203
0.0574242
0.057428
0.0574319
0.0574357
0.0574396
0.0574435
0.0574473
0.0574512
0.0574551
0.0574589
0.0574628
0.0574667
0.0574706
0.0574745
0.0574784
0.0574823
0.0574861
0.0574901
0.057494
0.0574979
0.0575018
0.0575057
0.0575096
0.0575135
0.0575175
0.0575214
0.0575253
0.0575293
0.0575332
0.0575372
0.0575411
0.0575451
0.0575491
0.057553
0.057557
0.057561
0.057565
0.0575689
0.0575729
0.0575769
0.0575809
0.0575849
0.0575889
0.057593
0.057597
0.057601
0.057605
0.0576091
0.0576131
0.0576171
0.0576212
0.0576252
0.0576293
0.0576333
0.0576374
0.0576415
0.0576455
0.0576496
0.0576537
0.0576578
0.0576619
0.057666
0.0576701
0.0576742
0.0576783
0.0576824
0.0576865
0.0576906
0.0576948
0.0576989
0.057703
0.0577072
0.0577113
0.0577155
0.0577196
0.0577238
0.057728
0.0577321
0.0577363
0.0577405
0.0577447
0.0577488
0.057753
0.0577572
0.0577614
0.0577656
0.0577698
0.057774
0.0577783
0.0577825
0.0577867
0.0577909
0.0577951
0.0577994
0.0578036
0.0578079
0.0578121
0.0578164
0.0578206
0.0578249
0.0578291
0.0578334
0.0578377
0.0578419
0.0578462
0.0578505
0.0578548
0.0578591
0.0578634
0.0578677
0.0578719
0.0578763
0.0578806
0.0578849
0.0578892
0.0578935
0.0578978
0.0579021
0.0579065
0.0579108
0.0579151
0.0579195
0.0579238
0.0579281
0.0579325
0.0579368
0.0579412
0.0579456
0.0579499
0.0579543
0.0579586
0.057963
0.0579674
0.0579718
0.0579762
0.0579805
0.0579849
0.0579893
0.0579937
0.0579981
0.0580025
0.0580069
0.0580113
0.0580157
0.0580201
0.0580245
0.058029
0.0580334
0.0580378
0.0580422
0.0580467
0.0580511
0.0580556
0.05806
0.0580644
0.0580689
0.0580733
0.0580778
0.0580822
0.0580867
0.0580912
0.0580956
0.0581001
0.0581046
0.0581091
0.0581135
0.058118
0.0581225
0.058127
0.0581315
0.058136
0.0581405
0.058145
0.0581495
0.058154
0.0581585
0.058163
0.0581675
0.0581721
0.0581766
0.0581811
0.0581856
0.0581902
0.0581947
0.0581992
0.0582038
0.0582083
0.0582129
0.0582174
0.058222
0.0582265
0.0582311
0.0582357
0.0582402
0.0582448
0.0582494
0.058254
0.0582585
0.0582631
0.0582677
0.0582723
0.0582769
0.0582815
0.0582861
0.0582907
0.0582953
0.0582999
0.0583045
0.0583091
0.0583138
0.0583184
0.058323
0.0583276
0.0583323
0.0583369
0.0583415
0.0583462
0.0583508
0.0583555
0.0583601
0.0583648
0.0583695
0.0583741
0.0583788
0.0583834
0.0583881
0.0583928
0.0583975
0.0584022
0.0584068
0.0584115
0.0584162
0.0584209
0.0584256
0.0584303
0.058435
0.0584397
0.0584444
0.0584491
0.0584539
0.0584586
0.0584633
0.058468
0.0584728
0.0584775
0.0584822
0.058487
0.0584917
0.0584965
0.0585012
0.058506
0.0585107
0.0585155
0.0585203
0.058525
0.0585298
0.0585346
0.0585394
0.0585441
0.0585489
0.0585537
0.0585585
0.0585633
0.0585681
0.0585729
0.0585777
0.0585825
0.0585873
0.0585921
0.058597
0.0586018
0.0586066
0.0586114
0.0586163
0.0586211
0.058626
0.0586308
0.0586357
0.0586405
0.0586454
0.0586502
0.0586551
0.0586599
0.0586649
0.0586697
0.0586746
0.0586794
0.0586844
0.0586892
0.0586942
0.0586989
0.058704
0.0587088
0.0587139
0.0587187
0.0587237
0.0587288
0.0587334
0.0587394
0.0587426
0.0587506
0.0587446
0.0587446
0.0587446
1
0.518767
0.327405
0.255351
0.217853
0.194409
0.178218
0.166314
0.157166
0.149892
0.143948
0.138979
0.134746
0.131082
0.127867
0.125015
0.12246
0.120154
0.118057
0.11614
0.114378
0.112754
0.111252
0.109857
0.108557
0.107345
0.106215
0.10516
0.104177
0.103257
0.102397
0.101594
0.100849
0.100165
0.0995478
0.0989962
0.0985073
0.0980744
0.0976903
0.097349
0.0970464
0.0967799
0.0965469
0.0963433
0.0961641
0.096003
0.0958547
0.0957153
0.0955835
0.0954599
0.0953465
0.095246
0.0951602
0.0950904
0.0950362
0.0949966
0.0949694
0.0949523
0.094943
0.0949393
0.0949393
0.0949419
0.0949459
0.0949508
0.0949562
0.0949619
0.0949678
0.0949737
0.0949798
0.0949859
0.094992
0.0949982
0.0950044
0.0950107
0.0950169
0.0950232
0.0950295
0.0950358
0.0950422
0.0950485
0.0950548
0.0950612
0.0950675
0.0950739
0.0950802
0.0950866
0.0950929
0.0950993
0.0951057
0.095112
0.0951184
0.0951248
0.0951312
0.0951376
0.0951439
0.0951503
0.0951567
0.0951631
0.0951696
0.095176
0.0951824
0.0951888
0.0951952
0.0952017
0.0952081
0.0952146
0.095221
0.0952275
0.0952339
0.0952404
0.0952468
0.0952533
0.0952598
0.0952663
0.0952728
0.0952793
0.0952858
0.0952923
0.0952988
0.0953053
0.0953118
0.0953184
0.0953249
0.0953315
0.095338
0.0953446
0.0953511
0.0953577
0.0953643
0.0953709
0.0953775
0.0953841
0.0953907
0.0953973
0.0954039
0.0954105
0.0954172
0.0954238
0.0954304
0.0954371
0.0954437
0.0954504
0.0954571
0.0954638
0.0954705
0.0954772
0.0954839
0.0954906
0.0954973
0.095504
0.0955107
0.0955175
0.0955242
0.095531
0.0955377
0.0955445
0.0955513
0.0955581
0.0955649
0.0955717
0.0955785
0.0955853
0.0955921
0.0955989
0.0956057
0.0956126
0.0956194
0.0956263
0.0956331
0.09564
0.0956469
0.0956538
0.0956607
0.0956676
0.0956745
0.0956814
0.0956883
0.0956952
0.0957021
0.0957091
0.095716
0.095723
0.0957299
0.0957369
0.0957439
0.0957509
0.0957578
0.0957648
0.0957718
0.0957788
0.0957858
0.0957929
0.0957999
0.0958069
0.0958139
0.095821
0.095828
0.0958351
0.0958422
0.0958492
0.0958563
0.0958634
0.0958705
0.0958776
0.0958847
0.0958918
0.0958989
0.095906
0.0959131
0.0959202
0.0959274
0.0959345
0.0959417
0.0959488
0.095956
0.0959631
0.0959703
0.0959775
0.0959847
0.0959919
0.0959991
0.0960062
0.0960135
0.0960207
0.0960279
0.0960351
0.0960423
0.0960496
0.0960568
0.096064
0.0960713
0.0960785
0.0960858
0.0960931
0.0961003
0.0961076
0.0961149
0.0961222
0.0961295
0.0961368
0.0961441
0.0961514
0.0961587
0.096166
0.0961733
0.0961807
0.096188
0.0961954
0.0962027
0.0962101
0.0962174
0.0962248
0.0962321
0.0962395
0.0962469
0.0962543
0.0962617
0.0962691
0.0962765
0.0962839
0.0962913
0.0962987
0.0963061
0.0963135
0.096321
0.0963284
0.0963358
0.0963433
0.0963507
0.0963582
0.0963657
0.0963731
0.0963806
0.0963881
0.0963956
0.0964031
0.0964106
0.0964181
0.0964256
0.0964331
0.0964406
0.0964481
0.0964556
0.0964632
0.0964707
0.0964782
0.0964858
0.0964933
0.0965009
0.0965085
0.096516
0.0965236
0.0965312
0.0965388
0.0965464
0.096554
0.0965616
0.0965692
0.0965768
0.0965844
0.096592
0.0965996
0.0966073
0.0966149
0.0966226
0.0966302
0.0966379
0.0966455
0.0966532
0.0966609
0.0966685
0.0966762
0.0966839
0.0966916
0.0966993
0.096707
0.0967147
0.0967224
0.0967301
0.0967379
0.0967456
0.0967533
0.0967611
0.0967688
0.0967766
0.0967843
0.0967921
0.0967999
0.0968076
0.0968154
0.0968232
0.096831
0.0968388
0.0968466
0.0968544
0.0968622
0.09687
0.0968779
0.0968857
0.0968935
0.0969014
0.0969092
0.0969171
0.0969249
0.0969328
0.0969407
0.0969485
0.0969564
0.0969643
0.0969722
0.0969801
0.096988
0.0969959
0.0970038
0.0970118
0.0970197
0.0970276
0.0970356
0.0970435
0.0970514
0.0970594
0.0970674
0.0970753
0.0970833
0.0970913
0.0970993
0.0971072
0.0971153
0.0971232
0.0971313
0.0971392
0.0971473
0.0971553
0.0971634
0.0971714
0.0971795
0.0971874
0.0971956
0.0972036
0.0972117
0.0972197
0.0972279
0.0972358
0.0972441
0.097252
0.0972604
0.0972682
0.0972766
0.0972845
0.0972929
0.0973009
0.0973092
0.0973177
0.0973254
0.0973351
0.0973407
0.0973535
0.0973454
0.0973454
0.0973454
1
0.660889
0.446898
0.352883
0.302036
0.269857
0.247509
0.231028
0.218338
0.208237
0.199979
0.193074
0.187192
0.182101
0.177636
0.173676
0.17013
0.16693
0.164021
0.161363
0.158921
0.156671
0.154589
0.152657
0.150857
0.14918
0.147616
0.146158
0.144798
0.143527
0.14234
0.141233
0.140208
0.13927
0.138423
0.137668
0.136998
0.136406
0.135881
0.135415
0.135003
0.13464
0.134322
0.134043
0.133797
0.133574
0.133369
0.133177
0.132996
0.132828
0.132675
0.132541
0.132428
0.132336
0.132266
0.132215
0.13218
0.132159
0.132148
0.132144
0.132145
0.132149
0.132155
0.132162
0.13217
0.132178
0.132186
0.132194
0.132203
0.132211
0.13222
0.132228
0.132237
0.132246
0.132255
0.132263
0.132272
0.132281
0.13229
0.132299
0.132307
0.132316
0.132325
0.132334
0.132343
0.132352
0.132361
0.13237
0.132378
0.132387
0.132396
0.132405
0.132414
0.132423
0.132432
0.132441
0.13245
0.132459
0.132468
0.132477
0.132486
0.132495
0.132504
0.132512
0.132521
0.13253
0.132539
0.132548
0.132557
0.132566
0.132575
0.132585
0.132594
0.132603
0.132612
0.132621
0.13263
0.132639
0.132648
0.132657
0.132666
0.132675
0.132684
0.132693
0.132703
0.132712
0.132721
0.13273
0.132739
0.132748
0.132758
0.132767
0.132776
0.132785
0.132794
0.132804
0.132813
0.132822
0.132831
0.132841
0.13285
0.132859
0.132868
0.132878
0.132887
0.132896
0.132906
0.132915
0.132924
0.132934
0.132943
0.132952
0.132962
0.132971
0.132981
0.13299
0.132999
0.133009
0.133018
0.133028
0.133037
0.133047
0.133056
0.133066
0.133075
0.133085
0.133094
0.133104
0.133113
0.133123
0.133132
0.133142
0.133151
0.133161
0.133171
0.13318
0.13319
0.133199
0.133209
0.133219
0.133228
0.133238
0.133248
0.133257
0.133267
0.133277
0.133286
0.133296
0.133306
0.133316
0.133325
0.133335
0.133345
0.133355
0.133364
0.133374
0.133384
0.133394
0.133404
0.133413
0.133423
0.133433
0.133443
0.133453
0.133463
0.133472
0.133482
0.133492
0.133502
0.133512
0.133522
0.133532
0.133542
0.133552
0.133562
0.133572
0.133582
0.133591
0.133601
0.133611
0.133621
0.133631
0.133641
0.133651
0.133661
0.133671
0.133682
0.133692
0.133702
0.133712
0.133722
0.133732
0.133742
0.133752
0.133762
0.133772
0.133782
0.133792
0.133803
0.133813
0.133823
0.133833
0.133843
0.133853
0.133864
0.133874
0.133884
0.133894
0.133904
0.133914
0.133925
0.133935
0.133945
0.133955
0.133966
0.133976
0.133986
0.133996
0.134007
0.134017
0.134027
0.134038
0.134048
0.134058
0.134069
0.134079
0.134089
0.1341
0.13411
0.13412
0.134131
0.134141
0.134151
0.134162
0.134172
0.134183
0.134193
0.134203
0.134214
0.134224
0.134235
0.134245
0.134256
0.134266
0.134277
0.134287
0.134298
0.134308
0.134319
0.134329
0.13434
0.13435
0.134361
0.134371
0.134382
0.134392
0.134403
0.134413
0.134424
0.134435
0.134445
0.134456
0.134466
0.134477
0.134488
0.134498
0.134509
0.13452
0.13453
0.134541
0.134552
0.134562
0.134573
0.134584
0.134594
0.134605
0.134616
0.134626
0.134637
0.134648
0.134659
0.134669
0.13468
0.134691
0.134702
0.134712
0.134723
0.134734
0.134745
0.134756
0.134766
0.134777
0.134788
0.134799
0.13481
0.134821
0.134832
0.134842
0.134853
0.134864
0.134875
0.134886
0.134897
0.134908
0.134919
0.13493
0.134941
0.134952
0.134963
0.134974
0.134984
0.134995
0.135006
0.135017
0.135028
0.135039
0.135051
0.135062
0.135073
0.135084
0.135095
0.135106
0.135117
0.135128
0.135139
0.13515
0.135161
0.135172
0.135183
0.135195
0.135206
0.135217
0.135228
0.135239
0.13525
0.135262
0.135273
0.135284
0.135295
0.135306
0.135317
0.135329
0.13534
0.135351
0.135362
0.135374
0.135385
0.135397
0.135408
0.135419
0.13543
0.135442
0.135454
0.135464
0.135478
0.135486
0.135503
0.135494
0.135494
0.135494
1
0.776804
0.557829
0.446884
0.384109
0.343752
0.31552
0.294615
0.278481
0.26562
0.255097
0.246294
0.238795
0.232305
0.226614
0.221568
0.217051
0.212975
0.209271
0.205887
0.20278
0.199917
0.197269
0.194811
0.192524
0.190392
0.188405