# vtk DataFile Version 2.0
FlowField
ASCII
DATASET STRUCTURED_GRID
DIMENSIONS 400 1 200
POINTS 80000 float
0 0 0
0.08 0 0
0.16 0 0
0.24 0 0
0.32 0 0
0.4 0 0
0.48 0 0
0.56 0 0
0.64 0 0
0.72 0 0
0.8 0 0
0.88 0 0
0.96 0 0
1.04 0 0
1.12 0 0
1.2 0 0
1.28 0 0
1.36 0 0
1.44 0 0
1.52 0 0
1.6 0 0
1.68 0 0
1.76 0 0
1.84 0 0
1.92 0 0
2 0 0
2.08 0 0
2.16 0 0
2.24 0 0
2.32 0 0
2.4 0 0
2.48 0 0
2.56 0 0
2.64 0 0
2.72 0 0
2.8 0 0
2.88 0 0
2.96 0 0
3.04 0 0
3.12 0 0
3.2 0 0
3.28 0 0
3.36 0 0
3.44 0 0
3.52 0 0
3.6 0 0
3.68 0 0
3.76 0 0
3.84 0 0
3.92 0 0
4 0 0
4.08 0 0
4.16 0 0
4.24 0 0
4.32 0 0
4.4 0 0
4.48 0 0
4.56 0 0
4.64 0 0
4.72 0 0
4.8 0 0
4.88 0 0
4.96 0 0
5.04 0 0
5.12 0 0
5.2 0 0
5.28 0 0
5.36 0 0
5.44 0 0
5.52 0 0
5.6 0 0
5.68 0 0
5.76 0 0
5.84 0 0
5.92 0 0
6 0 0
6.08 0 0
6.16 0 0
6.24 0 0
6.32 0 0
6.4 0 0
6.48 0 0
6.56 0 0
6.64 0 0
6.72 0 0
6.8 0 0
6.88 0 0
6.96 0 0
7.04 0 0
7.12 0 0
7.2 0 0
7.28 0 0
7.36 0 0
7.44 0 0
7.52 0 0
7.6 0 0
7.68 0 0
7.76 0 0
7.84 0 0
7.92 0 0
8 0 0
8.08 0 0
8.16 0 0
8.24 0 0
8.32 0 0
8.4 0 0
8.48 0 0
8.56 0 0
8.64 0 0
8.72 0 0
8.8 0 0
8.88 0 0
8.96 0 0
9.04 0 0
9.12 0 0
9.2 0 0
9.28 0 0
9.36 0 0
9.44 0 0
9.52 0 0
9.6 0 0
9.68 0 0
9.76 0 0
9.84 0 0
9.92 0 0
10 0 0
10.08 0 0
10.16 0 0
10.24 0 0
10.32 0 0
10.4 0 0
10.48 0 0
10.56 0 0
10.64 0 0
10.72 0 0
10.8 0 0
10.88 0 0
10.96 0 0
11.04 0 0
11.12 0 0
11.2 0 0
11.28 0 0
11.36 0 0
11.44 0 0
11.52 0 0
11.6 0 0
11.68 0 0
11.76 0 0
11.84 0 0
11.92 0 0
12 0 0
12.08 0 0
12.16 0 0
12.24 0 0
12.32 0 0
12.4 0 0
12.48 0 0
12.56 0 0
12.64 0 0
12.72 0 0
12.8 0 0
12.88 0 0
12.96 0 0
13.04 0 0
13.12 0 0
13.2 0 0
13.28 0 0
13.36 0 0
13.44 0 0
13.52 0 0
13.6 0 0
13.68 0 0
13.76 0 0
13.84 0 0
13.92 0 0
14 0 0
14.08 0 0
14.16 0 0
14.24 0 0
14.32 0 0
14.4 0 0
14.48 0 0
14.56 0 0
14.64 0 0
14.72 0 0
14.8 0 0
14.88 0 0
14.96 0 0
15.04 0 0
15.12 0 0
15.2 0 0
15.28 0 0
15.36 0 0
15.44 0 0
15.52 0 0
15.6 0 0
15.68 0 0
15.76 0 0
15.84 0 0
15.92 0 0
16 0 0
16.08 0 0
16.16 0 0
16.24 0 0
16.32 0 0
16.4 0 0
16.48 0 0
16.56 0 0
16.64 0 0
16.72 0 0
16.8 0 0
16.88 0 0
16.96 0 0
17.04 0 0
17.12 0 0
17.2 0 0
17.28 0 0
17.36 0 0
17.44 0 0
17.52 0 0
17.6 0 0
17.68 0 0
17.76 0 0
17.84 0 0
17.92 0 0
18 0 0
18.08 0 0
18.16 0 0
18.24 0 0
18.32 0 0
18.4 0 0
18.48 0 0
18.56 0 0
18.64 0 0
18.72 0 0
18.8 0 0
18.88 0 0
18.96 0 0
19.04 0 0
19.12 0 0
19.2 0 0
19.28 0 0
19.36 0 0
19.44 0 0
19.52 0 0
19.6 0 0
19.68 0 0
19.76 0 0
19.84 0 0
19.92 0 0
20 0 0
20.08 0 0
20.16 0 0
20.24 0 0
20.32 0 0
20.4 0 0
20.48 0 0
20.56 0 0
20.64 0 0
20.72 0 0
20.8 0 0
20.88 0 0
20.96 0 0
21.04 0 0
21.12 0 0
21.2 0 0
21.28 0 0
21.36 0 0
21.44 0 0
21.52 0 0
21.6 0 0
21.68 0 0
21.76 0 0
21.84 0 0
21.92 0 0
22 0 0
22.08 0 0
22.16 0 0
22.24 0 0
22.32 0 0
22.4 0 0
22.48 0 0
22.56 0 0
22.64 0 0
22.72 0 0
22.8 0 0
22.88 0 0
22.96 0 0
23.04 0 0
23.12 0 0
23.2 0 0
23.28 0 0
23.36 0 0
23.44 0 0
23.52 0 0
23.6 0 0
23.68 0 0
23.76 0 0
23.84 0 0
23.92 0 0
24 0 0
24.08 0 0
24.16 0 0
24.24 0 0
24.32 0 0
24.4 0 0
24.48 0 0
24.56 0 0
24.64 0 0
24.72 0 0
24.8 0 0
24.88 0 0
24.96 0 0
25.04 0 0
25.12 0 0
25.2 0 0
25.28 0 0
25.36 0 0
25.44 0 0
25.52 0 0
25.6 0 0
25.68 0 0
25.76 0 0
25.84 0 0
25.92 0 0
26 0 0
26.08 0 0
26.16 0 0
26.24 0 0
26.32 0 0
26.4 0 0
26.48 0 0
26.56 0 0
26.64 0 0
26.72 0 0
26.8 0 0
26.88 0 0
26.96 0 0
27.04 0 0
27.12 0 0
27.2 0 0
27.28 0 0
27.36 0 0
27.44 0 0
27.52 0 0
27.6 0 0
27.68 0 0
27.76 0 0
27.84 0 0
27.92 0 0
28 0 0
28.08 0 0
28.16 0 0
28.24 0 0
28.32 0 0
28.4 0 0
28.48 0 0
28.56 0 0
28.64 0 0
28.72 0 0
28.8 0 0
28.88 0 0
28.96 0 0
29.04 0 0
29.12 0 0
29.2 0 0
29.28 0 0
29.36 0 0
29.44 0 0
29.52 0 0
29.6 0 0
29.68 0 0
29.76 0 0
29.84 0 0
29.92 0 0
30 0 0
30.08 0 0
30.16 0 0
30.24 0 0
30.32 0 0
30.4 0 0
30.48 0 0
30.56 0 0
30.64 0 0
30.72 0 0
30.8 0 0
30.88 0 0
30.96 0 0
31.04 0 0
31.12 0 0
31.2 0 0
31.28 0 0
31.36 0 0
31.44 0 0
31.52 0 0
31.6 0 0
31.68 0 0
31.76 0 0
31.84 0 0
31.92 0 0
0 0.005 0
0.08 0.005 0
0.16 0.005 0
0.24 0.005 0
0.32 0.005 0
0.4 0.005 0
0.48 0.005 0
0.56 0.005 0
0.64 0.005 0
0.72 0.005 0
0.8 0.005 0
0.88 0.005 0
0.96 0.005 0
1.04 0.005 0
1.12 0.005 0
1.2 0.005 0
1.28 0.005 0
1.36 0.005 0
1.44 0.005 0
1.52 0.005 0
1.6 0.005 0
1.68 0.005 0
1.76 0.005 0
1.84 0.005 0
1.92 0.005 0
2 0.005 0
2.08 0.005 0
2.16 0.005 0
2.24 0.005 0
2.32 0.005 0
2.4 0.005 0
2.48 0.005 0
2.56 0.005 0
2.64 0.005 0
2.72 0.005 0
2.8 0.005 0
2.88 0.005 0
2.96 0.005 0
3.04 0.005 0
3.12 0.005 0
3.2 0.005 0
3.28 0.005 0
3.36 0.005 0
3.44 0.005 0
3.52 0.005 0
3.6 0.005 0
3.68 0.005 0
3.76 0.005 0
3.84 0.005 0
3.92 0.005 0
4 0.005 0
4.08 0.005 0
4.16 0.005 0
4.24 0.005 0
4.32 0.005 0
4.4 0.005 0
4.48 0.005 0
4.56 0.005 0
4.64 0.005 0
4.72 0.005 0
4.8 0.005 0
4.88 0.005 0
4.96 0.005 0
5.04 0.005 0
5.12 0.005 0
5.2 0.005 0
5.28 0.005 0
5.36 0.005 0
5.44 0.005 0
5.52 0.005 0
5.6 0.005 0
5.68 0.005 0
5.76 0.005 0
5.84 0.005 0
5.92 0.005 0
6 0.005 0
6.08 0.005 0
6.16 0.005 0
6.24 0.005 0
6.32 0.005 0
6.4 0.005 0
6.48 0.005 0
6.56 0.005 0
6.64 0.005 0
6.72 0.005 0
6.8 0.005 0
6.88 0.005 0
6.96 0.005 0
7.04 0.005 0
7.12 0.005 0
7.2 0.005 0
7.28 0.005 0
7.36 0.005 0
7.44 0.005 0
7.52 0.005 0
7.6 0.005 0
7.68 0.005 0
7.76 0.005 0
7.84 0.005 0
7.92 0.005 0
8 0.005 0
8.08 0.005 0
8.16 0.005 0
8.24 0.005 0
8.32 0.005 0
8.4 0.005 0
8.48 0.005 0
8.56 0.005 0
8.64 0.005 0
8.72 0.005 0
8.8 0.005 0
8.88 0.005 0
8.96 0.005 0
9.04 0.005 0
9.12 0.005 0
9.2 0.005 0
9.28 0.005 0
9.36 0.005 0
9.44 0.005 0
9.52 0.005 0
9.6 0.005 0
9.68 0.005 0
9.76 0.005 0
9.84 0.005 0
9.92 0.005 0
10 0.005 0
10.08 0.005 0
10.16 0.005 0
10.24 0.005 0
10.32 0.005 0
10.4 0.005 0
10.48 0.005 0
10.56 0.005 0
10.64 0.005 0
10.72 0.005 0
10.8 0.005 0
10.88 0.005 0
10.96 0.005 0
11.04 0.005 0
11.12 0.005 0
11.2 0.005 0
11.28 0.005 0
11.36 0.005 0
11.44 0.005 0
11.52 0.005 0
11.6 0.005 0
11.68 0.005 0
11.76 0.005 0
11.84 0.005 0
11.92 0.005 0
12 0.005 0
12.08 0.005 0
12.16 0.005 0
12.24 0.005 0
12.32 0.005 0
12.4 0.005 0
12.48 0.005 0
12.56 0.005 0
12.64 0.005 0
12.72 0.005 0
12.8 0.005 0
12.88 0.005 0
12.96 0.005 0
13.04 0.005 0
13.12 0.005 0
13.2 0.005 0
13.28 0.005 0
13.36 0.005 0
13.44 0.005 0
13.52 0.005 0
13.6 0.005 0
13.68 0.005 0
13.76 0.005 0
13.84 0.005 0
13.92 0.005 0
14 0.005 0
14.08 0.005 0
14.16 0.005 0
14.24 0.005 0
14.32 0.005 0
14.4 0.005 0
14.48 0.005 0
14.56 0.005 0
14.64 0.005 0
14.72 0.005 0
14.8 0.005 0
14.88 0.005 0
14.96 0.005 0
15.04 0.005 0
15.12 0.005 0
15.2 0.005 0
15.28 0.005 0
15.36 0.005 0
15.44 0.005 0
15.52 0.005 0
15.6 0.005 0
15.68 0.005 0
15.76 0.005 0
15.84 0.005 0
15.92 0.005 0
16 0.005 0
16.08 0.005 0
16.16 0.005 0
16.24 0.005 0
16.32 0.005 0
16.4 0.005 0
16.48 0.005 0
16.56 0.005 0
16.64 0.005 0
16.72 0.005 0
16.8 0.005 0
16.88 0.005 0
16.96 0.005 0
17.04 0.005 0
17.12 0.005 0
17.2 0.005 0
17.28 0.005 0
17.36 0.005 0
17.44 0.005 0
17.52 0.005 0
17.6 0.005 0
17.68 0.005 0
17.76 0.005 0
17.84 0.005 0
17.92 0.005 0
18 0.005 0
18.08 0.005 0
18.16 0.005 0
18.24 0.005 0
18.32 0.005 0
18.4 0.005 0
18.48 0.005 0
18.56 0.005 0
18.64 0.005 0
18.72 0.005 0
18.8 0.005 0
18.88 0.005 0
18.96 0.005 0
19.04 0.005 0
19.12 0.005 0
19.2 0.005 0
19.28 0.005 0
19.36 0.005 0
19.44 0.005 0
19.52 0.005 0
19.6 0.005 0
19.68 0.005 0
19.76 0.005 0
19.84 0.005 0
19.92 0.005 0
20 0.005 0
20.08 0.005 0
20.16 0.005 0
20.24 0.005 0
20.32 0.005 0
20.4 0.005 0
20.48 0.005 0
20.56 0.005 0
20.64 0.005 0
20.72 0.005 0
20.8 0.005 0
20.88 0.005 0
20.96 0.005 0
21.04 0.005 0
21.12 0.005 0
21.2 0.005 0
21.28 0.005 0
21.36 0.005 0
21.44 0.005 0
21.52 0.005 0
21.6 0.005 0
21.68 0.005 0
21.76 0.005 0
21.84 0.005 0
21.92 0.005 0
22 0.005 0
22.08 0.005 0
22.16 0.005 0
22.24 0.005 0
22.32 0.005 0
22.4 0.005 0
22.48 0.005 0
22.56 0.005 0
22.64 0.005 0
22.72 0.005 0
22.8 0.005 0
22.88 0.005 0
22.96 0.005 0
23.04 0.005 0
23.12 0.005 0
23.2 0.005 0
23.28 0.005 0
23.36 0.005 0
23.44 0.005 0
23.52 0.005 0
23.6 0.005 0
23.68 0.005 0
23.76 0.005 0
23.84 0.005 0
23.92 0.005 0
24 0.005 0
24.08 0.005 0
24.16 0.005 0
24.24 0.005 0
24.32 0.005 0
24.4 0.005 0
24.48 0.005 0
24.56 0.005 0
24.64 0.005 0
24.72 0.005 0
24.8 0.005 0
24.88 0.005 0
24.96 0.005 0
25.04 0.005 0
25.12 0.005 0
25.2 0.005 0
25.28 0.005 0
25.36 0.005 0
25.44 0.005 0
25.52 0.005 0
25.6 0.005 0
25.68 0.005 0
25.76 0.005 0
25.84 0.005 0
25.92 0.005 0
26 0.005 0
26.08 0.005 0
26.16 0.005 0
26.24 0.005 0
26.32 0.005 0
26.4 0.005 0
26.48 0.005 0
26.56 0.005 0
26.64 0.005 0
26.72 0.005 0
26.8 0.005 0
26.88 0.005 0
26.96 0.005 0
27.04 0.005 0
27.12 0.005 0
27.2 0.005 0
27.28 0.005 0
27.36 0.005 0
27.44 0.005 0
27.52 0.005 0
27.6 0.005 0
27.68 0.005 0
27.76 0.005 0
27.84 0.005 0
27.92 0.005 0
28 0.005 0
28.08 0.005 0
28.16 0.005 0
28.24 0.005 0
28.32 0.005 0
28.4 0.005 0
28.48 0.005 0
28.56 0.005 0
28.64 0.005 0
28.72 0.005 0
28.8 0.005 0
28.88 0.005 0
28.96 0.005 0
29.04 0.005 0
29.12 0.005 0
29.2 0.005 0
29.28 0.005 0
29.36 0.005 0
29.44 0.005 0
29.52 0.005 0
29.6 0.005 0
29.68 0.005 0
29.76 0.005 0
29.84 0.005 0
29.92 0.005 0
30 0.005 0
30.08 0.005 0
30.16 0.005 0
30.24 0.005 0
30.32 0.005 0
30.4 0.005 0
30.48 0.005 0
30.56 0.005 0
30.64 0.005 0
30.72 0.005 0
30.8 0.005 0
30.88 0.005 0
30.96 0.005 0
31.04 0.005 0
31.12 0.005 0
31.2 0.005 0
31.28 0.005 0
31.36 0.005 0
31.44 0.005 0
31.52 0.005 0
31.6 0.005 0
31.68 0.005 0
31.76 0.005 0
31.84 0.005 0
31.92 0.005 0
0 0.01 0
0.08 0.01 0
0.16 0.01 0
0.24 0.01 0
0.32 0.01 0
0.4 0.01 0
0.48 0.01 0
0.56 0.01 0
0.64 0.01 0
0.72 0.01 0
0.8 0.01 0
0.88 0.01 0
0.96 0.01 0
1.04 0.01 0
1.12 0.01 0
1.2 0.01 0
1.28 0.01 0
1.36 0.01 0
1.44 0.01 0
1.52 0.01 0
1.6 0.01 0
1.68 0.01 0
1.76 0.01 0
1.84 0.01 0
1.92 0.01 0
2 0.01 0
2.08 0.01 0
2.16 0.01 0
2.24 0.01 0
2.32 0.01 0
2.4 0.01 0
2.48 0.01 0
2.56 0.01 0
2.64 0.01 0
2.72 0.01 0
2.8 0.01 0
2.88 0.01 0
2.96 0.01 0
3.04 0.01 0
3.12 0.01 0
3.2 0.01 0
3.28 0.01 0
3.36 0.01 0
3.44 0.01 0
3.52 0.01 0
3.6 0.01 0
3.68 0.01 0
3.76 0.01 0
3.84 0.01 0
3.92 0.01 0
4 0.01 0
4.08 0.01 0
4.16 0.01 0
4.24 0.01 0
4.32 0.01 0
4.4 0.01 0
4.48 0.01 0
4.56 0.01 0
4.64 0.01 0
4.72 0.01 0
4.8 0.01 0
4.88 0.01 0
4.96 0.01 0
5.04 0.01 0
5.12 0.01 0
[...]
POINT_DATA 80000

SCALARS p float 1
LOOKUP_TABLE default
1
70.1276
69.8254
69.7834
69.7622
69.7462
69.732
69.7189
69.7069
69.6959
69.6855
69.6751
69.6643
69.6529
69.6407
69.6277
69.6139
69.5992
69.5836
69.567
69.5495
69.531
69.5114
69.4907
69.4688
69.4457
69.4213
69.3956
69.3684
69.3397
69.3095
69.2776
69.244
69.2087
69.1715
69.1325
69.0915
69.0485
69.0034
68.9563
68.907
68.8555
68.8017
68.7458
68.6875
68.627
68.5642
68.4991
68.4317
68.3621
68.2902
68.216
68.1398
68.0614
67.9809
67.8984
67.8141
67.7279
67.6399
67.5503
67.4591
67.3666
67.2727
67.1776
67.0815
66.9844
66.8866
66.7881
66.6892
66.5899
66.4903
66.3908
66.2913
66.192
66.0931
65.9948
65.8971
65.8002
65.7042
65.6092
65.5154
65.4229
65.3317
65.242
65.1539
65.0674
64.9826
64.8996
64.8184
64.7391
64.6617
64.5863
64.5129
64.4414
64.372
64.3046
64.2392
64.1757
64.1143
64.0548
63.9973
63.9416
63.8878
63.8358
63.7856
63.7371
63.6903
63.6451
63.6014
63.5593
63.5186
63.4793
63.4414
63.4048
63.3693
63.335
63.3019
63.2698
63.2387
63.2085
63.1793
63.1508
63.1232
63.0964
63.0702
63.0448
63.0199
62.9956
62.9719
62.9488
62.9261
62.9038
62.882
62.8606
62.8396
62.8189
62.7985
62.7785
62.7587
62.7393
62.72
62.7011
62.6823
62.6637
62.6454
62.6272
62.6092
62.5914
62.5738
62.5562
62.5389
62.5216
62.5045
62.4875
62.4707
62.4539
62.4372
62.4207
62.4042
62.3878
62.3716
62.3554
62.3392
62.3232
62.3072
62.2913
62.2755
62.2598
62.2441
62.2285
62.2129
62.1974
62.1819
62.1665
62.1512
62.1359
62.1207
62.1055
62.0903
62.0752
62.0602
62.0452
62.0302
62.0153
62.0004
61.9856
61.9708
61.956
61.9413
61.9266
61.9119
61.8973
61.8827
61.8681
61.8536
61.8391
61.8246
61.8102
61.7957
61.7813
61.767
61.7526
61.7383
61.724
61.7098
61.6955
61.6813
61.6671
61.6529
61.6388
61.6246
61.6105
61.5964
61.5824
61.5683
61.5543
61.5402
61.5262
61.5123
61.4983
61.4843
61.4704
61.4565
61.4426
61.4287
61.4148
61.4009
61.3871
61.3732
61.3594
61.3456
61.3318
61.318
61.3042
61.2904
61.2766
61.2629
61.2491
61.2354
61.2217
61.208
61.1942
61.1805
61.1668
61.1532
61.1395
61.1258
61.1121
61.0985
61.0848
61.0712
61.0575
61.0439
61.0303
61.0167
61.003
60.9894
60.9758
60.9622
60.9486
60.935
60.9214
60.9078
60.8942
60.8806
60.867
60.8534
60.8398
60.8263
60.8127
60.7991
60.7855
60.7719
60.7584
60.7448
60.7312
60.7176
60.704
60.6905
60.6769
60.6633
60.6497
60.6361
60.6226
60.609
60.5954
60.5818
60.5682
60.5546
60.541
60.5274
60.5138
60.5002
60.4866
60.473
60.4593
60.4457
60.4321
60.4185
60.4048
60.3912
60.3775
60.3639
60.3502
60.3366
60.3229
60.3092
60.2955
60.2819
60.2682
60.2545
60.2408
60.227
60.2133
60.1996
60.1859
60.1721
60.1584
60.1446
60.1308
60.1171
60.1033
60.0895
60.0757
60.0619
60.0481
60.0342
60.0204
60.0065
59.9927
59.9788
59.965
59.9511
59.9372
59.9233
59.9094
59.8954
59.8815
59.8676
59.8536
59.8396
59.8257
59.8117
59.7977
59.7837
59.7696
59.7556
59.7416
59.7275
59.7134
59.6994
59.6853
59.6712
59.6571
59.6429
59.6288
59.6146
59.6005
59.5863
59.5721
59.5579
59.5437
59.5294
59.5152
59.5009
59.4866
59.4723
59.458
59.4437
59.4294
59.415
59.4007
59.3863
59.3719
59.3575
59.343
59.3286
59.3141
59.2996
59.2851
59.2706
59.2561
59.2415
59.227
59.2124
59.1978
59.1831
59.1685
59.1538
59.1391
59.1244
59.1097
59.095
59.0802
59.0654
59.0507
59.0358
59.0209
59.0063
0.5
70.1276
70.1276
69.8254
69.7834
69.7622
69.7462
69.732
69.7189
69.7069
69.6959
69.6855
69.6751
69.6643
69.6529
69.6407
69.6277
69.6139
69.5992
69.5836
69.567
69.5495
69.531
69.5114
69.4907
69.4688
69.4457
69.4213
69.3956
69.3684
69.3397
69.3095
69.2776
69.244
69.2087
69.1715
69.1325
69.0915
69.0485
69.0034
68.9563
68.907
68.8555
68.8017
68.7458
68.6875
68.627
68.5642
68.4991
68.4317
68.3621
68.2902
68.216
68.1398
68.0614
67.9809
67.8984
67.8141
67.7279
67.6399
67.5503
67.4591
67.3666
67.2727
67.1776
67.0815
66.9844
66.8866
66.7881
66.6892
66.5899
66.4903
66.3908
66.2913
66.192
66.0931
65.9948
65.8971
65.8002
65.7042
65.6092
65.5154
65.4229
65.3317
65.242
65.1539
65.0674
64.9826
64.8996
64.8184
64.7391
64.6617
64.5863
64.5129
64.4414
64.372
64.3046
64.2392
64.1757
64.1143
64.0548
63.9973
63.9416
63.8878
63.8358
63.7856
63.7371
63.6903
63.6451
63.6014
63.5593
63.5186
63.4793
63.4414
63.4048
63.3693
63.335
63.3019
63.2698
63.2387
63.2085
63.1793
63.1508
63.1232
63.0964
63.0702
63.0448
63.0199
62.9956
62.9719
62.9488
62.9261
62.9038
62.882
62.8606
62.8396
62.8189
62.7985
62.7785
62.7587
62.7393
62.72
62.7011
62.6823
62.6637
62.6454
62.6272
62.6092
62.5914
62.5738
62.5562
62.5389
62.5216
62.5045
62.4875
62.4707
62.4539
62.4372
62.4207
62.4042
62.3878
62.3716
62.3554
62.3392
62.3232
62.3072
62.2913
62.2755
62.2598
62.2441
62.2285
62.2129
62.1974
62.1819
62.1665
62.1512
62.1359
62.1207
62.1055
62.0903
62.0752
62.0602
62.0452
62.0302
62.0153
62.0004
61.9856
61.9708
61.956
61.9413
61.9266
61.9119
61.8973
61.8827
61.8681
61.8536
61.8391
61.8246
61.8102
61.7957
61.7813
61.767
61.7526
61.7383
61.724
61.7098
61.6955
61.6813
61.6671
61.6529
61.6388
61.6246
61.6105
61.5964
61.5824
61.5683
61.5543
61.5402
61.5262
61.5123
61.4983
61.4843
61.4704
61.4565
61.4426
61.4287
61.4148
61.4009
61.3871
61.3732
61.3594
61.3456
61.3318
61.318
61.3042
61.2904
61.2766
61.2629
61.2491
61.2354
61.2217
61.208
61.1942
61.1805
61.1668
61.1532
61.1395
61.1258
61.1121
61.0985
61.0848
61.0712
61.0575
61.0439
61.0303
61.0167
61.003
60.9894
60.9758
60.9622
60.9486
60.935
60.9214
60.9078
60.8942
60.8806
60.867
60.8534
60.8398
60.8263
60.8127
60.7991
60.7855
60.7719
60.7584
60.7448
60.7312
60.7176
60.704
60.6905
60.6769
60.6633
60.6497
60.6361
60.6226
60.609
60.5954
60.5818
60.5682
60.5546
60.541
60.5274
60.5138
60.5002
60.4866
60.473
60.4593
60.4457
60.4321
60.4185
60.4048
60.3912
60.3775
60.3639
60.3502
60.3366
60.3229
60.3092
60.2955
60.2819
60.2682
60.2545
60.2408
60.227
60.2133
60.1996
60.1859
60.1721
60.1584
60.1446
60.1308
60.1171
60.1033
60.0895
60.0757
60.0619
60.0481
60.0342
60.0204
60.0065
59.9927
59.9788
59.965
59.9511
59.9372
59.9233
59.9094
59.8954
59.8815
59.8676
59.8536
59.8396
59.8257
59.8117
59.7977
59.7837
59.7696
59.7556
59.7416
59.7275
59.7134
59.6994
59.6853
59.6712
59.6571
59.6429
59.6288
59.6146
59.6005
59.5863
59.5721
59.5579
59.5437
59.5294
59.5152
59.5009
59.4866
59.4723
59.458
59.4437
59.4294
59.415
59.4007
59.3863
59.3719
59.3575
59.343
59.3286
59.3141
59.2996
59.2851
59.2706
59.2561
59.2415
59.227
59.2124
59.1978
59.1831
59.1685
59.1538
59.1391
59.1244
59.1097
59.095
59.0802
59.0654
59.0507
59.0358
59.0209
59.0063
59.0063
70.113
70.113
69.8292
69.7847
69.7628
69.7465
69.7322
69.7191
69.707
69.696
69.6855
69.6751
69.6643
69.6529
69.6407
69.6277
69.6139
69.5992
69.5835
69.567
69.5495
69.531
69.5114
69.4907
69.4688
69.4457
69.4213
69.3955
69.3684
69.3397
69.3094
69.2776
69.244
69.2086
69.1715
69.1324
69.0914
69.0484
69.0034
68.9562
68.9069
68.8554
68.8016
68.7457
68.6874
68.6269
68.5641
68.499
68.4316
68.3619
68.29
68.2159
68.1396
68.0612
67.9808
67.8983
67.8139
67.7277
67.6398
67.5501
67.459
67.3664
67.2725
67.1775
67.0813
66.9843
66.8865
66.788
66.689
66.5897
66.4902
66.3906
66.2911
66.1919
66.093
65.9947
65.897
65.8
65.7041
65.6091
65.5153
65.4228
65.3316
65.2419
65.1538
65.0673
64.9825
64.8995
64.8183
64.739
64.6616
64.5862
64.5128
64.4414
64.3719
64.3045
64.2391
64.1757
64.1142
64.0548
63.9972
63.9415
63.8877
63.8358
63.7855
63.737
63.6902
63.645
63.6014
63.5593
63.5186
63.4793
63.4414
63.4047
63.3693
63.335
63.3019
63.2698
63.2387
63.2085
63.1792
63.1508
63.1232
63.0964
63.0702
63.0447
63.0199
62.9956
62.9719
62.9488
62.9261
62.9038
62.882
62.8606
62.8396
62.8189
62.7985
62.7785
62.7587
62.7393
62.72
62.7011
62.6823
62.6637
62.6454
62.6272
62.6092
62.5914
62.5738
62.5562
62.5389
62.5216
62.5045
62.4875
62.4707
62.4539
62.4372
62.4207
62.4042
62.3878
62.3716
62.3554
62.3392
62.3232
62.3072
62.2913
62.2755
62.2598
62.2441
62.2285
62.2129
62.1974
62.1819
62.1665
62.1512
62.1359
62.1207
62.1055
62.0903
62.0752
62.0602
62.0452
62.0302
62.0153
62.0004
61.9856
61.9708
61.956
61.9413
61.9266
61.9119
61.8973
61.8827
61.8681
61.8536
61.8391
61.8246
61.8102
61.7957
61.7813
61.767
61.7526
61.7383
61.724
61.7098
61.6955
61.6813
61.6671
61.6529
61.6388
61.6246
61.6105
61.5964
61.5824
61.5683
61.5543
61.5402
61.5262
61.5123
61.4983
61.4843
61.4704
61.4565
61.4426
61.4287
61.4148
61.4009
61.3871
61.3732
61.3594
61.3456
61.3318
61.318
61.3042
61.2904
61.2766
61.2629
61.2491
61.2354
61.2217
61.208
61.1942
61.1805
61.1668
61.1532
61.1395
61.1258
61.1121
61.0985
61.0848
61.0712
61.0575
61.0439
61.0303
61.0167
61.003
60.9894
60.9758
60.9622
60.9486
60.935
60.9214
60.9078
60.8942
60.8806
60.867
60.8534
60.8398
60.8263
60.8127
60.7991
60.7855
60.7719
60.7584
60.7448
60.7312
60.7176
60.704
60.6905
60.6769
60.6633
60.6497
60.6361
60.6226
60.609
60.5954
60.5818
60.5682
60.5546
60.541
60.5274
60.5138
60.5002
60.4866
60.473
60.4593
60.4457
60.4321
60.4185
60.4048
60.3912
60.3775
60.3639
60.3502
60.3366
60.3229
60.3092
60.2955
60.2819
60.2682
60.2545
60.2408
60.227
60.2133
60.1996
60.1859
60.1721
60.1584
60.1446
60.1308
60.1171
60.1033
60.0895
60.0757
60.0619
60.0481
60.0342
60.0204
60.0065
59.9927
59.9788
59.965
59.9511
59.9372
59.9233
59.9094
59.8954
59.8815
59.8676
59.8536
59.8396
59.8257
59.8117
59.7977
59.7837
59.7696
59.7556
59.7416
59.7275
59.7134
59.6994
59.6853
59.6712
59.6571
59.6429
59.6288
59.6146
59.6005
59.5863
59.5721
59.5579
59.5437
59.5294
59.5152
59.5009
59.4866
59.4723
59.458
59.4437
59.4294
59.415
59.4007
59.3863
59.3719
59.3575
59.343
59.3286
59.3141
59.2996
59.2851
59.2706
59.2561
59.2415
59.227
59.2124
59.1978
59.1831
59.1685
59.1538
59.1391
59.1244
59.1097
59.095
59.0802
59.0654
59.0507
59.0358
59.0209
59.0063
59.0063
70.097
70.097
69.8324
69.7858
69.7634
69.7469
69.7325
69.7192
69.7071
69.696
69.6856
69.6751
69.6643
69.6529
69.6407
69.6277
69.6138
69.5991
69.5835
69.567
69.5495
69.5309
69.5113
69.4907
69.4688
69.4457
69.4213
69.3955
69.3683
69.3397
69.3094
69.2775
69.244
69.2086
69.1714
69.1324
69.0914
69.0484
69.0033
68.9562
68.9068
68.8553
68.8016
68.7456
68.6874
68.6269
68.564
68.4989
68.4315
68.3619
68.29
68.2159
68.1396
68.0612
67.9807
67.8983
67.8139
67.7277
67.6397
67.5501
67.459
67.3664
67.2725
67.1774
67.0813
66.9843
66.8864
66.788
66.689
66.5897
66.4902
66.3906
66.2911
66.1919
66.093
65.9946
65.8969
65.8
65.704
65.6091
65.5153
65.4228
65.3316
65.2419
65.1538
65.0673
64.9825
64.8995
64.8183
64.739
64.6617
64.5862
64.5128
64.4414
64.3719
64.3045
64.2391
64.1757
64.1143
64.0548
63.9972
63.9416
63.8878
63.8358
63.7856
63.7371
63.6902
63.645
63.6014
63.5593
63.5186
63.4793
63.4414
63.4047
63.3693
63.335
63.3019
63.2698
63.2387
63.2085
63.1793
63.1508
63.1232
63.0964
63.0702
63.0448
63.0199
62.9957
62.9719
62.9488
62.9261
62.9038
62.882
62.8606
62.8396
62.8189
62.7985
62.7785
62.7587
62.7393
62.72
62.7011
62.6823
62.6637
62.6454
62.6272
62.6092
62.5914
62.5738
62.5562
62.5389
62.5216
62.5045
62.4875
62.4707
62.4539
62.4372
62.4207
62.4042
62.3878
62.3716
62.3554
62.3392
62.3232
62.3072
62.2913
62.2755
62.2598
62.2441
62.2285
62.2129
62.1974
62.1819
62.1665
62.1512
62.1359
62.1207
62.1055
62.0903
62.0752
62.0602
62.0452
62.0302
62.0153
62.0004
61.9856
61.9708
61.956
61.9413
61.9266
61.9119
61.8973
61.8827
61.8681
61.8536
61.8391
61.8246
61.8102
61.7957
61.7813
61.767
61.7526
61.7383
61.724
61.7098
61.6955
61.6813
61.6671
61.6529
61.6388
61.6246
61.6105
61.5964
61.5824
61.5683
61.5543
61.5402
61.5262
61.5123
61.4983
61.4843
61.4704
61.4565
61.4426
61.4287
61.4148
61.4009
61.3871
61.3732
61.3594
61.3456
61.3318
61.318
61.3042
61.2904
61.2766
61.2629
61.2491
61.2354
61.2217
61.208
61.1942
61.1805
61.1668
61.1532
61.1395
61.1258
61.1121
61.0985
61.0848
61.0712
61.0575
61.0439
61.0303
61.0166
61.003
60.9894
60.9758
60.9622
60.9486
60.935
60.9214
60.9078
60.8942
60.8806
60.867
60.8534
60.8398
60.8263
60.8127
60.7991
60.7855
60.7719
60.7584
60.7448
60.7312
60.7176
60.704
60.6905
60.6769
60.6633
60.6497
60.6361
60.6226
60.609
60.5954
60.5818
60.5682
60.5546
60.541
60.5274
60.5138
60.5002
60.4866
60.473
60.4593
60.4457
60.4321
60.4185
60.4048
60.3912
60.3775
60.3639
60.3502
60.3366
60.3229
60.3092
60.2955
60.2818
60.2682
60.2545
60.2407
60.227
60.2133
60.1996
60.1858
60.1721
60.1584
60.1446
60.1308
60.1171
60.1033
60.0895
60.0757
60.0619
60.048
60.0342
60.0204
60.0065
59.9927
59.9788
59.9649
59.9511
59.9372
59.9233
59.9094
59.8954
59.8815
59.8676
59.8536
59.8396
59.8257
59.8117
59.7977
59.7837
59.7696
59.7556
59.7416
59.7275
59.7134
59.6994
59.6853
59.6712
59.6571
59.6429
59.6288
59.6146
59.6005
59.5863
59.5721
59.5579
59.5437
59.5294
59.5152
59.5009
59.4866
59.4723
59.458
59.4437
59.4294
59.415
59.4007
59.3863
59.3719
59.3575
59.343
59.3286
59.3141
59.2996
59.2851
59.2706
59.2561
59.2415
59.227
59.2124
59.1978
59.1831
59.1685
59.1538
59.1391
59.1244
59.1097
59.095
59.0802
59.0654
59.0506
59.0358
59.0209
59.0063
59.0063
70.0811
70.0811
69.8353
69.787
69.764
69.7473
69.7327
69.7194
69.7072
69.6961
69.6856
69.6751
69.6643
69.6528
69.6407
69.6277
69.6138
69.5991
69.5835
69.567
69.5494
69.5309
69.5113
69.4906
69.4688
69.4457
69.4213
69.3955
69.3683
69.3396
69.3094
69.2775
69.2439
69.2086
69.1714
69.1324
69.0914
69.0484
69.0033
68.9561
68.9068
68.8553
68.8016
68.7456
68.6874
68.6268
68.564
68.4989
68.4315
68.3618
68.2899
68.2158
68.1395
68.0611
67.9807
67.8982
67.8139
67.7276
67.6397
67.5501
67.4589
67.3664
67.2725
67.1774
67.0813
66.9842
66.8864
66.7879
66.689
66.5897
66.4902
66.3906
66.2911
66.1919
66.093
65.9946
65.8969
65.8
65.704
65.6091
65.5153
65.4228
65.3316
65.2419
65.1538
65.0673
64.9825
64.8995
64.8183
64.739
64.6617
64.5863
64.5128
64.4414
64.372
64.3046
64.2391
64.1757
64.1143
64.0548
63.9972
63.9416
63.8878
63.8358
63.7856
63.7371
63.6903
63.6451
63.6014
63.5593
63.5186
63.4794
63.4414
63.4048
63.3693
63.3351
63.3019
63.2698
63.2387
63.2085
63.1793
63.1509
63.1232
63.0964
63.0702
63.0448
63.0199
62.9957
62.972
62.9488
62.9261
62.9038
62.882
62.8606
62.8396
62.8189
62.7985
62.7785
62.7588
62.7393
62.72
62.7011
62.6823
62.6637
62.6454
62.6272
62.6092
62.5914
62.5738
62.5562
62.5389
62.5216
62.5045
62.4875
62.4707
62.4539
62.4372
62.4207
62.4042
62.3878
62.3716
62.3554
62.3392
62.3232
62.3072
62.2913
62.2755
62.2598
62.2441
62.2285
62.2129
62.1974
62.1819
62.1665
62.1512
62.1359
62.1207
62.1055
62.0903
62.0752
62.0602
62.0452
62.0302
62.0153
62.0004
61.9856
61.9708
61.956
61.9413
61.9266
61.9119
61.8973
61.8827
61.8681
61.8536
61.8391
61.8246
61.8102
61.7957
61.7813
61.767
61.7526
61.7383
61.724
61.7098
61.6955
61.6813
61.6671
61.6529
61.6388
61.6246
61.6105
61.5964
61.5824
61.5683
61.5543
61.5402
61.5262
61.5123
61.4983
61.4843
61.4704
61.4565
61.4426
61.4287
61.4148
61.4009
61.3871
61.3732
61.3594
61.3456
61.3317
61.318
61.3042
61.2904
61.2766
61.2629
61.2491
61.2354
61.2217
61.2079
61.1942
61.1805
61.1668
61.1532
61.1395
61.1258
61.1121
61.0985
61.0848
61.0712
61.0575
61.0439
61.0303
61.0166
61.003
60.9894
60.9758
60.9622
60.9486
60.935
60.9214
60.9078
60.8942
60.8806
60.867
60.8534
60.8398
60.8263
60.8127
60.7991
60.7855
60.7719
60.7584
60.7448
60.7312
60.7176
60.704
60.6905
60.6769
60.6633
60.6497
60.6361
60.6226
60.609
60.5954
60.5818
60.5682
60.5546
60.541
60.5274
60.5138
60.5002
60.4866
60.473
60.4593
60.4457
60.4321
60.4185
60.4048
60.3912
60.3775
60.3639
60.3502
60.3366
60.3229
60.3092
60.2955
60.2818
60.2682
60.2545
60.2407
60.227
60.2133
60.1996
60.1858
60.1721
60.1584
60.1446
60.1308
60.1171
60.1033
60.0895
60.0757
60.0619
60.048
60.0342
60.0204
60.0065
59.9927
59.9788
59.9649
59.9511
59.9372
59.9233
59.9094
59.8954
59.8815
59.8676
59.8536
59.8396
59.8257
59.8117
59.7977
59.7837
59.7696
59.7556
59.7416
59.7275
59.7134
59.6994
59.6853
59.6712
59.6571
59.6429
59.6288
59.6146
59.6005
59.5863
59.5721
59.5579
59.5437
59.5294
59.5152
59.5009
59.4866
59.4723
59.458
59.4437
59.4294
59.415
59.4007
59.3863
59.3719
59.3575
59.343
59.3286
59.3141
59.2996
59.2851
59.2706
59.2561
59.2415
59.227
59.2124
59.1978
59.1831
59.1685
59.1538
59.1391
59.1244
59.1097
59.095
59.0802
59.0654
59.0506
59.0358
59.0209
59.0063
59.0063
70.066
70.066
69.838
69.7881
69.7646
69.7477
69.733
69.7196
69.7073
69.6962
69.6856
69.6751
69.6643
69.6528
69.6406
69.6277
69.6138
69.5991
69.5835
69.567
69.5494
69.5309
69.5113
69.4906
69.4687
69.4456
69.4212
69.3955
69.3683
69.3396
69.3094
69.2775
69.2439
69.2086
69.1714
69.1323
69.0913
69.0483
69.0033
68.9561
68.9068
68.8553
68.8015
68.7456
68.6873
68.6268
68.564
68.4989
68.4315
68.3618
68.2899
68.2158
68.1395
68.0611
67.9806
67.8982
67.8138
67.7276
67.6396
67.55
67.4589
67.3663
67.2724
67.1774
67.0812
66.9842
66.8864
66.7879
66.689
66.5896
66.4901
66.3906
66.2911
66.1918
66.093
65.9946
65.8969
65.8
65.704
65.6091
65.5153
65.4228
65.3316
65.2419
65.1538
65.0673
64.9825
64.8995
64.8183
64.7391
64.6617
64.5863
64.5128
64.4414
64.372
64.3046
64.2392
64.1757
64.1143
64.0548
63.9973
63.9416
63.8878
63.8358
63.7856
63.7371
63.6903
63.6451
63.6015
63.5593
63.5187
63.4794
63.4414
63.4048
63.3693
63.3351
63.3019
63.2698
63.2387
63.2085
63.1793
63.1509
63.1233
63.0964
63.0703
63.0448
63.0199
62.9957
62.972
62.9488
62.9261
62.9038
62.882
62.8606
62.8396
62.8189
62.7986
62.7785
62.7588
62.7393
62.7201
62.7011
62.6823
62.6638
62.6454
62.6272
62.6092
62.5914
62.5738
62.5563
62.5389
62.5216
62.5045
62.4875
62.4707
62.4539
62.4372
62.4207
62.4042
62.3878
62.3716
62.3554
62.3392
62.3232
62.3072
62.2914
62.2755
62.2598
62.2441
62.2285
62.2129
62.1974
62.1819
62.1665
62.1512
62.1359
62.1207
62.1055
62.0903
62.0752
62.0602
62.0452
62.0302
62.0153
62.0004
61.9856
61.9708
61.956
61.9413
61.9266
61.9119
61.8973
61.8827
61.8681
61.8536
61.8391
61.8246
61.8102
61.7957
61.7813
61.767
61.7526
61.7383
61.724
61.7098
61.6955
61.6813
61.6671
61.6529
61.6388
61.6246
61.6105
61.5964
61.5824
61.5683
61.5543
61.5402
61.5262
61.5123
61.4983
61.4843
61.4704
61.4565
61.4426
61.4287
61.4148
61.4009
61.387
61.3732
61.3594
61.3456
61.3317
61.318
61.3042
61.2904
61.2766
61.2629
61.2491
61.2354
61.2217
61.2079
61.1942
61.1805
61.1668
61.1532
61.1395
61.1258
61.1121
61.0985
61.0848
61.0712
61.0575
61.0439
61.0303
61.0166
61.003
60.9894
60.9758
60.9622
60.9486
60.935
60.9214
60.9078
60.8942
60.8806
60.867
60.8534
60.8398
60.8263
60.8127
60.7991
60.7855
60.7719
60.7584
60.7448
60.7312
60.7176
60.704
60.6905
60.6769
60.6633
60.6497
60.6361
60.6226
60.609
60.5954
60.5818
60.5682
60.5546
60.541
60.5274
60.5138
60.5002
60.4866
60.473
60.4593
60.4457
60.4321
60.4185
60.4048
60.3912
60.3775
60.3639
60.3502
60.3366
60.3229
60.3092
60.2955
60.2818
60.2682
60.2545
60.2407
60.227
60.2133
60.1996
60.1858
60.1721
60.1583
60.1446
60.1308
60.117
60.1033
60.0895
60.0757
60.0619
60.048
60.0342
60.0204
60.0065
59.9927
59.9788
59.9649
59.9511
59.9372
59.9233
59.9094
59.8954
59.8815
59.8675
59.8536
59.8396
59.8257
59.8117
59.7977
59.7837
59.7696
59.7556
59.7416
59.7275
59.7134
59.6994
59.6853
59.6712
59.657
59.6429
59.6288
59.6146
59.6005
59.5863
59.5721
59.5579
59.5437
59.5294
59.5152
59.5009
59.4866
59.4723
59.458
59.4437
59.4294
59.415
59.4007
59.3863
59.3719
59.3575
59.343
59.3286
59.3141
59.2996
59.2851
59.2706
59.2561
59.2415
59.2269
59.2124
59.1978
59.1831
59.1685
59.1538
59.1391
59.1244
59.1097
59.095
59.0802
59.0654
59.0506
59.0358
59.0209
59.0063
59.0063
70.052
70.052
69.8406
69.7892
69.7652
69.748
69.7332
69.7197
69.7074
69.6962
69.6856
69.6752
69.6643
69.6528
69.6406
69.6276
69.6138
69.5991
69.5835
69.5669
69.5494
69.5309
69.5113
69.4906
69.4687
69.4456
69.4212
69.3955
69.3683
69.3396
69.3093
69.2775
69.2439
69.2085
69.1714
69.1323
69.0913
69.0483
69.0032
68.956
68.9067
68.8552
68.8015
68.7455
68.6873
68.6267
68.5639
68.4988
68.4314
68.3618
68.2899
68.2157
68.1395
68.0611
67.9806
67.8981
67.8138
67.7276
67.6396
67.55
67.4589
67.3663
67.2724
67.1773
67.0812
66.9842
66.8864
66.7879
66.6889
66.5896
66.4901
66.3905
66.2911
66.1918
66.093
65.9946
65.8969
65.8
65.704
65.6091
65.5153
65.4228
65.3316
65.2419
65.1538
65.0673
64.9825
64.8995
64.8184
64.7391
64.6617
64.5863
64.5129
64.4414
64.372
64.3046
64.2392
64.1758
64.1143
64.0548
63.9973
63.9416
63.8878
63.8358
63.7856
63.7371
63.6903
63.6451
63.6015
63.5593
63.5187
63.4794
63.4415
63.4048
63.3694
63.3351
63.3019
63.2698
63.2387
63.2086
63.1793
63.1509
63.1233