# vtk DataFile Version 2.0
FlowField
ASCII
DATASET STRUCTURED_GRID
DIMENSIONS 400 1 200
POINTS 80000 float
0 0 0
0.08 0 0
0.16 0 0
0.24 0 0
0.32 0 0
0.4 0 0
0.48 0 0
0.56 0 0
0.64 0 0
0.72 0 0
0.8 0 0
0.88 0 0
0.96 0 0
1.04 0 0
1.12 0 0
1.2 0 0
1.28 0 0
1.36 0 0
1.44 0 0
1.52 0 0
1.6 0 0
1.68 0 0
1.76 0 0
1.84 0 0
1.92 0 0
2 0 0
2.08 0 0
2.16 0 0
2.24 0 0
2.32 0 0
2.4 0 0
2.48 0 0
2.56 0 0
2.64 0 0
2.72 0 0
2.8 0 0
2.88 0 0
2.96 0 0
3.04 0 0
3.12 0 0
3.2 0 0
3.28 0 0
3.36 0 0
3.44 0 0
3.52 0 0
3.6 0 0
3.68 0 0
3.76 0 0
3.84 0 0
3.92 0 0
4 0 0
4.08 0 0
4.16 0 0
4.24 0 0
4.32 0 0
4.4 0 0
4.48 0 0
4.56 0 0
4.64 0 0
4.72 0 0
4.8 0 0
4.88 0 0
4.96 0 0
5.04 0 0
5.12 0 0
5.2 0 0
5.28 0 0
5.36 0 0
5.44 0 0
5.52 0 0
5.6 0 0
5.68 0 0
5.76 0 0
5.84 0 0
5.92 0 0
6 0 0
6.08 0 0
6.16 0 0
6.24 0 0
6.32 0 0
6.4 0 0
6.48 0 0
6.56 0 0
6.64 0 0
6.72 0 0
6.8 0 0
6.88 0 0
6.96 0 0
7.04 0 0
7.12 0 0
7.2 0 0
7.28 0 0
7.36 0 0
7.44 0 0
7.52 0 0
7.6 0 0
7.68 0 0
7.76 0 0
7.84 0 0
7.92 0 0
8 0 0
8.08 0 0
8.16 0 0
8.24 0 0
8.32 0 0
8.4 0 0
8.48 0 0
8.56 0 0
8.64 0 0
8.72 0 0
8.8 0 0
8.88 0 0
8.96 0 0
9.04 0 0
9.12 0 0
9.2 0 0
9.28 0 0
9.36 0 0
9.44 0 0
9.52 0 0
9.6 0 0
9.68 0 0
9.76 0 0
9.84 0 0
9.92 0 0
10 0 0
10.08 0 0
10.16 0 0
10.24 0 0
10.32 0 0
10.4 0 0
10.48 0 0
10.56 0 0
10.64 0 0
10.72 0 0
10.8 0 0
10.88 0 0
10.96 0 0
11.04 0 0
11.12 0 0
11.2 0 0
11.28 0 0
11.36 0 0
11.44 0 0
11.52 0 0
11.6 0 0
11.68 0 0
11.76 0 0
11.84 0 0
11.92 0 0
12 0 0
12.08 0 0
12.16 0 0
12.24 0 0
12.32 0 0
12.4 0 0
12.48 0 0
12.56 0 0
12.64 0 0
12.72 0 0
12.8 0 0
12.88 0 0
12.96 0 0
13.04 0 0
13.12 0 0
13.2 0 0
13.28 0 0
13.36 0 0
13.44 0 0
13.52 0 0
13.6 0 0
13.68 0 0
13.76 0 0
13.84 0 0
13.92 0 0
14 0 0
14.08 0 0
14.16 0 0
14.24 0 0
14.32 0 0
14.4 0 0
14.48 0 0
14.56 0 0
14.64 0 0
14.72 0 0
14.8 0 0
14.88 0 0
14.96 0 0
15.04 0 0
15.12 0 0
15.2 0 0
15.28 0 0
15.36 0 0
15.44 0 0
15.52 0 0
15.6 0 0
15.68 0 0
15.76 0 0
15.84 0 0
15.92 0 0
16 0 0
16.08 0 0
16.16 0 0
16.24 0 0
16.32 0 0
16.4 0 0
16.48 0 0
16.56 0 0
16.64 0 0
16.72 0 0
16.8 0 0
16.88 0 0
16.96 0 0
17.04 0 0
17.12 0 0
17.2 0 0
17.28 0 0
17.36 0 0
17.44 0 0
17.52 0 0
17.6 0 0
17.68 0 0
17.76 0 0
17.84 0 0
17.92 0 0
18 0 0
18.08 0 0
18.16 0 0
18.24 0 0
18.32 0 0
18.4 0 0
18.48 0 0
18.56 0 0
18.64 0 0
18.72 0 0
18.8 0 0
18.88 0 0
18.96 0 0
19.04 0 0
19.12 0 0
19.2 0 0
19.28 0 0
19.36 0 0
19.44 0 0
19.52 0 0
19.6 0 0
19.68 0 0
19.76 0 0
19.84 0 0
19.92 0 0
20 0 0
20.08 0 0
20.16 0 0
20.24 0 0
20.32 0 0
20.4 0 0
20.48 0 0
20.56 0 0
20.64 0 0
20.72 0 0
20.8 0 0
20.88 0 0
20.96 0 0
21.04 0 0
21.12 0 0
21.2 0 0
21.28 0 0
21.36 0 0
21.44 0 0
21.52 0 0
21.6 0 0
21.68 0 0
21.76 0 0
21.84 0 0
21.92 0 0
22 0 0
22.08 0 0
22.16 0 0
22.24 0 0
22.32 0 0
22.4 0 0
22.48 0 0
22.56 0 0
22.64 0 0
22.72 0 0
22.8 0 0
22.88 0 0
22.96 0 0
23.04 0 0
23.12 0 0
23.2 0 0
23.28 0 0
23.36 0 0
23.44 0 0
23.52 0 0
23.6 0 0
23.68 0 0
23.76 0 0
23.84 0 0
23.92 0 0
24 0 0
24.08 0 0
24.16 0 0
24.24 0 0
24.32 0 0
24.4 0 0
24.48 0 0
24.56 0 0
24.64 0 0
24.72 0 0
24.8 0 0
24.88 0 0
24.96 0 0
25.04 0 0
25.12 0 0
25.2 0 0
25.28 0 0
25.36 0 0
25.44 0 0
25.52 0 0
25.6 0 0
25.68 0 0
25.76 0 0
25.84 0 0
25.92 0 0
26 0 0
26.08 0 0
26.16 0 0
26.24 0 0
26.32 0 0
26.4 0 0
26.48 0 0
26.56 0 0
26.64 0 0
26.72 0 0
26.8 0 0
26.88 0 0
26.96 0 0
27.04 0 0
27.12 0 0
27.2 0 0
27.28 0 0
27.36 0 0
27.44 0 0
27.52 0 0
27.6 0 0
27.68 0 0
27.76 0 0
27.84 0 0
27.92 0 0
28 0 0
28.08 0 0
28.16 0 0
28.24 0 0
28.32 0 0
28.4 0 0
28.48 0 0
28.56 0 0
28.64 0 0
28.72 0 0
28.8 0 0
28.88 0 0
28.96 0 0
29.04 0 0
29.12 0 0
29.2 0 0
29.28 0 0
29.36 0 0
29.44 0 0
29.52 0 0
29.6 0 0
29.68 0 0
29.76 0 0
29.84 0 0
29.92 0 0
30 0 0
30.08 0 0
30.16 0 0
30.24 0 0
30.32 0 0
30.4 0 0
30.48 0 0
30.56 0 0
30.64 0 0
30.72 0 0
30.8 0 0
30.88 0 0
30.96 0 0
31.04 0 0
31.12 0 0
31.2 0 0
31.28 0 0
31.36 0 0
31.44 0 0
31.52 0 0
31.6 0 0
31.68 0 0
31.76 0 0
31.84 0 0
31.92 0 0
0 0.005 0
0.08 0.005 0
0.16 0.005 0
0.24 0.005 0
0.32 0.005 0
0.4 0.005 0
0.48 0.005 0
0.56 0.005 0
0.64 0.005 0
0.72 0.005 0
0.8 0.005 0
0.88 0.005 0
0.96 0.005 0
1.04 0.005 0
1.12 0.005 0
1.2 0.005 0
1.28 0.005 0
1.36 0.005 0
1.44 0.005 0
1.52 0.005 0
1.6 0.005 0
1.68 0.005 0
1.76 0.005 0
1.84 0.005 0
1.92 0.005 0
2 0.005 0
2.08 0.005 0
2.16 0.005 0
2.24 0.005 0
2.32 0.005 0
2.4 0.005 0
2.48 0.005 0
2.56 0.005 0
2.64 0.005 0
2.72 0.005 0
2.8 0.005 0
2.88 0.005 0
2.96 0.005 0
3.04 0.005 0
3.12 0.005 0
3.2 0.005 0
3.28 0.005 0
3.36 0.005 0
3.44 0.005 0
3.52 0.005 0
3.6 0.005 0
3.68 0.005 0
3.76 0.005 0
3.84 0.005 0
3.92 0.005 0
4 0.005 0
4.08 0.005 0
4.16 0.005 0
4.24 0.005 0
4.32 0.005 0
4.4 0.005 0
4.48 0.005 0
4.56 0.005 0
4.64 0.005 0
4.72 0.005 0
4.8 0.005 0
4.88 0.005 0
4.96 0.005 0
5.04 0.005 0
5.12 0.005 0
5.2 0.005 0
5.28 0.005 0
5.36 0.005 0
5.44 0.005 0
5.52 0.005 0
5.6 0.005 0
5.68 0.005 0
5.76 0.005 0
5.84 0.005 0
5.92 0.005 0
6 0.005 0
6.08 0.005 0
6.16 0.005 0
6.24 0.005 0
6.32 0.005 0
6.4 0.005 0
6.48 0.005 0
6.56 0.005 0
6.64 0.005 0
6.72 0.005 0
6.8 0.005 0
6.88 0.005 0
6.96 0.005 0
7.04 0.005 0
7.12 0.005 0
7.2 0.005 0
7.28 0.005 0
7.36 0.005 0
7.44 0.005 0
7.52 0.005 0
7.6 0.005 0
7.68 0.005 0
7.76 0.005 0
7.84 0.005 0
7.92 0.005 0
8 0.005 0
8.08 0.005 0
8.16 0.005 0
8.24 0.005 0
8.32 0.005 0
8.4 0.005 0
8.48 0.005 0
8.56 0.005 0
8.64 0.005 0
8.72 0.005 0
8.8 0.005 0
8.88 0.005 0
8.96 0.005 0
9.04 0.005 0
9.12 0.005 0
9.2 0.005 0
9.28 0.005 0
9.36 0.005 0
9.44 0.005 0
9.52 0.005 0
9.6 0.005 0
9.68 0.005 0
9.76 0.005 0
9.84 0.005 0
9.92 0.005 0
10 0.005 0
10.08 0.005 0
10.16 0.005 0
10.24 0.005 0
10.32 0.005 0
10.4 0.005 0
10.48 0.005 0
10.56 0.005 0
10.64 0.005 0
10.72 0.005 0
10.8 0.005 0
10.88 0.005 0
10.96 0.005 0
11.04 0.005 0
11.12 0.005 0
11.2 0.005 0
11.28 0.005 0
11.36 0.005 0
11.44 0.005 0
11.52 0.005 0
11.6 0.005 0
11.68 0.005 0
11.76 0.005 0
11.84 0.005 0
11.92 0.005 0
12 0.005 0
12.08 0.005 0
12.16 0.005 0
12.24 0.005 0
12.32 0.005 0
12.4 0.005 0
12.48 0.005 0
12.56 0.005 0
12.64 0.005 0
12.72 0.005 0
12.8 0.005 0
12.88 0.005 0
12.96 0.005 0
13.04 0.005 0
13.12 0.005 0
13.2 0.005 0
13.28 0.005 0
13.36 0.005 0
13.44 0.005 0
13.52 0.005 0
13.6 0.005 0
13.68 0.005 0
13.76 0.005 0
13.84 0.005 0
13.92 0.005 0
14 0.005 0
14.08 0.005 0
14.16 0.005 0
14.24 0.005 0
14.32 0.005 0
14.4 0.005 0
14.48 0.005 0
14.56 0.005 0
14.64 0.005 0
14.72 0.005 0
14.8 0.005 0
14.88 0.005 0
14.96 0.005 0
15.04 0.005 0
15.12 0.005 0
15.2 0.005 0
15.28 0.005 0
15.36 0.005 0
15.44 0.005 0
15.52 0.005 0
15.6 0.005 0
15.68 0.005 0
15.76 0.005 0
15.84 0.005 0
15.92 0.005 0
16 0.005 0
16.08 0.005 0
16.16 0.005 0
16.24 0.005 0
16.32 0.005 0
16.4 0.005 0
16.48 0.005 0
16.56 0.005 0
16.64 0.005 0
16.72 0.005 0
16.8 0.005 0
16.88 0.005 0
16.96 0.005 0
17.04 0.005 0
17.12 0.005 0
17.2 0.005 0
17.28 0.005 0
17.36 0.005 0
17.44 0.005 0
17.52 0.005 0
17.6 0.005 0
17.68 0.005 0
17.76 0.005 0
17.84 0.005 0
17.92 0.005 0
18 0.005 0
18.08 0.005 0
18.16 0.005 0
18.24 0.005 0
18.32 0.005 0
18.4 0.005 0
18.48 0.005 0
18.56 0.005 0
18.64 0.005 0
18.72 0.005 0
18.8 0.005 0
18.88 0.005 0
18.96 0.005 0
19.04 0.005 0
19.12 0.005 0
19.2 0.005 0
19.28 0.005 0
19.36 0.005 0
19.44 0.005 0
19.52 0.005 0
19.6 0.005 0
19.68 0.005 0
19.76 0.005 0
19.84 0.005 0
19.92 0.005 0
20 0.005 0
20.08 0.005 0
20.16 0.005 0
20.24 0.005 0
20.32 0.005 0
20.4 0.005 0
20.48 0.005 0
20.56 0.005 0
20.64 0.005 0
20.72 0.005 0
20.8 0.005 0
20.88 0.005 0
20.96 0.005 0
21.04 0.005 0
21.12 0.005 0
21.2 0.005 0
21.28 0.005 0
21.36 0.005 0
21.44 0.005 0
21.52 0.005 0
21.6 0.005 0
21.68 0.005 0
21.76 0.005 0
21.84 0.005 0
21.92 0.005 0
22 0.005 0
22.08 0.005 0
22.16 0.005 0
22.24 0.005 0
22.32 0.005 0
22.4 0.005 0
22.48 0.005 0
22.56 0.005 0
22.64 0.005 0
22.72 0.005 0
22.8 0.005 0
22.88 0.005 0
22.96 0.005 0
23.04 0.005 0
23.12 0.005 0
23.2 0.005 0
23.28 0.005 0
23.36 0.005 0
23.44 0.005 0
23.52 0.005 0
23.6 0.005 0
23.68 0.005 0
23.76 0.005 0
23.84 0.005 0
23.92 0.005 0
24 0.005 0
24.08 0.005 0
24.16 0.005 0
24.24 0.005 0
24.32 0.005 0
24.4 0.005 0
24.48 0.005 0
24.56 0.005 0
24.64 0.005 0
24.72 0.005 0
24.8 0.005 0
24.88 0.005 0
24.96 0.005 0
25.04 0.005 0
25.12 0.005 0
25.2 0.005 0
25.28 0.005 0
25.36 0.005 0
25.44 0.005 0
25.52 0.005 0
25.6 0.005 0
25.68 0.005 0
25.76 0.005 0
25.84 0.005 0
25.92 0.005 0
26 0.005 0
26.08 0.005 0
26.16 0.005 0
26.24 0.005 0
26.32 0.005 0
26.4 0.005 0
26.48 0.005 0
26.56 0.005 0
26.64 0.005 0
26.72 0.005 0
26.8 0.005 0
26.88 0.005 0
26.96 0.005 0
27.04 0.005 0
27.12 0.005 0
27.2 0.005 0
27.28 0.005 0
27.36 0.005 0
27.44 0.005 0
27.52 0.005 0
27.6 0.005 0
27.68 0.005 0
27.76 0.005 0
27.84 0.005 0
27.92 0.005 0
28 0.005 0
28.08 0.005 0
28.16 0.005 0
28.24 0.005 0
28.32 0.005 0
28.4 0.005 0
28.48 0.005 0
28.56 0.005 0
28.64 0.005 0
28.72 0.005 0
28.8 0.005 0
28.88 0.005 0
28.96 0.005 0
29.04 0.005 0
29.12 0.005 0
29.2 0.005 0
29.28 0.005 0
29.36 0.005 0
29.44 0.005 0
29.52 0.005 0
29.6 0.005 0
29.68 0.005 0
29.76 0.005 0
29.84 0.005 0
29.92 0.005 0
30 0.005 0
30.08 0.005 0
30.16 0.005 0
30.24 0.005 0
30.32 0.005 0
30.4 0.005 0
30.48 0.005 0
30.56 0.005 0
30.64 0.005 0
30.72 0.005 0
30.8 0.005 0
30.88 0.005 0
30.96 0.005 0
31.04 0.005 0
31.12 0.005 0
31.2 0.005 0
31.28 0.005 0
31.36 0.005 0
31.44 0.005 0
31.52 0.005 0
31.6 0.005 0
31.68 0.005 0
31.76 0.005 0
31.84 0.005 0
31.92 0.005 0
0 0.01 0
0.08 0.01 0
0.16 0.01 0
0.24 0.01 0
0.32 0.01 0
0.4 0.01 0
0.48 0.01 0
0.56 0.01 0
0.64 0.01 0
0.72 0.01 0
0.8 0.01 0
0.88 0.01 0
0.96 0.01 0
1.04 0.01 0
1.12 0.01 0
1.2 0.01 0
1.28 0.01 0
1.36 0.01 0
1.44 0.01 0
1.52 0.01 0
1.6 0.01 0
1.68 0.01 0
1.76 0.01 0
1.84 0.01 0
1.92 0.01 0
2 0.01 0
2.08 0.01 0
2.16 0.01 0
2.24 0.01 0
2.32 0.01 0
2.4 0.01 0
2.48 0.01 0
2.56 0.01 0
2.64 0.01 0
2.72 0.01 0
2.8 0.01 0
2.88 0.01 0
2.96 0.01 0
3.04 0.01 0
3.12 0.01 0
3.2 0.01 0
3.28 0.01 0
3.36 0.01 0
3.44 0.01 0
3.52 0.01 0
3.6 0.01 0
3.68 0.01 0
3.76 0.01 0
3.84 0.01 0
3.92 0.01 0
4 0.01 0
4.08 0.01 0
4.16 0.01 0
4.24 0.01 0
4.32 0.01 0
4.4 0.01 0
4.48 0.01 0
4.56 0.01 0
4.64 0.01 0
4.72 0.01 0
4.8 0.01 0
4.88 0.01 0
4.96 0.01 0
5.04 0.01 0
5.12 0.01 0
[...]
POINT_DATA 80000

SCALARS p float 1
LOOKUP_TABLE default
1
56.7644
56.4627
56.4215
56.4014
56.387
56.375
56.3643
56.3543
56.3448
56.3356
56.3267
56.3181
56.3097
56.3015
56.2935
56.2856
56.278
56.2704
56.2631
56.2558
56.2487
56.2418
56.2349
56.2282
56.2216
56.2151
56.2087
56.2024
56.1962
56.1901
56.1841
56.1782
56.1723
56.1666
56.161
56.1554
56.15
56.1447
56.1395
56.1344
56.1294
56.1245
56.1196
56.1148
56.1101
56.1055
56.1009
56.0963
56.0918
56.0873
56.0828
56.0784
56.074
56.0696
56.0652
56.0609
56.0566
56.0524
56.0482
56.044
56.0399
56.0358
56.0317
56.0276
56.0235
56.0195
56.0154
56.0114
56.0073
56.0032
55.9992
55.9951
55.9911
55.987
55.983
55.9789
55.9748
55.9708
55.9667
55.9627
55.9586
55.9545
55.9505
55.9464
55.9424
55.9383
55.9342
55.9302
55.9261
55.9221
55.918
55.9139
55.9099
55.9058
55.9018
55.8977
55.8936
55.8896
55.8855
55.8814
55.8774
55.8733
55.8693
55.8652
55.8611
55.8571
55.853
55.8489
55.8449
55.8408
55.8367
55.8327
55.8286
55.8245
55.8205
55.8164
55.8123
55.8083
55.8042
55.8001
55.7961
55.792
55.7879
55.7839
55.7798
55.7757
55.7717
55.7676
55.7635
55.7594
55.7554
55.7513
55.7472
55.7432
55.7391
55.735
55.731
55.7269
55.7228
55.7188
55.7147
55.7106
55.7065
55.7025
55.6984
55.6943
55.6903
55.6862
55.6821
55.6781
55.674
55.6699
55.6658
55.6618
55.6577
55.6536
55.6496
55.6455
55.6414
55.6374
55.6333
55.6292
55.6251
55.6211
55.617
55.6129
55.6089
55.6048
55.6007
55.5967
55.5926
55.5885
55.5844
55.5804
55.5763
55.5722
55.5682
55.5641
55.56
55.556
55.5519
55.5478
55.5438
55.5397
55.5356
55.5315
55.5275
55.5234
55.5193
55.5153
55.5112
55.5071
55.5031
55.499
55.4949
55.4909
55.4868
55.4827
55.4787
55.4746
55.4705
55.4665
55.4624
55.4583
55.4542
55.4502
55.4461
55.442
55.438
55.4339
55.4298
55.4258
55.4217
55.4176
55.4136
55.4095
55.4054
55.4014
55.3973
55.3932
55.3892
55.3851
55.381
55.3769
55.3729
55.3688
55.3647
55.3607
55.3566
55.3525
55.3485
55.3444
55.3403
55.3363
55.3322
55.3281
55.3241
55.32
55.3159
55.3118
55.3078
55.3037
55.2996
55.2956
55.2915
55.2874
55.2834
55.2793
55.2752
55.2711
55.2671
55.263
55.2589
55.2549
55.2508
55.2467
55.2426
55.2386
55.2345
55.2304
55.2264
55.2223
55.2182
55.2141
55.2101
55.206
55.2019
55.1978
55.1938
55.1897
55.1856
55.1815
55.1775
55.1734
55.1693
55.1653
55.1612
55.1571
55.153
55.1489
55.1449
55.1408
55.1367
55.1326
55.1286
55.1245
55.1204
55.1163
55.1123
55.1082
55.1041
55.1
55.0959
55.0919
55.0878
55.0837
55.0796
55.0756
55.0715
55.0674
55.0633
55.0592
55.0552
55.0511
55.047
55.0429
55.0388
55.0347
55.0307
55.0266
55.0225
55.0184
55.0143
55.0103
55.0062
55.0021
54.998
54.9939
54.9898
54.9858
54.9817
54.9776
54.9735
54.9694
54.9653
54.9612
54.9572
54.9531
54.949
54.9449
54.9408
54.9367
54.9326
54.9285
54.9245
54.9204
54.9163
54.9122
54.9081
54.904
54.8999
54.8958
54.8917
54.8877
54.8836
54.8795
54.8754
54.8713
54.8672
54.8631
54.859
54.8549
54.8508
54.8467
54.8427
54.8386
54.8345
54.8304
54.8263
54.8222
54.8181
54.814
54.8099
54.8058
54.8017
54.7976
54.7935
54.7894
54.7853
54.7812
54.7771
54.773
54.7689
54.7648
54.7607
54.7566
54.7526
54.7485
54.7444
54.7403
54.7362
54.7321
54.728
54.7239
54.7198
54.7157
54.7116
54.7075
54.7034
54.6993
54.6952
54.691
54.6869
54.6828
54.6787
54.6746
54.6705
54.6664
0.5
56.7644
56.7644
56.4627
56.4215
56.4014
56.387
56.375
56.3643
56.3543
56.3448
56.3356
56.3267
56.3181
56.3097
56.3015
56.2935
56.2856
56.278
56.2704
56.2631
56.2558
56.2487
56.2418
56.2349
56.2282
56.2216
56.2151
56.2087
56.2024
56.1962
56.1901
56.1841
56.1782
56.1723
56.1666
56.161
56.1554
56.15
56.1447
56.1395
56.1344
56.1294
56.1245
56.1196
56.1148
56.1101
56.1055
56.1009
56.0963
56.0918
56.0873
56.0828
56.0784
56.074
56.0696
56.0652
56.0609
56.0566
56.0524
56.0482
56.044
56.0399
56.0358
56.0317
56.0276
56.0235
56.0195
56.0154
56.0114
56.0073
56.0032
55.9992
55.9951
55.9911
55.987
55.983
55.9789
55.9748
55.9708
55.9667
55.9627
55.9586
55.9545
55.9505
55.9464
55.9424
55.9383
55.9342
55.9302
55.9261
55.9221
55.918
55.9139
55.9099
55.9058
55.9018
55.8977
55.8936
55.8896
55.8855
55.8814
55.8774
55.8733
55.8693
55.8652
55.8611
55.8571
55.853
55.8489
55.8449
55.8408
55.8367
55.8327
55.8286
55.8245
55.8205
55.8164
55.8123
55.8083
55.8042
55.8001
55.7961
55.792
55.7879
55.7839
55.7798
55.7757
55.7717
55.7676
55.7635
55.7594
55.7554
55.7513
55.7472
55.7432
55.7391
55.735
55.731
55.7269
55.7228
55.7188
55.7147
55.7106
55.7065
55.7025
55.6984
55.6943
55.6903
55.6862
55.6821
55.6781
55.674
55.6699
55.6658
55.6618
55.6577
55.6536
55.6496
55.6455
55.6414
55.6374
55.6333
55.6292
55.6251
55.6211
55.617
55.6129
55.6089
55.6048
55.6007
55.5967
55.5926
55.5885
55.5844
55.5804
55.5763
55.5722
55.5682
55.5641
55.56
55.556
55.5519
55.5478
55.5438
55.5397
55.5356
55.5315
55.5275
55.5234
55.5193
55.5153
55.5112
55.5071
55.5031
55.499
55.4949
55.4909
55.4868
55.4827
55.4787
55.4746
55.4705
55.4665
55.4624
55.4583
55.4542
55.4502
55.4461
55.442
55.438
55.4339
55.4298
55.4258
55.4217
55.4176
55.4136
55.4095
55.4054
55.4014
55.3973
55.3932
55.3892
55.3851
55.381
55.3769
55.3729
55.3688
55.3647
55.3607
55.3566
55.3525
55.3485
55.3444
55.3403
55.3363
55.3322
55.3281
55.3241
55.32
55.3159
55.3118
55.3078
55.3037
55.2996
55.2956
55.2915
55.2874
55.2834
55.2793
55.2752
55.2711
55.2671
55.263
55.2589
55.2549
55.2508
55.2467
55.2426
55.2386
55.2345
55.2304
55.2264
55.2223
55.2182
55.2141
55.2101
55.206
55.2019
55.1978
55.1938
55.1897
55.1856
55.1815
55.1775
55.1734
55.1693
55.1653
55.1612
55.1571
55.153
55.1489
55.1449
55.1408
55.1367
55.1326
55.1286
55.1245
55.1204
55.1163
55.1123
55.1082
55.1041
55.1
55.0959
55.0919
55.0878
55.0837
55.0796
55.0756
55.0715
55.0674
55.0633
55.0592
55.0552
55.0511
55.047
55.0429
55.0388
55.0347
55.0307
55.0266
55.0225
55.0184
55.0143
55.0103
55.0062
55.0021
54.998
54.9939
54.9898
54.9858
54.9817
54.9776
54.9735
54.9694
54.9653
54.9612
54.9572
54.9531
54.949
54.9449
54.9408
54.9367
54.9326
54.9285
54.9245
54.9204
54.9163
54.9122
54.9081
54.904
54.8999
54.8958
54.8917
54.8877
54.8836
54.8795
54.8754
54.8713
54.8672
54.8631
54.859
54.8549
54.8508
54.8467
54.8427
54.8386
54.8345
54.8304
54.8263
54.8222
54.8181
54.814
54.8099
54.8058
54.8017
54.7976
54.7935
54.7894
54.7853
54.7812
54.7771
54.773
54.7689
54.7648
54.7607
54.7566
54.7526
54.7485
54.7444
54.7403
54.7362
54.7321
54.728
54.7239
54.7198
54.7157
54.7116
54.7075
54.7034
54.6993
54.6952
54.691
54.6869
54.6828
54.6787
54.6746
54.6705
54.6664
54.6664
56.7499
56.7499
56.4665
56.4228
56.4021
56.3874
56.3753
56.3645
56.3544
56.3449
56.3357
56.3268
56.3182
56.3098
56.3016
56.2935
56.2857
56.278
56.2705
56.2631
56.2559
56.2488
56.2418
56.235
56.2282
56.2216
56.2151
56.2087
56.2024
56.1962
56.1901
56.1841
56.1782
56.1724
56.1666
56.161
56.1555
56.15
56.1447
56.1395
56.1344
56.1294
56.1245
56.1196
56.1148
56.1101
56.1055
56.1009
56.0963
56.0918
56.0873
56.0829
56.0784
56.074
56.0696
56.0652
56.0609
56.0566
56.0524
56.0482
56.044
56.0399
56.0358
56.0317
56.0276
56.0235
56.0195
56.0154
56.0114
56.0073
56.0032
55.9992
55.9951
55.9911
55.987
55.983
55.9789
55.9748
55.9708
55.9667
55.9627
55.9586
55.9545
55.9505
55.9464
55.9424
55.9383
55.9342
55.9302
55.9261
55.9221
55.918
55.9139
55.9099
55.9058
55.9018
55.8977
55.8936
55.8896
55.8855
55.8814
55.8774
55.8733
55.8693
55.8652
55.8611
55.8571
55.853
55.8489
55.8449
55.8408
55.8367
55.8327
55.8286
55.8245
55.8205
55.8164
55.8123
55.8083
55.8042
55.8001
55.7961
55.792
55.7879
55.7839
55.7798
55.7757
55.7717
55.7676
55.7635
55.7594
55.7554
55.7513
55.7472
55.7432
55.7391
55.735
55.731
55.7269
55.7228
55.7188
55.7147
55.7106
55.7065
55.7025
55.6984
55.6943
55.6903
55.6862
55.6821
55.6781
55.674
55.6699
55.6658
55.6618
55.6577
55.6536
55.6496
55.6455
55.6414
55.6374
55.6333
55.6292
55.6251
55.6211
55.617
55.6129
55.6089
55.6048
55.6007
55.5967
55.5926
55.5885
55.5844
55.5804
55.5763
55.5722
55.5682
55.5641
55.56
55.556
55.5519
55.5478
55.5438
55.5397
55.5356
55.5315
55.5275
55.5234
55.5193
55.5153
55.5112
55.5071
55.5031
55.499
55.4949
55.4909
55.4868
55.4827
55.4787
55.4746
55.4705
55.4665
55.4624
55.4583
55.4542
55.4502
55.4461
55.442
55.438
55.4339
55.4298
55.4258
55.4217
55.4176
55.4136
55.4095
55.4054
55.4014
55.3973
55.3932
55.3892
55.3851
55.381
55.3769
55.3729
55.3688
55.3647
55.3607
55.3566
55.3525
55.3485
55.3444
55.3403
55.3363
55.3322
55.3281
55.3241
55.32
55.3159
55.3118
55.3078
55.3037
55.2996
55.2956
55.2915
55.2874
55.2834
55.2793
55.2752
55.2711
55.2671
55.263
55.2589
55.2549
55.2508
55.2467
55.2426
55.2386
55.2345
55.2304
55.2264
55.2223
55.2182
55.2141
55.2101
55.206
55.2019
55.1978
55.1938
55.1897
55.1856
55.1815
55.1775
55.1734
55.1693
55.1653
55.1612
55.1571
55.153
55.1489
55.1449
55.1408
55.1367
55.1326
55.1286
55.1245
55.1204
55.1163
55.1123
55.1082
55.1041
55.1
55.0959
55.0919
55.0878
55.0837
55.0796
55.0756
55.0715
55.0674
55.0633
55.0592
55.0552
55.0511
55.047
55.0429
55.0388
55.0347
55.0307
55.0266
55.0225
55.0184
55.0143
55.0103
55.0062
55.0021
54.998
54.9939
54.9898
54.9858
54.9817
54.9776
54.9735
54.9694
54.9653
54.9612
54.9572
54.9531
54.949
54.9449
54.9408
54.9367
54.9326
54.9285
54.9245
54.9204
54.9163
54.9122
54.9081
54.904
54.8999
54.8958
54.8917
54.8877
54.8836
54.8795
54.8754
54.8713
54.8672
54.8631
54.859
54.8549
54.8508
54.8467
54.8427
54.8386
54.8345
54.8304
54.8263
54.8222
54.8181
54.814
54.8099
54.8058
54.8017
54.7976
54.7935
54.7894
54.7853
54.7812
54.7771
54.773
54.7689
54.7648
54.7607
54.7566
54.7526
54.7485
54.7444
54.7403
54.7362
54.7321
54.728
54.7239
54.7198
54.7157
54.7116
54.7075
54.7034
54.6993
54.6951
54.691
54.6869
54.6828
54.6787
54.6746
54.6705
54.6664
54.6664
56.7339
56.7339
56.4697
56.424
56.4027
56.3878
56.3756
56.3647
56.3546
56.345
56.3358
56.3269
56.3183
56.3098
56.3016
56.2936
56.2857
56.278
56.2705
56.2631
56.2559
56.2488
56.2418
56.235
56.2283
56.2216
56.2151
56.2087
56.2024
56.1962
56.1901
56.1841
56.1782
56.1724
56.1666
56.161
56.1555
56.15
56.1447
56.1395
56.1344
56.1294
56.1245
56.1196
56.1148
56.1101
56.1055
56.1009
56.0963
56.0918
56.0873
56.0829
56.0784
56.074
56.0696
56.0652
56.0609
56.0566
56.0524
56.0482
56.044
56.0399
56.0358
56.0317
56.0276
56.0235
56.0195
56.0154
56.0114
56.0073
56.0032
55.9992
55.9951
55.9911
55.987
55.983
55.9789
55.9748
55.9708
55.9667
55.9627
55.9586
55.9545
55.9505
55.9464
55.9424
55.9383
55.9342
55.9302
55.9261
55.9221
55.918
55.9139
55.9099
55.9058
55.9018
55.8977
55.8936
55.8896
55.8855
55.8814
55.8774
55.8733
55.8693
55.8652
55.8611
55.8571
55.853
55.8489
55.8449
55.8408
55.8367
55.8327
55.8286
55.8245
55.8205
55.8164
55.8123
55.8083
55.8042
55.8001
55.7961
55.792
55.7879
55.7839
55.7798
55.7757
55.7717
55.7676
55.7635
55.7594
55.7554
55.7513
55.7472
55.7432
55.7391
55.735
55.731
55.7269
55.7228
55.7188
55.7147
55.7106
55.7065
55.7025
55.6984
55.6943
55.6903
55.6862
55.6821
55.6781
55.674
55.6699
55.6658
55.6618
55.6577
55.6536
55.6496
55.6455
55.6414
55.6374
55.6333
55.6292
55.6251
55.6211
55.617
55.6129
55.6089
55.6048
55.6007
55.5967
55.5926
55.5885
55.5844
55.5804
55.5763
55.5722
55.5682
55.5641
55.56
55.556
55.5519
55.5478
55.5438
55.5397
55.5356
55.5315
55.5275
55.5234
55.5193
55.5153
55.5112
55.5071
55.5031
55.499
55.4949
55.4909
55.4868
55.4827
55.4787
55.4746
55.4705
55.4665
55.4624
55.4583
55.4542
55.4502
55.4461
55.442
55.438
55.4339
55.4298
55.4258
55.4217
55.4176
55.4136
55.4095
55.4054
55.4014
55.3973
55.3932
55.3892
55.3851
55.381
55.3769
55.3729
55.3688
55.3647
55.3607
55.3566
55.3525
55.3485
55.3444
55.3403
55.3363
55.3322
55.3281
55.3241
55.32
55.3159
55.3118
55.3078
55.3037
55.2996
55.2956
55.2915
55.2874
55.2834
55.2793
55.2752
55.2711
55.2671
55.263
55.2589
55.2549
55.2508
55.2467
55.2426
55.2386
55.2345
55.2304
55.2264
55.2223
55.2182
55.2141
55.2101
55.206
55.2019
55.1978
55.1938
55.1897
55.1856
55.1815
55.1775
55.1734
55.1693
55.1652
55.1612
55.1571
55.153
55.1489
55.1449
55.1408
55.1367
55.1326
55.1286
55.1245
55.1204
55.1163
55.1123
55.1082
55.1041
55.1
55.0959
55.0919
55.0878
55.0837
55.0796
55.0756
55.0715
55.0674
55.0633
55.0592
55.0552
55.0511
55.047
55.0429
55.0388
55.0347
55.0307
55.0266
55.0225
55.0184
55.0143
55.0103
55.0062
55.0021
54.998
54.9939
54.9898
54.9858
54.9817
54.9776
54.9735
54.9694
54.9653
54.9612
54.9572
54.9531
54.949
54.9449
54.9408
54.9367
54.9326
54.9285
54.9245
54.9204
54.9163
54.9122
54.9081
54.904
54.8999
54.8958
54.8917
54.8877
54.8836
54.8795
54.8754
54.8713
54.8672
54.8631
54.859
54.8549
54.8508
54.8467
54.8427
54.8386
54.8345
54.8304
54.8263
54.8222
54.8181
54.814
54.8099
54.8058
54.8017
54.7976
54.7935
54.7894
54.7853
54.7812
54.7771
54.773
54.7689
54.7648
54.7607
54.7566
54.7526
54.7485
54.7444
54.7403
54.7362
54.7321
54.728
54.7239
54.7198
54.7157
54.7116
54.7075
54.7034
54.6993
54.6951
54.691
54.6869
54.6828
54.6787
54.6746
54.6705
54.6664
54.6664
56.718
56.718
56.4726
56.4251
56.4033
56.3882
56.3758
56.3649
56.3547
56.3451
56.3359
56.327
56.3183
56.3099
56.3017
56.2936
56.2858
56.2781
56.2705
56.2632
56.2559
56.2488
56.2419
56.235
56.2283
56.2217
56.2152
56.2088
56.2025
56.1962
56.1901
56.1841
56.1782
56.1724
56.1666
56.161
56.1555
56.15
56.1447
56.1395
56.1344
56.1294
56.1245
56.1196
56.1148
56.1101
56.1055
56.1009
56.0963
56.0918
56.0873
56.0829
56.0784
56.074
56.0696
56.0652
56.0609
56.0566
56.0524
56.0482
56.044
56.0399
56.0358
56.0317
56.0276
56.0235
56.0195
56.0154
56.0114
56.0073
56.0032
55.9992
55.9951
55.9911
55.987
55.983
55.9789
55.9748
55.9708
55.9667
55.9627
55.9586
55.9545
55.9505
55.9464
55.9424
55.9383
55.9342
55.9302
55.9261
55.9221
55.918
55.9139
55.9099
55.9058
55.9018
55.8977
55.8936
55.8896
55.8855
55.8814
55.8774
55.8733
55.8693
55.8652
55.8611
55.8571
55.853
55.8489
55.8449
55.8408
55.8367
55.8327
55.8286
55.8245
55.8205
55.8164
55.8123
55.8083
55.8042
55.8001
55.7961
55.792
55.7879
55.7839
55.7798
55.7757
55.7717
55.7676
55.7635
55.7594
55.7554
55.7513
55.7472
55.7432
55.7391
55.735
55.731
55.7269
55.7228
55.7188
55.7147
55.7106
55.7065
55.7025
55.6984
55.6943
55.6903
55.6862
55.6821
55.6781
55.674
55.6699
55.6658
55.6618
55.6577
55.6536
55.6496
55.6455
55.6414
55.6374
55.6333
55.6292
55.6251
55.6211
55.617
55.6129
55.6089
55.6048
55.6007
55.5967
55.5926
55.5885
55.5844
55.5804
55.5763
55.5722
55.5682
55.5641
55.56
55.556
55.5519
55.5478
55.5438
55.5397
55.5356
55.5315
55.5275
55.5234
55.5193
55.5153
55.5112
55.5071
55.5031
55.499
55.4949
55.4909
55.4868
55.4827
55.4787
55.4746
55.4705
55.4665
55.4624
55.4583
55.4542
55.4502
55.4461
55.442
55.438
55.4339
55.4298
55.4258
55.4217
55.4176
55.4136
55.4095
55.4054
55.4014
55.3973
55.3932
55.3892
55.3851
55.381
55.3769
55.3729
55.3688
55.3647
55.3607
55.3566
55.3525
55.3485
55.3444
55.3403
55.3363
55.3322
55.3281
55.3241
55.32
55.3159
55.3118
55.3078
55.3037
55.2996
55.2956
55.2915
55.2874
55.2834
55.2793
55.2752
55.2711
55.2671
55.263
55.2589
55.2549
55.2508
55.2467
55.2426
55.2386
55.2345
55.2304
55.2264
55.2223
55.2182
55.2141
55.2101
55.206
55.2019
55.1978
55.1938
55.1897
55.1856
55.1815
55.1775
55.1734
55.1693
55.1652
55.1612
55.1571
55.153
55.1489
55.1449
55.1408
55.1367
55.1326
55.1286
55.1245
55.1204
55.1163
55.1123
55.1082
55.1041
55.1
55.0959
55.0919
55.0878
55.0837
55.0796
55.0756
55.0715
55.0674
55.0633
55.0592
55.0552
55.0511
55.047
55.0429
55.0388
55.0347
55.0307
55.0266
55.0225
55.0184
55.0143
55.0103
55.0062
55.0021
54.998
54.9939
54.9898
54.9858
54.9817
54.9776
54.9735
54.9694
54.9653
54.9612
54.9572
54.9531
54.949
54.9449
54.9408
54.9367
54.9326
54.9285
54.9245
54.9204
54.9163
54.9122
54.9081
54.904
54.8999
54.8958
54.8917
54.8877
54.8836
54.8795
54.8754
54.8713
54.8672
54.8631
54.859
54.8549
54.8508
54.8467
54.8427
54.8386
54.8345
54.8304
54.8263
54.8222
54.8181
54.814
54.8099
54.8058
54.8017
54.7976
54.7935
54.7894
54.7853
54.7812
54.7771
54.773
54.7689
54.7648
54.7607
54.7566
54.7526
54.7485
54.7444
54.7403
54.7362
54.7321
54.728
54.7239
54.7198
54.7157
54.7116
54.7075
54.7034
54.6993
54.6951
54.691
54.6869
54.6828
54.6787
54.6746
54.6705
54.6664
54.6664
56.7028
56.7028
56.4753
56.4262
56.4039
56.3886
56.3761
56.3651
56.3549
56.3452
56.336
56.3271
56.3184
56.31
56.3017
56.2937
56.2858
56.2781
56.2706
56.2632
56.256
56.2488
56.2419
56.235
56.2283
56.2217
56.2152
56.2088
56.2025
56.1963
56.1901
56.1841
56.1782
56.1724
56.1667
56.161
56.1555
56.15
56.1447
56.1395
56.1344
56.1294
56.1245
56.1196
56.1148
56.1101
56.1055
56.1009
56.0963
56.0918
56.0873
56.0829
56.0784
56.074
56.0696
56.0652
56.0609
56.0566
56.0524
56.0482
56.044
56.0399
56.0358
56.0317
56.0276
56.0235
56.0195
56.0154
56.0113
56.0073
56.0032
55.9992
55.9951
55.9911
55.987
55.983
55.9789
55.9748
55.9708
55.9667
55.9627
55.9586
55.9545
55.9505
55.9464
55.9424
55.9383
55.9342
55.9302
55.9261
55.9221
55.918
55.9139
55.9099
55.9058
55.9018
55.8977
55.8936
55.8896
55.8855
55.8814
55.8774
55.8733
55.8693
55.8652
55.8611
55.8571
55.853
55.8489
55.8449
55.8408
55.8367
55.8327
55.8286
55.8245
55.8205
55.8164
55.8123
55.8083
55.8042
55.8001
55.7961
55.792
55.7879
55.7839
55.7798
55.7757
55.7717
55.7676
55.7635
55.7594
55.7554
55.7513
55.7472
55.7432
55.7391
55.735
55.731
55.7269
55.7228
55.7188
55.7147
55.7106
55.7065
55.7025
55.6984
55.6943
55.6903
55.6862
55.6821
55.6781
55.674
55.6699
55.6658
55.6618
55.6577
55.6536
55.6496
55.6455
55.6414
55.6374
55.6333
55.6292
55.6251
55.6211
55.617
55.6129
55.6089
55.6048
55.6007
55.5967
55.5926
55.5885
55.5844
55.5804
55.5763
55.5722
55.5682
55.5641
55.56
55.556
55.5519
55.5478
55.5438
55.5397
55.5356
55.5315
55.5275
55.5234
55.5193
55.5153
55.5112
55.5071
55.5031
55.499
55.4949
55.4909
55.4868
55.4827
55.4787
55.4746
55.4705
55.4665
55.4624
55.4583
55.4542
55.4502
55.4461
55.442
55.438
55.4339
55.4298
55.4258
55.4217
55.4176
55.4136
55.4095
55.4054
55.4014
55.3973
55.3932
55.3892
55.3851
55.381
55.3769
55.3729
55.3688
55.3647
55.3607
55.3566
55.3525
55.3485
55.3444
55.3403
55.3363
55.3322
55.3281
55.3241
55.32
55.3159
55.3118
55.3078
55.3037
55.2996
55.2956
55.2915
55.2874
55.2834
55.2793
55.2752
55.2711
55.2671
55.263
55.2589
55.2549
55.2508
55.2467
55.2426
55.2386
55.2345
55.2304
55.2264
55.2223
55.2182
55.2141
55.2101
55.206
55.2019
55.1978
55.1938
55.1897
55.1856
55.1815
55.1775
55.1734
55.1693
55.1652
55.1612
55.1571
55.153
55.1489
55.1449
55.1408
55.1367
55.1326
55.1286
55.1245
55.1204
55.1163
55.1123
55.1082
55.1041
55.1
55.0959
55.0919
55.0878
55.0837
55.0796
55.0756
55.0715
55.0674
55.0633
55.0592
55.0552
55.0511
55.047
55.0429
55.0388
55.0347
55.0307
55.0266
55.0225
55.0184
55.0143
55.0103
55.0062
55.0021
54.998
54.9939
54.9898
54.9858
54.9817
54.9776
54.9735
54.9694
54.9653
54.9612
54.9572
54.9531
54.949
54.9449
54.9408
54.9367
54.9326
54.9285
54.9245
54.9204
54.9163
54.9122
54.9081
54.904
54.8999
54.8958
54.8917
54.8877
54.8836
54.8795
54.8754
54.8713
54.8672
54.8631
54.859
54.8549
54.8508
54.8467
54.8427
54.8386
54.8345
54.8304
54.8263
54.8222
54.8181
54.814
54.8099
54.8058
54.8017
54.7976
54.7935
54.7894
54.7853
54.7812
54.7771
54.773
54.7689
54.7648
54.7607
54.7566
54.7525
54.7485
54.7444
54.7403
54.7362
54.7321
54.728
54.7239
54.7198
54.7157
54.7116
54.7075
54.7034
54.6993
54.6951
54.691
54.6869
54.6828
54.6787
54.6746
54.6705
54.6664
54.6664
56.6888
56.6888
56.4779
56.4274
56.4045
56.3889
56.3763
56.3652
56.355
56.3454
56.3361
56.3271
56.3185
56.31
56.3018
56.2937
56.2858
56.2781
56.2706
56.2632
56.256
56.2489
56.2419
56.235
56.2283
56.2217
56.2152
56.2088
56.2025
56.1963
56.1902
56.1841
56.1782
56.1724
56.1667
56.161
56.1555
56.1501
56.1447
56.1395
56.1344
56.1294
56.1245
56.1196
56.1148
56.1101
56.1055
56.1009
56.0963
56.0918
56.0873
56.0829
56.0784
56.074
56.0696
56.0652
56.0609
56.0566
56.0524
56.0482
56.044
56.0399
56.0358
56.0317
56.0276
56.0235
56.0195
56.0154
56.0113
56.0073
56.0032
55.9992
55.9951
55.9911
55.987
55.983
55.9789
55.9748
55.9708
55.9667
55.9627
55.9586
55.9545
55.9505
55.9464
55.9424
55.9383
55.9342
55.9302
55.9261
55.9221
55.918
55.9139
55.9099
55.9058
55.9018
55.8977
55.8936
55.8896
55.8855
55.8814
55.8774
55.8733
55.8693
55.8652
55.8611
55.8571
55.853
55.8489
55.8449
55.8408
55.8367
55.8327
55.8286
55.8245
55.8205
55.8164
55.8123
55.8083
55.8042
55.8001
55.7961
55.792
55.7879
55.7839
55.7798