# vtk DataFile Version 2.0
FlowField
ASCII
DATASET STRUCTURED_GRID
DIMENSIONS 400 1 200
POINTS 80000 float
0 0 0
0.08 0 0
0.16 0 0
0.24 0 0
0.32 0 0
0.4 0 0
0.48 0 0
0.56 0 0
0.64 0 0
0.72 0 0
0.8 0 0
0.88 0 0
0.96 0 0
1.04 0 0
1.12 0 0
1.2 0 0
1.28 0 0
1.36 0 0
1.44 0 0
1.52 0 0
1.6 0 0
1.68 0 0
1.76 0 0
1.84 0 0
1.92 0 0
2 0 0
2.08 0 0
2.16 0 0
2.24 0 0
2.32 0 0
2.4 0 0
2.48 0 0
2.56 0 0
2.64 0 0
2.72 0 0
2.8 0 0
2.88 0 0
2.96 0 0
3.04 0 0
3.12 0 0
3.2 0 0
3.28 0 0
3.36 0 0
3.44 0 0
3.52 0 0
3.6 0 0
3.68 0 0
3.76 0 0
3.84 0 0
3.92 0 0
4 0 0
4.08 0 0
4.16 0 0
4.24 0 0
4.32 0 0
4.4 0 0
4.48 0 0
4.56 0 0
4.64 0 0
4.72 0 0
4.8 0 0
4.88 0 0
4.96 0 0
5.04 0 0
5.12 0 0
5.2 0 0
5.28 0 0
5.36 0 0
5.44 0 0
5.52 0 0
5.6 0 0
5.68 0 0
5.76 0 0
5.84 0 0
5.92 0 0
6 0 0
6.08 0 0
6.16 0 0
6.24 0 0
6.32 0 0
6.4 0 0
6.48 0 0
6.56 0 0
6.64 0 0
6.72 0 0
6.8 0 0
6.88 0 0
6.96 0 0
7.04 0 0
7.12 0 0
7.2 0 0
7.28 0 0
7.36 0 0
7.44 0 0
7.52 0 0
7.6 0 0
7.68 0 0
7.76 0 0
7.84 0 0
7.92 0 0
8 0 0
8.08 0 0
8.16 0 0
8.24 0 0
8.32 0 0
8.4 0 0
8.48 0 0
8.56 0 0
8.64 0 0
8.72 0 0
8.8 0 0
8.88 0 0
8.96 0 0
9.04 0 0
9.12 0 0
9.2 0 0
9.28 0 0
9.36 0 0
9.44 0 0
9.52 0 0
9.6 0 0
9.68 0 0
9.76 0 0
9.84 0 0
9.92 0 0
10 0 0
10.08 0 0
10.16 0 0
10.24 0 0
10.32 0 0
10.4 0 0
10.48 0 0
10.56 0 0
10.64 0 0
10.72 0 0
10.8 0 0
10.88 0 0
10.96 0 0
11.04 0 0
11.12 0 0
11.2 0 0
11.28 0 0
11.36 0 0
11.44 0 0
11.52 0 0
11.6 0 0
11.68 0 0
11.76 0 0
11.84 0 0
11.92 0 0
12 0 0
12.08 0 0
12.16 0 0
12.24 0 0
12.32 0 0
12.4 0 0
12.48 0 0
12.56 0 0
12.64 0 0
12.72 0 0
12.8 0 0
12.88 0 0
12.96 0 0
13.04 0 0
13.12 0 0
13.2 0 0
13.28 0 0
13.36 0 0
13.44 0 0
13.52 0 0
13.6 0 0
13.68 0 0
13.76 0 0
13.84 0 0
13.92 0 0
14 0 0
14.08 0 0
14.16 0 0
14.24 0 0
14.32 0 0
14.4 0 0
14.48 0 0
14.56 0 0
14.64 0 0
14.72 0 0
14.8 0 0
14.88 0 0
14.96 0 0
15.04 0 0
15.12 0 0
15.2 0 0
15.28 0 0
15.36 0 0
15.44 0 0
15.52 0 0
15.6 0 0
15.68 0 0
15.76 0 0
15.84 0 0
15.92 0 0
16 0 0
16.08 0 0
16.16 0 0
16.24 0 0
16.32 0 0
16.4 0 0
16.48 0 0
16.56 0 0
16.64 0 0
16.72 0 0
16.8 0 0
16.88 0 0
16.96 0 0
17.04 0 0
17.12 0 0
17.2 0 0
17.28 0 0
17.36 0 0
17.44 0 0
17.52 0 0
17.6 0 0
17.68 0 0
17.76 0 0
17.84 0 0
17.92 0 0
18 0 0
18.08 0 0
18.16 0 0
18.24 0 0
18.32 0 0
18.4 0 0
18.48 0 0
18.56 0 0
18.64 0 0
18.72 0 0
18.8 0 0
18.88 0 0
18.96 0 0
19.04 0 0
19.12 0 0
19.2 0 0
19.28 0 0
19.36 0 0
19.44 0 0
19.52 0 0
19.6 0 0
19.68 0 0
19.76 0 0
19.84 0 0
19.92 0 0
20 0 0
20.08 0 0
20.16 0 0
20.24 0 0
20.32 0 0
20.4 0 0
20.48 0 0
20.56 0 0
20.64 0 0
20.72 0 0
20.8 0 0
20.88 0 0
20.96 0 0
21.04 0 0
21.12 0 0
21.2 0 0
21.28 0 0
21.36 0 0
21.44 0 0
21.52 0 0
21.6 0 0
21.68 0 0
21.76 0 0
21.84 0 0
21.92 0 0
22 0 0
22.08 0 0
22.16 0 0
22.24 0 0
22.32 0 0
22.4 0 0
22.48 0 0
22.56 0 0
22.64 0 0
22.72 0 0
22.8 0 0
22.88 0 0
22.96 0 0
23.04 0 0
23.12 0 0
23.2 0 0
23.28 0 0
23.36 0 0
23.44 0 0
23.52 0 0
23.6 0 0
23.68 0 0
23.76 0 0
23.84 0 0
23.92 0 0
24 0 0
24.08 0 0
24.16 0 0
24.24 0 0
24.32 0 0
24.4 0 0
24.48 0 0
24.56 0 0
24.64 0 0
24.72 0 0
24.8 0 0
24.88 0 0
24.96 0 0
25.04 0 0
25.12 0 0
25.2 0 0
25.28 0 0
25.36 0 0
25.44 0 0
25.52 0 0
25.6 0 0
25.68 0 0
25.76 0 0
25.84 0 0
25.92 0 0
26 0 0
26.08 0 0
26.16 0 0
26.24 0 0
26.32 0 0
26.4 0 0
26.48 0 0
26.56 0 0
26.64 0 0
26.72 0 0
26.8 0 0
26.88 0 0
26.96 0 0
27.04 0 0
27.12 0 0
27.2 0 0
27.28 0 0
27.36 0 0
27.44 0 0
27.52 0 0
27.6 0 0
27.68 0 0
27.76 0 0
27.84 0 0
27.92 0 0
28 0 0
28.08 0 0
28.16 0 0
28.24 0 0
28.32 0 0
28.4 0 0
28.48 0 0
28.56 0 0
28.64 0 0
28.72 0 0
28.8 0 0
28.88 0 0
28.96 0 0
29.04 0 0
29.12 0 0
29.2 0 0
29.28 0 0
29.36 0 0
29.44 0 0
29.52 0 0
29.6 0 0
29.68 0 0
29.76 0 0
29.84 0 0
29.92 0 0
30 0 0
30.08 0 0
30.16 0 0
30.24 0 0
30.32 0 0
30.4 0 0
30.48 0 0
30.56 0 0
30.64 0 0
30.72 0 0
30.8 0 0
30.88 0 0
30.96 0 0
31.04 0 0
31.12 0 0
31.2 0 0
31.28 0 0
31.36 0 0
31.44 0 0
31.52 0 0
31.6 0 0
31.68 0 0
31.76 0 0
31.84 0 0
31.92 0 0
0 0.005 0
0.08 0.005 0
0.16 0.005 0
0.24 0.005 0
0.32 0.005 0
0.4 0.005 0
0.48 0.005 0
0.56 0.005 0
0.64 0.005 0
0.72 0.005 0
0.8 0.005 0
0.88 0.005 0
0.96 0.005 0
1.04 0.005 0
1.12 0.005 0
1.2 0.005 0
1.28 0.005 0
1.36 0.005 0
1.44 0.005 0
1.52 0.005 0
1.6 0.005 0
1.68 0.005 0
1.76 0.005 0
1.84 0.005 0
1.92 0.005 0
2 0.005 0
2.08 0.005 0
2.16 0.005 0
2.24 0.005 0
2.32 0.005 0
2.4 0.005 0
2.48 0.005 0
2.56 0.005 0
2.64 0.005 0
2.72 0.005 0
2.8 0.005 0
2.88 0.005 0
2.96 0.005 0
3.04 0.005 0
3.12 0.005 0
3.2 0.005 0
3.28 0.005 0
3.36 0.005 0
3.44 0.005 0
3.52 0.005 0
3.6 0.005 0
3.68 0.005 0
3.76 0.005 0
3.84 0.005 0
3.92 0.005 0
4 0.005 0
4.08 0.005 0
4.16 0.005 0
4.24 0.005 0
4.32 0.005 0
4.4 0.005 0
4.48 0.005 0
4.56 0.005 0
4.64 0.005 0
4.72 0.005 0
4.8 0.005 0
4.88 0.005 0
4.96 0.005 0
5.04 0.005 0
5.12 0.005 0
5.2 0.005 0
5.28 0.005 0
5.36 0.005 0
5.44 0.005 0
5.52 0.005 0
5.6 0.005 0
5.68 0.005 0
5.76 0.005 0
5.84 0.005 0
5.92 0.005 0
6 0.005 0
6.08 0.005 0
6.16 0.005 0
6.24 0.005 0
6.32 0.005 0
6.4 0.005 0
6.48 0.005 0
6.56 0.005 0
6.64 0.005 0
6.72 0.005 0
6.8 0.005 0
6.88 0.005 0
6.96 0.005 0
7.04 0.005 0
7.12 0.005 0
7.2 0.005 0
7.28 0.005 0
7.36 0.005 0
7.44 0.005 0
7.52 0.005 0
7.6 0.005 0
7.68 0.005 0
7.76 0.005 0
7.84 0.005 0
7.92 0.005 0
8 0.005 0
8.08 0.005 0
8.16 0.005 0
8.24 0.005 0
8.32 0.005 0
8.4 0.005 0
8.48 0.005 0
8.56 0.005 0
8.64 0.005 0
8.72 0.005 0
8.8 0.005 0
8.88 0.005 0
8.96 0.005 0
9.04 0.005 0
9.12 0.005 0
9.2 0.005 0
9.28 0.005 0
9.36 0.005 0
9.44 0.005 0
9.52 0.005 0
9.6 0.005 0
9.68 0.005 0
9.76 0.005 0
9.84 0.005 0
9.92 0.005 0
10 0.005 0
10.08 0.005 0
10.16 0.005 0
10.24 0.005 0
10.32 0.005 0
10.4 0.005 0
10.48 0.005 0
10.56 0.005 0
10.64 0.005 0
10.72 0.005 0
10.8 0.005 0
10.88 0.005 0
10.96 0.005 0
11.04 0.005 0
11.12 0.005 0
11.2 0.005 0
11.28 0.005 0
11.36 0.005 0
11.44 0.005 0
11.52 0.005 0
11.6 0.005 0
11.68 0.005 0
11.76 0.005 0
11.84 0.005 0
11.92 0.005 0
12 0.005 0
12.08 0.005 0
12.16 0.005 0
12.24 0.005 0
12.32 0.005 0
12.4 0.005 0
12.48 0.005 0
12.56 0.005 0
12.64 0.005 0
12.72 0.005 0
12.8 0.005 0
12.88 0.005 0
12.96 0.005 0
13.04 0.005 0
13.12 0.005 0
13.2 0.005 0
13.28 0.005 0
13.36 0.005 0
13.44 0.005 0
13.52 0.005 0
13.6 0.005 0
13.68 0.005 0
13.76 0.005 0
13.84 0.005 0
13.92 0.005 0
14 0.005 0
14.08 0.005 0
14.16 0.005 0
14.24 0.005 0
14.32 0.005 0
14.4 0.005 0
14.48 0.005 0
14.56 0.005 0
14.64 0.005 0
14.72 0.005 0
14.8 0.005 0
14.88 0.005 0
14.96 0.005 0
15.04 0.005 0
15.12 0.005 0
15.2 0.005 0
15.28 0.005 0
15.36 0.005 0
15.44 0.005 0
15.52 0.005 0
15.6 0.005 0
15.68 0.005 0
15.76 0.005 0
15.84 0.005 0
15.92 0.005 0
16 0.005 0
16.08 0.005 0
16.16 0.005 0
16.24 0.005 0
16.32 0.005 0
16.4 0.005 0
16.48 0.005 0
16.56 0.005 0
16.64 0.005 0
16.72 0.005 0
16.8 0.005 0
16.88 0.005 0
16.96 0.005 0
17.04 0.005 0
17.12 0.005 0
17.2 0.005 0
17.28 0.005 0
17.36 0.005 0
17.44 0.005 0
17.52 0.005 0
17.6 0.005 0
17.68 0.005 0
17.76 0.005 0
17.84 0.005 0
17.92 0.005 0
18 0.005 0
18.08 0.005 0
18.16 0.005 0
18.24 0.005 0
18.32 0.005 0
18.4 0.005 0
18.48 0.005 0
18.56 0.005 0
18.64 0.005 0
18.72 0.005 0
18.8 0.005 0
18.88 0.005 0
18.96 0.005 0
19.04 0.005 0
19.12 0.005 0
19.2 0.005 0
19.28 0.005 0
19.36 0.005 0
19.44 0.005 0
19.52 0.005 0
19.6 0.005 0
19.68 0.005 0
19.76 0.005 0
19.84 0.005 0
19.92 0.005 0
20 0.005 0
20.08 0.005 0
20.16 0.005 0
20.24 0.005 0
20.32 0.005 0
20.4 0.005 0
20.48 0.005 0
20.56 0.005 0
20.64 0.005 0
20.72 0.005 0
20.8 0.005 0
20.88 0.005 0
20.96 0.005 0
21.04 0.005 0
21.12 0.005 0
21.2 0.005 0
21.28 0.005 0
21.36 0.005 0
21.44 0.005 0
21.52 0.005 0
21.6 0.005 0
21.68 0.005 0
21.76 0.005 0
21.84 0.005 0
21.92 0.005 0
22 0.005 0
22.08 0.005 0
22.16 0.005 0
22.24 0.005 0
22.32 0.005 0
22.4 0.005 0
22.48 0.005 0
22.56 0.005 0
22.64 0.005 0
22.72 0.005 0
22.8 0.005 0
22.88 0.005 0
22.96 0.005 0
23.04 0.005 0
23.12 0.005 0
23.2 0.005 0
23.28 0.005 0
23.36 0.005 0
23.44 0.005 0
23.52 0.005 0
23.6 0.005 0
23.68 0.005 0
23.76 0.005 0
23.84 0.005 0
23.92 0.005 0
24 0.005 0
24.08 0.005 0
24.16 0.005 0
24.24 0.005 0
24.32 0.005 0
24.4 0.005 0
24.48 0.005 0
24.56 0.005 0
24.64 0.005 0
24.72 0.005 0
24.8 0.005 0
24.88 0.005 0
24.96 0.005 0
25.04 0.005 0
25.12 0.005 0
25.2 0.005 0
25.28 0.005 0
25.36 0.005 0
25.44 0.005 0
25.52 0.005 0
25.6 0.005 0
25.68 0.005 0
25.76 0.005 0
25.84 0.005 0
25.92 0.005 0
26 0.005 0
26.08 0.005 0
26.16 0.005 0
26.24 0.005 0
26.32 0.005 0
26.4 0.005 0
26.48 0.005 0
26.56 0.005 0
26.64 0.005 0
26.72 0.005 0
26.8 0.005 0
26.88 0.005 0
26.96 0.005 0
27.04 0.005 0
27.12 0.005 0
27.2 0.005 0
27.28 0.005 0
27.36 0.005 0
27.44 0.005 0
27.52 0.005 0
27.6 0.005 0
27.68 0.005 0
27.76 0.005 0
27.84 0.005 0
27.92 0.005 0
28 0.005 0
28.08 0.005 0
28.16 0.005 0
28.24 0.005 0
28.32 0.005 0
28.4 0.005 0
28.48 0.005 0
28.56 0.005 0
28.64 0.005 0
28.72 0.005 0
28.8 0.005 0
28.88 0.005 0
28.96 0.005 0
29.04 0.005 0
29.12 0.005 0
29.2 0.005 0
29.28 0.005 0
29.36 0.005 0
29.44 0.005 0
29.52 0.005 0
29.6 0.005 0
29.68 0.005 0
29.76 0.005 0
29.84 0.005 0
29.92 0.005 0
30 0.005 0
30.08 0.005 0
30.16 0.005 0
30.24 0.005 0
30.32 0.005 0
30.4 0.005 0
30.48 0.005 0
30.56 0.005 0
30.64 0.005 0
30.72 0.005 0
30.8 0.005 0
30.88 0.005 0
30.96 0.005 0
31.04 0.005 0
31.12 0.005 0
31.2 0.005 0
31.28 0.005 0
31.36 0.005 0
31.44 0.005 0
31.52 0.005 0
31.6 0.005 0
31.68 0.005 0
31.76 0.005 0
31.84 0.005 0
31.92 0.005 0
0 0.01 0
0.08 0.01 0
0.16 0.01 0
0.24 0.01 0
0.32 0.01 0
0.4 0.01 0
0.48 0.01 0
0.56 0.01 0
0.64 0.01 0
0.72 0.01 0
0.8 0.01 0
0.88 0.01 0
0.96 0.01 0
1.04 0.01 0
1.12 0.01 0
1.2 0.01 0
1.28 0.01 0
1.36 0.01 0
1.44 0.01 0
1.52 0.01 0
1.6 0.01 0
1.68 0.01 0
1.76 0.01 0
1.84 0.01 0
1.92 0.01 0
2 0.01 0
2.08 0.01 0
2.16 0.01 0
2.24 0.01 0
2.32 0.01 0
2.4 0.01 0
2.48 0.01 0
2.56 0.01 0
2.64 0.01 0
2.72 0.01 0
2.8 0.01 0
2.88 0.01 0
2.96 0.01 0
3.04 0.01 0
3.12 0.01 0
3.2 0.01 0
3.28 0.01 0
3.36 0.01 0
3.44 0.01 0
3.52 0.01 0
3.6 0.01 0
3.68 0.01 0
3.76 0.01 0
3.84 0.01 0
3.92 0.01 0
4 0.01 0
4.08 0.01 0
4.16 0.01 0
4.24 0.01 0
4.32 0.01 0
4.4 0.01 0
4.48 0.01 0
4.56 0.01 0
4.64 0.01 0
4.72 0.01 0
4.8 0.01 0
4.88 0.01 0
4.96 0.01 0
5.04 0.01 0
5.12 0.01 0
[...]
POINT_DATA 80000

SCALARS v float 1
LOOKUP_TABLE default
0
0
0
0
0
0
0
0
0
0
0
0
0
0
0
0
0
0
0
0
0
0
0
0
0
0
0
0
0
0
0
0
0
0
0
0
0
0
0
0
0
0
0
0
0
0
0
0
0
0
0
0
0
0
0
0
0
0
0
0
0
0
0
0
0
0
0
0
0
0
0
0
0
0
0
0
0
0
0
0
0
0
0
0
0
0
0
0
0
0
0
0
0
0
0
0
0
0
0
0
0
0
0
0
0
0
0
0
0
0
0
0
0
0
0
0
0
0
0
0
0
0
0
0
0
0
0
0
0
0
0
0
0
0
0
0
0
0
0
0
0
0
0
0
0
0
0
0
0
0
0
0
0
0
0
0
0
0
0
0
0
0
0
0
0
0
0
0
0
0
0
0
0
0
0
0
0
0
0
0
0
0
0
0
0
0
0
0
0
0
0
0
0
0
0
0
0
0
0
0
0
0
0
0
0
0
0
0
0
0
0
0
0
0
0
0
0
0
0
0
0
0
0
0
0
0
0
0
0
0
0
0
0
0
0
0
0
0
0
0
0
0
0
0
0
0
0
0
0
0
0
0
0
0
0
0
0
0
0
0
0
0
0
0
0
0
0
0
0
0
0
0
0
0
0
0
0
0
0
0
0
0
0
0
0
0
0
0
0
0
0
0
0
0
0
0
0
0
0
0
0
0
0
0
0
0
0
0
0
0
0
0
0
0
0
0
0
0
0
0
0
0
0
0
0
0
0
0
0
0
0
0
0
0
0
0
0
0
0
0
0
0
0
0
0
0
0
0
0
0
0
0
0
0
0
0
0
0
0
0
0
0
0
0
0
0
0
0
0
0
0
0
0
0
0
0
0
0
0
0
0
0
0
0
0
0
0
0
0
0
0
0
0
0
0
0
0
0
0
0
-0.0542714
0.0542714
0.00396241
0.000998646
0.000492579
0.000303016
0.00020764
0.000152012
0.000116571
9.26149e-05
7.57017e-05
6.33407e-05
5.40399e-05
4.68615e-05
4.11937e-05
3.66253e-05
3.28751e-05
2.97478e-05
2.71043e-05
2.48411e-05
2.2879e-05
2.11593e-05
1.96415e-05
1.82968e-05
1.71e-05
1.60243e-05
1.50447e-05
1.41446e-05
1.33182e-05
1.25648e-05
1.18786e-05
1.12444e-05
1.06429e-05
1.0061e-05
9.49821e-06
8.96178e-06
8.45487e-06
7.96642e-06
7.47226e-06
6.9479e-06
6.38469e-06
5.79864e-06
5.22541e-06
4.70432e-06
4.26044e-06
3.89473e-06
3.58673e-06
3.30707e-06
3.03247e-06
2.75549e-06
2.48531e-06
2.24061e-06
2.03908e-06
1.88887e-06
1.78514e-06
1.71233e-06
1.64995e-06
1.57916e-06
1.48755e-06
1.37115e-06
1.23367e-06
1.08401e-06
9.33131e-07
7.91259e-07
6.6606e-07
5.61828e-07
4.79616e-07
4.17955e-07
3.73807e-07
3.43488e-07
3.23373e-07
3.10331e-07
3.01917e-07
2.96375e-07
2.92534e-07
2.89672e-07
2.87375e-07
2.85418e-07
2.83686e-07
2.82117e-07
2.80679e-07
2.79345e-07
2.78094e-07
2.76908e-07
2.75769e-07
2.74663e-07
2.73579e-07
2.72509e-07
2.71447e-07
2.70389e-07
2.69332e-07
2.68276e-07
2.67219e-07
2.66162e-07
2.65104e-07
2.64045e-07
2.62985e-07
2.61925e-07
2.60863e-07
2.59801e-07
2.58737e-07
2.57673e-07
2.56607e-07
2.5554e-07
2.54471e-07
2.53401e-07
2.5233e-07
2.51257e-07
2.50183e-07
2.49108e-07
2.4803e-07
2.46952e-07
2.45871e-07
2.44789e-07
2.43706e-07
2.42621e-07
2.41534e-07
2.40446e-07
2.39356e-07
2.38265e-07
2.37171e-07
2.36077e-07
2.3498e-07
2.33882e-07
2.32782e-07
2.3168e-07
2.30576e-07
2.29471e-07
2.28364e-07
2.27254e-07
2.26143e-07
2.2503e-07
2.23915e-07
2.22798e-07
2.21678e-07
2.20557e-07
2.19434e-07
2.18308e-07
2.1718e-07
2.1605e-07
2.14917e-07
2.13783e-07
2.12645e-07
2.11506e-07
2.10364e-07
2.09219e-07
2.08072e-07
2.06923e-07
2.05771e-07
2.04616e-07
2.03459e-07
2.02298e-07
2.01136e-07
1.9997e-07
1.98801e-07
1.9763e-07
1.96456e-07
1.95279e-07
1.94099e-07
1.92916e-07
1.91729e-07
1.9054e-07
1.89348e-07
1.88153e-07
1.86954e-07
1.85752e-07
1.84547e-07
1.83339e-07
1.82127e-07
1.80912e-07
1.79694e-07
1.78472e-07
1.77247e-07
1.76019e-07
1.74787e-07
1.73552e-07
1.72313e-07
1.71071e-07
1.69825e-07
1.68576e-07
1.67323e-07
1.66066e-07
1.64806e-07
1.63543e-07
1.62276e-07
1.61005e-07
1.59731e-07
1.58454e-07
1.57173e-07
1.55888e-07
1.546e-07
1.53308e-07
1.52013e-07
1.50715e-07
1.49413e-07
1.48108e-07
1.468e-07
1.45488e-07
1.44173e-07
1.42856e-07
1.41534e-07
1.4021e-07
1.38883e-07
1.37553e-07
1.36221e-07
1.34885e-07
1.33547e-07
1.32207e-07
1.30863e-07
1.29518e-07
1.2817e-07
1.2682e-07
1.25469e-07
1.24115e-07
1.22759e-07
1.21402e-07
1.20044e-07
1.18684e-07
1.17323e-07
1.1596e-07
1.14597e-07
1.13234e-07
1.11869e-07
1.10505e-07
1.0914e-07
1.07775e-07
1.06411e-07
1.05046e-07
1.03683e-07
1.0232e-07
1.00959e-07
9.95982e-08
9.82393e-08
9.68822e-08
9.5527e-08
9.41741e-08
9.28236e-08
9.14757e-08
9.01309e-08
8.87892e-08
8.7451e-08
8.61166e-08
8.47861e-08
8.34599e-08
8.21382e-08
8.08213e-08
7.95095e-08
7.8203e-08
7.69022e-08
7.56073e-08
7.43185e-08
7.30363e-08
7.17608e-08
7.04923e-08
6.92312e-08
6.79776e-08
6.67319e-08
6.54944e-08
6.42653e-08
6.30449e-08
6.18335e-08
6.06313e-08
5.94385e-08
5.82556e-08
5.70827e-08
5.592e-08
5.47679e-08
5.36265e-08
5.24961e-08
5.13769e-08
5.02692e-08
4.91731e-08
4.8089e-08
4.70169e-08
4.59571e-08
4.49097e-08
4.3875e-08
4.28532e-08
4.18443e-08
4.08486e-08
3.98661e-08
3.88971e-08
3.79415e-08
3.69997e-08
3.60716e-08
3.51573e-08
3.4257e-08
3.33707e-08
3.24984e-08
3.16402e-08
3.07962e-08
2.99663e-08
2.91507e-08
2.83491e-08
2.75618e-08
2.67886e-08
2.60295e-08
2.52844e-08
2.45534e-08
2.38362e-08
2.31329e-08
2.24433e-08
2.17673e-08
2.11048e-08
2.04557e-08
1.98198e-08
1.9197e-08
1.8587e-08
1.79897e-08
1.7405e-08
1.68325e-08
1.62722e-08
1.57237e-08
1.51868e-08
1.46614e-08
1.4147e-08
1.36435e-08
1.31506e-08
1.2668e-08
1.21954e-08
1.17325e-08
1.1279e-08
1.08347e-08
1.0399e-08
9.97186e-09
9.55278e-09
9.14145e-09
8.73756e-09
8.34072e-09
7.95061e-09
7.56684e-09
7.18907e-09
6.81691e-09
6.45001e-09
6.08801e-09
5.7305e-09
5.37717e-09
5.02752e-09
4.68144e-09
4.33803e-09
3.99788e-09
3.65891e-09
3.32373e-09
2.98683e-09
2.65648e-09
2.31822e-09
1.99412e-09
1.649e-09
1.33513e-09
9.74688e-10
6.78483e-10
2.90762e-10
2.30066e-11
-4.06753e-10
-6.33199e-10
-1.12056e-09
-1.29331e-09
-1.85191e-09
-1.96161e-09
-2.60081e-09
-2.64316e-09
-3.3668e-09
-3.34254e-09
-4.15069e-09
-4.06123e-09
-4.95768e-09
-4.79492e-09
-5.79869e-09
-5.53419e-09
-6.68782e-09
-6.26764e-09
-7.64005e-09
-6.98253e-09
-8.67153e-09
-7.6658e-09
-9.79561e-09
-8.31085e-09
-1.1016e-08
-8.9226e-09
-1.23243e-08
-9.52144e-09
-1.36946e-08
-1.01531e-08
-1.50774e-08
-1.09029e-08
-1.63798e-08
-1.19545e-08
-1.73997e-08
-1.37112e-08
-1.77052e-08
-1.7075e-08
-1.62328e-08
-2.42042e-08
-9.88731e-09
-4.0272e-08
1.43515e-08
-7.76136e-08
1.88449e-07
-2.08704e-08
-2.08704e-08
-0.0952162
0.0952162
0.012976
0.003855
0.0019347
0.0011966
0.000822139
0.000602715
0.000462469
0.000367444
0.000300233
0.000251046
0.000214002
0.000185394
0.0001628
0.000144589
0.000129643
0.000117185
0.000106657
9.76469e-05
8.98383e-05
8.29994e-05
7.69678e-05
7.16257e-05
6.68689e-05
6.25908e-05
5.86952e-05
5.51192e-05
5.18397e-05
4.8848e-05
4.6116e-05
4.35825e-05
4.11754e-05
3.88492e-05
3.66032e-05
3.44611e-05
3.24265e-05
3.04508e-05
2.84427e-05
2.63181e-05
2.40579e-05
2.17339e-05
1.94847e-05
1.74539e-05
1.57257e-05
1.4294e-05
1.3077e-05
1.1966e-05
1.08797e-05
9.7965e-06
8.7541e-06
7.82056e-06
7.05601e-06
6.48298e-06
6.07661e-06
5.7751e-06
5.50214e-06
5.19062e-06
4.79922e-06
4.31817e-06
3.76534e-06
3.17621e-06
2.5922e-06
2.05062e-06
1.57831e-06
1.18924e-06
8.85408e-07
6.59767e-07
4.99907e-07
3.9145e-07
3.20585e-07
2.75581e-07
2.47385e-07
2.29557e-07
2.17857e-07
2.09682e-07
2.03547e-07
1.98655e-07
1.94595e-07
1.91152e-07
1.88197e-07
1.85636e-07
1.83389e-07
1.81384e-07
1.79556e-07
1.77854e-07
1.76235e-07
1.74668e-07
1.73133e-07
1.71615e-07
1.70106e-07
1.68601e-07
1.67098e-07
1.65596e-07
1.64093e-07
1.62591e-07
1.61088e-07
1.59585e-07
1.58082e-07
1.56579e-07
1.55075e-07
1.53569e-07
1.52063e-07
1.50555e-07
1.49045e-07
1.47533e-07
1.46019e-07
1.44503e-07
1.42984e-07
1.41464e-07
1.39941e-07
1.38417e-07
1.3689e-07
1.35361e-07
1.3383e-07
1.32296e-07
1.30761e-07
1.29224e-07
1.27685e-07
1.26143e-07
1.246e-07
1.23054e-07
1.21507e-07
1.19957e-07
1.18406e-07
1.16852e-07
1.15296e-07
1.13738e-07
1.12177e-07
1.10614e-07
1.09049e-07
1.07482e-07
1.05912e-07
1.04339e-07
1.02764e-07
1.01187e-07
9.96066e-08
9.80238e-08
9.64382e-08
9.48499e-08
9.32587e-08
9.16647e-08
9.00678e-08
8.84679e-08
8.6865e-08
8.52591e-08
8.36501e-08
8.20379e-08
8.04226e-08
7.88041e-08
7.71823e-08
7.55572e-08
7.39288e-08
7.22969e-08
7.06617e-08
6.9023e-08
6.73807e-08
6.57349e-08
6.40856e-08
6.24326e-08
6.07759e-08
5.91156e-08
5.74515e-08
5.57836e-08
5.41119e-08
5.24364e-08
5.07571e-08
4.90738e-08
4.73867e-08
4.56956e-08
4.40005e-08
4.23014e-08
4.05983e-08
3.88912e-08
3.71801e-08
3.54649e-08
3.37456e-08
3.20223e-08
3.02948e-08
2.85633e-08
2.68277e-08
2.5088e-08
2.33442e-08
2.15964e-08
1.98445e-08
1.80885e-08
1.63285e-08
1.45646e-08
1.27966e-08
1.10248e-08
9.24898e-09
7.46933e-09
5.68585e-09
3.89863e-09
2.10766e-09
3.13046e-10
-1.48519e-09
-3.28692e-09
-5.09214e-09
-6.90071e-09
-8.71259e-09
-1.05277e-08
-1.23459e-08
-1.41671e-08
-1.59912e-08
-1.7818e-08
-1.96476e-08
-2.14797e-08
-2.33143e-08
-2.5151e-08
-2.699e-08
-2.88309e-08
-3.06737e-08
-3.25181e-08
-3.43641e-08
-3.62113e-08
-3.80597e-08
-3.99091e-08
-4.17593e-08
-4.361e-08
-4.5461e-08
-4.73122e-08
-4.91634e-08
-5.10142e-08
-5.28646e-08
-5.47141e-08
-5.65627e-08
-5.841e-08
-6.02558e-08
-6.20998e-08
-6.39418e-08
-6.57814e-08
-6.76186e-08
-6.94528e-08
-7.12839e-08
-7.31115e-08
-7.49354e-08
-7.67553e-08
-7.85708e-08
-8.03817e-08
-8.21876e-08
-8.39883e-08
-8.57834e-08
-8.75726e-08
-8.93555e-08
-9.1132e-08
-9.29015e-08
-9.46639e-08
-9.64187e-08
-9.81657e-08
-9.99045e-08
-1.01635e-07
-1.03356e-07
-1.05069e-07
-1.06772e-07
-1.08465e-07
-1.10148e-07
-1.1182e-07
-1.13482e-07
-1.15133e-07
-1.16772e-07
-1.184e-07
-1.20016e-07
-1.21619e-07
-1.2321e-07
-1.24788e-07
-1.26354e-07
-1.27905e-07
-1.29444e-07
-1.30968e-07
-1.32478e-07
-1.33974e-07
-1.35455e-07
-1.36922e-07
-1.38374e-07
-1.3981e-07
-1.41231e-07
-1.42637e-07
-1.44027e-07
-1.45401e-07
-1.46759e-07
-1.48101e-07
-1.49426e-07
-1.50736e-07
-1.52029e-07
-1.53305e-07
-1.54565e-07
-1.55808e-07
-1.57035e-07
-1.58245e-07
-1.59438e-07
-1.60615e-07
-1.61775e-07
-1.62918e-07
-1.64045e-07
-1.65155e-07
-1.66249e-07
-1.67326e-07
-1.68388e-07
-1.69433e-07
-1.70462e-07
-1.71476e-07
-1.72473e-07
-1.73456e-07
-1.74423e-07
-1.75375e-07
-1.76312e-07
-1.77234e-07
-1.78142e-07
-1.79036e-07
-1.79917e-07
-1.80783e-07
-1.81636e-07
-1.82477e-07
-1.83304e-07
-1.8412e-07
-1.84923e-07
-1.85715e-07
-1.86496e-07
-1.87265e-07
-1.88024e-07
-1.88773e-07
-1.89512e-07
-1.90242e-07
-1.90963e-07
-1.91675e-07
-1.9238e-07
-1.93076e-07
-1.93766e-07
-1.94448e-07
-1.95124e-07
-1.95795e-07
-1.96459e-07
-1.97119e-07
-1.97774e-07
-1.98425e-07
-1.99072e-07
-1.99716e-07
-2.00357e-07
-2.00996e-07
-2.01632e-07
-2.0227e-07
-2.029e-07
-2.03541e-07
-2.04163e-07
-2.04816e-07
-2.0542e-07
-2.06102e-07
-2.06671e-07
-2.0741e-07
-2.07911e-07
-2.08748e-07
-2.09139e-07
-2.10125e-07
-2.10353e-07
-2.11545e-07
-2.1156e-07
-2.13005e-07
-2.12768e-07
-2.14499e-07
-2.13991e-07
-2.16021e-07
-2.15241e-07
-2.17566e-07
-2.16518e-07
-2.19148e-07
-2.17801e-07
-2.20802e-07
-2.19051e-07
-2.22579e-07
-2.20219e-07
-2.24529e-07
-2.21255e-07
-2.2671e-07
-2.22105e-07
-2.29167e-07
-2.2274e-07
-2.31915e-07
-2.23174e-07
-2.3492e-07
-2.23479e-07
-2.38085e-07
-2.23825e-07
-2.41222e-07
-2.24528e-07
-2.43993e-07
-2.26263e-07
-2.45657e-07
-2.30527e-07
-2.44634e-07
-2.4066e-07
-2.37042e-07
-2.64641e-07
-2.1156e-07
-3.21409e-07
-1.20518e-07
-4.53925e-07
5.11658e-07
-2.4461e-07
-2.4461e-07
-0.125293
0.125293
0.0249363
0.00835846
0.00427845
0.00266198
0.0018342
0.00134682
0.00103436
0.000822177
0.000671859
0.000561719
0.000478699
0.000414552
0.000363876
0.000323028
0.000289509
0.000261576
0.000237977
0.000217782
0.000200288
0.000184974
0.000171475
0.000159521
0.000148873
0.000139293
0.000130571
0.000122572
0.00011524
0.000108548
0.000102425
9.67338e-05
9.13223e-05
8.60974e-05
8.10585e-05
7.6249e-05
7.16637e-05
6.71885e-05
6.2629e-05
5.78191e-05
5.27383e-05
4.75576e-05
4.25794e-05
3.81032e-05
3.42944e-05
3.11255e-05
2.84154e-05
2.5935e-05
2.35194e-05
2.11316e-05
1.88551e-05
1.68305e-05
1.51759e-05
1.39269e-05
1.30208e-05
1.23212e-05
1.1667e-05
1.09212e-05
1.00038e-05
8.90205e-06
7.65977e-06
6.35561e-06
5.07806e-06
3.90478e-06
2.8899e-06
2.05981e-06
1.41568e-06
9.40129e-07
6.05098e-07
3.7905e-07
2.32199e-07
1.39528e-07
8.18967e-08
4.57989e-08
2.23917e-08
6.28784e-09
-5.57576e-09
-1.48364e-08
-2.23373e-08
-2.85245e-08
-3.36677e-08
-3.79679e-08
-4.15985e-08
-4.47152e-08
-4.7454e-08
-4.99277e-08
-5.22244e-08
-5.44086e-08
-5.65255e-08
-5.8604e-08
-6.0662e-08
-6.27095e-08
-6.47517e-08
-6.67907e-08
-6.88276e-08
-7.08626e-08
-7.28959e-08
-7.49276e-08
-7.69584e-08
-7.89887e-08
-8.1019e-08
-8.305e-08
-8.50823e-08
-8.71164e-08
-8.91526e-08
-9.11913e-08
-9.32327e-08
-9.5277e-08
-9.73242e-08
-9.93744e-08
-1.01427e-07
-1.03483e-07
-1.05542e-07
-1.07603e-07
-1.09667e-07
-1.11734e-07
-1.13803e-07
-1.15874e-07
-1.17947e-07
-1.20023e-07
-1.22101e-07
-1.24182e-07
-1.26264e-07
-1.28349e-07
-1.30437e-07
-1.32526e-07
-1.34618e-07
-1.36712e-07
-1.38809e-07
-1.40909e-07
-1.43011e-07
-1.45115e-07
-1.47222e-07
-1.49332e-07
-1.51445e-07
-1.53561e-07
-1.5568e-07
-1.57801e-07
-1.59926e-07
-1.62054e-07
-1.64185e-07
-1.66319e-07
-1.68457e-07
-1.70598e-07
-1.72742e-07
-1.7489e-07
-1.77041e-07
-1.79196e-07
-1.81354e-07
-1.83516e-07
-1.85682e-07
-1.87851e-07
-1.90024e-07
-1.92201e-07
-1.94382e-07
-1.96566e-07
-1.98755e-07
-2.00947e-07
-2.03144e-07
-2.05344e-07
-2.07549e-07
-2.09758e-07
-2.11971e-07
-2.14188e-07
-2.16409e-07
-2.18634e-07
-2.20864e-07
-2.23098e-07
-2.25336e-07
-2.27579e-07
-2.29826e-07
-2.32077e-07
-2.34332e-07
-2.36592e-07
-2.38856e-07
-2.41125e-07
-2.43398e-07
-2.45676e-07
-2.47957e-07
-2.50243e-07
-2.52534e-07
-2.54829e-07
-2.57128e-07
-2.59431e-07
-2.61739e-07
-2.64051e-07
-2.66367e-07
-2.68687e-07
-2.71011e-07
-2.73339e-07
-2.75672e-07
-2.78008e-07
-2.80348e-07
-2.82692e-07
-2.8504e-07
-2.87391e-07
-2.89746e-07
-2.92105e-07
-2.94466e-07
-2.96831e-07
-2.992e-07
-3.01571e-07
-3.03945e-07
-3.06322e-07
-3.08702e-07
-3.11084e-07
-3.13468e-07
-3.15855e-07
-3.18244e-07
-3.20635e-07
-3.23027e-07
-3.25421e-07
-3.27816e-07
-3.30213e-07
-3.32611e-07
-3.35009e-07
-3.37408e-07
-3.39807e-07
-3.42206e-07
-3.44605e-07
-3.47004e-07
-3.49402e-07
-3.51799e-07
-3.54195e-07
-3.5659e-07
-3.58983e-07
-3.61374e-07
-3.63763e-07
-3.66149e-07
-3.68533e-07
-3.70913e-07
-3.7329e-07
-3.75663e-07
-3.78033e-07
-3.80397e-07
-3.82758e-07
-3.85113e-07
-3.87463e-07
-3.89807e-07
-3.92145e-07
-3.94477e-07
-3.96802e-07
-3.9912e-07
-4.01431e-07
-4.03734e-07
-4.06028e-07
-4.08315e-07
-4.10592e-07
-4.12861e-07
-4.1512e-07
-4.17369e-07
-4.19608e-07
-4.21836e-07
-4.24054e-07
-4.2626e-07
-4.28454e-07
-4.30637e-07
-4.32808e-07
-4.34966e-07
-4.37111e-07
-4.39243e-07
-4.41361e-07
-4.43466e-07
-4.45556e-07
-4.47632e-07
-4.49694e-07
-4.5174e-07
-4.53771e-07
-4.55787e-07
-4.57787e-07
-4.59771e-07
-4.61739e-07
-4.63691e-07
-4.65626e-07
-4.67544e-07
-4.69445e-07
-4.71329e-07
-4.73195e-07
-4.75044e-07
-4.76876e-07
-4.78689e-07
-4.80485e-07
-4.82263e-07
-4.84023e-07
-4.85765e-07
-4.87489e-07
-4.89195e-07
-4.90882e-07
-4.92552e-07
-4.94203e-07
-4.95836e-07
-4.97451e-07
-4.99048e-07
-5.00627e-07
-5.02189e-07
-5.03732e-07
-5.05258e-07
-5.06767e-07
-5.08258e-07
-5.09732e-07
-5.11189e-07
-5.12629e-07
-5.14053e-07
-5.1546e-07
-5.16851e-07
-5.18227e-07
-5.19587e-07
-5.20931e-07
-5.22261e-07
-5.23576e-07
-5.24877e-07
-5.26164e-07
-5.27437e-07
-5.28697e-07
-5.29944e-07
-5.31179e-07
-5.32401e-07
-5.33612e-07
-5.34812e-07
-5.36e-07
-5.37179e-07
-5.38347e-07
-5.39506e-07
-5.40656e-07
-5.41797e-07
-5.42931e-07
-5.44056e-07
-5.45175e-07
-5.46287e-07
-5.47393e-07
-5.48493e-07
-5.49588e-07
-5.50678e-07
-5.51764e-07
-5.52847e-07
-5.53926e-07
-5.55003e-07
-5.56078e-07
-5.5715e-07
-5.58223e-07
-5.59291e-07
-5.60368e-07
-5.6143e-07
-5.62517e-07
-5.63566e-07
-5.64682e-07
-5.65695e-07
-5.66873e-07
-5.67811e-07
-5.69108e-07
-5.69903e-07
-5.71406e-07
-5.71961e-07
-5.7378e-07
-5.73982e-07
-5.76234e-07
-5.75974e-07
-5.78763e-07
-5.77955e-07
-5.81348e-07
-5.79949e-07
-5.83972e-07
-5.81979e-07
-5.86624e-07
-5.84045e-07
-5.89329e-07
-5.86101e-07
-5.92162e-07
-5.88059e-07
-5.95226e-07
-5.89812e-07
-5.98632e-07
-5.91249e-07
-6.02496e-07
-5.92258e-07
-6.06919e-07
-5.9277e-07
-6.11931e-07
-5.9281e-07
-6.17463e-07
-5.92534e-07
-6.23302e-07
-5.923e-07
-6.29058e-07
-5.92778e-07
-6.34011e-07
-5.95401e-07
-6.36613e-07
-6.03342e-07
-6.33543e-07
-6.23692e-07
-6.16658e-07
-6.73341e-07
-5.62198e-07
-7.92113e-07
-3.70162e-07
-1.06723e-06
9.40226e-07
-6.27147e-07
-6.27147e-07
-0.146488
0.146488
0.0383109
0.0142345
0.00745652
0.00467326
0.00323106
0.00237705
0.0018276
0.00145359
0.00118815
0.000993408
0.000846481
0.000732885
0.000643112
0.000570742
0.000511362
0.000461885
0.000420092
0.000384336
0.000353369
0.000326274
0.0003024
0.000281262
0.000262428
0.000245479
0.000230051
0.000215911
0.000202956
0.000191125
0.000180282
0.000170187
0.000160581
0.000151316
0.000142387
0.000133857
0.000125699
0.000117703
0.000109545
0.000100964
9.19555e-05
8.28341e-05
7.41194e-05
6.63077e-05
5.96577e-05
5.41036e-05
4.93309e-05
4.49569e-05
4.07154e-05
3.65548e-05
3.26189e-05
2.91375e-05
2.62936e-05
2.41293e-05
2.25247e-05
2.12439e-05
2.00177e-05
1.86243e-05
1.69412e-05
1.4958e-05
1.27576e-05
1.04768e-05
8.26525e-06
6.25101e-06
4.52089e-06
3.11432e-06
2.02868e-06
1.23101e-06
6.7152e-07
2.9556e-07
5.2234e-08
-1.00787e-07
-1.9565e-07
-2.54891e-07
-2.93184e-07
-3.1942e-07
-3.38633e-07
-3.53505e-07
-3.65418e-07
-3.75109e-07
-3.8303e-07
-3.89521e-07
-3.94878e-07
-3.99368e-07
-4.03221e-07
-4.06627e-07
-4.09735e-07
-4.12654e-07
-4.15458e-07
-4.18196e-07
-4.20897e-07
-4.23579e-07
-4.2625e-07
-4.28914e-07
-4.31572e-07
-4.34225e-07
-4.36874e-07
-4.39519e-07
-4.42161e-07
-4.448e-07
-4.47438e-07
-4.50077e-07
-4.52716e-07
-4.55357e-07
-4.58001e-07
-4.60647e-07
-4.63297e-07
-4.65951e-07
-4.68609e-07
-4.7127e-07
-4.73935e-07
-4.76603e-07
-4.79275e-07
-4.81949e-07
-4.84627e-07
-4.87308e-07
-4.89992e-07
-4.92678e-07
-4.95366e-07
-4.98057e-07
-5.00751e-07
-5.03446e-07
-5.06144e-07
-5.08844e-07
-5.11547e-07
-5.14252e-07
-5.16959e-07
-5.19668e-07
-5.22381e-07
-5.25095e-07
-5.27813e-07
-5.30533e-07
-5.33255e-07
-5.35981e-07
-5.3871e-07
-5.41441e-07
-5.44176e-07
-5.46914e-07
-5.49655e-07
-5.524e-07
-5.55147e-07
-5.57899e-07
-5.60653e-07
-5.63412e-07
-5.66173e-07
-5.68939e-07
-5.71708e-07
-5.74481e-07
-5.77258e-07
-5.80039e-07
-5.82824e-07
-5.85612e-07
-5.88405e-07
-5.91201e-07
-5.94002e-07
-5.96807e-07
-5.99616e-07
-6.02429e-07
-6.05246e-07
-6.08068e-07
-6.10894e-07
-6.13724e-07
-6.16559e-07
-6.19398e-07
-6.22241e-07
-6.25089e-07
-6.27941e-07
-6.30798e-07
-6.33659e-07
-6.36524e-07
-6.39394e-07
-6.42269e-07
-6.45148e-07
-6.48031e-07
-6.50919e-07
-6.53811e-07
-6.56708e-07
-6.5961e-07
-6.62515e-07
-6.65425e-07
-6.6834e-07
-6.71259e-07
-6.74182e-07
-6.77109e-07
-6.80041e-07
-6.82977e-07
-6.85917e-07
-6.88861e-07
-6.91809e-07
-6.94761e-07
-6.97717e-07
-7.00677e-07
-7.03641e-07
-7.06608e-07
-7.09579e-07
-7.12553e-07
-7.1553e-07
-7.18511e-07
-7.21495e-07
-7.24482e-07
-7.27471e-07
-7.30464e-07
-7.33459e-07
-7.36456e-07
-7.39456e-07
-7.42458e-07
-7.45461e-07
-7.48467e-07
-7.51474e-07
-7.54482e-07
-7.57492e-07
-7.60503e-07
-7.63514e-07
-7.66526e-07
-7.69539e-07
-7.72551e-07
-7.75564e-07
-7.78576e-07
-7.81587e-07
-7.84598e-07
-7.87608e-07
-7.90616e-07
-7.93622e-07
-7.96627e-07
-7.99629e-07
-8.02629e-07
-8.05626e-07
-8.08619e-07
-8.1161e-07
-8.14596e-07
-8.17579e-07
-8.20557e-07
-8.23531e-07
-8.26499e-07
-8.29462e-07
-8.32419e-07
-8.35371e-07
-8.38315e-07
-8.41253e-07
-8.44184e-07
-8.47108e-07
-8.50023e-07
-8.52931e-07
-8.5583e-07
-8.5872e-07
-8.616e-07
-8.64471e-07
-8.67332e-07
-8.70183e-07
-8.73023e-07
-8.75852e-07
-8.78669e-07
-8.81475e-07
-8.84268e-07
-8.87049e-07
-8.89817e-07
-8.92572e-07
-8.95314e-07
-8.98042e-07
-9.00756e-07
-9.03455e-07
-9.06139e-07
-9.08809e-07
-9.11463e-07
-9.14102e-07
-9.16724e-07
-9.19331e-07
-9.21921e-07
-9.24495e-07
-9.27051e-07
-9.29591e-07
-9.32113e-07
-9.34618e-07
-9.37105e-07
-9.39574e-07
-9.42025e-07
-9.44458e-07
-9.46873e-07
-9.4927e-07
-9.51647e-07
-9.54007e-07
-9.56347e-07
-9.58669e-07
-9.60972e-07
-9.63256e-07
-9.65521e-07
-9.67767e-07
-9.69995e-07
-9.72203e-07
-9.74393e-07
-9.76565e-07
-9.78717e-07
-9.80851e-07
-9.82967e-07
-9.85065e-07
-9.87144e-07
-9.89205e-07
-9.91249e-07
-9.93275e-07
-9.95284e-07
-9.97275e-07
-9.9925e-07
-1.00121e-06
-1.00315e-06
-1.00508e-06
-1.00699e-06
-1.00888e-06
-1.01076e-06
-1.01262e-06
-1.01447e-06
-1.01631e-06
-1.01813e-06
-1.01994e-06
-1.02174e-06
-1.02352e-06
-1.02529e-06
-1.02705e-06
-1.0288e-06
-1.03054e-06
-1.03227e-06
-1.03399e-06
-1.0357e-06
-1.0374e-06
-1.03909e-06
-1.04078e-06
-1.04246e-06
-1.04413e-06
-1.04579e-06
-1.04745e-06
-1.04911e-06
-1.05076e-06
-1.05241e-06
-1.05405e-06
-1.05569e-06
-1.05733e-06
-1.05896e-06
-1.0606e-06
-1.06223e-06
-1.06386e-06
-1.0655e-06
-1.06713e-06
-1.06878e-06
-1.0704e-06