# vtk DataFile Version 2.0
FlowField
ASCII
DATASET STRUCTURED_GRID
DIMENSIONS 400 1 200
POINTS 80000 float
0 0 0
0.08 0 0
0.16 0 0
0.24 0 0
0.32 0 0
0.4 0 0
0.48 0 0
0.56 0 0
0.64 0 0
0.72 0 0
0.8 0 0
0.88 0 0
0.96 0 0
1.04 0 0
1.12 0 0
1.2 0 0
1.28 0 0
1.36 0 0
1.44 0 0
1.52 0 0
1.6 0 0
1.68 0 0
1.76 0 0
1.84 0 0
1.92 0 0
2 0 0
2.08 0 0
2.16 0 0
2.24 0 0
2.32 0 0
2.4 0 0
2.48 0 0
2.56 0 0
2.64 0 0
2.72 0 0
2.8 0 0
2.88 0 0
2.96 0 0
3.04 0 0
3.12 0 0
3.2 0 0
3.28 0 0
3.36 0 0
3.44 0 0
3.52 0 0
3.6 0 0
3.68 0 0
3.76 0 0
3.84 0 0
3.92 0 0
4 0 0
4.08 0 0
4.16 0 0
4.24 0 0
4.32 0 0
4.4 0 0
4.48 0 0
4.56 0 0
4.64 0 0
4.72 0 0
4.8 0 0
4.88 0 0
4.96 0 0
5.04 0 0
5.12 0 0
5.2 0 0
5.28 0 0
5.36 0 0
5.44 0 0
5.52 0 0
5.6 0 0
5.68 0 0
5.76 0 0
5.84 0 0
5.92 0 0
6 0 0
6.08 0 0
6.16 0 0
6.24 0 0
6.32 0 0
6.4 0 0
6.48 0 0
6.56 0 0
6.64 0 0
6.72 0 0
6.8 0 0
6.88 0 0
6.96 0 0
7.04 0 0
7.12 0 0
7.2 0 0
7.28 0 0
7.36 0 0
7.44 0 0
7.52 0 0
7.6 0 0
7.68 0 0
7.76 0 0
7.84 0 0
7.92 0 0
8 0 0
8.08 0 0
8.16 0 0
8.24 0 0
8.32 0 0
8.4 0 0
8.48 0 0
8.56 0 0
8.64 0 0
8.72 0 0
8.8 0 0
8.88 0 0
8.96 0 0
9.04 0 0
9.12 0 0
9.2 0 0
9.28 0 0
9.36 0 0
9.44 0 0
9.52 0 0
9.6 0 0
9.68 0 0
9.76 0 0
9.84 0 0
9.92 0 0
10 0 0
10.08 0 0
10.16 0 0
10.24 0 0
10.32 0 0
10.4 0 0
10.48 0 0
10.56 0 0
10.64 0 0
10.72 0 0
10.8 0 0
10.88 0 0
10.96 0 0
11.04 0 0
11.12 0 0
11.2 0 0
11.28 0 0
11.36 0 0
11.44 0 0
11.52 0 0
11.6 0 0
11.68 0 0
11.76 0 0
11.84 0 0
11.92 0 0
12 0 0
12.08 0 0
12.16 0 0
12.24 0 0
12.32 0 0
12.4 0 0
12.48 0 0
12.56 0 0
12.64 0 0
12.72 0 0
12.8 0 0
12.88 0 0
12.96 0 0
13.04 0 0
13.12 0 0
13.2 0 0
13.28 0 0
13.36 0 0
13.44 0 0
13.52 0 0
13.6 0 0
13.68 0 0
13.76 0 0
13.84 0 0
13.92 0 0
14 0 0
14.08 0 0
14.16 0 0
14.24 0 0
14.32 0 0
14.4 0 0
14.48 0 0
14.56 0 0
14.64 0 0
14.72 0 0
14.8 0 0
14.88 0 0
14.96 0 0
15.04 0 0
15.12 0 0
15.2 0 0
15.28 0 0
15.36 0 0
15.44 0 0
15.52 0 0
15.6 0 0
15.68 0 0
15.76 0 0
15.84 0 0
15.92 0 0
16 0 0
16.08 0 0
16.16 0 0
16.24 0 0
16.32 0 0
16.4 0 0
16.48 0 0
16.56 0 0
16.64 0 0
16.72 0 0
16.8 0 0
16.88 0 0
16.96 0 0
17.04 0 0
17.12 0 0
17.2 0 0
17.28 0 0
17.36 0 0
17.44 0 0
17.52 0 0
17.6 0 0
17.68 0 0
17.76 0 0
17.84 0 0
17.92 0 0
18 0 0
18.08 0 0
18.16 0 0
18.24 0 0
18.32 0 0
18.4 0 0
18.48 0 0
18.56 0 0
18.64 0 0
18.72 0 0
18.8 0 0
18.88 0 0
18.96 0 0
19.04 0 0
19.12 0 0
19.2 0 0
19.28 0 0
19.36 0 0
19.44 0 0
19.52 0 0
19.6 0 0
19.68 0 0
19.76 0 0
19.84 0 0
19.92 0 0
20 0 0
20.08 0 0
20.16 0 0
20.24 0 0
20.32 0 0
20.4 0 0
20.48 0 0
20.56 0 0
20.64 0 0
20.72 0 0
20.8 0 0
20.88 0 0
20.96 0 0
21.04 0 0
21.12 0 0
21.2 0 0
21.28 0 0
21.36 0 0
21.44 0 0
21.52 0 0
21.6 0 0
21.68 0 0
21.76 0 0
21.84 0 0
21.92 0 0
22 0 0
22.08 0 0
22.16 0 0
22.24 0 0
22.32 0 0
22.4 0 0
22.48 0 0
22.56 0 0
22.64 0 0
22.72 0 0
22.8 0 0
22.88 0 0
22.96 0 0
23.04 0 0
23.12 0 0
23.2 0 0
23.28 0 0
23.36 0 0
23.44 0 0
23.52 0 0
23.6 0 0
23.68 0 0
23.76 0 0
23.84 0 0
23.92 0 0
24 0 0
24.08 0 0
24.16 0 0
24.24 0 0
24.32 0 0
24.4 0 0
24.48 0 0
24.56 0 0
24.64 0 0
24.72 0 0
24.8 0 0
24.88 0 0
24.96 0 0
25.04 0 0
25.12 0 0
25.2 0 0
25.28 0 0
25.36 0 0
25.44 0 0
25.52 0 0
25.6 0 0
25.68 0 0
25.76 0 0
25.84 0 0
25.92 0 0
26 0 0
26.08 0 0
26.16 0 0
26.24 0 0
26.32 0 0
26.4 0 0
26.48 0 0
26.56 0 0
26.64 0 0
26.72 0 0
26.8 0 0
26.88 0 0
26.96 0 0
27.04 0 0
27.12 0 0
27.2 0 0
27.28 0 0
27.36 0 0
27.44 0 0
27.52 0 0
27.6 0 0
27.68 0 0
27.76 0 0
27.84 0 0
27.92 0 0
28 0 0
28.08 0 0
28.16 0 0
28.24 0 0
28.32 0 0
28.4 0 0
28.48 0 0
28.56 0 0
28.64 0 0
28.72 0 0
28.8 0 0
28.88 0 0
28.96 0 0
29.04 0 0
29.12 0 0
29.2 0 0
29.28 0 0
29.36 0 0
29.44 0 0
29.52 0 0
29.6 0 0
29.68 0 0
29.76 0 0
29.84 0 0
29.92 0 0
30 0 0
30.08 0 0
30.16 0 0
30.24 0 0
30.32 0 0
30.4 0 0
30.48 0 0
30.56 0 0
30.64 0 0
30.72 0 0
30.8 0 0
30.88 0 0
30.96 0 0
31.04 0 0
31.12 0 0
31.2 0 0
31.28 0 0
31.36 0 0
31.44 0 0
31.52 0 0
31.6 0 0
31.68 0 0
31.76 0 0
31.84 0 0
31.92 0 0
0 0.005 0
0.08 0.005 0
0.16 0.005 0
0.24 0.005 0
0.32 0.005 0
0.4 0.005 0
0.48 0.005 0
0.56 0.005 0
0.64 0.005 0
0.72 0.005 0
0.8 0.005 0
0.88 0.005 0
0.96 0.005 0
1.04 0.005 0
1.12 0.005 0
1.2 0.005 0
1.28 0.005 0
1.36 0.005 0
1.44 0.005 0
1.52 0.005 0
1.6 0.005 0
1.68 0.005 0
1.76 0.005 0
1.84 0.005 0
1.92 0.005 0
2 0.005 0
2.08 0.005 0
2.16 0.005 0
2.24 0.005 0
2.32 0.005 0
2.4 0.005 0
2.48 0.005 0
2.56 0.005 0
2.64 0.005 0
2.72 0.005 0
2.8 0.005 0
2.88 0.005 0
2.96 0.005 0
3.04 0.005 0
3.12 0.005 0
3.2 0.005 0
3.28 0.005 0
3.36 0.005 0
3.44 0.005 0
3.52 0.005 0
3.6 0.005 0
3.68 0.005 0
3.76 0.005 0
3.84 0.005 0
3.92 0.005 0
4 0.005 0
4.08 0.005 0
4.16 0.005 0
4.24 0.005 0
4.32 0.005 0
4.4 0.005 0
4.48 0.005 0
4.56 0.005 0
4.64 0.005 0
4.72 0.005 0
4.8 0.005 0
4.88 0.005 0
4.96 0.005 0
5.04 0.005 0
5.12 0.005 0
5.2 0.005 0
5.28 0.005 0
5.36 0.005 0
5.44 0.005 0
5.52 0.005 0
5.6 0.005 0
5.68 0.005 0
5.76 0.005 0
5.84 0.005 0
5.92 0.005 0
6 0.005 0
6.08 0.005 0
6.16 0.005 0
6.24 0.005 0
6.32 0.005 0
6.4 0.005 0
6.48 0.005 0
6.56 0.005 0
6.64 0.005 0
6.72 0.005 0
6.8 0.005 0
6.88 0.005 0
6.96 0.005 0
7.04 0.005 0
7.12 0.005 0
7.2 0.005 0
7.28 0.005 0
7.36 0.005 0
7.44 0.005 0
7.52 0.005 0
7.6 0.005 0
7.68 0.005 0
7.76 0.005 0
7.84 0.005 0
7.92 0.005 0
8 0.005 0
8.08 0.005 0
8.16 0.005 0
8.24 0.005 0
8.32 0.005 0
8.4 0.005 0
8.48 0.005 0
8.56 0.005 0
8.64 0.005 0
8.72 0.005 0
8.8 0.005 0
8.88 0.005 0
8.96 0.005 0
9.04 0.005 0
9.12 0.005 0
9.2 0.005 0
9.28 0.005 0
9.36 0.005 0
9.44 0.005 0
9.52 0.005 0
9.6 0.005 0
9.68 0.005 0
9.76 0.005 0
9.84 0.005 0
9.92 0.005 0
10 0.005 0
10.08 0.005 0
10.16 0.005 0
10.24 0.005 0
10.32 0.005 0
10.4 0.005 0
10.48 0.005 0
10.56 0.005 0
10.64 0.005 0
10.72 0.005 0
10.8 0.005 0
10.88 0.005 0
10.96 0.005 0
11.04 0.005 0
11.12 0.005 0
11.2 0.005 0
11.28 0.005 0
11.36 0.005 0
11.44 0.005 0
11.52 0.005 0
11.6 0.005 0
11.68 0.005 0
11.76 0.005 0
11.84 0.005 0
11.92 0.005 0
12 0.005 0
12.08 0.005 0
12.16 0.005 0
12.24 0.005 0
12.32 0.005 0
12.4 0.005 0
12.48 0.005 0
12.56 0.005 0
12.64 0.005 0
12.72 0.005 0
12.8 0.005 0
12.88 0.005 0
12.96 0.005 0
13.04 0.005 0
13.12 0.005 0
13.2 0.005 0
13.28 0.005 0
13.36 0.005 0
13.44 0.005 0
13.52 0.005 0
13.6 0.005 0
13.68 0.005 0
13.76 0.005 0
13.84 0.005 0
13.92 0.005 0
14 0.005 0
14.08 0.005 0
14.16 0.005 0
14.24 0.005 0
14.32 0.005 0
14.4 0.005 0
14.48 0.005 0
14.56 0.005 0
14.64 0.005 0
14.72 0.005 0
14.8 0.005 0
14.88 0.005 0
14.96 0.005 0
15.04 0.005 0
15.12 0.005 0
15.2 0.005 0
15.28 0.005 0
15.36 0.005 0
15.44 0.005 0
15.52 0.005 0
15.6 0.005 0
15.68 0.005 0
15.76 0.005 0
15.84 0.005 0
15.92 0.005 0
16 0.005 0
16.08 0.005 0
16.16 0.005 0
16.24 0.005 0
16.32 0.005 0
16.4 0.005 0
16.48 0.005 0
16.56 0.005 0
16.64 0.005 0
16.72 0.005 0
16.8 0.005 0
16.88 0.005 0
16.96 0.005 0
17.04 0.005 0
17.12 0.005 0
17.2 0.005 0
17.28 0.005 0
17.36 0.005 0
17.44 0.005 0
17.52 0.005 0
17.6 0.005 0
17.68 0.005 0
17.76 0.005 0
17.84 0.005 0
17.92 0.005 0
18 0.005 0
18.08 0.005 0
18.16 0.005 0
18.24 0.005 0
18.32 0.005 0
18.4 0.005 0
18.48 0.005 0
18.56 0.005 0
18.64 0.005 0
18.72 0.005 0
18.8 0.005 0
18.88 0.005 0
18.96 0.005 0
19.04 0.005 0
19.12 0.005 0
19.2 0.005 0
19.28 0.005 0
19.36 0.005 0
19.44 0.005 0
19.52 0.005 0
19.6 0.005 0
19.68 0.005 0
19.76 0.005 0
19.84 0.005 0
19.92 0.005 0
20 0.005 0
20.08 0.005 0
20.16 0.005 0
20.24 0.005 0
20.32 0.005 0
20.4 0.005 0
20.48 0.005 0
20.56 0.005 0
20.64 0.005 0
20.72 0.005 0
20.8 0.005 0
20.88 0.005 0
20.96 0.005 0
21.04 0.005 0
21.12 0.005 0
21.2 0.005 0
21.28 0.005 0
21.36 0.005 0
21.44 0.005 0
21.52 0.005 0
21.6 0.005 0
21.68 0.005 0
21.76 0.005 0
21.84 0.005 0
21.92 0.005 0
22 0.005 0
22.08 0.005 0
22.16 0.005 0
22.24 0.005 0
22.32 0.005 0
22.4 0.005 0
22.48 0.005 0
22.56 0.005 0
22.64 0.005 0
22.72 0.005 0
22.8 0.005 0
22.88 0.005 0
22.96 0.005 0
23.04 0.005 0
23.12 0.005 0
23.2 0.005 0
23.28 0.005 0
23.36 0.005 0
23.44 0.005 0
23.52 0.005 0
23.6 0.005 0
23.68 0.005 0
23.76 0.005 0
23.84 0.005 0
23.92 0.005 0
24 0.005 0
24.08 0.005 0
24.16 0.005 0
24.24 0.005 0
24.32 0.005 0
24.4 0.005 0
24.48 0.005 0
24.56 0.005 0
24.64 0.005 0
24.72 0.005 0
24.8 0.005 0
24.88 0.005 0
24.96 0.005 0
25.04 0.005 0
25.12 0.005 0
25.2 0.005 0
25.28 0.005 0
25.36 0.005 0
25.44 0.005 0
25.52 0.005 0
25.6 0.005 0
25.68 0.005 0
25.76 0.005 0
25.84 0.005 0
25.92 0.005 0
26 0.005 0
26.08 0.005 0
26.16 0.005 0
26.24 0.005 0
26.32 0.005 0
26.4 0.005 0
26.48 0.005 0
26.56 0.005 0
26.64 0.005 0
26.72 0.005 0
26.8 0.005 0
26.88 0.005 0
26.96 0.005 0
27.04 0.005 0
27.12 0.005 0
27.2 0.005 0
27.28 0.005 0
27.36 0.005 0
27.44 0.005 0
27.52 0.005 0
27.6 0.005 0
27.68 0.005 0
27.76 0.005 0
27.84 0.005 0
27.92 0.005 0
28 0.005 0
28.08 0.005 0
28.16 0.005 0
28.24 0.005 0
28.32 0.005 0
28.4 0.005 0
28.48 0.005 0
28.56 0.005 0
28.64 0.005 0
28.72 0.005 0
28.8 0.005 0
28.88 0.005 0
28.96 0.005 0
29.04 0.005 0
29.12 0.005 0
29.2 0.005 0
29.28 0.005 0
29.36 0.005 0
29.44 0.005 0
29.52 0.005 0
29.6 0.005 0
29.68 0.005 0
29.76 0.005 0
29.84 0.005 0
29.92 0.005 0
30 0.005 0
30.08 0.005 0
30.16 0.005 0
30.24 0.005 0
30.32 0.005 0
30.4 0.005 0
30.48 0.005 0
30.56 0.005 0
30.64 0.005 0
30.72 0.005 0
30.8 0.005 0
30.88 0.005 0
30.96 0.005 0
31.04 0.005 0
31.12 0.005 0
31.2 0.005 0
31.28 0.005 0
31.36 0.005 0
31.44 0.005 0
31.52 0.005 0
31.6 0.005 0
31.68 0.005 0
31.76 0.005 0
31.84 0.005 0
31.92 0.005 0
0 0.01 0
0.08 0.01 0
0.16 0.01 0
0.24 0.01 0
0.32 0.01 0
0.4 0.01 0
0.48 0.01 0
0.56 0.01 0
0.64 0.01 0
0.72 0.01 0
0.8 0.01 0
0.88 0.01 0
0.96 0.01 0
1.04 0.01 0
1.12 0.01 0
1.2 0.01 0
1.28 0.01 0
1.36 0.01 0
1.44 0.01 0
1.52 0.01 0
1.6 0.01 0
1.68 0.01 0
1.76 0.01 0
1.84 0.01 0
1.92 0.01 0
2 0.01 0
2.08 0.01 0
2.16 0.01 0
2.24 0.01 0
2.32 0.01 0
2.4 0.01 0
2.48 0.01 0
2.56 0.01 0
2.64 0.01 0
2.72 0.01 0
2.8 0.01 0
2.88 0.01 0
2.96 0.01 0
3.04 0.01 0
3.12 0.01 0
3.2 0.01 0
3.28 0.01 0
3.36 0.01 0
3.44 0.01 0
3.52 0.01 0
3.6 0.01 0
3.68 0.01 0
3.76 0.01 0
3.84 0.01 0
3.92 0.01 0
4 0.01 0
4.08 0.01 0
4.16 0.01 0
4.24 0.01 0
4.32 0.01 0
4.4 0.01 0
4.48 0.01 0
4.56 0.01 0
4.64 0.01 0
4.72 0.01 0
4.8 0.01 0
4.88 0.01 0
4.96 0.01 0
5.04 0.01 0
5.12 0.01 0
[...]
POINT_DATA 80000

SCALARS u float 1
LOOKUP_TABLE default
0
-0.131664
-0.0682707
-0.0522978
-0.0444219
-0.039579
-0.0362622
-0.0338353
-0.0319756
-0.0304993
-0.0292937
-0.0282859
-0.027427
-0.0266832
-0.0260306
-0.0254516
-0.024933
-0.0244647
-0.0240393
-0.0236511
-0.0232962
-0.0229706
-0.0226708
-0.0223935
-0.0221368
-0.0218999
-0.0216831
-0.0214868
-0.0213109
-0.0211546
-0.0210168
-0.0208969
-0.0207942
-0.020708
-0.0206367
-0.020578
-0.0205284
-0.0204846
-0.0204439
-0.0204048
-0.0203671
-0.0203315
-0.0202992
-0.0202712
-0.0202482
-0.0202306
-0.0202178
-0.0202093
-0.0202042
-0.0202016
-0.0202008
-0.020201
-0.020202
-0.0202033
-0.0202048
-0.0202063
-0.0202079
-0.0202094
-0.020211
-0.0202126
-0.0202142
-0.0202158
-0.0202174
-0.020219
-0.0202206
-0.0202222
-0.0202239
-0.0202255
-0.0202271
-0.0202288
-0.0202304
-0.0202321
-0.0202337
-0.0202354
-0.0202371
-0.0202387
-0.0202404
-0.020242
-0.0202437
-0.0202454
-0.020247
-0.0202487
-0.0202504
-0.020252
-0.0202537
-0.0202554
-0.0202571
-0.0202587
-0.0202604
-0.0202621
-0.0202638
-0.0202655
-0.0202671
-0.0202688
-0.0202705
-0.0202722
-0.0202739
-0.0202756
-0.0202773
-0.020279
-0.0202807
-0.0202824
-0.0202841
-0.0202858
-0.0202875
-0.0202892
-0.0202909
-0.0202927
-0.0202944
-0.0202961
-0.0202978
-0.0202996
-0.0203013
-0.020303
-0.0203048
-0.0203065
-0.0203083
-0.02031
-0.0203118
-0.0203135
-0.0203153
-0.020317
-0.0203188
-0.0203206
-0.0203224
-0.0203241
-0.0203259
-0.0203277
-0.0203295
-0.0203313
-0.0203331
-0.020335
-0.0203368
-0.0203386
-0.0203404
-0.0203423
-0.0203441
-0.020346
-0.0203478
-0.0203497
-0.0203516
-0.0203535
-0.0203553
-0.0203572
-0.0203591
-0.0203611
-0.020363
-0.0203649
-0.0203668
-0.0203688
-0.0203707
-0.0203727
-0.0203747
-0.0203766
-0.0203786
-0.0203806
-0.0203826
-0.0203847
-0.0203867
-0.0203887
-0.0203908
-0.0203928
-0.0203949
-0.020397
-0.0203991
-0.0204012
-0.0204033
-0.0204054
-0.0204076
-0.0204097
-0.0204119
-0.020414
-0.0204162
-0.0204184
-0.0204206
-0.0204228
-0.020425
-0.0204273
-0.0204295
-0.0204318
-0.0204341
-0.0204363
-0.0204386
-0.0204409
-0.0204433
-0.0204456
-0.0204479
-0.0204503
-0.0204526
-0.020455
-0.0204574
-0.0204598
-0.0204622
-0.0204646
-0.020467
-0.0204694
-0.0204719
-0.0204743
-0.0204768
-0.0204792
-0.0204817
-0.0204842
-0.0204867
-0.0204892
-0.0204917
-0.0204942
-0.0204967
-0.0204993
-0.0205018
-0.0205043
-0.0205069
-0.0205094
-0.020512
-0.0205146
-0.0205171
-0.0205197
-0.0205223
-0.0205249
-0.0205275
-0.02053
-0.0205326
-0.0205352
-0.0205378
-0.0205404
-0.020543
-0.0205456
-0.0205482
-0.0205508
-0.0205534
-0.020556
-0.0205586
-0.0205612
-0.0205638
-0.0205664
-0.020569
-0.0205716
-0.0205742
-0.0205768
-0.0205794
-0.020582
-0.0205846
-0.0205872
-0.0205898
-0.0205923
-0.0205949
-0.0205975
-0.0206
-0.0206026
-0.0206051
-0.0206077
-0.0206102
-0.0206128
-0.0206153
-0.0206178
-0.0206204
-0.0206229
-0.0206254
-0.0206279
-0.0206304
-0.0206329
-0.0206354
-0.0206378
-0.0206403
-0.0206428
-0.0206452
-0.0206477
-0.0206502
-0.0206526
-0.020655
-0.0206575
-0.0206599
-0.0206623
-0.0206647
-0.0206671
-0.0206695
-0.0206719
-0.0206743
-0.0206767
-0.020679
-0.0206814
-0.0206838
-0.0206861
-0.0206885
-0.0206908
-0.0206931
-0.0206955
-0.0206978
-0.0207001
-0.0207024
-0.0207047
-0.020707
-0.0207093
-0.0207116
-0.0207139
-0.0207162
-0.0207185
-0.0207208
-0.0207231
-0.0207253
-0.0207276
-0.0207299
-0.0207321
-0.0207344
-0.0207366
-0.0207389
-0.0207411
-0.0207434
-0.0207456
-0.0207479
-0.0207501
-0.0207523
-0.0207546
-0.0207568
-0.020759
-0.0207612
-0.0207635
-0.0207657
-0.0207679
-0.0207701
-0.0207724
-0.0207746
-0.0207768
-0.020779
-0.0207812
-0.0207834
-0.0207857
-0.0207879
-0.0207901
-0.0207923
-0.0207945
-0.0207967
-0.0207989
-0.0208011
-0.0208034
-0.0208056
-0.0208078
-0.02081
-0.0208122
-0.0208144
-0.0208166
-0.0208189
-0.0208211
-0.0208233
-0.0208255
-0.0208277
-0.02083
-0.0208322
-0.0208344
-0.0208366
-0.0208388
-0.0208411
-0.0208433
-0.0208455
-0.0208478
-0.02085
-0.0208522
-0.0208545
-0.0208567
-0.0208589
-0.0208612
-0.0208634
-0.0208657
-0.0208679
-0.0208701
-0.0208724
-0.0208746
-0.0208769
-0.0208791
-0.0208814
-0.0208837
-0.0208859
-0.0208882
-0.0208904
-0.0208927
-0.0208949
-0.0208973
-0.0208995
-0.0209018
-0.020904
-0.0209064
-0.0209086
-0.0209109
-0.0209131
-0.0209155
-0.0209177
-0.0209201
-0.0209223
-0.0209247
-0.0209269
-0.0209293
-0.0209315
-0.0209339
-0.0209362
-0.0209385
-0.0209412
-0.0209428
-0.0209465
-0.0209436
-0.0209436
-0.0209436
1
0.131664
0.0682707
0.0522978
0.0444219
0.039579
0.0362622
0.0338353
0.0319756
0.0304993
0.0292937
0.0282859
0.027427
0.0266832
0.0260306
0.0254516
0.024933
0.0244647
0.0240393
0.0236511
0.0232962
0.0229706
0.0226708
0.0223935
0.0221368
0.0218999
0.0216831
0.0214868
0.0213109
0.0211546
0.0210168
0.0208969
0.0207942
0.020708
0.0206367
0.020578
0.0205284
0.0204846
0.0204439
0.0204048
0.0203671
0.0203315
0.0202992
0.0202712
0.0202482
0.0202306
0.0202178
0.0202093
0.0202042
0.0202016
0.0202008
0.020201
0.020202
0.0202033
0.0202048
0.0202063
0.0202079
0.0202094
0.020211
0.0202126
0.0202142
0.0202158
0.0202174
0.020219
0.0202206
0.0202222
0.0202239
0.0202255
0.0202271
0.0202288
0.0202304
0.0202321
0.0202337
0.0202354
0.0202371
0.0202387
0.0202404
0.020242
0.0202437
0.0202454
0.020247
0.0202487
0.0202504
0.020252
0.0202537
0.0202554
0.0202571
0.0202587
0.0202604
0.0202621
0.0202638
0.0202655
0.0202671
0.0202688
0.0202705
0.0202722
0.0202739
0.0202756
0.0202773
0.020279
0.0202807
0.0202824
0.0202841
0.0202858
0.0202875
0.0202892
0.0202909
0.0202927
0.0202944
0.0202961
0.0202978
0.0202996
0.0203013
0.020303
0.0203048
0.0203065
0.0203083
0.02031
0.0203118
0.0203135
0.0203153
0.020317
0.0203188
0.0203206
0.0203224
0.0203241
0.0203259
0.0203277
0.0203295
0.0203313
0.0203331
0.020335
0.0203368
0.0203386
0.0203404
0.0203423
0.0203441
0.020346
0.0203478
0.0203497
0.0203516
0.0203535
0.0203553
0.0203572
0.0203591
0.0203611
0.020363
0.0203649
0.0203668
0.0203688
0.0203707
0.0203727
0.0203747
0.0203766
0.0203786
0.0203806
0.0203826
0.0203847
0.0203867
0.0203887
0.0203908
0.0203928
0.0203949
0.020397
0.0203991
0.0204012
0.0204033
0.0204054
0.0204076
0.0204097
0.0204119
0.020414
0.0204162
0.0204184
0.0204206
0.0204228
0.020425
0.0204273
0.0204295
0.0204318
0.0204341
0.0204363
0.0204386
0.0204409
0.0204433
0.0204456
0.0204479
0.0204503
0.0204526
0.020455
0.0204574
0.0204598
0.0204622
0.0204646
0.020467
0.0204694
0.0204719
0.0204743
0.0204768
0.0204792
0.0204817
0.0204842
0.0204867
0.0204892
0.0204917
0.0204942
0.0204967
0.0204993
0.0205018
0.0205043
0.0205069
0.0205094
0.020512
0.0205146
0.0205171
0.0205197
0.0205223
0.0205249
0.0205275
0.02053
0.0205326
0.0205352
0.0205378
0.0205404
0.020543
0.0205456
0.0205482
0.0205508
0.0205534
0.020556
0.0205586
0.0205612
0.0205638
0.0205664
0.020569
0.0205716
0.0205742
0.0205768
0.0205794
0.020582
0.0205846
0.0205872
0.0205898
0.0205923
0.0205949
0.0205975
0.0206
0.0206026
0.0206051
0.0206077
0.0206102
0.0206128
0.0206153
0.0206178
0.0206204
0.0206229
0.0206254
0.0206279
0.0206304
0.0206329
0.0206354
0.0206378
0.0206403
0.0206428
0.0206452
0.0206477
0.0206502
0.0206526
0.020655
0.0206575
0.0206599
0.0206623
0.0206647
0.0206671
0.0206695
0.0206719
0.0206743
0.0206767
0.020679
0.0206814
0.0206838
0.0206861
0.0206885
0.0206908
0.0206931
0.0206955
0.0206978
0.0207001
0.0207024
0.0207047
0.020707
0.0207093
0.0207116
0.0207139
0.0207162
0.0207185
0.0207208
0.0207231
0.0207253
0.0207276
0.0207299
0.0207321
0.0207344
0.0207366
0.0207389
0.0207411
0.0207434
0.0207456
0.0207479
0.0207501
0.0207523
0.0207546
0.0207568
0.020759
0.0207612
0.0207635
0.0207657
0.0207679
0.0207701
0.0207724
0.0207746
0.0207768
0.020779
0.0207812
0.0207834
0.0207857
0.0207879
0.0207901
0.0207923
0.0207945
0.0207967
0.0207989
0.0208011
0.0208034
0.0208056
0.0208078
0.02081
0.0208122
0.0208144
0.0208166
0.0208189
0.0208211
0.0208233
0.0208255
0.0208277
0.02083
0.0208322
0.0208344
0.0208366
0.0208388
0.0208411
0.0208433
0.0208455
0.0208478
0.02085
0.0208522
0.0208545
0.0208567
0.0208589
0.0208612
0.0208634
0.0208657
0.0208679
0.0208701
0.0208724
0.0208746
0.0208769
0.0208791
0.0208814
0.0208837
0.0208859
0.0208882
0.0208904
0.0208927
0.0208949
0.0208973
0.0208995
0.0209018
0.020904
0.0209064
0.0209086
0.0209109
0.0209131
0.0209155
0.0209177
0.0209201
0.0209223
0.0209247
0.0209269
0.0209293
0.0209315
0.0209339
0.0209362
0.0209385
0.0209412
0.0209428
0.0209465
0.0209436
0.0209436
0.0209436
1
0.344886
0.200672
0.154972
0.1319
0.117605
0.107775
0.100566
0.0950338
0.090639
0.0870493
0.0840489
0.0814929
0.0792805
0.0773403
0.07562
0.07408
0.0726903
0.0714287
0.0702787
0.0692275
0.0682638
0.0673769
0.0665578
0.0658008
0.0651041
0.0644681
0.0638936
0.0633799
0.0629248
0.0625254
0.0621792
0.061884
0.0616365
0.0614315
0.0612609
0.0611153
0.0609856
0.0608649
0.0607496
0.0606399
0.0605377
0.0604464
0.0603686
0.0603059
0.0602583
0.0602246
0.0602027
0.0601899
0.0601839
0.0601826
0.0601841
0.0601873
0.0601914
0.0601959
0.0602006
0.0602053
0.0602101
0.0602149
0.0602196
0.0602244
0.0602293
0.0602341
0.060239
0.0602439
0.0602489
0.0602538
0.0602588
0.0602638
0.0602688
0.0602738
0.0602788
0.0602838
0.0602888
0.0602939
0.0602989
0.060304
0.060309
0.0603141
0.0603191
0.0603242
0.0603293
0.0603343
0.0603394
0.0603445
0.0603496
0.0603547
0.0603598
0.0603649
0.06037
0.0603752
0.0603803
0.0603854
0.0603906
0.0603957
0.0604009
0.0604061
0.0604112
0.0604164
0.0604216
0.0604268
0.060432
0.0604372
0.0604425
0.0604477
0.0604529
0.0604582
0.0604635
0.0604687
0.060474
0.0604793
0.0604846
0.0604899
0.0604953
0.0605006
0.0605059
0.0605113
0.0605167
0.0605221
0.0605275
0.0605329
0.0605383
0.0605438
0.0605492
0.0605547
0.0605602
0.0605657
0.0605712
0.0605768
0.0605823
0.0605879
0.0605935
0.0605991
0.0606047
0.0606104
0.060616
0.0606217
0.0606274
0.0606331
0.0606389
0.0606446
0.0606504
0.0606562
0.0606621
0.0606679
0.0606738
0.0606797
0.0606856
0.0606916
0.0606976
0.0607036
0.0607096
0.0607156
0.0607217
0.0607278
0.0607339
0.0607401
0.0607462
0.0607524
0.0607587
0.0607649
0.0607712
0.0607775
0.0607839
0.0607903
0.0607966
0.0608031
0.0608095
0.060816
0.0608225
0.0608291
0.0608356
0.0608422
0.0608488
0.0608555
0.0608622
0.0608689
0.0608756
0.0608824
0.0608892
0.060896
0.0609028
0.0609097
0.0609166
0.0609235
0.0609305
0.0609374
0.0609444
0.0609515
0.0609585
0.0609656
0.0609727
0.0609798
0.0609869
0.0609941
0.0610013
0.0610085
0.0610157
0.0610229
0.0610302
0.0610375
0.0610448
0.0610521
0.0610594
0.0610668
0.0610741
0.0610815
0.0610889
0.0610963
0.0611037
0.0611111
0.0611186
0.061126
0.0611335
0.0611409
0.0611484
0.0611559
0.0611633
0.0611708
0.0611783
0.0611858
0.0611933
0.0612008
0.0612083
0.0612158
0.0612233
0.0612308
0.0612383
0.0612458
0.0612533
0.0612607
0.0612682
0.0612757
0.0612832
0.0612906
0.0612981
0.0613055
0.061313
0.0613204
0.0613278
0.0613352
0.0613426
0.06135
0.0613574
0.0613647
0.0613721
0.0613794
0.0613867
0.0613941
0.0614014
0.0614086
0.0614159
0.0614232
0.0614304
0.0614376
0.0614448
0.061452
0.0614592
0.0614664
0.0614735
0.0614807
0.0614878
0.0614949
0.061502
0.061509
0.0615161
0.0615231
0.0615302
0.0615372
0.0615442
0.0615511
0.0615581
0.061565
0.061572
0.0615789
0.0615858
0.0615927
0.0615995
0.0616064
0.0616132
0.0616201
0.0616269
0.0616337
0.0616405
0.0616473
0.061654
0.0616608
0.0616675
0.0616743
0.061681
0.0616877
0.0616944
0.0617011
0.0617078
0.0617144
0.0617211
0.0617278
0.0617344
0.0617411
0.0617477
0.0617543
0.0617609
0.0617675
0.0617741
0.0617807
0.0617873
0.0617939
0.0618005
0.0618071
0.0618137
0.0618202
0.0618268
0.0618334
0.0618399
0.0618465
0.061853
0.0618596
0.0618661
0.0618727
0.0618792
0.0618858
0.0618923
0.0618989
0.0619054
0.061912
0.0619185
0.0619251
0.0619316
0.0619382
0.0619447
0.0619513
0.0619578
0.0619644
0.0619709
0.0619775
0.061984
0.0619906
0.0619972
0.0620037
0.0620103
0.0620169
0.0620234
0.06203
0.0620366
0.0620432
0.0620498
0.0620564
0.062063
0.0620696
0.0620762
0.0620828
0.0620894
0.062096
0.0621026
0.0621093
0.0621159
0.0621225
0.0621292
0.0621358
0.0621425
0.0621491
0.0621558
0.0621625
0.0621692
0.0621758
0.0621825
0.0621892
0.0621959
0.0622026
0.0622093
0.062216
0.0622228
0.0622294
0.0622363
0.0622429
0.0622498
0.0622564
0.0622633
0.0622699
0.0622768
0.0622834
0.0622903
0.062297
0.0623039
0.0623106
0.0623176
0.0623242
0.0623312
0.0623378
0.0623449
0.0623516
0.0623587
0.0623656
0.0623724
0.0623802
0.0623854
0.0623959
0.0623891
0.0623891
0.0623891
1
0.518769
0.327408
0.255355
0.217858
0.194414
0.178223
0.16632
0.157173
0.1499
0.143958
0.138991
0.134761
0.1311
0.127891
0.125047
0.122502
0.120207
0.118124
0.116227
0.114493
0.112904
0.111443
0.110095
0.10885
0.107707
0.106665
0.105726
0.104887
0.104146
0.103497
0.102937
0.10246
0.102061
0.101729
0.101451
0.101212
0.100998
0.100798
0.100609
0.10043
0.100265
0.10012
0.099998
0.0999007
0.0998278
0.0997769
0.0997444
0.0997261
0.099718
0.099717
0.0997202
0.099726
0.099733
0.0997407
0.0997486
0.0997566
0.0997646
0.0997726
0.0997806
0.0997887
0.0997968
0.0998049
0.0998131
0.0998214
0.0998297
0.099838
0.0998463
0.0998547
0.0998631
0.0998715
0.0998799
0.0998883
0.0998967
0.0999052
0.0999136
0.0999221
0.0999306
0.0999391
0.0999476
0.0999561
0.0999646
0.0999732
0.0999817
0.0999903
0.0999988
0.100007
0.100016
0.100025
0.100033
0.100042
0.100051
0.100059
0.100068
0.100077
0.100085
0.100094
0.100103
0.100111
0.10012
0.100129
0.100138
0.100146
0.100155
0.100164
0.100173
0.100182
0.100191
0.1002
0.100209
0.100217
0.100226
0.100235
0.100244
0.100253
0.100262
0.100272
0.100281
0.10029
0.100299
0.100308
0.100317
0.100326
0.100336
0.100345
0.100354
0.100363
0.100373
0.100382
0.100392
0.100401
0.10041
0.10042
0.100429
0.100439
0.100448
0.100458
0.100468
0.100477
0.100487
0.100497
0.100507
0.100516
0.100526
0.100536
0.100546
0.100556
0.100566
0.100576
0.100586
0.100596
0.100606
0.100616
0.100626
0.100637
0.100647
0.100657
0.100668
0.100678
0.100688
0.100699
0.100709
0.10072
0.100731
0.100741
0.100752
0.100763
0.100773
0.100784
0.100795
0.100806
0.100817
0.100828
0.100839
0.10085
0.100861
0.100872
0.100883
0.100894
0.100906
0.100917
0.100928
0.10094
0.100951
0.100962
0.100974
0.100985
0.100997
0.101008
0.10102
0.101032
0.101043
0.101055
0.101067
0.101078
0.10109
0.101102
0.101114
0.101126
0.101138
0.101149
0.101161
0.101173
0.101185
0.101197
0.101209
0.101221
0.101233
0.101245
0.101257
0.101269
0.101281
0.101293
0.101305
0.101318
0.10133
0.101342
0.101354
0.101366
0.101378
0.10139
0.101402
0.101414
0.101426
0.101439
0.101451
0.101463
0.101475
0.101487
0.101499
0.101511
0.101523
0.101535
0.101547
0.101559
0.101571
0.101583
0.101595
0.101607
0.101619
0.101631
0.101643
0.101655
0.101667
0.101679
0.10169
0.101702
0.101714
0.101726
0.101738
0.101749
0.101761
0.101773
0.101784
0.101796
0.101808
0.101819
0.101831
0.101842
0.101854
0.101865
0.101877
0.101888
0.1019
0.101911
0.101923
0.101934
0.101945
0.101957
0.101968
0.101979
0.101991
0.102002
0.102013
0.102024
0.102036
0.102047
0.102058
0.102069
0.10208
0.102091
0.102102
0.102113
0.102125
0.102136
0.102147
0.102158
0.102169
0.10218
0.102191
0.102201
0.102212
0.102223
0.102234
0.102245
0.102256
0.102267
0.102278
0.102289
0.102299
0.10231
0.102321
0.102332
0.102343
0.102354
0.102364
0.102375
0.102386
0.102397
0.102408
0.102418
0.102429
0.10244
0.102451
0.102462
0.102472
0.102483
0.102494
0.102505
0.102515
0.102526
0.102537
0.102548
0.102559
0.102569
0.10258
0.102591
0.102602
0.102612
0.102623
0.102634
0.102645
0.102656
0.102666
0.102677
0.102688
0.102699
0.10271
0.102721
0.102731
0.102742
0.102753
0.102764
0.102775
0.102786
0.102797
0.102807
0.102818
0.102829
0.10284
0.102851
0.102862
0.102873
0.102884
0.102895
0.102906
0.102917
0.102928
0.102939
0.10295
0.102961
0.102972
0.102983
0.102994
0.103005
0.103016
0.103027
0.103038
0.103049
0.10306
0.103071
0.103082
0.103093
0.103104
0.103115
0.103127
0.103138
0.103149
0.10316
0.103171
0.103182
0.103194
0.103205
0.103216
0.103227
0.103239
0.10325
0.103261
0.103272
0.103284
0.103295
0.103307
0.103318
0.103329
0.103342
0.103351
0.103368
0.103359
0.103359
0.103359
1
0.660891
0.446901
0.352888
0.302042
0.269864
0.247517
0.231036
0.218347
0.208249
0.199992
0.19309
0.187212
0.182127
0.17767
0.173721
0.170189
0.167005
0.164118
0.161488
0.159086
0.156885
0.154862
0.152997
0.151278
0.149702
0.148267
0.146975
0.145823
0.144806
0.143919
0.143155
0.142506
0.141963
0.14151
0.141128
0.140797
0.140499
0.140222
0.13996
0.139715
0.139493
0.139298
0.139136
0.139008
0.138914
0.138849
0.138808
0.138786
0.138777
0.138777
0.138782
0.13879
0.138801
0.138811
0.138823
0.138834
0.138845
0.138856
0.138868
0.138879
0.13889
0.138902
0.138913
0.138925
0.138937
0.138948
0.13896
0.138972
0.138984
0.138995
0.139007
0.139019
0.139031
0.139043
0.139055
0.139067
0.139079
0.139091
0.139103
0.139115
0.139127
0.139139
0.139151
0.139163
0.139175
0.139187
0.139199
0.139211
0.139223
0.139235
0.139248
0.13926
0.139272
0.139284
0.139296
0.139309
0.139321
0.139333
0.139346
0.139358
0.13937
0.139383
0.139395
0.139408
0.13942
0.139433
0.139445
0.139458
0.13947
0.139483
0.139496
0.139508
0.139521
0.139534
0.139547
0.139559
0.139572
0.139585
0.139598
0.139611
0.139624
0.139637
0.13965
0.139663
0.139676
0.139689
0.139702
0.139715
0.139729
0.139742
0.139755
0.139769
0.139782
0.139795
0.139809
0.139822
0.139836
0.13985
0.139863
0.139877
0.139891
0.139904
0.139918
0.139932
0.139946
0.13996
0.139974
0.139988
0.140002
0.140016
0.14003
0.140045
0.140059
0.140073
0.140088
0.140102
0.140117
0.140131
0.140146
0.14016
0.140175
0.14019
0.140205
0.140219
0.140234
0.140249
0.140264
0.140279
0.140294
0.140309
0.140325
0.14034
0.140355
0.14037
0.140386
0.140401
0.140417
0.140432
0.140448
0.140463
0.140479
0.140494
0.14051
0.140526
0.140542
0.140558
0.140573
0.140589
0.140605
0.140621
0.140637
0.140653
0.140669
0.140685
0.140702
0.140718
0.140734
0.14075
0.140766
0.140783
0.140799
0.140815
0.140832
0.140848
0.140864
0.140881
0.140897
0.140913
0.14093
0.140946
0.140963
0.140979
0.140996
0.141012
0.141029
0.141045
0.141061
0.141078
0.141094
0.141111
0.141127
0.141144
0.14116
0.141177
0.141193
0.141209
0.141226
0.141242
0.141259
0.141275
0.141291
0.141308
0.141324
0.14134
0.141357
0.141373
0.141389
0.141405
0.141422
0.141438
0.141454
0.14147
0.141486
0.141502
0.141518
0.141535
0.141551
0.141567
0.141583
0.141598
0.141614
0.14163
0.141646
0.141662
0.141678
0.141694
0.141709
0.141725
0.141741
0.141757
0.141772
0.141788
0.141803
0.141819
0.141835
0.14185
0.141866
0.141881
0.141897
0.141912
0.141927
0.141943
0.141958
0.141973
0.141989
0.142004
0.142019
0.142035
0.14205
0.142065
0.14208
0.142095
0.14211
0.142126
0.142141
0.142156
0.142171
0.142186
0.142201
0.142216
0.142231
0.142246
0.142261
0.142276
0.142291
0.142306
0.142321
0.142336
0.142351
0.142366
0.142381
0.142396
0.142411
0.142426
0.14244
0.142455
0.14247
0.142485
0.1425
0.142515
0.14253
0.142545
0.14256
0.142574
0.142589
0.142604
0.142619
0.142634
0.142649
0.142664
0.142679
0.142694
0.142709
0.142723
0.142738
0.142753
0.142768
0.142783
0.142798
0.142813
0.142828
0.142843
0.142858
0.142873
0.142888
0.142903
0.142918
0.142933
0.142948
0.142963
0.142978
0.142993
0.143008
0.143023
0.143038
0.143053
0.143068
0.143083
0.143098
0.143113
0.143129
0.143144
0.143159
0.143174
0.143189
0.143204
0.14322
0.143235
0.14325
0.143265
0.143281
0.143296
0.143311
0.143326
0.143342
0.143357
0.143372
0.143388
0.143403
0.143418
0.143434
0.143449
0.143465
0.14348
0.143495
0.143511
0.143526
0.143542
0.143557
0.143573
0.143588
0.143604
0.143619
0.143635
0.143651
0.143666
0.143682
0.143697
0.143713
0.143729
0.143745
0.143761
0.143776
0.143794
0.143806
0.143829
0.14382
0.14382
0.14382
1
0.776806
0.557833
0.446889
0.384116
0.34376
0.31553
0.294626
0.278493
0.265635
0.255114
0.246316
0.238821
0.232339
0.226659
0.221627
0.217127
0.213073
0.209397
0.206051
0.202996
0.200197
0.197625
0.195256
0.193076
0.191078
0.189262
0.187628
0.186174
0.184893
0.183777
0.182818
0.182005
0.181324
0.180755
0.180272
0.179851
0.17947
0.179116
0.178784
0.178475
0.178197
0.177956
0.177758
0.177604
0.177491
0.177414
0.177367
0.177342
0.177333
0.177334
0.177342
0.177353
0.177367
0.177381
0.177395
0.17741
0.177424
0.177439
0.177453
0.177468
0.177483
0.177497