# vtk DataFile Version 2.0
FlowField
ASCII
DATASET STRUCTURED_GRID
DIMENSIONS 400 1 200
POINTS 80000 float
0 0 0
0.08 0 0
0.16 0 0
0.24 0 0
0.32 0 0
0.4 0 0
0.48 0 0
0.56 0 0
0.64 0 0
0.72 0 0
0.8 0 0
0.88 0 0
0.96 0 0
1.04 0 0
1.12 0 0
1.2 0 0
1.28 0 0
1.36 0 0
1.44 0 0
1.52 0 0
1.6 0 0
1.68 0 0
1.76 0 0
1.84 0 0
1.92 0 0
2 0 0
2.08 0 0
2.16 0 0
2.24 0 0
2.32 0 0
2.4 0 0
2.48 0 0
2.56 0 0
2.64 0 0
2.72 0 0
2.8 0 0
2.88 0 0
2.96 0 0
3.04 0 0
3.12 0 0
3.2 0 0
3.28 0 0
3.36 0 0
3.44 0 0
3.52 0 0
3.6 0 0
3.68 0 0
3.76 0 0
3.84 0 0
3.92 0 0
4 0 0
4.08 0 0
4.16 0 0
4.24 0 0
4.32 0 0
4.4 0 0
4.48 0 0
4.56 0 0
4.64 0 0
4.72 0 0
4.8 0 0
4.88 0 0
4.96 0 0
5.04 0 0
5.12 0 0
5.2 0 0
5.28 0 0
5.36 0 0
5.44 0 0
5.52 0 0
5.6 0 0
5.68 0 0
5.76 0 0
5.84 0 0
5.92 0 0
6 0 0
6.08 0 0
6.16 0 0
6.24 0 0
6.32 0 0
6.4 0 0
6.48 0 0
6.56 0 0
6.64 0 0
6.72 0 0
6.8 0 0
6.88 0 0
6.96 0 0
7.04 0 0
7.12 0 0
7.2 0 0
7.28 0 0
7.36 0 0
7.44 0 0
7.52 0 0
7.6 0 0
7.68 0 0
7.76 0 0
7.84 0 0
7.92 0 0
8 0 0
8.08 0 0
8.16 0 0
8.24 0 0
8.32 0 0
8.4 0 0
8.48 0 0
8.56 0 0
8.64 0 0
8.72 0 0
8.8 0 0
8.88 0 0
8.96 0 0
9.04 0 0
9.12 0 0
9.2 0 0
9.28 0 0
9.36 0 0
9.44 0 0
9.52 0 0
9.6 0 0
9.68 0 0
9.76 0 0
9.84 0 0
9.92 0 0
10 0 0
10.08 0 0
10.16 0 0
10.24 0 0
10.32 0 0
10.4 0 0
10.48 0 0
10.56 0 0
10.64 0 0
10.72 0 0
10.8 0 0
10.88 0 0
10.96 0 0
11.04 0 0
11.12 0 0
11.2 0 0
11.28 0 0
11.36 0 0
11.44 0 0
11.52 0 0
11.6 0 0
11.68 0 0
11.76 0 0
11.84 0 0
11.92 0 0
12 0 0
12.08 0 0
12.16 0 0
12.24 0 0
12.32 0 0
12.4 0 0
12.48 0 0
12.56 0 0
12.64 0 0
12.72 0 0
12.8 0 0
12.88 0 0
12.96 0 0
13.04 0 0
13.12 0 0
13.2 0 0
13.28 0 0
13.36 0 0
13.44 0 0
13.52 0 0
13.6 0 0
13.68 0 0
13.76 0 0
13.84 0 0
13.92 0 0
14 0 0
14.08 0 0
14.16 0 0
14.24 0 0
14.32 0 0
14.4 0 0
14.48 0 0
14.56 0 0
14.64 0 0
14.72 0 0
14.8 0 0
14.88 0 0
14.96 0 0
15.04 0 0
15.12 0 0
15.2 0 0
15.28 0 0
15.36 0 0
15.44 0 0
15.52 0 0
15.6 0 0
15.68 0 0
15.76 0 0
15.84 0 0
15.92 0 0
16 0 0
16.08 0 0
16.16 0 0
16.24 0 0
16.32 0 0
16.4 0 0
16.48 0 0
16.56 0 0
16.64 0 0
16.72 0 0
16.8 0 0
16.88 0 0
16.96 0 0
17.04 0 0
17.12 0 0
17.2 0 0
17.28 0 0
17.36 0 0
17.44 0 0
17.52 0 0
17.6 0 0
17.68 0 0
17.76 0 0
17.84 0 0
17.92 0 0
18 0 0
18.08 0 0
18.16 0 0
18.24 0 0
18.32 0 0
18.4 0 0
18.48 0 0
18.56 0 0
18.64 0 0
18.72 0 0
18.8 0 0
18.88 0 0
18.96 0 0
19.04 0 0
19.12 0 0
19.2 0 0
19.28 0 0
19.36 0 0
19.44 0 0
19.52 0 0
19.6 0 0
19.68 0 0
19.76 0 0
19.84 0 0
19.92 0 0
20 0 0
20.08 0 0
20.16 0 0
20.24 0 0
20.32 0 0
20.4 0 0
20.48 0 0
20.56 0 0
20.64 0 0
20.72 0 0
20.8 0 0
20.88 0 0
20.96 0 0
21.04 0 0
21.12 0 0
21.2 0 0
21.28 0 0
21.36 0 0
21.44 0 0
21.52 0 0
21.6 0 0
21.68 0 0
21.76 0 0
21.84 0 0
21.92 0 0
22 0 0
22.08 0 0
22.16 0 0
22.24 0 0
22.32 0 0
22.4 0 0
22.48 0 0
22.56 0 0
22.64 0 0
22.72 0 0
22.8 0 0
22.88 0 0
22.96 0 0
23.04 0 0
23.12 0 0
23.2 0 0
23.28 0 0
23.36 0 0
23.44 0 0
23.52 0 0
23.6 0 0
23.68 0 0
23.76 0 0
23.84 0 0
23.92 0 0
24 0 0
24.08 0 0
24.16 0 0
24.24 0 0
24.32 0 0
24.4 0 0
24.48 0 0
24.56 0 0
24.64 0 0
24.72 0 0
24.8 0 0
24.88 0 0
24.96 0 0
25.04 0 0
25.12 0 0
25.2 0 0
25.28 0 0
25.36 0 0
25.44 0 0
25.52 0 0
25.6 0 0
25.68 0 0
25.76 0 0
25.84 0 0
25.92 0 0
26 0 0
26.08 0 0
26.16 0 0
26.24 0 0
26.32 0 0
26.4 0 0
26.48 0 0
26.56 0 0
26.64 0 0
26.72 0 0
26.8 0 0
26.88 0 0
26.96 0 0
27.04 0 0
27.12 0 0
27.2 0 0
27.28 0 0
27.36 0 0
27.44 0 0
27.52 0 0
27.6 0 0
27.68 0 0
27.76 0 0
27.84 0 0
27.92 0 0
28 0 0
28.08 0 0
28.16 0 0
28.24 0 0
28.32 0 0
28.4 0 0
28.48 0 0
28.56 0 0
28.64 0 0
28.72 0 0
28.8 0 0
28.88 0 0
28.96 0 0
29.04 0 0
29.12 0 0
29.2 0 0
29.28 0 0
29.36 0 0
29.44 0 0
29.52 0 0
29.6 0 0
29.68 0 0
29.76 0 0
29.84 0 0
29.92 0 0
30 0 0
30.08 0 0
30.16 0 0
30.24 0 0
30.32 0 0
30.4 0 0
30.48 0 0
30.56 0 0
30.64 0 0
30.72 0 0
30.8 0 0
30.88 0 0
30.96 0 0
31.04 0 0
31.12 0 0
31.2 0 0
31.28 0 0
31.36 0 0
31.44 0 0
31.52 0 0
31.6 0 0
31.68 0 0
31.76 0 0
31.84 0 0
31.92 0 0
0 0.005 0
0.08 0.005 0
0.16 0.005 0
0.24 0.005 0
0.32 0.005 0
0.4 0.005 0
0.48 0.005 0
0.56 0.005 0
0.64 0.005 0
0.72 0.005 0
0.8 0.005 0
0.88 0.005 0
0.96 0.005 0
1.04 0.005 0
1.12 0.005 0
1.2 0.005 0
1.28 0.005 0
1.36 0.005 0
1.44 0.005 0
1.52 0.005 0
1.6 0.005 0
1.68 0.005 0
1.76 0.005 0
1.84 0.005 0
1.92 0.005 0
2 0.005 0
2.08 0.005 0
2.16 0.005 0
2.24 0.005 0
2.32 0.005 0
2.4 0.005 0
2.48 0.005 0
2.56 0.005 0
2.64 0.005 0
2.72 0.005 0
2.8 0.005 0
2.88 0.005 0
2.96 0.005 0
3.04 0.005 0
3.12 0.005 0
3.2 0.005 0
3.28 0.005 0
3.36 0.005 0
3.44 0.005 0
3.52 0.005 0
3.6 0.005 0
3.68 0.005 0
3.76 0.005 0
3.84 0.005 0
3.92 0.005 0
4 0.005 0
4.08 0.005 0
4.16 0.005 0
4.24 0.005 0
4.32 0.005 0
4.4 0.005 0
4.48 0.005 0
4.56 0.005 0
4.64 0.005 0
4.72 0.005 0
4.8 0.005 0
4.88 0.005 0
4.96 0.005 0
5.04 0.005 0
5.12 0.005 0
5.2 0.005 0
5.28 0.005 0
5.36 0.005 0
5.44 0.005 0
5.52 0.005 0
5.6 0.005 0
5.68 0.005 0
5.76 0.005 0
5.84 0.005 0
5.92 0.005 0
6 0.005 0
6.08 0.005 0
6.16 0.005 0
6.24 0.005 0
6.32 0.005 0
6.4 0.005 0
6.48 0.005 0
6.56 0.005 0
6.64 0.005 0
6.72 0.005 0
6.8 0.005 0
6.88 0.005 0
6.96 0.005 0
7.04 0.005 0
7.12 0.005 0
7.2 0.005 0
7.28 0.005 0
7.36 0.005 0
7.44 0.005 0
7.52 0.005 0
7.6 0.005 0
7.68 0.005 0
7.76 0.005 0
7.84 0.005 0
7.92 0.005 0
8 0.005 0
8.08 0.005 0
8.16 0.005 0
8.24 0.005 0
8.32 0.005 0
8.4 0.005 0
8.48 0.005 0
8.56 0.005 0
8.64 0.005 0
8.72 0.005 0
8.8 0.005 0
8.88 0.005 0
8.96 0.005 0
9.04 0.005 0
9.12 0.005 0
9.2 0.005 0
9.28 0.005 0
9.36 0.005 0
9.44 0.005 0
9.52 0.005 0
9.6 0.005 0
9.68 0.005 0
9.76 0.005 0
9.84 0.005 0
9.92 0.005 0
10 0.005 0
10.08 0.005 0
10.16 0.005 0
10.24 0.005 0
10.32 0.005 0
10.4 0.005 0
10.48 0.005 0
10.56 0.005 0
10.64 0.005 0
10.72 0.005 0
10.8 0.005 0
10.88 0.005 0
10.96 0.005 0
11.04 0.005 0
11.12 0.005 0
11.2 0.005 0
11.28 0.005 0
11.36 0.005 0
11.44 0.005 0
11.52 0.005 0
11.6 0.005 0
11.68 0.005 0
11.76 0.005 0
11.84 0.005 0
11.92 0.005 0
12 0.005 0
12.08 0.005 0
12.16 0.005 0
12.24 0.005 0
12.32 0.005 0
12.4 0.005 0
12.48 0.005 0
12.56 0.005 0
12.64 0.005 0
12.72 0.005 0
12.8 0.005 0
12.88 0.005 0
12.96 0.005 0
13.04 0.005 0
13.12 0.005 0
13.2 0.005 0
13.28 0.005 0
13.36 0.005 0
13.44 0.005 0
13.52 0.005 0
13.6 0.005 0
13.68 0.005 0
13.76 0.005 0
13.84 0.005 0
13.92 0.005 0
14 0.005 0
14.08 0.005 0
14.16 0.005 0
14.24 0.005 0
14.32 0.005 0
14.4 0.005 0
14.48 0.005 0
14.56 0.005 0
14.64 0.005 0
14.72 0.005 0
14.8 0.005 0
14.88 0.005 0
14.96 0.005 0
15.04 0.005 0
15.12 0.005 0
15.2 0.005 0
15.28 0.005 0
15.36 0.005 0
15.44 0.005 0
15.52 0.005 0
15.6 0.005 0
15.68 0.005 0
15.76 0.005 0
15.84 0.005 0
15.92 0.005 0
16 0.005 0
16.08 0.005 0
16.16 0.005 0
16.24 0.005 0
16.32 0.005 0
16.4 0.005 0
16.48 0.005 0
16.56 0.005 0
16.64 0.005 0
16.72 0.005 0
16.8 0.005 0
16.88 0.005 0
16.96 0.005 0
17.04 0.005 0
17.12 0.005 0
17.2 0.005 0
17.28 0.005 0
17.36 0.005 0
17.44 0.005 0
17.52 0.005 0
17.6 0.005 0
17.68 0.005 0
17.76 0.005 0
17.84 0.005 0
17.92 0.005 0
18 0.005 0
18.08 0.005 0
18.16 0.005 0
18.24 0.005 0
18.32 0.005 0
18.4 0.005 0
18.48 0.005 0
18.56 0.005 0
18.64 0.005 0
18.72 0.005 0
18.8 0.005 0
18.88 0.005 0
18.96 0.005 0
19.04 0.005 0
19.12 0.005 0
19.2 0.005 0
19.28 0.005 0
19.36 0.005 0
19.44 0.005 0
19.52 0.005 0
19.6 0.005 0
19.68 0.005 0
19.76 0.005 0
19.84 0.005 0
19.92 0.005 0
20 0.005 0
20.08 0.005 0
20.16 0.005 0
20.24 0.005 0
20.32 0.005 0
20.4 0.005 0
20.48 0.005 0
20.56 0.005 0
20.64 0.005 0
20.72 0.005 0
20.8 0.005 0
20.88 0.005 0
20.96 0.005 0
21.04 0.005 0
21.12 0.005 0
21.2 0.005 0
21.28 0.005 0
21.36 0.005 0
21.44 0.005 0
21.52 0.005 0
21.6 0.005 0
21.68 0.005 0
21.76 0.005 0
21.84 0.005 0
21.92 0.005 0
22 0.005 0
22.08 0.005 0
22.16 0.005 0
22.24 0.005 0
22.32 0.005 0
22.4 0.005 0
22.48 0.005 0
22.56 0.005 0
22.64 0.005 0
22.72 0.005 0
22.8 0.005 0
22.88 0.005 0
22.96 0.005 0
23.04 0.005 0
23.12 0.005 0
23.2 0.005 0
23.28 0.005 0
23.36 0.005 0
23.44 0.005 0
23.52 0.005 0
23.6 0.005 0
23.68 0.005 0
23.76 0.005 0
23.84 0.005 0
23.92 0.005 0
24 0.005 0
24.08 0.005 0
24.16 0.005 0
24.24 0.005 0
24.32 0.005 0
24.4 0.005 0
24.48 0.005 0
24.56 0.005 0
24.64 0.005 0
24.72 0.005 0
24.8 0.005 0
24.88 0.005 0
24.96 0.005 0
25.04 0.005 0
25.12 0.005 0
25.2 0.005 0
25.28 0.005 0
25.36 0.005 0
25.44 0.005 0
25.52 0.005 0
25.6 0.005 0
25.68 0.005 0
25.76 0.005 0
25.84 0.005 0
25.92 0.005 0
26 0.005 0
26.08 0.005 0
26.16 0.005 0
26.24 0.005 0
26.32 0.005 0
26.4 0.005 0
26.48 0.005 0
26.56 0.005 0
26.64 0.005 0
26.72 0.005 0
26.8 0.005 0
26.88 0.005 0
26.96 0.005 0
27.04 0.005 0
27.12 0.005 0
27.2 0.005 0
27.28 0.005 0
27.36 0.005 0
27.44 0.005 0
27.52 0.005 0
27.6 0.005 0
27.68 0.005 0
27.76 0.005 0
27.84 0.005 0
27.92 0.005 0
28 0.005 0
28.08 0.005 0
28.16 0.005 0
28.24 0.005 0
28.32 0.005 0
28.4 0.005 0
28.48 0.005 0
28.56 0.005 0
28.64 0.005 0
28.72 0.005 0
28.8 0.005 0
28.88 0.005 0
28.96 0.005 0
29.04 0.005 0
29.12 0.005 0
29.2 0.005 0
29.28 0.005 0
29.36 0.005 0
29.44 0.005 0
29.52 0.005 0
29.6 0.005 0
29.68 0.005 0
29.76 0.005 0
29.84 0.005 0
29.92 0.005 0
30 0.005 0
30.08 0.005 0
30.16 0.005 0
30.24 0.005 0
30.32 0.005 0
30.4 0.005 0
30.48 0.005 0
30.56 0.005 0
30.64 0.005 0
30.72 0.005 0
30.8 0.005 0
30.88 0.005 0
30.96 0.005 0
31.04 0.005 0
31.12 0.005 0
31.2 0.005 0
31.28 0.005 0
31.36 0.005 0
31.44 0.005 0
31.52 0.005 0
31.6 0.005 0
31.68 0.005 0
31.76 0.005 0
31.84 0.005 0
31.92 0.005 0
0 0.01 0
0.08 0.01 0
0.16 0.01 0
0.24 0.01 0
0.32 0.01 0
0.4 0.01 0
0.48 0.01 0
0.56 0.01 0
0.64 0.01 0
0.72 0.01 0
0.8 0.01 0
0.88 0.01 0
0.96 0.01 0
1.04 0.01 0
1.12 0.01 0
1.2 0.01 0
1.28 0.01 0
1.36 0.01 0
1.44 0.01 0
1.52 0.01 0
1.6 0.01 0
1.68 0.01 0
1.76 0.01 0
1.84 0.01 0
1.92 0.01 0
2 0.01 0
2.08 0.01 0
2.16 0.01 0
2.24 0.01 0
2.32 0.01 0
2.4 0.01 0
2.48 0.01 0
2.56 0.01 0
2.64 0.01 0
2.72 0.01 0
2.8 0.01 0
2.88 0.01 0
2.96 0.01 0
3.04 0.01 0
3.12 0.01 0
3.2 0.01 0
3.28 0.01 0
3.36 0.01 0
3.44 0.01 0
3.52 0.01 0
3.6 0.01 0
3.68 0.01 0
3.76 0.01 0
3.84 0.01 0
3.92 0.01 0
4 0.01 0
4.08 0.01 0
4.16 0.01 0
4.24 0.01 0
4.32 0.01 0
4.4 0.01 0
4.48 0.01 0
4.56 0.01 0
4.64 0.01 0
4.72 0.01 0
4.8 0.01 0
4.88 0.01 0
4.96 0.01 0
5.04 0.01 0
5.12 0.01 0
[...]
POINT_DATA 80000

SCALARS u float 1
LOOKUP_TABLE default
0
-0.131663
-0.0682697
-0.0522966
-0.0444206
-0.0395776
-0.0362606
-0.0338336
-0.0319737
-0.0304972
-0.0292912
-0.028283
-0.0274236
-0.0266791
-0.0260253
-0.0254446
-0.0249239
-0.0244531
-0.0240248
-0.0236328
-0.0232723
-0.0229393
-0.0226304
-0.0223431
-0.0220752
-0.021825
-0.0215906
-0.0213707
-0.0211638
-0.0209691
-0.0207859
-0.0206138
-0.0204522
-0.0203003
-0.0201574
-0.0200234
-0.0198986
-0.0197839
-0.01968
-0.0195869
-0.0195041
-0.0194303
-0.0193641
-0.0193042
-0.01925
-0.0192012
-0.0191578
-0.0191195
-0.0190858
-0.0190559
-0.0190287
-0.0190034
-0.0189793
-0.0189563
-0.0189345
-0.0189143
-0.0188963
-0.0188808
-0.0188681
-0.0188581
-0.0188506
-0.0188454
-0.018842
-0.0188401
-0.0188392
-0.018839
-0.0188393
-0.01884
-0.0188408
-0.0188417
-0.0188427
-0.0188438
-0.0188448
-0.0188459
-0.018847
-0.0188481
-0.0188493
-0.0188504
-0.0188515
-0.0188527
-0.0188538
-0.0188549
-0.0188561
-0.0188572
-0.0188584
-0.0188595
-0.0188607
-0.0188618
-0.018863
-0.0188641
-0.0188653
-0.0188664
-0.0188676
-0.0188687
-0.0188699
-0.018871
-0.0188722
-0.0188733
-0.0188745
-0.0188756
-0.0188768
-0.0188779
-0.0188791
-0.0188802
-0.0188814
-0.0188825
-0.0188837
-0.0188848
-0.018886
-0.0188871
-0.0188883
-0.0188894
-0.0188906
-0.0188918
-0.0188929
-0.0188941
-0.0188952
-0.0188964
-0.0188975
-0.0188987
-0.0188998
-0.018901
-0.0189022
-0.0189033
-0.0189045
-0.0189056
-0.0189068
-0.018908
-0.0189091
-0.0189103
-0.0189114
-0.0189126
-0.0189138
-0.0189149
-0.0189161
-0.0189173
-0.0189184
-0.0189196
-0.0189208
-0.0189219
-0.0189231
-0.0189243
-0.0189254
-0.0189266
-0.0189278
-0.0189289
-0.0189301
-0.0189313
-0.0189324
-0.0189336
-0.0189348
-0.018936
-0.0189371
-0.0189383
-0.0189395
-0.0189407
-0.0189418
-0.018943
-0.0189442
-0.0189454
-0.0189466
-0.0189478
-0.0189489
-0.0189501
-0.0189513
-0.0189525
-0.0189537
-0.0189549
-0.0189561
-0.0189573
-0.0189584
-0.0189596
-0.0189608
-0.018962
-0.0189632
-0.0189644
-0.0189656
-0.0189668
-0.018968
-0.0189692
-0.0189704
-0.0189716
-0.0189728
-0.018974
-0.0189753
-0.0189765
-0.0189777
-0.0189789
-0.0189801
-0.0189813
-0.0189825
-0.0189838
-0.018985
-0.0189862
-0.0189874
-0.0189886
-0.0189899
-0.0189911
-0.0189923
-0.0189935
-0.0189948
-0.018996
-0.0189972
-0.0189985
-0.0189997
-0.0190009
-0.0190022
-0.0190034
-0.0190047
-0.0190059
-0.0190071
-0.0190084
-0.0190096
-0.0190109
-0.0190121
-0.0190134
-0.0190146
-0.0190159
-0.0190171
-0.0190184
-0.0190196
-0.0190209
-0.0190222
-0.0190234
-0.0190247
-0.019026
-0.0190272
-0.0190285
-0.0190297
-0.019031
-0.0190323
-0.0190336
-0.0190348
-0.0190361
-0.0190374
-0.0190387
-0.0190399
-0.0190412
-0.0190425
-0.0190438
-0.0190451
-0.0190463
-0.0190476
-0.0190489
-0.0190502
-0.0190515
-0.0190528
-0.0190541
-0.0190554
-0.0190566
-0.0190579
-0.0190592
-0.0190605
-0.0190618
-0.0190631
-0.0190644
-0.0190657
-0.019067
-0.0190683
-0.0190696
-0.0190709
-0.0190723
-0.0190736
-0.0190749
-0.0190762
-0.0190775
-0.0190788
-0.0190801
-0.0190814
-0.0190827
-0.0190841
-0.0190854
-0.0190867
-0.019088
-0.0190893
-0.0190907
-0.019092
-0.0190933
-0.0190946
-0.019096
-0.0190973
-0.0190986
-0.0190999
-0.0191013
-0.0191026
-0.0191039
-0.0191053
-0.0191066
-0.0191079
-0.0191093
-0.0191106
-0.0191119
-0.0191133
-0.0191146
-0.019116
-0.0191173
-0.0191186
-0.01912
-0.0191213
-0.0191227
-0.019124
-0.0191254
-0.0191267
-0.0191281
-0.0191294
-0.0191308
-0.0191321
-0.0191335
-0.0191348
-0.0191362
-0.0191375
-0.0191389
-0.0191403
-0.0191416
-0.019143
-0.0191443
-0.0191457
-0.0191471
-0.0191484
-0.0191498
-0.0191511
-0.0191525
-0.0191539
-0.0191552
-0.0191566
-0.019158
-0.0191594
-0.0191607
-0.0191621
-0.0191635
-0.0191649
-0.0191662
-0.0191676
-0.019169
-0.0191704
-0.0191717
-0.0191731
-0.0191745
-0.0191759
-0.0191773
-0.0191787
-0.01918
-0.0191814
-0.0191828
-0.0191842
-0.0191856
-0.019187
-0.0191884
-0.0191898
-0.0191912
-0.0191925
-0.0191939
-0.0191953
-0.0191967
-0.0191981
-0.0191995
-0.0192009
-0.0192023
-0.0192037
-0.0192051
-0.0192065
-0.0192079
-0.0192093
-0.0192108
-0.0192122
-0.0192136
-0.019215
-0.0192164
-0.0192178
-0.0192192
-0.0192206
-0.0192221
-0.0192235
-0.0192249
-0.0192263
-0.0192277
-0.0192291
-0.0192306
-0.019232
-0.0192334
-0.0192348
-0.0192363
-0.0192377
-0.0192391
-0.0192405
-0.019242
-0.0192434
-0.0192449
-0.0192462
-0.0192477
-0.0192491
-0.0192506
-0.0192521
-0.0192534
-0.0192552
-0.0192561
-0.0192585
-0.0192563
-0.0192563
-0.0192563
1
0.131663
0.0682697
0.0522966
0.0444206
0.0395776
0.0362606
0.0338336
0.0319737
0.0304972
0.0292912
0.028283
0.0274236
0.0266791
0.0260253
0.0254446
0.0249239
0.0244531
0.0240248
0.0236328
0.0232723
0.0229393
0.0226304
0.0223431
0.0220752
0.021825
0.0215906
0.0213707
0.0211638
0.0209691
0.0207859
0.0206138
0.0204522
0.0203003
0.0201574
0.0200234
0.0198986
0.0197839
0.01968
0.0195869
0.0195041
0.0194303
0.0193641
0.0193042
0.01925
0.0192012
0.0191578
0.0191195
0.0190858
0.0190559
0.0190287
0.0190034
0.0189793
0.0189563
0.0189345
0.0189143
0.0188963
0.0188808
0.0188681
0.0188581
0.0188506
0.0188454
0.018842
0.0188401
0.0188392
0.018839
0.0188393
0.01884
0.0188408
0.0188417
0.0188427
0.0188438
0.0188448
0.0188459
0.018847
0.0188481
0.0188493
0.0188504
0.0188515
0.0188527
0.0188538
0.0188549
0.0188561
0.0188572
0.0188584
0.0188595
0.0188607
0.0188618
0.018863
0.0188641
0.0188653
0.0188664
0.0188676
0.0188687
0.0188699
0.018871
0.0188722
0.0188733
0.0188745
0.0188756
0.0188768
0.0188779
0.0188791
0.0188802
0.0188814
0.0188825
0.0188837
0.0188848
0.018886
0.0188871
0.0188883
0.0188894
0.0188906
0.0188918
0.0188929
0.0188941
0.0188952
0.0188964
0.0188975
0.0188987
0.0188998
0.018901
0.0189022
0.0189033
0.0189045
0.0189056
0.0189068
0.018908
0.0189091
0.0189103
0.0189114
0.0189126
0.0189138
0.0189149
0.0189161
0.0189173
0.0189184
0.0189196
0.0189208
0.0189219
0.0189231
0.0189243
0.0189254
0.0189266
0.0189278
0.0189289
0.0189301
0.0189313
0.0189324
0.0189336
0.0189348
0.018936
0.0189371
0.0189383
0.0189395
0.0189407
0.0189418
0.018943
0.0189442
0.0189454
0.0189466
0.0189478
0.0189489
0.0189501
0.0189513
0.0189525
0.0189537
0.0189549
0.0189561
0.0189573
0.0189584
0.0189596
0.0189608
0.018962
0.0189632
0.0189644
0.0189656
0.0189668
0.018968
0.0189692
0.0189704
0.0189716
0.0189728
0.018974
0.0189753
0.0189765
0.0189777
0.0189789
0.0189801
0.0189813
0.0189825
0.0189838
0.018985
0.0189862
0.0189874
0.0189886
0.0189899
0.0189911
0.0189923
0.0189935
0.0189948
0.018996
0.0189972
0.0189985
0.0189997
0.0190009
0.0190022
0.0190034
0.0190047
0.0190059
0.0190071
0.0190084
0.0190096
0.0190109
0.0190121
0.0190134
0.0190146
0.0190159
0.0190171
0.0190184
0.0190196
0.0190209
0.0190222
0.0190234
0.0190247
0.019026
0.0190272
0.0190285
0.0190297
0.019031
0.0190323
0.0190336
0.0190348
0.0190361
0.0190374
0.0190387
0.0190399
0.0190412
0.0190425
0.0190438
0.0190451
0.0190463
0.0190476
0.0190489
0.0190502
0.0190515
0.0190528
0.0190541
0.0190554
0.0190566
0.0190579
0.0190592
0.0190605
0.0190618
0.0190631
0.0190644
0.0190657
0.019067
0.0190683
0.0190696
0.0190709
0.0190723
0.0190736
0.0190749
0.0190762
0.0190775
0.0190788
0.0190801
0.0190814
0.0190827
0.0190841
0.0190854
0.0190867
0.019088
0.0190893
0.0190907
0.019092
0.0190933
0.0190946
0.019096
0.0190973
0.0190986
0.0190999
0.0191013
0.0191026
0.0191039
0.0191053
0.0191066
0.0191079
0.0191093
0.0191106
0.0191119
0.0191133
0.0191146
0.019116
0.0191173
0.0191186
0.01912
0.0191213
0.0191227
0.019124
0.0191254
0.0191267
0.0191281
0.0191294
0.0191308
0.0191321
0.0191335
0.0191348
0.0191362
0.0191375
0.0191389
0.0191403
0.0191416
0.019143
0.0191443
0.0191457
0.0191471
0.0191484
0.0191498
0.0191511
0.0191525
0.0191539
0.0191552
0.0191566
0.019158
0.0191594
0.0191607
0.0191621
0.0191635
0.0191649
0.0191662
0.0191676
0.019169
0.0191704
0.0191717
0.0191731
0.0191745
0.0191759
0.0191773
0.0191787
0.01918
0.0191814
0.0191828
0.0191842
0.0191856
0.019187
0.0191884
0.0191898
0.0191912
0.0191925
0.0191939
0.0191953
0.0191967
0.0191981
0.0191995
0.0192009
0.0192023
0.0192037
0.0192051
0.0192065
0.0192079
0.0192093
0.0192108
0.0192122
0.0192136
0.019215
0.0192164
0.0192178
0.0192192
0.0192206
0.0192221
0.0192235
0.0192249
0.0192263
0.0192277
0.0192291
0.0192306
0.019232
0.0192334
0.0192348
0.0192363
0.0192377
0.0192391
0.0192405
0.019242
0.0192434
0.0192449
0.0192462
0.0192477
0.0192491
0.0192506
0.0192521
0.0192534
0.0192552
0.0192561
0.0192585
0.0192563
0.0192563
0.0192563
1
0.344885
0.200669
0.154969
0.131897
0.117601
0.107771
0.100561
0.0950281
0.0906325
0.0870417
0.08404
0.0814823
0.0792675
0.0773236
0.0755979
0.0740514
0.072654
0.0713831
0.0702205
0.0691518
0.0681648
0.0672498
0.0663989
0.0656058
0.0648651
0.0641718
0.0635212
0.0629096
0.0623344
0.0617939
0.0612863
0.06081
0.0603627
0.0599428
0.0595499
0.0591854
0.0588513
0.0585493
0.0582793
0.0580392
0.0578251
0.057633
0.0574595
0.0573027
0.0571618
0.0570365
0.0569258
0.056828
0.0567406
0.056661
0.0565867
0.0565164
0.0564498
0.0563874
0.0563304
0.05628
0.0562373
0.0562025
0.0561756
0.0561558
0.0561422
0.0561337
0.0561289
0.056127
0.0561269
0.0561282
0.0561303
0.0561328
0.0561356
0.0561387
0.0561418
0.056145
0.0561482
0.0561515
0.0561548
0.0561582
0.0561615
0.0561649
0.0561683
0.0561717
0.0561751
0.0561785
0.0561819
0.0561853
0.0561887
0.0561921
0.0561956
0.056199
0.0562024
0.0562058
0.0562092
0.0562127
0.0562161
0.0562195
0.0562229
0.0562264
0.0562298
0.0562332
0.0562366
0.0562401
0.0562435
0.0562469
0.0562504
0.0562538
0.0562572
0.0562607
0.0562641
0.0562676
0.056271
0.0562744
0.0562779
0.0562813
0.0562848
0.0562882
0.0562917
0.0562951
0.0562986
0.056302
0.0563055
0.0563089
0.0563124
0.0563158
0.0563193
0.0563228
0.0563262
0.0563297
0.0563332
0.0563366
0.0563401
0.0563436
0.0563471
0.0563505
0.056354
0.0563575
0.056361
0.0563645
0.0563679
0.0563714
0.0563749
0.0563784
0.0563819
0.0563854
0.0563889
0.0563924
0.0563959
0.0563994
0.0564029
0.0564064
0.0564099
0.0564135
0.056417
0.0564205
0.056424
0.0564275
0.0564311
0.0564346
0.0564381
0.0564417
0.0564452
0.0564488
0.0564523
0.0564559
0.0564594
0.056463
0.0564665
0.0564701
0.0564736
0.0564772
0.0564808
0.0564844
0.0564879
0.0564915
0.0564951
0.0564987
0.0565023
0.0565059
0.0565095
0.0565131
0.0565167
0.0565203
0.0565239
0.0565275
0.0565312
0.0565348
0.0565384
0.056542
0.0565457
0.0565493
0.0565529
0.0565566
0.0565602
0.0565639
0.0565676
0.0565712
0.0565749
0.0565786
0.0565822
0.0565859
0.0565896
0.0565933
0.056597
0.0566006
0.0566043
0.056608
0.0566117
0.0566155
0.0566192
0.0566229
0.0566266
0.0566303
0.056634
0.0566378
0.0566415
0.0566453
0.056649
0.0566527
0.0566565
0.0566602
0.056664
0.0566678
0.0566715
0.0566753
0.0566791
0.0566828
0.0566866
0.0566904
0.0566942
0.056698
0.0567018
0.0567056
0.0567094
0.0567132
0.056717
0.0567208
0.0567246
0.0567284
0.0567322
0.0567361
0.0567399
0.0567437
0.0567476
0.0567514
0.0567552
0.0567591
0.0567629
0.0567668
0.0567706
0.0567745
0.0567784
0.0567822
0.0567861
0.05679
0.0567938
0.0567977
0.0568016
0.0568055
0.0568094
0.0568133
0.0568171
0.056821
0.0568249
0.0568288
0.0568327
0.0568367
0.0568406
0.0568445
0.0568484
0.0568523
0.0568562
0.0568602
0.0568641
0.056868
0.056872
0.0568759
0.0568799
0.0568838
0.0568877
0.0568917
0.0568957
0.0568996
0.0569036
0.0569075
0.0569115
0.0569155
0.0569194
0.0569234
0.0569274
0.0569314
0.0569353
0.0569393
0.0569433
0.0569473
0.0569513
0.0569553
0.0569593
0.0569633
0.0569673
0.0569713
0.0569753
0.0569793
0.0569834
0.0569874
0.0569914
0.0569954
0.0569994
0.0570035
0.0570075
0.0570115
0.0570156
0.0570196
0.0570237
0.0570277
0.0570318
0.0570358
0.0570399
0.0570439
0.057048
0.0570521
0.0570561
0.0570602
0.0570643
0.0570683
0.0570724
0.0570765
0.0570806
0.0570847
0.0570888
0.0570928
0.0570969
0.057101
0.0571051
0.0571092
0.0571133
0.0571175
0.0571216
0.0571257
0.0571298
0.0571339
0.057138
0.0571422
0.0571463
0.0571504
0.0571546
0.0571587
0.0571628
0.057167
0.0571711
0.0571753
0.0571794
0.0571836
0.0571877
0.0571919
0.0571961
0.0572002
0.0572044
0.0572086
0.0572127
0.0572169
0.0572211
0.0572253
0.0572295
0.0572336
0.0572379
0.057242
0.0572462
0.0572504
0.0572547
0.0572588
0.0572631
0.0572673
0.0572715
0.0572757
0.0572799
0.0572841
0.0572884
0.0572926
0.0572969
0.0573011
0.0573054
0.0573095
0.0573139
0.057318
0.0573224
0.0573265
0.0573309
0.057335
0.0573394
0.0573436
0.057348
0.0573522
0.0573565
0.0573611
0.057365
0.0573703
0.057373
0.0573799
0.0573747
0.0573747
0.0573747
1
0.518767
0.327404
0.25535
0.217852
0.194407
0.178216
0.166312
0.157163
0.149889
0.143945
0.138976
0.134742
0.131078
0.127862
0.125009
0.122453
0.120145
0.118046
0.116127
0.114363
0.112734
0.111225
0.109821
0.108514
0.107293
0.10615
0.105078
0.104071
0.103125
0.102235
0.101401
0.100618
0.0998838
0.0991952
0.0985523
0.0979572
0.097413
0.0969219
0.0964832
0.096093
0.0957451
0.095433
0.0951514
0.0948973
0.0946693
0.0944663
0.0942867
0.0941275
0.0939848
0.0938543
0.0937327
0.0936181
0.0935101
0.0934099
0.0933192
0.0932398
0.093173
0.0931192
0.093078
0.0930481
0.0930278
0.0930152
0.0930086
0.0930062
0.0930066
0.0930091
0.0930127
0.093017
0.0930218
0.0930268
0.093032
0.0930373
0.0930427
0.0930482
0.0930537
0.0930592
0.0930648
0.0930704
0.093076
0.0930816
0.0930872
0.0930929
0.0930985
0.0931041
0.0931098
0.0931154
0.0931211
0.0931268
0.0931324
0.0931381
0.0931437
0.0931494
0.0931551
0.0931607
0.0931664
0.0931721
0.0931778
0.0931834
0.0931891
0.0931948
0.0932005
0.0932062
0.0932119
0.0932176
0.0932233
0.093229
0.0932347
0.0932404
0.0932461
0.0932518
0.0932575
0.0932632
0.0932689
0.0932746
0.0932804
0.0932861
0.0932918
0.0932975
0.0933033
0.093309
0.0933147
0.0933205
0.0933262
0.093332
0.0933377
0.0933435
0.0933492
0.093355
0.0933607
0.0933665
0.0933723
0.093378
0.0933838
0.0933896
0.0933954
0.0934012
0.093407
0.0934128
0.0934186
0.0934244
0.0934302
0.093436
0.0934418
0.0934476
0.0934534
0.0934592
0.0934651
0.0934709
0.0934768
0.0934826
0.0934884
0.0934943
0.0935002
0.093506
0.0935119
0.0935178
0.0935236
0.0935295
0.0935354
0.0935413
0.0935472
0.0935531
0.093559
0.0935649
0.0935708
0.0935768
0.0935827
0.0935886
0.0935946
0.0936005
0.0936064
0.0936124
0.0936184
0.0936243
0.0936303
0.0936363
0.0936423
0.0936483
0.0936543
0.0936603
0.0936663
0.0936723
0.0936783
0.0936843
0.0936903
0.0936964
0.0937024
0.0937085
0.0937145
0.0937206
0.0937267
0.0937327
0.0937388
0.0937449
0.093751
0.0937571
0.0937632
0.0937693
0.0937754
0.0937815
0.0937877
0.0937938
0.0937999
0.0938061
0.0938122
0.0938184
0.0938245
0.0938307
0.0938369
0.0938431
0.0938493
0.0938555
0.0938617
0.0938679
0.0938741
0.0938803
0.0938865
0.0938927
0.093899
0.0939052
0.0939115
0.0939177
0.093924
0.0939302
0.0939365
0.0939428
0.0939491
0.0939554
0.0939617
0.0939679
0.0939743
0.0939806
0.0939869
0.0939932
0.0939995
0.0940059
0.0940122
0.0940185
0.0940249
0.0940312
0.0940376
0.094044
0.0940503
0.0940567
0.0940631
0.0940695
0.0940759
0.0940823
0.0940887
0.0940951
0.0941015
0.0941079
0.0941143
0.0941207
0.0941272
0.0941336
0.0941401
0.0941465
0.094153
0.0941594
0.0941659
0.0941723
0.0941788
0.0941853
0.0941918
0.0941983
0.0942047
0.0942112
0.0942177
0.0942243
0.0942308
0.0942373
0.0942438
0.0942503
0.0942569
0.0942634
0.0942699
0.0942765
0.094283
0.0942896
0.0942961
0.0943027
0.0943093
0.0943158
0.0943224
0.094329
0.0943356
0.0943422
0.0943488
0.0943554
0.094362
0.0943686
0.0943752
0.0943818
0.0943884
0.0943951
0.0944017
0.0944083
0.094415
0.0944216
0.0944283
0.0944349
0.0944416
0.0944482
0.0944549
0.0944616
0.0944683
0.0944749
0.0944816
0.0944883
0.094495
0.0945017
0.0945084
0.0945151
0.0945219
0.0945286
0.0945353
0.094542
0.0945488
0.0945555
0.0945622
0.094569
0.0945757
0.0945825
0.0945893
0.094596
0.0946028
0.0946096
0.0946163
0.0946231
0.0946299
0.0946367
0.0946435
0.0946503
0.0946571
0.0946639
0.0946707
0.0946776
0.0946844
0.0946912
0.094698
0.0947049
0.0947117
0.0947186
0.0947254
0.0947323
0.0947392
0.094746
0.0947529
0.0947598
0.0947667
0.0947735
0.0947804
0.0947873
0.0947942
0.0948011
0.0948081
0.094815
0.0948219
0.0948288
0.0948358
0.0948427
0.0948496
0.0948566
0.0948635
0.0948705
0.0948774
0.0948844
0.0948914
0.0948983
0.0949053
0.0949123
0.0949193
0.0949263
0.0949333
0.0949402
0.0949473
0.0949543
0.0949614
0.0949683
0.0949755
0.0949823
0.0949896
0.0949964
0.0950037
0.0950105
0.0950178
0.0950247
0.0950319
0.095039
0.0950461
0.0950536
0.0950601
0.0950687
0.0950735
0.0950846
0.0950776
0.0950776
0.0950776
1
0.660889
0.446896
0.352881
0.302034
0.269855
0.247507
0.231025
0.218334
0.208233
0.199974
0.193069
0.187186
0.182095
0.177629
0.173668
0.17012
0.166917
0.164006
0.161344
0.158898
0.156641
0.15455
0.152606
0.150795
0.149104
0.147522
0.146038
0.144645
0.143336
0.142107
0.140954
0.139873
0.138859
0.13791
0.137026
0.136209
0.135463
0.134791
0.134191
0.133657
0.133181
0.132754
0.132369
0.132023
0.131712
0.131435
0.131189
0.130971
0.130775
0.130595
0.130427
0.13027
0.130123
0.129988
0.129866
0.12976
0.129672
0.129602
0.129549
0.129511
0.129485
0.129469
0.129461
0.129459
0.12946
0.129464
0.129469
0.129475
0.129482
0.129489
0.129497
0.129504
0.129511
0.129519
0.129527
0.129534
0.129542
0.12955
0.129558
0.129565
0.129573
0.129581
0.129589
0.129597
0.129605
0.129613
0.12962
0.129628
0.129636
0.129644
0.129652
0.12966
0.129668
0.129676
0.129683
0.129691
0.129699
0.129707
0.129715
0.129723
0.129731
0.129739
0.129747
0.129755
0.129762
0.12977
0.129778
0.129786
0.129794
0.129802
0.12981
0.129818
0.129826
0.129834
0.129842
0.12985
0.129858
0.129866
0.129874
0.129882
0.12989
0.129898
0.129906
0.129914
0.129922
0.12993
0.129938
0.129946
0.129954
0.129962
0.12997
0.129978
0.129986
0.129994
0.130002
0.13001
0.130018
0.130026
0.130035
0.130043
0.130051
0.130059
0.130067
0.130075
0.130083
0.130091
0.130099
0.130108
0.130116
0.130124
0.130132
0.13014
0.130148
0.130156
0.130165
0.130173
0.130181
0.130189
0.130197
0.130206
0.130214
0.130222
0.13023
0.130239
0.130247
0.130255
0.130263
0.130272
0.13028
0.130288
0.130297
0.130305
0.130313
0.130321
0.13033
0.130338
0.130346
0.130355
0.130363
0.130372
0.13038
0.130388
0.130397
0.130405
0.130413
0.130422
0.13043
0.130439
0.130447
0.130456
0.130464
0.130473
0.130481
0.13049
0.130498
0.130506
0.130515
0.130524
0.130532
0.130541
0.130549
0.130558
0.130566
0.130575
0.130583
0.130592
0.1306
0.130609
0.130618
0.130626
0.130635
0.130644
0.130652
0.130661
0.130669
0.130678
0.130687
0.130695
0.130704
0.130713
0.130722
0.13073
0.130739
0.130748
0.130756
0.130765
0.130774
0.130783
0.130791
0.1308
0.130809
0.130818
0.130826
0.130835
0.130844
0.130853
0.130862
0.130871
0.130879
0.130888
0.130897
0.130906
0.130915
0.130924
0.130932
0.130941
0.13095
0.130959
0.130968
0.130977
0.130986
0.130995
0.131004
0.131013
0.131022
0.131031
0.13104
0.131048
0.131057
0.131066
0.131075
0.131084
0.131093
0.131102
0.131111
0.13112
0.131129
0.131138
0.131148
0.131157
0.131166
0.131175
0.131184
0.131193
0.131202
0.131211
0.13122
0.131229
0.131238
0.131247
0.131256
0.131266
0.131275
0.131284
0.131293
0.131302
0.131311
0.13132
0.13133
0.131339
0.131348
0.131357
0.131366
0.131376
0.131385
0.131394
0.131403
0.131412
0.131422
0.131431
0.13144
0.131449
0.131459
0.131468
0.131477
0.131486
0.131496
0.131505
0.131514
0.131524
0.131533
0.131542
0.131551
0.131561
0.13157
0.131579
0.131589
0.131598
0.131608
0.131617
0.131626
0.131636
0.131645
0.131654
0.131664
0.131673
0.131683
0.131692
0.131701
0.131711
0.13172
0.13173
0.131739
0.131749
0.131758
0.131768
0.131777
0.131786
0.131796
0.131805
0.131815
0.131824
0.131834
0.131843
0.131853
0.131863
0.131872
0.131882
0.131891
0.131901
0.13191
0.13192
0.131929
0.131939
0.131949
0.131958
0.131968
0.131977
0.131987
0.131997
0.132006
0.132016
0.132026
0.132035
0.132045
0.132054
0.132064
0.132074
0.132084
0.132093
0.132103
0.132113
0.132122
0.132132
0.132142
0.132151
0.132161
0.132171
0.132181
0.13219
0.1322
0.13221
0.13222
0.132229
0.132239
0.132249
0.132259
0.132269
0.132279
0.132289
0.132298
0.132309
0.132318
0.13233
0.132337
0.132352
0.132344
0.132344
0.132344
1
0.776803
0.557828
0.446882
0.384106
0.343749
0.315517
0.294611
0.278477
0.265616
0.255091
0.246288
0.238788
0.232297
0.226605
0.221557
0.217037
0.212958
0.209251
0.205863
0.20275
0.199878
0.197217
0.194745
0.192442
0.190293