# vtk DataFile Version 2.0
FlowField
ASCII
DATASET STRUCTURED_GRID
DIMENSIONS 400 1 200
POINTS 80000 float
0 0 0
0.08 0 0
0.16 0 0
0.24 0 0
0.32 0 0
0.4 0 0
0.48 0 0
0.56 0 0
0.64 0 0
0.72 0 0
0.8 0 0
0.88 0 0
0.96 0 0
1.04 0 0
1.12 0 0
1.2 0 0
1.28 0 0
1.36 0 0
1.44 0 0
1.52 0 0
1.6 0 0
1.68 0 0
1.76 0 0
1.84 0 0
1.92 0 0
2 0 0
2.08 0 0
2.16 0 0
2.24 0 0
2.32 0 0
2.4 0 0
2.48 0 0
2.56 0 0
2.64 0 0
2.72 0 0
2.8 0 0
2.88 0 0
2.96 0 0
3.04 0 0
3.12 0 0
3.2 0 0
3.28 0 0
3.36 0 0
3.44 0 0
3.52 0 0
3.6 0 0
3.68 0 0
3.76 0 0
3.84 0 0
3.92 0 0
4 0 0
4.08 0 0
4.16 0 0
4.24 0 0
4.32 0 0
4.4 0 0
4.48 0 0
4.56 0 0
4.64 0 0
4.72 0 0
4.8 0 0
4.88 0 0
4.96 0 0
5.04 0 0
5.12 0 0
5.2 0 0
5.28 0 0
5.36 0 0
5.44 0 0
5.52 0 0
5.6 0 0
5.68 0 0
5.76 0 0
5.84 0 0
5.92 0 0
6 0 0
6.08 0 0
6.16 0 0
6.24 0 0
6.32 0 0
6.4 0 0
6.48 0 0
6.56 0 0
6.64 0 0
6.72 0 0
6.8 0 0
6.88 0 0
6.96 0 0
7.04 0 0
7.12 0 0
7.2 0 0
7.28 0 0
7.36 0 0
7.44 0 0
7.52 0 0
7.6 0 0
7.68 0 0
7.76 0 0
7.84 0 0
7.92 0 0
8 0 0
8.08 0 0
8.16 0 0
8.24 0 0
8.32 0 0
8.4 0 0
8.48 0 0
8.56 0 0
8.64 0 0
8.72 0 0
8.8 0 0
8.88 0 0
8.96 0 0
9.04 0 0
9.12 0 0
9.2 0 0
9.28 0 0
9.36 0 0
9.44 0 0
9.52 0 0
9.6 0 0
9.68 0 0
9.76 0 0
9.84 0 0
9.92 0 0
10 0 0
10.08 0 0
10.16 0 0
10.24 0 0
10.32 0 0
10.4 0 0
10.48 0 0
10.56 0 0
10.64 0 0
10.72 0 0
10.8 0 0
10.88 0 0
10.96 0 0
11.04 0 0
11.12 0 0
11.2 0 0
11.28 0 0
11.36 0 0
11.44 0 0
11.52 0 0
11.6 0 0
11.68 0 0
11.76 0 0
11.84 0 0
11.92 0 0
12 0 0
12.08 0 0
12.16 0 0
12.24 0 0
12.32 0 0
12.4 0 0
12.48 0 0
12.56 0 0
12.64 0 0
12.72 0 0
12.8 0 0
12.88 0 0
12.96 0 0
13.04 0 0
13.12 0 0
13.2 0 0
13.28 0 0
13.36 0 0
13.44 0 0
13.52 0 0
13.6 0 0
13.68 0 0
13.76 0 0
13.84 0 0
13.92 0 0
14 0 0
14.08 0 0
14.16 0 0
14.24 0 0
14.32 0 0
14.4 0 0
14.48 0 0
14.56 0 0
14.64 0 0
14.72 0 0
14.8 0 0
14.88 0 0
14.96 0 0
15.04 0 0
15.12 0 0
15.2 0 0
15.28 0 0
15.36 0 0
15.44 0 0
15.52 0 0
15.6 0 0
15.68 0 0
15.76 0 0
15.84 0 0
15.92 0 0
16 0 0
16.08 0 0
16.16 0 0
16.24 0 0
16.32 0 0
16.4 0 0
16.48 0 0
16.56 0 0
16.64 0 0
16.72 0 0
16.8 0 0
16.88 0 0
16.96 0 0
17.04 0 0
17.12 0 0
17.2 0 0
17.28 0 0
17.36 0 0
17.44 0 0
17.52 0 0
17.6 0 0
17.68 0 0
17.76 0 0
17.84 0 0
17.92 0 0
18 0 0
18.08 0 0
18.16 0 0
18.24 0 0
18.32 0 0
18.4 0 0
18.48 0 0
18.56 0 0
18.64 0 0
18.72 0 0
18.8 0 0
18.88 0 0
18.96 0 0
19.04 0 0
19.12 0 0
19.2 0 0
19.28 0 0
19.36 0 0
19.44 0 0
19.52 0 0
19.6 0 0
19.68 0 0
19.76 0 0
19.84 0 0
19.92 0 0
20 0 0
20.08 0 0
20.16 0 0
20.24 0 0
20.32 0 0
20.4 0 0
20.48 0 0
20.56 0 0
20.64 0 0
20.72 0 0
20.8 0 0
20.88 0 0
20.96 0 0
21.04 0 0
21.12 0 0
21.2 0 0
21.28 0 0
21.36 0 0
21.44 0 0
21.52 0 0
21.6 0 0
21.68 0 0
21.76 0 0
21.84 0 0
21.92 0 0
22 0 0
22.08 0 0
22.16 0 0
22.24 0 0
22.32 0 0
22.4 0 0
22.48 0 0
22.56 0 0
22.64 0 0
22.72 0 0
22.8 0 0
22.88 0 0
22.96 0 0
23.04 0 0
23.12 0 0
23.2 0 0
23.28 0 0
23.36 0 0
23.44 0 0
23.52 0 0
23.6 0 0
23.68 0 0
23.76 0 0
23.84 0 0
23.92 0 0
24 0 0
24.08 0 0
24.16 0 0
24.24 0 0
24.32 0 0
24.4 0 0
24.48 0 0
24.56 0 0
24.64 0 0
24.72 0 0
24.8 0 0
24.88 0 0
24.96 0 0
25.04 0 0
25.12 0 0
25.2 0 0
25.28 0 0
25.36 0 0
25.44 0 0
25.52 0 0
25.6 0 0
25.68 0 0
25.76 0 0
25.84 0 0
25.92 0 0
26 0 0
26.08 0 0
26.16 0 0
26.24 0 0
26.32 0 0
26.4 0 0
26.48 0 0
26.56 0 0
26.64 0 0
26.72 0 0
26.8 0 0
26.88 0 0
26.96 0 0
27.04 0 0
27.12 0 0
27.2 0 0
27.28 0 0
27.36 0 0
27.44 0 0
27.52 0 0
27.6 0 0
27.68 0 0
27.76 0 0
27.84 0 0
27.92 0 0
28 0 0
28.08 0 0
28.16 0 0
28.24 0 0
28.32 0 0
28.4 0 0
28.48 0 0
28.56 0 0
28.64 0 0
28.72 0 0
28.8 0 0
28.88 0 0
28.96 0 0
29.04 0 0
29.12 0 0
29.2 0 0
29.28 0 0
29.36 0 0
29.44 0 0
29.52 0 0
29.6 0 0
29.68 0 0
29.76 0 0
29.84 0 0
29.92 0 0
30 0 0
30.08 0 0
30.16 0 0
30.24 0 0
30.32 0 0
30.4 0 0
30.48 0 0
30.56 0 0
30.64 0 0
30.72 0 0
30.8 0 0
30.88 0 0
30.96 0 0
31.04 0 0
31.12 0 0
31.2 0 0
31.28 0 0
31.36 0 0
31.44 0 0
31.52 0 0
31.6 0 0
31.68 0 0
31.76 0 0
31.84 0 0
31.92 0 0
0 0.005 0
0.08 0.005 0
0.16 0.005 0
0.24 0.005 0
0.32 0.005 0
0.4 0.005 0
0.48 0.005 0
0.56 0.005 0
0.64 0.005 0
0.72 0.005 0
0.8 0.005 0
0.88 0.005 0
0.96 0.005 0
1.04 0.005 0
1.12 0.005 0
1.2 0.005 0
1.28 0.005 0
1.36 0.005 0
1.44 0.005 0
1.52 0.005 0
1.6 0.005 0
1.68 0.005 0
1.76 0.005 0
1.84 0.005 0
1.92 0.005 0
2 0.005 0
2.08 0.005 0
2.16 0.005 0
2.24 0.005 0
2.32 0.005 0
2.4 0.005 0
2.48 0.005 0
2.56 0.005 0
2.64 0.005 0
2.72 0.005 0
2.8 0.005 0
2.88 0.005 0
2.96 0.005 0
3.04 0.005 0
3.12 0.005 0
3.2 0.005 0
3.28 0.005 0
3.36 0.005 0
3.44 0.005 0
3.52 0.005 0
3.6 0.005 0
3.68 0.005 0
3.76 0.005 0
3.84 0.005 0
3.92 0.005 0
4 0.005 0
4.08 0.005 0
4.16 0.005 0
4.24 0.005 0
4.32 0.005 0
4.4 0.005 0
4.48 0.005 0
4.56 0.005 0
4.64 0.005 0
4.72 0.005 0
4.8 0.005 0
4.88 0.005 0
4.96 0.005 0
5.04 0.005 0
5.12 0.005 0
5.2 0.005 0
5.28 0.005 0
5.36 0.005 0
5.44 0.005 0
5.52 0.005 0
5.6 0.005 0
5.68 0.005 0
5.76 0.005 0
5.84 0.005 0
5.92 0.005 0
6 0.005 0
6.08 0.005 0
6.16 0.005 0
6.24 0.005 0
6.32 0.005 0
6.4 0.005 0
6.48 0.005 0
6.56 0.005 0
6.64 0.005 0
6.72 0.005 0
6.8 0.005 0
6.88 0.005 0
6.96 0.005 0
7.04 0.005 0
7.12 0.005 0
7.2 0.005 0
7.28 0.005 0
7.36 0.005 0
7.44 0.005 0
7.52 0.005 0
7.6 0.005 0
7.68 0.005 0
7.76 0.005 0
7.84 0.005 0
7.92 0.005 0
8 0.005 0
8.08 0.005 0
8.16 0.005 0
8.24 0.005 0
8.32 0.005 0
8.4 0.005 0
8.48 0.005 0
8.56 0.005 0
8.64 0.005 0
8.72 0.005 0
8.8 0.005 0
8.88 0.005 0
8.96 0.005 0
9.04 0.005 0
9.12 0.005 0
9.2 0.005 0
9.28 0.005 0
9.36 0.005 0
9.44 0.005 0
9.52 0.005 0
9.6 0.005 0
9.68 0.005 0
9.76 0.005 0
9.84 0.005 0
9.92 0.005 0
10 0.005 0
10.08 0.005 0
10.16 0.005 0
10.24 0.005 0
10.32 0.005 0
10.4 0.005 0
10.48 0.005 0
10.56 0.005 0
10.64 0.005 0
10.72 0.005 0
10.8 0.005 0
10.88 0.005 0
10.96 0.005 0
11.04 0.005 0
11.12 0.005 0
11.2 0.005 0
11.28 0.005 0
11.36 0.005 0
11.44 0.005 0
11.52 0.005 0
11.6 0.005 0
11.68 0.005 0
11.76 0.005 0
11.84 0.005 0
11.92 0.005 0
12 0.005 0
12.08 0.005 0
12.16 0.005 0
12.24 0.005 0
12.32 0.005 0
12.4 0.005 0
12.48 0.005 0
12.56 0.005 0
12.64 0.005 0
12.72 0.005 0
12.8 0.005 0
12.88 0.005 0
12.96 0.005 0
13.04 0.005 0
13.12 0.005 0
13.2 0.005 0
13.28 0.005 0
13.36 0.005 0
13.44 0.005 0
13.52 0.005 0
13.6 0.005 0
13.68 0.005 0
13.76 0.005 0
13.84 0.005 0
13.92 0.005 0
14 0.005 0
14.08 0.005 0
14.16 0.005 0
14.24 0.005 0
14.32 0.005 0
14.4 0.005 0
14.48 0.005 0
14.56 0.005 0
14.64 0.005 0
14.72 0.005 0
14.8 0.005 0
14.88 0.005 0
14.96 0.005 0
15.04 0.005 0
15.12 0.005 0
15.2 0.005 0
15.28 0.005 0
15.36 0.005 0
15.44 0.005 0
15.52 0.005 0
15.6 0.005 0
15.68 0.005 0
15.76 0.005 0
15.84 0.005 0
15.92 0.005 0
16 0.005 0
16.08 0.005 0
16.16 0.005 0
16.24 0.005 0
16.32 0.005 0
16.4 0.005 0
16.48 0.005 0
16.56 0.005 0
16.64 0.005 0
16.72 0.005 0
16.8 0.005 0
16.88 0.005 0
16.96 0.005 0
17.04 0.005 0
17.12 0.005 0
17.2 0.005 0
17.28 0.005 0
17.36 0.005 0
17.44 0.005 0
17.52 0.005 0
17.6 0.005 0
17.68 0.005 0
17.76 0.005 0
17.84 0.005 0
17.92 0.005 0
18 0.005 0
18.08 0.005 0
18.16 0.005 0
18.24 0.005 0
18.32 0.005 0
18.4 0.005 0
18.48 0.005 0
18.56 0.005 0
18.64 0.005 0
18.72 0.005 0
18.8 0.005 0
18.88 0.005 0
18.96 0.005 0
19.04 0.005 0
19.12 0.005 0
19.2 0.005 0
19.28 0.005 0
19.36 0.005 0
19.44 0.005 0
19.52 0.005 0
19.6 0.005 0
19.68 0.005 0
19.76 0.005 0
19.84 0.005 0
19.92 0.005 0
20 0.005 0
20.08 0.005 0
20.16 0.005 0
20.24 0.005 0
20.32 0.005 0
20.4 0.005 0
20.48 0.005 0
20.56 0.005 0
20.64 0.005 0
20.72 0.005 0
20.8 0.005 0
20.88 0.005 0
20.96 0.005 0
21.04 0.005 0
21.12 0.005 0
21.2 0.005 0
21.28 0.005 0
21.36 0.005 0
21.44 0.005 0
21.52 0.005 0
21.6 0.005 0
21.68 0.005 0
21.76 0.005 0
21.84 0.005 0
21.92 0.005 0
22 0.005 0
22.08 0.005 0
22.16 0.005 0
22.24 0.005 0
22.32 0.005 0
22.4 0.005 0
22.48 0.005 0
22.56 0.005 0
22.64 0.005 0
22.72 0.005 0
22.8 0.005 0
22.88 0.005 0
22.96 0.005 0
23.04 0.005 0
23.12 0.005 0
23.2 0.005 0
23.28 0.005 0
23.36 0.005 0
23.44 0.005 0
23.52 0.005 0
23.6 0.005 0
23.68 0.005 0
23.76 0.005 0
23.84 0.005 0
23.92 0.005 0
24 0.005 0
24.08 0.005 0
24.16 0.005 0
24.24 0.005 0
24.32 0.005 0
24.4 0.005 0
24.48 0.005 0
24.56 0.005 0
24.64 0.005 0
24.72 0.005 0
24.8 0.005 0
24.88 0.005 0
24.96 0.005 0
25.04 0.005 0
25.12 0.005 0
25.2 0.005 0
25.28 0.005 0
25.36 0.005 0
25.44 0.005 0
25.52 0.005 0
25.6 0.005 0
25.68 0.005 0
25.76 0.005 0
25.84 0.005 0
25.92 0.005 0
26 0.005 0
26.08 0.005 0
26.16 0.005 0
26.24 0.005 0
26.32 0.005 0
26.4 0.005 0
26.48 0.005 0
26.56 0.005 0
26.64 0.005 0
26.72 0.005 0
26.8 0.005 0
26.88 0.005 0
26.96 0.005 0
27.04 0.005 0
27.12 0.005 0
27.2 0.005 0
27.28 0.005 0
27.36 0.005 0
27.44 0.005 0
27.52 0.005 0
27.6 0.005 0
27.68 0.005 0
27.76 0.005 0
27.84 0.005 0
27.92 0.005 0
28 0.005 0
28.08 0.005 0
28.16 0.005 0
28.24 0.005 0
28.32 0.005 0
28.4 0.005 0
28.48 0.005 0
28.56 0.005 0
28.64 0.005 0
28.72 0.005 0
28.8 0.005 0
28.88 0.005 0
28.96 0.005 0
29.04 0.005 0
29.12 0.005 0
29.2 0.005 0
29.28 0.005 0
29.36 0.005 0
29.44 0.005 0
29.52 0.005 0
29.6 0.005 0
29.68 0.005 0
29.76 0.005 0
29.84 0.005 0
29.92 0.005 0
30 0.005 0
30.08 0.005 0
30.16 0.005 0
30.24 0.005 0
30.32 0.005 0
30.4 0.005 0
30.48 0.005 0
30.56 0.005 0
30.64 0.005 0
30.72 0.005 0
30.8 0.005 0
30.88 0.005 0
30.96 0.005 0
31.04 0.005 0
31.12 0.005 0
31.2 0.005 0
31.28 0.005 0
31.36 0.005 0
31.44 0.005 0
31.52 0.005 0
31.6 0.005 0
31.68 0.005 0
31.76 0.005 0
31.84 0.005 0
31.92 0.005 0
0 0.01 0
0.08 0.01 0
0.16 0.01 0
0.24 0.01 0
0.32 0.01 0
0.4 0.01 0
0.48 0.01 0
0.56 0.01 0
0.64 0.01 0
0.72 0.01 0
0.8 0.01 0
0.88 0.01 0
0.96 0.01 0
1.04 0.01 0
1.12 0.01 0
1.2 0.01 0
1.28 0.01 0
1.36 0.01 0
1.44 0.01 0
1.52 0.01 0
1.6 0.01 0
1.68 0.01 0
1.76 0.01 0
1.84 0.01 0
1.92 0.01 0
2 0.01 0
2.08 0.01 0
2.16 0.01 0
2.24 0.01 0
2.32 0.01 0
2.4 0.01 0
2.48 0.01 0
2.56 0.01 0
2.64 0.01 0
2.72 0.01 0
2.8 0.01 0
2.88 0.01 0
2.96 0.01 0
3.04 0.01 0
3.12 0.01 0
3.2 0.01 0
3.28 0.01 0
3.36 0.01 0
3.44 0.01 0
3.52 0.01 0
3.6 0.01 0
3.68 0.01 0
3.76 0.01 0
3.84 0.01 0
3.92 0.01 0
4 0.01 0
4.08 0.01 0
4.16 0.01 0
4.24 0.01 0
4.32 0.01 0
4.4 0.01 0
4.48 0.01 0
4.56 0.01 0
4.64 0.01 0
4.72 0.01 0
4.8 0.01 0
4.88 0.01 0
4.96 0.01 0
5.04 0.01 0
5.12 0.01 0
[...]
POINT_DATA 80000

SCALARS p float 1
LOOKUP_TABLE default
1
67.7064
67.4078
67.377
67.3672
67.3582
67.3476
67.336
67.3237
67.311
67.2981
67.285
67.2718
67.2584
67.245
67.2315
67.2179
67.2042
67.1905
67.1766
67.1627
67.1487
67.1346
67.1204
67.1062
67.0918
67.0774
67.0629
67.0483
67.0336
67.0188
67.004
66.989
66.974
66.9588
66.9436
66.9282
66.9128
66.8973
66.8817
66.8659
66.8501
66.8342
66.8182
66.8021
66.7859
66.7696
66.7532
66.7367
66.7202
66.7035
66.6867
66.6699
66.6529
66.6359
66.6188
66.6015
66.5842
66.5668
66.5493
66.5316
66.5139
66.4961
66.4782
66.4601
66.4419
66.4237
66.4052
66.3867
66.368
66.3491
66.3301
66.3109
66.2915
66.2719
66.2521
66.2321
66.2119
66.1915
66.1708
66.1499
66.1287
66.1072
66.0855
66.0634
66.0411
66.0185
65.9956
65.9723
65.9488
65.9249
65.9007
65.8762
65.8514
65.8262
65.8006
65.7747
65.7485
65.7219
65.6949
65.6675
65.6397
65.6115
65.5829
65.5538
65.5242
65.4941
65.4635
65.4323
65.4005
65.3681
65.335
65.3011
65.2665
65.2311
65.1948
65.1576
65.1193
65.08
65.0394
64.9974
64.9539
64.9086
64.8614
64.8119
64.7597
64.7043
64.645
64.5812
64.5119
64.4358
64.3515
64.2573
64.1511
64.0304
63.8922
63.7331
63.5491
63.3356
63.0875
62.799
62.4639
62.0754
61.626
61.1084
60.5144
59.8364
59.0666
58.1977
57.223
56.1368
54.9347
53.6137
52.1725
50.612
48.9351
47.1471
45.2555
43.2701
41.2031
39.0683
36.8815
34.6595
32.4201
30.1816
27.962
25.7792
23.6496
21.5887
19.61
17.7252
15.9438
14.2732
12.7184
11.2823
9.96581
8.7678
7.68557
6.71498
5.85073
5.08659
4.41569
3.83072
3.32416
2.88849
2.5163
2.20047
1.93424
1.7113
1.52583
1.37253
1.24664
1.14393
1.06066
0.993585
0.939894
0.897187
0.863431
0.836916
0.816218
0.800161
0.787781
0.778296
0.771072
0.765604
0.761491
0.758416
0.756131
0.754444
0.753207
0.752305
0.751653
0.751185
0.750852
0.750619
0.750459
0.750351
0.750281
0.75024
0.75022
0.750215
0.750222
0.750239
0.750264
0.750295
0.750331
0.750373
0.750419
0.750469
0.750524
0.750581
0.750642
0.750705
0.750771
0.750839
0.750907
0.750977
0.751047
0.751116
0.751185
0.751252
0.751317
0.75138
0.751441
0.751498
0.751553
0.751603
0.75165
0.751694
0.751734
0.75177
0.751802
0.751832
0.751858
0.751881
0.751901
0.751919
0.751934
0.751947
0.751959
0.751969
0.751977
0.751984
0.751991
0.751996
0.752
0.752004
0.752008
0.752011
0.752013
0.752016
0.752018
0.75202
0.752022
0.752023
0.752025
0.752026
0.752028
0.752029
0.75203
0.752031
0.752032
0.752033
0.752034
0.752035
0.752036
0.752037
0.752038
0.752039
0.75204
0.752041
0.752042
0.752042
0.752043
0.752044
0.752045
0.752046
0.752046
0.752047
0.752048
0.752049
0.752049
0.75205
0.752051
0.752051
0.752052
0.752053
0.752054
0.752054
0.752055
0.752056
0.752056
0.752057
0.752058
0.752058
0.752059
0.752059
0.75206
0.75206
0.752061
0.752061
0.752062
0.752062
0.752063
0.752063
0.752063
0.752064
0.752064
0.752064
0.752065
0.752065
0.752065
0.752066
0.752066
0.752066
0.752067
0.752067
0.752067
0.752068
0.752068
0.752068
0.752069
0.752069
0.75207
0.75207
0.75207
0.752071
0.752071
0.752072
0.752072
0.752073
0.752073
0.752074
0.752074
0.752075
0.752075
0.752076
0.752076
0.752077
0.752077
0.752078
0.752078
0.752079
0.75208
0.75208
0.752081
0.752081
0.752082
0.752082
0.752083
0.752083
0.752084
0.752084
0.752085
0.752085
0.752085
0.752086
0.752086
0.752087
0.752087
0.752088
0.752088
0.752089
0.752089
0.752089
0.75209
0.75209
0.752091
0.752091
0.752091
0.752092
0.752092
0.752092
0.752093
0.752093
0.752093
0.752094
0.752094
0.752094
0.5
67.7064
67.7064
67.4078
67.377
67.3672
67.3582
67.3476
67.336
67.3237
67.311
67.2981
67.285
67.2718
67.2584
67.245
67.2315
67.2179
67.2042
67.1905
67.1766
67.1627
67.1487
67.1346
67.1204
67.1062
67.0918
67.0774
67.0629
67.0483
67.0336
67.0188
67.004
66.989
66.974
66.9588
66.9436
66.9282
66.9128
66.8973
66.8817
66.8659
66.8501
66.8342
66.8182
66.8021
66.7859
66.7696
66.7532
66.7367
66.7202
66.7035
66.6867
66.6699
66.6529
66.6359
66.6188
66.6015
66.5842
66.5668
66.5493
66.5316
66.5139
66.4961
66.4782
66.4601
66.4419
66.4237
66.4052
66.3867
66.368
66.3491
66.3301
66.3109
66.2915
66.2719
66.2521
66.2321
66.2119
66.1915
66.1708
66.1499
66.1287
66.1072
66.0855
66.0634
66.0411
66.0185
65.9956
65.9723
65.9488
65.9249
65.9007
65.8762
65.8514
65.8262
65.8006
65.7747
65.7485
65.7219
65.6949
65.6675
65.6397
65.6115
65.5829
65.5538
65.5242
65.4941
65.4635
65.4323
65.4005
65.3681
65.335
65.3011
65.2665
65.2311
65.1948
65.1576
65.1193
65.08
65.0394
64.9974
64.9539
64.9086
64.8614
64.8119
64.7597
64.7043
64.645
64.5812
64.5119
64.4358
64.3515
64.2573
64.1511
64.0304
63.8922
63.7331
63.5491
63.3356
63.0875
62.799
62.4639
62.0754
61.626
61.1084
60.5144
59.8364
59.0666
58.1977
57.223
56.1368
54.9347
53.6137
52.1725
50.612
48.9351
47.1471
45.2555
43.2701
41.2031
39.0683
36.8815
34.6595
32.4201
30.1816
27.962
25.7792
23.6496
21.5887
19.61
17.7252
15.9438
14.2732
12.7184
11.2823
9.96581
8.7678
7.68557
6.71498
5.85073
5.08659
4.41569
3.83072
3.32416
2.88849
2.5163
2.20047
1.93424
1.7113
1.52583
1.37253
1.24664
1.14393
1.06066
0.993585
0.939894
0.897187
0.863431
0.836916
0.816218
0.800161
0.787781
0.778296
0.771072
0.765604
0.761491
0.758416
0.756131
0.754444
0.753207
0.752305
0.751653
0.751185
0.750852
0.750619
0.750459
0.750351
0.750281
0.75024
0.75022
0.750215
0.750222
0.750239
0.750264
0.750295
0.750331
0.750373
0.750419
0.750469
0.750524
0.750581
0.750642
0.750705
0.750771
0.750839
0.750907
0.750977
0.751047
0.751116
0.751185
0.751252
0.751317
0.75138
0.751441
0.751498
0.751553
0.751603
0.75165
0.751694
0.751734
0.75177
0.751802
0.751832
0.751858
0.751881
0.751901
0.751919
0.751934
0.751947
0.751959
0.751969
0.751977
0.751984
0.751991
0.751996
0.752
0.752004
0.752008
0.752011
0.752013
0.752016
0.752018
0.75202
0.752022
0.752023
0.752025
0.752026
0.752028
0.752029
0.75203
0.752031
0.752032
0.752033
0.752034
0.752035
0.752036
0.752037
0.752038
0.752039
0.75204
0.752041
0.752042
0.752042
0.752043
0.752044
0.752045
0.752046
0.752046
0.752047
0.752048
0.752049
0.752049
0.75205
0.752051
0.752051
0.752052
0.752053
0.752054
0.752054
0.752055
0.752056
0.752056
0.752057
0.752058
0.752058
0.752059
0.752059
0.75206
0.75206
0.752061
0.752061
0.752062
0.752062
0.752063
0.752063
0.752063
0.752064
0.752064
0.752064
0.752065
0.752065
0.752065
0.752066
0.752066
0.752066
0.752067
0.752067
0.752067
0.752068
0.752068
0.752068
0.752069
0.752069
0.75207
0.75207
0.75207
0.752071
0.752071
0.752072
0.752072
0.752073
0.752073
0.752074
0.752074
0.752075
0.752075
0.752076
0.752076
0.752077
0.752077
0.752078
0.752078
0.752079
0.75208
0.75208
0.752081
0.752081
0.752082
0.752082
0.752083
0.752083
0.752084
0.752084
0.752085
0.752085
0.752085
0.752086
0.752086
0.752087
0.752087
0.752088
0.752088
0.752089
0.752089
0.752089
0.75209
0.75209
0.752091
0.752091
0.752091
0.752092
0.752092
0.752092
0.752093
0.752093
0.752093
0.752094
0.752094
0.752094
0.752094
67.6918
67.6918
67.4113
67.3777
67.3673
67.3582
67.3476
67.336
67.3236
67.311
67.2981
67.285
67.2718
67.2584
67.245
67.2315
67.2179
67.2042
67.1904
67.1766
67.1627
67.1487
67.1346
67.1204
67.1062
67.0918
67.0774
67.0629
67.0483
67.0336
67.0188
67.004
66.989
66.9739
66.9588
66.9436
66.9282
66.9128
66.8973
66.8816
66.8659
66.8501
66.8342
66.8182
66.8021
66.7859
66.7696
66.7532
66.7367
66.7202
66.7035
66.6867
66.6699
66.6529
66.6359
66.6187
66.6015
66.5842
66.5668
66.5493
66.5316
66.5139
66.4961
66.4782
66.4601
66.4419
66.4236
66.4052
66.3866
66.3679
66.3491
66.33
66.3108
66.2915
66.2719
66.2521
66.2321
66.2119
66.1915
66.1708
66.1498
66.1287
66.1072
66.0854
66.0634
66.0411
66.0185
65.9955
65.9723
65.9488
65.9249
65.9007
65.8762
65.8513
65.8261
65.8006
65.7747
65.7485
65.7218
65.6948
65.6675
65.6397
65.6115
65.5828
65.5537
65.5241
65.4941
65.4634
65.4322
65.4004
65.368
65.3349
65.3011
65.2665
65.2311
65.1948
65.1575
65.1193
65.0799
65.0393
64.9973
64.9538
64.9085
64.8613
64.8118
64.7596
64.7041
64.6449
64.5811
64.5117
64.4356
64.3513
64.2571
64.1509
64.0302
63.892
63.7329
63.5488
63.3353
63.0872
62.7988
62.4637
62.0751
61.6259
61.1082
60.5144
59.8364
59.0667
58.1979
57.2234
56.1374
54.9355
53.6147
52.1738
50.6135
48.9369
47.1492
45.2579
43.2728
41.2061
39.0716
36.885
34.6632
32.4241
30.1857
27.9663
25.7836
23.654
21.5931
19.6143
17.7295
15.948
14.2772
12.7222
11.286
9.96921
8.77095
7.68848
6.71764
5.85314
5.08877
4.41763
3.83244
3.32568
2.88981
2.51745
2.20146
1.93509
1.71202
1.52643
1.37303
1.24706
1.14428
1.06095
0.993816
0.940081
0.897337
0.863551
0.837011
0.816293
0.80022
0.787827
0.778331
0.771099
0.765625
0.761507
0.758428
0.75614
0.754451
0.753212
0.752309
0.751655
0.751187
0.750854
0.75062
0.750459
0.750351
0.750282
0.75024
0.75022
0.750215
0.750222
0.750239
0.750264
0.750295
0.750331
0.750373
0.750419
0.75047
0.750524
0.750581
0.750642
0.750706
0.750771
0.750839
0.750907
0.750977
0.751047
0.751116
0.751185
0.751252
0.751317
0.75138
0.751441
0.751498
0.751553
0.751603
0.75165
0.751694
0.751734
0.75177
0.751802
0.751832
0.751858
0.751881
0.751901
0.751919
0.751934
0.751947
0.751959
0.751969
0.751977
0.751984
0.751991
0.751996
0.752
0.752004
0.752008
0.752011
0.752013
0.752016
0.752018
0.75202
0.752022
0.752023
0.752025
0.752026
0.752028
0.752029
0.75203
0.752031
0.752032
0.752033
0.752034
0.752035
0.752036
0.752037
0.752038
0.752039
0.75204
0.752041
0.752042
0.752042
0.752043
0.752044
0.752045
0.752046
0.752046
0.752047
0.752048
0.752049
0.752049
0.75205
0.752051
0.752051
0.752052
0.752053
0.752054
0.752054
0.752055
0.752056
0.752056
0.752057
0.752058
0.752058
0.752059
0.752059
0.75206
0.75206
0.752061
0.752061
0.752062
0.752062
0.752063
0.752063
0.752063
0.752064
0.752064
0.752064
0.752065
0.752065
0.752065
0.752066
0.752066
0.752066
0.752067
0.752067
0.752067
0.752068
0.752068
0.752068
0.752069
0.752069
0.75207
0.75207
0.75207
0.752071
0.752071
0.752072
0.752072
0.752073
0.752073
0.752074
0.752074
0.752075
0.752075
0.752076
0.752076
0.752077
0.752077
0.752078
0.752078
0.752079
0.75208
0.75208
0.752081
0.752081
0.752082
0.752082
0.752083
0.752083
0.752084
0.752084
0.752085
0.752085
0.752085
0.752086
0.752086
0.752087
0.752087
0.752088
0.752088
0.752089
0.752089
0.752089
0.75209
0.75209
0.752091
0.752091
0.752091
0.752092
0.752092
0.752092
0.752093
0.752093
0.752093
0.752094
0.752094
0.752094
0.752094
67.6758
67.6758
67.4141
67.3783
67.3675
67.3583
67.3476
67.3359
67.3236
67.311
67.2981
67.285
67.2718
67.2584
67.245
67.2315
67.2179
67.2042
67.1904
67.1766
67.1627
67.1487
67.1346
67.1204
67.1061
67.0918
67.0774
67.0629
67.0483
67.0336
67.0188
67.0039
66.989
66.9739
66.9588
66.9435
66.9282
66.9128
66.8972
66.8816
66.8659
66.8501
66.8342
66.8182
66.8021
66.7859
66.7696
66.7532
66.7367
66.7201
66.7035
66.6867
66.6699
66.6529
66.6359
66.6187
66.6015
66.5842
66.5667
66.5492
66.5316
66.5139
66.4961
66.4781
66.4601
66.4419
66.4236
66.4052
66.3866
66.3679
66.349
66.33
66.3108
66.2914
66.2718
66.2521
66.2321
66.2119
66.1914
66.1707
66.1498
66.1286
66.1071
66.0854
66.0634
66.041
66.0184
65.9955
65.9723
65.9487
65.9248
65.9007
65.8761
65.8513
65.8261
65.8005
65.7746
65.7484
65.7218
65.6948
65.6674
65.6396
65.6114
65.5828
65.5537
65.5241
65.494
65.4633
65.4322
65.4004
65.3679
65.3348
65.301
65.2664
65.231
65.1947
65.1574
65.1192
65.0798
65.0391
64.9972
64.9536
64.9084
64.8612
64.8116
64.7594
64.704
64.6447
64.5808
64.5114
64.4353
64.351
64.2568
64.1505
64.0298
63.8915
63.7324
63.5483
63.3347
63.0865
62.798
62.4628
62.0742
61.6249
61.1072
60.5133
59.8353
59.0655
58.1967
57.2221
56.1361
54.9342
53.6135
52.1726
50.6125
48.936
47.1484
45.2573
43.2724
41.2059
39.0716
36.8853
34.6637
32.4247
30.1866
27.9674
25.7848
23.6554
21.5946
19.616
17.7312
15.9497
14.279
12.724
11.2877
9.97088
8.77255
7.68999
6.71906
5.85446
5.08998
4.41874
3.83344
3.32657
2.89061
2.51815
2.20207
1.93562
1.71247
1.52682
1.37336
1.24734
1.14451
1.06114
0.993973
0.940209
0.897441
0.863634
0.837078
0.816346
0.800262
0.78786
0.778357
0.771119
0.76564
0.761519
0.758437
0.756147
0.754456
0.753215
0.752311
0.751657
0.751188
0.750855
0.750621
0.75046
0.750352
0.750282
0.750241
0.75022
0.750215
0.750223
0.750239
0.750264
0.750295
0.750331
0.750373
0.750419
0.75047
0.750524
0.750581
0.750642
0.750706
0.750771
0.750839
0.750907
0.750977
0.751047
0.751116
0.751185
0.751252
0.751317
0.75138
0.751441
0.751498
0.751553
0.751603
0.75165
0.751694
0.751734
0.75177
0.751802
0.751832
0.751858
0.751881
0.751901
0.751919
0.751934
0.751947
0.751959
0.751969
0.751977
0.751984
0.751991
0.751996
0.752
0.752004
0.752008
0.752011
0.752013
0.752016
0.752018
0.75202
0.752022
0.752023
0.752025
0.752026
0.752028
0.752029
0.75203
0.752031
0.752032
0.752033
0.752034
0.752035
0.752036
0.752037
0.752038
0.752039
0.75204
0.752041
0.752042
0.752042
0.752043
0.752044
0.752045
0.752046
0.752046
0.752047
0.752048
0.752049
0.752049
0.75205
0.752051
0.752051
0.752052
0.752053
0.752054
0.752054
0.752055
0.752056
0.752056
0.752057
0.752058
0.752058
0.752059
0.752059
0.75206
0.75206
0.752061
0.752061
0.752062
0.752062
0.752063
0.752063
0.752063
0.752064
0.752064
0.752064
0.752065
0.752065
0.752065
0.752066
0.752066
0.752066
0.752067
0.752067
0.752067
0.752068
0.752068
0.752068
0.752069
0.752069
0.75207
0.75207
0.75207
0.752071
0.752071
0.752072
0.752072
0.752073
0.752073
0.752074
0.752074
0.752075
0.752075
0.752076
0.752076
0.752077
0.752077
0.752078
0.752078
0.752079
0.75208
0.75208
0.752081
0.752081
0.752082
0.752082
0.752083
0.752083
0.752084
0.752084
0.752085
0.752085
0.752085
0.752086
0.752086
0.752087
0.752087
0.752088
0.752088
0.752089
0.752089
0.752089
0.75209
0.75209
0.752091
0.752091
0.752091
0.752092
0.752092
0.752092
0.752093
0.752093
0.752093
0.752094
0.752094
0.752094
0.752094
67.6599
67.6599
67.4167
67.379
67.3676
67.3583
67.3477
67.3359
67.3236
67.3109
67.298
67.2849
67.2717
67.2584
67.245
67.2315
67.2178
67.2042
67.1904
67.1766
67.1626
67.1486
67.1345
67.1204
67.1061
67.0918
67.0774
67.0628
67.0482
67.0336
67.0188
67.0039
66.989
66.9739
66.9588
66.9435
66.9282
66.9127
66.8972
66.8816
66.8659
66.8501
66.8342
66.8182
66.8021
66.7859
66.7696
66.7532
66.7367
66.7201
66.7035
66.6867
66.6698
66.6529
66.6358
66.6187
66.6015
66.5841
66.5667
66.5492
66.5316
66.5139
66.496
66.4781
66.4601
66.4419
66.4236
66.4052
66.3866
66.3679
66.349
66.33
66.3108
66.2914
66.2718
66.252
66.232
66.2118
66.1914
66.1707
66.1498
66.1286
66.1071
66.0854
66.0633
66.041
66.0184
65.9955
65.9722
65.9487
65.9248
65.9006
65.8761
65.8512
65.826
65.8005
65.7746
65.7483
65.7217
65.6947
65.6673
65.6396
65.6113
65.5827
65.5536
65.524
65.4939
65.4633
65.4321
65.4003
65.3678
65.3347
65.3009
65.2663
65.2309
65.1946
65.1573
65.119
65.0796
65.039
64.997
64.9535
64.9082
64.861
64.8115
64.7592
64.7038
64.6445
64.5806
64.5112
64.435
64.3507
64.2565
64.1502
64.0294
63.8911
63.7318
63.5477
63.3341
63.0858
62.7972
62.462
62.0733
61.6239
61.1061
60.5121
59.8341
59.0643
58.1954
57.2208
56.1349
54.933
53.6123
52.1715
50.6115
48.9351
47.1477
45.2567
43.272
41.2057
39.0716
36.8855
34.6641
32.4254
30.1875
27.9685
25.786
23.6568
21.5961
19.6176
17.7328
15.9515
14.2807
12.7257
11.2894
9.97254
8.77415
7.6915
6.72048
5.85578
5.09119
4.41984
3.83444
3.32746
2.8914
2.51885
2.20268
1.93614
1.71293
1.52721
1.37369
1.24761
1.14474
1.06133
0.99413
0.940337
0.897545
0.863718
0.837145
0.816399
0.800304
0.787893
0.778382
0.771139
0.765655
0.76153
0.758446
0.756153
0.754461
0.753219
0.752314
0.751659
0.75119
0.750856
0.750622
0.75046
0.750352
0.750282
0.750241
0.75022
0.750215
0.750223
0.750239
0.750264
0.750295
0.750331
0.750373
0.750419
0.75047
0.750524
0.750581
0.750642
0.750706
0.750771
0.750839
0.750908
0.750977
0.751047
0.751116
0.751185
0.751252
0.751317
0.75138
0.751441
0.751498
0.751553
0.751603
0.75165
0.751694
0.751734
0.75177
0.751802
0.751832
0.751858
0.751881
0.751901
0.751919
0.751934
0.751947
0.751959
0.751969
0.751977
0.751984
0.751991
0.751996
0.752
0.752004
0.752008
0.752011
0.752013
0.752016
0.752018
0.75202
0.752022
0.752023
0.752025
0.752026
0.752028
0.752029
0.75203
0.752031
0.752032
0.752033
0.752034
0.752035
0.752036
0.752037
0.752038
0.752039
0.75204
0.752041
0.752042
0.752042
0.752043
0.752044
0.752045
0.752046
0.752046
0.752047
0.752048
0.752049
0.752049
0.75205
0.752051
0.752051
0.752052
0.752053
0.752054
0.752054
0.752055
0.752056
0.752056
0.752057
0.752058
0.752058
0.752059
0.752059
0.75206
0.75206
0.752061
0.752061
0.752062
0.752062
0.752063
0.752063
0.752063
0.752064
0.752064
0.752064
0.752065
0.752065
0.752065
0.752066
0.752066
0.752066
0.752067
0.752067
0.752067
0.752068
0.752068
0.752068
0.752069
0.752069
0.75207
0.75207
0.75207
0.752071
0.752071
0.752072
0.752072
0.752073
0.752073
0.752074
0.752074
0.752075
0.752075
0.752076
0.752076
0.752077
0.752077
0.752078
0.752078
0.752079
0.75208
0.75208
0.752081
0.752081
0.752082
0.752082
0.752083
0.752083
0.752084
0.752084
0.752085
0.752085
0.752085
0.752086
0.752086
0.752087
0.752087
0.752088
0.752088
0.752089
0.752089
0.752089
0.75209
0.75209
0.752091
0.752091
0.752091
0.752092
0.752092
0.752092
0.752093
0.752093
0.752093
0.752094
0.752094
0.752094
0.752094
67.6448
67.6448
67.4191
67.3797
67.3678
67.3584
67.3477
67.3359
67.3236
67.3109
67.298
67.2849
67.2717
67.2584
67.2449
67.2314
67.2178
67.2041
67.1904
67.1765
67.1626
67.1486
67.1345
67.1203
67.1061
67.0918
67.0773
67.0628
67.0482
67.0335
67.0188
67.0039
66.9889
66.9739
66.9587
66.9435
66.9282
66.9127
66.8972
66.8816
66.8659
66.8501
66.8341
66.8181
66.802
66.7858
66.7695
66.7532
66.7367
66.7201
66.7034
66.6867
66.6698
66.6529
66.6358
66.6187
66.6015
66.5841
66.5667
66.5492
66.5316
66.5138
66.496
66.4781
66.46
66.4419
66.4236
66.4051
66.3866
66.3678
66.349
66.3299
66.3107
66.2914
66.2718
66.252
66.232
66.2118
66.1913
66.1707
66.1497
66.1285
66.1071
66.0853
66.0633
66.041
66.0183
65.9954
65.9722
65.9486
65.9247
65.9005
65.876
65.8512
65.826
65.8004
65.7745
65.7483
65.7217
65.6947
65.6673
65.6395
65.6113
65.5826
65.5535
65.5239
65.4938
65.4632
65.432
65.4002
65.3678
65.3346
65.3008
65.2662
65.2308
65.1945
65.1572
65.1189
65.0795
65.0389
64.9969
64.9534
64.9081
64.8609
64.8113
64.759
64.7036
64.6443
64.5804
64.511
64.4348
64.3504
64.2561
64.1498
64.029
63.8906
63.7313
63.5471
63.3334
63.0851
62.7965
62.4612
62.0724
61.6229
61.1051
60.511
59.833
59.0631
58.1942
57.2196
56.1336
54.9318
53.6111
52.1704
50.6104
48.9342
47.1469
45.2561
43.2716
41.2055
39.0716
36.8857
34.6646
32.4261
30.1883
27.9695
25.7873
23.6582
21.5977
19.6192
17.7345
15.9532
14.2825
12.7275
11.2911
9.9742
8.77574
7.69301
6.7219
5.8571
5.0924
4.42095
3.83543
3.32836
2.89219
2.51955
2.20329
1.93667
1.71338
1.52759
1.37402
1.24789
1.14497
1.06152
0.994287
0.940465
0.897649
0.863802
0.837212
0.816453
0.800346
0.787926
0.778408
0.771159
0.765671
0.761542
0.758454
0.75616
0.754466
0.753223
0.752317
0.751661
0.751191
0.750857
0.750623
0.750461
0.750352
0.750283
0.750241
0.75022
0.750216
0.750223
0.750239
0.750264
0.750295
0.750331
0.750373
0.750419
0.75047
0.750524
0.750582
0.750642
0.750706
0.750771
0.750839
0.750908
0.750977
0.751047
0.751116
0.751185
0.751252
0.751317
0.75138
0.751441
0.751498
0.751552
0.751603
0.75165
0.751694
0.751734
0.75177
0.751802
0.751832
0.751858
0.751881
0.751901
0.751919
0.751934
0.751947
0.751959
0.751969
0.751977
0.751984
0.751991
0.751996
0.752
0.752004
0.752008
0.752011
0.752013
0.752016
0.752018
0.75202
0.752022
0.752023
0.752025
0.752026
0.752028
0.752029
0.75203
0.752031
0.752032
0.752033
0.752034
0.752035
0.752036
0.752037
0.752038
0.752039
0.75204
0.752041
0.752042
0.752042
0.752043
0.752044
0.752045
0.752046
0.752046
0.752047
0.752048
0.752049
0.752049
0.75205
0.752051
0.752051
0.752052
0.752053
0.752054
0.752054
0.752055
0.752056
0.752056
0.752057
0.752058
0.752058
0.752059
0.752059
0.75206
0.75206
0.752061
0.752061
0.752062
0.752062
0.752063
0.752063
0.752063
0.752064
0.752064
0.752064
0.752065
0.752065
0.752065
0.752066
0.752066
0.752066
0.752067
0.752067
0.752067
0.752068
0.752068
0.752068
0.752069
0.752069
0.75207
0.75207
0.75207
0.752071
0.752071
0.752072
0.752072
0.752073
0.752073
0.752074
0.752074
0.752075
0.752075
0.752076
0.752076
0.752077
0.752077
0.752078
0.752078
0.752079
0.75208
0.75208
0.752081
0.752081
0.752082
0.752082
0.752083
0.752083
0.752084
0.752084
0.752085
0.752085