# vtk DataFile Version 2.0
FlowField
ASCII
DATASET STRUCTURED_GRID
DIMENSIONS 400 1 200
POINTS 80000 float
0 0 0
0.08 0 0
0.16 0 0
0.24 0 0
0.32 0 0
0.4 0 0
0.48 0 0
0.56 0 0
0.64 0 0
0.72 0 0
0.8 0 0
0.88 0 0
0.96 0 0
1.04 0 0
1.12 0 0
1.2 0 0
1.28 0 0
1.36 0 0
1.44 0 0
1.52 0 0
1.6 0 0
1.68 0 0
1.76 0 0
1.84 0 0
1.92 0 0
2 0 0
2.08 0 0
2.16 0 0
2.24 0 0
2.32 0 0
2.4 0 0
2.48 0 0
2.56 0 0
2.64 0 0
2.72 0 0
2.8 0 0
2.88 0 0
2.96 0 0
3.04 0 0
3.12 0 0
3.2 0 0
3.28 0 0
3.36 0 0
3.44 0 0
3.52 0 0
3.6 0 0
3.68 0 0
3.76 0 0
3.84 0 0
3.92 0 0
4 0 0
4.08 0 0
4.16 0 0
4.24 0 0
4.32 0 0
4.4 0 0
4.48 0 0
4.56 0 0
4.64 0 0
4.72 0 0
4.8 0 0
4.88 0 0
4.96 0 0
5.04 0 0
5.12 0 0
5.2 0 0
5.28 0 0
5.36 0 0
5.44 0 0
5.52 0 0
5.6 0 0
5.68 0 0
5.76 0 0
5.84 0 0
5.92 0 0
6 0 0
6.08 0 0
6.16 0 0
6.24 0 0
6.32 0 0
6.4 0 0
6.48 0 0
6.56 0 0
6.64 0 0
6.72 0 0
6.8 0 0
6.88 0 0
6.96 0 0
7.04 0 0
7.12 0 0
7.2 0 0
7.28 0 0
7.36 0 0
7.44 0 0
7.52 0 0
7.6 0 0
7.68 0 0
7.76 0 0
7.84 0 0
7.92 0 0
8 0 0
8.08 0 0
8.16 0 0
8.24 0 0
8.32 0 0
8.4 0 0
8.48 0 0
8.56 0 0
8.64 0 0
8.72 0 0
8.8 0 0
8.88 0 0
8.96 0 0
9.04 0 0
9.12 0 0
9.2 0 0
9.28 0 0
9.36 0 0
9.44 0 0
9.52 0 0
9.6 0 0
9.68 0 0
9.76 0 0
9.84 0 0
9.92 0 0
10 0 0
10.08 0 0
10.16 0 0
10.24 0 0
10.32 0 0
10.4 0 0
10.48 0 0
10.56 0 0
10.64 0 0
10.72 0 0
10.8 0 0
10.88 0 0
10.96 0 0
11.04 0 0
11.12 0 0
11.2 0 0
11.28 0 0
11.36 0 0
11.44 0 0
11.52 0 0
11.6 0 0
11.68 0 0
11.76 0 0
11.84 0 0
11.92 0 0
12 0 0
12.08 0 0
12.16 0 0
12.24 0 0
12.32 0 0
12.4 0 0
12.48 0 0
12.56 0 0
12.64 0 0
12.72 0 0
12.8 0 0
12.88 0 0
12.96 0 0
13.04 0 0
13.12 0 0
13.2 0 0
13.28 0 0
13.36 0 0
13.44 0 0
13.52 0 0
13.6 0 0
13.68 0 0
13.76 0 0
13.84 0 0
13.92 0 0
14 0 0
14.08 0 0
14.16 0 0
14.24 0 0
14.32 0 0
14.4 0 0
14.48 0 0
14.56 0 0
14.64 0 0
14.72 0 0
14.8 0 0
14.88 0 0
14.96 0 0
15.04 0 0
15.12 0 0
15.2 0 0
15.28 0 0
15.36 0 0
15.44 0 0
15.52 0 0
15.6 0 0
15.68 0 0
15.76 0 0
15.84 0 0
15.92 0 0
16 0 0
16.08 0 0
16.16 0 0
16.24 0 0
16.32 0 0
16.4 0 0
16.48 0 0
16.56 0 0
16.64 0 0
16.72 0 0
16.8 0 0
16.88 0 0
16.96 0 0
17.04 0 0
17.12 0 0
17.2 0 0
17.28 0 0
17.36 0 0
17.44 0 0
17.52 0 0
17.6 0 0
17.68 0 0
17.76 0 0
17.84 0 0
17.92 0 0
18 0 0
18.08 0 0
18.16 0 0
18.24 0 0
18.32 0 0
18.4 0 0
18.48 0 0
18.56 0 0
18.64 0 0
18.72 0 0
18.8 0 0
18.88 0 0
18.96 0 0
19.04 0 0
19.12 0 0
19.2 0 0
19.28 0 0
19.36 0 0
19.44 0 0
19.52 0 0
19.6 0 0
19.68 0 0
19.76 0 0
19.84 0 0
19.92 0 0
20 0 0
20.08 0 0
20.16 0 0
20.24 0 0
20.32 0 0
20.4 0 0
20.48 0 0
20.56 0 0
20.64 0 0
20.72 0 0
20.8 0 0
20.88 0 0
20.96 0 0
21.04 0 0
21.12 0 0
21.2 0 0
21.28 0 0
21.36 0 0
21.44 0 0
21.52 0 0
21.6 0 0
21.68 0 0
21.76 0 0
21.84 0 0
21.92 0 0
22 0 0
22.08 0 0
22.16 0 0
22.24 0 0
22.32 0 0
22.4 0 0
22.48 0 0
22.56 0 0
22.64 0 0
22.72 0 0
22.8 0 0
22.88 0 0
22.96 0 0
23.04 0 0
23.12 0 0
23.2 0 0
23.28 0 0
23.36 0 0
23.44 0 0
23.52 0 0
23.6 0 0
23.68 0 0
23.76 0 0
23.84 0 0
23.92 0 0
24 0 0
24.08 0 0
24.16 0 0
24.24 0 0
24.32 0 0
24.4 0 0
24.48 0 0
24.56 0 0
24.64 0 0
24.72 0 0
24.8 0 0
24.88 0 0
24.96 0 0
25.04 0 0
25.12 0 0
25.2 0 0
25.28 0 0
25.36 0 0
25.44 0 0
25.52 0 0
25.6 0 0
25.68 0 0
25.76 0 0
25.84 0 0
25.92 0 0
26 0 0
26.08 0 0
26.16 0 0
26.24 0 0
26.32 0 0
26.4 0 0
26.48 0 0
26.56 0 0
26.64 0 0
26.72 0 0
26.8 0 0
26.88 0 0
26.96 0 0
27.04 0 0
27.12 0 0
27.2 0 0
27.28 0 0
27.36 0 0
27.44 0 0
27.52 0 0
27.6 0 0
27.68 0 0
27.76 0 0
27.84 0 0
27.92 0 0
28 0 0
28.08 0 0
28.16 0 0
28.24 0 0
28.32 0 0
28.4 0 0
28.48 0 0
28.56 0 0
28.64 0 0
28.72 0 0
28.8 0 0
28.88 0 0
28.96 0 0
29.04 0 0
29.12 0 0
29.2 0 0
29.28 0 0
29.36 0 0
29.44 0 0
29.52 0 0
29.6 0 0
29.68 0 0
29.76 0 0
29.84 0 0
29.92 0 0
30 0 0
30.08 0 0
30.16 0 0
30.24 0 0
30.32 0 0
30.4 0 0
30.48 0 0
30.56 0 0
30.64 0 0
30.72 0 0
30.8 0 0
30.88 0 0
30.96 0 0
31.04 0 0
31.12 0 0
31.2 0 0
31.28 0 0
31.36 0 0
31.44 0 0
31.52 0 0
31.6 0 0
31.68 0 0
31.76 0 0
31.84 0 0
31.92 0 0
0 0.005 0
0.08 0.005 0
0.16 0.005 0
0.24 0.005 0
0.32 0.005 0
0.4 0.005 0
0.48 0.005 0
0.56 0.005 0
0.64 0.005 0
0.72 0.005 0
0.8 0.005 0
0.88 0.005 0
0.96 0.005 0
1.04 0.005 0
1.12 0.005 0
1.2 0.005 0
1.28 0.005 0
1.36 0.005 0
1.44 0.005 0
1.52 0.005 0
1.6 0.005 0
1.68 0.005 0
1.76 0.005 0
1.84 0.005 0
1.92 0.005 0
2 0.005 0
2.08 0.005 0
2.16 0.005 0
2.24 0.005 0
2.32 0.005 0
2.4 0.005 0
2.48 0.005 0
2.56 0.005 0
2.64 0.005 0
2.72 0.005 0
2.8 0.005 0
2.88 0.005 0
2.96 0.005 0
3.04 0.005 0
3.12 0.005 0
3.2 0.005 0
3.28 0.005 0
3.36 0.005 0
3.44 0.005 0
3.52 0.005 0
3.6 0.005 0
3.68 0.005 0
3.76 0.005 0
3.84 0.005 0
3.92 0.005 0
4 0.005 0
4.08 0.005 0
4.16 0.005 0
4.24 0.005 0
4.32 0.005 0
4.4 0.005 0
4.48 0.005 0
4.56 0.005 0
4.64 0.005 0
4.72 0.005 0
4.8 0.005 0
4.88 0.005 0
4.96 0.005 0
5.04 0.005 0
5.12 0.005 0
5.2 0.005 0
5.28 0.005 0
5.36 0.005 0
5.44 0.005 0
5.52 0.005 0
5.6 0.005 0
5.68 0.005 0
5.76 0.005 0
5.84 0.005 0
5.92 0.005 0
6 0.005 0
6.08 0.005 0
6.16 0.005 0
6.24 0.005 0
6.32 0.005 0
6.4 0.005 0
6.48 0.005 0
6.56 0.005 0
6.64 0.005 0
6.72 0.005 0
6.8 0.005 0
6.88 0.005 0
6.96 0.005 0
7.04 0.005 0
7.12 0.005 0
7.2 0.005 0
7.28 0.005 0
7.36 0.005 0
7.44 0.005 0
7.52 0.005 0
7.6 0.005 0
7.68 0.005 0
7.76 0.005 0
7.84 0.005 0
7.92 0.005 0
8 0.005 0
8.08 0.005 0
8.16 0.005 0
8.24 0.005 0
8.32 0.005 0
8.4 0.005 0
8.48 0.005 0
8.56 0.005 0
8.64 0.005 0
8.72 0.005 0
8.8 0.005 0
8.88 0.005 0
8.96 0.005 0
9.04 0.005 0
9.12 0.005 0
9.2 0.005 0
9.28 0.005 0
9.36 0.005 0
9.44 0.005 0
9.52 0.005 0
9.6 0.005 0
9.68 0.005 0
9.76 0.005 0
9.84 0.005 0
9.92 0.005 0
10 0.005 0
10.08 0.005 0
10.16 0.005 0
10.24 0.005 0
10.32 0.005 0
10.4 0.005 0
10.48 0.005 0
10.56 0.005 0
10.64 0.005 0
10.72 0.005 0
10.8 0.005 0
10.88 0.005 0
10.96 0.005 0
11.04 0.005 0
11.12 0.005 0
11.2 0.005 0
11.28 0.005 0
11.36 0.005 0
11.44 0.005 0
11.52 0.005 0
11.6 0.005 0
11.68 0.005 0
11.76 0.005 0
11.84 0.005 0
11.92 0.005 0
12 0.005 0
12.08 0.005 0
12.16 0.005 0
12.24 0.005 0
12.32 0.005 0
12.4 0.005 0
12.48 0.005 0
12.56 0.005 0
12.64 0.005 0
12.72 0.005 0
12.8 0.005 0
12.88 0.005 0
12.96 0.005 0
13.04 0.005 0
13.12 0.005 0
13.2 0.005 0
13.28 0.005 0
13.36 0.005 0
13.44 0.005 0
13.52 0.005 0
13.6 0.005 0
13.68 0.005 0
13.76 0.005 0
13.84 0.005 0
13.92 0.005 0
14 0.005 0
14.08 0.005 0
14.16 0.005 0
14.24 0.005 0
14.32 0.005 0
14.4 0.005 0
14.48 0.005 0
14.56 0.005 0
14.64 0.005 0
14.72 0.005 0
14.8 0.005 0
14.88 0.005 0
14.96 0.005 0
15.04 0.005 0
15.12 0.005 0
15.2 0.005 0
15.28 0.005 0
15.36 0.005 0
15.44 0.005 0
15.52 0.005 0
15.6 0.005 0
15.68 0.005 0
15.76 0.005 0
15.84 0.005 0
15.92 0.005 0
16 0.005 0
16.08 0.005 0
16.16 0.005 0
16.24 0.005 0
16.32 0.005 0
16.4 0.005 0
16.48 0.005 0
16.56 0.005 0
16.64 0.005 0
16.72 0.005 0
16.8 0.005 0
16.88 0.005 0
16.96 0.005 0
17.04 0.005 0
17.12 0.005 0
17.2 0.005 0
17.28 0.005 0
17.36 0.005 0
17.44 0.005 0
17.52 0.005 0
17.6 0.005 0
17.68 0.005 0
17.76 0.005 0
17.84 0.005 0
17.92 0.005 0
18 0.005 0
18.08 0.005 0
18.16 0.005 0
18.24 0.005 0
18.32 0.005 0
18.4 0.005 0
18.48 0.005 0
18.56 0.005 0
18.64 0.005 0
18.72 0.005 0
18.8 0.005 0
18.88 0.005 0
18.96 0.005 0
19.04 0.005 0
19.12 0.005 0
19.2 0.005 0
19.28 0.005 0
19.36 0.005 0
19.44 0.005 0
19.52 0.005 0
19.6 0.005 0
19.68 0.005 0
19.76 0.005 0
19.84 0.005 0
19.92 0.005 0
20 0.005 0
20.08 0.005 0
20.16 0.005 0
20.24 0.005 0
20.32 0.005 0
20.4 0.005 0
20.48 0.005 0
20.56 0.005 0
20.64 0.005 0
20.72 0.005 0
20.8 0.005 0
20.88 0.005 0
20.96 0.005 0
21.04 0.005 0
21.12 0.005 0
21.2 0.005 0
21.28 0.005 0
21.36 0.005 0
21.44 0.005 0
21.52 0.005 0
21.6 0.005 0
21.68 0.005 0
21.76 0.005 0
21.84 0.005 0
21.92 0.005 0
22 0.005 0
22.08 0.005 0
22.16 0.005 0
22.24 0.005 0
22.32 0.005 0
22.4 0.005 0
22.48 0.005 0
22.56 0.005 0
22.64 0.005 0
22.72 0.005 0
22.8 0.005 0
22.88 0.005 0
22.96 0.005 0
23.04 0.005 0
23.12 0.005 0
23.2 0.005 0
23.28 0.005 0
23.36 0.005 0
23.44 0.005 0
23.52 0.005 0
23.6 0.005 0
23.68 0.005 0
23.76 0.005 0
23.84 0.005 0
23.92 0.005 0
24 0.005 0
24.08 0.005 0
24.16 0.005 0
24.24 0.005 0
24.32 0.005 0
24.4 0.005 0
24.48 0.005 0
24.56 0.005 0
24.64 0.005 0
24.72 0.005 0
24.8 0.005 0
24.88 0.005 0
24.96 0.005 0
25.04 0.005 0
25.12 0.005 0
25.2 0.005 0
25.28 0.005 0
25.36 0.005 0
25.44 0.005 0
25.52 0.005 0
25.6 0.005 0
25.68 0.005 0
25.76 0.005 0
25.84 0.005 0
25.92 0.005 0
26 0.005 0
26.08 0.005 0
26.16 0.005 0
26.24 0.005 0
26.32 0.005 0
26.4 0.005 0
26.48 0.005 0
26.56 0.005 0
26.64 0.005 0
26.72 0.005 0
26.8 0.005 0
26.88 0.005 0
26.96 0.005 0
27.04 0.005 0
27.12 0.005 0
27.2 0.005 0
27.28 0.005 0
27.36 0.005 0
27.44 0.005 0
27.52 0.005 0
27.6 0.005 0
27.68 0.005 0
27.76 0.005 0
27.84 0.005 0
27.92 0.005 0
28 0.005 0
28.08 0.005 0
28.16 0.005 0
28.24 0.005 0
28.32 0.005 0
28.4 0.005 0
28.48 0.005 0
28.56 0.005 0
28.64 0.005 0
28.72 0.005 0
28.8 0.005 0
28.88 0.005 0
28.96 0.005 0
29.04 0.005 0
29.12 0.005 0
29.2 0.005 0
29.28 0.005 0
29.36 0.005 0
29.44 0.005 0
29.52 0.005 0
29.6 0.005 0
29.68 0.005 0
29.76 0.005 0
29.84 0.005 0
29.92 0.005 0
30 0.005 0
30.08 0.005 0
30.16 0.005 0
30.24 0.005 0
30.32 0.005 0
30.4 0.005 0
30.48 0.005 0
30.56 0.005 0
30.64 0.005 0
30.72 0.005 0
30.8 0.005 0
30.88 0.005 0
30.96 0.005 0
31.04 0.005 0
31.12 0.005 0
31.2 0.005 0
31.28 0.005 0
31.36 0.005 0
31.44 0.005 0
31.52 0.005 0
31.6 0.005 0
31.68 0.005 0
31.76 0.005 0
31.84 0.005 0
31.92 0.005 0
0 0.01 0
0.08 0.01 0
0.16 0.01 0
0.24 0.01 0
0.32 0.01 0
0.4 0.01 0
0.48 0.01 0
0.56 0.01 0
0.64 0.01 0
0.72 0.01 0
0.8 0.01 0
0.88 0.01 0
0.96 0.01 0
1.04 0.01 0
1.12 0.01 0
1.2 0.01 0
1.28 0.01 0
1.36 0.01 0
1.44 0.01 0
1.52 0.01 0
1.6 0.01 0
1.68 0.01 0
1.76 0.01 0
1.84 0.01 0
1.92 0.01 0
2 0.01 0
2.08 0.01 0
2.16 0.01 0
2.24 0.01 0
2.32 0.01 0
2.4 0.01 0
2.48 0.01 0
2.56 0.01 0
2.64 0.01 0
2.72 0.01 0
2.8 0.01 0
2.88 0.01 0
2.96 0.01 0
3.04 0.01 0
3.12 0.01 0
3.2 0.01 0
3.28 0.01 0
3.36 0.01 0
3.44 0.01 0
3.52 0.01 0
3.6 0.01 0
3.68 0.01 0
3.76 0.01 0
3.84 0.01 0
3.92 0.01 0
4 0.01 0
4.08 0.01 0
4.16 0.01 0
4.24 0.01 0
4.32 0.01 0
4.4 0.01 0
4.48 0.01 0
4.56 0.01 0
4.64 0.01 0
4.72 0.01 0
4.8 0.01 0
4.88 0.01 0
4.96 0.01 0
5.04 0.01 0
5.12 0.01 0
[...]
POINT_DATA 80000

SCALARS v float 1
LOOKUP_TABLE default
0
0
0
0
0
0
0
0
0
0
0
0
0
0
0
0
0
0
0
0
0
0
0
0
0
0
0
0
0
0
0
0
0
0
0
0
0
0
0
0
0
0
0
0
0
0
0
0
0
0
0
0
0
0
0
0
0
0
0
0
0
0
0
0
0
0
0
0
0
0
0
0
0
0
0
0
0
0
0
0
0
0
0
0
0
0
0
0
0
0
0
0
0
0
0
0
0
0
0
0
0
0
0
0
0
0
0
0
0
0
0
0
0
0
0
0
0
0
0
0
0
0
0
0
0
0
0
0
0
0
0
0
0
0
0
0
0
0
0
0
0
0
0
0
0
0
0
0
0
0
0
0
0
0
0
0
0
0
0
0
0
0
0
0
0
0
0
0
0
0
0
0
0
0
0
0
0
0
0
0
0
0
0
0
0
0
0
0
0
0
0
0
0
0
0
0
0
0
0
0
0
0
0
0
0
0
0
0
0
0
0
0
0
0
0
0
0
0
0
0
0
0
0
0
0
0
0
0
0
0
0
0
0
0
0
0
0
0
0
0
0
0
0
0
0
0
0
0
0
0
0
0
0
0
0
0
0
0
0
0
0
0
0
0
0
0
0
0
0
0
0
0
0
0
0
0
0
0
0
0
0
0
0
0
0
0
0
0
0
0
0
0
0
0
0
0
0
0
0
0
0
0
0
0
0
0
0
0
0
0
0
0
0
0
0
0
0
0
0
0
0
0
0
0
0
0
0
0
0
0
0
0
0
0
0
0
0
0
0
0
0
0
0
0
0
0
0
0
0
0
0
0
0
0
0
0
0
0
0
0
0
0
0
0
0
0
0
0
0
0
0
0
0
0
0
0
0
0
0
0
0
0
0
0
0
0
0
0
0
0
0
0
0
0
0
0
0
0
0
0
-0.054277
0.054277
0.00396812
0.0010044
0.00049832
0.000308563
0.000212931
0.000157186
0.000121549
9.7005e-05
7.93665e-05
6.66766e-05
5.73498e-05
4.95642e-05
4.18894e-05
3.40154e-05
2.66447e-05
2.069e-05
1.65508e-05
1.39679e-05
1.23422e-05
1.11236e-05
1.00112e-05
8.94283e-06
7.98329e-06
7.21452e-06
6.67584e-06
6.35399e-06
6.20104e-06
6.15854e-06
6.17514e-06
6.21449e-06
6.25543e-06
6.28839e-06
6.31093e-06
6.32416e-06
6.3304e-06
6.33194e-06
6.33061e-06
6.32766e-06
6.32389e-06
6.31976e-06
6.31553e-06
6.31132e-06
6.30718e-06
6.30315e-06
6.29922e-06
6.29539e-06
6.29165e-06
6.288e-06
6.28443e-06
6.28094e-06
6.27752e-06
6.27416e-06
6.27086e-06
6.26762e-06
6.26444e-06
6.26131e-06
6.25822e-06
6.25518e-06
6.25219e-06
6.24924e-06
6.24632e-06
6.24344e-06
6.2406e-06
6.23779e-06
6.23501e-06
6.23226e-06
6.22953e-06
6.22683e-06
6.22415e-06
6.22149e-06
6.21884e-06
6.21621e-06
6.21358e-06
6.21096e-06
6.20834e-06
6.20571e-06
6.20308e-06
6.20043e-06
6.19776e-06
6.19507e-06
6.19234e-06
6.18957e-06
6.18674e-06
6.18386e-06
6.1809e-06
6.17786e-06
6.17473e-06
6.17149e-06
6.16812e-06
6.16461e-06
6.16095e-06
6.15711e-06
6.15307e-06
6.14881e-06
6.14431e-06
6.13955e-06
6.13449e-06
6.1291e-06
6.12335e-06
6.11722e-06
6.11066e-06
6.10363e-06
6.09609e-06
6.088e-06
6.0793e-06
6.06996e-06
6.05991e-06
6.04911e-06
6.03747e-06
6.02496e-06
6.01149e-06
5.997e-06
5.98141e-06
5.96464e-06
5.94661e-06
5.92724e-06
5.90643e-06
5.8841e-06
5.86012e-06
5.83442e-06
5.80688e-06
5.77739e-06
5.74583e-06
5.71208e-06
5.67603e-06
5.63755e-06
5.5965e-06
5.55275e-06
5.50617e-06
5.45662e-06
5.40394e-06
5.34802e-06
5.28868e-06
5.22579e-06
5.15919e-06
5.08874e-06
5.01429e-06
4.93568e-06
4.85277e-06
4.7654e-06
4.67344e-06
4.57673e-06
4.47515e-06
4.36854e-06
4.25678e-06
4.13975e-06
4.01732e-06
3.88938e-06
3.75582e-06
3.61656e-06
3.47149e-06
3.32054e-06
3.16366e-06
3.00078e-06
2.83186e-06
2.65687e-06
2.47581e-06
2.28867e-06
2.09547e-06
1.89625e-06
1.69105e-06
1.47996e-06
1.26304e-06
1.04042e-06
8.12216e-07
5.78575e-07
3.3966e-07
9.56627e-08
-1.53216e-07
-4.06744e-07
-6.64678e-07
-9.26746e-07
-1.19266e-06
-1.46212e-06
-1.73479e-06
-2.01033e-06
-2.28837e-06
-2.56852e-06
-2.8504e-06
-3.13358e-06
-3.41764e-06
-3.70212e-06
-3.98658e-06
-4.27054e-06
-4.55353e-06
-4.83505e-06
-5.11461e-06
-5.39172e-06
-5.66586e-06
-5.93653e-06
-6.20323e-06
-6.46543e-06
-6.72265e-06
-6.97437e-06
-7.22011e-06
-7.45939e-06
-7.69171e-06
-7.91663e-06
-8.13369e-06
-8.34245e-06
-8.5425e-06
-8.73343e-06
-8.91487e-06
-9.08644e-06
-9.24783e-06
-9.3987e-06
-9.53879e-06
-9.66781e-06
-9.78554e-06
-9.89177e-06
-9.98632e-06
-1.0069e-05
-1.01398e-05
-1.01985e-05
-1.02452e-05
-1.02797e-05
-1.03021e-05
-1.03124e-05
-1.03106e-05
-1.02969e-05
-1.02714e-05
-1.02342e-05
-1.01855e-05
-1.01256e-05
-1.00545e-05
-9.97265e-06
-9.88024e-06
-9.77758e-06
-9.66499e-06
-9.54281e-06
-9.4114e-06
-9.27111e-06
-9.12235e-06
-8.96551e-06
-8.80099e-06
-8.62923e-06
-8.45064e-06
-8.26566e-06
-8.07473e-06
-7.87829e-06
-7.6768e-06
-7.47068e-06
-7.2604e-06
-7.04638e-06
-6.82906e-06
-6.60887e-06
-6.38624e-06
-6.16159e-06
-5.93532e-06
-5.70781e-06
-5.47948e-06
-5.25067e-06
-5.02176e-06
-4.79309e-06
-4.56499e-06
-4.33777e-06
-4.11175e-06
-3.8872e-06
-3.6644e-06
-3.44359e-06
-3.22502e-06
-3.0089e-06
-2.79544e-06
-2.58483e-06
-2.37723e-06
-2.17281e-06
-1.9717e-06
-1.77401e-06
-1.57988e-06
-1.38937e-06
-1.20258e-06
-1.01957e-06
-8.40398e-07
-6.65092e-07
-4.93687e-07
-3.26194e-07
-1.62623e-07
-2.96314e-09
1.52797e-07
3.04685e-07
4.5273e-07
5.96977e-07
7.3747e-07
8.74268e-07
1.00743e-06
1.13702e-06
1.2631e-06
1.38577e-06
1.50508e-06
1.62114e-06
1.73401e-06
1.84379e-06
1.95057e-06
2.05443e-06
2.15548e-06
2.25379e-06
2.34947e-06
2.4426e-06
2.53328e-06
2.6216e-06
2.70765e-06
2.79152e-06
2.87329e-06
2.95306e-06
3.03092e-06
3.10693e-06
3.1812e-06
3.25379e-06
3.32478e-06
3.39426e-06
3.46229e-06
3.52895e-06
3.5943e-06
3.65842e-06
3.72136e-06
3.7832e-06
3.84398e-06
3.90378e-06
3.96265e-06
4.02063e-06
4.07779e-06
4.13418e-06
4.18983e-06
4.24481e-06
4.29914e-06
4.35288e-06
4.40607e-06
4.45874e-06
4.51094e-06
4.5627e-06
4.61404e-06
4.66502e-06
4.71566e-06
4.76598e-06
4.81603e-06
4.86582e-06
4.91538e-06
4.96475e-06
5.01394e-06
5.06298e-06
5.11189e-06
5.1607e-06
5.20943e-06
5.25809e-06
5.30671e-06
5.35531e-06
5.40391e-06
5.45252e-06
5.50116e-06
5.54985e-06
5.59861e-06
5.64745e-06
5.69639e-06
5.74545e-06
5.79463e-06
5.84396e-06
5.89346e-06
5.94312e-06
5.99298e-06
6.04304e-06
6.09332e-06
6.14383e-06
6.19458e-06
6.2456e-06
6.29688e-06
6.34845e-06
6.40032e-06
6.4525e-06
6.50501e-06
6.55786e-06
6.61106e-06
6.66462e-06
6.71857e-06
6.77288e-06
6.82769e-06
6.88265e-06
6.93878e-06
6.99345e-06
7.0532e-06
7.10291e-06
7.17566e-06
7.20352e-06
7.31727e-06
7.28228e-06
7.48903e-06
7.33834e-06
7.67314e-06
7.41199e-06
7.81664e-06
7.5435e-06
7.91646e-06
7.70581e-06
7.94887e-06
8.15106e-06
7.28046e-06
1.01032e-05
8.13045e-06
8.13045e-06
-0.0952224
0.0952224
0.0129823
0.00386149
0.0019411
0.00120219
0.000826742
0.000606837
0.000465712
0.000368309
0.000298298
0.000247769
0.000210201
0.000178469
0.000147338
0.000115955
8.71014e-05
6.4066e-05
4.8076e-05
3.79488e-05
3.1373e-05
2.63315e-05
2.17699e-05
1.7501e-05
1.37692e-05
1.08517e-05
8.85526e-06
7.69519e-06
7.16933e-06
7.04827e-06
7.13758e-06
7.30308e-06
7.46864e-06
7.60112e-06
7.69323e-06
7.75011e-06
7.78085e-06
7.7942e-06
7.79693e-06
7.7937e-06
7.7874e-06
7.77975e-06
7.77163e-06
7.76353e-06
7.75564e-06
7.74804e-06
7.74073e-06
7.73372e-06
7.72697e-06
7.72046e-06
7.71416e-06
7.70807e-06
7.70214e-06
7.69639e-06
7.69077e-06
7.68529e-06
7.67993e-06
7.6747e-06
7.66955e-06
7.66451e-06
7.65955e-06
7.65468e-06
7.64987e-06
7.64514e-06
7.64046e-06
7.63585e-06
7.63129e-06
7.62679e-06
7.62232e-06
7.61791e-06
7.61353e-06
7.60919e-06
7.60488e-06
7.6006e-06
7.59634e-06
7.59211e-06
7.58788e-06
7.58368e-06
7.57947e-06
7.57526e-06
7.57105e-06
7.56682e-06
7.56257e-06
7.55829e-06
7.55396e-06
7.5496e-06
7.54515e-06
7.54065e-06
7.53604e-06
7.53134e-06
7.52651e-06
7.52156e-06
7.51643e-06
7.51114e-06
7.50564e-06
7.49993e-06
7.49396e-06
7.48771e-06
7.48115e-06
7.47426e-06
7.46698e-06
7.4593e-06
7.45115e-06
7.44251e-06
7.43332e-06
7.42354e-06
7.41311e-06
7.40199e-06
7.39009e-06
7.37738e-06
7.36376e-06
7.34919e-06
7.33358e-06
7.31685e-06
7.29891e-06
7.27969e-06
7.25908e-06
7.237e-06
7.21333e-06
7.18797e-06
7.16081e-06
7.13174e-06
7.10062e-06
7.06735e-06
7.03178e-06
6.99378e-06
6.95321e-06
6.90993e-06
6.86378e-06
6.81462e-06
6.76229e-06
6.70663e-06
6.64746e-06
6.58464e-06
6.51798e-06
6.44733e-06
6.37249e-06
6.2933e-06
6.20957e-06
6.12115e-06
6.02783e-06
5.92947e-06
5.82586e-06
5.71686e-06
5.60227e-06
5.48196e-06
5.35573e-06
5.22346e-06
5.08498e-06
4.94017e-06
4.78886e-06
4.63096e-06
4.46633e-06
4.29489e-06
4.11652e-06
3.93117e-06
3.73875e-06
3.53922e-06
3.33254e-06
3.11871e-06
2.89769e-06
2.66954e-06
2.43426e-06
2.19193e-06
1.94261e-06
1.68642e-06
1.42345e-06
1.15386e-06
8.77811e-07
5.95494e-07
3.07107e-07
1.29007e-08
-2.86883e-07
-5.91946e-07
-9.02e-07
-1.2167e-06
-1.53571e-06
-1.85864e-06
-2.18511e-06
-2.51469e-06
-2.84695e-06
-3.18143e-06
-3.51765e-06
-3.85512e-06
-4.19333e-06
-4.53175e-06
-4.86986e-06
-5.20707e-06
-5.54286e-06
-5.87664e-06
-6.20784e-06
-6.53586e-06
-6.86014e-06
-7.18006e-06
-7.49507e-06
-7.80456e-06
-8.10796e-06
-8.40469e-06
-8.6942e-06
-8.97592e-06
-9.24931e-06
-9.51385e-06
-9.76903e-06
-1.00143e-05
-1.02493e-05
-1.04736e-05
-1.06866e-05
-1.0888e-05
-1.10774e-05
-1.12545e-05
-1.1419e-05
-1.15705e-05
-1.17088e-05
-1.18338e-05
-1.19451e-05
-1.20427e-05
-1.21263e-05
-1.21961e-05
-1.22518e-05
-1.22934e-05
-1.2321e-05
-1.23347e-05
-1.23344e-05
-1.23204e-05
-1.22927e-05
-1.22516e-05
-1.21972e-05
-1.21298e-05
-1.20496e-05
-1.19571e-05
-1.18523e-05
-1.17358e-05
-1.16079e-05
-1.1469e-05
-1.13194e-05
-1.11596e-05
-1.09901e-05
-1.08112e-05
-1.06236e-05
-1.04275e-05
-1.02236e-05
-1.00123e-05
-9.79406e-06
-9.56945e-06
-9.33896e-06
-9.10306e-06
-8.86229e-06
-8.6171e-06
-8.36802e-06
-8.1155e-06
-7.86003e-06
-7.60208e-06
-7.3421e-06
-7.08052e-06
-6.81779e-06
-6.55432e-06
-6.29052e-06
-6.02675e-06
-5.76342e-06
-5.50085e-06
-5.2394e-06
-4.97937e-06
-4.72109e-06
-4.46481e-06
-4.21082e-06
-3.95936e-06
-3.71066e-06
-3.46492e-06
-3.22235e-06
-2.98311e-06
-2.74738e-06
-2.51528e-06
-2.28694e-06
-2.06247e-06
-1.84197e-06
-1.6255e-06
-1.41314e-06
-1.20492e-06
-1.0009e-06
-8.01075e-07
-6.05483e-07
-4.14103e-07
-2.26939e-07
-4.3955e-08
1.34864e-07
3.09574e-07
4.80205e-07
6.46828e-07
8.09489e-07
9.6827e-07
1.12323e-06
1.27446e-06
1.42202e-06
1.56602e-06
1.70654e-06
1.84367e-06
1.9775e-06
2.10813e-06
2.23566e-06
2.36018e-06
2.48179e-06
2.6006e-06
2.71669e-06
2.83017e-06
2.94113e-06
3.04968e-06
3.1559e-06
3.25989e-06
3.36175e-06
3.46156e-06
3.55941e-06
3.6554e-06
3.7496e-06
3.84211e-06
3.933e-06
4.02235e-06
4.11023e-06
4.19673e-06
4.28191e-06
4.36586e-06
4.44862e-06
4.53028e-06
4.61088e-06
4.69051e-06
4.7692e-06
4.84704e-06
4.92405e-06
5.00031e-06
5.07586e-06
5.15076e-06
5.22504e-06
5.29876e-06
5.37196e-06
5.44469e-06
5.51697e-06
5.58887e-06
5.6604e-06
5.73162e-06
5.80255e-06
5.87323e-06
5.9437e-06
6.01398e-06
6.08411e-06
6.15412e-06
6.22403e-06
6.29388e-06
6.36369e-06
6.43349e-06
6.50331e-06
6.57317e-06
6.64309e-06
6.71311e-06
6.78323e-06
6.8535e-06
6.92392e-06
6.99453e-06
7.06533e-06
7.13637e-06
7.20764e-06
7.27919e-06
7.35102e-06
7.42316e-06
7.49562e-06
7.56844e-06
7.64161e-06
7.71518e-06
7.78914e-06
7.86354e-06
7.93837e-06
8.01367e-06
8.08944e-06
8.16572e-06
8.24252e-06
8.31985e-06
8.39777e-06
8.47615e-06
8.55548e-06
8.63444e-06
8.71668e-06
8.79283e-06
8.88599e-06
8.94249e-06
9.08026e-06
9.05574e-06
9.34035e-06
9.0834e-06
9.70898e-06
9.01837e-06
1.0124e-05
9.00816e-06
1.03852e-05
9.21161e-06
1.04722e-05
9.52629e-06
1.03261e-05
1.08385e-05
7.64811e-06
1.78315e-05
1.04595e-05
1.04595e-05
-0.1253
0.1253
0.0249425
0.00836498
0.00428473
0.00266642
0.00183644
0.00134796
0.00103338
0.000815844
0.000659384
0.000546147
0.000461265
0.000389053
0.000318514
0.000248281
0.000184492
0.000133949
9.88498e-05
7.63462e-05
6.14046e-05
4.9786e-05
3.93483e-05
2.97563e-05
2.15287e-05
1.52058e-05
1.09495e-05
8.522e-06
7.45519e-06
7.24183e-06
7.46257e-06
7.83335e-06
8.19595e-06
8.48346e-06
8.68291e-06
8.80673e-06
8.87491e-06
8.90629e-06
8.91529e-06
8.91177e-06
8.9018e-06
8.88898e-06
8.87519e-06
8.86139e-06
8.84801e-06
8.83521e-06
8.823e-06
8.81138e-06
8.80027e-06
8.78965e-06
8.77944e-06
8.76962e-06
8.76013e-06
8.75096e-06
8.74206e-06
8.73342e-06
8.72499e-06
8.71678e-06
8.70874e-06
8.70089e-06
8.69316e-06
8.68559e-06
8.67813e-06
8.6708e-06
8.66355e-06
8.65642e-06
8.64936e-06
8.64239e-06
8.63548e-06
8.62866e-06
8.62189e-06
8.61519e-06
8.60853e-06
8.60193e-06
8.59537e-06
8.58886e-06
8.58237e-06
8.57593e-06
8.56949e-06
8.5631e-06
8.55669e-06
8.55031e-06
8.54391e-06
8.53752e-06
8.53108e-06
8.52463e-06
8.51812e-06
8.51157e-06
8.50493e-06
8.49822e-06
8.49139e-06
8.48446e-06
8.47737e-06
8.47013e-06
8.4627e-06
8.45506e-06
8.44717e-06
8.43904e-06
8.43058e-06
8.42181e-06
8.41265e-06
8.4031e-06
8.39308e-06
8.38259e-06
8.37153e-06
8.35989e-06
8.34758e-06
8.33458e-06
8.32079e-06
8.30618e-06
8.29065e-06
8.27414e-06
8.25656e-06
8.23785e-06
8.21788e-06
8.19661e-06
8.1739e-06
8.14967e-06
8.1238e-06
8.09619e-06
8.0667e-06
8.03524e-06
8.00165e-06
7.96583e-06
7.9276e-06
7.88685e-06
7.84341e-06
7.79714e-06
7.74787e-06
7.69546e-06
7.63971e-06
7.58047e-06
7.51755e-06
7.45079e-06
7.37998e-06
7.30496e-06
7.22552e-06
7.1415e-06
7.05267e-06
6.95887e-06
6.85988e-06
6.75554e-06
6.64562e-06
6.52996e-06
6.40835e-06
6.28063e-06
6.1466e-06
6.00611e-06
5.85895e-06
5.705e-06
5.54407e-06
5.37605e-06
5.20077e-06
5.01813e-06
4.828e-06
4.6303e-06
4.42491e-06
4.2118e-06
3.99088e-06
3.76214e-06
3.52552e-06
3.28106e-06
3.02874e-06
2.76864e-06
2.50077e-06
2.22526e-06
1.94218e-06
1.65168e-06
1.35388e-06
1.049e-06
7.37192e-07
4.18729e-07
9.38233e-08
-2.37215e-07
-5.74118e-07
-9.16525e-07
-1.26412e-06
-1.61649e-06
-1.97326e-06
-2.33399e-06
-2.69826e-06
-3.06555e-06
-3.43543e-06
-3.80735e-06
-4.1808e-06
-4.55521e-06
-4.93006e-06
-5.30472e-06
-5.67865e-06
-6.0512e-06
-6.42181e-06
-6.78982e-06
-7.15464e-06
-7.5156e-06
-7.87211e-06
-8.22351e-06
-8.56921e-06
-8.90854e-06
-9.24092e-06
-9.56572e-06
-9.88237e-06
-1.01902e-05
-1.04888e-05
-1.07775e-05
-1.10558e-05
-1.13232e-05
-1.15792e-05
-1.18233e-05
-1.20551e-05
-1.22742e-05
-1.24802e-05
-1.26728e-05
-1.28516e-05
-1.30164e-05
-1.31668e-05
-1.33028e-05
-1.3424e-05
-1.35304e-05
-1.36219e-05
-1.36983e-05
-1.37596e-05
-1.38059e-05
-1.38371e-05
-1.38534e-05
-1.38548e-05
-1.38415e-05
-1.38136e-05
-1.37714e-05
-1.3715e-05
-1.36448e-05
-1.3561e-05
-1.3464e-05
-1.33541e-05
-1.32316e-05
-1.3097e-05
-1.29507e-05
-1.27931e-05
-1.26247e-05
-1.24459e-05
-1.22571e-05
-1.2059e-05
-1.1852e-05
-1.16366e-05
-1.14132e-05
-1.11825e-05
-1.0945e-05
-1.07011e-05
-1.04514e-05
-1.01965e-05
-9.93668e-06
-9.67265e-06
-9.40481e-06
-9.13371e-06
-8.85977e-06
-8.58351e-06
-8.30534e-06
-8.02575e-06
-7.74512e-06
-7.46391e-06
-7.18247e-06
-6.90123e-06
-6.6205e-06
-6.34068e-06
-6.06204e-06
-5.78495e-06
-5.50965e-06
-5.23645e-06
-4.96557e-06
-4.69729e-06
-4.43178e-06
-4.16928e-06
-3.90994e-06
-3.65395e-06
-3.40142e-06
-3.15253e-06
-2.90736e-06
-2.66602e-06
-2.42858e-06
-2.19514e-06
-1.96571e-06
-1.74037e-06
-1.51912e-06
-1.302e-06
-1.08899e-06
-8.80123e-07
-6.75336e-07
-4.74644e-07
-2.77978e-07
-8.53317e-08
1.0338e-07
2.88178e-07
4.6916e-07
6.46358e-07
8.19881e-07
9.8977e-07
1.15614e-06
1.31905e-06
1.4786e-06
1.63487e-06
1.78798e-06
1.93797e-06
2.085e-06
2.2291e-06
2.37043e-06
2.50903e-06
2.64503e-06
2.7785e-06
2.90957e-06
3.0383e-06
3.16481e-06
3.28916e-06
3.41148e-06
3.53182e-06
3.6503e-06
3.76698e-06
3.88197e-06
3.99531e-06
4.10714e-06
4.21747e-06
4.32644e-06
4.43407e-06
4.54048e-06
4.6457e-06
4.74983e-06
4.8529e-06
4.95502e-06
5.05621e-06
5.15656e-06
5.2561e-06
5.35492e-06
5.45304e-06
5.55055e-06
5.64746e-06
5.74386e-06
5.83977e-06
5.93526e-06
6.03034e-06
6.1251e-06
6.21954e-06
6.31374e-06
6.4077e-06
6.5015e-06
6.59515e-06
6.6887e-06
6.78216e-06
6.87561e-06
6.96905e-06
7.06253e-06
7.15606e-06
7.24971e-06
7.34347e-06
7.43741e-06
7.53152e-06
7.62586e-06
7.72044e-06
7.8153e-06
7.91046e-06
8.00596e-06
8.10181e-06
8.19806e-06
8.2947e-06
8.39179e-06
8.48934e-06
8.58739e-06
8.68593e-06
8.78504e-06
8.88469e-06
8.98495e-06
9.08581e-06
9.18732e-06
9.28949e-06
9.39235e-06
9.49593e-06
9.60023e-06
9.70537e-06
9.81107e-06
9.91829e-06
1.00243e-05
1.01367e-05
1.02361e-05
1.037e-05
1.04277e-05
1.06535e-05
1.05409e-05
1.10736e-05
1.047e-05
1.17238e-05
1.01951e-05
1.24774e-05
1.00272e-05
1.29047e-05
1.03163e-05
1.29513e-05
1.08417e-05
1.25337e-05
1.34121e-05
6.87246e-06
2.8069e-05
1.25312e-05
1.25312e-05
-0.146494
0.146494
0.0383164
0.0142404
0.00746195
0.00467537
0.00322933
0.0023733
0.00181993
0.00143643
0.00116031
0.000959898
0.000808624
0.000679236
0.000553368
0.000429338
0.000317804
0.000229936
0.000168832
0.000129201
0.000102377
8.12842e-05
6.2452e-05
4.54048e-05
3.10118e-05
2.0109e-05
1.28692e-05
8.80304e-06
7.06041e-06
6.75384e-06
7.16459e-06
7.81333e-06
8.4373e-06
8.92812e-06
9.26724e-06
9.47763e-06
9.59396e-06
9.6484e-06
9.66532e-06
9.66129e-06
9.64652e-06
9.62698e-06
9.6058e-06
9.58463e-06
9.56412e-06
9.54458e-06
9.52601e-06
9.50842e-06
9.49166e-06
9.47571e-06
9.46043e-06
9.4458e-06
9.4317e-06
9.41813e-06
9.40498e-06
9.39227e-06
9.37988e-06
9.36785e-06
9.35608e-06
9.34459e-06
9.33332e-06
9.32228e-06
9.31139e-06
9.30071e-06
9.29016e-06
9.27977e-06
9.26948e-06
9.25933e-06
9.24927e-06
9.23933e-06
9.22946e-06
9.2197e-06
9.20999e-06
9.20039e-06
9.19082e-06
9.18136e-06
9.17192e-06
9.16256e-06
9.15323e-06
9.14396e-06
9.13471e-06
9.12551e-06
9.1163e-06
9.10713e-06
9.09793e-06
9.08876e-06
9.07954e-06
9.07031e-06
9.061e-06
9.05166e-06
9.04222e-06
9.0327e-06
9.02304e-06
9.01327e-06
9.0033e-06
8.99317e-06
8.9828e-06
8.97222e-06
8.96132e-06
8.95015e-06
8.93859e-06
8.92667e-06
8.9143e-06
8.90147e-06
8.88809e-06
8.87415e-06
8.85955e-06
8.84429e-06
8.82824e-06
8.81139e-06
8.79361e-06
8.77489e-06
8.75509e-06
8.73417e-06
8.712e-06
8.68854e-06
8.66362e-06
8.6372e-06
8.60911e-06
8.5793e-06
8.54759e-06
8.5139e-06
8.47806e-06
8.43997e-06
8.39945e-06
8.35639e-06
8.31059e-06
8.26196e-06
8.21025e-06
8.15538e-06
8.0971e-06
8.0353e-06
7.96973e-06
7.90026e-06
7.82666e-06
7.74878e-06
7.66638e-06
7.5793e-06
7.48729e-06
7.39022e-06
7.28781e-06
7.17993e-06
7.06631e-06
6.94681e-06
6.82118e-06
6.68927e-06
6.55085e-06
6.40578e-06
6.25381e-06
6.09484e-06
5.92863e-06
5.75509e-06
5.57401e-06
5.38531e-06
5.18879e-06
4.98441e-06
4.77201e-06
4.55155e-06
4.3229e-06
4.08607e-06
3.84097e-06
3.58763e-06
3.32601e-06
3.05617e-06
2.7781e-06
2.49193e-06
2.19769e-06
1.89556e-06
1.5856e-06
1.26804e-06
9.43007e-07
6.10775e-07
2.71521e-07
-7.44303e-08
-4.26848e-07
-7.85356e-07
-1.14967e-06
-1.51936e-06
-1.8941e-06
-2.27341e-06
-2.65691e-06
-3.04406e-06
-3.43445e-06
-3.82751e-06
-4.22275e-06
-4.61959e-06
-5.01751e-06
-5.41587e-06
-5.81413e-06
-6.21162e-06
-6.60779e-06
-7.00194e-06
-7.39349e-06
-7.78175e-06
-8.16612e-06
-8.54589e-06
-8.92048e-06
-9.28918e-06
-9.65142e-06
-1.00065e-05
-1.03538e-05
-1.06928e-05
-1.10228e-05
-1.13432e-05
-1.16536e-05
-1.19532e-05
-1.22417e-05
-1.25185e-05
-1.27831e-05
-1.30351e-05
-1.32741e-05
-1.34996e-05
-1.37114e-05
-1.3909e-05
-1.40922e-05
-1.42608e-05
-1.44144e-05
-1.45529e-05
-1.46762e-05
-1.47841e-05
-1.48766e-05
-1.49535e-05
-1.5015e-05
-1.5061e-05
-1.50915e-05
-1.51067e-05
-1.51068e-05
-1.50917e-05
-1.50619e-05
-1.50174e-05
-1.49587e-05
-1.48858e-05
-1.47992e-05
-1.46991e-05
-1.45861e-05
-1.44603e-05
-1.43224e-05
-1.41726e-05
-1.40114e-05
-1.38393e-05
-1.36567e-05
-1.34642e-05
-1.32622e-05
-1.30513e-05
-1.28319e-05
-1.26045e-05
-1.23698e-05
-1.21281e-05
-1.18801e-05
-1.16261e-05
-1.13668e-05
-1.11026e-05
-1.08341e-05
-1.05617e-05
-1.0286e-05
-1.00072e-05
-9.72607e-06
-9.44286e-06
-9.15809e-06
-8.87211e-06
-8.58539e-06
-8.29825e-06
-8.01112e-06
-7.72429e-06
-7.43816e-06
-7.15297e-06
-6.8691e-06
-6.58676e-06
-6.30627e-06
-6.02782e-06
-5.75169e-06
-5.47804e-06
-5.20711e-06
-4.93902e-06
-4.67399e-06
-4.4121e-06
-4.15354e-06
-3.89835e-06
-3.64669e-06
-3.39858e-06
-3.15414e-06
-2.91338e-06
-2.6764e-06
-2.44315e-06
-2.21372e-06
-1.98806e-06
-1.76622e-06
-1.54813e-06
-1.33383e-06
-1.12323e-06
-9.16353e-07
-7.13092e-07
-5.13457e-07
-3.17333e-07
-1.24717e-07
6.45153e-08
2.50376e-07
4.32999e-07
6.12403e-07
7.88726e-07
9.61992e-07
1.13235e-06
1.29981e-06
1.46454e-06
1.62656e-06
1.78601e-06
1.94294e-06
2.09748e-06
2.24966e-06
2.39964e-06
2.54744e-06
2.69321e-06
2.83698e-06
2.97889e-06
3.11896e-06
3.25734e-06
3.39404e-06
3.52922e-06
3.66288e-06
3.79517e-06
3.92609e-06
4.05579e-06
4.18426e-06
4.31165e-06
4.43796e-06
4.56332e-06
4.68773e-06
4.81131e-06
4.93407e-06
5.05613e-06
5.17748e-06
5.29824e-06
5.41841e-06
5.53809e-06
5.65729e-06
5.77611e-06
5.89455e-06
6.0127e-06
6.13057e-06
6.24824e-06
6.36572e-06
6.4831e-06
6.60036e-06
6.71761e-06
6.83482e-06
6.95211e-06
7.06944e-06
7.18691e-06
7.30451e-06
7.42233e-06
7.54034e-06
7.65864e-06
7.7772e-06
7.89613e-06
8.01539e-06
8.13507e-06
8.25516e-06
8.37574e-06
8.49678e-06
8.61838e-06
8.7405e-06
8.86325e-06
8.98658e-06
9.1106e-06
9.23526e-06
9.36067e-06
9.48679e-06
9.61371e-06
9.7414e-06
9.86995e-06
9.99933e-06
1.01296e-05
1.02608e-05
1.0393e-05
1.05262e-05
1.06601e-05
1.07962e-05