# vtk DataFile Version 2.0
FlowField
ASCII
DATASET STRUCTURED_GRID
DIMENSIONS 400 1 200
POINTS 80000 float
0 0 0
0.08 0 0
0.16 0 0
0.24 0 0
0.32 0 0
0.4 0 0
0.48 0 0
0.56 0 0
0.64 0 0
0.72 0 0
0.8 0 0
0.88 0 0
0.96 0 0
1.04 0 0
1.12 0 0
1.2 0 0
1.28 0 0
1.36 0 0
1.44 0 0
1.52 0 0
1.6 0 0
1.68 0 0
1.76 0 0
1.84 0 0
1.92 0 0
2 0 0
2.08 0 0
2.16 0 0
2.24 0 0
2.32 0 0
2.4 0 0
2.48 0 0
2.56 0 0
2.64 0 0
2.72 0 0
2.8 0 0
2.88 0 0
2.96 0 0
3.04 0 0
3.12 0 0
3.2 0 0
3.28 0 0
3.36 0 0
3.44 0 0
3.52 0 0
3.6 0 0
3.68 0 0
3.76 0 0
3.84 0 0
3.92 0 0
4 0 0
4.08 0 0
4.16 0 0
4.24 0 0
4.32 0 0
4.4 0 0
4.48 0 0
4.56 0 0
4.64 0 0
4.72 0 0
4.8 0 0
4.88 0 0
4.96 0 0
5.04 0 0
5.12 0 0
5.2 0 0
5.28 0 0
5.36 0 0
5.44 0 0
5.52 0 0
5.6 0 0
5.68 0 0
5.76 0 0
5.84 0 0
5.92 0 0
6 0 0
6.08 0 0
6.16 0 0
6.24 0 0
6.32 0 0
6.4 0 0
6.48 0 0
6.56 0 0
6.64 0 0
6.72 0 0
6.8 0 0
6.88 0 0
6.96 0 0
7.04 0 0
7.12 0 0
7.2 0 0
7.28 0 0
7.36 0 0
7.44 0 0
7.52 0 0
7.6 0 0
7.68 0 0
7.76 0 0
7.84 0 0
7.92 0 0
8 0 0
8.08 0 0
8.16 0 0
8.24 0 0
8.32 0 0
8.4 0 0
8.48 0 0
8.56 0 0
8.64 0 0
8.72 0 0
8.8 0 0
8.88 0 0
8.96 0 0
9.04 0 0
9.12 0 0
9.2 0 0
9.28 0 0
9.36 0 0
9.44 0 0
9.52 0 0
9.6 0 0
9.68 0 0
9.76 0 0
9.84 0 0
9.92 0 0
10 0 0
10.08 0 0
10.16 0 0
10.24 0 0
10.32 0 0
10.4 0 0
10.48 0 0
10.56 0 0
10.64 0 0
10.72 0 0
10.8 0 0
10.88 0 0
10.96 0 0
11.04 0 0
11.12 0 0
11.2 0 0
11.28 0 0
11.36 0 0
11.44 0 0
11.52 0 0
11.6 0 0
11.68 0 0
11.76 0 0
11.84 0 0
11.92 0 0
12 0 0
12.08 0 0
12.16 0 0
12.24 0 0
12.32 0 0
12.4 0 0
12.48 0 0
12.56 0 0
12.64 0 0
12.72 0 0
12.8 0 0
12.88 0 0
12.96 0 0
13.04 0 0
13.12 0 0
13.2 0 0
13.28 0 0
13.36 0 0
13.44 0 0
13.52 0 0
13.6 0 0
13.68 0 0
13.76 0 0
13.84 0 0
13.92 0 0
14 0 0
14.08 0 0
14.16 0 0
14.24 0 0
14.32 0 0
14.4 0 0
14.48 0 0
14.56 0 0
14.64 0 0
14.72 0 0
14.8 0 0
14.88 0 0
14.96 0 0
15.04 0 0
15.12 0 0
15.2 0 0
15.28 0 0
15.36 0 0
15.44 0 0
15.52 0 0
15.6 0 0
15.68 0 0
15.76 0 0
15.84 0 0
15.92 0 0
16 0 0
16.08 0 0
16.16 0 0
16.24 0 0
16.32 0 0
16.4 0 0
16.48 0 0
16.56 0 0
16.64 0 0
16.72 0 0
16.8 0 0
16.88 0 0
16.96 0 0
17.04 0 0
17.12 0 0
17.2 0 0
17.28 0 0
17.36 0 0
17.44 0 0
17.52 0 0
17.6 0 0
17.68 0 0
17.76 0 0
17.84 0 0
17.92 0 0
18 0 0
18.08 0 0
18.16 0 0
18.24 0 0
18.32 0 0
18.4 0 0
18.48 0 0
18.56 0 0
18.64 0 0
18.72 0 0
18.8 0 0
18.88 0 0
18.96 0 0
19.04 0 0
19.12 0 0
19.2 0 0
19.28 0 0
19.36 0 0
19.44 0 0
19.52 0 0
19.6 0 0
19.68 0 0
19.76 0 0
19.84 0 0
19.92 0 0
20 0 0
20.08 0 0
20.16 0 0
20.24 0 0
20.32 0 0
20.4 0 0
20.48 0 0
20.56 0 0
20.64 0 0
20.72 0 0
20.8 0 0
20.88 0 0
20.96 0 0
21.04 0 0
21.12 0 0
21.2 0 0
21.28 0 0
21.36 0 0
21.44 0 0
21.52 0 0
21.6 0 0
21.68 0 0
21.76 0 0
21.84 0 0
21.92 0 0
22 0 0
22.08 0 0
22.16 0 0
22.24 0 0
22.32 0 0
22.4 0 0
22.48 0 0
22.56 0 0
22.64 0 0
22.72 0 0
22.8 0 0
22.88 0 0
22.96 0 0
23.04 0 0
23.12 0 0
23.2 0 0
23.28 0 0
23.36 0 0
23.44 0 0
23.52 0 0
23.6 0 0
23.68 0 0
23.76 0 0
23.84 0 0
23.92 0 0
24 0 0
24.08 0 0
24.16 0 0
24.24 0 0
24.32 0 0
24.4 0 0
24.48 0 0
24.56 0 0
24.64 0 0
24.72 0 0
24.8 0 0
24.88 0 0
24.96 0 0
25.04 0 0
25.12 0 0
25.2 0 0
25.28 0 0
25.36 0 0
25.44 0 0
25.52 0 0
25.6 0 0
25.68 0 0
25.76 0 0
25.84 0 0
25.92 0 0
26 0 0
26.08 0 0
26.16 0 0
26.24 0 0
26.32 0 0
26.4 0 0
26.48 0 0
26.56 0 0
26.64 0 0
26.72 0 0
26.8 0 0
26.88 0 0
26.96 0 0
27.04 0 0
27.12 0 0
27.2 0 0
27.28 0 0
27.36 0 0
27.44 0 0
27.52 0 0
27.6 0 0
27.68 0 0
27.76 0 0
27.84 0 0
27.92 0 0
28 0 0
28.08 0 0
28.16 0 0
28.24 0 0
28.32 0 0
28.4 0 0
28.48 0 0
28.56 0 0
28.64 0 0
28.72 0 0
28.8 0 0
28.88 0 0
28.96 0 0
29.04 0 0
29.12 0 0
29.2 0 0
29.28 0 0
29.36 0 0
29.44 0 0
29.52 0 0
29.6 0 0
29.68 0 0
29.76 0 0
29.84 0 0
29.92 0 0
30 0 0
30.08 0 0
30.16 0 0
30.24 0 0
30.32 0 0
30.4 0 0
30.48 0 0
30.56 0 0
30.64 0 0
30.72 0 0
30.8 0 0
30.88 0 0
30.96 0 0
31.04 0 0
31.12 0 0
31.2 0 0
31.28 0 0
31.36 0 0
31.44 0 0
31.52 0 0
31.6 0 0
31.68 0 0
31.76 0 0
31.84 0 0
31.92 0 0
0 0.005 0
0.08 0.005 0
0.16 0.005 0
0.24 0.005 0
0.32 0.005 0
0.4 0.005 0
0.48 0.005 0
0.56 0.005 0
0.64 0.005 0
0.72 0.005 0
0.8 0.005 0
0.88 0.005 0
0.96 0.005 0
1.04 0.005 0
1.12 0.005 0
1.2 0.005 0
1.28 0.005 0
1.36 0.005 0
1.44 0.005 0
1.52 0.005 0
1.6 0.005 0
1.68 0.005 0
1.76 0.005 0
1.84 0.005 0
1.92 0.005 0
2 0.005 0
2.08 0.005 0
2.16 0.005 0
2.24 0.005 0
2.32 0.005 0
2.4 0.005 0
2.48 0.005 0
2.56 0.005 0
2.64 0.005 0
2.72 0.005 0
2.8 0.005 0
2.88 0.005 0
2.96 0.005 0
3.04 0.005 0
3.12 0.005 0
3.2 0.005 0
3.28 0.005 0
3.36 0.005 0
3.44 0.005 0
3.52 0.005 0
3.6 0.005 0
3.68 0.005 0
3.76 0.005 0
3.84 0.005 0
3.92 0.005 0
4 0.005 0
4.08 0.005 0
4.16 0.005 0
4.24 0.005 0
4.32 0.005 0
4.4 0.005 0
4.48 0.005 0
4.56 0.005 0
4.64 0.005 0
4.72 0.005 0
4.8 0.005 0
4.88 0.005 0
4.96 0.005 0
5.04 0.005 0
5.12 0.005 0
5.2 0.005 0
5.28 0.005 0
5.36 0.005 0
5.44 0.005 0
5.52 0.005 0
5.6 0.005 0
5.68 0.005 0
5.76 0.005 0
5.84 0.005 0
5.92 0.005 0
6 0.005 0
6.08 0.005 0
6.16 0.005 0
6.24 0.005 0
6.32 0.005 0
6.4 0.005 0
6.48 0.005 0
6.56 0.005 0
6.64 0.005 0
6.72 0.005 0
6.8 0.005 0
6.88 0.005 0
6.96 0.005 0
7.04 0.005 0
7.12 0.005 0
7.2 0.005 0
7.28 0.005 0
7.36 0.005 0
7.44 0.005 0
7.52 0.005 0
7.6 0.005 0
7.68 0.005 0
7.76 0.005 0
7.84 0.005 0
7.92 0.005 0
8 0.005 0
8.08 0.005 0
8.16 0.005 0
8.24 0.005 0
8.32 0.005 0
8.4 0.005 0
8.48 0.005 0
8.56 0.005 0
8.64 0.005 0
8.72 0.005 0
8.8 0.005 0
8.88 0.005 0
8.96 0.005 0
9.04 0.005 0
9.12 0.005 0
9.2 0.005 0
9.28 0.005 0
9.36 0.005 0
9.44 0.005 0
9.52 0.005 0
9.6 0.005 0
9.68 0.005 0
9.76 0.005 0
9.84 0.005 0
9.92 0.005 0
10 0.005 0
10.08 0.005 0
10.16 0.005 0
10.24 0.005 0
10.32 0.005 0
10.4 0.005 0
10.48 0.005 0
10.56 0.005 0
10.64 0.005 0
10.72 0.005 0
10.8 0.005 0
10.88 0.005 0
10.96 0.005 0
11.04 0.005 0
11.12 0.005 0
11.2 0.005 0
11.28 0.005 0
11.36 0.005 0
11.44 0.005 0
11.52 0.005 0
11.6 0.005 0
11.68 0.005 0
11.76 0.005 0
11.84 0.005 0
11.92 0.005 0
12 0.005 0
12.08 0.005 0
12.16 0.005 0
12.24 0.005 0
12.32 0.005 0
12.4 0.005 0
12.48 0.005 0
12.56 0.005 0
12.64 0.005 0
12.72 0.005 0
12.8 0.005 0
12.88 0.005 0
12.96 0.005 0
13.04 0.005 0
13.12 0.005 0
13.2 0.005 0
13.28 0.005 0
13.36 0.005 0
13.44 0.005 0
13.52 0.005 0
13.6 0.005 0
13.68 0.005 0
13.76 0.005 0
13.84 0.005 0
13.92 0.005 0
14 0.005 0
14.08 0.005 0
14.16 0.005 0
14.24 0.005 0
14.32 0.005 0
14.4 0.005 0
14.48 0.005 0
14.56 0.005 0
14.64 0.005 0
14.72 0.005 0
14.8 0.005 0
14.88 0.005 0
14.96 0.005 0
15.04 0.005 0
15.12 0.005 0
15.2 0.005 0
15.28 0.005 0
15.36 0.005 0
15.44 0.005 0
15.52 0.005 0
15.6 0.005 0
15.68 0.005 0
15.76 0.005 0
15.84 0.005 0
15.92 0.005 0
16 0.005 0
16.08 0.005 0
16.16 0.005 0
16.24 0.005 0
16.32 0.005 0
16.4 0.005 0
16.48 0.005 0
16.56 0.005 0
16.64 0.005 0
16.72 0.005 0
16.8 0.005 0
16.88 0.005 0
16.96 0.005 0
17.04 0.005 0
17.12 0.005 0
17.2 0.005 0
17.28 0.005 0
17.36 0.005 0
17.44 0.005 0
17.52 0.005 0
17.6 0.005 0
17.68 0.005 0
17.76 0.005 0
17.84 0.005 0
17.92 0.005 0
18 0.005 0
18.08 0.005 0
18.16 0.005 0
18.24 0.005 0
18.32 0.005 0
18.4 0.005 0
18.48 0.005 0
18.56 0.005 0
18.64 0.005 0
18.72 0.005 0
18.8 0.005 0
18.88 0.005 0
18.96 0.005 0
19.04 0.005 0
19.12 0.005 0
19.2 0.005 0
19.28 0.005 0
19.36 0.005 0
19.44 0.005 0
19.52 0.005 0
19.6 0.005 0
19.68 0.005 0
19.76 0.005 0
19.84 0.005 0
19.92 0.005 0
20 0.005 0
20.08 0.005 0
20.16 0.005 0
20.24 0.005 0
20.32 0.005 0
20.4 0.005 0
20.48 0.005 0
20.56 0.005 0
20.64 0.005 0
20.72 0.005 0
20.8 0.005 0
20.88 0.005 0
20.96 0.005 0
21.04 0.005 0
21.12 0.005 0
21.2 0.005 0
21.28 0.005 0
21.36 0.005 0
21.44 0.005 0
21.52 0.005 0
21.6 0.005 0
21.68 0.005 0
21.76 0.005 0
21.84 0.005 0
21.92 0.005 0
22 0.005 0
22.08 0.005 0
22.16 0.005 0
22.24 0.005 0
22.32 0.005 0
22.4 0.005 0
22.48 0.005 0
22.56 0.005 0
22.64 0.005 0
22.72 0.005 0
22.8 0.005 0
22.88 0.005 0
22.96 0.005 0
23.04 0.005 0
23.12 0.005 0
23.2 0.005 0
23.28 0.005 0
23.36 0.005 0
23.44 0.005 0
23.52 0.005 0
23.6 0.005 0
23.68 0.005 0
23.76 0.005 0
23.84 0.005 0
23.92 0.005 0
24 0.005 0
24.08 0.005 0
24.16 0.005 0
24.24 0.005 0
24.32 0.005 0
24.4 0.005 0
24.48 0.005 0
24.56 0.005 0
24.64 0.005 0
24.72 0.005 0
24.8 0.005 0
24.88 0.005 0
24.96 0.005 0
25.04 0.005 0
25.12 0.005 0
25.2 0.005 0
25.28 0.005 0
25.36 0.005 0
25.44 0.005 0
25.52 0.005 0
25.6 0.005 0
25.68 0.005 0
25.76 0.005 0
25.84 0.005 0
25.92 0.005 0
26 0.005 0
26.08 0.005 0
26.16 0.005 0
26.24 0.005 0
26.32 0.005 0
26.4 0.005 0
26.48 0.005 0
26.56 0.005 0
26.64 0.005 0
26.72 0.005 0
26.8 0.005 0
26.88 0.005 0
26.96 0.005 0
27.04 0.005 0
27.12 0.005 0
27.2 0.005 0
27.28 0.005 0
27.36 0.005 0
27.44 0.005 0
27.52 0.005 0
27.6 0.005 0
27.68 0.005 0
27.76 0.005 0
27.84 0.005 0
27.92 0.005 0
28 0.005 0
28.08 0.005 0
28.16 0.005 0
28.24 0.005 0
28.32 0.005 0
28.4 0.005 0
28.48 0.005 0
28.56 0.005 0
28.64 0.005 0
28.72 0.005 0
28.8 0.005 0
28.88 0.005 0
28.96 0.005 0
29.04 0.005 0
29.12 0.005 0
29.2 0.005 0
29.28 0.005 0
29.36 0.005 0
29.44 0.005 0
29.52 0.005 0
29.6 0.005 0
29.68 0.005 0
29.76 0.005 0
29.84 0.005 0
29.92 0.005 0
30 0.005 0
30.08 0.005 0
30.16 0.005 0
30.24 0.005 0
30.32 0.005 0
30.4 0.005 0
30.48 0.005 0
30.56 0.005 0
30.64 0.005 0
30.72 0.005 0
30.8 0.005 0
30.88 0.005 0
30.96 0.005 0
31.04 0.005 0
31.12 0.005 0
31.2 0.005 0
31.28 0.005 0
31.36 0.005 0
31.44 0.005 0
31.52 0.005 0
31.6 0.005 0
31.68 0.005 0
31.76 0.005 0
31.84 0.005 0
31.92 0.005 0
0 0.01 0
0.08 0.01 0
0.16 0.01 0
0.24 0.01 0
0.32 0.01 0
0.4 0.01 0
0.48 0.01 0
0.56 0.01 0
0.64 0.01 0
0.72 0.01 0
0.8 0.01 0
0.88 0.01 0
0.96 0.01 0
1.04 0.01 0
1.12 0.01 0
1.2 0.01 0
1.28 0.01 0
1.36 0.01 0
1.44 0.01 0
1.52 0.01 0
1.6 0.01 0
1.68 0.01 0
1.76 0.01 0
1.84 0.01 0
1.92 0.01 0
2 0.01 0
2.08 0.01 0
2.16 0.01 0
2.24 0.01 0
2.32 0.01 0
2.4 0.01 0
2.48 0.01 0
2.56 0.01 0
2.64 0.01 0
2.72 0.01 0
2.8 0.01 0
2.88 0.01 0
2.96 0.01 0
3.04 0.01 0
3.12 0.01 0
3.2 0.01 0
3.28 0.01 0
3.36 0.01 0
3.44 0.01 0
3.52 0.01 0
3.6 0.01 0
3.68 0.01 0
3.76 0.01 0
3.84 0.01 0
3.92 0.01 0
4 0.01 0
4.08 0.01 0
4.16 0.01 0
4.24 0.01 0
4.32 0.01 0
4.4 0.01 0
4.48 0.01 0
4.56 0.01 0
4.64 0.01 0
4.72 0.01 0
4.8 0.01 0
4.88 0.01 0
4.96 0.01 0
5.04 0.01 0
5.12 0.01 0
[...]
POINT_DATA 80000

SCALARS v float 1
LOOKUP_TABLE default
0
0
0
0
0
0
0
0
0
0
0
0
0
0
0
0
0
0
0
0
0
0
0
0
0
0
0
0
0
0
0
0
0
0
0
0
0
0
0
0
0
0
0
0
0
0
0
0
0
0
0
0
0
0
0
0
0
0
0
0
0
0
0
0
0
0
0
0
0
0
0
0
0
0
0
0
0
0
0
0
0
0
0
0
0
0
0
0
0
0
0
0
0
0
0
0
0
0
0
0
0
0
0
0
0
0
0
0
0
0
0
0
0
0
0
0
0
0
0
0
0
0
0
0
0
0
0
0
0
0
0
0
0
0
0
0
0
0
0
0
0
0
0
0
0
0
0
0
0
0
0
0
0
0
0
0
0
0
0
0
0
0
0
0
0
0
0
0
0
0
0
0
0
0
0
0
0
0
0
0
0
0
0
0
0
0
0
0
0
0
0
0
0
0
0
0
0
0
0
0
0
0
0
0
0
0
0
0
0
0
0
0
0
0
0
0
0
0
0
0
0
0
0
0
0
0
0
0
0
0
0
0
0
0
0
0
0
0
0
0
0
0
0
0
0
0
0
0
0
0
0
0
0
0
0
0
0
0
0
0
0
0
0
0
0
0
0
0
0
0
0
0
0
0
0
0
0
0
0
0
0
0
0
0
0
0
0
0
0
0
0
0
0
0
0
0
0
0
0
0
0
0
0
0
0
0
0
0
0
0
0
0
0
0
0
0
0
0
0
0
0
0
0
0
0
0
0
0
0
0
0
0
0
0
0
0
0
0
0
0
0
0
0
0
0
0
0
0
0
0
0
0
0
0
0
0
0
0
0
0
0
0
0
0
0
0
0
0
0
0
0
0
0
0
0
0
0
0
0
0
0
0
0
0
0
0
0
0
0
0
0
0
0
0
0
0
0
0
0
0
-0.0543108
0.0543108
0.00400395
0.00104207
0.000536158
0.000344924
0.000248674
0.000193869
0.00015781
0.000128816
0.000103399
8.26583e-05
6.79243e-05
5.88166e-05
5.3778e-05
5.12207e-05
5.00877e-05
4.98159e-05
5.01055e-05
5.07587e-05
5.16244e-05
5.25943e-05
5.36047e-05
5.4629e-05
5.56649e-05
5.67221e-05
5.78137e-05
5.89523e-05
6.01483e-05
6.14096e-05
6.27424e-05
6.41516e-05
6.5641e-05
6.7214e-05
6.88736e-05
7.06226e-05
7.24635e-05
7.43986e-05
7.64302e-05
7.85603e-05
8.07905e-05
8.31225e-05
8.55575e-05
8.80965e-05
9.07401e-05
9.34887e-05
9.63421e-05
9.92999e-05
0.000102361
0.000105525
0.000108788
0.00011215
0.000115606
0.000119154
0.000122789
0.000126508
0.000130304
0.000134172
0.000138105
0.000142097
0.00014614
0.000150226
0.000154346
0.000158492
0.000162652
0.000166817
0.000170976
0.000175117
0.00017923
0.000183303
0.000187322
0.000191276
0.000195152
0.000198937
0.000202619
0.000206184
0.00020962
0.000212914
0.000216054
0.000219027
0.000221823
0.000224428
0.000226834
0.000229029
0.000231004
0.00023275
0.000234258
0.000235521
0.000236533
0.000237288
0.00023778
0.000238007
0.000237966
0.000237654
0.000237072
0.000236218
0.000235095
0.000233705
0.000232051
0.000230138
0.000227971
0.000225556
0.000222901
0.000220014
0.000216903
0.000213578
0.00021005
0.00020633
0.000202429
0.000198359
0.000194134
0.000189765
0.000185267
0.000180653
0.000175937
0.000171131
0.000166251
0.000161309
0.00015632
0.000151296
0.000146251
0.000141198
0.000136149
0.000131116
0.000126111
0.000121144
0.000116227
0.000111369
0.000106579
0.000101867
9.72394e-05
9.27047e-05
8.82693e-05
8.39392e-05
7.97198e-05
7.56158e-05
7.16312e-05
6.77694e-05
6.40333e-05
6.04248e-05
5.69457e-05
5.35969e-05
5.03788e-05
4.72915e-05
4.43344e-05
4.15065e-05
3.88065e-05
3.62326e-05
3.37827e-05
3.14543e-05
2.92447e-05
2.71511e-05
2.51701e-05
2.32985e-05
2.15328e-05
1.98692e-05
1.8304e-05
1.68334e-05
1.54536e-05
1.41606e-05
1.29505e-05
1.18194e-05
1.07635e-05
9.77887e-06
8.86185e-06
8.00875e-06
7.21594e-06
6.47996e-06
5.79738e-06
5.16496e-06
4.57951e-06
4.03801e-06
3.53752e-06
3.07528e-06
2.64861e-06
2.25502e-06
1.89206e-06
1.5575e-06
1.24917e-06
9.65069e-07
7.0327e-07
4.62019e-07
2.39615e-07
3.4526e-08
-1.54732e-07
-3.29486e-07
-4.91022e-07
-6.40479e-07
-7.78965e-07
-9.07449e-07
-1.02688e-06
-1.13807e-06
-1.24183e-06
-1.33885e-06
-1.4298e-06
-1.51525e-06
-1.59578e-06
-1.67185e-06
-1.74394e-06
-1.81243e-06
-1.87773e-06
-1.94013e-06
-1.99997e-06
-2.05749e-06
-2.11298e-06
-2.16661e-06
-2.21863e-06
-2.26917e-06
-2.31844e-06
-2.36653e-06
-2.41361e-06
-2.45977e-06
-2.50513e-06
-2.54975e-06
-2.59375e-06
-2.63717e-06
-2.68009e-06
-2.72255e-06
-2.76461e-06
-2.80631e-06
-2.8477e-06
-2.8888e-06
-2.92965e-06
-2.97025e-06
-3.01067e-06
-3.05088e-06
-3.09094e-06
-3.13084e-06
-3.17061e-06
-3.21024e-06
-3.24977e-06
-3.28918e-06
-3.32851e-06
-3.36773e-06
-3.40689e-06
-3.44595e-06
-3.48496e-06
-3.52388e-06
-3.56276e-06
-3.60156e-06
-3.64032e-06
-3.67901e-06
-3.71767e-06
-3.75626e-06
-3.79482e-06
-3.83333e-06
-3.87181e-06
-3.91023e-06
-3.94863e-06
-3.98699e-06
-4.02532e-06
-4.0636e-06
-4.10187e-06
-4.1401e-06
-4.17831e-06
-4.21648e-06
-4.25464e-06
-4.29276e-06
-4.33087e-06
-4.36895e-06
-4.40703e-06
-4.44507e-06
-4.4831e-06
-4.52111e-06
-4.55912e-06
-4.59711e-06
-4.63509e-06
-4.67305e-06
-4.71102e-06
-4.74897e-06
-4.78692e-06
-4.82486e-06
-4.86281e-06
-4.90075e-06
-4.9387e-06
-4.97664e-06
-5.01459e-06
-5.05254e-06
-5.09051e-06
-5.12847e-06
-5.16646e-06
-5.20445e-06
-5.24246e-06
-5.28047e-06
-5.31852e-06
-5.35657e-06
-5.39465e-06
-5.43274e-06
-5.47087e-06
-5.50901e-06
-5.54718e-06
-5.58537e-06
-5.62361e-06
-5.66185e-06
-5.70015e-06
-5.73846e-06
-5.77683e-06
-5.81521e-06
-5.85364e-06
-5.8921e-06
-5.93061e-06
-5.96915e-06
-6.00775e-06
-6.04637e-06
-6.08505e-06
-6.12376e-06
-6.16253e-06
-6.20134e-06
-6.24021e-06
-6.27911e-06
-6.31807e-06
-6.35707e-06
-6.39614e-06
-6.43525e-06
-6.47442e-06
-6.51363e-06
-6.55291e-06
-6.59223e-06
-6.63162e-06
-6.67106e-06
-6.71056e-06
-6.75011e-06
-6.78973e-06
-6.8294e-06
-6.86914e-06
-6.90893e-06
-6.94879e-06
-6.9887e-06
-7.02869e-06
-7.06873e-06
-7.10885e-06
-7.14901e-06
-7.18926e-06
-7.22956e-06
-7.26994e-06
-7.31038e-06
-7.3509e-06
-7.39148e-06
-7.43214e-06
-7.47286e-06
-7.51367e-06
-7.55453e-06
-7.59549e-06
-7.63651e-06
-7.67762e-06
-7.71879e-06
-7.76006e-06
-7.8014e-06
-7.84283e-06
-7.88433e-06
-7.92593e-06
-7.9676e-06
-8.00937e-06
-8.05122e-06
-8.09317e-06
-8.1352e-06
-8.17733e-06
-8.21955e-06
-8.26187e-06
-8.30428e-06
-8.3468e-06
-8.38941e-06
-8.43214e-06
-8.47495e-06
-8.51789e-06
-8.56092e-06
-8.60407e-06
-8.64732e-06
-8.6907e-06
-8.73418e-06
-8.77779e-06
-8.8215e-06
-8.86535e-06
-8.90931e-06
-8.95341e-06
-8.99763e-06
-9.04198e-06
-9.08646e-06
-9.13108e-06
-9.17583e-06
-9.22073e-06
-9.26576e-06
-9.31096e-06
-9.35636e-06
-9.40179e-06
-9.4481e-06
-9.49221e-06
-9.54546e-06
-9.57082e-06
-9.6811e-06
-9.56645e-06
-9.99834e-06
-9.2733e-06
-1.06964e-05
-8.77821e-06
-1.11416e-05
-9.40934e-06
-8.94658e-06
-9.98485e-06
-9.98485e-06
-0.0952602
0.0952602
0.0130267
0.0039127
0.00199232
0.00124735
0.000869486
0.00065242
0.000507659
0.00039068
0.000288877
0.000206506
0.000148071
0.000111537
9.06869e-05
7.94028e-05
7.36361e-05
7.11862e-05
7.0837e-05
7.17739e-05
7.33867e-05
7.52498e-05
7.71178e-05
7.88886e-05
8.05505e-05
8.2135e-05
8.36854e-05
8.52417e-05
8.68349e-05
8.84875e-05
9.02146e-05
9.20268e-05
9.3931e-05
9.59325e-05
9.80351e-05
0.000100242
0.000102556
0.000104978
0.000107512
0.000110158
0.000112918
0.000115793
0.000118783
0.000121889
0.000125111
0.000128447
0.000131898
0.000135461
0.000139134
0.000142915
0.000146801
0.000150788
0.000154872
0.000159047
0.000163308
0.00016765
0.000172064
0.000176544
0.000181081
0.000185666
0.000190291
0.000194944
0.000199616
0.000204294
0.000208968
0.000213624
0.000218251
0.000222835
0.000227362
0.00023182
0.000236192
0.000240467
0.000244628
0.000248662
0.000252554
0.000256291
0.000259857
0.00026324
0.000266425
0.000269401
0.000272153
0.000274671
0.000276942
0.000278957
0.000280705
0.000282178
0.000283367
0.000284265
0.000284866
0.000285166
0.000285159
0.000284844
0.000284218
0.000283281
0.000282034
0.000280479
0.000278618
0.000276455
0.000273996
0.000271248
0.000268217
0.000264912
0.000261342
0.000257519
0.000253452
0.000249155
0.00024464
0.000239919
0.000235008
0.000229921
0.000224673
0.000219278
0.000213753
0.000208114
0.000202375
0.000196553
0.000190664
0.000184722
0.000178744
0.000172745
0.000166739
0.000160741
0.000154764
0.000148822
0.000142927
0.000137092
0.000131328
0.000125645
0.000120054
0.000114565
0.000109184
0.000103921
9.87821e-05
9.37735e-05
8.89008e-05
8.41687e-05
7.9581e-05
7.5141e-05
7.08511e-05
6.67134e-05
6.27287e-05
5.88979e-05
5.52208e-05
5.16969e-05
4.8325e-05
4.51036e-05
4.20306e-05
3.91036e-05
3.63198e-05
3.36761e-05
3.1169e-05
2.87949e-05
2.65498e-05
2.44297e-05
2.24303e-05
2.05473e-05
1.87761e-05
1.71123e-05
1.55513e-05
1.40886e-05
1.27195e-05
1.14396e-05
1.02443e-05
9.12935e-06
8.09031e-06
7.12306e-06
6.22339e-06
5.38739e-06
4.61112e-06
3.89093e-06
3.22315e-06
2.60443e-06
2.03138e-06
1.50096e-06
1.01006e-06
5.55959e-07
1.35846e-07
-2.52715e-07
-6.12236e-07
-9.44868e-07
-1.25284e-06
-1.53805e-06
-1.80244e-06
-2.04767e-06
-2.27544e-06
-2.48717e-06
-2.68434e-06
-2.86816e-06
-3.03992e-06
-3.20061e-06
-3.35137e-06
-3.49302e-06
-3.62652e-06
-3.75256e-06
-3.87195e-06
-3.98526e-06
-4.09318e-06
-4.19615e-06
-4.29478e-06
-4.3894e-06
-4.48054e-06
-4.56845e-06
-4.65357e-06
-4.73609e-06
-4.8164e-06
-4.89463e-06
-4.9711e-06
-5.0459e-06
-5.11931e-06
-5.19138e-06
-5.26237e-06
-5.33228e-06
-5.40134e-06
-5.46953e-06
-5.53705e-06
-5.60388e-06
-5.67019e-06
-5.73592e-06
-5.80126e-06
-5.86613e-06
-5.93068e-06
-5.99485e-06
-6.05877e-06
-6.12237e-06
-6.18578e-06
-6.24892e-06
-6.31191e-06
-6.37467e-06
-6.43732e-06
-6.49975e-06
-6.56211e-06
-6.62428e-06
-6.68638e-06
-6.74833e-06
-6.81022e-06
-6.87196e-06
-6.93367e-06
-6.99525e-06
-7.0568e-06
-7.11822e-06
-7.17963e-06
-7.24092e-06
-7.3022e-06
-7.36337e-06
-7.42454e-06
-7.48561e-06
-7.54668e-06
-7.60766e-06
-7.66864e-06
-7.72953e-06
-7.79044e-06
-7.85126e-06
-7.9121e-06
-7.97285e-06
-8.03363e-06
-8.09433e-06
-8.15506e-06
-8.21571e-06
-8.2764e-06
-8.33702e-06
-8.39768e-06
-8.45827e-06
-8.5189e-06
-8.57947e-06
-8.64008e-06
-8.70064e-06
-8.76125e-06
-8.82181e-06
-8.88242e-06
-8.94299e-06
-9.00361e-06
-9.06419e-06
-9.12483e-06
-9.18544e-06
-9.24611e-06
-9.30675e-06
-9.36746e-06
-9.42814e-06
-9.4889e-06
-9.54963e-06
-9.61045e-06
-9.67125e-06
-9.73213e-06
-9.793e-06
-9.85396e-06
-9.91491e-06
-9.97595e-06
-1.0037e-05
-1.00981e-05
-1.01593e-05
-1.02205e-05
-1.02818e-05
-1.03431e-05
-1.04045e-05
-1.0466e-05
-1.05275e-05
-1.05891e-05
-1.06507e-05
-1.07125e-05
-1.07742e-05
-1.08361e-05
-1.0898e-05
-1.09601e-05
-1.10222e-05
-1.10844e-05
-1.11466e-05
-1.1209e-05
-1.12715e-05
-1.1334e-05
-1.13966e-05
-1.14594e-05
-1.15222e-05
-1.15851e-05
-1.16481e-05
-1.17112e-05
-1.17744e-05
-1.18377e-05
-1.19011e-05
-1.19647e-05
-1.20283e-05
-1.2092e-05
-1.21559e-05
-1.22198e-05
-1.22839e-05
-1.23481e-05
-1.24124e-05
-1.24768e-05
-1.25413e-05
-1.2606e-05
-1.26707e-05
-1.27356e-05
-1.28006e-05
-1.28658e-05
-1.2931e-05
-1.29965e-05
-1.3062e-05
-1.31277e-05
-1.31934e-05
-1.32594e-05
-1.33254e-05
-1.33917e-05
-1.3458e-05
-1.35245e-05
-1.35911e-05
-1.36579e-05
-1.37248e-05
-1.3792e-05
-1.38592e-05
-1.39266e-05
-1.39941e-05
-1.40619e-05
-1.41297e-05
-1.41978e-05
-1.4266e-05
-1.43344e-05
-1.44029e-05
-1.44717e-05
-1.45406e-05
-1.46097e-05
-1.4679e-05
-1.47485e-05
-1.48181e-05
-1.4888e-05
-1.49581e-05
-1.50284e-05
-1.50988e-05
-1.51696e-05
-1.52405e-05
-1.53116e-05
-1.5383e-05
-1.54546e-05
-1.55264e-05
-1.55985e-05
-1.56708e-05
-1.57434e-05
-1.58162e-05
-1.58894e-05
-1.59627e-05
-1.60364e-05
-1.61103e-05
-1.61845e-05
-1.6259e-05
-1.63339e-05
-1.64092e-05
-1.64845e-05
-1.65626e-05
-1.6633e-05
-1.67349e-05
-1.67396e-05
-1.70419e-05
-1.65491e-05
-1.80057e-05
-1.52971e-05
-2.04028e-05
-1.32187e-05
-2.19891e-05
-1.52252e-05
-1.42577e-05
-1.73869e-05
-1.73869e-05
-0.125338
0.125338
0.0249924
0.00842904
0.00434795
0.00271604
0.00188095
0.00139775
0.00107264
0.00080933
0.000581477
0.00039828
0.000268605
0.000187196
0.000140196
0.000114273
0.00010062
9.43748e-05
9.27772e-05
9.39634e-05
9.65565e-05
9.96157e-05
0.000102608
0.000105314
0.000107711
0.000109863
0.000111862
0.00011379
0.000115708
0.000117661
0.000119677
0.000121776
0.000123969
0.000126263
0.000128664
0.000131174
0.000133797
0.000136535
0.000139388
0.000142357
0.000145445
0.00014865
0.000151972
0.000155411
0.000158966
0.000162636
0.000166418
0.00017031
0.000174308
0.00017841
0.000182611
0.000186906
0.00019129
0.000195757
0.000200299
0.000204909
0.00020958
0.000214303
0.000219067
0.000223864
0.000228683
0.000233511
0.000238339
0.000243152
0.000247939
0.000252686
0.000257379
0.000262004
0.000266547
0.000270994
0.000275329
0.000279539
0.000283606
0.000287518
0.000291259
0.000294814
0.00029817
0.000301312
0.000304227
0.000306902
0.000309324
0.000311482
0.000313365
0.000314963
0.000316267
0.000317267
0.000317957
0.000318331
0.000318382
0.000318109
0.000317506
0.000316573
0.00031531
0.000313716
0.000311795
0.000309548
0.000306981
0.000304099
0.000300909
0.000297419
0.000293638
0.000289575
0.000285242
0.00028065
0.000275813
0.000270744
0.000265456
0.000259966
0.000254287
0.000248437
0.000242432
0.000236287
0.00023002
0.000223647
0.000217186
0.000210652
0.000204064
0.000197437
0.000190787
0.00018413
0.000177482
0.000170858
0.000164271
0.000157736
0.000151265
0.000144872
0.000138567
0.000132361
0.000126265
0.000120288
0.000114438
0.000108724
0.000103151
9.77256e-05
9.24536e-05
8.73392e-05
8.23858e-05
7.75965e-05
7.29732e-05
6.85176e-05
6.42302e-05
6.01113e-05
5.61602e-05
5.23762e-05
4.87573e-05
4.53017e-05
4.20067e-05
3.88695e-05
3.58867e-05
3.30547e-05
3.03696e-05
2.78272e-05
2.54231e-05
2.31527e-05
2.10113e-05
1.89943e-05
1.70964e-05
1.5313e-05
1.36388e-05
1.20692e-05
1.05989e-05
9.22339e-06
7.93747e-06
6.73668e-06
5.61615e-06
4.57159e-06
3.59835e-06
2.69241e-06
1.84941e-06
1.06561e-06
3.36968e-07
-3.39947e-07
-9.68862e-07
-1.55288e-06
-2.09539e-06
-2.59919e-06
-3.06734e-06
-3.50231e-06
-3.90686e-06
-4.28314e-06
-4.63362e-06
-4.96017e-06
-5.26497e-06
-5.54962e-06
-5.81605e-06
-6.0656e-06
-6.29998e-06
-6.52031e-06
-6.72806e-06
-6.92418e-06
-7.10995e-06
-7.28611e-06
-7.4538e-06
-7.61361e-06
-7.76652e-06
-7.91298e-06
-8.05386e-06
-8.18948e-06
-8.3206e-06
-8.44745e-06
-8.57069e-06
-8.69048e-06
-8.80738e-06
-8.92149e-06
-9.03332e-06
-9.14288e-06
-9.25064e-06
-9.35657e-06
-9.46108e-06
-9.5641e-06
-9.66602e-06
-9.76673e-06
-9.86658e-06
-9.96544e-06
-1.00636e-05
-1.0161e-05
-1.02579e-05
-1.03541e-05
-1.04499e-05
-1.05451e-05
-1.064e-05
-1.07345e-05
-1.08287e-05
-1.09226e-05
-1.10162e-05
-1.11095e-05
-1.12027e-05
-1.12956e-05
-1.13883e-05
-1.14808e-05
-1.15733e-05
-1.16655e-05
-1.17576e-05
-1.18496e-05
-1.19415e-05
-1.20332e-05
-1.21249e-05
-1.22164e-05
-1.23079e-05
-1.23993e-05
-1.24906e-05
-1.25818e-05
-1.2673e-05
-1.27641e-05
-1.28552e-05
-1.29461e-05
-1.30372e-05
-1.3128e-05
-1.32189e-05
-1.33097e-05
-1.34005e-05
-1.34912e-05
-1.3582e-05
-1.36727e-05
-1.37634e-05
-1.3854e-05
-1.39447e-05
-1.40353e-05
-1.4126e-05
-1.42166e-05
-1.43072e-05
-1.43978e-05
-1.44885e-05
-1.45791e-05
-1.46698e-05
-1.47604e-05
-1.48511e-05
-1.49417e-05
-1.50325e-05
-1.51232e-05
-1.5214e-05
-1.53048e-05
-1.53957e-05
-1.54865e-05
-1.55775e-05
-1.56684e-05
-1.57595e-05
-1.58505e-05
-1.59417e-05
-1.60328e-05
-1.61241e-05
-1.62154e-05
-1.63068e-05
-1.63982e-05
-1.64898e-05
-1.65814e-05
-1.66731e-05
-1.67648e-05
-1.68568e-05
-1.69487e-05
-1.70408e-05
-1.71329e-05
-1.72252e-05
-1.73175e-05
-1.741e-05
-1.75026e-05
-1.75953e-05
-1.76881e-05
-1.77811e-05
-1.78741e-05
-1.79673e-05
-1.80606e-05
-1.81541e-05
-1.82476e-05
-1.83414e-05
-1.84352e-05
-1.85293e-05
-1.86234e-05
-1.87178e-05
-1.88122e-05
-1.89069e-05
-1.90016e-05
-1.90966e-05
-1.91916e-05
-1.9287e-05
-1.93824e-05
-1.9478e-05
-1.95737e-05
-1.96698e-05
-1.97658e-05
-1.98622e-05
-1.99587e-05
-2.00554e-05
-2.01522e-05
-2.02494e-05
-2.03466e-05
-2.04441e-05
-2.05417e-05
-2.06396e-05
-2.07376e-05
-2.08359e-05
-2.09343e-05
-2.10331e-05
-2.11319e-05
-2.12311e-05
-2.13304e-05
-2.143e-05
-2.15298e-05
-2.16298e-05
-2.173e-05
-2.18306e-05
-2.19312e-05
-2.20323e-05
-2.21334e-05
-2.2235e-05
-2.23366e-05
-2.24386e-05
-2.25408e-05
-2.26434e-05
-2.27461e-05
-2.28492e-05
-2.29524e-05
-2.30561e-05
-2.31599e-05
-2.32641e-05
-2.33685e-05
-2.34733e-05
-2.35783e-05
-2.36838e-05
-2.37894e-05
-2.38955e-05
-2.40018e-05
-2.41085e-05
-2.42155e-05
-2.43229e-05
-2.44306e-05
-2.45387e-05
-2.46472e-05
-2.47561e-05
-2.48653e-05
-2.4975e-05
-2.5085e-05
-2.51956e-05
-2.53064e-05
-2.54178e-05
-2.55296e-05
-2.56419e-05
-2.57545e-05
-2.58678e-05
-2.59814e-05
-2.60957e-05
-2.62104e-05
-2.63258e-05
-2.64421e-05
-2.65583e-05
-2.668e-05
-2.67862e-05
-2.69561e-05
-2.69281e-05
-2.751e-05
-2.64548e-05
-2.94357e-05
-2.37442e-05
-3.44275e-05
-1.91816e-05
-3.78768e-05
-2.31291e-05
-2.25235e-05
-2.78907e-05
-2.78907e-05
-0.146529
0.146529
0.0383679
0.0143148
0.00753351
0.00472291
0.00326818
0.00241994
0.00184484
0.00137829
0.000976382
0.000654766
0.000427376
0.000284052
0.000200541
0.000153883
0.000128905
0.000117099
0.000113527
0.000114824
0.000118533
0.000123002
0.000127306
0.000131072
0.000134259
0.000136977
0.000139379
0.0001416
0.000143743
0.000145881
0.00014806
0.000150308
0.000152644
0.000155079
0.000157618
0.000160266
0.000163025
0.000165898
0.000168884
0.000171986
0.000175202
0.000178532
0.000181976
0.000185532
0.000189199
0.000192974
0.000196854
0.000200838
0.000204919
0.000209096
0.000213361
0.000217711
0.000222138
0.000226636
0.000231198
0.000235815
0.000240478
0.000245179
0.000249907
0.000254652
0.000259402
0.000264147
0.000268872
0.000273567
0.000278218
0.00028281
0.000287331
0.000291765
0.000296099
0.000300317
0.000304405
0.000308348
0.000312131
0.000315739
0.000319158
0.000322373
0.000325371
0.000328137
0.000330659
0.000332924
0.000334921
0.000336638
0.000338064
0.000339191
0.00034001
0.000340513
0.000340693
0.000340546
0.000340067
0.000339252
0.0003381
0.000336611
0.000334783
0.00033262
0.000330124
0.000327299
0.000324151
0.000320686
0.000316912
0.000312838
0.000308474
0.00030383
0.000298918
0.000293752
0.000288344
0.00028271
0.000276863
0.00027082
0.000264597
0.00025821
0.000251677
0.000245013
0.000238237
0.000231365
0.000224416
0.000217406
0.000210352
0.000203271
0.000196179
0.000189093
0.000182028
0.000174998
0.000168019
0.000161105
0.000154267
0.000147519
0.000140871
0.000134336
0.000127923
0.00012164
0.000115497
0.0001095
0.000103657
9.79725e-05
9.24522e-05
8.71001e-05
8.19193e-05
7.69128e-05
7.20818e-05
6.7428e-05
6.29514e-05
5.86521e-05
5.45289e-05
5.05808e-05
4.68054e-05
4.32009e-05
3.97638e-05
3.64914e-05
3.33796e-05
3.04248e-05
2.76224e-05
2.49683e-05
2.24575e-05
2.00855e-05
1.78469e-05
1.5737e-05
1.37502e-05
1.18818e-05
1.01261e-05
8.47843e-06
6.93311e-06
5.48548e-06
4.13012e-06
2.86251e-06
1.67742e-06
5.70566e-07
-4.63012e-07
-1.42733e-06
-2.32705e-06
-3.16587e-06
-3.94813e-06
-4.6772e-06
-5.35709e-06
-5.99083e-06
-6.58207e-06
-7.13352e-06
-7.64849e-06
-8.12937e-06
-8.57913e-06
-8.99984e-06
-9.39419e-06
-9.76392e-06
-1.01114e-05
-1.04382e-05
-1.07464e-05
-1.10373e-05
-1.13126e-05
-1.15734e-05
-1.18215e-05
-1.20575e-05
-1.2283e-05
-1.24986e-05
-1.27055e-05
-1.29042e-05
-1.3096e-05
-1.3281e-05
-1.34604e-05
-1.36343e-05
-1.38036e-05
-1.39684e-05
-1.41296e-05
-1.42871e-05
-1.44418e-05
-1.45934e-05
-1.47428e-05
-1.48897e-05
-1.50349e-05
-1.5178e-05
-1.53198e-05
-1.54599e-05
-1.55989e-05
-1.57366e-05
-1.58734e-05
-1.60092e-05
-1.61443e-05
-1.62784e-05
-1.64121e-05
-1.6545e-05
-1.66775e-05
-1.68094e-05
-1.6941e-05
-1.7072e-05
-1.72028e-05
-1.73331e-05
-1.74633e-05
-1.75931e-05
-1.77228e-05
-1.7852e-05
-1.79813e-05
-1.81102e-05
-1.8239e-05
-1.83676e-05
-1.84961e-05
-1.86244e-05
-1.87527e-05
-1.88807e-05
-1.90087e-05
-1.91365e-05
-1.92644e-05
-1.9392e-05
-1.95197e-05
-1.96472e-05
-1.97747e-05
-1.99021e-05
-2.00295e-05
-2.01567e-05
-2.02841e-05
-2.04113e-05
-2.05386e-05
-2.06656e-05
-2.07929e-05
-2.09199e-05
-2.10471e-05
-2.11741e-05
-2.13013e-05
-2.14283e-05
-2.15555e-05
-2.16825e-05
-2.18097e-05
-2.19368e-05
-2.2064e-05
-2.21911e-05
-2.23184e-05
-2.24455e-05
-2.25729e-05
-2.27001e-05
-2.28276e-05
-2.29549e-05
-2.30825e-05
-2.32099e-05
-2.33376e-05
-2.34652e-05
-2.3593e-05
-2.37207e-05
-2.38487e-05
-2.39766e-05
-2.41048e-05
-2.42328e-05
-2.43612e-05
-2.44895e-05
-2.4618e-05
-2.47465e-05
-2.48753e-05
-2.50041e-05
-2.51331e-05
-2.52621e-05
-2.53914e-05
-2.55207e-05
-2.56503e-05
-2.57798e-05
-2.59097e-05
-2.60396e-05
-2.61698e-05
-2.63e-05
-2.64305e-05
-2.65611e-05
-2.6692e-05
-2.68229e-05
-2.69541e-05
-2.70854e-05
-2.72171e-05
-2.73488e-05
-2.74808e-05
-2.76129e-05
-2.77454e-05
-2.78779e-05
-2.80109e-05
-2.81438e-05
-2.82772e-05
-2.84106e-05
-2.85445e-05
-2.86784e-05
-2.88127e-05
-2.89471e-05
-2.90819e-05
-2.92168e-05
-2.93522e-05
-2.94876e-05
-2.96235e-05
-2.97594e-05
-2.98959e-05
-3.00324e-05
-3.01694e-05
-3.03064e-05
-3.0444e-05
-3.05817e-05
-3.07198e-05
-3.08581e-05
-3.09968e-05
-3.11357e-05
-3.12751e-05
-3.14146e-05
-3.15546e-05
-3.16948e-05
-3.18355e-05
-3.19763e-05
-3.21176e-05
-3.22591e-05
-3.24012e-05
-3.25434e-05
-3.26861e-05