# vtk DataFile Version 2.0
FlowField
ASCII
DATASET STRUCTURED_GRID
DIMENSIONS 400 1 200
POINTS 80000 float
0 0 0
0.08 0 0
0.16 0 0
0.24 0 0
0.32 0 0
0.4 0 0
0.48 0 0
0.56 0 0
0.64 0 0
0.72 0 0
0.8 0 0
0.88 0 0
0.96 0 0
1.04 0 0
1.12 0 0
1.2 0 0
1.28 0 0
1.36 0 0
1.44 0 0
1.52 0 0
1.6 0 0
1.68 0 0
1.76 0 0
1.84 0 0
1.92 0 0
2 0 0
2.08 0 0
2.16 0 0
2.24 0 0
2.32 0 0
2.4 0 0
2.48 0 0
2.56 0 0
2.64 0 0
2.72 0 0
2.8 0 0
2.88 0 0
2.96 0 0
3.04 0 0
3.12 0 0
3.2 0 0
3.28 0 0
3.36 0 0
3.44 0 0
3.52 0 0
3.6 0 0
3.68 0 0
3.76 0 0
3.84 0 0
3.92 0 0
4 0 0
4.08 0 0
4.16 0 0
4.24 0 0
4.32 0 0
4.4 0 0
4.48 0 0
4.56 0 0
4.64 0 0
4.72 0 0
4.8 0 0
4.88 0 0
4.96 0 0
5.04 0 0
5.12 0 0
5.2 0 0
5.28 0 0
5.36 0 0
5.44 0 0
5.52 0 0
5.6 0 0
5.68 0 0
5.76 0 0
5.84 0 0
5.92 0 0
6 0 0
6.08 0 0
6.16 0 0
6.24 0 0
6.32 0 0
6.4 0 0
6.48 0 0
6.56 0 0
6.64 0 0
6.72 0 0
6.8 0 0
6.88 0 0
6.96 0 0
7.04 0 0
7.12 0 0
7.2 0 0
7.28 0 0
7.36 0 0
7.44 0 0
7.52 0 0
7.6 0 0
7.68 0 0
7.76 0 0
7.84 0 0
7.92 0 0
8 0 0
8.08 0 0
8.16 0 0
8.24 0 0
8.32 0 0
8.4 0 0
8.48 0 0
8.56 0 0
8.64 0 0
8.72 0 0
8.8 0 0
8.88 0 0
8.96 0 0
9.04 0 0
9.12 0 0
9.2 0 0
9.28 0 0
9.36 0 0
9.44 0 0
9.52 0 0
9.6 0 0
9.68 0 0
9.76 0 0
9.84 0 0
9.92 0 0
10 0 0
10.08 0 0
10.16 0 0
10.24 0 0
10.32 0 0
10.4 0 0
10.48 0 0
10.56 0 0
10.64 0 0
10.72 0 0
10.8 0 0
10.88 0 0
10.96 0 0
11.04 0 0
11.12 0 0
11.2 0 0
11.28 0 0
11.36 0 0
11.44 0 0
11.52 0 0
11.6 0 0
11.68 0 0
11.76 0 0
11.84 0 0
11.92 0 0
12 0 0
12.08 0 0
12.16 0 0
12.24 0 0
12.32 0 0
12.4 0 0
12.48 0 0
12.56 0 0
12.64 0 0
12.72 0 0
12.8 0 0
12.88 0 0
12.96 0 0
13.04 0 0
13.12 0 0
13.2 0 0
13.28 0 0
13.36 0 0
13.44 0 0
13.52 0 0
13.6 0 0
13.68 0 0
13.76 0 0
13.84 0 0
13.92 0 0
14 0 0
14.08 0 0
14.16 0 0
14.24 0 0
14.32 0 0
14.4 0 0
14.48 0 0
14.56 0 0
14.64 0 0
14.72 0 0
14.8 0 0
14.88 0 0
14.96 0 0
15.04 0 0
15.12 0 0
15.2 0 0
15.28 0 0
15.36 0 0
15.44 0 0
15.52 0 0
15.6 0 0
15.68 0 0
15.76 0 0
15.84 0 0
15.92 0 0
16 0 0
16.08 0 0
16.16 0 0
16.24 0 0
16.32 0 0
16.4 0 0
16.48 0 0
16.56 0 0
16.64 0 0
16.72 0 0
16.8 0 0
16.88 0 0
16.96 0 0
17.04 0 0
17.12 0 0
17.2 0 0
17.28 0 0
17.36 0 0
17.44 0 0
17.52 0 0
17.6 0 0
17.68 0 0
17.76 0 0
17.84 0 0
17.92 0 0
18 0 0
18.08 0 0
18.16 0 0
18.24 0 0
18.32 0 0
18.4 0 0
18.48 0 0
18.56 0 0
18.64 0 0
18.72 0 0
18.8 0 0
18.88 0 0
18.96 0 0
19.04 0 0
19.12 0 0
19.2 0 0
19.28 0 0
19.36 0 0
19.44 0 0
19.52 0 0
19.6 0 0
19.68 0 0
19.76 0 0
19.84 0 0
19.92 0 0
20 0 0
20.08 0 0
20.16 0 0
20.24 0 0
20.32 0 0
20.4 0 0
20.48 0 0
20.56 0 0
20.64 0 0
20.72 0 0
20.8 0 0
20.88 0 0
20.96 0 0
21.04 0 0
21.12 0 0
21.2 0 0
21.28 0 0
21.36 0 0
21.44 0 0
21.52 0 0
21.6 0 0
21.68 0 0
21.76 0 0
21.84 0 0
21.92 0 0
22 0 0
22.08 0 0
22.16 0 0
22.24 0 0
22.32 0 0
22.4 0 0
22.48 0 0
22.56 0 0
22.64 0 0
22.72 0 0
22.8 0 0
22.88 0 0
22.96 0 0
23.04 0 0
23.12 0 0
23.2 0 0
23.28 0 0
23.36 0 0
23.44 0 0
23.52 0 0
23.6 0 0
23.68 0 0
23.76 0 0
23.84 0 0
23.92 0 0
24 0 0
24.08 0 0
24.16 0 0
24.24 0 0
24.32 0 0
24.4 0 0
24.48 0 0
24.56 0 0
24.64 0 0
24.72 0 0
24.8 0 0
24.88 0 0
24.96 0 0
25.04 0 0
25.12 0 0
25.2 0 0
25.28 0 0
25.36 0 0
25.44 0 0
25.52 0 0
25.6 0 0
25.68 0 0
25.76 0 0
25.84 0 0
25.92 0 0
26 0 0
26.08 0 0
26.16 0 0
26.24 0 0
26.32 0 0
26.4 0 0
26.48 0 0
26.56 0 0
26.64 0 0
26.72 0 0
26.8 0 0
26.88 0 0
26.96 0 0
27.04 0 0
27.12 0 0
27.2 0 0
27.28 0 0
27.36 0 0
27.44 0 0
27.52 0 0
27.6 0 0
27.68 0 0
27.76 0 0
27.84 0 0
27.92 0 0
28 0 0
28.08 0 0
28.16 0 0
28.24 0 0
28.32 0 0
28.4 0 0
28.48 0 0
28.56 0 0
28.64 0 0
28.72 0 0
28.8 0 0
28.88 0 0
28.96 0 0
29.04 0 0
29.12 0 0
29.2 0 0
29.28 0 0
29.36 0 0
29.44 0 0
29.52 0 0
29.6 0 0
29.68 0 0
29.76 0 0
29.84 0 0
29.92 0 0
30 0 0
30.08 0 0
30.16 0 0
30.24 0 0
30.32 0 0
30.4 0 0
30.48 0 0
30.56 0 0
30.64 0 0
30.72 0 0
30.8 0 0
30.88 0 0
30.96 0 0
31.04 0 0
31.12 0 0
31.2 0 0
31.28 0 0
31.36 0 0
31.44 0 0
31.52 0 0
31.6 0 0
31.68 0 0
31.76 0 0
31.84 0 0
31.92 0 0
0 0.005 0
0.08 0.005 0
0.16 0.005 0
0.24 0.005 0
0.32 0.005 0
0.4 0.005 0
0.48 0.005 0
0.56 0.005 0
0.64 0.005 0
0.72 0.005 0
0.8 0.005 0
0.88 0.005 0
0.96 0.005 0
1.04 0.005 0
1.12 0.005 0
1.2 0.005 0
1.28 0.005 0
1.36 0.005 0
1.44 0.005 0
1.52 0.005 0
1.6 0.005 0
1.68 0.005 0
1.76 0.005 0
1.84 0.005 0
1.92 0.005 0
2 0.005 0
2.08 0.005 0
2.16 0.005 0
2.24 0.005 0
2.32 0.005 0
2.4 0.005 0
2.48 0.005 0
2.56 0.005 0
2.64 0.005 0
2.72 0.005 0
2.8 0.005 0
2.88 0.005 0
2.96 0.005 0
3.04 0.005 0
3.12 0.005 0
3.2 0.005 0
3.28 0.005 0
3.36 0.005 0
3.44 0.005 0
3.52 0.005 0
3.6 0.005 0
3.68 0.005 0
3.76 0.005 0
3.84 0.005 0
3.92 0.005 0
4 0.005 0
4.08 0.005 0
4.16 0.005 0
4.24 0.005 0
4.32 0.005 0
4.4 0.005 0
4.48 0.005 0
4.56 0.005 0
4.64 0.005 0
4.72 0.005 0
4.8 0.005 0
4.88 0.005 0
4.96 0.005 0
5.04 0.005 0
5.12 0.005 0
5.2 0.005 0
5.28 0.005 0
5.36 0.005 0
5.44 0.005 0
5.52 0.005 0
5.6 0.005 0
5.68 0.005 0
5.76 0.005 0
5.84 0.005 0
5.92 0.005 0
6 0.005 0
6.08 0.005 0
6.16 0.005 0
6.24 0.005 0
6.32 0.005 0
6.4 0.005 0
6.48 0.005 0
6.56 0.005 0
6.64 0.005 0
6.72 0.005 0
6.8 0.005 0
6.88 0.005 0
6.96 0.005 0
7.04 0.005 0
7.12 0.005 0
7.2 0.005 0
7.28 0.005 0
7.36 0.005 0
7.44 0.005 0
7.52 0.005 0
7.6 0.005 0
7.68 0.005 0
7.76 0.005 0
7.84 0.005 0
7.92 0.005 0
8 0.005 0
8.08 0.005 0
8.16 0.005 0
8.24 0.005 0
8.32 0.005 0
8.4 0.005 0
8.48 0.005 0
8.56 0.005 0
8.64 0.005 0
8.72 0.005 0
8.8 0.005 0
8.88 0.005 0
8.96 0.005 0
9.04 0.005 0
9.12 0.005 0
9.2 0.005 0
9.28 0.005 0
9.36 0.005 0
9.44 0.005 0
9.52 0.005 0
9.6 0.005 0
9.68 0.005 0
9.76 0.005 0
9.84 0.005 0
9.92 0.005 0
10 0.005 0
10.08 0.005 0
10.16 0.005 0
10.24 0.005 0
10.32 0.005 0
10.4 0.005 0
10.48 0.005 0
10.56 0.005 0
10.64 0.005 0
10.72 0.005 0
10.8 0.005 0
10.88 0.005 0
10.96 0.005 0
11.04 0.005 0
11.12 0.005 0
11.2 0.005 0
11.28 0.005 0
11.36 0.005 0
11.44 0.005 0
11.52 0.005 0
11.6 0.005 0
11.68 0.005 0
11.76 0.005 0
11.84 0.005 0
11.92 0.005 0
12 0.005 0
12.08 0.005 0
12.16 0.005 0
12.24 0.005 0
12.32 0.005 0
12.4 0.005 0
12.48 0.005 0
12.56 0.005 0
12.64 0.005 0
12.72 0.005 0
12.8 0.005 0
12.88 0.005 0
12.96 0.005 0
13.04 0.005 0
13.12 0.005 0
13.2 0.005 0
13.28 0.005 0
13.36 0.005 0
13.44 0.005 0
13.52 0.005 0
13.6 0.005 0
13.68 0.005 0
13.76 0.005 0
13.84 0.005 0
13.92 0.005 0
14 0.005 0
14.08 0.005 0
14.16 0.005 0
14.24 0.005 0
14.32 0.005 0
14.4 0.005 0
14.48 0.005 0
14.56 0.005 0
14.64 0.005 0
14.72 0.005 0
14.8 0.005 0
14.88 0.005 0
14.96 0.005 0
15.04 0.005 0
15.12 0.005 0
15.2 0.005 0
15.28 0.005 0
15.36 0.005 0
15.44 0.005 0
15.52 0.005 0
15.6 0.005 0
15.68 0.005 0
15.76 0.005 0
15.84 0.005 0
15.92 0.005 0
16 0.005 0
16.08 0.005 0
16.16 0.005 0
16.24 0.005 0
16.32 0.005 0
16.4 0.005 0
16.48 0.005 0
16.56 0.005 0
16.64 0.005 0
16.72 0.005 0
16.8 0.005 0
16.88 0.005 0
16.96 0.005 0
17.04 0.005 0
17.12 0.005 0
17.2 0.005 0
17.28 0.005 0
17.36 0.005 0
17.44 0.005 0
17.52 0.005 0
17.6 0.005 0
17.68 0.005 0
17.76 0.005 0
17.84 0.005 0
17.92 0.005 0
18 0.005 0
18.08 0.005 0
18.16 0.005 0
18.24 0.005 0
18.32 0.005 0
18.4 0.005 0
18.48 0.005 0
18.56 0.005 0
18.64 0.005 0
18.72 0.005 0
18.8 0.005 0
18.88 0.005 0
18.96 0.005 0
19.04 0.005 0
19.12 0.005 0
19.2 0.005 0
19.28 0.005 0
19.36 0.005 0
19.44 0.005 0
19.52 0.005 0
19.6 0.005 0
19.68 0.005 0
19.76 0.005 0
19.84 0.005 0
19.92 0.005 0
20 0.005 0
20.08 0.005 0
20.16 0.005 0
20.24 0.005 0
20.32 0.005 0
20.4 0.005 0
20.48 0.005 0
20.56 0.005 0
20.64 0.005 0
20.72 0.005 0
20.8 0.005 0
20.88 0.005 0
20.96 0.005 0
21.04 0.005 0
21.12 0.005 0
21.2 0.005 0
21.28 0.005 0
21.36 0.005 0
21.44 0.005 0
21.52 0.005 0
21.6 0.005 0
21.68 0.005 0
21.76 0.005 0
21.84 0.005 0
21.92 0.005 0
22 0.005 0
22.08 0.005 0
22.16 0.005 0
22.24 0.005 0
22.32 0.005 0
22.4 0.005 0
22.48 0.005 0
22.56 0.005 0
22.64 0.005 0
22.72 0.005 0
22.8 0.005 0
22.88 0.005 0
22.96 0.005 0
23.04 0.005 0
23.12 0.005 0
23.2 0.005 0
23.28 0.005 0
23.36 0.005 0
23.44 0.005 0
23.52 0.005 0
23.6 0.005 0
23.68 0.005 0
23.76 0.005 0
23.84 0.005 0
23.92 0.005 0
24 0.005 0
24.08 0.005 0
24.16 0.005 0
24.24 0.005 0
24.32 0.005 0
24.4 0.005 0
24.48 0.005 0
24.56 0.005 0
24.64 0.005 0
24.72 0.005 0
24.8 0.005 0
24.88 0.005 0
24.96 0.005 0
25.04 0.005 0
25.12 0.005 0
25.2 0.005 0
25.28 0.005 0
25.36 0.005 0
25.44 0.005 0
25.52 0.005 0
25.6 0.005 0
25.68 0.005 0
25.76 0.005 0
25.84 0.005 0
25.92 0.005 0
26 0.005 0
26.08 0.005 0
26.16 0.005 0
26.24 0.005 0
26.32 0.005 0
26.4 0.005 0
26.48 0.005 0
26.56 0.005 0
26.64 0.005 0
26.72 0.005 0
26.8 0.005 0
26.88 0.005 0
26.96 0.005 0
27.04 0.005 0
27.12 0.005 0
27.2 0.005 0
27.28 0.005 0
27.36 0.005 0
27.44 0.005 0
27.52 0.005 0
27.6 0.005 0
27.68 0.005 0
27.76 0.005 0
27.84 0.005 0
27.92 0.005 0
28 0.005 0
28.08 0.005 0
28.16 0.005 0
28.24 0.005 0
28.32 0.005 0
28.4 0.005 0
28.48 0.005 0
28.56 0.005 0
28.64 0.005 0
28.72 0.005 0
28.8 0.005 0
28.88 0.005 0
28.96 0.005 0
29.04 0.005 0
29.12 0.005 0
29.2 0.005 0
29.28 0.005 0
29.36 0.005 0
29.44 0.005 0
29.52 0.005 0
29.6 0.005 0
29.68 0.005 0
29.76 0.005 0
29.84 0.005 0
29.92 0.005 0
30 0.005 0
30.08 0.005 0
30.16 0.005 0
30.24 0.005 0
30.32 0.005 0
30.4 0.005 0
30.48 0.005 0
30.56 0.005 0
30.64 0.005 0
30.72 0.005 0
30.8 0.005 0
30.88 0.005 0
30.96 0.005 0
31.04 0.005 0
31.12 0.005 0
31.2 0.005 0
31.28 0.005 0
31.36 0.005 0
31.44 0.005 0
31.52 0.005 0
31.6 0.005 0
31.68 0.005 0
31.76 0.005 0
31.84 0.005 0
31.92 0.005 0
0 0.01 0
0.08 0.01 0
0.16 0.01 0
0.24 0.01 0
0.32 0.01 0
0.4 0.01 0
0.48 0.01 0
0.56 0.01 0
0.64 0.01 0
0.72 0.01 0
0.8 0.01 0
0.88 0.01 0
0.96 0.01 0
1.04 0.01 0
1.12 0.01 0
1.2 0.01 0
1.28 0.01 0
1.36 0.01 0
1.44 0.01 0
1.52 0.01 0
1.6 0.01 0
1.68 0.01 0
1.76 0.01 0
1.84 0.01 0
1.92 0.01 0
2 0.01 0
2.08 0.01 0
2.16 0.01 0
2.24 0.01 0
2.32 0.01 0
2.4 0.01 0
2.48 0.01 0
2.56 0.01 0
2.64 0.01 0
2.72 0.01 0
2.8 0.01 0
2.88 0.01 0
2.96 0.01 0
3.04 0.01 0
3.12 0.01 0
3.2 0.01 0
3.28 0.01 0
3.36 0.01 0
3.44 0.01 0
3.52 0.01 0
3.6 0.01 0
3.68 0.01 0
3.76 0.01 0
3.84 0.01 0
3.92 0.01 0
4 0.01 0
4.08 0.01 0
4.16 0.01 0
4.24 0.01 0
4.32 0.01 0
4.4 0.01 0
4.48 0.01 0
4.56 0.01 0
4.64 0.01 0
4.72 0.01 0
4.8 0.01 0
4.88 0.01 0
4.96 0.01 0
5.04 0.01 0
5.12 0.01 0
[...]
POINT_DATA 80000

SCALARS v float 1
LOOKUP_TABLE default
0
0
0
0
0
0
0
0
0
0
0
0
0
0
0
0
0
0
0
0
0
0
0
0
0
0
0
0
0
0
0
0
0
0
0
0
0
0
0
0
0
0
0
0
0
0
0
0
0
0
0
0
0
0
0
0
0
0
0
0
0
0
0
0
0
0
0
0
0
0
0
0
0
0
0
0
0
0
0
0
0
0
0
0
0
0
0
0
0
0
0
0
0
0
0
0
0
0
0
0
0
0
0
0
0
0
0
0
0
0
0
0
0
0
0
0
0
0
0
0
0
0
0
0
0
0
0
0
0
0
0
0
0
0
0
0
0
0
0
0
0
0
0
0
0
0
0
0
0
0
0
0
0
0
0
0
0
0
0
0
0
0
0
0
0
0
0
0
0
0
0
0
0
0
0
0
0
0
0
0
0
0
0
0
0
0
0
0
0
0
0
0
0
0
0
0
0
0
0
0
0
0
0
0
0
0
0
0
0
0
0
0
0
0
0
0
0
0
0
0
0
0
0
0
0
0
0
0
0
0
0
0
0
0
0
0
0
0
0
0
0
0
0
0
0
0
0
0
0
0
0
0
0
0
0
0
0
0
0
0
0
0
0
0
0
0
0
0
0
0
0
0
0
0
0
0
0
0
0
0
0
0
0
0
0
0
0
0
0
0
0
0
0
0
0
0
0
0
0
0
0
0
0
0
0
0
0
0
0
0
0
0
0
0
0
0
0
0
0
0
0
0
0
0
0
0
0
0
0
0
0
0
0
0
0
0
0
0
0
0
0
0
0
0
0
0
0
0
0
0
0
0
0
0
0
0
0
0
0
0
0
0
0
0
0
0
0
0
0
0
0
0
0
0
0
0
0
0
0
0
0
0
0
0
0
0
0
0
0
0
0
0
0
0
0
0
0
0
0
0
-0.0542544
0.0542544
0.00394067
0.000982372
0.000473176
0.000256969
0.000125091
4.54921e-05
5.05765e-06
-1.16629e-05
-1.71046e-05
-1.81265e-05
-1.76951e-05
-1.69298e-05
-1.62186e-05
-1.56701e-05
-1.52877e-05
-1.50391e-05
-1.48877e-05
-1.48022e-05
-1.47601e-05
-1.47457e-05
-1.47489e-05
-1.47631e-05
-1.47842e-05
-1.48094e-05
-1.48375e-05
-1.48671e-05
-1.4898e-05
-1.49295e-05
-1.49616e-05
-1.4994e-05
-1.50269e-05
-1.50599e-05
-1.50932e-05
-1.51266e-05
-1.51604e-05
-1.51943e-05
-1.52284e-05
-1.52627e-05
-1.52973e-05
-1.5332e-05
-1.5367e-05
-1.54021e-05
-1.54376e-05
-1.54733e-05
-1.55093e-05
-1.55454e-05
-1.55819e-05
-1.56186e-05
-1.56556e-05
-1.56929e-05
-1.57305e-05
-1.57682e-05
-1.58064e-05
-1.58448e-05
-1.58835e-05
-1.59224e-05
-1.59617e-05
-1.60012e-05
-1.60411e-05
-1.60811e-05
-1.61214e-05
-1.61619e-05
-1.62028e-05
-1.62438e-05
-1.62851e-05
-1.63265e-05
-1.63682e-05
-1.641e-05
-1.6452e-05
-1.64941e-05
-1.65365e-05
-1.65788e-05
-1.66214e-05
-1.6664e-05
-1.67067e-05
-1.67494e-05
-1.67923e-05
-1.68352e-05
-1.68781e-05
-1.6921e-05
-1.6964e-05
-1.7007e-05
-1.705e-05
-1.7093e-05
-1.7136e-05
-1.7179e-05
-1.7222e-05
-1.7265e-05
-1.73081e-05
-1.73511e-05
-1.73943e-05
-1.74373e-05
-1.74806e-05
-1.75238e-05
-1.75672e-05
-1.76106e-05
-1.76542e-05
-1.76979e-05
-1.77418e-05
-1.77857e-05
-1.783e-05
-1.78743e-05
-1.7919e-05
-1.79638e-05
-1.8009e-05
-1.80544e-05
-1.81002e-05
-1.81461e-05
-1.81926e-05
-1.82392e-05
-1.82863e-05
-1.83337e-05
-1.83816e-05
-1.84298e-05
-1.84785e-05
-1.85275e-05
-1.85771e-05
-1.86269e-05
-1.86773e-05
-1.87281e-05
-1.87794e-05
-1.88311e-05
-1.88833e-05
-1.89359e-05
-1.8989e-05
-1.90426e-05
-1.90966e-05
-1.91511e-05
-1.92061e-05
-1.92614e-05
-1.93174e-05
-1.93737e-05
-1.94305e-05
-1.94877e-05
-1.95455e-05
-1.96037e-05
-1.96624e-05
-1.97214e-05
-1.9781e-05
-1.9841e-05
-1.99015e-05
-1.99624e-05
-2.00239e-05
-2.00857e-05
-2.01481e-05
-2.02108e-05
-2.02741e-05
-2.03378e-05
-2.0402e-05
-2.04666e-05
-2.05318e-05
-2.05974e-05
-2.06635e-05
-2.073e-05
-2.07971e-05
-2.08646e-05
-2.09327e-05
-2.10012e-05
-2.10702e-05
-2.11397e-05
-2.12098e-05
-2.12803e-05
-2.13514e-05
-2.1423e-05
-2.14952e-05
-2.15678e-05
-2.1641e-05
-2.17147e-05
-2.1789e-05
-2.18638e-05
-2.19393e-05
-2.20152e-05
-2.20918e-05
-2.21688e-05
-2.22466e-05
-2.23248e-05
-2.24038e-05
-2.24832e-05
-2.25634e-05
-2.2644e-05
-2.27254e-05
-2.28074e-05
-2.289e-05
-2.29732e-05
-2.30572e-05
-2.31417e-05
-2.3227e-05
-2.33129e-05
-2.33995e-05
-2.34868e-05
-2.35748e-05
-2.36634e-05
-2.37529e-05
-2.38429e-05
-2.39339e-05
-2.40254e-05
-2.41178e-05
-2.42108e-05
-2.43047e-05
-2.43993e-05
-2.44947e-05
-2.45909e-05
-2.46879e-05
-2.47856e-05
-2.48842e-05
-2.49834e-05
-2.50836e-05
-2.51845e-05
-2.52863e-05
-2.53888e-05
-2.54921e-05
-2.55961e-05
-2.57009e-05
-2.58063e-05
-2.59125e-05
-2.60192e-05
-2.61266e-05
-2.62343e-05
-2.63425e-05
-2.64509e-05
-2.65595e-05
-2.6668e-05
-2.67763e-05
-2.6884e-05
-2.69911e-05
-2.70968e-05
-2.72012e-05
-2.73033e-05
-2.7403e-05
-2.74992e-05
-2.75915e-05
-2.76786e-05
-2.77598e-05
-2.78336e-05
-2.78987e-05
-2.79534e-05
-2.7996e-05
-2.80241e-05
-2.80355e-05
-2.80273e-05
-2.79965e-05
-2.79394e-05
-2.78523e-05
-2.77306e-05
-2.75695e-05
-2.73634e-05
-2.71065e-05
-2.67917e-05
-2.64121e-05
-2.59594e-05
-2.5425e-05
-2.47992e-05
-2.4072e-05
-2.3232e-05
-2.22678e-05
-2.11663e-05
-1.99145e-05
-1.84981e-05
-1.69023e-05
-1.51116e-05
-1.31101e-05
-1.08812e-05
-8.40828e-06
-5.67403e-06
-2.66157e-06
6.46302e-07
4.26606e-06
8.21407e-06
1.25055e-05
1.7155e-05
2.21753e-05
2.75782e-05
3.33731e-05
3.95676e-05
4.61664e-05
5.31718e-05
6.05827e-05
6.83947e-05
7.65996e-05
8.51857e-05
9.41366e-05
0.000103432
0.000113047
0.000122952
0.000133113
0.000143492
0.000154046
0.000164727
0.000175485
0.000186265
0.000197009
0.000207656
0.000218142
0.000228404
0.000238375
0.000247989
0.000257181
0.000265885
0.00027404
0.000281585
0.000288464
0.000294625
0.00030002
0.000304608
0.000308353
0.000311227
0.000313207
0.000314279
0.000314437
0.00031368
0.000312017
0.000309464
0.000306045
0.000301789
0.000296734
0.000290921
0.000284399
0.00027722
0.000269441
0.000261122
0.000252325
0.000243113
0.000233552
0.000223706
0.000213638
0.000203412
0.000193088
0.000182724
0.000172374
0.00016209
0.00015192
0.000141906
0.000132087
0.000122498
0.000113168
0.000104124
9.53848e-05
8.69684e-05
7.88869e-05
7.11492e-05
6.37601e-05
5.67216e-05
5.00322e-05
4.36881e-05
3.76828e-05
3.20079e-05
2.66531e-05
2.16068e-05
1.68559e-05
1.23868e-05
8.18476e-06
4.23509e-06
5.22395e-07
-2.96838e-06
-6.25259e-06
-9.34494e-06
-1.22602e-05
-1.50123e-05
-1.7615e-05
-2.00811e-05
-2.24233e-05
-2.4653e-05
-2.67815e-05
-2.88191e-05
-3.07756e-05
-3.26599e-05
-3.44807e-05
-3.62455e-05
-3.79619e-05
-3.96363e-05
-4.12751e-05
-4.28838e-05
-4.44677e-05
-4.60317e-05
-4.75803e-05
-4.91175e-05
-5.06473e-05
-5.2173e-05
-5.36982e-05
-5.52257e-05
-5.67588e-05
-5.82999e-05
-5.9852e-05
-6.14174e-05
-6.29989e-05
-6.4599e-05
-6.62204e-05
-6.78662e-05
-6.95402e-05
-7.12473e-05
-7.2996e-05
-7.481e-05
-7.66575e-05
-7.93229e-05
-7.8836e-05
-9.44378e-05
-8.32236e-05
-8.32236e-05
-0.0951834
0.0951834
0.0129261
0.00382613
0.00188664
0.00103756
0.000520371
0.000211259
5.49625e-05
-1.01319e-05
-3.19554e-05
-3.66344e-05
-3.55055e-05
-3.29112e-05
-3.03944e-05
-2.84115e-05
-2.70023e-05
-2.60632e-05
-2.5468e-05
-2.51076e-05
-2.49026e-05
-2.47967e-05
-2.47544e-05
-2.47512e-05
-2.47731e-05
-2.48099e-05
-2.48567e-05
-2.4909e-05
-2.49655e-05
-2.50241e-05
-2.50847e-05
-2.5146e-05
-2.52084e-05
-2.52711e-05
-2.53346e-05
-2.53981e-05
-2.54623e-05
-2.55264e-05
-2.55913e-05
-2.5656e-05
-2.57214e-05
-2.57868e-05
-2.58528e-05
-2.59188e-05
-2.59855e-05
-2.60522e-05
-2.61197e-05
-2.61871e-05
-2.62553e-05
-2.63235e-05
-2.63926e-05
-2.64616e-05
-2.65315e-05
-2.66015e-05
-2.66723e-05
-2.67431e-05
-2.68148e-05
-2.68865e-05
-2.69591e-05
-2.70317e-05
-2.71052e-05
-2.71787e-05
-2.7253e-05
-2.73274e-05
-2.74026e-05
-2.74778e-05
-2.75537e-05
-2.76297e-05
-2.77064e-05
-2.7783e-05
-2.78604e-05
-2.79378e-05
-2.80158e-05
-2.80937e-05
-2.81723e-05
-2.82508e-05
-2.83299e-05
-2.84089e-05
-2.84885e-05
-2.8568e-05
-2.8648e-05
-2.87279e-05
-2.88084e-05
-2.88886e-05
-2.89695e-05
-2.90502e-05
-2.91314e-05
-2.92125e-05
-2.92942e-05
-2.93757e-05
-2.94579e-05
-2.95399e-05
-2.96225e-05
-2.9705e-05
-2.97882e-05
-2.98713e-05
-2.99551e-05
-3.00389e-05
-3.01234e-05
-3.02079e-05
-3.02933e-05
-3.03786e-05
-3.04648e-05
-3.05512e-05
-3.06383e-05
-3.07257e-05
-3.0814e-05
-3.09024e-05
-3.09918e-05
-3.10815e-05
-3.11722e-05
-3.12631e-05
-3.13551e-05
-3.14475e-05
-3.15408e-05
-3.16346e-05
-3.17294e-05
-3.18246e-05
-3.19209e-05
-3.20176e-05
-3.21155e-05
-3.22138e-05
-3.23132e-05
-3.24131e-05
-3.25141e-05
-3.26155e-05
-3.27182e-05
-3.28212e-05
-3.29255e-05
-3.30302e-05
-3.31361e-05
-3.32424e-05
-3.335e-05
-3.3458e-05
-3.35672e-05
-3.36768e-05
-3.37877e-05
-3.3899e-05
-3.40116e-05
-3.41246e-05
-3.42388e-05
-3.43535e-05
-3.44694e-05
-3.45858e-05
-3.47034e-05
-3.48215e-05
-3.49409e-05
-3.50607e-05
-3.51818e-05
-3.53034e-05
-3.54263e-05
-3.55497e-05
-3.56744e-05
-3.57996e-05
-3.59261e-05
-3.60531e-05
-3.61814e-05
-3.63103e-05
-3.64406e-05
-3.65714e-05
-3.67035e-05
-3.68363e-05
-3.69704e-05
-3.71051e-05
-3.72412e-05
-3.73779e-05
-3.7516e-05
-3.76548e-05
-3.7795e-05
-3.79359e-05
-3.80782e-05
-3.82212e-05
-3.83657e-05
-3.85109e-05
-3.86576e-05
-3.88051e-05
-3.8954e-05
-3.91037e-05
-3.9255e-05
-3.9407e-05
-3.95607e-05
-3.97151e-05
-3.98711e-05
-4.0028e-05
-4.01865e-05
-4.03458e-05
-4.05068e-05
-4.06688e-05
-4.08323e-05
-4.09969e-05
-4.11631e-05
-4.13303e-05
-4.14992e-05
-4.16691e-05
-4.18408e-05
-4.20135e-05
-4.2188e-05
-4.23636e-05
-4.2541e-05
-4.27195e-05
-4.28998e-05
-4.30813e-05
-4.32647e-05
-4.34492e-05
-4.36356e-05
-4.38232e-05
-4.40128e-05
-4.42036e-05
-4.43964e-05
-4.45903e-05
-4.47863e-05
-4.49835e-05
-4.51827e-05
-4.53831e-05
-4.55854e-05
-4.5789e-05
-4.59944e-05
-4.6201e-05
-4.64094e-05
-4.66187e-05
-4.68298e-05
-4.70416e-05
-4.72549e-05
-4.74686e-05
-4.76833e-05
-4.78981e-05
-4.81134e-05
-4.8328e-05
-4.85424e-05
-4.87552e-05
-4.89666e-05
-4.91751e-05
-4.93807e-05
-4.95817e-05
-4.97776e-05
-4.99665e-05
-5.01475e-05
-5.03183e-05
-5.04775e-05
-5.06222e-05
-5.07505e-05
-5.08587e-05
-5.09442e-05
-5.10026e-05
-5.10303e-05
-5.10219e-05
-5.09728e-05
-5.08763e-05
-5.07268e-05
-5.05161e-05
-5.02371e-05
-4.98803e-05
-4.9437e-05
-4.88959e-05
-4.82468e-05
-4.74766e-05
-4.65731e-05
-4.55217e-05
-4.43084e-05
-4.29167e-05
-4.13309e-05
-3.95331e-05
-3.75061e-05
-3.52307e-05
-3.26885e-05
-2.98596e-05
-2.67251e-05
-2.32647e-05
-1.94599e-05
-1.5291e-05
-1.07407e-05
-5.79089e-06
-4.2637e-07
5.36801e-06
1.1604e-05
1.82926e-05
2.54407e-05
3.30539e-05
4.11329e-05
4.96762e-05
5.86772e-05
6.81262e-05
7.80078e-05
8.83033e-05
9.89876e-05
0.000110032
0.000121402
0.000133058
0.000144955
0.000157045
0.000169272
0.000181579
0.000193904
0.00020618
0.000218339
0.000230309
0.000242018
0.000253392
0.000264357
0.000274839
0.000284767
0.00029407
0.000302683
0.000310544
0.000317593
0.000323781
0.000329061
0.000333393
0.000336747
0.000339098
0.000340431
0.000340739
0.000340022
0.00033829
0.000335559
0.000331857
0.000327214
0.000321672
0.000315276
0.000308079
0.000300136
0.00029151
0.000282265
0.000272468
0.000262187
0.000251494
0.000240457
0.000229145
0.000217626
0.000205966
0.000194226
0.000182468
0.000170745
0.00015911
0.000147611
0.000136289
0.000125184
0.000114327
0.000103748
9.34716e-05
8.35153e-05
7.38954e-05
6.46221e-05
5.57034e-05
4.7142e-05
3.8939e-05
3.1091e-05
2.35936e-05
1.64386e-05
9.61735e-06
3.11791e-06
-3.07139e-06
-8.96487e-06
-1.45761e-05
-1.99209e-05
-2.50138e-05
-2.98712e-05
-3.45078e-05
-3.89399e-05
-4.31819e-05
-4.72494e-05
-5.11562e-05
-5.49168e-05
-5.85439e-05
-6.20511e-05
-6.54497e-05
-6.87519e-05
-7.19681e-05
-7.51091e-05
-7.8184e-05
-8.12026e-05
-8.41726e-05
-8.71028e-05
-9e-05
-9.28719e-05
-9.57243e-05
-9.85643e-05
-0.000101397
-0.000104228
-0.000107063
-0.000109906
-0.000112762
-0.000115637
-0.000118533
-0.000121456
-0.000124409
-0.000127398
-0.000130426
-0.0001335
-0.000136625
-0.000139811
-0.000143072
-0.000146432
-0.000149972
-0.000153595
-0.000159954
-0.000155482
-0.000212688
-0.000165379
-0.000165379
-0.125238
0.125238
0.024845
0.00831288
0.00418081
0.00231046
0.00116821
0.000488459
0.000144787
2.52677e-07
-4.96401e-05
-6.15658e-05
-6.02641e-05
-5.53586e-05
-5.03501e-05
-4.63254e-05
-4.34313e-05
-4.14832e-05
-4.02343e-05
-3.94657e-05
-3.90164e-05
-3.87719e-05
-3.8659e-05
-3.86275e-05
-3.86483e-05
-3.87004e-05
-3.87733e-05
-3.88579e-05
-3.89512e-05
-3.90488e-05
-3.91505e-05
-3.92536e-05
-3.9359e-05
-3.94647e-05
-3.95719e-05
-3.9679e-05
-3.97874e-05
-3.98955e-05
-4.00048e-05
-4.01136e-05
-4.02237e-05
-4.03334e-05
-4.04443e-05
-4.05548e-05
-4.06666e-05
-4.07781e-05
-4.08909e-05
-4.10034e-05
-4.11173e-05
-4.12309e-05
-4.1346e-05
-4.14608e-05
-4.15772e-05
-4.16933e-05
-4.1811e-05
-4.19285e-05
-4.20474e-05
-4.21663e-05
-4.22867e-05
-4.24069e-05
-4.25286e-05
-4.26502e-05
-4.27733e-05
-4.28963e-05
-4.30207e-05
-4.3145e-05
-4.32708e-05
-4.33963e-05
-4.35233e-05
-4.36502e-05
-4.37784e-05
-4.39064e-05
-4.40358e-05
-4.4165e-05
-4.42955e-05
-4.44258e-05
-4.45574e-05
-4.46887e-05
-4.48214e-05
-4.49538e-05
-4.50874e-05
-4.52208e-05
-4.53555e-05
-4.54899e-05
-4.56257e-05
-4.57611e-05
-4.58978e-05
-4.60343e-05
-4.61721e-05
-4.63097e-05
-4.64486e-05
-4.65873e-05
-4.67274e-05
-4.68674e-05
-4.70087e-05
-4.715e-05
-4.72927e-05
-4.74353e-05
-4.75795e-05
-4.77236e-05
-4.78694e-05
-4.80151e-05
-4.81625e-05
-4.83099e-05
-4.84591e-05
-4.86084e-05
-4.87595e-05
-4.89107e-05
-4.90637e-05
-4.9217e-05
-4.93721e-05
-4.95275e-05
-4.96848e-05
-4.98424e-05
-5.0002e-05
-5.01619e-05
-5.03238e-05
-5.04861e-05
-5.06504e-05
-5.08151e-05
-5.09818e-05
-5.1149e-05
-5.13182e-05
-5.14879e-05
-5.16597e-05
-5.18319e-05
-5.20063e-05
-5.21811e-05
-5.2358e-05
-5.25355e-05
-5.27151e-05
-5.28951e-05
-5.30774e-05
-5.32601e-05
-5.3445e-05
-5.36305e-05
-5.38181e-05
-5.40063e-05
-5.41967e-05
-5.43876e-05
-5.45807e-05
-5.47744e-05
-5.49703e-05
-5.51669e-05
-5.53656e-05
-5.5565e-05
-5.57666e-05
-5.59689e-05
-5.61735e-05
-5.63787e-05
-5.65862e-05
-5.67944e-05
-5.70049e-05
-5.72161e-05
-5.74297e-05
-5.76441e-05
-5.78608e-05
-5.80782e-05
-5.82981e-05
-5.85188e-05
-5.87419e-05
-5.89658e-05
-5.91923e-05
-5.94195e-05
-5.96493e-05
-5.988e-05
-6.01132e-05
-6.03474e-05
-6.05841e-05
-6.08218e-05
-6.10621e-05
-6.13034e-05
-6.15473e-05
-6.17923e-05
-6.204e-05
-6.22888e-05
-6.25403e-05
-6.2793e-05
-6.30484e-05
-6.3305e-05
-6.35644e-05
-6.3825e-05
-6.40884e-05
-6.43532e-05
-6.46208e-05
-6.48897e-05
-6.51616e-05
-6.54349e-05
-6.57111e-05
-6.59888e-05
-6.62695e-05
-6.65517e-05
-6.68369e-05
-6.71237e-05
-6.74137e-05
-6.77052e-05
-6.79999e-05
-6.82962e-05
-6.85958e-05
-6.88971e-05
-6.92017e-05
-6.9508e-05
-6.98177e-05
-7.01292e-05
-7.04441e-05
-7.07609e-05
-7.10811e-05
-7.14033e-05
-7.1729e-05
-7.20566e-05
-7.23878e-05
-7.27209e-05
-7.30577e-05
-7.33964e-05
-7.37388e-05
-7.40831e-05
-7.44311e-05
-7.47809e-05
-7.51343e-05
-7.54896e-05
-7.58482e-05
-7.62085e-05
-7.6572e-05
-7.69369e-05
-7.73047e-05
-7.76734e-05
-7.80444e-05
-7.84157e-05
-7.87886e-05
-7.9161e-05
-7.95338e-05
-7.99047e-05
-8.02746e-05
-8.06409e-05
-8.10041e-05
-8.13611e-05
-8.17123e-05
-8.20541e-05
-8.23863e-05
-8.27049e-05
-8.30088e-05
-8.32936e-05
-8.35574e-05
-8.37947e-05
-8.4003e-05
-8.41757e-05
-8.4309e-05
-8.43954e-05
-8.44297e-05
-8.44028e-05
-8.43084e-05
-8.41357e-05
-8.38765e-05
-8.35187e-05
-8.30522e-05
-8.24629e-05
-8.17389e-05
-8.08643e-05
-7.98252e-05
-7.86039e-05
-7.71847e-05
-7.5548e-05
-7.36768e-05
-7.15499e-05
-6.9149e-05
-6.6452e-05
-6.34398e-05
-6.00901e-05
-5.63838e-05
-5.22989e-05
-4.78173e-05
-4.29187e-05
-3.75868e-05
-3.1804e-05
-2.55576e-05
-1.88339e-05
-1.16247e-05
-3.92196e-06
4.27628e-06
1.29714e-05
2.21577e-05
3.18283e-05
4.19687e-05
5.25628e-05
6.35861e-05
7.50124e-05
8.68069e-05
9.89328e-05
0.000111345
0.000123995
0.000136829
0.000149789
0.000162811
0.00017583
0.000188774
0.000201572
0.000214148
0.000226425
0.000238327
0.000249777
0.000260698
0.000271018
0.000280664
0.000289571
0.000297673
0.000304915
0.000311243
0.000316613
0.000320987
0.000324336
0.000326634
0.000327872
0.00032804
0.000327144
0.000325194
0.000322211
0.000318221
0.000313259
0.000307366
0.000300592
0.000292987
0.000284612
0.000275527
0.0002658
0.000255495
0.000244684
0.000233435
0.000221818
0.000209901
0.000197753
0.000185436
0.000173015
0.000160545
0.000148085
0.000135683
0.000123388
0.000111239
9.92771e-05
8.75326e-05
7.60358e-05
6.48089e-05
5.3873e-05
4.3242e-05
3.29288e-05
2.29395e-05
1.32801e-05
3.95004e-06
-5.05058e-06
-1.37276e-05
-2.20858e-05
-3.01351e-05
-3.78838e-05
-4.53448e-05
-5.2529e-05
-5.94511e-05
-6.61235e-05
-7.25621e-05
-7.878e-05
-8.47935e-05
-9.06156e-05
-9.62625e-05
-0.000101747
-0.000107085
-0.000112287
-0.00011737
-0.000122343
-0.000127221
-0.000132014
-0.000136735
-0.000141392
-0.000145997
-0.000150558
-0.000155087
-0.000159589
-0.000164075
-0.000168552
-0.000173027
-0.000177508
-0.000182002
-0.000186513
-0.000191051
-0.000195619
-0.000200226
-0.000204874
-0.000209573
-0.000214326
-0.00021914
-0.000224023
-0.000228983
-0.00023403
-0.000239181
-0.000244462
-0.000249923
-0.00025572
-0.000261676
-0.000273061
-0.000262762
-0.000385168
-0.000279986
-0.000279986
-0.146404
0.146404
0.0381672
0.0141692
0.00728805
0.0040513
0.00206215
0.000879456
0.000279778
2.44925e-05
-6.63481e-05
-9.02479e-05
-9.01399e-05
-8.30127e-05
-7.52016e-05
-6.87693e-05
-6.40842e-05
-6.09027e-05
-5.88467e-05
-5.757e-05
-5.68145e-05
-5.63949e-05
-5.6192e-05
-5.6124e-05
-5.61427e-05
-5.62135e-05
-5.63192e-05
-5.64445e-05
-5.65845e-05
-5.67316e-05
-5.68857e-05
-5.7042e-05
-5.72022e-05
-5.73628e-05
-5.75259e-05
-5.76886e-05
-5.78534e-05
-5.80175e-05
-5.81835e-05
-5.83486e-05
-5.85156e-05
-5.86817e-05
-5.88498e-05
-5.9017e-05
-5.91861e-05
-5.93546e-05
-5.95251e-05
-5.96949e-05
-5.98668e-05
-6.00382e-05
-6.02117e-05
-6.03848e-05
-6.05601e-05
-6.07349e-05
-6.0912e-05
-6.10887e-05
-6.12678e-05
-6.14464e-05
-6.16274e-05
-6.18081e-05
-6.19911e-05
-6.21737e-05
-6.23587e-05
-6.25433e-05
-6.27303e-05
-6.2917e-05
-6.31059e-05
-6.32945e-05
-6.34854e-05
-6.36759e-05
-6.38688e-05
-6.40612e-05
-6.42559e-05
-6.44502e-05
-6.46467e-05
-6.48428e-05
-6.50412e-05
-6.52391e-05
-6.54393e-05
-6.5639e-05
-6.5841e-05
-6.60425e-05
-6.62463e-05
-6.64496e-05
-6.66552e-05
-6.68603e-05
-6.70677e-05
-6.72748e-05
-6.74841e-05
-6.7693e-05
-6.79044e-05
-6.81153e-05
-6.83287e-05
-6.85417e-05
-6.87573e-05
-6.89725e-05
-6.91903e-05
-6.94079e-05
-6.9628e-05
-6.9848e-05
-7.00707e-05
-7.02933e-05
-7.05185e-05
-7.07438e-05
-7.09718e-05
-7.11999e-05
-7.14308e-05
-7.16619e-05
-7.18958e-05
-7.21299e-05
-7.23669e-05
-7.26041e-05
-7.28444e-05
-7.30849e-05
-7.33285e-05
-7.35724e-05
-7.38194e-05
-7.40668e-05
-7.43173e-05
-7.45682e-05
-7.48223e-05
-7.50768e-05
-7.53345e-05
-7.55927e-05
-7.58541e-05
-7.6116e-05
-7.63811e-05
-7.66468e-05
-7.69158e-05
-7.71853e-05
-7.74581e-05
-7.77315e-05
-7.80082e-05
-7.82855e-05
-7.85662e-05
-7.88475e-05
-7.91321e-05
-7.94174e-05
-7.97062e-05
-7.99956e-05
-8.02884e-05
-8.05819e-05
-8.08789e-05
-8.11766e-05
-8.14778e-05
-8.17798e-05
-8.20853e-05
-8.23916e-05
-8.27015e-05
-8.30122e-05
-8.33265e-05
-8.36416e-05
-8.39604e-05
-8.42802e-05
-8.46036e-05
-8.49279e-05
-8.5256e-05
-8.55851e-05
-8.5918e-05
-8.62519e-05
-8.65896e-05
-8.69284e-05
-8.72711e-05
-8.76149e-05
-8.79627e-05
-8.83116e-05
-8.86645e-05
-8.90186e-05
-8.93768e-05
-8.97363e-05
-9.00999e-05
-9.04648e-05
-9.08338e-05
-9.12043e-05
-9.1579e-05
-9.19551e-05
-9.23355e-05
-9.27174e-05
-9.31037e-05
-9.34915e-05
-9.38838e-05
-9.42777e-05
-9.4676e-05
-9.50761e-05
-9.54808e-05
-9.58872e-05
-9.62982e-05
-9.67111e-05
-9.71286e-05
-9.75481e-05
-9.79724e-05
-9.83986e-05
-9.88297e-05
-9.92629e-05
-9.9701e-05
-0.000100141
-0.000100587
-0.000101034
-0.000101487
-0.000101942
-0.000102402
-0.000102864
-0.000103332
-0.000103802
-0.000104278
-0.000104756
-0.000105239
-0.000105726
-0.000106217
-0.000106712
-0.000107212
-0.000107715
-0.000108223
-0.000108735
-0.000109252
-0.000109772
-0.000110297
-0.000110826
-0.00011136
-0.000111897
-0.00011244
-0.000112985
-0.000113536
-0.000114089
-0.000114647
-0.000115207
-0.000115772
-0.000116339
-0.000116909
-0.00011748
-0.000118054
-0.000118627
-0.000119201
-0.000119774
-0.000120345
-0.000120912
-0.000121475
-0.000122031
-0.000122579
-0.000123115
-0.000123639
-0.000124145
-0.000124633
-0.000125096
-0.000125533
-0.000125935
-0.0001263
-0.00012662
-0.000126891
-0.000127102
-0.000127247
-0.000127316
-0.000127301
-0.000127188
-0.000126968
-0.000126627
-0.000126153
-0.00012553
-0.000124743
-0.000123775
-0.000122609
-0.000121227
-0.00011961
-0.000117737
-0.000115589
-0.000113144
-0.000110383
-0.000107281
-0.000103821
-9.99783e-05
-9.57354e-05
-9.10699e-05
-8.59661e-05
-8.04042e-05
-7.43717e-05
-6.78527e-05
-6.08393e-05
-5.33208e-05
-4.52954e-05
-3.67592e-05
-2.7718e-05
-1.81759e-05
-8.14739e-06
2.35397e-06
1.3304e-05
2.4679e-05
3.64443e-05
4.85654e-05
6.09972e-05
7.36947e-05
8.66024e-05
9.96655e-05
0.000112819
0.000126
0.000139136
0.000152157
0.000164986
0.000177548
0.000189764
0.000201558
0.000212852
0.000223572
0.000233644
0.000243001
0.000251575
0.000259308
0.000266144
0.000272037
0.000276944
0.000280832
0.000283674
0.000285455