# vtk DataFile Version 2.0
FlowField
ASCII
DATASET STRUCTURED_GRID
DIMENSIONS 400 1 200
POINTS 80000 float
0 0 0
0.08 0 0
0.16 0 0
0.24 0 0
0.32 0 0
0.4 0 0
0.48 0 0
0.56 0 0
0.64 0 0
0.72 0 0
0.8 0 0
0.88 0 0
0.96 0 0
1.04 0 0
1.12 0 0
1.2 0 0
1.28 0 0
1.36 0 0
1.44 0 0
1.52 0 0
1.6 0 0
1.68 0 0
1.76 0 0
1.84 0 0
1.92 0 0
2 0 0
2.08 0 0
2.16 0 0
2.24 0 0
2.32 0 0
2.4 0 0
2.48 0 0
2.56 0 0
2.64 0 0
2.72 0 0
2.8 0 0
2.88 0 0
2.96 0 0
3.04 0 0
3.12 0 0
3.2 0 0
3.28 0 0
3.36 0 0
3.44 0 0
3.52 0 0
3.6 0 0
3.68 0 0
3.76 0 0
3.84 0 0
3.92 0 0
4 0 0
4.08 0 0
4.16 0 0
4.24 0 0
4.32 0 0
4.4 0 0
4.48 0 0
4.56 0 0
4.64 0 0
4.72 0 0
4.8 0 0
4.88 0 0
4.96 0 0
5.04 0 0
5.12 0 0
5.2 0 0
5.28 0 0
5.36 0 0
5.44 0 0
5.52 0 0
5.6 0 0
5.68 0 0
5.76 0 0
5.84 0 0
5.92 0 0
6 0 0
6.08 0 0
6.16 0 0
6.24 0 0
6.32 0 0
6.4 0 0
6.48 0 0
6.56 0 0
6.64 0 0
6.72 0 0
6.8 0 0
6.88 0 0
6.96 0 0
7.04 0 0
7.12 0 0
7.2 0 0
7.28 0 0
7.36 0 0
7.44 0 0
7.52 0 0
7.6 0 0
7.68 0 0
7.76 0 0
7.84 0 0
7.92 0 0
8 0 0
8.08 0 0
8.16 0 0
8.24 0 0
8.32 0 0
8.4 0 0
8.48 0 0
8.56 0 0
8.64 0 0
8.72 0 0
8.8 0 0
8.88 0 0
8.96 0 0
9.04 0 0
9.12 0 0
9.2 0 0
9.28 0 0
9.36 0 0
9.44 0 0
9.52 0 0
9.6 0 0
9.68 0 0
9.76 0 0
9.84 0 0
9.92 0 0
10 0 0
10.08 0 0
10.16 0 0
10.24 0 0
10.32 0 0
10.4 0 0
10.48 0 0
10.56 0 0
10.64 0 0
10.72 0 0
10.8 0 0
10.88 0 0
10.96 0 0
11.04 0 0
11.12 0 0
11.2 0 0
11.28 0 0
11.36 0 0
11.44 0 0
11.52 0 0
11.6 0 0
11.68 0 0
11.76 0 0
11.84 0 0
11.92 0 0
12 0 0
12.08 0 0
12.16 0 0
12.24 0 0
12.32 0 0
12.4 0 0
12.48 0 0
12.56 0 0
12.64 0 0
12.72 0 0
12.8 0 0
12.88 0 0
12.96 0 0
13.04 0 0
13.12 0 0
13.2 0 0
13.28 0 0
13.36 0 0
13.44 0 0
13.52 0 0
13.6 0 0
13.68 0 0
13.76 0 0
13.84 0 0
13.92 0 0
14 0 0
14.08 0 0
14.16 0 0
14.24 0 0
14.32 0 0
14.4 0 0
14.48 0 0
14.56 0 0
14.64 0 0
14.72 0 0
14.8 0 0
14.88 0 0
14.96 0 0
15.04 0 0
15.12 0 0
15.2 0 0
15.28 0 0
15.36 0 0
15.44 0 0
15.52 0 0
15.6 0 0
15.68 0 0
15.76 0 0
15.84 0 0
15.92 0 0
16 0 0
16.08 0 0
16.16 0 0
16.24 0 0
16.32 0 0
16.4 0 0
16.48 0 0
16.56 0 0
16.64 0 0
16.72 0 0
16.8 0 0
16.88 0 0
16.96 0 0
17.04 0 0
17.12 0 0
17.2 0 0
17.28 0 0
17.36 0 0
17.44 0 0
17.52 0 0
17.6 0 0
17.68 0 0
17.76 0 0
17.84 0 0
17.92 0 0
18 0 0
18.08 0 0
18.16 0 0
18.24 0 0
18.32 0 0
18.4 0 0
18.48 0 0
18.56 0 0
18.64 0 0
18.72 0 0
18.8 0 0
18.88 0 0
18.96 0 0
19.04 0 0
19.12 0 0
19.2 0 0
19.28 0 0
19.36 0 0
19.44 0 0
19.52 0 0
19.6 0 0
19.68 0 0
19.76 0 0
19.84 0 0
19.92 0 0
20 0 0
20.08 0 0
20.16 0 0
20.24 0 0
20.32 0 0
20.4 0 0
20.48 0 0
20.56 0 0
20.64 0 0
20.72 0 0
20.8 0 0
20.88 0 0
20.96 0 0
21.04 0 0
21.12 0 0
21.2 0 0
21.28 0 0
21.36 0 0
21.44 0 0
21.52 0 0
21.6 0 0
21.68 0 0
21.76 0 0
21.84 0 0
21.92 0 0
22 0 0
22.08 0 0
22.16 0 0
22.24 0 0
22.32 0 0
22.4 0 0
22.48 0 0
22.56 0 0
22.64 0 0
22.72 0 0
22.8 0 0
22.88 0 0
22.96 0 0
23.04 0 0
23.12 0 0
23.2 0 0
23.28 0 0
23.36 0 0
23.44 0 0
23.52 0 0
23.6 0 0
23.68 0 0
23.76 0 0
23.84 0 0
23.92 0 0
24 0 0
24.08 0 0
24.16 0 0
24.24 0 0
24.32 0 0
24.4 0 0
24.48 0 0
24.56 0 0
24.64 0 0
24.72 0 0
24.8 0 0
24.88 0 0
24.96 0 0
25.04 0 0
25.12 0 0
25.2 0 0
25.28 0 0
25.36 0 0
25.44 0 0
25.52 0 0
25.6 0 0
25.68 0 0
25.76 0 0
25.84 0 0
25.92 0 0
26 0 0
26.08 0 0
26.16 0 0
26.24 0 0
26.32 0 0
26.4 0 0
26.48 0 0
26.56 0 0
26.64 0 0
26.72 0 0
26.8 0 0
26.88 0 0
26.96 0 0
27.04 0 0
27.12 0 0
27.2 0 0
27.28 0 0
27.36 0 0
27.44 0 0
27.52 0 0
27.6 0 0
27.68 0 0
27.76 0 0
27.84 0 0
27.92 0 0
28 0 0
28.08 0 0
28.16 0 0
28.24 0 0
28.32 0 0
28.4 0 0
28.48 0 0
28.56 0 0
28.64 0 0
28.72 0 0
28.8 0 0
28.88 0 0
28.96 0 0
29.04 0 0
29.12 0 0
29.2 0 0
29.28 0 0
29.36 0 0
29.44 0 0
29.52 0 0
29.6 0 0
29.68 0 0
29.76 0 0
29.84 0 0
29.92 0 0
30 0 0
30.08 0 0
30.16 0 0
30.24 0 0
30.32 0 0
30.4 0 0
30.48 0 0
30.56 0 0
30.64 0 0
30.72 0 0
30.8 0 0
30.88 0 0
30.96 0 0
31.04 0 0
31.12 0 0
31.2 0 0
31.28 0 0
31.36 0 0
31.44 0 0
31.52 0 0
31.6 0 0
31.68 0 0
31.76 0 0
31.84 0 0
31.92 0 0
0 0.005 0
0.08 0.005 0
0.16 0.005 0
0.24 0.005 0
0.32 0.005 0
0.4 0.005 0
0.48 0.005 0
0.56 0.005 0
0.64 0.005 0
0.72 0.005 0
0.8 0.005 0
0.88 0.005 0
0.96 0.005 0
1.04 0.005 0
1.12 0.005 0
1.2 0.005 0
1.28 0.005 0
1.36 0.005 0
1.44 0.005 0
1.52 0.005 0
1.6 0.005 0
1.68 0.005 0
1.76 0.005 0
1.84 0.005 0
1.92 0.005 0
2 0.005 0
2.08 0.005 0
2.16 0.005 0
2.24 0.005 0
2.32 0.005 0
2.4 0.005 0
2.48 0.005 0
2.56 0.005 0
2.64 0.005 0
2.72 0.005 0
2.8 0.005 0
2.88 0.005 0
2.96 0.005 0
3.04 0.005 0
3.12 0.005 0
3.2 0.005 0
3.28 0.005 0
3.36 0.005 0
3.44 0.005 0
3.52 0.005 0
3.6 0.005 0
3.68 0.005 0
3.76 0.005 0
3.84 0.005 0
3.92 0.005 0
4 0.005 0
4.08 0.005 0
4.16 0.005 0
4.24 0.005 0
4.32 0.005 0
4.4 0.005 0
4.48 0.005 0
4.56 0.005 0
4.64 0.005 0
4.72 0.005 0
4.8 0.005 0
4.88 0.005 0
4.96 0.005 0
5.04 0.005 0
5.12 0.005 0
5.2 0.005 0
5.28 0.005 0
5.36 0.005 0
5.44 0.005 0
5.52 0.005 0
5.6 0.005 0
5.68 0.005 0
5.76 0.005 0
5.84 0.005 0
5.92 0.005 0
6 0.005 0
6.08 0.005 0
6.16 0.005 0
6.24 0.005 0
6.32 0.005 0
6.4 0.005 0
6.48 0.005 0
6.56 0.005 0
6.64 0.005 0
6.72 0.005 0
6.8 0.005 0
6.88 0.005 0
6.96 0.005 0
7.04 0.005 0
7.12 0.005 0
7.2 0.005 0
7.28 0.005 0
7.36 0.005 0
7.44 0.005 0
7.52 0.005 0
7.6 0.005 0
7.68 0.005 0
7.76 0.005 0
7.84 0.005 0
7.92 0.005 0
8 0.005 0
8.08 0.005 0
8.16 0.005 0
8.24 0.005 0
8.32 0.005 0
8.4 0.005 0
8.48 0.005 0
8.56 0.005 0
8.64 0.005 0
8.72 0.005 0
8.8 0.005 0
8.88 0.005 0
8.96 0.005 0
9.04 0.005 0
9.12 0.005 0
9.2 0.005 0
9.28 0.005 0
9.36 0.005 0
9.44 0.005 0
9.52 0.005 0
9.6 0.005 0
9.68 0.005 0
9.76 0.005 0
9.84 0.005 0
9.92 0.005 0
10 0.005 0
10.08 0.005 0
10.16 0.005 0
10.24 0.005 0
10.32 0.005 0
10.4 0.005 0
10.48 0.005 0
10.56 0.005 0
10.64 0.005 0
10.72 0.005 0
10.8 0.005 0
10.88 0.005 0
10.96 0.005 0
11.04 0.005 0
11.12 0.005 0
11.2 0.005 0
11.28 0.005 0
11.36 0.005 0
11.44 0.005 0
11.52 0.005 0
11.6 0.005 0
11.68 0.005 0
11.76 0.005 0
11.84 0.005 0
11.92 0.005 0
12 0.005 0
12.08 0.005 0
12.16 0.005 0
12.24 0.005 0
12.32 0.005 0
12.4 0.005 0
12.48 0.005 0
12.56 0.005 0
12.64 0.005 0
12.72 0.005 0
12.8 0.005 0
12.88 0.005 0
12.96 0.005 0
13.04 0.005 0
13.12 0.005 0
13.2 0.005 0
13.28 0.005 0
13.36 0.005 0
13.44 0.005 0
13.52 0.005 0
13.6 0.005 0
13.68 0.005 0
13.76 0.005 0
13.84 0.005 0
13.92 0.005 0
14 0.005 0
14.08 0.005 0
14.16 0.005 0
14.24 0.005 0
14.32 0.005 0
14.4 0.005 0
14.48 0.005 0
14.56 0.005 0
14.64 0.005 0
14.72 0.005 0
14.8 0.005 0
14.88 0.005 0
14.96 0.005 0
15.04 0.005 0
15.12 0.005 0
15.2 0.005 0
15.28 0.005 0
15.36 0.005 0
15.44 0.005 0
15.52 0.005 0
15.6 0.005 0
15.68 0.005 0
15.76 0.005 0
15.84 0.005 0
15.92 0.005 0
16 0.005 0
16.08 0.005 0
16.16 0.005 0
16.24 0.005 0
16.32 0.005 0
16.4 0.005 0
16.48 0.005 0
16.56 0.005 0
16.64 0.005 0
16.72 0.005 0
16.8 0.005 0
16.88 0.005 0
16.96 0.005 0
17.04 0.005 0
17.12 0.005 0
17.2 0.005 0
17.28 0.005 0
17.36 0.005 0
17.44 0.005 0
17.52 0.005 0
17.6 0.005 0
17.68 0.005 0
17.76 0.005 0
17.84 0.005 0
17.92 0.005 0
18 0.005 0
18.08 0.005 0
18.16 0.005 0
18.24 0.005 0
18.32 0.005 0
18.4 0.005 0
18.48 0.005 0
18.56 0.005 0
18.64 0.005 0
18.72 0.005 0
18.8 0.005 0
18.88 0.005 0
18.96 0.005 0
19.04 0.005 0
19.12 0.005 0
19.2 0.005 0
19.28 0.005 0
19.36 0.005 0
19.44 0.005 0
19.52 0.005 0
19.6 0.005 0
19.68 0.005 0
19.76 0.005 0
19.84 0.005 0
19.92 0.005 0
20 0.005 0
20.08 0.005 0
20.16 0.005 0
20.24 0.005 0
20.32 0.005 0
20.4 0.005 0
20.48 0.005 0
20.56 0.005 0
20.64 0.005 0
20.72 0.005 0
20.8 0.005 0
20.88 0.005 0
20.96 0.005 0
21.04 0.005 0
21.12 0.005 0
21.2 0.005 0
21.28 0.005 0
21.36 0.005 0
21.44 0.005 0
21.52 0.005 0
21.6 0.005 0
21.68 0.005 0
21.76 0.005 0
21.84 0.005 0
21.92 0.005 0
22 0.005 0
22.08 0.005 0
22.16 0.005 0
22.24 0.005 0
22.32 0.005 0
22.4 0.005 0
22.48 0.005 0
22.56 0.005 0
22.64 0.005 0
22.72 0.005 0
22.8 0.005 0
22.88 0.005 0
22.96 0.005 0
23.04 0.005 0
23.12 0.005 0
23.2 0.005 0
23.28 0.005 0
23.36 0.005 0
23.44 0.005 0
23.52 0.005 0
23.6 0.005 0
23.68 0.005 0
23.76 0.005 0
23.84 0.005 0
23.92 0.005 0
24 0.005 0
24.08 0.005 0
24.16 0.005 0
24.24 0.005 0
24.32 0.005 0
24.4 0.005 0
24.48 0.005 0
24.56 0.005 0
24.64 0.005 0
24.72 0.005 0
24.8 0.005 0
24.88 0.005 0
24.96 0.005 0
25.04 0.005 0
25.12 0.005 0
25.2 0.005 0
25.28 0.005 0
25.36 0.005 0
25.44 0.005 0
25.52 0.005 0
25.6 0.005 0
25.68 0.005 0
25.76 0.005 0
25.84 0.005 0
25.92 0.005 0
26 0.005 0
26.08 0.005 0
26.16 0.005 0
26.24 0.005 0
26.32 0.005 0
26.4 0.005 0
26.48 0.005 0
26.56 0.005 0
26.64 0.005 0
26.72 0.005 0
26.8 0.005 0
26.88 0.005 0
26.96 0.005 0
27.04 0.005 0
27.12 0.005 0
27.2 0.005 0
27.28 0.005 0
27.36 0.005 0
27.44 0.005 0
27.52 0.005 0
27.6 0.005 0
27.68 0.005 0
27.76 0.005 0
27.84 0.005 0
27.92 0.005 0
28 0.005 0
28.08 0.005 0
28.16 0.005 0
28.24 0.005 0
28.32 0.005 0
28.4 0.005 0
28.48 0.005 0
28.56 0.005 0
28.64 0.005 0
28.72 0.005 0
28.8 0.005 0
28.88 0.005 0
28.96 0.005 0
29.04 0.005 0
29.12 0.005 0
29.2 0.005 0
29.28 0.005 0
29.36 0.005 0
29.44 0.005 0
29.52 0.005 0
29.6 0.005 0
29.68 0.005 0
29.76 0.005 0
29.84 0.005 0
29.92 0.005 0
30 0.005 0
30.08 0.005 0
30.16 0.005 0
30.24 0.005 0
30.32 0.005 0
30.4 0.005 0
30.48 0.005 0
30.56 0.005 0
30.64 0.005 0
30.72 0.005 0
30.8 0.005 0
30.88 0.005 0
30.96 0.005 0
31.04 0.005 0
31.12 0.005 0
31.2 0.005 0
31.28 0.005 0
31.36 0.005 0
31.44 0.005 0
31.52 0.005 0
31.6 0.005 0
31.68 0.005 0
31.76 0.005 0
31.84 0.005 0
31.92 0.005 0
0 0.01 0
0.08 0.01 0
0.16 0.01 0
0.24 0.01 0
0.32 0.01 0
0.4 0.01 0
0.48 0.01 0
0.56 0.01 0
0.64 0.01 0
0.72 0.01 0
0.8 0.01 0
0.88 0.01 0
0.96 0.01 0
1.04 0.01 0
1.12 0.01 0
1.2 0.01 0
1.28 0.01 0
1.36 0.01 0
1.44 0.01 0
1.52 0.01 0
1.6 0.01 0
1.68 0.01 0
1.76 0.01 0
1.84 0.01 0
1.92 0.01 0
2 0.01 0
2.08 0.01 0
2.16 0.01 0
2.24 0.01 0
2.32 0.01 0
2.4 0.01 0
2.48 0.01 0
2.56 0.01 0
2.64 0.01 0
2.72 0.01 0
2.8 0.01 0
2.88 0.01 0
2.96 0.01 0
3.04 0.01 0
3.12 0.01 0
3.2 0.01 0
3.28 0.01 0
3.36 0.01 0
3.44 0.01 0
3.52 0.01 0
3.6 0.01 0
3.68 0.01 0
3.76 0.01 0
3.84 0.01 0
3.92 0.01 0
4 0.01 0
4.08 0.01 0
4.16 0.01 0
4.24 0.01 0
4.32 0.01 0
4.4 0.01 0
4.48 0.01 0
4.56 0.01 0
4.64 0.01 0
4.72 0.01 0
4.8 0.01 0
4.88 0.01 0
4.96 0.01 0
5.04 0.01 0
5.12 0.01 0
[...]
POINT_DATA 80000

SCALARS v float 1
LOOKUP_TABLE default
0
0
0
0
0
0
0
0
0
0
0
0
0
0
0
0
0
0
0
0
0
0
0
0
0
0
0
0
0
0
0
0
0
0
0
0
0
0
0
0
0
0
0
0
0
0
0
0
0
0
0
0
0
0
0
0
0
0
0
0
0
0
0
0
0
0
0
0
0
0
0
0
0
0
0
0
0
0
0
0
0
0
0
0
0
0
0
0
0
0
0
0
0
0
0
0
0
0
0
0
0
0
0
0
0
0
0
0
0
0
0
0
0
0
0
0
0
0
0
0
0
0
0
0
0
0
0
0
0
0
0
0
0
0
0
0
0
0
0
0
0
0
0
0
0
0
0
0
0
0
0
0
0
0
0
0
0
0
0
0
0
0
0
0
0
0
0
0
0
0
0
0
0
0
0
0
0
0
0
0
0
0
0
0
0
0
0
0
0
0
0
0
0
0
0
0
0
0
0
0
0
0
0
0
0
0
0
0
0
0
0
0
0
0
0
0
0
0
0
0
0
0
0
0
0
0
0
0
0
0
0
0
0
0
0
0
0
0
0
0
0
0
0
0
0
0
0
0
0
0
0
0
0
0
0
0
0
0
0
0
0
0
0
0
0
0
0
0
0
0
0
0
0
0
0
0
0
0
0
0
0
0
0
0
0
0
0
0
0
0
0
0
0
0
0
0
0
0
0
0
0
0
0
0
0
0
0
0
0
0
0
0
0
0
0
0
0
0
0
0
0
0
0
0
0
0
0
0
0
0
0
0
0
0
0
0
0
0
0
0
0
0
0
0
0
0
0
0
0
0
0
0
0
0
0
0
0
0
0
0
0
0
0
0
0
0
0
0
0
0
0
0
0
0
0
0
0
0
0
0
0
0
0
0
0
0
0
0
0
0
0
0
0
0
0
0
0
0
0
0
-0.0542779
0.0542779
0.00396902
0.00100532
0.000499098
0.000309226
0.0002137
0.000157969
0.000122006
9.72185e-05
7.98288e-05
6.74286e-05
5.75764e-05
4.83023e-05
3.90047e-05
3.03687e-05
2.33926e-05
1.85052e-05
1.53979e-05
1.34024e-05
1.19265e-05
1.06555e-05
9.52156e-06
8.57518e-06
7.87252e-06
7.4231e-06
7.18871e-06
7.10645e-06
7.11293e-06
7.15883e-06
7.21297e-06
7.25968e-06
7.29367e-06
7.31533e-06
7.32724e-06
7.33239e-06
7.33324e-06
7.33159e-06
7.32859e-06
7.32495e-06
7.32107e-06
7.31715e-06
7.3133e-06
7.30956e-06
7.30594e-06
7.30246e-06
7.29909e-06
7.29585e-06
7.29272e-06
7.28971e-06
7.28679e-06
7.28397e-06
7.28125e-06
7.27862e-06
7.27608e-06
7.27363e-06
7.27126e-06
7.26897e-06
7.26676e-06
7.26463e-06
7.26258e-06
7.2606e-06
7.25869e-06
7.25687e-06
7.25511e-06
7.25342e-06
7.2518e-06
7.25026e-06
7.24879e-06
7.24739e-06
7.24605e-06
7.24479e-06
7.2436e-06
7.24247e-06
7.24142e-06
7.24044e-06
7.23953e-06
7.23868e-06
7.23791e-06
7.23721e-06
7.23658e-06
7.23602e-06
7.23553e-06
7.23511e-06
7.23476e-06
7.23449e-06
7.23428e-06
7.23415e-06
7.23408e-06
7.2341e-06
7.23418e-06
7.23433e-06
7.23456e-06
7.23486e-06
7.23523e-06
7.23568e-06
7.2362e-06
7.2368e-06
7.23747e-06
7.23821e-06
7.23903e-06
7.23993e-06
7.24089e-06
7.24194e-06
7.24306e-06
7.24426e-06
7.24554e-06
7.2469e-06
7.24833e-06
7.24984e-06
7.25143e-06
7.2531e-06
7.25485e-06
7.25669e-06
7.2586e-06
7.2606e-06
7.26268e-06
7.26484e-06
7.26708e-06
7.26942e-06
7.27183e-06
7.27433e-06
7.27692e-06
7.27959e-06
7.28235e-06
7.28521e-06
7.28814e-06
7.29117e-06
7.29429e-06
7.2975e-06
7.3008e-06
7.3042e-06
7.30768e-06
7.31126e-06
7.31493e-06
7.3187e-06
7.32256e-06
7.32651e-06
7.33056e-06
7.33471e-06
7.33895e-06
7.34329e-06
7.34773e-06
7.35226e-06
7.35689e-06
7.36162e-06
7.36644e-06
7.37136e-06
7.37637e-06
7.38148e-06
7.38668e-06
7.39197e-06
7.39735e-06
7.40283e-06
7.40839e-06
7.41404e-06
7.41978e-06
7.42559e-06
7.43149e-06
7.43746e-06
7.44349e-06
7.4496e-06
7.45577e-06
7.46199e-06
7.46826e-06
7.47458e-06
7.48093e-06
7.4873e-06
7.49369e-06
7.5001e-06
7.50649e-06
7.51286e-06
7.51921e-06
7.52551e-06
7.53174e-06
7.53789e-06
7.54394e-06
7.54986e-06
7.55564e-06
7.56125e-06
7.56666e-06
7.57184e-06
7.57675e-06
7.58137e-06
7.58565e-06
7.58957e-06
7.59306e-06
7.59609e-06
7.59861e-06
7.60056e-06
7.60188e-06
7.60253e-06
7.60243e-06
7.60152e-06
7.59971e-06
7.59695e-06
7.59314e-06
7.58821e-06
7.58205e-06
7.57458e-06
7.5657e-06
7.55531e-06
7.54329e-06
7.52953e-06
7.51392e-06
7.49633e-06
7.47663e-06
7.45469e-06
7.43037e-06
7.40354e-06
7.37403e-06
7.34172e-06
7.30644e-06
7.26803e-06
7.22633e-06
7.18119e-06
7.13242e-06
7.07988e-06
7.02338e-06
6.96276e-06
6.89785e-06
6.82847e-06
6.75446e-06
6.67565e-06
6.59186e-06
6.50295e-06
6.40875e-06
6.30911e-06
6.20387e-06
6.0929e-06
5.97607e-06
5.85324e-06
5.72431e-06
5.58916e-06
5.44771e-06
5.29986e-06
5.14557e-06
4.98476e-06
4.81741e-06
4.6435e-06
4.46301e-06
4.27597e-06
4.08242e-06
3.8824e-06
3.67599e-06
3.4633e-06
3.24444e-06
3.01955e-06
2.7888e-06
2.55239e-06
2.31052e-06
2.06345e-06
1.81141e-06
1.55472e-06
1.29367e-06
1.02861e-06
7.59894e-07
4.87907e-07
2.13051e-07
-6.42413e-08
-3.43527e-07
-6.24333e-07
-9.06176e-07
-1.18855e-06
-1.47093e-06
-1.75279e-06
-2.03357e-06
-2.31271e-06
-2.58965e-06
-2.8638e-06
-3.13459e-06
-3.40141e-06
-3.66369e-06
-3.92084e-06
-4.17226e-06
-4.41737e-06
-4.65559e-06
-4.88637e-06
-5.10914e-06
-5.32335e-06
-5.52849e-06
-5.72404e-06
-5.90951e-06
-6.08443e-06
-6.24835e-06
-6.40086e-06
-6.54155e-06
-6.67007e-06
-6.78608e-06
-6.88926e-06
-6.97936e-06
-7.05612e-06
-7.11934e-06
-7.16886e-06
-7.20453e-06
-7.22625e-06
-7.23397e-06
-7.22764e-06
-7.20729e-06
-7.17294e-06
-7.12469e-06
-7.06264e-06
-6.98695e-06
-6.89778e-06
-6.79535e-06
-6.67991e-06
-6.55172e-06
-6.41108e-06
-6.25832e-06
-6.09379e-06
-5.91786e-06
-5.73092e-06
-5.5334e-06
-5.32572e-06
-5.10833e-06
-4.88168e-06
-4.64625e-06
-4.40253e-06
-4.15099e-06
-3.89213e-06
-3.62646e-06
-3.35445e-06
-3.07663e-06
-2.79347e-06
-2.50547e-06
-2.21312e-06
-1.91688e-06
-1.61724e-06
-1.31464e-06
-1.00953e-06
-7.02344e-07
-3.93493e-07
-8.3383e-08
2.27607e-07
5.39106e-07
8.50772e-07
1.16227e-06
1.4733e-06
1.78356e-06
2.09279e-06
2.40075e-06
2.7072e-06
3.01194e-06
3.31479e-06
3.61558e-06
3.91417e-06
4.21044e-06
4.50428e-06
4.79562e-06
5.08438e-06
5.37054e-06
5.65405e-06
5.93491e-06
6.21314e-06
6.48876e-06
6.76181e-06
7.03234e-06
7.30044e-06
7.56618e-06
7.82968e-06
8.09103e-06
8.35037e-06
8.60783e-06
8.86357e-06
9.11773e-06
9.3705e-06
9.62204e-06
9.87256e-06
1.01222e-05
1.03713e-05
1.06199e-05
1.08684e-05
1.11169e-05
1.13657e-05
1.1615e-05
1.18651e-05
1.21163e-05
1.23687e-05
1.26229e-05
1.28784e-05
1.31379e-05
1.33951e-05
1.36666e-05
1.39156e-05
1.42218e-05
1.4427e-05
1.4826e-05
1.49144e-05
1.54864e-05
1.54056e-05
1.61451e-05
1.59889e-05
1.67417e-05
1.6674e-05
1.73298e-05
1.75582e-05
1.73339e-05
2.13345e-05
1.84369e-05
1.84369e-05
-0.0952232
0.0952232
0.0129833
0.00386253
0.00194156
0.00120225
0.000827219
0.000607295
0.000464883
0.000366609
0.000297507
0.000247773
0.000207787
0.000170214
0.000133114
9.92191e-05
7.21304e-05
5.31656e-05
4.09477e-05
3.29074e-05
2.68685e-05
2.17162e-05
1.72265e-05
1.3574e-05
1.09283e-05
9.28026e-06
8.45256e-06
8.19023e-06
8.24875e-06
8.44364e-06
8.66123e-06
8.84617e-06
8.98124e-06
9.06926e-06
9.1207e-06
9.14693e-06
9.15723e-06
9.15823e-06
9.1542e-06
9.14771e-06
9.14019e-06
9.13242e-06
9.12473e-06
9.11732e-06
9.11023e-06
9.10347e-06
9.09701e-06
9.09086e-06
9.08497e-06
9.07935e-06
9.07395e-06
9.06878e-06
9.0638e-06
9.05902e-06
9.05442e-06
9.04999e-06
9.0457e-06
9.04158e-06
9.03759e-06
9.03375e-06
9.03003e-06
9.02644e-06
9.02296e-06
9.01961e-06
9.01636e-06
9.01323e-06
9.0102e-06
9.00728e-06
9.00446e-06
9.00176e-06
8.99915e-06
8.99665e-06
8.99424e-06
8.99194e-06
8.98974e-06
8.98765e-06
8.98564e-06
8.98376e-06
8.98196e-06
8.98028e-06
8.97868e-06
8.97721e-06
8.97582e-06
8.97455e-06
8.97337e-06
8.97231e-06
8.97134e-06
8.97049e-06
8.96973e-06
8.96908e-06
8.96854e-06
8.96811e-06
8.96777e-06
8.96755e-06
8.96743e-06
8.96743e-06
8.96753e-06
8.96775e-06
8.96806e-06
8.96849e-06
8.96903e-06
8.96969e-06
8.97044e-06
8.97132e-06
8.9723e-06
8.97341e-06
8.97461e-06
8.97595e-06
8.97738e-06
8.97895e-06
8.98062e-06
8.98242e-06
8.98432e-06
8.98636e-06
8.9885e-06
8.99077e-06
8.99316e-06
8.99568e-06
8.99831e-06
9.00107e-06
9.00395e-06
9.00697e-06
9.0101e-06
9.01337e-06
9.01676e-06
9.02028e-06
9.02393e-06
9.02772e-06
9.03163e-06
9.03568e-06
9.03986e-06
9.04418e-06
9.04863e-06
9.05323e-06
9.05795e-06
9.06282e-06
9.06782e-06
9.07297e-06
9.07825e-06
9.08368e-06
9.08924e-06
9.09495e-06
9.1008e-06
9.1068e-06
9.11293e-06
9.11922e-06
9.12564e-06
9.13221e-06
9.13892e-06
9.14578e-06
9.15277e-06
9.15991e-06
9.16719e-06
9.17461e-06
9.18216e-06
9.18986e-06
9.19768e-06
9.20564e-06
9.21371e-06
9.22193e-06
9.23025e-06
9.2387e-06
9.24725e-06
9.25592e-06
9.26468e-06
9.27353e-06
9.28246e-06
9.29148e-06
9.30055e-06
9.30969e-06
9.31885e-06
9.32806e-06
9.33726e-06
9.34648e-06
9.35566e-06
9.36481e-06
9.3739e-06
9.3829e-06
9.39179e-06
9.40055e-06
9.40913e-06
9.41752e-06
9.42567e-06
9.43355e-06
9.44111e-06
9.44832e-06
9.45512e-06
9.46147e-06
9.46731e-06
9.47258e-06
9.47721e-06
9.48116e-06
9.48433e-06
9.48667e-06
9.48807e-06
9.48848e-06
9.48779e-06
9.48591e-06
9.48273e-06
9.47816e-06
9.47208e-06
9.46439e-06
9.45494e-06
9.44362e-06
9.4303e-06
9.41484e-06
9.39708e-06
9.37689e-06
9.3541e-06
9.32856e-06
9.3001e-06
9.26856e-06
9.23373e-06
9.19548e-06
9.15358e-06
9.10788e-06
9.05816e-06
9.00425e-06
8.94592e-06
8.88302e-06
8.8153e-06
8.7426e-06
8.6647e-06
8.58142e-06
8.49253e-06
8.39788e-06
8.29724e-06
8.19046e-06
8.07732e-06
7.95769e-06
7.83136e-06
7.69822e-06
7.55808e-06
7.41083e-06
7.25633e-06
7.09449e-06
6.9252e-06
6.74838e-06
6.56397e-06
6.37192e-06
6.17221e-06
5.96483e-06
5.74979e-06
5.52715e-06
5.29694e-06
5.05927e-06
4.81423e-06
4.56198e-06
4.30266e-06
4.03647e-06
3.76362e-06
3.48437e-06
3.19897e-06
2.90774e-06
2.611e-06
2.30911e-06
2.00245e-06
1.69144e-06
1.37651e-06
1.05814e-06
7.36795e-07
4.13017e-07
8.73201e-08
-2.39714e-07
-5.67527e-07
-8.95497e-07
-1.22303e-06
-1.54947e-06
-1.8742e-06
-2.19653e-06
-2.51582e-06
-2.83137e-06
-3.14253e-06
-3.44859e-06
-3.74889e-06
-4.04272e-06
-4.32943e-06
-4.60833e-06
-4.87879e-06
-5.14012e-06
-5.39172e-06
-5.63295e-06
-5.86323e-06
-6.08196e-06
-6.28861e-06
-6.48264e-06
-6.66356e-06
-6.83088e-06
-6.98418e-06
-7.12304e-06
-7.24711e-06
-7.35603e-06
-7.44953e-06
-7.52732e-06
-7.5892e-06
-7.63498e-06
-7.66453e-06
-7.67773e-06
-7.67455e-06
-7.65494e-06
-7.61895e-06
-7.56662e-06
-7.49806e-06
-7.4134e-06
-7.31283e-06
-7.19655e-06
-7.06483e-06
-6.91791e-06
-6.75615e-06
-6.57986e-06
-6.38944e-06
-6.18526e-06
-5.96778e-06
-5.73741e-06
-5.49464e-06
-5.23995e-06
-4.97385e-06
-4.69684e-06
-4.40947e-06
-4.11225e-06
-3.80575e-06
-3.49049e-06
-3.16706e-06
-2.83598e-06
-2.49782e-06
-2.15311e-06
-1.80241e-06
-1.44623e-06
-1.08513e-06
-7.19578e-07
-3.50114e-07
2.28043e-08
3.98683e-07
7.77092e-07
1.15757e-06
1.53973e-06
1.92315e-06
2.30748e-06
2.69234e-06
3.07742e-06
3.46239e-06
3.84699e-06
4.23094e-06
4.61402e-06
4.99599e-06
5.37669e-06
5.75592e-06
6.13356e-06
6.50948e-06
6.88359e-06
7.25579e-06
7.62606e-06
7.99434e-06
8.36064e-06
8.72494e-06
9.08731e-06
9.44776e-06
9.80638e-06
1.01632e-05
1.05184e-05
1.08721e-05
1.12244e-05
1.15754e-05
1.19253e-05
1.22744e-05
1.26227e-05
1.29705e-05
1.3318e-05
1.36654e-05
1.40131e-05
1.43611e-05
1.47099e-05
1.50597e-05
1.54107e-05
1.57634e-05
1.61179e-05
1.64747e-05
1.68337e-05
1.71966e-05
1.75602e-05
1.79341e-05
1.82952e-05
1.8701e-05
1.90208e-05
1.95378e-05
1.96833e-05
2.05217e-05
2.02173e-05
2.16782e-05
2.07128e-05
2.27888e-05
2.14941e-05
2.36075e-05
2.26068e-05
2.43348e-05
2.43583e-05
2.30291e-05
3.67398e-05
2.55432e-05
2.55432e-05
-0.1253
0.1253
0.0249435
0.00836602
0.00428444
0.00266529
0.00183626
0.00134763
0.0010302
0.000810852
0.000656265
0.000544246
0.000453506
0.000368431
0.000285328
0.000210251
0.000150653
0.000108895
8.17004e-05
6.34867e-05
4.96717e-05
3.79684e-05
2.79366e-05
1.99201e-05
1.42123e-05
1.07201e-05
9.00893e-06
8.50273e-06
8.66701e-06
9.10716e-06
9.58449e-06
9.98551e-06
1.02769e-05
1.04669e-05
1.05788e-05
1.06372e-05
1.06619e-05
1.06671e-05
1.06616e-05
1.06509e-05
1.0638e-05
1.06245e-05
1.06111e-05
1.05983e-05
1.0586e-05
1.05744e-05
1.05633e-05
1.05529e-05
1.05429e-05
1.05335e-05
1.05244e-05
1.05158e-05
1.05075e-05
1.04995e-05
1.04919e-05
1.04845e-05
1.04774e-05
1.04706e-05
1.0464e-05
1.04576e-05
1.04514e-05
1.04454e-05
1.04396e-05
1.0434e-05
1.04285e-05
1.04232e-05
1.0418e-05
1.0413e-05
1.04081e-05
1.04034e-05
1.03988e-05
1.03944e-05
1.03901e-05
1.03859e-05
1.03819e-05
1.03781e-05
1.03743e-05
1.03707e-05
1.03673e-05
1.0364e-05
1.03608e-05
1.03578e-05
1.03549e-05
1.03521e-05
1.03495e-05
1.03471e-05
1.03448e-05
1.03426e-05
1.03406e-05
1.03387e-05
1.0337e-05
1.03354e-05
1.0334e-05
1.03327e-05
1.03315e-05
1.03306e-05
1.03297e-05
1.0329e-05
1.03285e-05
1.03281e-05
1.03279e-05
1.03278e-05
1.03279e-05
1.03281e-05
1.03285e-05
1.0329e-05
1.03297e-05
1.03306e-05
1.03316e-05
1.03328e-05
1.03341e-05
1.03356e-05
1.03373e-05
1.03391e-05
1.03411e-05
1.03433e-05
1.03456e-05
1.03481e-05
1.03508e-05
1.03536e-05
1.03566e-05
1.03598e-05
1.03632e-05
1.03667e-05
1.03704e-05
1.03743e-05
1.03784e-05
1.03826e-05
1.0387e-05
1.03917e-05
1.03965e-05
1.04015e-05
1.04066e-05
1.0412e-05
1.04175e-05
1.04233e-05
1.04292e-05
1.04353e-05
1.04416e-05
1.04482e-05
1.04549e-05
1.04618e-05
1.04689e-05
1.04762e-05
1.04837e-05
1.04914e-05
1.04993e-05
1.05074e-05
1.05157e-05
1.05242e-05
1.05329e-05
1.05418e-05
1.05509e-05
1.05602e-05
1.05697e-05
1.05794e-05
1.05892e-05
1.05993e-05
1.06096e-05
1.062e-05
1.06307e-05
1.06415e-05
1.06525e-05
1.06636e-05
1.0675e-05
1.06864e-05
1.06981e-05
1.07098e-05
1.07217e-05
1.07337e-05
1.07458e-05
1.07581e-05
1.07703e-05
1.07827e-05
1.07951e-05
1.08075e-05
1.08199e-05
1.08323e-05
1.08447e-05
1.0857e-05
1.08691e-05
1.08812e-05
1.0893e-05
1.09047e-05
1.09161e-05
1.09272e-05
1.09379e-05
1.09483e-05
1.09582e-05
1.09675e-05
1.09763e-05
1.09845e-05
1.09919e-05
1.09986e-05
1.10043e-05
1.10091e-05
1.10128e-05
1.10153e-05
1.10166e-05
1.10165e-05
1.10149e-05
1.10117e-05
1.10068e-05
1.1e-05
1.09911e-05
1.09801e-05
1.09668e-05
1.0951e-05
1.09326e-05
1.09114e-05
1.08872e-05
1.08598e-05
1.08291e-05
1.07948e-05
1.07568e-05
1.07149e-05
1.06688e-05
1.06184e-05
1.05634e-05
1.05036e-05
1.04389e-05
1.03689e-05
1.02935e-05
1.02125e-05
1.01256e-05
1.00327e-05
9.93343e-06
9.82774e-06
9.71533e-06
9.59608e-06
9.46973e-06
9.33617e-06
9.19516e-06
9.04662e-06
8.89033e-06
8.72621e-06
8.5541e-06
8.37395e-06
8.18562e-06
7.98908e-06
7.78426e-06
7.57115e-06
7.34972e-06
7.12003e-06
6.88208e-06
6.63597e-06
6.38175e-06
6.1196e-06
5.8496e-06
5.572e-06
5.28693e-06
4.99469e-06
4.69549e-06
4.38967e-06
4.07751e-06
3.75942e-06
3.43572e-06
3.10689e-06
2.77331e-06
2.43551e-06
2.09393e-06
1.74916e-06
1.4017e-06
1.05217e-06
7.01135e-07
3.49254e-07
-2.87241e-09
-3.54535e-07
-7.05102e-07
-1.05383e-06
-1.40007e-06
-1.74305e-06
-2.08209e-06
-2.41642e-06
-2.74535e-06
-3.06809e-06
-3.38398e-06
-3.69222e-06
-3.99214e-06
-4.28299e-06
-4.56411e-06
-4.83478e-06
-5.09436e-06
-5.34218e-06
-5.57764e-06
-5.80011e-06
-6.00905e-06
-6.20387e-06
-6.3841e-06
-6.54923e-06
-6.69884e-06
-6.83248e-06
-6.94982e-06
-7.05048e-06
-7.13422e-06
-7.20072e-06
-7.24983e-06
-7.28133e-06
-7.29514e-06
-7.29112e-06
-7.26928e-06
-7.22957e-06
-7.17207e-06
-7.09682e-06
-7.00399e-06
-6.8937e-06
-6.76618e-06
-6.62163e-06
-6.46036e-06
-6.28264e-06
-6.08884e-06
-5.87929e-06
-5.65443e-06
-5.41464e-06
-5.16041e-06
-4.89216e-06
-4.61043e-06
-4.31567e-06
-4.00845e-06
-3.68927e-06
-3.3587e-06
-3.01726e-06
-2.66555e-06
-2.30408e-06
-1.93347e-06
-1.55422e-06
-1.16696e-06
-7.72171e-07
-3.70461e-07
3.76839e-08
4.51689e-07
8.71087e-07
1.29533e-06
1.72398e-06
2.15653e-06
2.59257e-06
3.03162e-06
3.47333e-06
3.91725e-06
4.36308e-06
4.81041e-06
5.25897e-06
5.70843e-06
6.15855e-06
6.60905e-06
7.05974e-06
7.51038e-06
7.96085e-06
8.41094e-06
8.86058e-06
9.30962e-06
9.75803e-06
1.02057e-05
1.06527e-05
1.10989e-05
1.15443e-05
1.19891e-05
1.24332e-05
1.28767e-05
1.33198e-05
1.37625e-05
1.4205e-05
1.46474e-05
1.50899e-05
1.55326e-05
1.59759e-05
1.64198e-05
1.68646e-05
1.73106e-05
1.77581e-05
1.82072e-05
1.86584e-05
1.91118e-05
1.95679e-05
2.0027e-05
2.04893e-05
2.09554e-05
2.14251e-05
2.19009e-05
2.23765e-05
2.2871e-05
2.33366e-05
2.38915e-05
2.42649e-05
2.50442e-05
2.50447e-05
2.64909e-05
2.55299e-05
2.82892e-05
2.58987e-05
2.99771e-05
2.68432e-05
3.10097e-05
2.84788e-05
3.18254e-05
3.13904e-05
2.86049e-05
5.65435e-05
3.2906e-05
3.2906e-05
-0.146494
0.146494
0.0383174
0.0142414
0.00746049
0.00467252
0.00322814
0.00237172
0.00181338
0.00142684
0.00115374
0.000954661
0.000792453
0.000640735
0.000493873
0.000362397
0.000258549
0.000185666
0.000137714
0.000105101
8.01644e-05
5.9164e-05
4.14065e-05
2.74254e-05
1.76114e-05
1.16941e-05
8.85111e-06
8.05571e-06
8.38119e-06
9.15552e-06
9.97852e-06
1.06636e-05
1.1159e-05
1.14813e-05
1.16712e-05
1.17709e-05
1.1814e-05
1.18243e-05
1.18168e-05
1.18006e-05
1.17806e-05
1.17596e-05
1.17388e-05
1.17188e-05
1.16998e-05
1.16818e-05
1.16648e-05
1.16486e-05
1.16333e-05
1.16188e-05
1.16049e-05
1.15916e-05
1.1579e-05
1.15668e-05
1.15551e-05
1.15439e-05
1.15331e-05
1.15227e-05
1.15125e-05
1.15028e-05
1.14933e-05
1.14841e-05
1.14751e-05
1.14664e-05
1.14579e-05
1.14496e-05
1.14415e-05
1.14337e-05
1.1426e-05
1.14186e-05
1.14113e-05
1.14042e-05
1.13973e-05
1.13906e-05
1.1384e-05
1.13777e-05
1.13715e-05
1.13655e-05
1.13596e-05
1.1354e-05
1.13486e-05
1.13433e-05
1.13382e-05
1.13334e-05
1.13287e-05
1.13242e-05
1.13198e-05
1.13157e-05
1.13118e-05
1.1308e-05
1.13045e-05
1.13011e-05
1.12979e-05
1.1295e-05
1.12922e-05
1.12896e-05
1.12872e-05
1.1285e-05
1.1283e-05
1.12812e-05
1.12796e-05
1.12782e-05
1.1277e-05
1.1276e-05
1.12752e-05
1.12747e-05
1.12743e-05
1.12741e-05
1.12742e-05
1.12744e-05
1.12749e-05
1.12756e-05
1.12764e-05
1.12775e-05
1.12788e-05
1.12804e-05
1.12821e-05
1.12841e-05
1.12863e-05
1.12887e-05
1.12913e-05
1.12942e-05
1.12973e-05
1.13006e-05
1.13041e-05
1.13079e-05
1.13119e-05
1.13162e-05
1.13207e-05
1.13254e-05
1.13304e-05
1.13356e-05
1.1341e-05
1.13468e-05
1.13527e-05
1.13589e-05
1.13653e-05
1.1372e-05
1.13789e-05
1.13862e-05
1.13936e-05
1.14013e-05
1.14093e-05
1.14175e-05
1.1426e-05
1.14348e-05
1.14438e-05
1.1453e-05
1.14626e-05
1.14724e-05
1.14824e-05
1.14928e-05
1.15034e-05
1.15142e-05
1.15253e-05
1.15367e-05
1.15484e-05
1.15603e-05
1.15724e-05
1.15849e-05
1.15975e-05
1.16105e-05
1.16236e-05
1.1637e-05
1.16506e-05
1.16645e-05
1.16786e-05
1.16929e-05
1.17074e-05
1.17221e-05
1.17369e-05
1.1752e-05
1.17671e-05
1.17825e-05
1.17979e-05
1.18135e-05
1.18291e-05
1.18448e-05
1.18605e-05
1.18762e-05
1.18919e-05
1.19075e-05
1.1923e-05
1.19385e-05
1.19537e-05
1.19687e-05
1.19834e-05
1.19979e-05
1.20119e-05
1.20255e-05
1.20386e-05
1.20512e-05
1.20631e-05
1.20743e-05
1.20846e-05
1.20941e-05
1.21026e-05
1.211e-05
1.21162e-05
1.21211e-05
1.21245e-05
1.21265e-05
1.21267e-05
1.21252e-05
1.21216e-05
1.2116e-05
1.21081e-05
1.20979e-05
1.2085e-05
1.20694e-05
1.20507e-05
1.20291e-05
1.2004e-05
1.19755e-05
1.19432e-05
1.1907e-05
1.18667e-05
1.18221e-05
1.17728e-05
1.17188e-05
1.16598e-05
1.15955e-05
1.15258e-05
1.14504e-05
1.1369e-05
1.12816e-05
1.11877e-05
1.10874e-05
1.09802e-05
1.0866e-05
1.07446e-05
1.06159e-05
1.04796e-05
1.03355e-05
1.01835e-05
1.00236e-05
9.85536e-06
9.67891e-06
9.49401e-06
9.30067e-06
9.09875e-06
8.88828e-06
8.66916e-06
8.44147e-06
8.20516e-06
7.96036e-06
7.70706e-06
7.44546e-06
7.1756e-06
6.89773e-06
6.61196e-06
6.31858e-06
6.01776e-06
5.70988e-06
5.39516e-06
5.07403e-06
4.74677e-06
4.41389e-06
4.07572e-06
3.73282e-06
3.38561e-06
3.03468e-06
2.68051e-06
2.32375e-06
1.96493e-06
1.60475e-06
1.24378e-06
8.82765e-07
5.22318e-07
1.63221e-07
-1.93889e-07
-5.48201e-07
-8.99053e-07
-1.24562e-06
-1.58722e-06
-1.92302e-06
-2.25235e-06
-2.57436e-06
-2.88839e-06
-3.19362e-06
-3.48939e-06
-3.7749e-06
-4.04952e-06
-4.3125e-06
-4.56324e-06
-4.80103e-06
-5.02531e-06
-5.23543e-06
-5.43089e-06
-5.61109e-06
-5.77562e-06
-5.92392e-06
-6.05565e-06
-6.17035e-06
-6.26774e-06
-6.34743e-06
-6.40925e-06
-6.45288e-06
-6.47822e-06
-6.48504e-06
-6.47333e-06
-6.44295e-06
-6.39397e-06
-6.32633e-06
-6.24019e-06
-6.13557e-06
-6.01269e-06
-5.87167e-06
-5.71281e-06
-5.53628e-06
-5.34247e-06
-5.1316e-06
-4.90412e-06
-4.66032e-06
-4.4007e-06
-4.12561e-06
-3.83559e-06
-3.53101e-06
-3.21247e-06
-2.88038e-06
-2.53534e-06
-2.17781e-06
-1.8084e-06
-1.42757e-06
-1.03595e-06
-6.34015e-07
-2.22384e-07
1.98475e-07
6.27942e-07
1.06556e-06
1.51074e-06
1.96303e-06
2.42186e-06
2.88682e-06
3.35736e-06
3.8331e-06
4.31353e-06
4.79831e-06
5.28695e-06
5.77917e-06
6.27452e-06
6.77275e-06
7.27348e-06
7.7765e-06
8.28146e-06
8.78821e-06
9.29646e-06
9.80608e-06
1.03168e-05
1.08287e-05
1.13414e-05
1.1855e-05
1.23693e-05
1.28844e-05
1.34001e-05
1.39165e-05
1.44337e-05
1.49516e-05
1.54703e-05
1.59899e-05
1.65106e-05
1.70324e-05
1.75554e-05
1.808e-05
1.86061e-05
1.91341e-05
1.96641e-05
2.01964e-05
2.07312e-05
2.12689e-05
2.18096e-05
2.23536e-05
2.29014e-05
2.34532e-05
2.40093e-05
2.457e-05
2.51362e-05
2.57069e-05
2.62863e-05
2.68638e-05
2.74704e-05
2.80272e-05
2.87292e-05
2.91276e-05
3.01971e-05
2.99662e-05
3.21458e-05
3.02896e-05
3.46788e-05