# vtk DataFile Version 2.0
FlowField
ASCII
DATASET STRUCTURED_GRID
DIMENSIONS 400 1 200
POINTS 80000 float
0 0 0
0.08 0 0
0.16 0 0
0.24 0 0
0.32 0 0
0.4 0 0
0.48 0 0
0.56 0 0
0.64 0 0
0.72 0 0
0.8 0 0
0.88 0 0
0.96 0 0
1.04 0 0
1.12 0 0
1.2 0 0
1.28 0 0
1.36 0 0
1.44 0 0
1.52 0 0
1.6 0 0
1.68 0 0
1.76 0 0
1.84 0 0
1.92 0 0
2 0 0
2.08 0 0
2.16 0 0
2.24 0 0
2.32 0 0
2.4 0 0
2.48 0 0
2.56 0 0
2.64 0 0
2.72 0 0
2.8 0 0
2.88 0 0
2.96 0 0
3.04 0 0
3.12 0 0
3.2 0 0
3.28 0 0
3.36 0 0
3.44 0 0
3.52 0 0
3.6 0 0
3.68 0 0
3.76 0 0
3.84 0 0
3.92 0 0
4 0 0
4.08 0 0
4.16 0 0
4.24 0 0
4.32 0 0
4.4 0 0
4.48 0 0
4.56 0 0
4.64 0 0
4.72 0 0
4.8 0 0
4.88 0 0
4.96 0 0
5.04 0 0
5.12 0 0
5.2 0 0
5.28 0 0
5.36 0 0
5.44 0 0
5.52 0 0
5.6 0 0
5.68 0 0
5.76 0 0
5.84 0 0
5.92 0 0
6 0 0
6.08 0 0
6.16 0 0
6.24 0 0
6.32 0 0
6.4 0 0
6.48 0 0
6.56 0 0
6.64 0 0
6.72 0 0
6.8 0 0
6.88 0 0
6.96 0 0
7.04 0 0
7.12 0 0
7.2 0 0
7.28 0 0
7.36 0 0
7.44 0 0
7.52 0 0
7.6 0 0
7.68 0 0
7.76 0 0
7.84 0 0
7.92 0 0
8 0 0
8.08 0 0
8.16 0 0
8.24 0 0
8.32 0 0
8.4 0 0
8.48 0 0
8.56 0 0
8.64 0 0
8.72 0 0
8.8 0 0
8.88 0 0
8.96 0 0
9.04 0 0
9.12 0 0
9.2 0 0
9.28 0 0
9.36 0 0
9.44 0 0
9.52 0 0
9.6 0 0
9.68 0 0
9.76 0 0
9.84 0 0
9.92 0 0
10 0 0
10.08 0 0
10.16 0 0
10.24 0 0
10.32 0 0
10.4 0 0
10.48 0 0
10.56 0 0
10.64 0 0
10.72 0 0
10.8 0 0
10.88 0 0
10.96 0 0
11.04 0 0
11.12 0 0
11.2 0 0
11.28 0 0
11.36 0 0
11.44 0 0
11.52 0 0
11.6 0 0
11.68 0 0
11.76 0 0
11.84 0 0
11.92 0 0
12 0 0
12.08 0 0
12.16 0 0
12.24 0 0
12.32 0 0
12.4 0 0
12.48 0 0
12.56 0 0
12.64 0 0
12.72 0 0
12.8 0 0
12.88 0 0
12.96 0 0
13.04 0 0
13.12 0 0
13.2 0 0
13.28 0 0
13.36 0 0
13.44 0 0
13.52 0 0
13.6 0 0
13.68 0 0
13.76 0 0
13.84 0 0
13.92 0 0
14 0 0
14.08 0 0
14.16 0 0
14.24 0 0
14.32 0 0
14.4 0 0
14.48 0 0
14.56 0 0
14.64 0 0
14.72 0 0
14.8 0 0
14.88 0 0
14.96 0 0
15.04 0 0
15.12 0 0
15.2 0 0
15.28 0 0
15.36 0 0
15.44 0 0
15.52 0 0
15.6 0 0
15.68 0 0
15.76 0 0
15.84 0 0
15.92 0 0
16 0 0
16.08 0 0
16.16 0 0
16.24 0 0
16.32 0 0
16.4 0 0
16.48 0 0
16.56 0 0
16.64 0 0
16.72 0 0
16.8 0 0
16.88 0 0
16.96 0 0
17.04 0 0
17.12 0 0
17.2 0 0
17.28 0 0
17.36 0 0
17.44 0 0
17.52 0 0
17.6 0 0
17.68 0 0
17.76 0 0
17.84 0 0
17.92 0 0
18 0 0
18.08 0 0
18.16 0 0
18.24 0 0
18.32 0 0
18.4 0 0
18.48 0 0
18.56 0 0
18.64 0 0
18.72 0 0
18.8 0 0
18.88 0 0
18.96 0 0
19.04 0 0
19.12 0 0
19.2 0 0
19.28 0 0
19.36 0 0
19.44 0 0
19.52 0 0
19.6 0 0
19.68 0 0
19.76 0 0
19.84 0 0
19.92 0 0
20 0 0
20.08 0 0
20.16 0 0
20.24 0 0
20.32 0 0
20.4 0 0
20.48 0 0
20.56 0 0
20.64 0 0
20.72 0 0
20.8 0 0
20.88 0 0
20.96 0 0
21.04 0 0
21.12 0 0
21.2 0 0
21.28 0 0
21.36 0 0
21.44 0 0
21.52 0 0
21.6 0 0
21.68 0 0
21.76 0 0
21.84 0 0
21.92 0 0
22 0 0
22.08 0 0
22.16 0 0
22.24 0 0
22.32 0 0
22.4 0 0
22.48 0 0
22.56 0 0
22.64 0 0
22.72 0 0
22.8 0 0
22.88 0 0
22.96 0 0
23.04 0 0
23.12 0 0
23.2 0 0
23.28 0 0
23.36 0 0
23.44 0 0
23.52 0 0
23.6 0 0
23.68 0 0
23.76 0 0
23.84 0 0
23.92 0 0
24 0 0
24.08 0 0
24.16 0 0
24.24 0 0
24.32 0 0
24.4 0 0
24.48 0 0
24.56 0 0
24.64 0 0
24.72 0 0
24.8 0 0
24.88 0 0
24.96 0 0
25.04 0 0
25.12 0 0
25.2 0 0
25.28 0 0
25.36 0 0
25.44 0 0
25.52 0 0
25.6 0 0
25.68 0 0
25.76 0 0
25.84 0 0
25.92 0 0
26 0 0
26.08 0 0
26.16 0 0
26.24 0 0
26.32 0 0
26.4 0 0
26.48 0 0
26.56 0 0
26.64 0 0
26.72 0 0
26.8 0 0
26.88 0 0
26.96 0 0
27.04 0 0
27.12 0 0
27.2 0 0
27.28 0 0
27.36 0 0
27.44 0 0
27.52 0 0
27.6 0 0
27.68 0 0
27.76 0 0
27.84 0 0
27.92 0 0
28 0 0
28.08 0 0
28.16 0 0
28.24 0 0
28.32 0 0
28.4 0 0
28.48 0 0
28.56 0 0
28.64 0 0
28.72 0 0
28.8 0 0
28.88 0 0
28.96 0 0
29.04 0 0
29.12 0 0
29.2 0 0
29.28 0 0
29.36 0 0
29.44 0 0
29.52 0 0
29.6 0 0
29.68 0 0
29.76 0 0
29.84 0 0
29.92 0 0
30 0 0
30.08 0 0
30.16 0 0
30.24 0 0
30.32 0 0
30.4 0 0
30.48 0 0
30.56 0 0
30.64 0 0
30.72 0 0
30.8 0 0
30.88 0 0
30.96 0 0
31.04 0 0
31.12 0 0
31.2 0 0
31.28 0 0
31.36 0 0
31.44 0 0
31.52 0 0
31.6 0 0
31.68 0 0
31.76 0 0
31.84 0 0
31.92 0 0
0 0.005 0
0.08 0.005 0
0.16 0.005 0
0.24 0.005 0
0.32 0.005 0
0.4 0.005 0
0.48 0.005 0
0.56 0.005 0
0.64 0.005 0
0.72 0.005 0
0.8 0.005 0
0.88 0.005 0
0.96 0.005 0
1.04 0.005 0
1.12 0.005 0
1.2 0.005 0
1.28 0.005 0
1.36 0.005 0
1.44 0.005 0
1.52 0.005 0
1.6 0.005 0
1.68 0.005 0
1.76 0.005 0
1.84 0.005 0
1.92 0.005 0
2 0.005 0
2.08 0.005 0
2.16 0.005 0
2.24 0.005 0
2.32 0.005 0
2.4 0.005 0
2.48 0.005 0
2.56 0.005 0
2.64 0.005 0
2.72 0.005 0
2.8 0.005 0
2.88 0.005 0
2.96 0.005 0
3.04 0.005 0
3.12 0.005 0
3.2 0.005 0
3.28 0.005 0
3.36 0.005 0
3.44 0.005 0
3.52 0.005 0
3.6 0.005 0
3.68 0.005 0
3.76 0.005 0
3.84 0.005 0
3.92 0.005 0
4 0.005 0
4.08 0.005 0
4.16 0.005 0
4.24 0.005 0
4.32 0.005 0
4.4 0.005 0
4.48 0.005 0
4.56 0.005 0
4.64 0.005 0
4.72 0.005 0
4.8 0.005 0
4.88 0.005 0
4.96 0.005 0
5.04 0.005 0
5.12 0.005 0
5.2 0.005 0
5.28 0.005 0
5.36 0.005 0
5.44 0.005 0
5.52 0.005 0
5.6 0.005 0
5.68 0.005 0
5.76 0.005 0
5.84 0.005 0
5.92 0.005 0
6 0.005 0
6.08 0.005 0
6.16 0.005 0
6.24 0.005 0
6.32 0.005 0
6.4 0.005 0
6.48 0.005 0
6.56 0.005 0
6.64 0.005 0
6.72 0.005 0
6.8 0.005 0
6.88 0.005 0
6.96 0.005 0
7.04 0.005 0
7.12 0.005 0
7.2 0.005 0
7.28 0.005 0
7.36 0.005 0
7.44 0.005 0
7.52 0.005 0
7.6 0.005 0
7.68 0.005 0
7.76 0.005 0
7.84 0.005 0
7.92 0.005 0
8 0.005 0
8.08 0.005 0
8.16 0.005 0
8.24 0.005 0
8.32 0.005 0
8.4 0.005 0
8.48 0.005 0
8.56 0.005 0
8.64 0.005 0
8.72 0.005 0
8.8 0.005 0
8.88 0.005 0
8.96 0.005 0
9.04 0.005 0
9.12 0.005 0
9.2 0.005 0
9.28 0.005 0
9.36 0.005 0
9.44 0.005 0
9.52 0.005 0
9.6 0.005 0
9.68 0.005 0
9.76 0.005 0
9.84 0.005 0
9.92 0.005 0
10 0.005 0
10.08 0.005 0
10.16 0.005 0
10.24 0.005 0
10.32 0.005 0
10.4 0.005 0
10.48 0.005 0
10.56 0.005 0
10.64 0.005 0
10.72 0.005 0
10.8 0.005 0
10.88 0.005 0
10.96 0.005 0
11.04 0.005 0
11.12 0.005 0
11.2 0.005 0
11.28 0.005 0
11.36 0.005 0
11.44 0.005 0
11.52 0.005 0
11.6 0.005 0
11.68 0.005 0
11.76 0.005 0
11.84 0.005 0
11.92 0.005 0
12 0.005 0
12.08 0.005 0
12.16 0.005 0
12.24 0.005 0
12.32 0.005 0
12.4 0.005 0
12.48 0.005 0
12.56 0.005 0
12.64 0.005 0
12.72 0.005 0
12.8 0.005 0
12.88 0.005 0
12.96 0.005 0
13.04 0.005 0
13.12 0.005 0
13.2 0.005 0
13.28 0.005 0
13.36 0.005 0
13.44 0.005 0
13.52 0.005 0
13.6 0.005 0
13.68 0.005 0
13.76 0.005 0
13.84 0.005 0
13.92 0.005 0
14 0.005 0
14.08 0.005 0
14.16 0.005 0
14.24 0.005 0
14.32 0.005 0
14.4 0.005 0
14.48 0.005 0
14.56 0.005 0
14.64 0.005 0
14.72 0.005 0
14.8 0.005 0
14.88 0.005 0
14.96 0.005 0
15.04 0.005 0
15.12 0.005 0
15.2 0.005 0
15.28 0.005 0
15.36 0.005 0
15.44 0.005 0
15.52 0.005 0
15.6 0.005 0
15.68 0.005 0
15.76 0.005 0
15.84 0.005 0
15.92 0.005 0
16 0.005 0
16.08 0.005 0
16.16 0.005 0
16.24 0.005 0
16.32 0.005 0
16.4 0.005 0
16.48 0.005 0
16.56 0.005 0
16.64 0.005 0
16.72 0.005 0
16.8 0.005 0
16.88 0.005 0
16.96 0.005 0
17.04 0.005 0
17.12 0.005 0
17.2 0.005 0
17.28 0.005 0
17.36 0.005 0
17.44 0.005 0
17.52 0.005 0
17.6 0.005 0
17.68 0.005 0
17.76 0.005 0
17.84 0.005 0
17.92 0.005 0
18 0.005 0
18.08 0.005 0
18.16 0.005 0
18.24 0.005 0
18.32 0.005 0
18.4 0.005 0
18.48 0.005 0
18.56 0.005 0
18.64 0.005 0
18.72 0.005 0
18.8 0.005 0
18.88 0.005 0
18.96 0.005 0
19.04 0.005 0
19.12 0.005 0
19.2 0.005 0
19.28 0.005 0
19.36 0.005 0
19.44 0.005 0
19.52 0.005 0
19.6 0.005 0
19.68 0.005 0
19.76 0.005 0
19.84 0.005 0
19.92 0.005 0
20 0.005 0
20.08 0.005 0
20.16 0.005 0
20.24 0.005 0
20.32 0.005 0
20.4 0.005 0
20.48 0.005 0
20.56 0.005 0
20.64 0.005 0
20.72 0.005 0
20.8 0.005 0
20.88 0.005 0
20.96 0.005 0
21.04 0.005 0
21.12 0.005 0
21.2 0.005 0
21.28 0.005 0
21.36 0.005 0
21.44 0.005 0
21.52 0.005 0
21.6 0.005 0
21.68 0.005 0
21.76 0.005 0
21.84 0.005 0
21.92 0.005 0
22 0.005 0
22.08 0.005 0
22.16 0.005 0
22.24 0.005 0
22.32 0.005 0
22.4 0.005 0
22.48 0.005 0
22.56 0.005 0
22.64 0.005 0
22.72 0.005 0
22.8 0.005 0
22.88 0.005 0
22.96 0.005 0
23.04 0.005 0
23.12 0.005 0
23.2 0.005 0
23.28 0.005 0
23.36 0.005 0
23.44 0.005 0
23.52 0.005 0
23.6 0.005 0
23.68 0.005 0
23.76 0.005 0
23.84 0.005 0
23.92 0.005 0
24 0.005 0
24.08 0.005 0
24.16 0.005 0
24.24 0.005 0
24.32 0.005 0
24.4 0.005 0
24.48 0.005 0
24.56 0.005 0
24.64 0.005 0
24.72 0.005 0
24.8 0.005 0
24.88 0.005 0
24.96 0.005 0
25.04 0.005 0
25.12 0.005 0
25.2 0.005 0
25.28 0.005 0
25.36 0.005 0
25.44 0.005 0
25.52 0.005 0
25.6 0.005 0
25.68 0.005 0
25.76 0.005 0
25.84 0.005 0
25.92 0.005 0
26 0.005 0
26.08 0.005 0
26.16 0.005 0
26.24 0.005 0
26.32 0.005 0
26.4 0.005 0
26.48 0.005 0
26.56 0.005 0
26.64 0.005 0
26.72 0.005 0
26.8 0.005 0
26.88 0.005 0
26.96 0.005 0
27.04 0.005 0
27.12 0.005 0
27.2 0.005 0
27.28 0.005 0
27.36 0.005 0
27.44 0.005 0
27.52 0.005 0
27.6 0.005 0
27.68 0.005 0
27.76 0.005 0
27.84 0.005 0
27.92 0.005 0
28 0.005 0
28.08 0.005 0
28.16 0.005 0
28.24 0.005 0
28.32 0.005 0
28.4 0.005 0
28.48 0.005 0
28.56 0.005 0
28.64 0.005 0
28.72 0.005 0
28.8 0.005 0
28.88 0.005 0
28.96 0.005 0
29.04 0.005 0
29.12 0.005 0
29.2 0.005 0
29.28 0.005 0
29.36 0.005 0
29.44 0.005 0
29.52 0.005 0
29.6 0.005 0
29.68 0.005 0
29.76 0.005 0
29.84 0.005 0
29.92 0.005 0
30 0.005 0
30.08 0.005 0
30.16 0.005 0
30.24 0.005 0
30.32 0.005 0
30.4 0.005 0
30.48 0.005 0
30.56 0.005 0
30.64 0.005 0
30.72 0.005 0
30.8 0.005 0
30.88 0.005 0
30.96 0.005 0
31.04 0.005 0
31.12 0.005 0
31.2 0.005 0
31.28 0.005 0
31.36 0.005 0
31.44 0.005 0
31.52 0.005 0
31.6 0.005 0
31.68 0.005 0
31.76 0.005 0
31.84 0.005 0
31.92 0.005 0
0 0.01 0
0.08 0.01 0
0.16 0.01 0
0.24 0.01 0
0.32 0.01 0
0.4 0.01 0
0.48 0.01 0
0.56 0.01 0
0.64 0.01 0
0.72 0.01 0
0.8 0.01 0
0.88 0.01 0
0.96 0.01 0
1.04 0.01 0
1.12 0.01 0
1.2 0.01 0
1.28 0.01 0
1.36 0.01 0
1.44 0.01 0
1.52 0.01 0
1.6 0.01 0
1.68 0.01 0
1.76 0.01 0
1.84 0.01 0
1.92 0.01 0
2 0.01 0
2.08 0.01 0
2.16 0.01 0
2.24 0.01 0
2.32 0.01 0
2.4 0.01 0
2.48 0.01 0
2.56 0.01 0
2.64 0.01 0
2.72 0.01 0
2.8 0.01 0
2.88 0.01 0
2.96 0.01 0
3.04 0.01 0
3.12 0.01 0
3.2 0.01 0
3.28 0.01 0
3.36 0.01 0
3.44 0.01 0
3.52 0.01 0
3.6 0.01 0
3.68 0.01 0
3.76 0.01 0
3.84 0.01 0
3.92 0.01 0
4 0.01 0
4.08 0.01 0
4.16 0.01 0
4.24 0.01 0
4.32 0.01 0
4.4 0.01 0
4.48 0.01 0
4.56 0.01 0
4.64 0.01 0
4.72 0.01 0
4.8 0.01 0
4.88 0.01 0
4.96 0.01 0
5.04 0.01 0
5.12 0.01 0
[...]
POINT_DATA 80000

SCALARS v float 1
LOOKUP_TABLE default
0
0
0
0
0
0
0
0
0
0
0
0
0
0
0
0
0
0
0
0
0
0
0
0
0
0
0
0
0
0
0
0
0
0
0
0
0
0
0
0
0
0
0
0
0
0
0
0
0
0
0
0
0
0
0
0
0
0
0
0
0
0
0
0
0
0
0
0
0
0
0
0
0
0
0
0
0
0
0
0
0
0
0
0
0
0
0
0
0
0
0
0
0
0
0
0
0
0
0
0
0
0
0
0
0
0
0
0
0
0
0
0
0
0
0
0
0
0
0
0
0
0
0
0
0
0
0
0
0
0
0
0
0
0
0
0
0
0
0
0
0
0
0
0
0
0
0
0
0
0
0
0
0
0
0
0
0
0
0
0
0
0
0
0
0
0
0
0
0
0
0
0
0
0
0
0
0
0
0
0
0
0
0
0
0
0
0
0
0
0
0
0
0
0
0
0
0
0
0
0
0
0
0
0
0
0
0
0
0
0
0
0
0
0
0
0
0
0
0
0
0
0
0
0
0
0
0
0
0
0
0
0
0
0
0
0
0
0
0
0
0
0
0
0
0
0
0
0
0
0
0
0
0
0
0
0
0
0
0
0
0
0
0
0
0
0
0
0
0
0
0
0
0
0
0
0
0
0
0
0
0
0
0
0
0
0
0
0
0
0
0
0
0
0
0
0
0
0
0
0
0
0
0
0
0
0
0
0
0
0
0
0
0
0
0
0
0
0
0
0
0
0
0
0
0
0
0
0
0
0
0
0
0
0
0
0
0
0
0
0
0
0
0
0
0
0
0
0
0
0
0
0
0
0
0
0
0
0
0
0
0
0
0
0
0
0
0
0
0
0
0
0
0
0
0
0
0
0
0
0
0
0
0
0
0
0
0
0
0
0
0
0
0
0
0
0
0
0
0
0
-0.0542719
0.0542719
0.00396293
0.000999172
0.000493108
0.000303547
0.000208172
0.000152543
0.000117099
9.31373e-05
7.62182e-05
6.38531e-05
5.45469e-05
4.73537e-05
4.16576e-05
3.70557e-05
3.32801e-05
3.01354e-05
2.74609e-05
2.51278e-05
2.30567e-05
2.12195e-05
1.961e-05
1.81996e-05
1.69192e-05
1.56823e-05
1.44284e-05
1.31498e-05
1.18808e-05
1.06603e-05
9.50187e-06
8.39293e-06
7.31932e-06
6.29322e-06
5.3611e-06
4.58573e-06
4.01411e-06
3.65158e-06
3.45618e-06
3.35449e-06
3.26824e-06
3.13828e-06
2.93694e-06
2.66728e-06
2.35352e-06
2.02854e-06
1.72316e-06
1.4595e-06
1.24871e-06
1.09202e-06
9.83587e-07
9.13861e-07
8.72411e-07
8.49851e-07
8.38791e-07
8.34023e-07
8.32256e-07
8.31633e-07
8.31257e-07
8.30792e-07
8.30184e-07
8.29493e-07
8.28799e-07
8.28167e-07
8.27638e-07
8.27227e-07
8.26936e-07
8.26758e-07
8.26683e-07
8.267e-07
8.26799e-07
8.26973e-07
8.27216e-07
8.27525e-07
8.27897e-07
8.2833e-07
8.28824e-07
8.29379e-07
8.29993e-07
8.30669e-07
8.31405e-07
8.32202e-07
8.33062e-07
8.33985e-07
8.34972e-07
8.36024e-07
8.37141e-07
8.38324e-07
8.39575e-07
8.40895e-07
8.42284e-07
8.43743e-07
8.45274e-07
8.46878e-07
8.48555e-07
8.50306e-07
8.52132e-07
8.54034e-07
8.56014e-07
8.58071e-07
8.60207e-07
8.62421e-07
8.64716e-07
8.67091e-07
8.69547e-07
8.72084e-07
8.74703e-07
8.77404e-07
8.80187e-07
8.83053e-07
8.86e-07
8.89031e-07
8.92143e-07
8.95337e-07
8.98613e-07
9.0197e-07
9.05407e-07
9.08924e-07
9.1252e-07
9.16193e-07
9.19944e-07
9.23771e-07
9.27671e-07
9.31645e-07
9.35689e-07
9.39803e-07
9.43984e-07
9.48231e-07
9.52541e-07
9.56911e-07
9.61339e-07
9.65823e-07
9.70358e-07
9.74943e-07
9.79574e-07
9.84248e-07
9.88961e-07
9.93708e-07
9.98487e-07
1.00329e-06
1.00812e-06
1.01297e-06
1.01783e-06
1.0227e-06
1.02757e-06
1.03245e-06
1.03731e-06
1.04216e-06
1.047e-06
1.05181e-06
1.0566e-06
1.06135e-06
1.06605e-06
1.07071e-06
1.07532e-06
1.07986e-06
1.08434e-06
1.08875e-06
1.09307e-06
1.09731e-06
1.10145e-06
1.10549e-06
1.10942e-06
1.11324e-06
1.11693e-06
1.12049e-06
1.12392e-06
1.1272e-06
1.13034e-06
1.13331e-06
1.13612e-06
1.13875e-06
1.14121e-06
1.14348e-06
1.14556e-06
1.14744e-06
1.14911e-06
1.15057e-06
1.15181e-06
1.15283e-06
1.15362e-06
1.15417e-06
1.15448e-06
1.15454e-06
1.15435e-06
1.1539e-06
1.15319e-06
1.15222e-06
1.15097e-06
1.14945e-06
1.14766e-06
1.14558e-06
1.14321e-06
1.14056e-06
1.13762e-06
1.13439e-06
1.13087e-06
1.12705e-06
1.12294e-06
1.11853e-06
1.11383e-06
1.10882e-06
1.10353e-06
1.09793e-06
1.09204e-06
1.08586e-06
1.07939e-06
1.07263e-06
1.06558e-06
1.05824e-06
1.05063e-06
1.04274e-06
1.03457e-06
1.02614e-06
1.01744e-06
1.00848e-06
9.9926e-07
9.89794e-07
9.80084e-07
9.70135e-07
9.59955e-07
9.49549e-07
9.38924e-07
9.28087e-07
9.17046e-07
9.05807e-07
8.94378e-07
8.82768e-07
8.70983e-07
8.59033e-07
8.46925e-07
8.34667e-07
8.2227e-07
8.0974e-07
7.97086e-07
7.84318e-07
7.71444e-07
7.58473e-07
7.45414e-07
7.32276e-07
7.19068e-07
7.05798e-07
6.92475e-07
6.79109e-07
6.65708e-07
6.52281e-07
6.38836e-07
6.25381e-07
6.11926e-07
5.98478e-07
5.85046e-07
5.71637e-07
5.5826e-07
5.44921e-07
5.31629e-07
5.18391e-07
5.05214e-07
4.92104e-07
4.79069e-07
4.66115e-07
4.53248e-07
4.40475e-07
4.278e-07
4.1523e-07
4.0277e-07
3.90425e-07
3.78199e-07
3.66098e-07
3.54126e-07
3.42287e-07
3.30584e-07
3.19021e-07
3.07602e-07
2.96329e-07
2.85206e-07
2.74235e-07
2.63418e-07
2.52757e-07
2.42254e-07
2.31911e-07
2.2173e-07
2.1171e-07
2.01854e-07
1.92161e-07
1.82633e-07
1.73269e-07
1.6407e-07
1.55036e-07
1.46165e-07
1.37459e-07
1.28915e-07
1.20534e-07
1.12314e-07
1.04254e-07
9.63532e-08
8.86093e-08
8.10212e-08
7.35871e-08
6.63052e-08
5.91736e-08
5.21901e-08
4.53528e-08
3.86593e-08
3.21073e-08
2.56945e-08
1.94184e-08
1.32764e-08
7.26597e-09
1.38446e-09
-4.37073e-09
-1.00024e-08
-1.55133e-08
-2.09062e-08
-2.61838e-08
-3.1349e-08
-3.64046e-08
-4.13535e-08
-4.61984e-08
-5.09423e-08
-5.55878e-08
-6.01379e-08
-6.45953e-08
-6.89628e-08
-7.32431e-08
-7.7439e-08
-8.15531e-08
-8.55882e-08
-8.95467e-08
-9.34315e-08
-9.72449e-08
-1.0099e-07
-1.04668e-07
-1.08282e-07
-1.11835e-07
-1.15329e-07
-1.18766e-07
-1.22148e-07
-1.25477e-07
-1.28756e-07
-1.31987e-07
-1.35172e-07
-1.38312e-07
-1.4141e-07
-1.44467e-07
-1.47486e-07
-1.50467e-07
-1.53413e-07
-1.56326e-07
-1.59207e-07
-1.62057e-07
-1.64878e-07
-1.67672e-07
-1.70439e-07
-1.73182e-07
-1.759e-07
-1.786e-07
-1.81271e-07
-1.83936e-07
-1.86556e-07
-1.89209e-07
-1.91752e-07
-1.94444e-07
-1.96841e-07
-1.99685e-07
-2.01784e-07
-2.04994e-07
-2.06532e-07
-2.10426e-07
-2.11059e-07
-2.15992e-07
-2.15404e-07
-2.21623e-07
-2.19678e-07
-2.27199e-07
-2.24017e-07
-2.326e-07
-2.28539e-07
-2.37734e-07
-2.33313e-07
-2.42592e-07
-2.38282e-07
-2.47349e-07
-2.43183e-07
-2.52363e-07
-2.4767e-07
-2.57976e-07
-2.51624e-07
-2.64102e-07
-2.5575e-07
-2.69747e-07
-2.61735e-07
-2.73627e-07
-2.71874e-07
-2.71891e-07
-2.96411e-07
-2.38541e-07
-3.65474e-07
4.61803e-08
-2.82461e-07
-2.82461e-07
-0.0952168
0.0952168
0.0129766
0.00385565
0.00193536
0.00119726
0.000822806
0.000603378
0.000463119
0.000368071
0.000300838
0.000251633
0.000214561
0.000185888
0.000163181
0.00014484
0.000129791
0.000117248
0.000106572
9.72647e-05
8.90187e-05
8.17153e-05
7.5305e-05
6.96545e-05
6.44906e-05
5.94913e-05
5.44418e-05
4.93211e-05
4.4253e-05
3.93743e-05
3.47343e-05
3.02989e-05
2.60409e-05
2.20303e-05
1.84499e-05
1.55209e-05
1.33881e-05
1.20353e-05
1.12779e-05
1.083e-05
1.04043e-05
9.79579e-06
8.92016e-06
7.80475e-06
6.54948e-06
5.27979e-06
4.10806e-06
3.11123e-06
2.32441e-06
1.74634e-06
1.35089e-06
1.09965e-06
9.52353e-07
8.73601e-07
8.35991e-07
8.20511e-07
8.15298e-07
8.13786e-07
8.12871e-07
8.11441e-07
8.09372e-07
8.06914e-07
8.04375e-07
8.01991e-07
7.99901e-07
7.98159e-07
7.96761e-07
7.95677e-07
7.94862e-07
7.94274e-07
7.93875e-07
7.93634e-07
7.93527e-07
7.93538e-07
7.93655e-07
7.93868e-07
7.94172e-07
7.94562e-07
7.95035e-07
7.9559e-07
7.96225e-07
7.9694e-07
7.97733e-07
7.98606e-07
7.99556e-07
8.00586e-07
8.01695e-07
8.02884e-07
8.04154e-07
8.05505e-07
8.06938e-07
8.08455e-07
8.10055e-07
8.1174e-07
8.13511e-07
8.15369e-07
8.17314e-07
8.19348e-07
8.21472e-07
8.23685e-07
8.25989e-07
8.28384e-07
8.30871e-07
8.3345e-07
8.36122e-07
8.38886e-07
8.41743e-07
8.44693e-07
8.47736e-07
8.50871e-07
8.54099e-07
8.57418e-07
8.60828e-07
8.64329e-07
8.67919e-07
8.71598e-07
8.75365e-07
8.79218e-07
8.83155e-07
8.87176e-07
8.91278e-07
8.95461e-07
8.9972e-07
9.04055e-07
9.08463e-07
9.12941e-07
9.17487e-07
9.22098e-07
9.2677e-07
9.315e-07
9.36285e-07
9.41121e-07
9.46005e-07
9.50931e-07
9.55896e-07
9.60896e-07
9.65925e-07
9.70979e-07
9.76053e-07
9.81141e-07
9.86238e-07
9.91339e-07
9.96437e-07
1.00153e-06
1.0066e-06
1.01166e-06
1.01668e-06
1.02168e-06
1.02663e-06
1.03153e-06
1.03638e-06
1.04117e-06
1.04588e-06
1.05052e-06
1.05507e-06
1.05953e-06
1.06389e-06
1.06815e-06
1.07228e-06
1.07629e-06
1.08017e-06
1.0839e-06
1.08749e-06
1.09092e-06
1.09418e-06
1.09727e-06
1.10017e-06
1.10289e-06
1.10541e-06
1.10772e-06
1.10981e-06
1.11169e-06
1.11333e-06
1.11473e-06
1.11589e-06
1.1168e-06
1.11744e-06
1.11782e-06
1.11793e-06
1.11775e-06
1.11729e-06
1.11653e-06
1.11548e-06
1.11412e-06
1.11245e-06
1.11046e-06
1.10816e-06
1.10553e-06
1.10257e-06
1.09928e-06
1.09565e-06
1.09168e-06
1.08738e-06
1.08272e-06
1.07773e-06
1.07238e-06
1.06669e-06
1.06064e-06
1.05425e-06
1.0475e-06
1.04041e-06
1.03296e-06
1.02517e-06
1.01703e-06
1.00855e-06
9.99724e-07
9.9056e-07
9.8106e-07
9.71229e-07
9.61069e-07
9.50586e-07
9.39784e-07
9.28669e-07
9.17245e-07
9.05519e-07
8.93498e-07
8.81187e-07
8.68594e-07
8.55726e-07
8.42591e-07
8.29196e-07
8.15549e-07
8.0166e-07
7.87536e-07
7.73187e-07
7.58622e-07
7.4385e-07
7.2888e-07
7.13723e-07
6.98388e-07
6.82885e-07
6.67224e-07
6.51416e-07
6.35471e-07
6.19399e-07
6.03211e-07
5.86917e-07
5.70527e-07
5.54053e-07
5.37505e-07
5.20893e-07
5.04227e-07
4.87519e-07
4.70778e-07
4.54014e-07
4.37237e-07
4.20459e-07
4.03687e-07
3.86933e-07
3.70205e-07
3.53512e-07
3.36865e-07
3.20271e-07
3.03741e-07
2.87281e-07
2.709e-07
2.54607e-07
2.38409e-07
2.22314e-07
2.06329e-07
1.9046e-07
1.74715e-07
1.591e-07
1.43621e-07
1.28284e-07
1.13095e-07
9.80586e-08
8.31799e-08
6.84635e-08
5.39139e-08
3.95351e-08
2.53309e-08
1.13047e-08
-2.54022e-09
-1.62012e-08
-2.96753e-08
-4.29605e-08
-5.60547e-08
-6.89562e-08
-8.16633e-08
-9.41752e-08
-1.06491e-07
-1.18609e-07
-1.3053e-07
-1.42253e-07
-1.53779e-07
-1.65107e-07
-1.76238e-07
-1.87173e-07
-1.97913e-07
-2.08459e-07
-2.18811e-07
-2.28973e-07
-2.38944e-07
-2.48728e-07
-2.58325e-07
-2.67739e-07
-2.76971e-07
-2.86024e-07
-2.949e-07
-3.03602e-07
-3.12132e-07
-3.20494e-07
-3.2869e-07
-3.36723e-07
-3.44597e-07
-3.52314e-07
-3.59878e-07
-3.67292e-07
-3.74558e-07
-3.81682e-07
-3.88664e-07
-3.95511e-07
-4.02223e-07
-4.08806e-07
-4.15261e-07
-4.21594e-07
-4.27806e-07
-4.33902e-07
-4.39885e-07
-4.45758e-07
-4.51524e-07
-4.57187e-07
-4.62751e-07
-4.68217e-07
-4.7359e-07
-4.78872e-07
-4.84068e-07
-4.89179e-07
-4.94208e-07
-4.99159e-07
-5.04035e-07
-5.08839e-07
-5.13572e-07
-5.18239e-07
-5.22841e-07
-5.27381e-07
-5.31862e-07
-5.36286e-07
-5.40656e-07
-5.44974e-07
-5.49242e-07
-5.53463e-07
-5.57638e-07
-5.61771e-07
-5.65862e-07
-5.69914e-07
-5.73928e-07
-5.77907e-07
-5.81853e-07
-5.85767e-07
-5.89651e-07
-5.93505e-07
-5.97335e-07
-6.01133e-07
-6.0492e-07
-6.08659e-07
-6.12427e-07
-6.16078e-07
-6.19893e-07
-6.23356e-07
-6.27395e-07
-6.30406e-07
-6.35075e-07
-6.37065e-07
-6.43143e-07
-6.43126e-07
-6.51801e-07
-6.48469e-07
-6.61076e-07
-6.53218e-07
-6.70707e-07
-6.57777e-07
-6.80222e-07
-6.62648e-07
-6.89154e-07
-6.68262e-07
-6.97152e-07
-6.7488e-07
-7.04151e-07
-6.82306e-07
-7.10762e-07
-6.8957e-07
-7.18336e-07
-6.95311e-07
-7.28217e-07
-6.99033e-07
-7.40118e-07
-7.03352e-07
-7.50345e-07
-7.1459e-07
-7.54157e-07
-7.41124e-07
-7.37986e-07
-8.19949e-07
-6.06737e-07
-1.05954e-06
4.28573e-07
-7.49789e-07
-7.49789e-07
-0.125294
0.125294
0.0249369
0.00835918
0.00427921
0.00266275
0.00183498
0.00134759
0.0010351
0.000822867
0.0006725
0.000562318
0.000479228
0.000414926
0.000363995
0.000322863
0.00028911
0.000260962
0.000236994
0.000216109
0.000197633
0.000181284
0.000166912
0.000154191
0.000142515
0.000131204
0.000119813
0.000108305
9.69347e-05
8.59803e-05
7.55488e-05
6.55946e-05
5.61029e-05
4.72601e-05
3.9465e-05
3.31624e-05
2.86076e-05
2.57078e-05
2.40275e-05
2.29423e-05
2.1851e-05
2.03439e-05
1.8272e-05
1.5718e-05
1.29086e-05
1.01138e-05
7.56768e-06
5.42444e-06
3.74822e-06
2.52699e-06
1.6983e-06
1.17617e-06
8.72843e-07
7.12454e-07
6.36993e-07
6.06641e-07
5.96827e-07
5.94116e-07
5.92273e-07
5.89161e-07
5.84625e-07
5.79244e-07
5.73683e-07
5.6844e-07
5.63797e-07
5.59858e-07
5.5661e-07
5.5398e-07
5.5187e-07
5.50188e-07
5.4885e-07
5.4779e-07
5.46957e-07
5.46314e-07
5.45831e-07
5.45491e-07
5.45277e-07
5.4518e-07
5.45192e-07
5.45307e-07
5.45521e-07
5.45831e-07
5.46233e-07
5.46726e-07
5.47309e-07
5.4798e-07
5.4874e-07
5.49587e-07
5.50522e-07
5.51545e-07
5.52656e-07
5.53857e-07
5.55148e-07
5.56529e-07
5.58001e-07
5.59565e-07
5.61222e-07
5.62972e-07
5.64817e-07
5.66756e-07
5.6879e-07
5.7092e-07
5.73146e-07
5.75467e-07
5.77884e-07
5.80398e-07
5.83007e-07
5.85711e-07
5.8851e-07
5.91403e-07
5.94389e-07
5.97468e-07
6.00638e-07
6.03898e-07
6.07247e-07
6.10683e-07
6.14205e-07
6.1781e-07
6.21497e-07
6.25263e-07
6.29106e-07
6.33024e-07
6.37013e-07
6.41072e-07
6.45195e-07
6.49382e-07
6.53627e-07
6.57927e-07
6.62279e-07
6.66678e-07
6.7112e-07
6.75601e-07
6.80115e-07
6.84658e-07
6.89225e-07
6.93811e-07
6.98409e-07
7.03015e-07
7.07622e-07
7.12225e-07
7.16816e-07
7.2139e-07
7.2594e-07
7.30459e-07
7.3494e-07
7.39375e-07
7.43758e-07
7.48081e-07
7.52335e-07
7.56515e-07
7.6061e-07
7.64613e-07
7.68517e-07
7.72312e-07
7.7599e-07
7.79544e-07
7.82963e-07
7.86239e-07
7.89365e-07
7.9233e-07
7.95126e-07
7.97745e-07
8.00176e-07
8.02413e-07
8.04446e-07
8.06265e-07
8.07863e-07
8.09231e-07
8.1036e-07
8.11242e-07
8.11868e-07
8.1223e-07
8.1232e-07
8.12131e-07
8.11655e-07
8.10883e-07
8.09809e-07
8.08426e-07
8.06726e-07
8.04704e-07
8.02352e-07
7.99665e-07
7.96636e-07
7.93262e-07
7.89535e-07
7.85452e-07
7.81008e-07
7.76199e-07
7.71021e-07
7.65471e-07
7.59546e-07
7.53243e-07
7.4656e-07
7.39495e-07
7.32047e-07
7.24216e-07
7.16e-07
7.07399e-07
6.98414e-07
6.89047e-07
6.79297e-07
6.69166e-07
6.58658e-07
6.47774e-07
6.36518e-07
6.24892e-07
6.12902e-07
6.00551e-07
5.87843e-07
5.74785e-07
5.61382e-07
5.47639e-07
5.33564e-07
5.19163e-07
5.04442e-07
4.8941e-07
4.74075e-07
4.58445e-07
4.42527e-07
4.26332e-07
4.09868e-07
3.93144e-07
3.76171e-07
3.58958e-07
3.41515e-07
3.23853e-07
3.05982e-07
2.87913e-07
2.69657e-07
2.51225e-07
2.32629e-07
2.13879e-07
1.94986e-07
1.75963e-07
1.56821e-07
1.37571e-07
1.18225e-07
9.87951e-08
7.92915e-08
5.97266e-08
4.01112e-08
2.04573e-08
7.75573e-10
-1.89223e-08
-3.86259e-08
-5.83237e-08
-7.80057e-08
-9.76607e-08
-1.17279e-07
-1.3685e-07
-1.56364e-07
-1.7581e-07
-1.95181e-07
-2.14466e-07
-2.33657e-07
-2.52744e-07
-2.71719e-07
-2.90575e-07
-3.09303e-07
-3.27896e-07
-3.46347e-07
-3.64648e-07
-3.82793e-07
-4.00776e-07
-4.1859e-07
-4.36231e-07
-4.53692e-07
-4.70969e-07
-4.88058e-07
-5.04953e-07
-5.21651e-07
-5.38147e-07
-5.5444e-07
-5.70525e-07
-5.864e-07
-6.02063e-07
-6.17511e-07
-6.32743e-07
-6.47757e-07
-6.62551e-07
-6.77126e-07
-6.9148e-07
-7.05613e-07
-7.19524e-07
-7.33215e-07
-7.46685e-07
-7.59935e-07
-7.72966e-07
-7.85779e-07
-7.98375e-07
-8.10756e-07
-8.22924e-07
-8.3488e-07
-8.46626e-07
-8.58166e-07
-8.695e-07
-8.80632e-07
-8.91564e-07
-9.023e-07
-9.12842e-07
-9.23193e-07
-9.33357e-07
-9.43336e-07
-9.53134e-07
-9.62755e-07
-9.72202e-07
-9.81478e-07
-9.90588e-07
-9.99534e-07
-1.00832e-06
-1.01695e-06
-1.02543e-06
-1.03376e-06
-1.04195e-06
-1.05e-06
-1.0579e-06
-1.06568e-06
-1.07333e-06
-1.08085e-06
-1.08825e-06
-1.09553e-06
-1.1027e-06
-1.10976e-06
-1.11671e-06
-1.12355e-06
-1.1303e-06
-1.13695e-06
-1.14351e-06
-1.14997e-06
-1.15635e-06
-1.16265e-06
-1.16887e-06
-1.17501e-06
-1.18108e-06
-1.18707e-06
-1.193e-06
-1.19886e-06
-1.20466e-06
-1.2104e-06
-1.21609e-06
-1.22172e-06
-1.2273e-06
-1.23282e-06
-1.2383e-06
-1.24374e-06
-1.24913e-06
-1.25449e-06
-1.2598e-06
-1.26508e-06
-1.27033e-06
-1.27554e-06
-1.28072e-06
-1.28587e-06
-1.291e-06
-1.2961e-06
-1.30119e-06
-1.30621e-06
-1.31131e-06
-1.31619e-06
-1.32144e-06
-1.32597e-06
-1.33172e-06
-1.33534e-06
-1.34245e-06
-1.34395e-06
-1.35408e-06
-1.35134e-06
-1.36702e-06
-1.35724e-06
-1.38135e-06
-1.36191e-06
-1.3965e-06
-1.36619e-06
-1.41146e-06
-1.37117e-06
-1.4252e-06
-1.37775e-06
-1.43698e-06
-1.38651e-06
-1.44663e-06
-1.39707e-06
-1.4554e-06
-1.40736e-06
-1.46623e-06
-1.41439e-06
-1.48207e-06
-1.41703e-06
-1.50236e-06
-1.42087e-06
-1.51923e-06
-1.43942e-06
-1.52273e-06
-1.49024e-06
-1.48511e-06
-1.65045e-06
-1.20692e-06
-2.14549e-06
9.32479e-07
-1.49442e-06
-1.49442e-06
-0.146489
0.146489
0.0383116
0.0142353
0.00745735
0.00467411
0.00323193
0.0023779
0.0018284
0.0014543
0.00118878
0.000993954
0.000846891
0.000733008
0.000642786
0.000569923
0.000510124
0.000460229
0.000417729
0.000380717
0.000348017
0.000319097
0.000293636
0.000271019
0.000250195
0.000230015
0.00020975
0.000189339
0.000169197
0.000149774
0.00013126
0.000113626
9.69144e-05
8.14958e-05
6.80526e-05
5.72902e-05
4.95559e-05
4.46038e-05
4.16359e-05
3.95773e-05
3.74307e-05
3.45459e-05
3.07176e-05
2.61218e-05
2.11613e-05
1.62957e-05
1.19119e-05
8.25555e-06
5.41863e-06
3.36682e-06
1.98426e-06
1.11939e-06
6.209e-07
3.5976e-07
2.384e-07
1.90463e-07
1.7539e-07
1.71256e-07
1.68055e-07
1.62492e-07
1.54472e-07
1.45036e-07
1.3532e-07
1.2616e-07
1.18015e-07
1.11047e-07
1.05224e-07
1.00415e-07
9.64519e-08
9.31743e-08
9.04399e-08
8.81363e-08
8.61753e-08
8.44929e-08
8.30403e-08
8.17836e-08
8.06963e-08
7.97605e-08
7.89607e-08
7.8287e-08
7.77298e-08
7.72831e-08
7.69405e-08
7.66987e-08
7.65532e-08
7.65024e-08
7.65433e-08
7.66756e-08
7.68973e-08
7.72091e-08
7.76097e-08
7.81002e-08
7.86801e-08
7.93507e-08
8.01117e-08
8.09645e-08
8.19088e-08
8.29461e-08
8.40759e-08
8.52995e-08
8.66163e-08
8.80274e-08
8.95318e-08
9.11303e-08
9.28218e-08
9.46069e-08
9.64838e-08
9.8453e-08
1.00513e-07
1.02662e-07
1.049e-07
1.07226e-07
1.09636e-07
1.12131e-07
1.14708e-07
1.17365e-07
1.20099e-07
1.2291e-07
1.25792e-07
1.28745e-07
1.31765e-07
1.3485e-07
1.37994e-07
1.41197e-07
1.44452e-07
1.47758e-07
1.51109e-07
1.54502e-07
1.57931e-07
1.61394e-07
1.64883e-07
1.68395e-07
1.71923e-07
1.75464e-07
1.7901e-07
1.82557e-07
1.86097e-07
1.89625e-07
1.93134e-07
1.96619e-07
2.0007e-07
2.03483e-07
2.06849e-07
2.10161e-07
2.13412e-07
2.16594e-07
2.19699e-07
2.22719e-07
2.25645e-07
2.28471e-07
2.31186e-07
2.33783e-07
2.36253e-07
2.38588e-07
2.40777e-07
2.42814e-07
2.44688e-07
2.46391e-07
2.47913e-07
2.49247e-07
2.50381e-07
2.51309e-07
2.5202e-07
2.52505e-07
2.52756e-07
2.52765e-07
2.52521e-07
2.52016e-07
2.51242e-07
2.50191e-07
2.48853e-07
2.47222e-07
2.45288e-07
2.43044e-07
2.40483e-07
2.37597e-07
2.34379e-07
2.30822e-07
2.2692e-07
2.22666e-07
2.18054e-07
2.13079e-07
2.07734e-07
2.02017e-07
1.9592e-07
1.8944e-07
1.82574e-07
1.75317e-07
1.67666e-07
1.59618e-07
1.51172e-07
1.42325e-07
1.33075e-07
1.23423e-07
1.13365e-07
1.02904e-07
9.20387e-08
8.07702e-08
6.9099e-08
5.70277e-08
4.45573e-08
3.16915e-08
1.84322e-08
4.78388e-09
-9.25062e-09
-2.36659e-08
-3.84583e-08
-5.36214e-08
-6.91507e-08
-8.5039e-08
-1.01281e-07
-1.17868e-07
-1.34795e-07
-1.52053e-07
-1.69634e-07
-1.8753e-07
-2.05732e-07
-2.24231e-07
-2.43017e-07
-2.62081e-07
-2.81413e-07
-3.01002e-07
-3.20839e-07
-3.40911e-07
-3.61209e-07
-3.81721e-07
-4.02436e-07
-4.23341e-07
-4.44427e-07
-4.6568e-07
-4.87089e-07
-5.08641e-07
-5.30326e-07
-5.5213e-07
-5.74041e-07
-5.96048e-07
-6.18138e-07
-6.40299e-07
-6.62519e-07
-6.84785e-07
-7.07088e-07
-7.29413e-07
-7.5175e-07
-7.74086e-07
-7.96412e-07
-8.18714e-07
-8.40983e-07
-8.63207e-07
-8.85376e-07
-9.07479e-07
-9.29507e-07
-9.51448e-07
-9.73294e-07
-9.95035e-07
-1.01666e-06
-1.03817e-06
-1.05954e-06
-1.08077e-06
-1.10186e-06
-1.12279e-06
-1.14355e-06
-1.16415e-06
-1.18458e-06
-1.20482e-06
-1.22487e-06
-1.24473e-06
-1.26439e-06
-1.28384e-06
-1.30309e-06
-1.32212e-06
-1.34094e-06
-1.35954e-06
-1.37792e-06
-1.39607e-06
-1.41399e-06
-1.43168e-06
-1.44914e-06
-1.46636e-06
-1.48335e-06
-1.50011e-06
-1.51662e-06
-1.5329e-06
-1.54895e-06
-1.56475e-06
-1.58032e-06
-1.59565e-06
-1.61075e-06
-1.62562e-06
-1.64025e-06
-1.65465e-06
-1.66883e-06
-1.68277e-06
-1.6965e-06
-1.71e-06
-1.72328e-06
-1.73634e-06
-1.74919e-06
-1.76183e-06
-1.77427e-06
-1.7865e-06
-1.79852e-06
-1.81035e-06
-1.82199e-06
-1.83344e-06
-1.8447e-06
-1.85578e-06
-1.86668e-06
-1.8774e-06
-1.88796e-06
-1.89834e-06
-1.90857e-06
-1.91863e-06
-1.92855e-06
-1.93831e-06
-1.94792e-06
-1.9574e-06
-1.96673e-06
-1.97593e-06
-1.98501e-06
-1.99395e-06
-2.00277e-06
-2.01148e-06
-2.02007e-06
-2.02855e-06
-2.03692e-06
-2.04519e-06
-2.05336e-06
-2.06144e-06
-2.06942e-06
-2.07732e-06
-2.08512e-06
-2.09285e-06
-2.1005e-06
-2.10808e-06
-2.11558e-06
-2.12301e-06
-2.13038e-06
-2.13768e-06
-2.14492e-06
-2.15211e-06
-2.15924e-06
-2.16632e-06
-2.17335e-06
-2.18033e-06
-2.18727e-06
-2.19417e-06
-2.20103e-06
-2.20785e-06
-2.21463e-06
-2.22138e-06
-2.2281e-06
-2.23479e-06
-2.24145e-06
-2.24809e-06
-2.25469e-06
-2.26131e-06
-2.26782e-06
-2.27449e-06
-2.2808e-06
-2.28773e-06
-2.29348e-06
-2.30129e-06
-2.30554e-06
-2.31565e-06
-2.31635e-06
-2.33157e-06
-2.32514e-06
-2.34978e-06
-2.33142e-06