# vtk DataFile Version 2.0
FlowField
ASCII
DATASET STRUCTURED_GRID
DIMENSIONS 400 1 200
POINTS 80000 float
0 0 0
0.08 0 0
0.16 0 0
0.24 0 0
0.32 0 0
0.4 0 0
0.48 0 0
0.56 0 0
0.64 0 0
0.72 0 0
0.8 0 0
0.88 0 0
0.96 0 0
1.04 0 0
1.12 0 0
1.2 0 0
1.28 0 0
1.36 0 0
1.44 0 0
1.52 0 0
1.6 0 0
1.68 0 0
1.76 0 0
1.84 0 0
1.92 0 0
2 0 0
2.08 0 0
2.16 0 0
2.24 0 0
2.32 0 0
2.4 0 0
2.48 0 0
2.56 0 0
2.64 0 0
2.72 0 0
2.8 0 0
2.88 0 0
2.96 0 0
3.04 0 0
3.12 0 0
3.2 0 0
3.28 0 0
3.36 0 0
3.44 0 0
3.52 0 0
3.6 0 0
3.68 0 0
3.76 0 0
3.84 0 0
3.92 0 0
4 0 0
4.08 0 0
4.16 0 0
4.24 0 0
4.32 0 0
4.4 0 0
4.48 0 0
4.56 0 0
4.64 0 0
4.72 0 0
4.8 0 0
4.88 0 0
4.96 0 0
5.04 0 0
5.12 0 0
5.2 0 0
5.28 0 0
5.36 0 0
5.44 0 0
5.52 0 0
5.6 0 0
5.68 0 0
5.76 0 0
5.84 0 0
5.92 0 0
6 0 0
6.08 0 0
6.16 0 0
6.24 0 0
6.32 0 0
6.4 0 0
6.48 0 0
6.56 0 0
6.64 0 0
6.72 0 0
6.8 0 0
6.88 0 0
6.96 0 0
7.04 0 0
7.12 0 0
7.2 0 0
7.28 0 0
7.36 0 0
7.44 0 0
7.52 0 0
7.6 0 0
7.68 0 0
7.76 0 0
7.84 0 0
7.92 0 0
8 0 0
8.08 0 0
8.16 0 0
8.24 0 0
8.32 0 0
8.4 0 0
8.48 0 0
8.56 0 0
8.64 0 0
8.72 0 0
8.8 0 0
8.88 0 0
8.96 0 0
9.04 0 0
9.12 0 0
9.2 0 0
9.28 0 0
9.36 0 0
9.44 0 0
9.52 0 0
9.6 0 0
9.68 0 0
9.76 0 0
9.84 0 0
9.92 0 0
10 0 0
10.08 0 0
10.16 0 0
10.24 0 0
10.32 0 0
10.4 0 0
10.48 0 0
10.56 0 0
10.64 0 0
10.72 0 0
10.8 0 0
10.88 0 0
10.96 0 0
11.04 0 0
11.12 0 0
11.2 0 0
11.28 0 0
11.36 0 0
11.44 0 0
11.52 0 0
11.6 0 0
11.68 0 0
11.76 0 0
11.84 0 0
11.92 0 0
12 0 0
12.08 0 0
12.16 0 0
12.24 0 0
12.32 0 0
12.4 0 0
12.48 0 0
12.56 0 0
12.64 0 0
12.72 0 0
12.8 0 0
12.88 0 0
12.96 0 0
13.04 0 0
13.12 0 0
13.2 0 0
13.28 0 0
13.36 0 0
13.44 0 0
13.52 0 0
13.6 0 0
13.68 0 0
13.76 0 0
13.84 0 0
13.92 0 0
14 0 0
14.08 0 0
14.16 0 0
14.24 0 0
14.32 0 0
14.4 0 0
14.48 0 0
14.56 0 0
14.64 0 0
14.72 0 0
14.8 0 0
14.88 0 0
14.96 0 0
15.04 0 0
15.12 0 0
15.2 0 0
15.28 0 0
15.36 0 0
15.44 0 0
15.52 0 0
15.6 0 0
15.68 0 0
15.76 0 0
15.84 0 0
15.92 0 0
16 0 0
16.08 0 0
16.16 0 0
16.24 0 0
16.32 0 0
16.4 0 0
16.48 0 0
16.56 0 0
16.64 0 0
16.72 0 0
16.8 0 0
16.88 0 0
16.96 0 0
17.04 0 0
17.12 0 0
17.2 0 0
17.28 0 0
17.36 0 0
17.44 0 0
17.52 0 0
17.6 0 0
17.68 0 0
17.76 0 0
17.84 0 0
17.92 0 0
18 0 0
18.08 0 0
18.16 0 0
18.24 0 0
18.32 0 0
18.4 0 0
18.48 0 0
18.56 0 0
18.64 0 0
18.72 0 0
18.8 0 0
18.88 0 0
18.96 0 0
19.04 0 0
19.12 0 0
19.2 0 0
19.28 0 0
19.36 0 0
19.44 0 0
19.52 0 0
19.6 0 0
19.68 0 0
19.76 0 0
19.84 0 0
19.92 0 0
20 0 0
20.08 0 0
20.16 0 0
20.24 0 0
20.32 0 0
20.4 0 0
20.48 0 0
20.56 0 0
20.64 0 0
20.72 0 0
20.8 0 0
20.88 0 0
20.96 0 0
21.04 0 0
21.12 0 0
21.2 0 0
21.28 0 0
21.36 0 0
21.44 0 0
21.52 0 0
21.6 0 0
21.68 0 0
21.76 0 0
21.84 0 0
21.92 0 0
22 0 0
22.08 0 0
22.16 0 0
22.24 0 0
22.32 0 0
22.4 0 0
22.48 0 0
22.56 0 0
22.64 0 0
22.72 0 0
22.8 0 0
22.88 0 0
22.96 0 0
23.04 0 0
23.12 0 0
23.2 0 0
23.28 0 0
23.36 0 0
23.44 0 0
23.52 0 0
23.6 0 0
23.68 0 0
23.76 0 0
23.84 0 0
23.92 0 0
24 0 0
24.08 0 0
24.16 0 0
24.24 0 0
24.32 0 0
24.4 0 0
24.48 0 0
24.56 0 0
24.64 0 0
24.72 0 0
24.8 0 0
24.88 0 0
24.96 0 0
25.04 0 0
25.12 0 0
25.2 0 0
25.28 0 0
25.36 0 0
25.44 0 0
25.52 0 0
25.6 0 0
25.68 0 0
25.76 0 0
25.84 0 0
25.92 0 0
26 0 0
26.08 0 0
26.16 0 0
26.24 0 0
26.32 0 0
26.4 0 0
26.48 0 0
26.56 0 0
26.64 0 0
26.72 0 0
26.8 0 0
26.88 0 0
26.96 0 0
27.04 0 0
27.12 0 0
27.2 0 0
27.28 0 0
27.36 0 0
27.44 0 0
27.52 0 0
27.6 0 0
27.68 0 0
27.76 0 0
27.84 0 0
27.92 0 0
28 0 0
28.08 0 0
28.16 0 0
28.24 0 0
28.32 0 0
28.4 0 0
28.48 0 0
28.56 0 0
28.64 0 0
28.72 0 0
28.8 0 0
28.88 0 0
28.96 0 0
29.04 0 0
29.12 0 0
29.2 0 0
29.28 0 0
29.36 0 0
29.44 0 0
29.52 0 0
29.6 0 0
29.68 0 0
29.76 0 0
29.84 0 0
29.92 0 0
30 0 0
30.08 0 0
30.16 0 0
30.24 0 0
30.32 0 0
30.4 0 0
30.48 0 0
30.56 0 0
30.64 0 0
30.72 0 0
30.8 0 0
30.88 0 0
30.96 0 0
31.04 0 0
31.12 0 0
31.2 0 0
31.28 0 0
31.36 0 0
31.44 0 0
31.52 0 0
31.6 0 0
31.68 0 0
31.76 0 0
31.84 0 0
31.92 0 0
0 0.005 0
0.08 0.005 0
0.16 0.005 0
0.24 0.005 0
0.32 0.005 0
0.4 0.005 0
0.48 0.005 0
0.56 0.005 0
0.64 0.005 0
0.72 0.005 0
0.8 0.005 0
0.88 0.005 0
0.96 0.005 0
1.04 0.005 0
1.12 0.005 0
1.2 0.005 0
1.28 0.005 0
1.36 0.005 0
1.44 0.005 0
1.52 0.005 0
1.6 0.005 0
1.68 0.005 0
1.76 0.005 0
1.84 0.005 0
1.92 0.005 0
2 0.005 0
2.08 0.005 0
2.16 0.005 0
2.24 0.005 0
2.32 0.005 0
2.4 0.005 0
2.48 0.005 0
2.56 0.005 0
2.64 0.005 0
2.72 0.005 0
2.8 0.005 0
2.88 0.005 0
2.96 0.005 0
3.04 0.005 0
3.12 0.005 0
3.2 0.005 0
3.28 0.005 0
3.36 0.005 0
3.44 0.005 0
3.52 0.005 0
3.6 0.005 0
3.68 0.005 0
3.76 0.005 0
3.84 0.005 0
3.92 0.005 0
4 0.005 0
4.08 0.005 0
4.16 0.005 0
4.24 0.005 0
4.32 0.005 0
4.4 0.005 0
4.48 0.005 0
4.56 0.005 0
4.64 0.005 0
4.72 0.005 0
4.8 0.005 0
4.88 0.005 0
4.96 0.005 0
5.04 0.005 0
5.12 0.005 0
5.2 0.005 0
5.28 0.005 0
5.36 0.005 0
5.44 0.005 0
5.52 0.005 0
5.6 0.005 0
5.68 0.005 0
5.76 0.005 0
5.84 0.005 0
5.92 0.005 0
6 0.005 0
6.08 0.005 0
6.16 0.005 0
6.24 0.005 0
6.32 0.005 0
6.4 0.005 0
6.48 0.005 0
6.56 0.005 0
6.64 0.005 0
6.72 0.005 0
6.8 0.005 0
6.88 0.005 0
6.96 0.005 0
7.04 0.005 0
7.12 0.005 0
7.2 0.005 0
7.28 0.005 0
7.36 0.005 0
7.44 0.005 0
7.52 0.005 0
7.6 0.005 0
7.68 0.005 0
7.76 0.005 0
7.84 0.005 0
7.92 0.005 0
8 0.005 0
8.08 0.005 0
8.16 0.005 0
8.24 0.005 0
8.32 0.005 0
8.4 0.005 0
8.48 0.005 0
8.56 0.005 0
8.64 0.005 0
8.72 0.005 0
8.8 0.005 0
8.88 0.005 0
8.96 0.005 0
9.04 0.005 0
9.12 0.005 0
9.2 0.005 0
9.28 0.005 0
9.36 0.005 0
9.44 0.005 0
9.52 0.005 0
9.6 0.005 0
9.68 0.005 0
9.76 0.005 0
9.84 0.005 0
9.92 0.005 0
10 0.005 0
10.08 0.005 0
10.16 0.005 0
10.24 0.005 0
10.32 0.005 0
10.4 0.005 0
10.48 0.005 0
10.56 0.005 0
10.64 0.005 0
10.72 0.005 0
10.8 0.005 0
10.88 0.005 0
10.96 0.005 0
11.04 0.005 0
11.12 0.005 0
11.2 0.005 0
11.28 0.005 0
11.36 0.005 0
11.44 0.005 0
11.52 0.005 0
11.6 0.005 0
11.68 0.005 0
11.76 0.005 0
11.84 0.005 0
11.92 0.005 0
12 0.005 0
12.08 0.005 0
12.16 0.005 0
12.24 0.005 0
12.32 0.005 0
12.4 0.005 0
12.48 0.005 0
12.56 0.005 0
12.64 0.005 0
12.72 0.005 0
12.8 0.005 0
12.88 0.005 0
12.96 0.005 0
13.04 0.005 0
13.12 0.005 0
13.2 0.005 0
13.28 0.005 0
13.36 0.005 0
13.44 0.005 0
13.52 0.005 0
13.6 0.005 0
13.68 0.005 0
13.76 0.005 0
13.84 0.005 0
13.92 0.005 0
14 0.005 0
14.08 0.005 0
14.16 0.005 0
14.24 0.005 0
14.32 0.005 0
14.4 0.005 0
14.48 0.005 0
14.56 0.005 0
14.64 0.005 0
14.72 0.005 0
14.8 0.005 0
14.88 0.005 0
14.96 0.005 0
15.04 0.005 0
15.12 0.005 0
15.2 0.005 0
15.28 0.005 0
15.36 0.005 0
15.44 0.005 0
15.52 0.005 0
15.6 0.005 0
15.68 0.005 0
15.76 0.005 0
15.84 0.005 0
15.92 0.005 0
16 0.005 0
16.08 0.005 0
16.16 0.005 0
16.24 0.005 0
16.32 0.005 0
16.4 0.005 0
16.48 0.005 0
16.56 0.005 0
16.64 0.005 0
16.72 0.005 0
16.8 0.005 0
16.88 0.005 0
16.96 0.005 0
17.04 0.005 0
17.12 0.005 0
17.2 0.005 0
17.28 0.005 0
17.36 0.005 0
17.44 0.005 0
17.52 0.005 0
17.6 0.005 0
17.68 0.005 0
17.76 0.005 0
17.84 0.005 0
17.92 0.005 0
18 0.005 0
18.08 0.005 0
18.16 0.005 0
18.24 0.005 0
18.32 0.005 0
18.4 0.005 0
18.48 0.005 0
18.56 0.005 0
18.64 0.005 0
18.72 0.005 0
18.8 0.005 0
18.88 0.005 0
18.96 0.005 0
19.04 0.005 0
19.12 0.005 0
19.2 0.005 0
19.28 0.005 0
19.36 0.005 0
19.44 0.005 0
19.52 0.005 0
19.6 0.005 0
19.68 0.005 0
19.76 0.005 0
19.84 0.005 0
19.92 0.005 0
20 0.005 0
20.08 0.005 0
20.16 0.005 0
20.24 0.005 0
20.32 0.005 0
20.4 0.005 0
20.48 0.005 0
20.56 0.005 0
20.64 0.005 0
20.72 0.005 0
20.8 0.005 0
20.88 0.005 0
20.96 0.005 0
21.04 0.005 0
21.12 0.005 0
21.2 0.005 0
21.28 0.005 0
21.36 0.005 0
21.44 0.005 0
21.52 0.005 0
21.6 0.005 0
21.68 0.005 0
21.76 0.005 0
21.84 0.005 0
21.92 0.005 0
22 0.005 0
22.08 0.005 0
22.16 0.005 0
22.24 0.005 0
22.32 0.005 0
22.4 0.005 0
22.48 0.005 0
22.56 0.005 0
22.64 0.005 0
22.72 0.005 0
22.8 0.005 0
22.88 0.005 0
22.96 0.005 0
23.04 0.005 0
23.12 0.005 0
23.2 0.005 0
23.28 0.005 0
23.36 0.005 0
23.44 0.005 0
23.52 0.005 0
23.6 0.005 0
23.68 0.005 0
23.76 0.005 0
23.84 0.005 0
23.92 0.005 0
24 0.005 0
24.08 0.005 0
24.16 0.005 0
24.24 0.005 0
24.32 0.005 0
24.4 0.005 0
24.48 0.005 0
24.56 0.005 0
24.64 0.005 0
24.72 0.005 0
24.8 0.005 0
24.88 0.005 0
24.96 0.005 0
25.04 0.005 0
25.12 0.005 0
25.2 0.005 0
25.28 0.005 0
25.36 0.005 0
25.44 0.005 0
25.52 0.005 0
25.6 0.005 0
25.68 0.005 0
25.76 0.005 0
25.84 0.005 0
25.92 0.005 0
26 0.005 0
26.08 0.005 0
26.16 0.005 0
26.24 0.005 0
26.32 0.005 0
26.4 0.005 0
26.48 0.005 0
26.56 0.005 0
26.64 0.005 0
26.72 0.005 0
26.8 0.005 0
26.88 0.005 0
26.96 0.005 0
27.04 0.005 0
27.12 0.005 0
27.2 0.005 0
27.28 0.005 0
27.36 0.005 0
27.44 0.005 0
27.52 0.005 0
27.6 0.005 0
27.68 0.005 0
27.76 0.005 0
27.84 0.005 0
27.92 0.005 0
28 0.005 0
28.08 0.005 0
28.16 0.005 0
28.24 0.005 0
28.32 0.005 0
28.4 0.005 0
28.48 0.005 0
28.56 0.005 0
28.64 0.005 0
28.72 0.005 0
28.8 0.005 0
28.88 0.005 0
28.96 0.005 0
29.04 0.005 0
29.12 0.005 0
29.2 0.005 0
29.28 0.005 0
29.36 0.005 0
29.44 0.005 0
29.52 0.005 0
29.6 0.005 0
29.68 0.005 0
29.76 0.005 0
29.84 0.005 0
29.92 0.005 0
30 0.005 0
30.08 0.005 0
30.16 0.005 0
30.24 0.005 0
30.32 0.005 0
30.4 0.005 0
30.48 0.005 0
30.56 0.005 0
30.64 0.005 0
30.72 0.005 0
30.8 0.005 0
30.88 0.005 0
30.96 0.005 0
31.04 0.005 0
31.12 0.005 0
31.2 0.005 0
31.28 0.005 0
31.36 0.005 0
31.44 0.005 0
31.52 0.005 0
31.6 0.005 0
31.68 0.005 0
31.76 0.005 0
31.84 0.005 0
31.92 0.005 0
0 0.01 0
0.08 0.01 0
0.16 0.01 0
0.24 0.01 0
0.32 0.01 0
0.4 0.01 0
0.48 0.01 0
0.56 0.01 0
0.64 0.01 0
0.72 0.01 0
0.8 0.01 0
0.88 0.01 0
0.96 0.01 0
1.04 0.01 0
1.12 0.01 0
1.2 0.01 0
1.28 0.01 0
1.36 0.01 0
1.44 0.01 0
1.52 0.01 0
1.6 0.01 0
1.68 0.01 0
1.76 0.01 0
1.84 0.01 0
1.92 0.01 0
2 0.01 0
2.08 0.01 0
2.16 0.01 0
2.24 0.01 0
2.32 0.01 0
2.4 0.01 0
2.48 0.01 0
2.56 0.01 0
2.64 0.01 0
2.72 0.01 0
2.8 0.01 0
2.88 0.01 0
2.96 0.01 0
3.04 0.01 0
3.12 0.01 0
3.2 0.01 0
3.28 0.01 0
3.36 0.01 0
3.44 0.01 0
3.52 0.01 0
3.6 0.01 0
3.68 0.01 0
3.76 0.01 0
3.84 0.01 0
3.92 0.01 0
4 0.01 0
4.08 0.01 0
4.16 0.01 0
4.24 0.01 0
4.32 0.01 0
4.4 0.01 0
4.48 0.01 0
4.56 0.01 0
4.64 0.01 0
4.72 0.01 0
4.8 0.01 0
4.88 0.01 0
4.96 0.01 0
5.04 0.01 0
5.12 0.01 0
[...]
POINT_DATA 80000

SCALARS u float 1
LOOKUP_TABLE default
0
-0.131663
-0.0682701
-0.0522971
-0.0444211
-0.0395782
-0.0362612
-0.0338343
-0.0319745
-0.030498
-0.0292921
-0.028284
-0.0274247
-0.0266803
-0.0260267
-0.0254464
-0.0249261
-0.0244558
-0.024028
-0.0236366
-0.0232771
-0.0229456
-0.0226386
-0.0223532
-0.0220874
-0.0218398
-0.0216094
-0.0213946
-0.021194
-0.021006
-0.02083
-0.0206663
-0.0205159
-0.0203798
-0.0202582
-0.0201504
-0.0200549
-0.0199702
-0.0198951
-0.0198288
-0.019771
-0.0197211
-0.0196781
-0.0196406
-0.0196068
-0.0195755
-0.0195457
-0.019517
-0.0194898
-0.0194646
-0.0194422
-0.0194232
-0.0194077
-0.0193958
-0.0193873
-0.0193815
-0.0193779
-0.019376
-0.0193754
-0.0193755
-0.0193761
-0.019377
-0.0193781
-0.0193793
-0.0193806
-0.0193818
-0.0193831
-0.0193844
-0.0193857
-0.0193871
-0.0193884
-0.0193897
-0.0193911
-0.0193924
-0.0193938
-0.0193952
-0.0193965
-0.0193979
-0.0193992
-0.0194006
-0.019402
-0.0194034
-0.0194047
-0.0194061
-0.0194075
-0.0194088
-0.0194102
-0.0194116
-0.019413
-0.0194143
-0.0194157
-0.0194171
-0.0194185
-0.0194198
-0.0194212
-0.0194226
-0.019424
-0.0194253
-0.0194267
-0.0194281
-0.0194295
-0.0194309
-0.0194322
-0.0194336
-0.019435
-0.0194364
-0.0194378
-0.0194392
-0.0194405
-0.0194419
-0.0194433
-0.0194447
-0.0194461
-0.0194475
-0.0194489
-0.0194502
-0.0194516
-0.019453
-0.0194544
-0.0194558
-0.0194572
-0.0194586
-0.01946
-0.0194613
-0.0194627
-0.0194641
-0.0194655
-0.0194669
-0.0194683
-0.0194697
-0.0194711
-0.0194725
-0.0194739
-0.0194753
-0.0194767
-0.0194781
-0.0194795
-0.0194808
-0.0194822
-0.0194836
-0.019485
-0.0194864
-0.0194878
-0.0194892
-0.0194906
-0.019492
-0.0194934
-0.0194948
-0.0194962
-0.0194976
-0.019499
-0.0195004
-0.0195018
-0.0195032
-0.0195046
-0.019506
-0.0195075
-0.0195089
-0.0195103
-0.0195117
-0.0195131
-0.0195145
-0.0195159
-0.0195173
-0.0195187
-0.0195201
-0.0195216
-0.019523
-0.0195244
-0.0195258
-0.0195272
-0.0195286
-0.0195301
-0.0195315
-0.0195329
-0.0195343
-0.0195357
-0.0195372
-0.0195386
-0.01954
-0.0195415
-0.0195429
-0.0195443
-0.0195458
-0.0195472
-0.0195486
-0.0195501
-0.0195515
-0.0195529
-0.0195544
-0.0195558
-0.0195573
-0.0195587
-0.0195602
-0.0195616
-0.0195631
-0.0195645
-0.019566
-0.0195674
-0.0195689
-0.0195703
-0.0195718
-0.0195733
-0.0195747
-0.0195762
-0.0195777
-0.0195791
-0.0195806
-0.0195821
-0.0195836
-0.019585
-0.0195865
-0.019588
-0.0195895
-0.019591
-0.0195924
-0.0195939
-0.0195954
-0.0195969
-0.0195984
-0.0195999
-0.0196014
-0.0196029
-0.0196044
-0.0196059
-0.0196074
-0.0196089
-0.0196104
-0.0196119
-0.0196134
-0.0196149
-0.0196165
-0.019618
-0.0196195
-0.019621
-0.0196225
-0.0196241
-0.0196256
-0.0196271
-0.0196286
-0.0196302
-0.0196317
-0.0196332
-0.0196348
-0.0196363
-0.0196379
-0.0196394
-0.0196409
-0.0196425
-0.019644
-0.0196456
-0.0196471
-0.0196487
-0.0196502
-0.0196518
-0.0196533
-0.0196549
-0.0196565
-0.019658
-0.0196596
-0.0196611
-0.0196627
-0.0196643
-0.0196658
-0.0196674
-0.019669
-0.0196706
-0.0196721
-0.0196737
-0.0196753
-0.0196769
-0.0196784
-0.01968
-0.0196816
-0.0196832
-0.0196848
-0.0196863
-0.0196879
-0.0196895
-0.0196911
-0.0196927
-0.0196943
-0.0196959
-0.0196975
-0.0196991
-0.0197007
-0.0197023
-0.0197039
-0.0197055
-0.0197071
-0.0197087
-0.0197103
-0.0197119
-0.0197135
-0.0197151
-0.0197167
-0.0197183
-0.01972
-0.0197216
-0.0197232
-0.0197248
-0.0197264
-0.019728
-0.0197297
-0.0197313
-0.0197329
-0.0197345
-0.0197361
-0.0197378
-0.0197394
-0.019741
-0.0197427
-0.0197443
-0.0197459
-0.0197476
-0.0197492
-0.0197508
-0.0197525
-0.0197541
-0.0197557
-0.0197574
-0.019759
-0.0197607
-0.0197623
-0.0197639
-0.0197656
-0.0197672
-0.0197689
-0.0197705
-0.0197722
-0.0197738
-0.0197755
-0.0197771
-0.0197788
-0.0197804
-0.0197821
-0.0197838
-0.0197854
-0.0197871
-0.0197887
-0.0197904
-0.0197921
-0.0197937
-0.0197954
-0.0197971
-0.0197987
-0.0198004
-0.0198021
-0.0198037
-0.0198054
-0.0198071
-0.0198088
-0.0198104
-0.0198121
-0.0198138
-0.0198155
-0.0198172
-0.0198188
-0.0198205
-0.0198222
-0.0198239
-0.0198256
-0.0198273
-0.019829
-0.0198306
-0.0198323
-0.019834
-0.0198357
-0.0198374
-0.0198391
-0.0198408
-0.0198425
-0.0198442
-0.0198459
-0.0198476
-0.0198493
-0.019851
-0.0198527
-0.0198544
-0.0198562
-0.0198578
-0.0198596
-0.0198612
-0.019863
-0.0198647
-0.0198664
-0.0198681
-0.0198699
-0.0198715
-0.0198733
-0.019875
-0.0198768
-0.0198786
-0.0198802
-0.0198823
-0.0198834
-0.0198863
-0.0198836
-0.0198836
-0.0198836
1
0.131663
0.0682701
0.0522971
0.0444211
0.0395782
0.0362612
0.0338343
0.0319745
0.030498
0.0292921
0.028284
0.0274247
0.0266803
0.0260267
0.0254464
0.0249261
0.0244558
0.024028
0.0236366
0.0232771
0.0229456
0.0226386
0.0223532
0.0220874
0.0218398
0.0216094
0.0213946
0.021194
0.021006
0.02083
0.0206663
0.0205159
0.0203798
0.0202582
0.0201504
0.0200549
0.0199702
0.0198951
0.0198288
0.019771
0.0197211
0.0196781
0.0196406
0.0196068
0.0195755
0.0195457
0.019517
0.0194898
0.0194646
0.0194422
0.0194232
0.0194077
0.0193958
0.0193873
0.0193815
0.0193779
0.019376
0.0193754
0.0193755
0.0193761
0.019377
0.0193781
0.0193793
0.0193806
0.0193818
0.0193831
0.0193844
0.0193857
0.0193871
0.0193884
0.0193897
0.0193911
0.0193924
0.0193938
0.0193952
0.0193965
0.0193979
0.0193992
0.0194006
0.019402
0.0194034
0.0194047
0.0194061
0.0194075
0.0194088
0.0194102
0.0194116
0.019413
0.0194143
0.0194157
0.0194171
0.0194185
0.0194198
0.0194212
0.0194226
0.019424
0.0194253
0.0194267
0.0194281
0.0194295
0.0194309
0.0194322
0.0194336
0.019435
0.0194364
0.0194378
0.0194392
0.0194405
0.0194419
0.0194433
0.0194447
0.0194461
0.0194475
0.0194489
0.0194502
0.0194516
0.019453
0.0194544
0.0194558
0.0194572
0.0194586
0.01946
0.0194613
0.0194627
0.0194641
0.0194655
0.0194669
0.0194683
0.0194697
0.0194711
0.0194725
0.0194739
0.0194753
0.0194767
0.0194781
0.0194795
0.0194808
0.0194822
0.0194836
0.019485
0.0194864
0.0194878
0.0194892
0.0194906
0.019492
0.0194934
0.0194948
0.0194962
0.0194976
0.019499
0.0195004
0.0195018
0.0195032
0.0195046
0.019506
0.0195075
0.0195089
0.0195103
0.0195117
0.0195131
0.0195145
0.0195159
0.0195173
0.0195187
0.0195201
0.0195216
0.019523
0.0195244
0.0195258
0.0195272
0.0195286
0.0195301
0.0195315
0.0195329
0.0195343
0.0195357
0.0195372
0.0195386
0.01954
0.0195415
0.0195429
0.0195443
0.0195458
0.0195472
0.0195486
0.0195501
0.0195515
0.0195529
0.0195544
0.0195558
0.0195573
0.0195587
0.0195602
0.0195616
0.0195631
0.0195645
0.019566
0.0195674
0.0195689
0.0195703
0.0195718
0.0195733
0.0195747
0.0195762
0.0195777
0.0195791
0.0195806
0.0195821
0.0195836
0.019585
0.0195865
0.019588
0.0195895
0.019591
0.0195924
0.0195939
0.0195954
0.0195969
0.0195984
0.0195999
0.0196014
0.0196029
0.0196044
0.0196059
0.0196074
0.0196089
0.0196104
0.0196119
0.0196134
0.0196149
0.0196165
0.019618
0.0196195
0.019621
0.0196225
0.0196241
0.0196256
0.0196271
0.0196286
0.0196302
0.0196317
0.0196332
0.0196348
0.0196363
0.0196379
0.0196394
0.0196409
0.0196425
0.019644
0.0196456
0.0196471
0.0196487
0.0196502
0.0196518
0.0196533
0.0196549
0.0196565
0.019658
0.0196596
0.0196611
0.0196627
0.0196643
0.0196658
0.0196674
0.019669
0.0196706
0.0196721
0.0196737
0.0196753
0.0196769
0.0196784
0.01968
0.0196816
0.0196832
0.0196848
0.0196863
0.0196879
0.0196895
0.0196911
0.0196927
0.0196943
0.0196959
0.0196975
0.0196991
0.0197007
0.0197023
0.0197039
0.0197055
0.0197071
0.0197087
0.0197103
0.0197119
0.0197135
0.0197151
0.0197167
0.0197183
0.01972
0.0197216
0.0197232
0.0197248
0.0197264
0.019728
0.0197297
0.0197313
0.0197329
0.0197345
0.0197361
0.0197378
0.0197394
0.019741
0.0197427
0.0197443
0.0197459
0.0197476
0.0197492
0.0197508
0.0197525
0.0197541
0.0197557
0.0197574
0.019759
0.0197607
0.0197623
0.0197639
0.0197656
0.0197672
0.0197689
0.0197705
0.0197722
0.0197738
0.0197755
0.0197771
0.0197788
0.0197804
0.0197821
0.0197838
0.0197854
0.0197871
0.0197887
0.0197904
0.0197921
0.0197937
0.0197954
0.0197971
0.0197987
0.0198004
0.0198021
0.0198037
0.0198054
0.0198071
0.0198088
0.0198104
0.0198121
0.0198138
0.0198155
0.0198172
0.0198188
0.0198205
0.0198222
0.0198239
0.0198256
0.0198273
0.019829
0.0198306
0.0198323
0.019834
0.0198357
0.0198374
0.0198391
0.0198408
0.0198425
0.0198442
0.0198459
0.0198476
0.0198493
0.019851
0.0198527
0.0198544
0.0198562
0.0198578
0.0198596
0.0198612
0.019863
0.0198647
0.0198664
0.0198681
0.0198699
0.0198715
0.0198733
0.019875
0.0198768
0.0198786
0.0198802
0.0198823
0.0198834
0.0198863
0.0198836
0.0198836
0.0198836
1
0.344885
0.20067
0.15497
0.131898
0.117603
0.107772
0.100563
0.0950304
0.090635
0.0870444
0.0840431
0.0814857
0.0792713
0.0773281
0.0756035
0.0740582
0.0726624
0.071393
0.0702326
0.0691671
0.0681847
0.0672752
0.0664304
0.0656443
0.0649126
0.0642318
0.0635976
0.0630056
0.0624517
0.0619344
0.0614548
0.0610156
0.0606191
0.0602656
0.0599525
0.0596755
0.0594303
0.0592132
0.0590223
0.0588558
0.0587117
0.0585868
0.058477
0.0583777
0.0582854
0.0581978
0.0581144
0.0580362
0.057965
0.0579024
0.0578499
0.0578079
0.0577761
0.0577534
0.0577384
0.0577295
0.0577251
0.0577239
0.0577248
0.057727
0.0577299
0.0577333
0.0577369
0.0577406
0.0577445
0.0577483
0.0577522
0.0577562
0.0577601
0.0577641
0.0577681
0.0577722
0.0577762
0.0577803
0.0577843
0.0577884
0.0577925
0.0577966
0.0578007
0.0578048
0.0578089
0.0578129
0.057817
0.0578212
0.0578253
0.0578294
0.0578335
0.0578376
0.0578417
0.0578458
0.0578499
0.057854
0.0578582
0.0578623
0.0578664
0.0578705
0.0578747
0.0578788
0.0578829
0.0578871
0.0578912
0.0578954
0.0578995
0.0579036
0.0579078
0.0579119
0.0579161
0.0579202
0.0579244
0.0579285
0.0579327
0.0579368
0.057941
0.0579451
0.0579493
0.0579535
0.0579576
0.0579618
0.0579659
0.0579701
0.0579743
0.0579785
0.0579826
0.0579868
0.057991
0.0579951
0.0579993
0.0580035
0.0580077
0.0580119
0.058016
0.0580202
0.0580244
0.0580286
0.0580328
0.058037
0.0580412
0.0580453
0.0580495
0.0580537
0.0580579
0.0580621
0.0580663
0.0580705
0.0580747
0.0580789
0.0580831
0.0580873
0.0580916
0.0580958
0.0581
0.0581042
0.0581084
0.0581126
0.0581168
0.0581211
0.0581253
0.0581295
0.0581337
0.058138
0.0581422
0.0581464
0.0581507
0.0581549
0.0581591
0.0581634
0.0581676
0.0581719
0.0581761
0.0581804
0.0581846
0.0581889
0.0581932
0.0581974
0.0582017
0.058206
0.0582103
0.0582145
0.0582188
0.0582231
0.0582274
0.0582317
0.058236
0.0582403
0.0582446
0.0582489
0.0582532
0.0582575
0.0582618
0.0582661
0.0582705
0.0582748
0.0582791
0.0582835
0.0582878
0.0582921
0.0582965
0.0583008
0.0583052
0.0583096
0.0583139
0.0583183
0.0583227
0.0583271
0.0583314
0.0583358
0.0583402
0.0583446
0.058349
0.0583534
0.0583578
0.0583623
0.0583667
0.0583711
0.0583755
0.05838
0.0583844
0.0583889
0.0583933
0.0583978
0.0584022
0.0584067
0.0584112
0.0584157
0.0584201
0.0584246
0.0584291
0.0584336
0.0584381
0.0584426
0.0584471
0.0584517
0.0584562
0.0584607
0.0584652
0.0584698
0.0584743
0.0584789
0.0584834
0.058488
0.0584925
0.0584971
0.0585017
0.0585063
0.0585108
0.0585154
0.05852
0.0585246
0.0585292
0.0585338
0.0585384
0.0585431
0.0585477
0.0585523
0.0585569
0.0585616
0.0585662
0.0585708
0.0585755
0.0585802
0.0585848
0.0585895
0.0585941
0.0585988
0.0586035
0.0586082
0.0586128
0.0586175
0.0586222
0.0586269
0.0586316
0.0586363
0.058641
0.0586458
0.0586505
0.0586552
0.0586599
0.0586646
0.0586694
0.0586741
0.0586789
0.0586836
0.0586884
0.0586931
0.0586979
0.0587026
0.0587074
0.0587122
0.0587169
0.0587217
0.0587265
0.0587313
0.0587361
0.0587409
0.0587457
0.0587505
0.0587553
0.0587601
0.0587649
0.0587697
0.0587745
0.0587794
0.0587842
0.058789
0.0587938
0.0587987
0.0588035
0.0588084
0.0588132
0.0588181
0.0588229
0.0588278
0.0588326
0.0588375
0.0588424
0.0588473
0.0588521
0.058857
0.0588619
0.0588668
0.0588717
0.0588766
0.0588815
0.0588864
0.0588913
0.0588962
0.0589011
0.058906
0.0589109
0.0589159
0.0589208
0.0589257
0.0589307
0.0589356
0.0589405
0.0589455
0.0589504
0.0589554
0.0589603
0.0589653
0.0589703
0.0589752
0.0589802
0.0589852
0.0589901
0.0589951
0.0590001
0.0590051
0.0590101
0.0590151
0.0590201
0.0590251
0.0590301
0.0590351
0.0590401
0.0590451
0.0590501
0.0590552
0.0590602
0.0590652
0.0590703
0.0590753
0.0590803
0.0590854
0.0590904
0.0590955
0.0591006
0.0591056
0.0591107
0.0591157
0.0591208
0.0591258
0.059131
0.059136
0.0591411
0.0591462
0.0591513
0.0591564
0.0591615
0.0591665
0.0591718
0.0591767
0.059182
0.059187
0.0591923
0.0591972
0.0592025
0.0592075
0.0592128
0.0592179
0.0592231
0.0592285
0.0592333
0.0592395
0.059243
0.0592513
0.0592449
0.0592449
0.0592449
1
0.518767
0.327405
0.255352
0.217854
0.19441
0.178219
0.166315
0.157167
0.149893
0.14395
0.138981
0.134748
0.131084
0.12787
0.125019
0.122465
0.120159
0.118063
0.116147
0.114389
0.112768
0.111268
0.109875
0.10858
0.107375
0.106255
0.105211
0.104237
0.103327
0.102479
0.101694
0.100977
0.100331
0.099756
0.0992468
0.0987968
0.0983988
0.0980474
0.0977386
0.0974693
0.0972357
0.0970323
0.0968524
0.0966892
0.0965374
0.0963939
0.0962584
0.0961325
0.0960189
0.0959203
0.0958383
0.0957734
0.0957248
0.0956907
0.0956685
0.0956557
0.0956497
0.0956486
0.0956506
0.0956545
0.0956596
0.0956653
0.0956713
0.0956776
0.0956839
0.0956904
0.0956969
0.0957034
0.09571
0.0957166
0.0957233
0.09573
0.0957367
0.0957434
0.0957502
0.095757
0.0957637
0.0957705
0.0957773
0.0957841
0.0957909
0.0957977
0.0958045
0.0958113
0.0958181
0.0958249
0.0958318
0.0958386
0.0958454
0.0958522
0.0958591
0.0958659
0.0958728
0.0958796
0.0958865
0.0958933
0.0959002
0.0959071
0.0959139
0.0959208
0.0959277
0.0959345
0.0959414
0.0959483
0.0959552
0.0959621
0.095969
0.0959759
0.0959828
0.0959897
0.0959966
0.0960035
0.0960104
0.0960173
0.0960242
0.0960311
0.096038
0.096045
0.0960519
0.0960588
0.0960658
0.0960727
0.0960796
0.0960866
0.0960935
0.0961004
0.0961074
0.0961143
0.0961213
0.0961283
0.0961352
0.0961422
0.0961491
0.0961561
0.0961631
0.09617
0.096177
0.096184
0.096191
0.0961979
0.0962049
0.0962119
0.0962189
0.0962259
0.0962329
0.0962399
0.0962469
0.0962539
0.0962609
0.0962679
0.0962749
0.0962819
0.0962889
0.096296
0.096303
0.09631
0.096317
0.0963241
0.0963311
0.0963381
0.0963452
0.0963522
0.0963593
0.0963663
0.0963734
0.0963805
0.0963875
0.0963946
0.0964017
0.0964087
0.0964158
0.0964229
0.09643
0.0964371
0.0964442
0.0964513
0.0964584
0.0964655
0.0964727
0.0964798
0.0964869
0.096494
0.0965012
0.0965083
0.0965155
0.0965226
0.0965298
0.096537
0.0965441
0.0965513
0.0965585
0.0965657
0.0965729
0.0965801
0.0965873
0.0965945
0.0966018
0.096609
0.0966162
0.0966235
0.0966307
0.096638
0.0966452
0.0966525
0.0966598
0.0966671
0.0966744
0.0966817
0.096689
0.0966963
0.0967036
0.0967109
0.0967183
0.0967256
0.0967329
0.0967403
0.0967477
0.096755
0.0967624
0.0967698
0.0967772
0.0967846
0.096792
0.0967994
0.0968069
0.0968143
0.0968218
0.0968292
0.0968367
0.0968441
0.0968516
0.0968591
0.0968666
0.0968741
0.0968816
0.0968891
0.0968966
0.0969041
0.0969117
0.0969192
0.0969268
0.0969343
0.0969419
0.0969495
0.0969571
0.0969647
0.0969723
0.0969799
0.0969875
0.0969951
0.0970028
0.0970104
0.097018
0.0970257
0.0970334
0.097041
0.0970487
0.0970564
0.0970641
0.0970718
0.0970795
0.0970872
0.0970949
0.0971026
0.0971104
0.0971181
0.0971259
0.0971336
0.0971414
0.0971492
0.0971569
0.0971647
0.0971725
0.0971803
0.0971881
0.097196
0.0972038
0.0972116
0.0972194
0.0972273
0.0972351
0.097243
0.0972508
0.0972587
0.0972666
0.0972745
0.0972824
0.0972902
0.0972981
0.0973061
0.097314
0.0973219
0.0973298
0.0973378
0.0973457
0.0973536
0.0973616
0.0973696
0.0973775
0.0973855
0.0973935
0.0974015
0.0974094
0.0974174
0.0974254
0.0974335
0.0974415
0.0974495
0.0974575
0.0974656
0.0974736
0.0974816
0.0974897
0.0974978
0.0975058
0.0975139
0.097522
0.0975301
0.0975381
0.0975462
0.0975543
0.0975624
0.0975706
0.0975787
0.0975868
0.0975949
0.0976031
0.0976112
0.0976194
0.0976275
0.0976357
0.0976439
0.097652
0.0976602
0.0976684
0.0976766
0.0976848
0.097693
0.0977012
0.0977094
0.0977176
0.0977259
0.0977341
0.0977423
0.0977506
0.0977588
0.0977671
0.0977754
0.0977836
0.0977919
0.0978002
0.0978085
0.0978168
0.0978251
0.0978334
0.0978417
0.09785
0.0978583
0.0978667
0.097875
0.0978834
0.0978917
0.0979001
0.0979084
0.0979168
0.0979251
0.0979336
0.0979419
0.0979504
0.0979587
0.0979672
0.0979755
0.097984
0.0979923
0.0980009
0.0980092
0.0980178
0.0980261
0.0980347
0.098043
0.0980516
0.0980599
0.0980686
0.0980769
0.0980856
0.0980938
0.0981027
0.0981109
0.0981198
0.0981281
0.0981368
0.0981457
0.0981538
0.0981639
0.0981699
0.0981832
0.0981747
0.0981747
0.0981747
1
0.66089
0.446898
0.352883
0.302037
0.269858
0.247511
0.231029
0.218339
0.208239
0.199981
0.193076
0.187194
0.182104
0.17764
0.173681
0.170136
0.166937
0.164029
0.161373
0.158936
0.15669
0.154612
0.152683
0.15089
0.149223
0.147672
0.146229
0.144883
0.143627
0.142458
0.141379
0.140394
0.139509
0.13872
0.138023
0.137408
0.136864
0.136385
0.135964
0.135597
0.135278
0.134999
0.134751
0.134525
0.134315
0.134117
0.133932
0.133761
0.133609
0.133478
0.13337
0.133285
0.133222
0.133179
0.133151
0.133135
0.133129
0.133128
0.133131
0.133137
0.133144
0.133152
0.133161
0.13317
0.133179
0.133188
0.133197
0.133206
0.133215
0.133224
0.133233
0.133243
0.133252
0.133261
0.133271
0.13328
0.13329
0.133299
0.133309
0.133318
0.133328
0.133337
0.133346
0.133356
0.133365
0.133375
0.133384
0.133394
0.133404
0.133413
0.133423
0.133432
0.133442
0.133451
0.133461
0.13347
0.13348
0.133489
0.133499
0.133509
0.133518
0.133528
0.133537
0.133547
0.133556
0.133566
0.133576
0.133585
0.133595
0.133604
0.133614
0.133624
0.133633
0.133643
0.133653
0.133662
0.133672
0.133682
0.133691
0.133701
0.133711
0.13372
0.13373
0.13374
0.133749
0.133759
0.133769
0.133778
0.133788
0.133798
0.133807
0.133817
0.133827
0.133837
0.133846
0.133856
0.133866
0.133875
0.133885
0.133895
0.133905
0.133914
0.133924
0.133934
0.133944
0.133954
0.133963
0.133973
0.133983
0.133993
0.134002
0.134012
0.134022
0.134032
0.134042
0.134051
0.134061
0.134071
0.134081
0.134091
0.1341
0.13411
0.13412
0.13413
0.13414
0.13415
0.13416
0.134169
0.134179
0.134189
0.134199
0.134209
0.134219
0.134229
0.134239
0.134249
0.134258
0.134268
0.134278
0.134288
0.134298
0.134308
0.134318
0.134328
0.134338
0.134348
0.134358
0.134368
0.134378
0.134388
0.134398
0.134408
0.134418
0.134428
0.134438
0.134448
0.134458
0.134468
0.134479
0.134489
0.134499
0.134509
0.134519
0.134529
0.134539
0.134549
0.13456
0.13457
0.13458
0.13459
0.1346
0.13461
0.134621
0.134631
0.134641
0.134651
0.134662
0.134672
0.134682
0.134692
0.134703
0.134713
0.134723
0.134734
0.134744
0.134754
0.134765
0.134775
0.134785
0.134796
0.134806
0.134817
0.134827
0.134837
0.134848
0.134858
0.134869
0.134879
0.13489
0.1349
0.134911
0.134921
0.134932
0.134942
0.134953
0.134963
0.134974
0.134985
0.134995
0.135006
0.135016
0.135027
0.135038
0.135048
0.135059
0.135069
0.13508
0.135091
0.135101
0.135112
0.135123
0.135134
0.135144
0.135155
0.135166
0.135177
0.135187
0.135198
0.135209
0.13522
0.135231
0.135241
0.135252
0.135263
0.135274
0.135285
0.135296
0.135306
0.135317
0.135328
0.135339
0.13535
0.135361
0.135372
0.135383
0.135394
0.135405
0.135416
0.135427
0.135438
0.135449
0.13546
0.135471
0.135482
0.135493
0.135504
0.135515
0.135526
0.135537
0.135548
0.135559
0.13557
0.135581
0.135592
0.135604
0.135615
0.135626
0.135637
0.135648
0.135659
0.13567
0.135682
0.135693
0.135704
0.135715
0.135726
0.135738
0.135749
0.13576
0.135771
0.135783
0.135794
0.135805
0.135816
0.135828
0.135839
0.13585
0.135862
0.135873
0.135884
0.135896
0.135907
0.135918
0.13593
0.135941
0.135953
0.135964
0.135975
0.135987
0.135998
0.13601
0.136021
0.136032
0.136044
0.136055
0.136067
0.136078
0.13609
0.136101
0.136113
0.136124
0.136136
0.136147
0.136159
0.136171
0.136182
0.136194
0.136205
0.136217
0.136228
0.13624
0.136252
0.136263
0.136275
0.136287
0.136298
0.13631
0.136321
0.136333
0.136345
0.136357
0.136368
0.13638
0.136392
0.136403
0.136415
0.136427
0.136439
0.136451
0.136462
0.136474
0.136486
0.136498
0.136509
0.136521
0.136533
0.136545
0.136557
0.136569
0.136581
0.136593
0.136605
0.136616
0.13663
0.136639
0.136657
0.136648
0.136648
0.136648
1
0.776805
0.55783
0.446884
0.38411
0.343753
0.315522
0.294617
0.278483
0.265623
0.255099
0.246297
0.238798
0.232309
0.226619
0.221574
0.217058
0.212983
0.209282
0.205901
0.202799
0.199941
0.197298
0.194845
0.192566
0.190448
0.188479
0.186646