# vtk DataFile Version 2.0
FlowField
ASCII
DATASET STRUCTURED_GRID
DIMENSIONS 400 1 200
POINTS 80000 float
0 0 0
0.08 0 0
0.16 0 0
0.24 0 0
0.32 0 0
0.4 0 0
0.48 0 0
0.56 0 0
0.64 0 0
0.72 0 0
0.8 0 0
0.88 0 0
0.96 0 0
1.04 0 0
1.12 0 0
1.2 0 0
1.28 0 0
1.36 0 0
1.44 0 0
1.52 0 0
1.6 0 0
1.68 0 0
1.76 0 0
1.84 0 0
1.92 0 0
2 0 0
2.08 0 0
2.16 0 0
2.24 0 0
2.32 0 0
2.4 0 0
2.48 0 0
2.56 0 0
2.64 0 0
2.72 0 0
2.8 0 0
2.88 0 0
2.96 0 0
3.04 0 0
3.12 0 0
3.2 0 0
3.28 0 0
3.36 0 0
3.44 0 0
3.52 0 0
3.6 0 0
3.68 0 0
3.76 0 0
3.84 0 0
3.92 0 0
4 0 0
4.08 0 0
4.16 0 0
4.24 0 0
4.32 0 0
4.4 0 0
4.48 0 0
4.56 0 0
4.64 0 0
4.72 0 0
4.8 0 0
4.88 0 0
4.96 0 0
5.04 0 0
5.12 0 0
5.2 0 0
5.28 0 0
5.36 0 0
5.44 0 0
5.52 0 0
5.6 0 0
5.68 0 0
5.76 0 0
5.84 0 0
5.92 0 0
6 0 0
6.08 0 0
6.16 0 0
6.24 0 0
6.32 0 0
6.4 0 0
6.48 0 0
6.56 0 0
6.64 0 0
6.72 0 0
6.8 0 0
6.88 0 0
6.96 0 0
7.04 0 0
7.12 0 0
7.2 0 0
7.28 0 0
7.36 0 0
7.44 0 0
7.52 0 0
7.6 0 0
7.68 0 0
7.76 0 0
7.84 0 0
7.92 0 0
8 0 0
8.08 0 0
8.16 0 0
8.24 0 0
8.32 0 0
8.4 0 0
8.48 0 0
8.56 0 0
8.64 0 0
8.72 0 0
8.8 0 0
8.88 0 0
8.96 0 0
9.04 0 0
9.12 0 0
9.2 0 0
9.28 0 0
9.36 0 0
9.44 0 0
9.52 0 0
9.6 0 0
9.68 0 0
9.76 0 0
9.84 0 0
9.92 0 0
10 0 0
10.08 0 0
10.16 0 0
10.24 0 0
10.32 0 0
10.4 0 0
10.48 0 0
10.56 0 0
10.64 0 0
10.72 0 0
10.8 0 0
10.88 0 0
10.96 0 0
11.04 0 0
11.12 0 0
11.2 0 0
11.28 0 0
11.36 0 0
11.44 0 0
11.52 0 0
11.6 0 0
11.68 0 0
11.76 0 0
11.84 0 0
11.92 0 0
12 0 0
12.08 0 0
12.16 0 0
12.24 0 0
12.32 0 0
12.4 0 0
12.48 0 0
12.56 0 0
12.64 0 0
12.72 0 0
12.8 0 0
12.88 0 0
12.96 0 0
13.04 0 0
13.12 0 0
13.2 0 0
13.28 0 0
13.36 0 0
13.44 0 0
13.52 0 0
13.6 0 0
13.68 0 0
13.76 0 0
13.84 0 0
13.92 0 0
14 0 0
14.08 0 0
14.16 0 0
14.24 0 0
14.32 0 0
14.4 0 0
14.48 0 0
14.56 0 0
14.64 0 0
14.72 0 0
14.8 0 0
14.88 0 0
14.96 0 0
15.04 0 0
15.12 0 0
15.2 0 0
15.28 0 0
15.36 0 0
15.44 0 0
15.52 0 0
15.6 0 0
15.68 0 0
15.76 0 0
15.84 0 0
15.92 0 0
16 0 0
16.08 0 0
16.16 0 0
16.24 0 0
16.32 0 0
16.4 0 0
16.48 0 0
16.56 0 0
16.64 0 0
16.72 0 0
16.8 0 0
16.88 0 0
16.96 0 0
17.04 0 0
17.12 0 0
17.2 0 0
17.28 0 0
17.36 0 0
17.44 0 0
17.52 0 0
17.6 0 0
17.68 0 0
17.76 0 0
17.84 0 0
17.92 0 0
18 0 0
18.08 0 0
18.16 0 0
18.24 0 0
18.32 0 0
18.4 0 0
18.48 0 0
18.56 0 0
18.64 0 0
18.72 0 0
18.8 0 0
18.88 0 0
18.96 0 0
19.04 0 0
19.12 0 0
19.2 0 0
19.28 0 0
19.36 0 0
19.44 0 0
19.52 0 0
19.6 0 0
19.68 0 0
19.76 0 0
19.84 0 0
19.92 0 0
20 0 0
20.08 0 0
20.16 0 0
20.24 0 0
20.32 0 0
20.4 0 0
20.48 0 0
20.56 0 0
20.64 0 0
20.72 0 0
20.8 0 0
20.88 0 0
20.96 0 0
21.04 0 0
21.12 0 0
21.2 0 0
21.28 0 0
21.36 0 0
21.44 0 0
21.52 0 0
21.6 0 0
21.68 0 0
21.76 0 0
21.84 0 0
21.92 0 0
22 0 0
22.08 0 0
22.16 0 0
22.24 0 0
22.32 0 0
22.4 0 0
22.48 0 0
22.56 0 0
22.64 0 0
22.72 0 0
22.8 0 0
22.88 0 0
22.96 0 0
23.04 0 0
23.12 0 0
23.2 0 0
23.28 0 0
23.36 0 0
23.44 0 0
23.52 0 0
23.6 0 0
23.68 0 0
23.76 0 0
23.84 0 0
23.92 0 0
24 0 0
24.08 0 0
24.16 0 0
24.24 0 0
24.32 0 0
24.4 0 0
24.48 0 0
24.56 0 0
24.64 0 0
24.72 0 0
24.8 0 0
24.88 0 0
24.96 0 0
25.04 0 0
25.12 0 0
25.2 0 0
25.28 0 0
25.36 0 0
25.44 0 0
25.52 0 0
25.6 0 0
25.68 0 0
25.76 0 0
25.84 0 0
25.92 0 0
26 0 0
26.08 0 0
26.16 0 0
26.24 0 0
26.32 0 0
26.4 0 0
26.48 0 0
26.56 0 0
26.64 0 0
26.72 0 0
26.8 0 0
26.88 0 0
26.96 0 0
27.04 0 0
27.12 0 0
27.2 0 0
27.28 0 0
27.36 0 0
27.44 0 0
27.52 0 0
27.6 0 0
27.68 0 0
27.76 0 0
27.84 0 0
27.92 0 0
28 0 0
28.08 0 0
28.16 0 0
28.24 0 0
28.32 0 0
28.4 0 0
28.48 0 0
28.56 0 0
28.64 0 0
28.72 0 0
28.8 0 0
28.88 0 0
28.96 0 0
29.04 0 0
29.12 0 0
29.2 0 0
29.28 0 0
29.36 0 0
29.44 0 0
29.52 0 0
29.6 0 0
29.68 0 0
29.76 0 0
29.84 0 0
29.92 0 0
30 0 0
30.08 0 0
30.16 0 0
30.24 0 0
30.32 0 0
30.4 0 0
30.48 0 0
30.56 0 0
30.64 0 0
30.72 0 0
30.8 0 0
30.88 0 0
30.96 0 0
31.04 0 0
31.12 0 0
31.2 0 0
31.28 0 0
31.36 0 0
31.44 0 0
31.52 0 0
31.6 0 0
31.68 0 0
31.76 0 0
31.84 0 0
31.92 0 0
0 0.005 0
0.08 0.005 0
0.16 0.005 0
0.24 0.005 0
0.32 0.005 0
0.4 0.005 0
0.48 0.005 0
0.56 0.005 0
0.64 0.005 0
0.72 0.005 0
0.8 0.005 0
0.88 0.005 0
0.96 0.005 0
1.04 0.005 0
1.12 0.005 0
1.2 0.005 0
1.28 0.005 0
1.36 0.005 0
1.44 0.005 0
1.52 0.005 0
1.6 0.005 0
1.68 0.005 0
1.76 0.005 0
1.84 0.005 0
1.92 0.005 0
2 0.005 0
2.08 0.005 0
2.16 0.005 0
2.24 0.005 0
2.32 0.005 0
2.4 0.005 0
2.48 0.005 0
2.56 0.005 0
2.64 0.005 0
2.72 0.005 0
2.8 0.005 0
2.88 0.005 0
2.96 0.005 0
3.04 0.005 0
3.12 0.005 0
3.2 0.005 0
3.28 0.005 0
3.36 0.005 0
3.44 0.005 0
3.52 0.005 0
3.6 0.005 0
3.68 0.005 0
3.76 0.005 0
3.84 0.005 0
3.92 0.005 0
4 0.005 0
4.08 0.005 0
4.16 0.005 0
4.24 0.005 0
4.32 0.005 0
4.4 0.005 0
4.48 0.005 0
4.56 0.005 0
4.64 0.005 0
4.72 0.005 0
4.8 0.005 0
4.88 0.005 0
4.96 0.005 0
5.04 0.005 0
5.12 0.005 0
5.2 0.005 0
5.28 0.005 0
5.36 0.005 0
5.44 0.005 0
5.52 0.005 0
5.6 0.005 0
5.68 0.005 0
5.76 0.005 0
5.84 0.005 0
5.92 0.005 0
6 0.005 0
6.08 0.005 0
6.16 0.005 0
6.24 0.005 0
6.32 0.005 0
6.4 0.005 0
6.48 0.005 0
6.56 0.005 0
6.64 0.005 0
6.72 0.005 0
6.8 0.005 0
6.88 0.005 0
6.96 0.005 0
7.04 0.005 0
7.12 0.005 0
7.2 0.005 0
7.28 0.005 0
7.36 0.005 0
7.44 0.005 0
7.52 0.005 0
7.6 0.005 0
7.68 0.005 0
7.76 0.005 0
7.84 0.005 0
7.92 0.005 0
8 0.005 0
8.08 0.005 0
8.16 0.005 0
8.24 0.005 0
8.32 0.005 0
8.4 0.005 0
8.48 0.005 0
8.56 0.005 0
8.64 0.005 0
8.72 0.005 0
8.8 0.005 0
8.88 0.005 0
8.96 0.005 0
9.04 0.005 0
9.12 0.005 0
9.2 0.005 0
9.28 0.005 0
9.36 0.005 0
9.44 0.005 0
9.52 0.005 0
9.6 0.005 0
9.68 0.005 0
9.76 0.005 0
9.84 0.005 0
9.92 0.005 0
10 0.005 0
10.08 0.005 0
10.16 0.005 0
10.24 0.005 0
10.32 0.005 0
10.4 0.005 0
10.48 0.005 0
10.56 0.005 0
10.64 0.005 0
10.72 0.005 0
10.8 0.005 0
10.88 0.005 0
10.96 0.005 0
11.04 0.005 0
11.12 0.005 0
11.2 0.005 0
11.28 0.005 0
11.36 0.005 0
11.44 0.005 0
11.52 0.005 0
11.6 0.005 0
11.68 0.005 0
11.76 0.005 0
11.84 0.005 0
11.92 0.005 0
12 0.005 0
12.08 0.005 0
12.16 0.005 0
12.24 0.005 0
12.32 0.005 0
12.4 0.005 0
12.48 0.005 0
12.56 0.005 0
12.64 0.005 0
12.72 0.005 0
12.8 0.005 0
12.88 0.005 0
12.96 0.005 0
13.04 0.005 0
13.12 0.005 0
13.2 0.005 0
13.28 0.005 0
13.36 0.005 0
13.44 0.005 0
13.52 0.005 0
13.6 0.005 0
13.68 0.005 0
13.76 0.005 0
13.84 0.005 0
13.92 0.005 0
14 0.005 0
14.08 0.005 0
14.16 0.005 0
14.24 0.005 0
14.32 0.005 0
14.4 0.005 0
14.48 0.005 0
14.56 0.005 0
14.64 0.005 0
14.72 0.005 0
14.8 0.005 0
14.88 0.005 0
14.96 0.005 0
15.04 0.005 0
15.12 0.005 0
15.2 0.005 0
15.28 0.005 0
15.36 0.005 0
15.44 0.005 0
15.52 0.005 0
15.6 0.005 0
15.68 0.005 0
15.76 0.005 0
15.84 0.005 0
15.92 0.005 0
16 0.005 0
16.08 0.005 0
16.16 0.005 0
16.24 0.005 0
16.32 0.005 0
16.4 0.005 0
16.48 0.005 0
16.56 0.005 0
16.64 0.005 0
16.72 0.005 0
16.8 0.005 0
16.88 0.005 0
16.96 0.005 0
17.04 0.005 0
17.12 0.005 0
17.2 0.005 0
17.28 0.005 0
17.36 0.005 0
17.44 0.005 0
17.52 0.005 0
17.6 0.005 0
17.68 0.005 0
17.76 0.005 0
17.84 0.005 0
17.92 0.005 0
18 0.005 0
18.08 0.005 0
18.16 0.005 0
18.24 0.005 0
18.32 0.005 0
18.4 0.005 0
18.48 0.005 0
18.56 0.005 0
18.64 0.005 0
18.72 0.005 0
18.8 0.005 0
18.88 0.005 0
18.96 0.005 0
19.04 0.005 0
19.12 0.005 0
19.2 0.005 0
19.28 0.005 0
19.36 0.005 0
19.44 0.005 0
19.52 0.005 0
19.6 0.005 0
19.68 0.005 0
19.76 0.005 0
19.84 0.005 0
19.92 0.005 0
20 0.005 0
20.08 0.005 0
20.16 0.005 0
20.24 0.005 0
20.32 0.005 0
20.4 0.005 0
20.48 0.005 0
20.56 0.005 0
20.64 0.005 0
20.72 0.005 0
20.8 0.005 0
20.88 0.005 0
20.96 0.005 0
21.04 0.005 0
21.12 0.005 0
21.2 0.005 0
21.28 0.005 0
21.36 0.005 0
21.44 0.005 0
21.52 0.005 0
21.6 0.005 0
21.68 0.005 0
21.76 0.005 0
21.84 0.005 0
21.92 0.005 0
22 0.005 0
22.08 0.005 0
22.16 0.005 0
22.24 0.005 0
22.32 0.005 0
22.4 0.005 0
22.48 0.005 0
22.56 0.005 0
22.64 0.005 0
22.72 0.005 0
22.8 0.005 0
22.88 0.005 0
22.96 0.005 0
23.04 0.005 0
23.12 0.005 0
23.2 0.005 0
23.28 0.005 0
23.36 0.005 0
23.44 0.005 0
23.52 0.005 0
23.6 0.005 0
23.68 0.005 0
23.76 0.005 0
23.84 0.005 0
23.92 0.005 0
24 0.005 0
24.08 0.005 0
24.16 0.005 0
24.24 0.005 0
24.32 0.005 0
24.4 0.005 0
24.48 0.005 0
24.56 0.005 0
24.64 0.005 0
24.72 0.005 0
24.8 0.005 0
24.88 0.005 0
24.96 0.005 0
25.04 0.005 0
25.12 0.005 0
25.2 0.005 0
25.28 0.005 0
25.36 0.005 0
25.44 0.005 0
25.52 0.005 0
25.6 0.005 0
25.68 0.005 0
25.76 0.005 0
25.84 0.005 0
25.92 0.005 0
26 0.005 0
26.08 0.005 0
26.16 0.005 0
26.24 0.005 0
26.32 0.005 0
26.4 0.005 0
26.48 0.005 0
26.56 0.005 0
26.64 0.005 0
26.72 0.005 0
26.8 0.005 0
26.88 0.005 0
26.96 0.005 0
27.04 0.005 0
27.12 0.005 0
27.2 0.005 0
27.28 0.005 0
27.36 0.005 0
27.44 0.005 0
27.52 0.005 0
27.6 0.005 0
27.68 0.005 0
27.76 0.005 0
27.84 0.005 0
27.92 0.005 0
28 0.005 0
28.08 0.005 0
28.16 0.005 0
28.24 0.005 0
28.32 0.005 0
28.4 0.005 0
28.48 0.005 0
28.56 0.005 0
28.64 0.005 0
28.72 0.005 0
28.8 0.005 0
28.88 0.005 0
28.96 0.005 0
29.04 0.005 0
29.12 0.005 0
29.2 0.005 0
29.28 0.005 0
29.36 0.005 0
29.44 0.005 0
29.52 0.005 0
29.6 0.005 0
29.68 0.005 0
29.76 0.005 0
29.84 0.005 0
29.92 0.005 0
30 0.005 0
30.08 0.005 0
30.16 0.005 0
30.24 0.005 0
30.32 0.005 0
30.4 0.005 0
30.48 0.005 0
30.56 0.005 0
30.64 0.005 0
30.72 0.005 0
30.8 0.005 0
30.88 0.005 0
30.96 0.005 0
31.04 0.005 0
31.12 0.005 0
31.2 0.005 0
31.28 0.005 0
31.36 0.005 0
31.44 0.005 0
31.52 0.005 0
31.6 0.005 0
31.68 0.005 0
31.76 0.005 0
31.84 0.005 0
31.92 0.005 0
0 0.01 0
0.08 0.01 0
0.16 0.01 0
0.24 0.01 0
0.32 0.01 0
0.4 0.01 0
0.48 0.01 0
0.56 0.01 0
0.64 0.01 0
0.72 0.01 0
0.8 0.01 0
0.88 0.01 0
0.96 0.01 0
1.04 0.01 0
1.12 0.01 0
1.2 0.01 0
1.28 0.01 0
1.36 0.01 0
1.44 0.01 0
1.52 0.01 0
1.6 0.01 0
1.68 0.01 0
1.76 0.01 0
1.84 0.01 0
1.92 0.01 0
2 0.01 0
2.08 0.01 0
2.16 0.01 0
2.24 0.01 0
2.32 0.01 0
2.4 0.01 0
2.48 0.01 0
2.56 0.01 0
2.64 0.01 0
2.72 0.01 0
2.8 0.01 0
2.88 0.01 0
2.96 0.01 0
3.04 0.01 0
3.12 0.01 0
3.2 0.01 0
3.28 0.01 0
3.36 0.01 0
3.44 0.01 0
3.52 0.01 0
3.6 0.01 0
3.68 0.01 0
3.76 0.01 0
3.84 0.01 0
3.92 0.01 0
4 0.01 0
4.08 0.01 0
4.16 0.01 0
4.24 0.01 0
4.32 0.01 0
4.4 0.01 0
4.48 0.01 0
4.56 0.01 0
4.64 0.01 0
4.72 0.01 0
4.8 0.01 0
4.88 0.01 0
4.96 0.01 0
5.04 0.01 0
5.12 0.01 0
[...]
POINT_DATA 80000

SCALARS v float 1
LOOKUP_TABLE default
0
0
0
0
0
0
0
0
0
0
0
0
0
0
0
0
0
0
0
0
0
0
0
0
0
0
0
0
0
0
0
0
0
0
0
0
0
0
0
0
0
0
0
0
0
0
0
0
0
0
0
0
0
0
0
0
0
0
0
0
0
0
0
0
0
0
0
0
0
0
0
0
0
0
0
0
0
0
0
0
0
0
0
0
0
0
0
0
0
0
0
0
0
0
0
0
0
0
0
0
0
0
0
0
0
0
0
0
0
0
0
0
0
0
0
0
0
0
0
0
0
0
0
0
0
0
0
0
0
0
0
0
0
0
0
0
0
0
0
0
0
0
0
0
0
0
0
0
0
0
0
0
0
0
0
0
0
0
0
0
0
0
0
0
0
0
0
0
0
0
0
0
0
0
0
0
0
0
0
0
0
0
0
0
0
0
0
0
0
0
0
0
0
0
0
0
0
0
0
0
0
0
0
0
0
0
0
0
0
0
0
0
0
0
0
0
0
0
0
0
0
0
0
0
0
0
0
0
0
0
0
0
0
0
0
0
0
0
0
0
0
0
0
0
0
0
0
0
0
0
0
0
0
0
0
0
0
0
0
0
0
0
0
0
0
0
0
0
0
0
0
0
0
0
0
0
0
0
0
0
0
0
0
0
0
0
0
0
0
0
0
0
0
0
0
0
0
0
0
0
0
0
0
0
0
0
0
0
0
0
0
0
0
0
0
0
0
0
0
0
0
0
0
0
0
0
0
0
0
0
0
0
0
0
0
0
0
0
0
0
0
0
0
0
0
0
0
0
0
0
0
0
0
0
0
0
0
0
0
0
0
0
0
0
0
0
0
0
0
0
0
0
0
0
0
0
0
0
0
0
0
0
0
0
0
0
0
0
0
0
0
0
0
0
0
0
0
0
0
0
-0.0542712
0.0542712
0.00396219
0.000998413
0.000492331
0.000302752
0.000207343
0.000151672
0.000116198
9.2202e-05
7.51998e-05
6.27094e-05
5.32994e-05
4.60451e-05
4.02511e-05
3.54154e-05
3.1278e-05
2.77711e-05
2.48474e-05
2.23245e-05
1.98889e-05
1.7256e-05
1.43522e-05
1.13721e-05
8.66998e-06
6.56543e-06
5.18806e-06
4.44217e-06
4.08526e-06
3.85247e-06
3.55489e-06
3.1166e-06
2.55711e-06
1.94734e-06
1.3662e-06
8.72472e-07
4.94511e-07
2.33095e-07
7.07779e-08
-1.78037e-08
-5.79633e-08
-7.04012e-08
-6.96776e-08
-6.46682e-08
-5.99461e-08
-5.7302e-08
-5.70012e-08
-5.86372e-08
-6.1629e-08
-6.54536e-08
-6.97267e-08
-7.41994e-08
-7.87301e-08
-8.32472e-08
-8.77232e-08
-9.21524e-08
-9.65413e-08
-1.00899e-07
-1.05236e-07
-1.09562e-07
-1.13884e-07
-1.18209e-07
-1.22543e-07
-1.26888e-07
-1.3125e-07
-1.3563e-07
-1.40032e-07
-1.44456e-07
-1.48906e-07
-1.53382e-07
-1.57885e-07
-1.62418e-07
-1.66981e-07
-1.71574e-07
-1.76199e-07
-1.80856e-07
-1.85546e-07
-1.9027e-07
-1.95027e-07
-1.99819e-07
-2.04646e-07
-2.09507e-07
-2.14405e-07
-2.19338e-07
-2.24307e-07
-2.29313e-07
-2.34356e-07
-2.39436e-07
-2.44553e-07
-2.49709e-07
-2.54902e-07
-2.60134e-07
-2.65406e-07
-2.70716e-07
-2.76066e-07
-2.81456e-07
-2.86887e-07
-2.92359e-07
-2.97872e-07
-3.03427e-07
-3.09024e-07
-3.14664e-07
-3.20347e-07
-3.26074e-07
-3.31846e-07
-3.37661e-07
-3.43523e-07
-3.49429e-07
-3.55383e-07
-3.61383e-07
-3.67431e-07
-3.73526e-07
-3.79671e-07
-3.85864e-07
-3.92107e-07
-3.98401e-07
-4.04746e-07
-4.11143e-07
-4.17592e-07
-4.24094e-07
-4.3065e-07
-4.37261e-07
-4.43927e-07
-4.50649e-07
-4.57427e-07
-4.64263e-07
-4.71158e-07
-4.78112e-07
-4.85125e-07
-4.92199e-07
-4.99336e-07
-5.06534e-07
-5.13796e-07
-5.21123e-07
-5.28515e-07
-5.35973e-07
-5.43499e-07
-5.51092e-07
-5.58756e-07
-5.66489e-07
-5.74295e-07
-5.82172e-07
-5.90124e-07
-5.98151e-07
-6.06254e-07
-6.14435e-07
-6.22694e-07
-6.31033e-07
-6.39454e-07
-6.47957e-07
-6.56545e-07
-6.65218e-07
-6.73978e-07
-6.82827e-07
-6.91766e-07
-7.00796e-07
-7.09921e-07
-7.1914e-07
-7.28457e-07
-7.37872e-07
-7.47387e-07
-7.57005e-07
-7.66728e-07
-7.76557e-07
-7.86495e-07
-7.96543e-07
-8.06705e-07
-8.16981e-07
-8.27375e-07
-8.37889e-07
-8.48525e-07
-8.59287e-07
-8.70176e-07
-8.81196e-07
-8.92349e-07
-9.03638e-07
-9.15067e-07
-9.26638e-07
-9.38355e-07
-9.50221e-07
-9.62239e-07
-9.74414e-07
-9.86748e-07
-9.99246e-07
-1.01191e-06
-1.02475e-06
-1.03776e-06
-1.05096e-06
-1.06434e-06
-1.07791e-06
-1.09167e-06
-1.10564e-06
-1.11981e-06
-1.13419e-06
-1.14879e-06
-1.16361e-06
-1.17866e-06
-1.19395e-06
-1.20947e-06
-1.22525e-06
-1.24128e-06
-1.25758e-06
-1.27415e-06
-1.291e-06
-1.30814e-06
-1.32557e-06
-1.34331e-06
-1.36137e-06
-1.37975e-06
-1.39846e-06
-1.41753e-06
-1.43695e-06
-1.45673e-06
-1.4769e-06
-1.49746e-06
-1.51843e-06
-1.53981e-06
-1.56163e-06
-1.58389e-06
-1.60662e-06
-1.62982e-06
-1.65351e-06
-1.67771e-06
-1.70243e-06
-1.7277e-06
-1.75353e-06
-1.77994e-06
-1.80694e-06
-1.83457e-06
-1.86283e-06
-1.89175e-06
-1.92135e-06
-1.95166e-06
-1.98269e-06
-2.01447e-06
-2.04703e-06
-2.08038e-06
-2.11456e-06
-2.14958e-06
-2.18549e-06
-2.22229e-06
-2.26003e-06
-2.29873e-06
-2.33841e-06
-2.37911e-06
-2.42086e-06
-2.46368e-06
-2.50761e-06
-2.55267e-06
-2.59891e-06
-2.64634e-06
-2.695e-06
-2.74493e-06
-2.79615e-06
-2.8487e-06
-2.9026e-06
-2.95789e-06
-3.0146e-06
-3.07276e-06
-3.1324e-06
-3.19355e-06
-3.25624e-06
-3.3205e-06
-3.38635e-06
-3.45383e-06
-3.52296e-06
-3.59376e-06
-3.66626e-06
-3.74047e-06
-3.81642e-06
-3.89414e-06
-3.97362e-06
-4.0549e-06
-4.13797e-06
-4.22286e-06
-4.30957e-06
-4.39811e-06
-4.48847e-06
-4.58066e-06
-4.67468e-06
-4.77052e-06
-4.86816e-06
-4.9676e-06
-5.06882e-06
-5.17179e-06
-5.2765e-06
-5.38292e-06
-5.49101e-06
-5.60073e-06
-5.71205e-06
-5.82491e-06
-5.93928e-06
-6.05508e-06
-6.17227e-06
-6.29078e-06
-6.41053e-06
-6.53146e-06
-6.65348e-06
-6.7765e-06
-6.90045e-06
-7.02522e-06
-7.15071e-06
-7.27682e-06
-7.40344e-06
-7.53046e-06
-7.65774e-06
-7.78518e-06
-7.91264e-06
-8.03999e-06
-8.16708e-06
-8.29379e-06
-8.41996e-06
-8.54544e-06
-8.67007e-06
-8.79372e-06
-8.9162e-06
-9.03737e-06
-9.15705e-06
-9.27508e-06
-9.39129e-06
-9.50551e-06
-9.61756e-06
-9.72728e-06
-9.83449e-06
-9.93902e-06
-1.00407e-05
-1.01393e-05
-1.02348e-05
-1.03268e-05
-1.04154e-05
-1.05002e-05
-1.05811e-05
-1.0658e-05
-1.07308e-05
-1.07992e-05
-1.0863e-05
-1.09223e-05
-1.09768e-05
-1.10264e-05
-1.10709e-05
-1.11103e-05
-1.11444e-05
-1.11731e-05
-1.11963e-05
-1.1214e-05
-1.12259e-05
-1.12322e-05
-1.12326e-05
-1.12272e-05
-1.12158e-05
-1.11985e-05
-1.11751e-05
-1.11458e-05
-1.11104e-05
-1.1069e-05
-1.10215e-05
-1.0968e-05
-1.09085e-05
-1.0843e-05
-1.07716e-05
-1.06943e-05
-1.06112e-05
-1.05224e-05
-1.04279e-05
-1.03278e-05
-1.02223e-05
-1.01114e-05
-9.9953e-06
-9.87398e-06
-9.74785e-06
-9.61649e-06
-9.48118e-06
-9.33984e-06
-9.19687e-06
-9.04473e-06
-8.89695e-06
-8.73165e-06
-8.58368e-06
-8.40148e-06
-8.25848e-06
-8.05667e-06
-7.92097e-06
-7.70139e-06
-7.57018e-06
-7.33912e-06
-7.20702e-06
-6.97174e-06
-6.83211e-06
-6.6048e-06
-6.44073e-06
-6.24698e-06
-6.03389e-06
-5.89106e-06
-5.63174e-06
-5.53117e-06
-5.20113e-06
-5.25843e-06
-4.40184e-06
-4.71937e-06
-4.71937e-06
-0.0952159
0.0952159
0.0129757
0.00385465
0.00193429
0.00119612
0.000821531
0.000601937
0.000461557
0.000366357
0.000298778
0.000249084
0.000211612
0.000182666
0.000159486
0.000140139
0.000123642
0.0001097
9.80169e-05
8.77841e-05
7.77796e-05
6.70116e-05
5.53505e-05
4.36483e-05
3.32598e-05
2.5307e-05
2.01492e-05
1.73181e-05
1.5853e-05
1.47705e-05
1.34078e-05
1.15317e-05
9.25155e-06
6.84742e-06
4.6109e-06
2.74756e-06
1.34606e-06
3.94126e-07
-1.84091e-07
-4.89292e-07
-6.18306e-07
-6.48463e-07
-6.33111e-07
-6.04143e-07
-5.77574e-07
-5.59356e-07
-5.50044e-07
-5.47904e-07
-5.50685e-07
-5.56421e-07
-5.63691e-07
-5.71589e-07
-5.79602e-07
-5.87476e-07
-5.95118e-07
-6.02511e-07
-6.0968e-07
-6.16661e-07
-6.23495e-07
-6.30213e-07
-6.36847e-07
-6.43418e-07
-6.49948e-07
-6.56451e-07
-6.6294e-07
-6.69425e-07
-6.75916e-07
-6.82418e-07
-6.8894e-07
-6.95485e-07
-7.02059e-07
-7.08665e-07
-7.15306e-07
-7.21986e-07
-7.28706e-07
-7.35469e-07
-7.42277e-07
-7.49129e-07
-7.5603e-07
-7.62977e-07
-7.69974e-07
-7.7702e-07
-7.84117e-07
-7.91263e-07
-7.98462e-07
-8.05711e-07
-8.13013e-07
-8.20367e-07
-8.27774e-07
-8.35233e-07
-8.42748e-07
-8.50315e-07
-8.57938e-07
-8.65614e-07
-8.73348e-07
-8.81136e-07
-8.88982e-07
-8.96885e-07
-9.04846e-07
-9.12864e-07
-9.20943e-07
-9.2908e-07
-9.37278e-07
-9.45537e-07
-9.53858e-07
-9.62241e-07
-9.70688e-07
-9.79199e-07
-9.87775e-07
-9.96415e-07
-1.00512e-06
-1.0139e-06
-1.02274e-06
-1.03165e-06
-1.04063e-06
-1.04968e-06
-1.05881e-06
-1.068e-06
-1.07727e-06
-1.08662e-06
-1.09604e-06
-1.10553e-06
-1.11511e-06
-1.12476e-06
-1.13449e-06
-1.1443e-06
-1.15419e-06
-1.16417e-06
-1.17423e-06
-1.18437e-06
-1.19461e-06
-1.20492e-06
-1.21533e-06
-1.22583e-06
-1.23642e-06
-1.2471e-06
-1.25788e-06
-1.26875e-06
-1.27972e-06
-1.29079e-06
-1.30196e-06
-1.31323e-06
-1.32461e-06
-1.33608e-06
-1.34767e-06
-1.35936e-06
-1.37117e-06
-1.38308e-06
-1.39511e-06
-1.40726e-06
-1.41952e-06
-1.4319e-06
-1.44441e-06
-1.45703e-06
-1.46979e-06
-1.48267e-06
-1.49568e-06
-1.50883e-06
-1.52211e-06
-1.53553e-06
-1.54909e-06
-1.56279e-06
-1.57664e-06
-1.59063e-06
-1.60478e-06
-1.61908e-06
-1.63354e-06
-1.64816e-06
-1.66294e-06
-1.67789e-06
-1.69301e-06
-1.70831e-06
-1.72378e-06
-1.73943e-06
-1.75527e-06
-1.7713e-06
-1.78752e-06
-1.80393e-06
-1.82055e-06
-1.83738e-06
-1.85442e-06
-1.87167e-06
-1.88914e-06
-1.90684e-06
-1.92477e-06
-1.94294e-06
-1.96135e-06
-1.98001e-06
-1.99892e-06
-2.0181e-06
-2.03754e-06
-2.05726e-06
-2.07726e-06
-2.09754e-06
-2.11813e-06
-2.13902e-06
-2.16022e-06
-2.18174e-06
-2.20359e-06
-2.22578e-06
-2.24832e-06
-2.27121e-06
-2.29447e-06
-2.31811e-06
-2.34214e-06
-2.36657e-06
-2.39141e-06
-2.41668e-06
-2.44238e-06
-2.46853e-06
-2.49514e-06
-2.52223e-06
-2.54981e-06
-2.5779e-06
-2.6065e-06
-2.63564e-06
-2.66534e-06
-2.6956e-06
-2.72645e-06
-2.75791e-06
-2.78999e-06
-2.82272e-06
-2.8561e-06
-2.89017e-06
-2.92495e-06
-2.96045e-06
-2.99671e-06
-3.03373e-06
-3.07155e-06
-3.11019e-06
-3.14967e-06
-3.19003e-06
-3.23128e-06
-3.27345e-06
-3.31658e-06
-3.36069e-06
-3.4058e-06
-3.45195e-06
-3.49917e-06
-3.54749e-06
-3.59694e-06
-3.64754e-06
-3.69934e-06
-3.75237e-06
-3.80665e-06
-3.86222e-06
-3.91912e-06
-3.97738e-06
-4.03702e-06
-4.0981e-06
-4.16063e-06
-4.22466e-06
-4.29021e-06
-4.35733e-06
-4.42605e-06
-4.49639e-06
-4.56839e-06
-4.64209e-06
-4.71752e-06
-4.7947e-06
-4.87366e-06
-4.95445e-06
-5.03708e-06
-5.12157e-06
-5.20797e-06
-5.29628e-06
-5.38654e-06
-5.47875e-06
-5.57295e-06
-5.66915e-06
-5.76735e-06
-5.86758e-06
-5.96984e-06
-6.07414e-06
-6.18047e-06
-6.28885e-06
-6.39927e-06
-6.51172e-06
-6.62619e-06
-6.74266e-06
-6.86113e-06
-6.98156e-06
-7.10394e-06
-7.22822e-06
-7.35439e-06
-7.48238e-06
-7.61217e-06
-7.7437e-06
-7.87692e-06
-8.01176e-06
-8.14817e-06
-8.28607e-06
-8.42539e-06
-8.56604e-06
-8.70793e-06
-8.85098e-06
-8.99509e-06
-9.14015e-06
-9.28606e-06
-9.43268e-06
-9.57992e-06
-9.72764e-06
-9.8757e-06
-1.0024e-05
-1.01723e-05
-1.03206e-05
-1.04686e-05
-1.06162e-05
-1.07633e-05
-1.09097e-05
-1.10552e-05
-1.11996e-05
-1.13427e-05
-1.14845e-05
-1.16246e-05
-1.17629e-05
-1.18992e-05
-1.20334e-05
-1.21651e-05
-1.22943e-05
-1.24207e-05
-1.25441e-05
-1.26643e-05
-1.27812e-05
-1.28945e-05
-1.3004e-05
-1.31096e-05
-1.3211e-05
-1.3308e-05
-1.34005e-05
-1.34883e-05
-1.35712e-05
-1.3649e-05
-1.37216e-05
-1.37887e-05
-1.38503e-05
-1.39061e-05
-1.39561e-05
-1.4e-05
-1.40378e-05
-1.40693e-05
-1.40943e-05
-1.41129e-05
-1.41249e-05
-1.41301e-05
-1.41286e-05
-1.41202e-05
-1.41049e-05
-1.40827e-05
-1.40534e-05
-1.40171e-05
-1.39737e-05
-1.39232e-05
-1.38657e-05
-1.38012e-05
-1.37296e-05
-1.3651e-05
-1.35654e-05
-1.3473e-05
-1.33738e-05
-1.32678e-05
-1.31551e-05
-1.30359e-05
-1.29103e-05
-1.27783e-05
-1.26402e-05
-1.2496e-05
-1.2346e-05
-1.219e-05
-1.2029e-05
-1.18613e-05
-1.16911e-05
-1.15106e-05
-1.13352e-05
-1.11373e-05
-1.09655e-05
-1.07398e-05
-1.05871e-05
-1.03177e-05
-1.02017e-05
-9.87599e-06
-9.80417e-06
-9.42647e-06
-9.38641e-06
-8.97828e-06
-8.94759e-06
-8.53403e-06
-8.48631e-06
-8.10962e-06
-7.98053e-06
-7.73448e-06
-7.42757e-06
-7.37897e-06
-6.89975e-06
-7.01035e-06
-6.27809e-06
-6.95109e-06
-4.29008e-06
-5.86745e-06
-5.86745e-06
-0.125293
0.125293
0.0249359
0.00835796
0.00427783
0.0026612
0.00183313
0.00134537
0.0010326
0.000820007
0.000668845
0.000557581
0.000473614
0.000408648
0.000356531
0.000313033
0.000276035
0.000244816
0.000218554
0.000195314
0.000172422
0.000147885
0.000121662
9.5759e-05
7.31013e-05
5.59555e-05
4.48856e-05
3.87204e-05
3.53321e-05
3.26391e-05
2.92996e-05
2.48954e-05
1.97148e-05
1.43762e-05
9.49364e-06
5.48134e-06
2.50018e-06
4.99692e-07
-6.98637e-07
-1.31875e-06
-1.57053e-06
-1.61879e-06
-1.57564e-06
-1.50713e-06
-1.44579e-06
-1.40317e-06
-1.37983e-06
-1.37174e-06
-1.37399e-06
-1.38238e-06
-1.39389e-06
-1.40663e-06
-1.41954e-06
-1.43209e-06
-1.44409e-06
-1.45552e-06
-1.46644e-06
-1.47691e-06
-1.48703e-06
-1.49686e-06
-1.50648e-06
-1.51593e-06
-1.52524e-06
-1.53447e-06
-1.54362e-06
-1.55273e-06
-1.56181e-06
-1.57088e-06
-1.57995e-06
-1.58903e-06
-1.59814e-06
-1.60728e-06
-1.61645e-06
-1.62567e-06
-1.63494e-06
-1.64425e-06
-1.65363e-06
-1.66306e-06
-1.67256e-06
-1.68211e-06
-1.69173e-06
-1.70142e-06
-1.71117e-06
-1.72099e-06
-1.73088e-06
-1.74083e-06
-1.75086e-06
-1.76095e-06
-1.77111e-06
-1.78134e-06
-1.79165e-06
-1.80202e-06
-1.81247e-06
-1.82298e-06
-1.83357e-06
-1.84424e-06
-1.85498e-06
-1.86579e-06
-1.87668e-06
-1.88764e-06
-1.89869e-06
-1.9098e-06
-1.921e-06
-1.93228e-06
-1.94364e-06
-1.95508e-06
-1.96661e-06
-1.97822e-06
-1.98991e-06
-2.00169e-06
-2.01355e-06
-2.02551e-06
-2.03755e-06
-2.04968e-06
-2.06191e-06
-2.07422e-06
-2.08663e-06
-2.09914e-06
-2.11174e-06
-2.12444e-06
-2.13723e-06
-2.15013e-06
-2.16313e-06
-2.17623e-06
-2.18943e-06
-2.20274e-06
-2.21616e-06
-2.22969e-06
-2.24332e-06
-2.25707e-06
-2.27093e-06
-2.2849e-06
-2.299e-06
-2.3132e-06
-2.32753e-06
-2.34198e-06
-2.35655e-06
-2.37125e-06
-2.38607e-06
-2.40103e-06
-2.41611e-06
-2.43132e-06
-2.44668e-06
-2.46216e-06
-2.47779e-06
-2.49356e-06
-2.50947e-06
-2.52552e-06
-2.54173e-06
-2.55808e-06
-2.57459e-06
-2.59126e-06
-2.60808e-06
-2.62506e-06
-2.64221e-06
-2.65952e-06
-2.677e-06
-2.69466e-06
-2.71249e-06
-2.73049e-06
-2.74868e-06
-2.76706e-06
-2.78562e-06
-2.80438e-06
-2.82333e-06
-2.84248e-06
-2.86183e-06
-2.88139e-06
-2.90116e-06
-2.92115e-06
-2.94135e-06
-2.96178e-06
-2.98244e-06
-3.00333e-06
-3.02446e-06
-3.04583e-06
-3.06745e-06
-3.08932e-06
-3.11145e-06
-3.13384e-06
-3.1565e-06
-3.17944e-06
-3.20266e-06
-3.22617e-06
-3.24997e-06
-3.27407e-06
-3.29849e-06
-3.32321e-06
-3.34827e-06
-3.37365e-06
-3.39937e-06
-3.42543e-06
-3.45185e-06
-3.47863e-06
-3.50579e-06
-3.53333e-06
-3.56126e-06
-3.58959e-06
-3.61834e-06
-3.6475e-06
-3.6771e-06
-3.70715e-06
-3.73765e-06
-3.76862e-06
-3.80007e-06
-3.83202e-06
-3.86447e-06
-3.89745e-06
-3.93096e-06
-3.96502e-06
-3.99965e-06
-4.03486e-06
-4.07066e-06
-4.10708e-06
-4.14414e-06
-4.18184e-06
-4.22022e-06
-4.25927e-06
-4.29904e-06
-4.33953e-06
-4.38077e-06
-4.42278e-06
-4.46558e-06
-4.50919e-06
-4.55364e-06
-4.59895e-06
-4.64515e-06
-4.69225e-06
-4.74029e-06
-4.78928e-06
-4.83927e-06
-4.89027e-06
-4.94232e-06
-4.99544e-06
-5.04966e-06
-5.10501e-06
-5.16152e-06
-5.21922e-06
-5.27815e-06
-5.33832e-06
-5.39979e-06
-5.46257e-06
-5.52671e-06
-5.59223e-06
-5.65917e-06
-5.72755e-06
-5.79743e-06
-5.86882e-06
-5.94176e-06
-6.01629e-06
-6.09244e-06
-6.17023e-06
-6.24972e-06
-6.33091e-06
-6.41386e-06
-6.49858e-06
-6.58512e-06
-6.67349e-06
-6.76374e-06
-6.85587e-06
-6.94993e-06
-7.04594e-06
-7.14392e-06
-7.24389e-06
-7.34587e-06
-7.44988e-06
-7.55594e-06
-7.66405e-06
-7.77424e-06
-7.88651e-06
-8.00087e-06
-8.11732e-06
-8.23585e-06
-8.35648e-06
-8.47918e-06
-8.60396e-06
-8.73079e-06
-8.85966e-06
-8.99055e-06
-9.12343e-06
-9.25828e-06
-9.39505e-06
-9.5337e-06
-9.6742e-06
-9.8165e-06
-9.96053e-06
-1.01062e-05
-1.02536e-05
-1.04024e-05
-1.05528e-05
-1.07045e-05
-1.08575e-05
-1.10117e-05
-1.11671e-05
-1.13234e-05
-1.14806e-05
-1.16386e-05
-1.17972e-05
-1.19564e-05
-1.21159e-05
-1.22757e-05
-1.24356e-05
-1.25955e-05
-1.27551e-05
-1.29144e-05
-1.30732e-05
-1.32312e-05
-1.33884e-05
-1.35445e-05
-1.36993e-05
-1.38527e-05
-1.40045e-05
-1.41545e-05
-1.43024e-05
-1.44481e-05
-1.45914e-05
-1.4732e-05
-1.48698e-05
-1.50045e-05
-1.51359e-05
-1.52639e-05
-1.53882e-05
-1.55086e-05
-1.56249e-05
-1.57369e-05
-1.58443e-05
-1.5947e-05
-1.60448e-05
-1.61375e-05
-1.62249e-05
-1.63067e-05
-1.63829e-05
-1.64532e-05
-1.65175e-05
-1.65756e-05
-1.66273e-05
-1.66725e-05
-1.6711e-05
-1.67427e-05
-1.67675e-05
-1.67853e-05
-1.67959e-05
-1.67993e-05
-1.67953e-05
-1.67838e-05
-1.67649e-05
-1.67385e-05
-1.67044e-05
-1.66627e-05
-1.66133e-05
-1.65563e-05
-1.64915e-05
-1.64191e-05
-1.63391e-05
-1.62515e-05
-1.61562e-05
-1.60535e-05
-1.59433e-05
-1.58258e-05
-1.5701e-05
-1.55691e-05
-1.543e-05
-1.52841e-05
-1.51314e-05
-1.4972e-05
-1.48062e-05
-1.46339e-05
-1.44558e-05
-1.42711e-05
-1.4082e-05
-1.38845e-05
-1.36873e-05
-1.34739e-05
-1.32764e-05
-1.30368e-05
-1.28569e-05
-1.2568e-05
-1.24376e-05
-1.20646e-05
-1.2021e-05
-1.15352e-05
-1.15941e-05
-1.10032e-05
-1.11374e-05
-1.04866e-05
-1.06469e-05
-9.98845e-06
-1.01184e-05
-9.53996e-06
-9.50273e-06
-9.20362e-06
-8.78926e-06
-8.91587e-06
-8.13249e-06
-8.59572e-06
-7.28941e-06
-8.90879e-06
-3.58177e-06
-7.07775e-06
-7.07775e-06
-0.146488
0.146488
0.0383104
0.0142339
0.00745565
0.00467211
0.00322938
0.00237471
0.00182472
0.00144994
0.00118298
0.00098627
0.000837677
0.00072254
0.000630036
0.000552833
0.000487297
0.000432058
0.000385424
0.00034381
0.000302594
0.000258597
0.0002121
0.000166778
0.00012762
9.82647e-05
7.93599e-05
6.86682e-05
6.24757e-05
5.72875e-05
5.09416e-05
4.28482e-05
3.35765e-05
2.42024e-05
1.57517e-05
8.88857e-06
3.84229e-06
4.9078e-07
-1.49347e-06
-2.50352e-06
-2.90002e-06
-2.9621e-06
-2.8773e-06
-2.75474e-06
-2.64719e-06
-2.57269e-06
-2.53122e-06
-2.51555e-06
-2.5172e-06
-2.52902e-06
-2.54597e-06
-2.56487e-06
-2.58396e-06
-2.60238e-06
-2.61982e-06
-2.63626e-06
-2.65179e-06
-2.66654e-06
-2.68066e-06
-2.69426e-06
-2.70747e-06
-2.72035e-06
-2.73299e-06
-2.74543e-06
-2.75773e-06
-2.76992e-06
-2.78203e-06
-2.7941e-06
-2.80614e-06
-2.81817e-06
-2.83021e-06
-2.84227e-06
-2.85437e-06
-2.86651e-06
-2.87871e-06
-2.89097e-06
-2.90329e-06
-2.91569e-06
-2.92816e-06
-2.9407e-06
-2.95333e-06
-2.96604e-06
-2.97883e-06
-2.9917e-06
-3.00466e-06
-3.0177e-06
-3.03083e-06
-3.04405e-06
-3.05735e-06
-3.07074e-06
-3.08422e-06
-3.09778e-06
-3.11144e-06
-3.12518e-06
-3.13902e-06
-3.15294e-06
-3.16696e-06
-3.18107e-06
-3.19527e-06
-3.20957e-06
-3.22396e-06
-3.23845e-06
-3.25303e-06
-3.26772e-06
-3.2825e-06
-3.29739e-06
-3.31238e-06
-3.32747e-06
-3.34266e-06
-3.35796e-06
-3.37337e-06
-3.38889e-06
-3.40452e-06
-3.42026e-06
-3.43611e-06
-3.45207e-06
-3.46816e-06
-3.48435e-06
-3.50067e-06
-3.51711e-06
-3.53367e-06
-3.55035e-06
-3.56716e-06
-3.58409e-06
-3.60116e-06
-3.61835e-06
-3.63567e-06
-3.65313e-06
-3.67072e-06
-3.68845e-06
-3.70632e-06
-3.72433e-06
-3.74249e-06
-3.76078e-06
-3.77923e-06
-3.79782e-06
-3.81657e-06
-3.83546e-06
-3.85452e-06
-3.87373e-06
-3.8931e-06
-3.91263e-06
-3.93234e-06
-3.9522e-06
-3.97224e-06
-3.99245e-06
-4.01284e-06
-4.0334e-06
-4.05414e-06
-4.07507e-06
-4.09619e-06
-4.11749e-06
-4.13899e-06
-4.16068e-06
-4.18258e-06
-4.20467e-06
-4.22697e-06
-4.24948e-06
-4.27221e-06
-4.29515e-06
-4.31831e-06
-4.3417e-06
-4.36531e-06
-4.38916e-06
-4.41324e-06
-4.43757e-06
-4.46214e-06
-4.48696e-06
-4.51203e-06
-4.53736e-06
-4.56296e-06
-4.58883e-06
-4.61497e-06
-4.64139e-06
-4.6681e-06
-4.69509e-06
-4.72239e-06
-4.74998e-06
-4.77789e-06
-4.80611e-06
-4.83466e-06
-4.86353e-06
-4.89273e-06
-4.92228e-06
-4.95218e-06
-4.98244e-06
-5.01306e-06
-5.04405e-06
-5.07543e-06
-5.10719e-06
-5.13936e-06
-5.17193e-06
-5.20492e-06
-5.23834e-06
-5.27219e-06
-5.30649e-06
-5.34125e-06
-5.37648e-06
-5.41219e-06
-5.44838e-06
-5.48508e-06
-5.5223e-06
-5.56004e-06
-5.59833e-06
-5.63717e-06
-5.67658e-06
-5.71657e-06
-5.75716e-06
-5.79837e-06
-5.8402e-06
-5.88268e-06
-5.92582e-06
-5.96964e-06
-6.01415e-06
-6.05938e-06
-6.10534e-06
-6.15206e-06
-6.19954e-06
-6.24782e-06
-6.29691e-06
-6.34684e-06
-6.39762e-06
-6.44928e-06
-6.50184e-06
-6.55533e-06
-6.60977e-06
-6.66518e-06
-6.72159e-06
-6.77903e-06
-6.83751e-06
-6.89708e-06
-6.95774e-06
-7.01955e-06
-7.08251e-06
-7.14666e-06
-7.21203e-06
-7.27866e-06
-7.34655e-06
-7.41576e-06
-7.48631e-06
-7.55823e-06
-7.63154e-06
-7.70629e-06
-7.7825e-06
-7.86021e-06
-7.93945e-06
-8.02024e-06
-8.10262e-06
-8.18662e-06
-8.27226e-06
-8.35959e-06
-8.44863e-06
-8.53941e-06
-8.63196e-06
-8.7263e-06
-8.82246e-06
-8.92048e-06
-9.02036e-06
-9.12215e-06
-9.22585e-06
-9.33149e-06
-9.43909e-06
-9.54868e-06
-9.66025e-06
-9.77383e-06
-9.88942e-06
-1.0007e-05
-1.01267e-05
-1.02484e-05
-1.03721e-05
-1.04979e-05
-1.06257e-05
-1.07555e-05
-1.08873e-05
-1.10211e-05
-1.11569e-05
-1.12947e-05
-1.14343e-05
-1.15759e-05
-1.17193e-05
-1.18645e-05
-1.20115e-05
-1.21602e-05
-1.23106e-05
-1.24625e-05
-1.2616e-05
-1.2771e-05
-1.29273e-05
-1.3085e-05
-1.32439e-05
-1.34039e-05
-1.35649e-05
-1.37268e-05
-1.38895e-05
-1.40529e-05
-1.42169e-05
-1.43813e-05