# vtk DataFile Version 2.0
FlowField
ASCII
DATASET STRUCTURED_GRID
DIMENSIONS 400 1 200
POINTS 80000 float
0 0 0
0.08 0 0
0.16 0 0
0.24 0 0
0.32 0 0
0.4 0 0
0.48 0 0
0.56 0 0
0.64 0 0
0.72 0 0
0.8 0 0
0.88 0 0
0.96 0 0
1.04 0 0
1.12 0 0
1.2 0 0
1.28 0 0
1.36 0 0
1.44 0 0
1.52 0 0
1.6 0 0
1.68 0 0
1.76 0 0
1.84 0 0
1.92 0 0
2 0 0
2.08 0 0
2.16 0 0
2.24 0 0
2.32 0 0
2.4 0 0
2.48 0 0
2.56 0 0
2.64 0 0
2.72 0 0
2.8 0 0
2.88 0 0
2.96 0 0
3.04 0 0
3.12 0 0
3.2 0 0
3.28 0 0
3.36 0 0
3.44 0 0
3.52 0 0
3.6 0 0
3.68 0 0
3.76 0 0
3.84 0 0
3.92 0 0
4 0 0
4.08 0 0
4.16 0 0
4.24 0 0
4.32 0 0
4.4 0 0
4.48 0 0
4.56 0 0
4.64 0 0
4.72 0 0
4.8 0 0
4.88 0 0
4.96 0 0
5.04 0 0
5.12 0 0
5.2 0 0
5.28 0 0
5.36 0 0
5.44 0 0
5.52 0 0
5.6 0 0
5.68 0 0
5.76 0 0
5.84 0 0
5.92 0 0
6 0 0
6.08 0 0
6.16 0 0
6.24 0 0
6.32 0 0
6.4 0 0
6.48 0 0
6.56 0 0
6.64 0 0
6.72 0 0
6.8 0 0
6.88 0 0
6.96 0 0
7.04 0 0
7.12 0 0
7.2 0 0
7.28 0 0
7.36 0 0
7.44 0 0
7.52 0 0
7.6 0 0
7.68 0 0
7.76 0 0
7.84 0 0
7.92 0 0
8 0 0
8.08 0 0
8.16 0 0
8.24 0 0
8.32 0 0
8.4 0 0
8.48 0 0
8.56 0 0
8.64 0 0
8.72 0 0
8.8 0 0
8.88 0 0
8.96 0 0
9.04 0 0
9.12 0 0
9.2 0 0
9.28 0 0
9.36 0 0
9.44 0 0
9.52 0 0
9.6 0 0
9.68 0 0
9.76 0 0
9.84 0 0
9.92 0 0
10 0 0
10.08 0 0
10.16 0 0
10.24 0 0
10.32 0 0
10.4 0 0
10.48 0 0
10.56 0 0
10.64 0 0
10.72 0 0
10.8 0 0
10.88 0 0
10.96 0 0
11.04 0 0
11.12 0 0
11.2 0 0
11.28 0 0
11.36 0 0
11.44 0 0
11.52 0 0
11.6 0 0
11.68 0 0
11.76 0 0
11.84 0 0
11.92 0 0
12 0 0
12.08 0 0
12.16 0 0
12.24 0 0
12.32 0 0
12.4 0 0
12.48 0 0
12.56 0 0
12.64 0 0
12.72 0 0
12.8 0 0
12.88 0 0
12.96 0 0
13.04 0 0
13.12 0 0
13.2 0 0
13.28 0 0
13.36 0 0
13.44 0 0
13.52 0 0
13.6 0 0
13.68 0 0
13.76 0 0
13.84 0 0
13.92 0 0
14 0 0
14.08 0 0
14.16 0 0
14.24 0 0
14.32 0 0
14.4 0 0
14.48 0 0
14.56 0 0
14.64 0 0
14.72 0 0
14.8 0 0
14.88 0 0
14.96 0 0
15.04 0 0
15.12 0 0
15.2 0 0
15.28 0 0
15.36 0 0
15.44 0 0
15.52 0 0
15.6 0 0
15.68 0 0
15.76 0 0
15.84 0 0
15.92 0 0
16 0 0
16.08 0 0
16.16 0 0
16.24 0 0
16.32 0 0
16.4 0 0
16.48 0 0
16.56 0 0
16.64 0 0
16.72 0 0
16.8 0 0
16.88 0 0
16.96 0 0
17.04 0 0
17.12 0 0
17.2 0 0
17.28 0 0
17.36 0 0
17.44 0 0
17.52 0 0
17.6 0 0
17.68 0 0
17.76 0 0
17.84 0 0
17.92 0 0
18 0 0
18.08 0 0
18.16 0 0
18.24 0 0
18.32 0 0
18.4 0 0
18.48 0 0
18.56 0 0
18.64 0 0
18.72 0 0
18.8 0 0
18.88 0 0
18.96 0 0
19.04 0 0
19.12 0 0
19.2 0 0
19.28 0 0
19.36 0 0
19.44 0 0
19.52 0 0
19.6 0 0
19.68 0 0
19.76 0 0
19.84 0 0
19.92 0 0
20 0 0
20.08 0 0
20.16 0 0
20.24 0 0
20.32 0 0
20.4 0 0
20.48 0 0
20.56 0 0
20.64 0 0
20.72 0 0
20.8 0 0
20.88 0 0
20.96 0 0
21.04 0 0
21.12 0 0
21.2 0 0
21.28 0 0
21.36 0 0
21.44 0 0
21.52 0 0
21.6 0 0
21.68 0 0
21.76 0 0
21.84 0 0
21.92 0 0
22 0 0
22.08 0 0
22.16 0 0
22.24 0 0
22.32 0 0
22.4 0 0
22.48 0 0
22.56 0 0
22.64 0 0
22.72 0 0
22.8 0 0
22.88 0 0
22.96 0 0
23.04 0 0
23.12 0 0
23.2 0 0
23.28 0 0
23.36 0 0
23.44 0 0
23.52 0 0
23.6 0 0
23.68 0 0
23.76 0 0
23.84 0 0
23.92 0 0
24 0 0
24.08 0 0
24.16 0 0
24.24 0 0
24.32 0 0
24.4 0 0
24.48 0 0
24.56 0 0
24.64 0 0
24.72 0 0
24.8 0 0
24.88 0 0
24.96 0 0
25.04 0 0
25.12 0 0
25.2 0 0
25.28 0 0
25.36 0 0
25.44 0 0
25.52 0 0
25.6 0 0
25.68 0 0
25.76 0 0
25.84 0 0
25.92 0 0
26 0 0
26.08 0 0
26.16 0 0
26.24 0 0
26.32 0 0
26.4 0 0
26.48 0 0
26.56 0 0
26.64 0 0
26.72 0 0
26.8 0 0
26.88 0 0
26.96 0 0
27.04 0 0
27.12 0 0
27.2 0 0
27.28 0 0
27.36 0 0
27.44 0 0
27.52 0 0
27.6 0 0
27.68 0 0
27.76 0 0
27.84 0 0
27.92 0 0
28 0 0
28.08 0 0
28.16 0 0
28.24 0 0
28.32 0 0
28.4 0 0
28.48 0 0
28.56 0 0
28.64 0 0
28.72 0 0
28.8 0 0
28.88 0 0
28.96 0 0
29.04 0 0
29.12 0 0
29.2 0 0
29.28 0 0
29.36 0 0
29.44 0 0
29.52 0 0
29.6 0 0
29.68 0 0
29.76 0 0
29.84 0 0
29.92 0 0
30 0 0
30.08 0 0
30.16 0 0
30.24 0 0
30.32 0 0
30.4 0 0
30.48 0 0
30.56 0 0
30.64 0 0
30.72 0 0
30.8 0 0
30.88 0 0
30.96 0 0
31.04 0 0
31.12 0 0
31.2 0 0
31.28 0 0
31.36 0 0
31.44 0 0
31.52 0 0
31.6 0 0
31.68 0 0
31.76 0 0
31.84 0 0
31.92 0 0
0 0.005 0
0.08 0.005 0
0.16 0.005 0
0.24 0.005 0
0.32 0.005 0
0.4 0.005 0
0.48 0.005 0
0.56 0.005 0
0.64 0.005 0
0.72 0.005 0
0.8 0.005 0
0.88 0.005 0
0.96 0.005 0
1.04 0.005 0
1.12 0.005 0
1.2 0.005 0
1.28 0.005 0
1.36 0.005 0
1.44 0.005 0
1.52 0.005 0
1.6 0.005 0
1.68 0.005 0
1.76 0.005 0
1.84 0.005 0
1.92 0.005 0
2 0.005 0
2.08 0.005 0
2.16 0.005 0
2.24 0.005 0
2.32 0.005 0
2.4 0.005 0
2.48 0.005 0
2.56 0.005 0
2.64 0.005 0
2.72 0.005 0
2.8 0.005 0
2.88 0.005 0
2.96 0.005 0
3.04 0.005 0
3.12 0.005 0
3.2 0.005 0
3.28 0.005 0
3.36 0.005 0
3.44 0.005 0
3.52 0.005 0
3.6 0.005 0
3.68 0.005 0
3.76 0.005 0
3.84 0.005 0
3.92 0.005 0
4 0.005 0
4.08 0.005 0
4.16 0.005 0
4.24 0.005 0
4.32 0.005 0
4.4 0.005 0
4.48 0.005 0
4.56 0.005 0
4.64 0.005 0
4.72 0.005 0
4.8 0.005 0
4.88 0.005 0
4.96 0.005 0
5.04 0.005 0
5.12 0.005 0
5.2 0.005 0
5.28 0.005 0
5.36 0.005 0
5.44 0.005 0
5.52 0.005 0
5.6 0.005 0
5.68 0.005 0
5.76 0.005 0
5.84 0.005 0
5.92 0.005 0
6 0.005 0
6.08 0.005 0
6.16 0.005 0
6.24 0.005 0
6.32 0.005 0
6.4 0.005 0
6.48 0.005 0
6.56 0.005 0
6.64 0.005 0
6.72 0.005 0
6.8 0.005 0
6.88 0.005 0
6.96 0.005 0
7.04 0.005 0
7.12 0.005 0
7.2 0.005 0
7.28 0.005 0
7.36 0.005 0
7.44 0.005 0
7.52 0.005 0
7.6 0.005 0
7.68 0.005 0
7.76 0.005 0
7.84 0.005 0
7.92 0.005 0
8 0.005 0
8.08 0.005 0
8.16 0.005 0
8.24 0.005 0
8.32 0.005 0
8.4 0.005 0
8.48 0.005 0
8.56 0.005 0
8.64 0.005 0
8.72 0.005 0
8.8 0.005 0
8.88 0.005 0
8.96 0.005 0
9.04 0.005 0
9.12 0.005 0
9.2 0.005 0
9.28 0.005 0
9.36 0.005 0
9.44 0.005 0
9.52 0.005 0
9.6 0.005 0
9.68 0.005 0
9.76 0.005 0
9.84 0.005 0
9.92 0.005 0
10 0.005 0
10.08 0.005 0
10.16 0.005 0
10.24 0.005 0
10.32 0.005 0
10.4 0.005 0
10.48 0.005 0
10.56 0.005 0
10.64 0.005 0
10.72 0.005 0
10.8 0.005 0
10.88 0.005 0
10.96 0.005 0
11.04 0.005 0
11.12 0.005 0
11.2 0.005 0
11.28 0.005 0
11.36 0.005 0
11.44 0.005 0
11.52 0.005 0
11.6 0.005 0
11.68 0.005 0
11.76 0.005 0
11.84 0.005 0
11.92 0.005 0
12 0.005 0
12.08 0.005 0
12.16 0.005 0
12.24 0.005 0
12.32 0.005 0
12.4 0.005 0
12.48 0.005 0
12.56 0.005 0
12.64 0.005 0
12.72 0.005 0
12.8 0.005 0
12.88 0.005 0
12.96 0.005 0
13.04 0.005 0
13.12 0.005 0
13.2 0.005 0
13.28 0.005 0
13.36 0.005 0
13.44 0.005 0
13.52 0.005 0
13.6 0.005 0
13.68 0.005 0
13.76 0.005 0
13.84 0.005 0
13.92 0.005 0
14 0.005 0
14.08 0.005 0
14.16 0.005 0
14.24 0.005 0
14.32 0.005 0
14.4 0.005 0
14.48 0.005 0
14.56 0.005 0
14.64 0.005 0
14.72 0.005 0
14.8 0.005 0
14.88 0.005 0
14.96 0.005 0
15.04 0.005 0
15.12 0.005 0
15.2 0.005 0
15.28 0.005 0
15.36 0.005 0
15.44 0.005 0
15.52 0.005 0
15.6 0.005 0
15.68 0.005 0
15.76 0.005 0
15.84 0.005 0
15.92 0.005 0
16 0.005 0
16.08 0.005 0
16.16 0.005 0
16.24 0.005 0
16.32 0.005 0
16.4 0.005 0
16.48 0.005 0
16.56 0.005 0
16.64 0.005 0
16.72 0.005 0
16.8 0.005 0
16.88 0.005 0
16.96 0.005 0
17.04 0.005 0
17.12 0.005 0
17.2 0.005 0
17.28 0.005 0
17.36 0.005 0
17.44 0.005 0
17.52 0.005 0
17.6 0.005 0
17.68 0.005 0
17.76 0.005 0
17.84 0.005 0
17.92 0.005 0
18 0.005 0
18.08 0.005 0
18.16 0.005 0
18.24 0.005 0
18.32 0.005 0
18.4 0.005 0
18.48 0.005 0
18.56 0.005 0
18.64 0.005 0
18.72 0.005 0
18.8 0.005 0
18.88 0.005 0
18.96 0.005 0
19.04 0.005 0
19.12 0.005 0
19.2 0.005 0
19.28 0.005 0
19.36 0.005 0
19.44 0.005 0
19.52 0.005 0
19.6 0.005 0
19.68 0.005 0
19.76 0.005 0
19.84 0.005 0
19.92 0.005 0
20 0.005 0
20.08 0.005 0
20.16 0.005 0
20.24 0.005 0
20.32 0.005 0
20.4 0.005 0
20.48 0.005 0
20.56 0.005 0
20.64 0.005 0
20.72 0.005 0
20.8 0.005 0
20.88 0.005 0
20.96 0.005 0
21.04 0.005 0
21.12 0.005 0
21.2 0.005 0
21.28 0.005 0
21.36 0.005 0
21.44 0.005 0
21.52 0.005 0
21.6 0.005 0
21.68 0.005 0
21.76 0.005 0
21.84 0.005 0
21.92 0.005 0
22 0.005 0
22.08 0.005 0
22.16 0.005 0
22.24 0.005 0
22.32 0.005 0
22.4 0.005 0
22.48 0.005 0
22.56 0.005 0
22.64 0.005 0
22.72 0.005 0
22.8 0.005 0
22.88 0.005 0
22.96 0.005 0
23.04 0.005 0
23.12 0.005 0
23.2 0.005 0
23.28 0.005 0
23.36 0.005 0
23.44 0.005 0
23.52 0.005 0
23.6 0.005 0
23.68 0.005 0
23.76 0.005 0
23.84 0.005 0
23.92 0.005 0
24 0.005 0
24.08 0.005 0
24.16 0.005 0
24.24 0.005 0
24.32 0.005 0
24.4 0.005 0
24.48 0.005 0
24.56 0.005 0
24.64 0.005 0
24.72 0.005 0
24.8 0.005 0
24.88 0.005 0
24.96 0.005 0
25.04 0.005 0
25.12 0.005 0
25.2 0.005 0
25.28 0.005 0
25.36 0.005 0
25.44 0.005 0
25.52 0.005 0
25.6 0.005 0
25.68 0.005 0
25.76 0.005 0
25.84 0.005 0
25.92 0.005 0
26 0.005 0
26.08 0.005 0
26.16 0.005 0
26.24 0.005 0
26.32 0.005 0
26.4 0.005 0
26.48 0.005 0
26.56 0.005 0
26.64 0.005 0
26.72 0.005 0
26.8 0.005 0
26.88 0.005 0
26.96 0.005 0
27.04 0.005 0
27.12 0.005 0
27.2 0.005 0
27.28 0.005 0
27.36 0.005 0
27.44 0.005 0
27.52 0.005 0
27.6 0.005 0
27.68 0.005 0
27.76 0.005 0
27.84 0.005 0
27.92 0.005 0
28 0.005 0
28.08 0.005 0
28.16 0.005 0
28.24 0.005 0
28.32 0.005 0
28.4 0.005 0
28.48 0.005 0
28.56 0.005 0
28.64 0.005 0
28.72 0.005 0
28.8 0.005 0
28.88 0.005 0
28.96 0.005 0
29.04 0.005 0
29.12 0.005 0
29.2 0.005 0
29.28 0.005 0
29.36 0.005 0
29.44 0.005 0
29.52 0.005 0
29.6 0.005 0
29.68 0.005 0
29.76 0.005 0
29.84 0.005 0
29.92 0.005 0
30 0.005 0
30.08 0.005 0
30.16 0.005 0
30.24 0.005 0
30.32 0.005 0
30.4 0.005 0
30.48 0.005 0
30.56 0.005 0
30.64 0.005 0
30.72 0.005 0
30.8 0.005 0
30.88 0.005 0
30.96 0.005 0
31.04 0.005 0
31.12 0.005 0
31.2 0.005 0
31.28 0.005 0
31.36 0.005 0
31.44 0.005 0
31.52 0.005 0
31.6 0.005 0
31.68 0.005 0
31.76 0.005 0
31.84 0.005 0
31.92 0.005 0
0 0.01 0
0.08 0.01 0
0.16 0.01 0
0.24 0.01 0
0.32 0.01 0
0.4 0.01 0
0.48 0.01 0
0.56 0.01 0
0.64 0.01 0
0.72 0.01 0
0.8 0.01 0
0.88 0.01 0
0.96 0.01 0
1.04 0.01 0
1.12 0.01 0
1.2 0.01 0
1.28 0.01 0
1.36 0.01 0
1.44 0.01 0
1.52 0.01 0
1.6 0.01 0
1.68 0.01 0
1.76 0.01 0
1.84 0.01 0
1.92 0.01 0
2 0.01 0
2.08 0.01 0
2.16 0.01 0
2.24 0.01 0
2.32 0.01 0
2.4 0.01 0
2.48 0.01 0
2.56 0.01 0
2.64 0.01 0
2.72 0.01 0
2.8 0.01 0
2.88 0.01 0
2.96 0.01 0
3.04 0.01 0
3.12 0.01 0
3.2 0.01 0
3.28 0.01 0
3.36 0.01 0
3.44 0.01 0
3.52 0.01 0
3.6 0.01 0
3.68 0.01 0
3.76 0.01 0
3.84 0.01 0
3.92 0.01 0
4 0.01 0
4.08 0.01 0
4.16 0.01 0
4.24 0.01 0
4.32 0.01 0
4.4 0.01 0
4.48 0.01 0
4.56 0.01 0
4.64 0.01 0
4.72 0.01 0
4.8 0.01 0
4.88 0.01 0
4.96 0.01 0
5.04 0.01 0
5.12 0.01 0
[...]
POINT_DATA 80000

SCALARS u float 1
LOOKUP_TABLE default
0
-0.131689
-0.0683318
-0.0524398
-0.0446926
-0.0399673
-0.0367525
-0.0345228
-0.0330778
-0.0322554
-0.0318659
-0.0317333
-0.0317335
-0.0317956
-0.0318833
-0.0319794
-0.0320757
-0.0321693
-0.0322601
-0.0323493
-0.0324386
-0.0325296
-0.0326235
-0.0327215
-0.0328241
-0.0329321
-0.0330458
-0.0331656
-0.0332916
-0.0334243
-0.0335637
-0.0337101
-0.0338636
-0.0340242
-0.0341922
-0.0343676
-0.0345504
-0.0347407
-0.0349384
-0.0351434
-0.0353558
-0.0355753
-0.0358018
-0.0360351
-0.036275
-0.0365212
-0.0367733
-0.0370311
-0.0372941
-0.037562
-0.0378341
-0.0381102
-0.0383895
-0.0386717
-0.038956
-0.0392419
-0.0395288
-0.0398159
-0.0401027
-0.0403884
-0.0406725
-0.0409541
-0.0412326
-0.0415074
-0.0417778
-0.0420431
-0.0423027
-0.042556
-0.0428024
-0.0430414
-0.0432723
-0.0434948
-0.0437084
-0.0439126
-0.0441072
-0.0442917
-0.0444659
-0.0446297
-0.0447828
-0.044925
-0.0450564
-0.0451768
-0.0452864
-0.0453851
-0.045473
-0.0455504
-0.0456174
-0.0456742
-0.0457211
-0.0457585
-0.0457865
-0.0458056
-0.0458162
-0.0458187
-0.0458134
-0.0458008
-0.0457814
-0.0457555
-0.0457237
-0.0456864
-0.0456441
-0.0455971
-0.045546
-0.0454911
-0.0454329
-0.0453719
-0.0453083
-0.0452426
-0.0451751
-0.0451062
-0.0450363
-0.0449655
-0.0448942
-0.0448227
-0.0447513
-0.04468
-0.0446092
-0.0445391
-0.0444698
-0.0444014
-0.0443341
-0.044268
-0.0442033
-0.04414
-0.0440781
-0.0440178
-0.0439591
-0.043902
-0.0438465
-0.0437928
-0.0437407
-0.0436903
-0.0436416
-0.0435946
-0.0435492
-0.0435054
-0.0434633
-0.0434228
-0.0433838
-0.0433463
-0.0433103
-0.0432758
-0.0432427
-0.0432109
-0.0431805
-0.0431514
-0.0431236
-0.043097
-0.0430715
-0.0430472
-0.0430241
-0.043002
-0.042981
-0.0429609
-0.0429419
-0.0429238
-0.0429066
-0.0428903
-0.0428749
-0.0428603
-0.0428465
-0.0428335
-0.0428213
-0.0428098
-0.042799
-0.042789
-0.0427796
-0.0427708
-0.0427627
-0.0427553
-0.0427484
-0.0427421
-0.0427364
-0.0427313
-0.0427267
-0.0427227
-0.0427191
-0.0427161
-0.0427136
-0.0427115
-0.04271
-0.0427089
-0.0427082
-0.0427081
-0.0427083
-0.042709
-0.0427101
-0.0427116
-0.0427135
-0.0427158
-0.0427185
-0.0427216
-0.042725
-0.0427288
-0.042733
-0.0427376
-0.0427425
-0.0427477
-0.0427533
-0.0427592
-0.0427654
-0.042772
-0.0427789
-0.0427861
-0.0427936
-0.0428014
-0.0428095
-0.042818
-0.0428267
-0.0428357
-0.042845
-0.0428546
-0.0428644
-0.0428745
-0.0428849
-0.0428956
-0.0429066
-0.0429178
-0.0429293
-0.042941
-0.042953
-0.0429652
-0.0429777
-0.0429904
-0.0430034
-0.0430167
-0.0430301
-0.0430438
-0.0430578
-0.043072
-0.0430864
-0.043101
-0.0431159
-0.043131
-0.0431464
-0.0431619
-0.0431777
-0.0431937
-0.0432099
-0.0432264
-0.043243
-0.0432599
-0.043277
-0.0432943
-0.0433118
-0.0433295
-0.0433474
-0.0433656
-0.0433839
-0.0434025
-0.0434212
-0.0434402
-0.0434593
-0.0434787
-0.0434983
-0.043518
-0.043538
-0.0435582
-0.0435785
-0.0435991
-0.0436198
-0.0436408
-0.0436619
-0.0436832
-0.0437048
-0.0437265
-0.0437484
-0.0437705
-0.0437928
-0.0438153
-0.043838
-0.0438609
-0.0438839
-0.0439072
-0.0439306
-0.0439542
-0.043978
-0.044002
-0.0440262
-0.0440506
-0.0440752
-0.0440999
-0.0441248
-0.04415
-0.0441753
-0.0442008
-0.0442264
-0.0442523
-0.0442783
-0.0443046
-0.044331
-0.0443576
-0.0443844
-0.0444114
-0.0444385
-0.0444658
-0.0444934
-0.0445211
-0.044549
-0.044577
-0.0446053
-0.0446338
-0.0446624
-0.0446912
-0.0447202
-0.0447494
-0.0447788
-0.0448083
-0.044838
-0.044868
-0.0448981
-0.0449284
-0.0449588
-0.0449895
-0.0450203
-0.0450514
-0.0450826
-0.045114
-0.0451456
-0.0451774
-0.0452094
-0.0452415
-0.0452739
-0.0453064
-0.0453391
-0.045372
-0.0454051
-0.0454384
-0.0454719
-0.0455056
-0.0455395
-0.0455735
-0.0456078
-0.0456423
-0.0456769
-0.0457118
-0.0457468
-0.0457821
-0.0458175
-0.0458531
-0.045889
-0.045925
-0.0459613
-0.0459977
-0.0460344
-0.0460712
-0.0461083
-0.0461456
-0.0461831
-0.0462208
-0.0462587
-0.0462968
-0.0463351
-0.0463737
-0.0464124
-0.0464514
-0.0464906
-0.04653
-0.0465696
-0.0466095
-0.0466496
-0.0466899
-0.0467304
-0.0467711
-0.0468121
-0.0468533
-0.0468948
-0.0469364
-0.0469783
-0.0470205
-0.0470628
-0.0471054
-0.0471483
-0.0471914
-0.0472347
-0.0472783
-0.0473221
-0.0473661
-0.0474105
-0.047455
-0.0474998
-0.0475449
-0.0475902
-0.0476358
-0.0476816
-0.0477277
-0.0477741
-0.0478207
-0.0478676
-0.0479149
-0.0479622
-0.048011
-0.0480565
-0.0481132
-0.048145
-0.0482275
-0.0482418
-0.0482942
-0.0482942
-0.0482942
1
0.131689
0.0683318
0.0524398
0.0446926
0.0399673
0.0367525
0.0345228
0.0330778
0.0322554
0.0318659
0.0317333
0.0317335
0.0317956
0.0318833
0.0319794
0.0320757
0.0321693
0.0322601
0.0323493
0.0324386
0.0325296
0.0326235
0.0327215
0.0328241
0.0329321
0.0330458
0.0331656
0.0332916
0.0334243
0.0335637
0.0337101
0.0338636
0.0340242
0.0341922
0.0343676
0.0345504
0.0347407
0.0349384
0.0351434
0.0353558
0.0355753
0.0358018
0.0360351
0.036275
0.0365212
0.0367733
0.0370311
0.0372941
0.037562
0.0378341
0.0381102
0.0383895
0.0386717
0.038956
0.0392419
0.0395288
0.0398159
0.0401027
0.0403884
0.0406725
0.0409541
0.0412326
0.0415074
0.0417778
0.0420431
0.0423027
0.042556
0.0428024
0.0430414
0.0432723
0.0434948
0.0437084
0.0439126
0.0441072
0.0442917
0.0444659
0.0446297
0.0447828
0.044925
0.0450564
0.0451768
0.0452864
0.0453851
0.045473
0.0455504
0.0456174
0.0456742
0.0457211
0.0457585
0.0457865
0.0458056
0.0458162
0.0458187
0.0458134
0.0458008
0.0457814
0.0457555
0.0457237
0.0456864
0.0456441
0.0455971
0.045546
0.0454911
0.0454329
0.0453719
0.0453083
0.0452426
0.0451751
0.0451062
0.0450363
0.0449655
0.0448942
0.0448227
0.0447513
0.04468
0.0446092
0.0445391
0.0444698
0.0444014
0.0443341
0.044268
0.0442033
0.04414
0.0440781
0.0440178
0.0439591
0.043902
0.0438465
0.0437928
0.0437407
0.0436903
0.0436416
0.0435946
0.0435492
0.0435054
0.0434633
0.0434228
0.0433838
0.0433463
0.0433103
0.0432758
0.0432427
0.0432109
0.0431805
0.0431514
0.0431236
0.043097
0.0430715
0.0430472
0.0430241
0.043002
0.042981
0.0429609
0.0429419
0.0429238
0.0429066
0.0428903
0.0428749
0.0428603
0.0428465
0.0428335
0.0428213
0.0428098
0.042799
0.042789
0.0427796
0.0427708
0.0427627
0.0427553
0.0427484
0.0427421
0.0427364
0.0427313
0.0427267
0.0427227
0.0427191
0.0427161
0.0427136
0.0427115
0.04271
0.0427089
0.0427082
0.0427081
0.0427083
0.042709
0.0427101
0.0427116
0.0427135
0.0427158
0.0427185
0.0427216
0.042725
0.0427288
0.042733
0.0427376
0.0427425
0.0427477
0.0427533
0.0427592
0.0427654
0.042772
0.0427789
0.0427861
0.0427936
0.0428014
0.0428095
0.042818
0.0428267
0.0428357
0.042845
0.0428546
0.0428644
0.0428745
0.0428849
0.0428956
0.0429066
0.0429178
0.0429293
0.042941
0.042953
0.0429652
0.0429777
0.0429904
0.0430034
0.0430167
0.0430301
0.0430438
0.0430578
0.043072
0.0430864
0.043101
0.0431159
0.043131
0.0431464
0.0431619
0.0431777
0.0431937
0.0432099
0.0432264
0.043243
0.0432599
0.043277
0.0432943
0.0433118
0.0433295
0.0433474
0.0433656
0.0433839
0.0434025
0.0434212
0.0434402
0.0434593
0.0434787
0.0434983
0.043518
0.043538
0.0435582
0.0435785
0.0435991
0.0436198
0.0436408
0.0436619
0.0436832
0.0437048
0.0437265
0.0437484
0.0437705
0.0437928
0.0438153
0.043838
0.0438609
0.0438839
0.0439072
0.0439306
0.0439542
0.043978
0.044002
0.0440262
0.0440506
0.0440752
0.0440999
0.0441248
0.04415
0.0441753
0.0442008
0.0442264
0.0442523
0.0442783
0.0443046
0.044331
0.0443576
0.0443844
0.0444114
0.0444385
0.0444658
0.0444934
0.0445211
0.044549
0.044577
0.0446053
0.0446338
0.0446624
0.0446912
0.0447202
0.0447494
0.0447788
0.0448083
0.044838
0.044868
0.0448981
0.0449284
0.0449588
0.0449895
0.0450203
0.0450514
0.0450826
0.045114
0.0451456
0.0451774
0.0452094
0.0452415
0.0452739
0.0453064
0.0453391
0.045372
0.0454051
0.0454384
0.0454719
0.0455056
0.0455395
0.0455735
0.0456078
0.0456423
0.0456769
0.0457118
0.0457468
0.0457821
0.0458175
0.0458531
0.045889
0.045925
0.0459613
0.0459977
0.0460344
0.0460712
0.0461083
0.0461456
0.0461831
0.0462208
0.0462587
0.0462968
0.0463351
0.0463737
0.0464124
0.0464514
0.0464906
0.04653
0.0465696
0.0466095
0.0466496
0.0466899
0.0467304
0.0467711
0.0468121
0.0468533
0.0468948
0.0469364
0.0469783
0.0470205
0.0470628
0.0471054
0.0471483
0.0471914
0.0472347
0.0472783
0.0473221
0.0473661
0.0474105
0.047455
0.0474998
0.0475449
0.0475902
0.0476358
0.0476816
0.0477277
0.0477741
0.0478207
0.0478676
0.0479149
0.0479622
0.048011
0.0480565
0.0481132
0.048145
0.0482275
0.0482418
0.0482942
0.0482942
0.0482942
1
0.344934
0.200801
0.155324
0.132604
0.118622
0.109092
0.102509
0.0982629
0.095841
0.0946707
0.0942387
0.0941898
0.0943201
0.0945249
0.094753
0.0949806
0.0951988
0.095407
0.0956083
0.0958071
0.0960076
0.0962132
0.0964266
0.0966497
0.0968838
0.0971301
0.0973894
0.0976625
0.09795
0.0982525
0.0985704
0.0989043
0.0992546
0.0996216
0.100006
0.100407
0.100826
0.101263
0.101717
0.102189
0.102679
0.103187
0.103712
0.104254
0.104813
0.105389
0.10598
0.106587
0.107208
0.107842
0.10849
0.109149
0.109819
0.110499
0.111188
0.111884
0.112585
0.113292
0.114001
0.114713
0.115424
0.116135
0.116842
0.117545
0.118243
0.118933
0.119615
0.120286
0.120945
0.121591
0.122223
0.122839
0.123439
0.12402
0.124582
0.125124
0.125645
0.126144
0.126621
0.127075
0.127506
0.127913
0.128296
0.128654
0.128988
0.129298
0.129584
0.129846
0.130085
0.1303
0.130493
0.130663
0.130812
0.13094
0.131048
0.131137
0.131207
0.13126
0.131295
0.131315
0.13132
0.131311
0.131288
0.131254
0.131208
0.131152
0.131087
0.131013
0.130931
0.130843
0.130748
0.130648
0.130544
0.130436
0.130324
0.13021
0.130094
0.129976
0.129857
0.129738
0.129619
0.1295
0.129382
0.129265
0.129149
0.129034
0.128922
0.128811
0.128703
0.128597
0.128493
0.128392
0.128293
0.128198
0.128105
0.128015
0.127927
0.127843
0.127762
0.127683
0.127607
0.127534
0.127464
0.127397
0.127332
0.12727
0.12721
0.127154
0.127099
0.127048
0.126998
0.126951
0.126907
0.126865
0.126824
0.126787
0.126751
0.126717
0.126685
0.126655
0.126628
0.126602
0.126578
0.126555
0.126535
0.126516
0.126498
0.126483
0.126469
0.126456
0.126445
0.126436
0.126428
0.126421
0.126416
0.126412
0.126409
0.126408
0.126408
0.126409
0.126412
0.126416
0.12642
0.126426
0.126434
0.126442
0.126451
0.126462
0.126473
0.126486
0.126499
0.126514
0.126529
0.126546
0.126564
0.126582
0.126601
0.126622
0.126643
0.126665
0.126688
0.126712
0.126737
0.126762
0.126789
0.126816
0.126844
0.126873
0.126902
0.126933
0.126964
0.126996
0.127029
0.127062
0.127097
0.127132
0.127167
0.127204
0.127241
0.127279
0.127317
0.127357
0.127396
0.127437
0.127478
0.12752
0.127563
0.127606
0.12765
0.127695
0.12774
0.127786
0.127833
0.12788
0.127928
0.127976
0.128025
0.128075
0.128125
0.128176
0.128228
0.12828
0.128332
0.128386
0.12844
0.128494
0.128549
0.128605
0.128661
0.128718
0.128775
0.128833
0.128892
0.128951
0.12901
0.129071
0.129131
0.129193
0.129255
0.129317
0.12938
0.129444
0.129508
0.129572
0.129637
0.129703
0.12977
0.129836
0.129904
0.129972
0.13004
0.130109
0.130179
0.130249
0.130319
0.13039
0.130462
0.130534
0.130607
0.13068
0.130754
0.130829
0.130903
0.130979
0.131055
0.131131
0.131208
0.131286
0.131364
0.131442
0.131521
0.131601
0.131681
0.131762
0.131843
0.131925
0.132007
0.13209
0.132173
0.132257
0.132342
0.132426
0.132512
0.132598
0.132684
0.132771
0.132859
0.132947
0.133036
0.133125
0.133215
0.133305
0.133396
0.133487
0.133579
0.133671
0.133764
0.133857
0.133951
0.134046
0.134141
0.134237
0.134333
0.134429
0.134527
0.134624
0.134723
0.134822
0.134921
0.135021
0.135122
0.135223
0.135325
0.135427
0.13553
0.135633
0.135737
0.135842
0.135947
0.136053
0.136159
0.136266
0.136373
0.136482
0.13659
0.1367
0.136809
0.13692
0.137031
0.137143
0.137255
0.137368
0.137482
0.137596
0.13771
0.137826
0.137942
0.138059
0.138176
0.138294
0.138413
0.138532
0.138652
0.138772
0.138894
0.139015
0.139138
0.139261
0.139385
0.13951
0.139635
0.139761
0.139888
0.140015
0.140143
0.140272
0.140401
0.140531
0.140662
0.140794
0.140926
0.141059
0.141193
0.141328
0.141463
0.141599
0.141736
0.141874
0.142012
0.142151
0.142294
0.142428
0.142592
0.142691
0.142924
0.142972
0.143147
0.143147
0.143147
1
0.518825
0.327578
0.255875
0.21893
0.195974
0.180284
0.169461
0.162488
0.158494
0.15653
0.155765
0.155626
0.155783
0.156066
0.156389
0.156712
0.15702
0.157311
0.157589
0.157861
0.158133
0.15841
0.158696
0.158995
0.159307
0.159635
0.15998
0.160342
0.160723
0.161124
0.161546
0.161988
0.162453
0.162939
0.163449
0.163982
0.164538
0.165119
0.165725
0.166355
0.16701
0.16769
0.168394
0.169124
0.169877
0.170655
0.171456
0.172279
0.173125
0.173993
0.17488
0.175787
0.176712
0.177654
0.178611
0.179583
0.180567
0.181562
0.182565
0.183576
0.184593
0.185613
0.186634
0.187655
0.188674
0.189688
0.190696
0.191695
0.192683
0.193659
0.194621
0.195567
0.196494
0.197402
0.198289
0.199153
0.199993
0.200807
0.201594
0.202353
0.203084
0.203785
0.204456
0.205096
0.205705
0.206282
0.206827
0.20734
0.207822
0.208272
0.208691
0.209079
0.209436
0.209764
0.210063
0.210333
0.210576
0.210793
0.210984
0.21115
0.211293
0.211414
0.211513
0.211592
0.211653
0.211695
0.211721
0.211731
0.211727
0.211709
0.21168
0.211639
0.211588
0.211527
0.211459
0.211383
0.211301
0.211213
0.211121
0.211024
0.210924
0.210822
0.210717
0.21061
0.210503
0.210395
0.210286
0.210178
0.210071
0.209965
0.20986
0.209756
0.209655
0.209555
0.209457
0.209362
0.209269
0.209179
0.209091
0.209007
0.208925
0.208845
0.208769
0.208696
0.208625
0.208558
0.208493
0.208432
0.208373
0.208317
0.208264
0.208214
0.208167
0.208123
0.208081
0.208042
0.208005
0.207971
0.20794
0.207911
0.207885
0.207861
0.207839
0.20782
0.207803
0.207789
0.207776
0.207766
0.207758
0.207752
0.207748
0.207746
0.207746
0.207748
0.207752
0.207758
0.207765
0.207775
0.207786
0.207799
0.207813
0.20783
0.207848
0.207868
0.207889
0.207912
0.207936
0.207962
0.20799
0.208019
0.208049
0.208081
0.208115
0.208149
0.208186
0.208223
0.208262
0.208302
0.208344
0.208387
0.208431
0.208477
0.208524
0.208572
0.208621
0.208671
0.208723
0.208776
0.20883
0.208885
0.208942
0.208999
0.209058
0.209118
0.209179
0.209241
0.209304
0.209368
0.209433
0.2095
0.209567
0.209636
0.209705
0.209776
0.209847
0.20992
0.209994
0.210068
0.210144
0.210221
0.210298
0.210377
0.210456
0.210537
0.210618
0.210701
0.210784
0.210869
0.210954
0.21104
0.211127
0.211215
0.211304
0.211394
0.211485
0.211577
0.21167
0.211763
0.211857
0.211953
0.212049
0.212146
0.212244
0.212343
0.212443
0.212543
0.212645
0.212747
0.21285
0.212954
0.213059
0.213165
0.213272
0.213379
0.213488
0.213597
0.213707
0.213818
0.21393
0.214042
0.214156
0.21427
0.214385
0.214501
0.214618
0.214736
0.214854
0.214974
0.215094
0.215215
0.215337
0.215459
0.215583
0.215707
0.215832
0.215958
0.216085
0.216213
0.216341
0.21647
0.216601
0.216732
0.216863
0.216996
0.21713
0.217264
0.217399
0.217535
0.217672
0.217809
0.217948
0.218087
0.218227
0.218368
0.21851
0.218653
0.218796
0.21894
0.219086
0.219232
0.219378
0.219526
0.219675
0.219824
0.219974
0.220125
0.220277
0.22043
0.220584
0.220738
0.220894
0.22105
0.221207
0.221365
0.221524
0.221684
0.221844
0.222006
0.222168
0.222331
0.222495
0.22266
0.222826
0.222993
0.223161
0.22333
0.223499
0.22367
0.223841
0.224013
0.224187
0.224361
0.224536
0.224712
0.224889
0.225067
0.225246
0.225426
0.225607
0.225788
0.225971
0.226155
0.22634
0.226525
0.226712
0.2269
0.227089
0.227278
0.227469
0.227661
0.227853
0.228047
0.228242
0.228438
0.228635
0.228833
0.229032
0.229232
0.229433
0.229635
0.229838
0.230043
0.230248
0.230455
0.230663
0.230871
0.231081
0.231292
0.231505
0.231718
0.231933
0.232148
0.232365
0.232583
0.232802
0.233023
0.233245
0.233468
0.233692
0.233917
0.234148
0.234366
0.234628
0.234793
0.235163
0.235246
0.235555
0.235555
0.235555
1
0.66095
0.447095
0.353546
0.303434
0.271905
0.250261
0.235321
0.225683
0.220126
0.217343
0.216203
0.215932
0.216081
0.216412
0.216803
0.217199
0.217575
0.217928
0.218263
0.218589
0.218912
0.21924
0.219577
0.219927
0.220292
0.220674
0.221075
0.221497
0.221939
0.222403
0.222891
0.223402
0.223938
0.2245
0.225088
0.225703
0.226346
0.227016
0.227715
0.228443
0.2292
0.229987
0.230803
0.231648
0.232522
0.233425
0.234357
0.235317
0.236304
0.237318
0.238358
0.239423
0.240511
0.241622
0.242754
0.243905
0.245074
0.246259
0.247459
0.248671
0.249894
0.251125
0.252362
0.253604
0.254847
0.25609
0.25733
0.258566
0.259794
0.261012
0.262219
0.263413
0.26459
0.265749
0.266889
0.268006
0.2691
0.270168
0.27121
0.272223
0.273206
0.274159
0.275079
0.275967
0.276821
0.27764
0.278425
0.279175
0.279889
0.280568
0.281212
0.28182
0.282393
0.282932
0.283437
0.283908
0.284346
0.284753
0.285128
0.285474
0.28579
0.286078
0.286339
0.286575
0.286786
0.286973
0.287138
0.287282
0.287406
0.287511
0.287599
0.287671
0.287727
0.28777
0.287799
0.287817
0.287823
0.28782
0.287808
0.287788
0.28776
0.287726
0.287687
0.287643
0.287594
0.287542
0.287487
0.28743
0.287371
0.28731
0.287249
0.287187
0.287124
0.287062
0.287
0.28694
0.28688
0.286821
0.286763
0.286708
0.286654
0.286602
0.286552
0.286504
0.286458
0.286414
0.286373
0.286334
0.286298
0.286264
0.286233
0.286204
0.286177
0.286153
0.286132
0.286113
0.286097
0.286083
0.286072
0.286063
0.286056
0.286052
0.286051
0.286051
0.286054
0.28606
0.286067
0.286077
0.286089
0.286104
0.28612
0.286139
0.28616
0.286183
0.286208
0.286235
0.286264
0.286295
0.286329
0.286364
0.286401
0.286439
0.28648
0.286523
0.286567
0.286613
0.286662
0.286711
0.286763
0.286816
0.286871
0.286928
0.286986
0.287046
0.287108
0.287171
0.287236
0.287302
0.28737
0.28744
0.287511
0.287584
0.287658
0.287733
0.28781
0.287889
0.287969
0.28805
0.288133
0.288218
0.288303
0.28839
0.288479
0.288569
0.28866
0.288753
0.288846
0.288942
0.289038
0.289136
0.289235
0.289336
0.289438
0.289541
0.289645
0.289751
0.289857
0.289965
0.290075
0.290185
0.290297
0.29041
0.290524
0.29064
0.290757
0.290874
0.290993
0.291114
0.291235
0.291358
0.291481
0.291606
0.291732
0.29186
0.291988
0.292118
0.292248
0.29238
0.292513
0.292647
0.292783
0.292919
0.293056
0.293195
0.293335
0.293476
0.293618
0.293761
0.293905
0.29405
0.294197
0.294344
0.294493
0.294642
0.294793
0.294945
0.295098
0.295252
0.295407
0.295563
0.295721
0.295879
0.296039
0.296199
0.296361
0.296524
0.296688
0.296853
0.297019
0.297186
0.297354
0.297523
0.297693
0.297865
0.298037
0.298211
0.298385
0.298561
0.298738
0.298916
0.299095
0.299275
0.299456
0.299638
0.299821
0.300006
0.300191
0.300378
0.300565
0.300754
0.300944
0.301135
0.301327
0.30152
0.301714
0.301909
0.302105
0.302303
0.302501
0.302701
0.302902
0.303103
0.303306
0.303511
0.303716
0.303922
0.304129
0.304338
0.304548
0.304758
0.30497
0.305183
0.305398
0.305613
0.305829
0.306047
0.306266
0.306486
0.306707
0.306929
0.307153
0.307377
0.307603
0.30783
0.308058
0.308288
0.308518
0.30875
0.308983
0.309217
0.309453
0.309689
0.309927
0.310166
0.310407
0.310648
0.310891
0.311135
0.31138
0.311627
0.311875
0.312124
0.312375
0.312626
0.31288
0.313134
0.31339
0.313647
0.313905
0.314165
0.314426
0.314688
0.314952
0.315217
0.315483
0.315751
0.31602
0.316291
0.316563
0.316836
0.317111
0.317387
0.317665
0.317944
0.318225
0.318507
0.318791
0.319076
0.319362
0.31965
0.31994
0.320231
0.320523
0.320818
0.321113
0.321411
0.32171
0.32201
0.322313
0.322616
0.322927
0.323222
0.323572
0.3238
0.324289
0.324408
0.324855
0.324855
0.324855
1
0.776864
0.558037
0.447657
0.385783
0.346226
0.318899
0.299987
0.287741
0.280615
0.276972
0.275409
0.274962
0.275065
0.275415
0.275853
0.276303
0.276733
0.277136
0.277517
0.277885
0.278249
0.278616
0.278991
0.27938
0.279784
0.280206
0.280648
0.281111
0.281596
0.282105
0.282638
0.283197
0.283782
0.284394
0.285035
0.285704
0.286403
0.287132
0.287892
0.288683
0.289506
0.290361
0.291247
0.292166
0.293118
0.294101
0.295116
0.296162
0.297239
0.298346
0.299483
0.300648
0.301841
0.303059
0.304303
0.30557
0.306859
0.308168
0.309495
0.310839
0.312198
0.313569
0.31495
0.316339
0.317733
0.319132
0.320531
0.321929
0.323323
0.324712
0.326092
0.327461
0.328817
0.330158
0.331481
0.332786
0.334068
0.335327
0.336561
0.337769
0.338947
0.340096
0.341214
0.342299
0.343352
0.344369
0.345352
0.3463
0.347211
0.348086
0.348924
0.349726
0.350491
0.35122
0.351913
0.352571
0.353193
0.353781
0.354335
0.354856
0.355345
0.355803
0.356231
0.356629
0.357
0.357344
0.357662
0.357955
0.358225
0.358472
0.358699