# vtk DataFile Version 2.0
FlowField
ASCII
DATASET STRUCTURED_GRID
DIMENSIONS 400 1 200
POINTS 80000 float
0 0 0
0.08 0 0
0.16 0 0
0.24 0 0
0.32 0 0
0.4 0 0
0.48 0 0
0.56 0 0
0.64 0 0
0.72 0 0
0.8 0 0
0.88 0 0
0.96 0 0
1.04 0 0
1.12 0 0
1.2 0 0
1.28 0 0
1.36 0 0
1.44 0 0
1.52 0 0
1.6 0 0
1.68 0 0
1.76 0 0
1.84 0 0
1.92 0 0
2 0 0
2.08 0 0
2.16 0 0
2.24 0 0
2.32 0 0
2.4 0 0
2.48 0 0
2.56 0 0
2.64 0 0
2.72 0 0
2.8 0 0
2.88 0 0
2.96 0 0
3.04 0 0
3.12 0 0
3.2 0 0
3.28 0 0
3.36 0 0
3.44 0 0
3.52 0 0
3.6 0 0
3.68 0 0
3.76 0 0
3.84 0 0
3.92 0 0
4 0 0
4.08 0 0
4.16 0 0
4.24 0 0
4.32 0 0
4.4 0 0
4.48 0 0
4.56 0 0
4.64 0 0
4.72 0 0
4.8 0 0
4.88 0 0
4.96 0 0
5.04 0 0
5.12 0 0
5.2 0 0
5.28 0 0
5.36 0 0
5.44 0 0
5.52 0 0
5.6 0 0
5.68 0 0
5.76 0 0
5.84 0 0
5.92 0 0
6 0 0
6.08 0 0
6.16 0 0
6.24 0 0
6.32 0 0
6.4 0 0
6.48 0 0
6.56 0 0
6.64 0 0
6.72 0 0
6.8 0 0
6.88 0 0
6.96 0 0
7.04 0 0
7.12 0 0
7.2 0 0
7.28 0 0
7.36 0 0
7.44 0 0
7.52 0 0
7.6 0 0
7.68 0 0
7.76 0 0
7.84 0 0
7.92 0 0
8 0 0
8.08 0 0
8.16 0 0
8.24 0 0
8.32 0 0
8.4 0 0
8.48 0 0
8.56 0 0
8.64 0 0
8.72 0 0
8.8 0 0
8.88 0 0
8.96 0 0
9.04 0 0
9.12 0 0
9.2 0 0
9.28 0 0
9.36 0 0
9.44 0 0
9.52 0 0
9.6 0 0
9.68 0 0
9.76 0 0
9.84 0 0
9.92 0 0
10 0 0
10.08 0 0
10.16 0 0
10.24 0 0
10.32 0 0
10.4 0 0
10.48 0 0
10.56 0 0
10.64 0 0
10.72 0 0
10.8 0 0
10.88 0 0
10.96 0 0
11.04 0 0
11.12 0 0
11.2 0 0
11.28 0 0
11.36 0 0
11.44 0 0
11.52 0 0
11.6 0 0
11.68 0 0
11.76 0 0
11.84 0 0
11.92 0 0
12 0 0
12.08 0 0
12.16 0 0
12.24 0 0
12.32 0 0
12.4 0 0
12.48 0 0
12.56 0 0
12.64 0 0
12.72 0 0
12.8 0 0
12.88 0 0
12.96 0 0
13.04 0 0
13.12 0 0
13.2 0 0
13.28 0 0
13.36 0 0
13.44 0 0
13.52 0 0
13.6 0 0
13.68 0 0
13.76 0 0
13.84 0 0
13.92 0 0
14 0 0
14.08 0 0
14.16 0 0
14.24 0 0
14.32 0 0
14.4 0 0
14.48 0 0
14.56 0 0
14.64 0 0
14.72 0 0
14.8 0 0
14.88 0 0
14.96 0 0
15.04 0 0
15.12 0 0
15.2 0 0
15.28 0 0
15.36 0 0
15.44 0 0
15.52 0 0
15.6 0 0
15.68 0 0
15.76 0 0
15.84 0 0
15.92 0 0
16 0 0
16.08 0 0
16.16 0 0
16.24 0 0
16.32 0 0
16.4 0 0
16.48 0 0
16.56 0 0
16.64 0 0
16.72 0 0
16.8 0 0
16.88 0 0
16.96 0 0
17.04 0 0
17.12 0 0
17.2 0 0
17.28 0 0
17.36 0 0
17.44 0 0
17.52 0 0
17.6 0 0
17.68 0 0
17.76 0 0
17.84 0 0
17.92 0 0
18 0 0
18.08 0 0
18.16 0 0
18.24 0 0
18.32 0 0
18.4 0 0
18.48 0 0
18.56 0 0
18.64 0 0
18.72 0 0
18.8 0 0
18.88 0 0
18.96 0 0
19.04 0 0
19.12 0 0
19.2 0 0
19.28 0 0
19.36 0 0
19.44 0 0
19.52 0 0
19.6 0 0
19.68 0 0
19.76 0 0
19.84 0 0
19.92 0 0
20 0 0
20.08 0 0
20.16 0 0
20.24 0 0
20.32 0 0
20.4 0 0
20.48 0 0
20.56 0 0
20.64 0 0
20.72 0 0
20.8 0 0
20.88 0 0
20.96 0 0
21.04 0 0
21.12 0 0
21.2 0 0
21.28 0 0
21.36 0 0
21.44 0 0
21.52 0 0
21.6 0 0
21.68 0 0
21.76 0 0
21.84 0 0
21.92 0 0
22 0 0
22.08 0 0
22.16 0 0
22.24 0 0
22.32 0 0
22.4 0 0
22.48 0 0
22.56 0 0
22.64 0 0
22.72 0 0
22.8 0 0
22.88 0 0
22.96 0 0
23.04 0 0
23.12 0 0
23.2 0 0
23.28 0 0
23.36 0 0
23.44 0 0
23.52 0 0
23.6 0 0
23.68 0 0
23.76 0 0
23.84 0 0
23.92 0 0
24 0 0
24.08 0 0
24.16 0 0
24.24 0 0
24.32 0 0
24.4 0 0
24.48 0 0
24.56 0 0
24.64 0 0
24.72 0 0
24.8 0 0
24.88 0 0
24.96 0 0
25.04 0 0
25.12 0 0
25.2 0 0
25.28 0 0
25.36 0 0
25.44 0 0
25.52 0 0
25.6 0 0
25.68 0 0
25.76 0 0
25.84 0 0
25.92 0 0
26 0 0
26.08 0 0
26.16 0 0
26.24 0 0
26.32 0 0
26.4 0 0
26.48 0 0
26.56 0 0
26.64 0 0
26.72 0 0
26.8 0 0
26.88 0 0
26.96 0 0
27.04 0 0
27.12 0 0
27.2 0 0
27.28 0 0
27.36 0 0
27.44 0 0
27.52 0 0
27.6 0 0
27.68 0 0
27.76 0 0
27.84 0 0
27.92 0 0
28 0 0
28.08 0 0
28.16 0 0
28.24 0 0
28.32 0 0
28.4 0 0
28.48 0 0
28.56 0 0
28.64 0 0
28.72 0 0
28.8 0 0
28.88 0 0
28.96 0 0
29.04 0 0
29.12 0 0
29.2 0 0
29.28 0 0
29.36 0 0
29.44 0 0
29.52 0 0
29.6 0 0
29.68 0 0
29.76 0 0
29.84 0 0
29.92 0 0
30 0 0
30.08 0 0
30.16 0 0
30.24 0 0
30.32 0 0
30.4 0 0
30.48 0 0
30.56 0 0
30.64 0 0
30.72 0 0
30.8 0 0
30.88 0 0
30.96 0 0
31.04 0 0
31.12 0 0
31.2 0 0
31.28 0 0
31.36 0 0
31.44 0 0
31.52 0 0
31.6 0 0
31.68 0 0
31.76 0 0
31.84 0 0
31.92 0 0
0 0.005 0
0.08 0.005 0
0.16 0.005 0
0.24 0.005 0
0.32 0.005 0
0.4 0.005 0
0.48 0.005 0
0.56 0.005 0
0.64 0.005 0
0.72 0.005 0
0.8 0.005 0
0.88 0.005 0
0.96 0.005 0
1.04 0.005 0
1.12 0.005 0
1.2 0.005 0
1.28 0.005 0
1.36 0.005 0
1.44 0.005 0
1.52 0.005 0
1.6 0.005 0
1.68 0.005 0
1.76 0.005 0
1.84 0.005 0
1.92 0.005 0
2 0.005 0
2.08 0.005 0
2.16 0.005 0
2.24 0.005 0
2.32 0.005 0
2.4 0.005 0
2.48 0.005 0
2.56 0.005 0
2.64 0.005 0
2.72 0.005 0
2.8 0.005 0
2.88 0.005 0
2.96 0.005 0
3.04 0.005 0
3.12 0.005 0
3.2 0.005 0
3.28 0.005 0
3.36 0.005 0
3.44 0.005 0
3.52 0.005 0
3.6 0.005 0
3.68 0.005 0
3.76 0.005 0
3.84 0.005 0
3.92 0.005 0
4 0.005 0
4.08 0.005 0
4.16 0.005 0
4.24 0.005 0
4.32 0.005 0
4.4 0.005 0
4.48 0.005 0
4.56 0.005 0
4.64 0.005 0
4.72 0.005 0
4.8 0.005 0
4.88 0.005 0
4.96 0.005 0
5.04 0.005 0
5.12 0.005 0
5.2 0.005 0
5.28 0.005 0
5.36 0.005 0
5.44 0.005 0
5.52 0.005 0
5.6 0.005 0
5.68 0.005 0
5.76 0.005 0
5.84 0.005 0
5.92 0.005 0
6 0.005 0
6.08 0.005 0
6.16 0.005 0
6.24 0.005 0
6.32 0.005 0
6.4 0.005 0
6.48 0.005 0
6.56 0.005 0
6.64 0.005 0
6.72 0.005 0
6.8 0.005 0
6.88 0.005 0
6.96 0.005 0
7.04 0.005 0
7.12 0.005 0
7.2 0.005 0
7.28 0.005 0
7.36 0.005 0
7.44 0.005 0
7.52 0.005 0
7.6 0.005 0
7.68 0.005 0
7.76 0.005 0
7.84 0.005 0
7.92 0.005 0
8 0.005 0
8.08 0.005 0
8.16 0.005 0
8.24 0.005 0
8.32 0.005 0
8.4 0.005 0
8.48 0.005 0
8.56 0.005 0
8.64 0.005 0
8.72 0.005 0
8.8 0.005 0
8.88 0.005 0
8.96 0.005 0
9.04 0.005 0
9.12 0.005 0
9.2 0.005 0
9.28 0.005 0
9.36 0.005 0
9.44 0.005 0
9.52 0.005 0
9.6 0.005 0
9.68 0.005 0
9.76 0.005 0
9.84 0.005 0
9.92 0.005 0
10 0.005 0
10.08 0.005 0
10.16 0.005 0
10.24 0.005 0
10.32 0.005 0
10.4 0.005 0
10.48 0.005 0
10.56 0.005 0
10.64 0.005 0
10.72 0.005 0
10.8 0.005 0
10.88 0.005 0
10.96 0.005 0
11.04 0.005 0
11.12 0.005 0
11.2 0.005 0
11.28 0.005 0
11.36 0.005 0
11.44 0.005 0
11.52 0.005 0
11.6 0.005 0
11.68 0.005 0
11.76 0.005 0
11.84 0.005 0
11.92 0.005 0
12 0.005 0
12.08 0.005 0
12.16 0.005 0
12.24 0.005 0
12.32 0.005 0
12.4 0.005 0
12.48 0.005 0
12.56 0.005 0
12.64 0.005 0
12.72 0.005 0
12.8 0.005 0
12.88 0.005 0
12.96 0.005 0
13.04 0.005 0
13.12 0.005 0
13.2 0.005 0
13.28 0.005 0
13.36 0.005 0
13.44 0.005 0
13.52 0.005 0
13.6 0.005 0
13.68 0.005 0
13.76 0.005 0
13.84 0.005 0
13.92 0.005 0
14 0.005 0
14.08 0.005 0
14.16 0.005 0
14.24 0.005 0
14.32 0.005 0
14.4 0.005 0
14.48 0.005 0
14.56 0.005 0
14.64 0.005 0
14.72 0.005 0
14.8 0.005 0
14.88 0.005 0
14.96 0.005 0
15.04 0.005 0
15.12 0.005 0
15.2 0.005 0
15.28 0.005 0
15.36 0.005 0
15.44 0.005 0
15.52 0.005 0
15.6 0.005 0
15.68 0.005 0
15.76 0.005 0
15.84 0.005 0
15.92 0.005 0
16 0.005 0
16.08 0.005 0
16.16 0.005 0
16.24 0.005 0
16.32 0.005 0
16.4 0.005 0
16.48 0.005 0
16.56 0.005 0
16.64 0.005 0
16.72 0.005 0
16.8 0.005 0
16.88 0.005 0
16.96 0.005 0
17.04 0.005 0
17.12 0.005 0
17.2 0.005 0
17.28 0.005 0
17.36 0.005 0
17.44 0.005 0
17.52 0.005 0
17.6 0.005 0
17.68 0.005 0
17.76 0.005 0
17.84 0.005 0
17.92 0.005 0
18 0.005 0
18.08 0.005 0
18.16 0.005 0
18.24 0.005 0
18.32 0.005 0
18.4 0.005 0
18.48 0.005 0
18.56 0.005 0
18.64 0.005 0
18.72 0.005 0
18.8 0.005 0
18.88 0.005 0
18.96 0.005 0
19.04 0.005 0
19.12 0.005 0
19.2 0.005 0
19.28 0.005 0
19.36 0.005 0
19.44 0.005 0
19.52 0.005 0
19.6 0.005 0
19.68 0.005 0
19.76 0.005 0
19.84 0.005 0
19.92 0.005 0
20 0.005 0
20.08 0.005 0
20.16 0.005 0
20.24 0.005 0
20.32 0.005 0
20.4 0.005 0
20.48 0.005 0
20.56 0.005 0
20.64 0.005 0
20.72 0.005 0
20.8 0.005 0
20.88 0.005 0
20.96 0.005 0
21.04 0.005 0
21.12 0.005 0
21.2 0.005 0
21.28 0.005 0
21.36 0.005 0
21.44 0.005 0
21.52 0.005 0
21.6 0.005 0
21.68 0.005 0
21.76 0.005 0
21.84 0.005 0
21.92 0.005 0
22 0.005 0
22.08 0.005 0
22.16 0.005 0
22.24 0.005 0
22.32 0.005 0
22.4 0.005 0
22.48 0.005 0
22.56 0.005 0
22.64 0.005 0
22.72 0.005 0
22.8 0.005 0
22.88 0.005 0
22.96 0.005 0
23.04 0.005 0
23.12 0.005 0
23.2 0.005 0
23.28 0.005 0
23.36 0.005 0
23.44 0.005 0
23.52 0.005 0
23.6 0.005 0
23.68 0.005 0
23.76 0.005 0
23.84 0.005 0
23.92 0.005 0
24 0.005 0
24.08 0.005 0
24.16 0.005 0
24.24 0.005 0
24.32 0.005 0
24.4 0.005 0
24.48 0.005 0
24.56 0.005 0
24.64 0.005 0
24.72 0.005 0
24.8 0.005 0
24.88 0.005 0
24.96 0.005 0
25.04 0.005 0
25.12 0.005 0
25.2 0.005 0
25.28 0.005 0
25.36 0.005 0
25.44 0.005 0
25.52 0.005 0
25.6 0.005 0
25.68 0.005 0
25.76 0.005 0
25.84 0.005 0
25.92 0.005 0
26 0.005 0
26.08 0.005 0
26.16 0.005 0
26.24 0.005 0
26.32 0.005 0
26.4 0.005 0
26.48 0.005 0
26.56 0.005 0
26.64 0.005 0
26.72 0.005 0
26.8 0.005 0
26.88 0.005 0
26.96 0.005 0
27.04 0.005 0
27.12 0.005 0
27.2 0.005 0
27.28 0.005 0
27.36 0.005 0
27.44 0.005 0
27.52 0.005 0
27.6 0.005 0
27.68 0.005 0
27.76 0.005 0
27.84 0.005 0
27.92 0.005 0
28 0.005 0
28.08 0.005 0
28.16 0.005 0
28.24 0.005 0
28.32 0.005 0
28.4 0.005 0
28.48 0.005 0
28.56 0.005 0
28.64 0.005 0
28.72 0.005 0
28.8 0.005 0
28.88 0.005 0
28.96 0.005 0
29.04 0.005 0
29.12 0.005 0
29.2 0.005 0
29.28 0.005 0
29.36 0.005 0
29.44 0.005 0
29.52 0.005 0
29.6 0.005 0
29.68 0.005 0
29.76 0.005 0
29.84 0.005 0
29.92 0.005 0
30 0.005 0
30.08 0.005 0
30.16 0.005 0
30.24 0.005 0
30.32 0.005 0
30.4 0.005 0
30.48 0.005 0
30.56 0.005 0
30.64 0.005 0
30.72 0.005 0
30.8 0.005 0
30.88 0.005 0
30.96 0.005 0
31.04 0.005 0
31.12 0.005 0
31.2 0.005 0
31.28 0.005 0
31.36 0.005 0
31.44 0.005 0
31.52 0.005 0
31.6 0.005 0
31.68 0.005 0
31.76 0.005 0
31.84 0.005 0
31.92 0.005 0
0 0.01 0
0.08 0.01 0
0.16 0.01 0
0.24 0.01 0
0.32 0.01 0
0.4 0.01 0
0.48 0.01 0
0.56 0.01 0
0.64 0.01 0
0.72 0.01 0
0.8 0.01 0
0.88 0.01 0
0.96 0.01 0
1.04 0.01 0
1.12 0.01 0
1.2 0.01 0
1.28 0.01 0
1.36 0.01 0
1.44 0.01 0
1.52 0.01 0
1.6 0.01 0
1.68 0.01 0
1.76 0.01 0
1.84 0.01 0
1.92 0.01 0
2 0.01 0
2.08 0.01 0
2.16 0.01 0
2.24 0.01 0
2.32 0.01 0
2.4 0.01 0
2.48 0.01 0
2.56 0.01 0
2.64 0.01 0
2.72 0.01 0
2.8 0.01 0
2.88 0.01 0
2.96 0.01 0
3.04 0.01 0
3.12 0.01 0
3.2 0.01 0
3.28 0.01 0
3.36 0.01 0
3.44 0.01 0
3.52 0.01 0
3.6 0.01 0
3.68 0.01 0
3.76 0.01 0
3.84 0.01 0
3.92 0.01 0
4 0.01 0
4.08 0.01 0
4.16 0.01 0
4.24 0.01 0
4.32 0.01 0
4.4 0.01 0
4.48 0.01 0
4.56 0.01 0
4.64 0.01 0
4.72 0.01 0
4.8 0.01 0
4.88 0.01 0
4.96 0.01 0
5.04 0.01 0
5.12 0.01 0
[...]
POINT_DATA 80000

SCALARS v float 1
LOOKUP_TABLE default
0
0
0
0
0
0
0
0
0
0
0
0
0
0
0
0
0
0
0
0
0
0
0
0
0
0
0
0
0
0
0
0
0
0
0
0
0
0
0
0
0
0
0
0
0
0
0
0
0
0
0
0
0
0
0
0
0
0
0
0
0
0
0
0
0
0
0
0
0
0
0
0
0
0
0
0
0
0
0
0
0
0
0
0
0
0
0
0
0
0
0
0
0
0
0
0
0
0
0
0
0
0
0
0
0
0
0
0
0
0
0
0
0
0
0
0
0
0
0
0
0
0
0
0
0
0
0
0
0
0
0
0
0
0
0
0
0
0
0
0
0
0
0
0
0
0
0
0
0
0
0
0
0
0
0
0
0
0
0
0
0
0
0
0
0
0
0
0
0
0
0
0
0
0
0
0
0
0
0
0
0
0
0
0
0
0
0
0
0
0
0
0
0
0
0
0
0
0
0
0
0
0
0
0
0
0
0
0
0
0
0
0
0
0
0
0
0
0
0
0
0
0
0
0
0
0
0
0
0
0
0
0
0
0
0
0
0
0
0
0
0
0
0
0
0
0
0
0
0
0
0
0
0
0
0
0
0
0
0
0
0
0
0
0
0
0
0
0
0
0
0
0
0
0
0
0
0
0
0
0
0
0
0
0
0
0
0
0
0
0
0
0
0
0
0
0
0
0
0
0
0
0
0
0
0
0
0
0
0
0
0
0
0
0
0
0
0
0
0
0
0
0
0
0
0
0
0
0
0
0
0
0
0
0
0
0
0
0
0
0
0
0
0
0
0
0
0
0
0
0
0
0
0
0
0
0
0
0
0
0
0
0
0
0
0
0
0
0
0
0
0
0
0
0
0
0
0
0
0
0
0
0
0
0
0
0
0
0
0
0
0
0
0
0
0
0
0
0
0
0
-0.0542809
0.0542809
0.00397212
0.0010081
0.000501771
0.000312289
0.000216709
0.000160089
0.000123674
9.95357e-05
8.23577e-05
6.79604e-05
5.43633e-05
4.18882e-05
3.17223e-05
2.44635e-05
1.97514e-05
1.67448e-05
1.46897e-05
1.31612e-05
1.20092e-05
1.12037e-05
1.07197e-05
1.04975e-05
1.04541e-05
1.05087e-05
1.06002e-05
1.06915e-05
1.07658e-05
1.08192e-05
1.08541e-05
1.08751e-05
1.08868e-05
1.08928e-05
1.08954e-05
1.08963e-05
1.08964e-05
1.08963e-05
1.08962e-05
1.08963e-05
1.08966e-05
1.08972e-05
1.08982e-05
1.08993e-05
1.09008e-05
1.09026e-05
1.09047e-05
1.0907e-05
1.09096e-05
1.09125e-05
1.09157e-05
1.09191e-05
1.09228e-05
1.09268e-05
1.0931e-05
1.09356e-05
1.09403e-05
1.09454e-05
1.09507e-05
1.09562e-05
1.09621e-05
1.09682e-05
1.09745e-05
1.09811e-05
1.0988e-05
1.09952e-05
1.10026e-05
1.10104e-05
1.10183e-05
1.10266e-05
1.10352e-05
1.1044e-05
1.10531e-05
1.10625e-05
1.10722e-05
1.10821e-05
1.10924e-05
1.1103e-05
1.11138e-05
1.1125e-05
1.11365e-05
1.11482e-05
1.11603e-05
1.11727e-05
1.11854e-05
1.11985e-05
1.12118e-05
1.12255e-05
1.12396e-05
1.12539e-05
1.12686e-05
1.12836e-05
1.1299e-05
1.13147e-05
1.13308e-05
1.13472e-05
1.1364e-05
1.13812e-05
1.13987e-05
1.14166e-05
1.14349e-05
1.14535e-05
1.14726e-05
1.1492e-05
1.15118e-05
1.15321e-05
1.15527e-05
1.15737e-05
1.15952e-05
1.16171e-05
1.16394e-05
1.16621e-05
1.16853e-05
1.17089e-05
1.17329e-05
1.17575e-05
1.17824e-05
1.18079e-05
1.18338e-05
1.18601e-05
1.1887e-05
1.19144e-05
1.19422e-05
1.19706e-05
1.19994e-05
1.20288e-05
1.20587e-05
1.20892e-05
1.21202e-05
1.21517e-05
1.21838e-05
1.22164e-05
1.22496e-05
1.22835e-05
1.23179e-05
1.23529e-05
1.23885e-05
1.24247e-05
1.24615e-05
1.2499e-05
1.25372e-05
1.2576e-05
1.26154e-05
1.26556e-05
1.26964e-05
1.2738e-05
1.27802e-05
1.28232e-05
1.2867e-05
1.29115e-05
1.29567e-05
1.30027e-05
1.30496e-05
1.30972e-05
1.31457e-05
1.3195e-05
1.32451e-05
1.32961e-05
1.3348e-05
1.34008e-05
1.34546e-05
1.35092e-05
1.35648e-05
1.36214e-05
1.3679e-05
1.37376e-05
1.37973e-05
1.3858e-05
1.39198e-05
1.39826e-05
1.40466e-05
1.41118e-05
1.41781e-05
1.42456e-05
1.43144e-05
1.43844e-05
1.44557e-05
1.45283e-05
1.46022e-05
1.46775e-05
1.47542e-05
1.48323e-05
1.4912e-05
1.49931e-05
1.50757e-05
1.516e-05
1.52458e-05
1.53334e-05
1.54226e-05
1.55136e-05
1.56064e-05
1.5701e-05
1.57975e-05
1.5896e-05
1.59965e-05
1.6099e-05
1.62037e-05
1.63105e-05
1.64196e-05
1.6531e-05
1.66448e-05
1.67611e-05
1.68799e-05
1.70013e-05
1.71254e-05
1.72523e-05
1.73822e-05
1.7515e-05
1.76509e-05
1.779e-05
1.79325e-05
1.80784e-05
1.82279e-05
1.83811e-05
1.85381e-05
1.86992e-05
1.88645e-05
1.90342e-05
1.92083e-05
1.93872e-05
1.95711e-05
1.97601e-05
1.99545e-05
2.01545e-05
2.03604e-05
2.05725e-05
2.0791e-05
2.10163e-05
2.12487e-05
2.14885e-05
2.17362e-05
2.1992e-05
2.22565e-05
2.25301e-05
2.28131e-05
2.31062e-05
2.34098e-05
2.37245e-05
2.40509e-05
2.43896e-05
2.47412e-05
2.51064e-05
2.5486e-05
2.58806e-05
2.62912e-05
2.67185e-05
2.71633e-05
2.76267e-05
2.81096e-05
2.86129e-05
2.91378e-05
2.96853e-05
3.02565e-05
3.08526e-05
3.14749e-05
3.21245e-05
3.28029e-05
3.35113e-05
3.42511e-05
3.50237e-05
3.58306e-05
3.66733e-05
3.75532e-05
3.84719e-05
3.9431e-05
4.0432e-05
4.14764e-05
4.25659e-05
4.3702e-05
4.48863e-05
4.61204e-05
4.74057e-05
4.87438e-05
5.01361e-05
5.1584e-05
5.30888e-05
5.46519e-05
5.62743e-05
5.79573e-05
5.97017e-05
6.15085e-05
6.33784e-05
6.5312e-05
6.73097e-05
6.93719e-05
7.14987e-05
7.36899e-05
7.59454e-05
7.82646e-05
8.06468e-05
8.30911e-05
8.55962e-05
8.81609e-05
9.07832e-05
9.34614e-05
9.61931e-05
9.89758e-05
0.000101807
0.000104683
0.0001076
0.000110556
0.000113546
0.000116565
0.00011961
0.000122675
0.000125756
0.000128846
0.000131941
0.000135034
0.00013812
0.000141192
0.000144243
0.000147268
0.000150258
0.000153208
0.000156111
0.000158959
0.000161744
0.000164461
0.000167102
0.000169659
0.000172126
0.000174495
0.00017676
0.000178914
0.00018095
0.000182863
0.000184646
0.000186293
0.000187799
0.000189158
0.000190367
0.000191419
0.000192312
0.000193042
0.000193605
0.000193999
0.000194221
0.00019427
0.000194144
0.000193843
0.000193366
0.000192714
0.000191886
0.000190885
0.000189712
0.00018837
0.00018686
0.000185187
0.000183354
0.000181365
0.000179224
0.000176937
0.000174509
0.000171945
0.000169252
0.000166436
0.000163503
0.00016046
0.000157315
0.000154074
0.000150746
0.000147337
0.000143855
0.000140308
0.000136703
0.000133049
0.000129353
0.000125622
0.000121864
0.000118087
0.000114297
0.000110502
0.000106708
0.000102923
9.91523e-05
9.54024e-05
9.16792e-05
8.79882e-05
8.43346e-05
8.07237e-05
7.71593e-05
7.3648e-05
7.01875e-05
6.67981e-05
6.34409e-05
6.02191e-05
5.69144e-05
5.39766e-05
5.05789e-05
4.81117e-05
4.44909e-05
4.24884e-05
3.88804e-05
3.69217e-05
3.37935e-05
3.14894e-05
3.05018e-05
2.70487e-05
2.70487e-05
-0.0952266
0.0952266
0.0129866
0.00386455
0.00194329
0.0012055
0.000830025
0.000606585
0.000462565
0.0003666
0.000297555
0.000239397
0.000184958
0.000135691
9.59351e-05
6.76016e-05
4.90686e-05
3.70815e-05
2.8825e-05
2.27319e-05
1.82291e-05
1.51574e-05
1.33644e-05
1.25787e-05
1.24615e-05
1.26989e-05
1.30611e-05
1.34132e-05
1.3696e-05
1.38976e-05
1.40289e-05
1.41081e-05
1.41522e-05
1.41747e-05
1.41845e-05
1.41875e-05
1.41871e-05
1.41853e-05
1.41831e-05
1.41811e-05
1.41794e-05
1.41783e-05
1.41777e-05
1.41777e-05
1.41783e-05
1.41794e-05
1.4181e-05
1.41831e-05
1.41857e-05
1.41888e-05
1.41924e-05
1.41964e-05
1.42009e-05
1.42059e-05
1.42112e-05
1.42171e-05
1.42233e-05
1.423e-05
1.42371e-05
1.42446e-05
1.42525e-05
1.42608e-05
1.42695e-05
1.42787e-05
1.42882e-05
1.42982e-05
1.43086e-05
1.43194e-05
1.43306e-05
1.43422e-05
1.43543e-05
1.43668e-05
1.43796e-05
1.4393e-05
1.44067e-05
1.4421e-05
1.44356e-05
1.44507e-05
1.44662e-05
1.44822e-05
1.44987e-05
1.45156e-05
1.4533e-05
1.45509e-05
1.45692e-05
1.4588e-05
1.46073e-05
1.46271e-05
1.46474e-05
1.46682e-05
1.46895e-05
1.47113e-05
1.47337e-05
1.47565e-05
1.47799e-05
1.48038e-05
1.48283e-05
1.48533e-05
1.48789e-05
1.4905e-05
1.49317e-05
1.4959e-05
1.49868e-05
1.50153e-05
1.50443e-05
1.50739e-05
1.51042e-05
1.5135e-05
1.51665e-05
1.51986e-05
1.52314e-05
1.52648e-05
1.52988e-05
1.53336e-05
1.53689e-05
1.5405e-05
1.54418e-05
1.54793e-05
1.55174e-05
1.55563e-05
1.55959e-05
1.56363e-05
1.56774e-05
1.57193e-05
1.57619e-05
1.58054e-05
1.58496e-05
1.58946e-05
1.59404e-05
1.59871e-05
1.60346e-05
1.6083e-05
1.61322e-05
1.61823e-05
1.62333e-05
1.62852e-05
1.6338e-05
1.63917e-05
1.64464e-05
1.65021e-05
1.65587e-05
1.66164e-05
1.6675e-05
1.67347e-05
1.67955e-05
1.68573e-05
1.69201e-05
1.69841e-05
1.70492e-05
1.71155e-05
1.71829e-05
1.72514e-05
1.73212e-05
1.73922e-05
1.74645e-05
1.7538e-05
1.76128e-05
1.7689e-05
1.77664e-05
1.78453e-05
1.79255e-05
1.80072e-05
1.80903e-05
1.81748e-05
1.82609e-05
1.83486e-05
1.84377e-05
1.85285e-05
1.8621e-05
1.87151e-05
1.88109e-05
1.89084e-05
1.90077e-05
1.91089e-05
1.92118e-05
1.93167e-05
1.94235e-05
1.95324e-05
1.96432e-05
1.97561e-05
1.98711e-05
1.99883e-05
2.01078e-05
2.02295e-05
2.03535e-05
2.048e-05
2.06089e-05
2.07403e-05
2.08743e-05
2.10109e-05
2.11503e-05
2.12924e-05
2.14374e-05
2.15854e-05
2.17363e-05
2.18904e-05
2.20477e-05
2.22082e-05
2.23722e-05
2.25396e-05
2.27106e-05
2.28853e-05
2.30638e-05
2.32463e-05
2.34328e-05
2.36235e-05
2.38185e-05
2.40179e-05
2.4222e-05
2.44309e-05
2.46447e-05
2.48637e-05
2.50879e-05
2.53177e-05
2.55531e-05
2.57945e-05
2.6042e-05
2.6296e-05
2.65565e-05
2.68239e-05
2.70986e-05
2.73807e-05
2.76706e-05
2.79686e-05
2.82751e-05
2.85905e-05
2.8915e-05
2.92492e-05
2.95935e-05
2.99483e-05
3.03141e-05
3.06914e-05
3.10808e-05
3.14827e-05
3.18979e-05
3.23269e-05
3.27704e-05
3.32291e-05
3.37037e-05
3.4195e-05
3.47038e-05
3.52309e-05
3.57772e-05
3.63437e-05
3.69312e-05
3.75408e-05
3.81736e-05
3.88307e-05
3.95131e-05
4.02222e-05
4.0959e-05
4.1725e-05
4.25213e-05
4.33494e-05
4.42107e-05
4.51066e-05
4.60385e-05
4.70081e-05
4.80169e-05
4.90664e-05
5.01582e-05
5.12941e-05
5.24756e-05
5.37043e-05
5.49821e-05
5.63105e-05
5.76912e-05
5.91258e-05
6.06161e-05
6.21636e-05
6.37699e-05
6.54365e-05
6.71649e-05
6.89564e-05
7.08125e-05
7.27343e-05
7.4723e-05
7.67796e-05
7.8905e-05
8.11e-05
8.33651e-05
8.57008e-05
8.81074e-05
9.0585e-05
9.31334e-05
9.57522e-05
9.8441e-05
0.000101199
0.000104025
0.000106917
0.000109875
0.000112895
0.000115977
0.000119117
0.000122313
0.000125562
0.000128859
0.000132202
0.000135586
0.000139008
0.000142461
0.000145941
0.000149444
0.000152962
0.000156491
0.000160024
0.000163554
0.000167075
0.000170579
0.000174061
0.000177511
0.000180923
0.000184289
0.0001876
0.00019085
0.00019403
0.000197131
0.000200146
0.000203067
0.000205886
0.000208594
0.000211184
0.000213649
0.00021598
0.000218171
0.000220214
0.000222102
0.000223831
0.000225392
0.000226781
0.000227992
0.000229021
0.000229863
0.000230513
0.00023097
0.00023123
0.00023129
0.000231149
0.000230805
0.000230258
0.000229508
0.000228555
0.0002274
0.000226045
0.000224493
0.000222745
0.000220806
0.000218679
0.000216368
0.000213879
0.000211217
0.000208388
0.000205397
0.000202252
0.00019896
0.000195528
0.000191963
0.000188275
0.00018447
0.000180558
0.000176547
0.000172446
0.000168264
0.000164009
0.00015969
0.000155317
0.000150899
0.000146443
0.000141959
0.000137456
0.000132941
0.000128423
0.000123909
0.000119408
0.000114927
0.000110473
0.000106053
0.000101673
9.73388e-05
9.30566e-05
8.88324e-05
8.46686e-05
8.05771e-05
7.65409e-05
7.26217e-05
6.86743e-05
6.50567e-05
6.09841e-05
5.80656e-05
5.33042e-05
5.17655e-05
4.57844e-05
4.56323e-05
3.92574e-05
3.89179e-05
3.39064e-05
3.19059e-05
3.3751e-05
2.67336e-05
2.67336e-05
-0.125304
0.125304
0.0249465
0.0083661
0.00428404
0.00266822
0.00183788
0.00134144
0.00102066
0.000805964
0.000650329
0.000518886
0.00039666
0.00028707
0.000199174
0.000136547
9.53103e-05
6.83601e-05
4.96932e-05
3.59913e-05
2.60006e-05
1.9298e-05
1.54595e-05
1.38267e-05
1.36281e-05
1.41735e-05
1.49689e-05
1.57305e-05
1.63369e-05
1.67668e-05
1.70458e-05
1.72135e-05
1.73068e-05
1.7354e-05
1.73743e-05
1.73801e-05
1.73785e-05
1.73737e-05
1.73678e-05
1.7362e-05
1.73567e-05
1.73523e-05
1.73488e-05
1.73463e-05
1.73446e-05
1.73439e-05
1.7344e-05
1.7345e-05
1.73468e-05
1.73493e-05
1.73526e-05
1.73566e-05
1.73613e-05
1.73668e-05
1.73728e-05
1.73796e-05
1.73869e-05
1.73949e-05
1.74035e-05
1.74128e-05
1.74226e-05
1.7433e-05
1.7444e-05
1.74556e-05
1.74677e-05
1.74805e-05
1.74939e-05
1.75078e-05
1.75223e-05
1.75375e-05
1.75531e-05
1.75695e-05
1.75864e-05
1.76039e-05
1.7622e-05
1.76408e-05
1.76601e-05
1.76801e-05
1.77007e-05
1.7722e-05
1.77439e-05
1.77665e-05
1.77897e-05
1.78136e-05
1.78381e-05
1.78634e-05
1.78893e-05
1.79159e-05
1.79432e-05
1.79712e-05
1.79999e-05
1.80294e-05
1.80595e-05
1.80904e-05
1.81221e-05
1.81545e-05
1.81876e-05
1.82216e-05
1.82563e-05
1.82918e-05
1.8328e-05
1.83651e-05
1.8403e-05
1.84418e-05
1.84813e-05
1.85217e-05
1.8563e-05
1.86051e-05
1.86481e-05
1.8692e-05
1.87367e-05
1.87824e-05
1.8829e-05
1.88765e-05
1.8925e-05
1.89744e-05
1.90248e-05
1.90762e-05
1.91286e-05
1.9182e-05
1.92363e-05
1.92918e-05
1.93482e-05
1.94058e-05
1.94644e-05
1.95241e-05
1.95849e-05
1.96469e-05
1.971e-05
1.97743e-05
1.98397e-05
1.99063e-05
1.99741e-05
2.00432e-05
2.01135e-05
2.01851e-05
2.02579e-05
2.03321e-05
2.04076e-05
2.04845e-05
2.05627e-05
2.06424e-05
2.07234e-05
2.08059e-05
2.08898e-05
2.09753e-05
2.10622e-05
2.11507e-05
2.12407e-05
2.13324e-05
2.14256e-05
2.15206e-05
2.16172e-05
2.17155e-05
2.18155e-05
2.19174e-05
2.2021e-05
2.21264e-05
2.22338e-05
2.2343e-05
2.24542e-05
2.25674e-05
2.26826e-05
2.27998e-05
2.29192e-05
2.30407e-05
2.31644e-05
2.32903e-05
2.34185e-05
2.3549e-05
2.36819e-05
2.38172e-05
2.39549e-05
2.40953e-05
2.42381e-05
2.43837e-05
2.45318e-05
2.46828e-05
2.48366e-05
2.49933e-05
2.51528e-05
2.53155e-05
2.54812e-05
2.565e-05
2.58221e-05
2.59975e-05
2.61763e-05
2.63586e-05
2.65444e-05
2.67339e-05
2.69271e-05
2.71242e-05
2.73252e-05
2.75302e-05
2.77394e-05
2.79529e-05
2.81707e-05
2.83931e-05
2.862e-05
2.88518e-05
2.90884e-05
2.93301e-05
2.9577e-05
2.98292e-05
3.00869e-05
3.03503e-05
3.06196e-05
3.08949e-05
3.11764e-05
3.14644e-05
3.1759e-05
3.20605e-05
3.23691e-05
3.2685e-05
3.30085e-05
3.334e-05
3.36795e-05
3.40275e-05
3.43843e-05
3.47501e-05
3.51254e-05
3.55104e-05
3.59056e-05
3.63114e-05
3.67282e-05
3.71563e-05
3.75964e-05
3.80488e-05
3.8514e-05
3.89927e-05
3.94852e-05
3.99924e-05
4.05147e-05
4.10528e-05
4.16074e-05
4.21792e-05
4.27689e-05
4.33774e-05
4.40053e-05
4.46537e-05
4.53233e-05
4.60152e-05
4.67302e-05
4.74694e-05
4.82338e-05
4.90246e-05
4.98428e-05
5.06897e-05
5.15664e-05
5.24742e-05
5.34144e-05
5.43884e-05
5.53974e-05
5.6443e-05
5.75266e-05
5.86496e-05
5.98136e-05
6.10201e-05
6.22707e-05
6.3567e-05
6.49105e-05
6.63029e-05
6.77458e-05
6.92408e-05
7.07895e-05
7.23936e-05
7.40546e-05
7.5774e-05
7.75534e-05
7.93943e-05
8.12979e-05
8.32658e-05
8.52992e-05
8.73992e-05
8.95669e-05
9.18034e-05
9.41093e-05
9.64856e-05
9.89327e-05
0.000101451
0.000104041
0.000106702
0.000109435
0.000112238
0.000115112
0.000118055
0.000121067
0.000124146
0.000127291
0.000130498
0.000133768
0.000137095
0.000140479
0.000143916
0.000147402
0.000150934
0.000154507
0.000158117
0.000161759
0.000165429
0.00016912
0.000172827
0.000176545
0.000180266
0.000183983
0.000187691
0.000191382
0.000195049
0.000198683
0.000202278
0.000205825
0.000209315
0.000212742
0.000216096
0.000219369
0.000222553
0.000225639
0.000228618
0.000231483
0.000234225
0.000236836
0.000239308
0.000241633
0.000243804
0.000245814
0.000247654
0.00024932
0.000250804
0.000252101
0.000253206
0.000254113
0.000254817
0.000255316
0.000255606
0.000255682
0.000255545
0.000255191
0.000254619
0.000253829
0.000252821
0.000251596
0.000250155
0.000248499
0.000246632
0.000244556
0.000242275
0.000239793
0.000237116
0.000234248
0.000231195
0.000227963
0.00022456
0.000220993
0.000217268
0.000213395
0.000209381
0.000205235
0.000200965
0.000196582
0.000192094
0.00018751
0.00018284
0.000178094
0.000173282
0.000168412
0.000163494
0.000158539
0.000153554
0.00014855
0.000143536
0.00013852
0.00013351
0.000128516
0.000123545
0.000118604
0.000113702
0.000108844
0.000104039
9.92912e-05
9.46069e-05
8.99929e-05
8.54493e-05
8.09954e-05
7.65922e-05
7.23617e-05
6.8002e-05
6.42484e-05
5.94714e-05
5.70181e-05
5.06189e-05
5.09148e-05
4.17197e-05
4.48305e-05
3.45371e-05
3.71184e-05
2.94839e-05
2.83889e-05
3.40595e-05
2.27269e-05
2.27269e-05
-0.146497
0.146497
0.0383197
0.0142384
0.00745682
0.00467461
0.00322751
0.00235743
0.00179343
0.00141427
0.00113766
0.000903636
0.000687256
0.000494689
0.000340934
0.000231293
0.000158614
0.000110651
7.72523e-05
5.2833e-05
3.5216e-05
2.35521e-05
1.69693e-05
1.42272e-05
1.39415e-05
1.49081e-05
1.62809e-05
1.75819e-05
1.86116e-05
1.93384e-05
1.98085e-05
2.00903e-05
2.02466e-05
2.03253e-05
2.03587e-05
2.03675e-05
2.03638e-05
2.03545e-05
2.03432e-05
2.03319e-05
2.03213e-05
2.0312e-05
2.03039e-05
2.02974e-05
2.02921e-05
2.02882e-05
2.02856e-05
2.02842e-05
2.0284e-05
2.02849e-05
2.02869e-05
2.029e-05
2.0294e-05
2.0299e-05
2.0305e-05
2.03119e-05
2.03196e-05
2.03283e-05
2.03377e-05
2.03481e-05
2.03592e-05
2.03712e-05
2.03838e-05
2.03974e-05
2.04116e-05
2.04268e-05
2.04426e-05
2.04592e-05
2.04766e-05
2.04948e-05
2.05138e-05
2.05336e-05
2.05541e-05
2.05755e-05
2.05977e-05
2.06207e-05
2.06444e-05
2.06691e-05
2.06945e-05
2.07209e-05
2.0748e-05
2.0776e-05
2.08049e-05
2.08347e-05
2.08653e-05
2.08968e-05
2.09292e-05
2.09626e-05
2.09968e-05
2.1032e-05
2.10681e-05
2.11052e-05
2.11431e-05
2.11822e-05
2.12221e-05
2.12631e-05
2.1305e-05
2.13479e-05
2.13919e-05
2.14369e-05
2.14829e-05
2.153e-05
2.15781e-05
2.16274e-05
2.16777e-05
2.17292e-05
2.17817e-05
2.18354e-05
2.18902e-05
2.19462e-05
2.20033e-05
2.20616e-05
2.21211e-05
2.21819e-05
2.22439e-05
2.23071e-05
2.23716e-05
2.24374e-05
2.25044e-05
2.25729e-05
2.26425e-05
2.27136e-05
2.2786e-05
2.28599e-05
2.29351e-05
2.30118e-05
2.30899e-05
2.31695e-05
2.32505e-05
2.33331e-05
2.34172e-05
2.35029e-05
2.35901e-05
2.3679e-05
2.37694e-05
2.38615e-05
2.39553e-05
2.40508e-05
2.4148e-05
2.4247e-05
2.43477e-05
2.44503e-05
2.45547e-05
2.4661e-05
2.47691e-05
2.48793e-05
2.49913e-05
2.51054e-05
2.52215e-05
2.53397e-05
2.54599e-05
2.55824e-05
2.57069e-05
2.58337e-05
2.59627e-05
2.60941e-05
2.62278e-05
2.63638e-05
2.65023e-05
2.66432e-05
2.67866e-05
2.69327e-05
2.70812e-05
2.72325e-05
2.73864e-05
2.75432e-05
2.77027e-05
2.78651e-05
2.80304e-05
2.81987e-05
2.83701e-05
2.85446e-05
2.87221e-05
2.8903e-05
2.90872e-05
2.92748e-05
2.94657e-05
2.96603e-05
2.98583e-05
3.00601e-05
3.02656e-05
3.04751e-05
3.06883e-05
3.09057e-05
3.11271e-05
3.13528e-05
3.15827e-05
3.18171e-05
3.20559e-05
3.22994e-05
3.25476e-05
3.28007e-05
3.30587e-05
3.33219e-05
3.35902e-05
3.3864e-05
3.41432e-05
3.44281e-05
3.47188e-05
3.50155e-05
3.53182e-05
3.56273e-05
3.59427e-05
3.62649e-05
3.65939e-05
3.69299e-05
3.72731e-05
3.76239e-05
3.79822e-05
3.83486e-05
3.8723e-05
3.91059e-05
3.94974e-05
3.9898e-05
4.03077e-05
4.0727e-05
4.11561e-05
4.15955e-05
4.20454e-05
4.25062e-05
4.29783e-05
4.34621e-05
4.39579e-05
4.44663e-05
4.49876e-05
4.55225e-05
4.60712e-05
4.66345e-05
4.72127e-05
4.78066e-05
4.84166e-05
4.90435e-05
4.96878e-05
5.03503e-05
5.10315e-05
5.17324e-05
5.24536e-05
5.3196e-05
5.39604e-05
5.47477e-05
5.55588e-05
5.63947e-05
5.72562e-05
5.81445e-05
5.90605e-05
6.00055e-05
6.09805e-05
6.19867e-05
6.30252e-05
6.40975e-05
6.52045e-05
6.63479e-05
6.75287e-05
6.87485e-05
7.00086e-05
7.13104e-05
7.26554e-05
7.40451e-05
7.54808e-05
7.69642e-05
7.84966e-05
8.00797e-05
8.17149e-05
8.34036e-05
8.51473e-05
8.69476e-05
8.88056e-05
9.0723e-05
9.27008e-05
9.47406e-05
9.68432e-05
9.901e-05
0.000101242
0.00010354
0.000105905
0.000108337
0.000110837
0.000113406
0.000116044
0.00011875
0.000121525
0.000124368
0.000127279
0.000130257
0.000133301
0.000136411
0.000139583
0.000142817
0.00014611
0.000149461
0.000152866
0.000156323
0.000159828
0.000163378
0.000166969
0.000170596
0.000174256
0.000177944
0.000181653
0.000185379
0.000189116
0.000192858
0.000196599
0.000200331
0.000204049
0.000207744
0.000211409
0.000215037
0.000218619
0.000222149
0.000225617
0.000229016
0.000232337
0.000235571
0.00023871
0.000241746
0.000244671
0.000247475
0.00025015
0.000252689
0.000255083
0.000257325
0.000259407
0.000261321
0.000263061
0.00026462
0.000265991
0.00026717
0.000268149
0.000268926
0.000269493
0.000269849
0.000269988
0.00026991
0.000269609
0.000269087
0.00026834
0.000267368
0.000266172
0.000264752
0.000263109
0.000261245
0.000259163
0.000256866
0.000254357
0.000251642
0.000248723
0.000245608
0.000242302
0.000238811
0.000235142
0.000231303
0.000227302
0.000223145
0.000218843
0.000214404
0.000209836
0.00020515
0.000200354
0.000195459
0.000190474
0.000185409
0.000180274
0.000175078
0.000169833
0.000164547
0.000159231
0.000153893
0.000148544
0.000143192
0.000137847
0.000132517
0.00012721
0.000121935
0.000116699
0.00011151
0.000106374
0.000101299
9.62899e-05
9.13526e-05
8.64945e-05
8.17127e-05
7.70358e-05
7.23969e-05
6.79943e-05
6.33275e-05
5.96107e-05
5.41395e-05
5.24796e-05
4.41689e-05
4.70183e-05
3.38407e-05
4.13735e-05
2.61257e-05
3.27121e-05
2.17352e-05
2.20997e-05
3.17903e-05
1.60469e-05
1.60469e-05
-0.160446
0.160446
0.0520034
0.0211671
0.0113729
0.00719
0.00498195
0.00364508
0.002775
0.00218734
0.00175614
0.00139087
0.00105483
0.000757632
0.000521126
0.000352206