# vtk DataFile Version 2.0
FlowField
ASCII
DATASET STRUCTURED_GRID
DIMENSIONS 400 1 200
POINTS 80000 float
0 0 0
0.08 0 0
0.16 0 0
0.24 0 0
0.32 0 0
0.4 0 0
0.48 0 0
0.56 0 0
0.64 0 0
0.72 0 0
0.8 0 0
0.88 0 0
0.96 0 0
1.04 0 0
1.12 0 0
1.2 0 0
1.28 0 0
1.36 0 0
1.44 0 0
1.52 0 0
1.6 0 0
1.68 0 0
1.76 0 0
1.84 0 0
1.92 0 0
2 0 0
2.08 0 0
2.16 0 0
2.24 0 0
2.32 0 0
2.4 0 0
2.48 0 0
2.56 0 0
2.64 0 0
2.72 0 0
2.8 0 0
2.88 0 0
2.96 0 0
3.04 0 0
3.12 0 0
3.2 0 0
3.28 0 0
3.36 0 0
3.44 0 0
3.52 0 0
3.6 0 0
3.68 0 0
3.76 0 0
3.84 0 0
3.92 0 0
4 0 0
4.08 0 0
4.16 0 0
4.24 0 0
4.32 0 0
4.4 0 0
4.48 0 0
4.56 0 0
4.64 0 0
4.72 0 0
4.8 0 0
4.88 0 0
4.96 0 0
5.04 0 0
5.12 0 0
5.2 0 0
5.28 0 0
5.36 0 0
5.44 0 0
5.52 0 0
5.6 0 0
5.68 0 0
5.76 0 0
5.84 0 0
5.92 0 0
6 0 0
6.08 0 0
6.16 0 0
6.24 0 0
6.32 0 0
6.4 0 0
6.48 0 0
6.56 0 0
6.64 0 0
6.72 0 0
6.8 0 0
6.88 0 0
6.96 0 0
7.04 0 0
7.12 0 0
7.2 0 0
7.28 0 0
7.36 0 0
7.44 0 0
7.52 0 0
7.6 0 0
7.68 0 0
7.76 0 0
7.84 0 0
7.92 0 0
8 0 0
8.08 0 0
8.16 0 0
8.24 0 0
8.32 0 0
8.4 0 0
8.48 0 0
8.56 0 0
8.64 0 0
8.72 0 0
8.8 0 0
8.88 0 0
8.96 0 0
9.04 0 0
9.12 0 0
9.2 0 0
9.28 0 0
9.36 0 0
9.44 0 0
9.52 0 0
9.6 0 0
9.68 0 0
9.76 0 0
9.84 0 0
9.92 0 0
10 0 0
10.08 0 0
10.16 0 0
10.24 0 0
10.32 0 0
10.4 0 0
10.48 0 0
10.56 0 0
10.64 0 0
10.72 0 0
10.8 0 0
10.88 0 0
10.96 0 0
11.04 0 0
11.12 0 0
11.2 0 0
11.28 0 0
11.36 0 0
11.44 0 0
11.52 0 0
11.6 0 0
11.68 0 0
11.76 0 0
11.84 0 0
11.92 0 0
12 0 0
12.08 0 0
12.16 0 0
12.24 0 0
12.32 0 0
12.4 0 0
12.48 0 0
12.56 0 0
12.64 0 0
12.72 0 0
12.8 0 0
12.88 0 0
12.96 0 0
13.04 0 0
13.12 0 0
13.2 0 0
13.28 0 0
13.36 0 0
13.44 0 0
13.52 0 0
13.6 0 0
13.68 0 0
13.76 0 0
13.84 0 0
13.92 0 0
14 0 0
14.08 0 0
14.16 0 0
14.24 0 0
14.32 0 0
14.4 0 0
14.48 0 0
14.56 0 0
14.64 0 0
14.72 0 0
14.8 0 0
14.88 0 0
14.96 0 0
15.04 0 0
15.12 0 0
15.2 0 0
15.28 0 0
15.36 0 0
15.44 0 0
15.52 0 0
15.6 0 0
15.68 0 0
15.76 0 0
15.84 0 0
15.92 0 0
16 0 0
16.08 0 0
16.16 0 0
16.24 0 0
16.32 0 0
16.4 0 0
16.48 0 0
16.56 0 0
16.64 0 0
16.72 0 0
16.8 0 0
16.88 0 0
16.96 0 0
17.04 0 0
17.12 0 0
17.2 0 0
17.28 0 0
17.36 0 0
17.44 0 0
17.52 0 0
17.6 0 0
17.68 0 0
17.76 0 0
17.84 0 0
17.92 0 0
18 0 0
18.08 0 0
18.16 0 0
18.24 0 0
18.32 0 0
18.4 0 0
18.48 0 0
18.56 0 0
18.64 0 0
18.72 0 0
18.8 0 0
18.88 0 0
18.96 0 0
19.04 0 0
19.12 0 0
19.2 0 0
19.28 0 0
19.36 0 0
19.44 0 0
19.52 0 0
19.6 0 0
19.68 0 0
19.76 0 0
19.84 0 0
19.92 0 0
20 0 0
20.08 0 0
20.16 0 0
20.24 0 0
20.32 0 0
20.4 0 0
20.48 0 0
20.56 0 0
20.64 0 0
20.72 0 0
20.8 0 0
20.88 0 0
20.96 0 0
21.04 0 0
21.12 0 0
21.2 0 0
21.28 0 0
21.36 0 0
21.44 0 0
21.52 0 0
21.6 0 0
21.68 0 0
21.76 0 0
21.84 0 0
21.92 0 0
22 0 0
22.08 0 0
22.16 0 0
22.24 0 0
22.32 0 0
22.4 0 0
22.48 0 0
22.56 0 0
22.64 0 0
22.72 0 0
22.8 0 0
22.88 0 0
22.96 0 0
23.04 0 0
23.12 0 0
23.2 0 0
23.28 0 0
23.36 0 0
23.44 0 0
23.52 0 0
23.6 0 0
23.68 0 0
23.76 0 0
23.84 0 0
23.92 0 0
24 0 0
24.08 0 0
24.16 0 0
24.24 0 0
24.32 0 0
24.4 0 0
24.48 0 0
24.56 0 0
24.64 0 0
24.72 0 0
24.8 0 0
24.88 0 0
24.96 0 0
25.04 0 0
25.12 0 0
25.2 0 0
25.28 0 0
25.36 0 0
25.44 0 0
25.52 0 0
25.6 0 0
25.68 0 0
25.76 0 0
25.84 0 0
25.92 0 0
26 0 0
26.08 0 0
26.16 0 0
26.24 0 0
26.32 0 0
26.4 0 0
26.48 0 0
26.56 0 0
26.64 0 0
26.72 0 0
26.8 0 0
26.88 0 0
26.96 0 0
27.04 0 0
27.12 0 0
27.2 0 0
27.28 0 0
27.36 0 0
27.44 0 0
27.52 0 0
27.6 0 0
27.68 0 0
27.76 0 0
27.84 0 0
27.92 0 0
28 0 0
28.08 0 0
28.16 0 0
28.24 0 0
28.32 0 0
28.4 0 0
28.48 0 0
28.56 0 0
28.64 0 0
28.72 0 0
28.8 0 0
28.88 0 0
28.96 0 0
29.04 0 0
29.12 0 0
29.2 0 0
29.28 0 0
29.36 0 0
29.44 0 0
29.52 0 0
29.6 0 0
29.68 0 0
29.76 0 0
29.84 0 0
29.92 0 0
30 0 0
30.08 0 0
30.16 0 0
30.24 0 0
30.32 0 0
30.4 0 0
30.48 0 0
30.56 0 0
30.64 0 0
30.72 0 0
30.8 0 0
30.88 0 0
30.96 0 0
31.04 0 0
31.12 0 0
31.2 0 0
31.28 0 0
31.36 0 0
31.44 0 0
31.52 0 0
31.6 0 0
31.68 0 0
31.76 0 0
31.84 0 0
31.92 0 0
0 0.005 0
0.08 0.005 0
0.16 0.005 0
0.24 0.005 0
0.32 0.005 0
0.4 0.005 0
0.48 0.005 0
0.56 0.005 0
0.64 0.005 0
0.72 0.005 0
0.8 0.005 0
0.88 0.005 0
0.96 0.005 0
1.04 0.005 0
1.12 0.005 0
1.2 0.005 0
1.28 0.005 0
1.36 0.005 0
1.44 0.005 0
1.52 0.005 0
1.6 0.005 0
1.68 0.005 0
1.76 0.005 0
1.84 0.005 0
1.92 0.005 0
2 0.005 0
2.08 0.005 0
2.16 0.005 0
2.24 0.005 0
2.32 0.005 0
2.4 0.005 0
2.48 0.005 0
2.56 0.005 0
2.64 0.005 0
2.72 0.005 0
2.8 0.005 0
2.88 0.005 0
2.96 0.005 0
3.04 0.005 0
3.12 0.005 0
3.2 0.005 0
3.28 0.005 0
3.36 0.005 0
3.44 0.005 0
3.52 0.005 0
3.6 0.005 0
3.68 0.005 0
3.76 0.005 0
3.84 0.005 0
3.92 0.005 0
4 0.005 0
4.08 0.005 0
4.16 0.005 0
4.24 0.005 0
4.32 0.005 0
4.4 0.005 0
4.48 0.005 0
4.56 0.005 0
4.64 0.005 0
4.72 0.005 0
4.8 0.005 0
4.88 0.005 0
4.96 0.005 0
5.04 0.005 0
5.12 0.005 0
5.2 0.005 0
5.28 0.005 0
5.36 0.005 0
5.44 0.005 0
5.52 0.005 0
5.6 0.005 0
5.68 0.005 0
5.76 0.005 0
5.84 0.005 0
5.92 0.005 0
6 0.005 0
6.08 0.005 0
6.16 0.005 0
6.24 0.005 0
6.32 0.005 0
6.4 0.005 0
6.48 0.005 0
6.56 0.005 0
6.64 0.005 0
6.72 0.005 0
6.8 0.005 0
6.88 0.005 0
6.96 0.005 0
7.04 0.005 0
7.12 0.005 0
7.2 0.005 0
7.28 0.005 0
7.36 0.005 0
7.44 0.005 0
7.52 0.005 0
7.6 0.005 0
7.68 0.005 0
7.76 0.005 0
7.84 0.005 0
7.92 0.005 0
8 0.005 0
8.08 0.005 0
8.16 0.005 0
8.24 0.005 0
8.32 0.005 0
8.4 0.005 0
8.48 0.005 0
8.56 0.005 0
8.64 0.005 0
8.72 0.005 0
8.8 0.005 0
8.88 0.005 0
8.96 0.005 0
9.04 0.005 0
9.12 0.005 0
9.2 0.005 0
9.28 0.005 0
9.36 0.005 0
9.44 0.005 0
9.52 0.005 0
9.6 0.005 0
9.68 0.005 0
9.76 0.005 0
9.84 0.005 0
9.92 0.005 0
10 0.005 0
10.08 0.005 0
10.16 0.005 0
10.24 0.005 0
10.32 0.005 0
10.4 0.005 0
10.48 0.005 0
10.56 0.005 0
10.64 0.005 0
10.72 0.005 0
10.8 0.005 0
10.88 0.005 0
10.96 0.005 0
11.04 0.005 0
11.12 0.005 0
11.2 0.005 0
11.28 0.005 0
11.36 0.005 0
11.44 0.005 0
11.52 0.005 0
11.6 0.005 0
11.68 0.005 0
11.76 0.005 0
11.84 0.005 0
11.92 0.005 0
12 0.005 0
12.08 0.005 0
12.16 0.005 0
12.24 0.005 0
12.32 0.005 0
12.4 0.005 0
12.48 0.005 0
12.56 0.005 0
12.64 0.005 0
12.72 0.005 0
12.8 0.005 0
12.88 0.005 0
12.96 0.005 0
13.04 0.005 0
13.12 0.005 0
13.2 0.005 0
13.28 0.005 0
13.36 0.005 0
13.44 0.005 0
13.52 0.005 0
13.6 0.005 0
13.68 0.005 0
13.76 0.005 0
13.84 0.005 0
13.92 0.005 0
14 0.005 0
14.08 0.005 0
14.16 0.005 0
14.24 0.005 0
14.32 0.005 0
14.4 0.005 0
14.48 0.005 0
14.56 0.005 0
14.64 0.005 0
14.72 0.005 0
14.8 0.005 0
14.88 0.005 0
14.96 0.005 0
15.04 0.005 0
15.12 0.005 0
15.2 0.005 0
15.28 0.005 0
15.36 0.005 0
15.44 0.005 0
15.52 0.005 0
15.6 0.005 0
15.68 0.005 0
15.76 0.005 0
15.84 0.005 0
15.92 0.005 0
16 0.005 0
16.08 0.005 0
16.16 0.005 0
16.24 0.005 0
16.32 0.005 0
16.4 0.005 0
16.48 0.005 0
16.56 0.005 0
16.64 0.005 0
16.72 0.005 0
16.8 0.005 0
16.88 0.005 0
16.96 0.005 0
17.04 0.005 0
17.12 0.005 0
17.2 0.005 0
17.28 0.005 0
17.36 0.005 0
17.44 0.005 0
17.52 0.005 0
17.6 0.005 0
17.68 0.005 0
17.76 0.005 0
17.84 0.005 0
17.92 0.005 0
18 0.005 0
18.08 0.005 0
18.16 0.005 0
18.24 0.005 0
18.32 0.005 0
18.4 0.005 0
18.48 0.005 0
18.56 0.005 0
18.64 0.005 0
18.72 0.005 0
18.8 0.005 0
18.88 0.005 0
18.96 0.005 0
19.04 0.005 0
19.12 0.005 0
19.2 0.005 0
19.28 0.005 0
19.36 0.005 0
19.44 0.005 0
19.52 0.005 0
19.6 0.005 0
19.68 0.005 0
19.76 0.005 0
19.84 0.005 0
19.92 0.005 0
20 0.005 0
20.08 0.005 0
20.16 0.005 0
20.24 0.005 0
20.32 0.005 0
20.4 0.005 0
20.48 0.005 0
20.56 0.005 0
20.64 0.005 0
20.72 0.005 0
20.8 0.005 0
20.88 0.005 0
20.96 0.005 0
21.04 0.005 0
21.12 0.005 0
21.2 0.005 0
21.28 0.005 0
21.36 0.005 0
21.44 0.005 0
21.52 0.005 0
21.6 0.005 0
21.68 0.005 0
21.76 0.005 0
21.84 0.005 0
21.92 0.005 0
22 0.005 0
22.08 0.005 0
22.16 0.005 0
22.24 0.005 0
22.32 0.005 0
22.4 0.005 0
22.48 0.005 0
22.56 0.005 0
22.64 0.005 0
22.72 0.005 0
22.8 0.005 0
22.88 0.005 0
22.96 0.005 0
23.04 0.005 0
23.12 0.005 0
23.2 0.005 0
23.28 0.005 0
23.36 0.005 0
23.44 0.005 0
23.52 0.005 0
23.6 0.005 0
23.68 0.005 0
23.76 0.005 0
23.84 0.005 0
23.92 0.005 0
24 0.005 0
24.08 0.005 0
24.16 0.005 0
24.24 0.005 0
24.32 0.005 0
24.4 0.005 0
24.48 0.005 0
24.56 0.005 0
24.64 0.005 0
24.72 0.005 0
24.8 0.005 0
24.88 0.005 0
24.96 0.005 0
25.04 0.005 0
25.12 0.005 0
25.2 0.005 0
25.28 0.005 0
25.36 0.005 0
25.44 0.005 0
25.52 0.005 0
25.6 0.005 0
25.68 0.005 0
25.76 0.005 0
25.84 0.005 0
25.92 0.005 0
26 0.005 0
26.08 0.005 0
26.16 0.005 0
26.24 0.005 0
26.32 0.005 0
26.4 0.005 0
26.48 0.005 0
26.56 0.005 0
26.64 0.005 0
26.72 0.005 0
26.8 0.005 0
26.88 0.005 0
26.96 0.005 0
27.04 0.005 0
27.12 0.005 0
27.2 0.005 0
27.28 0.005 0
27.36 0.005 0
27.44 0.005 0
27.52 0.005 0
27.6 0.005 0
27.68 0.005 0
27.76 0.005 0
27.84 0.005 0
27.92 0.005 0
28 0.005 0
28.08 0.005 0
28.16 0.005 0
28.24 0.005 0
28.32 0.005 0
28.4 0.005 0
28.48 0.005 0
28.56 0.005 0
28.64 0.005 0
28.72 0.005 0
28.8 0.005 0
28.88 0.005 0
28.96 0.005 0
29.04 0.005 0
29.12 0.005 0
29.2 0.005 0
29.28 0.005 0
29.36 0.005 0
29.44 0.005 0
29.52 0.005 0
29.6 0.005 0
29.68 0.005 0
29.76 0.005 0
29.84 0.005 0
29.92 0.005 0
30 0.005 0
30.08 0.005 0
30.16 0.005 0
30.24 0.005 0
30.32 0.005 0
30.4 0.005 0
30.48 0.005 0
30.56 0.005 0
30.64 0.005 0
30.72 0.005 0
30.8 0.005 0
30.88 0.005 0
30.96 0.005 0
31.04 0.005 0
31.12 0.005 0
31.2 0.005 0
31.28 0.005 0
31.36 0.005 0
31.44 0.005 0
31.52 0.005 0
31.6 0.005 0
31.68 0.005 0
31.76 0.005 0
31.84 0.005 0
31.92 0.005 0
0 0.01 0
0.08 0.01 0
0.16 0.01 0
0.24 0.01 0
0.32 0.01 0
0.4 0.01 0
0.48 0.01 0
0.56 0.01 0
0.64 0.01 0
0.72 0.01 0
0.8 0.01 0
0.88 0.01 0
0.96 0.01 0
1.04 0.01 0
1.12 0.01 0
1.2 0.01 0
1.28 0.01 0
1.36 0.01 0
1.44 0.01 0
1.52 0.01 0
1.6 0.01 0
1.68 0.01 0
1.76 0.01 0
1.84 0.01 0
1.92 0.01 0
2 0.01 0
2.08 0.01 0
2.16 0.01 0
2.24 0.01 0
2.32 0.01 0
2.4 0.01 0
2.48 0.01 0
2.56 0.01 0
2.64 0.01 0
2.72 0.01 0
2.8 0.01 0
2.88 0.01 0
2.96 0.01 0
3.04 0.01 0
3.12 0.01 0
3.2 0.01 0
3.28 0.01 0
3.36 0.01 0
3.44 0.01 0
3.52 0.01 0
3.6 0.01 0
3.68 0.01 0
3.76 0.01 0
3.84 0.01 0
3.92 0.01 0
4 0.01 0
4.08 0.01 0
4.16 0.01 0
4.24 0.01 0
4.32 0.01 0
4.4 0.01 0
4.48 0.01 0
4.56 0.01 0
4.64 0.01 0
4.72 0.01 0
4.8 0.01 0
4.88 0.01 0
4.96 0.01 0
5.04 0.01 0
5.12 0.01 0
[...]
POINT_DATA 80000

SCALARS v float 1
LOOKUP_TABLE default
0
0
0
0
0
0
0
0
0
0
0
0
0
0
0
0
0
0
0
0
0
0
0
0
0
0
0
0
0
0
0
0
0
0
0
0
0
0
0
0
0
0
0
0
0
0
0
0
0
0
0
0
0
0
0
0
0
0
0
0
0
0
0
0
0
0
0
0
0
0
0
0
0
0
0
0
0
0
0
0
0
0
0
0
0
0
0
0
0
0
0
0
0
0
0
0
0
0
0
0
0
0
0
0
0
0
0
0
0
0
0
0
0
0
0
0
0
0
0
0
0
0
0
0
0
0
0
0
0
0
0
0
0
0
0
0
0
0
0
0
0
0
0
0
0
0
0
0
0
0
0
0
0
0
0
0
0
0
0
0
0
0
0
0
0
0
0
0
0
0
0
0
0
0
0
0
0
0
0
0
0
0
0
0
0
0
0
0
0
0
0
0
0
0
0
0
0
0
0
0
0
0
0
0
0
0
0
0
0
0
0
0
0
0
0
0
0
0
0
0
0
0
0
0
0
0
0
0
0
0
0
0
0
0
0
0
0
0
0
0
0
0
0
0
0
0
0
0
0
0
0
0
0
0
0
0
0
0
0
0
0
0
0
0
0
0
0
0
0
0
0
0
0
0
0
0
0
0
0
0
0
0
0
0
0
0
0
0
0
0
0
0
0
0
0
0
0
0
0
0
0
0
0
0
0
0
0
0
0
0
0
0
0
0
0
0
0
0
0
0
0
0
0
0
0
0
0
0
0
0
0
0
0
0
0
0
0
0
0
0
0
0
0
0
0
0
0
0
0
0
0
0
0
0
0
0
0
0
0
0
0
0
0
0
0
0
0
0
0
0
0
0
0
0
0
0
0
0
0
0
0
0
0
0
0
0
0
0
0
0
0
0
0
0
0
0
0
0
0
0
-0.0542899
0.0542899
0.00398101
0.00101766
0.000512108
0.000321839
0.000224836
0.000168591
0.000133459
0.000108079
8.62107e-05
6.65639e-05
5.04326e-05
3.88316e-05
3.14e-05
2.69391e-05
2.42731e-05
2.26493e-05
2.1692e-05
2.12115e-05
2.10701e-05
2.11408e-05
2.1315e-05
2.15158e-05
2.17003e-05
2.18522e-05
2.19707e-05
2.20627e-05
2.2136e-05
2.21978e-05
2.22533e-05
2.23062e-05
2.23586e-05
2.24119e-05
2.24669e-05
2.25242e-05
2.25838e-05
2.26461e-05
2.27111e-05
2.27789e-05
2.28496e-05
2.29232e-05
2.29999e-05
2.30796e-05
2.31625e-05
2.32487e-05
2.33381e-05
2.3431e-05
2.35274e-05
2.36274e-05
2.3731e-05
2.38386e-05
2.395e-05
2.40655e-05
2.41852e-05
2.43093e-05
2.44379e-05
2.45711e-05
2.47092e-05
2.48523e-05
2.50006e-05
2.51544e-05
2.53138e-05
2.54792e-05
2.56507e-05
2.58288e-05
2.60135e-05
2.62053e-05
2.64046e-05
2.66116e-05
2.68268e-05
2.70506e-05
2.72834e-05
2.75257e-05
2.77781e-05
2.8041e-05
2.8315e-05
2.86008e-05
2.8899e-05
2.92104e-05
2.95356e-05
2.98755e-05
3.02309e-05
3.06027e-05
3.09919e-05
3.13994e-05
3.18264e-05
3.2274e-05
3.27434e-05
3.32358e-05
3.37526e-05
3.42951e-05
3.48648e-05
3.54634e-05
3.60922e-05
3.67531e-05
3.74478e-05
3.8178e-05
3.89457e-05
3.97528e-05
4.06014e-05
4.14934e-05
4.2431e-05
4.34165e-05
4.44519e-05
4.55396e-05
4.66818e-05
4.78809e-05
4.91391e-05
5.04589e-05
5.18425e-05
5.32922e-05
5.48103e-05
5.63991e-05
5.80605e-05
5.97968e-05
6.16099e-05
6.35016e-05
6.54738e-05
6.75279e-05
6.96654e-05
7.18874e-05
7.41951e-05
7.65891e-05
7.90699e-05
8.16378e-05
8.42927e-05
8.70342e-05
8.98616e-05
9.27739e-05
9.57694e-05
9.88465e-05
0.000102003
0.000105236
0.000108542
0.000111918
0.00011536
0.000118863
0.000122423
0.000126034
0.00012969
0.000133385
0.000137112
0.000140864
0.000144633
0.000148412
0.000152191
0.000155963
0.000159717
0.000163446
0.000167138
0.000170784
0.000174374
0.000177898
0.000181345
0.000184706
0.000187969
0.000191124
0.000194162
0.000197071
0.000199843
0.000202466
0.000204933
0.000207234
0.000209359
0.000211302
0.000213054
0.000214608
0.000215958
0.000217098
0.000218022
0.000218725
0.000219205
0.000219457
0.00021948
0.000219271
0.00021883
0.000218157
0.000217253
0.000216119
0.000214758
0.000213173
0.000211368
0.000209347
0.000207116
0.000204682
0.000202051
0.00019923
0.000196227
0.000193052
0.000189712
0.000186218
0.00018258
0.000178808
0.000174911
0.000170902
0.000166792
0.00016259
0.000158309
0.00015396
0.000149553
0.000145101
0.000140614
0.000136103
0.000131578
0.000127051
0.00012253
0.000118026
0.000113549
0.000109106
0.000104707
0.000100359
9.6071e-05
9.1849e-05
8.76999e-05
8.36298e-05
7.96442e-05
7.57481e-05
7.19461e-05
6.82422e-05
6.46397e-05
6.11417e-05
5.77506e-05
5.44684e-05
5.12966e-05
4.82363e-05
4.5288e-05
4.24521e-05
3.97282e-05
3.7116e-05
3.46144e-05
3.22223e-05
2.99382e-05
2.77604e-05
2.56867e-05
2.37151e-05
2.18429e-05
2.00678e-05
1.83868e-05
1.67972e-05
1.5296e-05
1.388e-05
1.25462e-05
1.12914e-05
1.01123e-05
9.00584e-06
7.96874e-06
6.99781e-06
6.0899e-06
5.24189e-06
4.4507e-06
3.71335e-06
3.02689e-06
2.38848e-06
1.79533e-06
1.24479e-06
7.34233e-07
2.61199e-07
-1.76731e-07
-5.81828e-07
-9.56305e-07
-1.30223e-06
-1.62161e-06
-1.91632e-06
-2.18817e-06
-2.43881e-06
-2.66988e-06
-2.88284e-06
-3.07914e-06
-3.26008e-06
-3.4269e-06
-3.58076e-06
-3.72276e-06
-3.85387e-06
-3.97505e-06
-4.08716e-06
-4.191e-06
-4.28731e-06
-4.3768e-06
-4.46006e-06
-4.53771e-06
-4.61026e-06
-4.67821e-06
-4.742e-06
-4.80206e-06
-4.85874e-06
-4.9124e-06
-4.96334e-06
-5.01185e-06
-5.05817e-06
-5.10255e-06
-5.14519e-06
-5.18628e-06
-5.226e-06
-5.2645e-06
-5.30191e-06
-5.33837e-06
-5.37398e-06
-5.40884e-06
-5.44305e-06
-5.47668e-06
-5.50981e-06
-5.5425e-06
-5.5748e-06
-5.60677e-06
-5.63845e-06
-5.66989e-06
-5.7011e-06
-5.73214e-06
-5.76302e-06
-5.79378e-06
-5.82442e-06
-5.85499e-06
-5.88547e-06
-5.9159e-06
-5.94628e-06
-5.97663e-06
-6.00695e-06
-6.03727e-06
-6.06757e-06
-6.09789e-06
-6.1282e-06
-6.15853e-06
-6.18887e-06
-6.21924e-06
-6.24962e-06
-6.28005e-06
-6.31049e-06
-6.34098e-06
-6.37149e-06
-6.40205e-06
-6.43264e-06
-6.46329e-06
-6.49396e-06
-6.52469e-06
-6.55546e-06
-6.58628e-06
-6.61714e-06
-6.64807e-06
-6.67903e-06
-6.71005e-06
-6.74112e-06
-6.77224e-06
-6.80342e-06
-6.83465e-06
-6.86594e-06
-6.89729e-06
-6.92868e-06
-6.96015e-06
-6.99166e-06
-7.02325e-06
-7.05488e-06
-7.08659e-06
-7.11835e-06
-7.15018e-06
-7.18207e-06
-7.21403e-06
-7.24604e-06
-7.27814e-06
-7.31029e-06
-7.34252e-06
-7.3748e-06
-7.40717e-06
-7.4396e-06
-7.47211e-06
-7.50469e-06
-7.53735e-06
-7.57008e-06
-7.60289e-06
-7.63577e-06
-7.66874e-06
-7.70178e-06
-7.73491e-06
-7.76811e-06
-7.80141e-06
-7.83478e-06
-7.86825e-06
-7.9018e-06
-7.93545e-06
-7.96918e-06
-8.00302e-06
-8.03696e-06
-8.07095e-06
-8.10532e-06
-8.1389e-06
-8.17583e-06
-8.20291e-06
-8.25986e-06
-8.23743e-06
-8.41253e-06
-8.14916e-06
-8.76456e-06
-7.83999e-06
-9.26438e-06
-7.6896e-06
-9.25708e-06
-8.40264e-06
-7.47834e-06
-8.57186e-06
-8.57186e-06
-0.0952361
0.0952361
0.0129955
0.00387617
0.00195768
0.00121643
0.000835624
0.000613888
0.00047419
0.000372197
0.000284395
0.000206353
0.000142936
9.75473e-05
6.84006e-05
5.07618e-05
4.01405e-05
3.36756e-05
2.98992e-05
2.80241e-05
2.74672e-05
2.77101e-05
2.83269e-05
2.90262e-05
2.96506e-05
3.0143e-05
3.05043e-05
3.07608e-05
3.09432e-05
3.10781e-05
3.11848e-05
3.12766e-05
3.13616e-05
3.14447e-05
3.15287e-05
3.16153e-05
3.17053e-05
3.17993e-05
3.18974e-05
3.2e-05
3.21071e-05
3.22188e-05
3.23353e-05
3.24567e-05
3.2583e-05
3.27144e-05
3.2851e-05
3.29929e-05
3.31402e-05
3.32932e-05
3.34518e-05
3.36164e-05
3.37869e-05
3.39638e-05
3.41471e-05
3.4337e-05
3.45337e-05
3.47376e-05
3.49488e-05
3.51676e-05
3.53942e-05
3.5629e-05
3.58723e-05
3.61245e-05
3.63858e-05
3.66567e-05
3.69376e-05
3.72289e-05
3.7531e-05
3.78446e-05
3.817e-05
3.85079e-05
3.88587e-05
3.92233e-05
3.96021e-05
3.9996e-05
4.04056e-05
4.08319e-05
4.12755e-05
4.17375e-05
4.22187e-05
4.27202e-05
4.32429e-05
4.37881e-05
4.43569e-05
4.49506e-05
4.55704e-05
4.62178e-05
4.68941e-05
4.76009e-05
4.83398e-05
4.91123e-05
4.99204e-05
5.07656e-05
5.165e-05
5.25754e-05
5.35439e-05
5.45575e-05
5.56183e-05
5.67286e-05
5.78906e-05
5.91066e-05
6.0379e-05
6.17101e-05
6.31024e-05
6.45582e-05
6.60801e-05
6.76705e-05
6.93318e-05
7.10665e-05
7.28769e-05
7.47654e-05
7.67341e-05
7.87854e-05
8.09211e-05
8.31434e-05
8.5454e-05
8.78545e-05
9.03464e-05
9.2931e-05
9.56093e-05
9.83821e-05
0.00010125
0.000104213
0.000107271
0.000110423
0.00011367
0.000117009
0.000120439
0.000123958
0.000127564
0.000131253
0.000135023
0.000138869
0.000142787
0.000146772
0.000150819
0.000154923
0.000159075
0.000163271
0.000167501
0.00017176
0.000176037
0.000180324
0.000184613
0.000188893
0.000193155
0.000197387
0.00020158
0.000205723
0.000209804
0.000213811
0.000217734
0.00022156
0.000225279
0.000228877
0.000232345
0.00023567
0.00023884
0.000241846
0.000244675
0.000247319
0.000249766
0.000252007
0.000254033
0.000255836
0.000257408
0.000258741
0.00025983
0.000260668
0.00026125
0.000261573
0.000261633
0.000261428
0.000260957
0.000260218
0.000259212
0.00025794
0.000256404
0.000254608
0.000252555
0.00025025
0.000247698
0.000244907
0.000241883
0.000238635
0.00023517
0.000231498
0.00022763
0.000223576
0.000219346
0.000214953
0.000210408
0.000205723
0.000200911
0.000195984
0.000190956
0.000185839
0.000180647
0.000175391
0.000170086
0.000164743
0.000159375
0.000153995
0.000148613
0.000143243
0.000137895
0.00013258
0.000127307
0.000122088
0.000116931
0.000111845
0.000106838
0.000101917
9.70907e-05
9.23642e-05
8.77437e-05
8.32344e-05
7.88407e-05
7.45669e-05
7.04161e-05
6.63914e-05
6.2495e-05
5.87286e-05
5.50934e-05
5.15902e-05
4.82192e-05
4.49803e-05
4.18728e-05
3.88957e-05
3.60475e-05
3.33265e-05
3.07308e-05
2.82579e-05
2.59052e-05
2.367e-05
2.15491e-05
1.95395e-05
1.76377e-05
1.58403e-05
1.41436e-05
1.25441e-05
1.10379e-05
9.62152e-06
8.29098e-06
7.04264e-06
5.87267e-06
4.77744e-06
3.75323e-06
2.7965e-06
1.90365e-06
1.07131e-06
2.96044e-07
-4.25342e-07
-1.09608e-06
-1.71915e-06
-2.29758e-06
-2.8341e-06
-3.33151e-06
-3.79233e-06
-4.2191e-06
-4.61411e-06
-4.97966e-06
-5.31781e-06
-5.63064e-06
-5.91996e-06
-6.18765e-06
-6.43529e-06
-6.66455e-06
-6.87682e-06
-7.07356e-06
-7.25599e-06
-7.42538e-06
-7.58278e-06
-7.72929e-06
-7.8658e-06
-7.99328e-06
-8.11247e-06
-8.22421e-06
-8.32912e-06
-8.42792e-06
-8.52112e-06
-8.60934e-06
-8.69299e-06
-8.77261e-06
-8.84853e-06
-8.92119e-06
-8.99088e-06
-9.05796e-06
-9.12265e-06
-9.18527e-06
-9.24599e-06
-9.30509e-06
-9.36266e-06
-9.41898e-06
-9.47409e-06
-9.52823e-06
-9.58144e-06
-9.63389e-06
-9.68562e-06
-9.73679e-06
-9.7874e-06
-9.83759e-06
-9.88735e-06
-9.93682e-06
-9.98596e-06
-1.00349e-05
-1.00836e-05
-1.01322e-05
-1.01806e-05
-1.02289e-05
-1.02771e-05
-1.03252e-05
-1.03733e-05
-1.04214e-05
-1.04694e-05
-1.05174e-05
-1.05654e-05
-1.06135e-05
-1.06616e-05
-1.07097e-05
-1.07578e-05
-1.08061e-05
-1.08543e-05
-1.09026e-05
-1.09509e-05
-1.09994e-05
-1.10479e-05
-1.10965e-05
-1.11451e-05
-1.11938e-05
-1.12426e-05
-1.12915e-05
-1.13404e-05
-1.13895e-05
-1.14386e-05
-1.14878e-05
-1.15371e-05
-1.15866e-05
-1.1636e-05
-1.16856e-05
-1.17353e-05
-1.17851e-05
-1.1835e-05
-1.1885e-05
-1.19351e-05
-1.19853e-05
-1.20356e-05
-1.2086e-05
-1.21365e-05
-1.21872e-05
-1.22379e-05
-1.22888e-05
-1.23397e-05
-1.23908e-05
-1.2442e-05
-1.24934e-05
-1.25448e-05
-1.25964e-05
-1.26481e-05
-1.26999e-05
-1.27519e-05
-1.2804e-05
-1.28562e-05
-1.29086e-05
-1.29611e-05
-1.30137e-05
-1.30665e-05
-1.31195e-05
-1.31726e-05
-1.32259e-05
-1.32792e-05
-1.33328e-05
-1.33866e-05
-1.34405e-05
-1.34946e-05
-1.35488e-05
-1.36033e-05
-1.36579e-05
-1.37127e-05
-1.37677e-05
-1.3823e-05
-1.38783e-05
-1.39348e-05
-1.39885e-05
-1.40536e-05
-1.40844e-05
-1.42196e-05
-1.40751e-05
-1.46318e-05
-1.36193e-05
-1.57792e-05
-1.23283e-05
-1.75226e-05
-1.15594e-05
-1.74341e-05
-1.40035e-05
-1.11351e-05
-1.4642e-05
-1.4642e-05
-0.125313
0.125313
0.0249535
0.00837911
0.00430276
0.00267878
0.00183699
0.00134456
0.00103221
0.000802576
0.000605123
0.000430896
0.000290252
0.000189826
0.000125149
8.57431e-05
6.18783e-05
4.73607e-05
3.89412e-05
3.48033e-05
3.35851e-05
3.41044e-05
3.54165e-05
3.68898e-05
3.81903e-05
3.92009e-05
3.99274e-05
4.04277e-05
4.07683e-05
4.10056e-05
4.11811e-05
4.13223e-05
4.14465e-05
4.1564e-05
4.16807e-05
4.18e-05
4.19235e-05
4.20526e-05
4.21874e-05
4.23287e-05
4.24763e-05
4.26306e-05
4.27916e-05
4.29597e-05
4.31346e-05
4.33169e-05
4.35063e-05
4.37034e-05
4.3908e-05
4.41204e-05
4.43408e-05
4.45695e-05
4.48065e-05
4.50522e-05
4.53067e-05
4.55704e-05
4.58433e-05
4.61261e-05
4.64187e-05
4.67217e-05
4.70353e-05
4.736e-05
4.76961e-05
4.8044e-05
4.84041e-05
4.8777e-05
4.9163e-05
4.95629e-05
4.99769e-05
5.04059e-05
5.08504e-05
5.1311e-05
5.17884e-05
5.22834e-05
5.27967e-05
5.33292e-05
5.38817e-05
5.44551e-05
5.50504e-05
5.56686e-05
5.63107e-05
5.69779e-05
5.76713e-05
5.83922e-05
5.91419e-05
5.99217e-05
6.0733e-05
6.15774e-05
6.24564e-05
6.33716e-05
6.43246e-05
6.53173e-05
6.63515e-05
6.7429e-05
6.85517e-05
6.97218e-05
7.09412e-05
7.22121e-05
7.35366e-05
7.49171e-05
7.63555e-05
7.78545e-05
7.94161e-05
8.10429e-05
8.2737e-05
8.4501e-05
8.6337e-05
8.82476e-05
9.02347e-05
9.2301e-05
9.44482e-05
9.66788e-05
9.89945e-05
0.000101397
0.000103889
0.000106471
0.000109145
0.000111911
0.000114772
0.000117728
0.000120778
0.000123925
0.000127166
0.000130503
0.000133933
0.000137457
0.000141072
0.000144776
0.000148568
0.000152443
0.0001564
0.000160434
0.00016454
0.000168715
0.000172952
0.000177246
0.00018159
0.000185979
0.000190404
0.000194857
0.000199331
0.000203816
0.000208303
0.000212782
0.000217244
0.000221678
0.000226072
0.000230416
0.000234699
0.000238908
0.000243032
0.000247058
0.000250976
0.000254771
0.000258434
0.00026195
0.000265309
0.000268499
0.000271508
0.000274326
0.000276941
0.000279342
0.000281522
0.000283469
0.000285175
0.000286632
0.000287833
0.000288771
0.000289441
0.000289836
0.000289954
0.000289791
0.000289344
0.000288612
0.000287594
0.000286292
0.000284705
0.000282838
0.000280692
0.000278273
0.000275585
0.000272634
0.000269427
0.000265973
0.000262279
0.000258355
0.00025421
0.000249856
0.000245304
0.000240565
0.000235651
0.000230576
0.000225351
0.000219992
0.00021451
0.000208921
0.000203237
0.000197472
0.000191641
0.000185757
0.000179833
0.000173884
0.000167922
0.00016196
0.00015601
0.000150085
0.000144196
0.000138354
0.00013257
0.000126854
0.000121216
0.000115663
0.000110206
0.00010485
9.9604e-05
9.44734e-05
8.94639e-05
8.45808e-05
7.98284e-05
7.52106e-05
7.07304e-05
6.63907e-05
6.21931e-05
5.81393e-05
5.423e-05
5.04658e-05
4.68464e-05
4.33713e-05
4.00393e-05
3.68492e-05
3.37991e-05
3.08868e-05
2.81098e-05
2.54656e-05
2.29508e-05
2.05624e-05
1.82969e-05
1.61507e-05
1.412e-05
1.22011e-05
1.03897e-05
8.68217e-06
7.07414e-06
5.5617e-06
4.14059e-06
2.80688e-06
1.55635e-06
3.85162e-07
-7.1081e-07
-1.73528e-06
-2.6922e-06
-3.58511e-06
-4.41778e-06
-5.19354e-06
-5.91592e-06
-6.58803e-06
-7.21315e-06
-7.79414e-06
-8.33405e-06
-8.83545e-06
-9.30114e-06
-9.73345e-06
-1.01349e-05
-1.05076e-05
-1.08538e-05
-1.11754e-05
-1.14743e-05
-1.17523e-05
-1.20111e-05
-1.22521e-05
-1.2477e-05
-1.26869e-05
-1.28832e-05
-1.3067e-05
-1.32395e-05
-1.34016e-05
-1.35543e-05
-1.36984e-05
-1.38348e-05
-1.39641e-05
-1.40871e-05
-1.42042e-05
-1.43162e-05
-1.44235e-05
-1.45266e-05
-1.46259e-05
-1.47219e-05
-1.48148e-05
-1.4905e-05
-1.49928e-05
-1.50785e-05
-1.51622e-05
-1.52443e-05
-1.53248e-05
-1.54041e-05
-1.54822e-05
-1.55593e-05
-1.56354e-05
-1.57108e-05
-1.57855e-05
-1.58597e-05
-1.59333e-05
-1.60066e-05
-1.60794e-05
-1.61519e-05
-1.62242e-05
-1.62963e-05
-1.63682e-05
-1.644e-05
-1.65116e-05
-1.65832e-05
-1.66547e-05
-1.67263e-05
-1.67978e-05
-1.68693e-05
-1.69408e-05
-1.70125e-05
-1.70841e-05
-1.71558e-05
-1.72275e-05
-1.72994e-05
-1.73713e-05
-1.74434e-05
-1.75155e-05
-1.75878e-05
-1.76601e-05
-1.77327e-05
-1.78052e-05
-1.7878e-05
-1.79508e-05
-1.80239e-05
-1.80969e-05
-1.81703e-05
-1.82436e-05
-1.83172e-05
-1.83909e-05
-1.84648e-05
-1.85387e-05
-1.86129e-05
-1.86872e-05
-1.87617e-05
-1.88363e-05
-1.89111e-05
-1.89861e-05
-1.90612e-05
-1.91365e-05
-1.9212e-05
-1.92876e-05
-1.93635e-05
-1.94395e-05
-1.95157e-05
-1.9592e-05
-1.96686e-05
-1.97454e-05
-1.98224e-05
-1.98995e-05
-1.99769e-05
-2.00544e-05
-2.01322e-05
-2.02101e-05
-2.02884e-05
-2.03668e-05
-2.04454e-05
-2.05243e-05
-2.06034e-05
-2.06827e-05
-2.07624e-05
-2.08421e-05
-2.09223e-05
-2.10026e-05
-2.10833e-05
-2.11641e-05
-2.12453e-05
-2.13268e-05
-2.14086e-05
-2.14906e-05
-2.1573e-05
-2.16556e-05
-2.17387e-05
-2.1822e-05
-2.19058e-05
-2.19899e-05
-2.20742e-05
-2.21608e-05
-2.22416e-05
-2.23457e-05
-2.23798e-05
-2.26275e-05
-2.23005e-05
-2.34215e-05
-2.1286e-05
-2.57703e-05
-1.84805e-05
-2.94457e-05
-1.66932e-05
-2.93119e-05
-2.17113e-05
-1.67387e-05
-2.31891e-05
-2.31891e-05
-0.146505
0.146505
0.0383229
0.014252
0.0074798
0.00468266
0.00321597
0.00235306
0.00180212
0.00139473
0.00104485
0.000737924
0.000491341
0.000315428
0.000201703
0.000131917
8.93919e-05
6.34992e-05
4.85468e-05
4.12383e-05
3.90773e-05
3.9936e-05
4.21511e-05
4.46306e-05
4.68063e-05
4.84838e-05
4.96767e-05
5.04851e-05
5.10219e-05
5.13833e-05
5.16385e-05
5.18341e-05
5.1999e-05
5.21505e-05
5.22983e-05
5.24483e-05
5.26032e-05
5.27649e-05
5.29341e-05
5.31115e-05
5.32972e-05
5.34916e-05
5.36947e-05
5.39069e-05
5.41281e-05
5.43586e-05
5.45984e-05
5.48479e-05
5.51071e-05
5.53763e-05
5.56555e-05
5.59452e-05
5.62454e-05
5.65566e-05
5.68787e-05
5.72124e-05
5.75576e-05
5.79149e-05
5.82844e-05
5.86668e-05
5.90621e-05
5.9471e-05
5.98937e-05
6.0331e-05
6.07829e-05
6.12503e-05
6.17335e-05
6.22333e-05
6.275e-05
6.32846e-05
6.38373e-05
6.44092e-05
6.50008e-05
6.56131e-05
6.62466e-05
6.69025e-05
6.75814e-05
6.82845e-05
6.90125e-05
6.97668e-05
7.05482e-05
7.13581e-05
7.21974e-05
7.30676e-05
7.39698e-05
7.49057e-05
7.58763e-05
7.68835e-05
7.79285e-05
7.90132e-05
8.0139e-05
8.13078e-05
8.25212e-05
8.37812e-05
8.50896e-05
8.64485e-05
8.78595e-05
8.93251e-05
9.08469e-05
9.24274e-05
9.40685e-05
9.57724e-05
9.75412e-05
9.93772e-05
0.000101282
0.000103259
0.000105309
0.000107435
0.000109638
0.000111921
0.000114285
0.000116732
0.000119265
0.000121883
0.000124589
0.000127384
0.000130269
0.000133245
0.000136311
0.000139469
0.000142719
0.000146059
0.000149491
0.000153011
0.00015662
0.000160316
0.000164096
0.000167958
0.000171899
0.000175916
0.000180004
0.000184159
0.000188377
0.000192652
0.000196978
0.00020135
0.000205759
0.000210199
0.000214662
0.000219139
0.000223622
0.000228102
0.000232568
0.000237011
0.000241421
0.000245786
0.000250095
0.000254337
0.000258501
0.000262574
0.000266544
0.0002704
0.000274129
0.00027772
0.00028116
0.000284437
0.000287539
0.000290456
0.000293175
0.000295686
0.000297979
0.000300044
0.00030187
0.000303451
0.000304776
0.000305839
0.000306633
0.000307152
0.00030739
0.000307345
0.000307011
0.000306386
0.000305469
0.00030426
0.000302758
0.000300964
0.000298882
0.000296513
0.000293863
0.000290936
0.000287739
0.000284277
0.00028056
0.000276594
0.000272391
0.000267959
0.000263309
0.000258453
0.000253403
0.000248171
0.000242769
0.000237212
0.000231513
0.000225685
0.000219743
0.000213701
0.000207573
0.000201373
0.000195116
0.000188816
0.000182486
0.00017614
0.000169792
0.000163454
0.00015714
0.000150861
0.000144628
0.000138454
0.000132349
0.000126322
0.000120384
0.000114543
0.000108806
0.000103183
9.76791e-05
9.2301e-05
8.7054e-05
8.19434e-05
7.69729e-05
7.21464e-05
6.74667e-05
6.29362e-05
5.85565e-05
5.43289e-05
5.02539e-05
4.63318e-05
4.25619e-05
3.89435e-05
3.54752e-05
3.21555e-05
2.89819e-05
2.59525e-05
2.3064e-05
2.03138e-05
1.76982e-05
1.52142e-05
1.28576e-05
1.0625e-05
8.51192e-06
6.5147e-06
4.62882e-06
2.8503e-06
1.17458e-06
-4.02365e-07
-1.88511e-06
-3.27765e-06
-4.58451e-06
-5.80959e-06
-6.95728e-06
-8.03133e-06
-9.03597e-06
-9.97476e-06
-1.08517e-05
-1.16702e-05
-1.24339e-05
-1.3146e-05
-1.381e-05
-1.44286e-05
-1.50053e-05
-1.55424e-05
-1.6043e-05
-1.65095e-05
-1.69444e-05
-1.73499e-05
-1.77283e-05
-1.80815e-05
-1.84117e-05
-1.87204e-05
-1.90096e-05
-1.92807e-05
-1.95353e-05
-1.97746e-05
-2.00001e-05
-2.02129e-05
-2.04142e-05
-2.06048e-05
-2.0786e-05
-2.09584e-05
-2.1123e-05
-2.12803e-05
-2.14313e-05
-2.15764e-05
-2.17163e-05
-2.18514e-05
-2.19823e-05
-2.21094e-05
-2.22332e-05
-2.23537e-05
-2.24718e-05
-2.25872e-05
-2.27007e-05
-2.28121e-05
-2.2922e-05
-2.30303e-05
-2.31375e-05
-2.32433e-05
-2.33483e-05
-2.34524e-05
-2.35558e-05
-2.36584e-05
-2.37606e-05
-2.38623e-05
-2.39636e-05
-2.40646e-05
-2.41654e-05
-2.42658e-05
-2.43663e-05
-2.44665e-05
-2.45667e-05
-2.46668e-05
-2.47669e-05
-2.4867e-05
-2.49672e-05
-2.50673e-05
-2.51676e-05
-2.52679e-05
-2.53684e-05
-2.54689e-05
-2.55697e-05
-2.56704e-05
-2.57715e-05
-2.58725e-05
-2.59739e-05
-2.60753e-05
-2.6177e-05
-2.62787e-05
-2.63808e-05
-2.64829e-05
-2.65853e-05
-2.66878e-05
-2.67907e-05
-2.68936e-05
-2.69969e-05
-2.71002e-05
-2.72039e-05
-2.73077e-05
-2.74119e-05
-2.75161e-05
-2.76208e-05
-2.77255e-05
-2.78306e-05
-2.79358e-05
-2.80414e-05
-2.81471e-05
-2.82532e-05
-2.83594e-05
-2.8466e-05
-2.85728e-05
-2.86799e-05
-2.87872e-05
-2.88949e-05
-2.90027e-05
-2.9111e-05
-2.92194e-05
-2.93282e-05
-2.94372e-05
-2.95467e-05
-2.96563e-05
-2.97664e-05
-2.98766e-05
-2.99874e-05
-3.00983e-05
-3.02097e-05
-3.03213e-05
-3.04334e-05
-3.05457e-05
-3.06586e-05