# vtk DataFile Version 2.0
FlowField
ASCII
DATASET STRUCTURED_GRID
DIMENSIONS 400 1 200
POINTS 80000 float
0 0 0
0.08 0 0
0.16 0 0
0.24 0 0
0.32 0 0
0.4 0 0
0.48 0 0
0.56 0 0
0.64 0 0
0.72 0 0
0.8 0 0
0.88 0 0
0.96 0 0
1.04 0 0
1.12 0 0
1.2 0 0
1.28 0 0
1.36 0 0
1.44 0 0
1.52 0 0
1.6 0 0
1.68 0 0
1.76 0 0
1.84 0 0
1.92 0 0
2 0 0
2.08 0 0
2.16 0 0
2.24 0 0
2.32 0 0
2.4 0 0
2.48 0 0
2.56 0 0
2.64 0 0
2.72 0 0
2.8 0 0
2.88 0 0
2.96 0 0
3.04 0 0
3.12 0 0
3.2 0 0
3.28 0 0
3.36 0 0
3.44 0 0
3.52 0 0
3.6 0 0
3.68 0 0
3.76 0 0
3.84 0 0
3.92 0 0
4 0 0
4.08 0 0
4.16 0 0
4.24 0 0
4.32 0 0
4.4 0 0
4.48 0 0
4.56 0 0
4.64 0 0
4.72 0 0
4.8 0 0
4.88 0 0
4.96 0 0
5.04 0 0
5.12 0 0
5.2 0 0
5.28 0 0
5.36 0 0
5.44 0 0
5.52 0 0
5.6 0 0
5.68 0 0
5.76 0 0
5.84 0 0
5.92 0 0
6 0 0
6.08 0 0
6.16 0 0
6.24 0 0
6.32 0 0
6.4 0 0
6.48 0 0
6.56 0 0
6.64 0 0
6.72 0 0
6.8 0 0
6.88 0 0
6.96 0 0
7.04 0 0
7.12 0 0
7.2 0 0
7.28 0 0
7.36 0 0
7.44 0 0
7.52 0 0
7.6 0 0
7.68 0 0
7.76 0 0
7.84 0 0
7.92 0 0
8 0 0
8.08 0 0
8.16 0 0
8.24 0 0
8.32 0 0
8.4 0 0
8.48 0 0
8.56 0 0
8.64 0 0
8.72 0 0
8.8 0 0
8.88 0 0
8.96 0 0
9.04 0 0
9.12 0 0
9.2 0 0
9.28 0 0
9.36 0 0
9.44 0 0
9.52 0 0
9.6 0 0
9.68 0 0
9.76 0 0
9.84 0 0
9.92 0 0
10 0 0
10.08 0 0
10.16 0 0
10.24 0 0
10.32 0 0
10.4 0 0
10.48 0 0
10.56 0 0
10.64 0 0
10.72 0 0
10.8 0 0
10.88 0 0
10.96 0 0
11.04 0 0
11.12 0 0
11.2 0 0
11.28 0 0
11.36 0 0
11.44 0 0
11.52 0 0
11.6 0 0
11.68 0 0
11.76 0 0
11.84 0 0
11.92 0 0
12 0 0
12.08 0 0
12.16 0 0
12.24 0 0
12.32 0 0
12.4 0 0
12.48 0 0
12.56 0 0
12.64 0 0
12.72 0 0
12.8 0 0
12.88 0 0
12.96 0 0
13.04 0 0
13.12 0 0
13.2 0 0
13.28 0 0
13.36 0 0
13.44 0 0
13.52 0 0
13.6 0 0
13.68 0 0
13.76 0 0
13.84 0 0
13.92 0 0
14 0 0
14.08 0 0
14.16 0 0
14.24 0 0
14.32 0 0
14.4 0 0
14.48 0 0
14.56 0 0
14.64 0 0
14.72 0 0
14.8 0 0
14.88 0 0
14.96 0 0
15.04 0 0
15.12 0 0
15.2 0 0
15.28 0 0
15.36 0 0
15.44 0 0
15.52 0 0
15.6 0 0
15.68 0 0
15.76 0 0
15.84 0 0
15.92 0 0
16 0 0
16.08 0 0
16.16 0 0
16.24 0 0
16.32 0 0
16.4 0 0
16.48 0 0
16.56 0 0
16.64 0 0
16.72 0 0
16.8 0 0
16.88 0 0
16.96 0 0
17.04 0 0
17.12 0 0
17.2 0 0
17.28 0 0
17.36 0 0
17.44 0 0
17.52 0 0
17.6 0 0
17.68 0 0
17.76 0 0
17.84 0 0
17.92 0 0
18 0 0
18.08 0 0
18.16 0 0
18.24 0 0
18.32 0 0
18.4 0 0
18.48 0 0
18.56 0 0
18.64 0 0
18.72 0 0
18.8 0 0
18.88 0 0
18.96 0 0
19.04 0 0
19.12 0 0
19.2 0 0
19.28 0 0
19.36 0 0
19.44 0 0
19.52 0 0
19.6 0 0
19.68 0 0
19.76 0 0
19.84 0 0
19.92 0 0
20 0 0
20.08 0 0
20.16 0 0
20.24 0 0
20.32 0 0
20.4 0 0
20.48 0 0
20.56 0 0
20.64 0 0
20.72 0 0
20.8 0 0
20.88 0 0
20.96 0 0
21.04 0 0
21.12 0 0
21.2 0 0
21.28 0 0
21.36 0 0
21.44 0 0
21.52 0 0
21.6 0 0
21.68 0 0
21.76 0 0
21.84 0 0
21.92 0 0
22 0 0
22.08 0 0
22.16 0 0
22.24 0 0
22.32 0 0
22.4 0 0
22.48 0 0
22.56 0 0
22.64 0 0
22.72 0 0
22.8 0 0
22.88 0 0
22.96 0 0
23.04 0 0
23.12 0 0
23.2 0 0
23.28 0 0
23.36 0 0
23.44 0 0
23.52 0 0
23.6 0 0
23.68 0 0
23.76 0 0
23.84 0 0
23.92 0 0
24 0 0
24.08 0 0
24.16 0 0
24.24 0 0
24.32 0 0
24.4 0 0
24.48 0 0
24.56 0 0
24.64 0 0
24.72 0 0
24.8 0 0
24.88 0 0
24.96 0 0
25.04 0 0
25.12 0 0
25.2 0 0
25.28 0 0
25.36 0 0
25.44 0 0
25.52 0 0
25.6 0 0
25.68 0 0
25.76 0 0
25.84 0 0
25.92 0 0
26 0 0
26.08 0 0
26.16 0 0
26.24 0 0
26.32 0 0
26.4 0 0
26.48 0 0
26.56 0 0
26.64 0 0
26.72 0 0
26.8 0 0
26.88 0 0
26.96 0 0
27.04 0 0
27.12 0 0
27.2 0 0
27.28 0 0
27.36 0 0
27.44 0 0
27.52 0 0
27.6 0 0
27.68 0 0
27.76 0 0
27.84 0 0
27.92 0 0
28 0 0
28.08 0 0
28.16 0 0
28.24 0 0
28.32 0 0
28.4 0 0
28.48 0 0
28.56 0 0
28.64 0 0
28.72 0 0
28.8 0 0
28.88 0 0
28.96 0 0
29.04 0 0
29.12 0 0
29.2 0 0
29.28 0 0
29.36 0 0
29.44 0 0
29.52 0 0
29.6 0 0
29.68 0 0
29.76 0 0
29.84 0 0
29.92 0 0
30 0 0
30.08 0 0
30.16 0 0
30.24 0 0
30.32 0 0
30.4 0 0
30.48 0 0
30.56 0 0
30.64 0 0
30.72 0 0
30.8 0 0
30.88 0 0
30.96 0 0
31.04 0 0
31.12 0 0
31.2 0 0
31.28 0 0
31.36 0 0
31.44 0 0
31.52 0 0
31.6 0 0
31.68 0 0
31.76 0 0
31.84 0 0
31.92 0 0
0 0.005 0
0.08 0.005 0
0.16 0.005 0
0.24 0.005 0
0.32 0.005 0
0.4 0.005 0
0.48 0.005 0
0.56 0.005 0
0.64 0.005 0
0.72 0.005 0
0.8 0.005 0
0.88 0.005 0
0.96 0.005 0
1.04 0.005 0
1.12 0.005 0
1.2 0.005 0
1.28 0.005 0
1.36 0.005 0
1.44 0.005 0
1.52 0.005 0
1.6 0.005 0
1.68 0.005 0
1.76 0.005 0
1.84 0.005 0
1.92 0.005 0
2 0.005 0
2.08 0.005 0
2.16 0.005 0
2.24 0.005 0
2.32 0.005 0
2.4 0.005 0
2.48 0.005 0
2.56 0.005 0
2.64 0.005 0
2.72 0.005 0
2.8 0.005 0
2.88 0.005 0
2.96 0.005 0
3.04 0.005 0
3.12 0.005 0
3.2 0.005 0
3.28 0.005 0
3.36 0.005 0
3.44 0.005 0
3.52 0.005 0
3.6 0.005 0
3.68 0.005 0
3.76 0.005 0
3.84 0.005 0
3.92 0.005 0
4 0.005 0
4.08 0.005 0
4.16 0.005 0
4.24 0.005 0
4.32 0.005 0
4.4 0.005 0
4.48 0.005 0
4.56 0.005 0
4.64 0.005 0
4.72 0.005 0
4.8 0.005 0
4.88 0.005 0
4.96 0.005 0
5.04 0.005 0
5.12 0.005 0
5.2 0.005 0
5.28 0.005 0
5.36 0.005 0
5.44 0.005 0
5.52 0.005 0
5.6 0.005 0
5.68 0.005 0
5.76 0.005 0
5.84 0.005 0
5.92 0.005 0
6 0.005 0
6.08 0.005 0
6.16 0.005 0
6.24 0.005 0
6.32 0.005 0
6.4 0.005 0
6.48 0.005 0
6.56 0.005 0
6.64 0.005 0
6.72 0.005 0
6.8 0.005 0
6.88 0.005 0
6.96 0.005 0
7.04 0.005 0
7.12 0.005 0
7.2 0.005 0
7.28 0.005 0
7.36 0.005 0
7.44 0.005 0
7.52 0.005 0
7.6 0.005 0
7.68 0.005 0
7.76 0.005 0
7.84 0.005 0
7.92 0.005 0
8 0.005 0
8.08 0.005 0
8.16 0.005 0
8.24 0.005 0
8.32 0.005 0
8.4 0.005 0
8.48 0.005 0
8.56 0.005 0
8.64 0.005 0
8.72 0.005 0
8.8 0.005 0
8.88 0.005 0
8.96 0.005 0
9.04 0.005 0
9.12 0.005 0
9.2 0.005 0
9.28 0.005 0
9.36 0.005 0
9.44 0.005 0
9.52 0.005 0
9.6 0.005 0
9.68 0.005 0
9.76 0.005 0
9.84 0.005 0
9.92 0.005 0
10 0.005 0
10.08 0.005 0
10.16 0.005 0
10.24 0.005 0
10.32 0.005 0
10.4 0.005 0
10.48 0.005 0
10.56 0.005 0
10.64 0.005 0
10.72 0.005 0
10.8 0.005 0
10.88 0.005 0
10.96 0.005 0
11.04 0.005 0
11.12 0.005 0
11.2 0.005 0
11.28 0.005 0
11.36 0.005 0
11.44 0.005 0
11.52 0.005 0
11.6 0.005 0
11.68 0.005 0
11.76 0.005 0
11.84 0.005 0
11.92 0.005 0
12 0.005 0
12.08 0.005 0
12.16 0.005 0
12.24 0.005 0
12.32 0.005 0
12.4 0.005 0
12.48 0.005 0
12.56 0.005 0
12.64 0.005 0
12.72 0.005 0
12.8 0.005 0
12.88 0.005 0
12.96 0.005 0
13.04 0.005 0
13.12 0.005 0
13.2 0.005 0
13.28 0.005 0
13.36 0.005 0
13.44 0.005 0
13.52 0.005 0
13.6 0.005 0
13.68 0.005 0
13.76 0.005 0
13.84 0.005 0
13.92 0.005 0
14 0.005 0
14.08 0.005 0
14.16 0.005 0
14.24 0.005 0
14.32 0.005 0
14.4 0.005 0
14.48 0.005 0
14.56 0.005 0
14.64 0.005 0
14.72 0.005 0
14.8 0.005 0
14.88 0.005 0
14.96 0.005 0
15.04 0.005 0
15.12 0.005 0
15.2 0.005 0
15.28 0.005 0
15.36 0.005 0
15.44 0.005 0
15.52 0.005 0
15.6 0.005 0
15.68 0.005 0
15.76 0.005 0
15.84 0.005 0
15.92 0.005 0
16 0.005 0
16.08 0.005 0
16.16 0.005 0
16.24 0.005 0
16.32 0.005 0
16.4 0.005 0
16.48 0.005 0
16.56 0.005 0
16.64 0.005 0
16.72 0.005 0
16.8 0.005 0
16.88 0.005 0
16.96 0.005 0
17.04 0.005 0
17.12 0.005 0
17.2 0.005 0
17.28 0.005 0
17.36 0.005 0
17.44 0.005 0
17.52 0.005 0
17.6 0.005 0
17.68 0.005 0
17.76 0.005 0
17.84 0.005 0
17.92 0.005 0
18 0.005 0
18.08 0.005 0
18.16 0.005 0
18.24 0.005 0
18.32 0.005 0
18.4 0.005 0
18.48 0.005 0
18.56 0.005 0
18.64 0.005 0
18.72 0.005 0
18.8 0.005 0
18.88 0.005 0
18.96 0.005 0
19.04 0.005 0
19.12 0.005 0
19.2 0.005 0
19.28 0.005 0
19.36 0.005 0
19.44 0.005 0
19.52 0.005 0
19.6 0.005 0
19.68 0.005 0
19.76 0.005 0
19.84 0.005 0
19.92 0.005 0
20 0.005 0
20.08 0.005 0
20.16 0.005 0
20.24 0.005 0
20.32 0.005 0
20.4 0.005 0
20.48 0.005 0
20.56 0.005 0
20.64 0.005 0
20.72 0.005 0
20.8 0.005 0
20.88 0.005 0
20.96 0.005 0
21.04 0.005 0
21.12 0.005 0
21.2 0.005 0
21.28 0.005 0
21.36 0.005 0
21.44 0.005 0
21.52 0.005 0
21.6 0.005 0
21.68 0.005 0
21.76 0.005 0
21.84 0.005 0
21.92 0.005 0
22 0.005 0
22.08 0.005 0
22.16 0.005 0
22.24 0.005 0
22.32 0.005 0
22.4 0.005 0
22.48 0.005 0
22.56 0.005 0
22.64 0.005 0
22.72 0.005 0
22.8 0.005 0
22.88 0.005 0
22.96 0.005 0
23.04 0.005 0
23.12 0.005 0
23.2 0.005 0
23.28 0.005 0
23.36 0.005 0
23.44 0.005 0
23.52 0.005 0
23.6 0.005 0
23.68 0.005 0
23.76 0.005 0
23.84 0.005 0
23.92 0.005 0
24 0.005 0
24.08 0.005 0
24.16 0.005 0
24.24 0.005 0
24.32 0.005 0
24.4 0.005 0
24.48 0.005 0
24.56 0.005 0
24.64 0.005 0
24.72 0.005 0
24.8 0.005 0
24.88 0.005 0
24.96 0.005 0
25.04 0.005 0
25.12 0.005 0
25.2 0.005 0
25.28 0.005 0
25.36 0.005 0
25.44 0.005 0
25.52 0.005 0
25.6 0.005 0
25.68 0.005 0
25.76 0.005 0
25.84 0.005 0
25.92 0.005 0
26 0.005 0
26.08 0.005 0
26.16 0.005 0
26.24 0.005 0
26.32 0.005 0
26.4 0.005 0
26.48 0.005 0
26.56 0.005 0
26.64 0.005 0
26.72 0.005 0
26.8 0.005 0
26.88 0.005 0
26.96 0.005 0
27.04 0.005 0
27.12 0.005 0
27.2 0.005 0
27.28 0.005 0
27.36 0.005 0
27.44 0.005 0
27.52 0.005 0
27.6 0.005 0
27.68 0.005 0
27.76 0.005 0
27.84 0.005 0
27.92 0.005 0
28 0.005 0
28.08 0.005 0
28.16 0.005 0
28.24 0.005 0
28.32 0.005 0
28.4 0.005 0
28.48 0.005 0
28.56 0.005 0
28.64 0.005 0
28.72 0.005 0
28.8 0.005 0
28.88 0.005 0
28.96 0.005 0
29.04 0.005 0
29.12 0.005 0
29.2 0.005 0
29.28 0.005 0
29.36 0.005 0
29.44 0.005 0
29.52 0.005 0
29.6 0.005 0
29.68 0.005 0
29.76 0.005 0
29.84 0.005 0
29.92 0.005 0
30 0.005 0
30.08 0.005 0
30.16 0.005 0
30.24 0.005 0
30.32 0.005 0
30.4 0.005 0
30.48 0.005 0
30.56 0.005 0
30.64 0.005 0
30.72 0.005 0
30.8 0.005 0
30.88 0.005 0
30.96 0.005 0
31.04 0.005 0
31.12 0.005 0
31.2 0.005 0
31.28 0.005 0
31.36 0.005 0
31.44 0.005 0
31.52 0.005 0
31.6 0.005 0
31.68 0.005 0
31.76 0.005 0
31.84 0.005 0
31.92 0.005 0
0 0.01 0
0.08 0.01 0
0.16 0.01 0
0.24 0.01 0
0.32 0.01 0
0.4 0.01 0
0.48 0.01 0
0.56 0.01 0
0.64 0.01 0
0.72 0.01 0
0.8 0.01 0
0.88 0.01 0
0.96 0.01 0
1.04 0.01 0
1.12 0.01 0
1.2 0.01 0
1.28 0.01 0
1.36 0.01 0
1.44 0.01 0
1.52 0.01 0
1.6 0.01 0
1.68 0.01 0
1.76 0.01 0
1.84 0.01 0
1.92 0.01 0
2 0.01 0
2.08 0.01 0
2.16 0.01 0
2.24 0.01 0
2.32 0.01 0
2.4 0.01 0
2.48 0.01 0
2.56 0.01 0
2.64 0.01 0
2.72 0.01 0
2.8 0.01 0
2.88 0.01 0
2.96 0.01 0
3.04 0.01 0
3.12 0.01 0
3.2 0.01 0
3.28 0.01 0
3.36 0.01 0
3.44 0.01 0
3.52 0.01 0
3.6 0.01 0
3.68 0.01 0
3.76 0.01 0
3.84 0.01 0
3.92 0.01 0
4 0.01 0
4.08 0.01 0
4.16 0.01 0
4.24 0.01 0
4.32 0.01 0
4.4 0.01 0
4.48 0.01 0
4.56 0.01 0
4.64 0.01 0
4.72 0.01 0
4.8 0.01 0
4.88 0.01 0
4.96 0.01 0
5.04 0.01 0
5.12 0.01 0
[...]
POINT_DATA 80000

SCALARS u float 1
LOOKUP_TABLE default
0
-0.131663
-0.0682697
-0.0522966
-0.0444206
-0.0395775
-0.0362605
-0.0338336
-0.0319737
-0.0304971
-0.0292911
-0.0282829
-0.0274235
-0.0266789
-0.0260251
-0.0254443
-0.0249236
-0.0244529
-0.0240244
-0.0236323
-0.0232716
-0.0229385
-0.0226296
-0.0223421
-0.0220738
-0.021823
-0.021588
-0.0213676
-0.0211603
-0.0209649
-0.0207806
-0.0206069
-0.0204433
-0.0202895
-0.0201447
-0.0200086
-0.0198807
-0.0197614
-0.0196513
-0.019551
-0.0194609
-0.0193805
-0.0193089
-0.0192445
-0.0191863
-0.0191332
-0.0190851
-0.0190419
-0.0190035
-0.0189696
-0.0189396
-0.0189126
-0.0188877
-0.0188643
-0.0188419
-0.0188206
-0.0188007
-0.0187826
-0.0187666
-0.0187531
-0.0187422
-0.0187339
-0.0187278
-0.0187237
-0.0187211
-0.0187197
-0.0187192
-0.0187192
-0.0187197
-0.0187204
-0.0187212
-0.0187221
-0.0187231
-0.0187241
-0.0187252
-0.0187263
-0.0187273
-0.0187284
-0.0187295
-0.0187306
-0.0187317
-0.0187328
-0.0187339
-0.0187351
-0.0187362
-0.0187373
-0.0187384
-0.0187395
-0.0187406
-0.0187418
-0.0187429
-0.018744
-0.0187451
-0.0187463
-0.0187474
-0.0187485
-0.0187496
-0.0187508
-0.0187519
-0.018753
-0.0187541
-0.0187553
-0.0187564
-0.0187575
-0.0187587
-0.0187598
-0.0187609
-0.0187621
-0.0187632
-0.0187643
-0.0187655
-0.0187666
-0.0187677
-0.0187689
-0.01877
-0.0187711
-0.0187723
-0.0187734
-0.0187746
-0.0187757
-0.0187768
-0.018778
-0.0187791
-0.0187803
-0.0187814
-0.0187826
-0.0187837
-0.0187849
-0.018786
-0.0187872
-0.0187883
-0.0187894
-0.0187906
-0.0187917
-0.0187929
-0.018794
-0.0187952
-0.0187963
-0.0187975
-0.0187986
-0.0187998
-0.018801
-0.0188021
-0.0188033
-0.0188044
-0.0188056
-0.0188067
-0.0188079
-0.018809
-0.0188102
-0.0188113
-0.0188125
-0.0188137
-0.0188148
-0.018816
-0.0188171
-0.0188183
-0.0188195
-0.0188206
-0.0188218
-0.0188229
-0.0188241
-0.0188253
-0.0188264
-0.0188276
-0.0188287
-0.0188299
-0.0188311
-0.0188322
-0.0188334
-0.0188345
-0.0188357
-0.0188369
-0.018838
-0.0188392
-0.0188404
-0.0188415
-0.0188427
-0.0188439
-0.018845
-0.0188462
-0.0188474
-0.0188485
-0.0188497
-0.0188509
-0.018852
-0.0188532
-0.0188544
-0.0188555
-0.0188567
-0.0188579
-0.018859
-0.0188602
-0.0188614
-0.0188625
-0.0188637
-0.0188649
-0.0188661
-0.0188672
-0.0188684
-0.0188696
-0.0188707
-0.0188719
-0.0188731
-0.0188743
-0.0188754
-0.0188766
-0.0188778
-0.018879
-0.0188801
-0.0188813
-0.0188825
-0.0188837
-0.0188848
-0.018886
-0.0188872
-0.0188884
-0.0188896
-0.0188907
-0.0188919
-0.0188931
-0.0188943
-0.0188955
-0.0188966
-0.0188978
-0.018899
-0.0189002
-0.0189014
-0.0189026
-0.0189037
-0.0189049
-0.0189061
-0.0189073
-0.0189085
-0.0189097
-0.0189109
-0.0189121
-0.0189133
-0.0189145
-0.0189157
-0.0189168
-0.018918
-0.0189192
-0.0189204
-0.0189216
-0.0189228
-0.018924
-0.0189252
-0.0189264
-0.0189276
-0.0189289
-0.0189301
-0.0189313
-0.0189325
-0.0189337
-0.0189349
-0.0189361
-0.0189373
-0.0189385
-0.0189397
-0.018941
-0.0189422
-0.0189434
-0.0189446
-0.0189458
-0.0189471
-0.0189483
-0.0189495
-0.0189507
-0.018952
-0.0189532
-0.0189544
-0.0189556
-0.0189569
-0.0189581
-0.0189593
-0.0189606
-0.0189618
-0.0189631
-0.0189643
-0.0189655
-0.0189668
-0.018968
-0.0189693
-0.0189705
-0.0189718
-0.018973
-0.0189743
-0.0189755
-0.0189768
-0.018978
-0.0189793
-0.0189805
-0.0189818
-0.0189831
-0.0189843
-0.0189856
-0.0189868
-0.0189881
-0.0189894
-0.0189906
-0.0189919
-0.0189932
-0.0189945
-0.0189957
-0.018997
-0.0189983
-0.0189996
-0.0190008
-0.0190021
-0.0190034
-0.0190047
-0.019006
-0.0190073
-0.0190085
-0.0190098
-0.0190111
-0.0190124
-0.0190137
-0.019015
-0.0190163
-0.0190176
-0.0190189
-0.0190202
-0.0190215
-0.0190228
-0.0190241
-0.0190254
-0.0190267
-0.019028
-0.0190293
-0.0190306
-0.0190319
-0.0190332
-0.0190345
-0.0190358
-0.0190371
-0.0190385
-0.0190398
-0.0190411
-0.0190424
-0.0190437
-0.019045
-0.0190464
-0.0190477
-0.019049
-0.0190503
-0.0190517
-0.019053
-0.0190543
-0.0190556
-0.019057
-0.0190583
-0.0190596
-0.019061
-0.0190623
-0.0190636
-0.019065
-0.0190663
-0.0190677
-0.019069
-0.0190703
-0.0190717
-0.019073
-0.0190744
-0.0190757
-0.0190771
-0.0190784
-0.0190797
-0.0190811
-0.0190824
-0.0190838
-0.0190851
-0.0190865
-0.0190879
-0.0190892
-0.0190906
-0.0190919
-0.0190933
-0.0190947
-0.019096
-0.0190974
-0.0190987
-0.0191001
-0.0191014
-0.0191028
-0.0191042
-0.0191056
-0.0191069
-0.0191083
-0.0191097
-0.0191111
-0.0191125
-0.0191138
-0.0191155
-0.0191163
-0.0191186
-0.0191165
-0.0191165
-0.0191165
1
0.131663
0.0682697
0.0522966
0.0444206
0.0395775
0.0362605
0.0338336
0.0319737
0.0304971
0.0292911
0.0282829
0.0274235
0.0266789
0.0260251
0.0254443
0.0249236
0.0244529
0.0240244
0.0236323
0.0232716
0.0229385
0.0226296
0.0223421
0.0220738
0.021823
0.021588
0.0213676
0.0211603
0.0209649
0.0207806
0.0206069
0.0204433
0.0202895
0.0201447
0.0200086
0.0198807
0.0197614
0.0196513
0.019551
0.0194609
0.0193805
0.0193089
0.0192445
0.0191863
0.0191332
0.0190851
0.0190419
0.0190035
0.0189696
0.0189396
0.0189126
0.0188877
0.0188643
0.0188419
0.0188206
0.0188007
0.0187826
0.0187666
0.0187531
0.0187422
0.0187339
0.0187278
0.0187237
0.0187211
0.0187197
0.0187192
0.0187192
0.0187197
0.0187204
0.0187212
0.0187221
0.0187231
0.0187241
0.0187252
0.0187263
0.0187273
0.0187284
0.0187295
0.0187306
0.0187317
0.0187328
0.0187339
0.0187351
0.0187362
0.0187373
0.0187384
0.0187395
0.0187406
0.0187418
0.0187429
0.018744
0.0187451
0.0187463
0.0187474
0.0187485
0.0187496
0.0187508
0.0187519
0.018753
0.0187541
0.0187553
0.0187564
0.0187575
0.0187587
0.0187598
0.0187609
0.0187621
0.0187632
0.0187643
0.0187655
0.0187666
0.0187677
0.0187689
0.01877
0.0187711
0.0187723
0.0187734
0.0187746
0.0187757
0.0187768
0.018778
0.0187791
0.0187803
0.0187814
0.0187826
0.0187837
0.0187849
0.018786
0.0187872
0.0187883
0.0187894
0.0187906
0.0187917
0.0187929
0.018794
0.0187952
0.0187963
0.0187975
0.0187986
0.0187998
0.018801
0.0188021
0.0188033
0.0188044
0.0188056
0.0188067
0.0188079
0.018809
0.0188102
0.0188113
0.0188125
0.0188137
0.0188148
0.018816
0.0188171
0.0188183
0.0188195
0.0188206
0.0188218
0.0188229
0.0188241
0.0188253
0.0188264
0.0188276
0.0188287
0.0188299
0.0188311
0.0188322
0.0188334
0.0188345
0.0188357
0.0188369
0.018838
0.0188392
0.0188404
0.0188415
0.0188427
0.0188439
0.018845
0.0188462
0.0188474
0.0188485
0.0188497
0.0188509
0.018852
0.0188532
0.0188544
0.0188555
0.0188567
0.0188579
0.018859
0.0188602
0.0188614
0.0188625
0.0188637
0.0188649
0.0188661
0.0188672
0.0188684
0.0188696
0.0188707
0.0188719
0.0188731
0.0188743
0.0188754
0.0188766
0.0188778
0.018879
0.0188801
0.0188813
0.0188825
0.0188837
0.0188848
0.018886
0.0188872
0.0188884
0.0188896
0.0188907
0.0188919
0.0188931
0.0188943
0.0188955
0.0188966
0.0188978
0.018899
0.0189002
0.0189014
0.0189026
0.0189037
0.0189049
0.0189061
0.0189073
0.0189085
0.0189097
0.0189109
0.0189121
0.0189133
0.0189145
0.0189157
0.0189168
0.018918
0.0189192
0.0189204
0.0189216
0.0189228
0.018924
0.0189252
0.0189264
0.0189276
0.0189289
0.0189301
0.0189313
0.0189325
0.0189337
0.0189349
0.0189361
0.0189373
0.0189385
0.0189397
0.018941
0.0189422
0.0189434
0.0189446
0.0189458
0.0189471
0.0189483
0.0189495
0.0189507
0.018952
0.0189532
0.0189544
0.0189556
0.0189569
0.0189581
0.0189593
0.0189606
0.0189618
0.0189631
0.0189643
0.0189655
0.0189668
0.018968
0.0189693
0.0189705
0.0189718
0.018973
0.0189743
0.0189755
0.0189768
0.018978
0.0189793
0.0189805
0.0189818
0.0189831
0.0189843
0.0189856
0.0189868
0.0189881
0.0189894
0.0189906
0.0189919
0.0189932
0.0189945
0.0189957
0.018997
0.0189983
0.0189996
0.0190008
0.0190021
0.0190034
0.0190047
0.019006
0.0190073
0.0190085
0.0190098
0.0190111
0.0190124
0.0190137
0.019015
0.0190163
0.0190176
0.0190189
0.0190202
0.0190215
0.0190228
0.0190241
0.0190254
0.0190267
0.019028
0.0190293
0.0190306
0.0190319
0.0190332
0.0190345
0.0190358
0.0190371
0.0190385
0.0190398
0.0190411
0.0190424
0.0190437
0.019045
0.0190464
0.0190477
0.019049
0.0190503
0.0190517
0.019053
0.0190543
0.0190556
0.019057
0.0190583
0.0190596
0.019061
0.0190623
0.0190636
0.019065
0.0190663
0.0190677
0.019069
0.0190703
0.0190717
0.019073
0.0190744
0.0190757
0.0190771
0.0190784
0.0190797
0.0190811
0.0190824
0.0190838
0.0190851
0.0190865
0.0190879
0.0190892
0.0190906
0.0190919
0.0190933
0.0190947
0.019096
0.0190974
0.0190987
0.0191001
0.0191014
0.0191028
0.0191042
0.0191056
0.0191069
0.0191083
0.0191097
0.0191111
0.0191125
0.0191138
0.0191155
0.0191163
0.0191186
0.0191165
0.0191165
0.0191165
1
0.344885
0.200669
0.154969
0.131896
0.117601
0.10777
0.100561
0.095028
0.0906323
0.0870414
0.0840397
0.081482
0.079267
0.077323
0.0755973
0.0740507
0.0726533
0.0713821
0.070219
0.0691497
0.0681624
0.0672472
0.0663957
0.0656015
0.064859
0.0641638
0.0635117
0.0628986
0.0623212
0.0617769
0.0612643
0.060782
0.0603287
0.0599027
0.0595025
0.0591277
0.0587789
0.0584581
0.0581668
0.0579055
0.0576725
0.0574646
0.0572778
0.0571088
0.0569553
0.0568163
0.0566915
0.0565805
0.0564824
0.0563951
0.0563162
0.0562434
0.0561749
0.05611
0.0560487
0.055992
0.055941
0.0558967
0.0558597
0.0558302
0.0558079
0.0557919
0.0557812
0.0557747
0.0557714
0.0557704
0.055771
0.0557725
0.0557747
0.0557773
0.0557802
0.0557831
0.0557862
0.0557893
0.0557925
0.0557957
0.055799
0.0558022
0.0558055
0.0558088
0.0558121
0.0558154
0.0558187
0.0558221
0.0558254
0.0558287
0.0558321
0.0558354
0.0558387
0.0558421
0.0558454
0.0558487
0.0558521
0.0558554
0.0558588
0.0558621
0.0558655
0.0558688
0.0558722
0.0558756
0.0558789
0.0558823
0.0558857
0.055889
0.0558924
0.0558958
0.0558991
0.0559025
0.0559059
0.0559093
0.0559126
0.055916
0.0559194
0.0559228
0.0559262
0.0559296
0.055933
0.0559364
0.0559398
0.0559431
0.0559465
0.0559499
0.0559533
0.0559568
0.0559602
0.0559636
0.055967
0.0559704
0.0559738
0.0559772
0.0559806
0.055984
0.0559875
0.0559909
0.0559943
0.0559977
0.0560011
0.0560046
0.056008
0.0560114
0.0560148
0.0560183
0.0560217
0.0560251
0.0560286
0.056032
0.0560354
0.0560389
0.0560423
0.0560458
0.0560492
0.0560526
0.0560561
0.0560595
0.056063
0.0560664
0.0560699
0.0560733
0.0560768
0.0560802
0.0560837
0.0560871
0.0560906
0.056094
0.0560975
0.056101
0.0561044
0.0561079
0.0561113
0.0561148
0.0561183
0.0561217
0.0561252
0.0561287
0.0561321
0.0561356
0.0561391
0.0561425
0.056146
0.0561495
0.056153
0.0561564
0.0561599
0.0561634
0.0561669
0.0561704
0.0561738
0.0561773
0.0561808
0.0561843
0.0561878
0.0561913
0.0561947
0.0561982
0.0562017
0.0562052
0.0562087
0.0562122
0.0562157
0.0562192
0.0562227
0.0562262
0.0562297
0.0562332
0.0562367
0.0562402
0.0562437
0.0562472
0.0562507
0.0562543
0.0562578
0.0562613
0.0562648
0.0562683
0.0562718
0.0562754
0.0562789
0.0562824
0.056286
0.0562895
0.056293
0.0562966
0.0563001
0.0563036
0.0563072
0.0563107
0.0563143
0.0563178
0.0563214
0.0563249
0.0563285
0.056332
0.0563356
0.0563392
0.0563427
0.0563463
0.0563499
0.0563534
0.056357
0.0563606
0.0563642
0.0563678
0.0563714
0.056375
0.0563786
0.0563822
0.0563858
0.0563894
0.056393
0.0563966
0.0564002
0.0564038
0.0564074
0.0564111
0.0564147
0.0564183
0.0564219
0.0564256
0.0564292
0.0564329
0.0564365
0.0564402
0.0564438
0.0564475
0.0564511
0.0564548
0.0564585
0.0564621
0.0564658
0.0564695
0.0564732
0.0564769
0.0564806
0.0564843
0.056488
0.0564917
0.0564954
0.0564991
0.0565028
0.0565065
0.0565102
0.056514
0.0565177
0.0565214
0.0565252
0.0565289
0.0565326
0.0565364
0.0565401
0.0565439
0.0565477
0.0565514
0.0565552
0.0565589
0.0565627
0.0565665
0.0565703
0.0565741
0.0565779
0.0565817
0.0565854
0.0565892
0.0565931
0.0565969
0.0566007
0.0566045
0.0566083
0.0566121
0.056616
0.0566198
0.0566236
0.0566275
0.0566313
0.0566351
0.056639
0.0566428
0.0566467
0.0566505
0.0566544
0.0566583
0.0566621
0.056666
0.0566699
0.0566738
0.0566776
0.0566815
0.0566854
0.0566893
0.0566932
0.0566971
0.056701
0.0567049
0.0567088
0.0567127
0.0567167
0.0567206
0.0567245
0.0567284
0.0567323
0.0567363
0.0567402
0.0567441
0.0567481
0.056752
0.056756
0.0567599
0.0567639
0.0567678
0.0567718
0.0567758
0.0567797
0.0567837
0.0567877
0.0567916
0.0567956
0.0567996
0.0568036
0.0568076
0.0568116
0.0568156
0.0568196
0.0568236
0.0568276
0.0568316
0.0568356
0.0568396
0.0568436
0.0568476
0.0568517
0.0568557
0.0568597
0.0568637
0.0568678
0.0568718
0.0568759
0.0568799
0.056884
0.0568879
0.0568921
0.056896
0.0569002
0.0569041
0.0569083
0.0569123
0.0569165
0.0569204
0.0569246
0.0569286
0.0569328
0.0569369
0.0569409
0.0569453
0.056949
0.0569541
0.0569567
0.0569633
0.0569583
0.0569583
0.0569583
1
0.518767
0.327404
0.25535
0.217852
0.194407
0.178216
0.166312
0.157163
0.149889
0.143945
0.138976
0.134742
0.131077
0.127862
0.125008
0.122452
0.120144
0.118044
0.116124
0.114359
0.11273
0.11122
0.109816
0.108506
0.107283
0.106137
0.105062
0.104052
0.103102
0.102206
0.101363
0.10057
0.0998254
0.099126
0.0984699
0.0978564
0.097287
0.0967643
0.0962906
0.095866
0.0954875
0.0951496
0.0948462
0.0945717
0.0943227
0.0940976
0.0938955
0.0937158
0.0935563
0.093414
0.093285
0.0931658
0.093054
0.0929486
0.0928498
0.0927592
0.0926783
0.0926088
0.0925513
0.0925059
0.0924719
0.0924478
0.092432
0.0924226
0.0924182
0.0924172
0.0924185
0.0924213
0.0924252
0.0924295
0.0924343
0.0924393
0.0924444
0.0924496
0.0924548
0.0924602
0.0924655
0.0924709
0.0924764
0.0924818
0.0924873
0.0924928
0.0924983
0.0925038
0.0925093
0.0925148
0.0925203
0.0925258
0.0925313
0.0925369
0.0925424
0.0925479
0.0925535
0.092559
0.0925645
0.0925701
0.0925756
0.0925812
0.0925867
0.0925923
0.0925979
0.0926034
0.092609
0.0926146
0.0926201
0.0926257
0.0926313
0.0926369
0.0926425
0.092648
0.0926536
0.0926592
0.0926648
0.0926704
0.092676
0.0926816
0.0926873
0.0926929
0.0926985
0.0927041
0.0927097
0.0927153
0.092721
0.0927266
0.0927322
0.0927379
0.0927435
0.0927491
0.0927548
0.0927604
0.0927661
0.0927717
0.0927774
0.092783
0.0927887
0.0927943
0.0928
0.0928057
0.0928113
0.092817
0.0928227
0.0928284
0.092834
0.0928397
0.0928454
0.0928511
0.0928568
0.0928625
0.0928681
0.0928738
0.0928795
0.0928852
0.0928909
0.0928966
0.0929023
0.092908
0.0929137
0.0929194
0.0929252
0.0929309
0.0929366
0.0929423
0.092948
0.0929537
0.0929595
0.0929652
0.0929709
0.0929766
0.0929824
0.0929881
0.0929938
0.0929996
0.0930053
0.0930111
0.0930168
0.0930225
0.0930283
0.093034
0.0930398
0.0930455
0.0930513
0.0930571
0.0930628
0.0930686
0.0930743
0.0930801
0.0930859
0.0930917
0.0930974
0.0931032
0.093109
0.0931148
0.0931205
0.0931263
0.0931321
0.0931379
0.0931437
0.0931495
0.0931553
0.0931611
0.0931669
0.0931727
0.0931785
0.0931843
0.0931901
0.093196
0.0932018
0.0932076
0.0932134
0.0932193
0.0932251
0.0932309
0.0932368
0.0932426
0.0932485
0.0932543
0.0932602
0.093266
0.0932719
0.0932777
0.0932836
0.0932895
0.0932954
0.0933012
0.0933071
0.093313
0.0933189
0.0933248
0.0933307
0.0933366
0.0933425
0.0933484
0.0933544
0.0933603
0.0933662
0.0933721
0.0933781
0.093384
0.09339
0.0933959
0.0934019
0.0934078
0.0934138
0.0934198
0.0934257
0.0934317
0.0934377
0.0934437
0.0934497
0.0934557
0.0934617
0.0934677
0.0934737
0.0934797
0.0934858
0.0934918
0.0934979
0.0935039
0.0935099
0.093516
0.0935221
0.0935281
0.0935342
0.0935403
0.0935464
0.0935525
0.0935586
0.0935647
0.0935708
0.0935769
0.093583
0.0935891
0.0935953
0.0936014
0.0936076
0.0936137
0.0936199
0.093626
0.0936322
0.0936384
0.0936445
0.0936507
0.0936569
0.0936631
0.0936693
0.0936755
0.0936818
0.093688
0.0936942
0.0937004
0.0937067
0.0937129
0.0937192
0.0937254
0.0937317
0.093738
0.0937442
0.0937505
0.0937568
0.0937631
0.0937694
0.0937757
0.093782
0.0937883
0.0937947
0.093801
0.0938073
0.0938137
0.09382
0.0938264
0.0938327
0.0938391
0.0938455
0.0938518
0.0938582
0.0938646
0.093871
0.0938774
0.0938838
0.0938902
0.0938966
0.093903
0.0939094
0.0939159
0.0939223
0.0939288
0.0939352
0.0939416
0.0939481
0.0939546
0.093961
0.0939675
0.093974
0.0939805
0.0939869
0.0939934
0.0939999
0.0940064
0.094013
0.0940195
0.094026
0.0940325
0.094039
0.0940456
0.0940521
0.0940587
0.0940652
0.0940718
0.0940783
0.0940849
0.0940914
0.094098
0.0941046
0.0941112
0.0941178
0.0941244
0.094131
0.0941376
0.0941442
0.0941508
0.0941574
0.094164
0.0941707
0.0941773
0.0941839
0.0941906
0.0941972
0.0942039
0.0942106
0.0942172
0.0942239
0.0942305
0.0942372
0.0942439
0.0942506
0.0942572
0.094264
0.0942706
0.0942774
0.094284
0.0942909
0.0942975
0.0943043
0.0943109
0.0943178
0.0943244
0.0943313
0.0943379
0.0943448
0.0943516
0.0943583
0.0943655
0.0943718
0.09438
0.0943845
0.0943951
0.0943884
0.0943884
0.0943884
1
0.660889
0.446896
0.352881
0.302033
0.269855
0.247506
0.231024
0.218334
0.208233
0.199974
0.193069
0.187186
0.182094
0.177628
0.173666
0.170119
0.166915
0.164003
0.161341
0.158894
0.156636
0.154544
0.152598
0.150784
0.14909
0.147503
0.146016
0.144618
0.143303
0.142064
0.140899
0.139804
0.138776
0.137811
0.136906
0.136062
0.13528
0.134564
0.133916
0.133335
0.132817
0.132355
0.13194
0.131565
0.131225
0.130918
0.130642
0.130397
0.130179
0.129983
0.129806
0.129642
0.129488
0.129344
0.12921
0.129088
0.12898
0.128888
0.128813
0.128754
0.12871
0.128679
0.128659
0.128648
0.128643
0.128642
0.128645
0.128649
0.128654
0.12866
0.128667
0.128674
0.128681
0.128688
0.128696
0.128703
0.128711
0.128718
0.128726
0.128733
0.128741
0.128749
0.128756
0.128764
0.128771
0.128779
0.128787
0.128794
0.128802
0.12881
0.128817
0.128825
0.128833
0.128841
0.128848
0.128856
0.128864
0.128871
0.128879
0.128887
0.128895
0.128902
0.12891
0.128918
0.128925
0.128933
0.128941
0.128949
0.128956
0.128964
0.128972
0.12898
0.128988
0.128995
0.129003
0.129011
0.129019
0.129026
0.129034
0.129042
0.12905
0.129058
0.129065
0.129073
0.129081
0.129089
0.129097
0.129105
0.129112
0.12912
0.129128
0.129136
0.129144
0.129152
0.12916
0.129167
0.129175
0.129183
0.129191
0.129199
0.129207
0.129215
0.129223
0.12923
0.129238
0.129246
0.129254
0.129262
0.12927
0.129278
0.129286
0.129294
0.129302
0.129309
0.129317
0.129325
0.129333
0.129341
0.129349
0.129357
0.129365
0.129373
0.129381
0.129389
0.129397
0.129405
0.129413
0.129421
0.129429
0.129437
0.129445
0.129453
0.129461
0.129469
0.129476
0.129484
0.129492
0.1295
0.129508
0.129516
0.129524
0.129532
0.12954
0.129549
0.129557
0.129565
0.129573
0.129581
0.129589
0.129597
0.129605
0.129613
0.129621
0.129629
0.129637
0.129645
0.129653
0.129661
0.129669
0.129677
0.129685
0.129693
0.129702
0.12971
0.129718
0.129726
0.129734
0.129742
0.12975
0.129758
0.129766
0.129775
0.129783
0.129791
0.129799
0.129807
0.129815
0.129823
0.129832
0.12984
0.129848
0.129856
0.129864
0.129872
0.129881
0.129889
0.129897
0.129905
0.129914
0.129922
0.12993
0.129938
0.129946
0.129955
0.129963
0.129971
0.12998
0.129988
0.129996
0.130004
0.130013
0.130021
0.130029
0.130038
0.130046
0.130054
0.130063
0.130071
0.130079
0.130088
0.130096
0.130105
0.130113
0.130121
0.13013
0.130138
0.130147
0.130155
0.130163
0.130172
0.13018
0.130189
0.130197
0.130206
0.130214
0.130223
0.130231
0.13024
0.130248
0.130257
0.130265
0.130274
0.130282
0.130291
0.130299
0.130308
0.130317
0.130325
0.130334
0.130342
0.130351
0.13036
0.130368
0.130377
0.130385
0.130394
0.130403
0.130411
0.13042
0.130429
0.130437
0.130446
0.130455
0.130464
0.130472
0.130481
0.13049
0.130498
0.130507
0.130516
0.130525
0.130534
0.130542
0.130551
0.13056
0.130569
0.130578
0.130586
0.130595
0.130604
0.130613
0.130622
0.130631
0.130639
0.130648
0.130657
0.130666
0.130675
0.130684
0.130693
0.130702
0.130711
0.13072
0.130729
0.130737
0.130746
0.130755
0.130764
0.130773
0.130782
0.130791
0.1308
0.130809
0.130818
0.130827
0.130836
0.130845
0.130854
0.130863
0.130873
0.130882
0.130891
0.1309
0.130909
0.130918
0.130927
0.130936
0.130945
0.130954
0.130963
0.130973
0.130982
0.130991
0.131
0.131009
0.131018
0.131027
0.131037
0.131046
0.131055
0.131064
0.131073
0.131083
0.131092
0.131101
0.13111
0.13112
0.131129
0.131138
0.131147
0.131157
0.131166
0.131175
0.131184
0.131194
0.131203
0.131212
0.131222
0.131231
0.13124
0.13125
0.131259
0.131268
0.131277
0.131287
0.131296
0.131306
0.131315
0.131325
0.131334
0.131343
0.131353
0.131362
0.131373
0.13138
0.131394
0.131387
0.131387
0.131387
1
0.776803
0.557828
0.446881
0.384106
0.343749
0.315517
0.294611
0.278476
0.265615
0.255091
0.246288
0.238787
0.232296
0.226604
0.221555
0.217036
0.212956
0.209248
0.205859
0.202745
0.199872
0.19721
0.194735
0.192428
0.190274
0.188257
0.186367