# vtk DataFile Version 2.0
FlowField
ASCII
DATASET STRUCTURED_GRID
DIMENSIONS 400 1 200
POINTS 80000 float
0 0 0
0.08 0 0
0.16 0 0
0.24 0 0
0.32 0 0
0.4 0 0
0.48 0 0
0.56 0 0
0.64 0 0
0.72 0 0
0.8 0 0
0.88 0 0
0.96 0 0
1.04 0 0
1.12 0 0
1.2 0 0
1.28 0 0
1.36 0 0
1.44 0 0
1.52 0 0
1.6 0 0
1.68 0 0
1.76 0 0
1.84 0 0
1.92 0 0
2 0 0
2.08 0 0
2.16 0 0
2.24 0 0
2.32 0 0
2.4 0 0
2.48 0 0
2.56 0 0
2.64 0 0
2.72 0 0
2.8 0 0
2.88 0 0
2.96 0 0
3.04 0 0
3.12 0 0
3.2 0 0
3.28 0 0
3.36 0 0
3.44 0 0
3.52 0 0
3.6 0 0
3.68 0 0
3.76 0 0
3.84 0 0
3.92 0 0
4 0 0
4.08 0 0
4.16 0 0
4.24 0 0
4.32 0 0
4.4 0 0
4.48 0 0
4.56 0 0
4.64 0 0
4.72 0 0
4.8 0 0
4.88 0 0
4.96 0 0
5.04 0 0
5.12 0 0
5.2 0 0
5.28 0 0
5.36 0 0
5.44 0 0
5.52 0 0
5.6 0 0
5.68 0 0
5.76 0 0
5.84 0 0
5.92 0 0
6 0 0
6.08 0 0
6.16 0 0
6.24 0 0
6.32 0 0
6.4 0 0
6.48 0 0
6.56 0 0
6.64 0 0
6.72 0 0
6.8 0 0
6.88 0 0
6.96 0 0
7.04 0 0
7.12 0 0
7.2 0 0
7.28 0 0
7.36 0 0
7.44 0 0
7.52 0 0
7.6 0 0
7.68 0 0
7.76 0 0
7.84 0 0
7.92 0 0
8 0 0
8.08 0 0
8.16 0 0
8.24 0 0
8.32 0 0
8.4 0 0
8.48 0 0
8.56 0 0
8.64 0 0
8.72 0 0
8.8 0 0
8.88 0 0
8.96 0 0
9.04 0 0
9.12 0 0
9.2 0 0
9.28 0 0
9.36 0 0
9.44 0 0
9.52 0 0
9.6 0 0
9.68 0 0
9.76 0 0
9.84 0 0
9.92 0 0
10 0 0
10.08 0 0
10.16 0 0
10.24 0 0
10.32 0 0
10.4 0 0
10.48 0 0
10.56 0 0
10.64 0 0
10.72 0 0
10.8 0 0
10.88 0 0
10.96 0 0
11.04 0 0
11.12 0 0
11.2 0 0
11.28 0 0
11.36 0 0
11.44 0 0
11.52 0 0
11.6 0 0
11.68 0 0
11.76 0 0
11.84 0 0
11.92 0 0
12 0 0
12.08 0 0
12.16 0 0
12.24 0 0
12.32 0 0
12.4 0 0
12.48 0 0
12.56 0 0
12.64 0 0
12.72 0 0
12.8 0 0
12.88 0 0
12.96 0 0
13.04 0 0
13.12 0 0
13.2 0 0
13.28 0 0
13.36 0 0
13.44 0 0
13.52 0 0
13.6 0 0
13.68 0 0
13.76 0 0
13.84 0 0
13.92 0 0
14 0 0
14.08 0 0
14.16 0 0
14.24 0 0
14.32 0 0
14.4 0 0
14.48 0 0
14.56 0 0
14.64 0 0
14.72 0 0
14.8 0 0
14.88 0 0
14.96 0 0
15.04 0 0
15.12 0 0
15.2 0 0
15.28 0 0
15.36 0 0
15.44 0 0
15.52 0 0
15.6 0 0
15.68 0 0
15.76 0 0
15.84 0 0
15.92 0 0
16 0 0
16.08 0 0
16.16 0 0
16.24 0 0
16.32 0 0
16.4 0 0
16.48 0 0
16.56 0 0
16.64 0 0
16.72 0 0
16.8 0 0
16.88 0 0
16.96 0 0
17.04 0 0
17.12 0 0
17.2 0 0
17.28 0 0
17.36 0 0
17.44 0 0
17.52 0 0
17.6 0 0
17.68 0 0
17.76 0 0
17.84 0 0
17.92 0 0
18 0 0
18.08 0 0
18.16 0 0
18.24 0 0
18.32 0 0
18.4 0 0
18.48 0 0
18.56 0 0
18.64 0 0
18.72 0 0
18.8 0 0
18.88 0 0
18.96 0 0
19.04 0 0
19.12 0 0
19.2 0 0
19.28 0 0
19.36 0 0
19.44 0 0
19.52 0 0
19.6 0 0
19.68 0 0
19.76 0 0
19.84 0 0
19.92 0 0
20 0 0
20.08 0 0
20.16 0 0
20.24 0 0
20.32 0 0
20.4 0 0
20.48 0 0
20.56 0 0
20.64 0 0
20.72 0 0
20.8 0 0
20.88 0 0
20.96 0 0
21.04 0 0
21.12 0 0
21.2 0 0
21.28 0 0
21.36 0 0
21.44 0 0
21.52 0 0
21.6 0 0
21.68 0 0
21.76 0 0
21.84 0 0
21.92 0 0
22 0 0
22.08 0 0
22.16 0 0
22.24 0 0
22.32 0 0
22.4 0 0
22.48 0 0
22.56 0 0
22.64 0 0
22.72 0 0
22.8 0 0
22.88 0 0
22.96 0 0
23.04 0 0
23.12 0 0
23.2 0 0
23.28 0 0
23.36 0 0
23.44 0 0
23.52 0 0
23.6 0 0
23.68 0 0
23.76 0 0
23.84 0 0
23.92 0 0
24 0 0
24.08 0 0
24.16 0 0
24.24 0 0
24.32 0 0
24.4 0 0
24.48 0 0
24.56 0 0
24.64 0 0
24.72 0 0
24.8 0 0
24.88 0 0
24.96 0 0
25.04 0 0
25.12 0 0
25.2 0 0
25.28 0 0
25.36 0 0
25.44 0 0
25.52 0 0
25.6 0 0
25.68 0 0
25.76 0 0
25.84 0 0
25.92 0 0
26 0 0
26.08 0 0
26.16 0 0
26.24 0 0
26.32 0 0
26.4 0 0
26.48 0 0
26.56 0 0
26.64 0 0
26.72 0 0
26.8 0 0
26.88 0 0
26.96 0 0
27.04 0 0
27.12 0 0
27.2 0 0
27.28 0 0
27.36 0 0
27.44 0 0
27.52 0 0
27.6 0 0
27.68 0 0
27.76 0 0
27.84 0 0
27.92 0 0
28 0 0
28.08 0 0
28.16 0 0
28.24 0 0
28.32 0 0
28.4 0 0
28.48 0 0
28.56 0 0
28.64 0 0
28.72 0 0
28.8 0 0
28.88 0 0
28.96 0 0
29.04 0 0
29.12 0 0
29.2 0 0
29.28 0 0
29.36 0 0
29.44 0 0
29.52 0 0
29.6 0 0
29.68 0 0
29.76 0 0
29.84 0 0
29.92 0 0
30 0 0
30.08 0 0
30.16 0 0
30.24 0 0
30.32 0 0
30.4 0 0
30.48 0 0
30.56 0 0
30.64 0 0
30.72 0 0
30.8 0 0
30.88 0 0
30.96 0 0
31.04 0 0
31.12 0 0
31.2 0 0
31.28 0 0
31.36 0 0
31.44 0 0
31.52 0 0
31.6 0 0
31.68 0 0
31.76 0 0
31.84 0 0
31.92 0 0
0 0.005 0
0.08 0.005 0
0.16 0.005 0
0.24 0.005 0
0.32 0.005 0
0.4 0.005 0
0.48 0.005 0
0.56 0.005 0
0.64 0.005 0
0.72 0.005 0
0.8 0.005 0
0.88 0.005 0
0.96 0.005 0
1.04 0.005 0
1.12 0.005 0
1.2 0.005 0
1.28 0.005 0
1.36 0.005 0
1.44 0.005 0
1.52 0.005 0
1.6 0.005 0
1.68 0.005 0
1.76 0.005 0
1.84 0.005 0
1.92 0.005 0
2 0.005 0
2.08 0.005 0
2.16 0.005 0
2.24 0.005 0
2.32 0.005 0
2.4 0.005 0
2.48 0.005 0
2.56 0.005 0
2.64 0.005 0
2.72 0.005 0
2.8 0.005 0
2.88 0.005 0
2.96 0.005 0
3.04 0.005 0
3.12 0.005 0
3.2 0.005 0
3.28 0.005 0
3.36 0.005 0
3.44 0.005 0
3.52 0.005 0
3.6 0.005 0
3.68 0.005 0
3.76 0.005 0
3.84 0.005 0
3.92 0.005 0
4 0.005 0
4.08 0.005 0
4.16 0.005 0
4.24 0.005 0
4.32 0.005 0
4.4 0.005 0
4.48 0.005 0
4.56 0.005 0
4.64 0.005 0
4.72 0.005 0
4.8 0.005 0
4.88 0.005 0
4.96 0.005 0
5.04 0.005 0
5.12 0.005 0
5.2 0.005 0
5.28 0.005 0
5.36 0.005 0
5.44 0.005 0
5.52 0.005 0
5.6 0.005 0
5.68 0.005 0
5.76 0.005 0
5.84 0.005 0
5.92 0.005 0
6 0.005 0
6.08 0.005 0
6.16 0.005 0
6.24 0.005 0
6.32 0.005 0
6.4 0.005 0
6.48 0.005 0
6.56 0.005 0
6.64 0.005 0
6.72 0.005 0
6.8 0.005 0
6.88 0.005 0
6.96 0.005 0
7.04 0.005 0
7.12 0.005 0
7.2 0.005 0
7.28 0.005 0
7.36 0.005 0
7.44 0.005 0
7.52 0.005 0
7.6 0.005 0
7.68 0.005 0
7.76 0.005 0
7.84 0.005 0
7.92 0.005 0
8 0.005 0
8.08 0.005 0
8.16 0.005 0
8.24 0.005 0
8.32 0.005 0
8.4 0.005 0
8.48 0.005 0
8.56 0.005 0
8.64 0.005 0
8.72 0.005 0
8.8 0.005 0
8.88 0.005 0
8.96 0.005 0
9.04 0.005 0
9.12 0.005 0
9.2 0.005 0
9.28 0.005 0
9.36 0.005 0
9.44 0.005 0
9.52 0.005 0
9.6 0.005 0
9.68 0.005 0
9.76 0.005 0
9.84 0.005 0
9.92 0.005 0
10 0.005 0
10.08 0.005 0
10.16 0.005 0
10.24 0.005 0
10.32 0.005 0
10.4 0.005 0
10.48 0.005 0
10.56 0.005 0
10.64 0.005 0
10.72 0.005 0
10.8 0.005 0
10.88 0.005 0
10.96 0.005 0
11.04 0.005 0
11.12 0.005 0
11.2 0.005 0
11.28 0.005 0
11.36 0.005 0
11.44 0.005 0
11.52 0.005 0
11.6 0.005 0
11.68 0.005 0
11.76 0.005 0
11.84 0.005 0
11.92 0.005 0
12 0.005 0
12.08 0.005 0
12.16 0.005 0
12.24 0.005 0
12.32 0.005 0
12.4 0.005 0
12.48 0.005 0
12.56 0.005 0
12.64 0.005 0
12.72 0.005 0
12.8 0.005 0
12.88 0.005 0
12.96 0.005 0
13.04 0.005 0
13.12 0.005 0
13.2 0.005 0
13.28 0.005 0
13.36 0.005 0
13.44 0.005 0
13.52 0.005 0
13.6 0.005 0
13.68 0.005 0
13.76 0.005 0
13.84 0.005 0
13.92 0.005 0
14 0.005 0
14.08 0.005 0
14.16 0.005 0
14.24 0.005 0
14.32 0.005 0
14.4 0.005 0
14.48 0.005 0
14.56 0.005 0
14.64 0.005 0
14.72 0.005 0
14.8 0.005 0
14.88 0.005 0
14.96 0.005 0
15.04 0.005 0
15.12 0.005 0
15.2 0.005 0
15.28 0.005 0
15.36 0.005 0
15.44 0.005 0
15.52 0.005 0
15.6 0.005 0
15.68 0.005 0
15.76 0.005 0
15.84 0.005 0
15.92 0.005 0
16 0.005 0
16.08 0.005 0
16.16 0.005 0
16.24 0.005 0
16.32 0.005 0
16.4 0.005 0
16.48 0.005 0
16.56 0.005 0
16.64 0.005 0
16.72 0.005 0
16.8 0.005 0
16.88 0.005 0
16.96 0.005 0
17.04 0.005 0
17.12 0.005 0
17.2 0.005 0
17.28 0.005 0
17.36 0.005 0
17.44 0.005 0
17.52 0.005 0
17.6 0.005 0
17.68 0.005 0
17.76 0.005 0
17.84 0.005 0
17.92 0.005 0
18 0.005 0
18.08 0.005 0
18.16 0.005 0
18.24 0.005 0
18.32 0.005 0
18.4 0.005 0
18.48 0.005 0
18.56 0.005 0
18.64 0.005 0
18.72 0.005 0
18.8 0.005 0
18.88 0.005 0
18.96 0.005 0
19.04 0.005 0
19.12 0.005 0
19.2 0.005 0
19.28 0.005 0
19.36 0.005 0
19.44 0.005 0
19.52 0.005 0
19.6 0.005 0
19.68 0.005 0
19.76 0.005 0
19.84 0.005 0
19.92 0.005 0
20 0.005 0
20.08 0.005 0
20.16 0.005 0
20.24 0.005 0
20.32 0.005 0
20.4 0.005 0
20.48 0.005 0
20.56 0.005 0
20.64 0.005 0
20.72 0.005 0
20.8 0.005 0
20.88 0.005 0
20.96 0.005 0
21.04 0.005 0
21.12 0.005 0
21.2 0.005 0
21.28 0.005 0
21.36 0.005 0
21.44 0.005 0
21.52 0.005 0
21.6 0.005 0
21.68 0.005 0
21.76 0.005 0
21.84 0.005 0
21.92 0.005 0
22 0.005 0
22.08 0.005 0
22.16 0.005 0
22.24 0.005 0
22.32 0.005 0
22.4 0.005 0
22.48 0.005 0
22.56 0.005 0
22.64 0.005 0
22.72 0.005 0
22.8 0.005 0
22.88 0.005 0
22.96 0.005 0
23.04 0.005 0
23.12 0.005 0
23.2 0.005 0
23.28 0.005 0
23.36 0.005 0
23.44 0.005 0
23.52 0.005 0
23.6 0.005 0
23.68 0.005 0
23.76 0.005 0
23.84 0.005 0
23.92 0.005 0
24 0.005 0
24.08 0.005 0
24.16 0.005 0
24.24 0.005 0
24.32 0.005 0
24.4 0.005 0
24.48 0.005 0
24.56 0.005 0
24.64 0.005 0
24.72 0.005 0
24.8 0.005 0
24.88 0.005 0
24.96 0.005 0
25.04 0.005 0
25.12 0.005 0
25.2 0.005 0
25.28 0.005 0
25.36 0.005 0
25.44 0.005 0
25.52 0.005 0
25.6 0.005 0
25.68 0.005 0
25.76 0.005 0
25.84 0.005 0
25.92 0.005 0
26 0.005 0
26.08 0.005 0
26.16 0.005 0
26.24 0.005 0
26.32 0.005 0
26.4 0.005 0
26.48 0.005 0
26.56 0.005 0
26.64 0.005 0
26.72 0.005 0
26.8 0.005 0
26.88 0.005 0
26.96 0.005 0
27.04 0.005 0
27.12 0.005 0
27.2 0.005 0
27.28 0.005 0
27.36 0.005 0
27.44 0.005 0
27.52 0.005 0
27.6 0.005 0
27.68 0.005 0
27.76 0.005 0
27.84 0.005 0
27.92 0.005 0
28 0.005 0
28.08 0.005 0
28.16 0.005 0
28.24 0.005 0
28.32 0.005 0
28.4 0.005 0
28.48 0.005 0
28.56 0.005 0
28.64 0.005 0
28.72 0.005 0
28.8 0.005 0
28.88 0.005 0
28.96 0.005 0
29.04 0.005 0
29.12 0.005 0
29.2 0.005 0
29.28 0.005 0
29.36 0.005 0
29.44 0.005 0
29.52 0.005 0
29.6 0.005 0
29.68 0.005 0
29.76 0.005 0
29.84 0.005 0
29.92 0.005 0
30 0.005 0
30.08 0.005 0
30.16 0.005 0
30.24 0.005 0
30.32 0.005 0
30.4 0.005 0
30.48 0.005 0
30.56 0.005 0
30.64 0.005 0
30.72 0.005 0
30.8 0.005 0
30.88 0.005 0
30.96 0.005 0
31.04 0.005 0
31.12 0.005 0
31.2 0.005 0
31.28 0.005 0
31.36 0.005 0
31.44 0.005 0
31.52 0.005 0
31.6 0.005 0
31.68 0.005 0
31.76 0.005 0
31.84 0.005 0
31.92 0.005 0
0 0.01 0
0.08 0.01 0
0.16 0.01 0
0.24 0.01 0
0.32 0.01 0
0.4 0.01 0
0.48 0.01 0
0.56 0.01 0
0.64 0.01 0
0.72 0.01 0
0.8 0.01 0
0.88 0.01 0
0.96 0.01 0
1.04 0.01 0
1.12 0.01 0
1.2 0.01 0
1.28 0.01 0
1.36 0.01 0
1.44 0.01 0
1.52 0.01 0
1.6 0.01 0
1.68 0.01 0
1.76 0.01 0
1.84 0.01 0
1.92 0.01 0
2 0.01 0
2.08 0.01 0
2.16 0.01 0
2.24 0.01 0
2.32 0.01 0
2.4 0.01 0
2.48 0.01 0
2.56 0.01 0
2.64 0.01 0
2.72 0.01 0
2.8 0.01 0
2.88 0.01 0
2.96 0.01 0
3.04 0.01 0
3.12 0.01 0
3.2 0.01 0
3.28 0.01 0
3.36 0.01 0
3.44 0.01 0
3.52 0.01 0
3.6 0.01 0
3.68 0.01 0
3.76 0.01 0
3.84 0.01 0
3.92 0.01 0
4 0.01 0
4.08 0.01 0
4.16 0.01 0
4.24 0.01 0
4.32 0.01 0
4.4 0.01 0
4.48 0.01 0
4.56 0.01 0
4.64 0.01 0
4.72 0.01 0
4.8 0.01 0
4.88 0.01 0
4.96 0.01 0
5.04 0.01 0
5.12 0.01 0
[...]
POINT_DATA 80000

SCALARS v float 1
LOOKUP_TABLE default
0
0
0
0
0
0
0
0
0
0
0
0
0
0
0
0
0
0
0
0
0
0
0
0
0
0
0
0
0
0
0
0
0
0
0
0
0
0
0
0
0
0
0
0
0
0
0
0
0
0
0
0
0
0
0
0
0
0
0
0
0
0
0
0
0
0
0
0
0
0
0
0
0
0
0
0
0
0
0
0
0
0
0
0
0
0
0
0
0
0
0
0
0
0
0
0
0
0
0
0
0
0
0
0
0
0
0
0
0
0
0
0
0
0
0
0
0
0
0
0
0
0
0
0
0
0
0
0
0
0
0
0
0
0
0
0
0
0
0
0
0
0
0
0
0
0
0
0
0
0
0
0
0
0
0
0
0
0
0
0
0
0
0
0
0
0
0
0
0
0
0
0
0
0
0
0
0
0
0
0
0
0
0
0
0
0
0
0
0
0
0
0
0
0
0
0
0
0
0
0
0
0
0
0
0
0
0
0
0
0
0
0
0
0
0
0
0
0
0
0
0
0
0
0
0
0
0
0
0
0
0
0
0
0
0
0
0
0
0
0
0
0
0
0
0
0
0
0
0
0
0
0
0
0
0
0
0
0
0
0
0
0
0
0
0
0
0
0
0
0
0
0
0
0
0
0
0
0
0
0
0
0
0
0
0
0
0
0
0
0
0
0
0
0
0
0
0
0
0
0
0
0
0
0
0
0
0
0
0
0
0
0
0
0
0
0
0
0
0
0
0
0
0
0
0
0
0
0
0
0
0
0
0
0
0
0
0
0
0
0
0
0
0
0
0
0
0
0
0
0
0
0
0
0
0
0
0
0
0
0
0
0
0
0
0
0
0
0
0
0
0
0
0
0
0
0
0
0
0
0
0
0
0
0
0
0
0
0
0
0
0
0
0
0
0
0
0
0
0
0
-0.0542714
0.0542714
0.00396242
0.000998658
0.00049259
0.000303027
0.000207651
0.000152023
0.000116582
9.26255e-05
7.57121e-05
6.33515e-05
5.40509e-05
4.6871e-05
4.12007e-05
3.66317e-05
3.28839e-05
2.97582e-05
2.71102e-05
2.48372e-05
2.28683e-05
2.11512e-05
1.96409e-05
1.82954e-05
1.70812e-05
1.59792e-05
1.49824e-05
1.40841e-05
1.3268e-05
1.25091e-05
1.17865e-05
1.1094e-05
1.04403e-05
9.83468e-06
9.26998e-06
8.71795e-06
8.14116e-06
7.51497e-06
6.84453e-06
6.16519e-06
5.52576e-06
4.96492e-06
4.49466e-06
4.09887e-06
3.74629e-06
3.40886e-06
3.07536e-06
2.75428e-06
2.46627e-06
2.23166e-06
2.05966e-06
1.94394e-06
1.86523e-06
1.79851e-06
1.72104e-06
1.61826e-06
1.48593e-06
1.32902e-06
1.15851e-06
9.87492e-07
8.27892e-07
6.88361e-07
5.73467e-07
4.83979e-07
4.17807e-07
3.71173e-07
3.39695e-07
3.19181e-07
3.06099e-07
2.9775e-07
2.92245e-07
2.88361e-07
2.85368e-07
2.82864e-07
2.80644e-07
2.78615e-07
2.7673e-07
2.74966e-07
2.73306e-07
2.71731e-07
2.70226e-07
2.68776e-07
2.67366e-07
2.65987e-07
2.64629e-07
2.63288e-07
2.61959e-07
2.6064e-07
2.59331e-07
2.58029e-07
2.56736e-07
2.55451e-07
2.54174e-07
2.52907e-07
2.51648e-07
2.50398e-07
2.49158e-07
2.47927e-07
2.46707e-07
2.45496e-07
2.44296e-07
2.43107e-07
2.41928e-07
2.40761e-07
2.39605e-07
2.38461e-07
2.37329e-07
2.36209e-07
2.35101e-07
2.34007e-07
2.32925e-07
2.31857e-07
2.30802e-07
2.29761e-07
2.28734e-07
2.27721e-07
2.26723e-07
2.25739e-07
2.24769e-07
2.23814e-07
2.22875e-07
2.2195e-07
2.21041e-07
2.20146e-07
2.19267e-07
2.18404e-07
2.17556e-07
2.16723e-07
2.15906e-07
2.15104e-07
2.14318e-07
2.13547e-07
2.12792e-07
2.12052e-07
2.11327e-07
2.10617e-07
2.09923e-07
2.09243e-07
2.08579e-07
2.07929e-07
2.07294e-07
2.06673e-07
2.06066e-07
2.05474e-07
2.04895e-07
2.0433e-07
2.03778e-07
2.03239e-07
2.02713e-07
2.022e-07
2.01699e-07
2.0121e-07
2.00733e-07
2.00267e-07
1.99812e-07
1.99368e-07
1.98934e-07
1.98511e-07
1.98097e-07
1.97692e-07
1.97296e-07
1.96909e-07
1.9653e-07
1.96159e-07
1.95795e-07
1.95438e-07
1.95087e-07
1.94743e-07
1.94404e-07
1.94071e-07
1.93742e-07
1.93418e-07
1.93097e-07
1.92781e-07
1.92467e-07
1.92156e-07
1.91847e-07
1.9154e-07
1.91235e-07
1.90931e-07
1.90627e-07
1.90323e-07
1.90019e-07
1.89714e-07
1.89409e-07
1.89102e-07
1.88793e-07
1.88481e-07
1.88167e-07
1.87851e-07
1.8753e-07
1.87206e-07
1.86878e-07
1.86546e-07
1.86209e-07
1.85867e-07
1.85519e-07
1.85166e-07
1.84806e-07
1.84441e-07
1.84069e-07
1.8369e-07
1.83304e-07
1.82911e-07
1.8251e-07
1.82102e-07
1.81685e-07
1.8126e-07
1.80827e-07
1.80386e-07
1.79936e-07
1.79476e-07
1.79008e-07
1.78531e-07
1.78044e-07
1.77548e-07
1.77042e-07
1.76527e-07
1.76002e-07
1.75467e-07
1.74923e-07
1.74368e-07
1.73804e-07
1.7323e-07
1.72645e-07
1.72051e-07
1.71446e-07
1.70832e-07
1.70207e-07
1.69573e-07
1.68928e-07
1.68274e-07
1.6761e-07
1.66936e-07
1.66251e-07
1.65558e-07
1.64854e-07
1.64141e-07
1.63419e-07
1.62687e-07
1.61945e-07
1.61194e-07
1.60435e-07
1.59666e-07
1.58888e-07
1.58101e-07
1.57306e-07
1.56502e-07
1.55689e-07
1.54869e-07
1.54039e-07
1.53202e-07
1.52357e-07
1.51504e-07
1.50644e-07
1.49776e-07
1.489e-07
1.48017e-07
1.47127e-07
1.4623e-07
1.45327e-07
1.44416e-07
1.43499e-07
1.42576e-07
1.41646e-07
1.4071e-07
1.39768e-07
1.38821e-07
1.37867e-07
1.36908e-07
1.35944e-07
1.34975e-07
1.34e-07
1.3302e-07
1.32035e-07
1.31046e-07
1.30052e-07
1.29054e-07
1.28051e-07
1.27044e-07
1.26032e-07
1.25017e-07
1.23998e-07
1.22975e-07
1.21949e-07
1.20919e-07
1.19885e-07
1.18848e-07
1.17808e-07
1.16765e-07
1.15719e-07
1.1467e-07
1.13618e-07
1.12563e-07
1.11506e-07
1.10446e-07
1.09383e-07
1.08319e-07
1.07251e-07
1.06182e-07
1.05111e-07
1.04037e-07
1.02961e-07
1.01884e-07
1.00804e-07
9.9723e-08
9.864e-08
9.75553e-08
9.6469e-08
9.5381e-08
9.42916e-08
9.32007e-08
9.21083e-08
9.10146e-08
8.99195e-08
8.88232e-08
8.77256e-08
8.66269e-08
8.5527e-08
8.44259e-08
8.33238e-08
8.22207e-08
8.11165e-08
8.00114e-08
7.89053e-08
7.77983e-08
7.66904e-08
7.55816e-08
7.44721e-08
7.33617e-08
7.22505e-08
7.11386e-08
7.00259e-08
6.89125e-08
6.77984e-08
6.66836e-08
6.55682e-08
6.44521e-08
6.33354e-08
6.2218e-08
6.11002e-08
5.99815e-08
5.88627e-08
5.77424e-08
5.66234e-08
5.55006e-08
5.43827e-08
5.32552e-08
5.21422e-08
5.10048e-08
4.99038e-08
4.87466e-08
4.76707e-08
4.64776e-08
4.54461e-08
4.41951e-08
4.32322e-08
4.18981e-08
4.10285e-08
3.95885e-08
3.8832e-08
3.72706e-08
3.66374e-08
3.49504e-08
3.4439e-08
3.26326e-08
3.22345e-08
3.03156e-08
3.0031e-08
2.79867e-08
2.78466e-08
2.56246e-08
2.57039e-08
2.32068e-08
2.36254e-08
2.0711e-08
2.16331e-08
1.81178e-08
1.97389e-08
1.54251e-08
1.79292e-08
1.26581e-08
1.6155e-08
9.87827e-09
1.43096e-08
7.20416e-09
1.21815e-08
4.86508e-09
9.31858e-09
3.35289e-09
4.73018e-09
3.81176e-09
-3.94176e-09
9.74122e-09
-2.26603e-08
3.55045e-08
-6.48384e-08
2.24276e-07
-3.78828e-09
-3.78828e-09
-0.0952162
0.0952162
0.012976
0.00385502
0.00193471
0.00119661
0.000822151
0.000602727
0.00046248
0.000367453
0.000300242
0.000251057
0.000214012
0.000185399
0.000162796
0.000144584
0.000129647
0.000117192
0.000106645
9.75991e-05
8.97678e-05
8.29393e-05
7.6931e-05
7.15774e-05
6.67496e-05
6.23738e-05
5.84175e-05
5.48468e-05
5.15929e-05
4.85608e-05
4.56745e-05
4.29154e-05
4.03136e-05
3.7894e-05
3.56184e-05
3.33749e-05
3.10278e-05
2.84987e-05
2.58229e-05
2.31427e-05
2.06403e-05
1.84517e-05
1.66106e-05
1.50498e-05
1.36528e-05
1.23205e-05
1.10185e-05
9.78209e-06
8.68628e-06
7.79944e-06
7.14615e-06
6.69432e-06
6.36747e-06
6.07252e-06
5.72883e-06
5.28817e-06
4.74091e-06
4.11038e-06
3.44009e-06
2.77935e-06
2.17145e-06
1.64648e-06
1.21899e-06
8.89587e-07
6.48686e-07
4.80997e-07
3.69496e-07
2.98271e-07
2.54123e-07
2.27097e-07
2.10289e-07
1.99279e-07
1.9145e-07
1.85375e-07
1.80335e-07
1.75993e-07
1.72191e-07
1.68838e-07
1.65866e-07
1.63209e-07
1.60804e-07
1.58591e-07
1.56518e-07
1.54546e-07
1.52643e-07
1.50787e-07
1.48963e-07
1.47163e-07
1.4538e-07
1.43613e-07
1.41859e-07
1.40118e-07
1.3839e-07
1.36674e-07
1.34972e-07
1.33282e-07
1.31605e-07
1.29941e-07
1.2829e-07
1.26652e-07
1.25027e-07
1.23416e-07
1.21818e-07
1.20234e-07
1.18663e-07
1.17107e-07
1.15566e-07
1.1404e-07
1.12528e-07
1.11032e-07
1.09553e-07
1.08089e-07
1.06641e-07
1.05211e-07
1.03797e-07
1.02401e-07
1.01021e-07
9.96599e-08
9.83161e-08
9.69902e-08
9.56823e-08
9.43925e-08
9.3121e-08
9.18677e-08
9.06328e-08
8.94163e-08
8.82181e-08
8.70383e-08
8.58769e-08
8.47337e-08
8.36088e-08
8.25021e-08
8.14135e-08
8.03429e-08
7.92901e-08
7.82551e-08
7.72375e-08
7.62374e-08
7.52545e-08
7.42885e-08
7.33394e-08
7.24067e-08
7.14903e-08
7.059e-08
6.97054e-08
6.88362e-08
6.79821e-08
6.71429e-08
6.63181e-08
6.55074e-08
6.47104e-08
6.39269e-08
6.31563e-08
6.23983e-08
6.16524e-08
6.09183e-08
6.01956e-08
5.94837e-08
5.87822e-08
5.80907e-08
5.74088e-08
5.67358e-08
5.60714e-08
5.54151e-08
5.47663e-08
5.41246e-08
5.34895e-08
5.28605e-08
5.22371e-08
5.16187e-08
5.10049e-08
5.03951e-08
4.97889e-08
4.91857e-08
4.8585e-08
4.79863e-08
4.73891e-08
4.67929e-08
4.61972e-08
4.56016e-08
4.50054e-08
4.44083e-08
4.38097e-08
4.32092e-08
4.26063e-08
4.20005e-08
4.13915e-08
4.07787e-08
4.01617e-08
3.95401e-08
3.89134e-08
3.82814e-08
3.76434e-08
3.69993e-08
3.63485e-08
3.56908e-08
3.50258e-08
3.43531e-08
3.36724e-08
3.29833e-08
3.22856e-08
3.15791e-08
3.08633e-08
3.0138e-08
2.9403e-08
2.8658e-08
2.79028e-08
2.71371e-08
2.63608e-08
2.55737e-08
2.47756e-08
2.39663e-08
2.31456e-08
2.23134e-08
2.14697e-08
2.06142e-08
1.97469e-08
1.88676e-08
1.79763e-08
1.7073e-08
1.61575e-08
1.52298e-08
1.42899e-08
1.33377e-08
1.23733e-08
1.13966e-08
1.04076e-08
9.40638e-09
8.39293e-09
7.3673e-09
6.32952e-09
5.27966e-09
4.21775e-09
3.14388e-09
2.05812e-09
9.60571e-10
-1.48691e-10
-1.26956e-09
-2.40193e-09
-3.54569e-09
-4.70075e-09
-5.86693e-09
-7.04415e-09
-8.23225e-09
-9.43111e-09
-1.06406e-08
-1.18605e-08
-1.30907e-08
-1.43311e-08
-1.55815e-08
-1.68418e-08
-1.81117e-08
-1.93911e-08
-2.06799e-08
-2.19779e-08
-2.32849e-08
-2.46008e-08
-2.59253e-08
-2.72583e-08
-2.85997e-08
-2.99492e-08
-3.13067e-08
-3.26721e-08
-3.40451e-08
-3.54255e-08
-3.68133e-08
-3.82082e-08
-3.96101e-08
-4.10188e-08
-4.2434e-08
-4.38558e-08
-4.52839e-08
-4.67182e-08
-4.81584e-08
-4.96045e-08
-5.10562e-08
-5.25135e-08
-5.39762e-08
-5.54441e-08
-5.6917e-08
-5.83949e-08
-5.98777e-08
-6.13651e-08
-6.2857e-08
-6.43533e-08
-6.58539e-08
-6.73587e-08
-6.88674e-08
-7.03801e-08
-7.18966e-08
-7.34167e-08
-7.49404e-08
-7.64676e-08
-7.7998e-08
-7.95318e-08
-8.10686e-08
-8.26086e-08
-8.41514e-08
-8.56971e-08
-8.72456e-08
-8.87968e-08
-9.03506e-08
-9.19069e-08
-9.34656e-08
-9.50267e-08
-9.659e-08
-9.81556e-08
-9.97234e-08
-1.01293e-07
-1.02865e-07
-1.04439e-07
-1.06015e-07
-1.07592e-07
-1.09171e-07
-1.10753e-07
-1.12335e-07
-1.1392e-07
-1.15506e-07
-1.17093e-07
-1.18682e-07
-1.20273e-07
-1.21865e-07
-1.23458e-07
-1.25053e-07
-1.26649e-07
-1.28246e-07
-1.29845e-07
-1.31445e-07
-1.33046e-07
-1.34648e-07
-1.36251e-07
-1.37856e-07
-1.39461e-07
-1.41068e-07
-1.42676e-07
-1.44285e-07
-1.45895e-07
-1.47506e-07
-1.49117e-07
-1.5073e-07
-1.52344e-07
-1.53959e-07
-1.55574e-07
-1.57193e-07
-1.58807e-07
-1.60433e-07
-1.6204e-07
-1.63681e-07
-1.65269e-07
-1.66944e-07
-1.68486e-07
-1.70232e-07
-1.7168e-07
-1.73557e-07
-1.74838e-07
-1.76929e-07
-1.77953e-07
-1.80353e-07
-1.81026e-07
-1.83821e-07
-1.84069e-07
-1.87318e-07
-1.871e-07
-1.90821e-07
-1.90143e-07
-1.94313e-07
-1.93207e-07
-1.97797e-07
-1.96266e-07
-2.0132e-07
-1.99254e-07
-2.04964e-07
-2.02084e-07
-2.08814e-07
-2.04671e-07
-2.12952e-07
-2.06935e-07
-2.17452e-07
-2.08828e-07
-2.22326e-07
-2.10397e-07
-2.27484e-07
-2.11823e-07
-2.32697e-07
-2.13505e-07
-2.37529e-07
-2.16228e-07
-2.41138e-07
-2.21669e-07
-2.41729e-07
-2.33495e-07
-2.35131e-07
-2.60408e-07
-2.08555e-07
-3.24279e-07
-1.09342e-07
-4.71917e-07
5.77874e-07
-2.44522e-07
-2.44522e-07
-0.125293
0.125293
0.0249363
0.00835847
0.00427846
0.00266199
0.00183421
0.00134683
0.00103436
0.000822183
0.000671865
0.000561728
0.000478707
0.000414547
0.000363853
0.000323004
0.000289503
0.000261572
0.000237928
0.000217659
0.00020012
0.000184828
0.00017137
0.000159378
0.00014857
0.000138782
0.000129935
0.000121941
0.000114641
0.00010783
0.000101351
9.51668e-05
8.93378e-05
8.3901e-05
7.87573e-05
7.36595e-05
6.83269e-05
6.26143e-05
5.66215e-05
5.06656e-05
4.51338e-05
4.03022e-05
3.62266e-05
3.27549e-05
2.96401e-05
2.66808e-05
2.3813e-05
2.11159e-05
1.87438e-05
1.68292e-05
1.5409e-05
1.44026e-05
1.36413e-05
1.29288e-05
1.21009e-05
1.1065e-05
9.81022e-06
8.39316e-06
6.90993e-06
5.46561e-06
4.14998e-06
3.02335e-06
2.11268e-06
1.41565e-06
9.09096e-07
5.5868e-07
3.27176e-07
1.80347e-07
9.01052e-08
3.54556e-08
1.94931e-09
-1.96016e-08
-3.45972e-08
-4.59645e-08
-5.51678e-08
-6.28947e-08
-6.9472e-08
-7.50878e-08
-7.98913e-08
-8.40253e-08
-8.76287e-08
-9.08292e-08
-9.37363e-08
-9.64375e-08
-9.89985e-08
-1.01466e-07
-1.03871e-07
-1.06234e-07
-1.08565e-07
-1.10873e-07
-1.1316e-07
-1.15428e-07
-1.17678e-07
-1.1991e-07
-1.22125e-07
-1.24323e-07
-1.26505e-07
-1.2867e-07
-1.3082e-07
-1.32954e-07
-1.35073e-07
-1.37176e-07
-1.39264e-07
-1.41337e-07
-1.43394e-07
-1.45435e-07
-1.4746e-07
-1.49468e-07
-1.51459e-07
-1.53433e-07
-1.5539e-07
-1.57328e-07
-1.59248e-07
-1.61148e-07
-1.6303e-07
-1.64893e-07
-1.66736e-07
-1.6856e-07
-1.70363e-07
-1.72147e-07
-1.7391e-07
-1.75653e-07
-1.77376e-07
-1.79078e-07
-1.8076e-07
-1.82422e-07
-1.84063e-07
-1.85685e-07
-1.87286e-07
-1.88867e-07
-1.90428e-07
-1.91969e-07
-1.93491e-07
-1.94993e-07
-1.96476e-07
-1.97939e-07
-1.99384e-07
-2.0081e-07
-2.02218e-07
-2.03608e-07
-2.0498e-07
-2.06334e-07
-2.07671e-07
-2.08992e-07
-2.10295e-07
-2.11583e-07
-2.12855e-07
-2.14111e-07
-2.15352e-07
-2.16579e-07
-2.17792e-07
-2.18991e-07
-2.20176e-07
-2.21349e-07
-2.2251e-07
-2.23659e-07
-2.24796e-07
-2.25923e-07
-2.27039e-07
-2.28146e-07
-2.29243e-07
-2.30331e-07
-2.31412e-07
-2.32485e-07
-2.3355e-07
-2.3461e-07
-2.35663e-07
-2.36711e-07
-2.37754e-07
-2.38792e-07
-2.39828e-07
-2.40859e-07
-2.41889e-07
-2.42916e-07
-2.43942e-07
-2.44967e-07
-2.45992e-07
-2.47017e-07
-2.48042e-07
-2.49069e-07
-2.50098e-07
-2.51129e-07
-2.52164e-07
-2.53201e-07
-2.54242e-07
-2.55288e-07
-2.56339e-07
-2.57395e-07
-2.58457e-07
-2.59525e-07
-2.606e-07
-2.61682e-07
-2.62771e-07
-2.63869e-07
-2.64975e-07
-2.6609e-07
-2.67214e-07
-2.68347e-07
-2.6949e-07
-2.70644e-07
-2.71808e-07
-2.72983e-07
-2.74169e-07
-2.75366e-07
-2.76575e-07
-2.77796e-07
-2.79029e-07
-2.80275e-07
-2.81533e-07
-2.82803e-07
-2.84087e-07
-2.85384e-07
-2.86694e-07
-2.88018e-07
-2.89355e-07
-2.90705e-07
-2.9207e-07
-2.93448e-07
-2.9484e-07
-2.96246e-07
-2.97666e-07
-2.991e-07
-3.00548e-07
-3.0201e-07
-3.03486e-07
-3.04976e-07
-3.06481e-07
-3.07999e-07
-3.09531e-07
-3.11077e-07
-3.12637e-07
-3.1421e-07
-3.15798e-07
-3.17399e-07
-3.19013e-07
-3.20641e-07
-3.22282e-07
-3.23936e-07
-3.25603e-07
-3.27283e-07
-3.28976e-07
-3.30681e-07
-3.32399e-07
-3.34129e-07
-3.35872e-07
-3.37626e-07
-3.39392e-07
-3.41169e-07
-3.42958e-07
-3.44759e-07
-3.4657e-07
-3.48392e-07
-3.50225e-07
-3.52069e-07
-3.53923e-07
-3.55787e-07
-3.57661e-07
-3.59544e-07
-3.61438e-07
-3.6334e-07
-3.65252e-07
-3.67173e-07
-3.69102e-07
-3.71041e-07
-3.72987e-07
-3.74942e-07
-3.76905e-07
-3.78876e-07
-3.80854e-07
-3.8284e-07
-3.84833e-07
-3.86834e-07
-3.88841e-07
-3.90855e-07
-3.92876e-07
-3.94903e-07
-3.96937e-07
-3.98976e-07
-4.01022e-07
-4.03073e-07
-4.0513e-07
-4.07192e-07
-4.0926e-07
-4.11333e-07
-4.13411e-07
-4.15494e-07
-4.17582e-07
-4.19674e-07
-4.21771e-07
-4.23872e-07
-4.25978e-07
-4.28087e-07
-4.30201e-07
-4.32319e-07
-4.3444e-07
-4.36565e-07
-4.38694e-07
-4.40826e-07
-4.42961e-07
-4.451e-07
-4.47242e-07
-4.49388e-07
-4.51536e-07
-4.53687e-07
-4.55841e-07
-4.57998e-07
-4.60157e-07
-4.62319e-07
-4.64484e-07
-4.66651e-07
-4.68821e-07
-4.70993e-07
-4.73168e-07
-4.75344e-07
-4.77523e-07
-4.79704e-07
-4.81888e-07
-4.84073e-07
-4.8626e-07
-4.88449e-07
-4.90641e-07
-4.92834e-07
-4.95029e-07
-4.97226e-07
-4.99425e-07
-5.01625e-07
-5.03827e-07
-5.06031e-07
-5.08237e-07
-5.10444e-07
-5.12653e-07
-5.14864e-07
-5.17076e-07
-5.1929e-07
-5.21505e-07
-5.23722e-07
-5.25941e-07
-5.28161e-07
-5.30383e-07
-5.32606e-07
-5.3483e-07
-5.37058e-07
-5.39283e-07
-5.41517e-07
-5.4374e-07
-5.45987e-07
-5.48195e-07
-5.50474e-07
-5.5264e-07
-5.5499e-07
-5.57059e-07
-5.59557e-07
-5.61426e-07
-5.64202e-07
-5.65716e-07
-5.68947e-07
-5.6991e-07
-5.73801e-07
-5.74013e-07
-5.7875e-07
-5.78049e-07
-5.83759e-07
-5.8206e-07
-5.88782e-07
-5.86093e-07
-5.93777e-07
-5.9017e-07
-5.98755e-07
-5.9424e-07
-6.03812e-07
-5.98159e-07
-6.09124e-07
-6.01739e-07
-6.14876e-07
-6.04798e-07
-6.21245e-07
-6.07166e-07
-6.28385e-07
-6.08738e-07
-6.36331e-07
-6.09607e-07
-6.44893e-07
-6.10158e-07
-6.5359e-07
-6.1124e-07
-6.61494e-07
-6.14527e-07
-6.66837e-07
-6.23571e-07
-6.65856e-07
-6.46148e-07
-6.49808e-07
-7.00666e-07
-5.91864e-07
-8.33163e-07
-3.81471e-07
-1.13879e-06
1.04312e-06
-6.59655e-07
-6.59655e-07
-0.146488
0.146488
0.0383109
0.0142345
0.00745652
0.00467326
0.00323107
0.00237706
0.00182761
0.00145359
0.00118815
0.000993414
0.000846484
0.000732865
0.000643063
0.000570694
0.00051134
0.000461861
0.000419988
0.000384106
0.000353069
0.00032601
0.000302192
0.000280969
0.000261851
0.000244551
0.000228915
0.000214772
0.000201836
0.000189754
0.000178268
0.00016732
0.000157002
0.000147351
0.000138175
0.000129045
0.000119501
0.000109332
9.87388e-05
8.82782e-05
7.86007e-05
7.01539e-05
6.30103e-05
5.69015e-05
5.14141e-05
4.62212e-05
4.12273e-05
3.65692e-05
3.24967e-05
2.9213e-05
2.67574e-05
2.4976e-05
2.35771e-05
2.22332e-05
2.0679e-05
1.87735e-05
1.65126e-05
1.40019e-05
1.14084e-05
8.90933e-06
6.6523e-06
4.7334e-06
3.19201e-06
2.01879e-06
1.17054e-06
5.86551e-07
2.02506e-07
-3.99796e-08
-1.88347e-07
-2.77792e-07
-3.32372e-07
-3.67292e-07
-3.91436e-07
-4.09593e-07
-4.24146e-07
-4.36214e-07
-4.46332e-07
-4.54817e-07
-4.61924e-07
-4.67899e-07
-4.72979e-07
-4.77383e-07
-4.81297e-07
-4.84868e-07
-4.88208e-07
-4.91394e-07
-4.94479e-07
-4.97497e-07
-5.00468e-07
-5.03402e-07
-5.06307e-07
-5.09186e-07
-5.1204e-07
-5.1487e-07
-5.17679e-07
-5.20466e-07
-5.23233e-07
-5.25981e-07
-5.28711e-07
-5.31423e-07
-5.34117e-07
-5.36796e-07
-5.39457e-07
-5.42103e-07
-5.44732e-07
-5.47344e-07
-5.49939e-07
-5.52516e-07
-5.55076e-07
-5.57618e-07
-5.6014e-07
-5.62644e-07
-5.65128e-07
-5.67592e-07
-5.70035e-07
-5.72458e-07
-5.7486e-07
-5.77241e-07
-5.796e-07
-5.81938e-07
-5.84255e-07
-5.8655e-07
-5.88823e-07
-5.91075e-07
-5.93305e-07
-5.95514e-07
-5.97701e-07
-5.99867e-07
-6.02012e-07
-6.04135e-07
-6.06238e-07
-6.08321e-07
-6.10383e-07
-6.12424e-07
-6.14446e-07
-6.16448e-07
-6.1843e-07
-6.20394e-07
-6.22339e-07
-6.24265e-07
-6.26173e-07
-6.28063e-07
-6.29936e-07
-6.31792e-07
-6.33631e-07
-6.35454e-07
-6.37262e-07
-6.39054e-07
-6.40831e-07
-6.42593e-07
-6.44342e-07
-6.46078e-07
-6.478e-07
-6.4951e-07
-6.51208e-07
-6.52895e-07
-6.54571e-07
-6.56237e-07
-6.57893e-07
-6.5954e-07
-6.61179e-07
-6.62809e-07
-6.64432e-07
-6.66048e-07
-6.67659e-07
-6.69263e-07
-6.70863e-07
-6.72458e-07
-6.74049e-07
-6.75637e-07
-6.77223e-07
-6.78807e-07
-6.80389e-07
-6.8197e-07
-6.83551e-07
-6.85133e-07
-6.86715e-07
-6.88299e-07
-6.89885e-07
-6.91474e-07
-6.93066e-07
-6.94662e-07
-6.96262e-07
-6.97867e-07
-6.99478e-07
-7.01094e-07
-7.02716e-07
-7.04346e-07
-7.05983e-07
-7.07628e-07
-7.09281e-07
-7.10942e-07
-7.12613e-07
-7.14294e-07
-7.15984e-07
-7.17685e-07
-7.19397e-07
-7.2112e-07
-7.22854e-07
-7.246e-07
-7.26359e-07
-7.28129e-07
-7.29913e-07
-7.31709e-07
-7.33519e-07
-7.35342e-07
-7.37179e-07
-7.3903e-07
-7.40895e-07
-7.42774e-07
-7.44668e-07
-7.46577e-07
-7.48501e-07
-7.50439e-07
-7.52392e-07
-7.54361e-07
-7.56345e-07
-7.58344e-07
-7.60359e-07
-7.62389e-07
-7.64434e-07
-7.66495e-07
-7.68572e-07
-7.70664e-07
-7.72771e-07
-7.74894e-07
-7.77033e-07
-7.79186e-07
-7.81355e-07
-7.83539e-07
-7.85739e-07
-7.87953e-07
-7.90183e-07
-7.92427e-07
-7.94686e-07
-7.96959e-07
-7.99248e-07
-8.0155e-07
-8.03867e-07
-8.06197e-07
-8.08542e-07
-8.109e-07
-8.13272e-07
-8.15658e-07
-8.18056e-07
-8.20468e-07
-8.22892e-07
-8.25329e-07
-8.27779e-07
-8.30241e-07
-8.32714e-07
-8.352e-07
-8.37698e-07
-8.40206e-07
-8.42726e-07
-8.45258e-07
-8.478e-07
-8.50352e-07
-8.52915e-07
-8.55489e-07
-8.58072e-07
-8.60665e-07
-8.63268e-07
-8.6588e-07
-8.68502e-07
-8.71132e-07
-8.73771e-07
-8.76419e-07
-8.79076e-07
-8.8174e-07
-8.84413e-07
-8.87093e-07
-8.89781e-07
-8.92477e-07
-8.9518e-07
-8.9789e-07
-9.00607e-07
-9.03331e-07
-9.06061e-07
-9.08798e-07
-9.11541e-07
-9.1429e-07
-9.17045e-07
-9.19806e-07
-9.22573e-07
-9.25345e-07
-9.28123e-07
-9.30906e-07
-9.33694e-07
-9.36487e-07
-9.39285e-07
-9.42087e-07
-9.44895e-07
-9.47706e-07
-9.50522e-07
-9.53343e-07
-9.56167e-07
-9.58996e-07
-9.61829e-07
-9.64665e-07
-9.67505e-07
-9.70349e-07
-9.73196e-07
-9.76047e-07
-9.78902e-07
-9.8176e-07
-9.84621e-07
-9.87485e-07
-9.90352e-07
-9.93223e-07
-9.96096e-07
-9.98973e-07
-1.00185e-06
-1.00473e-06
-1.00762e-06
-1.01051e-06
-1.0134e-06
-1.01629e-06
-1.01919e-06
-1.02208e-06
-1.02499e-06
-1.02789e-06
-1.0308e-06
-1.0337e-06
-1.03661e-06
-1.03953e-06
-1.04244e-06
-1.04536e-06
-1.04828e-06
-1.0512e-06
-1.05413e-06
-1.05705e-06
-1.05998e-06
-1.06292e-06
-1.06585e-06
-1.06879e-06
-1.07172e-06
-1.07466e-06
-1.07761e-06
-1.08055e-06
-1.0835e-06
-1.08645e-06
-1.0894e-06
-1.09236e-06
-1.0953e-06
-1.09829e-06
-1.1012e-06
-1.10424e-06