# vtk DataFile Version 2.0
FlowField
ASCII
DATASET STRUCTURED_GRID
DIMENSIONS 400 1 200
POINTS 80000 float
0 0 0
0.08 0 0
0.16 0 0
0.24 0 0
0.32 0 0
0.4 0 0
0.48 0 0
0.56 0 0
0.64 0 0
0.72 0 0
0.8 0 0
0.88 0 0
0.96 0 0
1.04 0 0
1.12 0 0
1.2 0 0
1.28 0 0
1.36 0 0
1.44 0 0
1.52 0 0
1.6 0 0
1.68 0 0
1.76 0 0
1.84 0 0
1.92 0 0
2 0 0
2.08 0 0
2.16 0 0
2.24 0 0
2.32 0 0
2.4 0 0
2.48 0 0
2.56 0 0
2.64 0 0
2.72 0 0
2.8 0 0
2.88 0 0
2.96 0 0
3.04 0 0
3.12 0 0
3.2 0 0
3.28 0 0
3.36 0 0
3.44 0 0
3.52 0 0
3.6 0 0
3.68 0 0
3.76 0 0
3.84 0 0
3.92 0 0
4 0 0
4.08 0 0
4.16 0 0
4.24 0 0
4.32 0 0
4.4 0 0
4.48 0 0
4.56 0 0
4.64 0 0
4.72 0 0
4.8 0 0
4.88 0 0
4.96 0 0
5.04 0 0
5.12 0 0
5.2 0 0
5.28 0 0
5.36 0 0
5.44 0 0
5.52 0 0
5.6 0 0
5.68 0 0
5.76 0 0
5.84 0 0
5.92 0 0
6 0 0
6.08 0 0
6.16 0 0
6.24 0 0
6.32 0 0
6.4 0 0
6.48 0 0
6.56 0 0
6.64 0 0
6.72 0 0
6.8 0 0
6.88 0 0
6.96 0 0
7.04 0 0
7.12 0 0
7.2 0 0
7.28 0 0
7.36 0 0
7.44 0 0
7.52 0 0
7.6 0 0
7.68 0 0
7.76 0 0
7.84 0 0
7.92 0 0
8 0 0
8.08 0 0
8.16 0 0
8.24 0 0
8.32 0 0
8.4 0 0
8.48 0 0
8.56 0 0
8.64 0 0
8.72 0 0
8.8 0 0
8.88 0 0
8.96 0 0
9.04 0 0
9.12 0 0
9.2 0 0
9.28 0 0
9.36 0 0
9.44 0 0
9.52 0 0
9.6 0 0
9.68 0 0
9.76 0 0
9.84 0 0
9.92 0 0
10 0 0
10.08 0 0
10.16 0 0
10.24 0 0
10.32 0 0
10.4 0 0
10.48 0 0
10.56 0 0
10.64 0 0
10.72 0 0
10.8 0 0
10.88 0 0
10.96 0 0
11.04 0 0
11.12 0 0
11.2 0 0
11.28 0 0
11.36 0 0
11.44 0 0
11.52 0 0
11.6 0 0
11.68 0 0
11.76 0 0
11.84 0 0
11.92 0 0
12 0 0
12.08 0 0
12.16 0 0
12.24 0 0
12.32 0 0
12.4 0 0
12.48 0 0
12.56 0 0
12.64 0 0
12.72 0 0
12.8 0 0
12.88 0 0
12.96 0 0
13.04 0 0
13.12 0 0
13.2 0 0
13.28 0 0
13.36 0 0
13.44 0 0
13.52 0 0
13.6 0 0
13.68 0 0
13.76 0 0
13.84 0 0
13.92 0 0
14 0 0
14.08 0 0
14.16 0 0
14.24 0 0
14.32 0 0
14.4 0 0
14.48 0 0
14.56 0 0
14.64 0 0
14.72 0 0
14.8 0 0
14.88 0 0
14.96 0 0
15.04 0 0
15.12 0 0
15.2 0 0
15.28 0 0
15.36 0 0
15.44 0 0
15.52 0 0
15.6 0 0
15.68 0 0
15.76 0 0
15.84 0 0
15.92 0 0
16 0 0
16.08 0 0
16.16 0 0
16.24 0 0
16.32 0 0
16.4 0 0
16.48 0 0
16.56 0 0
16.64 0 0
16.72 0 0
16.8 0 0
16.88 0 0
16.96 0 0
17.04 0 0
17.12 0 0
17.2 0 0
17.28 0 0
17.36 0 0
17.44 0 0
17.52 0 0
17.6 0 0
17.68 0 0
17.76 0 0
17.84 0 0
17.92 0 0
18 0 0
18.08 0 0
18.16 0 0
18.24 0 0
18.32 0 0
18.4 0 0
18.48 0 0
18.56 0 0
18.64 0 0
18.72 0 0
18.8 0 0
18.88 0 0
18.96 0 0
19.04 0 0
19.12 0 0
19.2 0 0
19.28 0 0
19.36 0 0
19.44 0 0
19.52 0 0
19.6 0 0
19.68 0 0
19.76 0 0
19.84 0 0
19.92 0 0
20 0 0
20.08 0 0
20.16 0 0
20.24 0 0
20.32 0 0
20.4 0 0
20.48 0 0
20.56 0 0
20.64 0 0
20.72 0 0
20.8 0 0
20.88 0 0
20.96 0 0
21.04 0 0
21.12 0 0
21.2 0 0
21.28 0 0
21.36 0 0
21.44 0 0
21.52 0 0
21.6 0 0
21.68 0 0
21.76 0 0
21.84 0 0
21.92 0 0
22 0 0
22.08 0 0
22.16 0 0
22.24 0 0
22.32 0 0
22.4 0 0
22.48 0 0
22.56 0 0
22.64 0 0
22.72 0 0
22.8 0 0
22.88 0 0
22.96 0 0
23.04 0 0
23.12 0 0
23.2 0 0
23.28 0 0
23.36 0 0
23.44 0 0
23.52 0 0
23.6 0 0
23.68 0 0
23.76 0 0
23.84 0 0
23.92 0 0
24 0 0
24.08 0 0
24.16 0 0
24.24 0 0
24.32 0 0
24.4 0 0
24.48 0 0
24.56 0 0
24.64 0 0
24.72 0 0
24.8 0 0
24.88 0 0
24.96 0 0
25.04 0 0
25.12 0 0
25.2 0 0
25.28 0 0
25.36 0 0
25.44 0 0
25.52 0 0
25.6 0 0
25.68 0 0
25.76 0 0
25.84 0 0
25.92 0 0
26 0 0
26.08 0 0
26.16 0 0
26.24 0 0
26.32 0 0
26.4 0 0
26.48 0 0
26.56 0 0
26.64 0 0
26.72 0 0
26.8 0 0
26.88 0 0
26.96 0 0
27.04 0 0
27.12 0 0
27.2 0 0
27.28 0 0
27.36 0 0
27.44 0 0
27.52 0 0
27.6 0 0
27.68 0 0
27.76 0 0
27.84 0 0
27.92 0 0
28 0 0
28.08 0 0
28.16 0 0
28.24 0 0
28.32 0 0
28.4 0 0
28.48 0 0
28.56 0 0
28.64 0 0
28.72 0 0
28.8 0 0
28.88 0 0
28.96 0 0
29.04 0 0
29.12 0 0
29.2 0 0
29.28 0 0
29.36 0 0
29.44 0 0
29.52 0 0
29.6 0 0
29.68 0 0
29.76 0 0
29.84 0 0
29.92 0 0
30 0 0
30.08 0 0
30.16 0 0
30.24 0 0
30.32 0 0
30.4 0 0
30.48 0 0
30.56 0 0
30.64 0 0
30.72 0 0
30.8 0 0
30.88 0 0
30.96 0 0
31.04 0 0
31.12 0 0
31.2 0 0
31.28 0 0
31.36 0 0
31.44 0 0
31.52 0 0
31.6 0 0
31.68 0 0
31.76 0 0
31.84 0 0
31.92 0 0
0 0.005 0
0.08 0.005 0
0.16 0.005 0
0.24 0.005 0
0.32 0.005 0
0.4 0.005 0
0.48 0.005 0
0.56 0.005 0
0.64 0.005 0
0.72 0.005 0
0.8 0.005 0
0.88 0.005 0
0.96 0.005 0
1.04 0.005 0
1.12 0.005 0
1.2 0.005 0
1.28 0.005 0
1.36 0.005 0
1.44 0.005 0
1.52 0.005 0
1.6 0.005 0
1.68 0.005 0
1.76 0.005 0
1.84 0.005 0
1.92 0.005 0
2 0.005 0
2.08 0.005 0
2.16 0.005 0
2.24 0.005 0
2.32 0.005 0
2.4 0.005 0
2.48 0.005 0
2.56 0.005 0
2.64 0.005 0
2.72 0.005 0
2.8 0.005 0
2.88 0.005 0
2.96 0.005 0
3.04 0.005 0
3.12 0.005 0
3.2 0.005 0
3.28 0.005 0
3.36 0.005 0
3.44 0.005 0
3.52 0.005 0
3.6 0.005 0
3.68 0.005 0
3.76 0.005 0
3.84 0.005 0
3.92 0.005 0
4 0.005 0
4.08 0.005 0
4.16 0.005 0
4.24 0.005 0
4.32 0.005 0
4.4 0.005 0
4.48 0.005 0
4.56 0.005 0
4.64 0.005 0
4.72 0.005 0
4.8 0.005 0
4.88 0.005 0
4.96 0.005 0
5.04 0.005 0
5.12 0.005 0
5.2 0.005 0
5.28 0.005 0
5.36 0.005 0
5.44 0.005 0
5.52 0.005 0
5.6 0.005 0
5.68 0.005 0
5.76 0.005 0
5.84 0.005 0
5.92 0.005 0
6 0.005 0
6.08 0.005 0
6.16 0.005 0
6.24 0.005 0
6.32 0.005 0
6.4 0.005 0
6.48 0.005 0
6.56 0.005 0
6.64 0.005 0
6.72 0.005 0
6.8 0.005 0
6.88 0.005 0
6.96 0.005 0
7.04 0.005 0
7.12 0.005 0
7.2 0.005 0
7.28 0.005 0
7.36 0.005 0
7.44 0.005 0
7.52 0.005 0
7.6 0.005 0
7.68 0.005 0
7.76 0.005 0
7.84 0.005 0
7.92 0.005 0
8 0.005 0
8.08 0.005 0
8.16 0.005 0
8.24 0.005 0
8.32 0.005 0
8.4 0.005 0
8.48 0.005 0
8.56 0.005 0
8.64 0.005 0
8.72 0.005 0
8.8 0.005 0
8.88 0.005 0
8.96 0.005 0
9.04 0.005 0
9.12 0.005 0
9.2 0.005 0
9.28 0.005 0
9.36 0.005 0
9.44 0.005 0
9.52 0.005 0
9.6 0.005 0
9.68 0.005 0
9.76 0.005 0
9.84 0.005 0
9.92 0.005 0
10 0.005 0
10.08 0.005 0
10.16 0.005 0
10.24 0.005 0
10.32 0.005 0
10.4 0.005 0
10.48 0.005 0
10.56 0.005 0
10.64 0.005 0
10.72 0.005 0
10.8 0.005 0
10.88 0.005 0
10.96 0.005 0
11.04 0.005 0
11.12 0.005 0
11.2 0.005 0
11.28 0.005 0
11.36 0.005 0
11.44 0.005 0
11.52 0.005 0
11.6 0.005 0
11.68 0.005 0
11.76 0.005 0
11.84 0.005 0
11.92 0.005 0
12 0.005 0
12.08 0.005 0
12.16 0.005 0
12.24 0.005 0
12.32 0.005 0
12.4 0.005 0
12.48 0.005 0
12.56 0.005 0
12.64 0.005 0
12.72 0.005 0
12.8 0.005 0
12.88 0.005 0
12.96 0.005 0
13.04 0.005 0
13.12 0.005 0
13.2 0.005 0
13.28 0.005 0
13.36 0.005 0
13.44 0.005 0
13.52 0.005 0
13.6 0.005 0
13.68 0.005 0
13.76 0.005 0
13.84 0.005 0
13.92 0.005 0
14 0.005 0
14.08 0.005 0
14.16 0.005 0
14.24 0.005 0
14.32 0.005 0
14.4 0.005 0
14.48 0.005 0
14.56 0.005 0
14.64 0.005 0
14.72 0.005 0
14.8 0.005 0
14.88 0.005 0
14.96 0.005 0
15.04 0.005 0
15.12 0.005 0
15.2 0.005 0
15.28 0.005 0
15.36 0.005 0
15.44 0.005 0
15.52 0.005 0
15.6 0.005 0
15.68 0.005 0
15.76 0.005 0
15.84 0.005 0
15.92 0.005 0
16 0.005 0
16.08 0.005 0
16.16 0.005 0
16.24 0.005 0
16.32 0.005 0
16.4 0.005 0
16.48 0.005 0
16.56 0.005 0
16.64 0.005 0
16.72 0.005 0
16.8 0.005 0
16.88 0.005 0
16.96 0.005 0
17.04 0.005 0
17.12 0.005 0
17.2 0.005 0
17.28 0.005 0
17.36 0.005 0
17.44 0.005 0
17.52 0.005 0
17.6 0.005 0
17.68 0.005 0
17.76 0.005 0
17.84 0.005 0
17.92 0.005 0
18 0.005 0
18.08 0.005 0
18.16 0.005 0
18.24 0.005 0
18.32 0.005 0
18.4 0.005 0
18.48 0.005 0
18.56 0.005 0
18.64 0.005 0
18.72 0.005 0
18.8 0.005 0
18.88 0.005 0
18.96 0.005 0
19.04 0.005 0
19.12 0.005 0
19.2 0.005 0
19.28 0.005 0
19.36 0.005 0
19.44 0.005 0
19.52 0.005 0
19.6 0.005 0
19.68 0.005 0
19.76 0.005 0
19.84 0.005 0
19.92 0.005 0
20 0.005 0
20.08 0.005 0
20.16 0.005 0
20.24 0.005 0
20.32 0.005 0
20.4 0.005 0
20.48 0.005 0
20.56 0.005 0
20.64 0.005 0
20.72 0.005 0
20.8 0.005 0
20.88 0.005 0
20.96 0.005 0
21.04 0.005 0
21.12 0.005 0
21.2 0.005 0
21.28 0.005 0
21.36 0.005 0
21.44 0.005 0
21.52 0.005 0
21.6 0.005 0
21.68 0.005 0
21.76 0.005 0
21.84 0.005 0
21.92 0.005 0
22 0.005 0
22.08 0.005 0
22.16 0.005 0
22.24 0.005 0
22.32 0.005 0
22.4 0.005 0
22.48 0.005 0
22.56 0.005 0
22.64 0.005 0
22.72 0.005 0
22.8 0.005 0
22.88 0.005 0
22.96 0.005 0
23.04 0.005 0
23.12 0.005 0
23.2 0.005 0
23.28 0.005 0
23.36 0.005 0
23.44 0.005 0
23.52 0.005 0
23.6 0.005 0
23.68 0.005 0
23.76 0.005 0
23.84 0.005 0
23.92 0.005 0
24 0.005 0
24.08 0.005 0
24.16 0.005 0
24.24 0.005 0
24.32 0.005 0
24.4 0.005 0
24.48 0.005 0
24.56 0.005 0
24.64 0.005 0
24.72 0.005 0
24.8 0.005 0
24.88 0.005 0
24.96 0.005 0
25.04 0.005 0
25.12 0.005 0
25.2 0.005 0
25.28 0.005 0
25.36 0.005 0
25.44 0.005 0
25.52 0.005 0
25.6 0.005 0
25.68 0.005 0
25.76 0.005 0
25.84 0.005 0
25.92 0.005 0
26 0.005 0
26.08 0.005 0
26.16 0.005 0
26.24 0.005 0
26.32 0.005 0
26.4 0.005 0
26.48 0.005 0
26.56 0.005 0
26.64 0.005 0
26.72 0.005 0
26.8 0.005 0
26.88 0.005 0
26.96 0.005 0
27.04 0.005 0
27.12 0.005 0
27.2 0.005 0
27.28 0.005 0
27.36 0.005 0
27.44 0.005 0
27.52 0.005 0
27.6 0.005 0
27.68 0.005 0
27.76 0.005 0
27.84 0.005 0
27.92 0.005 0
28 0.005 0
28.08 0.005 0
28.16 0.005 0
28.24 0.005 0
28.32 0.005 0
28.4 0.005 0
28.48 0.005 0
28.56 0.005 0
28.64 0.005 0
28.72 0.005 0
28.8 0.005 0
28.88 0.005 0
28.96 0.005 0
29.04 0.005 0
29.12 0.005 0
29.2 0.005 0
29.28 0.005 0
29.36 0.005 0
29.44 0.005 0
29.52 0.005 0
29.6 0.005 0
29.68 0.005 0
29.76 0.005 0
29.84 0.005 0
29.92 0.005 0
30 0.005 0
30.08 0.005 0
30.16 0.005 0
30.24 0.005 0
30.32 0.005 0
30.4 0.005 0
30.48 0.005 0
30.56 0.005 0
30.64 0.005 0
30.72 0.005 0
30.8 0.005 0
30.88 0.005 0
30.96 0.005 0
31.04 0.005 0
31.12 0.005 0
31.2 0.005 0
31.28 0.005 0
31.36 0.005 0
31.44 0.005 0
31.52 0.005 0
31.6 0.005 0
31.68 0.005 0
31.76 0.005 0
31.84 0.005 0
31.92 0.005 0
0 0.01 0
0.08 0.01 0
0.16 0.01 0
0.24 0.01 0
0.32 0.01 0
0.4 0.01 0
0.48 0.01 0
0.56 0.01 0
0.64 0.01 0
0.72 0.01 0
0.8 0.01 0
0.88 0.01 0
0.96 0.01 0
1.04 0.01 0
1.12 0.01 0
1.2 0.01 0
1.28 0.01 0
1.36 0.01 0
1.44 0.01 0
1.52 0.01 0
1.6 0.01 0
1.68 0.01 0
1.76 0.01 0
1.84 0.01 0
1.92 0.01 0
2 0.01 0
2.08 0.01 0
2.16 0.01 0
2.24 0.01 0
2.32 0.01 0
2.4 0.01 0
2.48 0.01 0
2.56 0.01 0
2.64 0.01 0
2.72 0.01 0
2.8 0.01 0
2.88 0.01 0
2.96 0.01 0
3.04 0.01 0
3.12 0.01 0
3.2 0.01 0
3.28 0.01 0
3.36 0.01 0
3.44 0.01 0
3.52 0.01 0
3.6 0.01 0
3.68 0.01 0
3.76 0.01 0
3.84 0.01 0
3.92 0.01 0
4 0.01 0
4.08 0.01 0
4.16 0.01 0
4.24 0.01 0
4.32 0.01 0
4.4 0.01 0
4.48 0.01 0
4.56 0.01 0
4.64 0.01 0
4.72 0.01 0
4.8 0.01 0
4.88 0.01 0
4.96 0.01 0
5.04 0.01 0
5.12 0.01 0
[...]
POINT_DATA 80000

SCALARS p float 1
LOOKUP_TABLE default
1
69.5924
69.2908
69.2496
69.2291
69.2142
69.2027
69.1942
69.1876
69.1818
69.1762
69.1702
69.1638
69.1572
69.1503
69.1432
69.136
69.1287
69.1213
69.1139
69.1064
69.099
69.0915
69.084
69.0765
69.069
69.0615
69.0539
69.0464
69.0388
69.0313
69.0237
69.0161
69.0086
69.001
68.9934
68.9858
68.9781
68.9705
68.9629
68.9552
68.9476
68.9399
68.9322
68.9246
68.9169
68.9092
68.9015
68.8937
68.886
68.8783
68.8705
68.8628
68.855
68.8472
68.8395
68.8317
68.8239
68.8161
68.8082
68.8004
68.7926
68.7847
68.7769
68.769
68.7611
68.7532
68.7453
68.7374
68.7295
68.7216
68.7136
68.7057
68.6977
68.6897
68.6817
68.6738
68.6658
68.6577
68.6497
68.6417
68.6336
68.6256
68.6175
68.6094
68.6014
68.5933
68.5852
68.577
68.5689
68.5608
68.5526
68.5444
68.5363
68.5281
68.5199
68.5117
68.5035
68.4952
68.487
68.4787
68.4705
68.4622
68.4539
68.4456
68.4373
68.429
68.4206
68.4123
68.4039
68.3956
68.3872
68.3788
68.3704
68.362
68.3535
68.3451
68.3366
68.3281
68.3197
68.3112
68.3027
68.2941
68.2856
68.2771
68.2685
68.2599
68.2513
68.2427
68.2341
68.2255
68.2168
68.2082
68.1995
68.1908
68.1821
68.1734
68.1646
68.1559
68.1471
68.1383
68.1295
68.1207
68.1119
68.103
68.0941
68.0852
68.0762
68.0673
68.0583
68.0492
68.0402
68.031
68.0219
68.0127
68.0034
67.9941
67.9847
67.9753
67.9657
67.9561
67.9464
67.9365
67.9265
67.9164
67.9061
67.8956
67.8849
67.874
67.8628
67.8513
67.8396
67.8274
67.8149
67.802
67.7885
67.7746
67.7601
67.7449
67.729
67.7124
67.695
67.6766
67.6573
67.6369
67.6154
67.5926
67.5685
67.543
67.516
67.4873
67.4569
67.4247
67.3906
67.3544
67.316
67.2754
67.2325
67.1871
67.1391
67.0885
67.0351
66.9789
66.9198
66.8578
66.7927
66.7246
66.6534
66.5791
66.5017
66.4211
66.3375
66.2507
66.161
66.0683
65.9728
65.8745
65.7735
65.67
65.5641
65.456
65.3458
65.2337
65.1199
65.0047
64.8882
64.7706
64.6522
64.5332
64.4138
64.2943
64.1749
64.0559
63.9374
63.8197
63.703
63.5876
63.4735
63.3611
63.2504
63.1417
63.0351
62.9307
62.8287
62.7291
62.6321
62.5377
62.446
62.357
62.2708
62.1874
62.1068
62.029
61.9539
61.8815
61.8118
61.7448
61.6803
61.6183
61.5587
61.5015
61.4465
61.3938
61.343
61.2943
61.2475
61.2024
61.1591
61.1174
61.0772
61.0384
61.001
60.9648
60.9298
60.8959
60.863
60.8311
60.8
60.7698
60.7403
60.7115
60.6833
60.6558
60.6288
60.6022
60.5762
60.5506
60.5254
60.5005
60.476
60.4517
60.4278
60.4041
60.3806
60.3574
60.3344
60.3115
60.2888
60.2663
60.2439
60.2217
60.1995
60.1775
60.1556
60.1338
60.1121
60.0905
60.0689
60.0474
60.026
60.0047
59.9834
59.9622
59.941
59.9198
59.8987
59.8777
59.8567
59.8357
59.8148
59.7938
59.7729
59.7521
59.7312
59.7104
59.6896
59.6688
59.648
59.6273
59.6065
59.5858
59.565
59.5443
59.5236
59.5028
59.4821
59.4614
59.4406
59.4199
59.3991
59.3784
59.3576
59.3368
59.3161
59.2953
59.2745
59.2536
59.2328
59.2119
59.191
59.1701
59.1492
59.1283
59.1073
59.0863
59.0653
59.0442
59.0231
59.002
58.9809
58.9597
58.9385
58.9172
58.896
58.8746
58.8533
58.8319
58.8104
58.789
58.7674
58.7459
58.7243
58.7026
58.6809
58.6591
58.6373
58.6155
58.5935
58.5716
58.5495
58.5275
58.5053
58.4831
58.4609
58.4385
58.4162
58.3937
58.3712
58.3486
58.326
58.3032
58.2804
58.2576
58.2346
58.2116
58.1885
58.1652
58.1421
58.1191
0.5
69.5924
69.5924
69.2908
69.2496
69.2291
69.2142
69.2027
69.1942
69.1876
69.1818
69.1762
69.1702
69.1638
69.1572
69.1503
69.1432
69.136
69.1287
69.1213
69.1139
69.1064
69.099
69.0915
69.084
69.0765
69.069
69.0615
69.0539
69.0464
69.0388
69.0313
69.0237
69.0161
69.0086
69.001
68.9934
68.9858
68.9781
68.9705
68.9629
68.9552
68.9476
68.9399
68.9322
68.9246
68.9169
68.9092
68.9015
68.8937
68.886
68.8783
68.8705
68.8628
68.855
68.8472
68.8395
68.8317
68.8239
68.8161
68.8082
68.8004
68.7926
68.7847
68.7769
68.769
68.7611
68.7532
68.7453
68.7374
68.7295
68.7216
68.7136
68.7057
68.6977
68.6897
68.6817
68.6738
68.6658
68.6577
68.6497
68.6417
68.6336
68.6256
68.6175
68.6094
68.6014
68.5933
68.5852
68.577
68.5689
68.5608
68.5526
68.5444
68.5363
68.5281
68.5199
68.5117
68.5035
68.4952
68.487
68.4787
68.4705
68.4622
68.4539
68.4456
68.4373
68.429
68.4206
68.4123
68.4039
68.3956
68.3872
68.3788
68.3704
68.362
68.3535
68.3451
68.3366
68.3281
68.3197
68.3112
68.3027
68.2941
68.2856
68.2771
68.2685
68.2599
68.2513
68.2427
68.2341
68.2255
68.2168
68.2082
68.1995
68.1908
68.1821
68.1734
68.1646
68.1559
68.1471
68.1383
68.1295
68.1207
68.1119
68.103
68.0941
68.0852
68.0762
68.0673
68.0583
68.0492
68.0402
68.031
68.0219
68.0127
68.0034
67.9941
67.9847
67.9753
67.9657
67.9561
67.9464
67.9365
67.9265
67.9164
67.9061
67.8956
67.8849
67.874
67.8628
67.8513
67.8396
67.8274
67.8149
67.802
67.7885
67.7746
67.7601
67.7449
67.729
67.7124
67.695
67.6766
67.6573
67.6369
67.6154
67.5926
67.5685
67.543
67.516
67.4873
67.4569
67.4247
67.3906
67.3544
67.316
67.2754
67.2325
67.1871
67.1391
67.0885
67.0351
66.9789
66.9198
66.8578
66.7927
66.7246
66.6534
66.5791
66.5017
66.4211
66.3375
66.2507
66.161
66.0683
65.9728
65.8745
65.7735
65.67
65.5641
65.456
65.3458
65.2337
65.1199
65.0047
64.8882
64.7706
64.6522
64.5332
64.4138
64.2943
64.1749
64.0559
63.9374
63.8197
63.703
63.5876
63.4735
63.3611
63.2504
63.1417
63.0351
62.9307
62.8287
62.7291
62.6321
62.5377
62.446
62.357
62.2708
62.1874
62.1068
62.029
61.9539
61.8815
61.8118
61.7448
61.6803
61.6183
61.5587
61.5015
61.4465
61.3938
61.343
61.2943
61.2475
61.2024
61.1591
61.1174
61.0772
61.0384
61.001
60.9648
60.9298
60.8959
60.863
60.8311
60.8
60.7698
60.7403
60.7115
60.6833
60.6558
60.6288
60.6022
60.5762
60.5506
60.5254
60.5005
60.476
60.4517
60.4278
60.4041
60.3806
60.3574
60.3344
60.3115
60.2888
60.2663
60.2439
60.2217
60.1995
60.1775
60.1556
60.1338
60.1121
60.0905
60.0689
60.0474
60.026
60.0047
59.9834
59.9622
59.941
59.9198
59.8987
59.8777
59.8567
59.8357
59.8148
59.7938
59.7729
59.7521
59.7312
59.7104
59.6896
59.6688
59.648
59.6273
59.6065
59.5858
59.565
59.5443
59.5236
59.5028
59.4821
59.4614
59.4406
59.4199
59.3991
59.3784
59.3576
59.3368
59.3161
59.2953
59.2745
59.2536
59.2328
59.2119
59.191
59.1701
59.1492
59.1283
59.1073
59.0863
59.0653
59.0442
59.0231
59.002
58.9809
58.9597
58.9385
58.9172
58.896
58.8746
58.8533
58.8319
58.8104
58.789
58.7674
58.7459
58.7243
58.7026
58.6809
58.6591
58.6373
58.6155
58.5935
58.5716
58.5495
58.5275
58.5053
58.4831
58.4609
58.4385
58.4162
58.3937
58.3712
58.3486
58.326
58.3032
58.2804
58.2576
58.2346
58.2116
58.1885
58.1652
58.1421
58.1191
58.1191
69.5779
69.5779
69.2946
69.2508
69.2297
69.2146
69.203
69.1943
69.1877
69.1819
69.1762
69.1702
69.1638
69.1572
69.1503
69.1432
69.136
69.1287
69.1213
69.1139
69.1064
69.099
69.0915
69.084
69.0765
69.069
69.0615
69.0539
69.0464
69.0388
69.0313
69.0237
69.0161
69.0086
69.001
68.9934
68.9858
68.9781
68.9705
68.9629
68.9552
68.9476
68.9399
68.9322
68.9246
68.9169
68.9092
68.9015
68.8938
68.886
68.8783
68.8705
68.8628
68.855
68.8472
68.8395
68.8317
68.8239
68.8161
68.8082
68.8004
68.7926
68.7847
68.7769
68.769
68.7611
68.7532
68.7453
68.7374
68.7295
68.7216
68.7136
68.7057
68.6977
68.6897
68.6818
68.6738
68.6658
68.6577
68.6497
68.6417
68.6336
68.6256
68.6175
68.6095
68.6014
68.5933
68.5852
68.577
68.5689
68.5608
68.5526
68.5445
68.5363
68.5281
68.5199
68.5117
68.5035
68.4952
68.487
68.4787
68.4705
68.4622
68.4539
68.4456
68.4373
68.429
68.4206
68.4123
68.4039
68.3956
68.3872
68.3788
68.3704
68.362
68.3535
68.3451
68.3366
68.3281
68.3197
68.3112
68.3027
68.2941
68.2856
68.2771
68.2685
68.2599
68.2513
68.2427
68.2341
68.2255
68.2168
68.2082
68.1995
68.1908
68.1821
68.1734
68.1646
68.1559
68.1471
68.1383
68.1295
68.1207
68.1119
68.103
68.0941
68.0852
68.0762
68.0673
68.0583
68.0492
68.0402
68.031
68.0219
68.0127
68.0034
67.9941
67.9847
67.9753
67.9657
67.9561
67.9464
67.9365
67.9265
67.9164
67.9061
67.8956
67.8849
67.874
67.8628
67.8513
67.8396
67.8274
67.8149
67.802
67.7885
67.7746
67.76
67.7449
67.729
67.7124
67.6949
67.6766
67.6573
67.6369
67.6153
67.5926
67.5685
67.543
67.5159
67.4873
67.4569
67.4247
67.3905
67.3543
67.316
67.2754
67.2324
67.187
67.139
67.0884
67.035
66.9788
66.9197
66.8577
66.7926
66.7245
66.6533
66.579
66.5015
66.421
66.3373
66.2506
66.1609
66.0682
65.9726
65.8743
65.7733
65.6698
65.5639
65.4558
65.3456
65.2335
65.1198
65.0045
64.888
64.7704
64.652
64.533
64.4136
64.2942
64.1748
64.0557
63.9372
63.8196
63.7029
63.5874
63.4734
63.3609
63.2503
63.1416
63.035
62.9306
62.8286
62.729
62.632
62.5376
62.4459
62.3569
62.2708
62.1874
62.1067
62.0289
61.9538
61.8814
61.8118
61.7447
61.6802
61.6182
61.5587
61.5015
61.4465
61.3937
61.343
61.2943
61.2475
61.2024
61.1591
61.1174
61.0772
61.0384
61.001
60.9648
60.9298
60.8959
60.863
60.831
60.8
60.7697
60.7403
60.7115
60.6833
60.6558
60.6287
60.6022
60.5762
60.5506
60.5254
60.5005
60.476
60.4517
60.4278
60.4041
60.3806
60.3574
60.3344
60.3115
60.2888
60.2663
60.2439
60.2217
60.1995
60.1775
60.1556
60.1338
60.1121
60.0905
60.0689
60.0474
60.026
60.0047
59.9834
59.9622
59.941
59.9198
59.8987
59.8777
59.8567
59.8357
59.8148
59.7938
59.7729
59.7521
59.7312
59.7104
59.6896
59.6688
59.648
59.6273
59.6065
59.5858
59.565
59.5443
59.5236
59.5028
59.4821
59.4614
59.4406
59.4199
59.3991
59.3784
59.3576
59.3368
59.3161
59.2953
59.2745
59.2536
59.2328
59.2119
59.191
59.1701
59.1492
59.1283
59.1073
59.0863
59.0653
59.0442
59.0231
59.002
58.9809
58.9597
58.9385
58.9172
58.896
58.8746
58.8533
58.8319
58.8104
58.789
58.7674
58.7459
58.7243
58.7026
58.6809
58.6591
58.6373
58.6155
58.5935
58.5716
58.5495
58.5275
58.5053
58.4831
58.4609
58.4385
58.4162
58.3937
58.3712
58.3486
58.326
58.3032
58.2804
58.2576
58.2346
58.2116
58.1885
58.1652
58.1421
58.1191
58.1191
69.5619
69.5619
69.2978
69.252
69.2303
69.2149
69.2032
69.1944
69.1877
69.1819
69.1762
69.1702
69.1638
69.1572
69.1503
69.1432
69.136
69.1287
69.1213
69.1139
69.1064
69.099
69.0915
69.084
69.0765
69.069
69.0615
69.0539
69.0464
69.0388
69.0313
69.0237
69.0161
69.0086
69.001
68.9934
68.9858
68.9781
68.9705
68.9629
68.9552
68.9476
68.9399
68.9322
68.9246
68.9169
68.9092
68.9015
68.8937
68.886
68.8783
68.8705
68.8628
68.855
68.8472
68.8395
68.8317
68.8239
68.8161
68.8082
68.8004
68.7926
68.7847
68.7769
68.769
68.7611
68.7532
68.7453
68.7374
68.7295
68.7216
68.7136
68.7057
68.6977
68.6897
68.6817
68.6738
68.6658
68.6577
68.6497
68.6417
68.6336
68.6256
68.6175
68.6094
68.6014
68.5933
68.5852
68.577
68.5689
68.5608
68.5526
68.5445
68.5363
68.5281
68.5199
68.5117
68.5035
68.4952
68.487
68.4787
68.4705
68.4622
68.4539
68.4456
68.4373
68.429
68.4206
68.4123
68.4039
68.3956
68.3872
68.3788
68.3704
68.362
68.3535
68.3451
68.3366
68.3281
68.3197
68.3112
68.3027
68.2941
68.2856
68.2771
68.2685
68.2599
68.2513
68.2427
68.2341
68.2255
68.2168
68.2082
68.1995
68.1908
68.1821
68.1734
68.1646
68.1559
68.1471
68.1383
68.1295
68.1207
68.1119
68.103
68.0941
68.0852
68.0762
68.0673
68.0583
68.0492
68.0402
68.031
68.0219
68.0127
68.0034
67.9941
67.9847
67.9753
67.9657
67.9561
67.9464
67.9365
67.9265
67.9164
67.9061
67.8956
67.8849
67.874
67.8628
67.8513
67.8396
67.8274
67.8149
67.802
67.7885
67.7746
67.76
67.7449
67.729
67.7124
67.6949
67.6766
67.6572
67.6369
67.6153
67.5925
67.5685
67.5429
67.5159
67.4872
67.4569
67.4246
67.3905
67.3543
67.3159
67.2753
67.2324
67.1869
67.139
67.0883
67.035
66.9788
66.9197
66.8576
66.7926
66.7244
66.6532
66.5789
66.5015
66.4209
66.3373
66.2505
66.1608
66.0681
65.9726
65.8742
65.7733
65.6698
65.5639
65.4557
65.3455
65.2335
65.1197
65.0045
64.8879
64.7704
64.652
64.533
64.4136
64.2941
64.1747
64.0557
63.9372
63.8195
63.7029
63.5874
63.4734
63.3609
63.2503
63.1416
63.035
62.9306
62.8286
62.729
62.632
62.5376
62.4459
62.357
62.2708
62.1874
62.1068
62.0289
61.9538
61.8815
61.8118
61.7447
61.6803
61.6183
61.5587
61.5015
61.4465
61.3937
61.343
61.2943
61.2475
61.2024
61.1591
61.1174
61.0772
61.0384
61.001
60.9648
60.9298
60.8959
60.863
60.8311
60.8
60.7698
60.7403
60.7115
60.6833
60.6558
60.6288
60.6022
60.5762
60.5506
60.5254
60.5005
60.476
60.4517
60.4278
60.4041
60.3806
60.3574
60.3344
60.3115
60.2888
60.2663
60.2439
60.2217
60.1995
60.1775
60.1556
60.1338
60.1121
60.0905
60.0689
60.0474
60.026
60.0047
59.9834
59.9622
59.941
59.9198
59.8987
59.8777
59.8567
59.8357
59.8147
59.7938
59.7729
59.7521
59.7312
59.7104
59.6896
59.6688
59.648
59.6273
59.6065
59.5858
59.565
59.5443
59.5235
59.5028
59.4821
59.4614
59.4406
59.4199
59.3991
59.3784
59.3576
59.3368
59.3161
59.2953
59.2744
59.2536
59.2328
59.2119
59.191
59.1701
59.1492
59.1283
59.1073
59.0863
59.0653
59.0442
59.0231
59.002
58.9809
58.9597
58.9385
58.9172
58.896
58.8746
58.8533
58.8319
58.8104
58.789
58.7674
58.7459
58.7243
58.7026
58.6809
58.6591
58.6373
58.6154
58.5935
58.5716
58.5495
58.5275
58.5053
58.4831
58.4609
58.4385
58.4161
58.3937
58.3712
58.3486
58.3259
58.3032
58.2804
58.2576
58.2346
58.2116
58.1885
58.1652
58.142
58.1191
58.1191
69.546
69.546
69.3007
69.2531
69.2309
69.2153
69.2034
69.1945
69.1878
69.1819
69.1762
69.1702
69.1638
69.1572
69.1503
69.1432
69.136
69.1287
69.1213
69.1139
69.1064
69.099
69.0915
69.084
69.0765
69.069
69.0615
69.0539
69.0464
69.0388
69.0313
69.0237
69.0161
69.0086
69.001
68.9934
68.9858
68.9781
68.9705
68.9629
68.9552
68.9476
68.9399
68.9322
68.9246
68.9169
68.9092
68.9015
68.8937
68.886
68.8783
68.8705
68.8628
68.855
68.8472
68.8395
68.8317
68.8239
68.8161
68.8082
68.8004
68.7926
68.7847
68.7769
68.769
68.7611
68.7532
68.7453
68.7374
68.7295
68.7215
68.7136
68.7057
68.6977
68.6897
68.6817
68.6738
68.6658
68.6577
68.6497
68.6417
68.6336
68.6256
68.6175
68.6094
68.6014
68.5933
68.5852
68.577
68.5689
68.5608
68.5526
68.5444
68.5363
68.5281
68.5199
68.5117
68.5035
68.4952
68.487
68.4787
68.4705
68.4622
68.4539
68.4456
68.4373
68.429
68.4206
68.4123
68.4039
68.3956
68.3872
68.3788
68.3704
68.362
68.3535
68.3451
68.3366
68.3281
68.3197
68.3112
68.3027
68.2941
68.2856
68.277
68.2685
68.2599
68.2513
68.2427
68.2341
68.2255
68.2168
68.2082
68.1995
68.1908
68.1821
68.1734
68.1646
68.1559
68.1471
68.1383
68.1295
68.1207
68.1118
68.103
68.0941
68.0852
68.0762
68.0673
68.0583
68.0492
68.0402
68.031
68.0219
68.0127
68.0034
67.9941
67.9847
67.9753
67.9657
67.9561
67.9463
67.9365
67.9265
67.9164
67.9061
67.8956
67.8849
67.874
67.8628
67.8513
67.8395
67.8274
67.8149
67.8019
67.7885
67.7746
67.76
67.7449
67.729
67.7124
67.6949
67.6766
67.6572
67.6368
67.6153
67.5925
67.5684
67.5429
67.5159
67.4872
67.4568
67.4246
67.3905
67.3543
67.3159
67.2753
67.2323
67.1869
67.1389
67.0883
67.0349
66.9787
66.9196
66.8576
66.7925
66.7244
66.6532
66.5789
66.5014
66.4209
66.3372
66.2505
66.1607
66.0681
65.9725
65.8742
65.7732
65.6697
65.5638
65.4557
65.3455
65.2334
65.1197
65.0044
64.8879
64.7703
64.6519
64.5329
64.4136
64.2941
64.1747
64.0557
63.9372
63.8195
63.7029
63.5874
63.4734
63.3609
63.2503
63.1416
63.035
62.9306
62.8286
62.729
62.632
62.5376
62.4459
62.357
62.2708
62.1874
62.1068
62.0289
61.9539
61.8815
61.8118
61.7448
61.6803
61.6183
61.5587
61.5015
61.4466
61.3938
61.3431
61.2943
61.2475
61.2025
61.1591
61.1174
61.0772
61.0384
61.001
60.9648
60.9298
60.8959
60.863
60.8311
60.8
60.7698
60.7403
60.7115
60.6833
60.6558
60.6288
60.6023
60.5762
60.5506
60.5254
60.5005
60.476
60.4517
60.4278
60.4041
60.3806
60.3574
60.3344
60.3115
60.2888
60.2663
60.2439
60.2217
60.1995
60.1775
60.1556
60.1338
60.1121
60.0905
60.0689
60.0474
60.026
60.0047
59.9834
59.9622
59.941
59.9198
59.8987
59.8777
59.8567
59.8357
59.8147
59.7938
59.7729
59.7521
59.7312
59.7104
59.6896
59.6688
59.648
59.6273
59.6065
59.5858
59.565
59.5443
59.5235
59.5028
59.4821
59.4613
59.4406
59.4199
59.3991
59.3784
59.3576
59.3368
59.316
59.2953
59.2744
59.2536
59.2328
59.2119
59.191
59.1701
59.1492
59.1282
59.1073
59.0863
59.0653
59.0442
59.0231
59.002
58.9809
58.9597
58.9385
58.9172
58.8959
58.8746
58.8533
58.8319
58.8104
58.789
58.7674
58.7459
58.7242
58.7026
58.6809
58.6591
58.6373
58.6154
58.5935
58.5716
58.5495
58.5274
58.5053
58.4831
58.4608
58.4385
58.4161
58.3937
58.3712
58.3486
58.3259
58.3032
58.2804
58.2575
58.2346
58.2116
58.1885
58.1652
58.142
58.119
58.119
69.5309
69.5309
69.3034
69.2543
69.2315
69.2156
69.2036
69.1946
69.1878
69.1819
69.1762
69.1702
69.1638
69.1572
69.1503
69.1432
69.136
69.1287
69.1213
69.1139
69.1064
69.099
69.0915
69.084
69.0765
69.069
69.0615
69.0539
69.0464
69.0388
69.0313
69.0237
69.0161
69.0086
69.001
68.9934
68.9858
68.9781
68.9705
68.9629
68.9552
68.9476
68.9399
68.9322
68.9246
68.9169
68.9092
68.9015
68.8937
68.886
68.8783
68.8705
68.8628
68.855
68.8472
68.8395
68.8317
68.8239
68.8161
68.8082
68.8004
68.7926
68.7847
68.7768
68.769
68.7611
68.7532
68.7453
68.7374
68.7295
68.7215
68.7136
68.7057
68.6977
68.6897
68.6817
68.6738
68.6658
68.6577
68.6497
68.6417
68.6336
68.6256
68.6175
68.6094
68.6014
68.5933
68.5852
68.577
68.5689
68.5608
68.5526
68.5444
68.5363
68.5281
68.5199
68.5117
68.5035
68.4952
68.487
68.4787
68.4705
68.4622
68.4539
68.4456
68.4373
68.429
68.4206
68.4123
68.4039
68.3956
68.3872
68.3788
68.3704
68.3619
68.3535
68.3451
68.3366
68.3281
68.3197
68.3112
68.3027
68.2941
68.2856
68.277
68.2685
68.2599
68.2513
68.2427
68.2341
68.2255
68.2168
68.2082
68.1995
68.1908
68.1821
68.1734
68.1646
68.1559
68.1471
68.1383
68.1295
68.1207
68.1118
68.103
68.0941
68.0852
68.0762
68.0673
68.0583
68.0492
68.0401
68.031
68.0219
68.0127
68.0034
67.9941
67.9847
67.9753
67.9657
67.9561
67.9463
67.9365
67.9265
67.9164
67.9061
67.8956
67.8849
67.874
67.8628
67.8513
67.8395
67.8274
67.8149
67.8019
67.7885
67.7745
67.76
67.7448
67.729
67.7123
67.6949
67.6765
67.6572
67.6368
67.6153
67.5925
67.5684
67.5429
67.5158
67.4872
67.4568
67.4246
67.3904
67.3542
67.3159
67.2753
67.2323
67.1869
67.1389
67.0882
67.0349
66.9787
66.9196
66.8575
66.7925
66.7243
66.6531
66.5788
66.5014
66.4208
66.3371
66.2504
66.1607
66.068
65.9725
65.8741
65.7732
65.6697
65.5638
65.4556
65.3455
65.2334
65.1196
65.0044
64.8879
64.7703
64.6519
64.5329
64.4136
64.2941
64.1747
64.0557
63.9372
63.8195
63.7029
63.5874
63.4734
63.3609
63.2503
63.1416
63.035
62.9306
62.8286
62.729
62.632
62.5376
62.446
62.357
62.2708
62.1874
62.1068
62.029
61.9539
61.8815
61.8118
61.7448
61.6803
61.6183
61.5588
61.5015
61.4466
61.3938
61.3431
61.2944
61.2475
61.2025
61.1592
61.1174
61.0772
61.0384
61.001
60.9648
60.9298
60.8959
60.863
60.8311
60.8
60.7698
60.7403
60.7115
60.6833
60.6558
60.6288
60.6023
60.5762
60.5506
60.5254
60.5005
60.476
60.4517
60.4278
60.4041
60.3806
60.3574
60.3344
60.3115
60.2888
60.2663
60.2439
60.2217
60.1995
60.1775
60.1556
60.1338
60.1121
60.0905
60.0689
60.0474
60.026
60.0047
59.9834
59.9621
59.941
59.9198
59.8987
59.8777
59.8567
59.8357
59.8147
59.7938
59.7729
59.7521
59.7312
59.7104
59.6896
59.6688
59.648
59.6273
59.6065
59.5857
59.565
59.5443
59.5235
59.5028
59.4821
59.4613
59.4406
59.4199
59.3991
59.3784
59.3576
59.3368
59.316
59.2952
59.2744
59.2536
59.2328
59.2119
59.191
59.1701
59.1492
59.1282
59.1073
59.0863
59.0652
59.0442
59.0231
59.002
58.9809
58.9597
58.9385
58.9172
58.8959
58.8746
58.8533
58.8319
58.8104
58.7889
58.7674
58.7458
58.7242
58.7026
58.6809
58.6591
58.6373
58.6154
58.5935
58.5715
58.5495
58.5274
58.5053
58.4831
58.4608
58.4385
58.4161
58.3937
58.3712
58.3486
58.3259
58.3032
58.2804
58.2575
58.2346
58.2116
58.1885
58.1652
58.142
58.119
58.119
69.5169
69.5169
69.306
69.2554
69.2321
69.216
69.2038
69.1947
69.1879
69.1819
69.1762
69.1702
69.1638
69.1572
69.1503
69.1432
69.136
69.1287
69.1213
69.1139
69.1064
69.099
69.0915
69.084
69.0765
69.069
69.0615
69.0539
69.0464
69.0388
69.0313
69.0237
69.0161
69.0086
69.001
68.9934
68.9858
68.9781
68.9705
68.9629
68.9552
68.9476
68.9399
68.9322
68.9246
68.9169
68.9092
68.9015
68.8937
68.886
68.8783
68.8705
68.8628
68.855
68.8472
68.8395
68.8317
68.8239
68.8161
68.8082
68.8004
68.7926
68.7847
68.7768
68.769
68.7611
68.7532
68.7453
68.7374
68.7295
68.7215
68.7136
68.7057
68.6977
68.6897
68.6817
68.6737
68.6657
68.6577
68.6497
68.6417
68.6336
68.6256
68.6175
68.6094
68.6014
68.5933
68.5851
68.577
68.5689
68.5608
68.5526
68.5444
68.5363
68.5281
68.5199
68.5117
68.5035
68.4952
68.487
68.4787
68.4705
68.4622
68.4539
68.4456
68.4373
68.429
68.4206
68.4123
68.4039
68.3956
68.3872
68.3788
68.3704
68.3619
68.3535
68.3451
68.3366
68.3281
68.3197
68.3112
68.3026
68.2941
68.2856
68.277
68.2685
68.2599
68.2513
68.2427