# vtk DataFile Version 2.0
FlowField
ASCII
DATASET STRUCTURED_GRID
DIMENSIONS 400 1 200
POINTS 80000 float
0 0 0
0.08 0 0
0.16 0 0
0.24 0 0
0.32 0 0
0.4 0 0
0.48 0 0
0.56 0 0
0.64 0 0
0.72 0 0
0.8 0 0
0.88 0 0
0.96 0 0
1.04 0 0
1.12 0 0
1.2 0 0
1.28 0 0
1.36 0 0
1.44 0 0
1.52 0 0
1.6 0 0
1.68 0 0
1.76 0 0
1.84 0 0
1.92 0 0
2 0 0
2.08 0 0
2.16 0 0
2.24 0 0
2.32 0 0
2.4 0 0
2.48 0 0
2.56 0 0
2.64 0 0
2.72 0 0
2.8 0 0
2.88 0 0
2.96 0 0
3.04 0 0
3.12 0 0
3.2 0 0
3.28 0 0
3.36 0 0
3.44 0 0
3.52 0 0
3.6 0 0
3.68 0 0
3.76 0 0
3.84 0 0
3.92 0 0
4 0 0
4.08 0 0
4.16 0 0
4.24 0 0
4.32 0 0
4.4 0 0
4.48 0 0
4.56 0 0
4.64 0 0
4.72 0 0
4.8 0 0
4.88 0 0
4.96 0 0
5.04 0 0
5.12 0 0
5.2 0 0
5.28 0 0
5.36 0 0
5.44 0 0
5.52 0 0
5.6 0 0
5.68 0 0
5.76 0 0
5.84 0 0
5.92 0 0
6 0 0
6.08 0 0
6.16 0 0
6.24 0 0
6.32 0 0
6.4 0 0
6.48 0 0
6.56 0 0
6.64 0 0
6.72 0 0
6.8 0 0
6.88 0 0
6.96 0 0
7.04 0 0
7.12 0 0
7.2 0 0
7.28 0 0
7.36 0 0
7.44 0 0
7.52 0 0
7.6 0 0
7.68 0 0
7.76 0 0
7.84 0 0
7.92 0 0
8 0 0
8.08 0 0
8.16 0 0
8.24 0 0
8.32 0 0
8.4 0 0
8.48 0 0
8.56 0 0
8.64 0 0
8.72 0 0
8.8 0 0
8.88 0 0
8.96 0 0
9.04 0 0
9.12 0 0
9.2 0 0
9.28 0 0
9.36 0 0
9.44 0 0
9.52 0 0
9.6 0 0
9.68 0 0
9.76 0 0
9.84 0 0
9.92 0 0
10 0 0
10.08 0 0
10.16 0 0
10.24 0 0
10.32 0 0
10.4 0 0
10.48 0 0
10.56 0 0
10.64 0 0
10.72 0 0
10.8 0 0
10.88 0 0
10.96 0 0
11.04 0 0
11.12 0 0
11.2 0 0
11.28 0 0
11.36 0 0
11.44 0 0
11.52 0 0
11.6 0 0
11.68 0 0
11.76 0 0
11.84 0 0
11.92 0 0
12 0 0
12.08 0 0
12.16 0 0
12.24 0 0
12.32 0 0
12.4 0 0
12.48 0 0
12.56 0 0
12.64 0 0
12.72 0 0
12.8 0 0
12.88 0 0
12.96 0 0
13.04 0 0
13.12 0 0
13.2 0 0
13.28 0 0
13.36 0 0
13.44 0 0
13.52 0 0
13.6 0 0
13.68 0 0
13.76 0 0
13.84 0 0
13.92 0 0
14 0 0
14.08 0 0
14.16 0 0
14.24 0 0
14.32 0 0
14.4 0 0
14.48 0 0
14.56 0 0
14.64 0 0
14.72 0 0
14.8 0 0
14.88 0 0
14.96 0 0
15.04 0 0
15.12 0 0
15.2 0 0
15.28 0 0
15.36 0 0
15.44 0 0
15.52 0 0
15.6 0 0
15.68 0 0
15.76 0 0
15.84 0 0
15.92 0 0
16 0 0
16.08 0 0
16.16 0 0
16.24 0 0
16.32 0 0
16.4 0 0
16.48 0 0
16.56 0 0
16.64 0 0
16.72 0 0
16.8 0 0
16.88 0 0
16.96 0 0
17.04 0 0
17.12 0 0
17.2 0 0
17.28 0 0
17.36 0 0
17.44 0 0
17.52 0 0
17.6 0 0
17.68 0 0
17.76 0 0
17.84 0 0
17.92 0 0
18 0 0
18.08 0 0
18.16 0 0
18.24 0 0
18.32 0 0
18.4 0 0
18.48 0 0
18.56 0 0
18.64 0 0
18.72 0 0
18.8 0 0
18.88 0 0
18.96 0 0
19.04 0 0
19.12 0 0
19.2 0 0
19.28 0 0
19.36 0 0
19.44 0 0
19.52 0 0
19.6 0 0
19.68 0 0
19.76 0 0
19.84 0 0
19.92 0 0
20 0 0
20.08 0 0
20.16 0 0
20.24 0 0
20.32 0 0
20.4 0 0
20.48 0 0
20.56 0 0
20.64 0 0
20.72 0 0
20.8 0 0
20.88 0 0
20.96 0 0
21.04 0 0
21.12 0 0
21.2 0 0
21.28 0 0
21.36 0 0
21.44 0 0
21.52 0 0
21.6 0 0
21.68 0 0
21.76 0 0
21.84 0 0
21.92 0 0
22 0 0
22.08 0 0
22.16 0 0
22.24 0 0
22.32 0 0
22.4 0 0
22.48 0 0
22.56 0 0
22.64 0 0
22.72 0 0
22.8 0 0
22.88 0 0
22.96 0 0
23.04 0 0
23.12 0 0
23.2 0 0
23.28 0 0
23.36 0 0
23.44 0 0
23.52 0 0
23.6 0 0
23.68 0 0
23.76 0 0
23.84 0 0
23.92 0 0
24 0 0
24.08 0 0
24.16 0 0
24.24 0 0
24.32 0 0
24.4 0 0
24.48 0 0
24.56 0 0
24.64 0 0
24.72 0 0
24.8 0 0
24.88 0 0
24.96 0 0
25.04 0 0
25.12 0 0
25.2 0 0
25.28 0 0
25.36 0 0
25.44 0 0
25.52 0 0
25.6 0 0
25.68 0 0
25.76 0 0
25.84 0 0
25.92 0 0
26 0 0
26.08 0 0
26.16 0 0
26.24 0 0
26.32 0 0
26.4 0 0
26.48 0 0
26.56 0 0
26.64 0 0
26.72 0 0
26.8 0 0
26.88 0 0
26.96 0 0
27.04 0 0
27.12 0 0
27.2 0 0
27.28 0 0
27.36 0 0
27.44 0 0
27.52 0 0
27.6 0 0
27.68 0 0
27.76 0 0
27.84 0 0
27.92 0 0
28 0 0
28.08 0 0
28.16 0 0
28.24 0 0
28.32 0 0
28.4 0 0
28.48 0 0
28.56 0 0
28.64 0 0
28.72 0 0
28.8 0 0
28.88 0 0
28.96 0 0
29.04 0 0
29.12 0 0
29.2 0 0
29.28 0 0
29.36 0 0
29.44 0 0
29.52 0 0
29.6 0 0
29.68 0 0
29.76 0 0
29.84 0 0
29.92 0 0
30 0 0
30.08 0 0
30.16 0 0
30.24 0 0
30.32 0 0
30.4 0 0
30.48 0 0
30.56 0 0
30.64 0 0
30.72 0 0
30.8 0 0
30.88 0 0
30.96 0 0
31.04 0 0
31.12 0 0
31.2 0 0
31.28 0 0
31.36 0 0
31.44 0 0
31.52 0 0
31.6 0 0
31.68 0 0
31.76 0 0
31.84 0 0
31.92 0 0
0 0.005 0
0.08 0.005 0
0.16 0.005 0
0.24 0.005 0
0.32 0.005 0
0.4 0.005 0
0.48 0.005 0
0.56 0.005 0
0.64 0.005 0
0.72 0.005 0
0.8 0.005 0
0.88 0.005 0
0.96 0.005 0
1.04 0.005 0
1.12 0.005 0
1.2 0.005 0
1.28 0.005 0
1.36 0.005 0
1.44 0.005 0
1.52 0.005 0
1.6 0.005 0
1.68 0.005 0
1.76 0.005 0
1.84 0.005 0
1.92 0.005 0
2 0.005 0
2.08 0.005 0
2.16 0.005 0
2.24 0.005 0
2.32 0.005 0
2.4 0.005 0
2.48 0.005 0
2.56 0.005 0
2.64 0.005 0
2.72 0.005 0
2.8 0.005 0
2.88 0.005 0
2.96 0.005 0
3.04 0.005 0
3.12 0.005 0
3.2 0.005 0
3.28 0.005 0
3.36 0.005 0
3.44 0.005 0
3.52 0.005 0
3.6 0.005 0
3.68 0.005 0
3.76 0.005 0
3.84 0.005 0
3.92 0.005 0
4 0.005 0
4.08 0.005 0
4.16 0.005 0
4.24 0.005 0
4.32 0.005 0
4.4 0.005 0
4.48 0.005 0
4.56 0.005 0
4.64 0.005 0
4.72 0.005 0
4.8 0.005 0
4.88 0.005 0
4.96 0.005 0
5.04 0.005 0
5.12 0.005 0
5.2 0.005 0
5.28 0.005 0
5.36 0.005 0
5.44 0.005 0
5.52 0.005 0
5.6 0.005 0
5.68 0.005 0
5.76 0.005 0
5.84 0.005 0
5.92 0.005 0
6 0.005 0
6.08 0.005 0
6.16 0.005 0
6.24 0.005 0
6.32 0.005 0
6.4 0.005 0
6.48 0.005 0
6.56 0.005 0
6.64 0.005 0
6.72 0.005 0
6.8 0.005 0
6.88 0.005 0
6.96 0.005 0
7.04 0.005 0
7.12 0.005 0
7.2 0.005 0
7.28 0.005 0
7.36 0.005 0
7.44 0.005 0
7.52 0.005 0
7.6 0.005 0
7.68 0.005 0
7.76 0.005 0
7.84 0.005 0
7.92 0.005 0
8 0.005 0
8.08 0.005 0
8.16 0.005 0
8.24 0.005 0
8.32 0.005 0
8.4 0.005 0
8.48 0.005 0
8.56 0.005 0
8.64 0.005 0
8.72 0.005 0
8.8 0.005 0
8.88 0.005 0
8.96 0.005 0
9.04 0.005 0
9.12 0.005 0
9.2 0.005 0
9.28 0.005 0
9.36 0.005 0
9.44 0.005 0
9.52 0.005 0
9.6 0.005 0
9.68 0.005 0
9.76 0.005 0
9.84 0.005 0
9.92 0.005 0
10 0.005 0
10.08 0.005 0
10.16 0.005 0
10.24 0.005 0
10.32 0.005 0
10.4 0.005 0
10.48 0.005 0
10.56 0.005 0
10.64 0.005 0
10.72 0.005 0
10.8 0.005 0
10.88 0.005 0
10.96 0.005 0
11.04 0.005 0
11.12 0.005 0
11.2 0.005 0
11.28 0.005 0
11.36 0.005 0
11.44 0.005 0
11.52 0.005 0
11.6 0.005 0
11.68 0.005 0
11.76 0.005 0
11.84 0.005 0
11.92 0.005 0
12 0.005 0
12.08 0.005 0
12.16 0.005 0
12.24 0.005 0
12.32 0.005 0
12.4 0.005 0
12.48 0.005 0
12.56 0.005 0
12.64 0.005 0
12.72 0.005 0
12.8 0.005 0
12.88 0.005 0
12.96 0.005 0
13.04 0.005 0
13.12 0.005 0
13.2 0.005 0
13.28 0.005 0
13.36 0.005 0
13.44 0.005 0
13.52 0.005 0
13.6 0.005 0
13.68 0.005 0
13.76 0.005 0
13.84 0.005 0
13.92 0.005 0
14 0.005 0
14.08 0.005 0
14.16 0.005 0
14.24 0.005 0
14.32 0.005 0
14.4 0.005 0
14.48 0.005 0
14.56 0.005 0
14.64 0.005 0
14.72 0.005 0
14.8 0.005 0
14.88 0.005 0
14.96 0.005 0
15.04 0.005 0
15.12 0.005 0
15.2 0.005 0
15.28 0.005 0
15.36 0.005 0
15.44 0.005 0
15.52 0.005 0
15.6 0.005 0
15.68 0.005 0
15.76 0.005 0
15.84 0.005 0
15.92 0.005 0
16 0.005 0
16.08 0.005 0
16.16 0.005 0
16.24 0.005 0
16.32 0.005 0
16.4 0.005 0
16.48 0.005 0
16.56 0.005 0
16.64 0.005 0
16.72 0.005 0
16.8 0.005 0
16.88 0.005 0
16.96 0.005 0
17.04 0.005 0
17.12 0.005 0
17.2 0.005 0
17.28 0.005 0
17.36 0.005 0
17.44 0.005 0
17.52 0.005 0
17.6 0.005 0
17.68 0.005 0
17.76 0.005 0
17.84 0.005 0
17.92 0.005 0
18 0.005 0
18.08 0.005 0
18.16 0.005 0
18.24 0.005 0
18.32 0.005 0
18.4 0.005 0
18.48 0.005 0
18.56 0.005 0
18.64 0.005 0
18.72 0.005 0
18.8 0.005 0
18.88 0.005 0
18.96 0.005 0
19.04 0.005 0
19.12 0.005 0
19.2 0.005 0
19.28 0.005 0
19.36 0.005 0
19.44 0.005 0
19.52 0.005 0
19.6 0.005 0
19.68 0.005 0
19.76 0.005 0
19.84 0.005 0
19.92 0.005 0
20 0.005 0
20.08 0.005 0
20.16 0.005 0
20.24 0.005 0
20.32 0.005 0
20.4 0.005 0
20.48 0.005 0
20.56 0.005 0
20.64 0.005 0
20.72 0.005 0
20.8 0.005 0
20.88 0.005 0
20.96 0.005 0
21.04 0.005 0
21.12 0.005 0
21.2 0.005 0
21.28 0.005 0
21.36 0.005 0
21.44 0.005 0
21.52 0.005 0
21.6 0.005 0
21.68 0.005 0
21.76 0.005 0
21.84 0.005 0
21.92 0.005 0
22 0.005 0
22.08 0.005 0
22.16 0.005 0
22.24 0.005 0
22.32 0.005 0
22.4 0.005 0
22.48 0.005 0
22.56 0.005 0
22.64 0.005 0
22.72 0.005 0
22.8 0.005 0
22.88 0.005 0
22.96 0.005 0
23.04 0.005 0
23.12 0.005 0
23.2 0.005 0
23.28 0.005 0
23.36 0.005 0
23.44 0.005 0
23.52 0.005 0
23.6 0.005 0
23.68 0.005 0
23.76 0.005 0
23.84 0.005 0
23.92 0.005 0
24 0.005 0
24.08 0.005 0
24.16 0.005 0
24.24 0.005 0
24.32 0.005 0
24.4 0.005 0
24.48 0.005 0
24.56 0.005 0
24.64 0.005 0
24.72 0.005 0
24.8 0.005 0
24.88 0.005 0
24.96 0.005 0
25.04 0.005 0
25.12 0.005 0
25.2 0.005 0
25.28 0.005 0
25.36 0.005 0
25.44 0.005 0
25.52 0.005 0
25.6 0.005 0
25.68 0.005 0
25.76 0.005 0
25.84 0.005 0
25.92 0.005 0
26 0.005 0
26.08 0.005 0
26.16 0.005 0
26.24 0.005 0
26.32 0.005 0
26.4 0.005 0
26.48 0.005 0
26.56 0.005 0
26.64 0.005 0
26.72 0.005 0
26.8 0.005 0
26.88 0.005 0
26.96 0.005 0
27.04 0.005 0
27.12 0.005 0
27.2 0.005 0
27.28 0.005 0
27.36 0.005 0
27.44 0.005 0
27.52 0.005 0
27.6 0.005 0
27.68 0.005 0
27.76 0.005 0
27.84 0.005 0
27.92 0.005 0
28 0.005 0
28.08 0.005 0
28.16 0.005 0
28.24 0.005 0
28.32 0.005 0
28.4 0.005 0
28.48 0.005 0
28.56 0.005 0
28.64 0.005 0
28.72 0.005 0
28.8 0.005 0
28.88 0.005 0
28.96 0.005 0
29.04 0.005 0
29.12 0.005 0
29.2 0.005 0
29.28 0.005 0
29.36 0.005 0
29.44 0.005 0
29.52 0.005 0
29.6 0.005 0
29.68 0.005 0
29.76 0.005 0
29.84 0.005 0
29.92 0.005 0
30 0.005 0
30.08 0.005 0
30.16 0.005 0
30.24 0.005 0
30.32 0.005 0
30.4 0.005 0
30.48 0.005 0
30.56 0.005 0
30.64 0.005 0
30.72 0.005 0
30.8 0.005 0
30.88 0.005 0
30.96 0.005 0
31.04 0.005 0
31.12 0.005 0
31.2 0.005 0
31.28 0.005 0
31.36 0.005 0
31.44 0.005 0
31.52 0.005 0
31.6 0.005 0
31.68 0.005 0
31.76 0.005 0
31.84 0.005 0
31.92 0.005 0
0 0.01 0
0.08 0.01 0
0.16 0.01 0
0.24 0.01 0
0.32 0.01 0
0.4 0.01 0
0.48 0.01 0
0.56 0.01 0
0.64 0.01 0
0.72 0.01 0
0.8 0.01 0
0.88 0.01 0
0.96 0.01 0
1.04 0.01 0
1.12 0.01 0
1.2 0.01 0
1.28 0.01 0
1.36 0.01 0
1.44 0.01 0
1.52 0.01 0
1.6 0.01 0
1.68 0.01 0
1.76 0.01 0
1.84 0.01 0
1.92 0.01 0
2 0.01 0
2.08 0.01 0
2.16 0.01 0
2.24 0.01 0
2.32 0.01 0
2.4 0.01 0
2.48 0.01 0
2.56 0.01 0
2.64 0.01 0
2.72 0.01 0
2.8 0.01 0
2.88 0.01 0
2.96 0.01 0
3.04 0.01 0
3.12 0.01 0
3.2 0.01 0
3.28 0.01 0
3.36 0.01 0
3.44 0.01 0
3.52 0.01 0
3.6 0.01 0
3.68 0.01 0
3.76 0.01 0
3.84 0.01 0
3.92 0.01 0
4 0.01 0
4.08 0.01 0
4.16 0.01 0
4.24 0.01 0
4.32 0.01 0
4.4 0.01 0
4.48 0.01 0
4.56 0.01 0
4.64 0.01 0
4.72 0.01 0
4.8 0.01 0
4.88 0.01 0
4.96 0.01 0
5.04 0.01 0
5.12 0.01 0
[...]
POINT_DATA 80000

SCALARS v float 1
LOOKUP_TABLE default
0
0
0
0
0
0
0
0
0
0
0
0
0
0
0
0
0
0
0
0
0
0
0
0
0
0
0
0
0
0
0
0
0
0
0
0
0
0
0
0
0
0
0
0
0
0
0
0
0
0
0
0
0
0
0
0
0
0
0
0
0
0
0
0
0
0
0
0
0
0
0
0
0
0
0
0
0
0
0
0
0
0
0
0
0
0
0
0
0
0
0
0
0
0
0
0
0
0
0
0
0
0
0
0
0
0
0
0
0
0
0
0
0
0
0
0
0
0
0
0
0
0
0
0
0
0
0
0
0
0
0
0
0
0
0
0
0
0
0
0
0
0
0
0
0
0
0
0
0
0
0
0
0
0
0
0
0
0
0
0
0
0
0
0
0
0
0
0
0
0
0
0
0
0
0
0
0
0
0
0
0
0
0
0
0
0
0
0
0
0
0
0
0
0
0
0
0
0
0
0
0
0
0
0
0
0
0
0
0
0
0
0
0
0
0
0
0
0
0
0
0
0
0
0
0
0
0
0
0
0
0
0
0
0
0
0
0
0
0
0
0
0
0
0
0
0
0
0
0
0
0
0
0
0
0
0
0
0
0
0
0
0
0
0
0
0
0
0
0
0
0
0
0
0
0
0
0
0
0
0
0
0
0
0
0
0
0
0
0
0
0
0
0
0
0
0
0
0
0
0
0
0
0
0
0
0
0
0
0
0
0
0
0
0
0
0
0
0
0
0
0
0
0
0
0
0
0
0
0
0
0
0
0
0
0
0
0
0
0
0
0
0
0
0
0
0
0
0
0
0
0
0
0
0
0
0
0
0
0
0
0
0
0
0
0
0
0
0
0
0
0
0
0
0
0
0
0
0
0
0
0
0
0
0
0
0
0
0
0
0
0
0
0
0
0
0
0
0
0
0
-0.0542495
0.0542495
0.00394777
0.000942104
0.000357796
0.000118577
2.13894e-05
-1.10101e-05
-1.95204e-05
-2.0999e-05
-2.08094e-05
-2.03599e-05
-1.99682e-05
-1.96843e-05
-1.94979e-05
-1.93868e-05
-1.93312e-05
-1.93146e-05
-1.93256e-05
-1.93549e-05
-1.93972e-05
-1.94478e-05
-1.95044e-05
-1.95648e-05
-1.96282e-05
-1.96933e-05
-1.97602e-05
-1.9828e-05
-1.9897e-05
-1.99666e-05
-2.00372e-05
-2.01082e-05
-2.01801e-05
-2.02524e-05
-2.03257e-05
-2.03993e-05
-2.04739e-05
-2.05489e-05
-2.06249e-05
-2.07013e-05
-2.07787e-05
-2.08566e-05
-2.09356e-05
-2.10151e-05
-2.10957e-05
-2.11769e-05
-2.12593e-05
-2.13422e-05
-2.14264e-05
-2.15112e-05
-2.15972e-05
-2.1684e-05
-2.17719e-05
-2.18606e-05
-2.19505e-05
-2.20411e-05
-2.2133e-05
-2.22256e-05
-2.23194e-05
-2.24138e-05
-2.25095e-05
-2.26057e-05
-2.27031e-05
-2.28011e-05
-2.29002e-05
-2.29997e-05
-2.31004e-05
-2.32014e-05
-2.33034e-05
-2.34058e-05
-2.35092e-05
-2.36129e-05
-2.37174e-05
-2.38223e-05
-2.39281e-05
-2.40341e-05
-2.4141e-05
-2.42482e-05
-2.43562e-05
-2.44646e-05
-2.45739e-05
-2.46836e-05
-2.47942e-05
-2.49053e-05
-2.50174e-05
-2.51301e-05
-2.52439e-05
-2.53583e-05
-2.5474e-05
-2.55903e-05
-2.57081e-05
-2.58266e-05
-2.59466e-05
-2.60675e-05
-2.619e-05
-2.63135e-05
-2.64386e-05
-2.65648e-05
-2.66927e-05
-2.68219e-05
-2.69528e-05
-2.70849e-05
-2.72189e-05
-2.73541e-05
-2.74913e-05
-2.76297e-05
-2.77701e-05
-2.79119e-05
-2.80556e-05
-2.82007e-05
-2.83478e-05
-2.84963e-05
-2.86468e-05
-2.87988e-05
-2.89528e-05
-2.91083e-05
-2.92659e-05
-2.94251e-05
-2.95864e-05
-2.97492e-05
-2.99143e-05
-3.0081e-05
-3.025e-05
-3.04207e-05
-3.05938e-05
-3.07686e-05
-3.09459e-05
-3.11251e-05
-3.13068e-05
-3.14905e-05
-3.16769e-05
-3.18653e-05
-3.20565e-05
-3.22498e-05
-3.2446e-05
-3.26445e-05
-3.28459e-05
-3.30498e-05
-3.32567e-05
-3.34661e-05
-3.36787e-05
-3.38939e-05
-3.41124e-05
-3.43336e-05
-3.45581e-05
-3.47856e-05
-3.50165e-05
-3.52503e-05
-3.54877e-05
-3.57282e-05
-3.59724e-05
-3.62198e-05
-3.64709e-05
-3.67254e-05
-3.69838e-05
-3.72455e-05
-3.75114e-05
-3.77807e-05
-3.80543e-05
-3.83315e-05
-3.86131e-05
-3.88984e-05
-3.91883e-05
-3.94822e-05
-3.97807e-05
-4.00833e-05
-4.03909e-05
-4.07028e-05
-4.10197e-05
-4.13413e-05
-4.16681e-05
-4.19998e-05
-4.2337e-05
-4.26793e-05
-4.30274e-05
-4.33809e-05
-4.37405e-05
-4.41057e-05
-4.44773e-05
-4.48549e-05
-4.52392e-05
-4.56298e-05
-4.60274e-05
-4.64317e-05
-4.68434e-05
-4.72621e-05
-4.76886e-05
-4.81224e-05
-4.85645e-05
-4.90143e-05
-4.94727e-05
-4.99393e-05
-5.04149e-05
-5.08993e-05
-5.13931e-05
-5.18961e-05
-5.24091e-05
-5.29317e-05
-5.3465e-05
-5.40085e-05
-5.45632e-05
-5.51287e-05
-5.57061e-05
-5.6295e-05
-5.68963e-05
-5.751e-05
-5.81369e-05
-5.87769e-05
-5.94309e-05
-6.00989e-05
-6.07818e-05
-6.14795e-05
-6.21932e-05
-6.29228e-05
-6.36693e-05
-6.44328e-05
-6.52145e-05
-6.60143e-05
-6.68335e-05
-6.76722e-05
-6.85318e-05
-6.94122e-05
-7.0315e-05
-7.12403e-05
-7.21896e-05
-7.31632e-05
-7.41626e-05
-7.51883e-05
-7.62419e-05
-7.73238e-05
-7.84359e-05
-7.95788e-05
-8.07543e-05
-8.19633e-05
-8.32079e-05
-8.44889e-05
-8.58086e-05
-8.71681e-05
-8.857e-05
-9.00155e-05
-9.15074e-05
-9.30474e-05
-9.46385e-05
-9.62826e-05
-9.79832e-05
-9.97427e-05
-0.000101565
-0.000103453
-0.000105411
-0.000107443
-0.000109554
-0.000111749
-0.000114033
-0.000116413
-0.000118896
-0.000121489
-0.000124201
-0.000127043
-0.000130024
-0.000133159
-0.000136461
-0.000139948
-0.000143637
-0.000147552
-0.000151717
-0.00015616
-0.000160917
-0.000166024
-0.000171527
-0.000177476
-0.000183931
-0.000190956
-0.000198631
-0.000207042
-0.000216289
-0.000226485
-0.000237757
-0.000250248
-0.000264118
-0.000279547
-0.000296732
-0.00031589
-0.00033726
-0.000361103
-0.000387698
-0.000417346
-0.00045037
-0.000487106
-0.00052791
-0.000573146
-0.00062319
-0.00067842
-0.000739212
-0.000805931
-0.000878929
-0.000958529
-0.00104502
-0.00113865
-0.0012396
-0.001348
-0.00146388
-0.00158719
-0.00171779
-0.00185541
-0.00199967
-0.00215005
-0.0023059
-0.00246644
-0.00263073
-0.00279771
-0.00296619
-0.00313484
-0.00330225
-0.00346689
-0.00362718
-0.00378149
-0.00392815
-0.00406554
-0.00419203
-0.00430611
-0.00440635
-0.00449147
-0.00456033
-0.00461201
-0.00464578
-0.00466115
-0.00465786
-0.0046359
-0.00459553
-0.00453721
-0.00446166
-0.00436979
-0.00426272
-0.00414173
-0.00400824
-0.00386375
-0.00370989
-0.00354827
-0.00338058
-0.00320844
-0.00303347
-0.00285719
-0.00268106
-0.00250642
-0.00233451
-0.00216643
-0.00200314
-0.00184548
-0.00169415
-0.00154971
-0.00141258
-0.00128307
-0.00116139
-0.00104761
-0.000941728
-0.000843657
-0.00075323
-0.000670221
-0.000594353
-0.000525307
-0.000462733
-0.000406258
-0.000355494
-0.000310047
-0.000269521
-0.000233523
-0.000201671
-0.000173596
-0.000148943
-0.000127377
-0.00010858
-9.22581e-05
-7.81372e-05
-6.59645e-05
-5.55095e-05
-4.65617e-05
-3.89315e-05
-3.24475e-05
-2.69575e-05
-2.23248e-05
-1.84298e-05
-1.51659e-05
-1.24407e-05
-1.01727e-05
-8.29209e-06
-6.7375e-06
-5.45724e-06
-4.40593e-06
-3.54593e-06
-2.84424e-06
-2.27397e-06
-1.81141e-06
-1.43773e-06
-1.1361e-06
-8.93551e-07
-6.9822e-07
-5.41252e-07
-4.15426e-07
-3.28661e-07
-3.28661e-07
-0.0951757
0.0951757
0.0129576
0.0036559
0.00142622
0.000503049
0.000128658
2.20411e-06
-3.27564e-05
-4.01428e-05
-4.04829e-05
-3.93708e-05
-3.8197e-05
-3.72639e-05
-3.66e-05
-3.61606e-05
-3.58953e-05
-3.57553e-05
-3.57061e-05
-3.57182e-05
-3.57741e-05
-3.5858e-05
-3.59626e-05
-3.60796e-05
-3.62068e-05
-3.63394e-05
-3.64776e-05
-3.66183e-05
-3.67626e-05
-3.6908e-05
-3.70564e-05
-3.72052e-05
-3.73566e-05
-3.75082e-05
-3.76623e-05
-3.78166e-05
-3.79732e-05
-3.81301e-05
-3.82894e-05
-3.84489e-05
-3.86109e-05
-3.87732e-05
-3.8938e-05
-3.91032e-05
-3.92711e-05
-3.94394e-05
-3.96104e-05
-3.9782e-05
-3.99564e-05
-4.01314e-05
-4.03092e-05
-4.04878e-05
-4.06692e-05
-4.08514e-05
-4.10365e-05
-4.12224e-05
-4.14112e-05
-4.16009e-05
-4.17935e-05
-4.1987e-05
-4.21834e-05
-4.23806e-05
-4.25807e-05
-4.27815e-05
-4.29853e-05
-4.31898e-05
-4.33971e-05
-4.36052e-05
-4.3816e-05
-4.40275e-05
-4.42417e-05
-4.44566e-05
-4.46743e-05
-4.48925e-05
-4.51135e-05
-4.53351e-05
-4.55594e-05
-4.57844e-05
-4.60122e-05
-4.62406e-05
-4.64719e-05
-4.6704e-05
-4.6939e-05
-4.71748e-05
-4.74137e-05
-4.76535e-05
-4.78965e-05
-4.81406e-05
-4.8388e-05
-4.86366e-05
-4.88887e-05
-4.91421e-05
-4.93991e-05
-4.96576e-05
-4.99199e-05
-5.01838e-05
-5.04516e-05
-5.07212e-05
-5.09948e-05
-5.12703e-05
-5.155e-05
-5.18316e-05
-5.21175e-05
-5.24056e-05
-5.2698e-05
-5.29926e-05
-5.32917e-05
-5.35931e-05
-5.3899e-05
-5.42074e-05
-5.45204e-05
-5.48359e-05
-5.51561e-05
-5.54789e-05
-5.58065e-05
-5.61369e-05
-5.64722e-05
-5.68103e-05
-5.71534e-05
-5.74995e-05
-5.78508e-05
-5.82053e-05
-5.8565e-05
-5.8928e-05
-5.92965e-05
-5.96684e-05
-6.0046e-05
-6.04272e-05
-6.08143e-05
-6.12051e-05
-6.1602e-05
-6.20029e-05
-6.24101e-05
-6.28215e-05
-6.32393e-05
-6.36615e-05
-6.40905e-05
-6.4524e-05
-6.49645e-05
-6.54098e-05
-6.58623e-05
-6.63198e-05
-6.67847e-05
-6.72549e-05
-6.77326e-05
-6.8216e-05
-6.87071e-05
-6.92041e-05
-6.97091e-05
-7.02201e-05
-7.07395e-05
-7.12651e-05
-7.17994e-05
-7.23402e-05
-7.28898e-05
-7.34463e-05
-7.4012e-05
-7.45848e-05
-7.5167e-05
-7.57567e-05
-7.63562e-05
-7.69635e-05
-7.7581e-05
-7.82066e-05
-7.88427e-05
-7.94875e-05
-8.01431e-05
-8.08078e-05
-8.14839e-05
-8.21694e-05
-8.28668e-05
-8.35742e-05
-8.4294e-05
-8.50243e-05
-8.57676e-05
-8.6522e-05
-8.72899e-05
-8.80695e-05
-8.88633e-05
-8.96695e-05
-9.04905e-05
-9.13245e-05
-9.21741e-05
-9.30375e-05
-9.39172e-05
-9.48114e-05
-9.57227e-05
-9.66493e-05
-9.75938e-05
-9.85546e-05
-9.95342e-05
-0.000100531
-0.000101547
-0.000102582
-0.000103637
-0.000104712
-0.000105808
-0.000106925
-0.000108065
-0.000109226
-0.000110412
-0.00011162
-0.000112855
-0.000114113
-0.000115399
-0.00011671
-0.000118051
-0.000119418
-0.000120817
-0.000122244
-0.000123704
-0.000125195
-0.000126721
-0.00012828
-0.000129876
-0.000131508
-0.000133178
-0.000134887
-0.000136638
-0.00013843
-0.000140266
-0.000142147
-0.000144076
-0.000146052
-0.000148079
-0.000150158
-0.000152292
-0.000154481
-0.00015673
-0.000159039
-0.000161411
-0.000163849
-0.000166356
-0.000168934
-0.000171587
-0.000174316
-0.000177128
-0.000180023
-0.000183008
-0.000186085
-0.000189259
-0.000192534
-0.000195916
-0.000199409
-0.00020302
-0.000206754
-0.000210619
-0.00021462
-0.000218767
-0.000223066
-0.000227528
-0.00023216
-0.000236976
-0.000241985
-0.000247203
-0.00025264
-0.000258315
-0.000264244
-0.000270447
-0.000276944
-0.000283761
-0.000290923
-0.000298462
-0.000306412
-0.000314811
-0.000323701
-0.000333133
-0.000343161
-0.000353848
-0.000365264
-0.00037749
-0.000390612
-0.000404734
-0.000419966
-0.000436437
-0.000454284
-0.000473667
-0.000494756
-0.000517746
-0.000542842
-0.000570278
-0.000600299
-0.000633178
-0.0006692
-0.000708676
-0.00075193
-0.000799305
-0.000851156
-0.000907848
-0.000969752
-0.00103724
-0.00111068
-0.00119043
-0.00127683
-0.00137017
-0.00147074
-0.00157875
-0.00169437
-0.00181768
-0.0019487
-0.00208734
-0.00223342
-0.00238662
-0.00254652
-0.00271256
-0.00288404
-0.0030601
-0.00323977
-0.00342192
-0.00360527
-0.00378845
-0.00396994
-0.00414815
-0.00432138
-0.00448793
-0.00464602
-0.00479391
-0.00492989
-0.00505231
-0.00515963
-0.00525045
-0.00532353
-0.00537783
-0.00541253
-0.00542704
-0.00542104
-0.00539445
-0.00534747
-0.00528056
-0.00519443
-0.00509002
-0.0049685
-0.00483121
-0.00467967
-0.00451552
-0.00434048
-0.00415638
-0.00396502
-0.00376824
-0.00356783
-0.00336552
-0.00316295
-0.00296167
-0.0027631
-0.00256852
-0.00237906
-0.00219572
-0.00201932
-0.00185057
-0.00168998
-0.00153797
-0.00139481
-0.00126063
-0.00113547
-0.00101926
-0.00091186
-0.000813036
-0.000722495
-0.000639901
-0.000564867
-0.000496985
-0.00043582
-0.000380929
-0.000331861
-0.000288171
-0.000249418
-0.000215177
-0.000185035
-0.000158602
-0.000135506
-0.000115402
-9.79641e-05
-8.28958e-05
-6.99201e-05
-5.87881e-05
-4.92701e-05
-4.11626e-05
-3.42792e-05
-2.84573e-05
-2.35485e-05
-1.94258e-05
-1.59734e-05
-1.30941e-05
-1.06991e-05
-8.71553e-06
-7.07648e-06
-5.72842e-06
-4.62158e-06
-3.71755e-06
-2.97977e-06
-2.3813e-06
-1.89552e-06
-1.50406e-06
-1.18761e-06
-9.34032e-07
-7.2932e-07
-5.65666e-07
-4.33627e-07
-3.41296e-07
-3.41296e-07
-0.125231
0.125231
0.0249151
0.00791673
0.00315092
0.00113813
0.000318159
3.68502e-05
-4.44828e-05
-6.41048e-05
-6.69887e-05
-6.58176e-05
-6.3983e-05
-6.23609e-05
-6.11393e-05
-6.02955e-05
-5.97633e-05
-5.94635e-05
-5.93368e-05
-5.93288e-05
-5.94071e-05
-5.9541e-05
-5.97166e-05
-5.9917e-05
-6.01382e-05
-6.03702e-05
-6.06138e-05
-6.0862e-05
-6.11177e-05
-6.13752e-05
-6.16385e-05
-6.19024e-05
-6.21713e-05
-6.24403e-05
-6.27138e-05
-6.29874e-05
-6.32653e-05
-6.35432e-05
-6.38256e-05
-6.41079e-05
-6.43947e-05
-6.46816e-05
-6.49731e-05
-6.52648e-05
-6.55612e-05
-6.5858e-05
-6.61597e-05
-6.64618e-05
-6.67689e-05
-6.70766e-05
-6.73895e-05
-6.7703e-05
-6.80218e-05
-6.83414e-05
-6.86663e-05
-6.89921e-05
-6.93233e-05
-6.96554e-05
-6.9993e-05
-7.03315e-05
-7.06755e-05
-7.10205e-05
-7.1371e-05
-7.17225e-05
-7.20795e-05
-7.24376e-05
-7.28011e-05
-7.31656e-05
-7.35356e-05
-7.39066e-05
-7.42832e-05
-7.46607e-05
-7.50437e-05
-7.54278e-05
-7.58174e-05
-7.62081e-05
-7.66043e-05
-7.70017e-05
-7.74047e-05
-7.7809e-05
-7.8219e-05
-7.86303e-05
-7.90475e-05
-7.94662e-05
-7.98909e-05
-8.03172e-05
-8.07497e-05
-8.1184e-05
-8.16246e-05
-8.20672e-05
-8.25164e-05
-8.29678e-05
-8.34259e-05
-8.38864e-05
-8.43538e-05
-8.48238e-05
-8.5301e-05
-8.5781e-05
-8.62683e-05
-8.67586e-05
-8.72564e-05
-8.77573e-05
-8.82661e-05
-8.87781e-05
-8.9298e-05
-8.98214e-05
-9.03529e-05
-9.0888e-05
-9.14315e-05
-9.19787e-05
-9.25344e-05
-9.30942e-05
-9.36625e-05
-9.4235e-05
-9.48164e-05
-9.54022e-05
-9.5997e-05
-9.65964e-05
-9.72051e-05
-9.78186e-05
-9.84416e-05
-9.90698e-05
-9.97077e-05
-0.000100351
-0.000101004
-0.000101663
-0.000102332
-0.000103008
-0.000103694
-0.000104386
-0.000105089
-0.000105799
-0.00010652
-0.000107248
-0.000107988
-0.000108735
-0.000109494
-0.000110261
-0.00011104
-0.000111828
-0.000112628
-0.000113436
-0.000114258
-0.000115089
-0.000115933
-0.000116787
-0.000117654
-0.000118531
-0.000119423
-0.000120325
-0.000121242
-0.000122169
-0.000123112
-0.000124066
-0.000125036
-0.000126017
-0.000127014
-0.000128024
-0.000129051
-0.00013009
-0.000131147
-0.000132218
-0.000133306
-0.000134408
-0.000135529
-0.000136665
-0.000137821
-0.000138991
-0.000140182
-0.000141389
-0.000142618
-0.000143863
-0.000145131
-0.000146416
-0.000147724
-0.000149052
-0.000150403
-0.000151774
-0.00015317
-0.000154588
-0.000156031
-0.000157497
-0.00015899
-0.000160506
-0.000162052
-0.000163621
-0.000165221
-0.000166847
-0.000168505
-0.00017019
-0.000171908
-0.000173655
-0.000175437
-0.000177249
-0.000179098
-0.000180979
-0.000182899
-0.000184853
-0.000186847
-0.000188878
-0.000190951
-0.000193063
-0.000195219
-0.000197417
-0.000199662
-0.00020195
-0.000204289
-0.000206674
-0.000209111
-0.000211599
-0.000214142
-0.000216738
-0.000219393
-0.000222105
-0.000224879
-0.000227714
-0.000230616
-0.000233583
-0.000236621
-0.000239728
-0.000242911
-0.000246169
-0.000249507
-0.000252926
-0.000256432
-0.000260023
-0.000263708
-0.000267486
-0.000271363
-0.000275341
-0.000279427
-0.00028362
-0.00028793
-0.000292357
-0.00029691
-0.000301589
-0.000306406
-0.00031136
-0.000316463
-0.000321716
-0.000327131
-0.000332711
-0.000338467
-0.000344404
-0.000350534
-0.000356863
-0.000363406
-0.000370167
-0.000377164
-0.000384405
-0.000391906
-0.000399679
-0.000407743
-0.00041611
-0.000424804
-0.000433839
-0.000443244
-0.000453036
-0.000463246
-0.000473899
-0.000485032
-0.000496674
-0.00050887
-0.000521657
-0.000535088
-0.000549212
-0.000564092
-0.000579789
-0.000596381
-0.000613944
-0.000632573
-0.000652365
-0.000673434
-0.000695901
-0.000719905
-0.000745591
-0.000773131
-0.000802699
-0.000834498
-0.000868737
-0.000905651
-0.000945486
-0.000988512
-0.00103501
-0.00108527
-0.00113962
-0.00119837
-0.00126185
-0.00133041
-0.00140437
-0.00148408
-0.00156984
-0.00166197
-0.00176074
-0.00186638
-0.0019791
-0.00209904
-0.00222627
-0.0023608
-0.00250254
-0.00265132
-0.00280683
-0.00296867
-0.00313632
-0.00330911
-0.00348624
-0.00366678
-0.00384966
-0.00403367
-0.00421749
-0.00439966
-0.00457864
-0.0047528
-0.00492044
-0.00507985
-0.00522929
-0.00536703
-0.00549143
-0.0056009
-0.00569399
-0.00576939
-0.00582597
-0.0058628
-0.00587919
-0.00587469
-0.00584909
-0.00580249
-0.0057352
-0.00564782
-0.00554119
-0.0054164
-0.0052747
-0.00511758
-0.00494663
-0.00476359
-0.00457028
-0.00436856
-0.00416033
-0.00394744
-0.00373174
-0.00351497
-0.00329879
-0.00308475
-0.00287427
-0.00266862
-0.00246892
-0.00227612
-0.00209105
-0.00191436
-0.00174654
-0.00158796
-0.00143885
-0.00129932
-0.00116935
-0.00104885
-0.000937612
-0.000835383
-0.000741829
-0.000656577
-0.000579207
-0.000509279
-0.000446327
-0.000389883
-0.000339468
-0.000294615
-0.00025486
-0.000219759
-0.000188881
-0.000161821
-0.000138192
-0.000117637
-9.98178e-05
-8.44295e-05
-7.11842e-05
-5.9828e-05
-5.01221e-05
-4.18596e-05
-3.48467e-05
-2.8919e-05
-2.39221e-05
-1.97282e-05
-1.62165e-05
-1.329e-05
-1.08555e-05
-8.84108e-06
-7.176e-06
-5.80807e-06
-4.6842e-06
-3.76762e-06
-3.01875e-06
-2.41254e-06
-1.91955e-06
-1.52346e-06
-1.20232e-06
-9.4617e-07
-7.38445e-07
-5.73545e-07
-4.39014e-07
-3.43584e-07
-3.43584e-07
-0.146403
0.146403
0.0382903
0.0134562
0.00548147
0.00202134
0.000598428
0.00010113
-4.89814e-05
-8.91569e-05
-9.78419e-05
-9.79486e-05
-9.60075e-05
-9.39153e-05
-9.22112e-05
-9.09798e-05
-9.01786e-05
-8.97143e-05
-8.95099e-05
-8.94872e-05
-8.95996e-05
-8.97996e-05
-9.00666e-05
-9.03734e-05
-9.07143e-05
-9.10727e-05
-9.14501e-05
-9.18351e-05
-9.22323e-05
-9.26325e-05
-9.30419e-05
-9.34523e-05
-9.38706e-05
-9.42889e-05
-9.47144e-05
-9.51396e-05
-9.55718e-05
-9.60035e-05
-9.64422e-05
-9.68804e-05
-9.73258e-05
-9.77708e-05
-9.82231e-05
-9.86752e-05
-9.91348e-05
-9.95944e-05
-0.000100062
-0.000100529
-0.000101004
-0.00010148
-0.000101964
-0.000102448
-0.000102941
-0.000103434
-0.000103936
-0.000104438
-0.000104949
-0.000105461
-0.000105982
-0.000106503
-0.000107033
-0.000107565
-0.000108105
-0.000108646
-0.000109196
-0.000109748
-0.000110308
-0.000110869
-0.000111439
-0.000112011
-0.000112592
-0.000113174
-0.000113765
-0.000114357
-0.000114958
-0.000115561
-0.000116173
-0.000116787
-0.00011741
-0.000118035
-0.000118669
-0.000119306
-0.000119951
-0.000120599
-0.000121257
-0.000121917
-0.000122587
-0.00012326
-0.000123943
-0.000124629
-0.000125325
-0.000126024
-0.000126734
-0.000127447
-0.000128172
-0.0001289
-0.000129639
-0.000130382
-0.000131137
-0.000131896
-0.000132666
-0.000133441
-0.000134229
-0.00013502
-0.000135824
-0.000136633
-0.000137455
-0.000138282
-0.000139122
-0.000139967
-0.000140825
-0.000141689
-0.000142566
-0.00014345
-0.000144347
-0.00014525
-0.000146168
-0.000147092
-0.00014803
-0.000148976
-0.000149936
-0.000150904
-0.000151887
-0.000152877
-0.000153884
-0.000154898
-0.000155929
-0.000156968
-0.000158023
-0.000159088
-0.00016017
-0.000161261
-0.00016237
-0.000163488
-0.000164625
-0.000165773
-0.000166939
-0.000168116
-0.000169312
-0.00017052
-0.000171747
-0.000172987
-0.000174247
-0.00017552
-0.000176814
-0.000178122
-0.00017945
-0.000180793
-0.000182158
-0.000183538
-0.000184941
-0.000186359
-0.0001878
-0.000189258
-0.00019074
-0.000192239
-0.000193763
-0.000195305
-0.000196872
-0.000198458
-0.000200071
-0.000201703
-0.000203363
-0.000205043
-0.000206751
-0.000208482
-0.000210242
-0.000212024
-0.000213837
-0.000215674
-0.000217543
-0.000219436
-0.000221363
-0.000223317
-0.000225304
-0.00022732
-0.000229371
-0.000231452
-0.00023357
-0.000235719
-0.000237908
-0.000240128
-0.00024239
-0.000244685
-0.000247024
-0.000249398
-0.000251817
-0.000254274
-0.000256778
-0.000259322
-0.000261915
-0.00026455
-0.000267236
-0.000269967
-0.000272752
-0.000275584
-0.000278472
-0.00028141
-0.000284407
-0.000287457
-0.00029057
-0.000293738
-0.000296972
-0.000300265
-0.000303627
-0.000307052
-0.00031055
-0.000314115
-0.000317756
-0.000321469
-0.000325262
-0.000329132
-0.000333087
-0.000337123
-0.00034125
-0.000345463
-0.000349773
-0.000354174
-0.000358678
-0.00036328
-0.000367992
-0.000372808
-0.000377741
-0.000382786
-0.000387955
-0.000393244
-0.000398667
-0.000404219
-0.000409913
-0.000415746
-0.000421731
-0.000427867
-0.000434166
-0.000440628
-0.000447265
-0.000454078
-0.00046108
-0.000468273
-0.00047567
-0.000483274
-0.0004911
-0.00049915
-0.000507442
-0.000515978
-0.000524777
-0.000533844
-0.000543198
-0.000552845
-0.000562807
-0.000573092
-0.000583723
-0.00059471
-0.000606079
-0.000617844
-0.000630033
-0.000642661
-0.000655762
-0.000669355
-0.000683479
-0.000698156
-0.000713431
-0.000729334
-0.000745914
-0.000763211
-0.000781282
-0.000800176
-0.000819962
-0.0008407
-0.000862471
-0.000885351
-0.000909437
-0.000934821
-0.000961622
-0.000989951
-0.00101995
-0.00105175
-0.00108553
-0.00112144
-0.00115968
-0.00120045
-0.00124396
-0.00129045
-0.00134016
-0.00139336
-0.00145031
-0.00151129
-0.00157662
-0.00164656
-0.00172144
-0.00180153
-0.00188715
-0.00197855
-0.002076
-0.00217971
-0.00228989
-0.00240668
-0.00253016
-0.00266037
-0.00279725
-0.00294067
-0.00309041
-0.00324613
-0.00340738
-0.00357361
-0.00374412
-0.00391809
-0.00409457
-0.00427249