# vtk DataFile Version 2.0
FlowField
ASCII
DATASET STRUCTURED_GRID
DIMENSIONS 400 1 200
POINTS 80000 float
0 0 0
0.08 0 0
0.16 0 0
0.24 0 0
0.32 0 0
0.4 0 0
0.48 0 0
0.56 0 0
0.64 0 0
0.72 0 0
0.8 0 0
0.88 0 0
0.96 0 0
1.04 0 0
1.12 0 0
1.2 0 0
1.28 0 0
1.36 0 0
1.44 0 0
1.52 0 0
1.6 0 0
1.68 0 0
1.76 0 0
1.84 0 0
1.92 0 0
2 0 0
2.08 0 0
2.16 0 0
2.24 0 0
2.32 0 0
2.4 0 0
2.48 0 0
2.56 0 0
2.64 0 0
2.72 0 0
2.8 0 0
2.88 0 0
2.96 0 0
3.04 0 0
3.12 0 0
3.2 0 0
3.28 0 0
3.36 0 0
3.44 0 0
3.52 0 0
3.6 0 0
3.68 0 0
3.76 0 0
3.84 0 0
3.92 0 0
4 0 0
4.08 0 0
4.16 0 0
4.24 0 0
4.32 0 0
4.4 0 0
4.48 0 0
4.56 0 0
4.64 0 0
4.72 0 0
4.8 0 0
4.88 0 0
4.96 0 0
5.04 0 0
5.12 0 0
5.2 0 0
5.28 0 0
5.36 0 0
5.44 0 0
5.52 0 0
5.6 0 0
5.68 0 0
5.76 0 0
5.84 0 0
5.92 0 0
6 0 0
6.08 0 0
6.16 0 0
6.24 0 0
6.32 0 0
6.4 0 0
6.48 0 0
6.56 0 0
6.64 0 0
6.72 0 0
6.8 0 0
6.88 0 0
6.96 0 0
7.04 0 0
7.12 0 0
7.2 0 0
7.28 0 0
7.36 0 0
7.44 0 0
7.52 0 0
7.6 0 0
7.68 0 0
7.76 0 0
7.84 0 0
7.92 0 0
8 0 0
8.08 0 0
8.16 0 0
8.24 0 0
8.32 0 0
8.4 0 0
8.48 0 0
8.56 0 0
8.64 0 0
8.72 0 0
8.8 0 0
8.88 0 0
8.96 0 0
9.04 0 0
9.12 0 0
9.2 0 0
9.28 0 0
9.36 0 0
9.44 0 0
9.52 0 0
9.6 0 0
9.68 0 0
9.76 0 0
9.84 0 0
9.92 0 0
10 0 0
10.08 0 0
10.16 0 0
10.24 0 0
10.32 0 0
10.4 0 0
10.48 0 0
10.56 0 0
10.64 0 0
10.72 0 0
10.8 0 0
10.88 0 0
10.96 0 0
11.04 0 0
11.12 0 0
11.2 0 0
11.28 0 0
11.36 0 0
11.44 0 0
11.52 0 0
11.6 0 0
11.68 0 0
11.76 0 0
11.84 0 0
11.92 0 0
12 0 0
12.08 0 0
12.16 0 0
12.24 0 0
12.32 0 0
12.4 0 0
12.48 0 0
12.56 0 0
12.64 0 0
12.72 0 0
12.8 0 0
12.88 0 0
12.96 0 0
13.04 0 0
13.12 0 0
13.2 0 0
13.28 0 0
13.36 0 0
13.44 0 0
13.52 0 0
13.6 0 0
13.68 0 0
13.76 0 0
13.84 0 0
13.92 0 0
14 0 0
14.08 0 0
14.16 0 0
14.24 0 0
14.32 0 0
14.4 0 0
14.48 0 0
14.56 0 0
14.64 0 0
14.72 0 0
14.8 0 0
14.88 0 0
14.96 0 0
15.04 0 0
15.12 0 0
15.2 0 0
15.28 0 0
15.36 0 0
15.44 0 0
15.52 0 0
15.6 0 0
15.68 0 0
15.76 0 0
15.84 0 0
15.92 0 0
16 0 0
16.08 0 0
16.16 0 0
16.24 0 0
16.32 0 0
16.4 0 0
16.48 0 0
16.56 0 0
16.64 0 0
16.72 0 0
16.8 0 0
16.88 0 0
16.96 0 0
17.04 0 0
17.12 0 0
17.2 0 0
17.28 0 0
17.36 0 0
17.44 0 0
17.52 0 0
17.6 0 0
17.68 0 0
17.76 0 0
17.84 0 0
17.92 0 0
18 0 0
18.08 0 0
18.16 0 0
18.24 0 0
18.32 0 0
18.4 0 0
18.48 0 0
18.56 0 0
18.64 0 0
18.72 0 0
18.8 0 0
18.88 0 0
18.96 0 0
19.04 0 0
19.12 0 0
19.2 0 0
19.28 0 0
19.36 0 0
19.44 0 0
19.52 0 0
19.6 0 0
19.68 0 0
19.76 0 0
19.84 0 0
19.92 0 0
20 0 0
20.08 0 0
20.16 0 0
20.24 0 0
20.32 0 0
20.4 0 0
20.48 0 0
20.56 0 0
20.64 0 0
20.72 0 0
20.8 0 0
20.88 0 0
20.96 0 0
21.04 0 0
21.12 0 0
21.2 0 0
21.28 0 0
21.36 0 0
21.44 0 0
21.52 0 0
21.6 0 0
21.68 0 0
21.76 0 0
21.84 0 0
21.92 0 0
22 0 0
22.08 0 0
22.16 0 0
22.24 0 0
22.32 0 0
22.4 0 0
22.48 0 0
22.56 0 0
22.64 0 0
22.72 0 0
22.8 0 0
22.88 0 0
22.96 0 0
23.04 0 0
23.12 0 0
23.2 0 0
23.28 0 0
23.36 0 0
23.44 0 0
23.52 0 0
23.6 0 0
23.68 0 0
23.76 0 0
23.84 0 0
23.92 0 0
24 0 0
24.08 0 0
24.16 0 0
24.24 0 0
24.32 0 0
24.4 0 0
24.48 0 0
24.56 0 0
24.64 0 0
24.72 0 0
24.8 0 0
24.88 0 0
24.96 0 0
25.04 0 0
25.12 0 0
25.2 0 0
25.28 0 0
25.36 0 0
25.44 0 0
25.52 0 0
25.6 0 0
25.68 0 0
25.76 0 0
25.84 0 0
25.92 0 0
26 0 0
26.08 0 0
26.16 0 0
26.24 0 0
26.32 0 0
26.4 0 0
26.48 0 0
26.56 0 0
26.64 0 0
26.72 0 0
26.8 0 0
26.88 0 0
26.96 0 0
27.04 0 0
27.12 0 0
27.2 0 0
27.28 0 0
27.36 0 0
27.44 0 0
27.52 0 0
27.6 0 0
27.68 0 0
27.76 0 0
27.84 0 0
27.92 0 0
28 0 0
28.08 0 0
28.16 0 0
28.24 0 0
28.32 0 0
28.4 0 0
28.48 0 0
28.56 0 0
28.64 0 0
28.72 0 0
28.8 0 0
28.88 0 0
28.96 0 0
29.04 0 0
29.12 0 0
29.2 0 0
29.28 0 0
29.36 0 0
29.44 0 0
29.52 0 0
29.6 0 0
29.68 0 0
29.76 0 0
29.84 0 0
29.92 0 0
30 0 0
30.08 0 0
30.16 0 0
30.24 0 0
30.32 0 0
30.4 0 0
30.48 0 0
30.56 0 0
30.64 0 0
30.72 0 0
30.8 0 0
30.88 0 0
30.96 0 0
31.04 0 0
31.12 0 0
31.2 0 0
31.28 0 0
31.36 0 0
31.44 0 0
31.52 0 0
31.6 0 0
31.68 0 0
31.76 0 0
31.84 0 0
31.92 0 0
0 0.005 0
0.08 0.005 0
0.16 0.005 0
0.24 0.005 0
0.32 0.005 0
0.4 0.005 0
0.48 0.005 0
0.56 0.005 0
0.64 0.005 0
0.72 0.005 0
0.8 0.005 0
0.88 0.005 0
0.96 0.005 0
1.04 0.005 0
1.12 0.005 0
1.2 0.005 0
1.28 0.005 0
1.36 0.005 0
1.44 0.005 0
1.52 0.005 0
1.6 0.005 0
1.68 0.005 0
1.76 0.005 0
1.84 0.005 0
1.92 0.005 0
2 0.005 0
2.08 0.005 0
2.16 0.005 0
2.24 0.005 0
2.32 0.005 0
2.4 0.005 0
2.48 0.005 0
2.56 0.005 0
2.64 0.005 0
2.72 0.005 0
2.8 0.005 0
2.88 0.005 0
2.96 0.005 0
3.04 0.005 0
3.12 0.005 0
3.2 0.005 0
3.28 0.005 0
3.36 0.005 0
3.44 0.005 0
3.52 0.005 0
3.6 0.005 0
3.68 0.005 0
3.76 0.005 0
3.84 0.005 0
3.92 0.005 0
4 0.005 0
4.08 0.005 0
4.16 0.005 0
4.24 0.005 0
4.32 0.005 0
4.4 0.005 0
4.48 0.005 0
4.56 0.005 0
4.64 0.005 0
4.72 0.005 0
4.8 0.005 0
4.88 0.005 0
4.96 0.005 0
5.04 0.005 0
5.12 0.005 0
5.2 0.005 0
5.28 0.005 0
5.36 0.005 0
5.44 0.005 0
5.52 0.005 0
5.6 0.005 0
5.68 0.005 0
5.76 0.005 0
5.84 0.005 0
5.92 0.005 0
6 0.005 0
6.08 0.005 0
6.16 0.005 0
6.24 0.005 0
6.32 0.005 0
6.4 0.005 0
6.48 0.005 0
6.56 0.005 0
6.64 0.005 0
6.72 0.005 0
6.8 0.005 0
6.88 0.005 0
6.96 0.005 0
7.04 0.005 0
7.12 0.005 0
7.2 0.005 0
7.28 0.005 0
7.36 0.005 0
7.44 0.005 0
7.52 0.005 0
7.6 0.005 0
7.68 0.005 0
7.76 0.005 0
7.84 0.005 0
7.92 0.005 0
8 0.005 0
8.08 0.005 0
8.16 0.005 0
8.24 0.005 0
8.32 0.005 0
8.4 0.005 0
8.48 0.005 0
8.56 0.005 0
8.64 0.005 0
8.72 0.005 0
8.8 0.005 0
8.88 0.005 0
8.96 0.005 0
9.04 0.005 0
9.12 0.005 0
9.2 0.005 0
9.28 0.005 0
9.36 0.005 0
9.44 0.005 0
9.52 0.005 0
9.6 0.005 0
9.68 0.005 0
9.76 0.005 0
9.84 0.005 0
9.92 0.005 0
10 0.005 0
10.08 0.005 0
10.16 0.005 0
10.24 0.005 0
10.32 0.005 0
10.4 0.005 0
10.48 0.005 0
10.56 0.005 0
10.64 0.005 0
10.72 0.005 0
10.8 0.005 0
10.88 0.005 0
10.96 0.005 0
11.04 0.005 0
11.12 0.005 0
11.2 0.005 0
11.28 0.005 0
11.36 0.005 0
11.44 0.005 0
11.52 0.005 0
11.6 0.005 0
11.68 0.005 0
11.76 0.005 0
11.84 0.005 0
11.92 0.005 0
12 0.005 0
12.08 0.005 0
12.16 0.005 0
12.24 0.005 0
12.32 0.005 0
12.4 0.005 0
12.48 0.005 0
12.56 0.005 0
12.64 0.005 0
12.72 0.005 0
12.8 0.005 0
12.88 0.005 0
12.96 0.005 0
13.04 0.005 0
13.12 0.005 0
13.2 0.005 0
13.28 0.005 0
13.36 0.005 0
13.44 0.005 0
13.52 0.005 0
13.6 0.005 0
13.68 0.005 0
13.76 0.005 0
13.84 0.005 0
13.92 0.005 0
14 0.005 0
14.08 0.005 0
14.16 0.005 0
14.24 0.005 0
14.32 0.005 0
14.4 0.005 0
14.48 0.005 0
14.56 0.005 0
14.64 0.005 0
14.72 0.005 0
14.8 0.005 0
14.88 0.005 0
14.96 0.005 0
15.04 0.005 0
15.12 0.005 0
15.2 0.005 0
15.28 0.005 0
15.36 0.005 0
15.44 0.005 0
15.52 0.005 0
15.6 0.005 0
15.68 0.005 0
15.76 0.005 0
15.84 0.005 0
15.92 0.005 0
16 0.005 0
16.08 0.005 0
16.16 0.005 0
16.24 0.005 0
16.32 0.005 0
16.4 0.005 0
16.48 0.005 0
16.56 0.005 0
16.64 0.005 0
16.72 0.005 0
16.8 0.005 0
16.88 0.005 0
16.96 0.005 0
17.04 0.005 0
17.12 0.005 0
17.2 0.005 0
17.28 0.005 0
17.36 0.005 0
17.44 0.005 0
17.52 0.005 0
17.6 0.005 0
17.68 0.005 0
17.76 0.005 0
17.84 0.005 0
17.92 0.005 0
18 0.005 0
18.08 0.005 0
18.16 0.005 0
18.24 0.005 0
18.32 0.005 0
18.4 0.005 0
18.48 0.005 0
18.56 0.005 0
18.64 0.005 0
18.72 0.005 0
18.8 0.005 0
18.88 0.005 0
18.96 0.005 0
19.04 0.005 0
19.12 0.005 0
19.2 0.005 0
19.28 0.005 0
19.36 0.005 0
19.44 0.005 0
19.52 0.005 0
19.6 0.005 0
19.68 0.005 0
19.76 0.005 0
19.84 0.005 0
19.92 0.005 0
20 0.005 0
20.08 0.005 0
20.16 0.005 0
20.24 0.005 0
20.32 0.005 0
20.4 0.005 0
20.48 0.005 0
20.56 0.005 0
20.64 0.005 0
20.72 0.005 0
20.8 0.005 0
20.88 0.005 0
20.96 0.005 0
21.04 0.005 0
21.12 0.005 0
21.2 0.005 0
21.28 0.005 0
21.36 0.005 0
21.44 0.005 0
21.52 0.005 0
21.6 0.005 0
21.68 0.005 0
21.76 0.005 0
21.84 0.005 0
21.92 0.005 0
22 0.005 0
22.08 0.005 0
22.16 0.005 0
22.24 0.005 0
22.32 0.005 0
22.4 0.005 0
22.48 0.005 0
22.56 0.005 0
22.64 0.005 0
22.72 0.005 0
22.8 0.005 0
22.88 0.005 0
22.96 0.005 0
23.04 0.005 0
23.12 0.005 0
23.2 0.005 0
23.28 0.005 0
23.36 0.005 0
23.44 0.005 0
23.52 0.005 0
23.6 0.005 0
23.68 0.005 0
23.76 0.005 0
23.84 0.005 0
23.92 0.005 0
24 0.005 0
24.08 0.005 0
24.16 0.005 0
24.24 0.005 0
24.32 0.005 0
24.4 0.005 0
24.48 0.005 0
24.56 0.005 0
24.64 0.005 0
24.72 0.005 0
24.8 0.005 0
24.88 0.005 0
24.96 0.005 0
25.04 0.005 0
25.12 0.005 0
25.2 0.005 0
25.28 0.005 0
25.36 0.005 0
25.44 0.005 0
25.52 0.005 0
25.6 0.005 0
25.68 0.005 0
25.76 0.005 0
25.84 0.005 0
25.92 0.005 0
26 0.005 0
26.08 0.005 0
26.16 0.005 0
26.24 0.005 0
26.32 0.005 0
26.4 0.005 0
26.48 0.005 0
26.56 0.005 0
26.64 0.005 0
26.72 0.005 0
26.8 0.005 0
26.88 0.005 0
26.96 0.005 0
27.04 0.005 0
27.12 0.005 0
27.2 0.005 0
27.28 0.005 0
27.36 0.005 0
27.44 0.005 0
27.52 0.005 0
27.6 0.005 0
27.68 0.005 0
27.76 0.005 0
27.84 0.005 0
27.92 0.005 0
28 0.005 0
28.08 0.005 0
28.16 0.005 0
28.24 0.005 0
28.32 0.005 0
28.4 0.005 0
28.48 0.005 0
28.56 0.005 0
28.64 0.005 0
28.72 0.005 0
28.8 0.005 0
28.88 0.005 0
28.96 0.005 0
29.04 0.005 0
29.12 0.005 0
29.2 0.005 0
29.28 0.005 0
29.36 0.005 0
29.44 0.005 0
29.52 0.005 0
29.6 0.005 0
29.68 0.005 0
29.76 0.005 0
29.84 0.005 0
29.92 0.005 0
30 0.005 0
30.08 0.005 0
30.16 0.005 0
30.24 0.005 0
30.32 0.005 0
30.4 0.005 0
30.48 0.005 0
30.56 0.005 0
30.64 0.005 0
30.72 0.005 0
30.8 0.005 0
30.88 0.005 0
30.96 0.005 0
31.04 0.005 0
31.12 0.005 0
31.2 0.005 0
31.28 0.005 0
31.36 0.005 0
31.44 0.005 0
31.52 0.005 0
31.6 0.005 0
31.68 0.005 0
31.76 0.005 0
31.84 0.005 0
31.92 0.005 0
0 0.01 0
0.08 0.01 0
0.16 0.01 0
0.24 0.01 0
0.32 0.01 0
0.4 0.01 0
0.48 0.01 0
0.56 0.01 0
0.64 0.01 0
0.72 0.01 0
0.8 0.01 0
0.88 0.01 0
0.96 0.01 0
1.04 0.01 0
1.12 0.01 0
1.2 0.01 0
1.28 0.01 0
1.36 0.01 0
1.44 0.01 0
1.52 0.01 0
1.6 0.01 0
1.68 0.01 0
1.76 0.01 0
1.84 0.01 0
1.92 0.01 0
2 0.01 0
2.08 0.01 0
2.16 0.01 0
2.24 0.01 0
2.32 0.01 0
2.4 0.01 0
2.48 0.01 0
2.56 0.01 0
2.64 0.01 0
2.72 0.01 0
2.8 0.01 0
2.88 0.01 0
2.96 0.01 0
3.04 0.01 0
3.12 0.01 0
3.2 0.01 0
3.28 0.01 0
3.36 0.01 0
3.44 0.01 0
3.52 0.01 0
3.6 0.01 0
3.68 0.01 0
3.76 0.01 0
3.84 0.01 0
3.92 0.01 0
4 0.01 0
4.08 0.01 0
4.16 0.01 0
4.24 0.01 0
4.32 0.01 0
4.4 0.01 0
4.48 0.01 0
4.56 0.01 0
4.64 0.01 0
4.72 0.01 0
4.8 0.01 0
4.88 0.01 0
4.96 0.01 0
5.04 0.01 0
5.12 0.01 0
[...]
POINT_DATA 80000

SCALARS v float 1
LOOKUP_TABLE default
0
0
0
0
0
0
0
0
0
0
0
0
0
0
0
0
0
0
0
0
0
0
0
0
0
0
0
0
0
0
0
0
0
0
0
0
0
0
0
0
0
0
0
0
0
0
0
0
0
0
0
0
0
0
0
0
0
0
0
0
0
0
0
0
0
0
0
0
0
0
0
0
0
0
0
0
0
0
0
0
0
0
0
0
0
0
0
0
0
0
0
0
0
0
0
0
0
0
0
0
0
0
0
0
0
0
0
0
0
0
0
0
0
0
0
0
0
0
0
0
0
0
0
0
0
0
0
0
0
0
0
0
0
0
0
0
0
0
0
0
0
0
0
0
0
0
0
0
0
0
0
0
0
0
0
0
0
0
0
0
0
0
0
0
0
0
0
0
0
0
0
0
0
0
0
0
0
0
0
0
0
0
0
0
0
0
0
0
0
0
0
0
0
0
0
0
0
0
0
0
0
0
0
0
0
0
0
0
0
0
0
0
0
0
0
0
0
0
0
0
0
0
0
0
0
0
0
0
0
0
0
0
0
0
0
0
0
0
0
0
0
0
0
0
0
0
0
0
0
0
0
0
0
0
0
0
0
0
0
0
0
0
0
0
0
0
0
0
0
0
0
0
0
0
0
0
0
0
0
0
0
0
0
0
0
0
0
0
0
0
0
0
0
0
0
0
0
0
0
0
0
0
0
0
0
0
0
0
0
0
0
0
0
0
0
0
0
0
0
0
0
0
0
0
0
0
0
0
0
0
0
0
0
0
0
0
0
0
0
0
0
0
0
0
0
0
0
0
0
0
0
0
0
0
0
0
0
0
0
0
0
0
0
0
0
0
0
0
0
0
0
0
0
0
0
0
0
0
0
0
0
0
0
0
0
0
0
0
0
0
0
0
0
0
0
0
0
0
0
0
-0.0542713
0.0542713
0.00396233
0.000998571
0.000492503
0.000302939
0.000207564
0.000151936
0.000116495
9.25386e-05
7.56256e-05
6.32652e-05
5.39649e-05
4.67864e-05
4.11185e-05
3.65515e-05
3.28042e-05
2.96792e-05
2.70356e-05
2.47715e-05
2.28123e-05
2.11012e-05
1.9594e-05
1.82556e-05
1.70596e-05
1.59862e-05
1.50198e-05
1.41458e-05
1.33498e-05
1.26195e-05
1.19472e-05
1.13292e-05
1.07622e-05
1.02401e-05
9.75389e-06
9.29463e-06
8.85823e-06
8.44614e-06
8.06171e-06
7.7045e-06
7.36719e-06
7.03764e-06
6.70476e-06
6.36396e-06
6.01817e-06
5.67395e-06
5.33568e-06
5.00212e-06
4.66781e-06
4.32844e-06
3.98628e-06
3.65207e-06
3.34171e-06
3.0695e-06
2.84155e-06
2.65293e-06
2.48988e-06
2.33575e-06
2.17789e-06
2.01207e-06
1.84315e-06
1.68187e-06
1.53984e-06
1.42472e-06
1.33757e-06
1.27283e-06
1.22058e-06
1.16974e-06
1.11117e-06
1.03965e-06
9.54422e-07
8.58588e-07
7.57657e-07
6.57932e-07
5.65103e-07
4.8333e-07
4.14877e-07
3.60207e-07
3.18385e-07
2.87602e-07
2.65677e-07
2.5045e-07
2.40024e-07
2.32888e-07
2.27921e-07
2.24347e-07
2.2166e-07
2.19544e-07
2.17809e-07
2.16337e-07
2.15058e-07
2.13921e-07
2.1289e-07
2.11936e-07
2.11036e-07
2.10171e-07
2.0933e-07
2.085e-07
2.07677e-07
2.06856e-07
2.06035e-07
2.05212e-07
2.04389e-07
2.03564e-07
2.02739e-07
2.01913e-07
2.01087e-07
2.00261e-07
1.99435e-07
1.98609e-07
1.97784e-07
1.96958e-07
1.96133e-07
1.95308e-07
1.94482e-07
1.93657e-07
1.92832e-07
1.92007e-07
1.91181e-07
1.90356e-07
1.89531e-07
1.88706e-07
1.87881e-07
1.87056e-07
1.86231e-07
1.85406e-07
1.84581e-07
1.83757e-07
1.82933e-07
1.82109e-07
1.81285e-07
1.80462e-07
1.79639e-07
1.78816e-07
1.77993e-07
1.77171e-07
1.76349e-07
1.75528e-07
1.74707e-07
1.73886e-07
1.73066e-07
1.72246e-07
1.71427e-07
1.70608e-07
1.69789e-07
1.68971e-07
1.68153e-07
1.67336e-07
1.66519e-07
1.65703e-07
1.64887e-07
1.64072e-07
1.63257e-07
1.62442e-07
1.61628e-07
1.60814e-07
1.60001e-07
1.59188e-07
1.58376e-07
1.57565e-07
1.56753e-07
1.55943e-07
1.55132e-07
1.54322e-07
1.53513e-07
1.52704e-07
1.51896e-07
1.51088e-07
1.5028e-07
1.49473e-07
1.48666e-07
1.4786e-07
1.47055e-07
1.46249e-07
1.45444e-07
1.4464e-07
1.43836e-07
1.43032e-07
1.42229e-07
1.41426e-07
1.40624e-07
1.39822e-07
1.3902e-07
1.38219e-07
1.37418e-07
1.36618e-07
1.35817e-07
1.35018e-07
1.34218e-07
1.33419e-07
1.3262e-07
1.31821e-07
1.31023e-07
1.30225e-07
1.29427e-07
1.2863e-07
1.27833e-07
1.27036e-07
1.26239e-07
1.25443e-07
1.24647e-07
1.23851e-07
1.23055e-07
1.22259e-07
1.21464e-07
1.20669e-07
1.19874e-07
1.19079e-07
1.18284e-07
1.1749e-07
1.16695e-07
1.15901e-07
1.15107e-07
1.14312e-07
1.13519e-07
1.12725e-07
1.11931e-07
1.11137e-07
1.10343e-07
1.0955e-07
1.08756e-07
1.07963e-07
1.07169e-07
1.06376e-07
1.05582e-07
1.04789e-07
1.03995e-07
1.03202e-07
1.02409e-07
1.01615e-07
1.00822e-07
1.00028e-07
9.92345e-08
9.84409e-08
9.76472e-08
9.68535e-08
9.60596e-08
9.52658e-08
9.44718e-08
9.36778e-08
9.28836e-08
9.20894e-08
9.12951e-08
9.05006e-08
8.97061e-08
8.89114e-08
8.81166e-08
8.73216e-08
8.65266e-08
8.57314e-08
8.4936e-08
8.41405e-08
8.33449e-08
8.25491e-08
8.17531e-08
8.09569e-08
8.01606e-08
7.93641e-08
7.85675e-08
7.77707e-08
7.69736e-08
7.61764e-08
7.5379e-08
7.45814e-08
7.37836e-08
7.29856e-08
7.21874e-08
7.1389e-08
7.05904e-08
6.97915e-08
6.89925e-08
6.81932e-08
6.73937e-08
6.6594e-08
6.5794e-08
6.49938e-08
6.41934e-08
6.33928e-08
6.25919e-08
6.17907e-08
6.09894e-08
6.01878e-08
5.93859e-08
5.85838e-08
5.77814e-08
5.69788e-08
5.61759e-08
5.53728e-08
5.45694e-08
5.37658e-08
5.29619e-08
5.21577e-08
5.13533e-08
5.05486e-08
4.97436e-08
4.89384e-08
4.81329e-08
4.73271e-08
4.65211e-08
4.57147e-08
4.49081e-08
4.41012e-08
4.3294e-08
4.24866e-08
4.16788e-08
4.08708e-08
4.00625e-08
3.92539e-08
3.8445e-08
3.76358e-08
3.68264e-08
3.60166e-08
3.52065e-08
3.43962e-08
3.35855e-08
3.27746e-08
3.19633e-08
3.11517e-08
3.03399e-08
2.95277e-08
2.87153e-08
2.79025e-08
2.70894e-08
2.6276e-08
2.54623e-08
2.46482e-08
2.38339e-08
2.30193e-08
2.22043e-08
2.1389e-08
2.05735e-08
1.97574e-08
1.89414e-08
1.81244e-08
1.73082e-08
1.64899e-08
1.5674e-08
1.48538e-08
1.40389e-08
1.32157e-08
1.24032e-08
1.15755e-08
1.0767e-08
9.93294e-09
9.13057e-09
8.28797e-09
7.49379e-09
6.64061e-09
5.85661e-09
4.99095e-09
4.21886e-09
3.33914e-09
2.58046e-09
1.68511e-09
9.41622e-10
2.83471e-11
-6.96839e-10
-1.63224e-09
-2.33357e-09
-3.29828e-09
-3.96674e-09
-4.97182e-09
-5.59399e-09
-6.65557e-09
-7.21235e-09
-8.3525e-09
-8.81891e-09
-1.00652e-08
-1.04112e-08
-1.17961e-08
-1.19868e-08
-1.35473e-08
-1.35436e-08
-1.53203e-08
-1.50805e-08
-1.7116e-08
-1.65966e-08
-1.89343e-08
-1.80941e-08
-2.07712e-08
-1.95821e-08
-2.2615e-08
-2.10842e-08
-2.44369e-08
-2.26571e-08
-2.61733e-08
-2.44305e-08
-2.76826e-08
-2.67001e-08
-2.86444e-08
-3.01438e-08
-2.82733e-08
-3.63645e-08
-2.42345e-08
-4.92486e-08
-6.48111e-09
-7.76599e-08
1.24412e-07
-3.51985e-08
-3.51985e-08
-0.0952161
0.0952161
0.0129759
0.00385491
0.00193461
0.0011965
0.000822045
0.00060262
0.000462374
0.000367349
0.00030014
0.000250955
0.000213912
0.000185304
0.000162711
0.000144506
0.000129571
0.000117121
0.000106594
9.75821e-05
8.97876e-05
8.29832e-05
7.69915e-05
7.16736e-05
6.69237e-05
6.26627e-05
5.88269e-05
5.5357e-05
5.21963e-05
4.92979e-05
4.66314e-05
4.41808e-05
4.19313e-05
3.98572e-05
3.79228e-05
3.60955e-05
3.43609e-05
3.27242e-05
3.11957e-05
2.97697e-05
2.84158e-05
2.70878e-05
2.57462e-05
2.43763e-05
2.29903e-05
2.16121e-05
2.0256e-05
1.89166e-05
1.75751e-05
1.62198e-05
1.48644e-05
1.35526e-05
1.23441e-05
1.12884e-05
1.04028e-05
9.66357e-06
9.01656e-06
8.40041e-06
7.77109e-06
7.11694e-06
6.45888e-06
5.83753e-06
5.29412e-06
4.85362e-06
4.51606e-06
4.25782e-06
4.04064e-06
3.82387e-06
3.57544e-06
3.27853e-06
2.93294e-06
2.55218e-06
2.15787e-06
1.77367e-06
1.42025e-06
1.11215e-06
8.5666e-07
6.54439e-07
5.01127e-07
3.8936e-07
3.10624e-07
2.56671e-07
2.20381e-07
1.9613e-07
1.79794e-07
1.68535e-07
1.60513e-07
1.54582e-07
1.5005e-07
1.46497e-07
1.43656e-07
1.41344e-07
1.39425e-07
1.37791e-07
1.36356e-07
1.35052e-07
1.33831e-07
1.32655e-07
1.31501e-07
1.30356e-07
1.2921e-07
1.28062e-07
1.2691e-07
1.25754e-07
1.24597e-07
1.23439e-07
1.22282e-07
1.21125e-07
1.19969e-07
1.18814e-07
1.1766e-07
1.16507e-07
1.15355e-07
1.14203e-07
1.13051e-07
1.119e-07
1.10748e-07
1.09596e-07
1.08444e-07
1.07292e-07
1.0614e-07
1.04988e-07
1.03836e-07
1.02684e-07
1.01532e-07
1.0038e-07
9.92283e-08
9.80769e-08
9.69259e-08
9.57752e-08
9.46249e-08
9.3475e-08
9.23256e-08
9.11767e-08
9.00282e-08
8.88803e-08
8.77328e-08
8.6586e-08
8.54396e-08
8.42938e-08
8.31485e-08
8.20038e-08
8.08597e-08
7.97161e-08
7.85731e-08
7.74307e-08
7.62888e-08
7.51475e-08
7.40067e-08
7.28665e-08
7.17269e-08
7.05879e-08
6.94494e-08
6.83115e-08
6.71741e-08
6.60373e-08
6.49011e-08
6.37654e-08
6.26303e-08
6.14957e-08
6.03617e-08
5.92283e-08
5.80953e-08
5.6963e-08
5.58311e-08
5.46998e-08
5.3569e-08
5.24388e-08
5.1309e-08
5.01798e-08
4.9051e-08
4.79228e-08
4.67951e-08
4.56678e-08
4.4541e-08
4.34147e-08
4.22888e-08
4.11634e-08
4.00384e-08
3.89138e-08
3.77897e-08
3.66659e-08
3.55426e-08
3.44197e-08
3.32971e-08
3.21749e-08
3.10531e-08
2.99316e-08
2.88105e-08
2.76897e-08
2.65692e-08
2.5449e-08
2.43291e-08
2.32095e-08
2.20901e-08
2.0971e-08
1.98522e-08
1.87336e-08
1.76152e-08
1.6497e-08
1.5379e-08
1.42612e-08
1.31436e-08
1.20262e-08
1.09089e-08
9.7917e-09
8.67468e-09
7.55779e-09
6.44099e-09
5.3243e-09
4.20768e-09
3.09114e-09
1.97468e-09
8.58254e-10
-2.58126e-10
-1.37448e-09
-2.49081e-09
-3.60713e-09
-4.72345e-09
-5.8398e-09
-6.95614e-09
-8.07253e-09
-9.18896e-09
-1.03054e-08
-1.1422e-08
-1.25386e-08
-1.36553e-08
-1.47721e-08
-1.5889e-08
-1.7006e-08
-1.81231e-08
-1.92403e-08
-2.03577e-08
-2.14752e-08
-2.25928e-08
-2.37107e-08
-2.48287e-08
-2.59468e-08
-2.70652e-08
-2.81837e-08
-2.93025e-08
-3.04214e-08
-3.15406e-08
-3.26599e-08
-3.37795e-08
-3.48994e-08
-3.60195e-08
-3.71398e-08
-3.82604e-08
-3.93812e-08
-4.05023e-08
-4.16236e-08
-4.27453e-08
-4.38672e-08
-4.49894e-08
-4.61119e-08
-4.72347e-08
-4.83577e-08
-4.94811e-08
-5.06048e-08
-5.17288e-08
-5.28532e-08
-5.39778e-08
-5.51028e-08
-5.62281e-08
-5.73537e-08
-5.84797e-08
-5.96061e-08
-6.07327e-08
-6.18598e-08
-6.29872e-08
-6.41149e-08
-6.5243e-08
-6.63715e-08
-6.75003e-08
-6.86296e-08
-6.97592e-08
-7.08891e-08
-7.20195e-08
-7.31503e-08
-7.42814e-08
-7.5413e-08
-7.65449e-08
-7.76772e-08
-7.881e-08
-7.99431e-08
-8.10767e-08
-8.22107e-08
-8.3345e-08
-8.44798e-08
-8.5615e-08
-8.67507e-08
-8.78868e-08
-8.90232e-08
-9.01602e-08
-9.12975e-08
-9.24353e-08
-9.35736e-08
-9.47123e-08
-9.58514e-08
-9.69909e-08
-9.8131e-08
-9.92714e-08
-1.00412e-07
-1.01554e-07
-1.02696e-07
-1.03838e-07
-1.04981e-07
-1.06124e-07
-1.07268e-07
-1.08412e-07
-1.09556e-07
-1.10702e-07
-1.11847e-07
-1.12993e-07
-1.1414e-07
-1.15287e-07
-1.16435e-07
-1.17583e-07
-1.18731e-07
-1.1988e-07
-1.2103e-07
-1.2218e-07
-1.2333e-07
-1.24481e-07
-1.25633e-07
-1.26785e-07
-1.27938e-07
-1.29091e-07
-1.30245e-07
-1.31399e-07
-1.32554e-07
-1.33708e-07
-1.34866e-07
-1.3602e-07
-1.3718e-07
-1.38332e-07
-1.39499e-07
-1.40645e-07
-1.41821e-07
-1.42958e-07
-1.44149e-07
-1.45269e-07
-1.46483e-07
-1.47579e-07
-1.48823e-07
-1.49887e-07
-1.5117e-07
-1.52194e-07
-1.53522e-07
-1.545e-07
-1.5588e-07
-1.56806e-07
-1.58243e-07
-1.59111e-07
-1.60613e-07
-1.61412e-07
-1.62995e-07
-1.63703e-07
-1.65394e-07
-1.65979e-07
-1.67818e-07
-1.68229e-07
-1.70278e-07
-1.70444e-07
-1.72783e-07
-1.72611e-07
-1.75345e-07
-1.74722e-07
-1.77973e-07
-1.76768e-07
-1.80673e-07
-1.7874e-07
-1.83452e-07
-1.80634e-07
-1.86313e-07
-1.82448e-07
-1.89256e-07
-1.84188e-07
-1.92267e-07
-1.85888e-07
-1.95302e-07
-1.87635e-07
-1.98258e-07
-1.89641e-07
-2.009e-07
-1.92383e-07
-2.02712e-07
-1.9696e-07
-2.02525e-07
-2.05883e-07
-1.97472e-07
-2.25076e-07
-1.79017e-07
-2.68764e-07
-1.10314e-07
-3.67725e-07
3.67609e-07
-2.09532e-07
-2.09532e-07
-0.125293
0.125293
0.0249362
0.00835835
0.00427834
0.00266187
0.00183409
0.00134671
0.00103425
0.000822068
0.000671753
0.000561618
0.000478601
0.000414454
0.00036378
0.000322946
0.000289451
0.000261534
0.000237936
0.000217744
0.000200285
0.000185048
0.000171635
0.000159734
0.000149109
0.00013958
0.000131002
0.000123242
0.000116173
0.000109693
0.000103734
9.82581e-05
9.32295e-05
8.85884e-05
8.42562e-05
8.01641e-05
7.62827e-05
7.26221e-05
6.91995e-05
6.59974e-05
6.29462e-05
5.99469e-05
5.69175e-05
5.38303e-05
5.07131e-05
4.76151e-05
4.45646e-05
4.15489e-05
3.85318e-05
3.54952e-05
3.24765e-05
2.95741e-05
2.69137e-05
2.45954e-05
2.26465e-05
2.1009e-05
1.95639e-05
1.81823e-05
1.67753e-05
1.53242e-05
1.3877e-05
1.25202e-05
1.13379e-05
1.03775e-05
9.63312e-06
9.05049e-06
8.5469e-06
8.03736e-06
7.45709e-06
6.77451e-06
5.9932e-06
5.14467e-06
4.27631e-06
3.43848e-06
2.67409e-06
2.01239e-06
1.46706e-06
1.0378e-06
7.14009e-07
4.79069e-07
3.1432e-07
2.01951e-07
1.2675e-07
7.67936e-08
4.33949e-08
2.06124e-08
4.60062e-09
-7.02399e-09
-1.5703e-08
-2.23139e-08
-2.74168e-08
-3.1399e-08
-3.45511e-08
-3.71022e-08
-3.92349e-08
-4.10912e-08
-4.27772e-08
-4.43678e-08
-4.59123e-08
-4.74403e-08
-4.89675e-08
-5.05007e-08
-5.2041e-08
-5.3587e-08
-5.51363e-08
-5.66865e-08
-5.82359e-08
-5.97832e-08
-6.13279e-08
-6.28699e-08
-6.44095e-08
-6.59471e-08
-6.74833e-08
-6.90186e-08
-7.05534e-08
-7.2088e-08
-7.36227e-08
-7.51576e-08
-7.66929e-08
-7.82285e-08
-7.97644e-08
-8.13006e-08
-8.28369e-08
-8.43733e-08
-8.59097e-08
-8.74459e-08
-8.89818e-08
-9.05174e-08
-9.20526e-08
-9.35872e-08
-9.51214e-08
-9.66549e-08
-9.81878e-08
-9.972e-08
-1.01252e-07
-1.02782e-07
-1.04312e-07
-1.05842e-07
-1.07371e-07
-1.08898e-07
-1.10426e-07
-1.11952e-07
-1.13478e-07
-1.15003e-07
-1.16527e-07
-1.18051e-07
-1.19574e-07
-1.21096e-07
-1.22618e-07
-1.24139e-07
-1.25659e-07
-1.27179e-07
-1.28698e-07
-1.30216e-07
-1.31734e-07
-1.33251e-07
-1.34768e-07
-1.36283e-07
-1.37799e-07
-1.39314e-07
-1.40828e-07
-1.42341e-07
-1.43854e-07
-1.45367e-07
-1.46878e-07
-1.4839e-07
-1.499e-07
-1.51411e-07
-1.5292e-07
-1.5443e-07
-1.55938e-07
-1.57446e-07
-1.58954e-07
-1.60461e-07
-1.61968e-07
-1.63475e-07
-1.6498e-07
-1.66486e-07
-1.67991e-07
-1.69496e-07
-1.71e-07
-1.72504e-07
-1.74007e-07
-1.7551e-07
-1.77013e-07
-1.78516e-07
-1.80018e-07
-1.8152e-07
-1.83021e-07
-1.84523e-07
-1.86024e-07
-1.87525e-07
-1.89025e-07
-1.90526e-07
-1.92026e-07
-1.93526e-07
-1.95026e-07
-1.96525e-07
-1.98025e-07
-1.99524e-07
-2.01024e-07
-2.02523e-07
-2.04022e-07
-2.05521e-07
-2.0702e-07
-2.08519e-07
-2.10017e-07
-2.11516e-07
-2.13015e-07
-2.14514e-07
-2.16013e-07
-2.17512e-07
-2.19011e-07
-2.2051e-07
-2.22009e-07
-2.23508e-07
-2.25007e-07
-2.26506e-07
-2.28006e-07
-2.29506e-07
-2.31005e-07
-2.32505e-07
-2.34005e-07
-2.35505e-07
-2.37006e-07
-2.38507e-07
-2.40007e-07
-2.41509e-07
-2.4301e-07
-2.44511e-07
-2.46013e-07
-2.47515e-07
-2.49018e-07
-2.5052e-07
-2.52023e-07
-2.53527e-07
-2.5503e-07
-2.56534e-07
-2.58038e-07
-2.59543e-07
-2.61048e-07
-2.62553e-07
-2.64059e-07
-2.65565e-07
-2.67072e-07
-2.68578e-07
-2.70086e-07
-2.71593e-07
-2.73101e-07
-2.7461e-07
-2.76119e-07
-2.77628e-07
-2.79138e-07
-2.80648e-07
-2.82159e-07
-2.8367e-07
-2.85182e-07
-2.86694e-07
-2.88207e-07
-2.8972e-07
-2.91234e-07
-2.92748e-07
-2.94262e-07
-2.95777e-07
-2.97293e-07
-2.98809e-07
-3.00326e-07
-3.01843e-07
-3.03361e-07
-3.04879e-07
-3.06398e-07
-3.07917e-07
-3.09437e-07
-3.10958e-07
-3.12479e-07
-3.14e-07
-3.15523e-07
-3.17045e-07
-3.18569e-07
-3.20093e-07
-3.21617e-07
-3.23143e-07
-3.24668e-07
-3.26195e-07
-3.27722e-07
-3.29249e-07
-3.30777e-07
-3.32306e-07
-3.33836e-07
-3.35366e-07
-3.36897e-07
-3.38428e-07
-3.3996e-07
-3.41493e-07
-3.43026e-07
-3.4456e-07
-3.46095e-07
-3.4763e-07
-3.49166e-07
-3.50702e-07
-3.5224e-07
-3.53778e-07
-3.55316e-07
-3.56856e-07
-3.58396e-07
-3.59937e-07
-3.61478e-07
-3.6302e-07
-3.64563e-07
-3.66107e-07
-3.67651e-07
-3.69196e-07
-3.70742e-07
-3.72288e-07
-3.73835e-07
-3.75383e-07
-3.76932e-07
-3.78482e-07
-3.80032e-07
-3.81583e-07
-3.83135e-07
-3.84687e-07
-3.8624e-07
-3.87795e-07
-3.89349e-07
-3.90905e-07
-3.92462e-07
-3.94019e-07
-3.95577e-07
-3.97136e-07
-3.98695e-07
-4.00257e-07
-4.01816e-07
-4.03382e-07
-4.0494e-07
-4.06512e-07
-4.08065e-07
-4.09648e-07
-4.11189e-07
-4.12793e-07
-4.14312e-07
-4.15947e-07
-4.1743e-07
-4.19114e-07
-4.20544e-07
-4.22292e-07
-4.23654e-07
-4.25483e-07
-4.26759e-07
-4.28684e-07
-4.29861e-07
-4.31896e-07
-4.32962e-07
-4.35118e-07
-4.36059e-07
-4.38354e-07
-4.39146e-07
-4.41614e-07
-4.42212e-07
-4.44908e-07
-4.45242e-07
-4.48256e-07
-4.48218e-07
-4.51677e-07
-4.51116e-07
-4.55196e-07
-4.53912e-07
-4.58834e-07
-4.56585e-07
-4.6261e-07
-4.59117e-07
-4.66542e-07
-4.6149e-07
-4.7064e-07
-4.63695e-07
-4.74914e-07
-4.65725e-07
-4.79363e-07
-4.67595e-07
-4.83957e-07
-4.69376e-07
-4.88605e-07
-4.71252e-07
-4.93089e-07
-4.73669e-07
-4.96918e-07
-4.77645e-07
-4.9901e-07
-4.85509e-07
-4.96909e-07
-5.02593e-07
-4.84603e-07
-5.41441e-07
-4.44178e-07
-6.31964e-07
-2.98221e-07
-8.3653e-07
6.94899e-07
-5.03081e-07
-5.03081e-07
-0.146488
0.146488
0.0383108
0.0142344
0.0074564
0.00467314
0.00323094
0.00237693
0.00182748
0.00145347
0.00118804
0.000993302
0.00084638
0.000732784
0.000643016
0.000570672
0.000511332
0.000461883
0.000420095
0.000384348
0.000353449
0.000326489
0.000302762
0.000281717
0.000262934
0.000246093
0.000230934
0.000217219
0.000204726
0.000193276
0.000182751
0.000173081
0.000164197
0.00015599
0.000148325
0.000141085
0.000134223
0.000127752
0.000121696
0.000116016
0.000110588
0.000105243
9.98472e-05
9.43579e-05
8.88237e-05
8.33256e-05
7.79081e-05
7.25497e-05
6.71952e-05
6.18253e-05
5.65149e-05
5.14363e-05
4.68006e-05
4.27667e-05
3.93682e-05
3.6496e-05
3.39449e-05
3.14996e-05
2.90177e-05
2.64753e-05
2.39582e-05
2.16114e-05
1.95709e-05
1.7908e-05
1.66044e-05
1.55631e-05
1.46433e-05
1.3704e-05
1.26415e-05
1.14089e-05
1.00178e-05
8.52548e-06
7.01374e-06
5.56734e-06
4.25698e-06
3.12944e-06
2.205e-06
1.48065e-06
9.36457e-07
5.43025e-07
2.68017e-07
8.09793e-08
-4.38732e-08
-1.2661e-07
-1.81779e-07
-2.19282e-07
-2.45508e-07
-2.64412e-07
-2.78382e-07
-2.88879e-07
-2.96839e-07
-3.02914e-07
-3.07594e-07
-3.11267e-07
-3.1424e-07
-3.16753e-07
-3.18982e-07
-3.21054e-07
-3.2305e-07
-3.25019e-07
-3.26986e-07
-3.28963e-07
-3.30951e-07
-3.32947e-07
-3.34948e-07
-3.3695e-07
-3.38949e-07
-3.40945e-07
-3.42936e-07
-3.44922e-07
-3.46903e-07
-3.48882e-07
-3.50857e-07
-3.52832e-07
-3.54805e-07
-3.56778e-07
-3.58751e-07
-3.60725e-07
-3.62699e-07
-3.64674e-07
-3.6665e-07
-3.68626e-07
-3.70602e-07
-3.72579e-07
-3.74555e-07
-3.76532e-07
-3.78508e-07
-3.80484e-07
-3.82459e-07
-3.84434e-07
-3.86408e-07
-3.88381e-07
-3.90353e-07
-3.92325e-07
-3.94295e-07
-3.96265e-07
-3.98233e-07
-4.00201e-07
-4.02168e-07
-4.04134e-07
-4.06098e-07
-4.08062e-07
-4.10026e-07
-4.11988e-07
-4.13949e-07
-4.1591e-07
-4.17869e-07
-4.19829e-07
-4.21787e-07
-4.23744e-07
-4.25701e-07
-4.27657e-07
-4.29612e-07
-4.31567e-07
-4.33521e-07
-4.35475e-07
-4.37427e-07
-4.39379e-07
-4.41331e-07
-4.43282e-07
-4.45232e-07
-4.47182e-07
-4.49131e-07
-4.5108e-07
-4.53028e-07
-4.54975e-07
-4.56922e-07
-4.58869e-07
-4.60815e-07
-4.62761e-07
-4.64706e-07
-4.6665e-07
-4.68595e-07
-4.70538e-07
-4.72482e-07
-4.74425e-07
-4.76368e-07
-4.7831e-07
-4.80252e-07
-4.82194e-07
-4.84135e-07
-4.86076e-07
-4.88017e-07
-4.89957e-07
-4.91897e-07
-4.93837e-07
-4.95777e-07
-4.97717e-07
-4.99656e-07
-5.01595e-07
-5.03534e-07
-5.05473e-07
-5.07412e-07
-5.09351e-07
-5.1129e-07
-5.13228e-07
-5.15167e-07
-5.17105e-07
-5.19044e-07
-5.20982e-07
-5.22921e-07
-5.24859e-07
-5.26798e-07
-5.28736e-07
-5.30675e-07
-5.32614e-07
-5.34553e-07
-5.36492e-07
-5.38431e-07
-5.4037e-07
-5.4231e-07
-5.44249e-07
-5.46189e-07
-5.48129e-07
-5.5007e-07
-5.5201e-07
-5.53951e-07
-5.55892e-07
-5.57833e-07
-5.59775e-07
-5.61717e-07
-5.63659e-07
-5.65602e-07
-5.67545e-07
-5.69488e-07
-5.71432e-07
-5.73376e-07
-5.75321e-07
-5.77266e-07
-5.79211e-07
-5.81157e-07
-5.83103e-07
-5.8505e-07
-5.86997e-07
-5.88945e-07
-5.90893e-07
-5.92842e-07
-5.94791e-07
-5.96741e-07
-5.98692e-07
-6.00643e-07
-6.02594e-07
-6.04546e-07
-6.06499e-07
-6.08452e-07
-6.10406e-07
-6.12361e-07
-6.14316e-07
-6.16271e-07
-6.18228e-07
-6.20185e-07
-6.22143e-07
-6.24101e-07
-6.2606e-07
-6.2802e-07
-6.2998e-07
-6.31941e-07
-6.33903e-07
-6.35865e-07
-6.37828e-07
-6.39792e-07
-6.41757e-07
-6.43722e-07
-6.45688e-07
-6.47655e-07
-6.49623e-07
-6.51591e-07
-6.5356e-07
-6.5553e-07
-6.57501e-07
-6.59472e-07
-6.61444e-07
-6.63417e-07
-6.65391e-07
-6.67366e-07
-6.69341e-07
-6.71318e-07
-6.73295e-07
-6.75273e-07
-6.77252e-07
-6.79231e-07
-6.81212e-07
-6.83193e-07
-6.85175e-07
-6.87158e-07
-6.89142e-07
-6.91127e-07
-6.93113e-07
-6.951e-07
-6.97087e-07
-6.99076e-07
-7.01065e-07
-7.03055e-07
-7.05046e-07
-7.07038e-07
-7.09031e-07
-7.11025e-07
-7.1302e-07
-7.15016e-07
-7.17013e-07
-7.19011e-07
-7.2101e-07
-7.2301e-07
-7.2501e-07
-7.27012e-07
-7.29015e-07
-7.31019e-07
-7.33023e-07
-7.35029e-07
-7.37036e-07
-7.39044e-07
-7.41053e-07
-7.43062e-07
-7.45073e-07
-7.47085e-07
-7.49099e-07
-7.51113e-07
-7.53128e-07
-7.55144e-07
-7.57162e-07
-7.5918e-07
-7.612e-07
-7.63221e-07
-7.65243e-07
-7.67266e-07
-7.6929e-07
-7.71315e-07
-7.73342e-07
-7.75369e-07
-7.77399e-07
-7.79428e-07
-7.81462e-07
-7.83491e-07
-7.8553e-07
-7.87556e-07
-7.89606e-07
-7.91623e-07
-7.93693e-07
-7.95689e-07
-7.97792e-07
-7.9975e-07
-8.01907e-07
-8.03805e-07
-8.06042e-07
-8.07851e-07
-8.10196e-07