# vtk DataFile Version 2.0
FlowField
ASCII
DATASET STRUCTURED_GRID
DIMENSIONS 400 1 200
POINTS 80000 float
0 0 0
0.08 0 0
0.16 0 0
0.24 0 0
0.32 0 0
0.4 0 0
0.48 0 0
0.56 0 0
0.64 0 0
0.72 0 0
0.8 0 0
0.88 0 0
0.96 0 0
1.04 0 0
1.12 0 0
1.2 0 0
1.28 0 0
1.36 0 0
1.44 0 0
1.52 0 0
1.6 0 0
1.68 0 0
1.76 0 0
1.84 0 0
1.92 0 0
2 0 0
2.08 0 0
2.16 0 0
2.24 0 0
2.32 0 0
2.4 0 0
2.48 0 0
2.56 0 0
2.64 0 0
2.72 0 0
2.8 0 0
2.88 0 0
2.96 0 0
3.04 0 0
3.12 0 0
3.2 0 0
3.28 0 0
3.36 0 0
3.44 0 0
3.52 0 0
3.6 0 0
3.68 0 0
3.76 0 0
3.84 0 0
3.92 0 0
4 0 0
4.08 0 0
4.16 0 0
4.24 0 0
4.32 0 0
4.4 0 0
4.48 0 0
4.56 0 0
4.64 0 0
4.72 0 0
4.8 0 0
4.88 0 0
4.96 0 0
5.04 0 0
5.12 0 0
5.2 0 0
5.28 0 0
5.36 0 0
5.44 0 0
5.52 0 0
5.6 0 0
5.68 0 0
5.76 0 0
5.84 0 0
5.92 0 0
6 0 0
6.08 0 0
6.16 0 0
6.24 0 0
6.32 0 0
6.4 0 0
6.48 0 0
6.56 0 0
6.64 0 0
6.72 0 0
6.8 0 0
6.88 0 0
6.96 0 0
7.04 0 0
7.12 0 0
7.2 0 0
7.28 0 0
7.36 0 0
7.44 0 0
7.52 0 0
7.6 0 0
7.68 0 0
7.76 0 0
7.84 0 0
7.92 0 0
8 0 0
8.08 0 0
8.16 0 0
8.24 0 0
8.32 0 0
8.4 0 0
8.48 0 0
8.56 0 0
8.64 0 0
8.72 0 0
8.8 0 0
8.88 0 0
8.96 0 0
9.04 0 0
9.12 0 0
9.2 0 0
9.28 0 0
9.36 0 0
9.44 0 0
9.52 0 0
9.6 0 0
9.68 0 0
9.76 0 0
9.84 0 0
9.92 0 0
10 0 0
10.08 0 0
10.16 0 0
10.24 0 0
10.32 0 0
10.4 0 0
10.48 0 0
10.56 0 0
10.64 0 0
10.72 0 0
10.8 0 0
10.88 0 0
10.96 0 0
11.04 0 0
11.12 0 0
11.2 0 0
11.28 0 0
11.36 0 0
11.44 0 0
11.52 0 0
11.6 0 0
11.68 0 0
11.76 0 0
11.84 0 0
11.92 0 0
12 0 0
12.08 0 0
12.16 0 0
12.24 0 0
12.32 0 0
12.4 0 0
12.48 0 0
12.56 0 0
12.64 0 0
12.72 0 0
12.8 0 0
12.88 0 0
12.96 0 0
13.04 0 0
13.12 0 0
13.2 0 0
13.28 0 0
13.36 0 0
13.44 0 0
13.52 0 0
13.6 0 0
13.68 0 0
13.76 0 0
13.84 0 0
13.92 0 0
14 0 0
14.08 0 0
14.16 0 0
14.24 0 0
14.32 0 0
14.4 0 0
14.48 0 0
14.56 0 0
14.64 0 0
14.72 0 0
14.8 0 0
14.88 0 0
14.96 0 0
15.04 0 0
15.12 0 0
15.2 0 0
15.28 0 0
15.36 0 0
15.44 0 0
15.52 0 0
15.6 0 0
15.68 0 0
15.76 0 0
15.84 0 0
15.92 0 0
16 0 0
16.08 0 0
16.16 0 0
16.24 0 0
16.32 0 0
16.4 0 0
16.48 0 0
16.56 0 0
16.64 0 0
16.72 0 0
16.8 0 0
16.88 0 0
16.96 0 0
17.04 0 0
17.12 0 0
17.2 0 0
17.28 0 0
17.36 0 0
17.44 0 0
17.52 0 0
17.6 0 0
17.68 0 0
17.76 0 0
17.84 0 0
17.92 0 0
18 0 0
18.08 0 0
18.16 0 0
18.24 0 0
18.32 0 0
18.4 0 0
18.48 0 0
18.56 0 0
18.64 0 0
18.72 0 0
18.8 0 0
18.88 0 0
18.96 0 0
19.04 0 0
19.12 0 0
19.2 0 0
19.28 0 0
19.36 0 0
19.44 0 0
19.52 0 0
19.6 0 0
19.68 0 0
19.76 0 0
19.84 0 0
19.92 0 0
20 0 0
20.08 0 0
20.16 0 0
20.24 0 0
20.32 0 0
20.4 0 0
20.48 0 0
20.56 0 0
20.64 0 0
20.72 0 0
20.8 0 0
20.88 0 0
20.96 0 0
21.04 0 0
21.12 0 0
21.2 0 0
21.28 0 0
21.36 0 0
21.44 0 0
21.52 0 0
21.6 0 0
21.68 0 0
21.76 0 0
21.84 0 0
21.92 0 0
22 0 0
22.08 0 0
22.16 0 0
22.24 0 0
22.32 0 0
22.4 0 0
22.48 0 0
22.56 0 0
22.64 0 0
22.72 0 0
22.8 0 0
22.88 0 0
22.96 0 0
23.04 0 0
23.12 0 0
23.2 0 0
23.28 0 0
23.36 0 0
23.44 0 0
23.52 0 0
23.6 0 0
23.68 0 0
23.76 0 0
23.84 0 0
23.92 0 0
24 0 0
24.08 0 0
24.16 0 0
24.24 0 0
24.32 0 0
24.4 0 0
24.48 0 0
24.56 0 0
24.64 0 0
24.72 0 0
24.8 0 0
24.88 0 0
24.96 0 0
25.04 0 0
25.12 0 0
25.2 0 0
25.28 0 0
25.36 0 0
25.44 0 0
25.52 0 0
25.6 0 0
25.68 0 0
25.76 0 0
25.84 0 0
25.92 0 0
26 0 0
26.08 0 0
26.16 0 0
26.24 0 0
26.32 0 0
26.4 0 0
26.48 0 0
26.56 0 0
26.64 0 0
26.72 0 0
26.8 0 0
26.88 0 0
26.96 0 0
27.04 0 0
27.12 0 0
27.2 0 0
27.28 0 0
27.36 0 0
27.44 0 0
27.52 0 0
27.6 0 0
27.68 0 0
27.76 0 0
27.84 0 0
27.92 0 0
28 0 0
28.08 0 0
28.16 0 0
28.24 0 0
28.32 0 0
28.4 0 0
28.48 0 0
28.56 0 0
28.64 0 0
28.72 0 0
28.8 0 0
28.88 0 0
28.96 0 0
29.04 0 0
29.12 0 0
29.2 0 0
29.28 0 0
29.36 0 0
29.44 0 0
29.52 0 0
29.6 0 0
29.68 0 0
29.76 0 0
29.84 0 0
29.92 0 0
30 0 0
30.08 0 0
30.16 0 0
30.24 0 0
30.32 0 0
30.4 0 0
30.48 0 0
30.56 0 0
30.64 0 0
30.72 0 0
30.8 0 0
30.88 0 0
30.96 0 0
31.04 0 0
31.12 0 0
31.2 0 0
31.28 0 0
31.36 0 0
31.44 0 0
31.52 0 0
31.6 0 0
31.68 0 0
31.76 0 0
31.84 0 0
31.92 0 0
0 0.005 0
0.08 0.005 0
0.16 0.005 0
0.24 0.005 0
0.32 0.005 0
0.4 0.005 0
0.48 0.005 0
0.56 0.005 0
0.64 0.005 0
0.72 0.005 0
0.8 0.005 0
0.88 0.005 0
0.96 0.005 0
1.04 0.005 0
1.12 0.005 0
1.2 0.005 0
1.28 0.005 0
1.36 0.005 0
1.44 0.005 0
1.52 0.005 0
1.6 0.005 0
1.68 0.005 0
1.76 0.005 0
1.84 0.005 0
1.92 0.005 0
2 0.005 0
2.08 0.005 0
2.16 0.005 0
2.24 0.005 0
2.32 0.005 0
2.4 0.005 0
2.48 0.005 0
2.56 0.005 0
2.64 0.005 0
2.72 0.005 0
2.8 0.005 0
2.88 0.005 0
2.96 0.005 0
3.04 0.005 0
3.12 0.005 0
3.2 0.005 0
3.28 0.005 0
3.36 0.005 0
3.44 0.005 0
3.52 0.005 0
3.6 0.005 0
3.68 0.005 0
3.76 0.005 0
3.84 0.005 0
3.92 0.005 0
4 0.005 0
4.08 0.005 0
4.16 0.005 0
4.24 0.005 0
4.32 0.005 0
4.4 0.005 0
4.48 0.005 0
4.56 0.005 0
4.64 0.005 0
4.72 0.005 0
4.8 0.005 0
4.88 0.005 0
4.96 0.005 0
5.04 0.005 0
5.12 0.005 0
5.2 0.005 0
5.28 0.005 0
5.36 0.005 0
5.44 0.005 0
5.52 0.005 0
5.6 0.005 0
5.68 0.005 0
5.76 0.005 0
5.84 0.005 0
5.92 0.005 0
6 0.005 0
6.08 0.005 0
6.16 0.005 0
6.24 0.005 0
6.32 0.005 0
6.4 0.005 0
6.48 0.005 0
6.56 0.005 0
6.64 0.005 0
6.72 0.005 0
6.8 0.005 0
6.88 0.005 0
6.96 0.005 0
7.04 0.005 0
7.12 0.005 0
7.2 0.005 0
7.28 0.005 0
7.36 0.005 0
7.44 0.005 0
7.52 0.005 0
7.6 0.005 0
7.68 0.005 0
7.76 0.005 0
7.84 0.005 0
7.92 0.005 0
8 0.005 0
8.08 0.005 0
8.16 0.005 0
8.24 0.005 0
8.32 0.005 0
8.4 0.005 0
8.48 0.005 0
8.56 0.005 0
8.64 0.005 0
8.72 0.005 0
8.8 0.005 0
8.88 0.005 0
8.96 0.005 0
9.04 0.005 0
9.12 0.005 0
9.2 0.005 0
9.28 0.005 0
9.36 0.005 0
9.44 0.005 0
9.52 0.005 0
9.6 0.005 0
9.68 0.005 0
9.76 0.005 0
9.84 0.005 0
9.92 0.005 0
10 0.005 0
10.08 0.005 0
10.16 0.005 0
10.24 0.005 0
10.32 0.005 0
10.4 0.005 0
10.48 0.005 0
10.56 0.005 0
10.64 0.005 0
10.72 0.005 0
10.8 0.005 0
10.88 0.005 0
10.96 0.005 0
11.04 0.005 0
11.12 0.005 0
11.2 0.005 0
11.28 0.005 0
11.36 0.005 0
11.44 0.005 0
11.52 0.005 0
11.6 0.005 0
11.68 0.005 0
11.76 0.005 0
11.84 0.005 0
11.92 0.005 0
12 0.005 0
12.08 0.005 0
12.16 0.005 0
12.24 0.005 0
12.32 0.005 0
12.4 0.005 0
12.48 0.005 0
12.56 0.005 0
12.64 0.005 0
12.72 0.005 0
12.8 0.005 0
12.88 0.005 0
12.96 0.005 0
13.04 0.005 0
13.12 0.005 0
13.2 0.005 0
13.28 0.005 0
13.36 0.005 0
13.44 0.005 0
13.52 0.005 0
13.6 0.005 0
13.68 0.005 0
13.76 0.005 0
13.84 0.005 0
13.92 0.005 0
14 0.005 0
14.08 0.005 0
14.16 0.005 0
14.24 0.005 0
14.32 0.005 0
14.4 0.005 0
14.48 0.005 0
14.56 0.005 0
14.64 0.005 0
14.72 0.005 0
14.8 0.005 0
14.88 0.005 0
14.96 0.005 0
15.04 0.005 0
15.12 0.005 0
15.2 0.005 0
15.28 0.005 0
15.36 0.005 0
15.44 0.005 0
15.52 0.005 0
15.6 0.005 0
15.68 0.005 0
15.76 0.005 0
15.84 0.005 0
15.92 0.005 0
16 0.005 0
16.08 0.005 0
16.16 0.005 0
16.24 0.005 0
16.32 0.005 0
16.4 0.005 0
16.48 0.005 0
16.56 0.005 0
16.64 0.005 0
16.72 0.005 0
16.8 0.005 0
16.88 0.005 0
16.96 0.005 0
17.04 0.005 0
17.12 0.005 0
17.2 0.005 0
17.28 0.005 0
17.36 0.005 0
17.44 0.005 0
17.52 0.005 0
17.6 0.005 0
17.68 0.005 0
17.76 0.005 0
17.84 0.005 0
17.92 0.005 0
18 0.005 0
18.08 0.005 0
18.16 0.005 0
18.24 0.005 0
18.32 0.005 0
18.4 0.005 0
18.48 0.005 0
18.56 0.005 0
18.64 0.005 0
18.72 0.005 0
18.8 0.005 0
18.88 0.005 0
18.96 0.005 0
19.04 0.005 0
19.12 0.005 0
19.2 0.005 0
19.28 0.005 0
19.36 0.005 0
19.44 0.005 0
19.52 0.005 0
19.6 0.005 0
19.68 0.005 0
19.76 0.005 0
19.84 0.005 0
19.92 0.005 0
20 0.005 0
20.08 0.005 0
20.16 0.005 0
20.24 0.005 0
20.32 0.005 0
20.4 0.005 0
20.48 0.005 0
20.56 0.005 0
20.64 0.005 0
20.72 0.005 0
20.8 0.005 0
20.88 0.005 0
20.96 0.005 0
21.04 0.005 0
21.12 0.005 0
21.2 0.005 0
21.28 0.005 0
21.36 0.005 0
21.44 0.005 0
21.52 0.005 0
21.6 0.005 0
21.68 0.005 0
21.76 0.005 0
21.84 0.005 0
21.92 0.005 0
22 0.005 0
22.08 0.005 0
22.16 0.005 0
22.24 0.005 0
22.32 0.005 0
22.4 0.005 0
22.48 0.005 0
22.56 0.005 0
22.64 0.005 0
22.72 0.005 0
22.8 0.005 0
22.88 0.005 0
22.96 0.005 0
23.04 0.005 0
23.12 0.005 0
23.2 0.005 0
23.28 0.005 0
23.36 0.005 0
23.44 0.005 0
23.52 0.005 0
23.6 0.005 0
23.68 0.005 0
23.76 0.005 0
23.84 0.005 0
23.92 0.005 0
24 0.005 0
24.08 0.005 0
24.16 0.005 0
24.24 0.005 0
24.32 0.005 0
24.4 0.005 0
24.48 0.005 0
24.56 0.005 0
24.64 0.005 0
24.72 0.005 0
24.8 0.005 0
24.88 0.005 0
24.96 0.005 0
25.04 0.005 0
25.12 0.005 0
25.2 0.005 0
25.28 0.005 0
25.36 0.005 0
25.44 0.005 0
25.52 0.005 0
25.6 0.005 0
25.68 0.005 0
25.76 0.005 0
25.84 0.005 0
25.92 0.005 0
26 0.005 0
26.08 0.005 0
26.16 0.005 0
26.24 0.005 0
26.32 0.005 0
26.4 0.005 0
26.48 0.005 0
26.56 0.005 0
26.64 0.005 0
26.72 0.005 0
26.8 0.005 0
26.88 0.005 0
26.96 0.005 0
27.04 0.005 0
27.12 0.005 0
27.2 0.005 0
27.28 0.005 0
27.36 0.005 0
27.44 0.005 0
27.52 0.005 0
27.6 0.005 0
27.68 0.005 0
27.76 0.005 0
27.84 0.005 0
27.92 0.005 0
28 0.005 0
28.08 0.005 0
28.16 0.005 0
28.24 0.005 0
28.32 0.005 0
28.4 0.005 0
28.48 0.005 0
28.56 0.005 0
28.64 0.005 0
28.72 0.005 0
28.8 0.005 0
28.88 0.005 0
28.96 0.005 0
29.04 0.005 0
29.12 0.005 0
29.2 0.005 0
29.28 0.005 0
29.36 0.005 0
29.44 0.005 0
29.52 0.005 0
29.6 0.005 0
29.68 0.005 0
29.76 0.005 0
29.84 0.005 0
29.92 0.005 0
30 0.005 0
30.08 0.005 0
30.16 0.005 0
30.24 0.005 0
30.32 0.005 0
30.4 0.005 0
30.48 0.005 0
30.56 0.005 0
30.64 0.005 0
30.72 0.005 0
30.8 0.005 0
30.88 0.005 0
30.96 0.005 0
31.04 0.005 0
31.12 0.005 0
31.2 0.005 0
31.28 0.005 0
31.36 0.005 0
31.44 0.005 0
31.52 0.005 0
31.6 0.005 0
31.68 0.005 0
31.76 0.005 0
31.84 0.005 0
31.92 0.005 0
0 0.01 0
0.08 0.01 0
0.16 0.01 0
0.24 0.01 0
0.32 0.01 0
0.4 0.01 0
0.48 0.01 0
0.56 0.01 0
0.64 0.01 0
0.72 0.01 0
0.8 0.01 0
0.88 0.01 0
0.96 0.01 0
1.04 0.01 0
1.12 0.01 0
1.2 0.01 0
1.28 0.01 0
1.36 0.01 0
1.44 0.01 0
1.52 0.01 0
1.6 0.01 0
1.68 0.01 0
1.76 0.01 0
1.84 0.01 0
1.92 0.01 0
2 0.01 0
2.08 0.01 0
2.16 0.01 0
2.24 0.01 0
2.32 0.01 0
2.4 0.01 0
2.48 0.01 0
2.56 0.01 0
2.64 0.01 0
2.72 0.01 0
2.8 0.01 0
2.88 0.01 0
2.96 0.01 0
3.04 0.01 0
3.12 0.01 0
3.2 0.01 0
3.28 0.01 0
3.36 0.01 0
3.44 0.01 0
3.52 0.01 0
3.6 0.01 0
3.68 0.01 0
3.76 0.01 0
3.84 0.01 0
3.92 0.01 0
4 0.01 0
4.08 0.01 0
4.16 0.01 0
4.24 0.01 0
4.32 0.01 0
4.4 0.01 0
4.48 0.01 0
4.56 0.01 0
4.64 0.01 0
4.72 0.01 0
4.8 0.01 0
4.88 0.01 0
4.96 0.01 0
5.04 0.01 0
5.12 0.01 0
[...]
POINT_DATA 80000

SCALARS u float 1
LOOKUP_TABLE default
0
-0.131663
-0.0682695
-0.0522964
-0.0444203
-0.0395772
-0.0362602
-0.0338332
-0.0319732
-0.0304966
-0.0292906
-0.0282823
-0.0274228
-0.0266782
-0.0260243
-0.0254435
-0.0249226
-0.0244517
-0.0240231
-0.0236307
-0.0232697
-0.022936
-0.0226265
-0.0223384
-0.0220694
-0.0218176
-0.0215812
-0.0213589
-0.0211493
-0.0209513
-0.0207642
-0.0205869
-0.0204187
-0.0202588
-0.0201067
-0.019962
-0.0198243
-0.0196932
-0.0195682
-0.019449
-0.0193352
-0.0192266
-0.0191235
-0.0190258
-0.0189337
-0.0188472
-0.0187661
-0.0186904
-0.01862
-0.0185552
-0.0184959
-0.018442
-0.018393
-0.0183484
-0.0183073
-0.0182693
-0.0182339
-0.0182009
-0.0181706
-0.0181429
-0.0181179
-0.0180956
-0.0180754
-0.0180571
-0.0180401
-0.0180241
-0.018009
-0.0179946
-0.0179813
-0.0179691
-0.0179583
-0.0179491
-0.0179415
-0.0179355
-0.017931
-0.0179278
-0.0179256
-0.0179243
-0.0179237
-0.0179235
-0.0179236
-0.017924
-0.0179245
-0.0179252
-0.0179259
-0.0179266
-0.0179273
-0.0179281
-0.0179289
-0.0179297
-0.0179305
-0.0179314
-0.0179322
-0.017933
-0.0179338
-0.0179347
-0.0179355
-0.0179363
-0.0179371
-0.017938
-0.0179388
-0.0179396
-0.0179405
-0.0179413
-0.0179421
-0.017943
-0.0179438
-0.0179446
-0.0179455
-0.0179463
-0.0179471
-0.017948
-0.0179488
-0.0179497
-0.0179505
-0.0179513
-0.0179522
-0.017953
-0.0179538
-0.0179547
-0.0179555
-0.0179564
-0.0179572
-0.017958
-0.0179589
-0.0179597
-0.0179606
-0.0179614
-0.0179623
-0.0179631
-0.0179639
-0.0179648
-0.0179656
-0.0179665
-0.0179673
-0.0179682
-0.017969
-0.0179699
-0.0179707
-0.0179716
-0.0179724
-0.0179733
-0.0179741
-0.017975
-0.0179758
-0.0179767
-0.0179775
-0.0179784
-0.0179792
-0.0179801
-0.0179809
-0.0179818
-0.0179827
-0.0179835
-0.0179844
-0.0179852
-0.0179861
-0.0179869
-0.0179878
-0.0179887
-0.0179895
-0.0179904
-0.0179912
-0.0179921
-0.017993
-0.0179938
-0.0179947
-0.0179955
-0.0179964
-0.0179973
-0.0179981
-0.017999
-0.0179999
-0.0180007
-0.0180016
-0.0180025
-0.0180033
-0.0180042
-0.0180051
-0.0180059
-0.0180068
-0.0180077
-0.0180085
-0.0180094
-0.0180103
-0.0180111
-0.018012
-0.0180129
-0.0180138
-0.0180146
-0.0180155
-0.0180164
-0.0180173
-0.0180181
-0.018019
-0.0180199
-0.0180208
-0.0180216
-0.0180225
-0.0180234
-0.0180243
-0.0180251
-0.018026
-0.0180269
-0.0180278
-0.0180287
-0.0180295
-0.0180304
-0.0180313
-0.0180322
-0.0180331
-0.018034
-0.0180348
-0.0180357
-0.0180366
-0.0180375
-0.0180384
-0.0180393
-0.0180402
-0.0180411
-0.0180419
-0.0180428
-0.0180437
-0.0180446
-0.0180455
-0.0180464
-0.0180473
-0.0180482
-0.0180491
-0.01805
-0.0180509
-0.0180517
-0.0180526
-0.0180535
-0.0180544
-0.0180553
-0.0180562
-0.0180571
-0.018058
-0.0180589
-0.0180598
-0.0180607
-0.0180616
-0.0180625
-0.0180634
-0.0180643
-0.0180652
-0.0180661
-0.018067
-0.0180679
-0.0180688
-0.0180697
-0.0180706
-0.0180715
-0.0180725
-0.0180734
-0.0180743
-0.0180752
-0.0180761
-0.018077
-0.0180779
-0.0180788
-0.0180797
-0.0180806
-0.0180815
-0.0180825
-0.0180834
-0.0180843
-0.0180852
-0.0180861
-0.018087
-0.0180879
-0.0180888
-0.0180898
-0.0180907
-0.0180916
-0.0180925
-0.0180934
-0.0180944
-0.0180953
-0.0180962
-0.0180971
-0.018098
-0.018099
-0.0180999
-0.0181008
-0.0181017
-0.0181026
-0.0181036
-0.0181045
-0.0181054
-0.0181063
-0.0181073
-0.0181082
-0.0181091
-0.0181101
-0.018111
-0.0181119
-0.0181128
-0.0181138
-0.0181147
-0.0181156
-0.0181166
-0.0181175
-0.0181184
-0.0181194
-0.0181203
-0.0181212
-0.0181222
-0.0181231
-0.018124
-0.018125
-0.0181259
-0.0181268
-0.0181278
-0.0181287
-0.0181297
-0.0181306
-0.0181315
-0.0181325
-0.0181334
-0.0181344
-0.0181353
-0.0181363
-0.0181372
-0.0181381
-0.0181391
-0.01814
-0.018141
-0.0181419
-0.0181429
-0.0181438
-0.0181448
-0.0181457
-0.0181467
-0.0181476
-0.0181486
-0.0181495
-0.0181505
-0.0181514
-0.0181524
-0.0181533
-0.0181543
-0.0181552
-0.0181562
-0.0181572
-0.0181581
-0.0181591
-0.01816
-0.018161
-0.0181619
-0.0181629
-0.0181639
-0.0181648
-0.0181658
-0.0181667
-0.0181677
-0.0181687
-0.0181696
-0.0181706
-0.0181716
-0.0181725
-0.0181735
-0.0181745
-0.0181754
-0.0181764
-0.0181774
-0.0181783
-0.0181793
-0.0181803
-0.0181812
-0.0181822
-0.0181832
-0.0181842
-0.0181851
-0.0181861
-0.0181871
-0.0181881
-0.018189
-0.01819
-0.018191
-0.018192
-0.0181929
-0.0181939
-0.0181949
-0.0181959
-0.0181968
-0.0181978
-0.0181988
-0.0181998
-0.0182008
-0.0182018
-0.0182028
-0.0182037
-0.018205
-0.0182055
-0.0182072
-0.0182056
-0.0182056
-0.0182056
1
0.131663
0.0682695
0.0522964
0.0444203
0.0395772
0.0362602
0.0338332
0.0319732
0.0304966
0.0292906
0.0282823
0.0274228
0.0266782
0.0260243
0.0254435
0.0249226
0.0244517
0.0240231
0.0236307
0.0232697
0.022936
0.0226265
0.0223384
0.0220694
0.0218176
0.0215812
0.0213589
0.0211493
0.0209513
0.0207642
0.0205869
0.0204187
0.0202588
0.0201067
0.019962
0.0198243
0.0196932
0.0195682
0.019449
0.0193352
0.0192266
0.0191235
0.0190258
0.0189337
0.0188472
0.0187661
0.0186904
0.01862
0.0185552
0.0184959
0.018442
0.018393
0.0183484
0.0183073
0.0182693
0.0182339
0.0182009
0.0181706
0.0181429
0.0181179
0.0180956
0.0180754
0.0180571
0.0180401
0.0180241
0.018009
0.0179946
0.0179813
0.0179691
0.0179583
0.0179491
0.0179415
0.0179355
0.017931
0.0179278
0.0179256
0.0179243
0.0179237
0.0179235
0.0179236
0.017924
0.0179245
0.0179252
0.0179259
0.0179266
0.0179273
0.0179281
0.0179289
0.0179297
0.0179305
0.0179314
0.0179322
0.017933
0.0179338
0.0179347
0.0179355
0.0179363
0.0179371
0.017938
0.0179388
0.0179396
0.0179405
0.0179413
0.0179421
0.017943
0.0179438
0.0179446
0.0179455
0.0179463
0.0179471
0.017948
0.0179488
0.0179497
0.0179505
0.0179513
0.0179522
0.017953
0.0179538
0.0179547
0.0179555
0.0179564
0.0179572
0.017958
0.0179589
0.0179597
0.0179606
0.0179614
0.0179623
0.0179631
0.0179639
0.0179648
0.0179656
0.0179665
0.0179673
0.0179682
0.017969
0.0179699
0.0179707
0.0179716
0.0179724
0.0179733
0.0179741
0.017975
0.0179758
0.0179767
0.0179775
0.0179784
0.0179792
0.0179801
0.0179809
0.0179818
0.0179827
0.0179835
0.0179844
0.0179852
0.0179861
0.0179869
0.0179878
0.0179887
0.0179895
0.0179904
0.0179912
0.0179921
0.017993
0.0179938
0.0179947
0.0179955
0.0179964
0.0179973
0.0179981
0.017999
0.0179999
0.0180007
0.0180016
0.0180025
0.0180033
0.0180042
0.0180051
0.0180059
0.0180068
0.0180077
0.0180085
0.0180094
0.0180103
0.0180111
0.018012
0.0180129
0.0180138
0.0180146
0.0180155
0.0180164
0.0180173
0.0180181
0.018019
0.0180199
0.0180208
0.0180216
0.0180225
0.0180234
0.0180243
0.0180251
0.018026
0.0180269
0.0180278
0.0180287
0.0180295
0.0180304
0.0180313
0.0180322
0.0180331
0.018034
0.0180348
0.0180357
0.0180366
0.0180375
0.0180384
0.0180393
0.0180402
0.0180411
0.0180419
0.0180428
0.0180437
0.0180446
0.0180455
0.0180464
0.0180473
0.0180482
0.0180491
0.01805
0.0180509
0.0180517
0.0180526
0.0180535
0.0180544
0.0180553
0.0180562
0.0180571
0.018058
0.0180589
0.0180598
0.0180607
0.0180616
0.0180625
0.0180634
0.0180643
0.0180652
0.0180661
0.018067
0.0180679
0.0180688
0.0180697
0.0180706
0.0180715
0.0180725
0.0180734
0.0180743
0.0180752
0.0180761
0.018077
0.0180779
0.0180788
0.0180797
0.0180806
0.0180815
0.0180825
0.0180834
0.0180843
0.0180852
0.0180861
0.018087
0.0180879
0.0180888
0.0180898
0.0180907
0.0180916
0.0180925
0.0180934
0.0180944
0.0180953
0.0180962
0.0180971
0.018098
0.018099
0.0180999
0.0181008
0.0181017
0.0181026
0.0181036
0.0181045
0.0181054
0.0181063
0.0181073
0.0181082
0.0181091
0.0181101
0.018111
0.0181119
0.0181128
0.0181138
0.0181147
0.0181156
0.0181166
0.0181175
0.0181184
0.0181194
0.0181203
0.0181212
0.0181222
0.0181231
0.018124
0.018125
0.0181259
0.0181268
0.0181278
0.0181287
0.0181297
0.0181306
0.0181315
0.0181325
0.0181334
0.0181344
0.0181353
0.0181363
0.0181372
0.0181381
0.0181391
0.01814
0.018141
0.0181419
0.0181429
0.0181438
0.0181448
0.0181457
0.0181467
0.0181476
0.0181486
0.0181495
0.0181505
0.0181514
0.0181524
0.0181533
0.0181543
0.0181552
0.0181562
0.0181572
0.0181581
0.0181591
0.01816
0.018161
0.0181619
0.0181629
0.0181639
0.0181648
0.0181658
0.0181667
0.0181677
0.0181687
0.0181696
0.0181706
0.0181716
0.0181725
0.0181735
0.0181745
0.0181754
0.0181764
0.0181774
0.0181783
0.0181793
0.0181803
0.0181812
0.0181822
0.0181832
0.0181842
0.0181851
0.0181861
0.0181871
0.0181881
0.018189
0.01819
0.018191
0.018192
0.0181929
0.0181939
0.0181949
0.0181959
0.0181968
0.0181978
0.0181988
0.0181998
0.0182008
0.0182018
0.0182028
0.0182037
0.018205
0.0182055
0.0182072
0.0182056
0.0182056
0.0182056
1
0.344884
0.200668
0.154968
0.131896
0.1176
0.107769
0.10056
0.0950268
0.090631
0.08704
0.0840382
0.0814802
0.0792651
0.0773208
0.0755948
0.0740477
0.0726498
0.0713781
0.0702143
0.0691439
0.068155
0.0672378
0.0663843
0.0655877
0.0648421
0.0641424
0.0634842
0.0628639
0.0622783
0.0617245
0.0612001
0.0607027
0.06023
0.0597806
0.059353
0.0589463
0.0585592
0.0581904
0.0578387
0.0575032
0.0571839
0.0568808
0.0565942
0.0563244
0.0560711
0.0558342
0.0556134
0.0554088
0.0552206
0.0550487
0.0548924
0.0547505
0.0546209
0.0545017
0.0543913
0.0542885
0.0541932
0.0541055
0.0540257
0.0539537
0.0538891
0.0538307
0.0537775
0.0537281
0.0536818
0.0536381
0.0535971
0.0535593
0.053525
0.0534951
0.0534697
0.0534491
0.0534329
0.053421
0.0534126
0.0534071
0.0534039
0.0534025
0.0534023
0.0534029
0.0534042
0.0534059
0.0534078
0.0534099
0.0534121
0.0534144
0.0534167
0.0534191
0.0534215
0.0534239
0.0534264
0.0534288
0.0534313
0.0534338
0.0534362
0.0534387
0.0534412
0.0534436
0.0534461
0.0534486
0.0534511
0.0534536
0.053456
0.0534585
0.053461
0.0534635
0.053466
0.0534685
0.0534709
0.0534734
0.0534759
0.0534784
0.0534809
0.0534834
0.0534859
0.0534884
0.0534909
0.0534934
0.0534959
0.0534984
0.0535009
0.0535034
0.0535059
0.0535085
0.053511
0.0535135
0.053516
0.0535185
0.053521
0.0535235
0.0535261
0.0535286
0.0535311
0.0535336
0.0535362
0.0535387
0.0535412
0.0535437
0.0535463
0.0535488
0.0535513
0.0535539
0.0535564
0.053559
0.0535615
0.053564
0.0535666
0.0535691
0.0535717
0.0535742
0.0535768
0.0535793
0.0535819
0.0535844
0.053587
0.0535895
0.0535921
0.0535946
0.0535972
0.0535998
0.0536023
0.0536049
0.0536074
0.05361
0.0536126
0.0536152
0.0536177
0.0536203
0.0536229
0.0536254
0.053628
0.0536306
0.0536332
0.0536358
0.0536383
0.0536409
0.0536435
0.0536461
0.0536487
0.0536513
0.0536539
0.0536565
0.053659
0.0536616
0.0536642
0.0536668
0.0536694
0.053672
0.0536746
0.0536772
0.0536798
0.0536825
0.0536851
0.0536877
0.0536903
0.0536929
0.0536955
0.0536981
0.0537007
0.0537034
0.053706
0.0537086
0.0537112
0.0537138
0.0537165
0.0537191
0.0537217
0.0537244
0.053727
0.0537296
0.0537323
0.0537349
0.0537375
0.0537402
0.0537428
0.0537455
0.0537481
0.0537507
0.0537534
0.053756
0.0537587
0.0537613
0.053764
0.0537667
0.0537693
0.053772
0.0537746
0.0537773
0.0537799
0.0537826
0.0537853
0.0537879
0.0537906
0.0537933
0.0537959
0.0537986
0.0538013
0.053804
0.0538066
0.0538093
0.053812
0.0538147
0.0538174
0.0538201
0.0538227
0.0538254
0.0538281
0.0538308
0.0538335
0.0538362
0.0538389
0.0538416
0.0538443
0.053847
0.0538497
0.0538524
0.0538551
0.0538578
0.0538605
0.0538632
0.0538659
0.0538686
0.0538714
0.0538741
0.0538768
0.0538795
0.0538822
0.053885
0.0538877
0.0538904
0.0538931
0.0538959
0.0538986
0.0539013
0.0539041
0.0539068
0.0539095
0.0539123
0.053915
0.0539177
0.0539205
0.0539232
0.053926
0.0539287
0.0539315
0.0539342
0.053937
0.0539397
0.0539425
0.0539452
0.053948
0.0539508
0.0539535
0.0539563
0.0539591
0.0539618
0.0539646
0.0539674
0.0539701
0.0539729
0.0539757
0.0539785
0.0539812
0.053984
0.0539868
0.0539896
0.0539924
0.0539951
0.0539979
0.0540007
0.0540035
0.0540063
0.0540091
0.0540119
0.0540147
0.0540175
0.0540203
0.0540231
0.0540259
0.0540287
0.0540315
0.0540343
0.0540371
0.05404
0.0540428
0.0540456
0.0540484
0.0540512
0.054054
0.0540569
0.0540597
0.0540625
0.0540653
0.0540682
0.054071
0.0540738
0.0540767
0.0540795
0.0540823
0.0540852
0.054088
0.0540909
0.0540937
0.0540965
0.0540994
0.0541022
0.0541051
0.0541079
0.0541108
0.0541137
0.0541165
0.0541194
0.0541222
0.0541251
0.054128
0.0541308
0.0541337
0.0541366
0.0541394
0.0541423
0.0541452
0.0541481
0.054151
0.0541538
0.0541567
0.0541596
0.0541625
0.0541654
0.0541683
0.0541711
0.0541741
0.0541769
0.0541798
0.0541827
0.0541856
0.0541885
0.0541915
0.0541943
0.0541973
0.0542001
0.0542031
0.054206
0.0542089
0.0542118
0.0542148
0.0542176
0.0542206
0.0542235
0.0542264
0.0542294
0.0542323
0.0542355
0.0542381
0.0542418
0.0542436
0.0542483
0.0542446
0.0542446
0.0542446
1
0.518766
0.327403
0.255349
0.217851
0.194406
0.178214
0.16631
0.157161
0.149887
0.143942
0.138973
0.134739
0.131074
0.127858
0.125004
0.122447
0.120138
0.118038
0.116116
0.11435
0.112718
0.111205
0.109797
0.108483
0.107254
0.1061
0.105015
0.103993
0.103028
0.102115
0.101251
0.100432
0.0996533
0.0989133
0.0982096
0.0975402
0.0969033
0.0962966
0.0957184
0.0951674
0.0946433
0.0941463
0.093677
0.0932355
0.0928216
0.0924349
0.092075
0.0917422
0.0914364
0.0911573
0.0909036
0.090673
0.0904624
0.0902687
0.0900891
0.0899224
0.0897679
0.0896259
0.0894968
0.0893803
0.0892755
0.0891808
0.0890942
0.089014
0.0889389
0.0888683
0.0888025
0.0887421
0.088688
0.088641
0.0886015
0.0885696
0.088545
0.0885269
0.0885143
0.0885063
0.0885018
0.0884999
0.0885
0.0885014
0.0885037
0.0885065
0.0885098
0.0885133
0.088517
0.0885208
0.0885247
0.0885286
0.0885326
0.0885367
0.0885407
0.0885448
0.0885489
0.0885529
0.088557
0.0885611
0.0885652
0.0885693
0.0885734
0.0885775
0.0885816
0.0885857
0.0885898
0.0885939
0.0885981
0.0886022
0.0886063
0.0886104
0.0886145
0.0886187
0.0886228
0.0886269
0.0886311
0.0886352
0.0886393
0.0886435
0.0886476
0.0886518
0.0886559
0.0886601
0.0886642
0.0886684
0.0886725
0.0886767
0.0886808
0.088685
0.0886892
0.0886933
0.0886975
0.0887017
0.0887058
0.08871
0.0887142
0.0887184
0.0887226
0.0887268
0.0887309
0.0887351
0.0887393
0.0887435
0.0887477
0.0887519
0.0887561
0.0887603
0.0887645
0.0887687
0.088773
0.0887772
0.0887814
0.0887856
0.0887898
0.088794
0.0887983
0.0888025
0.0888067
0.088811
0.0888152
0.0888194
0.0888237
0.0888279
0.0888322
0.0888364
0.0888407
0.0888449
0.0888492
0.0888534
0.0888577
0.0888619
0.0888662
0.0888705
0.0888747
0.088879
0.0888833
0.0888875
0.0888918
0.0888961
0.0889004
0.0889047
0.088909
0.0889132
0.0889175
0.0889218
0.0889261
0.0889304
0.0889347
0.088939
0.0889433
0.0889476
0.0889519
0.0889563
0.0889606
0.0889649
0.0889692
0.0889735
0.0889779
0.0889822
0.0889865
0.0889909
0.0889952
0.0889995
0.0890039
0.0890082
0.0890125
0.0890169
0.0890212
0.0890256
0.08903
0.0890343
0.0890387
0.089043
0.0890474
0.0890518
0.0890561
0.0890605
0.0890649
0.0890692
0.0890736
0.089078
0.0890824
0.0890868
0.0890912
0.0890956
0.0891
0.0891043
0.0891087
0.0891131
0.0891176
0.089122
0.0891264
0.0891308
0.0891352
0.0891396
0.089144
0.0891484
0.0891529
0.0891573
0.0891617
0.0891662
0.0891706
0.089175
0.0891795
0.0891839
0.0891884
0.0891928
0.0891972
0.0892017
0.0892062
0.0892106
0.0892151
0.0892195
0.089224
0.0892285
0.0892329
0.0892374
0.0892419
0.0892464
0.0892508
0.0892553
0.0892598
0.0892643
0.0892688
0.0892733
0.0892778
0.0892823
0.0892868
0.0892913
0.0892958
0.0893003
0.0893048
0.0893093
0.0893138
0.0893183
0.0893229
0.0893274
0.0893319
0.0893364
0.089341
0.0893455
0.08935
0.0893546
0.0893591
0.0893637
0.0893682
0.0893728
0.0893773
0.0893819
0.0893864
0.089391
0.0893955
0.0894001
0.0894047
0.0894092
0.0894138
0.0894184
0.089423
0.0894276
0.0894321
0.0894367
0.0894413
0.0894459
0.0894505
0.0894551
0.0894597
0.0894643
0.0894689
0.0894735
0.0894781
0.0894827
0.0894874
0.089492
0.0894966
0.0895012
0.0895058
0.0895105
0.0895151
0.0895197
0.0895244
0.089529
0.0895337
0.0895383
0.089543
0.0895476
0.0895523
0.0895569
0.0895616
0.0895662
0.0895709
0.0895756
0.0895802
0.0895849
0.0895896
0.0895943
0.0895989
0.0896036
0.0896083
0.089613
0.0896177
0.0896224
0.0896271
0.0896318
0.0896365
0.0896412
0.0896459
0.0896506
0.0896553
0.08966
0.0896648
0.0896695
0.0896742
0.0896789
0.0896837
0.0896884
0.0896931
0.0896979
0.0897026
0.0897074
0.0897121
0.0897169
0.0897216
0.0897264
0.0897311
0.0897359
0.0897407
0.0897454
0.0897502
0.089755
0.0897598
0.0897645
0.0897693
0.0897741
0.0897789
0.0897837
0.0897885
0.0897933
0.0897981
0.0898029
0.0898077
0.0898125
0.0898173
0.0898221
0.089827
0.0898317
0.0898366
0.0898414
0.0898463
0.089851
0.089856
0.0898607
0.0898656
0.0898705
0.0898753
0.0898805
0.0898849
0.0898909
0.089894
0.0899017
0.0898966
0.0898966
0.0898966
1
0.660888
0.446896
0.35288
0.302032
0.269853
0.247505
0.231022
0.218332
0.20823
0.199971
0.193065
0.187182
0.18209
0.177623
0.173661
0.170112
0.166908
0.163994
0.16133
0.15888
0.156619
0.154522
0.152571
0.150751
0.149048
0.14745
0.145948
0.144532
0.143196
0.141933
0.140738
0.139603
0.138526
0.137502
0.136529
0.135604
0.134723
0.133885
0.133086
0.132325
0.131602
0.130917
0.130271
0.129664
0.129095
0.128564
0.128071
0.127615
0.127197
0.126816
0.126469
0.126154
0.125866
0.125601
0.125355
0.125127
0.124917
0.124723
0.124547
0.124389
0.124245
0.124116
0.123997
0.123888
0.123785
0.123689
0.1236
0.123519
0.123447
0.123385
0.123333
0.123292
0.12326
0.123237
0.123221
0.123211
0.123205
0.123204
0.123204
0.123206
0.12321
0.123214
0.123218
0.123223
0.123228
0.123234
0.123239
0.123245
0.12325
0.123256
0.123262
0.123267
0.123273
0.123279
0.123284
0.12329
0.123296
0.123301
0.123307
0.123313
0.123318
0.123324
0.12333
0.123336
0.123341
0.123347
0.123353
0.123358
0.123364
0.12337
0.123376
0.123381
0.123387
0.123393
0.123399
0.123404
0.12341
0.123416
0.123422
0.123427
0.123433
0.123439
0.123445
0.123451
0.123456
0.123462
0.123468
0.123474
0.12348
0.123485
0.123491
0.123497
0.123503
0.123509
0.123514
0.12352
0.123526
0.123532
0.123538
0.123544
0.123549
0.123555
0.123561
0.123567
0.123573
0.123579
0.123584
0.12359
0.123596
0.123602
0.123608
0.123614
0.12362
0.123626
0.123631
0.123637
0.123643
0.123649
0.123655
0.123661
0.123667
0.123673
0.123679
0.123684
0.12369
0.123696
0.123702
0.123708
0.123714
0.12372
0.123726
0.123732
0.123738
0.123744
0.12375
0.123756
0.123762
0.123768
0.123774
0.12378
0.123785
0.123791
0.123797
0.123803
0.123809
0.123815
0.123821
0.123827
0.123833
0.123839
0.123845
0.123851
0.123857
0.123863
0.123869
0.123875
0.123881
0.123887
0.123893
0.123899
0.123905
0.123912
0.123918
0.123924
0.12393
0.123936
0.123942
0.123948
0.123954
0.12396
0.123966
0.123972
0.123978
0.123984
0.12399
0.123996
0.124002
0.124009
0.124015
0.124021
0.124027
0.124033
0.124039
0.124045
0.124051
0.124057
0.124064
0.12407
0.124076
0.124082
0.124088
0.124094
0.1241
0.124106
0.124113
0.124119
0.124125
0.124131
0.124137
0.124143
0.12415
0.124156
0.124162
0.124168
0.124174
0.124181
0.124187
0.124193
0.124199
0.124205
0.124211
0.124218
0.124224
0.12423
0.124236
0.124243
0.124249
0.124255
0.124261
0.124267
0.124274
0.12428
0.124286
0.124292
0.124299
0.124305
0.124311
0.124318
0.124324
0.12433
0.124336
0.124343
0.124349
0.124355
0.124361
0.124368
0.124374
0.12438
0.124387
0.124393
0.124399
0.124406
0.124412
0.124418
0.124425
0.124431
0.124437
0.124444
0.12445
0.124456
0.124463
0.124469
0.124475
0.124482
0.124488
0.124494
0.124501
0.124507
0.124514
0.12452
0.124526
0.124533
0.124539
0.124545
0.124552
0.124558
0.124565
0.124571
0.124577
0.124584
0.12459
0.124597
0.124603
0.12461
0.124616
0.124623
0.124629
0.124635
0.124642
0.124648
0.124655
0.124661
0.124668
0.124674
0.124681
0.124687
0.124694
0.1247
0.124707
0.124713
0.12472
0.124726
0.124733
0.124739
0.124746
0.124752
0.124759
0.124765
0.124772
0.124778
0.124785
0.124791
0.124798
0.124804
0.124811
0.124817
0.124824
0.124831
0.124837
0.124844
0.12485
0.124857
0.124863
0.12487
0.124877
0.124883
0.12489
0.124896
0.124903
0.12491
0.124916
0.124923
0.124929
0.124936
0.124943
0.124949
0.124956
0.124963
0.124969
0.124976
0.124983
0.124989
0.124996
0.125003
0.125009
0.125016
0.125023
0.125029
0.125036
0.125043
0.125049
0.125056
0.125063
0.125069
0.125076
0.125083
0.12509
0.125096
0.125103
0.12511
0.125117
0.125124
0.12513
0.125138
0.125143
0.125153
0.125147
0.125147
0.125147
1
0.776803
0.557827
0.44688
0.384104
0.343747
0.315514
0.294609
0.278474
0.265612
0.255087
0.246284
0.238783
0.232291
0.226598
0.221548
0.217027
0.212946
0.209237
0.205845
0.202727
0.199849
0.197181
0.1947
0.192385
0.19022
0.188188
0.186278
0.184478
0.18278