# vtk DataFile Version 2.0
FlowField
ASCII
DATASET STRUCTURED_GRID
DIMENSIONS 400 1 200
POINTS 80000 float
0 0 0
0.08 0 0
0.16 0 0
0.24 0 0
0.32 0 0
0.4 0 0
0.48 0 0
0.56 0 0
0.64 0 0
0.72 0 0
0.8 0 0
0.88 0 0
0.96 0 0
1.04 0 0
1.12 0 0
1.2 0 0
1.28 0 0
1.36 0 0
1.44 0 0
1.52 0 0
1.6 0 0
1.68 0 0
1.76 0 0
1.84 0 0
1.92 0 0
2 0 0
2.08 0 0
2.16 0 0
2.24 0 0
2.32 0 0
2.4 0 0
2.48 0 0
2.56 0 0
2.64 0 0
2.72 0 0
2.8 0 0
2.88 0 0
2.96 0 0
3.04 0 0
3.12 0 0
3.2 0 0
3.28 0 0
3.36 0 0
3.44 0 0
3.52 0 0
3.6 0 0
3.68 0 0
3.76 0 0
3.84 0 0
3.92 0 0
4 0 0
4.08 0 0
4.16 0 0
4.24 0 0
4.32 0 0
4.4 0 0
4.48 0 0
4.56 0 0
4.64 0 0
4.72 0 0
4.8 0 0
4.88 0 0
4.96 0 0
5.04 0 0
5.12 0 0
5.2 0 0
5.28 0 0
5.36 0 0
5.44 0 0
5.52 0 0
5.6 0 0
5.68 0 0
5.76 0 0
5.84 0 0
5.92 0 0
6 0 0
6.08 0 0
6.16 0 0
6.24 0 0
6.32 0 0
6.4 0 0
6.48 0 0
6.56 0 0
6.64 0 0
6.72 0 0
6.8 0 0
6.88 0 0
6.96 0 0
7.04 0 0
7.12 0 0
7.2 0 0
7.28 0 0
7.36 0 0
7.44 0 0
7.52 0 0
7.6 0 0
7.68 0 0
7.76 0 0
7.84 0 0
7.92 0 0
8 0 0
8.08 0 0
8.16 0 0
8.24 0 0
8.32 0 0
8.4 0 0
8.48 0 0
8.56 0 0
8.64 0 0
8.72 0 0
8.8 0 0
8.88 0 0
8.96 0 0
9.04 0 0
9.12 0 0
9.2 0 0
9.28 0 0
9.36 0 0
9.44 0 0
9.52 0 0
9.6 0 0
9.68 0 0
9.76 0 0
9.84 0 0
9.92 0 0
10 0 0
10.08 0 0
10.16 0 0
10.24 0 0
10.32 0 0
10.4 0 0
10.48 0 0
10.56 0 0
10.64 0 0
10.72 0 0
10.8 0 0
10.88 0 0
10.96 0 0
11.04 0 0
11.12 0 0
11.2 0 0
11.28 0 0
11.36 0 0
11.44 0 0
11.52 0 0
11.6 0 0
11.68 0 0
11.76 0 0
11.84 0 0
11.92 0 0
12 0 0
12.08 0 0
12.16 0 0
12.24 0 0
12.32 0 0
12.4 0 0
12.48 0 0
12.56 0 0
12.64 0 0
12.72 0 0
12.8 0 0
12.88 0 0
12.96 0 0
13.04 0 0
13.12 0 0
13.2 0 0
13.28 0 0
13.36 0 0
13.44 0 0
13.52 0 0
13.6 0 0
13.68 0 0
13.76 0 0
13.84 0 0
13.92 0 0
14 0 0
14.08 0 0
14.16 0 0
14.24 0 0
14.32 0 0
14.4 0 0
14.48 0 0
14.56 0 0
14.64 0 0
14.72 0 0
14.8 0 0
14.88 0 0
14.96 0 0
15.04 0 0
15.12 0 0
15.2 0 0
15.28 0 0
15.36 0 0
15.44 0 0
15.52 0 0
15.6 0 0
15.68 0 0
15.76 0 0
15.84 0 0
15.92 0 0
16 0 0
16.08 0 0
16.16 0 0
16.24 0 0
16.32 0 0
16.4 0 0
16.48 0 0
16.56 0 0
16.64 0 0
16.72 0 0
16.8 0 0
16.88 0 0
16.96 0 0
17.04 0 0
17.12 0 0
17.2 0 0
17.28 0 0
17.36 0 0
17.44 0 0
17.52 0 0
17.6 0 0
17.68 0 0
17.76 0 0
17.84 0 0
17.92 0 0
18 0 0
18.08 0 0
18.16 0 0
18.24 0 0
18.32 0 0
18.4 0 0
18.48 0 0
18.56 0 0
18.64 0 0
18.72 0 0
18.8 0 0
18.88 0 0
18.96 0 0
19.04 0 0
19.12 0 0
19.2 0 0
19.28 0 0
19.36 0 0
19.44 0 0
19.52 0 0
19.6 0 0
19.68 0 0
19.76 0 0
19.84 0 0
19.92 0 0
20 0 0
20.08 0 0
20.16 0 0
20.24 0 0
20.32 0 0
20.4 0 0
20.48 0 0
20.56 0 0
20.64 0 0
20.72 0 0
20.8 0 0
20.88 0 0
20.96 0 0
21.04 0 0
21.12 0 0
21.2 0 0
21.28 0 0
21.36 0 0
21.44 0 0
21.52 0 0
21.6 0 0
21.68 0 0
21.76 0 0
21.84 0 0
21.92 0 0
22 0 0
22.08 0 0
22.16 0 0
22.24 0 0
22.32 0 0
22.4 0 0
22.48 0 0
22.56 0 0
22.64 0 0
22.72 0 0
22.8 0 0
22.88 0 0
22.96 0 0
23.04 0 0
23.12 0 0
23.2 0 0
23.28 0 0
23.36 0 0
23.44 0 0
23.52 0 0
23.6 0 0
23.68 0 0
23.76 0 0
23.84 0 0
23.92 0 0
24 0 0
24.08 0 0
24.16 0 0
24.24 0 0
24.32 0 0
24.4 0 0
24.48 0 0
24.56 0 0
24.64 0 0
24.72 0 0
24.8 0 0
24.88 0 0
24.96 0 0
25.04 0 0
25.12 0 0
25.2 0 0
25.28 0 0
25.36 0 0
25.44 0 0
25.52 0 0
25.6 0 0
25.68 0 0
25.76 0 0
25.84 0 0
25.92 0 0
26 0 0
26.08 0 0
26.16 0 0
26.24 0 0
26.32 0 0
26.4 0 0
26.48 0 0
26.56 0 0
26.64 0 0
26.72 0 0
26.8 0 0
26.88 0 0
26.96 0 0
27.04 0 0
27.12 0 0
27.2 0 0
27.28 0 0
27.36 0 0
27.44 0 0
27.52 0 0
27.6 0 0
27.68 0 0
27.76 0 0
27.84 0 0
27.92 0 0
28 0 0
28.08 0 0
28.16 0 0
28.24 0 0
28.32 0 0
28.4 0 0
28.48 0 0
28.56 0 0
28.64 0 0
28.72 0 0
28.8 0 0
28.88 0 0
28.96 0 0
29.04 0 0
29.12 0 0
29.2 0 0
29.28 0 0
29.36 0 0
29.44 0 0
29.52 0 0
29.6 0 0
29.68 0 0
29.76 0 0
29.84 0 0
29.92 0 0
30 0 0
30.08 0 0
30.16 0 0
30.24 0 0
30.32 0 0
30.4 0 0
30.48 0 0
30.56 0 0
30.64 0 0
30.72 0 0
30.8 0 0
30.88 0 0
30.96 0 0
31.04 0 0
31.12 0 0
31.2 0 0
31.28 0 0
31.36 0 0
31.44 0 0
31.52 0 0
31.6 0 0
31.68 0 0
31.76 0 0
31.84 0 0
31.92 0 0
0 0.005 0
0.08 0.005 0
0.16 0.005 0
0.24 0.005 0
0.32 0.005 0
0.4 0.005 0
0.48 0.005 0
0.56 0.005 0
0.64 0.005 0
0.72 0.005 0
0.8 0.005 0
0.88 0.005 0
0.96 0.005 0
1.04 0.005 0
1.12 0.005 0
1.2 0.005 0
1.28 0.005 0
1.36 0.005 0
1.44 0.005 0
1.52 0.005 0
1.6 0.005 0
1.68 0.005 0
1.76 0.005 0
1.84 0.005 0
1.92 0.005 0
2 0.005 0
2.08 0.005 0
2.16 0.005 0
2.24 0.005 0
2.32 0.005 0
2.4 0.005 0
2.48 0.005 0
2.56 0.005 0
2.64 0.005 0
2.72 0.005 0
2.8 0.005 0
2.88 0.005 0
2.96 0.005 0
3.04 0.005 0
3.12 0.005 0
3.2 0.005 0
3.28 0.005 0
3.36 0.005 0
3.44 0.005 0
3.52 0.005 0
3.6 0.005 0
3.68 0.005 0
3.76 0.005 0
3.84 0.005 0
3.92 0.005 0
4 0.005 0
4.08 0.005 0
4.16 0.005 0
4.24 0.005 0
4.32 0.005 0
4.4 0.005 0
4.48 0.005 0
4.56 0.005 0
4.64 0.005 0
4.72 0.005 0
4.8 0.005 0
4.88 0.005 0
4.96 0.005 0
5.04 0.005 0
5.12 0.005 0
5.2 0.005 0
5.28 0.005 0
5.36 0.005 0
5.44 0.005 0
5.52 0.005 0
5.6 0.005 0
5.68 0.005 0
5.76 0.005 0
5.84 0.005 0
5.92 0.005 0
6 0.005 0
6.08 0.005 0
6.16 0.005 0
6.24 0.005 0
6.32 0.005 0
6.4 0.005 0
6.48 0.005 0
6.56 0.005 0
6.64 0.005 0
6.72 0.005 0
6.8 0.005 0
6.88 0.005 0
6.96 0.005 0
7.04 0.005 0
7.12 0.005 0
7.2 0.005 0
7.28 0.005 0
7.36 0.005 0
7.44 0.005 0
7.52 0.005 0
7.6 0.005 0
7.68 0.005 0
7.76 0.005 0
7.84 0.005 0
7.92 0.005 0
8 0.005 0
8.08 0.005 0
8.16 0.005 0
8.24 0.005 0
8.32 0.005 0
8.4 0.005 0
8.48 0.005 0
8.56 0.005 0
8.64 0.005 0
8.72 0.005 0
8.8 0.005 0
8.88 0.005 0
8.96 0.005 0
9.04 0.005 0
9.12 0.005 0
9.2 0.005 0
9.28 0.005 0
9.36 0.005 0
9.44 0.005 0
9.52 0.005 0
9.6 0.005 0
9.68 0.005 0
9.76 0.005 0
9.84 0.005 0
9.92 0.005 0
10 0.005 0
10.08 0.005 0
10.16 0.005 0
10.24 0.005 0
10.32 0.005 0
10.4 0.005 0
10.48 0.005 0
10.56 0.005 0
10.64 0.005 0
10.72 0.005 0
10.8 0.005 0
10.88 0.005 0
10.96 0.005 0
11.04 0.005 0
11.12 0.005 0
11.2 0.005 0
11.28 0.005 0
11.36 0.005 0
11.44 0.005 0
11.52 0.005 0
11.6 0.005 0
11.68 0.005 0
11.76 0.005 0
11.84 0.005 0
11.92 0.005 0
12 0.005 0
12.08 0.005 0
12.16 0.005 0
12.24 0.005 0
12.32 0.005 0
12.4 0.005 0
12.48 0.005 0
12.56 0.005 0
12.64 0.005 0
12.72 0.005 0
12.8 0.005 0
12.88 0.005 0
12.96 0.005 0
13.04 0.005 0
13.12 0.005 0
13.2 0.005 0
13.28 0.005 0
13.36 0.005 0
13.44 0.005 0
13.52 0.005 0
13.6 0.005 0
13.68 0.005 0
13.76 0.005 0
13.84 0.005 0
13.92 0.005 0
14 0.005 0
14.08 0.005 0
14.16 0.005 0
14.24 0.005 0
14.32 0.005 0
14.4 0.005 0
14.48 0.005 0
14.56 0.005 0
14.64 0.005 0
14.72 0.005 0
14.8 0.005 0
14.88 0.005 0
14.96 0.005 0
15.04 0.005 0
15.12 0.005 0
15.2 0.005 0
15.28 0.005 0
15.36 0.005 0
15.44 0.005 0
15.52 0.005 0
15.6 0.005 0
15.68 0.005 0
15.76 0.005 0
15.84 0.005 0
15.92 0.005 0
16 0.005 0
16.08 0.005 0
16.16 0.005 0
16.24 0.005 0
16.32 0.005 0
16.4 0.005 0
16.48 0.005 0
16.56 0.005 0
16.64 0.005 0
16.72 0.005 0
16.8 0.005 0
16.88 0.005 0
16.96 0.005 0
17.04 0.005 0
17.12 0.005 0
17.2 0.005 0
17.28 0.005 0
17.36 0.005 0
17.44 0.005 0
17.52 0.005 0
17.6 0.005 0
17.68 0.005 0
17.76 0.005 0
17.84 0.005 0
17.92 0.005 0
18 0.005 0
18.08 0.005 0
18.16 0.005 0
18.24 0.005 0
18.32 0.005 0
18.4 0.005 0
18.48 0.005 0
18.56 0.005 0
18.64 0.005 0
18.72 0.005 0
18.8 0.005 0
18.88 0.005 0
18.96 0.005 0
19.04 0.005 0
19.12 0.005 0
19.2 0.005 0
19.28 0.005 0
19.36 0.005 0
19.44 0.005 0
19.52 0.005 0
19.6 0.005 0
19.68 0.005 0
19.76 0.005 0
19.84 0.005 0
19.92 0.005 0
20 0.005 0
20.08 0.005 0
20.16 0.005 0
20.24 0.005 0
20.32 0.005 0
20.4 0.005 0
20.48 0.005 0
20.56 0.005 0
20.64 0.005 0
20.72 0.005 0
20.8 0.005 0
20.88 0.005 0
20.96 0.005 0
21.04 0.005 0
21.12 0.005 0
21.2 0.005 0
21.28 0.005 0
21.36 0.005 0
21.44 0.005 0
21.52 0.005 0
21.6 0.005 0
21.68 0.005 0
21.76 0.005 0
21.84 0.005 0
21.92 0.005 0
22 0.005 0
22.08 0.005 0
22.16 0.005 0
22.24 0.005 0
22.32 0.005 0
22.4 0.005 0
22.48 0.005 0
22.56 0.005 0
22.64 0.005 0
22.72 0.005 0
22.8 0.005 0
22.88 0.005 0
22.96 0.005 0
23.04 0.005 0
23.12 0.005 0
23.2 0.005 0
23.28 0.005 0
23.36 0.005 0
23.44 0.005 0
23.52 0.005 0
23.6 0.005 0
23.68 0.005 0
23.76 0.005 0
23.84 0.005 0
23.92 0.005 0
24 0.005 0
24.08 0.005 0
24.16 0.005 0
24.24 0.005 0
24.32 0.005 0
24.4 0.005 0
24.48 0.005 0
24.56 0.005 0
24.64 0.005 0
24.72 0.005 0
24.8 0.005 0
24.88 0.005 0
24.96 0.005 0
25.04 0.005 0
25.12 0.005 0
25.2 0.005 0
25.28 0.005 0
25.36 0.005 0
25.44 0.005 0
25.52 0.005 0
25.6 0.005 0
25.68 0.005 0
25.76 0.005 0
25.84 0.005 0
25.92 0.005 0
26 0.005 0
26.08 0.005 0
26.16 0.005 0
26.24 0.005 0
26.32 0.005 0
26.4 0.005 0
26.48 0.005 0
26.56 0.005 0
26.64 0.005 0
26.72 0.005 0
26.8 0.005 0
26.88 0.005 0
26.96 0.005 0
27.04 0.005 0
27.12 0.005 0
27.2 0.005 0
27.28 0.005 0
27.36 0.005 0
27.44 0.005 0
27.52 0.005 0
27.6 0.005 0
27.68 0.005 0
27.76 0.005 0
27.84 0.005 0
27.92 0.005 0
28 0.005 0
28.08 0.005 0
28.16 0.005 0
28.24 0.005 0
28.32 0.005 0
28.4 0.005 0
28.48 0.005 0
28.56 0.005 0
28.64 0.005 0
28.72 0.005 0
28.8 0.005 0
28.88 0.005 0
28.96 0.005 0
29.04 0.005 0
29.12 0.005 0
29.2 0.005 0
29.28 0.005 0
29.36 0.005 0
29.44 0.005 0
29.52 0.005 0
29.6 0.005 0
29.68 0.005 0
29.76 0.005 0
29.84 0.005 0
29.92 0.005 0
30 0.005 0
30.08 0.005 0
30.16 0.005 0
30.24 0.005 0
30.32 0.005 0
30.4 0.005 0
30.48 0.005 0
30.56 0.005 0
30.64 0.005 0
30.72 0.005 0
30.8 0.005 0
30.88 0.005 0
30.96 0.005 0
31.04 0.005 0
31.12 0.005 0
31.2 0.005 0
31.28 0.005 0
31.36 0.005 0
31.44 0.005 0
31.52 0.005 0
31.6 0.005 0
31.68 0.005 0
31.76 0.005 0
31.84 0.005 0
31.92 0.005 0
0 0.01 0
0.08 0.01 0
0.16 0.01 0
0.24 0.01 0
0.32 0.01 0
0.4 0.01 0
0.48 0.01 0
0.56 0.01 0
0.64 0.01 0
0.72 0.01 0
0.8 0.01 0
0.88 0.01 0
0.96 0.01 0
1.04 0.01 0
1.12 0.01 0
1.2 0.01 0
1.28 0.01 0
1.36 0.01 0
1.44 0.01 0
1.52 0.01 0
1.6 0.01 0
1.68 0.01 0
1.76 0.01 0
1.84 0.01 0
1.92 0.01 0
2 0.01 0
2.08 0.01 0
2.16 0.01 0
2.24 0.01 0
2.32 0.01 0
2.4 0.01 0
2.48 0.01 0
2.56 0.01 0
2.64 0.01 0
2.72 0.01 0
2.8 0.01 0
2.88 0.01 0
2.96 0.01 0
3.04 0.01 0
3.12 0.01 0
3.2 0.01 0
3.28 0.01 0
3.36 0.01 0
3.44 0.01 0
3.52 0.01 0
3.6 0.01 0
3.68 0.01 0
3.76 0.01 0
3.84 0.01 0
3.92 0.01 0
4 0.01 0
4.08 0.01 0
4.16 0.01 0
4.24 0.01 0
4.32 0.01 0
4.4 0.01 0
4.48 0.01 0
4.56 0.01 0
4.64 0.01 0
4.72 0.01 0
4.8 0.01 0
4.88 0.01 0
4.96 0.01 0
5.04 0.01 0
5.12 0.01 0
[...]
POINT_DATA 80000

SCALARS p float 1
LOOKUP_TABLE default
1
56.8048
56.5031
56.4619
56.4418
56.4274
56.4154
56.4046
56.3946
56.3851
56.376
56.3671
56.3585
56.3501
56.3419
56.3339
56.326
56.3183
56.3108
56.3035
56.2962
56.2891
56.2822
56.2754
56.2687
56.2621
56.2556
56.2493
56.243
56.2369
56.2308
56.2249
56.2191
56.2135
56.208
56.2026
56.1973
56.1921
56.187
56.1821
56.1772
56.1724
56.1676
56.1629
56.1583
56.1537
56.149
56.1444
56.1399
56.1353
56.1309
56.1264
56.1221
56.1177
56.1134
56.1092
56.105
56.1008
56.0966
56.0924
56.0883
56.0841
56.0799
56.0758
56.0716
56.0675
56.0633
56.0591
56.055
56.0508
56.0467
56.0425
56.0383
56.0342
56.03
56.0259
56.0217
56.0175
56.0134
56.0092
56.0051
56.0009
55.9967
55.9926
55.9884
55.9843
55.9801
55.9759
55.9718
55.9676
55.9635
55.9593
55.9551
55.951
55.9468
55.9427
55.9385
55.9343
55.9302
55.926
55.9219
55.9177
55.9135
55.9094
55.9052
55.9011
55.8969
55.8927
55.8886
55.8844
55.8803
55.8761
55.8719
55.8678
55.8636
55.8595
55.8553
55.8511
55.847
55.8428
55.8387
55.8345
55.8304
55.8262
55.822
55.8179
55.8137
55.8096
55.8054
55.8012
55.7971
55.7929
55.7888
55.7846
55.7805
55.7763
55.7721
55.768
55.7638
55.7597
55.7555
55.7514
55.7472
55.743
55.7389
55.7347
55.7306
55.7264
55.7223
55.7181
55.714
55.7098
55.7056
55.7015
55.6973
55.6932
55.689
55.6849
55.6807
55.6766
55.6724
55.6683
55.6641
55.66
55.6558
55.6516
55.6475
55.6433
55.6392
55.635
55.6309
55.6267
55.6226
55.6184
55.6143
55.6101
55.606
55.6018
55.5977
55.5935
55.5894
55.5852
55.581
55.5769
55.5727
55.5686
55.5644
55.5603
55.5561
55.552
55.5478
55.5437
55.5395
55.5354
55.5312
55.5271
55.5229
55.5187
55.5146
55.5104
55.5063
55.5021
55.498
55.4938
55.4897
55.4855
55.4814
55.4772
55.473
55.4689
55.4647
55.4606
55.4564
55.4523
55.4481
55.444
55.4398
55.4356
55.4315
55.4273
55.4232
55.419
55.4148
55.4107
55.4065
55.4024
55.3982
55.394
55.3899
55.3857
55.3816
55.3774
55.3732
55.3691
55.3649
55.3608
55.3566
55.3524
55.3483
55.3441
55.3399
55.3358
55.3316
55.3274
55.3233
55.3191
55.3149
55.3108
55.3066
55.3024
55.2983
55.2941
55.2899
55.2858
55.2816
55.2774
55.2733
55.2691
55.2649
55.2607
55.2566
55.2524
55.2482
55.244
55.2399
55.2357
55.2315
55.2274
55.2232
55.219
55.2148
55.2107
55.2065
55.2023
55.1981
55.1939
55.1898
55.1856
55.1814
55.1772
55.1731
55.1689
55.1647
55.1605
55.1563
55.1522
55.148
55.1438
55.1396
55.1354
55.1312
55.1271
55.1229
55.1187
55.1145
55.1103
55.1061
55.102
55.0978
55.0936
55.0894
55.0852
55.081
55.0769
55.0727
55.0685
55.0643
55.0601
55.0559
55.0517
55.0475
55.0434
55.0392
55.035
55.0308
55.0266
55.0224
55.0182
55.014
55.0098
55.0056
55.0014
54.9973
54.9931
54.9889
54.9847
54.9805
54.9763
54.9721
54.9679
54.9637
54.9595
54.9553
54.9511
54.9469
54.9427
54.9385
54.9344
54.9302
54.926
54.9218
54.9176
54.9134
54.9092
54.905
54.9008
54.8966
54.8924
54.8882
54.884
54.8798
54.8756
54.8714
54.8672
54.863
54.8588
54.8546
54.8504
54.8462
54.842
54.8378
54.8336
54.8294
54.8252
54.821
54.8168
54.8126
54.8084
54.8042
54.8
54.7958
54.7916
54.7874
54.7832
54.779
54.7748
54.7706
54.7664
54.7621
54.7579
54.7537
54.7495
54.7453
54.7411
54.7369
54.7327
54.7285
54.7243
54.7201
54.7159
54.7117
54.7075
54.7033
54.6991
54.6949
54.6906
54.6864
54.6822
54.678
0.5
56.8048
56.8048
56.5031
56.4619
56.4418
56.4274
56.4154
56.4046
56.3946
56.3851
56.376
56.3671
56.3585
56.3501
56.3419
56.3339
56.326
56.3183
56.3108
56.3035
56.2962
56.2891
56.2822
56.2754
56.2687
56.2621
56.2556
56.2493
56.243
56.2369
56.2308
56.2249
56.2191
56.2135
56.208
56.2026
56.1973
56.1921
56.187
56.1821
56.1772
56.1724
56.1676
56.1629
56.1583
56.1537
56.149
56.1444
56.1399
56.1353
56.1309
56.1264
56.1221
56.1177
56.1134
56.1092
56.105
56.1008
56.0966
56.0924
56.0883
56.0841
56.0799
56.0758
56.0716
56.0675
56.0633
56.0591
56.055
56.0508
56.0467
56.0425
56.0383
56.0342
56.03
56.0259
56.0217
56.0175
56.0134
56.0092
56.0051
56.0009
55.9967
55.9926
55.9884
55.9843
55.9801
55.9759
55.9718
55.9676
55.9635
55.9593
55.9551
55.951
55.9468
55.9427
55.9385
55.9343
55.9302
55.926
55.9219
55.9177
55.9135
55.9094
55.9052
55.9011
55.8969
55.8927
55.8886
55.8844
55.8803
55.8761
55.8719
55.8678
55.8636
55.8595
55.8553
55.8511
55.847
55.8428
55.8387
55.8345
55.8304
55.8262
55.822
55.8179
55.8137
55.8096
55.8054
55.8012
55.7971
55.7929
55.7888
55.7846
55.7805
55.7763
55.7721
55.768
55.7638
55.7597
55.7555
55.7514
55.7472
55.743
55.7389
55.7347
55.7306
55.7264
55.7223
55.7181
55.714
55.7098
55.7056
55.7015
55.6973
55.6932
55.689
55.6849
55.6807
55.6766
55.6724
55.6683
55.6641
55.66
55.6558
55.6516
55.6475
55.6433
55.6392
55.635
55.6309
55.6267
55.6226
55.6184
55.6143
55.6101
55.606
55.6018
55.5977
55.5935
55.5894
55.5852
55.581
55.5769
55.5727
55.5686
55.5644
55.5603
55.5561
55.552
55.5478
55.5437
55.5395
55.5354
55.5312
55.5271
55.5229
55.5187
55.5146
55.5104
55.5063
55.5021
55.498
55.4938
55.4897
55.4855
55.4814
55.4772
55.473
55.4689
55.4647
55.4606
55.4564
55.4523
55.4481
55.444
55.4398
55.4356
55.4315
55.4273
55.4232
55.419
55.4148
55.4107
55.4065
55.4024
55.3982
55.394
55.3899
55.3857
55.3816
55.3774
55.3732
55.3691
55.3649
55.3608
55.3566
55.3524
55.3483
55.3441
55.3399
55.3358
55.3316
55.3274
55.3233
55.3191
55.3149
55.3108
55.3066
55.3024
55.2983
55.2941
55.2899
55.2858
55.2816
55.2774
55.2733
55.2691
55.2649
55.2607
55.2566
55.2524
55.2482
55.244
55.2399
55.2357
55.2315
55.2274
55.2232
55.219
55.2148
55.2107
55.2065
55.2023
55.1981
55.1939
55.1898
55.1856
55.1814
55.1772
55.1731
55.1689
55.1647
55.1605
55.1563
55.1522
55.148
55.1438
55.1396
55.1354
55.1312
55.1271
55.1229
55.1187
55.1145
55.1103
55.1061
55.102
55.0978
55.0936
55.0894
55.0852
55.081
55.0769
55.0727
55.0685
55.0643
55.0601
55.0559
55.0517
55.0475
55.0434
55.0392
55.035
55.0308
55.0266
55.0224
55.0182
55.014
55.0098
55.0056
55.0014
54.9973
54.9931
54.9889
54.9847
54.9805
54.9763
54.9721
54.9679
54.9637
54.9595
54.9553
54.9511
54.9469
54.9427
54.9385
54.9344
54.9302
54.926
54.9218
54.9176
54.9134
54.9092
54.905
54.9008
54.8966
54.8924
54.8882
54.884
54.8798
54.8756
54.8714
54.8672
54.863
54.8588
54.8546
54.8504
54.8462
54.842
54.8378
54.8336
54.8294
54.8252
54.821
54.8168
54.8126
54.8084
54.8042
54.8
54.7958
54.7916
54.7874
54.7832
54.779
54.7748
54.7706
54.7664
54.7621
54.7579
54.7537
54.7495
54.7453
54.7411
54.7369
54.7327
54.7285
54.7243
54.7201
54.7159
54.7117
54.7075
54.7033
54.6991
54.6949
54.6906
54.6864
54.6822
54.678
54.678
56.7902
56.7902
56.5069
56.4632
56.4425
56.4278
56.4157
56.4048
56.3948
56.3853
56.3761
56.3672
56.3586
56.3501
56.3419
56.3339
56.3261
56.3184
56.3109
56.3035
56.2963
56.2892
56.2822
56.2754
56.2687
56.2621
56.2556
56.2493
56.243
56.2369
56.2308
56.2249
56.2191
56.2135
56.208
56.2026
56.1973
56.1921
56.1871
56.1821
56.1772
56.1724
56.1676
56.163
56.1583
56.1537
56.149
56.1444
56.1399
56.1353
56.1309
56.1264
56.1221
56.1177
56.1134
56.1092
56.105
56.1008
56.0966
56.0924
56.0883
56.0841
56.0799
56.0758
56.0716
56.0674
56.0633
56.0591
56.055
56.0508
56.0467
56.0425
56.0383
56.0342
56.03
56.0259
56.0217
56.0175
56.0134
56.0092
56.0051
56.0009
55.9967
55.9926
55.9884
55.9843
55.9801
55.9759
55.9718
55.9676
55.9635
55.9593
55.9551
55.951
55.9468
55.9427
55.9385
55.9343
55.9302
55.926
55.9219
55.9177
55.9135
55.9094
55.9052
55.9011
55.8969
55.8927
55.8886
55.8844
55.8803
55.8761
55.8719
55.8678
55.8636
55.8595
55.8553
55.8511
55.847
55.8428
55.8387
55.8345
55.8304
55.8262
55.822
55.8179
55.8137
55.8096
55.8054
55.8012
55.7971
55.7929
55.7888
55.7846
55.7805
55.7763
55.7721
55.768
55.7638
55.7597
55.7555
55.7514
55.7472
55.743
55.7389
55.7347
55.7306
55.7264
55.7223
55.7181
55.714
55.7098
55.7056
55.7015
55.6973
55.6932
55.689
55.6849
55.6807
55.6766
55.6724
55.6683
55.6641
55.66
55.6558
55.6516
55.6475
55.6433
55.6392
55.635
55.6309
55.6267
55.6226
55.6184
55.6143
55.6101
55.606
55.6018
55.5977
55.5935
55.5894
55.5852
55.581
55.5769
55.5727
55.5686
55.5644
55.5603
55.5561
55.552
55.5478
55.5437
55.5395
55.5354
55.5312
55.5271
55.5229
55.5187
55.5146
55.5104
55.5063
55.5021
55.498
55.4938
55.4897
55.4855
55.4814
55.4772
55.473
55.4689
55.4647
55.4606
55.4564
55.4523
55.4481
55.444
55.4398
55.4356
55.4315
55.4273
55.4232
55.419
55.4148
55.4107
55.4065
55.4024
55.3982
55.394
55.3899
55.3857
55.3816
55.3774
55.3732
55.3691
55.3649
55.3608
55.3566
55.3524
55.3483
55.3441
55.3399
55.3358
55.3316
55.3274
55.3233
55.3191
55.3149
55.3108
55.3066
55.3024
55.2983
55.2941
55.2899
55.2858
55.2816
55.2774
55.2733
55.2691
55.2649
55.2607
55.2566
55.2524
55.2482
55.244
55.2399
55.2357
55.2315
55.2274
55.2232
55.219
55.2148
55.2107
55.2065
55.2023
55.1981
55.1939
55.1898
55.1856
55.1814
55.1772
55.1731
55.1689
55.1647
55.1605
55.1563
55.1522
55.148
55.1438
55.1396
55.1354
55.1312
55.1271
55.1229
55.1187
55.1145
55.1103
55.1061
55.102
55.0978
55.0936
55.0894
55.0852
55.081
55.0769
55.0727
55.0685
55.0643
55.0601
55.0559
55.0517
55.0475
55.0433
55.0392
55.035
55.0308
55.0266
55.0224
55.0182
55.014
55.0098
55.0056
55.0014
54.9973
54.9931
54.9889
54.9847
54.9805
54.9763
54.9721
54.9679
54.9637
54.9595
54.9553
54.9511
54.9469
54.9427
54.9385
54.9344
54.9302
54.926
54.9218
54.9176
54.9134
54.9092
54.905
54.9008
54.8966
54.8924
54.8882
54.884
54.8798
54.8756
54.8714
54.8672
54.863
54.8588
54.8546
54.8504
54.8462
54.842
54.8378
54.8336
54.8294
54.8252
54.821
54.8168
54.8126
54.8084
54.8042
54.8
54.7958
54.7916
54.7874
54.7832
54.779
54.7748
54.7706
54.7664
54.7621
54.7579
54.7537
54.7495
54.7453
54.7411
54.7369
54.7327
54.7285
54.7243
54.7201
54.7159
54.7117
54.7075
54.7033
54.6991
54.6949
54.6906
54.6864
54.6822
54.678
54.678
56.7743
56.7743
56.5101
56.4644
56.4431
56.4282
56.4159
56.405
56.3949
56.3854
56.3762
56.3673
56.3586
56.3502
56.342
56.334
56.3261
56.3184
56.3109
56.3035
56.2963
56.2892
56.2822
56.2754
56.2687
56.2621
56.2556
56.2493
56.243
56.2369
56.2309
56.2249
56.2192
56.2135
56.208
56.2026
56.1973
56.1921
56.1871
56.1821
56.1772
56.1724
56.1676
56.163
56.1583
56.1537
56.149
56.1444
56.1399
56.1353
56.1309
56.1264
56.1221
56.1177
56.1134
56.1092
56.105
56.1008
56.0966
56.0924
56.0883
56.0841
56.0799
56.0758
56.0716
56.0674
56.0633
56.0591
56.055
56.0508
56.0467
56.0425
56.0383
56.0342
56.03
56.0259
56.0217
56.0175
56.0134
56.0092
56.0051
56.0009
55.9967
55.9926
55.9884
55.9843
55.9801
55.9759
55.9718
55.9676
55.9635
55.9593
55.9551
55.951
55.9468
55.9427
55.9385
55.9343
55.9302
55.926
55.9219
55.9177
55.9135
55.9094
55.9052
55.9011
55.8969
55.8927
55.8886
55.8844
55.8803
55.8761
55.8719
55.8678
55.8636
55.8595
55.8553
55.8511
55.847
55.8428
55.8387
55.8345
55.8304
55.8262
55.822
55.8179
55.8137
55.8096
55.8054
55.8012
55.7971
55.7929
55.7888
55.7846
55.7805
55.7763
55.7721
55.768
55.7638
55.7597
55.7555
55.7514
55.7472
55.743
55.7389
55.7347
55.7306
55.7264
55.7223
55.7181
55.714
55.7098
55.7056
55.7015
55.6973
55.6932
55.689
55.6849
55.6807
55.6766
55.6724
55.6683
55.6641
55.66
55.6558
55.6516
55.6475
55.6433
55.6392
55.635
55.6309
55.6267
55.6226
55.6184
55.6143
55.6101
55.606
55.6018
55.5977
55.5935
55.5894
55.5852
55.581
55.5769
55.5727
55.5686
55.5644
55.5603
55.5561
55.552
55.5478
55.5437
55.5395
55.5354
55.5312
55.5271
55.5229
55.5187
55.5146
55.5104
55.5063
55.5021
55.498
55.4938
55.4897
55.4855
55.4814
55.4772
55.473
55.4689
55.4647
55.4606
55.4564
55.4523
55.4481
55.444
55.4398
55.4356
55.4315
55.4273
55.4232
55.419
55.4148
55.4107
55.4065
55.4024
55.3982
55.394
55.3899
55.3857
55.3816
55.3774
55.3732
55.3691
55.3649
55.3608
55.3566
55.3524
55.3483
55.3441
55.3399
55.3358
55.3316
55.3274
55.3233
55.3191
55.3149
55.3108
55.3066
55.3024
55.2983
55.2941
55.2899
55.2858
55.2816
55.2774
55.2733
55.2691
55.2649
55.2607
55.2566
55.2524
55.2482
55.244
55.2399
55.2357
55.2315
55.2274
55.2232
55.219
55.2148
55.2107
55.2065
55.2023
55.1981
55.1939
55.1898
55.1856
55.1814
55.1772
55.1731
55.1689
55.1647
55.1605
55.1563
55.1522
55.148
55.1438
55.1396
55.1354
55.1312
55.1271
55.1229
55.1187
55.1145
55.1103
55.1061
55.102
55.0978
55.0936
55.0894
55.0852
55.081
55.0768
55.0727
55.0685
55.0643
55.0601
55.0559
55.0517
55.0475
55.0433
55.0392
55.035
55.0308
55.0266
55.0224
55.0182
55.014
55.0098
55.0056
55.0014
54.9973
54.9931
54.9889
54.9847
54.9805
54.9763
54.9721
54.9679
54.9637
54.9595
54.9553
54.9511
54.9469
54.9427
54.9385
54.9344
54.9302
54.926
54.9218
54.9176
54.9134
54.9092
54.905
54.9008
54.8966
54.8924
54.8882
54.884
54.8798
54.8756
54.8714
54.8672
54.863
54.8588
54.8546
54.8504
54.8462
54.842
54.8378
54.8336
54.8294
54.8252
54.821
54.8168
54.8126
54.8084
54.8042
54.8
54.7958
54.7916
54.7874
54.7832
54.779
54.7748
54.7706
54.7664
54.7621
54.7579
54.7537
54.7495
54.7453
54.7411
54.7369
54.7327
54.7285
54.7243
54.7201
54.7159
54.7117
54.7075
54.7033
54.6991
54.6949
54.6906
54.6864
54.6822
54.678
54.678
56.7583
56.7583
56.513
56.4655
56.4437
56.4286
56.4162
56.4052
56.3951
56.3855
56.3763
56.3674
56.3587
56.3503
56.342
56.334
56.3261
56.3185
56.3109
56.3035
56.2963
56.2892
56.2823
56.2754
56.2687
56.2621
56.2557
56.2493
56.2431
56.2369
56.2309
56.225
56.2192
56.2135
56.208
56.2026
56.1973
56.1921
56.1871
56.1821
56.1772
56.1724
56.1676
56.163
56.1583
56.1537
56.149
56.1444
56.1399
56.1354
56.1309
56.1264
56.1221
56.1177
56.1134
56.1092
56.105
56.1008
56.0966
56.0924
56.0883
56.0841
56.0799
56.0758
56.0716
56.0674
56.0633
56.0591
56.055
56.0508
56.0467
56.0425
56.0383
56.0342
56.03
56.0259
56.0217
56.0175
56.0134
56.0092
56.0051
56.0009
55.9967
55.9926
55.9884
55.9843
55.9801
55.9759
55.9718
55.9676
55.9635
55.9593
55.9551
55.951
55.9468
55.9427
55.9385
55.9343
55.9302
55.926
55.9219
55.9177
55.9135
55.9094
55.9052
55.9011
55.8969
55.8927
55.8886
55.8844
55.8803
55.8761
55.8719
55.8678
55.8636
55.8595
55.8553
55.8511
55.847
55.8428
55.8387
55.8345
55.8304
55.8262
55.822
55.8179
55.8137
55.8096
55.8054
55.8012
55.7971
55.7929
55.7888
55.7846
55.7805
55.7763
55.7721
55.768
55.7638
55.7597
55.7555
55.7514
55.7472
55.743
55.7389
55.7347
55.7306
55.7264
55.7223
55.7181
55.714
55.7098
55.7056
55.7015
55.6973
55.6932
55.689
55.6849
55.6807
55.6766
55.6724
55.6683
55.6641
55.66
55.6558
55.6516
55.6475
55.6433
55.6392
55.635
55.6309
55.6267
55.6226
55.6184
55.6143
55.6101
55.606
55.6018
55.5977
55.5935
55.5894
55.5852
55.581
55.5769
55.5727
55.5686
55.5644
55.5603
55.5561
55.552
55.5478
55.5437
55.5395
55.5354
55.5312
55.5271
55.5229
55.5187
55.5146
55.5104
55.5063
55.5021
55.498
55.4938
55.4897
55.4855
55.4814
55.4772
55.473
55.4689
55.4647
55.4606
55.4564
55.4523
55.4481
55.444
55.4398
55.4356
55.4315
55.4273
55.4232
55.419
55.4148
55.4107
55.4065
55.4024
55.3982
55.394
55.3899
55.3857
55.3816
55.3774
55.3732
55.3691
55.3649
55.3608
55.3566
55.3524
55.3483
55.3441
55.3399
55.3358
55.3316
55.3274
55.3233
55.3191
55.3149
55.3108
55.3066
55.3024
55.2983
55.2941
55.2899
55.2858
55.2816
55.2774
55.2733
55.2691
55.2649
55.2607
55.2566
55.2524
55.2482
55.244
55.2399
55.2357
55.2315
55.2274
55.2232
55.219
55.2148
55.2107
55.2065
55.2023
55.1981
55.1939
55.1898
55.1856
55.1814
55.1772
55.1731
55.1689
55.1647
55.1605
55.1563
55.1522
55.148
55.1438
55.1396
55.1354
55.1312
55.1271
55.1229
55.1187
55.1145
55.1103
55.1061
55.102
55.0978
55.0936
55.0894
55.0852
55.081
55.0768
55.0727
55.0685
55.0643
55.0601
55.0559
55.0517
55.0475
55.0433
55.0392
55.035
55.0308
55.0266
55.0224
55.0182
55.014
55.0098
55.0056
55.0014
54.9973
54.9931
54.9889
54.9847
54.9805
54.9763
54.9721
54.9679
54.9637
54.9595
54.9553
54.9511
54.9469
54.9427
54.9385
54.9344
54.9302
54.926
54.9218
54.9176
54.9134
54.9092
54.905
54.9008
54.8966
54.8924
54.8882
54.884
54.8798
54.8756
54.8714
54.8672
54.863
54.8588
54.8546
54.8504
54.8462
54.842
54.8378
54.8336
54.8294
54.8252
54.821
54.8168
54.8126
54.8084
54.8042
54.8
54.7958
54.7916
54.7874
54.7832
54.779
54.7748
54.7706
54.7664
54.7621
54.7579
54.7537
54.7495
54.7453
54.7411
54.7369
54.7327
54.7285
54.7243
54.7201
54.7159
54.7117
54.7075
54.7033
54.6991
54.6949
54.6906
54.6864
54.6822
54.678
54.678
56.7432
56.7432
56.5157
56.4666
56.4443
56.4289
56.4165
56.4054
56.3952
56.3856
56.3764
56.3674
56.3588
56.3503
56.3421
56.334
56.3262
56.3185
56.311
56.3036
56.2963
56.2893
56.2823
56.2755
56.2687
56.2621
56.2557
56.2493
56.2431
56.2369
56.2309
56.225
56.2192
56.2135
56.208
56.2026
56.1973
56.1921
56.1871
56.1821
56.1772
56.1724
56.1677
56.163
56.1583
56.1537
56.149
56.1445
56.1399
56.1354
56.1309
56.1264
56.1221
56.1177
56.1134
56.1092
56.105
56.1008
56.0966
56.0924
56.0883
56.0841
56.0799
56.0758
56.0716
56.0674
56.0633
56.0591
56.055
56.0508
56.0467
56.0425
56.0383
56.0342
56.03
56.0259
56.0217
56.0175
56.0134
56.0092
56.0051
56.0009
55.9967
55.9926
55.9884
55.9843
55.9801
55.9759
55.9718
55.9676
55.9635
55.9593
55.9551
55.951
55.9468
55.9427
55.9385
55.9343
55.9302
55.926
55.9219
55.9177
55.9135
55.9094
55.9052
55.9011
55.8969
55.8927
55.8886
55.8844
55.8803
55.8761
55.8719
55.8678
55.8636
55.8595
55.8553
55.8511
55.847
55.8428
55.8387
55.8345
55.8304
55.8262
55.822
55.8179
55.8137
55.8096
55.8054
55.8012
55.7971
55.7929
55.7888
55.7846
55.7805
55.7763
55.7721
55.768
55.7638
55.7597
55.7555
55.7514
55.7472
55.743
55.7389
55.7347
55.7306
55.7264
55.7223
55.7181
55.714
55.7098
55.7056
55.7015
55.6973
55.6932
55.689
55.6849
55.6807
55.6766
55.6724
55.6683
55.6641
55.66
55.6558
55.6516
55.6475
55.6433
55.6392
55.635
55.6309
55.6267
55.6226
55.6184
55.6143
55.6101
55.606
55.6018
55.5977
55.5935
55.5894
55.5852
55.581
55.5769
55.5727
55.5686
55.5644
55.5603
55.5561
55.552
55.5478
55.5437
55.5395
55.5354
55.5312
55.5271
55.5229
55.5187
55.5146
55.5104
55.5063
55.5021
55.498
55.4938
55.4897
55.4855
55.4814
55.4772
55.473
55.4689
55.4647
55.4606
55.4564
55.4523
55.4481
55.444
55.4398
55.4356
55.4315
55.4273
55.4232
55.419
55.4148
55.4107
55.4065
55.4024
55.3982
55.394
55.3899
55.3857
55.3816
55.3774
55.3732
55.3691
55.3649
55.3608
55.3566
55.3524
55.3483
55.3441
55.3399
55.3358
55.3316
55.3274
55.3233
55.3191
55.3149
55.3108
55.3066
55.3024
55.2983
55.2941
55.2899
55.2858
55.2816
55.2774
55.2733
55.2691
55.2649
55.2607
55.2566
55.2524
55.2482
55.244
55.2399
55.2357
55.2315
55.2274
55.2232
55.219
55.2148
55.2107
55.2065
55.2023
55.1981
55.1939
55.1898
55.1856
55.1814
55.1772
55.1731
55.1689
55.1647
55.1605
55.1563
55.1522
55.148
55.1438
55.1396
55.1354
55.1312
55.1271
55.1229
55.1187
55.1145
55.1103
55.1061
55.102
55.0978
55.0936
55.0894
55.0852
55.081
55.0768
55.0727
55.0685
55.0643
55.0601
55.0559
55.0517
55.0475
55.0433
55.0392
55.035
55.0308
55.0266
55.0224
55.0182
55.014
55.0098
55.0056
55.0014
54.9973
54.9931
54.9889
54.9847
54.9805
54.9763
54.9721
54.9679
54.9637
54.9595
54.9553
54.9511
54.9469
54.9427
54.9385
54.9344
54.9302
54.926
54.9218
54.9176
54.9134
54.9092
54.905
54.9008
54.8966
54.8924
54.8882
54.884
54.8798
54.8756
54.8714
54.8672
54.863
54.8588
54.8546
54.8504
54.8462
54.842
54.8378
54.8336
54.8294
54.8252
54.821
54.8168
54.8126
54.8084
54.8042
54.8
54.7958
54.7916
54.7874
54.7832
54.779
54.7748
54.7706
54.7664
54.7621
54.7579
54.7537
54.7495
54.7453
54.7411
54.7369
54.7327
54.7285
54.7243
54.7201
54.7159
54.7117
54.7075
54.7033
54.6991
54.6949
54.6906
54.6864
54.6822
54.678
54.678
56.7292
56.7292
56.5183
56.4677
56.4449
56.4293
56.4167
56.4056
56.3954
56.3857
56.3765
56.3675
56.3588
56.3504
56.3421
56.3341
56.3262
56.3185
56.311
56.3036
56.2964
56.2893
56.2823
56.2755
56.2688
56.2622
56.2557
56.2493
56.2431
56.2369
56.2309
56.225
56.2192
56.2135
56.208
56.2026
56.1973
56.1921
56.1871
56.1821
56.1772
56.1724
56.1677
56.163
56.1583
56.1537
56.149
56.1445
56.1399
56.1354
56.1309
56.1264
56.1221
56.1177
56.1134
56.1092
56.105
56.1008
56.0966
56.0924
56.0883
56.0841
56.0799
56.0758
56.0716
56.0674
56.0633
56.0591
56.055
56.0508
56.0467
56.0425
56.0383
56.0342
56.03
56.0259
56.0217
56.0175
56.0134
56.0092
56.0051
56.0009
55.9967
55.9926
55.9884
55.9843
55.9801
55.9759
55.9718
55.9676
55.9635
55.9593
55.9551
55.951
55.9468
55.9427
55.9385
55.9343
55.9302
55.926
55.9219
55.9177
55.9135
55.9094
55.9052
55.9011
55.8969
55.8927
55.8886
55.8844
55.8803
55.8761
55.8719
55.8678
55.8636
55.8595
55.8553
55.8511
55.847
55.8428
55.8387
55.8345
55.8304
55.8262
55.822
55.8179
55.8137
55.8096
55.8054
55.8012
55.7971