# vtk DataFile Version 2.0
FlowField
ASCII
DATASET STRUCTURED_GRID
DIMENSIONS 400 1 200
POINTS 80000 float
0 0 0
0.08 0 0
0.16 0 0
0.24 0 0
0.32 0 0
0.4 0 0
0.48 0 0
0.56 0 0
0.64 0 0
0.72 0 0
0.8 0 0
0.88 0 0
0.96 0 0
1.04 0 0
1.12 0 0
1.2 0 0
1.28 0 0
1.36 0 0
1.44 0 0
1.52 0 0
1.6 0 0
1.68 0 0
1.76 0 0
1.84 0 0
1.92 0 0
2 0 0
2.08 0 0
2.16 0 0
2.24 0 0
2.32 0 0
2.4 0 0
2.48 0 0
2.56 0 0
2.64 0 0
2.72 0 0
2.8 0 0
2.88 0 0
2.96 0 0
3.04 0 0
3.12 0 0
3.2 0 0
3.28 0 0
3.36 0 0
3.44 0 0
3.52 0 0
3.6 0 0
3.68 0 0
3.76 0 0
3.84 0 0
3.92 0 0
4 0 0
4.08 0 0
4.16 0 0
4.24 0 0
4.32 0 0
4.4 0 0
4.48 0 0
4.56 0 0
4.64 0 0
4.72 0 0
4.8 0 0
4.88 0 0
4.96 0 0
5.04 0 0
5.12 0 0
5.2 0 0
5.28 0 0
5.36 0 0
5.44 0 0
5.52 0 0
5.6 0 0
5.68 0 0
5.76 0 0
5.84 0 0
5.92 0 0
6 0 0
6.08 0 0
6.16 0 0
6.24 0 0
6.32 0 0
6.4 0 0
6.48 0 0
6.56 0 0
6.64 0 0
6.72 0 0
6.8 0 0
6.88 0 0
6.96 0 0
7.04 0 0
7.12 0 0
7.2 0 0
7.28 0 0
7.36 0 0
7.44 0 0
7.52 0 0
7.6 0 0
7.68 0 0
7.76 0 0
7.84 0 0
7.92 0 0
8 0 0
8.08 0 0
8.16 0 0
8.24 0 0
8.32 0 0
8.4 0 0
8.48 0 0
8.56 0 0
8.64 0 0
8.72 0 0
8.8 0 0
8.88 0 0
8.96 0 0
9.04 0 0
9.12 0 0
9.2 0 0
9.28 0 0
9.36 0 0
9.44 0 0
9.52 0 0
9.6 0 0
9.68 0 0
9.76 0 0
9.84 0 0
9.92 0 0
10 0 0
10.08 0 0
10.16 0 0
10.24 0 0
10.32 0 0
10.4 0 0
10.48 0 0
10.56 0 0
10.64 0 0
10.72 0 0
10.8 0 0
10.88 0 0
10.96 0 0
11.04 0 0
11.12 0 0
11.2 0 0
11.28 0 0
11.36 0 0
11.44 0 0
11.52 0 0
11.6 0 0
11.68 0 0
11.76 0 0
11.84 0 0
11.92 0 0
12 0 0
12.08 0 0
12.16 0 0
12.24 0 0
12.32 0 0
12.4 0 0
12.48 0 0
12.56 0 0
12.64 0 0
12.72 0 0
12.8 0 0
12.88 0 0
12.96 0 0
13.04 0 0
13.12 0 0
13.2 0 0
13.28 0 0
13.36 0 0
13.44 0 0
13.52 0 0
13.6 0 0
13.68 0 0
13.76 0 0
13.84 0 0
13.92 0 0
14 0 0
14.08 0 0
14.16 0 0
14.24 0 0
14.32 0 0
14.4 0 0
14.48 0 0
14.56 0 0
14.64 0 0
14.72 0 0
14.8 0 0
14.88 0 0
14.96 0 0
15.04 0 0
15.12 0 0
15.2 0 0
15.28 0 0
15.36 0 0
15.44 0 0
15.52 0 0
15.6 0 0
15.68 0 0
15.76 0 0
15.84 0 0
15.92 0 0
16 0 0
16.08 0 0
16.16 0 0
16.24 0 0
16.32 0 0
16.4 0 0
16.48 0 0
16.56 0 0
16.64 0 0
16.72 0 0
16.8 0 0
16.88 0 0
16.96 0 0
17.04 0 0
17.12 0 0
17.2 0 0
17.28 0 0
17.36 0 0
17.44 0 0
17.52 0 0
17.6 0 0
17.68 0 0
17.76 0 0
17.84 0 0
17.92 0 0
18 0 0
18.08 0 0
18.16 0 0
18.24 0 0
18.32 0 0
18.4 0 0
18.48 0 0
18.56 0 0
18.64 0 0
18.72 0 0
18.8 0 0
18.88 0 0
18.96 0 0
19.04 0 0
19.12 0 0
19.2 0 0
19.28 0 0
19.36 0 0
19.44 0 0
19.52 0 0
19.6 0 0
19.68 0 0
19.76 0 0
19.84 0 0
19.92 0 0
20 0 0
20.08 0 0
20.16 0 0
20.24 0 0
20.32 0 0
20.4 0 0
20.48 0 0
20.56 0 0
20.64 0 0
20.72 0 0
20.8 0 0
20.88 0 0
20.96 0 0
21.04 0 0
21.12 0 0
21.2 0 0
21.28 0 0
21.36 0 0
21.44 0 0
21.52 0 0
21.6 0 0
21.68 0 0
21.76 0 0
21.84 0 0
21.92 0 0
22 0 0
22.08 0 0
22.16 0 0
22.24 0 0
22.32 0 0
22.4 0 0
22.48 0 0
22.56 0 0
22.64 0 0
22.72 0 0
22.8 0 0
22.88 0 0
22.96 0 0
23.04 0 0
23.12 0 0
23.2 0 0
23.28 0 0
23.36 0 0
23.44 0 0
23.52 0 0
23.6 0 0
23.68 0 0
23.76 0 0
23.84 0 0
23.92 0 0
24 0 0
24.08 0 0
24.16 0 0
24.24 0 0
24.32 0 0
24.4 0 0
24.48 0 0
24.56 0 0
24.64 0 0
24.72 0 0
24.8 0 0
24.88 0 0
24.96 0 0
25.04 0 0
25.12 0 0
25.2 0 0
25.28 0 0
25.36 0 0
25.44 0 0
25.52 0 0
25.6 0 0
25.68 0 0
25.76 0 0
25.84 0 0
25.92 0 0
26 0 0
26.08 0 0
26.16 0 0
26.24 0 0
26.32 0 0
26.4 0 0
26.48 0 0
26.56 0 0
26.64 0 0
26.72 0 0
26.8 0 0
26.88 0 0
26.96 0 0
27.04 0 0
27.12 0 0
27.2 0 0
27.28 0 0
27.36 0 0
27.44 0 0
27.52 0 0
27.6 0 0
27.68 0 0
27.76 0 0
27.84 0 0
27.92 0 0
28 0 0
28.08 0 0
28.16 0 0
28.24 0 0
28.32 0 0
28.4 0 0
28.48 0 0
28.56 0 0
28.64 0 0
28.72 0 0
28.8 0 0
28.88 0 0
28.96 0 0
29.04 0 0
29.12 0 0
29.2 0 0
29.28 0 0
29.36 0 0
29.44 0 0
29.52 0 0
29.6 0 0
29.68 0 0
29.76 0 0
29.84 0 0
29.92 0 0
30 0 0
30.08 0 0
30.16 0 0
30.24 0 0
30.32 0 0
30.4 0 0
30.48 0 0
30.56 0 0
30.64 0 0
30.72 0 0
30.8 0 0
30.88 0 0
30.96 0 0
31.04 0 0
31.12 0 0
31.2 0 0
31.28 0 0
31.36 0 0
31.44 0 0
31.52 0 0
31.6 0 0
31.68 0 0
31.76 0 0
31.84 0 0
31.92 0 0
0 0.005 0
0.08 0.005 0
0.16 0.005 0
0.24 0.005 0
0.32 0.005 0
0.4 0.005 0
0.48 0.005 0
0.56 0.005 0
0.64 0.005 0
0.72 0.005 0
0.8 0.005 0
0.88 0.005 0
0.96 0.005 0
1.04 0.005 0
1.12 0.005 0
1.2 0.005 0
1.28 0.005 0
1.36 0.005 0
1.44 0.005 0
1.52 0.005 0
1.6 0.005 0
1.68 0.005 0
1.76 0.005 0
1.84 0.005 0
1.92 0.005 0
2 0.005 0
2.08 0.005 0
2.16 0.005 0
2.24 0.005 0
2.32 0.005 0
2.4 0.005 0
2.48 0.005 0
2.56 0.005 0
2.64 0.005 0
2.72 0.005 0
2.8 0.005 0
2.88 0.005 0
2.96 0.005 0
3.04 0.005 0
3.12 0.005 0
3.2 0.005 0
3.28 0.005 0
3.36 0.005 0
3.44 0.005 0
3.52 0.005 0
3.6 0.005 0
3.68 0.005 0
3.76 0.005 0
3.84 0.005 0
3.92 0.005 0
4 0.005 0
4.08 0.005 0
4.16 0.005 0
4.24 0.005 0
4.32 0.005 0
4.4 0.005 0
4.48 0.005 0
4.56 0.005 0
4.64 0.005 0
4.72 0.005 0
4.8 0.005 0
4.88 0.005 0
4.96 0.005 0
5.04 0.005 0
5.12 0.005 0
5.2 0.005 0
5.28 0.005 0
5.36 0.005 0
5.44 0.005 0
5.52 0.005 0
5.6 0.005 0
5.68 0.005 0
5.76 0.005 0
5.84 0.005 0
5.92 0.005 0
6 0.005 0
6.08 0.005 0
6.16 0.005 0
6.24 0.005 0
6.32 0.005 0
6.4 0.005 0
6.48 0.005 0
6.56 0.005 0
6.64 0.005 0
6.72 0.005 0
6.8 0.005 0
6.88 0.005 0
6.96 0.005 0
7.04 0.005 0
7.12 0.005 0
7.2 0.005 0
7.28 0.005 0
7.36 0.005 0
7.44 0.005 0
7.52 0.005 0
7.6 0.005 0
7.68 0.005 0
7.76 0.005 0
7.84 0.005 0
7.92 0.005 0
8 0.005 0
8.08 0.005 0
8.16 0.005 0
8.24 0.005 0
8.32 0.005 0
8.4 0.005 0
8.48 0.005 0
8.56 0.005 0
8.64 0.005 0
8.72 0.005 0
8.8 0.005 0
8.88 0.005 0
8.96 0.005 0
9.04 0.005 0
9.12 0.005 0
9.2 0.005 0
9.28 0.005 0
9.36 0.005 0
9.44 0.005 0
9.52 0.005 0
9.6 0.005 0
9.68 0.005 0
9.76 0.005 0
9.84 0.005 0
9.92 0.005 0
10 0.005 0
10.08 0.005 0
10.16 0.005 0
10.24 0.005 0
10.32 0.005 0
10.4 0.005 0
10.48 0.005 0
10.56 0.005 0
10.64 0.005 0
10.72 0.005 0
10.8 0.005 0
10.88 0.005 0
10.96 0.005 0
11.04 0.005 0
11.12 0.005 0
11.2 0.005 0
11.28 0.005 0
11.36 0.005 0
11.44 0.005 0
11.52 0.005 0
11.6 0.005 0
11.68 0.005 0
11.76 0.005 0
11.84 0.005 0
11.92 0.005 0
12 0.005 0
12.08 0.005 0
12.16 0.005 0
12.24 0.005 0
12.32 0.005 0
12.4 0.005 0
12.48 0.005 0
12.56 0.005 0
12.64 0.005 0
12.72 0.005 0
12.8 0.005 0
12.88 0.005 0
12.96 0.005 0
13.04 0.005 0
13.12 0.005 0
13.2 0.005 0
13.28 0.005 0
13.36 0.005 0
13.44 0.005 0
13.52 0.005 0
13.6 0.005 0
13.68 0.005 0
13.76 0.005 0
13.84 0.005 0
13.92 0.005 0
14 0.005 0
14.08 0.005 0
14.16 0.005 0
14.24 0.005 0
14.32 0.005 0
14.4 0.005 0
14.48 0.005 0
14.56 0.005 0
14.64 0.005 0
14.72 0.005 0
14.8 0.005 0
14.88 0.005 0
14.96 0.005 0
15.04 0.005 0
15.12 0.005 0
15.2 0.005 0
15.28 0.005 0
15.36 0.005 0
15.44 0.005 0
15.52 0.005 0
15.6 0.005 0
15.68 0.005 0
15.76 0.005 0
15.84 0.005 0
15.92 0.005 0
16 0.005 0
16.08 0.005 0
16.16 0.005 0
16.24 0.005 0
16.32 0.005 0
16.4 0.005 0
16.48 0.005 0
16.56 0.005 0
16.64 0.005 0
16.72 0.005 0
16.8 0.005 0
16.88 0.005 0
16.96 0.005 0
17.04 0.005 0
17.12 0.005 0
17.2 0.005 0
17.28 0.005 0
17.36 0.005 0
17.44 0.005 0
17.52 0.005 0
17.6 0.005 0
17.68 0.005 0
17.76 0.005 0
17.84 0.005 0
17.92 0.005 0
18 0.005 0
18.08 0.005 0
18.16 0.005 0
18.24 0.005 0
18.32 0.005 0
18.4 0.005 0
18.48 0.005 0
18.56 0.005 0
18.64 0.005 0
18.72 0.005 0
18.8 0.005 0
18.88 0.005 0
18.96 0.005 0
19.04 0.005 0
19.12 0.005 0
19.2 0.005 0
19.28 0.005 0
19.36 0.005 0
19.44 0.005 0
19.52 0.005 0
19.6 0.005 0
19.68 0.005 0
19.76 0.005 0
19.84 0.005 0
19.92 0.005 0
20 0.005 0
20.08 0.005 0
20.16 0.005 0
20.24 0.005 0
20.32 0.005 0
20.4 0.005 0
20.48 0.005 0
20.56 0.005 0
20.64 0.005 0
20.72 0.005 0
20.8 0.005 0
20.88 0.005 0
20.96 0.005 0
21.04 0.005 0
21.12 0.005 0
21.2 0.005 0
21.28 0.005 0
21.36 0.005 0
21.44 0.005 0
21.52 0.005 0
21.6 0.005 0
21.68 0.005 0
21.76 0.005 0
21.84 0.005 0
21.92 0.005 0
22 0.005 0
22.08 0.005 0
22.16 0.005 0
22.24 0.005 0
22.32 0.005 0
22.4 0.005 0
22.48 0.005 0
22.56 0.005 0
22.64 0.005 0
22.72 0.005 0
22.8 0.005 0
22.88 0.005 0
22.96 0.005 0
23.04 0.005 0
23.12 0.005 0
23.2 0.005 0
23.28 0.005 0
23.36 0.005 0
23.44 0.005 0
23.52 0.005 0
23.6 0.005 0
23.68 0.005 0
23.76 0.005 0
23.84 0.005 0
23.92 0.005 0
24 0.005 0
24.08 0.005 0
24.16 0.005 0
24.24 0.005 0
24.32 0.005 0
24.4 0.005 0
24.48 0.005 0
24.56 0.005 0
24.64 0.005 0
24.72 0.005 0
24.8 0.005 0
24.88 0.005 0
24.96 0.005 0
25.04 0.005 0
25.12 0.005 0
25.2 0.005 0
25.28 0.005 0
25.36 0.005 0
25.44 0.005 0
25.52 0.005 0
25.6 0.005 0
25.68 0.005 0
25.76 0.005 0
25.84 0.005 0
25.92 0.005 0
26 0.005 0
26.08 0.005 0
26.16 0.005 0
26.24 0.005 0
26.32 0.005 0
26.4 0.005 0
26.48 0.005 0
26.56 0.005 0
26.64 0.005 0
26.72 0.005 0
26.8 0.005 0
26.88 0.005 0
26.96 0.005 0
27.04 0.005 0
27.12 0.005 0
27.2 0.005 0
27.28 0.005 0
27.36 0.005 0
27.44 0.005 0
27.52 0.005 0
27.6 0.005 0
27.68 0.005 0
27.76 0.005 0
27.84 0.005 0
27.92 0.005 0
28 0.005 0
28.08 0.005 0
28.16 0.005 0
28.24 0.005 0
28.32 0.005 0
28.4 0.005 0
28.48 0.005 0
28.56 0.005 0
28.64 0.005 0
28.72 0.005 0
28.8 0.005 0
28.88 0.005 0
28.96 0.005 0
29.04 0.005 0
29.12 0.005 0
29.2 0.005 0
29.28 0.005 0
29.36 0.005 0
29.44 0.005 0
29.52 0.005 0
29.6 0.005 0
29.68 0.005 0
29.76 0.005 0
29.84 0.005 0
29.92 0.005 0
30 0.005 0
30.08 0.005 0
30.16 0.005 0
30.24 0.005 0
30.32 0.005 0
30.4 0.005 0
30.48 0.005 0
30.56 0.005 0
30.64 0.005 0
30.72 0.005 0
30.8 0.005 0
30.88 0.005 0
30.96 0.005 0
31.04 0.005 0
31.12 0.005 0
31.2 0.005 0
31.28 0.005 0
31.36 0.005 0
31.44 0.005 0
31.52 0.005 0
31.6 0.005 0
31.68 0.005 0
31.76 0.005 0
31.84 0.005 0
31.92 0.005 0
0 0.01 0
0.08 0.01 0
0.16 0.01 0
0.24 0.01 0
0.32 0.01 0
0.4 0.01 0
0.48 0.01 0
0.56 0.01 0
0.64 0.01 0
0.72 0.01 0
0.8 0.01 0
0.88 0.01 0
0.96 0.01 0
1.04 0.01 0
1.12 0.01 0
1.2 0.01 0
1.28 0.01 0
1.36 0.01 0
1.44 0.01 0
1.52 0.01 0
1.6 0.01 0
1.68 0.01 0
1.76 0.01 0
1.84 0.01 0
1.92 0.01 0
2 0.01 0
2.08 0.01 0
2.16 0.01 0
2.24 0.01 0
2.32 0.01 0
2.4 0.01 0
2.48 0.01 0
2.56 0.01 0
2.64 0.01 0
2.72 0.01 0
2.8 0.01 0
2.88 0.01 0
2.96 0.01 0
3.04 0.01 0
3.12 0.01 0
3.2 0.01 0
3.28 0.01 0
3.36 0.01 0
3.44 0.01 0
3.52 0.01 0
3.6 0.01 0
3.68 0.01 0
3.76 0.01 0
3.84 0.01 0
3.92 0.01 0
4 0.01 0
4.08 0.01 0
4.16 0.01 0
4.24 0.01 0
4.32 0.01 0
4.4 0.01 0
4.48 0.01 0
4.56 0.01 0
4.64 0.01 0
4.72 0.01 0
4.8 0.01 0
4.88 0.01 0
4.96 0.01 0
5.04 0.01 0
5.12 0.01 0
[...]
POINT_DATA 80000

SCALARS v float 1
LOOKUP_TABLE default
0
0
0
0
0
0
0
0
0
0
0
0
0
0
0
0
0
0
0
0
0
0
0
0
0
0
0
0
0
0
0
0
0
0
0
0
0
0
0
0
0
0
0
0
0
0
0
0
0
0
0
0
0
0
0
0
0
0
0
0
0
0
0
0
0
0
0
0
0
0
0
0
0
0
0
0
0
0
0
0
0
0
0
0
0
0
0
0
0
0
0
0
0
0
0
0
0
0
0
0
0
0
0
0
0
0
0
0
0
0
0
0
0
0
0
0
0
0
0
0
0
0
0
0
0
0
0
0
0
0
0
0
0
0
0
0
0
0
0
0
0
0
0
0
0
0
0
0
0
0
0
0
0
0
0
0
0
0
0
0
0
0
0
0
0
0
0
0
0
0
0
0
0
0
0
0
0
0
0
0
0
0
0
0
0
0
0
0
0
0
0
0
0
0
0
0
0
0
0
0
0
0
0
0
0
0
0
0
0
0
0
0
0
0
0
0
0
0
0
0
0
0
0
0
0
0
0
0
0
0
0
0
0
0
0
0
0
0
0
0
0
0
0
0
0
0
0
0
0
0
0
0
0
0
0
0
0
0
0
0
0
0
0
0
0
0
0
0
0
0
0
0
0
0
0
0
0
0
0
0
0
0
0
0
0
0
0
0
0
0
0
0
0
0
0
0
0
0
0
0
0
0
0
0
0
0
0
0
0
0
0
0
0
0
0
0
0
0
0
0
0
0
0
0
0
0
0
0
0
0
0
0
0
0
0
0
0
0
0
0
0
0
0
0
0
0
0
0
0
0
0
0
0
0
0
0
0
0
0
0
0
0
0
0
0
0
0
0
0
0
0
0
0
0
0
0
0
0
0
0
0
0
0
0
0
0
0
0
0
0
0
0
0
0
0
0
0
0
0
0
-0.0542714
0.0542714
0.00396239
0.000998624
0.000492557
0.000302994
0.000207618
0.00015199
0.000116549
9.25928e-05
7.56799e-05
6.33193e-05
5.40177e-05
4.68372e-05
4.1168e-05
3.6601e-05
3.28525e-05
2.97221e-05
2.70693e-05
2.4797e-05
2.28338e-05
2.11196e-05
1.96018e-05
1.82409e-05
1.70151e-05
1.59148e-05
1.49282e-05
1.40323e-05
1.31975e-05
1.24033e-05
1.16485e-05
1.09457e-05
1.03023e-05
9.7034e-06
9.11099e-06
8.48282e-06
7.7977e-06
7.07039e-06
6.34577e-06
5.67606e-06
5.09551e-06
4.60703e-06
4.18674e-06
3.80167e-06
3.42889e-06
3.0662e-06
2.73001e-06
2.44382e-06
2.22454e-06
2.07351e-06
1.9755e-06
1.90464e-06
1.83344e-06
1.74085e-06
1.61667e-06
1.46194e-06
1.28618e-06
1.10318e-06
9.26955e-07
7.68746e-07
6.35518e-07
5.29808e-07
4.50512e-07
3.94128e-07
3.56026e-07
3.31474e-07
3.163e-07
3.07204e-07
3.01807e-07
2.98529e-07
2.96404e-07
2.94891e-07
2.93714e-07
2.92743e-07
2.91924e-07
2.91231e-07
2.90649e-07
2.90162e-07
2.89756e-07
2.89413e-07
2.8912e-07
2.88863e-07
2.88632e-07
2.8842e-07
2.88221e-07
2.88031e-07
2.87848e-07
2.87669e-07
2.87494e-07
2.87322e-07
2.87151e-07
2.86982e-07
2.86814e-07
2.86647e-07
2.8648e-07
2.86312e-07
2.86143e-07
2.85972e-07
2.85799e-07
2.85625e-07
2.85447e-07
2.85266e-07
2.85081e-07
2.84892e-07
2.84699e-07
2.84501e-07
2.84297e-07
2.84089e-07
2.83874e-07
2.83654e-07
2.83427e-07
2.83193e-07
2.82953e-07
2.82705e-07
2.82449e-07
2.82186e-07
2.81915e-07
2.81635e-07
2.81347e-07
2.8105e-07
2.80743e-07
2.80428e-07
2.80103e-07
2.79769e-07
2.79424e-07
2.7907e-07
2.78705e-07
2.7833e-07
2.77945e-07
2.77549e-07
2.77142e-07
2.76725e-07
2.76296e-07
2.75856e-07
2.75406e-07
2.74944e-07
2.74471e-07
2.73986e-07
2.7349e-07
2.72983e-07
2.72465e-07
2.71935e-07
2.71394e-07
2.70841e-07
2.70277e-07
2.69702e-07
2.69116e-07
2.68518e-07
2.67909e-07
2.67289e-07
2.66658e-07
2.66016e-07
2.65363e-07
2.64699e-07
2.64025e-07
2.6334e-07
2.62645e-07
2.61939e-07
2.61222e-07
2.60496e-07
2.5976e-07
2.59014e-07
2.58258e-07
2.57492e-07
2.56717e-07
2.55932e-07
2.55139e-07
2.54336e-07
2.53525e-07
2.52704e-07
2.51875e-07
2.51038e-07
2.50192e-07
2.49339e-07
2.48477e-07
2.47608e-07
2.46731e-07
2.45846e-07
2.44954e-07
2.44055e-07
2.43149e-07
2.42236e-07
2.41317e-07
2.40391e-07
2.39458e-07
2.3852e-07
2.37575e-07
2.36625e-07
2.35669e-07
2.34707e-07
2.33739e-07
2.32767e-07
2.31789e-07
2.30806e-07
2.29819e-07
2.28827e-07
2.2783e-07
2.26828e-07
2.25822e-07
2.24812e-07
2.23798e-07
2.2278e-07
2.21759e-07
2.20733e-07
2.19704e-07
2.18671e-07
2.17635e-07
2.16596e-07
2.15553e-07
2.14508e-07
2.13459e-07
2.12408e-07
2.11354e-07
2.10297e-07
2.09238e-07
2.08176e-07
2.07111e-07
2.06044e-07
2.04975e-07
2.03904e-07
2.02831e-07
2.01756e-07
2.00678e-07
1.99599e-07
1.98518e-07
1.97435e-07
1.96351e-07
1.95264e-07
1.94177e-07
1.93087e-07
1.91996e-07
1.90904e-07
1.8981e-07
1.88715e-07
1.87619e-07
1.86521e-07
1.85422e-07
1.84322e-07
1.83221e-07
1.82119e-07
1.81016e-07
1.79911e-07
1.78806e-07
1.777e-07
1.76592e-07
1.75484e-07
1.74375e-07
1.73265e-07
1.72155e-07
1.71043e-07
1.69931e-07
1.68818e-07
1.67704e-07
1.66589e-07
1.65474e-07
1.64358e-07
1.63242e-07
1.62125e-07
1.61007e-07
1.59888e-07
1.58769e-07
1.5765e-07
1.5653e-07
1.55409e-07
1.54288e-07
1.53166e-07
1.52044e-07
1.50921e-07
1.49797e-07
1.48674e-07
1.47549e-07
1.46424e-07
1.45299e-07
1.44174e-07
1.43047e-07
1.41921e-07
1.40794e-07
1.39666e-07
1.38539e-07
1.3741e-07
1.36282e-07
1.35153e-07
1.34023e-07
1.32893e-07
1.31763e-07
1.30632e-07
1.29501e-07
1.2837e-07
1.27238e-07
1.26106e-07
1.24974e-07
1.23841e-07
1.22707e-07
1.21574e-07
1.2044e-07
1.19306e-07
1.18171e-07
1.17036e-07
1.15901e-07
1.14765e-07
1.13629e-07
1.12493e-07
1.11357e-07
1.1022e-07
1.09082e-07
1.07945e-07
1.06807e-07
1.05669e-07
1.0453e-07
1.03391e-07
1.02252e-07
1.01113e-07
9.99732e-08
9.88331e-08
9.76928e-08
9.65521e-08
9.54112e-08
9.42699e-08
9.31284e-08
9.19866e-08
9.08444e-08
8.9702e-08
8.85593e-08
8.74163e-08
8.6273e-08
8.51295e-08
8.39856e-08
8.28415e-08
8.1697e-08
8.05523e-08
7.94073e-08
7.82621e-08
7.71165e-08
7.59707e-08
7.48246e-08
7.36782e-08
7.25315e-08
7.13846e-08
7.02374e-08
6.90899e-08
6.79422e-08
6.67941e-08
6.56459e-08
6.4497e-08
6.33488e-08
6.21986e-08
6.10511e-08
5.98981e-08
5.87539e-08
5.75941e-08
5.64591e-08
5.52842e-08
5.41698e-08
5.29645e-08
5.18905e-08
5.06305e-08
4.96252e-08
4.8279e-08
4.73756e-08
4.59102e-08
4.51397e-08
4.35281e-08
4.29118e-08
4.11398e-08
4.06837e-08
3.87536e-08
3.8448e-08
3.63749e-08
3.62043e-08
3.39972e-08
3.39671e-08
3.15983e-08
3.17646e-08
2.91479e-08
2.96265e-08
2.66177e-08
2.75806e-08
2.39804e-08
2.56502e-08
2.12202e-08
2.38338e-08
1.83549e-08
2.20845e-08
1.54466e-08
2.02909e-08
1.26237e-08
1.82215e-08
1.01397e-08
1.53893e-08
8.52784e-09
1.07377e-08
8.98625e-09
1.84407e-09
1.5128e-08
-1.76671e-08
4.23352e-08
-6.23585e-08
2.39947e-07
1.69672e-09
1.69672e-09
-0.0952162
0.0952162
0.012976
0.00385498
0.00193467
0.00119657
0.000822113
0.000602688
0.000462441
0.000367415
0.000300205
0.000251019
0.00021397
0.000185354
0.000162755
0.000144549
0.000129607
0.000117133
0.000106569
9.75258e-05
8.97133e-05
8.28897e-05
7.6848e-05
7.14354e-05
6.65663e-05
6.21964e-05
5.82709e-05
5.46956e-05
5.13593e-05
4.81895e-05
4.51846e-05
4.2387e-05
3.98123e-05
3.73915e-05
3.49779e-05
3.24211e-05
2.96584e-05
2.67612e-05
2.39051e-05
2.12819e-05
1.90092e-05
1.70876e-05
1.54238e-05
1.38978e-05
1.24318e-05
1.1024e-05
9.73654e-06
8.65142e-06
7.82148e-06
7.2409e-06
6.84531e-06
6.53582e-06
6.21265e-06
5.80329e-06
5.27687e-06
4.64346e-06
3.94254e-06
3.22713e-06
2.54891e-06
1.94778e-06
1.44706e-06
1.05357e-06
7.60959e-07
5.54595e-07
4.1624e-07
3.27784e-07
2.7355e-07
2.41313e-07
2.22351e-07
2.10939e-07
2.03613e-07
1.98449e-07
1.94474e-07
1.91241e-07
1.88556e-07
1.8633e-07
1.84505e-07
1.83025e-07
1.81828e-07
1.80855e-07
1.80051e-07
1.79369e-07
1.78772e-07
1.78232e-07
1.77731e-07
1.77254e-07
1.76794e-07
1.76344e-07
1.75902e-07
1.75465e-07
1.75032e-07
1.74602e-07
1.74173e-07
1.73745e-07
1.73316e-07
1.72887e-07
1.72456e-07
1.72022e-07
1.71584e-07
1.71143e-07
1.70696e-07
1.70245e-07
1.69787e-07
1.69324e-07
1.68853e-07
1.68376e-07
1.67891e-07
1.67398e-07
1.66897e-07
1.66388e-07
1.65869e-07
1.65342e-07
1.64806e-07
1.64259e-07
1.63703e-07
1.63137e-07
1.6256e-07
1.61973e-07
1.61374e-07
1.60765e-07
1.60143e-07
1.5951e-07
1.58866e-07
1.58209e-07
1.57539e-07
1.56858e-07
1.56163e-07
1.55456e-07
1.54735e-07
1.54002e-07
1.53255e-07
1.52494e-07
1.5172e-07
1.50933e-07
1.50131e-07
1.49316e-07
1.48488e-07
1.47645e-07
1.46788e-07
1.45918e-07
1.45033e-07
1.44135e-07
1.43223e-07
1.42297e-07
1.41357e-07
1.40404e-07
1.39436e-07
1.38456e-07
1.37461e-07
1.36453e-07
1.35432e-07
1.34398e-07
1.3335e-07
1.32289e-07
1.31216e-07
1.30129e-07
1.2903e-07
1.27919e-07
1.26795e-07
1.25659e-07
1.24511e-07
1.23351e-07
1.22179e-07
1.20996e-07
1.19801e-07
1.18595e-07
1.17378e-07
1.16151e-07
1.14913e-07
1.13664e-07
1.12405e-07
1.11136e-07
1.09857e-07
1.08569e-07
1.0727e-07
1.05963e-07
1.04647e-07
1.03321e-07
1.01987e-07
1.00645e-07
9.92936e-08
9.79345e-08
9.65675e-08
9.51927e-08
9.38103e-08
9.24206e-08
9.10236e-08
8.96196e-08
8.82088e-08
8.67913e-08
8.53672e-08
8.39369e-08
8.25004e-08
8.1058e-08
7.96097e-08
7.81558e-08
7.66963e-08
7.52316e-08
7.37616e-08
7.22866e-08
7.08067e-08
6.93221e-08
6.78328e-08
6.63391e-08
6.4841e-08
6.33388e-08
6.18324e-08
6.03222e-08
5.88081e-08
5.72903e-08
5.57689e-08
5.4244e-08
5.27157e-08
5.11842e-08
4.96495e-08
4.81118e-08
4.65711e-08
4.50275e-08
4.34812e-08
4.19321e-08
4.03805e-08
3.88263e-08
3.72697e-08
3.57107e-08
3.41495e-08
3.2586e-08
3.10203e-08
2.94526e-08
2.78829e-08
2.63112e-08
2.47376e-08
2.31622e-08
2.1585e-08
2.00061e-08
1.84255e-08
1.68433e-08
1.52595e-08
1.36742e-08
1.20874e-08
1.04991e-08
8.90945e-09
7.31845e-09
5.72611e-09
4.13248e-09
2.53762e-09
9.41527e-10
-6.55761e-10
-2.25419e-09
-3.85376e-09
-5.45441e-09
-7.05616e-09
-8.65893e-09
-1.02627e-08
-1.18675e-08
-1.34733e-08
-1.50801e-08
-1.66877e-08
-1.82963e-08
-1.99058e-08
-2.15162e-08
-2.31275e-08
-2.47396e-08
-2.63525e-08
-2.79663e-08
-2.95808e-08
-3.11962e-08
-3.28123e-08
-3.44293e-08
-3.6047e-08
-3.76654e-08
-3.92846e-08
-4.09045e-08
-4.25251e-08
-4.41464e-08
-4.57685e-08
-4.73912e-08
-4.90146e-08
-5.06388e-08
-5.22636e-08
-5.3889e-08
-5.55151e-08
-5.71419e-08
-5.87694e-08
-6.03974e-08
-6.20262e-08
-6.36555e-08
-6.52855e-08
-6.69161e-08
-6.85474e-08
-7.01793e-08
-7.18118e-08
-7.34448e-08
-7.50786e-08
-7.67129e-08
-7.83478e-08
-7.99834e-08
-8.16195e-08
-8.32562e-08
-8.48936e-08
-8.65315e-08
-8.817e-08
-8.98091e-08
-9.14489e-08
-9.30891e-08
-9.473e-08
-9.63715e-08
-9.80135e-08
-9.96562e-08
-1.01299e-07
-1.02943e-07
-1.04588e-07
-1.06232e-07
-1.07878e-07
-1.09524e-07
-1.11171e-07
-1.12818e-07
-1.14466e-07
-1.16114e-07
-1.17763e-07
-1.19413e-07
-1.21063e-07
-1.22714e-07
-1.24365e-07
-1.26017e-07
-1.2767e-07
-1.29323e-07
-1.30976e-07
-1.32631e-07
-1.34285e-07
-1.35941e-07
-1.37597e-07
-1.39253e-07
-1.40911e-07
-1.42569e-07
-1.44227e-07
-1.45886e-07
-1.47546e-07
-1.49206e-07
-1.50867e-07
-1.52528e-07
-1.5419e-07
-1.55853e-07
-1.57516e-07
-1.59181e-07
-1.60843e-07
-1.62512e-07
-1.64171e-07
-1.6585e-07
-1.67496e-07
-1.69199e-07
-1.70811e-07
-1.72568e-07
-1.74104e-07
-1.75973e-07
-1.77359e-07
-1.79429e-07
-1.8056e-07
-1.8295e-07
-1.83701e-07
-1.86536e-07
-1.86788e-07
-1.90171e-07
-1.89843e-07
-1.9383e-07
-1.92897e-07
-1.97479e-07
-1.95979e-07
-2.01099e-07
-1.99091e-07
-2.04712e-07
-2.02181e-07
-2.084e-07
-2.05144e-07
-2.12278e-07
-2.07864e-07
-2.16455e-07
-2.10239e-07
-2.2103e-07
-2.12182e-07
-2.26066e-07
-2.13694e-07
-2.31503e-07
-2.14944e-07
-2.37113e-07
-2.16348e-07
-2.42422e-07
-2.18766e-07
-2.46499e-07
-2.24008e-07
-2.47391e-07
-2.35986e-07
-2.40731e-07
-2.63635e-07
-2.13341e-07
-3.30309e-07
-1.08814e-07
-4.87077e-07
6.10305e-07
-2.48607e-07
-2.48607e-07
-0.125293
0.125293
0.0249362
0.00835842
0.00427841
0.00266195
0.00183417
0.00134679
0.00103432
0.000822142
0.000671826
0.000561686
0.000478657
0.000414492
0.000363805
0.000322965
0.000289451
0.000261479
0.000237802
0.000217539
0.000200036
0.000184746
0.00017121
0.000159092
0.0001482
0.000138424
0.000129631
0.000121606
0.000114113
0.000107002
0.000100272
9.40053e-05
8.82141e-05
8.27321e-05
7.72414e-05
7.14347e-05
6.52038e-05
5.87252e-05
5.23833e-05
4.65813e-05
4.15539e-05
3.72882e-05
3.35806e-05
3.01822e-05
2.69381e-05
2.38525e-05
2.10567e-05
1.87143e-05
1.69207e-05
1.56472e-05
1.47461e-05
1.40049e-05
1.32167e-05
1.22376e-05
1.10131e-05
9.57406e-06
8.01024e-06
6.43625e-06
4.96054e-06
3.66446e-06
2.59322e-06
1.75706e-06
1.13906e-06
7.05615e-07
4.16489e-07
2.32485e-07
1.2011e-07
5.35008e-08
1.43592e-08
-9.23774e-09
-2.44488e-08
-3.52188e-08
-4.35302e-08
-5.02893e-08
-5.58853e-08
-6.05013e-08
-6.42635e-08
-6.72956e-08
-6.97282e-08
-7.16908e-08
-7.33011e-08
-7.46582e-08
-7.58401e-08
-7.69045e-08
-7.78922e-08
-7.88305e-08
-7.97369e-08
-8.06224e-08
-8.14939e-08
-8.23553e-08
-8.32097e-08
-8.40589e-08
-8.49048e-08
-8.57488e-08
-8.65925e-08
-8.74372e-08
-8.82845e-08
-8.91353e-08
-8.9991e-08
-9.08525e-08
-9.17206e-08
-9.25962e-08
-9.34799e-08
-9.43721e-08
-9.52735e-08
-9.61843e-08
-9.71049e-08
-9.80356e-08
-9.89767e-08
-9.99285e-08
-1.00891e-07
-1.01865e-07
-1.0285e-07
-1.03847e-07
-1.04856e-07
-1.05877e-07
-1.0691e-07
-1.07956e-07
-1.09015e-07
-1.10087e-07
-1.11172e-07
-1.12271e-07
-1.13384e-07
-1.1451e-07
-1.15652e-07
-1.16807e-07
-1.17977e-07
-1.19162e-07
-1.20362e-07
-1.21578e-07
-1.22808e-07
-1.24054e-07
-1.25315e-07
-1.26592e-07
-1.27885e-07
-1.29193e-07
-1.30517e-07
-1.31857e-07
-1.33213e-07
-1.34585e-07
-1.35972e-07
-1.37375e-07
-1.38794e-07
-1.40229e-07
-1.41679e-07
-1.43145e-07
-1.44627e-07
-1.46124e-07
-1.47636e-07
-1.49163e-07
-1.50706e-07
-1.52263e-07
-1.53835e-07
-1.55422e-07
-1.57024e-07
-1.5864e-07
-1.6027e-07
-1.61914e-07
-1.63573e-07
-1.65244e-07
-1.6693e-07
-1.68629e-07
-1.7034e-07
-1.72065e-07
-1.73803e-07
-1.75553e-07
-1.77315e-07
-1.7909e-07
-1.80877e-07
-1.82675e-07
-1.84485e-07
-1.86306e-07
-1.88138e-07
-1.89981e-07
-1.91834e-07
-1.93698e-07
-1.95572e-07
-1.97456e-07
-1.9935e-07
-2.01254e-07
-2.03167e-07
-2.05089e-07
-2.0702e-07
-2.08959e-07
-2.10907e-07
-2.12864e-07
-2.14828e-07
-2.16801e-07
-2.18781e-07
-2.20768e-07
-2.22763e-07
-2.24765e-07
-2.26774e-07
-2.2879e-07
-2.30812e-07
-2.32841e-07
-2.34876e-07
-2.36916e-07
-2.38963e-07
-2.41016e-07
-2.43074e-07
-2.45137e-07
-2.47206e-07
-2.4928e-07
-2.51358e-07
-2.53442e-07
-2.5553e-07
-2.57623e-07
-2.5972e-07
-2.61821e-07
-2.63927e-07
-2.66036e-07
-2.6815e-07
-2.70267e-07
-2.72388e-07
-2.74512e-07
-2.7664e-07
-2.78771e-07
-2.80906e-07
-2.83043e-07
-2.85184e-07
-2.87328e-07
-2.89474e-07
-2.91624e-07
-2.93776e-07
-2.9593e-07
-2.98088e-07
-3.00248e-07
-3.0241e-07
-3.04575e-07
-3.06742e-07
-3.08911e-07
-3.11082e-07
-3.13256e-07
-3.15432e-07
-3.17609e-07
-3.19789e-07
-3.2197e-07
-3.24154e-07
-3.26339e-07
-3.28526e-07
-3.30715e-07
-3.32905e-07
-3.35097e-07
-3.37291e-07
-3.39487e-07
-3.41683e-07
-3.43882e-07
-3.46082e-07
-3.48283e-07
-3.50486e-07
-3.5269e-07
-3.54896e-07
-3.57102e-07
-3.59311e-07
-3.6152e-07
-3.63731e-07
-3.65943e-07
-3.68156e-07
-3.70371e-07
-3.72587e-07
-3.74804e-07
-3.77022e-07
-3.79241e-07
-3.81462e-07
-3.83684e-07
-3.85906e-07
-3.8813e-07
-3.90355e-07
-3.92582e-07
-3.94809e-07
-3.97037e-07
-3.99266e-07
-4.01497e-07
-4.03728e-07
-4.05961e-07
-4.08195e-07
-4.10429e-07
-4.12665e-07
-4.14901e-07
-4.17139e-07
-4.19378e-07
-4.21618e-07
-4.23858e-07
-4.261e-07
-4.28343e-07
-4.30587e-07
-4.32831e-07
-4.35077e-07
-4.37324e-07
-4.39571e-07
-4.4182e-07
-4.4407e-07
-4.4632e-07
-4.48572e-07
-4.50824e-07
-4.53078e-07
-4.55332e-07
-4.57588e-07
-4.59844e-07
-4.62102e-07
-4.6436e-07
-4.6662e-07
-4.6888e-07
-4.71141e-07
-4.73404e-07
-4.75667e-07
-4.77931e-07
-4.80196e-07
-4.82463e-07
-4.8473e-07
-4.86998e-07
-4.89267e-07
-4.91537e-07
-4.93809e-07
-4.96081e-07
-4.98354e-07
-5.00628e-07
-5.02903e-07
-5.05179e-07
-5.07457e-07
-5.09735e-07
-5.12014e-07
-5.14294e-07
-5.16576e-07
-5.18858e-07
-5.21141e-07
-5.23426e-07
-5.25711e-07
-5.27998e-07
-5.30285e-07
-5.32574e-07
-5.34864e-07
-5.37155e-07
-5.39446e-07
-5.4174e-07
-5.44034e-07
-5.46329e-07
-5.48625e-07
-5.50923e-07
-5.53222e-07
-5.55522e-07
-5.57822e-07
-5.60127e-07
-5.62426e-07
-5.64738e-07
-5.6703e-07
-5.69363e-07
-5.71627e-07
-5.7401e-07
-5.76203e-07
-5.787e-07
-5.80732e-07
-5.83465e-07
-5.85179e-07
-5.88341e-07
-5.89511e-07
-5.93354e-07
-5.93711e-07
-5.98507e-07
-5.97795e-07
-6.03767e-07
-6.01811e-07
-6.09075e-07
-6.05822e-07
-6.14365e-07
-6.09893e-07
-6.19592e-07
-6.1403e-07
-6.24799e-07
-6.18125e-07
-6.30163e-07
-6.21949e-07
-6.35932e-07
-6.25254e-07
-6.42343e-07
-6.27819e-07
-6.49604e-07
-6.29462e-07
-6.57851e-07
-6.30176e-07
-6.66969e-07
-6.30315e-07
-6.76479e-07
-6.30763e-07
-6.85374e-07
-6.33354e-07
-6.91688e-07
-6.41932e-07
-6.91325e-07
-6.64791e-07
-6.75133e-07
-7.20818e-07
-6.15507e-07
-8.59135e-07
-3.93997e-07
-1.18391e-06
1.09636e-06
-6.81516e-07
-6.81516e-07
-0.146488
0.146488
0.0383109
0.0142345
0.00745648
0.00467322
0.00323103
0.00237702
0.00182757
0.00145355
0.00118812
0.000993369
0.000846424
0.000732798
0.000643009
0.000570652
0.000511271
0.000461723
0.000419796
0.000383928
0.000352945
0.000325877
0.000301917
0.00028048
0.000261226
0.000243944
0.00022838
0.000214156
0.000200866
0.000188268
0.000176362
0.000165269
0.000154981
0.000145187
0.000135346
0.00012496
0.000113882
0.000102445
9.1313e-05
8.11571e-05
7.23527e-05
6.4859e-05
5.83284e-05
5.23499e-05
4.66776e-05
4.1328e-05
3.65179e-05
3.2505e-05
2.94243e-05
2.72031e-05
2.55776e-05
2.41875e-05
2.26931e-05
2.08675e-05
1.86359e-05
1.6064e-05
1.33114e-05
1.05737e-05
8.03133e-06
5.81596e-06
3.99716e-06
2.5858e-06
1.5481e-06
8.23725e-07
3.42592e-07
3.75312e-08
-1.48228e-07
-2.58156e-07
-3.22787e-07
-3.61885e-07
-3.87242e-07
-4.05314e-07
-4.19323e-07
-4.30734e-07
-4.40177e-07
-4.47953e-07
-4.54279e-07
-4.59368e-07
-4.63445e-07
-4.6673e-07
-4.69423e-07
-4.71693e-07
-4.7367e-07
-4.75451e-07
-4.77105e-07
-4.78675e-07
-4.80193e-07
-4.81675e-07
-4.83134e-07
-4.84575e-07
-4.86004e-07
-4.87423e-07
-4.88836e-07
-4.90244e-07
-4.91651e-07
-4.93058e-07
-4.94467e-07
-4.9588e-07
-4.973e-07
-4.98726e-07
-5.00161e-07
-5.01605e-07
-5.0306e-07
-5.04525e-07
-5.06001e-07
-5.07489e-07
-5.08989e-07
-5.10501e-07
-5.12026e-07
-5.13563e-07
-5.15112e-07
-5.16675e-07
-5.1825e-07
-5.19839e-07
-5.21441e-07
-5.23056e-07
-5.24686e-07
-5.26329e-07
-5.27986e-07
-5.29658e-07
-5.31345e-07
-5.33046e-07
-5.34763e-07
-5.36495e-07
-5.38243e-07
-5.40007e-07
-5.41786e-07
-5.43582e-07
-5.45394e-07
-5.47223e-07
-5.49068e-07
-5.5093e-07
-5.52809e-07
-5.54705e-07
-5.56618e-07
-5.58548e-07
-5.60496e-07
-5.6246e-07
-5.64442e-07
-5.66441e-07
-5.68457e-07
-5.70491e-07
-5.72542e-07
-5.74609e-07
-5.76694e-07
-5.78795e-07
-5.80914e-07
-5.83049e-07
-5.85201e-07
-5.87369e-07
-5.89554e-07
-5.91755e-07
-5.93971e-07
-5.96204e-07
-5.98453e-07
-6.00717e-07
-6.02997e-07
-6.05291e-07
-6.07601e-07
-6.09926e-07
-6.12265e-07
-6.14619e-07
-6.16987e-07
-6.19369e-07
-6.21765e-07
-6.24174e-07
-6.26596e-07
-6.29032e-07
-6.31481e-07
-6.33942e-07
-6.36416e-07
-6.38902e-07
-6.414e-07
-6.43909e-07
-6.46431e-07
-6.48963e-07
-6.51507e-07
-6.54061e-07
-6.56626e-07
-6.59201e-07
-6.61787e-07
-6.64382e-07
-6.66987e-07
-6.69601e-07
-6.72225e-07
-6.74858e-07
-6.77499e-07
-6.8015e-07
-6.82808e-07
-6.85475e-07
-6.8815e-07
-6.90832e-07
-6.93522e-07
-6.9622e-07
-6.98924e-07
-7.01636e-07
-7.04355e-07
-7.0708e-07
-7.09811e-07
-7.12549e-07
-7.15293e-07
-7.18043e-07
-7.20799e-07
-7.23561e-07
-7.26328e-07
-7.291e-07
-7.31878e-07
-7.3466e-07
-7.37448e-07
-7.4024e-07
-7.43037e-07
-7.45838e-07
-7.48644e-07
-7.51454e-07
-7.54269e-07
-7.57087e-07
-7.59909e-07
-7.62735e-07
-7.65565e-07
-7.68399e-07
-7.71236e-07
-7.74076e-07
-7.7692e-07
-7.79767e-07
-7.82618e-07
-7.85471e-07
-7.88328e-07
-7.91187e-07
-7.94049e-07
-7.96915e-07
-7.99783e-07
-8.02653e-07
-8.05526e-07
-8.08402e-07
-8.11281e-07
-8.14162e-07
-8.17045e-07
-8.1993e-07
-8.22818e-07
-8.25709e-07
-8.28601e-07
-8.31496e-07
-8.34392e-07
-8.37291e-07
-8.40192e-07
-8.43095e-07
-8.46e-07
-8.48906e-07
-8.51815e-07
-8.54726e-07
-8.57638e-07
-8.60552e-07
-8.63469e-07
-8.66386e-07
-8.69306e-07
-8.72227e-07
-8.7515e-07
-8.78075e-07
-8.81002e-07
-8.8393e-07
-8.8686e-07
-8.89791e-07
-8.92724e-07
-8.95659e-07
-8.98595e-07
-9.01533e-07
-9.04472e-07
-9.07413e-07
-9.10355e-07
-9.13299e-07
-9.16245e-07
-9.19192e-07
-9.2214e-07
-9.2509e-07
-9.28042e-07
-9.30995e-07
-9.3395e-07
-9.36906e-07
-9.39863e-07
-9.42822e-07
-9.45783e-07
-9.48745e-07
-9.51708e-07
-9.54673e-07
-9.57639e-07
-9.60607e-07
-9.63576e-07
-9.66547e-07
-9.69519e-07
-9.72493e-07
-9.75468e-07
-9.78444e-07
-9.81423e-07
-9.84402e-07
-9.87383e-07
-9.90365e-07
-9.93349e-07
-9.96334e-07
-9.99321e-07
-1.00231e-06
-1.0053e-06
-1.00829e-06
-1.01128e-06
-1.01428e-06
-1.01727e-06
-1.02027e-06
-1.02327e-06
-1.02627e-06
-1.02927e-06
-1.03227e-06
-1.03528e-06
-1.03828e-06
-1.04129e-06
-1.0443e-06
-1.04731e-06
-1.05032e-06
-1.05334e-06
-1.05635e-06
-1.05937e-06
-1.06239e-06
-1.06541e-06
-1.06843e-06
-1.07145e-06
-1.07448e-06
-1.07751e-06
-1.08053e-06
-1.08357e-06
-1.0866e-06
-1.08963e-06
-1.09266e-06
-1.0957e-06
-1.09874e-06
-1.10178e-06
-1.10482e-06
-1.10787e-06
-1.11091e-06
-1.11396e-06
-1.11701e-06
-1.12006e-06
-1.12311e-06
-1.12617e-06
-1.12922e-06
-1.13228e-06
-1.13535e-06
-1.1384e-06
-1.14148e-06
-1.14452e-06
-1.14763e-06