# vtk DataFile Version 2.0
FlowField
ASCII
DATASET STRUCTURED_GRID
DIMENSIONS 400 1 200
POINTS 80000 float
0 0 0
0.08 0 0
0.16 0 0
0.24 0 0
0.32 0 0
0.4 0 0
0.48 0 0
0.56 0 0
0.64 0 0
0.72 0 0
0.8 0 0
0.88 0 0
0.96 0 0
1.04 0 0
1.12 0 0
1.2 0 0
1.28 0 0
1.36 0 0
1.44 0 0
1.52 0 0
1.6 0 0
1.68 0 0
1.76 0 0
1.84 0 0
1.92 0 0
2 0 0
2.08 0 0
2.16 0 0
2.24 0 0
2.32 0 0
2.4 0 0
2.48 0 0
2.56 0 0
2.64 0 0
2.72 0 0
2.8 0 0
2.88 0 0
2.96 0 0
3.04 0 0
3.12 0 0
3.2 0 0
3.28 0 0
3.36 0 0
3.44 0 0
3.52 0 0
3.6 0 0
3.68 0 0
3.76 0 0
3.84 0 0
3.92 0 0
4 0 0
4.08 0 0
4.16 0 0
4.24 0 0
4.32 0 0
4.4 0 0
4.48 0 0
4.56 0 0
4.64 0 0
4.72 0 0
4.8 0 0
4.88 0 0
4.96 0 0
5.04 0 0
5.12 0 0
5.2 0 0
5.28 0 0
5.36 0 0
5.44 0 0
5.52 0 0
5.6 0 0
5.68 0 0
5.76 0 0
5.84 0 0
5.92 0 0
6 0 0
6.08 0 0
6.16 0 0
6.24 0 0
6.32 0 0
6.4 0 0
6.48 0 0
6.56 0 0
6.64 0 0
6.72 0 0
6.8 0 0
6.88 0 0
6.96 0 0
7.04 0 0
7.12 0 0
7.2 0 0
7.28 0 0
7.36 0 0
7.44 0 0
7.52 0 0
7.6 0 0
7.68 0 0
7.76 0 0
7.84 0 0
7.92 0 0
8 0 0
8.08 0 0
8.16 0 0
8.24 0 0
8.32 0 0
8.4 0 0
8.48 0 0
8.56 0 0
8.64 0 0
8.72 0 0
8.8 0 0
8.88 0 0
8.96 0 0
9.04 0 0
9.12 0 0
9.2 0 0
9.28 0 0
9.36 0 0
9.44 0 0
9.52 0 0
9.6 0 0
9.68 0 0
9.76 0 0
9.84 0 0
9.92 0 0
10 0 0
10.08 0 0
10.16 0 0
10.24 0 0
10.32 0 0
10.4 0 0
10.48 0 0
10.56 0 0
10.64 0 0
10.72 0 0
10.8 0 0
10.88 0 0
10.96 0 0
11.04 0 0
11.12 0 0
11.2 0 0
11.28 0 0
11.36 0 0
11.44 0 0
11.52 0 0
11.6 0 0
11.68 0 0
11.76 0 0
11.84 0 0
11.92 0 0
12 0 0
12.08 0 0
12.16 0 0
12.24 0 0
12.32 0 0
12.4 0 0
12.48 0 0
12.56 0 0
12.64 0 0
12.72 0 0
12.8 0 0
12.88 0 0
12.96 0 0
13.04 0 0
13.12 0 0
13.2 0 0
13.28 0 0
13.36 0 0
13.44 0 0
13.52 0 0
13.6 0 0
13.68 0 0
13.76 0 0
13.84 0 0
13.92 0 0
14 0 0
14.08 0 0
14.16 0 0
14.24 0 0
14.32 0 0
14.4 0 0
14.48 0 0
14.56 0 0
14.64 0 0
14.72 0 0
14.8 0 0
14.88 0 0
14.96 0 0
15.04 0 0
15.12 0 0
15.2 0 0
15.28 0 0
15.36 0 0
15.44 0 0
15.52 0 0
15.6 0 0
15.68 0 0
15.76 0 0
15.84 0 0
15.92 0 0
16 0 0
16.08 0 0
16.16 0 0
16.24 0 0
16.32 0 0
16.4 0 0
16.48 0 0
16.56 0 0
16.64 0 0
16.72 0 0
16.8 0 0
16.88 0 0
16.96 0 0
17.04 0 0
17.12 0 0
17.2 0 0
17.28 0 0
17.36 0 0
17.44 0 0
17.52 0 0
17.6 0 0
17.68 0 0
17.76 0 0
17.84 0 0
17.92 0 0
18 0 0
18.08 0 0
18.16 0 0
18.24 0 0
18.32 0 0
18.4 0 0
18.48 0 0
18.56 0 0
18.64 0 0
18.72 0 0
18.8 0 0
18.88 0 0
18.96 0 0
19.04 0 0
19.12 0 0
19.2 0 0
19.28 0 0
19.36 0 0
19.44 0 0
19.52 0 0
19.6 0 0
19.68 0 0
19.76 0 0
19.84 0 0
19.92 0 0
20 0 0
20.08 0 0
20.16 0 0
20.24 0 0
20.32 0 0
20.4 0 0
20.48 0 0
20.56 0 0
20.64 0 0
20.72 0 0
20.8 0 0
20.88 0 0
20.96 0 0
21.04 0 0
21.12 0 0
21.2 0 0
21.28 0 0
21.36 0 0
21.44 0 0
21.52 0 0
21.6 0 0
21.68 0 0
21.76 0 0
21.84 0 0
21.92 0 0
22 0 0
22.08 0 0
22.16 0 0
22.24 0 0
22.32 0 0
22.4 0 0
22.48 0 0
22.56 0 0
22.64 0 0
22.72 0 0
22.8 0 0
22.88 0 0
22.96 0 0
23.04 0 0
23.12 0 0
23.2 0 0
23.28 0 0
23.36 0 0
23.44 0 0
23.52 0 0
23.6 0 0
23.68 0 0
23.76 0 0
23.84 0 0
23.92 0 0
24 0 0
24.08 0 0
24.16 0 0
24.24 0 0
24.32 0 0
24.4 0 0
24.48 0 0
24.56 0 0
24.64 0 0
24.72 0 0
24.8 0 0
24.88 0 0
24.96 0 0
25.04 0 0
25.12 0 0
25.2 0 0
25.28 0 0
25.36 0 0
25.44 0 0
25.52 0 0
25.6 0 0
25.68 0 0
25.76 0 0
25.84 0 0
25.92 0 0
26 0 0
26.08 0 0
26.16 0 0
26.24 0 0
26.32 0 0
26.4 0 0
26.48 0 0
26.56 0 0
26.64 0 0
26.72 0 0
26.8 0 0
26.88 0 0
26.96 0 0
27.04 0 0
27.12 0 0
27.2 0 0
27.28 0 0
27.36 0 0
27.44 0 0
27.52 0 0
27.6 0 0
27.68 0 0
27.76 0 0
27.84 0 0
27.92 0 0
28 0 0
28.08 0 0
28.16 0 0
28.24 0 0
28.32 0 0
28.4 0 0
28.48 0 0
28.56 0 0
28.64 0 0
28.72 0 0
28.8 0 0
28.88 0 0
28.96 0 0
29.04 0 0
29.12 0 0
29.2 0 0
29.28 0 0
29.36 0 0
29.44 0 0
29.52 0 0
29.6 0 0
29.68 0 0
29.76 0 0
29.84 0 0
29.92 0 0
30 0 0
30.08 0 0
30.16 0 0
30.24 0 0
30.32 0 0
30.4 0 0
30.48 0 0
30.56 0 0
30.64 0 0
30.72 0 0
30.8 0 0
30.88 0 0
30.96 0 0
31.04 0 0
31.12 0 0
31.2 0 0
31.28 0 0
31.36 0 0
31.44 0 0
31.52 0 0
31.6 0 0
31.68 0 0
31.76 0 0
31.84 0 0
31.92 0 0
0 0.005 0
0.08 0.005 0
0.16 0.005 0
0.24 0.005 0
0.32 0.005 0
0.4 0.005 0
0.48 0.005 0
0.56 0.005 0
0.64 0.005 0
0.72 0.005 0
0.8 0.005 0
0.88 0.005 0
0.96 0.005 0
1.04 0.005 0
1.12 0.005 0
1.2 0.005 0
1.28 0.005 0
1.36 0.005 0
1.44 0.005 0
1.52 0.005 0
1.6 0.005 0
1.68 0.005 0
1.76 0.005 0
1.84 0.005 0
1.92 0.005 0
2 0.005 0
2.08 0.005 0
2.16 0.005 0
2.24 0.005 0
2.32 0.005 0
2.4 0.005 0
2.48 0.005 0
2.56 0.005 0
2.64 0.005 0
2.72 0.005 0
2.8 0.005 0
2.88 0.005 0
2.96 0.005 0
3.04 0.005 0
3.12 0.005 0
3.2 0.005 0
3.28 0.005 0
3.36 0.005 0
3.44 0.005 0
3.52 0.005 0
3.6 0.005 0
3.68 0.005 0
3.76 0.005 0
3.84 0.005 0
3.92 0.005 0
4 0.005 0
4.08 0.005 0
4.16 0.005 0
4.24 0.005 0
4.32 0.005 0
4.4 0.005 0
4.48 0.005 0
4.56 0.005 0
4.64 0.005 0
4.72 0.005 0
4.8 0.005 0
4.88 0.005 0
4.96 0.005 0
5.04 0.005 0
5.12 0.005 0
5.2 0.005 0
5.28 0.005 0
5.36 0.005 0
5.44 0.005 0
5.52 0.005 0
5.6 0.005 0
5.68 0.005 0
5.76 0.005 0
5.84 0.005 0
5.92 0.005 0
6 0.005 0
6.08 0.005 0
6.16 0.005 0
6.24 0.005 0
6.32 0.005 0
6.4 0.005 0
6.48 0.005 0
6.56 0.005 0
6.64 0.005 0
6.72 0.005 0
6.8 0.005 0
6.88 0.005 0
6.96 0.005 0
7.04 0.005 0
7.12 0.005 0
7.2 0.005 0
7.28 0.005 0
7.36 0.005 0
7.44 0.005 0
7.52 0.005 0
7.6 0.005 0
7.68 0.005 0
7.76 0.005 0
7.84 0.005 0
7.92 0.005 0
8 0.005 0
8.08 0.005 0
8.16 0.005 0
8.24 0.005 0
8.32 0.005 0
8.4 0.005 0
8.48 0.005 0
8.56 0.005 0
8.64 0.005 0
8.72 0.005 0
8.8 0.005 0
8.88 0.005 0
8.96 0.005 0
9.04 0.005 0
9.12 0.005 0
9.2 0.005 0
9.28 0.005 0
9.36 0.005 0
9.44 0.005 0
9.52 0.005 0
9.6 0.005 0
9.68 0.005 0
9.76 0.005 0
9.84 0.005 0
9.92 0.005 0
10 0.005 0
10.08 0.005 0
10.16 0.005 0
10.24 0.005 0
10.32 0.005 0
10.4 0.005 0
10.48 0.005 0
10.56 0.005 0
10.64 0.005 0
10.72 0.005 0
10.8 0.005 0
10.88 0.005 0
10.96 0.005 0
11.04 0.005 0
11.12 0.005 0
11.2 0.005 0
11.28 0.005 0
11.36 0.005 0
11.44 0.005 0
11.52 0.005 0
11.6 0.005 0
11.68 0.005 0
11.76 0.005 0
11.84 0.005 0
11.92 0.005 0
12 0.005 0
12.08 0.005 0
12.16 0.005 0
12.24 0.005 0
12.32 0.005 0
12.4 0.005 0
12.48 0.005 0
12.56 0.005 0
12.64 0.005 0
12.72 0.005 0
12.8 0.005 0
12.88 0.005 0
12.96 0.005 0
13.04 0.005 0
13.12 0.005 0
13.2 0.005 0
13.28 0.005 0
13.36 0.005 0
13.44 0.005 0
13.52 0.005 0
13.6 0.005 0
13.68 0.005 0
13.76 0.005 0
13.84 0.005 0
13.92 0.005 0
14 0.005 0
14.08 0.005 0
14.16 0.005 0
14.24 0.005 0
14.32 0.005 0
14.4 0.005 0
14.48 0.005 0
14.56 0.005 0
14.64 0.005 0
14.72 0.005 0
14.8 0.005 0
14.88 0.005 0
14.96 0.005 0
15.04 0.005 0
15.12 0.005 0
15.2 0.005 0
15.28 0.005 0
15.36 0.005 0
15.44 0.005 0
15.52 0.005 0
15.6 0.005 0
15.68 0.005 0
15.76 0.005 0
15.84 0.005 0
15.92 0.005 0
16 0.005 0
16.08 0.005 0
16.16 0.005 0
16.24 0.005 0
16.32 0.005 0
16.4 0.005 0
16.48 0.005 0
16.56 0.005 0
16.64 0.005 0
16.72 0.005 0
16.8 0.005 0
16.88 0.005 0
16.96 0.005 0
17.04 0.005 0
17.12 0.005 0
17.2 0.005 0
17.28 0.005 0
17.36 0.005 0
17.44 0.005 0
17.52 0.005 0
17.6 0.005 0
17.68 0.005 0
17.76 0.005 0
17.84 0.005 0
17.92 0.005 0
18 0.005 0
18.08 0.005 0
18.16 0.005 0
18.24 0.005 0
18.32 0.005 0
18.4 0.005 0
18.48 0.005 0
18.56 0.005 0
18.64 0.005 0
18.72 0.005 0
18.8 0.005 0
18.88 0.005 0
18.96 0.005 0
19.04 0.005 0
19.12 0.005 0
19.2 0.005 0
19.28 0.005 0
19.36 0.005 0
19.44 0.005 0
19.52 0.005 0
19.6 0.005 0
19.68 0.005 0
19.76 0.005 0
19.84 0.005 0
19.92 0.005 0
20 0.005 0
20.08 0.005 0
20.16 0.005 0
20.24 0.005 0
20.32 0.005 0
20.4 0.005 0
20.48 0.005 0
20.56 0.005 0
20.64 0.005 0
20.72 0.005 0
20.8 0.005 0
20.88 0.005 0
20.96 0.005 0
21.04 0.005 0
21.12 0.005 0
21.2 0.005 0
21.28 0.005 0
21.36 0.005 0
21.44 0.005 0
21.52 0.005 0
21.6 0.005 0
21.68 0.005 0
21.76 0.005 0
21.84 0.005 0
21.92 0.005 0
22 0.005 0
22.08 0.005 0
22.16 0.005 0
22.24 0.005 0
22.32 0.005 0
22.4 0.005 0
22.48 0.005 0
22.56 0.005 0
22.64 0.005 0
22.72 0.005 0
22.8 0.005 0
22.88 0.005 0
22.96 0.005 0
23.04 0.005 0
23.12 0.005 0
23.2 0.005 0
23.28 0.005 0
23.36 0.005 0
23.44 0.005 0
23.52 0.005 0
23.6 0.005 0
23.68 0.005 0
23.76 0.005 0
23.84 0.005 0
23.92 0.005 0
24 0.005 0
24.08 0.005 0
24.16 0.005 0
24.24 0.005 0
24.32 0.005 0
24.4 0.005 0
24.48 0.005 0
24.56 0.005 0
24.64 0.005 0
24.72 0.005 0
24.8 0.005 0
24.88 0.005 0
24.96 0.005 0
25.04 0.005 0
25.12 0.005 0
25.2 0.005 0
25.28 0.005 0
25.36 0.005 0
25.44 0.005 0
25.52 0.005 0
25.6 0.005 0
25.68 0.005 0
25.76 0.005 0
25.84 0.005 0
25.92 0.005 0
26 0.005 0
26.08 0.005 0
26.16 0.005 0
26.24 0.005 0
26.32 0.005 0
26.4 0.005 0
26.48 0.005 0
26.56 0.005 0
26.64 0.005 0
26.72 0.005 0
26.8 0.005 0
26.88 0.005 0
26.96 0.005 0
27.04 0.005 0
27.12 0.005 0
27.2 0.005 0
27.28 0.005 0
27.36 0.005 0
27.44 0.005 0
27.52 0.005 0
27.6 0.005 0
27.68 0.005 0
27.76 0.005 0
27.84 0.005 0
27.92 0.005 0
28 0.005 0
28.08 0.005 0
28.16 0.005 0
28.24 0.005 0
28.32 0.005 0
28.4 0.005 0
28.48 0.005 0
28.56 0.005 0
28.64 0.005 0
28.72 0.005 0
28.8 0.005 0
28.88 0.005 0
28.96 0.005 0
29.04 0.005 0
29.12 0.005 0
29.2 0.005 0
29.28 0.005 0
29.36 0.005 0
29.44 0.005 0
29.52 0.005 0
29.6 0.005 0
29.68 0.005 0
29.76 0.005 0
29.84 0.005 0
29.92 0.005 0
30 0.005 0
30.08 0.005 0
30.16 0.005 0
30.24 0.005 0
30.32 0.005 0
30.4 0.005 0
30.48 0.005 0
30.56 0.005 0
30.64 0.005 0
30.72 0.005 0
30.8 0.005 0
30.88 0.005 0
30.96 0.005 0
31.04 0.005 0
31.12 0.005 0
31.2 0.005 0
31.28 0.005 0
31.36 0.005 0
31.44 0.005 0
31.52 0.005 0
31.6 0.005 0
31.68 0.005 0
31.76 0.005 0
31.84 0.005 0
31.92 0.005 0
0 0.01 0
0.08 0.01 0
0.16 0.01 0
0.24 0.01 0
0.32 0.01 0
0.4 0.01 0
0.48 0.01 0
0.56 0.01 0
0.64 0.01 0
0.72 0.01 0
0.8 0.01 0
0.88 0.01 0
0.96 0.01 0
1.04 0.01 0
1.12 0.01 0
1.2 0.01 0
1.28 0.01 0
1.36 0.01 0
1.44 0.01 0
1.52 0.01 0
1.6 0.01 0
1.68 0.01 0
1.76 0.01 0
1.84 0.01 0
1.92 0.01 0
2 0.01 0
2.08 0.01 0
2.16 0.01 0
2.24 0.01 0
2.32 0.01 0
2.4 0.01 0
2.48 0.01 0
2.56 0.01 0
2.64 0.01 0
2.72 0.01 0
2.8 0.01 0
2.88 0.01 0
2.96 0.01 0
3.04 0.01 0
3.12 0.01 0
3.2 0.01 0
3.28 0.01 0
3.36 0.01 0
3.44 0.01 0
3.52 0.01 0
3.6 0.01 0
3.68 0.01 0
3.76 0.01 0
3.84 0.01 0
3.92 0.01 0
4 0.01 0
4.08 0.01 0
4.16 0.01 0
4.24 0.01 0
4.32 0.01 0
4.4 0.01 0
4.48 0.01 0
4.56 0.01 0
4.64 0.01 0
4.72 0.01 0
4.8 0.01 0
4.88 0.01 0
4.96 0.01 0
5.04 0.01 0
5.12 0.01 0
[...]
POINT_DATA 80000

SCALARS u float 1
LOOKUP_TABLE default
0
-0.131663
-0.0682696
-0.0522965
-0.0444204
-0.0395774
-0.0362604
-0.0338334
-0.0319734
-0.0304968
-0.0292908
-0.0282826
-0.0274231
-0.0266785
-0.0260246
-0.0254438
-0.024923
-0.0244521
-0.0240236
-0.0236314
-0.0232705
-0.022937
-0.0226276
-0.0223397
-0.0220711
-0.0218197
-0.0215839
-0.0213621
-0.0211532
-0.0209562
-0.0207703
-0.0205946
-0.0204283
-0.0202707
-0.0201212
-0.0199795
-0.0198456
-0.0197192
-0.0196002
-0.0194882
-0.0193833
-0.0192855
-0.0191953
-0.0191131
-0.019039
-0.0189725
-0.0189128
-0.0188588
-0.0188093
-0.0187638
-0.018722
-0.0186839
-0.0186495
-0.0186189
-0.0185917
-0.0185673
-0.018545
-0.0185243
-0.0185046
-0.0184858
-0.0184681
-0.0184517
-0.0184369
-0.0184242
-0.0184135
-0.018405
-0.0183985
-0.0183939
-0.0183908
-0.0183888
-0.0183878
-0.0183875
-0.0183876
-0.018388
-0.0183887
-0.0183894
-0.0183902
-0.0183911
-0.018392
-0.0183929
-0.0183939
-0.0183949
-0.0183958
-0.0183968
-0.0183978
-0.0183988
-0.0183997
-0.0184007
-0.0184017
-0.0184027
-0.0184037
-0.0184047
-0.0184057
-0.0184067
-0.0184077
-0.0184087
-0.0184097
-0.0184107
-0.0184117
-0.0184127
-0.0184137
-0.0184147
-0.0184157
-0.0184167
-0.0184177
-0.0184187
-0.0184197
-0.0184207
-0.0184217
-0.0184227
-0.0184237
-0.0184247
-0.0184257
-0.0184267
-0.0184277
-0.0184287
-0.0184297
-0.0184307
-0.0184318
-0.0184328
-0.0184338
-0.0184348
-0.0184358
-0.0184368
-0.0184378
-0.0184388
-0.0184399
-0.0184409
-0.0184419
-0.0184429
-0.0184439
-0.0184449
-0.018446
-0.018447
-0.018448
-0.018449
-0.0184501
-0.0184511
-0.0184521
-0.0184531
-0.0184541
-0.0184552
-0.0184562
-0.0184572
-0.0184583
-0.0184593
-0.0184603
-0.0184613
-0.0184624
-0.0184634
-0.0184644
-0.0184655
-0.0184665
-0.0184675
-0.0184686
-0.0184696
-0.0184706
-0.0184717
-0.0184727
-0.0184738
-0.0184748
-0.0184758
-0.0184769
-0.0184779
-0.0184789
-0.01848
-0.018481
-0.0184821
-0.0184831
-0.0184842
-0.0184852
-0.0184863
-0.0184873
-0.0184883
-0.0184894
-0.0184904
-0.0184915
-0.0184925
-0.0184936
-0.0184946
-0.0184957
-0.0184967
-0.0184978
-0.0184988
-0.0184999
-0.018501
-0.018502
-0.0185031
-0.0185041
-0.0185052
-0.0185062
-0.0185073
-0.0185084
-0.0185094
-0.0185105
-0.0185115
-0.0185126
-0.0185137
-0.0185147
-0.0185158
-0.0185169
-0.0185179
-0.018519
-0.0185201
-0.0185211
-0.0185222
-0.0185233
-0.0185243
-0.0185254
-0.0185265
-0.0185276
-0.0185286
-0.0185297
-0.0185308
-0.0185318
-0.0185329
-0.018534
-0.0185351
-0.0185362
-0.0185372
-0.0185383
-0.0185394
-0.0185405
-0.0185415
-0.0185426
-0.0185437
-0.0185448
-0.0185459
-0.018547
-0.0185481
-0.0185491
-0.0185502
-0.0185513
-0.0185524
-0.0185535
-0.0185546
-0.0185557
-0.0185568
-0.0185579
-0.0185589
-0.01856
-0.0185611
-0.0185622
-0.0185633
-0.0185644
-0.0185655
-0.0185666
-0.0185677
-0.0185688
-0.0185699
-0.018571
-0.0185721
-0.0185732
-0.0185743
-0.0185754
-0.0185765
-0.0185776
-0.0185787
-0.0185798
-0.018581
-0.0185821
-0.0185832
-0.0185843
-0.0185854
-0.0185865
-0.0185876
-0.0185887
-0.0185898
-0.018591
-0.0185921
-0.0185932
-0.0185943
-0.0185954
-0.0185965
-0.0185977
-0.0185988
-0.0185999
-0.018601
-0.0186021
-0.0186033
-0.0186044
-0.0186055
-0.0186066
-0.0186078
-0.0186089
-0.01861
-0.0186111
-0.0186123
-0.0186134
-0.0186145
-0.0186157
-0.0186168
-0.0186179
-0.018619
-0.0186202
-0.0186213
-0.0186225
-0.0186236
-0.0186247
-0.0186259
-0.018627
-0.0186281
-0.0186293
-0.0186304
-0.0186316
-0.0186327
-0.0186338
-0.018635
-0.0186361
-0.0186373
-0.0186384
-0.0186396
-0.0186407
-0.0186419
-0.018643
-0.0186442
-0.0186453
-0.0186465
-0.0186476
-0.0186488
-0.0186499
-0.0186511
-0.0186522
-0.0186534
-0.0186545
-0.0186557
-0.0186568
-0.018658
-0.0186592
-0.0186603
-0.0186615
-0.0186626
-0.0186638
-0.018665
-0.0186661
-0.0186673
-0.0186685
-0.0186696
-0.0186708
-0.0186719
-0.0186731
-0.0186743
-0.0186755
-0.0186766
-0.0186778
-0.018679
-0.0186801
-0.0186813
-0.0186825
-0.0186836
-0.0186848
-0.018686
-0.0186872
-0.0186883
-0.0186895
-0.0186907
-0.0186919
-0.018693
-0.0186942
-0.0186954
-0.0186966
-0.0186978
-0.0186989
-0.0187001
-0.0187013
-0.0187025
-0.0187037
-0.0187048
-0.018706
-0.0187072
-0.0187084
-0.0187096
-0.0187108
-0.018712
-0.0187131
-0.0187143
-0.0187155
-0.0187167
-0.0187179
-0.0187191
-0.0187203
-0.0187215
-0.0187226
-0.0187239
-0.018725
-0.0187262
-0.0187274
-0.0187286
-0.0187298
-0.018731
-0.0187322
-0.0187334
-0.0187347
-0.0187358
-0.0187373
-0.018738
-0.01874
-0.0187382
-0.0187382
-0.0187382
1
0.131663
0.0682696
0.0522965
0.0444204
0.0395774
0.0362604
0.0338334
0.0319734
0.0304968
0.0292908
0.0282826
0.0274231
0.0266785
0.0260246
0.0254438
0.024923
0.0244521
0.0240236
0.0236314
0.0232705
0.022937
0.0226276
0.0223397
0.0220711
0.0218197
0.0215839
0.0213621
0.0211532
0.0209562
0.0207703
0.0205946
0.0204283
0.0202707
0.0201212
0.0199795
0.0198456
0.0197192
0.0196002
0.0194882
0.0193833
0.0192855
0.0191953
0.0191131
0.019039
0.0189725
0.0189128
0.0188588
0.0188093
0.0187638
0.018722
0.0186839
0.0186495
0.0186189
0.0185917
0.0185673
0.018545
0.0185243
0.0185046
0.0184858
0.0184681
0.0184517
0.0184369
0.0184242
0.0184135
0.018405
0.0183985
0.0183939
0.0183908
0.0183888
0.0183878
0.0183875
0.0183876
0.018388
0.0183887
0.0183894
0.0183902
0.0183911
0.018392
0.0183929
0.0183939
0.0183949
0.0183958
0.0183968
0.0183978
0.0183988
0.0183997
0.0184007
0.0184017
0.0184027
0.0184037
0.0184047
0.0184057
0.0184067
0.0184077
0.0184087
0.0184097
0.0184107
0.0184117
0.0184127
0.0184137
0.0184147
0.0184157
0.0184167
0.0184177
0.0184187
0.0184197
0.0184207
0.0184217
0.0184227
0.0184237
0.0184247
0.0184257
0.0184267
0.0184277
0.0184287
0.0184297
0.0184307
0.0184318
0.0184328
0.0184338
0.0184348
0.0184358
0.0184368
0.0184378
0.0184388
0.0184399
0.0184409
0.0184419
0.0184429
0.0184439
0.0184449
0.018446
0.018447
0.018448
0.018449
0.0184501
0.0184511
0.0184521
0.0184531
0.0184541
0.0184552
0.0184562
0.0184572
0.0184583
0.0184593
0.0184603
0.0184613
0.0184624
0.0184634
0.0184644
0.0184655
0.0184665
0.0184675
0.0184686
0.0184696
0.0184706
0.0184717
0.0184727
0.0184738
0.0184748
0.0184758
0.0184769
0.0184779
0.0184789
0.01848
0.018481
0.0184821
0.0184831
0.0184842
0.0184852
0.0184863
0.0184873
0.0184883
0.0184894
0.0184904
0.0184915
0.0184925
0.0184936
0.0184946
0.0184957
0.0184967
0.0184978
0.0184988
0.0184999
0.018501
0.018502
0.0185031
0.0185041
0.0185052
0.0185062
0.0185073
0.0185084
0.0185094
0.0185105
0.0185115
0.0185126
0.0185137
0.0185147
0.0185158
0.0185169
0.0185179
0.018519
0.0185201
0.0185211
0.0185222
0.0185233
0.0185243
0.0185254
0.0185265
0.0185276
0.0185286
0.0185297
0.0185308
0.0185318
0.0185329
0.018534
0.0185351
0.0185362
0.0185372
0.0185383
0.0185394
0.0185405
0.0185415
0.0185426
0.0185437
0.0185448
0.0185459
0.018547
0.0185481
0.0185491
0.0185502
0.0185513
0.0185524
0.0185535
0.0185546
0.0185557
0.0185568
0.0185579
0.0185589
0.01856
0.0185611
0.0185622
0.0185633
0.0185644
0.0185655
0.0185666
0.0185677
0.0185688
0.0185699
0.018571
0.0185721
0.0185732
0.0185743
0.0185754
0.0185765
0.0185776
0.0185787
0.0185798
0.018581
0.0185821
0.0185832
0.0185843
0.0185854
0.0185865
0.0185876
0.0185887
0.0185898
0.018591
0.0185921
0.0185932
0.0185943
0.0185954
0.0185965
0.0185977
0.0185988
0.0185999
0.018601
0.0186021
0.0186033
0.0186044
0.0186055
0.0186066
0.0186078
0.0186089
0.01861
0.0186111
0.0186123
0.0186134
0.0186145
0.0186157
0.0186168
0.0186179
0.018619
0.0186202
0.0186213
0.0186225
0.0186236
0.0186247
0.0186259
0.018627
0.0186281
0.0186293
0.0186304
0.0186316
0.0186327
0.0186338
0.018635
0.0186361
0.0186373
0.0186384
0.0186396
0.0186407
0.0186419
0.018643
0.0186442
0.0186453
0.0186465
0.0186476
0.0186488
0.0186499
0.0186511
0.0186522
0.0186534
0.0186545
0.0186557
0.0186568
0.018658
0.0186592
0.0186603
0.0186615
0.0186626
0.0186638
0.018665
0.0186661
0.0186673
0.0186685
0.0186696
0.0186708
0.0186719
0.0186731
0.0186743
0.0186755
0.0186766
0.0186778
0.018679
0.0186801
0.0186813
0.0186825
0.0186836
0.0186848
0.018686
0.0186872
0.0186883
0.0186895
0.0186907
0.0186919
0.018693
0.0186942
0.0186954
0.0186966
0.0186978
0.0186989
0.0187001
0.0187013
0.0187025
0.0187037
0.0187048
0.018706
0.0187072
0.0187084
0.0187096
0.0187108
0.018712
0.0187131
0.0187143
0.0187155
0.0187167
0.0187179
0.0187191
0.0187203
0.0187215
0.0187226
0.0187239
0.018725
0.0187262
0.0187274
0.0187286
0.0187298
0.018731
0.0187322
0.0187334
0.0187347
0.0187358
0.0187373
0.018738
0.01874
0.0187382
0.0187382
0.0187382
1
0.344885
0.200669
0.154969
0.131896
0.1176
0.10777
0.10056
0.0950274
0.0906316
0.0870407
0.0840389
0.081481
0.079266
0.0773218
0.0755958
0.0740489
0.0726512
0.0713797
0.0702163
0.0691463
0.0681578
0.0672412
0.0663885
0.0655929
0.0648487
0.0641507
0.0634944
0.0628764
0.0622938
0.0617442
0.0612249
0.0607336
0.0602681
0.059827
0.0594095
0.0590151
0.0586435
0.0582939
0.0579656
0.0576586
0.0573734
0.0571112
0.0568727
0.0566579
0.0564652
0.0562919
0.056135
0.0559914
0.0558596
0.0557386
0.0556285
0.0555294
0.055441
0.0553621
0.055291
0.055226
0.0551654
0.0551082
0.0550541
0.0550034
0.0549571
0.0549159
0.0548806
0.0548515
0.0548285
0.0548113
0.0547991
0.0547911
0.0547863
0.054784
0.0547834
0.0547841
0.0547856
0.0547876
0.0547899
0.0547924
0.054795
0.0547977
0.0548005
0.0548034
0.0548062
0.0548091
0.054812
0.054815
0.0548179
0.0548208
0.0548238
0.0548267
0.0548297
0.0548327
0.0548356
0.0548386
0.0548415
0.0548445
0.0548475
0.0548504
0.0548534
0.0548564
0.0548594
0.0548623
0.0548653
0.0548683
0.0548713
0.0548743
0.0548773
0.0548803
0.0548833
0.0548862
0.0548892
0.0548922
0.0548952
0.0548982
0.0549012
0.0549043
0.0549073
0.0549103
0.0549133
0.0549163
0.0549193
0.0549223
0.0549253
0.0549284
0.0549314
0.0549344
0.0549374
0.0549405
0.0549435
0.0549465
0.0549496
0.0549526
0.0549557
0.0549587
0.0549617
0.0549648
0.0549678
0.0549709
0.0549739
0.054977
0.05498
0.0549831
0.0549861
0.0549892
0.0549923
0.0549953
0.0549984
0.0550015
0.0550045
0.0550076
0.0550107
0.0550138
0.0550168
0.0550199
0.055023
0.0550261
0.0550292
0.0550323
0.0550353
0.0550384
0.0550415
0.0550446
0.0550477
0.0550508
0.0550539
0.055057
0.0550601
0.0550632
0.0550663
0.0550694
0.0550726
0.0550757
0.0550788
0.0550819
0.055085
0.0550882
0.0550913
0.0550944
0.0550975
0.0551007
0.0551038
0.0551069
0.0551101
0.0551132
0.0551163
0.0551195
0.0551226
0.0551258
0.0551289
0.0551321
0.0551352
0.0551384
0.0551415
0.0551447
0.0551479
0.055151
0.0551542
0.0551573
0.0551605
0.0551637
0.0551669
0.05517
0.0551732
0.0551764
0.0551796
0.0551827
0.0551859
0.0551891
0.0551923
0.0551955
0.0551987
0.0552019
0.0552051
0.0552083
0.0552115
0.0552147
0.0552179
0.0552211
0.0552243
0.0552275
0.0552307
0.0552339
0.0552371
0.0552404
0.0552436
0.0552468
0.05525
0.0552533
0.0552565
0.0552597
0.055263
0.0552662
0.0552694
0.0552727
0.0552759
0.0552792
0.0552824
0.0552856
0.0552889
0.0552921
0.0552954
0.0552987
0.0553019
0.0553052
0.0553084
0.0553117
0.055315
0.0553182
0.0553215
0.0553248
0.0553281
0.0553313
0.0553346
0.0553379
0.0553412
0.0553445
0.0553478
0.0553511
0.0553543
0.0553576
0.0553609
0.0553642
0.0553675
0.0553708
0.0553741
0.0553775
0.0553808
0.0553841
0.0553874
0.0553907
0.055394
0.0553973
0.0554007
0.055404
0.0554073
0.0554107
0.055414
0.0554173
0.0554207
0.055424
0.0554273
0.0554307
0.055434
0.0554374
0.0554407
0.0554441
0.0554474
0.0554508
0.0554541
0.0554575
0.0554609
0.0554642
0.0554676
0.055471
0.0554743
0.0554777
0.0554811
0.0554845
0.0554878
0.0554912
0.0554946
0.055498
0.0555014
0.0555048
0.0555082
0.0555116
0.055515
0.0555184
0.0555218
0.0555252
0.0555286
0.055532
0.0555354
0.0555388
0.0555422
0.0555456
0.055549
0.0555525
0.0555559
0.0555593
0.0555627
0.0555662
0.0555696
0.055573
0.0555765
0.0555799
0.0555833
0.0555868
0.0555902
0.0555937
0.0555971
0.0556006
0.055604
0.0556075
0.0556109
0.0556144
0.0556178
0.0556213
0.0556248
0.0556282
0.0556317
0.0556352
0.0556386
0.0556421
0.0556456
0.055649
0.0556525
0.055656
0.0556595
0.055663
0.0556665
0.0556699
0.0556734
0.0556769
0.0556804
0.0556839
0.0556874
0.0556909
0.0556944
0.0556979
0.0557014
0.0557049
0.0557084
0.0557119
0.0557154
0.0557189
0.0557225
0.055726
0.0557295
0.055733
0.0557365
0.05574
0.0557436
0.0557471
0.0557506
0.0557541
0.0557577
0.0557612
0.0557648
0.0557683
0.0557718
0.0557753
0.0557789
0.0557824
0.055786
0.0557895
0.0557931
0.0557966
0.0558002
0.0558037
0.0558073
0.0558109
0.0558144
0.0558182
0.0558214
0.0558258
0.0558281
0.0558339
0.0558294
0.0558294
0.0558294
1
0.518766
0.327403
0.25535
0.217851
0.194407
0.178215
0.166311
0.157162
0.149888
0.143944
0.138974
0.13474
0.131075
0.12786
0.125006
0.122449
0.12014
0.11804
0.11612
0.114354
0.112722
0.11121
0.109804
0.108492
0.107265
0.106114
0.105033
0.104014
0.103055
0.102149
0.101294
0.100486
0.0997196
0.0989942
0.0983083
0.0976609
0.0970512
0.0964781
0.0959408
0.0954391
0.0949741
0.0945474
0.0941599
0.0938111
0.0934982
0.0932168
0.0929616
0.0927284
0.0925143
0.0923182
0.09214
0.0919795
0.0918361
0.0917079
0.0915922
0.0914861
0.0913872
0.0912942
0.0912068
0.0911256
0.0910519
0.090987
0.0909318
0.0908867
0.0908515
0.0908253
0.090807
0.0907952
0.0907883
0.0907853
0.0907849
0.0907864
0.090789
0.0907924
0.0907963
0.0908006
0.090805
0.0908095
0.0908142
0.0908189
0.0908236
0.0908284
0.0908332
0.0908381
0.090843
0.0908478
0.0908527
0.0908576
0.0908625
0.0908674
0.0908723
0.0908772
0.0908821
0.0908871
0.090892
0.0908969
0.0909018
0.0909068
0.0909117
0.0909166
0.0909216
0.0909265
0.0909314
0.0909364
0.0909413
0.0909463
0.0909513
0.0909562
0.0909612
0.0909661
0.0909711
0.0909761
0.0909811
0.090986
0.090991
0.090996
0.091001
0.091006
0.091011
0.091016
0.091021
0.091026
0.091031
0.091036
0.091041
0.0910461
0.0910511
0.0910561
0.0910611
0.0910662
0.0910712
0.0910762
0.0910813
0.0910863
0.0910914
0.0910964
0.0911015
0.0911065
0.0911116
0.0911166
0.0911217
0.0911268
0.0911318
0.0911369
0.091142
0.0911471
0.0911522
0.0911573
0.0911623
0.0911674
0.0911725
0.0911776
0.0911827
0.0911879
0.091193
0.0911981
0.0912032
0.0912083
0.0912134
0.0912186
0.0912237
0.0912288
0.091234
0.0912391
0.0912442
0.0912494
0.0912545
0.0912597
0.0912648
0.09127
0.0912752
0.0912803
0.0912855
0.0912907
0.0912958
0.091301
0.0913062
0.0913114
0.0913166
0.0913218
0.091327
0.0913321
0.0913373
0.0913426
0.0913478
0.091353
0.0913582
0.0913634
0.0913686
0.0913738
0.0913791
0.0913843
0.0913895
0.0913948
0.0914
0.0914052
0.0914105
0.0914157
0.091421
0.0914262
0.0914315
0.0914368
0.091442
0.0914473
0.0914526
0.0914578
0.0914631
0.0914684
0.0914737
0.091479
0.0914843
0.0914896
0.0914949
0.0915002
0.0915055
0.0915108
0.0915161
0.0915214
0.0915267
0.091532
0.0915374
0.0915427
0.091548
0.0915534
0.0915587
0.091564
0.0915694
0.0915747
0.0915801
0.0915854
0.0915908
0.0915962
0.0916015
0.0916069
0.0916123
0.0916176
0.091623
0.0916284
0.0916338
0.0916392
0.0916446
0.09165
0.0916554
0.0916608
0.0916662
0.0916716
0.091677
0.0916824
0.0916878
0.0916933
0.0916987
0.0917041
0.0917096
0.091715
0.0917204
0.0917259
0.0917313
0.0917368
0.0917422
0.0917477
0.0917532
0.0917586
0.0917641
0.0917696
0.091775
0.0917805
0.091786
0.0917915
0.091797
0.0918025
0.091808
0.0918135
0.091819
0.0918245
0.09183
0.0918355
0.091841
0.0918466
0.0918521
0.0918576
0.0918631
0.0918687
0.0918742
0.0918798
0.0918853
0.0918909
0.0918964
0.091902
0.0919075
0.0919131
0.0919187
0.0919242
0.0919298
0.0919354
0.091941
0.0919466
0.0919522
0.0919578
0.0919633
0.0919689
0.0919746
0.0919802
0.0919858
0.0919914
0.091997
0.0920026
0.0920082
0.0920139
0.0920195
0.0920251
0.0920308
0.0920364
0.0920421
0.0920477
0.0920534
0.092059
0.0920647
0.0920703
0.092076
0.0920817
0.0920873
0.092093
0.0920987
0.0921044
0.0921101
0.0921157
0.0921214
0.0921271
0.0921328
0.0921385
0.0921442
0.0921499
0.0921557
0.0921614
0.0921671
0.0921728
0.0921785
0.0921843
0.09219
0.0921957
0.0922015
0.0922072
0.0922129
0.0922187
0.0922244
0.0922302
0.0922359
0.0922417
0.0922475
0.0922532
0.092259
0.0922648
0.0922705
0.0922763
0.0922821
0.0922879
0.0922937
0.0922994
0.0923052
0.092311
0.0923168
0.0923226
0.0923284
0.0923342
0.09234
0.0923458
0.0923517
0.0923575
0.0923633
0.0923691
0.0923749
0.0923807
0.0923866
0.0923924
0.0923983
0.092404
0.09241
0.0924157
0.0924217
0.0924274
0.0924334
0.0924391
0.0924451
0.0924508
0.0924568
0.0924625
0.0924685
0.0924743
0.0924803
0.0924862
0.092492
0.0924983
0.0925037
0.0925108
0.0925147
0.092524
0.0925179
0.0925179
0.0925179
1
0.660888
0.446896
0.35288
0.302033
0.269854
0.247506
0.231023
0.218333
0.208232
0.199972
0.193067
0.187184
0.182092
0.177625
0.173663
0.170115
0.166911
0.163998
0.161334
0.158886
0.156625
0.15453
0.152581
0.150764
0.149064
0.147471
0.145973
0.144564
0.143235
0.141983
0.1408
0.139681
0.138622
0.13762
0.136673
0.135779
0.134939
0.134149
0.13341
0.13272
0.132083
0.131498
0.130969
0.130492
0.130064
0.129679
0.12933
0.129011
0.128719
0.128451
0.128208
0.127989
0.127793
0.127618
0.127459
0.127313
0.127178
0.12705
0.126932
0.126822
0.126723
0.126637
0.126564
0.126505
0.12646
0.126426
0.126403
0.126388
0.12638
0.126377
0.126377
0.126379
0.126383
0.126388
0.126393
0.126399
0.126406
0.126412
0.126418
0.126425
0.126432
0.126438
0.126445
0.126452
0.126459
0.126465
0.126472
0.126479
0.126486
0.126493
0.126499
0.126506
0.126513
0.12652
0.126527
0.126534
0.12654
0.126547
0.126554
0.126561
0.126568
0.126575
0.126582
0.126588
0.126595
0.126602
0.126609
0.126616
0.126623
0.12663
0.126637
0.126644
0.126651
0.126657
0.126664
0.126671
0.126678
0.126685
0.126692
0.126699
0.126706
0.126713
0.12672
0.126727
0.126734
0.126741
0.126748
0.126755
0.126762
0.126769
0.126776
0.126783
0.12679
0.126797
0.126804
0.126811
0.126818
0.126825
0.126832
0.126839
0.126846
0.126853
0.12686
0.126867
0.126874
0.126881
0.126888
0.126896
0.126903
0.12691
0.126917
0.126924
0.126931
0.126938
0.126945
0.126952
0.126959
0.126966
0.126974
0.126981
0.126988
0.126995
0.127002
0.127009
0.127016
0.127024
0.127031
0.127038
0.127045
0.127052
0.127059
0.127067
0.127074
0.127081
0.127088
0.127095
0.127103
0.12711
0.127117
0.127124
0.127131
0.127139
0.127146
0.127153
0.12716
0.127168
0.127175
0.127182
0.127189
0.127197
0.127204
0.127211
0.127218
0.127226
0.127233
0.12724
0.127247
0.127255
0.127262
0.127269
0.127277
0.127284
0.127291
0.127299
0.127306
0.127313
0.127321
0.127328
0.127335
0.127343
0.12735
0.127357
0.127365
0.127372
0.127379
0.127387
0.127394
0.127402
0.127409
0.127416
0.127424
0.127431
0.127439
0.127446
0.127453
0.127461
0.127468
0.127476
0.127483
0.127491
0.127498
0.127505
0.127513
0.12752
0.127528
0.127535
0.127543
0.12755
0.127558
0.127565
0.127573
0.12758
0.127588
0.127595
0.127603
0.12761
0.127618
0.127625
0.127633
0.12764
0.127648
0.127655
0.127663
0.127671
0.127678
0.127686
0.127693
0.127701
0.127708
0.127716
0.127724
0.127731
0.127739
0.127746
0.127754
0.127762
0.127769
0.127777
0.127784
0.127792
0.1278
0.127807
0.127815
0.127823
0.12783
0.127838
0.127846
0.127853
0.127861
0.127869
0.127876
0.127884
0.127892
0.127899
0.127907
0.127915
0.127922
0.12793
0.127938
0.127946
0.127953
0.127961
0.127969
0.127977
0.127984
0.127992
0.128
0.128008
0.128015
0.128023
0.128031
0.128039
0.128046
0.128054
0.128062
0.12807
0.128078
0.128085
0.128093
0.128101
0.128109
0.128117
0.128125
0.128132
0.12814
0.128148
0.128156
0.128164
0.128172
0.12818
0.128187
0.128195
0.128203
0.128211
0.128219
0.128227
0.128235
0.128243
0.128251
0.128258
0.128266
0.128274
0.128282
0.12829
0.128298
0.128306
0.128314
0.128322
0.12833
0.128338
0.128346
0.128354
0.128362
0.12837
0.128378
0.128386
0.128394
0.128402
0.12841
0.128418
0.128426
0.128434
0.128442
0.12845
0.128458
0.128466
0.128474
0.128482
0.12849
0.128498
0.128506
0.128514
0.128522
0.12853
0.128538
0.128546
0.128554
0.128562
0.12857
0.128578
0.128586
0.128595
0.128603
0.128611
0.128619
0.128627
0.128635
0.128643
0.128651
0.128659
0.128668
0.128676
0.128684
0.128692
0.1287
0.128708
0.128716
0.128724
0.128733
0.128741
0.128749
0.128758
0.128765
0.128775
0.128781
0.128793
0.128786
0.128786
0.128786
1
0.776803
0.557827
0.446881
0.384105
0.343748
0.315516
0.29461
0.278475
0.265614
0.255089
0.246285
0.238785
0.232293
0.2266
0.221551
0.217031
0.21295
0.209241
0.205851
0.202734
0.199858
0.197192
0.194713
0.192402
0.190241
0.188214
0.186311
0.184519
0.182831
0.18124
0.179737