# vtk DataFile Version 2.0
FlowField
ASCII
DATASET STRUCTURED_GRID
DIMENSIONS 400 1 200
POINTS 80000 float
0 0 0
0.08 0 0
0.16 0 0
0.24 0 0
0.32 0 0
0.4 0 0
0.48 0 0
0.56 0 0
0.64 0 0
0.72 0 0
0.8 0 0
0.88 0 0
0.96 0 0
1.04 0 0
1.12 0 0
1.2 0 0
1.28 0 0
1.36 0 0
1.44 0 0
1.52 0 0
1.6 0 0
1.68 0 0
1.76 0 0
1.84 0 0
1.92 0 0
2 0 0
2.08 0 0
2.16 0 0
2.24 0 0
2.32 0 0
2.4 0 0
2.48 0 0
2.56 0 0
2.64 0 0
2.72 0 0
2.8 0 0
2.88 0 0
2.96 0 0
3.04 0 0
3.12 0 0
3.2 0 0
3.28 0 0
3.36 0 0
3.44 0 0
3.52 0 0
3.6 0 0
3.68 0 0
3.76 0 0
3.84 0 0
3.92 0 0
4 0 0
4.08 0 0
4.16 0 0
4.24 0 0
4.32 0 0
4.4 0 0
4.48 0 0
4.56 0 0
4.64 0 0
4.72 0 0
4.8 0 0
4.88 0 0
4.96 0 0
5.04 0 0
5.12 0 0
5.2 0 0
5.28 0 0
5.36 0 0
5.44 0 0
5.52 0 0
5.6 0 0
5.68 0 0
5.76 0 0
5.84 0 0
5.92 0 0
6 0 0
6.08 0 0
6.16 0 0
6.24 0 0
6.32 0 0
6.4 0 0
6.48 0 0
6.56 0 0
6.64 0 0
6.72 0 0
6.8 0 0
6.88 0 0
6.96 0 0
7.04 0 0
7.12 0 0
7.2 0 0
7.28 0 0
7.36 0 0
7.44 0 0
7.52 0 0
7.6 0 0
7.68 0 0
7.76 0 0
7.84 0 0
7.92 0 0
8 0 0
8.08 0 0
8.16 0 0
8.24 0 0
8.32 0 0
8.4 0 0
8.48 0 0
8.56 0 0
8.64 0 0
8.72 0 0
8.8 0 0
8.88 0 0
8.96 0 0
9.04 0 0
9.12 0 0
9.2 0 0
9.28 0 0
9.36 0 0
9.44 0 0
9.52 0 0
9.6 0 0
9.68 0 0
9.76 0 0
9.84 0 0
9.92 0 0
10 0 0
10.08 0 0
10.16 0 0
10.24 0 0
10.32 0 0
10.4 0 0
10.48 0 0
10.56 0 0
10.64 0 0
10.72 0 0
10.8 0 0
10.88 0 0
10.96 0 0
11.04 0 0
11.12 0 0
11.2 0 0
11.28 0 0
11.36 0 0
11.44 0 0
11.52 0 0
11.6 0 0
11.68 0 0
11.76 0 0
11.84 0 0
11.92 0 0
12 0 0
12.08 0 0
12.16 0 0
12.24 0 0
12.32 0 0
12.4 0 0
12.48 0 0
12.56 0 0
12.64 0 0
12.72 0 0
12.8 0 0
12.88 0 0
12.96 0 0
13.04 0 0
13.12 0 0
13.2 0 0
13.28 0 0
13.36 0 0
13.44 0 0
13.52 0 0
13.6 0 0
13.68 0 0
13.76 0 0
13.84 0 0
13.92 0 0
14 0 0
14.08 0 0
14.16 0 0
14.24 0 0
14.32 0 0
14.4 0 0
14.48 0 0
14.56 0 0
14.64 0 0
14.72 0 0
14.8 0 0
14.88 0 0
14.96 0 0
15.04 0 0
15.12 0 0
15.2 0 0
15.28 0 0
15.36 0 0
15.44 0 0
15.52 0 0
15.6 0 0
15.68 0 0
15.76 0 0
15.84 0 0
15.92 0 0
16 0 0
16.08 0 0
16.16 0 0
16.24 0 0
16.32 0 0
16.4 0 0
16.48 0 0
16.56 0 0
16.64 0 0
16.72 0 0
16.8 0 0
16.88 0 0
16.96 0 0
17.04 0 0
17.12 0 0
17.2 0 0
17.28 0 0
17.36 0 0
17.44 0 0
17.52 0 0
17.6 0 0
17.68 0 0
17.76 0 0
17.84 0 0
17.92 0 0
18 0 0
18.08 0 0
18.16 0 0
18.24 0 0
18.32 0 0
18.4 0 0
18.48 0 0
18.56 0 0
18.64 0 0
18.72 0 0
18.8 0 0
18.88 0 0
18.96 0 0
19.04 0 0
19.12 0 0
19.2 0 0
19.28 0 0
19.36 0 0
19.44 0 0
19.52 0 0
19.6 0 0
19.68 0 0
19.76 0 0
19.84 0 0
19.92 0 0
20 0 0
20.08 0 0
20.16 0 0
20.24 0 0
20.32 0 0
20.4 0 0
20.48 0 0
20.56 0 0
20.64 0 0
20.72 0 0
20.8 0 0
20.88 0 0
20.96 0 0
21.04 0 0
21.12 0 0
21.2 0 0
21.28 0 0
21.36 0 0
21.44 0 0
21.52 0 0
21.6 0 0
21.68 0 0
21.76 0 0
21.84 0 0
21.92 0 0
22 0 0
22.08 0 0
22.16 0 0
22.24 0 0
22.32 0 0
22.4 0 0
22.48 0 0
22.56 0 0
22.64 0 0
22.72 0 0
22.8 0 0
22.88 0 0
22.96 0 0
23.04 0 0
23.12 0 0
23.2 0 0
23.28 0 0
23.36 0 0
23.44 0 0
23.52 0 0
23.6 0 0
23.68 0 0
23.76 0 0
23.84 0 0
23.92 0 0
24 0 0
24.08 0 0
24.16 0 0
24.24 0 0
24.32 0 0
24.4 0 0
24.48 0 0
24.56 0 0
24.64 0 0
24.72 0 0
24.8 0 0
24.88 0 0
24.96 0 0
25.04 0 0
25.12 0 0
25.2 0 0
25.28 0 0
25.36 0 0
25.44 0 0
25.52 0 0
25.6 0 0
25.68 0 0
25.76 0 0
25.84 0 0
25.92 0 0
26 0 0
26.08 0 0
26.16 0 0
26.24 0 0
26.32 0 0
26.4 0 0
26.48 0 0
26.56 0 0
26.64 0 0
26.72 0 0
26.8 0 0
26.88 0 0
26.96 0 0
27.04 0 0
27.12 0 0
27.2 0 0
27.28 0 0
27.36 0 0
27.44 0 0
27.52 0 0
27.6 0 0
27.68 0 0
27.76 0 0
27.84 0 0
27.92 0 0
28 0 0
28.08 0 0
28.16 0 0
28.24 0 0
28.32 0 0
28.4 0 0
28.48 0 0
28.56 0 0
28.64 0 0
28.72 0 0
28.8 0 0
28.88 0 0
28.96 0 0
29.04 0 0
29.12 0 0
29.2 0 0
29.28 0 0
29.36 0 0
29.44 0 0
29.52 0 0
29.6 0 0
29.68 0 0
29.76 0 0
29.84 0 0
29.92 0 0
30 0 0
30.08 0 0
30.16 0 0
30.24 0 0
30.32 0 0
30.4 0 0
30.48 0 0
30.56 0 0
30.64 0 0
30.72 0 0
30.8 0 0
30.88 0 0
30.96 0 0
31.04 0 0
31.12 0 0
31.2 0 0
31.28 0 0
31.36 0 0
31.44 0 0
31.52 0 0
31.6 0 0
31.68 0 0
31.76 0 0
31.84 0 0
31.92 0 0
0 0.005 0
0.08 0.005 0
0.16 0.005 0
0.24 0.005 0
0.32 0.005 0
0.4 0.005 0
0.48 0.005 0
0.56 0.005 0
0.64 0.005 0
0.72 0.005 0
0.8 0.005 0
0.88 0.005 0
0.96 0.005 0
1.04 0.005 0
1.12 0.005 0
1.2 0.005 0
1.28 0.005 0
1.36 0.005 0
1.44 0.005 0
1.52 0.005 0
1.6 0.005 0
1.68 0.005 0
1.76 0.005 0
1.84 0.005 0
1.92 0.005 0
2 0.005 0
2.08 0.005 0
2.16 0.005 0
2.24 0.005 0
2.32 0.005 0
2.4 0.005 0
2.48 0.005 0
2.56 0.005 0
2.64 0.005 0
2.72 0.005 0
2.8 0.005 0
2.88 0.005 0
2.96 0.005 0
3.04 0.005 0
3.12 0.005 0
3.2 0.005 0
3.28 0.005 0
3.36 0.005 0
3.44 0.005 0
3.52 0.005 0
3.6 0.005 0
3.68 0.005 0
3.76 0.005 0
3.84 0.005 0
3.92 0.005 0
4 0.005 0
4.08 0.005 0
4.16 0.005 0
4.24 0.005 0
4.32 0.005 0
4.4 0.005 0
4.48 0.005 0
4.56 0.005 0
4.64 0.005 0
4.72 0.005 0
4.8 0.005 0
4.88 0.005 0
4.96 0.005 0
5.04 0.005 0
5.12 0.005 0
5.2 0.005 0
5.28 0.005 0
5.36 0.005 0
5.44 0.005 0
5.52 0.005 0
5.6 0.005 0
5.68 0.005 0
5.76 0.005 0
5.84 0.005 0
5.92 0.005 0
6 0.005 0
6.08 0.005 0
6.16 0.005 0
6.24 0.005 0
6.32 0.005 0
6.4 0.005 0
6.48 0.005 0
6.56 0.005 0
6.64 0.005 0
6.72 0.005 0
6.8 0.005 0
6.88 0.005 0
6.96 0.005 0
7.04 0.005 0
7.12 0.005 0
7.2 0.005 0
7.28 0.005 0
7.36 0.005 0
7.44 0.005 0
7.52 0.005 0
7.6 0.005 0
7.68 0.005 0
7.76 0.005 0
7.84 0.005 0
7.92 0.005 0
8 0.005 0
8.08 0.005 0
8.16 0.005 0
8.24 0.005 0
8.32 0.005 0
8.4 0.005 0
8.48 0.005 0
8.56 0.005 0
8.64 0.005 0
8.72 0.005 0
8.8 0.005 0
8.88 0.005 0
8.96 0.005 0
9.04 0.005 0
9.12 0.005 0
9.2 0.005 0
9.28 0.005 0
9.36 0.005 0
9.44 0.005 0
9.52 0.005 0
9.6 0.005 0
9.68 0.005 0
9.76 0.005 0
9.84 0.005 0
9.92 0.005 0
10 0.005 0
10.08 0.005 0
10.16 0.005 0
10.24 0.005 0
10.32 0.005 0
10.4 0.005 0
10.48 0.005 0
10.56 0.005 0
10.64 0.005 0
10.72 0.005 0
10.8 0.005 0
10.88 0.005 0
10.96 0.005 0
11.04 0.005 0
11.12 0.005 0
11.2 0.005 0
11.28 0.005 0
11.36 0.005 0
11.44 0.005 0
11.52 0.005 0
11.6 0.005 0
11.68 0.005 0
11.76 0.005 0
11.84 0.005 0
11.92 0.005 0
12 0.005 0
12.08 0.005 0
12.16 0.005 0
12.24 0.005 0
12.32 0.005 0
12.4 0.005 0
12.48 0.005 0
12.56 0.005 0
12.64 0.005 0
12.72 0.005 0
12.8 0.005 0
12.88 0.005 0
12.96 0.005 0
13.04 0.005 0
13.12 0.005 0
13.2 0.005 0
13.28 0.005 0
13.36 0.005 0
13.44 0.005 0
13.52 0.005 0
13.6 0.005 0
13.68 0.005 0
13.76 0.005 0
13.84 0.005 0
13.92 0.005 0
14 0.005 0
14.08 0.005 0
14.16 0.005 0
14.24 0.005 0
14.32 0.005 0
14.4 0.005 0
14.48 0.005 0
14.56 0.005 0
14.64 0.005 0
14.72 0.005 0
14.8 0.005 0
14.88 0.005 0
14.96 0.005 0
15.04 0.005 0
15.12 0.005 0
15.2 0.005 0
15.28 0.005 0
15.36 0.005 0
15.44 0.005 0
15.52 0.005 0
15.6 0.005 0
15.68 0.005 0
15.76 0.005 0
15.84 0.005 0
15.92 0.005 0
16 0.005 0
16.08 0.005 0
16.16 0.005 0
16.24 0.005 0
16.32 0.005 0
16.4 0.005 0
16.48 0.005 0
16.56 0.005 0
16.64 0.005 0
16.72 0.005 0
16.8 0.005 0
16.88 0.005 0
16.96 0.005 0
17.04 0.005 0
17.12 0.005 0
17.2 0.005 0
17.28 0.005 0
17.36 0.005 0
17.44 0.005 0
17.52 0.005 0
17.6 0.005 0
17.68 0.005 0
17.76 0.005 0
17.84 0.005 0
17.92 0.005 0
18 0.005 0
18.08 0.005 0
18.16 0.005 0
18.24 0.005 0
18.32 0.005 0
18.4 0.005 0
18.48 0.005 0
18.56 0.005 0
18.64 0.005 0
18.72 0.005 0
18.8 0.005 0
18.88 0.005 0
18.96 0.005 0
19.04 0.005 0
19.12 0.005 0
19.2 0.005 0
19.28 0.005 0
19.36 0.005 0
19.44 0.005 0
19.52 0.005 0
19.6 0.005 0
19.68 0.005 0
19.76 0.005 0
19.84 0.005 0
19.92 0.005 0
20 0.005 0
20.08 0.005 0
20.16 0.005 0
20.24 0.005 0
20.32 0.005 0
20.4 0.005 0
20.48 0.005 0
20.56 0.005 0
20.64 0.005 0
20.72 0.005 0
20.8 0.005 0
20.88 0.005 0
20.96 0.005 0
21.04 0.005 0
21.12 0.005 0
21.2 0.005 0
21.28 0.005 0
21.36 0.005 0
21.44 0.005 0
21.52 0.005 0
21.6 0.005 0
21.68 0.005 0
21.76 0.005 0
21.84 0.005 0
21.92 0.005 0
22 0.005 0
22.08 0.005 0
22.16 0.005 0
22.24 0.005 0
22.32 0.005 0
22.4 0.005 0
22.48 0.005 0
22.56 0.005 0
22.64 0.005 0
22.72 0.005 0
22.8 0.005 0
22.88 0.005 0
22.96 0.005 0
23.04 0.005 0
23.12 0.005 0
23.2 0.005 0
23.28 0.005 0
23.36 0.005 0
23.44 0.005 0
23.52 0.005 0
23.6 0.005 0
23.68 0.005 0
23.76 0.005 0
23.84 0.005 0
23.92 0.005 0
24 0.005 0
24.08 0.005 0
24.16 0.005 0
24.24 0.005 0
24.32 0.005 0
24.4 0.005 0
24.48 0.005 0
24.56 0.005 0
24.64 0.005 0
24.72 0.005 0
24.8 0.005 0
24.88 0.005 0
24.96 0.005 0
25.04 0.005 0
25.12 0.005 0
25.2 0.005 0
25.28 0.005 0
25.36 0.005 0
25.44 0.005 0
25.52 0.005 0
25.6 0.005 0
25.68 0.005 0
25.76 0.005 0
25.84 0.005 0
25.92 0.005 0
26 0.005 0
26.08 0.005 0
26.16 0.005 0
26.24 0.005 0
26.32 0.005 0
26.4 0.005 0
26.48 0.005 0
26.56 0.005 0
26.64 0.005 0
26.72 0.005 0
26.8 0.005 0
26.88 0.005 0
26.96 0.005 0
27.04 0.005 0
27.12 0.005 0
27.2 0.005 0
27.28 0.005 0
27.36 0.005 0
27.44 0.005 0
27.52 0.005 0
27.6 0.005 0
27.68 0.005 0
27.76 0.005 0
27.84 0.005 0
27.92 0.005 0
28 0.005 0
28.08 0.005 0
28.16 0.005 0
28.24 0.005 0
28.32 0.005 0
28.4 0.005 0
28.48 0.005 0
28.56 0.005 0
28.64 0.005 0
28.72 0.005 0
28.8 0.005 0
28.88 0.005 0
28.96 0.005 0
29.04 0.005 0
29.12 0.005 0
29.2 0.005 0
29.28 0.005 0
29.36 0.005 0
29.44 0.005 0
29.52 0.005 0
29.6 0.005 0
29.68 0.005 0
29.76 0.005 0
29.84 0.005 0
29.92 0.005 0
30 0.005 0
30.08 0.005 0
30.16 0.005 0
30.24 0.005 0
30.32 0.005 0
30.4 0.005 0
30.48 0.005 0
30.56 0.005 0
30.64 0.005 0
30.72 0.005 0
30.8 0.005 0
30.88 0.005 0
30.96 0.005 0
31.04 0.005 0
31.12 0.005 0
31.2 0.005 0
31.28 0.005 0
31.36 0.005 0
31.44 0.005 0
31.52 0.005 0
31.6 0.005 0
31.68 0.005 0
31.76 0.005 0
31.84 0.005 0
31.92 0.005 0
0 0.01 0
0.08 0.01 0
0.16 0.01 0
0.24 0.01 0
0.32 0.01 0
0.4 0.01 0
0.48 0.01 0
0.56 0.01 0
0.64 0.01 0
0.72 0.01 0
0.8 0.01 0
0.88 0.01 0
0.96 0.01 0
1.04 0.01 0
1.12 0.01 0
1.2 0.01 0
1.28 0.01 0
1.36 0.01 0
1.44 0.01 0
1.52 0.01 0
1.6 0.01 0
1.68 0.01 0
1.76 0.01 0
1.84 0.01 0
1.92 0.01 0
2 0.01 0
2.08 0.01 0
2.16 0.01 0
2.24 0.01 0
2.32 0.01 0
2.4 0.01 0
2.48 0.01 0
2.56 0.01 0
2.64 0.01 0
2.72 0.01 0
2.8 0.01 0
2.88 0.01 0
2.96 0.01 0
3.04 0.01 0
3.12 0.01 0
3.2 0.01 0
3.28 0.01 0
3.36 0.01 0
3.44 0.01 0
3.52 0.01 0
3.6 0.01 0
3.68 0.01 0
3.76 0.01 0
3.84 0.01 0
3.92 0.01 0
4 0.01 0
4.08 0.01 0
4.16 0.01 0
4.24 0.01 0
4.32 0.01 0
4.4 0.01 0
4.48 0.01 0
4.56 0.01 0
4.64 0.01 0
4.72 0.01 0
4.8 0.01 0
4.88 0.01 0
4.96 0.01 0
5.04 0.01 0
5.12 0.01 0
[...]
POINT_DATA 80000

SCALARS v float 1
LOOKUP_TABLE default
0
0
0
0
0
0
0
0
0
0
0
0
0
0
0
0
0
0
0
0
0
0
0
0
0
0
0
0
0
0
0
0
0
0
0
0
0
0
0
0
0
0
0
0
0
0
0
0
0
0
0
0
0
0
0
0
0
0
0
0
0
0
0
0
0
0
0
0
0
0
0
0
0
0
0
0
0
0
0
0
0
0
0
0
0
0
0
0
0
0
0
0
0
0
0
0
0
0
0
0
0
0
0
0
0
0
0
0
0
0
0
0
0
0
0
0
0
0
0
0
0
0
0
0
0
0
0
0
0
0
0
0
0
0
0
0
0
0
0
0
0
0
0
0
0
0
0
0
0
0
0
0
0
0
0
0
0
0
0
0
0
0
0
0
0
0
0
0
0
0
0
0
0
0
0
0
0
0
0
0
0
0
0
0
0
0
0
0
0
0
0
0
0
0
0
0
0
0
0
0
0
0
0
0
0
0
0
0
0
0
0
0
0
0
0
0
0
0
0
0
0
0
0
0
0
0
0
0
0
0
0
0
0
0
0
0
0
0
0
0
0
0
0
0
0
0
0
0
0
0
0
0
0
0
0
0
0
0
0
0
0
0
0
0
0
0
0
0
0
0
0
0
0
0
0
0
0
0
0
0
0
0
0
0
0
0
0
0
0
0
0
0
0
0
0
0
0
0
0
0
0
0
0
0
0
0
0
0
0
0
0
0
0
0
0
0
0
0
0
0
0
0
0
0
0
0
0
0
0
0
0
0
0
0
0
0
0
0
0
0
0
0
0
0
0
0
0
0
0
0
0
0
0
0
0
0
0
0
0
0
0
0
0
0
0
0
0
0
0
0
0
0
0
0
0
0
0
0
0
0
0
0
0
0
0
0
0
0
0
0
0
0
0
0
0
0
0
0
0
0
-0.0542713
0.0542713
0.00396233
0.000998571
0.000492503
0.00030294
0.000207564
0.000151936
0.000116495
9.25387e-05
7.56258e-05
6.32654e-05
5.3965e-05
4.67866e-05
4.11186e-05
3.65516e-05
3.28043e-05
2.96793e-05
2.70357e-05
2.47717e-05
2.28124e-05
2.11014e-05
1.95941e-05
1.82557e-05
1.70597e-05
1.59863e-05
1.502e-05
1.41459e-05
1.33498e-05
1.26195e-05
1.19472e-05
1.13292e-05
1.07622e-05
1.02402e-05
9.75388e-06
9.2945e-06
8.858e-06
8.44589e-06
8.0615e-06
7.70432e-06
7.36694e-06
7.03717e-06
6.70398e-06
6.36288e-06
6.01688e-06
5.67255e-06
5.33419e-06
5.00047e-06
4.6659e-06
4.32621e-06
3.98381e-06
3.64954e-06
3.33937e-06
3.06754e-06
2.84003e-06
2.65174e-06
2.48881e-06
2.3346e-06
2.17652e-06
2.0105e-06
1.8415e-06
1.68033e-06
1.53858e-06
1.42382e-06
1.33702e-06
1.27254e-06
1.22037e-06
1.16946e-06
1.1107e-06
1.03892e-06
9.5346e-07
8.5745e-07
7.56434e-07
6.56719e-07
5.63982e-07
4.82358e-07
4.14082e-07
3.59593e-07
3.17937e-07
2.87295e-07
2.65481e-07
2.50336e-07
2.39969e-07
2.32872e-07
2.2793e-07
2.24372e-07
2.21695e-07
2.19586e-07
2.17854e-07
2.16385e-07
2.15107e-07
2.13971e-07
2.12941e-07
2.11987e-07
2.11086e-07
2.10222e-07
2.0938e-07
2.0855e-07
2.07726e-07
2.06904e-07
2.06082e-07
2.05259e-07
2.04435e-07
2.03609e-07
2.02783e-07
2.01957e-07
2.0113e-07
2.00304e-07
1.99477e-07
1.98651e-07
1.97825e-07
1.96999e-07
1.96174e-07
1.95348e-07
1.94523e-07
1.93697e-07
1.92871e-07
1.92046e-07
1.9122e-07
1.90395e-07
1.89569e-07
1.88744e-07
1.87918e-07
1.87093e-07
1.86268e-07
1.85443e-07
1.84618e-07
1.83794e-07
1.82969e-07
1.82145e-07
1.81322e-07
1.80498e-07
1.79675e-07
1.78852e-07
1.7803e-07
1.77207e-07
1.76386e-07
1.75564e-07
1.74743e-07
1.73923e-07
1.73102e-07
1.72283e-07
1.71463e-07
1.70644e-07
1.69826e-07
1.69008e-07
1.6819e-07
1.67373e-07
1.66556e-07
1.6574e-07
1.64924e-07
1.64109e-07
1.63294e-07
1.62479e-07
1.61665e-07
1.60852e-07
1.60039e-07
1.59226e-07
1.58414e-07
1.57603e-07
1.56792e-07
1.55981e-07
1.55171e-07
1.54361e-07
1.53552e-07
1.52743e-07
1.51935e-07
1.51127e-07
1.5032e-07
1.49513e-07
1.48706e-07
1.479e-07
1.47095e-07
1.4629e-07
1.45485e-07
1.44681e-07
1.43877e-07
1.43073e-07
1.4227e-07
1.41468e-07
1.40665e-07
1.39863e-07
1.39062e-07
1.38261e-07
1.3746e-07
1.3666e-07
1.35859e-07
1.3506e-07
1.3426e-07
1.33461e-07
1.32662e-07
1.31864e-07
1.31066e-07
1.30268e-07
1.2947e-07
1.28673e-07
1.27875e-07
1.27079e-07
1.26282e-07
1.25486e-07
1.24689e-07
1.23893e-07
1.23098e-07
1.22302e-07
1.21507e-07
1.20711e-07
1.19916e-07
1.19121e-07
1.18327e-07
1.17532e-07
1.16738e-07
1.15943e-07
1.15149e-07
1.14355e-07
1.13561e-07
1.12767e-07
1.11973e-07
1.11179e-07
1.10385e-07
1.09591e-07
1.08798e-07
1.08004e-07
1.07211e-07
1.06417e-07
1.05623e-07
1.0483e-07
1.04036e-07
1.03243e-07
1.02449e-07
1.01655e-07
1.00862e-07
1.00068e-07
9.92743e-08
9.84805e-08
9.76866e-08
9.68927e-08
9.60987e-08
9.53046e-08
9.45104e-08
9.37162e-08
9.29218e-08
9.21274e-08
9.13328e-08
9.05381e-08
8.97433e-08
8.89484e-08
8.81534e-08
8.73582e-08
8.65629e-08
8.57674e-08
8.49718e-08
8.41761e-08
8.33802e-08
8.25841e-08
8.17879e-08
8.09915e-08
8.01949e-08
7.93981e-08
7.86012e-08
7.78041e-08
7.70068e-08
7.62093e-08
7.54116e-08
7.46137e-08
7.38156e-08
7.30174e-08
7.22189e-08
7.14201e-08
7.06212e-08
6.98221e-08
6.90227e-08
6.82232e-08
6.74234e-08
6.66233e-08
6.58231e-08
6.50226e-08
6.42219e-08
6.34209e-08
6.26197e-08
6.18183e-08
6.10166e-08
6.02147e-08
5.94125e-08
5.86101e-08
5.78074e-08
5.70045e-08
5.62013e-08
5.53978e-08
5.45941e-08
5.37902e-08
5.29859e-08
5.21814e-08
5.13767e-08
5.05717e-08
4.97664e-08
4.89608e-08
4.8155e-08
4.73489e-08
4.65425e-08
4.57358e-08
4.49289e-08
4.41217e-08
4.33141e-08
4.25064e-08
4.16983e-08
4.08899e-08
4.00813e-08
3.92724e-08
3.84631e-08
3.76536e-08
3.68438e-08
3.60337e-08
3.52233e-08
3.44126e-08
3.36016e-08
3.27903e-08
3.19787e-08
3.11668e-08
3.03546e-08
2.95421e-08
2.87293e-08
2.79162e-08
2.71028e-08
2.62891e-08
2.5475e-08
2.46606e-08
2.3846e-08
2.3031e-08
2.22157e-08
2.14e-08
2.05842e-08
1.97677e-08
1.89514e-08
1.81341e-08
1.73175e-08
1.64989e-08
1.56826e-08
1.4862e-08
1.40468e-08
1.32233e-08
1.24104e-08
1.15824e-08
1.07736e-08
9.93916e-09
9.13642e-09
8.29348e-09
7.49896e-09
6.64543e-09
5.86109e-09
4.99505e-09
4.22265e-09
3.34253e-09
2.58357e-09
1.68779e-09
9.44039e-10
3.03237e-11
-6.95124e-10
-1.63097e-09
-2.33255e-09
-3.29771e-09
-3.96643e-09
-4.97196e-09
-5.59439e-09
-6.6564e-09
-7.21344e-09
-8.35405e-09
-8.82071e-09
-1.00675e-08
-1.04137e-08
-1.17991e-08
-1.19899e-08
-1.35511e-08
-1.35474e-08
-1.53249e-08
-1.50848e-08
-1.71214e-08
-1.66016e-08
-1.89406e-08
-1.80997e-08
-2.07784e-08
-1.95882e-08
-2.2623e-08
-2.10909e-08
-2.44458e-08
-2.26644e-08
-2.6183e-08
-2.44385e-08
-2.7693e-08
-2.6709e-08
-2.86554e-08
-3.0154e-08
-2.82844e-08
-3.6377e-08
-2.42443e-08
-4.92659e-08
-6.4848e-09
-7.76883e-08
1.24457e-07
-3.52115e-08
-3.52115e-08
-0.0952161
0.0952161
0.0129759
0.00385491
0.00193461
0.0011965
0.000822046
0.000602621
0.000462374
0.000367349
0.00030014
0.000250955
0.000213912
0.000185305
0.000162711
0.000144506
0.000129571
0.000117121
0.000106594
9.75823e-05
8.97878e-05
8.29833e-05
7.69916e-05
7.16737e-05
6.69237e-05
6.26628e-05
5.8827e-05
5.53571e-05
5.21963e-05
4.92976e-05
4.6631e-05
4.41805e-05
4.19311e-05
3.9857e-05
3.79223e-05
3.60945e-05
3.43596e-05
3.27229e-05
3.11944e-05
2.97685e-05
2.84142e-05
2.70854e-05
2.57425e-05
2.43715e-05
2.29847e-05
2.16059e-05
2.02495e-05
1.89094e-05
1.75669e-05
1.62104e-05
1.48542e-05
1.35424e-05
1.23347e-05
1.12806e-05
1.03966e-05
9.65853e-06
9.01191e-06
8.3954e-06
7.76531e-06
7.11047e-06
6.45224e-06
5.8314e-06
5.28909e-06
4.84996e-06
4.51367e-06
4.25626e-06
4.0393e-06
3.82218e-06
3.573e-06
3.27516e-06
2.92873e-06
2.54738e-06
2.15283e-06
1.76874e-06
1.41574e-06
1.10825e-06
8.53458e-07
6.51937e-07
4.99259e-07
3.88021e-07
3.097e-07
2.56054e-07
2.19981e-07
1.95876e-07
1.79634e-07
1.68436e-07
1.60453e-07
1.54547e-07
1.50032e-07
1.4649e-07
1.43658e-07
1.41352e-07
1.39436e-07
1.37805e-07
1.36371e-07
1.35068e-07
1.33846e-07
1.3267e-07
1.31515e-07
1.30369e-07
1.29223e-07
1.28073e-07
1.2692e-07
1.25764e-07
1.24607e-07
1.23448e-07
1.2229e-07
1.21132e-07
1.19976e-07
1.1882e-07
1.17666e-07
1.16512e-07
1.15359e-07
1.14207e-07
1.13055e-07
1.11903e-07
1.10751e-07
1.09599e-07
1.08446e-07
1.07294e-07
1.06141e-07
1.04989e-07
1.03837e-07
1.02684e-07
1.01532e-07
1.0038e-07
9.92279e-08
9.80763e-08
9.69251e-08
9.57742e-08
9.46238e-08
9.34738e-08
9.23242e-08
9.11752e-08
9.00266e-08
8.88786e-08
8.77311e-08
8.65842e-08
8.54378e-08
8.4292e-08
8.31467e-08
8.2002e-08
8.08579e-08
7.97143e-08
7.85713e-08
7.74289e-08
7.62871e-08
7.51459e-08
7.40052e-08
7.2865e-08
7.17255e-08
7.05865e-08
6.94481e-08
6.83103e-08
6.71731e-08
6.60364e-08
6.49002e-08
6.37647e-08
6.26297e-08
6.14952e-08
6.03613e-08
5.9228e-08
5.80952e-08
5.69629e-08
5.58312e-08
5.47e-08
5.35693e-08
5.24392e-08
5.13096e-08
5.01804e-08
4.90518e-08
4.79237e-08
4.6796e-08
4.56689e-08
4.45422e-08
4.34159e-08
4.22901e-08
4.11648e-08
4.00399e-08
3.89154e-08
3.77913e-08
3.66677e-08
3.55444e-08
3.44215e-08
3.3299e-08
3.21768e-08
3.10551e-08
2.99336e-08
2.88125e-08
2.76917e-08
2.65712e-08
2.5451e-08
2.43311e-08
2.32114e-08
2.2092e-08
2.09729e-08
1.9854e-08
1.87354e-08
1.76169e-08
1.64987e-08
1.53806e-08
1.42627e-08
1.3145e-08
1.20275e-08
1.09101e-08
9.79284e-09
8.67569e-09
7.55867e-09
6.44174e-09
5.3249e-09
4.20813e-09
3.09144e-09
1.9748e-09
8.58204e-10
-2.58363e-10
-1.37489e-09
-2.49142e-09
-3.60794e-09
-4.72449e-09
-5.84102e-09
-6.95761e-09
-8.07422e-09
-9.1909e-09
-1.03076e-08
-1.14244e-08
-1.25413e-08
-1.36582e-08
-1.47753e-08
-1.58925e-08
-1.70097e-08
-1.81271e-08
-1.92447e-08
-2.03623e-08
-2.14801e-08
-2.25981e-08
-2.37163e-08
-2.48346e-08
-2.59531e-08
-2.70717e-08
-2.81906e-08
-2.93097e-08
-3.0429e-08
-3.15485e-08
-3.26682e-08
-3.37882e-08
-3.49084e-08
-3.60288e-08
-3.71495e-08
-3.82705e-08
-3.93917e-08
-4.05132e-08
-4.16349e-08
-4.2757e-08
-4.38793e-08
-4.50019e-08
-4.61247e-08
-4.72479e-08
-4.83714e-08
-4.94952e-08
-5.06193e-08
-5.17438e-08
-5.28685e-08
-5.39936e-08
-5.5119e-08
-5.62447e-08
-5.73708e-08
-5.84972e-08
-5.96239e-08
-6.07511e-08
-6.18785e-08
-6.30064e-08
-6.41345e-08
-6.52631e-08
-6.6392e-08
-6.75213e-08
-6.8651e-08
-6.97811e-08
-7.09115e-08
-7.20423e-08
-7.31735e-08
-7.43051e-08
-7.54371e-08
-7.65695e-08
-7.77023e-08
-7.88355e-08
-7.99691e-08
-8.11031e-08
-8.22376e-08
-8.33724e-08
-8.45077e-08
-8.56434e-08
-8.67795e-08
-8.7916e-08
-8.9053e-08
-9.01904e-08
-9.13282e-08
-9.24665e-08
-9.36052e-08
-9.47444e-08
-9.58839e-08
-9.7024e-08
-9.81645e-08
-9.93054e-08
-1.00447e-07
-1.01589e-07
-1.02731e-07
-1.03874e-07
-1.05017e-07
-1.06161e-07
-1.07305e-07
-1.0845e-07
-1.09595e-07
-1.1074e-07
-1.11887e-07
-1.13033e-07
-1.1418e-07
-1.15328e-07
-1.16476e-07
-1.17624e-07
-1.18773e-07
-1.19923e-07
-1.21073e-07
-1.22224e-07
-1.23375e-07
-1.24526e-07
-1.25678e-07
-1.26831e-07
-1.27984e-07
-1.29138e-07
-1.30292e-07
-1.31446e-07
-1.32602e-07
-1.33757e-07
-1.34915e-07
-1.36069e-07
-1.37231e-07
-1.38383e-07
-1.3955e-07
-1.40697e-07
-1.41873e-07
-1.4301e-07
-1.44202e-07
-1.45323e-07
-1.46537e-07
-1.47634e-07
-1.48879e-07
-1.49943e-07
-1.51226e-07
-1.52251e-07
-1.53579e-07
-1.54558e-07
-1.55938e-07
-1.56865e-07
-1.58302e-07
-1.59171e-07
-1.60674e-07
-1.61472e-07
-1.63056e-07
-1.63765e-07
-1.65456e-07
-1.66041e-07
-1.67882e-07
-1.68293e-07
-1.70342e-07
-1.70508e-07
-1.72849e-07
-1.72677e-07
-1.75412e-07
-1.74789e-07
-1.7804e-07
-1.76835e-07
-1.80742e-07
-1.78808e-07
-1.83522e-07
-1.80703e-07
-1.86385e-07
-1.82517e-07
-1.8933e-07
-1.84258e-07
-1.92342e-07
-1.85958e-07
-1.95379e-07
-1.87706e-07
-1.98336e-07
-1.89712e-07
-2.00979e-07
-1.92455e-07
-2.02793e-07
-1.97034e-07
-2.02606e-07
-2.0596e-07
-1.97552e-07
-2.2516e-07
-1.79091e-07
-2.68864e-07
-1.10364e-07
-3.67864e-07
3.67736e-07
-2.09613e-07
-2.09613e-07
-0.125293
0.125293
0.0249362
0.00835835
0.00427834
0.00266187
0.00183409
0.00134671
0.00103425
0.000822068
0.000671753
0.000561618
0.000478602
0.000414455
0.00036378
0.000322946
0.000289451
0.000261534
0.000237936
0.000217744
0.000200285
0.000185048
0.000171635
0.000159734
0.000149108
0.00013958
0.000131002
0.000123242
0.000116173
0.000109692
0.000103733
9.82573e-05
9.32289e-05
8.85877e-05
8.42548e-05
8.01618e-05
7.62796e-05
7.26188e-05
6.91964e-05
6.59943e-05
6.29421e-05
5.99407e-05
5.69087e-05
5.3819e-05
5.07e-05
4.76009e-05
4.45495e-05
4.15323e-05
3.85129e-05
3.54739e-05
3.24537e-05
2.95513e-05
2.68931e-05
2.4578e-05
2.26326e-05
2.09975e-05
1.95532e-05
1.81708e-05
1.67622e-05
1.53097e-05
1.38623e-05
1.25068e-05
1.1327e-05
1.03694e-05
9.62766e-06
9.04665e-06
8.5434e-06
8.03301e-06
7.45107e-06
6.76655e-06
5.9835e-06
5.13383e-06
4.26509e-06
3.42762e-06
2.66422e-06
2.0039e-06
1.46011e-06
1.03238e-06
7.09948e-07
4.76142e-07
3.12274e-07
2.00555e-07
1.25809e-07
7.61596e-08
4.29609e-08
2.03067e-08
4.37703e-09
-7.19386e-09
-1.58365e-08
-2.2422e-08
-2.75066e-08
-3.14757e-08
-3.46187e-08
-3.71637e-08
-3.92927e-08
-4.11471e-08
-4.28325e-08
-4.44233e-08
-4.59684e-08
-4.74974e-08
-4.90257e-08
-5.05599e-08
-5.21012e-08
-5.36481e-08
-5.51983e-08
-5.67494e-08
-5.82995e-08
-5.98475e-08
-6.13929e-08
-6.29355e-08
-6.44758e-08
-6.60141e-08
-6.75509e-08
-6.90868e-08
-7.06222e-08
-7.21573e-08
-7.36926e-08
-7.5228e-08
-7.67638e-08
-7.82999e-08
-7.98363e-08
-8.13729e-08
-8.29096e-08
-8.44464e-08
-8.59831e-08
-8.75196e-08
-8.90559e-08
-9.05918e-08
-9.21272e-08
-9.36622e-08
-9.51965e-08
-9.67303e-08
-9.82634e-08
-9.97958e-08
-1.01328e-07
-1.02858e-07
-1.04389e-07
-1.05918e-07
-1.07447e-07
-1.08975e-07
-1.10502e-07
-1.12029e-07
-1.13555e-07
-1.1508e-07
-1.16604e-07
-1.18128e-07
-1.19651e-07
-1.21173e-07
-1.22695e-07
-1.24216e-07
-1.25736e-07
-1.27256e-07
-1.28775e-07
-1.30293e-07
-1.31811e-07
-1.33328e-07
-1.34845e-07
-1.36361e-07
-1.37876e-07
-1.3939e-07
-1.40905e-07
-1.42418e-07
-1.43931e-07
-1.45443e-07
-1.46955e-07
-1.48467e-07
-1.49977e-07
-1.51487e-07
-1.52997e-07
-1.54506e-07
-1.56015e-07
-1.57523e-07
-1.59031e-07
-1.60538e-07
-1.62045e-07
-1.63551e-07
-1.65057e-07
-1.66563e-07
-1.68068e-07
-1.69572e-07
-1.71077e-07
-1.72581e-07
-1.74084e-07
-1.75587e-07
-1.7709e-07
-1.78593e-07
-1.80095e-07
-1.81597e-07
-1.83099e-07
-1.846e-07
-1.86102e-07
-1.87603e-07
-1.89103e-07
-1.90604e-07
-1.92104e-07
-1.93604e-07
-1.95104e-07
-1.96604e-07
-1.98104e-07
-1.99603e-07
-2.01103e-07
-2.02602e-07
-2.04102e-07
-2.05601e-07
-2.071e-07
-2.08599e-07
-2.10098e-07
-2.11597e-07
-2.13097e-07
-2.14596e-07
-2.16095e-07
-2.17594e-07
-2.19093e-07
-2.20593e-07
-2.22092e-07
-2.23591e-07
-2.25091e-07
-2.26591e-07
-2.28091e-07
-2.29591e-07
-2.31091e-07
-2.32591e-07
-2.34091e-07
-2.35592e-07
-2.37093e-07
-2.38594e-07
-2.40095e-07
-2.41597e-07
-2.43099e-07
-2.44601e-07
-2.46103e-07
-2.47605e-07
-2.49108e-07
-2.50611e-07
-2.52115e-07
-2.53619e-07
-2.55123e-07
-2.56627e-07
-2.58132e-07
-2.59637e-07
-2.61142e-07
-2.62648e-07
-2.64154e-07
-2.65661e-07
-2.67168e-07
-2.68675e-07
-2.70183e-07
-2.71691e-07
-2.732e-07
-2.74709e-07
-2.76219e-07
-2.77729e-07
-2.79239e-07
-2.8075e-07
-2.82261e-07
-2.83773e-07
-2.85285e-07
-2.86798e-07
-2.88311e-07
-2.89825e-07
-2.91339e-07
-2.92854e-07
-2.94369e-07
-2.95885e-07
-2.97401e-07
-2.98918e-07
-3.00435e-07
-3.01953e-07
-3.03471e-07
-3.0499e-07
-3.06509e-07
-3.08029e-07
-3.0955e-07
-3.11071e-07
-3.12593e-07
-3.14115e-07
-3.15638e-07
-3.17161e-07
-3.18685e-07
-3.2021e-07
-3.21735e-07
-3.23261e-07
-3.24787e-07
-3.26314e-07
-3.27842e-07
-3.2937e-07
-3.30899e-07
-3.32428e-07
-3.33959e-07
-3.35489e-07
-3.37021e-07
-3.38553e-07
-3.40085e-07
-3.41619e-07
-3.43153e-07
-3.44687e-07
-3.46223e-07
-3.47758e-07
-3.49295e-07
-3.50832e-07
-3.5237e-07
-3.53909e-07
-3.55448e-07
-3.56988e-07
-3.58529e-07
-3.6007e-07
-3.61613e-07
-3.63155e-07
-3.64699e-07
-3.66243e-07
-3.67788e-07
-3.69334e-07
-3.7088e-07
-3.72427e-07
-3.73975e-07
-3.75524e-07
-3.77073e-07
-3.78624e-07
-3.80175e-07
-3.81726e-07
-3.83279e-07
-3.84832e-07
-3.86386e-07
-3.87941e-07
-3.89496e-07
-3.91053e-07
-3.9261e-07
-3.94168e-07
-3.95726e-07
-3.97286e-07
-3.98846e-07
-4.00409e-07
-4.01969e-07
-4.03535e-07
-4.05093e-07
-4.06666e-07
-4.08219e-07
-4.09804e-07
-4.11345e-07
-4.1295e-07
-4.14469e-07
-4.16106e-07
-4.17589e-07
-4.19273e-07
-4.20705e-07
-4.22453e-07
-4.23816e-07
-4.25645e-07
-4.26922e-07
-4.28848e-07
-4.30026e-07
-4.32062e-07
-4.33127e-07
-4.35285e-07
-4.36226e-07
-4.38523e-07
-4.39314e-07
-4.41783e-07
-4.42382e-07
-4.4508e-07
-4.45413e-07
-4.48429e-07
-4.48391e-07
-4.51851e-07
-4.5129e-07
-4.55371e-07
-4.54087e-07
-4.59011e-07
-4.56762e-07
-4.62789e-07
-4.59294e-07
-4.66723e-07
-4.61668e-07
-4.70823e-07
-4.63874e-07
-4.75099e-07
-4.65904e-07
-4.79551e-07
-4.67775e-07
-4.84147e-07
-4.69556e-07
-4.88798e-07
-4.71432e-07
-4.93284e-07
-4.7385e-07
-4.97116e-07
-4.77828e-07
-4.99209e-07
-4.85694e-07
-4.97109e-07
-5.02783e-07
-4.848e-07
-5.41645e-07
-4.44361e-07
-6.32202e-07
-2.98353e-07
-8.36847e-07
6.95133e-07
-5.03278e-07
-5.03278e-07
-0.146488
0.146488
0.0383108
0.0142344
0.0074564
0.00467314
0.00323094
0.00237693
0.00182748
0.00145347
0.00118804
0.000993302
0.00084638
0.000732784
0.000643016
0.000570672
0.000511333
0.000461883
0.000420095
0.000384348
0.000353449
0.000326489
0.000302762
0.000281717
0.000262934
0.000246093
0.000230934
0.000217219
0.000204725
0.000193274
0.000182749
0.00017308
0.000164196
0.000155988
0.000148322
0.000141081
0.000134217
0.000127746
0.000121691
0.00011601
0.00011058
0.000105231
9.98309e-05
9.43374e-05
8.88001e-05
8.33001e-05
7.78807e-05
7.25196e-05
6.71612e-05
6.17874e-05
5.64746e-05
5.13966e-05
4.67646e-05
4.27365e-05
3.93439e-05
3.64756e-05
3.39257e-05
3.14789e-05
2.89945e-05
2.645e-05
2.39328e-05
2.15883e-05
1.95521e-05
1.7894e-05
1.65947e-05
1.55559e-05
1.46364e-05
1.36956e-05
1.26302e-05
1.13943e-05
1.00004e-05
8.50631e-06
6.99411e-06
5.54853e-06
4.23999e-06
3.11489e-06
2.19315e-06
1.47141e-06
9.29549e-07
5.38037e-07
2.64517e-07
7.85695e-08
-4.55206e-08
-1.27746e-07
-1.8258e-07
-2.19869e-07
-2.45958e-07
-2.64771e-07
-2.7868e-07
-2.89134e-07
-2.97062e-07
-3.03115e-07
-3.07779e-07
-3.11441e-07
-3.14407e-07
-3.16916e-07
-3.19144e-07
-3.21216e-07
-3.23212e-07
-3.25182e-07
-3.27151e-07
-3.29129e-07
-3.31118e-07
-3.33115e-07
-3.35117e-07
-3.3712e-07
-3.3912e-07
-3.41117e-07
-3.43108e-07
-3.45095e-07
-3.47078e-07
-3.49057e-07
-3.51033e-07
-3.53008e-07
-3.54982e-07
-3.56956e-07
-3.58929e-07
-3.60904e-07
-3.62879e-07
-3.64854e-07
-3.6683e-07
-3.68807e-07
-3.70784e-07
-3.72761e-07
-3.74738e-07
-3.76715e-07
-3.78692e-07
-3.80668e-07
-3.82644e-07
-3.84619e-07
-3.86594e-07
-3.88567e-07
-3.9054e-07
-3.92511e-07
-3.94482e-07
-3.96452e-07
-3.98421e-07
-4.00389e-07
-4.02356e-07
-4.04322e-07
-4.06287e-07
-4.08251e-07
-4.10214e-07
-4.12177e-07
-4.14138e-07
-4.16099e-07
-4.18059e-07
-4.20018e-07
-4.21976e-07
-4.23934e-07
-4.25891e-07
-4.27847e-07
-4.29803e-07
-4.31758e-07
-4.33712e-07
-4.35665e-07
-4.37618e-07
-4.3957e-07
-4.41522e-07
-4.43473e-07
-4.45423e-07
-4.47373e-07
-4.49322e-07
-4.51271e-07
-4.53219e-07
-4.55167e-07
-4.57114e-07
-4.59061e-07
-4.61007e-07
-4.62953e-07
-4.64898e-07
-4.66843e-07
-4.68787e-07
-4.70731e-07
-4.72675e-07
-4.74618e-07
-4.76561e-07
-4.78503e-07
-4.80446e-07
-4.82387e-07
-4.84329e-07
-4.8627e-07
-4.88211e-07
-4.90152e-07
-4.92092e-07
-4.94033e-07
-4.95973e-07
-4.97912e-07
-4.99852e-07
-5.01792e-07
-5.03731e-07
-5.0567e-07
-5.07609e-07
-5.09548e-07
-5.11487e-07
-5.13426e-07
-5.15365e-07
-5.17304e-07
-5.19243e-07
-5.21182e-07
-5.23121e-07
-5.2506e-07
-5.26998e-07
-5.28937e-07
-5.30877e-07
-5.32816e-07
-5.34755e-07
-5.36695e-07
-5.38634e-07
-5.40574e-07
-5.42514e-07
-5.44454e-07
-5.46394e-07
-5.48335e-07
-5.50276e-07
-5.52217e-07
-5.54158e-07
-5.561e-07
-5.58042e-07
-5.59984e-07
-5.61927e-07
-5.63869e-07
-5.65813e-07
-5.67756e-07
-5.697e-07
-5.71645e-07
-5.73589e-07
-5.75535e-07
-5.7748e-07
-5.79426e-07
-5.81373e-07
-5.8332e-07
-5.85267e-07
-5.87215e-07
-5.89163e-07
-5.91112e-07
-5.93062e-07
-5.95012e-07
-5.96962e-07
-5.98913e-07
-6.00865e-07
-6.02817e-07
-6.0477e-07
-6.06723e-07
-6.08677e-07
-6.10632e-07
-6.12587e-07
-6.14543e-07
-6.165e-07
-6.18457e-07
-6.20415e-07
-6.22373e-07
-6.24332e-07
-6.26292e-07
-6.28252e-07
-6.30213e-07
-6.32175e-07
-6.34138e-07
-6.36101e-07
-6.38065e-07
-6.4003e-07
-6.41995e-07
-6.43961e-07
-6.45928e-07
-6.47896e-07
-6.49864e-07
-6.51833e-07
-6.53803e-07
-6.55774e-07
-6.57745e-07
-6.59718e-07
-6.61691e-07
-6.63665e-07
-6.65639e-07
-6.67615e-07
-6.69591e-07
-6.71568e-07
-6.73546e-07
-6.75525e-07
-6.77505e-07
-6.79485e-07
-6.81466e-07
-6.83449e-07
-6.85432e-07
-6.87416e-07
-6.894e-07
-6.91386e-07
-6.93373e-07
-6.9536e-07
-6.97349e-07
-6.99338e-07
-7.01328e-07
-7.03319e-07
-7.05311e-07
-7.07304e-07
-7.09298e-07
-7.11293e-07
-7.13289e-07
-7.15286e-07
-7.17283e-07
-7.19282e-07
-7.21282e-07
-7.23282e-07
-7.25284e-07
-7.27287e-07
-7.2929e-07
-7.31295e-07
-7.33301e-07
-7.35307e-07
-7.37315e-07
-7.39324e-07
-7.41333e-07
-7.43344e-07
-7.45356e-07
-7.47369e-07
-7.49383e-07
-7.51398e-07
-7.53414e-07
-7.55431e-07
-7.5745e-07
-7.59469e-07
-7.6149e-07
-7.63511e-07
-7.65534e-07
-7.67558e-07
-7.69583e-07
-7.7161e-07
-7.73637e-07
-7.75665e-07
-7.77696e-07
-7.79726e-07
-7.8176e-07
-7.8379e-07
-7.85831e-07
-7.87858e-07
-7.89909e-07
-7.91926e-07
-7.93997e-07
-7.95994e-07
-7.98098e-07
-8.00057e-07
-8.02215e-07
-8.04114e-07
-8.06351e-07
-8.08161e-07
-8.10508e-07