# vtk DataFile Version 2.0
FlowField
ASCII
DATASET STRUCTURED_GRID
DIMENSIONS 400 1 200
POINTS 80000 float
0 0 0
0.08 0 0
0.16 0 0
0.24 0 0
0.32 0 0
0.4 0 0
0.48 0 0
0.56 0 0
0.64 0 0
0.72 0 0
0.8 0 0
0.88 0 0
0.96 0 0
1.04 0 0
1.12 0 0
1.2 0 0
1.28 0 0
1.36 0 0
1.44 0 0
1.52 0 0
1.6 0 0
1.68 0 0
1.76 0 0
1.84 0 0
1.92 0 0
2 0 0
2.08 0 0
2.16 0 0
2.24 0 0
2.32 0 0
2.4 0 0
2.48 0 0
2.56 0 0
2.64 0 0
2.72 0 0
2.8 0 0
2.88 0 0
2.96 0 0
3.04 0 0
3.12 0 0
3.2 0 0
3.28 0 0
3.36 0 0
3.44 0 0
3.52 0 0
3.6 0 0
3.68 0 0
3.76 0 0
3.84 0 0
3.92 0 0
4 0 0
4.08 0 0
4.16 0 0
4.24 0 0
4.32 0 0
4.4 0 0
4.48 0 0
4.56 0 0
4.64 0 0
4.72 0 0
4.8 0 0
4.88 0 0
4.96 0 0
5.04 0 0
5.12 0 0
5.2 0 0
5.28 0 0
5.36 0 0
5.44 0 0
5.52 0 0
5.6 0 0
5.68 0 0
5.76 0 0
5.84 0 0
5.92 0 0
6 0 0
6.08 0 0
6.16 0 0
6.24 0 0
6.32 0 0
6.4 0 0
6.48 0 0
6.56 0 0
6.64 0 0
6.72 0 0
6.8 0 0
6.88 0 0
6.96 0 0
7.04 0 0
7.12 0 0
7.2 0 0
7.28 0 0
7.36 0 0
7.44 0 0
7.52 0 0
7.6 0 0
7.68 0 0
7.76 0 0
7.84 0 0
7.92 0 0
8 0 0
8.08 0 0
8.16 0 0
8.24 0 0
8.32 0 0
8.4 0 0
8.48 0 0
8.56 0 0
8.64 0 0
8.72 0 0
8.8 0 0
8.88 0 0
8.96 0 0
9.04 0 0
9.12 0 0
9.2 0 0
9.28 0 0
9.36 0 0
9.44 0 0
9.52 0 0
9.6 0 0
9.68 0 0
9.76 0 0
9.84 0 0
9.92 0 0
10 0 0
10.08 0 0
10.16 0 0
10.24 0 0
10.32 0 0
10.4 0 0
10.48 0 0
10.56 0 0
10.64 0 0
10.72 0 0
10.8 0 0
10.88 0 0
10.96 0 0
11.04 0 0
11.12 0 0
11.2 0 0
11.28 0 0
11.36 0 0
11.44 0 0
11.52 0 0
11.6 0 0
11.68 0 0
11.76 0 0
11.84 0 0
11.92 0 0
12 0 0
12.08 0 0
12.16 0 0
12.24 0 0
12.32 0 0
12.4 0 0
12.48 0 0
12.56 0 0
12.64 0 0
12.72 0 0
12.8 0 0
12.88 0 0
12.96 0 0
13.04 0 0
13.12 0 0
13.2 0 0
13.28 0 0
13.36 0 0
13.44 0 0
13.52 0 0
13.6 0 0
13.68 0 0
13.76 0 0
13.84 0 0
13.92 0 0
14 0 0
14.08 0 0
14.16 0 0
14.24 0 0
14.32 0 0
14.4 0 0
14.48 0 0
14.56 0 0
14.64 0 0
14.72 0 0
14.8 0 0
14.88 0 0
14.96 0 0
15.04 0 0
15.12 0 0
15.2 0 0
15.28 0 0
15.36 0 0
15.44 0 0
15.52 0 0
15.6 0 0
15.68 0 0
15.76 0 0
15.84 0 0
15.92 0 0
16 0 0
16.08 0 0
16.16 0 0
16.24 0 0
16.32 0 0
16.4 0 0
16.48 0 0
16.56 0 0
16.64 0 0
16.72 0 0
16.8 0 0
16.88 0 0
16.96 0 0
17.04 0 0
17.12 0 0
17.2 0 0
17.28 0 0
17.36 0 0
17.44 0 0
17.52 0 0
17.6 0 0
17.68 0 0
17.76 0 0
17.84 0 0
17.92 0 0
18 0 0
18.08 0 0
18.16 0 0
18.24 0 0
18.32 0 0
18.4 0 0
18.48 0 0
18.56 0 0
18.64 0 0
18.72 0 0
18.8 0 0
18.88 0 0
18.96 0 0
19.04 0 0
19.12 0 0
19.2 0 0
19.28 0 0
19.36 0 0
19.44 0 0
19.52 0 0
19.6 0 0
19.68 0 0
19.76 0 0
19.84 0 0
19.92 0 0
20 0 0
20.08 0 0
20.16 0 0
20.24 0 0
20.32 0 0
20.4 0 0
20.48 0 0
20.56 0 0
20.64 0 0
20.72 0 0
20.8 0 0
20.88 0 0
20.96 0 0
21.04 0 0
21.12 0 0
21.2 0 0
21.28 0 0
21.36 0 0
21.44 0 0
21.52 0 0
21.6 0 0
21.68 0 0
21.76 0 0
21.84 0 0
21.92 0 0
22 0 0
22.08 0 0
22.16 0 0
22.24 0 0
22.32 0 0
22.4 0 0
22.48 0 0
22.56 0 0
22.64 0 0
22.72 0 0
22.8 0 0
22.88 0 0
22.96 0 0
23.04 0 0
23.12 0 0
23.2 0 0
23.28 0 0
23.36 0 0
23.44 0 0
23.52 0 0
23.6 0 0
23.68 0 0
23.76 0 0
23.84 0 0
23.92 0 0
24 0 0
24.08 0 0
24.16 0 0
24.24 0 0
24.32 0 0
24.4 0 0
24.48 0 0
24.56 0 0
24.64 0 0
24.72 0 0
24.8 0 0
24.88 0 0
24.96 0 0
25.04 0 0
25.12 0 0
25.2 0 0
25.28 0 0
25.36 0 0
25.44 0 0
25.52 0 0
25.6 0 0
25.68 0 0
25.76 0 0
25.84 0 0
25.92 0 0
26 0 0
26.08 0 0
26.16 0 0
26.24 0 0
26.32 0 0
26.4 0 0
26.48 0 0
26.56 0 0
26.64 0 0
26.72 0 0
26.8 0 0
26.88 0 0
26.96 0 0
27.04 0 0
27.12 0 0
27.2 0 0
27.28 0 0
27.36 0 0
27.44 0 0
27.52 0 0
27.6 0 0
27.68 0 0
27.76 0 0
27.84 0 0
27.92 0 0
28 0 0
28.08 0 0
28.16 0 0
28.24 0 0
28.32 0 0
28.4 0 0
28.48 0 0
28.56 0 0
28.64 0 0
28.72 0 0
28.8 0 0
28.88 0 0
28.96 0 0
29.04 0 0
29.12 0 0
29.2 0 0
29.28 0 0
29.36 0 0
29.44 0 0
29.52 0 0
29.6 0 0
29.68 0 0
29.76 0 0
29.84 0 0
29.92 0 0
30 0 0
30.08 0 0
30.16 0 0
30.24 0 0
30.32 0 0
30.4 0 0
30.48 0 0
30.56 0 0
30.64 0 0
30.72 0 0
30.8 0 0
30.88 0 0
30.96 0 0
31.04 0 0
31.12 0 0
31.2 0 0
31.28 0 0
31.36 0 0
31.44 0 0
31.52 0 0
31.6 0 0
31.68 0 0
31.76 0 0
31.84 0 0
31.92 0 0
0 0.005 0
0.08 0.005 0
0.16 0.005 0
0.24 0.005 0
0.32 0.005 0
0.4 0.005 0
0.48 0.005 0
0.56 0.005 0
0.64 0.005 0
0.72 0.005 0
0.8 0.005 0
0.88 0.005 0
0.96 0.005 0
1.04 0.005 0
1.12 0.005 0
1.2 0.005 0
1.28 0.005 0
1.36 0.005 0
1.44 0.005 0
1.52 0.005 0
1.6 0.005 0
1.68 0.005 0
1.76 0.005 0
1.84 0.005 0
1.92 0.005 0
2 0.005 0
2.08 0.005 0
2.16 0.005 0
2.24 0.005 0
2.32 0.005 0
2.4 0.005 0
2.48 0.005 0
2.56 0.005 0
2.64 0.005 0
2.72 0.005 0
2.8 0.005 0
2.88 0.005 0
2.96 0.005 0
3.04 0.005 0
3.12 0.005 0
3.2 0.005 0
3.28 0.005 0
3.36 0.005 0
3.44 0.005 0
3.52 0.005 0
3.6 0.005 0
3.68 0.005 0
3.76 0.005 0
3.84 0.005 0
3.92 0.005 0
4 0.005 0
4.08 0.005 0
4.16 0.005 0
4.24 0.005 0
4.32 0.005 0
4.4 0.005 0
4.48 0.005 0
4.56 0.005 0
4.64 0.005 0
4.72 0.005 0
4.8 0.005 0
4.88 0.005 0
4.96 0.005 0
5.04 0.005 0
5.12 0.005 0
5.2 0.005 0
5.28 0.005 0
5.36 0.005 0
5.44 0.005 0
5.52 0.005 0
5.6 0.005 0
5.68 0.005 0
5.76 0.005 0
5.84 0.005 0
5.92 0.005 0
6 0.005 0
6.08 0.005 0
6.16 0.005 0
6.24 0.005 0
6.32 0.005 0
6.4 0.005 0
6.48 0.005 0
6.56 0.005 0
6.64 0.005 0
6.72 0.005 0
6.8 0.005 0
6.88 0.005 0
6.96 0.005 0
7.04 0.005 0
7.12 0.005 0
7.2 0.005 0
7.28 0.005 0
7.36 0.005 0
7.44 0.005 0
7.52 0.005 0
7.6 0.005 0
7.68 0.005 0
7.76 0.005 0
7.84 0.005 0
7.92 0.005 0
8 0.005 0
8.08 0.005 0
8.16 0.005 0
8.24 0.005 0
8.32 0.005 0
8.4 0.005 0
8.48 0.005 0
8.56 0.005 0
8.64 0.005 0
8.72 0.005 0
8.8 0.005 0
8.88 0.005 0
8.96 0.005 0
9.04 0.005 0
9.12 0.005 0
9.2 0.005 0
9.28 0.005 0
9.36 0.005 0
9.44 0.005 0
9.52 0.005 0
9.6 0.005 0
9.68 0.005 0
9.76 0.005 0
9.84 0.005 0
9.92 0.005 0
10 0.005 0
10.08 0.005 0
10.16 0.005 0
10.24 0.005 0
10.32 0.005 0
10.4 0.005 0
10.48 0.005 0
10.56 0.005 0
10.64 0.005 0
10.72 0.005 0
10.8 0.005 0
10.88 0.005 0
10.96 0.005 0
11.04 0.005 0
11.12 0.005 0
11.2 0.005 0
11.28 0.005 0
11.36 0.005 0
11.44 0.005 0
11.52 0.005 0
11.6 0.005 0
11.68 0.005 0
11.76 0.005 0
11.84 0.005 0
11.92 0.005 0
12 0.005 0
12.08 0.005 0
12.16 0.005 0
12.24 0.005 0
12.32 0.005 0
12.4 0.005 0
12.48 0.005 0
12.56 0.005 0
12.64 0.005 0
12.72 0.005 0
12.8 0.005 0
12.88 0.005 0
12.96 0.005 0
13.04 0.005 0
13.12 0.005 0
13.2 0.005 0
13.28 0.005 0
13.36 0.005 0
13.44 0.005 0
13.52 0.005 0
13.6 0.005 0
13.68 0.005 0
13.76 0.005 0
13.84 0.005 0
13.92 0.005 0
14 0.005 0
14.08 0.005 0
14.16 0.005 0
14.24 0.005 0
14.32 0.005 0
14.4 0.005 0
14.48 0.005 0
14.56 0.005 0
14.64 0.005 0
14.72 0.005 0
14.8 0.005 0
14.88 0.005 0
14.96 0.005 0
15.04 0.005 0
15.12 0.005 0
15.2 0.005 0
15.28 0.005 0
15.36 0.005 0
15.44 0.005 0
15.52 0.005 0
15.6 0.005 0
15.68 0.005 0
15.76 0.005 0
15.84 0.005 0
15.92 0.005 0
16 0.005 0
16.08 0.005 0
16.16 0.005 0
16.24 0.005 0
16.32 0.005 0
16.4 0.005 0
16.48 0.005 0
16.56 0.005 0
16.64 0.005 0
16.72 0.005 0
16.8 0.005 0
16.88 0.005 0
16.96 0.005 0
17.04 0.005 0
17.12 0.005 0
17.2 0.005 0
17.28 0.005 0
17.36 0.005 0
17.44 0.005 0
17.52 0.005 0
17.6 0.005 0
17.68 0.005 0
17.76 0.005 0
17.84 0.005 0
17.92 0.005 0
18 0.005 0
18.08 0.005 0
18.16 0.005 0
18.24 0.005 0
18.32 0.005 0
18.4 0.005 0
18.48 0.005 0
18.56 0.005 0
18.64 0.005 0
18.72 0.005 0
18.8 0.005 0
18.88 0.005 0
18.96 0.005 0
19.04 0.005 0
19.12 0.005 0
19.2 0.005 0
19.28 0.005 0
19.36 0.005 0
19.44 0.005 0
19.52 0.005 0
19.6 0.005 0
19.68 0.005 0
19.76 0.005 0
19.84 0.005 0
19.92 0.005 0
20 0.005 0
20.08 0.005 0
20.16 0.005 0
20.24 0.005 0
20.32 0.005 0
20.4 0.005 0
20.48 0.005 0
20.56 0.005 0
20.64 0.005 0
20.72 0.005 0
20.8 0.005 0
20.88 0.005 0
20.96 0.005 0
21.04 0.005 0
21.12 0.005 0
21.2 0.005 0
21.28 0.005 0
21.36 0.005 0
21.44 0.005 0
21.52 0.005 0
21.6 0.005 0
21.68 0.005 0
21.76 0.005 0
21.84 0.005 0
21.92 0.005 0
22 0.005 0
22.08 0.005 0
22.16 0.005 0
22.24 0.005 0
22.32 0.005 0
22.4 0.005 0
22.48 0.005 0
22.56 0.005 0
22.64 0.005 0
22.72 0.005 0
22.8 0.005 0
22.88 0.005 0
22.96 0.005 0
23.04 0.005 0
23.12 0.005 0
23.2 0.005 0
23.28 0.005 0
23.36 0.005 0
23.44 0.005 0
23.52 0.005 0
23.6 0.005 0
23.68 0.005 0
23.76 0.005 0
23.84 0.005 0
23.92 0.005 0
24 0.005 0
24.08 0.005 0
24.16 0.005 0
24.24 0.005 0
24.32 0.005 0
24.4 0.005 0
24.48 0.005 0
24.56 0.005 0
24.64 0.005 0
24.72 0.005 0
24.8 0.005 0
24.88 0.005 0
24.96 0.005 0
25.04 0.005 0
25.12 0.005 0
25.2 0.005 0
25.28 0.005 0
25.36 0.005 0
25.44 0.005 0
25.52 0.005 0
25.6 0.005 0
25.68 0.005 0
25.76 0.005 0
25.84 0.005 0
25.92 0.005 0
26 0.005 0
26.08 0.005 0
26.16 0.005 0
26.24 0.005 0
26.32 0.005 0
26.4 0.005 0
26.48 0.005 0
26.56 0.005 0
26.64 0.005 0
26.72 0.005 0
26.8 0.005 0
26.88 0.005 0
26.96 0.005 0
27.04 0.005 0
27.12 0.005 0
27.2 0.005 0
27.28 0.005 0
27.36 0.005 0
27.44 0.005 0
27.52 0.005 0
27.6 0.005 0
27.68 0.005 0
27.76 0.005 0
27.84 0.005 0
27.92 0.005 0
28 0.005 0
28.08 0.005 0
28.16 0.005 0
28.24 0.005 0
28.32 0.005 0
28.4 0.005 0
28.48 0.005 0
28.56 0.005 0
28.64 0.005 0
28.72 0.005 0
28.8 0.005 0
28.88 0.005 0
28.96 0.005 0
29.04 0.005 0
29.12 0.005 0
29.2 0.005 0
29.28 0.005 0
29.36 0.005 0
29.44 0.005 0
29.52 0.005 0
29.6 0.005 0
29.68 0.005 0
29.76 0.005 0
29.84 0.005 0
29.92 0.005 0
30 0.005 0
30.08 0.005 0
30.16 0.005 0
30.24 0.005 0
30.32 0.005 0
30.4 0.005 0
30.48 0.005 0
30.56 0.005 0
30.64 0.005 0
30.72 0.005 0
30.8 0.005 0
30.88 0.005 0
30.96 0.005 0
31.04 0.005 0
31.12 0.005 0
31.2 0.005 0
31.28 0.005 0
31.36 0.005 0
31.44 0.005 0
31.52 0.005 0
31.6 0.005 0
31.68 0.005 0
31.76 0.005 0
31.84 0.005 0
31.92 0.005 0
0 0.01 0
0.08 0.01 0
0.16 0.01 0
0.24 0.01 0
0.32 0.01 0
0.4 0.01 0
0.48 0.01 0
0.56 0.01 0
0.64 0.01 0
0.72 0.01 0
0.8 0.01 0
0.88 0.01 0
0.96 0.01 0
1.04 0.01 0
1.12 0.01 0
1.2 0.01 0
1.28 0.01 0
1.36 0.01 0
1.44 0.01 0
1.52 0.01 0
1.6 0.01 0
1.68 0.01 0
1.76 0.01 0
1.84 0.01 0
1.92 0.01 0
2 0.01 0
2.08 0.01 0
2.16 0.01 0
2.24 0.01 0
2.32 0.01 0
2.4 0.01 0
2.48 0.01 0
2.56 0.01 0
2.64 0.01 0
2.72 0.01 0
2.8 0.01 0
2.88 0.01 0
2.96 0.01 0
3.04 0.01 0
3.12 0.01 0
3.2 0.01 0
3.28 0.01 0
3.36 0.01 0
3.44 0.01 0
3.52 0.01 0
3.6 0.01 0
3.68 0.01 0
3.76 0.01 0
3.84 0.01 0
3.92 0.01 0
4 0.01 0
4.08 0.01 0
4.16 0.01 0
4.24 0.01 0
4.32 0.01 0
4.4 0.01 0
4.48 0.01 0
4.56 0.01 0
4.64 0.01 0
4.72 0.01 0
4.8 0.01 0
4.88 0.01 0
4.96 0.01 0
5.04 0.01 0
5.12 0.01 0
[...]
POINT_DATA 80000

SCALARS v float 1
LOOKUP_TABLE default
0
0
0
0
0
0
0
0
0
0
0
0
0
0
0
0
0
0
0
0
0
0
0
0
0
0
0
0
0
0
0
0
0
0
0
0
0
0
0
0
0
0
0
0
0
0
0
0
0
0
0
0
0
0
0
0
0
0
0
0
0
0
0
0
0
0
0
0
0
0
0
0
0
0
0
0
0
0
0
0
0
0
0
0
0
0
0
0
0
0
0
0
0
0
0
0
0
0
0
0
0
0
0
0
0
0
0
0
0
0
0
0
0
0
0
0
0
0
0
0
0
0
0
0
0
0
0
0
0
0
0
0
0
0
0
0
0
0
0
0
0
0
0
0
0
0
0
0
0
0
0
0
0
0
0
0
0
0
0
0
0
0
0
0
0
0
0
0
0
0
0
0
0
0
0
0
0
0
0
0
0
0
0
0
0
0
0
0
0
0
0
0
0
0
0
0
0
0
0
0
0
0
0
0
0
0
0
0
0
0
0
0
0
0
0
0
0
0
0
0
0
0
0
0
0
0
0
0
0
0
0
0
0
0
0
0
0
0
0
0
0
0
0
0
0
0
0
0
0
0
0
0
0
0
0
0
0
0
0
0
0
0
0
0
0
0
0
0
0
0
0
0
0
0
0
0
0
0
0
0
0
0
0
0
0
0
0
0
0
0
0
0
0
0
0
0
0
0
0
0
0
0
0
0
0
0
0
0
0
0
0
0
0
0
0
0
0
0
0
0
0
0
0
0
0
0
0
0
0
0
0
0
0
0
0
0
0
0
0
0
0
0
0
0
0
0
0
0
0
0
0
0
0
0
0
0
0
0
0
0
0
0
0
0
0
0
0
0
0
0
0
0
0
0
0
0
0
0
0
0
0
0
0
0
0
0
0
0
0
0
0
0
0
0
0
0
0
0
0
0
-0.0547207
0.0547207
0.0044247
0.00146321
0.000953925
0.000760556
0.000663379
0.000604551
0.000559822
0.000520912
0.000488121
0.000463118
0.000445415
0.000432851
0.0004232
0.000414969
0.00040736
0.000399961
0.000392533
0.000384929
0.000377071
0.000368932
0.000360525
0.000351881
0.000343038
0.000334034
0.000324904
0.000315681
0.000306391
0.000297061
0.000287715
0.000278375
0.000269064
0.0002598
0.000250603
0.000241491
0.000232481
0.00022359
0.000214831
0.00020622
0.000197768
0.000189488
0.00018139
0.000173483
0.000165777
0.000158278
0.000150992
0.000143925
0.000137082
0.000130464
0.000124076
0.000117917
0.000111989
0.000106292
0.000100823
9.55823e-05
9.05666e-05
8.5773e-05
8.11977e-05
7.68369e-05
7.26857e-05
6.87393e-05
6.49922e-05
6.14388e-05
5.80731e-05
5.4889e-05
5.188e-05
4.90397e-05
4.63615e-05
4.38388e-05
4.14649e-05
3.92332e-05
3.7137e-05
3.51699e-05
3.33252e-05
3.15968e-05
2.99784e-05
2.84639e-05
2.70475e-05
2.57235e-05
2.44864e-05
2.33308e-05
2.22517e-05
2.12441e-05
2.03035e-05
1.94252e-05
1.86052e-05
1.78393e-05
1.71237e-05
1.6455e-05
1.58295e-05
1.52442e-05
1.46961e-05
1.41823e-05
1.37002e-05
1.32474e-05
1.28215e-05
1.24205e-05
1.20423e-05
1.16852e-05
1.13474e-05
1.10274e-05
1.07237e-05
1.0435e-05
1.01601e-05
9.89791e-06
9.64729e-06
9.40737e-06
9.17725e-06
8.95619e-06
8.74343e-06
8.53834e-06
8.34029e-06
8.14878e-06
7.96328e-06
7.78337e-06
7.6086e-06
7.43865e-06
7.27314e-06
7.11179e-06
6.95431e-06
6.80047e-06
6.65e-06
6.50274e-06
6.35846e-06
6.21703e-06
6.07826e-06
5.94203e-06
5.80818e-06
5.67664e-06
5.54725e-06
5.41996e-06
5.29463e-06
5.17123e-06
5.04962e-06
4.9298e-06
4.81163e-06
4.69512e-06
4.58015e-06
4.46671e-06
4.35473e-06
4.24418e-06
4.13499e-06
4.02715e-06
3.92058e-06
3.8153e-06
3.71122e-06
3.60834e-06
3.50661e-06
3.40602e-06
3.30652e-06
3.2081e-06
3.11071e-06
3.01436e-06
2.91898e-06
2.82459e-06
2.73113e-06
2.63862e-06
2.54699e-06
2.45626e-06
2.36638e-06
2.27736e-06
2.18915e-06
2.10176e-06
2.01514e-06
1.92931e-06
1.84422e-06
1.75989e-06
1.67626e-06
1.59335e-06
1.51112e-06
1.42958e-06
1.34869e-06
1.26847e-06
1.18886e-06
1.10989e-06
1.03151e-06
9.53753e-07
8.76555e-07
7.9995e-07
7.23884e-07
6.48387e-07
5.73407e-07
4.98974e-07
4.25036e-07
3.51623e-07
2.78684e-07
2.06251e-07
1.34271e-07
6.27779e-08
-8.28049e-09
-7.88718e-08
-1.49046e-07
-2.18771e-07
-2.88097e-07
-3.56991e-07
-4.25502e-07
-4.93598e-07
-5.61327e-07
-6.28657e-07
-6.95635e-07
-7.62229e-07
-8.28487e-07
-8.94375e-07
-9.59941e-07
-1.02515e-06
-1.09005e-06
-1.15461e-06
-1.21888e-06
-1.28282e-06
-1.34647e-06
-1.40981e-06
-1.47288e-06
-1.53564e-06
-1.59814e-06
-1.66036e-06
-1.72232e-06
-1.78401e-06
-1.84546e-06
-1.90664e-06
-1.9676e-06
-2.02829e-06
-2.08877e-06
-2.14901e-06
-2.20903e-06
-2.26882e-06
-2.32842e-06
-2.38778e-06
-2.44696e-06
-2.50592e-06
-2.5647e-06
-2.62327e-06
-2.68168e-06
-2.73988e-06
-2.79792e-06
-2.85577e-06
-2.91347e-06
-2.97099e-06
-3.02836e-06
-3.08555e-06
-3.14261e-06
-3.1995e-06
-3.25627e-06
-3.31287e-06
-3.36935e-06
-3.42568e-06
-3.4819e-06
-3.53797e-06
-3.59394e-06
-3.64976e-06
-3.70549e-06
-3.76108e-06
-3.81659e-06
-3.87197e-06
-3.92726e-06
-3.98243e-06
-4.03753e-06
-4.09251e-06
-4.14743e-06
-4.20223e-06
-4.25697e-06
-4.31161e-06
-4.36619e-06
-4.42067e-06
-4.47511e-06
-4.52945e-06
-4.58375e-06
-4.63796e-06
-4.69213e-06
-4.74623e-06
-4.80029e-06
-4.85427e-06
-4.90823e-06
-4.96212e-06
-5.01599e-06
-5.0698e-06
-5.12359e-06
-5.17732e-06
-5.23104e-06
-5.2847e-06
-5.33836e-06
-5.39198e-06
-5.44559e-06
-5.49916e-06
-5.55273e-06
-5.60627e-06
-5.65982e-06
-5.71333e-06
-5.76686e-06
-5.82036e-06
-5.87388e-06
-5.92738e-06
-5.9809e-06
-6.0344e-06
-6.08793e-06
-6.14145e-06
-6.195e-06
-6.24855e-06
-6.30213e-06
-6.35571e-06
-6.40933e-06
-6.46295e-06
-6.51662e-06
-6.57029e-06
-6.62402e-06
-6.67776e-06
-6.73155e-06
-6.78536e-06
-6.83922e-06
-6.89311e-06
-6.94706e-06
-7.00104e-06
-7.05509e-06
-7.10916e-06
-7.16331e-06
-7.21749e-06
-7.27175e-06
-7.32604e-06
-7.38042e-06
-7.43484e-06
-7.48935e-06
-7.54391e-06
-7.59855e-06
-7.65325e-06
-7.70804e-06
-7.76289e-06
-7.81784e-06
-7.87286e-06
-7.92797e-06
-7.98316e-06
-8.03845e-06
-8.09382e-06
-8.1493e-06
-8.20486e-06
-8.26054e-06
-8.3163e-06
-8.37219e-06
-8.42817e-06
-8.48428e-06
-8.54048e-06
-8.59682e-06
-8.65327e-06
-8.70985e-06
-8.76655e-06
-8.8234e-06
-8.88036e-06
-8.93748e-06
-8.99472e-06
-9.05213e-06
-9.10967e-06
-9.16738e-06
-9.22523e-06
-9.28326e-06
-9.34144e-06
-9.3998e-06
-9.45832e-06
-9.51704e-06
-9.57593e-06
-9.63502e-06
-9.69428e-06
-9.75376e-06
-9.81342e-06
-9.8733e-06
-9.93338e-06
-9.99368e-06
-1.00542e-05
-1.01149e-05
-1.01759e-05
-1.02371e-05
-1.02985e-05
-1.03602e-05
-1.04221e-05
-1.04843e-05
-1.05467e-05
-1.06094e-05
-1.06723e-05
-1.07355e-05
-1.07989e-05
-1.08626e-05
-1.09265e-05
-1.09908e-05
-1.10553e-05
-1.11201e-05
-1.11852e-05
-1.12505e-05
-1.13163e-05
-1.13821e-05
-1.14503e-05
-1.15118e-05
-1.16007e-05
-1.16032e-05
-1.18695e-05
-1.14489e-05
-1.26195e-05
-1.07113e-05
-1.37538e-05
-1.07917e-05
-1.1396e-05
-1.21041e-05
-1.21041e-05
-0.0957226
0.0957226
0.0135193
0.00440891
0.00248038
0.00173401
0.00135985
0.0011349
0.000966136
0.000822895
0.000706558
0.000622713
0.000568606
0.000535509
0.00051475
0.000500554
0.000489759
0.000480667
0.00047226
0.000463895
0.000455205
0.000446034
0.000436369
0.000426268
0.000415813
0.000405086
0.000394156
0.000383083
0.000371914
0.000360688
0.000349439
0.000338197
0.00032699
0.000315844
0.000304781
0.000293823
0.000282992
0.000272307
0.000261786
0.000251445
0.000241299
0.000231363
0.000221648
0.000212167
0.000202928
0.00019394
0.000185211
0.000176746
0.00016855
0.000160626
0.000152978
0.000145605
0.000138509
0.000131688
0.000125142
0.000118867
0.00011286
0.000107118
0.000101636
9.64088e-05
9.14302e-05
8.66943e-05
8.21945e-05
7.79239e-05
7.38751e-05
7.00408e-05
6.64131e-05
6.29845e-05
5.97468e-05
5.66922e-05
5.38127e-05
5.11005e-05
4.85476e-05
4.61463e-05
4.3889e-05
4.17682e-05
3.97765e-05
3.7907e-05
3.61526e-05
3.45067e-05
3.29629e-05
3.15149e-05
3.01567e-05
2.88829e-05
2.76876e-05
2.6566e-05
2.5513e-05
2.4524e-05
2.35944e-05
2.27203e-05
2.18975e-05
2.11225e-05
2.03917e-05
1.97019e-05
1.905e-05
1.84333e-05
1.78489e-05
1.72946e-05
1.67679e-05
1.62669e-05
1.57895e-05
1.53339e-05
1.48984e-05
1.44815e-05
1.40817e-05
1.36979e-05
1.33286e-05
1.2973e-05
1.26298e-05
1.22984e-05
1.19776e-05
1.16669e-05
1.13654e-05
1.10726e-05
1.07878e-05
1.05106e-05
1.02404e-05
9.9768e-06
9.7193e-06
9.46766e-06
9.22141e-06
8.98038e-06
8.74413e-06
8.51257e-06
8.28528e-06
8.06222e-06
7.84303e-06
7.62767e-06
7.41583e-06
7.20751e-06
7.0024e-06
6.80053e-06
6.60161e-06
6.4057e-06
6.21252e-06
6.02214e-06
5.8343e-06
5.64908e-06
5.46623e-06
5.28584e-06
5.10767e-06
4.93182e-06
4.75806e-06
4.58648e-06
4.41688e-06
4.24935e-06
4.08368e-06
3.91998e-06
3.75804e-06
3.59797e-06
3.43957e-06
3.28296e-06
3.12792e-06
2.97459e-06
2.82276e-06
2.67255e-06
2.52378e-06
2.37655e-06
2.23069e-06
2.08631e-06
1.94323e-06
1.80157e-06
1.66114e-06
1.52207e-06
1.38418e-06
1.24759e-06
1.11212e-06
9.77907e-07
8.4476e-07
7.12813e-07
5.81886e-07
4.5211e-07
3.23308e-07
1.95611e-07
6.88434e-08
-5.68627e-08
-1.81682e-07
-3.05482e-07
-4.28435e-07
-5.50408e-07
-6.71573e-07
-7.91795e-07
-9.11246e-07
-1.02979e-06
-1.1476e-06
-1.26454e-06
-1.38077e-06
-1.49617e-06
-1.61089e-06
-1.72481e-06
-1.83809e-06
-1.95059e-06
-2.06248e-06
-2.17362e-06
-2.28418e-06
-2.39403e-06
-2.50331e-06
-2.6119e-06
-2.71997e-06
-2.82737e-06
-2.93426e-06
-3.04051e-06
-3.14628e-06
-3.25143e-06
-3.35612e-06
-3.46022e-06
-3.56389e-06
-3.66698e-06
-3.76965e-06
-3.87178e-06
-3.97351e-06
-4.07471e-06
-4.17553e-06
-4.27585e-06
-4.37581e-06
-4.47527e-06
-4.5744e-06
-4.67306e-06
-4.7714e-06
-4.86928e-06
-4.96686e-06
-5.06401e-06
-5.16087e-06
-5.2573e-06
-5.35347e-06
-5.44923e-06
-5.54474e-06
-5.63986e-06
-5.73475e-06
-5.82925e-06
-5.92354e-06
-6.01746e-06
-6.11118e-06
-6.20455e-06
-6.29773e-06
-6.39058e-06
-6.48325e-06
-6.57559e-06
-6.66777e-06
-6.75964e-06
-6.85137e-06
-6.94279e-06
-7.03408e-06
-7.12508e-06
-7.21596e-06
-7.30657e-06
-7.39706e-06
-7.48729e-06
-7.57743e-06
-7.66731e-06
-7.7571e-06
-7.84665e-06
-7.93613e-06
-8.02537e-06
-8.11456e-06
-8.20352e-06
-8.29243e-06
-8.38113e-06
-8.46978e-06
-8.55824e-06
-8.64666e-06
-8.7349e-06
-8.82311e-06
-8.91114e-06
-8.99916e-06
-9.08701e-06
-9.17486e-06
-9.26254e-06
-9.35023e-06
-9.43778e-06
-9.52533e-06
-9.61275e-06
-9.70019e-06
-9.7875e-06
-9.87484e-06
-9.96206e-06
-1.00493e-05
-1.01365e-05
-1.02237e-05
-1.03108e-05
-1.03979e-05
-1.0485e-05
-1.05721e-05
-1.06591e-05
-1.07462e-05
-1.08333e-05
-1.09204e-05
-1.10074e-05
-1.10945e-05
-1.11816e-05
-1.12688e-05
-1.13559e-05
-1.14431e-05
-1.15303e-05
-1.16176e-05
-1.17049e-05
-1.17922e-05
-1.18796e-05
-1.19671e-05
-1.20545e-05
-1.21421e-05
-1.22297e-05
-1.23174e-05
-1.24052e-05
-1.2493e-05
-1.25809e-05
-1.2669e-05
-1.2757e-05
-1.28452e-05
-1.29334e-05
-1.30219e-05
-1.31103e-05
-1.31989e-05
-1.32876e-05
-1.33764e-05
-1.34653e-05
-1.35544e-05
-1.36435e-05
-1.37328e-05
-1.38222e-05
-1.39118e-05
-1.40015e-05
-1.40914e-05
-1.41813e-05
-1.42715e-05
-1.43618e-05
-1.44523e-05
-1.45429e-05
-1.46337e-05
-1.47247e-05
-1.48159e-05
-1.49072e-05
-1.49987e-05
-1.50904e-05
-1.51823e-05
-1.52744e-05
-1.53668e-05
-1.54592e-05
-1.5552e-05
-1.56449e-05
-1.57381e-05
-1.58315e-05
-1.59252e-05
-1.6019e-05
-1.61132e-05
-1.62075e-05
-1.63022e-05
-1.63971e-05
-1.64923e-05
-1.65877e-05
-1.66834e-05
-1.67794e-05
-1.68757e-05
-1.69723e-05
-1.70692e-05
-1.71664e-05
-1.7264e-05
-1.73618e-05
-1.746e-05
-1.75585e-05
-1.76574e-05
-1.77566e-05
-1.78563e-05
-1.79562e-05
-1.80566e-05
-1.81574e-05
-1.82585e-05
-1.83601e-05
-1.84621e-05
-1.85644e-05
-1.86673e-05
-1.87705e-05
-1.88742e-05
-1.89784e-05
-1.9083e-05
-1.9188e-05
-1.92936e-05
-1.93996e-05
-1.95061e-05
-1.96131e-05
-1.97206e-05
-1.98286e-05
-1.99372e-05
-2.00463e-05
-2.01562e-05
-2.0267e-05
-2.03775e-05
-2.04956e-05
-2.05908e-05
-2.07807e-05
-2.06687e-05
-2.14855e-05
-1.9862e-05
-2.39529e-05
-1.68611e-05
-2.79946e-05
-1.66513e-05
-1.98901e-05
-2.15095e-05
-2.15095e-05
-0.125818
0.125818
0.0255224
0.00896523
0.00486863
0.00323749
0.00241363
0.00191559
0.00154185
0.0012274
0.000975473
0.000797004
0.000684772
0.000619223
0.00058138
0.000558626
0.00054397
0.000533572
0.000525104
0.000517094
0.000508703
0.000499566
0.000489623
0.000478968
0.000467747
0.000456103
0.000444155
0.000431997
0.000419701
0.000407322
0.000394905
0.000382487
0.000370103
0.00035778
0.000345546
0.000333425
0.000321441
0.000309616
0.000297969
0.000286518
0.00027528
0.000264272
0.000253505
0.000242993
0.000232746
0.000222775
0.000213085
0.000203685
0.000194579
0.000185771
0.000177263
0.000169058
0.000161155
0.000153553
0.00014625
0.000139245
0.000132533
0.000126111
0.000119972
0.000114111
0.000108522
0.000103199
9.81336e-05
9.33187e-05
8.87461e-05
8.4408e-05
8.02956e-05
7.64009e-05
7.27149e-05
6.92292e-05
6.5935e-05
6.28238e-05
5.9887e-05
5.71163e-05
5.45033e-05
5.20401e-05
4.97184e-05
4.75309e-05
4.54698e-05
4.35282e-05
4.16988e-05
3.99752e-05
3.83506e-05
3.68191e-05
3.53747e-05
3.40119e-05
3.27251e-05
3.15097e-05
3.03604e-05
2.92731e-05
2.82432e-05
2.7267e-05
2.63405e-05
2.54604e-05
2.4623e-05
2.38257e-05
2.30653e-05
2.23393e-05
2.1645e-05
2.09804e-05
2.0343e-05
1.97311e-05
1.91427e-05
1.85763e-05
1.80301e-05
1.75028e-05
1.6993e-05
1.64997e-05
1.60214e-05
1.55575e-05
1.51066e-05
1.46683e-05
1.42413e-05
1.38254e-05
1.34195e-05
1.30234e-05
1.26361e-05
1.22575e-05
1.18867e-05
1.15236e-05
1.11677e-05
1.08187e-05
1.0476e-05
1.01397e-05
9.80909e-06
9.48431e-06
9.16476e-06
8.85054e-06
8.54112e-06
8.23664e-06
7.93657e-06
7.64109e-06
7.34971e-06
7.0626e-06
6.7793e-06
6.50002e-06
6.2243e-06
5.95234e-06
5.68373e-06
5.41867e-06
5.15675e-06
4.8982e-06
4.64259e-06
4.39018e-06
4.14056e-06
3.89397e-06
3.65001e-06
3.40894e-06
3.17036e-06
2.93454e-06
2.70107e-06
2.47024e-06
2.24164e-06
2.01555e-06
1.79159e-06
1.57003e-06
1.35048e-06
1.13324e-06
9.17911e-07
7.04784e-07
4.93482e-07
2.84289e-07
7.68313e-08
-1.28604e-07
-3.32389e-07
-5.34233e-07
-7.34505e-07
-9.32915e-07
-1.12983e-06
-1.32496e-06
-1.51866e-06
-1.71064e-06
-1.90127e-06
-2.09024e-06
-2.27793e-06
-2.46403e-06
-2.6489e-06
-2.83224e-06
-3.01441e-06
-3.19511e-06
-3.3747e-06
-3.55287e-06
-3.72999e-06
-3.90574e-06
-4.08048e-06
-4.25392e-06
-4.42639e-06
-4.59761e-06
-4.76791e-06
-4.93699e-06
-5.10521e-06
-5.27226e-06
-5.43848e-06
-5.60357e-06
-5.76788e-06
-5.93111e-06
-6.09359e-06
-6.25502e-06
-6.41575e-06
-6.57547e-06
-6.73452e-06
-6.89259e-06
-7.05004e-06
-7.20654e-06
-7.36245e-06
-7.51745e-06
-7.67189e-06
-7.82545e-06
-7.97848e-06
-8.13066e-06
-8.28235e-06
-8.43322e-06
-8.58362e-06
-8.73324e-06
-8.88241e-06
-9.03082e-06
-9.17882e-06
-9.32609e-06
-9.47297e-06
-9.61915e-06
-9.76497e-06
-9.9101e-06
-1.00549e-05
-1.0199e-05
-1.03429e-05
-1.04861e-05
-1.0629e-05
-1.07713e-05
-1.09133e-05
-1.10548e-05
-1.1196e-05
-1.13366e-05
-1.1477e-05
-1.16169e-05
-1.17566e-05
-1.18957e-05
-1.20347e-05
-1.21732e-05
-1.23115e-05
-1.24493e-05
-1.2587e-05
-1.27242e-05
-1.28613e-05
-1.29979e-05
-1.31345e-05
-1.32706e-05
-1.34066e-05
-1.35422e-05
-1.36778e-05
-1.38129e-05
-1.3948e-05
-1.40828e-05
-1.42175e-05
-1.43518e-05
-1.44861e-05
-1.46201e-05
-1.4754e-05
-1.48877e-05
-1.50213e-05
-1.51546e-05
-1.5288e-05
-1.54211e-05
-1.55542e-05
-1.5687e-05
-1.58199e-05
-1.59525e-05
-1.60851e-05
-1.62176e-05
-1.63501e-05
-1.64824e-05
-1.66147e-05
-1.67469e-05
-1.68791e-05
-1.70112e-05
-1.71434e-05
-1.72753e-05
-1.74075e-05
-1.75394e-05
-1.76715e-05
-1.78034e-05
-1.79355e-05
-1.80674e-05
-1.81995e-05
-1.83315e-05
-1.84636e-05
-1.85956e-05
-1.87278e-05
-1.88599e-05
-1.89923e-05
-1.91245e-05
-1.92569e-05
-1.93892e-05
-1.95218e-05
-1.96543e-05
-1.97871e-05
-1.99198e-05
-2.00527e-05
-2.01856e-05
-2.03188e-05
-2.04519e-05
-2.05853e-05
-2.07187e-05
-2.08523e-05
-2.0986e-05
-2.112e-05
-2.12539e-05
-2.13882e-05
-2.15225e-05
-2.16571e-05
-2.17917e-05
-2.19267e-05
-2.20617e-05
-2.2197e-05
-2.23324e-05
-2.24682e-05
-2.2604e-05
-2.27402e-05
-2.28765e-05
-2.30132e-05
-2.31499e-05
-2.3287e-05
-2.34242e-05
-2.35619e-05
-2.36996e-05
-2.38378e-05
-2.39761e-05
-2.41148e-05
-2.42536e-05
-2.43929e-05
-2.45324e-05
-2.46723e-05
-2.48123e-05
-2.49529e-05
-2.50936e-05
-2.52348e-05
-2.53761e-05
-2.5518e-05
-2.56601e-05
-2.58027e-05
-2.59455e-05
-2.60888e-05
-2.62324e-05
-2.63765e-05
-2.65209e-05
-2.66658e-05
-2.6811e-05
-2.69567e-05
-2.71028e-05
-2.72494e-05
-2.73963e-05
-2.75439e-05
-2.76917e-05
-2.78402e-05
-2.79891e-05
-2.81385e-05
-2.82884e-05
-2.84389e-05
-2.85898e-05
-2.87413e-05
-2.88933e-05
-2.9046e-05
-2.91992e-05
-2.9353e-05
-2.95074e-05
-2.96625e-05
-2.9818e-05
-2.99744e-05
-3.01313e-05
-3.0289e-05
-3.04472e-05
-3.06063e-05
-3.07659e-05
-3.09265e-05
-3.10876e-05
-3.12496e-05
-3.14123e-05
-3.15758e-05
-3.174e-05
-3.19052e-05
-3.2071e-05
-3.22378e-05
-3.24054e-05
-3.2574e-05
-3.27435e-05
-3.29143e-05
-3.30871e-05
-3.32591e-05
-3.34462e-05
-3.35871e-05
-3.39204e-05
-3.36378e-05
-3.5262e-05
-3.18487e-05
-4.03108e-05
-2.53747e-05
-4.88955e-05
-2.44667e-05
-3.3224e-05
-3.49465e-05
-3.49465e-05
-0.147006
0.147006
0.0389108
0.0148639
0.00805727
0.00525102
0.00381735
0.00294381
0.00228659
0.00173637
0.00129894
0.000991447
0.000799842
0.000689791
0.00062851
0.00059421
0.000574663
0.000563034
0.000555136
0.000548335
0.000541135
0.000532877
0.000523432
0.000512938
0.000501619
0.000489693
0.000477342
0.000464701
0.000451871
0.000438925
0.00042592
0.000412902
0.000399907
0.000386968
0.000374114
0.000361373
0.000348768
0.000336323
0.000324057
0.000311993
0.000300145
0.000288531
0.000277166
0.000266062
0.000255231
0.000244682
0.000234425
0.000224465
0.000214809
0.000205461
0.000196424
0.000187699
0.000179286
0.000171186
0.000163396
0.000155914
0.000148737
0.000141859
0.000135276
0.000128982
0.000122971
0.000117236
0.000111769
0.000106563
0.000101609
9.68993e-05
9.24252e-05
8.81784e-05
8.41493e-05
8.03297e-05
7.67101e-05
7.32823e-05
7.00368e-05
6.69657e-05
6.40598e-05
6.13112e-05
5.87114e-05
5.62529e-05
5.39274e-05
5.17281e-05
4.9647e-05
4.7678e-05
4.58137e-05
4.40484e-05
4.23753e-05
4.07892e-05
3.92841e-05
3.78553e-05
3.64971e-05
3.52056e-05
3.39757e-05
3.28039e-05
3.16855e-05
3.06176e-05
2.95961e-05
2.86183e-05
2.76808e-05
2.67812e-05
2.59164e-05
2.50846e-05
2.42829e-05
2.35098e-05
2.27628e-05
2.20407e-05
2.13413e-05
2.06636e-05
2.00056e-05
1.93667e-05
1.8745e-05
1.81401e-05
1.75503e-05
1.69753e-05
1.64137e-05
1.58652e-05
1.53285e-05
1.48036e-05
1.42893e-05
1.37855e-05
1.32913e-05
1.28066e-05
1.23305e-05
1.18631e-05
1.14034e-05
1.09518e-05
1.05073e-05
1.00701e-05
9.63947e-06
9.21566e-06
8.79788e-06
8.38645e-06
7.98061e-06
7.58071e-06
7.186e-06
6.79688e-06
6.41261e-06
6.0336e-06
5.65914e-06
5.28964e-06
4.92442e-06
4.5639e-06
4.2074e-06
3.85536e-06
3.50712e-06
3.16313e-06
2.82272e-06
2.48635e-06
2.15338e-06
1.82426e-06
1.49836e-06
1.17614e-06
8.56963e-07
5.4131e-07
2.28544e-07
-8.08494e-08
-3.87503e-07
-6.90927e-07
-9.91748e-07
-1.28948e-06
-1.58473e-06
-1.87702e-06
-2.16695e-06
-2.45404e-06
-2.7389e-06
-3.02102e-06
-3.30102e-06
-3.57839e-06
-3.85374e-06
-4.12657e-06
-4.39748e-06
-4.66596e-06
-4.93262e-06
-5.19694e-06
-5.45953e-06
-5.71988e-06
-5.97857e-06
-6.2351e-06
-6.49007e-06
-6.74296e-06
-6.99435e-06
-7.24374e-06
-7.49172e-06
-7.73777e-06
-7.98248e-06
-8.22532e-06
-8.46689e-06
-8.70667e-06
-8.94524e-06
-9.18208e-06
-9.41777e-06
-9.6518e-06
-9.88474e-06
-1.01161e-05
-1.03464e-05
-1.05751e-05
-1.08029e-05
-1.10292e-05
-1.12546e-05
-1.14785e-05
-1.17016e-05
-1.19232e-05
-1.21441e-05
-1.23636e-05
-1.25823e-05
-1.27997e-05
-1.30165e-05
-1.32319e-05
-1.34467e-05
-1.36603e-05
-1.38732e-05
-1.4085e-05
-1.42961e-05
-1.45062e-05
-1.47157e-05
-1.49241e-05
-1.5132e-05
-1.53388e-05
-1.55452e-05
-1.57505e-05
-1.59554e-05
-1.61593e-05
-1.63628e-05
-1.65654e-05
-1.67676e-05
-1.69689e-05
-1.71698e-05
-1.73699e-05
-1.75696e-05
-1.77685e-05
-1.79672e-05
-1.8165e-05
-1.83625e-05
-1.85593e-05
-1.87559e-05
-1.89517e-05
-1.91473e-05
-1.93421e-05
-1.95369e-05
-1.97309e-05
-1.99247e-05
-2.01179e-05
-2.0311e-05
-2.05034e-05
-2.06958e-05
-2.08875e-05
-2.10792e-05
-2.12703e-05
-2.14613e-05
-2.16517e-05
-2.18422e-05
-2.20321e-05
-2.2222e-05
-2.24114e-05
-2.26008e-05
-2.27897e-05
-2.29786e-05
-2.31671e-05
-2.33557e-05
-2.35438e-05
-2.3732e-05
-2.39197e-05
-2.41076e-05
-2.4295e-05
-2.44826e-05
-2.46698e-05
-2.48572e-05
-2.50442e-05
-2.52313e-05
-2.54181e-05
-2.56051e-05
-2.57918e-05
-2.59787e-05
-2.61652e-05
-2.6352e-05
-2.65385e-05
-2.67253e-05
-2.69118e-05
-2.70986e-05
-2.7285e-05
-2.74718e-05
-2.76584e-05
-2.78452e-05
-2.80319e-05
-2.82188e-05
-2.84056e-05
-2.85927e-05
-2.87796e-05
-2.89669e-05
-2.9154e-05
-2.93415e-05
-2.95288e-05
-2.97166e-05
-2.99042e-05
-3.00922e-05
-3.02801e-05
-3.04684e-05
-3.06566e-05
-3.08453e-05
-3.10339e-05
-3.1223e-05
-3.1412e-05
-3.16015e-05
-3.17909e-05
-3.19808e-05
-3.21707e-05
-3.23611e-05
-3.25515e-05
-3.27424e-05
-3.29334e-05
-3.31249e-05
-3.33163e-05
-3.35084e-05
-3.37005e-05
-3.38932e-05
-3.40859e-05
-3.42792e-05
-3.44726e-05
-3.46667e-05
-3.48608e-05
-3.50555e-05
-3.52503e-05
-3.54458e-05
-3.56414e-05
-3.58377e-05
-3.60341e-05
-3.62312e-05
-3.64284e-05
-3.66264e-05
-3.68245e-05
-3.70234e-05
-3.72224e-05
-3.74222e-05
-3.76222e-05
-3.78229e-05
-3.80239e-05
-3.82256e-05
-3.84276e-05
-3.86304e-05
-3.88335e-05
-3.90373e-05
-3.92415e-05