# vtk DataFile Version 2.0
FlowField
ASCII
DATASET STRUCTURED_GRID
DIMENSIONS 400 1 200
POINTS 80000 float
0 0 0
0.08 0 0
0.16 0 0
0.24 0 0
0.32 0 0
0.4 0 0
0.48 0 0
0.56 0 0
0.64 0 0
0.72 0 0
0.8 0 0
0.88 0 0
0.96 0 0
1.04 0 0
1.12 0 0
1.2 0 0
1.28 0 0
1.36 0 0
1.44 0 0
1.52 0 0
1.6 0 0
1.68 0 0
1.76 0 0
1.84 0 0
1.92 0 0
2 0 0
2.08 0 0
2.16 0 0
2.24 0 0
2.32 0 0
2.4 0 0
2.48 0 0
2.56 0 0
2.64 0 0
2.72 0 0
2.8 0 0
2.88 0 0
2.96 0 0
3.04 0 0
3.12 0 0
3.2 0 0
3.28 0 0
3.36 0 0
3.44 0 0
3.52 0 0
3.6 0 0
3.68 0 0
3.76 0 0
3.84 0 0
3.92 0 0
4 0 0
4.08 0 0
4.16 0 0
4.24 0 0
4.32 0 0
4.4 0 0
4.48 0 0
4.56 0 0
4.64 0 0
4.72 0 0
4.8 0 0
4.88 0 0
4.96 0 0
5.04 0 0
5.12 0 0
5.2 0 0
5.28 0 0
5.36 0 0
5.44 0 0
5.52 0 0
5.6 0 0
5.68 0 0
5.76 0 0
5.84 0 0
5.92 0 0
6 0 0
6.08 0 0
6.16 0 0
6.24 0 0
6.32 0 0
6.4 0 0
6.48 0 0
6.56 0 0
6.64 0 0
6.72 0 0
6.8 0 0
6.88 0 0
6.96 0 0
7.04 0 0
7.12 0 0
7.2 0 0
7.28 0 0
7.36 0 0
7.44 0 0
7.52 0 0
7.6 0 0
7.68 0 0
7.76 0 0
7.84 0 0
7.92 0 0
8 0 0
8.08 0 0
8.16 0 0
8.24 0 0
8.32 0 0
8.4 0 0
8.48 0 0
8.56 0 0
8.64 0 0
8.72 0 0
8.8 0 0
8.88 0 0
8.96 0 0
9.04 0 0
9.12 0 0
9.2 0 0
9.28 0 0
9.36 0 0
9.44 0 0
9.52 0 0
9.6 0 0
9.68 0 0
9.76 0 0
9.84 0 0
9.92 0 0
10 0 0
10.08 0 0
10.16 0 0
10.24 0 0
10.32 0 0
10.4 0 0
10.48 0 0
10.56 0 0
10.64 0 0
10.72 0 0
10.8 0 0
10.88 0 0
10.96 0 0
11.04 0 0
11.12 0 0
11.2 0 0
11.28 0 0
11.36 0 0
11.44 0 0
11.52 0 0
11.6 0 0
11.68 0 0
11.76 0 0
11.84 0 0
11.92 0 0
12 0 0
12.08 0 0
12.16 0 0
12.24 0 0
12.32 0 0
12.4 0 0
12.48 0 0
12.56 0 0
12.64 0 0
12.72 0 0
12.8 0 0
12.88 0 0
12.96 0 0
13.04 0 0
13.12 0 0
13.2 0 0
13.28 0 0
13.36 0 0
13.44 0 0
13.52 0 0
13.6 0 0
13.68 0 0
13.76 0 0
13.84 0 0
13.92 0 0
14 0 0
14.08 0 0
14.16 0 0
14.24 0 0
14.32 0 0
14.4 0 0
14.48 0 0
14.56 0 0
14.64 0 0
14.72 0 0
14.8 0 0
14.88 0 0
14.96 0 0
15.04 0 0
15.12 0 0
15.2 0 0
15.28 0 0
15.36 0 0
15.44 0 0
15.52 0 0
15.6 0 0
15.68 0 0
15.76 0 0
15.84 0 0
15.92 0 0
16 0 0
16.08 0 0
16.16 0 0
16.24 0 0
16.32 0 0
16.4 0 0
16.48 0 0
16.56 0 0
16.64 0 0
16.72 0 0
16.8 0 0
16.88 0 0
16.96 0 0
17.04 0 0
17.12 0 0
17.2 0 0
17.28 0 0
17.36 0 0
17.44 0 0
17.52 0 0
17.6 0 0
17.68 0 0
17.76 0 0
17.84 0 0
17.92 0 0
18 0 0
18.08 0 0
18.16 0 0
18.24 0 0
18.32 0 0
18.4 0 0
18.48 0 0
18.56 0 0
18.64 0 0
18.72 0 0
18.8 0 0
18.88 0 0
18.96 0 0
19.04 0 0
19.12 0 0
19.2 0 0
19.28 0 0
19.36 0 0
19.44 0 0
19.52 0 0
19.6 0 0
19.68 0 0
19.76 0 0
19.84 0 0
19.92 0 0
20 0 0
20.08 0 0
20.16 0 0
20.24 0 0
20.32 0 0
20.4 0 0
20.48 0 0
20.56 0 0
20.64 0 0
20.72 0 0
20.8 0 0
20.88 0 0
20.96 0 0
21.04 0 0
21.12 0 0
21.2 0 0
21.28 0 0
21.36 0 0
21.44 0 0
21.52 0 0
21.6 0 0
21.68 0 0
21.76 0 0
21.84 0 0
21.92 0 0
22 0 0
22.08 0 0
22.16 0 0
22.24 0 0
22.32 0 0
22.4 0 0
22.48 0 0
22.56 0 0
22.64 0 0
22.72 0 0
22.8 0 0
22.88 0 0
22.96 0 0
23.04 0 0
23.12 0 0
23.2 0 0
23.28 0 0
23.36 0 0
23.44 0 0
23.52 0 0
23.6 0 0
23.68 0 0
23.76 0 0
23.84 0 0
23.92 0 0
24 0 0
24.08 0 0
24.16 0 0
24.24 0 0
24.32 0 0
24.4 0 0
24.48 0 0
24.56 0 0
24.64 0 0
24.72 0 0
24.8 0 0
24.88 0 0
24.96 0 0
25.04 0 0
25.12 0 0
25.2 0 0
25.28 0 0
25.36 0 0
25.44 0 0
25.52 0 0
25.6 0 0
25.68 0 0
25.76 0 0
25.84 0 0
25.92 0 0
26 0 0
26.08 0 0
26.16 0 0
26.24 0 0
26.32 0 0
26.4 0 0
26.48 0 0
26.56 0 0
26.64 0 0
26.72 0 0
26.8 0 0
26.88 0 0
26.96 0 0
27.04 0 0
27.12 0 0
27.2 0 0
27.28 0 0
27.36 0 0
27.44 0 0
27.52 0 0
27.6 0 0
27.68 0 0
27.76 0 0
27.84 0 0
27.92 0 0
28 0 0
28.08 0 0
28.16 0 0
28.24 0 0
28.32 0 0
28.4 0 0
28.48 0 0
28.56 0 0
28.64 0 0
28.72 0 0
28.8 0 0
28.88 0 0
28.96 0 0
29.04 0 0
29.12 0 0
29.2 0 0
29.28 0 0
29.36 0 0
29.44 0 0
29.52 0 0
29.6 0 0
29.68 0 0
29.76 0 0
29.84 0 0
29.92 0 0
30 0 0
30.08 0 0
30.16 0 0
30.24 0 0
30.32 0 0
30.4 0 0
30.48 0 0
30.56 0 0
30.64 0 0
30.72 0 0
30.8 0 0
30.88 0 0
30.96 0 0
31.04 0 0
31.12 0 0
31.2 0 0
31.28 0 0
31.36 0 0
31.44 0 0
31.52 0 0
31.6 0 0
31.68 0 0
31.76 0 0
31.84 0 0
31.92 0 0
0 0.005 0
0.08 0.005 0
0.16 0.005 0
0.24 0.005 0
0.32 0.005 0
0.4 0.005 0
0.48 0.005 0
0.56 0.005 0
0.64 0.005 0
0.72 0.005 0
0.8 0.005 0
0.88 0.005 0
0.96 0.005 0
1.04 0.005 0
1.12 0.005 0
1.2 0.005 0
1.28 0.005 0
1.36 0.005 0
1.44 0.005 0
1.52 0.005 0
1.6 0.005 0
1.68 0.005 0
1.76 0.005 0
1.84 0.005 0
1.92 0.005 0
2 0.005 0
2.08 0.005 0
2.16 0.005 0
2.24 0.005 0
2.32 0.005 0
2.4 0.005 0
2.48 0.005 0
2.56 0.005 0
2.64 0.005 0
2.72 0.005 0
2.8 0.005 0
2.88 0.005 0
2.96 0.005 0
3.04 0.005 0
3.12 0.005 0
3.2 0.005 0
3.28 0.005 0
3.36 0.005 0
3.44 0.005 0
3.52 0.005 0
3.6 0.005 0
3.68 0.005 0
3.76 0.005 0
3.84 0.005 0
3.92 0.005 0
4 0.005 0
4.08 0.005 0
4.16 0.005 0
4.24 0.005 0
4.32 0.005 0
4.4 0.005 0
4.48 0.005 0
4.56 0.005 0
4.64 0.005 0
4.72 0.005 0
4.8 0.005 0
4.88 0.005 0
4.96 0.005 0
5.04 0.005 0
5.12 0.005 0
5.2 0.005 0
5.28 0.005 0
5.36 0.005 0
5.44 0.005 0
5.52 0.005 0
5.6 0.005 0
5.68 0.005 0
5.76 0.005 0
5.84 0.005 0
5.92 0.005 0
6 0.005 0
6.08 0.005 0
6.16 0.005 0
6.24 0.005 0
6.32 0.005 0
6.4 0.005 0
6.48 0.005 0
6.56 0.005 0
6.64 0.005 0
6.72 0.005 0
6.8 0.005 0
6.88 0.005 0
6.96 0.005 0
7.04 0.005 0
7.12 0.005 0
7.2 0.005 0
7.28 0.005 0
7.36 0.005 0
7.44 0.005 0
7.52 0.005 0
7.6 0.005 0
7.68 0.005 0
7.76 0.005 0
7.84 0.005 0
7.92 0.005 0
8 0.005 0
8.08 0.005 0
8.16 0.005 0
8.24 0.005 0
8.32 0.005 0
8.4 0.005 0
8.48 0.005 0
8.56 0.005 0
8.64 0.005 0
8.72 0.005 0
8.8 0.005 0
8.88 0.005 0
8.96 0.005 0
9.04 0.005 0
9.12 0.005 0
9.2 0.005 0
9.28 0.005 0
9.36 0.005 0
9.44 0.005 0
9.52 0.005 0
9.6 0.005 0
9.68 0.005 0
9.76 0.005 0
9.84 0.005 0
9.92 0.005 0
10 0.005 0
10.08 0.005 0
10.16 0.005 0
10.24 0.005 0
10.32 0.005 0
10.4 0.005 0
10.48 0.005 0
10.56 0.005 0
10.64 0.005 0
10.72 0.005 0
10.8 0.005 0
10.88 0.005 0
10.96 0.005 0
11.04 0.005 0
11.12 0.005 0
11.2 0.005 0
11.28 0.005 0
11.36 0.005 0
11.44 0.005 0
11.52 0.005 0
11.6 0.005 0
11.68 0.005 0
11.76 0.005 0
11.84 0.005 0
11.92 0.005 0
12 0.005 0
12.08 0.005 0
12.16 0.005 0
12.24 0.005 0
12.32 0.005 0
12.4 0.005 0
12.48 0.005 0
12.56 0.005 0
12.64 0.005 0
12.72 0.005 0
12.8 0.005 0
12.88 0.005 0
12.96 0.005 0
13.04 0.005 0
13.12 0.005 0
13.2 0.005 0
13.28 0.005 0
13.36 0.005 0
13.44 0.005 0
13.52 0.005 0
13.6 0.005 0
13.68 0.005 0
13.76 0.005 0
13.84 0.005 0
13.92 0.005 0
14 0.005 0
14.08 0.005 0
14.16 0.005 0
14.24 0.005 0
14.32 0.005 0
14.4 0.005 0
14.48 0.005 0
14.56 0.005 0
14.64 0.005 0
14.72 0.005 0
14.8 0.005 0
14.88 0.005 0
14.96 0.005 0
15.04 0.005 0
15.12 0.005 0
15.2 0.005 0
15.28 0.005 0
15.36 0.005 0
15.44 0.005 0
15.52 0.005 0
15.6 0.005 0
15.68 0.005 0
15.76 0.005 0
15.84 0.005 0
15.92 0.005 0
16 0.005 0
16.08 0.005 0
16.16 0.005 0
16.24 0.005 0
16.32 0.005 0
16.4 0.005 0
16.48 0.005 0
16.56 0.005 0
16.64 0.005 0
16.72 0.005 0
16.8 0.005 0
16.88 0.005 0
16.96 0.005 0
17.04 0.005 0
17.12 0.005 0
17.2 0.005 0
17.28 0.005 0
17.36 0.005 0
17.44 0.005 0
17.52 0.005 0
17.6 0.005 0
17.68 0.005 0
17.76 0.005 0
17.84 0.005 0
17.92 0.005 0
18 0.005 0
18.08 0.005 0
18.16 0.005 0
18.24 0.005 0
18.32 0.005 0
18.4 0.005 0
18.48 0.005 0
18.56 0.005 0
18.64 0.005 0
18.72 0.005 0
18.8 0.005 0
18.88 0.005 0
18.96 0.005 0
19.04 0.005 0
19.12 0.005 0
19.2 0.005 0
19.28 0.005 0
19.36 0.005 0
19.44 0.005 0
19.52 0.005 0
19.6 0.005 0
19.68 0.005 0
19.76 0.005 0
19.84 0.005 0
19.92 0.005 0
20 0.005 0
20.08 0.005 0
20.16 0.005 0
20.24 0.005 0
20.32 0.005 0
20.4 0.005 0
20.48 0.005 0
20.56 0.005 0
20.64 0.005 0
20.72 0.005 0
20.8 0.005 0
20.88 0.005 0
20.96 0.005 0
21.04 0.005 0
21.12 0.005 0
21.2 0.005 0
21.28 0.005 0
21.36 0.005 0
21.44 0.005 0
21.52 0.005 0
21.6 0.005 0
21.68 0.005 0
21.76 0.005 0
21.84 0.005 0
21.92 0.005 0
22 0.005 0
22.08 0.005 0
22.16 0.005 0
22.24 0.005 0
22.32 0.005 0
22.4 0.005 0
22.48 0.005 0
22.56 0.005 0
22.64 0.005 0
22.72 0.005 0
22.8 0.005 0
22.88 0.005 0
22.96 0.005 0
23.04 0.005 0
23.12 0.005 0
23.2 0.005 0
23.28 0.005 0
23.36 0.005 0
23.44 0.005 0
23.52 0.005 0
23.6 0.005 0
23.68 0.005 0
23.76 0.005 0
23.84 0.005 0
23.92 0.005 0
24 0.005 0
24.08 0.005 0
24.16 0.005 0
24.24 0.005 0
24.32 0.005 0
24.4 0.005 0
24.48 0.005 0
24.56 0.005 0
24.64 0.005 0
24.72 0.005 0
24.8 0.005 0
24.88 0.005 0
24.96 0.005 0
25.04 0.005 0
25.12 0.005 0
25.2 0.005 0
25.28 0.005 0
25.36 0.005 0
25.44 0.005 0
25.52 0.005 0
25.6 0.005 0
25.68 0.005 0
25.76 0.005 0
25.84 0.005 0
25.92 0.005 0
26 0.005 0
26.08 0.005 0
26.16 0.005 0
26.24 0.005 0
26.32 0.005 0
26.4 0.005 0
26.48 0.005 0
26.56 0.005 0
26.64 0.005 0
26.72 0.005 0
26.8 0.005 0
26.88 0.005 0
26.96 0.005 0
27.04 0.005 0
27.12 0.005 0
27.2 0.005 0
27.28 0.005 0
27.36 0.005 0
27.44 0.005 0
27.52 0.005 0
27.6 0.005 0
27.68 0.005 0
27.76 0.005 0
27.84 0.005 0
27.92 0.005 0
28 0.005 0
28.08 0.005 0
28.16 0.005 0
28.24 0.005 0
28.32 0.005 0
28.4 0.005 0
28.48 0.005 0
28.56 0.005 0
28.64 0.005 0
28.72 0.005 0
28.8 0.005 0
28.88 0.005 0
28.96 0.005 0
29.04 0.005 0
29.12 0.005 0
29.2 0.005 0
29.28 0.005 0
29.36 0.005 0
29.44 0.005 0
29.52 0.005 0
29.6 0.005 0
29.68 0.005 0
29.76 0.005 0
29.84 0.005 0
29.92 0.005 0
30 0.005 0
30.08 0.005 0
30.16 0.005 0
30.24 0.005 0
30.32 0.005 0
30.4 0.005 0
30.48 0.005 0
30.56 0.005 0
30.64 0.005 0
30.72 0.005 0
30.8 0.005 0
30.88 0.005 0
30.96 0.005 0
31.04 0.005 0
31.12 0.005 0
31.2 0.005 0
31.28 0.005 0
31.36 0.005 0
31.44 0.005 0
31.52 0.005 0
31.6 0.005 0
31.68 0.005 0
31.76 0.005 0
31.84 0.005 0
31.92 0.005 0
0 0.01 0
0.08 0.01 0
0.16 0.01 0
0.24 0.01 0
0.32 0.01 0
0.4 0.01 0
0.48 0.01 0
0.56 0.01 0
0.64 0.01 0
0.72 0.01 0
0.8 0.01 0
0.88 0.01 0
0.96 0.01 0
1.04 0.01 0
1.12 0.01 0
1.2 0.01 0
1.28 0.01 0
1.36 0.01 0
1.44 0.01 0
1.52 0.01 0
1.6 0.01 0
1.68 0.01 0
1.76 0.01 0
1.84 0.01 0
1.92 0.01 0
2 0.01 0
2.08 0.01 0
2.16 0.01 0
2.24 0.01 0
2.32 0.01 0
2.4 0.01 0
2.48 0.01 0
2.56 0.01 0
2.64 0.01 0
2.72 0.01 0
2.8 0.01 0
2.88 0.01 0
2.96 0.01 0
3.04 0.01 0
3.12 0.01 0
3.2 0.01 0
3.28 0.01 0
3.36 0.01 0
3.44 0.01 0
3.52 0.01 0
3.6 0.01 0
3.68 0.01 0
3.76 0.01 0
3.84 0.01 0
3.92 0.01 0
4 0.01 0
4.08 0.01 0
4.16 0.01 0
4.24 0.01 0
4.32 0.01 0
4.4 0.01 0
4.48 0.01 0
4.56 0.01 0
4.64 0.01 0
4.72 0.01 0
4.8 0.01 0
4.88 0.01 0
4.96 0.01 0
5.04 0.01 0
5.12 0.01 0
[...]
POINT_DATA 80000

SCALARS p float 1
LOOKUP_TABLE default
1
56.3221
56.0203
55.9791
55.9589
55.9445
55.9324
55.9216
55.9116
55.902
55.8929
55.8841
55.8755
55.8672
55.8592
55.8515
55.8444
55.8377
55.8313
55.8252
55.8192
55.8133
55.8075
55.8017
55.7961
55.7906
55.7852
55.78
55.7748
55.7696
55.7645
55.7593
55.7542
55.749
55.7439
55.7388
55.7337
55.7286
55.7234
55.7184
55.7133
55.7082
55.7031
55.6981
55.6931
55.688
55.683
55.678
55.6731
55.6681
55.6632
55.6583
55.6534
55.6485
55.6437
55.6389
55.6341
55.6293
55.6245
55.6198
55.6152
55.6105
55.6059
55.6013
55.5968
55.5923
55.5878
55.5834
55.579
55.5747
55.5704
55.5662
55.562
55.5579
55.5538
55.5498
55.5459
55.542
55.5381
55.5344
55.5307
55.527
55.5235
55.52
55.5165
55.5132
55.5099
55.5067
55.5036
55.5006
55.4977
55.4948
55.492
55.4893
55.4867
55.4842
55.4818
55.4795
55.4772
55.4751
55.473
55.471
55.4691
55.4674
55.4657
55.4641
55.4626
55.4611
55.4598
55.4586
55.4574
55.4563
55.4554
55.4545
55.4536
55.4529
55.4523
55.4517
55.4512
55.4507
55.4504
55.4501
55.4499
55.4497
55.4496
55.4495
55.4495
55.4496
55.4497
55.4498
55.45
55.4502
55.4505
55.4507
55.451
55.4514
55.4517
55.452
55.4524
55.4528
55.4532
55.4535
55.4539
55.4543
55.4546
55.455
55.4553
55.4556
55.4558
55.4561
55.4563
55.4565
55.4566
55.4567
55.4568
55.4568
55.4568
55.4567
55.4566
55.4564
55.4562
55.4559
55.4556
55.4552
55.4547
55.4542
55.4536
55.453
55.4523
55.4515
55.4506
55.4497
55.4488
55.4477
55.4466
55.4454
55.4442
55.4429
55.4415
55.4401
55.4386
55.437
55.4354
55.4337
55.432
55.4301
55.4283
55.4263
55.4243
55.4223
55.4202
55.418
55.4158
55.4136
55.4112
55.4089
55.4065
55.404
55.4015
55.3989
55.3963
55.3937
55.391
55.3883
55.3855
55.3827
55.3799
55.377
55.3741
55.3712
55.3682
55.3652
55.3622
55.3591
55.3561
55.3529
55.3498
55.3467
55.3435
55.3403
55.337
55.3338
55.3305
55.3272
55.3239
55.3206
55.3172
55.3139
55.3105
55.3071
55.3037
55.3003
55.2969
55.2934
55.29
55.2865
55.283
55.2795
55.276
55.2725
55.269
55.2654
55.2619
55.2584
55.2548
55.2512
55.2477
55.2441
55.2405
55.2369
55.2333
55.2297
55.2261
55.2225
55.2189
55.2152
55.2116
55.208
55.2043
55.2007
55.197
55.1934
55.1897
55.1861
55.1824
55.1787
55.1751
55.1714
55.1677
55.164
55.1603
55.1567
55.153
55.1493
55.1456
55.1419
55.1382
55.1345
55.1308
55.1271
55.1234
55.1197
55.116
55.1123
55.1086
55.1049
55.1012
55.0975
55.0938
55.0901
55.0863
55.0826
55.0789
55.0752
55.0715
55.0678
55.0641
55.0604
55.0566
55.0529
55.0492
55.0455
55.0418
55.0381
55.0344
55.0307
55.0269
55.0232
55.0195
55.0158
55.0121
55.0084
55.0047
55.001
54.9973
54.9936
54.9899
54.9862
54.9825
54.9788
54.9751
54.9714
54.9677
54.964
54.9603
54.9566
54.9529
54.9493
54.9456
54.9419
54.9382
54.9345
54.9309
54.9272
54.9235
54.9199
54.9162
54.9125
54.9089
54.9052
54.9016
54.8979
54.8943
54.8906
54.887
54.8833
54.8797
54.876
54.8724
54.8688
54.8652
54.8615
54.8579
54.8543
54.8507
54.8471
54.8435
54.8399
54.8363
54.8327
54.8291
54.8255
54.8219
54.8183
54.8147
54.8112
54.8076
54.804
54.8005
54.7969
54.7934
54.7898
54.7863
54.7827
54.7792
54.7757
54.7722
54.7686
54.7651
54.7616
54.7581
54.7546
54.7511
54.7476
54.7441
54.7407
54.7372
54.7337
54.7302
54.7268
54.7233
54.7199
54.7165
54.713
54.7096
54.7062
54.7028
54.6993
54.696
0.5
56.3221
56.3221
56.0203
55.9791
55.9589
55.9445
55.9324
55.9216
55.9116
55.902
55.8929
55.8841
55.8755
55.8672
55.8592
55.8515
55.8444
55.8377
55.8313
55.8252
55.8192
55.8133
55.8075
55.8017
55.7961
55.7906
55.7852
55.78
55.7748
55.7696
55.7645
55.7593
55.7542
55.749
55.7439
55.7388
55.7337
55.7286
55.7234
55.7184
55.7133
55.7082
55.7031
55.6981
55.6931
55.688
55.683
55.678
55.6731
55.6681
55.6632
55.6583
55.6534
55.6485
55.6437
55.6389
55.6341
55.6293
55.6245
55.6198
55.6152
55.6105
55.6059
55.6013
55.5968
55.5923
55.5878
55.5834
55.579
55.5747
55.5704
55.5662
55.562
55.5579
55.5538
55.5498
55.5459
55.542
55.5381
55.5344
55.5307
55.527
55.5235
55.52
55.5165
55.5132
55.5099
55.5067
55.5036
55.5006
55.4977
55.4948
55.492
55.4893
55.4867
55.4842
55.4818
55.4795
55.4772
55.4751
55.473
55.471
55.4691
55.4674
55.4657
55.4641
55.4626
55.4611
55.4598
55.4586
55.4574
55.4563
55.4554
55.4545
55.4536
55.4529
55.4523
55.4517
55.4512
55.4507
55.4504
55.4501
55.4499
55.4497
55.4496
55.4495
55.4495
55.4496
55.4497
55.4498
55.45
55.4502
55.4505
55.4507
55.451
55.4514
55.4517
55.452
55.4524
55.4528
55.4532
55.4535
55.4539
55.4543
55.4546
55.455
55.4553
55.4556
55.4558
55.4561
55.4563
55.4565
55.4566
55.4567
55.4568
55.4568
55.4568
55.4567
55.4566
55.4564
55.4562
55.4559
55.4556
55.4552
55.4547
55.4542
55.4536
55.453
55.4523
55.4515
55.4506
55.4497
55.4488
55.4477
55.4466
55.4454
55.4442
55.4429
55.4415
55.4401
55.4386
55.437
55.4354
55.4337
55.432
55.4301
55.4283
55.4263
55.4243
55.4223
55.4202
55.418
55.4158
55.4136
55.4112
55.4089
55.4065
55.404
55.4015
55.3989
55.3963
55.3937
55.391
55.3883
55.3855
55.3827
55.3799
55.377
55.3741
55.3712
55.3682
55.3652
55.3622
55.3591
55.3561
55.3529
55.3498
55.3467
55.3435
55.3403
55.337
55.3338
55.3305
55.3272
55.3239
55.3206
55.3172
55.3139
55.3105
55.3071
55.3037
55.3003
55.2969
55.2934
55.29
55.2865
55.283
55.2795
55.276
55.2725
55.269
55.2654
55.2619
55.2584
55.2548
55.2512
55.2477
55.2441
55.2405
55.2369
55.2333
55.2297
55.2261
55.2225
55.2189
55.2152
55.2116
55.208
55.2043
55.2007
55.197
55.1934
55.1897
55.1861
55.1824
55.1787
55.1751
55.1714
55.1677
55.164
55.1603
55.1567
55.153
55.1493
55.1456
55.1419
55.1382
55.1345
55.1308
55.1271
55.1234
55.1197
55.116
55.1123
55.1086
55.1049
55.1012
55.0975
55.0938
55.0901
55.0863
55.0826
55.0789
55.0752
55.0715
55.0678
55.0641
55.0604
55.0566
55.0529
55.0492
55.0455
55.0418
55.0381
55.0344
55.0307
55.0269
55.0232
55.0195
55.0158
55.0121
55.0084
55.0047
55.001
54.9973
54.9936
54.9899
54.9862
54.9825
54.9788
54.9751
54.9714
54.9677
54.964
54.9603
54.9566
54.9529
54.9493
54.9456
54.9419
54.9382
54.9345
54.9309
54.9272
54.9235
54.9199
54.9162
54.9125
54.9089
54.9052
54.9016
54.8979
54.8943
54.8906
54.887
54.8833
54.8797
54.876
54.8724
54.8688
54.8652
54.8615
54.8579
54.8543
54.8507
54.8471
54.8435
54.8399
54.8363
54.8327
54.8291
54.8255
54.8219
54.8183
54.8147
54.8112
54.8076
54.804
54.8005
54.7969
54.7934
54.7898
54.7863
54.7827
54.7792
54.7757
54.7722
54.7686
54.7651
54.7616
54.7581
54.7546
54.7511
54.7476
54.7441
54.7407
54.7372
54.7337
54.7302
54.7268
54.7233
54.7199
54.7165
54.713
54.7096
54.7062
54.7028
54.6993
54.696
54.696
56.3075
56.3075
56.0241
55.9803
55.9596
55.9448
55.9327
55.9218
55.9117
55.9022
55.893
55.8842
55.8756
55.8673
55.8592
55.8516
55.8444
55.8377
55.8314
55.8253
55.8193
55.8133
55.8075
55.8017
55.7961
55.7906
55.7852
55.78
55.7748
55.7696
55.7645
55.7593
55.7542
55.749
55.7439
55.7388
55.7337
55.7286
55.7234
55.7184
55.7133
55.7082
55.7031
55.6981
55.6931
55.688
55.683
55.678
55.6731
55.6681
55.6632
55.6583
55.6534
55.6485
55.6437
55.6388
55.6341
55.6293
55.6245
55.6198
55.6152
55.6105
55.6059
55.6013
55.5968
55.5923
55.5878
55.5834
55.579
55.5747
55.5704
55.5662
55.562
55.5579
55.5538
55.5498
55.5459
55.542
55.5381
55.5344
55.5307
55.527
55.5235
55.52
55.5165
55.5132
55.5099
55.5067
55.5036
55.5006
55.4977
55.4948
55.492
55.4893
55.4867
55.4842
55.4818
55.4795
55.4772
55.4751
55.473
55.471
55.4691
55.4674
55.4657
55.4641
55.4626
55.4611
55.4598
55.4586
55.4574
55.4563
55.4554
55.4545
55.4537
55.4529
55.4523
55.4517
55.4512
55.4508
55.4504
55.4501
55.4499
55.4497
55.4496
55.4495
55.4495
55.4496
55.4497
55.4498
55.45
55.4502
55.4505
55.4507
55.451
55.4514
55.4517
55.4521
55.4524
55.4528
55.4532
55.4535
55.4539
55.4543
55.4546
55.455
55.4553
55.4556
55.4558
55.4561
55.4563
55.4565
55.4566
55.4568
55.4568
55.4568
55.4568
55.4567
55.4566
55.4565
55.4562
55.4559
55.4556
55.4552
55.4547
55.4542
55.4536
55.453
55.4523
55.4515
55.4506
55.4497
55.4488
55.4477
55.4466
55.4454
55.4442
55.4429
55.4415
55.4401
55.4386
55.437
55.4354
55.4337
55.432
55.4301
55.4283
55.4263
55.4243
55.4223
55.4202
55.418
55.4158
55.4136
55.4112
55.4089
55.4065
55.404
55.4015
55.3989
55.3963
55.3937
55.391
55.3883
55.3855
55.3827
55.3799
55.377
55.3741
55.3712
55.3682
55.3652
55.3622
55.3591
55.3561
55.3529
55.3498
55.3467
55.3435
55.3403
55.337
55.3338
55.3305
55.3272
55.3239
55.3206
55.3172
55.3139
55.3105
55.3071
55.3037
55.3003
55.2969
55.2934
55.29
55.2865
55.283
55.2795
55.276
55.2725
55.269
55.2654
55.2619
55.2584
55.2548
55.2512
55.2477
55.2441
55.2405
55.2369
55.2333
55.2297
55.2261
55.2225
55.2189
55.2152
55.2116
55.208
55.2043
55.2007
55.197
55.1934
55.1897
55.1861
55.1824
55.1787
55.1751
55.1714
55.1677
55.164
55.1603
55.1567
55.153
55.1493
55.1456
55.1419
55.1382
55.1345
55.1308
55.1271
55.1234
55.1197
55.116
55.1123
55.1086
55.1049
55.1012
55.0975
55.0938
55.0901
55.0863
55.0826
55.0789
55.0752
55.0715
55.0678
55.0641
55.0604
55.0566
55.0529
55.0492
55.0455
55.0418
55.0381
55.0344
55.0307
55.0269
55.0232
55.0195
55.0158
55.0121
55.0084
55.0047
55.001
54.9973
54.9936
54.9899
54.9862
54.9825
54.9788
54.9751
54.9714
54.9677
54.964
54.9603
54.9566
54.9529
54.9493
54.9456
54.9419
54.9382
54.9345
54.9309
54.9272
54.9235
54.9199
54.9162
54.9125
54.9089
54.9052
54.9016
54.8979
54.8943
54.8906
54.887
54.8833
54.8797
54.876
54.8724
54.8688
54.8652
54.8615
54.8579
54.8543
54.8507
54.8471
54.8435
54.8399
54.8363
54.8327
54.8291
54.8255
54.8219
54.8183
54.8147
54.8112
54.8076
54.804
54.8005
54.7969
54.7934
54.7898
54.7863
54.7827
54.7792
54.7757
54.7721
54.7686
54.7651
54.7616
54.7581
54.7546
54.7511
54.7476
54.7441
54.7407
54.7372
54.7337
54.7302
54.7268
54.7233
54.7199
54.7165
54.713
54.7096
54.7062
54.7028
54.6993
54.696
54.696
56.2915
56.2915
56.0273
55.9815
55.9602
55.9452
55.9329
55.922
55.9119
55.9023
55.8931
55.8842
55.8757
55.8673
55.8593
55.8516
55.8444
55.8377
55.8314
55.8253
55.8193
55.8133
55.8075
55.8017
55.7961
55.7906
55.7852
55.78
55.7748
55.7696
55.7645
55.7593
55.7542
55.749
55.7439
55.7388
55.7337
55.7286
55.7234
55.7184
55.7133
55.7082
55.7031
55.6981
55.6931
55.688
55.683
55.678
55.6731
55.6681
55.6632
55.6583
55.6534
55.6485
55.6437
55.6388
55.6341
55.6293
55.6245
55.6198
55.6152
55.6105
55.6059
55.6013
55.5968
55.5923
55.5878
55.5834
55.579
55.5747
55.5704
55.5662
55.562
55.5579
55.5538
55.5498
55.5459
55.542
55.5381
55.5344
55.5307
55.527
55.5235
55.52
55.5165
55.5132
55.5099
55.5067
55.5036
55.5006
55.4977
55.4948
55.492
55.4893
55.4867
55.4842
55.4818
55.4795
55.4772
55.4751
55.473
55.471
55.4691
55.4674
55.4657
55.4641
55.4626
55.4611
55.4598
55.4586
55.4574
55.4563
55.4554
55.4545
55.4537
55.4529
55.4523
55.4517
55.4512
55.4508
55.4504
55.4501
55.4499
55.4497
55.4496
55.4495
55.4495
55.4496
55.4497
55.4498
55.45
55.4502
55.4505
55.4507
55.451
55.4514
55.4517
55.4521
55.4524
55.4528
55.4532
55.4535
55.4539
55.4543
55.4546
55.455
55.4553
55.4556
55.4558
55.4561
55.4563
55.4565
55.4566
55.4568
55.4568
55.4568
55.4568
55.4567
55.4566
55.4565
55.4562
55.4559
55.4556
55.4552
55.4547
55.4542
55.4536
55.453
55.4523
55.4515
55.4506
55.4497
55.4488
55.4477
55.4466
55.4454
55.4442
55.4429
55.4415
55.4401
55.4386
55.437
55.4354
55.4337
55.432
55.4301
55.4283
55.4263
55.4243
55.4223
55.4202
55.418
55.4158
55.4136
55.4112
55.4089
55.4065
55.404
55.4015
55.3989
55.3963
55.3937
55.391
55.3883
55.3855
55.3827
55.3799
55.377
55.3741
55.3712
55.3682
55.3652
55.3622
55.3591
55.3561
55.3529
55.3498
55.3467
55.3435
55.3403
55.337
55.3338
55.3305
55.3272
55.3239
55.3206
55.3172
55.3139
55.3105
55.3071
55.3037
55.3003
55.2969
55.2934
55.29
55.2865
55.283
55.2795
55.276
55.2725
55.269
55.2654
55.2619
55.2584
55.2548
55.2512
55.2477
55.2441
55.2405
55.2369
55.2333
55.2297
55.2261
55.2225
55.2189
55.2152
55.2116
55.208
55.2043
55.2007
55.197
55.1934
55.1897
55.1861
55.1824
55.1787
55.1751
55.1714
55.1677
55.164
55.1603
55.1567
55.153
55.1493
55.1456
55.1419
55.1382
55.1345
55.1308
55.1271
55.1234
55.1197
55.116
55.1123
55.1086
55.1049
55.1012
55.0975
55.0938
55.0901
55.0863
55.0826
55.0789
55.0752
55.0715
55.0678
55.0641
55.0604
55.0566
55.0529
55.0492
55.0455
55.0418
55.0381
55.0344
55.0307
55.0269
55.0232
55.0195
55.0158
55.0121
55.0084
55.0047
55.001
54.9973
54.9936
54.9899
54.9862
54.9825
54.9788
54.9751
54.9714
54.9677
54.964
54.9603
54.9566
54.9529
54.9493
54.9456
54.9419
54.9382
54.9345
54.9309
54.9272
54.9235
54.9199
54.9162
54.9125
54.9089
54.9052
54.9016
54.8979
54.8943
54.8906
54.887
54.8833
54.8797
54.876
54.8724
54.8688
54.8652
54.8615
54.8579
54.8543
54.8507
54.8471
54.8435
54.8399
54.8363
54.8327
54.8291
54.8255
54.8219
54.8183
54.8147
54.8112
54.8076
54.804
54.8005
54.7969
54.7934
54.7898
54.7863
54.7827
54.7792
54.7757
54.7721
54.7686
54.7651
54.7616
54.7581
54.7546
54.7511
54.7476
54.7441
54.7407
54.7372
54.7337
54.7302
54.7268
54.7233
54.7199
54.7165
54.713
54.7096
54.7062
54.7028
54.6993
54.696
54.696
56.2756
56.2756
56.0302
55.9827
55.9608
55.9456
55.9332
55.9222
55.912
55.9024
55.8932
55.8843
55.8757
55.8674
55.8593
55.8516
55.8444
55.8377
55.8314
55.8253
55.8193
55.8133
55.8075
55.8017
55.7961
55.7906
55.7852
55.78
55.7748
55.7696
55.7645
55.7593
55.7542
55.749
55.7439
55.7388
55.7337
55.7286
55.7234
55.7184
55.7133
55.7082
55.7031
55.6981
55.6931
55.688
55.683
55.678
55.6731
55.6681
55.6632
55.6583
55.6534
55.6485
55.6437
55.6388
55.6341
55.6293
55.6245
55.6198
55.6152
55.6105
55.6059
55.6013
55.5968
55.5923
55.5878
55.5834
55.579
55.5747
55.5704
55.5662
55.562
55.5579
55.5538
55.5498
55.5459
55.542
55.5381
55.5344
55.5307
55.527
55.5235
55.52
55.5165
55.5132
55.5099
55.5067
55.5036
55.5006
55.4977
55.4948
55.492
55.4893
55.4867
55.4842
55.4818
55.4795
55.4772
55.4751
55.473
55.471
55.4691
55.4674
55.4657
55.4641
55.4626
55.4611
55.4598
55.4586
55.4574
55.4563
55.4554
55.4545
55.4537
55.4529
55.4523
55.4517
55.4512
55.4508
55.4504
55.4501
55.4499
55.4497
55.4496
55.4495
55.4495
55.4496
55.4497
55.4498
55.45
55.4502
55.4505
55.4507
55.451
55.4514
55.4517
55.4521
55.4524
55.4528
55.4532
55.4535
55.4539
55.4543
55.4546
55.455
55.4553
55.4556
55.4558
55.4561
55.4563
55.4565
55.4566
55.4568
55.4568
55.4568
55.4568
55.4567
55.4566
55.4564
55.4562
55.4559
55.4556
55.4552
55.4547
55.4542
55.4536
55.453
55.4523
55.4515
55.4506
55.4497
55.4488
55.4477
55.4466
55.4454
55.4442
55.4429
55.4415
55.4401
55.4386
55.437
55.4354
55.4337
55.432
55.4301
55.4283
55.4263
55.4243
55.4223
55.4202
55.418
55.4158
55.4136
55.4112
55.4089
55.4065
55.404
55.4015
55.3989
55.3963
55.3937
55.391
55.3883
55.3855
55.3827
55.3799
55.377
55.3741
55.3712
55.3682
55.3652
55.3622
55.3591
55.3561
55.3529
55.3498
55.3467
55.3435
55.3403
55.337
55.3338
55.3305
55.3272
55.3239
55.3206
55.3172
55.3139
55.3105
55.3071
55.3037
55.3003
55.2969
55.2934
55.29
55.2865
55.283
55.2795
55.276
55.2725
55.269
55.2654
55.2619
55.2584
55.2548
55.2512
55.2477
55.2441
55.2405
55.2369
55.2333
55.2297
55.2261
55.2225
55.2189
55.2152
55.2116
55.208
55.2043
55.2007
55.197
55.1934
55.1897
55.1861
55.1824
55.1787
55.1751
55.1714
55.1677
55.164
55.1603
55.1567
55.153
55.1493
55.1456
55.1419
55.1382
55.1345
55.1308
55.1271
55.1234
55.1197
55.116
55.1123
55.1086
55.1049
55.1012
55.0975
55.0938
55.0901
55.0863
55.0826
55.0789
55.0752
55.0715
55.0678
55.0641
55.0604
55.0566
55.0529
55.0492
55.0455
55.0418
55.0381
55.0344
55.0307
55.0269
55.0232
55.0195
55.0158
55.0121
55.0084
55.0047
55.001
54.9973
54.9936
54.9899
54.9862
54.9825
54.9788
54.9751
54.9714
54.9677
54.964
54.9603
54.9566
54.9529
54.9493
54.9456
54.9419
54.9382
54.9345
54.9309
54.9272
54.9235
54.9199
54.9162
54.9125
54.9089
54.9052
54.9016
54.8979
54.8943
54.8906
54.887
54.8833
54.8797
54.876
54.8724
54.8688
54.8652
54.8615
54.8579
54.8543
54.8507
54.8471
54.8435
54.8399
54.8363
54.8327
54.8291
54.8255
54.8219
54.8183
54.8147
54.8112
54.8076
54.804
54.8005
54.7969
54.7934
54.7898
54.7863
54.7827
54.7792
54.7757
54.7721
54.7686
54.7651
54.7616
54.7581
54.7546
54.7511
54.7476
54.7441
54.7407
54.7372
54.7337
54.7302
54.7268
54.7233
54.7199
54.7165
54.713
54.7096
54.7062
54.7028
54.6993
54.696
54.696
56.2605
56.2605
56.0329
55.9838
55.9614
55.946
55.9335
55.9224
55.9122
55.9025
55.8933
55.8844
55.8758
55.8674
55.8593
55.8517
55.8445
55.8378
55.8314
55.8253
55.8193
55.8133
55.8075
55.8017
55.7961
55.7906
55.7852
55.78
55.7748
55.7696
55.7645
55.7593
55.7542
55.749
55.7439
55.7388
55.7337
55.7286
55.7234
55.7184
55.7133
55.7082
55.7031
55.6981
55.6931
55.688
55.683
55.678
55.6731
55.6681
55.6632
55.6583
55.6534
55.6485
55.6437
55.6388
55.6341
55.6293
55.6245
55.6198
55.6152
55.6105
55.6059
55.6013
55.5968
55.5923
55.5878
55.5834
55.579
55.5747
55.5704
55.5662
55.562
55.5579
55.5538
55.5498
55.5459
55.542
55.5381
55.5344
55.5307
55.527
55.5235
55.52
55.5165
55.5132
55.5099
55.5067
55.5036
55.5006
55.4977
55.4948
55.492
55.4893
55.4867
55.4842
55.4818
55.4795
55.4772
55.4751
55.473
55.471
55.4692
55.4674
55.4657
55.4641
55.4626
55.4611
55.4598
55.4586
55.4574
55.4563
55.4554
55.4545
55.4537
55.4529
55.4523
55.4517
55.4512
55.4508
55.4504
55.4501
55.4499
55.4497
55.4496
55.4495
55.4495
55.4496
55.4497
55.4498
55.45
55.4502
55.4505
55.4507
55.451
55.4514
55.4517
55.4521
55.4524
55.4528
55.4532
55.4535
55.4539
55.4543
55.4546
55.455
55.4553
55.4556
55.4558
55.4561
55.4563
55.4565
55.4566
55.4568
55.4568
55.4568
55.4568
55.4567
55.4566
55.4564
55.4562
55.4559
55.4556
55.4552
55.4547
55.4542
55.4536
55.453
55.4523
55.4515
55.4506
55.4497
55.4488
55.4477
55.4466
55.4454
55.4442
55.4429
55.4415
55.4401
55.4386
55.437
55.4354
55.4337
55.432
55.4301
55.4283
55.4263
55.4243
55.4223
55.4202
55.418
55.4158
55.4136
55.4112
55.4089
55.4065
55.404
55.4015
55.3989
55.3963
55.3937
55.391
55.3883
55.3855
55.3827
55.3799
55.377
55.3741
55.3712
55.3682
55.3652
55.3622
55.3591
55.3561
55.3529
55.3498
55.3466
55.3435
55.3403
55.337
55.3338
55.3305
55.3272
55.3239
55.3206
55.3172
55.3139
55.3105
55.3071
55.3037
55.3003
55.2969
55.2934
55.29
55.2865
55.283
55.2795
55.276
55.2725
55.269
55.2654
55.2619
55.2584
55.2548
55.2512
55.2477
55.2441
55.2405
55.2369
55.2333
55.2297
55.2261
55.2225
55.2189
55.2152
55.2116
55.208
55.2043
55.2007
55.197
55.1934
55.1897
55.1861
55.1824
55.1787
55.1751
55.1714
55.1677
55.164
55.1603
55.1567
55.153
55.1493
55.1456
55.1419
55.1382
55.1345
55.1308
55.1271
55.1234
55.1197
55.116
55.1123
55.1086
55.1049
55.1012
55.0975
55.0938
55.0901
55.0863
55.0826
55.0789
55.0752
55.0715
55.0678
55.0641
55.0604
55.0566
55.0529
55.0492
55.0455
55.0418
55.0381
55.0344
55.0307
55.0269
55.0232
55.0195
55.0158
55.0121
55.0084
55.0047
55.001
54.9973
54.9936
54.9899
54.9862
54.9825
54.9788
54.9751
54.9714
54.9677
54.964
54.9603
54.9566
54.9529
54.9493
54.9456
54.9419
54.9382
54.9345
54.9309
54.9272
54.9235
54.9199
54.9162
54.9125
54.9089
54.9052
54.9016
54.8979
54.8943
54.8906
54.887
54.8833
54.8797
54.876
54.8724
54.8688
54.8652
54.8615
54.8579
54.8543
54.8507
54.8471
54.8435
54.8399
54.8363
54.8327
54.8291
54.8255
54.8219
54.8183
54.8147
54.8112
54.8076
54.804
54.8005
54.7969
54.7934
54.7898
54.7863
54.7827
54.7792
54.7757
54.7721
54.7686
54.7651
54.7616
54.7581
54.7546
54.7511
54.7476
54.7441
54.7407
54.7372
54.7337
54.7302
54.7268
54.7233
54.7199
54.7165
54.713
54.7096
54.7062
54.7028
54.6993
54.696
54.696
56.2465
56.2465
56.0355
55.9849
55.962
55.9464
55.9337
55.9226
55.9123
55.9026
55.8934
55.8845
55.8759
55.8675
55.8594
55.8517
55.8445
55.8378
55.8314
55.8253
55.8193
55.8133
55.8075
55.8017
55.7961
55.7906
55.7852
55.78
55.7748
55.7696
55.7645
55.7593
55.7542
55.749
55.7439
55.7388
55.7337
55.7286
55.7234
55.7184
55.7133
55.7082
55.7031
55.6981
55.6931
55.688
55.683
55.678
55.6731
55.6681
55.6632
55.6583
55.6534
55.6485
55.6437
55.6388
55.6341
55.6293
55.6245
55.6198
55.6152
55.6105
55.6059
55.6013
55.5968
55.5923
55.5878
55.5834
55.579
55.5747
55.5704
55.5662
55.562
55.5579
55.5538
55.5498
55.5459
55.542
55.5381
55.5344
55.5307
55.527
55.5235
55.52
55.5166
55.5132
55.5099
55.5067
55.5036
55.5006
55.4977
55.4948
55.492
55.4893
55.4867
55.4842
55.4818
55.4795
55.4772
55.4751
55.473
55.471
55.4692
55.4674
55.4657
55.4641
55.4626
55.4611
55.4598
55.4586
55.4574
55.4563
55.4554
55.4545
55.4537
55.4529
55.4523
55.4517
55.4512
55.4508
55.4504
55.4501
55.4499
55.4497
55.4496
55.4495
55.4495
55.4496
55.4497
55.4498
55.45