# vtk DataFile Version 2.0
FlowField
ASCII
DATASET STRUCTURED_GRID
DIMENSIONS 400 1 200
POINTS 80000 float
0 0 0
0.08 0 0
0.16 0 0
0.24 0 0
0.32 0 0
0.4 0 0
0.48 0 0
0.56 0 0
0.64 0 0
0.72 0 0
0.8 0 0
0.88 0 0
0.96 0 0
1.04 0 0
1.12 0 0
1.2 0 0
1.28 0 0
1.36 0 0
1.44 0 0
1.52 0 0
1.6 0 0
1.68 0 0
1.76 0 0
1.84 0 0
1.92 0 0
2 0 0
2.08 0 0
2.16 0 0
2.24 0 0
2.32 0 0
2.4 0 0
2.48 0 0
2.56 0 0
2.64 0 0
2.72 0 0
2.8 0 0
2.88 0 0
2.96 0 0
3.04 0 0
3.12 0 0
3.2 0 0
3.28 0 0
3.36 0 0
3.44 0 0
3.52 0 0
3.6 0 0
3.68 0 0
3.76 0 0
3.84 0 0
3.92 0 0
4 0 0
4.08 0 0
4.16 0 0
4.24 0 0
4.32 0 0
4.4 0 0
4.48 0 0
4.56 0 0
4.64 0 0
4.72 0 0
4.8 0 0
4.88 0 0
4.96 0 0
5.04 0 0
5.12 0 0
5.2 0 0
5.28 0 0
5.36 0 0
5.44 0 0
5.52 0 0
5.6 0 0
5.68 0 0
5.76 0 0
5.84 0 0
5.92 0 0
6 0 0
6.08 0 0
6.16 0 0
6.24 0 0
6.32 0 0
6.4 0 0
6.48 0 0
6.56 0 0
6.64 0 0
6.72 0 0
6.8 0 0
6.88 0 0
6.96 0 0
7.04 0 0
7.12 0 0
7.2 0 0
7.28 0 0
7.36 0 0
7.44 0 0
7.52 0 0
7.6 0 0
7.68 0 0
7.76 0 0
7.84 0 0
7.92 0 0
8 0 0
8.08 0 0
8.16 0 0
8.24 0 0
8.32 0 0
8.4 0 0
8.48 0 0
8.56 0 0
8.64 0 0
8.72 0 0
8.8 0 0
8.88 0 0
8.96 0 0
9.04 0 0
9.12 0 0
9.2 0 0
9.28 0 0
9.36 0 0
9.44 0 0
9.52 0 0
9.6 0 0
9.68 0 0
9.76 0 0
9.84 0 0
9.92 0 0
10 0 0
10.08 0 0
10.16 0 0
10.24 0 0
10.32 0 0
10.4 0 0
10.48 0 0
10.56 0 0
10.64 0 0
10.72 0 0
10.8 0 0
10.88 0 0
10.96 0 0
11.04 0 0
11.12 0 0
11.2 0 0
11.28 0 0
11.36 0 0
11.44 0 0
11.52 0 0
11.6 0 0
11.68 0 0
11.76 0 0
11.84 0 0
11.92 0 0
12 0 0
12.08 0 0
12.16 0 0
12.24 0 0
12.32 0 0
12.4 0 0
12.48 0 0
12.56 0 0
12.64 0 0
12.72 0 0
12.8 0 0
12.88 0 0
12.96 0 0
13.04 0 0
13.12 0 0
13.2 0 0
13.28 0 0
13.36 0 0
13.44 0 0
13.52 0 0
13.6 0 0
13.68 0 0
13.76 0 0
13.84 0 0
13.92 0 0
14 0 0
14.08 0 0
14.16 0 0
14.24 0 0
14.32 0 0
14.4 0 0
14.48 0 0
14.56 0 0
14.64 0 0
14.72 0 0
14.8 0 0
14.88 0 0
14.96 0 0
15.04 0 0
15.12 0 0
15.2 0 0
15.28 0 0
15.36 0 0
15.44 0 0
15.52 0 0
15.6 0 0
15.68 0 0
15.76 0 0
15.84 0 0
15.92 0 0
16 0 0
16.08 0 0
16.16 0 0
16.24 0 0
16.32 0 0
16.4 0 0
16.48 0 0
16.56 0 0
16.64 0 0
16.72 0 0
16.8 0 0
16.88 0 0
16.96 0 0
17.04 0 0
17.12 0 0
17.2 0 0
17.28 0 0
17.36 0 0
17.44 0 0
17.52 0 0
17.6 0 0
17.68 0 0
17.76 0 0
17.84 0 0
17.92 0 0
18 0 0
18.08 0 0
18.16 0 0
18.24 0 0
18.32 0 0
18.4 0 0
18.48 0 0
18.56 0 0
18.64 0 0
18.72 0 0
18.8 0 0
18.88 0 0
18.96 0 0
19.04 0 0
19.12 0 0
19.2 0 0
19.28 0 0
19.36 0 0
19.44 0 0
19.52 0 0
19.6 0 0
19.68 0 0
19.76 0 0
19.84 0 0
19.92 0 0
20 0 0
20.08 0 0
20.16 0 0
20.24 0 0
20.32 0 0
20.4 0 0
20.48 0 0
20.56 0 0
20.64 0 0
20.72 0 0
20.8 0 0
20.88 0 0
20.96 0 0
21.04 0 0
21.12 0 0
21.2 0 0
21.28 0 0
21.36 0 0
21.44 0 0
21.52 0 0
21.6 0 0
21.68 0 0
21.76 0 0
21.84 0 0
21.92 0 0
22 0 0
22.08 0 0
22.16 0 0
22.24 0 0
22.32 0 0
22.4 0 0
22.48 0 0
22.56 0 0
22.64 0 0
22.72 0 0
22.8 0 0
22.88 0 0
22.96 0 0
23.04 0 0
23.12 0 0
23.2 0 0
23.28 0 0
23.36 0 0
23.44 0 0
23.52 0 0
23.6 0 0
23.68 0 0
23.76 0 0
23.84 0 0
23.92 0 0
24 0 0
24.08 0 0
24.16 0 0
24.24 0 0
24.32 0 0
24.4 0 0
24.48 0 0
24.56 0 0
24.64 0 0
24.72 0 0
24.8 0 0
24.88 0 0
24.96 0 0
25.04 0 0
25.12 0 0
25.2 0 0
25.28 0 0
25.36 0 0
25.44 0 0
25.52 0 0
25.6 0 0
25.68 0 0
25.76 0 0
25.84 0 0
25.92 0 0
26 0 0
26.08 0 0
26.16 0 0
26.24 0 0
26.32 0 0
26.4 0 0
26.48 0 0
26.56 0 0
26.64 0 0
26.72 0 0
26.8 0 0
26.88 0 0
26.96 0 0
27.04 0 0
27.12 0 0
27.2 0 0
27.28 0 0
27.36 0 0
27.44 0 0
27.52 0 0
27.6 0 0
27.68 0 0
27.76 0 0
27.84 0 0
27.92 0 0
28 0 0
28.08 0 0
28.16 0 0
28.24 0 0
28.32 0 0
28.4 0 0
28.48 0 0
28.56 0 0
28.64 0 0
28.72 0 0
28.8 0 0
28.88 0 0
28.96 0 0
29.04 0 0
29.12 0 0
29.2 0 0
29.28 0 0
29.36 0 0
29.44 0 0
29.52 0 0
29.6 0 0
29.68 0 0
29.76 0 0
29.84 0 0
29.92 0 0
30 0 0
30.08 0 0
30.16 0 0
30.24 0 0
30.32 0 0
30.4 0 0
30.48 0 0
30.56 0 0
30.64 0 0
30.72 0 0
30.8 0 0
30.88 0 0
30.96 0 0
31.04 0 0
31.12 0 0
31.2 0 0
31.28 0 0
31.36 0 0
31.44 0 0
31.52 0 0
31.6 0 0
31.68 0 0
31.76 0 0
31.84 0 0
31.92 0 0
0 0.005 0
0.08 0.005 0
0.16 0.005 0
0.24 0.005 0
0.32 0.005 0
0.4 0.005 0
0.48 0.005 0
0.56 0.005 0
0.64 0.005 0
0.72 0.005 0
0.8 0.005 0
0.88 0.005 0
0.96 0.005 0
1.04 0.005 0
1.12 0.005 0
1.2 0.005 0
1.28 0.005 0
1.36 0.005 0
1.44 0.005 0
1.52 0.005 0
1.6 0.005 0
1.68 0.005 0
1.76 0.005 0
1.84 0.005 0
1.92 0.005 0
2 0.005 0
2.08 0.005 0
2.16 0.005 0
2.24 0.005 0
2.32 0.005 0
2.4 0.005 0
2.48 0.005 0
2.56 0.005 0
2.64 0.005 0
2.72 0.005 0
2.8 0.005 0
2.88 0.005 0
2.96 0.005 0
3.04 0.005 0
3.12 0.005 0
3.2 0.005 0
3.28 0.005 0
3.36 0.005 0
3.44 0.005 0
3.52 0.005 0
3.6 0.005 0
3.68 0.005 0
3.76 0.005 0
3.84 0.005 0
3.92 0.005 0
4 0.005 0
4.08 0.005 0
4.16 0.005 0
4.24 0.005 0
4.32 0.005 0
4.4 0.005 0
4.48 0.005 0
4.56 0.005 0
4.64 0.005 0
4.72 0.005 0
4.8 0.005 0
4.88 0.005 0
4.96 0.005 0
5.04 0.005 0
5.12 0.005 0
5.2 0.005 0
5.28 0.005 0
5.36 0.005 0
5.44 0.005 0
5.52 0.005 0
5.6 0.005 0
5.68 0.005 0
5.76 0.005 0
5.84 0.005 0
5.92 0.005 0
6 0.005 0
6.08 0.005 0
6.16 0.005 0
6.24 0.005 0
6.32 0.005 0
6.4 0.005 0
6.48 0.005 0
6.56 0.005 0
6.64 0.005 0
6.72 0.005 0
6.8 0.005 0
6.88 0.005 0
6.96 0.005 0
7.04 0.005 0
7.12 0.005 0
7.2 0.005 0
7.28 0.005 0
7.36 0.005 0
7.44 0.005 0
7.52 0.005 0
7.6 0.005 0
7.68 0.005 0
7.76 0.005 0
7.84 0.005 0
7.92 0.005 0
8 0.005 0
8.08 0.005 0
8.16 0.005 0
8.24 0.005 0
8.32 0.005 0
8.4 0.005 0
8.48 0.005 0
8.56 0.005 0
8.64 0.005 0
8.72 0.005 0
8.8 0.005 0
8.88 0.005 0
8.96 0.005 0
9.04 0.005 0
9.12 0.005 0
9.2 0.005 0
9.28 0.005 0
9.36 0.005 0
9.44 0.005 0
9.52 0.005 0
9.6 0.005 0
9.68 0.005 0
9.76 0.005 0
9.84 0.005 0
9.92 0.005 0
10 0.005 0
10.08 0.005 0
10.16 0.005 0
10.24 0.005 0
10.32 0.005 0
10.4 0.005 0
10.48 0.005 0
10.56 0.005 0
10.64 0.005 0
10.72 0.005 0
10.8 0.005 0
10.88 0.005 0
10.96 0.005 0
11.04 0.005 0
11.12 0.005 0
11.2 0.005 0
11.28 0.005 0
11.36 0.005 0
11.44 0.005 0
11.52 0.005 0
11.6 0.005 0
11.68 0.005 0
11.76 0.005 0
11.84 0.005 0
11.92 0.005 0
12 0.005 0
12.08 0.005 0
12.16 0.005 0
12.24 0.005 0
12.32 0.005 0
12.4 0.005 0
12.48 0.005 0
12.56 0.005 0
12.64 0.005 0
12.72 0.005 0
12.8 0.005 0
12.88 0.005 0
12.96 0.005 0
13.04 0.005 0
13.12 0.005 0
13.2 0.005 0
13.28 0.005 0
13.36 0.005 0
13.44 0.005 0
13.52 0.005 0
13.6 0.005 0
13.68 0.005 0
13.76 0.005 0
13.84 0.005 0
13.92 0.005 0
14 0.005 0
14.08 0.005 0
14.16 0.005 0
14.24 0.005 0
14.32 0.005 0
14.4 0.005 0
14.48 0.005 0
14.56 0.005 0
14.64 0.005 0
14.72 0.005 0
14.8 0.005 0
14.88 0.005 0
14.96 0.005 0
15.04 0.005 0
15.12 0.005 0
15.2 0.005 0
15.28 0.005 0
15.36 0.005 0
15.44 0.005 0
15.52 0.005 0
15.6 0.005 0
15.68 0.005 0
15.76 0.005 0
15.84 0.005 0
15.92 0.005 0
16 0.005 0
16.08 0.005 0
16.16 0.005 0
16.24 0.005 0
16.32 0.005 0
16.4 0.005 0
16.48 0.005 0
16.56 0.005 0
16.64 0.005 0
16.72 0.005 0
16.8 0.005 0
16.88 0.005 0
16.96 0.005 0
17.04 0.005 0
17.12 0.005 0
17.2 0.005 0
17.28 0.005 0
17.36 0.005 0
17.44 0.005 0
17.52 0.005 0
17.6 0.005 0
17.68 0.005 0
17.76 0.005 0
17.84 0.005 0
17.92 0.005 0
18 0.005 0
18.08 0.005 0
18.16 0.005 0
18.24 0.005 0
18.32 0.005 0
18.4 0.005 0
18.48 0.005 0
18.56 0.005 0
18.64 0.005 0
18.72 0.005 0
18.8 0.005 0
18.88 0.005 0
18.96 0.005 0
19.04 0.005 0
19.12 0.005 0
19.2 0.005 0
19.28 0.005 0
19.36 0.005 0
19.44 0.005 0
19.52 0.005 0
19.6 0.005 0
19.68 0.005 0
19.76 0.005 0
19.84 0.005 0
19.92 0.005 0
20 0.005 0
20.08 0.005 0
20.16 0.005 0
20.24 0.005 0
20.32 0.005 0
20.4 0.005 0
20.48 0.005 0
20.56 0.005 0
20.64 0.005 0
20.72 0.005 0
20.8 0.005 0
20.88 0.005 0
20.96 0.005 0
21.04 0.005 0
21.12 0.005 0
21.2 0.005 0
21.28 0.005 0
21.36 0.005 0
21.44 0.005 0
21.52 0.005 0
21.6 0.005 0
21.68 0.005 0
21.76 0.005 0
21.84 0.005 0
21.92 0.005 0
22 0.005 0
22.08 0.005 0
22.16 0.005 0
22.24 0.005 0
22.32 0.005 0
22.4 0.005 0
22.48 0.005 0
22.56 0.005 0
22.64 0.005 0
22.72 0.005 0
22.8 0.005 0
22.88 0.005 0
22.96 0.005 0
23.04 0.005 0
23.12 0.005 0
23.2 0.005 0
23.28 0.005 0
23.36 0.005 0
23.44 0.005 0
23.52 0.005 0
23.6 0.005 0
23.68 0.005 0
23.76 0.005 0
23.84 0.005 0
23.92 0.005 0
24 0.005 0
24.08 0.005 0
24.16 0.005 0
24.24 0.005 0
24.32 0.005 0
24.4 0.005 0
24.48 0.005 0
24.56 0.005 0
24.64 0.005 0
24.72 0.005 0
24.8 0.005 0
24.88 0.005 0
24.96 0.005 0
25.04 0.005 0
25.12 0.005 0
25.2 0.005 0
25.28 0.005 0
25.36 0.005 0
25.44 0.005 0
25.52 0.005 0
25.6 0.005 0
25.68 0.005 0
25.76 0.005 0
25.84 0.005 0
25.92 0.005 0
26 0.005 0
26.08 0.005 0
26.16 0.005 0
26.24 0.005 0
26.32 0.005 0
26.4 0.005 0
26.48 0.005 0
26.56 0.005 0
26.64 0.005 0
26.72 0.005 0
26.8 0.005 0
26.88 0.005 0
26.96 0.005 0
27.04 0.005 0
27.12 0.005 0
27.2 0.005 0
27.28 0.005 0
27.36 0.005 0
27.44 0.005 0
27.52 0.005 0
27.6 0.005 0
27.68 0.005 0
27.76 0.005 0
27.84 0.005 0
27.92 0.005 0
28 0.005 0
28.08 0.005 0
28.16 0.005 0
28.24 0.005 0
28.32 0.005 0
28.4 0.005 0
28.48 0.005 0
28.56 0.005 0
28.64 0.005 0
28.72 0.005 0
28.8 0.005 0
28.88 0.005 0
28.96 0.005 0
29.04 0.005 0
29.12 0.005 0
29.2 0.005 0
29.28 0.005 0
29.36 0.005 0
29.44 0.005 0
29.52 0.005 0
29.6 0.005 0
29.68 0.005 0
29.76 0.005 0
29.84 0.005 0
29.92 0.005 0
30 0.005 0
30.08 0.005 0
30.16 0.005 0
30.24 0.005 0
30.32 0.005 0
30.4 0.005 0
30.48 0.005 0
30.56 0.005 0
30.64 0.005 0
30.72 0.005 0
30.8 0.005 0
30.88 0.005 0
30.96 0.005 0
31.04 0.005 0
31.12 0.005 0
31.2 0.005 0
31.28 0.005 0
31.36 0.005 0
31.44 0.005 0
31.52 0.005 0
31.6 0.005 0
31.68 0.005 0
31.76 0.005 0
31.84 0.005 0
31.92 0.005 0
0 0.01 0
0.08 0.01 0
0.16 0.01 0
0.24 0.01 0
0.32 0.01 0
0.4 0.01 0
0.48 0.01 0
0.56 0.01 0
0.64 0.01 0
0.72 0.01 0
0.8 0.01 0
0.88 0.01 0
0.96 0.01 0
1.04 0.01 0
1.12 0.01 0
1.2 0.01 0
1.28 0.01 0
1.36 0.01 0
1.44 0.01 0
1.52 0.01 0
1.6 0.01 0
1.68 0.01 0
1.76 0.01 0
1.84 0.01 0
1.92 0.01 0
2 0.01 0
2.08 0.01 0
2.16 0.01 0
2.24 0.01 0
2.32 0.01 0
2.4 0.01 0
2.48 0.01 0
2.56 0.01 0
2.64 0.01 0
2.72 0.01 0
2.8 0.01 0
2.88 0.01 0
2.96 0.01 0
3.04 0.01 0
3.12 0.01 0
3.2 0.01 0
3.28 0.01 0
3.36 0.01 0
3.44 0.01 0
3.52 0.01 0
3.6 0.01 0
3.68 0.01 0
3.76 0.01 0
3.84 0.01 0
3.92 0.01 0
4 0.01 0
4.08 0.01 0
4.16 0.01 0
4.24 0.01 0
4.32 0.01 0
4.4 0.01 0
4.48 0.01 0
4.56 0.01 0
4.64 0.01 0
4.72 0.01 0
4.8 0.01 0
4.88 0.01 0
4.96 0.01 0
5.04 0.01 0
5.12 0.01 0
[...]
POINT_DATA 80000

SCALARS u float 1
LOOKUP_TABLE default
0
-0.131663
-0.0682696
-0.0522965
-0.0444205
-0.0395774
-0.0362604
-0.0338334
-0.0319735
-0.0304969
-0.0292909
-0.0282826
-0.0274232
-0.0266786
-0.0260248
-0.0254439
-0.0249231
-0.0244523
-0.0240239
-0.0236316
-0.0232707
-0.0229373
-0.022628
-0.0223403
-0.0220719
-0.0218206
-0.0215849
-0.0213633
-0.0211548
-0.0209584
-0.0207731
-0.020598
-0.0204322
-0.0202752
-0.0201267
-0.0199866
-0.0198546
-0.0197303
-0.0196135
-0.0195041
-0.0194024
-0.019309
-0.0192243
-0.0191482
-0.0190802
-0.0190191
-0.0189637
-0.0189131
-0.0188667
-0.0188243
-0.0187859
-0.0187517
-0.0187213
-0.0186942
-0.0186698
-0.0186473
-0.0186261
-0.0186059
-0.0185867
-0.0185687
-0.0185523
-0.0185378
-0.0185255
-0.0185156
-0.0185078
-0.0185021
-0.0184982
-0.0184956
-0.0184942
-0.0184936
-0.0184936
-0.0184939
-0.0184945
-0.0184952
-0.0184961
-0.018497
-0.0184979
-0.0184988
-0.0184998
-0.0185008
-0.0185018
-0.0185028
-0.0185038
-0.0185049
-0.0185059
-0.0185069
-0.0185079
-0.018509
-0.01851
-0.018511
-0.0185121
-0.0185131
-0.0185141
-0.0185152
-0.0185162
-0.0185172
-0.0185183
-0.0185193
-0.0185204
-0.0185214
-0.0185224
-0.0185235
-0.0185245
-0.0185256
-0.0185266
-0.0185276
-0.0185287
-0.0185297
-0.0185308
-0.0185318
-0.0185329
-0.0185339
-0.018535
-0.018536
-0.0185371
-0.0185381
-0.0185392
-0.0185402
-0.0185413
-0.0185423
-0.0185434
-0.0185444
-0.0185455
-0.0185465
-0.0185476
-0.0185487
-0.0185497
-0.0185508
-0.0185518
-0.0185529
-0.0185539
-0.018555
-0.0185561
-0.0185571
-0.0185582
-0.0185593
-0.0185603
-0.0185614
-0.0185625
-0.0185635
-0.0185646
-0.0185657
-0.0185667
-0.0185678
-0.0185689
-0.0185699
-0.018571
-0.0185721
-0.0185732
-0.0185742
-0.0185753
-0.0185764
-0.0185775
-0.0185785
-0.0185796
-0.0185807
-0.0185818
-0.0185828
-0.0185839
-0.018585
-0.0185861
-0.0185872
-0.0185883
-0.0185893
-0.0185904
-0.0185915
-0.0185926
-0.0185937
-0.0185948
-0.0185959
-0.0185969
-0.018598
-0.0185991
-0.0186002
-0.0186013
-0.0186024
-0.0186035
-0.0186046
-0.0186057
-0.0186068
-0.0186079
-0.018609
-0.0186101
-0.0186112
-0.0186123
-0.0186134
-0.0186145
-0.0186156
-0.0186167
-0.0186178
-0.0186189
-0.01862
-0.0186211
-0.0186222
-0.0186233
-0.0186244
-0.0186255
-0.0186266
-0.0186277
-0.0186288
-0.0186299
-0.018631
-0.0186322
-0.0186333
-0.0186344
-0.0186355
-0.0186366
-0.0186377
-0.0186388
-0.01864
-0.0186411
-0.0186422
-0.0186433
-0.0186444
-0.0186455
-0.0186467
-0.0186478
-0.0186489
-0.01865
-0.0186512
-0.0186523
-0.0186534
-0.0186545
-0.0186557
-0.0186568
-0.0186579
-0.018659
-0.0186602
-0.0186613
-0.0186624
-0.0186636
-0.0186647
-0.0186658
-0.018667
-0.0186681
-0.0186692
-0.0186704
-0.0186715
-0.0186726
-0.0186738
-0.0186749
-0.0186761
-0.0186772
-0.0186783
-0.0186795
-0.0186806
-0.0186818
-0.0186829
-0.018684
-0.0186852
-0.0186863
-0.0186875
-0.0186886
-0.0186898
-0.0186909
-0.0186921
-0.0186932
-0.0186944
-0.0186955
-0.0186967
-0.0186978
-0.018699
-0.0187001
-0.0187013
-0.0187024
-0.0187036
-0.0187048
-0.0187059
-0.0187071
-0.0187082
-0.0187094
-0.0187105
-0.0187117
-0.0187129
-0.018714
-0.0187152
-0.0187164
-0.0187175
-0.0187187
-0.0187198
-0.018721
-0.0187222
-0.0187233
-0.0187245
-0.0187257
-0.0187268
-0.018728
-0.0187292
-0.0187304
-0.0187315
-0.0187327
-0.0187339
-0.018735
-0.0187362
-0.0187374
-0.0187386
-0.0187397
-0.0187409
-0.0187421
-0.0187433
-0.0187444
-0.0187456
-0.0187468
-0.018748
-0.0187491
-0.0187503
-0.0187515
-0.0187527
-0.0187539
-0.018755
-0.0187562
-0.0187574
-0.0187586
-0.0187598
-0.018761
-0.0187621
-0.0187633
-0.0187645
-0.0187657
-0.0187669
-0.0187681
-0.0187692
-0.0187704
-0.0187716
-0.0187728
-0.018774
-0.0187752
-0.0187764
-0.0187776
-0.0187787
-0.0187799
-0.0187811
-0.0187823
-0.0187835
-0.0187847
-0.0187859
-0.0187871
-0.0187883
-0.0187895
-0.0187907
-0.0187919
-0.018793
-0.0187942
-0.0187954
-0.0187966
-0.0187978
-0.018799
-0.0188002
-0.0188014
-0.0188026
-0.0188038
-0.018805
-0.0188062
-0.0188074
-0.0188086
-0.0188098
-0.018811
-0.0188122
-0.0188134
-0.0188146
-0.0188158
-0.018817
-0.0188182
-0.0188194
-0.0188206
-0.0188218
-0.018823
-0.0188242
-0.0188254
-0.0188266
-0.0188278
-0.0188291
-0.0188302
-0.0188315
-0.0188327
-0.0188339
-0.0188351
-0.0188363
-0.0188375
-0.0188387
-0.0188399
-0.0188412
-0.0188423
-0.0188436
-0.0188448
-0.018846
-0.0188472
-0.0188485
-0.0188496
-0.0188509
-0.0188521
-0.0188533
-0.0188546
-0.0188557
-0.0188573
-0.018858
-0.0188601
-0.0188581
-0.0188581
-0.0188581
1
0.131663
0.0682696
0.0522965
0.0444205
0.0395774
0.0362604
0.0338334
0.0319735
0.0304969
0.0292909
0.0282826
0.0274232
0.0266786
0.0260248
0.0254439
0.0249231
0.0244523
0.0240239
0.0236316
0.0232707
0.0229373
0.022628
0.0223403
0.0220719
0.0218206
0.0215849
0.0213633
0.0211548
0.0209584
0.0207731
0.020598
0.0204322
0.0202752
0.0201267
0.0199866
0.0198546
0.0197303
0.0196135
0.0195041
0.0194024
0.019309
0.0192243
0.0191482
0.0190802
0.0190191
0.0189637
0.0189131
0.0188667
0.0188243
0.0187859
0.0187517
0.0187213
0.0186942
0.0186698
0.0186473
0.0186261
0.0186059
0.0185867
0.0185687
0.0185523
0.0185378
0.0185255
0.0185156
0.0185078
0.0185021
0.0184982
0.0184956
0.0184942
0.0184936
0.0184936
0.0184939
0.0184945
0.0184952
0.0184961
0.018497
0.0184979
0.0184988
0.0184998
0.0185008
0.0185018
0.0185028
0.0185038
0.0185049
0.0185059
0.0185069
0.0185079
0.018509
0.01851
0.018511
0.0185121
0.0185131
0.0185141
0.0185152
0.0185162
0.0185172
0.0185183
0.0185193
0.0185204
0.0185214
0.0185224
0.0185235
0.0185245
0.0185256
0.0185266
0.0185276
0.0185287
0.0185297
0.0185308
0.0185318
0.0185329
0.0185339
0.018535
0.018536
0.0185371
0.0185381
0.0185392
0.0185402
0.0185413
0.0185423
0.0185434
0.0185444
0.0185455
0.0185465
0.0185476
0.0185487
0.0185497
0.0185508
0.0185518
0.0185529
0.0185539
0.018555
0.0185561
0.0185571
0.0185582
0.0185593
0.0185603
0.0185614
0.0185625
0.0185635
0.0185646
0.0185657
0.0185667
0.0185678
0.0185689
0.0185699
0.018571
0.0185721
0.0185732
0.0185742
0.0185753
0.0185764
0.0185775
0.0185785
0.0185796
0.0185807
0.0185818
0.0185828
0.0185839
0.018585
0.0185861
0.0185872
0.0185883
0.0185893
0.0185904
0.0185915
0.0185926
0.0185937
0.0185948
0.0185959
0.0185969
0.018598
0.0185991
0.0186002
0.0186013
0.0186024
0.0186035
0.0186046
0.0186057
0.0186068
0.0186079
0.018609
0.0186101
0.0186112
0.0186123
0.0186134
0.0186145
0.0186156
0.0186167
0.0186178
0.0186189
0.01862
0.0186211
0.0186222
0.0186233
0.0186244
0.0186255
0.0186266
0.0186277
0.0186288
0.0186299
0.018631
0.0186322
0.0186333
0.0186344
0.0186355
0.0186366
0.0186377
0.0186388
0.01864
0.0186411
0.0186422
0.0186433
0.0186444
0.0186455
0.0186467
0.0186478
0.0186489
0.01865
0.0186512
0.0186523
0.0186534
0.0186545
0.0186557
0.0186568
0.0186579
0.018659
0.0186602
0.0186613
0.0186624
0.0186636
0.0186647
0.0186658
0.018667
0.0186681
0.0186692
0.0186704
0.0186715
0.0186726
0.0186738
0.0186749
0.0186761
0.0186772
0.0186783
0.0186795
0.0186806
0.0186818
0.0186829
0.018684
0.0186852
0.0186863
0.0186875
0.0186886
0.0186898
0.0186909
0.0186921
0.0186932
0.0186944
0.0186955
0.0186967
0.0186978
0.018699
0.0187001
0.0187013
0.0187024
0.0187036
0.0187048
0.0187059
0.0187071
0.0187082
0.0187094
0.0187105
0.0187117
0.0187129
0.018714
0.0187152
0.0187164
0.0187175
0.0187187
0.0187198
0.018721
0.0187222
0.0187233
0.0187245
0.0187257
0.0187268
0.018728
0.0187292
0.0187304
0.0187315
0.0187327
0.0187339
0.018735
0.0187362
0.0187374
0.0187386
0.0187397
0.0187409
0.0187421
0.0187433
0.0187444
0.0187456
0.0187468
0.018748
0.0187491
0.0187503
0.0187515
0.0187527
0.0187539
0.018755
0.0187562
0.0187574
0.0187586
0.0187598
0.018761
0.0187621
0.0187633
0.0187645
0.0187657
0.0187669
0.0187681
0.0187692
0.0187704
0.0187716
0.0187728
0.018774
0.0187752
0.0187764
0.0187776
0.0187787
0.0187799
0.0187811
0.0187823
0.0187835
0.0187847
0.0187859
0.0187871
0.0187883
0.0187895
0.0187907
0.0187919
0.018793
0.0187942
0.0187954
0.0187966
0.0187978
0.018799
0.0188002
0.0188014
0.0188026
0.0188038
0.018805
0.0188062
0.0188074
0.0188086
0.0188098
0.018811
0.0188122
0.0188134
0.0188146
0.0188158
0.018817
0.0188182
0.0188194
0.0188206
0.0188218
0.018823
0.0188242
0.0188254
0.0188266
0.0188278
0.0188291
0.0188302
0.0188315
0.0188327
0.0188339
0.0188351
0.0188363
0.0188375
0.0188387
0.0188399
0.0188412
0.0188423
0.0188436
0.0188448
0.018846
0.0188472
0.0188485
0.0188496
0.0188509
0.0188521
0.0188533
0.0188546
0.0188557
0.0188573
0.018858
0.0188601
0.0188581
0.0188581
0.0188581
1
0.344885
0.200669
0.154969
0.131896
0.1176
0.10777
0.10056
0.0950275
0.0906318
0.0870409
0.0840391
0.0814813
0.0792663
0.0773221
0.0755962
0.0740493
0.0726518
0.0713805
0.0702171
0.0691471
0.0681588
0.0672426
0.0663904
0.0655954
0.0648515
0.0641538
0.0634983
0.0628816
0.0623009
0.0617531
0.0612355
0.0607458
0.0602827
0.0598452
0.0594327
0.0590443
0.0586792
0.0583365
0.0580165
0.0577201
0.0574486
0.0572028
0.0569823
0.0567851
0.0566078
0.0564471
0.0563003
0.0561658
0.0560432
0.0559326
0.0558336
0.0557456
0.055667
0.0555958
0.05553
0.0554682
0.0554096
0.0553544
0.0553033
0.0552572
0.055217
0.0551833
0.0551562
0.0551354
0.0551204
0.0551101
0.0551038
0.0551004
0.0550991
0.0550994
0.0551006
0.0551025
0.0551048
0.0551074
0.0551101
0.0551129
0.0551157
0.0551187
0.0551216
0.0551246
0.0551277
0.0551307
0.0551337
0.0551368
0.0551399
0.0551429
0.055146
0.0551491
0.0551521
0.0551552
0.0551583
0.0551614
0.0551645
0.0551676
0.0551707
0.0551737
0.0551768
0.0551799
0.055183
0.0551861
0.0551892
0.0551923
0.0551954
0.0551986
0.0552017
0.0552048
0.0552079
0.055211
0.0552141
0.0552173
0.0552204
0.0552235
0.0552266
0.0552298
0.0552329
0.055236
0.0552392
0.0552423
0.0552454
0.0552486
0.0552517
0.0552549
0.055258
0.0552612
0.0552643
0.0552675
0.0552706
0.0552738
0.0552769
0.0552801
0.0552833
0.0552864
0.0552896
0.0552928
0.0552959
0.0552991
0.0553023
0.0553055
0.0553087
0.0553118
0.055315
0.0553182
0.0553214
0.0553246
0.0553278
0.055331
0.0553342
0.0553374
0.0553406
0.0553438
0.055347
0.0553502
0.0553534
0.0553566
0.0553598
0.055363
0.0553663
0.0553695
0.0553727
0.0553759
0.0553792
0.0553824
0.0553856
0.0553888
0.0553921
0.0553953
0.0553985
0.0554018
0.055405
0.0554083
0.0554115
0.0554148
0.055418
0.0554213
0.0554245
0.0554278
0.055431
0.0554343
0.0554376
0.0554408
0.0554441
0.0554474
0.0554506
0.0554539
0.0554572
0.0554605
0.0554637
0.055467
0.0554703
0.0554736
0.0554769
0.0554802
0.0554835
0.0554868
0.0554901
0.0554933
0.0554966
0.0555
0.0555033
0.0555066
0.0555099
0.0555132
0.0555165
0.0555198
0.0555231
0.0555264
0.0555298
0.0555331
0.0555364
0.0555397
0.0555431
0.0555464
0.0555497
0.0555531
0.0555564
0.0555597
0.0555631
0.0555664
0.0555698
0.0555731
0.0555765
0.0555798
0.0555832
0.0555865
0.0555899
0.0555932
0.0555966
0.0556
0.0556033
0.0556067
0.0556101
0.0556135
0.0556168
0.0556202
0.0556236
0.055627
0.0556303
0.0556337
0.0556371
0.0556405
0.0556439
0.0556473
0.0556507
0.0556541
0.0556575
0.0556609
0.0556643
0.0556677
0.0556711
0.0556745
0.0556779
0.0556813
0.0556847
0.0556881
0.0556916
0.055695
0.0556984
0.0557018
0.0557053
0.0557087
0.0557121
0.0557155
0.055719
0.0557224
0.0557259
0.0557293
0.0557327
0.0557362
0.0557396
0.0557431
0.0557465
0.05575
0.0557534
0.0557569
0.0557603
0.0557638
0.0557672
0.0557707
0.0557742
0.0557776
0.0557811
0.0557846
0.055788
0.0557915
0.055795
0.0557984
0.0558019
0.0558054
0.0558089
0.0558124
0.0558158
0.0558193
0.0558228
0.0558263
0.0558298
0.0558333
0.0558368
0.0558403
0.0558438
0.0558473
0.0558508
0.0558543
0.0558578
0.0558613
0.0558648
0.0558683
0.0558718
0.0558753
0.0558788
0.0558823
0.0558858
0.0558893
0.0558928
0.0558964
0.0558999
0.0559034
0.0559069
0.0559104
0.055914
0.0559175
0.055921
0.0559245
0.0559281
0.0559316
0.0559351
0.0559387
0.0559422
0.0559457
0.0559493
0.0559528
0.0559563
0.0559599
0.0559634
0.055967
0.0559705
0.0559741
0.0559776
0.0559812
0.0559847
0.0559883
0.0559918
0.0559954
0.0559989
0.0560025
0.056006
0.0560096
0.0560131
0.0560167
0.0560203
0.0560238
0.0560274
0.056031
0.0560345
0.0560381
0.0560417
0.0560453
0.0560488
0.0560524
0.056056
0.0560596
0.0560632
0.0560667
0.0560703
0.0560739
0.0560775
0.0560811
0.0560847
0.0560883
0.0560919
0.0560954
0.0560991
0.0561026
0.0561063
0.0561098
0.0561135
0.0561171
0.0561207
0.0561243
0.056128
0.0561315
0.0561352
0.0561387
0.0561425
0.056146
0.0561497
0.0561533
0.056157
0.0561606
0.0561643
0.0561679
0.0561715
0.0561754
0.0561788
0.0561833
0.0561856
0.0561915
0.0561868
0.0561868
0.0561868
1
0.518766
0.327403
0.25535
0.217851
0.194407
0.178215
0.166311
0.157163
0.149888
0.143944
0.138975
0.134741
0.131076
0.12786
0.125007
0.12245
0.120141
0.118042
0.116121
0.114355
0.112724
0.111213
0.109807
0.108496
0.10727
0.10612
0.105039
0.104023
0.103067
0.102165
0.101313
0.100507
0.0997452
0.0990263
0.0983489
0.0977117
0.0971131
0.0965522
0.0960294
0.0955462
0.0951046
0.0947054
0.0943473
0.0940269
0.0937388
0.0934776
0.0932392
0.0930211
0.0928225
0.0926433
0.0924831
0.0923402
0.0922122
0.0920959
0.0919884
0.0918876
0.0917927
0.0917038
0.0916222
0.0915492
0.0914861
0.0914336
0.0913919
0.0913602
0.0913375
0.0913222
0.091313
0.0913083
0.0913069
0.0913077
0.0913101
0.0913134
0.0913173
0.0913216
0.0913261
0.0913308
0.0913356
0.0913405
0.0913454
0.0913503
0.0913554
0.0913604
0.0913654
0.0913705
0.0913756
0.0913807
0.0913857
0.0913908
0.0913959
0.091401
0.0914061
0.0914112
0.0914164
0.0914215
0.0914266
0.0914317
0.0914368
0.091442
0.0914471
0.0914522
0.0914574
0.0914625
0.0914677
0.0914728
0.091478
0.0914831
0.0914883
0.0914935
0.0914986
0.0915038
0.091509
0.0915141
0.0915193
0.0915245
0.0915297
0.0915349
0.0915401
0.0915453
0.0915505
0.0915557
0.0915609
0.0915661
0.0915713
0.0915765
0.0915817
0.091587
0.0915922
0.0915974
0.0916027
0.0916079
0.0916131
0.0916184
0.0916236
0.0916289
0.0916341
0.0916394
0.0916447
0.0916499
0.0916552
0.0916605
0.0916657
0.091671
0.0916763
0.0916816
0.0916869
0.0916922
0.0916975
0.0917027
0.0917081
0.0917134
0.0917187
0.091724
0.0917293
0.0917346
0.0917399
0.0917453
0.0917506
0.0917559
0.0917612
0.0917666
0.0917719
0.0917773
0.0917826
0.091788
0.0917933
0.0917987
0.091804
0.0918094
0.0918148
0.0918201
0.0918255
0.0918309
0.0918363
0.0918417
0.0918471
0.0918524
0.0918578
0.0918632
0.0918686
0.091874
0.0918795
0.0918849
0.0918903
0.0918957
0.0919011
0.0919066
0.091912
0.0919174
0.0919228
0.0919283
0.0919337
0.0919392
0.0919446
0.0919501
0.0919555
0.091961
0.0919665
0.0919719
0.0919774
0.0919829
0.0919883
0.0919938
0.0919993
0.0920048
0.0920103
0.0920158
0.0920213
0.0920268
0.0920323
0.0920378
0.0920433
0.0920488
0.0920543
0.0920598
0.0920653
0.0920709
0.0920764
0.0920819
0.0920875
0.092093
0.0920986
0.0921041
0.0921096
0.0921152
0.0921208
0.0921263
0.0921319
0.0921374
0.092143
0.0921486
0.0921542
0.0921597
0.0921653
0.0921709
0.0921765
0.0921821
0.0921877
0.0921933
0.0921989
0.0922045
0.0922101
0.0922157
0.0922213
0.0922269
0.0922326
0.0922382
0.0922438
0.0922494
0.0922551
0.0922607
0.0922664
0.092272
0.0922776
0.0922833
0.092289
0.0922946
0.0923003
0.0923059
0.0923116
0.0923173
0.0923229
0.0923286
0.0923343
0.09234
0.0923457
0.0923513
0.092357
0.0923627
0.0923684
0.0923741
0.0923798
0.0923855
0.0923912
0.0923969
0.0924027
0.0924084
0.0924141
0.0924198
0.0924255
0.0924313
0.092437
0.0924427
0.0924485
0.0924542
0.0924599
0.0924657
0.0924714
0.0924772
0.0924829
0.0924887
0.0924944
0.0925002
0.092506
0.0925117
0.0925175
0.0925233
0.092529
0.0925348
0.0925406
0.0925464
0.0925522
0.0925579
0.0925637
0.0925695
0.0925753
0.0925811
0.0925869
0.0925927
0.0925985
0.0926043
0.0926101
0.0926159
0.0926217
0.0926276
0.0926334
0.0926392
0.092645
0.0926508
0.0926567
0.0926625
0.0926683
0.0926742
0.09268
0.0926858
0.0926917
0.0926975
0.0927034
0.0927092
0.092715
0.0927209
0.0927268
0.0927326
0.0927385
0.0927443
0.0927502
0.0927561
0.0927619
0.0927678
0.0927737
0.0927796
0.0927854
0.0927913
0.0927972
0.0928031
0.092809
0.0928149
0.0928208
0.0928266
0.0928325
0.0928384
0.0928444
0.0928503
0.0928562
0.0928621
0.092868
0.0928739
0.0928798
0.0928858
0.0928917
0.0928976
0.0929036
0.0929095
0.0929154
0.0929214
0.0929273
0.0929333
0.0929392
0.0929452
0.0929511
0.0929571
0.0929631
0.092969
0.092975
0.0929809
0.092987
0.0929929
0.092999
0.0930049
0.093011
0.0930169
0.093023
0.0930289
0.093035
0.0930409
0.0930471
0.0930529
0.0930591
0.093065
0.0930712
0.0930773
0.0930833
0.0930897
0.0930953
0.0931027
0.0931067
0.0931162
0.0931098
0.0931098
0.0931098
1
0.660888
0.446896
0.352881
0.302033
0.269854
0.247506
0.231024
0.218333
0.208232
0.199973
0.193067
0.187184
0.182092
0.177626
0.173664
0.170116
0.166912
0.164
0.161336
0.158888
0.156628
0.154533
0.152586
0.15077
0.149071
0.147479
0.145983
0.144577
0.143253
0.142005
0.140826
0.139712
0.138659
0.137667
0.136732
0.135853
0.135028
0.134256
0.133538
0.132876
0.132271
0.131725
0.131236
0.130798
0.130403
0.130046
0.12972
0.129422
0.129152
0.128907
0.128689
0.128493
0.128318
0.128158
0.12801
0.127872
0.127742
0.127622
0.127512
0.127415
0.127331
0.127262
0.127208
0.127167
0.127138
0.127119
0.127108
0.127102
0.127101
0.127103
0.127106
0.127111
0.127117
0.127123
0.127129
0.127136
0.127142
0.127149
0.127156
0.127163
0.12717
0.127177
0.127184
0.127191
0.127198
0.127205
0.127212
0.127219
0.127226
0.127233
0.12724
0.127248
0.127255
0.127262
0.127269
0.127276
0.127283
0.12729
0.127297
0.127305
0.127312
0.127319
0.127326
0.127333
0.12734
0.127348
0.127355
0.127362
0.127369
0.127376
0.127383
0.127391
0.127398
0.127405
0.127412
0.127419
0.127427
0.127434
0.127441
0.127448
0.127456
0.127463
0.12747
0.127477
0.127485
0.127492
0.127499
0.127506
0.127514
0.127521
0.127528
0.127536
0.127543
0.12755
0.127557
0.127565
0.127572
0.127579
0.127587
0.127594
0.127601
0.127609
0.127616
0.127623
0.127631
0.127638
0.127645
0.127653
0.12766
0.127668
0.127675
0.127682
0.12769
0.127697
0.127704
0.127712
0.127719
0.127727
0.127734
0.127742
0.127749
0.127756
0.127764
0.127771
0.127779
0.127786
0.127794
0.127801
0.127808
0.127816
0.127823
0.127831
0.127838
0.127846
0.127853
0.127861
0.127868
0.127876
0.127883
0.127891
0.127898
0.127906
0.127913
0.127921
0.127928
0.127936
0.127944
0.127951
0.127959
0.127966
0.127974
0.127981
0.127989
0.127996
0.128004
0.128012
0.128019
0.128027
0.128034
0.128042
0.12805
0.128057
0.128065
0.128072
0.12808
0.128088
0.128095
0.128103
0.128111
0.128118
0.128126
0.128134
0.128141
0.128149
0.128157
0.128164
0.128172
0.12818
0.128187
0.128195
0.128203
0.12821
0.128218
0.128226
0.128234
0.128241
0.128249
0.128257
0.128264
0.128272
0.12828
0.128288
0.128295
0.128303
0.128311
0.128319
0.128326
0.128334
0.128342
0.12835
0.128358
0.128365
0.128373
0.128381
0.128389
0.128397
0.128404
0.128412
0.12842
0.128428
0.128436
0.128444
0.128451
0.128459
0.128467
0.128475
0.128483
0.128491
0.128499
0.128506
0.128514
0.128522
0.12853
0.128538
0.128546
0.128554
0.128562
0.128569
0.128577
0.128585
0.128593
0.128601
0.128609
0.128617
0.128625
0.128633
0.128641
0.128649
0.128657
0.128665
0.128673
0.128681
0.128688
0.128696
0.128704
0.128712
0.12872
0.128728
0.128736
0.128744
0.128752
0.12876
0.128768
0.128776
0.128784
0.128792
0.1288
0.128808
0.128816
0.128824
0.128832
0.12884
0.128848
0.128857
0.128865
0.128873
0.128881
0.128889
0.128897
0.128905
0.128913
0.128921
0.128929
0.128937
0.128945
0.128953
0.128961
0.128969
0.128977
0.128986
0.128994
0.129002
0.12901
0.129018
0.129026
0.129034
0.129042
0.12905
0.129059
0.129067
0.129075
0.129083
0.129091
0.129099
0.129107
0.129116
0.129124
0.129132
0.12914
0.129148
0.129156
0.129165
0.129173
0.129181
0.129189
0.129197
0.129205
0.129214
0.129222
0.12923
0.129238
0.129246
0.129255
0.129263
0.129271
0.129279
0.129288
0.129296
0.129304
0.129312
0.129321
0.129329
0.129337
0.129345
0.129354
0.129362
0.12937
0.129378
0.129387
0.129395
0.129403
0.129412
0.12942
0.129428
0.129437
0.129445
0.129453
0.129462
0.12947
0.129478
0.129487
0.129495
0.129503
0.129512
0.12952
0.129528
0.129537
0.129545
0.129554
0.129562
0.129571
0.12958
0.129587
0.129598
0.129603
0.129616
0.129609
0.129609
0.129609
1
0.776803
0.557827
0.446881
0.384106
0.343748
0.315516
0.29461
0.278476
0.265614
0.255089
0.246286
0.238786
0.232294
0.226601
0.221552
0.217032
0.212952
0.209243
0.205853
0.202737
0.199861
0.197196
0.194719
0.192409
0.190249