# vtk DataFile Version 2.0
FlowField
ASCII
DATASET STRUCTURED_GRID
DIMENSIONS 400 1 200
POINTS 80000 float
0 0 0
0.08 0 0
0.16 0 0
0.24 0 0
0.32 0 0
0.4 0 0
0.48 0 0
0.56 0 0
0.64 0 0
0.72 0 0
0.8 0 0
0.88 0 0
0.96 0 0
1.04 0 0
1.12 0 0
1.2 0 0
1.28 0 0
1.36 0 0
1.44 0 0
1.52 0 0
1.6 0 0
1.68 0 0
1.76 0 0
1.84 0 0
1.92 0 0
2 0 0
2.08 0 0
2.16 0 0
2.24 0 0
2.32 0 0
2.4 0 0
2.48 0 0
2.56 0 0
2.64 0 0
2.72 0 0
2.8 0 0
2.88 0 0
2.96 0 0
3.04 0 0
3.12 0 0
3.2 0 0
3.28 0 0
3.36 0 0
3.44 0 0
3.52 0 0
3.6 0 0
3.68 0 0
3.76 0 0
3.84 0 0
3.92 0 0
4 0 0
4.08 0 0
4.16 0 0
4.24 0 0
4.32 0 0
4.4 0 0
4.48 0 0
4.56 0 0
4.64 0 0
4.72 0 0
4.8 0 0
4.88 0 0
4.96 0 0
5.04 0 0
5.12 0 0
5.2 0 0
5.28 0 0
5.36 0 0
5.44 0 0
5.52 0 0
5.6 0 0
5.68 0 0
5.76 0 0
5.84 0 0
5.92 0 0
6 0 0
6.08 0 0
6.16 0 0
6.24 0 0
6.32 0 0
6.4 0 0
6.48 0 0
6.56 0 0
6.64 0 0
6.72 0 0
6.8 0 0
6.88 0 0
6.96 0 0
7.04 0 0
7.12 0 0
7.2 0 0
7.28 0 0
7.36 0 0
7.44 0 0
7.52 0 0
7.6 0 0
7.68 0 0
7.76 0 0
7.84 0 0
7.92 0 0
8 0 0
8.08 0 0
8.16 0 0
8.24 0 0
8.32 0 0
8.4 0 0
8.48 0 0
8.56 0 0
8.64 0 0
8.72 0 0
8.8 0 0
8.88 0 0
8.96 0 0
9.04 0 0
9.12 0 0
9.2 0 0
9.28 0 0
9.36 0 0
9.44 0 0
9.52 0 0
9.6 0 0
9.68 0 0
9.76 0 0
9.84 0 0
9.92 0 0
10 0 0
10.08 0 0
10.16 0 0
10.24 0 0
10.32 0 0
10.4 0 0
10.48 0 0
10.56 0 0
10.64 0 0
10.72 0 0
10.8 0 0
10.88 0 0
10.96 0 0
11.04 0 0
11.12 0 0
11.2 0 0
11.28 0 0
11.36 0 0
11.44 0 0
11.52 0 0
11.6 0 0
11.68 0 0
11.76 0 0
11.84 0 0
11.92 0 0
12 0 0
12.08 0 0
12.16 0 0
12.24 0 0
12.32 0 0
12.4 0 0
12.48 0 0
12.56 0 0
12.64 0 0
12.72 0 0
12.8 0 0
12.88 0 0
12.96 0 0
13.04 0 0
13.12 0 0
13.2 0 0
13.28 0 0
13.36 0 0
13.44 0 0
13.52 0 0
13.6 0 0
13.68 0 0
13.76 0 0
13.84 0 0
13.92 0 0
14 0 0
14.08 0 0
14.16 0 0
14.24 0 0
14.32 0 0
14.4 0 0
14.48 0 0
14.56 0 0
14.64 0 0
14.72 0 0
14.8 0 0
14.88 0 0
14.96 0 0
15.04 0 0
15.12 0 0
15.2 0 0
15.28 0 0
15.36 0 0
15.44 0 0
15.52 0 0
15.6 0 0
15.68 0 0
15.76 0 0
15.84 0 0
15.92 0 0
16 0 0
16.08 0 0
16.16 0 0
16.24 0 0
16.32 0 0
16.4 0 0
16.48 0 0
16.56 0 0
16.64 0 0
16.72 0 0
16.8 0 0
16.88 0 0
16.96 0 0
17.04 0 0
17.12 0 0
17.2 0 0
17.28 0 0
17.36 0 0
17.44 0 0
17.52 0 0
17.6 0 0
17.68 0 0
17.76 0 0
17.84 0 0
17.92 0 0
18 0 0
18.08 0 0
18.16 0 0
18.24 0 0
18.32 0 0
18.4 0 0
18.48 0 0
18.56 0 0
18.64 0 0
18.72 0 0
18.8 0 0
18.88 0 0
18.96 0 0
19.04 0 0
19.12 0 0
19.2 0 0
19.28 0 0
19.36 0 0
19.44 0 0
19.52 0 0
19.6 0 0
19.68 0 0
19.76 0 0
19.84 0 0
19.92 0 0
20 0 0
20.08 0 0
20.16 0 0
20.24 0 0
20.32 0 0
20.4 0 0
20.48 0 0
20.56 0 0
20.64 0 0
20.72 0 0
20.8 0 0
20.88 0 0
20.96 0 0
21.04 0 0
21.12 0 0
21.2 0 0
21.28 0 0
21.36 0 0
21.44 0 0
21.52 0 0
21.6 0 0
21.68 0 0
21.76 0 0
21.84 0 0
21.92 0 0
22 0 0
22.08 0 0
22.16 0 0
22.24 0 0
22.32 0 0
22.4 0 0
22.48 0 0
22.56 0 0
22.64 0 0
22.72 0 0
22.8 0 0
22.88 0 0
22.96 0 0
23.04 0 0
23.12 0 0
23.2 0 0
23.28 0 0
23.36 0 0
23.44 0 0
23.52 0 0
23.6 0 0
23.68 0 0
23.76 0 0
23.84 0 0
23.92 0 0
24 0 0
24.08 0 0
24.16 0 0
24.24 0 0
24.32 0 0
24.4 0 0
24.48 0 0
24.56 0 0
24.64 0 0
24.72 0 0
24.8 0 0
24.88 0 0
24.96 0 0
25.04 0 0
25.12 0 0
25.2 0 0
25.28 0 0
25.36 0 0
25.44 0 0
25.52 0 0
25.6 0 0
25.68 0 0
25.76 0 0
25.84 0 0
25.92 0 0
26 0 0
26.08 0 0
26.16 0 0
26.24 0 0
26.32 0 0
26.4 0 0
26.48 0 0
26.56 0 0
26.64 0 0
26.72 0 0
26.8 0 0
26.88 0 0
26.96 0 0
27.04 0 0
27.12 0 0
27.2 0 0
27.28 0 0
27.36 0 0
27.44 0 0
27.52 0 0
27.6 0 0
27.68 0 0
27.76 0 0
27.84 0 0
27.92 0 0
28 0 0
28.08 0 0
28.16 0 0
28.24 0 0
28.32 0 0
28.4 0 0
28.48 0 0
28.56 0 0
28.64 0 0
28.72 0 0
28.8 0 0
28.88 0 0
28.96 0 0
29.04 0 0
29.12 0 0
29.2 0 0
29.28 0 0
29.36 0 0
29.44 0 0
29.52 0 0
29.6 0 0
29.68 0 0
29.76 0 0
29.84 0 0
29.92 0 0
30 0 0
30.08 0 0
30.16 0 0
30.24 0 0
30.32 0 0
30.4 0 0
30.48 0 0
30.56 0 0
30.64 0 0
30.72 0 0
30.8 0 0
30.88 0 0
30.96 0 0
31.04 0 0
31.12 0 0
31.2 0 0
31.28 0 0
31.36 0 0
31.44 0 0
31.52 0 0
31.6 0 0
31.68 0 0
31.76 0 0
31.84 0 0
31.92 0 0
0 0.005 0
0.08 0.005 0
0.16 0.005 0
0.24 0.005 0
0.32 0.005 0
0.4 0.005 0
0.48 0.005 0
0.56 0.005 0
0.64 0.005 0
0.72 0.005 0
0.8 0.005 0
0.88 0.005 0
0.96 0.005 0
1.04 0.005 0
1.12 0.005 0
1.2 0.005 0
1.28 0.005 0
1.36 0.005 0
1.44 0.005 0
1.52 0.005 0
1.6 0.005 0
1.68 0.005 0
1.76 0.005 0
1.84 0.005 0
1.92 0.005 0
2 0.005 0
2.08 0.005 0
2.16 0.005 0
2.24 0.005 0
2.32 0.005 0
2.4 0.005 0
2.48 0.005 0
2.56 0.005 0
2.64 0.005 0
2.72 0.005 0
2.8 0.005 0
2.88 0.005 0
2.96 0.005 0
3.04 0.005 0
3.12 0.005 0
3.2 0.005 0
3.28 0.005 0
3.36 0.005 0
3.44 0.005 0
3.52 0.005 0
3.6 0.005 0
3.68 0.005 0
3.76 0.005 0
3.84 0.005 0
3.92 0.005 0
4 0.005 0
4.08 0.005 0
4.16 0.005 0
4.24 0.005 0
4.32 0.005 0
4.4 0.005 0
4.48 0.005 0
4.56 0.005 0
4.64 0.005 0
4.72 0.005 0
4.8 0.005 0
4.88 0.005 0
4.96 0.005 0
5.04 0.005 0
5.12 0.005 0
5.2 0.005 0
5.28 0.005 0
5.36 0.005 0
5.44 0.005 0
5.52 0.005 0
5.6 0.005 0
5.68 0.005 0
5.76 0.005 0
5.84 0.005 0
5.92 0.005 0
6 0.005 0
6.08 0.005 0
6.16 0.005 0
6.24 0.005 0
6.32 0.005 0
6.4 0.005 0
6.48 0.005 0
6.56 0.005 0
6.64 0.005 0
6.72 0.005 0
6.8 0.005 0
6.88 0.005 0
6.96 0.005 0
7.04 0.005 0
7.12 0.005 0
7.2 0.005 0
7.28 0.005 0
7.36 0.005 0
7.44 0.005 0
7.52 0.005 0
7.6 0.005 0
7.68 0.005 0
7.76 0.005 0
7.84 0.005 0
7.92 0.005 0
8 0.005 0
8.08 0.005 0
8.16 0.005 0
8.24 0.005 0
8.32 0.005 0
8.4 0.005 0
8.48 0.005 0
8.56 0.005 0
8.64 0.005 0
8.72 0.005 0
8.8 0.005 0
8.88 0.005 0
8.96 0.005 0
9.04 0.005 0
9.12 0.005 0
9.2 0.005 0
9.28 0.005 0
9.36 0.005 0
9.44 0.005 0
9.52 0.005 0
9.6 0.005 0
9.68 0.005 0
9.76 0.005 0
9.84 0.005 0
9.92 0.005 0
10 0.005 0
10.08 0.005 0
10.16 0.005 0
10.24 0.005 0
10.32 0.005 0
10.4 0.005 0
10.48 0.005 0
10.56 0.005 0
10.64 0.005 0
10.72 0.005 0
10.8 0.005 0
10.88 0.005 0
10.96 0.005 0
11.04 0.005 0
11.12 0.005 0
11.2 0.005 0
11.28 0.005 0
11.36 0.005 0
11.44 0.005 0
11.52 0.005 0
11.6 0.005 0
11.68 0.005 0
11.76 0.005 0
11.84 0.005 0
11.92 0.005 0
12 0.005 0
12.08 0.005 0
12.16 0.005 0
12.24 0.005 0
12.32 0.005 0
12.4 0.005 0
12.48 0.005 0
12.56 0.005 0
12.64 0.005 0
12.72 0.005 0
12.8 0.005 0
12.88 0.005 0
12.96 0.005 0
13.04 0.005 0
13.12 0.005 0
13.2 0.005 0
13.28 0.005 0
13.36 0.005 0
13.44 0.005 0
13.52 0.005 0
13.6 0.005 0
13.68 0.005 0
13.76 0.005 0
13.84 0.005 0
13.92 0.005 0
14 0.005 0
14.08 0.005 0
14.16 0.005 0
14.24 0.005 0
14.32 0.005 0
14.4 0.005 0
14.48 0.005 0
14.56 0.005 0
14.64 0.005 0
14.72 0.005 0
14.8 0.005 0
14.88 0.005 0
14.96 0.005 0
15.04 0.005 0
15.12 0.005 0
15.2 0.005 0
15.28 0.005 0
15.36 0.005 0
15.44 0.005 0
15.52 0.005 0
15.6 0.005 0
15.68 0.005 0
15.76 0.005 0
15.84 0.005 0
15.92 0.005 0
16 0.005 0
16.08 0.005 0
16.16 0.005 0
16.24 0.005 0
16.32 0.005 0
16.4 0.005 0
16.48 0.005 0
16.56 0.005 0
16.64 0.005 0
16.72 0.005 0
16.8 0.005 0
16.88 0.005 0
16.96 0.005 0
17.04 0.005 0
17.12 0.005 0
17.2 0.005 0
17.28 0.005 0
17.36 0.005 0
17.44 0.005 0
17.52 0.005 0
17.6 0.005 0
17.68 0.005 0
17.76 0.005 0
17.84 0.005 0
17.92 0.005 0
18 0.005 0
18.08 0.005 0
18.16 0.005 0
18.24 0.005 0
18.32 0.005 0
18.4 0.005 0
18.48 0.005 0
18.56 0.005 0
18.64 0.005 0
18.72 0.005 0
18.8 0.005 0
18.88 0.005 0
18.96 0.005 0
19.04 0.005 0
19.12 0.005 0
19.2 0.005 0
19.28 0.005 0
19.36 0.005 0
19.44 0.005 0
19.52 0.005 0
19.6 0.005 0
19.68 0.005 0
19.76 0.005 0
19.84 0.005 0
19.92 0.005 0
20 0.005 0
20.08 0.005 0
20.16 0.005 0
20.24 0.005 0
20.32 0.005 0
20.4 0.005 0
20.48 0.005 0
20.56 0.005 0
20.64 0.005 0
20.72 0.005 0
20.8 0.005 0
20.88 0.005 0
20.96 0.005 0
21.04 0.005 0
21.12 0.005 0
21.2 0.005 0
21.28 0.005 0
21.36 0.005 0
21.44 0.005 0
21.52 0.005 0
21.6 0.005 0
21.68 0.005 0
21.76 0.005 0
21.84 0.005 0
21.92 0.005 0
22 0.005 0
22.08 0.005 0
22.16 0.005 0
22.24 0.005 0
22.32 0.005 0
22.4 0.005 0
22.48 0.005 0
22.56 0.005 0
22.64 0.005 0
22.72 0.005 0
22.8 0.005 0
22.88 0.005 0
22.96 0.005 0
23.04 0.005 0
23.12 0.005 0
23.2 0.005 0
23.28 0.005 0
23.36 0.005 0
23.44 0.005 0
23.52 0.005 0
23.6 0.005 0
23.68 0.005 0
23.76 0.005 0
23.84 0.005 0
23.92 0.005 0
24 0.005 0
24.08 0.005 0
24.16 0.005 0
24.24 0.005 0
24.32 0.005 0
24.4 0.005 0
24.48 0.005 0
24.56 0.005 0
24.64 0.005 0
24.72 0.005 0
24.8 0.005 0
24.88 0.005 0
24.96 0.005 0
25.04 0.005 0
25.12 0.005 0
25.2 0.005 0
25.28 0.005 0
25.36 0.005 0
25.44 0.005 0
25.52 0.005 0
25.6 0.005 0
25.68 0.005 0
25.76 0.005 0
25.84 0.005 0
25.92 0.005 0
26 0.005 0
26.08 0.005 0
26.16 0.005 0
26.24 0.005 0
26.32 0.005 0
26.4 0.005 0
26.48 0.005 0
26.56 0.005 0
26.64 0.005 0
26.72 0.005 0
26.8 0.005 0
26.88 0.005 0
26.96 0.005 0
27.04 0.005 0
27.12 0.005 0
27.2 0.005 0
27.28 0.005 0
27.36 0.005 0
27.44 0.005 0
27.52 0.005 0
27.6 0.005 0
27.68 0.005 0
27.76 0.005 0
27.84 0.005 0
27.92 0.005 0
28 0.005 0
28.08 0.005 0
28.16 0.005 0
28.24 0.005 0
28.32 0.005 0
28.4 0.005 0
28.48 0.005 0
28.56 0.005 0
28.64 0.005 0
28.72 0.005 0
28.8 0.005 0
28.88 0.005 0
28.96 0.005 0
29.04 0.005 0
29.12 0.005 0
29.2 0.005 0
29.28 0.005 0
29.36 0.005 0
29.44 0.005 0
29.52 0.005 0
29.6 0.005 0
29.68 0.005 0
29.76 0.005 0
29.84 0.005 0
29.92 0.005 0
30 0.005 0
30.08 0.005 0
30.16 0.005 0
30.24 0.005 0
30.32 0.005 0
30.4 0.005 0
30.48 0.005 0
30.56 0.005 0
30.64 0.005 0
30.72 0.005 0
30.8 0.005 0
30.88 0.005 0
30.96 0.005 0
31.04 0.005 0
31.12 0.005 0
31.2 0.005 0
31.28 0.005 0
31.36 0.005 0
31.44 0.005 0
31.52 0.005 0
31.6 0.005 0
31.68 0.005 0
31.76 0.005 0
31.84 0.005 0
31.92 0.005 0
0 0.01 0
0.08 0.01 0
0.16 0.01 0
0.24 0.01 0
0.32 0.01 0
0.4 0.01 0
0.48 0.01 0
0.56 0.01 0
0.64 0.01 0
0.72 0.01 0
0.8 0.01 0
0.88 0.01 0
0.96 0.01 0
1.04 0.01 0
1.12 0.01 0
1.2 0.01 0
1.28 0.01 0
1.36 0.01 0
1.44 0.01 0
1.52 0.01 0
1.6 0.01 0
1.68 0.01 0
1.76 0.01 0
1.84 0.01 0
1.92 0.01 0
2 0.01 0
2.08 0.01 0
2.16 0.01 0
2.24 0.01 0
2.32 0.01 0
2.4 0.01 0
2.48 0.01 0
2.56 0.01 0
2.64 0.01 0
2.72 0.01 0
2.8 0.01 0
2.88 0.01 0
2.96 0.01 0
3.04 0.01 0
3.12 0.01 0
3.2 0.01 0
3.28 0.01 0
3.36 0.01 0
3.44 0.01 0
3.52 0.01 0
3.6 0.01 0
3.68 0.01 0
3.76 0.01 0
3.84 0.01 0
3.92 0.01 0
4 0.01 0
4.08 0.01 0
4.16 0.01 0
4.24 0.01 0
4.32 0.01 0
4.4 0.01 0
4.48 0.01 0
4.56 0.01 0
4.64 0.01 0
4.72 0.01 0
4.8 0.01 0
4.88 0.01 0
4.96 0.01 0
5.04 0.01 0
5.12 0.01 0
[...]
POINT_DATA 80000

SCALARS p float 1
LOOKUP_TABLE default
1
56.8583
56.5565
56.5152
56.495
56.4805
56.4684
56.4576
56.4476
56.4381
56.4289
56.4202
56.4118
56.4041
56.3969
56.3902
56.3838
56.3776
56.3715
56.3655
56.3596
56.3539
56.3483
56.3427
56.3372
56.3318
56.3263
56.3208
56.3154
56.3099
56.3044
56.2989
56.2934
56.288
56.2825
56.277
56.2716
56.2661
56.2607
56.2552
56.2498
56.2444
56.2389
56.2335
56.2281
56.2227
56.2173
56.2119
56.2065
56.2011
56.1958
56.1904
56.185
56.1797
56.1743
56.169
56.1636
56.1583
56.153
56.1477
56.1423
56.137
56.1317
56.1264
56.1212
56.1159
56.1106
56.1053
56.1001
56.0948
56.0895
56.0843
56.0791
56.0738
56.0686
56.0634
56.0582
56.053
56.0478
56.0426
56.0374
56.0322
56.027
56.0218
56.0167
56.0115
56.0064
56.0012
55.9961
55.991
55.9858
55.9807
55.9756
55.9705
55.9654
55.9603
55.9552
55.9502
55.9451
55.94
55.935
55.9299
55.9249
55.9198
55.9148
55.9098
55.9048
55.8998
55.8948
55.8898
55.8848
55.8798
55.8748
55.8699
55.8649
55.86
55.855
55.8501
55.8452
55.8402
55.8353
55.8304
55.8255
55.8206
55.8157
55.8109
55.806
55.8011
55.7963
55.7914
55.7866
55.7818
55.7769
55.7721
55.7673
55.7625
55.7577
55.7529
55.7482
55.7434
55.7386
55.7339
55.7291
55.7244
55.7197
55.715
55.7103
55.7056
55.7009
55.6962
55.6915
55.6869
55.6822
55.6776
55.6729
55.6683
55.6637
55.6591
55.6545
55.6499
55.6453
55.6407
55.6361
55.6316
55.627
55.6225
55.618
55.6135
55.609
55.6045
55.6
55.5955
55.591
55.5866
55.5821
55.5777
55.5733
55.5689
55.5645
55.5601
55.5557
55.5513
55.5469
55.5426
55.5383
55.5339
55.5296
55.5253
55.521
55.5167
55.5125
55.5082
55.504
55.4997
55.4955
55.4913
55.4871
55.4829
55.4788
55.4746
55.4705
55.4663
55.4622
55.4581
55.454
55.4499
55.4459
55.4418
55.4378
55.4337
55.4297
55.4257
55.4218
55.4178
55.4138
55.4099
55.406
55.4021
55.3982
55.3943
55.3904
55.3866
55.3828
55.379
55.3752
55.3714
55.3676
55.3639
55.3601
55.3564
55.3527
55.3491
55.3454
55.3418
55.3382
55.3345
55.331
55.3274
55.3239
55.3203
55.3168
55.3133
55.3099
55.3064
55.303
55.2996
55.2962
55.2929
55.2895
55.2862
55.2829
55.2797
55.2764
55.2732
55.27
55.2668
55.2637
55.2606
55.2575
55.2544
55.2514
55.2484
55.2454
55.2424
55.2395
55.2366
55.2338
55.2309
55.2281
55.2253
55.2226
55.2199
55.2172
55.2146
55.212
55.2094
55.2069
55.2044
55.202
55.1996
55.1972
55.1949
55.1926
55.1904
55.1882
55.1861
55.184
55.182
55.18
55.1781
55.1763
55.1745
55.1727
55.1711
55.1695
55.1679
55.1664
55.1651
55.1637
55.1625
55.1613
55.1603
55.1593
55.1584
55.1576
55.1569
55.1563
55.1558
55.1554
55.1552
55.155
55.155
55.1551
55.1554
55.1557
55.1563
55.1569
55.1578
55.1588
55.1599
55.1612
55.1627
55.1644
55.1663
55.1684
55.1707
55.1732
55.1759
55.1789
55.1821
55.1855
55.1892
55.1931
55.1974
55.2019
55.2066
55.2117
55.2171
55.2229
55.2289
55.2353
55.242
55.2491
55.2566
55.2644
55.2727
55.2813
55.2904
55.2999
55.3099
55.3203
55.3311
55.3425
55.3544
55.3667
55.3796
55.393
55.407
55.4215
55.4366
55.4523
55.4686
55.4856
55.5032
55.5214
55.5403
55.5598
55.5801
55.6011
55.6228
55.6452
55.6684
55.6923
55.717
55.7425
55.7688
55.7959
55.8239
55.8526
55.8823
55.9127
55.944
55.9762
56.0092
56.0431
56.0779
56.1136
56.1501
56.1876
56.2259
56.265
56.3051
56.346
56.3878
56.4304
56.4739
56.5182
56.5633
56.6097
0.5
56.8583
56.8583
56.5565
56.5152
56.495
56.4805
56.4684
56.4576
56.4476
56.4381
56.4289
56.4202
56.4118
56.4041
56.3969
56.3902
56.3838
56.3776
56.3715
56.3655
56.3596
56.3539
56.3483
56.3427
56.3372
56.3318
56.3263
56.3208
56.3154
56.3099
56.3044
56.2989
56.2934
56.288
56.2825
56.277
56.2716
56.2661
56.2607
56.2552
56.2498
56.2444
56.2389
56.2335
56.2281
56.2227
56.2173
56.2119
56.2065
56.2011
56.1958
56.1904
56.185
56.1797
56.1743
56.169
56.1636
56.1583
56.153
56.1477
56.1423
56.137
56.1317
56.1264
56.1212
56.1159
56.1106
56.1053
56.1001
56.0948
56.0895
56.0843
56.0791
56.0738
56.0686
56.0634
56.0582
56.053
56.0478
56.0426
56.0374
56.0322
56.027
56.0218
56.0167
56.0115
56.0064
56.0012
55.9961
55.991
55.9858
55.9807
55.9756
55.9705
55.9654
55.9603
55.9552
55.9502
55.9451
55.94
55.935
55.9299
55.9249
55.9198
55.9148
55.9098
55.9048
55.8998
55.8948
55.8898
55.8848
55.8798
55.8748
55.8699
55.8649
55.86
55.855
55.8501
55.8452
55.8402
55.8353
55.8304
55.8255
55.8206
55.8157
55.8109
55.806
55.8011
55.7963
55.7914
55.7866
55.7818
55.7769
55.7721
55.7673
55.7625
55.7577
55.7529
55.7482
55.7434
55.7386
55.7339
55.7291
55.7244
55.7197
55.715
55.7103
55.7056
55.7009
55.6962
55.6915
55.6869
55.6822
55.6776
55.6729
55.6683
55.6637
55.6591
55.6545
55.6499
55.6453
55.6407
55.6361
55.6316
55.627
55.6225
55.618
55.6135
55.609
55.6045
55.6
55.5955
55.591
55.5866
55.5821
55.5777
55.5733
55.5689
55.5645
55.5601
55.5557
55.5513
55.5469
55.5426
55.5383
55.5339
55.5296
55.5253
55.521
55.5167
55.5125
55.5082
55.504
55.4997
55.4955
55.4913
55.4871
55.4829
55.4788
55.4746
55.4705
55.4663
55.4622
55.4581
55.454
55.4499
55.4459
55.4418
55.4378
55.4337
55.4297
55.4257
55.4218
55.4178
55.4138
55.4099
55.406
55.4021
55.3982
55.3943
55.3904
55.3866
55.3828
55.379
55.3752
55.3714
55.3676
55.3639
55.3601
55.3564
55.3527
55.3491
55.3454
55.3418
55.3382
55.3345
55.331
55.3274
55.3239
55.3203
55.3168
55.3133
55.3099
55.3064
55.303
55.2996
55.2962
55.2929
55.2895
55.2862
55.2829
55.2797
55.2764
55.2732
55.27
55.2668
55.2637
55.2606
55.2575
55.2544
55.2514
55.2484
55.2454
55.2424
55.2395
55.2366
55.2338
55.2309
55.2281
55.2253
55.2226
55.2199
55.2172
55.2146
55.212
55.2094
55.2069
55.2044
55.202
55.1996
55.1972
55.1949
55.1926
55.1904
55.1882
55.1861
55.184
55.182
55.18
55.1781
55.1763
55.1745
55.1727
55.1711
55.1695
55.1679
55.1664
55.1651
55.1637
55.1625
55.1613
55.1603
55.1593
55.1584
55.1576
55.1569
55.1563
55.1558
55.1554
55.1552
55.155
55.155
55.1551
55.1554
55.1557
55.1563
55.1569
55.1578
55.1588
55.1599
55.1612
55.1627
55.1644
55.1663
55.1684
55.1707
55.1732
55.1759
55.1789
55.1821
55.1855
55.1892
55.1931
55.1974
55.2019
55.2066
55.2117
55.2171
55.2229
55.2289
55.2353
55.242
55.2491
55.2566
55.2644
55.2727
55.2813
55.2904
55.2999
55.3099
55.3203
55.3311
55.3425
55.3544
55.3667
55.3796
55.393
55.407
55.4215
55.4366
55.4523
55.4686
55.4856
55.5032
55.5214
55.5403
55.5598
55.5801
55.6011
55.6228
55.6452
55.6684
55.6923
55.717
55.7425
55.7688
55.7959
55.8239
55.8526
55.8823
55.9127
55.944
55.9762
56.0092
56.0431
56.0779
56.1136
56.1501
56.1876
56.2259
56.265
56.3051
56.346
56.3878
56.4304
56.4739
56.5182
56.5633
56.6097
56.6097
56.8437
56.8437
56.5603
56.5164
56.4956
56.4809
56.4687
56.4578
56.4477
56.4382
56.429
56.4202
56.4119
56.4041
56.3969
56.3902
56.3838
56.3776
56.3715
56.3655
56.3596
56.3539
56.3483
56.3427
56.3372
56.3318
56.3263
56.3208
56.3154
56.3099
56.3044
56.2989
56.2934
56.288
56.2825
56.277
56.2716
56.2661
56.2607
56.2552
56.2498
56.2444
56.2389
56.2335
56.2281
56.2227
56.2173
56.2119
56.2065
56.2011
56.1958
56.1904
56.185
56.1797
56.1743
56.169
56.1636
56.1583
56.153
56.1477
56.1423
56.137
56.1317
56.1264
56.1212
56.1159
56.1106
56.1053
56.1001
56.0948
56.0895
56.0843
56.0791
56.0738
56.0686
56.0634
56.0582
56.053
56.0478
56.0426
56.0374
56.0322
56.027
56.0218
56.0167
56.0115
56.0064
56.0012
55.9961
55.991
55.9858
55.9807
55.9756
55.9705
55.9654
55.9603
55.9552
55.9502
55.9451
55.94
55.935
55.9299
55.9249
55.9198
55.9148
55.9098
55.9048
55.8998
55.8948
55.8898
55.8848
55.8798
55.8748
55.8699
55.8649
55.86
55.855
55.8501
55.8451
55.8402
55.8353
55.8304
55.8255
55.8206
55.8157
55.8109
55.806
55.8011
55.7963
55.7914
55.7866
55.7818
55.7769
55.7721
55.7673
55.7625
55.7577
55.7529
55.7482
55.7434
55.7386
55.7339
55.7291
55.7244
55.7197
55.715
55.7103
55.7056
55.7009
55.6962
55.6915
55.6869
55.6822
55.6775
55.6729
55.6683
55.6637
55.6591
55.6544
55.6499
55.6453
55.6407
55.6361
55.6316
55.627
55.6225
55.618
55.6135
55.609
55.6045
55.6
55.5955
55.591
55.5866
55.5821
55.5777
55.5733
55.5689
55.5644
55.5601
55.5557
55.5513
55.5469
55.5426
55.5383
55.5339
55.5296
55.5253
55.521
55.5167
55.5125
55.5082
55.504
55.4997
55.4955
55.4913
55.4871
55.4829
55.4788
55.4746
55.4704
55.4663
55.4622
55.4581
55.454
55.4499
55.4458
55.4418
55.4378
55.4337
55.4297
55.4257
55.4217
55.4178
55.4138
55.4099
55.406
55.4021
55.3982
55.3943
55.3904
55.3866
55.3828
55.379
55.3752
55.3714
55.3676
55.3639
55.3601
55.3564
55.3527
55.3491
55.3454
55.3418
55.3381
55.3345
55.331
55.3274
55.3239
55.3203
55.3168
55.3133
55.3099
55.3064
55.303
55.2996
55.2962
55.2929
55.2895
55.2862
55.2829
55.2797
55.2764
55.2732
55.27
55.2668
55.2637
55.2606
55.2575
55.2544
55.2514
55.2484
55.2454
55.2424
55.2395
55.2366
55.2337
55.2309
55.2281
55.2253
55.2226
55.2199
55.2172
55.2146
55.212
55.2094
55.2069
55.2044
55.202
55.1996
55.1972
55.1949
55.1926
55.1904
55.1882
55.1861
55.184
55.182
55.18
55.1781
55.1763
55.1745
55.1727
55.1711
55.1694
55.1679
55.1664
55.165
55.1637
55.1625
55.1613
55.1603
55.1593
55.1584
55.1576
55.1569
55.1563
55.1558
55.1554
55.1552
55.155
55.155
55.1551
55.1554
55.1557
55.1563
55.1569
55.1578
55.1588
55.1599
55.1612
55.1627
55.1644
55.1663
55.1684
55.1707
55.1732
55.1759
55.1789
55.1821
55.1855
55.1892
55.1931
55.1973
55.2019
55.2066
55.2117
55.2171
55.2229
55.2289
55.2353
55.242
55.2491
55.2566
55.2644
55.2727
55.2813
55.2904
55.2999
55.3099
55.3203
55.3311
55.3425
55.3543
55.3667
55.3796
55.393
55.407
55.4215
55.4366
55.4523
55.4686
55.4856
55.5031
55.5214
55.5403
55.5598
55.5801
55.6011
55.6227
55.6452
55.6684
55.6923
55.717
55.7425
55.7688
55.7959
55.8239
55.8526
55.8822
55.9127
55.944
55.9762
56.0092
56.0431
56.0779
56.1136
56.1501
56.1875
56.2258
56.265
56.305
56.346
56.3877
56.4303
56.4738
56.5181
56.5632
56.6096
56.6096
56.8277
56.8277
56.5635
56.5176
56.4963
56.4813
56.469
56.458
56.4479
56.4383
56.4291
56.4203
56.412
56.4042
56.397
56.3902
56.3838
56.3776
56.3715
56.3655
56.3596
56.3539
56.3483
56.3427
56.3372
56.3318
56.3263
56.3208
56.3154
56.3099
56.3044
56.2989
56.2934
56.288
56.2825
56.277
56.2716
56.2661
56.2607
56.2552
56.2498
56.2444
56.2389
56.2335
56.2281
56.2227
56.2173
56.2119
56.2065
56.2011
56.1958
56.1904
56.185
56.1797
56.1743
56.169
56.1636
56.1583
56.153
56.1477
56.1423
56.137
56.1317
56.1264
56.1212
56.1159
56.1106
56.1053
56.1001
56.0948
56.0895
56.0843
56.0791
56.0738
56.0686
56.0634
56.0582
56.053
56.0478
56.0426
56.0374
56.0322
56.027
56.0218
56.0167
56.0115
56.0064
56.0012
55.9961
55.991
55.9858
55.9807
55.9756
55.9705
55.9654
55.9603
55.9552
55.9502
55.9451
55.94
55.935
55.9299
55.9249
55.9198
55.9148
55.9098
55.9048
55.8998
55.8948
55.8898
55.8848
55.8798
55.8748
55.8699
55.8649
55.86
55.855
55.8501
55.8451
55.8402
55.8353
55.8304
55.8255
55.8206
55.8157
55.8109
55.806
55.8011
55.7963
55.7914
55.7866
55.7818
55.7769
55.7721
55.7673
55.7625
55.7577
55.7529
55.7482
55.7434
55.7386
55.7339
55.7291
55.7244
55.7197
55.715
55.7103
55.7056
55.7009
55.6962
55.6915
55.6869
55.6822
55.6775
55.6729
55.6683
55.6637
55.6591
55.6544
55.6499
55.6453
55.6407
55.6361
55.6316
55.627
55.6225
55.618
55.6135
55.609
55.6045
55.6
55.5955
55.591
55.5866
55.5821
55.5777
55.5733
55.5689
55.5644
55.5601
55.5557
55.5513
55.5469
55.5426
55.5383
55.5339
55.5296
55.5253
55.521
55.5167
55.5125
55.5082
55.504
55.4997
55.4955
55.4913
55.4871
55.4829
55.4788
55.4746
55.4704
55.4663
55.4622
55.4581
55.454
55.4499
55.4458
55.4418
55.4378
55.4337
55.4297
55.4257
55.4217
55.4178
55.4138
55.4099
55.406
55.4021
55.3982
55.3943
55.3904
55.3866
55.3828
55.379
55.3752
55.3714
55.3676
55.3639
55.3601
55.3564
55.3527
55.3491
55.3454
55.3418
55.3381
55.3345
55.331
55.3274
55.3239
55.3203
55.3168
55.3133
55.3099
55.3064
55.303
55.2996
55.2962
55.2929
55.2895
55.2862
55.2829
55.2797
55.2764
55.2732
55.27
55.2668
55.2637
55.2606
55.2575
55.2544
55.2514
55.2484
55.2454
55.2424
55.2395
55.2366
55.2337
55.2309
55.2281
55.2253
55.2226
55.2199
55.2172
55.2146
55.212
55.2094
55.2069
55.2044
55.202
55.1996
55.1972
55.1949
55.1926
55.1904
55.1882
55.1861
55.184
55.182
55.18
55.1781
55.1763
55.1745
55.1727
55.1711
55.1694
55.1679
55.1664
55.1651
55.1637
55.1625
55.1613
55.1603
55.1593
55.1584
55.1576
55.1569
55.1563
55.1558
55.1554
55.1552
55.155
55.155
55.1551
55.1554
55.1557
55.1563
55.1569
55.1578
55.1588
55.1599
55.1612
55.1627
55.1644
55.1663
55.1684
55.1707
55.1732
55.1759
55.1789
55.1821
55.1855
55.1892
55.1931
55.1974
55.2019
55.2066
55.2117
55.2171
55.2229
55.2289
55.2353
55.242
55.2491
55.2566
55.2644
55.2727
55.2813
55.2904
55.2999
55.3099
55.3203
55.3311
55.3425
55.3544
55.3667
55.3796
55.393
55.407
55.4215
55.4366
55.4523
55.4686
55.4856
55.5032
55.5214
55.5403
55.5598
55.5801
55.6011
55.6228
55.6452
55.6684
55.6923
55.717
55.7425
55.7688
55.7959
55.8239
55.8526
55.8822
55.9127
55.944
55.9762
56.0092
56.0431
56.0779
56.1136
56.1501
56.1875
56.2258
56.265
56.3051
56.346
56.3877
56.4303
56.4738
56.5181
56.5632
56.6096
56.6096
56.8118
56.8118
56.5664
56.5188
56.4969
56.4817
56.4692
56.4582
56.448
56.4384
56.4292
56.4204
56.412
56.4042
56.397
56.3903
56.3838
56.3776
56.3715
56.3655
56.3596
56.3539
56.3483
56.3427
56.3372
56.3318
56.3263
56.3208
56.3154
56.3099
56.3044
56.2989
56.2934
56.288
56.2825
56.277
56.2716
56.2661
56.2607
56.2552
56.2498
56.2444
56.2389
56.2335
56.2281
56.2227
56.2173
56.2119
56.2065
56.2011
56.1958
56.1904
56.185
56.1797
56.1743
56.169
56.1636
56.1583
56.153
56.1477
56.1423
56.137
56.1317
56.1264
56.1212
56.1159
56.1106
56.1053
56.1001
56.0948
56.0895
56.0843
56.0791
56.0738
56.0686
56.0634
56.0582
56.053
56.0478
56.0426
56.0374
56.0322
56.027
56.0218
56.0167
56.0115
56.0064
56.0012
55.9961
55.991
55.9858
55.9807
55.9756
55.9705
55.9654
55.9603
55.9552
55.9502
55.9451
55.94
55.935
55.9299
55.9249
55.9198
55.9148
55.9098
55.9048
55.8998
55.8948
55.8898
55.8848
55.8798
55.8748
55.8699
55.8649
55.86
55.855
55.8501
55.8451
55.8402
55.8353
55.8304
55.8255
55.8206
55.8157
55.8109
55.806
55.8011
55.7963
55.7914
55.7866
55.7818
55.7769
55.7721
55.7673
55.7625
55.7577
55.7529
55.7482
55.7434
55.7386
55.7339
55.7291
55.7244
55.7197
55.715
55.7103
55.7056
55.7009
55.6962
55.6915
55.6869
55.6822
55.6775
55.6729
55.6683
55.6637
55.6591
55.6544
55.6499
55.6453
55.6407
55.6361
55.6316
55.627
55.6225
55.618
55.6135
55.609
55.6045
55.6
55.5955
55.591
55.5866
55.5821
55.5777
55.5733
55.5689
55.5644
55.5601
55.5557
55.5513
55.5469
55.5426
55.5383
55.5339
55.5296
55.5253
55.521
55.5167
55.5125
55.5082
55.504
55.4997
55.4955
55.4913
55.4871
55.4829
55.4788
55.4746
55.4704
55.4663
55.4622
55.4581
55.454
55.4499
55.4458
55.4418
55.4378
55.4337
55.4297
55.4257
55.4217
55.4178
55.4138
55.4099
55.406
55.4021
55.3982
55.3943
55.3904
55.3866
55.3828
55.379
55.3752
55.3714
55.3676
55.3639
55.3601
55.3564
55.3527
55.3491
55.3454
55.3418
55.3381
55.3345
55.331
55.3274
55.3239
55.3203
55.3168
55.3133
55.3099
55.3064
55.303
55.2996
55.2962
55.2929
55.2895
55.2862
55.2829
55.2797
55.2764
55.2732
55.27
55.2668
55.2637
55.2606
55.2575
55.2544
55.2514
55.2484
55.2454
55.2424
55.2395
55.2366
55.2337
55.2309
55.2281
55.2253
55.2226
55.2199
55.2172
55.2146
55.212
55.2094
55.2069
55.2044
55.202
55.1996
55.1972
55.1949
55.1926
55.1904
55.1882
55.1861
55.184
55.182
55.18
55.1781
55.1763
55.1745
55.1727
55.1711
55.1694
55.1679
55.1664
55.1651
55.1637
55.1625
55.1613
55.1603
55.1593
55.1584
55.1576
55.1569
55.1563
55.1558
55.1554
55.1552
55.155
55.155
55.1551
55.1554
55.1557
55.1563
55.1569
55.1578
55.1588
55.1599
55.1612
55.1627
55.1644
55.1663
55.1684
55.1707
55.1732
55.1759
55.1789
55.1821
55.1855
55.1892
55.1931
55.1974
55.2019
55.2067
55.2117
55.2171
55.2229
55.2289
55.2353
55.242
55.2491
55.2566
55.2645
55.2727
55.2814
55.2904
55.2999
55.3099
55.3203
55.3312
55.3425
55.3544
55.3667
55.3796
55.393
55.407
55.4215
55.4366
55.4523
55.4687
55.4856
55.5032
55.5214
55.5403
55.5598
55.5801
55.6011
55.6228
55.6452
55.6684
55.6923
55.717
55.7425
55.7688
55.7959
55.8239
55.8526
55.8822
55.9127
55.944
55.9762
56.0092
56.0431
56.0779
56.1136
56.1501
56.1875
56.2258
56.265
56.3051
56.346
56.3877
56.4304
56.4738
56.5181
56.5632
56.6096
56.6096
56.7967
56.7967
56.5691
56.5199
56.4975
56.482
56.4695
56.4584
56.4482
56.4385
56.4293
56.4205
56.4121
56.4043
56.397
56.3903
56.3839
56.3776
56.3715
56.3655
56.3596
56.3539
56.3483
56.3427
56.3372
56.3318
56.3263
56.3208
56.3154
56.3099
56.3044
56.2989
56.2934
56.288
56.2825
56.277
56.2716
56.2661
56.2607
56.2552
56.2498
56.2443
56.2389
56.2335
56.2281
56.2227
56.2173
56.2119
56.2065
56.2011
56.1958
56.1904
56.185
56.1797
56.1743
56.169
56.1636
56.1583
56.153
56.1477
56.1423
56.137
56.1317
56.1264
56.1212
56.1159
56.1106
56.1053
56.1001
56.0948
56.0895
56.0843
56.0791
56.0738
56.0686
56.0634
56.0582
56.053
56.0478
56.0426
56.0374
56.0322
56.027
56.0218
56.0167
56.0115
56.0064
56.0012
55.9961
55.991
55.9858
55.9807
55.9756
55.9705
55.9654
55.9603
55.9552
55.9502
55.9451
55.94
55.935
55.9299
55.9249
55.9198
55.9148
55.9098
55.9048
55.8998
55.8948
55.8898
55.8848
55.8798
55.8748
55.8699
55.8649
55.86
55.855
55.8501
55.8451
55.8402
55.8353
55.8304
55.8255
55.8206
55.8157
55.8109
55.806
55.8011
55.7963
55.7914
55.7866
55.7818
55.7769
55.7721
55.7673
55.7625
55.7577
55.7529
55.7482
55.7434
55.7386
55.7339
55.7291
55.7244
55.7197
55.715
55.7103
55.7056
55.7009
55.6962
55.6915
55.6869
55.6822
55.6775
55.6729
55.6683
55.6637
55.6591
55.6544
55.6499
55.6453
55.6407
55.6361
55.6316
55.627
55.6225
55.618
55.6135
55.609
55.6045
55.6
55.5955
55.591
55.5866
55.5821
55.5777
55.5733
55.5689
55.5644
55.5601
55.5557
55.5513
55.5469
55.5426
55.5383
55.5339
55.5296
55.5253
55.521
55.5167
55.5125
55.5082
55.504
55.4997
55.4955
55.4913
55.4871
55.4829
55.4788
55.4746
55.4704
55.4663
55.4622
55.4581
55.454
55.4499
55.4459
55.4418
55.4378
55.4337
55.4297
55.4257
55.4217
55.4178
55.4138
55.4099
55.406
55.4021
55.3982
55.3943
55.3904
55.3866
55.3828
55.379
55.3752
55.3714
55.3676
55.3639
55.3601
55.3564
55.3527
55.3491
55.3454
55.3418
55.3381
55.3345
55.331
55.3274
55.3239
55.3203
55.3168
55.3133
55.3099
55.3064
55.303
55.2996
55.2962
55.2929
55.2895
55.2862
55.2829
55.2797
55.2764
55.2732
55.27
55.2668
55.2637
55.2606
55.2575
55.2544
55.2514
55.2484
55.2454
55.2424
55.2395
55.2366
55.2337
55.2309
55.2281
55.2253
55.2226
55.2199
55.2172
55.2146
55.212
55.2094
55.2069
55.2044
55.202
55.1996
55.1972
55.1949
55.1926
55.1904
55.1882
55.1861
55.184
55.182
55.18
55.1781
55.1763
55.1745
55.1727
55.1711
55.1695
55.1679
55.1664
55.1651
55.1637
55.1625
55.1613
55.1603
55.1593
55.1584
55.1576
55.1569
55.1563
55.1558
55.1554
55.1552
55.155
55.155
55.1551
55.1554
55.1558
55.1563
55.1569
55.1578
55.1588
55.1599
55.1612
55.1627
55.1644
55.1663
55.1684
55.1707
55.1732
55.1759
55.1789
55.1821
55.1855
55.1892
55.1931
55.1974
55.2019
55.2067
55.2118
55.2172
55.2229
55.2289
55.2353
55.242
55.2491
55.2566
55.2645
55.2727
55.2814
55.2904
55.2999
55.3099
55.3203
55.3312
55.3425
55.3544
55.3667
55.3796
55.393
55.407
55.4215
55.4366
55.4524
55.4687
55.4856
55.5032
55.5214
55.5403
55.5599
55.5801
55.6011
55.6228
55.6452
55.6684
55.6923
55.717
55.7425
55.7688
55.796
55.8239
55.8527
55.8823
55.9127
55.944
55.9762
56.0092
56.0431
56.0779
56.1136
56.1501
56.1875
56.2259
56.265
56.3051
56.346
56.3877
56.4304
56.4738
56.5181
56.5632
56.6096
56.6096
56.7827
56.7827
56.5716
56.521
56.498
56.4824
56.4698
56.4586
56.4483
56.4386
56.4294
56.4205
56.4121
56.4043
56.3971
56.3903
56.3839
56.3776
56.3715
56.3655
56.3596
56.3539
56.3483
56.3427
56.3372
56.3318
56.3263
56.3208
56.3154
56.3099
56.3044
56.2989
56.2934
56.288
56.2825
56.277
56.2716
56.2661
56.2607
56.2552
56.2498
56.2443
56.2389
56.2335
56.2281
56.2227
56.2173
56.2119
56.2065
56.2011
56.1958
56.1904
56.185
56.1797
56.1743
56.169
56.1636
56.1583
56.153
56.1477
56.1423
56.137
56.1317
56.1264
56.1212
56.1159
56.1106
56.1053
56.1001
56.0948
56.0895
56.0843
56.0791
56.0738
56.0686
56.0634
56.0582
56.053
56.0478
56.0426
56.0374
56.0322
56.027
56.0218
56.0167
56.0115
56.0064
56.0012
55.9961
55.991
55.9858
55.9807
55.9756
55.9705
55.9654
55.9603
55.9552
55.9502
55.9451
55.94
55.935
55.9299
55.9249
55.9198
55.9148
55.9098
55.9048
55.8998
55.8948
55.8898
55.8848
55.8798
55.8748
55.8699
55.8649
55.86
55.855
55.8501
55.8451
55.8402
55.8353
55.8304
55.8255
55.8206
55.8157
55.8109
55.806
55.8011
55.7963
55.7914
55.7866
55.7818
55.7769
55.7721