# vtk DataFile Version 2.0
FlowField
ASCII
DATASET STRUCTURED_GRID
DIMENSIONS 400 1 200
POINTS 80000 float
0 0 0
0.08 0 0
0.16 0 0
0.24 0 0
0.32 0 0
0.4 0 0
0.48 0 0
0.56 0 0
0.64 0 0
0.72 0 0
0.8 0 0
0.88 0 0
0.96 0 0
1.04 0 0
1.12 0 0
1.2 0 0
1.28 0 0
1.36 0 0
1.44 0 0
1.52 0 0
1.6 0 0
1.68 0 0
1.76 0 0
1.84 0 0
1.92 0 0
2 0 0
2.08 0 0
2.16 0 0
2.24 0 0
2.32 0 0
2.4 0 0
2.48 0 0
2.56 0 0
2.64 0 0
2.72 0 0
2.8 0 0
2.88 0 0
2.96 0 0
3.04 0 0
3.12 0 0
3.2 0 0
3.28 0 0
3.36 0 0
3.44 0 0
3.52 0 0
3.6 0 0
3.68 0 0
3.76 0 0
3.84 0 0
3.92 0 0
4 0 0
4.08 0 0
4.16 0 0
4.24 0 0
4.32 0 0
4.4 0 0
4.48 0 0
4.56 0 0
4.64 0 0
4.72 0 0
4.8 0 0
4.88 0 0
4.96 0 0
5.04 0 0
5.12 0 0
5.2 0 0
5.28 0 0
5.36 0 0
5.44 0 0
5.52 0 0
5.6 0 0
5.68 0 0
5.76 0 0
5.84 0 0
5.92 0 0
6 0 0
6.08 0 0
6.16 0 0
6.24 0 0
6.32 0 0
6.4 0 0
6.48 0 0
6.56 0 0
6.64 0 0
6.72 0 0
6.8 0 0
6.88 0 0
6.96 0 0
7.04 0 0
7.12 0 0
7.2 0 0
7.28 0 0
7.36 0 0
7.44 0 0
7.52 0 0
7.6 0 0
7.68 0 0
7.76 0 0
7.84 0 0
7.92 0 0
8 0 0
8.08 0 0
8.16 0 0
8.24 0 0
8.32 0 0
8.4 0 0
8.48 0 0
8.56 0 0
8.64 0 0
8.72 0 0
8.8 0 0
8.88 0 0
8.96 0 0
9.04 0 0
9.12 0 0
9.2 0 0
9.28 0 0
9.36 0 0
9.44 0 0
9.52 0 0
9.6 0 0
9.68 0 0
9.76 0 0
9.84 0 0
9.92 0 0
10 0 0
10.08 0 0
10.16 0 0
10.24 0 0
10.32 0 0
10.4 0 0
10.48 0 0
10.56 0 0
10.64 0 0
10.72 0 0
10.8 0 0
10.88 0 0
10.96 0 0
11.04 0 0
11.12 0 0
11.2 0 0
11.28 0 0
11.36 0 0
11.44 0 0
11.52 0 0
11.6 0 0
11.68 0 0
11.76 0 0
11.84 0 0
11.92 0 0
12 0 0
12.08 0 0
12.16 0 0
12.24 0 0
12.32 0 0
12.4 0 0
12.48 0 0
12.56 0 0
12.64 0 0
12.72 0 0
12.8 0 0
12.88 0 0
12.96 0 0
13.04 0 0
13.12 0 0
13.2 0 0
13.28 0 0
13.36 0 0
13.44 0 0
13.52 0 0
13.6 0 0
13.68 0 0
13.76 0 0
13.84 0 0
13.92 0 0
14 0 0
14.08 0 0
14.16 0 0
14.24 0 0
14.32 0 0
14.4 0 0
14.48 0 0
14.56 0 0
14.64 0 0
14.72 0 0
14.8 0 0
14.88 0 0
14.96 0 0
15.04 0 0
15.12 0 0
15.2 0 0
15.28 0 0
15.36 0 0
15.44 0 0
15.52 0 0
15.6 0 0
15.68 0 0
15.76 0 0
15.84 0 0
15.92 0 0
16 0 0
16.08 0 0
16.16 0 0
16.24 0 0
16.32 0 0
16.4 0 0
16.48 0 0
16.56 0 0
16.64 0 0
16.72 0 0
16.8 0 0
16.88 0 0
16.96 0 0
17.04 0 0
17.12 0 0
17.2 0 0
17.28 0 0
17.36 0 0
17.44 0 0
17.52 0 0
17.6 0 0
17.68 0 0
17.76 0 0
17.84 0 0
17.92 0 0
18 0 0
18.08 0 0
18.16 0 0
18.24 0 0
18.32 0 0
18.4 0 0
18.48 0 0
18.56 0 0
18.64 0 0
18.72 0 0
18.8 0 0
18.88 0 0
18.96 0 0
19.04 0 0
19.12 0 0
19.2 0 0
19.28 0 0
19.36 0 0
19.44 0 0
19.52 0 0
19.6 0 0
19.68 0 0
19.76 0 0
19.84 0 0
19.92 0 0
20 0 0
20.08 0 0
20.16 0 0
20.24 0 0
20.32 0 0
20.4 0 0
20.48 0 0
20.56 0 0
20.64 0 0
20.72 0 0
20.8 0 0
20.88 0 0
20.96 0 0
21.04 0 0
21.12 0 0
21.2 0 0
21.28 0 0
21.36 0 0
21.44 0 0
21.52 0 0
21.6 0 0
21.68 0 0
21.76 0 0
21.84 0 0
21.92 0 0
22 0 0
22.08 0 0
22.16 0 0
22.24 0 0
22.32 0 0
22.4 0 0
22.48 0 0
22.56 0 0
22.64 0 0
22.72 0 0
22.8 0 0
22.88 0 0
22.96 0 0
23.04 0 0
23.12 0 0
23.2 0 0
23.28 0 0
23.36 0 0
23.44 0 0
23.52 0 0
23.6 0 0
23.68 0 0
23.76 0 0
23.84 0 0
23.92 0 0
24 0 0
24.08 0 0
24.16 0 0
24.24 0 0
24.32 0 0
24.4 0 0
24.48 0 0
24.56 0 0
24.64 0 0
24.72 0 0
24.8 0 0
24.88 0 0
24.96 0 0
25.04 0 0
25.12 0 0
25.2 0 0
25.28 0 0
25.36 0 0
25.44 0 0
25.52 0 0
25.6 0 0
25.68 0 0
25.76 0 0
25.84 0 0
25.92 0 0
26 0 0
26.08 0 0
26.16 0 0
26.24 0 0
26.32 0 0
26.4 0 0
26.48 0 0
26.56 0 0
26.64 0 0
26.72 0 0
26.8 0 0
26.88 0 0
26.96 0 0
27.04 0 0
27.12 0 0
27.2 0 0
27.28 0 0
27.36 0 0
27.44 0 0
27.52 0 0
27.6 0 0
27.68 0 0
27.76 0 0
27.84 0 0
27.92 0 0
28 0 0
28.08 0 0
28.16 0 0
28.24 0 0
28.32 0 0
28.4 0 0
28.48 0 0
28.56 0 0
28.64 0 0
28.72 0 0
28.8 0 0
28.88 0 0
28.96 0 0
29.04 0 0
29.12 0 0
29.2 0 0
29.28 0 0
29.36 0 0
29.44 0 0
29.52 0 0
29.6 0 0
29.68 0 0
29.76 0 0
29.84 0 0
29.92 0 0
30 0 0
30.08 0 0
30.16 0 0
30.24 0 0
30.32 0 0
30.4 0 0
30.48 0 0
30.56 0 0
30.64 0 0
30.72 0 0
30.8 0 0
30.88 0 0
30.96 0 0
31.04 0 0
31.12 0 0
31.2 0 0
31.28 0 0
31.36 0 0
31.44 0 0
31.52 0 0
31.6 0 0
31.68 0 0
31.76 0 0
31.84 0 0
31.92 0 0
0 0.005 0
0.08 0.005 0
0.16 0.005 0
0.24 0.005 0
0.32 0.005 0
0.4 0.005 0
0.48 0.005 0
0.56 0.005 0
0.64 0.005 0
0.72 0.005 0
0.8 0.005 0
0.88 0.005 0
0.96 0.005 0
1.04 0.005 0
1.12 0.005 0
1.2 0.005 0
1.28 0.005 0
1.36 0.005 0
1.44 0.005 0
1.52 0.005 0
1.6 0.005 0
1.68 0.005 0
1.76 0.005 0
1.84 0.005 0
1.92 0.005 0
2 0.005 0
2.08 0.005 0
2.16 0.005 0
2.24 0.005 0
2.32 0.005 0
2.4 0.005 0
2.48 0.005 0
2.56 0.005 0
2.64 0.005 0
2.72 0.005 0
2.8 0.005 0
2.88 0.005 0
2.96 0.005 0
3.04 0.005 0
3.12 0.005 0
3.2 0.005 0
3.28 0.005 0
3.36 0.005 0
3.44 0.005 0
3.52 0.005 0
3.6 0.005 0
3.68 0.005 0
3.76 0.005 0
3.84 0.005 0
3.92 0.005 0
4 0.005 0
4.08 0.005 0
4.16 0.005 0
4.24 0.005 0
4.32 0.005 0
4.4 0.005 0
4.48 0.005 0
4.56 0.005 0
4.64 0.005 0
4.72 0.005 0
4.8 0.005 0
4.88 0.005 0
4.96 0.005 0
5.04 0.005 0
5.12 0.005 0
5.2 0.005 0
5.28 0.005 0
5.36 0.005 0
5.44 0.005 0
5.52 0.005 0
5.6 0.005 0
5.68 0.005 0
5.76 0.005 0
5.84 0.005 0
5.92 0.005 0
6 0.005 0
6.08 0.005 0
6.16 0.005 0
6.24 0.005 0
6.32 0.005 0
6.4 0.005 0
6.48 0.005 0
6.56 0.005 0
6.64 0.005 0
6.72 0.005 0
6.8 0.005 0
6.88 0.005 0
6.96 0.005 0
7.04 0.005 0
7.12 0.005 0
7.2 0.005 0
7.28 0.005 0
7.36 0.005 0
7.44 0.005 0
7.52 0.005 0
7.6 0.005 0
7.68 0.005 0
7.76 0.005 0
7.84 0.005 0
7.92 0.005 0
8 0.005 0
8.08 0.005 0
8.16 0.005 0
8.24 0.005 0
8.32 0.005 0
8.4 0.005 0
8.48 0.005 0
8.56 0.005 0
8.64 0.005 0
8.72 0.005 0
8.8 0.005 0
8.88 0.005 0
8.96 0.005 0
9.04 0.005 0
9.12 0.005 0
9.2 0.005 0
9.28 0.005 0
9.36 0.005 0
9.44 0.005 0
9.52 0.005 0
9.6 0.005 0
9.68 0.005 0
9.76 0.005 0
9.84 0.005 0
9.92 0.005 0
10 0.005 0
10.08 0.005 0
10.16 0.005 0
10.24 0.005 0
10.32 0.005 0
10.4 0.005 0
10.48 0.005 0
10.56 0.005 0
10.64 0.005 0
10.72 0.005 0
10.8 0.005 0
10.88 0.005 0
10.96 0.005 0
11.04 0.005 0
11.12 0.005 0
11.2 0.005 0
11.28 0.005 0
11.36 0.005 0
11.44 0.005 0
11.52 0.005 0
11.6 0.005 0
11.68 0.005 0
11.76 0.005 0
11.84 0.005 0
11.92 0.005 0
12 0.005 0
12.08 0.005 0
12.16 0.005 0
12.24 0.005 0
12.32 0.005 0
12.4 0.005 0
12.48 0.005 0
12.56 0.005 0
12.64 0.005 0
12.72 0.005 0
12.8 0.005 0
12.88 0.005 0
12.96 0.005 0
13.04 0.005 0
13.12 0.005 0
13.2 0.005 0
13.28 0.005 0
13.36 0.005 0
13.44 0.005 0
13.52 0.005 0
13.6 0.005 0
13.68 0.005 0
13.76 0.005 0
13.84 0.005 0
13.92 0.005 0
14 0.005 0
14.08 0.005 0
14.16 0.005 0
14.24 0.005 0
14.32 0.005 0
14.4 0.005 0
14.48 0.005 0
14.56 0.005 0
14.64 0.005 0
14.72 0.005 0
14.8 0.005 0
14.88 0.005 0
14.96 0.005 0
15.04 0.005 0
15.12 0.005 0
15.2 0.005 0
15.28 0.005 0
15.36 0.005 0
15.44 0.005 0
15.52 0.005 0
15.6 0.005 0
15.68 0.005 0
15.76 0.005 0
15.84 0.005 0
15.92 0.005 0
16 0.005 0
16.08 0.005 0
16.16 0.005 0
16.24 0.005 0
16.32 0.005 0
16.4 0.005 0
16.48 0.005 0
16.56 0.005 0
16.64 0.005 0
16.72 0.005 0
16.8 0.005 0
16.88 0.005 0
16.96 0.005 0
17.04 0.005 0
17.12 0.005 0
17.2 0.005 0
17.28 0.005 0
17.36 0.005 0
17.44 0.005 0
17.52 0.005 0
17.6 0.005 0
17.68 0.005 0
17.76 0.005 0
17.84 0.005 0
17.92 0.005 0
18 0.005 0
18.08 0.005 0
18.16 0.005 0
18.24 0.005 0
18.32 0.005 0
18.4 0.005 0
18.48 0.005 0
18.56 0.005 0
18.64 0.005 0
18.72 0.005 0
18.8 0.005 0
18.88 0.005 0
18.96 0.005 0
19.04 0.005 0
19.12 0.005 0
19.2 0.005 0
19.28 0.005 0
19.36 0.005 0
19.44 0.005 0
19.52 0.005 0
19.6 0.005 0
19.68 0.005 0
19.76 0.005 0
19.84 0.005 0
19.92 0.005 0
20 0.005 0
20.08 0.005 0
20.16 0.005 0
20.24 0.005 0
20.32 0.005 0
20.4 0.005 0
20.48 0.005 0
20.56 0.005 0
20.64 0.005 0
20.72 0.005 0
20.8 0.005 0
20.88 0.005 0
20.96 0.005 0
21.04 0.005 0
21.12 0.005 0
21.2 0.005 0
21.28 0.005 0
21.36 0.005 0
21.44 0.005 0
21.52 0.005 0
21.6 0.005 0
21.68 0.005 0
21.76 0.005 0
21.84 0.005 0
21.92 0.005 0
22 0.005 0
22.08 0.005 0
22.16 0.005 0
22.24 0.005 0
22.32 0.005 0
22.4 0.005 0
22.48 0.005 0
22.56 0.005 0
22.64 0.005 0
22.72 0.005 0
22.8 0.005 0
22.88 0.005 0
22.96 0.005 0
23.04 0.005 0
23.12 0.005 0
23.2 0.005 0
23.28 0.005 0
23.36 0.005 0
23.44 0.005 0
23.52 0.005 0
23.6 0.005 0
23.68 0.005 0
23.76 0.005 0
23.84 0.005 0
23.92 0.005 0
24 0.005 0
24.08 0.005 0
24.16 0.005 0
24.24 0.005 0
24.32 0.005 0
24.4 0.005 0
24.48 0.005 0
24.56 0.005 0
24.64 0.005 0
24.72 0.005 0
24.8 0.005 0
24.88 0.005 0
24.96 0.005 0
25.04 0.005 0
25.12 0.005 0
25.2 0.005 0
25.28 0.005 0
25.36 0.005 0
25.44 0.005 0
25.52 0.005 0
25.6 0.005 0
25.68 0.005 0
25.76 0.005 0
25.84 0.005 0
25.92 0.005 0
26 0.005 0
26.08 0.005 0
26.16 0.005 0
26.24 0.005 0
26.32 0.005 0
26.4 0.005 0
26.48 0.005 0
26.56 0.005 0
26.64 0.005 0
26.72 0.005 0
26.8 0.005 0
26.88 0.005 0
26.96 0.005 0
27.04 0.005 0
27.12 0.005 0
27.2 0.005 0
27.28 0.005 0
27.36 0.005 0
27.44 0.005 0
27.52 0.005 0
27.6 0.005 0
27.68 0.005 0
27.76 0.005 0
27.84 0.005 0
27.92 0.005 0
28 0.005 0
28.08 0.005 0
28.16 0.005 0
28.24 0.005 0
28.32 0.005 0
28.4 0.005 0
28.48 0.005 0
28.56 0.005 0
28.64 0.005 0
28.72 0.005 0
28.8 0.005 0
28.88 0.005 0
28.96 0.005 0
29.04 0.005 0
29.12 0.005 0
29.2 0.005 0
29.28 0.005 0
29.36 0.005 0
29.44 0.005 0
29.52 0.005 0
29.6 0.005 0
29.68 0.005 0
29.76 0.005 0
29.84 0.005 0
29.92 0.005 0
30 0.005 0
30.08 0.005 0
30.16 0.005 0
30.24 0.005 0
30.32 0.005 0
30.4 0.005 0
30.48 0.005 0
30.56 0.005 0
30.64 0.005 0
30.72 0.005 0
30.8 0.005 0
30.88 0.005 0
30.96 0.005 0
31.04 0.005 0
31.12 0.005 0
31.2 0.005 0
31.28 0.005 0
31.36 0.005 0
31.44 0.005 0
31.52 0.005 0
31.6 0.005 0
31.68 0.005 0
31.76 0.005 0
31.84 0.005 0
31.92 0.005 0
0 0.01 0
0.08 0.01 0
0.16 0.01 0
0.24 0.01 0
0.32 0.01 0
0.4 0.01 0
0.48 0.01 0
0.56 0.01 0
0.64 0.01 0
0.72 0.01 0
0.8 0.01 0
0.88 0.01 0
0.96 0.01 0
1.04 0.01 0
1.12 0.01 0
1.2 0.01 0
1.28 0.01 0
1.36 0.01 0
1.44 0.01 0
1.52 0.01 0
1.6 0.01 0
1.68 0.01 0
1.76 0.01 0
1.84 0.01 0
1.92 0.01 0
2 0.01 0
2.08 0.01 0
2.16 0.01 0
2.24 0.01 0
2.32 0.01 0
2.4 0.01 0
2.48 0.01 0
2.56 0.01 0
2.64 0.01 0
2.72 0.01 0
2.8 0.01 0
2.88 0.01 0
2.96 0.01 0
3.04 0.01 0
3.12 0.01 0
3.2 0.01 0
3.28 0.01 0
3.36 0.01 0
3.44 0.01 0
3.52 0.01 0
3.6 0.01 0
3.68 0.01 0
3.76 0.01 0
3.84 0.01 0
3.92 0.01 0
4 0.01 0
4.08 0.01 0
4.16 0.01 0
4.24 0.01 0
4.32 0.01 0
4.4 0.01 0
4.48 0.01 0
4.56 0.01 0
4.64 0.01 0
4.72 0.01 0
4.8 0.01 0
4.88 0.01 0
4.96 0.01 0
5.04 0.01 0
5.12 0.01 0
[...]
POINT_DATA 80000

SCALARS u float 1
LOOKUP_TABLE default
0
-0.131663
-0.0682695
-0.0522964
-0.0444203
-0.0395772
-0.0362602
-0.0338332
-0.0319732
-0.0304966
-0.0292906
-0.0282823
-0.0274228
-0.0266782
-0.0260243
-0.0254434
-0.0249225
-0.0244517
-0.0240231
-0.0236307
-0.0232697
-0.022936
-0.0226265
-0.0223384
-0.0220694
-0.0218176
-0.0215812
-0.0213588
-0.0211492
-0.0209513
-0.0207641
-0.0205868
-0.0204186
-0.0202587
-0.0201066
-0.0199619
-0.0198241
-0.0196929
-0.0195679
-0.0194486
-0.0193347
-0.0192261
-0.0191228
-0.019025
-0.0189327
-0.0188459
-0.0187646
-0.0186886
-0.018618
-0.0185528
-0.0184931
-0.0184388
-0.0183895
-0.0183446
-0.0183033
-0.0182651
-0.0182295
-0.0181964
-0.0181658
-0.0181379
-0.0181126
-0.01809
-0.0180697
-0.0180512
-0.0180341
-0.0180181
-0.0180029
-0.0179885
-0.0179751
-0.0179628
-0.0179518
-0.0179424
-0.0179346
-0.0179284
-0.0179238
-0.0179204
-0.0179181
-0.0179167
-0.017916
-0.0179158
-0.0179159
-0.0179162
-0.0179167
-0.0179173
-0.017918
-0.0179187
-0.0179195
-0.0179202
-0.017921
-0.0179218
-0.0179227
-0.0179235
-0.0179243
-0.0179251
-0.0179259
-0.0179268
-0.0179276
-0.0179284
-0.0179292
-0.0179301
-0.0179309
-0.0179317
-0.0179326
-0.0179334
-0.0179342
-0.017935
-0.0179359
-0.0179367
-0.0179375
-0.0179384
-0.0179392
-0.01794
-0.0179409
-0.0179417
-0.0179425
-0.0179434
-0.0179442
-0.017945
-0.0179459
-0.0179467
-0.0179476
-0.0179484
-0.0179492
-0.0179501
-0.0179509
-0.0179517
-0.0179526
-0.0179534
-0.0179543
-0.0179551
-0.017956
-0.0179568
-0.0179576
-0.0179585
-0.0179593
-0.0179602
-0.017961
-0.0179619
-0.0179627
-0.0179636
-0.0179644
-0.0179653
-0.0179661
-0.0179669
-0.0179678
-0.0179686
-0.0179695
-0.0179703
-0.0179712
-0.017972
-0.0179729
-0.0179738
-0.0179746
-0.0179755
-0.0179763
-0.0179772
-0.017978
-0.0179789
-0.0179797
-0.0179806
-0.0179814
-0.0179823
-0.0179832
-0.017984
-0.0179849
-0.0179857
-0.0179866
-0.0179874
-0.0179883
-0.0179892
-0.01799
-0.0179909
-0.0179918
-0.0179926
-0.0179935
-0.0179943
-0.0179952
-0.0179961
-0.0179969
-0.0179978
-0.0179987
-0.0179995
-0.0180004
-0.0180013
-0.0180021
-0.018003
-0.0180039
-0.0180047
-0.0180056
-0.0180065
-0.0180074
-0.0180082
-0.0180091
-0.01801
-0.0180108
-0.0180117
-0.0180126
-0.0180135
-0.0180143
-0.0180152
-0.0180161
-0.018017
-0.0180178
-0.0180187
-0.0180196
-0.0180205
-0.0180213
-0.0180222
-0.0180231
-0.018024
-0.0180249
-0.0180257
-0.0180266
-0.0180275
-0.0180284
-0.0180293
-0.0180302
-0.018031
-0.0180319
-0.0180328
-0.0180337
-0.0180346
-0.0180355
-0.0180364
-0.0180372
-0.0180381
-0.018039
-0.0180399
-0.0180408
-0.0180417
-0.0180426
-0.0180435
-0.0180444
-0.0180453
-0.0180461
-0.018047
-0.0180479
-0.0180488
-0.0180497
-0.0180506
-0.0180515
-0.0180524
-0.0180533
-0.0180542
-0.0180551
-0.018056
-0.0180569
-0.0180578
-0.0180587
-0.0180596
-0.0180605
-0.0180614
-0.0180623
-0.0180632
-0.0180641
-0.018065
-0.0180659
-0.0180668
-0.0180677
-0.0180686
-0.0180695
-0.0180704
-0.0180713
-0.0180723
-0.0180732
-0.0180741
-0.018075
-0.0180759
-0.0180768
-0.0180777
-0.0180786
-0.0180795
-0.0180804
-0.0180814
-0.0180823
-0.0180832
-0.0180841
-0.018085
-0.0180859
-0.0180868
-0.0180878
-0.0180887
-0.0180896
-0.0180905
-0.0180914
-0.0180924
-0.0180933
-0.0180942
-0.0180951
-0.018096
-0.018097
-0.0180979
-0.0180988
-0.0180997
-0.0181007
-0.0181016
-0.0181025
-0.0181034
-0.0181044
-0.0181053
-0.0181062
-0.0181071
-0.0181081
-0.018109
-0.0181099
-0.0181109
-0.0181118
-0.0181127
-0.0181136
-0.0181146
-0.0181155
-0.0181164
-0.0181174
-0.0181183
-0.0181193
-0.0181202
-0.0181211
-0.0181221
-0.018123
-0.0181239
-0.0181249
-0.0181258
-0.0181268
-0.0181277
-0.0181286
-0.0181296
-0.0181305
-0.0181315
-0.0181324
-0.0181333
-0.0181343
-0.0181352
-0.0181362
-0.0181371
-0.0181381
-0.018139
-0.01814
-0.0181409
-0.0181419
-0.0181428
-0.0181438
-0.0181447
-0.0181457
-0.0181466
-0.0181476
-0.0181485
-0.0181495
-0.0181504
-0.0181514
-0.0181523
-0.0181533
-0.0181542
-0.0181552
-0.0181562
-0.0181571
-0.0181581
-0.018159
-0.01816
-0.0181609
-0.0181619
-0.0181629
-0.0181638
-0.0181648
-0.0181658
-0.0181667
-0.0181677
-0.0181686
-0.0181696
-0.0181706
-0.0181715
-0.0181725
-0.0181735
-0.0181744
-0.0181754
-0.0181764
-0.0181774
-0.0181783
-0.0181793
-0.0181803
-0.0181813
-0.0181822
-0.0181832
-0.0181842
-0.0181852
-0.0181861
-0.0181871
-0.0181881
-0.0181891
-0.01819
-0.018191
-0.018192
-0.018193
-0.018194
-0.0181949
-0.0181962
-0.0181967
-0.0181984
-0.0181968
-0.0181968
-0.0181968
1
0.131663
0.0682695
0.0522964
0.0444203
0.0395772
0.0362602
0.0338332
0.0319732
0.0304966
0.0292906
0.0282823
0.0274228
0.0266782
0.0260243
0.0254434
0.0249225
0.0244517
0.0240231
0.0236307
0.0232697
0.022936
0.0226265
0.0223384
0.0220694
0.0218176
0.0215812
0.0213588
0.0211492
0.0209513
0.0207641
0.0205868
0.0204186
0.0202587
0.0201066
0.0199619
0.0198241
0.0196929
0.0195679
0.0194486
0.0193347
0.0192261
0.0191228
0.019025
0.0189327
0.0188459
0.0187646
0.0186886
0.018618
0.0185528
0.0184931
0.0184388
0.0183895
0.0183446
0.0183033
0.0182651
0.0182295
0.0181964
0.0181658
0.0181379
0.0181126
0.01809
0.0180697
0.0180512
0.0180341
0.0180181
0.0180029
0.0179885
0.0179751
0.0179628
0.0179518
0.0179424
0.0179346
0.0179284
0.0179238
0.0179204
0.0179181
0.0179167
0.017916
0.0179158
0.0179159
0.0179162
0.0179167
0.0179173
0.017918
0.0179187
0.0179195
0.0179202
0.017921
0.0179218
0.0179227
0.0179235
0.0179243
0.0179251
0.0179259
0.0179268
0.0179276
0.0179284
0.0179292
0.0179301
0.0179309
0.0179317
0.0179326
0.0179334
0.0179342
0.017935
0.0179359
0.0179367
0.0179375
0.0179384
0.0179392
0.01794
0.0179409
0.0179417
0.0179425
0.0179434
0.0179442
0.017945
0.0179459
0.0179467
0.0179476
0.0179484
0.0179492
0.0179501
0.0179509
0.0179517
0.0179526
0.0179534
0.0179543
0.0179551
0.017956
0.0179568
0.0179576
0.0179585
0.0179593
0.0179602
0.017961
0.0179619
0.0179627
0.0179636
0.0179644
0.0179653
0.0179661
0.0179669
0.0179678
0.0179686
0.0179695
0.0179703
0.0179712
0.017972
0.0179729
0.0179738
0.0179746
0.0179755
0.0179763
0.0179772
0.017978
0.0179789
0.0179797
0.0179806
0.0179814
0.0179823
0.0179832
0.017984
0.0179849
0.0179857
0.0179866
0.0179874
0.0179883
0.0179892
0.01799
0.0179909
0.0179918
0.0179926
0.0179935
0.0179943
0.0179952
0.0179961
0.0179969
0.0179978
0.0179987
0.0179995
0.0180004
0.0180013
0.0180021
0.018003
0.0180039
0.0180047
0.0180056
0.0180065
0.0180074
0.0180082
0.0180091
0.01801
0.0180108
0.0180117
0.0180126
0.0180135
0.0180143
0.0180152
0.0180161
0.018017
0.0180178
0.0180187
0.0180196
0.0180205
0.0180213
0.0180222
0.0180231
0.018024
0.0180249
0.0180257
0.0180266
0.0180275
0.0180284
0.0180293
0.0180302
0.018031
0.0180319
0.0180328
0.0180337
0.0180346
0.0180355
0.0180364
0.0180372
0.0180381
0.018039
0.0180399
0.0180408
0.0180417
0.0180426
0.0180435
0.0180444
0.0180453
0.0180461
0.018047
0.0180479
0.0180488
0.0180497
0.0180506
0.0180515
0.0180524
0.0180533
0.0180542
0.0180551
0.018056
0.0180569
0.0180578
0.0180587
0.0180596
0.0180605
0.0180614
0.0180623
0.0180632
0.0180641
0.018065
0.0180659
0.0180668
0.0180677
0.0180686
0.0180695
0.0180704
0.0180713
0.0180723
0.0180732
0.0180741
0.018075
0.0180759
0.0180768
0.0180777
0.0180786
0.0180795
0.0180804
0.0180814
0.0180823
0.0180832
0.0180841
0.018085
0.0180859
0.0180868
0.0180878
0.0180887
0.0180896
0.0180905
0.0180914
0.0180924
0.0180933
0.0180942
0.0180951
0.018096
0.018097
0.0180979
0.0180988
0.0180997
0.0181007
0.0181016
0.0181025
0.0181034
0.0181044
0.0181053
0.0181062
0.0181071
0.0181081
0.018109
0.0181099
0.0181109
0.0181118
0.0181127
0.0181136
0.0181146
0.0181155
0.0181164
0.0181174
0.0181183
0.0181193
0.0181202
0.0181211
0.0181221
0.018123
0.0181239
0.0181249
0.0181258
0.0181268
0.0181277
0.0181286
0.0181296
0.0181305
0.0181315
0.0181324
0.0181333
0.0181343
0.0181352
0.0181362
0.0181371
0.0181381
0.018139
0.01814
0.0181409
0.0181419
0.0181428
0.0181438
0.0181447
0.0181457
0.0181466
0.0181476
0.0181485
0.0181495
0.0181504
0.0181514
0.0181523
0.0181533
0.0181542
0.0181552
0.0181562
0.0181571
0.0181581
0.018159
0.01816
0.0181609
0.0181619
0.0181629
0.0181638
0.0181648
0.0181658
0.0181667
0.0181677
0.0181686
0.0181696
0.0181706
0.0181715
0.0181725
0.0181735
0.0181744
0.0181754
0.0181764
0.0181774
0.0181783
0.0181793
0.0181803
0.0181813
0.0181822
0.0181832
0.0181842
0.0181852
0.0181861
0.0181871
0.0181881
0.0181891
0.01819
0.018191
0.018192
0.018193
0.018194
0.0181949
0.0181962
0.0181967
0.0181984
0.0181968
0.0181968
0.0181968
1
0.344884
0.200668
0.154968
0.131896
0.1176
0.107769
0.10056
0.0950268
0.090631
0.08704
0.0840381
0.0814802
0.0792651
0.0773208
0.0755947
0.0740476
0.0726498
0.071378
0.0702143
0.0691439
0.0681549
0.0672378
0.0663843
0.0655876
0.064842
0.0641423
0.0634841
0.0628637
0.0622781
0.0617243
0.0611999
0.0607023
0.0602297
0.0597801
0.0593525
0.0589456
0.0585583
0.0581893
0.0578375
0.0575019
0.0571822
0.0568786
0.0565915
0.0563211
0.0560671
0.0558295
0.0556079
0.0554024
0.0552132
0.0550401
0.0548827
0.0547397
0.0546093
0.0544895
0.0543785
0.0542752
0.0541793
0.054091
0.0540105
0.0539378
0.0538724
0.0538135
0.0537599
0.0537103
0.0536638
0.0536199
0.0535787
0.0535406
0.053506
0.0534755
0.0534496
0.0534284
0.0534117
0.0533993
0.0533904
0.0533846
0.0533812
0.0533795
0.0533792
0.0533797
0.0533809
0.0533826
0.0533844
0.0533865
0.0533887
0.053391
0.0533933
0.0533956
0.053398
0.0534005
0.0534029
0.0534053
0.0534078
0.0534103
0.0534127
0.0534152
0.0534176
0.0534201
0.0534226
0.053425
0.0534275
0.05343
0.0534325
0.0534349
0.0534374
0.0534399
0.0534424
0.0534448
0.0534473
0.0534498
0.0534523
0.0534548
0.0534573
0.0534597
0.0534622
0.0534647
0.0534672
0.0534697
0.0534722
0.0534747
0.0534772
0.0534797
0.0534822
0.0534847
0.0534872
0.0534897
0.0534922
0.0534947
0.0534972
0.0534998
0.0535023
0.0535048
0.0535073
0.0535098
0.0535123
0.0535148
0.0535174
0.0535199
0.0535224
0.0535249
0.0535275
0.05353
0.0535325
0.0535351
0.0535376
0.0535401
0.0535427
0.0535452
0.0535477
0.0535503
0.0535528
0.0535553
0.0535579
0.0535604
0.053563
0.0535655
0.0535681
0.0535706
0.0535732
0.0535757
0.0535783
0.0535808
0.0535834
0.053586
0.0535885
0.0535911
0.0535936
0.0535962
0.0535988
0.0536013
0.0536039
0.0536065
0.053609
0.0536116
0.0536142
0.0536168
0.0536193
0.0536219
0.0536245
0.0536271
0.0536297
0.0536322
0.0536348
0.0536374
0.05364
0.0536426
0.0536452
0.0536478
0.0536504
0.053653
0.0536556
0.0536582
0.0536608
0.0536634
0.053666
0.0536686
0.0536712
0.0536738
0.0536764
0.053679
0.0536816
0.0536842
0.0536868
0.0536895
0.0536921
0.0536947
0.0536973
0.0536999
0.0537026
0.0537052
0.0537078
0.0537104
0.0537131
0.0537157
0.0537183
0.053721
0.0537236
0.0537262
0.0537289
0.0537315
0.0537341
0.0537368
0.0537394
0.0537421
0.0537447
0.0537474
0.05375
0.0537527
0.0537553
0.053758
0.0537606
0.0537633
0.053766
0.0537686
0.0537713
0.0537739
0.0537766
0.0537793
0.0537819
0.0537846
0.0537873
0.05379
0.0537926
0.0537953
0.053798
0.0538007
0.0538033
0.053806
0.0538087
0.0538114
0.0538141
0.0538168
0.0538195
0.0538221
0.0538248
0.0538275
0.0538302
0.0538329
0.0538356
0.0538383
0.053841
0.0538437
0.0538464
0.0538491
0.0538518
0.0538546
0.0538573
0.05386
0.0538627
0.0538654
0.0538681
0.0538708
0.0538736
0.0538763
0.053879
0.0538817
0.0538845
0.0538872
0.0538899
0.0538927
0.0538954
0.0538981
0.0539009
0.0539036
0.0539063
0.0539091
0.0539118
0.0539146
0.0539173
0.0539201
0.0539228
0.0539256
0.0539283
0.0539311
0.0539338
0.0539366
0.0539393
0.0539421
0.0539449
0.0539476
0.0539504
0.0539532
0.0539559
0.0539587
0.0539615
0.0539642
0.053967
0.0539698
0.0539726
0.0539753
0.0539781
0.0539809
0.0539837
0.0539865
0.0539893
0.0539921
0.0539949
0.0539976
0.0540004
0.0540032
0.054006
0.0540088
0.0540116
0.0540144
0.0540172
0.05402
0.0540229
0.0540257
0.0540285
0.0540313
0.0540341
0.0540369
0.0540397
0.0540426
0.0540454
0.0540482
0.054051
0.0540538
0.0540567
0.0540595
0.0540623
0.0540652
0.054068
0.0540708
0.0540737
0.0540765
0.0540794
0.0540822
0.054085
0.0540879
0.0540907
0.0540936
0.0540964
0.0540993
0.0541021
0.054105
0.0541079
0.0541107
0.0541136
0.0541164
0.0541193
0.0541222
0.054125
0.0541279
0.0541308
0.0541337
0.0541365
0.0541394
0.0541423
0.0541452
0.0541481
0.0541509
0.0541538
0.0541567
0.0541596
0.0541625
0.0541654
0.0541683
0.0541712
0.0541741
0.054177
0.0541799
0.0541828
0.0541857
0.0541886
0.0541915
0.0541944
0.0541973
0.0542003
0.0542032
0.0542061
0.0542093
0.0542119
0.0542155
0.0542173
0.0542221
0.0542183
0.0542183
0.0542183
1
0.518766
0.327403
0.255349
0.217851
0.194406
0.178214
0.16631
0.157161
0.149887
0.143942
0.138973
0.134739
0.131074
0.127858
0.125004
0.122447
0.120138
0.118038
0.116116
0.114349
0.112718
0.111205
0.109797
0.108483
0.107254
0.1061
0.105015
0.103992
0.103027
0.102115
0.101251
0.100431
0.0996527
0.0989126
0.0982086
0.097539
0.0969018
0.0962948
0.0957163
0.095165
0.0946403
0.0941426
0.0936724
0.0932298
0.0928147
0.0924267
0.0920655
0.0917311
0.0914236
0.0911426
0.0908872
0.090655
0.090443
0.0902481
0.0900677
0.0899
0.0897446
0.0896016
0.0894713
0.0893537
0.0892478
0.0891523
0.089065
0.0889844
0.0889089
0.0888381
0.0887719
0.0887109
0.0886562
0.0886083
0.088568
0.0885352
0.0885097
0.0884908
0.0884776
0.088469
0.0884641
0.0884619
0.0884618
0.088463
0.0884651
0.0884679
0.0884711
0.0884746
0.0884783
0.088482
0.0884859
0.0884898
0.0884938
0.0884978
0.0885019
0.0885059
0.08851
0.0885141
0.0885181
0.0885222
0.0885263
0.0885304
0.0885345
0.0885386
0.0885426
0.0885467
0.0885508
0.0885549
0.088559
0.0885631
0.0885672
0.0885714
0.0885755
0.0885796
0.0885837
0.0885878
0.0885919
0.088596
0.0886002
0.0886043
0.0886084
0.0886126
0.0886167
0.0886208
0.088625
0.0886291
0.0886333
0.0886374
0.0886415
0.0886457
0.0886498
0.088654
0.0886582
0.0886623
0.0886665
0.0886706
0.0886748
0.088679
0.0886831
0.0886873
0.0886915
0.0886957
0.0886999
0.088704
0.0887082
0.0887124
0.0887166
0.0887208
0.088725
0.0887292
0.0887334
0.0887376
0.0887418
0.088746
0.0887502
0.0887544
0.0887586
0.0887628
0.088767
0.0887713
0.0887755
0.0887797
0.0887839
0.0887882
0.0887924
0.0887966
0.0888009
0.0888051
0.0888093
0.0888136
0.0888178
0.0888221
0.0888263
0.0888306
0.0888348
0.0888391
0.0888433
0.0888476
0.0888519
0.0888561
0.0888604
0.0888647
0.0888689
0.0888732
0.0888775
0.0888818
0.0888861
0.0888903
0.0888946
0.0888989
0.0889032
0.0889075
0.0889118
0.0889161
0.0889204
0.0889247
0.088929
0.0889333
0.0889376
0.0889419
0.0889463
0.0889506
0.0889549
0.0889592
0.0889635
0.0889679
0.0889722
0.0889765
0.0889809
0.0889852
0.0889895
0.0889939
0.0889982
0.0890026
0.0890069
0.0890113
0.0890156
0.08902
0.0890243
0.0890287
0.0890331
0.0890374
0.0890418
0.0890462
0.0890506
0.0890549
0.0890593
0.0890637
0.0890681
0.0890725
0.0890768
0.0890812
0.0890856
0.08909
0.0890944
0.0890988
0.0891032
0.0891076
0.089112
0.0891165
0.0891209
0.0891253
0.0891297
0.0891341
0.0891386
0.089143
0.0891474
0.0891518
0.0891563
0.0891607
0.0891651
0.0891696
0.089174
0.0891785
0.0891829
0.0891874
0.0891918
0.0891963
0.0892007
0.0892052
0.0892097
0.0892141
0.0892186
0.0892231
0.0892276
0.089232
0.0892365
0.089241
0.0892455
0.08925
0.0892545
0.0892589
0.0892634
0.0892679
0.0892724
0.0892769
0.0892814
0.089286
0.0892905
0.089295
0.0892995
0.089304
0.0893085
0.0893131
0.0893176
0.0893221
0.0893266
0.0893312
0.0893357
0.0893403
0.0893448
0.0893493
0.0893539
0.0893584
0.089363
0.0893675
0.0893721
0.0893767
0.0893812
0.0893858
0.0893904
0.0893949
0.0893995
0.0894041
0.0894087
0.0894132
0.0894178
0.0894224
0.089427
0.0894316
0.0894362
0.0894408
0.0894454
0.08945
0.0894546
0.0894592
0.0894638
0.0894684
0.089473
0.0894776
0.0894823
0.0894869
0.0894915
0.0894961
0.0895008
0.0895054
0.08951
0.0895147
0.0895193
0.089524
0.0895286
0.0895333
0.0895379
0.0895426
0.0895472
0.0895519
0.0895566
0.0895612
0.0895659
0.0895706
0.0895753
0.0895799
0.0895846
0.0895893
0.089594
0.0895987
0.0896034
0.0896081
0.0896128
0.0896175
0.0896222
0.0896269
0.0896316
0.0896363
0.089641
0.0896457
0.0896504
0.0896552
0.0896599
0.0896646
0.0896694
0.0896741
0.0896788
0.0896836
0.0896883
0.089693
0.0896978
0.0897025
0.0897073
0.0897121
0.0897168
0.0897216
0.0897264
0.0897311
0.0897359
0.0897406
0.0897455
0.0897502
0.089755
0.0897598
0.0897646
0.0897693
0.0897742
0.0897789
0.0897838
0.0897885
0.0897934
0.0897981
0.089803
0.0898078
0.0898127
0.0898175
0.0898223
0.0898272
0.089832
0.0898372
0.0898416
0.0898475
0.0898506
0.0898583
0.0898532
0.0898532
0.0898532
1
0.660888
0.446896
0.35288
0.302032
0.269853
0.247505
0.231022
0.218332
0.20823
0.199971
0.193065
0.187182
0.18209
0.177623
0.173661
0.170112
0.166908
0.163994
0.16133
0.15888
0.156618
0.154522
0.152571
0.150751
0.149048
0.14745
0.145948
0.144532
0.143196
0.141933
0.140737
0.139603
0.138525
0.137501
0.136528
0.135602
0.134721
0.133882
0.133083
0.132322
0.131598
0.130912
0.130264
0.129656
0.129085
0.128552
0.128057
0.127599
0.127179
0.126795
0.126446
0.126128
0.125839
0.125572
0.125325
0.125096
0.124884
0.124689
0.124512
0.124351
0.124207
0.124076
0.123957
0.123846
0.123743
0.123647
0.123558
0.123476
0.123403
0.123339
0.123286
0.123244
0.123211
0.123186
0.12317
0.123159
0.123153
0.123151
0.123151
0.123153
0.123156
0.12316
0.123165
0.12317
0.123175
0.12318
0.123185
0.123191
0.123196
0.123202
0.123208
0.123213
0.123219
0.123225
0.12323
0.123236
0.123242
0.123247
0.123253
0.123259
0.123264
0.12327
0.123276
0.123281
0.123287
0.123293
0.123299
0.123304
0.12331
0.123316
0.123321
0.123327
0.123333
0.123339
0.123344
0.12335
0.123356
0.123362
0.123367
0.123373
0.123379
0.123385
0.12339
0.123396
0.123402
0.123408
0.123413
0.123419
0.123425
0.123431
0.123436
0.123442
0.123448
0.123454
0.12346
0.123465
0.123471
0.123477
0.123483
0.123489
0.123495
0.1235
0.123506
0.123512
0.123518
0.123524
0.12353
0.123535
0.123541
0.123547
0.123553
0.123559
0.123565
0.12357
0.123576
0.123582
0.123588
0.123594
0.1236
0.123606
0.123612
0.123617
0.123623
0.123629
0.123635
0.123641
0.123647
0.123653
0.123659
0.123665
0.123671
0.123676
0.123682
0.123688
0.123694
0.1237
0.123706
0.123712
0.123718
0.123724
0.12373
0.123736
0.123742
0.123748
0.123754
0.12376
0.123766
0.123772
0.123778
0.123784
0.12379
0.123795
0.123801
0.123807
0.123813
0.123819
0.123825
0.123831
0.123837
0.123843
0.123849
0.123856
0.123862
0.123868
0.123874
0.12388
0.123886
0.123892
0.123898
0.123904
0.12391
0.123916
0.123922
0.123928
0.123934
0.12394
0.123946
0.123952
0.123958
0.123964
0.12397
0.123977
0.123983
0.123989
0.123995
0.124001
0.124007
0.124013
0.124019
0.124025
0.124031
0.124038
0.124044
0.12405
0.124056
0.124062
0.124068
0.124074
0.12408
0.124087
0.124093
0.124099
0.124105
0.124111
0.124117
0.124124
0.12413
0.124136
0.124142
0.124148
0.124154
0.124161
0.124167
0.124173
0.124179
0.124185
0.124192
0.124198
0.124204
0.12421
0.124216
0.124223
0.124229
0.124235
0.124241
0.124248
0.124254
0.12426
0.124266
0.124273
0.124279
0.124285
0.124291
0.124298
0.124304
0.12431
0.124316
0.124323
0.124329
0.124335
0.124342
0.124348
0.124354
0.124361
0.124367
0.124373
0.124379
0.124386
0.124392
0.124398
0.124405
0.124411
0.124417
0.124424
0.12443
0.124436
0.124443
0.124449
0.124455
0.124462
0.124468
0.124475
0.124481
0.124487
0.124494
0.1245
0.124506
0.124513
0.124519
0.124526
0.124532
0.124538
0.124545
0.124551
0.124558
0.124564
0.12457
0.124577
0.124583
0.12459
0.124596
0.124603
0.124609
0.124616
0.124622
0.124628
0.124635
0.124641
0.124648
0.124654
0.124661
0.124667
0.124674
0.12468
0.124687
0.124693
0.1247
0.124706
0.124713
0.124719
0.124726
0.124732
0.124739
0.124745
0.124752
0.124758
0.124765
0.124771
0.124778
0.124784
0.124791
0.124798
0.124804
0.124811
0.124817
0.124824
0.12483
0.124837
0.124844
0.12485
0.124857
0.124863
0.12487
0.124877
0.124883
0.12489
0.124896
0.124903
0.12491
0.124916
0.124923
0.124929
0.124936
0.124943
0.124949
0.124956
0.124963
0.124969
0.124976
0.124983
0.124989
0.124996
0.125003
0.125009
0.125016
0.125023
0.12503
0.125036
0.125043
0.12505
0.125056
0.125064
0.12507
0.125078
0.125082
0.125093
0.125087
0.125087
0.125087
1
0.776803
0.557827
0.44688
0.384104
0.343747
0.315514
0.294609
0.278474
0.265612
0.255087
0.246284
0.238783
0.232291
0.226598
0.221548
0.217027
0.212946
0.209236
0.205845
0.202727
0.199849
0.197181
0.1947
0.192385
0.190219
0.188188
0.186278
0.184478
0.182779
0.181174