# vtk DataFile Version 2.0
FlowField
ASCII
DATASET STRUCTURED_GRID
DIMENSIONS 400 1 200
POINTS 80000 float
0 0 0
0.08 0 0
0.16 0 0
0.24 0 0
0.32 0 0
0.4 0 0
0.48 0 0
0.56 0 0
0.64 0 0
0.72 0 0
0.8 0 0
0.88 0 0
0.96 0 0
1.04 0 0
1.12 0 0
1.2 0 0
1.28 0 0
1.36 0 0
1.44 0 0
1.52 0 0
1.6 0 0
1.68 0 0
1.76 0 0
1.84 0 0
1.92 0 0
2 0 0
2.08 0 0
2.16 0 0
2.24 0 0
2.32 0 0
2.4 0 0
2.48 0 0
2.56 0 0
2.64 0 0
2.72 0 0
2.8 0 0
2.88 0 0
2.96 0 0
3.04 0 0
3.12 0 0
3.2 0 0
3.28 0 0
3.36 0 0
3.44 0 0
3.52 0 0
3.6 0 0
3.68 0 0
3.76 0 0
3.84 0 0
3.92 0 0
4 0 0
4.08 0 0
4.16 0 0
4.24 0 0
4.32 0 0
4.4 0 0
4.48 0 0
4.56 0 0
4.64 0 0
4.72 0 0
4.8 0 0
4.88 0 0
4.96 0 0
5.04 0 0
5.12 0 0
5.2 0 0
5.28 0 0
5.36 0 0
5.44 0 0
5.52 0 0
5.6 0 0
5.68 0 0
5.76 0 0
5.84 0 0
5.92 0 0
6 0 0
6.08 0 0
6.16 0 0
6.24 0 0
6.32 0 0
6.4 0 0
6.48 0 0
6.56 0 0
6.64 0 0
6.72 0 0
6.8 0 0
6.88 0 0
6.96 0 0
7.04 0 0
7.12 0 0
7.2 0 0
7.28 0 0
7.36 0 0
7.44 0 0
7.52 0 0
7.6 0 0
7.68 0 0
7.76 0 0
7.84 0 0
7.92 0 0
8 0 0
8.08 0 0
8.16 0 0
8.24 0 0
8.32 0 0
8.4 0 0
8.48 0 0
8.56 0 0
8.64 0 0
8.72 0 0
8.8 0 0
8.88 0 0
8.96 0 0
9.04 0 0
9.12 0 0
9.2 0 0
9.28 0 0
9.36 0 0
9.44 0 0
9.52 0 0
9.6 0 0
9.68 0 0
9.76 0 0
9.84 0 0
9.92 0 0
10 0 0
10.08 0 0
10.16 0 0
10.24 0 0
10.32 0 0
10.4 0 0
10.48 0 0
10.56 0 0
10.64 0 0
10.72 0 0
10.8 0 0
10.88 0 0
10.96 0 0
11.04 0 0
11.12 0 0
11.2 0 0
11.28 0 0
11.36 0 0
11.44 0 0
11.52 0 0
11.6 0 0
11.68 0 0
11.76 0 0
11.84 0 0
11.92 0 0
12 0 0
12.08 0 0
12.16 0 0
12.24 0 0
12.32 0 0
12.4 0 0
12.48 0 0
12.56 0 0
12.64 0 0
12.72 0 0
12.8 0 0
12.88 0 0
12.96 0 0
13.04 0 0
13.12 0 0
13.2 0 0
13.28 0 0
13.36 0 0
13.44 0 0
13.52 0 0
13.6 0 0
13.68 0 0
13.76 0 0
13.84 0 0
13.92 0 0
14 0 0
14.08 0 0
14.16 0 0
14.24 0 0
14.32 0 0
14.4 0 0
14.48 0 0
14.56 0 0
14.64 0 0
14.72 0 0
14.8 0 0
14.88 0 0
14.96 0 0
15.04 0 0
15.12 0 0
15.2 0 0
15.28 0 0
15.36 0 0
15.44 0 0
15.52 0 0
15.6 0 0
15.68 0 0
15.76 0 0
15.84 0 0
15.92 0 0
16 0 0
16.08 0 0
16.16 0 0
16.24 0 0
16.32 0 0
16.4 0 0
16.48 0 0
16.56 0 0
16.64 0 0
16.72 0 0
16.8 0 0
16.88 0 0
16.96 0 0
17.04 0 0
17.12 0 0
17.2 0 0
17.28 0 0
17.36 0 0
17.44 0 0
17.52 0 0
17.6 0 0
17.68 0 0
17.76 0 0
17.84 0 0
17.92 0 0
18 0 0
18.08 0 0
18.16 0 0
18.24 0 0
18.32 0 0
18.4 0 0
18.48 0 0
18.56 0 0
18.64 0 0
18.72 0 0
18.8 0 0
18.88 0 0
18.96 0 0
19.04 0 0
19.12 0 0
19.2 0 0
19.28 0 0
19.36 0 0
19.44 0 0
19.52 0 0
19.6 0 0
19.68 0 0
19.76 0 0
19.84 0 0
19.92 0 0
20 0 0
20.08 0 0
20.16 0 0
20.24 0 0
20.32 0 0
20.4 0 0
20.48 0 0
20.56 0 0
20.64 0 0
20.72 0 0
20.8 0 0
20.88 0 0
20.96 0 0
21.04 0 0
21.12 0 0
21.2 0 0
21.28 0 0
21.36 0 0
21.44 0 0
21.52 0 0
21.6 0 0
21.68 0 0
21.76 0 0
21.84 0 0
21.92 0 0
22 0 0
22.08 0 0
22.16 0 0
22.24 0 0
22.32 0 0
22.4 0 0
22.48 0 0
22.56 0 0
22.64 0 0
22.72 0 0
22.8 0 0
22.88 0 0
22.96 0 0
23.04 0 0
23.12 0 0
23.2 0 0
23.28 0 0
23.36 0 0
23.44 0 0
23.52 0 0
23.6 0 0
23.68 0 0
23.76 0 0
23.84 0 0
23.92 0 0
24 0 0
24.08 0 0
24.16 0 0
24.24 0 0
24.32 0 0
24.4 0 0
24.48 0 0
24.56 0 0
24.64 0 0
24.72 0 0
24.8 0 0
24.88 0 0
24.96 0 0
25.04 0 0
25.12 0 0
25.2 0 0
25.28 0 0
25.36 0 0
25.44 0 0
25.52 0 0
25.6 0 0
25.68 0 0
25.76 0 0
25.84 0 0
25.92 0 0
26 0 0
26.08 0 0
26.16 0 0
26.24 0 0
26.32 0 0
26.4 0 0
26.48 0 0
26.56 0 0
26.64 0 0
26.72 0 0
26.8 0 0
26.88 0 0
26.96 0 0
27.04 0 0
27.12 0 0
27.2 0 0
27.28 0 0
27.36 0 0
27.44 0 0
27.52 0 0
27.6 0 0
27.68 0 0
27.76 0 0
27.84 0 0
27.92 0 0
28 0 0
28.08 0 0
28.16 0 0
28.24 0 0
28.32 0 0
28.4 0 0
28.48 0 0
28.56 0 0
28.64 0 0
28.72 0 0
28.8 0 0
28.88 0 0
28.96 0 0
29.04 0 0
29.12 0 0
29.2 0 0
29.28 0 0
29.36 0 0
29.44 0 0
29.52 0 0
29.6 0 0
29.68 0 0
29.76 0 0
29.84 0 0
29.92 0 0
30 0 0
30.08 0 0
30.16 0 0
30.24 0 0
30.32 0 0
30.4 0 0
30.48 0 0
30.56 0 0
30.64 0 0
30.72 0 0
30.8 0 0
30.88 0 0
30.96 0 0
31.04 0 0
31.12 0 0
31.2 0 0
31.28 0 0
31.36 0 0
31.44 0 0
31.52 0 0
31.6 0 0
31.68 0 0
31.76 0 0
31.84 0 0
31.92 0 0
0 0.005 0
0.08 0.005 0
0.16 0.005 0
0.24 0.005 0
0.32 0.005 0
0.4 0.005 0
0.48 0.005 0
0.56 0.005 0
0.64 0.005 0
0.72 0.005 0
0.8 0.005 0
0.88 0.005 0
0.96 0.005 0
1.04 0.005 0
1.12 0.005 0
1.2 0.005 0
1.28 0.005 0
1.36 0.005 0
1.44 0.005 0
1.52 0.005 0
1.6 0.005 0
1.68 0.005 0
1.76 0.005 0
1.84 0.005 0
1.92 0.005 0
2 0.005 0
2.08 0.005 0
2.16 0.005 0
2.24 0.005 0
2.32 0.005 0
2.4 0.005 0
2.48 0.005 0
2.56 0.005 0
2.64 0.005 0
2.72 0.005 0
2.8 0.005 0
2.88 0.005 0
2.96 0.005 0
3.04 0.005 0
3.12 0.005 0
3.2 0.005 0
3.28 0.005 0
3.36 0.005 0
3.44 0.005 0
3.52 0.005 0
3.6 0.005 0
3.68 0.005 0
3.76 0.005 0
3.84 0.005 0
3.92 0.005 0
4 0.005 0
4.08 0.005 0
4.16 0.005 0
4.24 0.005 0
4.32 0.005 0
4.4 0.005 0
4.48 0.005 0
4.56 0.005 0
4.64 0.005 0
4.72 0.005 0
4.8 0.005 0
4.88 0.005 0
4.96 0.005 0
5.04 0.005 0
5.12 0.005 0
5.2 0.005 0
5.28 0.005 0
5.36 0.005 0
5.44 0.005 0
5.52 0.005 0
5.6 0.005 0
5.68 0.005 0
5.76 0.005 0
5.84 0.005 0
5.92 0.005 0
6 0.005 0
6.08 0.005 0
6.16 0.005 0
6.24 0.005 0
6.32 0.005 0
6.4 0.005 0
6.48 0.005 0
6.56 0.005 0
6.64 0.005 0
6.72 0.005 0
6.8 0.005 0
6.88 0.005 0
6.96 0.005 0
7.04 0.005 0
7.12 0.005 0
7.2 0.005 0
7.28 0.005 0
7.36 0.005 0
7.44 0.005 0
7.52 0.005 0
7.6 0.005 0
7.68 0.005 0
7.76 0.005 0
7.84 0.005 0
7.92 0.005 0
8 0.005 0
8.08 0.005 0
8.16 0.005 0
8.24 0.005 0
8.32 0.005 0
8.4 0.005 0
8.48 0.005 0
8.56 0.005 0
8.64 0.005 0
8.72 0.005 0
8.8 0.005 0
8.88 0.005 0
8.96 0.005 0
9.04 0.005 0
9.12 0.005 0
9.2 0.005 0
9.28 0.005 0
9.36 0.005 0
9.44 0.005 0
9.52 0.005 0
9.6 0.005 0
9.68 0.005 0
9.76 0.005 0
9.84 0.005 0
9.92 0.005 0
10 0.005 0
10.08 0.005 0
10.16 0.005 0
10.24 0.005 0
10.32 0.005 0
10.4 0.005 0
10.48 0.005 0
10.56 0.005 0
10.64 0.005 0
10.72 0.005 0
10.8 0.005 0
10.88 0.005 0
10.96 0.005 0
11.04 0.005 0
11.12 0.005 0
11.2 0.005 0
11.28 0.005 0
11.36 0.005 0
11.44 0.005 0
11.52 0.005 0
11.6 0.005 0
11.68 0.005 0
11.76 0.005 0
11.84 0.005 0
11.92 0.005 0
12 0.005 0
12.08 0.005 0
12.16 0.005 0
12.24 0.005 0
12.32 0.005 0
12.4 0.005 0
12.48 0.005 0
12.56 0.005 0
12.64 0.005 0
12.72 0.005 0
12.8 0.005 0
12.88 0.005 0
12.96 0.005 0
13.04 0.005 0
13.12 0.005 0
13.2 0.005 0
13.28 0.005 0
13.36 0.005 0
13.44 0.005 0
13.52 0.005 0
13.6 0.005 0
13.68 0.005 0
13.76 0.005 0
13.84 0.005 0
13.92 0.005 0
14 0.005 0
14.08 0.005 0
14.16 0.005 0
14.24 0.005 0
14.32 0.005 0
14.4 0.005 0
14.48 0.005 0
14.56 0.005 0
14.64 0.005 0
14.72 0.005 0
14.8 0.005 0
14.88 0.005 0
14.96 0.005 0
15.04 0.005 0
15.12 0.005 0
15.2 0.005 0
15.28 0.005 0
15.36 0.005 0
15.44 0.005 0
15.52 0.005 0
15.6 0.005 0
15.68 0.005 0
15.76 0.005 0
15.84 0.005 0
15.92 0.005 0
16 0.005 0
16.08 0.005 0
16.16 0.005 0
16.24 0.005 0
16.32 0.005 0
16.4 0.005 0
16.48 0.005 0
16.56 0.005 0
16.64 0.005 0
16.72 0.005 0
16.8 0.005 0
16.88 0.005 0
16.96 0.005 0
17.04 0.005 0
17.12 0.005 0
17.2 0.005 0
17.28 0.005 0
17.36 0.005 0
17.44 0.005 0
17.52 0.005 0
17.6 0.005 0
17.68 0.005 0
17.76 0.005 0
17.84 0.005 0
17.92 0.005 0
18 0.005 0
18.08 0.005 0
18.16 0.005 0
18.24 0.005 0
18.32 0.005 0
18.4 0.005 0
18.48 0.005 0
18.56 0.005 0
18.64 0.005 0
18.72 0.005 0
18.8 0.005 0
18.88 0.005 0
18.96 0.005 0
19.04 0.005 0
19.12 0.005 0
19.2 0.005 0
19.28 0.005 0
19.36 0.005 0
19.44 0.005 0
19.52 0.005 0
19.6 0.005 0
19.68 0.005 0
19.76 0.005 0
19.84 0.005 0
19.92 0.005 0
20 0.005 0
20.08 0.005 0
20.16 0.005 0
20.24 0.005 0
20.32 0.005 0
20.4 0.005 0
20.48 0.005 0
20.56 0.005 0
20.64 0.005 0
20.72 0.005 0
20.8 0.005 0
20.88 0.005 0
20.96 0.005 0
21.04 0.005 0
21.12 0.005 0
21.2 0.005 0
21.28 0.005 0
21.36 0.005 0
21.44 0.005 0
21.52 0.005 0
21.6 0.005 0
21.68 0.005 0
21.76 0.005 0
21.84 0.005 0
21.92 0.005 0
22 0.005 0
22.08 0.005 0
22.16 0.005 0
22.24 0.005 0
22.32 0.005 0
22.4 0.005 0
22.48 0.005 0
22.56 0.005 0
22.64 0.005 0
22.72 0.005 0
22.8 0.005 0
22.88 0.005 0
22.96 0.005 0
23.04 0.005 0
23.12 0.005 0
23.2 0.005 0
23.28 0.005 0
23.36 0.005 0
23.44 0.005 0
23.52 0.005 0
23.6 0.005 0
23.68 0.005 0
23.76 0.005 0
23.84 0.005 0
23.92 0.005 0
24 0.005 0
24.08 0.005 0
24.16 0.005 0
24.24 0.005 0
24.32 0.005 0
24.4 0.005 0
24.48 0.005 0
24.56 0.005 0
24.64 0.005 0
24.72 0.005 0
24.8 0.005 0
24.88 0.005 0
24.96 0.005 0
25.04 0.005 0
25.12 0.005 0
25.2 0.005 0
25.28 0.005 0
25.36 0.005 0
25.44 0.005 0
25.52 0.005 0
25.6 0.005 0
25.68 0.005 0
25.76 0.005 0
25.84 0.005 0
25.92 0.005 0
26 0.005 0
26.08 0.005 0
26.16 0.005 0
26.24 0.005 0
26.32 0.005 0
26.4 0.005 0
26.48 0.005 0
26.56 0.005 0
26.64 0.005 0
26.72 0.005 0
26.8 0.005 0
26.88 0.005 0
26.96 0.005 0
27.04 0.005 0
27.12 0.005 0
27.2 0.005 0
27.28 0.005 0
27.36 0.005 0
27.44 0.005 0
27.52 0.005 0
27.6 0.005 0
27.68 0.005 0
27.76 0.005 0
27.84 0.005 0
27.92 0.005 0
28 0.005 0
28.08 0.005 0
28.16 0.005 0
28.24 0.005 0
28.32 0.005 0
28.4 0.005 0
28.48 0.005 0
28.56 0.005 0
28.64 0.005 0
28.72 0.005 0
28.8 0.005 0
28.88 0.005 0
28.96 0.005 0
29.04 0.005 0
29.12 0.005 0
29.2 0.005 0
29.28 0.005 0
29.36 0.005 0
29.44 0.005 0
29.52 0.005 0
29.6 0.005 0
29.68 0.005 0
29.76 0.005 0
29.84 0.005 0
29.92 0.005 0
30 0.005 0
30.08 0.005 0
30.16 0.005 0
30.24 0.005 0
30.32 0.005 0
30.4 0.005 0
30.48 0.005 0
30.56 0.005 0
30.64 0.005 0
30.72 0.005 0
30.8 0.005 0
30.88 0.005 0
30.96 0.005 0
31.04 0.005 0
31.12 0.005 0
31.2 0.005 0
31.28 0.005 0
31.36 0.005 0
31.44 0.005 0
31.52 0.005 0
31.6 0.005 0
31.68 0.005 0
31.76 0.005 0
31.84 0.005 0
31.92 0.005 0
0 0.01 0
0.08 0.01 0
0.16 0.01 0
0.24 0.01 0
0.32 0.01 0
0.4 0.01 0
0.48 0.01 0
0.56 0.01 0
0.64 0.01 0
0.72 0.01 0
0.8 0.01 0
0.88 0.01 0
0.96 0.01 0
1.04 0.01 0
1.12 0.01 0
1.2 0.01 0
1.28 0.01 0
1.36 0.01 0
1.44 0.01 0
1.52 0.01 0
1.6 0.01 0
1.68 0.01 0
1.76 0.01 0
1.84 0.01 0
1.92 0.01 0
2 0.01 0
2.08 0.01 0
2.16 0.01 0
2.24 0.01 0
2.32 0.01 0
2.4 0.01 0
2.48 0.01 0
2.56 0.01 0
2.64 0.01 0
2.72 0.01 0
2.8 0.01 0
2.88 0.01 0
2.96 0.01 0
3.04 0.01 0
3.12 0.01 0
3.2 0.01 0
3.28 0.01 0
3.36 0.01 0
3.44 0.01 0
3.52 0.01 0
3.6 0.01 0
3.68 0.01 0
3.76 0.01 0
3.84 0.01 0
3.92 0.01 0
4 0.01 0
4.08 0.01 0
4.16 0.01 0
4.24 0.01 0
4.32 0.01 0
4.4 0.01 0
4.48 0.01 0
4.56 0.01 0
4.64 0.01 0
4.72 0.01 0
4.8 0.01 0
4.88 0.01 0
4.96 0.01 0
5.04 0.01 0
5.12 0.01 0
[...]
POINT_DATA 80000

SCALARS p float 1
LOOKUP_TABLE default
1
69.8807
69.579
69.5379
69.5178
69.5031
69.4909
69.4809
69.4729
69.4664
69.4605
69.4547
69.4487
69.4426
69.4362
69.4296
69.4229
69.4161
69.4092
69.4022
69.3952
69.3882
69.3811
69.374
69.367
69.3599
69.3528
69.3457
69.3386
69.3314
69.3243
69.3172
69.31
69.3029
69.2957
69.2886
69.2814
69.2743
69.2671
69.2599
69.2527
69.2455
69.2383
69.2311
69.2238
69.2166
69.2094
69.2021
69.1949
69.1876
69.1803
69.173
69.1657
69.1584
69.1511
69.1438
69.1365
69.1291
69.1217
69.1144
69.107
69.0996
69.0921
69.0847
69.0772
69.0697
69.0622
69.0546
69.0471
69.0394
69.0318
69.0241
69.0163
69.0085
69.0006
68.9926
68.9846
68.9765
68.9682
68.9599
68.9514
68.9428
68.934
68.9251
68.9159
68.9065
68.8969
68.887
68.8769
68.8663
68.8555
68.8442
68.8325
68.8203
68.8077
68.7944
68.7805
68.766
68.7507
68.7347
68.7178
68.6999
68.6811
68.6613
68.6403
68.6182
68.5947
68.5699
68.5436
68.5159
68.4865
68.4554
68.4225
68.3878
68.3511
68.3124
68.2716
68.2287
68.1834
68.1359
68.0859
68.0335
67.9786
67.9212
67.8612
67.7985
67.7333
67.6654
67.5948
67.5216
67.4458
67.3674
67.2864
67.203
67.1171
67.0288
66.9383
66.8456
66.7508
66.654
66.5555
66.4552
66.3534
66.2502
66.1458
66.0403
65.9339
65.8268
65.7192
65.6112
65.503
65.3949
65.2869
65.1793
65.0723
64.966
64.8605
64.7562
64.653
64.5512
64.4508
64.3521
64.2551
64.16
64.0668
63.9756
63.8865
63.7997
63.715
63.6326
63.5525
63.4748
63.3994
63.3263
63.2556
63.1872
63.1211
63.0573
62.9957
62.9363
62.8791
62.8239
62.7708
62.7196
62.6704
62.6229
62.5773
62.5333
62.4909
62.4501
62.4108
62.3729
62.3362
62.3009
62.2667
62.2337
62.2017
62.1708
62.1407
62.1116
62.0832
62.0557
62.0288
62.0026
61.9771
61.9521
61.9277
61.9037
61.8803
61.8573
61.8347
61.8125
61.7906
61.769
61.7478
61.7268
61.7061
61.6857
61.6655
61.6455
61.6256
61.606
61.5866
61.5673
61.5482
61.5292
61.5104
61.4916
61.473
61.4546
61.4362
61.4179
61.3997
61.3817
61.3637
61.3458
61.3279
61.3102
61.2925
61.2749
61.2574
61.2399
61.2225
61.2051
61.1878
61.1706
61.1534
61.1363
61.1192
61.1021
61.0851
61.0682
61.0512
61.0344
61.0175
61.0007
60.984
60.9673
60.9506
60.9339
60.9173
60.9007
60.8841
60.8676
60.8511
60.8346
60.8181
60.8017
60.7853
60.7689
60.7525
60.7362
60.7199
60.7036
60.6873
60.671
60.6548
60.6386
60.6223
60.6061
60.5899
60.5738
60.5576
60.5415
60.5253
60.5092
60.4931
60.477
60.4609
60.4448
60.4287
60.4127
60.3966
60.3805
60.3645
60.3485
60.3324
60.3164
60.3003
60.2843
60.2683
60.2523
60.2362
60.2202
60.2042
60.1882
60.1722
60.1561
60.1401
60.1241
60.1081
60.092
60.076
60.06
60.0439
60.0279
60.0118
59.9958
59.9797
59.9636
59.9476
59.9315
59.9154
59.8993
59.8832
59.8671
59.851
59.8349
59.8187
59.8026
59.7864
59.7703
59.7541
59.7379
59.7217
59.7055
59.6893
59.673
59.6568
59.6405
59.6242
59.6079
59.5916
59.5753
59.559
59.5426
59.5263
59.5099
59.4935
59.4771
59.4606
59.4442
59.4277
59.4112
59.3947
59.3782
59.3616
59.345
59.3285
59.3118
59.2952
59.2786
59.2619
59.2452
59.2285
59.2117
59.195
59.1782
59.1613
59.1445
59.1276
59.1108
59.0938
59.0769
59.0599
59.0429
59.0259
59.0089
58.9918
58.9747
58.9575
58.9404
58.9232
58.906
58.8887
58.8714
58.8541
58.8367
58.8194
58.8019
58.7845
58.767
58.7495
58.7319
58.7143
58.6968
58.679
58.6614
58.644
0.5
69.8807
69.8807
69.579
69.5379
69.5178
69.5031
69.4909
69.4809
69.4729
69.4664
69.4605
69.4547
69.4487
69.4426
69.4362
69.4296
69.4229
69.4161
69.4092
69.4022
69.3952
69.3882
69.3811
69.374
69.367
69.3599
69.3528
69.3457
69.3386
69.3314
69.3243
69.3172
69.31
69.3029
69.2957
69.2886
69.2814
69.2743
69.2671
69.2599
69.2527
69.2455
69.2383
69.2311
69.2238
69.2166
69.2094
69.2021
69.1949
69.1876
69.1803
69.173
69.1657
69.1584
69.1511
69.1438
69.1365
69.1291
69.1217
69.1144
69.107
69.0996
69.0921
69.0847
69.0772
69.0697
69.0622
69.0546
69.0471
69.0394
69.0318
69.0241
69.0163
69.0085
69.0006
68.9926
68.9846
68.9765
68.9682
68.9599
68.9514
68.9428
68.934
68.9251
68.9159
68.9065
68.8969
68.887
68.8769
68.8663
68.8555
68.8442
68.8325
68.8203
68.8077
68.7944
68.7805
68.766
68.7507
68.7347
68.7178
68.6999
68.6811
68.6613
68.6403
68.6182
68.5947
68.5699
68.5436
68.5159
68.4865
68.4554
68.4225
68.3878
68.3511
68.3124
68.2716
68.2287
68.1834
68.1359
68.0859
68.0335
67.9786
67.9212
67.8612
67.7985
67.7333
67.6654
67.5948
67.5216
67.4458
67.3674
67.2864
67.203
67.1171
67.0288
66.9383
66.8456
66.7508
66.654
66.5555
66.4552
66.3534
66.2502
66.1458
66.0403
65.9339
65.8268
65.7192
65.6112
65.503
65.3949
65.2869
65.1793
65.0723
64.966
64.8605
64.7562
64.653
64.5512
64.4508
64.3521
64.2551
64.16
64.0668
63.9756
63.8865
63.7997
63.715
63.6326
63.5525
63.4748
63.3994
63.3263
63.2556
63.1872
63.1211
63.0573
62.9957
62.9363
62.8791
62.8239
62.7708
62.7196
62.6704
62.6229
62.5773
62.5333
62.4909
62.4501
62.4108
62.3729
62.3362
62.3009
62.2667
62.2337
62.2017
62.1708
62.1407
62.1116
62.0832
62.0557
62.0288
62.0026
61.9771
61.9521
61.9277
61.9037
61.8803
61.8573
61.8347
61.8125
61.7906
61.769
61.7478
61.7268
61.7061
61.6857
61.6655
61.6455
61.6256
61.606
61.5866
61.5673
61.5482
61.5292
61.5104
61.4916
61.473
61.4546
61.4362
61.4179
61.3997
61.3817
61.3637
61.3458
61.3279
61.3102
61.2925
61.2749
61.2574
61.2399
61.2225
61.2051
61.1878
61.1706
61.1534
61.1363
61.1192
61.1021
61.0851
61.0682
61.0512
61.0344
61.0175
61.0007
60.984
60.9673
60.9506
60.9339
60.9173
60.9007
60.8841
60.8676
60.8511
60.8346
60.8181
60.8017
60.7853
60.7689
60.7525
60.7362
60.7199
60.7036
60.6873
60.671
60.6548
60.6386
60.6223
60.6061
60.5899
60.5738
60.5576
60.5415
60.5253
60.5092
60.4931
60.477
60.4609
60.4448
60.4287
60.4127
60.3966
60.3805
60.3645
60.3485
60.3324
60.3164
60.3003
60.2843
60.2683
60.2523
60.2362
60.2202
60.2042
60.1882
60.1722
60.1561
60.1401
60.1241
60.1081
60.092
60.076
60.06
60.0439
60.0279
60.0118
59.9958
59.9797
59.9636
59.9476
59.9315
59.9154
59.8993
59.8832
59.8671
59.851
59.8349
59.8187
59.8026
59.7864
59.7703
59.7541
59.7379
59.7217
59.7055
59.6893
59.673
59.6568
59.6405
59.6242
59.6079
59.5916
59.5753
59.559
59.5426
59.5263
59.5099
59.4935
59.4771
59.4606
59.4442
59.4277
59.4112
59.3947
59.3782
59.3616
59.345
59.3285
59.3118
59.2952
59.2786
59.2619
59.2452
59.2285
59.2117
59.195
59.1782
59.1613
59.1445
59.1276
59.1108
59.0938
59.0769
59.0599
59.0429
59.0259
59.0089
58.9918
58.9747
58.9575
58.9404
58.9232
58.906
58.8887
58.8714
58.8541
58.8367
58.8194
58.8019
58.7845
58.767
58.7495
58.7319
58.7143
58.6968
58.679
58.6614
58.644
58.644
69.8661
69.8661
69.5828
69.5391
69.5184
69.5035
69.4912
69.4811
69.473
69.4664
69.4605
69.4547
69.4487
69.4426
69.4362
69.4296
69.4229
69.4161
69.4092
69.4022
69.3952
69.3882
69.3811
69.374
69.367
69.3599
69.3528
69.3457
69.3386
69.3314
69.3243
69.3172
69.31
69.3029
69.2958
69.2886
69.2814
69.2743
69.2671
69.2599
69.2527
69.2455
69.2383
69.2311
69.2238
69.2166
69.2094
69.2021
69.1949
69.1876
69.1803
69.173
69.1657
69.1584
69.1511
69.1438
69.1365
69.1291
69.1217
69.1144
69.107
69.0996
69.0921
69.0847
69.0772
69.0697
69.0622
69.0547
69.0471
69.0394
69.0318
69.0241
69.0163
69.0085
69.0006
68.9926
68.9846
68.9765
68.9682
68.9599
68.9514
68.9428
68.934
68.9251
68.9159
68.9065
68.8969
68.887
68.8768
68.8663
68.8555
68.8442
68.8325
68.8203
68.8076
68.7944
68.7805
68.766
68.7507
68.7346
68.7177
68.6999
68.6811
68.6613
68.6403
68.6181
68.5947
68.5698
68.5436
68.5158
68.4864
68.4553
68.4225
68.3877
68.3511
68.3124
68.2716
68.2286
68.1833
68.1358
68.0858
68.0334
67.9785
67.9211
67.8611
67.7984
67.7332
67.6653
67.5947
67.5215
67.4457
67.3673
67.2863
67.2028
67.1169
67.0287
66.9381
66.8454
66.7506
66.6539
66.5553
66.4551
66.3532
66.25
66.1456
66.0401
65.9337
65.8266
65.719
65.611
65.5029
65.3947
65.2868
65.1792
65.0721
64.9658
64.8604
64.756
64.6528
64.551
64.4507
64.352
64.255
64.1599
64.0667
63.9755
63.8864
63.7996
63.7149
63.6325
63.5525
63.4747
63.3993
63.3263
63.2555
63.1871
63.1211
63.0572
62.9957
62.9363
62.879
62.8239
62.7708
62.7196
62.6703
62.6229
62.5772
62.5333
62.4909
62.4501
62.4108
62.3728
62.3362
62.3009
62.2667
62.2337
62.2017
62.1708
62.1407
62.1116
62.0832
62.0556
62.0288
62.0026
61.9771
61.9521
61.9277
61.9037
61.8803
61.8573
61.8347
61.8124
61.7906
61.769
61.7478
61.7268
61.7061
61.6857
61.6655
61.6454
61.6256
61.606
61.5866
61.5673
61.5482
61.5292
61.5103
61.4916
61.473
61.4546
61.4362
61.4179
61.3997
61.3817
61.3637
61.3458
61.3279
61.3102
61.2925
61.2749
61.2574
61.2399
61.2225
61.2051
61.1878
61.1706
61.1534
61.1363
61.1192
61.1021
61.0851
61.0682
61.0512
61.0344
61.0175
61.0007
60.984
60.9673
60.9506
60.9339
60.9173
60.9007
60.8841
60.8676
60.8511
60.8346
60.8181
60.8017
60.7853
60.7689
60.7525
60.7362
60.7199
60.7036
60.6873
60.671
60.6548
60.6385
60.6223
60.6061
60.5899
60.5738
60.5576
60.5415
60.5253
60.5092
60.4931
60.477
60.4609
60.4448
60.4287
60.4127
60.3966
60.3805
60.3645
60.3484
60.3324
60.3164
60.3003
60.2843
60.2683
60.2523
60.2362
60.2202
60.2042
60.1882
60.1721
60.1561
60.1401
60.1241
60.1081
60.092
60.076
60.06
60.0439
60.0279
60.0118
59.9958
59.9797
59.9636
59.9476
59.9315
59.9154
59.8993
59.8832
59.8671
59.851
59.8349
59.8187
59.8026
59.7864
59.7703
59.7541
59.7379
59.7217
59.7055
59.6893
59.673
59.6568
59.6405
59.6242
59.6079
59.5916
59.5753
59.559
59.5426
59.5263
59.5099
59.4935
59.4771
59.4606
59.4442
59.4277
59.4112
59.3947
59.3782
59.3616
59.345
59.3285
59.3118
59.2952
59.2786
59.2619
59.2452
59.2285
59.2117
59.195
59.1782
59.1613
59.1445
59.1276
59.1108
59.0938
59.0769
59.0599
59.0429
59.0259
59.0089
58.9918
58.9747
58.9575
58.9404
58.9232
58.906
58.8887
58.8714
58.8541
58.8367
58.8194
58.8019
58.7845
58.767
58.7495
58.7319
58.7143
58.6968
58.679
58.6614
58.644
58.644
69.8501
69.8501
69.586
69.5403
69.519
69.5038
69.4914
69.4812
69.4731
69.4665
69.4605
69.4547
69.4487
69.4426
69.4362
69.4296
69.4229
69.4161
69.4092
69.4022
69.3952
69.3882
69.3811
69.374
69.367
69.3599
69.3528
69.3457
69.3386
69.3314
69.3243
69.3172
69.31
69.3029
69.2958
69.2886
69.2814
69.2743
69.2671
69.2599
69.2527
69.2455
69.2383
69.2311
69.2238
69.2166
69.2094
69.2021
69.1949
69.1876
69.1803
69.173
69.1657
69.1584
69.1511
69.1438
69.1365
69.1291
69.1217
69.1144
69.107
69.0996
69.0921
69.0847
69.0772
69.0697
69.0622
69.0546
69.0471
69.0394
69.0318
69.0241
69.0163
69.0085
69.0006
68.9926
68.9846
68.9765
68.9682
68.9599
68.9514
68.9428
68.934
68.9251
68.9159
68.9065
68.8969
68.887
68.8768
68.8663
68.8555
68.8442
68.8325
68.8203
68.8076
68.7944
68.7805
68.766
68.7507
68.7346
68.7177
68.6999
68.6811
68.6613
68.6403
68.6181
68.5946
68.5698
68.5436
68.5158
68.4864
68.4553
68.4224
68.3877
68.351
68.3123
68.2715
68.2285
68.1833
68.1357
68.0858
68.0334
67.9785
67.921
67.861
67.7984
67.7331
67.6652
67.5946
67.5214
67.4456
67.3672
67.2862
67.2028
67.1169
67.0286
66.9381
66.8454
66.7506
66.6538
66.5553
66.455
66.3532
66.25
66.1456
66.0401
65.9337
65.8266
65.719
65.611
65.5028
65.3947
65.2867
65.1792
65.0721
64.9658
64.8604
64.756
64.6528
64.551
64.4507
64.352
64.255
64.1599
64.0667
63.9755
63.8865
63.7996
63.7149
63.6325
63.5525
63.4747
63.3993
63.3263
63.2556
63.1872
63.1211
63.0573
62.9957
62.9363
62.8791
62.8239
62.7708
62.7196
62.6704
62.6229
62.5773
62.5333
62.4909
62.4501
62.4108
62.3729
62.3362
62.3009
62.2667
62.2337
62.2017
62.1708
62.1407
62.1116
62.0832
62.0557
62.0288
62.0026
61.9771
61.9521
61.9277
61.9038
61.8803
61.8573
61.8347
61.8125
61.7906
61.769
61.7478
61.7268
61.7061
61.6857
61.6655
61.6455
61.6256
61.606
61.5866
61.5673
61.5482
61.5292
61.5103
61.4916
61.473
61.4546
61.4362
61.4179
61.3997
61.3817
61.3637
61.3458
61.3279
61.3102
61.2925
61.2749
61.2574
61.2399
61.2225
61.2051
61.1878
61.1706
61.1534
61.1363
61.1192
61.1021
61.0851
61.0682
61.0512
61.0344
61.0175
61.0007
60.984
60.9673
60.9506
60.9339
60.9173
60.9007
60.8841
60.8676
60.8511
60.8346
60.8181
60.8017
60.7853
60.7689
60.7525
60.7362
60.7199
60.7036
60.6873
60.671
60.6548
60.6385
60.6223
60.6061
60.5899
60.5738
60.5576
60.5415
60.5253
60.5092
60.4931
60.477
60.4609
60.4448
60.4287
60.4127
60.3966
60.3805
60.3645
60.3484
60.3324
60.3164
60.3003
60.2843
60.2683
60.2523
60.2362
60.2202
60.2042
60.1882
60.1721
60.1561
60.1401
60.1241
60.108
60.092
60.076
60.06
60.0439
60.0279
60.0118
59.9958
59.9797
59.9636
59.9476
59.9315
59.9154
59.8993
59.8832
59.8671
59.851
59.8349
59.8187
59.8026
59.7864
59.7703
59.7541
59.7379
59.7217
59.7055
59.6893
59.673
59.6568
59.6405
59.6242
59.6079
59.5916
59.5753
59.559
59.5426
59.5263
59.5099
59.4935
59.477
59.4606
59.4442
59.4277
59.4112
59.3947
59.3782
59.3616
59.345
59.3284
59.3118
59.2952
59.2786
59.2619
59.2452
59.2285
59.2117
59.1949
59.1782
59.1613
59.1445
59.1276
59.1107
59.0938
59.0769
59.0599
59.0429
59.0259
59.0089
58.9918
58.9747
58.9575
58.9404
58.9232
58.906
58.8887
58.8714
58.8541
58.8367
58.8194
58.8019
58.7845
58.767
58.7495
58.7319
58.7143
58.6968
58.679
58.6614
58.6439
58.6439
69.8342
69.8342
69.5889
69.5415
69.5196
69.5042
69.4916
69.4814
69.4732
69.4665
69.4605
69.4547
69.4487
69.4426
69.4362
69.4296
69.4229
69.4161
69.4092
69.4022
69.3952
69.3882
69.3811
69.374
69.367
69.3599
69.3528
69.3457
69.3386
69.3314
69.3243
69.3172
69.31
69.3029
69.2957
69.2886
69.2814
69.2743
69.2671
69.2599
69.2527
69.2455
69.2383
69.2311
69.2238
69.2166
69.2094
69.2021
69.1949
69.1876
69.1803
69.173
69.1657
69.1584
69.1511
69.1438
69.1365
69.1291
69.1217
69.1144
69.107
69.0996
69.0921
69.0847
69.0772
69.0697
69.0622
69.0546
69.0471
69.0394
69.0318
69.0241
69.0163
69.0085
69.0006
68.9926
68.9846
68.9765
68.9682
68.9599
68.9514
68.9428
68.934
68.925
68.9159
68.9065
68.8969
68.887
68.8768
68.8663
68.8555
68.8442
68.8325
68.8203
68.8076
68.7944
68.7805
68.7659
68.7507
68.7346
68.7177
68.6999
68.6811
68.6612
68.6403
68.6181
68.5946
68.5698
68.5435
68.5158
68.4864
68.4553
68.4224
68.3877
68.351
68.3123
68.2715
68.2285
68.1833
68.1357
68.0857
68.0333
67.9784
67.921
67.861
67.7983
67.7331
67.6652
67.5946
67.5214
67.4456
67.3672
67.2862
67.2027
67.1168
67.0286
66.938
66.8453
66.7505
66.6538
66.5552
66.455
66.3532
66.25
66.1456
66.0401
65.9337
65.8266
65.719
65.611
65.5028
65.3947
65.2867
65.1791
65.0721
64.9658
64.8604
64.756
64.6528
64.551
64.4507
64.352
64.255
64.1599
64.0667
63.9755
63.8865
63.7996
63.7149
63.6326
63.5525
63.4747
63.3993
63.3263
63.2556
63.1872
63.1211
63.0573
62.9957
62.9363
62.8791
62.8239
62.7708
62.7196
62.6704
62.6229
62.5773
62.5333
62.491
62.4501
62.4108
62.3729
62.3363
62.3009
62.2668
62.2337
62.2018
62.1708
62.1407
62.1116
62.0832
62.0557
62.0288
62.0026
61.9771
61.9521
61.9277
61.9038
61.8803
61.8573
61.8347
61.8125
61.7906
61.769
61.7478
61.7268
61.7061
61.6857
61.6655
61.6455
61.6256
61.606
61.5866
61.5673
61.5482
61.5292
61.5104
61.4916
61.473
61.4546
61.4362
61.4179
61.3997
61.3817
61.3637
61.3458
61.3279
61.3102
61.2925
61.2749
61.2574
61.2399
61.2225
61.2051
61.1878
61.1706
61.1534
61.1363
61.1192
61.1021
61.0851
61.0682
61.0512
61.0344
61.0175
61.0007
60.984
60.9673
60.9506
60.9339
60.9173
60.9007
60.8841
60.8676
60.8511
60.8346
60.8181
60.8017
60.7853
60.7689
60.7525
60.7362
60.7199
60.7036
60.6873
60.671
60.6548
60.6385
60.6223
60.6061
60.5899
60.5738
60.5576
60.5415
60.5253
60.5092
60.4931
60.477
60.4609
60.4448
60.4287
60.4127
60.3966
60.3805
60.3645
60.3484
60.3324
60.3164
60.3003
60.2843
60.2683
60.2523
60.2362
60.2202
60.2042
60.1882
60.1721
60.1561
60.1401
60.1241
60.108
60.092
60.076
60.0599
60.0439
60.0279
60.0118
59.9958
59.9797
59.9636
59.9476
59.9315
59.9154
59.8993
59.8832
59.8671
59.851
59.8349
59.8187
59.8026
59.7864
59.7703
59.7541
59.7379
59.7217
59.7055
59.6893
59.673
59.6568
59.6405
59.6242
59.6079
59.5916
59.5753
59.559
59.5426
59.5263
59.5099
59.4935
59.477
59.4606
59.4442
59.4277
59.4112
59.3947
59.3782
59.3616
59.345
59.3284
59.3118
59.2952
59.2785
59.2619
59.2452
59.2285
59.2117
59.1949
59.1782
59.1613
59.1445
59.1276
59.1107
59.0938
59.0769
59.0599
59.0429
59.0259
59.0089
58.9918
58.9747
58.9575
58.9404
58.9232
58.9059
58.8887
58.8714
58.8541
58.8367
58.8194
58.8019
58.7845
58.767
58.7495
58.7319
58.7143
58.6967
58.679
58.6613
58.6439
58.6439
69.8191
69.8191
69.5916
69.5426
69.5202
69.5046
69.4919
69.4815
69.4733
69.4665
69.4605
69.4547
69.4487
69.4426
69.4362
69.4296
69.4229
69.4161
69.4092
69.4022
69.3952
69.3882
69.3811
69.374
69.367
69.3599
69.3528
69.3457
69.3386
69.3314
69.3243
69.3172
69.31
69.3029
69.2957
69.2886
69.2814
69.2742
69.2671
69.2599
69.2527
69.2455
69.2383
69.2311
69.2238
69.2166
69.2094
69.2021
69.1949
69.1876
69.1803
69.173
69.1657
69.1584
69.1511
69.1438
69.1364
69.1291
69.1217
69.1144
69.107
69.0996
69.0921
69.0847
69.0772
69.0697
69.0622
69.0546
69.0471
69.0394
69.0318
69.0241
69.0163
69.0085
69.0006
68.9926
68.9846
68.9765
68.9682
68.9599
68.9514
68.9428
68.934
68.925
68.9159
68.9065
68.8969
68.887
68.8768
68.8663
68.8555
68.8442
68.8325
68.8203
68.8076
68.7944
68.7805
68.7659
68.7507
68.7346
68.7177
68.6999
68.6811
68.6612
68.6402
68.6181
68.5946
68.5698
68.5435
68.5157
68.4863
68.4552
68.4224
68.3877
68.351
68.3123
68.2715
68.2285
68.1832
68.1357
68.0857
68.0333
67.9784
67.921
67.8609
67.7983
67.733
67.6651
67.5946
67.5214
67.4455
67.3671
67.2862
67.2027
67.1168
67.0285
66.938
66.8453
66.7505
66.6538
66.5552
66.4549
66.3531
66.2499
66.1455
66.04
65.9337
65.8266
65.7189
65.611
65.5028
65.3947
65.2867
65.1791
65.0721
64.9658
64.8604
64.756
64.6528
64.551
64.4507
64.352
64.255
64.1599
64.0667
63.9755
63.8865
63.7996
63.715
63.6326
63.5525
63.4748
63.3994
63.3263
63.2556
63.1872
63.1211
63.0573
62.9957
62.9363
62.8791
62.8239
62.7708
62.7197
62.6704
62.623
62.5773
62.5333
62.491
62.4502
62.4108
62.3729
62.3363
62.3009
62.2668
62.2337
62.2018
62.1708
62.1408
62.1116
62.0832
62.0557
62.0288
62.0026
61.9771
61.9521
61.9277
61.9038
61.8803
61.8573
61.8347
61.8125
61.7906
61.769
61.7478
61.7268
61.7061
61.6857
61.6655
61.6455
61.6257
61.606
61.5866
61.5673
61.5482
61.5292
61.5104
61.4916
61.473
61.4546
61.4362
61.4179
61.3997
61.3817
61.3637
61.3458
61.3279
61.3102
61.2925
61.2749
61.2574
61.2399
61.2225
61.2051
61.1878
61.1706
61.1534
61.1362
61.1192
61.1021
61.0851
61.0682
61.0512
61.0344
61.0175
61.0007
60.984
60.9673
60.9506
60.9339
60.9173
60.9007
60.8841
60.8676
60.8511
60.8346
60.8181
60.8017
60.7853
60.7689
60.7525
60.7362
60.7199
60.7036
60.6873
60.671
60.6548
60.6385
60.6223
60.6061
60.5899
60.5738
60.5576
60.5415
60.5253
60.5092
60.4931
60.477
60.4609
60.4448
60.4287
60.4127
60.3966
60.3805
60.3645
60.3484
60.3324
60.3164
60.3003
60.2843
60.2683
60.2522
60.2362
60.2202
60.2042
60.1882
60.1721
60.1561
60.1401
60.1241
60.108
60.092
60.076
60.0599
60.0439
60.0279
60.0118
59.9958
59.9797
59.9636
59.9476
59.9315
59.9154
59.8993
59.8832
59.8671
59.851
59.8349
59.8187
59.8026
59.7864
59.7703
59.7541
59.7379
59.7217
59.7055
59.6893
59.673
59.6568
59.6405
59.6242
59.6079
59.5916
59.5753
59.559
59.5426
59.5262
59.5099
59.4935
59.477
59.4606
59.4441
59.4277
59.4112
59.3947
59.3781
59.3616
59.345
59.3284
59.3118
59.2952
59.2785
59.2619
59.2452
59.2284
59.2117
59.1949
59.1781
59.1613
59.1445
59.1276
59.1107
59.0938
59.0769
59.0599
59.0429
59.0259
59.0088
58.9918
58.9747
58.9575
58.9404
58.9232
58.9059
58.8887
58.8714
58.8541
58.8367
58.8193
58.8019
58.7845
58.767
58.7495
58.7319
58.7143
58.6967
58.679
58.6613
58.6439
58.6439
69.8051
69.8051
69.5942
69.5437
69.5208
69.505
69.4921
69.4817
69.4733
69.4666
69.4606
69.4547
69.4487
69.4426
69.4362
69.4296
69.4229
69.4161
69.4092
69.4022
69.3952
69.3882
69.3811
69.374
69.3669
69.3599
69.3528
69.3457
69.3386
69.3314
69.3243
69.3172
69.31
69.3029
69.2957
69.2886
69.2814
69.2742
69.2671
69.2599
69.2527
69.2455
69.2383
69.2311
69.2238
69.2166
69.2094
69.2021
69.1948
69.1876
69.1803
69.173
69.1657
69.1584
69.1511
69.1438
69.1364
69.1291
69.1217
69.1144
69.107
69.0996
69.0921
69.0847
69.0772
69.0697
69.0622
69.0546
69.0471
69.0394
69.0318
69.0241
69.0163
69.0085
69.0006
68.9926
68.9846
68.9765
68.9682
68.9599
68.9514
68.9428
68.934
68.925
68.9159
68.9065
68.8969
68.887
68.8768
68.8663
68.8554
68.8442
68.8325
68.8203
68.8076
68.7943
68.7805
68.7659
68.7506
68.7346
68.7177
68.6999
68.6811
68.6612
68.6402
68.618
68.5946
68.5698
68.5435
68.5157
68.4863
68.4552
68.4224
68.3876
68.3509
68.3122
68.2714
68.2284
68.1832
68.1356
68.0857
68.0333
67.9784
67.9209