# vtk DataFile Version 2.0
FlowField
ASCII
DATASET STRUCTURED_GRID
DIMENSIONS 400 1 200
POINTS 80000 float
0 0 0
0.08 0 0
0.16 0 0
0.24 0 0
0.32 0 0
0.4 0 0
0.48 0 0
0.56 0 0
0.64 0 0
0.72 0 0
0.8 0 0
0.88 0 0
0.96 0 0
1.04 0 0
1.12 0 0
1.2 0 0
1.28 0 0
1.36 0 0
1.44 0 0
1.52 0 0
1.6 0 0
1.68 0 0
1.76 0 0
1.84 0 0
1.92 0 0
2 0 0
2.08 0 0
2.16 0 0
2.24 0 0
2.32 0 0
2.4 0 0
2.48 0 0
2.56 0 0
2.64 0 0
2.72 0 0
2.8 0 0
2.88 0 0
2.96 0 0
3.04 0 0
3.12 0 0
3.2 0 0
3.28 0 0
3.36 0 0
3.44 0 0
3.52 0 0
3.6 0 0
3.68 0 0
3.76 0 0
3.84 0 0
3.92 0 0
4 0 0
4.08 0 0
4.16 0 0
4.24 0 0
4.32 0 0
4.4 0 0
4.48 0 0
4.56 0 0
4.64 0 0
4.72 0 0
4.8 0 0
4.88 0 0
4.96 0 0
5.04 0 0
5.12 0 0
5.2 0 0
5.28 0 0
5.36 0 0
5.44 0 0
5.52 0 0
5.6 0 0
5.68 0 0
5.76 0 0
5.84 0 0
5.92 0 0
6 0 0
6.08 0 0
6.16 0 0
6.24 0 0
6.32 0 0
6.4 0 0
6.48 0 0
6.56 0 0
6.64 0 0
6.72 0 0
6.8 0 0
6.88 0 0
6.96 0 0
7.04 0 0
7.12 0 0
7.2 0 0
7.28 0 0
7.36 0 0
7.44 0 0
7.52 0 0
7.6 0 0
7.68 0 0
7.76 0 0
7.84 0 0
7.92 0 0
8 0 0
8.08 0 0
8.16 0 0
8.24 0 0
8.32 0 0
8.4 0 0
8.48 0 0
8.56 0 0
8.64 0 0
8.72 0 0
8.8 0 0
8.88 0 0
8.96 0 0
9.04 0 0
9.12 0 0
9.2 0 0
9.28 0 0
9.36 0 0
9.44 0 0
9.52 0 0
9.6 0 0
9.68 0 0
9.76 0 0
9.84 0 0
9.92 0 0
10 0 0
10.08 0 0
10.16 0 0
10.24 0 0
10.32 0 0
10.4 0 0
10.48 0 0
10.56 0 0
10.64 0 0
10.72 0 0
10.8 0 0
10.88 0 0
10.96 0 0
11.04 0 0
11.12 0 0
11.2 0 0
11.28 0 0
11.36 0 0
11.44 0 0
11.52 0 0
11.6 0 0
11.68 0 0
11.76 0 0
11.84 0 0
11.92 0 0
12 0 0
12.08 0 0
12.16 0 0
12.24 0 0
12.32 0 0
12.4 0 0
12.48 0 0
12.56 0 0
12.64 0 0
12.72 0 0
12.8 0 0
12.88 0 0
12.96 0 0
13.04 0 0
13.12 0 0
13.2 0 0
13.28 0 0
13.36 0 0
13.44 0 0
13.52 0 0
13.6 0 0
13.68 0 0
13.76 0 0
13.84 0 0
13.92 0 0
14 0 0
14.08 0 0
14.16 0 0
14.24 0 0
14.32 0 0
14.4 0 0
14.48 0 0
14.56 0 0
14.64 0 0
14.72 0 0
14.8 0 0
14.88 0 0
14.96 0 0
15.04 0 0
15.12 0 0
15.2 0 0
15.28 0 0
15.36 0 0
15.44 0 0
15.52 0 0
15.6 0 0
15.68 0 0
15.76 0 0
15.84 0 0
15.92 0 0
16 0 0
16.08 0 0
16.16 0 0
16.24 0 0
16.32 0 0
16.4 0 0
16.48 0 0
16.56 0 0
16.64 0 0
16.72 0 0
16.8 0 0
16.88 0 0
16.96 0 0
17.04 0 0
17.12 0 0
17.2 0 0
17.28 0 0
17.36 0 0
17.44 0 0
17.52 0 0
17.6 0 0
17.68 0 0
17.76 0 0
17.84 0 0
17.92 0 0
18 0 0
18.08 0 0
18.16 0 0
18.24 0 0
18.32 0 0
18.4 0 0
18.48 0 0
18.56 0 0
18.64 0 0
18.72 0 0
18.8 0 0
18.88 0 0
18.96 0 0
19.04 0 0
19.12 0 0
19.2 0 0
19.28 0 0
19.36 0 0
19.44 0 0
19.52 0 0
19.6 0 0
19.68 0 0
19.76 0 0
19.84 0 0
19.92 0 0
20 0 0
20.08 0 0
20.16 0 0
20.24 0 0
20.32 0 0
20.4 0 0
20.48 0 0
20.56 0 0
20.64 0 0
20.72 0 0
20.8 0 0
20.88 0 0
20.96 0 0
21.04 0 0
21.12 0 0
21.2 0 0
21.28 0 0
21.36 0 0
21.44 0 0
21.52 0 0
21.6 0 0
21.68 0 0
21.76 0 0
21.84 0 0
21.92 0 0
22 0 0
22.08 0 0
22.16 0 0
22.24 0 0
22.32 0 0
22.4 0 0
22.48 0 0
22.56 0 0
22.64 0 0
22.72 0 0
22.8 0 0
22.88 0 0
22.96 0 0
23.04 0 0
23.12 0 0
23.2 0 0
23.28 0 0
23.36 0 0
23.44 0 0
23.52 0 0
23.6 0 0
23.68 0 0
23.76 0 0
23.84 0 0
23.92 0 0
24 0 0
24.08 0 0
24.16 0 0
24.24 0 0
24.32 0 0
24.4 0 0
24.48 0 0
24.56 0 0
24.64 0 0
24.72 0 0
24.8 0 0
24.88 0 0
24.96 0 0
25.04 0 0
25.12 0 0
25.2 0 0
25.28 0 0
25.36 0 0
25.44 0 0
25.52 0 0
25.6 0 0
25.68 0 0
25.76 0 0
25.84 0 0
25.92 0 0
26 0 0
26.08 0 0
26.16 0 0
26.24 0 0
26.32 0 0
26.4 0 0
26.48 0 0
26.56 0 0
26.64 0 0
26.72 0 0
26.8 0 0
26.88 0 0
26.96 0 0
27.04 0 0
27.12 0 0
27.2 0 0
27.28 0 0
27.36 0 0
27.44 0 0
27.52 0 0
27.6 0 0
27.68 0 0
27.76 0 0
27.84 0 0
27.92 0 0
28 0 0
28.08 0 0
28.16 0 0
28.24 0 0
28.32 0 0
28.4 0 0
28.48 0 0
28.56 0 0
28.64 0 0
28.72 0 0
28.8 0 0
28.88 0 0
28.96 0 0
29.04 0 0
29.12 0 0
29.2 0 0
29.28 0 0
29.36 0 0
29.44 0 0
29.52 0 0
29.6 0 0
29.68 0 0
29.76 0 0
29.84 0 0
29.92 0 0
30 0 0
30.08 0 0
30.16 0 0
30.24 0 0
30.32 0 0
30.4 0 0
30.48 0 0
30.56 0 0
30.64 0 0
30.72 0 0
30.8 0 0
30.88 0 0
30.96 0 0
31.04 0 0
31.12 0 0
31.2 0 0
31.28 0 0
31.36 0 0
31.44 0 0
31.52 0 0
31.6 0 0
31.68 0 0
31.76 0 0
31.84 0 0
31.92 0 0
0 0.005 0
0.08 0.005 0
0.16 0.005 0
0.24 0.005 0
0.32 0.005 0
0.4 0.005 0
0.48 0.005 0
0.56 0.005 0
0.64 0.005 0
0.72 0.005 0
0.8 0.005 0
0.88 0.005 0
0.96 0.005 0
1.04 0.005 0
1.12 0.005 0
1.2 0.005 0
1.28 0.005 0
1.36 0.005 0
1.44 0.005 0
1.52 0.005 0
1.6 0.005 0
1.68 0.005 0
1.76 0.005 0
1.84 0.005 0
1.92 0.005 0
2 0.005 0
2.08 0.005 0
2.16 0.005 0
2.24 0.005 0
2.32 0.005 0
2.4 0.005 0
2.48 0.005 0
2.56 0.005 0
2.64 0.005 0
2.72 0.005 0
2.8 0.005 0
2.88 0.005 0
2.96 0.005 0
3.04 0.005 0
3.12 0.005 0
3.2 0.005 0
3.28 0.005 0
3.36 0.005 0
3.44 0.005 0
3.52 0.005 0
3.6 0.005 0
3.68 0.005 0
3.76 0.005 0
3.84 0.005 0
3.92 0.005 0
4 0.005 0
4.08 0.005 0
4.16 0.005 0
4.24 0.005 0
4.32 0.005 0
4.4 0.005 0
4.48 0.005 0
4.56 0.005 0
4.64 0.005 0
4.72 0.005 0
4.8 0.005 0
4.88 0.005 0
4.96 0.005 0
5.04 0.005 0
5.12 0.005 0
5.2 0.005 0
5.28 0.005 0
5.36 0.005 0
5.44 0.005 0
5.52 0.005 0
5.6 0.005 0
5.68 0.005 0
5.76 0.005 0
5.84 0.005 0
5.92 0.005 0
6 0.005 0
6.08 0.005 0
6.16 0.005 0
6.24 0.005 0
6.32 0.005 0
6.4 0.005 0
6.48 0.005 0
6.56 0.005 0
6.64 0.005 0
6.72 0.005 0
6.8 0.005 0
6.88 0.005 0
6.96 0.005 0
7.04 0.005 0
7.12 0.005 0
7.2 0.005 0
7.28 0.005 0
7.36 0.005 0
7.44 0.005 0
7.52 0.005 0
7.6 0.005 0
7.68 0.005 0
7.76 0.005 0
7.84 0.005 0
7.92 0.005 0
8 0.005 0
8.08 0.005 0
8.16 0.005 0
8.24 0.005 0
8.32 0.005 0
8.4 0.005 0
8.48 0.005 0
8.56 0.005 0
8.64 0.005 0
8.72 0.005 0
8.8 0.005 0
8.88 0.005 0
8.96 0.005 0
9.04 0.005 0
9.12 0.005 0
9.2 0.005 0
9.28 0.005 0
9.36 0.005 0
9.44 0.005 0
9.52 0.005 0
9.6 0.005 0
9.68 0.005 0
9.76 0.005 0
9.84 0.005 0
9.92 0.005 0
10 0.005 0
10.08 0.005 0
10.16 0.005 0
10.24 0.005 0
10.32 0.005 0
10.4 0.005 0
10.48 0.005 0
10.56 0.005 0
10.64 0.005 0
10.72 0.005 0
10.8 0.005 0
10.88 0.005 0
10.96 0.005 0
11.04 0.005 0
11.12 0.005 0
11.2 0.005 0
11.28 0.005 0
11.36 0.005 0
11.44 0.005 0
11.52 0.005 0
11.6 0.005 0
11.68 0.005 0
11.76 0.005 0
11.84 0.005 0
11.92 0.005 0
12 0.005 0
12.08 0.005 0
12.16 0.005 0
12.24 0.005 0
12.32 0.005 0
12.4 0.005 0
12.48 0.005 0
12.56 0.005 0
12.64 0.005 0
12.72 0.005 0
12.8 0.005 0
12.88 0.005 0
12.96 0.005 0
13.04 0.005 0
13.12 0.005 0
13.2 0.005 0
13.28 0.005 0
13.36 0.005 0
13.44 0.005 0
13.52 0.005 0
13.6 0.005 0
13.68 0.005 0
13.76 0.005 0
13.84 0.005 0
13.92 0.005 0
14 0.005 0
14.08 0.005 0
14.16 0.005 0
14.24 0.005 0
14.32 0.005 0
14.4 0.005 0
14.48 0.005 0
14.56 0.005 0
14.64 0.005 0
14.72 0.005 0
14.8 0.005 0
14.88 0.005 0
14.96 0.005 0
15.04 0.005 0
15.12 0.005 0
15.2 0.005 0
15.28 0.005 0
15.36 0.005 0
15.44 0.005 0
15.52 0.005 0
15.6 0.005 0
15.68 0.005 0
15.76 0.005 0
15.84 0.005 0
15.92 0.005 0
16 0.005 0
16.08 0.005 0
16.16 0.005 0
16.24 0.005 0
16.32 0.005 0
16.4 0.005 0
16.48 0.005 0
16.56 0.005 0
16.64 0.005 0
16.72 0.005 0
16.8 0.005 0
16.88 0.005 0
16.96 0.005 0
17.04 0.005 0
17.12 0.005 0
17.2 0.005 0
17.28 0.005 0
17.36 0.005 0
17.44 0.005 0
17.52 0.005 0
17.6 0.005 0
17.68 0.005 0
17.76 0.005 0
17.84 0.005 0
17.92 0.005 0
18 0.005 0
18.08 0.005 0
18.16 0.005 0
18.24 0.005 0
18.32 0.005 0
18.4 0.005 0
18.48 0.005 0
18.56 0.005 0
18.64 0.005 0
18.72 0.005 0
18.8 0.005 0
18.88 0.005 0
18.96 0.005 0
19.04 0.005 0
19.12 0.005 0
19.2 0.005 0
19.28 0.005 0
19.36 0.005 0
19.44 0.005 0
19.52 0.005 0
19.6 0.005 0
19.68 0.005 0
19.76 0.005 0
19.84 0.005 0
19.92 0.005 0
20 0.005 0
20.08 0.005 0
20.16 0.005 0
20.24 0.005 0
20.32 0.005 0
20.4 0.005 0
20.48 0.005 0
20.56 0.005 0
20.64 0.005 0
20.72 0.005 0
20.8 0.005 0
20.88 0.005 0
20.96 0.005 0
21.04 0.005 0
21.12 0.005 0
21.2 0.005 0
21.28 0.005 0
21.36 0.005 0
21.44 0.005 0
21.52 0.005 0
21.6 0.005 0
21.68 0.005 0
21.76 0.005 0
21.84 0.005 0
21.92 0.005 0
22 0.005 0
22.08 0.005 0
22.16 0.005 0
22.24 0.005 0
22.32 0.005 0
22.4 0.005 0
22.48 0.005 0
22.56 0.005 0
22.64 0.005 0
22.72 0.005 0
22.8 0.005 0
22.88 0.005 0
22.96 0.005 0
23.04 0.005 0
23.12 0.005 0
23.2 0.005 0
23.28 0.005 0
23.36 0.005 0
23.44 0.005 0
23.52 0.005 0
23.6 0.005 0
23.68 0.005 0
23.76 0.005 0
23.84 0.005 0
23.92 0.005 0
24 0.005 0
24.08 0.005 0
24.16 0.005 0
24.24 0.005 0
24.32 0.005 0
24.4 0.005 0
24.48 0.005 0
24.56 0.005 0
24.64 0.005 0
24.72 0.005 0
24.8 0.005 0
24.88 0.005 0
24.96 0.005 0
25.04 0.005 0
25.12 0.005 0
25.2 0.005 0
25.28 0.005 0
25.36 0.005 0
25.44 0.005 0
25.52 0.005 0
25.6 0.005 0
25.68 0.005 0
25.76 0.005 0
25.84 0.005 0
25.92 0.005 0
26 0.005 0
26.08 0.005 0
26.16 0.005 0
26.24 0.005 0
26.32 0.005 0
26.4 0.005 0
26.48 0.005 0
26.56 0.005 0
26.64 0.005 0
26.72 0.005 0
26.8 0.005 0
26.88 0.005 0
26.96 0.005 0
27.04 0.005 0
27.12 0.005 0
27.2 0.005 0
27.28 0.005 0
27.36 0.005 0
27.44 0.005 0
27.52 0.005 0
27.6 0.005 0
27.68 0.005 0
27.76 0.005 0
27.84 0.005 0
27.92 0.005 0
28 0.005 0
28.08 0.005 0
28.16 0.005 0
28.24 0.005 0
28.32 0.005 0
28.4 0.005 0
28.48 0.005 0
28.56 0.005 0
28.64 0.005 0
28.72 0.005 0
28.8 0.005 0
28.88 0.005 0
28.96 0.005 0
29.04 0.005 0
29.12 0.005 0
29.2 0.005 0
29.28 0.005 0
29.36 0.005 0
29.44 0.005 0
29.52 0.005 0
29.6 0.005 0
29.68 0.005 0
29.76 0.005 0
29.84 0.005 0
29.92 0.005 0
30 0.005 0
30.08 0.005 0
30.16 0.005 0
30.24 0.005 0
30.32 0.005 0
30.4 0.005 0
30.48 0.005 0
30.56 0.005 0
30.64 0.005 0
30.72 0.005 0
30.8 0.005 0
30.88 0.005 0
30.96 0.005 0
31.04 0.005 0
31.12 0.005 0
31.2 0.005 0
31.28 0.005 0
31.36 0.005 0
31.44 0.005 0
31.52 0.005 0
31.6 0.005 0
31.68 0.005 0
31.76 0.005 0
31.84 0.005 0
31.92 0.005 0
0 0.01 0
0.08 0.01 0
0.16 0.01 0
0.24 0.01 0
0.32 0.01 0
0.4 0.01 0
0.48 0.01 0
0.56 0.01 0
0.64 0.01 0
0.72 0.01 0
0.8 0.01 0
0.88 0.01 0
0.96 0.01 0
1.04 0.01 0
1.12 0.01 0
1.2 0.01 0
1.28 0.01 0
1.36 0.01 0
1.44 0.01 0
1.52 0.01 0
1.6 0.01 0
1.68 0.01 0
1.76 0.01 0
1.84 0.01 0
1.92 0.01 0
2 0.01 0
2.08 0.01 0
2.16 0.01 0
2.24 0.01 0
2.32 0.01 0
2.4 0.01 0
2.48 0.01 0
2.56 0.01 0
2.64 0.01 0
2.72 0.01 0
2.8 0.01 0
2.88 0.01 0
2.96 0.01 0
3.04 0.01 0
3.12 0.01 0
3.2 0.01 0
3.28 0.01 0
3.36 0.01 0
3.44 0.01 0
3.52 0.01 0
3.6 0.01 0
3.68 0.01 0
3.76 0.01 0
3.84 0.01 0
3.92 0.01 0
4 0.01 0
4.08 0.01 0
4.16 0.01 0
4.24 0.01 0
4.32 0.01 0
4.4 0.01 0
4.48 0.01 0
4.56 0.01 0
4.64 0.01 0
4.72 0.01 0
4.8 0.01 0
4.88 0.01 0
4.96 0.01 0
5.04 0.01 0
5.12 0.01 0
[...]
POINT_DATA 80000

SCALARS p float 1
LOOKUP_TABLE default
1
56.6529
56.3511
56.3099
56.2897
56.2752
56.2631
56.2523
56.2423
56.2328
56.2236
56.2148
56.2063
56.1982
56.1907
56.1837
56.1771
56.1708
56.1646
56.1585
56.1526
56.1467
56.141
56.1354
56.13
56.1245
56.1191
56.1138
56.1084
56.103
56.0976
56.0922
56.0868
56.0814
56.076
56.0707
56.0653
56.0599
56.0545
56.0491
56.0438
56.0384
56.033
56.0277
56.0223
56.017
56.0116
56.0063
56.0009
55.9956
55.9903
55.985
55.9796
55.9743
55.969
55.9637
55.9584
55.9531
55.9478
55.9425
55.9372
55.9319
55.9266
55.9214
55.9161
55.9108
55.9055
55.9003
55.895
55.8898
55.8845
55.8793
55.874
55.8688
55.8636
55.8583
55.8531
55.8479
55.8427
55.8375
55.8322
55.827
55.8218
55.8166
55.8114
55.8063
55.8011
55.7959
55.7907
55.7855
55.7804
55.7752
55.77
55.7649
55.7597
55.7546
55.7494
55.7443
55.7392
55.734
55.7289
55.7238
55.7187
55.7136
55.7084
55.7033
55.6982
55.6931
55.688
55.683
55.6779
55.6728
55.6677
55.6626
55.6576
55.6525
55.6474
55.6424
55.6373
55.6323
55.6273
55.6222
55.6172
55.6122
55.6071
55.6021
55.5971
55.5921
55.5871
55.5821
55.5771
55.5721
55.5671
55.5621
55.5571
55.5522
55.5472
55.5422
55.5373
55.5323
55.5274
55.5224
55.5175
55.5125
55.5076
55.5027
55.4978
55.4928
55.4879
55.483
55.4781
55.4732
55.4683
55.4634
55.4586
55.4537
55.4488
55.4439
55.4391
55.4342
55.4294
55.4245
55.4197
55.4149
55.41
55.4052
55.4004
55.3956
55.3908
55.386
55.3812
55.3764
55.3716
55.3668
55.362
55.3573
55.3525
55.3478
55.343
55.3383
55.3335
55.3288
55.3241
55.3194
55.3147
55.31
55.3053
55.3006
55.2959
55.2913
55.2866
55.282
55.2773
55.2727
55.2681
55.2635
55.2589
55.2543
55.2498
55.2452
55.2407
55.2362
55.2316
55.2271
55.2227
55.2182
55.2138
55.2093
55.2049
55.2005
55.1962
55.1918
55.1875
55.1832
55.179
55.1747
55.1705
55.1663
55.1622
55.1581
55.154
55.15
55.146
55.142
55.1381
55.1342
55.1304
55.1266
55.1228
55.1191
55.1155
55.1119
55.1084
55.105
55.1016
55.0982
55.095
55.0918
55.0887
55.0856
55.0827
55.0798
55.077
55.0742
55.0716
55.0691
55.0666
55.0642
55.062
55.0598
55.0577
55.0557
55.0539
55.0521
55.0505
55.0489
55.0475
55.0461
55.0449
55.0438
55.0428
55.0419
55.0412
55.0405
55.04
55.0395
55.0392
55.039
55.0389
55.039
55.0391
55.0394
55.0397
55.0402
55.0408
55.0415
55.0422
55.0431
55.0441
55.0452
55.0463
55.0476
55.0489
55.0503
55.0518
55.0534
55.055
55.0567
55.0585
55.0603
55.0622
55.0641
55.0661
55.0681
55.0702
55.0723
55.0744
55.0765
55.0787
55.0809
55.083
55.0852
55.0874
55.0896
55.0918
55.094
55.0962
55.0983
55.1004
55.1025
55.1046
55.1066
55.1087
55.1106
55.1126
55.1145
55.1163
55.1181
55.1199
55.1216
55.1232
55.1248
55.1263
55.1278
55.1293
55.1306
55.1319
55.1332
55.1344
55.1355
55.1366
55.1376
55.1386
55.1395
55.1404
55.1411
55.1419
55.1426
55.1432
55.1438
55.1443
55.1448
55.1452
55.1456
55.146
55.1463
55.1465
55.1468
55.147
55.1471
55.1472
55.1473
55.1474
55.1474
55.1475
55.1475
55.1474
55.1474
55.1473
55.1473
55.1472
55.1471
55.147
55.1469
55.1468
55.1467
55.1466
55.1465
55.1464
55.1464
55.1463
55.1462
55.1462
55.1462
55.1462
55.1462
55.1463
55.1464
55.1465
55.1466
55.1468
55.147
55.1472
55.1475
55.1478
55.1482
55.1486
55.1491
55.1496
55.1502
55.1508
55.1515
55.1523
55.1531
55.154
55.1549
55.156
55.157
55.1583
0.5
56.6529
56.6529
56.3511
56.3099
56.2897
56.2752
56.2631
56.2523
56.2423
56.2328
56.2236
56.2148
56.2063
56.1982
56.1907
56.1837
56.1771
56.1708
56.1646
56.1585
56.1526
56.1467
56.141
56.1354
56.13
56.1245
56.1191
56.1138
56.1084
56.103
56.0976
56.0922
56.0868
56.0814
56.076
56.0707
56.0653
56.0599
56.0545
56.0491
56.0438
56.0384
56.033
56.0277
56.0223
56.017
56.0116
56.0063
56.0009
55.9956
55.9903
55.985
55.9796
55.9743
55.969
55.9637
55.9584
55.9531
55.9478
55.9425
55.9372
55.9319
55.9266
55.9214
55.9161
55.9108
55.9055
55.9003
55.895
55.8898
55.8845
55.8793
55.874
55.8688
55.8636
55.8583
55.8531
55.8479
55.8427
55.8375
55.8322
55.827
55.8218
55.8166
55.8114
55.8063
55.8011
55.7959
55.7907
55.7855
55.7804
55.7752
55.77
55.7649
55.7597
55.7546
55.7494
55.7443
55.7392
55.734
55.7289
55.7238
55.7187
55.7136
55.7084
55.7033
55.6982
55.6931
55.688
55.683
55.6779
55.6728
55.6677
55.6626
55.6576
55.6525
55.6474
55.6424
55.6373
55.6323
55.6273
55.6222
55.6172
55.6122
55.6071
55.6021
55.5971
55.5921
55.5871
55.5821
55.5771
55.5721
55.5671
55.5621
55.5571
55.5522
55.5472
55.5422
55.5373
55.5323
55.5274
55.5224
55.5175
55.5125
55.5076
55.5027
55.4978
55.4928
55.4879
55.483
55.4781
55.4732
55.4683
55.4634
55.4586
55.4537
55.4488
55.4439
55.4391
55.4342
55.4294
55.4245
55.4197
55.4149
55.41
55.4052
55.4004
55.3956
55.3908
55.386
55.3812
55.3764
55.3716
55.3668
55.362
55.3573
55.3525
55.3478
55.343
55.3383
55.3335
55.3288
55.3241
55.3194
55.3147
55.31
55.3053
55.3006
55.2959
55.2913
55.2866
55.282
55.2773
55.2727
55.2681
55.2635
55.2589
55.2543
55.2498
55.2452
55.2407
55.2362
55.2316
55.2271
55.2227
55.2182
55.2138
55.2093
55.2049
55.2005
55.1962
55.1918
55.1875
55.1832
55.179
55.1747
55.1705
55.1663
55.1622
55.1581
55.154
55.15
55.146
55.142
55.1381
55.1342
55.1304
55.1266
55.1228
55.1191
55.1155
55.1119
55.1084
55.105
55.1016
55.0982
55.095
55.0918
55.0887
55.0856
55.0827
55.0798
55.077
55.0742
55.0716
55.0691
55.0666
55.0642
55.062
55.0598
55.0577
55.0557
55.0539
55.0521
55.0505
55.0489
55.0475
55.0461
55.0449
55.0438
55.0428
55.0419
55.0412
55.0405
55.04
55.0395
55.0392
55.039
55.0389
55.039
55.0391
55.0394
55.0397
55.0402
55.0408
55.0415
55.0422
55.0431
55.0441
55.0452
55.0463
55.0476
55.0489
55.0503
55.0518
55.0534
55.055
55.0567
55.0585
55.0603
55.0622
55.0641
55.0661
55.0681
55.0702
55.0723
55.0744
55.0765
55.0787
55.0809
55.083
55.0852
55.0874
55.0896
55.0918
55.094
55.0962
55.0983
55.1004
55.1025
55.1046
55.1066
55.1087
55.1106
55.1126
55.1145
55.1163
55.1181
55.1199
55.1216
55.1232
55.1248
55.1263
55.1278
55.1293
55.1306
55.1319
55.1332
55.1344
55.1355
55.1366
55.1376
55.1386
55.1395
55.1404
55.1411
55.1419
55.1426
55.1432
55.1438
55.1443
55.1448
55.1452
55.1456
55.146
55.1463
55.1465
55.1468
55.147
55.1471
55.1472
55.1473
55.1474
55.1474
55.1475
55.1475
55.1474
55.1474
55.1473
55.1473
55.1472
55.1471
55.147
55.1469
55.1468
55.1467
55.1466
55.1465
55.1464
55.1464
55.1463
55.1462
55.1462
55.1462
55.1462
55.1462
55.1463
55.1464
55.1465
55.1466
55.1468
55.147
55.1472
55.1475
55.1478
55.1482
55.1486
55.1491
55.1496
55.1502
55.1508
55.1515
55.1523
55.1531
55.154
55.1549
55.156
55.157
55.1583
55.1583
56.6384
56.6384
56.3549
56.3111
56.2903
56.2756
56.2634
56.2525
56.2424
56.2329
56.2237
56.2149
56.2064
56.1983
56.1907
56.1837
56.1771
56.1708
56.1646
56.1585
56.1526
56.1467
56.141
56.1354
56.13
56.1245
56.1191
56.1138
56.1084
56.103
56.0976
56.0922
56.0868
56.0814
56.076
56.0706
56.0653
56.0599
56.0545
56.0491
56.0438
56.0384
56.033
56.0277
56.0223
56.017
56.0116
56.0063
56.0009
55.9956
55.9903
55.985
55.9796
55.9743
55.969
55.9637
55.9584
55.9531
55.9478
55.9425
55.9372
55.9319
55.9266
55.9214
55.9161
55.9108
55.9055
55.9003
55.895
55.8898
55.8845
55.8793
55.874
55.8688
55.8636
55.8583
55.8531
55.8479
55.8427
55.8374
55.8322
55.827
55.8218
55.8166
55.8114
55.8063
55.8011
55.7959
55.7907
55.7855
55.7804
55.7752
55.77
55.7649
55.7597
55.7546
55.7494
55.7443
55.7392
55.734
55.7289
55.7238
55.7187
55.7135
55.7084
55.7033
55.6982
55.6931
55.688
55.6829
55.6779
55.6728
55.6677
55.6626
55.6576
55.6525
55.6474
55.6424
55.6373
55.6323
55.6273
55.6222
55.6172
55.6122
55.6071
55.6021
55.5971
55.5921
55.5871
55.5821
55.5771
55.5721
55.5671
55.5621
55.5571
55.5522
55.5472
55.5422
55.5373
55.5323
55.5274
55.5224
55.5175
55.5125
55.5076
55.5027
55.4978
55.4928
55.4879
55.483
55.4781
55.4732
55.4683
55.4634
55.4586
55.4537
55.4488
55.4439
55.4391
55.4342
55.4294
55.4245
55.4197
55.4148
55.41
55.4052
55.4004
55.3956
55.3908
55.3859
55.3812
55.3764
55.3716
55.3668
55.362
55.3573
55.3525
55.3477
55.343
55.3383
55.3335
55.3288
55.3241
55.3194
55.3147
55.31
55.3053
55.3006
55.2959
55.2913
55.2866
55.282
55.2773
55.2727
55.2681
55.2635
55.2589
55.2543
55.2498
55.2452
55.2407
55.2362
55.2316
55.2271
55.2227
55.2182
55.2138
55.2093
55.2049
55.2005
55.1962
55.1918
55.1875
55.1832
55.179
55.1747
55.1705
55.1663
55.1622
55.1581
55.154
55.15
55.146
55.142
55.1381
55.1342
55.1304
55.1266
55.1228
55.1191
55.1155
55.1119
55.1084
55.105
55.1016
55.0982
55.095
55.0918
55.0887
55.0856
55.0827
55.0798
55.077
55.0742
55.0716
55.0691
55.0666
55.0642
55.062
55.0598
55.0577
55.0557
55.0539
55.0521
55.0505
55.0489
55.0475
55.0461
55.0449
55.0438
55.0428
55.0419
55.0412
55.0405
55.04
55.0395
55.0392
55.039
55.039
55.039
55.0391
55.0394
55.0397
55.0402
55.0408
55.0415
55.0422
55.0431
55.0441
55.0452
55.0463
55.0476
55.0489
55.0503
55.0518
55.0534
55.055
55.0567
55.0585
55.0603
55.0622
55.0641
55.0661
55.0681
55.0702
55.0723
55.0744
55.0765
55.0787
55.0809
55.0831
55.0852
55.0874
55.0896
55.0918
55.094
55.0962
55.0983
55.1004
55.1025
55.1046
55.1067
55.1087
55.1106
55.1126
55.1145
55.1163
55.1181
55.1199
55.1216
55.1232
55.1248
55.1263
55.1278
55.1293
55.1306
55.1319
55.1332
55.1344
55.1355
55.1366
55.1376
55.1386
55.1395
55.1404
55.1411
55.1419
55.1426
55.1432
55.1438
55.1443
55.1448
55.1452
55.1456
55.146
55.1463
55.1465
55.1468
55.147
55.1471
55.1472
55.1473
55.1474
55.1474
55.1475
55.1474
55.1474
55.1474
55.1473
55.1473
55.1472
55.1471
55.147
55.1469
55.1468
55.1467
55.1466
55.1465
55.1464
55.1464
55.1463
55.1462
55.1462
55.1462
55.1462
55.1462
55.1463
55.1464
55.1465
55.1466
55.1468
55.147
55.1472
55.1475
55.1478
55.1482
55.1486
55.1491
55.1496
55.1502
55.1508
55.1515
55.1523
55.1531
55.154
55.1549
55.156
55.157
55.1583
55.1583
56.6224
56.6224
56.3581
56.3123
56.2909
56.276
56.2637
56.2527
56.2426
56.233
56.2238
56.215
56.2064
56.1983
56.1908
56.1837
56.1771
56.1708
56.1646
56.1586
56.1526
56.1467
56.141
56.1354
56.13
56.1245
56.1191
56.1138
56.1084
56.103
56.0976
56.0922
56.0868
56.0814
56.076
56.0706
56.0653
56.0599
56.0545
56.0491
56.0438
56.0384
56.033
56.0277
56.0223
56.017
56.0116
56.0063
56.0009
55.9956
55.9903
55.985
55.9796
55.9743
55.969
55.9637
55.9584
55.9531
55.9478
55.9425
55.9372
55.9319
55.9266
55.9214
55.9161
55.9108
55.9055
55.9003
55.895
55.8898
55.8845
55.8793
55.874
55.8688
55.8636
55.8583
55.8531
55.8479
55.8427
55.8374
55.8322
55.827
55.8218
55.8166
55.8114
55.8063
55.8011
55.7959
55.7907
55.7855
55.7804
55.7752
55.77
55.7649
55.7597
55.7546
55.7494
55.7443
55.7392
55.734
55.7289
55.7238
55.7187
55.7135
55.7084
55.7033
55.6982
55.6931
55.688
55.6829
55.6779
55.6728
55.6677
55.6626
55.6576
55.6525
55.6474
55.6424
55.6373
55.6323
55.6273
55.6222
55.6172
55.6122
55.6071
55.6021
55.5971
55.5921
55.5871
55.5821
55.5771
55.5721
55.5671
55.5621
55.5571
55.5522
55.5472
55.5422
55.5373
55.5323
55.5274
55.5224
55.5175
55.5125
55.5076
55.5027
55.4978
55.4928
55.4879
55.483
55.4781
55.4732
55.4683
55.4634
55.4586
55.4537
55.4488
55.4439
55.4391
55.4342
55.4294
55.4245
55.4197
55.4148
55.41
55.4052
55.4004
55.3956
55.3908
55.3859
55.3812
55.3764
55.3716
55.3668
55.362
55.3573
55.3525
55.3477
55.343
55.3383
55.3335
55.3288
55.3241
55.3194
55.3147
55.31
55.3053
55.3006
55.2959
55.2913
55.2866
55.282
55.2773
55.2727
55.2681
55.2635
55.2589
55.2543
55.2498
55.2452
55.2407
55.2362
55.2316
55.2271
55.2227
55.2182
55.2138
55.2093
55.2049
55.2005
55.1962
55.1918
55.1875
55.1832
55.179
55.1747
55.1705
55.1663
55.1622
55.1581
55.154
55.15
55.146
55.142
55.1381
55.1342
55.1304
55.1266
55.1228
55.1191
55.1155
55.1119
55.1084
55.105
55.1016
55.0982
55.095
55.0918
55.0887
55.0856
55.0827
55.0798
55.077
55.0742
55.0716
55.0691
55.0666
55.0642
55.062
55.0598
55.0577
55.0558
55.0539
55.0521
55.0505
55.0489
55.0475
55.0461
55.0449
55.0438
55.0428
55.0419
55.0412
55.0405
55.04
55.0395
55.0392
55.039
55.039
55.039
55.0391
55.0394
55.0397
55.0402
55.0408
55.0415
55.0422
55.0431
55.0441
55.0452
55.0463
55.0476
55.0489
55.0503
55.0518
55.0534
55.055
55.0567
55.0585
55.0603
55.0622
55.0641
55.0661
55.0681
55.0702
55.0723
55.0744
55.0765
55.0787
55.0809
55.0831
55.0852
55.0874
55.0896
55.0918
55.094
55.0962
55.0983
55.1004
55.1025
55.1046
55.1067
55.1087
55.1106
55.1126
55.1145
55.1163
55.1181
55.1199
55.1216
55.1232
55.1248
55.1263
55.1278
55.1293
55.1306
55.1319
55.1332
55.1344
55.1355
55.1366
55.1376
55.1386
55.1395
55.1404
55.1411
55.1419
55.1426
55.1432
55.1438
55.1443
55.1448
55.1452
55.1456
55.146
55.1463
55.1465
55.1468
55.147
55.1471
55.1472
55.1473
55.1474
55.1474
55.1475
55.1474
55.1474
55.1474
55.1473
55.1473
55.1472
55.1471
55.147
55.1469
55.1468
55.1467
55.1466
55.1465
55.1464
55.1464
55.1463
55.1462
55.1462
55.1462
55.1462
55.1462
55.1463
55.1464
55.1465
55.1466
55.1468
55.147
55.1472
55.1475
55.1478
55.1482
55.1486
55.1491
55.1496
55.1502
55.1508
55.1515
55.1523
55.1531
55.154
55.1549
55.156
55.157
55.1583
55.1583
56.6065
56.6065
56.361
56.3134
56.2915
56.2764
56.2639
56.2529
56.2427
56.2331
56.2239
56.215
56.2065
56.1984
56.1908
56.1838
56.1772
56.1708
56.1646
56.1586
56.1526
56.1467
56.141
56.1354
56.13
56.1245
56.1191
56.1138
56.1084
56.103
56.0976
56.0922
56.0868
56.0814
56.076
56.0706
56.0653
56.0599
56.0545
56.0491
56.0438
56.0384
56.033
56.0277
56.0223
56.017
56.0116
56.0063
56.0009
55.9956
55.9903
55.985
55.9796
55.9743
55.969
55.9637
55.9584
55.9531
55.9478
55.9425
55.9372
55.9319
55.9266
55.9214
55.9161
55.9108
55.9055
55.9003
55.895
55.8898
55.8845
55.8793
55.874
55.8688
55.8636
55.8583
55.8531
55.8479
55.8427
55.8374
55.8322
55.827
55.8218
55.8166
55.8114
55.8063
55.8011
55.7959
55.7907
55.7855
55.7804
55.7752
55.77
55.7649
55.7597
55.7546
55.7494
55.7443
55.7392
55.734
55.7289
55.7238
55.7187
55.7135
55.7084
55.7033
55.6982
55.6931
55.688
55.6829
55.6779
55.6728
55.6677
55.6626
55.6576
55.6525
55.6474
55.6424
55.6373
55.6323
55.6273
55.6222
55.6172
55.6122
55.6071
55.6021
55.5971
55.5921
55.5871
55.5821
55.5771
55.5721
55.5671
55.5621
55.5571
55.5522
55.5472
55.5422
55.5373
55.5323
55.5274
55.5224
55.5175
55.5125
55.5076
55.5027
55.4978
55.4928
55.4879
55.483
55.4781
55.4732
55.4683
55.4634
55.4586
55.4537
55.4488
55.4439
55.4391
55.4342
55.4294
55.4245
55.4197
55.4148
55.41
55.4052
55.4004
55.3956
55.3908
55.3859
55.3812
55.3764
55.3716
55.3668
55.362
55.3573
55.3525
55.3477
55.343
55.3383
55.3335
55.3288
55.3241
55.3194
55.3147
55.31
55.3053
55.3006
55.2959
55.2913
55.2866
55.282
55.2773
55.2727
55.2681
55.2635
55.2589
55.2543
55.2498
55.2452
55.2407
55.2362
55.2316
55.2271
55.2227
55.2182
55.2138
55.2093
55.2049
55.2005
55.1962
55.1918
55.1875
55.1832
55.179
55.1747
55.1705
55.1663
55.1622
55.1581
55.154
55.15
55.146
55.142
55.1381
55.1342
55.1304
55.1266
55.1228
55.1191
55.1155
55.1119
55.1084
55.105
55.1016
55.0982
55.095
55.0918
55.0887
55.0856
55.0827
55.0798
55.077
55.0742
55.0716
55.0691
55.0666
55.0642
55.062
55.0598
55.0577
55.0558
55.0539
55.0521
55.0505
55.0489
55.0475
55.0461
55.0449
55.0438
55.0428
55.0419
55.0412
55.0405
55.04
55.0395
55.0392
55.039
55.039
55.039
55.0391
55.0394
55.0397
55.0402
55.0408
55.0415
55.0422
55.0431
55.0441
55.0452
55.0463
55.0476
55.0489
55.0503
55.0518
55.0534
55.055
55.0567
55.0585
55.0603
55.0622
55.0641
55.0661
55.0681
55.0702
55.0723
55.0744
55.0765
55.0787
55.0809
55.0831
55.0852
55.0874
55.0896
55.0918
55.094
55.0962
55.0983
55.1004
55.1025
55.1046
55.1067
55.1087
55.1106
55.1126
55.1145
55.1163
55.1181
55.1199
55.1216
55.1232
55.1248
55.1263
55.1278
55.1293
55.1306
55.1319
55.1332
55.1344
55.1355
55.1366
55.1376
55.1386
55.1395
55.1404
55.1411
55.1419
55.1426
55.1432
55.1438
55.1443
55.1448
55.1452
55.1456
55.146
55.1463
55.1465
55.1468
55.147
55.1471
55.1472
55.1473
55.1474
55.1474
55.1475
55.1474
55.1474
55.1474
55.1473
55.1473
55.1472
55.1471
55.147
55.1469
55.1468
55.1467
55.1466
55.1465
55.1464
55.1464
55.1463
55.1462
55.1462
55.1462
55.1462
55.1462
55.1463
55.1464
55.1465
55.1466
55.1468
55.147
55.1472
55.1475
55.1478
55.1482
55.1486
55.1491
55.1496
55.1502
55.1508
55.1515
55.1523
55.1531
55.154
55.1549
55.156
55.157
55.1583
55.1583
56.5913
56.5913
56.3637
56.3146
56.2921
56.2767
56.2642
56.2531
56.2429
56.2332
56.224
56.2151
56.2065
56.1984
56.1908
56.1838
56.1772
56.1708
56.1647
56.1586
56.1526
56.1467
56.141
56.1354
56.13
56.1245
56.1191
56.1138
56.1084
56.103
56.0976
56.0922
56.0868
56.0814
56.076
56.0706
56.0653
56.0599
56.0545
56.0491
56.0438
56.0384
56.033
56.0277
56.0223
56.017
56.0116
56.0063
56.0009
55.9956
55.9903
55.985
55.9796
55.9743
55.969
55.9637
55.9584
55.9531
55.9478
55.9425
55.9372
55.9319
55.9266
55.9214
55.9161
55.9108
55.9055
55.9003
55.895
55.8898
55.8845
55.8793
55.874
55.8688
55.8636
55.8583
55.8531
55.8479
55.8427
55.8374
55.8322
55.827
55.8218
55.8166
55.8114
55.8063
55.8011
55.7959
55.7907
55.7855
55.7804
55.7752
55.77
55.7649
55.7597
55.7546
55.7494
55.7443
55.7392
55.734
55.7289
55.7238
55.7187
55.7135
55.7084
55.7033
55.6982
55.6931
55.688
55.6829
55.6779
55.6728
55.6677
55.6626
55.6576
55.6525
55.6474
55.6424
55.6373
55.6323
55.6273
55.6222
55.6172
55.6122
55.6071
55.6021
55.5971
55.5921
55.5871
55.5821
55.5771
55.5721
55.5671
55.5621
55.5571
55.5522
55.5472
55.5422
55.5373
55.5323
55.5274
55.5224
55.5175
55.5125
55.5076
55.5027
55.4978
55.4928
55.4879
55.483
55.4781
55.4732
55.4683
55.4634
55.4586
55.4537
55.4488
55.4439
55.4391
55.4342
55.4294
55.4245
55.4197
55.4148
55.41
55.4052
55.4004
55.3956
55.3908
55.3859
55.3812
55.3764
55.3716
55.3668
55.362
55.3573
55.3525
55.3477
55.343
55.3383
55.3335
55.3288
55.3241
55.3194
55.3147
55.31
55.3053
55.3006
55.2959
55.2913
55.2866
55.282
55.2773
55.2727
55.2681
55.2635
55.2589
55.2543
55.2498
55.2452
55.2407
55.2362
55.2316
55.2271
55.2227
55.2182
55.2138
55.2093
55.2049
55.2005
55.1962
55.1918
55.1875
55.1832
55.179
55.1747
55.1705
55.1663
55.1622
55.1581
55.154
55.15
55.146
55.142
55.1381
55.1342
55.1304
55.1266
55.1228
55.1191
55.1155
55.1119
55.1084
55.105
55.1016
55.0982
55.095
55.0918
55.0887
55.0856
55.0827
55.0798
55.077
55.0742
55.0716
55.0691
55.0666
55.0642
55.062
55.0598
55.0577
55.0558
55.0539
55.0521
55.0505
55.0489
55.0475
55.0461
55.0449
55.0438
55.0428
55.0419
55.0412
55.0405
55.04
55.0395
55.0392
55.039
55.039
55.039
55.0391
55.0394
55.0397
55.0402
55.0408
55.0415
55.0423
55.0431
55.0441
55.0452
55.0463
55.0476
55.0489
55.0503
55.0518
55.0534
55.055
55.0567
55.0585
55.0603
55.0622
55.0641
55.0661
55.0681
55.0702
55.0723
55.0744
55.0765
55.0787
55.0809
55.0831
55.0852
55.0874
55.0896
55.0918
55.094
55.0962
55.0983
55.1004
55.1025
55.1046
55.1067
55.1087
55.1106
55.1126
55.1145
55.1163
55.1181
55.1199
55.1216
55.1232
55.1248
55.1263
55.1278
55.1293
55.1306
55.1319
55.1332
55.1344
55.1355
55.1366
55.1376
55.1386
55.1395
55.1404
55.1411
55.1419
55.1426
55.1432
55.1438
55.1443
55.1448
55.1452
55.1456
55.146
55.1463
55.1465
55.1468
55.147
55.1471
55.1472
55.1473
55.1474
55.1474
55.1475
55.1474
55.1474
55.1474
55.1473
55.1473
55.1472
55.1471
55.147
55.1469
55.1468
55.1467
55.1466
55.1465
55.1464
55.1464
55.1463
55.1462
55.1462
55.1462
55.1462
55.1462
55.1463
55.1464
55.1465
55.1466
55.1468
55.147
55.1472
55.1475
55.1478
55.1482
55.1486
55.1491
55.1496
55.1502
55.1508
55.1515
55.1523
55.1531
55.154
55.1549
55.156
55.1571
55.1583
55.1583
56.5773
56.5773
56.3663
56.3157
56.2927
56.2771
56.2645
56.2533
56.243
56.2334
56.2241
56.2152
56.2066
56.1985
56.1909
56.1838
56.1772
56.1709
56.1647
56.1586
56.1526
56.1467
56.141
56.1354
56.13
56.1245
56.1191
56.1138
56.1084
56.103
56.0976
56.0922
56.0868
56.0814
56.076
56.0706
56.0653
56.0599
56.0545
56.0491
56.0438
56.0384
56.033
56.0277
56.0223
56.017
56.0116
56.0063
56.0009
55.9956
55.9903
55.985
55.9796
55.9743
55.969
55.9637
55.9584
55.9531
55.9478
55.9425
55.9372
55.9319
55.9266
55.9214
55.9161
55.9108
55.9055
55.9003
55.895
55.8898
55.8845
55.8793
55.874
55.8688
55.8636
55.8583
55.8531
55.8479
55.8427
55.8374
55.8322
55.827
55.8218
55.8166
55.8114
55.8063
55.8011
55.7959
55.7907
55.7855
55.7804
55.7752
55.77
55.7649
55.7597
55.7546
55.7494
55.7443
55.7392
55.734
55.7289
55.7238
55.7187
55.7135
55.7084
55.7033
55.6982
55.6931
55.688
55.6829
55.6779
55.6728
55.6677
55.6626
55.6576
55.6525
55.6474
55.6424
55.6373
55.6323
55.6273
55.6222
55.6172
55.6122
55.6071
55.6021
55.5971
55.5921
55.5871
55.5821
55.5771
55.5721
55.5671