# vtk DataFile Version 2.0
FlowField
ASCII
DATASET STRUCTURED_GRID
DIMENSIONS 400 1 200
POINTS 80000 float
0 0 0
0.08 0 0
0.16 0 0
0.24 0 0
0.32 0 0
0.4 0 0
0.48 0 0
0.56 0 0
0.64 0 0
0.72 0 0
0.8 0 0
0.88 0 0
0.96 0 0
1.04 0 0
1.12 0 0
1.2 0 0
1.28 0 0
1.36 0 0
1.44 0 0
1.52 0 0
1.6 0 0
1.68 0 0
1.76 0 0
1.84 0 0
1.92 0 0
2 0 0
2.08 0 0
2.16 0 0
2.24 0 0
2.32 0 0
2.4 0 0
2.48 0 0
2.56 0 0
2.64 0 0
2.72 0 0
2.8 0 0
2.88 0 0
2.96 0 0
3.04 0 0
3.12 0 0
3.2 0 0
3.28 0 0
3.36 0 0
3.44 0 0
3.52 0 0
3.6 0 0
3.68 0 0
3.76 0 0
3.84 0 0
3.92 0 0
4 0 0
4.08 0 0
4.16 0 0
4.24 0 0
4.32 0 0
4.4 0 0
4.48 0 0
4.56 0 0
4.64 0 0
4.72 0 0
4.8 0 0
4.88 0 0
4.96 0 0
5.04 0 0
5.12 0 0
5.2 0 0
5.28 0 0
5.36 0 0
5.44 0 0
5.52 0 0
5.6 0 0
5.68 0 0
5.76 0 0
5.84 0 0
5.92 0 0
6 0 0
6.08 0 0
6.16 0 0
6.24 0 0
6.32 0 0
6.4 0 0
6.48 0 0
6.56 0 0
6.64 0 0
6.72 0 0
6.8 0 0
6.88 0 0
6.96 0 0
7.04 0 0
7.12 0 0
7.2 0 0
7.28 0 0
7.36 0 0
7.44 0 0
7.52 0 0
7.6 0 0
7.68 0 0
7.76 0 0
7.84 0 0
7.92 0 0
8 0 0
8.08 0 0
8.16 0 0
8.24 0 0
8.32 0 0
8.4 0 0
8.48 0 0
8.56 0 0
8.64 0 0
8.72 0 0
8.8 0 0
8.88 0 0
8.96 0 0
9.04 0 0
9.12 0 0
9.2 0 0
9.28 0 0
9.36 0 0
9.44 0 0
9.52 0 0
9.6 0 0
9.68 0 0
9.76 0 0
9.84 0 0
9.92 0 0
10 0 0
10.08 0 0
10.16 0 0
10.24 0 0
10.32 0 0
10.4 0 0
10.48 0 0
10.56 0 0
10.64 0 0
10.72 0 0
10.8 0 0
10.88 0 0
10.96 0 0
11.04 0 0
11.12 0 0
11.2 0 0
11.28 0 0
11.36 0 0
11.44 0 0
11.52 0 0
11.6 0 0
11.68 0 0
11.76 0 0
11.84 0 0
11.92 0 0
12 0 0
12.08 0 0
12.16 0 0
12.24 0 0
12.32 0 0
12.4 0 0
12.48 0 0
12.56 0 0
12.64 0 0
12.72 0 0
12.8 0 0
12.88 0 0
12.96 0 0
13.04 0 0
13.12 0 0
13.2 0 0
13.28 0 0
13.36 0 0
13.44 0 0
13.52 0 0
13.6 0 0
13.68 0 0
13.76 0 0
13.84 0 0
13.92 0 0
14 0 0
14.08 0 0
14.16 0 0
14.24 0 0
14.32 0 0
14.4 0 0
14.48 0 0
14.56 0 0
14.64 0 0
14.72 0 0
14.8 0 0
14.88 0 0
14.96 0 0
15.04 0 0
15.12 0 0
15.2 0 0
15.28 0 0
15.36 0 0
15.44 0 0
15.52 0 0
15.6 0 0
15.68 0 0
15.76 0 0
15.84 0 0
15.92 0 0
16 0 0
16.08 0 0
16.16 0 0
16.24 0 0
16.32 0 0
16.4 0 0
16.48 0 0
16.56 0 0
16.64 0 0
16.72 0 0
16.8 0 0
16.88 0 0
16.96 0 0
17.04 0 0
17.12 0 0
17.2 0 0
17.28 0 0
17.36 0 0
17.44 0 0
17.52 0 0
17.6 0 0
17.68 0 0
17.76 0 0
17.84 0 0
17.92 0 0
18 0 0
18.08 0 0
18.16 0 0
18.24 0 0
18.32 0 0
18.4 0 0
18.48 0 0
18.56 0 0
18.64 0 0
18.72 0 0
18.8 0 0
18.88 0 0
18.96 0 0
19.04 0 0
19.12 0 0
19.2 0 0
19.28 0 0
19.36 0 0
19.44 0 0
19.52 0 0
19.6 0 0
19.68 0 0
19.76 0 0
19.84 0 0
19.92 0 0
20 0 0
20.08 0 0
20.16 0 0
20.24 0 0
20.32 0 0
20.4 0 0
20.48 0 0
20.56 0 0
20.64 0 0
20.72 0 0
20.8 0 0
20.88 0 0
20.96 0 0
21.04 0 0
21.12 0 0
21.2 0 0
21.28 0 0
21.36 0 0
21.44 0 0
21.52 0 0
21.6 0 0
21.68 0 0
21.76 0 0
21.84 0 0
21.92 0 0
22 0 0
22.08 0 0
22.16 0 0
22.24 0 0
22.32 0 0
22.4 0 0
22.48 0 0
22.56 0 0
22.64 0 0
22.72 0 0
22.8 0 0
22.88 0 0
22.96 0 0
23.04 0 0
23.12 0 0
23.2 0 0
23.28 0 0
23.36 0 0
23.44 0 0
23.52 0 0
23.6 0 0
23.68 0 0
23.76 0 0
23.84 0 0
23.92 0 0
24 0 0
24.08 0 0
24.16 0 0
24.24 0 0
24.32 0 0
24.4 0 0
24.48 0 0
24.56 0 0
24.64 0 0
24.72 0 0
24.8 0 0
24.88 0 0
24.96 0 0
25.04 0 0
25.12 0 0
25.2 0 0
25.28 0 0
25.36 0 0
25.44 0 0
25.52 0 0
25.6 0 0
25.68 0 0
25.76 0 0
25.84 0 0
25.92 0 0
26 0 0
26.08 0 0
26.16 0 0
26.24 0 0
26.32 0 0
26.4 0 0
26.48 0 0
26.56 0 0
26.64 0 0
26.72 0 0
26.8 0 0
26.88 0 0
26.96 0 0
27.04 0 0
27.12 0 0
27.2 0 0
27.28 0 0
27.36 0 0
27.44 0 0
27.52 0 0
27.6 0 0
27.68 0 0
27.76 0 0
27.84 0 0
27.92 0 0
28 0 0
28.08 0 0
28.16 0 0
28.24 0 0
28.32 0 0
28.4 0 0
28.48 0 0
28.56 0 0
28.64 0 0
28.72 0 0
28.8 0 0
28.88 0 0
28.96 0 0
29.04 0 0
29.12 0 0
29.2 0 0
29.28 0 0
29.36 0 0
29.44 0 0
29.52 0 0
29.6 0 0
29.68 0 0
29.76 0 0
29.84 0 0
29.92 0 0
30 0 0
30.08 0 0
30.16 0 0
30.24 0 0
30.32 0 0
30.4 0 0
30.48 0 0
30.56 0 0
30.64 0 0
30.72 0 0
30.8 0 0
30.88 0 0
30.96 0 0
31.04 0 0
31.12 0 0
31.2 0 0
31.28 0 0
31.36 0 0
31.44 0 0
31.52 0 0
31.6 0 0
31.68 0 0
31.76 0 0
31.84 0 0
31.92 0 0
0 0.005 0
0.08 0.005 0
0.16 0.005 0
0.24 0.005 0
0.32 0.005 0
0.4 0.005 0
0.48 0.005 0
0.56 0.005 0
0.64 0.005 0
0.72 0.005 0
0.8 0.005 0
0.88 0.005 0
0.96 0.005 0
1.04 0.005 0
1.12 0.005 0
1.2 0.005 0
1.28 0.005 0
1.36 0.005 0
1.44 0.005 0
1.52 0.005 0
1.6 0.005 0
1.68 0.005 0
1.76 0.005 0
1.84 0.005 0
1.92 0.005 0
2 0.005 0
2.08 0.005 0
2.16 0.005 0
2.24 0.005 0
2.32 0.005 0
2.4 0.005 0
2.48 0.005 0
2.56 0.005 0
2.64 0.005 0
2.72 0.005 0
2.8 0.005 0
2.88 0.005 0
2.96 0.005 0
3.04 0.005 0
3.12 0.005 0
3.2 0.005 0
3.28 0.005 0
3.36 0.005 0
3.44 0.005 0
3.52 0.005 0
3.6 0.005 0
3.68 0.005 0
3.76 0.005 0
3.84 0.005 0
3.92 0.005 0
4 0.005 0
4.08 0.005 0
4.16 0.005 0
4.24 0.005 0
4.32 0.005 0
4.4 0.005 0
4.48 0.005 0
4.56 0.005 0
4.64 0.005 0
4.72 0.005 0
4.8 0.005 0
4.88 0.005 0
4.96 0.005 0
5.04 0.005 0
5.12 0.005 0
5.2 0.005 0
5.28 0.005 0
5.36 0.005 0
5.44 0.005 0
5.52 0.005 0
5.6 0.005 0
5.68 0.005 0
5.76 0.005 0
5.84 0.005 0
5.92 0.005 0
6 0.005 0
6.08 0.005 0
6.16 0.005 0
6.24 0.005 0
6.32 0.005 0
6.4 0.005 0
6.48 0.005 0
6.56 0.005 0
6.64 0.005 0
6.72 0.005 0
6.8 0.005 0
6.88 0.005 0
6.96 0.005 0
7.04 0.005 0
7.12 0.005 0
7.2 0.005 0
7.28 0.005 0
7.36 0.005 0
7.44 0.005 0
7.52 0.005 0
7.6 0.005 0
7.68 0.005 0
7.76 0.005 0
7.84 0.005 0
7.92 0.005 0
8 0.005 0
8.08 0.005 0
8.16 0.005 0
8.24 0.005 0
8.32 0.005 0
8.4 0.005 0
8.48 0.005 0
8.56 0.005 0
8.64 0.005 0
8.72 0.005 0
8.8 0.005 0
8.88 0.005 0
8.96 0.005 0
9.04 0.005 0
9.12 0.005 0
9.2 0.005 0
9.28 0.005 0
9.36 0.005 0
9.44 0.005 0
9.52 0.005 0
9.6 0.005 0
9.68 0.005 0
9.76 0.005 0
9.84 0.005 0
9.92 0.005 0
10 0.005 0
10.08 0.005 0
10.16 0.005 0
10.24 0.005 0
10.32 0.005 0
10.4 0.005 0
10.48 0.005 0
10.56 0.005 0
10.64 0.005 0
10.72 0.005 0
10.8 0.005 0
10.88 0.005 0
10.96 0.005 0
11.04 0.005 0
11.12 0.005 0
11.2 0.005 0
11.28 0.005 0
11.36 0.005 0
11.44 0.005 0
11.52 0.005 0
11.6 0.005 0
11.68 0.005 0
11.76 0.005 0
11.84 0.005 0
11.92 0.005 0
12 0.005 0
12.08 0.005 0
12.16 0.005 0
12.24 0.005 0
12.32 0.005 0
12.4 0.005 0
12.48 0.005 0
12.56 0.005 0
12.64 0.005 0
12.72 0.005 0
12.8 0.005 0
12.88 0.005 0
12.96 0.005 0
13.04 0.005 0
13.12 0.005 0
13.2 0.005 0
13.28 0.005 0
13.36 0.005 0
13.44 0.005 0
13.52 0.005 0
13.6 0.005 0
13.68 0.005 0
13.76 0.005 0
13.84 0.005 0
13.92 0.005 0
14 0.005 0
14.08 0.005 0
14.16 0.005 0
14.24 0.005 0
14.32 0.005 0
14.4 0.005 0
14.48 0.005 0
14.56 0.005 0
14.64 0.005 0
14.72 0.005 0
14.8 0.005 0
14.88 0.005 0
14.96 0.005 0
15.04 0.005 0
15.12 0.005 0
15.2 0.005 0
15.28 0.005 0
15.36 0.005 0
15.44 0.005 0
15.52 0.005 0
15.6 0.005 0
15.68 0.005 0
15.76 0.005 0
15.84 0.005 0
15.92 0.005 0
16 0.005 0
16.08 0.005 0
16.16 0.005 0
16.24 0.005 0
16.32 0.005 0
16.4 0.005 0
16.48 0.005 0
16.56 0.005 0
16.64 0.005 0
16.72 0.005 0
16.8 0.005 0
16.88 0.005 0
16.96 0.005 0
17.04 0.005 0
17.12 0.005 0
17.2 0.005 0
17.28 0.005 0
17.36 0.005 0
17.44 0.005 0
17.52 0.005 0
17.6 0.005 0
17.68 0.005 0
17.76 0.005 0
17.84 0.005 0
17.92 0.005 0
18 0.005 0
18.08 0.005 0
18.16 0.005 0
18.24 0.005 0
18.32 0.005 0
18.4 0.005 0
18.48 0.005 0
18.56 0.005 0
18.64 0.005 0
18.72 0.005 0
18.8 0.005 0
18.88 0.005 0
18.96 0.005 0
19.04 0.005 0
19.12 0.005 0
19.2 0.005 0
19.28 0.005 0
19.36 0.005 0
19.44 0.005 0
19.52 0.005 0
19.6 0.005 0
19.68 0.005 0
19.76 0.005 0
19.84 0.005 0
19.92 0.005 0
20 0.005 0
20.08 0.005 0
20.16 0.005 0
20.24 0.005 0
20.32 0.005 0
20.4 0.005 0
20.48 0.005 0
20.56 0.005 0
20.64 0.005 0
20.72 0.005 0
20.8 0.005 0
20.88 0.005 0
20.96 0.005 0
21.04 0.005 0
21.12 0.005 0
21.2 0.005 0
21.28 0.005 0
21.36 0.005 0
21.44 0.005 0
21.52 0.005 0
21.6 0.005 0
21.68 0.005 0
21.76 0.005 0
21.84 0.005 0
21.92 0.005 0
22 0.005 0
22.08 0.005 0
22.16 0.005 0
22.24 0.005 0
22.32 0.005 0
22.4 0.005 0
22.48 0.005 0
22.56 0.005 0
22.64 0.005 0
22.72 0.005 0
22.8 0.005 0
22.88 0.005 0
22.96 0.005 0
23.04 0.005 0
23.12 0.005 0
23.2 0.005 0
23.28 0.005 0
23.36 0.005 0
23.44 0.005 0
23.52 0.005 0
23.6 0.005 0
23.68 0.005 0
23.76 0.005 0
23.84 0.005 0
23.92 0.005 0
24 0.005 0
24.08 0.005 0
24.16 0.005 0
24.24 0.005 0
24.32 0.005 0
24.4 0.005 0
24.48 0.005 0
24.56 0.005 0
24.64 0.005 0
24.72 0.005 0
24.8 0.005 0
24.88 0.005 0
24.96 0.005 0
25.04 0.005 0
25.12 0.005 0
25.2 0.005 0
25.28 0.005 0
25.36 0.005 0
25.44 0.005 0
25.52 0.005 0
25.6 0.005 0
25.68 0.005 0
25.76 0.005 0
25.84 0.005 0
25.92 0.005 0
26 0.005 0
26.08 0.005 0
26.16 0.005 0
26.24 0.005 0
26.32 0.005 0
26.4 0.005 0
26.48 0.005 0
26.56 0.005 0
26.64 0.005 0
26.72 0.005 0
26.8 0.005 0
26.88 0.005 0
26.96 0.005 0
27.04 0.005 0
27.12 0.005 0
27.2 0.005 0
27.28 0.005 0
27.36 0.005 0
27.44 0.005 0
27.52 0.005 0
27.6 0.005 0
27.68 0.005 0
27.76 0.005 0
27.84 0.005 0
27.92 0.005 0
28 0.005 0
28.08 0.005 0
28.16 0.005 0
28.24 0.005 0
28.32 0.005 0
28.4 0.005 0
28.48 0.005 0
28.56 0.005 0
28.64 0.005 0
28.72 0.005 0
28.8 0.005 0
28.88 0.005 0
28.96 0.005 0
29.04 0.005 0
29.12 0.005 0
29.2 0.005 0
29.28 0.005 0
29.36 0.005 0
29.44 0.005 0
29.52 0.005 0
29.6 0.005 0
29.68 0.005 0
29.76 0.005 0
29.84 0.005 0
29.92 0.005 0
30 0.005 0
30.08 0.005 0
30.16 0.005 0
30.24 0.005 0
30.32 0.005 0
30.4 0.005 0
30.48 0.005 0
30.56 0.005 0
30.64 0.005 0
30.72 0.005 0
30.8 0.005 0
30.88 0.005 0
30.96 0.005 0
31.04 0.005 0
31.12 0.005 0
31.2 0.005 0
31.28 0.005 0
31.36 0.005 0
31.44 0.005 0
31.52 0.005 0
31.6 0.005 0
31.68 0.005 0
31.76 0.005 0
31.84 0.005 0
31.92 0.005 0
0 0.01 0
0.08 0.01 0
0.16 0.01 0
0.24 0.01 0
0.32 0.01 0
0.4 0.01 0
0.48 0.01 0
0.56 0.01 0
0.64 0.01 0
0.72 0.01 0
0.8 0.01 0
0.88 0.01 0
0.96 0.01 0
1.04 0.01 0
1.12 0.01 0
1.2 0.01 0
1.28 0.01 0
1.36 0.01 0
1.44 0.01 0
1.52 0.01 0
1.6 0.01 0
1.68 0.01 0
1.76 0.01 0
1.84 0.01 0
1.92 0.01 0
2 0.01 0
2.08 0.01 0
2.16 0.01 0
2.24 0.01 0
2.32 0.01 0
2.4 0.01 0
2.48 0.01 0
2.56 0.01 0
2.64 0.01 0
2.72 0.01 0
2.8 0.01 0
2.88 0.01 0
2.96 0.01 0
3.04 0.01 0
3.12 0.01 0
3.2 0.01 0
3.28 0.01 0
3.36 0.01 0
3.44 0.01 0
3.52 0.01 0
3.6 0.01 0
3.68 0.01 0
3.76 0.01 0
3.84 0.01 0
3.92 0.01 0
4 0.01 0
4.08 0.01 0
4.16 0.01 0
4.24 0.01 0
4.32 0.01 0
4.4 0.01 0
4.48 0.01 0
4.56 0.01 0
4.64 0.01 0
4.72 0.01 0
4.8 0.01 0
4.88 0.01 0
4.96 0.01 0
5.04 0.01 0
5.12 0.01 0
[...]
POINT_DATA 80000

SCALARS v float 1
LOOKUP_TABLE default
0
0
0
0
0
0
0
0
0
0
0
0
0
0
0
0
0
0
0
0
0
0
0
0
0
0
0
0
0
0
0
0
0
0
0
0
0
0
0
0
0
0
0
0
0
0
0
0
0
0
0
0
0
0
0
0
0
0
0
0
0
0
0
0
0
0
0
0
0
0
0
0
0
0
0
0
0
0
0
0
0
0
0
0
0
0
0
0
0
0
0
0
0
0
0
0
0
0
0
0
0
0
0
0
0
0
0
0
0
0
0
0
0
0
0
0
0
0
0
0
0
0
0
0
0
0
0
0
0
0
0
0
0
0
0
0
0
0
0
0
0
0
0
0
0
0
0
0
0
0
0
0
0
0
0
0
0
0
0
0
0
0
0
0
0
0
0
0
0
0
0
0
0
0
0
0
0
0
0
0
0
0
0
0
0
0
0
0
0
0
0
0
0
0
0
0
0
0
0
0
0
0
0
0
0
0
0
0
0
0
0
0
0
0
0
0
0
0
0
0
0
0
0
0
0
0
0
0
0
0
0
0
0
0
0
0
0
0
0
0
0
0
0
0
0
0
0
0
0
0
0
0
0
0
0
0
0
0
0
0
0
0
0
0
0
0
0
0
0
0
0
0
0
0
0
0
0
0
0
0
0
0
0
0
0
0
0
0
0
0
0
0
0
0
0
0
0
0
0
0
0
0
0
0
0
0
0
0
0
0
0
0
0
0
0
0
0
0
0
0
0
0
0
0
0
0
0
0
0
0
0
0
0
0
0
0
0
0
0
0
0
0
0
0
0
0
0
0
0
0
0
0
0
0
0
0
0
0
0
0
0
0
0
0
0
0
0
0
0
0
0
0
0
0
0
0
0
0
0
0
0
0
0
0
0
0
0
0
0
0
0
0
0
0
0
0
0
0
0
0
-0.0542713
0.0542713
0.00396236
0.000998593
0.000492526
0.000302962
0.000207587
0.000151959
0.000116518
9.25617e-05
7.56486e-05
6.32881e-05
5.39878e-05
4.68096e-05
4.11416e-05
3.65739e-05
3.28258e-05
2.97007e-05
2.7058e-05
2.47943e-05
2.28331e-05
2.11186e-05
1.96094e-05
1.82724e-05
1.70789e-05
1.60043e-05
1.50304e-05
1.41463e-05
1.33444e-05
1.26154e-05
1.19464e-05
1.13237e-05
1.0739e-05
1.01916e-05
9.68447e-06
9.21738e-06
8.78221e-06
8.36495e-06
7.95274e-06
7.54022e-06
7.13022e-06
6.72806e-06
6.33428e-06
5.94156e-06
5.53872e-06
5.11918e-06
4.68839e-06
4.26467e-06
3.87266e-06
3.53258e-06
3.25139e-06
3.02025e-06
2.81939e-06
2.62743e-06
2.43037e-06
2.22634e-06
2.02455e-06
1.8397e-06
1.68487e-06
1.56612e-06
1.48041e-06
1.41722e-06
1.36239e-06
1.30255e-06
1.22847e-06
1.13668e-06
1.02916e-06
9.11872e-07
7.92592e-07
6.78956e-07
5.77001e-07
4.90444e-07
4.20622e-07
3.66899e-07
3.27312e-07
2.99241e-07
2.79958e-07
2.67003e-07
2.58371e-07
2.5256e-07
2.48523e-07
2.45579e-07
2.43309e-07
2.41465e-07
2.39908e-07
2.38556e-07
2.37357e-07
2.36275e-07
2.35282e-07
2.34355e-07
2.33475e-07
2.32627e-07
2.31798e-07
2.30982e-07
2.30172e-07
2.29365e-07
2.28559e-07
2.27754e-07
2.26949e-07
2.26144e-07
2.2534e-07
2.24536e-07
2.23732e-07
2.22929e-07
2.22127e-07
2.21326e-07
2.20525e-07
2.19724e-07
2.18924e-07
2.18125e-07
2.17326e-07
2.16527e-07
2.15728e-07
2.1493e-07
2.14131e-07
2.13333e-07
2.12535e-07
2.11737e-07
2.10939e-07
2.10141e-07
2.09343e-07
2.08546e-07
2.07748e-07
2.0695e-07
2.06152e-07
2.05355e-07
2.04557e-07
2.03759e-07
2.02961e-07
2.02162e-07
2.01364e-07
2.00566e-07
1.99767e-07
1.98968e-07
1.98168e-07
1.97369e-07
1.96569e-07
1.95768e-07
1.94967e-07
1.94166e-07
1.93364e-07
1.92562e-07
1.91759e-07
1.90955e-07
1.90151e-07
1.89346e-07
1.88541e-07
1.87735e-07
1.86928e-07
1.8612e-07
1.85311e-07
1.84502e-07
1.83692e-07
1.8288e-07
1.82068e-07
1.81255e-07
1.80441e-07
1.79626e-07
1.7881e-07
1.77992e-07
1.77174e-07
1.76354e-07
1.75534e-07
1.74712e-07
1.73889e-07
1.73064e-07
1.72239e-07
1.71412e-07
1.70584e-07
1.69755e-07
1.68924e-07
1.68092e-07
1.67258e-07
1.66424e-07
1.65588e-07
1.6475e-07
1.63911e-07
1.63071e-07
1.62229e-07
1.61386e-07
1.60541e-07
1.59695e-07
1.58847e-07
1.57998e-07
1.57148e-07
1.56296e-07
1.55442e-07
1.54587e-07
1.53731e-07
1.52873e-07
1.52013e-07
1.51152e-07
1.5029e-07
1.49426e-07
1.48561e-07
1.47694e-07
1.46826e-07
1.45956e-07
1.45085e-07
1.44212e-07
1.43339e-07
1.42463e-07
1.41586e-07
1.40708e-07
1.39829e-07
1.38948e-07
1.38066e-07
1.37182e-07
1.36297e-07
1.35411e-07
1.34523e-07
1.33635e-07
1.32745e-07
1.31853e-07
1.30961e-07
1.30067e-07
1.29172e-07
1.28276e-07
1.27379e-07
1.26481e-07
1.25581e-07
1.24681e-07
1.23779e-07
1.22876e-07
1.21973e-07
1.21068e-07
1.20162e-07
1.19256e-07
1.18348e-07
1.1744e-07
1.1653e-07
1.1562e-07
1.14709e-07
1.13797e-07
1.12884e-07
1.1197e-07
1.11056e-07
1.1014e-07
1.09224e-07
1.08308e-07
1.0739e-07
1.06472e-07
1.05553e-07
1.04634e-07
1.03714e-07
1.02793e-07
1.01872e-07
1.0095e-07
1.00028e-07
9.91045e-08
9.81809e-08
9.72568e-08
9.63322e-08
9.54071e-08
9.44816e-08
9.35555e-08
9.2629e-08
9.17021e-08
9.07747e-08
8.9847e-08
8.89188e-08
8.79902e-08
8.70613e-08
8.6132e-08
8.52023e-08
8.42722e-08
8.33418e-08
8.24111e-08
8.14801e-08
8.05487e-08
7.96171e-08
7.86851e-08
7.77528e-08
7.68203e-08
7.58874e-08
7.49543e-08
7.40209e-08
7.30872e-08
7.21533e-08
7.12191e-08
7.02846e-08
6.93499e-08
6.84149e-08
6.74797e-08
6.65442e-08
6.56085e-08
6.46725e-08
6.37363e-08
6.27999e-08
6.18632e-08
6.09262e-08
5.9989e-08
5.90516e-08
5.81139e-08
5.7176e-08
5.62379e-08
5.52994e-08
5.43608e-08
5.34218e-08
5.24827e-08
5.15432e-08
5.06035e-08
4.96636e-08
4.87234e-08
4.77829e-08
4.68421e-08
4.59011e-08
4.49598e-08
4.40182e-08
4.30763e-08
4.21341e-08
4.11916e-08
4.02488e-08
3.93058e-08
3.83624e-08
3.74187e-08
3.64746e-08
3.55303e-08
3.45856e-08
3.36406e-08
3.26953e-08
3.17496e-08
3.08035e-08
2.98571e-08
2.89103e-08
2.79632e-08
2.70157e-08
2.60678e-08
2.51195e-08
2.41708e-08
2.32217e-08
2.22722e-08
2.13224e-08
2.0372e-08
1.94214e-08
1.84699e-08
1.75188e-08
1.6566e-08
1.56146e-08
1.46598e-08
1.37092e-08
1.2751e-08
1.18029e-08
1.08391e-08
9.89609e-09
8.92344e-09
7.98929e-09
7.00354e-09
6.08277e-09
5.07915e-09
4.17646e-09
3.15039e-09
2.27e-09
1.21762e-09
3.62799e-10
-7.1863e-10
-1.5457e-09
-2.65817e-09
-3.45535e-09
-4.60191e-09
-5.36458e-09
-6.55229e-09
-7.27033e-09
-8.513e-09
-9.16859e-09
-1.04886e-08
-1.10543e-08
-1.24847e-08
-1.29215e-08
-1.45073e-08
-1.47648e-08
-1.65609e-08
-1.65805e-08
-1.86482e-08
-1.83667e-08
-2.07702e-08
-2.01242e-08
-2.29241e-08
-2.18583e-08
-2.51037e-08
-2.35799e-08
-2.72947e-08
-2.53181e-08
-2.94619e-08
-2.714e-08
-3.15313e-08
-2.91924e-08
-3.33445e-08
-3.18042e-08
-3.45468e-08
-3.5729e-08
-3.4266e-08
-4.27543e-08
-2.98882e-08
-5.73006e-08
-1.01516e-08
-8.94466e-08
1.36127e-07
-4.19995e-08
-4.19995e-08
-0.0952161
0.0952161
0.0129759
0.00385494
0.00193464
0.00119653
0.000822074
0.000602649
0.000462403
0.000367378
0.000300168
0.000250983
0.00021394
0.000185333
0.000162739
0.000144532
0.000129594
0.000117144
0.000106619
9.7608e-05
8.98054e-05
8.29884e-05
7.69902e-05
7.16773e-05
6.69345e-05
6.26654e-05
5.87994e-05
5.52918e-05
5.211e-05
4.92146e-05
4.65541e-05
4.40774e-05
4.17542e-05
3.95814e-05
3.75674e-05
3.57066e-05
3.39651e-05
3.22893e-05
3.06331e-05
2.89785e-05
2.73362e-05
2.57234e-05
2.41386e-05
2.25532e-05
2.09287e-05
1.92477e-05
1.75386e-05
1.5875e-05
1.43485e-05
1.30292e-05
1.19352e-05
1.10273e-05
1.02293e-05
9.4631e-06
8.68133e-06
7.88176e-06
7.10109e-06
6.39315e-06
5.8029e-06
5.34766e-06
5.0115e-06
4.75245e-06
4.51752e-06
4.25878e-06
3.94511e-06
3.56701e-06
3.13487e-06
2.6727e-06
2.21015e-06
1.77529e-06
1.38952e-06
1.06531e-06
8.06193e-07
6.08618e-07
4.64378e-07
3.63139e-07
2.9444e-07
2.49001e-07
2.19357e-07
1.99975e-07
1.8703e-07
1.78046e-07
1.7151e-07
1.66536e-07
1.62617e-07
1.59455e-07
1.56863e-07
1.54705e-07
1.52876e-07
1.51289e-07
1.49872e-07
1.48569e-07
1.47338e-07
1.46149e-07
1.44981e-07
1.43824e-07
1.4267e-07
1.41517e-07
1.40363e-07
1.39209e-07
1.38055e-07
1.36902e-07
1.3575e-07
1.346e-07
1.33452e-07
1.32305e-07
1.31159e-07
1.30014e-07
1.28871e-07
1.27728e-07
1.26585e-07
1.25443e-07
1.24301e-07
1.23159e-07
1.22017e-07
1.20875e-07
1.19733e-07
1.18591e-07
1.17449e-07
1.16307e-07
1.15165e-07
1.14023e-07
1.12881e-07
1.11739e-07
1.10598e-07
1.09456e-07
1.08314e-07
1.07172e-07
1.06031e-07
1.04889e-07
1.03747e-07
1.02605e-07
1.01463e-07
1.00321e-07
9.91787e-08
9.8036e-08
9.6893e-08
9.57497e-08
9.46059e-08
9.34617e-08
9.2317e-08
9.11718e-08
9.0026e-08
8.88796e-08
8.77325e-08
8.65847e-08
8.54362e-08
8.42868e-08
8.31366e-08
8.19855e-08
8.08335e-08
7.96805e-08
7.85265e-08
7.73715e-08
7.62154e-08
7.50582e-08
7.38998e-08
7.27403e-08
7.15795e-08
7.04174e-08
6.92541e-08
6.80894e-08
6.69234e-08
6.57559e-08
6.45871e-08
6.34168e-08
6.2245e-08
6.10718e-08
5.9897e-08
5.87206e-08
5.75427e-08
5.63631e-08
5.51819e-08
5.39991e-08
5.28146e-08
5.16284e-08
5.04405e-08
4.92509e-08
4.80596e-08
4.68665e-08
4.56716e-08
4.4475e-08
4.32765e-08
4.20763e-08
4.08742e-08
3.96703e-08
3.84646e-08
3.72571e-08
3.60477e-08
3.48366e-08
3.36235e-08
3.24086e-08
3.11919e-08
2.99733e-08
2.87529e-08
2.75307e-08
2.63066e-08
2.50807e-08
2.3853e-08
2.26235e-08
2.13921e-08
2.0159e-08
1.89241e-08
1.76874e-08
1.64489e-08
1.52087e-08
1.39668e-08
1.27231e-08
1.14778e-08
1.02307e-08
8.98197e-09
7.73157e-09
6.47953e-09
5.22585e-09
3.97059e-09
2.71373e-09
1.45529e-09
1.95315e-10
-1.06619e-09
-2.32919e-09
-3.59368e-09
-4.85965e-09
-6.12705e-09
-7.39587e-09
-8.66609e-09
-9.93769e-09
-1.12107e-08
-1.24849e-08
-1.37605e-08
-1.50374e-08
-1.63155e-08
-1.75949e-08
-1.88755e-08
-2.01573e-08
-2.14403e-08
-2.27244e-08
-2.40097e-08
-2.5296e-08
-2.65834e-08
-2.78719e-08
-2.91615e-08
-3.0452e-08
-3.17436e-08
-3.30361e-08
-3.43296e-08
-3.5624e-08
-3.69193e-08
-3.82155e-08
-3.95126e-08
-4.08105e-08
-4.21093e-08
-4.34089e-08
-4.47093e-08
-4.60105e-08
-4.73124e-08
-4.86151e-08
-4.99185e-08
-5.12226e-08
-5.25274e-08
-5.38329e-08
-5.51391e-08
-5.64459e-08
-5.77534e-08
-5.90615e-08
-6.03702e-08
-6.16795e-08
-6.29895e-08
-6.43e-08
-6.56111e-08
-6.69227e-08
-6.82349e-08
-6.95477e-08
-7.08609e-08
-7.21748e-08
-7.34891e-08
-7.48039e-08
-7.61193e-08
-7.74352e-08
-7.87516e-08
-8.00684e-08
-8.13858e-08
-8.27036e-08
-8.40219e-08
-8.53407e-08
-8.666e-08
-8.79797e-08
-8.92999e-08
-9.06206e-08
-9.19418e-08
-9.32634e-08
-9.45855e-08
-9.59081e-08
-9.72311e-08
-9.85546e-08
-9.98786e-08
-1.01203e-07
-1.02528e-07
-1.03853e-07
-1.05179e-07
-1.06506e-07
-1.07832e-07
-1.0916e-07
-1.10487e-07
-1.11816e-07
-1.13145e-07
-1.14474e-07
-1.15804e-07
-1.17134e-07
-1.18465e-07
-1.19796e-07
-1.21128e-07
-1.2246e-07
-1.23793e-07
-1.25127e-07
-1.26461e-07
-1.27796e-07
-1.29131e-07
-1.30467e-07
-1.31803e-07
-1.3314e-07
-1.34477e-07
-1.35815e-07
-1.37154e-07
-1.38494e-07
-1.39834e-07
-1.41174e-07
-1.42515e-07
-1.43857e-07
-1.452e-07
-1.46543e-07
-1.47887e-07
-1.49232e-07
-1.50577e-07
-1.51923e-07
-1.53269e-07
-1.54618e-07
-1.55965e-07
-1.57316e-07
-1.58662e-07
-1.60019e-07
-1.6136e-07
-1.62728e-07
-1.64058e-07
-1.65444e-07
-1.66753e-07
-1.6817e-07
-1.69444e-07
-1.70908e-07
-1.7213e-07
-1.73659e-07
-1.74811e-07
-1.76421e-07
-1.77488e-07
-1.79194e-07
-1.80162e-07
-1.81976e-07
-1.82837e-07
-1.84764e-07
-1.85511e-07
-1.87564e-07
-1.88179e-07
-1.90382e-07
-1.90829e-07
-1.93234e-07
-1.93446e-07
-1.96136e-07
-1.96011e-07
-1.99109e-07
-1.98502e-07
-2.02175e-07
-2.00896e-07
-2.05352e-07
-2.03182e-07
-2.08649e-07
-2.0535e-07
-2.12071e-07
-2.07404e-07
-2.15606e-07
-2.09364e-07
-2.19232e-07
-2.11268e-07
-2.22897e-07
-2.13226e-07
-2.26471e-07
-2.15484e-07
-2.29684e-07
-2.18587e-07
-2.31956e-07
-2.23756e-07
-2.31994e-07
-2.3378e-07
-2.26615e-07
-2.55264e-07
-2.06271e-07
-3.04389e-07
-1.29666e-07
-4.16238e-07
4.04242e-07
-2.39244e-07
-2.39244e-07
-0.125293
0.125293
0.0249362
0.00835838
0.00427837
0.0026619
0.00183412
0.00134675
0.00103428
0.000822102
0.000671786
0.00056165
0.000478634
0.000414488
0.000363812
0.000322972
0.000289471
0.000261555
0.000237963
0.000217769
0.000200292
0.000185028
0.000171602
0.000159711
0.000149097
0.000139546
0.000130901
0.00012306
0.000115947
0.000109469
0.000103513
9.79676e-05
9.27702e-05
8.79122e-05
8.34067e-05
7.92347e-05
7.53178e-05
7.15412e-05
6.78085e-05
6.40847e-05
6.03914e-05
5.67609e-05
5.31849e-05
4.96018e-05
4.59356e-05
4.2161e-05
3.83507e-05
3.46684e-05
3.13077e-05
2.84088e-05
2.59988e-05
2.39847e-05
2.22012e-05
2.04859e-05
1.87447e-05
1.69795e-05
1.5271e-05
1.37313e-05
1.24494e-05
1.14541e-05
1.07049e-05
1.0109e-05
9.55393e-06
8.94146e-06
8.21061e-06
7.34667e-06
6.37606e-06
5.35237e-06
4.33934e-06
3.39576e-06
2.56524e-06
1.87193e-06
1.32115e-06
9.03456e-07
6.00051e-07
3.88118e-07
2.44984e-07
1.50775e-07
8.96521e-08
4.99504e-08
2.36623e-08
5.62841e-09
-7.29469e-09
-1.69415e-08
-2.43641e-08
-3.01822e-08
-3.47928e-08
-3.84819e-08
-4.14755e-08
-4.39596e-08
-4.60858e-08
-4.79734e-08
-4.97114e-08
-5.13628e-08
-5.29689e-08
-5.45546e-08
-5.61336e-08
-5.7712e-08
-5.92915e-08
-6.08718e-08
-6.24517e-08
-6.40299e-08
-6.56055e-08
-6.7178e-08
-6.87474e-08
-7.03139e-08
-7.18778e-08
-7.34398e-08
-7.50003e-08
-7.65598e-08
-7.81188e-08
-7.96775e-08
-8.12362e-08
-8.27951e-08
-8.43542e-08
-8.59136e-08
-8.74733e-08
-8.90331e-08
-9.05931e-08
-9.21533e-08
-9.37134e-08
-9.52735e-08
-9.68336e-08
-9.83935e-08
-9.99533e-08
-1.01513e-07
-1.03072e-07
-1.04631e-07
-1.06191e-07
-1.07749e-07
-1.09308e-07
-1.10867e-07
-1.12426e-07
-1.13984e-07
-1.15543e-07
-1.17102e-07
-1.18661e-07
-1.2022e-07
-1.2178e-07
-1.2334e-07
-1.24901e-07
-1.26461e-07
-1.28023e-07
-1.29585e-07
-1.31148e-07
-1.32711e-07
-1.34275e-07
-1.3584e-07
-1.37406e-07
-1.38973e-07
-1.4054e-07
-1.42109e-07
-1.43679e-07
-1.4525e-07
-1.46822e-07
-1.48395e-07
-1.4997e-07
-1.51546e-07
-1.53123e-07
-1.54701e-07
-1.56281e-07
-1.57863e-07
-1.59446e-07
-1.6103e-07
-1.62616e-07
-1.64204e-07
-1.65794e-07
-1.67385e-07
-1.68977e-07
-1.70572e-07
-1.72168e-07
-1.73766e-07
-1.75366e-07
-1.76968e-07
-1.78572e-07
-1.80177e-07
-1.81785e-07
-1.83394e-07
-1.85006e-07
-1.86619e-07
-1.88235e-07
-1.89853e-07
-1.91472e-07
-1.93094e-07
-1.94718e-07
-1.96344e-07
-1.97972e-07
-1.99602e-07
-2.01234e-07
-2.02869e-07
-2.04505e-07
-2.06144e-07
-2.07785e-07
-2.09428e-07
-2.11074e-07
-2.12721e-07
-2.14371e-07
-2.16022e-07
-2.17676e-07
-2.19332e-07
-2.20991e-07
-2.22651e-07
-2.24313e-07
-2.25978e-07
-2.27645e-07
-2.29314e-07
-2.30985e-07
-2.32658e-07
-2.34333e-07
-2.3601e-07
-2.37689e-07
-2.3937e-07
-2.41054e-07
-2.42739e-07
-2.44426e-07
-2.46115e-07
-2.47807e-07
-2.495e-07
-2.51195e-07
-2.52892e-07
-2.5459e-07
-2.56291e-07
-2.57993e-07
-2.59697e-07
-2.61403e-07
-2.63111e-07
-2.64821e-07
-2.66532e-07
-2.68245e-07
-2.69959e-07
-2.71675e-07
-2.73393e-07
-2.75113e-07
-2.76834e-07
-2.78556e-07
-2.8028e-07
-2.82006e-07
-2.83733e-07
-2.85461e-07
-2.87191e-07
-2.88923e-07
-2.90656e-07
-2.9239e-07
-2.94125e-07
-2.95862e-07
-2.976e-07
-2.99339e-07
-3.0108e-07
-3.02822e-07
-3.04565e-07
-3.06309e-07
-3.08055e-07
-3.09801e-07
-3.11549e-07
-3.13298e-07
-3.15048e-07
-3.16799e-07
-3.18551e-07
-3.20304e-07
-3.22058e-07
-3.23813e-07
-3.25569e-07
-3.27326e-07
-3.29084e-07
-3.30843e-07
-3.32603e-07
-3.34364e-07
-3.36126e-07
-3.37889e-07
-3.39653e-07
-3.41417e-07
-3.43182e-07
-3.44949e-07
-3.46716e-07
-3.48484e-07
-3.50253e-07
-3.52022e-07
-3.53793e-07
-3.55564e-07
-3.57336e-07
-3.59109e-07
-3.60883e-07
-3.62657e-07
-3.64432e-07
-3.66209e-07
-3.67985e-07
-3.69763e-07
-3.71542e-07
-3.73321e-07
-3.75101e-07
-3.76882e-07
-3.78663e-07
-3.80446e-07
-3.82229e-07
-3.84013e-07
-3.85798e-07
-3.87583e-07
-3.8937e-07
-3.91157e-07
-3.92945e-07
-3.94734e-07
-3.96523e-07
-3.98314e-07
-4.00105e-07
-4.01897e-07
-4.0369e-07
-4.05484e-07
-4.07278e-07
-4.09074e-07
-4.1087e-07
-4.12667e-07
-4.14465e-07
-4.16264e-07
-4.18064e-07
-4.19865e-07
-4.21666e-07
-4.23469e-07
-4.25272e-07
-4.27077e-07
-4.28882e-07
-4.30688e-07
-4.32496e-07
-4.34304e-07
-4.36113e-07
-4.37923e-07
-4.39735e-07
-4.41547e-07
-4.4336e-07
-4.45175e-07
-4.4699e-07
-4.48807e-07
-4.50624e-07
-4.52443e-07
-4.54263e-07
-4.56083e-07
-4.57907e-07
-4.59727e-07
-4.61557e-07
-4.63374e-07
-4.65215e-07
-4.67021e-07
-4.68883e-07
-4.70665e-07
-4.72566e-07
-4.74303e-07
-4.76269e-07
-4.7793e-07
-4.79994e-07
-4.81543e-07
-4.83745e-07
-4.85143e-07
-4.87519e-07
-4.88732e-07
-4.91313e-07
-4.92315e-07
-4.95123e-07
-4.95895e-07
-4.98947e-07
-4.99473e-07
-5.0279e-07
-5.03035e-07
-5.06672e-07
-5.06557e-07
-5.10623e-07
-5.10005e-07
-5.14678e-07
-5.1334e-07
-5.18882e-07
-5.16512e-07
-5.23282e-07
-5.19478e-07
-5.27916e-07
-5.22206e-07
-5.32808e-07
-5.2468e-07
-5.37962e-07
-5.26906e-07
-5.43358e-07
-5.28924e-07
-5.48947e-07
-5.30819e-07
-5.54621e-07
-5.32818e-07
-5.60108e-07
-5.35447e-07
-5.64838e-07
-5.39863e-07
-5.67592e-07
-5.48655e-07
-5.6566e-07
-5.67743e-07
-5.52374e-07
-6.11106e-07
-5.07701e-07
-7.12774e-07
-3.44899e-07
-9.4396e-07
7.63857e-07
-5.70787e-07
-5.70787e-07
-0.146488
0.146488
0.0383108
0.0142344
0.00745644
0.00467317
0.00323098
0.00237697
0.00182752
0.00145351
0.00118808
0.000993337
0.000846416
0.000732822
0.000643051
0.000570697
0.000511347
0.000461899
0.000420119
0.000384367
0.000353435
0.000326431
0.000302684
0.000281654
0.000262885
0.000245998
0.00023072
0.000216869
0.0002043
0.000192848
0.000182312
0.000172504
0.000163316
0.000154733
0.000146767
0.000139376
0.000132419
0.000125702
0.000119063
0.000112448
0.000105891
9.94393e-05
9.30718e-05
8.66848e-05
8.01602e-05
7.34733e-05
6.67644e-05
6.03193e-05
5.44616e-05
4.94149e-05
4.52079e-05
4.16709e-05
3.85214e-05
3.54906e-05
3.24296e-05
2.93499e-05
2.63904e-05
2.37355e-05
2.15253e-05
1.97965e-05
1.84711e-05
1.73884e-05
1.636e-05
1.52259e-05
1.38912e-05
1.23393e-05
1.06209e-05
8.82992e-06
7.07468e-06
5.45272e-06
4.03465e-06
2.85763e-06
1.92729e-06
1.22488e-06
7.16694e-07
3.62986e-07
1.24855e-07
-3.14437e-08
-1.32605e-07
-1.98165e-07
-2.41467e-07
-2.71071e-07
-2.92176e-07
-3.07811e-07
-3.19714e-07
-3.28917e-07
-3.36085e-07
-3.41699e-07
-3.46143e-07
-3.49733e-07
-3.52723e-07
-3.55316e-07
-3.5766e-07
-3.5986e-07
-3.61985e-07
-3.64076e-07
-3.66156e-07
-3.68234e-07
-3.70315e-07
-3.72396e-07
-3.74476e-07
-3.76553e-07
-3.78625e-07
-3.80692e-07
-3.82754e-07
-3.84812e-07
-3.86865e-07
-3.88915e-07
-3.90962e-07
-3.93009e-07
-3.95055e-07
-3.971e-07
-3.99146e-07
-4.01192e-07
-4.03239e-07
-4.05287e-07
-4.07335e-07
-4.09384e-07
-4.11433e-07
-4.13482e-07
-4.15532e-07
-4.17581e-07
-4.19631e-07
-4.2168e-07
-4.23729e-07
-4.25777e-07
-4.27825e-07
-4.29873e-07
-4.3192e-07
-4.33967e-07
-4.36014e-07
-4.3806e-07
-4.40106e-07
-4.42152e-07
-4.44198e-07
-4.46243e-07
-4.48289e-07
-4.50335e-07
-4.5238e-07
-4.54427e-07
-4.56473e-07
-4.5852e-07
-4.60567e-07
-4.62615e-07
-4.64663e-07
-4.66712e-07
-4.68762e-07
-4.70812e-07
-4.72864e-07
-4.74916e-07
-4.7697e-07
-4.79024e-07
-4.8108e-07
-4.83136e-07
-4.85194e-07
-4.87253e-07
-4.89314e-07
-4.91376e-07
-4.93439e-07
-4.95504e-07
-4.9757e-07
-4.99638e-07
-5.01707e-07
-5.03779e-07
-5.05851e-07
-5.07926e-07
-5.10002e-07
-5.12081e-07
-5.14161e-07
-5.16243e-07
-5.18327e-07
-5.20413e-07
-5.22501e-07
-5.24591e-07
-5.26683e-07
-5.28777e-07
-5.30873e-07
-5.32972e-07
-5.35072e-07
-5.37175e-07
-5.39281e-07
-5.41388e-07
-5.43498e-07
-5.4561e-07
-5.47724e-07
-5.49841e-07
-5.5196e-07
-5.54082e-07
-5.56206e-07
-5.58332e-07
-5.60461e-07
-5.62592e-07
-5.64726e-07
-5.66862e-07
-5.69e-07
-5.71142e-07
-5.73285e-07
-5.75431e-07
-5.77579e-07
-5.7973e-07
-5.81884e-07
-5.8404e-07
-5.86198e-07
-5.88359e-07
-5.90522e-07
-5.92687e-07
-5.94856e-07
-5.97026e-07
-5.99199e-07
-6.01374e-07
-6.03552e-07
-6.05732e-07
-6.07915e-07
-6.101e-07
-6.12287e-07
-6.14476e-07
-6.16668e-07
-6.18862e-07
-6.21059e-07
-6.23257e-07
-6.25458e-07
-6.27661e-07
-6.29867e-07
-6.32074e-07
-6.34284e-07
-6.36496e-07
-6.3871e-07
-6.40926e-07
-6.43144e-07
-6.45364e-07
-6.47586e-07
-6.4981e-07
-6.52037e-07
-6.54265e-07
-6.56495e-07
-6.58727e-07
-6.60961e-07
-6.63197e-07
-6.65435e-07
-6.67674e-07
-6.69916e-07
-6.72159e-07
-6.74404e-07
-6.7665e-07
-6.78899e-07
-6.81149e-07
-6.83401e-07
-6.85654e-07
-6.87909e-07
-6.90166e-07
-6.92424e-07
-6.94684e-07
-6.96946e-07
-6.99209e-07
-7.01473e-07
-7.03739e-07
-7.06006e-07
-7.08275e-07
-7.10546e-07
-7.12817e-07
-7.1509e-07
-7.17365e-07
-7.19641e-07
-7.21918e-07
-7.24197e-07
-7.26477e-07
-7.28758e-07
-7.31041e-07
-7.33324e-07
-7.3561e-07
-7.37896e-07
-7.40184e-07
-7.42473e-07
-7.44763e-07
-7.47055e-07
-7.49347e-07
-7.51641e-07
-7.53937e-07
-7.56233e-07
-7.58531e-07
-7.60829e-07
-7.63129e-07
-7.65431e-07
-7.67733e-07
-7.70037e-07
-7.72341e-07
-7.74647e-07
-7.76955e-07
-7.79263e-07
-7.81572e-07
-7.83883e-07
-7.86195e-07
-7.88508e-07
-7.90823e-07
-7.93138e-07
-7.95455e-07
-7.97773e-07
-8.00092e-07
-8.02412e-07
-8.04733e-07
-8.07056e-07
-8.0938e-07
-8.11705e-07
-8.14032e-07
-8.16359e-07
-8.18688e-07
-8.21019e-07
-8.2335e-07
-8.25683e-07
-8.28017e-07
-8.30352e-07
-8.32689e-07
-8.35027e-07
-8.37366e-07
-8.39707e-07
-8.42048e-07
-8.44392e-07
-8.46736e-07
-8.49083e-07
-8.5143e-07
-8.53779e-07
-8.56129e-07
-8.58481e-07
-8.60834e-07
-8.63189e-07
-8.65545e-07
-8.67903e-07
-8.70262e-07
-8.72623e-07
-8.74985e-07
-8.77349e-07
-8.79715e-07
-8.82081e-07
-8.84451e-07
-8.8682e-07
-8.89195e-07
-8.91563e-07
-8.93948e-07
-8.9631e-07
-8.98713e-07
-9.01057e-07
-9.03495e-07
-9.05798e-07
-9.08301e-07