# vtk DataFile Version 2.0
FlowField
ASCII
DATASET STRUCTURED_GRID
DIMENSIONS 400 1 200
POINTS 80000 float
0 0 0
0.08 0 0
0.16 0 0
0.24 0 0
0.32 0 0
0.4 0 0
0.48 0 0
0.56 0 0
0.64 0 0
0.72 0 0
0.8 0 0
0.88 0 0
0.96 0 0
1.04 0 0
1.12 0 0
1.2 0 0
1.28 0 0
1.36 0 0
1.44 0 0
1.52 0 0
1.6 0 0
1.68 0 0
1.76 0 0
1.84 0 0
1.92 0 0
2 0 0
2.08 0 0
2.16 0 0
2.24 0 0
2.32 0 0
2.4 0 0
2.48 0 0
2.56 0 0
2.64 0 0
2.72 0 0
2.8 0 0
2.88 0 0
2.96 0 0
3.04 0 0
3.12 0 0
3.2 0 0
3.28 0 0
3.36 0 0
3.44 0 0
3.52 0 0
3.6 0 0
3.68 0 0
3.76 0 0
3.84 0 0
3.92 0 0
4 0 0
4.08 0 0
4.16 0 0
4.24 0 0
4.32 0 0
4.4 0 0
4.48 0 0
4.56 0 0
4.64 0 0
4.72 0 0
4.8 0 0
4.88 0 0
4.96 0 0
5.04 0 0
5.12 0 0
5.2 0 0
5.28 0 0
5.36 0 0
5.44 0 0
5.52 0 0
5.6 0 0
5.68 0 0
5.76 0 0
5.84 0 0
5.92 0 0
6 0 0
6.08 0 0
6.16 0 0
6.24 0 0
6.32 0 0
6.4 0 0
6.48 0 0
6.56 0 0
6.64 0 0
6.72 0 0
6.8 0 0
6.88 0 0
6.96 0 0
7.04 0 0
7.12 0 0
7.2 0 0
7.28 0 0
7.36 0 0
7.44 0 0
7.52 0 0
7.6 0 0
7.68 0 0
7.76 0 0
7.84 0 0
7.92 0 0
8 0 0
8.08 0 0
8.16 0 0
8.24 0 0
8.32 0 0
8.4 0 0
8.48 0 0
8.56 0 0
8.64 0 0
8.72 0 0
8.8 0 0
8.88 0 0
8.96 0 0
9.04 0 0
9.12 0 0
9.2 0 0
9.28 0 0
9.36 0 0
9.44 0 0
9.52 0 0
9.6 0 0
9.68 0 0
9.76 0 0
9.84 0 0
9.92 0 0
10 0 0
10.08 0 0
10.16 0 0
10.24 0 0
10.32 0 0
10.4 0 0
10.48 0 0
10.56 0 0
10.64 0 0
10.72 0 0
10.8 0 0
10.88 0 0
10.96 0 0
11.04 0 0
11.12 0 0
11.2 0 0
11.28 0 0
11.36 0 0
11.44 0 0
11.52 0 0
11.6 0 0
11.68 0 0
11.76 0 0
11.84 0 0
11.92 0 0
12 0 0
12.08 0 0
12.16 0 0
12.24 0 0
12.32 0 0
12.4 0 0
12.48 0 0
12.56 0 0
12.64 0 0
12.72 0 0
12.8 0 0
12.88 0 0
12.96 0 0
13.04 0 0
13.12 0 0
13.2 0 0
13.28 0 0
13.36 0 0
13.44 0 0
13.52 0 0
13.6 0 0
13.68 0 0
13.76 0 0
13.84 0 0
13.92 0 0
14 0 0
14.08 0 0
14.16 0 0
14.24 0 0
14.32 0 0
14.4 0 0
14.48 0 0
14.56 0 0
14.64 0 0
14.72 0 0
14.8 0 0
14.88 0 0
14.96 0 0
15.04 0 0
15.12 0 0
15.2 0 0
15.28 0 0
15.36 0 0
15.44 0 0
15.52 0 0
15.6 0 0
15.68 0 0
15.76 0 0
15.84 0 0
15.92 0 0
16 0 0
16.08 0 0
16.16 0 0
16.24 0 0
16.32 0 0
16.4 0 0
16.48 0 0
16.56 0 0
16.64 0 0
16.72 0 0
16.8 0 0
16.88 0 0
16.96 0 0
17.04 0 0
17.12 0 0
17.2 0 0
17.28 0 0
17.36 0 0
17.44 0 0
17.52 0 0
17.6 0 0
17.68 0 0
17.76 0 0
17.84 0 0
17.92 0 0
18 0 0
18.08 0 0
18.16 0 0
18.24 0 0
18.32 0 0
18.4 0 0
18.48 0 0
18.56 0 0
18.64 0 0
18.72 0 0
18.8 0 0
18.88 0 0
18.96 0 0
19.04 0 0
19.12 0 0
19.2 0 0
19.28 0 0
19.36 0 0
19.44 0 0
19.52 0 0
19.6 0 0
19.68 0 0
19.76 0 0
19.84 0 0
19.92 0 0
20 0 0
20.08 0 0
20.16 0 0
20.24 0 0
20.32 0 0
20.4 0 0
20.48 0 0
20.56 0 0
20.64 0 0
20.72 0 0
20.8 0 0
20.88 0 0
20.96 0 0
21.04 0 0
21.12 0 0
21.2 0 0
21.28 0 0
21.36 0 0
21.44 0 0
21.52 0 0
21.6 0 0
21.68 0 0
21.76 0 0
21.84 0 0
21.92 0 0
22 0 0
22.08 0 0
22.16 0 0
22.24 0 0
22.32 0 0
22.4 0 0
22.48 0 0
22.56 0 0
22.64 0 0
22.72 0 0
22.8 0 0
22.88 0 0
22.96 0 0
23.04 0 0
23.12 0 0
23.2 0 0
23.28 0 0
23.36 0 0
23.44 0 0
23.52 0 0
23.6 0 0
23.68 0 0
23.76 0 0
23.84 0 0
23.92 0 0
24 0 0
24.08 0 0
24.16 0 0
24.24 0 0
24.32 0 0
24.4 0 0
24.48 0 0
24.56 0 0
24.64 0 0
24.72 0 0
24.8 0 0
24.88 0 0
24.96 0 0
25.04 0 0
25.12 0 0
25.2 0 0
25.28 0 0
25.36 0 0
25.44 0 0
25.52 0 0
25.6 0 0
25.68 0 0
25.76 0 0
25.84 0 0
25.92 0 0
26 0 0
26.08 0 0
26.16 0 0
26.24 0 0
26.32 0 0
26.4 0 0
26.48 0 0
26.56 0 0
26.64 0 0
26.72 0 0
26.8 0 0
26.88 0 0
26.96 0 0
27.04 0 0
27.12 0 0
27.2 0 0
27.28 0 0
27.36 0 0
27.44 0 0
27.52 0 0
27.6 0 0
27.68 0 0
27.76 0 0
27.84 0 0
27.92 0 0
28 0 0
28.08 0 0
28.16 0 0
28.24 0 0
28.32 0 0
28.4 0 0
28.48 0 0
28.56 0 0
28.64 0 0
28.72 0 0
28.8 0 0
28.88 0 0
28.96 0 0
29.04 0 0
29.12 0 0
29.2 0 0
29.28 0 0
29.36 0 0
29.44 0 0
29.52 0 0
29.6 0 0
29.68 0 0
29.76 0 0
29.84 0 0
29.92 0 0
30 0 0
30.08 0 0
30.16 0 0
30.24 0 0
30.32 0 0
30.4 0 0
30.48 0 0
30.56 0 0
30.64 0 0
30.72 0 0
30.8 0 0
30.88 0 0
30.96 0 0
31.04 0 0
31.12 0 0
31.2 0 0
31.28 0 0
31.36 0 0
31.44 0 0
31.52 0 0
31.6 0 0
31.68 0 0
31.76 0 0
31.84 0 0
31.92 0 0
0 0.005 0
0.08 0.005 0
0.16 0.005 0
0.24 0.005 0
0.32 0.005 0
0.4 0.005 0
0.48 0.005 0
0.56 0.005 0
0.64 0.005 0
0.72 0.005 0
0.8 0.005 0
0.88 0.005 0
0.96 0.005 0
1.04 0.005 0
1.12 0.005 0
1.2 0.005 0
1.28 0.005 0
1.36 0.005 0
1.44 0.005 0
1.52 0.005 0
1.6 0.005 0
1.68 0.005 0
1.76 0.005 0
1.84 0.005 0
1.92 0.005 0
2 0.005 0
2.08 0.005 0
2.16 0.005 0
2.24 0.005 0
2.32 0.005 0
2.4 0.005 0
2.48 0.005 0
2.56 0.005 0
2.64 0.005 0
2.72 0.005 0
2.8 0.005 0
2.88 0.005 0
2.96 0.005 0
3.04 0.005 0
3.12 0.005 0
3.2 0.005 0
3.28 0.005 0
3.36 0.005 0
3.44 0.005 0
3.52 0.005 0
3.6 0.005 0
3.68 0.005 0
3.76 0.005 0
3.84 0.005 0
3.92 0.005 0
4 0.005 0
4.08 0.005 0
4.16 0.005 0
4.24 0.005 0
4.32 0.005 0
4.4 0.005 0
4.48 0.005 0
4.56 0.005 0
4.64 0.005 0
4.72 0.005 0
4.8 0.005 0
4.88 0.005 0
4.96 0.005 0
5.04 0.005 0
5.12 0.005 0
5.2 0.005 0
5.28 0.005 0
5.36 0.005 0
5.44 0.005 0
5.52 0.005 0
5.6 0.005 0
5.68 0.005 0
5.76 0.005 0
5.84 0.005 0
5.92 0.005 0
6 0.005 0
6.08 0.005 0
6.16 0.005 0
6.24 0.005 0
6.32 0.005 0
6.4 0.005 0
6.48 0.005 0
6.56 0.005 0
6.64 0.005 0
6.72 0.005 0
6.8 0.005 0
6.88 0.005 0
6.96 0.005 0
7.04 0.005 0
7.12 0.005 0
7.2 0.005 0
7.28 0.005 0
7.36 0.005 0
7.44 0.005 0
7.52 0.005 0
7.6 0.005 0
7.68 0.005 0
7.76 0.005 0
7.84 0.005 0
7.92 0.005 0
8 0.005 0
8.08 0.005 0
8.16 0.005 0
8.24 0.005 0
8.32 0.005 0
8.4 0.005 0
8.48 0.005 0
8.56 0.005 0
8.64 0.005 0
8.72 0.005 0
8.8 0.005 0
8.88 0.005 0
8.96 0.005 0
9.04 0.005 0
9.12 0.005 0
9.2 0.005 0
9.28 0.005 0
9.36 0.005 0
9.44 0.005 0
9.52 0.005 0
9.6 0.005 0
9.68 0.005 0
9.76 0.005 0
9.84 0.005 0
9.92 0.005 0
10 0.005 0
10.08 0.005 0
10.16 0.005 0
10.24 0.005 0
10.32 0.005 0
10.4 0.005 0
10.48 0.005 0
10.56 0.005 0
10.64 0.005 0
10.72 0.005 0
10.8 0.005 0
10.88 0.005 0
10.96 0.005 0
11.04 0.005 0
11.12 0.005 0
11.2 0.005 0
11.28 0.005 0
11.36 0.005 0
11.44 0.005 0
11.52 0.005 0
11.6 0.005 0
11.68 0.005 0
11.76 0.005 0
11.84 0.005 0
11.92 0.005 0
12 0.005 0
12.08 0.005 0
12.16 0.005 0
12.24 0.005 0
12.32 0.005 0
12.4 0.005 0
12.48 0.005 0
12.56 0.005 0
12.64 0.005 0
12.72 0.005 0
12.8 0.005 0
12.88 0.005 0
12.96 0.005 0
13.04 0.005 0
13.12 0.005 0
13.2 0.005 0
13.28 0.005 0
13.36 0.005 0
13.44 0.005 0
13.52 0.005 0
13.6 0.005 0
13.68 0.005 0
13.76 0.005 0
13.84 0.005 0
13.92 0.005 0
14 0.005 0
14.08 0.005 0
14.16 0.005 0
14.24 0.005 0
14.32 0.005 0
14.4 0.005 0
14.48 0.005 0
14.56 0.005 0
14.64 0.005 0
14.72 0.005 0
14.8 0.005 0
14.88 0.005 0
14.96 0.005 0
15.04 0.005 0
15.12 0.005 0
15.2 0.005 0
15.28 0.005 0
15.36 0.005 0
15.44 0.005 0
15.52 0.005 0
15.6 0.005 0
15.68 0.005 0
15.76 0.005 0
15.84 0.005 0
15.92 0.005 0
16 0.005 0
16.08 0.005 0
16.16 0.005 0
16.24 0.005 0
16.32 0.005 0
16.4 0.005 0
16.48 0.005 0
16.56 0.005 0
16.64 0.005 0
16.72 0.005 0
16.8 0.005 0
16.88 0.005 0
16.96 0.005 0
17.04 0.005 0
17.12 0.005 0
17.2 0.005 0
17.28 0.005 0
17.36 0.005 0
17.44 0.005 0
17.52 0.005 0
17.6 0.005 0
17.68 0.005 0
17.76 0.005 0
17.84 0.005 0
17.92 0.005 0
18 0.005 0
18.08 0.005 0
18.16 0.005 0
18.24 0.005 0
18.32 0.005 0
18.4 0.005 0
18.48 0.005 0
18.56 0.005 0
18.64 0.005 0
18.72 0.005 0
18.8 0.005 0
18.88 0.005 0
18.96 0.005 0
19.04 0.005 0
19.12 0.005 0
19.2 0.005 0
19.28 0.005 0
19.36 0.005 0
19.44 0.005 0
19.52 0.005 0
19.6 0.005 0
19.68 0.005 0
19.76 0.005 0
19.84 0.005 0
19.92 0.005 0
20 0.005 0
20.08 0.005 0
20.16 0.005 0
20.24 0.005 0
20.32 0.005 0
20.4 0.005 0
20.48 0.005 0
20.56 0.005 0
20.64 0.005 0
20.72 0.005 0
20.8 0.005 0
20.88 0.005 0
20.96 0.005 0
21.04 0.005 0
21.12 0.005 0
21.2 0.005 0
21.28 0.005 0
21.36 0.005 0
21.44 0.005 0
21.52 0.005 0
21.6 0.005 0
21.68 0.005 0
21.76 0.005 0
21.84 0.005 0
21.92 0.005 0
22 0.005 0
22.08 0.005 0
22.16 0.005 0
22.24 0.005 0
22.32 0.005 0
22.4 0.005 0
22.48 0.005 0
22.56 0.005 0
22.64 0.005 0
22.72 0.005 0
22.8 0.005 0
22.88 0.005 0
22.96 0.005 0
23.04 0.005 0
23.12 0.005 0
23.2 0.005 0
23.28 0.005 0
23.36 0.005 0
23.44 0.005 0
23.52 0.005 0
23.6 0.005 0
23.68 0.005 0
23.76 0.005 0
23.84 0.005 0
23.92 0.005 0
24 0.005 0
24.08 0.005 0
24.16 0.005 0
24.24 0.005 0
24.32 0.005 0
24.4 0.005 0
24.48 0.005 0
24.56 0.005 0
24.64 0.005 0
24.72 0.005 0
24.8 0.005 0
24.88 0.005 0
24.96 0.005 0
25.04 0.005 0
25.12 0.005 0
25.2 0.005 0
25.28 0.005 0
25.36 0.005 0
25.44 0.005 0
25.52 0.005 0
25.6 0.005 0
25.68 0.005 0
25.76 0.005 0
25.84 0.005 0
25.92 0.005 0
26 0.005 0
26.08 0.005 0
26.16 0.005 0
26.24 0.005 0
26.32 0.005 0
26.4 0.005 0
26.48 0.005 0
26.56 0.005 0
26.64 0.005 0
26.72 0.005 0
26.8 0.005 0
26.88 0.005 0
26.96 0.005 0
27.04 0.005 0
27.12 0.005 0
27.2 0.005 0
27.28 0.005 0
27.36 0.005 0
27.44 0.005 0
27.52 0.005 0
27.6 0.005 0
27.68 0.005 0
27.76 0.005 0
27.84 0.005 0
27.92 0.005 0
28 0.005 0
28.08 0.005 0
28.16 0.005 0
28.24 0.005 0
28.32 0.005 0
28.4 0.005 0
28.48 0.005 0
28.56 0.005 0
28.64 0.005 0
28.72 0.005 0
28.8 0.005 0
28.88 0.005 0
28.96 0.005 0
29.04 0.005 0
29.12 0.005 0
29.2 0.005 0
29.28 0.005 0
29.36 0.005 0
29.44 0.005 0
29.52 0.005 0
29.6 0.005 0
29.68 0.005 0
29.76 0.005 0
29.84 0.005 0
29.92 0.005 0
30 0.005 0
30.08 0.005 0
30.16 0.005 0
30.24 0.005 0
30.32 0.005 0
30.4 0.005 0
30.48 0.005 0
30.56 0.005 0
30.64 0.005 0
30.72 0.005 0
30.8 0.005 0
30.88 0.005 0
30.96 0.005 0
31.04 0.005 0
31.12 0.005 0
31.2 0.005 0
31.28 0.005 0
31.36 0.005 0
31.44 0.005 0
31.52 0.005 0
31.6 0.005 0
31.68 0.005 0
31.76 0.005 0
31.84 0.005 0
31.92 0.005 0
0 0.01 0
0.08 0.01 0
0.16 0.01 0
0.24 0.01 0
0.32 0.01 0
0.4 0.01 0
0.48 0.01 0
0.56 0.01 0
0.64 0.01 0
0.72 0.01 0
0.8 0.01 0
0.88 0.01 0
0.96 0.01 0
1.04 0.01 0
1.12 0.01 0
1.2 0.01 0
1.28 0.01 0
1.36 0.01 0
1.44 0.01 0
1.52 0.01 0
1.6 0.01 0
1.68 0.01 0
1.76 0.01 0
1.84 0.01 0
1.92 0.01 0
2 0.01 0
2.08 0.01 0
2.16 0.01 0
2.24 0.01 0
2.32 0.01 0
2.4 0.01 0
2.48 0.01 0
2.56 0.01 0
2.64 0.01 0
2.72 0.01 0
2.8 0.01 0
2.88 0.01 0
2.96 0.01 0
3.04 0.01 0
3.12 0.01 0
3.2 0.01 0
3.28 0.01 0
3.36 0.01 0
3.44 0.01 0
3.52 0.01 0
3.6 0.01 0
3.68 0.01 0
3.76 0.01 0
3.84 0.01 0
3.92 0.01 0
4 0.01 0
4.08 0.01 0
4.16 0.01 0
4.24 0.01 0
4.32 0.01 0
4.4 0.01 0
4.48 0.01 0
4.56 0.01 0
4.64 0.01 0
4.72 0.01 0
4.8 0.01 0
4.88 0.01 0
4.96 0.01 0
5.04 0.01 0
5.12 0.01 0
[...]
POINT_DATA 80000

SCALARS u float 1
LOOKUP_TABLE default
0
-0.138621
-0.0910813
-0.086915
-0.08637
-0.0863877
-0.0866338
-0.0870147
-0.0874787
-0.0879957
-0.0885487
-0.0891277
-0.0897274
-0.0903448
-0.0909785
-0.0916279
-0.092293
-0.092974
-0.0936716
-0.0943863
-0.0951192
-0.0958711
-0.0966431
-0.0974364
-0.0982523
-0.0990921
-0.0999576
-0.10085
-0.101772
-0.102724
-0.103709
-0.10473
-0.105787
-0.106884
-0.108023
-0.109207
-0.110438
-0.111718
-0.113052
-0.114441
-0.115888
-0.117398
-0.118973
-0.120617
-0.122334
-0.12413
-0.12601
-0.127982
-0.130053
-0.132235
-0.13454
-0.136983
-0.139583
-0.142361
-0.145345
-0.148564
-0.15205
-0.155841
-0.159974
-0.164487
-0.169414
-0.174783
-0.180608
-0.186889
-0.193597
-0.200678
-0.208036
-0.215539
-0.223009
-0.230222
-0.23692
-0.242808
-0.247578
-0.250918
-0.252536
-0.25218
-0.249658
-0.244859
-0.237764
-0.228453
-0.217101
-0.203975
-0.189412
-0.173799
-0.157551
-0.141084
-0.12479
-0.109022
-0.0940749
-0.0801805
-0.0675013
-0.0561338
-0.0461137
-0.0374244
-0.0300074
-0.0237726
-0.0186094
-0.0143954
-0.0110048
-0.00831441
-0.00620881
-0.00458286
-0.00334389
-0.002412
-0.00172009
-0.00121281
-0.000845578
-0.000582951
-0.000397473
-0.000268006
-0.000178762
-0.000117918
-7.69703e-05
-4.96808e-05
-3.17501e-05
-2.00535e-05
-1.25567e-05
-7.75765e-06
-4.76634e-06
-2.87561e-06
-1.73991e-06
-1.01956e-06
-6.13683e-07
-3.43355e-07
-2.119e-07
-1.07087e-07
-7.43825e-08
-2.7856e-08
-2.91916e-08
-2.33693e-09
-1.49232e-08
5.5629e-09
-1.05917e-08
7.91496e-09
-9.3267e-09
8.58893e-09
-8.971e-09
8.77492e-09
-8.87465e-09
8.82437e-09
-8.8495e-09
8.83705e-09
-8.84316e-09
8.84019e-09
-8.84162e-09
8.84094e-09
-8.84126e-09
8.84111e-09
-8.84118e-09
8.84115e-09
-8.84116e-09
8.84115e-09
-8.84116e-09
8.84116e-09
-8.84116e-09
8.84116e-09
-8.84116e-09
8.84116e-09
-8.84116e-09
8.84116e-09
-8.84116e-09
8.84116e-09
-8.84116e-09
8.84116e-09
-8.84116e-09
8.84116e-09
-8.84116e-09
8.84116e-09
-8.84116e-09
8.84116e-09
-8.84116e-09
8.84116e-09
-8.84116e-09
8.84116e-09
-8.84116e-09
8.84116e-09
-8.84116e-09
8.84116e-09
-8.84116e-09
8.84116e-09
-8.84116e-09
8.84116e-09
-8.84116e-09
8.84116e-09
-8.84116e-09
8.84116e-09
-8.84116e-09
8.84116e-09
-8.84116e-09
8.84116e-09
-8.84116e-09
8.84116e-09
-8.84116e-09
8.84116e-09
-8.84116e-09
8.84116e-09
-8.84116e-09
8.84116e-09
-8.84116e-09
8.84116e-09
-8.84116e-09
8.84116e-09
-8.84116e-09
8.84116e-09
-8.84116e-09
8.84116e-09
-8.84116e-09
8.84116e-09
-8.84116e-09
8.84116e-09
-8.84116e-09
8.84116e-09
-8.84116e-09
8.84116e-09
-8.84116e-09
8.84116e-09
-8.84116e-09
8.84116e-09
-8.84116e-09
8.84116e-09
-8.84116e-09
8.84116e-09
-8.84116e-09
8.84116e-09
-8.84116e-09
8.84116e-09
-8.84116e-09
8.84116e-09
-8.84116e-09
8.84116e-09
-8.84116e-09
8.84116e-09
-8.84116e-09
8.84116e-09
-8.84116e-09
8.84116e-09
-8.84116e-09
8.84116e-09
-8.84116e-09
8.84116e-09
-8.84116e-09
8.84116e-09
-8.84116e-09
8.84116e-09
-8.84116e-09
8.84116e-09
-8.84116e-09
8.84116e-09
-8.84116e-09
8.84116e-09
-8.84116e-09
8.84116e-09
-8.84116e-09
8.84116e-09
-8.84116e-09
8.84116e-09
-8.84116e-09
8.84116e-09
-8.84116e-09
8.84116e-09
-8.84116e-09
8.84116e-09
-8.84116e-09
8.84116e-09
-8.84115e-09
8.84117e-09
-8.84113e-09
8.84121e-09
-8.84106e-09
8.84135e-09
-8.8408e-09
8.84182e-09
-8.83993e-09
8.84339e-09
-8.83712e-09
8.84837e-09
-8.8284e-09
8.86347e-09
-8.80254e-09
8.90727e-09
-8.72924e-09
9.0285e-09
-8.53105e-09
9.34868e-09
-8.01999e-09
1.01546e-08
-6.76465e-09
1.20859e-08
-3.83026e-09
1.64882e-08
2.69025e-09
2.60219e-08
1.6448e-08
4.5614e-08
4.39769e-08
8.37728e-08
9.61476e-08
1.54113e-07
1.89654e-07
2.76646e-07
3.47905e-07
4.78028e-07
6.00352e-07
7.89688e-07
9.79171e-07
1.24288e-06
1.51262e-06
1.86046e-06
2.21552e-06
2.64657e-06
3.07892e-06
3.57723e-06
4.06265e-06
4.59589e-06
5.09475e-06
5.61745e-06
6.08044e-06
6.54195e-06
6.91985e-06
7.27519e-06
7.52988e-06
7.74999e-06
7.86304e-06
7.94094e-06
7.91682e-06
7.8676e-06
7.7305e-06
7.58545e-06
7.37145e-06
7.16899e-06
6.91655e-06
6.69318e-06
6.43526e-06
6.21926e-06
5.97881e-06
5.78766e-06
5.57685e-06
5.41785e-06
5.2398e-06
5.11262e-06
4.96433e-06
4.86408e-06
4.73943e-06
4.65934e-06
4.55142e-06
4.48484e-06
4.38751e-06
4.32902e-06
4.23772e-06
4.18366e-06
4.09562e-06
4.04405e-06
3.95809e-06
3.90848e-06
3.8246e-06
3.77737e-06
3.69627e-06
3.65228e-06
3.57491e-06
3.53511e-06
3.46233e-06
3.42745e-06
3.35985e-06
3.3303e-06
3.26808e-06
3.24391e-06
3.18696e-06
3.16788e-06
3.11581e-06
3.10133e-06
3.05354e-06
3.04302e-06
2.99886e-06
2.99161e-06
2.95037e-06
2.94573e-06
2.90678e-06
2.90413e-06
2.86692e-06
2.86576e-06
2.82981e-06
2.82973e-06
2.7947e-06
2.7954e-06
2.76104e-06
2.76232e-06
2.72848e-06
2.73022e-06
2.69678e-06
2.69886e-06
2.66563e-06
2.66767e-06
2.63397e-06
2.63465e-06
2.59779e-06
2.59156e-06
2.5415e-06
2.52681e-06
2.52681e-06
2.52681e-06
1
0.138621
0.0910813
0.086915
0.08637
0.0863877
0.0866338
0.0870147
0.0874787
0.0879957
0.0885487
0.0891277
0.0897274
0.0903448
0.0909785
0.0916279
0.092293
0.092974
0.0936716
0.0943863
0.0951192
0.0958711
0.0966431
0.0974364
0.0982523
0.0990921
0.0999576
0.10085
0.101772
0.102724
0.103709
0.10473
0.105787
0.106884
0.108023
0.109207
0.110438
0.111718
0.113052
0.114441
0.115888
0.117398
0.118973
0.120617
0.122334
0.12413
0.12601
0.127982
0.130053
0.132235
0.13454
0.136983
0.139583
0.142361
0.145345
0.148564
0.15205
0.155841
0.159974
0.164487
0.169414
0.174783
0.180608
0.186889
0.193597
0.200678
0.208036
0.215539
0.223009
0.230222
0.23692
0.242808
0.247578
0.250918
0.252536
0.25218
0.249658
0.244859
0.237764
0.228453
0.217101
0.203975
0.189412
0.173799
0.157551
0.141084
0.12479
0.109022
0.0940749
0.0801805
0.0675013
0.0561338
0.0461137
0.0374244
0.0300074
0.0237726
0.0186094
0.0143954
0.0110048
0.00831441
0.00620881
0.00458286
0.00334389
0.002412
0.00172009
0.00121281
0.000845578
0.000582951
0.000397473
0.000268006
0.000178762
0.000117918
7.69703e-05
4.96808e-05
3.17501e-05
2.00535e-05
1.25567e-05
7.75765e-06
4.76634e-06
2.87561e-06
1.73991e-06
1.01956e-06
6.13683e-07
3.43355e-07
2.119e-07
1.07087e-07
7.43825e-08
2.7856e-08
2.91916e-08
2.33693e-09
1.49232e-08
-5.5629e-09
1.05917e-08
-7.91496e-09
9.3267e-09
-8.58893e-09
8.971e-09
-8.77492e-09
8.87465e-09
-8.82437e-09
8.8495e-09
-8.83705e-09
8.84316e-09
-8.84019e-09
8.84162e-09
-8.84094e-09
8.84126e-09
-8.84111e-09
8.84118e-09
-8.84115e-09
8.84116e-09
-8.84115e-09
8.84116e-09
-8.84116e-09
8.84116e-09
-8.84116e-09
8.84116e-09
-8.84116e-09
8.84116e-09
-8.84116e-09
8.84116e-09
-8.84116e-09
8.84116e-09
-8.84116e-09
8.84116e-09
-8.84116e-09
8.84116e-09
-8.84116e-09
8.84116e-09
-8.84116e-09
8.84116e-09
-8.84116e-09
8.84116e-09
-8.84116e-09
8.84116e-09
-8.84116e-09
8.84116e-09
-8.84116e-09
8.84116e-09
-8.84116e-09
8.84116e-09
-8.84116e-09
8.84116e-09
-8.84116e-09
8.84116e-09
-8.84116e-09
8.84116e-09
-8.84116e-09
8.84116e-09
-8.84116e-09
8.84116e-09
-8.84116e-09
8.84116e-09
-8.84116e-09
8.84116e-09
-8.84116e-09
8.84116e-09
-8.84116e-09
8.84116e-09
-8.84116e-09
8.84116e-09
-8.84116e-09
8.84116e-09
-8.84116e-09
8.84116e-09
-8.84116e-09
8.84116e-09
-8.84116e-09
8.84116e-09
-8.84116e-09
8.84116e-09
-8.84116e-09
8.84116e-09
-8.84116e-09
8.84116e-09
-8.84116e-09
8.84116e-09
-8.84116e-09
8.84116e-09
-8.84116e-09
8.84116e-09
-8.84116e-09
8.84116e-09
-8.84116e-09
8.84116e-09
-8.84116e-09
8.84116e-09
-8.84116e-09
8.84116e-09
-8.84116e-09
8.84116e-09
-8.84116e-09
8.84116e-09
-8.84116e-09
8.84116e-09
-8.84116e-09
8.84116e-09
-8.84116e-09
8.84116e-09
-8.84116e-09
8.84116e-09
-8.84116e-09
8.84116e-09
-8.84116e-09
8.84116e-09
-8.84116e-09
8.84116e-09
-8.84116e-09
8.84116e-09
-8.84116e-09
8.84116e-09
-8.84116e-09
8.84116e-09
-8.84116e-09
8.84116e-09
-8.84116e-09
8.84116e-09
-8.84116e-09
8.84116e-09
-8.84116e-09
8.84116e-09
-8.84116e-09
8.84116e-09
-8.84116e-09
8.84115e-09
-8.84117e-09
8.84113e-09
-8.84121e-09
8.84106e-09
-8.84135e-09
8.8408e-09
-8.84182e-09
8.83993e-09
-8.84339e-09
8.83712e-09
-8.84837e-09
8.8284e-09
-8.86347e-09
8.80254e-09
-8.90727e-09
8.72924e-09
-9.0285e-09
8.53105e-09
-9.34868e-09
8.01999e-09
-1.01546e-08
6.76465e-09
-1.20859e-08
3.83026e-09
-1.64882e-08
-2.69025e-09
-2.60219e-08
-1.6448e-08
-4.5614e-08
-4.39769e-08
-8.37728e-08
-9.61476e-08
-1.54113e-07
-1.89654e-07
-2.76646e-07
-3.47905e-07
-4.78028e-07
-6.00352e-07
-7.89688e-07
-9.79171e-07
-1.24288e-06
-1.51262e-06
-1.86046e-06
-2.21552e-06
-2.64657e-06
-3.07892e-06
-3.57723e-06
-4.06265e-06
-4.59589e-06
-5.09475e-06
-5.61745e-06
-6.08044e-06
-6.54195e-06
-6.91985e-06
-7.27519e-06
-7.52988e-06
-7.74999e-06
-7.86304e-06
-7.94094e-06
-7.91682e-06
-7.8676e-06
-7.7305e-06
-7.58545e-06
-7.37145e-06
-7.16899e-06
-6.91655e-06
-6.69318e-06
-6.43526e-06
-6.21926e-06
-5.97881e-06
-5.78766e-06
-5.57685e-06
-5.41785e-06
-5.2398e-06
-5.11262e-06
-4.96433e-06
-4.86408e-06
-4.73943e-06
-4.65934e-06
-4.55142e-06
-4.48484e-06
-4.38751e-06
-4.32902e-06
-4.23772e-06
-4.18366e-06
-4.09562e-06
-4.04405e-06
-3.95809e-06
-3.90848e-06
-3.8246e-06
-3.77737e-06
-3.69627e-06
-3.65228e-06
-3.57491e-06
-3.53511e-06
-3.46233e-06
-3.42745e-06
-3.35985e-06
-3.3303e-06
-3.26808e-06
-3.24391e-06
-3.18696e-06
-3.16788e-06
-3.11581e-06
-3.10133e-06
-3.05354e-06
-3.04302e-06
-2.99886e-06
-2.99161e-06
-2.95037e-06
-2.94573e-06
-2.90678e-06
-2.90413e-06
-2.86692e-06
-2.86576e-06
-2.82981e-06
-2.82973e-06
-2.7947e-06
-2.7954e-06
-2.76104e-06
-2.76232e-06
-2.72848e-06
-2.73022e-06
-2.69678e-06
-2.69886e-06
-2.66563e-06
-2.66767e-06
-2.63397e-06
-2.63465e-06
-2.59779e-06
-2.59156e-06
-2.5415e-06
-2.52681e-06
-2.52681e-06
-2.52681e-06
1
0.366091
0.267707
0.255935
0.25414
0.254108
0.254781
0.255853
0.257167
0.258632
0.260201
0.261844
0.263546
0.265299
0.267099
0.268943
0.270832
0.272766
0.274748
0.276778
0.278859
0.280994
0.283185
0.285434
0.287746
0.290123
0.292569
0.295087
0.297682
0.300358
0.303118
0.305969
0.308914
0.311957
0.315106
0.318364
0.321738
0.325232
0.328855
0.332611
0.336508
0.340553
0.344755
0.349124
0.353669
0.358403
0.363341
0.368496
0.37389
0.379542
0.385478
0.391724
0.398312
0.405274
0.412645
0.420459
0.428748
0.43754
0.446849
0.456678
0.467006
0.477782
0.488918
0.500281
0.511685
0.522886
0.533578
0.543395
0.551919
0.558688
0.563219
0.565028
0.563659
0.558719
0.549903
0.537031
0.520063
0.499117
0.474475
0.446568
0.41596
0.383319
0.349373
0.314878
0.280571
0.247133
0.215163
0.18515
0.157464
0.132354
0.109948
0.0902703
0.0732512
0.0587506
0.0465752
0.036497
0.0282711
0.0216485
0.0163884
0.0122655
0.0090762
0.00664059
0.00480428
0.00343699
0.00243165
0.00170135
0.00117741
0.000805866
0.000545657
0.000365422
0.000242165
0.000158711
0.00010298
6.60535e-05
4.19887e-05
2.63522e-05
1.64301e-05
1.00777e-05
6.17927e-06
3.69019e-06
2.24131e-06
1.28795e-06
7.91181e-07
4.21617e-07
2.78925e-07
1.21803e-07
1.05217e-07
2.21649e-08
4.86314e-08
-9.65499e-09
3.09124e-08
-1.94265e-08
2.55754e-08
-2.23138e-08
2.40281e-08
-2.31352e-08
2.35961e-08
-2.33603e-08
2.34799e-08
-2.34198e-08
2.34497e-08
-2.34349e-08
2.34422e-08
-2.34387e-08
2.34403e-08
-2.34395e-08
2.34399e-08
-2.34397e-08
2.34398e-08
-2.34398e-08
2.34398e-08
-2.34398e-08
2.34398e-08
-2.34398e-08
2.34398e-08
-2.34398e-08
2.34398e-08
-2.34398e-08
2.34398e-08
-2.34398e-08
2.34398e-08
-2.34398e-08
2.34398e-08
-2.34398e-08
2.34398e-08
-2.34398e-08
2.34398e-08
-2.34398e-08
2.34398e-08
-2.34398e-08
2.34398e-08
-2.34398e-08
2.34398e-08
-2.34398e-08
2.34398e-08
-2.34398e-08
2.34398e-08
-2.34398e-08
2.34398e-08
-2.34398e-08
2.34398e-08
-2.34398e-08
2.34398e-08
-2.34398e-08
2.34398e-08
-2.34398e-08
2.34398e-08
-2.34398e-08
2.34398e-08
-2.34398e-08
2.34398e-08
-2.34398e-08
2.34398e-08
-2.34398e-08
2.34398e-08
-2.34398e-08
2.34398e-08
-2.34398e-08
2.34398e-08
-2.34398e-08
2.34398e-08
-2.34398e-08
2.34398e-08
-2.34398e-08
2.34398e-08
-2.34398e-08
2.34398e-08
-2.34398e-08
2.34398e-08
-2.34398e-08
2.34398e-08
-2.34398e-08
2.34398e-08
-2.34398e-08
2.34398e-08
-2.34398e-08
2.34398e-08
-2.34398e-08
2.34398e-08
-2.34398e-08
2.34398e-08
-2.34398e-08
2.34398e-08
-2.34398e-08
2.34398e-08
-2.34398e-08
2.34398e-08
-2.34398e-08
2.34398e-08
-2.34398e-08
2.34398e-08
-2.34398e-08
2.34398e-08
-2.34398e-08
2.34398e-08
-2.34398e-08
2.34398e-08
-2.34398e-08
2.34398e-08
-2.34398e-08
2.34398e-08
-2.34398e-08
2.34398e-08
-2.34398e-08
2.34398e-08
-2.34398e-08
2.34398e-08
-2.34398e-08
2.34398e-08
-2.34398e-08
2.34398e-08
-2.34398e-08
2.34398e-08
-2.34398e-08
2.34398e-08
-2.34398e-08
2.34398e-08
-2.34398e-08
2.34398e-08
-2.34398e-08
2.34398e-08
-2.34398e-08
2.34398e-08
-2.34398e-08
2.34398e-08
-2.34398e-08
2.34398e-08
-2.34399e-08
2.34397e-08
-2.344e-08
2.34394e-08
-2.34406e-08
2.34383e-08
-2.34426e-08
2.34348e-08
-2.34488e-08
2.34238e-08
-2.3468e-08
2.33908e-08
-2.35241e-08
2.32964e-08
-2.36811e-08
2.30382e-08
-2.41007e-08
2.23644e-08
-2.51701e-08
2.06874e-08
-2.77681e-08
1.67117e-08
-3.37771e-08
7.74223e-09
-4.69975e-08
-1.14967e-08
-7.4636e-08
-5.06878e-08
-1.29481e-07
-1.26424e-07
-2.32667e-07
-2.65104e-07
-4.16499e-07
-5.05412e-07
-7.26225e-07
-8.98935e-07
-1.21901e-06
-1.50701e-06
-1.95824e-06
-2.39214e-06
-3.00186e-06
-3.60348e-06
-4.38556e-06
-5.15847e-06
-6.10409e-06
-7.02547e-06
-8.09692e-06
-9.11419e-06
-1.02451e-05
-1.12801e-05
-1.23836e-05
-1.3345e-05
-1.43297e-05
-1.51306e-05
-1.59187e-05
-1.64946e-05
-1.70381e-05
-1.73591e-05
-1.76473e-05
-1.77214e-05
-1.7779e-05
-1.76452e-05
-1.7522e-05
-1.72374e-05
-1.69943e-05
-1.662e-05
-1.63153e-05
-1.59046e-05
-1.55853e-05
-1.51776e-05
-1.48749e-05
-1.44938e-05
-1.42245e-05
-1.38804e-05
-1.36493e-05
-1.33429e-05
-1.31473e-05
-1.28734e-05
-1.27069e-05
-1.24582e-05
-1.23131e-05
-1.20823e-05
-1.19519e-05
-1.17333e-05
-1.16128e-05
-1.14024e-05
-1.12891e-05
-1.10851e-05
-1.09778e-05
-1.07798e-05
-1.06787e-05
-1.04874e-05
-1.03935e-05
-1.02098e-05
-1.01241e-05
-9.94909e-06
-9.87246e-06
-9.70682e-06
-9.63977e-06
-9.48379e-06
-9.42638e-06
-9.27991e-06
-9.23177e-06
-9.09429e-06
-9.05477e-06
-8.92548e-06
-8.89371e-06
-8.77169e-06
-8.7467e-06
-8.63097e-06
-8.6118e-06
-8.50142e-06
-8.48717e-06
-8.38131e-06
-8.3712e-06
-8.26917e-06
-8.26259e-06
-8.16384e-06
-8.16034e-06
-8.06447e-06
-8.06367e-06
-7.97033e-06
-7.97179e-06
-7.88028e-06
-7.88283e-06
-7.79101e-06
-7.79062e-06
-7.69073e-06
-7.67171e-06
-7.53654e-06
-7.49805e-06
-7.49805e-06
-7.49805e-06
1
0.55244
0.432532
0.414211
0.410967
0.41072
0.411658
0.413243
0.415211
0.417418
0.419783
0.422262
0.424829
0.42747
0.430178
0.432951
0.435787
0.438687
0.441652
0.444685
0.447789
0.450966
0.45422
0.457554
0.460972
0.464477
0.468074
0.471766
0.47556
0.479458
0.483466
0.487589
0.491832
0.4962
0.500699
0.505334
0.510112
0.515037
0.520118
0.525359
0.530769
0.536354
0.542123
0.548084
0.554247
0.560623
0.567224
0.574063
0.581155
0.588514
0.596158
0.604103
0.612367
0.620963
0.629902
0.639191
0.648823
0.658781
0.669029
0.679505
0.690117
0.700735
0.711186
0.721247
0.73064
0.739032
0.746038
0.751226
0.754132
0.754271
0.751168
0.74438
0.733526
0.718321
0.698601
0.674349
0.645709
0.612991
0.576671
0.537364
0.495802
0.452797
0.409196
0.365838
0.323513
0.282927
0.244674
0.209214
0.176873
0.147835
0.122162
0.0997998
0.080605
0.0643631
0.0508119
0.0396603
0.0306073
0.0233551
0.0176216
0.0131471
0.00969964
0.00707676
0.00510622
0.00364378
0.00257181
0.00179534
0.0012398
0.000846832
0.000572307
0.000382555
0.000253095
0.000165586
0.000107289
6.87008e-05
4.36254e-05
2.73279e-05
1.7032e-05
1.04193e-05
6.39657e-06
3.80083e-06
2.32128e-06
1.31773e-06
8.24011e-07
4.24181e-07
2.96186e-07
1.15545e-07
1.17527e-07
1.31546e-08
5.94249e-08
-1.94933e-08
4.1258e-08
-2.9505e-08
3.57933e-08
-3.24595e-08
3.42109e-08
-3.32991e-08
3.37696e-08
-3.3529e-08
3.36509e-08
-3.35897e-08
3.36202e-08
-3.36051e-08
3.36125e-08
-3.36089e-08
3.36106e-08
-3.36098e-08
3.36102e-08
-3.361e-08
3.36101e-08
-3.36101e-08
3.36101e-08
-3.36101e-08
3.36101e-08
-3.36101e-08
3.36101e-08
-3.36101e-08
3.36101e-08
-3.36101e-08
3.36101e-08
-3.36101e-08
3.36101e-08
-3.36101e-08
3.36101e-08
-3.36101e-08
3.36101e-08
-3.36101e-08
3.36101e-08
-3.36101e-08
3.36101e-08
-3.36101e-08
3.36101e-08
-3.36101e-08
3.36101e-08
-3.36101e-08
3.36101e-08
-3.36101e-08
3.36101e-08
-3.36101e-08
3.36101e-08
-3.36101e-08
3.36101e-08
-3.36101e-08
3.36101e-08
-3.36101e-08
3.36101e-08
-3.36101e-08
3.36101e-08
-3.36101e-08
3.36101e-08
-3.36101e-08
3.36101e-08
-3.36101e-08
3.36101e-08
-3.36101e-08
3.36101e-08
-3.36101e-08
3.36101e-08
-3.36101e-08
3.36101e-08
-3.36101e-08
3.36101e-08
-3.36101e-08
3.36101e-08
-3.36101e-08
3.36101e-08
-3.36101e-08
3.36101e-08
-3.36101e-08
3.36101e-08
-3.36101e-08
3.36101e-08
-3.36101e-08
3.36101e-08
-3.36101e-08
3.36101e-08
-3.36101e-08
3.36101e-08
-3.36101e-08
3.36101e-08
-3.36101e-08
3.36101e-08
-3.36101e-08
3.36101e-08
-3.36101e-08
3.36101e-08
-3.36101e-08
3.36101e-08
-3.36101e-08
3.36101e-08
-3.36101e-08
3.36101e-08
-3.36101e-08
3.36101e-08
-3.36101e-08
3.36101e-08
-3.36101e-08
3.36101e-08
-3.36101e-08
3.36101e-08
-3.36101e-08
3.36101e-08
-3.36101e-08
3.36101e-08
-3.36101e-08
3.36101e-08
-3.36101e-08
3.36101e-08
-3.36101e-08
3.36101e-08
-3.36101e-08
3.36101e-08
-3.36101e-08
3.36101e-08
-3.36101e-08
3.36101e-08
-3.36101e-08
3.36101e-08
-3.36101e-08
3.36101e-08
-3.36101e-08
3.36101e-08
-3.36101e-08
3.36101e-08
-3.36101e-08
3.36101e-08
-3.36101e-08
3.361e-08
-3.36101e-08
3.361e-08
-3.36103e-08
3.36096e-08
-3.36109e-08
3.36085e-08
-3.36129e-08
3.36049e-08
-3.36193e-08
3.35936e-08
-3.3639e-08
3.35596e-08
-3.36969e-08
3.34622e-08
-3.38592e-08
3.3195e-08
-3.42941e-08
3.24955e-08
-3.54058e-08
3.07495e-08
-3.81154e-08
2.65954e-08
-4.44064e-08
1.71855e-08
-5.83065e-08
-3.09028e-09
-8.75079e-08
-4.46089e-08
-1.45777e-07
-1.25321e-07
-2.56105e-07
-2.74126e-07
-4.54108e-07
-5.34014e-07
-7.90543e-07
-9.63501e-07
-1.33112e-06
-1.63426e-06
-2.15145e-06
-2.62293e-06
-3.32547e-06
-3.99623e-06
-4.90758e-06
-5.79091e-06
-6.9116e-06
-7.99314e-06
-9.29245e-06
-1.05245e-05
-1.19382e-05
-1.32416e-05
-1.46783e-05
-1.59532e-05
-1.73091e-05
-1.84525e-05
-1.96306e-05
-2.05565e-05
-2.14855e-05
-2.21403e-05
-2.27862e-05
-2.31558e-05
-2.35239e-05
-2.36312e-05
-2.3759e-05
-2.36529e-05
-2.3597e-05
-2.33381e-05
-2.316e-05
-2.28079e-05
-2.25631e-05
-2.21674e-05
-2.18985e-05
-2.14946e-05
-2.12299e-05
-2.08392e-05
-2.05939e-05
-2.02263e-05
-2.00057e-05
-1.9663e-05
-1.94663e-05
-1.91457e-05
-1.89689e-05
-1.86659e-05
-1.85043e-05
-1.82142e-05
-1.80636e-05
-1.7783e-05
-1.76408e-05
-1.73678e-05
-1.72327e-05
-1.69667e-05
-1.68386e-05
-1.65799e-05
-1.64596e-05
-1.62091e-05
-1.60976e-05
-1.58564e-05
-1.57545e-05
-1.55234e-05
-1.5432e-05
-1.52115e-05
-1.51308e-05
-1.4921e-05
-1.48509e-05
-1.46515e-05
-1.45914e-05
-1.44018e-05
-1.43512e-05
-1.41705e-05
-1.41284e-05
-1.39558e-05
-1.39213e-05
-1.37559e-05
-1.37281e-05
-1.3569e-05
-1.35472e-05
-1.33937e-05
-1.33772e-05
-1.32287e-05
-1.32169e-05
-1.3073e-05
-1.30656e-05
-1.29257e-05
-1.2922e-05
-1.27852e-05
-1.27834e-05
-1.26462e-05
-1.26401e-05
-1.24908e-05
-1.24568e-05
-1.22561e-05
-1.2198e-05
-1.2198e-05
-1.2198e-05
1
0.703634
0.580509
0.556894
0.552005
0.551321
0.552289
0.554129
0.556474
0.559127
0.56198
0.564972
0.568069
0.571251
0.574509
0.577836
0.581232
0.584696
0.58823
0.591834
0.595511
0.599263
0.603095
0.607007
0.611004
0.615088
0.619264
0.623534
0.627902
0.632371
0.636946
0.64163
0.646426
0.651339
0.656372
0.661529
0.666813
0.672227
0.677776
0.683461
0.689288
0.695258
0.701376
0.707643
0.714064
0.720642
0.727379
0.73428
0.741346
0.74858
0.755982
0.763553
0.771287
0.779178
0.78721
0.795361
0.803595
0.811863
0.820094
0.828195
0.83604
0.843471
0.85029
0.856254
0.861076
0.864424
0.865926
0.865178
0.861753
0.855225
0.845186
0.831272
0.813192
0.790752
0.763885
0.732664
0.69732
0.658239
0.615959
0.571143
0.524557
0.47703
0.429411
0.382529
0.337154
0.29396
0.253505
0.21621
0.182357
0.152091
0.12543
0.102283
0.0824728
0.0657537
0.0518368
0.040408
0.0311473
0.0237413
0.0178951
0.0133388
0.00983285
0.0071684
0.00516869
0.00368595
0.00260004
0.00181405
0.0012521
0.000854839
0.000577487
0.000385864
0.000255204
0.000166906
0.000108122
6.92084e-05
4.39454e-05
2.75148e-05
1.71532e-05
1.04839e-05
6.4431e-06
3.82028e-06
2.34069e-06
1.32103e-06
8.33881e-07
4.21888e-07
3.02805e-07
1.11377e-07
1.23073e-07
8.37725e-09
6.46275e-08
-2.44624e-08
4.63542e-08