# vtk DataFile Version 2.0
FlowField
ASCII
DATASET STRUCTURED_GRID
DIMENSIONS 400 1 200
POINTS 80000 float
0 0 0
0.08 0 0
0.16 0 0
0.24 0 0
0.32 0 0
0.4 0 0
0.48 0 0
0.56 0 0
0.64 0 0
0.72 0 0
0.8 0 0
0.88 0 0
0.96 0 0
1.04 0 0
1.12 0 0
1.2 0 0
1.28 0 0
1.36 0 0
1.44 0 0
1.52 0 0
1.6 0 0
1.68 0 0
1.76 0 0
1.84 0 0
1.92 0 0
2 0 0
2.08 0 0
2.16 0 0
2.24 0 0
2.32 0 0
2.4 0 0
2.48 0 0
2.56 0 0
2.64 0 0
2.72 0 0
2.8 0 0
2.88 0 0
2.96 0 0
3.04 0 0
3.12 0 0
3.2 0 0
3.28 0 0
3.36 0 0
3.44 0 0
3.52 0 0
3.6 0 0
3.68 0 0
3.76 0 0
3.84 0 0
3.92 0 0
4 0 0
4.08 0 0
4.16 0 0
4.24 0 0
4.32 0 0
4.4 0 0
4.48 0 0
4.56 0 0
4.64 0 0
4.72 0 0
4.8 0 0
4.88 0 0
4.96 0 0
5.04 0 0
5.12 0 0
5.2 0 0
5.28 0 0
5.36 0 0
5.44 0 0
5.52 0 0
5.6 0 0
5.68 0 0
5.76 0 0
5.84 0 0
5.92 0 0
6 0 0
6.08 0 0
6.16 0 0
6.24 0 0
6.32 0 0
6.4 0 0
6.48 0 0
6.56 0 0
6.64 0 0
6.72 0 0
6.8 0 0
6.88 0 0
6.96 0 0
7.04 0 0
7.12 0 0
7.2 0 0
7.28 0 0
7.36 0 0
7.44 0 0
7.52 0 0
7.6 0 0
7.68 0 0
7.76 0 0
7.84 0 0
7.92 0 0
8 0 0
8.08 0 0
8.16 0 0
8.24 0 0
8.32 0 0
8.4 0 0
8.48 0 0
8.56 0 0
8.64 0 0
8.72 0 0
8.8 0 0
8.88 0 0
8.96 0 0
9.04 0 0
9.12 0 0
9.2 0 0
9.28 0 0
9.36 0 0
9.44 0 0
9.52 0 0
9.6 0 0
9.68 0 0
9.76 0 0
9.84 0 0
9.92 0 0
10 0 0
10.08 0 0
10.16 0 0
10.24 0 0
10.32 0 0
10.4 0 0
10.48 0 0
10.56 0 0
10.64 0 0
10.72 0 0
10.8 0 0
10.88 0 0
10.96 0 0
11.04 0 0
11.12 0 0
11.2 0 0
11.28 0 0
11.36 0 0
11.44 0 0
11.52 0 0
11.6 0 0
11.68 0 0
11.76 0 0
11.84 0 0
11.92 0 0
12 0 0
12.08 0 0
12.16 0 0
12.24 0 0
12.32 0 0
12.4 0 0
12.48 0 0
12.56 0 0
12.64 0 0
12.72 0 0
12.8 0 0
12.88 0 0
12.96 0 0
13.04 0 0
13.12 0 0
13.2 0 0
13.28 0 0
13.36 0 0
13.44 0 0
13.52 0 0
13.6 0 0
13.68 0 0
13.76 0 0
13.84 0 0
13.92 0 0
14 0 0
14.08 0 0
14.16 0 0
14.24 0 0
14.32 0 0
14.4 0 0
14.48 0 0
14.56 0 0
14.64 0 0
14.72 0 0
14.8 0 0
14.88 0 0
14.96 0 0
15.04 0 0
15.12 0 0
15.2 0 0
15.28 0 0
15.36 0 0
15.44 0 0
15.52 0 0
15.6 0 0
15.68 0 0
15.76 0 0
15.84 0 0
15.92 0 0
16 0 0
16.08 0 0
16.16 0 0
16.24 0 0
16.32 0 0
16.4 0 0
16.48 0 0
16.56 0 0
16.64 0 0
16.72 0 0
16.8 0 0
16.88 0 0
16.96 0 0
17.04 0 0
17.12 0 0
17.2 0 0
17.28 0 0
17.36 0 0
17.44 0 0
17.52 0 0
17.6 0 0
17.68 0 0
17.76 0 0
17.84 0 0
17.92 0 0
18 0 0
18.08 0 0
18.16 0 0
18.24 0 0
18.32 0 0
18.4 0 0
18.48 0 0
18.56 0 0
18.64 0 0
18.72 0 0
18.8 0 0
18.88 0 0
18.96 0 0
19.04 0 0
19.12 0 0
19.2 0 0
19.28 0 0
19.36 0 0
19.44 0 0
19.52 0 0
19.6 0 0
19.68 0 0
19.76 0 0
19.84 0 0
19.92 0 0
20 0 0
20.08 0 0
20.16 0 0
20.24 0 0
20.32 0 0
20.4 0 0
20.48 0 0
20.56 0 0
20.64 0 0
20.72 0 0
20.8 0 0
20.88 0 0
20.96 0 0
21.04 0 0
21.12 0 0
21.2 0 0
21.28 0 0
21.36 0 0
21.44 0 0
21.52 0 0
21.6 0 0
21.68 0 0
21.76 0 0
21.84 0 0
21.92 0 0
22 0 0
22.08 0 0
22.16 0 0
22.24 0 0
22.32 0 0
22.4 0 0
22.48 0 0
22.56 0 0
22.64 0 0
22.72 0 0
22.8 0 0
22.88 0 0
22.96 0 0
23.04 0 0
23.12 0 0
23.2 0 0
23.28 0 0
23.36 0 0
23.44 0 0
23.52 0 0
23.6 0 0
23.68 0 0
23.76 0 0
23.84 0 0
23.92 0 0
24 0 0
24.08 0 0
24.16 0 0
24.24 0 0
24.32 0 0
24.4 0 0
24.48 0 0
24.56 0 0
24.64 0 0
24.72 0 0
24.8 0 0
24.88 0 0
24.96 0 0
25.04 0 0
25.12 0 0
25.2 0 0
25.28 0 0
25.36 0 0
25.44 0 0
25.52 0 0
25.6 0 0
25.68 0 0
25.76 0 0
25.84 0 0
25.92 0 0
26 0 0
26.08 0 0
26.16 0 0
26.24 0 0
26.32 0 0
26.4 0 0
26.48 0 0
26.56 0 0
26.64 0 0
26.72 0 0
26.8 0 0
26.88 0 0
26.96 0 0
27.04 0 0
27.12 0 0
27.2 0 0
27.28 0 0
27.36 0 0
27.44 0 0
27.52 0 0
27.6 0 0
27.68 0 0
27.76 0 0
27.84 0 0
27.92 0 0
28 0 0
28.08 0 0
28.16 0 0
28.24 0 0
28.32 0 0
28.4 0 0
28.48 0 0
28.56 0 0
28.64 0 0
28.72 0 0
28.8 0 0
28.88 0 0
28.96 0 0
29.04 0 0
29.12 0 0
29.2 0 0
29.28 0 0
29.36 0 0
29.44 0 0
29.52 0 0
29.6 0 0
29.68 0 0
29.76 0 0
29.84 0 0
29.92 0 0
30 0 0
30.08 0 0
30.16 0 0
30.24 0 0
30.32 0 0
30.4 0 0
30.48 0 0
30.56 0 0
30.64 0 0
30.72 0 0
30.8 0 0
30.88 0 0
30.96 0 0
31.04 0 0
31.12 0 0
31.2 0 0
31.28 0 0
31.36 0 0
31.44 0 0
31.52 0 0
31.6 0 0
31.68 0 0
31.76 0 0
31.84 0 0
31.92 0 0
0 0.005 0
0.08 0.005 0
0.16 0.005 0
0.24 0.005 0
0.32 0.005 0
0.4 0.005 0
0.48 0.005 0
0.56 0.005 0
0.64 0.005 0
0.72 0.005 0
0.8 0.005 0
0.88 0.005 0
0.96 0.005 0
1.04 0.005 0
1.12 0.005 0
1.2 0.005 0
1.28 0.005 0
1.36 0.005 0
1.44 0.005 0
1.52 0.005 0
1.6 0.005 0
1.68 0.005 0
1.76 0.005 0
1.84 0.005 0
1.92 0.005 0
2 0.005 0
2.08 0.005 0
2.16 0.005 0
2.24 0.005 0
2.32 0.005 0
2.4 0.005 0
2.48 0.005 0
2.56 0.005 0
2.64 0.005 0
2.72 0.005 0
2.8 0.005 0
2.88 0.005 0
2.96 0.005 0
3.04 0.005 0
3.12 0.005 0
3.2 0.005 0
3.28 0.005 0
3.36 0.005 0
3.44 0.005 0
3.52 0.005 0
3.6 0.005 0
3.68 0.005 0
3.76 0.005 0
3.84 0.005 0
3.92 0.005 0
4 0.005 0
4.08 0.005 0
4.16 0.005 0
4.24 0.005 0
4.32 0.005 0
4.4 0.005 0
4.48 0.005 0
4.56 0.005 0
4.64 0.005 0
4.72 0.005 0
4.8 0.005 0
4.88 0.005 0
4.96 0.005 0
5.04 0.005 0
5.12 0.005 0
5.2 0.005 0
5.28 0.005 0
5.36 0.005 0
5.44 0.005 0
5.52 0.005 0
5.6 0.005 0
5.68 0.005 0
5.76 0.005 0
5.84 0.005 0
5.92 0.005 0
6 0.005 0
6.08 0.005 0
6.16 0.005 0
6.24 0.005 0
6.32 0.005 0
6.4 0.005 0
6.48 0.005 0
6.56 0.005 0
6.64 0.005 0
6.72 0.005 0
6.8 0.005 0
6.88 0.005 0
6.96 0.005 0
7.04 0.005 0
7.12 0.005 0
7.2 0.005 0
7.28 0.005 0
7.36 0.005 0
7.44 0.005 0
7.52 0.005 0
7.6 0.005 0
7.68 0.005 0
7.76 0.005 0
7.84 0.005 0
7.92 0.005 0
8 0.005 0
8.08 0.005 0
8.16 0.005 0
8.24 0.005 0
8.32 0.005 0
8.4 0.005 0
8.48 0.005 0
8.56 0.005 0
8.64 0.005 0
8.72 0.005 0
8.8 0.005 0
8.88 0.005 0
8.96 0.005 0
9.04 0.005 0
9.12 0.005 0
9.2 0.005 0
9.28 0.005 0
9.36 0.005 0
9.44 0.005 0
9.52 0.005 0
9.6 0.005 0
9.68 0.005 0
9.76 0.005 0
9.84 0.005 0
9.92 0.005 0
10 0.005 0
10.08 0.005 0
10.16 0.005 0
10.24 0.005 0
10.32 0.005 0
10.4 0.005 0
10.48 0.005 0
10.56 0.005 0
10.64 0.005 0
10.72 0.005 0
10.8 0.005 0
10.88 0.005 0
10.96 0.005 0
11.04 0.005 0
11.12 0.005 0
11.2 0.005 0
11.28 0.005 0
11.36 0.005 0
11.44 0.005 0
11.52 0.005 0
11.6 0.005 0
11.68 0.005 0
11.76 0.005 0
11.84 0.005 0
11.92 0.005 0
12 0.005 0
12.08 0.005 0
12.16 0.005 0
12.24 0.005 0
12.32 0.005 0
12.4 0.005 0
12.48 0.005 0
12.56 0.005 0
12.64 0.005 0
12.72 0.005 0
12.8 0.005 0
12.88 0.005 0
12.96 0.005 0
13.04 0.005 0
13.12 0.005 0
13.2 0.005 0
13.28 0.005 0
13.36 0.005 0
13.44 0.005 0
13.52 0.005 0
13.6 0.005 0
13.68 0.005 0
13.76 0.005 0
13.84 0.005 0
13.92 0.005 0
14 0.005 0
14.08 0.005 0
14.16 0.005 0
14.24 0.005 0
14.32 0.005 0
14.4 0.005 0
14.48 0.005 0
14.56 0.005 0
14.64 0.005 0
14.72 0.005 0
14.8 0.005 0
14.88 0.005 0
14.96 0.005 0
15.04 0.005 0
15.12 0.005 0
15.2 0.005 0
15.28 0.005 0
15.36 0.005 0
15.44 0.005 0
15.52 0.005 0
15.6 0.005 0
15.68 0.005 0
15.76 0.005 0
15.84 0.005 0
15.92 0.005 0
16 0.005 0
16.08 0.005 0
16.16 0.005 0
16.24 0.005 0
16.32 0.005 0
16.4 0.005 0
16.48 0.005 0
16.56 0.005 0
16.64 0.005 0
16.72 0.005 0
16.8 0.005 0
16.88 0.005 0
16.96 0.005 0
17.04 0.005 0
17.12 0.005 0
17.2 0.005 0
17.28 0.005 0
17.36 0.005 0
17.44 0.005 0
17.52 0.005 0
17.6 0.005 0
17.68 0.005 0
17.76 0.005 0
17.84 0.005 0
17.92 0.005 0
18 0.005 0
18.08 0.005 0
18.16 0.005 0
18.24 0.005 0
18.32 0.005 0
18.4 0.005 0
18.48 0.005 0
18.56 0.005 0
18.64 0.005 0
18.72 0.005 0
18.8 0.005 0
18.88 0.005 0
18.96 0.005 0
19.04 0.005 0
19.12 0.005 0
19.2 0.005 0
19.28 0.005 0
19.36 0.005 0
19.44 0.005 0
19.52 0.005 0
19.6 0.005 0
19.68 0.005 0
19.76 0.005 0
19.84 0.005 0
19.92 0.005 0
20 0.005 0
20.08 0.005 0
20.16 0.005 0
20.24 0.005 0
20.32 0.005 0
20.4 0.005 0
20.48 0.005 0
20.56 0.005 0
20.64 0.005 0
20.72 0.005 0
20.8 0.005 0
20.88 0.005 0
20.96 0.005 0
21.04 0.005 0
21.12 0.005 0
21.2 0.005 0
21.28 0.005 0
21.36 0.005 0
21.44 0.005 0
21.52 0.005 0
21.6 0.005 0
21.68 0.005 0
21.76 0.005 0
21.84 0.005 0
21.92 0.005 0
22 0.005 0
22.08 0.005 0
22.16 0.005 0
22.24 0.005 0
22.32 0.005 0
22.4 0.005 0
22.48 0.005 0
22.56 0.005 0
22.64 0.005 0
22.72 0.005 0
22.8 0.005 0
22.88 0.005 0
22.96 0.005 0
23.04 0.005 0
23.12 0.005 0
23.2 0.005 0
23.28 0.005 0
23.36 0.005 0
23.44 0.005 0
23.52 0.005 0
23.6 0.005 0
23.68 0.005 0
23.76 0.005 0
23.84 0.005 0
23.92 0.005 0
24 0.005 0
24.08 0.005 0
24.16 0.005 0
24.24 0.005 0
24.32 0.005 0
24.4 0.005 0
24.48 0.005 0
24.56 0.005 0
24.64 0.005 0
24.72 0.005 0
24.8 0.005 0
24.88 0.005 0
24.96 0.005 0
25.04 0.005 0
25.12 0.005 0
25.2 0.005 0
25.28 0.005 0
25.36 0.005 0
25.44 0.005 0
25.52 0.005 0
25.6 0.005 0
25.68 0.005 0
25.76 0.005 0
25.84 0.005 0
25.92 0.005 0
26 0.005 0
26.08 0.005 0
26.16 0.005 0
26.24 0.005 0
26.32 0.005 0
26.4 0.005 0
26.48 0.005 0
26.56 0.005 0
26.64 0.005 0
26.72 0.005 0
26.8 0.005 0
26.88 0.005 0
26.96 0.005 0
27.04 0.005 0
27.12 0.005 0
27.2 0.005 0
27.28 0.005 0
27.36 0.005 0
27.44 0.005 0
27.52 0.005 0
27.6 0.005 0
27.68 0.005 0
27.76 0.005 0
27.84 0.005 0
27.92 0.005 0
28 0.005 0
28.08 0.005 0
28.16 0.005 0
28.24 0.005 0
28.32 0.005 0
28.4 0.005 0
28.48 0.005 0
28.56 0.005 0
28.64 0.005 0
28.72 0.005 0
28.8 0.005 0
28.88 0.005 0
28.96 0.005 0
29.04 0.005 0
29.12 0.005 0
29.2 0.005 0
29.28 0.005 0
29.36 0.005 0
29.44 0.005 0
29.52 0.005 0
29.6 0.005 0
29.68 0.005 0
29.76 0.005 0
29.84 0.005 0
29.92 0.005 0
30 0.005 0
30.08 0.005 0
30.16 0.005 0
30.24 0.005 0
30.32 0.005 0
30.4 0.005 0
30.48 0.005 0
30.56 0.005 0
30.64 0.005 0
30.72 0.005 0
30.8 0.005 0
30.88 0.005 0
30.96 0.005 0
31.04 0.005 0
31.12 0.005 0
31.2 0.005 0
31.28 0.005 0
31.36 0.005 0
31.44 0.005 0
31.52 0.005 0
31.6 0.005 0
31.68 0.005 0
31.76 0.005 0
31.84 0.005 0
31.92 0.005 0
0 0.01 0
0.08 0.01 0
0.16 0.01 0
0.24 0.01 0
0.32 0.01 0
0.4 0.01 0
0.48 0.01 0
0.56 0.01 0
0.64 0.01 0
0.72 0.01 0
0.8 0.01 0
0.88 0.01 0
0.96 0.01 0
1.04 0.01 0
1.12 0.01 0
1.2 0.01 0
1.28 0.01 0
1.36 0.01 0
1.44 0.01 0
1.52 0.01 0
1.6 0.01 0
1.68 0.01 0
1.76 0.01 0
1.84 0.01 0
1.92 0.01 0
2 0.01 0
2.08 0.01 0
2.16 0.01 0
2.24 0.01 0
2.32 0.01 0
2.4 0.01 0
2.48 0.01 0
2.56 0.01 0
2.64 0.01 0
2.72 0.01 0
2.8 0.01 0
2.88 0.01 0
2.96 0.01 0
3.04 0.01 0
3.12 0.01 0
3.2 0.01 0
3.28 0.01 0
3.36 0.01 0
3.44 0.01 0
3.52 0.01 0
3.6 0.01 0
3.68 0.01 0
3.76 0.01 0
3.84 0.01 0
3.92 0.01 0
4 0.01 0
4.08 0.01 0
4.16 0.01 0
4.24 0.01 0
4.32 0.01 0
4.4 0.01 0
4.48 0.01 0
4.56 0.01 0
4.64 0.01 0
4.72 0.01 0
4.8 0.01 0
4.88 0.01 0
4.96 0.01 0
5.04 0.01 0
5.12 0.01 0
[...]
POINT_DATA 80000

SCALARS v float 1
LOOKUP_TABLE default
0
0
0
0
0
0
0
0
0
0
0
0
0
0
0
0
0
0
0
0
0
0
0
0
0
0
0
0
0
0
0
0
0
0
0
0
0
0
0
0
0
0
0
0
0
0
0
0
0
0
0
0
0
0
0
0
0
0
0
0
0
0
0
0
0
0
0
0
0
0
0
0
0
0
0
0
0
0
0
0
0
0
0
0
0
0
0
0
0
0
0
0
0
0
0
0
0
0
0
0
0
0
0
0
0
0
0
0
0
0
0
0
0
0
0
0
0
0
0
0
0
0
0
0
0
0
0
0
0
0
0
0
0
0
0
0
0
0
0
0
0
0
0
0
0
0
0
0
0
0
0
0
0
0
0
0
0
0
0
0
0
0
0
0
0
0
0
0
0
0
0
0
0
0
0
0
0
0
0
0
0
0
0
0
0
0
0
0
0
0
0
0
0
0
0
0
0
0
0
0
0
0
0
0
0
0
0
0
0
0
0
0
0
0
0
0
0
0
0
0
0
0
0
0
0
0
0
0
0
0
0
0
0
0
0
0
0
0
0
0
0
0
0
0
0
0
0
0
0
0
0
0
0
0
0
0
0
0
0
0
0
0
0
0
0
0
0
0
0
0
0
0
0
0
0
0
0
0
0
0
0
0
0
0
0
0
0
0
0
0
0
0
0
0
0
0
0
0
0
0
0
0
0
0
0
0
0
0
0
0
0
0
0
0
0
0
0
0
0
0
0
0
0
0
0
0
0
0
0
0
0
0
0
0
0
0
0
0
0
0
0
0
0
0
0
0
0
0
0
0
0
0
0
0
0
0
0
0
0
0
0
0
0
0
0
0
0
0
0
0
0
0
0
0
0
0
0
0
0
0
0
0
0
0
0
0
0
0
0
0
0
0
0
0
0
0
0
0
0
0
-0.0542714
0.0542714
0.00396244
0.000998675
0.000492608
0.000303046
0.00020767
0.000152042
0.000116601
9.26448e-05
7.57316e-05
6.337e-05
5.40677e-05
4.6888e-05
4.12202e-05
3.66517e-05
3.28981e-05
2.97632e-05
2.71118e-05
2.48451e-05
2.28829e-05
2.11584e-05
1.96238e-05
1.8253e-05
1.70321e-05
1.59424e-05
1.49533e-05
1.40308e-05
1.31559e-05
1.23324e-05
1.15759e-05
1.08901e-05
1.02503e-05
9.60911e-06
8.92132e-06
8.17163e-06
7.38543e-06
6.61575e-06
5.91533e-06
5.31131e-06
4.79693e-06
4.34251e-06
3.9167e-06
3.50474e-06
3.11443e-06
2.76871e-06
2.49093e-06
2.29142e-06
2.16168e-06
2.07741e-06
2.00751e-06
1.92413e-06
1.8098e-06
1.65996e-06
1.48121e-06
1.28715e-06
1.09357e-06
9.14469e-07
7.59646e-07
6.3393e-07
5.37671e-07
4.6797e-07
4.20124e-07
3.88901e-07
3.69439e-07
3.57746e-07
3.50846e-07
3.46712e-07
3.44075e-07
3.42206e-07
3.40728e-07
3.39464e-07
3.38343e-07
3.37338e-07
3.36437e-07
3.3563e-07
3.34902e-07
3.34241e-07
3.3363e-07
3.33056e-07
3.32507e-07
3.31976e-07
3.31455e-07
3.30939e-07
3.30425e-07
3.29912e-07
3.29398e-07
3.28882e-07
3.28363e-07
3.2784e-07
3.27314e-07
3.26784e-07
3.2625e-07
3.25711e-07
3.25168e-07
3.24619e-07
3.24065e-07
3.23505e-07
3.2294e-07
3.22369e-07
3.21791e-07
3.21208e-07
3.20618e-07
3.20021e-07
3.19418e-07
3.18809e-07
3.18193e-07
3.1757e-07
3.1694e-07
3.16304e-07
3.1566e-07
3.1501e-07
3.14353e-07
3.13689e-07
3.13019e-07
3.12341e-07
3.11656e-07
3.10965e-07
3.10266e-07
3.09561e-07
3.08848e-07
3.08129e-07
3.07402e-07
3.06669e-07
3.05929e-07
3.05183e-07
3.04429e-07
3.03669e-07
3.02902e-07
3.02128e-07
3.01348e-07
3.00561e-07
2.99767e-07
2.98968e-07
2.98161e-07
2.97349e-07
2.9653e-07
2.95705e-07
2.94874e-07
2.94037e-07
2.93194e-07
2.92345e-07
2.9149e-07
2.90629e-07
2.89763e-07
2.88891e-07
2.88014e-07
2.87131e-07
2.86243e-07
2.85349e-07
2.84451e-07
2.83547e-07
2.82639e-07
2.81725e-07
2.80807e-07
2.79883e-07
2.78956e-07
2.78023e-07
2.77086e-07
2.76145e-07
2.75199e-07
2.74249e-07
2.73295e-07
2.72337e-07
2.71375e-07
2.70409e-07
2.69439e-07
2.68465e-07
2.67487e-07
2.66506e-07
2.65522e-07
2.64534e-07
2.63542e-07
2.62547e-07
2.61549e-07
2.60548e-07
2.59543e-07
2.58535e-07
2.57525e-07
2.56511e-07
2.55495e-07
2.54476e-07
2.53454e-07
2.52429e-07
2.51402e-07
2.50372e-07
2.49339e-07
2.48305e-07
2.47267e-07
2.46228e-07
2.45186e-07
2.44141e-07
2.43095e-07
2.42046e-07
2.40995e-07
2.39943e-07
2.38888e-07
2.37831e-07
2.36772e-07
2.35711e-07
2.34649e-07
2.33584e-07
2.32518e-07
2.3145e-07
2.3038e-07
2.29309e-07
2.28236e-07
2.27161e-07
2.26085e-07
2.25007e-07
2.23928e-07
2.22847e-07
2.21765e-07
2.20681e-07
2.19596e-07
2.1851e-07
2.17422e-07
2.16333e-07
2.15243e-07
2.14151e-07
2.13058e-07
2.11964e-07
2.10869e-07
2.09773e-07
2.08675e-07
2.07576e-07
2.06476e-07
2.05376e-07
2.04274e-07
2.0317e-07
2.02066e-07
2.00961e-07
1.99855e-07
1.98748e-07
1.9764e-07
1.96531e-07
1.95421e-07
1.94311e-07
1.93199e-07
1.92086e-07
1.90973e-07
1.89859e-07
1.88743e-07
1.87627e-07
1.86511e-07
1.85393e-07
1.84275e-07
1.83156e-07
1.82036e-07
1.80915e-07
1.79794e-07
1.78672e-07
1.77549e-07
1.76426e-07
1.75302e-07
1.74177e-07
1.73052e-07
1.71925e-07
1.70799e-07
1.69671e-07
1.68543e-07
1.67415e-07
1.66286e-07
1.65156e-07
1.64025e-07
1.62894e-07
1.61763e-07
1.60631e-07
1.59498e-07
1.58365e-07
1.57231e-07
1.56097e-07
1.54962e-07
1.53827e-07
1.52691e-07
1.51555e-07
1.50418e-07
1.49281e-07
1.48144e-07
1.47005e-07
1.45867e-07
1.44728e-07
1.43588e-07
1.42448e-07
1.41308e-07
1.40167e-07
1.39026e-07
1.37885e-07
1.36743e-07
1.356e-07
1.34458e-07
1.33314e-07
1.32171e-07
1.31027e-07
1.29883e-07
1.28738e-07
1.27593e-07
1.26448e-07
1.25302e-07
1.24156e-07
1.2301e-07
1.21864e-07
1.20717e-07
1.19569e-07
1.18422e-07
1.17274e-07
1.16126e-07
1.14978e-07
1.13829e-07
1.1268e-07
1.11531e-07
1.10381e-07
1.09231e-07
1.08081e-07
1.06931e-07
1.05781e-07
1.0463e-07
1.03479e-07
1.02328e-07
1.01176e-07
1.00024e-07
9.88725e-08
9.77204e-08
9.65681e-08
9.54156e-08
9.42629e-08
9.311e-08
9.19569e-08
9.08036e-08
8.96501e-08
8.84965e-08
8.73427e-08
8.61887e-08
8.50346e-08
8.38803e-08
8.27259e-08
8.15713e-08
8.04165e-08
7.92617e-08
7.81067e-08
7.69515e-08
7.57962e-08
7.46409e-08
7.34853e-08
7.23299e-08
7.11736e-08
7.00188e-08
6.8861e-08
6.77083e-08
6.65463e-08
6.53999e-08
6.42274e-08
6.30968e-08
6.19004e-08
6.08039e-08
5.95595e-08
5.85272e-08
5.71991e-08
5.62715e-08
5.48161e-08
5.40377e-08
5.24127e-08
5.18208e-08
4.99965e-08
4.9611e-08
4.75787e-08
4.73965e-08
4.51711e-08
4.51684e-08
4.27773e-08
4.29315e-08
4.03818e-08
4.0713e-08
3.79487e-08
3.85532e-08
3.54382e-08
3.64897e-08
3.28149e-08
3.45548e-08
3.00495e-08
3.27647e-08
2.71429e-08
3.1083e-08
2.41536e-08
2.93963e-08
2.12138e-08
2.74623e-08
1.85965e-08
2.47535e-08
1.68907e-08
2.01198e-08
1.73915e-08
1.10443e-08
2.37555e-08
-9.08787e-09
5.23764e-08
-5.66107e-08
2.60058e-07
1.06681e-08
1.06681e-08
-0.0952162
0.0952162
0.012976
0.00385504
0.00193474
0.00119664
0.000822184
0.000602759
0.000462512
0.000367487
0.000300275
0.000251085
0.000214035
0.000185422
0.000162827
0.000144613
0.000129652
0.000117163
0.000106605
9.75805e-05
8.97661e-05
8.28999e-05
7.67963e-05
7.13507e-05
6.64994e-05
6.21607e-05
5.82117e-05
5.45265e-05
5.10385e-05
4.7764e-05
4.47531e-05
4.20045e-05
3.94126e-05
3.67978e-05
3.4002e-05
3.09866e-05
2.78618e-05
2.48307e-05
2.20841e-05
1.97122e-05
1.76815e-05
1.58805e-05
1.41987e-05
1.25892e-05
1.10856e-05
9.77055e-06
8.7216e-06
7.96478e-06
7.4575e-06
7.10338e-06
6.78678e-06
6.40909e-06
5.91291e-06
5.28881e-06
4.56718e-06
3.80171e-06
3.05163e-06
2.36752e-06
1.78319e-06
1.31366e-06
9.57534e-07
7.01961e-07
5.28065e-07
4.15615e-07
3.46228e-07
3.0503e-07
2.81086e-07
2.67019e-07
2.58262e-07
2.52225e-07
2.47578e-07
2.4371e-07
2.40377e-07
2.37486e-07
2.34994e-07
2.32859e-07
2.3103e-07
2.29451e-07
2.28066e-07
2.26825e-07
2.25685e-07
2.24616e-07
2.23592e-07
2.22598e-07
2.21622e-07
2.20657e-07
2.19699e-07
2.18744e-07
2.17791e-07
2.16839e-07
2.15885e-07
2.14931e-07
2.13974e-07
2.13014e-07
2.12051e-07
2.11083e-07
2.10111e-07
2.09133e-07
2.0815e-07
2.07161e-07
2.06166e-07
2.05165e-07
2.04156e-07
2.03142e-07
2.0212e-07
2.01092e-07
2.00057e-07
1.99015e-07
1.97965e-07
1.96909e-07
1.95846e-07
1.94776e-07
1.93699e-07
1.92615e-07
1.91523e-07
1.90425e-07
1.89319e-07
1.88206e-07
1.87086e-07
1.85959e-07
1.84825e-07
1.83683e-07
1.82534e-07
1.81378e-07
1.80214e-07
1.79044e-07
1.77866e-07
1.7668e-07
1.75488e-07
1.74288e-07
1.73081e-07
1.71867e-07
1.70646e-07
1.69418e-07
1.68183e-07
1.6694e-07
1.65691e-07
1.64435e-07
1.63172e-07
1.61902e-07
1.60626e-07
1.59342e-07
1.58052e-07
1.56756e-07
1.55453e-07
1.54144e-07
1.52828e-07
1.51507e-07
1.50179e-07
1.48845e-07
1.47505e-07
1.46159e-07
1.44807e-07
1.43449e-07
1.42086e-07
1.40717e-07
1.39343e-07
1.37963e-07
1.36578e-07
1.35188e-07
1.33792e-07
1.32392e-07
1.30986e-07
1.29576e-07
1.2816e-07
1.2674e-07
1.25316e-07
1.23886e-07
1.22453e-07
1.21014e-07
1.19572e-07
1.18125e-07
1.16674e-07
1.15219e-07
1.1376e-07
1.12297e-07
1.1083e-07
1.09359e-07
1.07884e-07
1.06406e-07
1.04924e-07
1.03439e-07
1.0195e-07
1.00458e-07
9.89625e-08
9.74638e-08
9.59617e-08
9.44566e-08
9.29483e-08
9.14371e-08
8.99228e-08
8.84057e-08
8.68857e-08
8.53629e-08
8.38373e-08
8.23091e-08
8.07782e-08
7.92448e-08
7.77087e-08
7.61702e-08
7.46293e-08
7.30859e-08
7.15402e-08
6.99922e-08
6.84419e-08
6.68894e-08
6.53346e-08
6.37778e-08
6.22188e-08
6.06578e-08
5.90947e-08
5.75297e-08
5.59627e-08
5.43938e-08
5.28229e-08
5.12502e-08
4.96757e-08
4.80994e-08
4.65213e-08
4.49415e-08
4.336e-08
4.17768e-08
4.0192e-08
3.86055e-08
3.70174e-08
3.54278e-08
3.38366e-08
3.2244e-08
3.06497e-08
2.90541e-08
2.7457e-08
2.58584e-08
2.42585e-08
2.26571e-08
2.10544e-08
1.94504e-08
1.7845e-08
1.62384e-08
1.46304e-08
1.30212e-08
1.14108e-08
9.79908e-09
8.1862e-09
6.57214e-09
4.95688e-09
3.3405e-09
1.72295e-09
1.043e-10
-1.51547e-09
-3.13631e-09
-4.75825e-09
-6.38124e-09
-8.00529e-09
-9.63035e-09
-1.12565e-08
-1.28835e-08
-1.45116e-08
-1.61407e-08
-1.77708e-08
-1.94018e-08
-2.10337e-08
-2.26666e-08
-2.43004e-08
-2.59351e-08
-2.75707e-08
-2.92072e-08
-3.08445e-08
-3.24827e-08
-3.41219e-08
-3.57618e-08
-3.74026e-08
-3.90441e-08
-4.06866e-08
-4.23298e-08
-4.39738e-08
-4.56186e-08
-4.72641e-08
-4.89105e-08
-5.05576e-08
-5.22054e-08
-5.3854e-08
-5.55034e-08
-5.71534e-08
-5.88042e-08
-6.04557e-08
-6.21079e-08
-6.37608e-08
-6.54143e-08
-6.70686e-08
-6.87235e-08
-7.03791e-08
-7.20354e-08
-7.36923e-08
-7.53498e-08
-7.7008e-08
-7.86668e-08
-8.03263e-08
-8.19863e-08
-8.3647e-08
-8.53083e-08
-8.69701e-08
-8.86326e-08
-9.02957e-08
-9.19593e-08
-9.36235e-08
-9.52883e-08
-9.69536e-08
-9.86195e-08
-1.00286e-07
-1.01953e-07
-1.03621e-07
-1.05289e-07
-1.06957e-07
-1.08626e-07
-1.10296e-07
-1.11966e-07
-1.13637e-07
-1.15308e-07
-1.1698e-07
-1.18652e-07
-1.20325e-07
-1.21998e-07
-1.23672e-07
-1.25346e-07
-1.27021e-07
-1.28696e-07
-1.30371e-07
-1.32048e-07
-1.33724e-07
-1.35401e-07
-1.37079e-07
-1.38757e-07
-1.40435e-07
-1.42114e-07
-1.43793e-07
-1.45473e-07
-1.47153e-07
-1.48834e-07
-1.50515e-07
-1.52197e-07
-1.53879e-07
-1.55561e-07
-1.57244e-07
-1.58928e-07
-1.60611e-07
-1.62297e-07
-1.63978e-07
-1.6567e-07
-1.67343e-07
-1.69051e-07
-1.70701e-07
-1.72447e-07
-1.74041e-07
-1.75874e-07
-1.77343e-07
-1.79353e-07
-1.80586e-07
-1.82906e-07
-1.83749e-07
-1.86546e-07
-1.86832e-07
-1.90264e-07
-1.89851e-07
-1.94033e-07
-1.92843e-07
-1.97809e-07
-1.95854e-07
-2.01549e-07
-1.98918e-07
-2.05238e-07
-2.02019e-07
-2.08931e-07
-2.05058e-07
-2.12761e-07
-2.07882e-07
-2.16884e-07
-2.10347e-07
-2.21431e-07
-2.12334e-07
-2.2651e-07
-2.1378e-07
-2.32127e-07
-2.14814e-07
-2.38071e-07
-2.15854e-07
-2.43856e-07
-2.178e-07
-2.48479e-07
-2.22614e-07
-2.49777e-07
-2.34562e-07
-2.43019e-07
-2.62932e-07
-2.14888e-07
-3.3189e-07
-1.05347e-07
-4.99004e-07
6.50096e-07
-2.48829e-07
-2.48829e-07
-0.125293
0.125293
0.0249363
0.00835851
0.0042785
0.00266204
0.00183426
0.00134688
0.00103441
0.000822232
0.000671913
0.000561766
0.000478733
0.000414575
0.000363894
0.000323037
0.000289481
0.00026148
0.000237816
0.000217589
0.000200074
0.000184687
0.000171021
0.000158837
0.000147981
0.000138257
0.000129392
0.000121118
0.000113299
0.000105971
9.92257e-05
9.30364e-05
8.71587e-05
8.12074e-05
7.48648e-05
6.80759e-05
6.10982e-05
5.43702e-05
4.82888e-05
4.30299e-05
3.85117e-05
3.44976e-05
3.07623e-05
2.72178e-05
2.39396e-05
2.10965e-05
1.88368e-05
1.71959e-05
1.60671e-05
1.52379e-05
1.44644e-05
1.35463e-05
1.2374e-05
1.09392e-05
9.31524e-06
7.62024e-06
5.98009e-06
4.49932e-06
3.24529e-06
2.24505e-06
1.49139e-06
9.53795e-07
5.90072e-07
3.56135e-07
2.1252e-07
1.27651e-07
7.85185e-08
4.97306e-08
3.18277e-08
1.94902e-08
1.00097e-08
2.1575e-09
-4.55721e-09
-1.03179e-08
-1.52182e-08
-1.93498e-08
-2.28231e-08
-2.57605e-08
-2.82827e-08
-3.04971e-08
-3.24924e-08
-3.43366e-08
-3.60798e-08
-3.77564e-08
-3.93896e-08
-4.09944e-08
-4.25801e-08
-4.41528e-08
-4.57162e-08
-4.7273e-08
-4.88252e-08
-5.03746e-08
-5.19226e-08
-5.34705e-08
-5.50196e-08
-5.65709e-08
-5.81256e-08
-5.96843e-08
-6.12478e-08
-6.28166e-08
-6.43911e-08
-6.59716e-08
-6.75584e-08
-6.91515e-08
-7.07512e-08
-7.23573e-08
-7.39699e-08
-7.55891e-08
-7.72148e-08
-7.88469e-08
-8.04855e-08
-8.21305e-08
-8.3782e-08
-8.54399e-08
-8.71043e-08
-8.87752e-08
-9.04526e-08
-9.21365e-08
-9.38271e-08
-9.55243e-08
-9.72282e-08
-9.89388e-08
-1.00656e-07
-1.0238e-07
-1.04112e-07
-1.0585e-07
-1.07595e-07
-1.09347e-07
-1.11106e-07
-1.12872e-07
-1.14645e-07
-1.16425e-07
-1.18212e-07
-1.20007e-07
-1.21808e-07
-1.23617e-07
-1.25432e-07
-1.27255e-07
-1.29084e-07
-1.3092e-07
-1.32764e-07
-1.34614e-07
-1.36471e-07
-1.38335e-07
-1.40206e-07
-1.42083e-07
-1.43967e-07
-1.45857e-07
-1.47754e-07
-1.49657e-07
-1.51567e-07
-1.53483e-07
-1.55406e-07
-1.57334e-07
-1.59269e-07
-1.61209e-07
-1.63156e-07
-1.65108e-07
-1.67066e-07
-1.6903e-07
-1.71e-07
-1.72975e-07
-1.74956e-07
-1.76942e-07
-1.78933e-07
-1.8093e-07
-1.82932e-07
-1.84939e-07
-1.86951e-07
-1.88968e-07
-1.9099e-07
-1.93017e-07
-1.95048e-07
-1.97084e-07
-1.99125e-07
-2.0117e-07
-2.0322e-07
-2.05274e-07
-2.07333e-07
-2.09395e-07
-2.11462e-07
-2.13533e-07
-2.15608e-07
-2.17687e-07
-2.19769e-07
-2.21856e-07
-2.23946e-07
-2.26041e-07
-2.28138e-07
-2.3024e-07
-2.32345e-07
-2.34453e-07
-2.36565e-07
-2.3868e-07
-2.40798e-07
-2.4292e-07
-2.45045e-07
-2.47173e-07
-2.49304e-07
-2.51438e-07
-2.53575e-07
-2.55715e-07
-2.57858e-07
-2.60004e-07
-2.62152e-07
-2.64303e-07
-2.66457e-07
-2.68614e-07
-2.70774e-07
-2.72935e-07
-2.751e-07
-2.77267e-07
-2.79436e-07
-2.81608e-07
-2.83782e-07
-2.85959e-07
-2.88138e-07
-2.90319e-07
-2.92503e-07
-2.94688e-07
-2.96876e-07
-2.99066e-07
-3.01258e-07
-3.03453e-07
-3.05649e-07
-3.07848e-07
-3.10048e-07
-3.1225e-07
-3.14455e-07
-3.16661e-07
-3.1887e-07
-3.2108e-07
-3.23292e-07
-3.25506e-07
-3.27721e-07
-3.29939e-07
-3.32158e-07
-3.34379e-07
-3.36602e-07
-3.38826e-07
-3.41053e-07
-3.4328e-07
-3.4551e-07
-3.47741e-07
-3.49974e-07
-3.52208e-07
-3.54444e-07
-3.56681e-07
-3.5892e-07
-3.6116e-07
-3.63402e-07
-3.65646e-07
-3.67891e-07
-3.70137e-07
-3.72385e-07
-3.74634e-07
-3.76884e-07
-3.79136e-07
-3.8139e-07
-3.83644e-07
-3.859e-07
-3.88158e-07
-3.90417e-07
-3.92677e-07
-3.94938e-07
-3.972e-07
-3.99464e-07
-4.0173e-07
-4.03996e-07
-4.06264e-07
-4.08533e-07
-4.10803e-07
-4.13074e-07
-4.15346e-07
-4.1762e-07
-4.19895e-07
-4.22171e-07
-4.24448e-07
-4.26727e-07
-4.29006e-07
-4.31287e-07
-4.33569e-07
-4.35852e-07
-4.38136e-07
-4.40421e-07
-4.42707e-07
-4.44994e-07
-4.47283e-07
-4.49572e-07
-4.51863e-07
-4.54154e-07
-4.56447e-07
-4.58741e-07
-4.61035e-07
-4.63331e-07
-4.65628e-07
-4.67926e-07
-4.70225e-07
-4.72524e-07
-4.74825e-07
-4.77127e-07
-4.7943e-07
-4.81734e-07
-4.84038e-07
-4.86344e-07
-4.88651e-07
-4.90959e-07
-4.93267e-07
-4.95577e-07
-4.97887e-07
-5.00199e-07
-5.02511e-07
-5.04825e-07
-5.07139e-07
-5.09454e-07
-5.11771e-07
-5.14088e-07
-5.16406e-07
-5.18725e-07
-5.21045e-07
-5.23366e-07
-5.25688e-07
-5.2801e-07
-5.30334e-07
-5.32659e-07
-5.34984e-07
-5.37311e-07
-5.39638e-07
-5.41966e-07
-5.44296e-07
-5.46626e-07
-5.48957e-07
-5.51289e-07
-5.53622e-07
-5.55956e-07
-5.58291e-07
-5.60627e-07
-5.62963e-07
-5.65301e-07
-5.6764e-07
-5.69979e-07
-5.7232e-07
-5.74661e-07
-5.77005e-07
-5.79347e-07
-5.81695e-07
-5.84033e-07
-5.86394e-07
-5.88717e-07
-5.9111e-07
-5.93385e-07
-5.95859e-07
-5.98014e-07
-6.00673e-07
-6.02565e-07
-6.05599e-07
-6.06989e-07
-6.10684e-07
-6.11244e-07
-6.15956e-07
-6.15324e-07
-6.21398e-07
-6.19269e-07
-6.2695e-07
-6.23156e-07
-6.3252e-07
-6.27083e-07
-6.38015e-07
-6.31124e-07
-6.43399e-07
-6.3525e-07
-6.48786e-07
-6.39251e-07
-6.54465e-07
-6.42794e-07
-6.60771e-07
-6.45568e-07
-6.67988e-07
-6.47321e-07
-6.76345e-07
-6.47921e-07
-6.85859e-07
-6.47623e-07
-6.96099e-07
-6.47314e-07
-7.06038e-07
-6.48913e-07
-7.13557e-07
-6.56589e-07
-7.14102e-07
-6.794e-07
-6.97747e-07
-7.36976e-07
-6.36634e-07
-8.80067e-07
-4.04795e-07
-1.2265e-06
1.16058e-06
-6.99683e-07
-6.99683e-07
-0.146488
0.146488
0.0383109
0.0142346
0.00745658
0.00467333
0.00323114
0.00237712
0.00182767
0.00145366
0.00118822
0.000993458
0.000846507
0.000732892
0.00064311
0.00057072
0.000511271
0.000461677
0.000419774
0.000383957
0.000352941
0.000325702
0.000301525
0.000279984
0.000260786
0.000243568
0.000227851
0.000213181
0.00019934
0.000186381
0.00017444
0.000163433
0.000152921
0.000142252
0.000130918
0.000118866
0.000106562
9.47537e-05
8.40976e-05
7.48694e-05
6.69181e-05
5.98481e-05
5.32943e-05
4.7123e-05
4.14648e-05
3.65906e-05
3.27239e-05
2.98943e-05
2.78985e-05
2.63687e-05
2.4898e-05
2.31635e-05
2.09996e-05
1.841e-05
1.55304e-05
1.25657e-05
9.72782e-06
7.18807e-06
5.05302e-06
3.3609e-06
2.09317e-06
1.19354e-06
5.87769e-07
1.99864e-07
-3.73381e-08
-1.77071e-07
-2.57826e-07
-3.05169e-07
-3.34707e-07
-3.55153e-07
-3.7091e-07
-3.83957e-07
-3.9508e-07
-4.04573e-07
-4.12595e-07
-4.19304e-07
-4.24893e-07
-4.29573e-07
-4.33549e-07
-4.37005e-07
-4.40089e-07
-4.42916e-07
-4.4557e-07
-4.48108e-07
-4.5057e-07
-4.52981e-07
-4.55356e-07
-4.57704e-07
-4.60034e-07
-4.62348e-07
-4.64651e-07
-4.66945e-07
-4.69233e-07
-4.71516e-07
-4.73798e-07
-4.7608e-07
-4.78363e-07
-4.80649e-07
-4.82939e-07
-4.85233e-07
-4.87532e-07
-4.89837e-07
-4.92148e-07
-4.94464e-07
-4.96787e-07
-4.99116e-07
-5.0145e-07
-5.03791e-07
-5.06137e-07
-5.08489e-07
-5.10846e-07
-5.13209e-07
-5.15578e-07
-5.17951e-07
-5.2033e-07
-5.22715e-07
-5.25105e-07
-5.275e-07
-5.29901e-07
-5.32307e-07
-5.3472e-07
-5.37137e-07
-5.39561e-07
-5.41991e-07
-5.44426e-07
-5.46868e-07
-5.49316e-07
-5.5177e-07
-5.54231e-07
-5.56698e-07
-5.59171e-07
-5.61651e-07
-5.64137e-07
-5.6663e-07
-5.6913e-07
-5.71636e-07
-5.7415e-07
-5.76669e-07
-5.79196e-07
-5.81729e-07
-5.84269e-07
-5.86815e-07
-5.89368e-07
-5.91928e-07
-5.94495e-07
-5.97068e-07
-5.99647e-07
-6.02233e-07
-6.04826e-07
-6.07425e-07
-6.1003e-07
-6.12642e-07
-6.1526e-07
-6.17885e-07
-6.20515e-07
-6.23152e-07
-6.25795e-07
-6.28444e-07
-6.31098e-07
-6.33759e-07
-6.36426e-07
-6.39098e-07
-6.41776e-07
-6.4446e-07
-6.4715e-07
-6.49845e-07
-6.52545e-07
-6.55251e-07
-6.57962e-07
-6.60679e-07
-6.634e-07
-6.66127e-07
-6.68859e-07
-6.71596e-07
-6.74338e-07
-6.77085e-07
-6.79837e-07
-6.82593e-07
-6.85354e-07
-6.8812e-07
-6.90891e-07
-6.93665e-07
-6.96445e-07
-6.99229e-07
-7.02017e-07
-7.04809e-07
-7.07606e-07
-7.10406e-07
-7.13211e-07
-7.1602e-07
-7.18833e-07
-7.2165e-07
-7.2447e-07
-7.27295e-07
-7.30123e-07
-7.32955e-07
-7.35791e-07
-7.3863e-07
-7.41473e-07
-7.44319e-07
-7.47169e-07
-7.50022e-07
-7.52879e-07
-7.55739e-07
-7.58602e-07
-7.61468e-07
-7.64338e-07
-7.67211e-07
-7.70087e-07
-7.72966e-07
-7.75848e-07
-7.78733e-07
-7.81621e-07
-7.84512e-07
-7.87405e-07
-7.90302e-07
-7.93202e-07
-7.96104e-07
-7.99009e-07
-8.01916e-07
-8.04827e-07
-8.0774e-07
-8.10656e-07
-8.13574e-07
-8.16495e-07
-8.19418e-07
-8.22344e-07
-8.25272e-07
-8.28203e-07
-8.31137e-07
-8.34072e-07
-8.37011e-07
-8.39951e-07
-8.42894e-07
-8.45839e-07
-8.48787e-07
-8.51736e-07
-8.54688e-07
-8.57642e-07
-8.60599e-07
-8.63557e-07
-8.66518e-07
-8.69481e-07
-8.72446e-07
-8.75413e-07
-8.78382e-07
-8.81353e-07
-8.84326e-07
-8.87302e-07
-8.90279e-07
-8.93258e-07
-8.96239e-07
-8.99222e-07
-9.02207e-07
-9.05194e-07
-9.08183e-07
-9.11173e-07
-9.14166e-07
-9.1716e-07
-9.20157e-07
-9.23155e-07
-9.26155e-07
-9.29156e-07
-9.3216e-07
-9.35165e-07
-9.38172e-07
-9.41181e-07
-9.44192e-07
-9.47204e-07
-9.50218e-07
-9.53234e-07
-9.56251e-07
-9.5927e-07
-9.62291e-07
-9.65314e-07
-9.68338e-07
-9.71364e-07
-9.74391e-07
-9.7742e-07
-9.80451e-07
-9.83483e-07
-9.86517e-07
-9.89553e-07
-9.9259e-07
-9.95629e-07
-9.98669e-07
-1.00171e-06
-1.00475e-06
-1.0078e-06
-1.01085e-06
-1.0139e-06
-1.01694e-06
-1.02e-06
-1.02305e-06
-1.0261e-06
-1.02916e-06
-1.03222e-06
-1.03528e-06
-1.03834e-06
-1.0414e-06
-1.04446e-06
-1.04753e-06
-1.05059e-06
-1.05366e-06
-1.05673e-06
-1.0598e-06
-1.06288e-06
-1.06595e-06
-1.06903e-06
-1.0721e-06
-1.07518e-06
-1.07826e-06
-1.08134e-06
-1.08443e-06
-1.08751e-06
-1.0906e-06
-1.09368e-06
-1.09677e-06
-1.09986e-06
-1.10296e-06
-1.10605e-06
-1.10915e-06
-1.11224e-06
-1.11534e-06
-1.11844e-06
-1.12154e-06
-1.12464e-06
-1.12775e-06
-1.13085e-06
-1.13396e-06
-1.13707e-06
-1.14018e-06
-1.14329e-06
-1.14641e-06
-1.14952e-06
-1.15264e-06
-1.15576e-06
-1.15888e-06
-1.162e-06
-1.16513e-06
-1.16825e-06
-1.17138e-06
-1.17451e-06
-1.17764e-06
-1.18077e-06
-1.18391e-06
-1.18703e-06
-1.1902e-06
-1.19329e-06