# vtk DataFile Version 2.0
FlowField
ASCII
DATASET STRUCTURED_GRID
DIMENSIONS 400 1 200
POINTS 80000 float
0 0 0
0.08 0 0
0.16 0 0
0.24 0 0
0.32 0 0
0.4 0 0
0.48 0 0
0.56 0 0
0.64 0 0
0.72 0 0
0.8 0 0
0.88 0 0
0.96 0 0
1.04 0 0
1.12 0 0
1.2 0 0
1.28 0 0
1.36 0 0
1.44 0 0
1.52 0 0
1.6 0 0
1.68 0 0
1.76 0 0
1.84 0 0
1.92 0 0
2 0 0
2.08 0 0
2.16 0 0
2.24 0 0
2.32 0 0
2.4 0 0
2.48 0 0
2.56 0 0
2.64 0 0
2.72 0 0
2.8 0 0
2.88 0 0
2.96 0 0
3.04 0 0
3.12 0 0
3.2 0 0
3.28 0 0
3.36 0 0
3.44 0 0
3.52 0 0
3.6 0 0
3.68 0 0
3.76 0 0
3.84 0 0
3.92 0 0
4 0 0
4.08 0 0
4.16 0 0
4.24 0 0
4.32 0 0
4.4 0 0
4.48 0 0
4.56 0 0
4.64 0 0
4.72 0 0
4.8 0 0
4.88 0 0
4.96 0 0
5.04 0 0
5.12 0 0
5.2 0 0
5.28 0 0
5.36 0 0
5.44 0 0
5.52 0 0
5.6 0 0
5.68 0 0
5.76 0 0
5.84 0 0
5.92 0 0
6 0 0
6.08 0 0
6.16 0 0
6.24 0 0
6.32 0 0
6.4 0 0
6.48 0 0
6.56 0 0
6.64 0 0
6.72 0 0
6.8 0 0
6.88 0 0
6.96 0 0
7.04 0 0
7.12 0 0
7.2 0 0
7.28 0 0
7.36 0 0
7.44 0 0
7.52 0 0
7.6 0 0
7.68 0 0
7.76 0 0
7.84 0 0
7.92 0 0
8 0 0
8.08 0 0
8.16 0 0
8.24 0 0
8.32 0 0
8.4 0 0
8.48 0 0
8.56 0 0
8.64 0 0
8.72 0 0
8.8 0 0
8.88 0 0
8.96 0 0
9.04 0 0
9.12 0 0
9.2 0 0
9.28 0 0
9.36 0 0
9.44 0 0
9.52 0 0
9.6 0 0
9.68 0 0
9.76 0 0
9.84 0 0
9.92 0 0
10 0 0
10.08 0 0
10.16 0 0
10.24 0 0
10.32 0 0
10.4 0 0
10.48 0 0
10.56 0 0
10.64 0 0
10.72 0 0
10.8 0 0
10.88 0 0
10.96 0 0
11.04 0 0
11.12 0 0
11.2 0 0
11.28 0 0
11.36 0 0
11.44 0 0
11.52 0 0
11.6 0 0
11.68 0 0
11.76 0 0
11.84 0 0
11.92 0 0
12 0 0
12.08 0 0
12.16 0 0
12.24 0 0
12.32 0 0
12.4 0 0
12.48 0 0
12.56 0 0
12.64 0 0
12.72 0 0
12.8 0 0
12.88 0 0
12.96 0 0
13.04 0 0
13.12 0 0
13.2 0 0
13.28 0 0
13.36 0 0
13.44 0 0
13.52 0 0
13.6 0 0
13.68 0 0
13.76 0 0
13.84 0 0
13.92 0 0
14 0 0
14.08 0 0
14.16 0 0
14.24 0 0
14.32 0 0
14.4 0 0
14.48 0 0
14.56 0 0
14.64 0 0
14.72 0 0
14.8 0 0
14.88 0 0
14.96 0 0
15.04 0 0
15.12 0 0
15.2 0 0
15.28 0 0
15.36 0 0
15.44 0 0
15.52 0 0
15.6 0 0
15.68 0 0
15.76 0 0
15.84 0 0
15.92 0 0
16 0 0
16.08 0 0
16.16 0 0
16.24 0 0
16.32 0 0
16.4 0 0
16.48 0 0
16.56 0 0
16.64 0 0
16.72 0 0
16.8 0 0
16.88 0 0
16.96 0 0
17.04 0 0
17.12 0 0
17.2 0 0
17.28 0 0
17.36 0 0
17.44 0 0
17.52 0 0
17.6 0 0
17.68 0 0
17.76 0 0
17.84 0 0
17.92 0 0
18 0 0
18.08 0 0
18.16 0 0
18.24 0 0
18.32 0 0
18.4 0 0
18.48 0 0
18.56 0 0
18.64 0 0
18.72 0 0
18.8 0 0
18.88 0 0
18.96 0 0
19.04 0 0
19.12 0 0
19.2 0 0
19.28 0 0
19.36 0 0
19.44 0 0
19.52 0 0
19.6 0 0
19.68 0 0
19.76 0 0
19.84 0 0
19.92 0 0
20 0 0
20.08 0 0
20.16 0 0
20.24 0 0
20.32 0 0
20.4 0 0
20.48 0 0
20.56 0 0
20.64 0 0
20.72 0 0
20.8 0 0
20.88 0 0
20.96 0 0
21.04 0 0
21.12 0 0
21.2 0 0
21.28 0 0
21.36 0 0
21.44 0 0
21.52 0 0
21.6 0 0
21.68 0 0
21.76 0 0
21.84 0 0
21.92 0 0
22 0 0
22.08 0 0
22.16 0 0
22.24 0 0
22.32 0 0
22.4 0 0
22.48 0 0
22.56 0 0
22.64 0 0
22.72 0 0
22.8 0 0
22.88 0 0
22.96 0 0
23.04 0 0
23.12 0 0
23.2 0 0
23.28 0 0
23.36 0 0
23.44 0 0
23.52 0 0
23.6 0 0
23.68 0 0
23.76 0 0
23.84 0 0
23.92 0 0
24 0 0
24.08 0 0
24.16 0 0
24.24 0 0
24.32 0 0
24.4 0 0
24.48 0 0
24.56 0 0
24.64 0 0
24.72 0 0
24.8 0 0
24.88 0 0
24.96 0 0
25.04 0 0
25.12 0 0
25.2 0 0
25.28 0 0
25.36 0 0
25.44 0 0
25.52 0 0
25.6 0 0
25.68 0 0
25.76 0 0
25.84 0 0
25.92 0 0
26 0 0
26.08 0 0
26.16 0 0
26.24 0 0
26.32 0 0
26.4 0 0
26.48 0 0
26.56 0 0
26.64 0 0
26.72 0 0
26.8 0 0
26.88 0 0
26.96 0 0
27.04 0 0
27.12 0 0
27.2 0 0
27.28 0 0
27.36 0 0
27.44 0 0
27.52 0 0
27.6 0 0
27.68 0 0
27.76 0 0
27.84 0 0
27.92 0 0
28 0 0
28.08 0 0
28.16 0 0
28.24 0 0
28.32 0 0
28.4 0 0
28.48 0 0
28.56 0 0
28.64 0 0
28.72 0 0
28.8 0 0
28.88 0 0
28.96 0 0
29.04 0 0
29.12 0 0
29.2 0 0
29.28 0 0
29.36 0 0
29.44 0 0
29.52 0 0
29.6 0 0
29.68 0 0
29.76 0 0
29.84 0 0
29.92 0 0
30 0 0
30.08 0 0
30.16 0 0
30.24 0 0
30.32 0 0
30.4 0 0
30.48 0 0
30.56 0 0
30.64 0 0
30.72 0 0
30.8 0 0
30.88 0 0
30.96 0 0
31.04 0 0
31.12 0 0
31.2 0 0
31.28 0 0
31.36 0 0
31.44 0 0
31.52 0 0
31.6 0 0
31.68 0 0
31.76 0 0
31.84 0 0
31.92 0 0
0 0.005 0
0.08 0.005 0
0.16 0.005 0
0.24 0.005 0
0.32 0.005 0
0.4 0.005 0
0.48 0.005 0
0.56 0.005 0
0.64 0.005 0
0.72 0.005 0
0.8 0.005 0
0.88 0.005 0
0.96 0.005 0
1.04 0.005 0
1.12 0.005 0
1.2 0.005 0
1.28 0.005 0
1.36 0.005 0
1.44 0.005 0
1.52 0.005 0
1.6 0.005 0
1.68 0.005 0
1.76 0.005 0
1.84 0.005 0
1.92 0.005 0
2 0.005 0
2.08 0.005 0
2.16 0.005 0
2.24 0.005 0
2.32 0.005 0
2.4 0.005 0
2.48 0.005 0
2.56 0.005 0
2.64 0.005 0
2.72 0.005 0
2.8 0.005 0
2.88 0.005 0
2.96 0.005 0
3.04 0.005 0
3.12 0.005 0
3.2 0.005 0
3.28 0.005 0
3.36 0.005 0
3.44 0.005 0
3.52 0.005 0
3.6 0.005 0
3.68 0.005 0
3.76 0.005 0
3.84 0.005 0
3.92 0.005 0
4 0.005 0
4.08 0.005 0
4.16 0.005 0
4.24 0.005 0
4.32 0.005 0
4.4 0.005 0
4.48 0.005 0
4.56 0.005 0
4.64 0.005 0
4.72 0.005 0
4.8 0.005 0
4.88 0.005 0
4.96 0.005 0
5.04 0.005 0
5.12 0.005 0
5.2 0.005 0
5.28 0.005 0
5.36 0.005 0
5.44 0.005 0
5.52 0.005 0
5.6 0.005 0
5.68 0.005 0
5.76 0.005 0
5.84 0.005 0
5.92 0.005 0
6 0.005 0
6.08 0.005 0
6.16 0.005 0
6.24 0.005 0
6.32 0.005 0
6.4 0.005 0
6.48 0.005 0
6.56 0.005 0
6.64 0.005 0
6.72 0.005 0
6.8 0.005 0
6.88 0.005 0
6.96 0.005 0
7.04 0.005 0
7.12 0.005 0
7.2 0.005 0
7.28 0.005 0
7.36 0.005 0
7.44 0.005 0
7.52 0.005 0
7.6 0.005 0
7.68 0.005 0
7.76 0.005 0
7.84 0.005 0
7.92 0.005 0
8 0.005 0
8.08 0.005 0
8.16 0.005 0
8.24 0.005 0
8.32 0.005 0
8.4 0.005 0
8.48 0.005 0
8.56 0.005 0
8.64 0.005 0
8.72 0.005 0
8.8 0.005 0
8.88 0.005 0
8.96 0.005 0
9.04 0.005 0
9.12 0.005 0
9.2 0.005 0
9.28 0.005 0
9.36 0.005 0
9.44 0.005 0
9.52 0.005 0
9.6 0.005 0
9.68 0.005 0
9.76 0.005 0
9.84 0.005 0
9.92 0.005 0
10 0.005 0
10.08 0.005 0
10.16 0.005 0
10.24 0.005 0
10.32 0.005 0
10.4 0.005 0
10.48 0.005 0
10.56 0.005 0
10.64 0.005 0
10.72 0.005 0
10.8 0.005 0
10.88 0.005 0
10.96 0.005 0
11.04 0.005 0
11.12 0.005 0
11.2 0.005 0
11.28 0.005 0
11.36 0.005 0
11.44 0.005 0
11.52 0.005 0
11.6 0.005 0
11.68 0.005 0
11.76 0.005 0
11.84 0.005 0
11.92 0.005 0
12 0.005 0
12.08 0.005 0
12.16 0.005 0
12.24 0.005 0
12.32 0.005 0
12.4 0.005 0
12.48 0.005 0
12.56 0.005 0
12.64 0.005 0
12.72 0.005 0
12.8 0.005 0
12.88 0.005 0
12.96 0.005 0
13.04 0.005 0
13.12 0.005 0
13.2 0.005 0
13.28 0.005 0
13.36 0.005 0
13.44 0.005 0
13.52 0.005 0
13.6 0.005 0
13.68 0.005 0
13.76 0.005 0
13.84 0.005 0
13.92 0.005 0
14 0.005 0
14.08 0.005 0
14.16 0.005 0
14.24 0.005 0
14.32 0.005 0
14.4 0.005 0
14.48 0.005 0
14.56 0.005 0
14.64 0.005 0
14.72 0.005 0
14.8 0.005 0
14.88 0.005 0
14.96 0.005 0
15.04 0.005 0
15.12 0.005 0
15.2 0.005 0
15.28 0.005 0
15.36 0.005 0
15.44 0.005 0
15.52 0.005 0
15.6 0.005 0
15.68 0.005 0
15.76 0.005 0
15.84 0.005 0
15.92 0.005 0
16 0.005 0
16.08 0.005 0
16.16 0.005 0
16.24 0.005 0
16.32 0.005 0
16.4 0.005 0
16.48 0.005 0
16.56 0.005 0
16.64 0.005 0
16.72 0.005 0
16.8 0.005 0
16.88 0.005 0
16.96 0.005 0
17.04 0.005 0
17.12 0.005 0
17.2 0.005 0
17.28 0.005 0
17.36 0.005 0
17.44 0.005 0
17.52 0.005 0
17.6 0.005 0
17.68 0.005 0
17.76 0.005 0
17.84 0.005 0
17.92 0.005 0
18 0.005 0
18.08 0.005 0
18.16 0.005 0
18.24 0.005 0
18.32 0.005 0
18.4 0.005 0
18.48 0.005 0
18.56 0.005 0
18.64 0.005 0
18.72 0.005 0
18.8 0.005 0
18.88 0.005 0
18.96 0.005 0
19.04 0.005 0
19.12 0.005 0
19.2 0.005 0
19.28 0.005 0
19.36 0.005 0
19.44 0.005 0
19.52 0.005 0
19.6 0.005 0
19.68 0.005 0
19.76 0.005 0
19.84 0.005 0
19.92 0.005 0
20 0.005 0
20.08 0.005 0
20.16 0.005 0
20.24 0.005 0
20.32 0.005 0
20.4 0.005 0
20.48 0.005 0
20.56 0.005 0
20.64 0.005 0
20.72 0.005 0
20.8 0.005 0
20.88 0.005 0
20.96 0.005 0
21.04 0.005 0
21.12 0.005 0
21.2 0.005 0
21.28 0.005 0
21.36 0.005 0
21.44 0.005 0
21.52 0.005 0
21.6 0.005 0
21.68 0.005 0
21.76 0.005 0
21.84 0.005 0
21.92 0.005 0
22 0.005 0
22.08 0.005 0
22.16 0.005 0
22.24 0.005 0
22.32 0.005 0
22.4 0.005 0
22.48 0.005 0
22.56 0.005 0
22.64 0.005 0
22.72 0.005 0
22.8 0.005 0
22.88 0.005 0
22.96 0.005 0
23.04 0.005 0
23.12 0.005 0
23.2 0.005 0
23.28 0.005 0
23.36 0.005 0
23.44 0.005 0
23.52 0.005 0
23.6 0.005 0
23.68 0.005 0
23.76 0.005 0
23.84 0.005 0
23.92 0.005 0
24 0.005 0
24.08 0.005 0
24.16 0.005 0
24.24 0.005 0
24.32 0.005 0
24.4 0.005 0
24.48 0.005 0
24.56 0.005 0
24.64 0.005 0
24.72 0.005 0
24.8 0.005 0
24.88 0.005 0
24.96 0.005 0
25.04 0.005 0
25.12 0.005 0
25.2 0.005 0
25.28 0.005 0
25.36 0.005 0
25.44 0.005 0
25.52 0.005 0
25.6 0.005 0
25.68 0.005 0
25.76 0.005 0
25.84 0.005 0
25.92 0.005 0
26 0.005 0
26.08 0.005 0
26.16 0.005 0
26.24 0.005 0
26.32 0.005 0
26.4 0.005 0
26.48 0.005 0
26.56 0.005 0
26.64 0.005 0
26.72 0.005 0
26.8 0.005 0
26.88 0.005 0
26.96 0.005 0
27.04 0.005 0
27.12 0.005 0
27.2 0.005 0
27.28 0.005 0
27.36 0.005 0
27.44 0.005 0
27.52 0.005 0
27.6 0.005 0
27.68 0.005 0
27.76 0.005 0
27.84 0.005 0
27.92 0.005 0
28 0.005 0
28.08 0.005 0
28.16 0.005 0
28.24 0.005 0
28.32 0.005 0
28.4 0.005 0
28.48 0.005 0
28.56 0.005 0
28.64 0.005 0
28.72 0.005 0
28.8 0.005 0
28.88 0.005 0
28.96 0.005 0
29.04 0.005 0
29.12 0.005 0
29.2 0.005 0
29.28 0.005 0
29.36 0.005 0
29.44 0.005 0
29.52 0.005 0
29.6 0.005 0
29.68 0.005 0
29.76 0.005 0
29.84 0.005 0
29.92 0.005 0
30 0.005 0
30.08 0.005 0
30.16 0.005 0
30.24 0.005 0
30.32 0.005 0
30.4 0.005 0
30.48 0.005 0
30.56 0.005 0
30.64 0.005 0
30.72 0.005 0
30.8 0.005 0
30.88 0.005 0
30.96 0.005 0
31.04 0.005 0
31.12 0.005 0
31.2 0.005 0
31.28 0.005 0
31.36 0.005 0
31.44 0.005 0
31.52 0.005 0
31.6 0.005 0
31.68 0.005 0
31.76 0.005 0
31.84 0.005 0
31.92 0.005 0
0 0.01 0
0.08 0.01 0
0.16 0.01 0
0.24 0.01 0
0.32 0.01 0
0.4 0.01 0
0.48 0.01 0
0.56 0.01 0
0.64 0.01 0
0.72 0.01 0
0.8 0.01 0
0.88 0.01 0
0.96 0.01 0
1.04 0.01 0
1.12 0.01 0
1.2 0.01 0
1.28 0.01 0
1.36 0.01 0
1.44 0.01 0
1.52 0.01 0
1.6 0.01 0
1.68 0.01 0
1.76 0.01 0
1.84 0.01 0
1.92 0.01 0
2 0.01 0
2.08 0.01 0
2.16 0.01 0
2.24 0.01 0
2.32 0.01 0
2.4 0.01 0
2.48 0.01 0
2.56 0.01 0
2.64 0.01 0
2.72 0.01 0
2.8 0.01 0
2.88 0.01 0
2.96 0.01 0
3.04 0.01 0
3.12 0.01 0
3.2 0.01 0
3.28 0.01 0
3.36 0.01 0
3.44 0.01 0
3.52 0.01 0
3.6 0.01 0
3.68 0.01 0
3.76 0.01 0
3.84 0.01 0
3.92 0.01 0
4 0.01 0
4.08 0.01 0
4.16 0.01 0
4.24 0.01 0
4.32 0.01 0
4.4 0.01 0
4.48 0.01 0
4.56 0.01 0
4.64 0.01 0
4.72 0.01 0
4.8 0.01 0
4.88 0.01 0
4.96 0.01 0
5.04 0.01 0
5.12 0.01 0
[...]
POINT_DATA 80000

SCALARS u float 1
LOOKUP_TABLE default
0
-0.131663
-0.0682697
-0.0522965
-0.0444204
-0.0395774
-0.0362603
-0.0338333
-0.0319733
-0.0304967
-0.0292906
-0.0282824
-0.027423
-0.0266784
-0.0260246
-0.0254438
-0.0249231
-0.0244526
-0.0240245
-0.0236327
-0.0232722
-0.0229394
-0.0226311
-0.0223448
-0.022078
-0.0218287
-0.0215952
-0.0213764
-0.0211717
-0.0209802
-0.0208008
-0.0206324
-0.0204742
-0.0203263
-0.0201895
-0.0200647
-0.0199526
-0.0198528
-0.0197643
-0.0196855
-0.0196149
-0.0195517
-0.0194953
-0.0194456
-0.0194021
-0.0193642
-0.0193307
-0.0193005
-0.0192723
-0.0192454
-0.0192197
-0.0191954
-0.0191729
-0.0191528
-0.0191356
-0.0191215
-0.0191106
-0.0191026
-0.019097
-0.0190935
-0.0190915
-0.0190907
-0.0190906
-0.019091
-0.0190918
-0.0190927
-0.0190937
-0.0190948
-0.0190959
-0.0190971
-0.0190982
-0.0190994
-0.0191006
-0.0191018
-0.019103
-0.0191042
-0.0191054
-0.0191066
-0.0191079
-0.0191091
-0.0191103
-0.0191116
-0.0191128
-0.019114
-0.0191153
-0.0191165
-0.0191178
-0.019119
-0.0191203
-0.0191215
-0.0191228
-0.019124
-0.0191253
-0.0191265
-0.0191278
-0.0191291
-0.0191303
-0.0191316
-0.0191329
-0.0191341
-0.0191354
-0.0191367
-0.0191379
-0.0191392
-0.0191405
-0.0191418
-0.019143
-0.0191443
-0.0191456
-0.0191469
-0.0191482
-0.0191495
-0.0191507
-0.019152
-0.0191533
-0.0191546
-0.0191559
-0.0191572
-0.0191585
-0.0191598
-0.0191611
-0.0191624
-0.0191637
-0.019165
-0.0191663
-0.0191676
-0.0191689
-0.0191702
-0.0191715
-0.0191728
-0.0191741
-0.0191754
-0.0191767
-0.019178
-0.0191794
-0.0191807
-0.019182
-0.0191833
-0.0191846
-0.0191859
-0.0191873
-0.0191886
-0.0191899
-0.0191912
-0.0191925
-0.0191939
-0.0191952
-0.0191965
-0.0191979
-0.0191992
-0.0192005
-0.0192018
-0.0192032
-0.0192045
-0.0192058
-0.0192072
-0.0192085
-0.0192098
-0.0192112
-0.0192125
-0.0192139
-0.0192152
-0.0192165
-0.0192179
-0.0192192
-0.0192206
-0.0192219
-0.0192233
-0.0192246
-0.019226
-0.0192273
-0.0192287
-0.01923
-0.0192314
-0.0192327
-0.0192341
-0.0192354
-0.0192368
-0.0192381
-0.0192395
-0.0192408
-0.0192422
-0.0192436
-0.0192449
-0.0192463
-0.0192477
-0.019249
-0.0192504
-0.0192517
-0.0192531
-0.0192545
-0.0192558
-0.0192572
-0.0192586
-0.01926
-0.0192613
-0.0192627
-0.0192641
-0.0192655
-0.0192668
-0.0192682
-0.0192696
-0.019271
-0.0192723
-0.0192737
-0.0192751
-0.0192765
-0.0192779
-0.0192793
-0.0192806
-0.019282
-0.0192834
-0.0192848
-0.0192862
-0.0192876
-0.019289
-0.0192904
-0.0192918
-0.0192932
-0.0192945
-0.0192959
-0.0192973
-0.0192987
-0.0193001
-0.0193015
-0.0193029
-0.0193043
-0.0193057
-0.0193071
-0.0193085
-0.01931
-0.0193114
-0.0193128
-0.0193142
-0.0193156
-0.019317
-0.0193184
-0.0193198
-0.0193212
-0.0193226
-0.0193241
-0.0193255
-0.0193269
-0.0193283
-0.0193297
-0.0193311
-0.0193326
-0.019334
-0.0193354
-0.0193368
-0.0193383
-0.0193397
-0.0193411
-0.0193425
-0.019344
-0.0193454
-0.0193468
-0.0193483
-0.0193497
-0.0193511
-0.0193526
-0.019354
-0.0193554
-0.0193569
-0.0193583
-0.0193597
-0.0193612
-0.0193626
-0.0193641
-0.0193655
-0.019367
-0.0193684
-0.0193698
-0.0193713
-0.0193727
-0.0193742
-0.0193756
-0.0193771
-0.0193785
-0.01938
-0.0193815
-0.0193829
-0.0193844
-0.0193858
-0.0193873
-0.0193887
-0.0193902
-0.0193917
-0.0193931
-0.0193946
-0.019396
-0.0193975
-0.019399
-0.0194004
-0.0194019
-0.0194034
-0.0194049
-0.0194063
-0.0194078
-0.0194093
-0.0194107
-0.0194122
-0.0194137
-0.0194152
-0.0194167
-0.0194181
-0.0194196
-0.0194211
-0.0194226
-0.0194241
-0.0194255
-0.019427
-0.0194285
-0.01943
-0.0194315
-0.019433
-0.0194345
-0.019436
-0.0194375
-0.019439
-0.0194405
-0.0194419
-0.0194434
-0.0194449
-0.0194464
-0.0194479
-0.0194494
-0.0194509
-0.0194524
-0.019454
-0.0194555
-0.019457
-0.0194585
-0.01946
-0.0194615
-0.019463
-0.0194645
-0.019466
-0.0194675
-0.0194691
-0.0194706
-0.0194721
-0.0194736
-0.0194751
-0.0194766
-0.0194782
-0.0194797
-0.0194812
-0.0194827
-0.0194843
-0.0194858
-0.0194873
-0.0194888
-0.0194904
-0.0194919
-0.0194934
-0.019495
-0.0194965
-0.019498
-0.0194996
-0.0195011
-0.0195027
-0.0195042
-0.0195057
-0.0195073
-0.0195088
-0.0195104
-0.0195119
-0.0195135
-0.019515
-0.0195166
-0.0195181
-0.0195197
-0.0195212
-0.0195228
-0.0195243
-0.0195259
-0.0195274
-0.019529
-0.0195306
-0.0195321
-0.0195337
-0.0195352
-0.0195368
-0.0195383
-0.01954
-0.0195415
-0.0195431
-0.0195446
-0.0195463
-0.0195478
-0.0195494
-0.0195511
-0.0195525
-0.0195545
-0.0195554
-0.0195581
-0.0195557
-0.0195557
-0.0195557
1
0.131663
0.0682697
0.0522965
0.0444204
0.0395774
0.0362603
0.0338333
0.0319733
0.0304967
0.0292906
0.0282824
0.027423
0.0266784
0.0260246
0.0254438
0.0249231
0.0244526
0.0240245
0.0236327
0.0232722
0.0229394
0.0226311
0.0223448
0.022078
0.0218287
0.0215952
0.0213764
0.0211717
0.0209802
0.0208008
0.0206324
0.0204742
0.0203263
0.0201895
0.0200647
0.0199526
0.0198528
0.0197643
0.0196855
0.0196149
0.0195517
0.0194953
0.0194456
0.0194021
0.0193642
0.0193307
0.0193005
0.0192723
0.0192454
0.0192197
0.0191954
0.0191729
0.0191528
0.0191356
0.0191215
0.0191106
0.0191026
0.019097
0.0190935
0.0190915
0.0190907
0.0190906
0.019091
0.0190918
0.0190927
0.0190937
0.0190948
0.0190959
0.0190971
0.0190982
0.0190994
0.0191006
0.0191018
0.019103
0.0191042
0.0191054
0.0191066
0.0191079
0.0191091
0.0191103
0.0191116
0.0191128
0.019114
0.0191153
0.0191165
0.0191178
0.019119
0.0191203
0.0191215
0.0191228
0.019124
0.0191253
0.0191265
0.0191278
0.0191291
0.0191303
0.0191316
0.0191329
0.0191341
0.0191354
0.0191367
0.0191379
0.0191392
0.0191405
0.0191418
0.019143
0.0191443
0.0191456
0.0191469
0.0191482
0.0191495
0.0191507
0.019152
0.0191533
0.0191546
0.0191559
0.0191572
0.0191585
0.0191598
0.0191611
0.0191624
0.0191637
0.019165
0.0191663
0.0191676
0.0191689
0.0191702
0.0191715
0.0191728
0.0191741
0.0191754
0.0191767
0.019178
0.0191794
0.0191807
0.019182
0.0191833
0.0191846
0.0191859
0.0191873
0.0191886
0.0191899
0.0191912
0.0191925
0.0191939
0.0191952
0.0191965
0.0191979
0.0191992
0.0192005
0.0192018
0.0192032
0.0192045
0.0192058
0.0192072
0.0192085
0.0192098
0.0192112
0.0192125
0.0192139
0.0192152
0.0192165
0.0192179
0.0192192
0.0192206
0.0192219
0.0192233
0.0192246
0.019226
0.0192273
0.0192287
0.01923
0.0192314
0.0192327
0.0192341
0.0192354
0.0192368
0.0192381
0.0192395
0.0192408
0.0192422
0.0192436
0.0192449
0.0192463
0.0192477
0.019249
0.0192504
0.0192517
0.0192531
0.0192545
0.0192558
0.0192572
0.0192586
0.01926
0.0192613
0.0192627
0.0192641
0.0192655
0.0192668
0.0192682
0.0192696
0.019271
0.0192723
0.0192737
0.0192751
0.0192765
0.0192779
0.0192793
0.0192806
0.019282
0.0192834
0.0192848
0.0192862
0.0192876
0.019289
0.0192904
0.0192918
0.0192932
0.0192945
0.0192959
0.0192973
0.0192987
0.0193001
0.0193015
0.0193029
0.0193043
0.0193057
0.0193071
0.0193085
0.01931
0.0193114
0.0193128
0.0193142
0.0193156
0.019317
0.0193184
0.0193198
0.0193212
0.0193226
0.0193241
0.0193255
0.0193269
0.0193283
0.0193297
0.0193311
0.0193326
0.019334
0.0193354
0.0193368
0.0193383
0.0193397
0.0193411
0.0193425
0.019344
0.0193454
0.0193468
0.0193483
0.0193497
0.0193511
0.0193526
0.019354
0.0193554
0.0193569
0.0193583
0.0193597
0.0193612
0.0193626
0.0193641
0.0193655
0.019367
0.0193684
0.0193698
0.0193713
0.0193727
0.0193742
0.0193756
0.0193771
0.0193785
0.01938
0.0193815
0.0193829
0.0193844
0.0193858
0.0193873
0.0193887
0.0193902
0.0193917
0.0193931
0.0193946
0.019396
0.0193975
0.019399
0.0194004
0.0194019
0.0194034
0.0194049
0.0194063
0.0194078
0.0194093
0.0194107
0.0194122
0.0194137
0.0194152
0.0194167
0.0194181
0.0194196
0.0194211
0.0194226
0.0194241
0.0194255
0.019427
0.0194285
0.01943
0.0194315
0.019433
0.0194345
0.019436
0.0194375
0.019439
0.0194405
0.0194419
0.0194434
0.0194449
0.0194464
0.0194479
0.0194494
0.0194509
0.0194524
0.019454
0.0194555
0.019457
0.0194585
0.01946
0.0194615
0.019463
0.0194645
0.019466
0.0194675
0.0194691
0.0194706
0.0194721
0.0194736
0.0194751
0.0194766
0.0194782
0.0194797
0.0194812
0.0194827
0.0194843
0.0194858
0.0194873
0.0194888
0.0194904
0.0194919
0.0194934
0.019495
0.0194965
0.019498
0.0194996
0.0195011
0.0195027
0.0195042
0.0195057
0.0195073
0.0195088
0.0195104
0.0195119
0.0195135
0.019515
0.0195166
0.0195181
0.0195197
0.0195212
0.0195228
0.0195243
0.0195259
0.0195274
0.019529
0.0195306
0.0195321
0.0195337
0.0195352
0.0195368
0.0195383
0.01954
0.0195415
0.0195431
0.0195446
0.0195463
0.0195478
0.0195494
0.0195511
0.0195525
0.0195545
0.0195554
0.0195581
0.0195557
0.0195557
0.0195557
1
0.344885
0.200669
0.154969
0.131896
0.1176
0.10777
0.10056
0.0950273
0.0906315
0.0870405
0.0840388
0.081481
0.0792662
0.0773222
0.0755965
0.0740502
0.0726535
0.0713833
0.0702212
0.0691528
0.0681667
0.0672536
0.0664058
0.065616
0.0648782
0.0641878
0.0635416
0.0629373
0.0623721
0.061843
0.0613469
0.0608821
0.0604488
0.0600493
0.0596861
0.0593603
0.0590707
0.0588138
0.0585852
0.058381
0.0581982
0.0580356
0.0578922
0.0577665
0.0576564
0.0575587
0.0574698
0.057387
0.0573085
0.057234
0.0571642
0.0571004
0.0570443
0.0569969
0.0569586
0.0569293
0.056908
0.0568936
0.0568848
0.05688
0.0568783
0.0568786
0.0568801
0.0568825
0.0568853
0.0568885
0.0568917
0.0568951
0.0568985
0.056902
0.0569055
0.0569091
0.0569126
0.0569163
0.0569199
0.0569235
0.0569272
0.0569308
0.0569345
0.0569382
0.0569419
0.0569456
0.0569493
0.056953
0.0569567
0.0569604
0.0569641
0.0569678
0.0569716
0.0569753
0.0569791
0.0569828
0.0569865
0.0569903
0.0569941
0.0569978
0.0570016
0.0570054
0.0570091
0.0570129
0.0570167
0.0570205
0.0570243
0.0570281
0.0570319
0.0570357
0.0570395
0.0570433
0.0570471
0.057051
0.0570548
0.0570586
0.0570624
0.0570663
0.0570701
0.057074
0.0570778
0.0570817
0.0570855
0.0570894
0.0570933
0.0570971
0.057101
0.0571049
0.0571088
0.0571126
0.0571165
0.0571204
0.0571243
0.0571282
0.0571321
0.057136
0.0571399
0.0571438
0.0571477
0.0571517
0.0571556
0.0571595
0.0571634
0.0571673
0.0571713
0.0571752
0.0571792
0.0571831
0.057187
0.057191
0.0571949
0.0571989
0.0572029
0.0572068
0.0572108
0.0572147
0.0572187
0.0572227
0.0572267
0.0572306
0.0572346
0.0572386
0.0572426
0.0572466
0.0572506
0.0572546
0.0572586
0.0572626
0.0572666
0.0572706
0.0572746
0.0572786
0.0572826
0.0572866
0.0572907
0.0572947
0.0572987
0.0573027
0.0573068
0.0573108
0.0573148
0.0573189
0.0573229
0.057327
0.057331
0.0573351
0.0573391
0.0573432
0.0573473
0.0573513
0.0573554
0.0573595
0.0573635
0.0573676
0.0573717
0.0573758
0.0573799
0.0573839
0.057388
0.0573921
0.0573962
0.0574003
0.0574044
0.0574085
0.0574126
0.0574167
0.0574209
0.057425
0.0574291
0.0574332
0.0574373
0.0574415
0.0574456
0.0574497
0.0574539
0.057458
0.0574621
0.0574663
0.0574704
0.0574746
0.0574787
0.0574829
0.057487
0.0574912
0.0574954
0.0574995
0.0575037
0.0575079
0.057512
0.0575162
0.0575204
0.0575246
0.0575288
0.057533
0.0575371
0.0575413
0.0575455
0.0575497
0.0575539
0.0575581
0.0575624
0.0575666
0.0575708
0.057575
0.0575792
0.0575834
0.0575877
0.0575919
0.0575961
0.0576004
0.0576046
0.0576088
0.0576131
0.0576173
0.0576216
0.0576258
0.0576301
0.0576344
0.0576386
0.0576429
0.0576471
0.0576514
0.0576557
0.05766
0.0576642
0.0576685
0.0576728
0.0576771
0.0576814
0.0576857
0.05769
0.0576943
0.0576986
0.0577029
0.0577072
0.0577115
0.0577158
0.0577201
0.0577245
0.0577288
0.0577331
0.0577374
0.0577418
0.0577461
0.0577504
0.0577548
0.0577591
0.0577635
0.0577678
0.0577722
0.0577765
0.0577809
0.0577852
0.0577896
0.057794
0.0577984
0.0578027
0.0578071
0.0578115
0.0578159
0.0578203
0.0578246
0.057829
0.0578334
0.0578378
0.0578422
0.0578466
0.057851
0.0578555
0.0578599
0.0578643
0.0578687
0.0578731
0.0578775
0.057882
0.0578864
0.0578908
0.0578953
0.0578997
0.0579042
0.0579086
0.0579131
0.0579175
0.057922
0.0579264
0.0579309
0.0579354
0.0579398
0.0579443
0.0579488
0.0579533
0.0579577
0.0579622
0.0579667
0.0579712
0.0579757
0.0579802
0.0579847
0.0579892
0.0579937
0.0579982
0.0580027
0.0580072
0.0580118
0.0580163
0.0580208
0.0580253
0.0580299
0.0580344
0.058039
0.0580435
0.058048
0.0580526
0.0580571
0.0580617
0.0580663
0.0580708
0.0580754
0.05808
0.0580845
0.0580891
0.0580937
0.0580983
0.0581028
0.0581074
0.058112
0.0581166
0.0581212
0.0581258
0.0581304
0.058135
0.0581396
0.0581443
0.0581489
0.0581535
0.0581581
0.0581628
0.0581674
0.058172
0.0581766
0.0581813
0.0581859
0.0581906
0.0581952
0.0582
0.0582045
0.0582093
0.0582138
0.0582186
0.0582232
0.058228
0.0582325
0.0582374
0.058242
0.0582467
0.0582517
0.058256
0.0582618
0.0582648
0.0582724
0.0582667
0.0582667
0.0582667
1
0.518767
0.327404
0.25535
0.217852
0.194407
0.178215
0.166311
0.157162
0.149888
0.143944
0.138975
0.134741
0.131076
0.127861
0.125008
0.122452
0.120145
0.118047
0.116129
0.114366
0.112739
0.111233
0.109835
0.108533
0.107317
0.10618
0.105116
0.104122
0.103192
0.102322
0.101508
0.100745
0.100037
0.0993847
0.0987931
0.0982631
0.0977923
0.0973748
0.0970036
0.0966722
0.0963762
0.0961131
0.0958809
0.0956772
0.0954979
0.095338
0.0951922
0.0950564
0.0949281
0.0948072
0.094695
0.0945935
0.0945051
0.094431
0.0943719
0.094327
0.0942949
0.0942735
0.0942606
0.0942541
0.094252
0.094253
0.094256
0.0942601
0.094265
0.0942702
0.0942757
0.0942813
0.094287
0.0942928
0.0942986
0.0943045
0.0943105
0.0943165
0.0943225
0.0943285
0.0943346
0.0943407
0.0943468
0.0943529
0.094359
0.0943651
0.0943712
0.0943774
0.0943835
0.0943897
0.0943958
0.094402
0.0944082
0.0944144
0.0944206
0.0944268
0.094433
0.0944392
0.0944454
0.0944517
0.0944579
0.0944641
0.0944704
0.0944767
0.0944829
0.0944892
0.0944955
0.0945018
0.0945081
0.0945144
0.0945207
0.094527
0.0945333
0.0945396
0.094546
0.0945523
0.0945586
0.094565
0.0945713
0.0945777
0.0945841
0.0945905
0.0945968
0.0946032
0.0946096
0.094616
0.0946224
0.0946289
0.0946353
0.0946417
0.0946481
0.0946546
0.094661
0.0946675
0.0946739
0.0946804
0.0946868
0.0946933
0.0946998
0.0947063
0.0947127
0.0947192
0.0947257
0.0947322
0.0947387
0.0947453
0.0947518
0.0947583
0.0947648
0.0947714
0.0947779
0.0947844
0.094791
0.0947975
0.0948041
0.0948107
0.0948172
0.0948238
0.0948304
0.094837
0.0948436
0.0948502
0.0948568
0.0948634
0.09487
0.0948766
0.0948832
0.0948898
0.0948965
0.0949031
0.0949097
0.0949164
0.094923
0.0949297
0.0949363
0.094943
0.0949497
0.0949563
0.094963
0.0949697
0.0949764
0.0949831
0.0949898
0.0949965
0.0950032
0.0950099
0.0950166
0.0950233
0.09503
0.0950368
0.0950435
0.0950502
0.095057
0.0950637
0.0950705
0.0950772
0.095084
0.0950908
0.0950975
0.0951043
0.0951111
0.0951179
0.0951247
0.0951315
0.0951383
0.0951451
0.0951519
0.0951587
0.0951655
0.0951723
0.0951792
0.095186
0.0951928
0.0951997
0.0952065
0.0952134
0.0952202
0.0952271
0.0952339
0.0952408
0.0952477
0.0952546
0.0952615
0.0952683
0.0952752
0.0952821
0.095289
0.0952959
0.0953029
0.0953098
0.0953167
0.0953236
0.0953306
0.0953375
0.0953444
0.0953514
0.0953583
0.0953653
0.0953722
0.0953792
0.0953862
0.0953932
0.0954001
0.0954071
0.0954141
0.0954211
0.0954281
0.0954351
0.0954421
0.0954491
0.0954561
0.0954632
0.0954702
0.0954772
0.0954843
0.0954913
0.0954984
0.0955054
0.0955125
0.0955195
0.0955266
0.0955337
0.0955407
0.0955478
0.0955549
0.095562
0.0955691
0.0955762
0.0955833
0.0955904
0.0955975
0.0956046
0.0956118
0.0956189
0.095626
0.0956332
0.0956403
0.0956475
0.0956546
0.0956618
0.0956689
0.0956761
0.0956833
0.0956904
0.0956976
0.0957048
0.095712
0.0957192
0.0957264
0.0957336
0.0957408
0.0957481
0.0957553
0.0957625
0.0957697
0.095777
0.0957842
0.0957915
0.0957987
0.095806
0.0958132
0.0958205
0.0958278
0.0958351
0.0958423
0.0958496
0.0958569
0.0958642
0.0958715
0.0958788
0.0958861
0.0958935
0.0959008
0.0959081
0.0959154
0.0959228
0.0959301
0.0959375
0.0959448
0.0959522
0.0959596
0.0959669
0.0959743
0.0959817
0.0959891
0.0959965
0.0960039
0.0960113
0.0960187
0.0960261
0.0960335
0.0960409
0.0960483
0.0960558
0.0960632
0.0960706
0.0960781
0.0960855
0.096093
0.0961005
0.0961079
0.0961154
0.0961229
0.0961304
0.0961379
0.0961454
0.0961529
0.0961604
0.0961679
0.0961754
0.0961829
0.0961904
0.096198
0.0962055
0.096213
0.0962206
0.0962281
0.0962357
0.0962433
0.0962508
0.0962584
0.096266
0.0962736
0.0962812
0.0962888
0.0962964
0.096304
0.0963116
0.0963192
0.0963268
0.0963345
0.0963421
0.0963498
0.0963574
0.0963651
0.0963727
0.0963804
0.096388
0.0963957
0.0964034
0.0964111
0.0964187
0.0964265
0.0964341
0.096442
0.0964495
0.0964574
0.0964649
0.0964729
0.0964804
0.0964884
0.0964959
0.0965039
0.0965116
0.0965195
0.0965276
0.0965349
0.0965442
0.0965495
0.0965617
0.0965541
0.0965541
0.0965541
1
0.660889
0.446896
0.352881
0.302033
0.269855
0.247506
0.231024
0.218333
0.208232
0.199973
0.193068
0.187185
0.182094
0.177628
0.173667
0.17012
0.166918
0.164009
0.161349
0.158904
0.15665
0.154564
0.152627
0.150824
0.149141
0.147567
0.146096
0.144721
0.143436
0.142234
0.14111
0.140059
0.139084
0.138189
0.137378
0.136653
0.136008
0.135437
0.13493
0.134477
0.134073
0.133715
0.133398
0.13312
0.132874
0.132653
0.132452
0.132265
0.132089
0.131924
0.131772
0.131636
0.131518
0.131421
0.131343
0.131285
0.131244
0.131217
0.131202
0.131194
0.131192
0.131194
0.131199
0.131205
0.131211
0.131219
0.131227
0.131234
0.131242
0.13125
0.131259
0.131267
0.131275
0.131284
0.131292
0.1313
0.131309
0.131317
0.131326
0.131334
0.131343
0.131351
0.13136
0.131368
0.131377
0.131385
0.131394
0.131403
0.131411
0.13142
0.131428
0.131437
0.131446
0.131454
0.131463
0.131472
0.13148
0.131489
0.131498
0.131506
0.131515
0.131524
0.131532
0.131541
0.13155
0.131559
0.131567
0.131576
0.131585
0.131594
0.131603
0.131611
0.13162
0.131629
0.131638
0.131647
0.131656
0.131664
0.131673
0.131682
0.131691
0.1317
0.131709
0.131718
0.131727
0.131736
0.131745
0.131754
0.131762
0.131771
0.13178
0.131789
0.131798
0.131807
0.131816
0.131825
0.131834
0.131843
0.131852
0.131861
0.13187
0.13188
0.131889
0.131898
0.131907
0.131916
0.131925
0.131934
0.131943
0.131952
0.131961
0.13197
0.131979
0.131989
0.131998
0.132007
0.132016
0.132025
0.132034
0.132044
0.132053
0.132062
0.132071
0.13208
0.13209
0.132099
0.132108
0.132117
0.132126
0.132136
0.132145
0.132154
0.132163
0.132173
0.132182
0.132191
0.132201
0.13221
0.132219
0.132228
0.132238
0.132247
0.132256
0.132266
0.132275
0.132284
0.132294
0.132303
0.132313
0.132322
0.132331
0.132341
0.13235
0.132359
0.132369
0.132378
0.132388
0.132397
0.132407
0.132416
0.132425
0.132435
0.132444
0.132454
0.132463
0.132473
0.132482
0.132492
0.132501
0.132511
0.13252
0.13253
0.132539
0.132549
0.132558
0.132568
0.132578
0.132587
0.132597
0.132606
0.132616
0.132625
0.132635
0.132645
0.132654
0.132664
0.132673
0.132683
0.132693
0.132702
0.132712
0.132722
0.132731
0.132741
0.132751
0.13276
0.13277
0.13278
0.132789
0.132799
0.132809
0.132819
0.132828
0.132838
0.132848
0.132857
0.132867
0.132877
0.132887
0.132896
0.132906
0.132916
0.132926
0.132936
0.132945
0.132955
0.132965
0.132975
0.132985
0.132995
0.133004
0.133014
0.133024
0.133034
0.133044
0.133054
0.133064
0.133074
0.133083
0.133093
0.133103
0.133113
0.133123
0.133133
0.133143
0.133153
0.133163
0.133173
0.133183
0.133193
0.133203
0.133213
0.133223
0.133233
0.133243
0.133253
0.133263
0.133273
0.133283
0.133293
0.133303
0.133313
0.133323
0.133333
0.133343
0.133353
0.133363
0.133373
0.133384
0.133394
0.133404
0.133414
0.133424
0.133434
0.133444
0.133455
0.133465
0.133475
0.133485
0.133495
0.133505
0.133516
0.133526
0.133536
0.133546
0.133556
0.133567
0.133577
0.133587
0.133597
0.133608
0.133618
0.133628
0.133639
0.133649
0.133659
0.133669
0.13368
0.13369
0.1337
0.133711
0.133721
0.133731
0.133742
0.133752
0.133762
0.133773
0.133783
0.133794
0.133804
0.133814
0.133825
0.133835
0.133846
0.133856
0.133867
0.133877
0.133887
0.133898
0.133908
0.133919
0.133929
0.13394
0.13395
0.133961
0.133971
0.133982
0.133992
0.134003
0.134014
0.134024
0.134035
0.134045
0.134056
0.134066
0.134077
0.134088
0.134098
0.134109
0.134119
0.13413
0.134141
0.134151
0.134162
0.134173
0.134183
0.134194
0.134205
0.134216
0.134226
0.134237
0.134247
0.134258
0.134269
0.13428
0.13429
0.134302
0.134312
0.134323
0.134334
0.134345
0.134356
0.134366
0.134379
0.134387
0.134403
0.134395
0.134395
0.134395
1
0.776804
0.557828
0.446882
0.384106
0.343749
0.315517
0.294611
0.278476
0.265615
0.25509
0.246287
0.238787
0.232297
0.226605
0.221557
0.217038
0.212961
0.209256
0.20587
0.20276
0.199891
0.197237
0.194774
0.192482
0.190342
0.188342
0.186474
0.184728
0.183097