# vtk DataFile Version 2.0
FlowField
ASCII
DATASET STRUCTURED_GRID
DIMENSIONS 400 1 200
POINTS 80000 float
0 0 0
0.08 0 0
0.16 0 0
0.24 0 0
0.32 0 0
0.4 0 0
0.48 0 0
0.56 0 0
0.64 0 0
0.72 0 0
0.8 0 0
0.88 0 0
0.96 0 0
1.04 0 0
1.12 0 0
1.2 0 0
1.28 0 0
1.36 0 0
1.44 0 0
1.52 0 0
1.6 0 0
1.68 0 0
1.76 0 0
1.84 0 0
1.92 0 0
2 0 0
2.08 0 0
2.16 0 0
2.24 0 0
2.32 0 0
2.4 0 0
2.48 0 0
2.56 0 0
2.64 0 0
2.72 0 0
2.8 0 0
2.88 0 0
2.96 0 0
3.04 0 0
3.12 0 0
3.2 0 0
3.28 0 0
3.36 0 0
3.44 0 0
3.52 0 0
3.6 0 0
3.68 0 0
3.76 0 0
3.84 0 0
3.92 0 0
4 0 0
4.08 0 0
4.16 0 0
4.24 0 0
4.32 0 0
4.4 0 0
4.48 0 0
4.56 0 0
4.64 0 0
4.72 0 0
4.8 0 0
4.88 0 0
4.96 0 0
5.04 0 0
5.12 0 0
5.2 0 0
5.28 0 0
5.36 0 0
5.44 0 0
5.52 0 0
5.6 0 0
5.68 0 0
5.76 0 0
5.84 0 0
5.92 0 0
6 0 0
6.08 0 0
6.16 0 0
6.24 0 0
6.32 0 0
6.4 0 0
6.48 0 0
6.56 0 0
6.64 0 0
6.72 0 0
6.8 0 0
6.88 0 0
6.96 0 0
7.04 0 0
7.12 0 0
7.2 0 0
7.28 0 0
7.36 0 0
7.44 0 0
7.52 0 0
7.6 0 0
7.68 0 0
7.76 0 0
7.84 0 0
7.92 0 0
8 0 0
8.08 0 0
8.16 0 0
8.24 0 0
8.32 0 0
8.4 0 0
8.48 0 0
8.56 0 0
8.64 0 0
8.72 0 0
8.8 0 0
8.88 0 0
8.96 0 0
9.04 0 0
9.12 0 0
9.2 0 0
9.28 0 0
9.36 0 0
9.44 0 0
9.52 0 0
9.6 0 0
9.68 0 0
9.76 0 0
9.84 0 0
9.92 0 0
10 0 0
10.08 0 0
10.16 0 0
10.24 0 0
10.32 0 0
10.4 0 0
10.48 0 0
10.56 0 0
10.64 0 0
10.72 0 0
10.8 0 0
10.88 0 0
10.96 0 0
11.04 0 0
11.12 0 0
11.2 0 0
11.28 0 0
11.36 0 0
11.44 0 0
11.52 0 0
11.6 0 0
11.68 0 0
11.76 0 0
11.84 0 0
11.92 0 0
12 0 0
12.08 0 0
12.16 0 0
12.24 0 0
12.32 0 0
12.4 0 0
12.48 0 0
12.56 0 0
12.64 0 0
12.72 0 0
12.8 0 0
12.88 0 0
12.96 0 0
13.04 0 0
13.12 0 0
13.2 0 0
13.28 0 0
13.36 0 0
13.44 0 0
13.52 0 0
13.6 0 0
13.68 0 0
13.76 0 0
13.84 0 0
13.92 0 0
14 0 0
14.08 0 0
14.16 0 0
14.24 0 0
14.32 0 0
14.4 0 0
14.48 0 0
14.56 0 0
14.64 0 0
14.72 0 0
14.8 0 0
14.88 0 0
14.96 0 0
15.04 0 0
15.12 0 0
15.2 0 0
15.28 0 0
15.36 0 0
15.44 0 0
15.52 0 0
15.6 0 0
15.68 0 0
15.76 0 0
15.84 0 0
15.92 0 0
16 0 0
16.08 0 0
16.16 0 0
16.24 0 0
16.32 0 0
16.4 0 0
16.48 0 0
16.56 0 0
16.64 0 0
16.72 0 0
16.8 0 0
16.88 0 0
16.96 0 0
17.04 0 0
17.12 0 0
17.2 0 0
17.28 0 0
17.36 0 0
17.44 0 0
17.52 0 0
17.6 0 0
17.68 0 0
17.76 0 0
17.84 0 0
17.92 0 0
18 0 0
18.08 0 0
18.16 0 0
18.24 0 0
18.32 0 0
18.4 0 0
18.48 0 0
18.56 0 0
18.64 0 0
18.72 0 0
18.8 0 0
18.88 0 0
18.96 0 0
19.04 0 0
19.12 0 0
19.2 0 0
19.28 0 0
19.36 0 0
19.44 0 0
19.52 0 0
19.6 0 0
19.68 0 0
19.76 0 0
19.84 0 0
19.92 0 0
20 0 0
20.08 0 0
20.16 0 0
20.24 0 0
20.32 0 0
20.4 0 0
20.48 0 0
20.56 0 0
20.64 0 0
20.72 0 0
20.8 0 0
20.88 0 0
20.96 0 0
21.04 0 0
21.12 0 0
21.2 0 0
21.28 0 0
21.36 0 0
21.44 0 0
21.52 0 0
21.6 0 0
21.68 0 0
21.76 0 0
21.84 0 0
21.92 0 0
22 0 0
22.08 0 0
22.16 0 0
22.24 0 0
22.32 0 0
22.4 0 0
22.48 0 0
22.56 0 0
22.64 0 0
22.72 0 0
22.8 0 0
22.88 0 0
22.96 0 0
23.04 0 0
23.12 0 0
23.2 0 0
23.28 0 0
23.36 0 0
23.44 0 0
23.52 0 0
23.6 0 0
23.68 0 0
23.76 0 0
23.84 0 0
23.92 0 0
24 0 0
24.08 0 0
24.16 0 0
24.24 0 0
24.32 0 0
24.4 0 0
24.48 0 0
24.56 0 0
24.64 0 0
24.72 0 0
24.8 0 0
24.88 0 0
24.96 0 0
25.04 0 0
25.12 0 0
25.2 0 0
25.28 0 0
25.36 0 0
25.44 0 0
25.52 0 0
25.6 0 0
25.68 0 0
25.76 0 0
25.84 0 0
25.92 0 0
26 0 0
26.08 0 0
26.16 0 0
26.24 0 0
26.32 0 0
26.4 0 0
26.48 0 0
26.56 0 0
26.64 0 0
26.72 0 0
26.8 0 0
26.88 0 0
26.96 0 0
27.04 0 0
27.12 0 0
27.2 0 0
27.28 0 0
27.36 0 0
27.44 0 0
27.52 0 0
27.6 0 0
27.68 0 0
27.76 0 0
27.84 0 0
27.92 0 0
28 0 0
28.08 0 0
28.16 0 0
28.24 0 0
28.32 0 0
28.4 0 0
28.48 0 0
28.56 0 0
28.64 0 0
28.72 0 0
28.8 0 0
28.88 0 0
28.96 0 0
29.04 0 0
29.12 0 0
29.2 0 0
29.28 0 0
29.36 0 0
29.44 0 0
29.52 0 0
29.6 0 0
29.68 0 0
29.76 0 0
29.84 0 0
29.92 0 0
30 0 0
30.08 0 0
30.16 0 0
30.24 0 0
30.32 0 0
30.4 0 0
30.48 0 0
30.56 0 0
30.64 0 0
30.72 0 0
30.8 0 0
30.88 0 0
30.96 0 0
31.04 0 0
31.12 0 0
31.2 0 0
31.28 0 0
31.36 0 0
31.44 0 0
31.52 0 0
31.6 0 0
31.68 0 0
31.76 0 0
31.84 0 0
31.92 0 0
0 0.005 0
0.08 0.005 0
0.16 0.005 0
0.24 0.005 0
0.32 0.005 0
0.4 0.005 0
0.48 0.005 0
0.56 0.005 0
0.64 0.005 0
0.72 0.005 0
0.8 0.005 0
0.88 0.005 0
0.96 0.005 0
1.04 0.005 0
1.12 0.005 0
1.2 0.005 0
1.28 0.005 0
1.36 0.005 0
1.44 0.005 0
1.52 0.005 0
1.6 0.005 0
1.68 0.005 0
1.76 0.005 0
1.84 0.005 0
1.92 0.005 0
2 0.005 0
2.08 0.005 0
2.16 0.005 0
2.24 0.005 0
2.32 0.005 0
2.4 0.005 0
2.48 0.005 0
2.56 0.005 0
2.64 0.005 0
2.72 0.005 0
2.8 0.005 0
2.88 0.005 0
2.96 0.005 0
3.04 0.005 0
3.12 0.005 0
3.2 0.005 0
3.28 0.005 0
3.36 0.005 0
3.44 0.005 0
3.52 0.005 0
3.6 0.005 0
3.68 0.005 0
3.76 0.005 0
3.84 0.005 0
3.92 0.005 0
4 0.005 0
4.08 0.005 0
4.16 0.005 0
4.24 0.005 0
4.32 0.005 0
4.4 0.005 0
4.48 0.005 0
4.56 0.005 0
4.64 0.005 0
4.72 0.005 0
4.8 0.005 0
4.88 0.005 0
4.96 0.005 0
5.04 0.005 0
5.12 0.005 0
5.2 0.005 0
5.28 0.005 0
5.36 0.005 0
5.44 0.005 0
5.52 0.005 0
5.6 0.005 0
5.68 0.005 0
5.76 0.005 0
5.84 0.005 0
5.92 0.005 0
6 0.005 0
6.08 0.005 0
6.16 0.005 0
6.24 0.005 0
6.32 0.005 0
6.4 0.005 0
6.48 0.005 0
6.56 0.005 0
6.64 0.005 0
6.72 0.005 0
6.8 0.005 0
6.88 0.005 0
6.96 0.005 0
7.04 0.005 0
7.12 0.005 0
7.2 0.005 0
7.28 0.005 0
7.36 0.005 0
7.44 0.005 0
7.52 0.005 0
7.6 0.005 0
7.68 0.005 0
7.76 0.005 0
7.84 0.005 0
7.92 0.005 0
8 0.005 0
8.08 0.005 0
8.16 0.005 0
8.24 0.005 0
8.32 0.005 0
8.4 0.005 0
8.48 0.005 0
8.56 0.005 0
8.64 0.005 0
8.72 0.005 0
8.8 0.005 0
8.88 0.005 0
8.96 0.005 0
9.04 0.005 0
9.12 0.005 0
9.2 0.005 0
9.28 0.005 0
9.36 0.005 0
9.44 0.005 0
9.52 0.005 0
9.6 0.005 0
9.68 0.005 0
9.76 0.005 0
9.84 0.005 0
9.92 0.005 0
10 0.005 0
10.08 0.005 0
10.16 0.005 0
10.24 0.005 0
10.32 0.005 0
10.4 0.005 0
10.48 0.005 0
10.56 0.005 0
10.64 0.005 0
10.72 0.005 0
10.8 0.005 0
10.88 0.005 0
10.96 0.005 0
11.04 0.005 0
11.12 0.005 0
11.2 0.005 0
11.28 0.005 0
11.36 0.005 0
11.44 0.005 0
11.52 0.005 0
11.6 0.005 0
11.68 0.005 0
11.76 0.005 0
11.84 0.005 0
11.92 0.005 0
12 0.005 0
12.08 0.005 0
12.16 0.005 0
12.24 0.005 0
12.32 0.005 0
12.4 0.005 0
12.48 0.005 0
12.56 0.005 0
12.64 0.005 0
12.72 0.005 0
12.8 0.005 0
12.88 0.005 0
12.96 0.005 0
13.04 0.005 0
13.12 0.005 0
13.2 0.005 0
13.28 0.005 0
13.36 0.005 0
13.44 0.005 0
13.52 0.005 0
13.6 0.005 0
13.68 0.005 0
13.76 0.005 0
13.84 0.005 0
13.92 0.005 0
14 0.005 0
14.08 0.005 0
14.16 0.005 0
14.24 0.005 0
14.32 0.005 0
14.4 0.005 0
14.48 0.005 0
14.56 0.005 0
14.64 0.005 0
14.72 0.005 0
14.8 0.005 0
14.88 0.005 0
14.96 0.005 0
15.04 0.005 0
15.12 0.005 0
15.2 0.005 0
15.28 0.005 0
15.36 0.005 0
15.44 0.005 0
15.52 0.005 0
15.6 0.005 0
15.68 0.005 0
15.76 0.005 0
15.84 0.005 0
15.92 0.005 0
16 0.005 0
16.08 0.005 0
16.16 0.005 0
16.24 0.005 0
16.32 0.005 0
16.4 0.005 0
16.48 0.005 0
16.56 0.005 0
16.64 0.005 0
16.72 0.005 0
16.8 0.005 0
16.88 0.005 0
16.96 0.005 0
17.04 0.005 0
17.12 0.005 0
17.2 0.005 0
17.28 0.005 0
17.36 0.005 0
17.44 0.005 0
17.52 0.005 0
17.6 0.005 0
17.68 0.005 0
17.76 0.005 0
17.84 0.005 0
17.92 0.005 0
18 0.005 0
18.08 0.005 0
18.16 0.005 0
18.24 0.005 0
18.32 0.005 0
18.4 0.005 0
18.48 0.005 0
18.56 0.005 0
18.64 0.005 0
18.72 0.005 0
18.8 0.005 0
18.88 0.005 0
18.96 0.005 0
19.04 0.005 0
19.12 0.005 0
19.2 0.005 0
19.28 0.005 0
19.36 0.005 0
19.44 0.005 0
19.52 0.005 0
19.6 0.005 0
19.68 0.005 0
19.76 0.005 0
19.84 0.005 0
19.92 0.005 0
20 0.005 0
20.08 0.005 0
20.16 0.005 0
20.24 0.005 0
20.32 0.005 0
20.4 0.005 0
20.48 0.005 0
20.56 0.005 0
20.64 0.005 0
20.72 0.005 0
20.8 0.005 0
20.88 0.005 0
20.96 0.005 0
21.04 0.005 0
21.12 0.005 0
21.2 0.005 0
21.28 0.005 0
21.36 0.005 0
21.44 0.005 0
21.52 0.005 0
21.6 0.005 0
21.68 0.005 0
21.76 0.005 0
21.84 0.005 0
21.92 0.005 0
22 0.005 0
22.08 0.005 0
22.16 0.005 0
22.24 0.005 0
22.32 0.005 0
22.4 0.005 0
22.48 0.005 0
22.56 0.005 0
22.64 0.005 0
22.72 0.005 0
22.8 0.005 0
22.88 0.005 0
22.96 0.005 0
23.04 0.005 0
23.12 0.005 0
23.2 0.005 0
23.28 0.005 0
23.36 0.005 0
23.44 0.005 0
23.52 0.005 0
23.6 0.005 0
23.68 0.005 0
23.76 0.005 0
23.84 0.005 0
23.92 0.005 0
24 0.005 0
24.08 0.005 0
24.16 0.005 0
24.24 0.005 0
24.32 0.005 0
24.4 0.005 0
24.48 0.005 0
24.56 0.005 0
24.64 0.005 0
24.72 0.005 0
24.8 0.005 0
24.88 0.005 0
24.96 0.005 0
25.04 0.005 0
25.12 0.005 0
25.2 0.005 0
25.28 0.005 0
25.36 0.005 0
25.44 0.005 0
25.52 0.005 0
25.6 0.005 0
25.68 0.005 0
25.76 0.005 0
25.84 0.005 0
25.92 0.005 0
26 0.005 0
26.08 0.005 0
26.16 0.005 0
26.24 0.005 0
26.32 0.005 0
26.4 0.005 0
26.48 0.005 0
26.56 0.005 0
26.64 0.005 0
26.72 0.005 0
26.8 0.005 0
26.88 0.005 0
26.96 0.005 0
27.04 0.005 0
27.12 0.005 0
27.2 0.005 0
27.28 0.005 0
27.36 0.005 0
27.44 0.005 0
27.52 0.005 0
27.6 0.005 0
27.68 0.005 0
27.76 0.005 0
27.84 0.005 0
27.92 0.005 0
28 0.005 0
28.08 0.005 0
28.16 0.005 0
28.24 0.005 0
28.32 0.005 0
28.4 0.005 0
28.48 0.005 0
28.56 0.005 0
28.64 0.005 0
28.72 0.005 0
28.8 0.005 0
28.88 0.005 0
28.96 0.005 0
29.04 0.005 0
29.12 0.005 0
29.2 0.005 0
29.28 0.005 0
29.36 0.005 0
29.44 0.005 0
29.52 0.005 0
29.6 0.005 0
29.68 0.005 0
29.76 0.005 0
29.84 0.005 0
29.92 0.005 0
30 0.005 0
30.08 0.005 0
30.16 0.005 0
30.24 0.005 0
30.32 0.005 0
30.4 0.005 0
30.48 0.005 0
30.56 0.005 0
30.64 0.005 0
30.72 0.005 0
30.8 0.005 0
30.88 0.005 0
30.96 0.005 0
31.04 0.005 0
31.12 0.005 0
31.2 0.005 0
31.28 0.005 0
31.36 0.005 0
31.44 0.005 0
31.52 0.005 0
31.6 0.005 0
31.68 0.005 0
31.76 0.005 0
31.84 0.005 0
31.92 0.005 0
0 0.01 0
0.08 0.01 0
0.16 0.01 0
0.24 0.01 0
0.32 0.01 0
0.4 0.01 0
0.48 0.01 0
0.56 0.01 0
0.64 0.01 0
0.72 0.01 0
0.8 0.01 0
0.88 0.01 0
0.96 0.01 0
1.04 0.01 0
1.12 0.01 0
1.2 0.01 0
1.28 0.01 0
1.36 0.01 0
1.44 0.01 0
1.52 0.01 0
1.6 0.01 0
1.68 0.01 0
1.76 0.01 0
1.84 0.01 0
1.92 0.01 0
2 0.01 0
2.08 0.01 0
2.16 0.01 0
2.24 0.01 0
2.32 0.01 0
2.4 0.01 0
2.48 0.01 0
2.56 0.01 0
2.64 0.01 0
2.72 0.01 0
2.8 0.01 0
2.88 0.01 0
2.96 0.01 0
3.04 0.01 0
3.12 0.01 0
3.2 0.01 0
3.28 0.01 0
3.36 0.01 0
3.44 0.01 0
3.52 0.01 0
3.6 0.01 0
3.68 0.01 0
3.76 0.01 0
3.84 0.01 0
3.92 0.01 0
4 0.01 0
4.08 0.01 0
4.16 0.01 0
4.24 0.01 0
4.32 0.01 0
4.4 0.01 0
4.48 0.01 0
4.56 0.01 0
4.64 0.01 0
4.72 0.01 0
4.8 0.01 0
4.88 0.01 0
4.96 0.01 0
5.04 0.01 0
5.12 0.01 0
[...]
POINT_DATA 80000

SCALARS v float 1
LOOKUP_TABLE default
0
0
0
0
0
0
0
0
0
0
0
0
0
0
0
0
0
0
0
0
0
0
0
0
0
0
0
0
0
0
0
0
0
0
0
0
0
0
0
0
0
0
0
0
0
0
0
0
0
0
0
0
0
0
0
0
0
0
0
0
0
0
0
0
0
0
0
0
0
0
0
0
0
0
0
0
0
0
0
0
0
0
0
0
0
0
0
0
0
0
0
0
0
0
0
0
0
0
0
0
0
0
0
0
0
0
0
0
0
0
0
0
0
0
0
0
0
0
0
0
0
0
0
0
0
0
0
0
0
0
0
0
0
0
0
0
0
0
0
0
0
0
0
0
0
0
0
0
0
0
0
0
0
0
0
0
0
0
0
0
0
0
0
0
0
0
0
0
0
0
0
0
0
0
0
0
0
0
0
0
0
0
0
0
0
0
0
0
0
0
0
0
0
0
0
0
0
0
0
0
0
0
0
0
0
0
0
0
0
0
0
0
0
0
0
0
0
0
0
0
0
0
0
0
0
0
0
0
0
0
0
0
0
0
0
0
0
0
0
0
0
0
0
0
0
0
0
0
0
0
0
0
0
0
0
0
0
0
0
0
0
0
0
0
0
0
0
0
0
0
0
0
0
0
0
0
0
0
0
0
0
0
0
0
0
0
0
0
0
0
0
0
0
0
0
0
0
0
0
0
0
0
0
0
0
0
0
0
0
0
0
0
0
0
0
0
0
0
0
0
0
0
0
0
0
0
0
0
0
0
0
0
0
0
0
0
0
0
0
0
0
0
0
0
0
0
0
0
0
0
0
0
0
0
0
0
0
0
0
0
0
0
0
0
0
0
0
0
0
0
0
0
0
0
0
0
0
0
0
0
0
0
0
0
0
0
0
0
0
0
0
0
0
0
0
0
0
0
0
0
-0.0542714
0.0542714
0.00396239
0.000998627
0.000492556
0.000302986
0.000207604
0.000151967
0.000116505
9.25163e-05
7.55726e-05
6.31887e-05
5.38519e-05
4.65994e-05
4.08236e-05
3.61443e-05
3.22985e-05
2.90673e-05
2.62627e-05
2.37546e-05
2.14835e-05
1.94285e-05
1.75491e-05
1.5751e-05
1.39132e-05
1.19613e-05
9.93092e-06
7.97119e-06
6.28111e-06
5.01582e-06
4.21749e-06
3.80473e-06
3.61782e-06
3.48752e-06
3.29148e-06
2.97806e-06
2.55861e-06
2.08217e-06
1.60776e-06
1.18424e-06
8.40669e-07
5.85749e-07
4.12618e-07
3.05601e-07
2.46318e-07
2.17909e-07
2.07172e-07
2.05033e-07
2.06011e-07
2.07266e-07
2.07644e-07
2.06917e-07
2.05268e-07
2.03e-07
2.00388e-07
1.97635e-07
1.94868e-07
1.92156e-07
1.89528e-07
1.86992e-07
1.84543e-07
1.82172e-07
1.79869e-07
1.77627e-07
1.75438e-07
1.73298e-07
1.71203e-07
1.69152e-07
1.67142e-07
1.65174e-07
1.63246e-07
1.61362e-07
1.59519e-07
1.57722e-07
1.5597e-07
1.54265e-07
1.52611e-07
1.51008e-07
1.49459e-07
1.47967e-07
1.46535e-07
1.45165e-07
1.43861e-07
1.42626e-07
1.41463e-07
1.40376e-07
1.39368e-07
1.38443e-07
1.37604e-07
1.36857e-07
1.36204e-07
1.3565e-07
1.35198e-07
1.34855e-07
1.34622e-07
1.34506e-07
1.34511e-07
1.3464e-07
1.34899e-07
1.35293e-07
1.35825e-07
1.36501e-07
1.37325e-07
1.38303e-07
1.39438e-07
1.40736e-07
1.42201e-07
1.43838e-07
1.45652e-07
1.47647e-07
1.49828e-07
1.522e-07
1.54766e-07
1.57531e-07
1.60499e-07
1.63675e-07
1.67061e-07
1.70663e-07
1.74483e-07
1.78525e-07
1.82792e-07
1.87287e-07
1.92013e-07
1.96973e-07
2.02168e-07
2.076e-07
2.13272e-07
2.19185e-07
2.25338e-07
2.31735e-07
2.38374e-07
2.45255e-07
2.52379e-07
2.59744e-07
2.67349e-07
2.75192e-07
2.83272e-07
2.91586e-07
3.00131e-07
3.08904e-07
3.179e-07
3.27115e-07
3.36545e-07
3.46184e-07
3.56026e-07
3.66065e-07
3.76295e-07
3.86707e-07
3.97295e-07
4.0805e-07
4.18962e-07
4.30024e-07
4.41226e-07
4.52556e-07
4.64005e-07
4.75562e-07
4.87215e-07
4.98952e-07
5.10762e-07
5.22631e-07
5.34546e-07
5.46496e-07
5.58464e-07
5.70439e-07
5.82405e-07
5.94348e-07
6.06254e-07
6.18107e-07
6.29894e-07
6.41598e-07
6.53204e-07
6.64698e-07
6.76063e-07
6.87284e-07
6.98347e-07
7.09236e-07
7.19935e-07
7.30429e-07
7.40704e-07
7.50745e-07
7.60538e-07
7.70067e-07
7.79319e-07
7.88281e-07
7.96939e-07
8.05279e-07
8.1329e-07
8.20959e-07
8.28275e-07
8.35225e-07
8.41801e-07
8.47991e-07
8.53785e-07
8.59175e-07
8.64153e-07
8.68709e-07
8.72838e-07
8.76532e-07
8.79786e-07
8.82594e-07
8.84952e-07
8.86855e-07
8.88301e-07
8.89287e-07
8.89811e-07
8.89872e-07
8.89469e-07
8.88603e-07
8.87274e-07
8.85485e-07
8.83237e-07
8.80533e-07
8.77377e-07
8.73773e-07
8.69726e-07
8.65241e-07
8.60324e-07
8.54982e-07
8.49221e-07
8.4305e-07
8.36476e-07
8.29508e-07
8.22155e-07
8.14426e-07
8.06331e-07
7.97881e-07
7.89085e-07
7.79955e-07
7.70502e-07
7.60737e-07
7.50671e-07
7.40317e-07
7.29687e-07
7.18792e-07
7.07644e-07
6.96257e-07
6.84643e-07
6.72813e-07
6.6078e-07
6.48557e-07
6.36156e-07
6.23589e-07
6.10868e-07
5.98006e-07
5.85014e-07
5.71904e-07
5.58687e-07
5.45376e-07
5.3198e-07
5.18511e-07
5.0498e-07
4.91397e-07
4.77773e-07
4.64116e-07
4.50436e-07
4.36744e-07
4.23047e-07
4.09354e-07
3.95673e-07
3.82014e-07
3.68381e-07
3.54784e-07
3.41229e-07
3.27723e-07
3.14271e-07
3.00879e-07
2.87554e-07
2.74299e-07
2.61121e-07
2.48023e-07
2.35008e-07
2.22083e-07
2.09248e-07
1.96509e-07
1.83867e-07
1.71325e-07
1.58886e-07
1.4655e-07
1.34321e-07
1.22199e-07
1.10185e-07
9.82805e-08
8.64859e-08
7.48018e-08
6.32281e-08
5.1765e-08
4.0412e-08
2.9169e-08
1.80352e-08
7.00994e-09
-3.90788e-09
-1.47191e-08
-2.54252e-08
-3.60273e-08
-4.65271e-08
-5.6926e-08
-6.72259e-08
-7.74284e-08
-8.75357e-08
-9.75493e-08
-1.07472e-07
-1.17305e-07
-1.27051e-07
-1.36712e-07
-1.4629e-07
-1.55788e-07
-1.65209e-07
-1.74553e-07
-1.83824e-07
-1.93025e-07
-2.02157e-07
-2.11223e-07
-2.20225e-07
-2.29167e-07
-2.38049e-07
-2.46875e-07
-2.55648e-07
-2.64368e-07
-2.7304e-07
-2.81665e-07
-2.90245e-07
-2.98783e-07
-3.07281e-07
-3.15741e-07
-3.24165e-07
-3.32557e-07
-3.40917e-07
-3.49248e-07
-3.57553e-07
-3.65832e-07
-3.74089e-07
-3.82325e-07
-3.90542e-07
-3.98742e-07
-4.06927e-07
-4.15099e-07
-4.23259e-07
-4.3141e-07
-4.39554e-07
-4.47691e-07
-4.55824e-07
-4.63955e-07
-4.72085e-07
-4.80215e-07
-4.88348e-07
-4.96485e-07
-5.04628e-07
-5.12777e-07
-5.20935e-07
-5.29103e-07
-5.37283e-07
-5.45476e-07
-5.53683e-07
-5.61906e-07
-5.70147e-07
-5.78406e-07
-5.86685e-07
-5.94985e-07
-6.03309e-07
-6.11657e-07
-6.20029e-07
-6.28431e-07
-6.36853e-07
-6.45325e-07
-6.53783e-07
-6.62365e-07
-6.70797e-07
-6.79619e-07
-6.87814e-07
-6.97236e-07
-7.04649e-07
-7.1548e-07
-7.21015e-07
-7.34661e-07
-7.36695e-07
-7.54856e-07
-7.51879e-07
-7.75614e-07
-7.67284e-07
-7.96123e-07
-7.83699e-07
-8.15816e-07
-8.01525e-07
-8.34391e-07
-8.21292e-07
-8.51102e-07
-8.43968e-07
-8.65622e-07
-8.68786e-07
-8.80858e-07
-8.92193e-07
-8.99617e-07
-9.17839e-07
-9.10165e-07
-9.6615e-07
-8.88261e-07
-1.03647e-06
-6.07991e-07
-9.62898e-07
-9.62898e-07
-0.0952162
0.0952162
0.012976
0.00385495
0.00193464
0.00119651
0.00082202
0.000602557
0.000462226
0.000367073
0.000299744
0.000250458
0.000213251
0.000184331
0.000161308
0.000142661
0.000127317
0.000114387
0.000103145
9.31066e-05
8.40421e-05
7.58348e-05
6.82732e-05
6.09659e-05
5.34766e-05
4.55962e-05
3.7543e-05
2.99286e-05
2.34907e-05
1.87498e-05
1.57816e-05
1.42149e-05
1.34219e-05
1.2777e-05
1.18537e-05
1.04949e-05
8.77098e-06
6.87916e-06
5.04082e-06
3.4306e-06
2.14546e-06
1.20643e-06
5.78924e-07
1.98611e-07
-6.05663e-09
-9.88954e-08
-1.28894e-07
-1.29143e-07
-1.1928e-07
-1.0924e-07
-1.02879e-07
-1.0079e-07
-1.02158e-07
-1.05813e-07
-1.1072e-07
-1.16135e-07
-1.216e-07
-1.26873e-07
-1.31856e-07
-1.36531e-07
-1.40923e-07
-1.45067e-07
-1.49006e-07
-1.52772e-07
-1.56397e-07
-1.59902e-07
-1.63306e-07
-1.6662e-07
-1.69856e-07
-1.7302e-07
-1.76116e-07
-1.79149e-07
-1.82122e-07
-1.85035e-07
-1.87889e-07
-1.90683e-07
-1.93419e-07
-1.96093e-07
-1.98705e-07
-2.01253e-07
-2.03733e-07
-2.06143e-07
-2.08481e-07
-2.10742e-07
-2.12924e-07
-2.15021e-07
-2.1703e-07
-2.18947e-07
-2.20768e-07
-2.22487e-07
-2.24101e-07
-2.25604e-07
-2.26991e-07
-2.28258e-07
-2.29399e-07
-2.30409e-07
-2.31283e-07
-2.32015e-07
-2.32601e-07
-2.33033e-07
-2.33309e-07
-2.3342e-07
-2.33363e-07
-2.33131e-07
-2.32719e-07
-2.3212e-07
-2.31331e-07
-2.30344e-07
-2.29155e-07
-2.27757e-07
-2.26146e-07
-2.24316e-07
-2.22261e-07
-2.19977e-07
-2.17458e-07
-2.14699e-07
-2.11696e-07
-2.08443e-07
-2.04937e-07
-2.01172e-07
-1.97145e-07
-1.92852e-07
-1.88289e-07
-1.83453e-07
-1.78341e-07
-1.7295e-07
-1.67278e-07
-1.61321e-07
-1.5508e-07
-1.48552e-07
-1.41737e-07
-1.34632e-07
-1.2724e-07
-1.1956e-07
-1.11592e-07
-1.03338e-07
-9.47994e-08
-8.59785e-08
-7.68784e-08
-6.75016e-08
-5.78528e-08
-4.79352e-08
-3.77548e-08
-2.7316e-08
-1.66257e-08
-5.68959e-09
5.48433e-09
1.68893e-08
2.85161e-08
4.03568e-08
5.24012e-08
6.46401e-08
7.7062e-08
8.9657e-08
1.02412e-07
1.15317e-07
1.28357e-07
1.41521e-07
1.54793e-07
1.68162e-07
1.8161e-07
1.95124e-07
2.08689e-07
2.22288e-07
2.35905e-07
2.49525e-07
2.6313e-07
2.76703e-07
2.90227e-07
3.03685e-07
3.17058e-07
3.3033e-07
3.43482e-07
3.56496e-07
3.69354e-07
3.8204e-07
3.94533e-07
4.06817e-07
4.18874e-07
4.30686e-07
4.42235e-07
4.53506e-07
4.6448e-07
4.75141e-07
4.85473e-07
4.9546e-07
5.05086e-07
5.14337e-07
5.23197e-07
5.31654e-07
5.39692e-07
5.47299e-07
5.54463e-07
5.61172e-07
5.67414e-07
5.73181e-07
5.7846e-07
5.83245e-07
5.87525e-07
5.91294e-07
5.94545e-07
5.97271e-07
5.99468e-07
6.01131e-07
6.02256e-07
6.0284e-07
6.02882e-07
6.02379e-07
6.01331e-07
5.9974e-07
5.97604e-07
5.94928e-07
5.91712e-07
5.8796e-07
5.83677e-07
5.78867e-07
5.73535e-07
5.67688e-07
5.61333e-07
5.54477e-07
5.47128e-07
5.39295e-07
5.30986e-07
5.22213e-07
5.12984e-07
5.03312e-07
4.93206e-07
4.82679e-07
4.71742e-07
4.60409e-07
4.48691e-07
4.36602e-07
4.24154e-07
4.11361e-07
3.98237e-07
3.84797e-07
3.71052e-07
3.57018e-07
3.42709e-07
3.28138e-07
3.13321e-07
2.9827e-07
2.83e-07
2.67526e-07
2.5186e-07
2.36017e-07
2.2001e-07
2.03853e-07
1.87558e-07
1.71139e-07
1.54609e-07
1.3798e-07
1.21263e-07
1.04472e-07
8.76176e-08
7.07113e-08
5.37632e-08
3.67851e-08
1.97861e-08
2.77706e-09
-1.42335e-08
-3.12354e-08
-4.8221e-08
-6.51809e-08
-8.21082e-08
-9.89944e-08
-1.15833e-07
-1.32617e-07
-1.4934e-07
-1.65996e-07
-1.8258e-07
-1.99085e-07
-2.15508e-07
-2.31844e-07
-2.48089e-07
-2.64238e-07
-2.8029e-07
-2.96239e-07
-3.12085e-07
-3.27824e-07
-3.43454e-07
-3.58974e-07
-3.74382e-07
-3.89676e-07
-4.04857e-07
-4.19922e-07
-4.34873e-07
-4.49707e-07
-4.64427e-07
-4.79031e-07
-4.93521e-07
-5.07897e-07
-5.2216e-07
-5.36311e-07
-5.50351e-07
-5.64281e-07
-5.78104e-07
-5.9182e-07
-6.05432e-07
-6.18941e-07
-6.3235e-07
-6.45659e-07
-6.58873e-07
-6.71993e-07
-6.8502e-07
-6.97959e-07
-7.1081e-07
-7.23577e-07
-7.36263e-07
-7.48868e-07
-7.61398e-07
-7.73853e-07
-7.86238e-07
-7.98553e-07
-8.10803e-07
-8.22989e-07
-8.35115e-07
-8.47183e-07
-8.59197e-07
-8.71157e-07
-8.83069e-07
-8.94932e-07
-9.06752e-07
-9.1853e-07
-9.30269e-07
-9.41972e-07
-9.5364e-07
-9.65277e-07
-9.76886e-07
-9.88467e-07
-1.00003e-06
-1.01156e-06
-1.02308e-06
-1.03458e-06
-1.04607e-06
-1.05754e-06
-1.069e-06
-1.08046e-06
-1.09191e-06
-1.10336e-06
-1.11481e-06
-1.12625e-06
-1.13771e-06
-1.14916e-06
-1.16063e-06
-1.1721e-06
-1.18359e-06
-1.19509e-06
-1.2066e-06
-1.21813e-06
-1.22968e-06
-1.24125e-06
-1.25285e-06
-1.26447e-06
-1.27612e-06
-1.28779e-06
-1.2995e-06
-1.31124e-06
-1.32301e-06
-1.33482e-06
-1.34667e-06
-1.35856e-06
-1.37047e-06
-1.38249e-06
-1.3944e-06
-1.40669e-06
-1.41836e-06
-1.43136e-06
-1.44203e-06
-1.45704e-06
-1.4647e-06
-1.4847e-06
-1.48527e-06
-1.51547e-06
-1.50286e-06
-1.54968e-06
-1.51809e-06
-1.58567e-06
-1.53362e-06
-1.62033e-06
-1.55244e-06
-1.65143e-06
-1.57605e-06
-1.67791e-06
-1.60631e-06
-1.69694e-06
-1.647e-06
-1.70692e-06
-1.69561e-06
-1.71863e-06
-1.73844e-06
-1.74368e-06
-1.78778e-06
-1.73942e-06
-1.92065e-06
-1.61386e-06
-2.13395e-06
-5.8296e-07
-1.82528e-06
-1.82528e-06
-0.125293
0.125293
0.0249362
0.00835836
0.00427832
0.00266179
0.00183395
0.00134648
0.00103382
0.000821355
0.000670777
0.000560405
0.000476989
0.000412121
0.000360486
0.000318671
0.000284225
0.000255144
0.000229835
0.000207261
0.000186919
0.000168488
0.000151417
0.000134813
0.000117778
9.99842e-05
8.20335e-05
6.53088e-05
5.13645e-05
4.12076e-05
3.48677e-05
3.14487e-05
2.95683e-05
2.79085e-05
2.56107e-05
2.23974e-05
1.84615e-05
1.42432e-05
1.02139e-05
6.732e-06
3.98472e-06
1.99849e-06
6.85369e-07
-1.00697e-07
-5.16631e-07
-6.99664e-07
-7.53641e-07
-7.47821e-07
-7.22754e-07
-6.98581e-07
-6.82835e-07
-6.76383e-07
-6.77299e-07
-6.8302e-07
-6.91334e-07
-7.00671e-07
-7.10079e-07
-7.19063e-07
-7.27427e-07
-7.35142e-07
-7.42265e-07
-7.48878e-07
-7.55072e-07
-7.60921e-07
-7.66493e-07
-7.71835e-07
-7.7699e-07
-7.81985e-07
-7.86846e-07
-7.91588e-07
-7.96227e-07
-8.00772e-07
-8.05233e-07
-8.09614e-07
-8.13921e-07
-8.18156e-07
-8.22322e-07
-8.26418e-07
-8.30447e-07
-8.34405e-07
-8.38292e-07
-8.42106e-07
-8.45845e-07
-8.49504e-07
-8.53081e-07
-8.5657e-07
-8.5997e-07
-8.63273e-07
-8.66478e-07
-8.69576e-07
-8.72565e-07
-8.75437e-07
-8.7819e-07
-8.80815e-07
-8.83309e-07
-8.85664e-07
-8.87876e-07
-8.89938e-07
-8.91846e-07
-8.93591e-07
-8.95169e-07
-8.96573e-07
-8.97799e-07
-8.98837e-07
-8.99684e-07
-9.00332e-07
-9.00777e-07
-9.0101e-07
-9.01027e-07
-9.0082e-07
-9.00386e-07
-8.99715e-07
-8.98804e-07
-8.97646e-07
-8.96235e-07
-8.94566e-07
-8.92634e-07
-8.90431e-07
-8.87955e-07
-8.85199e-07
-8.82159e-07
-8.7883e-07
-8.75208e-07
-8.71288e-07
-8.67069e-07
-8.62544e-07
-8.57712e-07
-8.52569e-07
-8.47114e-07
-8.41344e-07
-8.35257e-07
-8.28853e-07
-8.2213e-07
-8.15088e-07
-8.07729e-07
-8.0005e-07
-7.92055e-07
-7.83745e-07
-7.75122e-07
-7.66189e-07
-7.5695e-07
-7.47407e-07
-7.37566e-07
-7.27432e-07
-7.17011e-07
-7.06308e-07
-6.95331e-07
-6.84088e-07
-6.72586e-07
-6.60834e-07
-6.48843e-07
-6.36621e-07
-6.2418e-07
-6.1153e-07
-5.98684e-07
-5.85654e-07
-5.72453e-07
-5.59094e-07
-5.45593e-07
-5.31962e-07
-5.18219e-07
-5.04377e-07
-4.90455e-07
-4.76466e-07
-4.6243e-07
-4.48362e-07
-4.34283e-07
-4.20207e-07
-4.06156e-07
-3.92146e-07
-3.78199e-07
-3.6433e-07
-3.50562e-07
-3.36911e-07
-3.234e-07
-3.10045e-07
-2.96869e-07
-2.83889e-07
-2.71126e-07
-2.58598e-07
-2.46326e-07
-2.34327e-07
-2.22622e-07
-2.11226e-07
-2.00162e-07
-1.89444e-07
-1.79092e-07
-1.69121e-07
-1.5955e-07
-1.50393e-07
-1.41667e-07
-1.33386e-07
-1.25566e-07
-1.18219e-07
-1.1136e-07
-1.05e-07
-9.91528e-08
-9.38272e-08
-8.90358e-08
-8.4786e-08
-8.10889e-08
-7.79504e-08
-7.53797e-08
-7.33813e-08
-7.19627e-08
-7.11267e-08
-7.08791e-08
-7.1221e-08
-7.21566e-08
-7.36851e-08
-7.58092e-08
-7.85265e-08
-8.18379e-08
-8.57393e-08
-9.023e-08
-9.53044e-08
-1.0096e-07
-1.0719e-07
-1.13991e-07
-1.21353e-07
-1.29272e-07
-1.37738e-07
-1.46744e-07
-1.56278e-07
-1.66334e-07
-1.76899e-07
-1.87964e-07
-1.99515e-07
-2.11544e-07
-2.24034e-07
-2.36977e-07
-2.50357e-07
-2.64162e-07
-2.78377e-07
-2.9299e-07
-3.07984e-07
-3.23349e-07
-3.39066e-07
-3.55123e-07
-3.71504e-07
-3.88195e-07
-4.05181e-07
-4.22447e-07
-4.39978e-07
-4.5776e-07
-4.75777e-07
-4.94016e-07
-5.1246e-07
-5.31098e-07
-5.49914e-07
-5.68894e-07
-5.88025e-07
-6.07294e-07
-6.26686e-07
-6.46191e-07
-6.65793e-07
-6.85483e-07
-7.05247e-07
-7.25075e-07
-7.44953e-07
-7.64874e-07
-7.84825e-07
-8.04798e-07
-8.2478e-07
-8.44766e-07
-8.64743e-07
-8.84705e-07
-9.04643e-07
-9.24551e-07
-9.44419e-07
-9.64243e-07
-9.84013e-07
-1.00373e-06
-1.02338e-06
-1.04296e-06
-1.06247e-06
-1.08189e-06
-1.10124e-06
-1.1205e-06
-1.13967e-06
-1.15875e-06
-1.17773e-06
-1.19662e-06
-1.21541e-06
-1.23409e-06
-1.25267e-06
-1.27115e-06
-1.28952e-06
-1.30778e-06
-1.32594e-06
-1.34399e-06
-1.36194e-06
-1.37978e-06
-1.39751e-06
-1.41514e-06
-1.43267e-06
-1.45009e-06
-1.46741e-06
-1.48463e-06
-1.50175e-06
-1.51878e-06
-1.53571e-06
-1.55254e-06
-1.56928e-06
-1.58594e-06
-1.60251e-06
-1.61899e-06
-1.63539e-06
-1.65171e-06
-1.66795e-06
-1.68412e-06
-1.70022e-06
-1.71624e-06
-1.7322e-06
-1.7481e-06
-1.76393e-06
-1.77971e-06
-1.79543e-06
-1.81109e-06
-1.82671e-06
-1.84228e-06
-1.8578e-06
-1.87328e-06
-1.88873e-06
-1.90413e-06
-1.91951e-06
-1.93485e-06
-1.95017e-06
-1.96546e-06
-1.98073e-06
-1.99598e-06
-2.01121e-06
-2.02642e-06
-2.04163e-06
-2.05683e-06
-2.07202e-06
-2.08721e-06
-2.10239e-06
-2.11758e-06
-2.13277e-06
-2.14797e-06
-2.16317e-06
-2.17839e-06
-2.19362e-06
-2.20887e-06
-2.22413e-06
-2.23942e-06
-2.25473e-06
-2.27007e-06
-2.28543e-06
-2.30083e-06
-2.31625e-06
-2.33172e-06
-2.34721e-06
-2.36275e-06
-2.37833e-06
-2.39396e-06
-2.40963e-06
-2.42535e-06
-2.44112e-06
-2.45694e-06
-2.47284e-06
-2.48873e-06
-2.50483e-06
-2.52067e-06
-2.53725e-06
-2.55253e-06
-2.57054e-06
-2.58364e-06
-2.60578e-06
-2.61248e-06
-2.64503e-06
-2.63667e-06
-2.69077e-06
-2.65425e-06
-2.74374e-06
-2.66648e-06
-2.80042e-06
-2.67903e-06
-2.85406e-06
-2.69841e-06
-2.89987e-06
-2.72772e-06
-2.93565e-06
-2.77085e-06
-2.95532e-06
-2.83613e-06
-2.95505e-06
-2.91866e-06
-2.95781e-06
-2.98851e-06
-2.99001e-06
-3.07022e-06
-2.96228e-06
-3.32905e-06
-2.67752e-06
-3.75818e-06
-5.68098e-07
-3.08791e-06
-3.08791e-06
-0.146488
0.146488
0.0383108
0.0142344
0.0074563
0.00467294
0.00323063
0.00237645
0.00182666
0.00145215
0.00118625
0.000991081
0.000843411
0.000728508
0.000637046
0.000562976
0.000501904
0.000450261
0.000405279
0.000365206
0.000329153
0.000296463
0.000266049
0.000236315
0.000205801
0.000174135
0.00014254
0.00011347
8.95164e-05
7.22225e-05
6.1437e-05
5.5489e-05
5.19788e-05
4.87036e-05
4.42894e-05
3.83529e-05
3.12834e-05
2.38542e-05
1.68604e-05
1.08861e-05
6.21878e-06
2.87496e-06
6.84548e-07
-6.13096e-07
-1.29015e-06
-1.58072e-06
-1.65979e-06
-1.64278e-06
-1.59645e-06
-1.55343e-06
-1.52549e-06
-1.51353e-06
-1.51404e-06
-1.52257e-06
-1.53537e-06
-1.54981e-06
-1.56431e-06
-1.57806e-06
-1.59075e-06
-1.60233e-06
-1.61291e-06
-1.62263e-06
-1.63166e-06
-1.64011e-06
-1.6481e-06
-1.65572e-06
-1.66303e-06
-1.67009e-06
-1.67695e-06
-1.68362e-06
-1.69014e-06
-1.69653e-06
-1.7028e-06
-1.70897e-06
-1.71504e-06
-1.72103e-06
-1.72694e-06
-1.73276e-06
-1.73852e-06
-1.7442e-06
-1.74981e-06
-1.75534e-06
-1.76079e-06
-1.76617e-06
-1.77146e-06
-1.77667e-06
-1.78179e-06
-1.78681e-06
-1.79174e-06
-1.79655e-06
-1.80126e-06
-1.80585e-06
-1.81032e-06
-1.81466e-06
-1.81887e-06
-1.82293e-06
-1.82686e-06
-1.83062e-06
-1.83424e-06
-1.83768e-06
-1.84095e-06
-1.84405e-06
-1.84696e-06
-1.84968e-06
-1.8522e-06
-1.85452e-06
-1.85663e-06
-1.85852e-06
-1.86019e-06
-1.86163e-06
-1.86283e-06
-1.86379e-06
-1.8645e-06
-1.86496e-06
-1.86515e-06
-1.86508e-06
-1.86473e-06
-1.8641e-06
-1.86319e-06
-1.86199e-06
-1.86049e-06
-1.85869e-06
-1.85658e-06
-1.85417e-06
-1.85144e-06
-1.84839e-06
-1.84502e-06
-1.84132e-06
-1.8373e-06
-1.83294e-06
-1.82825e-06
-1.82323e-06
-1.81787e-06
-1.81217e-06
-1.80614e-06
-1.79976e-06
-1.79306e-06
-1.78601e-06
-1.77863e-06
-1.77092e-06
-1.76288e-06
-1.75452e-06
-1.74584e-06
-1.73683e-06
-1.72752e-06
-1.71791e-06
-1.70799e-06
-1.69778e-06
-1.68729e-06
-1.67653e-06
-1.6655e-06
-1.65421e-06
-1.64268e-06
-1.63091e-06
-1.61892e-06
-1.60671e-06
-1.59432e-06
-1.58173e-06
-1.56898e-06
-1.55607e-06
-1.54302e-06
-1.52985e-06
-1.51657e-06
-1.50319e-06
-1.48975e-06
-1.47624e-06
-1.4627e-06
-1.44914e-06
-1.43558e-06
-1.42203e-06
-1.40853e-06
-1.39507e-06
-1.3817e-06
-1.36842e-06
-1.35527e-06
-1.34224e-06
-1.32938e-06
-1.31669e-06
-1.3042e-06
-1.29194e-06
-1.27991e-06
-1.26813e-06
-1.25664e-06
-1.24545e-06
-1.23458e-06
-1.22404e-06
-1.21386e-06
-1.20405e-06
-1.19463e-06
-1.18562e-06
-1.17705e-06
-1.16891e-06
-1.16123e-06
-1.15403e-06
-1.14732e-06
-1.1411e-06
-1.13541e-06
-1.13024e-06
-1.12562e-06
-1.12155e-06
-1.11804e-06
-1.1151e-06
-1.11274e-06
-1.11097e-06
-1.1098e-06
-1.10923e-06
-1.10926e-06
-1.10991e-06
-1.11118e-06
-1.11306e-06
-1.11556e-06
-1.11869e-06
-1.12244e-06
-1.1268e-06
-1.13179e-06
-1.13739e-06
-1.14362e-06
-1.15044e-06
-1.15788e-06
-1.16592e-06
-1.17455e-06
-1.18377e-06
-1.19356e-06
-1.20393e-06
-1.21487e-06
-1.22635e-06
-1.23838e-06
-1.25095e-06
-1.26403e-06
-1.27762e-06
-1.29172e-06
-1.3063e-06
-1.32135e-06
-1.33686e-06
-1.35281e-06
-1.3692e-06
-1.38601e-06
-1.40322e-06
-1.42082e-06
-1.43879e-06
-1.45713e-06
-1.4758e-06
-1.49481e-06
-1.51414e-06
-1.53376e-06
-1.55367e-06
-1.57385e-06
-1.59429e-06
-1.61497e-06
-1.63587e-06
-1.65699e-06
-1.6783e-06
-1.69981e-06
-1.72147e-06
-1.7433e-06
-1.76528e-06
-1.78738e-06
-1.8096e-06
-1.83193e-06
-1.85435e-06
-1.87686e-06
-1.89944e-06
-1.92208e-06
-1.94477e-06
-1.9675e-06
-1.99027e-06
-2.01305e-06
-2.03585e-06
-2.05865e-06
-2.08145e-06
-2.10423e-06
-2.127e-06
-2.14974e-06
-2.17245e-06
-2.19512e-06
-2.21775e-06
-2.24033e-06
-2.26285e-06
-2.28532e-06
-2.30772e-06
-2.33005e-06
-2.35232e-06
-2.37451e-06
-2.39662e-06
-2.41866e-06
-2.44061e-06
-2.46248e-06
-2.48427e-06
-2.50597e-06
-2.52758e-06
-2.5491e-06
-2.57054e-06
-2.59188e-06
-2.61314e-06
-2.63431e-06
-2.65539e-06
-2.67638e-06
-2.69729e-06
-2.71811e-06
-2.73884e-06
-2.75949e-06
-2.78006e-06
-2.80054e-06
-2.82095e-06
-2.84128e-06
-2.86153e-06
-2.88171e-06
-2.90182e-06
-2.92186e-06
-2.94183e-06
-2.96174e-06
-2.98159e-06
-3.00137e-06
-3.0211e-06
-3.04077e-06
-3.06039e-06
-3.07996e-06
-3.09949e-06
-3.11897e-06
-3.13841e-06
-3.15781e-06
-3.17718e-06
-3.19651e-06
-3.21581e-06
-3.23509e-06
-3.25434e-06
-3.27357e-06
-3.29278e-06
-3.31198e-06