# vtk DataFile Version 2.0
FlowField
ASCII
DATASET STRUCTURED_GRID
DIMENSIONS 400 1 200
POINTS 80000 float
0 0 0
0.08 0 0
0.16 0 0
0.24 0 0
0.32 0 0
0.4 0 0
0.48 0 0
0.56 0 0
0.64 0 0
0.72 0 0
0.8 0 0
0.88 0 0
0.96 0 0
1.04 0 0
1.12 0 0
1.2 0 0
1.28 0 0
1.36 0 0
1.44 0 0
1.52 0 0
1.6 0 0
1.68 0 0
1.76 0 0
1.84 0 0
1.92 0 0
2 0 0
2.08 0 0
2.16 0 0
2.24 0 0
2.32 0 0
2.4 0 0
2.48 0 0
2.56 0 0
2.64 0 0
2.72 0 0
2.8 0 0
2.88 0 0
2.96 0 0
3.04 0 0
3.12 0 0
3.2 0 0
3.28 0 0
3.36 0 0
3.44 0 0
3.52 0 0
3.6 0 0
3.68 0 0
3.76 0 0
3.84 0 0
3.92 0 0
4 0 0
4.08 0 0
4.16 0 0
4.24 0 0
4.32 0 0
4.4 0 0
4.48 0 0
4.56 0 0
4.64 0 0
4.72 0 0
4.8 0 0
4.88 0 0
4.96 0 0
5.04 0 0
5.12 0 0
5.2 0 0
5.28 0 0
5.36 0 0
5.44 0 0
5.52 0 0
5.6 0 0
5.68 0 0
5.76 0 0
5.84 0 0
5.92 0 0
6 0 0
6.08 0 0
6.16 0 0
6.24 0 0
6.32 0 0
6.4 0 0
6.48 0 0
6.56 0 0
6.64 0 0
6.72 0 0
6.8 0 0
6.88 0 0
6.96 0 0
7.04 0 0
7.12 0 0
7.2 0 0
7.28 0 0
7.36 0 0
7.44 0 0
7.52 0 0
7.6 0 0
7.68 0 0
7.76 0 0
7.84 0 0
7.92 0 0
8 0 0
8.08 0 0
8.16 0 0
8.24 0 0
8.32 0 0
8.4 0 0
8.48 0 0
8.56 0 0
8.64 0 0
8.72 0 0
8.8 0 0
8.88 0 0
8.96 0 0
9.04 0 0
9.12 0 0
9.2 0 0
9.28 0 0
9.36 0 0
9.44 0 0
9.52 0 0
9.6 0 0
9.68 0 0
9.76 0 0
9.84 0 0
9.92 0 0
10 0 0
10.08 0 0
10.16 0 0
10.24 0 0
10.32 0 0
10.4 0 0
10.48 0 0
10.56 0 0
10.64 0 0
10.72 0 0
10.8 0 0
10.88 0 0
10.96 0 0
11.04 0 0
11.12 0 0
11.2 0 0
11.28 0 0
11.36 0 0
11.44 0 0
11.52 0 0
11.6 0 0
11.68 0 0
11.76 0 0
11.84 0 0
11.92 0 0
12 0 0
12.08 0 0
12.16 0 0
12.24 0 0
12.32 0 0
12.4 0 0
12.48 0 0
12.56 0 0
12.64 0 0
12.72 0 0
12.8 0 0
12.88 0 0
12.96 0 0
13.04 0 0
13.12 0 0
13.2 0 0
13.28 0 0
13.36 0 0
13.44 0 0
13.52 0 0
13.6 0 0
13.68 0 0
13.76 0 0
13.84 0 0
13.92 0 0
14 0 0
14.08 0 0
14.16 0 0
14.24 0 0
14.32 0 0
14.4 0 0
14.48 0 0
14.56 0 0
14.64 0 0
14.72 0 0
14.8 0 0
14.88 0 0
14.96 0 0
15.04 0 0
15.12 0 0
15.2 0 0
15.28 0 0
15.36 0 0
15.44 0 0
15.52 0 0
15.6 0 0
15.68 0 0
15.76 0 0
15.84 0 0
15.92 0 0
16 0 0
16.08 0 0
16.16 0 0
16.24 0 0
16.32 0 0
16.4 0 0
16.48 0 0
16.56 0 0
16.64 0 0
16.72 0 0
16.8 0 0
16.88 0 0
16.96 0 0
17.04 0 0
17.12 0 0
17.2 0 0
17.28 0 0
17.36 0 0
17.44 0 0
17.52 0 0
17.6 0 0
17.68 0 0
17.76 0 0
17.84 0 0
17.92 0 0
18 0 0
18.08 0 0
18.16 0 0
18.24 0 0
18.32 0 0
18.4 0 0
18.48 0 0
18.56 0 0
18.64 0 0
18.72 0 0
18.8 0 0
18.88 0 0
18.96 0 0
19.04 0 0
19.12 0 0
19.2 0 0
19.28 0 0
19.36 0 0
19.44 0 0
19.52 0 0
19.6 0 0
19.68 0 0
19.76 0 0
19.84 0 0
19.92 0 0
20 0 0
20.08 0 0
20.16 0 0
20.24 0 0
20.32 0 0
20.4 0 0
20.48 0 0
20.56 0 0
20.64 0 0
20.72 0 0
20.8 0 0
20.88 0 0
20.96 0 0
21.04 0 0
21.12 0 0
21.2 0 0
21.28 0 0
21.36 0 0
21.44 0 0
21.52 0 0
21.6 0 0
21.68 0 0
21.76 0 0
21.84 0 0
21.92 0 0
22 0 0
22.08 0 0
22.16 0 0
22.24 0 0
22.32 0 0
22.4 0 0
22.48 0 0
22.56 0 0
22.64 0 0
22.72 0 0
22.8 0 0
22.88 0 0
22.96 0 0
23.04 0 0
23.12 0 0
23.2 0 0
23.28 0 0
23.36 0 0
23.44 0 0
23.52 0 0
23.6 0 0
23.68 0 0
23.76 0 0
23.84 0 0
23.92 0 0
24 0 0
24.08 0 0
24.16 0 0
24.24 0 0
24.32 0 0
24.4 0 0
24.48 0 0
24.56 0 0
24.64 0 0
24.72 0 0
24.8 0 0
24.88 0 0
24.96 0 0
25.04 0 0
25.12 0 0
25.2 0 0
25.28 0 0
25.36 0 0
25.44 0 0
25.52 0 0
25.6 0 0
25.68 0 0
25.76 0 0
25.84 0 0
25.92 0 0
26 0 0
26.08 0 0
26.16 0 0
26.24 0 0
26.32 0 0
26.4 0 0
26.48 0 0
26.56 0 0
26.64 0 0
26.72 0 0
26.8 0 0
26.88 0 0
26.96 0 0
27.04 0 0
27.12 0 0
27.2 0 0
27.28 0 0
27.36 0 0
27.44 0 0
27.52 0 0
27.6 0 0
27.68 0 0
27.76 0 0
27.84 0 0
27.92 0 0
28 0 0
28.08 0 0
28.16 0 0
28.24 0 0
28.32 0 0
28.4 0 0
28.48 0 0
28.56 0 0
28.64 0 0
28.72 0 0
28.8 0 0
28.88 0 0
28.96 0 0
29.04 0 0
29.12 0 0
29.2 0 0
29.28 0 0
29.36 0 0
29.44 0 0
29.52 0 0
29.6 0 0
29.68 0 0
29.76 0 0
29.84 0 0
29.92 0 0
30 0 0
30.08 0 0
30.16 0 0
30.24 0 0
30.32 0 0
30.4 0 0
30.48 0 0
30.56 0 0
30.64 0 0
30.72 0 0
30.8 0 0
30.88 0 0
30.96 0 0
31.04 0 0
31.12 0 0
31.2 0 0
31.28 0 0
31.36 0 0
31.44 0 0
31.52 0 0
31.6 0 0
31.68 0 0
31.76 0 0
31.84 0 0
31.92 0 0
0 0.005 0
0.08 0.005 0
0.16 0.005 0
0.24 0.005 0
0.32 0.005 0
0.4 0.005 0
0.48 0.005 0
0.56 0.005 0
0.64 0.005 0
0.72 0.005 0
0.8 0.005 0
0.88 0.005 0
0.96 0.005 0
1.04 0.005 0
1.12 0.005 0
1.2 0.005 0
1.28 0.005 0
1.36 0.005 0
1.44 0.005 0
1.52 0.005 0
1.6 0.005 0
1.68 0.005 0
1.76 0.005 0
1.84 0.005 0
1.92 0.005 0
2 0.005 0
2.08 0.005 0
2.16 0.005 0
2.24 0.005 0
2.32 0.005 0
2.4 0.005 0
2.48 0.005 0
2.56 0.005 0
2.64 0.005 0
2.72 0.005 0
2.8 0.005 0
2.88 0.005 0
2.96 0.005 0
3.04 0.005 0
3.12 0.005 0
3.2 0.005 0
3.28 0.005 0
3.36 0.005 0
3.44 0.005 0
3.52 0.005 0
3.6 0.005 0
3.68 0.005 0
3.76 0.005 0
3.84 0.005 0
3.92 0.005 0
4 0.005 0
4.08 0.005 0
4.16 0.005 0
4.24 0.005 0
4.32 0.005 0
4.4 0.005 0
4.48 0.005 0
4.56 0.005 0
4.64 0.005 0
4.72 0.005 0
4.8 0.005 0
4.88 0.005 0
4.96 0.005 0
5.04 0.005 0
5.12 0.005 0
5.2 0.005 0
5.28 0.005 0
5.36 0.005 0
5.44 0.005 0
5.52 0.005 0
5.6 0.005 0
5.68 0.005 0
5.76 0.005 0
5.84 0.005 0
5.92 0.005 0
6 0.005 0
6.08 0.005 0
6.16 0.005 0
6.24 0.005 0
6.32 0.005 0
6.4 0.005 0
6.48 0.005 0
6.56 0.005 0
6.64 0.005 0
6.72 0.005 0
6.8 0.005 0
6.88 0.005 0
6.96 0.005 0
7.04 0.005 0
7.12 0.005 0
7.2 0.005 0
7.28 0.005 0
7.36 0.005 0
7.44 0.005 0
7.52 0.005 0
7.6 0.005 0
7.68 0.005 0
7.76 0.005 0
7.84 0.005 0
7.92 0.005 0
8 0.005 0
8.08 0.005 0
8.16 0.005 0
8.24 0.005 0
8.32 0.005 0
8.4 0.005 0
8.48 0.005 0
8.56 0.005 0
8.64 0.005 0
8.72 0.005 0
8.8 0.005 0
8.88 0.005 0
8.96 0.005 0
9.04 0.005 0
9.12 0.005 0
9.2 0.005 0
9.28 0.005 0
9.36 0.005 0
9.44 0.005 0
9.52 0.005 0
9.6 0.005 0
9.68 0.005 0
9.76 0.005 0
9.84 0.005 0
9.92 0.005 0
10 0.005 0
10.08 0.005 0
10.16 0.005 0
10.24 0.005 0
10.32 0.005 0
10.4 0.005 0
10.48 0.005 0
10.56 0.005 0
10.64 0.005 0
10.72 0.005 0
10.8 0.005 0
10.88 0.005 0
10.96 0.005 0
11.04 0.005 0
11.12 0.005 0
11.2 0.005 0
11.28 0.005 0
11.36 0.005 0
11.44 0.005 0
11.52 0.005 0
11.6 0.005 0
11.68 0.005 0
11.76 0.005 0
11.84 0.005 0
11.92 0.005 0
12 0.005 0
12.08 0.005 0
12.16 0.005 0
12.24 0.005 0
12.32 0.005 0
12.4 0.005 0
12.48 0.005 0
12.56 0.005 0
12.64 0.005 0
12.72 0.005 0
12.8 0.005 0
12.88 0.005 0
12.96 0.005 0
13.04 0.005 0
13.12 0.005 0
13.2 0.005 0
13.28 0.005 0
13.36 0.005 0
13.44 0.005 0
13.52 0.005 0
13.6 0.005 0
13.68 0.005 0
13.76 0.005 0
13.84 0.005 0
13.92 0.005 0
14 0.005 0
14.08 0.005 0
14.16 0.005 0
14.24 0.005 0
14.32 0.005 0
14.4 0.005 0
14.48 0.005 0
14.56 0.005 0
14.64 0.005 0
14.72 0.005 0
14.8 0.005 0
14.88 0.005 0
14.96 0.005 0
15.04 0.005 0
15.12 0.005 0
15.2 0.005 0
15.28 0.005 0
15.36 0.005 0
15.44 0.005 0
15.52 0.005 0
15.6 0.005 0
15.68 0.005 0
15.76 0.005 0
15.84 0.005 0
15.92 0.005 0
16 0.005 0
16.08 0.005 0
16.16 0.005 0
16.24 0.005 0
16.32 0.005 0
16.4 0.005 0
16.48 0.005 0
16.56 0.005 0
16.64 0.005 0
16.72 0.005 0
16.8 0.005 0
16.88 0.005 0
16.96 0.005 0
17.04 0.005 0
17.12 0.005 0
17.2 0.005 0
17.28 0.005 0
17.36 0.005 0
17.44 0.005 0
17.52 0.005 0
17.6 0.005 0
17.68 0.005 0
17.76 0.005 0
17.84 0.005 0
17.92 0.005 0
18 0.005 0
18.08 0.005 0
18.16 0.005 0
18.24 0.005 0
18.32 0.005 0
18.4 0.005 0
18.48 0.005 0
18.56 0.005 0
18.64 0.005 0
18.72 0.005 0
18.8 0.005 0
18.88 0.005 0
18.96 0.005 0
19.04 0.005 0
19.12 0.005 0
19.2 0.005 0
19.28 0.005 0
19.36 0.005 0
19.44 0.005 0
19.52 0.005 0
19.6 0.005 0
19.68 0.005 0
19.76 0.005 0
19.84 0.005 0
19.92 0.005 0
20 0.005 0
20.08 0.005 0
20.16 0.005 0
20.24 0.005 0
20.32 0.005 0
20.4 0.005 0
20.48 0.005 0
20.56 0.005 0
20.64 0.005 0
20.72 0.005 0
20.8 0.005 0
20.88 0.005 0
20.96 0.005 0
21.04 0.005 0
21.12 0.005 0
21.2 0.005 0
21.28 0.005 0
21.36 0.005 0
21.44 0.005 0
21.52 0.005 0
21.6 0.005 0
21.68 0.005 0
21.76 0.005 0
21.84 0.005 0
21.92 0.005 0
22 0.005 0
22.08 0.005 0
22.16 0.005 0
22.24 0.005 0
22.32 0.005 0
22.4 0.005 0
22.48 0.005 0
22.56 0.005 0
22.64 0.005 0
22.72 0.005 0
22.8 0.005 0
22.88 0.005 0
22.96 0.005 0
23.04 0.005 0
23.12 0.005 0
23.2 0.005 0
23.28 0.005 0
23.36 0.005 0
23.44 0.005 0
23.52 0.005 0
23.6 0.005 0
23.68 0.005 0
23.76 0.005 0
23.84 0.005 0
23.92 0.005 0
24 0.005 0
24.08 0.005 0
24.16 0.005 0
24.24 0.005 0
24.32 0.005 0
24.4 0.005 0
24.48 0.005 0
24.56 0.005 0
24.64 0.005 0
24.72 0.005 0
24.8 0.005 0
24.88 0.005 0
24.96 0.005 0
25.04 0.005 0
25.12 0.005 0
25.2 0.005 0
25.28 0.005 0
25.36 0.005 0
25.44 0.005 0
25.52 0.005 0
25.6 0.005 0
25.68 0.005 0
25.76 0.005 0
25.84 0.005 0
25.92 0.005 0
26 0.005 0
26.08 0.005 0
26.16 0.005 0
26.24 0.005 0
26.32 0.005 0
26.4 0.005 0
26.48 0.005 0
26.56 0.005 0
26.64 0.005 0
26.72 0.005 0
26.8 0.005 0
26.88 0.005 0
26.96 0.005 0
27.04 0.005 0
27.12 0.005 0
27.2 0.005 0
27.28 0.005 0
27.36 0.005 0
27.44 0.005 0
27.52 0.005 0
27.6 0.005 0
27.68 0.005 0
27.76 0.005 0
27.84 0.005 0
27.92 0.005 0
28 0.005 0
28.08 0.005 0
28.16 0.005 0
28.24 0.005 0
28.32 0.005 0
28.4 0.005 0
28.48 0.005 0
28.56 0.005 0
28.64 0.005 0
28.72 0.005 0
28.8 0.005 0
28.88 0.005 0
28.96 0.005 0
29.04 0.005 0
29.12 0.005 0
29.2 0.005 0
29.28 0.005 0
29.36 0.005 0
29.44 0.005 0
29.52 0.005 0
29.6 0.005 0
29.68 0.005 0
29.76 0.005 0
29.84 0.005 0
29.92 0.005 0
30 0.005 0
30.08 0.005 0
30.16 0.005 0
30.24 0.005 0
30.32 0.005 0
30.4 0.005 0
30.48 0.005 0
30.56 0.005 0
30.64 0.005 0
30.72 0.005 0
30.8 0.005 0
30.88 0.005 0
30.96 0.005 0
31.04 0.005 0
31.12 0.005 0
31.2 0.005 0
31.28 0.005 0
31.36 0.005 0
31.44 0.005 0
31.52 0.005 0
31.6 0.005 0
31.68 0.005 0
31.76 0.005 0
31.84 0.005 0
31.92 0.005 0
0 0.01 0
0.08 0.01 0
0.16 0.01 0
0.24 0.01 0
0.32 0.01 0
0.4 0.01 0
0.48 0.01 0
0.56 0.01 0
0.64 0.01 0
0.72 0.01 0
0.8 0.01 0
0.88 0.01 0
0.96 0.01 0
1.04 0.01 0
1.12 0.01 0
1.2 0.01 0
1.28 0.01 0
1.36 0.01 0
1.44 0.01 0
1.52 0.01 0
1.6 0.01 0
1.68 0.01 0
1.76 0.01 0
1.84 0.01 0
1.92 0.01 0
2 0.01 0
2.08 0.01 0
2.16 0.01 0
2.24 0.01 0
2.32 0.01 0
2.4 0.01 0
2.48 0.01 0
2.56 0.01 0
2.64 0.01 0
2.72 0.01 0
2.8 0.01 0
2.88 0.01 0
2.96 0.01 0
3.04 0.01 0
3.12 0.01 0
3.2 0.01 0
3.28 0.01 0
3.36 0.01 0
3.44 0.01 0
3.52 0.01 0
3.6 0.01 0
3.68 0.01 0
3.76 0.01 0
3.84 0.01 0
3.92 0.01 0
4 0.01 0
4.08 0.01 0
4.16 0.01 0
4.24 0.01 0
4.32 0.01 0
4.4 0.01 0
4.48 0.01 0
4.56 0.01 0
4.64 0.01 0
4.72 0.01 0
4.8 0.01 0
4.88 0.01 0
4.96 0.01 0
5.04 0.01 0
5.12 0.01 0
[...]
POINT_DATA 80000

SCALARS p float 1
LOOKUP_TABLE default
1
57.1056
56.8037
56.7624
56.7422
56.7277
56.7156
56.7048
56.6948
56.6853
56.6762
56.6676
56.6596
56.6522
56.6454
56.6389
56.6326
56.6265
56.6205
56.6147
56.6089
56.6033
56.5977
56.5922
56.5866
56.5811
56.5755
56.57
56.5644
56.5589
56.5533
56.5478
56.5422
56.5367
56.5312
56.5257
56.5202
56.5147
56.5092
56.5038
56.4983
56.4928
56.4874
56.482
56.4766
56.4712
56.4658
56.4604
56.455
56.4496
56.4443
56.4389
56.4336
56.4283
56.4229
56.4176
56.4123
56.407
56.4018
56.3965
56.3913
56.386
56.3808
56.3756
56.3703
56.3651
56.3599
56.3548
56.3496
56.3444
56.3393
56.3342
56.329
56.3239
56.3188
56.3137
56.3086
56.3036
56.2985
56.2935
56.2884
56.2834
56.2784
56.2734
56.2684
56.2634
56.2584
56.2535
56.2485
56.2436
56.2387
56.2338
56.2289
56.224
56.2191
56.2142
56.2094
56.2046
56.1997
56.1949
56.1901
56.1853
56.1806
56.1758
56.171
56.1663
56.1616
56.1569
56.1522
56.1475
56.1428
56.1382
56.1335
56.1289
56.1243
56.1197
56.1151
56.1105
56.106
56.1014
56.0969
56.0924
56.0879
56.0834
56.0789
56.0744
56.07
56.0656
56.0612
56.0568
56.0524
56.048
56.0437
56.0393
56.035
56.0307
56.0264
56.0222
56.0179
56.0137
56.0095
56.0053
56.0011
55.9969
55.9928
55.9886
55.9845
55.9804
55.9763
55.9723
55.9683
55.9642
55.9602
55.9563
55.9523
55.9484
55.9444
55.9405
55.9366
55.9328
55.9289
55.9251
55.9213
55.9176
55.9138
55.9101
55.9064
55.9027
55.899
55.8954
55.8918
55.8882
55.8846
55.8811
55.8776
55.8741
55.8706
55.8672
55.8637
55.8604
55.857
55.8537
55.8504
55.8471
55.8438
55.8406
55.8374
55.8343
55.8311
55.828
55.825
55.8219
55.8189
55.816
55.813
55.8101
55.8073
55.8044
55.8016
55.7989
55.7961
55.7935
55.7908
55.7882
55.7856
55.7831
55.7806
55.7782
55.7758
55.7734
55.7711
55.7688
55.7666
55.7645
55.7623
55.7603
55.7582
55.7563
55.7544
55.7525
55.7507
55.7489
55.7473
55.7456
55.7441
55.7426
55.7411
55.7398
55.7385
55.7372
55.7361
55.735
55.734
55.7331
55.7323
55.7315
55.7309
55.7303
55.7299
55.7295
55.7292
55.7291
55.7291
55.7291
55.7293
55.7296
55.7301
55.7307
55.7314
55.7323
55.7333
55.7345
55.7359
55.7374
55.7391
55.741
55.7431
55.7454
55.748
55.7507
55.7537
55.757
55.7605
55.7642
55.7683
55.7727
55.7773
55.7823
55.7877
55.7933
55.7994
55.8058
55.8127
55.8199
55.8276
55.8358
55.8444
55.8535
55.8632
55.8733
55.884
55.8953
55.9072
55.9197
55.9328
55.9466
55.9611
55.9762
55.9921
56.0087
56.0261
56.0443
56.0633
56.0831
56.1037
56.1253
56.1477
56.171
56.1952
56.2203
56.2464
56.2735
56.3015
56.3306
56.3606
56.3916
56.4236
56.4567
56.4907
56.5258
56.5619
56.599
56.6372
56.6763
56.7164
56.7575
56.7995
56.8426
56.8865
56.9313
56.9771
57.0237
57.0711
57.1193
57.1683
57.2181
57.2685
57.3196
57.3713
57.4236
57.4764
57.5296
57.5833
57.6374
57.6919
57.7465
57.8015
57.8565
57.9117
57.967
58.0222
58.0774
58.1325
58.1874
58.242
58.2964
58.3504
58.404
58.4572
58.5098
58.5619
58.6134
58.6642
58.7143
58.7637
58.8122
58.8599
58.9067
58.9526
58.9975
59.0414
59.0843
59.1261
59.1669
59.2065
59.245
59.2824
59.3186
59.3536
59.3875
59.4202
59.4516
59.4819
59.5109
59.5388
59.5654
59.5909
59.6152
59.6383
59.6602
59.681
59.7007
59.7193
59.7367
59.7531
59.7685
59.7828
59.7962
59.8086
59.82
59.8305
59.8402
59.8489
59.8569
59.864
59.8704
59.876
59.881
59.8855
0.5
57.1056
57.1056
56.8037
56.7624
56.7422
56.7277
56.7156
56.7048
56.6948
56.6853
56.6762
56.6676
56.6596
56.6522
56.6454
56.6389
56.6326
56.6265
56.6205
56.6147
56.6089
56.6033
56.5977
56.5922
56.5866
56.5811
56.5755
56.57
56.5644
56.5589
56.5533
56.5478
56.5422
56.5367
56.5312
56.5257
56.5202
56.5147
56.5092
56.5038
56.4983
56.4928
56.4874
56.482
56.4766
56.4712
56.4658
56.4604
56.455
56.4496
56.4443
56.4389
56.4336
56.4283
56.4229
56.4176
56.4123
56.407
56.4018
56.3965
56.3913
56.386
56.3808
56.3756
56.3703
56.3651
56.3599
56.3548
56.3496
56.3444
56.3393
56.3342
56.329
56.3239
56.3188
56.3137
56.3086
56.3036
56.2985
56.2935
56.2884
56.2834
56.2784
56.2734
56.2684
56.2634
56.2584
56.2535
56.2485
56.2436
56.2387
56.2338
56.2289
56.224
56.2191
56.2142
56.2094
56.2046
56.1997
56.1949
56.1901
56.1853
56.1806
56.1758
56.171
56.1663
56.1616
56.1569
56.1522
56.1475
56.1428
56.1382
56.1335
56.1289
56.1243
56.1197
56.1151
56.1105
56.106
56.1014
56.0969
56.0924
56.0879
56.0834
56.0789
56.0744
56.07
56.0656
56.0612
56.0568
56.0524
56.048
56.0437
56.0393
56.035
56.0307
56.0264
56.0222
56.0179
56.0137
56.0095
56.0053
56.0011
55.9969
55.9928
55.9886
55.9845
55.9804
55.9763
55.9723
55.9683
55.9642
55.9602
55.9563
55.9523
55.9484
55.9444
55.9405
55.9366
55.9328
55.9289
55.9251
55.9213
55.9176
55.9138
55.9101
55.9064
55.9027
55.899
55.8954
55.8918
55.8882
55.8846
55.8811
55.8776
55.8741
55.8706
55.8672
55.8637
55.8604
55.857
55.8537
55.8504
55.8471
55.8438
55.8406
55.8374
55.8343
55.8311
55.828
55.825
55.8219
55.8189
55.816
55.813
55.8101
55.8073
55.8044
55.8016
55.7989
55.7961
55.7935
55.7908
55.7882
55.7856
55.7831
55.7806
55.7782
55.7758
55.7734
55.7711
55.7688
55.7666
55.7645
55.7623
55.7603
55.7582
55.7563
55.7544
55.7525
55.7507
55.7489
55.7473
55.7456
55.7441
55.7426
55.7411
55.7398
55.7385
55.7372
55.7361
55.735
55.734
55.7331
55.7323
55.7315
55.7309
55.7303
55.7299
55.7295
55.7292
55.7291
55.7291
55.7291
55.7293
55.7296
55.7301
55.7307
55.7314
55.7323
55.7333
55.7345
55.7359
55.7374
55.7391
55.741
55.7431
55.7454
55.748
55.7507
55.7537
55.757
55.7605
55.7642
55.7683
55.7727
55.7773
55.7823
55.7877
55.7933
55.7994
55.8058
55.8127
55.8199
55.8276
55.8358
55.8444
55.8535
55.8632
55.8733
55.884
55.8953
55.9072
55.9197
55.9328
55.9466
55.9611
55.9762
55.9921
56.0087
56.0261
56.0443
56.0633
56.0831
56.1037
56.1253
56.1477
56.171
56.1952
56.2203
56.2464
56.2735
56.3015
56.3306
56.3606
56.3916
56.4236
56.4567
56.4907
56.5258
56.5619
56.599
56.6372
56.6763
56.7164
56.7575
56.7995
56.8426
56.8865
56.9313
56.9771
57.0237
57.0711
57.1193
57.1683
57.2181
57.2685
57.3196
57.3713
57.4236
57.4764
57.5296
57.5833
57.6374
57.6919
57.7465
57.8015
57.8565
57.9117
57.967
58.0222
58.0774
58.1325
58.1874
58.242
58.2964
58.3504
58.404
58.4572
58.5098
58.5619
58.6134
58.6642
58.7143
58.7637
58.8122
58.8599
58.9067
58.9526
58.9975
59.0414
59.0843
59.1261
59.1669
59.2065
59.245
59.2824
59.3186
59.3536
59.3875
59.4202
59.4516
59.4819
59.5109
59.5388
59.5654
59.5909
59.6152
59.6383
59.6602
59.681
59.7007
59.7193
59.7367
59.7531
59.7685
59.7828
59.7962
59.8086
59.82
59.8305
59.8402
59.8489
59.8569
59.864
59.8704
59.876
59.881
59.8855
59.8855
57.091
57.091
56.8075
56.7637
56.7429
56.7281
56.7159
56.705
56.6949
56.6854
56.6763
56.6676
56.6596
56.6522
56.6454
56.6389
56.6326
56.6265
56.6205
56.6147
56.6089
56.6033
56.5977
56.5922
56.5866
56.5811
56.5755
56.57
56.5644
56.5589
56.5533
56.5478
56.5422
56.5367
56.5312
56.5257
56.5202
56.5147
56.5092
56.5037
56.4983
56.4928
56.4874
56.482
56.4766
56.4711
56.4657
56.4604
56.455
56.4496
56.4443
56.4389
56.4336
56.4282
56.4229
56.4176
56.4123
56.407
56.4018
56.3965
56.3913
56.386
56.3808
56.3755
56.3703
56.3651
56.3599
56.3548
56.3496
56.3444
56.3393
56.3342
56.329
56.3239
56.3188
56.3137
56.3086
56.3036
56.2985
56.2934
56.2884
56.2834
56.2784
56.2734
56.2684
56.2634
56.2584
56.2535
56.2485
56.2436
56.2387
56.2338
56.2289
56.224
56.2191
56.2142
56.2094
56.2045
56.1997
56.1949
56.1901
56.1853
56.1806
56.1758
56.171
56.1663
56.1616
56.1569
56.1522
56.1475
56.1428
56.1382
56.1335
56.1289
56.1243
56.1197
56.1151
56.1105
56.106
56.1014
56.0969
56.0924
56.0879
56.0834
56.0789
56.0744
56.07
56.0656
56.0612
56.0568
56.0524
56.048
56.0437
56.0393
56.035
56.0307
56.0264
56.0222
56.0179
56.0137
56.0095
56.0053
56.0011
55.9969
55.9928
55.9886
55.9845
55.9804
55.9763
55.9723
55.9682
55.9642
55.9602
55.9562
55.9523
55.9483
55.9444
55.9405
55.9366
55.9328
55.9289
55.9251
55.9213
55.9176
55.9138
55.9101
55.9064
55.9027
55.899
55.8954
55.8918
55.8882
55.8846
55.8811
55.8775
55.8741
55.8706
55.8671
55.8637
55.8603
55.857
55.8537
55.8504
55.8471
55.8438
55.8406
55.8374
55.8343
55.8311
55.828
55.825
55.8219
55.8189
55.816
55.813
55.8101
55.8072
55.8044
55.8016
55.7989
55.7961
55.7934
55.7908
55.7882
55.7856
55.7831
55.7806
55.7782
55.7758
55.7734
55.7711
55.7688
55.7666
55.7644
55.7623
55.7602
55.7582
55.7563
55.7543
55.7525
55.7507
55.7489
55.7472
55.7456
55.7441
55.7426
55.7411
55.7398
55.7385
55.7372
55.7361
55.735
55.734
55.7331
55.7323
55.7315
55.7309
55.7303
55.7299
55.7295
55.7292
55.7291
55.729
55.7291
55.7293
55.7296
55.7301
55.7307
55.7314
55.7323
55.7333
55.7345
55.7359
55.7374
55.7391
55.741
55.7431
55.7454
55.748
55.7507
55.7537
55.7569
55.7605
55.7642
55.7683
55.7726
55.7773
55.7823
55.7876
55.7933
55.7994
55.8058
55.8127
55.8199
55.8276
55.8358
55.8444
55.8535
55.8631
55.8733
55.884
55.8953
55.9072
55.9197
55.9328
55.9466
55.961
55.9762
55.9921
56.0087
56.0261
56.0443
56.0633
56.0831
56.1037
56.1252
56.1476
56.1709
56.1952
56.2203
56.2464
56.2735
56.3015
56.3305
56.3605
56.3916
56.4236
56.4566
56.4907
56.5258
56.5619
56.599
56.6371
56.6762
56.7163
56.7574
56.7995
56.8425
56.8864
56.9313
56.977
57.0236
57.071
57.1193
57.1683
57.218
57.2684
57.3195
57.3712
57.4235
57.4763
57.5295
57.5832
57.6373
57.6917
57.7464
57.8014
57.8564
57.9116
57.9669
58.0221
58.0773
58.1324
58.1872
58.2419
58.2963
58.3503
58.4039
58.4571
58.5097
58.5618
58.6133
58.6641
58.7142
58.7636
58.8121
58.8598
58.9066
58.9525
58.9974
59.0413
59.0842
59.126
59.1668
59.2064
59.2449
59.2823
59.3185
59.3536
59.3874
59.4201
59.4515
59.4818
59.5108
59.5387
59.5653
59.5908
59.6151
59.6382
59.6601
59.681
59.7006
59.7192
59.7367
59.7531
59.7685
59.7828
59.7961
59.8085
59.82
59.8305
59.8401
59.8489
59.8568
59.864
59.8704
59.876
59.881
59.8854
59.8854
57.075
57.075
56.8107
56.7649
56.7435
56.7285
56.7161
56.7052
56.695
56.6855
56.6763
56.6677
56.6597
56.6523
56.6454
56.6389
56.6326
56.6265
56.6205
56.6147
56.6089
56.6033
56.5977
56.5922
56.5866
56.5811
56.5755
56.57
56.5644
56.5589
56.5533
56.5478
56.5422
56.5367
56.5312
56.5257
56.5202
56.5147
56.5092
56.5037
56.4983
56.4928
56.4874
56.482
56.4766
56.4711
56.4657
56.4604
56.455
56.4496
56.4443
56.4389
56.4336
56.4282
56.4229
56.4176
56.4123
56.407
56.4018
56.3965
56.3913
56.386
56.3808
56.3755
56.3703
56.3651
56.3599
56.3548
56.3496
56.3444
56.3393
56.3342
56.329
56.3239
56.3188
56.3137
56.3086
56.3036
56.2985
56.2934
56.2884
56.2834
56.2784
56.2734
56.2684
56.2634
56.2584
56.2535
56.2485
56.2436
56.2387
56.2338
56.2289
56.224
56.2191
56.2142
56.2094
56.2046
56.1997
56.1949
56.1901
56.1853
56.1806
56.1758
56.171
56.1663
56.1616
56.1569
56.1522
56.1475
56.1428
56.1382
56.1335
56.1289
56.1243
56.1197
56.1151
56.1105
56.106
56.1014
56.0969
56.0924
56.0879
56.0834
56.0789
56.0744
56.07
56.0656
56.0612
56.0568
56.0524
56.048
56.0437
56.0393
56.035
56.0307
56.0264
56.0222
56.0179
56.0137
56.0095
56.0053
56.0011
55.9969
55.9928
55.9886
55.9845
55.9804
55.9763
55.9723
55.9682
55.9642
55.9602
55.9562
55.9523
55.9483
55.9444
55.9405
55.9366
55.9328
55.9289
55.9251
55.9213
55.9176
55.9138
55.9101
55.9064
55.9027
55.899
55.8954
55.8918
55.8882
55.8846
55.8811
55.8775
55.8741
55.8706
55.8672
55.8637
55.8603
55.857
55.8537
55.8504
55.8471
55.8438
55.8406
55.8374
55.8343
55.8311
55.828
55.825
55.8219
55.8189
55.816
55.813
55.8101
55.8072
55.8044
55.8016
55.7989
55.7961
55.7934
55.7908
55.7882
55.7856
55.7831
55.7806
55.7782
55.7758
55.7734
55.7711
55.7688
55.7666
55.7644
55.7623
55.7603
55.7582
55.7563
55.7543
55.7525
55.7507
55.7489
55.7473
55.7456
55.7441
55.7426
55.7411
55.7398
55.7385
55.7372
55.7361
55.735
55.734
55.7331
55.7323
55.7315
55.7309
55.7303
55.7299
55.7295
55.7292
55.7291
55.729
55.7291
55.7293
55.7296
55.7301
55.7307
55.7314
55.7323
55.7333
55.7345
55.7359
55.7374
55.7391
55.741
55.7431
55.7454
55.748
55.7507
55.7537
55.757
55.7605
55.7642
55.7683
55.7727
55.7773
55.7823
55.7876
55.7933
55.7994
55.8058
55.8127
55.8199
55.8276
55.8358
55.8444
55.8535
55.8632
55.8733
55.884
55.8953
55.9072
55.9197
55.9328
55.9466
55.9611
55.9762
55.9921
56.0087
56.0261
56.0443
56.0633
56.0831
56.1037
56.1252
56.1476
56.1709
56.1952
56.2203
56.2464
56.2735
56.3015
56.3305
56.3605
56.3916
56.4236
56.4566
56.4907
56.5258
56.5619
56.599
56.6371
56.6762
56.7163
56.7574
56.7995
56.8425
56.8864
56.9313
56.977
57.0236
57.071
57.1193
57.1683
57.218
57.2684
57.3195
57.3712
57.4235
57.4763
57.5295
57.5832
57.6373
57.6917
57.7464
57.8013
57.8564
57.9116
57.9669
58.0221
58.0773
58.1323
58.1872
58.2419
58.2963
58.3503
58.4039
58.4571
58.5097
58.5618
58.6133
58.6641
58.7142
58.7635
58.8121
58.8598
58.9066
58.9524
58.9973
59.0413
59.0842
59.126
59.1667
59.2064
59.2449
59.2823
59.3185
59.3535
59.3874
59.42
59.4515
59.4818
59.5108
59.5387
59.5653
59.5908
59.6151
59.6382
59.6601
59.6809
59.7006
59.7192
59.7367
59.7531
59.7684
59.7828
59.7961
59.8085
59.8199
59.8305
59.8401
59.8489
59.8568
59.864
59.8703
59.876
59.8809
59.8854
59.8854
57.0591
57.0591
56.8136
56.766
56.7441
56.7289
56.7164
56.7054
56.6952
56.6856
56.6764
56.6678
56.6597
56.6523
56.6454
56.6389
56.6326
56.6265
56.6205
56.6147
56.6089
56.6033
56.5977
56.5922
56.5866
56.5811
56.5755
56.57
56.5644
56.5589
56.5533
56.5478
56.5422
56.5367
56.5312
56.5257
56.5202
56.5147
56.5092
56.5037
56.4983
56.4928
56.4874
56.482
56.4766
56.4711
56.4658
56.4604
56.455
56.4496
56.4443
56.4389
56.4336
56.4282
56.4229
56.4176
56.4123
56.407
56.4018
56.3965
56.3913
56.386
56.3808
56.3756
56.3703
56.3651
56.3599
56.3548
56.3496
56.3444
56.3393
56.3342
56.329
56.3239
56.3188
56.3137
56.3086
56.3036
56.2985
56.2934
56.2884
56.2834
56.2784
56.2734
56.2684
56.2634
56.2584
56.2535
56.2485
56.2436
56.2387
56.2338
56.2289
56.224
56.2191
56.2142
56.2094
56.2046
56.1997
56.1949
56.1901
56.1853
56.1806
56.1758
56.171
56.1663
56.1616
56.1569
56.1522
56.1475
56.1428
56.1382
56.1335
56.1289
56.1243
56.1197
56.1151
56.1105
56.106
56.1014
56.0969
56.0924
56.0879
56.0834
56.0789
56.0744
56.07
56.0656
56.0612
56.0568
56.0524
56.048
56.0437
56.0393
56.035
56.0307
56.0264
56.0222
56.0179
56.0137
56.0095
56.0053
56.0011
55.9969
55.9928
55.9886
55.9845
55.9804
55.9763
55.9723
55.9682
55.9642
55.9602
55.9562
55.9523
55.9483
55.9444
55.9405
55.9366
55.9328
55.9289
55.9251
55.9213
55.9176
55.9138
55.9101
55.9064
55.9027
55.899
55.8954
55.8918
55.8882
55.8846
55.8811
55.8775
55.8741
55.8706
55.8672
55.8637
55.8603
55.857
55.8537
55.8504
55.8471
55.8438
55.8406
55.8374
55.8343
55.8311
55.828
55.825
55.8219
55.8189
55.816
55.813
55.8101
55.8072
55.8044
55.8016
55.7989
55.7961
55.7935
55.7908
55.7882
55.7856
55.7831
55.7806
55.7782
55.7758
55.7734
55.7711
55.7688
55.7666
55.7644
55.7623
55.7603
55.7582
55.7563
55.7543
55.7525
55.7507
55.7489
55.7473
55.7456
55.7441
55.7426
55.7411
55.7398
55.7385
55.7372
55.7361
55.735
55.734
55.7331
55.7323
55.7315
55.7309
55.7303
55.7299
55.7295
55.7292
55.7291
55.729
55.7291
55.7293
55.7296
55.7301
55.7307
55.7314
55.7323
55.7333
55.7345
55.7359
55.7374
55.7391
55.741
55.7431
55.7454
55.748
55.7507
55.7537
55.757
55.7605
55.7642
55.7683
55.7727
55.7773
55.7823
55.7877
55.7933
55.7994
55.8058
55.8127
55.8199
55.8276
55.8358
55.8444
55.8535
55.8632
55.8733
55.884
55.8953
55.9072
55.9197
55.9328
55.9466
55.9611
55.9762
55.9921
56.0087
56.0261
56.0443
56.0633
56.0831
56.1037
56.1253
56.1477
56.171
56.1952
56.2203
56.2464
56.2735
56.3015
56.3305
56.3606
56.3916
56.4236
56.4567
56.4907
56.5258
56.5619
56.599
56.6371
56.6762
56.7163
56.7574
56.7995
56.8425
56.8864
56.9313
56.977
57.0236
57.071
57.1193
57.1683
57.218
57.2684
57.3195
57.3712
57.4235
57.4763
57.5295
57.5832
57.6373
57.6917
57.7464
57.8013
57.8564
57.9116
57.9668
58.0221
58.0773
58.1323
58.1872
58.2419
58.2962
58.3503
58.4039
58.457
58.5097
58.5618
58.6133
58.6641
58.7142
58.7635
58.812
58.8597
58.9065
58.9524
58.9973
59.0412
59.0841
59.126
59.1667
59.2064
59.2449
59.2823
59.3185
59.3535
59.3874
59.42
59.4515
59.4817
59.5108
59.5386
59.5653
59.5908
59.615
59.6382
59.6601
59.6809
59.7006
59.7192
59.7366
59.7531
59.7684
59.7828
59.7961
59.8085
59.8199
59.8304
59.8401
59.8488
59.8568
59.8639
59.8703
59.876
59.8809
59.8854
59.8854
57.044
57.044
56.8163
56.7671
56.7447
56.7292
56.7166
56.7055
56.6953
56.6857
56.6765
56.6678
56.6598
56.6523
56.6455
56.6389
56.6327
56.6265
56.6205
56.6147
56.6089
56.6033
56.5977
56.5922
56.5866
56.5811
56.5755
56.57
56.5644
56.5589
56.5533
56.5478
56.5422
56.5367
56.5312
56.5257
56.5202
56.5147
56.5092
56.5037
56.4983
56.4928
56.4874
56.482
56.4766
56.4711
56.4658
56.4604
56.455
56.4496
56.4443
56.4389
56.4336
56.4282
56.4229
56.4176
56.4123
56.407
56.4018
56.3965
56.3913
56.386
56.3808
56.3756
56.3703
56.3651
56.3599
56.3548
56.3496
56.3444
56.3393
56.3342
56.329
56.3239
56.3188
56.3137
56.3086
56.3036
56.2985
56.2934
56.2884
56.2834
56.2784
56.2734
56.2684
56.2634
56.2584
56.2535
56.2485
56.2436
56.2387
56.2338
56.2289
56.224
56.2191
56.2142
56.2094
56.2046
56.1997
56.1949
56.1901
56.1853
56.1806
56.1758
56.171
56.1663
56.1616
56.1569
56.1522
56.1475
56.1428
56.1382
56.1335
56.1289
56.1243
56.1197
56.1151
56.1105
56.106
56.1014
56.0969
56.0924
56.0879
56.0834
56.0789
56.0744
56.07
56.0656
56.0612
56.0568
56.0524
56.048
56.0437
56.0393
56.035
56.0307
56.0264
56.0222
56.0179
56.0137
56.0095
56.0053
56.0011
55.9969
55.9928
55.9886
55.9845
55.9804
55.9763
55.9723
55.9682
55.9642
55.9602
55.9562
55.9523
55.9483
55.9444
55.9405
55.9366
55.9328
55.9289
55.9251
55.9213
55.9176
55.9138
55.9101
55.9064
55.9027
55.899
55.8954
55.8918
55.8882
55.8846
55.8811
55.8776
55.8741
55.8706
55.8672
55.8637
55.8604
55.857
55.8537
55.8504
55.8471
55.8438
55.8406
55.8374
55.8343
55.8311
55.828
55.825
55.8219
55.8189
55.816
55.813
55.8101
55.8073
55.8044
55.8016
55.7989
55.7961
55.7935
55.7908
55.7882
55.7856
55.7831
55.7806
55.7782
55.7758
55.7734
55.7711
55.7688
55.7666
55.7644
55.7623
55.7603
55.7582
55.7563
55.7543
55.7525
55.7507
55.7489
55.7473
55.7456
55.7441
55.7426
55.7411
55.7398
55.7385
55.7372
55.7361
55.735
55.734
55.7331
55.7323
55.7315
55.7309
55.7303
55.7299
55.7295
55.7292
55.7291
55.7291
55.7291
55.7293
55.7296
55.7301
55.7307
55.7314
55.7323
55.7333
55.7345
55.7359
55.7374
55.7391
55.741
55.7431
55.7454
55.748
55.7507
55.7537
55.757
55.7605
55.7642
55.7683
55.7727
55.7773
55.7823
55.7877
55.7933
55.7994
55.8058
55.8127
55.8199
55.8276
55.8358
55.8444
55.8535
55.8632
55.8733
55.884
55.8953
55.9072
55.9197
55.9328
55.9466
55.9611
55.9762
55.9921
56.0087
56.0261
56.0443
56.0633
56.0831
56.1037
56.1253
56.1477
56.171
56.1952
56.2203
56.2464
56.2735
56.3015
56.3306
56.3606
56.3916
56.4236
56.4567
56.4907
56.5258
56.5619
56.599
56.6371
56.6762
56.7163
56.7574
56.7995
56.8425
56.8864
56.9313
56.977
57.0236
57.071
57.1193
57.1683
57.218
57.2684
57.3195
57.3712
57.4235
57.4763
57.5295
57.5832
57.6373
57.6917
57.7464
57.8013
57.8564
57.9116
57.9668
58.0221
58.0773
58.1323
58.1872
58.2419
58.2962
58.3502
58.4039
58.457
58.5097
58.5618
58.6132
58.6641
58.7141
58.7635
58.812
58.8597
58.9065
58.9524
58.9973
59.0412
59.0841
59.1259
59.1667
59.2063
59.2449
59.2822
59.3185
59.3535
59.3873
59.42
59.4515
59.4817
59.5108
59.5386
59.5653
59.5907
59.615
59.6381
59.6601
59.6809
59.7006
59.7191
59.7366
59.753
59.7684
59.7827
59.7961
59.8085
59.8199
59.8304
59.8401
59.8488
59.8568
59.8639
59.8703
59.876
59.8809
59.8854
59.8854
57.03
57.03
56.8189
56.7682
56.7453
56.7296
56.7169
56.7057
56.6955
56.6858
56.6766
56.6679
56.6598
56.6524
56.6455
56.639
56.6327
56.6265
56.6205
56.6147
56.6089
56.6033
56.5977
56.5922
56.5866
56.5811
56.5755
56.57
56.5644
56.5589
56.5533
56.5478
56.5422
56.5367
56.5312
56.5257
56.5202
56.5147
56.5092
56.5037
56.4983
56.4928
56.4874
56.482
56.4766
56.4711
56.4658
56.4604
56.455
56.4496
56.4443
56.4389
56.4336
56.4282
56.4229
56.4176
56.4123
56.407
56.4018
56.3965
56.3913
56.386
56.3808
56.3756
56.3703
56.3651
56.3599
56.3548
56.3496
56.3444
56.3393
56.3342
56.329
56.3239
56.3188
56.3137
56.3086
56.3036
56.2985
56.2934
56.2884
56.2834
56.2784
56.2734
56.2684
56.2634
56.2584
56.2535
56.2485
56.2436
56.2387
56.2338
56.2289
56.224
56.2191
56.2142
56.2094
56.2046
56.1997
56.1949
56.1901
56.1853
56.1806
56.1758
56.171
56.1663
56.1616
56.1569
56.1522
56.1475
56.1428
56.1382
56.1335
56.1289
56.1243
56.1197
56.1151
56.1105
56.106
56.1014
56.0969
56.0924
56.0879
56.0834
56.0789