# vtk DataFile Version 2.0
FlowField
ASCII
DATASET STRUCTURED_GRID
DIMENSIONS 400 1 200
POINTS 80000 float
0 0 0
0.08 0 0
0.16 0 0
0.24 0 0
0.32 0 0
0.4 0 0
0.48 0 0
0.56 0 0
0.64 0 0
0.72 0 0
0.8 0 0
0.88 0 0
0.96 0 0
1.04 0 0
1.12 0 0
1.2 0 0
1.28 0 0
1.36 0 0
1.44 0 0
1.52 0 0
1.6 0 0
1.68 0 0
1.76 0 0
1.84 0 0
1.92 0 0
2 0 0
2.08 0 0
2.16 0 0
2.24 0 0
2.32 0 0
2.4 0 0
2.48 0 0
2.56 0 0
2.64 0 0
2.72 0 0
2.8 0 0
2.88 0 0
2.96 0 0
3.04 0 0
3.12 0 0
3.2 0 0
3.28 0 0
3.36 0 0
3.44 0 0
3.52 0 0
3.6 0 0
3.68 0 0
3.76 0 0
3.84 0 0
3.92 0 0
4 0 0
4.08 0 0
4.16 0 0
4.24 0 0
4.32 0 0
4.4 0 0
4.48 0 0
4.56 0 0
4.64 0 0
4.72 0 0
4.8 0 0
4.88 0 0
4.96 0 0
5.04 0 0
5.12 0 0
5.2 0 0
5.28 0 0
5.36 0 0
5.44 0 0
5.52 0 0
5.6 0 0
5.68 0 0
5.76 0 0
5.84 0 0
5.92 0 0
6 0 0
6.08 0 0
6.16 0 0
6.24 0 0
6.32 0 0
6.4 0 0
6.48 0 0
6.56 0 0
6.64 0 0
6.72 0 0
6.8 0 0
6.88 0 0
6.96 0 0
7.04 0 0
7.12 0 0
7.2 0 0
7.28 0 0
7.36 0 0
7.44 0 0
7.52 0 0
7.6 0 0
7.68 0 0
7.76 0 0
7.84 0 0
7.92 0 0
8 0 0
8.08 0 0
8.16 0 0
8.24 0 0
8.32 0 0
8.4 0 0
8.48 0 0
8.56 0 0
8.64 0 0
8.72 0 0
8.8 0 0
8.88 0 0
8.96 0 0
9.04 0 0
9.12 0 0
9.2 0 0
9.28 0 0
9.36 0 0
9.44 0 0
9.52 0 0
9.6 0 0
9.68 0 0
9.76 0 0
9.84 0 0
9.92 0 0
10 0 0
10.08 0 0
10.16 0 0
10.24 0 0
10.32 0 0
10.4 0 0
10.48 0 0
10.56 0 0
10.64 0 0
10.72 0 0
10.8 0 0
10.88 0 0
10.96 0 0
11.04 0 0
11.12 0 0
11.2 0 0
11.28 0 0
11.36 0 0
11.44 0 0
11.52 0 0
11.6 0 0
11.68 0 0
11.76 0 0
11.84 0 0
11.92 0 0
12 0 0
12.08 0 0
12.16 0 0
12.24 0 0
12.32 0 0
12.4 0 0
12.48 0 0
12.56 0 0
12.64 0 0
12.72 0 0
12.8 0 0
12.88 0 0
12.96 0 0
13.04 0 0
13.12 0 0
13.2 0 0
13.28 0 0
13.36 0 0
13.44 0 0
13.52 0 0
13.6 0 0
13.68 0 0
13.76 0 0
13.84 0 0
13.92 0 0
14 0 0
14.08 0 0
14.16 0 0
14.24 0 0
14.32 0 0
14.4 0 0
14.48 0 0
14.56 0 0
14.64 0 0
14.72 0 0
14.8 0 0
14.88 0 0
14.96 0 0
15.04 0 0
15.12 0 0
15.2 0 0
15.28 0 0
15.36 0 0
15.44 0 0
15.52 0 0
15.6 0 0
15.68 0 0
15.76 0 0
15.84 0 0
15.92 0 0
16 0 0
16.08 0 0
16.16 0 0
16.24 0 0
16.32 0 0
16.4 0 0
16.48 0 0
16.56 0 0
16.64 0 0
16.72 0 0
16.8 0 0
16.88 0 0
16.96 0 0
17.04 0 0
17.12 0 0
17.2 0 0
17.28 0 0
17.36 0 0
17.44 0 0
17.52 0 0
17.6 0 0
17.68 0 0
17.76 0 0
17.84 0 0
17.92 0 0
18 0 0
18.08 0 0
18.16 0 0
18.24 0 0
18.32 0 0
18.4 0 0
18.48 0 0
18.56 0 0
18.64 0 0
18.72 0 0
18.8 0 0
18.88 0 0
18.96 0 0
19.04 0 0
19.12 0 0
19.2 0 0
19.28 0 0
19.36 0 0
19.44 0 0
19.52 0 0
19.6 0 0
19.68 0 0
19.76 0 0
19.84 0 0
19.92 0 0
20 0 0
20.08 0 0
20.16 0 0
20.24 0 0
20.32 0 0
20.4 0 0
20.48 0 0
20.56 0 0
20.64 0 0
20.72 0 0
20.8 0 0
20.88 0 0
20.96 0 0
21.04 0 0
21.12 0 0
21.2 0 0
21.28 0 0
21.36 0 0
21.44 0 0
21.52 0 0
21.6 0 0
21.68 0 0
21.76 0 0
21.84 0 0
21.92 0 0
22 0 0
22.08 0 0
22.16 0 0
22.24 0 0
22.32 0 0
22.4 0 0
22.48 0 0
22.56 0 0
22.64 0 0
22.72 0 0
22.8 0 0
22.88 0 0
22.96 0 0
23.04 0 0
23.12 0 0
23.2 0 0
23.28 0 0
23.36 0 0
23.44 0 0
23.52 0 0
23.6 0 0
23.68 0 0
23.76 0 0
23.84 0 0
23.92 0 0
24 0 0
24.08 0 0
24.16 0 0
24.24 0 0
24.32 0 0
24.4 0 0
24.48 0 0
24.56 0 0
24.64 0 0
24.72 0 0
24.8 0 0
24.88 0 0
24.96 0 0
25.04 0 0
25.12 0 0
25.2 0 0
25.28 0 0
25.36 0 0
25.44 0 0
25.52 0 0
25.6 0 0
25.68 0 0
25.76 0 0
25.84 0 0
25.92 0 0
26 0 0
26.08 0 0
26.16 0 0
26.24 0 0
26.32 0 0
26.4 0 0
26.48 0 0
26.56 0 0
26.64 0 0
26.72 0 0
26.8 0 0
26.88 0 0
26.96 0 0
27.04 0 0
27.12 0 0
27.2 0 0
27.28 0 0
27.36 0 0
27.44 0 0
27.52 0 0
27.6 0 0
27.68 0 0
27.76 0 0
27.84 0 0
27.92 0 0
28 0 0
28.08 0 0
28.16 0 0
28.24 0 0
28.32 0 0
28.4 0 0
28.48 0 0
28.56 0 0
28.64 0 0
28.72 0 0
28.8 0 0
28.88 0 0
28.96 0 0
29.04 0 0
29.12 0 0
29.2 0 0
29.28 0 0
29.36 0 0
29.44 0 0
29.52 0 0
29.6 0 0
29.68 0 0
29.76 0 0
29.84 0 0
29.92 0 0
30 0 0
30.08 0 0
30.16 0 0
30.24 0 0
30.32 0 0
30.4 0 0
30.48 0 0
30.56 0 0
30.64 0 0
30.72 0 0
30.8 0 0
30.88 0 0
30.96 0 0
31.04 0 0
31.12 0 0
31.2 0 0
31.28 0 0
31.36 0 0
31.44 0 0
31.52 0 0
31.6 0 0
31.68 0 0
31.76 0 0
31.84 0 0
31.92 0 0
0 0.005 0
0.08 0.005 0
0.16 0.005 0
0.24 0.005 0
0.32 0.005 0
0.4 0.005 0
0.48 0.005 0
0.56 0.005 0
0.64 0.005 0
0.72 0.005 0
0.8 0.005 0
0.88 0.005 0
0.96 0.005 0
1.04 0.005 0
1.12 0.005 0
1.2 0.005 0
1.28 0.005 0
1.36 0.005 0
1.44 0.005 0
1.52 0.005 0
1.6 0.005 0
1.68 0.005 0
1.76 0.005 0
1.84 0.005 0
1.92 0.005 0
2 0.005 0
2.08 0.005 0
2.16 0.005 0
2.24 0.005 0
2.32 0.005 0
2.4 0.005 0
2.48 0.005 0
2.56 0.005 0
2.64 0.005 0
2.72 0.005 0
2.8 0.005 0
2.88 0.005 0
2.96 0.005 0
3.04 0.005 0
3.12 0.005 0
3.2 0.005 0
3.28 0.005 0
3.36 0.005 0
3.44 0.005 0
3.52 0.005 0
3.6 0.005 0
3.68 0.005 0
3.76 0.005 0
3.84 0.005 0
3.92 0.005 0
4 0.005 0
4.08 0.005 0
4.16 0.005 0
4.24 0.005 0
4.32 0.005 0
4.4 0.005 0
4.48 0.005 0
4.56 0.005 0
4.64 0.005 0
4.72 0.005 0
4.8 0.005 0
4.88 0.005 0
4.96 0.005 0
5.04 0.005 0
5.12 0.005 0
5.2 0.005 0
5.28 0.005 0
5.36 0.005 0
5.44 0.005 0
5.52 0.005 0
5.6 0.005 0
5.68 0.005 0
5.76 0.005 0
5.84 0.005 0
5.92 0.005 0
6 0.005 0
6.08 0.005 0
6.16 0.005 0
6.24 0.005 0
6.32 0.005 0
6.4 0.005 0
6.48 0.005 0
6.56 0.005 0
6.64 0.005 0
6.72 0.005 0
6.8 0.005 0
6.88 0.005 0
6.96 0.005 0
7.04 0.005 0
7.12 0.005 0
7.2 0.005 0
7.28 0.005 0
7.36 0.005 0
7.44 0.005 0
7.52 0.005 0
7.6 0.005 0
7.68 0.005 0
7.76 0.005 0
7.84 0.005 0
7.92 0.005 0
8 0.005 0
8.08 0.005 0
8.16 0.005 0
8.24 0.005 0
8.32 0.005 0
8.4 0.005 0
8.48 0.005 0
8.56 0.005 0
8.64 0.005 0
8.72 0.005 0
8.8 0.005 0
8.88 0.005 0
8.96 0.005 0
9.04 0.005 0
9.12 0.005 0
9.2 0.005 0
9.28 0.005 0
9.36 0.005 0
9.44 0.005 0
9.52 0.005 0
9.6 0.005 0
9.68 0.005 0
9.76 0.005 0
9.84 0.005 0
9.92 0.005 0
10 0.005 0
10.08 0.005 0
10.16 0.005 0
10.24 0.005 0
10.32 0.005 0
10.4 0.005 0
10.48 0.005 0
10.56 0.005 0
10.64 0.005 0
10.72 0.005 0
10.8 0.005 0
10.88 0.005 0
10.96 0.005 0
11.04 0.005 0
11.12 0.005 0
11.2 0.005 0
11.28 0.005 0
11.36 0.005 0
11.44 0.005 0
11.52 0.005 0
11.6 0.005 0
11.68 0.005 0
11.76 0.005 0
11.84 0.005 0
11.92 0.005 0
12 0.005 0
12.08 0.005 0
12.16 0.005 0
12.24 0.005 0
12.32 0.005 0
12.4 0.005 0
12.48 0.005 0
12.56 0.005 0
12.64 0.005 0
12.72 0.005 0
12.8 0.005 0
12.88 0.005 0
12.96 0.005 0
13.04 0.005 0
13.12 0.005 0
13.2 0.005 0
13.28 0.005 0
13.36 0.005 0
13.44 0.005 0
13.52 0.005 0
13.6 0.005 0
13.68 0.005 0
13.76 0.005 0
13.84 0.005 0
13.92 0.005 0
14 0.005 0
14.08 0.005 0
14.16 0.005 0
14.24 0.005 0
14.32 0.005 0
14.4 0.005 0
14.48 0.005 0
14.56 0.005 0
14.64 0.005 0
14.72 0.005 0
14.8 0.005 0
14.88 0.005 0
14.96 0.005 0
15.04 0.005 0
15.12 0.005 0
15.2 0.005 0
15.28 0.005 0
15.36 0.005 0
15.44 0.005 0
15.52 0.005 0
15.6 0.005 0
15.68 0.005 0
15.76 0.005 0
15.84 0.005 0
15.92 0.005 0
16 0.005 0
16.08 0.005 0
16.16 0.005 0
16.24 0.005 0
16.32 0.005 0
16.4 0.005 0
16.48 0.005 0
16.56 0.005 0
16.64 0.005 0
16.72 0.005 0
16.8 0.005 0
16.88 0.005 0
16.96 0.005 0
17.04 0.005 0
17.12 0.005 0
17.2 0.005 0
17.28 0.005 0
17.36 0.005 0
17.44 0.005 0
17.52 0.005 0
17.6 0.005 0
17.68 0.005 0
17.76 0.005 0
17.84 0.005 0
17.92 0.005 0
18 0.005 0
18.08 0.005 0
18.16 0.005 0
18.24 0.005 0
18.32 0.005 0
18.4 0.005 0
18.48 0.005 0
18.56 0.005 0
18.64 0.005 0
18.72 0.005 0
18.8 0.005 0
18.88 0.005 0
18.96 0.005 0
19.04 0.005 0
19.12 0.005 0
19.2 0.005 0
19.28 0.005 0
19.36 0.005 0
19.44 0.005 0
19.52 0.005 0
19.6 0.005 0
19.68 0.005 0
19.76 0.005 0
19.84 0.005 0
19.92 0.005 0
20 0.005 0
20.08 0.005 0
20.16 0.005 0
20.24 0.005 0
20.32 0.005 0
20.4 0.005 0
20.48 0.005 0
20.56 0.005 0
20.64 0.005 0
20.72 0.005 0
20.8 0.005 0
20.88 0.005 0
20.96 0.005 0
21.04 0.005 0
21.12 0.005 0
21.2 0.005 0
21.28 0.005 0
21.36 0.005 0
21.44 0.005 0
21.52 0.005 0
21.6 0.005 0
21.68 0.005 0
21.76 0.005 0
21.84 0.005 0
21.92 0.005 0
22 0.005 0
22.08 0.005 0
22.16 0.005 0
22.24 0.005 0
22.32 0.005 0
22.4 0.005 0
22.48 0.005 0
22.56 0.005 0
22.64 0.005 0
22.72 0.005 0
22.8 0.005 0
22.88 0.005 0
22.96 0.005 0
23.04 0.005 0
23.12 0.005 0
23.2 0.005 0
23.28 0.005 0
23.36 0.005 0
23.44 0.005 0
23.52 0.005 0
23.6 0.005 0
23.68 0.005 0
23.76 0.005 0
23.84 0.005 0
23.92 0.005 0
24 0.005 0
24.08 0.005 0
24.16 0.005 0
24.24 0.005 0
24.32 0.005 0
24.4 0.005 0
24.48 0.005 0
24.56 0.005 0
24.64 0.005 0
24.72 0.005 0
24.8 0.005 0
24.88 0.005 0
24.96 0.005 0
25.04 0.005 0
25.12 0.005 0
25.2 0.005 0
25.28 0.005 0
25.36 0.005 0
25.44 0.005 0
25.52 0.005 0
25.6 0.005 0
25.68 0.005 0
25.76 0.005 0
25.84 0.005 0
25.92 0.005 0
26 0.005 0
26.08 0.005 0
26.16 0.005 0
26.24 0.005 0
26.32 0.005 0
26.4 0.005 0
26.48 0.005 0
26.56 0.005 0
26.64 0.005 0
26.72 0.005 0
26.8 0.005 0
26.88 0.005 0
26.96 0.005 0
27.04 0.005 0
27.12 0.005 0
27.2 0.005 0
27.28 0.005 0
27.36 0.005 0
27.44 0.005 0
27.52 0.005 0
27.6 0.005 0
27.68 0.005 0
27.76 0.005 0
27.84 0.005 0
27.92 0.005 0
28 0.005 0
28.08 0.005 0
28.16 0.005 0
28.24 0.005 0
28.32 0.005 0
28.4 0.005 0
28.48 0.005 0
28.56 0.005 0
28.64 0.005 0
28.72 0.005 0
28.8 0.005 0
28.88 0.005 0
28.96 0.005 0
29.04 0.005 0
29.12 0.005 0
29.2 0.005 0
29.28 0.005 0
29.36 0.005 0
29.44 0.005 0
29.52 0.005 0
29.6 0.005 0
29.68 0.005 0
29.76 0.005 0
29.84 0.005 0
29.92 0.005 0
30 0.005 0
30.08 0.005 0
30.16 0.005 0
30.24 0.005 0
30.32 0.005 0
30.4 0.005 0
30.48 0.005 0
30.56 0.005 0
30.64 0.005 0
30.72 0.005 0
30.8 0.005 0
30.88 0.005 0
30.96 0.005 0
31.04 0.005 0
31.12 0.005 0
31.2 0.005 0
31.28 0.005 0
31.36 0.005 0
31.44 0.005 0
31.52 0.005 0
31.6 0.005 0
31.68 0.005 0
31.76 0.005 0
31.84 0.005 0
31.92 0.005 0
0 0.01 0
0.08 0.01 0
0.16 0.01 0
0.24 0.01 0
0.32 0.01 0
0.4 0.01 0
0.48 0.01 0
0.56 0.01 0
0.64 0.01 0
0.72 0.01 0
0.8 0.01 0
0.88 0.01 0
0.96 0.01 0
1.04 0.01 0
1.12 0.01 0
1.2 0.01 0
1.28 0.01 0
1.36 0.01 0
1.44 0.01 0
1.52 0.01 0
1.6 0.01 0
1.68 0.01 0
1.76 0.01 0
1.84 0.01 0
1.92 0.01 0
2 0.01 0
2.08 0.01 0
2.16 0.01 0
2.24 0.01 0
2.32 0.01 0
2.4 0.01 0
2.48 0.01 0
2.56 0.01 0
2.64 0.01 0
2.72 0.01 0
2.8 0.01 0
2.88 0.01 0
2.96 0.01 0
3.04 0.01 0
3.12 0.01 0
3.2 0.01 0
3.28 0.01 0
3.36 0.01 0
3.44 0.01 0
3.52 0.01 0
3.6 0.01 0
3.68 0.01 0
3.76 0.01 0
3.84 0.01 0
3.92 0.01 0
4 0.01 0
4.08 0.01 0
4.16 0.01 0
4.24 0.01 0
4.32 0.01 0
4.4 0.01 0
4.48 0.01 0
4.56 0.01 0
4.64 0.01 0
4.72 0.01 0
4.8 0.01 0
4.88 0.01 0
4.96 0.01 0
5.04 0.01 0
5.12 0.01 0
[...]
POINT_DATA 80000

SCALARS p float 1
LOOKUP_TABLE default
1
57.0596
56.7579
56.7167
56.6966
56.6822
56.6702
56.6594
56.6494
56.6399
56.6307
56.6219
56.6133
56.6049
56.5967
56.5887
56.581
56.5734
56.5661
56.5589
56.5521
56.5455
56.5393
56.5334
56.5277
56.5221
56.5166
56.511
56.5055
56.5
56.4946
56.4894
56.4842
56.4791
56.4741
56.4692
56.4643
56.4594
56.4546
56.4497
56.4448
56.44
56.4351
56.4302
56.4253
56.4204
56.4155
56.4106
56.4057
56.4008
56.3959
56.391
56.3861
56.3812
56.3763
56.3714
56.3665
56.3616
56.3566
56.3517
56.3468
56.3419
56.3369
56.332
56.3271
56.3221
56.3172
56.3122
56.3073
56.3023
56.2974
56.2924
56.2875
56.2825
56.2775
56.2726
56.2676
56.2626
56.2576
56.2527
56.2477
56.2427
56.2377
56.2327
56.2277
56.2227
56.2177
56.2127
56.2077
56.2027
56.1977
56.1926
56.1876
56.1826
56.1776
56.1725
56.1675
56.1625
56.1574
56.1524
56.1473
56.1423
56.1372
56.1321
56.1271
56.122
56.1169
56.1118
56.1068
56.1017
56.0966
56.0915
56.0864
56.0813
56.0762
56.0711
56.0659
56.0608
56.0557
56.0506
56.0454
56.0403
56.0351
56.03
56.0248
56.0197
56.0145
56.0093
56.0041
55.999
55.9938
55.9886
55.9834
55.9782
55.9729
55.9677
55.9625
55.9573
55.952
55.9468
55.9415
55.9362
55.931
55.9257
55.9204
55.9151
55.9098
55.9045
55.8992
55.8939
55.8885
55.8832
55.8778
55.8725
55.8671
55.8617
55.8563
55.8509
55.8455
55.8401
55.8346
55.8292
55.8237
55.8183
55.8128
55.8073
55.8018
55.7962
55.7907
55.7852
55.7796
55.774
55.7684
55.7628
55.7572
55.7515
55.7458
55.7402
55.7345
55.7287
55.723
55.7172
55.7114
55.7056
55.6998
55.694
55.6881
55.6822
55.6763
55.6703
55.6644
55.6584
55.6524
55.6463
55.6402
55.6341
55.628
55.6219
55.6157
55.6094
55.6032
55.5969
55.5906
55.5842
55.5778
55.5714
55.565
55.5585
55.5519
55.5454
55.5387
55.5321
55.5254
55.5187
55.5119
55.5051
55.4983
55.4914
55.4844
55.4775
55.4705
55.4634
55.4563
55.4492
55.442
55.4347
55.4274
55.4201
55.4128
55.4053
55.3979
55.3904
55.3829
55.3753
55.3676
55.36
55.3523
55.3445
55.3367
55.3289
55.321
55.3131
55.3051
55.2971
55.2891
55.281
55.2729
55.2648
55.2566
55.2484
55.2402
55.2319
55.2236
55.2153
55.207
55.1986
55.1903
55.1819
55.1734
55.165
55.1565
55.1481
55.1396
55.1311
55.1226
55.1141
55.1056
55.0971
55.0886
55.0801
55.0716
55.0632
55.0547
55.0462
55.0378
55.0293
55.0209
55.0125
55.0041
54.9958
54.9874
54.9791
54.9709
54.9626
54.9544
54.9462
54.9381
54.93
54.9219
54.9139
54.9059
54.898
54.8901
54.8822
54.8744
54.8667
54.859
54.8513
54.8438
54.8362
54.8287
54.8213
54.8139
54.8066
54.7994
54.7922
54.7851
54.778
54.771
54.764
54.7571
54.7503
54.7435
54.7368
54.7301
54.7235
54.717
54.7105
54.7041
54.6978
54.6915
54.6852
54.679
54.6729
54.6668
54.6608
54.6549
54.649
54.6431
54.6373
54.6316
54.6259
54.6203
54.6147
54.6091
54.6036
54.5982
54.5928
54.5874
54.5821
54.5768
54.5716
54.5664
54.5612
54.5561
54.551
54.546
54.5409
54.536
54.531
54.5261
54.5212
54.5164
54.5115
54.5067
54.502
54.4972
54.4925
54.4878
54.4831
54.4785
54.4738
54.4692
54.4646
54.4601
54.4555
54.451
54.4464
54.4419
54.4374
54.4329
54.4285
54.424
54.4196
54.4152
54.4107
54.4063
54.4019
54.3975
54.3932
54.3888
54.3844
54.3801
54.3757
54.3714
54.3671
54.3627
54.3584
54.3541
54.3498
54.3455
54.3412
54.3369
54.3326
54.3283
54.324
54.3197
54.3154
54.3112
0.5
57.0596
57.0596
56.7579
56.7167
56.6966
56.6822
56.6702
56.6594
56.6494
56.6399
56.6307
56.6219
56.6133
56.6049
56.5967
56.5887
56.581
56.5734
56.5661
56.5589
56.5521
56.5455
56.5393
56.5334
56.5277
56.5221
56.5166
56.511
56.5055
56.5
56.4946
56.4894
56.4842
56.4791
56.4741
56.4692
56.4643
56.4594
56.4546
56.4497
56.4448
56.44
56.4351
56.4302
56.4253
56.4204
56.4155
56.4106
56.4057
56.4008
56.3959
56.391
56.3861
56.3812
56.3763
56.3714
56.3665
56.3616
56.3566
56.3517
56.3468
56.3419
56.3369
56.332
56.3271
56.3221
56.3172
56.3122
56.3073
56.3023
56.2974
56.2924
56.2875
56.2825
56.2775
56.2726
56.2676
56.2626
56.2576
56.2527
56.2477
56.2427
56.2377
56.2327
56.2277
56.2227
56.2177
56.2127
56.2077
56.2027
56.1977
56.1926
56.1876
56.1826
56.1776
56.1725
56.1675
56.1625
56.1574
56.1524
56.1473
56.1423
56.1372
56.1321
56.1271
56.122
56.1169
56.1118
56.1068
56.1017
56.0966
56.0915
56.0864
56.0813
56.0762
56.0711
56.0659
56.0608
56.0557
56.0506
56.0454
56.0403
56.0351
56.03
56.0248
56.0197
56.0145
56.0093
56.0041
55.999
55.9938
55.9886
55.9834
55.9782
55.9729
55.9677
55.9625
55.9573
55.952
55.9468
55.9415
55.9362
55.931
55.9257
55.9204
55.9151
55.9098
55.9045
55.8992
55.8939
55.8885
55.8832
55.8778
55.8725
55.8671
55.8617
55.8563
55.8509
55.8455
55.8401
55.8346
55.8292
55.8237
55.8183
55.8128
55.8073
55.8018
55.7962
55.7907
55.7852
55.7796
55.774
55.7684
55.7628
55.7572
55.7515
55.7458
55.7402
55.7345
55.7287
55.723
55.7172
55.7114
55.7056
55.6998
55.694
55.6881
55.6822
55.6763
55.6703
55.6644
55.6584
55.6524
55.6463
55.6402
55.6341
55.628
55.6219
55.6157
55.6094
55.6032
55.5969
55.5906
55.5842
55.5778
55.5714
55.565
55.5585
55.5519
55.5454
55.5387
55.5321
55.5254
55.5187
55.5119
55.5051
55.4983
55.4914
55.4844
55.4775
55.4705
55.4634
55.4563
55.4492
55.442
55.4347
55.4274
55.4201
55.4128
55.4053
55.3979
55.3904
55.3829
55.3753
55.3676
55.36
55.3523
55.3445
55.3367
55.3289
55.321
55.3131
55.3051
55.2971
55.2891
55.281
55.2729
55.2648
55.2566
55.2484
55.2402
55.2319
55.2236
55.2153
55.207
55.1986
55.1903
55.1819
55.1734
55.165
55.1565
55.1481
55.1396
55.1311
55.1226
55.1141
55.1056
55.0971
55.0886
55.0801
55.0716
55.0632
55.0547
55.0462
55.0378
55.0293
55.0209
55.0125
55.0041
54.9958
54.9874
54.9791
54.9709
54.9626
54.9544
54.9462
54.9381
54.93
54.9219
54.9139
54.9059
54.898
54.8901
54.8822
54.8744
54.8667
54.859
54.8513
54.8438
54.8362
54.8287
54.8213
54.8139
54.8066
54.7994
54.7922
54.7851
54.778
54.771
54.764
54.7571
54.7503
54.7435
54.7368
54.7301
54.7235
54.717
54.7105
54.7041
54.6978
54.6915
54.6852
54.679
54.6729
54.6668
54.6608
54.6549
54.649
54.6431
54.6373
54.6316
54.6259
54.6203
54.6147
54.6091
54.6036
54.5982
54.5928
54.5874
54.5821
54.5768
54.5716
54.5664
54.5612
54.5561
54.551
54.546
54.5409
54.536
54.531
54.5261
54.5212
54.5164
54.5115
54.5067
54.502
54.4972
54.4925
54.4878
54.4831
54.4785
54.4738
54.4692
54.4646
54.4601
54.4555
54.451
54.4464
54.4419
54.4374
54.4329
54.4285
54.424
54.4196
54.4152
54.4107
54.4063
54.4019
54.3975
54.3932
54.3888
54.3844
54.3801
54.3757
54.3714
54.3671
54.3627
54.3584
54.3541
54.3498
54.3455
54.3412
54.3369
54.3326
54.3283
54.324
54.3197
54.3154
54.3112
54.3112
57.045
57.045
56.7617
56.718
56.6972
56.6826
56.6704
56.6596
56.6496
56.64
56.6308
56.622
56.6133
56.6049
56.5967
56.5888
56.581
56.5735
56.5661
56.559
56.5521
56.5456
56.5394
56.5335
56.5277
56.5221
56.5166
56.511
56.5055
56.5
56.4946
56.4894
56.4842
56.4791
56.4741
56.4692
56.4643
56.4594
56.4546
56.4497
56.4448
56.44
56.4351
56.4302
56.4253
56.4204
56.4155
56.4106
56.4057
56.4008
56.3959
56.391
56.3861
56.3812
56.3763
56.3714
56.3665
56.3616
56.3566
56.3517
56.3468
56.3419
56.3369
56.332
56.3271
56.3221
56.3172
56.3122
56.3073
56.3023
56.2974
56.2924
56.2875
56.2825
56.2775
56.2726
56.2676
56.2626
56.2576
56.2527
56.2477
56.2427
56.2377
56.2327
56.2277
56.2227
56.2177
56.2127
56.2077
56.2027
56.1977
56.1926
56.1876
56.1826
56.1776
56.1725
56.1675
56.1625
56.1574
56.1524
56.1473
56.1423
56.1372
56.1321
56.1271
56.122
56.1169
56.1118
56.1068
56.1017
56.0966
56.0915
56.0864
56.0813
56.0762
56.0711
56.0659
56.0608
56.0557
56.0506
56.0454
56.0403
56.0351
56.03
56.0248
56.0197
56.0145
56.0093
56.0041
55.999
55.9938
55.9886
55.9834
55.9782
55.9729
55.9677
55.9625
55.9573
55.952
55.9468
55.9415
55.9362
55.931
55.9257
55.9204
55.9151
55.9098
55.9045
55.8992
55.8939
55.8885
55.8832
55.8778
55.8725
55.8671
55.8617
55.8563
55.8509
55.8455
55.8401
55.8346
55.8292
55.8237
55.8183
55.8128
55.8073
55.8018
55.7962
55.7907
55.7852
55.7796
55.774
55.7684
55.7628
55.7572
55.7515
55.7458
55.7402
55.7345
55.7287
55.723
55.7172
55.7114
55.7056
55.6998
55.694
55.6881
55.6822
55.6763
55.6704
55.6644
55.6584
55.6524
55.6463
55.6403
55.6341
55.628
55.6219
55.6157
55.6094
55.6032
55.5969
55.5906
55.5842
55.5778
55.5714
55.565
55.5585
55.5519
55.5454
55.5387
55.5321
55.5254
55.5187
55.5119
55.5051
55.4983
55.4914
55.4845
55.4775
55.4705
55.4634
55.4563
55.4492
55.442
55.4347
55.4275
55.4201
55.4128
55.4054
55.3979
55.3904
55.3829
55.3753
55.3676
55.36
55.3523
55.3445
55.3367
55.3289
55.321
55.3131
55.3051
55.2971
55.2891
55.281
55.2729
55.2648
55.2566
55.2484
55.2402
55.2319
55.2236
55.2153
55.207
55.1986
55.1903
55.1819
55.1734
55.165
55.1565
55.1481
55.1396
55.1311
55.1226
55.1141
55.1056
55.0971
55.0886
55.0801
55.0716
55.0632
55.0547
55.0462
55.0378
55.0293
55.0209
55.0125
55.0041
54.9958
54.9874
54.9791
54.9709
54.9626
54.9544
54.9462
54.9381
54.93
54.9219
54.9139
54.9059
54.898
54.8901
54.8822
54.8744
54.8667
54.859
54.8514
54.8438
54.8362
54.8287
54.8213
54.814
54.8066
54.7994
54.7922
54.7851
54.778
54.771
54.764
54.7571
54.7503
54.7435
54.7368
54.7301
54.7235
54.717
54.7105
54.7041
54.6978
54.6915
54.6852
54.679
54.6729
54.6668
54.6608
54.6549
54.649
54.6431
54.6373
54.6316
54.6259
54.6203
54.6147
54.6091
54.6036
54.5982
54.5928
54.5874
54.5821
54.5768
54.5716
54.5664
54.5612
54.5561
54.551
54.546
54.5409
54.536
54.531
54.5261
54.5212
54.5164
54.5115
54.5067
54.502
54.4972
54.4925
54.4878
54.4831
54.4785
54.4738
54.4692
54.4646
54.4601
54.4555
54.451
54.4464
54.4419
54.4374
54.4329
54.4285
54.424
54.4196
54.4152
54.4107
54.4063
54.4019
54.3975
54.3932
54.3888
54.3844
54.3801
54.3757
54.3714
54.3671
54.3627
54.3584
54.3541
54.3498
54.3455
54.3412
54.3369
54.3326
54.3283
54.324
54.3197
54.3154
54.3112
54.3112
57.029
57.029
56.7649
56.7191
56.6979
56.683
56.6707
56.6598
56.6497
56.6401
56.6309
56.622
56.6134
56.605
56.5968
56.5888
56.5811
56.5735
56.5661
56.559
56.5521
56.5456
56.5394
56.5335
56.5278
56.5221
56.5166
56.511
56.5055
56.5
56.4946
56.4894
56.4842
56.4791
56.4741
56.4692
56.4643
56.4594
56.4546
56.4497
56.4448
56.44
56.4351
56.4302
56.4253
56.4204
56.4155
56.4106
56.4057
56.4008
56.3959
56.391
56.3861
56.3812
56.3763
56.3714
56.3665
56.3616
56.3566
56.3517
56.3468
56.3419
56.3369
56.332
56.3271
56.3221
56.3172
56.3122
56.3073
56.3023
56.2974
56.2924
56.2875
56.2825
56.2775
56.2726
56.2676
56.2626
56.2576
56.2527
56.2477
56.2427
56.2377
56.2327
56.2277
56.2227
56.2177
56.2127
56.2077
56.2027
56.1977
56.1926
56.1876
56.1826
56.1776
56.1725
56.1675
56.1625
56.1574
56.1524
56.1473
56.1423
56.1372
56.1321
56.1271
56.122
56.1169
56.1118
56.1068
56.1017
56.0966
56.0915
56.0864
56.0813
56.0762
56.0711
56.0659
56.0608
56.0557
56.0506
56.0454
56.0403
56.0351
56.03
56.0248
56.0197
56.0145
56.0093
56.0041
55.999
55.9938
55.9886
55.9834
55.9782
55.9729
55.9677
55.9625
55.9573
55.952
55.9468
55.9415
55.9362
55.931
55.9257
55.9204
55.9151
55.9098
55.9045
55.8992
55.8939
55.8885
55.8832
55.8778
55.8725
55.8671
55.8617
55.8563
55.8509
55.8455
55.8401
55.8346
55.8292
55.8237
55.8183
55.8128
55.8073
55.8018
55.7962
55.7907
55.7852
55.7796
55.774
55.7684
55.7628
55.7572
55.7515
55.7458
55.7402
55.7345
55.7287
55.723
55.7172
55.7114
55.7056
55.6998
55.694
55.6881
55.6822
55.6763
55.6704
55.6644
55.6584
55.6524
55.6463
55.6403
55.6341
55.628
55.6219
55.6157
55.6094
55.6032
55.5969
55.5906
55.5842
55.5778
55.5714
55.565
55.5585
55.5519
55.5454
55.5387
55.5321
55.5254
55.5187
55.5119
55.5051
55.4983
55.4914
55.4845
55.4775
55.4705
55.4634
55.4563
55.4492
55.442
55.4347
55.4275
55.4201
55.4128
55.4054
55.3979
55.3904
55.3829
55.3753
55.3676
55.36
55.3523
55.3445
55.3367
55.3289
55.321
55.3131
55.3051
55.2971
55.2891
55.281
55.2729
55.2648
55.2566
55.2484
55.2402
55.2319
55.2236
55.2153
55.207
55.1986
55.1903
55.1819
55.1734
55.165
55.1565
55.1481
55.1396
55.1311
55.1226
55.1141
55.1056
55.0971
55.0886
55.0801
55.0717
55.0632
55.0547
55.0462
55.0378
55.0293
55.0209
55.0125
55.0041
54.9958
54.9874
54.9791
54.9709
54.9626
54.9544
54.9462
54.9381
54.93
54.9219
54.9139
54.9059
54.898
54.8901
54.8822
54.8744
54.8667
54.859
54.8514
54.8438
54.8362
54.8287
54.8213
54.814
54.8066
54.7994
54.7922
54.7851
54.778
54.771
54.764
54.7571
54.7503
54.7435
54.7368
54.7301
54.7235
54.717
54.7105
54.7041
54.6978
54.6915
54.6852
54.679
54.6729
54.6669
54.6608
54.6549
54.649
54.6431
54.6373
54.6316
54.6259
54.6203
54.6147
54.6091
54.6036
54.5982
54.5928
54.5874
54.5821
54.5768
54.5716
54.5664
54.5612
54.5561
54.551
54.546
54.5409
54.536
54.531
54.5261
54.5212
54.5164
54.5115
54.5067
54.502
54.4972
54.4925
54.4878
54.4831
54.4785
54.4738
54.4692
54.4646
54.4601
54.4555
54.451
54.4464
54.4419
54.4374
54.4329
54.4285
54.424
54.4196
54.4152
54.4107
54.4063
54.4019
54.3975
54.3932
54.3888
54.3844
54.3801
54.3757
54.3714
54.3671
54.3627
54.3584
54.3541
54.3498
54.3455
54.3412
54.3369
54.3326
54.3283
54.324
54.3197
54.3154
54.3112
54.3112
57.0131
57.0131
56.7678
56.7203
56.6985
56.6833
56.671
56.66
56.6499
56.6402
56.631
56.6221
56.6135
56.605
56.5968
56.5889
56.5811
56.5735
56.5662
56.559
56.5521
56.5456
56.5394
56.5335
56.5278
56.5222
56.5166
56.511
56.5055
56.5
56.4946
56.4894
56.4842
56.4791
56.4741
56.4692
56.4643
56.4594
56.4546
56.4497
56.4448
56.44
56.4351
56.4302
56.4253
56.4204
56.4155
56.4106
56.4057
56.4008
56.3959
56.391
56.3861
56.3812
56.3763
56.3714
56.3665
56.3616
56.3566
56.3517
56.3468
56.3419
56.3369
56.332
56.3271
56.3221
56.3172
56.3122
56.3073
56.3023
56.2974
56.2924
56.2875
56.2825
56.2775
56.2726
56.2676
56.2626
56.2576
56.2527
56.2477
56.2427
56.2377
56.2327
56.2277
56.2227
56.2177
56.2127
56.2077
56.2027
56.1977
56.1926
56.1876
56.1826
56.1776
56.1725
56.1675
56.1625
56.1574
56.1524
56.1473
56.1423
56.1372
56.1321
56.1271
56.122
56.1169
56.1118
56.1068
56.1017
56.0966
56.0915
56.0864
56.0813
56.0762
56.0711
56.0659
56.0608
56.0557
56.0506
56.0454
56.0403
56.0351
56.03
56.0248
56.0197
56.0145
56.0093
56.0041
55.999
55.9938
55.9886
55.9834
55.9782
55.9729
55.9677
55.9625
55.9573
55.952
55.9468
55.9415
55.9362
55.931
55.9257
55.9204
55.9151
55.9098
55.9045
55.8992
55.8939
55.8885
55.8832
55.8778
55.8725
55.8671
55.8617
55.8563
55.8509
55.8455
55.8401
55.8346
55.8292
55.8237
55.8183
55.8128
55.8073
55.8018
55.7962
55.7907
55.7852
55.7796
55.774
55.7684
55.7628
55.7572
55.7515
55.7458
55.7402
55.7345
55.7287
55.723
55.7172
55.7114
55.7056
55.6998
55.694
55.6881
55.6822
55.6763
55.6703
55.6644
55.6584
55.6524
55.6463
55.6402
55.6341
55.628
55.6219
55.6157
55.6094
55.6032
55.5969
55.5906
55.5842
55.5778
55.5714
55.565
55.5585
55.5519
55.5454
55.5387
55.5321
55.5254
55.5187
55.5119
55.5051
55.4983
55.4914
55.4844
55.4775
55.4705
55.4634
55.4563
55.4492
55.442
55.4347
55.4275
55.4201
55.4128
55.4054
55.3979
55.3904
55.3829
55.3753
55.3676
55.36
55.3523
55.3445
55.3367
55.3289
55.321
55.3131
55.3051
55.2971
55.2891
55.281
55.2729
55.2648
55.2566
55.2484
55.2402
55.2319
55.2236
55.2153
55.207
55.1986
55.1903
55.1819
55.1734
55.165
55.1565
55.1481
55.1396
55.1311
55.1226
55.1141
55.1056
55.0971
55.0886
55.0801
55.0717
55.0632
55.0547
55.0462
55.0378
55.0293
55.0209
55.0125
55.0041
54.9958
54.9874
54.9791
54.9709
54.9626
54.9544
54.9462
54.9381
54.93
54.9219
54.9139
54.9059
54.898
54.8901
54.8822
54.8744
54.8667
54.859
54.8514
54.8438
54.8362
54.8287
54.8213
54.814
54.8066
54.7994
54.7922
54.7851
54.778
54.771
54.764
54.7571
54.7503
54.7435
54.7368
54.7301
54.7235
54.717
54.7105
54.7041
54.6978
54.6915
54.6852
54.679
54.6729
54.6669
54.6608
54.6549
54.649
54.6431
54.6373
54.6316
54.6259
54.6203
54.6147
54.6091
54.6036
54.5982
54.5928
54.5874
54.5821
54.5768
54.5716
54.5664
54.5612
54.5561
54.551
54.546
54.5409
54.536
54.531
54.5261
54.5212
54.5164
54.5115
54.5067
54.502
54.4972
54.4925
54.4878
54.4831
54.4785
54.4738
54.4692
54.4646
54.4601
54.4555
54.451
54.4464
54.4419
54.4374
54.4329
54.4285
54.424
54.4196
54.4152
54.4107
54.4063
54.4019
54.3975
54.3932
54.3888
54.3844
54.3801
54.3757
54.3714
54.3671
54.3627
54.3584
54.3541
54.3498
54.3455
54.3412
54.3369
54.3326
54.3283
54.324
54.3197
54.3154
54.3112
54.3112
56.998
56.998
56.7705
56.7214
56.699
56.6837
56.6712
56.6602
56.65
56.6404
56.6311
56.6222
56.6135
56.6051
56.5969
56.5889
56.5811
56.5736
56.5662
56.559
56.5522
56.5456
56.5394
56.5335
56.5278
56.5222
56.5166
56.511
56.5055
56.5
56.4946
56.4894
56.4842
56.4791
56.4741
56.4692
56.4643
56.4594
56.4546
56.4497
56.4448
56.44
56.4351
56.4302
56.4253
56.4204
56.4155
56.4106
56.4057
56.4008
56.3959
56.391
56.3861
56.3812
56.3763
56.3714
56.3665
56.3616
56.3566
56.3517
56.3468
56.3419
56.3369
56.332
56.3271
56.3221
56.3172
56.3122
56.3073
56.3023
56.2974
56.2924
56.2875
56.2825
56.2775
56.2726
56.2676
56.2626
56.2576
56.2527
56.2477
56.2427
56.2377
56.2327
56.2277
56.2227
56.2177
56.2127
56.2077
56.2027
56.1977
56.1926
56.1876
56.1826
56.1776
56.1725
56.1675
56.1625
56.1574
56.1524
56.1473
56.1423
56.1372
56.1321
56.1271
56.122
56.1169
56.1118
56.1068
56.1017
56.0966
56.0915
56.0864
56.0813
56.0762
56.0711
56.0659
56.0608
56.0557
56.0506
56.0454
56.0403
56.0351
56.03
56.0248
56.0197
56.0145
56.0093
56.0041
55.9989
55.9938
55.9886
55.9834
55.9782
55.9729
55.9677
55.9625
55.9573
55.952
55.9468
55.9415
55.9362
55.931
55.9257
55.9204
55.9151
55.9098
55.9045
55.8992
55.8939
55.8885
55.8832
55.8778
55.8725
55.8671
55.8617
55.8563
55.8509
55.8455
55.8401
55.8346
55.8292
55.8237
55.8183
55.8128
55.8073
55.8018
55.7962
55.7907
55.7852
55.7796
55.774
55.7684
55.7628
55.7572
55.7515
55.7458
55.7402
55.7345
55.7287
55.723
55.7172
55.7114
55.7056
55.6998
55.694
55.6881
55.6822
55.6763
55.6703
55.6644
55.6584
55.6524
55.6463
55.6402
55.6341
55.628
55.6219
55.6157
55.6094
55.6032
55.5969
55.5906
55.5842
55.5778
55.5714
55.565
55.5585
55.5519
55.5454
55.5387
55.5321
55.5254
55.5187
55.5119
55.5051
55.4983
55.4914
55.4844
55.4775
55.4705
55.4634
55.4563
55.4492
55.442
55.4347
55.4274
55.4201
55.4128
55.4054
55.3979
55.3904
55.3829
55.3753
55.3676
55.36
55.3523
55.3445
55.3367
55.3289
55.321
55.3131
55.3051
55.2971
55.2891
55.281
55.2729
55.2648
55.2566
55.2484
55.2402
55.2319
55.2236
55.2153
55.207
55.1986
55.1903
55.1819
55.1734
55.165
55.1565
55.1481
55.1396
55.1311
55.1226
55.1141
55.1056
55.0971
55.0886
55.0801
55.0717
55.0632
55.0547
55.0462
55.0378
55.0293
55.0209
55.0125
55.0041
54.9958
54.9874
54.9791
54.9709
54.9626
54.9544
54.9462
54.9381
54.93
54.9219
54.9139
54.9059
54.898
54.8901
54.8822
54.8744
54.8667
54.859
54.8514
54.8438
54.8362
54.8287
54.8213
54.814
54.8066
54.7994
54.7922
54.7851
54.778
54.771
54.764
54.7571
54.7503
54.7435
54.7368
54.7301
54.7235
54.717
54.7105
54.7041
54.6978
54.6915
54.6852
54.679
54.6729
54.6669
54.6608
54.6549
54.649
54.6431
54.6373
54.6316
54.6259
54.6203
54.6147
54.6091
54.6036
54.5982
54.5928
54.5874
54.5821
54.5768
54.5716
54.5664
54.5612
54.5561
54.551
54.546
54.5409
54.536
54.531
54.5261
54.5212
54.5164
54.5115
54.5067
54.502
54.4972
54.4925
54.4878
54.4831
54.4785
54.4738
54.4692
54.4646
54.4601
54.4555
54.451
54.4464
54.4419
54.4374
54.4329
54.4285
54.424
54.4196
54.4152
54.4107
54.4063
54.4019
54.3975
54.3932
54.3888
54.3844
54.3801
54.3757
54.3714
54.3671
54.3627
54.3584
54.3541
54.3498
54.3455
54.3412
54.3369
54.3326
54.3283
54.324
54.3197
54.3154
54.3112
54.3112
56.984
56.984
56.7731
56.7225
56.6996
56.6841
56.6715
56.6604
56.6502
56.6405
56.6312
56.6223
56.6136
56.6052
56.5969
56.589
56.5812
56.5736
56.5662
56.5591
56.5522
56.5456
56.5394
56.5335
56.5278
56.5222
56.5166
56.511
56.5055
56.5
56.4946
56.4894
56.4842
56.4791
56.4741
56.4692
56.4643
56.4594
56.4546
56.4497
56.4448
56.44
56.4351
56.4302
56.4253
56.4204
56.4155
56.4106
56.4057
56.4008
56.3959
56.391
56.3861
56.3812
56.3763
56.3714
56.3665
56.3616
56.3566
56.3517
56.3468
56.3419
56.3369
56.332
56.3271
56.3221
56.3172
56.3122
56.3073
56.3023
56.2974
56.2924
56.2875
56.2825
56.2775
56.2726
56.2676
56.2626
56.2576
56.2527
56.2477
56.2427
56.2377
56.2327
56.2277
56.2227
56.2177
56.2127
56.2077
56.2027
56.1977
56.1926
56.1876
56.1826
56.1776
56.1725
56.1675
56.1625
56.1574
56.1524
56.1473
56.1423
56.1372
56.1321
56.1271
56.122
56.1169
56.1118
56.1068
56.1017
56.0966
56.0915
56.0864
56.0813
56.0762
56.0711
56.0659
56.0608
56.0557
56.0506
56.0454
56.0403
56.0351
56.03
56.0248
56.0197
56.0145
56.0093
56.0041
55.9989
55.9938
55.9886