# vtk DataFile Version 2.0
FlowField
ASCII
DATASET STRUCTURED_GRID
DIMENSIONS 400 1 50
POINTS 20000 float
0 0 0
0.08 0 0
0.16 0 0
0.24 0 0
0.32 0 0
0.4 0 0
0.48 0 0
0.56 0 0
0.64 0 0
0.72 0 0
0.8 0 0
0.88 0 0
0.96 0 0
1.04 0 0
1.12 0 0
1.2 0 0
1.28 0 0
1.36 0 0
1.44 0 0
1.52 0 0
1.6 0 0
1.68 0 0
1.76 0 0
1.84 0 0
1.92 0 0
2 0 0
2.08 0 0
2.16 0 0
2.24 0 0
2.32 0 0
2.4 0 0
2.48 0 0
2.56 0 0
2.64 0 0
2.72 0 0
2.8 0 0
2.88 0 0
2.96 0 0
3.04 0 0
3.12 0 0
3.2 0 0
3.28 0 0
3.36 0 0
3.44 0 0
3.52 0 0
3.6 0 0
3.68 0 0
3.76 0 0
3.84 0 0
3.92 0 0
4 0 0
4.08 0 0
4.16 0 0
4.24 0 0
4.32 0 0
4.4 0 0
4.48 0 0
4.56 0 0
4.64 0 0
4.72 0 0
4.8 0 0
4.88 0 0
4.96 0 0
5.04 0 0
5.12 0 0
5.2 0 0
5.28 0 0
5.36 0 0
5.44 0 0
5.52 0 0
5.6 0 0
5.68 0 0
5.76 0 0
5.84 0 0
5.92 0 0
6 0 0
6.08 0 0
6.16 0 0
6.24 0 0
6.32 0 0
6.4 0 0
6.48 0 0
6.56 0 0
6.64 0 0
6.72 0 0
6.8 0 0
6.88 0 0
6.96 0 0
7.04 0 0
7.12 0 0
7.2 0 0
7.28 0 0
7.36 0 0
7.44 0 0
7.52 0 0
7.6 0 0
7.68 0 0
7.76 0 0
7.84 0 0
7.92 0 0
8 0 0
8.08 0 0
8.16 0 0
8.24 0 0
8.32 0 0
8.4 0 0
8.48 0 0
8.56 0 0
8.64 0 0
8.72 0 0
8.8 0 0
8.88 0 0
8.96 0 0
9.04 0 0
9.12 0 0
9.2 0 0
9.28 0 0
9.36 0 0
9.44 0 0
9.52 0 0
9.6 0 0
9.68 0 0
9.76 0 0
9.84 0 0
9.92 0 0
10 0 0
10.08 0 0
10.16 0 0
10.24 0 0
10.32 0 0
10.4 0 0
10.48 0 0
10.56 0 0
10.64 0 0
10.72 0 0
10.8 0 0
10.88 0 0
10.96 0 0
11.04 0 0
11.12 0 0
11.2 0 0
11.28 0 0
11.36 0 0
11.44 0 0
11.52 0 0
11.6 0 0
11.68 0 0
11.76 0 0
11.84 0 0
11.92 0 0
12 0 0
12.08 0 0
12.16 0 0
12.24 0 0
12.32 0 0
12.4 0 0
12.48 0 0
12.56 0 0
12.64 0 0
12.72 0 0
12.8 0 0
12.88 0 0
12.96 0 0
13.04 0 0
13.12 0 0
13.2 0 0
13.28 0 0
13.36 0 0
13.44 0 0
13.52 0 0
13.6 0 0
13.68 0 0
13.76 0 0
13.84 0 0
13.92 0 0
14 0 0
14.08 0 0
14.16 0 0
14.24 0 0
14.32 0 0
14.4 0 0
14.48 0 0
14.56 0 0
14.64 0 0
14.72 0 0
14.8 0 0
14.88 0 0
14.96 0 0
15.04 0 0
15.12 0 0
15.2 0 0
15.28 0 0
15.36 0 0
15.44 0 0
15.52 0 0
15.6 0 0
15.68 0 0
15.76 0 0
15.84 0 0
15.92 0 0
16 0 0
16.08 0 0
16.16 0 0
16.24 0 0
16.32 0 0
16.4 0 0
16.48 0 0
16.56 0 0
16.64 0 0
16.72 0 0
16.8 0 0
16.88 0 0
16.96 0 0
17.04 0 0
17.12 0 0
17.2 0 0
17.28 0 0
17.36 0 0
17.44 0 0
17.52 0 0
17.6 0 0
17.68 0 0
17.76 0 0
17.84 0 0
17.92 0 0
18 0 0
18.08 0 0
18.16 0 0
18.24 0 0
18.32 0 0
18.4 0 0
18.48 0 0
18.56 0 0
18.64 0 0
18.72 0 0
18.8 0 0
18.88 0 0
18.96 0 0
19.04 0 0
19.12 0 0
19.2 0 0
19.28 0 0
19.36 0 0
19.44 0 0
19.52 0 0
19.6 0 0
19.68 0 0
19.76 0 0
19.84 0 0
19.92 0 0
20 0 0
20.08 0 0
20.16 0 0
20.24 0 0
20.32 0 0
20.4 0 0
20.48 0 0
20.56 0 0
20.64 0 0
20.72 0 0
20.8 0 0
20.88 0 0
20.96 0 0
21.04 0 0
21.12 0 0
21.2 0 0
21.28 0 0
21.36 0 0
21.44 0 0
21.52 0 0
21.6 0 0
21.68 0 0
21.76 0 0
21.84 0 0
21.92 0 0
22 0 0
22.08 0 0
22.16 0 0
22.24 0 0
22.32 0 0
22.4 0 0
22.48 0 0
22.56 0 0
22.64 0 0
22.72 0 0
22.8 0 0
22.88 0 0
22.96 0 0
23.04 0 0
23.12 0 0
23.2 0 0
23.28 0 0
23.36 0 0
23.44 0 0
23.52 0 0
23.6 0 0
23.68 0 0
23.76 0 0
23.84 0 0
23.92 0 0
24 0 0
24.08 0 0
24.16 0 0
24.24 0 0
24.32 0 0
24.4 0 0
24.48 0 0
24.56 0 0
24.64 0 0
24.72 0 0
24.8 0 0
24.88 0 0
24.96 0 0
25.04 0 0
25.12 0 0
25.2 0 0
25.28 0 0
25.36 0 0
25.44 0 0
25.52 0 0
25.6 0 0
25.68 0 0
25.76 0 0
25.84 0 0
25.92 0 0
26 0 0
26.08 0 0
26.16 0 0
26.24 0 0
26.32 0 0
26.4 0 0
26.48 0 0
26.56 0 0
26.64 0 0
26.72 0 0
26.8 0 0
26.88 0 0
26.96 0 0
27.04 0 0
27.12 0 0
27.2 0 0
27.28 0 0
27.36 0 0
27.44 0 0
27.52 0 0
27.6 0 0
27.68 0 0
27.76 0 0
27.84 0 0
27.92 0 0
28 0 0
28.08 0 0
28.16 0 0
28.24 0 0
28.32 0 0
28.4 0 0
28.48 0 0
28.56 0 0
28.64 0 0
28.72 0 0
28.8 0 0
28.88 0 0
28.96 0 0
29.04 0 0
29.12 0 0
29.2 0 0
29.28 0 0
29.36 0 0
29.44 0 0
29.52 0 0
29.6 0 0
29.68 0 0
29.76 0 0
29.84 0 0
29.92 0 0
30 0 0
30.08 0 0
30.16 0 0
30.24 0 0
30.32 0 0
30.4 0 0
30.48 0 0
30.56 0 0
30.64 0 0
30.72 0 0
30.8 0 0
30.88 0 0
30.96 0 0
31.04 0 0
31.12 0 0
31.2 0 0
31.28 0 0
31.36 0 0
31.44 0 0
31.52 0 0
31.6 0 0
31.68 0 0
31.76 0 0
31.84 0 0
31.92 0 0
0 0.02 0
0.08 0.02 0
0.16 0.02 0
0.24 0.02 0
0.32 0.02 0
0.4 0.02 0
0.48 0.02 0
0.56 0.02 0
0.64 0.02 0
0.72 0.02 0
0.8 0.02 0
0.88 0.02 0
0.96 0.02 0
1.04 0.02 0
1.12 0.02 0
1.2 0.02 0
1.28 0.02 0
1.36 0.02 0
1.44 0.02 0
1.52 0.02 0
1.6 0.02 0
1.68 0.02 0
1.76 0.02 0
1.84 0.02 0
1.92 0.02 0
2 0.02 0
2.08 0.02 0
2.16 0.02 0
2.24 0.02 0
2.32 0.02 0
2.4 0.02 0
2.48 0.02 0
2.56 0.02 0
2.64 0.02 0
2.72 0.02 0
2.8 0.02 0
2.88 0.02 0
2.96 0.02 0
3.04 0.02 0
3.12 0.02 0
3.2 0.02 0
3.28 0.02 0
3.36 0.02 0
3.44 0.02 0
3.52 0.02 0
3.6 0.02 0
3.68 0.02 0
3.76 0.02 0
3.84 0.02 0
3.92 0.02 0
4 0.02 0
4.08 0.02 0
4.16 0.02 0
4.24 0.02 0
4.32 0.02 0
4.4 0.02 0
4.48 0.02 0
4.56 0.02 0
4.64 0.02 0
4.72 0.02 0
4.8 0.02 0
4.88 0.02 0
4.96 0.02 0
5.04 0.02 0
5.12 0.02 0
5.2 0.02 0
5.28 0.02 0
5.36 0.02 0
5.44 0.02 0
5.52 0.02 0
5.6 0.02 0
5.68 0.02 0
5.76 0.02 0
5.84 0.02 0
5.92 0.02 0
6 0.02 0
6.08 0.02 0
6.16 0.02 0
6.24 0.02 0
6.32 0.02 0
6.4 0.02 0
6.48 0.02 0
6.56 0.02 0
6.64 0.02 0
6.72 0.02 0
6.8 0.02 0
6.88 0.02 0
6.96 0.02 0
7.04 0.02 0
7.12 0.02 0
7.2 0.02 0
7.28 0.02 0
7.36 0.02 0
7.44 0.02 0
7.52 0.02 0
7.6 0.02 0
7.68 0.02 0
7.76 0.02 0
7.84 0.02 0
7.92 0.02 0
8 0.02 0
8.08 0.02 0
8.16 0.02 0
8.24 0.02 0
8.32 0.02 0
8.4 0.02 0
8.48 0.02 0
8.56 0.02 0
8.64 0.02 0
8.72 0.02 0
8.8 0.02 0
8.88 0.02 0
8.96 0.02 0
9.04 0.02 0
9.12 0.02 0
9.2 0.02 0
9.28 0.02 0
9.36 0.02 0
9.44 0.02 0
9.52 0.02 0
9.6 0.02 0
9.68 0.02 0
9.76 0.02 0
9.84 0.02 0
9.92 0.02 0
10 0.02 0
10.08 0.02 0
10.16 0.02 0
10.24 0.02 0
10.32 0.02 0
10.4 0.02 0
10.48 0.02 0
10.56 0.02 0
10.64 0.02 0
10.72 0.02 0
10.8 0.02 0
10.88 0.02 0
10.96 0.02 0
11.04 0.02 0
11.12 0.02 0
11.2 0.02 0
11.28 0.02 0
11.36 0.02 0
11.44 0.02 0
11.52 0.02 0
11.6 0.02 0
11.68 0.02 0
11.76 0.02 0
11.84 0.02 0
11.92 0.02 0
12 0.02 0
12.08 0.02 0
12.16 0.02 0
12.24 0.02 0
12.32 0.02 0
12.4 0.02 0
12.48 0.02 0
12.56 0.02 0
12.64 0.02 0
12.72 0.02 0
12.8 0.02 0
12.88 0.02 0
12.96 0.02 0
13.04 0.02 0
13.12 0.02 0
13.2 0.02 0
13.28 0.02 0
13.36 0.02 0
13.44 0.02 0
13.52 0.02 0
13.6 0.02 0
13.68 0.02 0
13.76 0.02 0
13.84 0.02 0
13.92 0.02 0
14 0.02 0
14.08 0.02 0
14.16 0.02 0
14.24 0.02 0
14.32 0.02 0
14.4 0.02 0
14.48 0.02 0
14.56 0.02 0
14.64 0.02 0
14.72 0.02 0
14.8 0.02 0
14.88 0.02 0
14.96 0.02 0
15.04 0.02 0
15.12 0.02 0
15.2 0.02 0
15.28 0.02 0
15.36 0.02 0
15.44 0.02 0
15.52 0.02 0
15.6 0.02 0
15.68 0.02 0
15.76 0.02 0
15.84 0.02 0
15.92 0.02 0
16 0.02 0
16.08 0.02 0
16.16 0.02 0
16.24 0.02 0
16.32 0.02 0
16.4 0.02 0
16.48 0.02 0
16.56 0.02 0
16.64 0.02 0
16.72 0.02 0
16.8 0.02 0
16.88 0.02 0
16.96 0.02 0
17.04 0.02 0
17.12 0.02 0
17.2 0.02 0
17.28 0.02 0
17.36 0.02 0
17.44 0.02 0
17.52 0.02 0
17.6 0.02 0
17.68 0.02 0
17.76 0.02 0
17.84 0.02 0
17.92 0.02 0
18 0.02 0
18.08 0.02 0
18.16 0.02 0
18.24 0.02 0
18.32 0.02 0
18.4 0.02 0
18.48 0.02 0
18.56 0.02 0
18.64 0.02 0
18.72 0.02 0
18.8 0.02 0
18.88 0.02 0
18.96 0.02 0
19.04 0.02 0
19.12 0.02 0
19.2 0.02 0
19.28 0.02 0
19.36 0.02 0
19.44 0.02 0
19.52 0.02 0
19.6 0.02 0
19.68 0.02 0
19.76 0.02 0
19.84 0.02 0
19.92 0.02 0
20 0.02 0
20.08 0.02 0
20.16 0.02 0
20.24 0.02 0
20.32 0.02 0
20.4 0.02 0
20.48 0.02 0
20.56 0.02 0
20.64 0.02 0
20.72 0.02 0
20.8 0.02 0
20.88 0.02 0
20.96 0.02 0
21.04 0.02 0
21.12 0.02 0
21.2 0.02 0
21.28 0.02 0
21.36 0.02 0
21.44 0.02 0
21.52 0.02 0
21.6 0.02 0
21.68 0.02 0
21.76 0.02 0
21.84 0.02 0
21.92 0.02 0
22 0.02 0
22.08 0.02 0
22.16 0.02 0
22.24 0.02 0
22.32 0.02 0
22.4 0.02 0
22.48 0.02 0
22.56 0.02 0
22.64 0.02 0
22.72 0.02 0
22.8 0.02 0
22.88 0.02 0
22.96 0.02 0
23.04 0.02 0
23.12 0.02 0
23.2 0.02 0
23.28 0.02 0
23.36 0.02 0
23.44 0.02 0
23.52 0.02 0
23.6 0.02 0
23.68 0.02 0
23.76 0.02 0
23.84 0.02 0
23.92 0.02 0
24 0.02 0
24.08 0.02 0
24.16 0.02 0
24.24 0.02 0
24.32 0.02 0
24.4 0.02 0
24.48 0.02 0
24.56 0.02 0
24.64 0.02 0
24.72 0.02 0
24.8 0.02 0
24.88 0.02 0
24.96 0.02 0
25.04 0.02 0
25.12 0.02 0
25.2 0.02 0
25.28 0.02 0
25.36 0.02 0
25.44 0.02 0
25.52 0.02 0
25.6 0.02 0
25.68 0.02 0
25.76 0.02 0
25.84 0.02 0
25.92 0.02 0
26 0.02 0
26.08 0.02 0
26.16 0.02 0
26.24 0.02 0
26.32 0.02 0
26.4 0.02 0
26.48 0.02 0
26.56 0.02 0
26.64 0.02 0
26.72 0.02 0
26.8 0.02 0
26.88 0.02 0
26.96 0.02 0
27.04 0.02 0
27.12 0.02 0
27.2 0.02 0
27.28 0.02 0
27.36 0.02 0
27.44 0.02 0
27.52 0.02 0
27.6 0.02 0
27.68 0.02 0
27.76 0.02 0
27.84 0.02 0
27.92 0.02 0
28 0.02 0
28.08 0.02 0
28.16 0.02 0
28.24 0.02 0
28.32 0.02 0
28.4 0.02 0
28.48 0.02 0
28.56 0.02 0
28.64 0.02 0
28.72 0.02 0
28.8 0.02 0
28.88 0.02 0
28.96 0.02 0
29.04 0.02 0
29.12 0.02 0
29.2 0.02 0
29.28 0.02 0
29.36 0.02 0
29.44 0.02 0
29.52 0.02 0
29.6 0.02 0
29.68 0.02 0
29.76 0.02 0
29.84 0.02 0
29.92 0.02 0
30 0.02 0
30.08 0.02 0
30.16 0.02 0
30.24 0.02 0
30.32 0.02 0
30.4 0.02 0
30.48 0.02 0
30.56 0.02 0
30.64 0.02 0
30.72 0.02 0
30.8 0.02 0
30.88 0.02 0
30.96 0.02 0
31.04 0.02 0
31.12 0.02 0
31.2 0.02 0
31.28 0.02 0
31.36 0.02 0
31.44 0.02 0
31.52 0.02 0
31.6 0.02 0
31.68 0.02 0
31.76 0.02 0
31.84 0.02 0
31.92 0.02 0
0 0.04 0
0.08 0.04 0
0.16 0.04 0
0.24 0.04 0
0.32 0.04 0
0.4 0.04 0
0.48 0.04 0
0.56 0.04 0
0.64 0.04 0
0.72 0.04 0
0.8 0.04 0
0.88 0.04 0
0.96 0.04 0
1.04 0.04 0
1.12 0.04 0
1.2 0.04 0
1.28 0.04 0
1.36 0.04 0
1.44 0.04 0
1.52 0.04 0
1.6 0.04 0
1.68 0.04 0
1.76 0.04 0
1.84 0.04 0
1.92 0.04 0
2 0.04 0
2.08 0.04 0
2.16 0.04 0
2.24 0.04 0
2.32 0.04 0
2.4 0.04 0
2.48 0.04 0
2.56 0.04 0
2.64 0.04 0
2.72 0.04 0
2.8 0.04 0
2.88 0.04 0
2.96 0.04 0
3.04 0.04 0
3.12 0.04 0
3.2 0.04 0
3.28 0.04 0
3.36 0.04 0
3.44 0.04 0
3.52 0.04 0
3.6 0.04 0
3.68 0.04 0
3.76 0.04 0
3.84 0.04 0
3.92 0.04 0
4 0.04 0
4.08 0.04 0
4.16 0.04 0
4.24 0.04 0
4.32 0.04 0
4.4 0.04 0
4.48 0.04 0
4.56 0.04 0
4.64 0.04 0
4.72 0.04 0
4.8 0.04 0
4.88 0.04 0
4.96 0.04 0
5.04 0.04 0
5.12 0.04 0
5.2 0.04 0
5.28 0.04 0
5.36 0.04 0
5.44 0.04 0
5.52 0.04 0
5.6 0.04 0
5.68 0.04 0
5.76 0.04 0
5.84 0.04 0
5.92 0.04 0
6 0.04 0
6.08 0.04 0
6.16 0.04 0
6.24 0.04 0
6.32 0.04 0
6.4 0.04 0
6.48 0.04 0
6.56 0.04 0
6.64 0.04 0
6.72 0.04 0
6.8 0.04 0
6.88 0.04 0
6.96 0.04 0
7.04 0.04 0
7.12 0.04 0
7.2 0.04 0
7.28 0.04 0
7.36 0.04 0
7.44 0.04 0
7.52 0.04 0
7.6 0.04 0
7.68 0.04 0
7.76 0.04 0
7.84 0.04 0
[...]
POINT_DATA 20000

SCALARS v float 1
LOOKUP_TABLE default
0
0
0
0
0
0
0
0
0
0
0
0
0
0
0
0
0
0
0
0
0
0
0
0
0
0
0
0
0
0
0
0
0
0
0
0
0
0
0
0
0
0
0
0
0
0
0
0
0
0
0
0
0
0
0
0
0
0
0
0
0
0
0
0
0
0
0
0
0
0
0
0
0
0
0
0
0
0
0
0
0
0
0
0
0
0
0
0
0
0
0
0
0
0
0
0
0
0
0
0
0
0
0
0
0
0
0
0
0
0
0
0
0
0
0
0
0
0
0
0
0
0
0
0
0
0
0
0
0
0
0
0
0
0
0
0
0
0
0
0
0
0
0
0
0
0
0
0
0
0
0
0
0
0
0
0
0
0
0
0
0
0
0
0
0
0
0
0
0
0
0
0
0
0
0
0
0
0
0
0
0
0
0
0
0
0
0
0
0
0
0
0
0
0
0
0
0
0
0
0
0
0
0
0
0
0
0
0
0
0
0
0
0
0
0
0
0
0
0
0
0
0
0
0
0
0
0
0
0
0
0
0
0
0
0
0
0
0
0
0
0
0
0
0
0
0
0
0
0
0
0
0
0
0
0
0
0
0
0
0
0
0
0
0
0
0
0
0
0
0
0
0
0
0
0
0
0
0
0
0
0
0
0
0
0
0
0
0
0
0
0
0
0
0
0
0
0
0
0
0
0
0
0
0
0
0
0
0
0
0
0
0
0
0
0
0
0
0
0
0
0
0
0
0
0
0
0
0
0
0
0
0
0
0
0
0
0
0
0
0
0
0
0
0
0
0
0
0
0
0
0
0
0
0
0
0
0
0
0
0
0
0
0
0
0
0
0
0
0
0
0
0
0
0
0
0
0
0
0
0
0
0
0
0
0
0
0
0
0
0
0
0
0
0
0
0
0
0
0
0
-0.123225
0.123225
0.0537902
0.0194372
0.00878132
0.00508786
0.00338587
0.0024354
0.00184556
0.00145433
0.00118207
0.000985265
0.000838397
0.0007257
0.000637059
0.000565789
0.000507362
0.000458641
0.000417411
0.000382074
0.000351456
0.000324679
0.000301073
0.000280117
0.000261402
0.0002446
0.000229445
0.000215716
0.000203234
0.000191844
0.000181419
0.000171848
0.000163038
0.000154907
0.000147385
0.00014041
0.000133929
0.000127895
0.000122266
0.000117005
0.000112079
0.000107461
0.000103123
9.90424e-05
9.51984e-05
9.15721e-05
8.81464e-05
8.49063e-05
8.1838e-05
7.89291e-05
7.61683e-05
7.35452e-05
7.10502e-05
6.86747e-05
6.64105e-05
6.42502e-05
6.21872e-05
6.02154e-05
5.83292e-05
5.65235e-05
5.47936e-05
5.31349e-05
5.15432e-05
5.00142e-05
4.85444e-05
4.71302e-05
4.57687e-05
4.44573e-05
4.31935e-05
4.1975e-05
4.07997e-05
3.96654e-05
3.85698e-05
3.75109e-05
3.64868e-05
3.54957e-05
3.45362e-05
3.36071e-05
3.27073e-05
3.18358e-05
3.09912e-05
3.01721e-05
2.9377e-05
2.86046e-05
2.78537e-05
2.71235e-05
2.64134e-05
2.57231e-05
2.50524e-05
2.44006e-05
2.37674e-05
2.31516e-05
2.25523e-05
2.19685e-05
2.13992e-05
2.08441e-05
2.03032e-05
1.97768e-05
1.92648e-05
1.87668e-05
1.82818e-05
1.78088e-05
1.73469e-05
1.68955e-05
1.64542e-05
1.60229e-05
1.56019e-05
1.51914e-05
1.47917e-05
1.4403e-05
1.40251e-05
1.3657e-05
1.32972e-05
1.29444e-05
1.2598e-05
1.22588e-05
1.19282e-05
1.16072e-05
1.12958e-05
1.09929e-05
1.06968e-05
1.0406e-05
1.01203e-05
9.83983e-06
9.56516e-06
9.29638e-06
9.03344e-06
8.77662e-06
8.52662e-06
8.28421e-06
8.04924e-06
7.82023e-06
7.59475e-06
7.37082e-06
7.14827e-06
6.92902e-06
6.71607e-06
6.51153e-06
6.31528e-06
6.12491e-06
5.93722e-06
5.74999e-06
5.5631e-06
5.3781e-06
5.19702e-06
5.0211e-06
4.85054e-06
4.68501e-06
4.52431e-06
4.36846e-06
4.21709e-06
4.06889e-06
3.92178e-06
3.77407e-06
3.62588e-06
3.47955e-06
3.33866e-06
3.20587e-06
3.08103e-06
2.96091e-06
2.84078e-06
2.71701e-06
2.58899e-06
2.4593e-06
2.33194e-06
2.20999e-06
2.0941e-06
1.98266e-06
1.8731e-06
1.76342e-06
1.65264e-06
1.54037e-06
1.4261e-06
1.30921e-06
1.18974e-06
1.0694e-06
9.51553e-07
8.39679e-07
7.34952e-07
6.34596e-07
5.32423e-07
4.21782e-07
2.99493e-07
1.68389e-07
3.66522e-08
-8.60831e-08
-1.9391e-07
-2.88176e-07
-3.77195e-07
-4.72076e-07
-5.80824e-07
-7.03934e-07
-8.33919e-07
-9.5908e-07
-1.06951e-06
-1.16211e-06
-1.24202e-06
-1.31977e-06
-1.40581e-06
-1.50533e-06
-1.61588e-06
-1.72897e-06
-1.83448e-06
-1.92561e-06
-2.00181e-06
-2.06849e-06
-2.13393e-06
-2.20512e-06
-2.28459e-06
-2.36969e-06
-2.4543e-06
-2.53196e-06
-2.59884e-06
-2.65507e-06
-2.70426e-06
-2.75139e-06
-2.80052e-06
-2.85314e-06
-2.90787e-06
-2.96154e-06
-3.01076e-06
-3.05348e-06
-3.0896e-06
-3.12081e-06
-3.14957e-06
-3.178e-06
-3.20713e-06
-3.23664e-06
-3.26527e-06
-3.29152e-06
-3.31432e-06
-3.33346e-06
-3.34954e-06
-3.36367e-06
-3.37698e-06
-3.39021e-06
-3.40354e-06
-3.41663e-06
-3.42886e-06
-3.43963e-06
-3.44857e-06
-3.45571e-06
-3.46138e-06
-3.46609e-06
-3.47039e-06
-3.47466e-06
-3.47906e-06
-3.48357e-06
-3.48802e-06
-3.4922e-06
-3.49595e-06
-3.49919e-06
-3.50198e-06
-3.50442e-06
-3.50667e-06
-3.50889e-06
-3.51116e-06
-3.51354e-06
-3.51602e-06
-3.51856e-06
-3.5211e-06
-3.5236e-06
-3.52603e-06
-3.52838e-06
-3.53066e-06
-3.5329e-06
-3.53512e-06
-3.53735e-06
-3.53959e-06
-3.54186e-06
-3.54415e-06
-3.54644e-06
-3.54874e-06
-3.55102e-06
-3.55329e-06
-3.55555e-06
-3.55779e-06
-3.56003e-06
-3.56225e-06
-3.56446e-06
-3.56668e-06
-3.56888e-06
-3.57109e-06
-3.57329e-06
-3.57549e-06
-3.57768e-06
-3.57987e-06
-3.58205e-06
-3.58422e-06
-3.58638e-06
-3.58854e-06
-3.59068e-06
-3.59282e-06
-3.59496e-06
-3.59708e-06
-3.5992e-06
-3.60132e-06
-3.60342e-06
-3.60552e-06
-3.60762e-06
-3.6097e-06
-3.61178e-06
-3.61385e-06
-3.61591e-06
-3.61796e-06
-3.62001e-06
-3.62205e-06
-3.62408e-06
-3.6261e-06
-3.62812e-06
-3.63012e-06
-3.63212e-06
-3.63411e-06
-3.63609e-06
-3.63806e-06
-3.64003e-06
-3.64199e-06
-3.64394e-06
-3.64587e-06
-3.64781e-06
-3.64973e-06
-3.65165e-06
-3.65354e-06
-3.65545e-06
-3.65733e-06
-3.65922e-06
-3.66107e-06
-3.66295e-06
-3.66478e-06
-3.66664e-06
-3.66845e-06
-3.6703e-06
-3.67209e-06
-3.67393e-06
-3.67568e-06
-3.67752e-06
-3.67924e-06
-3.68107e-06
-3.68276e-06
-3.68458e-06
-3.68623e-06
-3.68806e-06
-3.68967e-06
-3.69151e-06
-3.69306e-06
-3.69493e-06
-3.69641e-06
-3.69831e-06
-3.69971e-06
-3.70167e-06
-3.70297e-06
-3.705e-06
-3.70618e-06
-3.70831e-06
-3.70934e-06
-3.71161e-06
-3.71245e-06
-3.71491e-06
-3.7155e-06
-3.71822e-06
-3.7185e-06
-3.72155e-06
-3.72143e-06
-3.72493e-06
-3.72429e-06
-3.72839e-06
-3.72708e-06
-3.73197e-06
-3.72979e-06
-3.73571e-06
-3.73241e-06
-3.73968e-06
-3.73494e-06
-3.74396e-06
-3.73736e-06
-3.74867e-06
-3.73967e-06
-3.75396e-06
-3.74185e-06
-3.76e-06
-3.74389e-06
-3.76702e-06
-3.74582e-06
-3.77522e-06
-3.74771e-06
-3.78469e-06
-3.74975e-06
-3.79504e-06
-3.75241e-06
-3.80464e-06
-3.75669e-06
-3.80836e-06
-3.76421e-06
-3.79068e-06
-3.77673e-06
-3.69454e-06
-3.78877e-06
-3.08747e-06
-3.38286e-06
-3.38286e-06
-0.142151
0.142151
0.101003
0.0539109
0.0302543
0.0189161
0.0129254
0.00941076
0.00717779
0.00567485
0.00461833
0.00384931
0.0032728
0.00282928
0.00248009
0.00219941
0.00196958
0.00177827
0.00161671
0.00147855
0.00135911
0.00125487
0.00116315
0.00108187
0.00100939
0.000944413
0.000885867
0.000832889
0.00078476
0.000740881
0.000700744
0.000663919
0.000630038
0.000598784
0.000569882
0.000543094
0.000518211
0.000495049
0.000473449
0.000453267
0.000434377
0.000416668
0.000400038
0.000384398
0.000369668
0.000355774
0.000342652
0.000330244
0.000318495
0.000307359
0.000296792
0.000286753
0.000277206
0.000268117
0.000259455
0.000251192
0.000243302
0.000235763
0.000228551
0.000221649
0.000215037
0.000208697
0.000202614
0.000196771
0.000191156
0.000185755
0.000180556
0.000175549
0.000170725
0.000166075
0.00016159
0.000157262
0.000153082
0.000149042
0.000145136
0.000141357
0.000137699
0.000134158
0.000130729
0.000127407
0.000124188
0.000121066
0.000118036
0.000115093
0.000112233
0.000109454
0.000106752
0.000104127
0.000101577
9.90988e-05
9.66906e-05
9.43487e-05
9.20693e-05
8.98492e-05
8.76857e-05
8.55776e-05
8.35247e-05
8.1527e-05
7.95835e-05
7.76923e-05
7.58499e-05
7.4053e-05
7.22988e-05
7.05855e-05
6.89123e-05
6.72791e-05
6.56859e-05
6.41334e-05
6.26219e-05
6.11514e-05
5.97202e-05
5.83247e-05
5.69605e-05
5.56242e-05
5.43152e-05
5.3036e-05
5.179e-05
5.05793e-05
4.94027e-05
4.8256e-05
4.7134e-05
4.60336e-05
4.4954e-05
4.38963e-05
4.28615e-05
4.185e-05
4.08615e-05
3.98971e-05
3.89582e-05
3.80461e-05
3.7159e-05
3.62917e-05
3.54377e-05
3.45926e-05
3.37577e-05
3.29392e-05
3.21451e-05
3.13794e-05
3.06397e-05
2.9918e-05
2.92057e-05
2.84979e-05
2.77957e-05
2.71043e-05
2.64293e-05
2.57733e-05
2.51364e-05
2.45173e-05
2.39151e-05
2.33291e-05
2.27575e-05
2.21959e-05
2.16388e-05
2.10831e-05
2.05307e-05
1.99894e-05
1.94684e-05
1.89727e-05
1.84991e-05
1.80366e-05
1.75721e-05
1.70977e-05
1.66144e-05
1.61309e-05
1.56582e-05
1.52034e-05
1.47659e-05
1.43397e-05
1.39172e-05
1.34931e-05
1.30648e-05
1.26314e-05
1.2192e-05
1.17457e-05
1.12941e-05
1.08435e-05
1.04032e-05
9.98063e-06
9.57567e-06
9.17742e-06
8.76796e-06
8.33165e-06
7.86501e-06
7.38127e-06
6.90549e-06
6.46218e-06
6.06186e-06
5.69425e-06
5.33269e-06
4.94782e-06
4.52339e-06
4.06556e-06
3.60027e-06
3.16021e-06
2.76808e-06
2.42526e-06
2.11156e-06
1.79611e-06
1.45315e-06
1.07476e-06
6.74055e-07
2.77768e-07
-8.72824e-08
-4.06903e-07
-6.85176e-07
-9.40917e-07
-1.19744e-06
-1.47117e-06
-1.76454e-06
-2.06622e-06
-2.35763e-06
-2.62208e-06
-2.85203e-06
-3.05134e-06
-3.23219e-06
-3.40864e-06
-3.59032e-06
-3.77888e-06
-3.96847e-06
-4.14939e-06
-4.3129e-06
-4.45484e-06
-4.57683e-06
-4.68477e-06
-4.7858e-06
-4.88533e-06
-4.98512e-06
-5.08335e-06
-5.17606e-06
-5.25925e-06
-5.33067e-06
-5.39057e-06
-5.44137e-06
-5.48648e-06
-5.52899e-06
-5.57062e-06
-5.61142e-06
-5.65013e-06
-5.68494e-06
-5.71437e-06
-5.7378e-06
-5.75569e-06
-5.76934e-06
-5.78039e-06
-5.79034e-06
-5.80018e-06
-5.81023e-06
-5.82028e-06
-5.82978e-06
-5.83816e-06
-5.84506e-06
-5.85039e-06
-5.8544e-06
-5.8575e-06
-5.86017e-06
-5.86283e-06
-5.86571e-06
-5.86892e-06
-5.87239e-06
-5.87598e-06
-5.87952e-06
-5.88291e-06
-5.88606e-06
-5.88899e-06
-5.89175e-06
-5.89442e-06
-5.89706e-06
-5.89975e-06
-5.9025e-06
-5.90533e-06
-5.90822e-06
-5.91113e-06
-5.91404e-06
-5.91693e-06
-5.91978e-06
-5.9226e-06
-5.92538e-06
-5.92815e-06
-5.93089e-06
-5.93363e-06
-5.93638e-06
-5.93912e-06
-5.94187e-06
-5.94461e-06
-5.94735e-06
-5.95008e-06
-5.9528e-06
-5.95551e-06
-5.9582e-06
-5.96089e-06
-5.96356e-06
-5.96622e-06
-5.96887e-06
-5.97152e-06
-5.97415e-06
-5.97678e-06
-5.9794e-06
-5.982e-06
-5.9846e-06
-5.98719e-06
-5.98977e-06
-5.99234e-06
-5.9949e-06
-5.99745e-06
-5.99998e-06
-6.00251e-06
-6.00503e-06
-6.00754e-06
-6.01003e-06
-6.01251e-06
-6.01498e-06
-6.01745e-06
-6.01989e-06
-6.02234e-06
-6.02476e-06
-6.02719e-06
-6.02958e-06
-6.03199e-06
-6.03436e-06
-6.03675e-06
-6.03909e-06
-6.04146e-06
-6.04377e-06
-6.04612e-06
-6.0484e-06
-6.05074e-06
-6.05298e-06
-6.0553e-06
-6.05751e-06
-6.05982e-06
-6.06199e-06
-6.0643e-06
-6.06641e-06
-6.06873e-06
-6.07078e-06
-6.07311e-06
-6.0751e-06
-6.07744e-06
-6.07936e-06
-6.08174e-06
-6.08356e-06
-6.08599e-06
-6.0877e-06
-6.09021e-06
-6.09178e-06
-6.0944e-06
-6.0958e-06
-6.09857e-06
-6.09974e-06
-6.10272e-06
-6.10362e-06
-6.10687e-06
-6.10742e-06
-6.11104e-06
-6.11114e-06
-6.11525e-06
-6.11478e-06
-6.11954e-06
-6.11832e-06
-6.12395e-06
-6.12176e-06
-6.12852e-06
-6.12508e-06
-6.13335e-06
-6.12828e-06
-6.13853e-06
-6.13134e-06
-6.14417e-06
-6.13426e-06
-6.15046e-06
-6.13701e-06
-6.15761e-06
-6.13958e-06
-6.16592e-06
-6.14196e-06
-6.17577e-06
-6.14414e-06
-6.18765e-06
-6.1461e-06
-6.20221e-06
-6.14786e-06
-6.22018e-06
-6.1495e-06
-6.24232e-06
-6.15129e-06
-6.269e-06
-6.15386e-06
-6.29919e-06
-6.15865e-06
-6.32789e-06
-6.1683e-06
-6.33922e-06
-6.18644e-06
-6.28535e-06
-6.21363e-06
-5.99364e-06
-6.21205e-06
-4.31106e-06
-5.09476e-06
-5.09476e-06
-0.122225
0.122225
0.121661
0.0822657
0.0539926
0.0368617
0.0263908
0.0197139
0.0152631
0.0121776
0.00996581
0.00833401
0.007099
0.00614258
0.00538621
0.00477651
0.00427648
0.00385995
0.00350816
0.0032074
0.00294752
0.00272084
0.00252151
0.00234497
0.00218764
0.00204664
0.00191966
0.0018048
0.00170048
0.0016054
0.00151844
0.00143868
0.00136529
0.00129761
0.00123503
0.00117702
0.00112315
0.001073
0.00102624
0.000982551
0.000941659
0.000903323
0.000867325
0.000833471
0.000801587
0.000771515
0.000743114
0.000716259
0.000690833
0.000666734
0.000643866
0.000622142
0.000601482
0.000581814
0.000563072
0.000545193
0.000528122
0.00051181
0.000496209
0.000481275
0.00046697
0.000453255
0.000440095
0.000427457
0.000415311
0.000403628
0.000392386
0.00038156
0.000371131
0.000361077
0.000351381
0.000342024
0.000332988
0.000324256
0.000315812
0.000307645
0.00029974
0.000292089
0.000284679
0.000277502
0.000270546
0.0002638
0.000257252
0.000250895
0.000244718
0.000238717
0.000232886
0.00022722
0.000221716
0.000216369
0.000211171
0.000206116
0.000201197
0.000196406
0.000191739
0.000187193
0.000182767
0.00017846
0.000174269
0.00017019
0.000166215
0.000162339
0.000158557
0.000154864
0.00015126
0.000147743
0.000144315
0.000140974
0.000137722
0.000134557
0.000131474
0.000128468
0.000125529
0.000122653
0.000119839
0.000117091
0.000114414
0.000111812
0.000109281
0.000106812
0.000104396
0.000102028
9.97079e-05
9.74363e-05
9.52156e-05
9.30458e-05
9.09267e-05
8.88594e-05
8.68463e-05
8.48881e-05
8.29806e-05
8.11139e-05
7.92768e-05
7.74629e-05
7.56758e-05
7.39272e-05
7.22299e-05
7.05893e-05
6.89989e-05
6.74438e-05
6.59092e-05
6.43883e-05
6.28844e-05
6.14072e-05
5.9966e-05
5.8565e-05
5.72031e-05
5.58776e-05
5.45864e-05
5.33278e-05
5.20976e-05
5.08878e-05
4.96894e-05
4.84981e-05
4.73192e-05
4.61665e-05
4.50551e-05
4.39912e-05
4.29661e-05
4.19592e-05
4.09483e-05
3.99216e-05
3.88832e-05
3.785e-05
3.68406e-05
3.5865e-05
3.49201e-05
3.39937e-05
3.30722e-05
3.21461e-05
3.12118e-05
3.02682e-05
2.9314e-05
2.83488e-05
2.73768e-05
2.64096e-05
2.54628e-05
2.45472e-05
2.36594e-05
2.27778e-05
2.18716e-05
2.09169e-05
1.99133e-05
1.88884e-05
1.78873e-05
1.69495e-05
1.60873e-05
1.52769e-05
1.44695e-05
1.36165e-05
1.26963e-05
1.17267e-05
1.07572e-05
9.8439e-06
9.02083e-06
8.28317e-06
7.5906e-06
6.88872e-06
6.13694e-06
5.32825e-06
4.49143e-06
3.67544e-06
2.92492e-06
2.25939e-06
1.6662e-06
1.10934e-06
5.48609e-07
-4.10009e-08
-6.58971e-07
-1.28184e-06
-1.87616e-06
-2.41462e-06
-2.88757e-06
-3.3052e-06
-3.69066e-06
-4.06826e-06
-4.45284e-06
-4.84471e-06
-5.23174e-06
-5.59651e-06
-5.9247e-06
-6.21096e-06
-6.45999e-06
-6.68329e-06
-6.89356e-06
-7.09947e-06
-7.30307e-06
-7.50028e-06
-7.68388e-06
-7.84726e-06
-7.98733e-06
-8.1055e-06
-8.20672e-06
-8.29727e-06
-8.38239e-06
-8.46471e-06
-8.54389e-06
-8.61747e-06
-8.68235e-06
-8.73623e-06
-8.77854e-06
-8.81056e-06
-8.83494e-06
-8.85473e-06
-8.87258e-06
-8.89007e-06
-8.90764e-06
-8.92474e-06
-8.94041e-06
-8.95368e-06
-8.96402e-06
-8.97147e-06
-8.97657e-06
-8.98015e-06
-8.98309e-06
-8.98609e-06
-8.98956e-06
-8.9936e-06
-8.99805e-06
-9.00265e-06
-9.00712e-06
-9.01123e-06
-9.01492e-06
-9.01822e-06
-9.02122e-06
-9.02409e-06
-9.02695e-06
-9.02992e-06
-9.03302e-06
-9.03625e-06
-9.03959e-06
-9.04296e-06
-9.04633e-06
-9.04966e-06
-9.05292e-06
-9.05612e-06
-9.05926e-06
-9.06237e-06
-9.06547e-06
-9.06856e-06
-9.07166e-06
-9.07477e-06
-9.07789e-06
-9.08101e-06
-9.08412e-06
-9.08722e-06
-9.09031e-06
-9.09338e-06
-9.09643e-06
-9.09947e-06
-9.10249e-06
-9.1055e-06
-9.10849e-06
-9.11148e-06
-9.11445e-06
-9.11742e-06
-9.12038e-06
-9.12333e-06
-9.12626e-06
-9.12919e-06
-9.13209e-06
-9.135e-06
-9.13788e-06
-9.14076e-06
-9.14361e-06
-9.14646e-06
-9.14929e-06
-9.15212e-06
-9.15492e-06
-9.15772e-06
-9.16049e-06
-9.16327e-06
-9.16601e-06
-9.16877e-06
-9.17148e-06
-9.17422e-06
-9.17689e-06
-9.17961e-06
-9.18225e-06
-9.18494e-06
-9.18755e-06
-9.19022e-06
-9.19278e-06
-9.19545e-06
-9.19796e-06
-9.20061e-06
-9.20308e-06
-9.20573e-06
-9.20814e-06
-9.21078e-06
-9.21313e-06
-9.21578e-06
-9.21805e-06
-9.22073e-06
-9.22291e-06
-9.22563e-06
-9.2277e-06
-9.23048e-06
-9.23241e-06
-9.23528e-06
-9.23705e-06
-9.24005e-06
-9.24161e-06
-9.24479e-06
-9.2461e-06
-9.2495e-06
-9.25049e-06
-9.25422e-06
-9.2548e-06
-9.25895e-06
-9.25901e-06
-9.26373e-06
-9.26311e-06
-9.26858e-06
-9.2671e-06
-9.27357e-06
-9.27097e-06
-9.27875e-06
-9.27469e-06
-9.28422e-06
-9.27827e-06
-9.29008e-06
-9.28166e-06
-9.29648e-06
-9.28487e-06
-9.30363e-06
-9.28786e-06
-9.31177e-06
-9.29063e-06
-9.32125e-06
-9.29314e-06
-9.33251e-06
-9.29538e-06
-9.34614e-06
-9.29732e-06
-9.36293e-06
-9.29896e-06
-9.38389e-06
-9.30028e-06
-9.41031e-06
-9.30132e-06
-9.44372e-06
-9.30227e-06
-9.48569e-06
-9.30364e-06
-9.53711e-06
-9.3067e-06
-9.59633e-06
-9.314e-06
-9.65439e-06
-9.32986e-06
-9.68266e-06
-9.35852e-06
-9.59533e-06
-9.39232e-06
-9.08999e-06
-9.32636e-06
-6.39337e-06
-7.29246e-06
-7.29246e-06
-0.0942771
0.0942771
0.121014
0.0969676
0.0717916
0.0531961
0.040199
0.0311095
0.0246557
0.0199831
0.01653
0.0139258
0.0119229
0.0103532
0.00910078
0.00808462
0.00724724
0.0065473
0.00595467
0.00544712
0.00500798
0.00462459
0.00428721
0.00398825
0.00372169
0.00348271
0.00326741
0.00307258
0.00289559
0.00273421
0.00258658
0.00245112
0.00232647
0.00221146
0.0021051
0.00200649
0.00191488
0.00182959
0.00175004
0.0016757
0.0016061
0.00154085
0.00147956
0.00142191
0.00136761
0.00131639
0.00126801
0.00122226
0.00117893
0.00113787
0.00109889
0.00106186
0.00102665
0.000993119
0.000961165
0.000930681
0.000901574
0.000873758
0.000847152
0.000821684
0.000797286
0.000773892
0.000751444
0.000729886
0.000709167
0.00068924
0.000670063
0.000651598
0.000633809
0.000616661
0.000600123
0.000584162
0.000568748
0.000553853
0.000539452
0.000525521
0.00051204
0.00049899
0.000486353
0.000474111
0.000462246
0.000450739
0.000439572
0.000428729
0.000418197
0.000407966
0.000398027
0.000388371
0.00037899
0.000369876
0.000361017
0.000352401
0.000344016
0.000335852
0.0003279
0.000320156
0.000312617
0.00030528
0.00029814
0.00029119
0.000284418
0.000277814
0.000271371
0.000265083
0.000258949
0.000252966
0.000247133
0.000241452
0.00023592
0.000230534
0.000225289
0.000220172
0.000215172
0.000210281
0.000205498
0.00020083
0.000196283
0.00019186
0.000187556
0.000183355
0.000179247
0.000175221
0.000171279
0.000167423
0.000163654
0.000159974
0.00015638
0.000152874
0.000149459
0.000146135
0.000142894
0.000139722
0.000136601
0.000133525
0.000130499
0.00012754
0.000124667
0.000121884
0.000119182
0.000116537
0.000113929
0.000111348
0.000108801
0.000106303
0.000103866
0.000101497
9.91916e-05
9.69458e-05
9.47559e-05
9.26187e-05
9.05279e-05
8.84717e-05
8.64374e-05
8.44197e-05
8.24271e-05
8.04799e-05
7.85989e-05
7.67908e-05
7.50405e-05
7.33169e-05
7.15882e-05
6.9839e-05
6.80776e-05
6.63295e-05
6.46209e-05
6.29643e-05
6.13529e-05
5.97672e-05
5.81866e-05
5.65981e-05
5.49969e-05
5.33822e-05
5.17528e-05
5.01087e-05
4.84569e-05
4.68141e-05
4.52024e-05
4.36357e-05
4.21063e-05
4.0582e-05
3.90186e-05
3.73849e-05
3.56846e-05
3.39616e-05
3.22819e-05
3.07e-05
2.92287e-05
2.78287e-05
2.64277e-05
2.4958e-05
2.3394e-05
2.1768e-05
2.01552e-05
1.86357e-05
1.72538e-05
1.59962e-05
1.48002e-05
1.35868e-05
1.23014e-05
1.09399e-05
9.54942e-06
8.20277e-06
6.9625e-06
5.85208e-06
4.84815e-06
3.89575e-06
2.93728e-06
1.93996e-06
9.09014e-07
-1.18203e-07
-1.0924e-06
-1.97582e-06
-2.75781e-06
-3.45642e-06
-4.10691e-06
-4.74424e-06
-5.38798e-06
-6.03621e-06
-6.66956e-06
-7.26242e-06
-7.7951e-06
-8.26172e-06
-8.671e-06
-9.0408e-06
-9.38969e-06
-9.72964e-06
-1.00626e-05
-1.03819e-05
-1.06768e-05
-1.09382e-05
-1.11625e-05
-1.13527e-05
-1.15168e-05
-1.16641e-05
-1.18021e-05
-1.19342e-05
-1.20596e-05
-1.21746e-05
-1.22747e-05
-1.2357e-05
-1.24213e-05
-1.24699e-05
-1.25071e-05
-1.25376e-05
-1.2565e-05
-1.25917e-05
-1.2618e-05
-1.26432e-05
-1.26657e-05
-1.26842e-05
-1.26981e-05
-1.27076e-05
-1.27137e-05
-1.27177e-05
-1.27208e-05
-1.27242e-05
-1.27282e-05
-1.27331e-05
-1.27386e-05
-1.27442e-05
-1.27495e-05
-1.27542e-05
-1.27583e-05
-1.27618e-05
-1.2765e-05
-1.27679e-05
-1.27709e-05
-1.2774e-05
-1.27773e-05
-1.27809e-05
-1.27846e-05
-1.27883e-05
-1.27921e-05
-1.27957e-05
-1.27993e-05
-1.28028e-05
-1.28062e-05
-1.28095e-05
-1.28128e-05
-1.28162e-05
-1.28195e-05
-1.28229e-05
-1.28263e-05
-1.28297e-05
-1.28331e-05
-1.28364e-05
-1.28398e-05
-1.28431e-05
-1.28464e-05
-1.28497e-05
-1.2853e-05
-1.28562e-05
-1.28594e-05
-1.28627e-05
-1.28659e-05
-1.28691e-05
-1.28723e-05
-1.28755e-05
-1.28786e-05
-1.28818e-05
-1.28849e-05
-1.2888e-05
-1.28911e-05
-1.28942e-05
-1.28973e-05
-1.29004e-05
-1.29034e-05
-1.29065e-05
-1.29095e-05
-1.29125e-05
-1.29155e-05
-1.29185e-05
-1.29214e-05
-1.29244e-05
-1.29273e-05
-1.29302e-05
-1.29331e-05
-1.2936e-05
-1.29388e-05
-1.29417e-05
-1.29445e-05
-1.29474e-05
-1.29501e-05
-1.29529e-05
-1.29556e-05
-1.29585e-05
-1.29611e-05
-1.29639e-05
-1.29664e-05
-1.29693e-05
-1.29717e-05
-1.29747e-05
-1.2977e-05
-1.298e-05
-1.29821e-05
-1.29852e-05
-1.29872e-05
-1.29904e-05
-1.29922e-05
-1.29955e-05
-1.2997e-05
-1.30006e-05
-1.30018e-05
-1.30057e-05
-1.30065e-05
-1.30108e-05
-1.30111e-05
-1.30159e-05
-1.30155e-05
-1.30211e-05
-1.30199e-05
-1.30263e-05
-1.30241e-05
-1.30318e-05
-1.30281e-05
-1.30375e-05
-1.3032e-05
-1.30435e-05
-1.30356e-05
-1.305e-05