# vtk DataFile Version 2.0
FlowField
ASCII
DATASET STRUCTURED_GRID
DIMENSIONS 400 1 50
POINTS 20000 float
0 0 0
0.08 0 0
0.16 0 0
0.24 0 0
0.32 0 0
0.4 0 0
0.48 0 0
0.56 0 0
0.64 0 0
0.72 0 0
0.8 0 0
0.88 0 0
0.96 0 0
1.04 0 0
1.12 0 0
1.2 0 0
1.28 0 0
1.36 0 0
1.44 0 0
1.52 0 0
1.6 0 0
1.68 0 0
1.76 0 0
1.84 0 0
1.92 0 0
2 0 0
2.08 0 0
2.16 0 0
2.24 0 0
2.32 0 0
2.4 0 0
2.48 0 0
2.56 0 0
2.64 0 0
2.72 0 0
2.8 0 0
2.88 0 0
2.96 0 0
3.04 0 0
3.12 0 0
3.2 0 0
3.28 0 0
3.36 0 0
3.44 0 0
3.52 0 0
3.6 0 0
3.68 0 0
3.76 0 0
3.84 0 0
3.92 0 0
4 0 0
4.08 0 0
4.16 0 0
4.24 0 0
4.32 0 0
4.4 0 0
4.48 0 0
4.56 0 0
4.64 0 0
4.72 0 0
4.8 0 0
4.88 0 0
4.96 0 0
5.04 0 0
5.12 0 0
5.2 0 0
5.28 0 0
5.36 0 0
5.44 0 0
5.52 0 0
5.6 0 0
5.68 0 0
5.76 0 0
5.84 0 0
5.92 0 0
6 0 0
6.08 0 0
6.16 0 0
6.24 0 0
6.32 0 0
6.4 0 0
6.48 0 0
6.56 0 0
6.64 0 0
6.72 0 0
6.8 0 0
6.88 0 0
6.96 0 0
7.04 0 0
7.12 0 0
7.2 0 0
7.28 0 0
7.36 0 0
7.44 0 0
7.52 0 0
7.6 0 0
7.68 0 0
7.76 0 0
7.84 0 0
7.92 0 0
8 0 0
8.08 0 0
8.16 0 0
8.24 0 0
8.32 0 0
8.4 0 0
8.48 0 0
8.56 0 0
8.64 0 0
8.72 0 0
8.8 0 0
8.88 0 0
8.96 0 0
9.04 0 0
9.12 0 0
9.2 0 0
9.28 0 0
9.36 0 0
9.44 0 0
9.52 0 0
9.6 0 0
9.68 0 0
9.76 0 0
9.84 0 0
9.92 0 0
10 0 0
10.08 0 0
10.16 0 0
10.24 0 0
10.32 0 0
10.4 0 0
10.48 0 0
10.56 0 0
10.64 0 0
10.72 0 0
10.8 0 0
10.88 0 0
10.96 0 0
11.04 0 0
11.12 0 0
11.2 0 0
11.28 0 0
11.36 0 0
11.44 0 0
11.52 0 0
11.6 0 0
11.68 0 0
11.76 0 0
11.84 0 0
11.92 0 0
12 0 0
12.08 0 0
12.16 0 0
12.24 0 0
12.32 0 0
12.4 0 0
12.48 0 0
12.56 0 0
12.64 0 0
12.72 0 0
12.8 0 0
12.88 0 0
12.96 0 0
13.04 0 0
13.12 0 0
13.2 0 0
13.28 0 0
13.36 0 0
13.44 0 0
13.52 0 0
13.6 0 0
13.68 0 0
13.76 0 0
13.84 0 0
13.92 0 0
14 0 0
14.08 0 0
14.16 0 0
14.24 0 0
14.32 0 0
14.4 0 0
14.48 0 0
14.56 0 0
14.64 0 0
14.72 0 0
14.8 0 0
14.88 0 0
14.96 0 0
15.04 0 0
15.12 0 0
15.2 0 0
15.28 0 0
15.36 0 0
15.44 0 0
15.52 0 0
15.6 0 0
15.68 0 0
15.76 0 0
15.84 0 0
15.92 0 0
16 0 0
16.08 0 0
16.16 0 0
16.24 0 0
16.32 0 0
16.4 0 0
16.48 0 0
16.56 0 0
16.64 0 0
16.72 0 0
16.8 0 0
16.88 0 0
16.96 0 0
17.04 0 0
17.12 0 0
17.2 0 0
17.28 0 0
17.36 0 0
17.44 0 0
17.52 0 0
17.6 0 0
17.68 0 0
17.76 0 0
17.84 0 0
17.92 0 0
18 0 0
18.08 0 0
18.16 0 0
18.24 0 0
18.32 0 0
18.4 0 0
18.48 0 0
18.56 0 0
18.64 0 0
18.72 0 0
18.8 0 0
18.88 0 0
18.96 0 0
19.04 0 0
19.12 0 0
19.2 0 0
19.28 0 0
19.36 0 0
19.44 0 0
19.52 0 0
19.6 0 0
19.68 0 0
19.76 0 0
19.84 0 0
19.92 0 0
20 0 0
20.08 0 0
20.16 0 0
20.24 0 0
20.32 0 0
20.4 0 0
20.48 0 0
20.56 0 0
20.64 0 0
20.72 0 0
20.8 0 0
20.88 0 0
20.96 0 0
21.04 0 0
21.12 0 0
21.2 0 0
21.28 0 0
21.36 0 0
21.44 0 0
21.52 0 0
21.6 0 0
21.68 0 0
21.76 0 0
21.84 0 0
21.92 0 0
22 0 0
22.08 0 0
22.16 0 0
22.24 0 0
22.32 0 0
22.4 0 0
22.48 0 0
22.56 0 0
22.64 0 0
22.72 0 0
22.8 0 0
22.88 0 0
22.96 0 0
23.04 0 0
23.12 0 0
23.2 0 0
23.28 0 0
23.36 0 0
23.44 0 0
23.52 0 0
23.6 0 0
23.68 0 0
23.76 0 0
23.84 0 0
23.92 0 0
24 0 0
24.08 0 0
24.16 0 0
24.24 0 0
24.32 0 0
24.4 0 0
24.48 0 0
24.56 0 0
24.64 0 0
24.72 0 0
24.8 0 0
24.88 0 0
24.96 0 0
25.04 0 0
25.12 0 0
25.2 0 0
25.28 0 0
25.36 0 0
25.44 0 0
25.52 0 0
25.6 0 0
25.68 0 0
25.76 0 0
25.84 0 0
25.92 0 0
26 0 0
26.08 0 0
26.16 0 0
26.24 0 0
26.32 0 0
26.4 0 0
26.48 0 0
26.56 0 0
26.64 0 0
26.72 0 0
26.8 0 0
26.88 0 0
26.96 0 0
27.04 0 0
27.12 0 0
27.2 0 0
27.28 0 0
27.36 0 0
27.44 0 0
27.52 0 0
27.6 0 0
27.68 0 0
27.76 0 0
27.84 0 0
27.92 0 0
28 0 0
28.08 0 0
28.16 0 0
28.24 0 0
28.32 0 0
28.4 0 0
28.48 0 0
28.56 0 0
28.64 0 0
28.72 0 0
28.8 0 0
28.88 0 0
28.96 0 0
29.04 0 0
29.12 0 0
29.2 0 0
29.28 0 0
29.36 0 0
29.44 0 0
29.52 0 0
29.6 0 0
29.68 0 0
29.76 0 0
29.84 0 0
29.92 0 0
30 0 0
30.08 0 0
30.16 0 0
30.24 0 0
30.32 0 0
30.4 0 0
30.48 0 0
30.56 0 0
30.64 0 0
30.72 0 0
30.8 0 0
30.88 0 0
30.96 0 0
31.04 0 0
31.12 0 0
31.2 0 0
31.28 0 0
31.36 0 0
31.44 0 0
31.52 0 0
31.6 0 0
31.68 0 0
31.76 0 0
31.84 0 0
31.92 0 0
0 0.02 0
0.08 0.02 0
0.16 0.02 0
0.24 0.02 0
0.32 0.02 0
0.4 0.02 0
0.48 0.02 0
0.56 0.02 0
0.64 0.02 0
0.72 0.02 0
0.8 0.02 0
0.88 0.02 0
0.96 0.02 0
1.04 0.02 0
1.12 0.02 0
1.2 0.02 0
1.28 0.02 0
1.36 0.02 0
1.44 0.02 0
1.52 0.02 0
1.6 0.02 0
1.68 0.02 0
1.76 0.02 0
1.84 0.02 0
1.92 0.02 0
2 0.02 0
2.08 0.02 0
2.16 0.02 0
2.24 0.02 0
2.32 0.02 0
2.4 0.02 0
2.48 0.02 0
2.56 0.02 0
2.64 0.02 0
2.72 0.02 0
2.8 0.02 0
2.88 0.02 0
2.96 0.02 0
3.04 0.02 0
3.12 0.02 0
3.2 0.02 0
3.28 0.02 0
3.36 0.02 0
3.44 0.02 0
3.52 0.02 0
3.6 0.02 0
3.68 0.02 0
3.76 0.02 0
3.84 0.02 0
3.92 0.02 0
4 0.02 0
4.08 0.02 0
4.16 0.02 0
4.24 0.02 0
4.32 0.02 0
4.4 0.02 0
4.48 0.02 0
4.56 0.02 0
4.64 0.02 0
4.72 0.02 0
4.8 0.02 0
4.88 0.02 0
4.96 0.02 0
5.04 0.02 0
5.12 0.02 0
5.2 0.02 0
5.28 0.02 0
5.36 0.02 0
5.44 0.02 0
5.52 0.02 0
5.6 0.02 0
5.68 0.02 0
5.76 0.02 0
5.84 0.02 0
5.92 0.02 0
6 0.02 0
6.08 0.02 0
6.16 0.02 0
6.24 0.02 0
6.32 0.02 0
6.4 0.02 0
6.48 0.02 0
6.56 0.02 0
6.64 0.02 0
6.72 0.02 0
6.8 0.02 0
6.88 0.02 0
6.96 0.02 0
7.04 0.02 0
7.12 0.02 0
7.2 0.02 0
7.28 0.02 0
7.36 0.02 0
7.44 0.02 0
7.52 0.02 0
7.6 0.02 0
7.68 0.02 0
7.76 0.02 0
7.84 0.02 0
7.92 0.02 0
8 0.02 0
8.08 0.02 0
8.16 0.02 0
8.24 0.02 0
8.32 0.02 0
8.4 0.02 0
8.48 0.02 0
8.56 0.02 0
8.64 0.02 0
8.72 0.02 0
8.8 0.02 0
8.88 0.02 0
8.96 0.02 0
9.04 0.02 0
9.12 0.02 0
9.2 0.02 0
9.28 0.02 0
9.36 0.02 0
9.44 0.02 0
9.52 0.02 0
9.6 0.02 0
9.68 0.02 0
9.76 0.02 0
9.84 0.02 0
9.92 0.02 0
10 0.02 0
10.08 0.02 0
10.16 0.02 0
10.24 0.02 0
10.32 0.02 0
10.4 0.02 0
10.48 0.02 0
10.56 0.02 0
10.64 0.02 0
10.72 0.02 0
10.8 0.02 0
10.88 0.02 0
10.96 0.02 0
11.04 0.02 0
11.12 0.02 0
11.2 0.02 0
11.28 0.02 0
11.36 0.02 0
11.44 0.02 0
11.52 0.02 0
11.6 0.02 0
11.68 0.02 0
11.76 0.02 0
11.84 0.02 0
11.92 0.02 0
12 0.02 0
12.08 0.02 0
12.16 0.02 0
12.24 0.02 0
12.32 0.02 0
12.4 0.02 0
12.48 0.02 0
12.56 0.02 0
12.64 0.02 0
12.72 0.02 0
12.8 0.02 0
12.88 0.02 0
12.96 0.02 0
13.04 0.02 0
13.12 0.02 0
13.2 0.02 0
13.28 0.02 0
13.36 0.02 0
13.44 0.02 0
13.52 0.02 0
13.6 0.02 0
13.68 0.02 0
13.76 0.02 0
13.84 0.02 0
13.92 0.02 0
14 0.02 0
14.08 0.02 0
14.16 0.02 0
14.24 0.02 0
14.32 0.02 0
14.4 0.02 0
14.48 0.02 0
14.56 0.02 0
14.64 0.02 0
14.72 0.02 0
14.8 0.02 0
14.88 0.02 0
14.96 0.02 0
15.04 0.02 0
15.12 0.02 0
15.2 0.02 0
15.28 0.02 0
15.36 0.02 0
15.44 0.02 0
15.52 0.02 0
15.6 0.02 0
15.68 0.02 0
15.76 0.02 0
15.84 0.02 0
15.92 0.02 0
16 0.02 0
16.08 0.02 0
16.16 0.02 0
16.24 0.02 0
16.32 0.02 0
16.4 0.02 0
16.48 0.02 0
16.56 0.02 0
16.64 0.02 0
16.72 0.02 0
16.8 0.02 0
16.88 0.02 0
16.96 0.02 0
17.04 0.02 0
17.12 0.02 0
17.2 0.02 0
17.28 0.02 0
17.36 0.02 0
17.44 0.02 0
17.52 0.02 0
17.6 0.02 0
17.68 0.02 0
17.76 0.02 0
17.84 0.02 0
17.92 0.02 0
18 0.02 0
18.08 0.02 0
18.16 0.02 0
18.24 0.02 0
18.32 0.02 0
18.4 0.02 0
18.48 0.02 0
18.56 0.02 0
18.64 0.02 0
18.72 0.02 0
18.8 0.02 0
18.88 0.02 0
18.96 0.02 0
19.04 0.02 0
19.12 0.02 0
19.2 0.02 0
19.28 0.02 0
19.36 0.02 0
19.44 0.02 0
19.52 0.02 0
19.6 0.02 0
19.68 0.02 0
19.76 0.02 0
19.84 0.02 0
19.92 0.02 0
20 0.02 0
20.08 0.02 0
20.16 0.02 0
20.24 0.02 0
20.32 0.02 0
20.4 0.02 0
20.48 0.02 0
20.56 0.02 0
20.64 0.02 0
20.72 0.02 0
20.8 0.02 0
20.88 0.02 0
20.96 0.02 0
21.04 0.02 0
21.12 0.02 0
21.2 0.02 0
21.28 0.02 0
21.36 0.02 0
21.44 0.02 0
21.52 0.02 0
21.6 0.02 0
21.68 0.02 0
21.76 0.02 0
21.84 0.02 0
21.92 0.02 0
22 0.02 0
22.08 0.02 0
22.16 0.02 0
22.24 0.02 0
22.32 0.02 0
22.4 0.02 0
22.48 0.02 0
22.56 0.02 0
22.64 0.02 0
22.72 0.02 0
22.8 0.02 0
22.88 0.02 0
22.96 0.02 0
23.04 0.02 0
23.12 0.02 0
23.2 0.02 0
23.28 0.02 0
23.36 0.02 0
23.44 0.02 0
23.52 0.02 0
23.6 0.02 0
23.68 0.02 0
23.76 0.02 0
23.84 0.02 0
23.92 0.02 0
24 0.02 0
24.08 0.02 0
24.16 0.02 0
24.24 0.02 0
24.32 0.02 0
24.4 0.02 0
24.48 0.02 0
24.56 0.02 0
24.64 0.02 0
24.72 0.02 0
24.8 0.02 0
24.88 0.02 0
24.96 0.02 0
25.04 0.02 0
25.12 0.02 0
25.2 0.02 0
25.28 0.02 0
25.36 0.02 0
25.44 0.02 0
25.52 0.02 0
25.6 0.02 0
25.68 0.02 0
25.76 0.02 0
25.84 0.02 0
25.92 0.02 0
26 0.02 0
26.08 0.02 0
26.16 0.02 0
26.24 0.02 0
26.32 0.02 0
26.4 0.02 0
26.48 0.02 0
26.56 0.02 0
26.64 0.02 0
26.72 0.02 0
26.8 0.02 0
26.88 0.02 0
26.96 0.02 0
27.04 0.02 0
27.12 0.02 0
27.2 0.02 0
27.28 0.02 0
27.36 0.02 0
27.44 0.02 0
27.52 0.02 0
27.6 0.02 0
27.68 0.02 0
27.76 0.02 0
27.84 0.02 0
27.92 0.02 0
28 0.02 0
28.08 0.02 0
28.16 0.02 0
28.24 0.02 0
28.32 0.02 0
28.4 0.02 0
28.48 0.02 0
28.56 0.02 0
28.64 0.02 0
28.72 0.02 0
28.8 0.02 0
28.88 0.02 0
28.96 0.02 0
29.04 0.02 0
29.12 0.02 0
29.2 0.02 0
29.28 0.02 0
29.36 0.02 0
29.44 0.02 0
29.52 0.02 0
29.6 0.02 0
29.68 0.02 0
29.76 0.02 0
29.84 0.02 0
29.92 0.02 0
30 0.02 0
30.08 0.02 0
30.16 0.02 0
30.24 0.02 0
30.32 0.02 0
30.4 0.02 0
30.48 0.02 0
30.56 0.02 0
30.64 0.02 0
30.72 0.02 0
30.8 0.02 0
30.88 0.02 0
30.96 0.02 0
31.04 0.02 0
31.12 0.02 0
31.2 0.02 0
31.28 0.02 0
31.36 0.02 0
31.44 0.02 0
31.52 0.02 0
31.6 0.02 0
31.68 0.02 0
31.76 0.02 0
31.84 0.02 0
31.92 0.02 0
0 0.04 0
0.08 0.04 0
0.16 0.04 0
0.24 0.04 0
0.32 0.04 0
0.4 0.04 0
0.48 0.04 0
0.56 0.04 0
0.64 0.04 0
0.72 0.04 0
0.8 0.04 0
0.88 0.04 0
0.96 0.04 0
1.04 0.04 0
1.12 0.04 0
1.2 0.04 0
1.28 0.04 0
1.36 0.04 0
1.44 0.04 0
1.52 0.04 0
1.6 0.04 0
1.68 0.04 0
1.76 0.04 0
1.84 0.04 0
1.92 0.04 0
2 0.04 0
2.08 0.04 0
2.16 0.04 0
2.24 0.04 0
2.32 0.04 0
2.4 0.04 0
2.48 0.04 0
2.56 0.04 0
2.64 0.04 0
2.72 0.04 0
2.8 0.04 0
2.88 0.04 0
2.96 0.04 0
3.04 0.04 0
3.12 0.04 0
3.2 0.04 0
3.28 0.04 0
3.36 0.04 0
3.44 0.04 0
3.52 0.04 0
3.6 0.04 0
3.68 0.04 0
3.76 0.04 0
3.84 0.04 0
3.92 0.04 0
4 0.04 0
4.08 0.04 0
4.16 0.04 0
4.24 0.04 0
4.32 0.04 0
4.4 0.04 0
4.48 0.04 0
4.56 0.04 0
4.64 0.04 0
4.72 0.04 0
4.8 0.04 0
4.88 0.04 0
4.96 0.04 0
5.04 0.04 0
5.12 0.04 0
5.2 0.04 0
5.28 0.04 0
5.36 0.04 0
5.44 0.04 0
5.52 0.04 0
5.6 0.04 0
5.68 0.04 0
5.76 0.04 0
5.84 0.04 0
5.92 0.04 0
6 0.04 0
6.08 0.04 0
6.16 0.04 0
6.24 0.04 0
6.32 0.04 0
6.4 0.04 0
6.48 0.04 0
6.56 0.04 0
6.64 0.04 0
6.72 0.04 0
6.8 0.04 0
6.88 0.04 0
6.96 0.04 0
7.04 0.04 0
7.12 0.04 0
7.2 0.04 0
7.28 0.04 0
7.36 0.04 0
7.44 0.04 0
7.52 0.04 0
7.6 0.04 0
7.68 0.04 0
7.76 0.04 0
7.84 0.04 0
[...]
POINT_DATA 20000

SCALARS u float 1
LOOKUP_TABLE default
0
-0.507087
-0.291916
-0.214157
-0.179021
-0.158659
-0.145106
-0.135354
-0.127961
-0.122133
-0.117395
-0.113443
-0.110079
-0.107166
-0.104607
-0.102334
-0.100294
-0.0984489
-0.0967689
-0.0952302
-0.0938139
-0.0925048
-0.0912901
-0.0901592
-0.0891032
-0.0881144
-0.0871862
-0.0863129
-0.0854896
-0.0847118
-0.0839757
-0.0832779
-0.0826153
-0.0819852
-0.0813853
-0.0808132
-0.080267
-0.079745
-0.0792455
-0.0787671
-0.0783083
-0.077868
-0.0774451
-0.0770384
-0.0766472
-0.0762704
-0.0759074
-0.0755573
-0.0752195
-0.0748933
-0.0745781
-0.0742734
-0.0739788
-0.0736936
-0.0734174
-0.0731499
-0.0728907
-0.0726393
-0.0723955
-0.0721589
-0.0719292
-0.0717061
-0.0714894
-0.0712788
-0.0710741
-0.0708751
-0.0706815
-0.0704931
-0.0703097
-0.0701313
-0.0699575
-0.0697883
-0.0696234
-0.0694628
-0.0693063
-0.0691537
-0.069005
-0.06886
-0.0687185
-0.0685806
-0.068446
-0.0683147
-0.0681866
-0.0680615
-0.0679395
-0.0678203
-0.067704
-0.0675905
-0.0674796
-0.0673714
-0.0672656
-0.0671623
-0.0670614
-0.0669629
-0.0668666
-0.0667725
-0.0666806
-0.0665908
-0.066503
-0.0664172
-0.0663334
-0.0662514
-0.0661713
-0.0660929
-0.0660164
-0.0659415
-0.0658683
-0.0657968
-0.0657268
-0.0656584
-0.0655915
-0.0655261
-0.0654621
-0.0653995
-0.0653383
-0.0652784
-0.0652199
-0.0651626
-0.0651066
-0.0650517
-0.0649981
-0.0649456
-0.0648942
-0.064844
-0.0647948
-0.0647467
-0.0646997
-0.0646536
-0.0646086
-0.0645645
-0.0645214
-0.0644792
-0.0644378
-0.0643974
-0.0643578
-0.0643191
-0.0642813
-0.0642442
-0.0642079
-0.0641724
-0.0641377
-0.0641036
-0.0640703
-0.0640378
-0.064006
-0.0639748
-0.0639443
-0.0639145
-0.0638853
-0.0638568
-0.0638288
-0.0638014
-0.0637746
-0.0637484
-0.0637227
-0.0636977
-0.0636732
-0.0636492
-0.0636257
-0.0636027
-0.0635801
-0.0635581
-0.0635365
-0.0635155
-0.0634949
-0.0634749
-0.0634553
-0.0634361
-0.0634173
-0.063399
-0.0633811
-0.0633637
-0.0633467
-0.0633302
-0.0633141
-0.0632986
-0.0632834
-0.0632687
-0.0632545
-0.0632406
-0.0632271
-0.0632141
-0.0632015
-0.0631895
-0.063178
-0.0631669
-0.0631563
-0.063146
-0.0631361
-0.0631266
-0.0631175
-0.0631089
-0.0631008
-0.0630932
-0.063086
-0.0630792
-0.0630727
-0.0630665
-0.0630606
-0.0630552
-0.0630501
-0.0630455
-0.0630413
-0.0630375
-0.063034
-0.0630307
-0.0630277
-0.063025
-0.0630225
-0.0630205
-0.0630187
-0.0630172
-0.063016
-0.063015
-0.0630142
-0.0630136
-0.0630132
-0.063013
-0.0630129
-0.0630131
-0.0630135
-0.063014
-0.0630147
-0.0630155
-0.0630164
-0.0630174
-0.0630185
-0.0630197
-0.0630211
-0.0630225
-0.063024
-0.0630255
-0.0630272
-0.0630288
-0.0630305
-0.0630323
-0.0630341
-0.063036
-0.0630378
-0.0630398
-0.0630417
-0.0630437
-0.0630456
-0.0630476
-0.0630496
-0.0630516
-0.0630536
-0.0630557
-0.0630577
-0.0630597
-0.0630618
-0.0630638
-0.0630659
-0.0630679
-0.0630699
-0.063072
-0.063074
-0.0630761
-0.0630781
-0.0630802
-0.0630822
-0.0630843
-0.0630863
-0.0630884
-0.0630904
-0.0630925
-0.0630945
-0.0630966
-0.0630986
-0.0631007
-0.0631027
-0.0631048
-0.0631068
-0.0631089
-0.0631109
-0.063113
-0.063115
-0.0631171
-0.0631191
-0.0631212
-0.0631233
-0.0631253
-0.0631274
-0.0631294
-0.0631315
-0.0631335
-0.0631356
-0.0631376
-0.0631397
-0.0631417
-0.0631438
-0.0631458
-0.0631479
-0.0631499
-0.063152
-0.063154
-0.0631561
-0.0631581
-0.0631602
-0.0631622
-0.0631643
-0.0631664
-0.0631684
-0.0631705
-0.0631725
-0.0631746
-0.0631766
-0.0631787
-0.0631807
-0.0631828
-0.0631848
-0.0631869
-0.0631889
-0.063191
-0.063193
-0.0631951
-0.0631972
-0.0631992
-0.0632013
-0.0632033
-0.0632054
-0.0632074
-0.0632095
-0.0632115
-0.0632136
-0.0632156
-0.0632177
-0.0632197
-0.0632218
-0.0632238
-0.0632259
-0.0632279
-0.06323
-0.063232
-0.0632341
-0.0632362
-0.0632382
-0.0632403
-0.0632423
-0.0632444
-0.0632464
-0.0632485
-0.0632505
-0.0632526
-0.0632546
-0.0632567
-0.0632587
-0.0632608
-0.0632628
-0.0632649
-0.0632669
-0.063269
-0.063271
-0.0632731
-0.0632751
-0.0632772
-0.0632792
-0.0632813
-0.0632833
-0.0632854
-0.0632874
-0.0632895
-0.0632915
-0.0632936
-0.0632956
-0.0632977
-0.0632997
-0.0633018
-0.0633038
-0.0633059
-0.0633079
-0.06331
-0.063312
-0.0633141
-0.0633161
-0.0633182
-0.0633202
-0.0633223
-0.0633244
-0.0633265
-0.0633285
-0.0633306
-0.0633326
-0.0633348
-0.0633368
-0.063339
-0.063341
-0.0633432
-0.0633452
-0.0633474
-0.0633494
-0.0633517
-0.0633537
-0.0633559
-0.063358
-0.0633597
-0.0633618
-0.0633612
-0.0633612
-0.0633612
1
0.507087
0.291916
0.214157
0.179021
0.158659
0.145106
0.135354
0.127961
0.122133
0.117395
0.113443
0.110079
0.107166
0.104607
0.102334
0.100294
0.0984489
0.0967689
0.0952302
0.0938139
0.0925048
0.0912901
0.0901592
0.0891032
0.0881144
0.0871862
0.0863129
0.0854896
0.0847118
0.0839757
0.0832779
0.0826153
0.0819852
0.0813853
0.0808132
0.080267
0.079745
0.0792455
0.0787671
0.0783083
0.077868
0.0774451
0.0770384
0.0766472
0.0762704
0.0759074
0.0755573
0.0752195
0.0748933
0.0745781
0.0742734
0.0739788
0.0736936
0.0734174
0.0731499
0.0728907
0.0726393
0.0723955
0.0721589
0.0719292
0.0717061
0.0714894
0.0712788
0.0710741
0.0708751
0.0706815
0.0704931
0.0703097
0.0701313
0.0699575
0.0697883
0.0696234
0.0694628
0.0693063
0.0691537
0.069005
0.06886
0.0687185
0.0685806
0.068446
0.0683147
0.0681866
0.0680615
0.0679395
0.0678203
0.067704
0.0675905
0.0674796
0.0673714
0.0672656
0.0671623
0.0670614
0.0669629
0.0668666
0.0667725
0.0666806
0.0665908
0.066503
0.0664172
0.0663334
0.0662514
0.0661713
0.0660929
0.0660164
0.0659415
0.0658683
0.0657968
0.0657268
0.0656584
0.0655915
0.0655261
0.0654621
0.0653995
0.0653383
0.0652784
0.0652199
0.0651626
0.0651066
0.0650517
0.0649981
0.0649456
0.0648942
0.064844
0.0647948
0.0647467
0.0646997
0.0646536
0.0646086
0.0645645
0.0645214
0.0644792
0.0644378
0.0643974
0.0643578
0.0643191
0.0642813
0.0642442
0.0642079
0.0641724
0.0641377
0.0641036
0.0640703
0.0640378
0.064006
0.0639748
0.0639443
0.0639145
0.0638853
0.0638568
0.0638288
0.0638014
0.0637746
0.0637484
0.0637227
0.0636977
0.0636732
0.0636492
0.0636257
0.0636027
0.0635801
0.0635581
0.0635365
0.0635155
0.0634949
0.0634749
0.0634553
0.0634361
0.0634173
0.063399
0.0633811
0.0633637
0.0633467
0.0633302
0.0633141
0.0632986
0.0632834
0.0632687
0.0632545
0.0632406
0.0632271
0.0632141
0.0632015
0.0631895
0.063178
0.0631669
0.0631563
0.063146
0.0631361
0.0631266
0.0631175
0.0631089
0.0631008
0.0630932
0.063086
0.0630792
0.0630727
0.0630665
0.0630606
0.0630552
0.0630501
0.0630455
0.0630413
0.0630375
0.063034
0.0630307
0.0630277
0.063025
0.0630225
0.0630205
0.0630187
0.0630172
0.063016
0.063015
0.0630142
0.0630136
0.0630132
0.063013
0.0630129
0.0630131
0.0630135
0.063014
0.0630147
0.0630155
0.0630164
0.0630174
0.0630185
0.0630197
0.0630211
0.0630225
0.063024
0.0630255
0.0630272
0.0630288
0.0630305
0.0630323
0.0630341
0.063036
0.0630378
0.0630398
0.0630417
0.0630437
0.0630456
0.0630476
0.0630496
0.0630516
0.0630536
0.0630557
0.0630577
0.0630597
0.0630618
0.0630638
0.0630659
0.0630679
0.0630699
0.063072
0.063074
0.0630761
0.0630781
0.0630802
0.0630822
0.0630843
0.0630863
0.0630884
0.0630904
0.0630925
0.0630945
0.0630966
0.0630986
0.0631007
0.0631027
0.0631048
0.0631068
0.0631089
0.0631109
0.063113
0.063115
0.0631171
0.0631191
0.0631212
0.0631233
0.0631253
0.0631274
0.0631294
0.0631315
0.0631335
0.0631356
0.0631376
0.0631397
0.0631417
0.0631438
0.0631458
0.0631479
0.0631499
0.063152
0.063154
0.0631561
0.0631581
0.0631602
0.0631622
0.0631643
0.0631664
0.0631684
0.0631705
0.0631725
0.0631746
0.0631766
0.0631787
0.0631807
0.0631828
0.0631848
0.0631869
0.0631889
0.063191
0.063193
0.0631951
0.0631972
0.0631992
0.0632013
0.0632033
0.0632054
0.0632074
0.0632095
0.0632115
0.0632136
0.0632156
0.0632177
0.0632197
0.0632218
0.0632238
0.0632259
0.0632279
0.06323
0.063232
0.0632341
0.0632362
0.0632382
0.0632403
0.0632423
0.0632444
0.0632464
0.0632485
0.0632505
0.0632526
0.0632546
0.0632567
0.0632587
0.0632608
0.0632628
0.0632649
0.0632669
0.063269
0.063271
0.0632731
0.0632751
0.0632772
0.0632792
0.0632813
0.0632833
0.0632854
0.0632874
0.0632895
0.0632915
0.0632936
0.0632956
0.0632977
0.0632997
0.0633018
0.0633038
0.0633059
0.0633079
0.06331
0.063312
0.0633141
0.0633161
0.0633182
0.0633202
0.0633223
0.0633244
0.0633265
0.0633285
0.0633306
0.0633326
0.0633348
0.0633368
0.063339
0.063341
0.0633432
0.0633452
0.0633474
0.0633494
0.0633517
0.0633537
0.0633559
0.063358
0.0633597
0.0633618
0.0633612
0.0633612
0.0633612
1
0.924293
0.73544
0.597542
0.511647
0.456331
0.41817
0.390265
0.368933
0.352048
0.338299
0.32684
0.317099
0.308682
0.301306
0.294768
0.288916
0.283635
0.278834
0.274445
0.270411
0.266687
0.263235
0.260025
0.25703
0.254227
0.251599
0.249127
0.246797
0.244598
0.242517
0.240546
0.238674
0.236896
0.235202
0.233588
0.232048
0.230576
0.229168
0.22782
0.226527
0.225287
0.224096
0.222952
0.22185
0.22079
0.219769
0.218784
0.217835
0.216918
0.216032
0.215176
0.214348
0.213547
0.212771
0.21202
0.211292
0.210587
0.209903
0.209239
0.208595
0.207969
0.207362
0.206771
0.206198
0.20564
0.205097
0.20457
0.204056
0.203557
0.20307
0.202596
0.202135
0.201686
0.201248
0.200821
0.200405
0.199999
0.199604
0.199218
0.198842
0.198475
0.198117
0.197768
0.197427
0.197095
0.19677
0.196453
0.196144
0.195842
0.195546
0.195258
0.194977
0.194702
0.194434
0.194171
0.193915
0.193665
0.19342
0.193181
0.192947
0.192719
0.192496
0.192278
0.192065
0.191856
0.191652
0.191453
0.191259
0.191068
0.190882
0.1907
0.190522
0.190348
0.190178
0.190011
0.189848
0.189689
0.189533
0.189381
0.189232
0.189086
0.188943
0.188803
0.188667
0.188533
0.188402
0.188274
0.188149
0.188027
0.187907
0.18779
0.187675
0.187563
0.187453
0.187345
0.18724
0.187137
0.187036
0.186938
0.186841
0.186747
0.186654
0.186564
0.186476
0.186389
0.186305
0.186222
0.186141
0.186061
0.185984
0.185908
0.185833
0.185761
0.18569
0.18562
0.185552
0.185486
0.18542
0.185357
0.185294
0.185233
0.185174
0.185115
0.185059
0.185003
0.184949
0.184896
0.184844
0.184794
0.184745
0.184697
0.18465
0.184605
0.184561
0.184518
0.184477
0.184437
0.184398
0.18436
0.184324
0.184288
0.184255
0.184222
0.184191
0.184161
0.184133
0.184105
0.184079
0.184054
0.18403
0.184007
0.183986
0.183966
0.183947
0.183929
0.183912
0.183896
0.183881
0.183867
0.183854
0.183842
0.183832
0.183822
0.183813
0.183805
0.183798
0.183791
0.183786
0.183781
0.183777
0.183773
0.183771
0.183769
0.183767
0.183766
0.183766
0.183766
0.183766
0.183767
0.183769
0.183771
0.183773
0.183776
0.183779
0.183782
0.183785
0.183789
0.183793
0.183797
0.183802
0.183806
0.183811
0.183816
0.183821
0.183826
0.183831
0.183836
0.183841
0.183847
0.183852
0.183858
0.183863
0.183869
0.183874
0.18388
0.183885
0.183891
0.183897
0.183902
0.183908
0.183914
0.183919
0.183925
0.183931
0.183936
0.183942
0.183948
0.183953
0.183959
0.183965
0.18397
0.183976
0.183982
0.183987
0.183993
0.183999
0.184004
0.18401
0.184016
0.184021
0.184027
0.184033
0.184038
0.184044
0.18405
0.184055
0.184061
0.184067
0.184072
0.184078
0.184084
0.184089
0.184095
0.184101
0.184106
0.184112
0.184117
0.184123
0.184129
0.184134
0.18414
0.184146
0.184151
0.184157
0.184163
0.184168
0.184174
0.18418
0.184185
0.184191
0.184197
0.184202
0.184208
0.184213
0.184219
0.184225
0.18423
0.184236
0.184242
0.184247
0.184253
0.184259
0.184264
0.18427
0.184275
0.184281
0.184287
0.184292
0.184298
0.184304
0.184309
0.184315
0.184321
0.184326
0.184332
0.184337
0.184343
0.184349
0.184354
0.18436
0.184366
0.184371
0.184377
0.184382
0.184388
0.184394
0.184399
0.184405
0.184411
0.184416
0.184422
0.184427
0.184433
0.184439
0.184444
0.18445
0.184455
0.184461
0.184467
0.184472
0.184478
0.184484
0.184489
0.184495
0.1845
0.184506
0.184512
0.184517
0.184523
0.184528
0.184534
0.18454
0.184545
0.184551
0.184556
0.184562
0.184568
0.184573
0.184579
0.184584
0.18459
0.184596
0.184601
0.184607
0.184613
0.184618
0.184624
0.184629
0.184635
0.184641
0.184646
0.184652
0.184658
0.184663
0.184669
0.184675
0.184681
0.184686
0.184692
0.184698
0.184704
0.18471
0.184715
0.184721
0.184726
0.184732
0.184733
0.184733
0.184733
1
1.0797
0.997064
0.883641
0.788685
0.716899
0.663034
0.621818
0.589474
0.56346
0.542066
0.524124
0.508816
0.49556
0.483932
0.47362
0.46439
0.45606
0.448491
0.441572
0.435215
0.429348
0.423911
0.418856
0.414139
0.409727
0.405589
0.401698
0.398032
0.39457
0.391296
0.388194
0.38525
0.382451
0.379787
0.377248
0.374825
0.37251
0.370296
0.368175
0.366143
0.364193
0.362321
0.360521
0.35879
0.357124
0.355519
0.353971
0.352479
0.351038
0.349646
0.348302
0.347001
0.345743
0.344525
0.343346
0.342204
0.341096
0.340022
0.33898
0.337969
0.336988
0.336035
0.335109
0.334209
0.333334
0.332483
0.331656
0.330851
0.330068
0.329305
0.328563
0.32784
0.327136
0.32645
0.325781
0.32513
0.324495
0.323876
0.323272
0.322683
0.322109
0.321549
0.321002
0.320469
0.319948
0.319441
0.318945
0.318461
0.317989
0.317527
0.317077
0.316637
0.316208
0.315788
0.315378
0.314978
0.314587
0.314205
0.313831
0.313466
0.31311
0.312762
0.312421
0.312088
0.311763
0.311445
0.311134
0.310831
0.310534
0.310243
0.309959
0.309682
0.30941
0.309145
0.308885
0.308631
0.308383
0.30814
0.307902
0.30767
0.307443
0.30722
0.307003
0.30679
0.306582
0.306378
0.306179
0.305984
0.305793
0.305606
0.305423
0.305245
0.30507
0.304899
0.304731
0.304567
0.304407
0.30425
0.304097
0.303946
0.303799
0.303656
0.303515
0.303377
0.303243
0.303111
0.302982
0.302856
0.302732
0.302612
0.302493
0.302378
0.302265
0.302154
0.302046
0.30194
0.301836
0.301735
0.301636
0.301539
0.301444
0.301351
0.301261
0.301173
0.301087
0.301002
0.30092
0.30084
0.300762
0.300686
0.300612
0.30054
0.30047
0.300402
0.300336
0.300272
0.300211
0.300151
0.300093
0.300037
0.299983
0.299931
0.299882
0.299834
0.299789
0.299745
0.299703
0.299663
0.299625
0.299588
0.299554
0.299522
0.299492
0.299463
0.299436
0.299411
0.299387
0.299364
0.299344
0.299325
0.299308
0.299292
0.299278
0.299265
0.299253
0.299242
0.299233
0.299225
0.299218
0.299213
0.299208
0.299205
0.299202
0.2992
0.299199
0.299199
0.2992
0.299201
0.299203
0.299206
0.299209
0.299213
0.299218
0.299222
0.299228
0.299233
0.299239
0.299245
0.299252
0.299259
0.299266
0.299274
0.299281
0.299289
0.299297
0.299305
0.299313
0.299321
0.29933
0.299338
0.299347
0.299355
0.299364
0.299372
0.299381
0.29939
0.299398
0.299407
0.299416
0.299425
0.299433
0.299442
0.299451
0.29946
0.299468
0.299477
0.299486
0.299495
0.299503
0.299512
0.299521
0.299529
0.299538
0.299547
0.299556
0.299564
0.299573
0.299582
0.299591
0.299599
0.299608
0.299617
0.299626
0.299634
0.299643
0.299652
0.29966
0.299669
0.299678
0.299687
0.299695
0.299704
0.299713
0.299721
0.29973
0.299739
0.299748
0.299756
0.299765
0.299774
0.299782
0.299791
0.2998
0.299809
0.299817
0.299826
0.299835
0.299843
0.299852
0.299861
0.299869
0.299878
0.299887
0.299895
0.299904
0.299913
0.299922
0.29993
0.299939
0.299948
0.299956
0.299965
0.299974
0.299982
0.299991
0.3
0.300008
0.300017
0.300026
0.300034
0.300043
0.300052
0.30006
0.300069
0.300078
0.300086
0.300095
0.300104
0.300112
0.300121
0.30013
0.300138
0.300147
0.300156
0.300164
0.300173
0.300181
0.30019
0.300199
0.300207
0.300216
0.300225
0.300233
0.300242
0.300251
0.300259
0.300268
0.300277
0.300285
0.300294
0.300302
0.300311
0.30032
0.300328
0.300337
0.300346
0.300354
0.300363
0.300371
0.30038
0.300389
0.300397
0.300406
0.300414
0.300423
0.300432
0.30044
0.300449
0.300458
0.300466
0.300475
0.300483
0.300492
0.300501
0.300509
0.300518
0.300527
0.300535
0.300544
0.300553
0.300562
0.30057
0.300579
0.300588
0.300597
0.300605
0.300614
0.300623
0.300632
0.300641
0.30065
0.300659
0.300668
0.300676
0.300685
0.300693
0.300697
0.300697
0.300697
1
1.11179
1.11437
1.05556
0.984363
0.919022
0.863786
0.818201
0.780627
0.749402
0.723142
0.700771
0.681472
0.664626
0.649765
0.636529
0.624643
0.61389
0.604101
0.595139
0.586894
0.579275
0.572209
0.565633
0.559494
0.553746
0.548352
0.543277
0.538494
0.533975
0.529699
0.525646
0.521798
0.51814
0.514656
0.511335
0.508165
0.505135
0.502237
0.499461
0.4968
0.494247
0.491794
0.489437
0.48717
0.484987
0.482884
0.480857
0.478901
0.477014
0.47519
0.473428
0.471724
0.470076
0.46848
0.466935
0.465438
0.463986
0.462579
0.461214
0.45989
0.458604
0.457355
0.456142
0.454964
0.453818
0.452704
0.45162
0.450566
0.449541
0.448543
0.447571
0.446624
0.445703
0.444805
0.44393
0.443077
0.442247
0.441437
0.440647
0.439877
0.439126
0.438393
0.437678
0.436981
0.436301
0.435637
0.434989
0.434356
0.433739
0.433136
0.432548
0.431973
0.431412
0.430864
0.430329
0.429806
0.429296
0.428797
0.428309
0.427833
0.427368
0.426913
0.426469
0.426035
0.425611
0.425196
0.424791
0.424395
0.424007
0.423629
0.423259
0.422897
0.422543
0.422197
0.421858
0.421527
0.421204
0.420887
0.420578
0.420275
0.419979
0.419689
0.419406
0.419129
0.418857
0.418592
0.418333
0.418079
0.41783
0.417587
0.41735
0.417117
0.416889
0.416666
0.416449
0.416235
0.416027
0.415823
0.415623
0.415427
0.415236
0.415049
0.414866
0.414687
0.414511
0.41434
0.414172
0.414008
0.413848
0.41369
0.413537
0.413386
0.413239
0.413095
0.412954
0.412817
0.412682
0.41255
0.412421
0.412295
0.412172
0.412052
0.411934
0.41182
0.411708
0.411598
0.411492
0.411388
0.411287
0.411188
0.411092
0.410999
0.410908
0.41082
0.410735
0.410652
0.410573
0.410495
0.41042
0.410348
0.410279
0.410212
0.410148
0.410087
0.410029
0.409973
0.409919
0.409867
0.409818
0.409772
0.409728
0.409687
0.409648
0.409612
0.409577
0.409545
0.409515
0.409486
0.40946
0.409437
0.409415
0.409395
0.409377
0.409361
0.409346
0.409333
0.409321
0.409311
0.409303
0.409296
0.409291
0.409287
0.409284
0.409282
0.409281
0.409281
0.409282
0.409284
0.409287
0.409291
0.409296
0.409301
0.409307
0.409313
0.40932
0.409327
0.409335
0.409343
0.409352
0.409361
0.40937
0.40938
0.40939
0.4094
0.40941
0.40942
0.409431
0.409441
0.409452
0.409463
0.409474
0.409485
0.409496
0.409507
0.409518
0.409529
0.40954
0.409552
0.409563
0.409574
0.409585
0.409596
0.409608
0.409619
0.40963
0.409641
0.409652
0.409664
0.409675
0.409686
0.409697
0.409708
0.40972
0.409731
0.409742
0.409753
0.409764
0.409775
0.409787
0.409798
0.409809
0.40982
0.409831
0.409843
0.409854
0.409865
0.409876
0.409887
0.409898
0.40991
0.409921
0.409932
0.409943
0.409954
0.409965
0.409977
0.409988
0.409999
0.41001
0.410021
0.410032
0.410044
0.410055
0.410066
0.410077
0.410088
0.410099
0.41011
0.410122
0.410133
0.410144
0.410155
0.410166
0.410177
0.410188
0.410199
0.410211
0.410222
0.410233
0.410244
0.410255
0.410266
0.410277
0.410288
0.410299
0.410311
0.410322
0.410333
0.410344
0.410355
0.410366
0.410377
0.410388
0.410399
0.41041
0.410422
0.410433
0.410444
0.410455
0.410466
0.410477
0.410488
0.410499
0.41051
0.410521
0.410532
0.410543
0.410555
0.410566
0.410577
0.410588
0.410599
0.41061
0.410621
0.410632
0.410643
0.410654
0.410665
0.410676
0.410687
0.410698
0.410709
0.41072
0.410731
0.410743
0.410754
0.410765
0.410776
0.410787
0.410798
0.410809
0.41082
0.410831
0.410842
0.410853
0.410864
0.410875
0.410886
0.410897
0.410908
0.410919
0.41093
0.410941
0.410952
0.410963
0.410974
0.410986
0.410997
0.411008
0.411019
0.41103
0.411041
0.411053
0.411063
0.411075
0.411086
0.411098
0.411109
0.41112
0.411131
0.411143
0.411154
0.411166
0.411177
0.411188
0.411199
0.411207
0.411207
0.411207
1
1.09593
1.14367
1.13402
1.09769
1.05333
1.00941
0.969208
0.933612
0.902486
0.875324
0.851547
0.830611
0.812051
0.795479
0.780581
0.767101
0.754833
0.743608
0.733289
0.723762
0.714933
0.706722
0.699062
0.691896
0.685176
0.678858
0.672906
0.667287
0.661973
0.656939
0.652162
0.647623
0.643303
0.639186
0.635259
0.631508
0.62792
0.624486
0.621196
0.61804
0.615011
0.6121
0.609301
0.606608
0.604014
0.601515
0.599105
0.596779
0.594534
0.592364
0.590268
0.58824
0.586277
0.584378
0.582538
0.580755
0.579027
0.577352
0.575726
0.574148
0.572616
0.571129
0.569684
0.56828
0.566915
0.565587
0.564297
0.563041
0.561819
0.56063
0.559472
0.558345
0.557247
0.556177
0.555135
0.55412
0.55313
0.552166
0.551225
0.550308
0.549414
0.548541
0.547691
0.546861
0.546051
0.545261
0.54449
0.543737
0.543002
0.542285
0.541585
0.540902
0.540234
0.539582
0.538946
0.538324
0.537717
0.537124
0.536545
0.535979
0.535426
0.534885
0.534358
0.533842
0.533338
0.532845
0.532364
0.531893
0.531433
0.530984
0.530544
0.530115
0.529694
0.529284
0.528882
0.52849