# vtk DataFile Version 2.0
FlowField
ASCII
DATASET STRUCTURED_GRID
DIMENSIONS 400 1 50
POINTS 20000 float
0 0 0
0.08 0 0
0.16 0 0
0.24 0 0
0.32 0 0
0.4 0 0
0.48 0 0
0.56 0 0
0.64 0 0
0.72 0 0
0.8 0 0
0.88 0 0
0.96 0 0
1.04 0 0
1.12 0 0
1.2 0 0
1.28 0 0
1.36 0 0
1.44 0 0
1.52 0 0
1.6 0 0
1.68 0 0
1.76 0 0
1.84 0 0
1.92 0 0
2 0 0
2.08 0 0
2.16 0 0
2.24 0 0
2.32 0 0
2.4 0 0
2.48 0 0
2.56 0 0
2.64 0 0
2.72 0 0
2.8 0 0
2.88 0 0
2.96 0 0
3.04 0 0
3.12 0 0
3.2 0 0
3.28 0 0
3.36 0 0
3.44 0 0
3.52 0 0
3.6 0 0
3.68 0 0
3.76 0 0
3.84 0 0
3.92 0 0
4 0 0
4.08 0 0
4.16 0 0
4.24 0 0
4.32 0 0
4.4 0 0
4.48 0 0
4.56 0 0
4.64 0 0
4.72 0 0
4.8 0 0
4.88 0 0
4.96 0 0
5.04 0 0
5.12 0 0
5.2 0 0
5.28 0 0
5.36 0 0
5.44 0 0
5.52 0 0
5.6 0 0
5.68 0 0
5.76 0 0
5.84 0 0
5.92 0 0
6 0 0
6.08 0 0
6.16 0 0
6.24 0 0
6.32 0 0
6.4 0 0
6.48 0 0
6.56 0 0
6.64 0 0
6.72 0 0
6.8 0 0
6.88 0 0
6.96 0 0
7.04 0 0
7.12 0 0
7.2 0 0
7.28 0 0
7.36 0 0
7.44 0 0
7.52 0 0
7.6 0 0
7.68 0 0
7.76 0 0
7.84 0 0
7.92 0 0
8 0 0
8.08 0 0
8.16 0 0
8.24 0 0
8.32 0 0
8.4 0 0
8.48 0 0
8.56 0 0
8.64 0 0
8.72 0 0
8.8 0 0
8.88 0 0
8.96 0 0
9.04 0 0
9.12 0 0
9.2 0 0
9.28 0 0
9.36 0 0
9.44 0 0
9.52 0 0
9.6 0 0
9.68 0 0
9.76 0 0
9.84 0 0
9.92 0 0
10 0 0
10.08 0 0
10.16 0 0
10.24 0 0
10.32 0 0
10.4 0 0
10.48 0 0
10.56 0 0
10.64 0 0
10.72 0 0
10.8 0 0
10.88 0 0
10.96 0 0
11.04 0 0
11.12 0 0
11.2 0 0
11.28 0 0
11.36 0 0
11.44 0 0
11.52 0 0
11.6 0 0
11.68 0 0
11.76 0 0
11.84 0 0
11.92 0 0
12 0 0
12.08 0 0
12.16 0 0
12.24 0 0
12.32 0 0
12.4 0 0
12.48 0 0
12.56 0 0
12.64 0 0
12.72 0 0
12.8 0 0
12.88 0 0
12.96 0 0
13.04 0 0
13.12 0 0
13.2 0 0
13.28 0 0
13.36 0 0
13.44 0 0
13.52 0 0
13.6 0 0
13.68 0 0
13.76 0 0
13.84 0 0
13.92 0 0
14 0 0
14.08 0 0
14.16 0 0
14.24 0 0
14.32 0 0
14.4 0 0
14.48 0 0
14.56 0 0
14.64 0 0
14.72 0 0
14.8 0 0
14.88 0 0
14.96 0 0
15.04 0 0
15.12 0 0
15.2 0 0
15.28 0 0
15.36 0 0
15.44 0 0
15.52 0 0
15.6 0 0
15.68 0 0
15.76 0 0
15.84 0 0
15.92 0 0
16 0 0
16.08 0 0
16.16 0 0
16.24 0 0
16.32 0 0
16.4 0 0
16.48 0 0
16.56 0 0
16.64 0 0
16.72 0 0
16.8 0 0
16.88 0 0
16.96 0 0
17.04 0 0
17.12 0 0
17.2 0 0
17.28 0 0
17.36 0 0
17.44 0 0
17.52 0 0
17.6 0 0
17.68 0 0
17.76 0 0
17.84 0 0
17.92 0 0
18 0 0
18.08 0 0
18.16 0 0
18.24 0 0
18.32 0 0
18.4 0 0
18.48 0 0
18.56 0 0
18.64 0 0
18.72 0 0
18.8 0 0
18.88 0 0
18.96 0 0
19.04 0 0
19.12 0 0
19.2 0 0
19.28 0 0
19.36 0 0
19.44 0 0
19.52 0 0
19.6 0 0
19.68 0 0
19.76 0 0
19.84 0 0
19.92 0 0
20 0 0
20.08 0 0
20.16 0 0
20.24 0 0
20.32 0 0
20.4 0 0
20.48 0 0
20.56 0 0
20.64 0 0
20.72 0 0
20.8 0 0
20.88 0 0
20.96 0 0
21.04 0 0
21.12 0 0
21.2 0 0
21.28 0 0
21.36 0 0
21.44 0 0
21.52 0 0
21.6 0 0
21.68 0 0
21.76 0 0
21.84 0 0
21.92 0 0
22 0 0
22.08 0 0
22.16 0 0
22.24 0 0
22.32 0 0
22.4 0 0
22.48 0 0
22.56 0 0
22.64 0 0
22.72 0 0
22.8 0 0
22.88 0 0
22.96 0 0
23.04 0 0
23.12 0 0
23.2 0 0
23.28 0 0
23.36 0 0
23.44 0 0
23.52 0 0
23.6 0 0
23.68 0 0
23.76 0 0
23.84 0 0
23.92 0 0
24 0 0
24.08 0 0
24.16 0 0
24.24 0 0
24.32 0 0
24.4 0 0
24.48 0 0
24.56 0 0
24.64 0 0
24.72 0 0
24.8 0 0
24.88 0 0
24.96 0 0
25.04 0 0
25.12 0 0
25.2 0 0
25.28 0 0
25.36 0 0
25.44 0 0
25.52 0 0
25.6 0 0
25.68 0 0
25.76 0 0
25.84 0 0
25.92 0 0
26 0 0
26.08 0 0
26.16 0 0
26.24 0 0
26.32 0 0
26.4 0 0
26.48 0 0
26.56 0 0
26.64 0 0
26.72 0 0
26.8 0 0
26.88 0 0
26.96 0 0
27.04 0 0
27.12 0 0
27.2 0 0
27.28 0 0
27.36 0 0
27.44 0 0
27.52 0 0
27.6 0 0
27.68 0 0
27.76 0 0
27.84 0 0
27.92 0 0
28 0 0
28.08 0 0
28.16 0 0
28.24 0 0
28.32 0 0
28.4 0 0
28.48 0 0
28.56 0 0
28.64 0 0
28.72 0 0
28.8 0 0
28.88 0 0
28.96 0 0
29.04 0 0
29.12 0 0
29.2 0 0
29.28 0 0
29.36 0 0
29.44 0 0
29.52 0 0
29.6 0 0
29.68 0 0
29.76 0 0
29.84 0 0
29.92 0 0
30 0 0
30.08 0 0
30.16 0 0
30.24 0 0
30.32 0 0
30.4 0 0
30.48 0 0
30.56 0 0
30.64 0 0
30.72 0 0
30.8 0 0
30.88 0 0
30.96 0 0
31.04 0 0
31.12 0 0
31.2 0 0
31.28 0 0
31.36 0 0
31.44 0 0
31.52 0 0
31.6 0 0
31.68 0 0
31.76 0 0
31.84 0 0
31.92 0 0
0 0.02 0
0.08 0.02 0
0.16 0.02 0
0.24 0.02 0
0.32 0.02 0
0.4 0.02 0
0.48 0.02 0
0.56 0.02 0
0.64 0.02 0
0.72 0.02 0
0.8 0.02 0
0.88 0.02 0
0.96 0.02 0
1.04 0.02 0
1.12 0.02 0
1.2 0.02 0
1.28 0.02 0
1.36 0.02 0
1.44 0.02 0
1.52 0.02 0
1.6 0.02 0
1.68 0.02 0
1.76 0.02 0
1.84 0.02 0
1.92 0.02 0
2 0.02 0
2.08 0.02 0
2.16 0.02 0
2.24 0.02 0
2.32 0.02 0
2.4 0.02 0
2.48 0.02 0
2.56 0.02 0
2.64 0.02 0
2.72 0.02 0
2.8 0.02 0
2.88 0.02 0
2.96 0.02 0
3.04 0.02 0
3.12 0.02 0
3.2 0.02 0
3.28 0.02 0
3.36 0.02 0
3.44 0.02 0
3.52 0.02 0
3.6 0.02 0
3.68 0.02 0
3.76 0.02 0
3.84 0.02 0
3.92 0.02 0
4 0.02 0
4.08 0.02 0
4.16 0.02 0
4.24 0.02 0
4.32 0.02 0
4.4 0.02 0
4.48 0.02 0
4.56 0.02 0
4.64 0.02 0
4.72 0.02 0
4.8 0.02 0
4.88 0.02 0
4.96 0.02 0
5.04 0.02 0
5.12 0.02 0
5.2 0.02 0
5.28 0.02 0
5.36 0.02 0
5.44 0.02 0
5.52 0.02 0
5.6 0.02 0
5.68 0.02 0
5.76 0.02 0
5.84 0.02 0
5.92 0.02 0
6 0.02 0
6.08 0.02 0
6.16 0.02 0
6.24 0.02 0
6.32 0.02 0
6.4 0.02 0
6.48 0.02 0
6.56 0.02 0
6.64 0.02 0
6.72 0.02 0
6.8 0.02 0
6.88 0.02 0
6.96 0.02 0
7.04 0.02 0
7.12 0.02 0
7.2 0.02 0
7.28 0.02 0
7.36 0.02 0
7.44 0.02 0
7.52 0.02 0
7.6 0.02 0
7.68 0.02 0
7.76 0.02 0
7.84 0.02 0
7.92 0.02 0
8 0.02 0
8.08 0.02 0
8.16 0.02 0
8.24 0.02 0
8.32 0.02 0
8.4 0.02 0
8.48 0.02 0
8.56 0.02 0
8.64 0.02 0
8.72 0.02 0
8.8 0.02 0
8.88 0.02 0
8.96 0.02 0
9.04 0.02 0
9.12 0.02 0
9.2 0.02 0
9.28 0.02 0
9.36 0.02 0
9.44 0.02 0
9.52 0.02 0
9.6 0.02 0
9.68 0.02 0
9.76 0.02 0
9.84 0.02 0
9.92 0.02 0
10 0.02 0
10.08 0.02 0
10.16 0.02 0
10.24 0.02 0
10.32 0.02 0
10.4 0.02 0
10.48 0.02 0
10.56 0.02 0
10.64 0.02 0
10.72 0.02 0
10.8 0.02 0
10.88 0.02 0
10.96 0.02 0
11.04 0.02 0
11.12 0.02 0
11.2 0.02 0
11.28 0.02 0
11.36 0.02 0
11.44 0.02 0
11.52 0.02 0
11.6 0.02 0
11.68 0.02 0
11.76 0.02 0
11.84 0.02 0
11.92 0.02 0
12 0.02 0
12.08 0.02 0
12.16 0.02 0
12.24 0.02 0
12.32 0.02 0
12.4 0.02 0
12.48 0.02 0
12.56 0.02 0
12.64 0.02 0
12.72 0.02 0
12.8 0.02 0
12.88 0.02 0
12.96 0.02 0
13.04 0.02 0
13.12 0.02 0
13.2 0.02 0
13.28 0.02 0
13.36 0.02 0
13.44 0.02 0
13.52 0.02 0
13.6 0.02 0
13.68 0.02 0
13.76 0.02 0
13.84 0.02 0
13.92 0.02 0
14 0.02 0
14.08 0.02 0
14.16 0.02 0
14.24 0.02 0
14.32 0.02 0
14.4 0.02 0
14.48 0.02 0
14.56 0.02 0
14.64 0.02 0
14.72 0.02 0
14.8 0.02 0
14.88 0.02 0
14.96 0.02 0
15.04 0.02 0
15.12 0.02 0
15.2 0.02 0
15.28 0.02 0
15.36 0.02 0
15.44 0.02 0
15.52 0.02 0
15.6 0.02 0
15.68 0.02 0
15.76 0.02 0
15.84 0.02 0
15.92 0.02 0
16 0.02 0
16.08 0.02 0
16.16 0.02 0
16.24 0.02 0
16.32 0.02 0
16.4 0.02 0
16.48 0.02 0
16.56 0.02 0
16.64 0.02 0
16.72 0.02 0
16.8 0.02 0
16.88 0.02 0
16.96 0.02 0
17.04 0.02 0
17.12 0.02 0
17.2 0.02 0
17.28 0.02 0
17.36 0.02 0
17.44 0.02 0
17.52 0.02 0
17.6 0.02 0
17.68 0.02 0
17.76 0.02 0
17.84 0.02 0
17.92 0.02 0
18 0.02 0
18.08 0.02 0
18.16 0.02 0
18.24 0.02 0
18.32 0.02 0
18.4 0.02 0
18.48 0.02 0
18.56 0.02 0
18.64 0.02 0
18.72 0.02 0
18.8 0.02 0
18.88 0.02 0
18.96 0.02 0
19.04 0.02 0
19.12 0.02 0
19.2 0.02 0
19.28 0.02 0
19.36 0.02 0
19.44 0.02 0
19.52 0.02 0
19.6 0.02 0
19.68 0.02 0
19.76 0.02 0
19.84 0.02 0
19.92 0.02 0
20 0.02 0
20.08 0.02 0
20.16 0.02 0
20.24 0.02 0
20.32 0.02 0
20.4 0.02 0
20.48 0.02 0
20.56 0.02 0
20.64 0.02 0
20.72 0.02 0
20.8 0.02 0
20.88 0.02 0
20.96 0.02 0
21.04 0.02 0
21.12 0.02 0
21.2 0.02 0
21.28 0.02 0
21.36 0.02 0
21.44 0.02 0
21.52 0.02 0
21.6 0.02 0
21.68 0.02 0
21.76 0.02 0
21.84 0.02 0
21.92 0.02 0
22 0.02 0
22.08 0.02 0
22.16 0.02 0
22.24 0.02 0
22.32 0.02 0
22.4 0.02 0
22.48 0.02 0
22.56 0.02 0
22.64 0.02 0
22.72 0.02 0
22.8 0.02 0
22.88 0.02 0
22.96 0.02 0
23.04 0.02 0
23.12 0.02 0
23.2 0.02 0
23.28 0.02 0
23.36 0.02 0
23.44 0.02 0
23.52 0.02 0
23.6 0.02 0
23.68 0.02 0
23.76 0.02 0
23.84 0.02 0
23.92 0.02 0
24 0.02 0
24.08 0.02 0
24.16 0.02 0
24.24 0.02 0
24.32 0.02 0
24.4 0.02 0
24.48 0.02 0
24.56 0.02 0
24.64 0.02 0
24.72 0.02 0
24.8 0.02 0
24.88 0.02 0
24.96 0.02 0
25.04 0.02 0
25.12 0.02 0
25.2 0.02 0
25.28 0.02 0
25.36 0.02 0
25.44 0.02 0
25.52 0.02 0
25.6 0.02 0
25.68 0.02 0
25.76 0.02 0
25.84 0.02 0
25.92 0.02 0
26 0.02 0
26.08 0.02 0
26.16 0.02 0
26.24 0.02 0
26.32 0.02 0
26.4 0.02 0
26.48 0.02 0
26.56 0.02 0
26.64 0.02 0
26.72 0.02 0
26.8 0.02 0
26.88 0.02 0
26.96 0.02 0
27.04 0.02 0
27.12 0.02 0
27.2 0.02 0
27.28 0.02 0
27.36 0.02 0
27.44 0.02 0
27.52 0.02 0
27.6 0.02 0
27.68 0.02 0
27.76 0.02 0
27.84 0.02 0
27.92 0.02 0
28 0.02 0
28.08 0.02 0
28.16 0.02 0
28.24 0.02 0
28.32 0.02 0
28.4 0.02 0
28.48 0.02 0
28.56 0.02 0
28.64 0.02 0
28.72 0.02 0
28.8 0.02 0
28.88 0.02 0
28.96 0.02 0
29.04 0.02 0
29.12 0.02 0
29.2 0.02 0
29.28 0.02 0
29.36 0.02 0
29.44 0.02 0
29.52 0.02 0
29.6 0.02 0
29.68 0.02 0
29.76 0.02 0
29.84 0.02 0
29.92 0.02 0
30 0.02 0
30.08 0.02 0
30.16 0.02 0
30.24 0.02 0
30.32 0.02 0
30.4 0.02 0
30.48 0.02 0
30.56 0.02 0
30.64 0.02 0
30.72 0.02 0
30.8 0.02 0
30.88 0.02 0
30.96 0.02 0
31.04 0.02 0
31.12 0.02 0
31.2 0.02 0
31.28 0.02 0
31.36 0.02 0
31.44 0.02 0
31.52 0.02 0
31.6 0.02 0
31.68 0.02 0
31.76 0.02 0
31.84 0.02 0
31.92 0.02 0
0 0.04 0
0.08 0.04 0
0.16 0.04 0
0.24 0.04 0
0.32 0.04 0
0.4 0.04 0
0.48 0.04 0
0.56 0.04 0
0.64 0.04 0
0.72 0.04 0
0.8 0.04 0
0.88 0.04 0
0.96 0.04 0
1.04 0.04 0
1.12 0.04 0
1.2 0.04 0
1.28 0.04 0
1.36 0.04 0
1.44 0.04 0
1.52 0.04 0
1.6 0.04 0
1.68 0.04 0
1.76 0.04 0
1.84 0.04 0
1.92 0.04 0
2 0.04 0
2.08 0.04 0
2.16 0.04 0
2.24 0.04 0
2.32 0.04 0
2.4 0.04 0
2.48 0.04 0
2.56 0.04 0
2.64 0.04 0
2.72 0.04 0
2.8 0.04 0
2.88 0.04 0
2.96 0.04 0
3.04 0.04 0
3.12 0.04 0
3.2 0.04 0
3.28 0.04 0
3.36 0.04 0
3.44 0.04 0
3.52 0.04 0
3.6 0.04 0
3.68 0.04 0
3.76 0.04 0
3.84 0.04 0
3.92 0.04 0
4 0.04 0
4.08 0.04 0
4.16 0.04 0
4.24 0.04 0
4.32 0.04 0
4.4 0.04 0
4.48 0.04 0
4.56 0.04 0
4.64 0.04 0
4.72 0.04 0
4.8 0.04 0
4.88 0.04 0
4.96 0.04 0
5.04 0.04 0
5.12 0.04 0
5.2 0.04 0
5.28 0.04 0
5.36 0.04 0
5.44 0.04 0
5.52 0.04 0
5.6 0.04 0
5.68 0.04 0
5.76 0.04 0
5.84 0.04 0
5.92 0.04 0
6 0.04 0
6.08 0.04 0
6.16 0.04 0
6.24 0.04 0
6.32 0.04 0
6.4 0.04 0
6.48 0.04 0
6.56 0.04 0
6.64 0.04 0
6.72 0.04 0
6.8 0.04 0
6.88 0.04 0
6.96 0.04 0
7.04 0.04 0
7.12 0.04 0
7.2 0.04 0
7.28 0.04 0
7.36 0.04 0
7.44 0.04 0
7.52 0.04 0
7.6 0.04 0
7.68 0.04 0
7.76 0.04 0
7.84 0.04 0
[...]
POINT_DATA 20000

SCALARS p float 1
LOOKUP_TABLE default
1
170.618
170.388
170.321
170.296
170.281
170.268
170.257
170.246
170.235
170.224
170.213
170.203
170.192
170.181
170.169
170.158
170.147
170.135
170.124
170.112
170.1
170.088
170.076
170.063
170.051
170.038
170.025
170.011
169.998
169.985
169.971
169.957
169.943
169.928
169.914
169.899
169.884
169.869
169.854
169.839
169.824
169.808
169.792
169.776
169.76
169.743
169.726
169.709
169.692
169.674
169.657
169.638
169.62
169.602
169.583
169.564
169.545
169.526
169.506
169.486
169.466
169.446
169.425
169.404
169.383
169.362
169.34
169.318
169.296
169.274
169.251
169.228
169.205
169.182
169.158
169.135
169.111
169.086
169.062
169.037
169.012
168.987
168.962
168.936
168.91
168.884
168.858
168.832
168.805
168.779
168.752
168.724
168.697
168.669
168.642
168.614
168.586
168.558
168.529
168.5
168.472
168.443
168.414
168.384
168.355
168.326
168.296
168.266
168.236
168.206
168.176
168.145
168.115
168.084
168.053
168.023
167.992
167.961
167.929
167.898
167.867
167.835
167.804
167.772
167.74
167.708
167.676
167.644
167.612
167.58
167.548
167.516
167.483
167.451
167.419
167.386
167.354
167.321
167.289
167.256
167.223
167.191
167.158
167.126
167.093
167.06
167.027
166.995
166.962
166.929
166.897
166.864
166.831
166.799
166.766
166.734
166.701
166.669
166.636
166.604
166.571
166.539
166.507
166.474
166.442
166.41
166.378
166.346
166.314
166.283
166.251
166.219
166.188
166.156
166.125
166.093
166.062
166.031
166
165.969
165.938
165.908
165.877
165.847
165.816
165.786
165.756
165.726
165.696
165.667
165.637
165.608
165.578
165.549
165.52
165.491
165.463
165.434
165.406
165.377
165.349
165.321
165.294
165.266
165.238
165.211
165.184
165.157
165.13
165.104
165.077
165.051
165.025
164.999
164.973
164.947
164.922
164.897
164.871
164.847
164.822
164.797
164.773
164.749
164.725
164.701
164.677
164.654
164.631
164.608
164.585
164.562
164.539
164.517
164.495
164.473
164.451
164.43
164.408
164.387
164.366
164.345
164.324
164.304
164.284
164.263
164.244
164.224
164.204
164.185
164.166
164.147
164.128
164.109
164.091
164.072
164.054
164.036
164.018
164.001
163.983
163.966
163.949
163.932
163.915
163.899
163.883
163.866
163.85
163.834
163.819
163.803
163.788
163.772
163.757
163.742
163.727
163.713
163.698
163.684
163.67
163.656
163.642
163.628
163.615
163.601
163.588
163.575
163.562
163.549
163.536
163.523
163.511
163.498
163.486
163.474
163.462
163.45
163.439
163.427
163.416
163.404
163.393
163.382
163.371
163.36
163.349
163.338
163.328
163.317
163.307
163.297
163.287
163.277
163.267
163.257
163.247
163.238
163.228
163.218
163.209
163.2
163.191
163.182
163.172
163.164
163.155
163.146
163.137
163.129
163.12
163.112
163.103
163.095
163.087
163.078
163.07
163.062
163.054
163.046
163.039
163.031
163.023
163.015
163.008
163
162.993
162.985
162.978
162.971
162.963
162.956
162.949
162.942
162.935
162.928
162.921
162.914
162.907
162.9
162.893
162.887
162.88
162.873
162.867
162.86
162.853
162.847
162.84
162.834
162.828
162.821
162.815
162.809
162.802
162.796
162.79
162.784
162.778
162.771
162.765
162.759
162.753
162.747
162.741
162.735
162.729
162.723
162.718
162.712
162.706
162.7
162.694
162.689
162.683
162.677
162.671
162.666
0.5
170.618
170.618
170.388
170.321
170.296
170.281
170.268
170.257
170.246
170.235
170.224
170.213
170.203
170.192
170.181
170.169
170.158
170.147
170.135
170.124
170.112
170.1
170.088
170.076
170.063
170.051
170.038
170.025
170.011
169.998
169.985
169.971
169.957
169.943
169.928
169.914
169.899
169.884
169.869
169.854
169.839
169.824
169.808
169.792
169.776
169.76
169.743
169.726
169.709
169.692
169.674
169.657
169.638
169.62
169.602
169.583
169.564
169.545
169.526
169.506
169.486
169.466
169.446
169.425
169.404
169.383
169.362
169.34
169.318
169.296
169.274
169.251
169.228
169.205
169.182
169.158
169.135
169.111
169.086
169.062
169.037
169.012
168.987
168.962
168.936
168.91
168.884
168.858
168.832
168.805
168.779
168.752
168.724
168.697
168.669
168.642
168.614
168.586
168.558
168.529
168.5
168.472
168.443
168.414
168.384
168.355
168.326
168.296
168.266
168.236
168.206
168.176
168.145
168.115
168.084
168.053
168.023
167.992
167.961
167.929
167.898
167.867
167.835
167.804
167.772
167.74
167.708
167.676
167.644
167.612
167.58
167.548
167.516
167.483
167.451
167.419
167.386
167.354
167.321
167.289
167.256
167.223
167.191
167.158
167.126
167.093
167.06
167.027
166.995
166.962
166.929
166.897
166.864
166.831
166.799
166.766
166.734
166.701
166.669
166.636
166.604
166.571
166.539
166.507
166.474
166.442
166.41
166.378
166.346
166.314
166.283
166.251
166.219
166.188
166.156
166.125
166.093
166.062
166.031
166
165.969
165.938
165.908
165.877
165.847
165.816
165.786
165.756
165.726
165.696
165.667
165.637
165.608
165.578
165.549
165.52
165.491
165.463
165.434
165.406
165.377
165.349
165.321
165.294
165.266
165.238
165.211
165.184
165.157
165.13
165.104
165.077
165.051
165.025
164.999
164.973
164.947
164.922
164.897
164.871
164.847
164.822
164.797
164.773
164.749
164.725
164.701
164.677
164.654
164.631
164.608
164.585
164.562
164.539
164.517
164.495
164.473
164.451
164.43
164.408
164.387
164.366
164.345
164.324
164.304
164.284
164.263
164.244
164.224
164.204
164.185
164.166
164.147
164.128
164.109
164.091
164.072
164.054
164.036
164.018
164.001
163.983
163.966
163.949
163.932
163.915
163.899
163.883
163.866
163.85
163.834
163.819
163.803
163.788
163.772
163.757
163.742
163.727
163.713
163.698
163.684
163.67
163.656
163.642
163.628
163.615
163.601
163.588
163.575
163.562
163.549
163.536
163.523
163.511
163.498
163.486
163.474
163.462
163.45
163.439
163.427
163.416
163.404
163.393
163.382
163.371
163.36
163.349
163.338
163.328
163.317
163.307
163.297
163.287
163.277
163.267
163.257
163.247
163.238
163.228
163.218
163.209
163.2
163.191
163.182
163.172
163.164
163.155
163.146
163.137
163.129
163.12
163.112
163.103
163.095
163.087
163.078
163.07
163.062
163.054
163.046
163.039
163.031
163.023
163.015
163.008
163
162.993
162.985
162.978
162.971
162.963
162.956
162.949
162.942
162.935
162.928
162.921
162.914
162.907
162.9
162.893
162.887
162.88
162.873
162.867
162.86
162.853
162.847
162.84
162.834
162.828
162.821
162.815
162.809
162.802
162.796
162.79
162.784
162.778
162.771
162.765
162.759
162.753
162.747
162.741
162.735
162.729
162.723
162.718
162.712
162.706
162.7
162.694
162.689
162.683
162.677
162.671
162.666
162.666
170.567
170.567
170.393
170.326
170.299
170.283
170.269
170.258
170.246
170.236
170.225
170.214
170.203
170.192
170.181
170.17
170.158
170.147
170.135
170.124
170.112
170.1
170.088
170.076
170.063
170.051
170.038
170.025
170.012
169.998
169.985
169.971
169.957
169.943
169.928
169.914
169.899
169.884
169.869
169.854
169.839
169.824
169.808
169.792
169.776
169.76
169.743
169.726
169.709
169.692
169.674
169.657
169.639
169.62
169.602
169.583
169.564
169.545
169.526
169.506
169.486
169.466
169.446
169.425
169.404
169.383
169.362
169.34
169.318
169.296
169.274
169.251
169.228
169.205
169.182
169.158
169.135
169.111
169.086
169.062
169.037
169.012
168.987
168.962
168.936
168.91
168.884
168.858
168.832
168.805
168.779
168.752
168.724
168.697
168.67
168.642
168.614
168.586
168.558
168.529
168.501
168.472
168.443
168.414
168.385
168.355
168.326
168.296
168.266
168.236
168.206
168.176
168.145
168.115
168.084
168.053
168.023
167.992
167.961
167.929
167.898
167.867
167.835
167.804
167.772
167.74
167.708
167.676
167.644
167.612
167.58
167.548
167.516
167.484
167.451
167.419
167.386
167.354
167.321
167.289
167.256
167.224
167.191
167.158
167.126
167.093
167.06
167.028
166.995
166.962
166.929
166.897
166.864
166.831
166.799
166.766
166.734
166.701
166.669
166.636
166.604
166.571
166.539
166.507
166.475
166.442
166.41
166.378
166.346
166.314
166.283
166.251
166.219
166.188
166.156
166.125
166.094
166.062
166.031
166
165.969
165.939
165.908
165.877
165.847
165.817
165.786
165.756
165.726
165.696
165.667
165.637
165.608
165.578
165.549
165.52
165.491
165.463
165.434
165.406
165.378
165.349
165.321
165.294
165.266
165.239
165.211
165.184
165.157
165.13
165.104
165.077
165.051
165.025
164.999
164.973
164.947
164.922
164.897
164.872
164.847
164.822
164.797
164.773
164.749
164.725
164.701
164.677
164.654
164.631
164.608
164.585
164.562
164.539
164.517
164.495
164.473
164.451
164.43
164.408
164.387
164.366
164.345
164.324
164.304
164.284
164.264
164.244
164.224
164.204
164.185
164.166
164.147
164.128
164.109
164.091
164.072
164.054
164.036
164.019
164.001
163.984
163.966
163.949
163.932
163.916
163.899
163.883
163.866
163.85
163.834
163.819
163.803
163.788
163.772
163.757
163.742
163.727
163.713
163.698
163.684
163.67
163.656
163.642
163.628
163.615
163.601
163.588
163.575
163.562
163.549
163.536
163.523
163.511
163.499
163.486
163.474
163.462
163.45
163.439
163.427
163.416
163.404
163.393
163.382
163.371
163.36
163.349
163.339
163.328
163.318
163.307
163.297
163.287
163.277
163.267
163.257
163.247
163.238
163.228
163.219
163.209
163.2
163.191
163.182
163.173
163.164
163.155
163.146
163.137
163.129
163.12
163.112
163.103
163.095
163.087
163.078
163.07
163.062
163.054
163.046
163.039
163.031
163.023
163.015
163.008
163
162.993
162.985
162.978
162.971
162.963
162.956
162.949
162.942
162.935
162.928
162.921
162.914
162.907
162.9
162.893
162.887
162.88
162.873
162.867
162.86
162.853
162.847
162.84
162.834
162.828
162.821
162.815
162.809
162.802
162.796
162.79
162.784
162.778
162.771
162.765
162.759
162.753
162.747
162.741
162.735
162.729
162.723
162.718
162.712
162.706
162.7
162.694
162.689
162.683
162.677
162.672
162.666
162.666
170.527
170.527
170.396
170.331
170.302
170.284
170.271
170.259
170.247
170.236
170.225
170.214
170.203
170.192
170.181
170.17
170.159
170.147
170.136
170.124
170.112
170.1
170.088
170.076
170.063
170.051
170.038
170.025
170.012
169.998
169.985
169.971
169.957
169.943
169.928
169.914
169.899
169.884
169.869
169.854
169.839
169.824
169.808
169.792
169.776
169.76
169.743
169.726
169.709
169.692
169.674
169.657
169.638
169.62
169.602
169.583
169.564
169.545
169.526
169.506
169.486
169.466
169.446
169.425
169.404
169.383
169.362
169.34
169.318
169.296
169.274
169.251
169.228
169.205
169.182
169.158
169.135
169.111
169.086
169.062
169.037
169.012
168.987
168.962
168.936
168.91
168.884
168.858
168.832
168.805
168.779
168.752
168.724
168.697
168.67
168.642
168.614
168.586
168.558
168.529
168.501
168.472
168.443
168.414
168.385
168.355
168.326
168.296
168.266
168.236
168.206
168.176
168.145
168.115
168.084
168.053
168.023
167.992
167.961
167.929
167.898
167.867
167.835
167.804
167.772
167.74
167.708
167.676
167.644
167.612
167.58
167.548
167.516
167.484
167.451
167.419
167.386
167.354
167.321
167.289
167.256
167.224
167.191
167.158
167.126
167.093
167.06
167.028
166.995
166.962
166.929
166.897
166.864
166.831
166.799
166.766
166.734
166.701
166.669
166.636
166.604
166.571
166.539
166.507
166.475
166.442
166.41
166.378
166.346
166.314
166.283
166.251
166.219
166.188
166.156
166.125
166.094
166.062
166.031
166
165.969
165.939
165.908
165.877
165.847
165.817
165.786
165.756
165.726
165.696
165.667
165.637
165.608
165.579
165.549
165.52
165.491
165.463
165.434
165.406
165.378
165.349
165.321
165.294
165.266
165.239
165.211
165.184
165.157
165.13
165.104
165.077
165.051
165.025
164.999
164.973
164.947
164.922
164.897
164.872
164.847
164.822
164.797
164.773
164.749
164.725
164.701
164.677
164.654
164.631
164.608
164.585
164.562
164.539
164.517
164.495
164.473
164.451
164.43
164.408
164.387
164.366
164.345
164.324
164.304
164.284
164.264
164.244
164.224
164.204
164.185
164.166
164.147
164.128
164.109
164.091
164.072
164.054
164.036
164.019
164.001
163.984
163.966
163.949
163.932
163.916
163.899
163.883
163.866
163.85
163.834
163.819
163.803
163.788
163.772
163.757
163.742
163.728
163.713
163.698
163.684
163.67
163.656
163.642
163.628
163.615
163.601
163.588
163.575
163.562
163.549
163.536
163.523
163.511
163.499
163.486
163.474
163.462
163.45
163.439
163.427
163.416
163.404
163.393
163.382
163.371
163.36
163.349
163.339
163.328
163.318
163.307
163.297
163.287
163.277
163.267
163.257
163.247
163.238
163.228
163.219
163.209
163.2
163.191
163.182
163.173
163.164
163.155
163.146
163.137
163.129
163.12
163.112
163.103
163.095
163.087
163.078
163.07
163.062
163.054
163.046
163.039
163.031
163.023
163.015
163.008
163
162.993
162.985
162.978
162.971
162.963
162.956
162.949
162.942
162.935
162.928
162.921
162.914
162.907
162.9
162.893
162.887
162.88
162.873
162.867
162.86
162.853
162.847
162.84
162.834
162.828
162.821
162.815
162.809
162.802
162.796
162.79
162.784
162.778
162.771
162.765
162.759
162.753
162.747
162.741
162.735
162.729
162.723
162.718
162.712
162.706
162.7
162.694
162.689
162.683
162.677
162.672
162.666
162.666
170.496
170.496
170.396
170.336
170.305
170.286
170.272
170.259
170.248
170.236
170.225
170.214
170.203
170.192
170.181
170.17
170.159
170.147
170.136
170.124
170.112
170.1
170.088
170.076
170.063
170.051
170.038
170.025
170.012
169.998
169.985
169.971
169.957
169.943
169.928
169.914
169.899
169.884
169.869
169.854
169.839
169.823
169.808
169.792
169.776
169.759
169.743
169.726
169.709
169.692
169.674
169.656
169.638
169.62
169.602
169.583
169.564
169.545
169.526
169.506
169.486
169.466
169.446
169.425
169.404
169.383
169.362
169.34
169.318
169.296
169.274
169.251
169.228
169.205
169.182
169.158
169.134
169.11
169.086
169.062
169.037
169.012
168.987
168.962
168.936
168.91
168.884
168.858
168.832
168.805
168.779
168.752
168.724
168.697
168.669
168.642
168.614
168.586
168.558
168.529
168.5
168.472
168.443
168.414
168.384
168.355
168.326
168.296
168.266
168.236
168.206
168.176
168.145
168.115
168.084
168.053
168.023
167.992
167.961
167.929
167.898
167.867
167.835
167.804
167.772
167.74
167.708
167.676
167.644
167.612
167.58
167.548
167.516
167.484
167.451
167.419
167.386
167.354
167.321
167.289
167.256
167.224
167.191
167.158
167.126
167.093
167.06
167.028
166.995
166.962
166.929
166.897
166.864
166.832
166.799
166.766
166.734
166.701
166.669
166.636
166.604
166.571
166.539
166.507
166.475
166.442
166.41
166.378
166.346
166.314
166.283
166.251
166.219
166.188
166.156
166.125
166.094
166.062
166.031
166
165.969
165.939
165.908
165.877
165.847
165.817
165.786
165.756
165.726
165.697
165.667
165.637
165.608
165.579
165.549
165.52
165.492
165.463
165.434
165.406
165.378
165.349
165.322
165.294
165.266
165.239
165.211
165.184
165.157
165.13
165.104
165.077
165.051
165.025
164.999
164.973
164.947
164.922
164.897
164.872
164.847
164.822
164.797
164.773
164.749
164.725
164.701
164.677
164.654
164.631
164.608
164.585
164.562
164.54
164.517
164.495
164.473
164.451
164.43
164.408
164.387
164.366
164.345
164.325
164.304
164.284
164.264
164.244
164.224
164.204
164.185
164.166
164.147
164.128
164.109
164.091
164.072
164.054
164.036
164.019
164.001
163.984
163.966
163.949
163.932
163.916
163.899
163.883
163.866
163.85
163.834
163.819
163.803
163.788
163.772
163.757
163.742
163.728
163.713
163.698
163.684
163.67
163.656
163.642
163.628
163.615
163.601
163.588
163.575
163.562
163.549
163.536
163.523
163.511
163.499
163.486
163.474
163.462
163.45
163.439
163.427
163.416
163.404
163.393
163.382
163.371
163.36
163.349
163.339
163.328
163.318
163.307
163.297
163.287
163.277
163.267
163.257
163.247
163.238
163.228
163.219
163.209
163.2
163.191
163.182
163.173
163.164
163.155
163.146
163.137
163.129
163.12
163.112
163.103
163.095
163.087
163.078
163.07
163.062
163.054
163.046
163.039
163.031
163.023
163.015
163.008
163
162.993
162.985
162.978
162.971
162.963
162.956
162.949
162.942
162.935
162.928
162.921
162.914
162.907
162.9
162.893
162.887
162.88
162.873
162.867
162.86
162.853
162.847
162.84
162.834
162.828
162.821
162.815
162.809
162.802
162.796
162.79
162.784
162.778
162.771
162.765
162.759
162.753
162.747
162.741
162.735
162.729
162.723
162.718
162.712
162.706
162.7
162.694
162.689
162.683
162.677
162.671
162.666
162.666
170.47
170.47
170.394
170.34
170.309
170.289
170.274
170.261
170.249
170.237
170.226
170.215
170.204
170.193
170.181
170.17
170.159
170.147
170.136
170.124
170.112
170.1
170.088
170.076
170.063
170.051
170.038
170.025
170.012
169.998
169.985
169.971
169.957
169.943
169.928
169.914
169.899
169.884
169.869
169.854
169.839
169.823
169.808
169.792
169.776
169.759
169.743
169.726
169.709
169.692
169.674
169.656
169.638
169.62
169.602
169.583
169.564
169.545
169.525
169.506
169.486
169.466
169.446
169.425
169.404
169.383
169.362
169.34
169.318
169.296
169.274
169.251
169.228
169.205
169.182
169.158
169.134
169.11
169.086
169.062
169.037
169.012
168.987
168.962
168.936
168.91
168.884
168.858
168.832
168.805
168.778
168.752
168.724
168.697
168.669
168.642
168.614
168.586
168.557
168.529
168.5
168.472
168.443
168.414
168.384
168.355
168.326
168.296
168.266
168.236
168.206
168.176
168.145
168.115
168.084
168.053
168.023
167.992
167.961
167.929
167.898
167.867
167.835
167.804
167.772
167.74
167.708
167.676
167.644
167.612
167.58
167.548
167.516
167.484
167.451
167.419
167.386
167.354
167.321
167.289
167.256
167.224
167.191
167.158
167.126
167.093
167.06
167.028
166.995
166.962
166.929
166.897
166.864
166.832
166.799
166.766
166.734
166.701
166.669
166.636
166.604
166.571
166.539
166.507
166.475
166.442
166.41
166.378
166.346
166.315
166.283
166.251
166.219
166.188
166.156
166.125
166.094
166.062
166.031
166
165.969
165.939
165.908
165.877
165.847
165.817
165.786
165.756
165.726
165.697
165.667
165.637
165.608
165.579
165.549
165.52
165.492
165.463
165.434
165.406
165.378
165.349
165.322
165.294
165.266
165.239
165.211
165.184
165.157
165.13
165.104
165.077
165.051
165.025
164.999
164.973
164.947
164.922
164.897
164.872
164.847
164.822
164.797
164.773
164.749
164.725
164.701
164.677
164.654
164.631
164.608
164.585
164.562
164.54
164.517
164.495
164.473
164.451
164.43
164.408
164.387
164.366
164.345
164.325
164.304
164.284
164.264
164.244
164.224
164.204
164.185
164.166
164.147
164.128
164.109
164.091
164.073
164.054
164.036
164.019
164.001
163.984
163.966
163.949
163.932
163.916
163.899
163.883
163.866
163.85
163.834
163.819
163.803
163.788
163.772
163.757
163.742
163.728
163.713
163.698
163.684
163.67
163.656
163.642
163.628
163.615
163.601
163.588
163.575
163.562
163.549
163.536
163.523
163.511
163.499
163.486
163.474
163.462
163.45
163.439
163.427
163.416
163.404
163.393
163.382
163.371
163.36
163.349
163.339
163.328
163.318
163.307
163.297
163.287
163.277
163.267
163.257
163.247
163.238
163.228
163.219
163.209
163.2
163.191
163.182
163.173
163.164
163.155
163.146
163.137
163.129
163.12
163.112
163.103
163.095
163.087
163.078
163.07
163.062
163.054
163.046
163.039
163.031
163.023
163.015
163.008
163
162.993
162.985
162.978
162.971
162.963
162.956
162.949
162.942
162.935
162.928
162.921
162.914
162.907
162.9
162.893
162.887
162.88
162.873
162.867
162.86
162.853
162.847
162.84
162.834
162.828
162.821
162.815
162.809
162.802
162.796
162.79
162.784
162.778
162.771
162.765
162.759
162.753
162.747
162.741
162.735
162.729
162.723
162.718
162.712
162.706
162.7
162.694
162.689
162.683
162.677
162.671
162.666
162.666
170.449
170.449
170.391
170.343
170.312
170.292
170.276
170.262
170.25
170.238
170.227
170.215
170.204
170.193
170.182
170.17
170.159
170.147
170.136
170.124
170.112
170.1
170.088
170.076
170.063
170.051
170.038
170.025
170.012
169.998
169.985
169.971
169.957
169.943
169.928
169.914
169.899
169.884
169.869
169.854
169.839
169.823
169.808
169.792
169.776
169.759
169.743
169.726
169.709
169.692
169.674
169.656
169.638
169.62
169.602
169.583
169.564
169.545
169.525
169.506
169.486
169.466
169.446
169.425
169.404
169.383
169.362
169.34
169.318
169.296
169.274
169.251
169.228
169.205
169.182
169.158
169.134
169.11
169.086
169.062
169.037
169.012
168.987
168.962
168.936
168.91
168.884
168.858
168.832
168.805
168.778
168.751
168.724
168.697
168.669
168.642
168.614
168.586
168.557
168.529
168.5
168.472
168.443
168.414
168.384
168.355
168.326
168.296
168.266
168.236
168.206
168.176
168.145
168.115
168.084
168.053
168.023
167.992
167.961
167.929
167.898
167.867
167.835
167.804
167.772