# vtk DataFile Version 2.0
FlowField
ASCII
DATASET STRUCTURED_GRID
DIMENSIONS 400 1 50
POINTS 20000 float
0 0 0
0.08 0 0
0.16 0 0
0.24 0 0
0.32 0 0
0.4 0 0
0.48 0 0
0.56 0 0
0.64 0 0
0.72 0 0
0.8 0 0
0.88 0 0
0.96 0 0
1.04 0 0
1.12 0 0
1.2 0 0
1.28 0 0
1.36 0 0
1.44 0 0
1.52 0 0
1.6 0 0
1.68 0 0
1.76 0 0
1.84 0 0
1.92 0 0
2 0 0
2.08 0 0
2.16 0 0
2.24 0 0
2.32 0 0
2.4 0 0
2.48 0 0
2.56 0 0
2.64 0 0
2.72 0 0
2.8 0 0
2.88 0 0
2.96 0 0
3.04 0 0
3.12 0 0
3.2 0 0
3.28 0 0
3.36 0 0
3.44 0 0
3.52 0 0
3.6 0 0
3.68 0 0
3.76 0 0
3.84 0 0
3.92 0 0
4 0 0
4.08 0 0
4.16 0 0
4.24 0 0
4.32 0 0
4.4 0 0
4.48 0 0
4.56 0 0
4.64 0 0
4.72 0 0
4.8 0 0
4.88 0 0
4.96 0 0
5.04 0 0
5.12 0 0
5.2 0 0
5.28 0 0
5.36 0 0
5.44 0 0
5.52 0 0
5.6 0 0
5.68 0 0
5.76 0 0
5.84 0 0
5.92 0 0
6 0 0
6.08 0 0
6.16 0 0
6.24 0 0
6.32 0 0
6.4 0 0
6.48 0 0
6.56 0 0
6.64 0 0
6.72 0 0
6.8 0 0
6.88 0 0
6.96 0 0
7.04 0 0
7.12 0 0
7.2 0 0
7.28 0 0
7.36 0 0
7.44 0 0
7.52 0 0
7.6 0 0
7.68 0 0
7.76 0 0
7.84 0 0
7.92 0 0
8 0 0
8.08 0 0
8.16 0 0
8.24 0 0
8.32 0 0
8.4 0 0
8.48 0 0
8.56 0 0
8.64 0 0
8.72 0 0
8.8 0 0
8.88 0 0
8.96 0 0
9.04 0 0
9.12 0 0
9.2 0 0
9.28 0 0
9.36 0 0
9.44 0 0
9.52 0 0
9.6 0 0
9.68 0 0
9.76 0 0
9.84 0 0
9.92 0 0
10 0 0
10.08 0 0
10.16 0 0
10.24 0 0
10.32 0 0
10.4 0 0
10.48 0 0
10.56 0 0
10.64 0 0
10.72 0 0
10.8 0 0
10.88 0 0
10.96 0 0
11.04 0 0
11.12 0 0
11.2 0 0
11.28 0 0
11.36 0 0
11.44 0 0
11.52 0 0
11.6 0 0
11.68 0 0
11.76 0 0
11.84 0 0
11.92 0 0
12 0 0
12.08 0 0
12.16 0 0
12.24 0 0
12.32 0 0
12.4 0 0
12.48 0 0
12.56 0 0
12.64 0 0
12.72 0 0
12.8 0 0
12.88 0 0
12.96 0 0
13.04 0 0
13.12 0 0
13.2 0 0
13.28 0 0
13.36 0 0
13.44 0 0
13.52 0 0
13.6 0 0
13.68 0 0
13.76 0 0
13.84 0 0
13.92 0 0
14 0 0
14.08 0 0
14.16 0 0
14.24 0 0
14.32 0 0
14.4 0 0
14.48 0 0
14.56 0 0
14.64 0 0
14.72 0 0
14.8 0 0
14.88 0 0
14.96 0 0
15.04 0 0
15.12 0 0
15.2 0 0
15.28 0 0
15.36 0 0
15.44 0 0
15.52 0 0
15.6 0 0
15.68 0 0
15.76 0 0
15.84 0 0
15.92 0 0
16 0 0
16.08 0 0
16.16 0 0
16.24 0 0
16.32 0 0
16.4 0 0
16.48 0 0
16.56 0 0
16.64 0 0
16.72 0 0
16.8 0 0
16.88 0 0
16.96 0 0
17.04 0 0
17.12 0 0
17.2 0 0
17.28 0 0
17.36 0 0
17.44 0 0
17.52 0 0
17.6 0 0
17.68 0 0
17.76 0 0
17.84 0 0
17.92 0 0
18 0 0
18.08 0 0
18.16 0 0
18.24 0 0
18.32 0 0
18.4 0 0
18.48 0 0
18.56 0 0
18.64 0 0
18.72 0 0
18.8 0 0
18.88 0 0
18.96 0 0
19.04 0 0
19.12 0 0
19.2 0 0
19.28 0 0
19.36 0 0
19.44 0 0
19.52 0 0
19.6 0 0
19.68 0 0
19.76 0 0
19.84 0 0
19.92 0 0
20 0 0
20.08 0 0
20.16 0 0
20.24 0 0
20.32 0 0
20.4 0 0
20.48 0 0
20.56 0 0
20.64 0 0
20.72 0 0
20.8 0 0
20.88 0 0
20.96 0 0
21.04 0 0
21.12 0 0
21.2 0 0
21.28 0 0
21.36 0 0
21.44 0 0
21.52 0 0
21.6 0 0
21.68 0 0
21.76 0 0
21.84 0 0
21.92 0 0
22 0 0
22.08 0 0
22.16 0 0
22.24 0 0
22.32 0 0
22.4 0 0
22.48 0 0
22.56 0 0
22.64 0 0
22.72 0 0
22.8 0 0
22.88 0 0
22.96 0 0
23.04 0 0
23.12 0 0
23.2 0 0
23.28 0 0
23.36 0 0
23.44 0 0
23.52 0 0
23.6 0 0
23.68 0 0
23.76 0 0
23.84 0 0
23.92 0 0
24 0 0
24.08 0 0
24.16 0 0
24.24 0 0
24.32 0 0
24.4 0 0
24.48 0 0
24.56 0 0
24.64 0 0
24.72 0 0
24.8 0 0
24.88 0 0
24.96 0 0
25.04 0 0
25.12 0 0
25.2 0 0
25.28 0 0
25.36 0 0
25.44 0 0
25.52 0 0
25.6 0 0
25.68 0 0
25.76 0 0
25.84 0 0
25.92 0 0
26 0 0
26.08 0 0
26.16 0 0
26.24 0 0
26.32 0 0
26.4 0 0
26.48 0 0
26.56 0 0
26.64 0 0
26.72 0 0
26.8 0 0
26.88 0 0
26.96 0 0
27.04 0 0
27.12 0 0
27.2 0 0
27.28 0 0
27.36 0 0
27.44 0 0
27.52 0 0
27.6 0 0
27.68 0 0
27.76 0 0
27.84 0 0
27.92 0 0
28 0 0
28.08 0 0
28.16 0 0
28.24 0 0
28.32 0 0
28.4 0 0
28.48 0 0
28.56 0 0
28.64 0 0
28.72 0 0
28.8 0 0
28.88 0 0
28.96 0 0
29.04 0 0
29.12 0 0
29.2 0 0
29.28 0 0
29.36 0 0
29.44 0 0
29.52 0 0
29.6 0 0
29.68 0 0
29.76 0 0
29.84 0 0
29.92 0 0
30 0 0
30.08 0 0
30.16 0 0
30.24 0 0
30.32 0 0
30.4 0 0
30.48 0 0
30.56 0 0
30.64 0 0
30.72 0 0
30.8 0 0
30.88 0 0
30.96 0 0
31.04 0 0
31.12 0 0
31.2 0 0
31.28 0 0
31.36 0 0
31.44 0 0
31.52 0 0
31.6 0 0
31.68 0 0
31.76 0 0
31.84 0 0
31.92 0 0
0 0.02 0
0.08 0.02 0
0.16 0.02 0
0.24 0.02 0
0.32 0.02 0
0.4 0.02 0
0.48 0.02 0
0.56 0.02 0
0.64 0.02 0
0.72 0.02 0
0.8 0.02 0
0.88 0.02 0
0.96 0.02 0
1.04 0.02 0
1.12 0.02 0
1.2 0.02 0
1.28 0.02 0
1.36 0.02 0
1.44 0.02 0
1.52 0.02 0
1.6 0.02 0
1.68 0.02 0
1.76 0.02 0
1.84 0.02 0
1.92 0.02 0
2 0.02 0
2.08 0.02 0
2.16 0.02 0
2.24 0.02 0
2.32 0.02 0
2.4 0.02 0
2.48 0.02 0
2.56 0.02 0
2.64 0.02 0
2.72 0.02 0
2.8 0.02 0
2.88 0.02 0
2.96 0.02 0
3.04 0.02 0
3.12 0.02 0
3.2 0.02 0
3.28 0.02 0
3.36 0.02 0
3.44 0.02 0
3.52 0.02 0
3.6 0.02 0
3.68 0.02 0
3.76 0.02 0
3.84 0.02 0
3.92 0.02 0
4 0.02 0
4.08 0.02 0
4.16 0.02 0
4.24 0.02 0
4.32 0.02 0
4.4 0.02 0
4.48 0.02 0
4.56 0.02 0
4.64 0.02 0
4.72 0.02 0
4.8 0.02 0
4.88 0.02 0
4.96 0.02 0
5.04 0.02 0
5.12 0.02 0
5.2 0.02 0
5.28 0.02 0
5.36 0.02 0
5.44 0.02 0
5.52 0.02 0
5.6 0.02 0
5.68 0.02 0
5.76 0.02 0
5.84 0.02 0
5.92 0.02 0
6 0.02 0
6.08 0.02 0
6.16 0.02 0
6.24 0.02 0
6.32 0.02 0
6.4 0.02 0
6.48 0.02 0
6.56 0.02 0
6.64 0.02 0
6.72 0.02 0
6.8 0.02 0
6.88 0.02 0
6.96 0.02 0
7.04 0.02 0
7.12 0.02 0
7.2 0.02 0
7.28 0.02 0
7.36 0.02 0
7.44 0.02 0
7.52 0.02 0
7.6 0.02 0
7.68 0.02 0
7.76 0.02 0
7.84 0.02 0
7.92 0.02 0
8 0.02 0
8.08 0.02 0
8.16 0.02 0
8.24 0.02 0
8.32 0.02 0
8.4 0.02 0
8.48 0.02 0
8.56 0.02 0
8.64 0.02 0
8.72 0.02 0
8.8 0.02 0
8.88 0.02 0
8.96 0.02 0
9.04 0.02 0
9.12 0.02 0
9.2 0.02 0
9.28 0.02 0
9.36 0.02 0
9.44 0.02 0
9.52 0.02 0
9.6 0.02 0
9.68 0.02 0
9.76 0.02 0
9.84 0.02 0
9.92 0.02 0
10 0.02 0
10.08 0.02 0
10.16 0.02 0
10.24 0.02 0
10.32 0.02 0
10.4 0.02 0
10.48 0.02 0
10.56 0.02 0
10.64 0.02 0
10.72 0.02 0
10.8 0.02 0
10.88 0.02 0
10.96 0.02 0
11.04 0.02 0
11.12 0.02 0
11.2 0.02 0
11.28 0.02 0
11.36 0.02 0
11.44 0.02 0
11.52 0.02 0
11.6 0.02 0
11.68 0.02 0
11.76 0.02 0
11.84 0.02 0
11.92 0.02 0
12 0.02 0
12.08 0.02 0
12.16 0.02 0
12.24 0.02 0
12.32 0.02 0
12.4 0.02 0
12.48 0.02 0
12.56 0.02 0
12.64 0.02 0
12.72 0.02 0
12.8 0.02 0
12.88 0.02 0
12.96 0.02 0
13.04 0.02 0
13.12 0.02 0
13.2 0.02 0
13.28 0.02 0
13.36 0.02 0
13.44 0.02 0
13.52 0.02 0
13.6 0.02 0
13.68 0.02 0
13.76 0.02 0
13.84 0.02 0
13.92 0.02 0
14 0.02 0
14.08 0.02 0
14.16 0.02 0
14.24 0.02 0
14.32 0.02 0
14.4 0.02 0
14.48 0.02 0
14.56 0.02 0
14.64 0.02 0
14.72 0.02 0
14.8 0.02 0
14.88 0.02 0
14.96 0.02 0
15.04 0.02 0
15.12 0.02 0
15.2 0.02 0
15.28 0.02 0
15.36 0.02 0
15.44 0.02 0
15.52 0.02 0
15.6 0.02 0
15.68 0.02 0
15.76 0.02 0
15.84 0.02 0
15.92 0.02 0
16 0.02 0
16.08 0.02 0
16.16 0.02 0
16.24 0.02 0
16.32 0.02 0
16.4 0.02 0
16.48 0.02 0
16.56 0.02 0
16.64 0.02 0
16.72 0.02 0
16.8 0.02 0
16.88 0.02 0
16.96 0.02 0
17.04 0.02 0
17.12 0.02 0
17.2 0.02 0
17.28 0.02 0
17.36 0.02 0
17.44 0.02 0
17.52 0.02 0
17.6 0.02 0
17.68 0.02 0
17.76 0.02 0
17.84 0.02 0
17.92 0.02 0
18 0.02 0
18.08 0.02 0
18.16 0.02 0
18.24 0.02 0
18.32 0.02 0
18.4 0.02 0
18.48 0.02 0
18.56 0.02 0
18.64 0.02 0
18.72 0.02 0
18.8 0.02 0
18.88 0.02 0
18.96 0.02 0
19.04 0.02 0
19.12 0.02 0
19.2 0.02 0
19.28 0.02 0
19.36 0.02 0
19.44 0.02 0
19.52 0.02 0
19.6 0.02 0
19.68 0.02 0
19.76 0.02 0
19.84 0.02 0
19.92 0.02 0
20 0.02 0
20.08 0.02 0
20.16 0.02 0
20.24 0.02 0
20.32 0.02 0
20.4 0.02 0
20.48 0.02 0
20.56 0.02 0
20.64 0.02 0
20.72 0.02 0
20.8 0.02 0
20.88 0.02 0
20.96 0.02 0
21.04 0.02 0
21.12 0.02 0
21.2 0.02 0
21.28 0.02 0
21.36 0.02 0
21.44 0.02 0
21.52 0.02 0
21.6 0.02 0
21.68 0.02 0
21.76 0.02 0
21.84 0.02 0
21.92 0.02 0
22 0.02 0
22.08 0.02 0
22.16 0.02 0
22.24 0.02 0
22.32 0.02 0
22.4 0.02 0
22.48 0.02 0
22.56 0.02 0
22.64 0.02 0
22.72 0.02 0
22.8 0.02 0
22.88 0.02 0
22.96 0.02 0
23.04 0.02 0
23.12 0.02 0
23.2 0.02 0
23.28 0.02 0
23.36 0.02 0
23.44 0.02 0
23.52 0.02 0
23.6 0.02 0
23.68 0.02 0
23.76 0.02 0
23.84 0.02 0
23.92 0.02 0
24 0.02 0
24.08 0.02 0
24.16 0.02 0
24.24 0.02 0
24.32 0.02 0
24.4 0.02 0
24.48 0.02 0
24.56 0.02 0
24.64 0.02 0
24.72 0.02 0
24.8 0.02 0
24.88 0.02 0
24.96 0.02 0
25.04 0.02 0
25.12 0.02 0
25.2 0.02 0
25.28 0.02 0
25.36 0.02 0
25.44 0.02 0
25.52 0.02 0
25.6 0.02 0
25.68 0.02 0
25.76 0.02 0
25.84 0.02 0
25.92 0.02 0
26 0.02 0
26.08 0.02 0
26.16 0.02 0
26.24 0.02 0
26.32 0.02 0
26.4 0.02 0
26.48 0.02 0
26.56 0.02 0
26.64 0.02 0
26.72 0.02 0
26.8 0.02 0
26.88 0.02 0
26.96 0.02 0
27.04 0.02 0
27.12 0.02 0
27.2 0.02 0
27.28 0.02 0
27.36 0.02 0
27.44 0.02 0
27.52 0.02 0
27.6 0.02 0
27.68 0.02 0
27.76 0.02 0
27.84 0.02 0
27.92 0.02 0
28 0.02 0
28.08 0.02 0
28.16 0.02 0
28.24 0.02 0
28.32 0.02 0
28.4 0.02 0
28.48 0.02 0
28.56 0.02 0
28.64 0.02 0
28.72 0.02 0
28.8 0.02 0
28.88 0.02 0
28.96 0.02 0
29.04 0.02 0
29.12 0.02 0
29.2 0.02 0
29.28 0.02 0
29.36 0.02 0
29.44 0.02 0
29.52 0.02 0
29.6 0.02 0
29.68 0.02 0
29.76 0.02 0
29.84 0.02 0
29.92 0.02 0
30 0.02 0
30.08 0.02 0
30.16 0.02 0
30.24 0.02 0
30.32 0.02 0
30.4 0.02 0
30.48 0.02 0
30.56 0.02 0
30.64 0.02 0
30.72 0.02 0
30.8 0.02 0
30.88 0.02 0
30.96 0.02 0
31.04 0.02 0
31.12 0.02 0
31.2 0.02 0
31.28 0.02 0
31.36 0.02 0
31.44 0.02 0
31.52 0.02 0
31.6 0.02 0
31.68 0.02 0
31.76 0.02 0
31.84 0.02 0
31.92 0.02 0
0 0.04 0
0.08 0.04 0
0.16 0.04 0
0.24 0.04 0
0.32 0.04 0
0.4 0.04 0
0.48 0.04 0
0.56 0.04 0
0.64 0.04 0
0.72 0.04 0
0.8 0.04 0
0.88 0.04 0
0.96 0.04 0
1.04 0.04 0
1.12 0.04 0
1.2 0.04 0
1.28 0.04 0
1.36 0.04 0
1.44 0.04 0
1.52 0.04 0
1.6 0.04 0
1.68 0.04 0
1.76 0.04 0
1.84 0.04 0
1.92 0.04 0
2 0.04 0
2.08 0.04 0
2.16 0.04 0
2.24 0.04 0
2.32 0.04 0
2.4 0.04 0
2.48 0.04 0
2.56 0.04 0
2.64 0.04 0
2.72 0.04 0
2.8 0.04 0
2.88 0.04 0
2.96 0.04 0
3.04 0.04 0
3.12 0.04 0
3.2 0.04 0
3.28 0.04 0
3.36 0.04 0
3.44 0.04 0
3.52 0.04 0
3.6 0.04 0
3.68 0.04 0
3.76 0.04 0
3.84 0.04 0
3.92 0.04 0
4 0.04 0
4.08 0.04 0
4.16 0.04 0
4.24 0.04 0
4.32 0.04 0
4.4 0.04 0
4.48 0.04 0
4.56 0.04 0
4.64 0.04 0
4.72 0.04 0
4.8 0.04 0
4.88 0.04 0
4.96 0.04 0
5.04 0.04 0
5.12 0.04 0
5.2 0.04 0
5.28 0.04 0
5.36 0.04 0
5.44 0.04 0
5.52 0.04 0
5.6 0.04 0
5.68 0.04 0
5.76 0.04 0
5.84 0.04 0
5.92 0.04 0
6 0.04 0
6.08 0.04 0
6.16 0.04 0
6.24 0.04 0
6.32 0.04 0
6.4 0.04 0
6.48 0.04 0
6.56 0.04 0
6.64 0.04 0
6.72 0.04 0
6.8 0.04 0
6.88 0.04 0
6.96 0.04 0
7.04 0.04 0
7.12 0.04 0
7.2 0.04 0
7.28 0.04 0
7.36 0.04 0
7.44 0.04 0
7.52 0.04 0
7.6 0.04 0
7.68 0.04 0
7.76 0.04 0
7.84 0.04 0
[...]
POINT_DATA 20000

SCALARS v float 1
LOOKUP_TABLE default
0
0
0
0
0
0
0
0
0
0
0
0
0
0
0
0
0
0
0
0
0
0
0
0
0
0
0
0
0
0
0
0
0
0
0
0
0
0
0
0
0
0
0
0
0
0
0
0
0
0
0
0
0
0
0
0
0
0
0
0
0
0
0
0
0
0
0
0
0
0
0
0
0
0
0
0
0
0
0
0
0
0
0
0
0
0
0
0
0
0
0
0
0
0
0
0
0
0
0
0
0
0
0
0
0
0
0
0
0
0
0
0
0
0
0
0
0
0
0
0
0
0
0
0
0
0
0
0
0
0
0
0
0
0
0
0
0
0
0
0
0
0
0
0
0
0
0
0
0
0
0
0
0
0
0
0
0
0
0
0
0
0
0
0
0
0
0
0
0
0
0
0
0
0
0
0
0
0
0
0
0
0
0
0
0
0
0
0
0
0
0
0
0
0
0
0
0
0
0
0
0
0
0
0
0
0
0
0
0
0
0
0
0
0
0
0
0
0
0
0
0
0
0
0
0
0
0
0
0
0
0
0
0
0
0
0
0
0
0
0
0
0
0
0
0
0
0
0
0
0
0
0
0
0
0
0
0
0
0
0
0
0
0
0
0
0
0
0
0
0
0
0
0
0
0
0
0
0
0
0
0
0
0
0
0
0
0
0
0
0
0
0
0
0
0
0
0
0
0
0
0
0
0
0
0
0
0
0
0
0
0
0
0
0
0
0
0
0
0
0
0
0
0
0
0
0
0
0
0
0
0
0
0
0
0
0
0
0
0
0
0
0
0
0
0
0
0
0
0
0
0
0
0
0
0
0
0
0
0
0
0
0
0
0
0
0
0
0
0
0
0
0
0
0
0
0
0
0
0
0
0
0
0
0
0
0
0
0
0
0
0
0
0
0
0
0
0
0
0
0
-0.123227
0.123227
0.053792
0.0194391
0.00878326
0.00508983
0.00338786
0.0024374
0.00184758
0.00145636
0.0011841
0.000987302
0.00084044
0.000727749
0.000639112
0.000567847
0.000509424
0.000460707
0.000419481
0.000384148
0.000353534
0.000326761
0.000303159
0.000282207
0.000263496
0.000246698
0.000231546
0.000217821
0.000205342
0.000193956
0.000183535
0.000173968
0.000165162
0.000157035
0.000149516
0.000142545
0.000136068
0.000130038
0.000124412
0.000119155
0.000114233
0.000109618
0.000105284
0.000101207
9.73675e-05
9.37454e-05
9.03244e-05
8.70892e-05
8.40259e-05
8.11219e-05
7.8366e-05
7.57476e-05
7.32573e-05
7.08863e-05
6.86268e-05
6.64714e-05
6.44135e-05
6.24468e-05
6.05657e-05
5.8765e-05
5.70398e-05
5.53857e-05
5.37985e-05
5.22744e-05
5.08099e-05
4.94016e-05
4.80464e-05
4.67415e-05
4.54842e-05
4.4272e-05
4.31027e-05
4.1974e-05
4.0884e-05
3.98306e-05
3.88122e-05
3.78271e-05
3.68737e-05
3.59505e-05
3.50562e-05
3.41894e-05
3.33491e-05
3.2534e-05
3.17432e-05
3.09754e-05
3.02299e-05
2.95057e-05
2.88019e-05
2.81178e-05
2.74525e-05
2.68054e-05
2.61757e-05
2.55629e-05
2.49663e-05
2.43854e-05
2.38194e-05
2.3268e-05
2.27306e-05
2.22068e-05
2.1696e-05
2.1198e-05
2.07123e-05
2.02386e-05
1.97764e-05
1.93254e-05
1.88852e-05
1.84554e-05
1.80359e-05
1.76263e-05
1.72263e-05
1.68357e-05
1.64541e-05
1.60815e-05
1.57174e-05
1.53616e-05
1.50139e-05
1.46742e-05
1.4342e-05
1.40174e-05
1.37002e-05
1.33901e-05
1.30871e-05
1.27909e-05
1.25014e-05
1.22183e-05
1.19415e-05
1.16709e-05
1.14062e-05
1.11475e-05
1.08945e-05
1.06472e-05
1.04054e-05
1.0169e-05
9.93778e-06
9.71169e-06
9.49053e-06
9.2742e-06
9.06262e-06
8.85573e-06
8.6535e-06
8.45582e-06
8.26259e-06
8.07366e-06
7.8889e-06
7.70818e-06
7.53142e-06
7.35855e-06
7.18947e-06
7.02413e-06
6.86246e-06
6.70443e-06
6.54997e-06
6.39899e-06
6.25132e-06
6.10681e-06
5.96531e-06
5.82681e-06
5.69135e-06
5.55896e-06
5.42964e-06
5.30325e-06
5.17964e-06
5.05866e-06
4.94023e-06
4.82436e-06
4.71101e-06
4.60011e-06
4.49157e-06
4.3853e-06
4.28131e-06
4.17968e-06
4.08043e-06
3.98347e-06
3.88856e-06
3.79545e-06
3.70403e-06
3.61438e-06
3.52672e-06
3.44123e-06
3.35789e-06
3.27651e-06
3.19677e-06
3.1185e-06
3.04172e-06
2.96656e-06
2.89312e-06
2.82138e-06
2.7512e-06
2.68242e-06
2.61504e-06
2.5492e-06
2.48503e-06
2.42249e-06
2.36135e-06
2.30127e-06
2.24206e-06
2.18383e-06
2.12689e-06
2.0716e-06
2.01806e-06
1.96602e-06
1.91506e-06
1.86481e-06
1.81519e-06
1.76639e-06
1.71871e-06
1.67235e-06
1.62723e-06
1.58313e-06
1.53986e-06
1.49737e-06
1.45575e-06
1.41506e-06
1.37521e-06
1.33597e-06
1.29709e-06
1.25857e-06
1.22062e-06
1.18363e-06
1.14782e-06
1.11304e-06
1.07883e-06
1.04465e-06
1.0102e-06
9.75612e-07
9.41339e-07
9.07869e-07
8.754e-07
8.43727e-07
8.12395e-07
7.80992e-07
7.49387e-07
7.17752e-07
6.86364e-07
6.55372e-07
6.24684e-07
5.9408e-07
5.63428e-07
5.32842e-07
5.02634e-07
4.73067e-07
4.44097e-07
4.15298e-07
3.86067e-07
3.5601e-07
3.25252e-07
2.94465e-07
2.64537e-07
2.36066e-07
2.08976e-07
1.82501e-07
1.55585e-07
1.27471e-07
9.81678e-08
6.84967e-08
3.96946e-08
1.27737e-08
-1.20075e-08
-3.52724e-08
-5.8187e-08
-8.18368e-08
-1.06657e-07
-1.32214e-07
-1.57438e-07
-1.81177e-07
-2.02766e-07
-2.2233e-07
-2.40673e-07
-2.58847e-07
-2.77621e-07
-2.97129e-07
-3.16846e-07
-3.35888e-07
-3.53454e-07
-3.6919e-07
-3.83312e-07
-3.96451e-07
-4.09321e-07
-4.22385e-07
-4.35673e-07
-4.4882e-07
-4.61274e-07
-4.72568e-07
-4.82523e-07
-4.91293e-07
-4.99264e-07
-5.06864e-07
-5.1438e-07
-5.21861e-07
-5.29143e-07
-5.35955e-07
-5.42058e-07
-5.47352e-07
-5.51904e-07
-5.55906e-07
-5.59584e-07
-5.63111e-07
-5.66551e-07
-5.69863e-07
-5.72937e-07
-5.75661e-07
-5.77973e-07
-5.79886e-07
-5.81474e-07
-5.82845e-07
-5.84098e-07
-5.85291e-07
-5.86436e-07
-5.87502e-07
-5.88444e-07
-5.89224e-07
-5.89828e-07
-5.90277e-07
-5.90607e-07
-5.90871e-07
-5.91106e-07
-5.91342e-07
-5.91579e-07
-5.91813e-07
-5.92019e-07
-5.92189e-07
-5.92308e-07
-5.92386e-07
-5.92426e-07
-5.92453e-07
-5.9247e-07
-5.925e-07
-5.92534e-07
-5.92585e-07
-5.92631e-07
-5.92686e-07
-5.92721e-07
-5.92763e-07
-5.92778e-07
-5.92809e-07
-5.92814e-07
-5.92847e-07
-5.92855e-07
-5.929e-07
-5.92912e-07
-5.9297e-07
-5.92981e-07
-5.93048e-07
-5.9305e-07
-5.93125e-07
-5.93115e-07
-5.93202e-07
-5.93181e-07
-5.93286e-07
-5.93252e-07
-5.93381e-07
-5.93328e-07
-5.93487e-07
-5.93409e-07
-5.93606e-07
-5.93494e-07
-5.93737e-07
-5.93581e-07
-5.93886e-07
-5.93672e-07
-5.94058e-07
-5.93769e-07
-5.94259e-07
-5.93873e-07
-5.94497e-07
-5.93984e-07
-5.94784e-07
-5.94107e-07
-5.95133e-07
-5.94243e-07
-5.95563e-07
-5.94397e-07
-5.96098e-07
-5.94577e-07
-5.96771e-07
-5.94793e-07
-5.97622e-07
-5.95062e-07
-5.98702e-07
-5.95406e-07
-6.00073e-07
-5.95862e-07
-6.01806e-07
-5.96484e-07
-6.03972e-07
-5.97351e-07
-6.06606e-07
-5.98577e-07
-6.09617e-07
-6.00318e-07
-6.12519e-07
-6.02775e-07
-6.13655e-07
-6.0618e-07
-6.07591e-07
-6.10772e-07
-5.73944e-07
-6.15708e-07
-3.70131e-07
-5.13507e-07
-5.13507e-07
-0.142153
0.142153
0.101004
0.053913
0.0302565
0.0189183
0.0129276
0.00941309
0.00718016
0.00567725
0.00462076
0.00385177
0.00327527
0.00283177
0.0024826
0.00220193
0.00197211
0.00178082
0.00161928
0.00148113
0.00136171
0.00125748
0.00116577
0.00108451
0.00101205
0.000947076
0.000888543
0.000835579
0.000787463
0.000743597
0.000703474
0.000666662
0.000632794
0.000601553
0.000572663
0.000545887
0.000521016
0.000497867
0.000476279
0.00045611
0.000437233
0.000419536
0.00040292
0.000387293
0.000372577
0.000358698
0.000345593
0.0003332
0.000321469
0.000310349
0.000299797
0.000289774
0.000280242
0.000271169
0.000262523
0.000254277
0.000246404
0.000238882
0.000231688
0.000224802
0.000218206
0.000211882
0.000205815
0.00019999
0.000194393
0.000189012
0.000183835
0.00017885
0.000174047
0.000169418
0.000164953
0.000160643
0.000156482
0.000152461
0.000148574
0.000144815
0.000141177
0.000137655
0.000134243
0.000130938
0.000127733
0.000124625
0.00012161
0.000118683
0.000115842
0.000113082
0.0001104
0.000107793
0.000105259
0.000102794
0.000100396
9.8062e-05
9.57904e-05
9.35785e-05
9.14241e-05
8.93253e-05
8.72802e-05
8.5287e-05
8.33439e-05
8.14495e-05
7.96022e-05
7.78004e-05
7.60428e-05
7.43278e-05
7.26542e-05
7.10207e-05
6.94261e-05
6.78693e-05
6.63493e-05
6.48651e-05
6.34156e-05
6.19998e-05
6.06167e-05
5.92655e-05
5.79452e-05
5.6655e-05
5.53942e-05
5.4162e-05
5.2958e-05
5.17813e-05
5.06313e-05
4.95074e-05
4.84088e-05
4.73348e-05
4.62848e-05
4.52582e-05
4.42546e-05
4.32734e-05
4.23142e-05
4.13765e-05
4.04598e-05
3.95636e-05
3.86873e-05
3.78303e-05
3.69922e-05
3.61726e-05
3.53711e-05
3.45876e-05
3.38217e-05
3.30731e-05
3.23413e-05
3.16258e-05
3.09262e-05
3.02419e-05
2.95728e-05
2.89184e-05
2.82786e-05
2.7653e-05
2.70413e-05
2.64435e-05
2.58591e-05
2.52877e-05
2.47289e-05
2.41821e-05
2.3647e-05
2.31234e-05
2.26115e-05
2.21112e-05
2.16223e-05
2.11445e-05
2.0677e-05
2.02196e-05
1.97719e-05
1.9334e-05
1.89056e-05
1.84864e-05
1.80763e-05
1.76749e-05
1.72822e-05
1.68984e-05
1.65234e-05
1.61567e-05
1.57977e-05
1.54457e-05
1.51004e-05
1.47623e-05
1.44318e-05
1.41093e-05
1.37945e-05
1.34867e-05
1.31852e-05
1.28895e-05
1.25996e-05
1.23161e-05
1.2039e-05
1.17681e-05
1.15031e-05
1.12435e-05
1.09895e-05
1.07413e-05
1.04991e-05
1.02628e-05
1.00314e-05
9.80424e-06
9.58087e-06
9.36176e-06
9.14784e-06
8.93987e-06
8.73784e-06
8.54086e-06
8.3477e-06
8.15747e-06
7.97014e-06
7.78635e-06
7.60689e-06
7.43205e-06
7.2615e-06
7.09457e-06
6.93072e-06
6.76987e-06
6.61222e-06
6.4578e-06
6.30624e-06
6.15685e-06
6.0091e-06
5.86309e-06
5.71957e-06
5.57943e-06
5.44297e-06
5.30949e-06
5.17756e-06
5.04578e-06
4.91362e-06
4.78174e-06
4.65148e-06
4.524e-06
4.39954e-06
4.27724e-06
4.15579e-06
4.03417e-06
3.91223e-06
3.79057e-06
3.66991e-06
3.55051e-06
3.43204e-06
3.31392e-06
3.19594e-06
3.07854e-06
2.96254e-06
2.84843e-06
2.73579e-06
2.62326e-06
2.50935e-06
2.39339e-06
2.27625e-06
2.16006e-06
2.04713e-06
1.9386e-06
1.83366e-06
1.72985e-06
1.62443e-06
1.51593e-06
1.40516e-06
1.29491e-06
1.18862e-06
1.08857e-06
9.94697e-07
9.04701e-07
8.15254e-07
7.23799e-07
6.29891e-07
5.35419e-07
4.43615e-07
3.57419e-07
2.78041e-07
2.04468e-07
1.34088e-07
6.40632e-08
-7.26704e-09
-7.96618e-08
-1.51219e-07
-2.19397e-07
-2.82254e-07
-3.39296e-07
-3.91575e-07
-4.41055e-07
-4.89623e-07
-5.38242e-07
-5.86623e-07
-6.33501e-07
-6.77326e-07
-7.17006e-07
-7.52349e-07
-7.84068e-07
-8.13376e-07
-8.41433e-07
-8.6888e-07
-8.95671e-07
-9.21225e-07
-9.44782e-07
-9.65783e-07
-9.84115e-07
-1.00013e-06
-1.01445e-06
-1.02772e-06
-1.04037e-06
-1.05251e-06
-1.06395e-06
-1.07437e-06
-1.0835e-06
-1.09125e-06
-1.09773e-06
-1.10322e-06
-1.10804e-06
-1.11245e-06
-1.11661e-06
-1.12049e-06
-1.12402e-06
-1.12706e-06
-1.12954e-06
-1.13146e-06
-1.13291e-06
-1.13401e-06
-1.13493e-06
-1.13576e-06
-1.13658e-06
-1.13736e-06
-1.13811e-06
-1.13873e-06
-1.13923e-06
-1.13956e-06
-1.13978e-06
-1.13988e-06
-1.13996e-06
-1.14002e-06
-1.14011e-06
-1.14021e-06
-1.14036e-06
-1.14048e-06
-1.14062e-06
-1.14069e-06
-1.14079e-06
-1.1408e-06
-1.14086e-06
-1.14084e-06
-1.14092e-06
-1.14091e-06
-1.14102e-06
-1.14101e-06
-1.14116e-06
-1.14114e-06
-1.14131e-06
-1.14126e-06
-1.14145e-06
-1.14136e-06
-1.14159e-06
-1.14146e-06
-1.14174e-06
-1.14157e-06
-1.14193e-06
-1.14169e-06
-1.14214e-06
-1.14182e-06
-1.14238e-06
-1.14194e-06
-1.14266e-06
-1.14208e-06
-1.14299e-06
-1.14222e-06
-1.14338e-06
-1.14237e-06
-1.14387e-06
-1.14255e-06
-1.14448e-06
-1.14275e-06
-1.14525e-06
-1.14298e-06
-1.14622e-06
-1.14327e-06
-1.14745e-06
-1.14362e-06
-1.14905e-06
-1.14408e-06
-1.1511e-06
-1.14467e-06
-1.15376e-06
-1.14547e-06
-1.15721e-06
-1.14656e-06
-1.16165e-06
-1.14808e-06
-1.16736e-06
-1.15021e-06
-1.17458e-06
-1.15325e-06
-1.18349e-06
-1.15757e-06
-1.19387e-06
-1.16365e-06
-1.20425e-06
-1.17199e-06
-1.20949e-06
-1.18283e-06
-1.19264e-06
-1.19508e-06
-1.09121e-06
-1.19796e-06
-5.21456e-07
-8.81714e-07
-8.81714e-07
-0.122226
0.122226
0.121663
0.0822679
0.0539948
0.0368641
0.0263932
0.0197164
0.0152657
0.0121802
0.0099685
0.00833674
0.00710178
0.00614539
0.00538905
0.00477938
0.00427937
0.00386287
0.00351111
0.00321039
0.00295053
0.00272388
0.00252457
0.00234807
0.00219076
0.00204979
0.00192284
0.00180801
0.00170372
0.00160866
0.00152173
0.00144199
0.00136864
0.00130098
0.00123842
0.00118044
0.00112659
0.00107648
0.00102974
0.000986074
0.00094521
0.000906902
0.000870932
0.000837108
0.000805254
0.000775214
0.000746848
0.000720026
0.000694635
0.00067057
0.000647734
0.000626042
0.000605415
0.00058578
0.000567071
0.000549227
0.000532193
0.000515917
0.000500352
0.000485455
0.000471185
0.000457505
0.000444381
0.000431781
0.000419676
0.000408037
0.000396839
0.000386059
0.000375674
0.000365664
0.00035601
0.000346692
0.000337696
0.000329004
0.000320602
0.000312476
0.000304614
0.000297002
0.00028963
0.000282488
0.000275564
0.00026885
0.000262336
0.000256015
0.000249878
0.000243917
0.000238126
0.000232497
0.000227025
0.000221704
0.000216527
0.00021149
0.000206587
0.000201814
0.000197165
0.000192637
0.000188224
0.000183925
0.000179734
0.000175648
0.000171664
0.000167778
0.000163989
0.000160291
0.000156683
0.000153162
0.000149725
0.00014637
0.000143094
0.000139896
0.000136772
0.000133722
0.000130742
0.000127831
0.000124988
0.000122209
0.000119494
0.000116841
0.000114248
0.000111715
0.000109239
0.00010682
0.000104455
0.000102144
9.98839e-05
9.76748e-05
9.55153e-05
9.34042e-05
9.13407e-05
8.93235e-05
8.73516e-05
8.54238e-05
8.3539e-05
8.1696e-05
7.98939e-05
7.81317e-05
7.64088e-05
7.47246e-05
7.30784e-05
7.14694e-05
6.98966e-05
6.83589e-05
6.68553e-05
6.53851e-05
6.39474e-05
6.25417e-05
6.11673e-05
5.98236e-05
5.85101e-05
5.72261e-05
5.5971e-05
5.4744e-05
5.3544e-05
5.237e-05
5.12213e-05
5.00977e-05
4.89992e-05
4.79257e-05
4.68766e-05
4.58509e-05
4.48477e-05
4.38661e-05
4.29056e-05
4.19661e-05
4.1047e-05
4.0148e-05
3.92683e-05
3.84075e-05
3.75656e-05
3.67426e-05
3.59382e-05
3.51515e-05
3.43813e-05
3.36263e-05
3.28863e-05
3.21619e-05
3.14539e-05
3.07628e-05
3.00879e-05
2.94279e-05
2.87812e-05
2.81472e-05
2.75262e-05
2.69187e-05
2.63251e-05
2.57447e-05
2.51768e-05
2.46208e-05
2.40768e-05
2.35453e-05
2.30265e-05
2.25198e-05
2.20237e-05
2.15368e-05
2.10586e-05
2.05902e-05
2.01329e-05
1.96881e-05
1.92552e-05
1.88326e-05
1.84181e-05
1.80102e-05
1.76091e-05
1.72159e-05
1.6832e-05
1.64576e-05
1.6092e-05
1.57338e-05
1.53822e-05
1.50371e-05
1.46986e-05
1.43668e-05
1.40408e-05
1.37195e-05
1.34019e-05
1.30885e-05
1.27805e-05
1.24792e-05
1.2185e-05
1.18962e-05
1.16103e-05
1.13249e-05
1.10395e-05
1.07554e-05
1.0475e-05
1.02001e-05
9.93079e-06
9.66529e-06
9.40127e-06
9.13712e-06
8.87278e-06
8.60937e-06
8.34813e-06
8.08938e-06
7.83245e-06
7.57636e-06
7.32087e-06
7.06685e-06
6.81563e-06
6.56785e-06
6.3225e-06
6.07719e-06
5.8295e-06
5.57876e-06
5.32691e-06
5.07786e-06
4.83542e-06
4.60105e-06
4.37279e-06
4.14621e-06
3.9168e-06
3.68271e-06
3.44611e-06
3.21229e-06
2.98713e-06
2.77399e-06
2.57207e-06
2.37684e-06
2.18257e-06
1.98534e-06
1.78517e-06
1.58596e-06
1.39352e-06
1.21259e-06
1.04463e-06
8.87222e-07
7.35527e-07
5.8478e-07
4.32618e-07
2.80072e-07
1.30845e-07
-1.06269e-08
-1.41311e-07
-2.60868e-07
-3.71561e-07
-4.76971e-07
-5.80238e-07
-6.82686e-07
-7.83443e-07
-8.801e-07
-9.69999e-07
-1.05148e-06
-1.12456e-06
-1.19076e-06
-1.25231e-06
-1.3112e-06
-1.36836e-06
-1.42355e-06
-1.47565e-06
-1.52337e-06
-1.56588e-06
-1.60317e-06
-1.63601e-06
-1.66561e-06
-1.69309e-06
-1.71914e-06
-1.74387e-06
-1.76692e-06
-1.78772e-06
-1.80588e-06
-1.82131e-06
-1.83431e-06
-1.84542e-06
-1.85523e-06
-1.86422e-06
-1.87259e-06
-1.88031e-06
-1.88722e-06
-1.89311e-06
-1.89788e-06
-1.90158e-06
-1.90441e-06
-1.90661e-06
-1.90847e-06
-1.91016e-06
-1.9118e-06
-1.91335e-06
-1.91477e-06
-1.91594e-06
-1.91685e-06
-1.91745e-06
-1.91785e-06
-1.91805e-06
-1.91821e-06
-1.91834e-06
-1.91854e-06
-1.91874e-06
-1.91903e-06
-1.91924e-06
-1.9195e-06
-1.91961e-06
-1.91977e-06
-1.91978e-06
-1.91989e-06
-1.91985e-06
-1.91999e-06
-1.91995e-06
-1.92016e-06
-1.92013e-06
-1.9204e-06
-1.92034e-06
-1.92065e-06
-1.92053e-06
-1.92087e-06
-1.92068e-06
-1.92109e-06
-1.92082e-06
-1.92135e-06
-1.92097e-06
-1.92164e-06
-1.92114e-06
-1.922e-06
-1.92132e-06
-1.9224e-06
-1.92151e-06
-1.92288e-06
-1.92169e-06
-1.92346e-06
-1.92189e-06
-1.92416e-06
-1.92212e-06
-1.92505e-06
-1.92238e-06
-1.92618e-06
-1.9227e-06
-1.92761e-06
-1.92308e-06
-1.92945e-06
-1.92357e-06
-1.93184e-06
-1.9242e-06
-1.93493e-06
-1.92504e-06
-1.93896e-06
-1.92618e-06
-1.94421e-06
-1.92774e-06
-1.95105e-06
-1.92992e-06
-1.95993e-06
-1.93298e-06
-1.97138e-06
-1.93732e-06
-1.98597e-06
-1.94349e-06
-2.00411e-06
-1.95223e-06
-2.0255e-06
-1.96442e-06
-2.04759e-06
-1.98086e-06
-2.06099e-06
-2.00137e-06
-2.03473e-06
-2.02128e-06
-1.8575e-06
-2.00769e-06
-9.33174e-07
-1.39774e-06
-1.39774e-06
-0.0942783
0.0942783
0.121016
0.0969697
0.0717939
0.0531985
0.0402015
0.031112
0.0246584
0.0199859
0.0165329
0.0139288
0.0119259
0.0103562
0.00910384
0.00808773
0.00725038
0.00655048
0.0059579
0.00545039
0.00501129
0.00462795
0.00429062
0.00399171
0.00372519
0.00348626
0.003271
0.00307622
0.00289928
0.00273795
0.00259036
0.00245494
0.00233033
0.00221537
0.00210904
0.00201048
0.00191891
0.00183367
0.00175416
0.00167986
0.00161031
0.0015451
0.00148387
0.00142627
0.00137202
0.00132086
0.00127253
0.00122684
0.00118357
0.00114256
0.00110364
0.00106667
0.0010315
0.00099803
0.000966133
0.000935709
0.000906663
0.000878908
0.000852365
0.000826959
0.000802621
0.00077929
0.000756906
0.000735415
0.000714767
0.000694914
0.000675814
0.000657426
0.000639712
0.000622637
0.000606169
0.000590277
0.000574931
0.000560105
0.000545775
0.000531915
0.000518506
0.000505525
0.000492953
0.000480772
0.000468965
0.000457517
0.00044641
0.000435632
0.000425169
0.000415006
0.000405134
0.000395539
0.000386212
0.000377142
0.000368319
0.000359735
0.00035138
0.000343246
0.000335325
0.00032761
0.000320093
0.000312768
0.00030563
0.000298671
0.000291886
0.000285269
0.000278815
0.000272519
0.000266376
0.000260381
0.00025453
0.000248819
0.000243244
0.0002378
0.000232485
0.000227294
0.000222223
0.000217271
0.000212432
0.000207705
0.000203087
0.000198574
0.000194165
0.000189857
0.000185647
0.000181533
0.000177512
0.000173582
0.00016974
0.000165985
0.000162314
0.000158726
0.000155219
0.000151791
0.00014844
0.000145164
0.000141961
0.00013883
0.000135769
0.000132776
0.000129849
0.000126989
0.000124194
0.000121461
0.000118791
0.00011618
0.000113627
0.000111131
0.000108691
0.000106305
0.000103972
0.000101692
9.94629e-05
9.72842e-05
9.51546e-05
9.30727e-05
9.10368e-05
8.90453e-05
8.70971e-05
8.51918e-05
8.33293e-05
8.15091e-05
7.97303e-05
7.79913e-05
7.62903e-05
7.46261e-05
7.29979e-05
7.14054e-05
6.98478e-05
6.83241e-05
6.68334e-05
6.5375e-05
6.39485e-05
6.25541e-05
6.11911e-05
5.9858e-05
5.85528e-05
5.72739e-05
5.60208e-05
5.47944e-05
5.35959e-05
5.24257e-05
5.12825e-05
5.01644e-05
4.9069e-05
4.79955e-05
4.69442e-05
4.5916e-05
4.49111e-05
4.39287e-05
4.29675e-05
4.20265e-05
4.1106e-05
4.02065e-05
3.93284e-05
3.84705e-05
3.76305e-05
3.68065e-05
3.5998e-05
3.52062e-05
3.44335e-05
3.36812e-05
3.29486e-05
3.22328e-05
3.15307e-05
3.08404e-05
3.0162e-05
2.94974e-05
2.88482e-05
2.82148e-05
2.75958e-05
2.69892e-05
2.63937e-05
2.5809e-05
2.52354e-05
2.46728e-05
2.41198e-05
2.35748e-05
2.30364e-05
2.25053e-05
2.19832e-05
2.1472e-05
2.09716e-05
2.04797e-05
1.99924e-05
1.95063e-05
1.90209e-05
1.85384e-05
1.80621e-05
1.75946e-05
1.71355e-05
1.66822e-05
1.62312e-05
1.57802e-05
1.53294e-05
1.48804e-05
1.44352e-05
1.3994e-05
1.35557e-05
1.3119e-05
1.26835e-05
1.22506e-05
1.18222e-05
1.13989e-05
1.09793e-05
1.05597e-05
1.0137e-05
9.71053e-06
9.28343e-06
8.86152e-06
8.45013e-06
8.05099e-06
7.66088e-06
7.27325e-06
6.88189e-06
6.48475e-06
6.08559e-06
5.69249e-06
5.3138e-06
4.95392e-06
4.61105e-06
4.27827e-06
3.94734e-06
3.6131e-06
3.27627e-06
2.94305e-06
2.62196e-06
2.31955e-06
2.03731e-06
1.77117e-06
1.5139e-06
1.25876e-06
1.00284e-06
7.48176e-07
5.00469e-07
2.66128e-07
4.92039e-08
-1.50295e-07
-3.36041e-07
-5.13364e-07
-6.8666e-07
-8.5752e-07
-1.02435e-06
-1.18349e-06
-1.33114e-06
-1.46518e-06
-1.58594e-06
-1.69591e-06
-1.79846e-06
-1.89639e-06
-1.99094e-06
-2.08158e-06
-2.16663e-06
-2.24426e-06
-2.31342e-06
-2.37431e-06
-2.42822e-06
-2.47698e-06
-2.52225e-06
-2.56498e-06
-2.60525e-06
-2.64251e-06
-2.67597e-06
-2.70512e-06
-2.72993e-06
-2.75093e-06
-2.76897e-06
-2.78497e-06
-2.79956e-06
-2.81306e-06
-2.8254e-06
-2.83633e-06
-2.84558e-06
-2.85307e-06
-2.85888e-06
-2.86337e-06
-2.86691e-06
-2.86993e-06
-2.87267e-06
-2.8753e-06
-2.87774e-06
-2.87994e-06
-2.88173e-06
-2.88312e-06
-2.88402e-06
-2.88462e-06
-2.88494e-06
-2.88522e-06
-2.88544e-06
-2.88578e-06
-2.8861e-06
-2.88655e-06
-2.88687e-06
-2.88725e-06
-2.88741e-06
-2.88765e-06
-2.88764e-06
-2.88781e-06
-2.88774e-06
-2.88796e-06
-2.8879e-06
-2.88823e-06
-2.88817e-06
-2.88858e-06
-2.88846e-06
-2.88893e-06
-2.88871e-06
-2.88925e-06
-2.88891e-06
-2.88957e-06
-2.88909e-06
-2.88993e-06
-2.88929e-06
-2.89037e-06
-2.88951e-06
-2.89088e-06
-2.88974e-06
-2.89148e-06
-2.88997e-06
-2.89219e-06
-2.8902e-06
-2.89305e-06
-2.89045e-06
-2.89413e-06
-2.89073e-06
-2.8955e-06
-2.89107e-06
-2.89725e-06
-2.89149e-06
-2.89949e-06
-2.89202e-06
-2.90241e-06
-2.8927e-06
-2.90619e-06
-2.89361e-06
-2.91114e-06
-2.89485e-06
-2.91761e-06
-2.89656e-06
-2.92607e-06
-2.89895e-06
-2.93712e-06
-2.90231e-06