# vtk DataFile Version 2.0
FlowField
ASCII
DATASET STRUCTURED_GRID
DIMENSIONS 400 1 50
POINTS 20000 float
0 0 0
0.08 0 0
0.16 0 0
0.24 0 0
0.32 0 0
0.4 0 0
0.48 0 0
0.56 0 0
0.64 0 0
0.72 0 0
0.8 0 0
0.88 0 0
0.96 0 0
1.04 0 0
1.12 0 0
1.2 0 0
1.28 0 0
1.36 0 0
1.44 0 0
1.52 0 0
1.6 0 0
1.68 0 0
1.76 0 0
1.84 0 0
1.92 0 0
2 0 0
2.08 0 0
2.16 0 0
2.24 0 0
2.32 0 0
2.4 0 0
2.48 0 0
2.56 0 0
2.64 0 0
2.72 0 0
2.8 0 0
2.88 0 0
2.96 0 0
3.04 0 0
3.12 0 0
3.2 0 0
3.28 0 0
3.36 0 0
3.44 0 0
3.52 0 0
3.6 0 0
3.68 0 0
3.76 0 0
3.84 0 0
3.92 0 0
4 0 0
4.08 0 0
4.16 0 0
4.24 0 0
4.32 0 0
4.4 0 0
4.48 0 0
4.56 0 0
4.64 0 0
4.72 0 0
4.8 0 0
4.88 0 0
4.96 0 0
5.04 0 0
5.12 0 0
5.2 0 0
5.28 0 0
5.36 0 0
5.44 0 0
5.52 0 0
5.6 0 0
5.68 0 0
5.76 0 0
5.84 0 0
5.92 0 0
6 0 0
6.08 0 0
6.16 0 0
6.24 0 0
6.32 0 0
6.4 0 0
6.48 0 0
6.56 0 0
6.64 0 0
6.72 0 0
6.8 0 0
6.88 0 0
6.96 0 0
7.04 0 0
7.12 0 0
7.2 0 0
7.28 0 0
7.36 0 0
7.44 0 0
7.52 0 0
7.6 0 0
7.68 0 0
7.76 0 0
7.84 0 0
7.92 0 0
8 0 0
8.08 0 0
8.16 0 0
8.24 0 0
8.32 0 0
8.4 0 0
8.48 0 0
8.56 0 0
8.64 0 0
8.72 0 0
8.8 0 0
8.88 0 0
8.96 0 0
9.04 0 0
9.12 0 0
9.2 0 0
9.28 0 0
9.36 0 0
9.44 0 0
9.52 0 0
9.6 0 0
9.68 0 0
9.76 0 0
9.84 0 0
9.92 0 0
10 0 0
10.08 0 0
10.16 0 0
10.24 0 0
10.32 0 0
10.4 0 0
10.48 0 0
10.56 0 0
10.64 0 0
10.72 0 0
10.8 0 0
10.88 0 0
10.96 0 0
11.04 0 0
11.12 0 0
11.2 0 0
11.28 0 0
11.36 0 0
11.44 0 0
11.52 0 0
11.6 0 0
11.68 0 0
11.76 0 0
11.84 0 0
11.92 0 0
12 0 0
12.08 0 0
12.16 0 0
12.24 0 0
12.32 0 0
12.4 0 0
12.48 0 0
12.56 0 0
12.64 0 0
12.72 0 0
12.8 0 0
12.88 0 0
12.96 0 0
13.04 0 0
13.12 0 0
13.2 0 0
13.28 0 0
13.36 0 0
13.44 0 0
13.52 0 0
13.6 0 0
13.68 0 0
13.76 0 0
13.84 0 0
13.92 0 0
14 0 0
14.08 0 0
14.16 0 0
14.24 0 0
14.32 0 0
14.4 0 0
14.48 0 0
14.56 0 0
14.64 0 0
14.72 0 0
14.8 0 0
14.88 0 0
14.96 0 0
15.04 0 0
15.12 0 0
15.2 0 0
15.28 0 0
15.36 0 0
15.44 0 0
15.52 0 0
15.6 0 0
15.68 0 0
15.76 0 0
15.84 0 0
15.92 0 0
16 0 0
16.08 0 0
16.16 0 0
16.24 0 0
16.32 0 0
16.4 0 0
16.48 0 0
16.56 0 0
16.64 0 0
16.72 0 0
16.8 0 0
16.88 0 0
16.96 0 0
17.04 0 0
17.12 0 0
17.2 0 0
17.28 0 0
17.36 0 0
17.44 0 0
17.52 0 0
17.6 0 0
17.68 0 0
17.76 0 0
17.84 0 0
17.92 0 0
18 0 0
18.08 0 0
18.16 0 0
18.24 0 0
18.32 0 0
18.4 0 0
18.48 0 0
18.56 0 0
18.64 0 0
18.72 0 0
18.8 0 0
18.88 0 0
18.96 0 0
19.04 0 0
19.12 0 0
19.2 0 0
19.28 0 0
19.36 0 0
19.44 0 0
19.52 0 0
19.6 0 0
19.68 0 0
19.76 0 0
19.84 0 0
19.92 0 0
20 0 0
20.08 0 0
20.16 0 0
20.24 0 0
20.32 0 0
20.4 0 0
20.48 0 0
20.56 0 0
20.64 0 0
20.72 0 0
20.8 0 0
20.88 0 0
20.96 0 0
21.04 0 0
21.12 0 0
21.2 0 0
21.28 0 0
21.36 0 0
21.44 0 0
21.52 0 0
21.6 0 0
21.68 0 0
21.76 0 0
21.84 0 0
21.92 0 0
22 0 0
22.08 0 0
22.16 0 0
22.24 0 0
22.32 0 0
22.4 0 0
22.48 0 0
22.56 0 0
22.64 0 0
22.72 0 0
22.8 0 0
22.88 0 0
22.96 0 0
23.04 0 0
23.12 0 0
23.2 0 0
23.28 0 0
23.36 0 0
23.44 0 0
23.52 0 0
23.6 0 0
23.68 0 0
23.76 0 0
23.84 0 0
23.92 0 0
24 0 0
24.08 0 0
24.16 0 0
24.24 0 0
24.32 0 0
24.4 0 0
24.48 0 0
24.56 0 0
24.64 0 0
24.72 0 0
24.8 0 0
24.88 0 0
24.96 0 0
25.04 0 0
25.12 0 0
25.2 0 0
25.28 0 0
25.36 0 0
25.44 0 0
25.52 0 0
25.6 0 0
25.68 0 0
25.76 0 0
25.84 0 0
25.92 0 0
26 0 0
26.08 0 0
26.16 0 0
26.24 0 0
26.32 0 0
26.4 0 0
26.48 0 0
26.56 0 0
26.64 0 0
26.72 0 0
26.8 0 0
26.88 0 0
26.96 0 0
27.04 0 0
27.12 0 0
27.2 0 0
27.28 0 0
27.36 0 0
27.44 0 0
27.52 0 0
27.6 0 0
27.68 0 0
27.76 0 0
27.84 0 0
27.92 0 0
28 0 0
28.08 0 0
28.16 0 0
28.24 0 0
28.32 0 0
28.4 0 0
28.48 0 0
28.56 0 0
28.64 0 0
28.72 0 0
28.8 0 0
28.88 0 0
28.96 0 0
29.04 0 0
29.12 0 0
29.2 0 0
29.28 0 0
29.36 0 0
29.44 0 0
29.52 0 0
29.6 0 0
29.68 0 0
29.76 0 0
29.84 0 0
29.92 0 0
30 0 0
30.08 0 0
30.16 0 0
30.24 0 0
30.32 0 0
30.4 0 0
30.48 0 0
30.56 0 0
30.64 0 0
30.72 0 0
30.8 0 0
30.88 0 0
30.96 0 0
31.04 0 0
31.12 0 0
31.2 0 0
31.28 0 0
31.36 0 0
31.44 0 0
31.52 0 0
31.6 0 0
31.68 0 0
31.76 0 0
31.84 0 0
31.92 0 0
0 0.02 0
0.08 0.02 0
0.16 0.02 0
0.24 0.02 0
0.32 0.02 0
0.4 0.02 0
0.48 0.02 0
0.56 0.02 0
0.64 0.02 0
0.72 0.02 0
0.8 0.02 0
0.88 0.02 0
0.96 0.02 0
1.04 0.02 0
1.12 0.02 0
1.2 0.02 0
1.28 0.02 0
1.36 0.02 0
1.44 0.02 0
1.52 0.02 0
1.6 0.02 0
1.68 0.02 0
1.76 0.02 0
1.84 0.02 0
1.92 0.02 0
2 0.02 0
2.08 0.02 0
2.16 0.02 0
2.24 0.02 0
2.32 0.02 0
2.4 0.02 0
2.48 0.02 0
2.56 0.02 0
2.64 0.02 0
2.72 0.02 0
2.8 0.02 0
2.88 0.02 0
2.96 0.02 0
3.04 0.02 0
3.12 0.02 0
3.2 0.02 0
3.28 0.02 0
3.36 0.02 0
3.44 0.02 0
3.52 0.02 0
3.6 0.02 0
3.68 0.02 0
3.76 0.02 0
3.84 0.02 0
3.92 0.02 0
4 0.02 0
4.08 0.02 0
4.16 0.02 0
4.24 0.02 0
4.32 0.02 0
4.4 0.02 0
4.48 0.02 0
4.56 0.02 0
4.64 0.02 0
4.72 0.02 0
4.8 0.02 0
4.88 0.02 0
4.96 0.02 0
5.04 0.02 0
5.12 0.02 0
5.2 0.02 0
5.28 0.02 0
5.36 0.02 0
5.44 0.02 0
5.52 0.02 0
5.6 0.02 0
5.68 0.02 0
5.76 0.02 0
5.84 0.02 0
5.92 0.02 0
6 0.02 0
6.08 0.02 0
6.16 0.02 0
6.24 0.02 0
6.32 0.02 0
6.4 0.02 0
6.48 0.02 0
6.56 0.02 0
6.64 0.02 0
6.72 0.02 0
6.8 0.02 0
6.88 0.02 0
6.96 0.02 0
7.04 0.02 0
7.12 0.02 0
7.2 0.02 0
7.28 0.02 0
7.36 0.02 0
7.44 0.02 0
7.52 0.02 0
7.6 0.02 0
7.68 0.02 0
7.76 0.02 0
7.84 0.02 0
7.92 0.02 0
8 0.02 0
8.08 0.02 0
8.16 0.02 0
8.24 0.02 0
8.32 0.02 0
8.4 0.02 0
8.48 0.02 0
8.56 0.02 0
8.64 0.02 0
8.72 0.02 0
8.8 0.02 0
8.88 0.02 0
8.96 0.02 0
9.04 0.02 0
9.12 0.02 0
9.2 0.02 0
9.28 0.02 0
9.36 0.02 0
9.44 0.02 0
9.52 0.02 0
9.6 0.02 0
9.68 0.02 0
9.76 0.02 0
9.84 0.02 0
9.92 0.02 0
10 0.02 0
10.08 0.02 0
10.16 0.02 0
10.24 0.02 0
10.32 0.02 0
10.4 0.02 0
10.48 0.02 0
10.56 0.02 0
10.64 0.02 0
10.72 0.02 0
10.8 0.02 0
10.88 0.02 0
10.96 0.02 0
11.04 0.02 0
11.12 0.02 0
11.2 0.02 0
11.28 0.02 0
11.36 0.02 0
11.44 0.02 0
11.52 0.02 0
11.6 0.02 0
11.68 0.02 0
11.76 0.02 0
11.84 0.02 0
11.92 0.02 0
12 0.02 0
12.08 0.02 0
12.16 0.02 0
12.24 0.02 0
12.32 0.02 0
12.4 0.02 0
12.48 0.02 0
12.56 0.02 0
12.64 0.02 0
12.72 0.02 0
12.8 0.02 0
12.88 0.02 0
12.96 0.02 0
13.04 0.02 0
13.12 0.02 0
13.2 0.02 0
13.28 0.02 0
13.36 0.02 0
13.44 0.02 0
13.52 0.02 0
13.6 0.02 0
13.68 0.02 0
13.76 0.02 0
13.84 0.02 0
13.92 0.02 0
14 0.02 0
14.08 0.02 0
14.16 0.02 0
14.24 0.02 0
14.32 0.02 0
14.4 0.02 0
14.48 0.02 0
14.56 0.02 0
14.64 0.02 0
14.72 0.02 0
14.8 0.02 0
14.88 0.02 0
14.96 0.02 0
15.04 0.02 0
15.12 0.02 0
15.2 0.02 0
15.28 0.02 0
15.36 0.02 0
15.44 0.02 0
15.52 0.02 0
15.6 0.02 0
15.68 0.02 0
15.76 0.02 0
15.84 0.02 0
15.92 0.02 0
16 0.02 0
16.08 0.02 0
16.16 0.02 0
16.24 0.02 0
16.32 0.02 0
16.4 0.02 0
16.48 0.02 0
16.56 0.02 0
16.64 0.02 0
16.72 0.02 0
16.8 0.02 0
16.88 0.02 0
16.96 0.02 0
17.04 0.02 0
17.12 0.02 0
17.2 0.02 0
17.28 0.02 0
17.36 0.02 0
17.44 0.02 0
17.52 0.02 0
17.6 0.02 0
17.68 0.02 0
17.76 0.02 0
17.84 0.02 0
17.92 0.02 0
18 0.02 0
18.08 0.02 0
18.16 0.02 0
18.24 0.02 0
18.32 0.02 0
18.4 0.02 0
18.48 0.02 0
18.56 0.02 0
18.64 0.02 0
18.72 0.02 0
18.8 0.02 0
18.88 0.02 0
18.96 0.02 0
19.04 0.02 0
19.12 0.02 0
19.2 0.02 0
19.28 0.02 0
19.36 0.02 0
19.44 0.02 0
19.52 0.02 0
19.6 0.02 0
19.68 0.02 0
19.76 0.02 0
19.84 0.02 0
19.92 0.02 0
20 0.02 0
20.08 0.02 0
20.16 0.02 0
20.24 0.02 0
20.32 0.02 0
20.4 0.02 0
20.48 0.02 0
20.56 0.02 0
20.64 0.02 0
20.72 0.02 0
20.8 0.02 0
20.88 0.02 0
20.96 0.02 0
21.04 0.02 0
21.12 0.02 0
21.2 0.02 0
21.28 0.02 0
21.36 0.02 0
21.44 0.02 0
21.52 0.02 0
21.6 0.02 0
21.68 0.02 0
21.76 0.02 0
21.84 0.02 0
21.92 0.02 0
22 0.02 0
22.08 0.02 0
22.16 0.02 0
22.24 0.02 0
22.32 0.02 0
22.4 0.02 0
22.48 0.02 0
22.56 0.02 0
22.64 0.02 0
22.72 0.02 0
22.8 0.02 0
22.88 0.02 0
22.96 0.02 0
23.04 0.02 0
23.12 0.02 0
23.2 0.02 0
23.28 0.02 0
23.36 0.02 0
23.44 0.02 0
23.52 0.02 0
23.6 0.02 0
23.68 0.02 0
23.76 0.02 0
23.84 0.02 0
23.92 0.02 0
24 0.02 0
24.08 0.02 0
24.16 0.02 0
24.24 0.02 0
24.32 0.02 0
24.4 0.02 0
24.48 0.02 0
24.56 0.02 0
24.64 0.02 0
24.72 0.02 0
24.8 0.02 0
24.88 0.02 0
24.96 0.02 0
25.04 0.02 0
25.12 0.02 0
25.2 0.02 0
25.28 0.02 0
25.36 0.02 0
25.44 0.02 0
25.52 0.02 0
25.6 0.02 0
25.68 0.02 0
25.76 0.02 0
25.84 0.02 0
25.92 0.02 0
26 0.02 0
26.08 0.02 0
26.16 0.02 0
26.24 0.02 0
26.32 0.02 0
26.4 0.02 0
26.48 0.02 0
26.56 0.02 0
26.64 0.02 0
26.72 0.02 0
26.8 0.02 0
26.88 0.02 0
26.96 0.02 0
27.04 0.02 0
27.12 0.02 0
27.2 0.02 0
27.28 0.02 0
27.36 0.02 0
27.44 0.02 0
27.52 0.02 0
27.6 0.02 0
27.68 0.02 0
27.76 0.02 0
27.84 0.02 0
27.92 0.02 0
28 0.02 0
28.08 0.02 0
28.16 0.02 0
28.24 0.02 0
28.32 0.02 0
28.4 0.02 0
28.48 0.02 0
28.56 0.02 0
28.64 0.02 0
28.72 0.02 0
28.8 0.02 0
28.88 0.02 0
28.96 0.02 0
29.04 0.02 0
29.12 0.02 0
29.2 0.02 0
29.28 0.02 0
29.36 0.02 0
29.44 0.02 0
29.52 0.02 0
29.6 0.02 0
29.68 0.02 0
29.76 0.02 0
29.84 0.02 0
29.92 0.02 0
30 0.02 0
30.08 0.02 0
30.16 0.02 0
30.24 0.02 0
30.32 0.02 0
30.4 0.02 0
30.48 0.02 0
30.56 0.02 0
30.64 0.02 0
30.72 0.02 0
30.8 0.02 0
30.88 0.02 0
30.96 0.02 0
31.04 0.02 0
31.12 0.02 0
31.2 0.02 0
31.28 0.02 0
31.36 0.02 0
31.44 0.02 0
31.52 0.02 0
31.6 0.02 0
31.68 0.02 0
31.76 0.02 0
31.84 0.02 0
31.92 0.02 0
0 0.04 0
0.08 0.04 0
0.16 0.04 0
0.24 0.04 0
0.32 0.04 0
0.4 0.04 0
0.48 0.04 0
0.56 0.04 0
0.64 0.04 0
0.72 0.04 0
0.8 0.04 0
0.88 0.04 0
0.96 0.04 0
1.04 0.04 0
1.12 0.04 0
1.2 0.04 0
1.28 0.04 0
1.36 0.04 0
1.44 0.04 0
1.52 0.04 0
1.6 0.04 0
1.68 0.04 0
1.76 0.04 0
1.84 0.04 0
1.92 0.04 0
2 0.04 0
2.08 0.04 0
2.16 0.04 0
2.24 0.04 0
2.32 0.04 0
2.4 0.04 0
2.48 0.04 0
2.56 0.04 0
2.64 0.04 0
2.72 0.04 0
2.8 0.04 0
2.88 0.04 0
2.96 0.04 0
3.04 0.04 0
3.12 0.04 0
3.2 0.04 0
3.28 0.04 0
3.36 0.04 0
3.44 0.04 0
3.52 0.04 0
3.6 0.04 0
3.68 0.04 0
3.76 0.04 0
3.84 0.04 0
3.92 0.04 0
4 0.04 0
4.08 0.04 0
4.16 0.04 0
4.24 0.04 0
4.32 0.04 0
4.4 0.04 0
4.48 0.04 0
4.56 0.04 0
4.64 0.04 0
4.72 0.04 0
4.8 0.04 0
4.88 0.04 0
4.96 0.04 0
5.04 0.04 0
5.12 0.04 0
5.2 0.04 0
5.28 0.04 0
5.36 0.04 0
5.44 0.04 0
5.52 0.04 0
5.6 0.04 0
5.68 0.04 0
5.76 0.04 0
5.84 0.04 0
5.92 0.04 0
6 0.04 0
6.08 0.04 0
6.16 0.04 0
6.24 0.04 0
6.32 0.04 0
6.4 0.04 0
6.48 0.04 0
6.56 0.04 0
6.64 0.04 0
6.72 0.04 0
6.8 0.04 0
6.88 0.04 0
6.96 0.04 0
7.04 0.04 0
7.12 0.04 0
7.2 0.04 0
7.28 0.04 0
7.36 0.04 0
7.44 0.04 0
7.52 0.04 0
7.6 0.04 0
7.68 0.04 0
7.76 0.04 0
7.84 0.04 0
[...]
POINT_DATA 20000

SCALARS u float 1
LOOKUP_TABLE default
0
-0.507089
-0.291919
-0.214161
-0.179026
-0.158665
-0.145112
-0.13536
-0.127968
-0.122141
-0.117402
-0.113451
-0.110088
-0.107175
-0.104616
-0.102343
-0.100304
-0.0984588
-0.096779
-0.0952405
-0.0938245
-0.0925156
-0.0913011
-0.0901704
-0.0891145
-0.0881258
-0.0871978
-0.0863246
-0.0855014
-0.0847236
-0.0839876
-0.0832899
-0.0826273
-0.0819973
-0.0813974
-0.0808253
-0.0802792
-0.0797571
-0.0792576
-0.0787791
-0.0783203
-0.07788
-0.0774569
-0.0770502
-0.0766589
-0.076282
-0.0759189
-0.0755686
-0.0752307
-0.0749043
-0.0745889
-0.0742841
-0.0739892
-0.0737038
-0.0734274
-0.0731596
-0.0729001
-0.0726484
-0.0724043
-0.0721673
-0.0719373
-0.0717139
-0.0714968
-0.0712859
-0.0710807
-0.0708813
-0.0706872
-0.0704984
-0.0703146
-0.0701356
-0.0699613
-0.0697916
-0.0696261
-0.0694649
-0.0693078
-0.0691546
-0.0690053
-0.0688596
-0.0687175
-0.0685789
-0.0684436
-0.0683116
-0.0681828
-0.068057
-0.0679342
-0.0678143
-0.0676972
-0.0675829
-0.0674712
-0.0673621
-0.0672556
-0.0671514
-0.0670497
-0.0669503
-0.0668532
-0.0667582
-0.0666654
-0.0665747
-0.0664861
-0.0663994
-0.0663147
-0.0662319
-0.0661509
-0.0660718
-0.0659944
-0.0659187
-0.0658447
-0.0657723
-0.0657015
-0.0656323
-0.0655646
-0.0654985
-0.0654337
-0.0653704
-0.0653085
-0.0652479
-0.0651887
-0.0651308
-0.0650741
-0.0650187
-0.0649645
-0.0649115
-0.0648596
-0.0648089
-0.0647592
-0.0647107
-0.0646632
-0.0646168
-0.0645713
-0.0645269
-0.0644834
-0.0644409
-0.0643993
-0.0643586
-0.0643187
-0.0642798
-0.0642417
-0.0642044
-0.0641679
-0.0641323
-0.0640974
-0.0640632
-0.0640298
-0.0639971
-0.0639651
-0.0639338
-0.0639032
-0.0638733
-0.063844
-0.0638153
-0.0637873
-0.0637598
-0.063733
-0.0637067
-0.063681
-0.0636558
-0.0636312
-0.0636071
-0.0635835
-0.0635605
-0.0635379
-0.0635158
-0.0634942
-0.0634731
-0.0634524
-0.0634321
-0.0634123
-0.0633929
-0.063374
-0.0633554
-0.0633372
-0.0633195
-0.0633021
-0.063285
-0.0632684
-0.0632521
-0.0632361
-0.0632205
-0.0632052
-0.0631903
-0.0631757
-0.0631613
-0.0631473
-0.0631336
-0.0631202
-0.0631071
-0.0630942
-0.0630817
-0.0630694
-0.0630573
-0.0630455
-0.063034
-0.0630227
-0.0630117
-0.0630009
-0.0629903
-0.06298
-0.0629698
-0.0629599
-0.0629502
-0.0629407
-0.0629314
-0.0629223
-0.0629134
-0.0629047
-0.0628962
-0.0628879
-0.0628797
-0.0628717
-0.0628639
-0.0628562
-0.0628487
-0.0628414
-0.0628342
-0.0628272
-0.0628203
-0.0628136
-0.0628071
-0.0628006
-0.0627944
-0.0627882
-0.0627822
-0.0627763
-0.0627706
-0.062765
-0.0627595
-0.0627542
-0.062749
-0.0627439
-0.062739
-0.0627342
-0.0627295
-0.0627249
-0.0627205
-0.0627161
-0.0627119
-0.0627079
-0.0627039
-0.0627001
-0.0626964
-0.0626928
-0.0626893
-0.0626859
-0.0626827
-0.0626796
-0.0626766
-0.0626737
-0.0626709
-0.0626683
-0.0626657
-0.0626633
-0.062661
-0.0626588
-0.0626567
-0.0626547
-0.0626528
-0.0626511
-0.0626494
-0.0626478
-0.0626463
-0.062645
-0.0626437
-0.0626425
-0.0626414
-0.0626404
-0.0626395
-0.0626387
-0.0626379
-0.0626372
-0.0626366
-0.062636
-0.0626356
-0.0626352
-0.0626349
-0.0626346
-0.0626344
-0.0626342
-0.0626341
-0.062634
-0.062634
-0.0626341
-0.0626342
-0.0626343
-0.0626345
-0.0626347
-0.0626349
-0.0626351
-0.0626354
-0.0626358
-0.0626361
-0.0626365
-0.0626369
-0.0626373
-0.0626377
-0.0626381
-0.0626386
-0.0626391
-0.0626395
-0.06264
-0.0626405
-0.0626411
-0.0626416
-0.0626421
-0.0626426
-0.0626432
-0.0626437
-0.0626443
-0.0626448
-0.0626454
-0.0626459
-0.0626465
-0.0626471
-0.0626476
-0.0626482
-0.0626488
-0.0626493
-0.0626499
-0.0626505
-0.062651
-0.0626516
-0.0626522
-0.0626527
-0.0626533
-0.0626539
-0.0626545
-0.062655
-0.0626556
-0.0626562
-0.0626568
-0.0626573
-0.0626579
-0.0626585
-0.062659
-0.0626596
-0.0626602
-0.0626608
-0.0626613
-0.0626619
-0.0626625
-0.062663
-0.0626636
-0.0626642
-0.0626648
-0.0626653
-0.0626659
-0.0626665
-0.0626671
-0.0626676
-0.0626682
-0.0626688
-0.0626693
-0.0626699
-0.0626705
-0.0626711
-0.0626716
-0.0626722
-0.0626728
-0.0626734
-0.0626739
-0.0626745
-0.0626751
-0.0626756
-0.0626762
-0.0626768
-0.0626774
-0.0626779
-0.0626785
-0.0626791
-0.0626797
-0.0626802
-0.0626808
-0.0626814
-0.062682
-0.0626826
-0.0626831
-0.0626837
-0.0626843
-0.0626849
-0.0626854
-0.062686
-0.0626866
-0.0626872
-0.0626878
-0.0626884
-0.062689
-0.0626896
-0.0626902
-0.0626908
-0.0626914
-0.062692
-0.0626926
-0.0626933
-0.0626939
-0.0626945
-0.0626952
-0.0626956
-0.0626963
-0.062696
-0.062696
-0.062696
1
0.507089
0.291919
0.214161
0.179026
0.158665
0.145112
0.13536
0.127968
0.122141
0.117402
0.113451
0.110088
0.107175
0.104616
0.102343
0.100304
0.0984588
0.096779
0.0952405
0.0938245
0.0925156
0.0913011
0.0901704
0.0891145
0.0881258
0.0871978
0.0863246
0.0855014
0.0847236
0.0839876
0.0832899
0.0826273
0.0819973
0.0813974
0.0808253
0.0802792
0.0797571
0.0792576
0.0787791
0.0783203
0.07788
0.0774569
0.0770502
0.0766589
0.076282
0.0759189
0.0755686
0.0752307
0.0749043
0.0745889
0.0742841
0.0739892
0.0737038
0.0734274
0.0731596
0.0729001
0.0726484
0.0724043
0.0721673
0.0719373
0.0717139
0.0714968
0.0712859
0.0710807
0.0708813
0.0706872
0.0704984
0.0703146
0.0701356
0.0699613
0.0697916
0.0696261
0.0694649
0.0693078
0.0691546
0.0690053
0.0688596
0.0687175
0.0685789
0.0684436
0.0683116
0.0681828
0.068057
0.0679342
0.0678143
0.0676972
0.0675829
0.0674712
0.0673621
0.0672556
0.0671514
0.0670497
0.0669503
0.0668532
0.0667582
0.0666654
0.0665747
0.0664861
0.0663994
0.0663147
0.0662319
0.0661509
0.0660718
0.0659944
0.0659187
0.0658447
0.0657723
0.0657015
0.0656323
0.0655646
0.0654985
0.0654337
0.0653704
0.0653085
0.0652479
0.0651887
0.0651308
0.0650741
0.0650187
0.0649645
0.0649115
0.0648596
0.0648089
0.0647592
0.0647107
0.0646632
0.0646168
0.0645713
0.0645269
0.0644834
0.0644409
0.0643993
0.0643586
0.0643187
0.0642798
0.0642417
0.0642044
0.0641679
0.0641323
0.0640974
0.0640632
0.0640298
0.0639971
0.0639651
0.0639338
0.0639032
0.0638733
0.063844
0.0638153
0.0637873
0.0637598
0.063733
0.0637067
0.063681
0.0636558
0.0636312
0.0636071
0.0635835
0.0635605
0.0635379
0.0635158
0.0634942
0.0634731
0.0634524
0.0634321
0.0634123
0.0633929
0.063374
0.0633554
0.0633372
0.0633195
0.0633021
0.063285
0.0632684
0.0632521
0.0632361
0.0632205
0.0632052
0.0631903
0.0631757
0.0631613
0.0631473
0.0631336
0.0631202
0.0631071
0.0630942
0.0630817
0.0630694
0.0630573
0.0630455
0.063034
0.0630227
0.0630117
0.0630009
0.0629903
0.06298
0.0629698
0.0629599
0.0629502
0.0629407
0.0629314
0.0629223
0.0629134
0.0629047
0.0628962
0.0628879
0.0628797
0.0628717
0.0628639
0.0628562
0.0628487
0.0628414
0.0628342
0.0628272
0.0628203
0.0628136
0.0628071
0.0628006
0.0627944
0.0627882
0.0627822
0.0627763
0.0627706
0.062765
0.0627595
0.0627542
0.062749
0.0627439
0.062739
0.0627342
0.0627295
0.0627249
0.0627205
0.0627161
0.0627119
0.0627079
0.0627039
0.0627001
0.0626964
0.0626928
0.0626893
0.0626859
0.0626827
0.0626796
0.0626766
0.0626737
0.0626709
0.0626683
0.0626657
0.0626633
0.062661
0.0626588
0.0626567
0.0626547
0.0626528
0.0626511
0.0626494
0.0626478
0.0626463
0.062645
0.0626437
0.0626425
0.0626414
0.0626404
0.0626395
0.0626387
0.0626379
0.0626372
0.0626366
0.062636
0.0626356
0.0626352
0.0626349
0.0626346
0.0626344
0.0626342
0.0626341
0.062634
0.062634
0.0626341
0.0626342
0.0626343
0.0626345
0.0626347
0.0626349
0.0626351
0.0626354
0.0626358
0.0626361
0.0626365
0.0626369
0.0626373
0.0626377
0.0626381
0.0626386
0.0626391
0.0626395
0.06264
0.0626405
0.0626411
0.0626416
0.0626421
0.0626426
0.0626432
0.0626437
0.0626443
0.0626448
0.0626454
0.0626459
0.0626465
0.0626471
0.0626476
0.0626482
0.0626488
0.0626493
0.0626499
0.0626505
0.062651
0.0626516
0.0626522
0.0626527
0.0626533
0.0626539
0.0626545
0.062655
0.0626556
0.0626562
0.0626568
0.0626573
0.0626579
0.0626585
0.062659
0.0626596
0.0626602
0.0626608
0.0626613
0.0626619
0.0626625
0.062663
0.0626636
0.0626642
0.0626648
0.0626653
0.0626659
0.0626665
0.0626671
0.0626676
0.0626682
0.0626688
0.0626693
0.0626699
0.0626705
0.0626711
0.0626716
0.0626722
0.0626728
0.0626734
0.0626739
0.0626745
0.0626751
0.0626756
0.0626762
0.0626768
0.0626774
0.0626779
0.0626785
0.0626791
0.0626797
0.0626802
0.0626808
0.0626814
0.062682
0.0626826
0.0626831
0.0626837
0.0626843
0.0626849
0.0626854
0.062686
0.0626866
0.0626872
0.0626878
0.0626884
0.062689
0.0626896
0.0626902
0.0626908
0.0626914
0.062692
0.0626926
0.0626933
0.0626939
0.0626945
0.0626952
0.0626956
0.0626963
0.062696
0.062696
0.062696
1
0.924296
0.735446
0.59755
0.511657
0.456342
0.418182
0.390279
0.368948
0.352064
0.338317
0.326858
0.317118
0.308702
0.301327
0.29479
0.288939
0.283658
0.278858
0.274469
0.270436
0.266713
0.263262
0.260052
0.257057
0.254255
0.251626
0.249155
0.246826
0.244627
0.242546
0.240575
0.238704
0.236925
0.235232
0.233618
0.232078
0.230606
0.229198
0.227849
0.226557
0.225316
0.224125
0.22298
0.221879
0.220818
0.219797
0.218812
0.217861
0.216944
0.216058
0.215201
0.214372
0.213571
0.212794
0.212043
0.211314
0.210608
0.209923
0.209258
0.208613
0.207986
0.207378
0.206786
0.206211
0.205652
0.205108
0.204579
0.204065
0.203563
0.203075
0.2026
0.202137
0.201686
0.201246
0.200818
0.2004
0.199993
0.199595
0.199208
0.19883
0.198461
0.198101
0.197749
0.197406
0.197071
0.196744
0.196425
0.196113
0.195809
0.195511
0.195221
0.194937
0.194659
0.194388
0.194124
0.193865
0.193612
0.193365
0.193123
0.192887
0.192656
0.19243
0.19221
0.191994
0.191783
0.191577
0.191376
0.191179
0.190986
0.190797
0.190613
0.190433
0.190257
0.190085
0.189916
0.189751
0.18959
0.189432
0.189278
0.189128
0.18898
0.188836
0.188695
0.188557
0.188422
0.18829
0.188161
0.188035
0.187911
0.18779
0.187672
0.187557
0.187444
0.187333
0.187225
0.187119
0.187015
0.186914
0.186815
0.186718
0.186623
0.186531
0.18644
0.186351
0.186264
0.18618
0.186096
0.186015
0.185936
0.185858
0.185782
0.185707
0.185634
0.185563
0.185493
0.185425
0.185358
0.185293
0.185229
0.185166
0.185105
0.185045
0.184987
0.184929
0.184873
0.184818
0.184764
0.184712
0.18466
0.18461
0.184561
0.184513
0.184465
0.184419
0.184374
0.18433
0.184287
0.184244
0.184203
0.184162
0.184123
0.184084
0.184046
0.184009
0.183972
0.183937
0.183902
0.183868
0.183835
0.183802
0.18377
0.183739
0.183708
0.183678
0.183649
0.18362
0.183592
0.183565
0.183538
0.183512
0.183486
0.183461
0.183436
0.183412
0.183388
0.183365
0.183343
0.18332
0.183299
0.183278
0.183257
0.183236
0.183217
0.183197
0.183178
0.18316
0.183142
0.183124
0.183106
0.183089
0.183073
0.183057
0.183041
0.183025
0.18301
0.182996
0.182981
0.182967
0.182954
0.182941
0.182928
0.182915
0.182903
0.182891
0.18288
0.182869
0.182858
0.182848
0.182838
0.182828
0.182818
0.182809
0.182801
0.182792
0.182784
0.182777
0.182769
0.182762
0.182755
0.182749
0.182743
0.182737
0.182732
0.182726
0.182721
0.182717
0.182713
0.182709
0.182705
0.182701
0.182698
0.182695
0.182692
0.18269
0.182688
0.182685
0.182684
0.182682
0.182681
0.182679
0.182678
0.182677
0.182677
0.182676
0.182676
0.182676
0.182675
0.182676
0.182676
0.182676
0.182676
0.182677
0.182678
0.182678
0.182679
0.18268
0.182681
0.182682
0.182683
0.182684
0.182685
0.182686
0.182688
0.182689
0.18269
0.182692
0.182693
0.182695
0.182696
0.182698
0.182699
0.182701
0.182702
0.182704
0.182705
0.182707
0.182708
0.18271
0.182712
0.182713
0.182715
0.182716
0.182718
0.18272
0.182721
0.182723
0.182724
0.182726
0.182728
0.182729
0.182731
0.182733
0.182734
0.182736
0.182737
0.182739
0.182741
0.182742
0.182744
0.182746
0.182747
0.182749
0.182751
0.182752
0.182754
0.182755
0.182757
0.182759
0.18276
0.182762
0.182764
0.182765
0.182767
0.182768
0.18277
0.182772
0.182773
0.182775
0.182777
0.182778
0.18278
0.182781
0.182783
0.182785
0.182786
0.182788
0.18279
0.182791
0.182793
0.182795
0.182796
0.182798
0.182799
0.182801
0.182803
0.182804
0.182806
0.182808
0.182809
0.182811
0.182813
0.182814
0.182816
0.182817
0.182819
0.182821
0.182822
0.182824
0.182826
0.182827
0.182829
0.182831
0.182832
0.182834
0.182836
0.182838
0.182839
0.182841
0.182843
0.182844
0.182846
0.182848
0.18285
0.182852
0.182853
0.182855
0.182855
0.182855
0.182855
1
1.07971
0.99707
0.88365
0.788696
0.716912
0.66305
0.621836
0.589493
0.563481
0.542089
0.524149
0.508842
0.495587
0.483961
0.47365
0.464421
0.456092
0.448524
0.441606
0.43525
0.429384
0.423949
0.418894
0.414178
0.409767
0.405629
0.401739
0.398073
0.394612
0.391339
0.388237
0.385293
0.382494
0.379831
0.377292
0.374869
0.372554
0.37034
0.368219
0.366187
0.364237
0.362364
0.360564
0.358833
0.357166
0.355561
0.354013
0.352519
0.351078
0.349686
0.34834
0.347039
0.34578
0.344561
0.343381
0.342237
0.341128
0.340053
0.33901
0.337997
0.337014
0.336059
0.335131
0.33423
0.333353
0.3325
0.331671
0.330864
0.330078
0.329314
0.328569
0.327843
0.327137
0.326448
0.325777
0.325122
0.324484
0.323862
0.323255
0.322663
0.322086
0.321523
0.320973
0.320436
0.319912
0.3194
0.318901
0.318413
0.317937
0.317472
0.317018
0.316574
0.31614
0.315717
0.315303
0.314899
0.314504
0.314117
0.31374
0.313371
0.313011
0.312658
0.312314
0.311977
0.311648
0.311326
0.311012
0.310704
0.310403
0.310109
0.309822
0.309541
0.309266
0.308997
0.308735
0.308478
0.308226
0.30798
0.30774
0.307505
0.307275
0.307051
0.306831
0.306616
0.306406
0.3062
0.305999
0.305802
0.30561
0.305422
0.305238
0.305058
0.304882
0.304709
0.304541
0.304376
0.304215
0.304057
0.303903
0.303752
0.303605
0.303461
0.30332
0.303181
0.303046
0.302914
0.302785
0.302659
0.302535
0.302414
0.302295
0.30218
0.302066
0.301955
0.301847
0.301741
0.301637
0.301535
0.301436
0.301339
0.301243
0.30115
0.301059
0.30097
0.300883
0.300798
0.300714
0.300632
0.300552
0.300474
0.300398
0.300323
0.300249
0.300178
0.300107
0.300039
0.299972
0.299906
0.299842
0.299779
0.299717
0.299657
0.299598
0.29954
0.299483
0.299428
0.299374
0.299321
0.299269
0.299219
0.299169
0.299121
0.299073
0.299027
0.298981
0.298937
0.298893
0.29885
0.298809
0.298768
0.298728
0.298689
0.29865
0.298613
0.298576
0.29854
0.298505
0.298471
0.298437
0.298404
0.298372
0.298341
0.29831
0.29828
0.29825
0.298221
0.298193
0.298166
0.298139
0.298112
0.298087
0.298062
0.298037
0.298013
0.29799
0.297967
0.297945
0.297924
0.297903
0.297882
0.297862
0.297843
0.297824
0.297806
0.297789
0.297771
0.297755
0.297739
0.297724
0.297709
0.297694
0.29768
0.297667
0.297654
0.297642
0.29763
0.297619
0.297608
0.297598
0.297588
0.297579
0.29757
0.297562
0.297554
0.297547
0.29754
0.297534
0.297528
0.297522
0.297517
0.297512
0.297508
0.297504
0.2975
0.297497
0.297494
0.297491
0.297489
0.297487
0.297485
0.297484
0.297483
0.297482
0.297481
0.297481
0.297481
0.297481
0.297481
0.297481
0.297482
0.297483
0.297484
0.297485
0.297486
0.297487
0.297489
0.29749
0.297492
0.297494
0.297495
0.297497
0.297499
0.297501
0.297503
0.297506
0.297508
0.29751
0.297512
0.297515
0.297517
0.297519
0.297522
0.297524
0.297527
0.297529
0.297532
0.297534
0.297537
0.297539
0.297542
0.297544
0.297547
0.297549
0.297552
0.297554
0.297557
0.297559
0.297562
0.297564
0.297567
0.29757
0.297572
0.297575
0.297577
0.29758
0.297582
0.297585
0.297587
0.29759
0.297593
0.297595
0.297598
0.2976
0.297603
0.297605
0.297608
0.29761
0.297613
0.297615
0.297618
0.297621
0.297623
0.297626
0.297628
0.297631
0.297633
0.297636
0.297638
0.297641
0.297644
0.297646
0.297649
0.297651
0.297654
0.297656
0.297659
0.297661
0.297664
0.297667
0.297669
0.297672
0.297674
0.297677
0.297679
0.297682
0.297684
0.297687
0.29769
0.297692
0.297695
0.297697
0.2977
0.297702
0.297705
0.297708
0.29771
0.297713
0.297715
0.297718
0.297721
0.297723
0.297726
0.297728
0.297731
0.297734
0.297736
0.297739
0.297742
0.297745
0.297747
0.29775
0.297753
0.297756
0.297758
0.297761
0.297764
0.297765
0.297765
0.297765
1
1.11179
1.11438
1.05557
0.984375
0.919037
0.863803
0.81822
0.780649
0.749426
0.723168
0.700799
0.681502
0.664658
0.649798
0.636564
0.62468
0.613929
0.604141
0.59518
0.586936
0.57932
0.572255
0.56568
0.559541
0.553795
0.548402
0.543328
0.538545
0.534028
0.529753
0.5257
0.521853
0.518195
0.514712
0.511391
0.508221
0.505192
0.502293
0.499518
0.496857
0.494303
0.491851
0.489494
0.487226
0.485043
0.48294
0.480912
0.478956
0.477067
0.475243
0.47348
0.471775
0.470125
0.468528
0.466982
0.465483
0.464031
0.462622
0.461256
0.459929
0.458641
0.457391
0.456176
0.454995
0.453847
0.45273
0.451644
0.450587
0.449559
0.448558
0.447583
0.446633
0.445708
0.444807
0.443929
0.443072
0.442238
0.441424
0.44063
0.439856
0.439101
0.438364
0.437645
0.436943
0.436258
0.435589
0.434937
0.434299
0.433677
0.433069
0.432476
0.431896
0.43133
0.430776
0.430236
0.429708
0.429192
0.428688
0.428195
0.427714
0.427243
0.426783
0.426334
0.425894
0.425465
0.425045
0.424635
0.424234
0.423841
0.423458
0.423083
0.422717
0.422358
0.422008
0.421665
0.42133
0.421003
0.420683
0.420369
0.420063
0.419764
0.419471
0.419185
0.418905
0.418631
0.418363
0.418101
0.417845
0.417595
0.41735
0.41711
0.416876
0.416647
0.416423
0.416203
0.415989
0.415779
0.415574
0.415374
0.415178
0.414986
0.414798
0.414615
0.414435
0.414259
0.414088
0.41392
0.413755
0.413594
0.413437
0.413283
0.413133
0.412985
0.412841
0.4127
0.412562
0.412428
0.412296
0.412166
0.41204
0.411916
0.411795
0.411677
0.411561
0.411448
0.411337
0.411229
0.411123
0.411019
0.410917
0.410818
0.410721
0.410625
0.410532
0.410441
0.410352
0.410265
0.410179
0.410096
0.410014
0.409934
0.409856
0.409779
0.409705
0.409631
0.409559
0.409489
0.409421
0.409353
0.409288
0.409223
0.40916
0.409099
0.409038
0.408979
0.408921
0.408865
0.40881
0.408755
0.408702
0.40865
0.4086
0.40855
0.408501
0.408454
0.408407
0.408361
0.408317
0.408273
0.40823
0.408189
0.408148
0.408108
0.408069
0.40803
0.407993
0.407957
0.407921
0.407886
0.407852
0.407819
0.407786
0.407754
0.407723
0.407693
0.407664
0.407635
0.407607
0.40758
0.407554
0.407528
0.407503
0.407479
0.407456
0.407433
0.407411
0.407389
0.407369
0.407349
0.40733
0.407311
0.407293
0.407276
0.40726
0.407244
0.407229
0.407215
0.407201
0.407188
0.407176
0.407164
0.407153
0.407142
0.407132
0.407123
0.407114
0.407106
0.407099
0.407092
0.407085
0.407079
0.407074
0.407069
0.407064
0.40706
0.407056
0.407053
0.40705
0.407048
0.407046
0.407044
0.407043
0.407042
0.407041
0.407041
0.40704
0.407041
0.407041
0.407042
0.407042
0.407044
0.407045
0.407046
0.407048
0.40705
0.407052
0.407054
0.407056
0.407058
0.407061
0.407063
0.407066
0.407068
0.407071
0.407074
0.407077
0.40708
0.407083
0.407086
0.407089
0.407092
0.407095
0.407098
0.407101
0.407105
0.407108
0.407111
0.407114
0.407118
0.407121
0.407124
0.407127
0.407131
0.407134
0.407137
0.407141
0.407144
0.407147
0.407151
0.407154
0.407157
0.40716
0.407164
0.407167
0.40717
0.407174
0.407177
0.40718
0.407184
0.407187
0.40719
0.407194
0.407197
0.4072
0.407203
0.407207
0.40721
0.407213
0.407217
0.40722
0.407223
0.407227
0.40723
0.407233
0.407237
0.40724
0.407243
0.407246
0.40725
0.407253
0.407256
0.40726
0.407263
0.407266
0.40727
0.407273
0.407276
0.40728
0.407283
0.407286
0.40729
0.407293
0.407296
0.407299
0.407303
0.407306
0.407309
0.407313
0.407316
0.407319
0.407323
0.407326
0.407329
0.407333
0.407336
0.407339
0.407343
0.407346
0.407349
0.407353
0.407356
0.40736
0.407363
0.407366
0.40737
0.407373
0.407377
0.40738
0.407384
0.407387
0.407391
0.407394
0.407398
0.407402
0.407405
0.407408
0.407411
0.407411
0.407411
1
1.09593
1.14368
1.13403
1.09771
1.05335
1.00943
0.969228
0.933635
0.902511
0.875352
0.851577
0.830643
0.812085
0.795515
0.780619
0.767141
0.754875
0.743652
0.733335
0.72381
0.714982
0.706773
0.699115
0.691951
0.685231
0.678915
0.672964
0.667346
0.662034
0.657001
0.652225
0.647686
0.643367
0.639251
0.635325
0.631574
0.627987
0.624554
0.621264
0.618108
0.615079
0.612168
0.60937
0.606676
0.604082
0.601583
0.599172
0.596846
0.5946
0.59243
0.590332
0.588303
0.58634
0.584439
0.582598
0.580814
0.579084
0.577407
0.575779
0.5742
0.572666
0.571176
0.569729
0.568322
0.566955
0.565625
0.564331
0.563072
0.561847
0.560655
0.559493
0.558362
0.557261
0.556187
0.555141
0.554121
0.553128
0.552158
0.551213
0.550291
0.549392
0.548515
0.547659
0.546824
0.546009
0.545213
0.544436
0.543678
0.542937
0.542214
0.541508
0.540818
0.540144
0.539486
0.538844
0.538216
0.537602
0.537003
0.536417
0.535845
0.535285
0.534739
0.534205
0.533682
0.533172
0.532673
0.532186
0.531709
0.531243
0.530788
0.530343
0.529908
0.529482
0.529066
0.528659