# vtk DataFile Version 2.0
FlowField
ASCII
DATASET STRUCTURED_GRID
DIMENSIONS 400 1 50
POINTS 20000 float
0 0 0
0.08 0 0
0.16 0 0
0.24 0 0
0.32 0 0
0.4 0 0
0.48 0 0
0.56 0 0
0.64 0 0
0.72 0 0
0.8 0 0
0.88 0 0
0.96 0 0
1.04 0 0
1.12 0 0
1.2 0 0
1.28 0 0
1.36 0 0
1.44 0 0
1.52 0 0
1.6 0 0
1.68 0 0
1.76 0 0
1.84 0 0
1.92 0 0
2 0 0
2.08 0 0
2.16 0 0
2.24 0 0
2.32 0 0
2.4 0 0
2.48 0 0
2.56 0 0
2.64 0 0
2.72 0 0
2.8 0 0
2.88 0 0
2.96 0 0
3.04 0 0
3.12 0 0
3.2 0 0
3.28 0 0
3.36 0 0
3.44 0 0
3.52 0 0
3.6 0 0
3.68 0 0
3.76 0 0
3.84 0 0
3.92 0 0
4 0 0
4.08 0 0
4.16 0 0
4.24 0 0
4.32 0 0
4.4 0 0
4.48 0 0
4.56 0 0
4.64 0 0
4.72 0 0
4.8 0 0
4.88 0 0
4.96 0 0
5.04 0 0
5.12 0 0
5.2 0 0
5.28 0 0
5.36 0 0
5.44 0 0
5.52 0 0
5.6 0 0
5.68 0 0
5.76 0 0
5.84 0 0
5.92 0 0
6 0 0
6.08 0 0
6.16 0 0
6.24 0 0
6.32 0 0
6.4 0 0
6.48 0 0
6.56 0 0
6.64 0 0
6.72 0 0
6.8 0 0
6.88 0 0
6.96 0 0
7.04 0 0
7.12 0 0
7.2 0 0
7.28 0 0
7.36 0 0
7.44 0 0
7.52 0 0
7.6 0 0
7.68 0 0
7.76 0 0
7.84 0 0
7.92 0 0
8 0 0
8.08 0 0
8.16 0 0
8.24 0 0
8.32 0 0
8.4 0 0
8.48 0 0
8.56 0 0
8.64 0 0
8.72 0 0
8.8 0 0
8.88 0 0
8.96 0 0
9.04 0 0
9.12 0 0
9.2 0 0
9.28 0 0
9.36 0 0
9.44 0 0
9.52 0 0
9.6 0 0
9.68 0 0
9.76 0 0
9.84 0 0
9.92 0 0
10 0 0
10.08 0 0
10.16 0 0
10.24 0 0
10.32 0 0
10.4 0 0
10.48 0 0
10.56 0 0
10.64 0 0
10.72 0 0
10.8 0 0
10.88 0 0
10.96 0 0
11.04 0 0
11.12 0 0
11.2 0 0
11.28 0 0
11.36 0 0
11.44 0 0
11.52 0 0
11.6 0 0
11.68 0 0
11.76 0 0
11.84 0 0
11.92 0 0
12 0 0
12.08 0 0
12.16 0 0
12.24 0 0
12.32 0 0
12.4 0 0
12.48 0 0
12.56 0 0
12.64 0 0
12.72 0 0
12.8 0 0
12.88 0 0
12.96 0 0
13.04 0 0
13.12 0 0
13.2 0 0
13.28 0 0
13.36 0 0
13.44 0 0
13.52 0 0
13.6 0 0
13.68 0 0
13.76 0 0
13.84 0 0
13.92 0 0
14 0 0
14.08 0 0
14.16 0 0
14.24 0 0
14.32 0 0
14.4 0 0
14.48 0 0
14.56 0 0
14.64 0 0
14.72 0 0
14.8 0 0
14.88 0 0
14.96 0 0
15.04 0 0
15.12 0 0
15.2 0 0
15.28 0 0
15.36 0 0
15.44 0 0
15.52 0 0
15.6 0 0
15.68 0 0
15.76 0 0
15.84 0 0
15.92 0 0
16 0 0
16.08 0 0
16.16 0 0
16.24 0 0
16.32 0 0
16.4 0 0
16.48 0 0
16.56 0 0
16.64 0 0
16.72 0 0
16.8 0 0
16.88 0 0
16.96 0 0
17.04 0 0
17.12 0 0
17.2 0 0
17.28 0 0
17.36 0 0
17.44 0 0
17.52 0 0
17.6 0 0
17.68 0 0
17.76 0 0
17.84 0 0
17.92 0 0
18 0 0
18.08 0 0
18.16 0 0
18.24 0 0
18.32 0 0
18.4 0 0
18.48 0 0
18.56 0 0
18.64 0 0
18.72 0 0
18.8 0 0
18.88 0 0
18.96 0 0
19.04 0 0
19.12 0 0
19.2 0 0
19.28 0 0
19.36 0 0
19.44 0 0
19.52 0 0
19.6 0 0
19.68 0 0
19.76 0 0
19.84 0 0
19.92 0 0
20 0 0
20.08 0 0
20.16 0 0
20.24 0 0
20.32 0 0
20.4 0 0
20.48 0 0
20.56 0 0
20.64 0 0
20.72 0 0
20.8 0 0
20.88 0 0
20.96 0 0
21.04 0 0
21.12 0 0
21.2 0 0
21.28 0 0
21.36 0 0
21.44 0 0
21.52 0 0
21.6 0 0
21.68 0 0
21.76 0 0
21.84 0 0
21.92 0 0
22 0 0
22.08 0 0
22.16 0 0
22.24 0 0
22.32 0 0
22.4 0 0
22.48 0 0
22.56 0 0
22.64 0 0
22.72 0 0
22.8 0 0
22.88 0 0
22.96 0 0
23.04 0 0
23.12 0 0
23.2 0 0
23.28 0 0
23.36 0 0
23.44 0 0
23.52 0 0
23.6 0 0
23.68 0 0
23.76 0 0
23.84 0 0
23.92 0 0
24 0 0
24.08 0 0
24.16 0 0
24.24 0 0
24.32 0 0
24.4 0 0
24.48 0 0
24.56 0 0
24.64 0 0
24.72 0 0
24.8 0 0
24.88 0 0
24.96 0 0
25.04 0 0
25.12 0 0
25.2 0 0
25.28 0 0
25.36 0 0
25.44 0 0
25.52 0 0
25.6 0 0
25.68 0 0
25.76 0 0
25.84 0 0
25.92 0 0
26 0 0
26.08 0 0
26.16 0 0
26.24 0 0
26.32 0 0
26.4 0 0
26.48 0 0
26.56 0 0
26.64 0 0
26.72 0 0
26.8 0 0
26.88 0 0
26.96 0 0
27.04 0 0
27.12 0 0
27.2 0 0
27.28 0 0
27.36 0 0
27.44 0 0
27.52 0 0
27.6 0 0
27.68 0 0
27.76 0 0
27.84 0 0
27.92 0 0
28 0 0
28.08 0 0
28.16 0 0
28.24 0 0
28.32 0 0
28.4 0 0
28.48 0 0
28.56 0 0
28.64 0 0
28.72 0 0
28.8 0 0
28.88 0 0
28.96 0 0
29.04 0 0
29.12 0 0
29.2 0 0
29.28 0 0
29.36 0 0
29.44 0 0
29.52 0 0
29.6 0 0
29.68 0 0
29.76 0 0
29.84 0 0
29.92 0 0
30 0 0
30.08 0 0
30.16 0 0
30.24 0 0
30.32 0 0
30.4 0 0
30.48 0 0
30.56 0 0
30.64 0 0
30.72 0 0
30.8 0 0
30.88 0 0
30.96 0 0
31.04 0 0
31.12 0 0
31.2 0 0
31.28 0 0
31.36 0 0
31.44 0 0
31.52 0 0
31.6 0 0
31.68 0 0
31.76 0 0
31.84 0 0
31.92 0 0
0 0.02 0
0.08 0.02 0
0.16 0.02 0
0.24 0.02 0
0.32 0.02 0
0.4 0.02 0
0.48 0.02 0
0.56 0.02 0
0.64 0.02 0
0.72 0.02 0
0.8 0.02 0
0.88 0.02 0
0.96 0.02 0
1.04 0.02 0
1.12 0.02 0
1.2 0.02 0
1.28 0.02 0
1.36 0.02 0
1.44 0.02 0
1.52 0.02 0
1.6 0.02 0
1.68 0.02 0
1.76 0.02 0
1.84 0.02 0
1.92 0.02 0
2 0.02 0
2.08 0.02 0
2.16 0.02 0
2.24 0.02 0
2.32 0.02 0
2.4 0.02 0
2.48 0.02 0
2.56 0.02 0
2.64 0.02 0
2.72 0.02 0
2.8 0.02 0
2.88 0.02 0
2.96 0.02 0
3.04 0.02 0
3.12 0.02 0
3.2 0.02 0
3.28 0.02 0
3.36 0.02 0
3.44 0.02 0
3.52 0.02 0
3.6 0.02 0
3.68 0.02 0
3.76 0.02 0
3.84 0.02 0
3.92 0.02 0
4 0.02 0
4.08 0.02 0
4.16 0.02 0
4.24 0.02 0
4.32 0.02 0
4.4 0.02 0
4.48 0.02 0
4.56 0.02 0
4.64 0.02 0
4.72 0.02 0
4.8 0.02 0
4.88 0.02 0
4.96 0.02 0
5.04 0.02 0
5.12 0.02 0
5.2 0.02 0
5.28 0.02 0
5.36 0.02 0
5.44 0.02 0
5.52 0.02 0
5.6 0.02 0
5.68 0.02 0
5.76 0.02 0
5.84 0.02 0
5.92 0.02 0
6 0.02 0
6.08 0.02 0
6.16 0.02 0
6.24 0.02 0
6.32 0.02 0
6.4 0.02 0
6.48 0.02 0
6.56 0.02 0
6.64 0.02 0
6.72 0.02 0
6.8 0.02 0
6.88 0.02 0
6.96 0.02 0
7.04 0.02 0
7.12 0.02 0
7.2 0.02 0
7.28 0.02 0
7.36 0.02 0
7.44 0.02 0
7.52 0.02 0
7.6 0.02 0
7.68 0.02 0
7.76 0.02 0
7.84 0.02 0
7.92 0.02 0
8 0.02 0
8.08 0.02 0
8.16 0.02 0
8.24 0.02 0
8.32 0.02 0
8.4 0.02 0
8.48 0.02 0
8.56 0.02 0
8.64 0.02 0
8.72 0.02 0
8.8 0.02 0
8.88 0.02 0
8.96 0.02 0
9.04 0.02 0
9.12 0.02 0
9.2 0.02 0
9.28 0.02 0
9.36 0.02 0
9.44 0.02 0
9.52 0.02 0
9.6 0.02 0
9.68 0.02 0
9.76 0.02 0
9.84 0.02 0
9.92 0.02 0
10 0.02 0
10.08 0.02 0
10.16 0.02 0
10.24 0.02 0
10.32 0.02 0
10.4 0.02 0
10.48 0.02 0
10.56 0.02 0
10.64 0.02 0
10.72 0.02 0
10.8 0.02 0
10.88 0.02 0
10.96 0.02 0
11.04 0.02 0
11.12 0.02 0
11.2 0.02 0
11.28 0.02 0
11.36 0.02 0
11.44 0.02 0
11.52 0.02 0
11.6 0.02 0
11.68 0.02 0
11.76 0.02 0
11.84 0.02 0
11.92 0.02 0
12 0.02 0
12.08 0.02 0
12.16 0.02 0
12.24 0.02 0
12.32 0.02 0
12.4 0.02 0
12.48 0.02 0
12.56 0.02 0
12.64 0.02 0
12.72 0.02 0
12.8 0.02 0
12.88 0.02 0
12.96 0.02 0
13.04 0.02 0
13.12 0.02 0
13.2 0.02 0
13.28 0.02 0
13.36 0.02 0
13.44 0.02 0
13.52 0.02 0
13.6 0.02 0
13.68 0.02 0
13.76 0.02 0
13.84 0.02 0
13.92 0.02 0
14 0.02 0
14.08 0.02 0
14.16 0.02 0
14.24 0.02 0
14.32 0.02 0
14.4 0.02 0
14.48 0.02 0
14.56 0.02 0
14.64 0.02 0
14.72 0.02 0
14.8 0.02 0
14.88 0.02 0
14.96 0.02 0
15.04 0.02 0
15.12 0.02 0
15.2 0.02 0
15.28 0.02 0
15.36 0.02 0
15.44 0.02 0
15.52 0.02 0
15.6 0.02 0
15.68 0.02 0
15.76 0.02 0
15.84 0.02 0
15.92 0.02 0
16 0.02 0
16.08 0.02 0
16.16 0.02 0
16.24 0.02 0
16.32 0.02 0
16.4 0.02 0
16.48 0.02 0
16.56 0.02 0
16.64 0.02 0
16.72 0.02 0
16.8 0.02 0
16.88 0.02 0
16.96 0.02 0
17.04 0.02 0
17.12 0.02 0
17.2 0.02 0
17.28 0.02 0
17.36 0.02 0
17.44 0.02 0
17.52 0.02 0
17.6 0.02 0
17.68 0.02 0
17.76 0.02 0
17.84 0.02 0
17.92 0.02 0
18 0.02 0
18.08 0.02 0
18.16 0.02 0
18.24 0.02 0
18.32 0.02 0
18.4 0.02 0
18.48 0.02 0
18.56 0.02 0
18.64 0.02 0
18.72 0.02 0
18.8 0.02 0
18.88 0.02 0
18.96 0.02 0
19.04 0.02 0
19.12 0.02 0
19.2 0.02 0
19.28 0.02 0
19.36 0.02 0
19.44 0.02 0
19.52 0.02 0
19.6 0.02 0
19.68 0.02 0
19.76 0.02 0
19.84 0.02 0
19.92 0.02 0
20 0.02 0
20.08 0.02 0
20.16 0.02 0
20.24 0.02 0
20.32 0.02 0
20.4 0.02 0
20.48 0.02 0
20.56 0.02 0
20.64 0.02 0
20.72 0.02 0
20.8 0.02 0
20.88 0.02 0
20.96 0.02 0
21.04 0.02 0
21.12 0.02 0
21.2 0.02 0
21.28 0.02 0
21.36 0.02 0
21.44 0.02 0
21.52 0.02 0
21.6 0.02 0
21.68 0.02 0
21.76 0.02 0
21.84 0.02 0
21.92 0.02 0
22 0.02 0
22.08 0.02 0
22.16 0.02 0
22.24 0.02 0
22.32 0.02 0
22.4 0.02 0
22.48 0.02 0
22.56 0.02 0
22.64 0.02 0
22.72 0.02 0
22.8 0.02 0
22.88 0.02 0
22.96 0.02 0
23.04 0.02 0
23.12 0.02 0
23.2 0.02 0
23.28 0.02 0
23.36 0.02 0
23.44 0.02 0
23.52 0.02 0
23.6 0.02 0
23.68 0.02 0
23.76 0.02 0
23.84 0.02 0
23.92 0.02 0
24 0.02 0
24.08 0.02 0
24.16 0.02 0
24.24 0.02 0
24.32 0.02 0
24.4 0.02 0
24.48 0.02 0
24.56 0.02 0
24.64 0.02 0
24.72 0.02 0
24.8 0.02 0
24.88 0.02 0
24.96 0.02 0
25.04 0.02 0
25.12 0.02 0
25.2 0.02 0
25.28 0.02 0
25.36 0.02 0
25.44 0.02 0
25.52 0.02 0
25.6 0.02 0
25.68 0.02 0
25.76 0.02 0
25.84 0.02 0
25.92 0.02 0
26 0.02 0
26.08 0.02 0
26.16 0.02 0
26.24 0.02 0
26.32 0.02 0
26.4 0.02 0
26.48 0.02 0
26.56 0.02 0
26.64 0.02 0
26.72 0.02 0
26.8 0.02 0
26.88 0.02 0
26.96 0.02 0
27.04 0.02 0
27.12 0.02 0
27.2 0.02 0
27.28 0.02 0
27.36 0.02 0
27.44 0.02 0
27.52 0.02 0
27.6 0.02 0
27.68 0.02 0
27.76 0.02 0
27.84 0.02 0
27.92 0.02 0
28 0.02 0
28.08 0.02 0
28.16 0.02 0
28.24 0.02 0
28.32 0.02 0
28.4 0.02 0
28.48 0.02 0
28.56 0.02 0
28.64 0.02 0
28.72 0.02 0
28.8 0.02 0
28.88 0.02 0
28.96 0.02 0
29.04 0.02 0
29.12 0.02 0
29.2 0.02 0
29.28 0.02 0
29.36 0.02 0
29.44 0.02 0
29.52 0.02 0
29.6 0.02 0
29.68 0.02 0
29.76 0.02 0
29.84 0.02 0
29.92 0.02 0
30 0.02 0
30.08 0.02 0
30.16 0.02 0
30.24 0.02 0
30.32 0.02 0
30.4 0.02 0
30.48 0.02 0
30.56 0.02 0
30.64 0.02 0
30.72 0.02 0
30.8 0.02 0
30.88 0.02 0
30.96 0.02 0
31.04 0.02 0
31.12 0.02 0
31.2 0.02 0
31.28 0.02 0
31.36 0.02 0
31.44 0.02 0
31.52 0.02 0
31.6 0.02 0
31.68 0.02 0
31.76 0.02 0
31.84 0.02 0
31.92 0.02 0
0 0.04 0
0.08 0.04 0
0.16 0.04 0
0.24 0.04 0
0.32 0.04 0
0.4 0.04 0
0.48 0.04 0
0.56 0.04 0
0.64 0.04 0
0.72 0.04 0
0.8 0.04 0
0.88 0.04 0
0.96 0.04 0
1.04 0.04 0
1.12 0.04 0
1.2 0.04 0
1.28 0.04 0
1.36 0.04 0
1.44 0.04 0
1.52 0.04 0
1.6 0.04 0
1.68 0.04 0
1.76 0.04 0
1.84 0.04 0
1.92 0.04 0
2 0.04 0
2.08 0.04 0
2.16 0.04 0
2.24 0.04 0
2.32 0.04 0
2.4 0.04 0
2.48 0.04 0
2.56 0.04 0
2.64 0.04 0
2.72 0.04 0
2.8 0.04 0
2.88 0.04 0
2.96 0.04 0
3.04 0.04 0
3.12 0.04 0
3.2 0.04 0
3.28 0.04 0
3.36 0.04 0
3.44 0.04 0
3.52 0.04 0
3.6 0.04 0
3.68 0.04 0
3.76 0.04 0
3.84 0.04 0
3.92 0.04 0
4 0.04 0
4.08 0.04 0
4.16 0.04 0
4.24 0.04 0
4.32 0.04 0
4.4 0.04 0
4.48 0.04 0
4.56 0.04 0
4.64 0.04 0
4.72 0.04 0
4.8 0.04 0
4.88 0.04 0
4.96 0.04 0
5.04 0.04 0
5.12 0.04 0
5.2 0.04 0
5.28 0.04 0
5.36 0.04 0
5.44 0.04 0
5.52 0.04 0
5.6 0.04 0
5.68 0.04 0
5.76 0.04 0
5.84 0.04 0
5.92 0.04 0
6 0.04 0
6.08 0.04 0
6.16 0.04 0
6.24 0.04 0
6.32 0.04 0
6.4 0.04 0
6.48 0.04 0
6.56 0.04 0
6.64 0.04 0
6.72 0.04 0
6.8 0.04 0
6.88 0.04 0
6.96 0.04 0
7.04 0.04 0
7.12 0.04 0
7.2 0.04 0
7.28 0.04 0
7.36 0.04 0
7.44 0.04 0
7.52 0.04 0
7.6 0.04 0
7.68 0.04 0
7.76 0.04 0
7.84 0.04 0
[...]
POINT_DATA 20000

SCALARS u float 1
LOOKUP_TABLE default
0
-0.507088
-0.291918
-0.214159
-0.179023
-0.158662
-0.145108
-0.135356
-0.127964
-0.122136
-0.117398
-0.113446
-0.110083
-0.107169
-0.104611
-0.102337
-0.100298
-0.0984527
-0.0967727
-0.0952341
-0.0938179
-0.0925088
-0.0912941
-0.0901632
-0.0891072
-0.0881184
-0.0871902
-0.0863169
-0.0854935
-0.0847157
-0.0839796
-0.0832817
-0.0826191
-0.0819889
-0.0813889
-0.0808168
-0.0802705
-0.0797484
-0.0792488
-0.0787703
-0.0783114
-0.077871
-0.0774479
-0.0770412
-0.0766498
-0.0762729
-0.0759097
-0.0755595
-0.0752215
-0.0748951
-0.0745798
-0.074275
-0.0739801
-0.0736947
-0.0734183
-0.0731506
-0.0728912
-0.0726396
-0.0723955
-0.0721586
-0.0719287
-0.0717054
-0.0714884
-0.0712776
-0.0710726
-0.0708732
-0.0706793
-0.0704906
-0.070307
-0.0701282
-0.0699541
-0.0697845
-0.0696193
-0.0694583
-0.0693014
-0.0691485
-0.0689993
-0.0688539
-0.0687121
-0.0685737
-0.0684388
-0.068307
-0.0681785
-0.0680531
-0.0679306
-0.067811
-0.0676943
-0.0675803
-0.067469
-0.0673603
-0.0672541
-0.0671504
-0.067049
-0.06695
-0.0668533
-0.0667588
-0.0666664
-0.0665762
-0.066488
-0.0664018
-0.0663175
-0.0662351
-0.0661546
-0.0660759
-0.065999
-0.0659238
-0.0658502
-0.0657783
-0.065708
-0.0656393
-0.065572
-0.0655063
-0.065442
-0.0653792
-0.0653177
-0.0652576
-0.0651988
-0.0651413
-0.065085
-0.06503
-0.0649762
-0.0649236
-0.0648721
-0.0648217
-0.0647724
-0.0647242
-0.0646771
-0.0646309
-0.0645858
-0.0645416
-0.0644984
-0.0644562
-0.0644148
-0.0643743
-0.0643347
-0.064296
-0.064258
-0.0642209
-0.0641846
-0.0641491
-0.0641143
-0.0640803
-0.064047
-0.0640144
-0.0639825
-0.0639513
-0.0639208
-0.0638909
-0.0638617
-0.063833
-0.0638051
-0.0637777
-0.0637509
-0.0637246
-0.0636989
-0.0636738
-0.0636492
-0.0636251
-0.0636016
-0.0635786
-0.063556
-0.063534
-0.0635124
-0.0634913
-0.0634706
-0.0634504
-0.0634306
-0.0634112
-0.0633922
-0.0633737
-0.0633556
-0.0633378
-0.0633204
-0.0633034
-0.0632867
-0.0632704
-0.0632545
-0.0632389
-0.0632236
-0.0632087
-0.0631941
-0.0631798
-0.0631659
-0.0631522
-0.0631388
-0.0631258
-0.063113
-0.0631006
-0.0630885
-0.0630766
-0.0630651
-0.0630539
-0.0630429
-0.0630322
-0.0630219
-0.0630118
-0.063002
-0.0629925
-0.0629833
-0.0629744
-0.0629659
-0.0629575
-0.0629495
-0.0629417
-0.0629342
-0.062927
-0.0629201
-0.0629135
-0.0629072
-0.0629012
-0.0628954
-0.0628899
-0.0628846
-0.0628796
-0.0628748
-0.0628703
-0.0628662
-0.0628623
-0.0628586
-0.0628552
-0.0628519
-0.0628489
-0.062846
-0.0628435
-0.0628412
-0.0628391
-0.0628372
-0.0628355
-0.062834
-0.0628327
-0.0628315
-0.0628304
-0.0628296
-0.0628289
-0.0628284
-0.062828
-0.0628278
-0.0628277
-0.0628277
-0.0628277
-0.0628279
-0.0628282
-0.0628287
-0.0628292
-0.0628298
-0.0628304
-0.0628312
-0.062832
-0.0628328
-0.0628337
-0.0628347
-0.0628357
-0.0628368
-0.0628379
-0.0628391
-0.0628402
-0.0628414
-0.0628427
-0.0628439
-0.0628452
-0.0628465
-0.0628478
-0.0628491
-0.0628504
-0.0628518
-0.0628531
-0.0628545
-0.0628559
-0.0628572
-0.0628586
-0.06286
-0.0628614
-0.0628628
-0.0628641
-0.0628655
-0.0628669
-0.0628683
-0.0628697
-0.0628711
-0.0628725
-0.0628739
-0.0628753
-0.0628767
-0.0628781
-0.0628795
-0.0628809
-0.0628823
-0.0628837
-0.0628851
-0.0628865
-0.0628879
-0.0628893
-0.0628907
-0.0628921
-0.0628935
-0.0628949
-0.0628963
-0.0628977
-0.0628991
-0.0629005
-0.0629019
-0.0629034
-0.0629048
-0.0629062
-0.0629076
-0.062909
-0.0629104
-0.0629118
-0.0629132
-0.0629146
-0.062916
-0.0629174
-0.0629189
-0.0629203
-0.0629217
-0.0629231
-0.0629245
-0.0629259
-0.0629273
-0.0629287
-0.0629302
-0.0629316
-0.062933
-0.0629344
-0.0629358
-0.0629372
-0.0629386
-0.0629401
-0.0629415
-0.0629429
-0.0629443
-0.0629457
-0.0629471
-0.0629486
-0.06295
-0.0629514
-0.0629528
-0.0629542
-0.0629557
-0.0629571
-0.0629585
-0.0629599
-0.0629613
-0.0629628
-0.0629642
-0.0629656
-0.062967
-0.0629684
-0.0629699
-0.0629713
-0.0629727
-0.0629741
-0.0629755
-0.062977
-0.0629784
-0.0629798
-0.0629812
-0.0629826
-0.0629841
-0.0629855
-0.0629869
-0.0629883
-0.0629898
-0.0629912
-0.0629926
-0.062994
-0.0629955
-0.0629969
-0.0629983
-0.0629997
-0.0630012
-0.0630026
-0.063004
-0.0630055
-0.0630069
-0.0630083
-0.0630098
-0.0630112
-0.0630126
-0.0630141
-0.0630155
-0.063017
-0.0630184
-0.0630199
-0.0630213
-0.0630228
-0.0630242
-0.0630258
-0.0630272
-0.0630288
-0.0630302
-0.0630317
-0.0630332
-0.0630347
-0.0630362
-0.0630374
-0.0630389
-0.0630384
-0.0630384
-0.0630384
1
0.507088
0.291918
0.214159
0.179023
0.158662
0.145108
0.135356
0.127964
0.122136
0.117398
0.113446
0.110083
0.107169
0.104611
0.102337
0.100298
0.0984527
0.0967727
0.0952341
0.0938179
0.0925088
0.0912941
0.0901632
0.0891072
0.0881184
0.0871902
0.0863169
0.0854935
0.0847157
0.0839796
0.0832817
0.0826191
0.0819889
0.0813889
0.0808168
0.0802705
0.0797484
0.0792488
0.0787703
0.0783114
0.077871
0.0774479
0.0770412
0.0766498
0.0762729
0.0759097
0.0755595
0.0752215
0.0748951
0.0745798
0.074275
0.0739801
0.0736947
0.0734183
0.0731506
0.0728912
0.0726396
0.0723955
0.0721586
0.0719287
0.0717054
0.0714884
0.0712776
0.0710726
0.0708732
0.0706793
0.0704906
0.070307
0.0701282
0.0699541
0.0697845
0.0696193
0.0694583
0.0693014
0.0691485
0.0689993
0.0688539
0.0687121
0.0685737
0.0684388
0.068307
0.0681785
0.0680531
0.0679306
0.067811
0.0676943
0.0675803
0.067469
0.0673603
0.0672541
0.0671504
0.067049
0.06695
0.0668533
0.0667588
0.0666664
0.0665762
0.066488
0.0664018
0.0663175
0.0662351
0.0661546
0.0660759
0.065999
0.0659238
0.0658502
0.0657783
0.065708
0.0656393
0.065572
0.0655063
0.065442
0.0653792
0.0653177
0.0652576
0.0651988
0.0651413
0.065085
0.06503
0.0649762
0.0649236
0.0648721
0.0648217
0.0647724
0.0647242
0.0646771
0.0646309
0.0645858
0.0645416
0.0644984
0.0644562
0.0644148
0.0643743
0.0643347
0.064296
0.064258
0.0642209
0.0641846
0.0641491
0.0641143
0.0640803
0.064047
0.0640144
0.0639825
0.0639513
0.0639208
0.0638909
0.0638617
0.063833
0.0638051
0.0637777
0.0637509
0.0637246
0.0636989
0.0636738
0.0636492
0.0636251
0.0636016
0.0635786
0.063556
0.063534
0.0635124
0.0634913
0.0634706
0.0634504
0.0634306
0.0634112
0.0633922
0.0633737
0.0633556
0.0633378
0.0633204
0.0633034
0.0632867
0.0632704
0.0632545
0.0632389
0.0632236
0.0632087
0.0631941
0.0631798
0.0631659
0.0631522
0.0631388
0.0631258
0.063113
0.0631006
0.0630885
0.0630766
0.0630651
0.0630539
0.0630429
0.0630322
0.0630219
0.0630118
0.063002
0.0629925
0.0629833
0.0629744
0.0629659
0.0629575
0.0629495
0.0629417
0.0629342
0.062927
0.0629201
0.0629135
0.0629072
0.0629012
0.0628954
0.0628899
0.0628846
0.0628796
0.0628748
0.0628703
0.0628662
0.0628623
0.0628586
0.0628552
0.0628519
0.0628489
0.062846
0.0628435
0.0628412
0.0628391
0.0628372
0.0628355
0.062834
0.0628327
0.0628315
0.0628304
0.0628296
0.0628289
0.0628284
0.062828
0.0628278
0.0628277
0.0628277
0.0628277
0.0628279
0.0628282
0.0628287
0.0628292
0.0628298
0.0628304
0.0628312
0.062832
0.0628328
0.0628337
0.0628347
0.0628357
0.0628368
0.0628379
0.0628391
0.0628402
0.0628414
0.0628427
0.0628439
0.0628452
0.0628465
0.0628478
0.0628491
0.0628504
0.0628518
0.0628531
0.0628545
0.0628559
0.0628572
0.0628586
0.06286
0.0628614
0.0628628
0.0628641
0.0628655
0.0628669
0.0628683
0.0628697
0.0628711
0.0628725
0.0628739
0.0628753
0.0628767
0.0628781
0.0628795
0.0628809
0.0628823
0.0628837
0.0628851
0.0628865
0.0628879
0.0628893
0.0628907
0.0628921
0.0628935
0.0628949
0.0628963
0.0628977
0.0628991
0.0629005
0.0629019
0.0629034
0.0629048
0.0629062
0.0629076
0.062909
0.0629104
0.0629118
0.0629132
0.0629146
0.062916
0.0629174
0.0629189
0.0629203
0.0629217
0.0629231
0.0629245
0.0629259
0.0629273
0.0629287
0.0629302
0.0629316
0.062933
0.0629344
0.0629358
0.0629372
0.0629386
0.0629401
0.0629415
0.0629429
0.0629443
0.0629457
0.0629471
0.0629486
0.06295
0.0629514
0.0629528
0.0629542
0.0629557
0.0629571
0.0629585
0.0629599
0.0629613
0.0629628
0.0629642
0.0629656
0.062967
0.0629684
0.0629699
0.0629713
0.0629727
0.0629741
0.0629755
0.062977
0.0629784
0.0629798
0.0629812
0.0629826
0.0629841
0.0629855
0.0629869
0.0629883
0.0629898
0.0629912
0.0629926
0.062994
0.0629955
0.0629969
0.0629983
0.0629997
0.0630012
0.0630026
0.063004
0.0630055
0.0630069
0.0630083
0.0630098
0.0630112
0.0630126
0.0630141
0.0630155
0.063017
0.0630184
0.0630199
0.0630213
0.0630228
0.0630242
0.0630258
0.0630272
0.0630288
0.0630302
0.0630317
0.0630332
0.0630347
0.0630362
0.0630374
0.0630389
0.0630384
0.0630384
0.0630384
1
0.924295
0.735443
0.597546
0.511652
0.456336
0.418175
0.390271
0.36894
0.352055
0.338307
0.326848
0.317107
0.30869
0.301315
0.294777
0.288925
0.283644
0.278844
0.274455
0.270421
0.266697
0.263246
0.260035
0.25704
0.254238
0.251609
0.249137
0.246807
0.244608
0.242527
0.240556
0.238684
0.236905
0.235212
0.233598
0.232057
0.230585
0.229177
0.227829
0.226536
0.225295
0.224104
0.222959
0.221858
0.220797
0.219776
0.218791
0.21784
0.216923
0.216037
0.21518
0.214352
0.21355
0.212774
0.212022
0.211294
0.210588
0.209903
0.209239
0.208594
0.207968
0.207359
0.206768
0.206194
0.205635
0.205092
0.204563
0.204049
0.203548
0.203061
0.202586
0.202124
0.201673
0.201234
0.200807
0.20039
0.199983
0.199586
0.1992
0.198823
0.198454
0.198095
0.197745
0.197403
0.197069
0.196743
0.196425
0.196114
0.195811
0.195514
0.195225
0.194942
0.194666
0.194397
0.194133
0.193876
0.193624
0.193378
0.193138
0.192903
0.192674
0.192449
0.19223
0.192016
0.191807
0.191602
0.191402
0.191206
0.191015
0.190828
0.190645
0.190466
0.190291
0.19012
0.189953
0.189789
0.18963
0.189473
0.18932
0.189171
0.189024
0.188881
0.188741
0.188604
0.188471
0.18834
0.188211
0.188086
0.187963
0.187843
0.187726
0.187611
0.187499
0.187389
0.187281
0.187176
0.187073
0.186972
0.186874
0.186777
0.186683
0.18659
0.1865
0.186411
0.186325
0.18624
0.186157
0.186076
0.185997
0.185919
0.185843
0.185769
0.185696
0.185625
0.185555
0.185487
0.18542
0.185355
0.185291
0.185228
0.185167
0.185107
0.185049
0.184991
0.184935
0.18488
0.184827
0.184774
0.184723
0.184672
0.184623
0.184575
0.184528
0.184482
0.184436
0.184392
0.184349
0.184307
0.184266
0.184225
0.184186
0.184147
0.184109
0.184072
0.184036
0.184001
0.183967
0.183934
0.183901
0.183869
0.183838
0.183808
0.183779
0.183751
0.183723
0.183697
0.183671
0.183646
0.183622
0.183598
0.183576
0.183554
0.183533
0.183513
0.183494
0.183475
0.183458
0.183441
0.183425
0.183409
0.183395
0.183381
0.183368
0.183355
0.183344
0.183333
0.183323
0.183313
0.183304
0.183296
0.183288
0.183281
0.183275
0.183269
0.183264
0.183259
0.183255
0.183252
0.183248
0.183246
0.183243
0.183242
0.18324
0.183239
0.183239
0.183238
0.183239
0.183239
0.183239
0.18324
0.183242
0.183243
0.183245
0.183247
0.183249
0.183251
0.183254
0.183256
0.183259
0.183262
0.183265
0.183268
0.183271
0.183274
0.183278
0.183281
0.183285
0.183288
0.183292
0.183295
0.183299
0.183303
0.183306
0.18331
0.183314
0.183318
0.183322
0.183325
0.183329
0.183333
0.183337
0.183341
0.183345
0.183349
0.183352
0.183356
0.18336
0.183364
0.183368
0.183372
0.183376
0.18338
0.183383
0.183387
0.183391
0.183395
0.183399
0.183403
0.183407
0.183411
0.183414
0.183418
0.183422
0.183426
0.18343
0.183434
0.183438
0.183442
0.183446
0.18345
0.183453
0.183457
0.183461
0.183465
0.183469
0.183473
0.183477
0.183481
0.183485
0.183488
0.183492
0.183496
0.1835
0.183504
0.183508
0.183512
0.183516
0.18352
0.183524
0.183528
0.183531
0.183535
0.183539
0.183543
0.183547
0.183551
0.183555
0.183559
0.183563
0.183567
0.183571
0.183574
0.183578
0.183582
0.183586
0.18359
0.183594
0.183598
0.183602
0.183606
0.18361
0.183614
0.183617
0.183621
0.183625
0.183629
0.183633
0.183637
0.183641
0.183645
0.183649
0.183653
0.183657
0.183661
0.183664
0.183668
0.183672
0.183676
0.18368
0.183684
0.183688
0.183692
0.183696
0.1837
0.183704
0.183708
0.183712
0.183715
0.183719
0.183723
0.183727
0.183731
0.183735
0.183739
0.183743
0.183747
0.183751
0.183755
0.183759
0.183763
0.183767
0.183771
0.183775
0.183779
0.183783
0.183787
0.183791
0.183795
0.183799
0.183803
0.183807
0.183811
0.183816
0.18382
0.183823
0.183827
0.183828
0.183828
0.183828
1
1.0797
0.997067
0.883645
0.78869
0.716905
0.663041
0.621826
0.589482
0.563469
0.542077
0.524135
0.508828
0.495572
0.483944
0.473633
0.464403
0.456073
0.448505
0.441586
0.43523
0.429363
0.423926
0.418871
0.414155
0.409743
0.405605
0.401714
0.398048
0.394586
0.391312
0.38821
0.385266
0.382467
0.379803
0.377264
0.374841
0.372526
0.370311
0.36819
0.366158
0.364207
0.362335
0.360535
0.358803
0.357137
0.355531
0.353983
0.35249
0.351049
0.349657
0.348311
0.34701
0.345751
0.344533
0.343353
0.342209
0.341101
0.340026
0.338983
0.337971
0.336989
0.336034
0.335107
0.334206
0.33333
0.332478
0.33165
0.330844
0.330059
0.329295
0.328551
0.327827
0.327121
0.326434
0.325763
0.32511
0.324474
0.323853
0.323247
0.322657
0.322081
0.321519
0.320971
0.320436
0.319913
0.319403
0.318906
0.31842
0.317946
0.317482
0.31703
0.316588
0.316157
0.315735
0.315324
0.314921
0.314528
0.314144
0.313769
0.313403
0.313044
0.312694
0.312352
0.312018
0.311691
0.311371
0.311059
0.310754
0.310455
0.310164
0.309879
0.3096
0.309327
0.309061
0.3088
0.308545
0.308296
0.308052
0.307814
0.307581
0.307353
0.30713
0.306912
0.306699
0.30649
0.306286
0.306086
0.305891
0.3057
0.305513
0.305331
0.305152
0.304977
0.304806
0.304638
0.304474
0.304314
0.304157
0.304004
0.303854
0.303707
0.303563
0.303422
0.303285
0.30315
0.303018
0.302889
0.302763
0.30264
0.302519
0.302401
0.302285
0.302172
0.302061
0.301953
0.301847
0.301743
0.301641
0.301542
0.301445
0.30135
0.301257
0.301165
0.301076
0.300989
0.300904
0.30082
0.300739
0.300659
0.30058
0.300504
0.300429
0.300356
0.300284
0.300214
0.300145
0.300078
0.300012
0.299948
0.299885
0.299824
0.299764
0.299705
0.299648
0.299592
0.299538
0.299485
0.299433
0.299383
0.299334
0.299286
0.29924
0.299195
0.299151
0.299109
0.299067
0.299028
0.298989
0.298952
0.298917
0.298882
0.298849
0.298817
0.298786
0.298757
0.298728
0.298702
0.298676
0.298652
0.298628
0.298606
0.298585
0.298565
0.298547
0.298529
0.298513
0.298498
0.298484
0.29847
0.298458
0.298447
0.298436
0.298427
0.298419
0.298411
0.298405
0.298399
0.298394
0.298389
0.298385
0.298382
0.29838
0.298378
0.298377
0.298376
0.298376
0.298377
0.298378
0.298379
0.298381
0.298383
0.298385
0.298388
0.298391
0.298395
0.298398
0.298402
0.298407
0.298411
0.298415
0.29842
0.298425
0.29843
0.298435
0.298441
0.298446
0.298451
0.298457
0.298463
0.298468
0.298474
0.29848
0.298486
0.298491
0.298497
0.298503
0.298509
0.298515
0.298521
0.298527
0.298533
0.298539
0.298545
0.298551
0.298557
0.298563
0.298569
0.298575
0.298581
0.298587
0.298593
0.298599
0.298605
0.298611
0.298617
0.298623
0.298629
0.298634
0.29864
0.298646
0.298652
0.298658
0.298664
0.29867
0.298676
0.298682
0.298688
0.298694
0.2987
0.298706
0.298712
0.298719
0.298725
0.298731
0.298737
0.298743
0.298749
0.298755
0.298761
0.298767
0.298773
0.298779
0.298785
0.298791
0.298797
0.298803
0.298809
0.298815
0.298821
0.298827
0.298833
0.298839
0.298845
0.298851
0.298857
0.298863
0.298869
0.298875
0.298881
0.298887
0.298893
0.298899
0.298905
0.298911
0.298917
0.298923
0.298929
0.298935
0.298941
0.298947
0.298953
0.298959
0.298965
0.298971
0.298977
0.298983
0.298989
0.298995
0.299001
0.299007
0.299013
0.299019
0.299025
0.299031
0.299038
0.299044
0.29905
0.299056
0.299062
0.299068
0.299074
0.29908
0.299086
0.299092
0.299098
0.299104
0.29911
0.299116
0.299122
0.299128
0.299134
0.29914
0.299146
0.299152
0.299158
0.299164
0.29917
0.299176
0.299183
0.299189
0.299195
0.299201
0.299207
0.299213
0.299219
0.299226
0.299232
0.299238
0.299244
0.299251
0.299257
0.299263
0.29927
0.299276
0.299282
0.299288
0.29929
0.29929
0.29929
1
1.11179
1.11438
1.05557
0.984369
0.919029
0.863794
0.81821
0.780637
0.749413
0.723153
0.700784
0.681485
0.66464
0.64978
0.636545
0.624659
0.613907
0.604118
0.595157
0.586912
0.579295
0.572229
0.565653
0.559514
0.553767
0.548373
0.543299
0.538515
0.533997
0.529721
0.525668
0.521821
0.518162
0.514678
0.511357
0.508187
0.505157
0.502259
0.499483
0.496822
0.494268
0.491815
0.489458
0.48719
0.485007
0.482904
0.480876
0.47892
0.477031
0.475207
0.473444
0.47174
0.47009
0.468494
0.466948
0.46545
0.463998
0.462589
0.461223
0.459898
0.458611
0.457361
0.456146
0.454966
0.453819
0.452704
0.451619
0.450563
0.449536
0.448536
0.447562
0.446614
0.44569
0.444791
0.443914
0.443059
0.442226
0.441414
0.440622
0.43985
0.439097
0.438362
0.437645
0.436945
0.436262
0.435596
0.434946
0.434311
0.433691
0.433086
0.432495
0.431918
0.431354
0.430804
0.430266
0.429741
0.429228
0.428726
0.428237
0.427758
0.427291
0.426834
0.426388
0.425951
0.425525
0.425108
0.424701
0.424303
0.423914
0.423533
0.423162
0.422798
0.422443
0.422095
0.421756
0.421424
0.421099
0.420782
0.420471
0.420168
0.419871
0.41958
0.419297
0.419019
0.418747
0.418482
0.418222
0.417968
0.417719
0.417476
0.417238
0.417006
0.416778
0.416556
0.416338
0.416125
0.415916
0.415712
0.415513
0.415317
0.415126
0.414939
0.414756
0.414577
0.414402
0.414231
0.414063
0.413899
0.413739
0.413582
0.413428
0.413278
0.41313
0.412987
0.412846
0.412708
0.412573
0.412441
0.412312
0.412186
0.412062
0.411941
0.411823
0.411707
0.411593
0.411483
0.411374
0.411268
0.411164
0.411062
0.410963
0.410866
0.41077
0.410677
0.410586
0.410497
0.41041
0.410324
0.410241
0.41016
0.41008
0.410002
0.409926
0.409852
0.40978
0.409709
0.40964
0.409573
0.409508
0.409445
0.409383
0.409323
0.409264
0.409208
0.409153
0.4091
0.409049
0.408999
0.408951
0.408905
0.408861
0.408818
0.408777
0.408737
0.4087
0.408664
0.408629
0.408596
0.408565
0.408535
0.408507
0.40848
0.408455
0.408431
0.408409
0.408388
0.408369
0.408351
0.408334
0.408319
0.408305
0.408292
0.40828
0.408269
0.40826
0.408252
0.408244
0.408238
0.408233
0.408228
0.408224
0.408222
0.40822
0.408218
0.408218
0.408218
0.408219
0.40822
0.408222
0.408224
0.408227
0.408231
0.408234
0.408239
0.408243
0.408248
0.408253
0.408259
0.408264
0.40827
0.408277
0.408283
0.40829
0.408296
0.408303
0.40831
0.408317
0.408324
0.408331
0.408339
0.408346
0.408354
0.408361
0.408368
0.408376
0.408384
0.408391
0.408399
0.408406
0.408414
0.408422
0.408429
0.408437
0.408445
0.408452
0.40846
0.408468
0.408475
0.408483
0.408491
0.408498
0.408506
0.408514
0.408521
0.408529
0.408537
0.408544
0.408552
0.40856
0.408567
0.408575
0.408583
0.40859
0.408598
0.408606
0.408614
0.408621
0.408629
0.408637
0.408644
0.408652
0.40866
0.408667
0.408675
0.408683
0.408691
0.408698
0.408706
0.408714
0.408721
0.408729
0.408737
0.408744
0.408752
0.40876
0.408768
0.408775
0.408783
0.408791
0.408798
0.408806
0.408814
0.408821
0.408829
0.408837
0.408845
0.408852
0.40886
0.408868
0.408875
0.408883
0.408891
0.408899
0.408906
0.408914
0.408922
0.408929
0.408937
0.408945
0.408952
0.40896
0.408968
0.408976
0.408983
0.408991
0.408999
0.409006
0.409014
0.409022
0.40903
0.409037
0.409045
0.409053
0.40906
0.409068
0.409076
0.409084
0.409091
0.409099
0.409107
0.409114
0.409122
0.40913
0.409138
0.409145
0.409153
0.409161
0.409168
0.409176
0.409184
0.409192
0.409199
0.409207
0.409215
0.409223
0.40923
0.409238
0.409246
0.409254
0.409261
0.409269
0.409277
0.409285
0.409293
0.409301
0.409308
0.409317
0.409324
0.409333
0.40934
0.409349
0.409357
0.409365
0.409373
0.409381
0.409388
0.409394
0.409394
0.409394
1
1.09593
1.14367
1.13403
1.0977
1.05334
1.00942
0.969217
0.933623
0.902497
0.875337
0.851561
0.830626
0.812066
0.795495
0.780598
0.767119
0.754852
0.743628
0.73331
0.723783
0.714955
0.706744
0.699085
0.69192
0.6852
0.678883
0.672931
0.667313
0.661999
0.656965
0.652189
0.64765
0.64333
0.639214
0.635287
0.631536
0.627948
0.624515
0.621224
0.618068
0.615039
0.612128
0.609329
0.606635
0.604041
0.601541
0.599131
0.596805
0.594559
0.592389
0.590291
0.588263
0.5863
0.584399
0.582558
0.580775
0.579046
0.577369
0.575742
0.574163
0.57263
0.571141
0.569695
0.568289
0.566923
0.565594
0.564301
0.563044
0.56182
0.560629
0.559469
0.55834
0.55724
0.556168
0.555124
0.554106
0.553114
0.552147
0.551204
0.550284
0.549388
0.548513
0.547659
0.546827
0.546014
0.545221
0.544447
0.543691
0.542954
0.542234
0.541531
0.540844
0.540174
0.539519
0.53888
0.538256
0.537646
0.53705
0.536468
0.535899
0.535343
0.5348
0.53427
0.533751
0.533245
0.53275
0.532266
0.531793
0.531331
0.53088
0.530438
0.530007
0.529585
0.529173
0.52877
0.528376