# vtk DataFile Version 2.0
FlowField
ASCII
DATASET STRUCTURED_GRID
DIMENSIONS 400 1 50
POINTS 20000 float
0 0 0
0.08 0 0
0.16 0 0
0.24 0 0
0.32 0 0
0.4 0 0
0.48 0 0
0.56 0 0
0.64 0 0
0.72 0 0
0.8 0 0
0.88 0 0
0.96 0 0
1.04 0 0
1.12 0 0
1.2 0 0
1.28 0 0
1.36 0 0
1.44 0 0
1.52 0 0
1.6 0 0
1.68 0 0
1.76 0 0
1.84 0 0
1.92 0 0
2 0 0
2.08 0 0
2.16 0 0
2.24 0 0
2.32 0 0
2.4 0 0
2.48 0 0
2.56 0 0
2.64 0 0
2.72 0 0
2.8 0 0
2.88 0 0
2.96 0 0
3.04 0 0
3.12 0 0
3.2 0 0
3.28 0 0
3.36 0 0
3.44 0 0
3.52 0 0
3.6 0 0
3.68 0 0
3.76 0 0
3.84 0 0
3.92 0 0
4 0 0
4.08 0 0
4.16 0 0
4.24 0 0
4.32 0 0
4.4 0 0
4.48 0 0
4.56 0 0
4.64 0 0
4.72 0 0
4.8 0 0
4.88 0 0
4.96 0 0
5.04 0 0
5.12 0 0
5.2 0 0
5.28 0 0
5.36 0 0
5.44 0 0
5.52 0 0
5.6 0 0
5.68 0 0
5.76 0 0
5.84 0 0
5.92 0 0
6 0 0
6.08 0 0
6.16 0 0
6.24 0 0
6.32 0 0
6.4 0 0
6.48 0 0
6.56 0 0
6.64 0 0
6.72 0 0
6.8 0 0
6.88 0 0
6.96 0 0
7.04 0 0
7.12 0 0
7.2 0 0
7.28 0 0
7.36 0 0
7.44 0 0
7.52 0 0
7.6 0 0
7.68 0 0
7.76 0 0
7.84 0 0
7.92 0 0
8 0 0
8.08 0 0
8.16 0 0
8.24 0 0
8.32 0 0
8.4 0 0
8.48 0 0
8.56 0 0
8.64 0 0
8.72 0 0
8.8 0 0
8.88 0 0
8.96 0 0
9.04 0 0
9.12 0 0
9.2 0 0
9.28 0 0
9.36 0 0
9.44 0 0
9.52 0 0
9.6 0 0
9.68 0 0
9.76 0 0
9.84 0 0
9.92 0 0
10 0 0
10.08 0 0
10.16 0 0
10.24 0 0
10.32 0 0
10.4 0 0
10.48 0 0
10.56 0 0
10.64 0 0
10.72 0 0
10.8 0 0
10.88 0 0
10.96 0 0
11.04 0 0
11.12 0 0
11.2 0 0
11.28 0 0
11.36 0 0
11.44 0 0
11.52 0 0
11.6 0 0
11.68 0 0
11.76 0 0
11.84 0 0
11.92 0 0
12 0 0
12.08 0 0
12.16 0 0
12.24 0 0
12.32 0 0
12.4 0 0
12.48 0 0
12.56 0 0
12.64 0 0
12.72 0 0
12.8 0 0
12.88 0 0
12.96 0 0
13.04 0 0
13.12 0 0
13.2 0 0
13.28 0 0
13.36 0 0
13.44 0 0
13.52 0 0
13.6 0 0
13.68 0 0
13.76 0 0
13.84 0 0
13.92 0 0
14 0 0
14.08 0 0
14.16 0 0
14.24 0 0
14.32 0 0
14.4 0 0
14.48 0 0
14.56 0 0
14.64 0 0
14.72 0 0
14.8 0 0
14.88 0 0
14.96 0 0
15.04 0 0
15.12 0 0
15.2 0 0
15.28 0 0
15.36 0 0
15.44 0 0
15.52 0 0
15.6 0 0
15.68 0 0
15.76 0 0
15.84 0 0
15.92 0 0
16 0 0
16.08 0 0
16.16 0 0
16.24 0 0
16.32 0 0
16.4 0 0
16.48 0 0
16.56 0 0
16.64 0 0
16.72 0 0
16.8 0 0
16.88 0 0
16.96 0 0
17.04 0 0
17.12 0 0
17.2 0 0
17.28 0 0
17.36 0 0
17.44 0 0
17.52 0 0
17.6 0 0
17.68 0 0
17.76 0 0
17.84 0 0
17.92 0 0
18 0 0
18.08 0 0
18.16 0 0
18.24 0 0
18.32 0 0
18.4 0 0
18.48 0 0
18.56 0 0
18.64 0 0
18.72 0 0
18.8 0 0
18.88 0 0
18.96 0 0
19.04 0 0
19.12 0 0
19.2 0 0
19.28 0 0
19.36 0 0
19.44 0 0
19.52 0 0
19.6 0 0
19.68 0 0
19.76 0 0
19.84 0 0
19.92 0 0
20 0 0
20.08 0 0
20.16 0 0
20.24 0 0
20.32 0 0
20.4 0 0
20.48 0 0
20.56 0 0
20.64 0 0
20.72 0 0
20.8 0 0
20.88 0 0
20.96 0 0
21.04 0 0
21.12 0 0
21.2 0 0
21.28 0 0
21.36 0 0
21.44 0 0
21.52 0 0
21.6 0 0
21.68 0 0
21.76 0 0
21.84 0 0
21.92 0 0
22 0 0
22.08 0 0
22.16 0 0
22.24 0 0
22.32 0 0
22.4 0 0
22.48 0 0
22.56 0 0
22.64 0 0
22.72 0 0
22.8 0 0
22.88 0 0
22.96 0 0
23.04 0 0
23.12 0 0
23.2 0 0
23.28 0 0
23.36 0 0
23.44 0 0
23.52 0 0
23.6 0 0
23.68 0 0
23.76 0 0
23.84 0 0
23.92 0 0
24 0 0
24.08 0 0
24.16 0 0
24.24 0 0
24.32 0 0
24.4 0 0
24.48 0 0
24.56 0 0
24.64 0 0
24.72 0 0
24.8 0 0
24.88 0 0
24.96 0 0
25.04 0 0
25.12 0 0
25.2 0 0
25.28 0 0
25.36 0 0
25.44 0 0
25.52 0 0
25.6 0 0
25.68 0 0
25.76 0 0
25.84 0 0
25.92 0 0
26 0 0
26.08 0 0
26.16 0 0
26.24 0 0
26.32 0 0
26.4 0 0
26.48 0 0
26.56 0 0
26.64 0 0
26.72 0 0
26.8 0 0
26.88 0 0
26.96 0 0
27.04 0 0
27.12 0 0
27.2 0 0
27.28 0 0
27.36 0 0
27.44 0 0
27.52 0 0
27.6 0 0
27.68 0 0
27.76 0 0
27.84 0 0
27.92 0 0
28 0 0
28.08 0 0
28.16 0 0
28.24 0 0
28.32 0 0
28.4 0 0
28.48 0 0
28.56 0 0
28.64 0 0
28.72 0 0
28.8 0 0
28.88 0 0
28.96 0 0
29.04 0 0
29.12 0 0
29.2 0 0
29.28 0 0
29.36 0 0
29.44 0 0
29.52 0 0
29.6 0 0
29.68 0 0
29.76 0 0
29.84 0 0
29.92 0 0
30 0 0
30.08 0 0
30.16 0 0
30.24 0 0
30.32 0 0
30.4 0 0
30.48 0 0
30.56 0 0
30.64 0 0
30.72 0 0
30.8 0 0
30.88 0 0
30.96 0 0
31.04 0 0
31.12 0 0
31.2 0 0
31.28 0 0
31.36 0 0
31.44 0 0
31.52 0 0
31.6 0 0
31.68 0 0
31.76 0 0
31.84 0 0
31.92 0 0
0 0.02 0
0.08 0.02 0
0.16 0.02 0
0.24 0.02 0
0.32 0.02 0
0.4 0.02 0
0.48 0.02 0
0.56 0.02 0
0.64 0.02 0
0.72 0.02 0
0.8 0.02 0
0.88 0.02 0
0.96 0.02 0
1.04 0.02 0
1.12 0.02 0
1.2 0.02 0
1.28 0.02 0
1.36 0.02 0
1.44 0.02 0
1.52 0.02 0
1.6 0.02 0
1.68 0.02 0
1.76 0.02 0
1.84 0.02 0
1.92 0.02 0
2 0.02 0
2.08 0.02 0
2.16 0.02 0
2.24 0.02 0
2.32 0.02 0
2.4 0.02 0
2.48 0.02 0
2.56 0.02 0
2.64 0.02 0
2.72 0.02 0
2.8 0.02 0
2.88 0.02 0
2.96 0.02 0
3.04 0.02 0
3.12 0.02 0
3.2 0.02 0
3.28 0.02 0
3.36 0.02 0
3.44 0.02 0
3.52 0.02 0
3.6 0.02 0
3.68 0.02 0
3.76 0.02 0
3.84 0.02 0
3.92 0.02 0
4 0.02 0
4.08 0.02 0
4.16 0.02 0
4.24 0.02 0
4.32 0.02 0
4.4 0.02 0
4.48 0.02 0
4.56 0.02 0
4.64 0.02 0
4.72 0.02 0
4.8 0.02 0
4.88 0.02 0
4.96 0.02 0
5.04 0.02 0
5.12 0.02 0
5.2 0.02 0
5.28 0.02 0
5.36 0.02 0
5.44 0.02 0
5.52 0.02 0
5.6 0.02 0
5.68 0.02 0
5.76 0.02 0
5.84 0.02 0
5.92 0.02 0
6 0.02 0
6.08 0.02 0
6.16 0.02 0
6.24 0.02 0
6.32 0.02 0
6.4 0.02 0
6.48 0.02 0
6.56 0.02 0
6.64 0.02 0
6.72 0.02 0
6.8 0.02 0
6.88 0.02 0
6.96 0.02 0
7.04 0.02 0
7.12 0.02 0
7.2 0.02 0
7.28 0.02 0
7.36 0.02 0
7.44 0.02 0
7.52 0.02 0
7.6 0.02 0
7.68 0.02 0
7.76 0.02 0
7.84 0.02 0
7.92 0.02 0
8 0.02 0
8.08 0.02 0
8.16 0.02 0
8.24 0.02 0
8.32 0.02 0
8.4 0.02 0
8.48 0.02 0
8.56 0.02 0
8.64 0.02 0
8.72 0.02 0
8.8 0.02 0
8.88 0.02 0
8.96 0.02 0
9.04 0.02 0
9.12 0.02 0
9.2 0.02 0
9.28 0.02 0
9.36 0.02 0
9.44 0.02 0
9.52 0.02 0
9.6 0.02 0
9.68 0.02 0
9.76 0.02 0
9.84 0.02 0
9.92 0.02 0
10 0.02 0
10.08 0.02 0
10.16 0.02 0
10.24 0.02 0
10.32 0.02 0
10.4 0.02 0
10.48 0.02 0
10.56 0.02 0
10.64 0.02 0
10.72 0.02 0
10.8 0.02 0
10.88 0.02 0
10.96 0.02 0
11.04 0.02 0
11.12 0.02 0
11.2 0.02 0
11.28 0.02 0
11.36 0.02 0
11.44 0.02 0
11.52 0.02 0
11.6 0.02 0
11.68 0.02 0
11.76 0.02 0
11.84 0.02 0
11.92 0.02 0
12 0.02 0
12.08 0.02 0
12.16 0.02 0
12.24 0.02 0
12.32 0.02 0
12.4 0.02 0
12.48 0.02 0
12.56 0.02 0
12.64 0.02 0
12.72 0.02 0
12.8 0.02 0
12.88 0.02 0
12.96 0.02 0
13.04 0.02 0
13.12 0.02 0
13.2 0.02 0
13.28 0.02 0
13.36 0.02 0
13.44 0.02 0
13.52 0.02 0
13.6 0.02 0
13.68 0.02 0
13.76 0.02 0
13.84 0.02 0
13.92 0.02 0
14 0.02 0
14.08 0.02 0
14.16 0.02 0
14.24 0.02 0
14.32 0.02 0
14.4 0.02 0
14.48 0.02 0
14.56 0.02 0
14.64 0.02 0
14.72 0.02 0
14.8 0.02 0
14.88 0.02 0
14.96 0.02 0
15.04 0.02 0
15.12 0.02 0
15.2 0.02 0
15.28 0.02 0
15.36 0.02 0
15.44 0.02 0
15.52 0.02 0
15.6 0.02 0
15.68 0.02 0
15.76 0.02 0
15.84 0.02 0
15.92 0.02 0
16 0.02 0
16.08 0.02 0
16.16 0.02 0
16.24 0.02 0
16.32 0.02 0
16.4 0.02 0
16.48 0.02 0
16.56 0.02 0
16.64 0.02 0
16.72 0.02 0
16.8 0.02 0
16.88 0.02 0
16.96 0.02 0
17.04 0.02 0
17.12 0.02 0
17.2 0.02 0
17.28 0.02 0
17.36 0.02 0
17.44 0.02 0
17.52 0.02 0
17.6 0.02 0
17.68 0.02 0
17.76 0.02 0
17.84 0.02 0
17.92 0.02 0
18 0.02 0
18.08 0.02 0
18.16 0.02 0
18.24 0.02 0
18.32 0.02 0
18.4 0.02 0
18.48 0.02 0
18.56 0.02 0
18.64 0.02 0
18.72 0.02 0
18.8 0.02 0
18.88 0.02 0
18.96 0.02 0
19.04 0.02 0
19.12 0.02 0
19.2 0.02 0
19.28 0.02 0
19.36 0.02 0
19.44 0.02 0
19.52 0.02 0
19.6 0.02 0
19.68 0.02 0
19.76 0.02 0
19.84 0.02 0
19.92 0.02 0
20 0.02 0
20.08 0.02 0
20.16 0.02 0
20.24 0.02 0
20.32 0.02 0
20.4 0.02 0
20.48 0.02 0
20.56 0.02 0
20.64 0.02 0
20.72 0.02 0
20.8 0.02 0
20.88 0.02 0
20.96 0.02 0
21.04 0.02 0
21.12 0.02 0
21.2 0.02 0
21.28 0.02 0
21.36 0.02 0
21.44 0.02 0
21.52 0.02 0
21.6 0.02 0
21.68 0.02 0
21.76 0.02 0
21.84 0.02 0
21.92 0.02 0
22 0.02 0
22.08 0.02 0
22.16 0.02 0
22.24 0.02 0
22.32 0.02 0
22.4 0.02 0
22.48 0.02 0
22.56 0.02 0
22.64 0.02 0
22.72 0.02 0
22.8 0.02 0
22.88 0.02 0
22.96 0.02 0
23.04 0.02 0
23.12 0.02 0
23.2 0.02 0
23.28 0.02 0
23.36 0.02 0
23.44 0.02 0
23.52 0.02 0
23.6 0.02 0
23.68 0.02 0
23.76 0.02 0
23.84 0.02 0
23.92 0.02 0
24 0.02 0
24.08 0.02 0
24.16 0.02 0
24.24 0.02 0
24.32 0.02 0
24.4 0.02 0
24.48 0.02 0
24.56 0.02 0
24.64 0.02 0
24.72 0.02 0
24.8 0.02 0
24.88 0.02 0
24.96 0.02 0
25.04 0.02 0
25.12 0.02 0
25.2 0.02 0
25.28 0.02 0
25.36 0.02 0
25.44 0.02 0
25.52 0.02 0
25.6 0.02 0
25.68 0.02 0
25.76 0.02 0
25.84 0.02 0
25.92 0.02 0
26 0.02 0
26.08 0.02 0
26.16 0.02 0
26.24 0.02 0
26.32 0.02 0
26.4 0.02 0
26.48 0.02 0
26.56 0.02 0
26.64 0.02 0
26.72 0.02 0
26.8 0.02 0
26.88 0.02 0
26.96 0.02 0
27.04 0.02 0
27.12 0.02 0
27.2 0.02 0
27.28 0.02 0
27.36 0.02 0
27.44 0.02 0
27.52 0.02 0
27.6 0.02 0
27.68 0.02 0
27.76 0.02 0
27.84 0.02 0
27.92 0.02 0
28 0.02 0
28.08 0.02 0
28.16 0.02 0
28.24 0.02 0
28.32 0.02 0
28.4 0.02 0
28.48 0.02 0
28.56 0.02 0
28.64 0.02 0
28.72 0.02 0
28.8 0.02 0
28.88 0.02 0
28.96 0.02 0
29.04 0.02 0
29.12 0.02 0
29.2 0.02 0
29.28 0.02 0
29.36 0.02 0
29.44 0.02 0
29.52 0.02 0
29.6 0.02 0
29.68 0.02 0
29.76 0.02 0
29.84 0.02 0
29.92 0.02 0
30 0.02 0
30.08 0.02 0
30.16 0.02 0
30.24 0.02 0
30.32 0.02 0
30.4 0.02 0
30.48 0.02 0
30.56 0.02 0
30.64 0.02 0
30.72 0.02 0
30.8 0.02 0
30.88 0.02 0
30.96 0.02 0
31.04 0.02 0
31.12 0.02 0
31.2 0.02 0
31.28 0.02 0
31.36 0.02 0
31.44 0.02 0
31.52 0.02 0
31.6 0.02 0
31.68 0.02 0
31.76 0.02 0
31.84 0.02 0
31.92 0.02 0
0 0.04 0
0.08 0.04 0
0.16 0.04 0
0.24 0.04 0
0.32 0.04 0
0.4 0.04 0
0.48 0.04 0
0.56 0.04 0
0.64 0.04 0
0.72 0.04 0
0.8 0.04 0
0.88 0.04 0
0.96 0.04 0
1.04 0.04 0
1.12 0.04 0
1.2 0.04 0
1.28 0.04 0
1.36 0.04 0
1.44 0.04 0
1.52 0.04 0
1.6 0.04 0
1.68 0.04 0
1.76 0.04 0
1.84 0.04 0
1.92 0.04 0
2 0.04 0
2.08 0.04 0
2.16 0.04 0
2.24 0.04 0
2.32 0.04 0
2.4 0.04 0
2.48 0.04 0
2.56 0.04 0
2.64 0.04 0
2.72 0.04 0
2.8 0.04 0
2.88 0.04 0
2.96 0.04 0
3.04 0.04 0
3.12 0.04 0
3.2 0.04 0
3.28 0.04 0
3.36 0.04 0
3.44 0.04 0
3.52 0.04 0
3.6 0.04 0
3.68 0.04 0
3.76 0.04 0
3.84 0.04 0
3.92 0.04 0
4 0.04 0
4.08 0.04 0
4.16 0.04 0
4.24 0.04 0
4.32 0.04 0
4.4 0.04 0
4.48 0.04 0
4.56 0.04 0
4.64 0.04 0
4.72 0.04 0
4.8 0.04 0
4.88 0.04 0
4.96 0.04 0
5.04 0.04 0
5.12 0.04 0
5.2 0.04 0
5.28 0.04 0
5.36 0.04 0
5.44 0.04 0
5.52 0.04 0
5.6 0.04 0
5.68 0.04 0
5.76 0.04 0
5.84 0.04 0
5.92 0.04 0
6 0.04 0
6.08 0.04 0
6.16 0.04 0
6.24 0.04 0
6.32 0.04 0
6.4 0.04 0
6.48 0.04 0
6.56 0.04 0
6.64 0.04 0
6.72 0.04 0
6.8 0.04 0
6.88 0.04 0
6.96 0.04 0
7.04 0.04 0
7.12 0.04 0
7.2 0.04 0
7.28 0.04 0
7.36 0.04 0
7.44 0.04 0
7.52 0.04 0
7.6 0.04 0
7.68 0.04 0
7.76 0.04 0
7.84 0.04 0
[...]
POINT_DATA 20000

SCALARS u float 1
LOOKUP_TABLE default
0
-0.50708
-0.291906
-0.214144
-0.179007
-0.158644
-0.145088
-0.135335
-0.127942
-0.122113
-0.117374
-0.113422
-0.110057
-0.107144
-0.104585
-0.102311
-0.100271
-0.0984255
-0.0967454
-0.0952066
-0.0937903
-0.0924812
-0.0912666
-0.0901358
-0.0890799
-0.0880912
-0.0871633
-0.0862902
-0.0854672
-0.0846897
-0.0839539
-0.0832565
-0.0825943
-0.0819647
-0.0813652
-0.0807936
-0.080248
-0.0797265
-0.0792276
-0.0787498
-0.0782917
-0.0778521
-0.07743
-0.0770242
-0.0766338
-0.0762579
-0.0758957
-0.0755466
-0.0752097
-0.0748845
-0.0745704
-0.0742668
-0.0739732
-0.0736891
-0.0734141
-0.0731477
-0.0728896
-0.0726394
-0.0723968
-0.0721614
-0.071933
-0.0717113
-0.071496
-0.0712869
-0.0710836
-0.0708859
-0.0706938
-0.0705068
-0.070325
-0.070148
-0.0699758
-0.0698081
-0.0696448
-0.0694857
-0.0693306
-0.0691794
-0.0690321
-0.0688885
-0.0687485
-0.068612
-0.068479
-0.0683492
-0.0682225
-0.0680989
-0.0679782
-0.0678604
-0.0677454
-0.0676332
-0.0675235
-0.0674165
-0.067312
-0.0672099
-0.0671102
-0.0670126
-0.0669171
-0.0668238
-0.0667326
-0.0666436
-0.0665566
-0.0664716
-0.0663886
-0.0663074
-0.0662279
-0.0661501
-0.0660739
-0.0659995
-0.0659267
-0.0658555
-0.0657859
-0.0657179
-0.0656514
-0.0655863
-0.0655225
-0.06546
-0.0653988
-0.0653388
-0.0652802
-0.0652231
-0.0651673
-0.0651128
-0.0650595
-0.0650073
-0.064956
-0.0649058
-0.0648566
-0.0648086
-0.0647617
-0.0647161
-0.0646716
-0.0646282
-0.0645857
-0.0645442
-0.0645036
-0.0644639
-0.0644252
-0.0643875
-0.064351
-0.0643159
-0.064282
-0.0642493
-0.0642174
-0.0641864
-0.064156
-0.0641266
-0.0640982
-0.0640712
-0.0640456
-0.0640213
-0.0639982
-0.0639758
-0.0639541
-0.0639331
-0.063913
-0.063894
-0.0638764
-0.0638601
-0.0638451
-0.0638311
-0.0638178
-0.0638051
-0.063793
-0.0637817
-0.0637714
-0.0637621
-0.063754
-0.0637467
-0.0637402
-0.0637343
-0.0637288
-0.0637238
-0.0637194
-0.0637157
-0.0637128
-0.0637105
-0.063709
-0.0637079
-0.0637073
-0.063707
-0.0637071
-0.0637076
-0.0637084
-0.0637097
-0.0637114
-0.0637134
-0.0637157
-0.0637183
-0.063721
-0.0637239
-0.0637269
-0.0637302
-0.0637336
-0.0637372
-0.063741
-0.063745
-0.063749
-0.0637531
-0.0637573
-0.0637615
-0.0637657
-0.0637699
-0.0637742
-0.0637785
-0.0637828
-0.0637872
-0.0637916
-0.063796
-0.0638003
-0.0638047
-0.0638091
-0.0638135
-0.0638178
-0.0638222
-0.0638265
-0.0638309
-0.0638352
-0.0638395
-0.0638439
-0.0638482
-0.0638525
-0.0638568
-0.0638611
-0.0638654
-0.0638697
-0.063874
-0.0638783
-0.0638825
-0.0638868
-0.0638911
-0.0638953
-0.0638996
-0.0639038
-0.0639081
-0.0639123
-0.0639165
-0.0639208
-0.063925
-0.0639292
-0.0639334
-0.0639376
-0.0639418
-0.063946
-0.0639502
-0.0639543
-0.0639585
-0.0639627
-0.0639668
-0.063971
-0.0639751
-0.0639793
-0.0639834
-0.0639876
-0.0639917
-0.0639958
-0.0639999
-0.0640041
-0.0640082
-0.0640123
-0.0640164
-0.0640205
-0.0640245
-0.0640286
-0.0640327
-0.0640368
-0.0640408
-0.0640449
-0.064049
-0.064053
-0.0640571
-0.0640611
-0.0640651
-0.0640692
-0.0640732
-0.0640772
-0.0640812
-0.0640853
-0.0640893
-0.0640933
-0.0640973
-0.0641013
-0.0641053
-0.0641092
-0.0641132
-0.0641172
-0.0641212
-0.0641252
-0.0641291
-0.0641331
-0.064137
-0.064141
-0.0641449
-0.0641489
-0.0641528
-0.0641568
-0.0641607
-0.0641646
-0.0641685
-0.0641725
-0.0641764
-0.0641803
-0.0641842
-0.0641881
-0.064192
-0.0641959
-0.0641998
-0.0642037
-0.0642076
-0.0642115
-0.0642153
-0.0642192
-0.0642231
-0.064227
-0.0642308
-0.0642347
-0.0642386
-0.0642424
-0.0642463
-0.0642501
-0.064254
-0.0642578
-0.0642617
-0.0642655
-0.0642694
-0.0642732
-0.064277
-0.0642809
-0.0642847
-0.0642885
-0.0642923
-0.0642961
-0.0643
-0.0643038
-0.0643076
-0.0643114
-0.0643152
-0.064319
-0.0643228
-0.0643266
-0.0643304
-0.0643342
-0.064338
-0.0643418
-0.0643456
-0.0643494
-0.0643532
-0.064357
-0.0643608
-0.0643645
-0.0643683
-0.0643721
-0.0643759
-0.0643797
-0.0643835
-0.0643872
-0.064391
-0.0643948
-0.0643986
-0.0644023
-0.0644061
-0.0644099
-0.0644136
-0.0644174
-0.0644212
-0.0644249
-0.0644287
-0.0644325
-0.0644363
-0.06444
-0.0644438
-0.0644475
-0.0644513
-0.0644551
-0.0644589
-0.0644626
-0.0644664
-0.0644702
-0.064474
-0.0644777
-0.0644816
-0.0644853
-0.0644892
-0.0644929
-0.0644968
-0.0645005
-0.0645044
-0.0645081
-0.0645121
-0.0645158
-0.0645199
-0.0645235
-0.0645277
-0.0645312
-0.0645355
-0.064539
-0.0645432
-0.0645468
-0.0645502
-0.0645541
-0.064552
-0.064552
-0.064552
1
0.50708
0.291906
0.214144
0.179007
0.158644
0.145088
0.135335
0.127942
0.122113
0.117374
0.113422
0.110057
0.107144
0.104585
0.102311
0.100271
0.0984255
0.0967454
0.0952066
0.0937903
0.0924812
0.0912666
0.0901358
0.0890799
0.0880912
0.0871633
0.0862902
0.0854672
0.0846897
0.0839539
0.0832565
0.0825943
0.0819647
0.0813652
0.0807936
0.080248
0.0797265
0.0792276
0.0787498
0.0782917
0.0778521
0.07743
0.0770242
0.0766338
0.0762579
0.0758957
0.0755466
0.0752097
0.0748845
0.0745704
0.0742668
0.0739732
0.0736891
0.0734141
0.0731477
0.0728896
0.0726394
0.0723968
0.0721614
0.071933
0.0717113
0.071496
0.0712869
0.0710836
0.0708859
0.0706938
0.0705068
0.070325
0.070148
0.0699758
0.0698081
0.0696448
0.0694857
0.0693306
0.0691794
0.0690321
0.0688885
0.0687485
0.068612
0.068479
0.0683492
0.0682225
0.0680989
0.0679782
0.0678604
0.0677454
0.0676332
0.0675235
0.0674165
0.067312
0.0672099
0.0671102
0.0670126
0.0669171
0.0668238
0.0667326
0.0666436
0.0665566
0.0664716
0.0663886
0.0663074
0.0662279
0.0661501
0.0660739
0.0659995
0.0659267
0.0658555
0.0657859
0.0657179
0.0656514
0.0655863
0.0655225
0.06546
0.0653988
0.0653388
0.0652802
0.0652231
0.0651673
0.0651128
0.0650595
0.0650073
0.064956
0.0649058
0.0648566
0.0648086
0.0647617
0.0647161
0.0646716
0.0646282
0.0645857
0.0645442
0.0645036
0.0644639
0.0644252
0.0643875
0.064351
0.0643159
0.064282
0.0642493
0.0642174
0.0641864
0.064156
0.0641266
0.0640982
0.0640712
0.0640456
0.0640213
0.0639982
0.0639758
0.0639541
0.0639331
0.063913
0.063894
0.0638764
0.0638601
0.0638451
0.0638311
0.0638178
0.0638051
0.063793
0.0637817
0.0637714
0.0637621
0.063754
0.0637467
0.0637402
0.0637343
0.0637288
0.0637238
0.0637194
0.0637157
0.0637128
0.0637105
0.063709
0.0637079
0.0637073
0.063707
0.0637071
0.0637076
0.0637084
0.0637097
0.0637114
0.0637134
0.0637157
0.0637183
0.063721
0.0637239
0.0637269
0.0637302
0.0637336
0.0637372
0.063741
0.063745
0.063749
0.0637531
0.0637573
0.0637615
0.0637657
0.0637699
0.0637742
0.0637785
0.0637828
0.0637872
0.0637916
0.063796
0.0638003
0.0638047
0.0638091
0.0638135
0.0638178
0.0638222
0.0638265
0.0638309
0.0638352
0.0638395
0.0638439
0.0638482
0.0638525
0.0638568
0.0638611
0.0638654
0.0638697
0.063874
0.0638783
0.0638825
0.0638868
0.0638911
0.0638953
0.0638996
0.0639038
0.0639081
0.0639123
0.0639165
0.0639208
0.063925
0.0639292
0.0639334
0.0639376
0.0639418
0.063946
0.0639502
0.0639543
0.0639585
0.0639627
0.0639668
0.063971
0.0639751
0.0639793
0.0639834
0.0639876
0.0639917
0.0639958
0.0639999
0.0640041
0.0640082
0.0640123
0.0640164
0.0640205
0.0640245
0.0640286
0.0640327
0.0640368
0.0640408
0.0640449
0.064049
0.064053
0.0640571
0.0640611
0.0640651
0.0640692
0.0640732
0.0640772
0.0640812
0.0640853
0.0640893
0.0640933
0.0640973
0.0641013
0.0641053
0.0641092
0.0641132
0.0641172
0.0641212
0.0641252
0.0641291
0.0641331
0.064137
0.064141
0.0641449
0.0641489
0.0641528
0.0641568
0.0641607
0.0641646
0.0641685
0.0641725
0.0641764
0.0641803
0.0641842
0.0641881
0.064192
0.0641959
0.0641998
0.0642037
0.0642076
0.0642115
0.0642153
0.0642192
0.0642231
0.064227
0.0642308
0.0642347
0.0642386
0.0642424
0.0642463
0.0642501
0.064254
0.0642578
0.0642617
0.0642655
0.0642694
0.0642732
0.064277
0.0642809
0.0642847
0.0642885
0.0642923
0.0642961
0.0643
0.0643038
0.0643076
0.0643114
0.0643152
0.064319
0.0643228
0.0643266
0.0643304
0.0643342
0.064338
0.0643418
0.0643456
0.0643494
0.0643532
0.064357
0.0643608
0.0643645
0.0643683
0.0643721
0.0643759
0.0643797
0.0643835
0.0643872
0.064391
0.0643948
0.0643986
0.0644023
0.0644061
0.0644099
0.0644136
0.0644174
0.0644212
0.0644249
0.0644287
0.0644325
0.0644363
0.06444
0.0644438
0.0644475
0.0644513
0.0644551
0.0644589
0.0644626
0.0644664
0.0644702
0.064474
0.0644777
0.0644816
0.0644853
0.0644892
0.0644929
0.0644968
0.0645005
0.0645044
0.0645081
0.0645121
0.0645158
0.0645199
0.0645235
0.0645277
0.0645312
0.0645355
0.064539
0.0645432
0.0645468
0.0645502
0.0645541
0.064552
0.064552
0.064552
1
0.924281
0.735421
0.597517
0.511616
0.456295
0.418129
0.390221
0.368885
0.351996
0.338244
0.326782
0.317038
0.308618
0.30124
0.2947
0.288846
0.283562
0.27876
0.274369
0.270334
0.266608
0.263155
0.259944
0.256948
0.254144
0.251514
0.249042
0.246712
0.244512
0.24243
0.240459
0.238587
0.236808
0.235115
0.233501
0.23196
0.230489
0.229081
0.227733
0.226441
0.225202
0.224012
0.222868
0.221768
0.220709
0.219688
0.218705
0.217756
0.216841
0.215957
0.215102
0.214276
0.213477
0.212703
0.211954
0.211228
0.210525
0.209843
0.209181
0.208539
0.207916
0.207311
0.206724
0.206153
0.205598
0.205058
0.204533
0.204023
0.203526
0.203043
0.202572
0.202114
0.201668
0.201233
0.200809
0.200396
0.199993
0.199601
0.199218
0.198845
0.198481
0.198126
0.19778
0.197442
0.197112
0.19679
0.196475
0.196168
0.195868
0.195576
0.19529
0.19501
0.194737
0.19447
0.194208
0.193953
0.193704
0.193461
0.193223
0.19299
0.192763
0.19254
0.192322
0.192109
0.191901
0.191697
0.191498
0.191303
0.191113
0.190926
0.190744
0.190565
0.19039
0.190219
0.190051
0.189888
0.189728
0.189572
0.189419
0.18927
0.189124
0.18898
0.18884
0.188703
0.188569
0.188439
0.188311
0.188187
0.188066
0.187948
0.187833
0.18772
0.18761
0.187503
0.1874
0.187299
0.187203
0.187109
0.187019
0.186931
0.186846
0.186763
0.186683
0.186607
0.186534
0.186465
0.186399
0.186336
0.186275
0.186217
0.186161
0.186108
0.186058
0.186012
0.185969
0.185929
0.185892
0.185856
0.185823
0.185792
0.185763
0.185737
0.185714
0.185693
0.185675
0.185658
0.185643
0.185629
0.185617
0.185607
0.185599
0.185592
0.185588
0.185585
0.185583
0.185582
0.185582
0.185584
0.185586
0.185589
0.185594
0.185599
0.185606
0.185613
0.18562
0.185628
0.185637
0.185646
0.185655
0.185665
0.185675
0.185686
0.185697
0.185708
0.18572
0.185731
0.185743
0.185754
0.185766
0.185778
0.18579
0.185802
0.185814
0.185826
0.185838
0.18585
0.185862
0.185874
0.185887
0.185899
0.185911
0.185923
0.185935
0.185947
0.185959
0.185971
0.185983
0.185995
0.186007
0.186019
0.186031
0.186043
0.186055
0.186067
0.186079
0.186091
0.186103
0.186115
0.186126
0.186138
0.18615
0.186162
0.186174
0.186186
0.186198
0.18621
0.186222
0.186234
0.186245
0.186257
0.186269
0.186281
0.186293
0.186305
0.186316
0.186328
0.18634
0.186352
0.186364
0.186375
0.186387
0.186399
0.186411
0.186422
0.186434
0.186446
0.186458
0.186469
0.186481
0.186493
0.186505
0.186516
0.186528
0.18654
0.186551
0.186563
0.186575
0.186587
0.186598
0.18661
0.186622
0.186633
0.186645
0.186657
0.186668
0.18668
0.186691
0.186703
0.186715
0.186726
0.186738
0.18675
0.186761
0.186773
0.186784
0.186796
0.186807
0.186819
0.186831
0.186842
0.186854
0.186865
0.186877
0.186888
0.1869
0.186912
0.186923
0.186935
0.186946
0.186958
0.186969
0.186981
0.186992
0.187004
0.187015
0.187027
0.187038
0.18705
0.187061
0.187073
0.187084
0.187096
0.187107
0.187119
0.18713
0.187142
0.187153
0.187165
0.187176
0.187188
0.187199
0.187211
0.187222
0.187234
0.187245
0.187257
0.187268
0.18728
0.187291
0.187302
0.187314
0.187325
0.187337
0.187348
0.18736
0.187371
0.187383
0.187394
0.187405
0.187417
0.187428
0.18744
0.187451
0.187463
0.187474
0.187486
0.187497
0.187508
0.18752
0.187531
0.187543
0.187554
0.187566
0.187577
0.187588
0.1876
0.187611
0.187623
0.187634
0.187646
0.187657
0.187668
0.18768
0.187691
0.187703
0.187714
0.187726
0.187737
0.187749
0.18776
0.187772
0.187783
0.187795
0.187806
0.187818
0.187829
0.187841
0.187852
0.187864
0.187875
0.187887
0.187898
0.18791
0.187921
0.187933
0.187945
0.187957
0.187968
0.18798
0.187991
0.188004
0.188015
0.188028
0.188039
0.18805
0.188061
0.188062
0.188062
0.188062
1
1.07969
0.997041
0.88361
0.788645
0.716852
0.66298
0.621758
0.589407
0.563387
0.541988
0.52404
0.508727
0.495465
0.483832
0.473516
0.464281
0.455947
0.448374
0.441451
0.435091
0.429221
0.423781
0.418722
0.414003
0.409588
0.405447
0.401554
0.397886
0.394422
0.391146
0.388042
0.385096
0.382296
0.379631
0.377091
0.374667
0.372351
0.370135
0.368015
0.365982
0.364032
0.36216
0.36036
0.35863
0.356964
0.355359
0.353813
0.352321
0.350881
0.349491
0.348148
0.346849
0.345592
0.344376
0.343199
0.342059
0.340953
0.339882
0.338843
0.337835
0.336856
0.335906
0.334983
0.334086
0.333215
0.332368
0.331544
0.330743
0.329963
0.329204
0.328466
0.327747
0.327046
0.326364
0.325699
0.325052
0.32442
0.323805
0.323205
0.322621
0.32205
0.321494
0.320951
0.320421
0.319904
0.319399
0.318906
0.318425
0.317956
0.317497
0.317049
0.316611
0.316183
0.315765
0.315356
0.314957
0.314567
0.314186
0.313813
0.313449
0.313093
0.312744
0.312403
0.31207
0.311744
0.311425
0.311113
0.310808
0.31051
0.310218
0.309933
0.309653
0.309379
0.309111
0.30885
0.308594
0.308344
0.308099
0.307861
0.307627
0.307398
0.307174
0.306955
0.306741
0.306532
0.306328
0.30613
0.305936
0.305747
0.305563
0.305383
0.305208
0.305037
0.304872
0.304711
0.304556
0.304406
0.304261
0.304121
0.303985
0.303853
0.303726
0.303603
0.303486
0.303374
0.303268
0.303167
0.30307
0.302977
0.302888
0.302803
0.302722
0.302647
0.302577
0.302513
0.302452
0.302396
0.302342
0.302292
0.302246
0.302203
0.302165
0.30213
0.302099
0.302072
0.302047
0.302025
0.302006
0.301988
0.301974
0.301962
0.301954
0.301947
0.301943
0.301941
0.301941
0.301942
0.301945
0.30195
0.301956
0.301963
0.301972
0.301982
0.301993
0.302005
0.302018
0.302031
0.302045
0.30206
0.302076
0.302092
0.302108
0.302125
0.302143
0.30216
0.302178
0.302196
0.302214
0.302232
0.30225
0.302268
0.302287
0.302305
0.302324
0.302342
0.302361
0.302379
0.302398
0.302417
0.302435
0.302454
0.302472
0.302491
0.302509
0.302528
0.302546
0.302565
0.302583
0.302602
0.30262
0.302639
0.302657
0.302676
0.302694
0.302712
0.302731
0.302749
0.302768
0.302786
0.302805
0.302823
0.302842
0.30286
0.302878
0.302897
0.302915
0.302934
0.302952
0.30297
0.302989
0.303007
0.303026
0.303044
0.303062
0.303081
0.303099
0.303117
0.303136
0.303154
0.303172
0.303191
0.303209
0.303228
0.303246
0.303264
0.303283
0.303301
0.303319
0.303338
0.303356
0.303374
0.303392
0.303411
0.303429
0.303447
0.303466
0.303484
0.303502
0.303521
0.303539
0.303557
0.303575
0.303594
0.303612
0.30363
0.303649
0.303667
0.303685
0.303703
0.303722
0.30374
0.303758
0.303776
0.303795
0.303813
0.303831
0.303849
0.303868
0.303886
0.303904
0.303922
0.303941
0.303959
0.303977
0.303995
0.304014
0.304032
0.30405
0.304068
0.304086
0.304105
0.304123
0.304141
0.304159
0.304178
0.304196
0.304214
0.304232
0.30425
0.304269
0.304287
0.304305
0.304323
0.304342
0.30436
0.304378
0.304396
0.304414
0.304433
0.304451
0.304469
0.304487
0.304506
0.304524
0.304542
0.30456
0.304578
0.304597
0.304615
0.304633
0.304651
0.304669
0.304688
0.304706
0.304724
0.304742
0.304761
0.304779
0.304797
0.304815
0.304833
0.304852
0.30487
0.304888
0.304906
0.304925
0.304943
0.304961
0.304979
0.304998
0.305016
0.305034
0.305052
0.30507
0.305089
0.305107
0.305125
0.305143
0.305162
0.30518
0.305198
0.305216
0.305235
0.305253
0.305271
0.305289
0.305308
0.305326
0.305344
0.305363
0.305381
0.305399
0.305418
0.305436
0.305454
0.305472
0.305491
0.305509
0.305528
0.305546
0.305565
0.305583
0.305602
0.30562
0.305639
0.305657
0.305676
0.305694
0.305714
0.305732
0.305752
0.30577
0.305789
0.305807
0.305825
0.305843
0.305852
0.305852
0.305852
1
1.11177
1.11435
1.05553
0.984321
0.918972
0.863727
0.818133
0.780552
0.749318
0.72305
0.700672
0.681366
0.664513
0.649644
0.636402
0.624509
0.61375
0.603955
0.594987
0.586737
0.579113
0.572043
0.565462
0.559318
0.553566
0.548167
0.543089
0.538301
0.533779
0.5295
0.525443
0.521592
0.51793
0.514444
0.51112
0.507948
0.504916
0.502016
0.499239
0.496576
0.494022
0.491569
0.489211
0.486943
0.48476
0.482657
0.48063
0.478674
0.476787
0.474964
0.473203
0.4715
0.469852
0.468258
0.466715
0.465219
0.46377
0.462366
0.461003
0.459682
0.458399
0.457154
0.455944
0.454769
0.453626
0.452516
0.451436
0.450386
0.449365
0.448371
0.447403
0.446461
0.445543
0.44465
0.443779
0.442931
0.442104
0.441299
0.440514
0.439748
0.439001
0.438273
0.437562
0.436869
0.436192
0.435531
0.434887
0.434257
0.433643
0.433043
0.432457
0.431884
0.431325
0.430778
0.430243
0.429721
0.429211
0.428713
0.428226
0.42775
0.427284
0.426829
0.426383
0.425947
0.425521
0.425105
0.424697
0.424299
0.423909
0.423528
0.423154
0.422789
0.422432
0.422082
0.42174
0.421406
0.421079
0.42076
0.420448
0.420143
0.419844
0.419551
0.419266
0.418986
0.418714
0.418448
0.418189
0.417937
0.41769
0.41745
0.417216
0.416988
0.416767
0.416551
0.416343
0.416141
0.415947
0.415758
0.415576
0.4154
0.41523
0.415065
0.414907
0.414755
0.414611
0.414473
0.414342
0.414217
0.414097
0.413983
0.413874
0.413771
0.413675
0.413585
0.413502
0.413425
0.413352
0.413284
0.41322
0.413161
0.413107
0.413058
0.413014
0.412975
0.41294
0.412909
0.412881
0.412856
0.412835
0.412817
0.412803
0.412792
0.412785
0.41278
0.412778
0.412778
0.41278
0.412784
0.41279
0.412798
0.412807
0.412819
0.412832
0.412846
0.412862
0.412878
0.412895
0.412913
0.412932
0.412952
0.412973
0.412994
0.413016
0.413038
0.41306
0.413082
0.413105
0.413128
0.413151
0.413174
0.413197
0.413221
0.413244
0.413267
0.413291
0.413314
0.413338
0.413362
0.413385
0.413408
0.413432
0.413455
0.413479
0.413502
0.413526
0.413549
0.413573
0.413597
0.41362
0.413644
0.413667
0.413691
0.413714
0.413738
0.413761
0.413784
0.413808
0.413831
0.413855
0.413878
0.413902
0.413925
0.413949
0.413972
0.413996
0.414019
0.414043
0.414066
0.41409
0.414113
0.414137
0.41416
0.414184
0.414207
0.414231
0.414254
0.414278
0.414301
0.414324
0.414348
0.414371
0.414395
0.414418
0.414442
0.414465
0.414489
0.414512
0.414536
0.414559
0.414583
0.414606
0.414629
0.414653
0.414676
0.4147
0.414723
0.414747
0.41477
0.414794
0.414817
0.414841
0.414864
0.414887
0.414911
0.414934
0.414958
0.414981
0.415005
0.415028
0.415052
0.415075
0.415099
0.415122
0.415145
0.415169
0.415192
0.415216
0.415239
0.415263
0.415286
0.41531
0.415333
0.415357
0.41538
0.415404
0.415427
0.415451
0.415474
0.415497
0.415521
0.415544
0.415568
0.415591
0.415615
0.415638
0.415662
0.415685
0.415709
0.415732
0.415756
0.415779
0.415803
0.415826
0.41585
0.415873
0.415897
0.41592
0.415944
0.415967
0.415991
0.416014
0.416038
0.416061
0.416085
0.416108
0.416132
0.416155
0.416179
0.416202
0.416226
0.416249
0.416273
0.416296
0.41632
0.416343
0.416367
0.416391
0.416414
0.416438
0.416461
0.416485
0.416508
0.416532
0.416555
0.416579
0.416602
0.416626
0.41665
0.416673
0.416697
0.41672
0.416744
0.416767
0.416791
0.416815
0.416838
0.416862
0.416885
0.416909
0.416932
0.416956
0.41698
0.417003
0.417027
0.417051
0.417074
0.417098
0.417121
0.417145
0.417169
0.417192
0.417216
0.41724
0.417263
0.417287
0.417311
0.417335
0.417358
0.417382
0.417406
0.41743
0.417453
0.417478
0.417501
0.417526
0.417549
0.417574
0.417597
0.417623
0.417646
0.417672
0.417694
0.41772
0.417743
0.417767
0.417789
0.417808
0.417808
0.417808
1
1.09592
1.14365
1.13399
1.09765
1.05328
1.00935
0.969138
0.933534
0.902398
0.875228
0.851442
0.830497
0.811928
0.795348
0.780441
0.766953
0.754678
0.743445
0.733119
0.723585
0.71475
0.706532
0.698866
0.691695
0.684969
0.678645
0.672688
0.667064
0.661745
0.656706
0.651924
0.64738
0.643056
0.638935
0.635004
0.631249
0.627659
0.624222
0.620929
0.617771
0.614739
0.611827
0.609026
0.606332
0.603737
0.601237
0.598826
0.596499
0.594254
0.592084
0.589987
0.58796
0.585998
0.5841
0.582261
0.58048
0.578754
0.57708
0.575457
0.573882
0.572353
0.570869
0.569427
0.568026
0.566665
0.565341
0.564054
0.562803
0.561585
0.5604
0.559247
0.558124
0.55703
0.555965
0.554928
0.553917
0.552932
0.551973
0.551037
0.550125
0.549235
0.548368
0.547521
0.546695
0.545889
0.545103
0.544335
0.543586
0.542854
0.54214
0.541442
0.54076
0.540094
0.539443
0.538808
0.538187
0.53758
0.536987
0.536408
0.535841
0.535287
0.534745
0.534215
0.533697
0.53319
0.532694
0.53221
0.531736
0.531272
0.530819
0.530375
0.529941
0.529516
0.5291
0.528693
0.528296
0.527908
0.527529