# vtk DataFile Version 2.0
FlowField
ASCII
DATASET STRUCTURED_GRID
DIMENSIONS 400 1 50
POINTS 20000 float
0 0 0
0.08 0 0
0.16 0 0
0.24 0 0
0.32 0 0
0.4 0 0
0.48 0 0
0.56 0 0
0.64 0 0
0.72 0 0
0.8 0 0
0.88 0 0
0.96 0 0
1.04 0 0
1.12 0 0
1.2 0 0
1.28 0 0
1.36 0 0
1.44 0 0
1.52 0 0
1.6 0 0
1.68 0 0
1.76 0 0
1.84 0 0
1.92 0 0
2 0 0
2.08 0 0
2.16 0 0
2.24 0 0
2.32 0 0
2.4 0 0
2.48 0 0
2.56 0 0
2.64 0 0
2.72 0 0
2.8 0 0
2.88 0 0
2.96 0 0
3.04 0 0
3.12 0 0
3.2 0 0
3.28 0 0
3.36 0 0
3.44 0 0
3.52 0 0
3.6 0 0
3.68 0 0
3.76 0 0
3.84 0 0
3.92 0 0
4 0 0
4.08 0 0
4.16 0 0
4.24 0 0
4.32 0 0
4.4 0 0
4.48 0 0
4.56 0 0
4.64 0 0
4.72 0 0
4.8 0 0
4.88 0 0
4.96 0 0
5.04 0 0
5.12 0 0
5.2 0 0
5.28 0 0
5.36 0 0
5.44 0 0
5.52 0 0
5.6 0 0
5.68 0 0
5.76 0 0
5.84 0 0
5.92 0 0
6 0 0
6.08 0 0
6.16 0 0
6.24 0 0
6.32 0 0
6.4 0 0
6.48 0 0
6.56 0 0
6.64 0 0
6.72 0 0
6.8 0 0
6.88 0 0
6.96 0 0
7.04 0 0
7.12 0 0
7.2 0 0
7.28 0 0
7.36 0 0
7.44 0 0
7.52 0 0
7.6 0 0
7.68 0 0
7.76 0 0
7.84 0 0
7.92 0 0
8 0 0
8.08 0 0
8.16 0 0
8.24 0 0
8.32 0 0
8.4 0 0
8.48 0 0
8.56 0 0
8.64 0 0
8.72 0 0
8.8 0 0
8.88 0 0
8.96 0 0
9.04 0 0
9.12 0 0
9.2 0 0
9.28 0 0
9.36 0 0
9.44 0 0
9.52 0 0
9.6 0 0
9.68 0 0
9.76 0 0
9.84 0 0
9.92 0 0
10 0 0
10.08 0 0
10.16 0 0
10.24 0 0
10.32 0 0
10.4 0 0
10.48 0 0
10.56 0 0
10.64 0 0
10.72 0 0
10.8 0 0
10.88 0 0
10.96 0 0
11.04 0 0
11.12 0 0
11.2 0 0
11.28 0 0
11.36 0 0
11.44 0 0
11.52 0 0
11.6 0 0
11.68 0 0
11.76 0 0
11.84 0 0
11.92 0 0
12 0 0
12.08 0 0
12.16 0 0
12.24 0 0
12.32 0 0
12.4 0 0
12.48 0 0
12.56 0 0
12.64 0 0
12.72 0 0
12.8 0 0
12.88 0 0
12.96 0 0
13.04 0 0
13.12 0 0
13.2 0 0
13.28 0 0
13.36 0 0
13.44 0 0
13.52 0 0
13.6 0 0
13.68 0 0
13.76 0 0
13.84 0 0
13.92 0 0
14 0 0
14.08 0 0
14.16 0 0
14.24 0 0
14.32 0 0
14.4 0 0
14.48 0 0
14.56 0 0
14.64 0 0
14.72 0 0
14.8 0 0
14.88 0 0
14.96 0 0
15.04 0 0
15.12 0 0
15.2 0 0
15.28 0 0
15.36 0 0
15.44 0 0
15.52 0 0
15.6 0 0
15.68 0 0
15.76 0 0
15.84 0 0
15.92 0 0
16 0 0
16.08 0 0
16.16 0 0
16.24 0 0
16.32 0 0
16.4 0 0
16.48 0 0
16.56 0 0
16.64 0 0
16.72 0 0
16.8 0 0
16.88 0 0
16.96 0 0
17.04 0 0
17.12 0 0
17.2 0 0
17.28 0 0
17.36 0 0
17.44 0 0
17.52 0 0
17.6 0 0
17.68 0 0
17.76 0 0
17.84 0 0
17.92 0 0
18 0 0
18.08 0 0
18.16 0 0
18.24 0 0
18.32 0 0
18.4 0 0
18.48 0 0
18.56 0 0
18.64 0 0
18.72 0 0
18.8 0 0
18.88 0 0
18.96 0 0
19.04 0 0
19.12 0 0
19.2 0 0
19.28 0 0
19.36 0 0
19.44 0 0
19.52 0 0
19.6 0 0
19.68 0 0
19.76 0 0
19.84 0 0
19.92 0 0
20 0 0
20.08 0 0
20.16 0 0
20.24 0 0
20.32 0 0
20.4 0 0
20.48 0 0
20.56 0 0
20.64 0 0
20.72 0 0
20.8 0 0
20.88 0 0
20.96 0 0
21.04 0 0
21.12 0 0
21.2 0 0
21.28 0 0
21.36 0 0
21.44 0 0
21.52 0 0
21.6 0 0
21.68 0 0
21.76 0 0
21.84 0 0
21.92 0 0
22 0 0
22.08 0 0
22.16 0 0
22.24 0 0
22.32 0 0
22.4 0 0
22.48 0 0
22.56 0 0
22.64 0 0
22.72 0 0
22.8 0 0
22.88 0 0
22.96 0 0
23.04 0 0
23.12 0 0
23.2 0 0
23.28 0 0
23.36 0 0
23.44 0 0
23.52 0 0
23.6 0 0
23.68 0 0
23.76 0 0
23.84 0 0
23.92 0 0
24 0 0
24.08 0 0
24.16 0 0
24.24 0 0
24.32 0 0
24.4 0 0
24.48 0 0
24.56 0 0
24.64 0 0
24.72 0 0
24.8 0 0
24.88 0 0
24.96 0 0
25.04 0 0
25.12 0 0
25.2 0 0
25.28 0 0
25.36 0 0
25.44 0 0
25.52 0 0
25.6 0 0
25.68 0 0
25.76 0 0
25.84 0 0
25.92 0 0
26 0 0
26.08 0 0
26.16 0 0
26.24 0 0
26.32 0 0
26.4 0 0
26.48 0 0
26.56 0 0
26.64 0 0
26.72 0 0
26.8 0 0
26.88 0 0
26.96 0 0
27.04 0 0
27.12 0 0
27.2 0 0
27.28 0 0
27.36 0 0
27.44 0 0
27.52 0 0
27.6 0 0
27.68 0 0
27.76 0 0
27.84 0 0
27.92 0 0
28 0 0
28.08 0 0
28.16 0 0
28.24 0 0
28.32 0 0
28.4 0 0
28.48 0 0
28.56 0 0
28.64 0 0
28.72 0 0
28.8 0 0
28.88 0 0
28.96 0 0
29.04 0 0
29.12 0 0
29.2 0 0
29.28 0 0
29.36 0 0
29.44 0 0
29.52 0 0
29.6 0 0
29.68 0 0
29.76 0 0
29.84 0 0
29.92 0 0
30 0 0
30.08 0 0
30.16 0 0
30.24 0 0
30.32 0 0
30.4 0 0
30.48 0 0
30.56 0 0
30.64 0 0
30.72 0 0
30.8 0 0
30.88 0 0
30.96 0 0
31.04 0 0
31.12 0 0
31.2 0 0
31.28 0 0
31.36 0 0
31.44 0 0
31.52 0 0
31.6 0 0
31.68 0 0
31.76 0 0
31.84 0 0
31.92 0 0
0 0.02 0
0.08 0.02 0
0.16 0.02 0
0.24 0.02 0
0.32 0.02 0
0.4 0.02 0
0.48 0.02 0
0.56 0.02 0
0.64 0.02 0
0.72 0.02 0
0.8 0.02 0
0.88 0.02 0
0.96 0.02 0
1.04 0.02 0
1.12 0.02 0
1.2 0.02 0
1.28 0.02 0
1.36 0.02 0
1.44 0.02 0
1.52 0.02 0
1.6 0.02 0
1.68 0.02 0
1.76 0.02 0
1.84 0.02 0
1.92 0.02 0
2 0.02 0
2.08 0.02 0
2.16 0.02 0
2.24 0.02 0
2.32 0.02 0
2.4 0.02 0
2.48 0.02 0
2.56 0.02 0
2.64 0.02 0
2.72 0.02 0
2.8 0.02 0
2.88 0.02 0
2.96 0.02 0
3.04 0.02 0
3.12 0.02 0
3.2 0.02 0
3.28 0.02 0
3.36 0.02 0
3.44 0.02 0
3.52 0.02 0
3.6 0.02 0
3.68 0.02 0
3.76 0.02 0
3.84 0.02 0
3.92 0.02 0
4 0.02 0
4.08 0.02 0
4.16 0.02 0
4.24 0.02 0
4.32 0.02 0
4.4 0.02 0
4.48 0.02 0
4.56 0.02 0
4.64 0.02 0
4.72 0.02 0
4.8 0.02 0
4.88 0.02 0
4.96 0.02 0
5.04 0.02 0
5.12 0.02 0
5.2 0.02 0
5.28 0.02 0
5.36 0.02 0
5.44 0.02 0
5.52 0.02 0
5.6 0.02 0
5.68 0.02 0
5.76 0.02 0
5.84 0.02 0
5.92 0.02 0
6 0.02 0
6.08 0.02 0
6.16 0.02 0
6.24 0.02 0
6.32 0.02 0
6.4 0.02 0
6.48 0.02 0
6.56 0.02 0
6.64 0.02 0
6.72 0.02 0
6.8 0.02 0
6.88 0.02 0
6.96 0.02 0
7.04 0.02 0
7.12 0.02 0
7.2 0.02 0
7.28 0.02 0
7.36 0.02 0
7.44 0.02 0
7.52 0.02 0
7.6 0.02 0
7.68 0.02 0
7.76 0.02 0
7.84 0.02 0
7.92 0.02 0
8 0.02 0
8.08 0.02 0
8.16 0.02 0
8.24 0.02 0
8.32 0.02 0
8.4 0.02 0
8.48 0.02 0
8.56 0.02 0
8.64 0.02 0
8.72 0.02 0
8.8 0.02 0
8.88 0.02 0
8.96 0.02 0
9.04 0.02 0
9.12 0.02 0
9.2 0.02 0
9.28 0.02 0
9.36 0.02 0
9.44 0.02 0
9.52 0.02 0
9.6 0.02 0
9.68 0.02 0
9.76 0.02 0
9.84 0.02 0
9.92 0.02 0
10 0.02 0
10.08 0.02 0
10.16 0.02 0
10.24 0.02 0
10.32 0.02 0
10.4 0.02 0
10.48 0.02 0
10.56 0.02 0
10.64 0.02 0
10.72 0.02 0
10.8 0.02 0
10.88 0.02 0
10.96 0.02 0
11.04 0.02 0
11.12 0.02 0
11.2 0.02 0
11.28 0.02 0
11.36 0.02 0
11.44 0.02 0
11.52 0.02 0
11.6 0.02 0
11.68 0.02 0
11.76 0.02 0
11.84 0.02 0
11.92 0.02 0
12 0.02 0
12.08 0.02 0
12.16 0.02 0
12.24 0.02 0
12.32 0.02 0
12.4 0.02 0
12.48 0.02 0
12.56 0.02 0
12.64 0.02 0
12.72 0.02 0
12.8 0.02 0
12.88 0.02 0
12.96 0.02 0
13.04 0.02 0
13.12 0.02 0
13.2 0.02 0
13.28 0.02 0
13.36 0.02 0
13.44 0.02 0
13.52 0.02 0
13.6 0.02 0
13.68 0.02 0
13.76 0.02 0
13.84 0.02 0
13.92 0.02 0
14 0.02 0
14.08 0.02 0
14.16 0.02 0
14.24 0.02 0
14.32 0.02 0
14.4 0.02 0
14.48 0.02 0
14.56 0.02 0
14.64 0.02 0
14.72 0.02 0
14.8 0.02 0
14.88 0.02 0
14.96 0.02 0
15.04 0.02 0
15.12 0.02 0
15.2 0.02 0
15.28 0.02 0
15.36 0.02 0
15.44 0.02 0
15.52 0.02 0
15.6 0.02 0
15.68 0.02 0
15.76 0.02 0
15.84 0.02 0
15.92 0.02 0
16 0.02 0
16.08 0.02 0
16.16 0.02 0
16.24 0.02 0
16.32 0.02 0
16.4 0.02 0
16.48 0.02 0
16.56 0.02 0
16.64 0.02 0
16.72 0.02 0
16.8 0.02 0
16.88 0.02 0
16.96 0.02 0
17.04 0.02 0
17.12 0.02 0
17.2 0.02 0
17.28 0.02 0
17.36 0.02 0
17.44 0.02 0
17.52 0.02 0
17.6 0.02 0
17.68 0.02 0
17.76 0.02 0
17.84 0.02 0
17.92 0.02 0
18 0.02 0
18.08 0.02 0
18.16 0.02 0
18.24 0.02 0
18.32 0.02 0
18.4 0.02 0
18.48 0.02 0
18.56 0.02 0
18.64 0.02 0
18.72 0.02 0
18.8 0.02 0
18.88 0.02 0
18.96 0.02 0
19.04 0.02 0
19.12 0.02 0
19.2 0.02 0
19.28 0.02 0
19.36 0.02 0
19.44 0.02 0
19.52 0.02 0
19.6 0.02 0
19.68 0.02 0
19.76 0.02 0
19.84 0.02 0
19.92 0.02 0
20 0.02 0
20.08 0.02 0
20.16 0.02 0
20.24 0.02 0
20.32 0.02 0
20.4 0.02 0
20.48 0.02 0
20.56 0.02 0
20.64 0.02 0
20.72 0.02 0
20.8 0.02 0
20.88 0.02 0
20.96 0.02 0
21.04 0.02 0
21.12 0.02 0
21.2 0.02 0
21.28 0.02 0
21.36 0.02 0
21.44 0.02 0
21.52 0.02 0
21.6 0.02 0
21.68 0.02 0
21.76 0.02 0
21.84 0.02 0
21.92 0.02 0
22 0.02 0
22.08 0.02 0
22.16 0.02 0
22.24 0.02 0
22.32 0.02 0
22.4 0.02 0
22.48 0.02 0
22.56 0.02 0
22.64 0.02 0
22.72 0.02 0
22.8 0.02 0
22.88 0.02 0
22.96 0.02 0
23.04 0.02 0
23.12 0.02 0
23.2 0.02 0
23.28 0.02 0
23.36 0.02 0
23.44 0.02 0
23.52 0.02 0
23.6 0.02 0
23.68 0.02 0
23.76 0.02 0
23.84 0.02 0
23.92 0.02 0
24 0.02 0
24.08 0.02 0
24.16 0.02 0
24.24 0.02 0
24.32 0.02 0
24.4 0.02 0
24.48 0.02 0
24.56 0.02 0
24.64 0.02 0
24.72 0.02 0
24.8 0.02 0
24.88 0.02 0
24.96 0.02 0
25.04 0.02 0
25.12 0.02 0
25.2 0.02 0
25.28 0.02 0
25.36 0.02 0
25.44 0.02 0
25.52 0.02 0
25.6 0.02 0
25.68 0.02 0
25.76 0.02 0
25.84 0.02 0
25.92 0.02 0
26 0.02 0
26.08 0.02 0
26.16 0.02 0
26.24 0.02 0
26.32 0.02 0
26.4 0.02 0
26.48 0.02 0
26.56 0.02 0
26.64 0.02 0
26.72 0.02 0
26.8 0.02 0
26.88 0.02 0
26.96 0.02 0
27.04 0.02 0
27.12 0.02 0
27.2 0.02 0
27.28 0.02 0
27.36 0.02 0
27.44 0.02 0
27.52 0.02 0
27.6 0.02 0
27.68 0.02 0
27.76 0.02 0
27.84 0.02 0
27.92 0.02 0
28 0.02 0
28.08 0.02 0
28.16 0.02 0
28.24 0.02 0
28.32 0.02 0
28.4 0.02 0
28.48 0.02 0
28.56 0.02 0
28.64 0.02 0
28.72 0.02 0
28.8 0.02 0
28.88 0.02 0
28.96 0.02 0
29.04 0.02 0
29.12 0.02 0
29.2 0.02 0
29.28 0.02 0
29.36 0.02 0
29.44 0.02 0
29.52 0.02 0
29.6 0.02 0
29.68 0.02 0
29.76 0.02 0
29.84 0.02 0
29.92 0.02 0
30 0.02 0
30.08 0.02 0
30.16 0.02 0
30.24 0.02 0
30.32 0.02 0
30.4 0.02 0
30.48 0.02 0
30.56 0.02 0
30.64 0.02 0
30.72 0.02 0
30.8 0.02 0
30.88 0.02 0
30.96 0.02 0
31.04 0.02 0
31.12 0.02 0
31.2 0.02 0
31.28 0.02 0
31.36 0.02 0
31.44 0.02 0
31.52 0.02 0
31.6 0.02 0
31.68 0.02 0
31.76 0.02 0
31.84 0.02 0
31.92 0.02 0
0 0.04 0
0.08 0.04 0
0.16 0.04 0
0.24 0.04 0
0.32 0.04 0
0.4 0.04 0
0.48 0.04 0
0.56 0.04 0
0.64 0.04 0
0.72 0.04 0
0.8 0.04 0
0.88 0.04 0
0.96 0.04 0
1.04 0.04 0
1.12 0.04 0
1.2 0.04 0
1.28 0.04 0
1.36 0.04 0
1.44 0.04 0
1.52 0.04 0
1.6 0.04 0
1.68 0.04 0
1.76 0.04 0
1.84 0.04 0
1.92 0.04 0
2 0.04 0
2.08 0.04 0
2.16 0.04 0
2.24 0.04 0
2.32 0.04 0
2.4 0.04 0
2.48 0.04 0
2.56 0.04 0
2.64 0.04 0
2.72 0.04 0
2.8 0.04 0
2.88 0.04 0
2.96 0.04 0
3.04 0.04 0
3.12 0.04 0
3.2 0.04 0
3.28 0.04 0
3.36 0.04 0
3.44 0.04 0
3.52 0.04 0
3.6 0.04 0
3.68 0.04 0
3.76 0.04 0
3.84 0.04 0
3.92 0.04 0
4 0.04 0
4.08 0.04 0
4.16 0.04 0
4.24 0.04 0
4.32 0.04 0
4.4 0.04 0
4.48 0.04 0
4.56 0.04 0
4.64 0.04 0
4.72 0.04 0
4.8 0.04 0
4.88 0.04 0
4.96 0.04 0
5.04 0.04 0
5.12 0.04 0
5.2 0.04 0
5.28 0.04 0
5.36 0.04 0
5.44 0.04 0
5.52 0.04 0
5.6 0.04 0
5.68 0.04 0
5.76 0.04 0
5.84 0.04 0
5.92 0.04 0
6 0.04 0
6.08 0.04 0
6.16 0.04 0
6.24 0.04 0
6.32 0.04 0
6.4 0.04 0
6.48 0.04 0
6.56 0.04 0
6.64 0.04 0
6.72 0.04 0
6.8 0.04 0
6.88 0.04 0
6.96 0.04 0
7.04 0.04 0
7.12 0.04 0
7.2 0.04 0
7.28 0.04 0
7.36 0.04 0
7.44 0.04 0
7.52 0.04 0
7.6 0.04 0
7.68 0.04 0
7.76 0.04 0
7.84 0.04 0
[...]
POINT_DATA 20000

SCALARS u float 1
LOOKUP_TABLE default
0
-0.507089
-0.291919
-0.21416
-0.179025
-0.158664
-0.14511
-0.135359
-0.127966
-0.122139
-0.117401
-0.113449
-0.110086
-0.107173
-0.104614
-0.102341
-0.100301
-0.0984565
-0.0967766
-0.0952381
-0.093822
-0.092513
-0.0912984
-0.0901677
-0.0891117
-0.088123
-0.0871949
-0.0863217
-0.0854984
-0.0847206
-0.0839846
-0.0832868
-0.0826242
-0.0819941
-0.0813942
-0.0808221
-0.0802759
-0.0797538
-0.0792543
-0.0787757
-0.0783169
-0.0778765
-0.0774535
-0.0770468
-0.0766554
-0.0762785
-0.0759153
-0.0755651
-0.0752271
-0.0749008
-0.0745854
-0.0742805
-0.0739856
-0.0737002
-0.0734239
-0.0731561
-0.0728966
-0.072645
-0.0724008
-0.0721639
-0.0719339
-0.0717105
-0.0714935
-0.0712826
-0.0710775
-0.0708781
-0.0706841
-0.0704953
-0.0703115
-0.0701326
-0.0699584
-0.0697887
-0.0696233
-0.0694622
-0.0693052
-0.0691521
-0.0690028
-0.0688572
-0.0687152
-0.0685767
-0.0684415
-0.0683096
-0.0681809
-0.0680553
-0.0679326
-0.0678128
-0.0676959
-0.0675817
-0.0674701
-0.0673612
-0.0672548
-0.0671508
-0.0670492
-0.06695
-0.066853
-0.0667582
-0.0666656
-0.0665751
-0.0664866
-0.0664002
-0.0663156
-0.066233
-0.0661522
-0.0660733
-0.0659961
-0.0659206
-0.0658468
-0.0657746
-0.065704
-0.065635
-0.0655676
-0.0655016
-0.0654371
-0.065374
-0.0653123
-0.0652519
-0.0651929
-0.0651352
-0.0650787
-0.0650235
-0.0649695
-0.0649167
-0.064865
-0.0648145
-0.064765
-0.0647167
-0.0646694
-0.0646231
-0.0645778
-0.0645336
-0.0644902
-0.0644479
-0.0644064
-0.0643658
-0.0643262
-0.0642874
-0.0642494
-0.0642122
-0.0641759
-0.0641403
-0.0641055
-0.0640714
-0.0640381
-0.0640055
-0.0639736
-0.0639424
-0.0639119
-0.063882
-0.0638527
-0.0638241
-0.0637961
-0.0637687
-0.0637419
-0.0637156
-0.06369
-0.0636648
-0.0636402
-0.0636162
-0.0635926
-0.0635696
-0.063547
-0.063525
-0.0635034
-0.0634822
-0.0634615
-0.0634413
-0.0634215
-0.0634021
-0.0633832
-0.0633646
-0.0633464
-0.0633287
-0.0633113
-0.0632943
-0.0632776
-0.0632613
-0.0632454
-0.0632298
-0.0632145
-0.0631996
-0.063185
-0.0631707
-0.0631567
-0.063143
-0.0631295
-0.0631164
-0.0631036
-0.063091
-0.0630787
-0.0630666
-0.0630549
-0.0630433
-0.063032
-0.063021
-0.0630102
-0.0629996
-0.0629893
-0.0629791
-0.0629692
-0.0629595
-0.0629501
-0.0629408
-0.0629318
-0.0629229
-0.0629143
-0.0629058
-0.0628976
-0.0628895
-0.0628817
-0.062874
-0.0628666
-0.0628593
-0.0628523
-0.0628454
-0.0628387
-0.0628322
-0.0628259
-0.0628198
-0.0628139
-0.0628081
-0.0628025
-0.0627972
-0.062792
-0.062787
-0.0627822
-0.0627776
-0.0627731
-0.0627688
-0.0627647
-0.0627608
-0.062757
-0.0627535
-0.0627501
-0.0627469
-0.0627438
-0.0627409
-0.0627382
-0.0627356
-0.0627332
-0.062731
-0.0627289
-0.062727
-0.0627252
-0.0627235
-0.062722
-0.0627205
-0.0627193
-0.0627181
-0.0627171
-0.0627163
-0.0627155
-0.0627148
-0.0627142
-0.0627138
-0.0627134
-0.0627131
-0.0627129
-0.0627128
-0.0627127
-0.0627128
-0.0627129
-0.0627131
-0.0627133
-0.0627136
-0.0627139
-0.0627143
-0.0627148
-0.0627153
-0.0627158
-0.0627164
-0.062717
-0.0627176
-0.0627183
-0.062719
-0.0627197
-0.0627204
-0.0627212
-0.062722
-0.0627228
-0.0627236
-0.0627244
-0.0627252
-0.0627261
-0.0627269
-0.0627278
-0.0627287
-0.0627295
-0.0627304
-0.0627313
-0.0627322
-0.0627331
-0.062734
-0.0627349
-0.0627358
-0.0627367
-0.0627376
-0.0627385
-0.0627394
-0.0627403
-0.0627412
-0.0627421
-0.062743
-0.0627439
-0.0627448
-0.0627457
-0.0627466
-0.0627475
-0.0627484
-0.0627493
-0.0627502
-0.0627511
-0.062752
-0.0627529
-0.0627538
-0.0627547
-0.0627556
-0.0627565
-0.0627574
-0.0627583
-0.0627593
-0.0627602
-0.0627611
-0.062762
-0.0627629
-0.0627638
-0.0627647
-0.0627656
-0.0627665
-0.0627674
-0.0627683
-0.0627692
-0.0627701
-0.0627711
-0.062772
-0.0627729
-0.0627738
-0.0627747
-0.0627756
-0.0627765
-0.0627774
-0.0627783
-0.0627792
-0.0627801
-0.0627811
-0.062782
-0.0627829
-0.0627838
-0.0627847
-0.0627856
-0.0627865
-0.0627874
-0.0627883
-0.0627893
-0.0627902
-0.0627911
-0.062792
-0.0627929
-0.0627938
-0.0627947
-0.0627956
-0.0627965
-0.0627975
-0.0627984
-0.0627993
-0.0628002
-0.0628011
-0.062802
-0.0628029
-0.0628039
-0.0628048
-0.0628057
-0.0628066
-0.0628075
-0.0628084
-0.0628094
-0.0628103
-0.0628112
-0.0628121
-0.062813
-0.062814
-0.0628149
-0.0628159
-0.0628168
-0.0628177
-0.0628186
-0.0628196
-0.0628205
-0.0628215
-0.0628225
-0.0628235
-0.0628244
-0.0628254
-0.0628264
-0.0628273
-0.0628283
-0.0628291
-0.0628301
-0.0628296
-0.0628296
-0.0628296
1
0.507089
0.291919
0.21416
0.179025
0.158664
0.14511
0.135359
0.127966
0.122139
0.117401
0.113449
0.110086
0.107173
0.104614
0.102341
0.100301
0.0984565
0.0967766
0.0952381
0.093822
0.092513
0.0912984
0.0901677
0.0891117
0.088123
0.0871949
0.0863217
0.0854984
0.0847206
0.0839846
0.0832868
0.0826242
0.0819941
0.0813942
0.0808221
0.0802759
0.0797538
0.0792543
0.0787757
0.0783169
0.0778765
0.0774535
0.0770468
0.0766554
0.0762785
0.0759153
0.0755651
0.0752271
0.0749008
0.0745854
0.0742805
0.0739856
0.0737002
0.0734239
0.0731561
0.0728966
0.072645
0.0724008
0.0721639
0.0719339
0.0717105
0.0714935
0.0712826
0.0710775
0.0708781
0.0706841
0.0704953
0.0703115
0.0701326
0.0699584
0.0697887
0.0696233
0.0694622
0.0693052
0.0691521
0.0690028
0.0688572
0.0687152
0.0685767
0.0684415
0.0683096
0.0681809
0.0680553
0.0679326
0.0678128
0.0676959
0.0675817
0.0674701
0.0673612
0.0672548
0.0671508
0.0670492
0.06695
0.066853
0.0667582
0.0666656
0.0665751
0.0664866
0.0664002
0.0663156
0.066233
0.0661522
0.0660733
0.0659961
0.0659206
0.0658468
0.0657746
0.065704
0.065635
0.0655676
0.0655016
0.0654371
0.065374
0.0653123
0.0652519
0.0651929
0.0651352
0.0650787
0.0650235
0.0649695
0.0649167
0.064865
0.0648145
0.064765
0.0647167
0.0646694
0.0646231
0.0645778
0.0645336
0.0644902
0.0644479
0.0644064
0.0643658
0.0643262
0.0642874
0.0642494
0.0642122
0.0641759
0.0641403
0.0641055
0.0640714
0.0640381
0.0640055
0.0639736
0.0639424
0.0639119
0.063882
0.0638527
0.0638241
0.0637961
0.0637687
0.0637419
0.0637156
0.06369
0.0636648
0.0636402
0.0636162
0.0635926
0.0635696
0.063547
0.063525
0.0635034
0.0634822
0.0634615
0.0634413
0.0634215
0.0634021
0.0633832
0.0633646
0.0633464
0.0633287
0.0633113
0.0632943
0.0632776
0.0632613
0.0632454
0.0632298
0.0632145
0.0631996
0.063185
0.0631707
0.0631567
0.063143
0.0631295
0.0631164
0.0631036
0.063091
0.0630787
0.0630666
0.0630549
0.0630433
0.063032
0.063021
0.0630102
0.0629996
0.0629893
0.0629791
0.0629692
0.0629595
0.0629501
0.0629408
0.0629318
0.0629229
0.0629143
0.0629058
0.0628976
0.0628895
0.0628817
0.062874
0.0628666
0.0628593
0.0628523
0.0628454
0.0628387
0.0628322
0.0628259
0.0628198
0.0628139
0.0628081
0.0628025
0.0627972
0.062792
0.062787
0.0627822
0.0627776
0.0627731
0.0627688
0.0627647
0.0627608
0.062757
0.0627535
0.0627501
0.0627469
0.0627438
0.0627409
0.0627382
0.0627356
0.0627332
0.062731
0.0627289
0.062727
0.0627252
0.0627235
0.062722
0.0627205
0.0627193
0.0627181
0.0627171
0.0627163
0.0627155
0.0627148
0.0627142
0.0627138
0.0627134
0.0627131
0.0627129
0.0627128
0.0627127
0.0627128
0.0627129
0.0627131
0.0627133
0.0627136
0.0627139
0.0627143
0.0627148
0.0627153
0.0627158
0.0627164
0.062717
0.0627176
0.0627183
0.062719
0.0627197
0.0627204
0.0627212
0.062722
0.0627228
0.0627236
0.0627244
0.0627252
0.0627261
0.0627269
0.0627278
0.0627287
0.0627295
0.0627304
0.0627313
0.0627322
0.0627331
0.062734
0.0627349
0.0627358
0.0627367
0.0627376
0.0627385
0.0627394
0.0627403
0.0627412
0.0627421
0.062743
0.0627439
0.0627448
0.0627457
0.0627466
0.0627475
0.0627484
0.0627493
0.0627502
0.0627511
0.062752
0.0627529
0.0627538
0.0627547
0.0627556
0.0627565
0.0627574
0.0627583
0.0627593
0.0627602
0.0627611
0.062762
0.0627629
0.0627638
0.0627647
0.0627656
0.0627665
0.0627674
0.0627683
0.0627692
0.0627701
0.0627711
0.062772
0.0627729
0.0627738
0.0627747
0.0627756
0.0627765
0.0627774
0.0627783
0.0627792
0.0627801
0.0627811
0.062782
0.0627829
0.0627838
0.0627847
0.0627856
0.0627865
0.0627874
0.0627883
0.0627893
0.0627902
0.0627911
0.062792
0.0627929
0.0627938
0.0627947
0.0627956
0.0627965
0.0627975
0.0627984
0.0627993
0.0628002
0.0628011
0.062802
0.0628029
0.0628039
0.0628048
0.0628057
0.0628066
0.0628075
0.0628084
0.0628094
0.0628103
0.0628112
0.0628121
0.062813
0.062814
0.0628149
0.0628159
0.0628168
0.0628177
0.0628186
0.0628196
0.0628205
0.0628215
0.0628225
0.0628235
0.0628244
0.0628254
0.0628264
0.0628273
0.0628283
0.0628291
0.0628301
0.0628296
0.0628296
0.0628296
1
0.924296
0.735445
0.597548
0.511655
0.45634
0.41818
0.390276
0.368945
0.35206
0.338313
0.326854
0.317114
0.308697
0.301322
0.294785
0.288934
0.283652
0.278852
0.274464
0.27043
0.266706
0.263255
0.260045
0.25705
0.254248
0.251619
0.249148
0.246818
0.244619
0.242539
0.240567
0.238696
0.236917
0.235224
0.23361
0.232069
0.230597
0.229189
0.227841
0.226548
0.225308
0.224117
0.222972
0.22187
0.22081
0.219788
0.218803
0.217853
0.216935
0.216049
0.215192
0.214364
0.213562
0.212786
0.212034
0.211306
0.210599
0.209914
0.20925
0.208604
0.207978
0.207369
0.206778
0.206203
0.205644
0.205101
0.204572
0.204057
0.203556
0.203068
0.202593
0.202131
0.20168
0.20124
0.200812
0.200395
0.199987
0.19959
0.199203
0.198825
0.198457
0.198097
0.197746
0.197403
0.197069
0.196742
0.196423
0.196112
0.195808
0.195511
0.195221
0.194937
0.19466
0.19439
0.194125
0.193867
0.193615
0.193368
0.193127
0.192892
0.192661
0.192436
0.192216
0.192001
0.191791
0.191585
0.191384
0.191188
0.190996
0.190808
0.190624
0.190445
0.190269
0.190098
0.18993
0.189766
0.189605
0.189448
0.189294
0.189144
0.188997
0.188854
0.188713
0.188576
0.188442
0.18831
0.188182
0.188056
0.187933
0.187812
0.187695
0.18758
0.187467
0.187357
0.187249
0.187144
0.187041
0.18694
0.186841
0.186744
0.18665
0.186557
0.186467
0.186378
0.186292
0.186207
0.186124
0.186043
0.185964
0.185886
0.18581
0.185735
0.185663
0.185591
0.185522
0.185454
0.185387
0.185322
0.185258
0.185195
0.185134
0.185074
0.185015
0.184958
0.184902
0.184847
0.184793
0.184741
0.184689
0.184639
0.18459
0.184542
0.184494
0.184448
0.184403
0.184359
0.184316
0.184273
0.184232
0.184192
0.184152
0.184113
0.184075
0.184038
0.184002
0.183966
0.183931
0.183897
0.183864
0.183831
0.183799
0.183768
0.183737
0.183707
0.183678
0.183649
0.183621
0.183594
0.183567
0.183541
0.183515
0.18349
0.183466
0.183442
0.183419
0.183396
0.183374
0.183352
0.183331
0.183311
0.183291
0.183272
0.183253
0.183235
0.183217
0.1832
0.183183
0.183167
0.183151
0.183136
0.183122
0.183108
0.183094
0.183081
0.183069
0.183057
0.183046
0.183035
0.183024
0.183014
0.183005
0.182996
0.182988
0.18298
0.182972
0.182965
0.182958
0.182952
0.182946
0.182941
0.182936
0.182932
0.182927
0.182924
0.18292
0.182917
0.182914
0.182912
0.18291
0.182908
0.182907
0.182905
0.182904
0.182904
0.182903
0.182903
0.182903
0.182903
0.182903
0.182904
0.182905
0.182906
0.182907
0.182908
0.182909
0.182911
0.182912
0.182914
0.182915
0.182917
0.182919
0.182921
0.182923
0.182925
0.182927
0.18293
0.182932
0.182934
0.182937
0.182939
0.182941
0.182944
0.182946
0.182949
0.182951
0.182954
0.182956
0.182959
0.182961
0.182964
0.182966
0.182969
0.182971
0.182974
0.182976
0.182979
0.182981
0.182984
0.182986
0.182989
0.182991
0.182994
0.182996
0.182999
0.183002
0.183004
0.183007
0.183009
0.183012
0.183014
0.183017
0.183019
0.183022
0.183024
0.183027
0.18303
0.183032
0.183035
0.183037
0.18304
0.183042
0.183045
0.183047
0.18305
0.183053
0.183055
0.183058
0.18306
0.183063
0.183065
0.183068
0.18307
0.183073
0.183076
0.183078
0.183081
0.183083
0.183086
0.183088
0.183091
0.183093
0.183096
0.183099
0.183101
0.183104
0.183106
0.183109
0.183111
0.183114
0.183117
0.183119
0.183122
0.183124
0.183127
0.183129
0.183132
0.183134
0.183137
0.18314
0.183142
0.183145
0.183147
0.18315
0.183152
0.183155
0.183158
0.18316
0.183163
0.183165
0.183168
0.18317
0.183173
0.183176
0.183178
0.183181
0.183183
0.183186
0.183189
0.183191
0.183194
0.183196
0.183199
0.183202
0.183204
0.183207
0.18321
0.183212
0.183215
0.183218
0.18322
0.183223
0.183226
0.183229
0.183231
0.183234
0.183236
0.183236
0.183236
0.183236
1
1.07971
0.997069
0.883648
0.788694
0.71691
0.663046
0.621832
0.589489
0.563476
0.542084
0.524143
0.508836
0.495581
0.483954
0.473644
0.464414
0.456084
0.448516
0.441598
0.435242
0.429376
0.42394
0.418885
0.414169
0.409757
0.405619
0.401729
0.398063
0.394602
0.391328
0.388226
0.385282
0.382483
0.379819
0.377281
0.374857
0.372542
0.370328
0.368207
0.366175
0.364225
0.362352
0.360552
0.358821
0.357154
0.355548
0.354
0.352507
0.351065
0.349673
0.348328
0.347026
0.345767
0.344549
0.343368
0.342225
0.341116
0.340041
0.338998
0.337985
0.337002
0.336048
0.33512
0.334219
0.333342
0.33249
0.331661
0.330854
0.330069
0.329304
0.32856
0.327835
0.327128
0.32644
0.325769
0.325115
0.324478
0.323856
0.32325
0.322658
0.322081
0.321518
0.320969
0.320433
0.31991
0.319399
0.3189
0.318413
0.317937
0.317473
0.317019
0.316576
0.316144
0.315721
0.315308
0.314904
0.31451
0.314125
0.313748
0.31338
0.313021
0.312669
0.312326
0.31199
0.311662
0.311341
0.311028
0.310721
0.310421
0.310128
0.309842
0.309562
0.309288
0.30902
0.308759
0.308503
0.308252
0.308008
0.307768
0.307534
0.307305
0.307082
0.306863
0.306649
0.306439
0.306235
0.306034
0.305838
0.305647
0.30546
0.305276
0.305097
0.304922
0.30475
0.304582
0.304418
0.304258
0.304101
0.303947
0.303797
0.30365
0.303506
0.303365
0.303227
0.303093
0.302961
0.302832
0.302706
0.302582
0.302461
0.302343
0.302228
0.302114
0.302004
0.301895
0.301789
0.301686
0.301584
0.301485
0.301387
0.301292
0.301199
0.301108
0.301019
0.300932
0.300847
0.300763
0.300681
0.300601
0.300523
0.300447
0.300372
0.300299
0.300227
0.300157
0.300088
0.300021
0.299955
0.299891
0.299828
0.299766
0.299706
0.299647
0.299589
0.299532
0.299477
0.299423
0.29937
0.299318
0.299267
0.299218
0.299169
0.299122
0.299075
0.29903
0.298985
0.298942
0.298899
0.298858
0.298817
0.298777
0.298739
0.298701
0.298664
0.298628
0.298593
0.298558
0.298525
0.298492
0.298461
0.29843
0.2984
0.298371
0.298343
0.298316
0.298289
0.298264
0.298239
0.298215
0.298192
0.29817
0.298149
0.298128
0.298108
0.298089
0.298071
0.298054
0.298037
0.298021
0.298006
0.297992
0.297979
0.297966
0.297954
0.297942
0.297932
0.297922
0.297913
0.297904
0.297896
0.297889
0.297882
0.297876
0.297871
0.297866
0.297861
0.297857
0.297854
0.297851
0.297849
0.297847
0.297845
0.297844
0.297843
0.297842
0.297842
0.297842
0.297843
0.297844
0.297845
0.297846
0.297848
0.297849
0.297851
0.297854
0.297856
0.297859
0.297861
0.297864
0.297867
0.29787
0.297873
0.297876
0.29788
0.297883
0.297887
0.29789
0.297894
0.297897
0.297901
0.297905
0.297909
0.297912
0.297916
0.29792
0.297924
0.297928
0.297932
0.297936
0.29794
0.297944
0.297947
0.297951
0.297955
0.297959
0.297963
0.297967
0.297971
0.297975
0.297979
0.297983
0.297987
0.297991
0.297995
0.297999
0.298003
0.298007
0.298011
0.298015
0.298019
0.298023
0.298027
0.298031
0.298034
0.298038
0.298042
0.298046
0.29805
0.298054
0.298058
0.298062
0.298066
0.29807
0.298074
0.298078
0.298082
0.298086
0.29809
0.298094
0.298098
0.298102
0.298106
0.29811
0.298114
0.298118
0.298122
0.298126
0.29813
0.298134
0.298138
0.298142
0.298146
0.29815
0.298154
0.298158
0.298162
0.298166
0.29817
0.298174
0.298178
0.298182
0.298186
0.29819
0.298193
0.298197
0.298201
0.298205
0.298209
0.298213
0.298217
0.298221
0.298225
0.298229
0.298233
0.298237
0.298241
0.298245
0.298249
0.298253
0.298257
0.298261
0.298265
0.298269
0.298273
0.298277
0.298281
0.298285
0.298289
0.298293
0.298297
0.298302
0.298306
0.29831
0.298314
0.298318
0.298322
0.298326
0.29833
0.298335
0.298339
0.298343
0.298347
0.298351
0.298356
0.29836
0.298364
0.298365
0.298365
0.298365
1
1.11179
1.11438
1.05557
0.984373
0.919034
0.8638
0.818216
0.780644
0.74942
0.723162
0.700793
0.681495
0.664651
0.649791
0.636556
0.624671
0.61392
0.604132
0.595171
0.586927
0.57931
0.572245
0.565669
0.55953
0.553784
0.54839
0.543316
0.538533
0.534015
0.52974
0.525687
0.52184
0.518181
0.514698
0.511377
0.508207
0.505178
0.502279
0.499503
0.496842
0.494289
0.491836
0.489479
0.487211
0.485028
0.482925
0.480897
0.47894
0.477052
0.475228
0.473465
0.47176
0.47011
0.468513
0.466967
0.465469
0.464016
0.462608
0.461241
0.459915
0.458628
0.457377
0.456162
0.454981
0.453834
0.452718
0.451632
0.450575
0.449547
0.448546
0.447572
0.446623
0.445698
0.444798
0.44392
0.443064
0.44223
0.441417
0.440624
0.43985
0.439096
0.43836
0.437641
0.43694
0.436256
0.435588
0.434937
0.4343
0.433679
0.433072
0.432479
0.431901
0.431335
0.430783
0.430244
0.429717
0.429202
0.428699
0.428208
0.427727
0.427258
0.426799
0.426351
0.425913
0.425485
0.425067
0.424658
0.424258
0.423867
0.423485
0.423111
0.422746
0.422389
0.42204
0.421699
0.421366
0.421039
0.420721
0.420409
0.420104
0.419806
0.419514
0.419229
0.41895
0.418678
0.418411
0.418151
0.417896
0.417646
0.417402
0.417164
0.416931
0.416703
0.416479
0.416261
0.416048
0.415839
0.415635
0.415435
0.415239
0.415048
0.414861
0.414678
0.414499
0.414324
0.414152
0.413985
0.413821
0.41366
0.413503
0.41335
0.413199
0.413052
0.412908
0.412768
0.41263
0.412495
0.412363
0.412234
0.412108
0.411984
0.411863
0.411745
0.411629
0.411516
0.411405
0.411297
0.411191
0.411087
0.410985
0.410886
0.410789
0.410693
0.4106
0.410509
0.41042
0.410333
0.410247
0.410164
0.410082
0.410002
0.409924
0.409847
0.409772
0.409699
0.409627
0.409557
0.409488
0.40942
0.409355
0.40929
0.409227
0.409165
0.409105
0.409046
0.408988
0.408932
0.408876
0.408823
0.40877
0.408718
0.408668
0.408619
0.408571
0.408524
0.408479
0.408435
0.408391
0.408349
0.408308
0.408269
0.40823
0.408193
0.408156
0.408121
0.408087
0.408054
0.408022
0.407991
0.407961
0.407933
0.407905
0.407879
0.407854
0.407829
0.407806
0.407784
0.407762
0.407742
0.407723
0.407705
0.407688
0.407671
0.407656
0.407642
0.407628
0.407616
0.407604
0.407593
0.407583
0.407574
0.407566
0.407558
0.407551
0.407545
0.40754
0.407535
0.407531
0.407527
0.407524
0.407522
0.40752
0.407518
0.407517
0.407517
0.407517
0.407517
0.407518
0.407519
0.407521
0.407523
0.407525
0.407527
0.40753
0.407533
0.407536
0.407539
0.407543
0.407546
0.40755
0.407554
0.407558
0.407563
0.407567
0.407571
0.407576
0.407581
0.407585
0.40759
0.407595
0.4076
0.407604
0.407609
0.407614
0.407619
0.407624
0.407629
0.407634
0.407639
0.407644
0.407649
0.407655
0.40766
0.407665
0.40767
0.407675
0.40768
0.407685
0.40769
0.407695
0.4077
0.407705
0.407711
0.407716
0.407721
0.407726
0.407731
0.407736
0.407741
0.407746
0.407751
0.407757
0.407762
0.407767
0.407772
0.407777
0.407782
0.407787
0.407792
0.407797
0.407803
0.407808
0.407813
0.407818
0.407823
0.407828
0.407833
0.407838
0.407843
0.407849
0.407854
0.407859
0.407864
0.407869
0.407874
0.407879
0.407884
0.40789
0.407895
0.4079
0.407905
0.40791
0.407915
0.40792
0.407925
0.407931
0.407936
0.407941
0.407946
0.407951
0.407956
0.407961
0.407966
0.407972
0.407977
0.407982
0.407987
0.407992
0.407997
0.408002
0.408007
0.408013
0.408018
0.408023
0.408028
0.408033
0.408038
0.408043
0.408049
0.408054
0.408059
0.408064
0.408069
0.408074
0.408079
0.408085
0.40809
0.408095
0.4081
0.408105
0.408111
0.408116
0.408121
0.408126
0.408132
0.408137
0.408142
0.408148
0.408153
0.408158
0.408164
0.408169
0.408175
0.40818
0.408185
0.40819
0.408194
0.408194
0.408194
1
1.09593
1.14368
1.13403
1.0977
1.05334
1.00942
0.969223
0.93363
0.902506
0.875346
0.85157
0.830636
0.812077
0.795507
0.78061
0.767132
0.754866
0.743642
0.733325
0.723799
0.714971
0.706762
0.699103
0.691939
0.685219
0.678902
0.672951
0.667333
0.66202
0.656986
0.65221
0.647672
0.643352
0.639236
0.635309
0.631558
0.627972
0.624538
0.621248
0.618092
0.615062
0.612152
0.609353
0.606659
0.604065
0.601566
0.599155
0.596829
0.594583
0.592413
0.590315
0.588286
0.586323
0.584422
0.582581
0.580797
0.579068
0.57739
0.575763
0.574184
0.57265
0.571161
0.569714
0.568307
0.56694
0.56561
0.564317
0.563059
0.561834
0.560642
0.559481
0.558351
0.55725
0.556177
0.555131
0.554112
0.553119
0.552151
0.551206
0.550285
0.549387
0.548511
0.547656
0.546821
0.546007
0.545212
0.544436
0.543679
0.54294
0.542218
0.541513
0.540824
0.540152
0.539495
0.538854
0.538227
0.537615
0.537017
0.536433
0.535862
0.535304
0.534759
0.534227
0.533706
0.533197
0.5327
0.532214
0.531739
0.531275
0.530821
0.530378
0.529944
0.529521
0.529106
0.528701
0.528306
0.527918