# vtk DataFile Version 2.0
FlowField
ASCII
DATASET STRUCTURED_GRID
DIMENSIONS 400 1 50
POINTS 20000 float
0 0 0
0.08 0 0
0.16 0 0
0.24 0 0
0.32 0 0
0.4 0 0
0.48 0 0
0.56 0 0
0.64 0 0
0.72 0 0
0.8 0 0
0.88 0 0
0.96 0 0
1.04 0 0
1.12 0 0
1.2 0 0
1.28 0 0
1.36 0 0
1.44 0 0
1.52 0 0
1.6 0 0
1.68 0 0
1.76 0 0
1.84 0 0
1.92 0 0
2 0 0
2.08 0 0
2.16 0 0
2.24 0 0
2.32 0 0
2.4 0 0
2.48 0 0
2.56 0 0
2.64 0 0
2.72 0 0
2.8 0 0
2.88 0 0
2.96 0 0
3.04 0 0
3.12 0 0
3.2 0 0
3.28 0 0
3.36 0 0
3.44 0 0
3.52 0 0
3.6 0 0
3.68 0 0
3.76 0 0
3.84 0 0
3.92 0 0
4 0 0
4.08 0 0
4.16 0 0
4.24 0 0
4.32 0 0
4.4 0 0
4.48 0 0
4.56 0 0
4.64 0 0
4.72 0 0
4.8 0 0
4.88 0 0
4.96 0 0
5.04 0 0
5.12 0 0
5.2 0 0
5.28 0 0
5.36 0 0
5.44 0 0
5.52 0 0
5.6 0 0
5.68 0 0
5.76 0 0
5.84 0 0
5.92 0 0
6 0 0
6.08 0 0
6.16 0 0
6.24 0 0
6.32 0 0
6.4 0 0
6.48 0 0
6.56 0 0
6.64 0 0
6.72 0 0
6.8 0 0
6.88 0 0
6.96 0 0
7.04 0 0
7.12 0 0
7.2 0 0
7.28 0 0
7.36 0 0
7.44 0 0
7.52 0 0
7.6 0 0
7.68 0 0
7.76 0 0
7.84 0 0
7.92 0 0
8 0 0
8.08 0 0
8.16 0 0
8.24 0 0
8.32 0 0
8.4 0 0
8.48 0 0
8.56 0 0
8.64 0 0
8.72 0 0
8.8 0 0
8.88 0 0
8.96 0 0
9.04 0 0
9.12 0 0
9.2 0 0
9.28 0 0
9.36 0 0
9.44 0 0
9.52 0 0
9.6 0 0
9.68 0 0
9.76 0 0
9.84 0 0
9.92 0 0
10 0 0
10.08 0 0
10.16 0 0
10.24 0 0
10.32 0 0
10.4 0 0
10.48 0 0
10.56 0 0
10.64 0 0
10.72 0 0
10.8 0 0
10.88 0 0
10.96 0 0
11.04 0 0
11.12 0 0
11.2 0 0
11.28 0 0
11.36 0 0
11.44 0 0
11.52 0 0
11.6 0 0
11.68 0 0
11.76 0 0
11.84 0 0
11.92 0 0
12 0 0
12.08 0 0
12.16 0 0
12.24 0 0
12.32 0 0
12.4 0 0
12.48 0 0
12.56 0 0
12.64 0 0
12.72 0 0
12.8 0 0
12.88 0 0
12.96 0 0
13.04 0 0
13.12 0 0
13.2 0 0
13.28 0 0
13.36 0 0
13.44 0 0
13.52 0 0
13.6 0 0
13.68 0 0
13.76 0 0
13.84 0 0
13.92 0 0
14 0 0
14.08 0 0
14.16 0 0
14.24 0 0
14.32 0 0
14.4 0 0
14.48 0 0
14.56 0 0
14.64 0 0
14.72 0 0
14.8 0 0
14.88 0 0
14.96 0 0
15.04 0 0
15.12 0 0
15.2 0 0
15.28 0 0
15.36 0 0
15.44 0 0
15.52 0 0
15.6 0 0
15.68 0 0
15.76 0 0
15.84 0 0
15.92 0 0
16 0 0
16.08 0 0
16.16 0 0
16.24 0 0
16.32 0 0
16.4 0 0
16.48 0 0
16.56 0 0
16.64 0 0
16.72 0 0
16.8 0 0
16.88 0 0
16.96 0 0
17.04 0 0
17.12 0 0
17.2 0 0
17.28 0 0
17.36 0 0
17.44 0 0
17.52 0 0
17.6 0 0
17.68 0 0
17.76 0 0
17.84 0 0
17.92 0 0
18 0 0
18.08 0 0
18.16 0 0
18.24 0 0
18.32 0 0
18.4 0 0
18.48 0 0
18.56 0 0
18.64 0 0
18.72 0 0
18.8 0 0
18.88 0 0
18.96 0 0
19.04 0 0
19.12 0 0
19.2 0 0
19.28 0 0
19.36 0 0
19.44 0 0
19.52 0 0
19.6 0 0
19.68 0 0
19.76 0 0
19.84 0 0
19.92 0 0
20 0 0
20.08 0 0
20.16 0 0
20.24 0 0
20.32 0 0
20.4 0 0
20.48 0 0
20.56 0 0
20.64 0 0
20.72 0 0
20.8 0 0
20.88 0 0
20.96 0 0
21.04 0 0
21.12 0 0
21.2 0 0
21.28 0 0
21.36 0 0
21.44 0 0
21.52 0 0
21.6 0 0
21.68 0 0
21.76 0 0
21.84 0 0
21.92 0 0
22 0 0
22.08 0 0
22.16 0 0
22.24 0 0
22.32 0 0
22.4 0 0
22.48 0 0
22.56 0 0
22.64 0 0
22.72 0 0
22.8 0 0
22.88 0 0
22.96 0 0
23.04 0 0
23.12 0 0
23.2 0 0
23.28 0 0
23.36 0 0
23.44 0 0
23.52 0 0
23.6 0 0
23.68 0 0
23.76 0 0
23.84 0 0
23.92 0 0
24 0 0
24.08 0 0
24.16 0 0
24.24 0 0
24.32 0 0
24.4 0 0
24.48 0 0
24.56 0 0
24.64 0 0
24.72 0 0
24.8 0 0
24.88 0 0
24.96 0 0
25.04 0 0
25.12 0 0
25.2 0 0
25.28 0 0
25.36 0 0
25.44 0 0
25.52 0 0
25.6 0 0
25.68 0 0
25.76 0 0
25.84 0 0
25.92 0 0
26 0 0
26.08 0 0
26.16 0 0
26.24 0 0
26.32 0 0
26.4 0 0
26.48 0 0
26.56 0 0
26.64 0 0
26.72 0 0
26.8 0 0
26.88 0 0
26.96 0 0
27.04 0 0
27.12 0 0
27.2 0 0
27.28 0 0
27.36 0 0
27.44 0 0
27.52 0 0
27.6 0 0
27.68 0 0
27.76 0 0
27.84 0 0
27.92 0 0
28 0 0
28.08 0 0
28.16 0 0
28.24 0 0
28.32 0 0
28.4 0 0
28.48 0 0
28.56 0 0
28.64 0 0
28.72 0 0
28.8 0 0
28.88 0 0
28.96 0 0
29.04 0 0
29.12 0 0
29.2 0 0
29.28 0 0
29.36 0 0
29.44 0 0
29.52 0 0
29.6 0 0
29.68 0 0
29.76 0 0
29.84 0 0
29.92 0 0
30 0 0
30.08 0 0
30.16 0 0
30.24 0 0
30.32 0 0
30.4 0 0
30.48 0 0
30.56 0 0
30.64 0 0
30.72 0 0
30.8 0 0
30.88 0 0
30.96 0 0
31.04 0 0
31.12 0 0
31.2 0 0
31.28 0 0
31.36 0 0
31.44 0 0
31.52 0 0
31.6 0 0
31.68 0 0
31.76 0 0
31.84 0 0
31.92 0 0
0 0.02 0
0.08 0.02 0
0.16 0.02 0
0.24 0.02 0
0.32 0.02 0
0.4 0.02 0
0.48 0.02 0
0.56 0.02 0
0.64 0.02 0
0.72 0.02 0
0.8 0.02 0
0.88 0.02 0
0.96 0.02 0
1.04 0.02 0
1.12 0.02 0
1.2 0.02 0
1.28 0.02 0
1.36 0.02 0
1.44 0.02 0
1.52 0.02 0
1.6 0.02 0
1.68 0.02 0
1.76 0.02 0
1.84 0.02 0
1.92 0.02 0
2 0.02 0
2.08 0.02 0
2.16 0.02 0
2.24 0.02 0
2.32 0.02 0
2.4 0.02 0
2.48 0.02 0
2.56 0.02 0
2.64 0.02 0
2.72 0.02 0
2.8 0.02 0
2.88 0.02 0
2.96 0.02 0
3.04 0.02 0
3.12 0.02 0
3.2 0.02 0
3.28 0.02 0
3.36 0.02 0
3.44 0.02 0
3.52 0.02 0
3.6 0.02 0
3.68 0.02 0
3.76 0.02 0
3.84 0.02 0
3.92 0.02 0
4 0.02 0
4.08 0.02 0
4.16 0.02 0
4.24 0.02 0
4.32 0.02 0
4.4 0.02 0
4.48 0.02 0
4.56 0.02 0
4.64 0.02 0
4.72 0.02 0
4.8 0.02 0
4.88 0.02 0
4.96 0.02 0
5.04 0.02 0
5.12 0.02 0
5.2 0.02 0
5.28 0.02 0
5.36 0.02 0
5.44 0.02 0
5.52 0.02 0
5.6 0.02 0
5.68 0.02 0
5.76 0.02 0
5.84 0.02 0
5.92 0.02 0
6 0.02 0
6.08 0.02 0
6.16 0.02 0
6.24 0.02 0
6.32 0.02 0
6.4 0.02 0
6.48 0.02 0
6.56 0.02 0
6.64 0.02 0
6.72 0.02 0
6.8 0.02 0
6.88 0.02 0
6.96 0.02 0
7.04 0.02 0
7.12 0.02 0
7.2 0.02 0
7.28 0.02 0
7.36 0.02 0
7.44 0.02 0
7.52 0.02 0
7.6 0.02 0
7.68 0.02 0
7.76 0.02 0
7.84 0.02 0
7.92 0.02 0
8 0.02 0
8.08 0.02 0
8.16 0.02 0
8.24 0.02 0
8.32 0.02 0
8.4 0.02 0
8.48 0.02 0
8.56 0.02 0
8.64 0.02 0
8.72 0.02 0
8.8 0.02 0
8.88 0.02 0
8.96 0.02 0
9.04 0.02 0
9.12 0.02 0
9.2 0.02 0
9.28 0.02 0
9.36 0.02 0
9.44 0.02 0
9.52 0.02 0
9.6 0.02 0
9.68 0.02 0
9.76 0.02 0
9.84 0.02 0
9.92 0.02 0
10 0.02 0
10.08 0.02 0
10.16 0.02 0
10.24 0.02 0
10.32 0.02 0
10.4 0.02 0
10.48 0.02 0
10.56 0.02 0
10.64 0.02 0
10.72 0.02 0
10.8 0.02 0
10.88 0.02 0
10.96 0.02 0
11.04 0.02 0
11.12 0.02 0
11.2 0.02 0
11.28 0.02 0
11.36 0.02 0
11.44 0.02 0
11.52 0.02 0
11.6 0.02 0
11.68 0.02 0
11.76 0.02 0
11.84 0.02 0
11.92 0.02 0
12 0.02 0
12.08 0.02 0
12.16 0.02 0
12.24 0.02 0
12.32 0.02 0
12.4 0.02 0
12.48 0.02 0
12.56 0.02 0
12.64 0.02 0
12.72 0.02 0
12.8 0.02 0
12.88 0.02 0
12.96 0.02 0
13.04 0.02 0
13.12 0.02 0
13.2 0.02 0
13.28 0.02 0
13.36 0.02 0
13.44 0.02 0
13.52 0.02 0
13.6 0.02 0
13.68 0.02 0
13.76 0.02 0
13.84 0.02 0
13.92 0.02 0
14 0.02 0
14.08 0.02 0
14.16 0.02 0
14.24 0.02 0
14.32 0.02 0
14.4 0.02 0
14.48 0.02 0
14.56 0.02 0
14.64 0.02 0
14.72 0.02 0
14.8 0.02 0
14.88 0.02 0
14.96 0.02 0
15.04 0.02 0
15.12 0.02 0
15.2 0.02 0
15.28 0.02 0
15.36 0.02 0
15.44 0.02 0
15.52 0.02 0
15.6 0.02 0
15.68 0.02 0
15.76 0.02 0
15.84 0.02 0
15.92 0.02 0
16 0.02 0
16.08 0.02 0
16.16 0.02 0
16.24 0.02 0
16.32 0.02 0
16.4 0.02 0
16.48 0.02 0
16.56 0.02 0
16.64 0.02 0
16.72 0.02 0
16.8 0.02 0
16.88 0.02 0
16.96 0.02 0
17.04 0.02 0
17.12 0.02 0
17.2 0.02 0
17.28 0.02 0
17.36 0.02 0
17.44 0.02 0
17.52 0.02 0
17.6 0.02 0
17.68 0.02 0
17.76 0.02 0
17.84 0.02 0
17.92 0.02 0
18 0.02 0
18.08 0.02 0
18.16 0.02 0
18.24 0.02 0
18.32 0.02 0
18.4 0.02 0
18.48 0.02 0
18.56 0.02 0
18.64 0.02 0
18.72 0.02 0
18.8 0.02 0
18.88 0.02 0
18.96 0.02 0
19.04 0.02 0
19.12 0.02 0
19.2 0.02 0
19.28 0.02 0
19.36 0.02 0
19.44 0.02 0
19.52 0.02 0
19.6 0.02 0
19.68 0.02 0
19.76 0.02 0
19.84 0.02 0
19.92 0.02 0
20 0.02 0
20.08 0.02 0
20.16 0.02 0
20.24 0.02 0
20.32 0.02 0
20.4 0.02 0
20.48 0.02 0
20.56 0.02 0
20.64 0.02 0
20.72 0.02 0
20.8 0.02 0
20.88 0.02 0
20.96 0.02 0
21.04 0.02 0
21.12 0.02 0
21.2 0.02 0
21.28 0.02 0
21.36 0.02 0
21.44 0.02 0
21.52 0.02 0
21.6 0.02 0
21.68 0.02 0
21.76 0.02 0
21.84 0.02 0
21.92 0.02 0
22 0.02 0
22.08 0.02 0
22.16 0.02 0
22.24 0.02 0
22.32 0.02 0
22.4 0.02 0
22.48 0.02 0
22.56 0.02 0
22.64 0.02 0
22.72 0.02 0
22.8 0.02 0
22.88 0.02 0
22.96 0.02 0
23.04 0.02 0
23.12 0.02 0
23.2 0.02 0
23.28 0.02 0
23.36 0.02 0
23.44 0.02 0
23.52 0.02 0
23.6 0.02 0
23.68 0.02 0
23.76 0.02 0
23.84 0.02 0
23.92 0.02 0
24 0.02 0
24.08 0.02 0
24.16 0.02 0
24.24 0.02 0
24.32 0.02 0
24.4 0.02 0
24.48 0.02 0
24.56 0.02 0
24.64 0.02 0
24.72 0.02 0
24.8 0.02 0
24.88 0.02 0
24.96 0.02 0
25.04 0.02 0
25.12 0.02 0
25.2 0.02 0
25.28 0.02 0
25.36 0.02 0
25.44 0.02 0
25.52 0.02 0
25.6 0.02 0
25.68 0.02 0
25.76 0.02 0
25.84 0.02 0
25.92 0.02 0
26 0.02 0
26.08 0.02 0
26.16 0.02 0
26.24 0.02 0
26.32 0.02 0
26.4 0.02 0
26.48 0.02 0
26.56 0.02 0
26.64 0.02 0
26.72 0.02 0
26.8 0.02 0
26.88 0.02 0
26.96 0.02 0
27.04 0.02 0
27.12 0.02 0
27.2 0.02 0
27.28 0.02 0
27.36 0.02 0
27.44 0.02 0
27.52 0.02 0
27.6 0.02 0
27.68 0.02 0
27.76 0.02 0
27.84 0.02 0
27.92 0.02 0
28 0.02 0
28.08 0.02 0
28.16 0.02 0
28.24 0.02 0
28.32 0.02 0
28.4 0.02 0
28.48 0.02 0
28.56 0.02 0
28.64 0.02 0
28.72 0.02 0
28.8 0.02 0
28.88 0.02 0
28.96 0.02 0
29.04 0.02 0
29.12 0.02 0
29.2 0.02 0
29.28 0.02 0
29.36 0.02 0
29.44 0.02 0
29.52 0.02 0
29.6 0.02 0
29.68 0.02 0
29.76 0.02 0
29.84 0.02 0
29.92 0.02 0
30 0.02 0
30.08 0.02 0
30.16 0.02 0
30.24 0.02 0
30.32 0.02 0
30.4 0.02 0
30.48 0.02 0
30.56 0.02 0
30.64 0.02 0
30.72 0.02 0
30.8 0.02 0
30.88 0.02 0
30.96 0.02 0
31.04 0.02 0
31.12 0.02 0
31.2 0.02 0
31.28 0.02 0
31.36 0.02 0
31.44 0.02 0
31.52 0.02 0
31.6 0.02 0
31.68 0.02 0
31.76 0.02 0
31.84 0.02 0
31.92 0.02 0
0 0.04 0
0.08 0.04 0
0.16 0.04 0
0.24 0.04 0
0.32 0.04 0
0.4 0.04 0
0.48 0.04 0
0.56 0.04 0
0.64 0.04 0
0.72 0.04 0
0.8 0.04 0
0.88 0.04 0
0.96 0.04 0
1.04 0.04 0
1.12 0.04 0
1.2 0.04 0
1.28 0.04 0
1.36 0.04 0
1.44 0.04 0
1.52 0.04 0
1.6 0.04 0
1.68 0.04 0
1.76 0.04 0
1.84 0.04 0
1.92 0.04 0
2 0.04 0
2.08 0.04 0
2.16 0.04 0
2.24 0.04 0
2.32 0.04 0
2.4 0.04 0
2.48 0.04 0
2.56 0.04 0
2.64 0.04 0
2.72 0.04 0
2.8 0.04 0
2.88 0.04 0
2.96 0.04 0
3.04 0.04 0
3.12 0.04 0
3.2 0.04 0
3.28 0.04 0
3.36 0.04 0
3.44 0.04 0
3.52 0.04 0
3.6 0.04 0
3.68 0.04 0
3.76 0.04 0
3.84 0.04 0
3.92 0.04 0
4 0.04 0
4.08 0.04 0
4.16 0.04 0
4.24 0.04 0
4.32 0.04 0
4.4 0.04 0
4.48 0.04 0
4.56 0.04 0
4.64 0.04 0
4.72 0.04 0
4.8 0.04 0
4.88 0.04 0
4.96 0.04 0
5.04 0.04 0
5.12 0.04 0
5.2 0.04 0
5.28 0.04 0
5.36 0.04 0
5.44 0.04 0
5.52 0.04 0
5.6 0.04 0
5.68 0.04 0
5.76 0.04 0
5.84 0.04 0
5.92 0.04 0
6 0.04 0
6.08 0.04 0
6.16 0.04 0
6.24 0.04 0
6.32 0.04 0
6.4 0.04 0
6.48 0.04 0
6.56 0.04 0
6.64 0.04 0
6.72 0.04 0
6.8 0.04 0
6.88 0.04 0
6.96 0.04 0
7.04 0.04 0
7.12 0.04 0
7.2 0.04 0
7.28 0.04 0
7.36 0.04 0
7.44 0.04 0
7.52 0.04 0
7.6 0.04 0
7.68 0.04 0
7.76 0.04 0
7.84 0.04 0
[...]
POINT_DATA 20000

SCALARS v float 1
LOOKUP_TABLE default
0
0
0
0
0
0
0
0
0
0
0
0
0
0
0
0
0
0
0
0
0
0
0
0
0
0
0
0
0
0
0
0
0
0
0
0
0
0
0
0
0
0
0
0
0
0
0
0
0
0
0
0
0
0
0
0
0
0
0
0
0
0
0
0
0
0
0
0
0
0
0
0
0
0
0
0
0
0
0
0
0
0
0
0
0
0
0
0
0
0
0
0
0
0
0
0
0
0
0
0
0
0
0
0
0
0
0
0
0
0
0
0
0
0
0
0
0
0
0
0
0
0
0
0
0
0
0
0
0
0
0
0
0
0
0
0
0
0
0
0
0
0
0
0
0
0
0
0
0
0
0
0
0
0
0
0
0
0
0
0
0
0
0
0
0
0
0
0
0
0
0
0
0
0
0
0
0
0
0
0
0
0
0
0
0
0
0
0
0
0
0
0
0
0
0
0
0
0
0
0
0
0
0
0
0
0
0
0
0
0
0
0
0
0
0
0
0
0
0
0
0
0
0
0
0
0
0
0
0
0
0
0
0
0
0
0
0
0
0
0
0
0
0
0
0
0
0
0
0
0
0
0
0
0
0
0
0
0
0
0
0
0
0
0
0
0
0
0
0
0
0
0
0
0
0
0
0
0
0
0
0
0
0
0
0
0
0
0
0
0
0
0
0
0
0
0
0
0
0
0
0
0
0
0
0
0
0
0
0
0
0
0
0
0
0
0
0
0
0
0
0
0
0
0
0
0
0
0
0
0
0
0
0
0
0
0
0
0
0
0
0
0
0
0
0
0
0
0
0
0
0
0
0
0
0
0
0
0
0
0
0
0
0
0
0
0
0
0
0
0
0
0
0
0
0
0
0
0
0
0
0
0
0
0
0
0
0
0
0
0
0
0
0
0
0
0
0
0
0
0
-0.123189
0.123189
0.0537507
0.0193966
0.00873999
0.00504608
0.00334372
0.00239294
0.00180281
0.00141131
0.0011388
0.000941789
0.000794752
0.000681924
0.000593185
0.000521841
0.000463352
0.000414566
0.000373253
0.000337806
0.000307052
0.000280127
0.000256379
0.000235307
0.000216509
0.000199646
0.000184431
0.000170619
0.000158014
0.000146466
0.000135866
0.000126131
0.000117189
0.000108965
0.000101381
9.43584e-05
8.78165e-05
8.16859e-05
7.59175e-05
7.04912e-05
6.54127e-05
6.06947e-05
5.63305e-05
5.22783e-05
4.84673e-05
4.48244e-05
4.13026e-05
3.78935e-05
3.46188e-05
3.1511e-05
2.85964e-05
2.58877e-05
2.33799e-05
2.1047e-05
1.8839e-05
1.66904e-05
1.45456e-05
1.23899e-05
1.0267e-05
8.26264e-06
6.45979e-06
4.88779e-06
3.49893e-06
2.18722e-06
8.38418e-07
-6.18298e-07
-2.1843e-06
-3.79954e-06
-5.37292e-06
-6.81662e-06
-8.0728e-06
-9.13145e-06
-1.00409e-05
-1.09054e-05
-1.18598e-05
-1.30169e-05
-1.44056e-05
-1.59344e-05
-1.74141e-05
-1.86448e-05
-1.95293e-05
-2.01498e-05
-2.07528e-05
-2.16369e-05
-2.29967e-05
-2.48083e-05
-2.68264e-05
-2.87014e-05
-3.01567e-05
-3.11305e-05
-3.18029e-05
-3.24951e-05
-3.34966e-05
-3.4916e-05
-3.66311e-05
-3.83609e-05
-3.98143e-05
-4.08333e-05
-4.14596e-05
-4.18983e-05
-4.24065e-05
-4.31697e-05
-4.42269e-05
-4.54734e-05
-4.67289e-05
-4.78306e-05
-4.87033e-05
-4.93782e-05
-4.99601e-05
-5.05663e-05
-5.12701e-05
-5.20724e-05
-5.29108e-05
-5.36953e-05
-5.43509e-05
-5.4849e-05
-5.52142e-05
-5.5511e-05
-5.58153e-05
-5.61873e-05
-5.66532e-05
-5.72017e-05
-5.77933e-05
-5.83766e-05
-5.89048e-05
-5.93479e-05
-5.96968e-05
-5.99611e-05
-6.01621e-05
-6.03249e-05
-6.04714e-05
-6.06167e-05
-6.07679e-05
-6.09251e-05
-6.10847e-05
-6.12414e-05
-6.13903e-05
-6.15289e-05
-6.16565e-05
-6.17743e-05
-6.18844e-05
-6.19897e-05
-6.20924e-05
-6.21944e-05
-6.2297e-05
-6.24006e-05
-6.25052e-05
-6.26105e-05
-6.27163e-05
-6.2822e-05
-6.29274e-05
-6.30323e-05
-6.31365e-05
-6.32401e-05
-6.3343e-05
-6.34453e-05
-6.35471e-05
-6.36483e-05
-6.3749e-05
-6.38492e-05
-6.3949e-05
-6.40482e-05
-6.4147e-05
-6.42452e-05
-6.43429e-05
-6.44401e-05
-6.45367e-05
-6.46327e-05
-6.47281e-05
-6.48229e-05
-6.49171e-05
-6.50107e-05
-6.51036e-05
-6.51959e-05
-6.52876e-05
-6.53786e-05
-6.5469e-05
-6.55587e-05
-6.56477e-05
-6.57361e-05
-6.58237e-05
-6.59107e-05
-6.5997e-05
-6.60826e-05
-6.61674e-05
-6.62516e-05
-6.6335e-05
-6.64177e-05
-6.64997e-05
-6.6581e-05
-6.66615e-05
-6.67412e-05
-6.68202e-05
-6.68985e-05
-6.6976e-05
-6.70528e-05
-6.71287e-05
-6.7204e-05
-6.72784e-05
-6.73521e-05
-6.7425e-05
-6.74972e-05
-6.75685e-05
-6.76391e-05
-6.7709e-05
-6.7778e-05
-6.78463e-05
-6.79137e-05
-6.79804e-05
-6.80464e-05
-6.81115e-05
-6.81759e-05
-6.82394e-05
-6.83022e-05
-6.83643e-05
-6.84255e-05
-6.8486e-05
-6.85457e-05
-6.86047e-05
-6.86628e-05
-6.87202e-05
-6.87769e-05
-6.88328e-05
-6.88879e-05
-6.89423e-05
-6.89959e-05
-6.90488e-05
-6.91009e-05
-6.91523e-05
-6.9203e-05
-6.92529e-05
-6.93021e-05
-6.93506e-05
-6.93984e-05
-6.94454e-05
-6.94918e-05
-6.95375e-05
-6.95825e-05
-6.96268e-05
-6.96704e-05
-6.97133e-05
-6.97556e-05
-6.97972e-05
-6.98382e-05
-6.98785e-05
-6.99182e-05
-6.99572e-05
-6.99956e-05
-7.00334e-05
-7.00707e-05
-7.01073e-05
-7.01433e-05
-7.01787e-05
-7.02136e-05
-7.02479e-05
-7.02816e-05
-7.03148e-05
-7.03475e-05
-7.03796e-05
-7.04112e-05
-7.04423e-05
-7.0473e-05
-7.05031e-05
-7.05327e-05
-7.05619e-05
-7.05906e-05
-7.06189e-05
-7.06467e-05
-7.06741e-05
-7.07011e-05
-7.07276e-05
-7.07538e-05
-7.07796e-05
-7.0805e-05
-7.08301e-05
-7.08548e-05
-7.08792e-05
-7.09032e-05
-7.09269e-05
-7.09503e-05
-7.09735e-05
-7.09963e-05
-7.10189e-05
-7.10412e-05
-7.10632e-05
-7.1085e-05
-7.11066e-05
-7.1128e-05
-7.11492e-05
-7.11702e-05
-7.1191e-05
-7.12116e-05
-7.12321e-05
-7.12525e-05
-7.12727e-05
-7.12928e-05
-7.13128e-05
-7.13327e-05
-7.13525e-05
-7.13723e-05
-7.1392e-05
-7.14116e-05
-7.14312e-05
-7.14508e-05
-7.14704e-05
-7.149e-05
-7.15096e-05
-7.15292e-05
-7.15489e-05
-7.15686e-05
-7.15884e-05
-7.16082e-05
-7.16281e-05
-7.16482e-05
-7.16683e-05
-7.16885e-05
-7.17089e-05
-7.17294e-05
-7.17501e-05
-7.17709e-05
-7.17919e-05
-7.18131e-05
-7.18345e-05
-7.18561e-05
-7.18779e-05
-7.19e-05
-7.19223e-05
-7.19448e-05
-7.19676e-05
-7.19907e-05
-7.2014e-05
-7.20376e-05
-7.20615e-05
-7.20858e-05
-7.21103e-05
-7.21353e-05
-7.21604e-05
-7.21861e-05
-7.22119e-05
-7.22384e-05
-7.22649e-05
-7.22922e-05
-7.23193e-05
-7.23475e-05
-7.23754e-05
-7.24046e-05
-7.24331e-05
-7.24634e-05
-7.24925e-05
-7.2524e-05
-7.25536e-05
-7.25864e-05
-7.26166e-05
-7.26509e-05
-7.26813e-05
-7.27174e-05
-7.27479e-05
-7.27862e-05
-7.28164e-05
-7.28572e-05
-7.28866e-05
-7.29308e-05
-7.29586e-05
-7.3007e-05
-7.30322e-05
-7.30863e-05
-7.31073e-05
-7.31687e-05
-7.31839e-05
-7.32546e-05
-7.32618e-05
-7.33445e-05
-7.33407e-05
-7.3439e-05
-7.342e-05
-7.35393e-05
-7.34987e-05
-7.36474e-05
-7.35747e-05
-7.37664e-05
-7.3645e-05
-7.39005e-05
-7.37065e-05
-7.40537e-05
-7.37571e-05
-7.42275e-05
-7.3799e-05
-7.44172e-05
-7.38416e-05
-7.46109e-05
-7.38974e-05
-7.48025e-05
-7.39465e-05
-7.50338e-05
-7.38075e-05
-7.54946e-05
-7.2749e-05
-7.55881e-05
-6.87567e-05
-6.87567e-05
-0.142116
0.142116
0.100961
0.0538671
0.030209
0.0188696
0.0128778
0.00936217
0.00712822
0.00562433
0.00456695
0.00379721
0.00322016
0.00277627
0.00242683
0.00214598
0.00191599
0.0017245
0.00156268
0.00142417
0.00130432
0.00119965
0.00110753
0.00102593
0.000953207
0.00088802
0.000829252
0.000775976
0.000727451
0.000683102
0.000642486
0.000605245
0.000571055
0.000539605
0.000510586
0.000483699
0.000458665
0.000435251
0.000413293
0.00039271
0.000373487
0.00035561
0.000339004
0.0003235
0.000308873
0.000294914
0.000281507
0.000268644
0.00025639
0.000244823
0.000233995
0.000223907
0.00021451
0.000205695
0.000197296
0.000189128
0.00018106
0.000173096
0.000165391
0.000158186
0.000151668
0.00014585
0.000140532
0.000135389
0.000130123
0.000124587
0.000118837
0.000113083
0.00010759
0.000102578
9.81558e-05
9.42822e-05
9.07524e-05
8.72317e-05
8.33513e-05
7.88628e-05
7.37897e-05
6.84779e-05
6.34746e-05
5.92565e-05
5.59376e-05
5.31301e-05
5.00749e-05
4.6005e-05
4.05623e-05
3.40293e-05
2.72293e-05
2.11288e-05
1.63483e-05
1.28505e-05
9.97712e-06
6.81166e-06
2.66803e-06
-2.5589e-06
-8.35916e-06
-1.38915e-05
-1.84194e-05
-2.16656e-05
-2.39136e-05
-2.58273e-05
-2.8107e-05
-3.11665e-05
-3.49825e-05
-3.91659e-05
-4.31909e-05
-4.66516e-05
-4.9424e-05
-5.16726e-05
-5.37245e-05
-5.58903e-05
-5.83207e-05
-6.09589e-05
-6.35933e-05
-6.5972e-05
-6.79196e-05
-6.94067e-05
-7.05499e-05
-7.1555e-05
-7.26333e-05
-7.39273e-05
-7.54727e-05
-7.72009e-05
-7.8976e-05
-8.06454e-05
-8.20857e-05
-8.32305e-05
-8.40764e-05
-8.467e-05
-8.5085e-05
-8.53987e-05
-8.56737e-05
-8.5949e-05
-8.62395e-05
-8.65421e-05
-8.68433e-05
-8.71277e-05
-8.73832e-05
-8.7604e-05
-8.77908e-05
-8.79488e-05
-8.80861e-05
-8.82112e-05
-8.83311e-05
-8.8451e-05
-8.85741e-05
-8.87013e-05
-8.88324e-05
-8.89665e-05
-8.91023e-05
-8.92386e-05
-8.93747e-05
-8.95099e-05
-8.9644e-05
-8.9777e-05
-8.9909e-05
-9.00403e-05
-9.01708e-05
-9.03009e-05
-9.04306e-05
-9.05599e-05
-9.06889e-05
-9.08175e-05
-9.09458e-05
-9.10736e-05
-9.1201e-05
-9.1328e-05
-9.14544e-05
-9.15803e-05
-9.17057e-05
-9.18305e-05
-9.19548e-05
-9.20785e-05
-9.22017e-05
-9.23242e-05
-9.24462e-05
-9.25675e-05
-9.26883e-05
-9.28084e-05
-9.2928e-05
-9.30468e-05
-9.31651e-05
-9.32827e-05
-9.33996e-05
-9.35159e-05
-9.36315e-05
-9.37464e-05
-9.38606e-05
-9.39741e-05
-9.40869e-05
-9.4199e-05
-9.43104e-05
-9.44211e-05
-9.45311e-05
-9.46403e-05
-9.47488e-05
-9.48565e-05
-9.49635e-05
-9.50697e-05
-9.51752e-05
-9.52799e-05
-9.53838e-05
-9.5487e-05
-9.55894e-05
-9.56911e-05
-9.57919e-05
-9.5892e-05
-9.59913e-05
-9.60898e-05
-9.61875e-05
-9.62844e-05
-9.63805e-05
-9.64759e-05
-9.65704e-05
-9.66641e-05
-9.67571e-05
-9.68493e-05
-9.69406e-05
-9.70312e-05
-9.71209e-05
-9.72099e-05
-9.72981e-05
-9.73855e-05
-9.74721e-05
-9.75579e-05
-9.76429e-05
-9.77271e-05
-9.78105e-05
-9.78932e-05
-9.79751e-05
-9.80562e-05
-9.81365e-05
-9.8216e-05
-9.82948e-05
-9.83728e-05
-9.84501e-05
-9.85266e-05
-9.86023e-05
-9.86773e-05
-9.87516e-05
-9.88251e-05
-9.88979e-05
-9.89699e-05
-9.90412e-05
-9.91118e-05
-9.91817e-05
-9.92509e-05
-9.93194e-05
-9.93872e-05
-9.94543e-05
-9.95207e-05
-9.95864e-05
-9.96515e-05
-9.97159e-05
-9.97797e-05
-9.98428e-05
-9.99053e-05
-9.99671e-05
-0.000100028
-0.000100089
-0.000100149
-0.000100208
-0.000100267
-0.000100325
-0.000100383
-0.00010044
-0.000100497
-0.000100553
-0.000100608
-0.000100663
-0.000100717
-0.000100771
-0.000100825
-0.000100878
-0.00010093
-0.000100982
-0.000101033
-0.000101085
-0.000101135
-0.000101185
-0.000101235
-0.000101284
-0.000101333
-0.000101382
-0.00010143
-0.000101478
-0.000101525
-0.000101572
-0.000101619
-0.000101666
-0.000101712
-0.000101758
-0.000101803
-0.000101848
-0.000101893
-0.000101938
-0.000101983
-0.000102027
-0.000102071
-0.000102115
-0.000102158
-0.000102202
-0.000102245
-0.000102288
-0.000102331
-0.000102374
-0.000102416
-0.000102459
-0.000102501
-0.000102543
-0.000102586
-0.000102628
-0.00010267
-0.000102712
-0.000102753
-0.000102795
-0.000102837
-0.000102879
-0.000102921
-0.000102963
-0.000103004
-0.000103046
-0.000103088
-0.00010313
-0.000103172
-0.000103214
-0.000103256
-0.000103298
-0.000103341
-0.000103383
-0.000103426
-0.000103468
-0.000103511
-0.000103554
-0.000103597
-0.00010364
-0.000103684
-0.000103727
-0.000103771
-0.000103814
-0.000103859
-0.000103903
-0.000103948
-0.000103992
-0.000104038
-0.000104082
-0.000104129
-0.000104173
-0.000104221
-0.000104264
-0.000104314
-0.000104357
-0.000104409
-0.000104451
-0.000104505
-0.000104546
-0.000104603
-0.000104641
-0.000104703
-0.000104737
-0.000104805
-0.000104834
-0.000104909
-0.000104931
-0.000105017
-0.000105028
-0.000105129
-0.000105124
-0.000105246
-0.000105219
-0.000105368
-0.000105313
-0.000105497
-0.000105404
-0.000105636
-0.000105491
-0.000105786
-0.00010557
-0.000105957
-0.000105635
-0.000106156
-0.000105676
-0.000106399
-0.000105683
-0.000106697
-0.00010565
-0.000107056
-0.000105585
-0.00010746
-0.000105519
-0.000107877
-0.000105489
-0.000108287
-0.000105434
-0.000108838
-0.000104826
-0.000110167
-0.000101632
-0.000111173
-9.37578e-05
-9.37578e-05
-0.122193
0.122193
0.121619
0.0822209
0.0539459
0.0368133
0.0263407
0.0196621
0.0152095
0.0121221
0.00990861
0.00827534
0.00703925
0.00608213
0.00532535
0.0047154
0.00421513
0.00379826
0.00344597
0.00314455
0.00288388
0.00265641
0.00245635
0.0022792
0.00212136
0.00197988
0.00185235
0.00173679
0.00163162
0.00153561
0.00144776
0.00136725
0.00129334
0.00122533
0.00116254
0.00110434
0.00105016
0.000999548
0.000952151
0.000907783
0.00086635
0.000827759
0.000791803
0.000758131
0.000726318
0.000696002
0.000666994
0.00063929
0.000612997
0.000588229
0.000565034
0.000543371
0.000523108
0.000504016
0.000485784
0.000468091
0.000450735
0.000433755
0.000417441
0.000402197
0.000388296
0.000375685
0.00036396
0.000352536
0.00034092
0.000328916
0.000316681
0.000304615
0.000293175
0.000282705
0.000273328
0.000264894
0.000256981
0.000248973
0.000240249
0.000230447
0.000219703
0.000208685
0.000198338
0.00018939
0.000181883
0.000175005
0.000167397
0.000157823
0.000145861
0.000132212
0.00011843
0.000106162
9.63258e-05
8.86535e-05
8.18637e-05
7.43661e-05
6.51061e-05
5.40996e-05
4.23886e-05
3.14714e-05
2.25323e-05
1.58791e-05
1.08549e-05
6.22598e-06
8.07277e-07
-6.00368e-06
-1.40289e-05
-2.24982e-05
-3.04814e-05
-3.7329e-05
-4.29154e-05
-4.76037e-05
-5.19938e-05
-5.66043e-05
-6.16424e-05
-6.69526e-05
-7.21362e-05
-7.67634e-05
-8.05708e-05
-8.35621e-05
-8.59867e-05
-8.82234e-05
-9.06293e-05
-9.34182e-05
-9.6606e-05
-0.000100032
-0.000103435
-0.000106543
-0.000109153
-0.000111174
-0.00011263
-0.000113625
-0.000114304
-0.000114812
-0.000115258
-0.000115706
-0.000116178
-0.000116661
-0.000117132
-0.000117561
-0.00011793
-0.000118231
-0.000118467
-0.000118652
-0.0001188
-0.000118928
-0.000119049
-0.000119173
-0.000119302
-0.000119441
-0.000119586
-0.000119738
-0.000119892
-0.000120047
-0.000120202
-0.000120356
-0.000120507
-0.000120657
-0.000120806
-0.000120954
-0.0001211
-0.000121247
-0.000121393
-0.000121538
-0.000121684
-0.000121829
-0.000121974
-0.000122119
-0.000122264
-0.000122408
-0.000122552
-0.000122695
-0.000122837
-0.00012298
-0.000123121
-0.000123263
-0.000123403
-0.000123544
-0.000123683
-0.000123822
-0.000123961
-0.000124099
-0.000124236
-0.000124373
-0.000124509
-0.000124645
-0.00012478
-0.000124915
-0.000125048
-0.000125182
-0.000125314
-0.000125446
-0.000125577
-0.000125708
-0.000125838
-0.000125967
-0.000126096
-0.000126224
-0.000126351
-0.000126477
-0.000126603
-0.000126728
-0.000126853
-0.000126976
-0.000127099
-0.000127221
-0.000127343
-0.000127463
-0.000127583
-0.000127702
-0.000127821
-0.000127939
-0.000128055
-0.000128172
-0.000128287
-0.000128402
-0.000128515
-0.000128629
-0.000128741
-0.000128852
-0.000128963
-0.000129073
-0.000129182
-0.000129291
-0.000129398
-0.000129505
-0.000129611
-0.000129716
-0.000129821
-0.000129925
-0.000130028
-0.00013013
-0.000130231
-0.000130332
-0.000130432
-0.000130531
-0.000130629
-0.000130727
-0.000130823
-0.000130919
-0.000131015
-0.000131109
-0.000131203
-0.000131296
-0.000131388
-0.00013148
-0.00013157
-0.000131661
-0.00013175
-0.000131838
-0.000131926
-0.000132013
-0.0001321
-0.000132186
-0.000132271
-0.000132355
-0.000132439
-0.000132522
-0.000132604
-0.000132685
-0.000132766
-0.000132847
-0.000132926
-0.000133005
-0.000133084
-0.000133161
-0.000133239
-0.000133315
-0.000133391
-0.000133466
-0.000133541
-0.000133615
-0.000133688
-0.000133761
-0.000133834
-0.000133906
-0.000133977
-0.000134048
-0.000134118
-0.000134188
-0.000134257
-0.000134325
-0.000134394
-0.000134461
-0.000134529
-0.000134595
-0.000134662
-0.000134727
-0.000134793
-0.000134858
-0.000134922
-0.000134986
-0.00013505
-0.000135114
-0.000135177
-0.000135239
-0.000135301
-0.000135363
-0.000135425
-0.000135486
-0.000135547
-0.000135607
-0.000135668
-0.000135727
-0.000135787
-0.000135846
-0.000135906
-0.000135964
-0.000136023
-0.000136081
-0.000136139
-0.000136197
-0.000136255
-0.000136313
-0.00013637
-0.000136427
-0.000136484
-0.000136541
-0.000136597
-0.000136654
-0.00013671
-0.000136766
-0.000136822
-0.000136878
-0.000136934
-0.00013699
-0.000137046
-0.000137101
-0.000137157
-0.000137212
-0.000137268
-0.000137323
-0.000137379
-0.000137434
-0.000137489
-0.000137545
-0.0001376
-0.000137656
-0.000137711
-0.000137766
-0.000137821
-0.000137877
-0.000137932
-0.000137989
-0.000138043
-0.0001381
-0.000138154
-0.000138212
-0.000138265
-0.000138325
-0.000138377
-0.000138438
-0.000138489
-0.000138552
-0.000138601
-0.000138666
-0.000138713
-0.000138782
-0.000138825
-0.0001389
-0.000138936
-0.000139019
-0.000139048
-0.000139141
-0.000139158
-0.000139266
-0.000139267
-0.000139395
-0.000139373
-0.00013953
-0.000139476
-0.000139673
-0.000139575
-0.000139823
-0.000139669
-0.000139986
-0.000139756
-0.000140163
-0.000139833
-0.000140364
-0.000139892
-0.000140601
-0.00013992
-0.000140894
-0.000139899
-0.000141269
-0.00013981
-0.00014175
-0.000139645
-0.000142341
-0.000139423
-0.000143017
-0.000139202
-0.00014372
-0.000139036
-0.000144447
-0.000138779
-0.000145534
-0.000137434
-0.000148213
-0.00013168
-0.000150786
-0.000120259
-0.000120259
-0.0942496
0.0942496
0.120972
0.0969222
0.0717444
0.053147
0.040148
0.0310563
0.0246001
0.0199248
0.016469
0.0138624
0.0118577
0.0102868
0.00903379
0.00801736
0.00717975
0.00647939
0.00588605
0.0053775
0.00493719
0.00455263
0.00421421
0.00391434
0.00364697
0.00340713
0.00319079
0.00299468
0.00281619
0.00265327
0.00250424
0.00236766
0.00224225
0.00212677
0.00202008
0.00192115
0.00182906
0.00174305
0.00166257
0.00158728
0.00151695
0.00145134
0.00139006
0.00133255
0.00127815
0.00122635
0.0011769
0.00112981
0.00108521
0.00104324
0.00100392
0.000967117
0.000932598
0.000899992
0.000868831
0.000838656
0.000809195
0.000780523
0.000753062
0.000727363
0.000703761
0.000682111
0.000661779
0.000641916
0.000621842
0.000601338
0.000580688
0.000560493
0.000541398
0.000523846
0.000507939
0.000493385
0.000479518
0.00046543
0.000450246
0.000433506
0.000415475
0.000397153
0.000379874
0.000364592
0.000351233
0.00033852
0.000324481
0.000307437
0.000286967
0.000264275
0.000241704
0.000221603
0.000205152
0.000191782
0.00017953
0.000166111
0.00015013
0.000131791
0.000112734
9.51438e-05
8.06342e-05
6.94824e-05
6.05863e-05
5.2094e-05
4.23319e-05
3.05468e-05
1.71314e-05
3.29063e-06
-9.61618e-06
-2.07047e-05
-2.98804e-05
-3.77426e-05
-4.51892e-05
-5.29508e-05
-6.12781e-05
-6.98974e-05
-7.82105e-05
-8.56118e-05
-9.17661e-05
-9.67342e-05
-0.000100919
-0.000104882
-0.000109121
-0.000113899
-0.000119189
-0.000124713
-0.000130066
-0.000134854
-0.000138802
-0.000141809
-0.000143941
-0.000145381
-0.000146359
-0.000147094
-0.000147744
-0.000148399
-0.000149083
-0.000149774
-0.000150432
-0.000151017
-0.000151501
-0.000151877
-0.000152154
-0.000152353
-0.0001525
-0.000152619
-0.00015273
-0.000152845
-0.000152972
-0.000153112
-0.000153264
-0.000153424
-0.000153588
-0.000153754
-0.000153918
-0.000154081
-0.00015424
-0.000154398
-0.000154553
-0.000154707
-0.00015486
-0.000155013
-0.000155165
-0.000155317
-0.000155469
-0.000155621
-0.000155773
-0.000155925
-0.000156076
-0.000156227
-0.000156378
-0.000156528
-0.000156678
-0.000156827
-0.000156976
-0.000157124
-0.000157272
-0.000157419
-0.000157566
-0.000157712
-0.000157858
-0.000158003
-0.000158148
-0.000158292
-0.000158435
-0.000158578
-0.000158721
-0.000158862
-0.000159004
-0.000159144
-0.000159284
-0.000159423
-0.000159562
-0.0001597
-0.000159838
-0.000159974
-0.000160111
-0.000160246
-0.000160381
-0.000160515
-0.000160648
-0.000160781
-0.000160913
-0.000161044
-0.000161175
-0.000161305
-0.000161434
-0.000161562
-0.00016169
-0.000161817
-0.000161943
-0.000162069
-0.000162194
-0.000162318
-0.000162441
-0.000162564
-0.000162685
-0.000162807
-0.000162927
-0.000163046
-0.000163165
-0.000163283
-0.0001634
-0.000163517
-0.000163632
-0.000163747
-0.000163862
-0.000163975
-0.000164088
-0.000164199
-0.00016431
-0.000164421
-0.00016453
-0.000164639
-0.000164747
-0.000164854
-0.000164961
-0.000165067
-0.000165172
-0.000165276
-0.000165379
-0.000165482
-0.000165584
-0.000165685
-0.000165786
-0.000165885
-0.000165984
-0.000166083
-0.00016618
-0.000166277
-0.000166373
-0.000166468
-0.000166563
-0.000166657
-0.00016675
-0.000166843
-0.000166935
-0.000167026
-0.000167116
-0.000167206
-0.000167295
-0.000167384
-0.000167471
-0.000167558
-0.000167645
-0.000167731
-0.000167816
-0.0001679
-0.000167984
-0.000168068
-0.00016815
-0.000168233
-0.000168314
-0.000168395
-0.000168475
-0.000168555
-0.000168634
-0.000168713
-0.000168791
-0.000168868
-0.000168945
-0.000169022
-0.000169098
-0.000169173
-0.000169248
-0.000169323
-0.000169397
-0.00016947
-0.000169543
-0.000169615
-0.000169688
-0.000169759
-0.00016983
-0.000169901
-0.000169971
-0.000170041
-0.000170111
-0.00017018
-0.000170249
-0.000170317
-0.000170385
-0.000170453
-0.00017052
-0.000170587
-0.000170653
-0.000170719
-0.000170785
-0.000170851
-0.000170916
-0.000170981
-0.000171046
-0.000171111
-0.000171175
-0.000171239
-0.000171302
-0.000171366
-0.000171429
-0.000171492
-0.000171555
-0.000171618
-0.00017168
-0.000171742
-0.000171804
-0.000171866
-0.000171928
-0.000171989
-0.00017205
-0.000172112
-0.000172173