# vtk DataFile Version 2.0
FlowField
ASCII
DATASET STRUCTURED_GRID
DIMENSIONS 400 1 50
POINTS 20000 float
0 0 0
0.08 0 0
0.16 0 0
0.24 0 0
0.32 0 0
0.4 0 0
0.48 0 0
0.56 0 0
0.64 0 0
0.72 0 0
0.8 0 0
0.88 0 0
0.96 0 0
1.04 0 0
1.12 0 0
1.2 0 0
1.28 0 0
1.36 0 0
1.44 0 0
1.52 0 0
1.6 0 0
1.68 0 0
1.76 0 0
1.84 0 0
1.92 0 0
2 0 0
2.08 0 0
2.16 0 0
2.24 0 0
2.32 0 0
2.4 0 0
2.48 0 0
2.56 0 0
2.64 0 0
2.72 0 0
2.8 0 0
2.88 0 0
2.96 0 0
3.04 0 0
3.12 0 0
3.2 0 0
3.28 0 0
3.36 0 0
3.44 0 0
3.52 0 0
3.6 0 0
3.68 0 0
3.76 0 0
3.84 0 0
3.92 0 0
4 0 0
4.08 0 0
4.16 0 0
4.24 0 0
4.32 0 0
4.4 0 0
4.48 0 0
4.56 0 0
4.64 0 0
4.72 0 0
4.8 0 0
4.88 0 0
4.96 0 0
5.04 0 0
5.12 0 0
5.2 0 0
5.28 0 0
5.36 0 0
5.44 0 0
5.52 0 0
5.6 0 0
5.68 0 0
5.76 0 0
5.84 0 0
5.92 0 0
6 0 0
6.08 0 0
6.16 0 0
6.24 0 0
6.32 0 0
6.4 0 0
6.48 0 0
6.56 0 0
6.64 0 0
6.72 0 0
6.8 0 0
6.88 0 0
6.96 0 0
7.04 0 0
7.12 0 0
7.2 0 0
7.28 0 0
7.36 0 0
7.44 0 0
7.52 0 0
7.6 0 0
7.68 0 0
7.76 0 0
7.84 0 0
7.92 0 0
8 0 0
8.08 0 0
8.16 0 0
8.24 0 0
8.32 0 0
8.4 0 0
8.48 0 0
8.56 0 0
8.64 0 0
8.72 0 0
8.8 0 0
8.88 0 0
8.96 0 0
9.04 0 0
9.12 0 0
9.2 0 0
9.28 0 0
9.36 0 0
9.44 0 0
9.52 0 0
9.6 0 0
9.68 0 0
9.76 0 0
9.84 0 0
9.92 0 0
10 0 0
10.08 0 0
10.16 0 0
10.24 0 0
10.32 0 0
10.4 0 0
10.48 0 0
10.56 0 0
10.64 0 0
10.72 0 0
10.8 0 0
10.88 0 0
10.96 0 0
11.04 0 0
11.12 0 0
11.2 0 0
11.28 0 0
11.36 0 0
11.44 0 0
11.52 0 0
11.6 0 0
11.68 0 0
11.76 0 0
11.84 0 0
11.92 0 0
12 0 0
12.08 0 0
12.16 0 0
12.24 0 0
12.32 0 0
12.4 0 0
12.48 0 0
12.56 0 0
12.64 0 0
12.72 0 0
12.8 0 0
12.88 0 0
12.96 0 0
13.04 0 0
13.12 0 0
13.2 0 0
13.28 0 0
13.36 0 0
13.44 0 0
13.52 0 0
13.6 0 0
13.68 0 0
13.76 0 0
13.84 0 0
13.92 0 0
14 0 0
14.08 0 0
14.16 0 0
14.24 0 0
14.32 0 0
14.4 0 0
14.48 0 0
14.56 0 0
14.64 0 0
14.72 0 0
14.8 0 0
14.88 0 0
14.96 0 0
15.04 0 0
15.12 0 0
15.2 0 0
15.28 0 0
15.36 0 0
15.44 0 0
15.52 0 0
15.6 0 0
15.68 0 0
15.76 0 0
15.84 0 0
15.92 0 0
16 0 0
16.08 0 0
16.16 0 0
16.24 0 0
16.32 0 0
16.4 0 0
16.48 0 0
16.56 0 0
16.64 0 0
16.72 0 0
16.8 0 0
16.88 0 0
16.96 0 0
17.04 0 0
17.12 0 0
17.2 0 0
17.28 0 0
17.36 0 0
17.44 0 0
17.52 0 0
17.6 0 0
17.68 0 0
17.76 0 0
17.84 0 0
17.92 0 0
18 0 0
18.08 0 0
18.16 0 0
18.24 0 0
18.32 0 0
18.4 0 0
18.48 0 0
18.56 0 0
18.64 0 0
18.72 0 0
18.8 0 0
18.88 0 0
18.96 0 0
19.04 0 0
19.12 0 0
19.2 0 0
19.28 0 0
19.36 0 0
19.44 0 0
19.52 0 0
19.6 0 0
19.68 0 0
19.76 0 0
19.84 0 0
19.92 0 0
20 0 0
20.08 0 0
20.16 0 0
20.24 0 0
20.32 0 0
20.4 0 0
20.48 0 0
20.56 0 0
20.64 0 0
20.72 0 0
20.8 0 0
20.88 0 0
20.96 0 0
21.04 0 0
21.12 0 0
21.2 0 0
21.28 0 0
21.36 0 0
21.44 0 0
21.52 0 0
21.6 0 0
21.68 0 0
21.76 0 0
21.84 0 0
21.92 0 0
22 0 0
22.08 0 0
22.16 0 0
22.24 0 0
22.32 0 0
22.4 0 0
22.48 0 0
22.56 0 0
22.64 0 0
22.72 0 0
22.8 0 0
22.88 0 0
22.96 0 0
23.04 0 0
23.12 0 0
23.2 0 0
23.28 0 0
23.36 0 0
23.44 0 0
23.52 0 0
23.6 0 0
23.68 0 0
23.76 0 0
23.84 0 0
23.92 0 0
24 0 0
24.08 0 0
24.16 0 0
24.24 0 0
24.32 0 0
24.4 0 0
24.48 0 0
24.56 0 0
24.64 0 0
24.72 0 0
24.8 0 0
24.88 0 0
24.96 0 0
25.04 0 0
25.12 0 0
25.2 0 0
25.28 0 0
25.36 0 0
25.44 0 0
25.52 0 0
25.6 0 0
25.68 0 0
25.76 0 0
25.84 0 0
25.92 0 0
26 0 0
26.08 0 0
26.16 0 0
26.24 0 0
26.32 0 0
26.4 0 0
26.48 0 0
26.56 0 0
26.64 0 0
26.72 0 0
26.8 0 0
26.88 0 0
26.96 0 0
27.04 0 0
27.12 0 0
27.2 0 0
27.28 0 0
27.36 0 0
27.44 0 0
27.52 0 0
27.6 0 0
27.68 0 0
27.76 0 0
27.84 0 0
27.92 0 0
28 0 0
28.08 0 0
28.16 0 0
28.24 0 0
28.32 0 0
28.4 0 0
28.48 0 0
28.56 0 0
28.64 0 0
28.72 0 0
28.8 0 0
28.88 0 0
28.96 0 0
29.04 0 0
29.12 0 0
29.2 0 0
29.28 0 0
29.36 0 0
29.44 0 0
29.52 0 0
29.6 0 0
29.68 0 0
29.76 0 0
29.84 0 0
29.92 0 0
30 0 0
30.08 0 0
30.16 0 0
30.24 0 0
30.32 0 0
30.4 0 0
30.48 0 0
30.56 0 0
30.64 0 0
30.72 0 0
30.8 0 0
30.88 0 0
30.96 0 0
31.04 0 0
31.12 0 0
31.2 0 0
31.28 0 0
31.36 0 0
31.44 0 0
31.52 0 0
31.6 0 0
31.68 0 0
31.76 0 0
31.84 0 0
31.92 0 0
0 0.02 0
0.08 0.02 0
0.16 0.02 0
0.24 0.02 0
0.32 0.02 0
0.4 0.02 0
0.48 0.02 0
0.56 0.02 0
0.64 0.02 0
0.72 0.02 0
0.8 0.02 0
0.88 0.02 0
0.96 0.02 0
1.04 0.02 0
1.12 0.02 0
1.2 0.02 0
1.28 0.02 0
1.36 0.02 0
1.44 0.02 0
1.52 0.02 0
1.6 0.02 0
1.68 0.02 0
1.76 0.02 0
1.84 0.02 0
1.92 0.02 0
2 0.02 0
2.08 0.02 0
2.16 0.02 0
2.24 0.02 0
2.32 0.02 0
2.4 0.02 0
2.48 0.02 0
2.56 0.02 0
2.64 0.02 0
2.72 0.02 0
2.8 0.02 0
2.88 0.02 0
2.96 0.02 0
3.04 0.02 0
3.12 0.02 0
3.2 0.02 0
3.28 0.02 0
3.36 0.02 0
3.44 0.02 0
3.52 0.02 0
3.6 0.02 0
3.68 0.02 0
3.76 0.02 0
3.84 0.02 0
3.92 0.02 0
4 0.02 0
4.08 0.02 0
4.16 0.02 0
4.24 0.02 0
4.32 0.02 0
4.4 0.02 0
4.48 0.02 0
4.56 0.02 0
4.64 0.02 0
4.72 0.02 0
4.8 0.02 0
4.88 0.02 0
4.96 0.02 0
5.04 0.02 0
5.12 0.02 0
5.2 0.02 0
5.28 0.02 0
5.36 0.02 0
5.44 0.02 0
5.52 0.02 0
5.6 0.02 0
5.68 0.02 0
5.76 0.02 0
5.84 0.02 0
5.92 0.02 0
6 0.02 0
6.08 0.02 0
6.16 0.02 0
6.24 0.02 0
6.32 0.02 0
6.4 0.02 0
6.48 0.02 0
6.56 0.02 0
6.64 0.02 0
6.72 0.02 0
6.8 0.02 0
6.88 0.02 0
6.96 0.02 0
7.04 0.02 0
7.12 0.02 0
7.2 0.02 0
7.28 0.02 0
7.36 0.02 0
7.44 0.02 0
7.52 0.02 0
7.6 0.02 0
7.68 0.02 0
7.76 0.02 0
7.84 0.02 0
7.92 0.02 0
8 0.02 0
8.08 0.02 0
8.16 0.02 0
8.24 0.02 0
8.32 0.02 0
8.4 0.02 0
8.48 0.02 0
8.56 0.02 0
8.64 0.02 0
8.72 0.02 0
8.8 0.02 0
8.88 0.02 0
8.96 0.02 0
9.04 0.02 0
9.12 0.02 0
9.2 0.02 0
9.28 0.02 0
9.36 0.02 0
9.44 0.02 0
9.52 0.02 0
9.6 0.02 0
9.68 0.02 0
9.76 0.02 0
9.84 0.02 0
9.92 0.02 0
10 0.02 0
10.08 0.02 0
10.16 0.02 0
10.24 0.02 0
10.32 0.02 0
10.4 0.02 0
10.48 0.02 0
10.56 0.02 0
10.64 0.02 0
10.72 0.02 0
10.8 0.02 0
10.88 0.02 0
10.96 0.02 0
11.04 0.02 0
11.12 0.02 0
11.2 0.02 0
11.28 0.02 0
11.36 0.02 0
11.44 0.02 0
11.52 0.02 0
11.6 0.02 0
11.68 0.02 0
11.76 0.02 0
11.84 0.02 0
11.92 0.02 0
12 0.02 0
12.08 0.02 0
12.16 0.02 0
12.24 0.02 0
12.32 0.02 0
12.4 0.02 0
12.48 0.02 0
12.56 0.02 0
12.64 0.02 0
12.72 0.02 0
12.8 0.02 0
12.88 0.02 0
12.96 0.02 0
13.04 0.02 0
13.12 0.02 0
13.2 0.02 0
13.28 0.02 0
13.36 0.02 0
13.44 0.02 0
13.52 0.02 0
13.6 0.02 0
13.68 0.02 0
13.76 0.02 0
13.84 0.02 0
13.92 0.02 0
14 0.02 0
14.08 0.02 0
14.16 0.02 0
14.24 0.02 0
14.32 0.02 0
14.4 0.02 0
14.48 0.02 0
14.56 0.02 0
14.64 0.02 0
14.72 0.02 0
14.8 0.02 0
14.88 0.02 0
14.96 0.02 0
15.04 0.02 0
15.12 0.02 0
15.2 0.02 0
15.28 0.02 0
15.36 0.02 0
15.44 0.02 0
15.52 0.02 0
15.6 0.02 0
15.68 0.02 0
15.76 0.02 0
15.84 0.02 0
15.92 0.02 0
16 0.02 0
16.08 0.02 0
16.16 0.02 0
16.24 0.02 0
16.32 0.02 0
16.4 0.02 0
16.48 0.02 0
16.56 0.02 0
16.64 0.02 0
16.72 0.02 0
16.8 0.02 0
16.88 0.02 0
16.96 0.02 0
17.04 0.02 0
17.12 0.02 0
17.2 0.02 0
17.28 0.02 0
17.36 0.02 0
17.44 0.02 0
17.52 0.02 0
17.6 0.02 0
17.68 0.02 0
17.76 0.02 0
17.84 0.02 0
17.92 0.02 0
18 0.02 0
18.08 0.02 0
18.16 0.02 0
18.24 0.02 0
18.32 0.02 0
18.4 0.02 0
18.48 0.02 0
18.56 0.02 0
18.64 0.02 0
18.72 0.02 0
18.8 0.02 0
18.88 0.02 0
18.96 0.02 0
19.04 0.02 0
19.12 0.02 0
19.2 0.02 0
19.28 0.02 0
19.36 0.02 0
19.44 0.02 0
19.52 0.02 0
19.6 0.02 0
19.68 0.02 0
19.76 0.02 0
19.84 0.02 0
19.92 0.02 0
20 0.02 0
20.08 0.02 0
20.16 0.02 0
20.24 0.02 0
20.32 0.02 0
20.4 0.02 0
20.48 0.02 0
20.56 0.02 0
20.64 0.02 0
20.72 0.02 0
20.8 0.02 0
20.88 0.02 0
20.96 0.02 0
21.04 0.02 0
21.12 0.02 0
21.2 0.02 0
21.28 0.02 0
21.36 0.02 0
21.44 0.02 0
21.52 0.02 0
21.6 0.02 0
21.68 0.02 0
21.76 0.02 0
21.84 0.02 0
21.92 0.02 0
22 0.02 0
22.08 0.02 0
22.16 0.02 0
22.24 0.02 0
22.32 0.02 0
22.4 0.02 0
22.48 0.02 0
22.56 0.02 0
22.64 0.02 0
22.72 0.02 0
22.8 0.02 0
22.88 0.02 0
22.96 0.02 0
23.04 0.02 0
23.12 0.02 0
23.2 0.02 0
23.28 0.02 0
23.36 0.02 0
23.44 0.02 0
23.52 0.02 0
23.6 0.02 0
23.68 0.02 0
23.76 0.02 0
23.84 0.02 0
23.92 0.02 0
24 0.02 0
24.08 0.02 0
24.16 0.02 0
24.24 0.02 0
24.32 0.02 0
24.4 0.02 0
24.48 0.02 0
24.56 0.02 0
24.64 0.02 0
24.72 0.02 0
24.8 0.02 0
24.88 0.02 0
24.96 0.02 0
25.04 0.02 0
25.12 0.02 0
25.2 0.02 0
25.28 0.02 0
25.36 0.02 0
25.44 0.02 0
25.52 0.02 0
25.6 0.02 0
25.68 0.02 0
25.76 0.02 0
25.84 0.02 0
25.92 0.02 0
26 0.02 0
26.08 0.02 0
26.16 0.02 0
26.24 0.02 0
26.32 0.02 0
26.4 0.02 0
26.48 0.02 0
26.56 0.02 0
26.64 0.02 0
26.72 0.02 0
26.8 0.02 0
26.88 0.02 0
26.96 0.02 0
27.04 0.02 0
27.12 0.02 0
27.2 0.02 0
27.28 0.02 0
27.36 0.02 0
27.44 0.02 0
27.52 0.02 0
27.6 0.02 0
27.68 0.02 0
27.76 0.02 0
27.84 0.02 0
27.92 0.02 0
28 0.02 0
28.08 0.02 0
28.16 0.02 0
28.24 0.02 0
28.32 0.02 0
28.4 0.02 0
28.48 0.02 0
28.56 0.02 0
28.64 0.02 0
28.72 0.02 0
28.8 0.02 0
28.88 0.02 0
28.96 0.02 0
29.04 0.02 0
29.12 0.02 0
29.2 0.02 0
29.28 0.02 0
29.36 0.02 0
29.44 0.02 0
29.52 0.02 0
29.6 0.02 0
29.68 0.02 0
29.76 0.02 0
29.84 0.02 0
29.92 0.02 0
30 0.02 0
30.08 0.02 0
30.16 0.02 0
30.24 0.02 0
30.32 0.02 0
30.4 0.02 0
30.48 0.02 0
30.56 0.02 0
30.64 0.02 0
30.72 0.02 0
30.8 0.02 0
30.88 0.02 0
30.96 0.02 0
31.04 0.02 0
31.12 0.02 0
31.2 0.02 0
31.28 0.02 0
31.36 0.02 0
31.44 0.02 0
31.52 0.02 0
31.6 0.02 0
31.68 0.02 0
31.76 0.02 0
31.84 0.02 0
31.92 0.02 0
0 0.04 0
0.08 0.04 0
0.16 0.04 0
0.24 0.04 0
0.32 0.04 0
0.4 0.04 0
0.48 0.04 0
0.56 0.04 0
0.64 0.04 0
0.72 0.04 0
0.8 0.04 0
0.88 0.04 0
0.96 0.04 0
1.04 0.04 0
1.12 0.04 0
1.2 0.04 0
1.28 0.04 0
1.36 0.04 0
1.44 0.04 0
1.52 0.04 0
1.6 0.04 0
1.68 0.04 0
1.76 0.04 0
1.84 0.04 0
1.92 0.04 0
2 0.04 0
2.08 0.04 0
2.16 0.04 0
2.24 0.04 0
2.32 0.04 0
2.4 0.04 0
2.48 0.04 0
2.56 0.04 0
2.64 0.04 0
2.72 0.04 0
2.8 0.04 0
2.88 0.04 0
2.96 0.04 0
3.04 0.04 0
3.12 0.04 0
3.2 0.04 0
3.28 0.04 0
3.36 0.04 0
3.44 0.04 0
3.52 0.04 0
3.6 0.04 0
3.68 0.04 0
3.76 0.04 0
3.84 0.04 0
3.92 0.04 0
4 0.04 0
4.08 0.04 0
4.16 0.04 0
4.24 0.04 0
4.32 0.04 0
4.4 0.04 0
4.48 0.04 0
4.56 0.04 0
4.64 0.04 0
4.72 0.04 0
4.8 0.04 0
4.88 0.04 0
4.96 0.04 0
5.04 0.04 0
5.12 0.04 0
5.2 0.04 0
5.28 0.04 0
5.36 0.04 0
5.44 0.04 0
5.52 0.04 0
5.6 0.04 0
5.68 0.04 0
5.76 0.04 0
5.84 0.04 0
5.92 0.04 0
6 0.04 0
6.08 0.04 0
6.16 0.04 0
6.24 0.04 0
6.32 0.04 0
6.4 0.04 0
6.48 0.04 0
6.56 0.04 0
6.64 0.04 0
6.72 0.04 0
6.8 0.04 0
6.88 0.04 0
6.96 0.04 0
7.04 0.04 0
7.12 0.04 0
7.2 0.04 0
7.28 0.04 0
7.36 0.04 0
7.44 0.04 0
7.52 0.04 0
7.6 0.04 0
7.68 0.04 0
7.76 0.04 0
7.84 0.04 0
[...]
POINT_DATA 20000

SCALARS p float 1
LOOKUP_TABLE default
1
204.053
203.822
203.754
203.729
203.713
203.7
203.689
203.679
203.669
203.66
203.65
203.641
203.633
203.624
203.616
203.608
203.6
203.592
203.584
203.577
203.569
203.562
203.555
203.548
203.541
203.534
203.528
203.521
203.515
203.508
203.502
203.496
203.489
203.483
203.477
203.471
203.465
203.459
203.454
203.448
203.442
203.436
203.431
203.425
203.42
203.414
203.409
203.403
203.398
203.393
203.387
203.382
203.377
203.372
203.366
203.361
203.356
203.351
203.346
203.341
203.336
203.331
203.326
203.321
203.316
203.311
203.306
203.301
203.297
203.292
203.287
203.282
203.277
203.273
203.268
203.263
203.259
203.254
203.249
203.245
203.24
203.235
203.231
203.226
203.221
203.217
203.212
203.208
203.203
203.199
203.194
203.19
203.185
203.181
203.176
203.172
203.167
203.163
203.158
203.154
203.15
203.145
203.141
203.136
203.132
203.128
203.123
203.119
203.115
203.11
203.106
203.102
203.097
203.093
203.089
203.084
203.08
203.076
203.072
203.067
203.063
203.059
203.055
203.05
203.046
203.042
203.038
203.034
203.029
203.025
203.021
203.017
203.013
203.008
203.004
203
202.996
202.992
202.988
202.983
202.979
202.975
202.971
202.967
202.963
202.958
202.954
202.95
202.946
202.942
202.938
202.933
202.929
202.925
202.921
202.917
202.913
202.908
202.904
202.9
202.896
202.892
202.887
202.883
202.879
202.875
202.871
202.866
202.862
202.858
202.854
202.85
202.845
202.841
202.837
202.833
202.828
202.824
202.82
202.816
202.811
202.807
202.803
202.799
202.794
202.79
202.786
202.782
202.777
202.773
202.769
202.764
202.76
202.756
202.752
202.747
202.743
202.739
202.734
202.73
202.726
202.721
202.717
202.713
202.709
202.704
202.7
202.696
202.691
202.687
202.683
202.678
202.674
202.67
202.665
202.661
202.657
202.652
202.648
202.644
202.639
202.635
202.631
202.626
202.622
202.617
202.613
202.609
202.604
202.6
202.596
202.591
202.587
202.583
202.578
202.574
202.569
202.565
202.561
202.556
202.552
202.548
202.543
202.539
202.535
202.53
202.526
202.521
202.517
202.513
202.508
202.504
202.5
202.495
202.491
202.486
202.482
202.478
202.473
202.469
202.465
202.46
202.456
202.451
202.447
202.443
202.438
202.434
202.43
202.425
202.421
202.416
202.412
202.408
202.403
202.399
202.395
202.39
202.386
202.382
202.377
202.373
202.368
202.364
202.36
202.355
202.351
202.347
202.342
202.338
202.334
202.329
202.325
202.321
202.316
202.312
202.307
202.303
202.299
202.294
202.29
202.286
202.281
202.277
202.273
202.268
202.264
202.26
202.255
202.251
202.247
202.243
202.238
202.234
202.23
202.225
202.221
202.217
202.212
202.208
202.204
202.199
202.195
202.191
202.187
202.182
202.178
202.174
202.169
202.165
202.161
202.157
202.152
202.148
202.144
202.14
202.135
202.131
202.127
202.123
202.118
202.114
202.11
202.106
202.101
202.097
202.093
202.089
202.085
202.08
202.076
202.072
202.068
202.064
202.059
202.055
202.051
202.047
202.043
202.038
202.034
202.03
202.026
202.022
202.018
202.013
202.009
202.005
202.001
201.997
201.993
201.989
201.984
201.98
201.976
201.972
201.968
201.964
201.96
201.956
201.951
201.947
201.943
201.939
201.935
201.931
201.927
201.923
201.919
201.915
201.911
201.907
201.903
201.898
201.894
201.89
201.886
201.882
0.5
204.053
204.053
203.822
203.754
203.729
203.713
203.7
203.689
203.679
203.669
203.66
203.65
203.641
203.633
203.624
203.616
203.608
203.6
203.592
203.584
203.577
203.569
203.562
203.555
203.548
203.541
203.534
203.528
203.521
203.515
203.508
203.502
203.496
203.489
203.483
203.477
203.471
203.465
203.459
203.454
203.448
203.442
203.436
203.431
203.425
203.42
203.414
203.409
203.403
203.398
203.393
203.387
203.382
203.377
203.372
203.366
203.361
203.356
203.351
203.346
203.341
203.336
203.331
203.326
203.321
203.316
203.311
203.306
203.301
203.297
203.292
203.287
203.282
203.277
203.273
203.268
203.263
203.259
203.254
203.249
203.245
203.24
203.235
203.231
203.226
203.221
203.217
203.212
203.208
203.203
203.199
203.194
203.19
203.185
203.181
203.176
203.172
203.167
203.163
203.158
203.154
203.15
203.145
203.141
203.136
203.132
203.128
203.123
203.119
203.115
203.11
203.106
203.102
203.097
203.093
203.089
203.084
203.08
203.076
203.072
203.067
203.063
203.059
203.055
203.05
203.046
203.042
203.038
203.034
203.029
203.025
203.021
203.017
203.013
203.008
203.004
203
202.996
202.992
202.988
202.983
202.979
202.975
202.971
202.967
202.963
202.958
202.954
202.95
202.946
202.942
202.938
202.933
202.929
202.925
202.921
202.917
202.913
202.908
202.904
202.9
202.896
202.892
202.887
202.883
202.879
202.875
202.871
202.866
202.862
202.858
202.854
202.85
202.845
202.841
202.837
202.833
202.828
202.824
202.82
202.816
202.811
202.807
202.803
202.799
202.794
202.79
202.786
202.782
202.777
202.773
202.769
202.764
202.76
202.756
202.752
202.747
202.743
202.739
202.734
202.73
202.726
202.721
202.717
202.713
202.709
202.704
202.7
202.696
202.691
202.687
202.683
202.678
202.674
202.67
202.665
202.661
202.657
202.652
202.648
202.644
202.639
202.635
202.631
202.626
202.622
202.617
202.613
202.609
202.604
202.6
202.596
202.591
202.587
202.583
202.578
202.574
202.569
202.565
202.561
202.556
202.552
202.548
202.543
202.539
202.535
202.53
202.526
202.521
202.517
202.513
202.508
202.504
202.5
202.495
202.491
202.486
202.482
202.478
202.473
202.469
202.465
202.46
202.456
202.451
202.447
202.443
202.438
202.434
202.43
202.425
202.421
202.416
202.412
202.408
202.403
202.399
202.395
202.39
202.386
202.382
202.377
202.373
202.368
202.364
202.36
202.355
202.351
202.347
202.342
202.338
202.334
202.329
202.325
202.321
202.316
202.312
202.307
202.303
202.299
202.294
202.29
202.286
202.281
202.277
202.273
202.268
202.264
202.26
202.255
202.251
202.247
202.243
202.238
202.234
202.23
202.225
202.221
202.217
202.212
202.208
202.204
202.199
202.195
202.191
202.187
202.182
202.178
202.174
202.169
202.165
202.161
202.157
202.152
202.148
202.144
202.14
202.135
202.131
202.127
202.123
202.118
202.114
202.11
202.106
202.101
202.097
202.093
202.089
202.085
202.08
202.076
202.072
202.068
202.064
202.059
202.055
202.051
202.047
202.043
202.038
202.034
202.03
202.026
202.022
202.018
202.013
202.009
202.005
202.001
201.997
201.993
201.989
201.984
201.98
201.976
201.972
201.968
201.964
201.96
201.956
201.951
201.947
201.943
201.939
201.935
201.931
201.927
201.923
201.919
201.915
201.911
201.907
201.903
201.898
201.894
201.89
201.886
201.882
201.882
204.003
204.003
203.827
203.759
203.731
203.714
203.701
203.69
203.679
203.669
203.66
203.651
203.642
203.633
203.624
203.616
203.608
203.6
203.592
203.584
203.577
203.57
203.562
203.555
203.548
203.541
203.534
203.528
203.521
203.515
203.508
203.502
203.496
203.489
203.483
203.477
203.471
203.465
203.459
203.454
203.448
203.442
203.436
203.431
203.425
203.42
203.414
203.409
203.403
203.398
203.393
203.387
203.382
203.377
203.372
203.366
203.361
203.356
203.351
203.346
203.341
203.336
203.331
203.326
203.321
203.316
203.311
203.306
203.301
203.297
203.292
203.287
203.282
203.277
203.273
203.268
203.263
203.259
203.254
203.249
203.245
203.24
203.235
203.231
203.226
203.221
203.217
203.212
203.208
203.203
203.199
203.194
203.19
203.185
203.181
203.176
203.172
203.167
203.163
203.158
203.154
203.15
203.145
203.141
203.136
203.132
203.128
203.123
203.119
203.115
203.11
203.106
203.102
203.097
203.093
203.089
203.084
203.08
203.076
203.072
203.067
203.063
203.059
203.055
203.05
203.046
203.042
203.038
203.034
203.029
203.025
203.021
203.017
203.013
203.008
203.004
203
202.996
202.992
202.988
202.983
202.979
202.975
202.971
202.967
202.963
202.958
202.954
202.95
202.946
202.942
202.938
202.933
202.929
202.925
202.921
202.917
202.913
202.908
202.904
202.9
202.896
202.892
202.887
202.883
202.879
202.875
202.871
202.866
202.862
202.858
202.854
202.85
202.845
202.841
202.837
202.833
202.828
202.824
202.82
202.816
202.811
202.807
202.803
202.799
202.794
202.79
202.786
202.782
202.777
202.773
202.769
202.764
202.76
202.756
202.752
202.747
202.743
202.739
202.734
202.73
202.726
202.721
202.717
202.713
202.709
202.704
202.7
202.696
202.691
202.687
202.683
202.678
202.674
202.67
202.665
202.661
202.657
202.652
202.648
202.644
202.639
202.635
202.631
202.626
202.622
202.617
202.613
202.609
202.604
202.6
202.596
202.591
202.587
202.583
202.578
202.574
202.569
202.565
202.561
202.556
202.552
202.548
202.543
202.539
202.535
202.53
202.526
202.521
202.517
202.513
202.508
202.504
202.5
202.495
202.491
202.486
202.482
202.478
202.473
202.469
202.465
202.46
202.456
202.451
202.447
202.443
202.438
202.434
202.43
202.425
202.421
202.416
202.412
202.408
202.403
202.399
202.395
202.39
202.386
202.382
202.377
202.373
202.368
202.364
202.36
202.355
202.351
202.347
202.342
202.338
202.334
202.329
202.325
202.321
202.316
202.312
202.307
202.303
202.299
202.294
202.29
202.286
202.281
202.277
202.273
202.268
202.264
202.26
202.255
202.251
202.247
202.243
202.238
202.234
202.23
202.225
202.221
202.217
202.212
202.208
202.204
202.199
202.195
202.191
202.187
202.182
202.178
202.174
202.169
202.165
202.161
202.157
202.152
202.148
202.144
202.14
202.135
202.131
202.127
202.123
202.118
202.114
202.11
202.106
202.101
202.097
202.093
202.089
202.085
202.08
202.076
202.072
202.068
202.064
202.059
202.055
202.051
202.047
202.043
202.038
202.034
202.03
202.026
202.022
202.018
202.013
202.009
202.005
202.001
201.997
201.993
201.989
201.984
201.98
201.976
201.972
201.968
201.964
201.96
201.956
201.951
201.947
201.943
201.939
201.935
201.931
201.927
201.923
201.919
201.915
201.911
201.907
201.903
201.898
201.894
201.89
201.886
201.882
201.882
203.963
203.963
203.83
203.764
203.734
203.716
203.703
203.691
203.68
203.67
203.66
203.651
203.642
203.633
203.625
203.616
203.608
203.6
203.592
203.585
203.577
203.57
203.562
203.555
203.548
203.541
203.535
203.528
203.521
203.515
203.508
203.502
203.496
203.489
203.483
203.477
203.471
203.465
203.459
203.454
203.448
203.442
203.436
203.431
203.425
203.42
203.414
203.409
203.403
203.398
203.393
203.387
203.382
203.377
203.372
203.366
203.361
203.356
203.351
203.346
203.341
203.336
203.331
203.326
203.321
203.316
203.311
203.306
203.301
203.297
203.292
203.287
203.282
203.277
203.273
203.268
203.263
203.259
203.254
203.249
203.245
203.24
203.235
203.231
203.226
203.221
203.217
203.212
203.208
203.203
203.199
203.194
203.19
203.185
203.181
203.176
203.172
203.167
203.163
203.158
203.154
203.15
203.145
203.141
203.136
203.132
203.128
203.123
203.119
203.115
203.11
203.106
203.102
203.097
203.093
203.089
203.084
203.08
203.076
203.072
203.067
203.063
203.059
203.055
203.05
203.046
203.042
203.038
203.034
203.029
203.025
203.021
203.017
203.013
203.008
203.004
203
202.996
202.992
202.988
202.983
202.979
202.975
202.971
202.967
202.963
202.958
202.954
202.95
202.946
202.942
202.938
202.933
202.929
202.925
202.921
202.917
202.913
202.908
202.904
202.9
202.896
202.892
202.887
202.883
202.879
202.875
202.871
202.866
202.862
202.858
202.854
202.85
202.845
202.841
202.837
202.833
202.828
202.824
202.82
202.816
202.811
202.807
202.803
202.799
202.794
202.79
202.786
202.782
202.777
202.773
202.769
202.764
202.76
202.756
202.752
202.747
202.743
202.739
202.734
202.73
202.726
202.721
202.717
202.713
202.709
202.704
202.7
202.696
202.691
202.687
202.683
202.678
202.674
202.67
202.665
202.661
202.657
202.652
202.648
202.644
202.639
202.635
202.631
202.626
202.622
202.617
202.613
202.609
202.604
202.6
202.596
202.591
202.587
202.583
202.578
202.574
202.569
202.565
202.561
202.556
202.552
202.548
202.543
202.539
202.535
202.53
202.526
202.521
202.517
202.513
202.508
202.504
202.5
202.495
202.491
202.486
202.482
202.478
202.473
202.469
202.465
202.46
202.456
202.451
202.447
202.443
202.438
202.434
202.43
202.425
202.421
202.416
202.412
202.408
202.403
202.399
202.395
202.39
202.386
202.382
202.377
202.373
202.368
202.364
202.36
202.355
202.351
202.347
202.342
202.338
202.334
202.329
202.325
202.321
202.316
202.312
202.307
202.303
202.299
202.294
202.29
202.286
202.281
202.277
202.273
202.268
202.264
202.26
202.255
202.251
202.247
202.243
202.238
202.234
202.23
202.225
202.221
202.217
202.212
202.208
202.204
202.199
202.195
202.191
202.187
202.182
202.178
202.174
202.169
202.165
202.161
202.157
202.152
202.148
202.144
202.14
202.135
202.131
202.127
202.123
202.118
202.114
202.11
202.106
202.101
202.097
202.093
202.089
202.085
202.08
202.076
202.072
202.068
202.064
202.059
202.055
202.051
202.047
202.043
202.038
202.034
202.03
202.026
202.022
202.018
202.013
202.009
202.005
202.001
201.997
201.993
201.989
201.984
201.98
201.976
201.972
201.968
201.964
201.96
201.956
201.951
201.947
201.943
201.939
201.935
201.931
201.927
201.923
201.919
201.915
201.911
201.907
201.903
201.898
201.894
201.89
201.886
201.882
201.882
203.931
203.931
203.83
203.769
203.737
203.718
203.704
203.692
203.681
203.671
203.661
203.651
203.642
203.633
203.625
203.616
203.608
203.6
203.592
203.585
203.577
203.57
203.563
203.555
203.548
203.541
203.535
203.528
203.521
203.515
203.508
203.502
203.496
203.49
203.483
203.477
203.471
203.465
203.459
203.454
203.448
203.442
203.436
203.431
203.425
203.42
203.414
203.409
203.403
203.398
203.393
203.387
203.382
203.377
203.372
203.366
203.361
203.356
203.351
203.346
203.341
203.336
203.331
203.326
203.321
203.316
203.311
203.306
203.301
203.297
203.292
203.287
203.282
203.277
203.273
203.268
203.263
203.259
203.254
203.249
203.245
203.24
203.235
203.231
203.226
203.221
203.217
203.212
203.208
203.203
203.199
203.194
203.19
203.185
203.181
203.176
203.172
203.167
203.163
203.158
203.154
203.15
203.145
203.141
203.136
203.132
203.128
203.123
203.119
203.115
203.11
203.106
203.102
203.097
203.093
203.089
203.084
203.08
203.076
203.072
203.067
203.063
203.059
203.055
203.05
203.046
203.042
203.038
203.034
203.029
203.025
203.021
203.017
203.013
203.008
203.004
203
202.996
202.992
202.988
202.983
202.979
202.975
202.971
202.967
202.963
202.958
202.954
202.95
202.946
202.942
202.938
202.933
202.929
202.925
202.921
202.917
202.913
202.908
202.904
202.9
202.896
202.892
202.887
202.883
202.879
202.875
202.871
202.866
202.862
202.858
202.854
202.85
202.845
202.841
202.837
202.833
202.828
202.824
202.82
202.816
202.811
202.807
202.803
202.799
202.794
202.79
202.786
202.782
202.777
202.773
202.769
202.764
202.76
202.756
202.752
202.747
202.743
202.739
202.734
202.73
202.726
202.721
202.717
202.713
202.709
202.704
202.7
202.696
202.691
202.687
202.683
202.678
202.674
202.67
202.665
202.661
202.657
202.652
202.648
202.644
202.639
202.635
202.631
202.626
202.622
202.617
202.613
202.609
202.604
202.6
202.596
202.591
202.587
202.583
202.578
202.574
202.569
202.565
202.561
202.556
202.552
202.548
202.543
202.539
202.535
202.53
202.526
202.521
202.517
202.513
202.508
202.504
202.5
202.495
202.491
202.486
202.482
202.478
202.473
202.469
202.465
202.46
202.456
202.451
202.447
202.443
202.438
202.434
202.43
202.425
202.421
202.416
202.412
202.408
202.403
202.399
202.395
202.39
202.386
202.382
202.377
202.373
202.368
202.364
202.36
202.355
202.351
202.347
202.342
202.338
202.334
202.329
202.325
202.321
202.316
202.312
202.307
202.303
202.299
202.294
202.29
202.286
202.281
202.277
202.273
202.268
202.264
202.26
202.255
202.251
202.247
202.243
202.238
202.234
202.23
202.225
202.221
202.217
202.212
202.208
202.204
202.199
202.195
202.191
202.187
202.182
202.178
202.174
202.169
202.165
202.161
202.157
202.152
202.148
202.144
202.14
202.135
202.131
202.127
202.123
202.118
202.114
202.11
202.106
202.101
202.097
202.093
202.089
202.085
202.08
202.076
202.072
202.068
202.064
202.059
202.055
202.051
202.047
202.043
202.038
202.034
202.03
202.026
202.022
202.018
202.013
202.009
202.005
202.001
201.997
201.993
201.989
201.984
201.98
201.976
201.972
201.968
201.964
201.96
201.956
201.951
201.947
201.943
201.939
201.935
201.931
201.927
201.923
201.919
201.915
201.911
201.907
201.903
201.898
201.894
201.89
201.886
201.882
201.882
203.905
203.905
203.828
203.773
203.741
203.721
203.706
203.693
203.682
203.671
203.661
203.652
203.643
203.634
203.625
203.617
203.608
203.6
203.593
203.585
203.577
203.57
203.563
203.555
203.548
203.541
203.535
203.528
203.521
203.515
203.508
203.502
203.496
203.49
203.483
203.477
203.471
203.465
203.46
203.454
203.448
203.442
203.436
203.431
203.425
203.42
203.414
203.409
203.403
203.398
203.393
203.387
203.382
203.377
203.372
203.366
203.361
203.356
203.351
203.346
203.341
203.336
203.331
203.326
203.321
203.316
203.311
203.306
203.301
203.297
203.292
203.287
203.282
203.277
203.273
203.268
203.263
203.259
203.254
203.249
203.245
203.24
203.235
203.231
203.226
203.221
203.217
203.212
203.208
203.203
203.199
203.194
203.19
203.185
203.181
203.176
203.172
203.167
203.163
203.158
203.154
203.15
203.145
203.141
203.136
203.132
203.128
203.123
203.119
203.115
203.11
203.106
203.102
203.097
203.093
203.089
203.084
203.08
203.076
203.072
203.067
203.063
203.059
203.055
203.05
203.046
203.042
203.038
203.034
203.029
203.025
203.021
203.017
203.013
203.008
203.004
203
202.996
202.992
202.988
202.983
202.979
202.975
202.971
202.967
202.963
202.958
202.954
202.95
202.946
202.942
202.938
202.933
202.929
202.925
202.921
202.917
202.913
202.908
202.904
202.9
202.896
202.892
202.887
202.883
202.879
202.875
202.871
202.866
202.862
202.858
202.854
202.85
202.845
202.841
202.837
202.833
202.828
202.824
202.82
202.816
202.811
202.807
202.803
202.799
202.794
202.79
202.786
202.782
202.777
202.773
202.769
202.764
202.76
202.756
202.752
202.747
202.743
202.739
202.734
202.73
202.726
202.721
202.717
202.713
202.709
202.704
202.7
202.696
202.691
202.687
202.683
202.678
202.674
202.67
202.665
202.661
202.657
202.652
202.648
202.644
202.639
202.635
202.631
202.626
202.622
202.617
202.613
202.609
202.604
202.6
202.596
202.591
202.587
202.583
202.578
202.574
202.569
202.565
202.561
202.556
202.552
202.548
202.543
202.539
202.535
202.53
202.526
202.521
202.517
202.513
202.508
202.504
202.5
202.495
202.491
202.486
202.482
202.478
202.473
202.469
202.465
202.46
202.456
202.451
202.447
202.443
202.438
202.434
202.43
202.425
202.421
202.416
202.412
202.408
202.403
202.399
202.395
202.39
202.386
202.382
202.377
202.373
202.368
202.364
202.36
202.355
202.351
202.347
202.342
202.338
202.334
202.329
202.325
202.321
202.316
202.312
202.307
202.303
202.299
202.294
202.29
202.286
202.281
202.277
202.273
202.268
202.264
202.26
202.255
202.251
202.247
202.243
202.238
202.234
202.23
202.225
202.221
202.217
202.212
202.208
202.204
202.199
202.195
202.191
202.187
202.182
202.178
202.174
202.169
202.165
202.161
202.157
202.152
202.148
202.144
202.14
202.135
202.131
202.127
202.123
202.118
202.114
202.11
202.106
202.101
202.097
202.093
202.089
202.085
202.08
202.076
202.072
202.068
202.064
202.059
202.055
202.051
202.047
202.043
202.038
202.034
202.03
202.026
202.022
202.018
202.013
202.009
202.005
202.001
201.997
201.993
201.989
201.984
201.98
201.976
201.972
201.968
201.964
201.96
201.956
201.951
201.947
201.943
201.939
201.935
201.931
201.927
201.923
201.919
201.915
201.911
201.907
201.903
201.898
201.894
201.89
201.886
201.882
201.882
203.884
203.884
203.824
203.775
203.744
203.724
203.708
203.695
203.683
203.672
203.662
203.652
203.643
203.634
203.625
203.617
203.609
203.601
203.593
203.585
203.577
203.57
203.563
203.556
203.548
203.542
203.535
203.528
203.521
203.515
203.508
203.502
203.496
203.49
203.483
203.477
203.471
203.465
203.46
203.454
203.448
203.442
203.437
203.431
203.425
203.42
203.414
203.409
203.403
203.398
203.393
203.387
203.382
203.377
203.372
203.366
203.361
203.356
203.351
203.346
203.341
203.336
203.331
203.326
203.321
203.316
203.311
203.306
203.301
203.297
203.292
203.287
203.282
203.277
203.273
203.268
203.263
203.259
203.254
203.249
203.245
203.24
203.235
203.231
203.226
203.222
203.217
203.212
203.208
203.203
203.199
203.194
203.19
203.185
203.181
203.176
203.172
203.167
203.163
203.158
203.154
203.15
203.145
203.141
203.136
203.132
203.128
203.123
203.119
203.115
203.11
203.106
203.102
203.097
203.093
203.089
203.084
203.08
203.076
203.072
203.067
203.063
203.059
203.055
203.05
203.046
203.042
203.038
203.034
203.029