# vtk DataFile Version 2.0
FlowField
ASCII
DATASET STRUCTURED_GRID
DIMENSIONS 400 1 50
POINTS 20000 float
0 0 0
0.08 0 0
0.16 0 0
0.24 0 0
0.32 0 0
0.4 0 0
0.48 0 0
0.56 0 0
0.64 0 0
0.72 0 0
0.8 0 0
0.88 0 0
0.96 0 0
1.04 0 0
1.12 0 0
1.2 0 0
1.28 0 0
1.36 0 0
1.44 0 0
1.52 0 0
1.6 0 0
1.68 0 0
1.76 0 0
1.84 0 0
1.92 0 0
2 0 0
2.08 0 0
2.16 0 0
2.24 0 0
2.32 0 0
2.4 0 0
2.48 0 0
2.56 0 0
2.64 0 0
2.72 0 0
2.8 0 0
2.88 0 0
2.96 0 0
3.04 0 0
3.12 0 0
3.2 0 0
3.28 0 0
3.36 0 0
3.44 0 0
3.52 0 0
3.6 0 0
3.68 0 0
3.76 0 0
3.84 0 0
3.92 0 0
4 0 0
4.08 0 0
4.16 0 0
4.24 0 0
4.32 0 0
4.4 0 0
4.48 0 0
4.56 0 0
4.64 0 0
4.72 0 0
4.8 0 0
4.88 0 0
4.96 0 0
5.04 0 0
5.12 0 0
5.2 0 0
5.28 0 0
5.36 0 0
5.44 0 0
5.52 0 0
5.6 0 0
5.68 0 0
5.76 0 0
5.84 0 0
5.92 0 0
6 0 0
6.08 0 0
6.16 0 0
6.24 0 0
6.32 0 0
6.4 0 0
6.48 0 0
6.56 0 0
6.64 0 0
6.72 0 0
6.8 0 0
6.88 0 0
6.96 0 0
7.04 0 0
7.12 0 0
7.2 0 0
7.28 0 0
7.36 0 0
7.44 0 0
7.52 0 0
7.6 0 0
7.68 0 0
7.76 0 0
7.84 0 0
7.92 0 0
8 0 0
8.08 0 0
8.16 0 0
8.24 0 0
8.32 0 0
8.4 0 0
8.48 0 0
8.56 0 0
8.64 0 0
8.72 0 0
8.8 0 0
8.88 0 0
8.96 0 0
9.04 0 0
9.12 0 0
9.2 0 0
9.28 0 0
9.36 0 0
9.44 0 0
9.52 0 0
9.6 0 0
9.68 0 0
9.76 0 0
9.84 0 0
9.92 0 0
10 0 0
10.08 0 0
10.16 0 0
10.24 0 0
10.32 0 0
10.4 0 0
10.48 0 0
10.56 0 0
10.64 0 0
10.72 0 0
10.8 0 0
10.88 0 0
10.96 0 0
11.04 0 0
11.12 0 0
11.2 0 0
11.28 0 0
11.36 0 0
11.44 0 0
11.52 0 0
11.6 0 0
11.68 0 0
11.76 0 0
11.84 0 0
11.92 0 0
12 0 0
12.08 0 0
12.16 0 0
12.24 0 0
12.32 0 0
12.4 0 0
12.48 0 0
12.56 0 0
12.64 0 0
12.72 0 0
12.8 0 0
12.88 0 0
12.96 0 0
13.04 0 0
13.12 0 0
13.2 0 0
13.28 0 0
13.36 0 0
13.44 0 0
13.52 0 0
13.6 0 0
13.68 0 0
13.76 0 0
13.84 0 0
13.92 0 0
14 0 0
14.08 0 0
14.16 0 0
14.24 0 0
14.32 0 0
14.4 0 0
14.48 0 0
14.56 0 0
14.64 0 0
14.72 0 0
14.8 0 0
14.88 0 0
14.96 0 0
15.04 0 0
15.12 0 0
15.2 0 0
15.28 0 0
15.36 0 0
15.44 0 0
15.52 0 0
15.6 0 0
15.68 0 0
15.76 0 0
15.84 0 0
15.92 0 0
16 0 0
16.08 0 0
16.16 0 0
16.24 0 0
16.32 0 0
16.4 0 0
16.48 0 0
16.56 0 0
16.64 0 0
16.72 0 0
16.8 0 0
16.88 0 0
16.96 0 0
17.04 0 0
17.12 0 0
17.2 0 0
17.28 0 0
17.36 0 0
17.44 0 0
17.52 0 0
17.6 0 0
17.68 0 0
17.76 0 0
17.84 0 0
17.92 0 0
18 0 0
18.08 0 0
18.16 0 0
18.24 0 0
18.32 0 0
18.4 0 0
18.48 0 0
18.56 0 0
18.64 0 0
18.72 0 0
18.8 0 0
18.88 0 0
18.96 0 0
19.04 0 0
19.12 0 0
19.2 0 0
19.28 0 0
19.36 0 0
19.44 0 0
19.52 0 0
19.6 0 0
19.68 0 0
19.76 0 0
19.84 0 0
19.92 0 0
20 0 0
20.08 0 0
20.16 0 0
20.24 0 0
20.32 0 0
20.4 0 0
20.48 0 0
20.56 0 0
20.64 0 0
20.72 0 0
20.8 0 0
20.88 0 0
20.96 0 0
21.04 0 0
21.12 0 0
21.2 0 0
21.28 0 0
21.36 0 0
21.44 0 0
21.52 0 0
21.6 0 0
21.68 0 0
21.76 0 0
21.84 0 0
21.92 0 0
22 0 0
22.08 0 0
22.16 0 0
22.24 0 0
22.32 0 0
22.4 0 0
22.48 0 0
22.56 0 0
22.64 0 0
22.72 0 0
22.8 0 0
22.88 0 0
22.96 0 0
23.04 0 0
23.12 0 0
23.2 0 0
23.28 0 0
23.36 0 0
23.44 0 0
23.52 0 0
23.6 0 0
23.68 0 0
23.76 0 0
23.84 0 0
23.92 0 0
24 0 0
24.08 0 0
24.16 0 0
24.24 0 0
24.32 0 0
24.4 0 0
24.48 0 0
24.56 0 0
24.64 0 0
24.72 0 0
24.8 0 0
24.88 0 0
24.96 0 0
25.04 0 0
25.12 0 0
25.2 0 0
25.28 0 0
25.36 0 0
25.44 0 0
25.52 0 0
25.6 0 0
25.68 0 0
25.76 0 0
25.84 0 0
25.92 0 0
26 0 0
26.08 0 0
26.16 0 0
26.24 0 0
26.32 0 0
26.4 0 0
26.48 0 0
26.56 0 0
26.64 0 0
26.72 0 0
26.8 0 0
26.88 0 0
26.96 0 0
27.04 0 0
27.12 0 0
27.2 0 0
27.28 0 0
27.36 0 0
27.44 0 0
27.52 0 0
27.6 0 0
27.68 0 0
27.76 0 0
27.84 0 0
27.92 0 0
28 0 0
28.08 0 0
28.16 0 0
28.24 0 0
28.32 0 0
28.4 0 0
28.48 0 0
28.56 0 0
28.64 0 0
28.72 0 0
28.8 0 0
28.88 0 0
28.96 0 0
29.04 0 0
29.12 0 0
29.2 0 0
29.28 0 0
29.36 0 0
29.44 0 0
29.52 0 0
29.6 0 0
29.68 0 0
29.76 0 0
29.84 0 0
29.92 0 0
30 0 0
30.08 0 0
30.16 0 0
30.24 0 0
30.32 0 0
30.4 0 0
30.48 0 0
30.56 0 0
30.64 0 0
30.72 0 0
30.8 0 0
30.88 0 0
30.96 0 0
31.04 0 0
31.12 0 0
31.2 0 0
31.28 0 0
31.36 0 0
31.44 0 0
31.52 0 0
31.6 0 0
31.68 0 0
31.76 0 0
31.84 0 0
31.92 0 0
0 0.02 0
0.08 0.02 0
0.16 0.02 0
0.24 0.02 0
0.32 0.02 0
0.4 0.02 0
0.48 0.02 0
0.56 0.02 0
0.64 0.02 0
0.72 0.02 0
0.8 0.02 0
0.88 0.02 0
0.96 0.02 0
1.04 0.02 0
1.12 0.02 0
1.2 0.02 0
1.28 0.02 0
1.36 0.02 0
1.44 0.02 0
1.52 0.02 0
1.6 0.02 0
1.68 0.02 0
1.76 0.02 0
1.84 0.02 0
1.92 0.02 0
2 0.02 0
2.08 0.02 0
2.16 0.02 0
2.24 0.02 0
2.32 0.02 0
2.4 0.02 0
2.48 0.02 0
2.56 0.02 0
2.64 0.02 0
2.72 0.02 0
2.8 0.02 0
2.88 0.02 0
2.96 0.02 0
3.04 0.02 0
3.12 0.02 0
3.2 0.02 0
3.28 0.02 0
3.36 0.02 0
3.44 0.02 0
3.52 0.02 0
3.6 0.02 0
3.68 0.02 0
3.76 0.02 0
3.84 0.02 0
3.92 0.02 0
4 0.02 0
4.08 0.02 0
4.16 0.02 0
4.24 0.02 0
4.32 0.02 0
4.4 0.02 0
4.48 0.02 0
4.56 0.02 0
4.64 0.02 0
4.72 0.02 0
4.8 0.02 0
4.88 0.02 0
4.96 0.02 0
5.04 0.02 0
5.12 0.02 0
5.2 0.02 0
5.28 0.02 0
5.36 0.02 0
5.44 0.02 0
5.52 0.02 0
5.6 0.02 0
5.68 0.02 0
5.76 0.02 0
5.84 0.02 0
5.92 0.02 0
6 0.02 0
6.08 0.02 0
6.16 0.02 0
6.24 0.02 0
6.32 0.02 0
6.4 0.02 0
6.48 0.02 0
6.56 0.02 0
6.64 0.02 0
6.72 0.02 0
6.8 0.02 0
6.88 0.02 0
6.96 0.02 0
7.04 0.02 0
7.12 0.02 0
7.2 0.02 0
7.28 0.02 0
7.36 0.02 0
7.44 0.02 0
7.52 0.02 0
7.6 0.02 0
7.68 0.02 0
7.76 0.02 0
7.84 0.02 0
7.92 0.02 0
8 0.02 0
8.08 0.02 0
8.16 0.02 0
8.24 0.02 0
8.32 0.02 0
8.4 0.02 0
8.48 0.02 0
8.56 0.02 0
8.64 0.02 0
8.72 0.02 0
8.8 0.02 0
8.88 0.02 0
8.96 0.02 0
9.04 0.02 0
9.12 0.02 0
9.2 0.02 0
9.28 0.02 0
9.36 0.02 0
9.44 0.02 0
9.52 0.02 0
9.6 0.02 0
9.68 0.02 0
9.76 0.02 0
9.84 0.02 0
9.92 0.02 0
10 0.02 0
10.08 0.02 0
10.16 0.02 0
10.24 0.02 0
10.32 0.02 0
10.4 0.02 0
10.48 0.02 0
10.56 0.02 0
10.64 0.02 0
10.72 0.02 0
10.8 0.02 0
10.88 0.02 0
10.96 0.02 0
11.04 0.02 0
11.12 0.02 0
11.2 0.02 0
11.28 0.02 0
11.36 0.02 0
11.44 0.02 0
11.52 0.02 0
11.6 0.02 0
11.68 0.02 0
11.76 0.02 0
11.84 0.02 0
11.92 0.02 0
12 0.02 0
12.08 0.02 0
12.16 0.02 0
12.24 0.02 0
12.32 0.02 0
12.4 0.02 0
12.48 0.02 0
12.56 0.02 0
12.64 0.02 0
12.72 0.02 0
12.8 0.02 0
12.88 0.02 0
12.96 0.02 0
13.04 0.02 0
13.12 0.02 0
13.2 0.02 0
13.28 0.02 0
13.36 0.02 0
13.44 0.02 0
13.52 0.02 0
13.6 0.02 0
13.68 0.02 0
13.76 0.02 0
13.84 0.02 0
13.92 0.02 0
14 0.02 0
14.08 0.02 0
14.16 0.02 0
14.24 0.02 0
14.32 0.02 0
14.4 0.02 0
14.48 0.02 0
14.56 0.02 0
14.64 0.02 0
14.72 0.02 0
14.8 0.02 0
14.88 0.02 0
14.96 0.02 0
15.04 0.02 0
15.12 0.02 0
15.2 0.02 0
15.28 0.02 0
15.36 0.02 0
15.44 0.02 0
15.52 0.02 0
15.6 0.02 0
15.68 0.02 0
15.76 0.02 0
15.84 0.02 0
15.92 0.02 0
16 0.02 0
16.08 0.02 0
16.16 0.02 0
16.24 0.02 0
16.32 0.02 0
16.4 0.02 0
16.48 0.02 0
16.56 0.02 0
16.64 0.02 0
16.72 0.02 0
16.8 0.02 0
16.88 0.02 0
16.96 0.02 0
17.04 0.02 0
17.12 0.02 0
17.2 0.02 0
17.28 0.02 0
17.36 0.02 0
17.44 0.02 0
17.52 0.02 0
17.6 0.02 0
17.68 0.02 0
17.76 0.02 0
17.84 0.02 0
17.92 0.02 0
18 0.02 0
18.08 0.02 0
18.16 0.02 0
18.24 0.02 0
18.32 0.02 0
18.4 0.02 0
18.48 0.02 0
18.56 0.02 0
18.64 0.02 0
18.72 0.02 0
18.8 0.02 0
18.88 0.02 0
18.96 0.02 0
19.04 0.02 0
19.12 0.02 0
19.2 0.02 0
19.28 0.02 0
19.36 0.02 0
19.44 0.02 0
19.52 0.02 0
19.6 0.02 0
19.68 0.02 0
19.76 0.02 0
19.84 0.02 0
19.92 0.02 0
20 0.02 0
20.08 0.02 0
20.16 0.02 0
20.24 0.02 0
20.32 0.02 0
20.4 0.02 0
20.48 0.02 0
20.56 0.02 0
20.64 0.02 0
20.72 0.02 0
20.8 0.02 0
20.88 0.02 0
20.96 0.02 0
21.04 0.02 0
21.12 0.02 0
21.2 0.02 0
21.28 0.02 0
21.36 0.02 0
21.44 0.02 0
21.52 0.02 0
21.6 0.02 0
21.68 0.02 0
21.76 0.02 0
21.84 0.02 0
21.92 0.02 0
22 0.02 0
22.08 0.02 0
22.16 0.02 0
22.24 0.02 0
22.32 0.02 0
22.4 0.02 0
22.48 0.02 0
22.56 0.02 0
22.64 0.02 0
22.72 0.02 0
22.8 0.02 0
22.88 0.02 0
22.96 0.02 0
23.04 0.02 0
23.12 0.02 0
23.2 0.02 0
23.28 0.02 0
23.36 0.02 0
23.44 0.02 0
23.52 0.02 0
23.6 0.02 0
23.68 0.02 0
23.76 0.02 0
23.84 0.02 0
23.92 0.02 0
24 0.02 0
24.08 0.02 0
24.16 0.02 0
24.24 0.02 0
24.32 0.02 0
24.4 0.02 0
24.48 0.02 0
24.56 0.02 0
24.64 0.02 0
24.72 0.02 0
24.8 0.02 0
24.88 0.02 0
24.96 0.02 0
25.04 0.02 0
25.12 0.02 0
25.2 0.02 0
25.28 0.02 0
25.36 0.02 0
25.44 0.02 0
25.52 0.02 0
25.6 0.02 0
25.68 0.02 0
25.76 0.02 0
25.84 0.02 0
25.92 0.02 0
26 0.02 0
26.08 0.02 0
26.16 0.02 0
26.24 0.02 0
26.32 0.02 0
26.4 0.02 0
26.48 0.02 0
26.56 0.02 0
26.64 0.02 0
26.72 0.02 0
26.8 0.02 0
26.88 0.02 0
26.96 0.02 0
27.04 0.02 0
27.12 0.02 0
27.2 0.02 0
27.28 0.02 0
27.36 0.02 0
27.44 0.02 0
27.52 0.02 0
27.6 0.02 0
27.68 0.02 0
27.76 0.02 0
27.84 0.02 0
27.92 0.02 0
28 0.02 0
28.08 0.02 0
28.16 0.02 0
28.24 0.02 0
28.32 0.02 0
28.4 0.02 0
28.48 0.02 0
28.56 0.02 0
28.64 0.02 0
28.72 0.02 0
28.8 0.02 0
28.88 0.02 0
28.96 0.02 0
29.04 0.02 0
29.12 0.02 0
29.2 0.02 0
29.28 0.02 0
29.36 0.02 0
29.44 0.02 0
29.52 0.02 0
29.6 0.02 0
29.68 0.02 0
29.76 0.02 0
29.84 0.02 0
29.92 0.02 0
30 0.02 0
30.08 0.02 0
30.16 0.02 0
30.24 0.02 0
30.32 0.02 0
30.4 0.02 0
30.48 0.02 0
30.56 0.02 0
30.64 0.02 0
30.72 0.02 0
30.8 0.02 0
30.88 0.02 0
30.96 0.02 0
31.04 0.02 0
31.12 0.02 0
31.2 0.02 0
31.28 0.02 0
31.36 0.02 0
31.44 0.02 0
31.52 0.02 0
31.6 0.02 0
31.68 0.02 0
31.76 0.02 0
31.84 0.02 0
31.92 0.02 0
0 0.04 0
0.08 0.04 0
0.16 0.04 0
0.24 0.04 0
0.32 0.04 0
0.4 0.04 0
0.48 0.04 0
0.56 0.04 0
0.64 0.04 0
0.72 0.04 0
0.8 0.04 0
0.88 0.04 0
0.96 0.04 0
1.04 0.04 0
1.12 0.04 0
1.2 0.04 0
1.28 0.04 0
1.36 0.04 0
1.44 0.04 0
1.52 0.04 0
1.6 0.04 0
1.68 0.04 0
1.76 0.04 0
1.84 0.04 0
1.92 0.04 0
2 0.04 0
2.08 0.04 0
2.16 0.04 0
2.24 0.04 0
2.32 0.04 0
2.4 0.04 0
2.48 0.04 0
2.56 0.04 0
2.64 0.04 0
2.72 0.04 0
2.8 0.04 0
2.88 0.04 0
2.96 0.04 0
3.04 0.04 0
3.12 0.04 0
3.2 0.04 0
3.28 0.04 0
3.36 0.04 0
3.44 0.04 0
3.52 0.04 0
3.6 0.04 0
3.68 0.04 0
3.76 0.04 0
3.84 0.04 0
3.92 0.04 0
4 0.04 0
4.08 0.04 0
4.16 0.04 0
4.24 0.04 0
4.32 0.04 0
4.4 0.04 0
4.48 0.04 0
4.56 0.04 0
4.64 0.04 0
4.72 0.04 0
4.8 0.04 0
4.88 0.04 0
4.96 0.04 0
5.04 0.04 0
5.12 0.04 0
5.2 0.04 0
5.28 0.04 0
5.36 0.04 0
5.44 0.04 0
5.52 0.04 0
5.6 0.04 0
5.68 0.04 0
5.76 0.04 0
5.84 0.04 0
5.92 0.04 0
6 0.04 0
6.08 0.04 0
6.16 0.04 0
6.24 0.04 0
6.32 0.04 0
6.4 0.04 0
6.48 0.04 0
6.56 0.04 0
6.64 0.04 0
6.72 0.04 0
6.8 0.04 0
6.88 0.04 0
6.96 0.04 0
7.04 0.04 0
7.12 0.04 0
7.2 0.04 0
7.28 0.04 0
7.36 0.04 0
7.44 0.04 0
7.52 0.04 0
7.6 0.04 0
7.68 0.04 0
7.76 0.04 0
7.84 0.04 0
[...]
POINT_DATA 20000

SCALARS p float 1
LOOKUP_TABLE default
1
154.397
154.167
154.101
154.076
154.062
154.051
154.042
154.033
154.026
154.019
154.012
154.006
154
153.995
153.99
153.986
153.982
153.978
153.975
153.972
153.969
153.967
153.965
153.963
153.962
153.961
153.961
153.961
153.961
153.961
153.963
153.964
153.966
153.968
153.97
153.973
153.976
153.98
153.984
153.988
153.992
153.997
154.002
154.007
154.012
154.018
154.024
154.031
154.037
154.044
154.051
154.059
154.067
154.075
154.083
154.092
154.1
154.11
154.119
154.128
154.138
154.148
154.159
154.169
154.18
154.191
154.203
154.214
154.226
154.238
154.251
154.264
154.277
154.29
154.303
154.317
154.331
154.346
154.36
154.375
154.39
154.406
154.421
154.437
154.454
154.47
154.487
154.504
154.521
154.539
154.557
154.575
154.593
154.612
154.631
154.65
154.67
154.69
154.71
154.73
154.751
154.771
154.792
154.814
154.836
154.857
154.88
154.902
154.925
154.948
154.971
154.994
155.018
155.042
155.066
155.09
155.115
155.14
155.165
155.19
155.216
155.242
155.268
155.294
155.321
155.347
155.374
155.402
155.429
155.456
155.484
155.512
155.54
155.569
155.597
155.626
155.655
155.684
155.713
155.743
155.772
155.802
155.832
155.862
155.892
155.922
155.953
155.983
156.014
156.045
156.076
156.107
156.138
156.17
156.201
156.233
156.264
156.296
156.328
156.36
156.392
156.424
156.456
156.488
156.52
156.553
156.585
156.617
156.65
156.682
156.715
156.747
156.779
156.812
156.844
156.877
156.909
156.942
156.974
157.007
157.039
157.072
157.104
157.136
157.168
157.201
157.233
157.265
157.297
157.329
157.361
157.393
157.424
157.456
157.487
157.519
157.55
157.581
157.613
157.644
157.674
157.705
157.736
157.766
157.797
157.827
157.857
157.887
157.917
157.946
157.976
158.005
158.034
158.063
158.092
158.12
158.149
158.177
158.205
158.233
158.26
158.288
158.315
158.342
158.369
158.396
158.422
158.448
158.474
158.5
158.525
158.551
158.576
158.601
158.625
158.65
158.674
158.698
158.722
158.745
158.768
158.791
158.814
158.836
158.859
158.881
158.902
158.924
158.945
158.966
158.987
159.007
159.028
159.048
159.067
159.087
159.106
159.125
159.144
159.162
159.18
159.198
159.216
159.233
159.251
159.268
159.284
159.301
159.317
159.333
159.348
159.364
159.379
159.394
159.408
159.423
159.437
159.45
159.464
159.477
159.491
159.503
159.516
159.528
159.54
159.552
159.564
159.575
159.586
159.597
159.608
159.618
159.629
159.639
159.648
159.658
159.667
159.676
159.685
159.693
159.702
159.71
159.718
159.725
159.733
159.74
159.747
159.754
159.76
159.766
159.773
159.779
159.784
159.79
159.795
159.8
159.805
159.81
159.814
159.818
159.822
159.826
159.83
159.833
159.837
159.84
159.843
159.845
159.848
159.85
159.852
159.854
159.856
159.858
159.859
159.86
159.861
159.862
159.863
159.864
159.864
159.864
159.864
159.864
159.864
159.863
159.862
159.862
159.861
159.86
159.858
159.857
159.855
159.853
159.851
159.849
159.847
159.844
159.842
159.839
159.836
159.833
159.83
159.827
159.823
159.819
159.816
159.812
159.808
159.803
159.799
159.794
159.79
159.785
159.78
159.775
159.769
159.764
159.758
159.753
159.747
159.741
159.734
159.728
159.722
159.715
159.708
159.701
159.694
159.687
159.68
159.672
159.665
159.657
159.649
159.641
159.633
159.624
0.5
154.397
154.397
154.167
154.101
154.076
154.062
154.051
154.042
154.033
154.026
154.019
154.012
154.006
154
153.995
153.99
153.986
153.982
153.978
153.975
153.972
153.969
153.967
153.965
153.963
153.962
153.961
153.961
153.961
153.961
153.961
153.963
153.964
153.966
153.968
153.97
153.973
153.976
153.98
153.984
153.988
153.992
153.997
154.002
154.007
154.012
154.018
154.024
154.031
154.037
154.044
154.051
154.059
154.067
154.075
154.083
154.092
154.1
154.11
154.119
154.128
154.138
154.148
154.159
154.169
154.18
154.191
154.203
154.214
154.226
154.238
154.251
154.264
154.277
154.29
154.303
154.317
154.331
154.346
154.36
154.375
154.39
154.406
154.421
154.437
154.454
154.47
154.487
154.504
154.521
154.539
154.557
154.575
154.593
154.612
154.631
154.65
154.67
154.69
154.71
154.73
154.751
154.771
154.792
154.814
154.836
154.857
154.88
154.902
154.925
154.948
154.971
154.994
155.018
155.042
155.066
155.09
155.115
155.14
155.165
155.19
155.216
155.242
155.268
155.294
155.321
155.347
155.374
155.402
155.429
155.456
155.484
155.512
155.54
155.569
155.597
155.626
155.655
155.684
155.713
155.743
155.772
155.802
155.832
155.862
155.892
155.922
155.953
155.983
156.014
156.045
156.076
156.107
156.138
156.17
156.201
156.233
156.264
156.296
156.328
156.36
156.392
156.424
156.456
156.488
156.52
156.553
156.585
156.617
156.65
156.682
156.715
156.747
156.779
156.812
156.844
156.877
156.909
156.942
156.974
157.007
157.039
157.072
157.104
157.136
157.168
157.201
157.233
157.265
157.297
157.329
157.361
157.393
157.424
157.456
157.487
157.519
157.55
157.581
157.613
157.644
157.674
157.705
157.736
157.766
157.797
157.827
157.857
157.887
157.917
157.946
157.976
158.005
158.034
158.063
158.092
158.12
158.149
158.177
158.205
158.233
158.26
158.288
158.315
158.342
158.369
158.396
158.422
158.448
158.474
158.5
158.525
158.551
158.576
158.601
158.625
158.65
158.674
158.698
158.722
158.745
158.768
158.791
158.814
158.836
158.859
158.881
158.902
158.924
158.945
158.966
158.987
159.007
159.028
159.048
159.067
159.087
159.106
159.125
159.144
159.162
159.18
159.198
159.216
159.233
159.251
159.268
159.284
159.301
159.317
159.333
159.348
159.364
159.379
159.394
159.408
159.423
159.437
159.45
159.464
159.477
159.491
159.503
159.516
159.528
159.54
159.552
159.564
159.575
159.586
159.597
159.608
159.618
159.629
159.639
159.648
159.658
159.667
159.676
159.685
159.693
159.702
159.71
159.718
159.725
159.733
159.74
159.747
159.754
159.76
159.766
159.773
159.779
159.784
159.79
159.795
159.8
159.805
159.81
159.814
159.818
159.822
159.826
159.83
159.833
159.837
159.84
159.843
159.845
159.848
159.85
159.852
159.854
159.856
159.858
159.859
159.86
159.861
159.862
159.863
159.864
159.864
159.864
159.864
159.864
159.864
159.863
159.862
159.862
159.861
159.86
159.858
159.857
159.855
159.853
159.851
159.849
159.847
159.844
159.842
159.839
159.836
159.833
159.83
159.827
159.823
159.819
159.816
159.812
159.808
159.803
159.799
159.794
159.79
159.785
159.78
159.775
159.769
159.764
159.758
159.753
159.747
159.741
159.734
159.728
159.722
159.715
159.708
159.701
159.694
159.687
159.68
159.672
159.665
159.657
159.649
159.641
159.633
159.624
159.624
154.347
154.347
154.172
154.105
154.079
154.064
154.052
154.042
154.034
154.026
154.019
154.012
154.006
154.001
153.995
153.99
153.986
153.982
153.978
153.975
153.972
153.969
153.967
153.965
153.964
153.962
153.962
153.961
153.961
153.961
153.962
153.963
153.964
153.966
153.968
153.97
153.973
153.976
153.98
153.984
153.988
153.992
153.997
154.002
154.007
154.013
154.018
154.024
154.031
154.037
154.044
154.052
154.059
154.067
154.075
154.083
154.092
154.101
154.11
154.119
154.128
154.138
154.148
154.159
154.169
154.18
154.191
154.203
154.214
154.226
154.239
154.251
154.264
154.277
154.29
154.303
154.317
154.331
154.346
154.36
154.375
154.39
154.406
154.421
154.437
154.454
154.47
154.487
154.504
154.521
154.539
154.557
154.575
154.593
154.612
154.631
154.65
154.67
154.69
154.71
154.73
154.751
154.771
154.793
154.814
154.836
154.858
154.88
154.902
154.925
154.948
154.971
154.994
155.018
155.042
155.066
155.091
155.115
155.14
155.165
155.191
155.216
155.242
155.268
155.294
155.321
155.348
155.374
155.402
155.429
155.457
155.484
155.512
155.54
155.569
155.597
155.626
155.655
155.684
155.713
155.743
155.772
155.802
155.832
155.862
155.892
155.922
155.953
155.984
156.014
156.045
156.076
156.107
156.139
156.17
156.201
156.233
156.265
156.296
156.328
156.36
156.392
156.424
156.456
156.488
156.52
156.553
156.585
156.617
156.65
156.682
156.715
156.747
156.78
156.812
156.845
156.877
156.909
156.942
156.974
157.007
157.039
157.072
157.104
157.136
157.169
157.201
157.233
157.265
157.297
157.329
157.361
157.393
157.424
157.456
157.487
157.519
157.55
157.581
157.613
157.644
157.674
157.705
157.736
157.766
157.797
157.827
157.857
157.887
157.917
157.946
157.976
158.005
158.034
158.063
158.092
158.12
158.149
158.177
158.205
158.233
158.26
158.288
158.315
158.342
158.369
158.396
158.422
158.448
158.474
158.5
158.526
158.551
158.576
158.601
158.625
158.65
158.674
158.698
158.722
158.745
158.768
158.791
158.814
158.837
158.859
158.881
158.903
158.924
158.945
158.966
158.987
159.007
159.028
159.048
159.067
159.087
159.106
159.125
159.144
159.162
159.18
159.198
159.216
159.233
159.251
159.268
159.284
159.301
159.317
159.333
159.348
159.364
159.379
159.394
159.408
159.423
159.437
159.45
159.464
159.477
159.491
159.503
159.516
159.528
159.54
159.552
159.564
159.575
159.586
159.597
159.608
159.618
159.629
159.639
159.648
159.658
159.667
159.676
159.685
159.693
159.702
159.71
159.718
159.725
159.733
159.74
159.747
159.754
159.76
159.766
159.773
159.779
159.784
159.79
159.795
159.8
159.805
159.81
159.814
159.818
159.822
159.826
159.83
159.833
159.837
159.84
159.843
159.845
159.848
159.85
159.852
159.854
159.856
159.858
159.859
159.86
159.861
159.862
159.863
159.864
159.864
159.864
159.864
159.864
159.864
159.863
159.862
159.862
159.861
159.859
159.858
159.857
159.855
159.853
159.851
159.849
159.847
159.844
159.842
159.839
159.836
159.833
159.83
159.827
159.823
159.819
159.816
159.812
159.808
159.803
159.799
159.794
159.79
159.785
159.78
159.775
159.769
159.764
159.758
159.753
159.747
159.741
159.734
159.728
159.722
159.715
159.708
159.701
159.694
159.687
159.68
159.672
159.665
159.657
159.649
159.641
159.633
159.624
159.624
154.307
154.307
154.175
154.11
154.082
154.065
154.053
154.043
154.035
154.027
154.019
154.013
154.007
154.001
153.996
153.991
153.986
153.982
153.978
153.975
153.972
153.969
153.967
153.965
153.964
153.963
153.962
153.961
153.961
153.961
153.962
153.963
153.964
153.966
153.968
153.97
153.973
153.977
153.98
153.984
153.988
153.993
153.997
154.002
154.007
154.013
154.018
154.024
154.031
154.037
154.044
154.052
154.059
154.067
154.075
154.083
154.092
154.101
154.11
154.119
154.129
154.138
154.148
154.159
154.169
154.18
154.191
154.203
154.214
154.226
154.239
154.251
154.264
154.277
154.29
154.304
154.317
154.331
154.346
154.36
154.375
154.39
154.406
154.421
154.437
154.454
154.47
154.487
154.504
154.521
154.539
154.557
154.575
154.594
154.612
154.631
154.65
154.67
154.69
154.71
154.73
154.751
154.772
154.793
154.814
154.836
154.858
154.88
154.902
154.925
154.948
154.971
154.994
155.018
155.042
155.066
155.091
155.115
155.14
155.165
155.191
155.216
155.242
155.268
155.294
155.321
155.348
155.375
155.402
155.429
155.457
155.484
155.512
155.54
155.569
155.597
155.626
155.655
155.684
155.713
155.743
155.772
155.802
155.832
155.862
155.892
155.922
155.953
155.984
156.014
156.045
156.076
156.107
156.139
156.17
156.201
156.233
156.265
156.296
156.328
156.36
156.392
156.424
156.456
156.488
156.52
156.553
156.585
156.617
156.65
156.682
156.715
156.747
156.78
156.812
156.845
156.877
156.909
156.942
156.974
157.007
157.039
157.072
157.104
157.136
157.169
157.201
157.233
157.265
157.297
157.329
157.361
157.393
157.424
157.456
157.487
157.519
157.55
157.581
157.613
157.644
157.674
157.705
157.736
157.766
157.797
157.827
157.857
157.887
157.917
157.946
157.976
158.005
158.034
158.063
158.092
158.12
158.149
158.177
158.205
158.233
158.26
158.288
158.315
158.342
158.369
158.396
158.422
158.448
158.474
158.5
158.526
158.551
158.576
158.601
158.625
158.65
158.674
158.698
158.722
158.745
158.768
158.791
158.814
158.836
158.859
158.881
158.902
158.924
158.945
158.966
158.987
159.007
159.028
159.048
159.067
159.087
159.106
159.125
159.144
159.162
159.18
159.198
159.216
159.233
159.251
159.267
159.284
159.301
159.317
159.333
159.348
159.364
159.379
159.394
159.408
159.422
159.437
159.45
159.464
159.477
159.49
159.503
159.516
159.528
159.54
159.552
159.564
159.575
159.586
159.597
159.608
159.618
159.629
159.638
159.648
159.658
159.667
159.676
159.685
159.693
159.702
159.71
159.718
159.725
159.733
159.74
159.747
159.754
159.76
159.766
159.773
159.778
159.784
159.79
159.795
159.8
159.805
159.81
159.814
159.818
159.822
159.826
159.83
159.833
159.837
159.84
159.843
159.845
159.848
159.85
159.852
159.854
159.856
159.858
159.859
159.86
159.861
159.862
159.863
159.864
159.864
159.864
159.864
159.864
159.864
159.863
159.862
159.862
159.861
159.859
159.858
159.857
159.855
159.853
159.851
159.849
159.847
159.844
159.842
159.839
159.836
159.833
159.83
159.827
159.823
159.819
159.816
159.812
159.807
159.803
159.799
159.794
159.79
159.785
159.78
159.775
159.769
159.764
159.758
159.752
159.747
159.741
159.734
159.728
159.722
159.715
159.708
159.701
159.694
159.687
159.68
159.672
159.665
159.657
159.649
159.641
159.633
159.624
159.624
154.276
154.276
154.175
154.115
154.085
154.068
154.055
154.044
154.035
154.027
154.02
154.013
154.007
154.001
153.996
153.991
153.986
153.982
153.978
153.975
153.972
153.97
153.967
153.965
153.964
153.963
153.962
153.961
153.961
153.961
153.962
153.963
153.964
153.966
153.968
153.971
153.973
153.977
153.98
153.984
153.988
153.993
153.997
154.002
154.007
154.013
154.018
154.024
154.031
154.037
154.044
154.052
154.059
154.067
154.075
154.083
154.092
154.101
154.11
154.119
154.129
154.138
154.148
154.159
154.169
154.18
154.191
154.203
154.215
154.226
154.239
154.251
154.264
154.277
154.29
154.304
154.317
154.331
154.346
154.36
154.375
154.39
154.406
154.422
154.438
154.454
154.47
154.487
154.504
154.521
154.539
154.557
154.575
154.594
154.612
154.631
154.65
154.67
154.69
154.71
154.73
154.751
154.772
154.793
154.814
154.836
154.858
154.88
154.902
154.925
154.948
154.971
154.994
155.018
155.042
155.066
155.091
155.115
155.14
155.165
155.191
155.216
155.242
155.268
155.294
155.321
155.348
155.375
155.402
155.429
155.457
155.484
155.512
155.54
155.569
155.597
155.626
155.655
155.684
155.713
155.743
155.772
155.802
155.832
155.862
155.892
155.923
155.953
155.984
156.014
156.045
156.076
156.107
156.139
156.17
156.201
156.233
156.265
156.296
156.328
156.36
156.392
156.424
156.456
156.488
156.52
156.553
156.585
156.617
156.65
156.682
156.715
156.747
156.78
156.812
156.845
156.877
156.909
156.942
156.974
157.007
157.039
157.072
157.104
157.136
157.169
157.201
157.233
157.265
157.297
157.329
157.361
157.393
157.424
157.456
157.487
157.519
157.55
157.581
157.613
157.644
157.674
157.705
157.736
157.766
157.797
157.827
157.857
157.887
157.917
157.946
157.976
158.005
158.034
158.063
158.092
158.12
158.149
158.177
158.205
158.233
158.26
158.288
158.315
158.342
158.369
158.396
158.422
158.448
158.474
158.5
158.525
158.551
158.576
158.601
158.625
158.65
158.674
158.698
158.722
158.745
158.768
158.791
158.814
158.836
158.859
158.881
158.902
158.924
158.945
158.966
158.987
159.007
159.028
159.048
159.067
159.087
159.106
159.125
159.144
159.162
159.18
159.198
159.216
159.233
159.251
159.267
159.284
159.3
159.317
159.333
159.348
159.363
159.379
159.393
159.408
159.422
159.437
159.45
159.464
159.477
159.49
159.503
159.516
159.528
159.54
159.552
159.564
159.575
159.586
159.597
159.608
159.618
159.628
159.638
159.648
159.658
159.667
159.676
159.685
159.693
159.702
159.71
159.717
159.725
159.733
159.74
159.747
159.754
159.76
159.766
159.773
159.778
159.784
159.79
159.795
159.8
159.805
159.81
159.814
159.818
159.822
159.826
159.83
159.833
159.837
159.84
159.843
159.845
159.848
159.85
159.852
159.854
159.856
159.858
159.859
159.86
159.861
159.862
159.863
159.863
159.864
159.864
159.864
159.864
159.864
159.863
159.862
159.862
159.861
159.859
159.858
159.857
159.855
159.853
159.851
159.849
159.847
159.844
159.842
159.839
159.836
159.833
159.83
159.827
159.823
159.819
159.816
159.812
159.807
159.803
159.799
159.794
159.79
159.785
159.78
159.775
159.769
159.764
159.758
159.752
159.747
159.741
159.734
159.728
159.722
159.715
159.708
159.701
159.694
159.687
159.68
159.672
159.665
159.657
159.649
159.641
159.633
159.624
159.624
154.25
154.25
154.173
154.119
154.089
154.07
154.057
154.046
154.036
154.028
154.021
154.014
154.007
154.001
153.996
153.991
153.987
153.982
153.979
153.975
153.972
153.97
153.967
153.965
153.964
153.963
153.962
153.961
153.961
153.961
153.962
153.963
153.964
153.966
153.968
153.971
153.973
153.977
153.98
153.984
153.988
153.993
153.997
154.002
154.007
154.013
154.018
154.024
154.031
154.037
154.044
154.052
154.059
154.067
154.075
154.083
154.092
154.101
154.11
154.119
154.129
154.138
154.149
154.159
154.169
154.18
154.191
154.203
154.215
154.226
154.239
154.251
154.264
154.277
154.29
154.304
154.317
154.331
154.346
154.36
154.375
154.39
154.406
154.422
154.438
154.454
154.47
154.487
154.504
154.522
154.539
154.557
154.575
154.594
154.612
154.631
154.651
154.67
154.69
154.71
154.73
154.751
154.772
154.793
154.814
154.836
154.858
154.88
154.902
154.925
154.948
154.971
154.994
155.018
155.042
155.066
155.091
155.115
155.14
155.165
155.191
155.216
155.242
155.268
155.294
155.321
155.348
155.375
155.402
155.429
155.457
155.484
155.512
155.541
155.569
155.597
155.626
155.655
155.684
155.713
155.743
155.772
155.802
155.832
155.862
155.892
155.923
155.953
155.984
156.014
156.045
156.076
156.107
156.139
156.17
156.201
156.233
156.265
156.296
156.328
156.36
156.392
156.424
156.456
156.488
156.52
156.553
156.585
156.617
156.65
156.682
156.715
156.747
156.78
156.812
156.845
156.877
156.91
156.942
156.974
157.007
157.039
157.072
157.104
157.136
157.169
157.201
157.233
157.265
157.297
157.329
157.361
157.393
157.424
157.456
157.487
157.519
157.55
157.581
157.613
157.644
157.674
157.705
157.736
157.766
157.797
157.827
157.857
157.887
157.917
157.946
157.976
158.005
158.034
158.063
158.092
158.12
158.149
158.177
158.205
158.233
158.26
158.288
158.315
158.342
158.369
158.396
158.422
158.448
158.474
158.5
158.525
158.551
158.576
158.601
158.625
158.65
158.674
158.698
158.722
158.745
158.768
158.791
158.814
158.836
158.859
158.881
158.902
158.924
158.945
158.966
158.987
159.007
159.028
159.048
159.067
159.087
159.106
159.125
159.144
159.162
159.18
159.198
159.216
159.233
159.25
159.267
159.284
159.3
159.317
159.332
159.348
159.363
159.379
159.393
159.408
159.422
159.436
159.45
159.464
159.477
159.49
159.503
159.516
159.528
159.54
159.552
159.564
159.575
159.586
159.597
159.608
159.618
159.628
159.638
159.648
159.658
159.667
159.676
159.685
159.693
159.701
159.71
159.717
159.725
159.733
159.74
159.747
159.753
159.76
159.766
159.772
159.778
159.784
159.79
159.795
159.8
159.805
159.809
159.814
159.818
159.822
159.826
159.83
159.833
159.837
159.84
159.843
159.845
159.848
159.85
159.852
159.854
159.856
159.858
159.859
159.86
159.861
159.862
159.863
159.863
159.864
159.864
159.864
159.864
159.864
159.863
159.862
159.862
159.861
159.859
159.858
159.857
159.855
159.853
159.851
159.849
159.847
159.844
159.842
159.839
159.836
159.833
159.83
159.826
159.823
159.819
159.816
159.812
159.807
159.803
159.799
159.794
159.789
159.785
159.78
159.774
159.769
159.764
159.758
159.752
159.747
159.74
159.734
159.728
159.722
159.715
159.708
159.701
159.694
159.687
159.68
159.672
159.665
159.657
159.649
159.641
159.633
159.624
159.624
154.229
154.229
154.17
154.122
154.092
154.073
154.059
154.047
154.038
154.029
154.021
154.014
154.008
154.002
153.996
153.991
153.987
153.983
153.979
153.975
153.972
153.97
153.968
153.966
153.964
153.963
153.962
153.961
153.961
153.961
153.962
153.963
153.964
153.966
153.968
153.971
153.973
153.977
153.98
153.984
153.988
153.993
153.997
154.002
154.007
154.013
154.018
154.024
154.031
154.037
154.044
154.052
154.059
154.067
154.075
154.083
154.092
154.101
154.11
154.119
154.129
154.138
154.149
154.159
154.17
154.18
154.192
154.203
154.215
154.227
154.239
154.251
154.264
154.277
154.29
154.304
154.317
154.332
154.346
154.36
154.375
154.391
154.406
154.422
154.438
154.454
154.47
154.487
154.504
154.522
154.539
154.557
154.575
154.594
154.612
154.631
154.651
154.67
154.69
154.71
154.73
154.751
154.772
154.793
154.814
154.836
154.858
154.88
154.902
154.925
154.948
154.971
154.994
155.018
155.042
155.066
155.091
155.115
155.14
155.165
155.191
155.216
155.242
155.268
155.295
155.321
155.348
155.375
155.402
155.429
155.457
155.484
155.512