# vtk DataFile Version 2.0
FlowField
ASCII
DATASET STRUCTURED_GRID
DIMENSIONS 400 1 50
POINTS 20000 float
0 0 0
0.08 0 0
0.16 0 0
0.24 0 0
0.32 0 0
0.4 0 0
0.48 0 0
0.56 0 0
0.64 0 0
0.72 0 0
0.8 0 0
0.88 0 0
0.96 0 0
1.04 0 0
1.12 0 0
1.2 0 0
1.28 0 0
1.36 0 0
1.44 0 0
1.52 0 0
1.6 0 0
1.68 0 0
1.76 0 0
1.84 0 0
1.92 0 0
2 0 0
2.08 0 0
2.16 0 0
2.24 0 0
2.32 0 0
2.4 0 0
2.48 0 0
2.56 0 0
2.64 0 0
2.72 0 0
2.8 0 0
2.88 0 0
2.96 0 0
3.04 0 0
3.12 0 0
3.2 0 0
3.28 0 0
3.36 0 0
3.44 0 0
3.52 0 0
3.6 0 0
3.68 0 0
3.76 0 0
3.84 0 0
3.92 0 0
4 0 0
4.08 0 0
4.16 0 0
4.24 0 0
4.32 0 0
4.4 0 0
4.48 0 0
4.56 0 0
4.64 0 0
4.72 0 0
4.8 0 0
4.88 0 0
4.96 0 0
5.04 0 0
5.12 0 0
5.2 0 0
5.28 0 0
5.36 0 0
5.44 0 0
5.52 0 0
5.6 0 0
5.68 0 0
5.76 0 0
5.84 0 0
5.92 0 0
6 0 0
6.08 0 0
6.16 0 0
6.24 0 0
6.32 0 0
6.4 0 0
6.48 0 0
6.56 0 0
6.64 0 0
6.72 0 0
6.8 0 0
6.88 0 0
6.96 0 0
7.04 0 0
7.12 0 0
7.2 0 0
7.28 0 0
7.36 0 0
7.44 0 0
7.52 0 0
7.6 0 0
7.68 0 0
7.76 0 0
7.84 0 0
7.92 0 0
8 0 0
8.08 0 0
8.16 0 0
8.24 0 0
8.32 0 0
8.4 0 0
8.48 0 0
8.56 0 0
8.64 0 0
8.72 0 0
8.8 0 0
8.88 0 0
8.96 0 0
9.04 0 0
9.12 0 0
9.2 0 0
9.28 0 0
9.36 0 0
9.44 0 0
9.52 0 0
9.6 0 0
9.68 0 0
9.76 0 0
9.84 0 0
9.92 0 0
10 0 0
10.08 0 0
10.16 0 0
10.24 0 0
10.32 0 0
10.4 0 0
10.48 0 0
10.56 0 0
10.64 0 0
10.72 0 0
10.8 0 0
10.88 0 0
10.96 0 0
11.04 0 0
11.12 0 0
11.2 0 0
11.28 0 0
11.36 0 0
11.44 0 0
11.52 0 0
11.6 0 0
11.68 0 0
11.76 0 0
11.84 0 0
11.92 0 0
12 0 0
12.08 0 0
12.16 0 0
12.24 0 0
12.32 0 0
12.4 0 0
12.48 0 0
12.56 0 0
12.64 0 0
12.72 0 0
12.8 0 0
12.88 0 0
12.96 0 0
13.04 0 0
13.12 0 0
13.2 0 0
13.28 0 0
13.36 0 0
13.44 0 0
13.52 0 0
13.6 0 0
13.68 0 0
13.76 0 0
13.84 0 0
13.92 0 0
14 0 0
14.08 0 0
14.16 0 0
14.24 0 0
14.32 0 0
14.4 0 0
14.48 0 0
14.56 0 0
14.64 0 0
14.72 0 0
14.8 0 0
14.88 0 0
14.96 0 0
15.04 0 0
15.12 0 0
15.2 0 0
15.28 0 0
15.36 0 0
15.44 0 0
15.52 0 0
15.6 0 0
15.68 0 0
15.76 0 0
15.84 0 0
15.92 0 0
16 0 0
16.08 0 0
16.16 0 0
16.24 0 0
16.32 0 0
16.4 0 0
16.48 0 0
16.56 0 0
16.64 0 0
16.72 0 0
16.8 0 0
16.88 0 0
16.96 0 0
17.04 0 0
17.12 0 0
17.2 0 0
17.28 0 0
17.36 0 0
17.44 0 0
17.52 0 0
17.6 0 0
17.68 0 0
17.76 0 0
17.84 0 0
17.92 0 0
18 0 0
18.08 0 0
18.16 0 0
18.24 0 0
18.32 0 0
18.4 0 0
18.48 0 0
18.56 0 0
18.64 0 0
18.72 0 0
18.8 0 0
18.88 0 0
18.96 0 0
19.04 0 0
19.12 0 0
19.2 0 0
19.28 0 0
19.36 0 0
19.44 0 0
19.52 0 0
19.6 0 0
19.68 0 0
19.76 0 0
19.84 0 0
19.92 0 0
20 0 0
20.08 0 0
20.16 0 0
20.24 0 0
20.32 0 0
20.4 0 0
20.48 0 0
20.56 0 0
20.64 0 0
20.72 0 0
20.8 0 0
20.88 0 0
20.96 0 0
21.04 0 0
21.12 0 0
21.2 0 0
21.28 0 0
21.36 0 0
21.44 0 0
21.52 0 0
21.6 0 0
21.68 0 0
21.76 0 0
21.84 0 0
21.92 0 0
22 0 0
22.08 0 0
22.16 0 0
22.24 0 0
22.32 0 0
22.4 0 0
22.48 0 0
22.56 0 0
22.64 0 0
22.72 0 0
22.8 0 0
22.88 0 0
22.96 0 0
23.04 0 0
23.12 0 0
23.2 0 0
23.28 0 0
23.36 0 0
23.44 0 0
23.52 0 0
23.6 0 0
23.68 0 0
23.76 0 0
23.84 0 0
23.92 0 0
24 0 0
24.08 0 0
24.16 0 0
24.24 0 0
24.32 0 0
24.4 0 0
24.48 0 0
24.56 0 0
24.64 0 0
24.72 0 0
24.8 0 0
24.88 0 0
24.96 0 0
25.04 0 0
25.12 0 0
25.2 0 0
25.28 0 0
25.36 0 0
25.44 0 0
25.52 0 0
25.6 0 0
25.68 0 0
25.76 0 0
25.84 0 0
25.92 0 0
26 0 0
26.08 0 0
26.16 0 0
26.24 0 0
26.32 0 0
26.4 0 0
26.48 0 0
26.56 0 0
26.64 0 0
26.72 0 0
26.8 0 0
26.88 0 0
26.96 0 0
27.04 0 0
27.12 0 0
27.2 0 0
27.28 0 0
27.36 0 0
27.44 0 0
27.52 0 0
27.6 0 0
27.68 0 0
27.76 0 0
27.84 0 0
27.92 0 0
28 0 0
28.08 0 0
28.16 0 0
28.24 0 0
28.32 0 0
28.4 0 0
28.48 0 0
28.56 0 0
28.64 0 0
28.72 0 0
28.8 0 0
28.88 0 0
28.96 0 0
29.04 0 0
29.12 0 0
29.2 0 0
29.28 0 0
29.36 0 0
29.44 0 0
29.52 0 0
29.6 0 0
29.68 0 0
29.76 0 0
29.84 0 0
29.92 0 0
30 0 0
30.08 0 0
30.16 0 0
30.24 0 0
30.32 0 0
30.4 0 0
30.48 0 0
30.56 0 0
30.64 0 0
30.72 0 0
30.8 0 0
30.88 0 0
30.96 0 0
31.04 0 0
31.12 0 0
31.2 0 0
31.28 0 0
31.36 0 0
31.44 0 0
31.52 0 0
31.6 0 0
31.68 0 0
31.76 0 0
31.84 0 0
31.92 0 0
0 0.02 0
0.08 0.02 0
0.16 0.02 0
0.24 0.02 0
0.32 0.02 0
0.4 0.02 0
0.48 0.02 0
0.56 0.02 0
0.64 0.02 0
0.72 0.02 0
0.8 0.02 0
0.88 0.02 0
0.96 0.02 0
1.04 0.02 0
1.12 0.02 0
1.2 0.02 0
1.28 0.02 0
1.36 0.02 0
1.44 0.02 0
1.52 0.02 0
1.6 0.02 0
1.68 0.02 0
1.76 0.02 0
1.84 0.02 0
1.92 0.02 0
2 0.02 0
2.08 0.02 0
2.16 0.02 0
2.24 0.02 0
2.32 0.02 0
2.4 0.02 0
2.48 0.02 0
2.56 0.02 0
2.64 0.02 0
2.72 0.02 0
2.8 0.02 0
2.88 0.02 0
2.96 0.02 0
3.04 0.02 0
3.12 0.02 0
3.2 0.02 0
3.28 0.02 0
3.36 0.02 0
3.44 0.02 0
3.52 0.02 0
3.6 0.02 0
3.68 0.02 0
3.76 0.02 0
3.84 0.02 0
3.92 0.02 0
4 0.02 0
4.08 0.02 0
4.16 0.02 0
4.24 0.02 0
4.32 0.02 0
4.4 0.02 0
4.48 0.02 0
4.56 0.02 0
4.64 0.02 0
4.72 0.02 0
4.8 0.02 0
4.88 0.02 0
4.96 0.02 0
5.04 0.02 0
5.12 0.02 0
5.2 0.02 0
5.28 0.02 0
5.36 0.02 0
5.44 0.02 0
5.52 0.02 0
5.6 0.02 0
5.68 0.02 0
5.76 0.02 0
5.84 0.02 0
5.92 0.02 0
6 0.02 0
6.08 0.02 0
6.16 0.02 0
6.24 0.02 0
6.32 0.02 0
6.4 0.02 0
6.48 0.02 0
6.56 0.02 0
6.64 0.02 0
6.72 0.02 0
6.8 0.02 0
6.88 0.02 0
6.96 0.02 0
7.04 0.02 0
7.12 0.02 0
7.2 0.02 0
7.28 0.02 0
7.36 0.02 0
7.44 0.02 0
7.52 0.02 0
7.6 0.02 0
7.68 0.02 0
7.76 0.02 0
7.84 0.02 0
7.92 0.02 0
8 0.02 0
8.08 0.02 0
8.16 0.02 0
8.24 0.02 0
8.32 0.02 0
8.4 0.02 0
8.48 0.02 0
8.56 0.02 0
8.64 0.02 0
8.72 0.02 0
8.8 0.02 0
8.88 0.02 0
8.96 0.02 0
9.04 0.02 0
9.12 0.02 0
9.2 0.02 0
9.28 0.02 0
9.36 0.02 0
9.44 0.02 0
9.52 0.02 0
9.6 0.02 0
9.68 0.02 0
9.76 0.02 0
9.84 0.02 0
9.92 0.02 0
10 0.02 0
10.08 0.02 0
10.16 0.02 0
10.24 0.02 0
10.32 0.02 0
10.4 0.02 0
10.48 0.02 0
10.56 0.02 0
10.64 0.02 0
10.72 0.02 0
10.8 0.02 0
10.88 0.02 0
10.96 0.02 0
11.04 0.02 0
11.12 0.02 0
11.2 0.02 0
11.28 0.02 0
11.36 0.02 0
11.44 0.02 0
11.52 0.02 0
11.6 0.02 0
11.68 0.02 0
11.76 0.02 0
11.84 0.02 0
11.92 0.02 0
12 0.02 0
12.08 0.02 0
12.16 0.02 0
12.24 0.02 0
12.32 0.02 0
12.4 0.02 0
12.48 0.02 0
12.56 0.02 0
12.64 0.02 0
12.72 0.02 0
12.8 0.02 0
12.88 0.02 0
12.96 0.02 0
13.04 0.02 0
13.12 0.02 0
13.2 0.02 0
13.28 0.02 0
13.36 0.02 0
13.44 0.02 0
13.52 0.02 0
13.6 0.02 0
13.68 0.02 0
13.76 0.02 0
13.84 0.02 0
13.92 0.02 0
14 0.02 0
14.08 0.02 0
14.16 0.02 0
14.24 0.02 0
14.32 0.02 0
14.4 0.02 0
14.48 0.02 0
14.56 0.02 0
14.64 0.02 0
14.72 0.02 0
14.8 0.02 0
14.88 0.02 0
14.96 0.02 0
15.04 0.02 0
15.12 0.02 0
15.2 0.02 0
15.28 0.02 0
15.36 0.02 0
15.44 0.02 0
15.52 0.02 0
15.6 0.02 0
15.68 0.02 0
15.76 0.02 0
15.84 0.02 0
15.92 0.02 0
16 0.02 0
16.08 0.02 0
16.16 0.02 0
16.24 0.02 0
16.32 0.02 0
16.4 0.02 0
16.48 0.02 0
16.56 0.02 0
16.64 0.02 0
16.72 0.02 0
16.8 0.02 0
16.88 0.02 0
16.96 0.02 0
17.04 0.02 0
17.12 0.02 0
17.2 0.02 0
17.28 0.02 0
17.36 0.02 0
17.44 0.02 0
17.52 0.02 0
17.6 0.02 0
17.68 0.02 0
17.76 0.02 0
17.84 0.02 0
17.92 0.02 0
18 0.02 0
18.08 0.02 0
18.16 0.02 0
18.24 0.02 0
18.32 0.02 0
18.4 0.02 0
18.48 0.02 0
18.56 0.02 0
18.64 0.02 0
18.72 0.02 0
18.8 0.02 0
18.88 0.02 0
18.96 0.02 0
19.04 0.02 0
19.12 0.02 0
19.2 0.02 0
19.28 0.02 0
19.36 0.02 0
19.44 0.02 0
19.52 0.02 0
19.6 0.02 0
19.68 0.02 0
19.76 0.02 0
19.84 0.02 0
19.92 0.02 0
20 0.02 0
20.08 0.02 0
20.16 0.02 0
20.24 0.02 0
20.32 0.02 0
20.4 0.02 0
20.48 0.02 0
20.56 0.02 0
20.64 0.02 0
20.72 0.02 0
20.8 0.02 0
20.88 0.02 0
20.96 0.02 0
21.04 0.02 0
21.12 0.02 0
21.2 0.02 0
21.28 0.02 0
21.36 0.02 0
21.44 0.02 0
21.52 0.02 0
21.6 0.02 0
21.68 0.02 0
21.76 0.02 0
21.84 0.02 0
21.92 0.02 0
22 0.02 0
22.08 0.02 0
22.16 0.02 0
22.24 0.02 0
22.32 0.02 0
22.4 0.02 0
22.48 0.02 0
22.56 0.02 0
22.64 0.02 0
22.72 0.02 0
22.8 0.02 0
22.88 0.02 0
22.96 0.02 0
23.04 0.02 0
23.12 0.02 0
23.2 0.02 0
23.28 0.02 0
23.36 0.02 0
23.44 0.02 0
23.52 0.02 0
23.6 0.02 0
23.68 0.02 0
23.76 0.02 0
23.84 0.02 0
23.92 0.02 0
24 0.02 0
24.08 0.02 0
24.16 0.02 0
24.24 0.02 0
24.32 0.02 0
24.4 0.02 0
24.48 0.02 0
24.56 0.02 0
24.64 0.02 0
24.72 0.02 0
24.8 0.02 0
24.88 0.02 0
24.96 0.02 0
25.04 0.02 0
25.12 0.02 0
25.2 0.02 0
25.28 0.02 0
25.36 0.02 0
25.44 0.02 0
25.52 0.02 0
25.6 0.02 0
25.68 0.02 0
25.76 0.02 0
25.84 0.02 0
25.92 0.02 0
26 0.02 0
26.08 0.02 0
26.16 0.02 0
26.24 0.02 0
26.32 0.02 0
26.4 0.02 0
26.48 0.02 0
26.56 0.02 0
26.64 0.02 0
26.72 0.02 0
26.8 0.02 0
26.88 0.02 0
26.96 0.02 0
27.04 0.02 0
27.12 0.02 0
27.2 0.02 0
27.28 0.02 0
27.36 0.02 0
27.44 0.02 0
27.52 0.02 0
27.6 0.02 0
27.68 0.02 0
27.76 0.02 0
27.84 0.02 0
27.92 0.02 0
28 0.02 0
28.08 0.02 0
28.16 0.02 0
28.24 0.02 0
28.32 0.02 0
28.4 0.02 0
28.48 0.02 0
28.56 0.02 0
28.64 0.02 0
28.72 0.02 0
28.8 0.02 0
28.88 0.02 0
28.96 0.02 0
29.04 0.02 0
29.12 0.02 0
29.2 0.02 0
29.28 0.02 0
29.36 0.02 0
29.44 0.02 0
29.52 0.02 0
29.6 0.02 0
29.68 0.02 0
29.76 0.02 0
29.84 0.02 0
29.92 0.02 0
30 0.02 0
30.08 0.02 0
30.16 0.02 0
30.24 0.02 0
30.32 0.02 0
30.4 0.02 0
30.48 0.02 0
30.56 0.02 0
30.64 0.02 0
30.72 0.02 0
30.8 0.02 0
30.88 0.02 0
30.96 0.02 0
31.04 0.02 0
31.12 0.02 0
31.2 0.02 0
31.28 0.02 0
31.36 0.02 0
31.44 0.02 0
31.52 0.02 0
31.6 0.02 0
31.68 0.02 0
31.76 0.02 0
31.84 0.02 0
31.92 0.02 0
0 0.04 0
0.08 0.04 0
0.16 0.04 0
0.24 0.04 0
0.32 0.04 0
0.4 0.04 0
0.48 0.04 0
0.56 0.04 0
0.64 0.04 0
0.72 0.04 0
0.8 0.04 0
0.88 0.04 0
0.96 0.04 0
1.04 0.04 0
1.12 0.04 0
1.2 0.04 0
1.28 0.04 0
1.36 0.04 0
1.44 0.04 0
1.52 0.04 0
1.6 0.04 0
1.68 0.04 0
1.76 0.04 0
1.84 0.04 0
1.92 0.04 0
2 0.04 0
2.08 0.04 0
2.16 0.04 0
2.24 0.04 0
2.32 0.04 0
2.4 0.04 0
2.48 0.04 0
2.56 0.04 0
2.64 0.04 0
2.72 0.04 0
2.8 0.04 0
2.88 0.04 0
2.96 0.04 0
3.04 0.04 0
3.12 0.04 0
3.2 0.04 0
3.28 0.04 0
3.36 0.04 0
3.44 0.04 0
3.52 0.04 0
3.6 0.04 0
3.68 0.04 0
3.76 0.04 0
3.84 0.04 0
3.92 0.04 0
4 0.04 0
4.08 0.04 0
4.16 0.04 0
4.24 0.04 0
4.32 0.04 0
4.4 0.04 0
4.48 0.04 0
4.56 0.04 0
4.64 0.04 0
4.72 0.04 0
4.8 0.04 0
4.88 0.04 0
4.96 0.04 0
5.04 0.04 0
5.12 0.04 0
5.2 0.04 0
5.28 0.04 0
5.36 0.04 0
5.44 0.04 0
5.52 0.04 0
5.6 0.04 0
5.68 0.04 0
5.76 0.04 0
5.84 0.04 0
5.92 0.04 0
6 0.04 0
6.08 0.04 0
6.16 0.04 0
6.24 0.04 0
6.32 0.04 0
6.4 0.04 0
6.48 0.04 0
6.56 0.04 0
6.64 0.04 0
6.72 0.04 0
6.8 0.04 0
6.88 0.04 0
6.96 0.04 0
7.04 0.04 0
7.12 0.04 0
7.2 0.04 0
7.28 0.04 0
7.36 0.04 0
7.44 0.04 0
7.52 0.04 0
7.6 0.04 0
7.68 0.04 0
7.76 0.04 0
7.84 0.04 0
[...]
POINT_DATA 20000

SCALARS p float 1
LOOKUP_TABLE default
1
206.169
205.937
205.87
205.844
205.828
205.816
205.805
205.794
205.784
205.775
205.766
205.757
205.748
205.74
205.731
205.723
205.715
205.707
205.7
205.692
205.685
205.678
205.671
205.664
205.657
205.65
205.644
205.637
205.631
205.624
205.618
205.612
205.606
205.6
205.594
205.588
205.582
205.576
205.57
205.565
205.559
205.554
205.548
205.543
205.537
205.532
205.527
205.521
205.516
205.511
205.506
205.501
205.496
205.491
205.486
205.481
205.476
205.471
205.466
205.461
205.456
205.452
205.447
205.442
205.437
205.433
205.428
205.423
205.419
205.414
205.41
205.405
205.401
205.396
205.392
205.387
205.383
205.378
205.374
205.37
205.365
205.361
205.357
205.352
205.348
205.344
205.34
205.335
205.331
205.327
205.323
205.319
205.314
205.31
205.306
205.302
205.298
205.294
205.29
205.286
205.282
205.278
205.274
205.27
205.266
205.262
205.258
205.254
205.25
205.246
205.242
205.238
205.234
205.23
205.226
205.222
205.218
205.214
205.21
205.207
205.203
205.199
205.195
205.191
205.187
205.183
205.18
205.176
205.172
205.168
205.164
205.161
205.157
205.153
205.149
205.145
205.142
205.138
205.134
205.13
205.127
205.123
205.119
205.116
205.112
205.108
205.104
205.101
205.097
205.093
205.09
205.086
205.082
205.078
205.075
205.071
205.067
205.064
205.06
205.056
205.053
205.049
205.046
205.042
205.038
205.035
205.031
205.027
205.024
205.02
205.016
205.013
205.009
205.006
205.002
204.998
204.995
204.991
204.988
204.984
204.98
204.977
204.973
204.97
204.966
204.963
204.959
204.955
204.952
204.948
204.945
204.941
204.938
204.934
204.93
204.927
204.923
204.92
204.916
204.913
204.909
204.906
204.902
204.899
204.895
204.891
204.888
204.884
204.881
204.877
204.874
204.87
204.867
204.863
204.859
204.856
204.852
204.849
204.845
204.842
204.838
204.835
204.831
204.827
204.824
204.82
204.817
204.813
204.81
204.806
204.803
204.799
204.795
204.792
204.788
204.785
204.781
204.778
204.774
204.771
204.767
204.763
204.76
204.756
204.753
204.749
204.746
204.742
204.738
204.735
204.731
204.728
204.724
204.721
204.717
204.714
204.71
204.706
204.703
204.699
204.696
204.692
204.689
204.685
204.681
204.678
204.674
204.671
204.667
204.664
204.66
204.656
204.653
204.649
204.646
204.642
204.639
204.635
204.631
204.628
204.624
204.621
204.617
204.614
204.61
204.606
204.603
204.599
204.596
204.592
204.589
204.585
204.581
204.578
204.574
204.571
204.567
204.563
204.56
204.556
204.553
204.549
204.546
204.542
204.538
204.535
204.531
204.528
204.524
204.52
204.517
204.513
204.51
204.506
204.503
204.499
204.495
204.492
204.488
204.485
204.481
204.477
204.474
204.47
204.467
204.463
204.459
204.456
204.452
204.449
204.445
204.442
204.438
204.434
204.431
204.427
204.424
204.42
204.416
204.413
204.409
204.406
204.402
204.398
204.395
204.391
204.388
204.384
204.38
204.377
204.373
204.37
204.366
204.362
204.359
204.355
204.352
204.348
204.344
204.341
204.337
204.334
204.33
204.326
204.323
204.319
204.316
204.312
204.308
204.305
204.301
204.298
204.294
204.29
204.287
204.283
204.28
204.276
204.272
204.269
204.265
204.262
204.258
204.254
204.251
204.247
204.244
204.24
204.236
204.233
204.229
204.226
204.222
204.218
204.215
204.211
204.207
204.204
0.5
206.169
206.169
205.937
205.87
205.844
205.828
205.816
205.805
205.794
205.784
205.775
205.766
205.757
205.748
205.74
205.731
205.723
205.715
205.707
205.7
205.692
205.685
205.678
205.671
205.664
205.657
205.65
205.644
205.637
205.631
205.624
205.618
205.612
205.606
205.6
205.594
205.588
205.582
205.576
205.57
205.565
205.559
205.554
205.548
205.543
205.537
205.532
205.527
205.521
205.516
205.511
205.506
205.501
205.496
205.491
205.486
205.481
205.476
205.471
205.466
205.461
205.456
205.452
205.447
205.442
205.437
205.433
205.428
205.423
205.419
205.414
205.41
205.405
205.401
205.396
205.392
205.387
205.383
205.378
205.374
205.37
205.365
205.361
205.357
205.352
205.348
205.344
205.34
205.335
205.331
205.327
205.323
205.319
205.314
205.31
205.306
205.302
205.298
205.294
205.29
205.286
205.282
205.278
205.274
205.27
205.266
205.262
205.258
205.254
205.25
205.246
205.242
205.238
205.234
205.23
205.226
205.222
205.218
205.214
205.21
205.207
205.203
205.199
205.195
205.191
205.187
205.183
205.18
205.176
205.172
205.168
205.164
205.161
205.157
205.153
205.149
205.145
205.142
205.138
205.134
205.13
205.127
205.123
205.119
205.116
205.112
205.108
205.104
205.101
205.097
205.093
205.09
205.086
205.082
205.078
205.075
205.071
205.067
205.064
205.06
205.056
205.053
205.049
205.046
205.042
205.038
205.035
205.031
205.027
205.024
205.02
205.016
205.013
205.009
205.006
205.002
204.998
204.995
204.991
204.988
204.984
204.98
204.977
204.973
204.97
204.966
204.963
204.959
204.955
204.952
204.948
204.945
204.941
204.938
204.934
204.93
204.927
204.923
204.92
204.916
204.913
204.909
204.906
204.902
204.899
204.895
204.891
204.888
204.884
204.881
204.877
204.874
204.87
204.867
204.863
204.859
204.856
204.852
204.849
204.845
204.842
204.838
204.835
204.831
204.827
204.824
204.82
204.817
204.813
204.81
204.806
204.803
204.799
204.795
204.792
204.788
204.785
204.781
204.778
204.774
204.771
204.767
204.763
204.76
204.756
204.753
204.749
204.746
204.742
204.738
204.735
204.731
204.728
204.724
204.721
204.717
204.714
204.71
204.706
204.703
204.699
204.696
204.692
204.689
204.685
204.681
204.678
204.674
204.671
204.667
204.664
204.66
204.656
204.653
204.649
204.646
204.642
204.639
204.635
204.631
204.628
204.624
204.621
204.617
204.614
204.61
204.606
204.603
204.599
204.596
204.592
204.589
204.585
204.581
204.578
204.574
204.571
204.567
204.563
204.56
204.556
204.553
204.549
204.546
204.542
204.538
204.535
204.531
204.528
204.524
204.52
204.517
204.513
204.51
204.506
204.503
204.499
204.495
204.492
204.488
204.485
204.481
204.477
204.474
204.47
204.467
204.463
204.459
204.456
204.452
204.449
204.445
204.442
204.438
204.434
204.431
204.427
204.424
204.42
204.416
204.413
204.409
204.406
204.402
204.398
204.395
204.391
204.388
204.384
204.38
204.377
204.373
204.37
204.366
204.362
204.359
204.355
204.352
204.348
204.344
204.341
204.337
204.334
204.33
204.326
204.323
204.319
204.316
204.312
204.308
204.305
204.301
204.298
204.294
204.29
204.287
204.283
204.28
204.276
204.272
204.269
204.265
204.262
204.258
204.254
204.251
204.247
204.244
204.24
204.236
204.233
204.229
204.226
204.222
204.218
204.215
204.211
204.207
204.204
204.204
206.119
206.119
205.942
205.875
205.847
205.83
205.817
205.805
205.795
205.785
205.775
205.766
205.757
205.748
205.74
205.731
205.723
205.715
205.708
205.7
205.692
205.685
205.678
205.671
205.664
205.657
205.65
205.644
205.637
205.631
205.624
205.618
205.612
205.606
205.6
205.594
205.588
205.582
205.576
205.57
205.565
205.559
205.554
205.548
205.543
205.537
205.532
205.527
205.521
205.516
205.511
205.506
205.501
205.496
205.491
205.486
205.481
205.476
205.471
205.466
205.461
205.456
205.452
205.447
205.442
205.437
205.433
205.428
205.423
205.419
205.414
205.41
205.405
205.401
205.396
205.392
205.387
205.383
205.378
205.374
205.37
205.365
205.361
205.357
205.352
205.348
205.344
205.34
205.335
205.331
205.327
205.323
205.319
205.314
205.31
205.306
205.302
205.298
205.294
205.29
205.286
205.282
205.278
205.274
205.27
205.266
205.262
205.258
205.254
205.25
205.246
205.242
205.238
205.234
205.23
205.226
205.222
205.218
205.214
205.21
205.207
205.203
205.199
205.195
205.191
205.187
205.183
205.18
205.176
205.172
205.168
205.164
205.161
205.157
205.153
205.149
205.145
205.142
205.138
205.134
205.13
205.127
205.123
205.119
205.116
205.112
205.108
205.104
205.101
205.097
205.093
205.09
205.086
205.082
205.078
205.075
205.071
205.067
205.064
205.06
205.056
205.053
205.049
205.046
205.042
205.038
205.035
205.031
205.027
205.024
205.02
205.016
205.013
205.009
205.006
205.002
204.998
204.995
204.991
204.988
204.984
204.98
204.977
204.973
204.97
204.966
204.963
204.959
204.955
204.952
204.948
204.945
204.941
204.938
204.934
204.93
204.927
204.923
204.92
204.916
204.913
204.909
204.906
204.902
204.899
204.895
204.891
204.888
204.884
204.881
204.877
204.874
204.87
204.867
204.863
204.859
204.856
204.852
204.849
204.845
204.842
204.838
204.835
204.831
204.827
204.824
204.82
204.817
204.813
204.81
204.806
204.803
204.799
204.795
204.792
204.788
204.785
204.781
204.778
204.774
204.771
204.767
204.763
204.76
204.756
204.753
204.749
204.746
204.742
204.738
204.735
204.731
204.728
204.724
204.721
204.717
204.714
204.71
204.706
204.703
204.699
204.696
204.692
204.689
204.685
204.681
204.678
204.674
204.671
204.667
204.664
204.66
204.656
204.653
204.649
204.646
204.642
204.639
204.635
204.631
204.628
204.624
204.621
204.617
204.614
204.61
204.606
204.603
204.599
204.596
204.592
204.589
204.585
204.581
204.578
204.574
204.571
204.567
204.563
204.56
204.556
204.553
204.549
204.546
204.542
204.538
204.535
204.531
204.528
204.524
204.52
204.517
204.513
204.51
204.506
204.503
204.499
204.495
204.492
204.488
204.485
204.481
204.477
204.474
204.47
204.467
204.463
204.459
204.456
204.452
204.449
204.445
204.442
204.438
204.434
204.431
204.427
204.424
204.42
204.416
204.413
204.409
204.406
204.402
204.398
204.395
204.391
204.388
204.384
204.38
204.377
204.373
204.37
204.366
204.362
204.359
204.355
204.352
204.348
204.344
204.341
204.337
204.334
204.33
204.326
204.323
204.319
204.316
204.312
204.308
204.305
204.301
204.298
204.294
204.29
204.287
204.283
204.28
204.276
204.272
204.269
204.265
204.262
204.258
204.254
204.251
204.247
204.244
204.24
204.236
204.233
204.229
204.226
204.222
204.218
204.215
204.211
204.207
204.204
204.204
206.078
206.078
205.945
205.88
205.85
205.832
205.818
205.806
205.796
205.785
205.776
205.766
205.757
205.749
205.74
205.732
205.724
205.716
205.708
205.7
205.693
205.685
205.678
205.671
205.664
205.657
205.65
205.644
205.637
205.631
205.624
205.618
205.612
205.606
205.6
205.594
205.588
205.582
205.576
205.57
205.565
205.559
205.554
205.548
205.543
205.537
205.532
205.527
205.521
205.516
205.511
205.506
205.501
205.496
205.491
205.486
205.481
205.476
205.471
205.466
205.461
205.456
205.452
205.447
205.442
205.437
205.433
205.428
205.423
205.419
205.414
205.41
205.405
205.401
205.396
205.392
205.387
205.383
205.378
205.374
205.37
205.365
205.361
205.357
205.352
205.348
205.344
205.34
205.335
205.331
205.327
205.323
205.319
205.315
205.31
205.306
205.302
205.298
205.294
205.29
205.286
205.282
205.278
205.274
205.27
205.266
205.262
205.258
205.254
205.25
205.246
205.242
205.238
205.234
205.23
205.226
205.222
205.218
205.214
205.21
205.207
205.203
205.199
205.195
205.191
205.187
205.183
205.18
205.176
205.172
205.168
205.164
205.161
205.157
205.153
205.149
205.145
205.142
205.138
205.134
205.13
205.127
205.123
205.119
205.116
205.112
205.108
205.104
205.101
205.097
205.093
205.09
205.086
205.082
205.078
205.075
205.071
205.067
205.064
205.06
205.056
205.053
205.049
205.046
205.042
205.038
205.035
205.031
205.027
205.024
205.02
205.016
205.013
205.009
205.006
205.002
204.998
204.995
204.991
204.988
204.984
204.98
204.977
204.973
204.97
204.966
204.963
204.959
204.955
204.952
204.948
204.945
204.941
204.938
204.934
204.93
204.927
204.923
204.92
204.916
204.913
204.909
204.906
204.902
204.899
204.895
204.891
204.888
204.884
204.881
204.877
204.874
204.87
204.867
204.863
204.859
204.856
204.852
204.849
204.845
204.842
204.838
204.835
204.831
204.827
204.824
204.82
204.817
204.813
204.81
204.806
204.803
204.799
204.795
204.792
204.788
204.785
204.781
204.778
204.774
204.771
204.767
204.763
204.76
204.756
204.753
204.749
204.746
204.742
204.738
204.735
204.731
204.728
204.724
204.721
204.717
204.714
204.71
204.706
204.703
204.699
204.696
204.692
204.689
204.685
204.681
204.678
204.674
204.671
204.667
204.664
204.66
204.656
204.653
204.649
204.646
204.642
204.639
204.635
204.631
204.628
204.624
204.621
204.617
204.614
204.61
204.606
204.603
204.599
204.596
204.592
204.589
204.585
204.581
204.578
204.574
204.571
204.567
204.563
204.56
204.556
204.553
204.549
204.546
204.542
204.538
204.535
204.531
204.528
204.524
204.52
204.517
204.513
204.51
204.506
204.503
204.499
204.495
204.492
204.488
204.485
204.481
204.477
204.474
204.47
204.467
204.463
204.459
204.456
204.452
204.449
204.445
204.442
204.438
204.434
204.431
204.427
204.424
204.42
204.416
204.413
204.409
204.406
204.402
204.398
204.395
204.391
204.388
204.384
204.38
204.377
204.373
204.37
204.366
204.362
204.359
204.355
204.352
204.348
204.344
204.341
204.337
204.334
204.33
204.326
204.323
204.319
204.316
204.312
204.308
204.305
204.301
204.298
204.294
204.29
204.287
204.283
204.28
204.276
204.272
204.269
204.265
204.262
204.258
204.254
204.251
204.247
204.244
204.24
204.236
204.233
204.229
204.226
204.222
204.218
204.215
204.211
204.207
204.204
204.204
206.047
206.047
205.945
205.884
205.853
205.834
205.82
205.807
205.796
205.786
205.776
205.767
205.758
205.749
205.74
205.732
205.724
205.716
205.708
205.7
205.693
205.685
205.678
205.671
205.664
205.657
205.65
205.644
205.637
205.631
205.624
205.618
205.612
205.606
205.6
205.594
205.588
205.582
205.576
205.57
205.565
205.559
205.554
205.548
205.543
205.537
205.532
205.527
205.521
205.516
205.511
205.506
205.501
205.496
205.491
205.486
205.481
205.476
205.471
205.466
205.461
205.456
205.452
205.447
205.442
205.437
205.433
205.428
205.423
205.419
205.414
205.41
205.405
205.401
205.396
205.392
205.387
205.383
205.378
205.374
205.37
205.365
205.361
205.357
205.352
205.348
205.344
205.34
205.335
205.331
205.327
205.323
205.319
205.315
205.31
205.306
205.302
205.298
205.294
205.29
205.286
205.282
205.278
205.274
205.27
205.266
205.262
205.258
205.254
205.25
205.246
205.242
205.238
205.234
205.23
205.226
205.222
205.218
205.214
205.21
205.207
205.203
205.199
205.195
205.191
205.187
205.183
205.18
205.176
205.172
205.168
205.164
205.161
205.157
205.153
205.149
205.145
205.142
205.138
205.134
205.13
205.127
205.123
205.119
205.116
205.112
205.108
205.104
205.101
205.097
205.093
205.09
205.086
205.082
205.078
205.075
205.071
205.067
205.064
205.06
205.056
205.053
205.049
205.046
205.042
205.038
205.035
205.031
205.027
205.024
205.02
205.016
205.013
205.009
205.006
205.002
204.998
204.995
204.991
204.988
204.984
204.98
204.977
204.973
204.97
204.966
204.963
204.959
204.955
204.952
204.948
204.945
204.941
204.938
204.934
204.93
204.927
204.923
204.92
204.916
204.913
204.909
204.906
204.902
204.899
204.895
204.891
204.888
204.884
204.881
204.877
204.874
204.87
204.867
204.863
204.859
204.856
204.852
204.849
204.845
204.842
204.838
204.835
204.831
204.827
204.824
204.82
204.817
204.813
204.81
204.806
204.803
204.799
204.795
204.792
204.788
204.785
204.781
204.778
204.774
204.771
204.767
204.763
204.76
204.756
204.753
204.749
204.746
204.742
204.738
204.735
204.731
204.728
204.724
204.721
204.717
204.714
204.71
204.706
204.703
204.699
204.696
204.692
204.689
204.685
204.681
204.678
204.674
204.671
204.667
204.664
204.66
204.656
204.653
204.649
204.646
204.642
204.639
204.635
204.631
204.628
204.624
204.621
204.617
204.614
204.61
204.606
204.603
204.599
204.596
204.592
204.589
204.585
204.581
204.578
204.574
204.571
204.567
204.563
204.56
204.556
204.553
204.549
204.546
204.542
204.538
204.535
204.531
204.528
204.524
204.52
204.517
204.513
204.51
204.506
204.503
204.499
204.495
204.492
204.488
204.485
204.481
204.477
204.474
204.47
204.467
204.463
204.459
204.456
204.452
204.449
204.445
204.442
204.438
204.434
204.431
204.427
204.424
204.42
204.416
204.413
204.409
204.406
204.402
204.398
204.395
204.391
204.388
204.384
204.38
204.377
204.373
204.37
204.366
204.362
204.359
204.355
204.352
204.348
204.344
204.341
204.337
204.334
204.33
204.326
204.323
204.319
204.316
204.312
204.308
204.305
204.301
204.298
204.294
204.29
204.287
204.283
204.28
204.276
204.272
204.269
204.265
204.262
204.258
204.254
204.251
204.247
204.244
204.24
204.236
204.233
204.229
204.226
204.222
204.218
204.215
204.211
204.207
204.204
204.204
206.021
206.021
205.943
205.888
205.857
205.836
205.821
205.809
205.797
205.787
205.777
205.767
205.758
205.749
205.74
205.732
205.724
205.716
205.708
205.7
205.693
205.685
205.678
205.671
205.664
205.657
205.65
205.644
205.637
205.631
205.624
205.618
205.612
205.606
205.6
205.594
205.588
205.582
205.576
205.571
205.565
205.559
205.554
205.548
205.543
205.537
205.532
205.527
205.521
205.516
205.511
205.506
205.501
205.496
205.491
205.486
205.481
205.476
205.471
205.466
205.461
205.456
205.452
205.447
205.442
205.437
205.433
205.428
205.423
205.419
205.414
205.41
205.405
205.401
205.396
205.392
205.387
205.383
205.378
205.374
205.37
205.365
205.361
205.357
205.352
205.348
205.344
205.34
205.335
205.331
205.327
205.323
205.319
205.315
205.31
205.306
205.302
205.298
205.294
205.29
205.286
205.282
205.278
205.274
205.27
205.266
205.262
205.258
205.254
205.25
205.246
205.242
205.238
205.234
205.23
205.226
205.222
205.218
205.214
205.21
205.207
205.203
205.199
205.195
205.191
205.187
205.183
205.18
205.176
205.172
205.168
205.164
205.161
205.157
205.153
205.149
205.145
205.142
205.138
205.134
205.13
205.127
205.123
205.119
205.116
205.112
205.108
205.104
205.101
205.097
205.093
205.09
205.086
205.082
205.078
205.075
205.071
205.067
205.064
205.06
205.056
205.053
205.049
205.046
205.042
205.038
205.035
205.031
205.027
205.024
205.02
205.016
205.013
205.009
205.006
205.002
204.998
204.995
204.991
204.988
204.984
204.98
204.977
204.973
204.97
204.966
204.963
204.959
204.955
204.952
204.948
204.945
204.941
204.938
204.934
204.93
204.927
204.923
204.92
204.916
204.913
204.909
204.906
204.902
204.899
204.895
204.891
204.888
204.884
204.881
204.877
204.874
204.87
204.867
204.863
204.859
204.856
204.852
204.849
204.845
204.842
204.838
204.835
204.831
204.827
204.824
204.82
204.817
204.813
204.81
204.806
204.803
204.799
204.795
204.792
204.788
204.785
204.781
204.778
204.774
204.771
204.767
204.763
204.76
204.756
204.753
204.749
204.746
204.742
204.738
204.735
204.731
204.728
204.724
204.721
204.717
204.714
204.71
204.706
204.703
204.699
204.696
204.692
204.689
204.685
204.681
204.678
204.674
204.671
204.667
204.664
204.66
204.656
204.653
204.649
204.646
204.642
204.639
204.635
204.631
204.628
204.624
204.621
204.617
204.614
204.61
204.606
204.603
204.599
204.596
204.592
204.589
204.585
204.581
204.578
204.574
204.571
204.567
204.563
204.56
204.556
204.553
204.549
204.546
204.542
204.538
204.535
204.531
204.528
204.524
204.52
204.517
204.513
204.51
204.506
204.503
204.499
204.495
204.492
204.488
204.485
204.481
204.477
204.474
204.47
204.467
204.463
204.459
204.456
204.452
204.449
204.445
204.442
204.438
204.434
204.431
204.427
204.424
204.42
204.416
204.413
204.409
204.406
204.402
204.398
204.395
204.391
204.388
204.384
204.38
204.377
204.373
204.37
204.366
204.362
204.359
204.355
204.352
204.348
204.344
204.341
204.337
204.334
204.33
204.326
204.323
204.319
204.316
204.312
204.308
204.305
204.301
204.298
204.294
204.29
204.287
204.283
204.28
204.276
204.272
204.269
204.265
204.262
204.258
204.254
204.251
204.247
204.244
204.24
204.236
204.233
204.229
204.226
204.222
204.218
204.215
204.211
204.207
204.204
204.204
206
206
205.94
205.891
205.86
205.839
205.823
205.81
205.798
205.788
205.777
205.768
205.758
205.749
205.741
205.732
205.724
205.716
205.708
205.7
205.693
205.685
205.678
205.671
205.664
205.657
205.65
205.644
205.637
205.631
205.624
205.618
205.612
205.606
205.6
205.594
205.588
205.582
205.576
205.571
205.565
205.559
205.554
205.548
205.543
205.537
205.532
205.527
205.521
205.516
205.511
205.506
205.501
205.496
205.491
205.486
205.481
205.476
205.471
205.466
205.461
205.456
205.452
205.447
205.442
205.437
205.433
205.428
205.423
205.419
205.414
205.41
205.405
205.401
205.396
205.392
205.387
205.383
205.379
205.374
205.37
205.365
205.361
205.357
205.352
205.348
205.344
205.34
205.335
205.331
205.327
205.323
205.319
205.315
205.31
205.306
205.302
205.298
205.294
205.29
205.286
205.282
205.278
205.274
205.27
205.266
205.262
205.258
205.254
205.25
205.246
205.242
205.238
205.234
205.23
205.226
205.222
205.218
205.214
205.21
205.207
205.203
205.199
205.195
205.191
205.187
205.183
205.18
205.176
205.172