# vtk DataFile Version 2.0
FlowField
ASCII
DATASET STRUCTURED_GRID
DIMENSIONS 400 1 50
POINTS 20000 float
0 0 0
0.08 0 0
0.16 0 0
0.24 0 0
0.32 0 0
0.4 0 0
0.48 0 0
0.56 0 0
0.64 0 0
0.72 0 0
0.8 0 0
0.88 0 0
0.96 0 0
1.04 0 0
1.12 0 0
1.2 0 0
1.28 0 0
1.36 0 0
1.44 0 0
1.52 0 0
1.6 0 0
1.68 0 0
1.76 0 0
1.84 0 0
1.92 0 0
2 0 0
2.08 0 0
2.16 0 0
2.24 0 0
2.32 0 0
2.4 0 0
2.48 0 0
2.56 0 0
2.64 0 0
2.72 0 0
2.8 0 0
2.88 0 0
2.96 0 0
3.04 0 0
3.12 0 0
3.2 0 0
3.28 0 0
3.36 0 0
3.44 0 0
3.52 0 0
3.6 0 0
3.68 0 0
3.76 0 0
3.84 0 0
3.92 0 0
4 0 0
4.08 0 0
4.16 0 0
4.24 0 0
4.32 0 0
4.4 0 0
4.48 0 0
4.56 0 0
4.64 0 0
4.72 0 0
4.8 0 0
4.88 0 0
4.96 0 0
5.04 0 0
5.12 0 0
5.2 0 0
5.28 0 0
5.36 0 0
5.44 0 0
5.52 0 0
5.6 0 0
5.68 0 0
5.76 0 0
5.84 0 0
5.92 0 0
6 0 0
6.08 0 0
6.16 0 0
6.24 0 0
6.32 0 0
6.4 0 0
6.48 0 0
6.56 0 0
6.64 0 0
6.72 0 0
6.8 0 0
6.88 0 0
6.96 0 0
7.04 0 0
7.12 0 0
7.2 0 0
7.28 0 0
7.36 0 0
7.44 0 0
7.52 0 0
7.6 0 0
7.68 0 0
7.76 0 0
7.84 0 0
7.92 0 0
8 0 0
8.08 0 0
8.16 0 0
8.24 0 0
8.32 0 0
8.4 0 0
8.48 0 0
8.56 0 0
8.64 0 0
8.72 0 0
8.8 0 0
8.88 0 0
8.96 0 0
9.04 0 0
9.12 0 0
9.2 0 0
9.28 0 0
9.36 0 0
9.44 0 0
9.52 0 0
9.6 0 0
9.68 0 0
9.76 0 0
9.84 0 0
9.92 0 0
10 0 0
10.08 0 0
10.16 0 0
10.24 0 0
10.32 0 0
10.4 0 0
10.48 0 0
10.56 0 0
10.64 0 0
10.72 0 0
10.8 0 0
10.88 0 0
10.96 0 0
11.04 0 0
11.12 0 0
11.2 0 0
11.28 0 0
11.36 0 0
11.44 0 0
11.52 0 0
11.6 0 0
11.68 0 0
11.76 0 0
11.84 0 0
11.92 0 0
12 0 0
12.08 0 0
12.16 0 0
12.24 0 0
12.32 0 0
12.4 0 0
12.48 0 0
12.56 0 0
12.64 0 0
12.72 0 0
12.8 0 0
12.88 0 0
12.96 0 0
13.04 0 0
13.12 0 0
13.2 0 0
13.28 0 0
13.36 0 0
13.44 0 0
13.52 0 0
13.6 0 0
13.68 0 0
13.76 0 0
13.84 0 0
13.92 0 0
14 0 0
14.08 0 0
14.16 0 0
14.24 0 0
14.32 0 0
14.4 0 0
14.48 0 0
14.56 0 0
14.64 0 0
14.72 0 0
14.8 0 0
14.88 0 0
14.96 0 0
15.04 0 0
15.12 0 0
15.2 0 0
15.28 0 0
15.36 0 0
15.44 0 0
15.52 0 0
15.6 0 0
15.68 0 0
15.76 0 0
15.84 0 0
15.92 0 0
16 0 0
16.08 0 0
16.16 0 0
16.24 0 0
16.32 0 0
16.4 0 0
16.48 0 0
16.56 0 0
16.64 0 0
16.72 0 0
16.8 0 0
16.88 0 0
16.96 0 0
17.04 0 0
17.12 0 0
17.2 0 0
17.28 0 0
17.36 0 0
17.44 0 0
17.52 0 0
17.6 0 0
17.68 0 0
17.76 0 0
17.84 0 0
17.92 0 0
18 0 0
18.08 0 0
18.16 0 0
18.24 0 0
18.32 0 0
18.4 0 0
18.48 0 0
18.56 0 0
18.64 0 0
18.72 0 0
18.8 0 0
18.88 0 0
18.96 0 0
19.04 0 0
19.12 0 0
19.2 0 0
19.28 0 0
19.36 0 0
19.44 0 0
19.52 0 0
19.6 0 0
19.68 0 0
19.76 0 0
19.84 0 0
19.92 0 0
20 0 0
20.08 0 0
20.16 0 0
20.24 0 0
20.32 0 0
20.4 0 0
20.48 0 0
20.56 0 0
20.64 0 0
20.72 0 0
20.8 0 0
20.88 0 0
20.96 0 0
21.04 0 0
21.12 0 0
21.2 0 0
21.28 0 0
21.36 0 0
21.44 0 0
21.52 0 0
21.6 0 0
21.68 0 0
21.76 0 0
21.84 0 0
21.92 0 0
22 0 0
22.08 0 0
22.16 0 0
22.24 0 0
22.32 0 0
22.4 0 0
22.48 0 0
22.56 0 0
22.64 0 0
22.72 0 0
22.8 0 0
22.88 0 0
22.96 0 0
23.04 0 0
23.12 0 0
23.2 0 0
23.28 0 0
23.36 0 0
23.44 0 0
23.52 0 0
23.6 0 0
23.68 0 0
23.76 0 0
23.84 0 0
23.92 0 0
24 0 0
24.08 0 0
24.16 0 0
24.24 0 0
24.32 0 0
24.4 0 0
24.48 0 0
24.56 0 0
24.64 0 0
24.72 0 0
24.8 0 0
24.88 0 0
24.96 0 0
25.04 0 0
25.12 0 0
25.2 0 0
25.28 0 0
25.36 0 0
25.44 0 0
25.52 0 0
25.6 0 0
25.68 0 0
25.76 0 0
25.84 0 0
25.92 0 0
26 0 0
26.08 0 0
26.16 0 0
26.24 0 0
26.32 0 0
26.4 0 0
26.48 0 0
26.56 0 0
26.64 0 0
26.72 0 0
26.8 0 0
26.88 0 0
26.96 0 0
27.04 0 0
27.12 0 0
27.2 0 0
27.28 0 0
27.36 0 0
27.44 0 0
27.52 0 0
27.6 0 0
27.68 0 0
27.76 0 0
27.84 0 0
27.92 0 0
28 0 0
28.08 0 0
28.16 0 0
28.24 0 0
28.32 0 0
28.4 0 0
28.48 0 0
28.56 0 0
28.64 0 0
28.72 0 0
28.8 0 0
28.88 0 0
28.96 0 0
29.04 0 0
29.12 0 0
29.2 0 0
29.28 0 0
29.36 0 0
29.44 0 0
29.52 0 0
29.6 0 0
29.68 0 0
29.76 0 0
29.84 0 0
29.92 0 0
30 0 0
30.08 0 0
30.16 0 0
30.24 0 0
30.32 0 0
30.4 0 0
30.48 0 0
30.56 0 0
30.64 0 0
30.72 0 0
30.8 0 0
30.88 0 0
30.96 0 0
31.04 0 0
31.12 0 0
31.2 0 0
31.28 0 0
31.36 0 0
31.44 0 0
31.52 0 0
31.6 0 0
31.68 0 0
31.76 0 0
31.84 0 0
31.92 0 0
0 0.02 0
0.08 0.02 0
0.16 0.02 0
0.24 0.02 0
0.32 0.02 0
0.4 0.02 0
0.48 0.02 0
0.56 0.02 0
0.64 0.02 0
0.72 0.02 0
0.8 0.02 0
0.88 0.02 0
0.96 0.02 0
1.04 0.02 0
1.12 0.02 0
1.2 0.02 0
1.28 0.02 0
1.36 0.02 0
1.44 0.02 0
1.52 0.02 0
1.6 0.02 0
1.68 0.02 0
1.76 0.02 0
1.84 0.02 0
1.92 0.02 0
2 0.02 0
2.08 0.02 0
2.16 0.02 0
2.24 0.02 0
2.32 0.02 0
2.4 0.02 0
2.48 0.02 0
2.56 0.02 0
2.64 0.02 0
2.72 0.02 0
2.8 0.02 0
2.88 0.02 0
2.96 0.02 0
3.04 0.02 0
3.12 0.02 0
3.2 0.02 0
3.28 0.02 0
3.36 0.02 0
3.44 0.02 0
3.52 0.02 0
3.6 0.02 0
3.68 0.02 0
3.76 0.02 0
3.84 0.02 0
3.92 0.02 0
4 0.02 0
4.08 0.02 0
4.16 0.02 0
4.24 0.02 0
4.32 0.02 0
4.4 0.02 0
4.48 0.02 0
4.56 0.02 0
4.64 0.02 0
4.72 0.02 0
4.8 0.02 0
4.88 0.02 0
4.96 0.02 0
5.04 0.02 0
5.12 0.02 0
5.2 0.02 0
5.28 0.02 0
5.36 0.02 0
5.44 0.02 0
5.52 0.02 0
5.6 0.02 0
5.68 0.02 0
5.76 0.02 0
5.84 0.02 0
5.92 0.02 0
6 0.02 0
6.08 0.02 0
6.16 0.02 0
6.24 0.02 0
6.32 0.02 0
6.4 0.02 0
6.48 0.02 0
6.56 0.02 0
6.64 0.02 0
6.72 0.02 0
6.8 0.02 0
6.88 0.02 0
6.96 0.02 0
7.04 0.02 0
7.12 0.02 0
7.2 0.02 0
7.28 0.02 0
7.36 0.02 0
7.44 0.02 0
7.52 0.02 0
7.6 0.02 0
7.68 0.02 0
7.76 0.02 0
7.84 0.02 0
7.92 0.02 0
8 0.02 0
8.08 0.02 0
8.16 0.02 0
8.24 0.02 0
8.32 0.02 0
8.4 0.02 0
8.48 0.02 0
8.56 0.02 0
8.64 0.02 0
8.72 0.02 0
8.8 0.02 0
8.88 0.02 0
8.96 0.02 0
9.04 0.02 0
9.12 0.02 0
9.2 0.02 0
9.28 0.02 0
9.36 0.02 0
9.44 0.02 0
9.52 0.02 0
9.6 0.02 0
9.68 0.02 0
9.76 0.02 0
9.84 0.02 0
9.92 0.02 0
10 0.02 0
10.08 0.02 0
10.16 0.02 0
10.24 0.02 0
10.32 0.02 0
10.4 0.02 0
10.48 0.02 0
10.56 0.02 0
10.64 0.02 0
10.72 0.02 0
10.8 0.02 0
10.88 0.02 0
10.96 0.02 0
11.04 0.02 0
11.12 0.02 0
11.2 0.02 0
11.28 0.02 0
11.36 0.02 0
11.44 0.02 0
11.52 0.02 0
11.6 0.02 0
11.68 0.02 0
11.76 0.02 0
11.84 0.02 0
11.92 0.02 0
12 0.02 0
12.08 0.02 0
12.16 0.02 0
12.24 0.02 0
12.32 0.02 0
12.4 0.02 0
12.48 0.02 0
12.56 0.02 0
12.64 0.02 0
12.72 0.02 0
12.8 0.02 0
12.88 0.02 0
12.96 0.02 0
13.04 0.02 0
13.12 0.02 0
13.2 0.02 0
13.28 0.02 0
13.36 0.02 0
13.44 0.02 0
13.52 0.02 0
13.6 0.02 0
13.68 0.02 0
13.76 0.02 0
13.84 0.02 0
13.92 0.02 0
14 0.02 0
14.08 0.02 0
14.16 0.02 0
14.24 0.02 0
14.32 0.02 0
14.4 0.02 0
14.48 0.02 0
14.56 0.02 0
14.64 0.02 0
14.72 0.02 0
14.8 0.02 0
14.88 0.02 0
14.96 0.02 0
15.04 0.02 0
15.12 0.02 0
15.2 0.02 0
15.28 0.02 0
15.36 0.02 0
15.44 0.02 0
15.52 0.02 0
15.6 0.02 0
15.68 0.02 0
15.76 0.02 0
15.84 0.02 0
15.92 0.02 0
16 0.02 0
16.08 0.02 0
16.16 0.02 0
16.24 0.02 0
16.32 0.02 0
16.4 0.02 0
16.48 0.02 0
16.56 0.02 0
16.64 0.02 0
16.72 0.02 0
16.8 0.02 0
16.88 0.02 0
16.96 0.02 0
17.04 0.02 0
17.12 0.02 0
17.2 0.02 0
17.28 0.02 0
17.36 0.02 0
17.44 0.02 0
17.52 0.02 0
17.6 0.02 0
17.68 0.02 0
17.76 0.02 0
17.84 0.02 0
17.92 0.02 0
18 0.02 0
18.08 0.02 0
18.16 0.02 0
18.24 0.02 0
18.32 0.02 0
18.4 0.02 0
18.48 0.02 0
18.56 0.02 0
18.64 0.02 0
18.72 0.02 0
18.8 0.02 0
18.88 0.02 0
18.96 0.02 0
19.04 0.02 0
19.12 0.02 0
19.2 0.02 0
19.28 0.02 0
19.36 0.02 0
19.44 0.02 0
19.52 0.02 0
19.6 0.02 0
19.68 0.02 0
19.76 0.02 0
19.84 0.02 0
19.92 0.02 0
20 0.02 0
20.08 0.02 0
20.16 0.02 0
20.24 0.02 0
20.32 0.02 0
20.4 0.02 0
20.48 0.02 0
20.56 0.02 0
20.64 0.02 0
20.72 0.02 0
20.8 0.02 0
20.88 0.02 0
20.96 0.02 0
21.04 0.02 0
21.12 0.02 0
21.2 0.02 0
21.28 0.02 0
21.36 0.02 0
21.44 0.02 0
21.52 0.02 0
21.6 0.02 0
21.68 0.02 0
21.76 0.02 0
21.84 0.02 0
21.92 0.02 0
22 0.02 0
22.08 0.02 0
22.16 0.02 0
22.24 0.02 0
22.32 0.02 0
22.4 0.02 0
22.48 0.02 0
22.56 0.02 0
22.64 0.02 0
22.72 0.02 0
22.8 0.02 0
22.88 0.02 0
22.96 0.02 0
23.04 0.02 0
23.12 0.02 0
23.2 0.02 0
23.28 0.02 0
23.36 0.02 0
23.44 0.02 0
23.52 0.02 0
23.6 0.02 0
23.68 0.02 0
23.76 0.02 0
23.84 0.02 0
23.92 0.02 0
24 0.02 0
24.08 0.02 0
24.16 0.02 0
24.24 0.02 0
24.32 0.02 0
24.4 0.02 0
24.48 0.02 0
24.56 0.02 0
24.64 0.02 0
24.72 0.02 0
24.8 0.02 0
24.88 0.02 0
24.96 0.02 0
25.04 0.02 0
25.12 0.02 0
25.2 0.02 0
25.28 0.02 0
25.36 0.02 0
25.44 0.02 0
25.52 0.02 0
25.6 0.02 0
25.68 0.02 0
25.76 0.02 0
25.84 0.02 0
25.92 0.02 0
26 0.02 0
26.08 0.02 0
26.16 0.02 0
26.24 0.02 0
26.32 0.02 0
26.4 0.02 0
26.48 0.02 0
26.56 0.02 0
26.64 0.02 0
26.72 0.02 0
26.8 0.02 0
26.88 0.02 0
26.96 0.02 0
27.04 0.02 0
27.12 0.02 0
27.2 0.02 0
27.28 0.02 0
27.36 0.02 0
27.44 0.02 0
27.52 0.02 0
27.6 0.02 0
27.68 0.02 0
27.76 0.02 0
27.84 0.02 0
27.92 0.02 0
28 0.02 0
28.08 0.02 0
28.16 0.02 0
28.24 0.02 0
28.32 0.02 0
28.4 0.02 0
28.48 0.02 0
28.56 0.02 0
28.64 0.02 0
28.72 0.02 0
28.8 0.02 0
28.88 0.02 0
28.96 0.02 0
29.04 0.02 0
29.12 0.02 0
29.2 0.02 0
29.28 0.02 0
29.36 0.02 0
29.44 0.02 0
29.52 0.02 0
29.6 0.02 0
29.68 0.02 0
29.76 0.02 0
29.84 0.02 0
29.92 0.02 0
30 0.02 0
30.08 0.02 0
30.16 0.02 0
30.24 0.02 0
30.32 0.02 0
30.4 0.02 0
30.48 0.02 0
30.56 0.02 0
30.64 0.02 0
30.72 0.02 0
30.8 0.02 0
30.88 0.02 0
30.96 0.02 0
31.04 0.02 0
31.12 0.02 0
31.2 0.02 0
31.28 0.02 0
31.36 0.02 0
31.44 0.02 0
31.52 0.02 0
31.6 0.02 0
31.68 0.02 0
31.76 0.02 0
31.84 0.02 0
31.92 0.02 0
0 0.04 0
0.08 0.04 0
0.16 0.04 0
0.24 0.04 0
0.32 0.04 0
0.4 0.04 0
0.48 0.04 0
0.56 0.04 0
0.64 0.04 0
0.72 0.04 0
0.8 0.04 0
0.88 0.04 0
0.96 0.04 0
1.04 0.04 0
1.12 0.04 0
1.2 0.04 0
1.28 0.04 0
1.36 0.04 0
1.44 0.04 0
1.52 0.04 0
1.6 0.04 0
1.68 0.04 0
1.76 0.04 0
1.84 0.04 0
1.92 0.04 0
2 0.04 0
2.08 0.04 0
2.16 0.04 0
2.24 0.04 0
2.32 0.04 0
2.4 0.04 0
2.48 0.04 0
2.56 0.04 0
2.64 0.04 0
2.72 0.04 0
2.8 0.04 0
2.88 0.04 0
2.96 0.04 0
3.04 0.04 0
3.12 0.04 0
3.2 0.04 0
3.28 0.04 0
3.36 0.04 0
3.44 0.04 0
3.52 0.04 0
3.6 0.04 0
3.68 0.04 0
3.76 0.04 0
3.84 0.04 0
3.92 0.04 0
4 0.04 0
4.08 0.04 0
4.16 0.04 0
4.24 0.04 0
4.32 0.04 0
4.4 0.04 0
4.48 0.04 0
4.56 0.04 0
4.64 0.04 0
4.72 0.04 0
4.8 0.04 0
4.88 0.04 0
4.96 0.04 0
5.04 0.04 0
5.12 0.04 0
5.2 0.04 0
5.28 0.04 0
5.36 0.04 0
5.44 0.04 0
5.52 0.04 0
5.6 0.04 0
5.68 0.04 0
5.76 0.04 0
5.84 0.04 0
5.92 0.04 0
6 0.04 0
6.08 0.04 0
6.16 0.04 0
6.24 0.04 0
6.32 0.04 0
6.4 0.04 0
6.48 0.04 0
6.56 0.04 0
6.64 0.04 0
6.72 0.04 0
6.8 0.04 0
6.88 0.04 0
6.96 0.04 0
7.04 0.04 0
7.12 0.04 0
7.2 0.04 0
7.28 0.04 0
7.36 0.04 0
7.44 0.04 0
7.52 0.04 0
7.6 0.04 0
7.68 0.04 0
7.76 0.04 0
7.84 0.04 0
[...]
POINT_DATA 20000

SCALARS u float 1
LOOKUP_TABLE default
0
-0.507709
-0.292623
-0.214742
-0.182254
-0.168628
-0.164181
-0.163561
-0.164099
-0.164794
-0.165393
-0.165876
-0.166273
-0.166614
-0.166918
-0.167199
-0.167466
-0.167725
-0.167978
-0.16823
-0.16848
-0.168731
-0.168982
-0.169234
-0.169488
-0.169742
-0.169999
-0.170257
-0.170516
-0.170777
-0.171039
-0.171303
-0.171569
-0.171836
-0.172105
-0.172376
-0.172648
-0.172921
-0.173197
-0.173473
-0.173752
-0.174032
-0.174314
-0.174598
-0.174883
-0.17517
-0.175459
-0.17575
-0.176042
-0.176336
-0.176632
-0.17693
-0.17723
-0.177531
-0.177834
-0.178139
-0.178447
-0.178756
-0.179067
-0.17938
-0.179695
-0.180012
-0.180331
-0.180652
-0.180976
-0.181301
-0.181629
-0.181958
-0.18229
-0.182624
-0.182961
-0.183299
-0.18364
-0.183983
-0.184329
-0.184677
-0.185027
-0.185379
-0.185735
-0.186092
-0.186453
-0.186815
-0.18718
-0.187548
-0.187919
-0.188292
-0.188668
-0.189046
-0.189427
-0.189811
-0.190198
-0.190588
-0.190981
-0.191376
-0.191775
-0.192177
-0.192581
-0.192989
-0.1934
-0.193814
-0.194231
-0.194652
-0.195076
-0.195503
-0.195934
-0.196368
-0.196805
-0.197246
-0.197691
-0.198139
-0.198591
-0.199047
-0.199506
-0.19997
-0.200437
-0.200908
-0.201383
-0.201862
-0.202346
-0.202833
-0.203325
-0.203822
-0.204322
-0.204827
-0.205337
-0.205851
-0.20637
-0.206893
-0.207422
-0.207955
-0.208493
-0.209037
-0.209585
-0.210139
-0.210698
-0.211262
-0.211832
-0.212407
-0.212989
-0.213576
-0.214169
-0.214767
-0.215372
-0.215983
-0.216601
-0.217224
-0.217855
-0.218492
-0.219135
-0.219786
-0.220444
-0.221109
-0.221781
-0.22246
-0.223148
-0.223843
-0.224546
-0.225256
-0.225976
-0.226703
-0.227439
-0.228184
-0.228938
-0.2297
-0.230472
-0.231254
-0.232045
-0.232846
-0.233657
-0.234479
-0.235311
-0.236153
-0.237007
-0.237872
-0.238749
-0.239637
-0.240538
-0.241451
-0.242376
-0.243314
-0.244266
-0.245231
-0.24621
-0.247203
-0.248211
-0.249233
-0.250271
-0.251324
-0.252393
-0.253478
-0.254581
-0.2557
-0.256837
-0.257992
-0.259165
-0.260357
-0.261569
-0.2628
-0.264052
-0.265324
-0.266617
-0.267932
-0.26927
-0.27063
-0.272013
-0.27342
-0.274851
-0.276307
-0.277788
-0.279295
-0.280828
-0.282388
-0.283976
-0.285591
-0.287234
-0.288906
-0.290608
-0.292338
-0.294099
-0.295891
-0.297713
-0.299565
-0.30145
-0.303366
-0.305313
-0.307293
-0.309304
-0.311347
-0.313423
-0.315529
-0.317668
-0.319838
-0.322039
-0.32427
-0.326532
-0.328822
-0.331141
-0.333488
-0.335861
-0.338259
-0.340682
-0.343127
-0.345593
-0.348079
-0.350582
-0.3531
-0.355632
-0.358173
-0.360724
-0.363279
-0.365837
-0.368394
-0.370947
-0.373492
-0.376026
-0.378544
-0.381044
-0.383519
-0.385967
-0.388381
-0.390759
-0.393093
-0.39538
-0.397614
-0.399789
-0.401901
-0.403943
-0.405909
-0.407794
-0.409592
-0.411297
-0.412902
-0.414402
-0.41579
-0.417061
-0.418208
-0.419226
-0.420109
-0.42085
-0.421444
-0.421886
-0.42217
-0.422291
-0.422244
-0.422025
-0.421629
-0.421053
-0.420291
-0.419341
-0.4182
-0.416865
-0.415334
-0.413604
-0.411675
-0.409545
-0.407213
-0.40468
-0.401946
-0.399012
-0.395879
-0.392548
-0.389023
-0.385306
-0.381399
-0.377308
-0.373035
-0.368587
-0.363967
-0.359182
-0.354236
-0.349138
-0.343892
-0.338507
-0.33299
-0.327348
-0.321588
-0.315721
-0.309752
-0.303693
-0.29755
-0.291333
-0.28505
-0.278712
-0.272326
-0.265901
-0.259448
-0.252974
-0.246488
-0.24
-0.233517
-0.227049
-0.220602
-0.214187
-0.207809
-0.201478
-0.195199
-0.18898
-0.182827
-0.176748
-0.170747
-0.164831
-0.159004
-0.153273
-0.14764
-0.142112
-0.13669
-0.131381
-0.126184
-0.121106
-0.116146
-0.111308
-0.106593
-0.102002
-0.0975373
-0.093199
-0.0889873
-0.0849028
-0.0809448
-0.0771136
-0.0734077
-0.069827
-0.0663695
-0.0630346
-0.0598199
-0.0567244
-0.0537454
-0.0508813
-0.0481293
-0.0454874
-0.0429525
-0.0405224
-0.0381938
-0.0359642
-0.0338301
-0.031789
-0.0298371
-0.0279718
-0.0261893
-0.0244867
-0.0228603
-0.0213072
-0.0198235
-0.0184063
-0.0170516
-0.0157568
-0.0145176
-0.0133315
-0.0121942
-0.0111033
-0.0100546
-0.00904574
-0.00807281
-0.00713308
-0.00622221
-0.0053365
-0.00447021
-0.0036176
-0.00276854
-0.00276854
-0.00276854
1
0.507709
0.292623
0.214742
0.182254
0.168628
0.164181
0.163561
0.164099
0.164794
0.165393
0.165876
0.166273
0.166614
0.166918
0.167199
0.167466
0.167725
0.167978
0.16823
0.16848
0.168731
0.168982
0.169234
0.169488
0.169742
0.169999
0.170257
0.170516
0.170777
0.171039
0.171303
0.171569
0.171836
0.172105
0.172376
0.172648
0.172921
0.173197
0.173473
0.173752
0.174032
0.174314
0.174598
0.174883
0.17517
0.175459
0.17575
0.176042
0.176336
0.176632
0.17693
0.17723
0.177531
0.177834
0.178139
0.178447
0.178756
0.179067
0.17938
0.179695
0.180012
0.180331
0.180652
0.180976
0.181301
0.181629
0.181958
0.18229
0.182624
0.182961
0.183299
0.18364
0.183983
0.184329
0.184677
0.185027
0.185379
0.185735
0.186092
0.186453
0.186815
0.18718
0.187548
0.187919
0.188292
0.188668
0.189046
0.189427
0.189811
0.190198
0.190588
0.190981
0.191376
0.191775
0.192177
0.192581
0.192989
0.1934
0.193814
0.194231
0.194652
0.195076
0.195503
0.195934
0.196368
0.196805
0.197246
0.197691
0.198139
0.198591
0.199047
0.199506
0.19997
0.200437
0.200908
0.201383
0.201862
0.202346
0.202833
0.203325
0.203822
0.204322
0.204827
0.205337
0.205851
0.20637
0.206893
0.207422
0.207955
0.208493
0.209037
0.209585
0.210139
0.210698
0.211262
0.211832
0.212407
0.212989
0.213576
0.214169
0.214767
0.215372
0.215983
0.216601
0.217224
0.217855
0.218492
0.219135
0.219786
0.220444
0.221109
0.221781
0.22246
0.223148
0.223843
0.224546
0.225256
0.225976
0.226703
0.227439
0.228184
0.228938
0.2297
0.230472
0.231254
0.232045
0.232846
0.233657
0.234479
0.235311
0.236153
0.237007
0.237872
0.238749
0.239637
0.240538
0.241451
0.242376
0.243314
0.244266
0.245231
0.24621
0.247203
0.248211
0.249233
0.250271
0.251324
0.252393
0.253478
0.254581
0.2557
0.256837
0.257992
0.259165
0.260357
0.261569
0.2628
0.264052
0.265324
0.266617
0.267932
0.26927
0.27063
0.272013
0.27342
0.274851
0.276307
0.277788
0.279295
0.280828
0.282388
0.283976
0.285591
0.287234
0.288906
0.290608
0.292338
0.294099
0.295891
0.297713
0.299565
0.30145
0.303366
0.305313
0.307293
0.309304
0.311347
0.313423
0.315529
0.317668
0.319838
0.322039
0.32427
0.326532
0.328822
0.331141
0.333488
0.335861
0.338259
0.340682
0.343127
0.345593
0.348079
0.350582
0.3531
0.355632
0.358173
0.360724
0.363279
0.365837
0.368394
0.370947
0.373492
0.376026
0.378544
0.381044
0.383519
0.385967
0.388381
0.390759
0.393093
0.39538
0.397614
0.399789
0.401901
0.403943
0.405909
0.407794
0.409592
0.411297
0.412902
0.414402
0.41579
0.417061
0.418208
0.419226
0.420109
0.42085
0.421444
0.421886
0.42217
0.422291
0.422244
0.422025
0.421629
0.421053
0.420291
0.419341
0.4182
0.416865
0.415334
0.413604
0.411675
0.409545
0.407213
0.40468
0.401946
0.399012
0.395879
0.392548
0.389023
0.385306
0.381399
0.377308
0.373035
0.368587
0.363967
0.359182
0.354236
0.349138
0.343892
0.338507
0.33299
0.327348
0.321588
0.315721
0.309752
0.303693
0.29755
0.291333
0.28505
0.278712
0.272326
0.265901
0.259448
0.252974
0.246488
0.24
0.233517
0.227049
0.220602
0.214187
0.207809
0.201478
0.195199
0.18898
0.182827
0.176748
0.170747
0.164831
0.159004
0.153273
0.14764
0.142112
0.13669
0.131381
0.126184
0.121106
0.116146
0.111308
0.106593
0.102002
0.0975373
0.093199
0.0889873
0.0849028
0.0809448
0.0771136
0.0734077
0.069827
0.0663695
0.0630346
0.0598199
0.0567244
0.0537454
0.0508813
0.0481293
0.0454874
0.0429525
0.0405224
0.0381938
0.0359642
0.0338301
0.031789
0.0298371
0.0279718
0.0261893
0.0244867
0.0228603
0.0213072
0.0198235
0.0184063
0.0170516
0.0157568
0.0145176
0.0133315
0.0121942
0.0111033
0.0100546
0.00904574
0.00807281
0.00713308
0.00622221
0.0053365
0.00447021
0.0036176
0.00276854
0.00276854
0.00276854
1
0.925557
0.736286
0.598005
0.519778
0.482531
0.468084
0.463971
0.463634
0.464372
0.465298
0.466184
0.466995
0.467742
0.468442
0.469109
0.469754
0.470385
0.471008
0.471625
0.472242
0.472858
0.473477
0.474096
0.474719
0.475344
0.475973
0.476604
0.477239
0.477877
0.478519
0.479163
0.479812
0.480463
0.481118
0.481777
0.482439
0.483104
0.483773
0.484444
0.48512
0.485799
0.486482
0.487168
0.487858
0.488551
0.489248
0.489949
0.490653
0.491361
0.492073
0.492788
0.493507
0.49423
0.494957
0.495688
0.496423
0.497161
0.497904
0.49865
0.499401
0.500156
0.500915
0.501678
0.502445
0.503216
0.503992
0.504772
0.505556
0.506345
0.507138
0.507935
0.508738
0.509544
0.510355
0.511171
0.511992
0.512816
0.513646
0.514481
0.515321
0.516165
0.517014
0.517868
0.518728
0.519592
0.520461
0.521336
0.522216
0.5231
0.523991
0.524887
0.525788
0.526694
0.527607
0.528524
0.529447
0.530376
0.531311
0.532251
0.533198
0.53415
0.535108
0.536072
0.537043
0.538019
0.539002
0.53999
0.540986
0.541987
0.542995
0.544009
0.545031
0.546058
0.547093
0.548134
0.549182
0.550237
0.5513
0.552368
0.553445
0.554528
0.555619
0.556717
0.557823
0.558935
0.560056
0.561184
0.562321
0.563464
0.564616
0.565776
0.566944
0.56812
0.569304
0.570496
0.571698
0.572907
0.574125
0.575352
0.576588
0.577832
0.579085
0.580348
0.581619
0.5829
0.58419
0.58549
0.586799
0.588118
0.589446
0.590784
0.592133
0.593491
0.59486
0.596238
0.597627
0.599026
0.600437
0.601857
0.603289
0.604731
0.606184
0.607648
0.609124
0.61061
0.612108
0.613617
0.615139
0.616671
0.618216
0.619772
0.621341
0.622921
0.624514
0.626119
0.627736
0.629366
0.631008
0.632663
0.634331
0.636011
0.637704
0.63941
0.641129
0.642861
0.644607
0.646365
0.648137
0.649921
0.651719
0.65353
0.655355
0.657192
0.659044
0.660907
0.662785
0.664675
0.666578
0.668494
0.670424
0.672365
0.674319
0.676285
0.678264
0.680254
0.682256
0.684269
0.686293
0.688327
0.690372
0.692426
0.69449
0.696561
0.698642
0.700729
0.702823
0.704923
0.707028
0.709137
0.711249
0.713364
0.715479
0.717594
0.719708
0.721818
0.723924
0.726024
0.728116
0.730198
0.73227
0.734327
0.736369
0.738393
0.740396
0.742376
0.744331
0.746257
0.748152
0.750012
0.751835
0.753615
0.755352
0.757039
0.758674
0.760253
0.761771
0.763224
0.764608
0.765917
0.767148
0.768295
0.769353
0.770317
0.771182
0.771942
0.772592
0.773126
0.773539
0.773824
0.773977
0.77399
0.773858
0.773575
0.773136
0.772534
0.771763
0.770818
0.769693
0.768381
0.766878
0.765178
0.763275
0.761165
0.758844
0.756304
0.753544
0.750557
0.747341
0.743892
0.740206
0.736281
0.732115
0.727703
0.723047
0.718143
0.712992
0.707593
0.701946
0.696051
0.68991
0.683524
0.676896
0.670028
0.662924
0.655587
0.648022
0.640233
0.632226
0.624006
0.615581
0.606956
0.59814
0.58914
0.579964
0.570622
0.561121
0.551472
0.541685
0.531769
0.521736
0.511594
0.501357
0.491035
0.480639
0.47018
0.459672
0.449123
0.438547
0.427955
0.417359
0.406769
0.396199
0.385658
0.375158
0.364709
0.354323
0.344009
0.333778
0.323639
0.313603
0.303676
0.29387
0.284191
0.274647
0.265246
0.255996
0.246901
0.237968
0.229204
0.220612
0.212198
0.203965
0.195917
0.188059
0.18039
0.172916
0.165636
0.158554
0.151668
0.144981
0.138491
0.1322
0.126105
0.120207
0.114503
0.108992
0.103672
0.0985411
0.0935957
0.0888341
0.0842521
0.0798475
0.0756157
0.071554
0.0676575
0.0639232
0.0603459
0.0569224
0.0536472
0.0505169
0.0475257
0.0446702
0.0419446
0.0393451
0.036866
0.0345034
0.0322516
0.0301068
0.0280631
0.0261167
0.0242619
0.0224949
0.0208099
0.0192034
0.0176695
0.0162047
0.0148034
0.0134622
0.0121755
0.0109403
0.00975102
0.00860445
0.00749452
0.00641676
0.00536349
0.00432793
0.00329956
0.00329956
0.00329956
1
1.0814
0.998312
0.883165
0.795334
0.744001
0.719382
0.709494
0.706312
0.705785
0.706208
0.706936
0.707746
0.708561
0.70936
0.710137
0.710896
0.711641
0.712378
0.713107
0.713834
0.714559
0.715285
0.716011
0.716739
0.71747
0.718203
0.718938
0.719677
0.720418
0.721162
0.721909
0.722659
0.723412
0.724168
0.724926
0.725688
0.726452
0.727219
0.727989
0.728763
0.729538
0.730317
0.731099
0.731884
0.732671
0.733461
0.734254
0.735051
0.73585
0.736652
0.737457
0.738265
0.739075
0.739889
0.740706
0.741526
0.742349
0.743175
0.744003
0.744836
0.74567
0.746508
0.747349
0.748194
0.749041
0.749891
0.750744
0.751601
0.752461
0.753324
0.75419
0.755059
0.755931
0.756807
0.757686
0.758568
0.759453
0.760341
0.761233
0.762128
0.763026
0.763928
0.764832
0.765741
0.766652
0.767567
0.768485
0.769406
0.770331
0.771259
0.77219
0.773125
0.774063
0.775005
0.775949
0.776898
0.77785
0.778805
0.779763
0.780725
0.781691
0.78266
0.783632
0.784608
0.785586
0.786569
0.787555
0.788545
0.789537
0.790534
0.791534
0.792537
0.793544
0.794554
0.795567
0.796585
0.797605
0.798629
0.799656
0.800687
0.801721
0.802759
0.8038
0.804845
0.805892
0.806943
0.807998
0.809056
0.810117
0.811181
0.812249
0.81332
0.814394
0.815472
0.816552
0.817637
0.818723
0.819814
0.820907
0.822004
0.823103
0.824206
0.825311
0.826419
0.82753
0.828645
0.829762
0.830882
0.832004
0.833129
0.834257
0.835387
0.83652
0.837656
0.838793
0.839933
0.841075
0.84222
0.843366
0.844515
0.845666
0.846818
0.847972
0.849129
0.850286
0.851445
0.852605
0.853767
0.85493
0.856094
0.857259
0.858425
0.859591
0.860758
0.861925
0.863093
0.86426
0.865428
0.866595
0.867763
0.868929
0.870094
0.871259
0.872423
0.873584
0.874745
0.875903
0.87706
0.878214
0.879366
0.880514
0.88166
0.882801
0.88394
0.885073
0.886203
0.887327
0.888447
0.889561
0.890668
0.891769
0.892864
0.893951
0.89503
0.8961
0.897162
0.898213
0.899255
0.900285
0.901304
0.902311
0.903304
0.904284
0.905249
0.906198
0.90713
0.908045
0.908941
0.909818
0.910673
0.911506
0.912316
0.913101
0.91386
0.91459
0.915292
0.915962
0.9166
0.917202
0.917768
0.918295
0.918782
0.919225
0.919624
0.919974
0.920274
0.92052
0.920712
0.920844
0.920914
0.92092
0.920857
0.920723
0.920514
0.920226
0.919857
0.9194
0.918854
0.918214
0.917475
0.916634
0.915686
0.914626
0.91345
0.912154
0.910733
0.909181
0.907494
0.905668
0.903697
0.901577
0.899302
0.896868
0.89427
0.891502
0.888561
0.885441
0.882139
0.878648
0.874966
0.871086
0.867007
0.862724
0.858232
0.853529
0.848612
0.843476
0.838121
0.832542
0.82674
0.82071
0.814454
0.807968
0.801253
0.794309
0.787136
0.779734
0.772106
0.764252
0.756174
0.747876
0.73936
0.73063
0.721691
0.712545
0.703199
0.693659
0.683929
0.674017
0.66393
0.653675
0.64326
0.632692
0.621982
0.611137
0.600168
0.589083
0.577893
0.566608
0.555239
0.543796
0.532291
0.520735
0.509138
0.497512
0.485869
0.474219
0.462575
0.450946
0.439347
0.427785
0.416275
0.404824
0.393446
0.382149
0.370944
0.359841
0.348849
0.337978
0.327236
0.316632
0.306174
0.295869
0.285725
0.275748
0.265946
0.256322
0.246884
0.237636
0.228582
0.219726
0.211072
0.202622
0.19438
0.186347
0.178526
0.170916
0.163519
0.156336
0.149366
0.142608
0.136062
0.129726
0.1236
0.11768
0.111966
0.106453
0.101141
0.096024
0.0911008
0.0863667
0.0818188
0.0774523
0.0732639
0.0692484
0.0654024
0.0617204
0.0581985
0.0548312
0.0516146
0.0485427
0.0456116
0.0428152
0.0401497
0.0376088
0.0351886
0.032883
0.0306879
0.0285972
0.026607
0.0247113
0.022906
0.0211854
0.0195454
0.0179803
0.0164863
0.0150575
0.0136905
0.0123795
0.0111213
0.00991042
0.00874314
0.00761345
0.00651657
0.00544481
0.00439127
0.00334641
0.00334641
0.00334641
1
1.11348
1.11665
1.05527
0.986465
0.934972
0.904063
0.888254
0.881197
0.878508
0.877796
0.877921
0.878387
0.878981
0.879617
0.880259
0.880895
0.88152
0.882137
0.882746
0.883349
0.883949
0.884547
0.885143
0.88574
0.886336
0.886933
0.887531
0.88813
0.88873
0.889331
0.889933
0.890537
0.891141
0.891747
0.892353
0.892961
0.893569
0.894178
0.894789
0.8954
0.896012
0.896625
0.897239
0.897854
0.89847
0.899086
0.899703
0.900321
0.90094
0.901559
0.902179
0.9028
0.903422
0.904044
0.904667
0.90529
0.905914
0.906539
0.907164
0.90779
0.908416
0.909043
0.90967
0.910298
0.910927
0.911556
0.912185
0.912815
0.913445
0.914076
0.914706
0.915338
0.915969
0.916601
0.917233
0.917866
0.918499
0.919132
0.919765
0.920398
0.921032
0.921666
0.922299
0.922933
0.923567
0.924201
0.924835
0.925469
0.926103
0.926737
0.927371
0.928004
0.928638
0.929271
0.929904
0.930537
0.931169
0.931801
0.932433
0.933065
0.933696
0.934326
0.934956
0.935586
0.936214
0.936843
0.93747
0.938097
0.938723
0.939349
0.939973
0.940597
0.94122
0.941841
0.942462
0.943082
0.9437
0.944318
0.944934
0.945549
0.946163
0.946775
0.947386
0.947995
0.948603
0.949209
0.949813
0.950416
0.951017
0.951616
0.952214
0.952809
0.953402
0.953993
0.954582
0.955169
0.955753
0.956335
0.956914
0.957491
0.958065
0.958637
0.959205
0.959771
0.960334
0.960894
0.96145
0.962004
0.962554
0.9631
0.963643
0.964183
0.964718
0.965251
0.965778
0.966303
0.966822
0.967338
0.967849
0.968356
0.968858
0.969356
0.969848
0.970336
0.970819
0.971296
0.971769
0.972235
0.972696
0.973152
0.973601
0.974045
0.974482
0.974914
0.975338
0.975756
0.976167
0.976572
0.976969
0.977359
0.977741
0.978116
0.978483
0.978842
0.979192
0.979535
0.979868
0.980193
0.980509
0.980816
0.981113
0.9814
0.981677
0.981944
0.982201
0.982446
0.982681
0.982904
0.983115
0.983314
0.983501
0.983675
0.983836
0.983983
0.984117
0.984236
0.984339
0.984428
0.9845
0.984557
0.984596
0.984617
0.98462
0.984605
0.984569
0.984513
0.984436
0.984337
0.984214
0.984068
0.983897
0.9837
0.983475
0.983222
0.982939
0.982626
0.98228
0.9819
0.981485
0.981032
0.980541
0.980008
0.979433
0.978814
0.978147
0.977432
0.976665
0.975844
0.974967
0.97403
0.973032
0.971969
0.970837
0.969635
0.968358
0.967004
0.965569
0.964049
0.96244
0.96074
0.958942
0.957045
0.955043
0.952933
0.95071
0.948369
0.945907
0.943319
0.940599
0.937745
0.934751
0.931612
0.928324
0.924883
0.921282
0.91752
0.91359
0.909488
0.90521
0.900752
0.89611
0.89128
0.886258
0.881041
0.875625
0.870008
0.864186
0.858157
0.851918
0.845469
0.838806
0.83193
0.824838
0.81753
0.810007
0.802269
0.794315
0.786149
0.77777
0.769181
0.760385
0.751385
0.742184
0.732786
0.723196
0.713418
0.703459
0.693323
0.683017
0.672548
0.661923
0.651151
0.640238
0.629193
0.618026
0.606745
0.595359
0.58388
0.572316
0.560678
0.548977
0.537223
0.525427
0.5136
0.501753
0.489898
0.478046
0.466207
0.454392
0.442614
0.430882
0.419208
0.407601
0.396074
0.384634
0.373294
0.362061
0.350946
0.339958
0.329104
0.318394
0.307835
0.297434
0.287199
0.277136
0.267251
0.25755
0.248038
0.23872
0.2296
0.220681
0.211968
0.203463
0.195168
0.187086
0.179217
0.171563
0.164125
0.156902
0.149895
0.143103
0.136524
0.130158
0.124003
0.118056
0.112316
0.10678
0.101445
0.0963077
0.0913648
0.0866125
0.0820474
0.0776649
0.0734614
0.069432
0.0655728
0.0618786
0.0583452
0.0549673
0.0517406
0.0486595
0.0457196
0.0429153
0.0402421
0.0376943
0.0352674
0.0329557
0.0307547
0.0286589
0.0266635
0.0247633
0.0229535
0.0212289
0.019585
0.0180164
0.0165189
0.0150871
0.0137169
0.0124033
0.0111423
0.00992896
0.00875908
0.00762708
0.00652767
0.00545366
0.00439785
0.00335168
0.00335168
0.00335168
1
1.09698
1.147
1.13561
1.09646
1.05505
1.02351
1.00391
0.993448
0.988509
0.986462
0.985796
0.985755
0.985985
0.986327
0.986707
0.987097
0.987482
0.98786
0.98823
0.988592
0.988949
0.989302
0.989651
0.989999
0.990344
0.990689
0.991032
0.991375
0.991717
0.992058
0.992399
0.992739
0.993079
0.993418
0.993756
0.994094
0.994431
0.994767
0.995102
0.995437
0.995771
0.996104
0.996436
0.996767
0.997097
0.997426
0.997754
0.998081
0.998407
0.998731
0.999055
0.999378
0.999699
1.00002
1.00034
1.00066
1.00097
1.00129
1.0016
1.00191
1.00222
1.00253
1.00284
1.00315
1.00345
1.00376
1.00406
1.00436
1.00466
1.00496
1.00525
1.00555
1.00584
1.00613
1.00642
1.0067
1.00699
1.00727
1.00755
1.00783
1.00811
1.00839
1.00866
1.00893
1.0092
1.00947
1.00974
1.01
1.01026
1.01052
1.01078
1.01103
1.01128
1.01153
1.01178
1.01202
1.01227
1.01251
1.01274
1.01298
1.01321
1.01344
1.01367
1.01389
1.01411
1.01433
1.01455
1.01476
1.01497
1.01518
1.01538
1.01558
1.01578
1.01597
1.01616
1.01635
1.01654
1.01672
1.0169
1.01707
1.01724
1.01741
1.01758
1.01774
1.01789
1.01805
1.0182
1.01834
1.01849
1.01862
1.01876
1.01889
1.01902
1.01914
1.01926
1.01937
1.01948
1.01958
1.01969
1.01978
1.01987
1.01996
1.02004
1.02012
1.0202
1.02027
1.02033
1.02039
1.02044
1.02049
1.02054
1.02058
1.02061
1.02064
1.02066
1.02068
1.02069
1.0207
1.0207
1.02069
1.02068
1.02067
1.02065
1.02062
1.02058
1.02054
1.0205
1.02044
1.02039
1.02032
1.02025
1.02017
1.02008
1.01999
1.01989
1.01979
1.01967
1.01955
1.01943
1.01929
1.01915
1.019
1.01884
1.01868
1.0185
1.01832
1.01813
1.01794
1.01773
1.01752