# vtk DataFile Version 2.0
FlowField
ASCII
DATASET STRUCTURED_GRID
DIMENSIONS 400 1 50
POINTS 20000 float
0 0 0
0.08 0 0
0.16 0 0
0.24 0 0
0.32 0 0
0.4 0 0
0.48 0 0
0.56 0 0
0.64 0 0
0.72 0 0
0.8 0 0
0.88 0 0
0.96 0 0
1.04 0 0
1.12 0 0
1.2 0 0
1.28 0 0
1.36 0 0
1.44 0 0
1.52 0 0
1.6 0 0
1.68 0 0
1.76 0 0
1.84 0 0
1.92 0 0
2 0 0
2.08 0 0
2.16 0 0
2.24 0 0
2.32 0 0
2.4 0 0
2.48 0 0
2.56 0 0
2.64 0 0
2.72 0 0
2.8 0 0
2.88 0 0
2.96 0 0
3.04 0 0
3.12 0 0
3.2 0 0
3.28 0 0
3.36 0 0
3.44 0 0
3.52 0 0
3.6 0 0
3.68 0 0
3.76 0 0
3.84 0 0
3.92 0 0
4 0 0
4.08 0 0
4.16 0 0
4.24 0 0
4.32 0 0
4.4 0 0
4.48 0 0
4.56 0 0
4.64 0 0
4.72 0 0
4.8 0 0
4.88 0 0
4.96 0 0
5.04 0 0
5.12 0 0
5.2 0 0
5.28 0 0
5.36 0 0
5.44 0 0
5.52 0 0
5.6 0 0
5.68 0 0
5.76 0 0
5.84 0 0
5.92 0 0
6 0 0
6.08 0 0
6.16 0 0
6.24 0 0
6.32 0 0
6.4 0 0
6.48 0 0
6.56 0 0
6.64 0 0
6.72 0 0
6.8 0 0
6.88 0 0
6.96 0 0
7.04 0 0
7.12 0 0
7.2 0 0
7.28 0 0
7.36 0 0
7.44 0 0
7.52 0 0
7.6 0 0
7.68 0 0
7.76 0 0
7.84 0 0
7.92 0 0
8 0 0
8.08 0 0
8.16 0 0
8.24 0 0
8.32 0 0
8.4 0 0
8.48 0 0
8.56 0 0
8.64 0 0
8.72 0 0
8.8 0 0
8.88 0 0
8.96 0 0
9.04 0 0
9.12 0 0
9.2 0 0
9.28 0 0
9.36 0 0
9.44 0 0
9.52 0 0
9.6 0 0
9.68 0 0
9.76 0 0
9.84 0 0
9.92 0 0
10 0 0
10.08 0 0
10.16 0 0
10.24 0 0
10.32 0 0
10.4 0 0
10.48 0 0
10.56 0 0
10.64 0 0
10.72 0 0
10.8 0 0
10.88 0 0
10.96 0 0
11.04 0 0
11.12 0 0
11.2 0 0
11.28 0 0
11.36 0 0
11.44 0 0
11.52 0 0
11.6 0 0
11.68 0 0
11.76 0 0
11.84 0 0
11.92 0 0
12 0 0
12.08 0 0
12.16 0 0
12.24 0 0
12.32 0 0
12.4 0 0
12.48 0 0
12.56 0 0
12.64 0 0
12.72 0 0
12.8 0 0
12.88 0 0
12.96 0 0
13.04 0 0
13.12 0 0
13.2 0 0
13.28 0 0
13.36 0 0
13.44 0 0
13.52 0 0
13.6 0 0
13.68 0 0
13.76 0 0
13.84 0 0
13.92 0 0
14 0 0
14.08 0 0
14.16 0 0
14.24 0 0
14.32 0 0
14.4 0 0
14.48 0 0
14.56 0 0
14.64 0 0
14.72 0 0
14.8 0 0
14.88 0 0
14.96 0 0
15.04 0 0
15.12 0 0
15.2 0 0
15.28 0 0
15.36 0 0
15.44 0 0
15.52 0 0
15.6 0 0
15.68 0 0
15.76 0 0
15.84 0 0
15.92 0 0
16 0 0
16.08 0 0
16.16 0 0
16.24 0 0
16.32 0 0
16.4 0 0
16.48 0 0
16.56 0 0
16.64 0 0
16.72 0 0
16.8 0 0
16.88 0 0
16.96 0 0
17.04 0 0
17.12 0 0
17.2 0 0
17.28 0 0
17.36 0 0
17.44 0 0
17.52 0 0
17.6 0 0
17.68 0 0
17.76 0 0
17.84 0 0
17.92 0 0
18 0 0
18.08 0 0
18.16 0 0
18.24 0 0
18.32 0 0
18.4 0 0
18.48 0 0
18.56 0 0
18.64 0 0
18.72 0 0
18.8 0 0
18.88 0 0
18.96 0 0
19.04 0 0
19.12 0 0
19.2 0 0
19.28 0 0
19.36 0 0
19.44 0 0
19.52 0 0
19.6 0 0
19.68 0 0
19.76 0 0
19.84 0 0
19.92 0 0
20 0 0
20.08 0 0
20.16 0 0
20.24 0 0
20.32 0 0
20.4 0 0
20.48 0 0
20.56 0 0
20.64 0 0
20.72 0 0
20.8 0 0
20.88 0 0
20.96 0 0
21.04 0 0
21.12 0 0
21.2 0 0
21.28 0 0
21.36 0 0
21.44 0 0
21.52 0 0
21.6 0 0
21.68 0 0
21.76 0 0
21.84 0 0
21.92 0 0
22 0 0
22.08 0 0
22.16 0 0
22.24 0 0
22.32 0 0
22.4 0 0
22.48 0 0
22.56 0 0
22.64 0 0
22.72 0 0
22.8 0 0
22.88 0 0
22.96 0 0
23.04 0 0
23.12 0 0
23.2 0 0
23.28 0 0
23.36 0 0
23.44 0 0
23.52 0 0
23.6 0 0
23.68 0 0
23.76 0 0
23.84 0 0
23.92 0 0
24 0 0
24.08 0 0
24.16 0 0
24.24 0 0
24.32 0 0
24.4 0 0
24.48 0 0
24.56 0 0
24.64 0 0
24.72 0 0
24.8 0 0
24.88 0 0
24.96 0 0
25.04 0 0
25.12 0 0
25.2 0 0
25.28 0 0
25.36 0 0
25.44 0 0
25.52 0 0
25.6 0 0
25.68 0 0
25.76 0 0
25.84 0 0
25.92 0 0
26 0 0
26.08 0 0
26.16 0 0
26.24 0 0
26.32 0 0
26.4 0 0
26.48 0 0
26.56 0 0
26.64 0 0
26.72 0 0
26.8 0 0
26.88 0 0
26.96 0 0
27.04 0 0
27.12 0 0
27.2 0 0
27.28 0 0
27.36 0 0
27.44 0 0
27.52 0 0
27.6 0 0
27.68 0 0
27.76 0 0
27.84 0 0
27.92 0 0
28 0 0
28.08 0 0
28.16 0 0
28.24 0 0
28.32 0 0
28.4 0 0
28.48 0 0
28.56 0 0
28.64 0 0
28.72 0 0
28.8 0 0
28.88 0 0
28.96 0 0
29.04 0 0
29.12 0 0
29.2 0 0
29.28 0 0
29.36 0 0
29.44 0 0
29.52 0 0
29.6 0 0
29.68 0 0
29.76 0 0
29.84 0 0
29.92 0 0
30 0 0
30.08 0 0
30.16 0 0
30.24 0 0
30.32 0 0
30.4 0 0
30.48 0 0
30.56 0 0
30.64 0 0
30.72 0 0
30.8 0 0
30.88 0 0
30.96 0 0
31.04 0 0
31.12 0 0
31.2 0 0
31.28 0 0
31.36 0 0
31.44 0 0
31.52 0 0
31.6 0 0
31.68 0 0
31.76 0 0
31.84 0 0
31.92 0 0
0 0.02 0
0.08 0.02 0
0.16 0.02 0
0.24 0.02 0
0.32 0.02 0
0.4 0.02 0
0.48 0.02 0
0.56 0.02 0
0.64 0.02 0
0.72 0.02 0
0.8 0.02 0
0.88 0.02 0
0.96 0.02 0
1.04 0.02 0
1.12 0.02 0
1.2 0.02 0
1.28 0.02 0
1.36 0.02 0
1.44 0.02 0
1.52 0.02 0
1.6 0.02 0
1.68 0.02 0
1.76 0.02 0
1.84 0.02 0
1.92 0.02 0
2 0.02 0
2.08 0.02 0
2.16 0.02 0
2.24 0.02 0
2.32 0.02 0
2.4 0.02 0
2.48 0.02 0
2.56 0.02 0
2.64 0.02 0
2.72 0.02 0
2.8 0.02 0
2.88 0.02 0
2.96 0.02 0
3.04 0.02 0
3.12 0.02 0
3.2 0.02 0
3.28 0.02 0
3.36 0.02 0
3.44 0.02 0
3.52 0.02 0
3.6 0.02 0
3.68 0.02 0
3.76 0.02 0
3.84 0.02 0
3.92 0.02 0
4 0.02 0
4.08 0.02 0
4.16 0.02 0
4.24 0.02 0
4.32 0.02 0
4.4 0.02 0
4.48 0.02 0
4.56 0.02 0
4.64 0.02 0
4.72 0.02 0
4.8 0.02 0
4.88 0.02 0
4.96 0.02 0
5.04 0.02 0
5.12 0.02 0
5.2 0.02 0
5.28 0.02 0
5.36 0.02 0
5.44 0.02 0
5.52 0.02 0
5.6 0.02 0
5.68 0.02 0
5.76 0.02 0
5.84 0.02 0
5.92 0.02 0
6 0.02 0
6.08 0.02 0
6.16 0.02 0
6.24 0.02 0
6.32 0.02 0
6.4 0.02 0
6.48 0.02 0
6.56 0.02 0
6.64 0.02 0
6.72 0.02 0
6.8 0.02 0
6.88 0.02 0
6.96 0.02 0
7.04 0.02 0
7.12 0.02 0
7.2 0.02 0
7.28 0.02 0
7.36 0.02 0
7.44 0.02 0
7.52 0.02 0
7.6 0.02 0
7.68 0.02 0
7.76 0.02 0
7.84 0.02 0
7.92 0.02 0
8 0.02 0
8.08 0.02 0
8.16 0.02 0
8.24 0.02 0
8.32 0.02 0
8.4 0.02 0
8.48 0.02 0
8.56 0.02 0
8.64 0.02 0
8.72 0.02 0
8.8 0.02 0
8.88 0.02 0
8.96 0.02 0
9.04 0.02 0
9.12 0.02 0
9.2 0.02 0
9.28 0.02 0
9.36 0.02 0
9.44 0.02 0
9.52 0.02 0
9.6 0.02 0
9.68 0.02 0
9.76 0.02 0
9.84 0.02 0
9.92 0.02 0
10 0.02 0
10.08 0.02 0
10.16 0.02 0
10.24 0.02 0
10.32 0.02 0
10.4 0.02 0
10.48 0.02 0
10.56 0.02 0
10.64 0.02 0
10.72 0.02 0
10.8 0.02 0
10.88 0.02 0
10.96 0.02 0
11.04 0.02 0
11.12 0.02 0
11.2 0.02 0
11.28 0.02 0
11.36 0.02 0
11.44 0.02 0
11.52 0.02 0
11.6 0.02 0
11.68 0.02 0
11.76 0.02 0
11.84 0.02 0
11.92 0.02 0
12 0.02 0
12.08 0.02 0
12.16 0.02 0
12.24 0.02 0
12.32 0.02 0
12.4 0.02 0
12.48 0.02 0
12.56 0.02 0
12.64 0.02 0
12.72 0.02 0
12.8 0.02 0
12.88 0.02 0
12.96 0.02 0
13.04 0.02 0
13.12 0.02 0
13.2 0.02 0
13.28 0.02 0
13.36 0.02 0
13.44 0.02 0
13.52 0.02 0
13.6 0.02 0
13.68 0.02 0
13.76 0.02 0
13.84 0.02 0
13.92 0.02 0
14 0.02 0
14.08 0.02 0
14.16 0.02 0
14.24 0.02 0
14.32 0.02 0
14.4 0.02 0
14.48 0.02 0
14.56 0.02 0
14.64 0.02 0
14.72 0.02 0
14.8 0.02 0
14.88 0.02 0
14.96 0.02 0
15.04 0.02 0
15.12 0.02 0
15.2 0.02 0
15.28 0.02 0
15.36 0.02 0
15.44 0.02 0
15.52 0.02 0
15.6 0.02 0
15.68 0.02 0
15.76 0.02 0
15.84 0.02 0
15.92 0.02 0
16 0.02 0
16.08 0.02 0
16.16 0.02 0
16.24 0.02 0
16.32 0.02 0
16.4 0.02 0
16.48 0.02 0
16.56 0.02 0
16.64 0.02 0
16.72 0.02 0
16.8 0.02 0
16.88 0.02 0
16.96 0.02 0
17.04 0.02 0
17.12 0.02 0
17.2 0.02 0
17.28 0.02 0
17.36 0.02 0
17.44 0.02 0
17.52 0.02 0
17.6 0.02 0
17.68 0.02 0
17.76 0.02 0
17.84 0.02 0
17.92 0.02 0
18 0.02 0
18.08 0.02 0
18.16 0.02 0
18.24 0.02 0
18.32 0.02 0
18.4 0.02 0
18.48 0.02 0
18.56 0.02 0
18.64 0.02 0
18.72 0.02 0
18.8 0.02 0
18.88 0.02 0
18.96 0.02 0
19.04 0.02 0
19.12 0.02 0
19.2 0.02 0
19.28 0.02 0
19.36 0.02 0
19.44 0.02 0
19.52 0.02 0
19.6 0.02 0
19.68 0.02 0
19.76 0.02 0
19.84 0.02 0
19.92 0.02 0
20 0.02 0
20.08 0.02 0
20.16 0.02 0
20.24 0.02 0
20.32 0.02 0
20.4 0.02 0
20.48 0.02 0
20.56 0.02 0
20.64 0.02 0
20.72 0.02 0
20.8 0.02 0
20.88 0.02 0
20.96 0.02 0
21.04 0.02 0
21.12 0.02 0
21.2 0.02 0
21.28 0.02 0
21.36 0.02 0
21.44 0.02 0
21.52 0.02 0
21.6 0.02 0
21.68 0.02 0
21.76 0.02 0
21.84 0.02 0
21.92 0.02 0
22 0.02 0
22.08 0.02 0
22.16 0.02 0
22.24 0.02 0
22.32 0.02 0
22.4 0.02 0
22.48 0.02 0
22.56 0.02 0
22.64 0.02 0
22.72 0.02 0
22.8 0.02 0
22.88 0.02 0
22.96 0.02 0
23.04 0.02 0
23.12 0.02 0
23.2 0.02 0
23.28 0.02 0
23.36 0.02 0
23.44 0.02 0
23.52 0.02 0
23.6 0.02 0
23.68 0.02 0
23.76 0.02 0
23.84 0.02 0
23.92 0.02 0
24 0.02 0
24.08 0.02 0
24.16 0.02 0
24.24 0.02 0
24.32 0.02 0
24.4 0.02 0
24.48 0.02 0
24.56 0.02 0
24.64 0.02 0
24.72 0.02 0
24.8 0.02 0
24.88 0.02 0
24.96 0.02 0
25.04 0.02 0
25.12 0.02 0
25.2 0.02 0
25.28 0.02 0
25.36 0.02 0
25.44 0.02 0
25.52 0.02 0
25.6 0.02 0
25.68 0.02 0
25.76 0.02 0
25.84 0.02 0
25.92 0.02 0
26 0.02 0
26.08 0.02 0
26.16 0.02 0
26.24 0.02 0
26.32 0.02 0
26.4 0.02 0
26.48 0.02 0
26.56 0.02 0
26.64 0.02 0
26.72 0.02 0
26.8 0.02 0
26.88 0.02 0
26.96 0.02 0
27.04 0.02 0
27.12 0.02 0
27.2 0.02 0
27.28 0.02 0
27.36 0.02 0
27.44 0.02 0
27.52 0.02 0
27.6 0.02 0
27.68 0.02 0
27.76 0.02 0
27.84 0.02 0
27.92 0.02 0
28 0.02 0
28.08 0.02 0
28.16 0.02 0
28.24 0.02 0
28.32 0.02 0
28.4 0.02 0
28.48 0.02 0
28.56 0.02 0
28.64 0.02 0
28.72 0.02 0
28.8 0.02 0
28.88 0.02 0
28.96 0.02 0
29.04 0.02 0
29.12 0.02 0
29.2 0.02 0
29.28 0.02 0
29.36 0.02 0
29.44 0.02 0
29.52 0.02 0
29.6 0.02 0
29.68 0.02 0
29.76 0.02 0
29.84 0.02 0
29.92 0.02 0
30 0.02 0
30.08 0.02 0
30.16 0.02 0
30.24 0.02 0
30.32 0.02 0
30.4 0.02 0
30.48 0.02 0
30.56 0.02 0
30.64 0.02 0
30.72 0.02 0
30.8 0.02 0
30.88 0.02 0
30.96 0.02 0
31.04 0.02 0
31.12 0.02 0
31.2 0.02 0
31.28 0.02 0
31.36 0.02 0
31.44 0.02 0
31.52 0.02 0
31.6 0.02 0
31.68 0.02 0
31.76 0.02 0
31.84 0.02 0
31.92 0.02 0
0 0.04 0
0.08 0.04 0
0.16 0.04 0
0.24 0.04 0
0.32 0.04 0
0.4 0.04 0
0.48 0.04 0
0.56 0.04 0
0.64 0.04 0
0.72 0.04 0
0.8 0.04 0
0.88 0.04 0
0.96 0.04 0
1.04 0.04 0
1.12 0.04 0
1.2 0.04 0
1.28 0.04 0
1.36 0.04 0
1.44 0.04 0
1.52 0.04 0
1.6 0.04 0
1.68 0.04 0
1.76 0.04 0
1.84 0.04 0
1.92 0.04 0
2 0.04 0
2.08 0.04 0
2.16 0.04 0
2.24 0.04 0
2.32 0.04 0
2.4 0.04 0
2.48 0.04 0
2.56 0.04 0
2.64 0.04 0
2.72 0.04 0
2.8 0.04 0
2.88 0.04 0
2.96 0.04 0
3.04 0.04 0
3.12 0.04 0
3.2 0.04 0
3.28 0.04 0
3.36 0.04 0
3.44 0.04 0
3.52 0.04 0
3.6 0.04 0
3.68 0.04 0
3.76 0.04 0
3.84 0.04 0
3.92 0.04 0
4 0.04 0
4.08 0.04 0
4.16 0.04 0
4.24 0.04 0
4.32 0.04 0
4.4 0.04 0
4.48 0.04 0
4.56 0.04 0
4.64 0.04 0
4.72 0.04 0
4.8 0.04 0
4.88 0.04 0
4.96 0.04 0
5.04 0.04 0
5.12 0.04 0
5.2 0.04 0
5.28 0.04 0
5.36 0.04 0
5.44 0.04 0
5.52 0.04 0
5.6 0.04 0
5.68 0.04 0
5.76 0.04 0
5.84 0.04 0
5.92 0.04 0
6 0.04 0
6.08 0.04 0
6.16 0.04 0
6.24 0.04 0
6.32 0.04 0
6.4 0.04 0
6.48 0.04 0
6.56 0.04 0
6.64 0.04 0
6.72 0.04 0
6.8 0.04 0
6.88 0.04 0
6.96 0.04 0
7.04 0.04 0
7.12 0.04 0
7.2 0.04 0
7.28 0.04 0
7.36 0.04 0
7.44 0.04 0
7.52 0.04 0
7.6 0.04 0
7.68 0.04 0
7.76 0.04 0
7.84 0.04 0
[...]
POINT_DATA 20000

SCALARS u float 1
LOOKUP_TABLE default
0
-0.50709
-0.29192
-0.214162
-0.179027
-0.158666
-0.145112
-0.135361
-0.127969
-0.122141
-0.117403
-0.113452
-0.110089
-0.107176
-0.104617
-0.102344
-0.100305
-0.0984599
-0.0967801
-0.0952417
-0.0938257
-0.0925168
-0.0913023
-0.0901716
-0.0891158
-0.0881271
-0.087199
-0.0863259
-0.0855026
-0.084725
-0.0839889
-0.0832912
-0.0826287
-0.0819987
-0.0813987
-0.0808266
-0.0802805
-0.0797585
-0.0792589
-0.0787804
-0.0783216
-0.0778813
-0.0774582
-0.0770515
-0.0766601
-0.0762833
-0.0759201
-0.0755698
-0.0752318
-0.0749054
-0.0745901
-0.0742852
-0.0739903
-0.0737048
-0.0734284
-0.0731606
-0.0729011
-0.0726494
-0.0724052
-0.0721682
-0.0719381
-0.0717147
-0.0714976
-0.0712865
-0.0710814
-0.0708818
-0.0706877
-0.0704988
-0.070315
-0.0701359
-0.0699616
-0.0697918
-0.0696263
-0.069465
-0.0693078
-0.0691546
-0.0690051
-0.0688593
-0.0687172
-0.0685784
-0.0684431
-0.068311
-0.068182
-0.0680561
-0.0679332
-0.0678132
-0.067696
-0.0675816
-0.0674698
-0.0673606
-0.0672539
-0.0671496
-0.0670477
-0.0669482
-0.0668509
-0.0667558
-0.0666629
-0.066572
-0.0664832
-0.0663964
-0.0663115
-0.0662285
-0.0661473
-0.066068
-0.0659904
-0.0659145
-0.0658403
-0.0657678
-0.0656968
-0.0656274
-0.0655595
-0.0654931
-0.0654282
-0.0653646
-0.0653025
-0.0652417
-0.0651823
-0.0651241
-0.0650672
-0.0650116
-0.0649572
-0.0649039
-0.0648518
-0.0648009
-0.064751
-0.0647022
-0.0646545
-0.0646078
-0.0645622
-0.0645175
-0.0644738
-0.0644311
-0.0643892
-0.0643483
-0.0643083
-0.0642691
-0.0642308
-0.0641933
-0.0641567
-0.0641208
-0.0640857
-0.0640514
-0.0640178
-0.0639849
-0.0639528
-0.0639213
-0.0638905
-0.0638604
-0.063831
-0.0638022
-0.063774
-0.0637464
-0.0637194
-0.063693
-0.0636672
-0.0636419
-0.0636172
-0.063593
-0.0635693
-0.0635462
-0.0635235
-0.0635014
-0.0634797
-0.0634585
-0.0634377
-0.0634174
-0.0633975
-0.0633781
-0.0633591
-0.0633405
-0.0633223
-0.0633044
-0.063287
-0.06327
-0.0632533
-0.0632369
-0.0632209
-0.0632053
-0.06319
-0.063175
-0.0631604
-0.063146
-0.063132
-0.0631183
-0.0631049
-0.0630917
-0.0630789
-0.0630663
-0.063054
-0.0630419
-0.0630301
-0.0630186
-0.0630073
-0.0629962
-0.0629854
-0.0629748
-0.0629645
-0.0629544
-0.0629445
-0.0629348
-0.0629253
-0.062916
-0.0629069
-0.062898
-0.0628893
-0.0628808
-0.0628724
-0.0628643
-0.0628563
-0.0628485
-0.0628408
-0.0628333
-0.062826
-0.0628188
-0.0628118
-0.062805
-0.0627982
-0.0627917
-0.0627852
-0.0627789
-0.0627728
-0.0627667
-0.0627608
-0.062755
-0.0627494
-0.0627438
-0.0627384
-0.0627331
-0.0627279
-0.0627229
-0.0627179
-0.062713
-0.0627083
-0.0627036
-0.0626991
-0.0626946
-0.0626902
-0.062686
-0.0626818
-0.0626777
-0.0626737
-0.0626698
-0.062666
-0.0626622
-0.0626586
-0.062655
-0.0626515
-0.0626481
-0.0626447
-0.0626415
-0.0626383
-0.0626352
-0.0626321
-0.0626292
-0.0626263
-0.0626235
-0.0626207
-0.062618
-0.0626154
-0.0626129
-0.0626104
-0.062608
-0.0626057
-0.0626035
-0.0626013
-0.0625991
-0.0625971
-0.0625951
-0.0625932
-0.0625913
-0.0625896
-0.0625878
-0.0625862
-0.0625846
-0.0625831
-0.0625816
-0.0625802
-0.0625789
-0.0625776
-0.0625764
-0.0625753
-0.0625742
-0.0625731
-0.0625721
-0.0625712
-0.0625704
-0.0625696
-0.0625688
-0.0625681
-0.0625674
-0.0625668
-0.0625663
-0.0625657
-0.0625653
-0.0625649
-0.0625645
-0.0625641
-0.0625638
-0.0625636
-0.0625634
-0.0625632
-0.062563
-0.0625629
-0.0625628
-0.0625627
-0.0625627
-0.0625627
-0.0625627
-0.0625628
-0.0625628
-0.0625629
-0.062563
-0.0625631
-0.0625633
-0.0625634
-0.0625636
-0.0625638
-0.062564
-0.0625642
-0.0625644
-0.0625647
-0.0625649
-0.0625652
-0.0625654
-0.0625657
-0.062566
-0.0625662
-0.0625665
-0.0625668
-0.0625671
-0.0625674
-0.0625677
-0.062568
-0.0625683
-0.0625686
-0.0625689
-0.0625692
-0.0625696
-0.0625699
-0.0625702
-0.0625705
-0.0625708
-0.0625711
-0.0625715
-0.0625718
-0.0625721
-0.0625724
-0.0625728
-0.0625731
-0.0625734
-0.0625737
-0.062574
-0.0625744
-0.0625747
-0.062575
-0.0625753
-0.0625757
-0.062576
-0.0625763
-0.0625766
-0.062577
-0.0625773
-0.0625776
-0.0625779
-0.0625783
-0.0625786
-0.0625789
-0.0625792
-0.0625796
-0.0625799
-0.0625802
-0.0625805
-0.0625809
-0.0625812
-0.0625815
-0.0625818
-0.0625822
-0.0625825
-0.0625828
-0.0625832
-0.0625835
-0.0625838
-0.0625842
-0.0625845
-0.0625848
-0.0625852
-0.0625855
-0.0625859
-0.0625862
-0.0625866
-0.062587
-0.0625873
-0.0625877
-0.0625881
-0.0625884
-0.0625887
-0.0625891
-0.0625889
-0.0625889
-0.0625889
1
0.50709
0.29192
0.214162
0.179027
0.158666
0.145112
0.135361
0.127969
0.122141
0.117403
0.113452
0.110089
0.107176
0.104617
0.102344
0.100305
0.0984599
0.0967801
0.0952417
0.0938257
0.0925168
0.0913023
0.0901716
0.0891158
0.0881271
0.087199
0.0863259
0.0855026
0.084725
0.0839889
0.0832912
0.0826287
0.0819987
0.0813987
0.0808266
0.0802805
0.0797585
0.0792589
0.0787804
0.0783216
0.0778813
0.0774582
0.0770515
0.0766601
0.0762833
0.0759201
0.0755698
0.0752318
0.0749054
0.0745901
0.0742852
0.0739903
0.0737048
0.0734284
0.0731606
0.0729011
0.0726494
0.0724052
0.0721682
0.0719381
0.0717147
0.0714976
0.0712865
0.0710814
0.0708818
0.0706877
0.0704988
0.070315
0.0701359
0.0699616
0.0697918
0.0696263
0.069465
0.0693078
0.0691546
0.0690051
0.0688593
0.0687172
0.0685784
0.0684431
0.068311
0.068182
0.0680561
0.0679332
0.0678132
0.067696
0.0675816
0.0674698
0.0673606
0.0672539
0.0671496
0.0670477
0.0669482
0.0668509
0.0667558
0.0666629
0.066572
0.0664832
0.0663964
0.0663115
0.0662285
0.0661473
0.066068
0.0659904
0.0659145
0.0658403
0.0657678
0.0656968
0.0656274
0.0655595
0.0654931
0.0654282
0.0653646
0.0653025
0.0652417
0.0651823
0.0651241
0.0650672
0.0650116
0.0649572
0.0649039
0.0648518
0.0648009
0.064751
0.0647022
0.0646545
0.0646078
0.0645622
0.0645175
0.0644738
0.0644311
0.0643892
0.0643483
0.0643083
0.0642691
0.0642308
0.0641933
0.0641567
0.0641208
0.0640857
0.0640514
0.0640178
0.0639849
0.0639528
0.0639213
0.0638905
0.0638604
0.063831
0.0638022
0.063774
0.0637464
0.0637194
0.063693
0.0636672
0.0636419
0.0636172
0.063593
0.0635693
0.0635462
0.0635235
0.0635014
0.0634797
0.0634585
0.0634377
0.0634174
0.0633975
0.0633781
0.0633591
0.0633405
0.0633223
0.0633044
0.063287
0.06327
0.0632533
0.0632369
0.0632209
0.0632053
0.06319
0.063175
0.0631604
0.063146
0.063132
0.0631183
0.0631049
0.0630917
0.0630789
0.0630663
0.063054
0.0630419
0.0630301
0.0630186
0.0630073
0.0629962
0.0629854
0.0629748
0.0629645
0.0629544
0.0629445
0.0629348
0.0629253
0.062916
0.0629069
0.062898
0.0628893
0.0628808
0.0628724
0.0628643
0.0628563
0.0628485
0.0628408
0.0628333
0.062826
0.0628188
0.0628118
0.062805
0.0627982
0.0627917
0.0627852
0.0627789
0.0627728
0.0627667
0.0627608
0.062755
0.0627494
0.0627438
0.0627384
0.0627331
0.0627279
0.0627229
0.0627179
0.062713
0.0627083
0.0627036
0.0626991
0.0626946
0.0626902
0.062686
0.0626818
0.0626777
0.0626737
0.0626698
0.062666
0.0626622
0.0626586
0.062655
0.0626515
0.0626481
0.0626447
0.0626415
0.0626383
0.0626352
0.0626321
0.0626292
0.0626263
0.0626235
0.0626207
0.062618
0.0626154
0.0626129
0.0626104
0.062608
0.0626057
0.0626035
0.0626013
0.0625991
0.0625971
0.0625951
0.0625932
0.0625913
0.0625896
0.0625878
0.0625862
0.0625846
0.0625831
0.0625816
0.0625802
0.0625789
0.0625776
0.0625764
0.0625753
0.0625742
0.0625731
0.0625721
0.0625712
0.0625704
0.0625696
0.0625688
0.0625681
0.0625674
0.0625668
0.0625663
0.0625657
0.0625653
0.0625649
0.0625645
0.0625641
0.0625638
0.0625636
0.0625634
0.0625632
0.062563
0.0625629
0.0625628
0.0625627
0.0625627
0.0625627
0.0625627
0.0625628
0.0625628
0.0625629
0.062563
0.0625631
0.0625633
0.0625634
0.0625636
0.0625638
0.062564
0.0625642
0.0625644
0.0625647
0.0625649
0.0625652
0.0625654
0.0625657
0.062566
0.0625662
0.0625665
0.0625668
0.0625671
0.0625674
0.0625677
0.062568
0.0625683
0.0625686
0.0625689
0.0625692
0.0625696
0.0625699
0.0625702
0.0625705
0.0625708
0.0625711
0.0625715
0.0625718
0.0625721
0.0625724
0.0625728
0.0625731
0.0625734
0.0625737
0.062574
0.0625744
0.0625747
0.062575
0.0625753
0.0625757
0.062576
0.0625763
0.0625766
0.062577
0.0625773
0.0625776
0.0625779
0.0625783
0.0625786
0.0625789
0.0625792
0.0625796
0.0625799
0.0625802
0.0625805
0.0625809
0.0625812
0.0625815
0.0625818
0.0625822
0.0625825
0.0625828
0.0625832
0.0625835
0.0625838
0.0625842
0.0625845
0.0625848
0.0625852
0.0625855
0.0625859
0.0625862
0.0625866
0.062587
0.0625873
0.0625877
0.0625881
0.0625884
0.0625887
0.0625891
0.0625889
0.0625889
0.0625889
1
0.924297
0.735447
0.597551
0.511658
0.456343
0.418184
0.390281
0.36895
0.352066
0.338319
0.32686
0.317121
0.308704
0.30133
0.294793
0.288942
0.283661
0.278861
0.274473
0.270439
0.266716
0.263265
0.260055
0.257061
0.254259
0.25163
0.249158
0.246829
0.24463
0.24255
0.240579
0.238708
0.236929
0.235236
0.233622
0.232082
0.23061
0.229202
0.227853
0.226561
0.22532
0.224129
0.222984
0.221883
0.220822
0.219801
0.218816
0.217865
0.216948
0.216061
0.215205
0.214376
0.213574
0.212798
0.212046
0.211318
0.210611
0.209926
0.209261
0.208616
0.207989
0.20738
0.206789
0.206214
0.205655
0.205111
0.204582
0.204067
0.203565
0.203077
0.202602
0.202139
0.201687
0.201247
0.200819
0.200401
0.199993
0.199595
0.199208
0.198829
0.19846
0.1981
0.197748
0.197405
0.197069
0.196742
0.196423
0.19611
0.195805
0.195508
0.195217
0.194932
0.194655
0.194383
0.194118
0.193859
0.193605
0.193358
0.193116
0.192879
0.192648
0.192422
0.192201
0.191984
0.191773
0.191566
0.191364
0.191166
0.190973
0.190784
0.190599
0.190419
0.190242
0.190069
0.1899
0.189734
0.189572
0.189414
0.189259
0.189108
0.18896
0.188815
0.188673
0.188535
0.188399
0.188266
0.188137
0.18801
0.187886
0.187764
0.187645
0.187529
0.187416
0.187304
0.187196
0.187089
0.186985
0.186883
0.186784
0.186686
0.186591
0.186498
0.186406
0.186317
0.18623
0.186144
0.186061
0.185979
0.185899
0.185821
0.185745
0.18567
0.185596
0.185525
0.185455
0.185386
0.185319
0.185253
0.185189
0.185126
0.185065
0.185005
0.184946
0.184889
0.184832
0.184777
0.184723
0.184671
0.184619
0.184569
0.184519
0.184471
0.184424
0.184377
0.184332
0.184288
0.184245
0.184202
0.184161
0.18412
0.18408
0.184042
0.184004
0.183966
0.18393
0.183894
0.183859
0.183825
0.183792
0.183759
0.183727
0.183696
0.183666
0.183636
0.183606
0.183578
0.18355
0.183522
0.183495
0.183469
0.183443
0.183418
0.183393
0.183369
0.183346
0.183323
0.1833
0.183278
0.183256
0.183235
0.183214
0.183194
0.183174
0.183155
0.183136
0.183117
0.183099
0.183081
0.183064
0.183047
0.18303
0.183014
0.182998
0.182982
0.182967
0.182952
0.182937
0.182923
0.182909
0.182895
0.182881
0.182868
0.182855
0.182843
0.18283
0.182818
0.182806
0.182795
0.182784
0.182773
0.182762
0.182751
0.182741
0.182731
0.182721
0.182711
0.182702
0.182693
0.182684
0.182675
0.182666
0.182658
0.18265
0.182642
0.182634
0.182626
0.182619
0.182612
0.182605
0.182598
0.182592
0.182585
0.182579
0.182573
0.182568
0.182562
0.182557
0.182551
0.182547
0.182542
0.182537
0.182533
0.182528
0.182524
0.18252
0.182517
0.182513
0.18251
0.182507
0.182504
0.182501
0.182498
0.182495
0.182493
0.182491
0.182489
0.182487
0.182485
0.182483
0.182482
0.18248
0.182479
0.182478
0.182477
0.182476
0.182475
0.182475
0.182474
0.182474
0.182473
0.182473
0.182473
0.182472
0.182472
0.182472
0.182472
0.182473
0.182473
0.182473
0.182473
0.182474
0.182474
0.182475
0.182475
0.182476
0.182476
0.182477
0.182477
0.182478
0.182479
0.18248
0.18248
0.182481
0.182482
0.182483
0.182483
0.182484
0.182485
0.182486
0.182487
0.182488
0.182489
0.182489
0.18249
0.182491
0.182492
0.182493
0.182494
0.182495
0.182496
0.182497
0.182497
0.182498
0.182499
0.1825
0.182501
0.182502
0.182503
0.182504
0.182505
0.182506
0.182507
0.182507
0.182508
0.182509
0.18251
0.182511
0.182512
0.182513
0.182514
0.182515
0.182516
0.182517
0.182518
0.182518
0.182519
0.18252
0.182521
0.182522
0.182523
0.182524
0.182525
0.182526
0.182527
0.182528
0.182529
0.182529
0.18253
0.182531
0.182532
0.182533
0.182534
0.182535
0.182536
0.182537
0.182538
0.182539
0.18254
0.182541
0.182542
0.182543
0.182544
0.182545
0.182546
0.182547
0.182548
0.182548
0.182548
0.182548
1
1.07971
0.997071
0.883651
0.788697
0.716914
0.663052
0.621838
0.589496
0.563484
0.542092
0.524152
0.508846
0.495591
0.483964
0.473654
0.464425
0.456096
0.448528
0.441611
0.435255
0.429389
0.423954
0.418899
0.414184
0.409772
0.405635
0.401744
0.398079
0.394618
0.391345
0.388243
0.385299
0.382501
0.379837
0.377298
0.374875
0.37256
0.370346
0.368226
0.366193
0.364243
0.362371
0.360571
0.358839
0.357173
0.355567
0.354019
0.352526
0.351084
0.349692
0.348346
0.347045
0.345786
0.344567
0.343387
0.342243
0.341134
0.340059
0.339015
0.338003
0.337019
0.336064
0.335136
0.334235
0.333358
0.332505
0.331675
0.330868
0.330082
0.329317
0.328572
0.327846
0.327139
0.32645
0.325779
0.325124
0.324486
0.323863
0.323256
0.322664
0.322086
0.321522
0.320972
0.320434
0.31991
0.319398
0.318898
0.31841
0.317933
0.317467
0.317013
0.316568
0.316134
0.31571
0.315295
0.31489
0.314494
0.314108
0.313729
0.31336
0.312998
0.312645
0.3123
0.311963
0.311633
0.31131
0.310994
0.310686
0.310384
0.310089
0.309801
0.309519
0.309243
0.308973
0.308709
0.308451
0.308199
0.307952
0.307711
0.307475
0.307244
0.307018
0.306797
0.306581
0.30637
0.306163
0.305961
0.305763
0.30557
0.305381
0.305196
0.305015
0.304838
0.304665
0.304495
0.304329
0.304167
0.304009
0.303854
0.303702
0.303554
0.303409
0.303267
0.303128
0.302992
0.302859
0.302729
0.302602
0.302477
0.302356
0.302237
0.30212
0.302006
0.301895
0.301786
0.301679
0.301575
0.301473
0.301373
0.301276
0.30118
0.301087
0.300995
0.300906
0.300818
0.300733
0.300649
0.300567
0.300487
0.300409
0.300332
0.300257
0.300183
0.300111
0.300041
0.299972
0.299905
0.299839
0.299775
0.299712
0.29965
0.29959
0.299531
0.299473
0.299416
0.299361
0.299307
0.299254
0.299202
0.299152
0.299102
0.299053
0.299006
0.298959
0.298914
0.298869
0.298826
0.298783
0.298742
0.298701
0.298661
0.298622
0.298583
0.298546
0.298509
0.298474
0.298439
0.298404
0.298371
0.298338
0.298306
0.298274
0.298243
0.298213
0.298184
0.298155
0.298127
0.298099
0.298072
0.298045
0.298019
0.297994
0.297969
0.297945
0.297921
0.297898
0.297875
0.297853
0.297831
0.297809
0.297788
0.297768
0.297748
0.297728
0.297709
0.29769
0.297672
0.297654
0.297637
0.29762
0.297603
0.297586
0.29757
0.297555
0.297539
0.297524
0.29751
0.297495
0.297482
0.297468
0.297455
0.297442
0.297429
0.297417
0.297405
0.297393
0.297382
0.297371
0.29736
0.29735
0.29734
0.29733
0.297321
0.297311
0.297303
0.297294
0.297286
0.297278
0.29727
0.297263
0.297256
0.297249
0.297243
0.297237
0.297231
0.297225
0.29722
0.297215
0.29721
0.297205
0.297201
0.297197
0.297193
0.297189
0.297186
0.297183
0.29718
0.297178
0.297175
0.297173
0.297171
0.297169
0.297167
0.297166
0.297165
0.297163
0.297162
0.297162
0.297161
0.29716
0.29716
0.29716
0.29716
0.29716
0.29716
0.29716
0.29716
0.297161
0.297161
0.297162
0.297162
0.297163
0.297164
0.297165
0.297165
0.297166
0.297167
0.297168
0.29717
0.297171
0.297172
0.297173
0.297174
0.297175
0.297177
0.297178
0.297179
0.297181
0.297182
0.297183
0.297185
0.297186
0.297187
0.297189
0.29719
0.297191
0.297193
0.297194
0.297196
0.297197
0.297198
0.2972
0.297201
0.297203
0.297204
0.297206
0.297207
0.297208
0.29721
0.297211
0.297213
0.297214
0.297216
0.297217
0.297218
0.29722
0.297221
0.297223
0.297224
0.297226
0.297227
0.297228
0.29723
0.297231
0.297233
0.297234
0.297236
0.297237
0.297238
0.29724
0.297241
0.297243
0.297244
0.297246
0.297247
0.297248
0.29725
0.297251
0.297253
0.297254
0.297256
0.297257
0.297259
0.29726
0.297262
0.297263
0.297265
0.297266
0.297268
0.297269
0.297271
0.297273
0.297274
0.297276
0.297277
0.297279
0.297279
0.297279
0.297279
1
1.11179
1.11438
1.05557
0.984377
0.919039
0.863806
0.818223
0.780652
0.749429
0.723171
0.700803
0.681506
0.664662
0.649803
0.636569
0.624684
0.613934
0.604146
0.595186
0.586942
0.579326
0.572261
0.565686
0.559548
0.553802
0.548409
0.543335
0.538553
0.534035
0.52976
0.525708
0.521861
0.518203
0.51472
0.511399
0.508229
0.5052
0.502302
0.499526
0.496865
0.494312
0.49186
0.489502
0.487235
0.485052
0.482948
0.48092
0.478964
0.477075
0.475251
0.473488
0.471783
0.470133
0.468537
0.46699
0.465491
0.464039
0.46263
0.461263
0.459937
0.458649
0.457398
0.456183
0.455001
0.453853
0.452736
0.45165
0.450593
0.449564
0.448563
0.447588
0.446638
0.445712
0.444811
0.443932
0.443075
0.44224
0.441426
0.440632
0.439857
0.439101
0.438364
0.437644
0.436942
0.436256
0.435587
0.434933
0.434295
0.433672
0.433064
0.43247
0.431889
0.431322
0.430768
0.430226
0.429697
0.429181
0.428675
0.428182
0.427699
0.427228
0.426767
0.426316
0.425876
0.425445
0.425024
0.424612
0.42421
0.423817
0.423432
0.423056
0.422688
0.422328
0.421977
0.421633
0.421296
0.420968
0.420646
0.420331
0.420024
0.419723
0.419429
0.419141
0.418859
0.418584
0.418315
0.418052
0.417794
0.417542
0.417296
0.417055
0.416819
0.416589
0.416363
0.416143
0.415927
0.415716
0.41551
0.415308
0.415111
0.414918
0.414729
0.414544
0.414364
0.414187
0.414014
0.413845
0.41368
0.413518
0.41336
0.413205
0.413054
0.412906
0.412761
0.412619
0.412481
0.412345
0.412213
0.412083
0.411956
0.411832
0.411711
0.411592
0.411476
0.411362
0.411251
0.411142
0.411036
0.410932
0.41083
0.41073
0.410633
0.410537
0.410444
0.410353
0.410263
0.410176
0.410091
0.410007
0.409925
0.409845
0.409767
0.40969
0.409615
0.409542
0.40947
0.4094
0.409331
0.409264
0.409198
0.409134
0.409071
0.409009
0.408949
0.40889
0.408832
0.408775
0.40872
0.408666
0.408613
0.408561
0.408511
0.408461
0.408413
0.408365
0.408319
0.408273
0.408229
0.408185
0.408142
0.408101
0.40806
0.40802
0.407981
0.407942
0.407905
0.407868
0.407832
0.407797
0.407763
0.407729
0.407696
0.407664
0.407633
0.407602
0.407571
0.407542
0.407513
0.407485
0.407457
0.40743
0.407403
0.407377
0.407352
0.407327
0.407303
0.407279
0.407256
0.407233
0.407211
0.407189
0.407168
0.407147
0.407126
0.407107
0.407087
0.407068
0.40705
0.407032
0.407014
0.406997
0.40698
0.406964
0.406948
0.406932
0.406917
0.406903
0.406889
0.406875
0.406861
0.406848
0.406836
0.406824
0.406812
0.4068
0.406789
0.406779
0.406769
0.406759
0.406749
0.40674
0.406732
0.406724
0.406716
0.406708
0.406701
0.406694
0.406688
0.406681
0.406676
0.40667
0.406665
0.40666
0.406656
0.406651
0.406648
0.406644
0.406641
0.406637
0.406635
0.406632
0.40663
0.406628
0.406626
0.406624
0.406623
0.406622
0.406621
0.40662
0.406619
0.406619
0.406619
0.406619
0.406619
0.406619
0.406619
0.40662
0.40662
0.406621
0.406622
0.406622
0.406623
0.406624
0.406626
0.406627
0.406628
0.406629
0.406631
0.406632
0.406633
0.406635
0.406637
0.406638
0.40664
0.406641
0.406643
0.406645
0.406646
0.406648
0.40665
0.406652
0.406653
0.406655
0.406657
0.406659
0.406661
0.406662
0.406664
0.406666
0.406668
0.40667
0.406672
0.406673
0.406675
0.406677
0.406679
0.406681
0.406683
0.406684
0.406686
0.406688
0.40669
0.406692
0.406694
0.406696
0.406697
0.406699
0.406701
0.406703
0.406705
0.406707
0.406708
0.40671
0.406712
0.406714
0.406716
0.406718
0.40672
0.406721
0.406723
0.406725
0.406727
0.406729
0.406731
0.406733
0.406734
0.406736
0.406738
0.40674
0.406742
0.406744
0.406746
0.406748
0.40675
0.406752
0.406754
0.406756
0.406757
0.40676
0.406762
0.406764
0.406766
0.406768
0.40677
0.406772
0.406774
0.406775
0.406775
0.406775
1
1.09593
1.14368
1.13403
1.09771
1.05335
1.00943
0.96923
0.933638
0.902514
0.875355
0.85158
0.830647
0.812089
0.79552
0.780624
0.767146
0.75488
0.743658
0.733341
0.723816
0.714989
0.70678
0.699122
0.691958
0.685239
0.678923
0.672972
0.667355
0.662042
0.657009
0.652233
0.647695
0.643376
0.639261
0.635334
0.631584
0.627997
0.624564
0.621274
0.618118
0.615089
0.612178
0.60938
0.606686
0.604093
0.601593
0.599182
0.596856
0.59461
0.59244
0.590342
0.588313
0.58635
0.584449
0.582608
0.580824
0.579094
0.577416
0.575789
0.574209
0.572675
0.571185
0.569737
0.568331
0.566963
0.565632
0.564338
0.563079
0.561854
0.560661
0.559499
0.558368
0.557266
0.556192
0.555145
0.554125
0.553131
0.552161
0.551216
0.550293
0.549393
0.548515
0.547659
0.546823
0.546007
0.54521
0.544433
0.543673
0.542932
0.542208
0.541501
0.54081
0.540136
0.539477
0.538833
0.538204
0.537589
0.536988
0.536402
0.535828
0.535267
0.534719
0.534184
0.53366
0.533149
0.532649
0.53216
0.531682
0.531214
0.530757
0.530311
0.529874
0.529447
0.529029
0.528621
0.528221
0.527831