# vtk DataFile Version 2.0
FlowField
ASCII
DATASET STRUCTURED_GRID
DIMENSIONS 400 1 50
POINTS 20000 float
0 0 0
0.08 0 0
0.16 0 0
0.24 0 0
0.32 0 0
0.4 0 0
0.48 0 0
0.56 0 0
0.64 0 0
0.72 0 0
0.8 0 0
0.88 0 0
0.96 0 0
1.04 0 0
1.12 0 0
1.2 0 0
1.28 0 0
1.36 0 0
1.44 0 0
1.52 0 0
1.6 0 0
1.68 0 0
1.76 0 0
1.84 0 0
1.92 0 0
2 0 0
2.08 0 0
2.16 0 0
2.24 0 0
2.32 0 0
2.4 0 0
2.48 0 0
2.56 0 0
2.64 0 0
2.72 0 0
2.8 0 0
2.88 0 0
2.96 0 0
3.04 0 0
3.12 0 0
3.2 0 0
3.28 0 0
3.36 0 0
3.44 0 0
3.52 0 0
3.6 0 0
3.68 0 0
3.76 0 0
3.84 0 0
3.92 0 0
4 0 0
4.08 0 0
4.16 0 0
4.24 0 0
4.32 0 0
4.4 0 0
4.48 0 0
4.56 0 0
4.64 0 0
4.72 0 0
4.8 0 0
4.88 0 0
4.96 0 0
5.04 0 0
5.12 0 0
5.2 0 0
5.28 0 0
5.36 0 0
5.44 0 0
5.52 0 0
5.6 0 0
5.68 0 0
5.76 0 0
5.84 0 0
5.92 0 0
6 0 0
6.08 0 0
6.16 0 0
6.24 0 0
6.32 0 0
6.4 0 0
6.48 0 0
6.56 0 0
6.64 0 0
6.72 0 0
6.8 0 0
6.88 0 0
6.96 0 0
7.04 0 0
7.12 0 0
7.2 0 0
7.28 0 0
7.36 0 0
7.44 0 0
7.52 0 0
7.6 0 0
7.68 0 0
7.76 0 0
7.84 0 0
7.92 0 0
8 0 0
8.08 0 0
8.16 0 0
8.24 0 0
8.32 0 0
8.4 0 0
8.48 0 0
8.56 0 0
8.64 0 0
8.72 0 0
8.8 0 0
8.88 0 0
8.96 0 0
9.04 0 0
9.12 0 0
9.2 0 0
9.28 0 0
9.36 0 0
9.44 0 0
9.52 0 0
9.6 0 0
9.68 0 0
9.76 0 0
9.84 0 0
9.92 0 0
10 0 0
10.08 0 0
10.16 0 0
10.24 0 0
10.32 0 0
10.4 0 0
10.48 0 0
10.56 0 0
10.64 0 0
10.72 0 0
10.8 0 0
10.88 0 0
10.96 0 0
11.04 0 0
11.12 0 0
11.2 0 0
11.28 0 0
11.36 0 0
11.44 0 0
11.52 0 0
11.6 0 0
11.68 0 0
11.76 0 0
11.84 0 0
11.92 0 0
12 0 0
12.08 0 0
12.16 0 0
12.24 0 0
12.32 0 0
12.4 0 0
12.48 0 0
12.56 0 0
12.64 0 0
12.72 0 0
12.8 0 0
12.88 0 0
12.96 0 0
13.04 0 0
13.12 0 0
13.2 0 0
13.28 0 0
13.36 0 0
13.44 0 0
13.52 0 0
13.6 0 0
13.68 0 0
13.76 0 0
13.84 0 0
13.92 0 0
14 0 0
14.08 0 0
14.16 0 0
14.24 0 0
14.32 0 0
14.4 0 0
14.48 0 0
14.56 0 0
14.64 0 0
14.72 0 0
14.8 0 0
14.88 0 0
14.96 0 0
15.04 0 0
15.12 0 0
15.2 0 0
15.28 0 0
15.36 0 0
15.44 0 0
15.52 0 0
15.6 0 0
15.68 0 0
15.76 0 0
15.84 0 0
15.92 0 0
16 0 0
16.08 0 0
16.16 0 0
16.24 0 0
16.32 0 0
16.4 0 0
16.48 0 0
16.56 0 0
16.64 0 0
16.72 0 0
16.8 0 0
16.88 0 0
16.96 0 0
17.04 0 0
17.12 0 0
17.2 0 0
17.28 0 0
17.36 0 0
17.44 0 0
17.52 0 0
17.6 0 0
17.68 0 0
17.76 0 0
17.84 0 0
17.92 0 0
18 0 0
18.08 0 0
18.16 0 0
18.24 0 0
18.32 0 0
18.4 0 0
18.48 0 0
18.56 0 0
18.64 0 0
18.72 0 0
18.8 0 0
18.88 0 0
18.96 0 0
19.04 0 0
19.12 0 0
19.2 0 0
19.28 0 0
19.36 0 0
19.44 0 0
19.52 0 0
19.6 0 0
19.68 0 0
19.76 0 0
19.84 0 0
19.92 0 0
20 0 0
20.08 0 0
20.16 0 0
20.24 0 0
20.32 0 0
20.4 0 0
20.48 0 0
20.56 0 0
20.64 0 0
20.72 0 0
20.8 0 0
20.88 0 0
20.96 0 0
21.04 0 0
21.12 0 0
21.2 0 0
21.28 0 0
21.36 0 0
21.44 0 0
21.52 0 0
21.6 0 0
21.68 0 0
21.76 0 0
21.84 0 0
21.92 0 0
22 0 0
22.08 0 0
22.16 0 0
22.24 0 0
22.32 0 0
22.4 0 0
22.48 0 0
22.56 0 0
22.64 0 0
22.72 0 0
22.8 0 0
22.88 0 0
22.96 0 0
23.04 0 0
23.12 0 0
23.2 0 0
23.28 0 0
23.36 0 0
23.44 0 0
23.52 0 0
23.6 0 0
23.68 0 0
23.76 0 0
23.84 0 0
23.92 0 0
24 0 0
24.08 0 0
24.16 0 0
24.24 0 0
24.32 0 0
24.4 0 0
24.48 0 0
24.56 0 0
24.64 0 0
24.72 0 0
24.8 0 0
24.88 0 0
24.96 0 0
25.04 0 0
25.12 0 0
25.2 0 0
25.28 0 0
25.36 0 0
25.44 0 0
25.52 0 0
25.6 0 0
25.68 0 0
25.76 0 0
25.84 0 0
25.92 0 0
26 0 0
26.08 0 0
26.16 0 0
26.24 0 0
26.32 0 0
26.4 0 0
26.48 0 0
26.56 0 0
26.64 0 0
26.72 0 0
26.8 0 0
26.88 0 0
26.96 0 0
27.04 0 0
27.12 0 0
27.2 0 0
27.28 0 0
27.36 0 0
27.44 0 0
27.52 0 0
27.6 0 0
27.68 0 0
27.76 0 0
27.84 0 0
27.92 0 0
28 0 0
28.08 0 0
28.16 0 0
28.24 0 0
28.32 0 0
28.4 0 0
28.48 0 0
28.56 0 0
28.64 0 0
28.72 0 0
28.8 0 0
28.88 0 0
28.96 0 0
29.04 0 0
29.12 0 0
29.2 0 0
29.28 0 0
29.36 0 0
29.44 0 0
29.52 0 0
29.6 0 0
29.68 0 0
29.76 0 0
29.84 0 0
29.92 0 0
30 0 0
30.08 0 0
30.16 0 0
30.24 0 0
30.32 0 0
30.4 0 0
30.48 0 0
30.56 0 0
30.64 0 0
30.72 0 0
30.8 0 0
30.88 0 0
30.96 0 0
31.04 0 0
31.12 0 0
31.2 0 0
31.28 0 0
31.36 0 0
31.44 0 0
31.52 0 0
31.6 0 0
31.68 0 0
31.76 0 0
31.84 0 0
31.92 0 0
0 0.02 0
0.08 0.02 0
0.16 0.02 0
0.24 0.02 0
0.32 0.02 0
0.4 0.02 0
0.48 0.02 0
0.56 0.02 0
0.64 0.02 0
0.72 0.02 0
0.8 0.02 0
0.88 0.02 0
0.96 0.02 0
1.04 0.02 0
1.12 0.02 0
1.2 0.02 0
1.28 0.02 0
1.36 0.02 0
1.44 0.02 0
1.52 0.02 0
1.6 0.02 0
1.68 0.02 0
1.76 0.02 0
1.84 0.02 0
1.92 0.02 0
2 0.02 0
2.08 0.02 0
2.16 0.02 0
2.24 0.02 0
2.32 0.02 0
2.4 0.02 0
2.48 0.02 0
2.56 0.02 0
2.64 0.02 0
2.72 0.02 0
2.8 0.02 0
2.88 0.02 0
2.96 0.02 0
3.04 0.02 0
3.12 0.02 0
3.2 0.02 0
3.28 0.02 0
3.36 0.02 0
3.44 0.02 0
3.52 0.02 0
3.6 0.02 0
3.68 0.02 0
3.76 0.02 0
3.84 0.02 0
3.92 0.02 0
4 0.02 0
4.08 0.02 0
4.16 0.02 0
4.24 0.02 0
4.32 0.02 0
4.4 0.02 0
4.48 0.02 0
4.56 0.02 0
4.64 0.02 0
4.72 0.02 0
4.8 0.02 0
4.88 0.02 0
4.96 0.02 0
5.04 0.02 0
5.12 0.02 0
5.2 0.02 0
5.28 0.02 0
5.36 0.02 0
5.44 0.02 0
5.52 0.02 0
5.6 0.02 0
5.68 0.02 0
5.76 0.02 0
5.84 0.02 0
5.92 0.02 0
6 0.02 0
6.08 0.02 0
6.16 0.02 0
6.24 0.02 0
6.32 0.02 0
6.4 0.02 0
6.48 0.02 0
6.56 0.02 0
6.64 0.02 0
6.72 0.02 0
6.8 0.02 0
6.88 0.02 0
6.96 0.02 0
7.04 0.02 0
7.12 0.02 0
7.2 0.02 0
7.28 0.02 0
7.36 0.02 0
7.44 0.02 0
7.52 0.02 0
7.6 0.02 0
7.68 0.02 0
7.76 0.02 0
7.84 0.02 0
7.92 0.02 0
8 0.02 0
8.08 0.02 0
8.16 0.02 0
8.24 0.02 0
8.32 0.02 0
8.4 0.02 0
8.48 0.02 0
8.56 0.02 0
8.64 0.02 0
8.72 0.02 0
8.8 0.02 0
8.88 0.02 0
8.96 0.02 0
9.04 0.02 0
9.12 0.02 0
9.2 0.02 0
9.28 0.02 0
9.36 0.02 0
9.44 0.02 0
9.52 0.02 0
9.6 0.02 0
9.68 0.02 0
9.76 0.02 0
9.84 0.02 0
9.92 0.02 0
10 0.02 0
10.08 0.02 0
10.16 0.02 0
10.24 0.02 0
10.32 0.02 0
10.4 0.02 0
10.48 0.02 0
10.56 0.02 0
10.64 0.02 0
10.72 0.02 0
10.8 0.02 0
10.88 0.02 0
10.96 0.02 0
11.04 0.02 0
11.12 0.02 0
11.2 0.02 0
11.28 0.02 0
11.36 0.02 0
11.44 0.02 0
11.52 0.02 0
11.6 0.02 0
11.68 0.02 0
11.76 0.02 0
11.84 0.02 0
11.92 0.02 0
12 0.02 0
12.08 0.02 0
12.16 0.02 0
12.24 0.02 0
12.32 0.02 0
12.4 0.02 0
12.48 0.02 0
12.56 0.02 0
12.64 0.02 0
12.72 0.02 0
12.8 0.02 0
12.88 0.02 0
12.96 0.02 0
13.04 0.02 0
13.12 0.02 0
13.2 0.02 0
13.28 0.02 0
13.36 0.02 0
13.44 0.02 0
13.52 0.02 0
13.6 0.02 0
13.68 0.02 0
13.76 0.02 0
13.84 0.02 0
13.92 0.02 0
14 0.02 0
14.08 0.02 0
14.16 0.02 0
14.24 0.02 0
14.32 0.02 0
14.4 0.02 0
14.48 0.02 0
14.56 0.02 0
14.64 0.02 0
14.72 0.02 0
14.8 0.02 0
14.88 0.02 0
14.96 0.02 0
15.04 0.02 0
15.12 0.02 0
15.2 0.02 0
15.28 0.02 0
15.36 0.02 0
15.44 0.02 0
15.52 0.02 0
15.6 0.02 0
15.68 0.02 0
15.76 0.02 0
15.84 0.02 0
15.92 0.02 0
16 0.02 0
16.08 0.02 0
16.16 0.02 0
16.24 0.02 0
16.32 0.02 0
16.4 0.02 0
16.48 0.02 0
16.56 0.02 0
16.64 0.02 0
16.72 0.02 0
16.8 0.02 0
16.88 0.02 0
16.96 0.02 0
17.04 0.02 0
17.12 0.02 0
17.2 0.02 0
17.28 0.02 0
17.36 0.02 0
17.44 0.02 0
17.52 0.02 0
17.6 0.02 0
17.68 0.02 0
17.76 0.02 0
17.84 0.02 0
17.92 0.02 0
18 0.02 0
18.08 0.02 0
18.16 0.02 0
18.24 0.02 0
18.32 0.02 0
18.4 0.02 0
18.48 0.02 0
18.56 0.02 0
18.64 0.02 0
18.72 0.02 0
18.8 0.02 0
18.88 0.02 0
18.96 0.02 0
19.04 0.02 0
19.12 0.02 0
19.2 0.02 0
19.28 0.02 0
19.36 0.02 0
19.44 0.02 0
19.52 0.02 0
19.6 0.02 0
19.68 0.02 0
19.76 0.02 0
19.84 0.02 0
19.92 0.02 0
20 0.02 0
20.08 0.02 0
20.16 0.02 0
20.24 0.02 0
20.32 0.02 0
20.4 0.02 0
20.48 0.02 0
20.56 0.02 0
20.64 0.02 0
20.72 0.02 0
20.8 0.02 0
20.88 0.02 0
20.96 0.02 0
21.04 0.02 0
21.12 0.02 0
21.2 0.02 0
21.28 0.02 0
21.36 0.02 0
21.44 0.02 0
21.52 0.02 0
21.6 0.02 0
21.68 0.02 0
21.76 0.02 0
21.84 0.02 0
21.92 0.02 0
22 0.02 0
22.08 0.02 0
22.16 0.02 0
22.24 0.02 0
22.32 0.02 0
22.4 0.02 0
22.48 0.02 0
22.56 0.02 0
22.64 0.02 0
22.72 0.02 0
22.8 0.02 0
22.88 0.02 0
22.96 0.02 0
23.04 0.02 0
23.12 0.02 0
23.2 0.02 0
23.28 0.02 0
23.36 0.02 0
23.44 0.02 0
23.52 0.02 0
23.6 0.02 0
23.68 0.02 0
23.76 0.02 0
23.84 0.02 0
23.92 0.02 0
24 0.02 0
24.08 0.02 0
24.16 0.02 0
24.24 0.02 0
24.32 0.02 0
24.4 0.02 0
24.48 0.02 0
24.56 0.02 0
24.64 0.02 0
24.72 0.02 0
24.8 0.02 0
24.88 0.02 0
24.96 0.02 0
25.04 0.02 0
25.12 0.02 0
25.2 0.02 0
25.28 0.02 0
25.36 0.02 0
25.44 0.02 0
25.52 0.02 0
25.6 0.02 0
25.68 0.02 0
25.76 0.02 0
25.84 0.02 0
25.92 0.02 0
26 0.02 0
26.08 0.02 0
26.16 0.02 0
26.24 0.02 0
26.32 0.02 0
26.4 0.02 0
26.48 0.02 0
26.56 0.02 0
26.64 0.02 0
26.72 0.02 0
26.8 0.02 0
26.88 0.02 0
26.96 0.02 0
27.04 0.02 0
27.12 0.02 0
27.2 0.02 0
27.28 0.02 0
27.36 0.02 0
27.44 0.02 0
27.52 0.02 0
27.6 0.02 0
27.68 0.02 0
27.76 0.02 0
27.84 0.02 0
27.92 0.02 0
28 0.02 0
28.08 0.02 0
28.16 0.02 0
28.24 0.02 0
28.32 0.02 0
28.4 0.02 0
28.48 0.02 0
28.56 0.02 0
28.64 0.02 0
28.72 0.02 0
28.8 0.02 0
28.88 0.02 0
28.96 0.02 0
29.04 0.02 0
29.12 0.02 0
29.2 0.02 0
29.28 0.02 0
29.36 0.02 0
29.44 0.02 0
29.52 0.02 0
29.6 0.02 0
29.68 0.02 0
29.76 0.02 0
29.84 0.02 0
29.92 0.02 0
30 0.02 0
30.08 0.02 0
30.16 0.02 0
30.24 0.02 0
30.32 0.02 0
30.4 0.02 0
30.48 0.02 0
30.56 0.02 0
30.64 0.02 0
30.72 0.02 0
30.8 0.02 0
30.88 0.02 0
30.96 0.02 0
31.04 0.02 0
31.12 0.02 0
31.2 0.02 0
31.28 0.02 0
31.36 0.02 0
31.44 0.02 0
31.52 0.02 0
31.6 0.02 0
31.68 0.02 0
31.76 0.02 0
31.84 0.02 0
31.92 0.02 0
0 0.04 0
0.08 0.04 0
0.16 0.04 0
0.24 0.04 0
0.32 0.04 0
0.4 0.04 0
0.48 0.04 0
0.56 0.04 0
0.64 0.04 0
0.72 0.04 0
0.8 0.04 0
0.88 0.04 0
0.96 0.04 0
1.04 0.04 0
1.12 0.04 0
1.2 0.04 0
1.28 0.04 0
1.36 0.04 0
1.44 0.04 0
1.52 0.04 0
1.6 0.04 0
1.68 0.04 0
1.76 0.04 0
1.84 0.04 0
1.92 0.04 0
2 0.04 0
2.08 0.04 0
2.16 0.04 0
2.24 0.04 0
2.32 0.04 0
2.4 0.04 0
2.48 0.04 0
2.56 0.04 0
2.64 0.04 0
2.72 0.04 0
2.8 0.04 0
2.88 0.04 0
2.96 0.04 0
3.04 0.04 0
3.12 0.04 0
3.2 0.04 0
3.28 0.04 0
3.36 0.04 0
3.44 0.04 0
3.52 0.04 0
3.6 0.04 0
3.68 0.04 0
3.76 0.04 0
3.84 0.04 0
3.92 0.04 0
4 0.04 0
4.08 0.04 0
4.16 0.04 0
4.24 0.04 0
4.32 0.04 0
4.4 0.04 0
4.48 0.04 0
4.56 0.04 0
4.64 0.04 0
4.72 0.04 0
4.8 0.04 0
4.88 0.04 0
4.96 0.04 0
5.04 0.04 0
5.12 0.04 0
5.2 0.04 0
5.28 0.04 0
5.36 0.04 0
5.44 0.04 0
5.52 0.04 0
5.6 0.04 0
5.68 0.04 0
5.76 0.04 0
5.84 0.04 0
5.92 0.04 0
6 0.04 0
6.08 0.04 0
6.16 0.04 0
6.24 0.04 0
6.32 0.04 0
6.4 0.04 0
6.48 0.04 0
6.56 0.04 0
6.64 0.04 0
6.72 0.04 0
6.8 0.04 0
6.88 0.04 0
6.96 0.04 0
7.04 0.04 0
7.12 0.04 0
7.2 0.04 0
7.28 0.04 0
7.36 0.04 0
7.44 0.04 0
7.52 0.04 0
7.6 0.04 0
7.68 0.04 0
7.76 0.04 0
7.84 0.04 0
[...]
POINT_DATA 20000

SCALARS p float 1
LOOKUP_TABLE default
1
206.664
206.432
206.365
206.339
206.323
206.311
206.3
206.289
206.279
206.27
206.261
206.252
206.243
206.235
206.226
206.218
206.21
206.202
206.195
206.187
206.18
206.173
206.166
206.159
206.152
206.145
206.138
206.132
206.125
206.119
206.113
206.107
206.1
206.094
206.088
206.083
206.077
206.071
206.065
206.06
206.054
206.048
206.043
206.038
206.032
206.027
206.021
206.016
206.011
206.006
206.001
205.996
205.991
205.985
205.98
205.976
205.971
205.966
205.961
205.956
205.951
205.946
205.942
205.937
205.932
205.928
205.923
205.918
205.914
205.909
205.905
205.9
205.896
205.891
205.887
205.882
205.878
205.874
205.869
205.865
205.861
205.856
205.852
205.848
205.843
205.839
205.835
205.831
205.826
205.822
205.818
205.814
205.81
205.806
205.802
205.797
205.793
205.789
205.785
205.781
205.777
205.773
205.769
205.765
205.761
205.757
205.753
205.749
205.745
205.741
205.737
205.733
205.73
205.726
205.722
205.718
205.714
205.71
205.706
205.702
205.699
205.695
205.691
205.687
205.683
205.68
205.676
205.672
205.668
205.664
205.661
205.657
205.653
205.649
205.646
205.642
205.638
205.634
205.631
205.627
205.623
205.619
205.616
205.612
205.608
205.605
205.601
205.597
205.594
205.59
205.586
205.583
205.579
205.575
205.572
205.568
205.564
205.561
205.557
205.553
205.55
205.546
205.543
205.539
205.535
205.532
205.528
205.525
205.521
205.517
205.514
205.51
205.507
205.503
205.499
205.496
205.492
205.489
205.485
205.481
205.478
205.474
205.471
205.467
205.464
205.46
205.456
205.453
205.449
205.446
205.442
205.439
205.435
205.432
205.428
205.424
205.421
205.417
205.414
205.41
205.407
205.403
205.4
205.396
205.393
205.389
205.386
205.382
205.379
205.375
205.371
205.368
205.364
205.361
205.357
205.354
205.35
205.347
205.343
205.34
205.336
205.333
205.329
205.326
205.322
205.319
205.315
205.312
205.308
205.305
205.301
205.298
205.294
205.291
205.287
205.284
205.28
205.277
205.273
205.27
205.266
205.263
205.259
205.256
205.252
205.249
205.245
205.242
205.238
205.235
205.231
205.228
205.224
205.221
205.217
205.214
205.21
205.207
205.203
205.2
205.196
205.193
205.189
205.186
205.182
205.179
205.175
205.172
205.168
205.165
205.161
205.158
205.154
205.151
205.148
205.144
205.141
205.137
205.134
205.13
205.127
205.123
205.12
205.116
205.113
205.109
205.106
205.102
205.099
205.095
205.092
205.088
205.085
205.081
205.078
205.074
205.071
205.067
205.064
205.061
205.057
205.054
205.05
205.047
205.043
205.04
205.036
205.033
205.029
205.026
205.022
205.019
205.015
205.012
205.008
205.005
205.001
204.998
204.994
204.991
204.988
204.984
204.981
204.977
204.974
204.97
204.967
204.963
204.96
204.956
204.953
204.949
204.946
204.942
204.939
204.935
204.932
204.928
204.925
204.921
204.918
204.915
204.911
204.908
204.904
204.901
204.897
204.894
204.89
204.887
204.883
204.88
204.876
204.873
204.869
204.866
204.862
204.859
204.855
204.852
204.848
204.845
204.842
204.838
204.835
204.831
204.828
204.824
204.821
204.817
204.814
204.81
204.807
204.803
204.8
204.796
204.793
204.789
204.786
204.782
204.779
204.775
204.772
204.769
204.765
204.762
204.758
204.755
204.751
204.748
204.744
204.741
204.737
204.734
204.73
204.727
204.723
204.72
0.5
206.664
206.664
206.432
206.365
206.339
206.323
206.311
206.3
206.289
206.279
206.27
206.261
206.252
206.243
206.235
206.226
206.218
206.21
206.202
206.195
206.187
206.18
206.173
206.166
206.159
206.152
206.145
206.138
206.132
206.125
206.119
206.113
206.107
206.1
206.094
206.088
206.083
206.077
206.071
206.065
206.06
206.054
206.048
206.043
206.038
206.032
206.027
206.021
206.016
206.011
206.006
206.001
205.996
205.991
205.985
205.98
205.976
205.971
205.966
205.961
205.956
205.951
205.946
205.942
205.937
205.932
205.928
205.923
205.918
205.914
205.909
205.905
205.9
205.896
205.891
205.887
205.882
205.878
205.874
205.869
205.865
205.861
205.856
205.852
205.848
205.843
205.839
205.835
205.831
205.826
205.822
205.818
205.814
205.81
205.806
205.802
205.797
205.793
205.789
205.785
205.781
205.777
205.773
205.769
205.765
205.761
205.757
205.753
205.749
205.745
205.741
205.737
205.733
205.73
205.726
205.722
205.718
205.714
205.71
205.706
205.702
205.699
205.695
205.691
205.687
205.683
205.68
205.676
205.672
205.668
205.664
205.661
205.657
205.653
205.649
205.646
205.642
205.638
205.634
205.631
205.627
205.623
205.619
205.616
205.612
205.608
205.605
205.601
205.597
205.594
205.59
205.586
205.583
205.579
205.575
205.572
205.568
205.564
205.561
205.557
205.553
205.55
205.546
205.543
205.539
205.535
205.532
205.528
205.525
205.521
205.517
205.514
205.51
205.507
205.503
205.499
205.496
205.492
205.489
205.485
205.481
205.478
205.474
205.471
205.467
205.464
205.46
205.456
205.453
205.449
205.446
205.442
205.439
205.435
205.432
205.428
205.424
205.421
205.417
205.414
205.41
205.407
205.403
205.4
205.396
205.393
205.389
205.386
205.382
205.379
205.375
205.371
205.368
205.364
205.361
205.357
205.354
205.35
205.347
205.343
205.34
205.336
205.333
205.329
205.326
205.322
205.319
205.315
205.312
205.308
205.305
205.301
205.298
205.294
205.291
205.287
205.284
205.28
205.277
205.273
205.27
205.266
205.263
205.259
205.256
205.252
205.249
205.245
205.242
205.238
205.235
205.231
205.228
205.224
205.221
205.217
205.214
205.21
205.207
205.203
205.2
205.196
205.193
205.189
205.186
205.182
205.179
205.175
205.172
205.168
205.165
205.161
205.158
205.154
205.151
205.148
205.144
205.141
205.137
205.134
205.13
205.127
205.123
205.12
205.116
205.113
205.109
205.106
205.102
205.099
205.095
205.092
205.088
205.085
205.081
205.078
205.074
205.071
205.067
205.064
205.061
205.057
205.054
205.05
205.047
205.043
205.04
205.036
205.033
205.029
205.026
205.022
205.019
205.015
205.012
205.008
205.005
205.001
204.998
204.994
204.991
204.988
204.984
204.981
204.977
204.974
204.97
204.967
204.963
204.96
204.956
204.953
204.949
204.946
204.942
204.939
204.935
204.932
204.928
204.925
204.921
204.918
204.915
204.911
204.908
204.904
204.901
204.897
204.894
204.89
204.887
204.883
204.88
204.876
204.873
204.869
204.866
204.862
204.859
204.855
204.852
204.848
204.845
204.842
204.838
204.835
204.831
204.828
204.824
204.821
204.817
204.814
204.81
204.807
204.803
204.8
204.796
204.793
204.789
204.786
204.782
204.779
204.775
204.772
204.769
204.765
204.762
204.758
204.755
204.751
204.748
204.744
204.741
204.737
204.734
204.73
204.727
204.723
204.72
204.72
206.614
206.614
206.438
206.37
206.342
206.325
206.312
206.3
206.29
206.28
206.27
206.261
206.252
206.243
206.235
206.226
206.218
206.21
206.203
206.195
206.187
206.18
206.173
206.166
206.159
206.152
206.145
206.138
206.132
206.125
206.119
206.113
206.107
206.101
206.094
206.089
206.083
206.077
206.071
206.065
206.06
206.054
206.048
206.043
206.038
206.032
206.027
206.021
206.016
206.011
206.006
206.001
205.996
205.991
205.986
205.981
205.976
205.971
205.966
205.961
205.956
205.951
205.946
205.942
205.937
205.932
205.928
205.923
205.918
205.914
205.909
205.905
205.9
205.896
205.891
205.887
205.882
205.878
205.874
205.869
205.865
205.861
205.856
205.852
205.848
205.843
205.839
205.835
205.831
205.826
205.822
205.818
205.814
205.81
205.806
205.802
205.797
205.793
205.789
205.785
205.781
205.777
205.773
205.769
205.765
205.761
205.757
205.753
205.749
205.745
205.741
205.737
205.734
205.73
205.726
205.722
205.718
205.714
205.71
205.706
205.702
205.699
205.695
205.691
205.687
205.683
205.68
205.676
205.672
205.668
205.664
205.661
205.657
205.653
205.649
205.646
205.642
205.638
205.634
205.631
205.627
205.623
205.619
205.616
205.612
205.608
205.605
205.601
205.597
205.594
205.59
205.586
205.583
205.579
205.575
205.572
205.568
205.564
205.561
205.557
205.553
205.55
205.546
205.543
205.539
205.535
205.532
205.528
205.525
205.521
205.517
205.514
205.51
205.507
205.503
205.499
205.496
205.492
205.489
205.485
205.481
205.478
205.474
205.471
205.467
205.464
205.46
205.456
205.453
205.449
205.446
205.442
205.439
205.435
205.432
205.428
205.424
205.421
205.417
205.414
205.41
205.407
205.403
205.4
205.396
205.393
205.389
205.386
205.382
205.379
205.375
205.371
205.368
205.364
205.361
205.357
205.354
205.35
205.347
205.343
205.34
205.336
205.333
205.329
205.326
205.322
205.319
205.315
205.312
205.308
205.305
205.301
205.298
205.294
205.291
205.287
205.284
205.28
205.277
205.273
205.27
205.266
205.263
205.259
205.256
205.252
205.249
205.245
205.242
205.238
205.235
205.231
205.228
205.224
205.221
205.217
205.214
205.21
205.207
205.203
205.2
205.196
205.193
205.189
205.186
205.182
205.179
205.175
205.172
205.168
205.165
205.161
205.158
205.154
205.151
205.148
205.144
205.141
205.137
205.134
205.13
205.127
205.123
205.12
205.116
205.113
205.109
205.106
205.102
205.099
205.095
205.092
205.088
205.085
205.081
205.078
205.074
205.071
205.067
205.064
205.061
205.057
205.054
205.05
205.047
205.043
205.04
205.036
205.033
205.029
205.026
205.022
205.019
205.015
205.012
205.008
205.005
205.001
204.998
204.994
204.991
204.988
204.984
204.981
204.977
204.974
204.97
204.967
204.963
204.96
204.956
204.953
204.949
204.946
204.942
204.939
204.935
204.932
204.928
204.925
204.921
204.918
204.915
204.911
204.908
204.904
204.901
204.897
204.894
204.89
204.887
204.883
204.88
204.876
204.873
204.869
204.866
204.862
204.859
204.855
204.852
204.848
204.845
204.842
204.838
204.835
204.831
204.828
204.824
204.821
204.817
204.814
204.81
204.807
204.803
204.8
204.796
204.793
204.789
204.786
204.782
204.779
204.775
204.772
204.769
204.765
204.762
204.758
204.755
204.751
204.748
204.744
204.741
204.737
204.734
204.73
204.727
204.723
204.72
204.72
206.573
206.573
206.44
206.375
206.345
206.327
206.313
206.301
206.291
206.28
206.271
206.261
206.252
206.244
206.235
206.227
206.218
206.21
206.203
206.195
206.187
206.18
206.173
206.166
206.159
206.152
206.145
206.139
206.132
206.126
206.119
206.113
206.107
206.101
206.095
206.089
206.083
206.077
206.071
206.065
206.06
206.054
206.049
206.043
206.038
206.032
206.027
206.022
206.016
206.011
206.006
206.001
205.996
205.991
205.986
205.981
205.976
205.971
205.966
205.961
205.956
205.951
205.946
205.942
205.937
205.932
205.928
205.923
205.918
205.914
205.909
205.905
205.9
205.896
205.891
205.887
205.882
205.878
205.874
205.869
205.865
205.861
205.856
205.852
205.848
205.843
205.839
205.835
205.831
205.826
205.822
205.818
205.814
205.81
205.806
205.802
205.797
205.793
205.789
205.785
205.781
205.777
205.773
205.769
205.765
205.761
205.757
205.753
205.749
205.745
205.741
205.737
205.734
205.73
205.726
205.722
205.718
205.714
205.71
205.706
205.702
205.699
205.695
205.691
205.687
205.683
205.68
205.676
205.672
205.668
205.664
205.661
205.657
205.653
205.649
205.646
205.642
205.638
205.634
205.631
205.627
205.623
205.619
205.616
205.612
205.608
205.605
205.601
205.597
205.594
205.59
205.586
205.583
205.579
205.575
205.572
205.568
205.564
205.561
205.557
205.553
205.55
205.546
205.543
205.539
205.535
205.532
205.528
205.525
205.521
205.517
205.514
205.51
205.507
205.503
205.499
205.496
205.492
205.489
205.485
205.481
205.478
205.474
205.471
205.467
205.464
205.46
205.456
205.453
205.449
205.446
205.442
205.439
205.435
205.432
205.428
205.424
205.421
205.417
205.414
205.41
205.407
205.403
205.4
205.396
205.393
205.389
205.386
205.382
205.379
205.375
205.371
205.368
205.364
205.361
205.357
205.354
205.35
205.347
205.343
205.34
205.336
205.333
205.329
205.326
205.322
205.319
205.315
205.312
205.308
205.305
205.301
205.298
205.294
205.291
205.287
205.284
205.28
205.277
205.273
205.27
205.266
205.263
205.259
205.256
205.252
205.249
205.245
205.242
205.238
205.235
205.231
205.228
205.224
205.221
205.217
205.214
205.21
205.207
205.203
205.2
205.196
205.193
205.189
205.186
205.182
205.179
205.175
205.172
205.168
205.165
205.161
205.158
205.154
205.151
205.148
205.144
205.141
205.137
205.134
205.13
205.127
205.123
205.12
205.116
205.113
205.109
205.106
205.102
205.099
205.095
205.092
205.088
205.085
205.081
205.078
205.074
205.071
205.067
205.064
205.061
205.057
205.054
205.05
205.047
205.043
205.04
205.036
205.033
205.029
205.026
205.022
205.019
205.015
205.012
205.008
205.005
205.001
204.998
204.994
204.991
204.988
204.984
204.981
204.977
204.974
204.97
204.967
204.963
204.96
204.956
204.953
204.949
204.946
204.942
204.939
204.935
204.932
204.928
204.925
204.921
204.918
204.915
204.911
204.908
204.904
204.901
204.897
204.894
204.89
204.887
204.883
204.88
204.876
204.873
204.869
204.866
204.862
204.859
204.855
204.852
204.848
204.845
204.842
204.838
204.835
204.831
204.828
204.824
204.821
204.817
204.814
204.81
204.807
204.803
204.8
204.796
204.793
204.789
204.786
204.782
204.779
204.775
204.772
204.769
204.765
204.762
204.758
204.755
204.751
204.748
204.744
204.741
204.737
204.734
204.73
204.727
204.723
204.72
204.72
206.542
206.542
206.441
206.379
206.348
206.329
206.315
206.302
206.291
206.281
206.271
206.262
206.253
206.244
206.235
206.227
206.219
206.211
206.203
206.195
206.188
206.18
206.173
206.166
206.159
206.152
206.145
206.139
206.132
206.126
206.119
206.113
206.107
206.101
206.095
206.089
206.083
206.077
206.071
206.065
206.06
206.054
206.049
206.043
206.038
206.032
206.027
206.022
206.016
206.011
206.006
206.001
205.996
205.991
205.986
205.981
205.976
205.971
205.966
205.961
205.956
205.951
205.947
205.942
205.937
205.932
205.928
205.923
205.918
205.914
205.909
205.905
205.9
205.896
205.891
205.887
205.882
205.878
205.874
205.869
205.865
205.861
205.856
205.852
205.848
205.843
205.839
205.835
205.831
205.826
205.822
205.818
205.814
205.81
205.806
205.802
205.798
205.793
205.789
205.785
205.781
205.777
205.773
205.769
205.765
205.761
205.757
205.753
205.749
205.745
205.741
205.737
205.734
205.73
205.726
205.722
205.718
205.714
205.71
205.706
205.702
205.699
205.695
205.691
205.687
205.683
205.68
205.676
205.672
205.668
205.664
205.661
205.657
205.653
205.649
205.646
205.642
205.638
205.634
205.631
205.627
205.623
205.619
205.616
205.612
205.608
205.605
205.601
205.597
205.594
205.59
205.586
205.583
205.579
205.575
205.572
205.568
205.564
205.561
205.557
205.553
205.55
205.546
205.543
205.539
205.535
205.532
205.528
205.525
205.521
205.517
205.514
205.51
205.507
205.503
205.499
205.496
205.492
205.489
205.485
205.481
205.478
205.474
205.471
205.467
205.464
205.46
205.456
205.453
205.449
205.446
205.442
205.439
205.435
205.432
205.428
205.424
205.421
205.417
205.414
205.41
205.407
205.403
205.4
205.396
205.393
205.389
205.386
205.382
205.379
205.375
205.371
205.368
205.364
205.361
205.357
205.354
205.35
205.347
205.343
205.34
205.336
205.333
205.329
205.326
205.322
205.319
205.315
205.312
205.308
205.305
205.301
205.298
205.294
205.291
205.287
205.284
205.28
205.277
205.273
205.27
205.266
205.263
205.259
205.256
205.252
205.249
205.245
205.242
205.238
205.235
205.231
205.228
205.224
205.221
205.217
205.214
205.21
205.207
205.203
205.2
205.196
205.193
205.189
205.186
205.182
205.179
205.175
205.172
205.168
205.165
205.161
205.158
205.154
205.151
205.148
205.144
205.141
205.137
205.134
205.13
205.127
205.123
205.12
205.116
205.113
205.109
205.106
205.102
205.099
205.095
205.092
205.088
205.085
205.081
205.078
205.074
205.071
205.067
205.064
205.061
205.057
205.054
205.05
205.047
205.043
205.04
205.036
205.033
205.029
205.026
205.022
205.019
205.015
205.012
205.008
205.005
205.001
204.998
204.994
204.991
204.988
204.984
204.981
204.977
204.974
204.97
204.967
204.963
204.96
204.956
204.953
204.949
204.946
204.942
204.939
204.935
204.932
204.928
204.925
204.921
204.918
204.915
204.911
204.908
204.904
204.901
204.897
204.894
204.89
204.887
204.883
204.88
204.876
204.873
204.869
204.866
204.862
204.859
204.855
204.852
204.848
204.845
204.842
204.838
204.835
204.831
204.828
204.824
204.821
204.817
204.814
204.81
204.807
204.803
204.8
204.796
204.793
204.789
204.786
204.782
204.779
204.775
204.772
204.769
204.765
204.762
204.758
204.755
204.751
204.748
204.744
204.741
204.737
204.734
204.73
204.727
204.723
204.72
204.72
206.516
206.516
206.439
206.383
206.352
206.331
206.316
206.304
206.292
206.282
206.272
206.262
206.253
206.244
206.235
206.227
206.219
206.211
206.203
206.195
206.188
206.18
206.173
206.166
206.159
206.152
206.145
206.139
206.132
206.126
206.119
206.113
206.107
206.101
206.095
206.089
206.083
206.077
206.071
206.065
206.06
206.054
206.049
206.043
206.038
206.032
206.027
206.022
206.016
206.011
206.006
206.001
205.996
205.991
205.986
205.981
205.976
205.971
205.966
205.961
205.956
205.951
205.947
205.942
205.937
205.932
205.928
205.923
205.918
205.914
205.909
205.905
205.9
205.896
205.891
205.887
205.882
205.878
205.874
205.869
205.865
205.861
205.856
205.852
205.848
205.843
205.839
205.835
205.831
205.827
205.822
205.818
205.814
205.81
205.806
205.802
205.798
205.793
205.789
205.785
205.781
205.777
205.773
205.769
205.765
205.761
205.757
205.753
205.749
205.745
205.741
205.737
205.734
205.73
205.726
205.722
205.718
205.714
205.71
205.706
205.702
205.699
205.695
205.691
205.687
205.683
205.68
205.676
205.672
205.668
205.664
205.661
205.657
205.653
205.649
205.646
205.642
205.638
205.634
205.631
205.627
205.623
205.619
205.616
205.612
205.608
205.605
205.601
205.597
205.594
205.59
205.586
205.583
205.579
205.575
205.572
205.568
205.564
205.561
205.557
205.553
205.55
205.546
205.543
205.539
205.535
205.532
205.528
205.525
205.521
205.517
205.514
205.51
205.507
205.503
205.499
205.496
205.492
205.489
205.485
205.481
205.478
205.474
205.471
205.467
205.464
205.46
205.456
205.453
205.449
205.446
205.442
205.439
205.435
205.432
205.428
205.425
205.421
205.417
205.414
205.41
205.407
205.403
205.4
205.396
205.393
205.389
205.386
205.382
205.379
205.375
205.371
205.368
205.364
205.361
205.357
205.354
205.35
205.347
205.343
205.34
205.336
205.333
205.329
205.326
205.322
205.319
205.315
205.312
205.308
205.305
205.301
205.298
205.294
205.291
205.287
205.284
205.28
205.277
205.273
205.27
205.266
205.263
205.259
205.256
205.252
205.249
205.245
205.242
205.238
205.235
205.231
205.228
205.224
205.221
205.217
205.214
205.21
205.207
205.203
205.2
205.196
205.193
205.189
205.186
205.182
205.179
205.175
205.172
205.168
205.165
205.161
205.158
205.154
205.151
205.148
205.144
205.141
205.137
205.134
205.13
205.127
205.123
205.12
205.116
205.113
205.109
205.106
205.102
205.099
205.095
205.092
205.088
205.085
205.081
205.078
205.074
205.071
205.067
205.064
205.061
205.057
205.054
205.05
205.047
205.043
205.04
205.036
205.033
205.029
205.026
205.022
205.019
205.015
205.012
205.008
205.005
205.001
204.998
204.994
204.991
204.988
204.984
204.981
204.977
204.974
204.97
204.967
204.963
204.96
204.956
204.953
204.949
204.946
204.942
204.939
204.935
204.932
204.928
204.925
204.921
204.918
204.915
204.911
204.908
204.904
204.901
204.897
204.894
204.89
204.887
204.883
204.88
204.876
204.873
204.869
204.866
204.862
204.859
204.855
204.852
204.848
204.845
204.842
204.838
204.835
204.831
204.828
204.824
204.821
204.817
204.814
204.81
204.807
204.803
204.8
204.796
204.793
204.789
204.786
204.782
204.779
204.775
204.772
204.769
204.765
204.762
204.758
204.755
204.751
204.748
204.744
204.741
204.737
204.734
204.73
204.727
204.723
204.72
204.72
206.495
206.495
206.435
206.386
206.355
206.334
206.318
206.305
206.293
206.283
206.272
206.263
206.253
206.244
206.236
206.227
206.219
206.211
206.203
206.195
206.188
206.18
206.173
206.166
206.159
206.152
206.145
206.139
206.132
206.126
206.119
206.113
206.107
206.101
206.095
206.089
206.083
206.077
206.071
206.065
206.06
206.054
206.049
206.043
206.038
206.032
206.027
206.022
206.016
206.011
206.006
206.001
205.996
205.991
205.986
205.981
205.976
205.971
205.966
205.961
205.956
205.951
205.947
205.942
205.937
205.932
205.928
205.923
205.918
205.914
205.909
205.905
205.9
205.896
205.891
205.887
205.882
205.878
205.874
205.869
205.865
205.861
205.856
205.852
205.848
205.843
205.839
205.835
205.831
205.827
205.822
205.818
205.814
205.81
205.806
205.802
205.798
205.793
205.789
205.785
205.781
205.777
205.773
205.769
205.765
205.761
205.757
205.753
205.749
205.745
205.741
205.737
205.734
205.73
205.726
205.722
205.718
205.714
205.71
205.706
205.702
205.699
205.695
205.691