# vtk DataFile Version 2.0
FlowField
ASCII
DATASET STRUCTURED_GRID
DIMENSIONS 400 1 50
POINTS 20000 float
0 0 0
0.08 0 0
0.16 0 0
0.24 0 0
0.32 0 0
0.4 0 0
0.48 0 0
0.56 0 0
0.64 0 0
0.72 0 0
0.8 0 0
0.88 0 0
0.96 0 0
1.04 0 0
1.12 0 0
1.2 0 0
1.28 0 0
1.36 0 0
1.44 0 0
1.52 0 0
1.6 0 0
1.68 0 0
1.76 0 0
1.84 0 0
1.92 0 0
2 0 0
2.08 0 0
2.16 0 0
2.24 0 0
2.32 0 0
2.4 0 0
2.48 0 0
2.56 0 0
2.64 0 0
2.72 0 0
2.8 0 0
2.88 0 0
2.96 0 0
3.04 0 0
3.12 0 0
3.2 0 0
3.28 0 0
3.36 0 0
3.44 0 0
3.52 0 0
3.6 0 0
3.68 0 0
3.76 0 0
3.84 0 0
3.92 0 0
4 0 0
4.08 0 0
4.16 0 0
4.24 0 0
4.32 0 0
4.4 0 0
4.48 0 0
4.56 0 0
4.64 0 0
4.72 0 0
4.8 0 0
4.88 0 0
4.96 0 0
5.04 0 0
5.12 0 0
5.2 0 0
5.28 0 0
5.36 0 0
5.44 0 0
5.52 0 0
5.6 0 0
5.68 0 0
5.76 0 0
5.84 0 0
5.92 0 0
6 0 0
6.08 0 0
6.16 0 0
6.24 0 0
6.32 0 0
6.4 0 0
6.48 0 0
6.56 0 0
6.64 0 0
6.72 0 0
6.8 0 0
6.88 0 0
6.96 0 0
7.04 0 0
7.12 0 0
7.2 0 0
7.28 0 0
7.36 0 0
7.44 0 0
7.52 0 0
7.6 0 0
7.68 0 0
7.76 0 0
7.84 0 0
7.92 0 0
8 0 0
8.08 0 0
8.16 0 0
8.24 0 0
8.32 0 0
8.4 0 0
8.48 0 0
8.56 0 0
8.64 0 0
8.72 0 0
8.8 0 0
8.88 0 0
8.96 0 0
9.04 0 0
9.12 0 0
9.2 0 0
9.28 0 0
9.36 0 0
9.44 0 0
9.52 0 0
9.6 0 0
9.68 0 0
9.76 0 0
9.84 0 0
9.92 0 0
10 0 0
10.08 0 0
10.16 0 0
10.24 0 0
10.32 0 0
10.4 0 0
10.48 0 0
10.56 0 0
10.64 0 0
10.72 0 0
10.8 0 0
10.88 0 0
10.96 0 0
11.04 0 0
11.12 0 0
11.2 0 0
11.28 0 0
11.36 0 0
11.44 0 0
11.52 0 0
11.6 0 0
11.68 0 0
11.76 0 0
11.84 0 0
11.92 0 0
12 0 0
12.08 0 0
12.16 0 0
12.24 0 0
12.32 0 0
12.4 0 0
12.48 0 0
12.56 0 0
12.64 0 0
12.72 0 0
12.8 0 0
12.88 0 0
12.96 0 0
13.04 0 0
13.12 0 0
13.2 0 0
13.28 0 0
13.36 0 0
13.44 0 0
13.52 0 0
13.6 0 0
13.68 0 0
13.76 0 0
13.84 0 0
13.92 0 0
14 0 0
14.08 0 0
14.16 0 0
14.24 0 0
14.32 0 0
14.4 0 0
14.48 0 0
14.56 0 0
14.64 0 0
14.72 0 0
14.8 0 0
14.88 0 0
14.96 0 0
15.04 0 0
15.12 0 0
15.2 0 0
15.28 0 0
15.36 0 0
15.44 0 0
15.52 0 0
15.6 0 0
15.68 0 0
15.76 0 0
15.84 0 0
15.92 0 0
16 0 0
16.08 0 0
16.16 0 0
16.24 0 0
16.32 0 0
16.4 0 0
16.48 0 0
16.56 0 0
16.64 0 0
16.72 0 0
16.8 0 0
16.88 0 0
16.96 0 0
17.04 0 0
17.12 0 0
17.2 0 0
17.28 0 0
17.36 0 0
17.44 0 0
17.52 0 0
17.6 0 0
17.68 0 0
17.76 0 0
17.84 0 0
17.92 0 0
18 0 0
18.08 0 0
18.16 0 0
18.24 0 0
18.32 0 0
18.4 0 0
18.48 0 0
18.56 0 0
18.64 0 0
18.72 0 0
18.8 0 0
18.88 0 0
18.96 0 0
19.04 0 0
19.12 0 0
19.2 0 0
19.28 0 0
19.36 0 0
19.44 0 0
19.52 0 0
19.6 0 0
19.68 0 0
19.76 0 0
19.84 0 0
19.92 0 0
20 0 0
20.08 0 0
20.16 0 0
20.24 0 0
20.32 0 0
20.4 0 0
20.48 0 0
20.56 0 0
20.64 0 0
20.72 0 0
20.8 0 0
20.88 0 0
20.96 0 0
21.04 0 0
21.12 0 0
21.2 0 0
21.28 0 0
21.36 0 0
21.44 0 0
21.52 0 0
21.6 0 0
21.68 0 0
21.76 0 0
21.84 0 0
21.92 0 0
22 0 0
22.08 0 0
22.16 0 0
22.24 0 0
22.32 0 0
22.4 0 0
22.48 0 0
22.56 0 0
22.64 0 0
22.72 0 0
22.8 0 0
22.88 0 0
22.96 0 0
23.04 0 0
23.12 0 0
23.2 0 0
23.28 0 0
23.36 0 0
23.44 0 0
23.52 0 0
23.6 0 0
23.68 0 0
23.76 0 0
23.84 0 0
23.92 0 0
24 0 0
24.08 0 0
24.16 0 0
24.24 0 0
24.32 0 0
24.4 0 0
24.48 0 0
24.56 0 0
24.64 0 0
24.72 0 0
24.8 0 0
24.88 0 0
24.96 0 0
25.04 0 0
25.12 0 0
25.2 0 0
25.28 0 0
25.36 0 0
25.44 0 0
25.52 0 0
25.6 0 0
25.68 0 0
25.76 0 0
25.84 0 0
25.92 0 0
26 0 0
26.08 0 0
26.16 0 0
26.24 0 0
26.32 0 0
26.4 0 0
26.48 0 0
26.56 0 0
26.64 0 0
26.72 0 0
26.8 0 0
26.88 0 0
26.96 0 0
27.04 0 0
27.12 0 0
27.2 0 0
27.28 0 0
27.36 0 0
27.44 0 0
27.52 0 0
27.6 0 0
27.68 0 0
27.76 0 0
27.84 0 0
27.92 0 0
28 0 0
28.08 0 0
28.16 0 0
28.24 0 0
28.32 0 0
28.4 0 0
28.48 0 0
28.56 0 0
28.64 0 0
28.72 0 0
28.8 0 0
28.88 0 0
28.96 0 0
29.04 0 0
29.12 0 0
29.2 0 0
29.28 0 0
29.36 0 0
29.44 0 0
29.52 0 0
29.6 0 0
29.68 0 0
29.76 0 0
29.84 0 0
29.92 0 0
30 0 0
30.08 0 0
30.16 0 0
30.24 0 0
30.32 0 0
30.4 0 0
30.48 0 0
30.56 0 0
30.64 0 0
30.72 0 0
30.8 0 0
30.88 0 0
30.96 0 0
31.04 0 0
31.12 0 0
31.2 0 0
31.28 0 0
31.36 0 0
31.44 0 0
31.52 0 0
31.6 0 0
31.68 0 0
31.76 0 0
31.84 0 0
31.92 0 0
0 0.02 0
0.08 0.02 0
0.16 0.02 0
0.24 0.02 0
0.32 0.02 0
0.4 0.02 0
0.48 0.02 0
0.56 0.02 0
0.64 0.02 0
0.72 0.02 0
0.8 0.02 0
0.88 0.02 0
0.96 0.02 0
1.04 0.02 0
1.12 0.02 0
1.2 0.02 0
1.28 0.02 0
1.36 0.02 0
1.44 0.02 0
1.52 0.02 0
1.6 0.02 0
1.68 0.02 0
1.76 0.02 0
1.84 0.02 0
1.92 0.02 0
2 0.02 0
2.08 0.02 0
2.16 0.02 0
2.24 0.02 0
2.32 0.02 0
2.4 0.02 0
2.48 0.02 0
2.56 0.02 0
2.64 0.02 0
2.72 0.02 0
2.8 0.02 0
2.88 0.02 0
2.96 0.02 0
3.04 0.02 0
3.12 0.02 0
3.2 0.02 0
3.28 0.02 0
3.36 0.02 0
3.44 0.02 0
3.52 0.02 0
3.6 0.02 0
3.68 0.02 0
3.76 0.02 0
3.84 0.02 0
3.92 0.02 0
4 0.02 0
4.08 0.02 0
4.16 0.02 0
4.24 0.02 0
4.32 0.02 0
4.4 0.02 0
4.48 0.02 0
4.56 0.02 0
4.64 0.02 0
4.72 0.02 0
4.8 0.02 0
4.88 0.02 0
4.96 0.02 0
5.04 0.02 0
5.12 0.02 0
5.2 0.02 0
5.28 0.02 0
5.36 0.02 0
5.44 0.02 0
5.52 0.02 0
5.6 0.02 0
5.68 0.02 0
5.76 0.02 0
5.84 0.02 0
5.92 0.02 0
6 0.02 0
6.08 0.02 0
6.16 0.02 0
6.24 0.02 0
6.32 0.02 0
6.4 0.02 0
6.48 0.02 0
6.56 0.02 0
6.64 0.02 0
6.72 0.02 0
6.8 0.02 0
6.88 0.02 0
6.96 0.02 0
7.04 0.02 0
7.12 0.02 0
7.2 0.02 0
7.28 0.02 0
7.36 0.02 0
7.44 0.02 0
7.52 0.02 0
7.6 0.02 0
7.68 0.02 0
7.76 0.02 0
7.84 0.02 0
7.92 0.02 0
8 0.02 0
8.08 0.02 0
8.16 0.02 0
8.24 0.02 0
8.32 0.02 0
8.4 0.02 0
8.48 0.02 0
8.56 0.02 0
8.64 0.02 0
8.72 0.02 0
8.8 0.02 0
8.88 0.02 0
8.96 0.02 0
9.04 0.02 0
9.12 0.02 0
9.2 0.02 0
9.28 0.02 0
9.36 0.02 0
9.44 0.02 0
9.52 0.02 0
9.6 0.02 0
9.68 0.02 0
9.76 0.02 0
9.84 0.02 0
9.92 0.02 0
10 0.02 0
10.08 0.02 0
10.16 0.02 0
10.24 0.02 0
10.32 0.02 0
10.4 0.02 0
10.48 0.02 0
10.56 0.02 0
10.64 0.02 0
10.72 0.02 0
10.8 0.02 0
10.88 0.02 0
10.96 0.02 0
11.04 0.02 0
11.12 0.02 0
11.2 0.02 0
11.28 0.02 0
11.36 0.02 0
11.44 0.02 0
11.52 0.02 0
11.6 0.02 0
11.68 0.02 0
11.76 0.02 0
11.84 0.02 0
11.92 0.02 0
12 0.02 0
12.08 0.02 0
12.16 0.02 0
12.24 0.02 0
12.32 0.02 0
12.4 0.02 0
12.48 0.02 0
12.56 0.02 0
12.64 0.02 0
12.72 0.02 0
12.8 0.02 0
12.88 0.02 0
12.96 0.02 0
13.04 0.02 0
13.12 0.02 0
13.2 0.02 0
13.28 0.02 0
13.36 0.02 0
13.44 0.02 0
13.52 0.02 0
13.6 0.02 0
13.68 0.02 0
13.76 0.02 0
13.84 0.02 0
13.92 0.02 0
14 0.02 0
14.08 0.02 0
14.16 0.02 0
14.24 0.02 0
14.32 0.02 0
14.4 0.02 0
14.48 0.02 0
14.56 0.02 0
14.64 0.02 0
14.72 0.02 0
14.8 0.02 0
14.88 0.02 0
14.96 0.02 0
15.04 0.02 0
15.12 0.02 0
15.2 0.02 0
15.28 0.02 0
15.36 0.02 0
15.44 0.02 0
15.52 0.02 0
15.6 0.02 0
15.68 0.02 0
15.76 0.02 0
15.84 0.02 0
15.92 0.02 0
16 0.02 0
16.08 0.02 0
16.16 0.02 0
16.24 0.02 0
16.32 0.02 0
16.4 0.02 0
16.48 0.02 0
16.56 0.02 0
16.64 0.02 0
16.72 0.02 0
16.8 0.02 0
16.88 0.02 0
16.96 0.02 0
17.04 0.02 0
17.12 0.02 0
17.2 0.02 0
17.28 0.02 0
17.36 0.02 0
17.44 0.02 0
17.52 0.02 0
17.6 0.02 0
17.68 0.02 0
17.76 0.02 0
17.84 0.02 0
17.92 0.02 0
18 0.02 0
18.08 0.02 0
18.16 0.02 0
18.24 0.02 0
18.32 0.02 0
18.4 0.02 0
18.48 0.02 0
18.56 0.02 0
18.64 0.02 0
18.72 0.02 0
18.8 0.02 0
18.88 0.02 0
18.96 0.02 0
19.04 0.02 0
19.12 0.02 0
19.2 0.02 0
19.28 0.02 0
19.36 0.02 0
19.44 0.02 0
19.52 0.02 0
19.6 0.02 0
19.68 0.02 0
19.76 0.02 0
19.84 0.02 0
19.92 0.02 0
20 0.02 0
20.08 0.02 0
20.16 0.02 0
20.24 0.02 0
20.32 0.02 0
20.4 0.02 0
20.48 0.02 0
20.56 0.02 0
20.64 0.02 0
20.72 0.02 0
20.8 0.02 0
20.88 0.02 0
20.96 0.02 0
21.04 0.02 0
21.12 0.02 0
21.2 0.02 0
21.28 0.02 0
21.36 0.02 0
21.44 0.02 0
21.52 0.02 0
21.6 0.02 0
21.68 0.02 0
21.76 0.02 0
21.84 0.02 0
21.92 0.02 0
22 0.02 0
22.08 0.02 0
22.16 0.02 0
22.24 0.02 0
22.32 0.02 0
22.4 0.02 0
22.48 0.02 0
22.56 0.02 0
22.64 0.02 0
22.72 0.02 0
22.8 0.02 0
22.88 0.02 0
22.96 0.02 0
23.04 0.02 0
23.12 0.02 0
23.2 0.02 0
23.28 0.02 0
23.36 0.02 0
23.44 0.02 0
23.52 0.02 0
23.6 0.02 0
23.68 0.02 0
23.76 0.02 0
23.84 0.02 0
23.92 0.02 0
24 0.02 0
24.08 0.02 0
24.16 0.02 0
24.24 0.02 0
24.32 0.02 0
24.4 0.02 0
24.48 0.02 0
24.56 0.02 0
24.64 0.02 0
24.72 0.02 0
24.8 0.02 0
24.88 0.02 0
24.96 0.02 0
25.04 0.02 0
25.12 0.02 0
25.2 0.02 0
25.28 0.02 0
25.36 0.02 0
25.44 0.02 0
25.52 0.02 0
25.6 0.02 0
25.68 0.02 0
25.76 0.02 0
25.84 0.02 0
25.92 0.02 0
26 0.02 0
26.08 0.02 0
26.16 0.02 0
26.24 0.02 0
26.32 0.02 0
26.4 0.02 0
26.48 0.02 0
26.56 0.02 0
26.64 0.02 0
26.72 0.02 0
26.8 0.02 0
26.88 0.02 0
26.96 0.02 0
27.04 0.02 0
27.12 0.02 0
27.2 0.02 0
27.28 0.02 0
27.36 0.02 0
27.44 0.02 0
27.52 0.02 0
27.6 0.02 0
27.68 0.02 0
27.76 0.02 0
27.84 0.02 0
27.92 0.02 0
28 0.02 0
28.08 0.02 0
28.16 0.02 0
28.24 0.02 0
28.32 0.02 0
28.4 0.02 0
28.48 0.02 0
28.56 0.02 0
28.64 0.02 0
28.72 0.02 0
28.8 0.02 0
28.88 0.02 0
28.96 0.02 0
29.04 0.02 0
29.12 0.02 0
29.2 0.02 0
29.28 0.02 0
29.36 0.02 0
29.44 0.02 0
29.52 0.02 0
29.6 0.02 0
29.68 0.02 0
29.76 0.02 0
29.84 0.02 0
29.92 0.02 0
30 0.02 0
30.08 0.02 0
30.16 0.02 0
30.24 0.02 0
30.32 0.02 0
30.4 0.02 0
30.48 0.02 0
30.56 0.02 0
30.64 0.02 0
30.72 0.02 0
30.8 0.02 0
30.88 0.02 0
30.96 0.02 0
31.04 0.02 0
31.12 0.02 0
31.2 0.02 0
31.28 0.02 0
31.36 0.02 0
31.44 0.02 0
31.52 0.02 0
31.6 0.02 0
31.68 0.02 0
31.76 0.02 0
31.84 0.02 0
31.92 0.02 0
0 0.04 0
0.08 0.04 0
0.16 0.04 0
0.24 0.04 0
0.32 0.04 0
0.4 0.04 0
0.48 0.04 0
0.56 0.04 0
0.64 0.04 0
0.72 0.04 0
0.8 0.04 0
0.88 0.04 0
0.96 0.04 0
1.04 0.04 0
1.12 0.04 0
1.2 0.04 0
1.28 0.04 0
1.36 0.04 0
1.44 0.04 0
1.52 0.04 0
1.6 0.04 0
1.68 0.04 0
1.76 0.04 0
1.84 0.04 0
1.92 0.04 0
2 0.04 0
2.08 0.04 0
2.16 0.04 0
2.24 0.04 0
2.32 0.04 0
2.4 0.04 0
2.48 0.04 0
2.56 0.04 0
2.64 0.04 0
2.72 0.04 0
2.8 0.04 0
2.88 0.04 0
2.96 0.04 0
3.04 0.04 0
3.12 0.04 0
3.2 0.04 0
3.28 0.04 0
3.36 0.04 0
3.44 0.04 0
3.52 0.04 0
3.6 0.04 0
3.68 0.04 0
3.76 0.04 0
3.84 0.04 0
3.92 0.04 0
4 0.04 0
4.08 0.04 0
4.16 0.04 0
4.24 0.04 0
4.32 0.04 0
4.4 0.04 0
4.48 0.04 0
4.56 0.04 0
4.64 0.04 0
4.72 0.04 0
4.8 0.04 0
4.88 0.04 0
4.96 0.04 0
5.04 0.04 0
5.12 0.04 0
5.2 0.04 0
5.28 0.04 0
5.36 0.04 0
5.44 0.04 0
5.52 0.04 0
5.6 0.04 0
5.68 0.04 0
5.76 0.04 0
5.84 0.04 0
5.92 0.04 0
6 0.04 0
6.08 0.04 0
6.16 0.04 0
6.24 0.04 0
6.32 0.04 0
6.4 0.04 0
6.48 0.04 0
6.56 0.04 0
6.64 0.04 0
6.72 0.04 0
6.8 0.04 0
6.88 0.04 0
6.96 0.04 0
7.04 0.04 0
7.12 0.04 0
7.2 0.04 0
7.28 0.04 0
7.36 0.04 0
7.44 0.04 0
7.52 0.04 0
7.6 0.04 0
7.68 0.04 0
7.76 0.04 0
7.84 0.04 0
[...]
POINT_DATA 20000

SCALARS v float 1
LOOKUP_TABLE default
0
0
0
0
0
0
0
0
0
0
0
0
0
0
0
0
0
0
0
0
0
0
0
0
0
0
0
0
0
0
0
0
0
0
0
0
0
0
0
0
0
0
0
0
0
0
0
0
0
0
0
0
0
0
0
0
0
0
0
0
0
0
0
0
0
0
0
0
0
0
0
0
0
0
0
0
0
0
0
0
0
0
0
0
0
0
0
0
0
0
0
0
0
0
0
0
0
0
0
0
0
0
0
0
0
0
0
0
0
0
0
0
0
0
0
0
0
0
0
0
0
0
0
0
0
0
0
0
0
0
0
0
0
0
0
0
0
0
0
0
0
0
0
0
0
0
0
0
0
0
0
0
0
0
0
0
0
0
0
0
0
0
0
0
0
0
0
0
0
0
0
0
0
0
0
0
0
0
0
0
0
0
0
0
0
0
0
0
0
0
0
0
0
0
0
0
0
0
0
0
0
0
0
0
0
0
0
0
0
0
0
0
0
0
0
0
0
0
0
0
0
0
0
0
0
0
0
0
0
0
0
0
0
0
0
0
0
0
0
0
0
0
0
0
0
0
0
0
0
0
0
0
0
0
0
0
0
0
0
0
0
0
0
0
0
0
0
0
0
0
0
0
0
0
0
0
0
0
0
0
0
0
0
0
0
0
0
0
0
0
0
0
0
0
0
0
0
0
0
0
0
0
0
0
0
0
0
0
0
0
0
0
0
0
0
0
0
0
0
0
0
0
0
0
0
0
0
0
0
0
0
0
0
0
0
0
0
0
0
0
0
0
0
0
0
0
0
0
0
0
0
0
0
0
0
0
0
0
0
0
0
0
0
0
0
0
0
0
0
0
0
0
0
0
0
0
0
0
0
0
0
0
0
0
0
0
0
0
0
0
0
0
0
0
0
0
0
0
0
0
-0.123227
0.123227
0.0537921
0.0194392
0.00878337
0.00508994
0.00338797
0.00243752
0.00184769
0.00145647
0.00118421
0.000987417
0.000840555
0.000727863
0.000639227
0.000567962
0.000509539
0.000460823
0.000419597
0.000384264
0.00035365
0.000326877
0.000303275
0.000282323
0.000263612
0.000246814
0.000231662
0.000217938
0.000205459
0.000194073
0.000183652
0.000174085
0.000165279
0.000157152
0.000149633
0.000142662
0.000136185
0.000130155
0.000124529
0.000119272
0.00011435
0.000109736
0.000105401
0.000101325
9.74848e-05
9.38628e-05
9.04418e-05
8.72066e-05
8.41433e-05
8.12394e-05
7.84834e-05
7.5865e-05
7.33747e-05
7.10038e-05
6.87443e-05
6.6589e-05
6.45311e-05
6.25645e-05
6.06836e-05
5.8883e-05
5.71579e-05
5.55039e-05
5.39168e-05
5.23928e-05
5.09283e-05
4.952e-05
4.81649e-05
4.686e-05
4.56028e-05
4.43907e-05
4.32214e-05
4.20928e-05
4.10028e-05
3.99495e-05
3.89312e-05
3.79462e-05
3.69929e-05
3.60699e-05
3.51757e-05
3.43092e-05
3.34691e-05
3.26542e-05
3.18635e-05
3.10959e-05
3.03505e-05
2.96263e-05
2.89226e-05
2.82385e-05
2.75733e-05
2.69263e-05
2.62968e-05
2.56841e-05
2.50876e-05
2.45067e-05
2.39409e-05
2.33896e-05
2.28524e-05
2.23288e-05
2.18183e-05
2.13205e-05
2.0835e-05
2.03613e-05
1.98992e-05
1.94482e-05
1.9008e-05
1.85782e-05
1.81587e-05
1.77491e-05
1.73491e-05
1.69584e-05
1.65769e-05
1.62041e-05
1.58399e-05
1.54841e-05
1.51363e-05
1.47965e-05
1.44644e-05
1.41398e-05
1.38225e-05
1.35124e-05
1.32092e-05
1.29128e-05
1.26229e-05
1.23395e-05
1.20623e-05
1.17913e-05
1.15263e-05
1.12672e-05
1.10138e-05
1.07661e-05
1.05239e-05
1.0287e-05
1.00553e-05
9.82865e-06
9.60699e-06
9.39022e-06
9.17824e-06
8.97096e-06
8.76827e-06
8.57007e-06
8.37621e-06
8.18658e-06
8.00106e-06
7.81958e-06
7.64207e-06
7.4685e-06
7.29881e-06
7.13291e-06
6.97071e-06
6.81208e-06
6.65693e-06
6.50516e-06
6.35672e-06
6.21151e-06
6.06946e-06
5.93052e-06
5.79466e-06
5.66185e-06
5.53203e-06
5.40509e-06
5.2809e-06
5.1593e-06
5.04023e-06
4.9237e-06
4.80975e-06
4.69838e-06
4.58955e-06
4.48312e-06
4.37896e-06
4.277e-06
4.17722e-06
4.0796e-06
3.98411e-06
3.89063e-06
3.79908e-06
3.70943e-06
3.62174e-06
3.53607e-06
3.45242e-06
3.37065e-06
3.29053e-06
3.21188e-06
3.13468e-06
3.05907e-06
2.98522e-06
2.91322e-06
2.84297e-06
2.77425e-06
2.70687e-06
2.64075e-06
2.57598e-06
2.51266e-06
2.45081e-06
2.39033e-06
2.33108e-06
2.27299e-06
2.21614e-06
2.16067e-06
2.10665e-06
2.05396e-06
2.00234e-06
1.95153e-06
1.90147e-06
1.85232e-06
1.80439e-06
1.75789e-06
1.71277e-06
1.66877e-06
1.62555e-06
1.58288e-06
1.54083e-06
1.49958e-06
1.45934e-06
1.42015e-06
1.38189e-06
1.34436e-06
1.30749e-06
1.27131e-06
1.23592e-06
1.20133e-06
1.16736e-06
1.1338e-06
1.10047e-06
1.06746e-06
1.03504e-06
1.0035e-06
9.72921e-07
9.43088e-07
9.13567e-07
8.83965e-07
8.54168e-07
8.24397e-07
7.95054e-07
7.66449e-07
7.38608e-07
7.11265e-07
6.84053e-07
6.56736e-07
6.29328e-07
6.02024e-07
5.7501e-07
5.48302e-07
5.21738e-07
4.95126e-07
4.68432e-07
4.41847e-07
4.15671e-07
3.90077e-07
3.64929e-07
3.39796e-07
3.14193e-07
2.87903e-07
2.61176e-07
2.34655e-07
2.09044e-07
1.847e-07
1.61397e-07
1.38421e-07
1.14955e-07
9.05474e-08
6.53955e-08
4.02797e-08
1.61694e-08
-6.28033e-09
-2.70682e-08
-4.68392e-08
-6.65354e-08
-8.68974e-08
-1.08081e-07
-1.29589e-07
-1.50535e-07
-1.70096e-07
-1.87918e-07
-2.04257e-07
-2.19819e-07
-2.35384e-07
-2.51425e-07
-2.67895e-07
-2.84291e-07
-2.99918e-07
-3.14236e-07
-3.27091e-07
-3.38748e-07
-3.49733e-07
-3.60562e-07
-3.71511e-07
-3.82517e-07
-3.9325e-07
-4.03295e-07
-4.12349e-07
-4.20345e-07
-4.27463e-07
-4.34023e-07
-4.40336e-07
-4.46579e-07
-4.52748e-07
-4.58689e-07
-4.64193e-07
-4.69104e-07
-4.73379e-07
-4.77098e-07
-4.80422e-07
-4.8352e-07
-4.86504e-07
-4.89403e-07
-4.9217e-07
-4.94716e-07
-4.96966e-07
-4.98885e-07
-5.005e-07
-5.01876e-07
-5.03099e-07
-5.04239e-07
-5.05334e-07
-5.06381e-07
-5.07359e-07
-5.08227e-07
-5.08968e-07
-5.09573e-07
-5.10066e-07
-5.10476e-07
-5.10845e-07
-5.11194e-07
-5.11548e-07
-5.11897e-07
-5.12241e-07
-5.12554e-07
-5.1284e-07
-5.1308e-07
-5.13295e-07
-5.13474e-07
-5.13655e-07
-5.13819e-07
-5.14005e-07
-5.14179e-07
-5.14379e-07
-5.14554e-07
-5.14754e-07
-5.14914e-07
-5.15103e-07
-5.15242e-07
-5.15426e-07
-5.15553e-07
-5.15744e-07
-5.15864e-07
-5.16071e-07
-5.16185e-07
-5.16407e-07
-5.16507e-07
-5.16745e-07
-5.16823e-07
-5.17081e-07
-5.17131e-07
-5.17417e-07
-5.17435e-07
-5.1776e-07
-5.17738e-07
-5.18116e-07
-5.18043e-07
-5.18487e-07
-5.18347e-07
-5.18878e-07
-5.1865e-07
-5.19295e-07
-5.18955e-07
-5.19749e-07
-5.19265e-07
-5.20252e-07
-5.19583e-07
-5.20822e-07
-5.19915e-07
-5.21481e-07
-5.20267e-07
-5.22257e-07
-5.20652e-07
-5.23186e-07
-5.21083e-07
-5.24315e-07
-5.21585e-07
-5.25702e-07
-5.2219e-07
-5.27414e-07
-5.22949e-07
-5.29516e-07
-5.23936e-07
-5.32042e-07
-5.25264e-07
-5.34908e-07
-5.27093e-07
-5.37666e-07
-5.29642e-07
-5.38819e-07
-5.33143e-07
-5.33595e-07
-5.37628e-07
-5.04498e-07
-5.41368e-07
-3.30509e-07
-4.51299e-07
-4.51299e-07
-0.142153
0.142153
0.101005
0.0539131
0.0302566
0.0189185
0.0129278
0.00941322
0.00718029
0.00567738
0.0046209
0.0038519
0.00327541
0.00283191
0.00248273
0.00220207
0.00197225
0.00178096
0.00161942
0.00148128
0.00136185
0.00125762
0.00116592
0.00108465
0.00101219
0.00094722
0.000888687
0.000835723
0.000787608
0.000743742
0.000703619
0.000666808
0.00063294
0.000601699
0.00057281
0.000546034
0.000521163
0.000498015
0.000476427
0.000456259
0.000437382
0.000419686
0.00040307
0.000387444
0.000372728
0.000358849
0.000345744
0.000333352
0.000321621
0.000310501
0.00029995
0.000289927
0.000280396
0.000271323
0.000262677
0.000254431
0.000246559
0.000239038
0.000231844
0.000224959
0.000218364
0.000212041
0.000205975
0.00020015
0.000194554
0.000189173
0.000183996
0.000179012
0.00017421
0.000169581
0.000165117
0.000160808
0.000156647
0.000152627
0.000148741
0.000144982
0.000141345
0.000137824
0.000134414
0.000131109
0.000127906
0.000124799
0.000121785
0.000118859
0.000116018
0.000113259
0.000110578
0.000107972
0.000105438
0.000102974
0.000100577
9.82441e-05
9.59733e-05
9.37623e-05
9.1609e-05
8.95113e-05
8.74673e-05
8.54753e-05
8.35335e-05
8.16403e-05
7.9794e-05
7.79931e-05
7.62361e-05
7.45217e-05
7.28486e-05
7.12156e-05
6.96216e-05
6.80653e-05
6.65459e-05
6.50621e-05
6.3613e-05
6.21975e-05
6.08147e-05
5.94638e-05
5.81438e-05
5.68539e-05
5.55935e-05
5.43618e-05
5.3158e-05
5.19814e-05
5.08312e-05
4.97068e-05
4.86075e-05
4.75327e-05
4.64818e-05
4.54544e-05
4.445e-05
4.3468e-05
4.2508e-05
4.15693e-05
4.06514e-05
3.97538e-05
3.8876e-05
3.80176e-05
3.71782e-05
3.63574e-05
3.55548e-05
3.47701e-05
3.40028e-05
3.32525e-05
3.25187e-05
3.18011e-05
3.10991e-05
3.04126e-05
2.97412e-05
2.90849e-05
2.84432e-05
2.78159e-05
2.72026e-05
2.66028e-05
2.60163e-05
2.54426e-05
2.48816e-05
2.43328e-05
2.37962e-05
2.32714e-05
2.27582e-05
2.22566e-05
2.17663e-05
2.12868e-05
2.08176e-05
2.03584e-05
1.9909e-05
1.94693e-05
1.90394e-05
1.86193e-05
1.82086e-05
1.78069e-05
1.74138e-05
1.70291e-05
1.66527e-05
1.62845e-05
1.59242e-05
1.55716e-05
1.52264e-05
1.48886e-05
1.45582e-05
1.42354e-05
1.39199e-05
1.36114e-05
1.3309e-05
1.30125e-05
1.27218e-05
1.24373e-05
1.21595e-05
1.18884e-05
1.16236e-05
1.13645e-05
1.11105e-05
1.08615e-05
1.06178e-05
1.03795e-05
1.01467e-05
9.91902e-06
9.69602e-06
9.4776e-06
9.264e-06
9.05554e-06
8.85225e-06
8.65367e-06
8.459e-06
8.26766e-06
8.07961e-06
7.89544e-06
7.7159e-06
7.54139e-06
7.37156e-06
7.20553e-06
7.04236e-06
6.88164e-06
6.72359e-06
6.56879e-06
6.4177e-06
6.27026e-06
6.12603e-06
5.98451e-06
5.84549e-06
5.70911e-06
5.57551e-06
5.44458e-06
5.31579e-06
5.1885e-06
5.06245e-06
4.93796e-06
4.81581e-06
4.69662e-06
4.58038e-06
4.46623e-06
4.35294e-06
4.23958e-06
4.1261e-06
4.01327e-06
3.90219e-06
3.79352e-06
3.68706e-06
3.58194e-06
3.47716e-06
3.3722e-06
3.26724e-06
3.16284e-06
3.05944e-06
2.95695e-06
2.85489e-06
2.75283e-06
2.65084e-06
2.54951e-06
2.44959e-06
2.35131e-06
2.25407e-06
2.1566e-06
2.05779e-06
1.95744e-06
1.85664e-06
1.7573e-06
1.66117e-06
1.56877e-06
1.47903e-06
1.38982e-06
1.29913e-06
1.20626e-06
1.11235e-06
1.01988e-06
9.31384e-07
8.48198e-07
7.6973e-07
6.93824e-07
6.17915e-07
5.40389e-07
4.61414e-07
3.82831e-07
3.07194e-07
2.36483e-07
1.71169e-07
1.10067e-07
5.10207e-08
-7.98058e-09
-6.78317e-08
-1.27952e-07
-1.86662e-07
-2.42054e-07
-2.92898e-07
-3.3915e-07
-3.81862e-07
-4.22594e-07
-4.62655e-07
-5.02544e-07
-5.41823e-07
-5.79436e-07
-6.14264e-07
-6.45653e-07
-6.73666e-07
-6.98995e-07
-7.22606e-07
-7.45314e-07
-7.67485e-07
-7.8897e-07
-8.09271e-07
-8.27833e-07
-8.4431e-07
-8.58718e-07
-8.71394e-07
-8.82844e-07
-8.93532e-07
-9.03728e-07
-9.13449e-07
-9.22526e-07
-9.30717e-07
-9.3785e-07
-9.43892e-07
-9.48977e-07
-9.53333e-07
-9.57213e-07
-9.608e-07
-9.64181e-07
-9.67328e-07
-9.70171e-07
-9.72614e-07
-9.74624e-07
-9.76208e-07
-9.77461e-07
-9.78473e-07
-9.79374e-07
-9.80213e-07
-9.81051e-07
-9.81848e-07
-9.82608e-07
-9.83253e-07
-9.83807e-07
-9.84214e-07
-9.84557e-07
-9.848e-07
-9.85058e-07
-9.85268e-07
-9.85551e-07
-9.85787e-07
-9.86106e-07
-9.86338e-07
-9.86648e-07
-9.86828e-07
-9.87107e-07
-9.87229e-07
-9.875e-07
-9.87589e-07
-9.87891e-07
-9.87965e-07
-9.88317e-07
-9.88369e-07
-9.88773e-07
-9.88779e-07
-9.89234e-07
-9.89172e-07
-9.89695e-07
-9.89549e-07
-9.90166e-07
-9.89921e-07
-9.90669e-07
-9.903e-07
-9.91219e-07
-9.90686e-07
-9.91826e-07
-9.91081e-07
-9.92506e-07
-9.91485e-07
-9.93282e-07
-9.91905e-07
-9.94189e-07
-9.92355e-07
-9.95274e-07
-9.92851e-07
-9.96594e-07
-9.93414e-07
-9.98226e-07
-9.94073e-07
-1.00027e-06
-9.9487e-07
-1.00285e-06
-9.95866e-07
-1.00612e-06
-9.97146e-07
-1.01031e-06
-9.98836e-07
-1.01564e-06
-1.00112e-06
-1.02235e-06
-1.00425e-06
-1.03061e-06
-1.00861e-06
-1.04021e-06
-1.0147e-06
-1.04981e-06
-1.0231e-06
-1.05475e-06
-1.03411e-06
-1.04016e-06
-1.04624e-06
-9.5236e-07
-1.04721e-06
-4.65072e-07
-7.68827e-07
-7.68827e-07
-0.122226
0.122226
0.121663
0.082268
0.053995
0.0368642
0.0263934
0.0197165
0.0152658
0.0121803
0.00996865
0.00833689
0.00710193
0.00614554
0.0053892
0.00477953
0.00427953
0.00386303
0.00351127
0.00321054
0.00295069
0.00272404
0.00252474
0.00234823
0.00219092
0.00204996
0.00192301
0.00180817
0.00170388
0.00160883
0.0015219
0.00144216
0.00136881
0.00130115
0.00123859
0.00118061
0.00112677
0.00107665
0.00102991
0.00098625
0.000945387
0.000907079
0.000871111
0.000837287
0.000805434
0.000775395
0.000747029
0.000720209
0.000694819
0.000670754
0.000647919
0.000626229
0.000605603
0.000585969
0.000567261
0.000549418
0.000532385
0.000516111
0.000500547
0.000485652
0.000471383
0.000457705
0.000444583
0.000431984
0.00041988
0.000408243
0.000397046
0.000386268
0.000375884
0.000365876
0.000356223
0.000346907
0.000337912
0.000329222
0.000320822
0.000312698
0.000304838
0.000297229
0.00028986
0.00028272
0.000275798
0.000269087
0.000262575
0.000256256
0.00025012
0.000244162
0.000238372
0.000232746
0.000227276
0.000221957
0.000216783
0.000211748
0.000206847
0.000202076
0.00019743
0.000192904
0.000188495
0.000184198
0.000180009
0.000175926
0.000171945
0.000168061
0.000164273
0.000160577
0.000156971
0.000153451
0.000150016
0.000146662
0.000143388
0.000140191
0.000137069
0.000134019
0.000131041
0.000128131
0.000125288
0.000122511
0.000119797
0.000117144
0.000114553
0.00011202
0.000109544
0.000107124
0.000104758
0.000102445
0.000100183
9.7973e-05
9.5812e-05
9.36996e-05
9.16344e-05
8.96153e-05
8.76411e-05
8.57108e-05
8.38232e-05
8.19774e-05
8.01727e-05
7.84081e-05
7.66828e-05
7.4996e-05
7.33467e-05
7.17341e-05
7.01572e-05
6.8615e-05
6.71068e-05
6.56319e-05
6.41899e-05
6.27801e-05
6.1402e-05
6.00548e-05
5.87376e-05
5.74496e-05
5.61901e-05
5.49584e-05
5.37539e-05
5.25761e-05
5.14242e-05
5.0298e-05
4.91969e-05
4.81205e-05
4.70682e-05
4.60391e-05
4.50324e-05
4.40473e-05
4.30834e-05
4.21406e-05
4.12188e-05
4.03179e-05
3.94371e-05
3.85757e-05
3.77328e-05
3.69079e-05
3.61009e-05
3.53115e-05
3.45393e-05
3.37835e-05
3.30438e-05
3.23199e-05
3.16121e-05
3.09203e-05
3.02442e-05
2.95826e-05
2.89345e-05
2.82992e-05
2.76767e-05
2.70678e-05
2.64732e-05
2.58926e-05
2.53253e-05
2.477e-05
2.42259e-05
2.36927e-05
2.3171e-05
2.26611e-05
2.21627e-05
2.16751e-05
2.11978e-05
2.07305e-05
2.02736e-05
1.98276e-05
1.93924e-05
1.8967e-05
1.855e-05
1.81405e-05
1.77385e-05
1.73452e-05
1.69617e-05
1.65885e-05
1.62248e-05
1.58688e-05
1.55191e-05
1.5175e-05
1.4837e-05
1.45061e-05
1.41829e-05
1.38672e-05
1.35581e-05
1.32547e-05
1.29567e-05
1.26642e-05
1.23775e-05
1.20962e-05
1.18192e-05
1.15456e-05
1.1275e-05
1.1008e-05
1.07459e-05
1.04897e-05
1.02389e-05
9.99204e-06
9.74683e-06
9.50185e-06
9.25724e-06
9.01449e-06
8.77545e-06
8.54104e-06
8.31068e-06
8.08268e-06
7.85534e-06
7.62791e-06
7.40081e-06
7.17506e-06
6.9513e-06
6.7293e-06
6.50819e-06
6.28732e-06
6.0669e-06
5.84805e-06
5.63195e-06
5.41878e-06
5.20731e-06
4.99537e-06
4.78126e-06
4.56507e-06
4.34901e-06
4.13652e-06
3.93036e-06
3.731e-06
3.53622e-06
3.34225e-06
3.14593e-06
2.94665e-06
2.74693e-06
2.5513e-06
2.36399e-06
2.18678e-06
2.01809e-06
1.85388e-06
1.68984e-06
1.52365e-06
1.3562e-06
1.1911e-06
1.0328e-06
8.84393e-07
7.46169e-07
6.15626e-07
4.88883e-07
3.62662e-07
2.35853e-07
1.09907e-07
-1.2021e-08
-1.26685e-07
-2.32264e-07
-3.2908e-07
-4.19253e-07
-5.05563e-07
-5.90132e-07
-6.7355e-07
-7.54804e-07
-8.31949e-07
-9.03121e-07
-9.67405e-07
-1.02517e-06
-1.07783e-06
-1.12711e-06
-1.17439e-06
-1.22015e-06
-1.26403e-06
-1.30511e-06
-1.34246e-06
-1.37562e-06
-1.40474e-06
-1.43055e-06
-1.45398e-06
-1.47583e-06
-1.49653e-06
-1.51605e-06
-1.53407e-06
-1.55018e-06
-1.56415e-06
-1.57599e-06
-1.586e-06
-1.59462e-06
-1.60231e-06
-1.60939e-06
-1.61598e-06
-1.62202e-06
-1.62738e-06
-1.63193e-06
-1.63562e-06
-1.63851e-06
-1.64079e-06
-1.64264e-06
-1.64428e-06
-1.64579e-06
-1.64728e-06
-1.64866e-06
-1.64995e-06
-1.65099e-06
-1.65187e-06
-1.65246e-06
-1.65295e-06
-1.65326e-06
-1.65361e-06
-1.65387e-06
-1.65428e-06
-1.65458e-06
-1.65504e-06
-1.65532e-06
-1.65575e-06
-1.65593e-06
-1.6563e-06
-1.65638e-06
-1.65675e-06
-1.65677e-06
-1.65721e-06
-1.6572e-06
-1.65773e-06
-1.65767e-06
-1.65831e-06
-1.65816e-06
-1.6589e-06
-1.65861e-06
-1.65949e-06
-1.65904e-06
-1.66011e-06
-1.65947e-06
-1.6608e-06
-1.65991e-06
-1.66158e-06
-1.66037e-06
-1.66248e-06
-1.66085e-06
-1.66353e-06
-1.66135e-06
-1.66477e-06
-1.6619e-06
-1.66629e-06
-1.66251e-06
-1.66816e-06
-1.66323e-06
-1.67052e-06
-1.66409e-06
-1.67351e-06
-1.66516e-06
-1.67734e-06
-1.66653e-06
-1.68226e-06
-1.66832e-06
-1.68861e-06
-1.67071e-06
-1.69681e-06
-1.67396e-06
-1.70736e-06
-1.67843e-06
-1.72078e-06
-1.68464e-06
-1.73745e-06
-1.69334e-06
-1.7571e-06
-1.70546e-06
-1.77734e-06
-1.72198e-06
-1.78973e-06
-1.74285e-06
-1.76714e-06
-1.76294e-06
-1.61404e-06
-1.74848e-06
-8.2202e-07
-1.21201e-06
-1.21201e-06
-0.0942783
0.0942783
0.121016
0.0969698
0.071794
0.0531986
0.0402016
0.0311122
0.0246585
0.019986
0.016533
0.0139289
0.0119261
0.0103564
0.009104
0.00808789
0.00725055
0.00655065
0.00595807
0.00545056
0.00501146
0.00462812
0.00429079
0.00399188
0.00372536
0.00348643
0.00327118
0.0030764
0.00289946
0.00273813
0.00259054
0.00245513
0.00233052
0.00221556
0.00210923
0.00201067
0.0019191
0.00183386
0.00175435
0.00168006
0.00161051
0.00154531
0.00148407
0.00142647
0.00137223
0.00132106
0.00127274
0.00122705
0.00118378
0.00114277
0.00110386
0.00106688
0.00103172
0.000998252
0.000966357
0.000935935
0.000906891
0.000879139
0.000852599
0.000827195
0.000802861
0.000779532
0.000757151
0.000735662
0.000715016
0.000695166
0.000676069
0.000657683
0.000639972
0.0006229
0.000606435
0.000590545
0.000575203
0.00056038
0.000546053
0.000532198
0.000518792
0.000505816
0.000493248
0.000481072
0.000469269
0.000457825
0.000446722
0.000435948
0.000425487
0.000415329
0.00040546
0.000395869
0.000386546
0.00037748
0.000368662
0.000360081
0.00035173
0.000343601
0.000335685
0.000327974
0.000320462
0.000313143
0.000306009
0.000299055
0.000292274
0.000285661
0.00027921
0.000272917
0.000266777
0.000260785
0.000254937
0.000249229
0.000243657
0.000238216
0.000232903
0.000227714
0.000222646
0.000217695
0.000212859
0.000208134
0.000203518
0.000199007
0.000194599
0.000190291
0.000186081
0.000181966
0.000177943
0.000174011
0.000170167
0.00016641
0.000162737
0.000159147
0.000155637
0.000152206
0.000148851
0.000145571
0.000142364
0.000139229
0.000136163
0.000133166
0.000130235
0.00012737
0.000124569
0.000121831
0.000119153
0.000116535
0.000113974
0.000111471
0.000109023
0.00010663
0.000104292
0.000102005
9.977e-05
9.75845e-05
9.54475e-05
9.33579e-05
9.13146e-05
8.93166e-05
8.73631e-05
8.5453e-05
8.35857e-05
8.17604e-05
7.99759e-05
7.8231e-05
7.65241e-05
7.48541e-05
7.32204e-05
7.16226e-05
7.00606e-05
6.85338e-05
6.70412e-05
6.55814e-05
6.41531e-05
6.27556e-05
6.13884e-05
6.00511e-05
5.87429e-05
5.74628e-05
5.621e-05
5.49843e-05
5.37857e-05
5.26142e-05
5.1469e-05
5.03484e-05
4.92509e-05
4.81753e-05
4.71219e-05
4.60917e-05
4.50854e-05
4.41027e-05
4.31422e-05
4.22021e-05
4.12811e-05
4.0379e-05
3.94964e-05
3.86337e-05
3.77904e-05
3.69656e-05
3.61582e-05
3.53679e-05
3.45953e-05
3.3841e-05
3.31046e-05
3.23847e-05
3.16792e-05
3.09867e-05
3.03075e-05
2.9643e-05
2.89951e-05
2.83641e-05
2.77487e-05
2.71461e-05
2.65543e-05
2.59723e-05
2.54009e-05
2.48415e-05
2.4295e-05
2.37609e-05
2.32377e-05
2.2724e-05
2.22194e-05
2.1724e-05
2.12381e-05
2.0761e-05
2.02912e-05
1.98272e-05
1.93685e-05
1.89161e-05
1.84718e-05
1.80368e-05
1.76103e-05
1.71898e-05
1.67721e-05
1.63552e-05
1.59395e-05
1.55273e-05
1.51212e-05
1.47224e-05
1.43297e-05
1.39406e-05
1.35526e-05
1.31648e-05
1.27778e-05
1.23932e-05
1.20118e-05
1.16333e-05
1.12564e-05
1.088e-05
1.05047e-05
1.0132e-05
9.76368e-06
9.39977e-06
9.0384e-06
8.67647e-06
8.31176e-06
7.94472e-06
7.57886e-06
7.21919e-06
6.86952e-06
6.53021e-06
6.19775e-06
5.8667e-06
5.5328e-06
5.19568e-06
4.85948e-06
4.53092e-06
4.21596e-06
3.9167e-06
3.6304e-06
3.351e-06
3.07239e-06
2.79168e-06
2.51069e-06
2.23498e-06
1.971e-06
1.72289e-06
1.49058e-06
1.27007e-06
1.05566e-06
8.42802e-07
6.30314e-07
4.20692e-07
2.18695e-07
2.89375e-08
-1.46252e-07
-3.0771e-07
-4.58773e-07
-6.0352e-07
-7.44871e-07
-8.83426e-07
-1.0175e-06
-1.14419e-06
-1.2609e-06
-1.36655e-06
-1.46191e-06
-1.54922e-06
-1.63106e-06
-1.70935e-06
-1.7847e-06
-1.85646e-06
-1.92328e-06
-1.98387e-06
-2.03769e-06
-2.08513e-06
-2.12735e-06
-2.16577e-06
-2.20154e-06
-2.23525e-06
-2.26681e-06
-2.29575e-06
-2.3215e-06
-2.34377e-06
-2.36267e-06
-2.37871e-06
-2.39258e-06
-2.40496e-06
-2.41629e-06
-2.42676e-06
-2.43625e-06
-2.44461e-06
-2.45162e-06
-2.45729e-06
-2.46172e-06
-2.46523e-06
-2.46808e-06
-2.47062e-06
-2.47294e-06
-2.4752e-06
-2.47725e-06
-2.47913e-06
-2.48062e-06
-2.48184e-06
-2.48264e-06
-2.48329e-06
-2.48367e-06
-2.48413e-06
-2.48445e-06
-2.48499e-06
-2.48535e-06
-2.48597e-06
-2.48628e-06
-2.48685e-06
-2.487e-06
-2.48749e-06
-2.48749e-06
-2.48798e-06
-2.48789e-06
-2.4885e-06
-2.48836e-06
-2.48913e-06
-2.48891e-06
-2.48983e-06
-2.48945e-06
-2.49054e-06
-2.48995e-06
-2.49127e-06
-2.49041e-06
-2.49205e-06
-2.49087e-06
-2.49294e-06
-2.49136e-06
-2.49398e-06
-2.49188e-06
-2.49522e-06
-2.49243e-06
-2.4967e-06
-2.49301e-06
-2.4985e-06
-2.49367e-06
-2.50075e-06
-2.49443e-06
-2.50358e-06
-2.49536e-06
-2.50721e-06
-2.49653e-06
-2.51186e-06
-2.49804e-06
-2.51788e-06
-2.50002e-06
-2.5257e-06
-2.50267e-06
-2.53586e-06
-2.50629e-06
-2.54905e-06
-2.51128e-06
-2.56612e-06
-2.5182e-06
-2.58795e-06