# vtk DataFile Version 2.0
FlowField
ASCII
DATASET STRUCTURED_GRID
DIMENSIONS 400 1 50
POINTS 20000 float
0 0 0
0.08 0 0
0.16 0 0
0.24 0 0
0.32 0 0
0.4 0 0
0.48 0 0
0.56 0 0
0.64 0 0
0.72 0 0
0.8 0 0
0.88 0 0
0.96 0 0
1.04 0 0
1.12 0 0
1.2 0 0
1.28 0 0
1.36 0 0
1.44 0 0
1.52 0 0
1.6 0 0
1.68 0 0
1.76 0 0
1.84 0 0
1.92 0 0
2 0 0
2.08 0 0
2.16 0 0
2.24 0 0
2.32 0 0
2.4 0 0
2.48 0 0
2.56 0 0
2.64 0 0
2.72 0 0
2.8 0 0
2.88 0 0
2.96 0 0
3.04 0 0
3.12 0 0
3.2 0 0
3.28 0 0
3.36 0 0
3.44 0 0
3.52 0 0
3.6 0 0
3.68 0 0
3.76 0 0
3.84 0 0
3.92 0 0
4 0 0
4.08 0 0
4.16 0 0
4.24 0 0
4.32 0 0
4.4 0 0
4.48 0 0
4.56 0 0
4.64 0 0
4.72 0 0
4.8 0 0
4.88 0 0
4.96 0 0
5.04 0 0
5.12 0 0
5.2 0 0
5.28 0 0
5.36 0 0
5.44 0 0
5.52 0 0
5.6 0 0
5.68 0 0
5.76 0 0
5.84 0 0
5.92 0 0
6 0 0
6.08 0 0
6.16 0 0
6.24 0 0
6.32 0 0
6.4 0 0
6.48 0 0
6.56 0 0
6.64 0 0
6.72 0 0
6.8 0 0
6.88 0 0
6.96 0 0
7.04 0 0
7.12 0 0
7.2 0 0
7.28 0 0
7.36 0 0
7.44 0 0
7.52 0 0
7.6 0 0
7.68 0 0
7.76 0 0
7.84 0 0
7.92 0 0
8 0 0
8.08 0 0
8.16 0 0
8.24 0 0
8.32 0 0
8.4 0 0
8.48 0 0
8.56 0 0
8.64 0 0
8.72 0 0
8.8 0 0
8.88 0 0
8.96 0 0
9.04 0 0
9.12 0 0
9.2 0 0
9.28 0 0
9.36 0 0
9.44 0 0
9.52 0 0
9.6 0 0
9.68 0 0
9.76 0 0
9.84 0 0
9.92 0 0
10 0 0
10.08 0 0
10.16 0 0
10.24 0 0
10.32 0 0
10.4 0 0
10.48 0 0
10.56 0 0
10.64 0 0
10.72 0 0
10.8 0 0
10.88 0 0
10.96 0 0
11.04 0 0
11.12 0 0
11.2 0 0
11.28 0 0
11.36 0 0
11.44 0 0
11.52 0 0
11.6 0 0
11.68 0 0
11.76 0 0
11.84 0 0
11.92 0 0
12 0 0
12.08 0 0
12.16 0 0
12.24 0 0
12.32 0 0
12.4 0 0
12.48 0 0
12.56 0 0
12.64 0 0
12.72 0 0
12.8 0 0
12.88 0 0
12.96 0 0
13.04 0 0
13.12 0 0
13.2 0 0
13.28 0 0
13.36 0 0
13.44 0 0
13.52 0 0
13.6 0 0
13.68 0 0
13.76 0 0
13.84 0 0
13.92 0 0
14 0 0
14.08 0 0
14.16 0 0
14.24 0 0
14.32 0 0
14.4 0 0
14.48 0 0
14.56 0 0
14.64 0 0
14.72 0 0
14.8 0 0
14.88 0 0
14.96 0 0
15.04 0 0
15.12 0 0
15.2 0 0
15.28 0 0
15.36 0 0
15.44 0 0
15.52 0 0
15.6 0 0
15.68 0 0
15.76 0 0
15.84 0 0
15.92 0 0
16 0 0
16.08 0 0
16.16 0 0
16.24 0 0
16.32 0 0
16.4 0 0
16.48 0 0
16.56 0 0
16.64 0 0
16.72 0 0
16.8 0 0
16.88 0 0
16.96 0 0
17.04 0 0
17.12 0 0
17.2 0 0
17.28 0 0
17.36 0 0
17.44 0 0
17.52 0 0
17.6 0 0
17.68 0 0
17.76 0 0
17.84 0 0
17.92 0 0
18 0 0
18.08 0 0
18.16 0 0
18.24 0 0
18.32 0 0
18.4 0 0
18.48 0 0
18.56 0 0
18.64 0 0
18.72 0 0
18.8 0 0
18.88 0 0
18.96 0 0
19.04 0 0
19.12 0 0
19.2 0 0
19.28 0 0
19.36 0 0
19.44 0 0
19.52 0 0
19.6 0 0
19.68 0 0
19.76 0 0
19.84 0 0
19.92 0 0
20 0 0
20.08 0 0
20.16 0 0
20.24 0 0
20.32 0 0
20.4 0 0
20.48 0 0
20.56 0 0
20.64 0 0
20.72 0 0
20.8 0 0
20.88 0 0
20.96 0 0
21.04 0 0
21.12 0 0
21.2 0 0
21.28 0 0
21.36 0 0
21.44 0 0
21.52 0 0
21.6 0 0
21.68 0 0
21.76 0 0
21.84 0 0
21.92 0 0
22 0 0
22.08 0 0
22.16 0 0
22.24 0 0
22.32 0 0
22.4 0 0
22.48 0 0
22.56 0 0
22.64 0 0
22.72 0 0
22.8 0 0
22.88 0 0
22.96 0 0
23.04 0 0
23.12 0 0
23.2 0 0
23.28 0 0
23.36 0 0
23.44 0 0
23.52 0 0
23.6 0 0
23.68 0 0
23.76 0 0
23.84 0 0
23.92 0 0
24 0 0
24.08 0 0
24.16 0 0
24.24 0 0
24.32 0 0
24.4 0 0
24.48 0 0
24.56 0 0
24.64 0 0
24.72 0 0
24.8 0 0
24.88 0 0
24.96 0 0
25.04 0 0
25.12 0 0
25.2 0 0
25.28 0 0
25.36 0 0
25.44 0 0
25.52 0 0
25.6 0 0
25.68 0 0
25.76 0 0
25.84 0 0
25.92 0 0
26 0 0
26.08 0 0
26.16 0 0
26.24 0 0
26.32 0 0
26.4 0 0
26.48 0 0
26.56 0 0
26.64 0 0
26.72 0 0
26.8 0 0
26.88 0 0
26.96 0 0
27.04 0 0
27.12 0 0
27.2 0 0
27.28 0 0
27.36 0 0
27.44 0 0
27.52 0 0
27.6 0 0
27.68 0 0
27.76 0 0
27.84 0 0
27.92 0 0
28 0 0
28.08 0 0
28.16 0 0
28.24 0 0
28.32 0 0
28.4 0 0
28.48 0 0
28.56 0 0
28.64 0 0
28.72 0 0
28.8 0 0
28.88 0 0
28.96 0 0
29.04 0 0
29.12 0 0
29.2 0 0
29.28 0 0
29.36 0 0
29.44 0 0
29.52 0 0
29.6 0 0
29.68 0 0
29.76 0 0
29.84 0 0
29.92 0 0
30 0 0
30.08 0 0
30.16 0 0
30.24 0 0
30.32 0 0
30.4 0 0
30.48 0 0
30.56 0 0
30.64 0 0
30.72 0 0
30.8 0 0
30.88 0 0
30.96 0 0
31.04 0 0
31.12 0 0
31.2 0 0
31.28 0 0
31.36 0 0
31.44 0 0
31.52 0 0
31.6 0 0
31.68 0 0
31.76 0 0
31.84 0 0
31.92 0 0
0 0.02 0
0.08 0.02 0
0.16 0.02 0
0.24 0.02 0
0.32 0.02 0
0.4 0.02 0
0.48 0.02 0
0.56 0.02 0
0.64 0.02 0
0.72 0.02 0
0.8 0.02 0
0.88 0.02 0
0.96 0.02 0
1.04 0.02 0
1.12 0.02 0
1.2 0.02 0
1.28 0.02 0
1.36 0.02 0
1.44 0.02 0
1.52 0.02 0
1.6 0.02 0
1.68 0.02 0
1.76 0.02 0
1.84 0.02 0
1.92 0.02 0
2 0.02 0
2.08 0.02 0
2.16 0.02 0
2.24 0.02 0
2.32 0.02 0
2.4 0.02 0
2.48 0.02 0
2.56 0.02 0
2.64 0.02 0
2.72 0.02 0
2.8 0.02 0
2.88 0.02 0
2.96 0.02 0
3.04 0.02 0
3.12 0.02 0
3.2 0.02 0
3.28 0.02 0
3.36 0.02 0
3.44 0.02 0
3.52 0.02 0
3.6 0.02 0
3.68 0.02 0
3.76 0.02 0
3.84 0.02 0
3.92 0.02 0
4 0.02 0
4.08 0.02 0
4.16 0.02 0
4.24 0.02 0
4.32 0.02 0
4.4 0.02 0
4.48 0.02 0
4.56 0.02 0
4.64 0.02 0
4.72 0.02 0
4.8 0.02 0
4.88 0.02 0
4.96 0.02 0
5.04 0.02 0
5.12 0.02 0
5.2 0.02 0
5.28 0.02 0
5.36 0.02 0
5.44 0.02 0
5.52 0.02 0
5.6 0.02 0
5.68 0.02 0
5.76 0.02 0
5.84 0.02 0
5.92 0.02 0
6 0.02 0
6.08 0.02 0
6.16 0.02 0
6.24 0.02 0
6.32 0.02 0
6.4 0.02 0
6.48 0.02 0
6.56 0.02 0
6.64 0.02 0
6.72 0.02 0
6.8 0.02 0
6.88 0.02 0
6.96 0.02 0
7.04 0.02 0
7.12 0.02 0
7.2 0.02 0
7.28 0.02 0
7.36 0.02 0
7.44 0.02 0
7.52 0.02 0
7.6 0.02 0
7.68 0.02 0
7.76 0.02 0
7.84 0.02 0
7.92 0.02 0
8 0.02 0
8.08 0.02 0
8.16 0.02 0
8.24 0.02 0
8.32 0.02 0
8.4 0.02 0
8.48 0.02 0
8.56 0.02 0
8.64 0.02 0
8.72 0.02 0
8.8 0.02 0
8.88 0.02 0
8.96 0.02 0
9.04 0.02 0
9.12 0.02 0
9.2 0.02 0
9.28 0.02 0
9.36 0.02 0
9.44 0.02 0
9.52 0.02 0
9.6 0.02 0
9.68 0.02 0
9.76 0.02 0
9.84 0.02 0
9.92 0.02 0
10 0.02 0
10.08 0.02 0
10.16 0.02 0
10.24 0.02 0
10.32 0.02 0
10.4 0.02 0
10.48 0.02 0
10.56 0.02 0
10.64 0.02 0
10.72 0.02 0
10.8 0.02 0
10.88 0.02 0
10.96 0.02 0
11.04 0.02 0
11.12 0.02 0
11.2 0.02 0
11.28 0.02 0
11.36 0.02 0
11.44 0.02 0
11.52 0.02 0
11.6 0.02 0
11.68 0.02 0
11.76 0.02 0
11.84 0.02 0
11.92 0.02 0
12 0.02 0
12.08 0.02 0
12.16 0.02 0
12.24 0.02 0
12.32 0.02 0
12.4 0.02 0
12.48 0.02 0
12.56 0.02 0
12.64 0.02 0
12.72 0.02 0
12.8 0.02 0
12.88 0.02 0
12.96 0.02 0
13.04 0.02 0
13.12 0.02 0
13.2 0.02 0
13.28 0.02 0
13.36 0.02 0
13.44 0.02 0
13.52 0.02 0
13.6 0.02 0
13.68 0.02 0
13.76 0.02 0
13.84 0.02 0
13.92 0.02 0
14 0.02 0
14.08 0.02 0
14.16 0.02 0
14.24 0.02 0
14.32 0.02 0
14.4 0.02 0
14.48 0.02 0
14.56 0.02 0
14.64 0.02 0
14.72 0.02 0
14.8 0.02 0
14.88 0.02 0
14.96 0.02 0
15.04 0.02 0
15.12 0.02 0
15.2 0.02 0
15.28 0.02 0
15.36 0.02 0
15.44 0.02 0
15.52 0.02 0
15.6 0.02 0
15.68 0.02 0
15.76 0.02 0
15.84 0.02 0
15.92 0.02 0
16 0.02 0
16.08 0.02 0
16.16 0.02 0
16.24 0.02 0
16.32 0.02 0
16.4 0.02 0
16.48 0.02 0
16.56 0.02 0
16.64 0.02 0
16.72 0.02 0
16.8 0.02 0
16.88 0.02 0
16.96 0.02 0
17.04 0.02 0
17.12 0.02 0
17.2 0.02 0
17.28 0.02 0
17.36 0.02 0
17.44 0.02 0
17.52 0.02 0
17.6 0.02 0
17.68 0.02 0
17.76 0.02 0
17.84 0.02 0
17.92 0.02 0
18 0.02 0
18.08 0.02 0
18.16 0.02 0
18.24 0.02 0
18.32 0.02 0
18.4 0.02 0
18.48 0.02 0
18.56 0.02 0
18.64 0.02 0
18.72 0.02 0
18.8 0.02 0
18.88 0.02 0
18.96 0.02 0
19.04 0.02 0
19.12 0.02 0
19.2 0.02 0
19.28 0.02 0
19.36 0.02 0
19.44 0.02 0
19.52 0.02 0
19.6 0.02 0
19.68 0.02 0
19.76 0.02 0
19.84 0.02 0
19.92 0.02 0
20 0.02 0
20.08 0.02 0
20.16 0.02 0
20.24 0.02 0
20.32 0.02 0
20.4 0.02 0
20.48 0.02 0
20.56 0.02 0
20.64 0.02 0
20.72 0.02 0
20.8 0.02 0
20.88 0.02 0
20.96 0.02 0
21.04 0.02 0
21.12 0.02 0
21.2 0.02 0
21.28 0.02 0
21.36 0.02 0
21.44 0.02 0
21.52 0.02 0
21.6 0.02 0
21.68 0.02 0
21.76 0.02 0
21.84 0.02 0
21.92 0.02 0
22 0.02 0
22.08 0.02 0
22.16 0.02 0
22.24 0.02 0
22.32 0.02 0
22.4 0.02 0
22.48 0.02 0
22.56 0.02 0
22.64 0.02 0
22.72 0.02 0
22.8 0.02 0
22.88 0.02 0
22.96 0.02 0
23.04 0.02 0
23.12 0.02 0
23.2 0.02 0
23.28 0.02 0
23.36 0.02 0
23.44 0.02 0
23.52 0.02 0
23.6 0.02 0
23.68 0.02 0
23.76 0.02 0
23.84 0.02 0
23.92 0.02 0
24 0.02 0
24.08 0.02 0
24.16 0.02 0
24.24 0.02 0
24.32 0.02 0
24.4 0.02 0
24.48 0.02 0
24.56 0.02 0
24.64 0.02 0
24.72 0.02 0
24.8 0.02 0
24.88 0.02 0
24.96 0.02 0
25.04 0.02 0
25.12 0.02 0
25.2 0.02 0
25.28 0.02 0
25.36 0.02 0
25.44 0.02 0
25.52 0.02 0
25.6 0.02 0
25.68 0.02 0
25.76 0.02 0
25.84 0.02 0
25.92 0.02 0
26 0.02 0
26.08 0.02 0
26.16 0.02 0
26.24 0.02 0
26.32 0.02 0
26.4 0.02 0
26.48 0.02 0
26.56 0.02 0
26.64 0.02 0
26.72 0.02 0
26.8 0.02 0
26.88 0.02 0
26.96 0.02 0
27.04 0.02 0
27.12 0.02 0
27.2 0.02 0
27.28 0.02 0
27.36 0.02 0
27.44 0.02 0
27.52 0.02 0
27.6 0.02 0
27.68 0.02 0
27.76 0.02 0
27.84 0.02 0
27.92 0.02 0
28 0.02 0
28.08 0.02 0
28.16 0.02 0
28.24 0.02 0
28.32 0.02 0
28.4 0.02 0
28.48 0.02 0
28.56 0.02 0
28.64 0.02 0
28.72 0.02 0
28.8 0.02 0
28.88 0.02 0
28.96 0.02 0
29.04 0.02 0
29.12 0.02 0
29.2 0.02 0
29.28 0.02 0
29.36 0.02 0
29.44 0.02 0
29.52 0.02 0
29.6 0.02 0
29.68 0.02 0
29.76 0.02 0
29.84 0.02 0
29.92 0.02 0
30 0.02 0
30.08 0.02 0
30.16 0.02 0
30.24 0.02 0
30.32 0.02 0
30.4 0.02 0
30.48 0.02 0
30.56 0.02 0
30.64 0.02 0
30.72 0.02 0
30.8 0.02 0
30.88 0.02 0
30.96 0.02 0
31.04 0.02 0
31.12 0.02 0
31.2 0.02 0
31.28 0.02 0
31.36 0.02 0
31.44 0.02 0
31.52 0.02 0
31.6 0.02 0
31.68 0.02 0
31.76 0.02 0
31.84 0.02 0
31.92 0.02 0
0 0.04 0
0.08 0.04 0
0.16 0.04 0
0.24 0.04 0
0.32 0.04 0
0.4 0.04 0
0.48 0.04 0
0.56 0.04 0
0.64 0.04 0
0.72 0.04 0
0.8 0.04 0
0.88 0.04 0
0.96 0.04 0
1.04 0.04 0
1.12 0.04 0
1.2 0.04 0
1.28 0.04 0
1.36 0.04 0
1.44 0.04 0
1.52 0.04 0
1.6 0.04 0
1.68 0.04 0
1.76 0.04 0
1.84 0.04 0
1.92 0.04 0
2 0.04 0
2.08 0.04 0
2.16 0.04 0
2.24 0.04 0
2.32 0.04 0
2.4 0.04 0
2.48 0.04 0
2.56 0.04 0
2.64 0.04 0
2.72 0.04 0
2.8 0.04 0
2.88 0.04 0
2.96 0.04 0
3.04 0.04 0
3.12 0.04 0
3.2 0.04 0
3.28 0.04 0
3.36 0.04 0
3.44 0.04 0
3.52 0.04 0
3.6 0.04 0
3.68 0.04 0
3.76 0.04 0
3.84 0.04 0
3.92 0.04 0
4 0.04 0
4.08 0.04 0
4.16 0.04 0
4.24 0.04 0
4.32 0.04 0
4.4 0.04 0
4.48 0.04 0
4.56 0.04 0
4.64 0.04 0
4.72 0.04 0
4.8 0.04 0
4.88 0.04 0
4.96 0.04 0
5.04 0.04 0
5.12 0.04 0
5.2 0.04 0
5.28 0.04 0
5.36 0.04 0
5.44 0.04 0
5.52 0.04 0
5.6 0.04 0
5.68 0.04 0
5.76 0.04 0
5.84 0.04 0
5.92 0.04 0
6 0.04 0
6.08 0.04 0
6.16 0.04 0
6.24 0.04 0
6.32 0.04 0
6.4 0.04 0
6.48 0.04 0
6.56 0.04 0
6.64 0.04 0
6.72 0.04 0
6.8 0.04 0
6.88 0.04 0
6.96 0.04 0
7.04 0.04 0
7.12 0.04 0
7.2 0.04 0
7.28 0.04 0
7.36 0.04 0
7.44 0.04 0
7.52 0.04 0
7.6 0.04 0
7.68 0.04 0
7.76 0.04 0
7.84 0.04 0
[...]
POINT_DATA 20000

SCALARS v float 1
LOOKUP_TABLE default
0
0
0
0
0
0
0
0
0
0
0
0
0
0
0
0
0
0
0
0
0
0
0
0
0
0
0
0
0
0
0
0
0
0
0
0
0
0
0
0
0
0
0
0
0
0
0
0
0
0
0
0
0
0
0
0
0
0
0
0
0
0
0
0
0
0
0
0
0
0
0
0
0
0
0
0
0
0
0
0
0
0
0
0
0
0
0
0
0
0
0
0
0
0
0
0
0
0
0
0
0
0
0
0
0
0
0
0
0
0
0
0
0
0
0
0
0
0
0
0
0
0
0
0
0
0
0
0
0
0
0
0
0
0
0
0
0
0
0
0
0
0
0
0
0
0
0
0
0
0
0
0
0
0
0
0
0
0
0
0
0
0
0
0
0
0
0
0
0
0
0
0
0
0
0
0
0
0
0
0
0
0
0
0
0
0
0
0
0
0
0
0
0
0
0
0
0
0
0
0
0
0
0
0
0
0
0
0
0
0
0
0
0
0
0
0
0
0
0
0
0
0
0
0
0
0
0
0
0
0
0
0
0
0
0
0
0
0
0
0
0
0
0
0
0
0
0
0
0
0
0
0
0
0
0
0
0
0
0
0
0
0
0
0
0
0
0
0
0
0
0
0
0
0
0
0
0
0
0
0
0
0
0
0
0
0
0
0
0
0
0
0
0
0
0
0
0
0
0
0
0
0
0
0
0
0
0
0
0
0
0
0
0
0
0
0
0
0
0
0
0
0
0
0
0
0
0
0
0
0
0
0
0
0
0
0
0
0
0
0
0
0
0
0
0
0
0
0
0
0
0
0
0
0
0
0
0
0
0
0
0
0
0
0
0
0
0
0
0
0
0
0
0
0
0
0
0
0
0
0
0
0
0
0
0
0
0
0
0
0
0
0
0
0
0
0
0
0
0
0
-0.122795
0.122795
0.0533086
0.018931
0.00826409
0.00456552
0.00286067
0.00190798
0.00131574
0.000921803
0.000646837
0.000447618
0.000298709
0.000184398
9.46793e-05
2.2808e-05
-3.61854e-05
-8.60032e-05
-0.000129028
-0.000166447
-0.000198855
-0.000226856
-0.00025117
-0.000272371
-0.000290838
-0.000307152
-0.000322411
-0.000337856
-0.000353947
-0.000369753
-0.000383449
-0.000393743
-0.000401152
-0.000408042
-0.000417308
-0.000430589
-0.000447257
-0.00046484
-0.000480517
-0.000492673
-0.000501559
-0.00050879
-0.000516172
-0.000524633
-0.000533836
-0.000542554
-0.000549453
-0.000553816
-0.00055584
-0.000556464
-0.000556909
-0.000558202
-0.000560877
-0.000564922
-0.000569919
-0.000575263
-0.000580374
-0.000584839
-0.00058846
-0.000591239
-0.000593306
-0.000594857
-0.000596081
-0.000597135
-0.000598121
-0.000599096
-0.000600083
-0.000601082
-0.000602084
-0.000603078
-0.000604057
-0.000605016
-0.000605953
-0.00060687
-0.000607768
-0.000608649
-0.000609516
-0.000610371
-0.000611213
-0.000612044
-0.000612864
-0.000613672
-0.000614467
-0.00061525
-0.000616018
-0.000616772
-0.000617511
-0.000618233
-0.000618938
-0.000619625
-0.000620294
-0.000620944
-0.000621574
-0.000622183
-0.000622771
-0.000623337
-0.00062388
-0.000624401
-0.000624897
-0.000625369
-0.000625815
-0.000626236
-0.000626631
-0.000626998
-0.000627338
-0.00062765
-0.000627933
-0.000628187
-0.000628411
-0.000628605
-0.000628768
-0.0006289
-0.000628999
-0.000629067
-0.000629102
-0.000629103
-0.000629071
-0.000629004
-0.000628903
-0.000628768
-0.000628597
-0.00062839
-0.000628147
-0.000627867
-0.000627552
-0.000627198
-0.000626808
-0.00062638
-0.000625914
-0.00062541
-0.000624868
-0.000624287
-0.000623668
-0.000623009
-0.000622312
-0.000621575
-0.000620798
-0.000619982
-0.000619127
-0.000618232
-0.000617297
-0.000616322
-0.000615308
-0.000614253
-0.000613159
-0.000612024
-0.00061085
-0.000609637
-0.000608383
-0.00060709
-0.000605757
-0.000604385
-0.000602974
-0.000601524
-0.000600034
-0.000598506
-0.000596939
-0.000595334
-0.000593691
-0.000592009
-0.000590291
-0.000588534
-0.000586741
-0.000584911
-0.000583045
-0.000581142
-0.000579204
-0.00057723
-0.000575221
-0.000573177
-0.0005711
-0.000568988
-0.000566843
-0.000564665
-0.000562454
-0.000560212
-0.000557937
-0.000555632
-0.000553296
-0.00055093
-0.000548534
-0.00054611
-0.000543656
-0.000541175
-0.000538666
-0.000536131
-0.000533569
-0.000530982
-0.000528369
-0.000525732
-0.000523071
-0.000520386
-0.000517679
-0.00051495
-0.000512199
-0.000509428
-0.000506636
-0.000503825
-0.000500995
-0.000498147
-0.000495281
-0.000492398
-0.000489499
-0.000486584
-0.000483655
-0.000480711
-0.000477754
-0.000474783
-0.000471801
-0.000468807
-0.000465802
-0.000462786
-0.000459762
-0.000456728
-0.000453686
-0.000450636
-0.00044758
-0.000444517
-0.000441449
-0.000438376
-0.000435299
-0.000432218
-0.000429134
-0.000426048
-0.000422961
-0.000419872
-0.000416783
-0.000413694
-0.000410606
-0.00040752
-0.000404435
-0.000401354
-0.000398276
-0.000395201
-0.000392132
-0.000389067
-0.000386008
-0.000382955
-0.000379909
-0.00037687
-0.00037384
-0.000370817
-0.000367804
-0.0003648
-0.000361806
-0.000358823
-0.000355851
-0.00035289
-0.000349941
-0.000347005
-0.000344081
-0.000341171
-0.000338275
-0.000335392
-0.000332525
-0.000329673
-0.000326836
-0.000324015
-0.00032121
-0.000318422
-0.00031565
-0.000312897
-0.000310161
-0.000307443
-0.000304743
-0.000302062
-0.0002994
-0.000296757
-0.000294134
-0.000291531
-0.000288948
-0.000286385
-0.000283843
-0.000281322
-0.000278822
-0.000276343
-0.000273886
-0.000271451
-0.000269037
-0.000266646
-0.000264277
-0.00026193
-0.000259606
-0.000257305
-0.000255027
-0.000252771
-0.000250539
-0.00024833
-0.000246145
-0.000243983
-0.000241844
-0.000239729
-0.000237638
-0.00023557
-0.000233527
-0.000231507
-0.000229511
-0.000227539
-0.000225591
-0.000223666
-0.000221766
-0.00021989
-0.000218038
-0.000216209
-0.000214405
-0.000212624
-0.000210868
-0.000209135
-0.000207426
-0.000205741
-0.000204079
-0.000202441
-0.000200827
-0.000199236
-0.000197668
-0.000196124
-0.000194603
-0.000193106
-0.000191631
-0.000190179
-0.000188751
-0.000187345
-0.000185962
-0.000184601
-0.000183262
-0.000181947
-0.000180653
-0.000179381
-0.000178131
-0.000176903
-0.000175697
-0.000174512
-0.000173349
-0.000172207
-0.000171086
-0.000169986
-0.000168907
-0.000167848
-0.00016681
-0.000165793
-0.000164796
-0.000163818
-0.000162861
-0.000161924
-0.000161006
-0.000160107
-0.000159228
-0.000158368
-0.000157527
-0.000156705
-0.000155902
-0.000155117
-0.00015435
-0.000153602
-0.000152872
-0.00015216
-0.000151465
-0.000150788
-0.000150129
-0.000149487
-0.000148862
-0.000148254
-0.000147663
-0.000147089
-0.000146532
-0.000145991
-0.000145467
-0.000144958
-0.000144466
-0.000143991
-0.00014353
-0.000143087
-0.000142656
-0.000142247
-0.000141842
-0.000141474
-0.000141085
-0.000140772
-0.000140376
-0.000140152
-0.000139698
-0.000139636
-0.000139031
-0.000139239
-0.000138375
-0.000138948
-0.000137751
-0.00013877
-0.000137062
-0.000138991
-0.000135732
-0.000140511
-0.000132666
-0.000143986
-0.00012868
-0.000145459
-0.000129927
-0.000128095
-0.000124947
-0.000124947
-0.141759
0.141759
0.100476
0.0533289
0.0296462
0.0182975
0.0123016
0.00878155
0.00654069
0.0050281
0.00396219
0.00318545
0.00260306
0.00215516
0.00180273
0.0015193
0.00128602
0.00108966
0.000921851
0.000777819
0.000654271
0.00054792
0.000455521
0.000374592
0.000303276
0.00023922
0.000179037
0.000119609
6.04175e-05
4.45539e-06
-4.38447e-05
-8.2533e-05
-0.000114824
-0.000148129
-0.000189839
-0.000242757
-0.000303321
-0.000363731
-0.000416425
-0.000457946
-0.000489957
-0.000517246
-0.000544365
-0.00057307
-0.000601816
-0.000627189
-0.000646128
-0.000657634
-0.000663193
-0.000665965
-0.000669393
-0.00067596
-0.000686574
-0.000700632
-0.000716555
-0.000732468
-0.000746772
-0.000758469
-0.000767236
-0.000773294
-0.000777192
-0.000779586
-0.000781074
-0.000782112
-0.000782988
-0.000783849
-0.000784743
-0.000785662
-0.000786579
-0.000787462
-0.000788292
-0.000789059
-0.000789762
-0.00079041
-0.000791009
-0.000791571
-0.000792103
-0.000792611
-0.000793099
-0.000793571
-0.000794027
-0.000794468
-0.000794894
-0.000795303
-0.000795695
-0.00079607
-0.000796425
-0.00079676
-0.000797075
-0.000797369
-0.00079764
-0.000797888
-0.000798112
-0.000798313
-0.000798488
-0.000798638
-0.000798761
-0.000798858
-0.000798927
-0.000798969
-0.000798982
-0.000798966
-0.00079892
-0.000798844
-0.000798738
-0.0007986
-0.00079843
-0.000798229
-0.000797994
-0.000797726
-0.000797425
-0.00079709
-0.00079672
-0.000796315
-0.000795874
-0.000795398
-0.000794886
-0.000794337
-0.000793751
-0.000793128
-0.000792468
-0.000791769
-0.000791033
-0.000790258
-0.000789444
-0.000788591
-0.000787699
-0.000786768
-0.000785798
-0.000784787
-0.000783736
-0.000782646
-0.000781515
-0.000780344
-0.000779132
-0.00077788
-0.000776587
-0.000775254
-0.00077388
-0.000772465
-0.00077101
-0.000769513
-0.000767977
-0.000766399
-0.000764781
-0.000763123
-0.000761424
-0.000759685
-0.000757906
-0.000756087
-0.000754228
-0.00075233
-0.000750392
-0.000748416
-0.0007464
-0.000744345
-0.000742252
-0.000740121
-0.000737952
-0.000735746
-0.000733502
-0.000731221
-0.000728904
-0.000726551
-0.000724162
-0.000721737
-0.000719278
-0.000716784
-0.000714256
-0.000711694
-0.000709099
-0.000706472
-0.000703812
-0.00070112
-0.000698397
-0.000695643
-0.00069286
-0.000690046
-0.000687204
-0.000684333
-0.000681434
-0.000678507
-0.000675554
-0.000672575
-0.00066957
-0.00066654
-0.000663486
-0.000660408
-0.000657307
-0.000654184
-0.000651039
-0.000647873
-0.000644686
-0.00064148
-0.000638254
-0.00063501
-0.000631749
-0.00062847
-0.000625175
-0.000621864
-0.000618538
-0.000615198
-0.000611845
-0.000608478
-0.0006051
-0.00060171
-0.000598309
-0.000594898
-0.000591478
-0.000588049
-0.000584612
-0.000581168
-0.000577717
-0.00057426
-0.000570799
-0.000567333
-0.000563863
-0.00056039
-0.000556914
-0.000553437
-0.000549959
-0.000546481
-0.000543003
-0.000539525
-0.00053605
-0.000532577
-0.000529107
-0.00052564
-0.000522177
-0.00051872
-0.000515268
-0.000511822
-0.000508383
-0.000504951
-0.000501527
-0.000498111
-0.000494705
-0.000491308
-0.000487922
-0.000484546
-0.000481182
-0.00047783
-0.00047449
-0.000471163
-0.000467849
-0.000464549
-0.000461264
-0.000457994
-0.000454739
-0.0004515
-0.000448278
-0.000445072
-0.000441883
-0.000438712
-0.000435559
-0.000432425
-0.00042931
-0.000426213
-0.000423137
-0.00042008
-0.000417044
-0.000414029
-0.000411034
-0.000408061
-0.00040511
-0.00040218
-0.000399273
-0.000396389
-0.000393527
-0.000390689
-0.000387873
-0.000385082
-0.000382314
-0.00037957
-0.000376851
-0.000374156
-0.000371486
-0.00036884
-0.00036622
-0.000363625
-0.000361055
-0.00035851
-0.000355992
-0.000353499
-0.000351031
-0.00034859
-0.000346175
-0.000343786
-0.000341423
-0.000339087
-0.000336777
-0.000334493
-0.000332236
-0.000330005
-0.000327801
-0.000325623
-0.000323472
-0.000321348
-0.00031925
-0.000317179
-0.000315134
-0.000313116
-0.000311124
-0.000309159
-0.00030722
-0.000305308
-0.000303422
-0.000301562
-0.000299728
-0.000297921
-0.00029614
-0.000294384
-0.000292655
-0.000290951
-0.000289273
-0.00028762
-0.000285993
-0.000284391
-0.000282815
-0.000281263
-0.000279737
-0.000278236
-0.000276759
-0.000275307
-0.000273879
-0.000272475
-0.000271096
-0.000269741
-0.00026841
-0.000267102
-0.000265818
-0.000264557
-0.00026332
-0.000262105
-0.000260914
-0.000259745
-0.000258599
-0.000257475
-0.000256373
-0.000255294
-0.000254236
-0.0002532
-0.000252186
-0.000251193
-0.000250221
-0.00024927
-0.00024834
-0.00024743
-0.000246541
-0.000245673
-0.000244824
-0.000243996
-0.000243187
-0.000242398
-0.000241628
-0.000240878
-0.000240147
-0.000239434
-0.000238741
-0.000238066
-0.00023741
-0.000236772
-0.000236152
-0.00023555
-0.000234966
-0.000234401
-0.000233852
-0.000233322
-0.000232808
-0.000232314
-0.000231834
-0.000231377
-0.000230926
-0.000230513
-0.00023008
-0.000229731
-0.000229285
-0.000229047
-0.000228519
-0.000228501
-0.00022773
-0.00022816
-0.000226854
-0.00022808
-0.00022589
-0.000228216
-0.000224921
-0.000228582
-0.000223659
-0.000230066
-0.000220318
-0.00023548
-0.000211467
-0.000246948
-0.000199475
-0.000252504
-0.0002029
-0.000210753
-0.000193531
-0.000193531
-0.12191
0.12191
0.121143
0.0816554
0.0533437
0.0362033
0.0257323
0.0190523
0.0145904
0.0114875
0.00925755
0.00761111
0.00636598
0.0054028
0.00464122
0.00402555
0.00351644
0.00308721
0.00272144
0.00240918
0.00214257
0.00191351
0.00171433
0.0015392
0.00138366
0.00124272
0.00111018
0.000981211
0.000855759
0.000739153
0.00063779
0.000552704
0.000476202
0.000394827
0.000297041
0.000180349
5.30082e-05
-7.06819e-05
-0.000178226
-0.000264876
-0.000334401
-0.000395034
-0.000453788
-0.000512659
-0.000568464
-0.000615686
-0.000650211
-0.000671794
-0.000684239
-0.000693614
-0.000705763
-0.000724335
-0.00075002
-0.000780958
-0.000813856
-0.000845232
-0.000872373
-0.000893803
-0.000909292
-0.000919549
-0.000925785
-0.000929313
-0.000931271
-0.000932484
-0.000933457
-0.00093443
-0.00093547
-0.00093655
-0.000937611
-0.0009386
-0.000939481
-0.000940241
-0.000940886
-0.000941431
-0.000941893
-0.000942293
-0.000942646
-0.000942966
-0.000943259
-0.000943533
-0.000943789
-0.000944029
-0.000944253
-0.000944459
-0.000944648
-0.000944818
-0.000944968
-0.000945096
-0.000945202
-0.000945285
-0.000945344
-0.000945379
-0.000945388
-0.000945372
-0.000945328
-0.000945258
-0.00094516
-0.000945034
-0.000944879
-0.000944695
-0.000944481
-0.000944237
-0.000943962
-0.000943655
-0.000943317
-0.000942947
-0.000942543
-0.000942106
-0.000941636
-0.000941132
-0.000940593
-0.000940019
-0.00093941
-0.000938765
-0.000938084
-0.000937366
-0.000936612
-0.000935821
-0.000934992
-0.000934125
-0.000933221
-0.000932278
-0.000931296
-0.000930276
-0.000929217
-0.000928119
-0.000926981
-0.000925804
-0.000924587
-0.00092333
-0.000922033
-0.000920695
-0.000919318
-0.0009179
-0.000916442
-0.000914944
-0.000913405
-0.000911825
-0.000910205
-0.000908545
-0.000906844
-0.000905102
-0.000903321
-0.000901499
-0.000899637
-0.000897735
-0.000895793
-0.000893811
-0.00089179
-0.000889729
-0.000887629
-0.00088549
-0.000883313
-0.000881097
-0.000878842
-0.00087655
-0.00087422
-0.000871852
-0.000869447
-0.000867006
-0.000864528
-0.000862015
-0.000859465
-0.00085688
-0.000854261
-0.000851607
-0.000848919
-0.000846197
-0.000843442
-0.000840655
-0.000837836
-0.000834984
-0.000832102
-0.000829189
-0.000826246
-0.000823273
-0.000820272
-0.000817241
-0.000814183
-0.000811098
-0.000807986
-0.000804848
-0.000801684
-0.000798495
-0.000795282
-0.000792046
-0.000788786
-0.000785504
-0.0007822
-0.000778875
-0.00077553
-0.000772165
-0.000768781
-0.000765378
-0.000761958
-0.000758521
-0.000755067
-0.000751598
-0.000748114
-0.000744616
-0.000741104
-0.000737579
-0.000734043
-0.000730494
-0.000726935
-0.000723366
-0.000719788
-0.000716201
-0.000712607
-0.000709005
-0.000705396
-0.000701782
-0.000698163
-0.00069454
-0.000690913
-0.000687283
-0.00068365
-0.000680017
-0.000676382
-0.000672747
-0.000669112
-0.000665479
-0.000661848
-0.000658219
-0.000654593
-0.000650971
-0.000647354
-0.000643741
-0.000640135
-0.000636534
-0.000632941
-0.000629355
-0.000625778
-0.000622209
-0.00061865
-0.000615101
-0.000611562
-0.000608035
-0.000604519
-0.000601016
-0.000597525
-0.000594048
-0.000590584
-0.000587135
-0.000583701
-0.000580282
-0.00057688
-0.000573493
-0.000570123
-0.000566771
-0.000563437
-0.00056012
-0.000556823
-0.000553544
-0.000550285
-0.000547045
-0.000543826
-0.000540628
-0.000537451
-0.000534294
-0.00053116
-0.000528048
-0.000524958
-0.000521891
-0.000518846
-0.000515825
-0.000512828
-0.000509855
-0.000506905
-0.00050398
-0.00050108
-0.000498204
-0.000495354
-0.000492529
-0.000489729
-0.000486955
-0.000484207
-0.000481485
-0.000478789
-0.000476119
-0.000473476
-0.00047086
-0.00046827
-0.000465708
-0.000463172
-0.000460663
-0.000458182
-0.000455728
-0.000453301
-0.000450901
-0.000448529
-0.000446185
-0.000443867
-0.000441578
-0.000439316
-0.000437082
-0.000434875
-0.000432696
-0.000430544
-0.00042842
-0.000426324
-0.000424255
-0.000422213
-0.000420199
-0.000418212
-0.000416253
-0.00041432
-0.000412415
-0.000410537
-0.000408686
-0.000406862
-0.000405065
-0.000403295
-0.000401551
-0.000399834
-0.000398143
-0.000396478
-0.00039484
-0.000393227
-0.000391641
-0.00039008
-0.000388545
-0.000387036
-0.000385551
-0.000384092
-0.000382658
-0.000381249
-0.000379865
-0.000378505
-0.000377169
-0.000375858
-0.000374571
-0.000373308
-0.000372068
-0.000370852
-0.00036966
-0.00036849
-0.000367344
-0.00036622
-0.000365119
-0.000364041
-0.000362985
-0.00036195
-0.000360938
-0.000359948
-0.000358979
-0.000358031
-0.000357104
-0.000356199
-0.000355314
-0.00035445
-0.000353606
-0.000352783
-0.000351979
-0.000351196
-0.000350432
-0.000349688
-0.000348963
-0.000348258
-0.000347571
-0.000346904
-0.000346255
-0.000345626
-0.000345014
-0.000344421
-0.000343847
-0.000343291
-0.000342753
-0.000342232
-0.000341733
-0.000341245
-0.000340788
-0.000340326
-0.000339925
-0.000339466
-0.00033916
-0.000338646
-0.000338528
-0.00033782
-0.000338106
-0.000336893
-0.000338024
-0.000335746
-0.000338382
-0.000334391
-0.000339079
-0.000333
-0.000340168
-0.000330954
-0.000343443
-0.000324798
-0.000354154
-0.000308474
-0.000375492
-0.000287408
-0.000385329
-0.000293118
-0.000329542
-0.000278722
-0.000278722
-0.0940422
0.0940422
0.120536
0.0963558
0.0711223
0.052519
0.039534
0.0304535
0.0239932
0.0192993
0.0158196
0.0131931
0.0111761
0.00959913
0.00834214
0.00731826
0.00646512
0.00574134
0.00512278
0.0045951
0.00414569
0.0037603
0.00342518
0.00312979
0.0028661
0.00262562
0.00239903
0.00218008
0.00197007
0.00177711
0.00160883
0.00146352
0.00132709
0.00117927
0.00100525
0.000804705
0.000592353
0.000389672
0.000213583
6.90586e-05
-5.05101e-05
-0.000156689
-0.000258081
-0.000355874
-0.000444675
-0.000517131
-0.000569085
-0.000602399
-0.000624364
-0.000644595
-0.000671328
-0.00070886
-0.000756893
-0.000811552
-0.000867268
-0.000918671
-0.000961912
-0.000995205
-0.00101868
-0.00103382
-0.00104274
-0.0010476
-0.00105017
-0.00105172
-0.00105298
-0.00105428
-0.0010557
-0.00105718
-0.00105861
-0.00105993
-0.00106107
-0.00106202
-0.0010628
-0.00106342
-0.00106393
-0.00106435
-0.0010647
-0.00106501
-0.00106528
-0.00106554
-0.00106577
-0.001066
-0.0010662
-0.00106639
-0.00106657
-0.00106672
-0.00106685
-0.00106696
-0.00106705
-0.00106712
-0.00106716
-0.00106718
-0.00106717
-0.00106713
-0.00106707
-0.00106698
-0.00106686
-0.00106672
-0.00106654
-0.00106633
-0.0010661
-0.00106583
-0.00106553
-0.0010652
-0.00106484
-0.00106444
-0.00106401
-0.00106355
-0.00106305
-0.00106252
-0.00106196
-0.00106136
-0.00106072
-0.00106005
-0.00105934
-0.00105859
-0.00105781
-0.00105699
-0.00105614
-0.00105524
-0.00105431
-0.00105334
-0.00105232
-0.00105128
-0.00105019
-0.00104906
-0.00104789
-0.00104668
-0.00104544
-0.00104415
-0.00104282
-0.00104146
-0.00104005
-0.0010386
-0.00103711
-0.00103558
-0.00103401
-0.0010324
-0.00103075
-0.00102906
-0.00102733
-0.00102556
-0.00102374
-0.00102189
-0.00102
-0.00101807
-0.00101609
-0.00101408
-0.00101203
-0.00100994
-0.00100781
-0.00100564
-0.00100343
-0.00100118
-0.0009989
-0.000996577
-0.000994217
-0.00099182
-0.000989385
-0.000986914
-0.000984406
-0.000981863
-0.000979284
-0.00097667
-0.000974021
-0.000971337
-0.00096862
-0.00096587
-0.000963086
-0.00096027
-0.000957421
-0.000954542
-0.000951631
-0.00094869
-0.000945718
-0.000942718
-0.000939688
-0.00093663
-0.000933544
-0.000930431
-0.000927292
-0.000924126
-0.000920935
-0.00091772
-0.00091448
-0.000911217
-0.000907931
-0.000904622
-0.000901292
-0.000897941
-0.00089457
-0.00089118
-0.00088777
-0.000884342
-0.000880897
-0.000877434
-0.000873956
-0.000870462
-0.000866953
-0.000863431
-0.000859895
-0.000856346
-0.000852785
-0.000849213
-0.000845631
-0.000842038
-0.000838437
-0.000834827
-0.000831209
-0.000827585
-0.000823954
-0.000820317
-0.000816676
-0.000813031
-0.000809382
-0.00080573
-0.000802076
-0.000798421
-0.000794765
-0.000791109
-0.000787454
-0.0007838
-0.000780148
-0.000776499
-0.000772853
-0.000769212
-0.000765574
-0.000761942
-0.000758317
-0.000754697
-0.000751085
-0.00074748
-0.000743884
-0.000740297
-0.00073672
-0.000733152
-0.000729596
-0.000726051
-0.000722517
-0.000718997
-0.000715489
-0.000711994
-0.000708514
-0.000705048
-0.000701598
-0.000698163
-0.000694744
-0.000691341
-0.000687956
-0.000684588
-0.000681238
-0.000677906
-0.000674594
-0.0006713
-0.000668026
-0.000664772
-0.000661539
-0.000658326
-0.000655135
-0.000651965
-0.000648817
-0.000645691
-0.000642588
-0.000639507
-0.00063645
-0.000633416
-0.000630406
-0.00062742
-0.000624458
-0.000621521
-0.000618609
-0.000615721
-0.000612859
-0.000610022
-0.000607211
-0.000604426
-0.000601667
-0.000598934
-0.000596227
-0.000593547
-0.000590893
-0.000588267
-0.000585667
-0.000583094
-0.000580549
-0.00057803
-0.000575539
-0.000573075
-0.000570639
-0.000568231
-0.00056585
-0.000563496
-0.00056117
-0.000558872
-0.000556602
-0.000554359
-0.000552144
-0.000549957
-0.000547797
-0.000545665
-0.000543561
-0.000541484
-0.000539435
-0.000537414
-0.00053542
-0.000533453
-0.000531514
-0.000529602
-0.000527717
-0.000525859
-0.000524029
-0.000522225
-0.000520448
-0.000518698
-0.000516974