# vtk DataFile Version 2.0
FlowField
ASCII
DATASET STRUCTURED_GRID
DIMENSIONS 400 1 50
POINTS 20000 float
0 0 0
0.08 0 0
0.16 0 0
0.24 0 0
0.32 0 0
0.4 0 0
0.48 0 0
0.56 0 0
0.64 0 0
0.72 0 0
0.8 0 0
0.88 0 0
0.96 0 0
1.04 0 0
1.12 0 0
1.2 0 0
1.28 0 0
1.36 0 0
1.44 0 0
1.52 0 0
1.6 0 0
1.68 0 0
1.76 0 0
1.84 0 0
1.92 0 0
2 0 0
2.08 0 0
2.16 0 0
2.24 0 0
2.32 0 0
2.4 0 0
2.48 0 0
2.56 0 0
2.64 0 0
2.72 0 0
2.8 0 0
2.88 0 0
2.96 0 0
3.04 0 0
3.12 0 0
3.2 0 0
3.28 0 0
3.36 0 0
3.44 0 0
3.52 0 0
3.6 0 0
3.68 0 0
3.76 0 0
3.84 0 0
3.92 0 0
4 0 0
4.08 0 0
4.16 0 0
4.24 0 0
4.32 0 0
4.4 0 0
4.48 0 0
4.56 0 0
4.64 0 0
4.72 0 0
4.8 0 0
4.88 0 0
4.96 0 0
5.04 0 0
5.12 0 0
5.2 0 0
5.28 0 0
5.36 0 0
5.44 0 0
5.52 0 0
5.6 0 0
5.68 0 0
5.76 0 0
5.84 0 0
5.92 0 0
6 0 0
6.08 0 0
6.16 0 0
6.24 0 0
6.32 0 0
6.4 0 0
6.48 0 0
6.56 0 0
6.64 0 0
6.72 0 0
6.8 0 0
6.88 0 0
6.96 0 0
7.04 0 0
7.12 0 0
7.2 0 0
7.28 0 0
7.36 0 0
7.44 0 0
7.52 0 0
7.6 0 0
7.68 0 0
7.76 0 0
7.84 0 0
7.92 0 0
8 0 0
8.08 0 0
8.16 0 0
8.24 0 0
8.32 0 0
8.4 0 0
8.48 0 0
8.56 0 0
8.64 0 0
8.72 0 0
8.8 0 0
8.88 0 0
8.96 0 0
9.04 0 0
9.12 0 0
9.2 0 0
9.28 0 0
9.36 0 0
9.44 0 0
9.52 0 0
9.6 0 0
9.68 0 0
9.76 0 0
9.84 0 0
9.92 0 0
10 0 0
10.08 0 0
10.16 0 0
10.24 0 0
10.32 0 0
10.4 0 0
10.48 0 0
10.56 0 0
10.64 0 0
10.72 0 0
10.8 0 0
10.88 0 0
10.96 0 0
11.04 0 0
11.12 0 0
11.2 0 0
11.28 0 0
11.36 0 0
11.44 0 0
11.52 0 0
11.6 0 0
11.68 0 0
11.76 0 0
11.84 0 0
11.92 0 0
12 0 0
12.08 0 0
12.16 0 0
12.24 0 0
12.32 0 0
12.4 0 0
12.48 0 0
12.56 0 0
12.64 0 0
12.72 0 0
12.8 0 0
12.88 0 0
12.96 0 0
13.04 0 0
13.12 0 0
13.2 0 0
13.28 0 0
13.36 0 0
13.44 0 0
13.52 0 0
13.6 0 0
13.68 0 0
13.76 0 0
13.84 0 0
13.92 0 0
14 0 0
14.08 0 0
14.16 0 0
14.24 0 0
14.32 0 0
14.4 0 0
14.48 0 0
14.56 0 0
14.64 0 0
14.72 0 0
14.8 0 0
14.88 0 0
14.96 0 0
15.04 0 0
15.12 0 0
15.2 0 0
15.28 0 0
15.36 0 0
15.44 0 0
15.52 0 0
15.6 0 0
15.68 0 0
15.76 0 0
15.84 0 0
15.92 0 0
16 0 0
16.08 0 0
16.16 0 0
16.24 0 0
16.32 0 0
16.4 0 0
16.48 0 0
16.56 0 0
16.64 0 0
16.72 0 0
16.8 0 0
16.88 0 0
16.96 0 0
17.04 0 0
17.12 0 0
17.2 0 0
17.28 0 0
17.36 0 0
17.44 0 0
17.52 0 0
17.6 0 0
17.68 0 0
17.76 0 0
17.84 0 0
17.92 0 0
18 0 0
18.08 0 0
18.16 0 0
18.24 0 0
18.32 0 0
18.4 0 0
18.48 0 0
18.56 0 0
18.64 0 0
18.72 0 0
18.8 0 0
18.88 0 0
18.96 0 0
19.04 0 0
19.12 0 0
19.2 0 0
19.28 0 0
19.36 0 0
19.44 0 0
19.52 0 0
19.6 0 0
19.68 0 0
19.76 0 0
19.84 0 0
19.92 0 0
20 0 0
20.08 0 0
20.16 0 0
20.24 0 0
20.32 0 0
20.4 0 0
20.48 0 0
20.56 0 0
20.64 0 0
20.72 0 0
20.8 0 0
20.88 0 0
20.96 0 0
21.04 0 0
21.12 0 0
21.2 0 0
21.28 0 0
21.36 0 0
21.44 0 0
21.52 0 0
21.6 0 0
21.68 0 0
21.76 0 0
21.84 0 0
21.92 0 0
22 0 0
22.08 0 0
22.16 0 0
22.24 0 0
22.32 0 0
22.4 0 0
22.48 0 0
22.56 0 0
22.64 0 0
22.72 0 0
22.8 0 0
22.88 0 0
22.96 0 0
23.04 0 0
23.12 0 0
23.2 0 0
23.28 0 0
23.36 0 0
23.44 0 0
23.52 0 0
23.6 0 0
23.68 0 0
23.76 0 0
23.84 0 0
23.92 0 0
24 0 0
24.08 0 0
24.16 0 0
24.24 0 0
24.32 0 0
24.4 0 0
24.48 0 0
24.56 0 0
24.64 0 0
24.72 0 0
24.8 0 0
24.88 0 0
24.96 0 0
25.04 0 0
25.12 0 0
25.2 0 0
25.28 0 0
25.36 0 0
25.44 0 0
25.52 0 0
25.6 0 0
25.68 0 0
25.76 0 0
25.84 0 0
25.92 0 0
26 0 0
26.08 0 0
26.16 0 0
26.24 0 0
26.32 0 0
26.4 0 0
26.48 0 0
26.56 0 0
26.64 0 0
26.72 0 0
26.8 0 0
26.88 0 0
26.96 0 0
27.04 0 0
27.12 0 0
27.2 0 0
27.28 0 0
27.36 0 0
27.44 0 0
27.52 0 0
27.6 0 0
27.68 0 0
27.76 0 0
27.84 0 0
27.92 0 0
28 0 0
28.08 0 0
28.16 0 0
28.24 0 0
28.32 0 0
28.4 0 0
28.48 0 0
28.56 0 0
28.64 0 0
28.72 0 0
28.8 0 0
28.88 0 0
28.96 0 0
29.04 0 0
29.12 0 0
29.2 0 0
29.28 0 0
29.36 0 0
29.44 0 0
29.52 0 0
29.6 0 0
29.68 0 0
29.76 0 0
29.84 0 0
29.92 0 0
30 0 0
30.08 0 0
30.16 0 0
30.24 0 0
30.32 0 0
30.4 0 0
30.48 0 0
30.56 0 0
30.64 0 0
30.72 0 0
30.8 0 0
30.88 0 0
30.96 0 0
31.04 0 0
31.12 0 0
31.2 0 0
31.28 0 0
31.36 0 0
31.44 0 0
31.52 0 0
31.6 0 0
31.68 0 0
31.76 0 0
31.84 0 0
31.92 0 0
0 0.02 0
0.08 0.02 0
0.16 0.02 0
0.24 0.02 0
0.32 0.02 0
0.4 0.02 0
0.48 0.02 0
0.56 0.02 0
0.64 0.02 0
0.72 0.02 0
0.8 0.02 0
0.88 0.02 0
0.96 0.02 0
1.04 0.02 0
1.12 0.02 0
1.2 0.02 0
1.28 0.02 0
1.36 0.02 0
1.44 0.02 0
1.52 0.02 0
1.6 0.02 0
1.68 0.02 0
1.76 0.02 0
1.84 0.02 0
1.92 0.02 0
2 0.02 0
2.08 0.02 0
2.16 0.02 0
2.24 0.02 0
2.32 0.02 0
2.4 0.02 0
2.48 0.02 0
2.56 0.02 0
2.64 0.02 0
2.72 0.02 0
2.8 0.02 0
2.88 0.02 0
2.96 0.02 0
3.04 0.02 0
3.12 0.02 0
3.2 0.02 0
3.28 0.02 0
3.36 0.02 0
3.44 0.02 0
3.52 0.02 0
3.6 0.02 0
3.68 0.02 0
3.76 0.02 0
3.84 0.02 0
3.92 0.02 0
4 0.02 0
4.08 0.02 0
4.16 0.02 0
4.24 0.02 0
4.32 0.02 0
4.4 0.02 0
4.48 0.02 0
4.56 0.02 0
4.64 0.02 0
4.72 0.02 0
4.8 0.02 0
4.88 0.02 0
4.96 0.02 0
5.04 0.02 0
5.12 0.02 0
5.2 0.02 0
5.28 0.02 0
5.36 0.02 0
5.44 0.02 0
5.52 0.02 0
5.6 0.02 0
5.68 0.02 0
5.76 0.02 0
5.84 0.02 0
5.92 0.02 0
6 0.02 0
6.08 0.02 0
6.16 0.02 0
6.24 0.02 0
6.32 0.02 0
6.4 0.02 0
6.48 0.02 0
6.56 0.02 0
6.64 0.02 0
6.72 0.02 0
6.8 0.02 0
6.88 0.02 0
6.96 0.02 0
7.04 0.02 0
7.12 0.02 0
7.2 0.02 0
7.28 0.02 0
7.36 0.02 0
7.44 0.02 0
7.52 0.02 0
7.6 0.02 0
7.68 0.02 0
7.76 0.02 0
7.84 0.02 0
7.92 0.02 0
8 0.02 0
8.08 0.02 0
8.16 0.02 0
8.24 0.02 0
8.32 0.02 0
8.4 0.02 0
8.48 0.02 0
8.56 0.02 0
8.64 0.02 0
8.72 0.02 0
8.8 0.02 0
8.88 0.02 0
8.96 0.02 0
9.04 0.02 0
9.12 0.02 0
9.2 0.02 0
9.28 0.02 0
9.36 0.02 0
9.44 0.02 0
9.52 0.02 0
9.6 0.02 0
9.68 0.02 0
9.76 0.02 0
9.84 0.02 0
9.92 0.02 0
10 0.02 0
10.08 0.02 0
10.16 0.02 0
10.24 0.02 0
10.32 0.02 0
10.4 0.02 0
10.48 0.02 0
10.56 0.02 0
10.64 0.02 0
10.72 0.02 0
10.8 0.02 0
10.88 0.02 0
10.96 0.02 0
11.04 0.02 0
11.12 0.02 0
11.2 0.02 0
11.28 0.02 0
11.36 0.02 0
11.44 0.02 0
11.52 0.02 0
11.6 0.02 0
11.68 0.02 0
11.76 0.02 0
11.84 0.02 0
11.92 0.02 0
12 0.02 0
12.08 0.02 0
12.16 0.02 0
12.24 0.02 0
12.32 0.02 0
12.4 0.02 0
12.48 0.02 0
12.56 0.02 0
12.64 0.02 0
12.72 0.02 0
12.8 0.02 0
12.88 0.02 0
12.96 0.02 0
13.04 0.02 0
13.12 0.02 0
13.2 0.02 0
13.28 0.02 0
13.36 0.02 0
13.44 0.02 0
13.52 0.02 0
13.6 0.02 0
13.68 0.02 0
13.76 0.02 0
13.84 0.02 0
13.92 0.02 0
14 0.02 0
14.08 0.02 0
14.16 0.02 0
14.24 0.02 0
14.32 0.02 0
14.4 0.02 0
14.48 0.02 0
14.56 0.02 0
14.64 0.02 0
14.72 0.02 0
14.8 0.02 0
14.88 0.02 0
14.96 0.02 0
15.04 0.02 0
15.12 0.02 0
15.2 0.02 0
15.28 0.02 0
15.36 0.02 0
15.44 0.02 0
15.52 0.02 0
15.6 0.02 0
15.68 0.02 0
15.76 0.02 0
15.84 0.02 0
15.92 0.02 0
16 0.02 0
16.08 0.02 0
16.16 0.02 0
16.24 0.02 0
16.32 0.02 0
16.4 0.02 0
16.48 0.02 0
16.56 0.02 0
16.64 0.02 0
16.72 0.02 0
16.8 0.02 0
16.88 0.02 0
16.96 0.02 0
17.04 0.02 0
17.12 0.02 0
17.2 0.02 0
17.28 0.02 0
17.36 0.02 0
17.44 0.02 0
17.52 0.02 0
17.6 0.02 0
17.68 0.02 0
17.76 0.02 0
17.84 0.02 0
17.92 0.02 0
18 0.02 0
18.08 0.02 0
18.16 0.02 0
18.24 0.02 0
18.32 0.02 0
18.4 0.02 0
18.48 0.02 0
18.56 0.02 0
18.64 0.02 0
18.72 0.02 0
18.8 0.02 0
18.88 0.02 0
18.96 0.02 0
19.04 0.02 0
19.12 0.02 0
19.2 0.02 0
19.28 0.02 0
19.36 0.02 0
19.44 0.02 0
19.52 0.02 0
19.6 0.02 0
19.68 0.02 0
19.76 0.02 0
19.84 0.02 0
19.92 0.02 0
20 0.02 0
20.08 0.02 0
20.16 0.02 0
20.24 0.02 0
20.32 0.02 0
20.4 0.02 0
20.48 0.02 0
20.56 0.02 0
20.64 0.02 0
20.72 0.02 0
20.8 0.02 0
20.88 0.02 0
20.96 0.02 0
21.04 0.02 0
21.12 0.02 0
21.2 0.02 0
21.28 0.02 0
21.36 0.02 0
21.44 0.02 0
21.52 0.02 0
21.6 0.02 0
21.68 0.02 0
21.76 0.02 0
21.84 0.02 0
21.92 0.02 0
22 0.02 0
22.08 0.02 0
22.16 0.02 0
22.24 0.02 0
22.32 0.02 0
22.4 0.02 0
22.48 0.02 0
22.56 0.02 0
22.64 0.02 0
22.72 0.02 0
22.8 0.02 0
22.88 0.02 0
22.96 0.02 0
23.04 0.02 0
23.12 0.02 0
23.2 0.02 0
23.28 0.02 0
23.36 0.02 0
23.44 0.02 0
23.52 0.02 0
23.6 0.02 0
23.68 0.02 0
23.76 0.02 0
23.84 0.02 0
23.92 0.02 0
24 0.02 0
24.08 0.02 0
24.16 0.02 0
24.24 0.02 0
24.32 0.02 0
24.4 0.02 0
24.48 0.02 0
24.56 0.02 0
24.64 0.02 0
24.72 0.02 0
24.8 0.02 0
24.88 0.02 0
24.96 0.02 0
25.04 0.02 0
25.12 0.02 0
25.2 0.02 0
25.28 0.02 0
25.36 0.02 0
25.44 0.02 0
25.52 0.02 0
25.6 0.02 0
25.68 0.02 0
25.76 0.02 0
25.84 0.02 0
25.92 0.02 0
26 0.02 0
26.08 0.02 0
26.16 0.02 0
26.24 0.02 0
26.32 0.02 0
26.4 0.02 0
26.48 0.02 0
26.56 0.02 0
26.64 0.02 0
26.72 0.02 0
26.8 0.02 0
26.88 0.02 0
26.96 0.02 0
27.04 0.02 0
27.12 0.02 0
27.2 0.02 0
27.28 0.02 0
27.36 0.02 0
27.44 0.02 0
27.52 0.02 0
27.6 0.02 0
27.68 0.02 0
27.76 0.02 0
27.84 0.02 0
27.92 0.02 0
28 0.02 0
28.08 0.02 0
28.16 0.02 0
28.24 0.02 0
28.32 0.02 0
28.4 0.02 0
28.48 0.02 0
28.56 0.02 0
28.64 0.02 0
28.72 0.02 0
28.8 0.02 0
28.88 0.02 0
28.96 0.02 0
29.04 0.02 0
29.12 0.02 0
29.2 0.02 0
29.28 0.02 0
29.36 0.02 0
29.44 0.02 0
29.52 0.02 0
29.6 0.02 0
29.68 0.02 0
29.76 0.02 0
29.84 0.02 0
29.92 0.02 0
30 0.02 0
30.08 0.02 0
30.16 0.02 0
30.24 0.02 0
30.32 0.02 0
30.4 0.02 0
30.48 0.02 0
30.56 0.02 0
30.64 0.02 0
30.72 0.02 0
30.8 0.02 0
30.88 0.02 0
30.96 0.02 0
31.04 0.02 0
31.12 0.02 0
31.2 0.02 0
31.28 0.02 0
31.36 0.02 0
31.44 0.02 0
31.52 0.02 0
31.6 0.02 0
31.68 0.02 0
31.76 0.02 0
31.84 0.02 0
31.92 0.02 0
0 0.04 0
0.08 0.04 0
0.16 0.04 0
0.24 0.04 0
0.32 0.04 0
0.4 0.04 0
0.48 0.04 0
0.56 0.04 0
0.64 0.04 0
0.72 0.04 0
0.8 0.04 0
0.88 0.04 0
0.96 0.04 0
1.04 0.04 0
1.12 0.04 0
1.2 0.04 0
1.28 0.04 0
1.36 0.04 0
1.44 0.04 0
1.52 0.04 0
1.6 0.04 0
1.68 0.04 0
1.76 0.04 0
1.84 0.04 0
1.92 0.04 0
2 0.04 0
2.08 0.04 0
2.16 0.04 0
2.24 0.04 0
2.32 0.04 0
2.4 0.04 0
2.48 0.04 0
2.56 0.04 0
2.64 0.04 0
2.72 0.04 0
2.8 0.04 0
2.88 0.04 0
2.96 0.04 0
3.04 0.04 0
3.12 0.04 0
3.2 0.04 0
3.28 0.04 0
3.36 0.04 0
3.44 0.04 0
3.52 0.04 0
3.6 0.04 0
3.68 0.04 0
3.76 0.04 0
3.84 0.04 0
3.92 0.04 0
4 0.04 0
4.08 0.04 0
4.16 0.04 0
4.24 0.04 0
4.32 0.04 0
4.4 0.04 0
4.48 0.04 0
4.56 0.04 0
4.64 0.04 0
4.72 0.04 0
4.8 0.04 0
4.88 0.04 0
4.96 0.04 0
5.04 0.04 0
5.12 0.04 0
5.2 0.04 0
5.28 0.04 0
5.36 0.04 0
5.44 0.04 0
5.52 0.04 0
5.6 0.04 0
5.68 0.04 0
5.76 0.04 0
5.84 0.04 0
5.92 0.04 0
6 0.04 0
6.08 0.04 0
6.16 0.04 0
6.24 0.04 0
6.32 0.04 0
6.4 0.04 0
6.48 0.04 0
6.56 0.04 0
6.64 0.04 0
6.72 0.04 0
6.8 0.04 0
6.88 0.04 0
6.96 0.04 0
7.04 0.04 0
7.12 0.04 0
7.2 0.04 0
7.28 0.04 0
7.36 0.04 0
7.44 0.04 0
7.52 0.04 0
7.6 0.04 0
7.68 0.04 0
7.76 0.04 0
7.84 0.04 0
[...]
POINT_DATA 20000

SCALARS v float 1
LOOKUP_TABLE default
0
0
0
0
0
0
0
0
0
0
0
0
0
0
0
0
0
0
0
0
0
0
0
0
0
0
0
0
0
0
0
0
0
0
0
0
0
0
0
0
0
0
0
0
0
0
0
0
0
0
0
0
0
0
0
0
0
0
0
0
0
0
0
0
0
0
0
0
0
0
0
0
0
0
0
0
0
0
0
0
0
0
0
0
0
0
0
0
0
0
0
0
0
0
0
0
0
0
0
0
0
0
0
0
0
0
0
0
0
0
0
0
0
0
0
0
0
0
0
0
0
0
0
0
0
0
0
0
0
0
0
0
0
0
0
0
0
0
0
0
0
0
0
0
0
0
0
0
0
0
0
0
0
0
0
0
0
0
0
0
0
0
0
0
0
0
0
0
0
0
0
0
0
0
0
0
0
0
0
0
0
0
0
0
0
0
0
0
0
0
0
0
0
0
0
0
0
0
0
0
0
0
0
0
0
0
0
0
0
0
0
0
0
0
0
0
0
0
0
0
0
0
0
0
0
0
0
0
0
0
0
0
0
0
0
0
0
0
0
0
0
0
0
0
0
0
0
0
0
0
0
0
0
0
0
0
0
0
0
0
0
0
0
0
0
0
0
0
0
0
0
0
0
0
0
0
0
0
0
0
0
0
0
0
0
0
0
0
0
0
0
0
0
0
0
0
0
0
0
0
0
0
0
0
0
0
0
0
0
0
0
0
0
0
0
0
0
0
0
0
0
0
0
0
0
0
0
0
0
0
0
0
0
0
0
0
0
0
0
0
0
0
0
0
0
0
0
0
0
0
0
0
0
0
0
0
0
0
0
0
0
0
0
0
0
0
0
0
0
0
0
0
0
0
0
0
0
0
0
0
0
0
0
0
0
0
0
0
0
0
0
0
0
0
0
0
0
0
0
0
-0.123145
0.123145
0.0537023
0.0193459
0.00868835
0.00499346
0.00328931
0.00233615
0.00174378
0.00135075
0.00107758
0.000880613
0.000734018
0.000621735
0.000533421
0.000462199
0.000403348
0.000353637
0.000311066
0.00027457
0.000243501
0.000217059
0.000194124
0.000173553
0.000154598
0.000136985
0.000120667
0.000105611
9.18447e-05
7.96008e-05
6.91928e-05
6.05789e-05
5.30173e-05
4.52708e-05
3.63612e-05
2.63222e-05
1.62931e-05
7.7651e-06
1.47385e-06
-3.25463e-06
-8.20655e-06
-1.52152e-05
-2.5036e-05
-3.68803e-05
-4.8863e-05
-5.90421e-05
-6.63991e-05
-7.12192e-05
-7.47426e-05
-7.83824e-05
-8.29856e-05
-8.85059e-05
-9.41735e-05
-9.89892e-05
-0.000102243
-0.000103816
-0.000104165
-0.000104079
-0.000104346
-0.000105497
-0.000107691
-0.000110746
-0.000114273
-0.000117829
-0.00012104
-0.000123682
-0.000125681
-0.00012709
-0.000128037
-0.000128668
-0.000129117
-0.000129484
-0.00012983
-0.000130185
-0.000130554
-0.000130935
-0.000131319
-0.000131699
-0.000132071
-0.000132434
-0.000132789
-0.000133138
-0.000133485
-0.000133832
-0.000134183
-0.00013454
-0.000134903
-0.000135273
-0.000135652
-0.000136038
-0.000136433
-0.000136836
-0.000137248
-0.000137668
-0.000138096
-0.000138532
-0.000138977
-0.00013943
-0.000139892
-0.000140363
-0.000140842
-0.000141331
-0.000141828
-0.000142335
-0.00014285
-0.000143376
-0.000143911
-0.000144455
-0.00014501
-0.000145574
-0.000146149
-0.000146733
-0.000147328
-0.000147934
-0.00014855
-0.000149176
-0.000149814
-0.000150463
-0.000151122
-0.000151793
-0.000152476
-0.000153169
-0.000153875
-0.000154592
-0.000155321
-0.000156063
-0.000156816
-0.000157582
-0.00015836
-0.000159151
-0.000159954
-0.00016077
-0.0001616
-0.000162442
-0.000163297
-0.000164166
-0.000165049
-0.000165945
-0.000166855
-0.000167779
-0.000168716
-0.000169668
-0.000170634
-0.000171615
-0.00017261
-0.00017362
-0.000174644
-0.000175684
-0.000176738
-0.000177808
-0.000178893
-0.000179993
-0.000181108
-0.000182239
-0.000183386
-0.000184549
-0.000185728
-0.000186922
-0.000188133
-0.00018936
-0.000190603
-0.000191863
-0.00019314
-0.000194432
-0.000195742
-0.000197068
-0.000198412
-0.000199772
-0.000201149
-0.000202544
-0.000203955
-0.000205384
-0.00020683
-0.000208294
-0.000209775
-0.000211274
-0.00021279
-0.000214324
-0.000215875
-0.000217444
-0.000219032
-0.000220636
-0.000222259
-0.0002239
-0.000225558
-0.000227235
-0.00022893
-0.000230642
-0.000232373
-0.000234121
-0.000235888
-0.000237672
-0.000239475
-0.000241295
-0.000243134
-0.000244991
-0.000246865
-0.000248758
-0.000250668
-0.000252597
-0.000254543
-0.000256507
-0.000258489
-0.000260488
-0.000262506
-0.00026454
-0.000266593
-0.000268662
-0.00027075
-0.000272854
-0.000274976
-0.000277115
-0.000279271
-0.000281444
-0.000283633
-0.00028584
-0.000288063
-0.000290302
-0.000292558
-0.000294831
-0.000297119
-0.000299423
-0.000301743
-0.000304079
-0.000306431
-0.000308797
-0.000311179
-0.000313576
-0.000315988
-0.000318415
-0.000320856
-0.000323311
-0.000325781
-0.000328265
-0.000330762
-0.000333273
-0.000335797
-0.000338334
-0.000340884
-0.000343447
-0.000346022
-0.00034861
-0.000351209
-0.00035382
-0.000356443
-0.000359076
-0.000361721
-0.000364377
-0.000367043
-0.000369719
-0.000372405
-0.0003751
-0.000377805
-0.000380519
-0.000383242
-0.000385973
-0.000388713
-0.00039146
-0.000394215
-0.000396977
-0.000399746
-0.000402522
-0.000405305
-0.000408093
-0.000410887
-0.000413686
-0.000416491
-0.0004193
-0.000422113
-0.000424931
-0.000427753
-0.000430578
-0.000433405
-0.000436236
-0.000439069
-0.000441904
-0.000444741
-0.000447579
-0.000450418
-0.000453258
-0.000456098
-0.000458938
-0.000461777
-0.000464616
-0.000467453
-0.000470289
-0.000473124
-0.000475956
-0.000478785
-0.000481611
-0.000484434
-0.000487254
-0.000490069
-0.00049288
-0.000495686
-0.000498487
-0.000501283
-0.000504072
-0.000506856
-0.000509632
-0.000512402
-0.000515165
-0.000517919
-0.000520666
-0.000523405
-0.000526134
-0.000528854
-0.000531565
-0.000534266
-0.000536957
-0.000539637
-0.000542307
-0.000544965
-0.000547611
-0.000550246
-0.000552868
-0.000555477
-0.000558074
-0.000560657
-0.000563226
-0.000565781
-0.000568322
-0.000570848
-0.000573359
-0.000575854
-0.000578334
-0.000580798
-0.000583245
-0.000585676
-0.000588089
-0.000590485
-0.000592864
-0.000595224
-0.000597566
-0.000599889
-0.000602194
-0.000604479
-0.000606744
-0.000608989
-0.000611215
-0.000613419
-0.000615603
-0.000617766
-0.000619907
-0.000622027
-0.000624125
-0.0006262
-0.000628253
-0.000630283
-0.00063229
-0.000634273
-0.000636233
-0.000638168
-0.00064008
-0.000641967
-0.000643829
-0.000645666
-0.000647478
-0.000649264
-0.000651024
-0.000652759
-0.000654467
-0.000656148
-0.000657803
-0.00065943
-0.000661031
-0.000662603
-0.000664149
-0.000665664
-0.000667157
-0.000668612
-0.000670052
-0.000671442
-0.000672837
-0.000674149
-0.000675513
-0.000676729
-0.000678083
-0.000679177
-0.000680547
-0.000681491
-0.000682908
-0.00068366
-0.000685195
-0.000685631
-0.000687498
-0.000687291
-0.000689953
-0.000688568
-0.000692577
-0.00068971
-0.000695085
-0.000691339
-0.000697372
-0.000693703
-0.000702019
-0.000693684
-0.000752769
-0.000655704
-0.000655704
-0.142076
0.142076
0.100906
0.0538075
0.0301477
0.0188054
0.0128067
0.00928171
0.00703921
0.00553004
0.00447113
0.00370256
0.00312778
0.00268589
0.00233744
0.00205619
0.00182427
0.00162955
0.00146413
0.00132311
0.00120281
0.0010994
0.00100875
0.000927281
0.000852862
0.000784658
0.000722328
0.000665525
0.000614103
0.000568407
0.000528771
0.000494383
0.000462684
0.000430293
0.000395102
0.000357915
0.00032208
0.000291087
0.000265766
0.000243192
0.000218187
0.00018647
0.000147378
0.000104418
6.34042e-05
2.94058e-05
4.35375e-06
-1.34494e-05
-2.7896e-05
-4.27669e-05
-5.98848e-05
-7.85771e-05
-9.6473e-05
-0.000110995
-0.000120699
-0.000125869
-0.000128246
-0.000130199
-0.000133799
-0.000140193
-0.000149421
-0.000160638
-0.000172544
-0.000183837
-0.000193543
-0.000201162
-0.000206653
-0.000210306
-0.00021258
-0.000213952
-0.000214825
-0.000215479
-0.000216081
-0.000216699
-0.000217345
-0.000218001
-0.000218642
-0.000219248
-0.00021981
-0.000220326
-0.000220804
-0.000221252
-0.000221681
-0.0002221
-0.000222517
-0.000222937
-0.000223365
-0.000223801
-0.000224247
-0.000224704
-0.000225172
-0.000225649
-0.000226137
-0.000226635
-0.000227142
-0.000227658
-0.000228184
-0.00022872
-0.000229265
-0.00022982
-0.000230385
-0.00023096
-0.000231544
-0.000232139
-0.000232745
-0.000233361
-0.000233987
-0.000234625
-0.000235273
-0.000235932
-0.000236603
-0.000237285
-0.000237978
-0.000238683
-0.0002394
-0.000240128
-0.000240869
-0.000241622
-0.000242387
-0.000243165
-0.000243955
-0.000244758
-0.000245574
-0.000246403
-0.000247245
-0.000248101
-0.00024897
-0.000249853
-0.000250749
-0.00025166
-0.000252584
-0.000253523
-0.000254476
-0.000255443
-0.000256425
-0.000257422
-0.000258434
-0.000259461
-0.000260503
-0.00026156
-0.000262633
-0.000263722
-0.000264826
-0.000265946
-0.000267082
-0.000268235
-0.000269403
-0.000270589
-0.00027179
-0.000273009
-0.000274244
-0.000275496
-0.000276765
-0.000278052
-0.000279356
-0.000280677
-0.000282016
-0.000283372
-0.000284747
-0.000286139
-0.000287549
-0.000288978
-0.000290425
-0.00029189
-0.000293373
-0.000294875
-0.000296396
-0.000297935
-0.000299494
-0.000301071
-0.000302667
-0.000304282
-0.000305917
-0.000307571
-0.000309244
-0.000310936
-0.000312648
-0.00031438
-0.000316131
-0.000317901
-0.000319692
-0.000321502
-0.000323332
-0.000325182
-0.000327051
-0.000328941
-0.00033085
-0.00033278
-0.000334729
-0.000336699
-0.000338688
-0.000340698
-0.000342727
-0.000344777
-0.000346846
-0.000348936
-0.000351045
-0.000353175
-0.000355324
-0.000357493
-0.000359683
-0.000361892
-0.000364121
-0.000366369
-0.000368638
-0.000370926
-0.000373233
-0.00037556
-0.000377907
-0.000380273
-0.000382658
-0.000385062
-0.000387485
-0.000389928
-0.000392389
-0.000394869
-0.000397368
-0.000399885
-0.00040242
-0.000404974
-0.000407546
-0.000410136
-0.000412744
-0.000415369
-0.000418012
-0.000420672
-0.000423349
-0.000426044
-0.000428755
-0.000431482
-0.000434226
-0.000436987
-0.000439763
-0.000442555
-0.000445363
-0.000448186
-0.000451024
-0.000453877
-0.000456745
-0.000459627
-0.000462523
-0.000465433
-0.000468357
-0.000471294
-0.000474244
-0.000477207
-0.000480182
-0.00048317
-0.00048617
-0.000489181
-0.000492204
-0.000495238
-0.000498283
-0.000501338
-0.000504403
-0.000507478
-0.000510563
-0.000513656
-0.000516759
-0.000519869
-0.000522988
-0.000526115
-0.00052925
-0.000532391
-0.000535539
-0.000538693
-0.000541854
-0.000545019
-0.000548191
-0.000551367
-0.000554547
-0.000557732
-0.00056092
-0.000564112
-0.000567306
-0.000570504
-0.000573703
-0.000576904
-0.000580106
-0.00058331
-0.000586513
-0.000589717
-0.000592921
-0.000596124
-0.000599326
-0.000602526
-0.000605725
-0.000608921
-0.000612114
-0.000615304
-0.00061849
-0.000621673
-0.00062485
-0.000628023
-0.000631191
-0.000634353
-0.000637509
-0.000640658
-0.0006438
-0.000646935
-0.000650061
-0.00065318
-0.00065629
-0.00065939
-0.000662481
-0.000665562
-0.000668632
-0.000671692
-0.00067474
-0.000677776
-0.000680801
-0.000683813
-0.000686811
-0.000689797
-0.000692768
-0.000695725
-0.000698668
-0.000701595
-0.000704507
-0.000707403
-0.000710283
-0.000713146
-0.000715991
-0.000718819
-0.00072163
-0.000724421
-0.000727194
-0.000729948
-0.000732682
-0.000735397
-0.00073809
-0.000740763
-0.000743415
-0.000746046
-0.000748654
-0.00075124
-0.000753804
-0.000756344
-0.000758861
-0.000761354
-0.000763823
-0.000766267
-0.000768687
-0.000771081
-0.00077345
-0.000775792
-0.000778108
-0.000780398
-0.00078266
-0.000784895
-0.000787103
-0.000789282
-0.000791433
-0.000793555
-0.000795648
-0.000797712
-0.000799746
-0.00080175
-0.000803724
-0.000805667
-0.000807579
-0.00080946
-0.000811309
-0.000813127
-0.000814912
-0.000816667
-0.000818385
-0.000820077
-0.000821725
-0.000823357
-0.000824928
-0.00082651
-0.000827987
-0.00082954
-0.00083089
-0.000832459
-0.000833622
-0.000835279
-0.000836173
-0.000838003
-0.000838544
-0.000840642
-0.000840704
-0.000843288
-0.000842487
-0.000846233
-0.00084354
-0.000849917
-0.00084363
-0.000854393
-0.000843526
-0.000858711
-0.000845184
-0.000862599
-0.000849466
-0.000874149
-0.000848303
-0.00099885
-0.000785297
-0.000785297
-0.122159
0.122159
0.121563
0.0821559
0.0538803
0.036745
0.0262604
0.0195626
0.0150913
0.0119921
0.00977537
0.00814546
0.00691536
0.00596327
0.00520861
0.00459734
0.0040926
0.00366932
0.00331086
0.00300592
0.00274533
0.00252
0.00232117
0.00214213
0.00197919
0.00183091
0.00169643
0.00157473
0.00146509
0.0013675
0.00128169
0.00120539
0.0011337
0.001061
0.000984415
0.00090598
0.000831357
0.000765498
0.000708329
0.000653735
0.000592841
0.000519492
0.000434323
0.000344855
0.000261647
0.000192987
0.000141205
0.000102473
6.97243e-05
3.66959e-05
8.18787e-07
-3.62791e-05
-7.04635e-05
-9.77328e-05
-0.000116353
-0.000127584
-0.000134941
-0.000142627
-0.00015396
-0.000170425
-0.000191546
-0.00021541
-0.000239507
-0.000261522
-0.00027987
-0.000293885
-0.00030372
-0.000310082
-0.000313915
-0.000316145
-0.000317513
-0.000318524
-0.000319455
-0.000320415
-0.000321412
-0.000322406
-0.000323352
-0.000324214
-0.000324979
-0.000325648
-0.000326236
-0.000326763
-0.000327247
-0.000327709
-0.00032816
-0.000328613
-0.000329071
-0.000329541
-0.000330022
-0.000330516
-0.000331023
-0.000331541
-0.00033207
-0.000332611
-0.000333161
-0.000333721
-0.000334292
-0.000334872
-0.000335461
-0.000336061
-0.000336671
-0.000337291
-0.000337921
-0.000338562
-0.000339213
-0.000339875
-0.000340548
-0.000341232
-0.000341927
-0.000342633
-0.000343351
-0.00034408
-0.000344822
-0.000345575
-0.00034634
-0.000347117
-0.000347907
-0.000348709
-0.000349523
-0.000350351
-0.000351191
-0.000352044
-0.000352911
-0.00035379
-0.000354684
-0.00035559
-0.000356511
-0.000357445
-0.000358394
-0.000359356
-0.000360333
-0.000361325
-0.000362331
-0.000363352
-0.000364387
-0.000365438
-0.000366504
-0.000367585
-0.000368682
-0.000369794
-0.000370922
-0.000372066
-0.000373226
-0.000374402
-0.000375594
-0.000376803
-0.000378028
-0.00037927
-0.000380529
-0.000381804
-0.000383097
-0.000384407
-0.000385734
-0.000387079
-0.000388442
-0.000389822
-0.000391219
-0.000392635
-0.000394069
-0.000395521
-0.000396991
-0.000398479
-0.000399986
-0.000401512
-0.000403056
-0.000404619
-0.000406201
-0.000407802
-0.000409422
-0.000411061
-0.000412719
-0.000414397
-0.000416094
-0.00041781
-0.000419546
-0.000421301
-0.000423076
-0.000424871
-0.000426686
-0.00042852
-0.000430375
-0.000432249
-0.000434143
-0.000436058
-0.000437992
-0.000439946
-0.000441921
-0.000443915
-0.00044593
-0.000447965
-0.00045002
-0.000452096
-0.000454191
-0.000456307
-0.000458442
-0.000460598
-0.000462774
-0.000464971
-0.000467187
-0.000469423
-0.00047168
-0.000473956
-0.000476252
-0.000478568
-0.000480904
-0.00048326
-0.000485635
-0.00048803
-0.000490445
-0.000492879
-0.000495332
-0.000497804
-0.000500296
-0.000502807
-0.000505337
-0.000507885
-0.000510453
-0.000513039
-0.000515643
-0.000518265
-0.000520906
-0.000523565
-0.000526242
-0.000528936
-0.000531648
-0.000534377
-0.000537124
-0.000539887
-0.000542667
-0.000545464
-0.000548277
-0.000551107
-0.000553952
-0.000556813
-0.00055969
-0.000562582
-0.000565489
-0.000568411
-0.000571348
-0.000574299
-0.000577264
-0.000580243
-0.000583235
-0.000586241
-0.00058926
-0.000592291
-0.000595335
-0.000598391
-0.000601459
-0.000604539
-0.00060763
-0.000610731
-0.000613844
-0.000616966
-0.000620099
-0.000623241
-0.000626393
-0.000629553
-0.000632723
-0.0006359
-0.000639086
-0.000642279
-0.000645479
-0.000648686
-0.000651899
-0.000655119
-0.000658345
-0.000661575
-0.000664811
-0.000668051
-0.000671296
-0.000674544
-0.000677796
-0.000681051
-0.000684308
-0.000687568
-0.00069083
-0.000694092
-0.000697356
-0.000700621
-0.000703885
-0.00070715
-0.000710414
-0.000713676
-0.000716937
-0.000720196
-0.000723453
-0.000726707
-0.000729958
-0.000733205
-0.000736448
-0.000739687
-0.00074292
-0.000746149
-0.000749371
-0.000752587
-0.000755796
-0.000758999
-0.000762193
-0.00076538
-0.000768558
-0.000771728
-0.000774888
-0.000778038
-0.000781178
-0.000784307
-0.000787425
-0.000790532
-0.000793627
-0.000796709
-0.000799779
-0.000802835
-0.000805878
-0.000808907
-0.00081192
-0.000814919
-0.000817903
-0.000820871
-0.000823822
-0.000826757
-0.000829674
-0.000832574
-0.000835456
-0.00083832
-0.000841165
-0.000843991
-0.000846797
-0.000849582
-0.000852348
-0.000855093
-0.000857816
-0.000860518
-0.000863197
-0.000865854
-0.000868489
-0.0008711
-0.000873687
-0.00087625
-0.000878789
-0.000881303
-0.000883792
-0.000886255
-0.000888693
-0.000891104
-0.000893488
-0.000895845
-0.000898175
-0.000900477
-0.000902751
-0.000904996
-0.000907213
-0.0009094
-0.000911558
-0.000913686
-0.000915784
-0.000917851
-0.000919887
-0.000921892
-0.000923866
-0.000925807
-0.000927717
-0.000929595
-0.000931439
-0.000933251
-0.000935028
-0.000936776
-0.000938483
-0.000940167
-0.000941798
-0.000943428
-0.000944968
-0.000946562
-0.000947981
-0.000949583
-0.000950816
-0.000952516
-0.000953447
-0.000955383
-0.000955858
-0.000958192
-0.000958056
-0.000960961
-0.000959975
-0.000963884
-0.000961281
-0.000967537
-0.000961302
-0.000972722
-0.000959678
-0.000979404
-0.000957976
-0.000985711
-0.000959675
-0.00099158
-0.00096559
-0.00101226
-0.000961526
-0.00119852
-0.000884947
-0.000884947
-0.0942227
0.0942227
0.120917
0.0968535
0.0716767
0.0530808
0.0400685
0.0309485
0.0244607
0.0197629
0.0162994
0.0136981
0.0117049
0.0101447
0.00889688
0.00787882
0.00703374
0.00632302
0.00572083
0.00520875
0.0047706
0.00439008
0.00405227
0.00374674
0.00346855
0.00321612
0.00298826
0.00278307
0.00259888
0.00243485
0.00228949
0.00215833
0.00203365
0.00190768
0.00177736
0.00164654
0.00152318
0.00141292
0.00131363
0.00121513
0.00110481
0.000975468
0.000830298
0.000681884
0.000545949
0.000433744
0.000347399
0.000280444
0.000222506
0.000165081
0.000105261
4.58936e-05
-7.19734e-06
-4.90192e-05
-7.81892e-05
-9.75618e-05
-0.000112828
-0.000130105
-0.000153742
-0.000185155
-0.000222891
-0.000263586
-0.000303272
-0.000338543
-0.000367258
-0.000388728
-0.000403485
-0.000412824
-0.000418319
-0.000421438
-0.000423322
-0.000424718
-0.000426021
-0.000427376
-0.000428776
-0.000430152
-0.000431434
-0.00043257
-0.000433542
-0.000434358
-0.000435043
-0.000435627
-0.000436143
-0.00043662
-0.000437078
-0.000437534
-0.000437995
-0.000438468
-0.000438955
-0.000439457
-0.000439972
-0.0004405
-0.000441041
-0.000441592
-0.000442154
-0.000442726
-0.000443307
-0.000443899
-0.000444499
-0.000445109
-0.000445729
-0.000446359
-0.000446998
-0.000447648
-0.000448308
-0.000448978
-0.000449659
-0.000450351
-0.000451054
-0.000451767
-0.000452492
-0.000453228
-0.000453976
-0.000454735
-0.000455506
-0.000456289
-0.000457084
-0.000457891
-0.00045871
-0.000459542
-0.000460387
-0.000461244
-0.000462114
-0.000462997
-0.000463893
-0.000464803
-0.000465725
-0.000466662
-0.000467612
-0.000468576
-0.000469554
-0.000470547
-0.000471553
-0.000472574
-0.00047361
-0.00047466
-0.000475725
-0.000476805
-0.000477901
-0.000479011
-0.000480137
-0.000481278
-0.000482436
-0.000483608
-0.000484797
-0.000486002
-0.000487223
-0.000488461
-0.000489715
-0.000490985
-0.000492272
-0.000493576
-0.000494897
-0.000496235
-0.00049759
-0.000498963
-0.000500353
-0.00050176
-0.000503185
-0.000504628
-0.000506089
-0.000507567
-0.000509064
-0.000510579
-0.000512112
-0.000513664
-0.000515234
-0.000516822
-0.000518429
-0.000520055
-0.000521699
-0.000523363
-0.000525045
-0.000526747
-0.000528467
-0.000530207
-0.000531966
-0.000533744
-0.000535541
-0.000537358
-0.000539194
-0.00054105
-0.000542925
-0.000544819
-0.000546734
-0.000548668
-0.000550621
-0.000552594
-0.000554587
-0.000556599
-0.000558631
-0.000560683
-0.000562755
-0.000564846
-0.000566957
-0.000569087
-0.000571237
-0.000573407
-0.000575596
-0.000577805
-0.000580034
-0.000582281
-0.000584549
-0.000586835
-0.000589141
-0.000591466
-0.00059381
-0.000596174
-0.000598556
-0.000600957
-0.000603377
-0.000605816
-0.000608274
-0.00061075
-0.000613244
-0.000615757
-0.000618288
-0.000620837
-0.000623404
-0.000625988
-0.000628591
-0.000631211
-0.000633848
-0.000636502
-0.000639173
-0.000641861
-0.000644566
-0.000647287
-0.000650025
-0.000652779
-0.000655548
-0.000658333
-0.000661134
-0.00066395
-0.000666781
-0.000669627
-0.000672487
-0.000675362
-0.00067825
-0.000681153
-0.000684069
-0.000686999
-0.000689941
-0.000692897
-0.000695865
-0.000698845
-0.000701837
-0.000704841
-0.000707856
-0.000710882
-0.00071392
-0.000716967
-0.000720025
-0.000723092
-0.00072617
-0.000729256
-0.000732351
-0.000735455
-0.000738567
-0.000741687
-0.000744814
-0.000747948
-0.00075109
-0.000754237
-0.000757391
-0.000760551
-0.000763716
-0.000766886
-0.00077006
-0.000773239
-0.000776422
-0.000779608
-0.000782797
-0.000785989
-0.000789183
-0.000792379
-0.000795576
-0.000798775
-0.000801974
-0.000805174
-0.000808373
-0.000811572
-0.00081477
-0.000817967
-0.000821162
-0.000824355
-0.000827545
-0.000830732
-0.000833916
-0.000837095
-0.000840271
-0.000843442
-0.000846608
-0.000849768
-0.000852922
-0.00085607
-0.00085921
-0.000862344
-0.00086547
-0.000868588
-0.000871697
-0.000874797
-0.000877888
-0.000880969
-0.00088404
-0.0008871
-0.000890149
-0.000893186
-0.000896212
-0.000899225
-0.000902225