# vtk DataFile Version 2.0
FlowField
ASCII
DATASET STRUCTURED_GRID
DIMENSIONS 400 1 50
POINTS 20000 float
0 0 0
0.08 0 0
0.16 0 0
0.24 0 0
0.32 0 0
0.4 0 0
0.48 0 0
0.56 0 0
0.64 0 0
0.72 0 0
0.8 0 0
0.88 0 0
0.96 0 0
1.04 0 0
1.12 0 0
1.2 0 0
1.28 0 0
1.36 0 0
1.44 0 0
1.52 0 0
1.6 0 0
1.68 0 0
1.76 0 0
1.84 0 0
1.92 0 0
2 0 0
2.08 0 0
2.16 0 0
2.24 0 0
2.32 0 0
2.4 0 0
2.48 0 0
2.56 0 0
2.64 0 0
2.72 0 0
2.8 0 0
2.88 0 0
2.96 0 0
3.04 0 0
3.12 0 0
3.2 0 0
3.28 0 0
3.36 0 0
3.44 0 0
3.52 0 0
3.6 0 0
3.68 0 0
3.76 0 0
3.84 0 0
3.92 0 0
4 0 0
4.08 0 0
4.16 0 0
4.24 0 0
4.32 0 0
4.4 0 0
4.48 0 0
4.56 0 0
4.64 0 0
4.72 0 0
4.8 0 0
4.88 0 0
4.96 0 0
5.04 0 0
5.12 0 0
5.2 0 0
5.28 0 0
5.36 0 0
5.44 0 0
5.52 0 0
5.6 0 0
5.68 0 0
5.76 0 0
5.84 0 0
5.92 0 0
6 0 0
6.08 0 0
6.16 0 0
6.24 0 0
6.32 0 0
6.4 0 0
6.48 0 0
6.56 0 0
6.64 0 0
6.72 0 0
6.8 0 0
6.88 0 0
6.96 0 0
7.04 0 0
7.12 0 0
7.2 0 0
7.28 0 0
7.36 0 0
7.44 0 0
7.52 0 0
7.6 0 0
7.68 0 0
7.76 0 0
7.84 0 0
7.92 0 0
8 0 0
8.08 0 0
8.16 0 0
8.24 0 0
8.32 0 0
8.4 0 0
8.48 0 0
8.56 0 0
8.64 0 0
8.72 0 0
8.8 0 0
8.88 0 0
8.96 0 0
9.04 0 0
9.12 0 0
9.2 0 0
9.28 0 0
9.36 0 0
9.44 0 0
9.52 0 0
9.6 0 0
9.68 0 0
9.76 0 0
9.84 0 0
9.92 0 0
10 0 0
10.08 0 0
10.16 0 0
10.24 0 0
10.32 0 0
10.4 0 0
10.48 0 0
10.56 0 0
10.64 0 0
10.72 0 0
10.8 0 0
10.88 0 0
10.96 0 0
11.04 0 0
11.12 0 0
11.2 0 0
11.28 0 0
11.36 0 0
11.44 0 0
11.52 0 0
11.6 0 0
11.68 0 0
11.76 0 0
11.84 0 0
11.92 0 0
12 0 0
12.08 0 0
12.16 0 0
12.24 0 0
12.32 0 0
12.4 0 0
12.48 0 0
12.56 0 0
12.64 0 0
12.72 0 0
12.8 0 0
12.88 0 0
12.96 0 0
13.04 0 0
13.12 0 0
13.2 0 0
13.28 0 0
13.36 0 0
13.44 0 0
13.52 0 0
13.6 0 0
13.68 0 0
13.76 0 0
13.84 0 0
13.92 0 0
14 0 0
14.08 0 0
14.16 0 0
14.24 0 0
14.32 0 0
14.4 0 0
14.48 0 0
14.56 0 0
14.64 0 0
14.72 0 0
14.8 0 0
14.88 0 0
14.96 0 0
15.04 0 0
15.12 0 0
15.2 0 0
15.28 0 0
15.36 0 0
15.44 0 0
15.52 0 0
15.6 0 0
15.68 0 0
15.76 0 0
15.84 0 0
15.92 0 0
16 0 0
16.08 0 0
16.16 0 0
16.24 0 0
16.32 0 0
16.4 0 0
16.48 0 0
16.56 0 0
16.64 0 0
16.72 0 0
16.8 0 0
16.88 0 0
16.96 0 0
17.04 0 0
17.12 0 0
17.2 0 0
17.28 0 0
17.36 0 0
17.44 0 0
17.52 0 0
17.6 0 0
17.68 0 0
17.76 0 0
17.84 0 0
17.92 0 0
18 0 0
18.08 0 0
18.16 0 0
18.24 0 0
18.32 0 0
18.4 0 0
18.48 0 0
18.56 0 0
18.64 0 0
18.72 0 0
18.8 0 0
18.88 0 0
18.96 0 0
19.04 0 0
19.12 0 0
19.2 0 0
19.28 0 0
19.36 0 0
19.44 0 0
19.52 0 0
19.6 0 0
19.68 0 0
19.76 0 0
19.84 0 0
19.92 0 0
20 0 0
20.08 0 0
20.16 0 0
20.24 0 0
20.32 0 0
20.4 0 0
20.48 0 0
20.56 0 0
20.64 0 0
20.72 0 0
20.8 0 0
20.88 0 0
20.96 0 0
21.04 0 0
21.12 0 0
21.2 0 0
21.28 0 0
21.36 0 0
21.44 0 0
21.52 0 0
21.6 0 0
21.68 0 0
21.76 0 0
21.84 0 0
21.92 0 0
22 0 0
22.08 0 0
22.16 0 0
22.24 0 0
22.32 0 0
22.4 0 0
22.48 0 0
22.56 0 0
22.64 0 0
22.72 0 0
22.8 0 0
22.88 0 0
22.96 0 0
23.04 0 0
23.12 0 0
23.2 0 0
23.28 0 0
23.36 0 0
23.44 0 0
23.52 0 0
23.6 0 0
23.68 0 0
23.76 0 0
23.84 0 0
23.92 0 0
24 0 0
24.08 0 0
24.16 0 0
24.24 0 0
24.32 0 0
24.4 0 0
24.48 0 0
24.56 0 0
24.64 0 0
24.72 0 0
24.8 0 0
24.88 0 0
24.96 0 0
25.04 0 0
25.12 0 0
25.2 0 0
25.28 0 0
25.36 0 0
25.44 0 0
25.52 0 0
25.6 0 0
25.68 0 0
25.76 0 0
25.84 0 0
25.92 0 0
26 0 0
26.08 0 0
26.16 0 0
26.24 0 0
26.32 0 0
26.4 0 0
26.48 0 0
26.56 0 0
26.64 0 0
26.72 0 0
26.8 0 0
26.88 0 0
26.96 0 0
27.04 0 0
27.12 0 0
27.2 0 0
27.28 0 0
27.36 0 0
27.44 0 0
27.52 0 0
27.6 0 0
27.68 0 0
27.76 0 0
27.84 0 0
27.92 0 0
28 0 0
28.08 0 0
28.16 0 0
28.24 0 0
28.32 0 0
28.4 0 0
28.48 0 0
28.56 0 0
28.64 0 0
28.72 0 0
28.8 0 0
28.88 0 0
28.96 0 0
29.04 0 0
29.12 0 0
29.2 0 0
29.28 0 0
29.36 0 0
29.44 0 0
29.52 0 0
29.6 0 0
29.68 0 0
29.76 0 0
29.84 0 0
29.92 0 0
30 0 0
30.08 0 0
30.16 0 0
30.24 0 0
30.32 0 0
30.4 0 0
30.48 0 0
30.56 0 0
30.64 0 0
30.72 0 0
30.8 0 0
30.88 0 0
30.96 0 0
31.04 0 0
31.12 0 0
31.2 0 0
31.28 0 0
31.36 0 0
31.44 0 0
31.52 0 0
31.6 0 0
31.68 0 0
31.76 0 0
31.84 0 0
31.92 0 0
0 0.02 0
0.08 0.02 0
0.16 0.02 0
0.24 0.02 0
0.32 0.02 0
0.4 0.02 0
0.48 0.02 0
0.56 0.02 0
0.64 0.02 0
0.72 0.02 0
0.8 0.02 0
0.88 0.02 0
0.96 0.02 0
1.04 0.02 0
1.12 0.02 0
1.2 0.02 0
1.28 0.02 0
1.36 0.02 0
1.44 0.02 0
1.52 0.02 0
1.6 0.02 0
1.68 0.02 0
1.76 0.02 0
1.84 0.02 0
1.92 0.02 0
2 0.02 0
2.08 0.02 0
2.16 0.02 0
2.24 0.02 0
2.32 0.02 0
2.4 0.02 0
2.48 0.02 0
2.56 0.02 0
2.64 0.02 0
2.72 0.02 0
2.8 0.02 0
2.88 0.02 0
2.96 0.02 0
3.04 0.02 0
3.12 0.02 0
3.2 0.02 0
3.28 0.02 0
3.36 0.02 0
3.44 0.02 0
3.52 0.02 0
3.6 0.02 0
3.68 0.02 0
3.76 0.02 0
3.84 0.02 0
3.92 0.02 0
4 0.02 0
4.08 0.02 0
4.16 0.02 0
4.24 0.02 0
4.32 0.02 0
4.4 0.02 0
4.48 0.02 0
4.56 0.02 0
4.64 0.02 0
4.72 0.02 0
4.8 0.02 0
4.88 0.02 0
4.96 0.02 0
5.04 0.02 0
5.12 0.02 0
5.2 0.02 0
5.28 0.02 0
5.36 0.02 0
5.44 0.02 0
5.52 0.02 0
5.6 0.02 0
5.68 0.02 0
5.76 0.02 0
5.84 0.02 0
5.92 0.02 0
6 0.02 0
6.08 0.02 0
6.16 0.02 0
6.24 0.02 0
6.32 0.02 0
6.4 0.02 0
6.48 0.02 0
6.56 0.02 0
6.64 0.02 0
6.72 0.02 0
6.8 0.02 0
6.88 0.02 0
6.96 0.02 0
7.04 0.02 0
7.12 0.02 0
7.2 0.02 0
7.28 0.02 0
7.36 0.02 0
7.44 0.02 0
7.52 0.02 0
7.6 0.02 0
7.68 0.02 0
7.76 0.02 0
7.84 0.02 0
7.92 0.02 0
8 0.02 0
8.08 0.02 0
8.16 0.02 0
8.24 0.02 0
8.32 0.02 0
8.4 0.02 0
8.48 0.02 0
8.56 0.02 0
8.64 0.02 0
8.72 0.02 0
8.8 0.02 0
8.88 0.02 0
8.96 0.02 0
9.04 0.02 0
9.12 0.02 0
9.2 0.02 0
9.28 0.02 0
9.36 0.02 0
9.44 0.02 0
9.52 0.02 0
9.6 0.02 0
9.68 0.02 0
9.76 0.02 0
9.84 0.02 0
9.92 0.02 0
10 0.02 0
10.08 0.02 0
10.16 0.02 0
10.24 0.02 0
10.32 0.02 0
10.4 0.02 0
10.48 0.02 0
10.56 0.02 0
10.64 0.02 0
10.72 0.02 0
10.8 0.02 0
10.88 0.02 0
10.96 0.02 0
11.04 0.02 0
11.12 0.02 0
11.2 0.02 0
11.28 0.02 0
11.36 0.02 0
11.44 0.02 0
11.52 0.02 0
11.6 0.02 0
11.68 0.02 0
11.76 0.02 0
11.84 0.02 0
11.92 0.02 0
12 0.02 0
12.08 0.02 0
12.16 0.02 0
12.24 0.02 0
12.32 0.02 0
12.4 0.02 0
12.48 0.02 0
12.56 0.02 0
12.64 0.02 0
12.72 0.02 0
12.8 0.02 0
12.88 0.02 0
12.96 0.02 0
13.04 0.02 0
13.12 0.02 0
13.2 0.02 0
13.28 0.02 0
13.36 0.02 0
13.44 0.02 0
13.52 0.02 0
13.6 0.02 0
13.68 0.02 0
13.76 0.02 0
13.84 0.02 0
13.92 0.02 0
14 0.02 0
14.08 0.02 0
14.16 0.02 0
14.24 0.02 0
14.32 0.02 0
14.4 0.02 0
14.48 0.02 0
14.56 0.02 0
14.64 0.02 0
14.72 0.02 0
14.8 0.02 0
14.88 0.02 0
14.96 0.02 0
15.04 0.02 0
15.12 0.02 0
15.2 0.02 0
15.28 0.02 0
15.36 0.02 0
15.44 0.02 0
15.52 0.02 0
15.6 0.02 0
15.68 0.02 0
15.76 0.02 0
15.84 0.02 0
15.92 0.02 0
16 0.02 0
16.08 0.02 0
16.16 0.02 0
16.24 0.02 0
16.32 0.02 0
16.4 0.02 0
16.48 0.02 0
16.56 0.02 0
16.64 0.02 0
16.72 0.02 0
16.8 0.02 0
16.88 0.02 0
16.96 0.02 0
17.04 0.02 0
17.12 0.02 0
17.2 0.02 0
17.28 0.02 0
17.36 0.02 0
17.44 0.02 0
17.52 0.02 0
17.6 0.02 0
17.68 0.02 0
17.76 0.02 0
17.84 0.02 0
17.92 0.02 0
18 0.02 0
18.08 0.02 0
18.16 0.02 0
18.24 0.02 0
18.32 0.02 0
18.4 0.02 0
18.48 0.02 0
18.56 0.02 0
18.64 0.02 0
18.72 0.02 0
18.8 0.02 0
18.88 0.02 0
18.96 0.02 0
19.04 0.02 0
19.12 0.02 0
19.2 0.02 0
19.28 0.02 0
19.36 0.02 0
19.44 0.02 0
19.52 0.02 0
19.6 0.02 0
19.68 0.02 0
19.76 0.02 0
19.84 0.02 0
19.92 0.02 0
20 0.02 0
20.08 0.02 0
20.16 0.02 0
20.24 0.02 0
20.32 0.02 0
20.4 0.02 0
20.48 0.02 0
20.56 0.02 0
20.64 0.02 0
20.72 0.02 0
20.8 0.02 0
20.88 0.02 0
20.96 0.02 0
21.04 0.02 0
21.12 0.02 0
21.2 0.02 0
21.28 0.02 0
21.36 0.02 0
21.44 0.02 0
21.52 0.02 0
21.6 0.02 0
21.68 0.02 0
21.76 0.02 0
21.84 0.02 0
21.92 0.02 0
22 0.02 0
22.08 0.02 0
22.16 0.02 0
22.24 0.02 0
22.32 0.02 0
22.4 0.02 0
22.48 0.02 0
22.56 0.02 0
22.64 0.02 0
22.72 0.02 0
22.8 0.02 0
22.88 0.02 0
22.96 0.02 0
23.04 0.02 0
23.12 0.02 0
23.2 0.02 0
23.28 0.02 0
23.36 0.02 0
23.44 0.02 0
23.52 0.02 0
23.6 0.02 0
23.68 0.02 0
23.76 0.02 0
23.84 0.02 0
23.92 0.02 0
24 0.02 0
24.08 0.02 0
24.16 0.02 0
24.24 0.02 0
24.32 0.02 0
24.4 0.02 0
24.48 0.02 0
24.56 0.02 0
24.64 0.02 0
24.72 0.02 0
24.8 0.02 0
24.88 0.02 0
24.96 0.02 0
25.04 0.02 0
25.12 0.02 0
25.2 0.02 0
25.28 0.02 0
25.36 0.02 0
25.44 0.02 0
25.52 0.02 0
25.6 0.02 0
25.68 0.02 0
25.76 0.02 0
25.84 0.02 0
25.92 0.02 0
26 0.02 0
26.08 0.02 0
26.16 0.02 0
26.24 0.02 0
26.32 0.02 0
26.4 0.02 0
26.48 0.02 0
26.56 0.02 0
26.64 0.02 0
26.72 0.02 0
26.8 0.02 0
26.88 0.02 0
26.96 0.02 0
27.04 0.02 0
27.12 0.02 0
27.2 0.02 0
27.28 0.02 0
27.36 0.02 0
27.44 0.02 0
27.52 0.02 0
27.6 0.02 0
27.68 0.02 0
27.76 0.02 0
27.84 0.02 0
27.92 0.02 0
28 0.02 0
28.08 0.02 0
28.16 0.02 0
28.24 0.02 0
28.32 0.02 0
28.4 0.02 0
28.48 0.02 0
28.56 0.02 0
28.64 0.02 0
28.72 0.02 0
28.8 0.02 0
28.88 0.02 0
28.96 0.02 0
29.04 0.02 0
29.12 0.02 0
29.2 0.02 0
29.28 0.02 0
29.36 0.02 0
29.44 0.02 0
29.52 0.02 0
29.6 0.02 0
29.68 0.02 0
29.76 0.02 0
29.84 0.02 0
29.92 0.02 0
30 0.02 0
30.08 0.02 0
30.16 0.02 0
30.24 0.02 0
30.32 0.02 0
30.4 0.02 0
30.48 0.02 0
30.56 0.02 0
30.64 0.02 0
30.72 0.02 0
30.8 0.02 0
30.88 0.02 0
30.96 0.02 0
31.04 0.02 0
31.12 0.02 0
31.2 0.02 0
31.28 0.02 0
31.36 0.02 0
31.44 0.02 0
31.52 0.02 0
31.6 0.02 0
31.68 0.02 0
31.76 0.02 0
31.84 0.02 0
31.92 0.02 0
0 0.04 0
0.08 0.04 0
0.16 0.04 0
0.24 0.04 0
0.32 0.04 0
0.4 0.04 0
0.48 0.04 0
0.56 0.04 0
0.64 0.04 0
0.72 0.04 0
0.8 0.04 0
0.88 0.04 0
0.96 0.04 0
1.04 0.04 0
1.12 0.04 0
1.2 0.04 0
1.28 0.04 0
1.36 0.04 0
1.44 0.04 0
1.52 0.04 0
1.6 0.04 0
1.68 0.04 0
1.76 0.04 0
1.84 0.04 0
1.92 0.04 0
2 0.04 0
2.08 0.04 0
2.16 0.04 0
2.24 0.04 0
2.32 0.04 0
2.4 0.04 0
2.48 0.04 0
2.56 0.04 0
2.64 0.04 0
2.72 0.04 0
2.8 0.04 0
2.88 0.04 0
2.96 0.04 0
3.04 0.04 0
3.12 0.04 0
3.2 0.04 0
3.28 0.04 0
3.36 0.04 0
3.44 0.04 0
3.52 0.04 0
3.6 0.04 0
3.68 0.04 0
3.76 0.04 0
3.84 0.04 0
3.92 0.04 0
4 0.04 0
4.08 0.04 0
4.16 0.04 0
4.24 0.04 0
4.32 0.04 0
4.4 0.04 0
4.48 0.04 0
4.56 0.04 0
4.64 0.04 0
4.72 0.04 0
4.8 0.04 0
4.88 0.04 0
4.96 0.04 0
5.04 0.04 0
5.12 0.04 0
5.2 0.04 0
5.28 0.04 0
5.36 0.04 0
5.44 0.04 0
5.52 0.04 0
5.6 0.04 0
5.68 0.04 0
5.76 0.04 0
5.84 0.04 0
5.92 0.04 0
6 0.04 0
6.08 0.04 0
6.16 0.04 0
6.24 0.04 0
6.32 0.04 0
6.4 0.04 0
6.48 0.04 0
6.56 0.04 0
6.64 0.04 0
6.72 0.04 0
6.8 0.04 0
6.88 0.04 0
6.96 0.04 0
7.04 0.04 0
7.12 0.04 0
7.2 0.04 0
7.28 0.04 0
7.36 0.04 0
7.44 0.04 0
7.52 0.04 0
7.6 0.04 0
7.68 0.04 0
7.76 0.04 0
7.84 0.04 0
[...]
POINT_DATA 20000

SCALARS v float 1
LOOKUP_TABLE default
0
0
0
0
0
0
0
0
0
0
0
0
0
0
0
0
0
0
0
0
0
0
0
0
0
0
0
0
0
0
0
0
0
0
0
0
0
0
0
0
0
0
0
0
0
0
0
0
0
0
0
0
0
0
0
0
0
0
0
0
0
0
0
0
0
0
0
0
0
0
0
0
0
0
0
0
0
0
0
0
0
0
0
0
0
0
0
0
0
0
0
0
0
0
0
0
0
0
0
0
0
0
0
0
0
0
0
0
0
0
0
0
0
0
0
0
0
0
0
0
0
0
0
0
0
0
0
0
0
0
0
0
0
0
0
0
0
0
0
0
0
0
0
0
0
0
0
0
0
0
0
0
0
0
0
0
0
0
0
0
0
0
0
0
0
0
0
0
0
0
0
0
0
0
0
0
0
0
0
0
0
0
0
0
0
0
0
0
0
0
0
0
0
0
0
0
0
0
0
0
0
0
0
0
0
0
0
0
0
0
0
0
0
0
0
0
0
0
0
0
0
0
0
0
0
0
0
0
0
0
0
0
0
0
0
0
0
0
0
0
0
0
0
0
0
0
0
0
0
0
0
0
0
0
0
0
0
0
0
0
0
0
0
0
0
0
0
0
0
0
0
0
0
0
0
0
0
0
0
0
0
0
0
0
0
0
0
0
0
0
0
0
0
0
0
0
0
0
0
0
0
0
0
0
0
0
0
0
0
0
0
0
0
0
0
0
0
0
0
0
0
0
0
0
0
0
0
0
0
0
0
0
0
0
0
0
0
0
0
0
0
0
0
0
0
0
0
0
0
0
0
0
0
0
0
0
0
0
0
0
0
0
0
0
0
0
0
0
0
0
0
0
0
0
0
0
0
0
0
0
0
0
0
0
0
0
0
0
0
0
0
0
0
0
0
0
0
0
0
0
-0.123227
0.123227
0.0537923
0.0194395
0.00878359
0.00509017
0.0033882
0.00243774
0.00184792
0.0014567
0.00118444
0.000987647
0.000840786
0.000728095
0.000639459
0.000568195
0.000509772
0.000461056
0.000419831
0.000384498
0.000353885
0.000327112
0.00030351
0.000282559
0.000263849
0.000247051
0.000231899
0.000218175
0.000205697
0.000194311
0.00018389
0.000174324
0.000165518
0.000157391
0.000149873
0.000142903
0.000136426
0.000130396
0.000124771
0.000119514
0.000114593
0.000109978
0.000105645
0.000101569
9.7729e-05
9.41074e-05
9.06869e-05
8.74522e-05
8.43894e-05
8.14859e-05
7.87305e-05
7.61126e-05
7.36228e-05
7.12525e-05
6.89935e-05
6.68387e-05
6.47814e-05
6.28154e-05
6.0935e-05
5.9135e-05
5.74105e-05
5.57571e-05
5.41707e-05
5.26473e-05
5.11836e-05
4.9776e-05
4.84216e-05
4.71176e-05
4.58611e-05
4.46498e-05
4.34814e-05
4.23536e-05
4.12644e-05
4.0212e-05
3.91945e-05
3.82104e-05
3.7258e-05
3.63359e-05
3.54428e-05
3.45772e-05
3.37381e-05
3.29242e-05
3.21345e-05
3.1368e-05
3.06237e-05
2.99007e-05
2.91982e-05
2.85153e-05
2.78514e-05
2.72056e-05
2.65772e-05
2.59657e-05
2.53704e-05
2.47908e-05
2.42263e-05
2.36763e-05
2.31403e-05
2.2618e-05
2.21088e-05
2.16122e-05
2.1128e-05
2.06557e-05
2.01948e-05
1.97452e-05
1.93063e-05
1.8878e-05
1.84598e-05
1.80515e-05
1.76528e-05
1.72634e-05
1.6883e-05
1.65115e-05
1.61484e-05
1.57937e-05
1.54471e-05
1.51083e-05
1.47772e-05
1.44536e-05
1.41373e-05
1.3828e-05
1.35256e-05
1.32299e-05
1.29408e-05
1.26581e-05
1.23817e-05
1.21113e-05
1.18468e-05
1.15881e-05
1.13351e-05
1.10876e-05
1.08455e-05
1.06086e-05
1.03769e-05
1.01502e-05
9.92846e-06
9.71149e-06
9.49921e-06
9.29152e-06
9.08831e-06
8.88948e-06
8.69494e-06
8.50458e-06
8.31832e-06
8.13608e-06
7.95776e-06
7.78328e-06
7.61256e-06
7.44552e-06
7.28207e-06
7.12213e-06
6.96563e-06
6.81251e-06
6.66268e-06
6.5161e-06
6.37268e-06
6.23236e-06
6.09509e-06
5.96078e-06
5.82937e-06
5.70081e-06
5.57502e-06
5.45196e-06
5.33157e-06
5.2138e-06
5.09859e-06
4.98589e-06
4.87564e-06
4.76779e-06
4.66229e-06
4.55907e-06
4.4581e-06
4.35933e-06
4.26272e-06
4.16822e-06
4.07579e-06
3.98538e-06
3.89695e-06
3.81046e-06
3.72585e-06
3.64308e-06
3.56211e-06
3.4829e-06
3.40542e-06
3.32964e-06
3.25554e-06
3.18305e-06
3.11215e-06
3.04277e-06
2.97489e-06
2.90848e-06
2.84353e-06
2.78e-06
2.71784e-06
2.65703e-06
2.59755e-06
2.53937e-06
2.48246e-06
2.42681e-06
2.37235e-06
2.31904e-06
2.26686e-06
2.21581e-06
2.16588e-06
2.11708e-06
2.06936e-06
2.02267e-06
1.97697e-06
1.93223e-06
1.88844e-06
1.84562e-06
1.80376e-06
1.76282e-06
1.72276e-06
1.68354e-06
1.64517e-06
1.60766e-06
1.571e-06
1.53517e-06
1.5001e-06
1.46574e-06
1.43207e-06
1.39913e-06
1.36694e-06
1.33552e-06
1.30484e-06
1.27481e-06
1.24538e-06
1.21651e-06
1.18823e-06
1.1606e-06
1.13361e-06
1.10725e-06
1.08144e-06
1.05615e-06
1.03136e-06
1.00709e-06
9.8339e-07
9.60238e-07
9.37583e-07
9.15359e-07
8.9353e-07
8.72119e-07
8.51187e-07
8.30782e-07
8.10893e-07
7.9145e-07
7.7236e-07
7.53566e-07
7.35083e-07
7.16976e-07
6.99312e-07
6.82106e-07
6.65307e-07
6.48835e-07
6.32635e-07
6.16703e-07
6.01076e-07
5.85791e-07
5.70843e-07
5.56182e-07
5.41752e-07
5.27528e-07
5.13537e-07
4.99833e-07
4.86444e-07
4.73333e-07
4.6041e-07
4.47579e-07
4.34802e-07
4.2212e-07
4.09626e-07
3.97394e-07
3.85426e-07
3.73636e-07
3.61906e-07
3.50151e-07
3.38368e-07
3.2663e-07
3.15027e-07
3.03602e-07
2.92325e-07
2.81115e-07
2.69904e-07
2.58682e-07
2.47502e-07
2.36438e-07
2.25527e-07
2.14734e-07
2.03978e-07
1.93192e-07
1.82381e-07
1.71631e-07
1.6107e-07
1.5078e-07
1.40744e-07
1.30843e-07
1.20924e-07
1.10896e-07
1.00788e-07
9.07537e-08
8.09841e-08
7.16086e-08
6.26187e-08
5.38699e-08
4.51624e-08
3.6351e-08
2.74301e-08
1.85403e-08
9.89949e-09
1.68995e-09
-6.03018e-09
-1.33533e-08
-2.04651e-08
-2.7547e-08
-3.46788e-08
-4.18039e-08
-4.87577e-08
-5.53579e-08
-6.14876e-08
-6.71544e-08
-7.24707e-08
-7.76017e-08
-8.26732e-08
-8.77271e-08
-9.26975e-08
-9.74664e-08
-1.01908e-07
-1.0597e-07
-1.09668e-07
-1.131e-07
-1.16368e-07
-1.19564e-07
-1.22697e-07
-1.25739e-07
-1.28604e-07
-1.31239e-07
-1.33593e-07
-1.35707e-07
-1.37608e-07
-1.39394e-07
-1.41081e-07
-1.42727e-07
-1.44274e-07
-1.45738e-07
-1.47029e-07
-1.48196e-07
-1.49173e-07
-1.50073e-07
-1.50836e-07
-1.51604e-07
-1.52268e-07
-1.5297e-07
-1.53537e-07
-1.54138e-07
-1.54555e-07
-1.55027e-07
-1.55294e-07
-1.55681e-07
-1.55854e-07
-1.56224e-07
-1.56341e-07
-1.56721e-07
-1.56767e-07
-1.57149e-07
-1.57098e-07
-1.57488e-07
-1.57335e-07
-1.57776e-07
-1.57532e-07
-1.58073e-07
-1.57735e-07
-1.58415e-07
-1.57956e-07
-1.58807e-07
-1.58188e-07
-1.59259e-07
-1.58442e-07
-1.59805e-07
-1.58753e-07
-1.60496e-07
-1.59164e-07
-1.61379e-07
-1.59713e-07
-1.62492e-07
-1.60449e-07
-1.63859e-07
-1.61441e-07
-1.6546e-07
-1.62787e-07
-1.6712e-07
-1.6459e-07
-1.68182e-07
-1.66891e-07
-1.66449e-07
-1.69457e-07
-1.53761e-07
-1.70895e-07
-7.54854e-08
-1.32777e-07
-1.32777e-07
-0.142153
0.142153
0.101005
0.0539133
0.0302568
0.0189187
0.012928
0.00941348
0.00718056
0.00567766
0.00462117
0.00385218
0.00327569
0.00283219
0.00248302
0.00220236
0.00197254
0.00178125
0.00161971
0.00148157
0.00136214
0.00125792
0.00116621
0.00108495
0.00101249
0.000947521
0.000888989
0.000836026
0.000787913
0.000744049
0.000703927
0.000667117
0.00063325
0.00060201
0.000573123
0.000546348
0.000521479
0.000498332
0.000476746
0.000456579
0.000437704
0.000420009
0.000403394
0.00038777
0.000373055
0.000359179
0.000346075
0.000333684
0.000321955
0.000310837
0.000300288
0.000290267
0.000280737
0.000271666
0.000263022
0.000254778
0.000246909
0.000239389
0.000232197
0.000225315
0.000218721
0.000212401
0.000206337
0.000200515
0.000194921
0.000189543
0.000184369
0.000179387
0.000174588
0.000169963
0.000165501
0.000161195
0.000157037
0.000153021
0.000149138
0.000145382
0.000141749
0.000138231
0.000134824
0.000131523
0.000128323
0.00012522
0.00012221
0.000119288
0.000116451
0.000113696
0.00011102
0.000108418
0.000105889
0.000103429
0.000101037
9.87085e-05
9.64423e-05
9.42359e-05
9.20872e-05
8.99943e-05
8.79551e-05
8.59679e-05
8.40309e-05
8.21424e-05
8.03009e-05
7.85049e-05
7.67529e-05
7.50436e-05
7.33755e-05
7.17476e-05
7.01585e-05
6.86071e-05
6.70924e-05
6.56132e-05
6.41685e-05
6.27574e-05
6.13788e-05
6.00321e-05
5.87161e-05
5.74302e-05
5.61736e-05
5.49454e-05
5.37449e-05
5.25713e-05
5.14241e-05
5.03025e-05
4.92058e-05
4.81335e-05
4.7085e-05
4.60596e-05
4.50568e-05
4.40761e-05
4.31169e-05
4.21786e-05
4.12609e-05
4.03632e-05
3.94851e-05
3.86261e-05
3.77858e-05
3.69637e-05
3.61595e-05
3.53727e-05
3.4603e-05
3.38499e-05
3.31131e-05
3.23922e-05
3.16869e-05
3.09968e-05
3.03216e-05
2.96611e-05
2.90148e-05
2.83825e-05
2.77638e-05
2.71584e-05
2.65662e-05
2.59867e-05
2.54198e-05
2.48652e-05
2.43226e-05
2.37917e-05
2.32724e-05
2.27643e-05
2.22673e-05
2.1781e-05
2.13053e-05
2.084e-05
2.03848e-05
1.99394e-05
1.95039e-05
1.90778e-05
1.8661e-05
1.82533e-05
1.78545e-05
1.74644e-05
1.70828e-05
1.67096e-05
1.63446e-05
1.59875e-05
1.56383e-05
1.52967e-05
1.49627e-05
1.46359e-05
1.43163e-05
1.40037e-05
1.36979e-05
1.33988e-05
1.31062e-05
1.28201e-05
1.25403e-05
1.22666e-05
1.19988e-05
1.17369e-05
1.14807e-05
1.123e-05
1.09849e-05
1.0745e-05
1.05105e-05
1.0281e-05
1.00565e-05
9.83696e-06
9.62223e-06
9.41217e-06
9.20665e-06
9.00551e-06
8.80867e-06
8.61612e-06
8.42783e-06
8.24374e-06
8.0637e-06
7.88754e-06
7.71512e-06
7.54637e-06
7.38128e-06
7.21984e-06
7.06198e-06
6.90758e-06
6.75651e-06
6.60866e-06
6.46405e-06
6.32266e-06
6.18445e-06
6.0493e-06
5.91702e-06
5.78747e-06
5.66063e-06
5.53655e-06
5.41533e-06
5.29694e-06
5.18122e-06
5.06796e-06
4.95696e-06
4.84819e-06
4.74173e-06
4.63767e-06
4.53601e-06
4.43662e-06
4.33933e-06
4.24399e-06
4.15061e-06
4.05924e-06
3.96995e-06
3.88265e-06
3.79718e-06
3.71335e-06
3.6311e-06
3.55052e-06
3.47176e-06
3.3949e-06
3.31985e-06
3.24637e-06
3.17423e-06
3.1033e-06
3.03365e-06
2.96548e-06
2.89893e-06
2.83397e-06
2.77043e-06
2.70808e-06
2.64679e-06
2.58656e-06
2.52749e-06
2.46966e-06
2.41301e-06
2.35738e-06
2.30261e-06
2.24867e-06
2.19564e-06
2.14363e-06
2.09268e-06
2.04261e-06
1.99315e-06
1.94407e-06
1.89531e-06
1.84702e-06
1.79945e-06
1.75273e-06
1.70681e-06
1.66138e-06
1.61613e-06
1.57087e-06
1.52566e-06
1.48071e-06
1.43626e-06
1.39237e-06
1.34891e-06
1.30566e-06
1.26246e-06
1.21934e-06
1.17647e-06
1.13403e-06
1.09209e-06
1.05052e-06
1.00909e-06
9.67698e-07
9.26412e-07
8.85524e-07
8.45361e-07
8.0608e-07
7.6755e-07
7.29406e-07
6.91266e-07
6.52978e-07
6.14747e-07
5.77052e-07
5.40399e-07
5.05042e-07
4.70838e-07
4.37323e-07
4.0397e-07
3.70491e-07
3.37011e-07
3.0402e-07
2.72129e-07
2.41759e-07
2.12946e-07
1.85332e-07
1.58382e-07
1.31658e-07
1.05059e-07
7.88516e-08
5.35432e-08
2.96047e-08
7.26497e-09
-1.36067e-08
-3.3391e-08
-5.25485e-08
-7.13673e-08
-8.988e-08
-1.07835e-07
-1.24889e-07
-1.40734e-07
-1.55296e-07
-1.68695e-07
-1.8125e-07
-1.93236e-07
-2.04877e-07
-2.16141e-07
-2.26925e-07
-2.3697e-07
-2.46172e-07
-2.54424e-07
-2.61897e-07
-2.68686e-07
-2.75079e-07
-2.81092e-07
-2.8688e-07
-2.92242e-07
-2.97248e-07
-3.01635e-07
-3.05595e-07
-3.08941e-07
-3.12043e-07
-3.147e-07
-3.1735e-07
-3.19629e-07
-3.21985e-07
-3.23864e-07
-3.25824e-07
-3.27175e-07
-3.28703e-07
-3.29574e-07
-3.30838e-07
-3.31408e-07
-3.32607e-07
-3.32971e-07
-3.34169e-07
-3.34279e-07
-3.35463e-07
-3.35249e-07
-3.36467e-07
-3.35935e-07
-3.37326e-07
-3.36512e-07
-3.3823e-07
-3.37112e-07
-3.39274e-07
-3.37762e-07
-3.4048e-07
-3.38457e-07
-3.419e-07
-3.39256e-07
-3.43664e-07
-3.40281e-07
-3.45941e-07
-3.4167e-07
-3.48891e-07
-3.43558e-07
-3.52652e-07
-3.46116e-07
-3.57335e-07
-3.4959e-07
-3.62919e-07
-3.54297e-07
-3.68894e-07
-3.60531e-07
-3.73226e-07
-3.68231e-07
-3.69044e-07
-3.75934e-07
-3.31194e-07
-3.76071e-07
-1.11479e-07
-2.52497e-07
-2.52497e-07
-0.122226
0.122226
0.121664
0.0822682
0.0539952
0.0368645
0.0263936
0.0197168
0.0152661
0.0121806
0.00996895
0.0083372
0.00710224
0.00614585
0.00538952
0.00477986
0.00427985
0.00386336
0.0035116
0.00321088
0.00295103
0.00272438
0.00252508
0.00234858
0.00219128
0.00205031
0.00192336
0.00180853
0.00170425
0.0016092
0.00152227
0.00144253
0.00136918
0.00130153
0.00123897
0.001181
0.00112715
0.00107704
0.0010303
0.000986645
0.000945785
0.000907481
0.000871515
0.000837695
0.000805845
0.00077581
0.000747448
0.000720631
0.000695244
0.000671183
0.000648353
0.000626666
0.000606043
0.000586414
0.00056771
0.000549871
0.000532843
0.000516573
0.000501014
0.000486123
0.000471859
0.000458186
0.000445069
0.000432476
0.000420377
0.000408745
0.000397555
0.000386782
0.000376405
0.000366403
0.000356756
0.000347447
0.000338459
0.000329775
0.000321382
0.000313266
0.000305413
0.000297811
0.00029045
0.000283318
0.000276404
0.000269701
0.000263198
0.000256888
0.000250761
0.000244812
0.000239032
0.000233415
0.000227955
0.000222646
0.000217481
0.000212456
0.000207566
0.000202805
0.000198169
0.000193653
0.000189254
0.000184968
0.00018079
0.000176718
0.000172747
0.000168874
0.000165097
0.000161412
0.000157817
0.000154308
0.000150884
0.000147541
0.000144277
0.00014109
0.000137977
0.000134938
0.000131969
0.000129068
0.000126234
0.000123465
0.000120759
0.000118115
0.000115531
0.000113005
0.000110535
0.000108121
0.000105761
0.000103454
0.000101197
9.89912e-05
9.68338e-05
9.4724e-05
9.26606e-05
9.06425e-05
8.86687e-05
8.67381e-05
8.48497e-05
8.30025e-05
8.11957e-05
7.94282e-05
7.76992e-05
7.60078e-05
7.43531e-05
7.27343e-05
7.11506e-05
6.96012e-05
6.80854e-05
6.66025e-05
6.51517e-05
6.37323e-05
6.23437e-05
6.09851e-05
5.96559e-05
5.83555e-05
5.70833e-05
5.58386e-05
5.4621e-05
5.34298e-05
5.22645e-05
5.11245e-05
5.00093e-05
4.89184e-05
4.78511e-05
4.68071e-05
4.57859e-05
4.47868e-05
4.38096e-05
4.28538e-05
4.19188e-05
4.10044e-05
4.01099e-05
3.9235e-05
3.83792e-05
3.75421e-05
3.67233e-05
3.59226e-05
3.51394e-05
3.43734e-05
3.36243e-05
3.28916e-05
3.21751e-05
3.14743e-05
3.07888e-05
3.01183e-05
2.94626e-05
2.88211e-05
2.81938e-05
2.75804e-05
2.69804e-05
2.63936e-05
2.58196e-05
2.52581e-05
2.47089e-05
2.41716e-05
2.36462e-05
2.31322e-05
2.26295e-05
2.21377e-05
2.16567e-05
2.11862e-05
2.07261e-05
2.0276e-05
1.98356e-05
1.94046e-05
1.8983e-05
1.85706e-05
1.81672e-05
1.77729e-05
1.73872e-05
1.70098e-05
1.66405e-05
1.62792e-05
1.59256e-05
1.55799e-05
1.52419e-05
1.49113e-05
1.45878e-05
1.42713e-05
1.39617e-05
1.3659e-05
1.33631e-05
1.30737e-05
1.27905e-05
1.25132e-05
1.22418e-05
1.19763e-05
1.1717e-05
1.14636e-05
1.12158e-05
1.09733e-05
1.07357e-05
1.0503e-05
1.02753e-05
1.00528e-05
9.83525e-06
9.62256e-06
9.41433e-06
9.21035e-06
9.01059e-06
8.81517e-06
8.62412e-06
8.43727e-06
8.2543e-06
8.07491e-06
7.89899e-06
7.7267e-06
7.55828e-06
7.39381e-06
7.23309e-06
7.07567e-06
6.92112e-06
6.76927e-06
6.62028e-06
6.47447e-06
6.33203e-06
6.19286e-06
6.05662e-06
5.92288e-06
5.79144e-06
5.66233e-06
5.5357e-06
5.41163e-06
5.28999e-06
5.17047e-06
5.05282e-06
4.93696e-06
4.82304e-06
4.71123e-06
4.6015e-06
4.49352e-06
4.38678e-06
4.28089e-06
4.17581e-06
4.07182e-06
3.96931e-06
3.86847e-06
3.7691e-06
3.67064e-06
3.57256e-06
3.47456e-06
3.3768e-06
3.27969e-06
3.18359e-06
3.08857e-06
2.99436e-06
2.90058e-06
2.807e-06
2.7137e-06
2.621e-06
2.52923e-06
2.43845e-06
2.3484e-06
2.25875e-06
2.16932e-06
2.08035e-06
1.99236e-06
1.90589e-06
1.82115e-06
1.73783e-06
1.65529e-06
1.57292e-06
1.49057e-06
1.4087e-06
1.32818e-06
1.24987e-06
1.17409e-06
1.10049e-06
1.02822e-06
9.5641e-07
8.84693e-07
8.13423e-07
7.43535e-07
6.76084e-07
6.11711e-07
5.50353e-07
4.91304e-07
4.33628e-07
3.76645e-07
3.20304e-07
2.65172e-07
2.12165e-07
1.62049e-07
1.15121e-07
7.10417e-08
2.90917e-08
-1.15245e-08
-5.12387e-08
-9.00266e-08
-1.27389e-07
-1.62732e-07
-1.95564e-07
-2.2585e-07
-2.53864e-07
-2.80209e-07
-3.05352e-07
-3.29648e-07
-3.52985e-07
-3.75166e-07
-3.95732e-07
-4.14553e-07
-4.31484e-07
-4.46887e-07
-4.60941e-07
-4.74171e-07
-4.86565e-07
-4.984e-07
-5.09285e-07
-5.1938e-07
-5.2821e-07
-5.36191e-07
-5.42969e-07
-5.49276e-07
-5.54699e-07
-5.6008e-07
-5.6468e-07
-5.69388e-07
-5.73112e-07
-5.76976e-07
-5.79632e-07
-5.8265e-07
-5.84377e-07
-5.86893e-07
-5.88029e-07
-5.90401e-07
-5.91101e-07
-5.9344e-07
-5.9361e-07
-5.9591e-07
-5.95444e-07
-5.97827e-07
-5.96748e-07
-5.99491e-07
-5.9786e-07
-6.01252e-07
-5.99016e-07
-6.03282e-07
-6.0026e-07
-6.05636e-07
-6.01607e-07
-6.08438e-07
-6.03191e-07
-6.11959e-07
-6.05255e-07
-6.16532e-07
-6.08066e-07
-6.2248e-07
-6.11895e-07
-6.301e-07
-6.17091e-07
-6.39652e-07
-6.24149e-07
-6.51167e-07
-6.33684e-07
-6.63779e-07
-6.46209e-07
-6.738e-07
-6.61379e-07
-6.68673e-07
-6.75461e-07
-6.03334e-07
-6.69427e-07
-2.44909e-07
-4.26613e-07
-4.26613e-07
-0.0942785
0.0942785
0.121016
0.0969701
0.0717943
0.0531989
0.0402019
0.0311125
0.0246588
0.0199863
0.0165333
0.0139292
0.0119264
0.0103567
0.00910434
0.00808823
0.0072509
0.00655101
0.00595843
0.00545093
0.00501184
0.0046285
0.00429118
0.00399227
0.00372576
0.00348683
0.00327158
0.00307681
0.00289987
0.00273854
0.00259097
0.00245555
0.00233095
0.00221599
0.00210967
0.00201111
0.00191955
0.00183431
0.00175481
0.00168052
0.00161098
0.00154578
0.00148455
0.00142696
0.00137272
0.00132156
0.00127324
0.00122756
0.0011843
0.0011433
0.00110438
0.00106742
0.00103227
0.000998802
0.000966913
0.000936498
0.000907462
0.000879718
0.000853185
0.00082779
0.000803464
0.000780144
0.000757771
0.000736291
0.000715655
0.000695815
0.000676727
0.000658352
0.000640652
0.00062359
0.000607136
0.000591258
0.000575927
0.000561116
0.000546801
0.000532958
0.000519565
0.000506601
0.000494047
0.000481885
0.000470096
0.000458666
0.000447578
0.000436819
0.000426375
0.000416232
0.00040638
0.000396806
0.000387499
0.00037845
0.000369649
0.000361085
0.000352752
0.00034464
0.000336742
0.000329049
0.000321556
0.000314255
0.00030714
0.000300204
0.000293442
0.000286848
0.000280416
0.000274143
0.000268022
0.000262049
0.00025622
0.00025053
0.000244976
0.000239552
0.000234257
0.000229085
0.000224033
0.000219099
0.000214279
0.000209569
0.000204967
0.00020047
0.000196075
0.00019178
0.000187581
0.000183477
0.000179465
0.000175542
0.000171707
0.000167958
0.000164291
0.000160705
0.000157199
0.00015377
0.000150416
0.000147136
0.000143928
0.00014079
0.000137721
0.000134719
0.000131782
0.00012891
0.000126099
0.00012335
0.000120661
0.00011803
0.000115457
0.000112939
0.000110476
0.000108067
0.000105709
0.000103403
0.000101147
9.89402e-05
9.6781e-05
9.46688e-05
9.26025e-05
9.05812e-05
8.86039e-05
8.66697e-05
8.47777e-05
8.29268e-05
8.11164e-05
7.93454e-05
7.7613e-05
7.59185e-05
7.42611e-05
7.264e-05
7.10544e-05
6.95036e-05
6.79869e-05
6.65033e-05
6.50522e-05
6.3633e-05
6.2245e-05
6.08875e-05
5.95599e-05
5.82616e-05
5.69918e-05
5.575e-05
5.45356e-05
5.33479e-05
5.21863e-05
5.10502e-05
4.9939e-05
4.88523e-05
4.77895e-05
4.67502e-05
4.57338e-05
4.47398e-05
4.37675e-05
4.28164e-05
4.18862e-05
4.09763e-05
4.00864e-05
3.92161e-05
3.83648e-05
3.75321e-05
3.67177e-05
3.59211e-05
3.51421e-05
3.438e-05
3.36345e-05
3.2905e-05
3.21914e-05
3.14933e-05
3.08107e-05
3.01433e-05
2.94905e-05
2.88519e-05
2.82269e-05
2.76154e-05
2.70173e-05
2.64324e-05
2.58605e-05
2.53011e-05
2.47539e-05
2.42185e-05
2.36948e-05
2.31828e-05
2.26823e-05
2.21928e-05
2.17137e-05
2.12448e-05
2.07859e-05
2.03371e-05
1.98985e-05
1.94701e-05
1.90511e-05
1.8641e-05
1.82393e-05
1.78459e-05
1.74611e-05
1.70849e-05
1.67172e-05
1.63577e-05
1.60056e-05
1.56609e-05
1.53233e-05
1.4993e-05
1.467e-05
1.43542e-05
1.40449e-05
1.37416e-05
1.34444e-05
1.31533e-05
1.28687e-05
1.25906e-05
1.23188e-05
1.20525e-05
1.17911e-05
1.15344e-05
1.12826e-05
1.10362e-05
1.07953e-05
1.05599e-05
1.03292e-05
1.01028e-05
9.88033e-06
9.66179e-06
9.44743e-06
9.23731e-06
9.03121e-06
8.82865e-06
8.62923e-06
8.43286e-06
8.23973e-06
8.05005e-06
7.86372e-06
7.6802e-06
7.49875e-06
7.3188e-06
7.14031e-06
6.9637e-06
6.78951e-06
6.61796e-06
6.44866e-06
6.2808e-06
6.11357e-06
5.94661e-06
5.78018e-06
5.61489e-06
5.45124e-06
5.2893e-06
5.12864e-06
4.96871e-06
4.80919e-06
4.65027e-06
4.49243e-06
4.33613e-06
4.18144e-06
4.02801e-06
3.87534e-06
3.72324e-06
3.57211e-06
3.42272e-06
3.27585e-06
3.13174e-06
2.98992e-06
2.84943e-06
2.70945e-06
2.56985e-06
2.4314e-06
2.29539e-06
2.16303e-06
2.0347e-06
1.90982e-06
1.78711e-06
1.6654e-06
1.54423e-06
1.42426e-06
1.30692e-06
1.19372e-06
1.0855e-06
9.82079e-07
8.82355e-07
7.84982e-07
6.89049e-07
5.94598e-07
5.02535e-07
4.14211e-07
3.30686e-07
2.5229e-07
1.78433e-07
1.08021e-07
3.9908e-08
-2.64674e-08
-9.10011e-08
-1.52918e-07
-2.1137e-07
-2.65694e-07
-3.15926e-07
-3.6253e-07
-4.06426e-07
-4.48274e-07
-4.88567e-07
-5.27085e-07
-5.63539e-07
-5.97257e-07
-6.28112e-07
-6.55925e-07
-6.81302e-07
-7.04498e-07
-7.26317e-07
-7.46687e-07
-7.66044e-07
-7.83757e-07
-8.00134e-07
-8.1444e-07
-8.27394e-07
-8.38424e-07
-8.48718e-07
-8.57568e-07
-8.6633e-07
-8.73775e-07
-8.81362e-07
-8.87315e-07
-8.93501e-07
-8.97725e-07
-9.02571e-07
-9.05328e-07
-9.09392e-07
-9.11196e-07
-9.15016e-07
-9.16081e-07
-9.19823e-07
-9.20008e-07
-9.23692e-07
-9.22853e-07
-9.26701e-07
-9.24885e-07
-9.29343e-07
-9.26629e-07
-9.32149e-07
-9.28431e-07
-9.35376e-07
-9.3036e-07
-9.39126e-07
-9.32459e-07
-9.43627e-07
-9.34958e-07
-9.49318e-07
-9.38241e-07
-9.56738e-07
-9.42722e-07
-9.66406e-07
-9.48832e-07
-9.78831e-07
-9.57127e-07
-9.94493e-07
-9.68386e-07
-1.01356e-06
-9.83549e-07
-1.03489e-06
-1.00331e-06
-1.05325e-06
-1.02676e-06
-1.0506e-06
-1.04661e-06
-9.63857e-07
-1.02603e-06