# vtk DataFile Version 2.0
FlowField
ASCII
DATASET STRUCTURED_GRID
DIMENSIONS 400 1 50
POINTS 20000 float
0 0 0
0.08 0 0
0.16 0 0
0.24 0 0
0.32 0 0
0.4 0 0
0.48 0 0
0.56 0 0
0.64 0 0
0.72 0 0
0.8 0 0
0.88 0 0
0.96 0 0
1.04 0 0
1.12 0 0
1.2 0 0
1.28 0 0
1.36 0 0
1.44 0 0
1.52 0 0
1.6 0 0
1.68 0 0
1.76 0 0
1.84 0 0
1.92 0 0
2 0 0
2.08 0 0
2.16 0 0
2.24 0 0
2.32 0 0
2.4 0 0
2.48 0 0
2.56 0 0
2.64 0 0
2.72 0 0
2.8 0 0
2.88 0 0
2.96 0 0
3.04 0 0
3.12 0 0
3.2 0 0
3.28 0 0
3.36 0 0
3.44 0 0
3.52 0 0
3.6 0 0
3.68 0 0
3.76 0 0
3.84 0 0
3.92 0 0
4 0 0
4.08 0 0
4.16 0 0
4.24 0 0
4.32 0 0
4.4 0 0
4.48 0 0
4.56 0 0
4.64 0 0
4.72 0 0
4.8 0 0
4.88 0 0
4.96 0 0
5.04 0 0
5.12 0 0
5.2 0 0
5.28 0 0
5.36 0 0
5.44 0 0
5.52 0 0
5.6 0 0
5.68 0 0
5.76 0 0
5.84 0 0
5.92 0 0
6 0 0
6.08 0 0
6.16 0 0
6.24 0 0
6.32 0 0
6.4 0 0
6.48 0 0
6.56 0 0
6.64 0 0
6.72 0 0
6.8 0 0
6.88 0 0
6.96 0 0
7.04 0 0
7.12 0 0
7.2 0 0
7.28 0 0
7.36 0 0
7.44 0 0
7.52 0 0
7.6 0 0
7.68 0 0
7.76 0 0
7.84 0 0
7.92 0 0
8 0 0
8.08 0 0
8.16 0 0
8.24 0 0
8.32 0 0
8.4 0 0
8.48 0 0
8.56 0 0
8.64 0 0
8.72 0 0
8.8 0 0
8.88 0 0
8.96 0 0
9.04 0 0
9.12 0 0
9.2 0 0
9.28 0 0
9.36 0 0
9.44 0 0
9.52 0 0
9.6 0 0
9.68 0 0
9.76 0 0
9.84 0 0
9.92 0 0
10 0 0
10.08 0 0
10.16 0 0
10.24 0 0
10.32 0 0
10.4 0 0
10.48 0 0
10.56 0 0
10.64 0 0
10.72 0 0
10.8 0 0
10.88 0 0
10.96 0 0
11.04 0 0
11.12 0 0
11.2 0 0
11.28 0 0
11.36 0 0
11.44 0 0
11.52 0 0
11.6 0 0
11.68 0 0
11.76 0 0
11.84 0 0
11.92 0 0
12 0 0
12.08 0 0
12.16 0 0
12.24 0 0
12.32 0 0
12.4 0 0
12.48 0 0
12.56 0 0
12.64 0 0
12.72 0 0
12.8 0 0
12.88 0 0
12.96 0 0
13.04 0 0
13.12 0 0
13.2 0 0
13.28 0 0
13.36 0 0
13.44 0 0
13.52 0 0
13.6 0 0
13.68 0 0
13.76 0 0
13.84 0 0
13.92 0 0
14 0 0
14.08 0 0
14.16 0 0
14.24 0 0
14.32 0 0
14.4 0 0
14.48 0 0
14.56 0 0
14.64 0 0
14.72 0 0
14.8 0 0
14.88 0 0
14.96 0 0
15.04 0 0
15.12 0 0
15.2 0 0
15.28 0 0
15.36 0 0
15.44 0 0
15.52 0 0
15.6 0 0
15.68 0 0
15.76 0 0
15.84 0 0
15.92 0 0
16 0 0
16.08 0 0
16.16 0 0
16.24 0 0
16.32 0 0
16.4 0 0
16.48 0 0
16.56 0 0
16.64 0 0
16.72 0 0
16.8 0 0
16.88 0 0
16.96 0 0
17.04 0 0
17.12 0 0
17.2 0 0
17.28 0 0
17.36 0 0
17.44 0 0
17.52 0 0
17.6 0 0
17.68 0 0
17.76 0 0
17.84 0 0
17.92 0 0
18 0 0
18.08 0 0
18.16 0 0
18.24 0 0
18.32 0 0
18.4 0 0
18.48 0 0
18.56 0 0
18.64 0 0
18.72 0 0
18.8 0 0
18.88 0 0
18.96 0 0
19.04 0 0
19.12 0 0
19.2 0 0
19.28 0 0
19.36 0 0
19.44 0 0
19.52 0 0
19.6 0 0
19.68 0 0
19.76 0 0
19.84 0 0
19.92 0 0
20 0 0
20.08 0 0
20.16 0 0
20.24 0 0
20.32 0 0
20.4 0 0
20.48 0 0
20.56 0 0
20.64 0 0
20.72 0 0
20.8 0 0
20.88 0 0
20.96 0 0
21.04 0 0
21.12 0 0
21.2 0 0
21.28 0 0
21.36 0 0
21.44 0 0
21.52 0 0
21.6 0 0
21.68 0 0
21.76 0 0
21.84 0 0
21.92 0 0
22 0 0
22.08 0 0
22.16 0 0
22.24 0 0
22.32 0 0
22.4 0 0
22.48 0 0
22.56 0 0
22.64 0 0
22.72 0 0
22.8 0 0
22.88 0 0
22.96 0 0
23.04 0 0
23.12 0 0
23.2 0 0
23.28 0 0
23.36 0 0
23.44 0 0
23.52 0 0
23.6 0 0
23.68 0 0
23.76 0 0
23.84 0 0
23.92 0 0
24 0 0
24.08 0 0
24.16 0 0
24.24 0 0
24.32 0 0
24.4 0 0
24.48 0 0
24.56 0 0
24.64 0 0
24.72 0 0
24.8 0 0
24.88 0 0
24.96 0 0
25.04 0 0
25.12 0 0
25.2 0 0
25.28 0 0
25.36 0 0
25.44 0 0
25.52 0 0
25.6 0 0
25.68 0 0
25.76 0 0
25.84 0 0
25.92 0 0
26 0 0
26.08 0 0
26.16 0 0
26.24 0 0
26.32 0 0
26.4 0 0
26.48 0 0
26.56 0 0
26.64 0 0
26.72 0 0
26.8 0 0
26.88 0 0
26.96 0 0
27.04 0 0
27.12 0 0
27.2 0 0
27.28 0 0
27.36 0 0
27.44 0 0
27.52 0 0
27.6 0 0
27.68 0 0
27.76 0 0
27.84 0 0
27.92 0 0
28 0 0
28.08 0 0
28.16 0 0
28.24 0 0
28.32 0 0
28.4 0 0
28.48 0 0
28.56 0 0
28.64 0 0
28.72 0 0
28.8 0 0
28.88 0 0
28.96 0 0
29.04 0 0
29.12 0 0
29.2 0 0
29.28 0 0
29.36 0 0
29.44 0 0
29.52 0 0
29.6 0 0
29.68 0 0
29.76 0 0
29.84 0 0
29.92 0 0
30 0 0
30.08 0 0
30.16 0 0
30.24 0 0
30.32 0 0
30.4 0 0
30.48 0 0
30.56 0 0
30.64 0 0
30.72 0 0
30.8 0 0
30.88 0 0
30.96 0 0
31.04 0 0
31.12 0 0
31.2 0 0
31.28 0 0
31.36 0 0
31.44 0 0
31.52 0 0
31.6 0 0
31.68 0 0
31.76 0 0
31.84 0 0
31.92 0 0
0 0.02 0
0.08 0.02 0
0.16 0.02 0
0.24 0.02 0
0.32 0.02 0
0.4 0.02 0
0.48 0.02 0
0.56 0.02 0
0.64 0.02 0
0.72 0.02 0
0.8 0.02 0
0.88 0.02 0
0.96 0.02 0
1.04 0.02 0
1.12 0.02 0
1.2 0.02 0
1.28 0.02 0
1.36 0.02 0
1.44 0.02 0
1.52 0.02 0
1.6 0.02 0
1.68 0.02 0
1.76 0.02 0
1.84 0.02 0
1.92 0.02 0
2 0.02 0
2.08 0.02 0
2.16 0.02 0
2.24 0.02 0
2.32 0.02 0
2.4 0.02 0
2.48 0.02 0
2.56 0.02 0
2.64 0.02 0
2.72 0.02 0
2.8 0.02 0
2.88 0.02 0
2.96 0.02 0
3.04 0.02 0
3.12 0.02 0
3.2 0.02 0
3.28 0.02 0
3.36 0.02 0
3.44 0.02 0
3.52 0.02 0
3.6 0.02 0
3.68 0.02 0
3.76 0.02 0
3.84 0.02 0
3.92 0.02 0
4 0.02 0
4.08 0.02 0
4.16 0.02 0
4.24 0.02 0
4.32 0.02 0
4.4 0.02 0
4.48 0.02 0
4.56 0.02 0
4.64 0.02 0
4.72 0.02 0
4.8 0.02 0
4.88 0.02 0
4.96 0.02 0
5.04 0.02 0
5.12 0.02 0
5.2 0.02 0
5.28 0.02 0
5.36 0.02 0
5.44 0.02 0
5.52 0.02 0
5.6 0.02 0
5.68 0.02 0
5.76 0.02 0
5.84 0.02 0
5.92 0.02 0
6 0.02 0
6.08 0.02 0
6.16 0.02 0
6.24 0.02 0
6.32 0.02 0
6.4 0.02 0
6.48 0.02 0
6.56 0.02 0
6.64 0.02 0
6.72 0.02 0
6.8 0.02 0
6.88 0.02 0
6.96 0.02 0
7.04 0.02 0
7.12 0.02 0
7.2 0.02 0
7.28 0.02 0
7.36 0.02 0
7.44 0.02 0
7.52 0.02 0
7.6 0.02 0
7.68 0.02 0
7.76 0.02 0
7.84 0.02 0
7.92 0.02 0
8 0.02 0
8.08 0.02 0
8.16 0.02 0
8.24 0.02 0
8.32 0.02 0
8.4 0.02 0
8.48 0.02 0
8.56 0.02 0
8.64 0.02 0
8.72 0.02 0
8.8 0.02 0
8.88 0.02 0
8.96 0.02 0
9.04 0.02 0
9.12 0.02 0
9.2 0.02 0
9.28 0.02 0
9.36 0.02 0
9.44 0.02 0
9.52 0.02 0
9.6 0.02 0
9.68 0.02 0
9.76 0.02 0
9.84 0.02 0
9.92 0.02 0
10 0.02 0
10.08 0.02 0
10.16 0.02 0
10.24 0.02 0
10.32 0.02 0
10.4 0.02 0
10.48 0.02 0
10.56 0.02 0
10.64 0.02 0
10.72 0.02 0
10.8 0.02 0
10.88 0.02 0
10.96 0.02 0
11.04 0.02 0
11.12 0.02 0
11.2 0.02 0
11.28 0.02 0
11.36 0.02 0
11.44 0.02 0
11.52 0.02 0
11.6 0.02 0
11.68 0.02 0
11.76 0.02 0
11.84 0.02 0
11.92 0.02 0
12 0.02 0
12.08 0.02 0
12.16 0.02 0
12.24 0.02 0
12.32 0.02 0
12.4 0.02 0
12.48 0.02 0
12.56 0.02 0
12.64 0.02 0
12.72 0.02 0
12.8 0.02 0
12.88 0.02 0
12.96 0.02 0
13.04 0.02 0
13.12 0.02 0
13.2 0.02 0
13.28 0.02 0
13.36 0.02 0
13.44 0.02 0
13.52 0.02 0
13.6 0.02 0
13.68 0.02 0
13.76 0.02 0
13.84 0.02 0
13.92 0.02 0
14 0.02 0
14.08 0.02 0
14.16 0.02 0
14.24 0.02 0
14.32 0.02 0
14.4 0.02 0
14.48 0.02 0
14.56 0.02 0
14.64 0.02 0
14.72 0.02 0
14.8 0.02 0
14.88 0.02 0
14.96 0.02 0
15.04 0.02 0
15.12 0.02 0
15.2 0.02 0
15.28 0.02 0
15.36 0.02 0
15.44 0.02 0
15.52 0.02 0
15.6 0.02 0
15.68 0.02 0
15.76 0.02 0
15.84 0.02 0
15.92 0.02 0
16 0.02 0
16.08 0.02 0
16.16 0.02 0
16.24 0.02 0
16.32 0.02 0
16.4 0.02 0
16.48 0.02 0
16.56 0.02 0
16.64 0.02 0
16.72 0.02 0
16.8 0.02 0
16.88 0.02 0
16.96 0.02 0
17.04 0.02 0
17.12 0.02 0
17.2 0.02 0
17.28 0.02 0
17.36 0.02 0
17.44 0.02 0
17.52 0.02 0
17.6 0.02 0
17.68 0.02 0
17.76 0.02 0
17.84 0.02 0
17.92 0.02 0
18 0.02 0
18.08 0.02 0
18.16 0.02 0
18.24 0.02 0
18.32 0.02 0
18.4 0.02 0
18.48 0.02 0
18.56 0.02 0
18.64 0.02 0
18.72 0.02 0
18.8 0.02 0
18.88 0.02 0
18.96 0.02 0
19.04 0.02 0
19.12 0.02 0
19.2 0.02 0
19.28 0.02 0
19.36 0.02 0
19.44 0.02 0
19.52 0.02 0
19.6 0.02 0
19.68 0.02 0
19.76 0.02 0
19.84 0.02 0
19.92 0.02 0
20 0.02 0
20.08 0.02 0
20.16 0.02 0
20.24 0.02 0
20.32 0.02 0
20.4 0.02 0
20.48 0.02 0
20.56 0.02 0
20.64 0.02 0
20.72 0.02 0
20.8 0.02 0
20.88 0.02 0
20.96 0.02 0
21.04 0.02 0
21.12 0.02 0
21.2 0.02 0
21.28 0.02 0
21.36 0.02 0
21.44 0.02 0
21.52 0.02 0
21.6 0.02 0
21.68 0.02 0
21.76 0.02 0
21.84 0.02 0
21.92 0.02 0
22 0.02 0
22.08 0.02 0
22.16 0.02 0
22.24 0.02 0
22.32 0.02 0
22.4 0.02 0
22.48 0.02 0
22.56 0.02 0
22.64 0.02 0
22.72 0.02 0
22.8 0.02 0
22.88 0.02 0
22.96 0.02 0
23.04 0.02 0
23.12 0.02 0
23.2 0.02 0
23.28 0.02 0
23.36 0.02 0
23.44 0.02 0
23.52 0.02 0
23.6 0.02 0
23.68 0.02 0
23.76 0.02 0
23.84 0.02 0
23.92 0.02 0
24 0.02 0
24.08 0.02 0
24.16 0.02 0
24.24 0.02 0
24.32 0.02 0
24.4 0.02 0
24.48 0.02 0
24.56 0.02 0
24.64 0.02 0
24.72 0.02 0
24.8 0.02 0
24.88 0.02 0
24.96 0.02 0
25.04 0.02 0
25.12 0.02 0
25.2 0.02 0
25.28 0.02 0
25.36 0.02 0
25.44 0.02 0
25.52 0.02 0
25.6 0.02 0
25.68 0.02 0
25.76 0.02 0
25.84 0.02 0
25.92 0.02 0
26 0.02 0
26.08 0.02 0
26.16 0.02 0
26.24 0.02 0
26.32 0.02 0
26.4 0.02 0
26.48 0.02 0
26.56 0.02 0
26.64 0.02 0
26.72 0.02 0
26.8 0.02 0
26.88 0.02 0
26.96 0.02 0
27.04 0.02 0
27.12 0.02 0
27.2 0.02 0
27.28 0.02 0
27.36 0.02 0
27.44 0.02 0
27.52 0.02 0
27.6 0.02 0
27.68 0.02 0
27.76 0.02 0
27.84 0.02 0
27.92 0.02 0
28 0.02 0
28.08 0.02 0
28.16 0.02 0
28.24 0.02 0
28.32 0.02 0
28.4 0.02 0
28.48 0.02 0
28.56 0.02 0
28.64 0.02 0
28.72 0.02 0
28.8 0.02 0
28.88 0.02 0
28.96 0.02 0
29.04 0.02 0
29.12 0.02 0
29.2 0.02 0
29.28 0.02 0
29.36 0.02 0
29.44 0.02 0
29.52 0.02 0
29.6 0.02 0
29.68 0.02 0
29.76 0.02 0
29.84 0.02 0
29.92 0.02 0
30 0.02 0
30.08 0.02 0
30.16 0.02 0
30.24 0.02 0
30.32 0.02 0
30.4 0.02 0
30.48 0.02 0
30.56 0.02 0
30.64 0.02 0
30.72 0.02 0
30.8 0.02 0
30.88 0.02 0
30.96 0.02 0
31.04 0.02 0
31.12 0.02 0
31.2 0.02 0
31.28 0.02 0
31.36 0.02 0
31.44 0.02 0
31.52 0.02 0
31.6 0.02 0
31.68 0.02 0
31.76 0.02 0
31.84 0.02 0
31.92 0.02 0
0 0.04 0
0.08 0.04 0
0.16 0.04 0
0.24 0.04 0
0.32 0.04 0
0.4 0.04 0
0.48 0.04 0
0.56 0.04 0
0.64 0.04 0
0.72 0.04 0
0.8 0.04 0
0.88 0.04 0
0.96 0.04 0
1.04 0.04 0
1.12 0.04 0
1.2 0.04 0
1.28 0.04 0
1.36 0.04 0
1.44 0.04 0
1.52 0.04 0
1.6 0.04 0
1.68 0.04 0
1.76 0.04 0
1.84 0.04 0
1.92 0.04 0
2 0.04 0
2.08 0.04 0
2.16 0.04 0
2.24 0.04 0
2.32 0.04 0
2.4 0.04 0
2.48 0.04 0
2.56 0.04 0
2.64 0.04 0
2.72 0.04 0
2.8 0.04 0
2.88 0.04 0
2.96 0.04 0
3.04 0.04 0
3.12 0.04 0
3.2 0.04 0
3.28 0.04 0
3.36 0.04 0
3.44 0.04 0
3.52 0.04 0
3.6 0.04 0
3.68 0.04 0
3.76 0.04 0
3.84 0.04 0
3.92 0.04 0
4 0.04 0
4.08 0.04 0
4.16 0.04 0
4.24 0.04 0
4.32 0.04 0
4.4 0.04 0
4.48 0.04 0
4.56 0.04 0
4.64 0.04 0
4.72 0.04 0
4.8 0.04 0
4.88 0.04 0
4.96 0.04 0
5.04 0.04 0
5.12 0.04 0
5.2 0.04 0
5.28 0.04 0
5.36 0.04 0
5.44 0.04 0
5.52 0.04 0
5.6 0.04 0
5.68 0.04 0
5.76 0.04 0
5.84 0.04 0
5.92 0.04 0
6 0.04 0
6.08 0.04 0
6.16 0.04 0
6.24 0.04 0
6.32 0.04 0
6.4 0.04 0
6.48 0.04 0
6.56 0.04 0
6.64 0.04 0
6.72 0.04 0
6.8 0.04 0
6.88 0.04 0
6.96 0.04 0
7.04 0.04 0
7.12 0.04 0
7.2 0.04 0
7.28 0.04 0
7.36 0.04 0
7.44 0.04 0
7.52 0.04 0
7.6 0.04 0
7.68 0.04 0
7.76 0.04 0
7.84 0.04 0
[...]
POINT_DATA 20000

SCALARS v float 1
LOOKUP_TABLE default
0
0
0
0
0
0
0
0
0
0
0
0
0
0
0
0
0
0
0
0
0
0
0
0
0
0
0
0
0
0
0
0
0
0
0
0
0
0
0
0
0
0
0
0
0
0
0
0
0
0
0
0
0
0
0
0
0
0
0
0
0
0
0
0
0
0
0
0
0
0
0
0
0
0
0
0
0
0
0
0
0
0
0
0
0
0
0
0
0
0
0
0
0
0
0
0
0
0
0
0
0
0
0
0
0
0
0
0
0
0
0
0
0
0
0
0
0
0
0
0
0
0
0
0
0
0
0
0
0
0
0
0
0
0
0
0
0
0
0
0
0
0
0
0
0
0
0
0
0
0
0
0
0
0
0
0
0
0
0
0
0
0
0
0
0
0
0
0
0
0
0
0
0
0
0
0
0
0
0
0
0
0
0
0
0
0
0
0
0
0
0
0
0
0
0
0
0
0
0
0
0
0
0
0
0
0
0
0
0
0
0
0
0
0
0
0
0
0
0
0
0
0
0
0
0
0
0
0
0
0
0
0
0
0
0
0
0
0
0
0
0
0
0
0
0
0
0
0
0
0
0
0
0
0
0
0
0
0
0
0
0
0
0
0
0
0
0
0
0
0
0
0
0
0
0
0
0
0
0
0
0
0
0
0
0
0
0
0
0
0
0
0
0
0
0
0
0
0
0
0
0
0
0
0
0
0
0
0
0
0
0
0
0
0
0
0
0
0
0
0
0
0
0
0
0
0
0
0
0
0
0
0
0
0
0
0
0
0
0
0
0
0
0
0
0
0
0
0
0
0
0
0
0
0
0
0
0
0
0
0
0
0
0
0
0
0
0
0
0
0
0
0
0
0
0
0
0
0
0
0
0
0
0
0
0
0
0
0
0
0
0
0
0
0
0
0
0
0
0
0
-0.123218
0.123218
0.0537824
0.0194291
0.00877304
0.00507947
0.00337737
0.00242683
0.00183693
0.00144565
0.00117335
0.000976518
0.000829626
0.000716906
0.000628242
0.000556948
0.000498496
0.00044975
0.000408494
0.000373133
0.000342494
0.000315697
0.000292072
0.000271097
0.000252362
0.000235539
0.00022036
0.000206609
0.000194106
0.000182697
0.000172255
0.000162667
0.00015384
0.00014569
0.000138148
0.000131152
0.000124652
0.0001186
0.000112956
0.000107682
0.000102743
9.81075e-05
9.37483e-05
8.96419e-05
8.57692e-05
8.2114e-05
7.86625e-05
7.54012e-05
7.23164e-05
6.93935e-05
6.66183e-05
6.39776e-05
6.14609e-05
5.90605e-05
5.6771e-05
5.45884e-05
5.25085e-05
5.05261e-05
4.86341e-05
4.68238e-05
4.50855e-05
4.34106e-05
4.17932e-05
4.02323e-05
3.87301e-05
3.72902e-05
3.59136e-05
3.45968e-05
3.33321e-05
3.2111e-05
3.0927e-05
2.97772e-05
2.86619e-05
2.75829e-05
2.65427e-05
2.55436e-05
2.45875e-05
2.36736e-05
2.27964e-05
2.19451e-05
2.1107e-05
2.02737e-05
1.94463e-05
1.86364e-05
1.78597e-05
1.7127e-05
1.64376e-05
1.57795e-05
1.51365e-05
1.44963e-05
1.38559e-05
1.32209e-05
1.26e-05
1.20011e-05
1.14291e-05
1.08868e-05
1.03739e-05
9.88583e-06
9.41144e-06
8.93461e-06
8.44087e-06
7.92625e-06
7.4025e-06
6.89357e-06
6.42397e-06
6.00506e-06
5.6279e-06
5.26726e-06
4.89475e-06
4.49308e-06
4.06353e-06
3.62301e-06
3.19409e-06
2.79435e-06
2.43066e-06
2.09896e-06
1.78708e-06
1.47748e-06
1.14976e-06
7.84968e-07
3.7307e-07
-7.87539e-08
-5.43115e-07
-9.80084e-07
-1.35522e-06
-1.65988e-06
-1.9214e-06
-2.19444e-06
-2.5349e-06
-2.96914e-06
-3.47607e-06
-3.99398e-06
-4.45067e-06
-4.80143e-06
-5.05421e-06
-5.26732e-06
-5.52023e-06
-5.87273e-06
-6.33427e-06
-6.85956e-06
-7.37229e-06
-7.80384e-06
-8.12639e-06
-8.36402e-06
-8.57742e-06
-8.83165e-06
-9.16427e-06
-9.56943e-06
-1.00042e-05
-1.04121e-05
-1.07504e-05
-1.10086e-05
-1.12092e-05
-1.1394e-05
-1.16027e-05
-1.18559e-05
-1.21484e-05
-1.24552e-05
-1.27456e-05
-1.29969e-05
-1.3203e-05
-1.33743e-05
-1.35302e-05
-1.36897e-05
-1.38626e-05
-1.40477e-05
-1.42343e-05
-1.4409e-05
-1.45614e-05
-1.46884e-05
-1.47943e-05
-1.48885e-05
-1.49812e-05
-1.50794e-05
-1.51851e-05
-1.5295e-05
-1.54031e-05
-1.55025e-05
-1.55881e-05
-1.56581e-05
-1.5714e-05
-1.57596e-05
-1.57993e-05
-1.58373e-05
-1.58763e-05
-1.59172e-05
-1.59595e-05
-1.60018e-05
-1.60426e-05
-1.60806e-05
-1.61153e-05
-1.6147e-05
-1.61763e-05
-1.62041e-05
-1.62313e-05
-1.62588e-05
-1.62869e-05
-1.63157e-05
-1.63451e-05
-1.6375e-05
-1.64051e-05
-1.64351e-05
-1.6465e-05
-1.64946e-05
-1.65241e-05
-1.65534e-05
-1.65827e-05
-1.6612e-05
-1.66414e-05
-1.66709e-05
-1.67005e-05
-1.67302e-05
-1.676e-05
-1.67898e-05
-1.68197e-05
-1.68496e-05
-1.68796e-05
-1.69095e-05
-1.69394e-05
-1.69694e-05
-1.69994e-05
-1.70293e-05
-1.70594e-05
-1.70894e-05
-1.71194e-05
-1.71495e-05
-1.71795e-05
-1.72096e-05
-1.72397e-05
-1.72697e-05
-1.72998e-05
-1.73299e-05
-1.736e-05
-1.739e-05
-1.74201e-05
-1.74502e-05
-1.74802e-05
-1.75102e-05
-1.75402e-05
-1.75702e-05
-1.76002e-05
-1.76301e-05
-1.766e-05
-1.76899e-05
-1.77198e-05
-1.77496e-05
-1.77794e-05
-1.78092e-05
-1.78389e-05
-1.78686e-05
-1.78982e-05
-1.79278e-05
-1.79574e-05
-1.79868e-05
-1.80163e-05
-1.80457e-05
-1.8075e-05
-1.81043e-05
-1.81335e-05
-1.81627e-05
-1.81917e-05
-1.82208e-05
-1.82497e-05
-1.82786e-05
-1.83074e-05
-1.83361e-05
-1.83648e-05
-1.83933e-05
-1.84218e-05
-1.84502e-05
-1.84785e-05
-1.85067e-05
-1.85348e-05
-1.85629e-05
-1.85908e-05
-1.86186e-05
-1.86464e-05
-1.8674e-05
-1.87015e-05
-1.87289e-05
-1.87562e-05
-1.87834e-05
-1.88105e-05
-1.88374e-05
-1.88642e-05
-1.88909e-05
-1.89175e-05
-1.8944e-05
-1.89703e-05
-1.89965e-05
-1.90226e-05
-1.90485e-05
-1.90743e-05
-1.91e-05
-1.91255e-05
-1.91508e-05
-1.9176e-05
-1.92011e-05
-1.9226e-05
-1.92508e-05
-1.92754e-05
-1.92999e-05
-1.93242e-05
-1.93483e-05
-1.93723e-05
-1.93961e-05
-1.94197e-05
-1.94432e-05
-1.94664e-05
-1.94896e-05
-1.95125e-05
-1.95353e-05
-1.95579e-05
-1.95803e-05
-1.96025e-05
-1.96245e-05
-1.96463e-05
-1.9668e-05
-1.96895e-05
-1.97107e-05
-1.97318e-05
-1.97527e-05
-1.97733e-05
-1.97938e-05
-1.98141e-05
-1.98342e-05
-1.9854e-05
-1.98737e-05
-1.98931e-05
-1.99124e-05
-1.99313e-05
-1.99502e-05
-1.99687e-05
-1.99871e-05
-2.00052e-05
-2.00232e-05
-2.00408e-05
-2.00584e-05
-2.00755e-05
-2.00927e-05
-2.01092e-05
-2.0126e-05
-2.01421e-05
-2.01585e-05
-2.01739e-05
-2.019e-05
-2.02049e-05
-2.02206e-05
-2.02348e-05
-2.02502e-05
-2.02637e-05
-2.02789e-05
-2.02917e-05
-2.03067e-05
-2.03186e-05
-2.03336e-05
-2.03444e-05
-2.03595e-05
-2.03692e-05
-2.03846e-05
-2.03929e-05
-2.04088e-05
-2.04154e-05
-2.04322e-05
-2.04367e-05
-2.04549e-05
-2.04568e-05
-2.0477e-05
-2.04756e-05
-2.04986e-05
-2.0493e-05
-2.05198e-05
-2.05089e-05
-2.0541e-05
-2.05233e-05
-2.05624e-05
-2.0536e-05
-2.05843e-05
-2.05467e-05
-2.06075e-05
-2.05551e-05
-2.06327e-05
-2.05606e-05
-2.06612e-05
-2.05625e-05
-2.06942e-05
-2.05598e-05
-2.07321e-05
-2.05532e-05
-2.07718e-05
-2.05467e-05
-2.07999e-05
-2.05527e-05
-2.07757e-05
-2.05943e-05
-2.05714e-05
-2.0669e-05
-1.93715e-05
-1.9082e-05
-1.9082e-05
-0.142145
0.142145
0.100994
0.053902
0.0302449
0.0189064
0.0129153
0.00940042
0.00716725
0.00566416
0.00460753
0.00383842
0.00326182
0.00281822
0.00246895
0.00218819
0.00195827
0.00176687
0.00160522
0.00146699
0.00134747
0.00124316
0.00115137
0.00107002
0.000997469
0.000932414
0.000873794
0.000820747
0.000772554
0.000728616
0.000688426
0.000651548
0.000617611
0.000586298
0.000557333
0.000530481
0.000505538
0.000482323
0.000460674
0.000440446
0.000421505
0.000403736
0.000387034
0.000371311
0.000356494
0.000342518
0.000329324
0.000316859
0.000305066
0.000293891
0.00028328
0.000273188
0.000263577
0.000254417
0.000245686
0.000237365
0.000229435
0.000221871
0.000214646
0.00020773
0.00020109
0.000194699
0.000188542
0.000182615
0.000176921
0.000171465
0.000166245
0.000161242
0.00015643
0.000151784
0.000147285
0.000142926
0.000138709
0.000134637
0.000130716
0.00012695
0.000123339
0.000119874
0.000116534
0.000113286
0.000110095
0.000106945
0.000103848
0.000100841
9.79638e-05
9.52371e-05
9.26478e-05
9.01553e-05
8.77134e-05
8.52936e-05
8.28945e-05
8.05356e-05
7.8243e-05
7.60365e-05
7.39268e-05
7.1916e-05
6.99972e-05
6.81499e-05
6.63377e-05
6.45164e-05
6.26546e-05
6.07553e-05
5.88629e-05
5.7047e-05
5.53661e-05
5.38338e-05
5.24078e-05
5.101e-05
4.95659e-05
4.80411e-05
4.64542e-05
4.4861e-05
4.33239e-05
4.18835e-05
4.05471e-05
3.92911e-05
3.80719e-05
3.68346e-05
3.55235e-05
3.40953e-05
3.254e-05
3.08985e-05
2.92608e-05
2.77354e-05
2.63962e-05
2.52344e-05
2.4146e-05
2.29727e-05
2.15808e-05
1.99384e-05
1.81446e-05
1.63889e-05
1.48559e-05
1.36273e-05
1.26328e-05
1.16821e-05
1.05612e-05
9.14253e-06
7.45076e-06
5.64936e-06
3.95676e-06
2.53738e-06
1.4244e-06
5.11853e-07
-3.84084e-07
-1.42983e-06
-2.69491e-06
-4.1259e-06
-5.58168e-06
-6.90721e-06
-8.00645e-06
-8.88011e-06
-9.61451e-06
-1.03325e-05
-1.11343e-05
-1.20558e-05
-1.30621e-05
-1.40723e-05
-1.5002e-05
-1.57995e-05
-1.64631e-05
-1.70331e-05
-1.7568e-05
-1.81156e-05
-1.86952e-05
-1.92936e-05
-1.98766e-05
-2.0407e-05
-2.08612e-05
-2.12377e-05
-2.15548e-05
-2.18419e-05
-2.21261e-05
-2.24235e-05
-2.27346e-05
-2.30467e-05
-2.33403e-05
-2.35972e-05
-2.38061e-05
-2.39656e-05
-2.40831e-05
-2.41715e-05
-2.42448e-05
-2.43143e-05
-2.43864e-05
-2.44625e-05
-2.45403e-05
-2.46152e-05
-2.46832e-05
-2.47413e-05
-2.47889e-05
-2.48272e-05
-2.48588e-05
-2.48866e-05
-2.49134e-05
-2.49412e-05
-2.49709e-05
-2.50027e-05
-2.50361e-05
-2.50705e-05
-2.5105e-05
-2.51392e-05
-2.51726e-05
-2.52052e-05
-2.52372e-05
-2.52687e-05
-2.53001e-05
-2.53315e-05
-2.53631e-05
-2.5395e-05
-2.54271e-05
-2.54595e-05
-2.5492e-05
-2.55246e-05
-2.55573e-05
-2.55899e-05
-2.56226e-05
-2.56552e-05
-2.56877e-05
-2.57203e-05
-2.57529e-05
-2.57854e-05
-2.5818e-05
-2.58506e-05
-2.58833e-05
-2.59159e-05
-2.59486e-05
-2.59813e-05
-2.60139e-05
-2.60466e-05
-2.60793e-05
-2.61119e-05
-2.61446e-05
-2.61772e-05
-2.62099e-05
-2.62425e-05
-2.62751e-05
-2.63077e-05
-2.63402e-05
-2.63728e-05
-2.64053e-05
-2.64378e-05
-2.64702e-05
-2.65026e-05
-2.6535e-05
-2.65674e-05
-2.65997e-05
-2.66319e-05
-2.66641e-05
-2.66963e-05
-2.67284e-05
-2.67605e-05
-2.67925e-05
-2.68245e-05
-2.68564e-05
-2.68882e-05
-2.692e-05
-2.69517e-05
-2.69833e-05
-2.70149e-05
-2.70464e-05
-2.70778e-05
-2.71091e-05
-2.71404e-05
-2.71715e-05
-2.72026e-05
-2.72336e-05
-2.72645e-05
-2.72953e-05
-2.73261e-05
-2.73567e-05
-2.73872e-05
-2.74176e-05
-2.74479e-05
-2.74781e-05
-2.75082e-05
-2.75382e-05
-2.7568e-05
-2.75977e-05
-2.76274e-05
-2.76569e-05
-2.76862e-05
-2.77155e-05
-2.77446e-05
-2.77736e-05
-2.78024e-05
-2.78311e-05
-2.78597e-05
-2.78881e-05
-2.79164e-05
-2.79445e-05
-2.79725e-05
-2.80003e-05
-2.8028e-05
-2.80555e-05
-2.80829e-05
-2.81101e-05
-2.81371e-05
-2.8164e-05
-2.81907e-05
-2.82172e-05
-2.82435e-05
-2.82697e-05
-2.82957e-05
-2.83215e-05
-2.83472e-05
-2.83726e-05
-2.83979e-05
-2.8423e-05
-2.84479e-05
-2.84726e-05
-2.84971e-05
-2.85213e-05
-2.85455e-05
-2.85693e-05
-2.8593e-05
-2.86165e-05
-2.86398e-05
-2.86629e-05
-2.86857e-05
-2.87083e-05
-2.87308e-05
-2.8753e-05
-2.8775e-05
-2.87967e-05
-2.88183e-05
-2.88395e-05
-2.88607e-05
-2.88814e-05
-2.89022e-05
-2.89224e-05
-2.89427e-05
-2.89624e-05
-2.89823e-05
-2.90015e-05
-2.9021e-05
-2.90395e-05
-2.90586e-05
-2.90766e-05
-2.90954e-05
-2.91126e-05
-2.91311e-05
-2.91476e-05
-2.91658e-05
-2.91815e-05
-2.91996e-05
-2.92144e-05
-2.92324e-05
-2.92461e-05
-2.92642e-05
-2.92767e-05
-2.92951e-05
-2.93062e-05
-2.93251e-05
-2.93344e-05
-2.93543e-05
-2.93614e-05
-2.93826e-05
-2.93871e-05
-2.94103e-05
-2.94114e-05
-2.94374e-05
-2.94342e-05
-2.94643e-05
-2.94555e-05
-2.9491e-05
-2.94749e-05
-2.95181e-05
-2.94925e-05
-2.95458e-05
-2.95079e-05
-2.95749e-05
-2.9521e-05
-2.96059e-05
-2.95314e-05
-2.964e-05
-2.95388e-05
-2.96785e-05
-2.95425e-05
-2.97234e-05
-2.95413e-05
-2.97776e-05
-2.95335e-05
-2.9845e-05
-2.95164e-05
-2.993e-05
-2.94877e-05
-3.00341e-05
-2.94486e-05
-3.01479e-05
-2.94112e-05
-3.02296e-05
-2.94107e-05
-3.01553e-05
-2.95059e-05
-2.95417e-05
-2.9635e-05
-2.61612e-05
-2.58897e-05
-2.58897e-05
-0.122219
0.122219
0.121653
0.0822565
0.0539828
0.0368513
0.0263799
0.0197025
0.0152513
0.0121655
0.00995358
0.00832161
0.00708647
0.00612989
0.00537337
0.00476351
0.0042633
0.0038466
0.00349463
0.00319371
0.00293366
0.00270683
0.00250735
0.00233066
0.00217318
0.00203203
0.0019049
0.0017899
0.00168546
0.00159026
0.0015032
0.00142332
0.00134983
0.00128203
0.00121932
0.00116119
0.00110719
0.00105693
0.00101006
0.000966265
0.000925255
0.000886783
0.00085063
0.000816607
0.00078455
0.000754319
0.000725782
0.000698818
0.000673304
0.000649123
0.000626164
0.00060433
0.000583542
0.000563735
0.00054486
0.000526869
0.000509716
0.000493348
0.000477707
0.000462729
0.000448353
0.000434528
0.000421223
0.000408427
0.000396145
0.000384376
0.000373104
0.000362292
0.000351887
0.000341841
0.000332121
0.000322715
0.000313623
0.000304852
0.000296406
0.000288288
0.000280491
0.000272995
0.000265755
0.000258711
0.000251807
0.000245021
0.000238381
0.000231952
0.0002258
0.00021995
0.000214368
0.000208975
0.00020369
0.000198471
0.000193319
0.000188275
0.000183383
0.000178673
0.000174161
0.000169842
0.000165698
0.000161686
0.00015774
0.000153786
0.000149779
0.000145738
0.000141749
0.000137932
0.000134378
0.000131091
0.000127981
0.000124905
0.000121741
0.000118442
0.000115054
0.000111683
0.000108433
0.000105366
0.000102478
9.97163e-05
9.69962e-05
9.42193e-05
9.12929e-05
8.81546e-05
8.48061e-05
8.1337e-05
7.7913e-05
7.47151e-05
7.18477e-05
6.92634e-05
6.67589e-05
6.40587e-05
6.09567e-05
5.74392e-05
5.37151e-05
5.01247e-05
4.69676e-05
4.43408e-05
4.20773e-05
3.9825e-05
3.72256e-05
3.41003e-05
3.05427e-05
2.68703e-05
2.34632e-05
2.05765e-05
1.82227e-05
1.6181e-05
1.41219e-05
1.17751e-05
9.05719e-06
6.0975e-06
3.16002e-06
5.08239e-07
-1.71627e-06
-3.54578e-06
-5.15222e-06
-6.75325e-06
-8.50949e-06
-1.04609e-05
-1.25258e-05
-1.45537e-05
-1.64009e-05
-1.79908e-05
-1.93363e-05
-2.05193e-05
-2.16441e-05
-2.27893e-05
-2.39788e-05
-2.51809e-05
-2.63318e-05
-2.73683e-05
-2.82555e-05
-2.89984e-05
-2.96353e-05
-3.02191e-05
-3.07959e-05
-3.13888e-05
-3.19936e-05
-3.25843e-05
-3.31259e-05
-3.3588e-05
-3.39548e-05
-3.42282e-05
-3.44253e-05
-3.45714e-05
-3.46919e-05
-3.48061e-05
-3.49243e-05
-3.50473e-05
-3.517e-05
-3.52844e-05
-3.53832e-05
-3.54623e-05
-3.55214e-05
-3.55638e-05
-3.55946e-05
-3.56195e-05
-3.56432e-05
-3.56691e-05
-3.56988e-05
-3.57321e-05
-3.57682e-05
-3.58056e-05
-3.5843e-05
-3.58794e-05
-3.59143e-05
-3.59476e-05
-3.59798e-05
-3.60112e-05
-3.60423e-05
-3.60736e-05
-3.61052e-05
-3.61373e-05
-3.61699e-05
-3.62028e-05
-3.62359e-05
-3.62692e-05
-3.63025e-05
-3.63357e-05
-3.63689e-05
-3.6402e-05
-3.6435e-05
-3.64679e-05
-3.65009e-05
-3.65339e-05
-3.65669e-05
-3.65999e-05
-3.66329e-05
-3.66659e-05
-3.6699e-05
-3.67321e-05
-3.67652e-05
-3.67982e-05
-3.68313e-05
-3.68644e-05
-3.68974e-05
-3.69304e-05
-3.69635e-05
-3.69964e-05
-3.70294e-05
-3.70624e-05
-3.70953e-05
-3.71282e-05
-3.71611e-05
-3.71939e-05
-3.72267e-05
-3.72595e-05
-3.72922e-05
-3.73249e-05
-3.73575e-05
-3.73901e-05
-3.74227e-05
-3.74552e-05
-3.74876e-05
-3.752e-05
-3.75523e-05
-3.75846e-05
-3.76168e-05
-3.7649e-05
-3.76811e-05
-3.77131e-05
-3.7745e-05
-3.77769e-05
-3.78087e-05
-3.78404e-05
-3.7872e-05
-3.79035e-05
-3.7935e-05
-3.79664e-05
-3.79976e-05
-3.80288e-05
-3.80599e-05
-3.80909e-05
-3.81218e-05
-3.81526e-05
-3.81832e-05
-3.82138e-05
-3.82442e-05
-3.82746e-05
-3.83048e-05
-3.83349e-05
-3.83649e-05
-3.83948e-05
-3.84245e-05
-3.84541e-05
-3.84836e-05
-3.85129e-05
-3.85422e-05
-3.85712e-05
-3.86002e-05
-3.86289e-05
-3.86576e-05
-3.86861e-05
-3.87144e-05
-3.87426e-05
-3.87707e-05
-3.87985e-05
-3.88263e-05
-3.88538e-05
-3.88812e-05
-3.89084e-05
-3.89355e-05
-3.89624e-05
-3.89891e-05
-3.90156e-05
-3.9042e-05
-3.90682e-05
-3.90941e-05
-3.912e-05
-3.91456e-05
-3.9171e-05
-3.91962e-05
-3.92213e-05
-3.92461e-05
-3.92708e-05
-3.92952e-05
-3.93195e-05
-3.93435e-05
-3.93673e-05
-3.93909e-05
-3.94144e-05
-3.94375e-05
-3.94605e-05
-3.94832e-05
-3.95058e-05
-3.9528e-05
-3.95502e-05
-3.9572e-05
-3.95938e-05
-3.9615e-05
-3.96364e-05
-3.9657e-05
-3.9678e-05
-3.96981e-05
-3.97187e-05
-3.97383e-05
-3.97585e-05
-3.97774e-05
-3.97973e-05
-3.98155e-05
-3.98352e-05
-3.98526e-05
-3.9872e-05
-3.98886e-05
-3.99079e-05
-3.99236e-05
-3.99429e-05
-3.99574e-05
-3.99769e-05
-3.99901e-05
-4.001e-05
-4.00216e-05
-4.00422e-05
-4.00519e-05
-4.00736e-05
-4.00809e-05
-4.01042e-05
-4.01086e-05
-4.01342e-05
-4.01349e-05
-4.01636e-05
-4.01596e-05
-4.01929e-05
-4.01827e-05
-4.02221e-05
-4.0204e-05
-4.02518e-05
-4.02232e-05
-4.02825e-05
-4.024e-05
-4.03149e-05
-4.02542e-05
-4.03499e-05
-4.02654e-05
-4.03885e-05
-4.02731e-05
-4.04322e-05
-4.02769e-05
-4.0483e-05
-4.02759e-05
-4.05438e-05
-4.02687e-05
-4.06187e-05
-4.02532e-05
-4.07136e-05
-4.02256e-05
-4.08364e-05
-4.01811e-05
-4.09955e-05
-4.01153e-05
-4.11942e-05
-4.0031e-05
-4.14144e-05
-3.99507e-05
-4.15796e-05
-3.99329e-05
-4.14711e-05
-4.0056e-05
-4.04417e-05
-4.00906e-05
-3.50999e-05
-3.38481e-05
-3.38481e-05
-0.0942722
0.0942722
0.121006
0.0969584
0.0717817
0.0531855
0.0401877
0.0310976
0.0246433
0.0199703
0.0165169
0.0139125
0.0119094
0.0103395
0.00908687
0.00807048
0.00723283
0.00653262
0.00593973
0.00543192
0.00499251
0.00460887
0.00427124
0.00397202
0.00370519
0.00346596
0.00325042
0.00305538
0.00287819
0.00271663
0.00256883
0.0024332
0.00230837
0.00219317
0.0020866
0.00198779
0.00189598
0.00181051
0.00173076
0.00165623
0.00158642
0.00152092
0.00145936
0.00140143
0.00134685
0.00129537
0.00124678
0.00120085
0.00115738
0.00111617
0.00107705
0.00103984
0.00100441
0.000970659
0.000938491
0.000907824
0.000878573
0.000850648
0.000823951
0.000798382
0.000773844
0.000750258
0.000727573
0.000705771
0.000684848
0.000664795
0.00064558
0.000627136
0.000609381
0.000592242
0.000575667
0.000559638
0.000544153
0.000529217
0.000514831
0.000500992
0.000487685
0.000474874
0.00046249
0.000450443
0.000438657
0.000427105
0.000415832
0.000404932
0.000394496
0.000384549
0.000375029
0.000365817
0.000356795
0.000347903
0.000339154
0.000330606
0.000322322
0.000314343
0.00030668
0.000299324
0.000292241
0.000285364
0.000278598
0.000271839
0.000265031
0.000258211
0.000251511
0.000245103
0.000239103
0.000233503
0.000228156
0.00022285
0.000217411
0.000211788
0.000206058
0.000200379
0.000194898
0.00018969
0.000184737
0.00017995
0.000175199
0.000170343
0.000165257
0.000159862
0.000154179
0.00014835
0.000142618
0.000137237
0.000132335
0.000127818
0.000123376
0.000118613
0.000113256
0.000107321
0.000101138
9.52075e-05
8.99411e-05
8.54402e-05
8.14259e-05
7.7373e-05
7.2779e-05
6.74254e-05
6.14928e-05
5.54692e-05
4.99029e-05
4.51336e-05
4.11381e-05
3.75653e-05
3.39303e-05
2.98617e-05
2.52737e-05
2.03867e-05
1.55986e-05
1.12836e-05
7.62198e-06
4.53788e-06
1.76285e-06
-1.02049e-06
-4.03056e-06
-7.30292e-06
-1.06995e-05
-1.39936e-05
-1.69808e-05
-1.95639e-05
-2.17773e-05
-2.37506e-05
-2.5638e-05
-2.75485e-05
-2.95076e-05
-3.14617e-05
-3.33146e-05
-3.49772e-05
-3.64053e-05
-3.76134e-05
-3.86624e-05
-3.96307e-05
-4.05824e-05
-4.15463e-05
-4.2511e-05
-4.34353e-05
-4.4268e-05
-4.49677e-05
-4.55159e-05
-4.59207e-05
-4.62114e-05
-4.64275e-05
-4.66069e-05
-4.67774e-05
-4.69522e-05
-4.71314e-05
-4.73061e-05
-4.74645e-05
-4.75966e-05
-4.76973e-05
-4.77674e-05
-4.78125e-05
-4.78411e-05
-4.78618e-05
-4.78817e-05
-4.79054e-05
-4.7935e-05
-4.797e-05
-4.80089e-05
-4.80492e-05
-4.80892e-05
-4.81274e-05
-4.81631e-05
-4.81965e-05
-4.82282e-05
-4.82587e-05
-4.8289e-05
-4.83194e-05
-4.83505e-05
-4.83822e-05
-4.84147e-05
-4.84476e-05
-4.84809e-05
-4.85143e-05
-4.85477e-05
-4.8581e-05
-4.86141e-05
-4.86471e-05
-4.868e-05
-4.87128e-05
-4.87456e-05
-4.87784e-05
-4.88112e-05
-4.8844e-05
-4.88769e-05
-4.89098e-05
-4.89427e-05
-4.89756e-05
-4.90085e-05
-4.90414e-05
-4.90743e-05
-4.91072e-05
-4.91401e-05
-4.91729e-05
-4.92058e-05
-4.92386e-05
-4.92714e-05
-4.93041e-05
-4.93368e-05
-4.93695e-05
-4.94022e-05
-4.94348e-05
-4.94674e-05
-4.95e-05
-4.95325e-05
-4.95649e-05
-4.95974e-05
-4.96297e-05
-4.96621e-05
-4.96944e-05
-4.97266e-05
-4.97587e-05
-4.97909e-05
-4.98229e-05
-4.98549e-05
-4.98868e-05
-4.99186e-05
-4.99504e-05
-4.99821e-05
-5.00138e-05
-5.00453e-05
-5.00768e-05
-5.01082e-05
-5.01395e-05
-5.01707e-05
-5.02018e-05
-5.02329e-05
-5.02638e-05
-5.02946e-05
-5.03254e-05
-5.0356e-05
-5.03866e-05
-5.0417e-05
-5.04473e-05
-5.04776e-05
-5.05077e-05
-5.05376e-05
-5.05675e-05
-5.05973e-05
-5.06269e-05
-5.06564e-05
-5.06857e-05
-5.0715e-05
-5.07441e-05
-5.07731e-05
-5.08019e-05
-5.08306e-05
-5.08591e-05
-5.08875e-05
-5.09158e-05
-5.09439e-05
-5.09719e-05
-5.09997e-05
-5.10273e-05
-5.10548e-05
-5.10821e-05
-5.11093e-05
-5.11363e-05
-5.11631e-05
-5.11898e-05
-5.12163e-05
-5.12426e-05
-5.12687e-05
-5.12946e-05
-5.13204e-05
-5.1346e-05
-5.13714e-05
-5.13966e-05
-5.14216e-05
-5.14464e-05
-5.1471e-05
-5.14955e-05
-5.15197e-05
-5.15437e-05
-5.15675e-05
-5.15912e-05
-5.16145e-05
-5.16377e-05
-5.16606e-05
-5.16835e-05
-5.17059e-05
-5.17284e-05
-5.17503e-05
-5.17723e-05
-5.17938e-05
-5.18154e-05
-5.18363e-05
-5.18576e-05
-5.18779e-05
-5.18989e-05
-5.19186e-05
-5.19392e-05
-5.19582e-05
-5.19786e-05
-5.19969e-05
-5.2017e-05
-5.20345e-05
-5.20545e-05
-5.20711e-05
-5.2091e-05
-5.21066e-05
-5.21267e-05
-5.21409e-05