# vtk DataFile Version 2.0
FlowField
ASCII
DATASET STRUCTURED_GRID
DIMENSIONS 400 1 50
POINTS 20000 float
0 0 0
0.08 0 0
0.16 0 0
0.24 0 0
0.32 0 0
0.4 0 0
0.48 0 0
0.56 0 0
0.64 0 0
0.72 0 0
0.8 0 0
0.88 0 0
0.96 0 0
1.04 0 0
1.12 0 0
1.2 0 0
1.28 0 0
1.36 0 0
1.44 0 0
1.52 0 0
1.6 0 0
1.68 0 0
1.76 0 0
1.84 0 0
1.92 0 0
2 0 0
2.08 0 0
2.16 0 0
2.24 0 0
2.32 0 0
2.4 0 0
2.48 0 0
2.56 0 0
2.64 0 0
2.72 0 0
2.8 0 0
2.88 0 0
2.96 0 0
3.04 0 0
3.12 0 0
3.2 0 0
3.28 0 0
3.36 0 0
3.44 0 0
3.52 0 0
3.6 0 0
3.68 0 0
3.76 0 0
3.84 0 0
3.92 0 0
4 0 0
4.08 0 0
4.16 0 0
4.24 0 0
4.32 0 0
4.4 0 0
4.48 0 0
4.56 0 0
4.64 0 0
4.72 0 0
4.8 0 0
4.88 0 0
4.96 0 0
5.04 0 0
5.12 0 0
5.2 0 0
5.28 0 0
5.36 0 0
5.44 0 0
5.52 0 0
5.6 0 0
5.68 0 0
5.76 0 0
5.84 0 0
5.92 0 0
6 0 0
6.08 0 0
6.16 0 0
6.24 0 0
6.32 0 0
6.4 0 0
6.48 0 0
6.56 0 0
6.64 0 0
6.72 0 0
6.8 0 0
6.88 0 0
6.96 0 0
7.04 0 0
7.12 0 0
7.2 0 0
7.28 0 0
7.36 0 0
7.44 0 0
7.52 0 0
7.6 0 0
7.68 0 0
7.76 0 0
7.84 0 0
7.92 0 0
8 0 0
8.08 0 0
8.16 0 0
8.24 0 0
8.32 0 0
8.4 0 0
8.48 0 0
8.56 0 0
8.64 0 0
8.72 0 0
8.8 0 0
8.88 0 0
8.96 0 0
9.04 0 0
9.12 0 0
9.2 0 0
9.28 0 0
9.36 0 0
9.44 0 0
9.52 0 0
9.6 0 0
9.68 0 0
9.76 0 0
9.84 0 0
9.92 0 0
10 0 0
10.08 0 0
10.16 0 0
10.24 0 0
10.32 0 0
10.4 0 0
10.48 0 0
10.56 0 0
10.64 0 0
10.72 0 0
10.8 0 0
10.88 0 0
10.96 0 0
11.04 0 0
11.12 0 0
11.2 0 0
11.28 0 0
11.36 0 0
11.44 0 0
11.52 0 0
11.6 0 0
11.68 0 0
11.76 0 0
11.84 0 0
11.92 0 0
12 0 0
12.08 0 0
12.16 0 0
12.24 0 0
12.32 0 0
12.4 0 0
12.48 0 0
12.56 0 0
12.64 0 0
12.72 0 0
12.8 0 0
12.88 0 0
12.96 0 0
13.04 0 0
13.12 0 0
13.2 0 0
13.28 0 0
13.36 0 0
13.44 0 0
13.52 0 0
13.6 0 0
13.68 0 0
13.76 0 0
13.84 0 0
13.92 0 0
14 0 0
14.08 0 0
14.16 0 0
14.24 0 0
14.32 0 0
14.4 0 0
14.48 0 0
14.56 0 0
14.64 0 0
14.72 0 0
14.8 0 0
14.88 0 0
14.96 0 0
15.04 0 0
15.12 0 0
15.2 0 0
15.28 0 0
15.36 0 0
15.44 0 0
15.52 0 0
15.6 0 0
15.68 0 0
15.76 0 0
15.84 0 0
15.92 0 0
16 0 0
16.08 0 0
16.16 0 0
16.24 0 0
16.32 0 0
16.4 0 0
16.48 0 0
16.56 0 0
16.64 0 0
16.72 0 0
16.8 0 0
16.88 0 0
16.96 0 0
17.04 0 0
17.12 0 0
17.2 0 0
17.28 0 0
17.36 0 0
17.44 0 0
17.52 0 0
17.6 0 0
17.68 0 0
17.76 0 0
17.84 0 0
17.92 0 0
18 0 0
18.08 0 0
18.16 0 0
18.24 0 0
18.32 0 0
18.4 0 0
18.48 0 0
18.56 0 0
18.64 0 0
18.72 0 0
18.8 0 0
18.88 0 0
18.96 0 0
19.04 0 0
19.12 0 0
19.2 0 0
19.28 0 0
19.36 0 0
19.44 0 0
19.52 0 0
19.6 0 0
19.68 0 0
19.76 0 0
19.84 0 0
19.92 0 0
20 0 0
20.08 0 0
20.16 0 0
20.24 0 0
20.32 0 0
20.4 0 0
20.48 0 0
20.56 0 0
20.64 0 0
20.72 0 0
20.8 0 0
20.88 0 0
20.96 0 0
21.04 0 0
21.12 0 0
21.2 0 0
21.28 0 0
21.36 0 0
21.44 0 0
21.52 0 0
21.6 0 0
21.68 0 0
21.76 0 0
21.84 0 0
21.92 0 0
22 0 0
22.08 0 0
22.16 0 0
22.24 0 0
22.32 0 0
22.4 0 0
22.48 0 0
22.56 0 0
22.64 0 0
22.72 0 0
22.8 0 0
22.88 0 0
22.96 0 0
23.04 0 0
23.12 0 0
23.2 0 0
23.28 0 0
23.36 0 0
23.44 0 0
23.52 0 0
23.6 0 0
23.68 0 0
23.76 0 0
23.84 0 0
23.92 0 0
24 0 0
24.08 0 0
24.16 0 0
24.24 0 0
24.32 0 0
24.4 0 0
24.48 0 0
24.56 0 0
24.64 0 0
24.72 0 0
24.8 0 0
24.88 0 0
24.96 0 0
25.04 0 0
25.12 0 0
25.2 0 0
25.28 0 0
25.36 0 0
25.44 0 0
25.52 0 0
25.6 0 0
25.68 0 0
25.76 0 0
25.84 0 0
25.92 0 0
26 0 0
26.08 0 0
26.16 0 0
26.24 0 0
26.32 0 0
26.4 0 0
26.48 0 0
26.56 0 0
26.64 0 0
26.72 0 0
26.8 0 0
26.88 0 0
26.96 0 0
27.04 0 0
27.12 0 0
27.2 0 0
27.28 0 0
27.36 0 0
27.44 0 0
27.52 0 0
27.6 0 0
27.68 0 0
27.76 0 0
27.84 0 0
27.92 0 0
28 0 0
28.08 0 0
28.16 0 0
28.24 0 0
28.32 0 0
28.4 0 0
28.48 0 0
28.56 0 0
28.64 0 0
28.72 0 0
28.8 0 0
28.88 0 0
28.96 0 0
29.04 0 0
29.12 0 0
29.2 0 0
29.28 0 0
29.36 0 0
29.44 0 0
29.52 0 0
29.6 0 0
29.68 0 0
29.76 0 0
29.84 0 0
29.92 0 0
30 0 0
30.08 0 0
30.16 0 0
30.24 0 0
30.32 0 0
30.4 0 0
30.48 0 0
30.56 0 0
30.64 0 0
30.72 0 0
30.8 0 0
30.88 0 0
30.96 0 0
31.04 0 0
31.12 0 0
31.2 0 0
31.28 0 0
31.36 0 0
31.44 0 0
31.52 0 0
31.6 0 0
31.68 0 0
31.76 0 0
31.84 0 0
31.92 0 0
0 0.02 0
0.08 0.02 0
0.16 0.02 0
0.24 0.02 0
0.32 0.02 0
0.4 0.02 0
0.48 0.02 0
0.56 0.02 0
0.64 0.02 0
0.72 0.02 0
0.8 0.02 0
0.88 0.02 0
0.96 0.02 0
1.04 0.02 0
1.12 0.02 0
1.2 0.02 0
1.28 0.02 0
1.36 0.02 0
1.44 0.02 0
1.52 0.02 0
1.6 0.02 0
1.68 0.02 0
1.76 0.02 0
1.84 0.02 0
1.92 0.02 0
2 0.02 0
2.08 0.02 0
2.16 0.02 0
2.24 0.02 0
2.32 0.02 0
2.4 0.02 0
2.48 0.02 0
2.56 0.02 0
2.64 0.02 0
2.72 0.02 0
2.8 0.02 0
2.88 0.02 0
2.96 0.02 0
3.04 0.02 0
3.12 0.02 0
3.2 0.02 0
3.28 0.02 0
3.36 0.02 0
3.44 0.02 0
3.52 0.02 0
3.6 0.02 0
3.68 0.02 0
3.76 0.02 0
3.84 0.02 0
3.92 0.02 0
4 0.02 0
4.08 0.02 0
4.16 0.02 0
4.24 0.02 0
4.32 0.02 0
4.4 0.02 0
4.48 0.02 0
4.56 0.02 0
4.64 0.02 0
4.72 0.02 0
4.8 0.02 0
4.88 0.02 0
4.96 0.02 0
5.04 0.02 0
5.12 0.02 0
5.2 0.02 0
5.28 0.02 0
5.36 0.02 0
5.44 0.02 0
5.52 0.02 0
5.6 0.02 0
5.68 0.02 0
5.76 0.02 0
5.84 0.02 0
5.92 0.02 0
6 0.02 0
6.08 0.02 0
6.16 0.02 0
6.24 0.02 0
6.32 0.02 0
6.4 0.02 0
6.48 0.02 0
6.56 0.02 0
6.64 0.02 0
6.72 0.02 0
6.8 0.02 0
6.88 0.02 0
6.96 0.02 0
7.04 0.02 0
7.12 0.02 0
7.2 0.02 0
7.28 0.02 0
7.36 0.02 0
7.44 0.02 0
7.52 0.02 0
7.6 0.02 0
7.68 0.02 0
7.76 0.02 0
7.84 0.02 0
7.92 0.02 0
8 0.02 0
8.08 0.02 0
8.16 0.02 0
8.24 0.02 0
8.32 0.02 0
8.4 0.02 0
8.48 0.02 0
8.56 0.02 0
8.64 0.02 0
8.72 0.02 0
8.8 0.02 0
8.88 0.02 0
8.96 0.02 0
9.04 0.02 0
9.12 0.02 0
9.2 0.02 0
9.28 0.02 0
9.36 0.02 0
9.44 0.02 0
9.52 0.02 0
9.6 0.02 0
9.68 0.02 0
9.76 0.02 0
9.84 0.02 0
9.92 0.02 0
10 0.02 0
10.08 0.02 0
10.16 0.02 0
10.24 0.02 0
10.32 0.02 0
10.4 0.02 0
10.48 0.02 0
10.56 0.02 0
10.64 0.02 0
10.72 0.02 0
10.8 0.02 0
10.88 0.02 0
10.96 0.02 0
11.04 0.02 0
11.12 0.02 0
11.2 0.02 0
11.28 0.02 0
11.36 0.02 0
11.44 0.02 0
11.52 0.02 0
11.6 0.02 0
11.68 0.02 0
11.76 0.02 0
11.84 0.02 0
11.92 0.02 0
12 0.02 0
12.08 0.02 0
12.16 0.02 0
12.24 0.02 0
12.32 0.02 0
12.4 0.02 0
12.48 0.02 0
12.56 0.02 0
12.64 0.02 0
12.72 0.02 0
12.8 0.02 0
12.88 0.02 0
12.96 0.02 0
13.04 0.02 0
13.12 0.02 0
13.2 0.02 0
13.28 0.02 0
13.36 0.02 0
13.44 0.02 0
13.52 0.02 0
13.6 0.02 0
13.68 0.02 0
13.76 0.02 0
13.84 0.02 0
13.92 0.02 0
14 0.02 0
14.08 0.02 0
14.16 0.02 0
14.24 0.02 0
14.32 0.02 0
14.4 0.02 0
14.48 0.02 0
14.56 0.02 0
14.64 0.02 0
14.72 0.02 0
14.8 0.02 0
14.88 0.02 0
14.96 0.02 0
15.04 0.02 0
15.12 0.02 0
15.2 0.02 0
15.28 0.02 0
15.36 0.02 0
15.44 0.02 0
15.52 0.02 0
15.6 0.02 0
15.68 0.02 0
15.76 0.02 0
15.84 0.02 0
15.92 0.02 0
16 0.02 0
16.08 0.02 0
16.16 0.02 0
16.24 0.02 0
16.32 0.02 0
16.4 0.02 0
16.48 0.02 0
16.56 0.02 0
16.64 0.02 0
16.72 0.02 0
16.8 0.02 0
16.88 0.02 0
16.96 0.02 0
17.04 0.02 0
17.12 0.02 0
17.2 0.02 0
17.28 0.02 0
17.36 0.02 0
17.44 0.02 0
17.52 0.02 0
17.6 0.02 0
17.68 0.02 0
17.76 0.02 0
17.84 0.02 0
17.92 0.02 0
18 0.02 0
18.08 0.02 0
18.16 0.02 0
18.24 0.02 0
18.32 0.02 0
18.4 0.02 0
18.48 0.02 0
18.56 0.02 0
18.64 0.02 0
18.72 0.02 0
18.8 0.02 0
18.88 0.02 0
18.96 0.02 0
19.04 0.02 0
19.12 0.02 0
19.2 0.02 0
19.28 0.02 0
19.36 0.02 0
19.44 0.02 0
19.52 0.02 0
19.6 0.02 0
19.68 0.02 0
19.76 0.02 0
19.84 0.02 0
19.92 0.02 0
20 0.02 0
20.08 0.02 0
20.16 0.02 0
20.24 0.02 0
20.32 0.02 0
20.4 0.02 0
20.48 0.02 0
20.56 0.02 0
20.64 0.02 0
20.72 0.02 0
20.8 0.02 0
20.88 0.02 0
20.96 0.02 0
21.04 0.02 0
21.12 0.02 0
21.2 0.02 0
21.28 0.02 0
21.36 0.02 0
21.44 0.02 0
21.52 0.02 0
21.6 0.02 0
21.68 0.02 0
21.76 0.02 0
21.84 0.02 0
21.92 0.02 0
22 0.02 0
22.08 0.02 0
22.16 0.02 0
22.24 0.02 0
22.32 0.02 0
22.4 0.02 0
22.48 0.02 0
22.56 0.02 0
22.64 0.02 0
22.72 0.02 0
22.8 0.02 0
22.88 0.02 0
22.96 0.02 0
23.04 0.02 0
23.12 0.02 0
23.2 0.02 0
23.28 0.02 0
23.36 0.02 0
23.44 0.02 0
23.52 0.02 0
23.6 0.02 0
23.68 0.02 0
23.76 0.02 0
23.84 0.02 0
23.92 0.02 0
24 0.02 0
24.08 0.02 0
24.16 0.02 0
24.24 0.02 0
24.32 0.02 0
24.4 0.02 0
24.48 0.02 0
24.56 0.02 0
24.64 0.02 0
24.72 0.02 0
24.8 0.02 0
24.88 0.02 0
24.96 0.02 0
25.04 0.02 0
25.12 0.02 0
25.2 0.02 0
25.28 0.02 0
25.36 0.02 0
25.44 0.02 0
25.52 0.02 0
25.6 0.02 0
25.68 0.02 0
25.76 0.02 0
25.84 0.02 0
25.92 0.02 0
26 0.02 0
26.08 0.02 0
26.16 0.02 0
26.24 0.02 0
26.32 0.02 0
26.4 0.02 0
26.48 0.02 0
26.56 0.02 0
26.64 0.02 0
26.72 0.02 0
26.8 0.02 0
26.88 0.02 0
26.96 0.02 0
27.04 0.02 0
27.12 0.02 0
27.2 0.02 0
27.28 0.02 0
27.36 0.02 0
27.44 0.02 0
27.52 0.02 0
27.6 0.02 0
27.68 0.02 0
27.76 0.02 0
27.84 0.02 0
27.92 0.02 0
28 0.02 0
28.08 0.02 0
28.16 0.02 0
28.24 0.02 0
28.32 0.02 0
28.4 0.02 0
28.48 0.02 0
28.56 0.02 0
28.64 0.02 0
28.72 0.02 0
28.8 0.02 0
28.88 0.02 0
28.96 0.02 0
29.04 0.02 0
29.12 0.02 0
29.2 0.02 0
29.28 0.02 0
29.36 0.02 0
29.44 0.02 0
29.52 0.02 0
29.6 0.02 0
29.68 0.02 0
29.76 0.02 0
29.84 0.02 0
29.92 0.02 0
30 0.02 0
30.08 0.02 0
30.16 0.02 0
30.24 0.02 0
30.32 0.02 0
30.4 0.02 0
30.48 0.02 0
30.56 0.02 0
30.64 0.02 0
30.72 0.02 0
30.8 0.02 0
30.88 0.02 0
30.96 0.02 0
31.04 0.02 0
31.12 0.02 0
31.2 0.02 0
31.28 0.02 0
31.36 0.02 0
31.44 0.02 0
31.52 0.02 0
31.6 0.02 0
31.68 0.02 0
31.76 0.02 0
31.84 0.02 0
31.92 0.02 0
0 0.04 0
0.08 0.04 0
0.16 0.04 0
0.24 0.04 0
0.32 0.04 0
0.4 0.04 0
0.48 0.04 0
0.56 0.04 0
0.64 0.04 0
0.72 0.04 0
0.8 0.04 0
0.88 0.04 0
0.96 0.04 0
1.04 0.04 0
1.12 0.04 0
1.2 0.04 0
1.28 0.04 0
1.36 0.04 0
1.44 0.04 0
1.52 0.04 0
1.6 0.04 0
1.68 0.04 0
1.76 0.04 0
1.84 0.04 0
1.92 0.04 0
2 0.04 0
2.08 0.04 0
2.16 0.04 0
2.24 0.04 0
2.32 0.04 0
2.4 0.04 0
2.48 0.04 0
2.56 0.04 0
2.64 0.04 0
2.72 0.04 0
2.8 0.04 0
2.88 0.04 0
2.96 0.04 0
3.04 0.04 0
3.12 0.04 0
3.2 0.04 0
3.28 0.04 0
3.36 0.04 0
3.44 0.04 0
3.52 0.04 0
3.6 0.04 0
3.68 0.04 0
3.76 0.04 0
3.84 0.04 0
3.92 0.04 0
4 0.04 0
4.08 0.04 0
4.16 0.04 0
4.24 0.04 0
4.32 0.04 0
4.4 0.04 0
4.48 0.04 0
4.56 0.04 0
4.64 0.04 0
4.72 0.04 0
4.8 0.04 0
4.88 0.04 0
4.96 0.04 0
5.04 0.04 0
5.12 0.04 0
5.2 0.04 0
5.28 0.04 0
5.36 0.04 0
5.44 0.04 0
5.52 0.04 0
5.6 0.04 0
5.68 0.04 0
5.76 0.04 0
5.84 0.04 0
5.92 0.04 0
6 0.04 0
6.08 0.04 0
6.16 0.04 0
6.24 0.04 0
6.32 0.04 0
6.4 0.04 0
6.48 0.04 0
6.56 0.04 0
6.64 0.04 0
6.72 0.04 0
6.8 0.04 0
6.88 0.04 0
6.96 0.04 0
7.04 0.04 0
7.12 0.04 0
7.2 0.04 0
7.28 0.04 0
7.36 0.04 0
7.44 0.04 0
7.52 0.04 0
7.6 0.04 0
7.68 0.04 0
7.76 0.04 0
7.84 0.04 0
[...]
POINT_DATA 20000

SCALARS p float 1
LOOKUP_TABLE default
1
151.555
151.324
151.257
151.231
151.216
151.204
151.193
151.183
151.173
151.164
151.155
151.146
151.137
151.128
151.12
151.111
151.103
151.095
151.087
151.079
151.071
151.063
151.056
151.048
151.041
151.034
151.027
151.02
151.013
151.007
151.001
150.994
150.988
150.982
150.975
150.969
150.962
150.955
150.949
150.942
150.936
150.93
150.923
150.917
150.91
150.904
150.897
150.89
150.883
150.877
150.87
150.863
150.856
150.848
150.841
150.834
150.827
150.819
150.812
150.804
150.796
150.788
150.781
150.773
150.765
150.757
150.748
150.74
150.732
150.723
150.715
150.706
150.697
150.689
150.68
150.671
150.662
150.653
150.643
150.634
150.624
150.615
150.605
150.595
150.586
150.576
150.565
150.555
150.545
150.535
150.524
150.513
150.503
150.492
150.481
150.47
150.459
150.447
150.436
150.424
150.413
150.401
150.389
150.377
150.365
150.352
150.34
150.327
150.314
150.301
150.288
150.275
150.262
150.248
150.235
150.221
150.207
150.193
150.179
150.164
150.149
150.135
150.12
150.105
150.089
150.074
150.058
150.042
150.026
150.01
149.994
149.977
149.961
149.944
149.926
149.909
149.891
149.874
149.856
149.837
149.819
149.8
149.781
149.762
149.743
149.723
149.704
149.684
149.663
149.643
149.622
149.601
149.58
149.558
149.536
149.514
149.492
149.469
149.446
149.423
149.4
149.376
149.352
149.328
149.303
149.278
149.253
149.228
149.202
149.176
149.149
149.123
149.095
149.068
149.04
149.012
148.984
148.955
148.926
148.897
148.867
148.837
148.806
148.775
148.744
148.712
148.681
148.648
148.616
148.582
148.549
148.515
148.481
148.446
148.411
148.376
148.34
148.304
148.267
148.23
148.193
148.155
148.117
148.078
148.039
147.999
147.959
147.919
147.878
147.837
147.795
147.753
147.711
147.668
147.625
147.581
147.536
147.492
147.447
147.401
147.355
147.309
147.262
147.214
147.167
147.118
147.07
147.021
146.971
146.921
146.871
146.82
146.768
146.717
146.664
146.612
146.559
146.505
146.451
146.397
146.342
146.287
146.231
146.175
146.119
146.062
146.005
145.947
145.889
145.831
145.772
145.713
145.653
145.593
145.533
145.472
145.411
145.349
145.287
145.225
145.163
145.1
145.037
144.973
144.909
144.845
144.781
144.716
144.651
144.586
144.52
144.454
144.388
144.322
144.255
144.188
144.121
144.054
143.987
143.919
143.851
143.783
143.715
143.646
143.578
143.509
143.44
143.371
143.302
143.233
143.164
143.095
143.025
142.956
142.886
142.817
142.747
142.678
142.608
142.538
142.469
142.399
142.33
142.261
142.191
142.122
142.053
141.984
141.915
141.846
141.777
141.709
141.64
141.572
141.504
141.436
141.369
141.301
141.234
141.167
141.101
141.034
140.968
140.903
140.837
140.772
140.707
140.643
140.579
140.515
140.452
140.389
140.326
140.264
140.202
140.141
140.08
140.02
139.96
139.9
139.841
139.783
139.725
139.668
139.611
139.555
139.499
139.444
139.389
139.335
139.281
139.229
139.176
139.125
139.074
139.023
138.974
138.925
138.876
138.829
138.782
138.735
138.69
138.645
138.6
138.557
138.514
138.472
138.43
138.39
138.35
138.311
138.272
138.235
138.198
138.162
138.126
138.092
138.058
138.025
137.993
137.961
137.931
137.901
137.872
137.844
137.816
137.79
137.764
137.739
137.715
137.691
137.669
137.647
137.626
137.606
137.586
137.568
0.5
151.555
151.555
151.324
151.257
151.231
151.216
151.204
151.193
151.183
151.173
151.164
151.155
151.146
151.137
151.128
151.12
151.111
151.103
151.095
151.087
151.079
151.071
151.063
151.056
151.048
151.041
151.034
151.027
151.02
151.013
151.007
151.001
150.994
150.988
150.982
150.975
150.969
150.962
150.955
150.949
150.942
150.936
150.93
150.923
150.917
150.91
150.904
150.897
150.89
150.883
150.877
150.87
150.863
150.856
150.848
150.841
150.834
150.827
150.819
150.812
150.804
150.796
150.788
150.781
150.773
150.765
150.757
150.748
150.74
150.732
150.723
150.715
150.706
150.697
150.689
150.68
150.671
150.662
150.653
150.643
150.634
150.624
150.615
150.605
150.595
150.586
150.576
150.565
150.555
150.545
150.535
150.524
150.513
150.503
150.492
150.481
150.47
150.459
150.447
150.436
150.424
150.413
150.401
150.389
150.377
150.365
150.352
150.34
150.327
150.314
150.301
150.288
150.275
150.262
150.248
150.235
150.221
150.207
150.193
150.179
150.164
150.149
150.135
150.12
150.105
150.089
150.074
150.058
150.042
150.026
150.01
149.994
149.977
149.961
149.944
149.926
149.909
149.891
149.874
149.856
149.837
149.819
149.8
149.781
149.762
149.743
149.723
149.704
149.684
149.663
149.643
149.622
149.601
149.58
149.558
149.536
149.514
149.492
149.469
149.446
149.423
149.4
149.376
149.352
149.328
149.303
149.278
149.253
149.228
149.202
149.176
149.149
149.123
149.095
149.068
149.04
149.012
148.984
148.955
148.926
148.897
148.867
148.837
148.806
148.775
148.744
148.712
148.681
148.648
148.616
148.582
148.549
148.515
148.481
148.446
148.411
148.376
148.34
148.304
148.267
148.23
148.193
148.155
148.117
148.078
148.039
147.999
147.959
147.919
147.878
147.837
147.795
147.753
147.711
147.668
147.625
147.581
147.536
147.492
147.447
147.401
147.355
147.309
147.262
147.214
147.167
147.118
147.07
147.021
146.971
146.921
146.871
146.82
146.768
146.717
146.664
146.612
146.559
146.505
146.451
146.397
146.342
146.287
146.231
146.175
146.119
146.062
146.005
145.947
145.889
145.831
145.772
145.713
145.653
145.593
145.533
145.472
145.411
145.349
145.287
145.225
145.163
145.1
145.037
144.973
144.909
144.845
144.781
144.716
144.651
144.586
144.52
144.454
144.388
144.322
144.255
144.188
144.121
144.054
143.987
143.919
143.851
143.783
143.715
143.646
143.578
143.509
143.44
143.371
143.302
143.233
143.164
143.095
143.025
142.956
142.886
142.817
142.747
142.678
142.608
142.538
142.469
142.399
142.33
142.261
142.191
142.122
142.053
141.984
141.915
141.846
141.777
141.709
141.64
141.572
141.504
141.436
141.369
141.301
141.234
141.167
141.101
141.034
140.968
140.903
140.837
140.772
140.707
140.643
140.579
140.515
140.452
140.389
140.326
140.264
140.202
140.141
140.08
140.02
139.96
139.9
139.841
139.783
139.725
139.668
139.611
139.555
139.499
139.444
139.389
139.335
139.281
139.229
139.176
139.125
139.074
139.023
138.974
138.925
138.876
138.829
138.782
138.735
138.69
138.645
138.6
138.557
138.514
138.472
138.43
138.39
138.35
138.311
138.272
138.235
138.198
138.162
138.126
138.092
138.058
138.025
137.993
137.961
137.931
137.901
137.872
137.844
137.816
137.79
137.764
137.739
137.715
137.691
137.669
137.647
137.626
137.606
137.586
137.568
137.568
151.504
151.504
151.329
151.262
151.234
151.218
151.205
151.194
151.183
151.174
151.164
151.155
151.146
151.137
151.128
151.12
151.111
151.103
151.095
151.087
151.079
151.071
151.063
151.056
151.049
151.041
151.034
151.027
151.02
151.013
151.007
151.001
150.994
150.988
150.982
150.975
150.969
150.962
150.955
150.949
150.942
150.936
150.93
150.923
150.917
150.91
150.904
150.897
150.89
150.883
150.877
150.87
150.863
150.856
150.848
150.841
150.834
150.827
150.819
150.812
150.804
150.796
150.788
150.781
150.773
150.765
150.757
150.748
150.74
150.732
150.723
150.715
150.706
150.697
150.689
150.68
150.671
150.662
150.652
150.643
150.634
150.624
150.615
150.605
150.595
150.586
150.576
150.565
150.555
150.545
150.535
150.524
150.513
150.503
150.492
150.481
150.47
150.459
150.447
150.436
150.424
150.413
150.401
150.389
150.377
150.365
150.352
150.34
150.327
150.314
150.301
150.288
150.275
150.262
150.248
150.235
150.221
150.207
150.193
150.179
150.164
150.149
150.135
150.12
150.105
150.089
150.074
150.058
150.042
150.026
150.01
149.994
149.977
149.96
149.944
149.926
149.909
149.891
149.874
149.856
149.837
149.819
149.8
149.781
149.762
149.743
149.723
149.704
149.684
149.663
149.643
149.622
149.601
149.58
149.558
149.536
149.514
149.492
149.469
149.446
149.423
149.4
149.376
149.352
149.328
149.303
149.278
149.253
149.228
149.202
149.176
149.149
149.123
149.095
149.068
149.04
149.012
148.984
148.955
148.926
148.897
148.867
148.837
148.806
148.775
148.744
148.712
148.681
148.648
148.616
148.582
148.549
148.515
148.481
148.446
148.411
148.376
148.34
148.304
148.267
148.23
148.193
148.155
148.117
148.078
148.039
147.999
147.959
147.919
147.878
147.837
147.795
147.753
147.711
147.668
147.625
147.581
147.537
147.492
147.447
147.401
147.355
147.309
147.262
147.214
147.167
147.118
147.07
147.021
146.971
146.921
146.871
146.82
146.768
146.717
146.664
146.612
146.559
146.505
146.451
146.397
146.342
146.287
146.232
146.175
146.119
146.062
146.005
145.947
145.889
145.831
145.772
145.713
145.653
145.593
145.533
145.472
145.411
145.349
145.288
145.225
145.163
145.1
145.037
144.973
144.909
144.845
144.781
144.716
144.651
144.586
144.52
144.454
144.388
144.322
144.255
144.188
144.121
144.054
143.987
143.919
143.851
143.783
143.715
143.646
143.578
143.509
143.44
143.371
143.302
143.233
143.164
143.095
143.025
142.956
142.886
142.817
142.747
142.678
142.608
142.539
142.469
142.4
142.33
142.261
142.191
142.122
142.053
141.984
141.915
141.846
141.777
141.709
141.641
141.572
141.504
141.437
141.369
141.302
141.234
141.168
141.101
141.035
140.969
140.903
140.837
140.772
140.707
140.643
140.579
140.515
140.452
140.389
140.326
140.264
140.202
140.141
140.08
140.02
139.96
139.901
139.842
139.783
139.725
139.668
139.611
139.555
139.499
139.444
139.389
139.335
139.282
139.229
139.177
139.125
139.074
139.024
138.974
138.925
138.877
138.829
138.782
138.735
138.69
138.645
138.601
138.557
138.514
138.472
138.431
138.39
138.35
138.311
138.273
138.235
138.198
138.162
138.127
138.092
138.058
138.025
137.993
137.962
137.931
137.901
137.872
137.844
137.817
137.79
137.764
137.739
137.715
137.692
137.669
137.647
137.626
137.606
137.587
137.568
137.568
151.464
151.464
151.332
151.266
151.237
151.219
151.206
151.195
151.184
151.174
151.164
151.155
151.146
151.137
151.128
151.12
151.111
151.103
151.095
151.087
151.079
151.071
151.063
151.056
151.049
151.041
151.034
151.027
151.02
151.013
151.007
151.001
150.994
150.988
150.982
150.975
150.969
150.962
150.955
150.949
150.942
150.936
150.93
150.923
150.917
150.91
150.904
150.897
150.89
150.883
150.877
150.87
150.863
150.856
150.848
150.841
150.834
150.826
150.819
150.812
150.804
150.796
150.788
150.781
150.773
150.765
150.757
150.748
150.74
150.732
150.723
150.715
150.706
150.697
150.689
150.68
150.671
150.662
150.652
150.643
150.634
150.624
150.615
150.605
150.595
150.585
150.576
150.565
150.555
150.545
150.535
150.524
150.513
150.503
150.492
150.481
150.47
150.459
150.447
150.436
150.424
150.413
150.401
150.389
150.377
150.364
150.352
150.34
150.327
150.314
150.301
150.288
150.275
150.262
150.248
150.235
150.221
150.207
150.193
150.178
150.164
150.149
150.135
150.12
150.105
150.089
150.074
150.058
150.042
150.026
150.01
149.994
149.977
149.96
149.943
149.926
149.909
149.891
149.874
149.856
149.837
149.819
149.8
149.781
149.762
149.743
149.723
149.704
149.684
149.663
149.643
149.622
149.601
149.58
149.558
149.536
149.514
149.492
149.469
149.446
149.423
149.4
149.376
149.352
149.328
149.303
149.278
149.253
149.228
149.202
149.176
149.149
149.122
149.095
149.068
149.04
149.012
148.984
148.955
148.926
148.896
148.867
148.837
148.806
148.775
148.744
148.712
148.68
148.648
148.615
148.582
148.549
148.515
148.481
148.446
148.411
148.376
148.34
148.304
148.267
148.23
148.193
148.155
148.117
148.078
148.039
147.999
147.959
147.919
147.878
147.837
147.795
147.753
147.711
147.668
147.625
147.581
147.536
147.492
147.447
147.401
147.355
147.309
147.262
147.214
147.167
147.118
147.07
147.021
146.971
146.921
146.871
146.82
146.768
146.717
146.664
146.612
146.559
146.505
146.451
146.397
146.342
146.287
146.231
146.175
146.119
146.062
146.005
145.947
145.889
145.831
145.772
145.713
145.653
145.593
145.533
145.472
145.411
145.349
145.287
145.225
145.163
145.1
145.037
144.973
144.909
144.845
144.781
144.716
144.651
144.586
144.52
144.454
144.388
144.322
144.255
144.188
144.121
144.054
143.987
143.919
143.851
143.783
143.715
143.646
143.578
143.509
143.44
143.371
143.302
143.233
143.164
143.095
143.025
142.956
142.886
142.817
142.747
142.678
142.608
142.539
142.469
142.4
142.33
142.261
142.191
142.122
142.053
141.984
141.915
141.846
141.778
141.709
141.641
141.572
141.504
141.437
141.369
141.302
141.235
141.168
141.101
141.035
140.969
140.903
140.837
140.772
140.708
140.643
140.579
140.515
140.452
140.389
140.326
140.264
140.203
140.141
140.08
140.02
139.96
139.901
139.842
139.783
139.725
139.668
139.611
139.555
139.499
139.444
139.389
139.335
139.282
139.229
139.177
139.125
139.074
139.024
138.974
138.925
138.877
138.829
138.782
138.736
138.69
138.645
138.601
138.557
138.514
138.472
138.431
138.39
138.35
138.311
138.273
138.235
138.198
138.162
138.127
138.092
138.058
138.025
137.993
137.962
137.931
137.901
137.872
137.844
137.817
137.79
137.764
137.739
137.715
137.692
137.669
137.647
137.626
137.606
137.587
137.568
137.568
151.433
151.433
151.332
151.271
151.24
151.222
151.208
151.196
151.185
151.175
151.165
151.156
151.146
151.137
151.129
151.12
151.112
151.103
151.095
151.087
151.079
151.071
151.064
151.056
151.049
151.041
151.034
151.027
151.02
151.013
151.007
151.001
150.994
150.988
150.982
150.975
150.969
150.962
150.955
150.949
150.942
150.936
150.93
150.923
150.917
150.91
150.904
150.897
150.89
150.883
150.877
150.87
150.863
150.856
150.848
150.841
150.834
150.826
150.819
150.811
150.804
150.796
150.788
150.781
150.773
150.765
150.756
150.748
150.74
150.732
150.723
150.715
150.706
150.697
150.689
150.68
150.671
150.662
150.652
150.643
150.634
150.624
150.615
150.605
150.595
150.585
150.575
150.565
150.555
150.545
150.535
150.524
150.513
150.503
150.492
150.481
150.47
150.459
150.447
150.436
150.424
150.413
150.401
150.389
150.377
150.364
150.352
150.34
150.327
150.314
150.301
150.288
150.275
150.262
150.248
150.235
150.221
150.207
150.193
150.178
150.164
150.149
150.135
150.12
150.105
150.089
150.074
150.058
150.042
150.026
150.01
149.994
149.977
149.96
149.943
149.926
149.909
149.891
149.874
149.856
149.837
149.819
149.8
149.781
149.762
149.743
149.723
149.704
149.683
149.663
149.643
149.622
149.601
149.58
149.558
149.536
149.514
149.492
149.469
149.446
149.423
149.4
149.376
149.352
149.328
149.303
149.278
149.253
149.228
149.202
149.176
149.149
149.122
149.095
149.068
149.04
149.012
148.984
148.955
148.926
148.896
148.867
148.836
148.806
148.775
148.744
148.712
148.68
148.648
148.615
148.582
148.549
148.515
148.481
148.446
148.411
148.376
148.34
148.304
148.267
148.23
148.193
148.155
148.117
148.078
148.039
147.999
147.959
147.919
147.878
147.837
147.795
147.753
147.711
147.668
147.624
147.581
147.536
147.492
147.447
147.401
147.355
147.308
147.262
147.214
147.166
147.118
147.07
147.02
146.971
146.921
146.87
146.82
146.768
146.717
146.664
146.612
146.559
146.505
146.451
146.397
146.342
146.287
146.231
146.175
146.119
146.062
146.005
145.947
145.889
145.831
145.772
145.713
145.653
145.593
145.533
145.472
145.411
145.349
145.287
145.225
145.163
145.1
145.037
144.973
144.909
144.845
144.781
144.716
144.651
144.586
144.52
144.454
144.388
144.322
144.255
144.188
144.121
144.054
143.987
143.919
143.851
143.783
143.715
143.646
143.578
143.509
143.44
143.371
143.302
143.233
143.164
143.095
143.025
142.956
142.886
142.817
142.747
142.678
142.608
142.539
142.469
142.4
142.33
142.261
142.191
142.122
142.053
141.984
141.915
141.846
141.778
141.709
141.641
141.572
141.504
141.437
141.369
141.302
141.235
141.168
141.101
141.035
140.969
140.903
140.838
140.772
140.708
140.643
140.579
140.515
140.452
140.389
140.326
140.264
140.203
140.141
140.081
140.02
139.96
139.901
139.842
139.783
139.726
139.668
139.611
139.555
139.499
139.444
139.389
139.335
139.282
139.229
139.177
139.125
139.074
139.024
138.974
138.925
138.877
138.829
138.782
138.736
138.69
138.645
138.601
138.557
138.514
138.472
138.431
138.39
138.35
138.311
138.273
138.235
138.198
138.162
138.127
138.092
138.059
138.026
137.993
137.962
137.931
137.901
137.872
137.844
137.817
137.79
137.764
137.739
137.715
137.692
137.669
137.647
137.627
137.606
137.587
137.568
137.568
151.407
151.407
151.33
151.275
151.244
151.224
151.209
151.197
151.186
151.175
151.165
151.156
151.147
151.138
151.129
151.12
151.112
151.103
151.095
151.087
151.079
151.071
151.064
151.056
151.049
151.041
151.034
151.027
151.02
151.013
151.007
151.001
150.994
150.988
150.982
150.975
150.969
150.962
150.955
150.949
150.942
150.936
150.929
150.923
150.917
150.91
150.903
150.897
150.89
150.883
150.877
150.87
150.863
150.855
150.848
150.841
150.834
150.826
150.819
150.811
150.804
150.796
150.788
150.781
150.773
150.765
150.756
150.748
150.74
150.732
150.723
150.715
150.706
150.697
150.689
150.68
150.671
150.662
150.652
150.643
150.634
150.624
150.615
150.605
150.595
150.585
150.575
150.565
150.555
150.545
150.535
150.524
150.513
150.503
150.492
150.481
150.47
150.459
150.447
150.436
150.424
150.412
150.401
150.389
150.377
150.364
150.352
150.34
150.327
150.314
150.301
150.288
150.275
150.262
150.248
150.235
150.221
150.207
150.193
150.178
150.164
150.149
150.135
150.12
150.105
150.089
150.074
150.058
150.042
150.026
150.01
149.994
149.977
149.96
149.943
149.926
149.909
149.891
149.873
149.855
149.837
149.819
149.8
149.781
149.762
149.743
149.723
149.703
149.683
149.663
149.643
149.622
149.601
149.58
149.558
149.536
149.514
149.492
149.469
149.446
149.423
149.4
149.376
149.352
149.328
149.303
149.278
149.253
149.227
149.202
149.176
149.149
149.122
149.095
149.068
149.04
149.012
148.984
148.955
148.926
148.896
148.867
148.836
148.806
148.775
148.744
148.712
148.68
148.648
148.615
148.582
148.549
148.515
148.481
148.446
148.411
148.376
148.34
148.304
148.267
148.23
148.193
148.155
148.116
148.078
148.039
147.999
147.959
147.919
147.878
147.837
147.795
147.753
147.711
147.668
147.624
147.581
147.536
147.492
147.446
147.401
147.355
147.308
147.262
147.214
147.166
147.118
147.069
147.02
146.971
146.921
146.87
146.82
146.768
146.716
146.664
146.612
146.559
146.505
146.451
146.397
146.342
146.287
146.231
146.175
146.119
146.062
146.005
145.947
145.889
145.831
145.772
145.713
145.653
145.593
145.533
145.472
145.411
145.349
145.287
145.225
145.163
145.1
145.037
144.973
144.909
144.845
144.781
144.716
144.651
144.586
144.52
144.454
144.388
144.322
144.255
144.188
144.121
144.054
143.987
143.919
143.851
143.783
143.715
143.646
143.578
143.509
143.44
143.371
143.302
143.233
143.164
143.095
143.025
142.956
142.886
142.817
142.747
142.678
142.608
142.539
142.469
142.4
142.33
142.261
142.191
142.122
142.053
141.984
141.915
141.846
141.778
141.709
141.641
141.573
141.505
141.437
141.369
141.302
141.235
141.168
141.101
141.035
140.969
140.903
140.838
140.772
140.708
140.643
140.579
140.515
140.452
140.389
140.327
140.264
140.203
140.141
140.081
140.02
139.96
139.901
139.842
139.784
139.726
139.668
139.611
139.555
139.499
139.444
139.39
139.336
139.282
139.229
139.177
139.125
139.074
139.024
138.974
138.925
138.877
138.829
138.782
138.736
138.69
138.645
138.601
138.557
138.515
138.472
138.431
138.39
138.351
138.311
138.273
138.235
138.198
138.162
138.127
138.092
138.059
138.026
137.993
137.962
137.931
137.902
137.873
137.844
137.817
137.79
137.765
137.74
137.715
137.692
137.669
137.648
137.627
137.607
137.587
137.568
137.568
151.386
151.386
151.326
151.278
151.247
151.227
151.211
151.198
151.187
151.176
151.166
151.156
151.147
151.138
151.129
151.12
151.112
151.104
151.095
151.087
151.079
151.071
151.064
151.056
151.049
151.041
151.034
151.027
151.02
151.013
151.007
151.001
150.994
150.988
150.982
150.975
150.969
150.962
150.955
150.949
150.942
150.936
150.929
150.923
150.917
150.91
150.903
150.897
150.89
150.883
150.876
150.87
150.863
150.855
150.848
150.841
150.834
150.826
150.819
150.811
150.804
150.796
150.788
150.781
150.773
150.765
150.756
150.748
150.74
150.732
150.723
150.715
150.706
150.697
150.689
150.68
150.671
150.662
150.652
150.643
150.634
150.624
150.615
150.605
150.595
150.585
150.575
150.565
150.555
150.545
150.534
150.524
150.513
150.503
150.492
150.481
150.47
150.458
150.447
150.436
150.424
150.412
150.401
150.389
150.377
150.364
150.352
150.34
150.327
150.314
150.301
150.288
150.275
150.262
150.248
150.234
150.221
150.207
150.193
150.178
150.164
150.149
150.135
150.12