# vtk DataFile Version 2.0
FlowField
ASCII
DATASET STRUCTURED_GRID
DIMENSIONS 400 1 50
POINTS 20000 float
0 0 0
0.08 0 0
0.16 0 0
0.24 0 0
0.32 0 0
0.4 0 0
0.48 0 0
0.56 0 0
0.64 0 0
0.72 0 0
0.8 0 0
0.88 0 0
0.96 0 0
1.04 0 0
1.12 0 0
1.2 0 0
1.28 0 0
1.36 0 0
1.44 0 0
1.52 0 0
1.6 0 0
1.68 0 0
1.76 0 0
1.84 0 0
1.92 0 0
2 0 0
2.08 0 0
2.16 0 0
2.24 0 0
2.32 0 0
2.4 0 0
2.48 0 0
2.56 0 0
2.64 0 0
2.72 0 0
2.8 0 0
2.88 0 0
2.96 0 0
3.04 0 0
3.12 0 0
3.2 0 0
3.28 0 0
3.36 0 0
3.44 0 0
3.52 0 0
3.6 0 0
3.68 0 0
3.76 0 0
3.84 0 0
3.92 0 0
4 0 0
4.08 0 0
4.16 0 0
4.24 0 0
4.32 0 0
4.4 0 0
4.48 0 0
4.56 0 0
4.64 0 0
4.72 0 0
4.8 0 0
4.88 0 0
4.96 0 0
5.04 0 0
5.12 0 0
5.2 0 0
5.28 0 0
5.36 0 0
5.44 0 0
5.52 0 0
5.6 0 0
5.68 0 0
5.76 0 0
5.84 0 0
5.92 0 0
6 0 0
6.08 0 0
6.16 0 0
6.24 0 0
6.32 0 0
6.4 0 0
6.48 0 0
6.56 0 0
6.64 0 0
6.72 0 0
6.8 0 0
6.88 0 0
6.96 0 0
7.04 0 0
7.12 0 0
7.2 0 0
7.28 0 0
7.36 0 0
7.44 0 0
7.52 0 0
7.6 0 0
7.68 0 0
7.76 0 0
7.84 0 0
7.92 0 0
8 0 0
8.08 0 0
8.16 0 0
8.24 0 0
8.32 0 0
8.4 0 0
8.48 0 0
8.56 0 0
8.64 0 0
8.72 0 0
8.8 0 0
8.88 0 0
8.96 0 0
9.04 0 0
9.12 0 0
9.2 0 0
9.28 0 0
9.36 0 0
9.44 0 0
9.52 0 0
9.6 0 0
9.68 0 0
9.76 0 0
9.84 0 0
9.92 0 0
10 0 0
10.08 0 0
10.16 0 0
10.24 0 0
10.32 0 0
10.4 0 0
10.48 0 0
10.56 0 0
10.64 0 0
10.72 0 0
10.8 0 0
10.88 0 0
10.96 0 0
11.04 0 0
11.12 0 0
11.2 0 0
11.28 0 0
11.36 0 0
11.44 0 0
11.52 0 0
11.6 0 0
11.68 0 0
11.76 0 0
11.84 0 0
11.92 0 0
12 0 0
12.08 0 0
12.16 0 0
12.24 0 0
12.32 0 0
12.4 0 0
12.48 0 0
12.56 0 0
12.64 0 0
12.72 0 0
12.8 0 0
12.88 0 0
12.96 0 0
13.04 0 0
13.12 0 0
13.2 0 0
13.28 0 0
13.36 0 0
13.44 0 0
13.52 0 0
13.6 0 0
13.68 0 0
13.76 0 0
13.84 0 0
13.92 0 0
14 0 0
14.08 0 0
14.16 0 0
14.24 0 0
14.32 0 0
14.4 0 0
14.48 0 0
14.56 0 0
14.64 0 0
14.72 0 0
14.8 0 0
14.88 0 0
14.96 0 0
15.04 0 0
15.12 0 0
15.2 0 0
15.28 0 0
15.36 0 0
15.44 0 0
15.52 0 0
15.6 0 0
15.68 0 0
15.76 0 0
15.84 0 0
15.92 0 0
16 0 0
16.08 0 0
16.16 0 0
16.24 0 0
16.32 0 0
16.4 0 0
16.48 0 0
16.56 0 0
16.64 0 0
16.72 0 0
16.8 0 0
16.88 0 0
16.96 0 0
17.04 0 0
17.12 0 0
17.2 0 0
17.28 0 0
17.36 0 0
17.44 0 0
17.52 0 0
17.6 0 0
17.68 0 0
17.76 0 0
17.84 0 0
17.92 0 0
18 0 0
18.08 0 0
18.16 0 0
18.24 0 0
18.32 0 0
18.4 0 0
18.48 0 0
18.56 0 0
18.64 0 0
18.72 0 0
18.8 0 0
18.88 0 0
18.96 0 0
19.04 0 0
19.12 0 0
19.2 0 0
19.28 0 0
19.36 0 0
19.44 0 0
19.52 0 0
19.6 0 0
19.68 0 0
19.76 0 0
19.84 0 0
19.92 0 0
20 0 0
20.08 0 0
20.16 0 0
20.24 0 0
20.32 0 0
20.4 0 0
20.48 0 0
20.56 0 0
20.64 0 0
20.72 0 0
20.8 0 0
20.88 0 0
20.96 0 0
21.04 0 0
21.12 0 0
21.2 0 0
21.28 0 0
21.36 0 0
21.44 0 0
21.52 0 0
21.6 0 0
21.68 0 0
21.76 0 0
21.84 0 0
21.92 0 0
22 0 0
22.08 0 0
22.16 0 0
22.24 0 0
22.32 0 0
22.4 0 0
22.48 0 0
22.56 0 0
22.64 0 0
22.72 0 0
22.8 0 0
22.88 0 0
22.96 0 0
23.04 0 0
23.12 0 0
23.2 0 0
23.28 0 0
23.36 0 0
23.44 0 0
23.52 0 0
23.6 0 0
23.68 0 0
23.76 0 0
23.84 0 0
23.92 0 0
24 0 0
24.08 0 0
24.16 0 0
24.24 0 0
24.32 0 0
24.4 0 0
24.48 0 0
24.56 0 0
24.64 0 0
24.72 0 0
24.8 0 0
24.88 0 0
24.96 0 0
25.04 0 0
25.12 0 0
25.2 0 0
25.28 0 0
25.36 0 0
25.44 0 0
25.52 0 0
25.6 0 0
25.68 0 0
25.76 0 0
25.84 0 0
25.92 0 0
26 0 0
26.08 0 0
26.16 0 0
26.24 0 0
26.32 0 0
26.4 0 0
26.48 0 0
26.56 0 0
26.64 0 0
26.72 0 0
26.8 0 0
26.88 0 0
26.96 0 0
27.04 0 0
27.12 0 0
27.2 0 0
27.28 0 0
27.36 0 0
27.44 0 0
27.52 0 0
27.6 0 0
27.68 0 0
27.76 0 0
27.84 0 0
27.92 0 0
28 0 0
28.08 0 0
28.16 0 0
28.24 0 0
28.32 0 0
28.4 0 0
28.48 0 0
28.56 0 0
28.64 0 0
28.72 0 0
28.8 0 0
28.88 0 0
28.96 0 0
29.04 0 0
29.12 0 0
29.2 0 0
29.28 0 0
29.36 0 0
29.44 0 0
29.52 0 0
29.6 0 0
29.68 0 0
29.76 0 0
29.84 0 0
29.92 0 0
30 0 0
30.08 0 0
30.16 0 0
30.24 0 0
30.32 0 0
30.4 0 0
30.48 0 0
30.56 0 0
30.64 0 0
30.72 0 0
30.8 0 0
30.88 0 0
30.96 0 0
31.04 0 0
31.12 0 0
31.2 0 0
31.28 0 0
31.36 0 0
31.44 0 0
31.52 0 0
31.6 0 0
31.68 0 0
31.76 0 0
31.84 0 0
31.92 0 0
0 0.02 0
0.08 0.02 0
0.16 0.02 0
0.24 0.02 0
0.32 0.02 0
0.4 0.02 0
0.48 0.02 0
0.56 0.02 0
0.64 0.02 0
0.72 0.02 0
0.8 0.02 0
0.88 0.02 0
0.96 0.02 0
1.04 0.02 0
1.12 0.02 0
1.2 0.02 0
1.28 0.02 0
1.36 0.02 0
1.44 0.02 0
1.52 0.02 0
1.6 0.02 0
1.68 0.02 0
1.76 0.02 0
1.84 0.02 0
1.92 0.02 0
2 0.02 0
2.08 0.02 0
2.16 0.02 0
2.24 0.02 0
2.32 0.02 0
2.4 0.02 0
2.48 0.02 0
2.56 0.02 0
2.64 0.02 0
2.72 0.02 0
2.8 0.02 0
2.88 0.02 0
2.96 0.02 0
3.04 0.02 0
3.12 0.02 0
3.2 0.02 0
3.28 0.02 0
3.36 0.02 0
3.44 0.02 0
3.52 0.02 0
3.6 0.02 0
3.68 0.02 0
3.76 0.02 0
3.84 0.02 0
3.92 0.02 0
4 0.02 0
4.08 0.02 0
4.16 0.02 0
4.24 0.02 0
4.32 0.02 0
4.4 0.02 0
4.48 0.02 0
4.56 0.02 0
4.64 0.02 0
4.72 0.02 0
4.8 0.02 0
4.88 0.02 0
4.96 0.02 0
5.04 0.02 0
5.12 0.02 0
5.2 0.02 0
5.28 0.02 0
5.36 0.02 0
5.44 0.02 0
5.52 0.02 0
5.6 0.02 0
5.68 0.02 0
5.76 0.02 0
5.84 0.02 0
5.92 0.02 0
6 0.02 0
6.08 0.02 0
6.16 0.02 0
6.24 0.02 0
6.32 0.02 0
6.4 0.02 0
6.48 0.02 0
6.56 0.02 0
6.64 0.02 0
6.72 0.02 0
6.8 0.02 0
6.88 0.02 0
6.96 0.02 0
7.04 0.02 0
7.12 0.02 0
7.2 0.02 0
7.28 0.02 0
7.36 0.02 0
7.44 0.02 0
7.52 0.02 0
7.6 0.02 0
7.68 0.02 0
7.76 0.02 0
7.84 0.02 0
7.92 0.02 0
8 0.02 0
8.08 0.02 0
8.16 0.02 0
8.24 0.02 0
8.32 0.02 0
8.4 0.02 0
8.48 0.02 0
8.56 0.02 0
8.64 0.02 0
8.72 0.02 0
8.8 0.02 0
8.88 0.02 0
8.96 0.02 0
9.04 0.02 0
9.12 0.02 0
9.2 0.02 0
9.28 0.02 0
9.36 0.02 0
9.44 0.02 0
9.52 0.02 0
9.6 0.02 0
9.68 0.02 0
9.76 0.02 0
9.84 0.02 0
9.92 0.02 0
10 0.02 0
10.08 0.02 0
10.16 0.02 0
10.24 0.02 0
10.32 0.02 0
10.4 0.02 0
10.48 0.02 0
10.56 0.02 0
10.64 0.02 0
10.72 0.02 0
10.8 0.02 0
10.88 0.02 0
10.96 0.02 0
11.04 0.02 0
11.12 0.02 0
11.2 0.02 0
11.28 0.02 0
11.36 0.02 0
11.44 0.02 0
11.52 0.02 0
11.6 0.02 0
11.68 0.02 0
11.76 0.02 0
11.84 0.02 0
11.92 0.02 0
12 0.02 0
12.08 0.02 0
12.16 0.02 0
12.24 0.02 0
12.32 0.02 0
12.4 0.02 0
12.48 0.02 0
12.56 0.02 0
12.64 0.02 0
12.72 0.02 0
12.8 0.02 0
12.88 0.02 0
12.96 0.02 0
13.04 0.02 0
13.12 0.02 0
13.2 0.02 0
13.28 0.02 0
13.36 0.02 0
13.44 0.02 0
13.52 0.02 0
13.6 0.02 0
13.68 0.02 0
13.76 0.02 0
13.84 0.02 0
13.92 0.02 0
14 0.02 0
14.08 0.02 0
14.16 0.02 0
14.24 0.02 0
14.32 0.02 0
14.4 0.02 0
14.48 0.02 0
14.56 0.02 0
14.64 0.02 0
14.72 0.02 0
14.8 0.02 0
14.88 0.02 0
14.96 0.02 0
15.04 0.02 0
15.12 0.02 0
15.2 0.02 0
15.28 0.02 0
15.36 0.02 0
15.44 0.02 0
15.52 0.02 0
15.6 0.02 0
15.68 0.02 0
15.76 0.02 0
15.84 0.02 0
15.92 0.02 0
16 0.02 0
16.08 0.02 0
16.16 0.02 0
16.24 0.02 0
16.32 0.02 0
16.4 0.02 0
16.48 0.02 0
16.56 0.02 0
16.64 0.02 0
16.72 0.02 0
16.8 0.02 0
16.88 0.02 0
16.96 0.02 0
17.04 0.02 0
17.12 0.02 0
17.2 0.02 0
17.28 0.02 0
17.36 0.02 0
17.44 0.02 0
17.52 0.02 0
17.6 0.02 0
17.68 0.02 0
17.76 0.02 0
17.84 0.02 0
17.92 0.02 0
18 0.02 0
18.08 0.02 0
18.16 0.02 0
18.24 0.02 0
18.32 0.02 0
18.4 0.02 0
18.48 0.02 0
18.56 0.02 0
18.64 0.02 0
18.72 0.02 0
18.8 0.02 0
18.88 0.02 0
18.96 0.02 0
19.04 0.02 0
19.12 0.02 0
19.2 0.02 0
19.28 0.02 0
19.36 0.02 0
19.44 0.02 0
19.52 0.02 0
19.6 0.02 0
19.68 0.02 0
19.76 0.02 0
19.84 0.02 0
19.92 0.02 0
20 0.02 0
20.08 0.02 0
20.16 0.02 0
20.24 0.02 0
20.32 0.02 0
20.4 0.02 0
20.48 0.02 0
20.56 0.02 0
20.64 0.02 0
20.72 0.02 0
20.8 0.02 0
20.88 0.02 0
20.96 0.02 0
21.04 0.02 0
21.12 0.02 0
21.2 0.02 0
21.28 0.02 0
21.36 0.02 0
21.44 0.02 0
21.52 0.02 0
21.6 0.02 0
21.68 0.02 0
21.76 0.02 0
21.84 0.02 0
21.92 0.02 0
22 0.02 0
22.08 0.02 0
22.16 0.02 0
22.24 0.02 0
22.32 0.02 0
22.4 0.02 0
22.48 0.02 0
22.56 0.02 0
22.64 0.02 0
22.72 0.02 0
22.8 0.02 0
22.88 0.02 0
22.96 0.02 0
23.04 0.02 0
23.12 0.02 0
23.2 0.02 0
23.28 0.02 0
23.36 0.02 0
23.44 0.02 0
23.52 0.02 0
23.6 0.02 0
23.68 0.02 0
23.76 0.02 0
23.84 0.02 0
23.92 0.02 0
24 0.02 0
24.08 0.02 0
24.16 0.02 0
24.24 0.02 0
24.32 0.02 0
24.4 0.02 0
24.48 0.02 0
24.56 0.02 0
24.64 0.02 0
24.72 0.02 0
24.8 0.02 0
24.88 0.02 0
24.96 0.02 0
25.04 0.02 0
25.12 0.02 0
25.2 0.02 0
25.28 0.02 0
25.36 0.02 0
25.44 0.02 0
25.52 0.02 0
25.6 0.02 0
25.68 0.02 0
25.76 0.02 0
25.84 0.02 0
25.92 0.02 0
26 0.02 0
26.08 0.02 0
26.16 0.02 0
26.24 0.02 0
26.32 0.02 0
26.4 0.02 0
26.48 0.02 0
26.56 0.02 0
26.64 0.02 0
26.72 0.02 0
26.8 0.02 0
26.88 0.02 0
26.96 0.02 0
27.04 0.02 0
27.12 0.02 0
27.2 0.02 0
27.28 0.02 0
27.36 0.02 0
27.44 0.02 0
27.52 0.02 0
27.6 0.02 0
27.68 0.02 0
27.76 0.02 0
27.84 0.02 0
27.92 0.02 0
28 0.02 0
28.08 0.02 0
28.16 0.02 0
28.24 0.02 0
28.32 0.02 0
28.4 0.02 0
28.48 0.02 0
28.56 0.02 0
28.64 0.02 0
28.72 0.02 0
28.8 0.02 0
28.88 0.02 0
28.96 0.02 0
29.04 0.02 0
29.12 0.02 0
29.2 0.02 0
29.28 0.02 0
29.36 0.02 0
29.44 0.02 0
29.52 0.02 0
29.6 0.02 0
29.68 0.02 0
29.76 0.02 0
29.84 0.02 0
29.92 0.02 0
30 0.02 0
30.08 0.02 0
30.16 0.02 0
30.24 0.02 0
30.32 0.02 0
30.4 0.02 0
30.48 0.02 0
30.56 0.02 0
30.64 0.02 0
30.72 0.02 0
30.8 0.02 0
30.88 0.02 0
30.96 0.02 0
31.04 0.02 0
31.12 0.02 0
31.2 0.02 0
31.28 0.02 0
31.36 0.02 0
31.44 0.02 0
31.52 0.02 0
31.6 0.02 0
31.68 0.02 0
31.76 0.02 0
31.84 0.02 0
31.92 0.02 0
0 0.04 0
0.08 0.04 0
0.16 0.04 0
0.24 0.04 0
0.32 0.04 0
0.4 0.04 0
0.48 0.04 0
0.56 0.04 0
0.64 0.04 0
0.72 0.04 0
0.8 0.04 0
0.88 0.04 0
0.96 0.04 0
1.04 0.04 0
1.12 0.04 0
1.2 0.04 0
1.28 0.04 0
1.36 0.04 0
1.44 0.04 0
1.52 0.04 0
1.6 0.04 0
1.68 0.04 0
1.76 0.04 0
1.84 0.04 0
1.92 0.04 0
2 0.04 0
2.08 0.04 0
2.16 0.04 0
2.24 0.04 0
2.32 0.04 0
2.4 0.04 0
2.48 0.04 0
2.56 0.04 0
2.64 0.04 0
2.72 0.04 0
2.8 0.04 0
2.88 0.04 0
2.96 0.04 0
3.04 0.04 0
3.12 0.04 0
3.2 0.04 0
3.28 0.04 0
3.36 0.04 0
3.44 0.04 0
3.52 0.04 0
3.6 0.04 0
3.68 0.04 0
3.76 0.04 0
3.84 0.04 0
3.92 0.04 0
4 0.04 0
4.08 0.04 0
4.16 0.04 0
4.24 0.04 0
4.32 0.04 0
4.4 0.04 0
4.48 0.04 0
4.56 0.04 0
4.64 0.04 0
4.72 0.04 0
4.8 0.04 0
4.88 0.04 0
4.96 0.04 0
5.04 0.04 0
5.12 0.04 0
5.2 0.04 0
5.28 0.04 0
5.36 0.04 0
5.44 0.04 0
5.52 0.04 0
5.6 0.04 0
5.68 0.04 0
5.76 0.04 0
5.84 0.04 0
5.92 0.04 0
6 0.04 0
6.08 0.04 0
6.16 0.04 0
6.24 0.04 0
6.32 0.04 0
6.4 0.04 0
6.48 0.04 0
6.56 0.04 0
6.64 0.04 0
6.72 0.04 0
6.8 0.04 0
6.88 0.04 0
6.96 0.04 0
7.04 0.04 0
7.12 0.04 0
7.2 0.04 0
7.28 0.04 0
7.36 0.04 0
7.44 0.04 0
7.52 0.04 0
7.6 0.04 0
7.68 0.04 0
7.76 0.04 0
7.84 0.04 0
[...]
POINT_DATA 20000

SCALARS u float 1
LOOKUP_TABLE default
0
-0.507086
-0.291915
-0.214155
-0.179019
-0.158657
-0.145103
-0.135351
-0.127959
-0.122131
-0.117392
-0.113441
-0.110077
-0.107163
-0.104605
-0.102331
-0.100291
-0.0984463
-0.0967663
-0.0952276
-0.0938114
-0.0925023
-0.0912876
-0.0901568
-0.0891008
-0.0881121
-0.0871839
-0.0863107
-0.0854874
-0.0847097
-0.0839737
-0.0832759
-0.0826134
-0.0819834
-0.0813835
-0.0808115
-0.0802655
-0.0797435
-0.0792441
-0.0787657
-0.0783071
-0.0778669
-0.0774441
-0.0770375
-0.0766464
-0.0762698
-0.0759069
-0.0755569
-0.0752192
-0.0748932
-0.0745781
-0.0742736
-0.0739791
-0.073694
-0.073418
-0.0731507
-0.0728916
-0.0726403
-0.0723967
-0.0721602
-0.0719307
-0.0717078
-0.0714913
-0.0712809
-0.0710764
-0.0708775
-0.0706841
-0.0704959
-0.0703128
-0.0701346
-0.069961
-0.069792
-0.0696273
-0.0694669
-0.0693106
-0.0691582
-0.0690097
-0.0688649
-0.0687236
-0.0685859
-0.0684516
-0.0683205
-0.0681926
-0.0680678
-0.067946
-0.0678271
-0.067711
-0.0675977
-0.067487
-0.067379
-0.0672735
-0.0671704
-0.0670697
-0.0669714
-0.0668753
-0.0667814
-0.0666896
-0.0666
-0.0665124
-0.0664268
-0.0663431
-0.0662614
-0.0661814
-0.0661033
-0.0660269
-0.0659522
-0.0658791
-0.0658077
-0.0657379
-0.0656696
-0.0656028
-0.0655375
-0.0654736
-0.0654111
-0.06535
-0.0652901
-0.0652316
-0.0651744
-0.0651185
-0.0650637
-0.0650102
-0.0649578
-0.0649065
-0.0648563
-0.0648071
-0.0647591
-0.064712
-0.064666
-0.064621
-0.064577
-0.0645339
-0.0644917
-0.0644504
-0.06441
-0.0643704
-0.0643317
-0.0642938
-0.0642568
-0.0642206
-0.0641852
-0.0641505
-0.0641165
-0.0640833
-0.0640507
-0.0640189
-0.0639877
-0.0639572
-0.0639275
-0.0638983
-0.0638698
-0.0638419
-0.0638146
-0.0637878
-0.0637615
-0.0637359
-0.0637108
-0.0636864
-0.0636625
-0.0636391
-0.0636163
-0.0635939
-0.0635721
-0.0635507
-0.0635299
-0.0635096
-0.0634898
-0.0634705
-0.0634518
-0.0634336
-0.0634159
-0.0633987
-0.063382
-0.0633657
-0.0633499
-0.0633346
-0.0633199
-0.0633059
-0.0632924
-0.0632794
-0.0632669
-0.0632547
-0.063243
-0.0632318
-0.0632211
-0.063211
-0.0632015
-0.0631926
-0.0631841
-0.063176
-0.0631682
-0.0631608
-0.0631539
-0.0631474
-0.0631415
-0.0631361
-0.0631311
-0.0631266
-0.0631223
-0.0631183
-0.0631146
-0.0631113
-0.0631084
-0.0631059
-0.0631038
-0.063102
-0.0631004
-0.0630992
-0.0630981
-0.0630972
-0.0630966
-0.0630963
-0.0630962
-0.0630963
-0.0630967
-0.0630972
-0.0630979
-0.0630987
-0.0630996
-0.0631007
-0.0631019
-0.0631032
-0.0631047
-0.0631062
-0.0631079
-0.0631096
-0.0631114
-0.0631132
-0.0631151
-0.0631171
-0.0631191
-0.0631211
-0.0631232
-0.0631254
-0.0631275
-0.0631297
-0.0631319
-0.0631341
-0.0631363
-0.0631385
-0.0631408
-0.063143
-0.0631452
-0.0631475
-0.0631498
-0.063152
-0.0631543
-0.0631565
-0.0631588
-0.0631611
-0.0631633
-0.0631656
-0.0631678
-0.0631701
-0.0631723
-0.0631746
-0.0631769
-0.0631791
-0.0631814
-0.0631836
-0.0631859
-0.0631881
-0.0631904
-0.0631926
-0.0631949
-0.0631971
-0.0631993
-0.0632016
-0.0632038
-0.0632061
-0.0632083
-0.0632106
-0.0632128
-0.063215
-0.0632173
-0.0632195
-0.0632218
-0.063224
-0.0632262
-0.0632285
-0.0632307
-0.0632329
-0.0632352
-0.0632374
-0.0632396
-0.0632419
-0.0632441
-0.0632463
-0.0632486
-0.0632508
-0.063253
-0.0632552
-0.0632575
-0.0632597
-0.0632619
-0.0632642
-0.0632664
-0.0632686
-0.0632708
-0.063273
-0.0632753
-0.0632775
-0.0632797
-0.0632819
-0.0632841
-0.0632864
-0.0632886
-0.0632908
-0.063293
-0.0632952
-0.0632975
-0.0632997
-0.0633019
-0.0633041
-0.0633063
-0.0633085
-0.0633107
-0.063313
-0.0633152
-0.0633174
-0.0633196
-0.0633218
-0.063324
-0.0633262
-0.0633284
-0.0633306
-0.0633328
-0.0633351
-0.0633373
-0.0633395
-0.0633417
-0.0633439
-0.0633461
-0.0633483
-0.0633505
-0.0633527
-0.0633549
-0.0633571
-0.0633593
-0.0633615
-0.0633637
-0.0633659
-0.0633681
-0.0633703
-0.0633726
-0.0633748
-0.063377
-0.0633792
-0.0633814
-0.0633836
-0.0633858
-0.063388
-0.0633902
-0.0633924
-0.0633946
-0.0633968
-0.063399
-0.0634012
-0.0634034
-0.0634056
-0.0634078
-0.06341
-0.0634122
-0.0634144
-0.0634166
-0.0634188
-0.063421
-0.0634232
-0.0634254
-0.0634276
-0.0634298
-0.063432
-0.0634342
-0.0634364
-0.0634386
-0.0634408
-0.0634431
-0.0634453
-0.0634475
-0.0634497
-0.063452
-0.0634541
-0.0634564
-0.0634586
-0.0634609
-0.0634631
-0.0634654
-0.0634676
-0.06347
-0.0634721
-0.0634746
-0.0634767
-0.0634792
-0.0634813
-0.0634837
-0.0634859
-0.0634878
-0.0634901
-0.063489
-0.063489
-0.063489
1
0.507086
0.291915
0.214155
0.179019
0.158657
0.145103
0.135351
0.127959
0.122131
0.117392
0.113441
0.110077
0.107163
0.104605
0.102331
0.100291
0.0984463
0.0967663
0.0952276
0.0938114
0.0925023
0.0912876
0.0901568
0.0891008
0.0881121
0.0871839
0.0863107
0.0854874
0.0847097
0.0839737
0.0832759
0.0826134
0.0819834
0.0813835
0.0808115
0.0802655
0.0797435
0.0792441
0.0787657
0.0783071
0.0778669
0.0774441
0.0770375
0.0766464
0.0762698
0.0759069
0.0755569
0.0752192
0.0748932
0.0745781
0.0742736
0.0739791
0.073694
0.073418
0.0731507
0.0728916
0.0726403
0.0723967
0.0721602
0.0719307
0.0717078
0.0714913
0.0712809
0.0710764
0.0708775
0.0706841
0.0704959
0.0703128
0.0701346
0.069961
0.069792
0.0696273
0.0694669
0.0693106
0.0691582
0.0690097
0.0688649
0.0687236
0.0685859
0.0684516
0.0683205
0.0681926
0.0680678
0.067946
0.0678271
0.067711
0.0675977
0.067487
0.067379
0.0672735
0.0671704
0.0670697
0.0669714
0.0668753
0.0667814
0.0666896
0.0666
0.0665124
0.0664268
0.0663431
0.0662614
0.0661814
0.0661033
0.0660269
0.0659522
0.0658791
0.0658077
0.0657379
0.0656696
0.0656028
0.0655375
0.0654736
0.0654111
0.06535
0.0652901
0.0652316
0.0651744
0.0651185
0.0650637
0.0650102
0.0649578
0.0649065
0.0648563
0.0648071
0.0647591
0.064712
0.064666
0.064621
0.064577
0.0645339
0.0644917
0.0644504
0.06441
0.0643704
0.0643317
0.0642938
0.0642568
0.0642206
0.0641852
0.0641505
0.0641165
0.0640833
0.0640507
0.0640189
0.0639877
0.0639572
0.0639275
0.0638983
0.0638698
0.0638419
0.0638146
0.0637878
0.0637615
0.0637359
0.0637108
0.0636864
0.0636625
0.0636391
0.0636163
0.0635939
0.0635721
0.0635507
0.0635299
0.0635096
0.0634898
0.0634705
0.0634518
0.0634336
0.0634159
0.0633987
0.063382
0.0633657
0.0633499
0.0633346
0.0633199
0.0633059
0.0632924
0.0632794
0.0632669
0.0632547
0.063243
0.0632318
0.0632211
0.063211
0.0632015
0.0631926
0.0631841
0.063176
0.0631682
0.0631608
0.0631539
0.0631474
0.0631415
0.0631361
0.0631311
0.0631266
0.0631223
0.0631183
0.0631146
0.0631113
0.0631084
0.0631059
0.0631038
0.063102
0.0631004
0.0630992
0.0630981
0.0630972
0.0630966
0.0630963
0.0630962
0.0630963
0.0630967
0.0630972
0.0630979
0.0630987
0.0630996
0.0631007
0.0631019
0.0631032
0.0631047
0.0631062
0.0631079
0.0631096
0.0631114
0.0631132
0.0631151
0.0631171
0.0631191
0.0631211
0.0631232
0.0631254
0.0631275
0.0631297
0.0631319
0.0631341
0.0631363
0.0631385
0.0631408
0.063143
0.0631452
0.0631475
0.0631498
0.063152
0.0631543
0.0631565
0.0631588
0.0631611
0.0631633
0.0631656
0.0631678
0.0631701
0.0631723
0.0631746
0.0631769
0.0631791
0.0631814
0.0631836
0.0631859
0.0631881
0.0631904
0.0631926
0.0631949
0.0631971
0.0631993
0.0632016
0.0632038
0.0632061
0.0632083
0.0632106
0.0632128
0.063215
0.0632173
0.0632195
0.0632218
0.063224
0.0632262
0.0632285
0.0632307
0.0632329
0.0632352
0.0632374
0.0632396
0.0632419
0.0632441
0.0632463
0.0632486
0.0632508
0.063253
0.0632552
0.0632575
0.0632597
0.0632619
0.0632642
0.0632664
0.0632686
0.0632708
0.063273
0.0632753
0.0632775
0.0632797
0.0632819
0.0632841
0.0632864
0.0632886
0.0632908
0.063293
0.0632952
0.0632975
0.0632997
0.0633019
0.0633041
0.0633063
0.0633085
0.0633107
0.063313
0.0633152
0.0633174
0.0633196
0.0633218
0.063324
0.0633262
0.0633284
0.0633306
0.0633328
0.0633351
0.0633373
0.0633395
0.0633417
0.0633439
0.0633461
0.0633483
0.0633505
0.0633527
0.0633549
0.0633571
0.0633593
0.0633615
0.0633637
0.0633659
0.0633681
0.0633703
0.0633726
0.0633748
0.063377
0.0633792
0.0633814
0.0633836
0.0633858
0.063388
0.0633902
0.0633924
0.0633946
0.0633968
0.063399
0.0634012
0.0634034
0.0634056
0.0634078
0.06341
0.0634122
0.0634144
0.0634166
0.0634188
0.063421
0.0634232
0.0634254
0.0634276
0.0634298
0.063432
0.0634342
0.0634364
0.0634386
0.0634408
0.0634431
0.0634453
0.0634475
0.0634497
0.063452
0.0634541
0.0634564
0.0634586
0.0634609
0.0634631
0.0634654
0.0634676
0.06347
0.0634721
0.0634746
0.0634767
0.0634792
0.0634813
0.0634837
0.0634859
0.0634878
0.0634901
0.063489
0.063489
0.063489
1
0.924291
0.735438
0.597539
0.511643
0.456326
0.418164
0.390259
0.368926
0.35204
0.338291
0.326831
0.31709
0.308672
0.301296
0.294758
0.288906
0.283624
0.278823
0.274434
0.270399
0.266675
0.263223
0.260013
0.257017
0.254215
0.251586
0.249113
0.246784
0.244584
0.242504
0.240532
0.23866
0.236881
0.235188
0.233574
0.232033
0.230561
0.229153
0.227805
0.226512
0.225272
0.224081
0.222937
0.221835
0.220775
0.219754
0.21877
0.21782
0.216903
0.216017
0.215161
0.214333
0.213532
0.212757
0.212006
0.211278
0.210573
0.209889
0.209225
0.208581
0.207955
0.207348
0.206758
0.206184
0.205627
0.205085
0.204557
0.204044
0.203545
0.203058
0.202585
0.202124
0.201675
0.201237
0.200811
0.200395
0.19999
0.199595
0.199209
0.198834
0.198467
0.19811
0.197761
0.19742
0.197088
0.196764
0.196447
0.196138
0.195836
0.195541
0.195254
0.194973
0.194698
0.19443
0.194168
0.193912
0.193662
0.193417
0.193179
0.192945
0.192717
0.192494
0.192276
0.192063
0.191855
0.191652
0.191453
0.191258
0.191068
0.190882
0.1907
0.190522
0.190348
0.190177
0.190011
0.189848
0.189688
0.189533
0.18938
0.189231
0.189085
0.188942
0.188803
0.188666
0.188532
0.188401
0.188273
0.188148
0.188025
0.187905
0.187788
0.187673
0.18756
0.18745
0.187343
0.187237
0.187134
0.187034
0.186935
0.186839
0.186744
0.186652
0.186561
0.186472
0.186386
0.186301
0.186218
0.186137
0.186058
0.18598
0.185904
0.18583
0.185757
0.185686
0.185617
0.185549
0.185482
0.185418
0.185354
0.185293
0.185232
0.185173
0.185116
0.18506
0.185005
0.184952
0.184901
0.184851
0.184803
0.184756
0.18471
0.184665
0.184623
0.184581
0.184542
0.184504
0.184467
0.184432
0.184398
0.184366
0.184334
0.184305
0.184276
0.18425
0.184225
0.184201
0.184178
0.184157
0.184137
0.184118
0.1841
0.184083
0.184068
0.184055
0.184042
0.18403
0.184019
0.18401
0.184001
0.183993
0.183986
0.18398
0.183975
0.183971
0.183968
0.183965
0.183963
0.183961
0.183961
0.18396
0.183961
0.183962
0.183964
0.183966
0.183968
0.183971
0.183974
0.183978
0.183981
0.183986
0.18399
0.183995
0.184
0.184005
0.18401
0.184015
0.184021
0.184027
0.184032
0.184038
0.184044
0.18405
0.184057
0.184063
0.184069
0.184075
0.184082
0.184088
0.184094
0.184101
0.184107
0.184113
0.18412
0.184126
0.184133
0.184139
0.184145
0.184152
0.184158
0.184165
0.184171
0.184177
0.184184
0.18419
0.184197
0.184203
0.184209
0.184216
0.184222
0.184229
0.184235
0.184241
0.184248
0.184254
0.184261
0.184267
0.184273
0.18428
0.184286
0.184292
0.184299
0.184305
0.184312
0.184318
0.184324
0.184331
0.184337
0.184344
0.18435
0.184356
0.184363
0.184369
0.184376
0.184382
0.184388
0.184395
0.184401
0.184407
0.184414
0.18442
0.184427
0.184433
0.184439
0.184446
0.184452
0.184459
0.184465
0.184471
0.184478
0.184484
0.18449
0.184497
0.184503
0.18451
0.184516
0.184522
0.184529
0.184535
0.184542
0.184548
0.184554
0.184561
0.184567
0.184573
0.18458
0.184586
0.184593
0.184599
0.184605
0.184612
0.184618
0.184624
0.184631
0.184637
0.184644
0.18465
0.184656
0.184663
0.184669
0.184675
0.184682
0.184688
0.184695
0.184701
0.184707
0.184714
0.18472
0.184726
0.184733
0.184739
0.184746
0.184752
0.184758
0.184765
0.184771
0.184777
0.184784
0.18479
0.184797
0.184803
0.184809
0.184816
0.184822
0.184829
0.184835
0.184841
0.184848
0.184854
0.18486
0.184867
0.184873
0.18488
0.184886
0.184892
0.184899
0.184905
0.184912
0.184918
0.184924
0.184931
0.184937
0.184943
0.18495
0.184956
0.184963
0.184969
0.184976
0.184982
0.184989
0.184995
0.185001
0.185008
0.185014
0.185021
0.185027
0.185034
0.185041
0.185047
0.185054
0.18506
0.185067
0.185074
0.18508
0.185087
0.185093
0.185099
0.1851
0.1851
0.1851
1
1.0797
0.99706
0.883637
0.788679
0.716892
0.663026
0.621809
0.589464
0.563449
0.542055
0.524112
0.508803
0.495545
0.483917
0.473604
0.464373
0.456042
0.448472
0.441553
0.435195
0.429328
0.42389
0.418834
0.414117
0.409705
0.405566
0.401674
0.398008
0.394546
0.391271
0.388168
0.385224
0.382424
0.37976
0.377221
0.374797
0.372482
0.370267
0.368146
0.366114
0.364164
0.362291
0.360491
0.35876
0.357093
0.355488
0.35394
0.352448
0.351007
0.349615
0.34827
0.346969
0.345711
0.344493
0.343314
0.342171
0.341064
0.33999
0.338948
0.337937
0.336956
0.336003
0.335077
0.334177
0.333302
0.332452
0.331625
0.33082
0.330037
0.329275
0.328533
0.32781
0.327106
0.32642
0.325752
0.325101
0.324466
0.323847
0.323244
0.322656
0.322082
0.321522
0.320976
0.320443
0.319923
0.319416
0.31892
0.318437
0.317965
0.317504
0.317054
0.316614
0.316185
0.315766
0.315356
0.314956
0.314565
0.314184
0.313811
0.313446
0.31309
0.312742
0.312401
0.312069
0.311744
0.311426
0.311115
0.310811
0.310514
0.310224
0.30994
0.309662
0.309391
0.309125
0.308865
0.308611
0.308363
0.308119
0.307882
0.307649
0.307422
0.307199
0.306981
0.306768
0.306559
0.306355
0.306155
0.30596
0.305769
0.305582
0.305399
0.30522
0.305044
0.304873
0.304705
0.304541
0.304381
0.304224
0.30407
0.303919
0.303772
0.303628
0.303487
0.303349
0.303214
0.303082
0.302953
0.302827
0.302703
0.302582
0.302464
0.302348
0.302235
0.302124
0.302016
0.301911
0.301808
0.301707
0.301609
0.301513
0.301419
0.301328
0.301239
0.301152
0.301068
0.300986
0.300906
0.300829
0.300754
0.300682
0.300611
0.300543
0.300477
0.300414
0.300353
0.300295
0.300239
0.300185
0.300133
0.300084
0.300036
0.299991
0.299949
0.299908
0.29987
0.299834
0.2998
0.299768
0.299738
0.299709
0.299683
0.299658
0.299636
0.299615
0.299597
0.299579
0.299564
0.299549
0.299536
0.299525
0.299515
0.299507
0.2995
0.299495
0.29949
0.299487
0.299484
0.299483
0.299482
0.299482
0.299484
0.299486
0.299489
0.299493
0.299497
0.299502
0.299507
0.299513
0.299519
0.299526
0.299533
0.29954
0.299548
0.299556
0.299565
0.299573
0.299582
0.299591
0.2996
0.299609
0.299619
0.299628
0.299638
0.299648
0.299657
0.299667
0.299677
0.299687
0.299697
0.299707
0.299717
0.299727
0.299736
0.299746
0.299756
0.299766
0.299776
0.299786
0.299796
0.299806
0.299816
0.299826
0.299836
0.299846
0.299856
0.299866
0.299876
0.299886
0.299896
0.299906
0.299916
0.299926
0.299936
0.299946
0.299956
0.299966
0.299976
0.299986
0.299996
0.300006
0.300016
0.300026
0.300036
0.300046
0.300056
0.300066
0.300076
0.300086
0.300096
0.300106
0.300116
0.300126
0.300136
0.300146
0.300156
0.300166
0.300176
0.300186
0.300196
0.300206
0.300216
0.300226
0.300236
0.300246
0.300256
0.300266
0.300276
0.300286
0.300296
0.300306
0.300316
0.300326
0.300336
0.300346
0.300356
0.300366
0.300376
0.300386
0.300396
0.300406
0.300416
0.300426
0.300436
0.300446
0.300456
0.300466
0.300476
0.300486
0.300496
0.300506
0.300516
0.300526
0.300536
0.300546
0.300556
0.300566
0.300576
0.300586
0.300596
0.300606
0.300616
0.300626
0.300636
0.300646
0.300656
0.300666
0.300676
0.300686
0.300696
0.300706
0.300716
0.300726
0.300736
0.300746
0.300756
0.300766
0.300776
0.300786
0.300796
0.300806
0.300816
0.300826
0.300836
0.300846
0.300856
0.300866
0.300876
0.300886
0.300896
0.300907
0.300917
0.300927
0.300937
0.300947
0.300957
0.300967
0.300977
0.300987
0.300997
0.301007
0.301017
0.301027
0.301037
0.301047
0.301057
0.301067
0.301078
0.301088
0.301098
0.301108
0.301118
0.301128
0.301139
0.301148
0.301159
0.301169
0.30118
0.30119
0.3012
0.30121
0.301221
0.301231
0.301242
0.301252
0.301262
0.301272
0.301276
0.301276
0.301276
1
1.11179
1.11437
1.05556
0.984357
0.919015
0.863778
0.818191
0.780616
0.749389
0.723128
0.700756
0.681456
0.664609
0.649746
0.636509
0.624622
0.613868
0.604078
0.595115
0.586869
0.57925
0.572183
0.565606
0.559465
0.553717
0.548322
0.543247
0.538462
0.533943
0.529666
0.525612
0.521764
0.518104
0.51462
0.511298
0.508127
0.505097
0.502198
0.499422
0.49676
0.494206
0.491754
0.489396
0.487128
0.484945
0.482842
0.480814
0.478858
0.47697
0.475146
0.473384
0.471679
0.470031
0.468435
0.466889
0.465392
0.463941
0.462534
0.461169
0.459844
0.458558
0.45731
0.456097
0.454918
0.453772
0.452658
0.451575
0.450521
0.449496
0.448498
0.447526
0.44658
0.445658
0.444761
0.443886
0.443034
0.442203
0.441394
0.440604
0.439835
0.439084
0.438352
0.437638
0.436941
0.436261
0.435598
0.43495
0.434318
0.433701
0.433099
0.432511
0.431936
0.431376
0.430828
0.430293
0.429771
0.42926
0.428762
0.428275
0.427799
0.427334
0.42688
0.426436
0.426002
0.425577
0.425163
0.424758
0.424361
0.423974
0.423595
0.423225
0.422863
0.422509
0.422162
0.421824
0.421492
0.421169
0.420852
0.420542
0.420239
0.419942
0.419652
0.419368
0.41909
0.418819
0.418553
0.418293
0.418038
0.41779
0.417546
0.417308
0.417074
0.416846
0.416623
0.416404
0.416191
0.415982
0.415777
0.415577
0.415381
0.415189
0.415002
0.414818
0.414639
0.414463
0.414291
0.414123
0.413959
0.413798
0.413641
0.413487
0.413336
0.413189
0.413045
0.412905
0.412768
0.412634
0.412503
0.412375
0.41225
0.412129
0.41201
0.411895
0.411782
0.411673
0.411567
0.411464
0.411364
0.411267
0.411173
0.411082
0.410994
0.410909
0.410827
0.410749
0.410674
0.410602
0.410533
0.410466
0.410402
0.410342
0.410284
0.410229
0.410177
0.410129
0.410083
0.410039
0.409998
0.40996
0.409924
0.40989
0.409859
0.409831
0.409805
0.409781
0.40976
0.40974
0.409722
0.409706
0.409692
0.40968
0.40967
0.409661
0.409654
0.409649
0.409645
0.409642
0.409641
0.40964
0.409641
0.409643
0.409647
0.409651
0.409656
0.409661
0.409668
0.409675
0.409682
0.409691
0.409699
0.409709
0.409719
0.409729
0.409739
0.40975
0.409761
0.409773
0.409784
0.409796
0.409808
0.40982
0.409833
0.409845
0.409858
0.40987
0.409883
0.409895
0.409908
0.409921
0.409933
0.409946
0.409959
0.409972
0.409985
0.409997
0.41001
0.410023
0.410036
0.410049
0.410061
0.410074
0.410087
0.4101
0.410113
0.410126
0.410138
0.410151
0.410164
0.410177
0.41019
0.410203
0.410215
0.410228
0.410241
0.410254
0.410267
0.41028
0.410293
0.410305
0.410318
0.410331
0.410344
0.410357
0.41037
0.410383
0.410395
0.410408
0.410421
0.410434
0.410447
0.41046
0.410473
0.410485
0.410498
0.410511
0.410524
0.410537
0.41055
0.410563
0.410576
0.410588
0.410601
0.410614
0.410627
0.41064
0.410653
0.410666
0.410679
0.410692
0.410704
0.410717
0.41073
0.410743
0.410756
0.410769
0.410782
0.410795
0.410808
0.41082
0.410833
0.410846
0.410859
0.410872
0.410885
0.410898
0.410911
0.410924
0.410937
0.41095
0.410962
0.410975
0.410988
0.411001
0.411014
0.411027
0.41104
0.411053
0.411066
0.411079
0.411092
0.411104
0.411117
0.41113
0.411143
0.411156
0.411169
0.411182
0.411195
0.411208
0.411221
0.411234
0.411247
0.41126
0.411273
0.411285
0.411298
0.411311
0.411324
0.411337
0.41135
0.411363
0.411376
0.411389
0.411402
0.411415
0.411428
0.411441
0.411454
0.411467
0.41148
0.411492
0.411505
0.411518
0.411531
0.411544
0.411557
0.41157
0.411583
0.411596
0.411609
0.411622
0.411635
0.411648
0.411661
0.411674
0.411687
0.4117
0.411713
0.411726
0.411739
0.411752
0.411765
0.411779
0.411792
0.411805
0.411818
0.411832
0.411845
0.411859
0.411871
0.411885
0.411898
0.411912
0.411925
0.411938
0.41195
0.41196
0.41196
0.41196
1
1.09593
1.14367
1.13402
1.09769
1.05332
1.0094
0.969197
0.933601
0.902473
0.87531
0.851531
0.830594
0.812032
0.795459
0.780559
0.767078
0.754809
0.743583
0.733263
0.723734
0.714904
0.706692
0.699031
0.691865
0.685143
0.678824
0.672871
0.667251
0.661936
0.656901
0.652123
0.647583
0.643262
0.639145
0.635216
0.631464
0.627876
0.624442
0.621151
0.617994
0.614964
0.612053
0.609253
0.606559
0.603965
0.601465
0.599055
0.596728
0.594482
0.592313
0.590215
0.588187
0.586224
0.584324
0.582484
0.580701
0.578973
0.577297
0.575672
0.574094
0.572562
0.571074
0.569629
0.568225
0.56686
0.565533
0.564242
0.562987
0.561765
0.560576
0.559418
0.558291
0.557194
0.556124
0.555083
0.554068
0.553078
0.552114
0.551174
0.550258
0.549364
0.548492
0.547642
0.546812
0.546003
0.545213
0.544442
0.54369
0.542956
0.54224
0.54154
0.540857
0.54019
0.539538
0.538902
0.538281
0.537674
0.537082
0.536503
0.535937
0.535385
0.534845
0.534317
0.533801
0.533297
0.532805
0.532323
0.531853
0.531393
0.530943
0.530503
0.530073
0.529653
0.529242
0.52884
0.528447