# vtk DataFile Version 2.0
FlowField
ASCII
DATASET STRUCTURED_GRID
DIMENSIONS 400 1 50
POINTS 20000 float
0 0 0
0.08 0 0
0.16 0 0
0.24 0 0
0.32 0 0
0.4 0 0
0.48 0 0
0.56 0 0
0.64 0 0
0.72 0 0
0.8 0 0
0.88 0 0
0.96 0 0
1.04 0 0
1.12 0 0
1.2 0 0
1.28 0 0
1.36 0 0
1.44 0 0
1.52 0 0
1.6 0 0
1.68 0 0
1.76 0 0
1.84 0 0
1.92 0 0
2 0 0
2.08 0 0
2.16 0 0
2.24 0 0
2.32 0 0
2.4 0 0
2.48 0 0
2.56 0 0
2.64 0 0
2.72 0 0
2.8 0 0
2.88 0 0
2.96 0 0
3.04 0 0
3.12 0 0
3.2 0 0
3.28 0 0
3.36 0 0
3.44 0 0
3.52 0 0
3.6 0 0
3.68 0 0
3.76 0 0
3.84 0 0
3.92 0 0
4 0 0
4.08 0 0
4.16 0 0
4.24 0 0
4.32 0 0
4.4 0 0
4.48 0 0
4.56 0 0
4.64 0 0
4.72 0 0
4.8 0 0
4.88 0 0
4.96 0 0
5.04 0 0
5.12 0 0
5.2 0 0
5.28 0 0
5.36 0 0
5.44 0 0
5.52 0 0
5.6 0 0
5.68 0 0
5.76 0 0
5.84 0 0
5.92 0 0
6 0 0
6.08 0 0
6.16 0 0
6.24 0 0
6.32 0 0
6.4 0 0
6.48 0 0
6.56 0 0
6.64 0 0
6.72 0 0
6.8 0 0
6.88 0 0
6.96 0 0
7.04 0 0
7.12 0 0
7.2 0 0
7.28 0 0
7.36 0 0
7.44 0 0
7.52 0 0
7.6 0 0
7.68 0 0
7.76 0 0
7.84 0 0
7.92 0 0
8 0 0
8.08 0 0
8.16 0 0
8.24 0 0
8.32 0 0
8.4 0 0
8.48 0 0
8.56 0 0
8.64 0 0
8.72 0 0
8.8 0 0
8.88 0 0
8.96 0 0
9.04 0 0
9.12 0 0
9.2 0 0
9.28 0 0
9.36 0 0
9.44 0 0
9.52 0 0
9.6 0 0
9.68 0 0
9.76 0 0
9.84 0 0
9.92 0 0
10 0 0
10.08 0 0
10.16 0 0
10.24 0 0
10.32 0 0
10.4 0 0
10.48 0 0
10.56 0 0
10.64 0 0
10.72 0 0
10.8 0 0
10.88 0 0
10.96 0 0
11.04 0 0
11.12 0 0
11.2 0 0
11.28 0 0
11.36 0 0
11.44 0 0
11.52 0 0
11.6 0 0
11.68 0 0
11.76 0 0
11.84 0 0
11.92 0 0
12 0 0
12.08 0 0
12.16 0 0
12.24 0 0
12.32 0 0
12.4 0 0
12.48 0 0
12.56 0 0
12.64 0 0
12.72 0 0
12.8 0 0
12.88 0 0
12.96 0 0
13.04 0 0
13.12 0 0
13.2 0 0
13.28 0 0
13.36 0 0
13.44 0 0
13.52 0 0
13.6 0 0
13.68 0 0
13.76 0 0
13.84 0 0
13.92 0 0
14 0 0
14.08 0 0
14.16 0 0
14.24 0 0
14.32 0 0
14.4 0 0
14.48 0 0
14.56 0 0
14.64 0 0
14.72 0 0
14.8 0 0
14.88 0 0
14.96 0 0
15.04 0 0
15.12 0 0
15.2 0 0
15.28 0 0
15.36 0 0
15.44 0 0
15.52 0 0
15.6 0 0
15.68 0 0
15.76 0 0
15.84 0 0
15.92 0 0
16 0 0
16.08 0 0
16.16 0 0
16.24 0 0
16.32 0 0
16.4 0 0
16.48 0 0
16.56 0 0
16.64 0 0
16.72 0 0
16.8 0 0
16.88 0 0
16.96 0 0
17.04 0 0
17.12 0 0
17.2 0 0
17.28 0 0
17.36 0 0
17.44 0 0
17.52 0 0
17.6 0 0
17.68 0 0
17.76 0 0
17.84 0 0
17.92 0 0
18 0 0
18.08 0 0
18.16 0 0
18.24 0 0
18.32 0 0
18.4 0 0
18.48 0 0
18.56 0 0
18.64 0 0
18.72 0 0
18.8 0 0
18.88 0 0
18.96 0 0
19.04 0 0
19.12 0 0
19.2 0 0
19.28 0 0
19.36 0 0
19.44 0 0
19.52 0 0
19.6 0 0
19.68 0 0
19.76 0 0
19.84 0 0
19.92 0 0
20 0 0
20.08 0 0
20.16 0 0
20.24 0 0
20.32 0 0
20.4 0 0
20.48 0 0
20.56 0 0
20.64 0 0
20.72 0 0
20.8 0 0
20.88 0 0
20.96 0 0
21.04 0 0
21.12 0 0
21.2 0 0
21.28 0 0
21.36 0 0
21.44 0 0
21.52 0 0
21.6 0 0
21.68 0 0
21.76 0 0
21.84 0 0
21.92 0 0
22 0 0
22.08 0 0
22.16 0 0
22.24 0 0
22.32 0 0
22.4 0 0
22.48 0 0
22.56 0 0
22.64 0 0
22.72 0 0
22.8 0 0
22.88 0 0
22.96 0 0
23.04 0 0
23.12 0 0
23.2 0 0
23.28 0 0
23.36 0 0
23.44 0 0
23.52 0 0
23.6 0 0
23.68 0 0
23.76 0 0
23.84 0 0
23.92 0 0
24 0 0
24.08 0 0
24.16 0 0
24.24 0 0
24.32 0 0
24.4 0 0
24.48 0 0
24.56 0 0
24.64 0 0
24.72 0 0
24.8 0 0
24.88 0 0
24.96 0 0
25.04 0 0
25.12 0 0
25.2 0 0
25.28 0 0
25.36 0 0
25.44 0 0
25.52 0 0
25.6 0 0
25.68 0 0
25.76 0 0
25.84 0 0
25.92 0 0
26 0 0
26.08 0 0
26.16 0 0
26.24 0 0
26.32 0 0
26.4 0 0
26.48 0 0
26.56 0 0
26.64 0 0
26.72 0 0
26.8 0 0
26.88 0 0
26.96 0 0
27.04 0 0
27.12 0 0
27.2 0 0
27.28 0 0
27.36 0 0
27.44 0 0
27.52 0 0
27.6 0 0
27.68 0 0
27.76 0 0
27.84 0 0
27.92 0 0
28 0 0
28.08 0 0
28.16 0 0
28.24 0 0
28.32 0 0
28.4 0 0
28.48 0 0
28.56 0 0
28.64 0 0
28.72 0 0
28.8 0 0
28.88 0 0
28.96 0 0
29.04 0 0
29.12 0 0
29.2 0 0
29.28 0 0
29.36 0 0
29.44 0 0
29.52 0 0
29.6 0 0
29.68 0 0
29.76 0 0
29.84 0 0
29.92 0 0
30 0 0
30.08 0 0
30.16 0 0
30.24 0 0
30.32 0 0
30.4 0 0
30.48 0 0
30.56 0 0
30.64 0 0
30.72 0 0
30.8 0 0
30.88 0 0
30.96 0 0
31.04 0 0
31.12 0 0
31.2 0 0
31.28 0 0
31.36 0 0
31.44 0 0
31.52 0 0
31.6 0 0
31.68 0 0
31.76 0 0
31.84 0 0
31.92 0 0
0 0.02 0
0.08 0.02 0
0.16 0.02 0
0.24 0.02 0
0.32 0.02 0
0.4 0.02 0
0.48 0.02 0
0.56 0.02 0
0.64 0.02 0
0.72 0.02 0
0.8 0.02 0
0.88 0.02 0
0.96 0.02 0
1.04 0.02 0
1.12 0.02 0
1.2 0.02 0
1.28 0.02 0
1.36 0.02 0
1.44 0.02 0
1.52 0.02 0
1.6 0.02 0
1.68 0.02 0
1.76 0.02 0
1.84 0.02 0
1.92 0.02 0
2 0.02 0
2.08 0.02 0
2.16 0.02 0
2.24 0.02 0
2.32 0.02 0
2.4 0.02 0
2.48 0.02 0
2.56 0.02 0
2.64 0.02 0
2.72 0.02 0
2.8 0.02 0
2.88 0.02 0
2.96 0.02 0
3.04 0.02 0
3.12 0.02 0
3.2 0.02 0
3.28 0.02 0
3.36 0.02 0
3.44 0.02 0
3.52 0.02 0
3.6 0.02 0
3.68 0.02 0
3.76 0.02 0
3.84 0.02 0
3.92 0.02 0
4 0.02 0
4.08 0.02 0
4.16 0.02 0
4.24 0.02 0
4.32 0.02 0
4.4 0.02 0
4.48 0.02 0
4.56 0.02 0
4.64 0.02 0
4.72 0.02 0
4.8 0.02 0
4.88 0.02 0
4.96 0.02 0
5.04 0.02 0
5.12 0.02 0
5.2 0.02 0
5.28 0.02 0
5.36 0.02 0
5.44 0.02 0
5.52 0.02 0
5.6 0.02 0
5.68 0.02 0
5.76 0.02 0
5.84 0.02 0
5.92 0.02 0
6 0.02 0
6.08 0.02 0
6.16 0.02 0
6.24 0.02 0
6.32 0.02 0
6.4 0.02 0
6.48 0.02 0
6.56 0.02 0
6.64 0.02 0
6.72 0.02 0
6.8 0.02 0
6.88 0.02 0
6.96 0.02 0
7.04 0.02 0
7.12 0.02 0
7.2 0.02 0
7.28 0.02 0
7.36 0.02 0
7.44 0.02 0
7.52 0.02 0
7.6 0.02 0
7.68 0.02 0
7.76 0.02 0
7.84 0.02 0
7.92 0.02 0
8 0.02 0
8.08 0.02 0
8.16 0.02 0
8.24 0.02 0
8.32 0.02 0
8.4 0.02 0
8.48 0.02 0
8.56 0.02 0
8.64 0.02 0
8.72 0.02 0
8.8 0.02 0
8.88 0.02 0
8.96 0.02 0
9.04 0.02 0
9.12 0.02 0
9.2 0.02 0
9.28 0.02 0
9.36 0.02 0
9.44 0.02 0
9.52 0.02 0
9.6 0.02 0
9.68 0.02 0
9.76 0.02 0
9.84 0.02 0
9.92 0.02 0
10 0.02 0
10.08 0.02 0
10.16 0.02 0
10.24 0.02 0
10.32 0.02 0
10.4 0.02 0
10.48 0.02 0
10.56 0.02 0
10.64 0.02 0
10.72 0.02 0
10.8 0.02 0
10.88 0.02 0
10.96 0.02 0
11.04 0.02 0
11.12 0.02 0
11.2 0.02 0
11.28 0.02 0
11.36 0.02 0
11.44 0.02 0
11.52 0.02 0
11.6 0.02 0
11.68 0.02 0
11.76 0.02 0
11.84 0.02 0
11.92 0.02 0
12 0.02 0
12.08 0.02 0
12.16 0.02 0
12.24 0.02 0
12.32 0.02 0
12.4 0.02 0
12.48 0.02 0
12.56 0.02 0
12.64 0.02 0
12.72 0.02 0
12.8 0.02 0
12.88 0.02 0
12.96 0.02 0
13.04 0.02 0
13.12 0.02 0
13.2 0.02 0
13.28 0.02 0
13.36 0.02 0
13.44 0.02 0
13.52 0.02 0
13.6 0.02 0
13.68 0.02 0
13.76 0.02 0
13.84 0.02 0
13.92 0.02 0
14 0.02 0
14.08 0.02 0
14.16 0.02 0
14.24 0.02 0
14.32 0.02 0
14.4 0.02 0
14.48 0.02 0
14.56 0.02 0
14.64 0.02 0
14.72 0.02 0
14.8 0.02 0
14.88 0.02 0
14.96 0.02 0
15.04 0.02 0
15.12 0.02 0
15.2 0.02 0
15.28 0.02 0
15.36 0.02 0
15.44 0.02 0
15.52 0.02 0
15.6 0.02 0
15.68 0.02 0
15.76 0.02 0
15.84 0.02 0
15.92 0.02 0
16 0.02 0
16.08 0.02 0
16.16 0.02 0
16.24 0.02 0
16.32 0.02 0
16.4 0.02 0
16.48 0.02 0
16.56 0.02 0
16.64 0.02 0
16.72 0.02 0
16.8 0.02 0
16.88 0.02 0
16.96 0.02 0
17.04 0.02 0
17.12 0.02 0
17.2 0.02 0
17.28 0.02 0
17.36 0.02 0
17.44 0.02 0
17.52 0.02 0
17.6 0.02 0
17.68 0.02 0
17.76 0.02 0
17.84 0.02 0
17.92 0.02 0
18 0.02 0
18.08 0.02 0
18.16 0.02 0
18.24 0.02 0
18.32 0.02 0
18.4 0.02 0
18.48 0.02 0
18.56 0.02 0
18.64 0.02 0
18.72 0.02 0
18.8 0.02 0
18.88 0.02 0
18.96 0.02 0
19.04 0.02 0
19.12 0.02 0
19.2 0.02 0
19.28 0.02 0
19.36 0.02 0
19.44 0.02 0
19.52 0.02 0
19.6 0.02 0
19.68 0.02 0
19.76 0.02 0
19.84 0.02 0
19.92 0.02 0
20 0.02 0
20.08 0.02 0
20.16 0.02 0
20.24 0.02 0
20.32 0.02 0
20.4 0.02 0
20.48 0.02 0
20.56 0.02 0
20.64 0.02 0
20.72 0.02 0
20.8 0.02 0
20.88 0.02 0
20.96 0.02 0
21.04 0.02 0
21.12 0.02 0
21.2 0.02 0
21.28 0.02 0
21.36 0.02 0
21.44 0.02 0
21.52 0.02 0
21.6 0.02 0
21.68 0.02 0
21.76 0.02 0
21.84 0.02 0
21.92 0.02 0
22 0.02 0
22.08 0.02 0
22.16 0.02 0
22.24 0.02 0
22.32 0.02 0
22.4 0.02 0
22.48 0.02 0
22.56 0.02 0
22.64 0.02 0
22.72 0.02 0
22.8 0.02 0
22.88 0.02 0
22.96 0.02 0
23.04 0.02 0
23.12 0.02 0
23.2 0.02 0
23.28 0.02 0
23.36 0.02 0
23.44 0.02 0
23.52 0.02 0
23.6 0.02 0
23.68 0.02 0
23.76 0.02 0
23.84 0.02 0
23.92 0.02 0
24 0.02 0
24.08 0.02 0
24.16 0.02 0
24.24 0.02 0
24.32 0.02 0
24.4 0.02 0
24.48 0.02 0
24.56 0.02 0
24.64 0.02 0
24.72 0.02 0
24.8 0.02 0
24.88 0.02 0
24.96 0.02 0
25.04 0.02 0
25.12 0.02 0
25.2 0.02 0
25.28 0.02 0
25.36 0.02 0
25.44 0.02 0
25.52 0.02 0
25.6 0.02 0
25.68 0.02 0
25.76 0.02 0
25.84 0.02 0
25.92 0.02 0
26 0.02 0
26.08 0.02 0
26.16 0.02 0
26.24 0.02 0
26.32 0.02 0
26.4 0.02 0
26.48 0.02 0
26.56 0.02 0
26.64 0.02 0
26.72 0.02 0
26.8 0.02 0
26.88 0.02 0
26.96 0.02 0
27.04 0.02 0
27.12 0.02 0
27.2 0.02 0
27.28 0.02 0
27.36 0.02 0
27.44 0.02 0
27.52 0.02 0
27.6 0.02 0
27.68 0.02 0
27.76 0.02 0
27.84 0.02 0
27.92 0.02 0
28 0.02 0
28.08 0.02 0
28.16 0.02 0
28.24 0.02 0
28.32 0.02 0
28.4 0.02 0
28.48 0.02 0
28.56 0.02 0
28.64 0.02 0
28.72 0.02 0
28.8 0.02 0
28.88 0.02 0
28.96 0.02 0
29.04 0.02 0
29.12 0.02 0
29.2 0.02 0
29.28 0.02 0
29.36 0.02 0
29.44 0.02 0
29.52 0.02 0
29.6 0.02 0
29.68 0.02 0
29.76 0.02 0
29.84 0.02 0
29.92 0.02 0
30 0.02 0
30.08 0.02 0
30.16 0.02 0
30.24 0.02 0
30.32 0.02 0
30.4 0.02 0
30.48 0.02 0
30.56 0.02 0
30.64 0.02 0
30.72 0.02 0
30.8 0.02 0
30.88 0.02 0
30.96 0.02 0
31.04 0.02 0
31.12 0.02 0
31.2 0.02 0
31.28 0.02 0
31.36 0.02 0
31.44 0.02 0
31.52 0.02 0
31.6 0.02 0
31.68 0.02 0
31.76 0.02 0
31.84 0.02 0
31.92 0.02 0
0 0.04 0
0.08 0.04 0
0.16 0.04 0
0.24 0.04 0
0.32 0.04 0
0.4 0.04 0
0.48 0.04 0
0.56 0.04 0
0.64 0.04 0
0.72 0.04 0
0.8 0.04 0
0.88 0.04 0
0.96 0.04 0
1.04 0.04 0
1.12 0.04 0
1.2 0.04 0
1.28 0.04 0
1.36 0.04 0
1.44 0.04 0
1.52 0.04 0
1.6 0.04 0
1.68 0.04 0
1.76 0.04 0
1.84 0.04 0
1.92 0.04 0
2 0.04 0
2.08 0.04 0
2.16 0.04 0
2.24 0.04 0
2.32 0.04 0
2.4 0.04 0
2.48 0.04 0
2.56 0.04 0
2.64 0.04 0
2.72 0.04 0
2.8 0.04 0
2.88 0.04 0
2.96 0.04 0
3.04 0.04 0
3.12 0.04 0
3.2 0.04 0
3.28 0.04 0
3.36 0.04 0
3.44 0.04 0
3.52 0.04 0
3.6 0.04 0
3.68 0.04 0
3.76 0.04 0
3.84 0.04 0
3.92 0.04 0
4 0.04 0
4.08 0.04 0
4.16 0.04 0
4.24 0.04 0
4.32 0.04 0
4.4 0.04 0
4.48 0.04 0
4.56 0.04 0
4.64 0.04 0
4.72 0.04 0
4.8 0.04 0
4.88 0.04 0
4.96 0.04 0
5.04 0.04 0
5.12 0.04 0
5.2 0.04 0
5.28 0.04 0
5.36 0.04 0
5.44 0.04 0
5.52 0.04 0
5.6 0.04 0
5.68 0.04 0
5.76 0.04 0
5.84 0.04 0
5.92 0.04 0
6 0.04 0
6.08 0.04 0
6.16 0.04 0
6.24 0.04 0
6.32 0.04 0
6.4 0.04 0
6.48 0.04 0
6.56 0.04 0
6.64 0.04 0
6.72 0.04 0
6.8 0.04 0
6.88 0.04 0
6.96 0.04 0
7.04 0.04 0
7.12 0.04 0
7.2 0.04 0
7.28 0.04 0
7.36 0.04 0
7.44 0.04 0
7.52 0.04 0
7.6 0.04 0
7.68 0.04 0
7.76 0.04 0
7.84 0.04 0
[...]
POINT_DATA 20000

SCALARS v float 1
LOOKUP_TABLE default
0
0
0
0
0
0
0
0
0
0
0
0
0
0
0
0
0
0
0
0
0
0
0
0
0
0
0
0
0
0
0
0
0
0
0
0
0
0
0
0
0
0
0
0
0
0
0
0
0
0
0
0
0
0
0
0
0
0
0
0
0
0
0
0
0
0
0
0
0
0
0
0
0
0
0
0
0
0
0
0
0
0
0
0
0
0
0
0
0
0
0
0
0
0
0
0
0
0
0
0
0
0
0
0
0
0
0
0
0
0
0
0
0
0
0
0
0
0
0
0
0
0
0
0
0
0
0
0
0
0
0
0
0
0
0
0
0
0
0
0
0
0
0
0
0
0
0
0
0
0
0
0
0
0
0
0
0
0
0
0
0
0
0
0
0
0
0
0
0
0
0
0
0
0
0
0
0
0
0
0
0
0
0
0
0
0
0
0
0
0
0
0
0
0
0
0
0
0
0
0
0
0
0
0
0
0
0
0
0
0
0
0
0
0
0
0
0
0
0
0
0
0
0
0
0
0
0
0
0
0
0
0
0
0
0
0
0
0
0
0
0
0
0
0
0
0
0
0
0
0
0
0
0
0
0
0
0
0
0
0
0
0
0
0
0
0
0
0
0
0
0
0
0
0
0
0
0
0
0
0
0
0
0
0
0
0
0
0
0
0
0
0
0
0
0
0
0
0
0
0
0
0
0
0
0
0
0
0
0
0
0
0
0
0
0
0
0
0
0
0
0
0
0
0
0
0
0
0
0
0
0
0
0
0
0
0
0
0
0
0
0
0
0
0
0
0
0
0
0
0
0
0
0
0
0
0
0
0
0
0
0
0
0
0
0
0
0
0
0
0
0
0
0
0
0
0
0
0
0
0
0
0
0
0
0
0
0
0
0
0
0
0
0
0
0
0
0
0
0
0
-0.123216
0.123216
0.0537803
0.0194271
0.00877102
0.00507747
0.0033754
0.00242488
0.00183499
0.00144372
0.00117142
0.000974587
0.000827692
0.000714972
0.000626312
0.000555025
0.000496584
0.000447852
0.000406612
0.000371266
0.000340639
0.000313853
0.000290236
0.000269269
0.000250543
0.000233731
0.000218566
0.000204831
0.000192343
0.000180948
0.000170516
0.000160937
0.000152116
0.000143973
0.000136439
0.000129454
0.000122965
0.000116925
0.000111291
0.000106025
0.000101094
9.64689e-05
9.21235e-05
8.80359e-05
8.41867e-05
8.05579e-05
7.71323e-05
7.38932e-05
7.08251e-05
6.79134e-05
6.5146e-05
6.25129e-05
6.00065e-05
5.76207e-05
5.53496e-05
5.3187e-05
5.11251e-05
4.91557e-05
4.72708e-05
4.54635e-05
4.37288e-05
4.20639e-05
4.04668e-05
3.89366e-05
3.74716e-05
3.6069e-05
3.47237e-05
3.34287e-05
3.21764e-05
3.09613e-05
2.97813e-05
2.86384e-05
2.7537e-05
2.64801e-05
2.54674e-05
2.44945e-05
2.35555e-05
2.26447e-05
2.17587e-05
2.08964e-05
2.00577e-05
1.92439e-05
1.84576e-05
1.77023e-05
1.69809e-05
1.62922e-05
1.56288e-05
1.49794e-05
1.43332e-05
1.36867e-05
1.3046e-05
1.24242e-05
1.18335e-05
1.12786e-05
1.07538e-05
1.02474e-05
9.74778e-06
9.24898e-06
8.75161e-06
8.26027e-06
7.78034e-06
7.31657e-06
6.87334e-06
6.45439e-06
6.06056e-06
5.68652e-06
5.3199e-06
4.94529e-06
4.55224e-06
4.14257e-06
3.73166e-06
3.34158e-06
2.9894e-06
2.67759e-06
2.39236e-06
2.11099e-06
1.81361e-06
1.49232e-06
1.15309e-06
8.10575e-07
4.80242e-07
1.72427e-07
-1.09552e-07
-3.68706e-07
-6.13568e-07
-8.57976e-07
-1.11959e-06
-1.4148e-06
-1.75022e-06
-2.11528e-06
-2.48194e-06
-2.81501e-06
-3.08995e-06
-3.30877e-06
-3.50367e-06
-3.72373e-06
-4.01007e-06
-4.37231e-06
-4.78044e-06
-5.17798e-06
-5.51064e-06
-5.75525e-06
-5.93302e-06
-6.0994e-06
-6.31571e-06
-6.61763e-06
-6.99719e-06
-7.40752e-06
-7.78712e-06
-8.09048e-06
-8.30922e-06
-8.47357e-06
-8.63485e-06
-8.83902e-06
-9.10499e-06
-9.41787e-06
-9.73896e-06
-1.0026e-05
-1.02532e-05
-1.04208e-05
-1.05524e-05
-1.06813e-05
-1.08346e-05
-1.1022e-05
-1.12341e-05
-1.14492e-05
-1.16446e-05
-1.18061e-05
-1.19333e-05
-1.20368e-05
-1.21324e-05
-1.22329e-05
-1.23436e-05
-1.24612e-05
-1.25764e-05
-1.26791e-05
-1.27629e-05
-1.28269e-05
-1.28759e-05
-1.29174e-05
-1.29588e-05
-1.30045e-05
-1.30548e-05
-1.31066e-05
-1.31548e-05
-1.31948e-05
-1.32234e-05
-1.32402e-05
-1.32471e-05
-1.32472e-05
-1.32441e-05
-1.32405e-05
-1.32381e-05
-1.3237e-05
-1.32365e-05
-1.32355e-05
-1.32326e-05
-1.32273e-05
-1.32193e-05
-1.3209e-05
-1.3197e-05
-1.31842e-05
-1.31713e-05
-1.31587e-05
-1.31466e-05
-1.31352e-05
-1.31242e-05
-1.31133e-05
-1.31026e-05
-1.30916e-05
-1.30805e-05
-1.30692e-05
-1.30578e-05
-1.30463e-05
-1.30348e-05
-1.30233e-05
-1.3012e-05
-1.30008e-05
-1.29896e-05
-1.29786e-05
-1.29677e-05
-1.29568e-05
-1.29459e-05
-1.29351e-05
-1.29243e-05
-1.29135e-05
-1.29028e-05
-1.28922e-05
-1.28815e-05
-1.2871e-05
-1.28605e-05
-1.285e-05
-1.28396e-05
-1.28293e-05
-1.28191e-05
-1.28089e-05
-1.27987e-05
-1.27886e-05
-1.27786e-05
-1.27687e-05
-1.27588e-05
-1.27489e-05
-1.27392e-05
-1.27295e-05
-1.27198e-05
-1.27103e-05
-1.27007e-05
-1.26913e-05
-1.2682e-05
-1.26727e-05
-1.26634e-05
-1.26543e-05
-1.26452e-05
-1.26362e-05
-1.26273e-05
-1.26184e-05
-1.26096e-05
-1.26009e-05
-1.25923e-05
-1.25837e-05
-1.25752e-05
-1.25668e-05
-1.25585e-05
-1.25502e-05
-1.25421e-05
-1.2534e-05
-1.2526e-05
-1.2518e-05
-1.25102e-05
-1.25024e-05
-1.24947e-05
-1.24871e-05
-1.24796e-05
-1.24722e-05
-1.24649e-05
-1.24576e-05
-1.24504e-05
-1.24433e-05
-1.24363e-05
-1.24294e-05
-1.24226e-05
-1.24159e-05
-1.24092e-05
-1.24027e-05
-1.23962e-05
-1.23898e-05
-1.23836e-05
-1.23774e-05
-1.23713e-05
-1.23653e-05
-1.23593e-05
-1.23535e-05
-1.23478e-05
-1.23422e-05
-1.23366e-05
-1.23312e-05
-1.23258e-05
-1.23206e-05
-1.23154e-05
-1.23104e-05
-1.23054e-05
-1.23005e-05
-1.22958e-05
-1.22911e-05
-1.22865e-05
-1.22821e-05
-1.22777e-05
-1.22734e-05
-1.22692e-05
-1.22652e-05
-1.22612e-05
-1.22573e-05
-1.22535e-05
-1.22499e-05
-1.22463e-05
-1.22428e-05
-1.22395e-05
-1.22362e-05
-1.2233e-05
-1.223e-05
-1.2227e-05
-1.22242e-05
-1.22214e-05
-1.22188e-05
-1.22163e-05
-1.22139e-05
-1.22115e-05
-1.22093e-05
-1.22072e-05
-1.22052e-05
-1.22032e-05
-1.22015e-05
-1.21997e-05
-1.21982e-05
-1.21967e-05
-1.21954e-05
-1.2194e-05
-1.2193e-05
-1.21918e-05
-1.2191e-05
-1.219e-05
-1.21895e-05
-1.21886e-05
-1.21884e-05
-1.21876e-05
-1.21877e-05
-1.21871e-05
-1.21876e-05
-1.2187e-05
-1.21878e-05
-1.21873e-05
-1.21886e-05
-1.2188e-05
-1.21898e-05
-1.21891e-05
-1.21916e-05
-1.21907e-05
-1.21939e-05
-1.21926e-05
-1.21967e-05
-1.21948e-05
-1.22001e-05
-1.21975e-05
-1.22042e-05
-1.22004e-05
-1.2209e-05
-1.22037e-05
-1.22146e-05
-1.22072e-05
-1.22211e-05
-1.22109e-05
-1.22288e-05
-1.22147e-05
-1.22378e-05
-1.22184e-05
-1.22484e-05
-1.2222e-05
-1.22611e-05
-1.22252e-05
-1.22764e-05
-1.22278e-05
-1.22949e-05
-1.22298e-05
-1.23169e-05
-1.22311e-05
-1.23425e-05
-1.22323e-05
-1.23711e-05
-1.22338e-05
-1.24003e-05
-1.22351e-05
-1.24246e-05
-1.2232e-05
-1.24233e-05
-1.22122e-05
-1.22826e-05
-1.21579e-05
-1.08127e-05
-1.11371e-05
-1.11371e-05
-0.142143
0.142143
0.100992
0.0539
0.0302431
0.0189046
0.0129137
0.0093989
0.00716577
0.00566269
0.00460605
0.00383692
0.0032603
0.00281669
0.00246743
0.00218669
0.00195681
0.00176545
0.00160386
0.00146566
0.00134618
0.0012419
0.00115014
0.00106881
0.000996287
0.000931259
0.000872672
0.000819656
0.000771492
0.000727575
0.000687398
0.000650526
0.000616594
0.000585287
0.000556333
0.000529499
0.000504576
0.00048138
0.000459749
0.000439535
0.000420609
0.00040286
0.000386189
0.00037051
0.000355745
0.000341824
0.000328679
0.000316248
0.000304472
0.0002933
0.000282686
0.000272592
0.00026299
0.000253851
0.000245151
0.000236862
0.000228955
0.000221399
0.000214166
0.000207234
0.000200583
0.000194204
0.000188086
0.000182224
0.000176606
0.00017122
0.000166045
0.000161059
0.000156238
0.000151568
0.000147044
0.000142673
0.000138463
0.00013442
0.000130537
0.000126797
0.000123181
0.000119674
0.000116266
0.000112955
0.00010974
0.000106626
0.00010362
0.000100728
9.79549e-05
9.52898e-05
9.27076e-05
9.01756e-05
8.76686e-05
8.51844e-05
8.27467e-05
8.03924e-05
7.815e-05
7.60234e-05
7.39895e-05
7.2012e-05
7.00608e-05
6.81237e-05
6.62066e-05
6.43248e-05
6.24938e-05
6.07263e-05
5.90326e-05
5.74185e-05
5.58796e-05
5.43938e-05
5.29229e-05
5.14278e-05
4.98895e-05
4.83254e-05
4.67861e-05
4.53306e-05
4.3995e-05
4.27704e-05
4.16072e-05
4.04399e-05
3.92199e-05
3.7937e-05
3.66174e-05
3.53062e-05
3.40444e-05
3.28544e-05
3.17373e-05
3.06759e-05
2.96386e-05
2.8582e-05
2.74583e-05
2.62322e-05
2.49023e-05
2.35157e-05
2.2159e-05
2.09227e-05
1.98521e-05
1.89133e-05
1.79979e-05
1.69716e-05
1.5745e-05
1.43271e-05
1.28301e-05
1.14165e-05
1.02157e-05
9.25428e-06
8.43823e-06
7.59993e-06
6.58406e-06
5.32761e-06
3.89156e-06
2.42865e-06
1.10577e-06
2.2413e-08
-8.33208e-07
-1.57066e-06
-2.33685e-06
-3.24199e-06
-4.3095e-06
-5.47193e-06
-6.61055e-06
-7.61535e-06
-8.43466e-06
-9.09239e-06
-9.66856e-06
-1.02568e-05
-1.0921e-05
-1.16714e-05
-1.24675e-05
-1.3243e-05
-1.39381e-05
-1.45242e-05
-1.50109e-05
-1.54356e-05
-1.58428e-05
-1.6264e-05
-1.67066e-05
-1.71549e-05
-1.75805e-05
-1.7957e-05
-1.82708e-05
-1.85253e-05
-1.87379e-05
-1.89313e-05
-1.91246e-05
-1.93268e-05
-1.95354e-05
-1.97391e-05
-1.99231e-05
-2.00752e-05
-2.01894e-05
-2.02672e-05
-2.0316e-05
-2.03465e-05
-2.03689e-05
-2.03905e-05
-2.04149e-05
-2.04417e-05
-2.04683e-05
-2.04909e-05
-2.05067e-05
-2.0514e-05
-2.05131e-05
-2.05055e-05
-2.04935e-05
-2.04796e-05
-2.04657e-05
-2.04531e-05
-2.04422e-05
-2.04329e-05
-2.04246e-05
-2.04166e-05
-2.04084e-05
-2.03997e-05
-2.03902e-05
-2.03801e-05
-2.03695e-05
-2.03587e-05
-2.0348e-05
-2.03373e-05
-2.03269e-05
-2.03168e-05
-2.03069e-05
-2.02972e-05
-2.02875e-05
-2.0278e-05
-2.02684e-05
-2.02589e-05
-2.02493e-05
-2.02398e-05
-2.02302e-05
-2.02207e-05
-2.02112e-05
-2.02018e-05
-2.01925e-05
-2.01832e-05
-2.0174e-05
-2.01649e-05
-2.01558e-05
-2.01468e-05
-2.01378e-05
-2.01289e-05
-2.01201e-05
-2.01113e-05
-2.01026e-05
-2.00939e-05
-2.00853e-05
-2.00768e-05
-2.00683e-05
-2.006e-05
-2.00516e-05
-2.00434e-05
-2.00352e-05
-2.00271e-05
-2.0019e-05
-2.0011e-05
-2.00031e-05
-1.99953e-05
-1.99875e-05
-1.99798e-05
-1.99722e-05
-1.99647e-05
-1.99572e-05
-1.99498e-05
-1.99425e-05
-1.99353e-05
-1.99281e-05
-1.9921e-05
-1.9914e-05
-1.99071e-05
-1.99003e-05
-1.98935e-05
-1.98868e-05
-1.98802e-05
-1.98737e-05
-1.98673e-05
-1.98609e-05
-1.98547e-05
-1.98485e-05
-1.98424e-05
-1.98364e-05
-1.98305e-05
-1.98247e-05
-1.98189e-05
-1.98133e-05
-1.98077e-05
-1.98022e-05
-1.97969e-05
-1.97916e-05
-1.97864e-05
-1.97813e-05
-1.97762e-05
-1.97713e-05
-1.97665e-05
-1.97617e-05
-1.97571e-05
-1.97525e-05
-1.97481e-05
-1.97437e-05
-1.97394e-05
-1.97353e-05
-1.97312e-05
-1.97272e-05
-1.97233e-05
-1.97195e-05
-1.97158e-05
-1.97122e-05
-1.97087e-05
-1.97053e-05
-1.97021e-05
-1.96988e-05
-1.96958e-05
-1.96928e-05
-1.96899e-05
-1.96871e-05
-1.96844e-05
-1.96818e-05
-1.96793e-05
-1.96769e-05
-1.96746e-05
-1.96724e-05
-1.96703e-05
-1.96683e-05
-1.96665e-05
-1.96647e-05
-1.9663e-05
-1.96614e-05
-1.966e-05
-1.96586e-05
-1.96574e-05
-1.96562e-05
-1.96552e-05
-1.96542e-05
-1.96535e-05
-1.96526e-05
-1.96521e-05
-1.96514e-05
-1.96512e-05
-1.96507e-05
-1.96508e-05
-1.96503e-05
-1.96508e-05
-1.96504e-05
-1.96512e-05
-1.96509e-05
-1.96521e-05
-1.96518e-05
-1.96534e-05
-1.96531e-05
-1.96553e-05
-1.96548e-05
-1.96576e-05
-1.96569e-05
-1.96605e-05
-1.96593e-05
-1.96639e-05
-1.96622e-05
-1.96679e-05
-1.96653e-05
-1.96725e-05
-1.96688e-05
-1.9678e-05
-1.96725e-05
-1.96842e-05
-1.96764e-05
-1.96914e-05
-1.96805e-05
-1.96997e-05
-1.96847e-05
-1.97093e-05
-1.96889e-05
-1.97206e-05
-1.9693e-05
-1.97339e-05
-1.96968e-05
-1.97499e-05
-1.96999e-05
-1.97693e-05
-1.97021e-05
-1.97932e-05
-1.97028e-05
-1.98229e-05
-1.97015e-05
-1.98602e-05
-1.96975e-05
-1.99069e-05
-1.96907e-05
-1.99645e-05
-1.96814e-05
-2.00334e-05
-1.96709e-05
-2.01117e-05
-1.96607e-05
-2.01929e-05
-1.96484e-05
-2.02599e-05
-1.96177e-05
-2.02511e-05
-1.95241e-05
-1.98292e-05
-1.92796e-05
-1.59038e-05
-1.66602e-05
-1.66602e-05
-0.122217
0.122217
0.121651
0.0822545
0.0539811
0.03685
0.0263787
0.0197015
0.0152504
0.0121647
0.00995267
0.00832065
0.00708544
0.00612883
0.00537231
0.00476249
0.00426234
0.00384573
0.00349386
0.00319303
0.00293307
0.0027063
0.00250688
0.00233025
0.00217282
0.00203172
0.00190465
0.00178971
0.0016853
0.00159013
0.00150307
0.0014232
0.0013497
0.0012819
0.00121921
0.0011611
0.00110714
0.00105692
0.00101009
0.000966322
0.00092535
0.000886926
0.000850836
0.000816893
0.000784927
0.000754782
0.000726315
0.000699391
0.000673886
0.000649691
0.000626711
0.000604864
0.000584084
0.00056431
0.000545483
0.000527541
0.000510422
0.00049406
0.000478399
0.00046339
0.000448998
0.000435194
0.000421959
0.000409271
0.000397106
0.000385434
0.000374213
0.000363398
0.000352948
0.000342834
0.000333051
0.000323607
0.000314515
0.000305776
0.000297373
0.000289273
0.000281439
0.000273841
0.000266464
0.000259303
0.000252358
0.000245635
0.000239144
0.000232895
0.000226886
0.000221095
0.000215473
0.000209964
0.000204528
0.000199169
0.000193934
0.000188885
0.000184065
0.000179473
0.000175058
0.000170755
0.000166515
0.00016232
0.000158184
0.000154137
0.000150205
0.000146407
0.000142759
0.000139266
0.000135911
0.000132652
0.00012942
0.000126152
0.000122825
0.000119481
0.000116214
0.00011312
0.000110251
0.000107574
0.000104992
0.000102391
9.96939e-05
9.68944e-05
9.40476e-05
9.12346e-05
8.85228e-05
8.59431e-05
8.34875e-05
8.11173e-05
7.87707e-05
7.63701e-05
7.38373e-05
7.11229e-05
6.8242e-05
6.52914e-05
6.24262e-05
5.97922e-05
5.74444e-05
5.52974e-05
5.31486e-05
5.07718e-05
4.80389e-05
4.50006e-05
4.18762e-05
3.89487e-05
3.64179e-05
3.42916e-05
3.23754e-05
3.037e-05
2.80256e-05
2.52714e-05
2.22507e-05
1.92477e-05
1.6544e-05
1.42827e-05
1.24085e-05
1.0708e-05
8.92575e-06
6.89075e-06
4.59265e-06
2.17354e-06
-1.51834e-07
-2.20256e-06
-3.91113e-06
-5.34193e-06
-6.64709e-06
-7.98793e-06
-9.46233e-06
-1.10702e-05
-1.27272e-05
-1.43133e-05
-1.57299e-05
-1.69388e-05
-1.79682e-05
-1.88904e-05
-1.9783e-05
-2.06957e-05
-2.16339e-05
-2.2564e-05
-2.34351e-05
-2.42032e-05
-2.485e-05
-2.53876e-05
-2.58501e-05
-2.6278e-05
-2.67026e-05
-2.71363e-05
-2.75709e-05
-2.79843e-05
-2.83509e-05
-2.8651e-05
-2.88773e-05
-2.90359e-05
-2.91426e-05
-2.92175e-05
-2.92787e-05
-2.93388e-05
-2.94025e-05
-2.94684e-05
-2.95311e-05
-2.95843e-05
-2.9623e-05
-2.96454e-05
-2.96526e-05
-2.96479e-05
-2.9636e-05
-2.96212e-05
-2.96071e-05
-2.95955e-05
-2.95871e-05
-2.95813e-05
-2.95772e-05
-2.95733e-05
-2.95688e-05
-2.95631e-05
-2.95561e-05
-2.95478e-05
-2.95387e-05
-2.95293e-05
-2.95199e-05
-2.95108e-05
-2.95021e-05
-2.94939e-05
-2.94861e-05
-2.94785e-05
-2.9471e-05
-2.94636e-05
-2.94562e-05
-2.94487e-05
-2.94411e-05
-2.94336e-05
-2.94259e-05
-2.94183e-05
-2.94108e-05
-2.94033e-05
-2.93959e-05
-2.93885e-05
-2.93812e-05
-2.9374e-05
-2.93669e-05
-2.93598e-05
-2.93528e-05
-2.93458e-05
-2.93389e-05
-2.9332e-05
-2.93252e-05
-2.93184e-05
-2.93117e-05
-2.93051e-05
-2.92985e-05
-2.9292e-05
-2.92855e-05
-2.92791e-05
-2.92728e-05
-2.92665e-05
-2.92604e-05
-2.92542e-05
-2.92482e-05
-2.92422e-05
-2.92362e-05
-2.92304e-05
-2.92246e-05
-2.92189e-05
-2.92132e-05
-2.92076e-05
-2.92021e-05
-2.91967e-05
-2.91913e-05
-2.91861e-05
-2.91808e-05
-2.91757e-05
-2.91706e-05
-2.91656e-05
-2.91607e-05
-2.91559e-05
-2.91511e-05
-2.91465e-05
-2.91419e-05
-2.91373e-05
-2.91329e-05
-2.91285e-05
-2.91243e-05
-2.91201e-05
-2.91159e-05
-2.91119e-05
-2.91079e-05
-2.91041e-05
-2.91003e-05
-2.90966e-05
-2.90929e-05
-2.90894e-05
-2.9086e-05
-2.90826e-05
-2.90793e-05
-2.90761e-05
-2.9073e-05
-2.907e-05
-2.9067e-05
-2.90642e-05
-2.90614e-05
-2.90588e-05
-2.90562e-05
-2.90537e-05
-2.90513e-05
-2.9049e-05
-2.90467e-05
-2.90446e-05
-2.90426e-05
-2.90406e-05
-2.90387e-05
-2.9037e-05
-2.90353e-05
-2.90337e-05
-2.90322e-05
-2.90308e-05
-2.90295e-05
-2.90283e-05
-2.90271e-05
-2.90261e-05
-2.90252e-05
-2.90244e-05
-2.90236e-05
-2.9023e-05
-2.90223e-05
-2.90219e-05
-2.90215e-05
-2.90213e-05
-2.9021e-05
-2.9021e-05
-2.90209e-05
-2.90212e-05
-2.90212e-05
-2.90217e-05
-2.90219e-05
-2.90226e-05
-2.90229e-05
-2.90239e-05
-2.90243e-05
-2.90256e-05
-2.90261e-05
-2.90277e-05
-2.90282e-05
-2.90303e-05
-2.90307e-05
-2.90332e-05
-2.90335e-05
-2.90366e-05
-2.90367e-05
-2.90405e-05
-2.90403e-05
-2.90449e-05
-2.90441e-05
-2.90497e-05
-2.90483e-05
-2.90552e-05
-2.90527e-05
-2.90613e-05
-2.90574e-05
-2.9068e-05
-2.90622e-05
-2.90757e-05
-2.90672e-05
-2.90843e-05
-2.90722e-05
-2.90941e-05
-2.90772e-05
-2.91053e-05
-2.90821e-05
-2.91182e-05
-2.90867e-05
-2.91333e-05
-2.90908e-05
-2.91512e-05
-2.90943e-05
-2.91727e-05
-2.90967e-05
-2.9199e-05
-2.90975e-05
-2.92316e-05
-2.90959e-05
-2.92728e-05
-2.9091e-05
-2.93252e-05
-2.90816e-05
-2.93921e-05
-2.90669e-05
-2.94772e-05
-2.90464e-05
-2.95835e-05
-2.9021e-05
-2.97122e-05
-2.8993e-05
-2.98608e-05
-2.89638e-05
-3.00194e-05
-2.89263e-05
-3.01604e-05
-2.88446e-05
-3.01767e-05
-2.86267e-05
-2.9476e-05
-2.80755e-05
-2.33715e-05
-2.34813e-05
-2.34813e-05
-0.0942705
0.0942705
0.121004
0.0969563
0.0717801
0.0531843
0.0401868
0.031097
0.0246429
0.0199699
0.0165165
0.013912
0.0119088
0.0103388
0.00908609
0.00806972
0.00723217
0.00653209
0.00593935
0.00543169
0.00499242
0.00460891
0.00427139
0.00397227
0.00370556
0.00346643
0.00325098
0.003056
0.00287886
0.00271732
0.00256951
0.00243385
0.002309
0.0021938
0.00208725
0.00198848
0.00189673
0.00181131
0.00173164
0.00165717
0.00158744
0.00152204
0.0014606
0.0014028
0.00134835
0.001297
0.00124849
0.00120259
0.00115912
0.00111787
0.00107869
0.00104146
0.00100604
0.000972331
0.000940233
0.000909639
0.000880439
0.000852529
0.000825813
0.000800212
0.000775665
0.000752124
0.000729548
0.000707899
0.000687134
0.000667197
0.000648025
0.000629545
0.000611695
0.000594433
0.000577748
0.000561649
0.000546151
0.000531248
0.000516909
0.000503078
0.000489699
0.000476728
0.000464141
0.000451929
0.000440092
0.000428636
0.000417572
0.000406909
0.00039664
0.000386727
0.000377098
0.000367669
0.000358391
0.000349273
0.000340385
0.000331819
0.000323628
0.000315799
0.000308254
0.000300895
0.00029365
0.000286499
0.000279467
0.000272597
0.000265926
0.000259479
0.000253271
0.000247304
0.000241553
0.000235948
0.000230392
0.000224799
0.000219144
0.000213497
0.000207996
0.000202776
0.000197896
0.000193297
0.000188829
0.000184324
0.000179679
0.000174895
0.00017006
0.000165293
0.000160686
0.000156274
0.000152035
0.000147906
0.000143793
0.000139585
0.000135177
0.000130508
0.000125615
0.000120648
0.000115832
0.000111367
0.00010731
0.000103519
9.96905e-05
9.55052e-05
9.08025e-05
8.56853e-05
8.04898e-05
7.56236e-05
7.13529e-05
6.7656e-05
6.42259e-05
6.06257e-05
5.65143e-05
5.18246e-05
4.67976e-05
4.18596e-05
3.74089e-05
3.3625e-05
3.03959e-05
2.73935e-05
2.42491e-05
2.07356e-05
1.6866e-05
1.28684e-05
9.06006e-06
5.69212e-06
2.84078e-06
3.91673e-07
-1.88681e-06
-4.22576e-06
-6.75335e-06
-9.45214e-06
-1.21869e-05
-1.478e-05
-1.70947e-05
-1.90867e-05
-2.08087e-05
-2.2372e-05
-2.38894e-05
-2.54279e-05
-2.6988e-05
-2.85162e-05
-2.99367e-05
-3.1189e-05
-3.2252e-05
-3.31486e-05
-3.39318e-05
-3.46608e-05
-3.53789e-05
-3.61e-05
-3.68088e-05
-3.74716e-05
-3.80515e-05
-3.85227e-05
-3.88784e-05
-3.91309e-05
-3.93066e-05
-3.9436e-05
-3.95459e-05
-3.96535e-05
-3.97649e-05
-3.98768e-05
-3.99808e-05
-4.00677e-05
-4.0131e-05
-4.01687e-05
-4.01834e-05
-4.01809e-05
-4.01683e-05
-4.01523e-05
-4.01378e-05
-4.01275e-05
-4.01219e-05
-4.01201e-05
-4.01204e-05
-4.01208e-05
-4.012e-05
-4.01172e-05
-4.01123e-05
-4.01055e-05
-4.00976e-05
-4.00893e-05
-4.0081e-05
-4.00733e-05
-4.00662e-05
-4.00598e-05
-4.00539e-05
-4.00484e-05
-4.0043e-05
-4.00376e-05
-4.00321e-05
-4.00266e-05
-4.00208e-05
-4.0015e-05
-4.00092e-05
-4.00033e-05
-3.99975e-05
-3.99917e-05
-3.99861e-05
-3.99805e-05
-3.99749e-05
-3.99695e-05
-3.99641e-05
-3.99588e-05
-3.99535e-05
-3.99483e-05
-3.99431e-05
-3.9938e-05
-3.99329e-05
-3.99278e-05
-3.99228e-05
-3.99179e-05
-3.9913e-05
-3.99082e-05
-3.99035e-05
-3.98987e-05
-3.98941e-05
-3.98895e-05
-3.9885e-05
-3.98805e-05
-3.98761e-05
-3.98718e-05
-3.98675e-05
-3.98633e-05
-3.98591e-05
-3.98551e-05
-3.9851e-05
-3.98471e-05
-3.98432e-05
-3.98394e-05
-3.98356e-05
-3.98319e-05
-3.98283e-05
-3.98247e-05
-3.98212e-05
-3.98178e-05
-3.98145e-05
-3.98112e-05
-3.9808e-05
-3.98049e-05
-3.98018e-05
-3.97988e-05
-3.97959e-05
-3.97931e-05
-3.97903e-05
-3.97876e-05
-3.9785e-05
-3.97824e-05
-3.978e-05
-3.97776e-05
-3.97752e-05
-3.9773e-05
-3.97708e-05
-3.97688e-05
-3.97667e-05
-3.97648e-05
-3.97629e-05
-3.97612e-05
-3.97595e-05
-3.97579e-05
-3.97563e-05
-3.97548e-05
-3.97535e-05
-3.97522e-05
-3.97509e-05
-3.97498e-05
-3.97487e-05
-3.97478e-05
-3.97469e-05
-3.9746e-05
-3.97453e-05
-3.97447e-05
-3.97441e-05
-3.97436e-05
-3.97432e-05
-3.97429e-05
-3.97426e-05
-3.97425e-05
-3.97424e-05
-3.97424e-05
-3.97425e-05
-3.97427e-05
-3.97429e-05
-3.97433e-05
-3.97436e-05
-3.97442e-05
-3.97447e-05
-3.97455e-05
-3.97461e-05
-3.97471e-05
-3.97479e-05
-3.97491e-05
-3.97499e-05
-3.97514e-05
-3.97523e-05
-3.9754e-05
-3.97551e-05
-3.9757e-05
-3.97581e-05
-3.97604e-05
-3.97615e-05
-3.97641e-05
-3.97652e-05
-3.97682e-05
-3.97691e-05
-3.97727e-05
-3.97734e-05
-3.97776e-05
-3.9778e-05
-3.97829e-05
-3.97828e-05
-3.97887e-05