# vtk DataFile Version 2.0
FlowField
ASCII
DATASET STRUCTURED_GRID
DIMENSIONS 400 1 50
POINTS 20000 float
0 0 0
0.08 0 0
0.16 0 0
0.24 0 0
0.32 0 0
0.4 0 0
0.48 0 0
0.56 0 0
0.64 0 0
0.72 0 0
0.8 0 0
0.88 0 0
0.96 0 0
1.04 0 0
1.12 0 0
1.2 0 0
1.28 0 0
1.36 0 0
1.44 0 0
1.52 0 0
1.6 0 0
1.68 0 0
1.76 0 0
1.84 0 0
1.92 0 0
2 0 0
2.08 0 0
2.16 0 0
2.24 0 0
2.32 0 0
2.4 0 0
2.48 0 0
2.56 0 0
2.64 0 0
2.72 0 0
2.8 0 0
2.88 0 0
2.96 0 0
3.04 0 0
3.12 0 0
3.2 0 0
3.28 0 0
3.36 0 0
3.44 0 0
3.52 0 0
3.6 0 0
3.68 0 0
3.76 0 0
3.84 0 0
3.92 0 0
4 0 0
4.08 0 0
4.16 0 0
4.24 0 0
4.32 0 0
4.4 0 0
4.48 0 0
4.56 0 0
4.64 0 0
4.72 0 0
4.8 0 0
4.88 0 0
4.96 0 0
5.04 0 0
5.12 0 0
5.2 0 0
5.28 0 0
5.36 0 0
5.44 0 0
5.52 0 0
5.6 0 0
5.68 0 0
5.76 0 0
5.84 0 0
5.92 0 0
6 0 0
6.08 0 0
6.16 0 0
6.24 0 0
6.32 0 0
6.4 0 0
6.48 0 0
6.56 0 0
6.64 0 0
6.72 0 0
6.8 0 0
6.88 0 0
6.96 0 0
7.04 0 0
7.12 0 0
7.2 0 0
7.28 0 0
7.36 0 0
7.44 0 0
7.52 0 0
7.6 0 0
7.68 0 0
7.76 0 0
7.84 0 0
7.92 0 0
8 0 0
8.08 0 0
8.16 0 0
8.24 0 0
8.32 0 0
8.4 0 0
8.48 0 0
8.56 0 0
8.64 0 0
8.72 0 0
8.8 0 0
8.88 0 0
8.96 0 0
9.04 0 0
9.12 0 0
9.2 0 0
9.28 0 0
9.36 0 0
9.44 0 0
9.52 0 0
9.6 0 0
9.68 0 0
9.76 0 0
9.84 0 0
9.92 0 0
10 0 0
10.08 0 0
10.16 0 0
10.24 0 0
10.32 0 0
10.4 0 0
10.48 0 0
10.56 0 0
10.64 0 0
10.72 0 0
10.8 0 0
10.88 0 0
10.96 0 0
11.04 0 0
11.12 0 0
11.2 0 0
11.28 0 0
11.36 0 0
11.44 0 0
11.52 0 0
11.6 0 0
11.68 0 0
11.76 0 0
11.84 0 0
11.92 0 0
12 0 0
12.08 0 0
12.16 0 0
12.24 0 0
12.32 0 0
12.4 0 0
12.48 0 0
12.56 0 0
12.64 0 0
12.72 0 0
12.8 0 0
12.88 0 0
12.96 0 0
13.04 0 0
13.12 0 0
13.2 0 0
13.28 0 0
13.36 0 0
13.44 0 0
13.52 0 0
13.6 0 0
13.68 0 0
13.76 0 0
13.84 0 0
13.92 0 0
14 0 0
14.08 0 0
14.16 0 0
14.24 0 0
14.32 0 0
14.4 0 0
14.48 0 0
14.56 0 0
14.64 0 0
14.72 0 0
14.8 0 0
14.88 0 0
14.96 0 0
15.04 0 0
15.12 0 0
15.2 0 0
15.28 0 0
15.36 0 0
15.44 0 0
15.52 0 0
15.6 0 0
15.68 0 0
15.76 0 0
15.84 0 0
15.92 0 0
16 0 0
16.08 0 0
16.16 0 0
16.24 0 0
16.32 0 0
16.4 0 0
16.48 0 0
16.56 0 0
16.64 0 0
16.72 0 0
16.8 0 0
16.88 0 0
16.96 0 0
17.04 0 0
17.12 0 0
17.2 0 0
17.28 0 0
17.36 0 0
17.44 0 0
17.52 0 0
17.6 0 0
17.68 0 0
17.76 0 0
17.84 0 0
17.92 0 0
18 0 0
18.08 0 0
18.16 0 0
18.24 0 0
18.32 0 0
18.4 0 0
18.48 0 0
18.56 0 0
18.64 0 0
18.72 0 0
18.8 0 0
18.88 0 0
18.96 0 0
19.04 0 0
19.12 0 0
19.2 0 0
19.28 0 0
19.36 0 0
19.44 0 0
19.52 0 0
19.6 0 0
19.68 0 0
19.76 0 0
19.84 0 0
19.92 0 0
20 0 0
20.08 0 0
20.16 0 0
20.24 0 0
20.32 0 0
20.4 0 0
20.48 0 0
20.56 0 0
20.64 0 0
20.72 0 0
20.8 0 0
20.88 0 0
20.96 0 0
21.04 0 0
21.12 0 0
21.2 0 0
21.28 0 0
21.36 0 0
21.44 0 0
21.52 0 0
21.6 0 0
21.68 0 0
21.76 0 0
21.84 0 0
21.92 0 0
22 0 0
22.08 0 0
22.16 0 0
22.24 0 0
22.32 0 0
22.4 0 0
22.48 0 0
22.56 0 0
22.64 0 0
22.72 0 0
22.8 0 0
22.88 0 0
22.96 0 0
23.04 0 0
23.12 0 0
23.2 0 0
23.28 0 0
23.36 0 0
23.44 0 0
23.52 0 0
23.6 0 0
23.68 0 0
23.76 0 0
23.84 0 0
23.92 0 0
24 0 0
24.08 0 0
24.16 0 0
24.24 0 0
24.32 0 0
24.4 0 0
24.48 0 0
24.56 0 0
24.64 0 0
24.72 0 0
24.8 0 0
24.88 0 0
24.96 0 0
25.04 0 0
25.12 0 0
25.2 0 0
25.28 0 0
25.36 0 0
25.44 0 0
25.52 0 0
25.6 0 0
25.68 0 0
25.76 0 0
25.84 0 0
25.92 0 0
26 0 0
26.08 0 0
26.16 0 0
26.24 0 0
26.32 0 0
26.4 0 0
26.48 0 0
26.56 0 0
26.64 0 0
26.72 0 0
26.8 0 0
26.88 0 0
26.96 0 0
27.04 0 0
27.12 0 0
27.2 0 0
27.28 0 0
27.36 0 0
27.44 0 0
27.52 0 0
27.6 0 0
27.68 0 0
27.76 0 0
27.84 0 0
27.92 0 0
28 0 0
28.08 0 0
28.16 0 0
28.24 0 0
28.32 0 0
28.4 0 0
28.48 0 0
28.56 0 0
28.64 0 0
28.72 0 0
28.8 0 0
28.88 0 0
28.96 0 0
29.04 0 0
29.12 0 0
29.2 0 0
29.28 0 0
29.36 0 0
29.44 0 0
29.52 0 0
29.6 0 0
29.68 0 0
29.76 0 0
29.84 0 0
29.92 0 0
30 0 0
30.08 0 0
30.16 0 0
30.24 0 0
30.32 0 0
30.4 0 0
30.48 0 0
30.56 0 0
30.64 0 0
30.72 0 0
30.8 0 0
30.88 0 0
30.96 0 0
31.04 0 0
31.12 0 0
31.2 0 0
31.28 0 0
31.36 0 0
31.44 0 0
31.52 0 0
31.6 0 0
31.68 0 0
31.76 0 0
31.84 0 0
31.92 0 0
0 0.02 0
0.08 0.02 0
0.16 0.02 0
0.24 0.02 0
0.32 0.02 0
0.4 0.02 0
0.48 0.02 0
0.56 0.02 0
0.64 0.02 0
0.72 0.02 0
0.8 0.02 0
0.88 0.02 0
0.96 0.02 0
1.04 0.02 0
1.12 0.02 0
1.2 0.02 0
1.28 0.02 0
1.36 0.02 0
1.44 0.02 0
1.52 0.02 0
1.6 0.02 0
1.68 0.02 0
1.76 0.02 0
1.84 0.02 0
1.92 0.02 0
2 0.02 0
2.08 0.02 0
2.16 0.02 0
2.24 0.02 0
2.32 0.02 0
2.4 0.02 0
2.48 0.02 0
2.56 0.02 0
2.64 0.02 0
2.72 0.02 0
2.8 0.02 0
2.88 0.02 0
2.96 0.02 0
3.04 0.02 0
3.12 0.02 0
3.2 0.02 0
3.28 0.02 0
3.36 0.02 0
3.44 0.02 0
3.52 0.02 0
3.6 0.02 0
3.68 0.02 0
3.76 0.02 0
3.84 0.02 0
3.92 0.02 0
4 0.02 0
4.08 0.02 0
4.16 0.02 0
4.24 0.02 0
4.32 0.02 0
4.4 0.02 0
4.48 0.02 0
4.56 0.02 0
4.64 0.02 0
4.72 0.02 0
4.8 0.02 0
4.88 0.02 0
4.96 0.02 0
5.04 0.02 0
5.12 0.02 0
5.2 0.02 0
5.28 0.02 0
5.36 0.02 0
5.44 0.02 0
5.52 0.02 0
5.6 0.02 0
5.68 0.02 0
5.76 0.02 0
5.84 0.02 0
5.92 0.02 0
6 0.02 0
6.08 0.02 0
6.16 0.02 0
6.24 0.02 0
6.32 0.02 0
6.4 0.02 0
6.48 0.02 0
6.56 0.02 0
6.64 0.02 0
6.72 0.02 0
6.8 0.02 0
6.88 0.02 0
6.96 0.02 0
7.04 0.02 0
7.12 0.02 0
7.2 0.02 0
7.28 0.02 0
7.36 0.02 0
7.44 0.02 0
7.52 0.02 0
7.6 0.02 0
7.68 0.02 0
7.76 0.02 0
7.84 0.02 0
7.92 0.02 0
8 0.02 0
8.08 0.02 0
8.16 0.02 0
8.24 0.02 0
8.32 0.02 0
8.4 0.02 0
8.48 0.02 0
8.56 0.02 0
8.64 0.02 0
8.72 0.02 0
8.8 0.02 0
8.88 0.02 0
8.96 0.02 0
9.04 0.02 0
9.12 0.02 0
9.2 0.02 0
9.28 0.02 0
9.36 0.02 0
9.44 0.02 0
9.52 0.02 0
9.6 0.02 0
9.68 0.02 0
9.76 0.02 0
9.84 0.02 0
9.92 0.02 0
10 0.02 0
10.08 0.02 0
10.16 0.02 0
10.24 0.02 0
10.32 0.02 0
10.4 0.02 0
10.48 0.02 0
10.56 0.02 0
10.64 0.02 0
10.72 0.02 0
10.8 0.02 0
10.88 0.02 0
10.96 0.02 0
11.04 0.02 0
11.12 0.02 0
11.2 0.02 0
11.28 0.02 0
11.36 0.02 0
11.44 0.02 0
11.52 0.02 0
11.6 0.02 0
11.68 0.02 0
11.76 0.02 0
11.84 0.02 0
11.92 0.02 0
12 0.02 0
12.08 0.02 0
12.16 0.02 0
12.24 0.02 0
12.32 0.02 0
12.4 0.02 0
12.48 0.02 0
12.56 0.02 0
12.64 0.02 0
12.72 0.02 0
12.8 0.02 0
12.88 0.02 0
12.96 0.02 0
13.04 0.02 0
13.12 0.02 0
13.2 0.02 0
13.28 0.02 0
13.36 0.02 0
13.44 0.02 0
13.52 0.02 0
13.6 0.02 0
13.68 0.02 0
13.76 0.02 0
13.84 0.02 0
13.92 0.02 0
14 0.02 0
14.08 0.02 0
14.16 0.02 0
14.24 0.02 0
14.32 0.02 0
14.4 0.02 0
14.48 0.02 0
14.56 0.02 0
14.64 0.02 0
14.72 0.02 0
14.8 0.02 0
14.88 0.02 0
14.96 0.02 0
15.04 0.02 0
15.12 0.02 0
15.2 0.02 0
15.28 0.02 0
15.36 0.02 0
15.44 0.02 0
15.52 0.02 0
15.6 0.02 0
15.68 0.02 0
15.76 0.02 0
15.84 0.02 0
15.92 0.02 0
16 0.02 0
16.08 0.02 0
16.16 0.02 0
16.24 0.02 0
16.32 0.02 0
16.4 0.02 0
16.48 0.02 0
16.56 0.02 0
16.64 0.02 0
16.72 0.02 0
16.8 0.02 0
16.88 0.02 0
16.96 0.02 0
17.04 0.02 0
17.12 0.02 0
17.2 0.02 0
17.28 0.02 0
17.36 0.02 0
17.44 0.02 0
17.52 0.02 0
17.6 0.02 0
17.68 0.02 0
17.76 0.02 0
17.84 0.02 0
17.92 0.02 0
18 0.02 0
18.08 0.02 0
18.16 0.02 0
18.24 0.02 0
18.32 0.02 0
18.4 0.02 0
18.48 0.02 0
18.56 0.02 0
18.64 0.02 0
18.72 0.02 0
18.8 0.02 0
18.88 0.02 0
18.96 0.02 0
19.04 0.02 0
19.12 0.02 0
19.2 0.02 0
19.28 0.02 0
19.36 0.02 0
19.44 0.02 0
19.52 0.02 0
19.6 0.02 0
19.68 0.02 0
19.76 0.02 0
19.84 0.02 0
19.92 0.02 0
20 0.02 0
20.08 0.02 0
20.16 0.02 0
20.24 0.02 0
20.32 0.02 0
20.4 0.02 0
20.48 0.02 0
20.56 0.02 0
20.64 0.02 0
20.72 0.02 0
20.8 0.02 0
20.88 0.02 0
20.96 0.02 0
21.04 0.02 0
21.12 0.02 0
21.2 0.02 0
21.28 0.02 0
21.36 0.02 0
21.44 0.02 0
21.52 0.02 0
21.6 0.02 0
21.68 0.02 0
21.76 0.02 0
21.84 0.02 0
21.92 0.02 0
22 0.02 0
22.08 0.02 0
22.16 0.02 0
22.24 0.02 0
22.32 0.02 0
22.4 0.02 0
22.48 0.02 0
22.56 0.02 0
22.64 0.02 0
22.72 0.02 0
22.8 0.02 0
22.88 0.02 0
22.96 0.02 0
23.04 0.02 0
23.12 0.02 0
23.2 0.02 0
23.28 0.02 0
23.36 0.02 0
23.44 0.02 0
23.52 0.02 0
23.6 0.02 0
23.68 0.02 0
23.76 0.02 0
23.84 0.02 0
23.92 0.02 0
24 0.02 0
24.08 0.02 0
24.16 0.02 0
24.24 0.02 0
24.32 0.02 0
24.4 0.02 0
24.48 0.02 0
24.56 0.02 0
24.64 0.02 0
24.72 0.02 0
24.8 0.02 0
24.88 0.02 0
24.96 0.02 0
25.04 0.02 0
25.12 0.02 0
25.2 0.02 0
25.28 0.02 0
25.36 0.02 0
25.44 0.02 0
25.52 0.02 0
25.6 0.02 0
25.68 0.02 0
25.76 0.02 0
25.84 0.02 0
25.92 0.02 0
26 0.02 0
26.08 0.02 0
26.16 0.02 0
26.24 0.02 0
26.32 0.02 0
26.4 0.02 0
26.48 0.02 0
26.56 0.02 0
26.64 0.02 0
26.72 0.02 0
26.8 0.02 0
26.88 0.02 0
26.96 0.02 0
27.04 0.02 0
27.12 0.02 0
27.2 0.02 0
27.28 0.02 0
27.36 0.02 0
27.44 0.02 0
27.52 0.02 0
27.6 0.02 0
27.68 0.02 0
27.76 0.02 0
27.84 0.02 0
27.92 0.02 0
28 0.02 0
28.08 0.02 0
28.16 0.02 0
28.24 0.02 0
28.32 0.02 0
28.4 0.02 0
28.48 0.02 0
28.56 0.02 0
28.64 0.02 0
28.72 0.02 0
28.8 0.02 0
28.88 0.02 0
28.96 0.02 0
29.04 0.02 0
29.12 0.02 0
29.2 0.02 0
29.28 0.02 0
29.36 0.02 0
29.44 0.02 0
29.52 0.02 0
29.6 0.02 0
29.68 0.02 0
29.76 0.02 0
29.84 0.02 0
29.92 0.02 0
30 0.02 0
30.08 0.02 0
30.16 0.02 0
30.24 0.02 0
30.32 0.02 0
30.4 0.02 0
30.48 0.02 0
30.56 0.02 0
30.64 0.02 0
30.72 0.02 0
30.8 0.02 0
30.88 0.02 0
30.96 0.02 0
31.04 0.02 0
31.12 0.02 0
31.2 0.02 0
31.28 0.02 0
31.36 0.02 0
31.44 0.02 0
31.52 0.02 0
31.6 0.02 0
31.68 0.02 0
31.76 0.02 0
31.84 0.02 0
31.92 0.02 0
0 0.04 0
0.08 0.04 0
0.16 0.04 0
0.24 0.04 0
0.32 0.04 0
0.4 0.04 0
0.48 0.04 0
0.56 0.04 0
0.64 0.04 0
0.72 0.04 0
0.8 0.04 0
0.88 0.04 0
0.96 0.04 0
1.04 0.04 0
1.12 0.04 0
1.2 0.04 0
1.28 0.04 0
1.36 0.04 0
1.44 0.04 0
1.52 0.04 0
1.6 0.04 0
1.68 0.04 0
1.76 0.04 0
1.84 0.04 0
1.92 0.04 0
2 0.04 0
2.08 0.04 0
2.16 0.04 0
2.24 0.04 0
2.32 0.04 0
2.4 0.04 0
2.48 0.04 0
2.56 0.04 0
2.64 0.04 0
2.72 0.04 0
2.8 0.04 0
2.88 0.04 0
2.96 0.04 0
3.04 0.04 0
3.12 0.04 0
3.2 0.04 0
3.28 0.04 0
3.36 0.04 0
3.44 0.04 0
3.52 0.04 0
3.6 0.04 0
3.68 0.04 0
3.76 0.04 0
3.84 0.04 0
3.92 0.04 0
4 0.04 0
4.08 0.04 0
4.16 0.04 0
4.24 0.04 0
4.32 0.04 0
4.4 0.04 0
4.48 0.04 0
4.56 0.04 0
4.64 0.04 0
4.72 0.04 0
4.8 0.04 0
4.88 0.04 0
4.96 0.04 0
5.04 0.04 0
5.12 0.04 0
5.2 0.04 0
5.28 0.04 0
5.36 0.04 0
5.44 0.04 0
5.52 0.04 0
5.6 0.04 0
5.68 0.04 0
5.76 0.04 0
5.84 0.04 0
5.92 0.04 0
6 0.04 0
6.08 0.04 0
6.16 0.04 0
6.24 0.04 0
6.32 0.04 0
6.4 0.04 0
6.48 0.04 0
6.56 0.04 0
6.64 0.04 0
6.72 0.04 0
6.8 0.04 0
6.88 0.04 0
6.96 0.04 0
7.04 0.04 0
7.12 0.04 0
7.2 0.04 0
7.28 0.04 0
7.36 0.04 0
7.44 0.04 0
7.52 0.04 0
7.6 0.04 0
7.68 0.04 0
7.76 0.04 0
7.84 0.04 0
[...]
POINT_DATA 20000

SCALARS p float 1
LOOKUP_TABLE default
1
179.664
179.435
179.369
179.345
179.331
179.321
179.312
179.303
179.295
179.288
179.281
179.275
179.268
179.262
179.257
179.251
179.246
179.241
179.236
179.232
179.228
179.224
179.22
179.216
179.212
179.209
179.206
179.203
179.2
179.198
179.195
179.193
179.191
179.189
179.187
179.185
179.183
179.182
179.181
179.179
179.178
179.177
179.177
179.176
179.175
179.175
179.175
179.174
179.174
179.175
179.175
179.175
179.176
179.176
179.177
179.178
179.179
179.18
179.181
179.182
179.183
179.185
179.186
179.187
179.189
179.19
179.192
179.194
179.195
179.197
179.199
179.201
179.203
179.205
179.207
179.209
179.211
179.213
179.215
179.218
179.22
179.222
179.224
179.227
179.229
179.231
179.234
179.236
179.238
179.241
179.243
179.246
179.248
179.25
179.253
179.255
179.258
179.26
179.263
179.265
179.268
179.27
179.273
179.275
179.278
179.28
179.283
179.285
179.288
179.291
179.293
179.296
179.298
179.301
179.303
179.306
179.308
179.31
179.313
179.315
179.318
179.32
179.323
179.325
179.328
179.33
179.332
179.335
179.337
179.339
179.342
179.344
179.346
179.348
179.351
179.353
179.355
179.357
179.359
179.362
179.364
179.366
179.368
179.37
179.372
179.374
179.376
179.378
179.38
179.382
179.384
179.385
179.387
179.389
179.391
179.392
179.394
179.396
179.397
179.399
179.401
179.402
179.404
179.405
179.407
179.408
179.41
179.411
179.412
179.414
179.415
179.416
179.417
179.418
179.42
179.421
179.422
179.423
179.424
179.425
179.426
179.427
179.427
179.428
179.429
179.43
179.43
179.431
179.432
179.432
179.433
179.433
179.434
179.434
179.435
179.435
179.436
179.436
179.436
179.437
179.437
179.437
179.437
179.437
179.437
179.437
179.437
179.437
179.437
179.437
179.437
179.437
179.436
179.436
179.436
179.435
179.435
179.435
179.434
179.434
179.433
179.433
179.432
179.431
179.431
179.43
179.429
179.429
179.428
179.427
179.426
179.425
179.424
179.423
179.422
179.421
179.42
179.419
179.418
179.417
179.415
179.414
179.413
179.411
179.41
179.409
179.407
179.406
179.404
179.403
179.401
179.399
179.398
179.396
179.394
179.393
179.391
179.389
179.387
179.385
179.383
179.382
179.38
179.378
179.376
179.373
179.371
179.369
179.367
179.365
179.363
179.36
179.358
179.356
179.353
179.351
179.349
179.346
179.344
179.341
179.339
179.336
179.333
179.331
179.328
179.326
179.323
179.32
179.317
179.314
179.312
179.309
179.306
179.303
179.3
179.297
179.294
179.291
179.288
179.285
179.282
179.279
179.275
179.272
179.269
179.266
179.262
179.259
179.256
179.252
179.249
179.246
179.242
179.239
179.235
179.232
179.228
179.224
179.221
179.217
179.213
179.21
179.206
179.202
179.199
179.195
179.191
179.187
179.183
179.179
179.175
179.171
179.167
179.163
179.159
179.155
179.151
179.147
179.143
179.139
179.135
179.13
179.126
179.122
179.118
179.113
179.109
179.105
179.1
179.096
179.091
179.087
179.083
179.078
179.074
179.069
179.064
179.06
179.055
179.05
179.046
179.041
179.036
179.032
179.027
179.022
179.017
179.012
179.007
179.003
178.998
178.993
178.988
178.983
178.978
178.973
178.968
178.963
178.957
178.952
178.947
178.942
178.937
178.931
178.926
178.921
178.916
178.91
178.905
178.9
178.894
178.889
178.883
178.878
178.872
178.867
178.861
178.856
0.5
179.664
179.664
179.435
179.369
179.345
179.331
179.321
179.312
179.303
179.295
179.288
179.281
179.275
179.268
179.262
179.257
179.251
179.246
179.241
179.236
179.232
179.228
179.224
179.22
179.216
179.212
179.209
179.206
179.203
179.2
179.198
179.195
179.193
179.191
179.189
179.187
179.185
179.183
179.182
179.181
179.179
179.178
179.177
179.177
179.176
179.175
179.175
179.175
179.174
179.174
179.175
179.175
179.175
179.176
179.176
179.177
179.178
179.179
179.18
179.181
179.182
179.183
179.185
179.186
179.187
179.189
179.19
179.192
179.194
179.195
179.197
179.199
179.201
179.203
179.205
179.207
179.209
179.211
179.213
179.215
179.218
179.22
179.222
179.224
179.227
179.229
179.231
179.234
179.236
179.238
179.241
179.243
179.246
179.248
179.25
179.253
179.255
179.258
179.26
179.263
179.265
179.268
179.27
179.273
179.275
179.278
179.28
179.283
179.285
179.288
179.291
179.293
179.296
179.298
179.301
179.303
179.306
179.308
179.31
179.313
179.315
179.318
179.32
179.323
179.325
179.328
179.33
179.332
179.335
179.337
179.339
179.342
179.344
179.346
179.348
179.351
179.353
179.355
179.357
179.359
179.362
179.364
179.366
179.368
179.37
179.372
179.374
179.376
179.378
179.38
179.382
179.384
179.385
179.387
179.389
179.391
179.392
179.394
179.396
179.397
179.399
179.401
179.402
179.404
179.405
179.407
179.408
179.41
179.411
179.412
179.414
179.415
179.416
179.417
179.418
179.42
179.421
179.422
179.423
179.424
179.425
179.426
179.427
179.427
179.428
179.429
179.43
179.43
179.431
179.432
179.432
179.433
179.433
179.434
179.434
179.435
179.435
179.436
179.436
179.436
179.437
179.437
179.437
179.437
179.437
179.437
179.437
179.437
179.437
179.437
179.437
179.437
179.437
179.436
179.436
179.436
179.435
179.435
179.435
179.434
179.434
179.433
179.433
179.432
179.431
179.431
179.43
179.429
179.429
179.428
179.427
179.426
179.425
179.424
179.423
179.422
179.421
179.42
179.419
179.418
179.417
179.415
179.414
179.413
179.411
179.41
179.409
179.407
179.406
179.404
179.403
179.401
179.399
179.398
179.396
179.394
179.393
179.391
179.389
179.387
179.385
179.383
179.382
179.38
179.378
179.376
179.373
179.371
179.369
179.367
179.365
179.363
179.36
179.358
179.356
179.353
179.351
179.349
179.346
179.344
179.341
179.339
179.336
179.333
179.331
179.328
179.326
179.323
179.32
179.317
179.314
179.312
179.309
179.306
179.303
179.3
179.297
179.294
179.291
179.288
179.285
179.282
179.279
179.275
179.272
179.269
179.266
179.262
179.259
179.256
179.252
179.249
179.246
179.242
179.239
179.235
179.232
179.228
179.224
179.221
179.217
179.213
179.21
179.206
179.202
179.199
179.195
179.191
179.187
179.183
179.179
179.175
179.171
179.167
179.163
179.159
179.155
179.151
179.147
179.143
179.139
179.135
179.13
179.126
179.122
179.118
179.113
179.109
179.105
179.1
179.096
179.091
179.087
179.083
179.078
179.074
179.069
179.064
179.06
179.055
179.05
179.046
179.041
179.036
179.032
179.027
179.022
179.017
179.012
179.007
179.003
178.998
178.993
178.988
178.983
178.978
178.973
178.968
178.963
178.957
178.952
178.947
178.942
178.937
178.931
178.926
178.921
178.916
178.91
178.905
178.9
178.894
178.889
178.883
178.878
178.872
178.867
178.861
178.856
178.856
179.614
179.614
179.44
179.374
179.348
179.333
179.322
179.312
179.304
179.296
179.289
179.282
179.275
179.269
179.263
179.257
179.251
179.246
179.241
179.237
179.232
179.228
179.224
179.22
179.216
179.213
179.209
179.206
179.203
179.2
179.198
179.195
179.193
179.191
179.189
179.187
179.185
179.184
179.182
179.181
179.179
179.178
179.177
179.177
179.176
179.175
179.175
179.175
179.175
179.175
179.175
179.175
179.175
179.176
179.177
179.177
179.178
179.179
179.18
179.181
179.182
179.183
179.185
179.186
179.187
179.189
179.19
179.192
179.194
179.195
179.197
179.199
179.201
179.203
179.205
179.207
179.209
179.211
179.213
179.215
179.218
179.22
179.222
179.224
179.227
179.229
179.231
179.234
179.236
179.238
179.241
179.243
179.246
179.248
179.251
179.253
179.255
179.258
179.26
179.263
179.265
179.268
179.27
179.273
179.275
179.278
179.281
179.283
179.286
179.288
179.291
179.293
179.296
179.298
179.301
179.303
179.306
179.308
179.311
179.313
179.315
179.318
179.32
179.323
179.325
179.328
179.33
179.332
179.335
179.337
179.339
179.342
179.344
179.346
179.348
179.351
179.353
179.355
179.357
179.359
179.362
179.364
179.366
179.368
179.37
179.372
179.374
179.376
179.378
179.38
179.382
179.384
179.385
179.387
179.389
179.391
179.392
179.394
179.396
179.397
179.399
179.401
179.402
179.404
179.405
179.407
179.408
179.41
179.411
179.412
179.414
179.415
179.416
179.417
179.418
179.42
179.421
179.422
179.423
179.424
179.425
179.426
179.427
179.427
179.428
179.429
179.43
179.43
179.431
179.432
179.432
179.433
179.434
179.434
179.434
179.435
179.435
179.436
179.436
179.436
179.437
179.437
179.437
179.437
179.437
179.437
179.437
179.437
179.437
179.437
179.437
179.437
179.437
179.436
179.436
179.436
179.435
179.435
179.435
179.434
179.434
179.433
179.433
179.432
179.431
179.431
179.43
179.429
179.429
179.428
179.427
179.426
179.425
179.424
179.423
179.422
179.421
179.42
179.419
179.418
179.417
179.415
179.414
179.413
179.411
179.41
179.409
179.407
179.406
179.404
179.403
179.401
179.399
179.398
179.396
179.394
179.393
179.391
179.389
179.387
179.385
179.384
179.382
179.38
179.378
179.376
179.373
179.371
179.369
179.367
179.365
179.363
179.36
179.358
179.356
179.353
179.351
179.349
179.346
179.344
179.341
179.339
179.336
179.333
179.331
179.328
179.326
179.323
179.32
179.317
179.314
179.312
179.309
179.306
179.303
179.3
179.297
179.294
179.291
179.288
179.285
179.282
179.279
179.275
179.272
179.269
179.266
179.262
179.259
179.256
179.252
179.249
179.246
179.242
179.239
179.235
179.232
179.228
179.224
179.221
179.217
179.213
179.21
179.206
179.202
179.199
179.195
179.191
179.187
179.183
179.179
179.175
179.171
179.167
179.163
179.159
179.155
179.151
179.147
179.143
179.139
179.135
179.13
179.126
179.122
179.118
179.113
179.109
179.105
179.1
179.096
179.091
179.087
179.083
179.078
179.074
179.069
179.064
179.06
179.055
179.05
179.046
179.041
179.036
179.032
179.027
179.022
179.017
179.012
179.008
179.003
178.998
178.993
178.988
178.983
178.978
178.973
178.968
178.963
178.957
178.952
178.947
178.942
178.937
178.931
178.926
178.921
178.916
178.91
178.905
178.9
178.894
178.889
178.883
178.878
178.872
178.867
178.861
178.856
178.856
179.574
179.574
179.443
179.379
179.351
179.335
179.323
179.313
179.305
179.297
179.289
179.282
179.275
179.269
179.263
179.257
179.252
179.246
179.241
179.237
179.232
179.228
179.224
179.22
179.216
179.213
179.209
179.206
179.203
179.201
179.198
179.195
179.193
179.191
179.189
179.187
179.185
179.184
179.182
179.181
179.18
179.178
179.177
179.177
179.176
179.175
179.175
179.175
179.175
179.175
179.175
179.175
179.175
179.176
179.177
179.177
179.178
179.179
179.18
179.181
179.182
179.183
179.185
179.186
179.187
179.189
179.19
179.192
179.194
179.195
179.197
179.199
179.201
179.203
179.205
179.207
179.209
179.211
179.213
179.215
179.218
179.22
179.222
179.224
179.227
179.229
179.231
179.234
179.236
179.238
179.241
179.243
179.246
179.248
179.251
179.253
179.255
179.258
179.26
179.263
179.265
179.268
179.27
179.273
179.275
179.278
179.281
179.283
179.286
179.288
179.291
179.293
179.296
179.298
179.301
179.303
179.306
179.308
179.311
179.313
179.315
179.318
179.32
179.323
179.325
179.328
179.33
179.332
179.335
179.337
179.339
179.342
179.344
179.346
179.348
179.351
179.353
179.355
179.357
179.359
179.362
179.364
179.366
179.368
179.37
179.372
179.374
179.376
179.378
179.38
179.382
179.384
179.385
179.387
179.389
179.391
179.392
179.394
179.396
179.397
179.399
179.401
179.402
179.404
179.405
179.407
179.408
179.41
179.411
179.412
179.414
179.415
179.416
179.417
179.418
179.42
179.421
179.422
179.423
179.424
179.425
179.426
179.427
179.427
179.428
179.429
179.43
179.43
179.431
179.432
179.432
179.433
179.434
179.434
179.434
179.435
179.435
179.436
179.436
179.436
179.437
179.437
179.437
179.437
179.437
179.437
179.437
179.437
179.437
179.437
179.437
179.437
179.437
179.436
179.436
179.436
179.435
179.435
179.435
179.434
179.434
179.433
179.433
179.432
179.431
179.431
179.43
179.429
179.429
179.428
179.427
179.426
179.425
179.424
179.423
179.422
179.421
179.42
179.419
179.418
179.417
179.415
179.414
179.413
179.411
179.41
179.409
179.407
179.406
179.404
179.403
179.401
179.399
179.398
179.396
179.394
179.393
179.391
179.389
179.387
179.385
179.383
179.382
179.38
179.378
179.376
179.373
179.371
179.369
179.367
179.365
179.363
179.36
179.358
179.356
179.353
179.351
179.349
179.346
179.344
179.341
179.339
179.336
179.333
179.331
179.328
179.326
179.323
179.32
179.317
179.314
179.312
179.309
179.306
179.303
179.3
179.297
179.294
179.291
179.288
179.285
179.282
179.279
179.275
179.272
179.269
179.266
179.262
179.259
179.256
179.252
179.249
179.246
179.242
179.239
179.235
179.232
179.228
179.224
179.221
179.217
179.213
179.21
179.206
179.202
179.199
179.195
179.191
179.187
179.183
179.179
179.175
179.171
179.167
179.163
179.159
179.155
179.151
179.147
179.143
179.139
179.135
179.13
179.126
179.122
179.118
179.113
179.109
179.105
179.1
179.096
179.091
179.087
179.083
179.078
179.073
179.069
179.064
179.06
179.055
179.05
179.046
179.041
179.036
179.032
179.027
179.022
179.017
179.012
179.007
179.003
178.998
178.993
178.988
178.983
178.978
178.973
178.968
178.963
178.957
178.952
178.947
178.942
178.937
178.931
178.926
178.921
178.916
178.91
178.905
178.9
178.894
178.889
178.883
178.878
178.872
178.867
178.861
178.856
178.856
179.542
179.542
179.443
179.384
179.354
179.337
179.325
179.314
179.305
179.297
179.29
179.282
179.276
179.269
179.263
179.257
179.252
179.247
179.242
179.237
179.232
179.228
179.224
179.22
179.216
179.213
179.21
179.206
179.203
179.201
179.198
179.195
179.193
179.191
179.189
179.187
179.185
179.184
179.182
179.181
179.18
179.178
179.178
179.177
179.176
179.176
179.175
179.175
179.175
179.175
179.175
179.175
179.175
179.176
179.177
179.177
179.178
179.179
179.18
179.181
179.182
179.183
179.185
179.186
179.187
179.189
179.19
179.192
179.194
179.195
179.197
179.199
179.201
179.203
179.205
179.207
179.209
179.211
179.213
179.215
179.218
179.22
179.222
179.224
179.227
179.229
179.231
179.234
179.236
179.238
179.241
179.243
179.246
179.248
179.251
179.253
179.255
179.258
179.26
179.263
179.265
179.268
179.27
179.273
179.275
179.278
179.281
179.283
179.286
179.288
179.291
179.293
179.296
179.298
179.301
179.303
179.306
179.308
179.311
179.313
179.315
179.318
179.32
179.323
179.325
179.328
179.33
179.332
179.335
179.337
179.339
179.342
179.344
179.346
179.348
179.351
179.353
179.355
179.357
179.359
179.362
179.364
179.366
179.368
179.37
179.372
179.374
179.376
179.378
179.38
179.382
179.384
179.385
179.387
179.389
179.391
179.392
179.394
179.396
179.397
179.399
179.401
179.402
179.404
179.405
179.407
179.408
179.41
179.411
179.412
179.414
179.415
179.416
179.417
179.418
179.42
179.421
179.422
179.423
179.424
179.425
179.426
179.427
179.427
179.428
179.429
179.43
179.43
179.431
179.432
179.432
179.433
179.433
179.434
179.434
179.435
179.435
179.436
179.436
179.436
179.436
179.437
179.437
179.437
179.437
179.437
179.437
179.437
179.437
179.437
179.437
179.437
179.437
179.436
179.436
179.436
179.435
179.435
179.435
179.434
179.434
179.433
179.433
179.432
179.431
179.431
179.43
179.429
179.429
179.428
179.427
179.426
179.425
179.424
179.423
179.422
179.421
179.42
179.419
179.418
179.417
179.415
179.414
179.413
179.411
179.41
179.409
179.407
179.406
179.404
179.403
179.401
179.399
179.398
179.396
179.394
179.393
179.391
179.389
179.387
179.385
179.383
179.382
179.38
179.378
179.376
179.373
179.371
179.369
179.367
179.365
179.363
179.36
179.358
179.356
179.353
179.351
179.349
179.346
179.344
179.341
179.339
179.336
179.333
179.331
179.328
179.326
179.323
179.32
179.317
179.314
179.312
179.309
179.306
179.303
179.3
179.297
179.294
179.291
179.288
179.285
179.282
179.279
179.275
179.272
179.269
179.266
179.262
179.259
179.256
179.252
179.249
179.246
179.242
179.239
179.235
179.232
179.228
179.224
179.221
179.217
179.213
179.21
179.206
179.202
179.199
179.195
179.191
179.187
179.183
179.179
179.175
179.171
179.167
179.163
179.159
179.155
179.151
179.147
179.143
179.139
179.135
179.13
179.126
179.122
179.118
179.113
179.109
179.105
179.1
179.096
179.091
179.087
179.083
179.078
179.073
179.069
179.064
179.06
179.055
179.05
179.046
179.041
179.036
179.032
179.027
179.022
179.017
179.012
179.007
179.003
178.998
178.993
178.988
178.983
178.978
178.973
178.968
178.963
178.957
178.952
178.947
178.942
178.937
178.931
178.926
178.921
178.916
178.91
178.905
178.9
178.894
178.889
178.883
178.878
178.872
178.867
178.861
178.856
178.856
179.517
179.517
179.441
179.388
179.358
179.34
179.326
179.316
179.306
179.298
179.29
179.283
179.276
179.27
179.263
179.258
179.252
179.247
179.242
179.237
179.232
179.228
179.224
179.22
179.216
179.213
179.21
179.206
179.203
179.201
179.198
179.195
179.193
179.191
179.189
179.187
179.185
179.184
179.182
179.181
179.18
179.179
179.178
179.177
179.176
179.176
179.175
179.175
179.175
179.175
179.175
179.175
179.175
179.176
179.177
179.177
179.178
179.179
179.18
179.181
179.182
179.183
179.185
179.186
179.187
179.189
179.19
179.192
179.194
179.195
179.197
179.199
179.201
179.203
179.205
179.207
179.209
179.211
179.213
179.215
179.218
179.22
179.222
179.224
179.227
179.229
179.231
179.234
179.236
179.238
179.241
179.243
179.246
179.248
179.251
179.253
179.255
179.258
179.26
179.263
179.265
179.268
179.27
179.273
179.275
179.278
179.281
179.283
179.286
179.288
179.291
179.293
179.296
179.298
179.301
179.303
179.306
179.308
179.311
179.313
179.315
179.318
179.32
179.323
179.325
179.328
179.33
179.332
179.335
179.337
179.339
179.342
179.344
179.346
179.348
179.351
179.353
179.355
179.357
179.359
179.362
179.364
179.366
179.368
179.37
179.372
179.374
179.376
179.378
179.38
179.382
179.384
179.385
179.387
179.389
179.391
179.392
179.394
179.396
179.397
179.399
179.401
179.402
179.404
179.405
179.407
179.408
179.41
179.411
179.412
179.414
179.415
179.416
179.417
179.418
179.42
179.421
179.422
179.423
179.424
179.425
179.426
179.427
179.427
179.428
179.429
179.43
179.43
179.431
179.432
179.432
179.433
179.433
179.434
179.434
179.435
179.435
179.436
179.436
179.436
179.436
179.437
179.437
179.437
179.437
179.437
179.437
179.437
179.437
179.437
179.437
179.437
179.437
179.436
179.436
179.436
179.435
179.435
179.435
179.434
179.434
179.433
179.433
179.432
179.431
179.431
179.43
179.429
179.429
179.428
179.427
179.426
179.425
179.424
179.423
179.422
179.421
179.42
179.419
179.418
179.417
179.415
179.414
179.413
179.411
179.41
179.409
179.407
179.406
179.404
179.403
179.401
179.399
179.398
179.396
179.394
179.393
179.391
179.389
179.387
179.385
179.383
179.382
179.38
179.378
179.376
179.373
179.371
179.369
179.367
179.365
179.363
179.36
179.358
179.356
179.353
179.351
179.349
179.346
179.344
179.341
179.339
179.336
179.333
179.331
179.328
179.325
179.323
179.32
179.317
179.314
179.312
179.309
179.306
179.303
179.3
179.297
179.294
179.291
179.288
179.285
179.282
179.279
179.275
179.272
179.269
179.266
179.262
179.259
179.256
179.252
179.249
179.246
179.242
179.239
179.235
179.232
179.228
179.224
179.221
179.217
179.213
179.21
179.206
179.202
179.199
179.195
179.191
179.187
179.183
179.179
179.175
179.171
179.167
179.163
179.159
179.155
179.151
179.147
179.143
179.139
179.135
179.13
179.126
179.122
179.118
179.113
179.109
179.105
179.1
179.096
179.091
179.087
179.083
179.078
179.073
179.069
179.064
179.06
179.055
179.05
179.046
179.041
179.036
179.032
179.027
179.022
179.017
179.012
179.007
179.003
178.998
178.993
178.988
178.983
178.978
178.973
178.968
178.963
178.957
178.952
178.947
178.942
178.937
178.931
178.926
178.921
178.916
178.91
178.905
178.9
178.894
178.889
178.883
178.878
178.872
178.867
178.861
178.856
178.856
179.496
179.496
179.438
179.391
179.361
179.342
179.328
179.317
179.307
179.299
179.291
179.283
179.277
179.27
179.264
179.258
179.252
179.247
179.242
179.237
179.233
179.228
179.224
179.22
179.217
179.213
179.21
179.207
179.204
179.201
179.198
179.196
179.193
179.191
179.189
179.187
179.185
179.184
179.182
179.181
179.18
179.179
179.178
179.177
179.176
179.176
179.175
179.175
179.175
179.175
179.175
179.175
179.175
179.176
179.177
179.177
179.178
179.179
179.18
179.181
179.182
179.183
179.185
179.186
179.187
179.189
179.19
179.192
179.194
179.195
179.197
179.199
179.201
179.203
179.205
179.207
179.209
179.211
179.213
179.216
179.218
179.22
179.222
179.224
179.227
179.229
179.231
179.234
179.236
179.238
179.241
179.243
179.246
179.248
179.251
179.253
179.256
179.258
179.26
179.263
179.265
179.268
179.27
179.273
179.275
179.278
179.281
179.283
179.286
179.288
179.291
179.293
179.296
179.298
179.301
179.303
179.306
179.308
179.311
179.313
179.315