# vtk DataFile Version 2.0
FlowField
ASCII
DATASET STRUCTURED_GRID
DIMENSIONS 400 1 50
POINTS 20000 float
0 0 0
0.08 0 0
0.16 0 0
0.24 0 0
0.32 0 0
0.4 0 0
0.48 0 0
0.56 0 0
0.64 0 0
0.72 0 0
0.8 0 0
0.88 0 0
0.96 0 0
1.04 0 0
1.12 0 0
1.2 0 0
1.28 0 0
1.36 0 0
1.44 0 0
1.52 0 0
1.6 0 0
1.68 0 0
1.76 0 0
1.84 0 0
1.92 0 0
2 0 0
2.08 0 0
2.16 0 0
2.24 0 0
2.32 0 0
2.4 0 0
2.48 0 0
2.56 0 0
2.64 0 0
2.72 0 0
2.8 0 0
2.88 0 0
2.96 0 0
3.04 0 0
3.12 0 0
3.2 0 0
3.28 0 0
3.36 0 0
3.44 0 0
3.52 0 0
3.6 0 0
3.68 0 0
3.76 0 0
3.84 0 0
3.92 0 0
4 0 0
4.08 0 0
4.16 0 0
4.24 0 0
4.32 0 0
4.4 0 0
4.48 0 0
4.56 0 0
4.64 0 0
4.72 0 0
4.8 0 0
4.88 0 0
4.96 0 0
5.04 0 0
5.12 0 0
5.2 0 0
5.28 0 0
5.36 0 0
5.44 0 0
5.52 0 0
5.6 0 0
5.68 0 0
5.76 0 0
5.84 0 0
5.92 0 0
6 0 0
6.08 0 0
6.16 0 0
6.24 0 0
6.32 0 0
6.4 0 0
6.48 0 0
6.56 0 0
6.64 0 0
6.72 0 0
6.8 0 0
6.88 0 0
6.96 0 0
7.04 0 0
7.12 0 0
7.2 0 0
7.28 0 0
7.36 0 0
7.44 0 0
7.52 0 0
7.6 0 0
7.68 0 0
7.76 0 0
7.84 0 0
7.92 0 0
8 0 0
8.08 0 0
8.16 0 0
8.24 0 0
8.32 0 0
8.4 0 0
8.48 0 0
8.56 0 0
8.64 0 0
8.72 0 0
8.8 0 0
8.88 0 0
8.96 0 0
9.04 0 0
9.12 0 0
9.2 0 0
9.28 0 0
9.36 0 0
9.44 0 0
9.52 0 0
9.6 0 0
9.68 0 0
9.76 0 0
9.84 0 0
9.92 0 0
10 0 0
10.08 0 0
10.16 0 0
10.24 0 0
10.32 0 0
10.4 0 0
10.48 0 0
10.56 0 0
10.64 0 0
10.72 0 0
10.8 0 0
10.88 0 0
10.96 0 0
11.04 0 0
11.12 0 0
11.2 0 0
11.28 0 0
11.36 0 0
11.44 0 0
11.52 0 0
11.6 0 0
11.68 0 0
11.76 0 0
11.84 0 0
11.92 0 0
12 0 0
12.08 0 0
12.16 0 0
12.24 0 0
12.32 0 0
12.4 0 0
12.48 0 0
12.56 0 0
12.64 0 0
12.72 0 0
12.8 0 0
12.88 0 0
12.96 0 0
13.04 0 0
13.12 0 0
13.2 0 0
13.28 0 0
13.36 0 0
13.44 0 0
13.52 0 0
13.6 0 0
13.68 0 0
13.76 0 0
13.84 0 0
13.92 0 0
14 0 0
14.08 0 0
14.16 0 0
14.24 0 0
14.32 0 0
14.4 0 0
14.48 0 0
14.56 0 0
14.64 0 0
14.72 0 0
14.8 0 0
14.88 0 0
14.96 0 0
15.04 0 0
15.12 0 0
15.2 0 0
15.28 0 0
15.36 0 0
15.44 0 0
15.52 0 0
15.6 0 0
15.68 0 0
15.76 0 0
15.84 0 0
15.92 0 0
16 0 0
16.08 0 0
16.16 0 0
16.24 0 0
16.32 0 0
16.4 0 0
16.48 0 0
16.56 0 0
16.64 0 0
16.72 0 0
16.8 0 0
16.88 0 0
16.96 0 0
17.04 0 0
17.12 0 0
17.2 0 0
17.28 0 0
17.36 0 0
17.44 0 0
17.52 0 0
17.6 0 0
17.68 0 0
17.76 0 0
17.84 0 0
17.92 0 0
18 0 0
18.08 0 0
18.16 0 0
18.24 0 0
18.32 0 0
18.4 0 0
18.48 0 0
18.56 0 0
18.64 0 0
18.72 0 0
18.8 0 0
18.88 0 0
18.96 0 0
19.04 0 0
19.12 0 0
19.2 0 0
19.28 0 0
19.36 0 0
19.44 0 0
19.52 0 0
19.6 0 0
19.68 0 0
19.76 0 0
19.84 0 0
19.92 0 0
20 0 0
20.08 0 0
20.16 0 0
20.24 0 0
20.32 0 0
20.4 0 0
20.48 0 0
20.56 0 0
20.64 0 0
20.72 0 0
20.8 0 0
20.88 0 0
20.96 0 0
21.04 0 0
21.12 0 0
21.2 0 0
21.28 0 0
21.36 0 0
21.44 0 0
21.52 0 0
21.6 0 0
21.68 0 0
21.76 0 0
21.84 0 0
21.92 0 0
22 0 0
22.08 0 0
22.16 0 0
22.24 0 0
22.32 0 0
22.4 0 0
22.48 0 0
22.56 0 0
22.64 0 0
22.72 0 0
22.8 0 0
22.88 0 0
22.96 0 0
23.04 0 0
23.12 0 0
23.2 0 0
23.28 0 0
23.36 0 0
23.44 0 0
23.52 0 0
23.6 0 0
23.68 0 0
23.76 0 0
23.84 0 0
23.92 0 0
24 0 0
24.08 0 0
24.16 0 0
24.24 0 0
24.32 0 0
24.4 0 0
24.48 0 0
24.56 0 0
24.64 0 0
24.72 0 0
24.8 0 0
24.88 0 0
24.96 0 0
25.04 0 0
25.12 0 0
25.2 0 0
25.28 0 0
25.36 0 0
25.44 0 0
25.52 0 0
25.6 0 0
25.68 0 0
25.76 0 0
25.84 0 0
25.92 0 0
26 0 0
26.08 0 0
26.16 0 0
26.24 0 0
26.32 0 0
26.4 0 0
26.48 0 0
26.56 0 0
26.64 0 0
26.72 0 0
26.8 0 0
26.88 0 0
26.96 0 0
27.04 0 0
27.12 0 0
27.2 0 0
27.28 0 0
27.36 0 0
27.44 0 0
27.52 0 0
27.6 0 0
27.68 0 0
27.76 0 0
27.84 0 0
27.92 0 0
28 0 0
28.08 0 0
28.16 0 0
28.24 0 0
28.32 0 0
28.4 0 0
28.48 0 0
28.56 0 0
28.64 0 0
28.72 0 0
28.8 0 0
28.88 0 0
28.96 0 0
29.04 0 0
29.12 0 0
29.2 0 0
29.28 0 0
29.36 0 0
29.44 0 0
29.52 0 0
29.6 0 0
29.68 0 0
29.76 0 0
29.84 0 0
29.92 0 0
30 0 0
30.08 0 0
30.16 0 0
30.24 0 0
30.32 0 0
30.4 0 0
30.48 0 0
30.56 0 0
30.64 0 0
30.72 0 0
30.8 0 0
30.88 0 0
30.96 0 0
31.04 0 0
31.12 0 0
31.2 0 0
31.28 0 0
31.36 0 0
31.44 0 0
31.52 0 0
31.6 0 0
31.68 0 0
31.76 0 0
31.84 0 0
31.92 0 0
0 0.02 0
0.08 0.02 0
0.16 0.02 0
0.24 0.02 0
0.32 0.02 0
0.4 0.02 0
0.48 0.02 0
0.56 0.02 0
0.64 0.02 0
0.72 0.02 0
0.8 0.02 0
0.88 0.02 0
0.96 0.02 0
1.04 0.02 0
1.12 0.02 0
1.2 0.02 0
1.28 0.02 0
1.36 0.02 0
1.44 0.02 0
1.52 0.02 0
1.6 0.02 0
1.68 0.02 0
1.76 0.02 0
1.84 0.02 0
1.92 0.02 0
2 0.02 0
2.08 0.02 0
2.16 0.02 0
2.24 0.02 0
2.32 0.02 0
2.4 0.02 0
2.48 0.02 0
2.56 0.02 0
2.64 0.02 0
2.72 0.02 0
2.8 0.02 0
2.88 0.02 0
2.96 0.02 0
3.04 0.02 0
3.12 0.02 0
3.2 0.02 0
3.28 0.02 0
3.36 0.02 0
3.44 0.02 0
3.52 0.02 0
3.6 0.02 0
3.68 0.02 0
3.76 0.02 0
3.84 0.02 0
3.92 0.02 0
4 0.02 0
4.08 0.02 0
4.16 0.02 0
4.24 0.02 0
4.32 0.02 0
4.4 0.02 0
4.48 0.02 0
4.56 0.02 0
4.64 0.02 0
4.72 0.02 0
4.8 0.02 0
4.88 0.02 0
4.96 0.02 0
5.04 0.02 0
5.12 0.02 0
5.2 0.02 0
5.28 0.02 0
5.36 0.02 0
5.44 0.02 0
5.52 0.02 0
5.6 0.02 0
5.68 0.02 0
5.76 0.02 0
5.84 0.02 0
5.92 0.02 0
6 0.02 0
6.08 0.02 0
6.16 0.02 0
6.24 0.02 0
6.32 0.02 0
6.4 0.02 0
6.48 0.02 0
6.56 0.02 0
6.64 0.02 0
6.72 0.02 0
6.8 0.02 0
6.88 0.02 0
6.96 0.02 0
7.04 0.02 0
7.12 0.02 0
7.2 0.02 0
7.28 0.02 0
7.36 0.02 0
7.44 0.02 0
7.52 0.02 0
7.6 0.02 0
7.68 0.02 0
7.76 0.02 0
7.84 0.02 0
7.92 0.02 0
8 0.02 0
8.08 0.02 0
8.16 0.02 0
8.24 0.02 0
8.32 0.02 0
8.4 0.02 0
8.48 0.02 0
8.56 0.02 0
8.64 0.02 0
8.72 0.02 0
8.8 0.02 0
8.88 0.02 0
8.96 0.02 0
9.04 0.02 0
9.12 0.02 0
9.2 0.02 0
9.28 0.02 0
9.36 0.02 0
9.44 0.02 0
9.52 0.02 0
9.6 0.02 0
9.68 0.02 0
9.76 0.02 0
9.84 0.02 0
9.92 0.02 0
10 0.02 0
10.08 0.02 0
10.16 0.02 0
10.24 0.02 0
10.32 0.02 0
10.4 0.02 0
10.48 0.02 0
10.56 0.02 0
10.64 0.02 0
10.72 0.02 0
10.8 0.02 0
10.88 0.02 0
10.96 0.02 0
11.04 0.02 0
11.12 0.02 0
11.2 0.02 0
11.28 0.02 0
11.36 0.02 0
11.44 0.02 0
11.52 0.02 0
11.6 0.02 0
11.68 0.02 0
11.76 0.02 0
11.84 0.02 0
11.92 0.02 0
12 0.02 0
12.08 0.02 0
12.16 0.02 0
12.24 0.02 0
12.32 0.02 0
12.4 0.02 0
12.48 0.02 0
12.56 0.02 0
12.64 0.02 0
12.72 0.02 0
12.8 0.02 0
12.88 0.02 0
12.96 0.02 0
13.04 0.02 0
13.12 0.02 0
13.2 0.02 0
13.28 0.02 0
13.36 0.02 0
13.44 0.02 0
13.52 0.02 0
13.6 0.02 0
13.68 0.02 0
13.76 0.02 0
13.84 0.02 0
13.92 0.02 0
14 0.02 0
14.08 0.02 0
14.16 0.02 0
14.24 0.02 0
14.32 0.02 0
14.4 0.02 0
14.48 0.02 0
14.56 0.02 0
14.64 0.02 0
14.72 0.02 0
14.8 0.02 0
14.88 0.02 0
14.96 0.02 0
15.04 0.02 0
15.12 0.02 0
15.2 0.02 0
15.28 0.02 0
15.36 0.02 0
15.44 0.02 0
15.52 0.02 0
15.6 0.02 0
15.68 0.02 0
15.76 0.02 0
15.84 0.02 0
15.92 0.02 0
16 0.02 0
16.08 0.02 0
16.16 0.02 0
16.24 0.02 0
16.32 0.02 0
16.4 0.02 0
16.48 0.02 0
16.56 0.02 0
16.64 0.02 0
16.72 0.02 0
16.8 0.02 0
16.88 0.02 0
16.96 0.02 0
17.04 0.02 0
17.12 0.02 0
17.2 0.02 0
17.28 0.02 0
17.36 0.02 0
17.44 0.02 0
17.52 0.02 0
17.6 0.02 0
17.68 0.02 0
17.76 0.02 0
17.84 0.02 0
17.92 0.02 0
18 0.02 0
18.08 0.02 0
18.16 0.02 0
18.24 0.02 0
18.32 0.02 0
18.4 0.02 0
18.48 0.02 0
18.56 0.02 0
18.64 0.02 0
18.72 0.02 0
18.8 0.02 0
18.88 0.02 0
18.96 0.02 0
19.04 0.02 0
19.12 0.02 0
19.2 0.02 0
19.28 0.02 0
19.36 0.02 0
19.44 0.02 0
19.52 0.02 0
19.6 0.02 0
19.68 0.02 0
19.76 0.02 0
19.84 0.02 0
19.92 0.02 0
20 0.02 0
20.08 0.02 0
20.16 0.02 0
20.24 0.02 0
20.32 0.02 0
20.4 0.02 0
20.48 0.02 0
20.56 0.02 0
20.64 0.02 0
20.72 0.02 0
20.8 0.02 0
20.88 0.02 0
20.96 0.02 0
21.04 0.02 0
21.12 0.02 0
21.2 0.02 0
21.28 0.02 0
21.36 0.02 0
21.44 0.02 0
21.52 0.02 0
21.6 0.02 0
21.68 0.02 0
21.76 0.02 0
21.84 0.02 0
21.92 0.02 0
22 0.02 0
22.08 0.02 0
22.16 0.02 0
22.24 0.02 0
22.32 0.02 0
22.4 0.02 0
22.48 0.02 0
22.56 0.02 0
22.64 0.02 0
22.72 0.02 0
22.8 0.02 0
22.88 0.02 0
22.96 0.02 0
23.04 0.02 0
23.12 0.02 0
23.2 0.02 0
23.28 0.02 0
23.36 0.02 0
23.44 0.02 0
23.52 0.02 0
23.6 0.02 0
23.68 0.02 0
23.76 0.02 0
23.84 0.02 0
23.92 0.02 0
24 0.02 0
24.08 0.02 0
24.16 0.02 0
24.24 0.02 0
24.32 0.02 0
24.4 0.02 0
24.48 0.02 0
24.56 0.02 0
24.64 0.02 0
24.72 0.02 0
24.8 0.02 0
24.88 0.02 0
24.96 0.02 0
25.04 0.02 0
25.12 0.02 0
25.2 0.02 0
25.28 0.02 0
25.36 0.02 0
25.44 0.02 0
25.52 0.02 0
25.6 0.02 0
25.68 0.02 0
25.76 0.02 0
25.84 0.02 0
25.92 0.02 0
26 0.02 0
26.08 0.02 0
26.16 0.02 0
26.24 0.02 0
26.32 0.02 0
26.4 0.02 0
26.48 0.02 0
26.56 0.02 0
26.64 0.02 0
26.72 0.02 0
26.8 0.02 0
26.88 0.02 0
26.96 0.02 0
27.04 0.02 0
27.12 0.02 0
27.2 0.02 0
27.28 0.02 0
27.36 0.02 0
27.44 0.02 0
27.52 0.02 0
27.6 0.02 0
27.68 0.02 0
27.76 0.02 0
27.84 0.02 0
27.92 0.02 0
28 0.02 0
28.08 0.02 0
28.16 0.02 0
28.24 0.02 0
28.32 0.02 0
28.4 0.02 0
28.48 0.02 0
28.56 0.02 0
28.64 0.02 0
28.72 0.02 0
28.8 0.02 0
28.88 0.02 0
28.96 0.02 0
29.04 0.02 0
29.12 0.02 0
29.2 0.02 0
29.28 0.02 0
29.36 0.02 0
29.44 0.02 0
29.52 0.02 0
29.6 0.02 0
29.68 0.02 0
29.76 0.02 0
29.84 0.02 0
29.92 0.02 0
30 0.02 0
30.08 0.02 0
30.16 0.02 0
30.24 0.02 0
30.32 0.02 0
30.4 0.02 0
30.48 0.02 0
30.56 0.02 0
30.64 0.02 0
30.72 0.02 0
30.8 0.02 0
30.88 0.02 0
30.96 0.02 0
31.04 0.02 0
31.12 0.02 0
31.2 0.02 0
31.28 0.02 0
31.36 0.02 0
31.44 0.02 0
31.52 0.02 0
31.6 0.02 0
31.68 0.02 0
31.76 0.02 0
31.84 0.02 0
31.92 0.02 0
0 0.04 0
0.08 0.04 0
0.16 0.04 0
0.24 0.04 0
0.32 0.04 0
0.4 0.04 0
0.48 0.04 0
0.56 0.04 0
0.64 0.04 0
0.72 0.04 0
0.8 0.04 0
0.88 0.04 0
0.96 0.04 0
1.04 0.04 0
1.12 0.04 0
1.2 0.04 0
1.28 0.04 0
1.36 0.04 0
1.44 0.04 0
1.52 0.04 0
1.6 0.04 0
1.68 0.04 0
1.76 0.04 0
1.84 0.04 0
1.92 0.04 0
2 0.04 0
2.08 0.04 0
2.16 0.04 0
2.24 0.04 0
2.32 0.04 0
2.4 0.04 0
2.48 0.04 0
2.56 0.04 0
2.64 0.04 0
2.72 0.04 0
2.8 0.04 0
2.88 0.04 0
2.96 0.04 0
3.04 0.04 0
3.12 0.04 0
3.2 0.04 0
3.28 0.04 0
3.36 0.04 0
3.44 0.04 0
3.52 0.04 0
3.6 0.04 0
3.68 0.04 0
3.76 0.04 0
3.84 0.04 0
3.92 0.04 0
4 0.04 0
4.08 0.04 0
4.16 0.04 0
4.24 0.04 0
4.32 0.04 0
4.4 0.04 0
4.48 0.04 0
4.56 0.04 0
4.64 0.04 0
4.72 0.04 0
4.8 0.04 0
4.88 0.04 0
4.96 0.04 0
5.04 0.04 0
5.12 0.04 0
5.2 0.04 0
5.28 0.04 0
5.36 0.04 0
5.44 0.04 0
5.52 0.04 0
5.6 0.04 0
5.68 0.04 0
5.76 0.04 0
5.84 0.04 0
5.92 0.04 0
6 0.04 0
6.08 0.04 0
6.16 0.04 0
6.24 0.04 0
6.32 0.04 0
6.4 0.04 0
6.48 0.04 0
6.56 0.04 0
6.64 0.04 0
6.72 0.04 0
6.8 0.04 0
6.88 0.04 0
6.96 0.04 0
7.04 0.04 0
7.12 0.04 0
7.2 0.04 0
7.28 0.04 0
7.36 0.04 0
7.44 0.04 0
7.52 0.04 0
7.6 0.04 0
7.68 0.04 0
7.76 0.04 0
7.84 0.04 0
[...]
POINT_DATA 20000

SCALARS v float 1
LOOKUP_TABLE default
0
0
0
0
0
0
0
0
0
0
0
0
0
0
0
0
0
0
0
0
0
0
0
0
0
0
0
0
0
0
0
0
0
0
0
0
0
0
0
0
0
0
0
0
0
0
0
0
0
0
0
0
0
0
0
0
0
0
0
0
0
0
0
0
0
0
0
0
0
0
0
0
0
0
0
0
0
0
0
0
0
0
0
0
0
0
0
0
0
0
0
0
0
0
0
0
0
0
0
0
0
0
0
0
0
0
0
0
0
0
0
0
0
0
0
0
0
0
0
0
0
0
0
0
0
0
0
0
0
0
0
0
0
0
0
0
0
0
0
0
0
0
0
0
0
0
0
0
0
0
0
0
0
0
0
0
0
0
0
0
0
0
0
0
0
0
0
0
0
0
0
0
0
0
0
0
0
0
0
0
0
0
0
0
0
0
0
0
0
0
0
0
0
0
0
0
0
0
0
0
0
0
0
0
0
0
0
0
0
0
0
0
0
0
0
0
0
0
0
0
0
0
0
0
0
0
0
0
0
0
0
0
0
0
0
0
0
0
0
0
0
0
0
0
0
0
0
0
0
0
0
0
0
0
0
0
0
0
0
0
0
0
0
0
0
0
0
0
0
0
0
0
0
0
0
0
0
0
0
0
0
0
0
0
0
0
0
0
0
0
0
0
0
0
0
0
0
0
0
0
0
0
0
0
0
0
0
0
0
0
0
0
0
0
0
0
0
0
0
0
0
0
0
0
0
0
0
0
0
0
0
0
0
0
0
0
0
0
0
0
0
0
0
0
0
0
0
0
0
0
0
0
0
0
0
0
0
0
0
0
0
0
0
0
0
0
0
0
0
0
0
0
0
0
0
0
0
0
0
0
0
0
0
0
0
0
0
0
0
0
0
0
0
0
0
0
0
0
0
0
-0.123177
0.123177
0.0537369
0.0193816
0.0087242
0.00502973
0.00332704
0.00237611
0.00178598
0.00139454
0.00112209
0.000925095
0.000778026
0.000665113
0.000576247
0.000504758
0.000446134
0.000397248
0.000355884
0.000320428
0.000289684
0.000262756
0.000238974
0.000217835
0.000198956
0.00018203
0.000166794
0.00015301
0.00014047
0.000128995
0.000118443
0.000108708
9.97211e-05
9.14405e-05
8.38348e-05
7.68554e-05
7.04199e-05
6.44191e-05
5.87476e-05
5.33401e-05
4.81865e-05
4.33163e-05
3.87669e-05
3.45549e-05
3.06677e-05
2.70681e-05
2.37015e-05
2.05016e-05
1.74016e-05
1.43574e-05
1.13739e-05
8.51379e-06
5.87031e-06
3.51205e-06
1.43223e-06
-4.62522e-07
-2.31248e-06
-4.23679e-06
-6.27799e-06
-8.3895e-06
-1.04669e-05
-1.23987e-05
-1.41093e-05
-1.55794e-05
-1.685e-05
-1.80153e-05
-1.92047e-05
-2.05452e-05
-2.21052e-05
-2.3843e-05
-2.55967e-05
-2.71439e-05
-2.83164e-05
-2.9114e-05
-2.97449e-05
-3.05504e-05
-3.18396e-05
-3.37191e-05
-3.60168e-05
-3.83542e-05
-4.03359e-05
-4.17557e-05
-4.27035e-05
-4.35122e-05
-4.45754e-05
-4.61344e-05
-4.81535e-05
-5.03445e-05
-5.23214e-05
-5.37979e-05
-5.47209e-05
-5.52791e-05
-5.57923e-05
-5.65494e-05
-5.76795e-05
-5.91144e-05
-6.06485e-05
-6.20537e-05
-6.31871e-05
-6.40429e-05
-6.47321e-05
-6.54115e-05
-6.62023e-05
-6.71386e-05
-6.81618e-05
-6.91578e-05
-7.00144e-05
-7.0669e-05
-7.11305e-05
-7.14697e-05
-7.17869e-05
-7.21734e-05
-7.26826e-05
-7.33179e-05
-7.40395e-05
-7.47831e-05
-7.54826e-05
-7.60884e-05
-7.65767e-05
-7.69494e-05
-7.72279e-05
-7.74425e-05
-7.76233e-05
-7.77937e-05
-7.79673e-05
-7.81488e-05
-7.83362e-05
-7.85243e-05
-7.87072e-05
-7.88806e-05
-7.90426e-05
-7.91935e-05
-7.9335e-05
-7.947e-05
-7.96012e-05
-7.97309e-05
-7.9861e-05
-7.99923e-05
-8.01253e-05
-8.02599e-05
-8.03958e-05
-8.05325e-05
-8.06699e-05
-8.08074e-05
-8.09451e-05
-8.10827e-05
-8.12203e-05
-8.13579e-05
-8.14954e-05
-8.16329e-05
-8.17705e-05
-8.19081e-05
-8.20458e-05
-8.21836e-05
-8.23214e-05
-8.24592e-05
-8.2597e-05
-8.27348e-05
-8.28725e-05
-8.30102e-05
-8.31478e-05
-8.32853e-05
-8.34227e-05
-8.35599e-05
-8.3697e-05
-8.38339e-05
-8.39706e-05
-8.41071e-05
-8.42434e-05
-8.43795e-05
-8.45153e-05
-8.46508e-05
-8.47861e-05
-8.4921e-05
-8.50557e-05
-8.51899e-05
-8.53239e-05
-8.54574e-05
-8.55906e-05
-8.57234e-05
-8.58557e-05
-8.59876e-05
-8.61191e-05
-8.625e-05
-8.63805e-05
-8.65105e-05
-8.664e-05
-8.67689e-05
-8.68973e-05
-8.70251e-05
-8.71524e-05
-8.7279e-05
-8.7405e-05
-8.75304e-05
-8.76552e-05
-8.77793e-05
-8.79027e-05
-8.80254e-05
-8.81474e-05
-8.82687e-05
-8.83893e-05
-8.85091e-05
-8.86281e-05
-8.87464e-05
-8.88639e-05
-8.89805e-05
-8.90964e-05
-8.92114e-05
-8.93255e-05
-8.94388e-05
-8.95513e-05
-8.96628e-05
-8.97734e-05
-8.98831e-05
-8.99919e-05
-9.00998e-05
-9.02067e-05
-9.03126e-05
-9.04176e-05
-9.05215e-05
-9.06245e-05
-9.07264e-05
-9.08274e-05
-9.09273e-05
-9.10261e-05
-9.11239e-05
-9.12206e-05
-9.13163e-05
-9.14109e-05
-9.15043e-05
-9.15967e-05
-9.16879e-05
-9.17781e-05
-9.18671e-05
-9.19549e-05
-9.20416e-05
-9.21271e-05
-9.22115e-05
-9.22947e-05
-9.23767e-05
-9.24575e-05
-9.25371e-05
-9.26155e-05
-9.26927e-05
-9.27687e-05
-9.28434e-05
-9.29169e-05
-9.29892e-05
-9.30603e-05
-9.313e-05
-9.31986e-05
-9.32658e-05
-9.33318e-05
-9.33966e-05
-9.34601e-05
-9.35222e-05
-9.35832e-05
-9.36428e-05
-9.37011e-05
-9.37582e-05
-9.38139e-05
-9.38684e-05
-9.39216e-05
-9.39734e-05
-9.4024e-05
-9.40733e-05
-9.41212e-05
-9.41679e-05
-9.42132e-05
-9.42573e-05
-9.43e-05
-9.43414e-05
-9.43815e-05
-9.44204e-05
-9.44579e-05
-9.44941e-05
-9.4529e-05
-9.45626e-05
-9.45949e-05
-9.46259e-05
-9.46556e-05
-9.4684e-05
-9.47111e-05
-9.4737e-05
-9.47615e-05
-9.47848e-05
-9.48068e-05
-9.48275e-05
-9.4847e-05
-9.48651e-05
-9.4882e-05
-9.48977e-05
-9.49121e-05
-9.49253e-05
-9.49372e-05
-9.49478e-05
-9.49573e-05
-9.49655e-05
-9.49725e-05
-9.49783e-05
-9.49828e-05
-9.49862e-05
-9.49884e-05
-9.49894e-05
-9.49892e-05
-9.49878e-05
-9.49853e-05
-9.49816e-05
-9.49768e-05
-9.49708e-05
-9.49637e-05
-9.49554e-05
-9.49461e-05
-9.49356e-05
-9.4924e-05
-9.49113e-05
-9.48976e-05
-9.48828e-05
-9.48669e-05
-9.48499e-05
-9.4832e-05
-9.48129e-05
-9.47929e-05
-9.47718e-05
-9.47497e-05
-9.47267e-05
-9.47026e-05
-9.46776e-05
-9.46515e-05
-9.46246e-05
-9.45967e-05
-9.45678e-05
-9.4538e-05
-9.45074e-05
-9.44758e-05
-9.44433e-05
-9.44099e-05
-9.43757e-05
-9.43406e-05
-9.43047e-05
-9.42678e-05
-9.42304e-05
-9.41917e-05
-9.41528e-05
-9.41124e-05
-9.4072e-05
-9.40299e-05
-9.39882e-05
-9.39444e-05
-9.39014e-05
-9.38558e-05
-9.38118e-05
-9.37643e-05
-9.37195e-05
-9.36699e-05
-9.36247e-05
-9.35727e-05
-9.35274e-05
-9.34727e-05
-9.34278e-05
-9.337e-05
-9.33261e-05
-9.32645e-05
-9.32225e-05
-9.31562e-05
-9.31175e-05
-9.30449e-05
-9.30115e-05
-9.29303e-05
-9.29051e-05
-9.2812e-05
-9.27993e-05
-9.26894e-05
-9.26949e-05
-9.25622e-05
-9.25926e-05
-9.243e-05
-9.24936e-05
-9.22926e-05
-9.23989e-05
-9.21489e-05
-9.23112e-05
-9.19959e-05
-9.22373e-05
-9.18249e-05
-9.21915e-05
-9.16185e-05
-9.21976e-05
-9.13532e-05
-9.22773e-05
-9.10209e-05
-9.24071e-05
-9.06936e-05
-9.24348e-05
-9.06214e-05
-9.19495e-05
-9.12447e-05
-8.94395e-05
-8.57005e-05
-8.57005e-05
-0.142106
0.142106
0.100945
0.0538486
0.030188
0.0188468
0.0128539
0.0093379
0.00710407
0.0056005
0.00454338
0.0037737
0.00319646
0.00275217
0.00240221
0.0021208
0.00189029
0.0016984
0.00153632
0.00139766
0.00127771
0.00117291
0.00108061
0.000998784
0.000925856
0.000860551
0.000801792
0.000748648
0.000700325
0.000656161
0.000615631
0.000578334
0.00054398
0.00051236
0.000483281
0.000456509
0.000431727
0.000408578
0.000386751
0.000366071
0.000346513
0.000328146
0.000311036
0.000295176
0.000280478
0.000266792
0.000253926
0.000241677
0.000229859
0.000218375
0.000207276
0.000196755
0.000187048
0.000178279
0.000170347
0.000162931
0.000155633
0.000148168
0.000140489
0.000132788
0.000125378
0.000118547
0.000112452
0.000107073
0.000102224
9.7588e-05
9.27922e-05
8.75251e-05
8.16878e-05
7.55008e-05
6.94711e-05
6.41765e-05
5.99389e-05
5.65632e-05
5.3324e-05
4.92614e-05
4.36657e-05
3.6488e-05
2.84294e-05
2.06251e-05
1.40735e-05
9.11999e-06
5.28585e-06
1.54059e-06
-3.13182e-06
-9.18568e-06
-1.62794e-05
-2.34678e-05
-2.97006e-05
-3.43488e-05
-3.74867e-05
-3.98051e-05
-4.22326e-05
-4.54822e-05
-4.97519e-05
-5.47048e-05
-5.97007e-05
-6.41351e-05
-6.77095e-05
-7.0518e-05
-7.29377e-05
-7.54061e-05
-7.82049e-05
-8.13485e-05
-8.46106e-05
-8.76551e-05
-9.01986e-05
-9.2129e-05
-9.35391e-05
-9.46728e-05
-9.5822e-05
-9.72192e-05
-9.89675e-05
-0.000101025
-0.000103239
-0.00010541
-0.000107353
-0.000108947
-0.00011015
-0.000110998
-0.000111569
-0.000111963
-0.000112269
-0.000112551
-0.000112842
-0.000113151
-0.000113468
-0.000113775
-0.000114058
-0.000114305
-0.000114514
-0.000114688
-0.000114833
-0.000114959
-0.000115075
-0.000115187
-0.000115301
-0.000115419
-0.000115541
-0.000115667
-0.000115796
-0.000115928
-0.00011606
-0.000116192
-0.000116323
-0.000116454
-0.000116585
-0.000116714
-0.000116844
-0.000116973
-0.000117102
-0.00011723
-0.000117359
-0.000117488
-0.000117616
-0.000117745
-0.000117873
-0.000118001
-0.000118129
-0.000118257
-0.000118384
-0.000118512
-0.000118639
-0.000118765
-0.000118891
-0.000119017
-0.000119143
-0.000119268
-0.000119393
-0.000119517
-0.000119641
-0.000119765
-0.000119888
-0.00012001
-0.000120132
-0.000120254
-0.000120375
-0.000120495
-0.000120615
-0.000120735
-0.000120853
-0.000120971
-0.000121089
-0.000121206
-0.000121322
-0.000121437
-0.000121552
-0.000121666
-0.00012178
-0.000121892
-0.000122004
-0.000122115
-0.000122226
-0.000122335
-0.000122444
-0.000122552
-0.000122659
-0.000122765
-0.00012287
-0.000122974
-0.000123078
-0.00012318
-0.000123282
-0.000123383
-0.000123482
-0.000123581
-0.000123679
-0.000123776
-0.000123871
-0.000123966
-0.00012406
-0.000124152
-0.000124244
-0.000124334
-0.000124424
-0.000124512
-0.000124599
-0.000124685
-0.00012477
-0.000124854
-0.000124937
-0.000125018
-0.000125098
-0.000125177
-0.000125255
-0.000125332
-0.000125407
-0.000125482
-0.000125555
-0.000125627
-0.000125697
-0.000125767
-0.000125835
-0.000125901
-0.000125967
-0.000126031
-0.000126094
-0.000126156
-0.000126216
-0.000126275
-0.000126333
-0.000126389
-0.000126445
-0.000126498
-0.000126551
-0.000126602
-0.000126652
-0.0001267
-0.000126747
-0.000126793
-0.000126837
-0.00012688
-0.000126922
-0.000126962
-0.000127001
-0.000127039
-0.000127075
-0.00012711
-0.000127144
-0.000127176
-0.000127207
-0.000127236
-0.000127264
-0.000127291
-0.000127316
-0.00012734
-0.000127363
-0.000127384
-0.000127404
-0.000127422
-0.000127439
-0.000127455
-0.00012747
-0.000127483
-0.000127495
-0.000127505
-0.000127514
-0.000127522
-0.000127529
-0.000127534
-0.000127538
-0.00012754
-0.000127541
-0.000127541
-0.00012754
-0.000127537
-0.000127533
-0.000127528
-0.000127522
-0.000127514
-0.000127505
-0.000127495
-0.000127483
-0.000127471
-0.000127457
-0.000127442
-0.000127426
-0.000127408
-0.000127389
-0.00012737
-0.000127349
-0.000127326
-0.000127303
-0.000127279
-0.000127253
-0.000127227
-0.000127199
-0.00012717
-0.00012714
-0.000127109
-0.000127077
-0.000127044
-0.00012701
-0.000126975
-0.000126938
-0.000126901
-0.000126863
-0.000126824
-0.000126784
-0.000126743
-0.000126701
-0.000126658
-0.000126614
-0.000126569
-0.000126524
-0.000126477
-0.00012643
-0.000126381
-0.000126332
-0.000126283
-0.000126232
-0.00012618
-0.000126128
-0.000126075
-0.000126021
-0.000125967
-0.000125911
-0.000125855
-0.000125799
-0.000125741
-0.000125683
-0.000125625
-0.000125565
-0.000125506
-0.000125444
-0.000125384
-0.000125321
-0.00012526
-0.000125195
-0.000125134
-0.000125067
-0.000125006
-0.000124936
-0.000124877
-0.000124803
-0.000124746
-0.000124668
-0.000124614
-0.00012453
-0.00012448
-0.000124391
-0.000124347
-0.000124248
-0.000124214
-0.000124103
-0.000124081
-0.000123953
-0.000123952
-0.000123799
-0.000123827
-0.000123639
-0.000123709
-0.00012347
-0.000123601
-0.000123292
-0.000123506
-0.000123103
-0.000123425
-0.000122903
-0.000123363
-0.000122688
-0.000123329
-0.000122449
-0.000123344
-0.000122158
-0.000123453
-0.000121759
-0.000123733
-0.000121176
-0.000124253
-0.000120385
-0.000124939
-0.000119603
-0.000125309
-0.000119543
-0.000124088
-0.000121204
-0.000116747
-0.000109694
-0.000109694
-0.122187
0.122187
0.121605
0.0822017
0.0539226
0.0367867
0.0263121
0.0196329
0.0151808
0.0120944
0.00988166
0.00824871
0.00701235
0.00605445
0.0052966
0.0046855
0.00418417
0.00376645
0.00341353
0.00311164
0.00285056
0.00262265
0.00242212
0.00224454
0.0020864
0.00194484
0.00181747
0.00170227
0.00159753
0.00150186
0.00141414
0.00133351
0.0012593
0.00119099
0.00112808
0.00107003
0.00101618
0.000965832
0.000918438
0.000873686
0.000831525
0.000792035
0.000755268
0.000721139
0.000689419
0.000659787
0.000631871
0.000605292
0.000579733
0.000555044
0.00053133
0.000508922
0.000488186
0.000469262
0.000451893
0.000435474
0.000419321
0.000402994
0.000386486
0.000370182
0.000354636
0.000340309
0.000327399
0.000315789
0.000305079
0.000294676
0.00028393
0.000272352
0.000259857
0.000246909
0.000234412
0.000223294
0.000213953
0.000205867
0.00019766
0.000187697
0.000174924
0.000159507
0.00014287
0.000127039
0.000113624
0.000102997
9.41189e-05
8.51304e-05
7.43744e-05
6.1292e-05
4.67091e-05
3.23841e-05
2.00886e-05
1.07266e-05
3.94353e-06
-1.61399e-06
-7.57715e-06
-1.50743e-05
-2.4278e-05
-3.44566e-05
-4.44401e-05
-5.32202e-05
-6.03855e-05
-6.62105e-05
-7.14146e-05
-7.67522e-05
-8.2652e-05
-8.90611e-05
-9.5531e-05
-0.000101471
-0.000106431
-0.000110287
-0.000113269
-0.000115842
-0.000118515
-0.000121657
-0.000125387
-0.000129575
-0.00013391
-0.000138024
-0.000141603
-0.000144462
-0.000146564
-0.000148003
-0.000148945
-0.000149578
-0.000150064
-0.000150512
-0.000150977
-0.000151465
-0.000151955
-0.000152417
-0.000152822
-0.000153154
-0.000153411
-0.000153602
-0.000153742
-0.000153849
-0.000153938
-0.000154023
-0.000154112
-0.000154209
-0.000154314
-0.000154426
-0.000154543
-0.000154663
-0.000154785
-0.000154906
-0.000155026
-0.000155144
-0.000155261
-0.000155377
-0.000155493
-0.000155607
-0.000155722
-0.000155836
-0.00015595
-0.000156064
-0.000156178
-0.000156292
-0.000156405
-0.000156518
-0.000156631
-0.000156744
-0.000156856
-0.000156968
-0.000157079
-0.000157191
-0.000157301
-0.000157411
-0.000157521
-0.00015763
-0.000157739
-0.000157848
-0.000157955
-0.000158063
-0.000158169
-0.000158275
-0.000158381
-0.000158486
-0.00015859
-0.000158694
-0.000158797
-0.0001589
-0.000159001
-0.000159102
-0.000159203
-0.000159302
-0.000159401
-0.000159499
-0.000159597
-0.000159693
-0.000159789
-0.000159884
-0.000159978
-0.000160072
-0.000160164
-0.000160256
-0.000160347
-0.000160437
-0.000160525
-0.000160614
-0.000160701
-0.000160787
-0.000160872
-0.000160956
-0.000161039
-0.000161122
-0.000161203
-0.000161283
-0.000161362
-0.00016144
-0.000161517
-0.000161593
-0.000161668
-0.000161742
-0.000161815
-0.000161887
-0.000161957
-0.000162026
-0.000162095
-0.000162162
-0.000162228
-0.000162292
-0.000162356
-0.000162418
-0.000162479
-0.000162539
-0.000162598
-0.000162656
-0.000162712
-0.000162767
-0.000162821
-0.000162873
-0.000162925
-0.000162975
-0.000163024
-0.000163071
-0.000163117
-0.000163162
-0.000163206
-0.000163248
-0.000163289
-0.000163329
-0.000163368
-0.000163405
-0.00016344
-0.000163475
-0.000163508
-0.00016354
-0.00016357
-0.0001636
-0.000163628
-0.000163654
-0.000163679
-0.000163703
-0.000163726
-0.000163747
-0.000163767
-0.000163785
-0.000163802
-0.000163818
-0.000163832
-0.000163846
-0.000163857
-0.000163868
-0.000163877
-0.000163885
-0.000163891
-0.000163896
-0.0001639
-0.000163903
-0.000163904
-0.000163904
-0.000163903
-0.0001639
-0.000163896
-0.00016389
-0.000163884
-0.000163876
-0.000163867
-0.000163856
-0.000163845
-0.000163832
-0.000163818
-0.000163802
-0.000163785
-0.000163767
-0.000163748
-0.000163728
-0.000163706
-0.000163684
-0.00016366
-0.000163634
-0.000163608
-0.000163581
-0.000163552
-0.000163522
-0.000163491
-0.000163459
-0.000163426
-0.000163392
-0.000163356
-0.00016332
-0.000163282
-0.000163244
-0.000163204
-0.000163163
-0.000163121
-0.000163079
-0.000163035
-0.00016299
-0.000162944
-0.000162898
-0.00016285
-0.000162801
-0.000162752
-0.000162701
-0.00016265
-0.000162597
-0.000162544
-0.00016249
-0.000162435
-0.000162379
-0.000162323
-0.000162265
-0.000162207
-0.000162148
-0.000162088
-0.000162028
-0.000161967
-0.000161905
-0.000161842
-0.000161778
-0.000161714
-0.00016165
-0.000161584
-0.000161518
-0.000161451
-0.000161384
-0.000161316
-0.000161247
-0.000161178
-0.000161109
-0.000161038
-0.000160968
-0.000160895
-0.000160825
-0.000160751
-0.00016068
-0.000160604
-0.000160534
-0.000160456
-0.000160387
-0.000160305
-0.000160238
-0.000160152
-0.000160088
-0.000159997
-0.000159938
-0.00015984
-0.000159788
-0.000159681
-0.000159639
-0.000159519
-0.00015949
-0.000159354
-0.000159344
-0.000159185
-0.000159203
-0.000159011
-0.000159068
-0.000158829
-0.000158944
-0.000158635
-0.000158837
-0.000158428
-0.00015875
-0.000158204
-0.000158688
-0.000157962
-0.000158656
-0.0001577
-0.000158662
-0.000157412
-0.000158724
-0.000157076
-0.000158887
-0.000156636
-0.000159241
-0.000155984
-0.00015993
-0.000154979
-0.000161072
-0.0001536
-0.000162497
-0.000152274
-0.000163309
-0.000152191
-0.000161399
-0.000154471
-0.000150341
-0.000136682
-0.000136682
-0.0942459
0.0942459
0.120961
0.0969048
0.0717212
0.053119
0.0401168
0.0310242
0.024569
0.0198956
0.0164416
0.0138361
0.0118313
0.0102595
0.00900491
0.00798672
0.00714745
0.00644572
0.00585126
0.00534174
0.00490047
0.00451489
0.00417548
0.00387483
0.00360704
0.00336726
0.00315142
0.00295608
0.00277839
0.00261606
0.00246726
0.00233052
0.00220469
0.00208881
0.00198196
0.00188317
0.00179133
0.00170541
0.00162458
0.0015484
0.00147679
0.00140981
0.00134746
0.00128952
0.00123556
0.00118504
0.00113738
0.00109203
0.00104853
0.00100666
0.000966593
0.000928758
0.000893622
0.000861302
0.000831352
0.00080287
0.000774894
0.000746855
0.000718821
0.000691391
0.000665357
0.000641329
0.000619504
0.000599622
0.000581037
0.000562859
0.000544166
0.000524301
0.000503209
0.000481603
0.000460773
0.000441965
0.000425599
0.00041077
0.000395421
0.000377246
0.000354905
0.00032887
0.00030137
0.000275365
0.000253064
0.000234804
0.000218911
0.000202655
0.000183757
0.000161625
0.000137656
0.000114482
9.45956e-05
7.91168e-05
6.73212e-05
5.71164e-05
4.61405e-05
3.28788e-05
1.72521e-05
4.58842e-07
-1.57559e-05
-2.99785e-05
-4.17183e-05
-5.14792e-05
-6.03611e-05
-6.9449e-05
-7.93071e-05
-8.97904e-05
-0.000100209
-0.000109715
-0.000117708
-0.000124085
-0.000129243
-0.00013389
-0.000138749
-0.000144302
-0.000150654
-0.000157545
-0.000164483
-0.000170916
-0.000176404
-0.000180711
-0.000183831
-0.000185939
-0.000187309
-0.000188231
-0.000188948
-0.000189615
-0.000190305
-0.00019102
-0.000191726
-0.000192373
-0.000192923
-0.000193355
-0.000193669
-0.000193881
-0.000194017
-0.000194106
-0.000194171
-0.000194231
-0.000194299
-0.000194379
-0.000194472
-0.000194576
-0.000194687
-0.000194802
-0.000194919
-0.000195035
-0.000195149
-0.000195261
-0.000195371
-0.000195479
-0.000195586
-0.000195692
-0.000195798
-0.000195903
-0.000196009
-0.000196114
-0.000196219
-0.000196324
-0.000196429
-0.000196534
-0.000196638
-0.000196742
-0.000196845
-0.000196948
-0.000197051
-0.000197153
-0.000197255
-0.000197356
-0.000197457
-0.000197557
-0.000197656
-0.000197755
-0.000197854
-0.000197952
-0.000198049
-0.000198146
-0.000198242
-0.000198338
-0.000198433
-0.000198527
-0.000198621
-0.000198714
-0.000198806
-0.000198898
-0.000198989
-0.000199079
-0.000199168
-0.000199257
-0.000199344
-0.000199431
-0.000199518
-0.000199603
-0.000199688
-0.000199771
-0.000199854
-0.000199936
-0.000200017
-0.000200097
-0.000200177
-0.000200255
-0.000200332
-0.000200409
-0.000200484
-0.000200559
-0.000200632
-0.000200705
-0.000200777
-0.000200847
-0.000200917
-0.000200985
-0.000201052
-0.000201119
-0.000201184
-0.000201248
-0.000201311
-0.000201373
-0.000201434
-0.000201494
-0.000201553
-0.00020161
-0.000201666
-0.000201722
-0.000201776
-0.000201828
-0.00020188
-0.000201931
-0.00020198
-0.000202028
-0.000202075
-0.00020212
-0.000202165
-0.000202208
-0.00020225
-0.000202291
-0.00020233
-0.000202369
-0.000202406
-0.000202441
-0.000202476
-0.000202509
-0.000202541
-0.000202571
-0.000202601
-0.000202629
-0.000202656
-0.000202681
-0.000202705
-0.000202728
-0.00020275
-0.00020277
-0.000202789
-0.000202807
-0.000202823
-0.000202839
-0.000202852
-0.000202865
-0.000202876
-0.000202886
-0.000202895
-0.000202902
-0.000202908
-0.000202913
-0.000202916
-0.000202918
-0.000202919
-0.000202918
-0.000202917
-0.000202914
-0.000202909
-0.000202904
-0.000202897
-0.000202889
-0.000202879
-0.000202869
-0.000202857
-0.000202844
-0.000202829
-0.000202814
-0.000202797
-0.000202779
-0.000202759
-0.000202739
-0.000202717
-0.000202694
-0.00020267
-0.000202645
-0.000202618
-0.00020259
-0.000202562
-0.000202532
-0.0002025
-0.000202468
-0.000202435
-0.0002024
-0.000202365
-0.000202328
-0.00020229
-0.000202251
-0.000202211
-0.00020217
-0.000202128
-0.000202085
-0.000202041
-0.000201996
-0.000201949
-0.000201902
-0.000201854
-0.000201805
-0.000201755
-0.000201704
-0.000201652
-0.000201599
-0.000201545
-0.00020149
-0.000201435
-0.000201378
-0.000201321
-0.000201263
-0.000201204
-0.000201144
-0.000201083
-0.000201022
-0.00020096
-0.000200897