# vtk DataFile Version 2.0
FlowField
ASCII
DATASET STRUCTURED_GRID
DIMENSIONS 400 1 50
POINTS 20000 float
0 0 0
0.08 0 0
0.16 0 0
0.24 0 0
0.32 0 0
0.4 0 0
0.48 0 0
0.56 0 0
0.64 0 0
0.72 0 0
0.8 0 0
0.88 0 0
0.96 0 0
1.04 0 0
1.12 0 0
1.2 0 0
1.28 0 0
1.36 0 0
1.44 0 0
1.52 0 0
1.6 0 0
1.68 0 0
1.76 0 0
1.84 0 0
1.92 0 0
2 0 0
2.08 0 0
2.16 0 0
2.24 0 0
2.32 0 0
2.4 0 0
2.48 0 0
2.56 0 0
2.64 0 0
2.72 0 0
2.8 0 0
2.88 0 0
2.96 0 0
3.04 0 0
3.12 0 0
3.2 0 0
3.28 0 0
3.36 0 0
3.44 0 0
3.52 0 0
3.6 0 0
3.68 0 0
3.76 0 0
3.84 0 0
3.92 0 0
4 0 0
4.08 0 0
4.16 0 0
4.24 0 0
4.32 0 0
4.4 0 0
4.48 0 0
4.56 0 0
4.64 0 0
4.72 0 0
4.8 0 0
4.88 0 0
4.96 0 0
5.04 0 0
5.12 0 0
5.2 0 0
5.28 0 0
5.36 0 0
5.44 0 0
5.52 0 0
5.6 0 0
5.68 0 0
5.76 0 0
5.84 0 0
5.92 0 0
6 0 0
6.08 0 0
6.16 0 0
6.24 0 0
6.32 0 0
6.4 0 0
6.48 0 0
6.56 0 0
6.64 0 0
6.72 0 0
6.8 0 0
6.88 0 0
6.96 0 0
7.04 0 0
7.12 0 0
7.2 0 0
7.28 0 0
7.36 0 0
7.44 0 0
7.52 0 0
7.6 0 0
7.68 0 0
7.76 0 0
7.84 0 0
7.92 0 0
8 0 0
8.08 0 0
8.16 0 0
8.24 0 0
8.32 0 0
8.4 0 0
8.48 0 0
8.56 0 0
8.64 0 0
8.72 0 0
8.8 0 0
8.88 0 0
8.96 0 0
9.04 0 0
9.12 0 0
9.2 0 0
9.28 0 0
9.36 0 0
9.44 0 0
9.52 0 0
9.6 0 0
9.68 0 0
9.76 0 0
9.84 0 0
9.92 0 0
10 0 0
10.08 0 0
10.16 0 0
10.24 0 0
10.32 0 0
10.4 0 0
10.48 0 0
10.56 0 0
10.64 0 0
10.72 0 0
10.8 0 0
10.88 0 0
10.96 0 0
11.04 0 0
11.12 0 0
11.2 0 0
11.28 0 0
11.36 0 0
11.44 0 0
11.52 0 0
11.6 0 0
11.68 0 0
11.76 0 0
11.84 0 0
11.92 0 0
12 0 0
12.08 0 0
12.16 0 0
12.24 0 0
12.32 0 0
12.4 0 0
12.48 0 0
12.56 0 0
12.64 0 0
12.72 0 0
12.8 0 0
12.88 0 0
12.96 0 0
13.04 0 0
13.12 0 0
13.2 0 0
13.28 0 0
13.36 0 0
13.44 0 0
13.52 0 0
13.6 0 0
13.68 0 0
13.76 0 0
13.84 0 0
13.92 0 0
14 0 0
14.08 0 0
14.16 0 0
14.24 0 0
14.32 0 0
14.4 0 0
14.48 0 0
14.56 0 0
14.64 0 0
14.72 0 0
14.8 0 0
14.88 0 0
14.96 0 0
15.04 0 0
15.12 0 0
15.2 0 0
15.28 0 0
15.36 0 0
15.44 0 0
15.52 0 0
15.6 0 0
15.68 0 0
15.76 0 0
15.84 0 0
15.92 0 0
16 0 0
16.08 0 0
16.16 0 0
16.24 0 0
16.32 0 0
16.4 0 0
16.48 0 0
16.56 0 0
16.64 0 0
16.72 0 0
16.8 0 0
16.88 0 0
16.96 0 0
17.04 0 0
17.12 0 0
17.2 0 0
17.28 0 0
17.36 0 0
17.44 0 0
17.52 0 0
17.6 0 0
17.68 0 0
17.76 0 0
17.84 0 0
17.92 0 0
18 0 0
18.08 0 0
18.16 0 0
18.24 0 0
18.32 0 0
18.4 0 0
18.48 0 0
18.56 0 0
18.64 0 0
18.72 0 0
18.8 0 0
18.88 0 0
18.96 0 0
19.04 0 0
19.12 0 0
19.2 0 0
19.28 0 0
19.36 0 0
19.44 0 0
19.52 0 0
19.6 0 0
19.68 0 0
19.76 0 0
19.84 0 0
19.92 0 0
20 0 0
20.08 0 0
20.16 0 0
20.24 0 0
20.32 0 0
20.4 0 0
20.48 0 0
20.56 0 0
20.64 0 0
20.72 0 0
20.8 0 0
20.88 0 0
20.96 0 0
21.04 0 0
21.12 0 0
21.2 0 0
21.28 0 0
21.36 0 0
21.44 0 0
21.52 0 0
21.6 0 0
21.68 0 0
21.76 0 0
21.84 0 0
21.92 0 0
22 0 0
22.08 0 0
22.16 0 0
22.24 0 0
22.32 0 0
22.4 0 0
22.48 0 0
22.56 0 0
22.64 0 0
22.72 0 0
22.8 0 0
22.88 0 0
22.96 0 0
23.04 0 0
23.12 0 0
23.2 0 0
23.28 0 0
23.36 0 0
23.44 0 0
23.52 0 0
23.6 0 0
23.68 0 0
23.76 0 0
23.84 0 0
23.92 0 0
24 0 0
24.08 0 0
24.16 0 0
24.24 0 0
24.32 0 0
24.4 0 0
24.48 0 0
24.56 0 0
24.64 0 0
24.72 0 0
24.8 0 0
24.88 0 0
24.96 0 0
25.04 0 0
25.12 0 0
25.2 0 0
25.28 0 0
25.36 0 0
25.44 0 0
25.52 0 0
25.6 0 0
25.68 0 0
25.76 0 0
25.84 0 0
25.92 0 0
26 0 0
26.08 0 0
26.16 0 0
26.24 0 0
26.32 0 0
26.4 0 0
26.48 0 0
26.56 0 0
26.64 0 0
26.72 0 0
26.8 0 0
26.88 0 0
26.96 0 0
27.04 0 0
27.12 0 0
27.2 0 0
27.28 0 0
27.36 0 0
27.44 0 0
27.52 0 0
27.6 0 0
27.68 0 0
27.76 0 0
27.84 0 0
27.92 0 0
28 0 0
28.08 0 0
28.16 0 0
28.24 0 0
28.32 0 0
28.4 0 0
28.48 0 0
28.56 0 0
28.64 0 0
28.72 0 0
28.8 0 0
28.88 0 0
28.96 0 0
29.04 0 0
29.12 0 0
29.2 0 0
29.28 0 0
29.36 0 0
29.44 0 0
29.52 0 0
29.6 0 0
29.68 0 0
29.76 0 0
29.84 0 0
29.92 0 0
30 0 0
30.08 0 0
30.16 0 0
30.24 0 0
30.32 0 0
30.4 0 0
30.48 0 0
30.56 0 0
30.64 0 0
30.72 0 0
30.8 0 0
30.88 0 0
30.96 0 0
31.04 0 0
31.12 0 0
31.2 0 0
31.28 0 0
31.36 0 0
31.44 0 0
31.52 0 0
31.6 0 0
31.68 0 0
31.76 0 0
31.84 0 0
31.92 0 0
0 0.02 0
0.08 0.02 0
0.16 0.02 0
0.24 0.02 0
0.32 0.02 0
0.4 0.02 0
0.48 0.02 0
0.56 0.02 0
0.64 0.02 0
0.72 0.02 0
0.8 0.02 0
0.88 0.02 0
0.96 0.02 0
1.04 0.02 0
1.12 0.02 0
1.2 0.02 0
1.28 0.02 0
1.36 0.02 0
1.44 0.02 0
1.52 0.02 0
1.6 0.02 0
1.68 0.02 0
1.76 0.02 0
1.84 0.02 0
1.92 0.02 0
2 0.02 0
2.08 0.02 0
2.16 0.02 0
2.24 0.02 0
2.32 0.02 0
2.4 0.02 0
2.48 0.02 0
2.56 0.02 0
2.64 0.02 0
2.72 0.02 0
2.8 0.02 0
2.88 0.02 0
2.96 0.02 0
3.04 0.02 0
3.12 0.02 0
3.2 0.02 0
3.28 0.02 0
3.36 0.02 0
3.44 0.02 0
3.52 0.02 0
3.6 0.02 0
3.68 0.02 0
3.76 0.02 0
3.84 0.02 0
3.92 0.02 0
4 0.02 0
4.08 0.02 0
4.16 0.02 0
4.24 0.02 0
4.32 0.02 0
4.4 0.02 0
4.48 0.02 0
4.56 0.02 0
4.64 0.02 0
4.72 0.02 0
4.8 0.02 0
4.88 0.02 0
4.96 0.02 0
5.04 0.02 0
5.12 0.02 0
5.2 0.02 0
5.28 0.02 0
5.36 0.02 0
5.44 0.02 0
5.52 0.02 0
5.6 0.02 0
5.68 0.02 0
5.76 0.02 0
5.84 0.02 0
5.92 0.02 0
6 0.02 0
6.08 0.02 0
6.16 0.02 0
6.24 0.02 0
6.32 0.02 0
6.4 0.02 0
6.48 0.02 0
6.56 0.02 0
6.64 0.02 0
6.72 0.02 0
6.8 0.02 0
6.88 0.02 0
6.96 0.02 0
7.04 0.02 0
7.12 0.02 0
7.2 0.02 0
7.28 0.02 0
7.36 0.02 0
7.44 0.02 0
7.52 0.02 0
7.6 0.02 0
7.68 0.02 0
7.76 0.02 0
7.84 0.02 0
7.92 0.02 0
8 0.02 0
8.08 0.02 0
8.16 0.02 0
8.24 0.02 0
8.32 0.02 0
8.4 0.02 0
8.48 0.02 0
8.56 0.02 0
8.64 0.02 0
8.72 0.02 0
8.8 0.02 0
8.88 0.02 0
8.96 0.02 0
9.04 0.02 0
9.12 0.02 0
9.2 0.02 0
9.28 0.02 0
9.36 0.02 0
9.44 0.02 0
9.52 0.02 0
9.6 0.02 0
9.68 0.02 0
9.76 0.02 0
9.84 0.02 0
9.92 0.02 0
10 0.02 0
10.08 0.02 0
10.16 0.02 0
10.24 0.02 0
10.32 0.02 0
10.4 0.02 0
10.48 0.02 0
10.56 0.02 0
10.64 0.02 0
10.72 0.02 0
10.8 0.02 0
10.88 0.02 0
10.96 0.02 0
11.04 0.02 0
11.12 0.02 0
11.2 0.02 0
11.28 0.02 0
11.36 0.02 0
11.44 0.02 0
11.52 0.02 0
11.6 0.02 0
11.68 0.02 0
11.76 0.02 0
11.84 0.02 0
11.92 0.02 0
12 0.02 0
12.08 0.02 0
12.16 0.02 0
12.24 0.02 0
12.32 0.02 0
12.4 0.02 0
12.48 0.02 0
12.56 0.02 0
12.64 0.02 0
12.72 0.02 0
12.8 0.02 0
12.88 0.02 0
12.96 0.02 0
13.04 0.02 0
13.12 0.02 0
13.2 0.02 0
13.28 0.02 0
13.36 0.02 0
13.44 0.02 0
13.52 0.02 0
13.6 0.02 0
13.68 0.02 0
13.76 0.02 0
13.84 0.02 0
13.92 0.02 0
14 0.02 0
14.08 0.02 0
14.16 0.02 0
14.24 0.02 0
14.32 0.02 0
14.4 0.02 0
14.48 0.02 0
14.56 0.02 0
14.64 0.02 0
14.72 0.02 0
14.8 0.02 0
14.88 0.02 0
14.96 0.02 0
15.04 0.02 0
15.12 0.02 0
15.2 0.02 0
15.28 0.02 0
15.36 0.02 0
15.44 0.02 0
15.52 0.02 0
15.6 0.02 0
15.68 0.02 0
15.76 0.02 0
15.84 0.02 0
15.92 0.02 0
16 0.02 0
16.08 0.02 0
16.16 0.02 0
16.24 0.02 0
16.32 0.02 0
16.4 0.02 0
16.48 0.02 0
16.56 0.02 0
16.64 0.02 0
16.72 0.02 0
16.8 0.02 0
16.88 0.02 0
16.96 0.02 0
17.04 0.02 0
17.12 0.02 0
17.2 0.02 0
17.28 0.02 0
17.36 0.02 0
17.44 0.02 0
17.52 0.02 0
17.6 0.02 0
17.68 0.02 0
17.76 0.02 0
17.84 0.02 0
17.92 0.02 0
18 0.02 0
18.08 0.02 0
18.16 0.02 0
18.24 0.02 0
18.32 0.02 0
18.4 0.02 0
18.48 0.02 0
18.56 0.02 0
18.64 0.02 0
18.72 0.02 0
18.8 0.02 0
18.88 0.02 0
18.96 0.02 0
19.04 0.02 0
19.12 0.02 0
19.2 0.02 0
19.28 0.02 0
19.36 0.02 0
19.44 0.02 0
19.52 0.02 0
19.6 0.02 0
19.68 0.02 0
19.76 0.02 0
19.84 0.02 0
19.92 0.02 0
20 0.02 0
20.08 0.02 0
20.16 0.02 0
20.24 0.02 0
20.32 0.02 0
20.4 0.02 0
20.48 0.02 0
20.56 0.02 0
20.64 0.02 0
20.72 0.02 0
20.8 0.02 0
20.88 0.02 0
20.96 0.02 0
21.04 0.02 0
21.12 0.02 0
21.2 0.02 0
21.28 0.02 0
21.36 0.02 0
21.44 0.02 0
21.52 0.02 0
21.6 0.02 0
21.68 0.02 0
21.76 0.02 0
21.84 0.02 0
21.92 0.02 0
22 0.02 0
22.08 0.02 0
22.16 0.02 0
22.24 0.02 0
22.32 0.02 0
22.4 0.02 0
22.48 0.02 0
22.56 0.02 0
22.64 0.02 0
22.72 0.02 0
22.8 0.02 0
22.88 0.02 0
22.96 0.02 0
23.04 0.02 0
23.12 0.02 0
23.2 0.02 0
23.28 0.02 0
23.36 0.02 0
23.44 0.02 0
23.52 0.02 0
23.6 0.02 0
23.68 0.02 0
23.76 0.02 0
23.84 0.02 0
23.92 0.02 0
24 0.02 0
24.08 0.02 0
24.16 0.02 0
24.24 0.02 0
24.32 0.02 0
24.4 0.02 0
24.48 0.02 0
24.56 0.02 0
24.64 0.02 0
24.72 0.02 0
24.8 0.02 0
24.88 0.02 0
24.96 0.02 0
25.04 0.02 0
25.12 0.02 0
25.2 0.02 0
25.28 0.02 0
25.36 0.02 0
25.44 0.02 0
25.52 0.02 0
25.6 0.02 0
25.68 0.02 0
25.76 0.02 0
25.84 0.02 0
25.92 0.02 0
26 0.02 0
26.08 0.02 0
26.16 0.02 0
26.24 0.02 0
26.32 0.02 0
26.4 0.02 0
26.48 0.02 0
26.56 0.02 0
26.64 0.02 0
26.72 0.02 0
26.8 0.02 0
26.88 0.02 0
26.96 0.02 0
27.04 0.02 0
27.12 0.02 0
27.2 0.02 0
27.28 0.02 0
27.36 0.02 0
27.44 0.02 0
27.52 0.02 0
27.6 0.02 0
27.68 0.02 0
27.76 0.02 0
27.84 0.02 0
27.92 0.02 0
28 0.02 0
28.08 0.02 0
28.16 0.02 0
28.24 0.02 0
28.32 0.02 0
28.4 0.02 0
28.48 0.02 0
28.56 0.02 0
28.64 0.02 0
28.72 0.02 0
28.8 0.02 0
28.88 0.02 0
28.96 0.02 0
29.04 0.02 0
29.12 0.02 0
29.2 0.02 0
29.28 0.02 0
29.36 0.02 0
29.44 0.02 0
29.52 0.02 0
29.6 0.02 0
29.68 0.02 0
29.76 0.02 0
29.84 0.02 0
29.92 0.02 0
30 0.02 0
30.08 0.02 0
30.16 0.02 0
30.24 0.02 0
30.32 0.02 0
30.4 0.02 0
30.48 0.02 0
30.56 0.02 0
30.64 0.02 0
30.72 0.02 0
30.8 0.02 0
30.88 0.02 0
30.96 0.02 0
31.04 0.02 0
31.12 0.02 0
31.2 0.02 0
31.28 0.02 0
31.36 0.02 0
31.44 0.02 0
31.52 0.02 0
31.6 0.02 0
31.68 0.02 0
31.76 0.02 0
31.84 0.02 0
31.92 0.02 0
0 0.04 0
0.08 0.04 0
0.16 0.04 0
0.24 0.04 0
0.32 0.04 0
0.4 0.04 0
0.48 0.04 0
0.56 0.04 0
0.64 0.04 0
0.72 0.04 0
0.8 0.04 0
0.88 0.04 0
0.96 0.04 0
1.04 0.04 0
1.12 0.04 0
1.2 0.04 0
1.28 0.04 0
1.36 0.04 0
1.44 0.04 0
1.52 0.04 0
1.6 0.04 0
1.68 0.04 0
1.76 0.04 0
1.84 0.04 0
1.92 0.04 0
2 0.04 0
2.08 0.04 0
2.16 0.04 0
2.24 0.04 0
2.32 0.04 0
2.4 0.04 0
2.48 0.04 0
2.56 0.04 0
2.64 0.04 0
2.72 0.04 0
2.8 0.04 0
2.88 0.04 0
2.96 0.04 0
3.04 0.04 0
3.12 0.04 0
3.2 0.04 0
3.28 0.04 0
3.36 0.04 0
3.44 0.04 0
3.52 0.04 0
3.6 0.04 0
3.68 0.04 0
3.76 0.04 0
3.84 0.04 0
3.92 0.04 0
4 0.04 0
4.08 0.04 0
4.16 0.04 0
4.24 0.04 0
4.32 0.04 0
4.4 0.04 0
4.48 0.04 0
4.56 0.04 0
4.64 0.04 0
4.72 0.04 0
4.8 0.04 0
4.88 0.04 0
4.96 0.04 0
5.04 0.04 0
5.12 0.04 0
5.2 0.04 0
5.28 0.04 0
5.36 0.04 0
5.44 0.04 0
5.52 0.04 0
5.6 0.04 0
5.68 0.04 0
5.76 0.04 0
5.84 0.04 0
5.92 0.04 0
6 0.04 0
6.08 0.04 0
6.16 0.04 0
6.24 0.04 0
6.32 0.04 0
6.4 0.04 0
6.48 0.04 0
6.56 0.04 0
6.64 0.04 0
6.72 0.04 0
6.8 0.04 0
6.88 0.04 0
6.96 0.04 0
7.04 0.04 0
7.12 0.04 0
7.2 0.04 0
7.28 0.04 0
7.36 0.04 0
7.44 0.04 0
7.52 0.04 0
7.6 0.04 0
7.68 0.04 0
7.76 0.04 0
7.84 0.04 0
[...]
POINT_DATA 20000

SCALARS u float 1
LOOKUP_TABLE default
0
-0.504555
-0.287716
-0.208464
-0.171918
-0.150198
-0.135333
-0.124313
-0.115685
-0.10864
-0.102695
-0.0975498
-0.0930088
-0.088934
-0.0852304
-0.0818397
-0.0787266
-0.0758566
-0.0731843
-0.0706633
-0.0682693
-0.0660144
-0.0639371
-0.0620738
-0.0604319
-0.0589794
-0.0576585
-0.0564091
-0.0551894
-0.0539838
-0.0527974
-0.0516453
-0.0505417
-0.0494938
-0.0485009
-0.0475559
-0.0466489
-0.0457701
-0.0449117
-0.0440682
-0.0432368
-0.0424163
-0.0416066
-0.0408082
-0.0400215
-0.0392473
-0.0384857
-0.0377371
-0.0370017
-0.0362795
-0.0355705
-0.0348749
-0.0341926
-0.0335236
-0.032868
-0.0322259
-0.0315972
-0.0309819
-0.0303802
-0.029792
-0.0292174
-0.0286564
-0.0281089
-0.0275751
-0.0270548
-0.0265481
-0.026055
-0.0255755
-0.0251094
-0.0246569
-0.0242178
-0.0237921
-0.0233797
-0.0229807
-0.0225948
-0.0222222
-0.0218626
-0.021516
-0.0211824
-0.0208615
-0.0205535
-0.0202581
-0.0199752
-0.0197047
-0.0194466
-0.0192007
-0.0189668
-0.018745
-0.0185349
-0.0183366
-0.0181499
-0.0179746
-0.0178106
-0.0176578
-0.017516
-0.0173851
-0.0172649
-0.0171552
-0.017056
-0.0169671
-0.0168882
-0.0168194
-0.0167603
-0.0167108
-0.0166709
-0.0166402
-0.0166187
-0.0166062
-0.0166025
-0.0166074
-0.0166209
-0.0166426
-0.0166726
-0.0167105
-0.0167562
-0.0168097
-0.0168706
-0.0169388
-0.0170142
-0.0170967
-0.017186
-0.0172819
-0.0173844
-0.0174933
-0.0176083
-0.0177294
-0.0178564
-0.0179891
-0.0181275
-0.0182712
-0.0184203
-0.0185744
-0.0187336
-0.0188976
-0.0190663
-0.0192395
-0.0194172
-0.0195991
-0.0197852
-0.0199752
-0.0201692
-0.0203669
-0.0205682
-0.020773
-0.0209811
-0.0211925
-0.021407
-0.0216245
-0.0218449
-0.022068
-0.0222938
-0.0225222
-0.022753
-0.0229861
-0.0232215
-0.023459
-0.0236986
-0.02394
-0.0241833
-0.0244284
-0.0246751
-0.0249234
-0.0251732
-0.0254244
-0.0256769
-0.0259306
-0.0261855
-0.0264415
-0.0266986
-0.0269565
-0.0272153
-0.027475
-0.0277353
-0.0279964
-0.0282581
-0.0285203
-0.028783
-0.0290461
-0.0293097
-0.0295736
-0.0298377
-0.0301021
-0.0303667
-0.0306314
-0.0308962
-0.0311611
-0.0314259
-0.0316908
-0.0319556
-0.0322202
-0.0324848
-0.0327491
-0.0330133
-0.0332772
-0.0335408
-0.0338042
-0.0340672
-0.0343299
-0.0345922
-0.0348541
-0.0351156
-0.0353766
-0.0356372
-0.0358972
-0.0361568
-0.0364159
-0.0366744
-0.0369324
-0.0371898
-0.0374466
-0.0377029
-0.0379585
-0.0382135
-0.0384679
-0.0387216
-0.0389747
-0.0392272
-0.039479
-0.0397301
-0.0399805
-0.0402303
-0.0404793
-0.0407277
-0.0409754
-0.0412224
-0.0414686
-0.0417142
-0.0419591
-0.0422032
-0.0424467
-0.0426894
-0.0429314
-0.0431727
-0.0434133
-0.0436532
-0.0438924
-0.0441309
-0.0443686
-0.0446057
-0.044842
-0.0450777
-0.0453127
-0.0455469
-0.0457805
-0.0460134
-0.0462456
-0.0464772
-0.0467081
-0.0469382
-0.0471678
-0.0473966
-0.0476249
-0.0478524
-0.0480793
-0.0483056
-0.0485313
-0.0487563
-0.0489807
-0.0492044
-0.0494276
-0.0496501
-0.0498721
-0.0500934
-0.0503142
-0.0505344
-0.050754
-0.050973
-0.0511915
-0.0514094
-0.0516267
-0.0518435
-0.0520598
-0.0522755
-0.0524908
-0.0527054
-0.0529196
-0.0531333
-0.0533464
-0.0535591
-0.0537713
-0.053983
-0.0541942
-0.0544049
-0.0546152
-0.054825
-0.0550344
-0.0552433
-0.0554518
-0.0556599
-0.0558675
-0.0560747
-0.0562815
-0.0564879
-0.0566938
-0.0568994
-0.0571046
-0.0573094
-0.0575138
-0.0577179
-0.0579216
-0.0581249
-0.0583278
-0.0585304
-0.0587327
-0.0589346
-0.0591362
-0.0593375
-0.0595384
-0.059739
-0.0599393
-0.0601393
-0.060339
-0.0605384
-0.0607376
-0.0609364
-0.0611349
-0.0613332
-0.0615312
-0.0617289
-0.0619264
-0.0621236
-0.0623206
-0.0625173
-0.0627137
-0.06291
-0.063106
-0.0633018
-0.0634973
-0.0636927
-0.0638878
-0.0640827
-0.0642774
-0.0644719
-0.0646662
-0.0648603
-0.0650543
-0.065248
-0.0654416
-0.065635
-0.0658282
-0.0660213
-0.0662142
-0.0664069
-0.0665995
-0.0667919
-0.0669842
-0.0671764
-0.0673684
-0.0675603
-0.067752
-0.0679437
-0.0681352
-0.0683266
-0.0685178
-0.068709
-0.0689001
-0.069091
-0.0692819
-0.0694727
-0.0696633
-0.0698539
-0.0700444
-0.0702349
-0.0704252
-0.0706155
-0.0708058
-0.070996
-0.0711861
-0.0713762
-0.0715662
-0.0717562
-0.0719461
-0.072136
-0.0723259
-0.0725158
-0.0727057
-0.0728956
-0.0730854
-0.0732753
-0.0734652
-0.0736551
-0.073845
-0.074035
-0.0742251
-0.0744152
-0.0746055
-0.0747957
-0.0749865
-0.0751763
-0.0753687
-0.0755566
-0.0757532
-0.0759346
-0.0761465
-0.076296
-0.0765677
-0.0766411
-0.0768704
-0.0768704
-0.0768704
1
0.504555
0.287716
0.208464
0.171918
0.150198
0.135333
0.124313
0.115685
0.10864
0.102695
0.0975498
0.0930088
0.088934
0.0852304
0.0818397
0.0787266
0.0758566
0.0731843
0.0706633
0.0682693
0.0660144
0.0639371
0.0620738
0.0604319
0.0589794
0.0576585
0.0564091
0.0551894
0.0539838
0.0527974
0.0516453
0.0505417
0.0494938
0.0485009
0.0475559
0.0466489
0.0457701
0.0449117
0.0440682
0.0432368
0.0424163
0.0416066
0.0408082
0.0400215
0.0392473
0.0384857
0.0377371
0.0370017
0.0362795
0.0355705
0.0348749
0.0341926
0.0335236
0.032868
0.0322259
0.0315972
0.0309819
0.0303802
0.029792
0.0292174
0.0286564
0.0281089
0.0275751
0.0270548
0.0265481
0.026055
0.0255755
0.0251094
0.0246569
0.0242178
0.0237921
0.0233797
0.0229807
0.0225948
0.0222222
0.0218626
0.021516
0.0211824
0.0208615
0.0205535
0.0202581
0.0199752
0.0197047
0.0194466
0.0192007
0.0189668
0.018745
0.0185349
0.0183366
0.0181499
0.0179746
0.0178106
0.0176578
0.017516
0.0173851
0.0172649
0.0171552
0.017056
0.0169671
0.0168882
0.0168194
0.0167603
0.0167108
0.0166709
0.0166402
0.0166187
0.0166062
0.0166025
0.0166074
0.0166209
0.0166426
0.0166726
0.0167105
0.0167562
0.0168097
0.0168706
0.0169388
0.0170142
0.0170967
0.017186
0.0172819
0.0173844
0.0174933
0.0176083
0.0177294
0.0178564
0.0179891
0.0181275
0.0182712
0.0184203
0.0185744
0.0187336
0.0188976
0.0190663
0.0192395
0.0194172
0.0195991
0.0197852
0.0199752
0.0201692
0.0203669
0.0205682
0.020773
0.0209811
0.0211925
0.021407
0.0216245
0.0218449
0.022068
0.0222938
0.0225222
0.022753
0.0229861
0.0232215
0.023459
0.0236986
0.02394
0.0241833
0.0244284
0.0246751
0.0249234
0.0251732
0.0254244
0.0256769
0.0259306
0.0261855
0.0264415
0.0266986
0.0269565
0.0272153
0.027475
0.0277353
0.0279964
0.0282581
0.0285203
0.028783
0.0290461
0.0293097
0.0295736
0.0298377
0.0301021
0.0303667
0.0306314
0.0308962
0.0311611
0.0314259
0.0316908
0.0319556
0.0322202
0.0324848
0.0327491
0.0330133
0.0332772
0.0335408
0.0338042
0.0340672
0.0343299
0.0345922
0.0348541
0.0351156
0.0353766
0.0356372
0.0358972
0.0361568
0.0364159
0.0366744
0.0369324
0.0371898
0.0374466
0.0377029
0.0379585
0.0382135
0.0384679
0.0387216
0.0389747
0.0392272
0.039479
0.0397301
0.0399805
0.0402303
0.0404793
0.0407277
0.0409754
0.0412224
0.0414686
0.0417142
0.0419591
0.0422032
0.0424467
0.0426894
0.0429314
0.0431727
0.0434133
0.0436532
0.0438924
0.0441309
0.0443686
0.0446057
0.044842
0.0450777
0.0453127
0.0455469
0.0457805
0.0460134
0.0462456
0.0464772
0.0467081
0.0469382
0.0471678
0.0473966
0.0476249
0.0478524
0.0480793
0.0483056
0.0485313
0.0487563
0.0489807
0.0492044
0.0494276
0.0496501
0.0498721
0.0500934
0.0503142
0.0505344
0.050754
0.050973
0.0511915
0.0514094
0.0516267
0.0518435
0.0520598
0.0522755
0.0524908
0.0527054
0.0529196
0.0531333
0.0533464
0.0535591
0.0537713
0.053983
0.0541942
0.0544049
0.0546152
0.054825
0.0550344
0.0552433
0.0554518
0.0556599
0.0558675
0.0560747
0.0562815
0.0564879
0.0566938
0.0568994
0.0571046
0.0573094
0.0575138
0.0577179
0.0579216
0.0581249
0.0583278
0.0585304
0.0587327
0.0589346
0.0591362
0.0593375
0.0595384
0.059739
0.0599393
0.0601393
0.060339
0.0605384
0.0607376
0.0609364
0.0611349
0.0613332
0.0615312
0.0617289
0.0619264
0.0621236
0.0623206
0.0625173
0.0627137
0.06291
0.063106
0.0633018
0.0634973
0.0636927
0.0638878
0.0640827
0.0642774
0.0644719
0.0646662
0.0648603
0.0650543
0.065248
0.0654416
0.065635
0.0658282
0.0660213
0.0662142
0.0664069
0.0665995
0.0667919
0.0669842
0.0671764
0.0673684
0.0675603
0.067752
0.0679437
0.0681352
0.0683266
0.0685178
0.068709
0.0689001
0.069091
0.0692819
0.0694727
0.0696633
0.0698539
0.0700444
0.0702349
0.0704252
0.0706155
0.0708058
0.070996
0.0711861
0.0713762
0.0715662
0.0717562
0.0719461
0.072136
0.0723259
0.0725158
0.0727057
0.0728956
0.0730854
0.0732753
0.0734652
0.0736551
0.073845
0.074035
0.0742251
0.0744152
0.0746055
0.0747957
0.0749865
0.0751763
0.0753687
0.0755566
0.0757532
0.0759346
0.0761465
0.076296
0.0765677
0.0766411
0.0768704
0.0768704
0.0768704
1
0.920289
0.728623
0.587844
0.49909
0.440981
0.400114
0.369598
0.345721
0.326316
0.31006
0.29612
0.283945
0.273147
0.26346
0.254704
0.246746
0.239455
0.232703
0.226397
0.220518
0.215119
0.210276
0.206024
0.202313
0.199026
0.196014
0.193158
0.190388
0.187691
0.185088
0.182608
0.180268
0.178069
0.175993
0.174018
0.172115
0.170261
0.168442
0.166645
0.164867
0.163106
0.161362
0.159637
0.157932
0.156248
0.154587
0.152947
0.15133
0.149737
0.148166
0.146618
0.145093
0.143591
0.142112
0.140657
0.139225
0.137817
0.136432
0.135071
0.133734
0.132421
0.131131
0.129866
0.128626
0.127409
0.126216
0.125048
0.123904
0.122785
0.12169
0.120619
0.119572
0.11855
0.117552
0.116578
0.115628
0.114702
0.1138
0.112922
0.112068
0.111237
0.110431
0.109647
0.108887
0.10815
0.107436
0.106745
0.106077
0.105431
0.104808
0.104207
0.103628
0.103071
0.102536
0.102022
0.10153
0.101058
0.100608
0.100178
0.0997686
0.0993795
0.0990103
0.0986609
0.0983311
0.0980205
0.097729
0.0974564
0.0972022
0.0969665
0.0967487
0.0965488
0.0963665
0.0962015
0.0960535
0.0959224
0.0958078
0.0957094
0.0956271
0.0955606
0.0955095
0.0954737
0.0954529
0.0954467
0.0954551
0.0954776
0.0955141
0.0955643
0.0956279
0.0957046
0.0957943
0.0958966
0.0960114
0.0961383
0.0962771
0.0964275
0.0965894
0.0967624
0.0969464
0.097141
0.0973461
0.0975614
0.0977866
0.0980216
0.0982662
0.09852
0.0987829
0.0990546
0.0993349
0.0996237
0.0999207
0.100226
0.100538
0.100859
0.101186
0.101521
0.101863
0.102212
0.102567
0.102928
0.103296
0.10367
0.10405
0.104435
0.104826
0.105223
0.105624
0.106031
0.106442
0.106858
0.107279
0.107704
0.108134
0.108567
0.109005
0.109446
0.109891
0.11034
0.110792
0.111247
0.111706
0.112167
0.112632
0.113099
0.11357
0.114042
0.114518
0.114995
0.115476
0.115958
0.116442
0.116929
0.117417
0.117907
0.118399
0.118892
0.119388
0.119884
0.120382
0.120882
0.121383
0.121884
0.122388
0.122892
0.123397
0.123903
0.12441
0.124918
0.125426
0.125936
0.126446
0.126956
0.127467
0.127979
0.128491
0.129004
0.129517
0.13003
0.130544
0.131057
0.131571
0.132086
0.1326
0.133114
0.133629
0.134143
0.134658
0.135173
0.135687
0.136202
0.136716
0.13723
0.137745
0.138259
0.138772
0.139286
0.139799
0.140313
0.140826
0.141338
0.141851
0.142363
0.142874
0.143386
0.143897
0.144408
0.144918
0.145428
0.145938
0.146447
0.146955
0.147464
0.147972
0.148479
0.148986
0.149493
0.149999
0.150505
0.15101
0.151515
0.152019
0.152523
0.153027
0.15353
0.154032
0.154534
0.155036
0.155537
0.156037
0.156537
0.157037
0.157536
0.158035
0.158533
0.15903
0.159527
0.160024
0.16052
0.161016
0.161511
0.162006
0.1625
0.162994
0.163487
0.16398
0.164473
0.164964
0.165456
0.165947
0.166437
0.166928
0.167417
0.167906
0.168395
0.168884
0.169371
0.169859
0.170346
0.170833
0.171319
0.171805
0.17229
0.172775
0.17326
0.173744
0.174228
0.174711
0.175194
0.175677
0.176159
0.176641
0.177122
0.177603
0.178084
0.178565
0.179045
0.179525
0.180004
0.180483
0.180962
0.18144
0.181918
0.182396
0.182874
0.183351
0.183828
0.184304
0.184781
0.185257
0.185732
0.186208
0.186683
0.187158
0.187633
0.188107
0.188581
0.189055
0.189529
0.190002
0.190475
0.190948
0.191421
0.191893
0.192366
0.192838
0.19331
0.193781
0.194253
0.194724
0.195195
0.195666
0.196137
0.196607
0.197077
0.197548
0.198018
0.198487
0.198957
0.199427
0.199896
0.200365
0.200835
0.201304
0.201772
0.202241
0.20271
0.203178
0.203647
0.204115
0.204584
0.205052
0.20552
0.205988
0.206456
0.206924
0.207392
0.20786
0.208328
0.208797
0.209265
0.209733
0.210201
0.210669
0.211138
0.211606
0.212075
0.212544
0.213014
0.213482
0.213955
0.214419
0.214902
0.215353
0.215866
0.216254
0.21689
0.217122
0.217777
0.217777
0.217777
1
1.07535
0.989663
0.873093
0.774844
0.699729
0.642594
0.598221
0.562809
0.533752
0.509312
0.48834
0.470058
0.453914
0.439518
0.426598
0.414934
0.404305
0.394508
0.385413
0.377015
0.369405
0.362683
0.356861
0.351826
0.347379
0.343304
0.339444
0.335728
0.332156
0.328766
0.325593
0.322651
0.319925
0.317379
0.31497
0.312656
0.310401
0.308184
0.30599
0.303813
0.301653
0.29951
0.297386
0.295283
0.293202
0.291145
0.289111
0.287102
0.285117
0.283157
0.281221
0.279309
0.277422
0.27556
0.273723
0.27191
0.270123
0.26836
0.266623
0.264912
0.263226
0.261566
0.259931
0.258323
0.25674
0.255184
0.253654
0.25215
0.250672
0.24922
0.247795
0.246396
0.245023
0.243677
0.242357
0.241063
0.239795
0.238554
0.237339
0.23615
0.234987
0.233849
0.232738
0.231652
0.230592
0.229558
0.228549
0.227565
0.226606
0.225673
0.224764
0.22388
0.22302
0.222185
0.221374
0.220587
0.219824
0.219085
0.218369
0.217676
0.217006
0.216359
0.215735
0.215133
0.214554
0.213996
0.21346
0.212946
0.212453
0.211981
0.21153
0.2111
0.210689
0.210299
0.209929
0.209578
0.209247
0.208935
0.208641
0.208366
0.20811
0.207872
0.207651
0.207448
0.207262
0.207094
0.206942
0.206806
0.206687
0.206584
0.206497
0.206425
0.206369
0.206327
0.206301
0.206289
0.206291
0.206307
0.206337
0.20638
0.206437
0.206507
0.206589
0.206684
0.206792
0.206911
0.207043
0.207186
0.20734
0.207506
0.207683
0.20787
0.208068
0.208276
0.208495
0.208723
0.208961
0.209208
0.209465
0.209731
0.210005
0.210289
0.210581
0.210881
0.211189
0.211505
0.211829
0.212161
0.2125
0.212846
0.213199
0.213559
0.213926
0.2143
0.21468
0.215066
0.215458
0.215856
0.21626
0.21667
0.217085
0.217506
0.217932
0.218363
0.218799
0.21924
0.219686
0.220136
0.220591
0.22105
0.221513
0.221981
0.222452
0.222928
0.223407
0.22389
0.224376
0.224867
0.22536
0.225857
0.226357
0.22686
0.227366
0.227876
0.228388
0.228903
0.22942
0.229941
0.230463
0.230989
0.231516
0.232046
0.232579
0.233113
0.23365
0.234189
0.234729
0.235272
0.235816
0.236363
0.236911
0.237461
0.238012
0.238565
0.23912
0.239676
0.240234
0.240793
0.241354
0.241915
0.242478
0.243043
0.243608
0.244175
0.244743
0.245312
0.245881
0.246452
0.247024
0.247597
0.248171
0.248746
0.249321
0.249897
0.250474
0.251052
0.251631
0.25221
0.25279
0.253371
0.253952
0.254534
0.255117
0.2557
0.256283
0.256867
0.257452
0.258037
0.258623
0.259209
0.259795
0.260382
0.260969
0.261557
0.262145
0.262734
0.263322
0.263911
0.264501
0.26509
0.26568
0.266271
0.266861
0.267452
0.268043
0.268634
0.269225
0.269817
0.270409
0.271001
0.271593
0.272185
0.272778
0.27337
0.273963
0.274556
0.275149
0.275742
0.276336
0.276929
0.277523
0.278116
0.27871
0.279304
0.279897
0.280491
0.281085
0.281679
0.282273
0.282867
0.283462
0.284056
0.28465
0.285244
0.285839
0.286433
0.287027
0.287622
0.288216
0.28881
0.289405
0.289999
0.290594
0.291188
0.291782
0.292377
0.292971
0.293565
0.29416
0.294754
0.295348
0.295943
0.296537
0.297131
0.297725
0.298319
0.298913
0.299507
0.300101
0.300695
0.301289
0.301883
0.302477
0.30307
0.303664
0.304258
0.304851
0.305445
0.306038
0.306632
0.307225
0.307818
0.308411
0.309004
0.309597
0.31019
0.310783
0.311376
0.311969
0.312561
0.313154
0.313746
0.314339
0.314931
0.315523
0.316115
0.316707
0.317299
0.317891
0.318483
0.319075
0.319666
0.320258
0.320849
0.321441
0.322032
0.322623
0.323214
0.323805
0.324396
0.324987
0.325578
0.326168
0.326759
0.32735
0.32794
0.328531
0.329122
0.329712
0.330303
0.330894
0.331484
0.332075
0.332666
0.333258
0.333848
0.334441
0.335031
0.335628
0.336213
0.336822
0.337389
0.338039
0.338529
0.339325
0.339642
0.340541
0.340541
0.340541
1
1.10743
1.10692
1.04505
0.970605
0.901859
0.843189
0.794264
0.753463
0.719048
0.68957
0.663963
0.641459
0.621496
0.603668
0.587689
0.57331
0.560257
0.548254
0.537119
0.526844
0.517557
0.509399
0.502385
0.496364
0.491065
0.486208
0.481603
0.477176
0.472951
0.468989
0.465342
0.462021
0.459
0.456225
0.45363
0.451155
0.448753
0.446393
0.444057
0.441736
0.439429
0.437137
0.434864
0.43261
0.430378
0.428169
0.425983
0.423821
0.421683
0.419569
0.417478
0.415412
0.41337
0.411352
0.409358
0.407388
0.405443
0.403522
0.401626
0.399755
0.397909
0.396087
0.394291
0.392521
0.390775
0.389056
0.387361
0.385692
0.384049
0.382432
0.38084
0.379274
0.377734
0.37622
0.374731
0.373268
0.371831
0.370419
0.369033
0.367673
0.366338
0.365029
0.363745
0.362486
0.361253
0.360045
0.358861
0.357703
0.356569
0.35546
0.354376
0.353316
0.35228
0.351269
0.350281
0.349317
0.348377
0.34746
0.346566
0.345696
0.344848
0.344023
0.343221
0.342441
0.341683
0.340947
0.340232
0.33954
0.338868
0.338217
0.337588
0.336979
0.33639
0.335822
0.335273
0.334744
0.334235
0.333745
0.333274
0.332822
0.332388
0.331973
0.331575
0.331196
0.330834
0.330489
0.330162
0.329852
0.329558
0.32928
0.329019
0.328773
0.328544
0.32833
0.328131
0.327947
0.327777
0.327623
0.327482
0.327356
0.327243
0.327144
0.327059
0.326987
0.326927
0.326881
0.326847
0.326825
0.326815
0.326817
0.326831
0.326856
0.326893
0.32694
0.326999
0.327068
0.327147
0.327237
0.327337
0.327447
0.327566
0.327695
0.327834
0.327981
0.328137
0.328303
0.328477
0.328659
0.32885
0.329048
0.329255
0.32947
0.329692
0.329922
0.330159
0.330403
0.330654
0.330912
0.331177
0.331449
0.331727
0.332012
0.332302
0.332599
0.332902
0.333211
0.333525
0.333845
0.33417
0.334501
0.334837
0.335178
0.335524
0.335876
0.336232
0.336592
0.336958
0.337327
0.337702
0.33808
0.338463
0.33885
0.339241
0.339636
0.340035
0.340437
0.340844
0.341254
0.341667
0.342084
0.342505
0.342928
0.343355
0.343786
0.344219
0.344655
0.345095
0.345537
0.345982
0.34643
0.346881
0.347334
0.34779
0.348248
0.348709
0.349173
0.349639
0.350107
0.350578
0.35105
0.351525
0.352003
0.352482
0.352963
0.353447
0.353932
0.354419
0.354908
0.355399
0.355892
0.356387
0.356883
0.357381
0.357881
0.358383
0.358886
0.35939
0.359896
0.360404
0.360913
0.361424
0.361936
0.362449
0.362964
0.36348
0.363997
0.364515
0.365035
0.365556
0.366079
0.366602
0.367127
0.367652
0.368179
0.368707
0.369236
0.369766
0.370297
0.370829
0.371362
0.371896
0.372431
0.372967
0.373503
0.374041
0.374579
0.375119
0.375659
0.3762
0.376741
0.377284
0.377827
0.378371
0.378916
0.379461
0.380007
0.380554
0.381102
0.38165
0.382199
0.382748
0.383298
0.383849
0.3844
0.384952
0.385504
0.386057
0.38661
0.387164
0.387719
0.388274
0.388829
0.389385
0.389942
0.390498
0.391056
0.391613
0.392172
0.39273
0.393289
0.393849
0.394408
0.394968
0.395529
0.39609
0.396651
0.397212
0.397774
0.398336
0.398899
0.399461
0.400024
0.400588
0.401151
0.401715
0.402279
0.402843
0.403408
0.403973
0.404537
0.405103
0.405668
0.406233
0.406799
0.407365
0.407931
0.408497
0.409063
0.409629
0.410196
0.410763
0.411329
0.411896
0.412463
0.41303
0.413597
0.414164
0.414731
0.415298
0.415865
0.416432
0.417
0.417567
0.418134
0.418701
0.419268
0.419835
0.420403
0.42097
0.421537
0.422104
0.42267
0.423237
0.423804
0.424371
0.424937
0.425504
0.42607
0.426637
0.427203
0.427769
0.428335
0.428901
0.429467
0.430032
0.430598
0.431163
0.431729
0.432294
0.432859
0.433425
0.43399
0.434555
0.43512
0.435686
0.436251
0.436818
0.437381
0.437953
0.43851
0.439096
0.439633
0.440263
0.440721
0.441487
0.441806
0.442705
0.442705
0.442705
1
1.09166
1.13624
1.12365
1.08425
1.0366
0.989252
0.945669
0.906821
0.872511
0.84213
0.815061
0.790806
0.76897
0.749264
0.731496
0.715487
0.700978
0.68764
0.675217
0.663659
0.653125
0.643825
0.635836
0.62901
0.623027
0.617539
0.612302
0.607235
0.602383
0.597846
0.593707
0.589997
0.586685
0.5837
0.580958
0.578377
0.575893
0.573461
0.571056
0.568667
0.566291
0.563928
0.561581
0.559252
0.556945
0.554659
0.552397
0.550157
0.547942
0.545749
0.54358
0.541435
0.539313
0.537214
0.535139
0.533088
0.53106
0.529057
0.527077
0.525122
0.523191
0.521284
0.519402
0.517544
0.515711
0.513903
0.51212
0.510361
0.508627
0.506919
0.505235
0.503576
0.501943
0.500334
0.49875
0.497192
0.495658
0.494149
0.492665
0.491206
0.489772
0.488362
0.486977
0.485617
0.484281
0.48297
0.481682
0.480419
0.47918
0.477965
0.476774
0.475606
0.474462
0.473341
0.472243
0.471168
0.470117
0.469088
0.468081
0.467097
0.466135
0.465195
0.464277
0.463381
0.462506
0.461652
0.460819
0.460007
0.459216