# vtk DataFile Version 2.0
FlowField
ASCII
DATASET STRUCTURED_GRID
DIMENSIONS 400 1 50
POINTS 20000 float
0 0 0
0.08 0 0
0.16 0 0
0.24 0 0
0.32 0 0
0.4 0 0
0.48 0 0
0.56 0 0
0.64 0 0
0.72 0 0
0.8 0 0
0.88 0 0
0.96 0 0
1.04 0 0
1.12 0 0
1.2 0 0
1.28 0 0
1.36 0 0
1.44 0 0
1.52 0 0
1.6 0 0
1.68 0 0
1.76 0 0
1.84 0 0
1.92 0 0
2 0 0
2.08 0 0
2.16 0 0
2.24 0 0
2.32 0 0
2.4 0 0
2.48 0 0
2.56 0 0
2.64 0 0
2.72 0 0
2.8 0 0
2.88 0 0
2.96 0 0
3.04 0 0
3.12 0 0
3.2 0 0
3.28 0 0
3.36 0 0
3.44 0 0
3.52 0 0
3.6 0 0
3.68 0 0
3.76 0 0
3.84 0 0
3.92 0 0
4 0 0
4.08 0 0
4.16 0 0
4.24 0 0
4.32 0 0
4.4 0 0
4.48 0 0
4.56 0 0
4.64 0 0
4.72 0 0
4.8 0 0
4.88 0 0
4.96 0 0
5.04 0 0
5.12 0 0
5.2 0 0
5.28 0 0
5.36 0 0
5.44 0 0
5.52 0 0
5.6 0 0
5.68 0 0
5.76 0 0
5.84 0 0
5.92 0 0
6 0 0
6.08 0 0
6.16 0 0
6.24 0 0
6.32 0 0
6.4 0 0
6.48 0 0
6.56 0 0
6.64 0 0
6.72 0 0
6.8 0 0
6.88 0 0
6.96 0 0
7.04 0 0
7.12 0 0
7.2 0 0
7.28 0 0
7.36 0 0
7.44 0 0
7.52 0 0
7.6 0 0
7.68 0 0
7.76 0 0
7.84 0 0
7.92 0 0
8 0 0
8.08 0 0
8.16 0 0
8.24 0 0
8.32 0 0
8.4 0 0
8.48 0 0
8.56 0 0
8.64 0 0
8.72 0 0
8.8 0 0
8.88 0 0
8.96 0 0
9.04 0 0
9.12 0 0
9.2 0 0
9.28 0 0
9.36 0 0
9.44 0 0
9.52 0 0
9.6 0 0
9.68 0 0
9.76 0 0
9.84 0 0
9.92 0 0
10 0 0
10.08 0 0
10.16 0 0
10.24 0 0
10.32 0 0
10.4 0 0
10.48 0 0
10.56 0 0
10.64 0 0
10.72 0 0
10.8 0 0
10.88 0 0
10.96 0 0
11.04 0 0
11.12 0 0
11.2 0 0
11.28 0 0
11.36 0 0
11.44 0 0
11.52 0 0
11.6 0 0
11.68 0 0
11.76 0 0
11.84 0 0
11.92 0 0
12 0 0
12.08 0 0
12.16 0 0
12.24 0 0
12.32 0 0
12.4 0 0
12.48 0 0
12.56 0 0
12.64 0 0
12.72 0 0
12.8 0 0
12.88 0 0
12.96 0 0
13.04 0 0
13.12 0 0
13.2 0 0
13.28 0 0
13.36 0 0
13.44 0 0
13.52 0 0
13.6 0 0
13.68 0 0
13.76 0 0
13.84 0 0
13.92 0 0
14 0 0
14.08 0 0
14.16 0 0
14.24 0 0
14.32 0 0
14.4 0 0
14.48 0 0
14.56 0 0
14.64 0 0
14.72 0 0
14.8 0 0
14.88 0 0
14.96 0 0
15.04 0 0
15.12 0 0
15.2 0 0
15.28 0 0
15.36 0 0
15.44 0 0
15.52 0 0
15.6 0 0
15.68 0 0
15.76 0 0
15.84 0 0
15.92 0 0
16 0 0
16.08 0 0
16.16 0 0
16.24 0 0
16.32 0 0
16.4 0 0
16.48 0 0
16.56 0 0
16.64 0 0
16.72 0 0
16.8 0 0
16.88 0 0
16.96 0 0
17.04 0 0
17.12 0 0
17.2 0 0
17.28 0 0
17.36 0 0
17.44 0 0
17.52 0 0
17.6 0 0
17.68 0 0
17.76 0 0
17.84 0 0
17.92 0 0
18 0 0
18.08 0 0
18.16 0 0
18.24 0 0
18.32 0 0
18.4 0 0
18.48 0 0
18.56 0 0
18.64 0 0
18.72 0 0
18.8 0 0
18.88 0 0
18.96 0 0
19.04 0 0
19.12 0 0
19.2 0 0
19.28 0 0
19.36 0 0
19.44 0 0
19.52 0 0
19.6 0 0
19.68 0 0
19.76 0 0
19.84 0 0
19.92 0 0
20 0 0
20.08 0 0
20.16 0 0
20.24 0 0
20.32 0 0
20.4 0 0
20.48 0 0
20.56 0 0
20.64 0 0
20.72 0 0
20.8 0 0
20.88 0 0
20.96 0 0
21.04 0 0
21.12 0 0
21.2 0 0
21.28 0 0
21.36 0 0
21.44 0 0
21.52 0 0
21.6 0 0
21.68 0 0
21.76 0 0
21.84 0 0
21.92 0 0
22 0 0
22.08 0 0
22.16 0 0
22.24 0 0
22.32 0 0
22.4 0 0
22.48 0 0
22.56 0 0
22.64 0 0
22.72 0 0
22.8 0 0
22.88 0 0
22.96 0 0
23.04 0 0
23.12 0 0
23.2 0 0
23.28 0 0
23.36 0 0
23.44 0 0
23.52 0 0
23.6 0 0
23.68 0 0
23.76 0 0
23.84 0 0
23.92 0 0
24 0 0
24.08 0 0
24.16 0 0
24.24 0 0
24.32 0 0
24.4 0 0
24.48 0 0
24.56 0 0
24.64 0 0
24.72 0 0
24.8 0 0
24.88 0 0
24.96 0 0
25.04 0 0
25.12 0 0
25.2 0 0
25.28 0 0
25.36 0 0
25.44 0 0
25.52 0 0
25.6 0 0
25.68 0 0
25.76 0 0
25.84 0 0
25.92 0 0
26 0 0
26.08 0 0
26.16 0 0
26.24 0 0
26.32 0 0
26.4 0 0
26.48 0 0
26.56 0 0
26.64 0 0
26.72 0 0
26.8 0 0
26.88 0 0
26.96 0 0
27.04 0 0
27.12 0 0
27.2 0 0
27.28 0 0
27.36 0 0
27.44 0 0
27.52 0 0
27.6 0 0
27.68 0 0
27.76 0 0
27.84 0 0
27.92 0 0
28 0 0
28.08 0 0
28.16 0 0
28.24 0 0
28.32 0 0
28.4 0 0
28.48 0 0
28.56 0 0
28.64 0 0
28.72 0 0
28.8 0 0
28.88 0 0
28.96 0 0
29.04 0 0
29.12 0 0
29.2 0 0
29.28 0 0
29.36 0 0
29.44 0 0
29.52 0 0
29.6 0 0
29.68 0 0
29.76 0 0
29.84 0 0
29.92 0 0
30 0 0
30.08 0 0
30.16 0 0
30.24 0 0
30.32 0 0
30.4 0 0
30.48 0 0
30.56 0 0
30.64 0 0
30.72 0 0
30.8 0 0
30.88 0 0
30.96 0 0
31.04 0 0
31.12 0 0
31.2 0 0
31.28 0 0
31.36 0 0
31.44 0 0
31.52 0 0
31.6 0 0
31.68 0 0
31.76 0 0
31.84 0 0
31.92 0 0
0 0.02 0
0.08 0.02 0
0.16 0.02 0
0.24 0.02 0
0.32 0.02 0
0.4 0.02 0
0.48 0.02 0
0.56 0.02 0
0.64 0.02 0
0.72 0.02 0
0.8 0.02 0
0.88 0.02 0
0.96 0.02 0
1.04 0.02 0
1.12 0.02 0
1.2 0.02 0
1.28 0.02 0
1.36 0.02 0
1.44 0.02 0
1.52 0.02 0
1.6 0.02 0
1.68 0.02 0
1.76 0.02 0
1.84 0.02 0
1.92 0.02 0
2 0.02 0
2.08 0.02 0
2.16 0.02 0
2.24 0.02 0
2.32 0.02 0
2.4 0.02 0
2.48 0.02 0
2.56 0.02 0
2.64 0.02 0
2.72 0.02 0
2.8 0.02 0
2.88 0.02 0
2.96 0.02 0
3.04 0.02 0
3.12 0.02 0
3.2 0.02 0
3.28 0.02 0
3.36 0.02 0
3.44 0.02 0
3.52 0.02 0
3.6 0.02 0
3.68 0.02 0
3.76 0.02 0
3.84 0.02 0
3.92 0.02 0
4 0.02 0
4.08 0.02 0
4.16 0.02 0
4.24 0.02 0
4.32 0.02 0
4.4 0.02 0
4.48 0.02 0
4.56 0.02 0
4.64 0.02 0
4.72 0.02 0
4.8 0.02 0
4.88 0.02 0
4.96 0.02 0
5.04 0.02 0
5.12 0.02 0
5.2 0.02 0
5.28 0.02 0
5.36 0.02 0
5.44 0.02 0
5.52 0.02 0
5.6 0.02 0
5.68 0.02 0
5.76 0.02 0
5.84 0.02 0
5.92 0.02 0
6 0.02 0
6.08 0.02 0
6.16 0.02 0
6.24 0.02 0
6.32 0.02 0
6.4 0.02 0
6.48 0.02 0
6.56 0.02 0
6.64 0.02 0
6.72 0.02 0
6.8 0.02 0
6.88 0.02 0
6.96 0.02 0
7.04 0.02 0
7.12 0.02 0
7.2 0.02 0
7.28 0.02 0
7.36 0.02 0
7.44 0.02 0
7.52 0.02 0
7.6 0.02 0
7.68 0.02 0
7.76 0.02 0
7.84 0.02 0
7.92 0.02 0
8 0.02 0
8.08 0.02 0
8.16 0.02 0
8.24 0.02 0
8.32 0.02 0
8.4 0.02 0
8.48 0.02 0
8.56 0.02 0
8.64 0.02 0
8.72 0.02 0
8.8 0.02 0
8.88 0.02 0
8.96 0.02 0
9.04 0.02 0
9.12 0.02 0
9.2 0.02 0
9.28 0.02 0
9.36 0.02 0
9.44 0.02 0
9.52 0.02 0
9.6 0.02 0
9.68 0.02 0
9.76 0.02 0
9.84 0.02 0
9.92 0.02 0
10 0.02 0
10.08 0.02 0
10.16 0.02 0
10.24 0.02 0
10.32 0.02 0
10.4 0.02 0
10.48 0.02 0
10.56 0.02 0
10.64 0.02 0
10.72 0.02 0
10.8 0.02 0
10.88 0.02 0
10.96 0.02 0
11.04 0.02 0
11.12 0.02 0
11.2 0.02 0
11.28 0.02 0
11.36 0.02 0
11.44 0.02 0
11.52 0.02 0
11.6 0.02 0
11.68 0.02 0
11.76 0.02 0
11.84 0.02 0
11.92 0.02 0
12 0.02 0
12.08 0.02 0
12.16 0.02 0
12.24 0.02 0
12.32 0.02 0
12.4 0.02 0
12.48 0.02 0
12.56 0.02 0
12.64 0.02 0
12.72 0.02 0
12.8 0.02 0
12.88 0.02 0
12.96 0.02 0
13.04 0.02 0
13.12 0.02 0
13.2 0.02 0
13.28 0.02 0
13.36 0.02 0
13.44 0.02 0
13.52 0.02 0
13.6 0.02 0
13.68 0.02 0
13.76 0.02 0
13.84 0.02 0
13.92 0.02 0
14 0.02 0
14.08 0.02 0
14.16 0.02 0
14.24 0.02 0
14.32 0.02 0
14.4 0.02 0
14.48 0.02 0
14.56 0.02 0
14.64 0.02 0
14.72 0.02 0
14.8 0.02 0
14.88 0.02 0
14.96 0.02 0
15.04 0.02 0
15.12 0.02 0
15.2 0.02 0
15.28 0.02 0
15.36 0.02 0
15.44 0.02 0
15.52 0.02 0
15.6 0.02 0
15.68 0.02 0
15.76 0.02 0
15.84 0.02 0
15.92 0.02 0
16 0.02 0
16.08 0.02 0
16.16 0.02 0
16.24 0.02 0
16.32 0.02 0
16.4 0.02 0
16.48 0.02 0
16.56 0.02 0
16.64 0.02 0
16.72 0.02 0
16.8 0.02 0
16.88 0.02 0
16.96 0.02 0
17.04 0.02 0
17.12 0.02 0
17.2 0.02 0
17.28 0.02 0
17.36 0.02 0
17.44 0.02 0
17.52 0.02 0
17.6 0.02 0
17.68 0.02 0
17.76 0.02 0
17.84 0.02 0
17.92 0.02 0
18 0.02 0
18.08 0.02 0
18.16 0.02 0
18.24 0.02 0
18.32 0.02 0
18.4 0.02 0
18.48 0.02 0
18.56 0.02 0
18.64 0.02 0
18.72 0.02 0
18.8 0.02 0
18.88 0.02 0
18.96 0.02 0
19.04 0.02 0
19.12 0.02 0
19.2 0.02 0
19.28 0.02 0
19.36 0.02 0
19.44 0.02 0
19.52 0.02 0
19.6 0.02 0
19.68 0.02 0
19.76 0.02 0
19.84 0.02 0
19.92 0.02 0
20 0.02 0
20.08 0.02 0
20.16 0.02 0
20.24 0.02 0
20.32 0.02 0
20.4 0.02 0
20.48 0.02 0
20.56 0.02 0
20.64 0.02 0
20.72 0.02 0
20.8 0.02 0
20.88 0.02 0
20.96 0.02 0
21.04 0.02 0
21.12 0.02 0
21.2 0.02 0
21.28 0.02 0
21.36 0.02 0
21.44 0.02 0
21.52 0.02 0
21.6 0.02 0
21.68 0.02 0
21.76 0.02 0
21.84 0.02 0
21.92 0.02 0
22 0.02 0
22.08 0.02 0
22.16 0.02 0
22.24 0.02 0
22.32 0.02 0
22.4 0.02 0
22.48 0.02 0
22.56 0.02 0
22.64 0.02 0
22.72 0.02 0
22.8 0.02 0
22.88 0.02 0
22.96 0.02 0
23.04 0.02 0
23.12 0.02 0
23.2 0.02 0
23.28 0.02 0
23.36 0.02 0
23.44 0.02 0
23.52 0.02 0
23.6 0.02 0
23.68 0.02 0
23.76 0.02 0
23.84 0.02 0
23.92 0.02 0
24 0.02 0
24.08 0.02 0
24.16 0.02 0
24.24 0.02 0
24.32 0.02 0
24.4 0.02 0
24.48 0.02 0
24.56 0.02 0
24.64 0.02 0
24.72 0.02 0
24.8 0.02 0
24.88 0.02 0
24.96 0.02 0
25.04 0.02 0
25.12 0.02 0
25.2 0.02 0
25.28 0.02 0
25.36 0.02 0
25.44 0.02 0
25.52 0.02 0
25.6 0.02 0
25.68 0.02 0
25.76 0.02 0
25.84 0.02 0
25.92 0.02 0
26 0.02 0
26.08 0.02 0
26.16 0.02 0
26.24 0.02 0
26.32 0.02 0
26.4 0.02 0
26.48 0.02 0
26.56 0.02 0
26.64 0.02 0
26.72 0.02 0
26.8 0.02 0
26.88 0.02 0
26.96 0.02 0
27.04 0.02 0
27.12 0.02 0
27.2 0.02 0
27.28 0.02 0
27.36 0.02 0
27.44 0.02 0
27.52 0.02 0
27.6 0.02 0
27.68 0.02 0
27.76 0.02 0
27.84 0.02 0
27.92 0.02 0
28 0.02 0
28.08 0.02 0
28.16 0.02 0
28.24 0.02 0
28.32 0.02 0
28.4 0.02 0
28.48 0.02 0
28.56 0.02 0
28.64 0.02 0
28.72 0.02 0
28.8 0.02 0
28.88 0.02 0
28.96 0.02 0
29.04 0.02 0
29.12 0.02 0
29.2 0.02 0
29.28 0.02 0
29.36 0.02 0
29.44 0.02 0
29.52 0.02 0
29.6 0.02 0
29.68 0.02 0
29.76 0.02 0
29.84 0.02 0
29.92 0.02 0
30 0.02 0
30.08 0.02 0
30.16 0.02 0
30.24 0.02 0
30.32 0.02 0
30.4 0.02 0
30.48 0.02 0
30.56 0.02 0
30.64 0.02 0
30.72 0.02 0
30.8 0.02 0
30.88 0.02 0
30.96 0.02 0
31.04 0.02 0
31.12 0.02 0
31.2 0.02 0
31.28 0.02 0
31.36 0.02 0
31.44 0.02 0
31.52 0.02 0
31.6 0.02 0
31.68 0.02 0
31.76 0.02 0
31.84 0.02 0
31.92 0.02 0
0 0.04 0
0.08 0.04 0
0.16 0.04 0
0.24 0.04 0
0.32 0.04 0
0.4 0.04 0
0.48 0.04 0
0.56 0.04 0
0.64 0.04 0
0.72 0.04 0
0.8 0.04 0
0.88 0.04 0
0.96 0.04 0
1.04 0.04 0
1.12 0.04 0
1.2 0.04 0
1.28 0.04 0
1.36 0.04 0
1.44 0.04 0
1.52 0.04 0
1.6 0.04 0
1.68 0.04 0
1.76 0.04 0
1.84 0.04 0
1.92 0.04 0
2 0.04 0
2.08 0.04 0
2.16 0.04 0
2.24 0.04 0
2.32 0.04 0
2.4 0.04 0
2.48 0.04 0
2.56 0.04 0
2.64 0.04 0
2.72 0.04 0
2.8 0.04 0
2.88 0.04 0
2.96 0.04 0
3.04 0.04 0
3.12 0.04 0
3.2 0.04 0
3.28 0.04 0
3.36 0.04 0
3.44 0.04 0
3.52 0.04 0
3.6 0.04 0
3.68 0.04 0
3.76 0.04 0
3.84 0.04 0
3.92 0.04 0
4 0.04 0
4.08 0.04 0
4.16 0.04 0
4.24 0.04 0
4.32 0.04 0
4.4 0.04 0
4.48 0.04 0
4.56 0.04 0
4.64 0.04 0
4.72 0.04 0
4.8 0.04 0
4.88 0.04 0
4.96 0.04 0
5.04 0.04 0
5.12 0.04 0
5.2 0.04 0
5.28 0.04 0
5.36 0.04 0
5.44 0.04 0
5.52 0.04 0
5.6 0.04 0
5.68 0.04 0
5.76 0.04 0
5.84 0.04 0
5.92 0.04 0
6 0.04 0
6.08 0.04 0
6.16 0.04 0
6.24 0.04 0
6.32 0.04 0
6.4 0.04 0
6.48 0.04 0
6.56 0.04 0
6.64 0.04 0
6.72 0.04 0
6.8 0.04 0
6.88 0.04 0
6.96 0.04 0
7.04 0.04 0
7.12 0.04 0
7.2 0.04 0
7.28 0.04 0
7.36 0.04 0
7.44 0.04 0
7.52 0.04 0
7.6 0.04 0
7.68 0.04 0
7.76 0.04 0
7.84 0.04 0
[...]
POINT_DATA 20000

SCALARS v float 1
LOOKUP_TABLE default
0
0
0
0
0
0
0
0
0
0
0
0
0
0
0
0
0
0
0
0
0
0
0
0
0
0
0
0
0
0
0
0
0
0
0
0
0
0
0
0
0
0
0
0
0
0
0
0
0
0
0
0
0
0
0
0
0
0
0
0
0
0
0
0
0
0
0
0
0
0
0
0
0
0
0
0
0
0
0
0
0
0
0
0
0
0
0
0
0
0
0
0
0
0
0
0
0
0
0
0
0
0
0
0
0
0
0
0
0
0
0
0
0
0
0
0
0
0
0
0
0
0
0
0
0
0
0
0
0
0
0
0
0
0
0
0
0
0
0
0
0
0
0
0
0
0
0
0
0
0
0
0
0
0
0
0
0
0
0
0
0
0
0
0
0
0
0
0
0
0
0
0
0
0
0
0
0
0
0
0
0
0
0
0
0
0
0
0
0
0
0
0
0
0
0
0
0
0
0
0
0
0
0
0
0
0
0
0
0
0
0
0
0
0
0
0
0
0
0
0
0
0
0
0
0
0
0
0
0
0
0
0
0
0
0
0
0
0
0
0
0
0
0
0
0
0
0
0
0
0
0
0
0
0
0
0
0
0
0
0
0
0
0
0
0
0
0
0
0
0
0
0
0
0
0
0
0
0
0
0
0
0
0
0
0
0
0
0
0
0
0
0
0
0
0
0
0
0
0
0
0
0
0
0
0
0
0
0
0
0
0
0
0
0
0
0
0
0
0
0
0
0
0
0
0
0
0
0
0
0
0
0
0
0
0
0
0
0
0
0
0
0
0
0
0
0
0
0
0
0
0
0
0
0
0
0
0
0
0
0
0
0
0
0
0
0
0
0
0
0
0
0
0
0
0
0
0
0
0
0
0
0
0
0
0
0
0
0
0
0
0
0
0
0
0
0
0
0
0
0
-0.123227
0.123227
0.0537916
0.0194387
0.00878282
0.00508938
0.0033874
0.00243694
0.00184711
0.00145589
0.00118363
0.000986835
0.000839971
0.000727278
0.000638641
0.000567374
0.00050895
0.000460233
0.000419006
0.000383672
0.000353057
0.000326283
0.000302679
0.000281727
0.000263015
0.000246216
0.000231063
0.000217337
0.000204857
0.000193471
0.000183048
0.000173481
0.000164673
0.000156545
0.000149026
0.000142054
0.000135576
0.000129544
0.000123918
0.00011866
0.000113737
0.000109122
0.000104786
0.000100709
9.68677e-05
9.32445e-05
8.98223e-05
8.65859e-05
8.35213e-05
8.06162e-05
7.7859e-05
7.52393e-05
7.27478e-05
7.03756e-05
6.81148e-05
6.59581e-05
6.38989e-05
6.19309e-05
6.00485e-05
5.82465e-05
5.65201e-05
5.48647e-05
5.32761e-05
5.17506e-05
5.02846e-05
4.88746e-05
4.75177e-05
4.6211e-05
4.49519e-05
4.37379e-05
4.25668e-05
4.14364e-05
4.03445e-05
3.92894e-05
3.82692e-05
3.72823e-05
3.6327e-05
3.5402e-05
3.4506e-05
3.36376e-05
3.27957e-05
3.19789e-05
3.11863e-05
3.04167e-05
2.96691e-05
2.89428e-05
2.82368e-05
2.75505e-05
2.68831e-05
2.6234e-05
2.56025e-05
2.49879e-05
2.43895e-05
2.38068e-05
2.32391e-05
2.26859e-05
2.21468e-05
2.16215e-05
2.11094e-05
2.06102e-05
2.01234e-05
1.96485e-05
1.91851e-05
1.87327e-05
1.82911e-05
1.786e-05
1.74391e-05
1.70283e-05
1.66274e-05
1.62362e-05
1.58543e-05
1.54813e-05
1.51169e-05
1.47608e-05
1.44129e-05
1.4073e-05
1.3741e-05
1.34167e-05
1.31001e-05
1.27909e-05
1.24887e-05
1.21934e-05
1.19047e-05
1.16222e-05
1.13459e-05
1.10758e-05
1.08118e-05
1.05541e-05
1.03027e-05
1.00572e-05
9.81726e-06
9.58253e-06
9.35277e-06
9.12796e-06
8.90817e-06
8.69342e-06
8.48364e-06
8.27867e-06
8.07836e-06
7.88262e-06
7.69133e-06
7.50427e-06
7.3211e-06
7.14147e-06
6.96528e-06
6.79275e-06
6.6243e-06
6.46025e-06
6.30049e-06
6.14449e-06
5.99154e-06
5.84118e-06
5.6934e-06
5.54858e-06
5.40714e-06
5.2692e-06
5.13452e-06
5.00274e-06
4.87362e-06
4.74721e-06
4.6236e-06
4.50273e-06
4.38422e-06
4.26762e-06
4.15275e-06
4.04e-06
3.93009e-06
3.82362e-06
3.72057e-06
3.62019e-06
3.52142e-06
3.42351e-06
3.3265e-06
3.23115e-06
3.13838e-06
3.04872e-06
2.96199e-06
2.8775e-06
2.79456e-06
2.71288e-06
2.63255e-06
2.55382e-06
2.47672e-06
2.40106e-06
2.32665e-06
2.25361e-06
2.18243e-06
2.11363e-06
2.04728e-06
1.9827e-06
1.91873e-06
1.85435e-06
1.78934e-06
1.72448e-06
1.66108e-06
1.60012e-06
1.54168e-06
1.48479e-06
1.42808e-06
1.37051e-06
1.31193e-06
1.25296e-06
1.19448e-06
1.13698e-06
1.08043e-06
1.02441e-06
9.68696e-07
9.13393e-07
8.58816e-07
8.05008e-07
7.51419e-07
6.97062e-07
6.4115e-07
5.83796e-07
5.26256e-07
4.70405e-07
4.17668e-07
3.68037e-07
3.19834e-07
2.7047e-07
2.17861e-07
1.61696e-07
1.03784e-07
4.72157e-08
-5.24588e-09
-5.26702e-08
-9.65066e-08
-1.39848e-07
-1.858e-07
-2.35827e-07
-2.88971e-07
-3.42342e-07
-3.92598e-07
-4.37613e-07
-4.77473e-07
-5.14318e-07
-5.51163e-07
-5.90349e-07
-6.32426e-07
-6.7598e-07
-7.18435e-07
-7.57351e-07
-7.91554e-07
-8.21573e-07
-8.49239e-07
-8.76709e-07
-9.05446e-07
-9.35627e-07
-9.66202e-07
-9.95512e-07
-1.0221e-06
-1.04537e-06
-1.06569e-06
-1.08419e-06
-1.10212e-06
-1.12033e-06
-1.13896e-06
-1.15748e-06
-1.17503e-06
-1.19085e-06
-1.20458e-06
-1.21637e-06
-1.22676e-06
-1.23641e-06
-1.24581e-06
-1.25514e-06
-1.26427e-06
-1.27285e-06
-1.28054e-06
-1.28714e-06
-1.29268e-06
-1.29737e-06
-1.30152e-06
-1.30542e-06
-1.30924e-06
-1.313e-06
-1.31658e-06
-1.31986e-06
-1.32269e-06
-1.32503e-06
-1.32691e-06
-1.32845e-06
-1.32979e-06
-1.33105e-06
-1.33231e-06
-1.33359e-06
-1.33485e-06
-1.33605e-06
-1.33714e-06
-1.33809e-06
-1.33891e-06
-1.33961e-06
-1.34025e-06
-1.34086e-06
-1.34149e-06
-1.34214e-06
-1.34282e-06
-1.34351e-06
-1.34421e-06
-1.34489e-06
-1.34555e-06
-1.34618e-06
-1.34679e-06
-1.34739e-06
-1.34798e-06
-1.34858e-06
-1.34918e-06
-1.34979e-06
-1.3504e-06
-1.35102e-06
-1.35163e-06
-1.35224e-06
-1.35284e-06
-1.35343e-06
-1.35402e-06
-1.35461e-06
-1.35519e-06
-1.35577e-06
-1.35635e-06
-1.35693e-06
-1.35751e-06
-1.35809e-06
-1.35866e-06
-1.35924e-06
-1.3598e-06
-1.36037e-06
-1.36093e-06
-1.3615e-06
-1.36204e-06
-1.36261e-06
-1.36315e-06
-1.36371e-06
-1.36425e-06
-1.36481e-06
-1.36533e-06
-1.36589e-06
-1.3664e-06
-1.36697e-06
-1.36747e-06
-1.36804e-06
-1.36852e-06
-1.36909e-06
-1.36956e-06
-1.37014e-06
-1.37058e-06
-1.37119e-06
-1.3716e-06
-1.37222e-06
-1.3726e-06
-1.37325e-06
-1.37359e-06
-1.37428e-06
-1.37456e-06
-1.37532e-06
-1.37552e-06
-1.37635e-06
-1.37647e-06
-1.3774e-06
-1.3774e-06
-1.37846e-06
-1.37832e-06
-1.37955e-06
-1.37922e-06
-1.38068e-06
-1.38011e-06
-1.38187e-06
-1.38098e-06
-1.38313e-06
-1.38184e-06
-1.3845e-06
-1.38269e-06
-1.38602e-06
-1.38354e-06
-1.38772e-06
-1.38438e-06
-1.38968e-06
-1.38524e-06
-1.39197e-06
-1.38613e-06
-1.39469e-06
-1.38707e-06
-1.39795e-06
-1.38814e-06
-1.40186e-06
-1.3894e-06
-1.40647e-06
-1.39102e-06
-1.41157e-06
-1.39327e-06
-1.41628e-06
-1.39658e-06
-1.41778e-06
-1.40164e-06
-1.40724e-06
-1.40913e-06
-1.35218e-06
-1.41692e-06
-1.01903e-06
-1.22803e-06
-1.22803e-06
-0.142153
0.142153
0.101004
0.0539125
0.030256
0.0189178
0.0129271
0.00941255
0.00717961
0.0056767
0.0046202
0.0038512
0.0032747
0.0028312
0.00248202
0.00220135
0.00197153
0.00178023
0.00161868
0.00148054
0.00136111
0.00125688
0.00116517
0.0010839
0.00101143
0.000946462
0.000887925
0.000834957
0.000786839
0.00074297
0.000702843
0.000666028
0.000632157
0.000600912
0.00057202
0.000545241
0.000520367
0.000497215
0.000475624
0.000455452
0.000436572
0.000418872
0.000402252
0.000386622
0.000371902
0.00035802
0.00034491
0.000332514
0.000320778
0.000309654
0.000299099
0.000289072
0.000279536
0.000270458
0.000261808
0.000253558
0.000245681
0.000238154
0.000230956
0.000224065
0.000217465
0.000211137
0.000205065
0.000199235
0.000193633
0.000188246
0.000183063
0.000178072
0.000173264
0.000168629
0.000164157
0.000159842
0.000155675
0.000151648
0.000147755
0.000143989
0.000140345
0.000136817
0.0001334
0.000130089
0.000126878
0.000123764
0.000120743
0.00011781
0.000114961
0.000112194
0.000109505
0.000106891
0.00010435
0.000101878
9.9474e-05
9.71344e-05
9.48568e-05
9.2639e-05
9.04789e-05
8.83745e-05
8.63242e-05
8.43262e-05
8.2379e-05
8.04807e-05
7.86297e-05
7.68242e-05
7.50626e-05
7.33436e-05
7.16657e-05
7.00282e-05
6.84301e-05
6.68706e-05
6.53488e-05
6.38635e-05
6.24137e-05
6.09978e-05
5.96149e-05
5.82639e-05
5.69441e-05
5.56551e-05
5.43964e-05
5.31672e-05
5.19668e-05
5.07944e-05
4.9649e-05
4.85295e-05
4.74352e-05
4.63652e-05
4.53191e-05
4.42967e-05
4.32982e-05
4.23234e-05
4.13719e-05
4.04427e-05
3.95345e-05
3.86461e-05
3.7777e-05
3.69272e-05
3.60966e-05
3.52852e-05
3.44926e-05
3.37181e-05
3.29613e-05
3.22216e-05
3.14987e-05
3.07916e-05
3.00994e-05
2.94211e-05
2.87567e-05
2.81068e-05
2.74725e-05
2.68542e-05
2.62512e-05
2.56616e-05
2.50836e-05
2.45161e-05
2.39592e-05
2.34142e-05
2.28819e-05
2.23624e-05
2.18548e-05
2.1358e-05
2.08714e-05
2.03952e-05
1.99293e-05
1.94735e-05
1.90265e-05
1.85873e-05
1.81558e-05
1.77332e-05
1.73215e-05
1.69219e-05
1.65336e-05
1.61541e-05
1.57807e-05
1.54116e-05
1.50477e-05
1.46913e-05
1.43447e-05
1.40088e-05
1.36827e-05
1.33642e-05
1.30515e-05
1.27439e-05
1.24419e-05
1.21461e-05
1.18563e-05
1.1572e-05
1.12929e-05
1.10195e-05
1.0753e-05
1.04945e-05
1.02434e-05
9.99726e-06
9.75287e-06
9.50791e-06
9.26256e-06
9.01943e-06
8.78201e-06
8.55232e-06
8.32959e-06
8.11057e-06
7.89142e-06
7.6698e-06
7.44591e-06
7.22184e-06
6.99993e-06
6.78125e-06
6.56535e-06
6.35112e-06
6.138e-06
5.92637e-06
5.71686e-06
5.50914e-06
5.30142e-06
5.09116e-06
4.87697e-06
4.66019e-06
4.44493e-06
4.23613e-06
4.03659e-06
3.8448e-06
3.65515e-06
3.46067e-06
3.25701e-06
3.04523e-06
2.83181e-06
2.62546e-06
2.43254e-06
2.2536e-06
2.08292e-06
1.91149e-06
1.73182e-06
1.54195e-06
1.34656e-06
1.15462e-06
9.7485e-07
8.11456e-07
6.6226e-07
5.20148e-07
3.76892e-07
2.27316e-07
7.17009e-08
-8.46358e-08
-2.34183e-07
-3.70929e-07
-4.9305e-07
-6.03395e-07
-7.07736e-07
-8.11829e-07
-9.18787e-07
-1.02795e-06
-1.1356e-06
-1.23702e-06
-1.3287e-06
-1.40985e-06
-1.48236e-06
-1.54974e-06
-1.61537e-06
-1.68111e-06
-1.74673e-06
-1.81034e-06
-1.86949e-06
-1.92233e-06
-1.96832e-06
-2.00836e-06
-2.04422e-06
-2.07774e-06
-2.11014e-06
-2.14167e-06
-2.17174e-06
-2.19937e-06
-2.22369e-06
-2.24438e-06
-2.26173e-06
-2.27654e-06
-2.28973e-06
-2.30208e-06
-2.31395e-06
-2.32531e-06
-2.33581e-06
-2.34506e-06
-2.35277e-06
-2.35889e-06
-2.36365e-06
-2.36742e-06
-2.37064e-06
-2.37363e-06
-2.37658e-06
-2.3795e-06
-2.38229e-06
-2.38481e-06
-2.38692e-06
-2.38859e-06
-2.38985e-06
-2.39082e-06
-2.39162e-06
-2.39239e-06
-2.3932e-06
-2.3941e-06
-2.39507e-06
-2.39607e-06
-2.39706e-06
-2.398e-06
-2.39886e-06
-2.39965e-06
-2.40039e-06
-2.4011e-06
-2.4018e-06
-2.40252e-06
-2.40326e-06
-2.40403e-06
-2.40481e-06
-2.4056e-06
-2.40638e-06
-2.40714e-06
-2.40789e-06
-2.40863e-06
-2.40935e-06
-2.41007e-06
-2.41078e-06
-2.4115e-06
-2.41221e-06
-2.41294e-06
-2.41364e-06
-2.41437e-06
-2.41507e-06
-2.41579e-06
-2.41648e-06
-2.4172e-06
-2.41786e-06
-2.41858e-06
-2.41923e-06
-2.41995e-06
-2.42059e-06
-2.42131e-06
-2.42193e-06
-2.42266e-06
-2.42325e-06
-2.42399e-06
-2.42456e-06
-2.42532e-06
-2.42586e-06
-2.42664e-06
-2.42713e-06
-2.42794e-06
-2.42839e-06
-2.42924e-06
-2.42962e-06
-2.43054e-06
-2.43084e-06
-2.43185e-06
-2.43204e-06
-2.43316e-06
-2.43323e-06
-2.43449e-06
-2.43439e-06
-2.43584e-06
-2.43553e-06
-2.43723e-06
-2.43665e-06
-2.43869e-06
-2.43775e-06
-2.44023e-06
-2.43883e-06
-2.44188e-06
-2.43989e-06
-2.44369e-06
-2.44094e-06
-2.44572e-06
-2.44197e-06
-2.44804e-06
-2.44301e-06
-2.45074e-06
-2.44406e-06
-2.45396e-06
-2.44515e-06
-2.45785e-06
-2.44631e-06
-2.46264e-06
-2.44759e-06
-2.4686e-06
-2.44907e-06
-2.47606e-06
-2.45087e-06
-2.48544e-06
-2.45318e-06
-2.49712e-06
-2.45632e-06
-2.51131e-06
-2.46079e-06
-2.52748e-06
-2.46741e-06
-2.54298e-06
-2.47735e-06
-2.54899e-06
-2.49188e-06
-2.51811e-06
-2.51028e-06
-2.35134e-06
-2.51336e-06
-1.42226e-06
-1.95829e-06
-1.95829e-06
-0.122226
0.122226
0.121663
0.0822674
0.0539943
0.0368635
0.0263927
0.0197158
0.0152651
0.0121796
0.00996788
0.00833611
0.00710114
0.00614474
0.00538839
0.00477872
0.0042787
0.0038622
0.00351043
0.0032097
0.00294983
0.00272317
0.00252386
0.00234735
0.00219004
0.00204906
0.00192211
0.00180726
0.00170297
0.00160791
0.00152097
0.00144122
0.00136786
0.0013002
0.00123763
0.00117965
0.00112579
0.00107567
0.00102892
0.000985255
0.000944384
0.000906069
0.000870092
0.00083626
0.000804399
0.000774351
0.000745976
0.000719146
0.000693747
0.000669673
0.000646829
0.000625129
0.000604493
0.00058485
0.000566132
0.000548279
0.000531236
0.000514951
0.000499377
0.00048447
0.00047019
0.000456501
0.000443367
0.000430756
0.000418639
0.000406988
0.000395779
0.000384986
0.000374589
0.000364566
0.000354899
0.000345569
0.00033656
0.000327855
0.00031944
0.000311302
0.000303426
0.000295802
0.000288417
0.000281262
0.000274326
0.000267599
0.000261071
0.000254735
0.000248583
0.000242607
0.000236801
0.000231157
0.000225671
0.000220336
0.000215146
0.000210096
0.000205181
0.000200395
0.000195734
0.000191194
0.000186771
0.000182461
0.00017826
0.000174166
0.000170174
0.00016628
0.000162482
0.000158776
0.000155159
0.00015163
0.000148186
0.000144826
0.000141547
0.000138347
0.000135223
0.000132173
0.000129194
0.000126284
0.000123442
0.000120667
0.000117957
0.000115311
0.000112727
0.000110203
0.000107737
0.000105328
0.000102973
0.000100671
9.84214e-05
9.62233e-05
9.40766e-05
9.1981e-05
8.99352e-05
8.7937e-05
8.5984e-05
8.40742e-05
8.22065e-05
8.03805e-05
7.85963e-05
7.68534e-05
7.51508e-05
7.34872e-05
7.18616e-05
7.02729e-05
6.872e-05
6.72012e-05
6.57147e-05
6.42589e-05
6.28338e-05
6.14405e-05
6.00806e-05
5.87543e-05
5.74598e-05
5.61938e-05
5.49527e-05
5.37351e-05
5.25413e-05
5.13735e-05
5.02329e-05
4.91192e-05
4.80306e-05
4.69651e-05
4.59218e-05
4.49006e-05
4.39017e-05
4.2924e-05
4.19655e-05
4.10246e-05
4.01012e-05
3.91978e-05
3.83176e-05
3.74619e-05
3.66289e-05
3.5814e-05
3.50122e-05
3.42215e-05
3.34435e-05
3.26825e-05
3.19423e-05
3.1224e-05
3.05251e-05
2.98418e-05
2.91711e-05
2.85119e-05
2.7865e-05
2.72315e-05
2.6611e-05
2.60025e-05
2.54055e-05
2.48208e-05
2.42504e-05
2.36957e-05
2.3155e-05
2.26235e-05
2.20957e-05
2.15681e-05
2.10415e-05
2.0521e-05
2.00122e-05
1.9518e-05
1.90359e-05
1.85598e-05
1.80831e-05
1.76022e-05
1.71182e-05
1.66349e-05
1.61564e-05
1.5684e-05
1.52168e-05
1.47528e-05
1.4291e-05
1.38321e-05
1.33771e-05
1.29249e-05
1.24724e-05
1.20156e-05
1.15528e-05
1.10871e-05
1.06263e-05
1.01785e-05
9.74729e-06
9.32876e-06
8.91247e-06
8.4868e-06
8.04574e-06
7.59303e-06
7.1411e-06
6.70496e-06
6.29422e-06
5.90785e-06
5.53445e-06
5.1583e-06
4.76773e-06
4.36154e-06
3.94977e-06
3.54872e-06
3.17276e-06
2.82739e-06
2.50699e-06
2.19825e-06
1.88727e-06
1.56654e-06
1.23838e-06
9.13294e-07
6.04489e-07
3.21466e-07
6.58786e-08
-1.68557e-07
-3.92437e-07
-6.15385e-07
-8.41767e-07
-1.06928e-06
-1.29078e-06
-1.49804e-06
-1.68567e-06
-1.85322e-06
-2.00481e-06
-2.14689e-06
-2.28514e-06
-2.42224e-06
-2.5572e-06
-2.68637e-06
-2.8055e-06
-2.91171e-06
-3.00462e-06
-3.08626e-06
-3.15998e-06
-3.229e-06
-3.29526e-06
-3.35895e-06
-3.41889e-06
-3.47334e-06
-3.52099e-06
-3.5615e-06
-3.59567e-06
-3.62506e-06
-3.65136e-06
-3.67588e-06
-3.69917e-06
-3.72107e-06
-3.74097e-06
-3.75819e-06
-3.77233e-06
-3.78346e-06
-3.79207e-06
-3.79891e-06
-3.80474e-06
-3.81013e-06
-3.81537e-06
-3.82046e-06
-3.82517e-06
-3.82928e-06
-3.83258e-06
-3.83504e-06
-3.83677e-06
-3.83798e-06
-3.83894e-06
-3.83986e-06
-3.84088e-06
-3.84206e-06
-3.84334e-06
-3.84468e-06
-3.84596e-06
-3.84713e-06
-3.84816e-06
-3.84907e-06
-3.84988e-06
-3.85066e-06
-3.85144e-06
-3.85226e-06
-3.85312e-06
-3.85403e-06
-3.85495e-06
-3.85589e-06
-3.85681e-06
-3.85771e-06
-3.85856e-06
-3.85941e-06
-3.86023e-06
-3.86105e-06
-3.86185e-06
-3.86269e-06
-3.86349e-06
-3.86434e-06
-3.86514e-06
-3.86599e-06
-3.86678e-06
-3.86763e-06
-3.86839e-06
-3.86923e-06
-3.86998e-06
-3.87081e-06
-3.87153e-06
-3.87238e-06
-3.87307e-06
-3.87393e-06
-3.87459e-06
-3.87547e-06
-3.87609e-06
-3.877e-06
-3.87757e-06
-3.87851e-06
-3.87902e-06
-3.88002e-06
-3.88045e-06
-3.88152e-06
-3.88186e-06
-3.88302e-06
-3.88324e-06
-3.88453e-06
-3.88459e-06
-3.88605e-06
-3.88592e-06
-3.88761e-06
-3.88722e-06
-3.8892e-06
-3.8885e-06
-3.89087e-06
-3.88974e-06
-3.89262e-06
-3.89096e-06
-3.89451e-06
-3.89216e-06
-3.89658e-06
-3.89332e-06
-3.8989e-06
-3.89448e-06
-3.90155e-06
-3.89561e-06
-3.90464e-06
-3.89676e-06
-3.90833e-06
-3.89792e-06
-3.91281e-06
-3.89915e-06
-3.91835e-06
-3.90048e-06
-3.92526e-06
-3.90199e-06
-3.934e-06
-3.90379e-06
-3.94513e-06
-3.90605e-06
-3.95934e-06
-3.90901e-06
-3.97746e-06
-3.91306e-06
-4.00035e-06
-3.91883e-06
-4.02851e-06
-3.92729e-06
-4.06113e-06
-3.93993e-06
-4.09346e-06
-3.95867e-06
-4.10952e-06
-3.98464e-06
-4.05959e-06
-4.0119e-06
-3.76861e-06
-3.9845e-06
-2.26713e-06
-2.9397e-06
-2.9397e-06
-0.094278
0.094278
0.121016
0.0969692
0.0717934
0.0531979
0.0402009
0.0311114
0.0246577
0.0199852
0.0165322
0.0139281
0.0119252
0.0103555
0.00910313
0.00808701
0.00724966
0.00654975
0.00595716
0.00544964
0.00501052
0.00462717
0.00428983
0.0039909
0.00372437
0.00348543
0.00327016
0.00307538
0.00289842
0.00273708
0.00258948
0.00245405
0.00232943
0.00221446
0.00210812
0.00200955
0.00191797
0.00183271
0.00175319
0.00167889
0.00160933
0.00154411
0.00148286
0.00142525
0.00137099
0.00131981
0.00127147
0.00122576
0.00118248
0.00114146
0.00110252
0.00106554
0.00103036
0.000996872
0.000964959
0.00093452
0.000905459
0.000877689
0.000851129
0.000825707
0.000801353
0.000778005
0.000755603
0.000734093
0.000713425
0.000693552
0.000674431
0.000656022
0.000638287
0.000621191
0.000604702
0.000588788
0.000573421
0.000558574
0.000544221
0.00053034
0.000516908
0.000503904
0.00049131
0.000479108
0.000467279
0.000455807
0.000444676
0.000433873
0.000423383
0.000413195
0.000403296
0.000393677
0.000384325
0.000375232
0.000366387
0.00035778
0.000349403
0.000341248
0.000333306
0.00032557
0.000318034
0.000310692
0.000303537
0.000296562
0.000289762
0.00028313
0.000276662
0.00027035
0.000264193
0.000258185
0.000252323
0.000246603
0.000241022
0.000235575
0.000230259
0.000225068
0.000219999
0.000215049
0.000210214
0.000205493
0.000200884
0.000196383
0.000191988
0.000187696
0.000183502
0.000179406
0.000175402
0.000171489
0.000167666
0.000163931
0.000160283
0.000156723
0.000153247
0.000149852
0.000146534
0.00014329
0.000140117
0.000137017
0.000133988
0.000131029
0.000128138
0.000125314
0.000122555
0.000119858
0.000117222
0.000114644
0.000112122
0.000109653
0.000107237
0.000104875
0.000102569
0.00010032
9.81244e-05
9.59765e-05
9.38715e-05
9.18072e-05
8.97844e-05
8.78059e-05
8.58735e-05
8.39862e-05
8.21412e-05
8.03353e-05
7.85671e-05
7.68367e-05
7.51438e-05
7.34871e-05
7.18633e-05
7.02701e-05
6.87079e-05
6.718e-05
6.56908e-05
6.42418e-05
6.28299e-05
6.1448e-05
6.00891e-05
5.87505e-05
5.74352e-05
5.61492e-05
5.48981e-05
5.36826e-05
5.24989e-05
5.13409e-05
5.02043e-05
4.90879e-05
4.79929e-05
4.69206e-05
4.58705e-05
4.4841e-05
4.3831e-05
4.28419e-05
4.18762e-05
4.09354e-05
4.00164e-05
3.91121e-05
3.82142e-05
3.73182e-05
3.64257e-05
3.55443e-05
3.46818e-05
3.38415e-05
3.30192e-05
3.22053e-05
3.13903e-05
3.05697e-05
2.97452e-05
2.89231e-05
2.8109e-05
2.73046e-05
2.65081e-05
2.57163e-05
2.49281e-05
2.41444e-05
2.33664e-05
2.25927e-05
2.18188e-05
2.10389e-05
2.02515e-05
1.94618e-05
1.86811e-05
1.79207e-05
1.7185e-05
1.64674e-05
1.57522e-05
1.50232e-05
1.4273e-05
1.35086e-05
1.2749e-05
1.20156e-05
1.13212e-05
1.06625e-05
1.0022e-05
9.37685e-06
8.71163e-06
8.02651e-06
7.33768e-06
6.6693e-06
6.04143e-06
5.46041e-06
4.91653e-06
4.38976e-06
3.86043e-06
3.31912e-06
2.77081e-06
2.23182e-06
1.72131e-06
1.25212e-06
8.25201e-07
4.30257e-07
5.14747e-08
-3.24677e-07
-7.0353e-07
-1.08071e-06
-1.44524e-06
-1.78533e-06
-2.09385e-06
-2.37104e-06
-2.62368e-06
-2.86138e-06
-3.0922e-06
-3.31948e-06
-3.54123e-06
-3.75186e-06
-3.94528e-06
-4.11771e-06
-4.26914e-06
-4.40298e-06
-4.52438e-06
-4.63801e-06
-4.74651e-06
-4.84995e-06
-4.94649e-06
-5.03365e-06
-5.1097e-06
-5.17444e-06
-5.2293e-06
-5.27673e-06
-5.31925e-06
-5.35873e-06
-5.3959e-06
-5.43045e-06
-5.46148e-06
-5.48807e-06
-5.50976e-06
-5.52678e-06
-5.53997e-06
-5.55049e-06
-5.55949e-06
-5.56778e-06
-5.57574e-06
-5.58333e-06
-5.59023e-06
-5.59609e-06
-5.60067e-06
-5.60396e-06
-5.60616e-06
-5.60764e-06
-5.60876e-06
-5.60985e-06
-5.61111e-06
-5.61259e-06
-5.61422e-06
-5.61588e-06
-5.61745e-06
-5.61885e-06
-5.62003e-06
-5.62103e-06
-5.6219e-06
-5.62273e-06
-5.62357e-06
-5.62448e-06
-5.62545e-06
-5.62649e-06
-5.62755e-06
-5.62862e-06
-5.62966e-06
-5.63067e-06
-5.63162e-06
-5.63256e-06
-5.63345e-06
-5.63437e-06
-5.63524e-06
-5.63617e-06
-5.63705e-06
-5.638e-06
-5.63888e-06
-5.63984e-06
-5.6407e-06
-5.64165e-06
-5.64248e-06
-5.64343e-06
-5.64421e-06
-5.64516e-06
-5.64592e-06
-5.64688e-06
-5.6476e-06
-5.64859e-06
-5.64926e-06
-5.65028e-06
-5.65089e-06
-5.65197e-06
-5.65249e-06
-5.65363e-06
-5.65406e-06
-5.65529e-06
-5.6556e-06
-5.65695e-06
-5.6571e-06
-5.65861e-06
-5.65857e-06
-5.6603e-06
-5.66001e-06
-5.66202e-06
-5.66141e-06
-5.66379e-06
-5.66277e-06
-5.66564e-06
-5.6641e-06
-5.66761e-06
-5.66539e-06
-5.66974e-06
-5.66664e-06
-5.67209e-06
-5.66785e-06
-5.67474e-06
-5.66904e-06
-5.67781e-06
-5.67019e-06
-5.68142e-06
-5.67134e-06
-5.68577e-06
-5.67249e-06
-5.69111e-06
-5.67369e-06
-5.69774e-06
-5.67498e-06