# vtk DataFile Version 2.0
FlowField
ASCII
DATASET STRUCTURED_GRID
DIMENSIONS 400 1 50
POINTS 20000 float
0 0 0
0.08 0 0
0.16 0 0
0.24 0 0
0.32 0 0
0.4 0 0
0.48 0 0
0.56 0 0
0.64 0 0
0.72 0 0
0.8 0 0
0.88 0 0
0.96 0 0
1.04 0 0
1.12 0 0
1.2 0 0
1.28 0 0
1.36 0 0
1.44 0 0
1.52 0 0
1.6 0 0
1.68 0 0
1.76 0 0
1.84 0 0
1.92 0 0
2 0 0
2.08 0 0
2.16 0 0
2.24 0 0
2.32 0 0
2.4 0 0
2.48 0 0
2.56 0 0
2.64 0 0
2.72 0 0
2.8 0 0
2.88 0 0
2.96 0 0
3.04 0 0
3.12 0 0
3.2 0 0
3.28 0 0
3.36 0 0
3.44 0 0
3.52 0 0
3.6 0 0
3.68 0 0
3.76 0 0
3.84 0 0
3.92 0 0
4 0 0
4.08 0 0
4.16 0 0
4.24 0 0
4.32 0 0
4.4 0 0
4.48 0 0
4.56 0 0
4.64 0 0
4.72 0 0
4.8 0 0
4.88 0 0
4.96 0 0
5.04 0 0
5.12 0 0
5.2 0 0
5.28 0 0
5.36 0 0
5.44 0 0
5.52 0 0
5.6 0 0
5.68 0 0
5.76 0 0
5.84 0 0
5.92 0 0
6 0 0
6.08 0 0
6.16 0 0
6.24 0 0
6.32 0 0
6.4 0 0
6.48 0 0
6.56 0 0
6.64 0 0
6.72 0 0
6.8 0 0
6.88 0 0
6.96 0 0
7.04 0 0
7.12 0 0
7.2 0 0
7.28 0 0
7.36 0 0
7.44 0 0
7.52 0 0
7.6 0 0
7.68 0 0
7.76 0 0
7.84 0 0
7.92 0 0
8 0 0
8.08 0 0
8.16 0 0
8.24 0 0
8.32 0 0
8.4 0 0
8.48 0 0
8.56 0 0
8.64 0 0
8.72 0 0
8.8 0 0
8.88 0 0
8.96 0 0
9.04 0 0
9.12 0 0
9.2 0 0
9.28 0 0
9.36 0 0
9.44 0 0
9.52 0 0
9.6 0 0
9.68 0 0
9.76 0 0
9.84 0 0
9.92 0 0
10 0 0
10.08 0 0
10.16 0 0
10.24 0 0
10.32 0 0
10.4 0 0
10.48 0 0
10.56 0 0
10.64 0 0
10.72 0 0
10.8 0 0
10.88 0 0
10.96 0 0
11.04 0 0
11.12 0 0
11.2 0 0
11.28 0 0
11.36 0 0
11.44 0 0
11.52 0 0
11.6 0 0
11.68 0 0
11.76 0 0
11.84 0 0
11.92 0 0
12 0 0
12.08 0 0
12.16 0 0
12.24 0 0
12.32 0 0
12.4 0 0
12.48 0 0
12.56 0 0
12.64 0 0
12.72 0 0
12.8 0 0
12.88 0 0
12.96 0 0
13.04 0 0
13.12 0 0
13.2 0 0
13.28 0 0
13.36 0 0
13.44 0 0
13.52 0 0
13.6 0 0
13.68 0 0
13.76 0 0
13.84 0 0
13.92 0 0
14 0 0
14.08 0 0
14.16 0 0
14.24 0 0
14.32 0 0
14.4 0 0
14.48 0 0
14.56 0 0
14.64 0 0
14.72 0 0
14.8 0 0
14.88 0 0
14.96 0 0
15.04 0 0
15.12 0 0
15.2 0 0
15.28 0 0
15.36 0 0
15.44 0 0
15.52 0 0
15.6 0 0
15.68 0 0
15.76 0 0
15.84 0 0
15.92 0 0
16 0 0
16.08 0 0
16.16 0 0
16.24 0 0
16.32 0 0
16.4 0 0
16.48 0 0
16.56 0 0
16.64 0 0
16.72 0 0
16.8 0 0
16.88 0 0
16.96 0 0
17.04 0 0
17.12 0 0
17.2 0 0
17.28 0 0
17.36 0 0
17.44 0 0
17.52 0 0
17.6 0 0
17.68 0 0
17.76 0 0
17.84 0 0
17.92 0 0
18 0 0
18.08 0 0
18.16 0 0
18.24 0 0
18.32 0 0
18.4 0 0
18.48 0 0
18.56 0 0
18.64 0 0
18.72 0 0
18.8 0 0
18.88 0 0
18.96 0 0
19.04 0 0
19.12 0 0
19.2 0 0
19.28 0 0
19.36 0 0
19.44 0 0
19.52 0 0
19.6 0 0
19.68 0 0
19.76 0 0
19.84 0 0
19.92 0 0
20 0 0
20.08 0 0
20.16 0 0
20.24 0 0
20.32 0 0
20.4 0 0
20.48 0 0
20.56 0 0
20.64 0 0
20.72 0 0
20.8 0 0
20.88 0 0
20.96 0 0
21.04 0 0
21.12 0 0
21.2 0 0
21.28 0 0
21.36 0 0
21.44 0 0
21.52 0 0
21.6 0 0
21.68 0 0
21.76 0 0
21.84 0 0
21.92 0 0
22 0 0
22.08 0 0
22.16 0 0
22.24 0 0
22.32 0 0
22.4 0 0
22.48 0 0
22.56 0 0
22.64 0 0
22.72 0 0
22.8 0 0
22.88 0 0
22.96 0 0
23.04 0 0
23.12 0 0
23.2 0 0
23.28 0 0
23.36 0 0
23.44 0 0
23.52 0 0
23.6 0 0
23.68 0 0
23.76 0 0
23.84 0 0
23.92 0 0
24 0 0
24.08 0 0
24.16 0 0
24.24 0 0
24.32 0 0
24.4 0 0
24.48 0 0
24.56 0 0
24.64 0 0
24.72 0 0
24.8 0 0
24.88 0 0
24.96 0 0
25.04 0 0
25.12 0 0
25.2 0 0
25.28 0 0
25.36 0 0
25.44 0 0
25.52 0 0
25.6 0 0
25.68 0 0
25.76 0 0
25.84 0 0
25.92 0 0
26 0 0
26.08 0 0
26.16 0 0
26.24 0 0
26.32 0 0
26.4 0 0
26.48 0 0
26.56 0 0
26.64 0 0
26.72 0 0
26.8 0 0
26.88 0 0
26.96 0 0
27.04 0 0
27.12 0 0
27.2 0 0
27.28 0 0
27.36 0 0
27.44 0 0
27.52 0 0
27.6 0 0
27.68 0 0
27.76 0 0
27.84 0 0
27.92 0 0
28 0 0
28.08 0 0
28.16 0 0
28.24 0 0
28.32 0 0
28.4 0 0
28.48 0 0
28.56 0 0
28.64 0 0
28.72 0 0
28.8 0 0
28.88 0 0
28.96 0 0
29.04 0 0
29.12 0 0
29.2 0 0
29.28 0 0
29.36 0 0
29.44 0 0
29.52 0 0
29.6 0 0
29.68 0 0
29.76 0 0
29.84 0 0
29.92 0 0
30 0 0
30.08 0 0
30.16 0 0
30.24 0 0
30.32 0 0
30.4 0 0
30.48 0 0
30.56 0 0
30.64 0 0
30.72 0 0
30.8 0 0
30.88 0 0
30.96 0 0
31.04 0 0
31.12 0 0
31.2 0 0
31.28 0 0
31.36 0 0
31.44 0 0
31.52 0 0
31.6 0 0
31.68 0 0
31.76 0 0
31.84 0 0
31.92 0 0
0 0.02 0
0.08 0.02 0
0.16 0.02 0
0.24 0.02 0
0.32 0.02 0
0.4 0.02 0
0.48 0.02 0
0.56 0.02 0
0.64 0.02 0
0.72 0.02 0
0.8 0.02 0
0.88 0.02 0
0.96 0.02 0
1.04 0.02 0
1.12 0.02 0
1.2 0.02 0
1.28 0.02 0
1.36 0.02 0
1.44 0.02 0
1.52 0.02 0
1.6 0.02 0
1.68 0.02 0
1.76 0.02 0
1.84 0.02 0
1.92 0.02 0
2 0.02 0
2.08 0.02 0
2.16 0.02 0
2.24 0.02 0
2.32 0.02 0
2.4 0.02 0
2.48 0.02 0
2.56 0.02 0
2.64 0.02 0
2.72 0.02 0
2.8 0.02 0
2.88 0.02 0
2.96 0.02 0
3.04 0.02 0
3.12 0.02 0
3.2 0.02 0
3.28 0.02 0
3.36 0.02 0
3.44 0.02 0
3.52 0.02 0
3.6 0.02 0
3.68 0.02 0
3.76 0.02 0
3.84 0.02 0
3.92 0.02 0
4 0.02 0
4.08 0.02 0
4.16 0.02 0
4.24 0.02 0
4.32 0.02 0
4.4 0.02 0
4.48 0.02 0
4.56 0.02 0
4.64 0.02 0
4.72 0.02 0
4.8 0.02 0
4.88 0.02 0
4.96 0.02 0
5.04 0.02 0
5.12 0.02 0
5.2 0.02 0
5.28 0.02 0
5.36 0.02 0
5.44 0.02 0
5.52 0.02 0
5.6 0.02 0
5.68 0.02 0
5.76 0.02 0
5.84 0.02 0
5.92 0.02 0
6 0.02 0
6.08 0.02 0
6.16 0.02 0
6.24 0.02 0
6.32 0.02 0
6.4 0.02 0
6.48 0.02 0
6.56 0.02 0
6.64 0.02 0
6.72 0.02 0
6.8 0.02 0
6.88 0.02 0
6.96 0.02 0
7.04 0.02 0
7.12 0.02 0
7.2 0.02 0
7.28 0.02 0
7.36 0.02 0
7.44 0.02 0
7.52 0.02 0
7.6 0.02 0
7.68 0.02 0
7.76 0.02 0
7.84 0.02 0
7.92 0.02 0
8 0.02 0
8.08 0.02 0
8.16 0.02 0
8.24 0.02 0
8.32 0.02 0
8.4 0.02 0
8.48 0.02 0
8.56 0.02 0
8.64 0.02 0
8.72 0.02 0
8.8 0.02 0
8.88 0.02 0
8.96 0.02 0
9.04 0.02 0
9.12 0.02 0
9.2 0.02 0
9.28 0.02 0
9.36 0.02 0
9.44 0.02 0
9.52 0.02 0
9.6 0.02 0
9.68 0.02 0
9.76 0.02 0
9.84 0.02 0
9.92 0.02 0
10 0.02 0
10.08 0.02 0
10.16 0.02 0
10.24 0.02 0
10.32 0.02 0
10.4 0.02 0
10.48 0.02 0
10.56 0.02 0
10.64 0.02 0
10.72 0.02 0
10.8 0.02 0
10.88 0.02 0
10.96 0.02 0
11.04 0.02 0
11.12 0.02 0
11.2 0.02 0
11.28 0.02 0
11.36 0.02 0
11.44 0.02 0
11.52 0.02 0
11.6 0.02 0
11.68 0.02 0
11.76 0.02 0
11.84 0.02 0
11.92 0.02 0
12 0.02 0
12.08 0.02 0
12.16 0.02 0
12.24 0.02 0
12.32 0.02 0
12.4 0.02 0
12.48 0.02 0
12.56 0.02 0
12.64 0.02 0
12.72 0.02 0
12.8 0.02 0
12.88 0.02 0
12.96 0.02 0
13.04 0.02 0
13.12 0.02 0
13.2 0.02 0
13.28 0.02 0
13.36 0.02 0
13.44 0.02 0
13.52 0.02 0
13.6 0.02 0
13.68 0.02 0
13.76 0.02 0
13.84 0.02 0
13.92 0.02 0
14 0.02 0
14.08 0.02 0
14.16 0.02 0
14.24 0.02 0
14.32 0.02 0
14.4 0.02 0
14.48 0.02 0
14.56 0.02 0
14.64 0.02 0
14.72 0.02 0
14.8 0.02 0
14.88 0.02 0
14.96 0.02 0
15.04 0.02 0
15.12 0.02 0
15.2 0.02 0
15.28 0.02 0
15.36 0.02 0
15.44 0.02 0
15.52 0.02 0
15.6 0.02 0
15.68 0.02 0
15.76 0.02 0
15.84 0.02 0
15.92 0.02 0
16 0.02 0
16.08 0.02 0
16.16 0.02 0
16.24 0.02 0
16.32 0.02 0
16.4 0.02 0
16.48 0.02 0
16.56 0.02 0
16.64 0.02 0
16.72 0.02 0
16.8 0.02 0
16.88 0.02 0
16.96 0.02 0
17.04 0.02 0
17.12 0.02 0
17.2 0.02 0
17.28 0.02 0
17.36 0.02 0
17.44 0.02 0
17.52 0.02 0
17.6 0.02 0
17.68 0.02 0
17.76 0.02 0
17.84 0.02 0
17.92 0.02 0
18 0.02 0
18.08 0.02 0
18.16 0.02 0
18.24 0.02 0
18.32 0.02 0
18.4 0.02 0
18.48 0.02 0
18.56 0.02 0
18.64 0.02 0
18.72 0.02 0
18.8 0.02 0
18.88 0.02 0
18.96 0.02 0
19.04 0.02 0
19.12 0.02 0
19.2 0.02 0
19.28 0.02 0
19.36 0.02 0
19.44 0.02 0
19.52 0.02 0
19.6 0.02 0
19.68 0.02 0
19.76 0.02 0
19.84 0.02 0
19.92 0.02 0
20 0.02 0
20.08 0.02 0
20.16 0.02 0
20.24 0.02 0
20.32 0.02 0
20.4 0.02 0
20.48 0.02 0
20.56 0.02 0
20.64 0.02 0
20.72 0.02 0
20.8 0.02 0
20.88 0.02 0
20.96 0.02 0
21.04 0.02 0
21.12 0.02 0
21.2 0.02 0
21.28 0.02 0
21.36 0.02 0
21.44 0.02 0
21.52 0.02 0
21.6 0.02 0
21.68 0.02 0
21.76 0.02 0
21.84 0.02 0
21.92 0.02 0
22 0.02 0
22.08 0.02 0
22.16 0.02 0
22.24 0.02 0
22.32 0.02 0
22.4 0.02 0
22.48 0.02 0
22.56 0.02 0
22.64 0.02 0
22.72 0.02 0
22.8 0.02 0
22.88 0.02 0
22.96 0.02 0
23.04 0.02 0
23.12 0.02 0
23.2 0.02 0
23.28 0.02 0
23.36 0.02 0
23.44 0.02 0
23.52 0.02 0
23.6 0.02 0
23.68 0.02 0
23.76 0.02 0
23.84 0.02 0
23.92 0.02 0
24 0.02 0
24.08 0.02 0
24.16 0.02 0
24.24 0.02 0
24.32 0.02 0
24.4 0.02 0
24.48 0.02 0
24.56 0.02 0
24.64 0.02 0
24.72 0.02 0
24.8 0.02 0
24.88 0.02 0
24.96 0.02 0
25.04 0.02 0
25.12 0.02 0
25.2 0.02 0
25.28 0.02 0
25.36 0.02 0
25.44 0.02 0
25.52 0.02 0
25.6 0.02 0
25.68 0.02 0
25.76 0.02 0
25.84 0.02 0
25.92 0.02 0
26 0.02 0
26.08 0.02 0
26.16 0.02 0
26.24 0.02 0
26.32 0.02 0
26.4 0.02 0
26.48 0.02 0
26.56 0.02 0
26.64 0.02 0
26.72 0.02 0
26.8 0.02 0
26.88 0.02 0
26.96 0.02 0
27.04 0.02 0
27.12 0.02 0
27.2 0.02 0
27.28 0.02 0
27.36 0.02 0
27.44 0.02 0
27.52 0.02 0
27.6 0.02 0
27.68 0.02 0
27.76 0.02 0
27.84 0.02 0
27.92 0.02 0
28 0.02 0
28.08 0.02 0
28.16 0.02 0
28.24 0.02 0
28.32 0.02 0
28.4 0.02 0
28.48 0.02 0
28.56 0.02 0
28.64 0.02 0
28.72 0.02 0
28.8 0.02 0
28.88 0.02 0
28.96 0.02 0
29.04 0.02 0
29.12 0.02 0
29.2 0.02 0
29.28 0.02 0
29.36 0.02 0
29.44 0.02 0
29.52 0.02 0
29.6 0.02 0
29.68 0.02 0
29.76 0.02 0
29.84 0.02 0
29.92 0.02 0
30 0.02 0
30.08 0.02 0
30.16 0.02 0
30.24 0.02 0
30.32 0.02 0
30.4 0.02 0
30.48 0.02 0
30.56 0.02 0
30.64 0.02 0
30.72 0.02 0
30.8 0.02 0
30.88 0.02 0
30.96 0.02 0
31.04 0.02 0
31.12 0.02 0
31.2 0.02 0
31.28 0.02 0
31.36 0.02 0
31.44 0.02 0
31.52 0.02 0
31.6 0.02 0
31.68 0.02 0
31.76 0.02 0
31.84 0.02 0
31.92 0.02 0
0 0.04 0
0.08 0.04 0
0.16 0.04 0
0.24 0.04 0
0.32 0.04 0
0.4 0.04 0
0.48 0.04 0
0.56 0.04 0
0.64 0.04 0
0.72 0.04 0
0.8 0.04 0
0.88 0.04 0
0.96 0.04 0
1.04 0.04 0
1.12 0.04 0
1.2 0.04 0
1.28 0.04 0
1.36 0.04 0
1.44 0.04 0
1.52 0.04 0
1.6 0.04 0
1.68 0.04 0
1.76 0.04 0
1.84 0.04 0
1.92 0.04 0
2 0.04 0
2.08 0.04 0
2.16 0.04 0
2.24 0.04 0
2.32 0.04 0
2.4 0.04 0
2.48 0.04 0
2.56 0.04 0
2.64 0.04 0
2.72 0.04 0
2.8 0.04 0
2.88 0.04 0
2.96 0.04 0
3.04 0.04 0
3.12 0.04 0
3.2 0.04 0
3.28 0.04 0
3.36 0.04 0
3.44 0.04 0
3.52 0.04 0
3.6 0.04 0
3.68 0.04 0
3.76 0.04 0
3.84 0.04 0
3.92 0.04 0
4 0.04 0
4.08 0.04 0
4.16 0.04 0
4.24 0.04 0
4.32 0.04 0
4.4 0.04 0
4.48 0.04 0
4.56 0.04 0
4.64 0.04 0
4.72 0.04 0
4.8 0.04 0
4.88 0.04 0
4.96 0.04 0
5.04 0.04 0
5.12 0.04 0
5.2 0.04 0
5.28 0.04 0
5.36 0.04 0
5.44 0.04 0
5.52 0.04 0
5.6 0.04 0
5.68 0.04 0
5.76 0.04 0
5.84 0.04 0
5.92 0.04 0
6 0.04 0
6.08 0.04 0
6.16 0.04 0
6.24 0.04 0
6.32 0.04 0
6.4 0.04 0
6.48 0.04 0
6.56 0.04 0
6.64 0.04 0
6.72 0.04 0
6.8 0.04 0
6.88 0.04 0
6.96 0.04 0
7.04 0.04 0
7.12 0.04 0
7.2 0.04 0
7.28 0.04 0
7.36 0.04 0
7.44 0.04 0
7.52 0.04 0
7.6 0.04 0
7.68 0.04 0
7.76 0.04 0
7.84 0.04 0
[...]
POINT_DATA 20000

SCALARS v float 1
LOOKUP_TABLE default
0
0
0
0
0
0
0
0
0
0
0
0
0
0
0
0
0
0
0
0
0
0
0
0
0
0
0
0
0
0
0
0
0
0
0
0
0
0
0
0
0
0
0
0
0
0
0
0
0
0
0
0
0
0
0
0
0
0
0
0
0
0
0
0
0
0
0
0
0
0
0
0
0
0
0
0
0
0
0
0
0
0
0
0
0
0
0
0
0
0
0
0
0
0
0
0
0
0
0
0
0
0
0
0
0
0
0
0
0
0
0
0
0
0
0
0
0
0
0
0
0
0
0
0
0
0
0
0
0
0
0
0
0
0
0
0
0
0
0
0
0
0
0
0
0
0
0
0
0
0
0
0
0
0
0
0
0
0
0
0
0
0
0
0
0
0
0
0
0
0
0
0
0
0
0
0
0
0
0
0
0
0
0
0
0
0
0
0
0
0
0
0
0
0
0
0
0
0
0
0
0
0
0
0
0
0
0
0
0
0
0
0
0
0
0
0
0
0
0
0
0
0
0
0
0
0
0
0
0
0
0
0
0
0
0
0
0
0
0
0
0
0
0
0
0
0
0
0
0
0
0
0
0
0
0
0
0
0
0
0
0
0
0
0
0
0
0
0
0
0
0
0
0
0
0
0
0
0
0
0
0
0
0
0
0
0
0
0
0
0
0
0
0
0
0
0
0
0
0
0
0
0
0
0
0
0
0
0
0
0
0
0
0
0
0
0
0
0
0
0
0
0
0
0
0
0
0
0
0
0
0
0
0
0
0
0
0
0
0
0
0
0
0
0
0
0
0
0
0
0
0
0
0
0
0
0
0
0
0
0
0
0
0
0
0
0
0
0
0
0
0
0
0
0
0
0
0
0
0
0
0
0
0
0
0
0
0
0
0
0
0
0
0
0
0
0
0
0
0
0
-0.123226
0.123226
0.0537913
0.0194384
0.00878248
0.00508904
0.00338706
0.0024366
0.00184677
0.00145555
0.00118329
0.000986487
0.000839623
0.000726929
0.000638291
0.000567024
0.000508599
0.000459881
0.000418654
0.000383319
0.000352705
0.00032593
0.000302327
0.000281374
0.000262662
0.000245862
0.000230709
0.000216984
0.000204504
0.000193117
0.000182695
0.000173127
0.00016432
0.000156192
0.000148672
0.0001417
0.000135222
0.00012919
0.000123564
0.000118305
0.000113383
0.000108767
0.000104431
0.000100353
9.65124e-05
9.28892e-05
8.94671e-05
8.62308e-05
8.31663e-05
8.02612e-05
7.75041e-05
7.48845e-05
7.2393e-05
7.00209e-05
6.77602e-05
6.56035e-05
6.35443e-05
6.15762e-05
5.96936e-05
5.78913e-05
5.61645e-05
5.45087e-05
5.292e-05
5.13943e-05
4.99282e-05
4.85182e-05
4.71614e-05
4.58548e-05
4.45958e-05
4.33819e-05
4.22109e-05
4.10806e-05
3.9989e-05
3.8934e-05
3.7914e-05
3.69271e-05
3.59717e-05
3.50465e-05
3.415e-05
3.32812e-05
3.24387e-05
3.16217e-05
3.08289e-05
3.00594e-05
2.93121e-05
2.8586e-05
2.78804e-05
2.71943e-05
2.65272e-05
2.58783e-05
2.52471e-05
2.46329e-05
2.4035e-05
2.34528e-05
2.28855e-05
2.23327e-05
2.17938e-05
2.12683e-05
2.0756e-05
2.02566e-05
1.97698e-05
1.92952e-05
1.88325e-05
1.83811e-05
1.79405e-05
1.75105e-05
1.70906e-05
1.66806e-05
1.62805e-05
1.58901e-05
1.55091e-05
1.51373e-05
1.47743e-05
1.44197e-05
1.40731e-05
1.37343e-05
1.34031e-05
1.30793e-05
1.27631e-05
1.24544e-05
1.21533e-05
1.18595e-05
1.15727e-05
1.12923e-05
1.1018e-05
1.07496e-05
1.04871e-05
1.02308e-05
9.98053e-06
9.73625e-06
9.49768e-06
9.26462e-06
9.03688e-06
8.81424e-06
8.59639e-06
8.38298e-06
8.17377e-06
7.96887e-06
7.76867e-06
7.57362e-06
7.38382e-06
7.19886e-06
7.01792e-06
6.84024e-06
6.6655e-06
6.494e-06
6.32633e-06
6.16288e-06
6.00362e-06
5.8481e-06
5.69585e-06
5.54666e-06
5.4006e-06
5.2577e-06
5.11775e-06
4.98029e-06
4.845e-06
4.71201e-06
4.58203e-06
4.45587e-06
4.33384e-06
4.21539e-06
4.09929e-06
3.98437e-06
3.87024e-06
3.75752e-06
3.64741e-06
3.54092e-06
3.43825e-06
3.33872e-06
3.24132e-06
3.14531e-06
3.0506e-06
2.9575e-06
2.86632e-06
2.77708e-06
2.6896e-06
2.60385e-06
2.52018e-06
2.43919e-06
2.36117e-06
2.28565e-06
2.21141e-06
2.1371e-06
2.06205e-06
1.98678e-06
1.91278e-06
1.84156e-06
1.7737e-06
1.70846e-06
1.64412e-06
1.57904e-06
1.5125e-06
1.44496e-06
1.37755e-06
1.31129e-06
1.24647e-06
1.18273e-06
1.11957e-06
1.05677e-06
9.94503e-07
9.32901e-07
8.71582e-07
8.09586e-07
7.45914e-07
6.80378e-07
6.14105e-07
5.4922e-07
4.87718e-07
4.30156e-07
3.75021e-07
3.19296e-07
2.6005e-07
1.96167e-07
1.29203e-07
6.27634e-08
6.66885e-10
-5.51234e-08
-1.05634e-07
-1.54417e-07
-2.05698e-07
-2.62141e-07
-3.23424e-07
-3.86391e-07
-4.46673e-07
-5.00905e-07
-5.4836e-07
-5.91185e-07
-6.33187e-07
-6.77841e-07
-7.26584e-07
-7.78209e-07
-8.29596e-07
-8.77312e-07
-9.19249e-07
-9.55487e-07
-9.88056e-07
-1.01981e-06
-1.05301e-06
-1.08838e-06
-1.1249e-06
-1.1605e-06
-1.19311e-06
-1.22156e-06
-1.24604e-06
-1.26784e-06
-1.28864e-06
-1.30975e-06
-1.33161e-06
-1.35373e-06
-1.37503e-06
-1.3944e-06
-1.41121e-06
-1.42547e-06
-1.43779e-06
-1.449e-06
-1.45984e-06
-1.47065e-06
-1.48132e-06
-1.49146e-06
-1.50057e-06
-1.50833e-06
-1.5147e-06
-1.51989e-06
-1.5243e-06
-1.52833e-06
-1.53223e-06
-1.53608e-06
-1.53978e-06
-1.54314e-06
-1.54596e-06
-1.54816e-06
-1.54975e-06
-1.55085e-06
-1.55165e-06
-1.55231e-06
-1.55296e-06
-1.55365e-06
-1.55434e-06
-1.55498e-06
-1.5555e-06
-1.55585e-06
-1.55601e-06
-1.55603e-06
-1.55594e-06
-1.5558e-06
-1.55567e-06
-1.55558e-06
-1.55552e-06
-1.5555e-06
-1.55549e-06
-1.55547e-06
-1.55543e-06
-1.55536e-06
-1.55526e-06
-1.55514e-06
-1.55502e-06
-1.55491e-06
-1.5548e-06
-1.55471e-06
-1.55463e-06
-1.55456e-06
-1.55449e-06
-1.55442e-06
-1.55435e-06
-1.55427e-06
-1.55419e-06
-1.55411e-06
-1.55403e-06
-1.55396e-06
-1.55388e-06
-1.55381e-06
-1.55374e-06
-1.55368e-06
-1.55361e-06
-1.55355e-06
-1.55349e-06
-1.55344e-06
-1.55337e-06
-1.55332e-06
-1.55326e-06
-1.55321e-06
-1.55316e-06
-1.55311e-06
-1.55306e-06
-1.55302e-06
-1.55297e-06
-1.55293e-06
-1.55288e-06
-1.55286e-06
-1.55281e-06
-1.55279e-06
-1.55274e-06
-1.55273e-06
-1.55267e-06
-1.55268e-06
-1.55262e-06
-1.55263e-06
-1.55257e-06
-1.5526e-06
-1.55253e-06
-1.55258e-06
-1.5525e-06
-1.55257e-06
-1.55247e-06
-1.55257e-06
-1.55245e-06
-1.55259e-06
-1.55244e-06
-1.55263e-06
-1.55244e-06
-1.55268e-06
-1.55244e-06
-1.55276e-06
-1.55245e-06
-1.55286e-06
-1.55246e-06
-1.553e-06
-1.55248e-06
-1.55318e-06
-1.55251e-06
-1.55342e-06
-1.55254e-06
-1.55372e-06
-1.55257e-06
-1.55411e-06
-1.55261e-06
-1.55461e-06
-1.55265e-06
-1.55525e-06
-1.5527e-06
-1.55608e-06
-1.55275e-06
-1.55715e-06
-1.55282e-06
-1.55852e-06
-1.55291e-06
-1.5603e-06
-1.55305e-06
-1.56257e-06
-1.55327e-06
-1.56545e-06
-1.55362e-06
-1.56907e-06
-1.55421e-06
-1.57348e-06
-1.55515e-06
-1.5785e-06
-1.55666e-06
-1.58327e-06
-1.55905e-06
-1.58475e-06
-1.56298e-06
-1.57277e-06
-1.57012e-06
-1.50837e-06
-1.58233e-06
-1.1099e-06
-1.36929e-06
-1.36929e-06
-0.142152
0.142152
0.101004
0.0539121
0.0302556
0.0189174
0.0129267
0.00941215
0.00717921
0.00567629
0.0046198
0.00385079
0.00327429
0.00283078
0.0024816
0.00220093
0.0019711
0.0017798
0.00161825
0.00148011
0.00136067
0.00125644
0.00116473
0.00108346
0.001011
0.000946023
0.000887486
0.000834517
0.000786398
0.000742528
0.000702401
0.000665585
0.000631713
0.000600468
0.000571574
0.000544794
0.000519919
0.000496766
0.000475174
0.000455
0.000436118
0.000418417
0.000401796
0.000386165
0.000371445
0.000357562
0.000344451
0.000332055
0.000320318
0.000309194
0.000298637
0.000288609
0.000279072
0.000269994
0.000261343
0.000253091
0.000245213
0.000237685
0.000230485
0.000223592
0.00021699
0.00021066
0.000204587
0.000198755
0.000193152
0.000187764
0.00018258
0.000177588
0.000172779
0.000168143
0.000163671
0.000159354
0.000155186
0.000151158
0.000147264
0.000143497
0.000139852
0.000136321
0.000132901
0.000129587
0.000126374
0.000123258
0.000120235
0.000117301
0.000114452
0.000111684
0.000108995
0.000106381
0.000103839
0.000101367
9.89619e-05
9.6622e-05
9.43445e-05
9.21269e-05
8.99666e-05
8.78616e-05
8.58101e-05
8.38104e-05
8.18613e-05
7.99616e-05
7.81098e-05
7.63046e-05
7.45443e-05
7.28272e-05
7.11516e-05
6.95162e-05
6.79199e-05
6.63619e-05
6.48415e-05
6.33579e-05
6.19102e-05
6.04971e-05
5.91174e-05
5.77698e-05
5.64531e-05
5.51663e-05
5.39089e-05
5.26804e-05
5.14808e-05
5.031e-05
4.91678e-05
4.80529e-05
4.69641e-05
4.58998e-05
4.48589e-05
4.38411e-05
4.28465e-05
4.18751e-05
4.09268e-05
4.00009e-05
3.90965e-05
3.8213e-05
3.73494e-05
3.65051e-05
3.56791e-05
3.48704e-05
3.40785e-05
3.33037e-05
3.25472e-05
3.18098e-05
3.10913e-05
3.039e-05
2.97034e-05
2.90296e-05
2.83682e-05
2.77201e-05
2.70868e-05
2.64691e-05
2.58665e-05
2.52776e-05
2.47009e-05
2.4136e-05
2.3583e-05
2.30418e-05
2.25115e-05
2.19911e-05
2.14798e-05
2.09785e-05
2.04892e-05
2.00136e-05
1.95519e-05
1.91019e-05
1.86601e-05
1.82235e-05
1.7792e-05
1.73678e-05
1.69543e-05
1.65537e-05
1.61658e-05
1.57881e-05
1.54179e-05
1.50534e-05
1.46947e-05
1.43426e-05
1.39979e-05
1.36607e-05
1.33303e-05
1.30069e-05
1.26915e-05
1.23854e-05
1.20887e-05
1.17993e-05
1.15136e-05
1.12282e-05
1.09421e-05
1.06576e-05
1.03789e-05
1.01095e-05
9.85e-06
9.5971e-06
9.3458e-06
9.09197e-06
8.83447e-06
8.57525e-06
8.31761e-06
8.06397e-06
7.81468e-06
7.56847e-06
7.3239e-06
7.08051e-06
6.83863e-06
6.59826e-06
6.35798e-06
6.11519e-06
5.86789e-06
5.61673e-06
5.36577e-06
5.12094e-06
4.88664e-06
4.66264e-06
4.44327e-06
4.21999e-06
3.98606e-06
3.74075e-06
3.49047e-06
3.24592e-06
3.0165e-06
2.80519e-06
2.60668e-06
2.41002e-06
2.20436e-06
1.98477e-06
1.75491e-06
1.52526e-06
1.30774e-06
1.10982e-06
9.30946e-07
7.63265e-07
5.95904e-07
4.2059e-07
2.35651e-07
4.65315e-08
-1.37201e-07
-3.06639e-07
-4.57643e-07
-5.9235e-07
-7.176e-07
-8.41318e-07
-9.68753e-07
-1.10036e-06
-1.2321e-06
-1.35781e-06
-1.47221e-06
-1.5732e-06
-1.66246e-06
-1.74424e-06
-1.82327e-06
-1.90261e-06
-1.98269e-06
-2.06146e-06
-2.13569e-06
-2.20259e-06
-2.26092e-06
-2.31136e-06
-2.35601e-06
-2.39733e-06
-2.43715e-06
-2.4761e-06
-2.51362e-06
-2.54844e-06
-2.5793e-06
-2.60555e-06
-2.62737e-06
-2.64564e-06
-2.66158e-06
-2.67628e-06
-2.69037e-06
-2.70391e-06
-2.71653e-06
-2.72767e-06
-2.73691e-06
-2.74408e-06
-2.7494e-06
-2.7533e-06
-2.75636e-06
-2.75905e-06
-2.76167e-06
-2.76429e-06
-2.76681e-06
-2.76904e-06
-2.7708e-06
-2.772e-06
-2.77264e-06
-2.77285e-06
-2.77279e-06
-2.77264e-06
-2.77252e-06
-2.77251e-06
-2.77261e-06
-2.77277e-06
-2.77295e-06
-2.77308e-06
-2.77313e-06
-2.77309e-06
-2.77298e-06
-2.77282e-06
-2.77266e-06
-2.77251e-06
-2.77239e-06
-2.77232e-06
-2.77227e-06
-2.77224e-06
-2.77221e-06
-2.77217e-06
-2.77212e-06
-2.77206e-06
-2.77199e-06
-2.77191e-06
-2.77183e-06
-2.77176e-06
-2.77169e-06
-2.77163e-06
-2.77157e-06
-2.77153e-06
-2.77148e-06
-2.77144e-06
-2.77139e-06
-2.77135e-06
-2.7713e-06
-2.77127e-06
-2.77121e-06
-2.77119e-06
-2.77113e-06
-2.77112e-06
-2.77107e-06
-2.77106e-06
-2.77101e-06
-2.77101e-06
-2.77095e-06
-2.77097e-06
-2.77091e-06
-2.77095e-06
-2.77087e-06
-2.77093e-06
-2.77084e-06
-2.77092e-06
-2.77082e-06
-2.77093e-06
-2.7708e-06
-2.77096e-06
-2.77079e-06
-2.771e-06
-2.77079e-06
-2.77106e-06
-2.77079e-06
-2.77115e-06
-2.7708e-06
-2.77127e-06
-2.77082e-06
-2.77143e-06
-2.77084e-06
-2.77163e-06
-2.77086e-06
-2.77189e-06
-2.77089e-06
-2.77223e-06
-2.77093e-06
-2.77266e-06
-2.77096e-06
-2.77321e-06
-2.771e-06
-2.77392e-06
-2.77104e-06
-2.77484e-06
-2.77109e-06
-2.77602e-06
-2.77114e-06
-2.77757e-06
-2.77121e-06
-2.77957e-06
-2.7713e-06
-2.78219e-06
-2.77142e-06
-2.7856e-06
-2.77162e-06
-2.79004e-06
-2.77194e-06
-2.79581e-06
-2.77247e-06
-2.80327e-06
-2.77334e-06
-2.81284e-06
-2.77476e-06
-2.82495e-06
-2.77706e-06
-2.83984e-06
-2.78066e-06
-2.8571e-06
-2.78615e-06
-2.8741e-06
-2.79429e-06
-2.88139e-06
-2.80619e-06
-2.84738e-06
-2.82353e-06
-2.65313e-06
-2.83653e-06
-1.54429e-06
-2.20739e-06
-2.20739e-06
-0.122226
0.122226
0.121663
0.082267
0.0539939
0.0368631
0.0263922
0.0197154
0.0152646
0.0121792
0.00996745
0.00833567
0.00710069
0.00614428
0.00538793
0.00477825
0.00427823
0.00386172
0.00350995
0.00320921
0.00294934
0.00272268
0.00252337
0.00234685
0.00218954
0.00204857
0.00192161
0.00180676
0.00170247
0.0016074
0.00152046
0.00144071
0.00136735
0.00129968
0.00123712
0.00117913
0.00112527
0.00107514
0.0010284
0.000984723
0.000943848
0.00090553
0.000869551
0.000835717
0.000803854
0.000773805
0.000745428
0.000718597
0.000693195
0.000669119
0.000646273
0.00062457
0.000603932
0.000584285
0.000565565
0.000547709
0.000530662
0.000514373
0.000498794
0.000483883
0.000469599
0.000455906
0.000442768
0.000430154
0.000418034
0.00040638
0.000395168
0.000384372
0.000373972
0.000363947
0.000354276
0.000344944
0.000335931
0.000327224
0.000318805
0.000310663
0.000302782
0.000295152
0.000287762
0.0002806
0.000273658
0.000266926
0.000260396
0.000254057
0.000247903
0.000241925
0.000236117
0.000230471
0.000224983
0.000219645
0.000214453
0.000209402
0.000204485
0.000199698
0.000195035
0.000190492
0.000186066
0.000181752
0.000177548
0.00017345
0.000169456
0.000165563
0.000161766
0.000158063
0.00015445
0.000150925
0.000147483
0.000144125
0.000140849
0.000137651
0.000134531
0.000131486
0.000128513
0.000125609
0.000122772
0.000120001
0.000117293
0.000114649
0.000112067
0.000109547
0.000107088
0.000104688
0.000102344
0.000100053
9.78133e-05
9.56237e-05
9.34845e-05
9.13955e-05
8.93561e-05
8.73647e-05
8.54196e-05
8.35191e-05
8.16618e-05
7.98461e-05
7.807e-05
7.63319e-05
7.46308e-05
7.29676e-05
7.13437e-05
6.97604e-05
6.82165e-05
6.67085e-05
6.52322e-05
6.37842e-05
6.23639e-05
6.09734e-05
5.96149e-05
5.82894e-05
5.69955e-05
5.57304e-05
5.44918e-05
5.32787e-05
5.20912e-05
5.09289e-05
4.97903e-05
4.86734e-05
4.75773e-05
4.65037e-05
4.54559e-05
4.44366e-05
4.34453e-05
4.24774e-05
4.15267e-05
4.0589e-05
3.96642e-05
3.87569e-05
3.78728e-05
3.70152e-05
3.61828e-05
3.53711e-05
3.45751e-05
3.37919e-05
3.3022e-05
3.22671e-05
3.15283e-05
3.08054e-05
3.00975e-05
2.94048e-05
2.8729e-05
2.80719e-05
2.74327e-05
2.68073e-05
2.61891e-05
2.55727e-05
2.49573e-05
2.43473e-05
2.375e-05
2.31709e-05
2.26093e-05
2.20588e-05
2.15105e-05
2.09576e-05
2.0399e-05
1.98388e-05
1.92826e-05
1.87344e-05
1.81942e-05
1.76594e-05
1.71276e-05
1.65979e-05
1.60708e-05
1.55461e-05
1.50211e-05
1.44916e-05
1.39548e-05
1.34131e-05
1.28742e-05
1.23481e-05
1.18414e-05
1.13519e-05
1.08686e-05
1.0377e-05
9.86682e-06
9.33924e-06
8.80724e-06
8.2897e-06
7.80151e-06
7.34536e-06
6.90982e-06
6.47515e-06
6.02379e-06
5.54975e-06
5.06212e-06
4.58048e-06
4.12509e-06
3.70683e-06
3.32226e-06
2.95607e-06
2.58942e-06
2.20958e-06
1.81604e-06
1.42026e-06
1.0395e-06
6.88377e-07
3.72231e-07
8.54528e-08
-1.84899e-07
-4.52408e-07
-7.24993e-07
-1.00188e-06
-1.27494e-06
-1.53317e-06
-1.7681e-06
-1.97729e-06
-2.16482e-06
-2.33874e-06
-2.50717e-06
-2.67483e-06
-2.84159e-06
-3.00331e-06
-3.15425e-06
-3.28987e-06
-3.40869e-06
-3.51257e-06
-3.60555e-06
-3.69203e-06
-3.77498e-06
-3.85518e-06
-3.93137e-06
-4.00128e-06
-4.06288e-06
-4.11533e-06
-4.15929e-06
-4.1966e-06
-4.2295e-06
-4.25986e-06
-4.28868e-06
-4.31594e-06
-4.34092e-06
-4.36268e-06
-4.38058e-06
-4.3945e-06
-4.40496e-06
-4.41287e-06
-4.41926e-06
-4.42497e-06
-4.43048e-06
-4.43585e-06
-4.44087e-06
-4.44522e-06
-4.44859e-06
-4.45086e-06
-4.45213e-06
-4.45263e-06
-4.45269e-06
-4.45261e-06
-4.45263e-06
-4.45284e-06
-4.45323e-06
-4.45371e-06
-4.45419e-06
-4.45455e-06
-4.45476e-06
-4.4548e-06
-4.45471e-06
-4.45456e-06
-4.4544e-06
-4.45428e-06
-4.45423e-06
-4.45423e-06
-4.45429e-06
-4.45437e-06
-4.45444e-06
-4.4545e-06
-4.45453e-06
-4.45454e-06
-4.45452e-06
-4.4545e-06
-4.45446e-06
-4.45445e-06
-4.45444e-06
-4.45445e-06
-4.45446e-06
-4.45449e-06
-4.4545e-06
-4.45454e-06
-4.45455e-06
-4.45458e-06
-4.45458e-06
-4.45462e-06
-4.45461e-06
-4.45465e-06
-4.45464e-06
-4.4547e-06
-4.45469e-06
-4.45477e-06
-4.45474e-06
-4.45484e-06
-4.4548e-06
-4.45492e-06
-4.45486e-06
-4.45501e-06
-4.45493e-06
-4.45511e-06
-4.455e-06
-4.45522e-06
-4.45507e-06
-4.45535e-06
-4.45514e-06
-4.4555e-06
-4.45522e-06
-4.45568e-06
-4.4553e-06
-4.45588e-06
-4.45539e-06
-4.45613e-06
-4.45547e-06
-4.45642e-06
-4.45555e-06
-4.45678e-06
-4.45563e-06
-4.45722e-06
-4.45571e-06
-4.45776e-06
-4.45578e-06
-4.45843e-06
-4.45585e-06
-4.45929e-06
-4.45592e-06
-4.46038e-06
-4.45599e-06
-4.46177e-06
-4.45605e-06
-4.46357e-06
-4.45612e-06
-4.4659e-06
-4.4562e-06
-4.46893e-06
-4.45631e-06
-4.47288e-06
-4.45646e-06
-4.47805e-06
-4.4567e-06
-4.48481e-06
-4.4571e-06
-4.49363e-06
-4.45777e-06
-4.50514e-06
-4.45888e-06
-4.52006e-06
-4.46073e-06
-4.53929e-06
-4.46373e-06
-4.56372e-06
-4.4685e-06
-4.59402e-06
-4.47584e-06
-4.62959e-06
-4.48676e-06
-4.6658e-06
-4.50236e-06
-4.6854e-06
-4.52356e-06
-4.63071e-06
-4.54852e-06
-4.29099e-06
-4.5337e-06
-2.50367e-06
-3.34591e-06
-3.34591e-06
-0.0942778
0.0942778
0.121015
0.0969688
0.071793
0.0531975
0.0402005
0.031111
0.0246573
0.0199848
0.0165318
0.0139276
0.0119248
0.0103551
0.00910266
0.00808652
0.00724916
0.00654924
0.00595665
0.00544912
0.00501
0.00462664
0.0042893
0.00399037
0.00372384
0.00348489
0.00326962
0.00307483
0.00289787
0.00273653
0.00258893
0.0024535
0.00232888
0.0022139
0.00210755
0.00200897
0.00191739
0.00183213
0.0017526
0.00167829
0.00160873
0.0015435
0.00148225
0.00142463
0.00137037
0.00131919
0.00127085
0.00122513
0.00118185
0.00114082
0.00110188
0.00106489
0.00102971
0.000996215
0.000964297
0.000933851
0.000904783
0.000877006
0.000850439
0.000825009
0.000800648
0.000777293
0.000754885
0.000733369
0.000712696
0.000692818
0.000673692
0.000655278
0.000637537
0.000620435
0.000603939
0.000588019
0.000572646
0.000557792
0.000543432
0.000529543
0.000516102
0.000503088
0.000490484
0.000478271
0.000466433
0.000454953
0.000443816
0.000433008
0.000422515
0.000412323
0.00040242
0.000392795
0.000383438
0.00037434
0.00036549
0.000356879
0.000348499
0.00034034
0.000332394
0.000324653
0.00031711
0.000309761
0.000302599
0.000295619
0.000288817
0.000282186
0.00027572
0.000269413
0.000263261
0.000257257
0.000251398
0.000245682
0.000240104
0.000234661
0.00022935
0.000224167
0.000219106
0.000214164
0.000209337
0.000204622
0.000200017
0.000195519
0.000191129
0.000186844
0.000182663
0.000178582
0.000174596
0.0001707
0.000166893
0.000163171
0.000159536
0.000155987
0.000152522
0.000149138
0.000145833
0.000142604
0.000139448
0.000136364
0.000133347
0.000130396
0.000127509
0.000124687
0.000121932
0.000119246
0.000116625
0.000114064
0.000111558
0.0001091
0.000106691
0.000104333
0.00010203
9.97826e-05
9.75879e-05
9.54416e-05
9.33403e-05
9.12826e-05
8.92684e-05
8.72972e-05
8.53667e-05
8.34738e-05
8.16174e-05
7.97999e-05
7.80259e-05
7.6299e-05
7.46177e-05
7.29749e-05
7.13616e-05
6.97717e-05
6.82062e-05
6.66717e-05
6.51765e-05
6.37248e-05
6.2314e-05
6.09369e-05
5.95862e-05
5.82582e-05
5.69536e-05
5.5675e-05
5.44242e-05
5.32004e-05
5.20021e-05
5.08296e-05
4.9685e-05
4.85702e-05
4.74839e-05
4.64195e-05
4.53671e-05
4.43192e-05
4.32751e-05
4.22419e-05
4.12299e-05
4.0246e-05
3.92884e-05
3.83468e-05
3.7408e-05
3.64627e-05
3.551e-05
3.45562e-05
3.36099e-05
3.26762e-05
3.17547e-05
3.08411e-05
2.99317e-05
2.90254e-05
2.81229e-05
2.72238e-05
2.63244e-05
2.54187e-05
2.45036e-05
2.3583e-05
2.26686e-05
2.17749e-05
2.09101e-05
2.007e-05
1.9238e-05
1.83932e-05
1.75223e-05
1.66289e-05
1.57333e-05
1.4863e-05
1.40381e-05
1.32606e-05
1.2512e-05
1.17633e-05
1.09904e-05
1.01871e-05
9.36874e-06
8.5649e-06
7.80436e-06
7.10102e-06
6.44771e-06
5.82093e-06
5.19358e-06
4.54886e-06
3.88824e-06
3.23003e-06
2.59976e-06
2.01766e-06
1.48973e-06
1.00612e-06
5.47178e-07
9.349e-08
-3.65249e-07
-8.2649e-07
-1.27744e-06
-1.70205e-06
-2.08877e-06
-2.43526e-06
-2.74852e-06
-3.0408e-06
-3.32373e-06
-3.60354e-06
-3.87929e-06
-4.14442e-06
-4.39055e-06
-4.61153e-06
-4.80586e-06
-4.9769e-06
-5.13095e-06
-5.27443e-06
-5.41149e-06
-5.54294e-06
-5.66675e-06
-5.7796e-06
-5.87874e-06
-5.9633e-06
-6.0346e-06
-6.09556e-06
-6.14959e-06
-6.19939e-06
-6.24628e-06
-6.29015e-06
-6.32991e-06
-6.36427e-06
-6.39239e-06
-6.41433e-06
-6.43098e-06
-6.44381e-06
-6.45435e-06
-6.46381e-06
-6.47286e-06
-6.48153e-06
-6.4895e-06
-6.49628e-06
-6.50147e-06
-6.50497e-06
-6.50695e-06
-6.50782e-06
-6.50807e-06
-6.50817e-06
-6.50842e-06
-6.50895e-06
-6.50973e-06
-6.51063e-06
-6.51147e-06
-6.51213e-06
-6.51253e-06
-6.51269e-06
-6.51267e-06
-6.51256e-06
-6.51245e-06
-6.51241e-06
-6.51247e-06
-6.51262e-06
-6.51283e-06
-6.51307e-06
-6.5133e-06
-6.51349e-06
-6.51364e-06
-6.51376e-06
-6.51383e-06
-6.5139e-06
-6.51396e-06
-6.51405e-06
-6.51413e-06
-6.51425e-06
-6.51436e-06
-6.5145e-06
-6.51461e-06
-6.51476e-06
-6.51486e-06
-6.515e-06
-6.51508e-06
-6.51522e-06
-6.51529e-06
-6.51544e-06
-6.5155e-06
-6.51567e-06
-6.51571e-06
-6.51591e-06
-6.51594e-06
-6.51615e-06
-6.51615e-06
-6.5164e-06
-6.51637e-06
-6.51666e-06
-6.51658e-06
-6.51692e-06
-6.51679e-06
-6.5172e-06
-6.51699e-06
-6.51749e-06
-6.51719e-06
-6.51781e-06
-6.51738e-06
-6.51815e-06
-6.51757e-06
-6.51854e-06
-6.51774e-06
-6.51898e-06
-6.51791e-06
-6.51949e-06
-6.51807e-06
-6.52009e-06
-6.51821e-06
-6.52081e-06
-6.51834e-06
-6.52169e-06
-6.51845e-06
-6.52278e-06
-6.51854e-06
-6.52415e-06
-6.51861e-06
-6.52589e-06
-6.51867e-06
-6.52812e-06
-6.51872e-06
-6.53099e-06
-6.51875e-06
-6.53472e-06
-6.51879e-06
-6.53959e-06
-6.51885e-06
-6.54595e-06
-6.51896e-06
-6.55428e-06