# vtk DataFile Version 2.0
FlowField
ASCII
DATASET STRUCTURED_GRID
DIMENSIONS 400 1 50
POINTS 20000 float
0 0 0
0.08 0 0
0.16 0 0
0.24 0 0
0.32 0 0
0.4 0 0
0.48 0 0
0.56 0 0
0.64 0 0
0.72 0 0
0.8 0 0
0.88 0 0
0.96 0 0
1.04 0 0
1.12 0 0
1.2 0 0
1.28 0 0
1.36 0 0
1.44 0 0
1.52 0 0
1.6 0 0
1.68 0 0
1.76 0 0
1.84 0 0
1.92 0 0
2 0 0
2.08 0 0
2.16 0 0
2.24 0 0
2.32 0 0
2.4 0 0
2.48 0 0
2.56 0 0
2.64 0 0
2.72 0 0
2.8 0 0
2.88 0 0
2.96 0 0
3.04 0 0
3.12 0 0
3.2 0 0
3.28 0 0
3.36 0 0
3.44 0 0
3.52 0 0
3.6 0 0
3.68 0 0
3.76 0 0
3.84 0 0
3.92 0 0
4 0 0
4.08 0 0
4.16 0 0
4.24 0 0
4.32 0 0
4.4 0 0
4.48 0 0
4.56 0 0
4.64 0 0
4.72 0 0
4.8 0 0
4.88 0 0
4.96 0 0
5.04 0 0
5.12 0 0
5.2 0 0
5.28 0 0
5.36 0 0
5.44 0 0
5.52 0 0
5.6 0 0
5.68 0 0
5.76 0 0
5.84 0 0
5.92 0 0
6 0 0
6.08 0 0
6.16 0 0
6.24 0 0
6.32 0 0
6.4 0 0
6.48 0 0
6.56 0 0
6.64 0 0
6.72 0 0
6.8 0 0
6.88 0 0
6.96 0 0
7.04 0 0
7.12 0 0
7.2 0 0
7.28 0 0
7.36 0 0
7.44 0 0
7.52 0 0
7.6 0 0
7.68 0 0
7.76 0 0
7.84 0 0
7.92 0 0
8 0 0
8.08 0 0
8.16 0 0
8.24 0 0
8.32 0 0
8.4 0 0
8.48 0 0
8.56 0 0
8.64 0 0
8.72 0 0
8.8 0 0
8.88 0 0
8.96 0 0
9.04 0 0
9.12 0 0
9.2 0 0
9.28 0 0
9.36 0 0
9.44 0 0
9.52 0 0
9.6 0 0
9.68 0 0
9.76 0 0
9.84 0 0
9.92 0 0
10 0 0
10.08 0 0
10.16 0 0
10.24 0 0
10.32 0 0
10.4 0 0
10.48 0 0
10.56 0 0
10.64 0 0
10.72 0 0
10.8 0 0
10.88 0 0
10.96 0 0
11.04 0 0
11.12 0 0
11.2 0 0
11.28 0 0
11.36 0 0
11.44 0 0
11.52 0 0
11.6 0 0
11.68 0 0
11.76 0 0
11.84 0 0
11.92 0 0
12 0 0
12.08 0 0
12.16 0 0
12.24 0 0
12.32 0 0
12.4 0 0
12.48 0 0
12.56 0 0
12.64 0 0
12.72 0 0
12.8 0 0
12.88 0 0
12.96 0 0
13.04 0 0
13.12 0 0
13.2 0 0
13.28 0 0
13.36 0 0
13.44 0 0
13.52 0 0
13.6 0 0
13.68 0 0
13.76 0 0
13.84 0 0
13.92 0 0
14 0 0
14.08 0 0
14.16 0 0
14.24 0 0
14.32 0 0
14.4 0 0
14.48 0 0
14.56 0 0
14.64 0 0
14.72 0 0
14.8 0 0
14.88 0 0
14.96 0 0
15.04 0 0
15.12 0 0
15.2 0 0
15.28 0 0
15.36 0 0
15.44 0 0
15.52 0 0
15.6 0 0
15.68 0 0
15.76 0 0
15.84 0 0
15.92 0 0
16 0 0
16.08 0 0
16.16 0 0
16.24 0 0
16.32 0 0
16.4 0 0
16.48 0 0
16.56 0 0
16.64 0 0
16.72 0 0
16.8 0 0
16.88 0 0
16.96 0 0
17.04 0 0
17.12 0 0
17.2 0 0
17.28 0 0
17.36 0 0
17.44 0 0
17.52 0 0
17.6 0 0
17.68 0 0
17.76 0 0
17.84 0 0
17.92 0 0
18 0 0
18.08 0 0
18.16 0 0
18.24 0 0
18.32 0 0
18.4 0 0
18.48 0 0
18.56 0 0
18.64 0 0
18.72 0 0
18.8 0 0
18.88 0 0
18.96 0 0
19.04 0 0
19.12 0 0
19.2 0 0
19.28 0 0
19.36 0 0
19.44 0 0
19.52 0 0
19.6 0 0
19.68 0 0
19.76 0 0
19.84 0 0
19.92 0 0
20 0 0
20.08 0 0
20.16 0 0
20.24 0 0
20.32 0 0
20.4 0 0
20.48 0 0
20.56 0 0
20.64 0 0
20.72 0 0
20.8 0 0
20.88 0 0
20.96 0 0
21.04 0 0
21.12 0 0
21.2 0 0
21.28 0 0
21.36 0 0
21.44 0 0
21.52 0 0
21.6 0 0
21.68 0 0
21.76 0 0
21.84 0 0
21.92 0 0
22 0 0
22.08 0 0
22.16 0 0
22.24 0 0
22.32 0 0
22.4 0 0
22.48 0 0
22.56 0 0
22.64 0 0
22.72 0 0
22.8 0 0
22.88 0 0
22.96 0 0
23.04 0 0
23.12 0 0
23.2 0 0
23.28 0 0
23.36 0 0
23.44 0 0
23.52 0 0
23.6 0 0
23.68 0 0
23.76 0 0
23.84 0 0
23.92 0 0
24 0 0
24.08 0 0
24.16 0 0
24.24 0 0
24.32 0 0
24.4 0 0
24.48 0 0
24.56 0 0
24.64 0 0
24.72 0 0
24.8 0 0
24.88 0 0
24.96 0 0
25.04 0 0
25.12 0 0
25.2 0 0
25.28 0 0
25.36 0 0
25.44 0 0
25.52 0 0
25.6 0 0
25.68 0 0
25.76 0 0
25.84 0 0
25.92 0 0
26 0 0
26.08 0 0
26.16 0 0
26.24 0 0
26.32 0 0
26.4 0 0
26.48 0 0
26.56 0 0
26.64 0 0
26.72 0 0
26.8 0 0
26.88 0 0
26.96 0 0
27.04 0 0
27.12 0 0
27.2 0 0
27.28 0 0
27.36 0 0
27.44 0 0
27.52 0 0
27.6 0 0
27.68 0 0
27.76 0 0
27.84 0 0
27.92 0 0
28 0 0
28.08 0 0
28.16 0 0
28.24 0 0
28.32 0 0
28.4 0 0
28.48 0 0
28.56 0 0
28.64 0 0
28.72 0 0
28.8 0 0
28.88 0 0
28.96 0 0
29.04 0 0
29.12 0 0
29.2 0 0
29.28 0 0
29.36 0 0
29.44 0 0
29.52 0 0
29.6 0 0
29.68 0 0
29.76 0 0
29.84 0 0
29.92 0 0
30 0 0
30.08 0 0
30.16 0 0
30.24 0 0
30.32 0 0
30.4 0 0
30.48 0 0
30.56 0 0
30.64 0 0
30.72 0 0
30.8 0 0
30.88 0 0
30.96 0 0
31.04 0 0
31.12 0 0
31.2 0 0
31.28 0 0
31.36 0 0
31.44 0 0
31.52 0 0
31.6 0 0
31.68 0 0
31.76 0 0
31.84 0 0
31.92 0 0
0 0.02 0
0.08 0.02 0
0.16 0.02 0
0.24 0.02 0
0.32 0.02 0
0.4 0.02 0
0.48 0.02 0
0.56 0.02 0
0.64 0.02 0
0.72 0.02 0
0.8 0.02 0
0.88 0.02 0
0.96 0.02 0
1.04 0.02 0
1.12 0.02 0
1.2 0.02 0
1.28 0.02 0
1.36 0.02 0
1.44 0.02 0
1.52 0.02 0
1.6 0.02 0
1.68 0.02 0
1.76 0.02 0
1.84 0.02 0
1.92 0.02 0
2 0.02 0
2.08 0.02 0
2.16 0.02 0
2.24 0.02 0
2.32 0.02 0
2.4 0.02 0
2.48 0.02 0
2.56 0.02 0
2.64 0.02 0
2.72 0.02 0
2.8 0.02 0
2.88 0.02 0
2.96 0.02 0
3.04 0.02 0
3.12 0.02 0
3.2 0.02 0
3.28 0.02 0
3.36 0.02 0
3.44 0.02 0
3.52 0.02 0
3.6 0.02 0
3.68 0.02 0
3.76 0.02 0
3.84 0.02 0
3.92 0.02 0
4 0.02 0
4.08 0.02 0
4.16 0.02 0
4.24 0.02 0
4.32 0.02 0
4.4 0.02 0
4.48 0.02 0
4.56 0.02 0
4.64 0.02 0
4.72 0.02 0
4.8 0.02 0
4.88 0.02 0
4.96 0.02 0
5.04 0.02 0
5.12 0.02 0
5.2 0.02 0
5.28 0.02 0
5.36 0.02 0
5.44 0.02 0
5.52 0.02 0
5.6 0.02 0
5.68 0.02 0
5.76 0.02 0
5.84 0.02 0
5.92 0.02 0
6 0.02 0
6.08 0.02 0
6.16 0.02 0
6.24 0.02 0
6.32 0.02 0
6.4 0.02 0
6.48 0.02 0
6.56 0.02 0
6.64 0.02 0
6.72 0.02 0
6.8 0.02 0
6.88 0.02 0
6.96 0.02 0
7.04 0.02 0
7.12 0.02 0
7.2 0.02 0
7.28 0.02 0
7.36 0.02 0
7.44 0.02 0
7.52 0.02 0
7.6 0.02 0
7.68 0.02 0
7.76 0.02 0
7.84 0.02 0
7.92 0.02 0
8 0.02 0
8.08 0.02 0
8.16 0.02 0
8.24 0.02 0
8.32 0.02 0
8.4 0.02 0
8.48 0.02 0
8.56 0.02 0
8.64 0.02 0
8.72 0.02 0
8.8 0.02 0
8.88 0.02 0
8.96 0.02 0
9.04 0.02 0
9.12 0.02 0
9.2 0.02 0
9.28 0.02 0
9.36 0.02 0
9.44 0.02 0
9.52 0.02 0
9.6 0.02 0
9.68 0.02 0
9.76 0.02 0
9.84 0.02 0
9.92 0.02 0
10 0.02 0
10.08 0.02 0
10.16 0.02 0
10.24 0.02 0
10.32 0.02 0
10.4 0.02 0
10.48 0.02 0
10.56 0.02 0
10.64 0.02 0
10.72 0.02 0
10.8 0.02 0
10.88 0.02 0
10.96 0.02 0
11.04 0.02 0
11.12 0.02 0
11.2 0.02 0
11.28 0.02 0
11.36 0.02 0
11.44 0.02 0
11.52 0.02 0
11.6 0.02 0
11.68 0.02 0
11.76 0.02 0
11.84 0.02 0
11.92 0.02 0
12 0.02 0
12.08 0.02 0
12.16 0.02 0
12.24 0.02 0
12.32 0.02 0
12.4 0.02 0
12.48 0.02 0
12.56 0.02 0
12.64 0.02 0
12.72 0.02 0
12.8 0.02 0
12.88 0.02 0
12.96 0.02 0
13.04 0.02 0
13.12 0.02 0
13.2 0.02 0
13.28 0.02 0
13.36 0.02 0
13.44 0.02 0
13.52 0.02 0
13.6 0.02 0
13.68 0.02 0
13.76 0.02 0
13.84 0.02 0
13.92 0.02 0
14 0.02 0
14.08 0.02 0
14.16 0.02 0
14.24 0.02 0
14.32 0.02 0
14.4 0.02 0
14.48 0.02 0
14.56 0.02 0
14.64 0.02 0
14.72 0.02 0
14.8 0.02 0
14.88 0.02 0
14.96 0.02 0
15.04 0.02 0
15.12 0.02 0
15.2 0.02 0
15.28 0.02 0
15.36 0.02 0
15.44 0.02 0
15.52 0.02 0
15.6 0.02 0
15.68 0.02 0
15.76 0.02 0
15.84 0.02 0
15.92 0.02 0
16 0.02 0
16.08 0.02 0
16.16 0.02 0
16.24 0.02 0
16.32 0.02 0
16.4 0.02 0
16.48 0.02 0
16.56 0.02 0
16.64 0.02 0
16.72 0.02 0
16.8 0.02 0
16.88 0.02 0
16.96 0.02 0
17.04 0.02 0
17.12 0.02 0
17.2 0.02 0
17.28 0.02 0
17.36 0.02 0
17.44 0.02 0
17.52 0.02 0
17.6 0.02 0
17.68 0.02 0
17.76 0.02 0
17.84 0.02 0
17.92 0.02 0
18 0.02 0
18.08 0.02 0
18.16 0.02 0
18.24 0.02 0
18.32 0.02 0
18.4 0.02 0
18.48 0.02 0
18.56 0.02 0
18.64 0.02 0
18.72 0.02 0
18.8 0.02 0
18.88 0.02 0
18.96 0.02 0
19.04 0.02 0
19.12 0.02 0
19.2 0.02 0
19.28 0.02 0
19.36 0.02 0
19.44 0.02 0
19.52 0.02 0
19.6 0.02 0
19.68 0.02 0
19.76 0.02 0
19.84 0.02 0
19.92 0.02 0
20 0.02 0
20.08 0.02 0
20.16 0.02 0
20.24 0.02 0
20.32 0.02 0
20.4 0.02 0
20.48 0.02 0
20.56 0.02 0
20.64 0.02 0
20.72 0.02 0
20.8 0.02 0
20.88 0.02 0
20.96 0.02 0
21.04 0.02 0
21.12 0.02 0
21.2 0.02 0
21.28 0.02 0
21.36 0.02 0
21.44 0.02 0
21.52 0.02 0
21.6 0.02 0
21.68 0.02 0
21.76 0.02 0
21.84 0.02 0
21.92 0.02 0
22 0.02 0
22.08 0.02 0
22.16 0.02 0
22.24 0.02 0
22.32 0.02 0
22.4 0.02 0
22.48 0.02 0
22.56 0.02 0
22.64 0.02 0
22.72 0.02 0
22.8 0.02 0
22.88 0.02 0
22.96 0.02 0
23.04 0.02 0
23.12 0.02 0
23.2 0.02 0
23.28 0.02 0
23.36 0.02 0
23.44 0.02 0
23.52 0.02 0
23.6 0.02 0
23.68 0.02 0
23.76 0.02 0
23.84 0.02 0
23.92 0.02 0
24 0.02 0
24.08 0.02 0
24.16 0.02 0
24.24 0.02 0
24.32 0.02 0
24.4 0.02 0
24.48 0.02 0
24.56 0.02 0
24.64 0.02 0
24.72 0.02 0
24.8 0.02 0
24.88 0.02 0
24.96 0.02 0
25.04 0.02 0
25.12 0.02 0
25.2 0.02 0
25.28 0.02 0
25.36 0.02 0
25.44 0.02 0
25.52 0.02 0
25.6 0.02 0
25.68 0.02 0
25.76 0.02 0
25.84 0.02 0
25.92 0.02 0
26 0.02 0
26.08 0.02 0
26.16 0.02 0
26.24 0.02 0
26.32 0.02 0
26.4 0.02 0
26.48 0.02 0
26.56 0.02 0
26.64 0.02 0
26.72 0.02 0
26.8 0.02 0
26.88 0.02 0
26.96 0.02 0
27.04 0.02 0
27.12 0.02 0
27.2 0.02 0
27.28 0.02 0
27.36 0.02 0
27.44 0.02 0
27.52 0.02 0
27.6 0.02 0
27.68 0.02 0
27.76 0.02 0
27.84 0.02 0
27.92 0.02 0
28 0.02 0
28.08 0.02 0
28.16 0.02 0
28.24 0.02 0
28.32 0.02 0
28.4 0.02 0
28.48 0.02 0
28.56 0.02 0
28.64 0.02 0
28.72 0.02 0
28.8 0.02 0
28.88 0.02 0
28.96 0.02 0
29.04 0.02 0
29.12 0.02 0
29.2 0.02 0
29.28 0.02 0
29.36 0.02 0
29.44 0.02 0
29.52 0.02 0
29.6 0.02 0
29.68 0.02 0
29.76 0.02 0
29.84 0.02 0
29.92 0.02 0
30 0.02 0
30.08 0.02 0
30.16 0.02 0
30.24 0.02 0
30.32 0.02 0
30.4 0.02 0
30.48 0.02 0
30.56 0.02 0
30.64 0.02 0
30.72 0.02 0
30.8 0.02 0
30.88 0.02 0
30.96 0.02 0
31.04 0.02 0
31.12 0.02 0
31.2 0.02 0
31.28 0.02 0
31.36 0.02 0
31.44 0.02 0
31.52 0.02 0
31.6 0.02 0
31.68 0.02 0
31.76 0.02 0
31.84 0.02 0
31.92 0.02 0
0 0.04 0
0.08 0.04 0
0.16 0.04 0
0.24 0.04 0
0.32 0.04 0
0.4 0.04 0
0.48 0.04 0
0.56 0.04 0
0.64 0.04 0
0.72 0.04 0
0.8 0.04 0
0.88 0.04 0
0.96 0.04 0
1.04 0.04 0
1.12 0.04 0
1.2 0.04 0
1.28 0.04 0
1.36 0.04 0
1.44 0.04 0
1.52 0.04 0
1.6 0.04 0
1.68 0.04 0
1.76 0.04 0
1.84 0.04 0
1.92 0.04 0
2 0.04 0
2.08 0.04 0
2.16 0.04 0
2.24 0.04 0
2.32 0.04 0
2.4 0.04 0
2.48 0.04 0
2.56 0.04 0
2.64 0.04 0
2.72 0.04 0
2.8 0.04 0
2.88 0.04 0
2.96 0.04 0
3.04 0.04 0
3.12 0.04 0
3.2 0.04 0
3.28 0.04 0
3.36 0.04 0
3.44 0.04 0
3.52 0.04 0
3.6 0.04 0
3.68 0.04 0
3.76 0.04 0
3.84 0.04 0
3.92 0.04 0
4 0.04 0
4.08 0.04 0
4.16 0.04 0
4.24 0.04 0
4.32 0.04 0
4.4 0.04 0
4.48 0.04 0
4.56 0.04 0
4.64 0.04 0
4.72 0.04 0
4.8 0.04 0
4.88 0.04 0
4.96 0.04 0
5.04 0.04 0
5.12 0.04 0
5.2 0.04 0
5.28 0.04 0
5.36 0.04 0
5.44 0.04 0
5.52 0.04 0
5.6 0.04 0
5.68 0.04 0
5.76 0.04 0
5.84 0.04 0
5.92 0.04 0
6 0.04 0
6.08 0.04 0
6.16 0.04 0
6.24 0.04 0
6.32 0.04 0
6.4 0.04 0
6.48 0.04 0
6.56 0.04 0
6.64 0.04 0
6.72 0.04 0
6.8 0.04 0
6.88 0.04 0
6.96 0.04 0
7.04 0.04 0
7.12 0.04 0
7.2 0.04 0
7.28 0.04 0
7.36 0.04 0
7.44 0.04 0
7.52 0.04 0
7.6 0.04 0
7.68 0.04 0
7.76 0.04 0
7.84 0.04 0
[...]
POINT_DATA 20000

SCALARS v float 1
LOOKUP_TABLE default
0
0
0
0
0
0
0
0
0
0
0
0
0
0
0
0
0
0
0
0
0
0
0
0
0
0
0
0
0
0
0
0
0
0
0
0
0
0
0
0
0
0
0
0
0
0
0
0
0
0
0
0
0
0
0
0
0
0
0
0
0
0
0
0
0
0
0
0
0
0
0
0
0
0
0
0
0
0
0
0
0
0
0
0
0
0
0
0
0
0
0
0
0
0
0
0
0
0
0
0
0
0
0
0
0
0
0
0
0
0
0
0
0
0
0
0
0
0
0
0
0
0
0
0
0
0
0
0
0
0
0
0
0
0
0
0
0
0
0
0
0
0
0
0
0
0
0
0
0
0
0
0
0
0
0
0
0
0
0
0
0
0
0
0
0
0
0
0
0
0
0
0
0
0
0
0
0
0
0
0
0
0
0
0
0
0
0
0
0
0
0
0
0
0
0
0
0
0
0
0
0
0
0
0
0
0
0
0
0
0
0
0
0
0
0
0
0
0
0
0
0
0
0
0
0
0
0
0
0
0
0
0
0
0
0
0
0
0
0
0
0
0
0
0
0
0
0
0
0
0
0
0
0
0
0
0
0
0
0
0
0
0
0
0
0
0
0
0
0
0
0
0
0
0
0
0
0
0
0
0
0
0
0
0
0
0
0
0
0
0
0
0
0
0
0
0
0
0
0
0
0
0
0
0
0
0
0
0
0
0
0
0
0
0
0
0
0
0
0
0
0
0
0
0
0
0
0
0
0
0
0
0
0
0
0
0
0
0
0
0
0
0
0
0
0
0
0
0
0
0
0
0
0
0
0
0
0
0
0
0
0
0
0
0
0
0
0
0
0
0
0
0
0
0
0
0
0
0
0
0
0
0
0
0
0
0
0
0
0
0
0
0
0
0
0
0
0
0
0
0
-0.123124
0.123124
0.0536785
0.0193197
0.0086595
0.00496275
0.00325852
0.0023068
0.00171638
0.00132488
0.00105238
0.00085521
0.000707815
0.000594429
0.000504993
0.000432933
0.000373855
0.000324703
0.000283228
0.00024771
0.000216839
0.000189642
0.000165412
0.000143679
0.000124195
0.000106878
9.16379e-05
7.81945e-05
6.60456e-05
5.46561e-05
4.37234e-05
3.32905e-05
2.36163e-05
1.49315e-05
7.28446e-06
5.59107e-07
-5.4339e-06
-1.09253e-05
-1.62238e-05
-2.16991e-05
-2.76166e-05
-3.3901e-05
-4.00452e-05
-4.53284e-05
-4.92734e-05
-5.20463e-05
-5.44898e-05
-5.77085e-05
-6.24399e-05
-6.86084e-05
-7.53558e-05
-8.154e-05
-8.63925e-05
-8.99326e-05
-9.29028e-05
-9.6292e-05
-0.000100753
-0.000106252
-0.000112124
-0.000117461
-0.000121596
-0.00012441
-0.000126332
-0.000128066
-0.000130224
-0.000133049
-0.000136353
-0.00013966
-0.000142455
-0.000144417
-0.000145535
-0.00014608
-0.000146472
-0.00014712
-0.000148287
-0.00015004
-0.000152265
-0.000154734
-0.000157194
-0.000159433
-0.000161324
-0.00016283
-0.000163988
-0.000164874
-0.000165581
-0.00016619
-0.000166761
-0.000167326
-0.000167903
-0.000168491
-0.000169085
-0.000169677
-0.000170263
-0.00017084
-0.000171407
-0.000171968
-0.000172523
-0.000173078
-0.000173635
-0.000174195
-0.000174761
-0.000175333
-0.000175911
-0.000176496
-0.000177088
-0.000177686
-0.000178289
-0.000178899
-0.000179514
-0.000180135
-0.000180761
-0.000181393
-0.00018203
-0.000182673
-0.00018332
-0.000183973
-0.000184632
-0.000185295
-0.000185964
-0.000186638
-0.000187317
-0.000188001
-0.00018869
-0.000189384
-0.000190083
-0.000190787
-0.000191495
-0.000192209
-0.000192927
-0.00019365
-0.000194377
-0.000195109
-0.000195846
-0.000196587
-0.000197332
-0.000198082
-0.000198836
-0.000199594
-0.000200356
-0.000201122
-0.000201893
-0.000202667
-0.000203445
-0.000204227
-0.000205012
-0.000205801
-0.000206594
-0.00020739
-0.00020819
-0.000208992
-0.000209798
-0.000210607
-0.00021142
-0.000212235
-0.000213053
-0.000213874
-0.000214697
-0.000215523
-0.000216352
-0.000217182
-0.000218016
-0.000218851
-0.000219689
-0.000220528
-0.00022137
-0.000222213
-0.000223058
-0.000223905
-0.000224753
-0.000225602
-0.000226453
-0.000227305
-0.000228158
-0.000229012
-0.000229867
-0.000230722
-0.000231578
-0.000232435
-0.000233291
-0.000234149
-0.000235006
-0.000235863
-0.00023672
-0.000237577
-0.000238434
-0.00023929
-0.000240145
-0.000241
-0.000241854
-0.000242707
-0.000243558
-0.000244409
-0.000245258
-0.000246106
-0.000246952
-0.000247796
-0.000248639
-0.000249479
-0.000250317
-0.000251153
-0.000251987
-0.000252818
-0.000253646
-0.000254472
-0.000255295
-0.000256114
-0.000256931
-0.000257744
-0.000258553
-0.000259359
-0.000260162
-0.00026096
-0.000261755
-0.000262545
-0.000263331
-0.000264113
-0.000264891
-0.000265663
-0.000266431
-0.000267194
-0.000267953
-0.000268706
-0.000269453
-0.000270196
-0.000270932
-0.000271664
-0.000272389
-0.000273109
-0.000273823
-0.00027453
-0.000275231
-0.000275926
-0.000276615
-0.000277297
-0.000277972
-0.000278641
-0.000279303
-0.000279957
-0.000280605
-0.000281245
-0.000281879
-0.000282504
-0.000283122
-0.000283733
-0.000284336
-0.000284931
-0.000285518
-0.000286097
-0.000286668
-0.000287231
-0.000287786
-0.000288333
-0.000288871
-0.0002894
-0.000289921
-0.000290434
-0.000290938
-0.000291432
-0.000291919
-0.000292396
-0.000292864
-0.000293323
-0.000293774
-0.000294215
-0.000294647
-0.000295069
-0.000295483
-0.000295887
-0.000296281
-0.000296667
-0.000297043
-0.000297409
-0.000297766
-0.000298113
-0.000298451
-0.00029878
-0.000299098
-0.000299407
-0.000299707
-0.000299996
-0.000300277
-0.000300547
-0.000300808
-0.000301059
-0.0003013
-0.000301532
-0.000301754
-0.000301967
-0.00030217
-0.000302363
-0.000302547
-0.000302721
-0.000302885
-0.00030304
-0.000303186
-0.000303322
-0.000303448
-0.000303565
-0.000303673
-0.000303772
-0.000303861
-0.000303941
-0.000304012
-0.000304073
-0.000304126
-0.00030417
-0.000304204
-0.00030423
-0.000304247
-0.000304255
-0.000304254
-0.000304245
-0.000304227
-0.000304201
-0.000304166
-0.000304123
-0.000304071
-0.000304012
-0.000303944
-0.000303869
-0.000303785
-0.000303694
-0.000303595
-0.000303488
-0.000303373
-0.000303252
-0.000303122
-0.000302986
-0.000302842
-0.000302692
-0.000302534
-0.00030237
-0.000302198
-0.00030202
-0.000301836
-0.000301645
-0.000301448
-0.000301244
-0.000301035
-0.000300819
-0.000300598
-0.00030037
-0.000300138
-0.000299899
-0.000299655
-0.000299406
-0.000299152
-0.000298892
-0.000298628
-0.000298358
-0.000298084
-0.000297805
-0.000297522
-0.000297234
-0.000296942
-0.000296646
-0.000296346
-0.000296042
-0.000295733
-0.000295422
-0.000295106
-0.000294789
-0.000294464
-0.000294142
-0.000293808
-0.000293483
-0.000293139
-0.000292814
-0.000292458
-0.000292135
-0.000291764
-0.00029145
-0.000291056
-0.000290762
-0.000290333
-0.000290076
-0.000289591
-0.000289393
-0.000288832
-0.000288716
-0.000288057
-0.000288045
-0.000287265
-0.000287394
-0.000286433
-0.00028681
-0.00028549
-0.000286406
-0.000284313
-0.000286315
-0.000282838
-0.000286473
-0.000281392
-0.000286386
-0.000280923
-0.000285516
-0.000282812
-0.00028678
-0.000268367
-0.000268367
-0.142057
0.142057
0.100883
0.053778
0.0301085
0.0187596
0.0127617
0.00924348
0.00700922
0.00550583
0.00444864
0.00367824
0.00309969
0.00265369
0.00230191
0.00201886
0.00178712
0.00159443
0.00143182
0.0012926
0.00117182
0.00106585
0.00097207
0.000888612
0.000814309
0.000748413
0.000690123
0.000638175
0.000590897
0.000546777
0.000505088
0.000466013
0.000430174
0.000397974
0.000369285
0.000343578
0.000320177
0.000298327
0.000277113
0.000255586
0.000233248
0.000210613
0.000189234
0.000170917
0.000156449
0.000144737
0.000133062
0.000118459
9.94113e-05
7.67785e-05
5.3328e-05
3.21411e-05
1.48724e-05
9.21188e-07
-1.20397e-05
-2.6571e-05
-4.39476e-05
-6.34742e-05
-8.29444e-05
-9.98816e-05
-0.000112817
-0.000121927
-0.000128778
-0.000135423
-0.000143377
-0.000152996
-0.000163474
-0.000173376
-0.000181379
-0.000186851
-0.00019006
-0.000191982
-0.00019387
-0.00019679
-0.000201308
-0.000207398
-0.000214561
-0.000222051
-0.000229126
-0.000235232
-0.00024009
-0.000243684
-0.000246195
-0.000247903
-0.000249095
-0.000250014
-0.000250825
-0.000251619
-0.000252429
-0.000253251
-0.000254066
-0.000254854
-0.000255602
-0.000256304
-0.000256965
-0.000257591
-0.000258193
-0.000258782
-0.000259366
-0.00025995
-0.00026054
-0.000261138
-0.000261743
-0.000262357
-0.000262979
-0.000263609
-0.000264245
-0.000264887
-0.000265534
-0.000266188
-0.000266846
-0.000267509
-0.000268178
-0.000268851
-0.000269529
-0.000270213
-0.000270901
-0.000271594
-0.000272292
-0.000272994
-0.000273702
-0.000274414
-0.000275131
-0.000275852
-0.000276578
-0.000277308
-0.000278043
-0.000278782
-0.000279525
-0.000280273
-0.000281024
-0.00028178
-0.00028254
-0.000283303
-0.00028407
-0.000284842
-0.000285616
-0.000286395
-0.000287177
-0.000287962
-0.000288751
-0.000289543
-0.000290338
-0.000291136
-0.000291938
-0.000292742
-0.000293549
-0.000294359
-0.000295171
-0.000295986
-0.000296804
-0.000297624
-0.000298446
-0.00029927
-0.000300096
-0.000300925
-0.000301755
-0.000302587
-0.00030342
-0.000304255
-0.000305092
-0.000305929
-0.000306768
-0.000307609
-0.00030845
-0.000309292
-0.000310134
-0.000310978
-0.000311821
-0.000312666
-0.00031351
-0.000314355
-0.0003152
-0.000316044
-0.000316889
-0.000317733
-0.000318577
-0.00031942
-0.000320262
-0.000321104
-0.000321944
-0.000322784
-0.000323622
-0.000324459
-0.000325294
-0.000326128
-0.00032696
-0.00032779
-0.000328618
-0.000329444
-0.000330268
-0.000331089
-0.000331908
-0.000332724
-0.000333538
-0.000334348
-0.000335155
-0.000335959
-0.00033676
-0.000337557
-0.000338351
-0.000339141
-0.000339927
-0.000340709
-0.000341486
-0.00034226
-0.000343029
-0.000343793
-0.000344553
-0.000345308
-0.000346058
-0.000346803
-0.000347543
-0.000348277
-0.000349006
-0.000349729
-0.000350447
-0.000351158
-0.000351864
-0.000352563
-0.000353257
-0.000353944
-0.000354624
-0.000355298
-0.000355965
-0.000356625
-0.000357278
-0.000357925
-0.000358564
-0.000359195
-0.00035982
-0.000360436
-0.000361046
-0.000361647
-0.00036224
-0.000362826
-0.000363404
-0.000363973
-0.000364534
-0.000365087
-0.000365631
-0.000366167
-0.000366694
-0.000367212
-0.000367722
-0.000368223
-0.000368715
-0.000369197
-0.000369671
-0.000370135
-0.00037059
-0.000371036
-0.000371473
-0.0003719
-0.000372317
-0.000372725
-0.000373123
-0.000373511
-0.00037389
-0.000374259
-0.000374618
-0.000374967
-0.000375306
-0.000375635
-0.000375954
-0.000376263
-0.000376562
-0.000376851
-0.00037713
-0.000377398
-0.000377657
-0.000377905
-0.000378143
-0.000378371
-0.000378588
-0.000378795
-0.000378992
-0.000379179
-0.000379356
-0.000379522
-0.000379678
-0.000379824
-0.00037996
-0.000380086
-0.000380201
-0.000380307
-0.000380402
-0.000380487
-0.000380562
-0.000380627
-0.000380683
-0.000380728
-0.000380763
-0.000380789
-0.000380805
-0.000380811
-0.000380807
-0.000380794
-0.000380772
-0.000380739
-0.000380698
-0.000380647
-0.000380587
-0.000380517
-0.000380439
-0.000380351
-0.000380255
-0.000380149
-0.000380035
-0.000379912
-0.000379781
-0.000379641
-0.000379492
-0.000379336
-0.000379171
-0.000378998
-0.000378816
-0.000378627
-0.000378431
-0.000378226
-0.000378014
-0.000377794
-0.000377567
-0.000377333
-0.000377091
-0.000376843
-0.000376588
-0.000376326
-0.000376057
-0.000375781
-0.0003755
-0.000375212
-0.000374918
-0.000374617
-0.000374311
-0.000373999
-0.000373682
-0.000373359
-0.00037303
-0.000372697
-0.000372358
-0.000372014
-0.000371665
-0.000371312
-0.000370954
-0.000370591
-0.000370225
-0.000369854
-0.000369479
-0.0003691
-0.000368717
-0.00036833
-0.00036794
-0.000367547
-0.00036715
-0.000366751
-0.000366347
-0.000365943
-0.000365533
-0.000365124
-0.000364707
-0.000364297
-0.000363871
-0.000363463
-0.000363024
-0.000362623
-0.000362168
-0.00036178
-0.000361302
-0.000360937
-0.000360424
-0.0003601
-0.000359529
-0.00035928
-0.000358608
-0.000358489
-0.000357652
-0.000357735
-0.000356664
-0.000357019
-0.000355649
-0.000356341
-0.000354601
-0.000355743
-0.000353445
-0.000355376
-0.000351959
-0.000355587
-0.000349742
-0.000356804
-0.000346599
-0.000358839
-0.000343549
-0.000360067
-0.000343321
-0.000358626
-0.00034887
-0.000359119
-0.000322903
-0.000322903
-0.122146
0.122146
0.121545
0.0821307
0.0538369
0.0366864
0.0262019
0.0195185
0.0150663
0.0119812
0.00976919
0.00813519
0.00689625
0.00593492
0.00517363
0.0045597
0.00405641
0.00363736
0.00328318
0.00297958
0.00271615
0.00248535
0.00228167
0.00210113
0.00194094
0.00179895
0.00167292
0.00155998
0.00145686
0.00136092
0.00127105
0.00118757
0.00111133
0.00104263
0.000980846
0.000924775
0.000873079
0.000824373
0.000777098
0.000729774
0.000681821
0.000634371
0.000590123
0.000551835
0.00052023
0.00049278
0.000464491
0.000430437
0.000388566
0.000340958
0.000292667
0.00024883
0.00021181
0.000180104
0.000149577
0.000116145
7.82436e-05
3.76952e-05
-1.37985e-06
-3.48247e-05
-6.05515e-05
-7.93978e-05
-9.44346e-05
-0.000109271
-0.000126322
-0.000145886
-0.000166333
-0.000185152
-0.000200242
-0.00021084
-0.000217739
-0.000222846
-0.000228366
-0.000236012
-0.00024652
-0.00025958
-0.000274103
-0.000288672
-0.000301976
-0.000313112
-0.000321704
-0.000327848
-0.000331968
-0.000334626
-0.000336373
-0.000337649
-0.000338743
-0.000339806
-0.000340886
-0.000341971
-0.000343021
-0.000344003
-0.000344894
-0.00034569
-0.000346399
-0.00034704
-0.000347631
-0.000348194
-0.000348743
-0.000349291
-0.000349844
-0.000350406
-0.000350979
-0.000351563
-0.000352155
-0.000352757
-0.000353365
-0.000353979
-0.000354599
-0.000355223
-0.000355852
-0.000356486
-0.000357123
-0.000357765
-0.000358412
-0.000359063
-0.000359718
-0.000360377
-0.000361041
-0.000361709
-0.000362381
-0.000363057
-0.000363738
-0.000364422
-0.000365111
-0.000365803
-0.000366499
-0.000367199
-0.000367903
-0.000368611
-0.000369322
-0.000370036
-0.000370754
-0.000371476
-0.0003722
-0.000372928
-0.000373659
-0.000374393
-0.00037513
-0.00037587
-0.000376613
-0.000377358
-0.000378106
-0.000378857
-0.00037961
-0.000380366
-0.000381124
-0.000381884
-0.000382646
-0.00038341
-0.000384176
-0.000384944
-0.000385714
-0.000386485
-0.000387258
-0.000388032
-0.000388807
-0.000389584
-0.000390362
-0.000391141
-0.00039192
-0.000392701
-0.000393482
-0.000394264
-0.000395046
-0.000395828
-0.000396611
-0.000397394
-0.000398177
-0.00039896
-0.000399742
-0.000400524
-0.000401306
-0.000402087
-0.000402868
-0.000403647
-0.000404426
-0.000405203
-0.000405979
-0.000406754
-0.000407528
-0.0004083
-0.00040907
-0.000409839
-0.000410605
-0.000411369
-0.000412132
-0.000412891
-0.000413649
-0.000414403
-0.000415155
-0.000415905
-0.000416651
-0.000417394
-0.000418133
-0.00041887
-0.000419603
-0.000420332
-0.000421057
-0.000421779
-0.000422496
-0.00042321
-0.000423919
-0.000424623
-0.000425324
-0.000426019
-0.00042671
-0.000427395
-0.000428076
-0.000428751
-0.000429421
-0.000430086
-0.000430745
-0.000431398
-0.000432046
-0.000432688
-0.000433323
-0.000433953
-0.000434576
-0.000435192
-0.000435802
-0.000436406
-0.000437003
-0.000437592
-0.000438175
-0.000438751
-0.000439319
-0.00043988
-0.000440434
-0.00044098
-0.000441519
-0.00044205
-0.000442572
-0.000443087
-0.000443594
-0.000444093
-0.000444584
-0.000445066
-0.00044554
-0.000446005
-0.000446461
-0.000446909
-0.000447349
-0.000447779
-0.0004482
-0.000448613
-0.000449016
-0.00044941
-0.000449795
-0.000450171
-0.000450537
-0.000450894
-0.000451242
-0.00045158
-0.000451908
-0.000452227
-0.000452536
-0.000452835
-0.000453125
-0.000453405
-0.000453675
-0.000453935
-0.000454185
-0.000454425
-0.000454655
-0.000454875
-0.000455085
-0.000455285
-0.000455475
-0.000455655
-0.000455825
-0.000455985
-0.000456135
-0.000456274
-0.000456404
-0.000456523
-0.000456632
-0.000456731
-0.00045682
-0.000456899
-0.000456968
-0.000457027
-0.000457076
-0.000457115
-0.000457145
-0.000457164
-0.000457173
-0.000457173
-0.000457162
-0.000457142
-0.000457113
-0.000457073
-0.000457024
-0.000456966
-0.000456898
-0.000456821
-0.000456734
-0.000456638
-0.000456533
-0.000456418
-0.000456295
-0.000456162
-0.000456021
-0.000455871
-0.000455712
-0.000455544
-0.000455368
-0.000455183
-0.00045499
-0.000454789
-0.000454579
-0.000454362
-0.000454136
-0.000453903
-0.000453661
-0.000453412
-0.000453156
-0.000452892
-0.000452621
-0.000452342
-0.000452056
-0.000451764
-0.000451464
-0.000451158
-0.000450845
-0.000450526
-0.0004502
-0.000449868
-0.00044953
-0.000449186
-0.000448836
-0.00044848
-0.000448118
-0.000447752
-0.000447379
-0.000447002
-0.00044662
-0.000446232
-0.00044584
-0.000445443
-0.000445042
-0.000444636
-0.000444226
-0.000443812
-0.000443394
-0.000442972
-0.000442546
-0.000442117
-0.000441685
-0.000441249
-0.000440809
-0.000440367
-0.000439922
-0.000439475
-0.000439024
-0.000438572
-0.000438115
-0.00043766
-0.000437197
-0.000436741
-0.00043627
-0.000435817
-0.000435334
-0.00043489
-0.000434388
-0.000433963
-0.000433434
-0.000433039
-0.000432469
-0.000432124
-0.00043149
-0.000431228
-0.000430484
-0.000430372
-0.000429432
-0.00042958
-0.000428321
-0.000428865
-0.000427154
-0.00042822
-0.000425948
-0.000427651
-0.00042468
-0.00042725
-0.000423193
-0.000427316
-0.000421051
-0.00042851
-0.000417508
-0.000431592
-0.000412301
-0.000436045
-0.000407472
-0.000438793
-0.000407584
-0.00043708
-0.0004157
-0.000438371
-0.000379458
-0.000379458
-0.0942126
0.0942126
0.120907
0.0968393
0.0716375
0.0530138
0.0399953
0.0308955
0.0244405
0.0197707
0.0163196
0.0137139
0.0117057
0.0101287
0.00886885
0.00784675
0.00700526
0.00630218
0.00570595
0.00519324
0.00474728
0.00435608
0.00401097
0.00370555
0.00343505
0.00319542
0.00298233
0.00279061
0.00261506
0.0024519
0.00229977
0.00215928
0.00203136
0.00191587
0.00181129
0.00171545
0.00162624
0.00154165
0.00145956
0.00137813
0.00129688
0.00121769
0.00114434
0.00108028
0.00102579
0.000976573
0.000925225
0.000864986
0.000793543
0.000714431
0.000635049
0.000562431
0.000499397
0.000443361
0.000388405
0.00032918
0.000264217
0.000196813
0.000133173
7.90841e-05
3.70346e-05
5.26852e-06
-2.09688e-05
-4.68826e-05
-7.5709e-05
-0.000107568
-0.000139935
-0.000169265
-0.000192835
-0.000209964
-0.000222174
-0.000232423
-0.00024387
-0.000258766
-0.000277838
-0.000300291
-0.000324288
-0.000347637
-0.000368431
-0.000385458
-0.000398319
-0.000407317
-0.000413205
-0.000416899
-0.000419259
-0.000420945
-0.000422382
-0.000423779
-0.000425193
-0.000426595
-0.000427925
-0.000429131
-0.000430185
-0.000431082
-0.000431841
-0.000432491
-0.000433065
-0.000433593
-0.0004341
-0.000434602
-0.00043511
-0.00043563
-0.000436163
-0.00043671
-0.000437268
-0.000437835
-0.00043841
-0.000438992
-0.000439578
-0.000440169
-0.000440764
-0.000441362
-0.000441965
-0.000442571
-0.00044318
-0.000443794
-0.000444412
-0.000445033
-0.000445659
-0.000446288
-0.000446921
-0.000447558
-0.000448199
-0.000448843
-0.000449491
-0.000450143
-0.000450798
-0.000451456
-0.000452118
-0.000452784
-0.000453452
-0.000454124
-0.000454799
-0.000455477
-0.000456158
-0.000456842
-0.000457529
-0.000458218
-0.000458911
-0.000459605
-0.000460303
-0.000461003
-0.000461705
-0.00046241
-0.000463116
-0.000463825
-0.000464536
-0.000465249
-0.000465964
-0.000466681
-0.000467399
-0.000468119
-0.000468841
-0.000469564
-0.000470288
-0.000471014
-0.00047174
-0.000472468
-0.000473196
-0.000473926
-0.000474656
-0.000475387
-0.000476118
-0.00047685
-0.000477582
-0.000478314
-0.000479046
-0.000479779
-0.000480511
-0.000481243
-0.000481974
-0.000482705
-0.000483436
-0.000484166
-0.000484895
-0.000485623
-0.00048635
-0.000487076
-0.000487801
-0.000488524
-0.000489246
-0.000489966
-0.000490684
-0.0004914
-0.000492115
-0.000492827
-0.000493537
-0.000494245
-0.00049495
-0.000495653
-0.000496352
-0.000497049
-0.000497743
-0.000498434
-0.000499122
-0.000499806
-0.000500486
-0.000501163
-0.000501837
-0.000502506
-0.000503172
-0.000503833
-0.00050449
-0.000505143
-0.000505791
-0.000506434
-0.000507073
-0.000507707
-0.000508336
-0.00050896
-0.000509578
-0.000510191
-0.000510799
-0.000511401
-0.000511997
-0.000512588
-0.000513172
-0.000513751
-0.000514323
-0.000514889
-0.000515449
-0.000516002
-0.000516548
-0.000517088
-0.00051762
-0.000518146
-0.000518665
-0.000519176
-0.00051968
-0.000520177
-0.000520666
-0.000521148
-0.000521622
-0.000522088
-0.000522547
-0.000522997
-0.000523439
-0.000523873
-0.000524299
-0.000524717
-0.000525126
-0.000525527
-0.000525919
-0.000526302
-0.000526677
-0.000527043
-0.0005274
-0.000527748
-0.000528087
-0.000528417
-0.000528738
-0.000529049
-0.000529352
-0.000529645
-0.000529928
-0.000530203
-0.000530467
-0.000530723
-0.000530969
-0.000531205
-0.000531431
-0.000531648
-0.000531856
-0.000532053
-0.000532241
-0.000532419
-0.000532587
-0.000532746
-0.000532894
-0.000533033
-0.000533162
-0.000533281
-0.000533391
-0.00053349
-0.000533579
-0.000533659
-0.000533729
-0.000533789
-0.000533839
-0.00053388
-0.00053391
-0.000533931
-0.000533942
-0.000533944
-0.000533936
-0.000533918
-0.00053389
-0.000533853
-0.000533807
-0.000533751
-0.000533685
-0.000533611
-0.000533526
-0.000533433
-0.00053333
-0.000533218
-0.000533098
-0.000532968
-0.000532829
-0.000532681
-0.000532524
-0.000532359
-0.000532185
-0.000532003
-0.000531812
-0.000531612
-0.000531405
-0.000531189
-0.000530964
-0.000530732
-0.000530492
-0.000530244
-0.000529989