# vtk DataFile Version 2.0
FlowField
ASCII
DATASET STRUCTURED_GRID
DIMENSIONS 400 1 50
POINTS 20000 float
0 0 0
0.08 0 0
0.16 0 0
0.24 0 0
0.32 0 0
0.4 0 0
0.48 0 0
0.56 0 0
0.64 0 0
0.72 0 0
0.8 0 0
0.88 0 0
0.96 0 0
1.04 0 0
1.12 0 0
1.2 0 0
1.28 0 0
1.36 0 0
1.44 0 0
1.52 0 0
1.6 0 0
1.68 0 0
1.76 0 0
1.84 0 0
1.92 0 0
2 0 0
2.08 0 0
2.16 0 0
2.24 0 0
2.32 0 0
2.4 0 0
2.48 0 0
2.56 0 0
2.64 0 0
2.72 0 0
2.8 0 0
2.88 0 0
2.96 0 0
3.04 0 0
3.12 0 0
3.2 0 0
3.28 0 0
3.36 0 0
3.44 0 0
3.52 0 0
3.6 0 0
3.68 0 0
3.76 0 0
3.84 0 0
3.92 0 0
4 0 0
4.08 0 0
4.16 0 0
4.24 0 0
4.32 0 0
4.4 0 0
4.48 0 0
4.56 0 0
4.64 0 0
4.72 0 0
4.8 0 0
4.88 0 0
4.96 0 0
5.04 0 0
5.12 0 0
5.2 0 0
5.28 0 0
5.36 0 0
5.44 0 0
5.52 0 0
5.6 0 0
5.68 0 0
5.76 0 0
5.84 0 0
5.92 0 0
6 0 0
6.08 0 0
6.16 0 0
6.24 0 0
6.32 0 0
6.4 0 0
6.48 0 0
6.56 0 0
6.64 0 0
6.72 0 0
6.8 0 0
6.88 0 0
6.96 0 0
7.04 0 0
7.12 0 0
7.2 0 0
7.28 0 0
7.36 0 0
7.44 0 0
7.52 0 0
7.6 0 0
7.68 0 0
7.76 0 0
7.84 0 0
7.92 0 0
8 0 0
8.08 0 0
8.16 0 0
8.24 0 0
8.32 0 0
8.4 0 0
8.48 0 0
8.56 0 0
8.64 0 0
8.72 0 0
8.8 0 0
8.88 0 0
8.96 0 0
9.04 0 0
9.12 0 0
9.2 0 0
9.28 0 0
9.36 0 0
9.44 0 0
9.52 0 0
9.6 0 0
9.68 0 0
9.76 0 0
9.84 0 0
9.92 0 0
10 0 0
10.08 0 0
10.16 0 0
10.24 0 0
10.32 0 0
10.4 0 0
10.48 0 0
10.56 0 0
10.64 0 0
10.72 0 0
10.8 0 0
10.88 0 0
10.96 0 0
11.04 0 0
11.12 0 0
11.2 0 0
11.28 0 0
11.36 0 0
11.44 0 0
11.52 0 0
11.6 0 0
11.68 0 0
11.76 0 0
11.84 0 0
11.92 0 0
12 0 0
12.08 0 0
12.16 0 0
12.24 0 0
12.32 0 0
12.4 0 0
12.48 0 0
12.56 0 0
12.64 0 0
12.72 0 0
12.8 0 0
12.88 0 0
12.96 0 0
13.04 0 0
13.12 0 0
13.2 0 0
13.28 0 0
13.36 0 0
13.44 0 0
13.52 0 0
13.6 0 0
13.68 0 0
13.76 0 0
13.84 0 0
13.92 0 0
14 0 0
14.08 0 0
14.16 0 0
14.24 0 0
14.32 0 0
14.4 0 0
14.48 0 0
14.56 0 0
14.64 0 0
14.72 0 0
14.8 0 0
14.88 0 0
14.96 0 0
15.04 0 0
15.12 0 0
15.2 0 0
15.28 0 0
15.36 0 0
15.44 0 0
15.52 0 0
15.6 0 0
15.68 0 0
15.76 0 0
15.84 0 0
15.92 0 0
16 0 0
16.08 0 0
16.16 0 0
16.24 0 0
16.32 0 0
16.4 0 0
16.48 0 0
16.56 0 0
16.64 0 0
16.72 0 0
16.8 0 0
16.88 0 0
16.96 0 0
17.04 0 0
17.12 0 0
17.2 0 0
17.28 0 0
17.36 0 0
17.44 0 0
17.52 0 0
17.6 0 0
17.68 0 0
17.76 0 0
17.84 0 0
17.92 0 0
18 0 0
18.08 0 0
18.16 0 0
18.24 0 0
18.32 0 0
18.4 0 0
18.48 0 0
18.56 0 0
18.64 0 0
18.72 0 0
18.8 0 0
18.88 0 0
18.96 0 0
19.04 0 0
19.12 0 0
19.2 0 0
19.28 0 0
19.36 0 0
19.44 0 0
19.52 0 0
19.6 0 0
19.68 0 0
19.76 0 0
19.84 0 0
19.92 0 0
20 0 0
20.08 0 0
20.16 0 0
20.24 0 0
20.32 0 0
20.4 0 0
20.48 0 0
20.56 0 0
20.64 0 0
20.72 0 0
20.8 0 0
20.88 0 0
20.96 0 0
21.04 0 0
21.12 0 0
21.2 0 0
21.28 0 0
21.36 0 0
21.44 0 0
21.52 0 0
21.6 0 0
21.68 0 0
21.76 0 0
21.84 0 0
21.92 0 0
22 0 0
22.08 0 0
22.16 0 0
22.24 0 0
22.32 0 0
22.4 0 0
22.48 0 0
22.56 0 0
22.64 0 0
22.72 0 0
22.8 0 0
22.88 0 0
22.96 0 0
23.04 0 0
23.12 0 0
23.2 0 0
23.28 0 0
23.36 0 0
23.44 0 0
23.52 0 0
23.6 0 0
23.68 0 0
23.76 0 0
23.84 0 0
23.92 0 0
24 0 0
24.08 0 0
24.16 0 0
24.24 0 0
24.32 0 0
24.4 0 0
24.48 0 0
24.56 0 0
24.64 0 0
24.72 0 0
24.8 0 0
24.88 0 0
24.96 0 0
25.04 0 0
25.12 0 0
25.2 0 0
25.28 0 0
25.36 0 0
25.44 0 0
25.52 0 0
25.6 0 0
25.68 0 0
25.76 0 0
25.84 0 0
25.92 0 0
26 0 0
26.08 0 0
26.16 0 0
26.24 0 0
26.32 0 0
26.4 0 0
26.48 0 0
26.56 0 0
26.64 0 0
26.72 0 0
26.8 0 0
26.88 0 0
26.96 0 0
27.04 0 0
27.12 0 0
27.2 0 0
27.28 0 0
27.36 0 0
27.44 0 0
27.52 0 0
27.6 0 0
27.68 0 0
27.76 0 0
27.84 0 0
27.92 0 0
28 0 0
28.08 0 0
28.16 0 0
28.24 0 0
28.32 0 0
28.4 0 0
28.48 0 0
28.56 0 0
28.64 0 0
28.72 0 0
28.8 0 0
28.88 0 0
28.96 0 0
29.04 0 0
29.12 0 0
29.2 0 0
29.28 0 0
29.36 0 0
29.44 0 0
29.52 0 0
29.6 0 0
29.68 0 0
29.76 0 0
29.84 0 0
29.92 0 0
30 0 0
30.08 0 0
30.16 0 0
30.24 0 0
30.32 0 0
30.4 0 0
30.48 0 0
30.56 0 0
30.64 0 0
30.72 0 0
30.8 0 0
30.88 0 0
30.96 0 0
31.04 0 0
31.12 0 0
31.2 0 0
31.28 0 0
31.36 0 0
31.44 0 0
31.52 0 0
31.6 0 0
31.68 0 0
31.76 0 0
31.84 0 0
31.92 0 0
0 0.02 0
0.08 0.02 0
0.16 0.02 0
0.24 0.02 0
0.32 0.02 0
0.4 0.02 0
0.48 0.02 0
0.56 0.02 0
0.64 0.02 0
0.72 0.02 0
0.8 0.02 0
0.88 0.02 0
0.96 0.02 0
1.04 0.02 0
1.12 0.02 0
1.2 0.02 0
1.28 0.02 0
1.36 0.02 0
1.44 0.02 0
1.52 0.02 0
1.6 0.02 0
1.68 0.02 0
1.76 0.02 0
1.84 0.02 0
1.92 0.02 0
2 0.02 0
2.08 0.02 0
2.16 0.02 0
2.24 0.02 0
2.32 0.02 0
2.4 0.02 0
2.48 0.02 0
2.56 0.02 0
2.64 0.02 0
2.72 0.02 0
2.8 0.02 0
2.88 0.02 0
2.96 0.02 0
3.04 0.02 0
3.12 0.02 0
3.2 0.02 0
3.28 0.02 0
3.36 0.02 0
3.44 0.02 0
3.52 0.02 0
3.6 0.02 0
3.68 0.02 0
3.76 0.02 0
3.84 0.02 0
3.92 0.02 0
4 0.02 0
4.08 0.02 0
4.16 0.02 0
4.24 0.02 0
4.32 0.02 0
4.4 0.02 0
4.48 0.02 0
4.56 0.02 0
4.64 0.02 0
4.72 0.02 0
4.8 0.02 0
4.88 0.02 0
4.96 0.02 0
5.04 0.02 0
5.12 0.02 0
5.2 0.02 0
5.28 0.02 0
5.36 0.02 0
5.44 0.02 0
5.52 0.02 0
5.6 0.02 0
5.68 0.02 0
5.76 0.02 0
5.84 0.02 0
5.92 0.02 0
6 0.02 0
6.08 0.02 0
6.16 0.02 0
6.24 0.02 0
6.32 0.02 0
6.4 0.02 0
6.48 0.02 0
6.56 0.02 0
6.64 0.02 0
6.72 0.02 0
6.8 0.02 0
6.88 0.02 0
6.96 0.02 0
7.04 0.02 0
7.12 0.02 0
7.2 0.02 0
7.28 0.02 0
7.36 0.02 0
7.44 0.02 0
7.52 0.02 0
7.6 0.02 0
7.68 0.02 0
7.76 0.02 0
7.84 0.02 0
7.92 0.02 0
8 0.02 0
8.08 0.02 0
8.16 0.02 0
8.24 0.02 0
8.32 0.02 0
8.4 0.02 0
8.48 0.02 0
8.56 0.02 0
8.64 0.02 0
8.72 0.02 0
8.8 0.02 0
8.88 0.02 0
8.96 0.02 0
9.04 0.02 0
9.12 0.02 0
9.2 0.02 0
9.28 0.02 0
9.36 0.02 0
9.44 0.02 0
9.52 0.02 0
9.6 0.02 0
9.68 0.02 0
9.76 0.02 0
9.84 0.02 0
9.92 0.02 0
10 0.02 0
10.08 0.02 0
10.16 0.02 0
10.24 0.02 0
10.32 0.02 0
10.4 0.02 0
10.48 0.02 0
10.56 0.02 0
10.64 0.02 0
10.72 0.02 0
10.8 0.02 0
10.88 0.02 0
10.96 0.02 0
11.04 0.02 0
11.12 0.02 0
11.2 0.02 0
11.28 0.02 0
11.36 0.02 0
11.44 0.02 0
11.52 0.02 0
11.6 0.02 0
11.68 0.02 0
11.76 0.02 0
11.84 0.02 0
11.92 0.02 0
12 0.02 0
12.08 0.02 0
12.16 0.02 0
12.24 0.02 0
12.32 0.02 0
12.4 0.02 0
12.48 0.02 0
12.56 0.02 0
12.64 0.02 0
12.72 0.02 0
12.8 0.02 0
12.88 0.02 0
12.96 0.02 0
13.04 0.02 0
13.12 0.02 0
13.2 0.02 0
13.28 0.02 0
13.36 0.02 0
13.44 0.02 0
13.52 0.02 0
13.6 0.02 0
13.68 0.02 0
13.76 0.02 0
13.84 0.02 0
13.92 0.02 0
14 0.02 0
14.08 0.02 0
14.16 0.02 0
14.24 0.02 0
14.32 0.02 0
14.4 0.02 0
14.48 0.02 0
14.56 0.02 0
14.64 0.02 0
14.72 0.02 0
14.8 0.02 0
14.88 0.02 0
14.96 0.02 0
15.04 0.02 0
15.12 0.02 0
15.2 0.02 0
15.28 0.02 0
15.36 0.02 0
15.44 0.02 0
15.52 0.02 0
15.6 0.02 0
15.68 0.02 0
15.76 0.02 0
15.84 0.02 0
15.92 0.02 0
16 0.02 0
16.08 0.02 0
16.16 0.02 0
16.24 0.02 0
16.32 0.02 0
16.4 0.02 0
16.48 0.02 0
16.56 0.02 0
16.64 0.02 0
16.72 0.02 0
16.8 0.02 0
16.88 0.02 0
16.96 0.02 0
17.04 0.02 0
17.12 0.02 0
17.2 0.02 0
17.28 0.02 0
17.36 0.02 0
17.44 0.02 0
17.52 0.02 0
17.6 0.02 0
17.68 0.02 0
17.76 0.02 0
17.84 0.02 0
17.92 0.02 0
18 0.02 0
18.08 0.02 0
18.16 0.02 0
18.24 0.02 0
18.32 0.02 0
18.4 0.02 0
18.48 0.02 0
18.56 0.02 0
18.64 0.02 0
18.72 0.02 0
18.8 0.02 0
18.88 0.02 0
18.96 0.02 0
19.04 0.02 0
19.12 0.02 0
19.2 0.02 0
19.28 0.02 0
19.36 0.02 0
19.44 0.02 0
19.52 0.02 0
19.6 0.02 0
19.68 0.02 0
19.76 0.02 0
19.84 0.02 0
19.92 0.02 0
20 0.02 0
20.08 0.02 0
20.16 0.02 0
20.24 0.02 0
20.32 0.02 0
20.4 0.02 0
20.48 0.02 0
20.56 0.02 0
20.64 0.02 0
20.72 0.02 0
20.8 0.02 0
20.88 0.02 0
20.96 0.02 0
21.04 0.02 0
21.12 0.02 0
21.2 0.02 0
21.28 0.02 0
21.36 0.02 0
21.44 0.02 0
21.52 0.02 0
21.6 0.02 0
21.68 0.02 0
21.76 0.02 0
21.84 0.02 0
21.92 0.02 0
22 0.02 0
22.08 0.02 0
22.16 0.02 0
22.24 0.02 0
22.32 0.02 0
22.4 0.02 0
22.48 0.02 0
22.56 0.02 0
22.64 0.02 0
22.72 0.02 0
22.8 0.02 0
22.88 0.02 0
22.96 0.02 0
23.04 0.02 0
23.12 0.02 0
23.2 0.02 0
23.28 0.02 0
23.36 0.02 0
23.44 0.02 0
23.52 0.02 0
23.6 0.02 0
23.68 0.02 0
23.76 0.02 0
23.84 0.02 0
23.92 0.02 0
24 0.02 0
24.08 0.02 0
24.16 0.02 0
24.24 0.02 0
24.32 0.02 0
24.4 0.02 0
24.48 0.02 0
24.56 0.02 0
24.64 0.02 0
24.72 0.02 0
24.8 0.02 0
24.88 0.02 0
24.96 0.02 0
25.04 0.02 0
25.12 0.02 0
25.2 0.02 0
25.28 0.02 0
25.36 0.02 0
25.44 0.02 0
25.52 0.02 0
25.6 0.02 0
25.68 0.02 0
25.76 0.02 0
25.84 0.02 0
25.92 0.02 0
26 0.02 0
26.08 0.02 0
26.16 0.02 0
26.24 0.02 0
26.32 0.02 0
26.4 0.02 0
26.48 0.02 0
26.56 0.02 0
26.64 0.02 0
26.72 0.02 0
26.8 0.02 0
26.88 0.02 0
26.96 0.02 0
27.04 0.02 0
27.12 0.02 0
27.2 0.02 0
27.28 0.02 0
27.36 0.02 0
27.44 0.02 0
27.52 0.02 0
27.6 0.02 0
27.68 0.02 0
27.76 0.02 0
27.84 0.02 0
27.92 0.02 0
28 0.02 0
28.08 0.02 0
28.16 0.02 0
28.24 0.02 0
28.32 0.02 0
28.4 0.02 0
28.48 0.02 0
28.56 0.02 0
28.64 0.02 0
28.72 0.02 0
28.8 0.02 0
28.88 0.02 0
28.96 0.02 0
29.04 0.02 0
29.12 0.02 0
29.2 0.02 0
29.28 0.02 0
29.36 0.02 0
29.44 0.02 0
29.52 0.02 0
29.6 0.02 0
29.68 0.02 0
29.76 0.02 0
29.84 0.02 0
29.92 0.02 0
30 0.02 0
30.08 0.02 0
30.16 0.02 0
30.24 0.02 0
30.32 0.02 0
30.4 0.02 0
30.48 0.02 0
30.56 0.02 0
30.64 0.02 0
30.72 0.02 0
30.8 0.02 0
30.88 0.02 0
30.96 0.02 0
31.04 0.02 0
31.12 0.02 0
31.2 0.02 0
31.28 0.02 0
31.36 0.02 0
31.44 0.02 0
31.52 0.02 0
31.6 0.02 0
31.68 0.02 0
31.76 0.02 0
31.84 0.02 0
31.92 0.02 0
0 0.04 0
0.08 0.04 0
0.16 0.04 0
0.24 0.04 0
0.32 0.04 0
0.4 0.04 0
0.48 0.04 0
0.56 0.04 0
0.64 0.04 0
0.72 0.04 0
0.8 0.04 0
0.88 0.04 0
0.96 0.04 0
1.04 0.04 0
1.12 0.04 0
1.2 0.04 0
1.28 0.04 0
1.36 0.04 0
1.44 0.04 0
1.52 0.04 0
1.6 0.04 0
1.68 0.04 0
1.76 0.04 0
1.84 0.04 0
1.92 0.04 0
2 0.04 0
2.08 0.04 0
2.16 0.04 0
2.24 0.04 0
2.32 0.04 0
2.4 0.04 0
2.48 0.04 0
2.56 0.04 0
2.64 0.04 0
2.72 0.04 0
2.8 0.04 0
2.88 0.04 0
2.96 0.04 0
3.04 0.04 0
3.12 0.04 0
3.2 0.04 0
3.28 0.04 0
3.36 0.04 0
3.44 0.04 0
3.52 0.04 0
3.6 0.04 0
3.68 0.04 0
3.76 0.04 0
3.84 0.04 0
3.92 0.04 0
4 0.04 0
4.08 0.04 0
4.16 0.04 0
4.24 0.04 0
4.32 0.04 0
4.4 0.04 0
4.48 0.04 0
4.56 0.04 0
4.64 0.04 0
4.72 0.04 0
4.8 0.04 0
4.88 0.04 0
4.96 0.04 0
5.04 0.04 0
5.12 0.04 0
5.2 0.04 0
5.28 0.04 0
5.36 0.04 0
5.44 0.04 0
5.52 0.04 0
5.6 0.04 0
5.68 0.04 0
5.76 0.04 0
5.84 0.04 0
5.92 0.04 0
6 0.04 0
6.08 0.04 0
6.16 0.04 0
6.24 0.04 0
6.32 0.04 0
6.4 0.04 0
6.48 0.04 0
6.56 0.04 0
6.64 0.04 0
6.72 0.04 0
6.8 0.04 0
6.88 0.04 0
6.96 0.04 0
7.04 0.04 0
7.12 0.04 0
7.2 0.04 0
7.28 0.04 0
7.36 0.04 0
7.44 0.04 0
7.52 0.04 0
7.6 0.04 0
7.68 0.04 0
7.76 0.04 0
7.84 0.04 0
[...]
POINT_DATA 20000

SCALARS v float 1
LOOKUP_TABLE default
0
0
0
0
0
0
0
0
0
0
0
0
0
0
0
0
0
0
0
0
0
0
0
0
0
0
0
0
0
0
0
0
0
0
0
0
0
0
0
0
0
0
0
0
0
0
0
0
0
0
0
0
0
0
0
0
0
0
0
0
0
0
0
0
0
0
0
0
0
0
0
0
0
0
0
0
0
0
0
0
0
0
0
0
0
0
0
0
0
0
0
0
0
0
0
0
0
0
0
0
0
0
0
0
0
0
0
0
0
0
0
0
0
0
0
0
0
0
0
0
0
0
0
0
0
0
0
0
0
0
0
0
0
0
0
0
0
0
0
0
0
0
0
0
0
0
0
0
0
0
0
0
0
0
0
0
0
0
0
0
0
0
0
0
0
0
0
0
0
0
0
0
0
0
0
0
0
0
0
0
0
0
0
0
0
0
0
0
0
0
0
0
0
0
0
0
0
0
0
0
0
0
0
0
0
0
0
0
0
0
0
0
0
0
0
0
0
0
0
0
0
0
0
0
0
0
0
0
0
0
0
0
0
0
0
0
0
0
0
0
0
0
0
0
0
0
0
0
0
0
0
0
0
0
0
0
0
0
0
0
0
0
0
0
0
0
0
0
0
0
0
0
0
0
0
0
0
0
0
0
0
0
0
0
0
0
0
0
0
0
0
0
0
0
0
0
0
0
0
0
0
0
0
0
0
0
0
0
0
0
0
0
0
0
0
0
0
0
0
0
0
0
0
0
0
0
0
0
0
0
0
0
0
0
0
0
0
0
0
0
0
0
0
0
0
0
0
0
0
0
0
0
0
0
0
0
0
0
0
0
0
0
0
0
0
0
0
0
0
0
0
0
0
0
0
0
0
0
0
0
0
0
0
0
0
0
0
0
0
0
0
0
0
0
0
0
0
0
0
0
-0.123109
0.123109
0.0536659
0.0193097
0.00865215
0.00495769
0.0032549
0.00230381
0.00171349
0.00132188
0.0010493
0.00085221
0.000705086
0.00059216
0.000503318
0.000431874
0.000373308
0.000324496
0.000283234
0.000247918
0.000217349
0.000190611
0.000166999
0.000145985
0.000127173
0.000110273
9.50643e-05
8.1362e-05
6.89931e-05
5.77738e-05
4.75092e-05
3.80187e-05
2.91743e-05
2.0923e-05
1.32715e-05
6.24025e-06
-1.80629e-07
-6.0473e-06
-1.14471e-05
-1.64736e-05
-2.12098e-05
-2.57201e-05
-3.00376e-05
-3.41486e-05
-3.799e-05
-4.14801e-05
-4.45769e-05
-4.73283e-05
-4.98723e-05
-5.23778e-05
-5.49593e-05
-5.76197e-05
-6.0257e-05
-6.27257e-05
-6.49113e-05
-6.6776e-05
-6.83622e-05
-6.97695e-05
-7.11258e-05
-7.25588e-05
-7.41584e-05
-7.59314e-05
-7.77681e-05
-7.94599e-05
-8.07857e-05
-8.16405e-05
-8.21352e-05
-8.25915e-05
-8.34097e-05
-8.48645e-05
-8.69423e-05
-8.93222e-05
-9.15298e-05
-9.31858e-05
-9.42123e-05
-9.48768e-05
-9.56447e-05
-9.69226e-05
-9.8835e-05
-0.000101157
-0.000103433
-0.000105218
-0.000106291
-0.000106756
-0.00010696
-0.00010731
-0.000108073
-0.00010927
-0.000110703
-0.000112077
-0.000113153
-0.000113852
-0.000114266
-0.000114589
-0.00011501
-0.000115622
-0.000116393
-0.000117194
-0.000117864
-0.000118289
-0.000118442
-0.000118387
-0.000118246
-0.000118153
-0.000118202
-0.000118427
-0.000118797
-0.00011924
-0.000119668
-0.000120002
-0.000120197
-0.000120238
-0.000120141
-0.00011994
-0.000119673
-0.000119375
-0.000119069
-0.000118767
-0.000118472
-0.00011818
-0.000117884
-0.00011758
-0.000117263
-0.000116933
-0.000116589
-0.000116236
-0.000115876
-0.000115511
-0.000115145
-0.000114778
-0.000114412
-0.000114046
-0.000113682
-0.000113318
-0.000112955
-0.000112592
-0.000112229
-0.000111865
-0.000111501
-0.000111137
-0.000110773
-0.000110409
-0.000110044
-0.00010968
-0.000109316
-0.000108952
-0.000108589
-0.000108225
-0.000107862
-0.000107499
-0.000107137
-0.000106775
-0.000106413
-0.000106052
-0.000105692
-0.000105332
-0.000104972
-0.000104613
-0.000104255
-0.000103898
-0.000103541
-0.000103185
-0.00010283
-0.000102475
-0.000102121
-0.000101769
-0.000101417
-0.000101066
-0.000100716
-0.000100367
-0.000100019
-9.96718e-05
-9.93259e-05
-9.89811e-05
-9.86375e-05
-9.8295e-05
-9.79536e-05
-9.76135e-05
-9.72746e-05
-9.69369e-05
-9.66006e-05
-9.62655e-05
-9.59318e-05
-9.55994e-05
-9.52684e-05
-9.49387e-05
-9.46105e-05
-9.42838e-05
-9.39585e-05
-9.36347e-05
-9.33123e-05
-9.29915e-05
-9.26723e-05
-9.23546e-05
-9.20384e-05
-9.17239e-05
-9.1411e-05
-9.10997e-05
-9.07901e-05
-9.04821e-05
-9.01758e-05
-8.98712e-05
-8.95684e-05
-8.92672e-05
-8.89678e-05
-8.86701e-05
-8.83742e-05
-8.80801e-05
-8.77878e-05
-8.74973e-05
-8.72087e-05
-8.69218e-05
-8.66368e-05
-8.63537e-05
-8.60724e-05
-8.5793e-05
-8.55154e-05
-8.52398e-05
-8.49661e-05
-8.46943e-05
-8.44244e-05
-8.41564e-05
-8.38904e-05
-8.36264e-05
-8.33642e-05
-8.31041e-05
-8.28459e-05
-8.25897e-05
-8.23354e-05
-8.20831e-05
-8.18329e-05
-8.15846e-05
-8.13383e-05
-8.1094e-05
-8.08518e-05
-8.06115e-05
-8.03733e-05
-8.0137e-05
-7.99028e-05
-7.96706e-05
-7.94405e-05
-7.92123e-05
-7.89862e-05
-7.87621e-05
-7.85401e-05
-7.83201e-05
-7.81021e-05
-7.78861e-05
-7.76722e-05
-7.74603e-05
-7.72505e-05
-7.70426e-05
-7.68368e-05
-7.66331e-05
-7.64314e-05
-7.62317e-05
-7.6034e-05
-7.58383e-05
-7.56447e-05
-7.54531e-05
-7.52635e-05
-7.5076e-05
-7.48904e-05
-7.47069e-05
-7.45254e-05
-7.43458e-05
-7.41683e-05
-7.39928e-05
-7.38193e-05
-7.36478e-05
-7.34782e-05
-7.33107e-05
-7.31451e-05
-7.29815e-05
-7.28198e-05
-7.26602e-05
-7.25025e-05
-7.23467e-05
-7.21929e-05
-7.20411e-05
-7.18912e-05
-7.17432e-05
-7.15972e-05
-7.14531e-05
-7.13109e-05
-7.11706e-05
-7.10322e-05
-7.08958e-05
-7.07612e-05
-7.06286e-05
-7.04978e-05
-7.03689e-05
-7.02419e-05
-7.01167e-05
-6.99935e-05
-6.9872e-05
-6.97525e-05
-6.96347e-05
-6.95188e-05
-6.94048e-05
-6.92926e-05
-6.91822e-05
-6.90736e-05
-6.89668e-05
-6.88618e-05
-6.87586e-05
-6.86572e-05
-6.85576e-05
-6.84597e-05
-6.83637e-05
-6.82693e-05
-6.81768e-05
-6.8086e-05
-6.79969e-05
-6.79096e-05
-6.7824e-05
-6.77401e-05
-6.7658e-05
-6.75776e-05
-6.74988e-05
-6.74218e-05
-6.73465e-05
-6.72728e-05
-6.72009e-05
-6.71306e-05
-6.7062e-05
-6.6995e-05
-6.69298e-05
-6.68661e-05
-6.68041e-05
-6.67438e-05
-6.66851e-05
-6.6628e-05
-6.65725e-05
-6.65186e-05
-6.64664e-05
-6.64158e-05
-6.63668e-05
-6.63193e-05
-6.62736e-05
-6.62292e-05
-6.61867e-05
-6.61454e-05
-6.61061e-05
-6.60679e-05
-6.60318e-05
-6.59966e-05
-6.59638e-05
-6.59315e-05
-6.59021e-05
-6.58725e-05
-6.58465e-05
-6.58196e-05
-6.57972e-05
-6.57727e-05
-6.57541e-05
-6.57317e-05
-6.57173e-05
-6.56966e-05
-6.56869e-05
-6.56671e-05
-6.5663e-05
-6.56432e-05
-6.56457e-05
-6.56246e-05
-6.56352e-05
-6.56113e-05
-6.56318e-05
-6.5603e-05
-6.56357e-05
-6.55994e-05
-6.56477e-05
-6.55997e-05
-6.56691e-05
-6.56025e-05
-6.57022e-05
-6.56054e-05
-6.57501e-05
-6.56055e-05
-6.58163e-05
-6.56006e-05
-6.59036e-05
-6.55899e-05
-6.60125e-05
-6.55759e-05
-6.61404e-05
-6.55623e-05
-6.62868e-05
-6.55415e-05
-6.64737e-05
-6.54581e-05
-6.67929e-05
-6.51357e-05
-6.74438e-05
-6.42393e-05
-6.83508e-05
-6.28625e-05
-6.38301e-05
-6.01233e-05
-6.01233e-05
-0.142041
0.142041
0.100871
0.053775
0.0301155
0.0187748
0.0127818
0.00926532
0.00703078
0.00552653
0.00446884
0.00369868
0.00312107
0.00267652
0.00232642
0.002045
0.0018146
0.00162293
0.00146119
0.00132297
0.00120348
0.0010991
0.00100709
0.000925358
0.000852352
0.00078687
0.000727965
0.000674837
0.000626754
0.000583004
0.000542898
0.000505844
0.000471437
0.000439487
0.000409948
0.000382787
0.000357871
0.000334953
0.000313719
0.000293866
0.000275139
0.000257355
0.00024043
0.000224415
0.000209475
0.000195787
0.000183379
0.000172024
0.000161288
0.000150718
0.00014007
0.000129423
0.000119111
0.000109529
0.000100929
9.33286e-05
8.65246e-05
8.018e-05
7.3915e-05
6.73974e-05
6.04473e-05
5.31471e-05
4.58872e-05
3.92578e-05
3.37696e-05
2.95143e-05
2.59715e-05
2.21341e-05
1.6952e-05
9.88759e-06
1.26172e-06
-7.84354e-06
-1.61161e-05
-2.27048e-05
-2.76805e-05
-3.19951e-05
-3.69517e-05
-4.34791e-05
-5.16144e-05
-6.04751e-05
-6.87203e-05
-7.5238e-05
-7.96827e-05
-8.25943e-05
-8.50689e-05
-8.81894e-05
-9.25237e-05
-9.79282e-05
-0.000103715
-0.000109054
-0.00011338
-0.000116621
-0.000119152
-0.000121548
-0.000124287
-0.000127531
-0.00013109
-0.000134551
-0.00013749
-0.000139652
-0.000141056
-0.000141957
-0.000142734
-0.000143743
-0.000145198
-0.000147126
-0.000149379
-0.000151714
-0.000153869
-0.000155644
-0.000156934
-0.000157737
-0.000158128
-0.000158223
-0.000158142
-0.000157984
-0.000157812
-0.000157652
-0.000157507
-0.000157363
-0.0001572
-0.000157003
-0.000156765
-0.000156484
-0.000156166
-0.00015582
-0.000155455
-0.000155081
-0.000154703
-0.000154327
-0.000153954
-0.000153584
-0.000153218
-0.000152854
-0.000152491
-0.000152129
-0.000151767
-0.000151404
-0.00015104
-0.000150675
-0.00015031
-0.000149945
-0.000149579
-0.000149214
-0.000148848
-0.000148482
-0.000148117
-0.000147752
-0.000147387
-0.000147022
-0.000146657
-0.000146293
-0.000145929
-0.000145566
-0.000145203
-0.00014484
-0.000144478
-0.000144117
-0.000143756
-0.000143395
-0.000143036
-0.000142676
-0.000142318
-0.00014196
-0.000141603
-0.000141247
-0.000140892
-0.000140537
-0.000140183
-0.000139831
-0.000139479
-0.000139128
-0.000138778
-0.000138429
-0.000138081
-0.000137734
-0.000137389
-0.000137044
-0.000136701
-0.000136359
-0.000136018
-0.000135678
-0.00013534
-0.000135002
-0.000134666
-0.000134332
-0.000133999
-0.000133667
-0.000133336
-0.000133007
-0.00013268
-0.000132353
-0.000132029
-0.000131706
-0.000131384
-0.000131064
-0.000130745
-0.000130429
-0.000130113
-0.000129799
-0.000129487
-0.000129177
-0.000128868
-0.000128561
-0.000128256
-0.000127952
-0.00012765
-0.00012735
-0.000127051
-0.000126755
-0.00012646
-0.000126167
-0.000125876
-0.000125586
-0.000125299
-0.000125013
-0.000124729
-0.000124447
-0.000124167
-0.000123889
-0.000123612
-0.000123338
-0.000123065
-0.000122795
-0.000122526
-0.00012226
-0.000121995
-0.000121732
-0.000121471
-0.000121213
-0.000120956
-0.000120701
-0.000120448
-0.000120197
-0.000119949
-0.000119702
-0.000119457
-0.000119215
-0.000118974
-0.000118735
-0.000118499
-0.000118264
-0.000118032
-0.000117801
-0.000117573
-0.000117346
-0.000117122
-0.0001169
-0.00011668
-0.000116462
-0.000116246
-0.000116032
-0.00011582
-0.00011561
-0.000115402
-0.000115196
-0.000114993
-0.000114791
-0.000114592
-0.000114394
-0.000114199
-0.000114006
-0.000113815
-0.000113625
-0.000113438
-0.000113253
-0.00011307
-0.00011289
-0.000112711
-0.000112534
-0.000112359
-0.000112186
-0.000112016
-0.000111847
-0.000111681
-0.000111516
-0.000111354
-0.000111193
-0.000111035
-0.000110878
-0.000110724
-0.000110572
-0.000110421
-0.000110273
-0.000110127
-0.000109982
-0.00010984
-0.0001097
-0.000109561
-0.000109425
-0.000109291
-0.000109158
-0.000109028
-0.000108899
-0.000108773
-0.000108648
-0.000108526
-0.000108405
-0.000108287
-0.00010817
-0.000108055
-0.000107942
-0.000107831
-0.000107722
-0.000107615
-0.00010751
-0.000107406
-0.000107305
-0.000107205
-0.000107108
-0.000107012
-0.000106918
-0.000106826
-0.000106736
-0.000106647
-0.000106561
-0.000106476
-0.000106393
-0.000106312
-0.000106233
-0.000106156
-0.000106081
-0.000106007
-0.000105935
-0.000105865
-0.000105797
-0.00010573
-0.000105666
-0.000105603
-0.000105542
-0.000105483
-0.000105425
-0.000105369
-0.000105315
-0.000105263
-0.000105212
-0.000105164
-0.000105117
-0.000105071
-0.000105028
-0.000104986
-0.000104946
-0.000104907
-0.000104871
-0.000104835
-0.000104803
-0.00010477
-0.000104742
-0.000104712
-0.000104688
-0.00010466
-0.00010464
-0.000104615
-0.0001046
-0.000104576
-0.000104567
-0.000104543
-0.000104541
-0.000104516
-0.000104523
-0.000104495
-0.000104513
-0.000104478
-0.000104512
-0.000104467
-0.00010452
-0.00010446
-0.000104538
-0.000104456
-0.000104568
-0.000104455
-0.000104611
-0.000104455
-0.000104671
-0.00010445
-0.000104757
-0.000104434
-0.000104878
-0.000104397
-0.000105046
-0.000104331
-0.00010527
-0.000104236
-0.000105551
-0.00010412
-0.00010588
-0.000103996
-0.000106259
-0.00010384
-0.000106758
-0.00010348
-0.000107663
-0.000102371
-0.000109606
-9.94937e-05
-0.000112431
-9.5164e-05
-0.000102007
-8.98504e-05
-8.98504e-05
-0.122127
0.122127
0.121528
0.0821272
0.053852
0.0367185
0.0262444
0.0195644
0.0151109
0.012023
0.00980909
0.00817505
0.00693773
0.00597904
0.00522063
0.0046093
0.0041081
0.00369089
0.0033388
0.00303793
0.00277788
0.0025508
0.00235074
0.00217322
0.00201481
0.00187283
0.00174513
0.00162986
0.00152539
0.00143018
0.00134284
0.00126222
0.00118753
0.00111836
0.00105451
0.00099579
0.000941806
0.000892001
0.000845743
0.000802448
0.000761643
0.000722993
0.000686347
0.000651772
0.00061951
0.000589786
0.000562545
0.000537308
0.000513291
0.000489744
0.000466328
0.000443261
0.000421156
0.000400662
0.000382131
0.000365484
0.000350277
0.000335868
0.000321585
0.000306886
0.000291532
0.000275752
0.000260274
0.000246089
0.000233946
0.000223795
0.000214542
0.00020437
0.000191557
0.000175416
0.000156774
0.000137666
0.00012033
0.000106023
9.4353e-05
8.34983e-05
7.12344e-05
5.61827e-05
3.85912e-05
2.02263e-05
3.45652e-06
-9.95127e-06
-1.96738e-05
-2.68962e-05
-3.36261e-05
-4.16718e-05
-5.18254e-05
-6.3629e-05
-7.57644e-05
-8.67954e-05
-9.58576e-05
-0.000102976
-0.000108916
-0.000114709
-0.000121124
-0.000128342
-0.000135945
-0.000143182
-0.000149345
-0.000154081
-0.000157518
-0.000160175
-0.000162734
-0.000165783
-0.000169627
-0.000174226
-0.000179257
-0.000184251
-0.000188746
-0.000192415
-0.000195117
-0.000196892
-0.000197913
-0.000198409
-0.000198605
-0.000198674
-0.000198724
-0.000198794
-0.000198882
-0.000198958
-0.000198988
-0.000198947
-0.000198823
-0.000198619
-0.000198347
-0.000198026
-0.000197673
-0.000197304
-0.000196933
-0.000196565
-0.000196204
-0.000195851
-0.000195504
-0.000195162
-0.000194822
-0.000194482
-0.000194143
-0.000193802
-0.00019346
-0.000193117
-0.000192773
-0.000192428
-0.000192083
-0.000191738
-0.000191392
-0.000191047
-0.000190702
-0.000190357
-0.000190013
-0.000189668
-0.000189324
-0.000188981
-0.000188637
-0.000188294
-0.000187952
-0.000187609
-0.000187268
-0.000186926
-0.000186585
-0.000186245
-0.000185905
-0.000185566
-0.000185228
-0.00018489
-0.000184553
-0.000184217
-0.000183881
-0.000183546
-0.000183212
-0.000182879
-0.000182547
-0.000182216
-0.000181885
-0.000181556
-0.000181227
-0.0001809
-0.000180574
-0.000180248
-0.000179924
-0.000179601
-0.000179279
-0.000178958
-0.000178639
-0.00017832
-0.000178003
-0.000177687
-0.000177373
-0.00017706
-0.000176748
-0.000176437
-0.000176128
-0.00017582
-0.000175514
-0.000175209
-0.000174905
-0.000174603
-0.000174303
-0.000174004
-0.000173706
-0.00017341
-0.000173116
-0.000172823
-0.000172532
-0.000172242
-0.000171954
-0.000171668
-0.000171383
-0.0001711
-0.000170819
-0.000170539
-0.000170261
-0.000169985
-0.00016971
-0.000169438
-0.000169167
-0.000168898
-0.00016863
-0.000168364
-0.000168101
-0.000167839
-0.000167578
-0.00016732
-0.000167064
-0.000166809
-0.000166556
-0.000166305
-0.000166056
-0.000165809
-0.000165564
-0.00016532
-0.000165079
-0.000164839
-0.000164602
-0.000164366
-0.000164132
-0.0001639
-0.000163671
-0.000163443
-0.000163217
-0.000162993
-0.000162771
-0.00016255
-0.000162332
-0.000162116
-0.000161902
-0.00016169
-0.00016148
-0.000161271
-0.000161065
-0.000160861
-0.000160658
-0.000160458
-0.00016026
-0.000160064
-0.000159869
-0.000159677
-0.000159487
-0.000159298
-0.000159112
-0.000158928
-0.000158745
-0.000158565
-0.000158386
-0.00015821
-0.000158036
-0.000157863
-0.000157693
-0.000157524
-0.000157358
-0.000157194
-0.000157031
-0.000156871
-0.000156712
-0.000156556
-0.000156401
-0.000156248
-0.000156098
-0.000155949
-0.000155802
-0.000155658
-0.000155515
-0.000155374
-0.000155235
-0.000155098
-0.000154963
-0.00015483
-0.000154699
-0.00015457
-0.000154443
-0.000154317
-0.000154194
-0.000154072
-0.000153953
-0.000153835
-0.000153719
-0.000153605
-0.000153493
-0.000153383
-0.000153275
-0.000153169
-0.000153064
-0.000152962
-0.000152861
-0.000152762
-0.000152665
-0.00015257
-0.000152476
-0.000152385
-0.000152295
-0.000152208
-0.000152122
-0.000152037
-0.000151955
-0.000151874
-0.000151796
-0.000151719
-0.000151644
-0.00015157
-0.000151499
-0.000151429
-0.000151361
-0.000151295
-0.00015123
-0.000151168
-0.000151107
-0.000151047
-0.00015099
-0.000150934
-0.00015088
-0.000150828
-0.000150777
-0.000150729
-0.000150682
-0.000150636
-0.000150593
-0.000150551
-0.00015051
-0.000150472
-0.000150435
-0.0001504
-0.000150366
-0.000150335
-0.000150303
-0.000150276
-0.000150248
-0.000150224
-0.000150198
-0.00015018
-0.000150155
-0.000150141
-0.000150119
-0.00015011
-0.000150088
-0.000150086
-0.000150063
-0.00015007
-0.000150044
-0.000150061
-0.00015003
-0.000150061
-0.00015002
-0.00015007
-0.000150013
-0.00015009
-0.000150009
-0.000150122
-0.000150008
-0.000150166
-0.000150007
-0.000150226
-0.000150005
-0.000150306
-0.000149998
-0.000150414
-0.000149975
-0.000150566
-0.000149922
-0.000150782
-0.000149822
-0.000151083
-0.000149662
-0.000151484
-0.000149444
-0.000151983
-0.000149186
-0.000152569
-0.000148907
-0.000153253
-0.000148549
-0.000154192
-0.000147765
-0.000155954
-0.00014553
-0.0001597
-0.000140117
-0.000164974
-0.000132559
-0.000150726
-0.00012449
-0.00012449
-0.0941916
0.0941916
0.120882
0.0968271
0.0716504
0.0530534
0.0400533
0.0309602
0.0245029
0.0198273
0.0163713
0.0137639
0.0117574
0.0101839
0.00892798
0.0079089
0.0070695
0.00636847
0.0057755
0.00526791
0.0048286
0.00444457
0.00410601
0.00380548
0.00353727
0.00329686
0.00308052
0.00288505
0.00270763
0.00254569
0.00239697
0.00225968
0.00213264
0.00201515
0.00190682
0.00180715
0.00171539
0.00163057
0.00155167
0.00147777
0.00140818
0.00134239
0.00128016
0.00122154
0.00116679
0.00111612
0.00106934
0.00102567
0.00098397
0.000943232
0.000903067
0.000863869
0.000826541
0.000791958
0.000760518
0.000731987
0.000705626
0.000680459
0.00065552
0.00063007
0.00060383
0.000577185
0.000551189
0.000527199
0.000506138
0.000487745
0.000470294
0.000451134
0.000427911
0.000399865
0.000368425
0.000336649
0.000307705
0.00028321
0.000262364
0.000242413
0.000220211
0.000193998
0.00016442
0.000134228
0.000106857
8.46882e-05
6.79232e-05
5.46238e-05
4.18065e-05
2.69445e-05
9.08955e-06
-1.08935e-05
-3.09837e-05
-4.91173e-05
-6.41594e-05
-7.62946e-05
-8.67366e-05
-9.70006e-05
-0.000108146
-0.000120343
-0.000132915
-0.000144759
-0.000154901
-0.000162929
-0.000169126
-0.000174309
-0.000179474
-0.000185422
-0.000192506
-0.000200571
-0.000209068
-0.000217276
-0.000224527
-0.000230377
-0.000234674
-0.000237535
-0.000239257
-0.000240208
-0.000240729
-0.000241077
-0.0002414
-0.000241752
-0.000242118
-0.000242451
-0.000242701
-0.000242832
-0.000242832
-0.000242707
-0.000242479
-0.000242178
-0.000241833
-0.000241467
-0.000241098
-0.000240737
-0.000240388
-0.000240051
-0.000239724
-0.000239404
-0.000239087
-0.000238771
-0.000238454
-0.000238136
-0.000237817
-0.000237495
-0.000237172
-0.000236848
-0.000236524
-0.000236199
-0.000235874
-0.00023555
-0.000235226
-0.000234902
-0.000234578
-0.000234255
-0.000233932
-0.000233609
-0.000233287
-0.000232965
-0.000232643
-0.000232322
-0.000232001
-0.000231681
-0.000231361
-0.000231042
-0.000230724
-0.000230406
-0.000230088
-0.000229772
-0.000229456
-0.000229141
-0.000228826
-0.000228513
-0.0002282
-0.000227888
-0.000227577
-0.000227267
-0.000226957
-0.000226649
-0.000226342
-0.000226035
-0.00022573
-0.000225426
-0.000225123
-0.000224821
-0.00022452
-0.00022422
-0.000223922
-0.000223624
-0.000223328
-0.000223034
-0.00022274
-0.000222448
-0.000222157
-0.000221867
-0.000221579
-0.000221292
-0.000221006
-0.000220722
-0.000220439
-0.000220158
-0.000219878
-0.0002196
-0.000219323
-0.000219047
-0.000218774
-0.000218501
-0.000218231
-0.000217961
-0.000217694
-0.000217428
-0.000217163
-0.000216901
-0.00021664
-0.00021638
-0.000216122
-0.000215866
-0.000215612
-0.000215359
-0.000215108
-0.000214859
-0.000214611
-0.000214365
-0.000214121
-0.000213879
-0.000213638
-0.0002134
-0.000213163
-0.000212928
-0.000212694
-0.000212463
-0.000212233
-0.000212005
-0.000211779
-0.000211555
-0.000211332
-0.000211112
-0.000210893
-0.000210676
-0.000210461
-0.000210248
-0.000210037
-0.000209827
-0.00020962
-0.000209414
-0.000209211
-0.000209009
-0.000208809
-0.000208611
-0.000208415
-0.000208221
-0.000208028
-0.000207838
-0.00020765
-0.000207463
-0.000207278
-0.000207096
-0.000206915
-0.000206736
-0.000206559
-0.000206384
-0.00020621
-0.000206039
-0.00020587
-0.000205702
-0.000205537
-0.000205373
-0.000205211
-0.000205052
-0.000204894
-0.000204738
-0.000204583
-0.000204431
-0.000204281
-0.000204132
-0.000203986
-0.000203841
-0.000203699
-0.000203558
-0.000203419
-0.000203281
-0.000203146
-0.000203013
-0.000202881
-0.000202752
-0.000202624
-0.000202498
-0.000202374
-0.000202252
-0.000202131
-0.000202013
-0.000201896
-0.000201781
-0.000201668
-0.000201557
-0.000201447
-0.00020134
-0.000201234
-0.00020113
-0.000201028
-0.000200927
-0.000200829
-0.000200732
-0.000200637
-0.000200543
-0.000200452
-0.000200362
-0.000200274
-0.000200188
-0.000200103
-0.000200021
-0.00019994
-0.00019986
-0.000199783
-0.000199707
-0.000199633
-0.00019956
-0.00019949
-0.000199421
-0.000199353
-0.000199288
-0.000199224
-0.000199161
-0.000199101