# vtk DataFile Version 2.0
FlowField
ASCII
DATASET STRUCTURED_GRID
DIMENSIONS 400 1 50
POINTS 20000 float
0 0 0
0.08 0 0
0.16 0 0
0.24 0 0
0.32 0 0
0.4 0 0
0.48 0 0
0.56 0 0
0.64 0 0
0.72 0 0
0.8 0 0
0.88 0 0
0.96 0 0
1.04 0 0
1.12 0 0
1.2 0 0
1.28 0 0
1.36 0 0
1.44 0 0
1.52 0 0
1.6 0 0
1.68 0 0
1.76 0 0
1.84 0 0
1.92 0 0
2 0 0
2.08 0 0
2.16 0 0
2.24 0 0
2.32 0 0
2.4 0 0
2.48 0 0
2.56 0 0
2.64 0 0
2.72 0 0
2.8 0 0
2.88 0 0
2.96 0 0
3.04 0 0
3.12 0 0
3.2 0 0
3.28 0 0
3.36 0 0
3.44 0 0
3.52 0 0
3.6 0 0
3.68 0 0
3.76 0 0
3.84 0 0
3.92 0 0
4 0 0
4.08 0 0
4.16 0 0
4.24 0 0
4.32 0 0
4.4 0 0
4.48 0 0
4.56 0 0
4.64 0 0
4.72 0 0
4.8 0 0
4.88 0 0
4.96 0 0
5.04 0 0
5.12 0 0
5.2 0 0
5.28 0 0
5.36 0 0
5.44 0 0
5.52 0 0
5.6 0 0
5.68 0 0
5.76 0 0
5.84 0 0
5.92 0 0
6 0 0
6.08 0 0
6.16 0 0
6.24 0 0
6.32 0 0
6.4 0 0
6.48 0 0
6.56 0 0
6.64 0 0
6.72 0 0
6.8 0 0
6.88 0 0
6.96 0 0
7.04 0 0
7.12 0 0
7.2 0 0
7.28 0 0
7.36 0 0
7.44 0 0
7.52 0 0
7.6 0 0
7.68 0 0
7.76 0 0
7.84 0 0
7.92 0 0
8 0 0
8.08 0 0
8.16 0 0
8.24 0 0
8.32 0 0
8.4 0 0
8.48 0 0
8.56 0 0
8.64 0 0
8.72 0 0
8.8 0 0
8.88 0 0
8.96 0 0
9.04 0 0
9.12 0 0
9.2 0 0
9.28 0 0
9.36 0 0
9.44 0 0
9.52 0 0
9.6 0 0
9.68 0 0
9.76 0 0
9.84 0 0
9.92 0 0
10 0 0
10.08 0 0
10.16 0 0
10.24 0 0
10.32 0 0
10.4 0 0
10.48 0 0
10.56 0 0
10.64 0 0
10.72 0 0
10.8 0 0
10.88 0 0
10.96 0 0
11.04 0 0
11.12 0 0
11.2 0 0
11.28 0 0
11.36 0 0
11.44 0 0
11.52 0 0
11.6 0 0
11.68 0 0
11.76 0 0
11.84 0 0
11.92 0 0
12 0 0
12.08 0 0
12.16 0 0
12.24 0 0
12.32 0 0
12.4 0 0
12.48 0 0
12.56 0 0
12.64 0 0
12.72 0 0
12.8 0 0
12.88 0 0
12.96 0 0
13.04 0 0
13.12 0 0
13.2 0 0
13.28 0 0
13.36 0 0
13.44 0 0
13.52 0 0
13.6 0 0
13.68 0 0
13.76 0 0
13.84 0 0
13.92 0 0
14 0 0
14.08 0 0
14.16 0 0
14.24 0 0
14.32 0 0
14.4 0 0
14.48 0 0
14.56 0 0
14.64 0 0
14.72 0 0
14.8 0 0
14.88 0 0
14.96 0 0
15.04 0 0
15.12 0 0
15.2 0 0
15.28 0 0
15.36 0 0
15.44 0 0
15.52 0 0
15.6 0 0
15.68 0 0
15.76 0 0
15.84 0 0
15.92 0 0
16 0 0
16.08 0 0
16.16 0 0
16.24 0 0
16.32 0 0
16.4 0 0
16.48 0 0
16.56 0 0
16.64 0 0
16.72 0 0
16.8 0 0
16.88 0 0
16.96 0 0
17.04 0 0
17.12 0 0
17.2 0 0
17.28 0 0
17.36 0 0
17.44 0 0
17.52 0 0
17.6 0 0
17.68 0 0
17.76 0 0
17.84 0 0
17.92 0 0
18 0 0
18.08 0 0
18.16 0 0
18.24 0 0
18.32 0 0
18.4 0 0
18.48 0 0
18.56 0 0
18.64 0 0
18.72 0 0
18.8 0 0
18.88 0 0
18.96 0 0
19.04 0 0
19.12 0 0
19.2 0 0
19.28 0 0
19.36 0 0
19.44 0 0
19.52 0 0
19.6 0 0
19.68 0 0
19.76 0 0
19.84 0 0
19.92 0 0
20 0 0
20.08 0 0
20.16 0 0
20.24 0 0
20.32 0 0
20.4 0 0
20.48 0 0
20.56 0 0
20.64 0 0
20.72 0 0
20.8 0 0
20.88 0 0
20.96 0 0
21.04 0 0
21.12 0 0
21.2 0 0
21.28 0 0
21.36 0 0
21.44 0 0
21.52 0 0
21.6 0 0
21.68 0 0
21.76 0 0
21.84 0 0
21.92 0 0
22 0 0
22.08 0 0
22.16 0 0
22.24 0 0
22.32 0 0
22.4 0 0
22.48 0 0
22.56 0 0
22.64 0 0
22.72 0 0
22.8 0 0
22.88 0 0
22.96 0 0
23.04 0 0
23.12 0 0
23.2 0 0
23.28 0 0
23.36 0 0
23.44 0 0
23.52 0 0
23.6 0 0
23.68 0 0
23.76 0 0
23.84 0 0
23.92 0 0
24 0 0
24.08 0 0
24.16 0 0
24.24 0 0
24.32 0 0
24.4 0 0
24.48 0 0
24.56 0 0
24.64 0 0
24.72 0 0
24.8 0 0
24.88 0 0
24.96 0 0
25.04 0 0
25.12 0 0
25.2 0 0
25.28 0 0
25.36 0 0
25.44 0 0
25.52 0 0
25.6 0 0
25.68 0 0
25.76 0 0
25.84 0 0
25.92 0 0
26 0 0
26.08 0 0
26.16 0 0
26.24 0 0
26.32 0 0
26.4 0 0
26.48 0 0
26.56 0 0
26.64 0 0
26.72 0 0
26.8 0 0
26.88 0 0
26.96 0 0
27.04 0 0
27.12 0 0
27.2 0 0
27.28 0 0
27.36 0 0
27.44 0 0
27.52 0 0
27.6 0 0
27.68 0 0
27.76 0 0
27.84 0 0
27.92 0 0
28 0 0
28.08 0 0
28.16 0 0
28.24 0 0
28.32 0 0
28.4 0 0
28.48 0 0
28.56 0 0
28.64 0 0
28.72 0 0
28.8 0 0
28.88 0 0
28.96 0 0
29.04 0 0
29.12 0 0
29.2 0 0
29.28 0 0
29.36 0 0
29.44 0 0
29.52 0 0
29.6 0 0
29.68 0 0
29.76 0 0
29.84 0 0
29.92 0 0
30 0 0
30.08 0 0
30.16 0 0
30.24 0 0
30.32 0 0
30.4 0 0
30.48 0 0
30.56 0 0
30.64 0 0
30.72 0 0
30.8 0 0
30.88 0 0
30.96 0 0
31.04 0 0
31.12 0 0
31.2 0 0
31.28 0 0
31.36 0 0
31.44 0 0
31.52 0 0
31.6 0 0
31.68 0 0
31.76 0 0
31.84 0 0
31.92 0 0
0 0.02 0
0.08 0.02 0
0.16 0.02 0
0.24 0.02 0
0.32 0.02 0
0.4 0.02 0
0.48 0.02 0
0.56 0.02 0
0.64 0.02 0
0.72 0.02 0
0.8 0.02 0
0.88 0.02 0
0.96 0.02 0
1.04 0.02 0
1.12 0.02 0
1.2 0.02 0
1.28 0.02 0
1.36 0.02 0
1.44 0.02 0
1.52 0.02 0
1.6 0.02 0
1.68 0.02 0
1.76 0.02 0
1.84 0.02 0
1.92 0.02 0
2 0.02 0
2.08 0.02 0
2.16 0.02 0
2.24 0.02 0
2.32 0.02 0
2.4 0.02 0
2.48 0.02 0
2.56 0.02 0
2.64 0.02 0
2.72 0.02 0
2.8 0.02 0
2.88 0.02 0
2.96 0.02 0
3.04 0.02 0
3.12 0.02 0
3.2 0.02 0
3.28 0.02 0
3.36 0.02 0
3.44 0.02 0
3.52 0.02 0
3.6 0.02 0
3.68 0.02 0
3.76 0.02 0
3.84 0.02 0
3.92 0.02 0
4 0.02 0
4.08 0.02 0
4.16 0.02 0
4.24 0.02 0
4.32 0.02 0
4.4 0.02 0
4.48 0.02 0
4.56 0.02 0
4.64 0.02 0
4.72 0.02 0
4.8 0.02 0
4.88 0.02 0
4.96 0.02 0
5.04 0.02 0
5.12 0.02 0
5.2 0.02 0
5.28 0.02 0
5.36 0.02 0
5.44 0.02 0
5.52 0.02 0
5.6 0.02 0
5.68 0.02 0
5.76 0.02 0
5.84 0.02 0
5.92 0.02 0
6 0.02 0
6.08 0.02 0
6.16 0.02 0
6.24 0.02 0
6.32 0.02 0
6.4 0.02 0
6.48 0.02 0
6.56 0.02 0
6.64 0.02 0
6.72 0.02 0
6.8 0.02 0
6.88 0.02 0
6.96 0.02 0
7.04 0.02 0
7.12 0.02 0
7.2 0.02 0
7.28 0.02 0
7.36 0.02 0
7.44 0.02 0
7.52 0.02 0
7.6 0.02 0
7.68 0.02 0
7.76 0.02 0
7.84 0.02 0
7.92 0.02 0
8 0.02 0
8.08 0.02 0
8.16 0.02 0
8.24 0.02 0
8.32 0.02 0
8.4 0.02 0
8.48 0.02 0
8.56 0.02 0
8.64 0.02 0
8.72 0.02 0
8.8 0.02 0
8.88 0.02 0
8.96 0.02 0
9.04 0.02 0
9.12 0.02 0
9.2 0.02 0
9.28 0.02 0
9.36 0.02 0
9.44 0.02 0
9.52 0.02 0
9.6 0.02 0
9.68 0.02 0
9.76 0.02 0
9.84 0.02 0
9.92 0.02 0
10 0.02 0
10.08 0.02 0
10.16 0.02 0
10.24 0.02 0
10.32 0.02 0
10.4 0.02 0
10.48 0.02 0
10.56 0.02 0
10.64 0.02 0
10.72 0.02 0
10.8 0.02 0
10.88 0.02 0
10.96 0.02 0
11.04 0.02 0
11.12 0.02 0
11.2 0.02 0
11.28 0.02 0
11.36 0.02 0
11.44 0.02 0
11.52 0.02 0
11.6 0.02 0
11.68 0.02 0
11.76 0.02 0
11.84 0.02 0
11.92 0.02 0
12 0.02 0
12.08 0.02 0
12.16 0.02 0
12.24 0.02 0
12.32 0.02 0
12.4 0.02 0
12.48 0.02 0
12.56 0.02 0
12.64 0.02 0
12.72 0.02 0
12.8 0.02 0
12.88 0.02 0
12.96 0.02 0
13.04 0.02 0
13.12 0.02 0
13.2 0.02 0
13.28 0.02 0
13.36 0.02 0
13.44 0.02 0
13.52 0.02 0
13.6 0.02 0
13.68 0.02 0
13.76 0.02 0
13.84 0.02 0
13.92 0.02 0
14 0.02 0
14.08 0.02 0
14.16 0.02 0
14.24 0.02 0
14.32 0.02 0
14.4 0.02 0
14.48 0.02 0
14.56 0.02 0
14.64 0.02 0
14.72 0.02 0
14.8 0.02 0
14.88 0.02 0
14.96 0.02 0
15.04 0.02 0
15.12 0.02 0
15.2 0.02 0
15.28 0.02 0
15.36 0.02 0
15.44 0.02 0
15.52 0.02 0
15.6 0.02 0
15.68 0.02 0
15.76 0.02 0
15.84 0.02 0
15.92 0.02 0
16 0.02 0
16.08 0.02 0
16.16 0.02 0
16.24 0.02 0
16.32 0.02 0
16.4 0.02 0
16.48 0.02 0
16.56 0.02 0
16.64 0.02 0
16.72 0.02 0
16.8 0.02 0
16.88 0.02 0
16.96 0.02 0
17.04 0.02 0
17.12 0.02 0
17.2 0.02 0
17.28 0.02 0
17.36 0.02 0
17.44 0.02 0
17.52 0.02 0
17.6 0.02 0
17.68 0.02 0
17.76 0.02 0
17.84 0.02 0
17.92 0.02 0
18 0.02 0
18.08 0.02 0
18.16 0.02 0
18.24 0.02 0
18.32 0.02 0
18.4 0.02 0
18.48 0.02 0
18.56 0.02 0
18.64 0.02 0
18.72 0.02 0
18.8 0.02 0
18.88 0.02 0
18.96 0.02 0
19.04 0.02 0
19.12 0.02 0
19.2 0.02 0
19.28 0.02 0
19.36 0.02 0
19.44 0.02 0
19.52 0.02 0
19.6 0.02 0
19.68 0.02 0
19.76 0.02 0
19.84 0.02 0
19.92 0.02 0
20 0.02 0
20.08 0.02 0
20.16 0.02 0
20.24 0.02 0
20.32 0.02 0
20.4 0.02 0
20.48 0.02 0
20.56 0.02 0
20.64 0.02 0
20.72 0.02 0
20.8 0.02 0
20.88 0.02 0
20.96 0.02 0
21.04 0.02 0
21.12 0.02 0
21.2 0.02 0
21.28 0.02 0
21.36 0.02 0
21.44 0.02 0
21.52 0.02 0
21.6 0.02 0
21.68 0.02 0
21.76 0.02 0
21.84 0.02 0
21.92 0.02 0
22 0.02 0
22.08 0.02 0
22.16 0.02 0
22.24 0.02 0
22.32 0.02 0
22.4 0.02 0
22.48 0.02 0
22.56 0.02 0
22.64 0.02 0
22.72 0.02 0
22.8 0.02 0
22.88 0.02 0
22.96 0.02 0
23.04 0.02 0
23.12 0.02 0
23.2 0.02 0
23.28 0.02 0
23.36 0.02 0
23.44 0.02 0
23.52 0.02 0
23.6 0.02 0
23.68 0.02 0
23.76 0.02 0
23.84 0.02 0
23.92 0.02 0
24 0.02 0
24.08 0.02 0
24.16 0.02 0
24.24 0.02 0
24.32 0.02 0
24.4 0.02 0
24.48 0.02 0
24.56 0.02 0
24.64 0.02 0
24.72 0.02 0
24.8 0.02 0
24.88 0.02 0
24.96 0.02 0
25.04 0.02 0
25.12 0.02 0
25.2 0.02 0
25.28 0.02 0
25.36 0.02 0
25.44 0.02 0
25.52 0.02 0
25.6 0.02 0
25.68 0.02 0
25.76 0.02 0
25.84 0.02 0
25.92 0.02 0
26 0.02 0
26.08 0.02 0
26.16 0.02 0
26.24 0.02 0
26.32 0.02 0
26.4 0.02 0
26.48 0.02 0
26.56 0.02 0
26.64 0.02 0
26.72 0.02 0
26.8 0.02 0
26.88 0.02 0
26.96 0.02 0
27.04 0.02 0
27.12 0.02 0
27.2 0.02 0
27.28 0.02 0
27.36 0.02 0
27.44 0.02 0
27.52 0.02 0
27.6 0.02 0
27.68 0.02 0
27.76 0.02 0
27.84 0.02 0
27.92 0.02 0
28 0.02 0
28.08 0.02 0
28.16 0.02 0
28.24 0.02 0
28.32 0.02 0
28.4 0.02 0
28.48 0.02 0
28.56 0.02 0
28.64 0.02 0
28.72 0.02 0
28.8 0.02 0
28.88 0.02 0
28.96 0.02 0
29.04 0.02 0
29.12 0.02 0
29.2 0.02 0
29.28 0.02 0
29.36 0.02 0
29.44 0.02 0
29.52 0.02 0
29.6 0.02 0
29.68 0.02 0
29.76 0.02 0
29.84 0.02 0
29.92 0.02 0
30 0.02 0
30.08 0.02 0
30.16 0.02 0
30.24 0.02 0
30.32 0.02 0
30.4 0.02 0
30.48 0.02 0
30.56 0.02 0
30.64 0.02 0
30.72 0.02 0
30.8 0.02 0
30.88 0.02 0
30.96 0.02 0
31.04 0.02 0
31.12 0.02 0
31.2 0.02 0
31.28 0.02 0
31.36 0.02 0
31.44 0.02 0
31.52 0.02 0
31.6 0.02 0
31.68 0.02 0
31.76 0.02 0
31.84 0.02 0
31.92 0.02 0
0 0.04 0
0.08 0.04 0
0.16 0.04 0
0.24 0.04 0
0.32 0.04 0
0.4 0.04 0
0.48 0.04 0
0.56 0.04 0
0.64 0.04 0
0.72 0.04 0
0.8 0.04 0
0.88 0.04 0
0.96 0.04 0
1.04 0.04 0
1.12 0.04 0
1.2 0.04 0
1.28 0.04 0
1.36 0.04 0
1.44 0.04 0
1.52 0.04 0
1.6 0.04 0
1.68 0.04 0
1.76 0.04 0
1.84 0.04 0
1.92 0.04 0
2 0.04 0
2.08 0.04 0
2.16 0.04 0
2.24 0.04 0
2.32 0.04 0
2.4 0.04 0
2.48 0.04 0
2.56 0.04 0
2.64 0.04 0
2.72 0.04 0
2.8 0.04 0
2.88 0.04 0
2.96 0.04 0
3.04 0.04 0
3.12 0.04 0
3.2 0.04 0
3.28 0.04 0
3.36 0.04 0
3.44 0.04 0
3.52 0.04 0
3.6 0.04 0
3.68 0.04 0
3.76 0.04 0
3.84 0.04 0
3.92 0.04 0
4 0.04 0
4.08 0.04 0
4.16 0.04 0
4.24 0.04 0
4.32 0.04 0
4.4 0.04 0
4.48 0.04 0
4.56 0.04 0
4.64 0.04 0
4.72 0.04 0
4.8 0.04 0
4.88 0.04 0
4.96 0.04 0
5.04 0.04 0
5.12 0.04 0
5.2 0.04 0
5.28 0.04 0
5.36 0.04 0
5.44 0.04 0
5.52 0.04 0
5.6 0.04 0
5.68 0.04 0
5.76 0.04 0
5.84 0.04 0
5.92 0.04 0
6 0.04 0
6.08 0.04 0
6.16 0.04 0
6.24 0.04 0
6.32 0.04 0
6.4 0.04 0
6.48 0.04 0
6.56 0.04 0
6.64 0.04 0
6.72 0.04 0
6.8 0.04 0
6.88 0.04 0
6.96 0.04 0
7.04 0.04 0
7.12 0.04 0
7.2 0.04 0
7.28 0.04 0
7.36 0.04 0
7.44 0.04 0
7.52 0.04 0
7.6 0.04 0
7.68 0.04 0
7.76 0.04 0
7.84 0.04 0
[...]
POINT_DATA 20000

SCALARS p float 1
LOOKUP_TABLE default
1
205.89
205.658
205.591
205.565
205.549
205.537
205.526
205.515
205.506
205.496
205.487
205.478
205.469
205.461
205.453
205.444
205.436
205.429
205.421
205.414
205.406
205.399
205.392
205.385
205.378
205.372
205.365
205.358
205.352
205.346
205.339
205.333
205.327
205.321
205.315
205.309
205.304
205.298
205.292
205.287
205.281
205.275
205.27
205.265
205.259
205.254
205.249
205.243
205.238
205.233
205.228
205.223
205.218
205.213
205.208
205.203
205.198
205.193
205.189
205.184
205.179
205.174
205.17
205.165
205.16
205.156
205.151
205.146
205.142
205.137
205.133
205.128
205.124
205.12
205.115
205.111
205.106
205.102
205.098
205.093
205.089
205.085
205.081
205.076
205.072
205.068
205.064
205.06
205.056
205.051
205.047
205.043
205.039
205.035
205.031
205.027
205.023
205.019
205.015
205.011
205.007
205.003
204.999
204.995
204.991
204.987
204.983
204.979
204.975
204.972
204.968
204.964
204.96
204.956
204.952
204.948
204.945
204.941
204.937
204.933
204.929
204.926
204.922
204.918
204.914
204.911
204.907
204.903
204.899
204.896
204.892
204.888
204.885
204.881
204.877
204.873
204.87
204.866
204.862
204.859
204.855
204.852
204.848
204.844
204.841
204.837
204.833
204.83
204.826
204.823
204.819
204.815
204.812
204.808
204.805
204.801
204.798
204.794
204.79
204.787
204.783
204.78
204.776
204.773
204.769
204.766
204.762
204.759
204.755
204.752
204.748
204.745
204.741
204.738
204.734
204.731
204.727
204.724
204.72
204.717
204.713
204.71
204.706
204.703
204.699
204.696
204.693
204.689
204.686
204.682
204.679
204.675
204.672
204.668
204.665
204.661
204.658
204.654
204.651
204.647
204.644
204.641
204.637
204.634
204.63
204.627
204.623
204.62
204.616
204.613
204.609
204.606
204.602
204.599
204.595
204.592
204.589
204.585
204.582
204.578
204.575
204.571
204.568
204.564
204.561
204.557
204.554
204.55
204.547
204.543
204.54
204.536
204.533
204.529
204.526
204.522
204.519
204.515
204.512
204.509
204.505
204.502
204.498
204.495
204.491
204.488
204.484
204.481
204.477
204.474
204.47
204.467
204.463
204.46
204.456
204.453
204.449
204.446
204.442
204.439
204.435
204.432
204.428
204.425
204.421
204.418
204.414
204.411
204.407
204.403
204.4
204.396
204.393
204.389
204.386
204.382
204.379
204.375
204.372
204.368
204.365
204.361
204.358
204.354
204.351
204.347
204.344
204.34
204.337
204.333
204.329
204.326
204.322
204.319
204.315
204.312
204.308
204.305
204.301
204.298
204.294
204.291
204.287
204.283
204.28
204.276
204.273
204.269
204.266
204.262
204.259
204.255
204.251
204.248
204.244
204.241
204.237
204.234
204.23
204.226
204.223
204.219
204.216
204.212
204.209
204.205
204.201
204.198
204.194
204.191
204.187
204.184
204.18
204.176
204.173
204.169
204.166
204.162
204.158
204.155
204.151
204.148
204.144
204.141
204.137
204.133
204.13
204.126
204.123
204.119
204.115
204.112
204.108
204.104
204.101
204.097
204.094
204.09
204.086
204.083
204.079
204.076
204.072
204.068
204.065
204.061
204.057
204.054
204.05
204.047
204.043
204.039
204.036
204.032
204.028
204.025
204.021
204.017
204.014
204.01
204.007
204.003
203.999
203.996
203.992
203.988
203.985
203.981
203.977
203.974
203.97
203.966
203.963
203.959
203.955
203.952
203.948
203.944
0.5
205.89
205.89
205.658
205.591
205.565
205.549
205.537
205.526
205.515
205.506
205.496
205.487
205.478
205.469
205.461
205.453
205.444
205.436
205.429
205.421
205.414
205.406
205.399
205.392
205.385
205.378
205.372
205.365
205.358
205.352
205.346
205.339
205.333
205.327
205.321
205.315
205.309
205.304
205.298
205.292
205.287
205.281
205.275
205.27
205.265
205.259
205.254
205.249
205.243
205.238
205.233
205.228
205.223
205.218
205.213
205.208
205.203
205.198
205.193
205.189
205.184
205.179
205.174
205.17
205.165
205.16
205.156
205.151
205.146
205.142
205.137
205.133
205.128
205.124
205.12
205.115
205.111
205.106
205.102
205.098
205.093
205.089
205.085
205.081
205.076
205.072
205.068
205.064
205.06
205.056
205.051
205.047
205.043
205.039
205.035
205.031
205.027
205.023
205.019
205.015
205.011
205.007
205.003
204.999
204.995
204.991
204.987
204.983
204.979
204.975
204.972
204.968
204.964
204.96
204.956
204.952
204.948
204.945
204.941
204.937
204.933
204.929
204.926
204.922
204.918
204.914
204.911
204.907
204.903
204.899
204.896
204.892
204.888
204.885
204.881
204.877
204.873
204.87
204.866
204.862
204.859
204.855
204.852
204.848
204.844
204.841
204.837
204.833
204.83
204.826
204.823
204.819
204.815
204.812
204.808
204.805
204.801
204.798
204.794
204.79
204.787
204.783
204.78
204.776
204.773
204.769
204.766
204.762
204.759
204.755
204.752
204.748
204.745
204.741
204.738
204.734
204.731
204.727
204.724
204.72
204.717
204.713
204.71
204.706
204.703
204.699
204.696
204.693
204.689
204.686
204.682
204.679
204.675
204.672
204.668
204.665
204.661
204.658
204.654
204.651
204.647
204.644
204.641
204.637
204.634
204.63
204.627
204.623
204.62
204.616
204.613
204.609
204.606
204.602
204.599
204.595
204.592
204.589
204.585
204.582
204.578
204.575
204.571
204.568
204.564
204.561
204.557
204.554
204.55
204.547
204.543
204.54
204.536
204.533
204.529
204.526
204.522
204.519
204.515
204.512
204.509
204.505
204.502
204.498
204.495
204.491
204.488
204.484
204.481
204.477
204.474
204.47
204.467
204.463
204.46
204.456
204.453
204.449
204.446
204.442
204.439
204.435
204.432
204.428
204.425
204.421
204.418
204.414
204.411
204.407
204.403
204.4
204.396
204.393
204.389
204.386
204.382
204.379
204.375
204.372
204.368
204.365
204.361
204.358
204.354
204.351
204.347
204.344
204.34
204.337
204.333
204.329
204.326
204.322
204.319
204.315
204.312
204.308
204.305
204.301
204.298
204.294
204.291
204.287
204.283
204.28
204.276
204.273
204.269
204.266
204.262
204.259
204.255
204.251
204.248
204.244
204.241
204.237
204.234
204.23
204.226
204.223
204.219
204.216
204.212
204.209
204.205
204.201
204.198
204.194
204.191
204.187
204.184
204.18
204.176
204.173
204.169
204.166
204.162
204.158
204.155
204.151
204.148
204.144
204.141
204.137
204.133
204.13
204.126
204.123
204.119
204.115
204.112
204.108
204.104
204.101
204.097
204.094
204.09
204.086
204.083
204.079
204.076
204.072
204.068
204.065
204.061
204.057
204.054
204.05
204.047
204.043
204.039
204.036
204.032
204.028
204.025
204.021
204.017
204.014
204.01
204.007
204.003
203.999
203.996
203.992
203.988
203.985
203.981
203.977
203.974
203.97
203.966
203.963
203.959
203.955
203.952
203.948
203.944
203.944
205.84
205.84
205.663
205.596
205.568
205.551
205.538
205.527
205.516
205.506
205.496
205.487
205.478
205.47
205.461
205.453
205.445
205.437
205.429
205.421
205.414
205.406
205.399
205.392
205.385
205.378
205.372
205.365
205.359
205.352
205.346
205.34
205.333
205.327
205.321
205.315
205.309
205.304
205.298
205.292
205.287
205.281
205.276
205.27
205.265
205.259
205.254
205.249
205.243
205.238
205.233
205.228
205.223
205.218
205.213
205.208
205.203
205.198
205.193
205.189
205.184
205.179
205.174
205.17
205.165
205.16
205.156
205.151
205.147
205.142
205.137
205.133
205.128
205.124
205.12
205.115
205.111
205.106
205.102
205.098
205.093
205.089
205.085
205.081
205.076
205.072
205.068
205.064
205.06
205.056
205.051
205.047
205.043
205.039
205.035
205.031
205.027
205.023
205.019
205.015
205.011
205.007
205.003
204.999
204.995
204.991
204.987
204.983
204.979
204.975
204.972
204.968
204.964
204.96
204.956
204.952
204.948
204.945
204.941
204.937
204.933
204.929
204.926
204.922
204.918
204.914
204.911
204.907
204.903
204.899
204.896
204.892
204.888
204.885
204.881
204.877
204.873
204.87
204.866
204.862
204.859
204.855
204.852
204.848
204.844
204.841
204.837
204.833
204.83
204.826
204.823
204.819
204.815
204.812
204.808
204.805
204.801
204.798
204.794
204.79
204.787
204.783
204.78
204.776
204.773
204.769
204.766
204.762
204.759
204.755
204.752
204.748
204.745
204.741
204.738
204.734
204.731
204.727
204.724
204.72
204.717
204.713
204.71
204.706
204.703
204.699
204.696
204.693
204.689
204.686
204.682
204.679
204.675
204.672
204.668
204.665
204.661
204.658
204.654
204.651
204.647
204.644
204.641
204.637
204.634
204.63
204.627
204.623
204.62
204.616
204.613
204.609
204.606
204.602
204.599
204.595
204.592
204.589
204.585
204.582
204.578
204.575
204.571
204.568
204.564
204.561
204.557
204.554
204.55
204.547
204.543
204.54
204.536
204.533
204.529
204.526
204.522
204.519
204.515
204.512
204.509
204.505
204.502
204.498
204.495
204.491
204.488
204.484
204.481
204.477
204.474
204.47
204.467
204.463
204.46
204.456
204.453
204.449
204.446
204.442
204.439
204.435
204.432
204.428
204.425
204.421
204.418
204.414
204.411
204.407
204.403
204.4
204.396
204.393
204.389
204.386
204.382
204.379
204.375
204.372
204.368
204.365
204.361
204.358
204.354
204.351
204.347
204.344
204.34
204.337
204.333
204.329
204.326
204.322
204.319
204.315
204.312
204.308
204.305
204.301
204.298
204.294
204.291
204.287
204.283
204.28
204.276
204.273
204.269
204.266
204.262
204.259
204.255
204.251
204.248
204.244
204.241
204.237
204.234
204.23
204.226
204.223
204.219
204.216
204.212
204.209
204.205
204.201
204.198
204.194
204.191
204.187
204.184
204.18
204.176
204.173
204.169
204.166
204.162
204.158
204.155
204.151
204.148
204.144
204.141
204.137
204.133
204.13
204.126
204.123
204.119
204.115
204.112
204.108
204.104
204.101
204.097
204.094
204.09
204.086
204.083
204.079
204.076
204.072
204.068
204.065
204.061
204.057
204.054
204.05
204.047
204.043
204.039
204.036
204.032
204.028
204.025
204.021
204.017
204.014
204.01
204.007
204.003
203.999
203.996
203.992
203.988
203.985
203.981
203.977
203.974
203.97
203.966
203.963
203.959
203.955
203.952
203.948
203.944
203.944
205.799
205.799
205.666
205.601
205.571
205.553
205.539
205.527
205.517
205.507
205.497
205.488
205.479
205.47
205.461
205.453
205.445
205.437
205.429
205.421
205.414
205.407
205.399
205.392
205.385
205.378
205.372
205.365
205.359
205.352
205.346
205.34
205.333
205.327
205.321
205.315
205.31
205.304
205.298
205.292
205.287
205.281
205.276
205.27
205.265
205.259
205.254
205.249
205.244
205.238
205.233
205.228
205.223
205.218
205.213
205.208
205.203
205.198
205.193
205.189
205.184
205.179
205.174
205.17
205.165
205.16
205.156
205.151
205.147
205.142
205.137
205.133
205.128
205.124
205.12
205.115
205.111
205.106
205.102
205.098
205.093
205.089
205.085
205.081
205.076
205.072
205.068
205.064
205.06
205.056
205.051
205.047
205.043
205.039
205.035
205.031
205.027
205.023
205.019
205.015
205.011
205.007
205.003
204.999
204.995
204.991
204.987
204.983
204.979
204.975
204.972
204.968
204.964
204.96
204.956
204.952
204.948
204.945
204.941
204.937
204.933
204.929
204.926
204.922
204.918
204.914
204.911
204.907
204.903
204.899
204.896
204.892
204.888
204.885
204.881
204.877
204.873
204.87
204.866
204.862
204.859
204.855
204.852
204.848
204.844
204.841
204.837
204.833
204.83
204.826
204.823
204.819
204.815
204.812
204.808
204.805
204.801
204.798
204.794
204.79
204.787
204.783
204.78
204.776
204.773
204.769
204.766
204.762
204.759
204.755
204.752
204.748
204.745
204.741
204.738
204.734
204.731
204.727
204.724
204.72
204.717
204.713
204.71
204.706
204.703
204.699
204.696
204.693
204.689
204.686
204.682
204.679
204.675
204.672
204.668
204.665
204.661
204.658
204.654
204.651
204.647
204.644
204.641
204.637
204.634
204.63
204.627
204.623
204.62
204.616
204.613
204.609
204.606
204.602
204.599
204.595
204.592
204.589
204.585
204.582
204.578
204.575
204.571
204.568
204.564
204.561
204.557
204.554
204.55
204.547
204.543
204.54
204.536
204.533
204.529
204.526
204.522
204.519
204.515
204.512
204.509
204.505
204.502
204.498
204.495
204.491
204.488
204.484
204.481
204.477
204.474
204.47
204.467
204.463
204.46
204.456
204.453
204.449
204.446
204.442
204.439
204.435
204.432
204.428
204.425
204.421
204.418
204.414
204.411
204.407
204.403
204.4
204.396
204.393
204.389
204.386
204.382
204.379
204.375
204.372
204.368
204.365
204.361
204.358
204.354
204.351
204.347
204.344
204.34
204.337
204.333
204.329
204.326
204.322
204.319
204.315
204.312
204.308
204.305
204.301
204.298
204.294
204.291
204.287
204.283
204.28
204.276
204.273
204.269
204.266
204.262
204.259
204.255
204.251
204.248
204.244
204.241
204.237
204.234
204.23
204.226
204.223
204.219
204.216
204.212
204.209
204.205
204.201
204.198
204.194
204.191
204.187
204.184
204.18
204.176
204.173
204.169
204.166
204.162
204.158
204.155
204.151
204.148
204.144
204.141
204.137
204.133
204.13
204.126
204.123
204.119
204.115
204.112
204.108
204.104
204.101
204.097
204.094
204.09
204.086
204.083
204.079
204.076
204.072
204.068
204.065
204.061
204.057
204.054
204.05
204.047
204.043
204.039
204.036
204.032
204.028
204.025
204.021
204.017
204.014
204.01
204.007
204.003
203.999
203.996
203.992
203.988
203.985
203.981
203.977
203.974
203.97
203.966
203.963
203.959
203.955
203.952
203.948
203.944
203.944
205.768
205.768
205.666
205.605
205.574
205.555
205.541
205.528
205.517
205.507
205.497
205.488
205.479
205.47
205.461
205.453
205.445
205.437
205.429
205.421
205.414
205.407
205.399
205.392
205.385
205.379
205.372
205.365
205.359
205.352
205.346
205.34
205.333
205.327
205.321
205.315
205.31
205.304
205.298
205.292
205.287
205.281
205.276
205.27
205.265
205.259
205.254
205.249
205.244
205.238
205.233
205.228
205.223
205.218
205.213
205.208
205.203
205.198
205.193
205.189
205.184
205.179
205.174
205.17
205.165
205.16
205.156
205.151
205.147
205.142
205.137
205.133
205.129
205.124
205.12
205.115
205.111
205.106
205.102
205.098
205.094
205.089
205.085
205.081
205.076
205.072
205.068
205.064
205.06
205.056
205.051
205.047
205.043
205.039
205.035
205.031
205.027
205.023
205.019
205.015
205.011
205.007
205.003
204.999
204.995
204.991
204.987
204.983
204.979
204.975
204.972
204.968
204.964
204.96
204.956
204.952
204.948
204.945
204.941
204.937
204.933
204.929
204.926
204.922
204.918
204.914
204.911
204.907
204.903
204.899
204.896
204.892
204.888
204.885
204.881
204.877
204.873
204.87
204.866
204.862
204.859
204.855
204.852
204.848
204.844
204.841
204.837
204.833
204.83
204.826
204.823
204.819
204.815
204.812
204.808
204.805
204.801
204.798
204.794
204.79
204.787
204.783
204.78
204.776
204.773
204.769
204.766
204.762
204.759
204.755
204.752
204.748
204.745
204.741
204.738
204.734
204.731
204.727
204.724
204.72
204.717
204.713
204.71
204.706
204.703
204.699
204.696
204.693
204.689
204.686
204.682
204.679
204.675
204.672
204.668
204.665
204.661
204.658
204.654
204.651
204.647
204.644
204.641
204.637
204.634
204.63
204.627
204.623
204.62
204.616
204.613
204.609
204.606
204.602
204.599
204.595
204.592
204.589
204.585
204.582
204.578
204.575
204.571
204.568
204.564
204.561
204.557
204.554
204.55
204.547
204.543
204.54
204.536
204.533
204.529
204.526
204.522
204.519
204.515
204.512
204.509
204.505
204.502
204.498
204.495
204.491
204.488
204.484
204.481
204.477
204.474
204.47
204.467
204.463
204.46
204.456
204.453
204.449
204.446
204.442
204.439
204.435
204.432
204.428
204.425
204.421
204.418
204.414
204.411
204.407
204.403
204.4
204.396
204.393
204.389
204.386
204.382
204.379
204.375
204.372
204.368
204.365
204.361
204.358
204.354
204.351
204.347
204.344
204.34
204.337
204.333
204.329
204.326
204.322
204.319
204.315
204.312
204.308
204.305
204.301
204.298
204.294
204.291
204.287
204.283
204.28
204.276
204.273
204.269
204.266
204.262
204.259
204.255
204.251
204.248
204.244
204.241
204.237
204.234
204.23
204.226
204.223
204.219
204.216
204.212
204.209
204.205
204.201
204.198
204.194
204.191
204.187
204.184
204.18
204.176
204.173
204.169
204.166
204.162
204.158
204.155
204.151
204.148
204.144
204.141
204.137
204.133
204.13
204.126
204.123
204.119
204.115
204.112
204.108
204.104
204.101
204.097
204.094
204.09
204.086
204.083
204.079
204.076
204.072
204.068
204.065
204.061
204.057
204.054
204.05
204.047
204.043
204.039
204.036
204.032
204.028
204.025
204.021
204.017
204.014
204.01
204.007
204.003
203.999
203.996
203.992
203.988
203.985
203.981
203.977
203.974
203.97
203.966
203.963
203.959
203.955
203.952
203.948
203.944
203.944
205.742
205.742
205.664
205.609
205.578
205.557
205.542
205.53
205.518
205.508
205.498
205.488
205.479
205.47
205.462
205.453
205.445
205.437
205.429
205.422
205.414
205.407
205.399
205.392
205.385
205.379
205.372
205.365
205.359
205.352
205.346
205.34
205.334
205.327
205.321
205.315
205.31
205.304
205.298
205.292
205.287
205.281
205.276
205.27
205.265
205.259
205.254
205.249
205.244
205.238
205.233
205.228
205.223
205.218
205.213
205.208
205.203
205.198
205.193
205.189
205.184
205.179
205.174
205.17
205.165
205.16
205.156
205.151
205.147
205.142
205.137
205.133
205.129
205.124
205.12
205.115
205.111
205.106
205.102
205.098
205.094
205.089
205.085
205.081
205.076
205.072
205.068
205.064
205.06
205.056
205.051
205.047
205.043
205.039
205.035
205.031
205.027
205.023
205.019
205.015
205.011
205.007
205.003
204.999
204.995
204.991
204.987
204.983
204.979
204.975
204.972
204.968
204.964
204.96
204.956
204.952
204.948
204.945
204.941
204.937
204.933
204.929
204.926
204.922
204.918
204.914
204.911
204.907
204.903
204.899
204.896
204.892
204.888
204.885
204.881
204.877
204.873
204.87
204.866
204.862
204.859
204.855
204.852
204.848
204.844
204.841
204.837
204.833
204.83
204.826
204.823
204.819
204.815
204.812
204.808
204.805
204.801
204.798
204.794
204.79
204.787
204.783
204.78
204.776
204.773
204.769
204.766
204.762
204.759
204.755
204.752
204.748
204.745
204.741
204.738
204.734
204.731
204.727
204.724
204.72
204.717
204.713
204.71
204.706
204.703
204.699
204.696
204.693
204.689
204.686
204.682
204.679
204.675
204.672
204.668
204.665
204.661
204.658
204.654
204.651
204.647
204.644
204.641
204.637
204.634
204.63
204.627
204.623
204.62
204.616
204.613
204.609
204.606
204.602
204.599
204.595
204.592
204.589
204.585
204.582
204.578
204.575
204.571
204.568
204.564
204.561
204.557
204.554
204.55
204.547
204.543
204.54
204.536
204.533
204.529
204.526
204.522
204.519
204.515
204.512
204.509
204.505
204.502
204.498
204.495
204.491
204.488
204.484
204.481
204.477
204.474
204.47
204.467
204.463
204.46
204.456
204.453
204.449
204.446
204.442
204.439
204.435
204.432
204.428
204.425
204.421
204.418
204.414
204.411
204.407
204.403
204.4
204.396
204.393
204.389
204.386
204.382
204.379
204.375
204.372
204.368
204.365
204.361
204.358
204.354
204.351
204.347
204.344
204.34
204.337
204.333
204.329
204.326
204.322
204.319
204.315
204.312
204.308
204.305
204.301
204.298
204.294
204.291
204.287
204.283
204.28
204.276
204.273
204.269
204.266
204.262
204.259
204.255
204.251
204.248
204.244
204.241
204.237
204.234
204.23
204.226
204.223
204.219
204.216
204.212
204.209
204.205
204.201
204.198
204.194
204.191
204.187
204.184
204.18
204.176
204.173
204.169
204.166
204.162
204.158
204.155
204.151
204.148
204.144
204.141
204.137
204.133
204.13
204.126
204.123
204.119
204.115
204.112
204.108
204.104
204.101
204.097
204.094
204.09
204.086
204.083
204.079
204.076
204.072
204.068
204.065
204.061
204.057
204.054
204.05
204.047
204.043
204.039
204.036
204.032
204.028
204.025
204.021
204.017
204.014
204.01
204.007
204.003
203.999
203.996
203.992
203.988
203.985
203.981
203.977
203.974
203.97
203.966
203.963
203.959
203.955
203.952
203.948
203.944
203.944
205.721
205.721
205.661
205.612
205.581
205.56
205.544
205.531
205.519
205.509
205.499
205.489
205.48
205.471
205.462
205.454
205.445
205.437
205.429
205.422
205.414
205.407
205.4
205.392
205.386
205.379
205.372
205.365
205.359
205.352
205.346
205.34
205.334
205.327
205.321
205.315
205.31
205.304
205.298
205.292
205.287
205.281
205.276
205.27
205.265
205.259
205.254
205.249
205.244
205.238
205.233
205.228
205.223
205.218
205.213
205.208
205.203
205.198
205.193
205.189
205.184
205.179
205.174
205.17
205.165
205.16
205.156
205.151
205.147
205.142
205.137
205.133
205.129
205.124
205.12
205.115
205.111
205.106
205.102
205.098
205.094
205.089
205.085
205.081
205.076
205.072
205.068
205.064
205.06
205.056
205.051
205.047
205.043
205.039
205.035
205.031
205.027
205.023
205.019
205.015
205.011
205.007
205.003
204.999
204.995
204.991
204.987
204.983
204.979
204.975
204.972
204.968
204.964
204.96
204.956
204.952
204.948
204.945
204.941