# vtk DataFile Version 2.0
FlowField
ASCII
DATASET STRUCTURED_GRID
DIMENSIONS 400 1 50
POINTS 20000 float
0 0 0
0.08 0 0
0.16 0 0
0.24 0 0
0.32 0 0
0.4 0 0
0.48 0 0
0.56 0 0
0.64 0 0
0.72 0 0
0.8 0 0
0.88 0 0
0.96 0 0
1.04 0 0
1.12 0 0
1.2 0 0
1.28 0 0
1.36 0 0
1.44 0 0
1.52 0 0
1.6 0 0
1.68 0 0
1.76 0 0
1.84 0 0
1.92 0 0
2 0 0
2.08 0 0
2.16 0 0
2.24 0 0
2.32 0 0
2.4 0 0
2.48 0 0
2.56 0 0
2.64 0 0
2.72 0 0
2.8 0 0
2.88 0 0
2.96 0 0
3.04 0 0
3.12 0 0
3.2 0 0
3.28 0 0
3.36 0 0
3.44 0 0
3.52 0 0
3.6 0 0
3.68 0 0
3.76 0 0
3.84 0 0
3.92 0 0
4 0 0
4.08 0 0
4.16 0 0
4.24 0 0
4.32 0 0
4.4 0 0
4.48 0 0
4.56 0 0
4.64 0 0
4.72 0 0
4.8 0 0
4.88 0 0
4.96 0 0
5.04 0 0
5.12 0 0
5.2 0 0
5.28 0 0
5.36 0 0
5.44 0 0
5.52 0 0
5.6 0 0
5.68 0 0
5.76 0 0
5.84 0 0
5.92 0 0
6 0 0
6.08 0 0
6.16 0 0
6.24 0 0
6.32 0 0
6.4 0 0
6.48 0 0
6.56 0 0
6.64 0 0
6.72 0 0
6.8 0 0
6.88 0 0
6.96 0 0
7.04 0 0
7.12 0 0
7.2 0 0
7.28 0 0
7.36 0 0
7.44 0 0
7.52 0 0
7.6 0 0
7.68 0 0
7.76 0 0
7.84 0 0
7.92 0 0
8 0 0
8.08 0 0
8.16 0 0
8.24 0 0
8.32 0 0
8.4 0 0
8.48 0 0
8.56 0 0
8.64 0 0
8.72 0 0
8.8 0 0
8.88 0 0
8.96 0 0
9.04 0 0
9.12 0 0
9.2 0 0
9.28 0 0
9.36 0 0
9.44 0 0
9.52 0 0
9.6 0 0
9.68 0 0
9.76 0 0
9.84 0 0
9.92 0 0
10 0 0
10.08 0 0
10.16 0 0
10.24 0 0
10.32 0 0
10.4 0 0
10.48 0 0
10.56 0 0
10.64 0 0
10.72 0 0
10.8 0 0
10.88 0 0
10.96 0 0
11.04 0 0
11.12 0 0
11.2 0 0
11.28 0 0
11.36 0 0
11.44 0 0
11.52 0 0
11.6 0 0
11.68 0 0
11.76 0 0
11.84 0 0
11.92 0 0
12 0 0
12.08 0 0
12.16 0 0
12.24 0 0
12.32 0 0
12.4 0 0
12.48 0 0
12.56 0 0
12.64 0 0
12.72 0 0
12.8 0 0
12.88 0 0
12.96 0 0
13.04 0 0
13.12 0 0
13.2 0 0
13.28 0 0
13.36 0 0
13.44 0 0
13.52 0 0
13.6 0 0
13.68 0 0
13.76 0 0
13.84 0 0
13.92 0 0
14 0 0
14.08 0 0
14.16 0 0
14.24 0 0
14.32 0 0
14.4 0 0
14.48 0 0
14.56 0 0
14.64 0 0
14.72 0 0
14.8 0 0
14.88 0 0
14.96 0 0
15.04 0 0
15.12 0 0
15.2 0 0
15.28 0 0
15.36 0 0
15.44 0 0
15.52 0 0
15.6 0 0
15.68 0 0
15.76 0 0
15.84 0 0
15.92 0 0
16 0 0
16.08 0 0
16.16 0 0
16.24 0 0
16.32 0 0
16.4 0 0
16.48 0 0
16.56 0 0
16.64 0 0
16.72 0 0
16.8 0 0
16.88 0 0
16.96 0 0
17.04 0 0
17.12 0 0
17.2 0 0
17.28 0 0
17.36 0 0
17.44 0 0
17.52 0 0
17.6 0 0
17.68 0 0
17.76 0 0
17.84 0 0
17.92 0 0
18 0 0
18.08 0 0
18.16 0 0
18.24 0 0
18.32 0 0
18.4 0 0
18.48 0 0
18.56 0 0
18.64 0 0
18.72 0 0
18.8 0 0
18.88 0 0
18.96 0 0
19.04 0 0
19.12 0 0
19.2 0 0
19.28 0 0
19.36 0 0
19.44 0 0
19.52 0 0
19.6 0 0
19.68 0 0
19.76 0 0
19.84 0 0
19.92 0 0
20 0 0
20.08 0 0
20.16 0 0
20.24 0 0
20.32 0 0
20.4 0 0
20.48 0 0
20.56 0 0
20.64 0 0
20.72 0 0
20.8 0 0
20.88 0 0
20.96 0 0
21.04 0 0
21.12 0 0
21.2 0 0
21.28 0 0
21.36 0 0
21.44 0 0
21.52 0 0
21.6 0 0
21.68 0 0
21.76 0 0
21.84 0 0
21.92 0 0
22 0 0
22.08 0 0
22.16 0 0
22.24 0 0
22.32 0 0
22.4 0 0
22.48 0 0
22.56 0 0
22.64 0 0
22.72 0 0
22.8 0 0
22.88 0 0
22.96 0 0
23.04 0 0
23.12 0 0
23.2 0 0
23.28 0 0
23.36 0 0
23.44 0 0
23.52 0 0
23.6 0 0
23.68 0 0
23.76 0 0
23.84 0 0
23.92 0 0
24 0 0
24.08 0 0
24.16 0 0
24.24 0 0
24.32 0 0
24.4 0 0
24.48 0 0
24.56 0 0
24.64 0 0
24.72 0 0
24.8 0 0
24.88 0 0
24.96 0 0
25.04 0 0
25.12 0 0
25.2 0 0
25.28 0 0
25.36 0 0
25.44 0 0
25.52 0 0
25.6 0 0
25.68 0 0
25.76 0 0
25.84 0 0
25.92 0 0
26 0 0
26.08 0 0
26.16 0 0
26.24 0 0
26.32 0 0
26.4 0 0
26.48 0 0
26.56 0 0
26.64 0 0
26.72 0 0
26.8 0 0
26.88 0 0
26.96 0 0
27.04 0 0
27.12 0 0
27.2 0 0
27.28 0 0
27.36 0 0
27.44 0 0
27.52 0 0
27.6 0 0
27.68 0 0
27.76 0 0
27.84 0 0
27.92 0 0
28 0 0
28.08 0 0
28.16 0 0
28.24 0 0
28.32 0 0
28.4 0 0
28.48 0 0
28.56 0 0
28.64 0 0
28.72 0 0
28.8 0 0
28.88 0 0
28.96 0 0
29.04 0 0
29.12 0 0
29.2 0 0
29.28 0 0
29.36 0 0
29.44 0 0
29.52 0 0
29.6 0 0
29.68 0 0
29.76 0 0
29.84 0 0
29.92 0 0
30 0 0
30.08 0 0
30.16 0 0
30.24 0 0
30.32 0 0
30.4 0 0
30.48 0 0
30.56 0 0
30.64 0 0
30.72 0 0
30.8 0 0
30.88 0 0
30.96 0 0
31.04 0 0
31.12 0 0
31.2 0 0
31.28 0 0
31.36 0 0
31.44 0 0
31.52 0 0
31.6 0 0
31.68 0 0
31.76 0 0
31.84 0 0
31.92 0 0
0 0.02 0
0.08 0.02 0
0.16 0.02 0
0.24 0.02 0
0.32 0.02 0
0.4 0.02 0
0.48 0.02 0
0.56 0.02 0
0.64 0.02 0
0.72 0.02 0
0.8 0.02 0
0.88 0.02 0
0.96 0.02 0
1.04 0.02 0
1.12 0.02 0
1.2 0.02 0
1.28 0.02 0
1.36 0.02 0
1.44 0.02 0
1.52 0.02 0
1.6 0.02 0
1.68 0.02 0
1.76 0.02 0
1.84 0.02 0
1.92 0.02 0
2 0.02 0
2.08 0.02 0
2.16 0.02 0
2.24 0.02 0
2.32 0.02 0
2.4 0.02 0
2.48 0.02 0
2.56 0.02 0
2.64 0.02 0
2.72 0.02 0
2.8 0.02 0
2.88 0.02 0
2.96 0.02 0
3.04 0.02 0
3.12 0.02 0
3.2 0.02 0
3.28 0.02 0
3.36 0.02 0
3.44 0.02 0
3.52 0.02 0
3.6 0.02 0
3.68 0.02 0
3.76 0.02 0
3.84 0.02 0
3.92 0.02 0
4 0.02 0
4.08 0.02 0
4.16 0.02 0
4.24 0.02 0
4.32 0.02 0
4.4 0.02 0
4.48 0.02 0
4.56 0.02 0
4.64 0.02 0
4.72 0.02 0
4.8 0.02 0
4.88 0.02 0
4.96 0.02 0
5.04 0.02 0
5.12 0.02 0
5.2 0.02 0
5.28 0.02 0
5.36 0.02 0
5.44 0.02 0
5.52 0.02 0
5.6 0.02 0
5.68 0.02 0
5.76 0.02 0
5.84 0.02 0
5.92 0.02 0
6 0.02 0
6.08 0.02 0
6.16 0.02 0
6.24 0.02 0
6.32 0.02 0
6.4 0.02 0
6.48 0.02 0
6.56 0.02 0
6.64 0.02 0
6.72 0.02 0
6.8 0.02 0
6.88 0.02 0
6.96 0.02 0
7.04 0.02 0
7.12 0.02 0
7.2 0.02 0
7.28 0.02 0
7.36 0.02 0
7.44 0.02 0
7.52 0.02 0
7.6 0.02 0
7.68 0.02 0
7.76 0.02 0
7.84 0.02 0
7.92 0.02 0
8 0.02 0
8.08 0.02 0
8.16 0.02 0
8.24 0.02 0
8.32 0.02 0
8.4 0.02 0
8.48 0.02 0
8.56 0.02 0
8.64 0.02 0
8.72 0.02 0
8.8 0.02 0
8.88 0.02 0
8.96 0.02 0
9.04 0.02 0
9.12 0.02 0
9.2 0.02 0
9.28 0.02 0
9.36 0.02 0
9.44 0.02 0
9.52 0.02 0
9.6 0.02 0
9.68 0.02 0
9.76 0.02 0
9.84 0.02 0
9.92 0.02 0
10 0.02 0
10.08 0.02 0
10.16 0.02 0
10.24 0.02 0
10.32 0.02 0
10.4 0.02 0
10.48 0.02 0
10.56 0.02 0
10.64 0.02 0
10.72 0.02 0
10.8 0.02 0
10.88 0.02 0
10.96 0.02 0
11.04 0.02 0
11.12 0.02 0
11.2 0.02 0
11.28 0.02 0
11.36 0.02 0
11.44 0.02 0
11.52 0.02 0
11.6 0.02 0
11.68 0.02 0
11.76 0.02 0
11.84 0.02 0
11.92 0.02 0
12 0.02 0
12.08 0.02 0
12.16 0.02 0
12.24 0.02 0
12.32 0.02 0
12.4 0.02 0
12.48 0.02 0
12.56 0.02 0
12.64 0.02 0
12.72 0.02 0
12.8 0.02 0
12.88 0.02 0
12.96 0.02 0
13.04 0.02 0
13.12 0.02 0
13.2 0.02 0
13.28 0.02 0
13.36 0.02 0
13.44 0.02 0
13.52 0.02 0
13.6 0.02 0
13.68 0.02 0
13.76 0.02 0
13.84 0.02 0
13.92 0.02 0
14 0.02 0
14.08 0.02 0
14.16 0.02 0
14.24 0.02 0
14.32 0.02 0
14.4 0.02 0
14.48 0.02 0
14.56 0.02 0
14.64 0.02 0
14.72 0.02 0
14.8 0.02 0
14.88 0.02 0
14.96 0.02 0
15.04 0.02 0
15.12 0.02 0
15.2 0.02 0
15.28 0.02 0
15.36 0.02 0
15.44 0.02 0
15.52 0.02 0
15.6 0.02 0
15.68 0.02 0
15.76 0.02 0
15.84 0.02 0
15.92 0.02 0
16 0.02 0
16.08 0.02 0
16.16 0.02 0
16.24 0.02 0
16.32 0.02 0
16.4 0.02 0
16.48 0.02 0
16.56 0.02 0
16.64 0.02 0
16.72 0.02 0
16.8 0.02 0
16.88 0.02 0
16.96 0.02 0
17.04 0.02 0
17.12 0.02 0
17.2 0.02 0
17.28 0.02 0
17.36 0.02 0
17.44 0.02 0
17.52 0.02 0
17.6 0.02 0
17.68 0.02 0
17.76 0.02 0
17.84 0.02 0
17.92 0.02 0
18 0.02 0
18.08 0.02 0
18.16 0.02 0
18.24 0.02 0
18.32 0.02 0
18.4 0.02 0
18.48 0.02 0
18.56 0.02 0
18.64 0.02 0
18.72 0.02 0
18.8 0.02 0
18.88 0.02 0
18.96 0.02 0
19.04 0.02 0
19.12 0.02 0
19.2 0.02 0
19.28 0.02 0
19.36 0.02 0
19.44 0.02 0
19.52 0.02 0
19.6 0.02 0
19.68 0.02 0
19.76 0.02 0
19.84 0.02 0
19.92 0.02 0
20 0.02 0
20.08 0.02 0
20.16 0.02 0
20.24 0.02 0
20.32 0.02 0
20.4 0.02 0
20.48 0.02 0
20.56 0.02 0
20.64 0.02 0
20.72 0.02 0
20.8 0.02 0
20.88 0.02 0
20.96 0.02 0
21.04 0.02 0
21.12 0.02 0
21.2 0.02 0
21.28 0.02 0
21.36 0.02 0
21.44 0.02 0
21.52 0.02 0
21.6 0.02 0
21.68 0.02 0
21.76 0.02 0
21.84 0.02 0
21.92 0.02 0
22 0.02 0
22.08 0.02 0
22.16 0.02 0
22.24 0.02 0
22.32 0.02 0
22.4 0.02 0
22.48 0.02 0
22.56 0.02 0
22.64 0.02 0
22.72 0.02 0
22.8 0.02 0
22.88 0.02 0
22.96 0.02 0
23.04 0.02 0
23.12 0.02 0
23.2 0.02 0
23.28 0.02 0
23.36 0.02 0
23.44 0.02 0
23.52 0.02 0
23.6 0.02 0
23.68 0.02 0
23.76 0.02 0
23.84 0.02 0
23.92 0.02 0
24 0.02 0
24.08 0.02 0
24.16 0.02 0
24.24 0.02 0
24.32 0.02 0
24.4 0.02 0
24.48 0.02 0
24.56 0.02 0
24.64 0.02 0
24.72 0.02 0
24.8 0.02 0
24.88 0.02 0
24.96 0.02 0
25.04 0.02 0
25.12 0.02 0
25.2 0.02 0
25.28 0.02 0
25.36 0.02 0
25.44 0.02 0
25.52 0.02 0
25.6 0.02 0
25.68 0.02 0
25.76 0.02 0
25.84 0.02 0
25.92 0.02 0
26 0.02 0
26.08 0.02 0
26.16 0.02 0
26.24 0.02 0
26.32 0.02 0
26.4 0.02 0
26.48 0.02 0
26.56 0.02 0
26.64 0.02 0
26.72 0.02 0
26.8 0.02 0
26.88 0.02 0
26.96 0.02 0
27.04 0.02 0
27.12 0.02 0
27.2 0.02 0
27.28 0.02 0
27.36 0.02 0
27.44 0.02 0
27.52 0.02 0
27.6 0.02 0
27.68 0.02 0
27.76 0.02 0
27.84 0.02 0
27.92 0.02 0
28 0.02 0
28.08 0.02 0
28.16 0.02 0
28.24 0.02 0
28.32 0.02 0
28.4 0.02 0
28.48 0.02 0
28.56 0.02 0
28.64 0.02 0
28.72 0.02 0
28.8 0.02 0
28.88 0.02 0
28.96 0.02 0
29.04 0.02 0
29.12 0.02 0
29.2 0.02 0
29.28 0.02 0
29.36 0.02 0
29.44 0.02 0
29.52 0.02 0
29.6 0.02 0
29.68 0.02 0
29.76 0.02 0
29.84 0.02 0
29.92 0.02 0
30 0.02 0
30.08 0.02 0
30.16 0.02 0
30.24 0.02 0
30.32 0.02 0
30.4 0.02 0
30.48 0.02 0
30.56 0.02 0
30.64 0.02 0
30.72 0.02 0
30.8 0.02 0
30.88 0.02 0
30.96 0.02 0
31.04 0.02 0
31.12 0.02 0
31.2 0.02 0
31.28 0.02 0
31.36 0.02 0
31.44 0.02 0
31.52 0.02 0
31.6 0.02 0
31.68 0.02 0
31.76 0.02 0
31.84 0.02 0
31.92 0.02 0
0 0.04 0
0.08 0.04 0
0.16 0.04 0
0.24 0.04 0
0.32 0.04 0
0.4 0.04 0
0.48 0.04 0
0.56 0.04 0
0.64 0.04 0
0.72 0.04 0
0.8 0.04 0
0.88 0.04 0
0.96 0.04 0
1.04 0.04 0
1.12 0.04 0
1.2 0.04 0
1.28 0.04 0
1.36 0.04 0
1.44 0.04 0
1.52 0.04 0
1.6 0.04 0
1.68 0.04 0
1.76 0.04 0
1.84 0.04 0
1.92 0.04 0
2 0.04 0
2.08 0.04 0
2.16 0.04 0
2.24 0.04 0
2.32 0.04 0
2.4 0.04 0
2.48 0.04 0
2.56 0.04 0
2.64 0.04 0
2.72 0.04 0
2.8 0.04 0
2.88 0.04 0
2.96 0.04 0
3.04 0.04 0
3.12 0.04 0
3.2 0.04 0
3.28 0.04 0
3.36 0.04 0
3.44 0.04 0
3.52 0.04 0
3.6 0.04 0
3.68 0.04 0
3.76 0.04 0
3.84 0.04 0
3.92 0.04 0
4 0.04 0
4.08 0.04 0
4.16 0.04 0
4.24 0.04 0
4.32 0.04 0
4.4 0.04 0
4.48 0.04 0
4.56 0.04 0
4.64 0.04 0
4.72 0.04 0
4.8 0.04 0
4.88 0.04 0
4.96 0.04 0
5.04 0.04 0
5.12 0.04 0
5.2 0.04 0
5.28 0.04 0
5.36 0.04 0
5.44 0.04 0
5.52 0.04 0
5.6 0.04 0
5.68 0.04 0
5.76 0.04 0
5.84 0.04 0
5.92 0.04 0
6 0.04 0
6.08 0.04 0
6.16 0.04 0
6.24 0.04 0
6.32 0.04 0
6.4 0.04 0
6.48 0.04 0
6.56 0.04 0
6.64 0.04 0
6.72 0.04 0
6.8 0.04 0
6.88 0.04 0
6.96 0.04 0
7.04 0.04 0
7.12 0.04 0
7.2 0.04 0
7.28 0.04 0
7.36 0.04 0
7.44 0.04 0
7.52 0.04 0
7.6 0.04 0
7.68 0.04 0
7.76 0.04 0
7.84 0.04 0
[...]
POINT_DATA 20000

SCALARS v float 1
LOOKUP_TABLE default
0
0
0
0
0
0
0
0
0
0
0
0
0
0
0
0
0
0
0
0
0
0
0
0
0
0
0
0
0
0
0
0
0
0
0
0
0
0
0
0
0
0
0
0
0
0
0
0
0
0
0
0
0
0
0
0
0
0
0
0
0
0
0
0
0
0
0
0
0
0
0
0
0
0
0
0
0
0
0
0
0
0
0
0
0
0
0
0
0
0
0
0
0
0
0
0
0
0
0
0
0
0
0
0
0
0
0
0
0
0
0
0
0
0
0
0
0
0
0
0
0
0
0
0
0
0
0
0
0
0
0
0
0
0
0
0
0
0
0
0
0
0
0
0
0
0
0
0
0
0
0
0
0
0
0
0
0
0
0
0
0
0
0
0
0
0
0
0
0
0
0
0
0
0
0
0
0
0
0
0
0
0
0
0
0
0
0
0
0
0
0
0
0
0
0
0
0
0
0
0
0
0
0
0
0
0
0
0
0
0
0
0
0
0
0
0
0
0
0
0
0
0
0
0
0
0
0
0
0
0
0
0
0
0
0
0
0
0
0
0
0
0
0
0
0
0
0
0
0
0
0
0
0
0
0
0
0
0
0
0
0
0
0
0
0
0
0
0
0
0
0
0
0
0
0
0
0
0
0
0
0
0
0
0
0
0
0
0
0
0
0
0
0
0
0
0
0
0
0
0
0
0
0
0
0
0
0
0
0
0
0
0
0
0
0
0
0
0
0
0
0
0
0
0
0
0
0
0
0
0
0
0
0
0
0
0
0
0
0
0
0
0
0
0
0
0
0
0
0
0
0
0
0
0
0
0
0
0
0
0
0
0
0
0
0
0
0
0
0
0
0
0
0
0
0
0
0
0
0
0
0
0
0
0
0
0
0
0
0
0
0
0
0
0
0
0
0
0
0
0
-0.123213
0.123213
0.0537764
0.019423
0.00876683
0.00507321
0.00337108
0.0024205
0.00183056
0.00143925
0.00116691
0.000970046
0.000823129
0.000710392
0.000621718
0.000550419
0.000491965
0.000443216
0.000401955
0.000366583
0.000335927
0.000309111
0.000285467
0.000264479
0.000245735
0.000228907
0.000213725
0.000199966
0.000187447
0.000176017
0.000165549
0.000155937
0.000147091
0.000138929
0.00013138
0.000124379
0.00011787
0.000111802
0.000106136
0.000100838
9.58782e-05
9.12318e-05
8.68729e-05
8.27753e-05
7.89134e-05
7.5263e-05
7.18035e-05
6.85192e-05
6.53999e-05
6.24399e-05
5.96355e-05
5.69814e-05
5.44677e-05
5.20797e-05
4.98001e-05
4.76146e-05
4.55148e-05
4.34996e-05
4.15718e-05
3.9734e-05
3.79858e-05
3.6323e-05
3.47376e-05
3.32189e-05
3.17536e-05
3.03281e-05
2.89335e-05
2.75698e-05
2.62482e-05
2.49857e-05
2.37952e-05
2.26761e-05
2.16119e-05
2.0578e-05
1.95546e-05
1.85364e-05
1.75335e-05
1.65643e-05
1.56443e-05
1.47796e-05
1.39667e-05
1.31957e-05
1.24534e-05
1.17239e-05
1.09905e-05
1.02409e-05
9.47498e-06
8.70982e-06
7.97593e-06
7.30318e-06
6.70346e-06
6.16088e-06
5.63736e-06
5.0916e-06
4.50078e-06
3.87229e-06
3.23871e-06
2.6401e-06
2.10439e-06
1.6362e-06
1.21766e-06
8.17529e-07
4.01774e-07
-5.80572e-08
-5.78583e-07
-1.1586e-06
-1.77464e-06
-2.38313e-06
-2.93392e-06
-3.39376e-06
-3.76879e-06
-4.11139e-06
-4.50173e-06
-5.00879e-06
-5.65014e-06
-6.37453e-06
-7.08111e-06
-7.66893e-06
-8.09127e-06
-8.38449e-06
-8.65316e-06
-9.01776e-06
-9.5522e-06
-1.02449e-05
-1.10043e-05
-1.17062e-05
-1.22564e-05
-1.26362e-05
-1.29079e-05
-1.31796e-05
-1.35485e-05
-1.40549e-05
-1.46662e-05
-1.52987e-05
-1.58612e-05
-1.62983e-05
-1.66128e-05
-1.6857e-05
-1.71042e-05
-1.74123e-05
-1.78002e-05
-1.82448e-05
-1.86973e-05
-1.9108e-05
-1.9448e-05
-1.97182e-05
-1.99437e-05
-2.01589e-05
-2.03906e-05
-2.0648e-05
-2.09212e-05
-2.1189e-05
-2.14295e-05
-2.16298e-05
-2.17904e-05
-2.19236e-05
-2.20472e-05
-2.21773e-05
-2.23229e-05
-2.24834e-05
-2.26504e-05
-2.28115e-05
-2.29553e-05
-2.30741e-05
-2.31664e-05
-2.32357e-05
-2.32889e-05
-2.33335e-05
-2.3376e-05
-2.34203e-05
-2.34675e-05
-2.35166e-05
-2.35654e-05
-2.36116e-05
-2.36534e-05
-2.36902e-05
-2.37223e-05
-2.37507e-05
-2.37768e-05
-2.38019e-05
-2.3827e-05
-2.38528e-05
-2.38794e-05
-2.39069e-05
-2.3935e-05
-2.39632e-05
-2.39914e-05
-2.40193e-05
-2.40468e-05
-2.4074e-05
-2.41009e-05
-2.41275e-05
-2.4154e-05
-2.41804e-05
-2.42068e-05
-2.42332e-05
-2.42596e-05
-2.4286e-05
-2.43124e-05
-2.43387e-05
-2.4365e-05
-2.43911e-05
-2.44172e-05
-2.44432e-05
-2.44691e-05
-2.44949e-05
-2.45206e-05
-2.45462e-05
-2.45718e-05
-2.45973e-05
-2.46227e-05
-2.4648e-05
-2.46732e-05
-2.46983e-05
-2.47234e-05
-2.47484e-05
-2.47732e-05
-2.4798e-05
-2.48227e-05
-2.48474e-05
-2.48719e-05
-2.48963e-05
-2.49207e-05
-2.49449e-05
-2.49691e-05
-2.49931e-05
-2.50171e-05
-2.5041e-05
-2.50648e-05
-2.50885e-05
-2.51121e-05
-2.51356e-05
-2.51591e-05
-2.51824e-05
-2.52056e-05
-2.52288e-05
-2.52518e-05
-2.52748e-05
-2.52976e-05
-2.53204e-05
-2.53431e-05
-2.53656e-05
-2.53881e-05
-2.54105e-05
-2.54328e-05
-2.5455e-05
-2.54771e-05
-2.54991e-05
-2.55211e-05
-2.55429e-05
-2.55646e-05
-2.55863e-05
-2.56078e-05
-2.56293e-05
-2.56507e-05
-2.5672e-05
-2.56932e-05
-2.57143e-05
-2.57353e-05
-2.57562e-05
-2.5777e-05
-2.57978e-05
-2.58184e-05
-2.5839e-05
-2.58595e-05
-2.58799e-05
-2.59002e-05
-2.59204e-05
-2.59406e-05
-2.59606e-05
-2.59806e-05
-2.60005e-05
-2.60203e-05
-2.604e-05
-2.60597e-05
-2.60792e-05
-2.60987e-05
-2.61181e-05
-2.61375e-05
-2.61567e-05
-2.61759e-05
-2.6195e-05
-2.6214e-05
-2.6233e-05
-2.62519e-05
-2.62707e-05
-2.62894e-05
-2.63081e-05
-2.63267e-05
-2.63452e-05
-2.63637e-05
-2.6382e-05
-2.64004e-05
-2.64186e-05
-2.64368e-05
-2.64549e-05
-2.6473e-05
-2.6491e-05
-2.65089e-05
-2.65268e-05
-2.65446e-05
-2.65624e-05
-2.65801e-05
-2.65977e-05
-2.66153e-05
-2.66328e-05
-2.66503e-05
-2.66677e-05
-2.66851e-05
-2.67024e-05
-2.67196e-05
-2.67369e-05
-2.6754e-05
-2.67711e-05
-2.67882e-05
-2.68052e-05
-2.68222e-05
-2.68391e-05
-2.6856e-05
-2.68728e-05
-2.68896e-05
-2.69064e-05
-2.6923e-05
-2.69397e-05
-2.69563e-05
-2.69729e-05
-2.69895e-05
-2.7006e-05
-2.70224e-05
-2.70389e-05
-2.70553e-05
-2.70717e-05
-2.7088e-05
-2.71043e-05
-2.71205e-05
-2.71369e-05
-2.71529e-05
-2.71693e-05
-2.71852e-05
-2.72015e-05
-2.72174e-05
-2.72337e-05
-2.72494e-05
-2.72658e-05
-2.72813e-05
-2.72978e-05
-2.73131e-05
-2.73297e-05
-2.73448e-05
-2.73616e-05
-2.73763e-05
-2.73934e-05
-2.74078e-05
-2.74252e-05
-2.7439e-05
-2.7457e-05
-2.74701e-05
-2.74888e-05
-2.75011e-05
-2.75207e-05
-2.75318e-05
-2.75528e-05
-2.75623e-05
-2.75851e-05
-2.75925e-05
-2.76177e-05
-2.76223e-05
-2.76508e-05
-2.76517e-05
-2.76845e-05
-2.76807e-05
-2.7719e-05
-2.7709e-05
-2.77548e-05
-2.77364e-05
-2.77922e-05
-2.77626e-05
-2.7832e-05
-2.77871e-05
-2.78752e-05
-2.78091e-05
-2.79231e-05
-2.78279e-05
-2.79771e-05
-2.78427e-05
-2.80379e-05
-2.78541e-05
-2.81041e-05
-2.78646e-05
-2.81703e-05
-2.78794e-05
-2.82247e-05
-2.79011e-05
-2.82433e-05
-2.79048e-05
-2.81457e-05
-2.77435e-05
-2.69325e-05
-2.58078e-05
-2.58078e-05
-0.142139
0.142139
0.100988
0.0538955
0.0302383
0.0188997
0.0129085
0.00939355
0.00716025
0.00565701
0.00460024
0.00383101
0.00325434
0.00281069
0.0024614
0.00218064
0.00195072
0.00175932
0.00159766
0.00145939
0.00133982
0.00123546
0.00114362
0.00106223
0.000989659
0.000924584
0.000865941
0.000812856
0.000764607
0.000720599
0.000680334
0.00064339
0.000609405
0.000578064
0.000549084
0.000522219
0.000497249
0.000473989
0.000452282
0.000431993
0.000413008
0.000395221
0.000378529
0.000362834
0.00034804
0.000334063
0.00032083
0.000308287
0.000296393
0.000285121
0.000274445
0.000264337
0.000254752
0.000245636
0.000236934
0.0002286
0.000220611
0.000212961
0.000205653
0.000198687
0.000192053
0.00018573
0.000179687
0.000173888
0.000168291
0.000162859
0.000157572
0.000152437
0.00014749
0.000142773
0.000138309
0.000134081
0.00013003
0.000126086
0.000122202
0.000118375
0.000114642
0.000111053
0.000107645
0.000104425
0.000101371
9.84481e-05
9.56132e-05
9.28198e-05
9.00257e-05
8.72076e-05
8.43812e-05
8.16069e-05
7.89704e-05
7.65404e-05
7.43245e-05
7.22549e-05
7.02161e-05
6.81029e-05
6.58753e-05
6.35778e-05
6.13134e-05
5.91883e-05
5.7261e-05
5.55195e-05
5.38936e-05
5.22845e-05
5.0597e-05
4.87617e-05
4.67518e-05
4.45954e-05
4.23798e-05
4.02347e-05
3.82855e-05
3.65885e-05
3.50824e-05
3.35914e-05
3.18964e-05
2.98475e-05
2.74588e-05
2.49257e-05
2.25414e-05
2.05494e-05
1.90089e-05
1.77509e-05
1.64554e-05
1.48139e-05
1.26909e-05
1.01965e-05
7.63142e-06
5.33427e-06
3.51187e-06
2.14258e-06
9.98667e-07
-2.29401e-07
-1.77568e-06
-3.68946e-06
-5.82454e-06
-7.92413e-06
-9.75114e-06
-1.11966e-05
-1.23167e-05
-1.32883e-05
-1.4315e-05
-1.55316e-05
-1.69533e-05
-1.84852e-05
-1.99792e-05
-2.13064e-05
-2.24095e-05
-2.33154e-05
-2.41093e-05
-2.48874e-05
-2.57139e-05
-2.65977e-05
-2.74987e-05
-2.83528e-05
-2.91038e-05
-2.97271e-05
-3.02364e-05
-3.06745e-05
-3.10934e-05
-3.15339e-05
-3.20123e-05
-3.25183e-05
-3.30223e-05
-3.34878e-05
-3.38846e-05
-3.41972e-05
-3.44272e-05
-3.45901e-05
-3.47086e-05
-3.48057e-05
-3.48986e-05
-3.49967e-05
-3.5101e-05
-3.52074e-05
-3.5309e-05
-3.53994e-05
-3.54748e-05
-3.55343e-05
-3.55799e-05
-3.56155e-05
-3.56453e-05
-3.56732e-05
-3.57022e-05
-3.57337e-05
-3.5768e-05
-3.58047e-05
-3.58429e-05
-3.58815e-05
-3.59197e-05
-3.59572e-05
-3.59935e-05
-3.60289e-05
-3.60636e-05
-3.60978e-05
-3.61318e-05
-3.61657e-05
-3.61998e-05
-3.62341e-05
-3.62685e-05
-3.6303e-05
-3.63375e-05
-3.6372e-05
-3.64065e-05
-3.64409e-05
-3.64751e-05
-3.65093e-05
-3.65433e-05
-3.65772e-05
-3.66111e-05
-3.66448e-05
-3.66785e-05
-3.67121e-05
-3.67456e-05
-3.6779e-05
-3.68123e-05
-3.68456e-05
-3.68788e-05
-3.69119e-05
-3.69449e-05
-3.69778e-05
-3.70106e-05
-3.70433e-05
-3.7076e-05
-3.71085e-05
-3.71409e-05
-3.71733e-05
-3.72055e-05
-3.72377e-05
-3.72698e-05
-3.73017e-05
-3.73336e-05
-3.73653e-05
-3.7397e-05
-3.74285e-05
-3.746e-05
-3.74913e-05
-3.75226e-05
-3.75537e-05
-3.75848e-05
-3.76157e-05
-3.76465e-05
-3.76773e-05
-3.77079e-05
-3.77384e-05
-3.77688e-05
-3.77991e-05
-3.78293e-05
-3.78594e-05
-3.78893e-05
-3.79192e-05
-3.7949e-05
-3.79786e-05
-3.80082e-05
-3.80376e-05
-3.80669e-05
-3.80962e-05
-3.81253e-05
-3.81543e-05
-3.81832e-05
-3.8212e-05
-3.82406e-05
-3.82692e-05
-3.82977e-05
-3.8326e-05
-3.83543e-05
-3.83824e-05
-3.84104e-05
-3.84383e-05
-3.84661e-05
-3.84938e-05
-3.85214e-05
-3.85489e-05
-3.85763e-05
-3.86036e-05
-3.86307e-05
-3.86578e-05
-3.86848e-05
-3.87116e-05
-3.87383e-05
-3.8765e-05
-3.87915e-05
-3.88179e-05
-3.88443e-05
-3.88705e-05
-3.88966e-05
-3.89226e-05
-3.89485e-05
-3.89743e-05
-3.9e-05
-3.90256e-05
-3.90511e-05
-3.90766e-05
-3.91019e-05
-3.91271e-05
-3.91522e-05
-3.91772e-05
-3.92021e-05
-3.92269e-05
-3.92516e-05
-3.92762e-05
-3.93007e-05
-3.93252e-05
-3.93495e-05
-3.93737e-05
-3.93979e-05
-3.94219e-05
-3.94459e-05
-3.94697e-05
-3.94935e-05
-3.95172e-05
-3.95408e-05
-3.95643e-05
-3.95877e-05
-3.9611e-05
-3.96342e-05
-3.96574e-05
-3.96804e-05
-3.97034e-05
-3.97262e-05
-3.9749e-05
-3.97717e-05
-3.97944e-05
-3.98169e-05
-3.98394e-05
-3.98617e-05
-3.9884e-05
-3.99061e-05
-3.99283e-05
-3.99503e-05
-3.99723e-05
-3.99941e-05
-4.0016e-05
-4.00375e-05
-4.00594e-05
-4.00807e-05
-4.01024e-05
-4.01235e-05
-4.01451e-05
-4.0166e-05
-4.01876e-05
-4.02081e-05
-4.02298e-05
-4.02499e-05
-4.02717e-05
-4.02914e-05
-4.03133e-05
-4.03325e-05
-4.03547e-05
-4.03733e-05
-4.03959e-05
-4.04137e-05
-4.04369e-05
-4.04537e-05
-4.04777e-05
-4.04932e-05
-4.05185e-05
-4.05324e-05
-4.05593e-05
-4.0571e-05
-4.06002e-05
-4.0609e-05
-4.06414e-05
-4.06464e-05
-4.0683e-05
-4.06829e-05
-4.07254e-05
-4.07184e-05
-4.07688e-05
-4.07529e-05
-4.08136e-05
-4.0786e-05
-4.08604e-05
-4.08175e-05
-4.091e-05
-4.0847e-05
-4.09634e-05
-4.08738e-05
-4.10223e-05
-4.08969e-05
-4.1089e-05
-4.09145e-05
-4.11669e-05
-4.09244e-05
-4.12602e-05
-4.09241e-05
-4.13735e-05
-4.09117e-05
-4.15092e-05
-4.08888e-05
-4.16637e-05
-4.08636e-05
-4.18205e-05
-4.08511e-05
-4.19435e-05
-4.08566e-05
-4.19639e-05
-4.07999e-05
-4.1657e-05
-4.02295e-05
-3.84562e-05
-3.58124e-05
-3.58124e-05
-0.122214
0.122214
0.121647
0.0822499
0.0539761
0.0368446
0.026373
0.0196955
0.0152441
0.012158
0.00994571
0.0083135
0.00707818
0.00612151
0.00536496
0.00475511
0.00425491
0.00383822
0.00348623
0.00318525
0.00292512
0.0026982
0.00249863
0.00232188
0.00216434
0.00202314
0.00189594
0.00178085
0.00167628
0.00158093
0.00149372
0.00141373
0.00134015
0.00127229
0.00120956
0.0011514
0.00109735
0.00104701
0.00100004
0.000956149
0.000915071
0.000876575
0.000840438
0.000806447
0.000774408
0.000744143
0.000715506
0.00068838
0.000662676
0.000638326
0.000615265
0.000593417
0.000572687
0.000552962
0.000534132
0.000516112
0.000498855
0.000482344
0.000466575
0.000451538
0.000437202
0.00042352
0.000410427
0.000397852
0.000385719
0.000373966
0.00036256
0.00035152
0.000340906
0.000330784
0.000321179
0.000312043
0.000303264
0.000294719
0.000286333
0.00027811
0.000270121
0.000262452
0.000255157
0.000248233
0.000241634
0.000235288
0.000229116
0.000223038
0.000216987
0.000210935
0.000204923
0.000199065
0.000193506
0.000188349
0.00018358
0.000179058
0.000174578
0.000169966
0.000165178
0.000160312
0.000155557
0.000151086
0.000146979
0.000143187
0.000139569
0.000135942
0.000132146
0.000128073
0.000123699
0.000119097
0.000114436
0.000109943
0.000105815
0.000102112
9.86865e-05
9.52116e-05
9.13193e-05
8.67965e-05
8.17292e-05
7.65019e-05
7.16274e-05
6.74849e-05
6.41062e-05
6.11365e-05
5.80019e-05
5.4203e-05
4.95785e-05
4.43948e-05
3.92131e-05
3.46052e-05
3.08695e-05
2.78952e-05
2.52376e-05
2.23573e-05
1.88909e-05
1.48173e-05
1.04438e-05
6.23439e-06
2.57874e-06
-3.82034e-07
-2.79416e-06
-4.99215e-06
-7.32465e-06
-9.99552e-06
-1.29914e-05
-1.61168e-05
-1.91052e-05
-2.17452e-05
-2.39624e-05
-2.58289e-05
-2.75073e-05
-2.91646e-05
-3.09e-05
-3.2713e-05
-3.45215e-05
-3.62112e-05
-3.76908e-05
-3.893e-05
-3.99653e-05
-4.08788e-05
-4.17614e-05
-4.2678e-05
-4.36476e-05
-4.4643e-05
-4.56064e-05
-4.64738e-05
-4.71962e-05
-4.77538e-05
-4.81569e-05
-4.84393e-05
-4.86446e-05
-4.88141e-05
-4.89774e-05
-4.91486e-05
-4.93276e-05
-4.95053e-05
-4.96694e-05
-4.98093e-05
-4.99192e-05
-4.99992e-05
-5.00542e-05
-5.00918e-05
-5.01203e-05
-5.01467e-05
-5.01758e-05
-5.021e-05
-5.02495e-05
-5.02931e-05
-5.03391e-05
-5.03856e-05
-5.04312e-05
-5.0475e-05
-5.0517e-05
-5.05572e-05
-5.05962e-05
-5.06344e-05
-5.06724e-05
-5.07105e-05
-5.07489e-05
-5.07877e-05
-5.08268e-05
-5.08662e-05
-5.09056e-05
-5.09451e-05
-5.09846e-05
-5.10239e-05
-5.1063e-05
-5.1102e-05
-5.11409e-05
-5.11797e-05
-5.12183e-05
-5.12569e-05
-5.12953e-05
-5.13337e-05
-5.13721e-05
-5.14103e-05
-5.14485e-05
-5.14866e-05
-5.15246e-05
-5.15626e-05
-5.16004e-05
-5.16382e-05
-5.16759e-05
-5.17134e-05
-5.17509e-05
-5.17883e-05
-5.18256e-05
-5.18628e-05
-5.18999e-05
-5.19369e-05
-5.19738e-05
-5.20105e-05
-5.20472e-05
-5.20838e-05
-5.21203e-05
-5.21567e-05
-5.2193e-05
-5.22291e-05
-5.22652e-05
-5.23012e-05
-5.2337e-05
-5.23727e-05
-5.24084e-05
-5.24439e-05
-5.24793e-05
-5.25146e-05
-5.25498e-05
-5.25848e-05
-5.26198e-05
-5.26546e-05
-5.26894e-05
-5.2724e-05
-5.27585e-05
-5.27929e-05
-5.28271e-05
-5.28613e-05
-5.28953e-05
-5.29292e-05
-5.2963e-05
-5.29967e-05
-5.30303e-05
-5.30637e-05
-5.3097e-05
-5.31302e-05
-5.31633e-05
-5.31963e-05
-5.32291e-05
-5.32619e-05
-5.32945e-05
-5.3327e-05
-5.33593e-05
-5.33916e-05
-5.34237e-05
-5.34557e-05
-5.34876e-05
-5.35193e-05
-5.3551e-05
-5.35825e-05
-5.36139e-05
-5.36452e-05
-5.36763e-05
-5.37074e-05
-5.37383e-05
-5.37691e-05
-5.37998e-05
-5.38303e-05
-5.38607e-05
-5.38911e-05
-5.39213e-05
-5.39513e-05
-5.39813e-05
-5.40111e-05
-5.40408e-05
-5.40704e-05
-5.40999e-05
-5.41292e-05
-5.41584e-05
-5.41876e-05
-5.42166e-05
-5.42454e-05
-5.42742e-05
-5.43028e-05
-5.43313e-05
-5.43597e-05
-5.4388e-05
-5.44162e-05
-5.44442e-05
-5.44721e-05
-5.44999e-05
-5.45276e-05
-5.45552e-05
-5.45827e-05
-5.461e-05
-5.46372e-05
-5.46643e-05
-5.46913e-05
-5.47182e-05
-5.4745e-05
-5.47716e-05
-5.47982e-05
-5.48245e-05
-5.48509e-05
-5.4877e-05
-5.49031e-05
-5.4929e-05
-5.49549e-05
-5.49806e-05
-5.50063e-05
-5.50317e-05
-5.50572e-05
-5.50823e-05
-5.51076e-05
-5.51324e-05
-5.51577e-05
-5.51821e-05
-5.52072e-05
-5.52314e-05
-5.52564e-05
-5.52801e-05
-5.53051e-05
-5.53284e-05
-5.53534e-05
-5.53762e-05
-5.54013e-05
-5.54234e-05
-5.54488e-05
-5.54702e-05
-5.5496e-05
-5.55164e-05
-5.55429e-05
-5.55621e-05
-5.55894e-05
-5.56072e-05
-5.56358e-05
-5.56517e-05
-5.5682e-05
-5.56954e-05
-5.57282e-05
-5.57385e-05
-5.57745e-05
-5.57806e-05
-5.58212e-05
-5.58217e-05
-5.58686e-05
-5.58615e-05
-5.59171e-05
-5.58999e-05
-5.59671e-05
-5.59365e-05
-5.60192e-05
-5.59711e-05
-5.60744e-05
-5.60033e-05
-5.61336e-05
-5.60324e-05
-5.61983e-05
-5.60579e-05
-5.62708e-05
-5.60781e-05
-5.63544e-05
-5.60911e-05
-5.64537e-05
-5.60936e-05
-5.65756e-05
-5.6081e-05
-5.67283e-05
-5.60488e-05
-5.69204e-05
-5.59941e-05
-5.71565e-05
-5.59205e-05
-5.743e-05
-5.58431e-05
-5.77125e-05
-5.57862e-05
-5.79447e-05
-5.57469e-05
-5.80214e-05
-5.55522e-05
-5.75858e-05
-5.43717e-05
-5.27329e-05
-4.7199e-05
-4.7199e-05
-0.0942677
0.0942677
0.120999
0.0969516
0.071775
0.0531788
0.0401809
0.0310905
0.0246359
0.0199625
0.0165087
0.0139038
0.0119004
0.0103303
0.00907763
0.00806126
0.00722366
0.00652348
0.00593056
0.00542267
0.00498316
0.0045994
0.00426167
0.00396237
0.00369546
0.00345613
0.00324045
0.00304521
0.00286779
0.00270598
0.00255794
0.00242212
0.00229716
0.00218188
0.00207527
0.00197641
0.00188453
0.00179894
0.00171906
0.0016444
0.00157451
0.00150898
0.00144744
0.00138953
0.00133493
0.00128336
0.00123457
0.00118837
0.0011446
0.00110315
0.00106388
0.00102666
0.000991323
0.000957691
0.000925586
0.000894875
0.000865479
0.000837362
0.000810507
0.000784884
0.000760432
0.00073707
0.000714694
0.000693195
0.000672461
0.000652402
0.000632973
0.000614203
0.000596174
0.000578972
0.000562617
0.000547024
0.00053202
0.000517423
0.000503132
0.000489162
0.000475616
0.000462617
0.000450228
0.000438432
0.000427151
0.000416273
0.000405681
0.000395265
0.000384934
0.00037466
0.000364512
0.00035466
0.000345307
0.000336582
0.000328443
0.000320667
0.00031295
0.000305053
0.00029693
0.000288743
0.000280768
0.000273244
0.000266261
0.000259723
0.000253406
0.00024704
0.000240401
0.000233352
0.00022588
0.000218107
0.00021029
0.00020275
0.000195751
0.000189346
0.000183291
0.000177099
0.000170255
0.000162493
0.00015399
0.000145335
0.000137269
0.000130299
0.000124411
0.000119043
0.000113354
0.00010666
9.87968e-05
9.02148e-05
8.17571e-05
7.42325e-05
6.80155e-05
6.28792e-05
5.81384e-05
5.30138e-05
4.70218e-05
4.01915e-05
3.30148e-05
2.61773e-05
2.02194e-05
1.52991e-05
1.116e-05
7.29508e-06
3.20715e-06
-1.36733e-06
-6.37006e-06
-1.14892e-05
-1.63314e-05
-2.06036e-05
-2.42238e-05
-2.73211e-05
-3.01449e-05
-3.29371e-05
-3.58295e-05
-3.8807e-05
-4.17401e-05
-4.44617e-05
-4.68472e-05
-4.88649e-05
-5.05794e-05
-5.21158e-05
-5.36043e-05
-5.51317e-05
-5.6715e-05
-5.83053e-05
-5.9814e-05
-6.11485e-05
-6.22438e-05
-6.30791e-05
-6.36789e-05
-6.4099e-05
-6.44076e-05
-6.46656e-05
-6.49149e-05
-6.51736e-05
-6.54395e-05
-6.56977e-05
-6.59298e-05
-6.6121e-05
-6.62645e-05
-6.63622e-05
-6.64226e-05
-6.64582e-05
-6.64817e-05
-6.65033e-05
-6.65301e-05
-6.65649e-05
-6.66078e-05
-6.66566e-05
-6.67086e-05
-6.67609e-05
-6.68115e-05
-6.68594e-05
-6.69043e-05
-6.69466e-05
-6.69871e-05
-6.70266e-05
-6.70659e-05
-6.71055e-05
-6.71456e-05
-6.71863e-05
-6.72275e-05
-6.72692e-05
-6.7311e-05
-6.73529e-05
-6.73946e-05
-6.74363e-05
-6.74777e-05
-6.75189e-05
-6.756e-05
-6.76009e-05
-6.76416e-05
-6.76823e-05
-6.77229e-05
-6.77635e-05
-6.7804e-05
-6.78444e-05
-6.78847e-05
-6.7925e-05
-6.79651e-05
-6.80052e-05
-6.80452e-05
-6.80851e-05
-6.81249e-05
-6.81647e-05
-6.82043e-05
-6.82438e-05
-6.82832e-05
-6.83225e-05
-6.83618e-05
-6.84009e-05
-6.84399e-05
-6.84788e-05
-6.85176e-05
-6.85563e-05
-6.85949e-05
-6.86334e-05
-6.86718e-05
-6.87101e-05
-6.87483e-05
-6.87863e-05
-6.88243e-05
-6.88621e-05
-6.88998e-05
-6.89375e-05
-6.8975e-05
-6.90123e-05
-6.90496e-05
-6.90868e-05
-6.91238e-05
-6.91607e-05
-6.91975e-05
-6.92342e-05
-6.92708e-05
-6.93072e-05
-6.93435e-05
-6.93797e-05
-6.94158e-05
-6.94518e-05
-6.94876e-05
-6.95233e-05
-6.95589e-05
-6.95944e-05
-6.96297e-05
-6.9665e-05
-6.97001e-05
-6.9735e-05
-6.97699e-05
-6.98046e-05
-6.98392e-05
-6.98737e-05
-6.9908e-05
-6.99422e-05
-6.99763e-05
-7.00103e-05
-7.00441e-05
-7.00778e-05
-7.01114e-05
-7.01449e-05
-7.01782e-05
-7.02114e-05
-7.02445e-05
-7.02774e-05
-7.03102e-05
-7.03429e-05
-7.03755e-05
-7.04079e-05
-7.04402e-05
-7.04724e-05
-7.05044e-05
-7.05363e-05
-7.05681e-05
-7.05998e-05
-7.06313e-05
-7.06627e-05
-7.0694e-05
-7.07251e-05
-7.07561e-05
-7.0787e-05
-7.08177e-05
-7.08483e-05
-7.08788e-05
-7.09092e-05
-7.09394e-05
-7.09695e-05
-7.09995e-05
-7.10293e-05
-7.1059e-05
-7.10886e-05
-7.11181e-05
-7.11474e-05
-7.11766e-05
-7.12057e-05
-7.12346e-05
-7.12634e-05
-7.12921e-05
-7.13206e-05
-7.1349e-05
-7.13773e-05
-7.14054e-05
-7.14335e-05
-7.14614e-05
-7.14892e-05
-7.15167e-05
-7.15443e-05
-7.15716e-05
-7.1599e-05
-7.16259e-05
-7.16531e-05
-7.16797e-05
-7.17067e-05
-7.1733e-05
-7.17598e-05
-7.17857e-05
-7.18124e-05
-7.18379e-05
-7.18645e-05
-7.18895e-05
-7.19161e-05
-7.19406e-05
-7.19672e-05
-7.19911e-05