# vtk DataFile Version 2.0
FlowField
ASCII
DATASET STRUCTURED_GRID
DIMENSIONS 400 1 50
POINTS 20000 float
0 0 0
0.08 0 0
0.16 0 0
0.24 0 0
0.32 0 0
0.4 0 0
0.48 0 0
0.56 0 0
0.64 0 0
0.72 0 0
0.8 0 0
0.88 0 0
0.96 0 0
1.04 0 0
1.12 0 0
1.2 0 0
1.28 0 0
1.36 0 0
1.44 0 0
1.52 0 0
1.6 0 0
1.68 0 0
1.76 0 0
1.84 0 0
1.92 0 0
2 0 0
2.08 0 0
2.16 0 0
2.24 0 0
2.32 0 0
2.4 0 0
2.48 0 0
2.56 0 0
2.64 0 0
2.72 0 0
2.8 0 0
2.88 0 0
2.96 0 0
3.04 0 0
3.12 0 0
3.2 0 0
3.28 0 0
3.36 0 0
3.44 0 0
3.52 0 0
3.6 0 0
3.68 0 0
3.76 0 0
3.84 0 0
3.92 0 0
4 0 0
4.08 0 0
4.16 0 0
4.24 0 0
4.32 0 0
4.4 0 0
4.48 0 0
4.56 0 0
4.64 0 0
4.72 0 0
4.8 0 0
4.88 0 0
4.96 0 0
5.04 0 0
5.12 0 0
5.2 0 0
5.28 0 0
5.36 0 0
5.44 0 0
5.52 0 0
5.6 0 0
5.68 0 0
5.76 0 0
5.84 0 0
5.92 0 0
6 0 0
6.08 0 0
6.16 0 0
6.24 0 0
6.32 0 0
6.4 0 0
6.48 0 0
6.56 0 0
6.64 0 0
6.72 0 0
6.8 0 0
6.88 0 0
6.96 0 0
7.04 0 0
7.12 0 0
7.2 0 0
7.28 0 0
7.36 0 0
7.44 0 0
7.52 0 0
7.6 0 0
7.68 0 0
7.76 0 0
7.84 0 0
7.92 0 0
8 0 0
8.08 0 0
8.16 0 0
8.24 0 0
8.32 0 0
8.4 0 0
8.48 0 0
8.56 0 0
8.64 0 0
8.72 0 0
8.8 0 0
8.88 0 0
8.96 0 0
9.04 0 0
9.12 0 0
9.2 0 0
9.28 0 0
9.36 0 0
9.44 0 0
9.52 0 0
9.6 0 0
9.68 0 0
9.76 0 0
9.84 0 0
9.92 0 0
10 0 0
10.08 0 0
10.16 0 0
10.24 0 0
10.32 0 0
10.4 0 0
10.48 0 0
10.56 0 0
10.64 0 0
10.72 0 0
10.8 0 0
10.88 0 0
10.96 0 0
11.04 0 0
11.12 0 0
11.2 0 0
11.28 0 0
11.36 0 0
11.44 0 0
11.52 0 0
11.6 0 0
11.68 0 0
11.76 0 0
11.84 0 0
11.92 0 0
12 0 0
12.08 0 0
12.16 0 0
12.24 0 0
12.32 0 0
12.4 0 0
12.48 0 0
12.56 0 0
12.64 0 0
12.72 0 0
12.8 0 0
12.88 0 0
12.96 0 0
13.04 0 0
13.12 0 0
13.2 0 0
13.28 0 0
13.36 0 0
13.44 0 0
13.52 0 0
13.6 0 0
13.68 0 0
13.76 0 0
13.84 0 0
13.92 0 0
14 0 0
14.08 0 0
14.16 0 0
14.24 0 0
14.32 0 0
14.4 0 0
14.48 0 0
14.56 0 0
14.64 0 0
14.72 0 0
14.8 0 0
14.88 0 0
14.96 0 0
15.04 0 0
15.12 0 0
15.2 0 0
15.28 0 0
15.36 0 0
15.44 0 0
15.52 0 0
15.6 0 0
15.68 0 0
15.76 0 0
15.84 0 0
15.92 0 0
16 0 0
16.08 0 0
16.16 0 0
16.24 0 0
16.32 0 0
16.4 0 0
16.48 0 0
16.56 0 0
16.64 0 0
16.72 0 0
16.8 0 0
16.88 0 0
16.96 0 0
17.04 0 0
17.12 0 0
17.2 0 0
17.28 0 0
17.36 0 0
17.44 0 0
17.52 0 0
17.6 0 0
17.68 0 0
17.76 0 0
17.84 0 0
17.92 0 0
18 0 0
18.08 0 0
18.16 0 0
18.24 0 0
18.32 0 0
18.4 0 0
18.48 0 0
18.56 0 0
18.64 0 0
18.72 0 0
18.8 0 0
18.88 0 0
18.96 0 0
19.04 0 0
19.12 0 0
19.2 0 0
19.28 0 0
19.36 0 0
19.44 0 0
19.52 0 0
19.6 0 0
19.68 0 0
19.76 0 0
19.84 0 0
19.92 0 0
20 0 0
20.08 0 0
20.16 0 0
20.24 0 0
20.32 0 0
20.4 0 0
20.48 0 0
20.56 0 0
20.64 0 0
20.72 0 0
20.8 0 0
20.88 0 0
20.96 0 0
21.04 0 0
21.12 0 0
21.2 0 0
21.28 0 0
21.36 0 0
21.44 0 0
21.52 0 0
21.6 0 0
21.68 0 0
21.76 0 0
21.84 0 0
21.92 0 0
22 0 0
22.08 0 0
22.16 0 0
22.24 0 0
22.32 0 0
22.4 0 0
22.48 0 0
22.56 0 0
22.64 0 0
22.72 0 0
22.8 0 0
22.88 0 0
22.96 0 0
23.04 0 0
23.12 0 0
23.2 0 0
23.28 0 0
23.36 0 0
23.44 0 0
23.52 0 0
23.6 0 0
23.68 0 0
23.76 0 0
23.84 0 0
23.92 0 0
24 0 0
24.08 0 0
24.16 0 0
24.24 0 0
24.32 0 0
24.4 0 0
24.48 0 0
24.56 0 0
24.64 0 0
24.72 0 0
24.8 0 0
24.88 0 0
24.96 0 0
25.04 0 0
25.12 0 0
25.2 0 0
25.28 0 0
25.36 0 0
25.44 0 0
25.52 0 0
25.6 0 0
25.68 0 0
25.76 0 0
25.84 0 0
25.92 0 0
26 0 0
26.08 0 0
26.16 0 0
26.24 0 0
26.32 0 0
26.4 0 0
26.48 0 0
26.56 0 0
26.64 0 0
26.72 0 0
26.8 0 0
26.88 0 0
26.96 0 0
27.04 0 0
27.12 0 0
27.2 0 0
27.28 0 0
27.36 0 0
27.44 0 0
27.52 0 0
27.6 0 0
27.68 0 0
27.76 0 0
27.84 0 0
27.92 0 0
28 0 0
28.08 0 0
28.16 0 0
28.24 0 0
28.32 0 0
28.4 0 0
28.48 0 0
28.56 0 0
28.64 0 0
28.72 0 0
28.8 0 0
28.88 0 0
28.96 0 0
29.04 0 0
29.12 0 0
29.2 0 0
29.28 0 0
29.36 0 0
29.44 0 0
29.52 0 0
29.6 0 0
29.68 0 0
29.76 0 0
29.84 0 0
29.92 0 0
30 0 0
30.08 0 0
30.16 0 0
30.24 0 0
30.32 0 0
30.4 0 0
30.48 0 0
30.56 0 0
30.64 0 0
30.72 0 0
30.8 0 0
30.88 0 0
30.96 0 0
31.04 0 0
31.12 0 0
31.2 0 0
31.28 0 0
31.36 0 0
31.44 0 0
31.52 0 0
31.6 0 0
31.68 0 0
31.76 0 0
31.84 0 0
31.92 0 0
0 0.02 0
0.08 0.02 0
0.16 0.02 0
0.24 0.02 0
0.32 0.02 0
0.4 0.02 0
0.48 0.02 0
0.56 0.02 0
0.64 0.02 0
0.72 0.02 0
0.8 0.02 0
0.88 0.02 0
0.96 0.02 0
1.04 0.02 0
1.12 0.02 0
1.2 0.02 0
1.28 0.02 0
1.36 0.02 0
1.44 0.02 0
1.52 0.02 0
1.6 0.02 0
1.68 0.02 0
1.76 0.02 0
1.84 0.02 0
1.92 0.02 0
2 0.02 0
2.08 0.02 0
2.16 0.02 0
2.24 0.02 0
2.32 0.02 0
2.4 0.02 0
2.48 0.02 0
2.56 0.02 0
2.64 0.02 0
2.72 0.02 0
2.8 0.02 0
2.88 0.02 0
2.96 0.02 0
3.04 0.02 0
3.12 0.02 0
3.2 0.02 0
3.28 0.02 0
3.36 0.02 0
3.44 0.02 0
3.52 0.02 0
3.6 0.02 0
3.68 0.02 0
3.76 0.02 0
3.84 0.02 0
3.92 0.02 0
4 0.02 0
4.08 0.02 0
4.16 0.02 0
4.24 0.02 0
4.32 0.02 0
4.4 0.02 0
4.48 0.02 0
4.56 0.02 0
4.64 0.02 0
4.72 0.02 0
4.8 0.02 0
4.88 0.02 0
4.96 0.02 0
5.04 0.02 0
5.12 0.02 0
5.2 0.02 0
5.28 0.02 0
5.36 0.02 0
5.44 0.02 0
5.52 0.02 0
5.6 0.02 0
5.68 0.02 0
5.76 0.02 0
5.84 0.02 0
5.92 0.02 0
6 0.02 0
6.08 0.02 0
6.16 0.02 0
6.24 0.02 0
6.32 0.02 0
6.4 0.02 0
6.48 0.02 0
6.56 0.02 0
6.64 0.02 0
6.72 0.02 0
6.8 0.02 0
6.88 0.02 0
6.96 0.02 0
7.04 0.02 0
7.12 0.02 0
7.2 0.02 0
7.28 0.02 0
7.36 0.02 0
7.44 0.02 0
7.52 0.02 0
7.6 0.02 0
7.68 0.02 0
7.76 0.02 0
7.84 0.02 0
7.92 0.02 0
8 0.02 0
8.08 0.02 0
8.16 0.02 0
8.24 0.02 0
8.32 0.02 0
8.4 0.02 0
8.48 0.02 0
8.56 0.02 0
8.64 0.02 0
8.72 0.02 0
8.8 0.02 0
8.88 0.02 0
8.96 0.02 0
9.04 0.02 0
9.12 0.02 0
9.2 0.02 0
9.28 0.02 0
9.36 0.02 0
9.44 0.02 0
9.52 0.02 0
9.6 0.02 0
9.68 0.02 0
9.76 0.02 0
9.84 0.02 0
9.92 0.02 0
10 0.02 0
10.08 0.02 0
10.16 0.02 0
10.24 0.02 0
10.32 0.02 0
10.4 0.02 0
10.48 0.02 0
10.56 0.02 0
10.64 0.02 0
10.72 0.02 0
10.8 0.02 0
10.88 0.02 0
10.96 0.02 0
11.04 0.02 0
11.12 0.02 0
11.2 0.02 0
11.28 0.02 0
11.36 0.02 0
11.44 0.02 0
11.52 0.02 0
11.6 0.02 0
11.68 0.02 0
11.76 0.02 0
11.84 0.02 0
11.92 0.02 0
12 0.02 0
12.08 0.02 0
12.16 0.02 0
12.24 0.02 0
12.32 0.02 0
12.4 0.02 0
12.48 0.02 0
12.56 0.02 0
12.64 0.02 0
12.72 0.02 0
12.8 0.02 0
12.88 0.02 0
12.96 0.02 0
13.04 0.02 0
13.12 0.02 0
13.2 0.02 0
13.28 0.02 0
13.36 0.02 0
13.44 0.02 0
13.52 0.02 0
13.6 0.02 0
13.68 0.02 0
13.76 0.02 0
13.84 0.02 0
13.92 0.02 0
14 0.02 0
14.08 0.02 0
14.16 0.02 0
14.24 0.02 0
14.32 0.02 0
14.4 0.02 0
14.48 0.02 0
14.56 0.02 0
14.64 0.02 0
14.72 0.02 0
14.8 0.02 0
14.88 0.02 0
14.96 0.02 0
15.04 0.02 0
15.12 0.02 0
15.2 0.02 0
15.28 0.02 0
15.36 0.02 0
15.44 0.02 0
15.52 0.02 0
15.6 0.02 0
15.68 0.02 0
15.76 0.02 0
15.84 0.02 0
15.92 0.02 0
16 0.02 0
16.08 0.02 0
16.16 0.02 0
16.24 0.02 0
16.32 0.02 0
16.4 0.02 0
16.48 0.02 0
16.56 0.02 0
16.64 0.02 0
16.72 0.02 0
16.8 0.02 0
16.88 0.02 0
16.96 0.02 0
17.04 0.02 0
17.12 0.02 0
17.2 0.02 0
17.28 0.02 0
17.36 0.02 0
17.44 0.02 0
17.52 0.02 0
17.6 0.02 0
17.68 0.02 0
17.76 0.02 0
17.84 0.02 0
17.92 0.02 0
18 0.02 0
18.08 0.02 0
18.16 0.02 0
18.24 0.02 0
18.32 0.02 0
18.4 0.02 0
18.48 0.02 0
18.56 0.02 0
18.64 0.02 0
18.72 0.02 0
18.8 0.02 0
18.88 0.02 0
18.96 0.02 0
19.04 0.02 0
19.12 0.02 0
19.2 0.02 0
19.28 0.02 0
19.36 0.02 0
19.44 0.02 0
19.52 0.02 0
19.6 0.02 0
19.68 0.02 0
19.76 0.02 0
19.84 0.02 0
19.92 0.02 0
20 0.02 0
20.08 0.02 0
20.16 0.02 0
20.24 0.02 0
20.32 0.02 0
20.4 0.02 0
20.48 0.02 0
20.56 0.02 0
20.64 0.02 0
20.72 0.02 0
20.8 0.02 0
20.88 0.02 0
20.96 0.02 0
21.04 0.02 0
21.12 0.02 0
21.2 0.02 0
21.28 0.02 0
21.36 0.02 0
21.44 0.02 0
21.52 0.02 0
21.6 0.02 0
21.68 0.02 0
21.76 0.02 0
21.84 0.02 0
21.92 0.02 0
22 0.02 0
22.08 0.02 0
22.16 0.02 0
22.24 0.02 0
22.32 0.02 0
22.4 0.02 0
22.48 0.02 0
22.56 0.02 0
22.64 0.02 0
22.72 0.02 0
22.8 0.02 0
22.88 0.02 0
22.96 0.02 0
23.04 0.02 0
23.12 0.02 0
23.2 0.02 0
23.28 0.02 0
23.36 0.02 0
23.44 0.02 0
23.52 0.02 0
23.6 0.02 0
23.68 0.02 0
23.76 0.02 0
23.84 0.02 0
23.92 0.02 0
24 0.02 0
24.08 0.02 0
24.16 0.02 0
24.24 0.02 0
24.32 0.02 0
24.4 0.02 0
24.48 0.02 0
24.56 0.02 0
24.64 0.02 0
24.72 0.02 0
24.8 0.02 0
24.88 0.02 0
24.96 0.02 0
25.04 0.02 0
25.12 0.02 0
25.2 0.02 0
25.28 0.02 0
25.36 0.02 0
25.44 0.02 0
25.52 0.02 0
25.6 0.02 0
25.68 0.02 0
25.76 0.02 0
25.84 0.02 0
25.92 0.02 0
26 0.02 0
26.08 0.02 0
26.16 0.02 0
26.24 0.02 0
26.32 0.02 0
26.4 0.02 0
26.48 0.02 0
26.56 0.02 0
26.64 0.02 0
26.72 0.02 0
26.8 0.02 0
26.88 0.02 0
26.96 0.02 0
27.04 0.02 0
27.12 0.02 0
27.2 0.02 0
27.28 0.02 0
27.36 0.02 0
27.44 0.02 0
27.52 0.02 0
27.6 0.02 0
27.68 0.02 0
27.76 0.02 0
27.84 0.02 0
27.92 0.02 0
28 0.02 0
28.08 0.02 0
28.16 0.02 0
28.24 0.02 0
28.32 0.02 0
28.4 0.02 0
28.48 0.02 0
28.56 0.02 0
28.64 0.02 0
28.72 0.02 0
28.8 0.02 0
28.88 0.02 0
28.96 0.02 0
29.04 0.02 0
29.12 0.02 0
29.2 0.02 0
29.28 0.02 0
29.36 0.02 0
29.44 0.02 0
29.52 0.02 0
29.6 0.02 0
29.68 0.02 0
29.76 0.02 0
29.84 0.02 0
29.92 0.02 0
30 0.02 0
30.08 0.02 0
30.16 0.02 0
30.24 0.02 0
30.32 0.02 0
30.4 0.02 0
30.48 0.02 0
30.56 0.02 0
30.64 0.02 0
30.72 0.02 0
30.8 0.02 0
30.88 0.02 0
30.96 0.02 0
31.04 0.02 0
31.12 0.02 0
31.2 0.02 0
31.28 0.02 0
31.36 0.02 0
31.44 0.02 0
31.52 0.02 0
31.6 0.02 0
31.68 0.02 0
31.76 0.02 0
31.84 0.02 0
31.92 0.02 0
0 0.04 0
0.08 0.04 0
0.16 0.04 0
0.24 0.04 0
0.32 0.04 0
0.4 0.04 0
0.48 0.04 0
0.56 0.04 0
0.64 0.04 0
0.72 0.04 0
0.8 0.04 0
0.88 0.04 0
0.96 0.04 0
1.04 0.04 0
1.12 0.04 0
1.2 0.04 0
1.28 0.04 0
1.36 0.04 0
1.44 0.04 0
1.52 0.04 0
1.6 0.04 0
1.68 0.04 0
1.76 0.04 0
1.84 0.04 0
1.92 0.04 0
2 0.04 0
2.08 0.04 0
2.16 0.04 0
2.24 0.04 0
2.32 0.04 0
2.4 0.04 0
2.48 0.04 0
2.56 0.04 0
2.64 0.04 0
2.72 0.04 0
2.8 0.04 0
2.88 0.04 0
2.96 0.04 0
3.04 0.04 0
3.12 0.04 0
3.2 0.04 0
3.28 0.04 0
3.36 0.04 0
3.44 0.04 0
3.52 0.04 0
3.6 0.04 0
3.68 0.04 0
3.76 0.04 0
3.84 0.04 0
3.92 0.04 0
4 0.04 0
4.08 0.04 0
4.16 0.04 0
4.24 0.04 0
4.32 0.04 0
4.4 0.04 0
4.48 0.04 0
4.56 0.04 0
4.64 0.04 0
4.72 0.04 0
4.8 0.04 0
4.88 0.04 0
4.96 0.04 0
5.04 0.04 0
5.12 0.04 0
5.2 0.04 0
5.28 0.04 0
5.36 0.04 0
5.44 0.04 0
5.52 0.04 0
5.6 0.04 0
5.68 0.04 0
5.76 0.04 0
5.84 0.04 0
5.92 0.04 0
6 0.04 0
6.08 0.04 0
6.16 0.04 0
6.24 0.04 0
6.32 0.04 0
6.4 0.04 0
6.48 0.04 0
6.56 0.04 0
6.64 0.04 0
6.72 0.04 0
6.8 0.04 0
6.88 0.04 0
6.96 0.04 0
7.04 0.04 0
7.12 0.04 0
7.2 0.04 0
7.28 0.04 0
7.36 0.04 0
7.44 0.04 0
7.52 0.04 0
7.6 0.04 0
7.68 0.04 0
7.76 0.04 0
7.84 0.04 0
[...]
POINT_DATA 20000

SCALARS u float 1
LOOKUP_TABLE default
0
-0.507085
-0.291914
-0.214154
-0.179018
-0.158655
-0.145101
-0.135349
-0.127956
-0.122128
-0.11739
-0.113438
-0.110074
-0.107161
-0.104602
-0.102329
-0.100289
-0.0984442
-0.0967642
-0.0952256
-0.0938095
-0.0925006
-0.091286
-0.0901553
-0.0890995
-0.0881109
-0.0871829
-0.0863099
-0.0854868
-0.0847092
-0.0839734
-0.0832759
-0.0826136
-0.0819838
-0.0813842
-0.0808124
-0.0802666
-0.0797449
-0.0792458
-0.0787677
-0.0783093
-0.0778694
-0.0774468
-0.0770406
-0.0766498
-0.0762735
-0.0759109
-0.0755613
-0.075224
-0.0748983
-0.0745837
-0.0742795
-0.0739854
-0.0737007
-0.0734251
-0.0731582
-0.0728995
-0.0726488
-0.0724055
-0.0721695
-0.0719404
-0.071718
-0.0715019
-0.071292
-0.071088
-0.0708896
-0.0706967
-0.0705091
-0.0703264
-0.0701487
-0.0699757
-0.0698072
-0.0696431
-0.0694832
-0.0693275
-0.0691757
-0.0690277
-0.0688834
-0.0687427
-0.0686055
-0.0684717
-0.0683411
-0.0682138
-0.0680895
-0.0679683
-0.0678499
-0.0677344
-0.0676216
-0.0675115
-0.0674039
-0.0672989
-0.0671963
-0.0670961
-0.0669983
-0.0669027
-0.0668093
-0.066718
-0.0666287
-0.0665415
-0.0664562
-0.0663729
-0.0662915
-0.0662119
-0.0661341
-0.066058
-0.0659837
-0.065911
-0.0658398
-0.0657702
-0.0657021
-0.0656355
-0.0655704
-0.0655068
-0.0654445
-0.0653836
-0.065324
-0.0652657
-0.0652085
-0.0651526
-0.0650979
-0.0650444
-0.0649922
-0.064941
-0.064891
-0.0648421
-0.0647942
-0.0647473
-0.0647014
-0.0646564
-0.0646124
-0.0645694
-0.0645274
-0.0644863
-0.0644461
-0.0644068
-0.0643682
-0.0643304
-0.0642934
-0.0642572
-0.0642218
-0.0641872
-0.0641535
-0.0641205
-0.0640883
-0.0640567
-0.0640258
-0.0639956
-0.063966
-0.0639371
-0.0639089
-0.0638815
-0.0638548
-0.0638288
-0.0638034
-0.0637787
-0.0637547
-0.0637311
-0.0637082
-0.063686
-0.0636646
-0.0636439
-0.0636241
-0.063605
-0.0635865
-0.0635686
-0.0635512
-0.0635343
-0.0635182
-0.0635029
-0.0634884
-0.0634748
-0.0634619
-0.0634495
-0.0634376
-0.0634262
-0.0634153
-0.0634051
-0.0633956
-0.0633869
-0.063379
-0.0633716
-0.0633647
-0.0633582
-0.063352
-0.0633464
-0.0633413
-0.0633367
-0.0633328
-0.0633294
-0.0633265
-0.0633239
-0.0633216
-0.0633196
-0.0633179
-0.0633167
-0.0633158
-0.0633153
-0.0633152
-0.0633153
-0.0633157
-0.0633163
-0.0633171
-0.0633181
-0.0633194
-0.0633208
-0.0633224
-0.0633242
-0.0633261
-0.0633282
-0.0633304
-0.0633326
-0.063335
-0.0633374
-0.0633399
-0.0633426
-0.0633452
-0.063348
-0.0633508
-0.0633537
-0.0633565
-0.0633594
-0.0633623
-0.0633652
-0.0633682
-0.0633711
-0.063374
-0.063377
-0.06338
-0.063383
-0.0633859
-0.0633889
-0.0633919
-0.0633948
-0.0633978
-0.0634008
-0.0634037
-0.0634067
-0.0634096
-0.0634126
-0.0634155
-0.0634185
-0.0634214
-0.0634244
-0.0634273
-0.0634302
-0.0634332
-0.0634361
-0.063439
-0.0634419
-0.0634448
-0.0634478
-0.0634507
-0.0634536
-0.0634565
-0.0634594
-0.0634623
-0.0634652
-0.0634681
-0.063471
-0.0634738
-0.0634767
-0.0634796
-0.0634825
-0.0634854
-0.0634882
-0.0634911
-0.063494
-0.0634968
-0.0634997
-0.0635025
-0.0635054
-0.0635082
-0.0635111
-0.0635139
-0.0635168
-0.0635196
-0.0635224
-0.0635253
-0.0635281
-0.0635309
-0.0635337
-0.0635366
-0.0635394
-0.0635422
-0.063545
-0.0635478
-0.0635506
-0.0635534
-0.0635562
-0.063559
-0.0635618
-0.0635646
-0.0635674
-0.0635702
-0.063573
-0.0635758
-0.0635785
-0.0635813
-0.0635841
-0.0635869
-0.0635896
-0.0635924
-0.0635951
-0.0635979
-0.0636007
-0.0636034
-0.0636062
-0.0636089
-0.0636117
-0.0636144
-0.0636172
-0.0636199
-0.0636226
-0.0636254
-0.0636281
-0.0636308
-0.0636336
-0.0636363
-0.063639
-0.0636417
-0.0636445
-0.0636472
-0.0636499
-0.0636526
-0.0636553
-0.063658
-0.0636607
-0.0636634
-0.0636661
-0.0636688
-0.0636715
-0.0636742
-0.0636769
-0.0636796
-0.0636823
-0.063685
-0.0636877
-0.0636903
-0.063693
-0.0636957
-0.0636984
-0.0637011
-0.0637037
-0.0637064
-0.0637091
-0.0637117
-0.0637144
-0.0637171
-0.0637197
-0.0637224
-0.063725
-0.0637277
-0.0637304
-0.063733
-0.0637357
-0.0637383
-0.063741
-0.0637436
-0.0637463
-0.0637489
-0.0637516
-0.0637542
-0.0637568
-0.0637595
-0.0637621
-0.0637648
-0.0637674
-0.0637701
-0.0637727
-0.0637753
-0.063778
-0.0637806
-0.0637832
-0.0637859
-0.0637885
-0.0637912
-0.0637938
-0.0637965
-0.0637991
-0.0638018
-0.0638044
-0.0638071
-0.0638097
-0.0638124
-0.063815
-0.0638178
-0.0638203
-0.0638232
-0.0638257
-0.0638286
-0.0638312
-0.0638341
-0.0638366
-0.0638394
-0.0638421
-0.0638443
-0.0638471
-0.0638459
-0.0638459
-0.0638459
1
0.507085
0.291914
0.214154
0.179018
0.158655
0.145101
0.135349
0.127956
0.122128
0.11739
0.113438
0.110074
0.107161
0.104602
0.102329
0.100289
0.0984442
0.0967642
0.0952256
0.0938095
0.0925006
0.091286
0.0901553
0.0890995
0.0881109
0.0871829
0.0863099
0.0854868
0.0847092
0.0839734
0.0832759
0.0826136
0.0819838
0.0813842
0.0808124
0.0802666
0.0797449
0.0792458
0.0787677
0.0783093
0.0778694
0.0774468
0.0770406
0.0766498
0.0762735
0.0759109
0.0755613
0.075224
0.0748983
0.0745837
0.0742795
0.0739854
0.0737007
0.0734251
0.0731582
0.0728995
0.0726488
0.0724055
0.0721695
0.0719404
0.071718
0.0715019
0.071292
0.071088
0.0708896
0.0706967
0.0705091
0.0703264
0.0701487
0.0699757
0.0698072
0.0696431
0.0694832
0.0693275
0.0691757
0.0690277
0.0688834
0.0687427
0.0686055
0.0684717
0.0683411
0.0682138
0.0680895
0.0679683
0.0678499
0.0677344
0.0676216
0.0675115
0.0674039
0.0672989
0.0671963
0.0670961
0.0669983
0.0669027
0.0668093
0.066718
0.0666287
0.0665415
0.0664562
0.0663729
0.0662915
0.0662119
0.0661341
0.066058
0.0659837
0.065911
0.0658398
0.0657702
0.0657021
0.0656355
0.0655704
0.0655068
0.0654445
0.0653836
0.065324
0.0652657
0.0652085
0.0651526
0.0650979
0.0650444
0.0649922
0.064941
0.064891
0.0648421
0.0647942
0.0647473
0.0647014
0.0646564
0.0646124
0.0645694
0.0645274
0.0644863
0.0644461
0.0644068
0.0643682
0.0643304
0.0642934
0.0642572
0.0642218
0.0641872
0.0641535
0.0641205
0.0640883
0.0640567
0.0640258
0.0639956
0.063966
0.0639371
0.0639089
0.0638815
0.0638548
0.0638288
0.0638034
0.0637787
0.0637547
0.0637311
0.0637082
0.063686
0.0636646
0.0636439
0.0636241
0.063605
0.0635865
0.0635686
0.0635512
0.0635343
0.0635182
0.0635029
0.0634884
0.0634748
0.0634619
0.0634495
0.0634376
0.0634262
0.0634153
0.0634051
0.0633956
0.0633869
0.063379
0.0633716
0.0633647
0.0633582
0.063352
0.0633464
0.0633413
0.0633367
0.0633328
0.0633294
0.0633265
0.0633239
0.0633216
0.0633196
0.0633179
0.0633167
0.0633158
0.0633153
0.0633152
0.0633153
0.0633157
0.0633163
0.0633171
0.0633181
0.0633194
0.0633208
0.0633224
0.0633242
0.0633261
0.0633282
0.0633304
0.0633326
0.063335
0.0633374
0.0633399
0.0633426
0.0633452
0.063348
0.0633508
0.0633537
0.0633565
0.0633594
0.0633623
0.0633652
0.0633682
0.0633711
0.063374
0.063377
0.06338
0.063383
0.0633859
0.0633889
0.0633919
0.0633948
0.0633978
0.0634008
0.0634037
0.0634067
0.0634096
0.0634126
0.0634155
0.0634185
0.0634214
0.0634244
0.0634273
0.0634302
0.0634332
0.0634361
0.063439
0.0634419
0.0634448
0.0634478
0.0634507
0.0634536
0.0634565
0.0634594
0.0634623
0.0634652
0.0634681
0.063471
0.0634738
0.0634767
0.0634796
0.0634825
0.0634854
0.0634882
0.0634911
0.063494
0.0634968
0.0634997
0.0635025
0.0635054
0.0635082
0.0635111
0.0635139
0.0635168
0.0635196
0.0635224
0.0635253
0.0635281
0.0635309
0.0635337
0.0635366
0.0635394
0.0635422
0.063545
0.0635478
0.0635506
0.0635534
0.0635562
0.063559
0.0635618
0.0635646
0.0635674
0.0635702
0.063573
0.0635758
0.0635785
0.0635813
0.0635841
0.0635869
0.0635896
0.0635924
0.0635951
0.0635979
0.0636007
0.0636034
0.0636062
0.0636089
0.0636117
0.0636144
0.0636172
0.0636199
0.0636226
0.0636254
0.0636281
0.0636308
0.0636336
0.0636363
0.063639
0.0636417
0.0636445
0.0636472
0.0636499
0.0636526
0.0636553
0.063658
0.0636607
0.0636634
0.0636661
0.0636688
0.0636715
0.0636742
0.0636769
0.0636796
0.0636823
0.063685
0.0636877
0.0636903
0.063693
0.0636957
0.0636984
0.0637011
0.0637037
0.0637064
0.0637091
0.0637117
0.0637144
0.0637171
0.0637197
0.0637224
0.063725
0.0637277
0.0637304
0.063733
0.0637357
0.0637383
0.063741
0.0637436
0.0637463
0.0637489
0.0637516
0.0637542
0.0637568
0.0637595
0.0637621
0.0637648
0.0637674
0.0637701
0.0637727
0.0637753
0.063778
0.0637806
0.0637832
0.0637859
0.0637885
0.0637912
0.0637938
0.0637965
0.0637991
0.0638018
0.0638044
0.0638071
0.0638097
0.0638124
0.063815
0.0638178
0.0638203
0.0638232
0.0638257
0.0638286
0.0638312
0.0638341
0.0638366
0.0638394
0.0638421
0.0638443
0.0638471
0.0638459
0.0638459
0.0638459
1
0.92429
0.735435
0.597536
0.511639
0.456322
0.418159
0.390254
0.368921
0.352035
0.338286
0.326826
0.317085
0.308667
0.301291
0.294753
0.2889
0.283618
0.278818
0.274428
0.270395
0.26667
0.263219
0.260009
0.257014
0.254211
0.251582
0.249111
0.246782
0.244582
0.242502
0.240531
0.23866
0.236882
0.235189
0.233575
0.232035
0.230564
0.229157
0.227809
0.226517
0.225278
0.224087
0.222943
0.221843
0.220784
0.219764
0.21878
0.217831
0.216915
0.21603
0.215175
0.214348
0.213548
0.212774
0.212024
0.211298
0.210593
0.20991
0.209248
0.208605
0.207981
0.207375
0.206786
0.206214
0.205658
0.205117
0.204591
0.204079
0.203581
0.203096
0.202624
0.202164
0.201717
0.201281
0.200856
0.200442
0.200038
0.199644
0.19926
0.198886
0.198521
0.198165
0.197818
0.197479
0.197148
0.196825
0.19651
0.196202
0.195902
0.195608
0.195322
0.195042
0.194769
0.194502
0.194241
0.193986
0.193737
0.193494
0.193256
0.193024
0.192797
0.192575
0.192358
0.192145
0.191938
0.191735
0.191537
0.191343
0.191153
0.190967
0.190786
0.190609
0.190435
0.190265
0.190099
0.189936
0.189777
0.189621
0.189469
0.18932
0.189175
0.189032
0.188893
0.188756
0.188623
0.188492
0.188364
0.188239
0.188117
0.187997
0.18788
0.187765
0.187653
0.187544
0.187436
0.187331
0.187228
0.187127
0.187029
0.186933
0.186839
0.186748
0.186658
0.18657
0.186484
0.186401
0.186319
0.186239
0.186161
0.186085
0.186012
0.18594
0.18587
0.185802
0.185736
0.185671
0.185609
0.185548
0.18549
0.185434
0.18538
0.185328
0.185277
0.185229
0.185182
0.185137
0.185094
0.185053
0.185015
0.184978
0.184944
0.184911
0.184879
0.184849
0.184821
0.184794
0.18477
0.184748
0.184727
0.184708
0.18469
0.184673
0.184658
0.184644
0.184631
0.18462
0.184611
0.184603
0.184596
0.184589
0.184584
0.18458
0.184577
0.184574
0.184573
0.184573
0.184573
0.184574
0.184576
0.184579
0.184582
0.184585
0.184589
0.184594
0.184599
0.184604
0.18461
0.184616
0.184622
0.184629
0.184636
0.184643
0.18465
0.184657
0.184665
0.184673
0.184681
0.184689
0.184697
0.184705
0.184713
0.184721
0.184729
0.184737
0.184746
0.184754
0.184762
0.184771
0.184779
0.184787
0.184795
0.184804
0.184812
0.18482
0.184828
0.184837
0.184845
0.184853
0.184861
0.184869
0.184878
0.184886
0.184894
0.184902
0.18491
0.184918
0.184927
0.184935
0.184943
0.184951
0.184959
0.184967
0.184975
0.184984
0.184992
0.185
0.185008
0.185016
0.185024
0.185032
0.18504
0.185048
0.185056
0.185064
0.185072
0.18508
0.185088
0.185096
0.185104
0.185112
0.18512
0.185128
0.185136
0.185144
0.185152
0.18516
0.185168
0.185176
0.185184
0.185192
0.1852
0.185208
0.185216
0.185224
0.185232
0.185239
0.185247
0.185255
0.185263
0.185271
0.185279
0.185287
0.185295
0.185302
0.18531
0.185318
0.185326
0.185334
0.185342
0.185349
0.185357
0.185365
0.185373
0.185381
0.185388
0.185396
0.185404
0.185412
0.18542
0.185427
0.185435
0.185443
0.185451
0.185458
0.185466
0.185474
0.185481
0.185489
0.185497
0.185505
0.185512
0.18552
0.185528
0.185535
0.185543
0.185551
0.185558
0.185566
0.185574
0.185581
0.185589
0.185597
0.185604
0.185612
0.18562
0.185627
0.185635
0.185643
0.18565
0.185658
0.185665
0.185673
0.185681
0.185688
0.185696
0.185703
0.185711
0.185719
0.185726
0.185734
0.185741
0.185749
0.185757
0.185764
0.185772
0.185779
0.185787
0.185794
0.185802
0.185809
0.185817
0.185825
0.185832
0.18584
0.185847
0.185855
0.185862
0.18587
0.185877
0.185885
0.185893
0.1859
0.185908
0.185915
0.185923
0.18593
0.185938
0.185945
0.185953
0.18596
0.185968
0.185976
0.185983
0.185991
0.185999
0.186006
0.186014
0.186022
0.18603
0.186037
0.186045
0.186053
0.186061
0.186068
0.186075
0.186083
0.186083
0.186083
0.186083
1
1.0797
0.997057
0.883633
0.788674
0.716887
0.66302
0.621803
0.589457
0.563441
0.542047
0.524104
0.508794
0.495537
0.483908
0.473595
0.464364
0.456033
0.448463
0.441544
0.435186
0.429319
0.423882
0.418826
0.414109
0.409697
0.405558
0.401667
0.398001
0.394539
0.391265
0.388163
0.385219
0.382421
0.379757
0.377218
0.374795
0.372481
0.370267
0.368147
0.366115
0.364166
0.362294
0.360495
0.358765
0.3571
0.355496
0.353949
0.352458
0.351018
0.349627
0.348284
0.346985
0.345728
0.344512
0.343334
0.342193
0.341087
0.340014
0.338974
0.337965
0.336985
0.336034
0.33511
0.334212
0.333339
0.332491
0.331666
0.330863
0.330082
0.329322
0.328582
0.327861
0.327159
0.326476
0.32581
0.325161
0.324528
0.323911
0.32331
0.322724
0.322152
0.321595
0.321051
0.32052
0.320002
0.319497
0.319004
0.318522
0.318052
0.317593
0.317145
0.316708
0.31628
0.315863
0.315455
0.315057
0.314667
0.314287
0.313915
0.313552
0.313197
0.31285
0.312511
0.31218
0.311856
0.311539
0.311229
0.310926
0.31063
0.31034
0.310056
0.309779
0.309508
0.309243
0.308984
0.30873
0.308481
0.308238
0.308
0.307768
0.307541
0.307318
0.307101
0.306888
0.306679
0.306475
0.306276
0.30608
0.305889
0.305702
0.30552
0.305341
0.305166
0.304995
0.304828
0.304664
0.304503
0.304346
0.304193
0.304043
0.303897
0.303754
0.303614
0.303478
0.303344
0.303214
0.303086
0.302962
0.302842
0.302724
0.302609
0.302498
0.30239
0.302284
0.302182
0.302082
0.301986
0.301893
0.301803
0.301716
0.301633
0.301553
0.301476
0.301401
0.301329
0.301261
0.301195
0.301133
0.301075
0.301019
0.300966
0.300916
0.300869
0.300823
0.300781
0.300742
0.300705
0.300672
0.300641
0.300612
0.300585
0.300561
0.300538
0.300517
0.300499
0.300483
0.30047
0.300458
0.300448
0.300439
0.300432
0.300426
0.300422
0.300419
0.300418
0.300418
0.30042
0.300422
0.300425
0.30043
0.300435
0.30044
0.300447
0.300455
0.300463
0.300471
0.300481
0.30049
0.3005
0.300511
0.300521
0.300533
0.300544
0.300556
0.300568
0.30058
0.300592
0.300604
0.300617
0.300629
0.300642
0.300654
0.300667
0.30068
0.300692
0.300705
0.300718
0.300731
0.300743
0.300756
0.300769
0.300782
0.300794
0.300807
0.30082
0.300833
0.300845
0.300858
0.300871
0.300883
0.300896
0.300909
0.300921
0.300934
0.300947
0.300959
0.300972
0.300985
0.300997
0.30101
0.301022
0.301035
0.301048
0.30106
0.301073
0.301085
0.301098
0.30111
0.301123
0.301135
0.301148
0.30116
0.301173
0.301185
0.301198
0.30121
0.301223
0.301235
0.301248
0.30126
0.301273
0.301285
0.301297
0.30131
0.301322
0.301335
0.301347
0.301359
0.301372
0.301384
0.301396
0.301409
0.301421
0.301433
0.301446
0.301458
0.30147
0.301483
0.301495
0.301507
0.30152
0.301532
0.301544
0.301556
0.301569
0.301581
0.301593
0.301605
0.301618
0.30163
0.301642
0.301654
0.301666
0.301679
0.301691
0.301703
0.301715
0.301727
0.301739
0.301752
0.301764
0.301776
0.301788
0.3018
0.301812
0.301824
0.301836
0.301848
0.301861
0.301873
0.301885
0.301897
0.301909
0.301921
0.301933
0.301945
0.301957
0.301969
0.301981
0.301993
0.302005
0.302017
0.302029
0.302041
0.302053
0.302065
0.302077
0.302089
0.302101
0.302113
0.302125
0.302137
0.302149
0.302161
0.302173
0.302185
0.302197
0.302209
0.302221
0.302233
0.302245
0.302257
0.302269
0.30228
0.302292
0.302304
0.302316
0.302328
0.30234
0.302352
0.302364
0.302376
0.302388
0.302399
0.302411
0.302423
0.302435
0.302447
0.302459
0.302471
0.302483
0.302495
0.302507
0.302518
0.30253
0.302542
0.302554
0.302566
0.302578
0.30259
0.302602
0.302614
0.302626
0.302638
0.30265
0.302662
0.302675
0.302686
0.302699
0.302711
0.302724
0.302735
0.302748
0.30276
0.302771
0.302783
0.302789
0.302789
0.302789
1
1.11178
1.11437
1.05555
0.984352
0.919009
0.863771
0.818183
0.780607
0.74938
0.723118
0.700746
0.681445
0.664598
0.649734
0.636497
0.624609
0.613855
0.604065
0.595101
0.586855
0.579236
0.572169
0.565592
0.559451
0.553703
0.548308
0.543233
0.538449
0.53393
0.529654
0.525601
0.521752
0.518093
0.51461
0.511288
0.508118
0.505089
0.50219
0.499415
0.496754
0.494201
0.491749
0.489393
0.487126
0.484944
0.482842
0.480815
0.478861
0.476974
0.475151
0.47339
0.471688
0.47004
0.468446
0.466902
0.465407
0.463957
0.462552
0.461189
0.459866
0.458582
0.457336
0.456125
0.454949
0.453805
0.452693
0.451612
0.450561
0.449538
0.448542
0.447573
0.446629
0.445711
0.444815
0.443944
0.443094
0.442266
0.441459
0.440672
0.439905
0.439157
0.438427
0.437716
0.437022
0.436345
0.435684
0.435039
0.434409
0.433795
0.433195
0.432609
0.432037
0.431478
0.430933
0.4304
0.42988
0.429371
0.428874
0.428389
0.427914
0.427451
0.426998
0.426555
0.426123
0.4257
0.425286
0.424882
0.424486
0.424099
0.423721
0.423351
0.42299
0.422636
0.42229
0.421952
0.42162
0.421296
0.420979
0.420669
0.420366
0.42007
0.41978
0.419496
0.419218
0.418946
0.41868
0.41842
0.418165
0.417916
0.417673
0.417434
0.417201
0.416973
0.41675
0.416532
0.416318
0.416109
0.415905
0.415705
0.41551
0.41532
0.415133
0.414951
0.414773
0.4146
0.41443
0.414264
0.414103
0.413946
0.413793
0.413644
0.413499
0.413359
0.413222
0.413089
0.41296
0.412835
0.412715
0.412599
0.412487
0.412379
0.412276
0.412176
0.41208
0.411987
0.411899
0.411815
0.411735
0.41166
0.411588
0.411521
0.411456
0.411395
0.411338
0.411284
0.411234
0.411187
0.411144
0.411105
0.411068
0.411035
0.411003
0.410975
0.410949
0.410926
0.410907
0.410889
0.410875
0.410862
0.410851
0.410843
0.410836
0.410831
0.410828
0.410827
0.410827
0.410829
0.410833
0.410837
0.410843
0.41085
0.410857
0.410866
0.410876
0.410887
0.410898
0.41091
0.410922
0.410935
0.410949
0.410963
0.410977
0.410992
0.411007
0.411022
0.411037
0.411053
0.411069
0.411085
0.411101
0.411117
0.411133
0.411149
0.411165
0.411182
0.411198
0.411214
0.411231
0.411247
0.411263
0.41128
0.411296
0.411312
0.411328
0.411345
0.411361
0.411377
0.411393
0.41141
0.411426
0.411442
0.411458
0.411475
0.411491
0.411507
0.411523
0.411539
0.411556
0.411572
0.411588
0.411604
0.41162
0.411636
0.411652
0.411668
0.411685
0.411701
0.411717
0.411733
0.411749
0.411765
0.411781
0.411797
0.411813
0.411829
0.411845
0.411861
0.411877
0.411893
0.411909
0.411925
0.411941
0.411957
0.411973
0.411989
0.412005
0.412021
0.412037
0.412053
0.412069
0.412084
0.4121
0.412116
0.412132
0.412148
0.412164
0.41218
0.412196
0.412211
0.412227
0.412243
0.412259
0.412275
0.41229
0.412306
0.412322
0.412338
0.412354
0.412369
0.412385
0.412401
0.412417
0.412432
0.412448
0.412464
0.41248
0.412495
0.412511
0.412527
0.412542
0.412558
0.412574
0.412589
0.412605
0.412621
0.412636
0.412652
0.412668
0.412683
0.412699
0.412715
0.41273
0.412746
0.412761
0.412777
0.412793
0.412808
0.412824
0.412839
0.412855
0.41287
0.412886
0.412902
0.412917
0.412933
0.412948
0.412964
0.412979
0.412995
0.41301
0.413026
0.413041
0.413057
0.413072
0.413088
0.413103
0.413119
0.413134
0.41315
0.413165
0.413181
0.413196
0.413212
0.413227
0.413242
0.413258
0.413273
0.413289
0.413304
0.41332
0.413335
0.413351
0.413366
0.413381
0.413397
0.413412
0.413428
0.413443
0.413459
0.413474
0.413489
0.413505
0.41352
0.413536
0.413551
0.413567
0.413582
0.413598
0.413613
0.413628
0.413644
0.41366
0.413676
0.413691
0.413707
0.413722
0.413738
0.413753
0.41377
0.413785
0.413802
0.413817
0.413834
0.413849
0.413864
0.413879
0.413891
0.413891
0.413891
1
1.09593
1.14366
1.13401
1.09768
1.05332
1.00939
0.969189
0.933591
0.902463
0.875299
0.85152
0.830582
0.812019
0.795445
0.780545
0.767063
0.754793
0.743566
0.733246
0.723717
0.714886
0.706674
0.699012
0.691846
0.685124
0.678805
0.672852
0.667232
0.661917
0.656882
0.652105
0.647564
0.643244
0.639127
0.635199
0.631447
0.62786
0.624425
0.621135
0.617979
0.614949
0.612039
0.60924
0.606548
0.603954
0.601456
0.599046
0.596721
0.594476
0.592308
0.590212
0.588185
0.586224
0.584326
0.582487
0.580706
0.57898
0.577305
0.575681
0.574106
0.572576
0.571091
0.569648
0.568246
0.566883
0.565559
0.564271
0.563018
0.561798
0.560612
0.559457
0.558333
0.557238
0.556171
0.555132
0.55412
0.553134
0.552172
0.551235
0.550321
0.54943
0.548562
0.547714
0.546888
0.546081
0.545295
0.544527
0.543777
0.543046
0.542332
0.541635
0.540954
0.54029
0.539641
0.539007
0.538388
0.537783
0.537192
0.536615
0.536051
0.5355
0.534961
0.534435
0.533921
0.533418
0.532927
0.532446
0.531976
0.531516
0.531067
0.530628
0.530198
0.529778
0.529367
0.528965
0.528572