# vtk DataFile Version 2.0
FlowField
ASCII
DATASET STRUCTURED_GRID
DIMENSIONS 400 1 50
POINTS 20000 float
0 0 0
0.08 0 0
0.16 0 0
0.24 0 0
0.32 0 0
0.4 0 0
0.48 0 0
0.56 0 0
0.64 0 0
0.72 0 0
0.8 0 0
0.88 0 0
0.96 0 0
1.04 0 0
1.12 0 0
1.2 0 0
1.28 0 0
1.36 0 0
1.44 0 0
1.52 0 0
1.6 0 0
1.68 0 0
1.76 0 0
1.84 0 0
1.92 0 0
2 0 0
2.08 0 0
2.16 0 0
2.24 0 0
2.32 0 0
2.4 0 0
2.48 0 0
2.56 0 0
2.64 0 0
2.72 0 0
2.8 0 0
2.88 0 0
2.96 0 0
3.04 0 0
3.12 0 0
3.2 0 0
3.28 0 0
3.36 0 0
3.44 0 0
3.52 0 0
3.6 0 0
3.68 0 0
3.76 0 0
3.84 0 0
3.92 0 0
4 0 0
4.08 0 0
4.16 0 0
4.24 0 0
4.32 0 0
4.4 0 0
4.48 0 0
4.56 0 0
4.64 0 0
4.72 0 0
4.8 0 0
4.88 0 0
4.96 0 0
5.04 0 0
5.12 0 0
5.2 0 0
5.28 0 0
5.36 0 0
5.44 0 0
5.52 0 0
5.6 0 0
5.68 0 0
5.76 0 0
5.84 0 0
5.92 0 0
6 0 0
6.08 0 0
6.16 0 0
6.24 0 0
6.32 0 0
6.4 0 0
6.48 0 0
6.56 0 0
6.64 0 0
6.72 0 0
6.8 0 0
6.88 0 0
6.96 0 0
7.04 0 0
7.12 0 0
7.2 0 0
7.28 0 0
7.36 0 0
7.44 0 0
7.52 0 0
7.6 0 0
7.68 0 0
7.76 0 0
7.84 0 0
7.92 0 0
8 0 0
8.08 0 0
8.16 0 0
8.24 0 0
8.32 0 0
8.4 0 0
8.48 0 0
8.56 0 0
8.64 0 0
8.72 0 0
8.8 0 0
8.88 0 0
8.96 0 0
9.04 0 0
9.12 0 0
9.2 0 0
9.28 0 0
9.36 0 0
9.44 0 0
9.52 0 0
9.6 0 0
9.68 0 0
9.76 0 0
9.84 0 0
9.92 0 0
10 0 0
10.08 0 0
10.16 0 0
10.24 0 0
10.32 0 0
10.4 0 0
10.48 0 0
10.56 0 0
10.64 0 0
10.72 0 0
10.8 0 0
10.88 0 0
10.96 0 0
11.04 0 0
11.12 0 0
11.2 0 0
11.28 0 0
11.36 0 0
11.44 0 0
11.52 0 0
11.6 0 0
11.68 0 0
11.76 0 0
11.84 0 0
11.92 0 0
12 0 0
12.08 0 0
12.16 0 0
12.24 0 0
12.32 0 0
12.4 0 0
12.48 0 0
12.56 0 0
12.64 0 0
12.72 0 0
12.8 0 0
12.88 0 0
12.96 0 0
13.04 0 0
13.12 0 0
13.2 0 0
13.28 0 0
13.36 0 0
13.44 0 0
13.52 0 0
13.6 0 0
13.68 0 0
13.76 0 0
13.84 0 0
13.92 0 0
14 0 0
14.08 0 0
14.16 0 0
14.24 0 0
14.32 0 0
14.4 0 0
14.48 0 0
14.56 0 0
14.64 0 0
14.72 0 0
14.8 0 0
14.88 0 0
14.96 0 0
15.04 0 0
15.12 0 0
15.2 0 0
15.28 0 0
15.36 0 0
15.44 0 0
15.52 0 0
15.6 0 0
15.68 0 0
15.76 0 0
15.84 0 0
15.92 0 0
16 0 0
16.08 0 0
16.16 0 0
16.24 0 0
16.32 0 0
16.4 0 0
16.48 0 0
16.56 0 0
16.64 0 0
16.72 0 0
16.8 0 0
16.88 0 0
16.96 0 0
17.04 0 0
17.12 0 0
17.2 0 0
17.28 0 0
17.36 0 0
17.44 0 0
17.52 0 0
17.6 0 0
17.68 0 0
17.76 0 0
17.84 0 0
17.92 0 0
18 0 0
18.08 0 0
18.16 0 0
18.24 0 0
18.32 0 0
18.4 0 0
18.48 0 0
18.56 0 0
18.64 0 0
18.72 0 0
18.8 0 0
18.88 0 0
18.96 0 0
19.04 0 0
19.12 0 0
19.2 0 0
19.28 0 0
19.36 0 0
19.44 0 0
19.52 0 0
19.6 0 0
19.68 0 0
19.76 0 0
19.84 0 0
19.92 0 0
20 0 0
20.08 0 0
20.16 0 0
20.24 0 0
20.32 0 0
20.4 0 0
20.48 0 0
20.56 0 0
20.64 0 0
20.72 0 0
20.8 0 0
20.88 0 0
20.96 0 0
21.04 0 0
21.12 0 0
21.2 0 0
21.28 0 0
21.36 0 0
21.44 0 0
21.52 0 0
21.6 0 0
21.68 0 0
21.76 0 0
21.84 0 0
21.92 0 0
22 0 0
22.08 0 0
22.16 0 0
22.24 0 0
22.32 0 0
22.4 0 0
22.48 0 0
22.56 0 0
22.64 0 0
22.72 0 0
22.8 0 0
22.88 0 0
22.96 0 0
23.04 0 0
23.12 0 0
23.2 0 0
23.28 0 0
23.36 0 0
23.44 0 0
23.52 0 0
23.6 0 0
23.68 0 0
23.76 0 0
23.84 0 0
23.92 0 0
24 0 0
24.08 0 0
24.16 0 0
24.24 0 0
24.32 0 0
24.4 0 0
24.48 0 0
24.56 0 0
24.64 0 0
24.72 0 0
24.8 0 0
24.88 0 0
24.96 0 0
25.04 0 0
25.12 0 0
25.2 0 0
25.28 0 0
25.36 0 0
25.44 0 0
25.52 0 0
25.6 0 0
25.68 0 0
25.76 0 0
25.84 0 0
25.92 0 0
26 0 0
26.08 0 0
26.16 0 0
26.24 0 0
26.32 0 0
26.4 0 0
26.48 0 0
26.56 0 0
26.64 0 0
26.72 0 0
26.8 0 0
26.88 0 0
26.96 0 0
27.04 0 0
27.12 0 0
27.2 0 0
27.28 0 0
27.36 0 0
27.44 0 0
27.52 0 0
27.6 0 0
27.68 0 0
27.76 0 0
27.84 0 0
27.92 0 0
28 0 0
28.08 0 0
28.16 0 0
28.24 0 0
28.32 0 0
28.4 0 0
28.48 0 0
28.56 0 0
28.64 0 0
28.72 0 0
28.8 0 0
28.88 0 0
28.96 0 0
29.04 0 0
29.12 0 0
29.2 0 0
29.28 0 0
29.36 0 0
29.44 0 0
29.52 0 0
29.6 0 0
29.68 0 0
29.76 0 0
29.84 0 0
29.92 0 0
30 0 0
30.08 0 0
30.16 0 0
30.24 0 0
30.32 0 0
30.4 0 0
30.48 0 0
30.56 0 0
30.64 0 0
30.72 0 0
30.8 0 0
30.88 0 0
30.96 0 0
31.04 0 0
31.12 0 0
31.2 0 0
31.28 0 0
31.36 0 0
31.44 0 0
31.52 0 0
31.6 0 0
31.68 0 0
31.76 0 0
31.84 0 0
31.92 0 0
0 0.02 0
0.08 0.02 0
0.16 0.02 0
0.24 0.02 0
0.32 0.02 0
0.4 0.02 0
0.48 0.02 0
0.56 0.02 0
0.64 0.02 0
0.72 0.02 0
0.8 0.02 0
0.88 0.02 0
0.96 0.02 0
1.04 0.02 0
1.12 0.02 0
1.2 0.02 0
1.28 0.02 0
1.36 0.02 0
1.44 0.02 0
1.52 0.02 0
1.6 0.02 0
1.68 0.02 0
1.76 0.02 0
1.84 0.02 0
1.92 0.02 0
2 0.02 0
2.08 0.02 0
2.16 0.02 0
2.24 0.02 0
2.32 0.02 0
2.4 0.02 0
2.48 0.02 0
2.56 0.02 0
2.64 0.02 0
2.72 0.02 0
2.8 0.02 0
2.88 0.02 0
2.96 0.02 0
3.04 0.02 0
3.12 0.02 0
3.2 0.02 0
3.28 0.02 0
3.36 0.02 0
3.44 0.02 0
3.52 0.02 0
3.6 0.02 0
3.68 0.02 0
3.76 0.02 0
3.84 0.02 0
3.92 0.02 0
4 0.02 0
4.08 0.02 0
4.16 0.02 0
4.24 0.02 0
4.32 0.02 0
4.4 0.02 0
4.48 0.02 0
4.56 0.02 0
4.64 0.02 0
4.72 0.02 0
4.8 0.02 0
4.88 0.02 0
4.96 0.02 0
5.04 0.02 0
5.12 0.02 0
5.2 0.02 0
5.28 0.02 0
5.36 0.02 0
5.44 0.02 0
5.52 0.02 0
5.6 0.02 0
5.68 0.02 0
5.76 0.02 0
5.84 0.02 0
5.92 0.02 0
6 0.02 0
6.08 0.02 0
6.16 0.02 0
6.24 0.02 0
6.32 0.02 0
6.4 0.02 0
6.48 0.02 0
6.56 0.02 0
6.64 0.02 0
6.72 0.02 0
6.8 0.02 0
6.88 0.02 0
6.96 0.02 0
7.04 0.02 0
7.12 0.02 0
7.2 0.02 0
7.28 0.02 0
7.36 0.02 0
7.44 0.02 0
7.52 0.02 0
7.6 0.02 0
7.68 0.02 0
7.76 0.02 0
7.84 0.02 0
7.92 0.02 0
8 0.02 0
8.08 0.02 0
8.16 0.02 0
8.24 0.02 0
8.32 0.02 0
8.4 0.02 0
8.48 0.02 0
8.56 0.02 0
8.64 0.02 0
8.72 0.02 0
8.8 0.02 0
8.88 0.02 0
8.96 0.02 0
9.04 0.02 0
9.12 0.02 0
9.2 0.02 0
9.28 0.02 0
9.36 0.02 0
9.44 0.02 0
9.52 0.02 0
9.6 0.02 0
9.68 0.02 0
9.76 0.02 0
9.84 0.02 0
9.92 0.02 0
10 0.02 0
10.08 0.02 0
10.16 0.02 0
10.24 0.02 0
10.32 0.02 0
10.4 0.02 0
10.48 0.02 0
10.56 0.02 0
10.64 0.02 0
10.72 0.02 0
10.8 0.02 0
10.88 0.02 0
10.96 0.02 0
11.04 0.02 0
11.12 0.02 0
11.2 0.02 0
11.28 0.02 0
11.36 0.02 0
11.44 0.02 0
11.52 0.02 0
11.6 0.02 0
11.68 0.02 0
11.76 0.02 0
11.84 0.02 0
11.92 0.02 0
12 0.02 0
12.08 0.02 0
12.16 0.02 0
12.24 0.02 0
12.32 0.02 0
12.4 0.02 0
12.48 0.02 0
12.56 0.02 0
12.64 0.02 0
12.72 0.02 0
12.8 0.02 0
12.88 0.02 0
12.96 0.02 0
13.04 0.02 0
13.12 0.02 0
13.2 0.02 0
13.28 0.02 0
13.36 0.02 0
13.44 0.02 0
13.52 0.02 0
13.6 0.02 0
13.68 0.02 0
13.76 0.02 0
13.84 0.02 0
13.92 0.02 0
14 0.02 0
14.08 0.02 0
14.16 0.02 0
14.24 0.02 0
14.32 0.02 0
14.4 0.02 0
14.48 0.02 0
14.56 0.02 0
14.64 0.02 0
14.72 0.02 0
14.8 0.02 0
14.88 0.02 0
14.96 0.02 0
15.04 0.02 0
15.12 0.02 0
15.2 0.02 0
15.28 0.02 0
15.36 0.02 0
15.44 0.02 0
15.52 0.02 0
15.6 0.02 0
15.68 0.02 0
15.76 0.02 0
15.84 0.02 0
15.92 0.02 0
16 0.02 0
16.08 0.02 0
16.16 0.02 0
16.24 0.02 0
16.32 0.02 0
16.4 0.02 0
16.48 0.02 0
16.56 0.02 0
16.64 0.02 0
16.72 0.02 0
16.8 0.02 0
16.88 0.02 0
16.96 0.02 0
17.04 0.02 0
17.12 0.02 0
17.2 0.02 0
17.28 0.02 0
17.36 0.02 0
17.44 0.02 0
17.52 0.02 0
17.6 0.02 0
17.68 0.02 0
17.76 0.02 0
17.84 0.02 0
17.92 0.02 0
18 0.02 0
18.08 0.02 0
18.16 0.02 0
18.24 0.02 0
18.32 0.02 0
18.4 0.02 0
18.48 0.02 0
18.56 0.02 0
18.64 0.02 0
18.72 0.02 0
18.8 0.02 0
18.88 0.02 0
18.96 0.02 0
19.04 0.02 0
19.12 0.02 0
19.2 0.02 0
19.28 0.02 0
19.36 0.02 0
19.44 0.02 0
19.52 0.02 0
19.6 0.02 0
19.68 0.02 0
19.76 0.02 0
19.84 0.02 0
19.92 0.02 0
20 0.02 0
20.08 0.02 0
20.16 0.02 0
20.24 0.02 0
20.32 0.02 0
20.4 0.02 0
20.48 0.02 0
20.56 0.02 0
20.64 0.02 0
20.72 0.02 0
20.8 0.02 0
20.88 0.02 0
20.96 0.02 0
21.04 0.02 0
21.12 0.02 0
21.2 0.02 0
21.28 0.02 0
21.36 0.02 0
21.44 0.02 0
21.52 0.02 0
21.6 0.02 0
21.68 0.02 0
21.76 0.02 0
21.84 0.02 0
21.92 0.02 0
22 0.02 0
22.08 0.02 0
22.16 0.02 0
22.24 0.02 0
22.32 0.02 0
22.4 0.02 0
22.48 0.02 0
22.56 0.02 0
22.64 0.02 0
22.72 0.02 0
22.8 0.02 0
22.88 0.02 0
22.96 0.02 0
23.04 0.02 0
23.12 0.02 0
23.2 0.02 0
23.28 0.02 0
23.36 0.02 0
23.44 0.02 0
23.52 0.02 0
23.6 0.02 0
23.68 0.02 0
23.76 0.02 0
23.84 0.02 0
23.92 0.02 0
24 0.02 0
24.08 0.02 0
24.16 0.02 0
24.24 0.02 0
24.32 0.02 0
24.4 0.02 0
24.48 0.02 0
24.56 0.02 0
24.64 0.02 0
24.72 0.02 0
24.8 0.02 0
24.88 0.02 0
24.96 0.02 0
25.04 0.02 0
25.12 0.02 0
25.2 0.02 0
25.28 0.02 0
25.36 0.02 0
25.44 0.02 0
25.52 0.02 0
25.6 0.02 0
25.68 0.02 0
25.76 0.02 0
25.84 0.02 0
25.92 0.02 0
26 0.02 0
26.08 0.02 0
26.16 0.02 0
26.24 0.02 0
26.32 0.02 0
26.4 0.02 0
26.48 0.02 0
26.56 0.02 0
26.64 0.02 0
26.72 0.02 0
26.8 0.02 0
26.88 0.02 0
26.96 0.02 0
27.04 0.02 0
27.12 0.02 0
27.2 0.02 0
27.28 0.02 0
27.36 0.02 0
27.44 0.02 0
27.52 0.02 0
27.6 0.02 0
27.68 0.02 0
27.76 0.02 0
27.84 0.02 0
27.92 0.02 0
28 0.02 0
28.08 0.02 0
28.16 0.02 0
28.24 0.02 0
28.32 0.02 0
28.4 0.02 0
28.48 0.02 0
28.56 0.02 0
28.64 0.02 0
28.72 0.02 0
28.8 0.02 0
28.88 0.02 0
28.96 0.02 0
29.04 0.02 0
29.12 0.02 0
29.2 0.02 0
29.28 0.02 0
29.36 0.02 0
29.44 0.02 0
29.52 0.02 0
29.6 0.02 0
29.68 0.02 0
29.76 0.02 0
29.84 0.02 0
29.92 0.02 0
30 0.02 0
30.08 0.02 0
30.16 0.02 0
30.24 0.02 0
30.32 0.02 0
30.4 0.02 0
30.48 0.02 0
30.56 0.02 0
30.64 0.02 0
30.72 0.02 0
30.8 0.02 0
30.88 0.02 0
30.96 0.02 0
31.04 0.02 0
31.12 0.02 0
31.2 0.02 0
31.28 0.02 0
31.36 0.02 0
31.44 0.02 0
31.52 0.02 0
31.6 0.02 0
31.68 0.02 0
31.76 0.02 0
31.84 0.02 0
31.92 0.02 0
0 0.04 0
0.08 0.04 0
0.16 0.04 0
0.24 0.04 0
0.32 0.04 0
0.4 0.04 0
0.48 0.04 0
0.56 0.04 0
0.64 0.04 0
0.72 0.04 0
0.8 0.04 0
0.88 0.04 0
0.96 0.04 0
1.04 0.04 0
1.12 0.04 0
1.2 0.04 0
1.28 0.04 0
1.36 0.04 0
1.44 0.04 0
1.52 0.04 0
1.6 0.04 0
1.68 0.04 0
1.76 0.04 0
1.84 0.04 0
1.92 0.04 0
2 0.04 0
2.08 0.04 0
2.16 0.04 0
2.24 0.04 0
2.32 0.04 0
2.4 0.04 0
2.48 0.04 0
2.56 0.04 0
2.64 0.04 0
2.72 0.04 0
2.8 0.04 0
2.88 0.04 0
2.96 0.04 0
3.04 0.04 0
3.12 0.04 0
3.2 0.04 0
3.28 0.04 0
3.36 0.04 0
3.44 0.04 0
3.52 0.04 0
3.6 0.04 0
3.68 0.04 0
3.76 0.04 0
3.84 0.04 0
3.92 0.04 0
4 0.04 0
4.08 0.04 0
4.16 0.04 0
4.24 0.04 0
4.32 0.04 0
4.4 0.04 0
4.48 0.04 0
4.56 0.04 0
4.64 0.04 0
4.72 0.04 0
4.8 0.04 0
4.88 0.04 0
4.96 0.04 0
5.04 0.04 0
5.12 0.04 0
5.2 0.04 0
5.28 0.04 0
5.36 0.04 0
5.44 0.04 0
5.52 0.04 0
5.6 0.04 0
5.68 0.04 0
5.76 0.04 0
5.84 0.04 0
5.92 0.04 0
6 0.04 0
6.08 0.04 0
6.16 0.04 0
6.24 0.04 0
6.32 0.04 0
6.4 0.04 0
6.48 0.04 0
6.56 0.04 0
6.64 0.04 0
6.72 0.04 0
6.8 0.04 0
6.88 0.04 0
6.96 0.04 0
7.04 0.04 0
7.12 0.04 0
7.2 0.04 0
7.28 0.04 0
7.36 0.04 0
7.44 0.04 0
7.52 0.04 0
7.6 0.04 0
7.68 0.04 0
7.76 0.04 0
7.84 0.04 0
[...]
POINT_DATA 20000

SCALARS u float 1
LOOKUP_TABLE default
0
-0.506851
-0.291519
-0.213618
-0.178354
-0.157874
-0.144205
-0.134338
-0.12683
-0.120892
-0.116052
-0.112009
-0.108562
-0.105572
-0.102939
-0.100588
-0.0984649
-0.0965314
-0.0947595
-0.0931279
-0.091621
-0.0902286
-0.0889434
-0.0877551
-0.0866476
-0.0856019
-0.0846044
-0.0836547
-0.082765
-0.0819513
-0.0812232
-0.0805778
-0.0800026
-0.0794841
-0.0790151
-0.0785969
-0.0782341
-0.0779284
-0.0776734
-0.0774551
-0.0772561
-0.0770614
-0.076863
-0.0766606
-0.0764597
-0.0762685
-0.0760943
-0.0759417
-0.0758115
-0.0757014
-0.0756073
-0.0755244
-0.0754481
-0.0753749
-0.0753023
-0.0752289
-0.0751541
-0.0750775
-0.0749993
-0.0749196
-0.0748384
-0.0747559
-0.0746719
-0.0745864
-0.0744995
-0.0744109
-0.0743206
-0.0742286
-0.0741349
-0.0740394
-0.073942
-0.0738428
-0.0737418
-0.073639
-0.0735343
-0.0734278
-0.0733195
-0.0732093
-0.0730973
-0.0729835
-0.0728679
-0.0727505
-0.0726313
-0.0725103
-0.0723875
-0.072263
-0.0721368
-0.0720088
-0.0718791
-0.0717477
-0.0716146
-0.0714798
-0.0713434
-0.0712054
-0.0710657
-0.0709244
-0.0707816
-0.0706373
-0.0704914
-0.070344
-0.0701952
-0.0700449
-0.0698932
-0.0697401
-0.0695857
-0.0694299
-0.0692728
-0.0691145
-0.068955
-0.0687943
-0.0686324
-0.0684695
-0.0683054
-0.0681403
-0.0679742
-0.0678071
-0.0676392
-0.0674703
-0.0673006
-0.0671301
-0.0669589
-0.066787
-0.0666144
-0.0664412
-0.0662674
-0.0660931
-0.0659184
-0.0657432
-0.0655676
-0.0653918
-0.0652156
-0.0650393
-0.0648627
-0.0646861
-0.0645093
-0.0643326
-0.0641559
-0.0639793
-0.0638029
-0.0636266
-0.0634506
-0.0632749
-0.0630996
-0.0629247
-0.0627502
-0.0625763
-0.062403
-0.0622303
-0.0620583
-0.0618871
-0.0617167
-0.0615471
-0.0613785
-0.0612108
-0.0610441
-0.0608786
-0.0607141
-0.0605509
-0.0603889
-0.0602282
-0.0600689
-0.0599109
-0.0597545
-0.0595995
-0.0594461
-0.0592944
-0.0591443
-0.0589959
-0.0588493
-0.0587045
-0.0585616
-0.0584206
-0.0582816
-0.0581446
-0.0580097
-0.0578768
-0.0577462
-0.0576177
-0.0574915
-0.0573675
-0.0572459
-0.0571267
-0.0570098
-0.0568954
-0.0567836
-0.0566742
-0.0565674
-0.0564632
-0.0563617
-0.0562628
-0.0561666
-0.0560732
-0.0559825
-0.0558947
-0.0558097
-0.0557275
-0.0556482
-0.0555718
-0.0554984
-0.0554279
-0.0553605
-0.055296
-0.0552346
-0.0551762
-0.0551209
-0.0550686
-0.0550195
-0.0549735
-0.0549306
-0.0548909
-0.0548543
-0.0548209
-0.0547907
-0.0547636
-0.0547398
-0.0547192
-0.0547018
-0.0546876
-0.0546766
-0.0546688
-0.0546643
-0.054663
-0.0546649
-0.05467
-0.0546784
-0.0546899
-0.0547047
-0.0547227
-0.0547439
-0.0547682
-0.0547958
-0.0548265
-0.0548604
-0.0548975
-0.0549377
-0.054981
-0.0550274
-0.055077
-0.0551296
-0.0551853
-0.0552441
-0.0553059
-0.0553707
-0.0554385
-0.0555092
-0.055583
-0.0556597
-0.0557393
-0.0558217
-0.0559071
-0.0559953
-0.0560863
-0.0561802
-0.0562768
-0.0563761
-0.0564782
-0.0565829
-0.0566904
-0.0568004
-0.0569131
-0.0570284
-0.0571462
-0.0572666
-0.0573894
-0.0575148
-0.0576425
-0.0577727
-0.0579053
-0.0580402
-0.0581774
-0.0583169
-0.0584586
-0.0586026
-0.0587488
-0.0588972
-0.0590476
-0.0592002
-0.0593548
-0.0595115
-0.0596702
-0.0598309
-0.0599935
-0.060158
-0.0603243
-0.0604926
-0.0606626
-0.0608345
-0.061008
-0.0611834
-0.0613604
-0.061539
-0.0617193
-0.0619012
-0.0620847
-0.0622697
-0.0624562
-0.0626442
-0.0628336
-0.0630245
-0.0632167
-0.0634104
-0.0636053
-0.0638016
-0.0639992
-0.064198
-0.064398
-0.0645992
-0.0648016
-0.0650052
-0.0652099
-0.0654156
-0.0656225
-0.0658304
-0.0660393
-0.0662492
-0.0664601
-0.0666719
-0.0668847
-0.0670983
-0.0673129
-0.0675283
-0.0677445
-0.0679616
-0.0681795
-0.0683981
-0.0686176
-0.0688377
-0.0690586
-0.0692802
-0.0695024
-0.0697254
-0.0699489
-0.0701732
-0.070398
-0.0706234
-0.0708494
-0.071076
-0.0713031
-0.0715308
-0.071759
-0.0719877
-0.0722169
-0.0724466
-0.0726767
-0.0729073
-0.0731384
-0.0733699
-0.0736018
-0.0738341
-0.0740669
-0.0743
-0.0745335
-0.0747673
-0.0750016
-0.0752361
-0.0754711
-0.0757063
-0.0759419
-0.0761778
-0.076414
-0.0766505
-0.0768873
-0.0771244
-0.0773618
-0.0775994
-0.0778374
-0.0780756
-0.078314
-0.0785527
-0.0787916
-0.0790308
-0.0792703
-0.0795099
-0.0797498
-0.07999
-0.0802303
-0.0804709
-0.0807117
-0.0809527
-0.081194
-0.0814354
-0.0816772
-0.0819188
-0.0821615
-0.082403
-0.0826471
-0.0828878
-0.0831343
-0.0833732
-0.0836231
-0.0838601
-0.084113
-0.0843487
-0.0846078
-0.0848298
-0.0851325
-0.0852609
-0.0856908
-0.0856908
-0.0856908
1
0.506851
0.291519
0.213618
0.178354
0.157874
0.144205
0.134338
0.12683
0.120892
0.116052
0.112009
0.108562
0.105572
0.102939
0.100588
0.0984649
0.0965314
0.0947595
0.0931279
0.091621
0.0902286
0.0889434
0.0877551
0.0866476
0.0856019
0.0846044
0.0836547
0.082765
0.0819513
0.0812232
0.0805778
0.0800026
0.0794841
0.0790151
0.0785969
0.0782341
0.0779284
0.0776734
0.0774551
0.0772561
0.0770614
0.076863
0.0766606
0.0764597
0.0762685
0.0760943
0.0759417
0.0758115
0.0757014
0.0756073
0.0755244
0.0754481
0.0753749
0.0753023
0.0752289
0.0751541
0.0750775
0.0749993
0.0749196
0.0748384
0.0747559
0.0746719
0.0745864
0.0744995
0.0744109
0.0743206
0.0742286
0.0741349
0.0740394
0.073942
0.0738428
0.0737418
0.073639
0.0735343
0.0734278
0.0733195
0.0732093
0.0730973
0.0729835
0.0728679
0.0727505
0.0726313
0.0725103
0.0723875
0.072263
0.0721368
0.0720088
0.0718791
0.0717477
0.0716146
0.0714798
0.0713434
0.0712054
0.0710657
0.0709244
0.0707816
0.0706373
0.0704914
0.070344
0.0701952
0.0700449
0.0698932
0.0697401
0.0695857
0.0694299
0.0692728
0.0691145
0.068955
0.0687943
0.0686324
0.0684695
0.0683054
0.0681403
0.0679742
0.0678071
0.0676392
0.0674703
0.0673006
0.0671301
0.0669589
0.066787
0.0666144
0.0664412
0.0662674
0.0660931
0.0659184
0.0657432
0.0655676
0.0653918
0.0652156
0.0650393
0.0648627
0.0646861
0.0645093
0.0643326
0.0641559
0.0639793
0.0638029
0.0636266
0.0634506
0.0632749
0.0630996
0.0629247
0.0627502
0.0625763
0.062403
0.0622303
0.0620583
0.0618871
0.0617167
0.0615471
0.0613785
0.0612108
0.0610441
0.0608786
0.0607141
0.0605509
0.0603889
0.0602282
0.0600689
0.0599109
0.0597545
0.0595995
0.0594461
0.0592944
0.0591443
0.0589959
0.0588493
0.0587045
0.0585616
0.0584206
0.0582816
0.0581446
0.0580097
0.0578768
0.0577462
0.0576177
0.0574915
0.0573675
0.0572459
0.0571267
0.0570098
0.0568954
0.0567836
0.0566742
0.0565674
0.0564632
0.0563617
0.0562628
0.0561666
0.0560732
0.0559825
0.0558947
0.0558097
0.0557275
0.0556482
0.0555718
0.0554984
0.0554279
0.0553605
0.055296
0.0552346
0.0551762
0.0551209
0.0550686
0.0550195
0.0549735
0.0549306
0.0548909
0.0548543
0.0548209
0.0547907
0.0547636
0.0547398
0.0547192
0.0547018
0.0546876
0.0546766
0.0546688
0.0546643
0.054663
0.0546649
0.05467
0.0546784
0.0546899
0.0547047
0.0547227
0.0547439
0.0547682
0.0547958
0.0548265
0.0548604
0.0548975
0.0549377
0.054981
0.0550274
0.055077
0.0551296
0.0551853
0.0552441
0.0553059
0.0553707
0.0554385
0.0555092
0.055583
0.0556597
0.0557393
0.0558217
0.0559071
0.0559953
0.0560863
0.0561802
0.0562768
0.0563761
0.0564782
0.0565829
0.0566904
0.0568004
0.0569131
0.0570284
0.0571462
0.0572666
0.0573894
0.0575148
0.0576425
0.0577727
0.0579053
0.0580402
0.0581774
0.0583169
0.0584586
0.0586026
0.0587488
0.0588972
0.0590476
0.0592002
0.0593548
0.0595115
0.0596702
0.0598309
0.0599935
0.060158
0.0603243
0.0604926
0.0606626
0.0608345
0.061008
0.0611834
0.0613604
0.061539
0.0617193
0.0619012
0.0620847
0.0622697
0.0624562
0.0626442
0.0628336
0.0630245
0.0632167
0.0634104
0.0636053
0.0638016
0.0639992
0.064198
0.064398
0.0645992
0.0648016
0.0650052
0.0652099
0.0654156
0.0656225
0.0658304
0.0660393
0.0662492
0.0664601
0.0666719
0.0668847
0.0670983
0.0673129
0.0675283
0.0677445
0.0679616
0.0681795
0.0683981
0.0686176
0.0688377
0.0690586
0.0692802
0.0695024
0.0697254
0.0699489
0.0701732
0.070398
0.0706234
0.0708494
0.071076
0.0713031
0.0715308
0.071759
0.0719877
0.0722169
0.0724466
0.0726767
0.0729073
0.0731384
0.0733699
0.0736018
0.0738341
0.0740669
0.0743
0.0745335
0.0747673
0.0750016
0.0752361
0.0754711
0.0757063
0.0759419
0.0761778
0.076414
0.0766505
0.0768873
0.0771244
0.0773618
0.0775994
0.0778374
0.0780756
0.078314
0.0785527
0.0787916
0.0790308
0.0792703
0.0795099
0.0797498
0.07999
0.0802303
0.0804709
0.0807117
0.0809527
0.081194
0.0814354
0.0816772
0.0819188
0.0821615
0.082403
0.0826471
0.0828878
0.0831343
0.0833732
0.0836231
0.0838601
0.084113
0.0843487
0.0846078
0.0848298
0.0851325
0.0852609
0.0856908
0.0856908
0.0856908
1
0.92394
0.734837
0.596696
0.510582
0.455069
0.416712
0.388605
0.367072
0.350007
0.33611
0.324534
0.314701
0.306202
0.298741
0.292104
0.286138
0.280734
0.27581
0.271302
0.267161
0.263352
0.259843
0.2566
0.253582
0.250755
0.248099
0.24562
0.243342
0.241288
0.239466
0.237861
0.236449
0.235206
0.234119
0.233184
0.232399
0.231749
0.231206
0.230736
0.230304
0.229887
0.229479
0.229087
0.228724
0.228407
0.228146
0.227944
0.227797
0.227694
0.227625
0.227578
0.227543
0.227513
0.227484
0.227452
0.227418
0.227381
0.227341
0.227298
0.227253
0.227205
0.227155
0.227102
0.227046
0.226988
0.226925
0.22686
0.226791
0.226719
0.226643
0.226563
0.22648
0.226393
0.226302
0.226208
0.22611
0.226008
0.225902
0.225793
0.22568
0.225564
0.225443
0.225319
0.225191
0.225059
0.224924
0.224784
0.224641
0.224495
0.224344
0.22419
0.224032
0.223871
0.223705
0.223536
0.223364
0.223188
0.223008
0.222824
0.222637
0.222447
0.222253
0.222056
0.221855
0.22165
0.221443
0.221231
0.221017
0.220799
0.220579
0.220355
0.220127
0.219897
0.219664
0.219428
0.219188
0.218946
0.218701
0.218453
0.218203
0.21795
0.217694
0.217436
0.217175
0.216912
0.216646
0.216379
0.216109
0.215836
0.215562
0.215286
0.215008
0.214728
0.214446
0.214163
0.213878
0.213591
0.213303
0.213014
0.212723
0.212431
0.212138
0.211844
0.211549
0.211253
0.210956
0.210659
0.210361
0.210062
0.209764
0.209464
0.209165
0.208865
0.208566
0.208266
0.207967
0.207668
0.207369
0.207071
0.206773
0.206476
0.206179
0.205883
0.205589
0.205295
0.205002
0.204711
0.20442
0.204131
0.203844
0.203558
0.203274
0.202992
0.202711
0.202433
0.202156
0.201882
0.20161
0.20134
0.201072
0.200807
0.200545
0.200285
0.200028
0.199774
0.199523
0.199275
0.19903
0.198788
0.198549
0.198314
0.198082
0.197854
0.197629
0.197408
0.19719
0.196976
0.196767
0.196561
0.196359
0.196161
0.195967
0.195778
0.195592
0.195411
0.195235
0.195063
0.194895
0.194732
0.194574
0.19442
0.194271
0.194126
0.193987
0.193852
0.193722
0.193598
0.193478
0.193363
0.193253
0.193149
0.193049
0.192955
0.192865
0.192781
0.192703
0.192629
0.192561
0.192498
0.192441
0.192388
0.192342
0.1923
0.192264
0.192234
0.192209
0.192189
0.192175
0.192166
0.192163
0.192165
0.192172
0.192185
0.192204
0.192228
0.192257
0.192292
0.192332
0.192378
0.192429
0.192486
0.192548
0.192615
0.192688
0.192766
0.19285
0.192938
0.193032
0.193132
0.193236
0.193346
0.193461
0.193581
0.193707
0.193837
0.193973
0.194113
0.194259
0.194409
0.194565
0.194726
0.194891
0.195061
0.195236
0.195416
0.195601
0.19579
0.195985
0.196183
0.196387
0.196594
0.196807
0.197024
0.197245
0.19747
0.1977
0.197935
0.198173
0.198416
0.198663
0.198914
0.199169
0.199428
0.199692
0.199959
0.20023
0.200504
0.200783
0.201065
0.201352
0.201641
0.201935
0.202232
0.202532
0.202836
0.203143
0.203454
0.203768
0.204085
0.204406
0.204729
0.205056
0.205386
0.205719
0.206055
0.206394
0.206735
0.20708
0.207427
0.207777
0.20813
0.208486
0.208844
0.209205
0.209568
0.209934
0.210302
0.210672
0.211045
0.21142
0.211798
0.212178
0.212559
0.212943
0.213329
0.213718
0.214108
0.2145
0.214894
0.21529
0.215687
0.216087
0.216488
0.216891
0.217296
0.217702
0.21811
0.218519
0.21893
0.219342
0.219756
0.220171
0.220588
0.221006
0.221425
0.221846
0.222267
0.22269
0.223114
0.223539
0.223966
0.224393
0.224821
0.22525
0.225681
0.226112
0.226544
0.226976
0.22741
0.227844
0.228279
0.228715
0.229152
0.229589
0.230027
0.230465
0.230904
0.231343
0.231783
0.232224
0.232665
0.233106
0.233549
0.233989
0.234435
0.234873
0.235324
0.235759
0.236216
0.236646
0.237111
0.237539
0.238016
0.238419
0.238986
0.23922
0.240096
0.240096
0.240096
1
1.07932
0.996409
0.882713
0.787504
0.715494
0.661406
0.619947
0.587352
0.561111
0.539539
0.521475
0.50609
0.492775
0.481079
0.470673
0.461323
0.452861
0.445161
0.438123
0.431669
0.425735
0.420265
0.415204
0.410496
0.406099
0.402
0.398208
0.394751
0.391646
0.388892
0.386466
0.384337
0.38248
0.380881
0.379526
0.378398
0.377461
0.376667
0.375965
0.375314
0.374694
0.374104
0.373561
0.373086
0.372697
0.372402
0.3722
0.372077
0.372018
0.372004
0.372018
0.372046
0.372081
0.372116
0.372149
0.372178
0.372204
0.372226
0.372246
0.372263
0.372278
0.372289
0.372298
0.372303
0.372305
0.372303
0.372297
0.372287
0.372273
0.372255
0.372232
0.372205
0.372174
0.372138
0.372098
0.372053
0.372004
0.37195
0.371892
0.371829
0.371762
0.37169
0.371614
0.371533
0.371447
0.371357
0.371262
0.371163
0.371059
0.37095
0.370837
0.370719
0.370597
0.37047
0.370338
0.370202
0.370061
0.369915
0.369765
0.369611
0.369452
0.369288
0.36912
0.368947
0.36877
0.368589
0.368403
0.368213
0.368018
0.367819
0.367616
0.367409
0.367197
0.366982
0.366762
0.366538
0.36631
0.366079
0.365843
0.365603
0.36536
0.365113
0.364862
0.364608
0.364349
0.364088
0.363823
0.363554
0.363283
0.363008
0.36273
0.362448
0.362164
0.361877
0.361586
0.361293
0.360998
0.360699
0.360398
0.360095
0.359789
0.359481
0.35917
0.358858
0.358543
0.358227
0.357908
0.357588
0.357266
0.356942
0.356617
0.356291
0.355963
0.355634
0.355304
0.354973
0.354641
0.354308
0.353974
0.35364
0.353305
0.35297
0.352635
0.352299
0.351963
0.351627
0.351292
0.350956
0.350621
0.350286
0.349952
0.349618
0.349285
0.348953
0.348622
0.348292
0.347963
0.347635
0.347309
0.346984
0.34666
0.346338
0.346018
0.3457
0.345384
0.34507
0.344758
0.344448
0.34414
0.343835
0.343533
0.343233
0.342936
0.342641
0.34235
0.342061
0.341776
0.341493
0.341214
0.340939
0.340666
0.340397
0.340132
0.339871
0.339613
0.339359
0.339109
0.338863
0.338621
0.338383
0.338149
0.337919
0.337694
0.337473
0.337257
0.337045
0.336838
0.336635
0.336437
0.336244
0.336056
0.335872
0.335694
0.33552
0.335351
0.335188
0.335029
0.334876
0.334728
0.334585
0.334447
0.334315
0.334188
0.334066
0.33395
0.333839
0.333734
0.333634
0.333539
0.33345
0.333367
0.333289
0.333217
0.33315
0.333089
0.333034
0.332984
0.33294
0.332901
0.332869
0.332841
0.33282
0.332804
0.332794
0.332789
0.33279
0.332797
0.33281
0.332828
0.332851
0.332881
0.332916
0.332956
0.333002
0.333054
0.333111
0.333174
0.333242
0.333316
0.333395
0.33348
0.33357
0.333665
0.333766
0.333872
0.333984
0.334101
0.334223
0.33435
0.334483
0.33462
0.334763
0.334911
0.335064
0.335222
0.335384
0.335552
0.335725
0.335903
0.336085
0.336272
0.336464
0.336661
0.336862
0.337068
0.337278
0.337493
0.337713
0.337937
0.338165
0.338398
0.338634
0.338876
0.339121
0.33937
0.339624
0.339882
0.340143
0.340409
0.340678
0.340952
0.341229
0.341509
0.341794
0.342082
0.342374
0.342669
0.342968
0.343271
0.343576
0.343885
0.344198
0.344513
0.344832
0.345154
0.345479
0.345807
0.346138
0.346472
0.346808
0.347148
0.34749
0.347835
0.348183
0.348533
0.348886
0.349241
0.349599
0.349959
0.350322
0.350687
0.351054
0.351423
0.351795
0.352168
0.352544
0.352921
0.353301
0.353682
0.354065
0.35445
0.354837
0.355225
0.355615
0.356007
0.3564
0.356794
0.35719
0.357588
0.357986
0.358386
0.358787
0.35919
0.359593
0.359998
0.360403
0.36081
0.361217
0.361626
0.362035
0.362445
0.362856
0.363267
0.363679
0.364092
0.364505
0.364919
0.365333
0.365747
0.366162
0.366578
0.366993
0.367411
0.367824
0.368245
0.368656
0.369083
0.369487
0.369923
0.370322
0.370765
0.371161
0.371622
0.371984
0.372557
0.372743
0.373644
0.373644
0.373644
1
1.11141
1.11371
1.05461
0.983145
0.917572
0.862113
0.816275
0.778415
0.746906
0.720413
0.697887
0.678507
0.66162
0.646712
0.633392
0.621382
0.610482
0.600544
0.591448
0.583098
0.575413
0.568317
0.561734
0.555597
0.549861
0.544522
0.539602
0.535132
0.531121
0.527553
0.524393
0.521605
0.519169
0.517075
0.515309
0.51384
0.512612
0.511555
0.510601
0.509705
0.508847
0.50804
0.50731
0.506686
0.506189
0.505826
0.505588
0.505456
0.505406
0.505412
0.505452
0.50551
0.505574
0.505638
0.505699
0.505757
0.505811
0.505862
0.50591
0.505955
0.505998
0.506038
0.506075
0.506109
0.506139
0.506166
0.506188
0.506206
0.506219
0.506228
0.506233
0.506232
0.506228
0.506218
0.506204
0.506185
0.506162
0.506133
0.5061
0.506062
0.50602
0.505972
0.505919
0.505862
0.5058
0.505732
0.50566
0.505583
0.505501
0.505414
0.505322
0.505225
0.505123
0.505016
0.504904
0.504787
0.504665
0.504538
0.504406
0.504269
0.504127
0.50398
0.503828
0.503672
0.50351
0.503344
0.503172
0.502996
0.502815
0.502629
0.502439
0.502244
0.502044
0.501839
0.50163
0.501417
0.501198
0.500976
0.500748
0.500517
0.500281
0.500041
0.499796
0.499547
0.499295
0.499038
0.498776
0.498511
0.498242
0.49797
0.497693
0.497413
0.497129
0.496841
0.49655
0.496255
0.495957
0.495656
0.495352
0.495044
0.494733
0.494419
0.494103
0.493783
0.493461
0.493136
0.492809
0.492479
0.492146
0.491812
0.491475
0.491136
0.490794
0.490451
0.490106
0.48976
0.489411
0.489061
0.48871
0.488357
0.488003
0.487648
0.487291
0.486934
0.486576
0.486217
0.485857
0.485497
0.485136
0.484775
0.484413
0.484052
0.48369
0.483328
0.482967
0.482605
0.482244
0.481884
0.481524
0.481164
0.480806
0.480448
0.480091
0.479735
0.47938
0.479026
0.478674
0.478323
0.477974
0.477626
0.47728
0.476936
0.476593
0.476253
0.475915
0.475579
0.475245
0.474913
0.474584
0.474257
0.473933
0.473612
0.473293
0.472978
0.472665
0.472355
0.472048
0.471745
0.471445
0.471148
0.470854
0.470564
0.470277
0.469995
0.469715
0.46944
0.469168
0.4689
0.468636
0.468376
0.46812
0.467868
0.46762
0.467377
0.467138
0.466903
0.466672
0.466446
0.466224
0.466007
0.465795
0.465587
0.465383
0.465184
0.46499
0.464801
0.464616
0.464436
0.464262
0.464091
0.463926
0.463766
0.46361
0.46346
0.463314
0.463174
0.463038
0.462908
0.462782
0.462662
0.462547
0.462436
0.462331
0.462231
0.462136
0.462046
0.461961
0.461881
0.461806
0.461737
0.461672
0.461613
0.461558
0.461509
0.461465
0.461425
0.461391
0.461362
0.461338
0.461319
0.461304
0.461295
0.461291
0.461291
0.461297
0.461307
0.461322
0.461342
0.461367
0.461396
0.461431
0.46147
0.461514
0.461562
0.461615
0.461672
0.461735
0.461801
0.461873
0.461948
0.462028
0.462113
0.462202
0.462295
0.462392
0.462494
0.4626
0.46271
0.462824
0.462942
0.463064
0.46319
0.46332
0.463455
0.463592
0.463734
0.46388
0.464029
0.464182
0.464338
0.464499
0.464662
0.464829
0.465
0.465174
0.465351
0.465532
0.465716
0.465903
0.466094
0.466287
0.466483
0.466683
0.466885
0.467091
0.467299
0.46751
0.467724
0.46794
0.468159
0.468381
0.468605
0.468832
0.469061
0.469293
0.469527
0.469763
0.470002
0.470243
0.470485
0.47073
0.470977
0.471226
0.471477
0.47173
0.471985
0.472241
0.4725
0.472759
0.473021
0.473284
0.473548
0.473815
0.474082
0.474351
0.474621
0.474892
0.475165
0.475439
0.475714
0.47599
0.476266
0.476544
0.476823
0.477103
0.477383
0.477664
0.477946
0.478229
0.478512
0.478796
0.47908
0.479365
0.47965
0.479935
0.480221
0.480507
0.480793
0.48108
0.481366
0.481653
0.481939
0.482228
0.482511
0.482804
0.483083
0.483381
0.483654
0.483961
0.484227
0.484541
0.484803
0.48514
0.485361
0.485812
0.485893
0.486568
0.486568
0.486568
1
1.09556
1.14301
1.13307
1.09646
1.05186
1.00772
0.967286
0.931391
0.899927
0.872452
0.848445
0.827387
0.808784
0.792186
0.777223
0.763621
0.751189
0.739786
0.729301
0.71964
0.710724
0.702469
0.694783
0.687581
0.680816
0.674494
0.668663
0.663371
0.658626
0.654393
0.650611
0.647236
0.644251
0.641662
0.639472
0.637649
0.636124
0.634801
0.63359
0.63243
0.631303
0.63023
0.629251
0.62841
0.627735
0.627235
0.626899
0.6267
0.626605
0.626581
0.6266
0.62664
0.626688
0.626736
0.626781
0.626822
0.626859
0.626892
0.626923
0.626951
0.626976
0.627
0.62702
0.627037
0.62705
0.627059
0.627065
0.627066
0.627062
0.627054
0.627042
0.627024
0.627002
0.626975
0.626944
0.626907
0.626866
0.62682
0.626769
0.626713
0.626652
0.626586
0.626515
0.626439
0.626358
0.626272
0.626181
0.626085
0.625984
0.625877
0.625766
0.625649
0.625527
0.6254
0.625268
0.62513
0.624988
0.62484
0.624688
0.62453
0.624367
0.624198
0.624025
0.623847
0.623663
0.623474
0.623281
0.623082
0.622878
0.62267
0.622456
0.622237
0.622014
0.621785
0.621552
0.621314