# vtk DataFile Version 2.0
FlowField
ASCII
DATASET STRUCTURED_GRID
DIMENSIONS 400 1 50
POINTS 20000 float
0 0 0
0.08 0 0
0.16 0 0
0.24 0 0
0.32 0 0
0.4 0 0
0.48 0 0
0.56 0 0
0.64 0 0
0.72 0 0
0.8 0 0
0.88 0 0
0.96 0 0
1.04 0 0
1.12 0 0
1.2 0 0
1.28 0 0
1.36 0 0
1.44 0 0
1.52 0 0
1.6 0 0
1.68 0 0
1.76 0 0
1.84 0 0
1.92 0 0
2 0 0
2.08 0 0
2.16 0 0
2.24 0 0
2.32 0 0
2.4 0 0
2.48 0 0
2.56 0 0
2.64 0 0
2.72 0 0
2.8 0 0
2.88 0 0
2.96 0 0
3.04 0 0
3.12 0 0
3.2 0 0
3.28 0 0
3.36 0 0
3.44 0 0
3.52 0 0
3.6 0 0
3.68 0 0
3.76 0 0
3.84 0 0
3.92 0 0
4 0 0
4.08 0 0
4.16 0 0
4.24 0 0
4.32 0 0
4.4 0 0
4.48 0 0
4.56 0 0
4.64 0 0
4.72 0 0
4.8 0 0
4.88 0 0
4.96 0 0
5.04 0 0
5.12 0 0
5.2 0 0
5.28 0 0
5.36 0 0
5.44 0 0
5.52 0 0
5.6 0 0
5.68 0 0
5.76 0 0
5.84 0 0
5.92 0 0
6 0 0
6.08 0 0
6.16 0 0
6.24 0 0
6.32 0 0
6.4 0 0
6.48 0 0
6.56 0 0
6.64 0 0
6.72 0 0
6.8 0 0
6.88 0 0
6.96 0 0
7.04 0 0
7.12 0 0
7.2 0 0
7.28 0 0
7.36 0 0
7.44 0 0
7.52 0 0
7.6 0 0
7.68 0 0
7.76 0 0
7.84 0 0
7.92 0 0
8 0 0
8.08 0 0
8.16 0 0
8.24 0 0
8.32 0 0
8.4 0 0
8.48 0 0
8.56 0 0
8.64 0 0
8.72 0 0
8.8 0 0
8.88 0 0
8.96 0 0
9.04 0 0
9.12 0 0
9.2 0 0
9.28 0 0
9.36 0 0
9.44 0 0
9.52 0 0
9.6 0 0
9.68 0 0
9.76 0 0
9.84 0 0
9.92 0 0
10 0 0
10.08 0 0
10.16 0 0
10.24 0 0
10.32 0 0
10.4 0 0
10.48 0 0
10.56 0 0
10.64 0 0
10.72 0 0
10.8 0 0
10.88 0 0
10.96 0 0
11.04 0 0
11.12 0 0
11.2 0 0
11.28 0 0
11.36 0 0
11.44 0 0
11.52 0 0
11.6 0 0
11.68 0 0
11.76 0 0
11.84 0 0
11.92 0 0
12 0 0
12.08 0 0
12.16 0 0
12.24 0 0
12.32 0 0
12.4 0 0
12.48 0 0
12.56 0 0
12.64 0 0
12.72 0 0
12.8 0 0
12.88 0 0
12.96 0 0
13.04 0 0
13.12 0 0
13.2 0 0
13.28 0 0
13.36 0 0
13.44 0 0
13.52 0 0
13.6 0 0
13.68 0 0
13.76 0 0
13.84 0 0
13.92 0 0
14 0 0
14.08 0 0
14.16 0 0
14.24 0 0
14.32 0 0
14.4 0 0
14.48 0 0
14.56 0 0
14.64 0 0
14.72 0 0
14.8 0 0
14.88 0 0
14.96 0 0
15.04 0 0
15.12 0 0
15.2 0 0
15.28 0 0
15.36 0 0
15.44 0 0
15.52 0 0
15.6 0 0
15.68 0 0
15.76 0 0
15.84 0 0
15.92 0 0
16 0 0
16.08 0 0
16.16 0 0
16.24 0 0
16.32 0 0
16.4 0 0
16.48 0 0
16.56 0 0
16.64 0 0
16.72 0 0
16.8 0 0
16.88 0 0
16.96 0 0
17.04 0 0
17.12 0 0
17.2 0 0
17.28 0 0
17.36 0 0
17.44 0 0
17.52 0 0
17.6 0 0
17.68 0 0
17.76 0 0
17.84 0 0
17.92 0 0
18 0 0
18.08 0 0
18.16 0 0
18.24 0 0
18.32 0 0
18.4 0 0
18.48 0 0
18.56 0 0
18.64 0 0
18.72 0 0
18.8 0 0
18.88 0 0
18.96 0 0
19.04 0 0
19.12 0 0
19.2 0 0
19.28 0 0
19.36 0 0
19.44 0 0
19.52 0 0
19.6 0 0
19.68 0 0
19.76 0 0
19.84 0 0
19.92 0 0
20 0 0
20.08 0 0
20.16 0 0
20.24 0 0
20.32 0 0
20.4 0 0
20.48 0 0
20.56 0 0
20.64 0 0
20.72 0 0
20.8 0 0
20.88 0 0
20.96 0 0
21.04 0 0
21.12 0 0
21.2 0 0
21.28 0 0
21.36 0 0
21.44 0 0
21.52 0 0
21.6 0 0
21.68 0 0
21.76 0 0
21.84 0 0
21.92 0 0
22 0 0
22.08 0 0
22.16 0 0
22.24 0 0
22.32 0 0
22.4 0 0
22.48 0 0
22.56 0 0
22.64 0 0
22.72 0 0
22.8 0 0
22.88 0 0
22.96 0 0
23.04 0 0
23.12 0 0
23.2 0 0
23.28 0 0
23.36 0 0
23.44 0 0
23.52 0 0
23.6 0 0
23.68 0 0
23.76 0 0
23.84 0 0
23.92 0 0
24 0 0
24.08 0 0
24.16 0 0
24.24 0 0
24.32 0 0
24.4 0 0
24.48 0 0
24.56 0 0
24.64 0 0
24.72 0 0
24.8 0 0
24.88 0 0
24.96 0 0
25.04 0 0
25.12 0 0
25.2 0 0
25.28 0 0
25.36 0 0
25.44 0 0
25.52 0 0
25.6 0 0
25.68 0 0
25.76 0 0
25.84 0 0
25.92 0 0
26 0 0
26.08 0 0
26.16 0 0
26.24 0 0
26.32 0 0
26.4 0 0
26.48 0 0
26.56 0 0
26.64 0 0
26.72 0 0
26.8 0 0
26.88 0 0
26.96 0 0
27.04 0 0
27.12 0 0
27.2 0 0
27.28 0 0
27.36 0 0
27.44 0 0
27.52 0 0
27.6 0 0
27.68 0 0
27.76 0 0
27.84 0 0
27.92 0 0
28 0 0
28.08 0 0
28.16 0 0
28.24 0 0
28.32 0 0
28.4 0 0
28.48 0 0
28.56 0 0
28.64 0 0
28.72 0 0
28.8 0 0
28.88 0 0
28.96 0 0
29.04 0 0
29.12 0 0
29.2 0 0
29.28 0 0
29.36 0 0
29.44 0 0
29.52 0 0
29.6 0 0
29.68 0 0
29.76 0 0
29.84 0 0
29.92 0 0
30 0 0
30.08 0 0
30.16 0 0
30.24 0 0
30.32 0 0
30.4 0 0
30.48 0 0
30.56 0 0
30.64 0 0
30.72 0 0
30.8 0 0
30.88 0 0
30.96 0 0
31.04 0 0
31.12 0 0
31.2 0 0
31.28 0 0
31.36 0 0
31.44 0 0
31.52 0 0
31.6 0 0
31.68 0 0
31.76 0 0
31.84 0 0
31.92 0 0
0 0.02 0
0.08 0.02 0
0.16 0.02 0
0.24 0.02 0
0.32 0.02 0
0.4 0.02 0
0.48 0.02 0
0.56 0.02 0
0.64 0.02 0
0.72 0.02 0
0.8 0.02 0
0.88 0.02 0
0.96 0.02 0
1.04 0.02 0
1.12 0.02 0
1.2 0.02 0
1.28 0.02 0
1.36 0.02 0
1.44 0.02 0
1.52 0.02 0
1.6 0.02 0
1.68 0.02 0
1.76 0.02 0
1.84 0.02 0
1.92 0.02 0
2 0.02 0
2.08 0.02 0
2.16 0.02 0
2.24 0.02 0
2.32 0.02 0
2.4 0.02 0
2.48 0.02 0
2.56 0.02 0
2.64 0.02 0
2.72 0.02 0
2.8 0.02 0
2.88 0.02 0
2.96 0.02 0
3.04 0.02 0
3.12 0.02 0
3.2 0.02 0
3.28 0.02 0
3.36 0.02 0
3.44 0.02 0
3.52 0.02 0
3.6 0.02 0
3.68 0.02 0
3.76 0.02 0
3.84 0.02 0
3.92 0.02 0
4 0.02 0
4.08 0.02 0
4.16 0.02 0
4.24 0.02 0
4.32 0.02 0
4.4 0.02 0
4.48 0.02 0
4.56 0.02 0
4.64 0.02 0
4.72 0.02 0
4.8 0.02 0
4.88 0.02 0
4.96 0.02 0
5.04 0.02 0
5.12 0.02 0
5.2 0.02 0
5.28 0.02 0
5.36 0.02 0
5.44 0.02 0
5.52 0.02 0
5.6 0.02 0
5.68 0.02 0
5.76 0.02 0
5.84 0.02 0
5.92 0.02 0
6 0.02 0
6.08 0.02 0
6.16 0.02 0
6.24 0.02 0
6.32 0.02 0
6.4 0.02 0
6.48 0.02 0
6.56 0.02 0
6.64 0.02 0
6.72 0.02 0
6.8 0.02 0
6.88 0.02 0
6.96 0.02 0
7.04 0.02 0
7.12 0.02 0
7.2 0.02 0
7.28 0.02 0
7.36 0.02 0
7.44 0.02 0
7.52 0.02 0
7.6 0.02 0
7.68 0.02 0
7.76 0.02 0
7.84 0.02 0
7.92 0.02 0
8 0.02 0
8.08 0.02 0
8.16 0.02 0
8.24 0.02 0
8.32 0.02 0
8.4 0.02 0
8.48 0.02 0
8.56 0.02 0
8.64 0.02 0
8.72 0.02 0
8.8 0.02 0
8.88 0.02 0
8.96 0.02 0
9.04 0.02 0
9.12 0.02 0
9.2 0.02 0
9.28 0.02 0
9.36 0.02 0
9.44 0.02 0
9.52 0.02 0
9.6 0.02 0
9.68 0.02 0
9.76 0.02 0
9.84 0.02 0
9.92 0.02 0
10 0.02 0
10.08 0.02 0
10.16 0.02 0
10.24 0.02 0
10.32 0.02 0
10.4 0.02 0
10.48 0.02 0
10.56 0.02 0
10.64 0.02 0
10.72 0.02 0
10.8 0.02 0
10.88 0.02 0
10.96 0.02 0
11.04 0.02 0
11.12 0.02 0
11.2 0.02 0
11.28 0.02 0
11.36 0.02 0
11.44 0.02 0
11.52 0.02 0
11.6 0.02 0
11.68 0.02 0
11.76 0.02 0
11.84 0.02 0
11.92 0.02 0
12 0.02 0
12.08 0.02 0
12.16 0.02 0
12.24 0.02 0
12.32 0.02 0
12.4 0.02 0
12.48 0.02 0
12.56 0.02 0
12.64 0.02 0
12.72 0.02 0
12.8 0.02 0
12.88 0.02 0
12.96 0.02 0
13.04 0.02 0
13.12 0.02 0
13.2 0.02 0
13.28 0.02 0
13.36 0.02 0
13.44 0.02 0
13.52 0.02 0
13.6 0.02 0
13.68 0.02 0
13.76 0.02 0
13.84 0.02 0
13.92 0.02 0
14 0.02 0
14.08 0.02 0
14.16 0.02 0
14.24 0.02 0
14.32 0.02 0
14.4 0.02 0
14.48 0.02 0
14.56 0.02 0
14.64 0.02 0
14.72 0.02 0
14.8 0.02 0
14.88 0.02 0
14.96 0.02 0
15.04 0.02 0
15.12 0.02 0
15.2 0.02 0
15.28 0.02 0
15.36 0.02 0
15.44 0.02 0
15.52 0.02 0
15.6 0.02 0
15.68 0.02 0
15.76 0.02 0
15.84 0.02 0
15.92 0.02 0
16 0.02 0
16.08 0.02 0
16.16 0.02 0
16.24 0.02 0
16.32 0.02 0
16.4 0.02 0
16.48 0.02 0
16.56 0.02 0
16.64 0.02 0
16.72 0.02 0
16.8 0.02 0
16.88 0.02 0
16.96 0.02 0
17.04 0.02 0
17.12 0.02 0
17.2 0.02 0
17.28 0.02 0
17.36 0.02 0
17.44 0.02 0
17.52 0.02 0
17.6 0.02 0
17.68 0.02 0
17.76 0.02 0
17.84 0.02 0
17.92 0.02 0
18 0.02 0
18.08 0.02 0
18.16 0.02 0
18.24 0.02 0
18.32 0.02 0
18.4 0.02 0
18.48 0.02 0
18.56 0.02 0
18.64 0.02 0
18.72 0.02 0
18.8 0.02 0
18.88 0.02 0
18.96 0.02 0
19.04 0.02 0
19.12 0.02 0
19.2 0.02 0
19.28 0.02 0
19.36 0.02 0
19.44 0.02 0
19.52 0.02 0
19.6 0.02 0
19.68 0.02 0
19.76 0.02 0
19.84 0.02 0
19.92 0.02 0
20 0.02 0
20.08 0.02 0
20.16 0.02 0
20.24 0.02 0
20.32 0.02 0
20.4 0.02 0
20.48 0.02 0
20.56 0.02 0
20.64 0.02 0
20.72 0.02 0
20.8 0.02 0
20.88 0.02 0
20.96 0.02 0
21.04 0.02 0
21.12 0.02 0
21.2 0.02 0
21.28 0.02 0
21.36 0.02 0
21.44 0.02 0
21.52 0.02 0
21.6 0.02 0
21.68 0.02 0
21.76 0.02 0
21.84 0.02 0
21.92 0.02 0
22 0.02 0
22.08 0.02 0
22.16 0.02 0
22.24 0.02 0
22.32 0.02 0
22.4 0.02 0
22.48 0.02 0
22.56 0.02 0
22.64 0.02 0
22.72 0.02 0
22.8 0.02 0
22.88 0.02 0
22.96 0.02 0
23.04 0.02 0
23.12 0.02 0
23.2 0.02 0
23.28 0.02 0
23.36 0.02 0
23.44 0.02 0
23.52 0.02 0
23.6 0.02 0
23.68 0.02 0
23.76 0.02 0
23.84 0.02 0
23.92 0.02 0
24 0.02 0
24.08 0.02 0
24.16 0.02 0
24.24 0.02 0
24.32 0.02 0
24.4 0.02 0
24.48 0.02 0
24.56 0.02 0
24.64 0.02 0
24.72 0.02 0
24.8 0.02 0
24.88 0.02 0
24.96 0.02 0
25.04 0.02 0
25.12 0.02 0
25.2 0.02 0
25.28 0.02 0
25.36 0.02 0
25.44 0.02 0
25.52 0.02 0
25.6 0.02 0
25.68 0.02 0
25.76 0.02 0
25.84 0.02 0
25.92 0.02 0
26 0.02 0
26.08 0.02 0
26.16 0.02 0
26.24 0.02 0
26.32 0.02 0
26.4 0.02 0
26.48 0.02 0
26.56 0.02 0
26.64 0.02 0
26.72 0.02 0
26.8 0.02 0
26.88 0.02 0
26.96 0.02 0
27.04 0.02 0
27.12 0.02 0
27.2 0.02 0
27.28 0.02 0
27.36 0.02 0
27.44 0.02 0
27.52 0.02 0
27.6 0.02 0
27.68 0.02 0
27.76 0.02 0
27.84 0.02 0
27.92 0.02 0
28 0.02 0
28.08 0.02 0
28.16 0.02 0
28.24 0.02 0
28.32 0.02 0
28.4 0.02 0
28.48 0.02 0
28.56 0.02 0
28.64 0.02 0
28.72 0.02 0
28.8 0.02 0
28.88 0.02 0
28.96 0.02 0
29.04 0.02 0
29.12 0.02 0
29.2 0.02 0
29.28 0.02 0
29.36 0.02 0
29.44 0.02 0
29.52 0.02 0
29.6 0.02 0
29.68 0.02 0
29.76 0.02 0
29.84 0.02 0
29.92 0.02 0
30 0.02 0
30.08 0.02 0
30.16 0.02 0
30.24 0.02 0
30.32 0.02 0
30.4 0.02 0
30.48 0.02 0
30.56 0.02 0
30.64 0.02 0
30.72 0.02 0
30.8 0.02 0
30.88 0.02 0
30.96 0.02 0
31.04 0.02 0
31.12 0.02 0
31.2 0.02 0
31.28 0.02 0
31.36 0.02 0
31.44 0.02 0
31.52 0.02 0
31.6 0.02 0
31.68 0.02 0
31.76 0.02 0
31.84 0.02 0
31.92 0.02 0
0 0.04 0
0.08 0.04 0
0.16 0.04 0
0.24 0.04 0
0.32 0.04 0
0.4 0.04 0
0.48 0.04 0
0.56 0.04 0
0.64 0.04 0
0.72 0.04 0
0.8 0.04 0
0.88 0.04 0
0.96 0.04 0
1.04 0.04 0
1.12 0.04 0
1.2 0.04 0
1.28 0.04 0
1.36 0.04 0
1.44 0.04 0
1.52 0.04 0
1.6 0.04 0
1.68 0.04 0
1.76 0.04 0
1.84 0.04 0
1.92 0.04 0
2 0.04 0
2.08 0.04 0
2.16 0.04 0
2.24 0.04 0
2.32 0.04 0
2.4 0.04 0
2.48 0.04 0
2.56 0.04 0
2.64 0.04 0
2.72 0.04 0
2.8 0.04 0
2.88 0.04 0
2.96 0.04 0
3.04 0.04 0
3.12 0.04 0
3.2 0.04 0
3.28 0.04 0
3.36 0.04 0
3.44 0.04 0
3.52 0.04 0
3.6 0.04 0
3.68 0.04 0
3.76 0.04 0
3.84 0.04 0
3.92 0.04 0
4 0.04 0
4.08 0.04 0
4.16 0.04 0
4.24 0.04 0
4.32 0.04 0
4.4 0.04 0
4.48 0.04 0
4.56 0.04 0
4.64 0.04 0
4.72 0.04 0
4.8 0.04 0
4.88 0.04 0
4.96 0.04 0
5.04 0.04 0
5.12 0.04 0
5.2 0.04 0
5.28 0.04 0
5.36 0.04 0
5.44 0.04 0
5.52 0.04 0
5.6 0.04 0
5.68 0.04 0
5.76 0.04 0
5.84 0.04 0
5.92 0.04 0
6 0.04 0
6.08 0.04 0
6.16 0.04 0
6.24 0.04 0
6.32 0.04 0
6.4 0.04 0
6.48 0.04 0
6.56 0.04 0
6.64 0.04 0
6.72 0.04 0
6.8 0.04 0
6.88 0.04 0
6.96 0.04 0
7.04 0.04 0
7.12 0.04 0
7.2 0.04 0
7.28 0.04 0
7.36 0.04 0
7.44 0.04 0
7.52 0.04 0
7.6 0.04 0
7.68 0.04 0
7.76 0.04 0
7.84 0.04 0
[...]
POINT_DATA 20000

SCALARS u float 1
LOOKUP_TABLE default
0
-0.50709
-0.29192
-0.214162
-0.179027
-0.158666
-0.145113
-0.135361
-0.127969
-0.122142
-0.117404
-0.113453
-0.110089
-0.107176
-0.104618
-0.102345
-0.100305
-0.0984605
-0.0967808
-0.0952423
-0.0938264
-0.0925175
-0.091303
-0.0901723
-0.0891165
-0.0881278
-0.0871998
-0.0863266
-0.0855034
-0.0847257
-0.0839897
-0.083292
-0.0826294
-0.0819994
-0.0813995
-0.0808274
-0.0802813
-0.0797593
-0.0792597
-0.0787812
-0.0783224
-0.0778821
-0.077459
-0.0770523
-0.076661
-0.0762841
-0.0759209
-0.0755706
-0.0752326
-0.0749062
-0.0745909
-0.074286
-0.073991
-0.0737056
-0.0734291
-0.0731613
-0.0729018
-0.0726501
-0.0724059
-0.0721689
-0.0719388
-0.0717153
-0.0714982
-0.0712871
-0.0710819
-0.0708824
-0.0706883
-0.0704993
-0.0703154
-0.0701364
-0.069962
-0.0697921
-0.0696266
-0.0694653
-0.0693081
-0.0691548
-0.0690053
-0.0688595
-0.0687173
-0.0685785
-0.0684431
-0.0683109
-0.0681819
-0.068056
-0.0679331
-0.067813
-0.0676957
-0.0675812
-0.0674694
-0.0673601
-0.0672533
-0.067149
-0.067047
-0.0669474
-0.06685
-0.0667548
-0.0666618
-0.0665709
-0.066482
-0.0663951
-0.0663101
-0.066227
-0.0661457
-0.0660663
-0.0659886
-0.0659126
-0.0658383
-0.0657656
-0.0656945
-0.065625
-0.0655569
-0.0654904
-0.0654253
-0.0653617
-0.0652994
-0.0652385
-0.0651789
-0.0651206
-0.0650635
-0.0650077
-0.0649531
-0.0648997
-0.0648475
-0.0647964
-0.0647463
-0.0646974
-0.0646495
-0.0646027
-0.0645568
-0.064512
-0.0644681
-0.0644252
-0.0643831
-0.064342
-0.0643018
-0.0642625
-0.064224
-0.0641863
-0.0641495
-0.0641134
-0.0640781
-0.0640436
-0.0640098
-0.0639768
-0.0639444
-0.0639128
-0.0638818
-0.0638515
-0.0638219
-0.0637929
-0.0637645
-0.0637368
-0.0637096
-0.0636831
-0.0636571
-0.0636316
-0.0636068
-0.0635824
-0.0635586
-0.0635353
-0.0635125
-0.0634902
-0.0634684
-0.063447
-0.0634262
-0.0634057
-0.0633857
-0.0633662
-0.063347
-0.0633283
-0.06331
-0.0632921
-0.0632746
-0.0632574
-0.0632406
-0.0632242
-0.0632081
-0.0631924
-0.0631771
-0.063162
-0.0631473
-0.0631329
-0.0631188
-0.063105
-0.0630916
-0.0630784
-0.0630655
-0.0630528
-0.0630405
-0.0630284
-0.0630166
-0.063005
-0.0629937
-0.0629826
-0.0629717
-0.0629611
-0.0629508
-0.0629406
-0.0629307
-0.0629209
-0.0629114
-0.0629021
-0.062893
-0.0628841
-0.0628754
-0.0628669
-0.0628585
-0.0628504
-0.0628424
-0.0628345
-0.0628269
-0.0628194
-0.0628121
-0.0628049
-0.0627979
-0.062791
-0.0627843
-0.0627777
-0.0627713
-0.062765
-0.0627588
-0.0627528
-0.0627469
-0.0627411
-0.0627355
-0.06273
-0.0627246
-0.0627193
-0.0627141
-0.062709
-0.062704
-0.0626992
-0.0626944
-0.0626898
-0.0626852
-0.0626808
-0.0626764
-0.0626722
-0.062668
-0.0626639
-0.0626599
-0.062656
-0.0626521
-0.0626484
-0.0626447
-0.0626411
-0.0626376
-0.0626342
-0.0626308
-0.0626275
-0.0626243
-0.0626211
-0.062618
-0.062615
-0.062612
-0.0626091
-0.0626063
-0.0626035
-0.0626008
-0.0625982
-0.0625955
-0.062593
-0.0625905
-0.0625881
-0.0625857
-0.0625834
-0.0625811
-0.0625788
-0.0625766
-0.0625745
-0.0625724
-0.0625704
-0.0625684
-0.0625664
-0.0625645
-0.0625626
-0.0625608
-0.062559
-0.0625572
-0.0625555
-0.0625538
-0.0625522
-0.0625506
-0.062549
-0.0625475
-0.062546
-0.0625445
-0.0625431
-0.0625417
-0.0625404
-0.0625391
-0.0625378
-0.0625366
-0.0625354
-0.0625342
-0.0625331
-0.0625319
-0.0625309
-0.0625298
-0.0625288
-0.0625279
-0.0625269
-0.062526
-0.0625251
-0.0625243
-0.0625235
-0.0625227
-0.0625219
-0.0625212
-0.0625205
-0.0625199
-0.0625192
-0.0625186
-0.062518
-0.0625175
-0.062517
-0.0625165
-0.062516
-0.0625156
-0.0625152
-0.0625148
-0.0625144
-0.0625141
-0.0625138
-0.0625135
-0.0625132
-0.062513
-0.0625128
-0.0625126
-0.0625124
-0.0625122
-0.0625121
-0.0625119
-0.0625118
-0.0625117
-0.0625117
-0.0625116
-0.0625115
-0.0625115
-0.0625115
-0.0625115
-0.0625115
-0.0625115
-0.0625115
-0.0625115
-0.0625116
-0.0625116
-0.0625117
-0.0625118
-0.0625118
-0.0625119
-0.062512
-0.0625121
-0.0625122
-0.0625123
-0.0625124
-0.0625125
-0.0625127
-0.0625128
-0.0625129
-0.062513
-0.0625132
-0.0625133
-0.0625134
-0.0625136
-0.0625137
-0.0625138
-0.062514
-0.0625141
-0.0625143
-0.0625144
-0.0625146
-0.0625147
-0.0625149
-0.062515
-0.0625152
-0.0625153
-0.0625155
-0.0625156
-0.0625158
-0.0625159
-0.0625161
-0.0625163
-0.0625164
-0.0625166
-0.0625168
-0.0625169
-0.0625171
-0.0625173
-0.0625174
-0.0625176
-0.0625178
-0.062518
-0.0625182
-0.0625184
-0.0625185
-0.0625187
-0.0625186
-0.0625186
-0.0625186
1
0.50709
0.29192
0.214162
0.179027
0.158666
0.145113
0.135361
0.127969
0.122142
0.117404
0.113453
0.110089
0.107176
0.104618
0.102345
0.100305
0.0984605
0.0967808
0.0952423
0.0938264
0.0925175
0.091303
0.0901723
0.0891165
0.0881278
0.0871998
0.0863266
0.0855034
0.0847257
0.0839897
0.083292
0.0826294
0.0819994
0.0813995
0.0808274
0.0802813
0.0797593
0.0792597
0.0787812
0.0783224
0.0778821
0.077459
0.0770523
0.076661
0.0762841
0.0759209
0.0755706
0.0752326
0.0749062
0.0745909
0.074286
0.073991
0.0737056
0.0734291
0.0731613
0.0729018
0.0726501
0.0724059
0.0721689
0.0719388
0.0717153
0.0714982
0.0712871
0.0710819
0.0708824
0.0706883
0.0704993
0.0703154
0.0701364
0.069962
0.0697921
0.0696266
0.0694653
0.0693081
0.0691548
0.0690053
0.0688595
0.0687173
0.0685785
0.0684431
0.0683109
0.0681819
0.068056
0.0679331
0.067813
0.0676957
0.0675812
0.0674694
0.0673601
0.0672533
0.067149
0.067047
0.0669474
0.06685
0.0667548
0.0666618
0.0665709
0.066482
0.0663951
0.0663101
0.066227
0.0661457
0.0660663
0.0659886
0.0659126
0.0658383
0.0657656
0.0656945
0.065625
0.0655569
0.0654904
0.0654253
0.0653617
0.0652994
0.0652385
0.0651789
0.0651206
0.0650635
0.0650077
0.0649531
0.0648997
0.0648475
0.0647964
0.0647463
0.0646974
0.0646495
0.0646027
0.0645568
0.064512
0.0644681
0.0644252
0.0643831
0.064342
0.0643018
0.0642625
0.064224
0.0641863
0.0641495
0.0641134
0.0640781
0.0640436
0.0640098
0.0639768
0.0639444
0.0639128
0.0638818
0.0638515
0.0638219
0.0637929
0.0637645
0.0637368
0.0637096
0.0636831
0.0636571
0.0636316
0.0636068
0.0635824
0.0635586
0.0635353
0.0635125
0.0634902
0.0634684
0.063447
0.0634262
0.0634057
0.0633857
0.0633662
0.063347
0.0633283
0.06331
0.0632921
0.0632746
0.0632574
0.0632406
0.0632242
0.0632081
0.0631924
0.0631771
0.063162
0.0631473
0.0631329
0.0631188
0.063105
0.0630916
0.0630784
0.0630655
0.0630528
0.0630405
0.0630284
0.0630166
0.063005
0.0629937
0.0629826
0.0629717
0.0629611
0.0629508
0.0629406
0.0629307
0.0629209
0.0629114
0.0629021
0.062893
0.0628841
0.0628754
0.0628669
0.0628585
0.0628504
0.0628424
0.0628345
0.0628269
0.0628194
0.0628121
0.0628049
0.0627979
0.062791
0.0627843
0.0627777
0.0627713
0.062765
0.0627588
0.0627528
0.0627469
0.0627411
0.0627355
0.06273
0.0627246
0.0627193
0.0627141
0.062709
0.062704
0.0626992
0.0626944
0.0626898
0.0626852
0.0626808
0.0626764
0.0626722
0.062668
0.0626639
0.0626599
0.062656
0.0626521
0.0626484
0.0626447
0.0626411
0.0626376
0.0626342
0.0626308
0.0626275
0.0626243
0.0626211
0.062618
0.062615
0.062612
0.0626091
0.0626063
0.0626035
0.0626008
0.0625982
0.0625955
0.062593
0.0625905
0.0625881
0.0625857
0.0625834
0.0625811
0.0625788
0.0625766
0.0625745
0.0625724
0.0625704
0.0625684
0.0625664
0.0625645
0.0625626
0.0625608
0.062559
0.0625572
0.0625555
0.0625538
0.0625522
0.0625506
0.062549
0.0625475
0.062546
0.0625445
0.0625431
0.0625417
0.0625404
0.0625391
0.0625378
0.0625366
0.0625354
0.0625342
0.0625331
0.0625319
0.0625309
0.0625298
0.0625288
0.0625279
0.0625269
0.062526
0.0625251
0.0625243
0.0625235
0.0625227
0.0625219
0.0625212
0.0625205
0.0625199
0.0625192
0.0625186
0.062518
0.0625175
0.062517
0.0625165
0.062516
0.0625156
0.0625152
0.0625148
0.0625144
0.0625141
0.0625138
0.0625135
0.0625132
0.062513
0.0625128
0.0625126
0.0625124
0.0625122
0.0625121
0.0625119
0.0625118
0.0625117
0.0625117
0.0625116
0.0625115
0.0625115
0.0625115
0.0625115
0.0625115
0.0625115
0.0625115
0.0625115
0.0625116
0.0625116
0.0625117
0.0625118
0.0625118
0.0625119
0.062512
0.0625121
0.0625122
0.0625123
0.0625124
0.0625125
0.0625127
0.0625128
0.0625129
0.062513
0.0625132
0.0625133
0.0625134
0.0625136
0.0625137
0.0625138
0.062514
0.0625141
0.0625143
0.0625144
0.0625146
0.0625147
0.0625149
0.062515
0.0625152
0.0625153
0.0625155
0.0625156
0.0625158
0.0625159
0.0625161
0.0625163
0.0625164
0.0625166
0.0625168
0.0625169
0.0625171
0.0625173
0.0625174
0.0625176
0.0625178
0.062518
0.0625182
0.0625184
0.0625185
0.0625187
0.0625186
0.0625186
0.0625186
1
0.924297
0.735447
0.597551
0.511658
0.456344
0.418185
0.390282
0.368951
0.352067
0.33832
0.326862
0.317122
0.308705
0.301331
0.294794
0.288943
0.283662
0.278863
0.274474
0.270441
0.266718
0.263267
0.260057
0.257062
0.25426
0.251632
0.24916
0.246831
0.244632
0.242552
0.240581
0.23871
0.236931
0.235238
0.233624
0.232084
0.230612
0.229204
0.227855
0.226563
0.225322
0.224131
0.222986
0.221885
0.220824
0.219803
0.218818
0.217867
0.21695
0.216063
0.215207
0.214378
0.213576
0.2128
0.212048
0.211319
0.210613
0.209928
0.209263
0.208618
0.207991
0.207382
0.20679
0.206215
0.205656
0.205112
0.204583
0.204068
0.203566
0.203078
0.202603
0.202139
0.201688
0.201248
0.200819
0.200401
0.199993
0.199596
0.199208
0.198829
0.19846
0.198099
0.197747
0.197404
0.197069
0.196741
0.196421
0.196109
0.195804
0.195506
0.195215
0.19493
0.194652
0.19438
0.194115
0.193856
0.193602
0.193354
0.193112
0.192875
0.192643
0.192417
0.192195
0.191979
0.191767
0.19156
0.191358
0.19116
0.190966
0.190776
0.190591
0.19041
0.190233
0.19006
0.18989
0.189724
0.189562
0.189403
0.189248
0.189096
0.188947
0.188802
0.18866
0.188521
0.188385
0.188252
0.188121
0.187994
0.187869
0.187747
0.187628
0.187511
0.187397
0.187285
0.187176
0.187069
0.186964
0.186862
0.186762
0.186664
0.186568
0.186474
0.186382
0.186292
0.186205
0.186119
0.186035
0.185952
0.185872
0.185793
0.185716
0.185641
0.185567
0.185495
0.185424
0.185355
0.185288
0.185222
0.185157
0.185094
0.185032
0.184971
0.184912
0.184854
0.184798
0.184742
0.184688
0.184635
0.184583
0.184532
0.184483
0.184434
0.184386
0.18434
0.184294
0.18425
0.184206
0.184164
0.184122
0.184081
0.184041
0.184002
0.183964
0.183927
0.18389
0.183855
0.18382
0.183785
0.183752
0.183719
0.183687
0.183656
0.183625
0.183595
0.183566
0.183537
0.183509
0.183481
0.183454
0.183428
0.183402
0.183377
0.183353
0.183328
0.183305
0.183282
0.183259
0.183237
0.183215
0.183194
0.183173
0.183153
0.183133
0.183114
0.183095
0.183076
0.183058
0.18304
0.183023
0.183006
0.182989
0.182973
0.182957
0.182941
0.182926
0.182911
0.182896
0.182882
0.182868
0.182854
0.182841
0.182828
0.182815
0.182802
0.18279
0.182778
0.182766
0.182754
0.182743
0.182732
0.182721
0.182711
0.1827
0.18269
0.18268
0.18267
0.182661
0.182651
0.182642
0.182633
0.182625
0.182616
0.182608
0.1826
0.182592
0.182584
0.182576
0.182568
0.182561
0.182554
0.182547
0.18254
0.182533
0.182527
0.18252
0.182514
0.182508
0.182502
0.182496
0.18249
0.182484
0.182479
0.182473
0.182468
0.182463
0.182458
0.182453
0.182448
0.182443
0.182438
0.182434
0.18243
0.182425
0.182421
0.182417
0.182413
0.182409
0.182405
0.182402
0.182398
0.182394
0.182391
0.182388
0.182385
0.182381
0.182378
0.182376
0.182373
0.18237
0.182367
0.182365
0.182362
0.18236
0.182358
0.182356
0.182353
0.182351
0.18235
0.182348
0.182346
0.182344
0.182343
0.182341
0.18234
0.182338
0.182337
0.182336
0.182335
0.182334
0.182333
0.182332
0.182331
0.18233
0.182329
0.182329
0.182328
0.182328
0.182327
0.182327
0.182326
0.182326
0.182326
0.182325
0.182325
0.182325
0.182325
0.182325
0.182325
0.182325
0.182325
0.182325
0.182325
0.182325
0.182325
0.182325
0.182325
0.182326
0.182326
0.182326
0.182326
0.182327
0.182327
0.182327
0.182328
0.182328
0.182328
0.182329
0.182329
0.182329
0.18233
0.18233
0.18233
0.182331
0.182331
0.182332
0.182332
0.182332
0.182333
0.182333
0.182334
0.182334
0.182334
0.182335
0.182335
0.182336
0.182336
0.182337
0.182337
0.182337
0.182338
0.182338
0.182339
0.182339
0.18234
0.18234
0.182341
0.182341
0.182342
0.182342
0.182343
0.182343
0.182344
0.182344
0.182345
0.182345
0.182346
0.182346
0.182346
0.182346
1
1.07971
0.997071
0.883652
0.788698
0.716915
0.663053
0.621839
0.589497
0.563485
0.542094
0.524153
0.508847
0.495592
0.483966
0.473656
0.464427
0.456098
0.448531
0.441613
0.435258
0.429392
0.423956
0.418901
0.414186
0.409775
0.405637
0.401747
0.398082
0.394621
0.391347
0.388246
0.385302
0.382503
0.37984
0.377301
0.374878
0.372563
0.370349
0.368229
0.366196
0.364246
0.362374
0.360574
0.358842
0.357176
0.35557
0.354022
0.352529
0.351087
0.349695
0.348349
0.347048
0.345789
0.34457
0.343389
0.342245
0.341137
0.340061
0.339018
0.338005
0.337022
0.336067
0.335139
0.334237
0.33336
0.332507
0.331677
0.33087
0.330084
0.329318
0.328573
0.327847
0.32714
0.326451
0.325779
0.325125
0.324486
0.323863
0.323256
0.322663
0.322085
0.321521
0.320971
0.320433
0.319908
0.319396
0.318896
0.318407
0.31793
0.317464
0.317009
0.316564
0.31613
0.315705
0.31529
0.314885
0.314489
0.314101
0.313723
0.313353
0.312991
0.312637
0.312292
0.311954
0.311623
0.3113
0.310984
0.310675
0.310373
0.310077
0.309788
0.309505
0.309229
0.308958
0.308694
0.308435
0.308182
0.307935
0.307692
0.307456
0.307224
0.306997
0.306776
0.306559
0.306347
0.306139
0.305936
0.305738
0.305543
0.305353
0.305167
0.304986
0.304808
0.304634
0.304463
0.304297
0.304134
0.303974
0.303818
0.303666
0.303516
0.30337
0.303227
0.303088
0.302951
0.302817
0.302686
0.302558
0.302433
0.30231
0.302191
0.302073
0.301959
0.301846
0.301737
0.301629
0.301524
0.301421
0.301321
0.301223
0.301126
0.301032
0.30094
0.30085
0.300762
0.300676
0.300592
0.300509
0.300428
0.300349
0.300272
0.300197
0.300123
0.300051
0.29998
0.299911
0.299843
0.299777
0.299712
0.299649
0.299587
0.299526
0.299467
0.299409
0.299352
0.299297
0.299242
0.299189
0.299137
0.299086
0.299036
0.298988
0.29894
0.298893
0.298848
0.298803
0.29876
0.298717
0.298675
0.298634
0.298594
0.298555
0.298517
0.298479
0.298443
0.298407
0.298372
0.298337
0.298304
0.298271
0.298239
0.298207
0.298177
0.298146
0.298117
0.298088
0.29806
0.298032
0.298005
0.297979
0.297953
0.297928
0.297903
0.297878
0.297855
0.297831
0.297809
0.297787
0.297765
0.297743
0.297723
0.297702
0.297682
0.297663
0.297644
0.297625
0.297606
0.297589
0.297571
0.297554
0.297537
0.29752
0.297504
0.297489
0.297473
0.297458
0.297443
0.297429
0.297415
0.297401
0.297387
0.297374
0.297361
0.297348
0.297336
0.297324
0.297312
0.2973
0.297289
0.297277
0.297266
0.297256
0.297245
0.297235
0.297225
0.297215
0.297206
0.297196
0.297187
0.297178
0.297169
0.297161
0.297152
0.297144
0.297136
0.297128
0.29712
0.297113
0.297106
0.297098
0.297091
0.297085
0.297078
0.297071
0.297065
0.297059
0.297053
0.297047
0.297041
0.297036
0.29703
0.297025
0.29702
0.297015
0.29701
0.297006
0.297001
0.296997
0.296993
0.296989
0.296985
0.296981
0.296977
0.296974
0.296971
0.296967
0.296964
0.296961
0.296959
0.296956
0.296953
0.296951
0.296949
0.296947
0.296944
0.296943
0.296941
0.296939
0.296937
0.296936
0.296935
0.296933
0.296932
0.296931
0.29693
0.296929
0.296928
0.296928
0.296927
0.296927
0.296926
0.296926
0.296925
0.296925
0.296925
0.296925
0.296925
0.296925
0.296925
0.296925
0.296925
0.296925
0.296925
0.296925
0.296926
0.296926
0.296926
0.296927
0.296927
0.296928
0.296928
0.296928
0.296929
0.296929
0.29693
0.29693
0.296931
0.296932
0.296932
0.296933
0.296933
0.296934
0.296935
0.296935
0.296936
0.296936
0.296937
0.296938
0.296938
0.296939
0.29694
0.29694
0.296941
0.296942
0.296942
0.296943
0.296944
0.296944
0.296945
0.296946
0.296947
0.296947
0.296948
0.296949
0.296949
0.29695
0.296951
0.296952
0.296952
0.296953
0.296954
0.296955
0.296956
0.296956
0.296957
0.296958
0.296958
0.296958
0.296958
1
1.11179
1.11438
1.05557
0.984377
0.91904
0.863807
0.818224
0.780653
0.74943
0.723173
0.700804
0.681508
0.664664
0.649805
0.636571
0.624687
0.613936
0.604149
0.595188
0.586945
0.579328
0.572264
0.565689
0.559551
0.553805
0.548412
0.543339
0.538556
0.534038
0.529764
0.525711
0.521864
0.518206
0.514723
0.511403
0.508233
0.505204
0.502306
0.49953
0.496869
0.494316
0.491863
0.489506
0.487239
0.485055
0.482952
0.480924
0.478968
0.477079
0.475255
0.473492
0.471787
0.470137
0.46854
0.466994
0.465495
0.464042
0.462633
0.461267
0.45994
0.458652
0.457401
0.456186
0.455004
0.453856
0.452739
0.451652
0.450595
0.449566
0.448565
0.447589
0.446639
0.445714
0.444812
0.443933
0.443076
0.442241
0.441426
0.440632
0.439857
0.4391
0.438363
0.437643
0.43694
0.436254
0.435585
0.434931
0.434292
0.433669
0.43306
0.432465
0.431884
0.431316
0.430762
0.43022
0.429691
0.429173
0.428667
0.428173
0.42769
0.427218
0.426756
0.426305
0.425864
0.425433
0.425011
0.424598
0.424195
0.423801
0.423416
0.423039
0.42267
0.422309
0.421957
0.421612
0.421275
0.420945
0.420622
0.420307
0.419998
0.419696
0.419401
0.419112
0.41883
0.418553
0.418283
0.418018
0.41776
0.417507
0.417259
0.417017
0.41678
0.416549
0.416322
0.4161
0.415883
0.415671
0.415464
0.415261
0.415062
0.414868
0.414678
0.414492
0.41431
0.414132
0.413958
0.413788
0.413621
0.413458
0.413299
0.413143
0.412991
0.412841
0.412695
0.412553
0.412413
0.412277
0.412143
0.412012
0.411884
0.411759
0.411637
0.411517
0.4114
0.411286
0.411174
0.411064
0.410957
0.410852
0.41075
0.41065
0.410551
0.410455
0.410362
0.41027
0.41018
0.410092
0.410006
0.409922
0.40984
0.409759
0.409681
0.409604
0.409528
0.409455
0.409382
0.409312
0.409243
0.409175
0.409109
0.409045
0.408982
0.40892
0.408859
0.4088
0.408742
0.408686
0.40863
0.408576
0.408523
0.408471
0.40842
0.408371
0.408322
0.408275
0.408228
0.408183
0.408138
0.408094
0.408052
0.40801
0.407969
0.407929
0.40789
0.407852
0.407815
0.407778
0.407742
0.407707
0.407673
0.407639
0.407606
0.407574
0.407543
0.407512
0.407482
0.407452
0.407424
0.407395
0.407368
0.407341
0.407314
0.407288
0.407263
0.407238
0.407214
0.40719
0.407167
0.407144
0.407122
0.4071
0.407079
0.407058
0.407037
0.407017
0.406998
0.406979
0.40696
0.406942
0.406924
0.406906
0.406889
0.406872
0.406855
0.406839
0.406823
0.406808
0.406793
0.406778
0.406764
0.406749
0.406735
0.406722
0.406709
0.406696
0.406683
0.40667
0.406658
0.406646
0.406635
0.406623
0.406612
0.406601
0.40659
0.40658
0.40657
0.40656
0.40655
0.406541
0.406531
0.406522
0.406513
0.406505
0.406496
0.406488
0.40648
0.406472
0.406465
0.406457
0.40645
0.406443
0.406437
0.40643
0.406424
0.406417
0.406411
0.406406
0.4064
0.406395
0.40639
0.406384
0.40638
0.406375
0.406371
0.406366
0.406362
0.406358
0.406355
0.406351
0.406348
0.406344
0.406341
0.406338
0.406336
0.406333
0.406331
0.406328
0.406326
0.406324
0.406322
0.40632
0.406319
0.406317
0.406316
0.406315
0.406314
0.406313
0.406312
0.406311
0.40631
0.40631
0.406309
0.406309
0.406309
0.406308
0.406308
0.406308
0.406308
0.406308
0.406308
0.406308
0.406309
0.406309
0.406309
0.40631
0.40631
0.406311
0.406311
0.406312
0.406312
0.406313
0.406313
0.406314
0.406315
0.406315
0.406316
0.406317
0.406318
0.406318
0.406319
0.40632
0.406321
0.406321
0.406322
0.406323
0.406324
0.406325
0.406326
0.406326
0.406327
0.406328
0.406329
0.40633
0.406331
0.406332
0.406332
0.406333
0.406334
0.406335
0.406336
0.406337
0.406338
0.406339
0.40634
0.406341
0.406342
0.406343
0.406343
0.406344
0.406345
0.406346
0.406347
0.406349
0.40635
0.406351
0.406352
0.406352
0.406352
0.406352
1
1.09593
1.14368
1.13403
1.09771
1.05335
1.00943
0.969231
0.933639
0.902515
0.875357
0.851582
0.830649
0.812091
0.795522
0.780626
0.767149
0.754883
0.743661
0.733344
0.723819
0.714992
0.706783
0.699125
0.691961
0.685243
0.678926
0.672976
0.667358
0.662046
0.657013
0.652237
0.647699
0.64338
0.639265
0.635338
0.631588
0.628001
0.624568
0.621278
0.618123
0.615093
0.612183
0.609384
0.606691
0.604097
0.601597
0.599187
0.596861
0.594614
0.592444
0.590347
0.588318
0.586354
0.584453
0.582612
0.580828
0.579098
0.57742
0.575793
0.574213
0.572679
0.571189
0.569741
0.568334
0.566966
0.565636
0.564341
0.563082
0.561857
0.560663
0.559502
0.55837
0.557268
0.556194
0.555147
0.554126
0.553132
0.552162
0.551216
0.550293
0.549393
0.548514
0.547657
0.546821
0.546005
0.545208
0.54443
0.54367
0.542928
0.542203
0.541496
0.540805
0.54013
0.53947
0.538825
0.538196
0.53758
0.536979
0.536392
0.535817
0.535256
0.534707
0.534171
0.533647
0.533134
0.532633
0.532143
0.531664
0.531196
0.530738
0.53029
0.529852
0.529424
0.529005
0.528596
0.528195
0.527804
0.527421
0.527046