# vtk DataFile Version 2.0
FlowField
ASCII
DATASET STRUCTURED_GRID
DIMENSIONS 400 1 50
POINTS 20000 float
0 0 0
0.08 0 0
0.16 0 0
0.24 0 0
0.32 0 0
0.4 0 0
0.48 0 0
0.56 0 0
0.64 0 0
0.72 0 0
0.8 0 0
0.88 0 0
0.96 0 0
1.04 0 0
1.12 0 0
1.2 0 0
1.28 0 0
1.36 0 0
1.44 0 0
1.52 0 0
1.6 0 0
1.68 0 0
1.76 0 0
1.84 0 0
1.92 0 0
2 0 0
2.08 0 0
2.16 0 0
2.24 0 0
2.32 0 0
2.4 0 0
2.48 0 0
2.56 0 0
2.64 0 0
2.72 0 0
2.8 0 0
2.88 0 0
2.96 0 0
3.04 0 0
3.12 0 0
3.2 0 0
3.28 0 0
3.36 0 0
3.44 0 0
3.52 0 0
3.6 0 0
3.68 0 0
3.76 0 0
3.84 0 0
3.92 0 0
4 0 0
4.08 0 0
4.16 0 0
4.24 0 0
4.32 0 0
4.4 0 0
4.48 0 0
4.56 0 0
4.64 0 0
4.72 0 0
4.8 0 0
4.88 0 0
4.96 0 0
5.04 0 0
5.12 0 0
5.2 0 0
5.28 0 0
5.36 0 0
5.44 0 0
5.52 0 0
5.6 0 0
5.68 0 0
5.76 0 0
5.84 0 0
5.92 0 0
6 0 0
6.08 0 0
6.16 0 0
6.24 0 0
6.32 0 0
6.4 0 0
6.48 0 0
6.56 0 0
6.64 0 0
6.72 0 0
6.8 0 0
6.88 0 0
6.96 0 0
7.04 0 0
7.12 0 0
7.2 0 0
7.28 0 0
7.36 0 0
7.44 0 0
7.52 0 0
7.6 0 0
7.68 0 0
7.76 0 0
7.84 0 0
7.92 0 0
8 0 0
8.08 0 0
8.16 0 0
8.24 0 0
8.32 0 0
8.4 0 0
8.48 0 0
8.56 0 0
8.64 0 0
8.72 0 0
8.8 0 0
8.88 0 0
8.96 0 0
9.04 0 0
9.12 0 0
9.2 0 0
9.28 0 0
9.36 0 0
9.44 0 0
9.52 0 0
9.6 0 0
9.68 0 0
9.76 0 0
9.84 0 0
9.92 0 0
10 0 0
10.08 0 0
10.16 0 0
10.24 0 0
10.32 0 0
10.4 0 0
10.48 0 0
10.56 0 0
10.64 0 0
10.72 0 0
10.8 0 0
10.88 0 0
10.96 0 0
11.04 0 0
11.12 0 0
11.2 0 0
11.28 0 0
11.36 0 0
11.44 0 0
11.52 0 0
11.6 0 0
11.68 0 0
11.76 0 0
11.84 0 0
11.92 0 0
12 0 0
12.08 0 0
12.16 0 0
12.24 0 0
12.32 0 0
12.4 0 0
12.48 0 0
12.56 0 0
12.64 0 0
12.72 0 0
12.8 0 0
12.88 0 0
12.96 0 0
13.04 0 0
13.12 0 0
13.2 0 0
13.28 0 0
13.36 0 0
13.44 0 0
13.52 0 0
13.6 0 0
13.68 0 0
13.76 0 0
13.84 0 0
13.92 0 0
14 0 0
14.08 0 0
14.16 0 0
14.24 0 0
14.32 0 0
14.4 0 0
14.48 0 0
14.56 0 0
14.64 0 0
14.72 0 0
14.8 0 0
14.88 0 0
14.96 0 0
15.04 0 0
15.12 0 0
15.2 0 0
15.28 0 0
15.36 0 0
15.44 0 0
15.52 0 0
15.6 0 0
15.68 0 0
15.76 0 0
15.84 0 0
15.92 0 0
16 0 0
16.08 0 0
16.16 0 0
16.24 0 0
16.32 0 0
16.4 0 0
16.48 0 0
16.56 0 0
16.64 0 0
16.72 0 0
16.8 0 0
16.88 0 0
16.96 0 0
17.04 0 0
17.12 0 0
17.2 0 0
17.28 0 0
17.36 0 0
17.44 0 0
17.52 0 0
17.6 0 0
17.68 0 0
17.76 0 0
17.84 0 0
17.92 0 0
18 0 0
18.08 0 0
18.16 0 0
18.24 0 0
18.32 0 0
18.4 0 0
18.48 0 0
18.56 0 0
18.64 0 0
18.72 0 0
18.8 0 0
18.88 0 0
18.96 0 0
19.04 0 0
19.12 0 0
19.2 0 0
19.28 0 0
19.36 0 0
19.44 0 0
19.52 0 0
19.6 0 0
19.68 0 0
19.76 0 0
19.84 0 0
19.92 0 0
20 0 0
20.08 0 0
20.16 0 0
20.24 0 0
20.32 0 0
20.4 0 0
20.48 0 0
20.56 0 0
20.64 0 0
20.72 0 0
20.8 0 0
20.88 0 0
20.96 0 0
21.04 0 0
21.12 0 0
21.2 0 0
21.28 0 0
21.36 0 0
21.44 0 0
21.52 0 0
21.6 0 0
21.68 0 0
21.76 0 0
21.84 0 0
21.92 0 0
22 0 0
22.08 0 0
22.16 0 0
22.24 0 0
22.32 0 0
22.4 0 0
22.48 0 0
22.56 0 0
22.64 0 0
22.72 0 0
22.8 0 0
22.88 0 0
22.96 0 0
23.04 0 0
23.12 0 0
23.2 0 0
23.28 0 0
23.36 0 0
23.44 0 0
23.52 0 0
23.6 0 0
23.68 0 0
23.76 0 0
23.84 0 0
23.92 0 0
24 0 0
24.08 0 0
24.16 0 0
24.24 0 0
24.32 0 0
24.4 0 0
24.48 0 0
24.56 0 0
24.64 0 0
24.72 0 0
24.8 0 0
24.88 0 0
24.96 0 0
25.04 0 0
25.12 0 0
25.2 0 0
25.28 0 0
25.36 0 0
25.44 0 0
25.52 0 0
25.6 0 0
25.68 0 0
25.76 0 0
25.84 0 0
25.92 0 0
26 0 0
26.08 0 0
26.16 0 0
26.24 0 0
26.32 0 0
26.4 0 0
26.48 0 0
26.56 0 0
26.64 0 0
26.72 0 0
26.8 0 0
26.88 0 0
26.96 0 0
27.04 0 0
27.12 0 0
27.2 0 0
27.28 0 0
27.36 0 0
27.44 0 0
27.52 0 0
27.6 0 0
27.68 0 0
27.76 0 0
27.84 0 0
27.92 0 0
28 0 0
28.08 0 0
28.16 0 0
28.24 0 0
28.32 0 0
28.4 0 0
28.48 0 0
28.56 0 0
28.64 0 0
28.72 0 0
28.8 0 0
28.88 0 0
28.96 0 0
29.04 0 0
29.12 0 0
29.2 0 0
29.28 0 0
29.36 0 0
29.44 0 0
29.52 0 0
29.6 0 0
29.68 0 0
29.76 0 0
29.84 0 0
29.92 0 0
30 0 0
30.08 0 0
30.16 0 0
30.24 0 0
30.32 0 0
30.4 0 0
30.48 0 0
30.56 0 0
30.64 0 0
30.72 0 0
30.8 0 0
30.88 0 0
30.96 0 0
31.04 0 0
31.12 0 0
31.2 0 0
31.28 0 0
31.36 0 0
31.44 0 0
31.52 0 0
31.6 0 0
31.68 0 0
31.76 0 0
31.84 0 0
31.92 0 0
0 0.02 0
0.08 0.02 0
0.16 0.02 0
0.24 0.02 0
0.32 0.02 0
0.4 0.02 0
0.48 0.02 0
0.56 0.02 0
0.64 0.02 0
0.72 0.02 0
0.8 0.02 0
0.88 0.02 0
0.96 0.02 0
1.04 0.02 0
1.12 0.02 0
1.2 0.02 0
1.28 0.02 0
1.36 0.02 0
1.44 0.02 0
1.52 0.02 0
1.6 0.02 0
1.68 0.02 0
1.76 0.02 0
1.84 0.02 0
1.92 0.02 0
2 0.02 0
2.08 0.02 0
2.16 0.02 0
2.24 0.02 0
2.32 0.02 0
2.4 0.02 0
2.48 0.02 0
2.56 0.02 0
2.64 0.02 0
2.72 0.02 0
2.8 0.02 0
2.88 0.02 0
2.96 0.02 0
3.04 0.02 0
3.12 0.02 0
3.2 0.02 0
3.28 0.02 0
3.36 0.02 0
3.44 0.02 0
3.52 0.02 0
3.6 0.02 0
3.68 0.02 0
3.76 0.02 0
3.84 0.02 0
3.92 0.02 0
4 0.02 0
4.08 0.02 0
4.16 0.02 0
4.24 0.02 0
4.32 0.02 0
4.4 0.02 0
4.48 0.02 0
4.56 0.02 0
4.64 0.02 0
4.72 0.02 0
4.8 0.02 0
4.88 0.02 0
4.96 0.02 0
5.04 0.02 0
5.12 0.02 0
5.2 0.02 0
5.28 0.02 0
5.36 0.02 0
5.44 0.02 0
5.52 0.02 0
5.6 0.02 0
5.68 0.02 0
5.76 0.02 0
5.84 0.02 0
5.92 0.02 0
6 0.02 0
6.08 0.02 0
6.16 0.02 0
6.24 0.02 0
6.32 0.02 0
6.4 0.02 0
6.48 0.02 0
6.56 0.02 0
6.64 0.02 0
6.72 0.02 0
6.8 0.02 0
6.88 0.02 0
6.96 0.02 0
7.04 0.02 0
7.12 0.02 0
7.2 0.02 0
7.28 0.02 0
7.36 0.02 0
7.44 0.02 0
7.52 0.02 0
7.6 0.02 0
7.68 0.02 0
7.76 0.02 0
7.84 0.02 0
7.92 0.02 0
8 0.02 0
8.08 0.02 0
8.16 0.02 0
8.24 0.02 0
8.32 0.02 0
8.4 0.02 0
8.48 0.02 0
8.56 0.02 0
8.64 0.02 0
8.72 0.02 0
8.8 0.02 0
8.88 0.02 0
8.96 0.02 0
9.04 0.02 0
9.12 0.02 0
9.2 0.02 0
9.28 0.02 0
9.36 0.02 0
9.44 0.02 0
9.52 0.02 0
9.6 0.02 0
9.68 0.02 0
9.76 0.02 0
9.84 0.02 0
9.92 0.02 0
10 0.02 0
10.08 0.02 0
10.16 0.02 0
10.24 0.02 0
10.32 0.02 0
10.4 0.02 0
10.48 0.02 0
10.56 0.02 0
10.64 0.02 0
10.72 0.02 0
10.8 0.02 0
10.88 0.02 0
10.96 0.02 0
11.04 0.02 0
11.12 0.02 0
11.2 0.02 0
11.28 0.02 0
11.36 0.02 0
11.44 0.02 0
11.52 0.02 0
11.6 0.02 0
11.68 0.02 0
11.76 0.02 0
11.84 0.02 0
11.92 0.02 0
12 0.02 0
12.08 0.02 0
12.16 0.02 0
12.24 0.02 0
12.32 0.02 0
12.4 0.02 0
12.48 0.02 0
12.56 0.02 0
12.64 0.02 0
12.72 0.02 0
12.8 0.02 0
12.88 0.02 0
12.96 0.02 0
13.04 0.02 0
13.12 0.02 0
13.2 0.02 0
13.28 0.02 0
13.36 0.02 0
13.44 0.02 0
13.52 0.02 0
13.6 0.02 0
13.68 0.02 0
13.76 0.02 0
13.84 0.02 0
13.92 0.02 0
14 0.02 0
14.08 0.02 0
14.16 0.02 0
14.24 0.02 0
14.32 0.02 0
14.4 0.02 0
14.48 0.02 0
14.56 0.02 0
14.64 0.02 0
14.72 0.02 0
14.8 0.02 0
14.88 0.02 0
14.96 0.02 0
15.04 0.02 0
15.12 0.02 0
15.2 0.02 0
15.28 0.02 0
15.36 0.02 0
15.44 0.02 0
15.52 0.02 0
15.6 0.02 0
15.68 0.02 0
15.76 0.02 0
15.84 0.02 0
15.92 0.02 0
16 0.02 0
16.08 0.02 0
16.16 0.02 0
16.24 0.02 0
16.32 0.02 0
16.4 0.02 0
16.48 0.02 0
16.56 0.02 0
16.64 0.02 0
16.72 0.02 0
16.8 0.02 0
16.88 0.02 0
16.96 0.02 0
17.04 0.02 0
17.12 0.02 0
17.2 0.02 0
17.28 0.02 0
17.36 0.02 0
17.44 0.02 0
17.52 0.02 0
17.6 0.02 0
17.68 0.02 0
17.76 0.02 0
17.84 0.02 0
17.92 0.02 0
18 0.02 0
18.08 0.02 0
18.16 0.02 0
18.24 0.02 0
18.32 0.02 0
18.4 0.02 0
18.48 0.02 0
18.56 0.02 0
18.64 0.02 0
18.72 0.02 0
18.8 0.02 0
18.88 0.02 0
18.96 0.02 0
19.04 0.02 0
19.12 0.02 0
19.2 0.02 0
19.28 0.02 0
19.36 0.02 0
19.44 0.02 0
19.52 0.02 0
19.6 0.02 0
19.68 0.02 0
19.76 0.02 0
19.84 0.02 0
19.92 0.02 0
20 0.02 0
20.08 0.02 0
20.16 0.02 0
20.24 0.02 0
20.32 0.02 0
20.4 0.02 0
20.48 0.02 0
20.56 0.02 0
20.64 0.02 0
20.72 0.02 0
20.8 0.02 0
20.88 0.02 0
20.96 0.02 0
21.04 0.02 0
21.12 0.02 0
21.2 0.02 0
21.28 0.02 0
21.36 0.02 0
21.44 0.02 0
21.52 0.02 0
21.6 0.02 0
21.68 0.02 0
21.76 0.02 0
21.84 0.02 0
21.92 0.02 0
22 0.02 0
22.08 0.02 0
22.16 0.02 0
22.24 0.02 0
22.32 0.02 0
22.4 0.02 0
22.48 0.02 0
22.56 0.02 0
22.64 0.02 0
22.72 0.02 0
22.8 0.02 0
22.88 0.02 0
22.96 0.02 0
23.04 0.02 0
23.12 0.02 0
23.2 0.02 0
23.28 0.02 0
23.36 0.02 0
23.44 0.02 0
23.52 0.02 0
23.6 0.02 0
23.68 0.02 0
23.76 0.02 0
23.84 0.02 0
23.92 0.02 0
24 0.02 0
24.08 0.02 0
24.16 0.02 0
24.24 0.02 0
24.32 0.02 0
24.4 0.02 0
24.48 0.02 0
24.56 0.02 0
24.64 0.02 0
24.72 0.02 0
24.8 0.02 0
24.88 0.02 0
24.96 0.02 0
25.04 0.02 0
25.12 0.02 0
25.2 0.02 0
25.28 0.02 0
25.36 0.02 0
25.44 0.02 0
25.52 0.02 0
25.6 0.02 0
25.68 0.02 0
25.76 0.02 0
25.84 0.02 0
25.92 0.02 0
26 0.02 0
26.08 0.02 0
26.16 0.02 0
26.24 0.02 0
26.32 0.02 0
26.4 0.02 0
26.48 0.02 0
26.56 0.02 0
26.64 0.02 0
26.72 0.02 0
26.8 0.02 0
26.88 0.02 0
26.96 0.02 0
27.04 0.02 0
27.12 0.02 0
27.2 0.02 0
27.28 0.02 0
27.36 0.02 0
27.44 0.02 0
27.52 0.02 0
27.6 0.02 0
27.68 0.02 0
27.76 0.02 0
27.84 0.02 0
27.92 0.02 0
28 0.02 0
28.08 0.02 0
28.16 0.02 0
28.24 0.02 0
28.32 0.02 0
28.4 0.02 0
28.48 0.02 0
28.56 0.02 0
28.64 0.02 0
28.72 0.02 0
28.8 0.02 0
28.88 0.02 0
28.96 0.02 0
29.04 0.02 0
29.12 0.02 0
29.2 0.02 0
29.28 0.02 0
29.36 0.02 0
29.44 0.02 0
29.52 0.02 0
29.6 0.02 0
29.68 0.02 0
29.76 0.02 0
29.84 0.02 0
29.92 0.02 0
30 0.02 0
30.08 0.02 0
30.16 0.02 0
30.24 0.02 0
30.32 0.02 0
30.4 0.02 0
30.48 0.02 0
30.56 0.02 0
30.64 0.02 0
30.72 0.02 0
30.8 0.02 0
30.88 0.02 0
30.96 0.02 0
31.04 0.02 0
31.12 0.02 0
31.2 0.02 0
31.28 0.02 0
31.36 0.02 0
31.44 0.02 0
31.52 0.02 0
31.6 0.02 0
31.68 0.02 0
31.76 0.02 0
31.84 0.02 0
31.92 0.02 0
0 0.04 0
0.08 0.04 0
0.16 0.04 0
0.24 0.04 0
0.32 0.04 0
0.4 0.04 0
0.48 0.04 0
0.56 0.04 0
0.64 0.04 0
0.72 0.04 0
0.8 0.04 0
0.88 0.04 0
0.96 0.04 0
1.04 0.04 0
1.12 0.04 0
1.2 0.04 0
1.28 0.04 0
1.36 0.04 0
1.44 0.04 0
1.52 0.04 0
1.6 0.04 0
1.68 0.04 0
1.76 0.04 0
1.84 0.04 0
1.92 0.04 0
2 0.04 0
2.08 0.04 0
2.16 0.04 0
2.24 0.04 0
2.32 0.04 0
2.4 0.04 0
2.48 0.04 0
2.56 0.04 0
2.64 0.04 0
2.72 0.04 0
2.8 0.04 0
2.88 0.04 0
2.96 0.04 0
3.04 0.04 0
3.12 0.04 0
3.2 0.04 0
3.28 0.04 0
3.36 0.04 0
3.44 0.04 0
3.52 0.04 0
3.6 0.04 0
3.68 0.04 0
3.76 0.04 0
3.84 0.04 0
3.92 0.04 0
4 0.04 0
4.08 0.04 0
4.16 0.04 0
4.24 0.04 0
4.32 0.04 0
4.4 0.04 0
4.48 0.04 0
4.56 0.04 0
4.64 0.04 0
4.72 0.04 0
4.8 0.04 0
4.88 0.04 0
4.96 0.04 0
5.04 0.04 0
5.12 0.04 0
5.2 0.04 0
5.28 0.04 0
5.36 0.04 0
5.44 0.04 0
5.52 0.04 0
5.6 0.04 0
5.68 0.04 0
5.76 0.04 0
5.84 0.04 0
5.92 0.04 0
6 0.04 0
6.08 0.04 0
6.16 0.04 0
6.24 0.04 0
6.32 0.04 0
6.4 0.04 0
6.48 0.04 0
6.56 0.04 0
6.64 0.04 0
6.72 0.04 0
6.8 0.04 0
6.88 0.04 0
6.96 0.04 0
7.04 0.04 0
7.12 0.04 0
7.2 0.04 0
7.28 0.04 0
7.36 0.04 0
7.44 0.04 0
7.52 0.04 0
7.6 0.04 0
7.68 0.04 0
7.76 0.04 0
7.84 0.04 0
[...]
POINT_DATA 20000

SCALARS p float 1
LOOKUP_TABLE default
1
200.314
200.083
200.015
199.99
199.974
199.962
199.951
199.941
199.931
199.922
199.913
199.904
199.896
199.887
199.879
199.872
199.864
199.856
199.849
199.842
199.835
199.828
199.821
199.815
199.808
199.802
199.796
199.79
199.784
199.778
199.772
199.766
199.761
199.755
199.75
199.745
199.739
199.734
199.729
199.724
199.719
199.714
199.709
199.704
199.699
199.695
199.69
199.686
199.681
199.677
199.672
199.668
199.663
199.659
199.655
199.651
199.646
199.642
199.638
199.634
199.63
199.626
199.622
199.619
199.615
199.611
199.607
199.604
199.6
199.596
199.593
199.589
199.585
199.582
199.578
199.575
199.572
199.568
199.565
199.562
199.558
199.555
199.552
199.549
199.545
199.542
199.539
199.536
199.533
199.53
199.527
199.524
199.522
199.519
199.516
199.513
199.51
199.508
199.505
199.502
199.499
199.497
199.494
199.492
199.489
199.486
199.484
199.481
199.479
199.476
199.474
199.472
199.469
199.467
199.464
199.462
199.46
199.457
199.455
199.453
199.45
199.448
199.446
199.443
199.441
199.439
199.437
199.434
199.432
199.43
199.428
199.425
199.423
199.421
199.419
199.416
199.414
199.412
199.41
199.408
199.406
199.403
199.401
199.399
199.397
199.395
199.393
199.39
199.388
199.386
199.384
199.382
199.38
199.377
199.375
199.373
199.371
199.369
199.367
199.365
199.363
199.36
199.358
199.356
199.354
199.352
199.35
199.348
199.346
199.343
199.341
199.339
199.337
199.335
199.333
199.331
199.329
199.326
199.324
199.322
199.32
199.318
199.316
199.314
199.312
199.31
199.307
199.305
199.303
199.301
199.299
199.297
199.295
199.292
199.29
199.288
199.286
199.284
199.282
199.28
199.277
199.275
199.273
199.271
199.269
199.267
199.264
199.262
199.26
199.258
199.256
199.253
199.251
199.249
199.247
199.245
199.242
199.24
199.238
199.236
199.233
199.231
199.229
199.227
199.224
199.222
199.22
199.218
199.215
199.213
199.211
199.208
199.206
199.204
199.201
199.199
199.197
199.194
199.192
199.189
199.187
199.185
199.182
199.18
199.177
199.175
199.173
199.17
199.168
199.165
199.163
199.16
199.158
199.155
199.153
199.15
199.148
199.145
199.143
199.14
199.138
199.135
199.132
199.13
199.127
199.125
199.122
199.119
199.117
199.114
199.111
199.109
199.106
199.103
199.1
199.098
199.095
199.092
199.089
199.087
199.084
199.081
199.078
199.075
199.072
199.07
199.067
199.064
199.061
199.058
199.055
199.052
199.049
199.046
199.043
199.04
199.037
199.034
199.031
199.028
199.025
199.022
199.019
199.016
199.013
199.01
199.006
199.003
199
198.997
198.994
198.99
198.987
198.984
198.981
198.977
198.974
198.971
198.967
198.964
198.961
198.957
198.954
198.951
198.947
198.944
198.94
198.937
198.933
198.93
198.926
198.923
198.919
198.916
198.912
198.908
198.905
198.901
198.897
198.894
198.89
198.886
198.883
198.879
198.875
198.871
198.868
198.864
198.86
198.856
198.852
198.848
198.845
198.841
198.837
198.833
198.829
198.825
198.821
198.817
198.813
198.809
198.805
198.801
198.796
198.792
198.788
198.784
198.78
198.776
198.771
198.767
198.763
198.759
198.754
198.75
198.746
198.741
198.737
198.733
198.728
198.724
198.719
198.715
198.711
198.706
198.702
198.697
198.693
198.688
198.683
198.679
198.674
198.67
198.665
198.66
198.656
198.651
0.5
200.314
200.314
200.083
200.015
199.99
199.974
199.962
199.951
199.941
199.931
199.922
199.913
199.904
199.896
199.887
199.879
199.872
199.864
199.856
199.849
199.842
199.835
199.828
199.821
199.815
199.808
199.802
199.796
199.79
199.784
199.778
199.772
199.766
199.761
199.755
199.75
199.745
199.739
199.734
199.729
199.724
199.719
199.714
199.709
199.704
199.699
199.695
199.69
199.686
199.681
199.677
199.672
199.668
199.663
199.659
199.655
199.651
199.646
199.642
199.638
199.634
199.63
199.626
199.622
199.619
199.615
199.611
199.607
199.604
199.6
199.596
199.593
199.589
199.585
199.582
199.578
199.575
199.572
199.568
199.565
199.562
199.558
199.555
199.552
199.549
199.545
199.542
199.539
199.536
199.533
199.53
199.527
199.524
199.522
199.519
199.516
199.513
199.51
199.508
199.505
199.502
199.499
199.497
199.494
199.492
199.489
199.486
199.484
199.481
199.479
199.476
199.474
199.472
199.469
199.467
199.464
199.462
199.46
199.457
199.455
199.453
199.45
199.448
199.446
199.443
199.441
199.439
199.437
199.434
199.432
199.43
199.428
199.425
199.423
199.421
199.419
199.416
199.414
199.412
199.41
199.408
199.406
199.403
199.401
199.399
199.397
199.395
199.393
199.39
199.388
199.386
199.384
199.382
199.38
199.377
199.375
199.373
199.371
199.369
199.367
199.365
199.363
199.36
199.358
199.356
199.354
199.352
199.35
199.348
199.346
199.343
199.341
199.339
199.337
199.335
199.333
199.331
199.329
199.326
199.324
199.322
199.32
199.318
199.316
199.314
199.312
199.31
199.307
199.305
199.303
199.301
199.299
199.297
199.295
199.292
199.29
199.288
199.286
199.284
199.282
199.28
199.277
199.275
199.273
199.271
199.269
199.267
199.264
199.262
199.26
199.258
199.256
199.253
199.251
199.249
199.247
199.245
199.242
199.24
199.238
199.236
199.233
199.231
199.229
199.227
199.224
199.222
199.22
199.218
199.215
199.213
199.211
199.208
199.206
199.204
199.201
199.199
199.197
199.194
199.192
199.189
199.187
199.185
199.182
199.18
199.177
199.175
199.173
199.17
199.168
199.165
199.163
199.16
199.158
199.155
199.153
199.15
199.148
199.145
199.143
199.14
199.138
199.135
199.132
199.13
199.127
199.125
199.122
199.119
199.117
199.114
199.111
199.109
199.106
199.103
199.1
199.098
199.095
199.092
199.089
199.087
199.084
199.081
199.078
199.075
199.072
199.07
199.067
199.064
199.061
199.058
199.055
199.052
199.049
199.046
199.043
199.04
199.037
199.034
199.031
199.028
199.025
199.022
199.019
199.016
199.013
199.01
199.006
199.003
199
198.997
198.994
198.99
198.987
198.984
198.981
198.977
198.974
198.971
198.967
198.964
198.961
198.957
198.954
198.951
198.947
198.944
198.94
198.937
198.933
198.93
198.926
198.923
198.919
198.916
198.912
198.908
198.905
198.901
198.897
198.894
198.89
198.886
198.883
198.879
198.875
198.871
198.868
198.864
198.86
198.856
198.852
198.848
198.845
198.841
198.837
198.833
198.829
198.825
198.821
198.817
198.813
198.809
198.805
198.801
198.796
198.792
198.788
198.784
198.78
198.776
198.771
198.767
198.763
198.759
198.754
198.75
198.746
198.741
198.737
198.733
198.728
198.724
198.719
198.715
198.711
198.706
198.702
198.697
198.693
198.688
198.683
198.679
198.674
198.67
198.665
198.66
198.656
198.651
198.651
200.264
200.264
200.088
200.02
199.992
199.976
199.963
199.952
199.941
199.931
199.922
199.913
199.904
199.896
199.888
199.88
199.872
199.864
199.857
199.849
199.842
199.835
199.828
199.822
199.815
199.809
199.802
199.796
199.79
199.784
199.778
199.772
199.767
199.761
199.755
199.75
199.745
199.739
199.734
199.729
199.724
199.719
199.714
199.709
199.704
199.699
199.695
199.69
199.686
199.681
199.677
199.672
199.668
199.663
199.659
199.655
199.651
199.647
199.642
199.638
199.634
199.63
199.626
199.623
199.619
199.615
199.611
199.607
199.604
199.6
199.596
199.593
199.589
199.585
199.582
199.578
199.575
199.572
199.568
199.565
199.562
199.558
199.555
199.552
199.549
199.545
199.542
199.539
199.536
199.533
199.53
199.527
199.524
199.522
199.519
199.516
199.513
199.51
199.508
199.505
199.502
199.499
199.497
199.494
199.492
199.489
199.486
199.484
199.481
199.479
199.476
199.474
199.472
199.469
199.467
199.464
199.462
199.46
199.457
199.455
199.453
199.45
199.448
199.446
199.443
199.441
199.439
199.437
199.434
199.432
199.43
199.428
199.425
199.423
199.421
199.419
199.417
199.414
199.412
199.41
199.408
199.406
199.403
199.401
199.399
199.397
199.395
199.393
199.39
199.388
199.386
199.384
199.382
199.38
199.377
199.375
199.373
199.371
199.369
199.367
199.365
199.363
199.36
199.358
199.356
199.354
199.352
199.35
199.348
199.346
199.343
199.341
199.339
199.337
199.335
199.333
199.331
199.329
199.326
199.324
199.322
199.32
199.318
199.316
199.314
199.312
199.31
199.307
199.305
199.303
199.301
199.299
199.297
199.295
199.292
199.29
199.288
199.286
199.284
199.282
199.28
199.277
199.275
199.273
199.271
199.269
199.267
199.264
199.262
199.26
199.258
199.256
199.253
199.251
199.249
199.247
199.245
199.242
199.24
199.238
199.236
199.233
199.231
199.229
199.227
199.224
199.222
199.22
199.218
199.215
199.213
199.211
199.208
199.206
199.204
199.201
199.199
199.197
199.194
199.192
199.189
199.187
199.185
199.182
199.18
199.177
199.175
199.173
199.17
199.168
199.165
199.163
199.16
199.158
199.155
199.153
199.15
199.148
199.145
199.143
199.14
199.138
199.135
199.132
199.13
199.127
199.125
199.122
199.119
199.117
199.114
199.111
199.109
199.106
199.103
199.1
199.098
199.095
199.092
199.089
199.087
199.084
199.081
199.078
199.075
199.072
199.07
199.067
199.064
199.061
199.058
199.055
199.052
199.049
199.046
199.043
199.04
199.037
199.034
199.031
199.028
199.025
199.022
199.019
199.016
199.013
199.01
199.006
199.003
199
198.997
198.994
198.99
198.987
198.984
198.981
198.977
198.974
198.971
198.967
198.964
198.961
198.957
198.954
198.951
198.947
198.944
198.94
198.937
198.933
198.93
198.926
198.923
198.919
198.916
198.912
198.908
198.905
198.901
198.897
198.894
198.89
198.886
198.883
198.879
198.875
198.871
198.868
198.864
198.86
198.856
198.852
198.848
198.845
198.841
198.837
198.833
198.829
198.825
198.821
198.817
198.813
198.809
198.805
198.801
198.796
198.792
198.788
198.784
198.78
198.776
198.771
198.767
198.763
198.759
198.754
198.75
198.746
198.741
198.737
198.733
198.728
198.724
198.719
198.715
198.711
198.706
198.702
198.697
198.693
198.688
198.683
198.679
198.674
198.67
198.665
198.66
198.656
198.651
198.651
200.223
200.223
200.09
200.025
199.995
199.977
199.964
199.952
199.942
199.932
199.923
199.913
199.905
199.896
199.888
199.88
199.872
199.864
199.857
199.849
199.842
199.835
199.828
199.822
199.815
199.809
199.802
199.796
199.79
199.784
199.778
199.772
199.767
199.761
199.755
199.75
199.745
199.739
199.734
199.729
199.724
199.719
199.714
199.709
199.704
199.7
199.695
199.69
199.686
199.681
199.677
199.672
199.668
199.663
199.659
199.655
199.651
199.647
199.642
199.638
199.634
199.63
199.626
199.623
199.619
199.615
199.611
199.607
199.604
199.6
199.596
199.593
199.589
199.585
199.582
199.578
199.575
199.572
199.568
199.565
199.562
199.558
199.555
199.552
199.549
199.545
199.542
199.539
199.536
199.533
199.53
199.527
199.524
199.522
199.519
199.516
199.513
199.51
199.508
199.505
199.502
199.499
199.497
199.494
199.492
199.489
199.486
199.484
199.481
199.479
199.476
199.474
199.472
199.469
199.467
199.464
199.462
199.46
199.457
199.455
199.453
199.45
199.448
199.446
199.443
199.441
199.439
199.437
199.434
199.432
199.43
199.428
199.425
199.423
199.421
199.419
199.417
199.414
199.412
199.41
199.408
199.406
199.403
199.401
199.399
199.397
199.395
199.393
199.39
199.388
199.386
199.384
199.382
199.38
199.377
199.375
199.373
199.371
199.369
199.367
199.365
199.363
199.36
199.358
199.356
199.354
199.352
199.35
199.348
199.346
199.343
199.341
199.339
199.337
199.335
199.333
199.331
199.329
199.326
199.324
199.322
199.32
199.318
199.316
199.314
199.312
199.31
199.307
199.305
199.303
199.301
199.299
199.297
199.295
199.292
199.29
199.288
199.286
199.284
199.282
199.28
199.277
199.275
199.273
199.271
199.269
199.267
199.264
199.262
199.26
199.258
199.256
199.253
199.251
199.249
199.247
199.245
199.242
199.24
199.238
199.236
199.233
199.231
199.229
199.227
199.224
199.222
199.22
199.218
199.215
199.213
199.211
199.208
199.206
199.204
199.201
199.199
199.197
199.194
199.192
199.189
199.187
199.185
199.182
199.18
199.177
199.175
199.173
199.17
199.168
199.165
199.163
199.16
199.158
199.155
199.153
199.15
199.148
199.145
199.143
199.14
199.138
199.135
199.132
199.13
199.127
199.125
199.122
199.119
199.117
199.114
199.111
199.109
199.106
199.103
199.1
199.098
199.095
199.092
199.089
199.087
199.084
199.081
199.078
199.075
199.072
199.07
199.067
199.064
199.061
199.058
199.055
199.052
199.049
199.046
199.043
199.04
199.037
199.034
199.031
199.028
199.025
199.022
199.019
199.016
199.013
199.01
199.006
199.003
199
198.997
198.994
198.99
198.987
198.984
198.981
198.977
198.974
198.971
198.967
198.964
198.961
198.957
198.954
198.951
198.947
198.944
198.94
198.937
198.933
198.93
198.926
198.923
198.919
198.916
198.912
198.908
198.905
198.901
198.897
198.894
198.89
198.886
198.883
198.879
198.875
198.871
198.868
198.864
198.86
198.856
198.852
198.848
198.845
198.841
198.837
198.833
198.829
198.825
198.821
198.817
198.813
198.809
198.805
198.801
198.796
198.792
198.788
198.784
198.78
198.776
198.771
198.767
198.763
198.759
198.754
198.75
198.746
198.741
198.737
198.733
198.728
198.724
198.719
198.715
198.711
198.706
198.702
198.697
198.693
198.688
198.683
198.679
198.674
198.67
198.665
198.66
198.656
198.651
198.651
200.192
200.192
200.091
200.03
199.999
199.98
199.965
199.953
199.943
199.933
199.923
199.914
199.905
199.896
199.888
199.88
199.872
199.864
199.857
199.85
199.842
199.835
199.828
199.822
199.815
199.809
199.802
199.796
199.79
199.784
199.778
199.772
199.767
199.761
199.755
199.75
199.745
199.739
199.734
199.729
199.724
199.719
199.714
199.709
199.704
199.7
199.695
199.69
199.686
199.681
199.677
199.672
199.668
199.663
199.659
199.655
199.651
199.647
199.642
199.638
199.634
199.63
199.626
199.623
199.619
199.615
199.611
199.607
199.604
199.6
199.596
199.593
199.589
199.586
199.582
199.579
199.575
199.572
199.568
199.565
199.562
199.558
199.555
199.552
199.549
199.546
199.542
199.539
199.536
199.533
199.53
199.527
199.524
199.522
199.519
199.516
199.513
199.51
199.508
199.505
199.502
199.499
199.497
199.494
199.492
199.489
199.486
199.484
199.481
199.479
199.476
199.474
199.472
199.469
199.467
199.464
199.462
199.46
199.457
199.455
199.453
199.45
199.448
199.446
199.443
199.441
199.439
199.437
199.434
199.432
199.43
199.428
199.425
199.423
199.421
199.419
199.417
199.414
199.412
199.41
199.408
199.406
199.403
199.401
199.399
199.397
199.395
199.393
199.39
199.388
199.386
199.384
199.382
199.38
199.377
199.375
199.373
199.371
199.369
199.367
199.365
199.363
199.36
199.358
199.356
199.354
199.352
199.35
199.348
199.346
199.343
199.341
199.339
199.337
199.335
199.333
199.331
199.329
199.326
199.324
199.322
199.32
199.318
199.316
199.314
199.312
199.31
199.307
199.305
199.303
199.301
199.299
199.297
199.295
199.292
199.29
199.288
199.286
199.284
199.282
199.28
199.277
199.275
199.273
199.271
199.269
199.267
199.264
199.262
199.26
199.258
199.256
199.253
199.251
199.249
199.247
199.245
199.242
199.24
199.238
199.236
199.233
199.231
199.229
199.227
199.224
199.222
199.22
199.218
199.215
199.213
199.211
199.208
199.206
199.204
199.201
199.199
199.197
199.194
199.192
199.189
199.187
199.185
199.182
199.18
199.177
199.175
199.173
199.17
199.168
199.165
199.163
199.16
199.158
199.155
199.153
199.15
199.148
199.145
199.143
199.14
199.138
199.135
199.132
199.13
199.127
199.125
199.122
199.119
199.117
199.114
199.111
199.109
199.106
199.103
199.1
199.098
199.095
199.092
199.089
199.087
199.084
199.081
199.078
199.075
199.072
199.07
199.067
199.064
199.061
199.058
199.055
199.052
199.049
199.046
199.043
199.04
199.037
199.034
199.031
199.028
199.025
199.022
199.019
199.016
199.013
199.01
199.006
199.003
199
198.997
198.994
198.99
198.987
198.984
198.981
198.977
198.974
198.971
198.967
198.964
198.961
198.957
198.954
198.951
198.947
198.944
198.94
198.937
198.933
198.93
198.926
198.923
198.919
198.916
198.912
198.908
198.905
198.901
198.897
198.894
198.89
198.886
198.883
198.879
198.875
198.871
198.868
198.864
198.86
198.856
198.852
198.848
198.845
198.841
198.837
198.833
198.829
198.825
198.821
198.817
198.813
198.809
198.805
198.801
198.796
198.792
198.788
198.784
198.78
198.776
198.771
198.767
198.763
198.759
198.754
198.75
198.746
198.741
198.737
198.733
198.728
198.724
198.719
198.715
198.711
198.706
198.702
198.697
198.693
198.688
198.683
198.679
198.674
198.67
198.665
198.66
198.656
198.651
198.651
200.166
200.166
200.089
200.034
200.002
199.982
199.967
199.955
199.944
199.933
199.924
199.914
199.905
199.897
199.888
199.88
199.872
199.865
199.857
199.85
199.842
199.835
199.829
199.822
199.815
199.809
199.802
199.796
199.79
199.784
199.778
199.772
199.767
199.761
199.756
199.75
199.745
199.739
199.734
199.729
199.724
199.719
199.714
199.709
199.704
199.7
199.695
199.69
199.686
199.681
199.677
199.672
199.668
199.663
199.659
199.655
199.651
199.647
199.642
199.638
199.634
199.63
199.626
199.623
199.619
199.615
199.611
199.607
199.604
199.6
199.596
199.593
199.589
199.586
199.582
199.579
199.575
199.572
199.568
199.565
199.562
199.558
199.555
199.552
199.549
199.546
199.542
199.539
199.536
199.533
199.53
199.527
199.524
199.522
199.519
199.516
199.513
199.51
199.508
199.505
199.502
199.499
199.497
199.494
199.492
199.489
199.486
199.484
199.481
199.479
199.476
199.474
199.472
199.469
199.467
199.464
199.462
199.46
199.457
199.455
199.453
199.45
199.448
199.446
199.443
199.441
199.439
199.437
199.434
199.432
199.43
199.428
199.425
199.423
199.421
199.419
199.417
199.414
199.412
199.41
199.408
199.406
199.403
199.401
199.399
199.397
199.395
199.393
199.39
199.388
199.386
199.384
199.382
199.38
199.377
199.375
199.373
199.371
199.369
199.367
199.365
199.363
199.36
199.358
199.356
199.354
199.352
199.35
199.348
199.346
199.343
199.341
199.339
199.337
199.335
199.333
199.331
199.329
199.326
199.324
199.322
199.32
199.318
199.316
199.314
199.312
199.31
199.307
199.305
199.303
199.301
199.299
199.297
199.295
199.292
199.29
199.288
199.286
199.284
199.282
199.28
199.277
199.275
199.273
199.271
199.269
199.267
199.264
199.262
199.26
199.258
199.256
199.253
199.251
199.249
199.247
199.245
199.242
199.24
199.238
199.236
199.233
199.231
199.229
199.227
199.224
199.222
199.22
199.218
199.215
199.213
199.211
199.208
199.206
199.204
199.201
199.199
199.197
199.194
199.192
199.189
199.187
199.185
199.182
199.18
199.177
199.175
199.173
199.17
199.168
199.165
199.163
199.16
199.158
199.155
199.153
199.15
199.148
199.145
199.143
199.14
199.138
199.135
199.132
199.13
199.127
199.125
199.122
199.119
199.117
199.114
199.111
199.109
199.106
199.103
199.1
199.098
199.095
199.092
199.089
199.087
199.084
199.081
199.078
199.075
199.072
199.07
199.067
199.064
199.061
199.058
199.055
199.052
199.049
199.046
199.043
199.04
199.037
199.034
199.031
199.028
199.025
199.022
199.019
199.016
199.013
199.01
199.006
199.003
199
198.997
198.994
198.99
198.987
198.984
198.981
198.977
198.974
198.971
198.967
198.964
198.961
198.957
198.954
198.951
198.947
198.944
198.94
198.937
198.933
198.93
198.926
198.923
198.919
198.916
198.912
198.908
198.905
198.901
198.897
198.894
198.89
198.886
198.883
198.879
198.875
198.871
198.868
198.864
198.86
198.856
198.852
198.848
198.844
198.841
198.837
198.833
198.829
198.825
198.821
198.817
198.813
198.809
198.805
198.801
198.796
198.792
198.788
198.784
198.78
198.776
198.771
198.767
198.763
198.759
198.754
198.75
198.746
198.741
198.737
198.733
198.728
198.724
198.719
198.715
198.711
198.706
198.702
198.697
198.693
198.688
198.683
198.679
198.674
198.67
198.665
198.66
198.656
198.651
198.651
200.145
200.145
200.085
200.037
200.006
199.985
199.969
199.956
199.945
199.934
199.924
199.915
199.906
199.897
199.889
199.88
199.872
199.865
199.857
199.85
199.843
199.836
199.829
199.822
199.815
199.809
199.803
199.796
199.79
199.784
199.778
199.772
199.767
199.761
199.756
199.75
199.745
199.739
199.734
199.729
199.724
199.719
199.714
199.709
199.704
199.7
199.695
199.69
199.686
199.681
199.677
199.672
199.668
199.663
199.659
199.655
199.651
199.647
199.642
199.638
199.634
199.63
199.626
199.623
199.619
199.615
199.611
199.607
199.604
199.6
199.596
199.593
199.589
199.586
199.582
199.579
199.575
199.572
199.568
199.565
199.562
199.558
199.555
199.552
199.549
199.546
199.542
199.539
199.536
199.533
199.53
199.527
199.524
199.522
199.519
199.516
199.513
199.51
199.508
199.505
199.502
199.499
199.497
199.494
199.492
199.489
199.486
199.484
199.481
199.479
199.476
199.474
199.472
199.469
199.467
199.464
199.462
199.46
199.457
199.455
199.453
199.45
199.448
199.446
199.443
199.441
199.439
199.437
199.434
199.432
199.43
199.428
199.425