# vtk DataFile Version 2.0
FlowField
ASCII
DATASET STRUCTURED_GRID
DIMENSIONS 400 1 50
POINTS 20000 float
0 0 0
0.08 0 0
0.16 0 0
0.24 0 0
0.32 0 0
0.4 0 0
0.48 0 0
0.56 0 0
0.64 0 0
0.72 0 0
0.8 0 0
0.88 0 0
0.96 0 0
1.04 0 0
1.12 0 0
1.2 0 0
1.28 0 0
1.36 0 0
1.44 0 0
1.52 0 0
1.6 0 0
1.68 0 0
1.76 0 0
1.84 0 0
1.92 0 0
2 0 0
2.08 0 0
2.16 0 0
2.24 0 0
2.32 0 0
2.4 0 0
2.48 0 0
2.56 0 0
2.64 0 0
2.72 0 0
2.8 0 0
2.88 0 0
2.96 0 0
3.04 0 0
3.12 0 0
3.2 0 0
3.28 0 0
3.36 0 0
3.44 0 0
3.52 0 0
3.6 0 0
3.68 0 0
3.76 0 0
3.84 0 0
3.92 0 0
4 0 0
4.08 0 0
4.16 0 0
4.24 0 0
4.32 0 0
4.4 0 0
4.48 0 0
4.56 0 0
4.64 0 0
4.72 0 0
4.8 0 0
4.88 0 0
4.96 0 0
5.04 0 0
5.12 0 0
5.2 0 0
5.28 0 0
5.36 0 0
5.44 0 0
5.52 0 0
5.6 0 0
5.68 0 0
5.76 0 0
5.84 0 0
5.92 0 0
6 0 0
6.08 0 0
6.16 0 0
6.24 0 0
6.32 0 0
6.4 0 0
6.48 0 0
6.56 0 0
6.64 0 0
6.72 0 0
6.8 0 0
6.88 0 0
6.96 0 0
7.04 0 0
7.12 0 0
7.2 0 0
7.28 0 0
7.36 0 0
7.44 0 0
7.52 0 0
7.6 0 0
7.68 0 0
7.76 0 0
7.84 0 0
7.92 0 0
8 0 0
8.08 0 0
8.16 0 0
8.24 0 0
8.32 0 0
8.4 0 0
8.48 0 0
8.56 0 0
8.64 0 0
8.72 0 0
8.8 0 0
8.88 0 0
8.96 0 0
9.04 0 0
9.12 0 0
9.2 0 0
9.28 0 0
9.36 0 0
9.44 0 0
9.52 0 0
9.6 0 0
9.68 0 0
9.76 0 0
9.84 0 0
9.92 0 0
10 0 0
10.08 0 0
10.16 0 0
10.24 0 0
10.32 0 0
10.4 0 0
10.48 0 0
10.56 0 0
10.64 0 0
10.72 0 0
10.8 0 0
10.88 0 0
10.96 0 0
11.04 0 0
11.12 0 0
11.2 0 0
11.28 0 0
11.36 0 0
11.44 0 0
11.52 0 0
11.6 0 0
11.68 0 0
11.76 0 0
11.84 0 0
11.92 0 0
12 0 0
12.08 0 0
12.16 0 0
12.24 0 0
12.32 0 0
12.4 0 0
12.48 0 0
12.56 0 0
12.64 0 0
12.72 0 0
12.8 0 0
12.88 0 0
12.96 0 0
13.04 0 0
13.12 0 0
13.2 0 0
13.28 0 0
13.36 0 0
13.44 0 0
13.52 0 0
13.6 0 0
13.68 0 0
13.76 0 0
13.84 0 0
13.92 0 0
14 0 0
14.08 0 0
14.16 0 0
14.24 0 0
14.32 0 0
14.4 0 0
14.48 0 0
14.56 0 0
14.64 0 0
14.72 0 0
14.8 0 0
14.88 0 0
14.96 0 0
15.04 0 0
15.12 0 0
15.2 0 0
15.28 0 0
15.36 0 0
15.44 0 0
15.52 0 0
15.6 0 0
15.68 0 0
15.76 0 0
15.84 0 0
15.92 0 0
16 0 0
16.08 0 0
16.16 0 0
16.24 0 0
16.32 0 0
16.4 0 0
16.48 0 0
16.56 0 0
16.64 0 0
16.72 0 0
16.8 0 0
16.88 0 0
16.96 0 0
17.04 0 0
17.12 0 0
17.2 0 0
17.28 0 0
17.36 0 0
17.44 0 0
17.52 0 0
17.6 0 0
17.68 0 0
17.76 0 0
17.84 0 0
17.92 0 0
18 0 0
18.08 0 0
18.16 0 0
18.24 0 0
18.32 0 0
18.4 0 0
18.48 0 0
18.56 0 0
18.64 0 0
18.72 0 0
18.8 0 0
18.88 0 0
18.96 0 0
19.04 0 0
19.12 0 0
19.2 0 0
19.28 0 0
19.36 0 0
19.44 0 0
19.52 0 0
19.6 0 0
19.68 0 0
19.76 0 0
19.84 0 0
19.92 0 0
20 0 0
20.08 0 0
20.16 0 0
20.24 0 0
20.32 0 0
20.4 0 0
20.48 0 0
20.56 0 0
20.64 0 0
20.72 0 0
20.8 0 0
20.88 0 0
20.96 0 0
21.04 0 0
21.12 0 0
21.2 0 0
21.28 0 0
21.36 0 0
21.44 0 0
21.52 0 0
21.6 0 0
21.68 0 0
21.76 0 0
21.84 0 0
21.92 0 0
22 0 0
22.08 0 0
22.16 0 0
22.24 0 0
22.32 0 0
22.4 0 0
22.48 0 0
22.56 0 0
22.64 0 0
22.72 0 0
22.8 0 0
22.88 0 0
22.96 0 0
23.04 0 0
23.12 0 0
23.2 0 0
23.28 0 0
23.36 0 0
23.44 0 0
23.52 0 0
23.6 0 0
23.68 0 0
23.76 0 0
23.84 0 0
23.92 0 0
24 0 0
24.08 0 0
24.16 0 0
24.24 0 0
24.32 0 0
24.4 0 0
24.48 0 0
24.56 0 0
24.64 0 0
24.72 0 0
24.8 0 0
24.88 0 0
24.96 0 0
25.04 0 0
25.12 0 0
25.2 0 0
25.28 0 0
25.36 0 0
25.44 0 0
25.52 0 0
25.6 0 0
25.68 0 0
25.76 0 0
25.84 0 0
25.92 0 0
26 0 0
26.08 0 0
26.16 0 0
26.24 0 0
26.32 0 0
26.4 0 0
26.48 0 0
26.56 0 0
26.64 0 0
26.72 0 0
26.8 0 0
26.88 0 0
26.96 0 0
27.04 0 0
27.12 0 0
27.2 0 0
27.28 0 0
27.36 0 0
27.44 0 0
27.52 0 0
27.6 0 0
27.68 0 0
27.76 0 0
27.84 0 0
27.92 0 0
28 0 0
28.08 0 0
28.16 0 0
28.24 0 0
28.32 0 0
28.4 0 0
28.48 0 0
28.56 0 0
28.64 0 0
28.72 0 0
28.8 0 0
28.88 0 0
28.96 0 0
29.04 0 0
29.12 0 0
29.2 0 0
29.28 0 0
29.36 0 0
29.44 0 0
29.52 0 0
29.6 0 0
29.68 0 0
29.76 0 0
29.84 0 0
29.92 0 0
30 0 0
30.08 0 0
30.16 0 0
30.24 0 0
30.32 0 0
30.4 0 0
30.48 0 0
30.56 0 0
30.64 0 0
30.72 0 0
30.8 0 0
30.88 0 0
30.96 0 0
31.04 0 0
31.12 0 0
31.2 0 0
31.28 0 0
31.36 0 0
31.44 0 0
31.52 0 0
31.6 0 0
31.68 0 0
31.76 0 0
31.84 0 0
31.92 0 0
0 0.02 0
0.08 0.02 0
0.16 0.02 0
0.24 0.02 0
0.32 0.02 0
0.4 0.02 0
0.48 0.02 0
0.56 0.02 0
0.64 0.02 0
0.72 0.02 0
0.8 0.02 0
0.88 0.02 0
0.96 0.02 0
1.04 0.02 0
1.12 0.02 0
1.2 0.02 0
1.28 0.02 0
1.36 0.02 0
1.44 0.02 0
1.52 0.02 0
1.6 0.02 0
1.68 0.02 0
1.76 0.02 0
1.84 0.02 0
1.92 0.02 0
2 0.02 0
2.08 0.02 0
2.16 0.02 0
2.24 0.02 0
2.32 0.02 0
2.4 0.02 0
2.48 0.02 0
2.56 0.02 0
2.64 0.02 0
2.72 0.02 0
2.8 0.02 0
2.88 0.02 0
2.96 0.02 0
3.04 0.02 0
3.12 0.02 0
3.2 0.02 0
3.28 0.02 0
3.36 0.02 0
3.44 0.02 0
3.52 0.02 0
3.6 0.02 0
3.68 0.02 0
3.76 0.02 0
3.84 0.02 0
3.92 0.02 0
4 0.02 0
4.08 0.02 0
4.16 0.02 0
4.24 0.02 0
4.32 0.02 0
4.4 0.02 0
4.48 0.02 0
4.56 0.02 0
4.64 0.02 0
4.72 0.02 0
4.8 0.02 0
4.88 0.02 0
4.96 0.02 0
5.04 0.02 0
5.12 0.02 0
5.2 0.02 0
5.28 0.02 0
5.36 0.02 0
5.44 0.02 0
5.52 0.02 0
5.6 0.02 0
5.68 0.02 0
5.76 0.02 0
5.84 0.02 0
5.92 0.02 0
6 0.02 0
6.08 0.02 0
6.16 0.02 0
6.24 0.02 0
6.32 0.02 0
6.4 0.02 0
6.48 0.02 0
6.56 0.02 0
6.64 0.02 0
6.72 0.02 0
6.8 0.02 0
6.88 0.02 0
6.96 0.02 0
7.04 0.02 0
7.12 0.02 0
7.2 0.02 0
7.28 0.02 0
7.36 0.02 0
7.44 0.02 0
7.52 0.02 0
7.6 0.02 0
7.68 0.02 0
7.76 0.02 0
7.84 0.02 0
7.92 0.02 0
8 0.02 0
8.08 0.02 0
8.16 0.02 0
8.24 0.02 0
8.32 0.02 0
8.4 0.02 0
8.48 0.02 0
8.56 0.02 0
8.64 0.02 0
8.72 0.02 0
8.8 0.02 0
8.88 0.02 0
8.96 0.02 0
9.04 0.02 0
9.12 0.02 0
9.2 0.02 0
9.28 0.02 0
9.36 0.02 0
9.44 0.02 0
9.52 0.02 0
9.6 0.02 0
9.68 0.02 0
9.76 0.02 0
9.84 0.02 0
9.92 0.02 0
10 0.02 0
10.08 0.02 0
10.16 0.02 0
10.24 0.02 0
10.32 0.02 0
10.4 0.02 0
10.48 0.02 0
10.56 0.02 0
10.64 0.02 0
10.72 0.02 0
10.8 0.02 0
10.88 0.02 0
10.96 0.02 0
11.04 0.02 0
11.12 0.02 0
11.2 0.02 0
11.28 0.02 0
11.36 0.02 0
11.44 0.02 0
11.52 0.02 0
11.6 0.02 0
11.68 0.02 0
11.76 0.02 0
11.84 0.02 0
11.92 0.02 0
12 0.02 0
12.08 0.02 0
12.16 0.02 0
12.24 0.02 0
12.32 0.02 0
12.4 0.02 0
12.48 0.02 0
12.56 0.02 0
12.64 0.02 0
12.72 0.02 0
12.8 0.02 0
12.88 0.02 0
12.96 0.02 0
13.04 0.02 0
13.12 0.02 0
13.2 0.02 0
13.28 0.02 0
13.36 0.02 0
13.44 0.02 0
13.52 0.02 0
13.6 0.02 0
13.68 0.02 0
13.76 0.02 0
13.84 0.02 0
13.92 0.02 0
14 0.02 0
14.08 0.02 0
14.16 0.02 0
14.24 0.02 0
14.32 0.02 0
14.4 0.02 0
14.48 0.02 0
14.56 0.02 0
14.64 0.02 0
14.72 0.02 0
14.8 0.02 0
14.88 0.02 0
14.96 0.02 0
15.04 0.02 0
15.12 0.02 0
15.2 0.02 0
15.28 0.02 0
15.36 0.02 0
15.44 0.02 0
15.52 0.02 0
15.6 0.02 0
15.68 0.02 0
15.76 0.02 0
15.84 0.02 0
15.92 0.02 0
16 0.02 0
16.08 0.02 0
16.16 0.02 0
16.24 0.02 0
16.32 0.02 0
16.4 0.02 0
16.48 0.02 0
16.56 0.02 0
16.64 0.02 0
16.72 0.02 0
16.8 0.02 0
16.88 0.02 0
16.96 0.02 0
17.04 0.02 0
17.12 0.02 0
17.2 0.02 0
17.28 0.02 0
17.36 0.02 0
17.44 0.02 0
17.52 0.02 0
17.6 0.02 0
17.68 0.02 0
17.76 0.02 0
17.84 0.02 0
17.92 0.02 0
18 0.02 0
18.08 0.02 0
18.16 0.02 0
18.24 0.02 0
18.32 0.02 0
18.4 0.02 0
18.48 0.02 0
18.56 0.02 0
18.64 0.02 0
18.72 0.02 0
18.8 0.02 0
18.88 0.02 0
18.96 0.02 0
19.04 0.02 0
19.12 0.02 0
19.2 0.02 0
19.28 0.02 0
19.36 0.02 0
19.44 0.02 0
19.52 0.02 0
19.6 0.02 0
19.68 0.02 0
19.76 0.02 0
19.84 0.02 0
19.92 0.02 0
20 0.02 0
20.08 0.02 0
20.16 0.02 0
20.24 0.02 0
20.32 0.02 0
20.4 0.02 0
20.48 0.02 0
20.56 0.02 0
20.64 0.02 0
20.72 0.02 0
20.8 0.02 0
20.88 0.02 0
20.96 0.02 0
21.04 0.02 0
21.12 0.02 0
21.2 0.02 0
21.28 0.02 0
21.36 0.02 0
21.44 0.02 0
21.52 0.02 0
21.6 0.02 0
21.68 0.02 0
21.76 0.02 0
21.84 0.02 0
21.92 0.02 0
22 0.02 0
22.08 0.02 0
22.16 0.02 0
22.24 0.02 0
22.32 0.02 0
22.4 0.02 0
22.48 0.02 0
22.56 0.02 0
22.64 0.02 0
22.72 0.02 0
22.8 0.02 0
22.88 0.02 0
22.96 0.02 0
23.04 0.02 0
23.12 0.02 0
23.2 0.02 0
23.28 0.02 0
23.36 0.02 0
23.44 0.02 0
23.52 0.02 0
23.6 0.02 0
23.68 0.02 0
23.76 0.02 0
23.84 0.02 0
23.92 0.02 0
24 0.02 0
24.08 0.02 0
24.16 0.02 0
24.24 0.02 0
24.32 0.02 0
24.4 0.02 0
24.48 0.02 0
24.56 0.02 0
24.64 0.02 0
24.72 0.02 0
24.8 0.02 0
24.88 0.02 0
24.96 0.02 0
25.04 0.02 0
25.12 0.02 0
25.2 0.02 0
25.28 0.02 0
25.36 0.02 0
25.44 0.02 0
25.52 0.02 0
25.6 0.02 0
25.68 0.02 0
25.76 0.02 0
25.84 0.02 0
25.92 0.02 0
26 0.02 0
26.08 0.02 0
26.16 0.02 0
26.24 0.02 0
26.32 0.02 0
26.4 0.02 0
26.48 0.02 0
26.56 0.02 0
26.64 0.02 0
26.72 0.02 0
26.8 0.02 0
26.88 0.02 0
26.96 0.02 0
27.04 0.02 0
27.12 0.02 0
27.2 0.02 0
27.28 0.02 0
27.36 0.02 0
27.44 0.02 0
27.52 0.02 0
27.6 0.02 0
27.68 0.02 0
27.76 0.02 0
27.84 0.02 0
27.92 0.02 0
28 0.02 0
28.08 0.02 0
28.16 0.02 0
28.24 0.02 0
28.32 0.02 0
28.4 0.02 0
28.48 0.02 0
28.56 0.02 0
28.64 0.02 0
28.72 0.02 0
28.8 0.02 0
28.88 0.02 0
28.96 0.02 0
29.04 0.02 0
29.12 0.02 0
29.2 0.02 0
29.28 0.02 0
29.36 0.02 0
29.44 0.02 0
29.52 0.02 0
29.6 0.02 0
29.68 0.02 0
29.76 0.02 0
29.84 0.02 0
29.92 0.02 0
30 0.02 0
30.08 0.02 0
30.16 0.02 0
30.24 0.02 0
30.32 0.02 0
30.4 0.02 0
30.48 0.02 0
30.56 0.02 0
30.64 0.02 0
30.72 0.02 0
30.8 0.02 0
30.88 0.02 0
30.96 0.02 0
31.04 0.02 0
31.12 0.02 0
31.2 0.02 0
31.28 0.02 0
31.36 0.02 0
31.44 0.02 0
31.52 0.02 0
31.6 0.02 0
31.68 0.02 0
31.76 0.02 0
31.84 0.02 0
31.92 0.02 0
0 0.04 0
0.08 0.04 0
0.16 0.04 0
0.24 0.04 0
0.32 0.04 0
0.4 0.04 0
0.48 0.04 0
0.56 0.04 0
0.64 0.04 0
0.72 0.04 0
0.8 0.04 0
0.88 0.04 0
0.96 0.04 0
1.04 0.04 0
1.12 0.04 0
1.2 0.04 0
1.28 0.04 0
1.36 0.04 0
1.44 0.04 0
1.52 0.04 0
1.6 0.04 0
1.68 0.04 0
1.76 0.04 0
1.84 0.04 0
1.92 0.04 0
2 0.04 0
2.08 0.04 0
2.16 0.04 0
2.24 0.04 0
2.32 0.04 0
2.4 0.04 0
2.48 0.04 0
2.56 0.04 0
2.64 0.04 0
2.72 0.04 0
2.8 0.04 0
2.88 0.04 0
2.96 0.04 0
3.04 0.04 0
3.12 0.04 0
3.2 0.04 0
3.28 0.04 0
3.36 0.04 0
3.44 0.04 0
3.52 0.04 0
3.6 0.04 0
3.68 0.04 0
3.76 0.04 0
3.84 0.04 0
3.92 0.04 0
4 0.04 0
4.08 0.04 0
4.16 0.04 0
4.24 0.04 0
4.32 0.04 0
4.4 0.04 0
4.48 0.04 0
4.56 0.04 0
4.64 0.04 0
4.72 0.04 0
4.8 0.04 0
4.88 0.04 0
4.96 0.04 0
5.04 0.04 0
5.12 0.04 0
5.2 0.04 0
5.28 0.04 0
5.36 0.04 0
5.44 0.04 0
5.52 0.04 0
5.6 0.04 0
5.68 0.04 0
5.76 0.04 0
5.84 0.04 0
5.92 0.04 0
6 0.04 0
6.08 0.04 0
6.16 0.04 0
6.24 0.04 0
6.32 0.04 0
6.4 0.04 0
6.48 0.04 0
6.56 0.04 0
6.64 0.04 0
6.72 0.04 0
6.8 0.04 0
6.88 0.04 0
6.96 0.04 0
7.04 0.04 0
7.12 0.04 0
7.2 0.04 0
7.28 0.04 0
7.36 0.04 0
7.44 0.04 0
7.52 0.04 0
7.6 0.04 0
7.68 0.04 0
7.76 0.04 0
7.84 0.04 0
[...]
POINT_DATA 20000

SCALARS u float 1
LOOKUP_TABLE default
0
-0.506975
-0.291754
-0.213968
-0.178822
-0.158464
-0.144923
-0.135189
-0.127816
-0.122009
-0.117292
-0.113364
-0.110025
-0.107139
-0.104611
-0.102371
-0.100367
-0.0985592
-0.096917
-0.0954166
-0.0940393
-0.0927704
-0.091598
-0.0905121
-0.0895037
-0.0885641
-0.0876849
-0.086859
-0.0860811
-0.0853482
-0.0846583
-0.0840096
-0.083399
-0.0828223
-0.0822756
-0.081755
-0.0812576
-0.0807814
-0.0803256
-0.0798909
-0.079479
-0.0790914
-0.0787274
-0.0783836
-0.0780547
-0.0777358
-0.0774258
-0.0771276
-0.0768473
-0.0765906
-0.0763598
-0.0761526
-0.0759637
-0.0757878
-0.0756226
-0.0754697
-0.0753335
-0.075218
-0.0751247
-0.0750514
-0.0749933
-0.0749451
-0.0749032
-0.0748668
-0.0748375
-0.0748181
-0.0748104
-0.0748143
-0.0748279
-0.0748477
-0.0748703
-0.0748934
-0.0749164
-0.0749403
-0.0749671
-0.0749992
-0.0750384
-0.0750856
-0.0751409
-0.0752032
-0.0752712
-0.0753432
-0.0754179
-0.0754942
-0.0755713
-0.0756488
-0.0757264
-0.0758042
-0.0758822
-0.0759604
-0.0760387
-0.0761172
-0.0761957
-0.0762744
-0.0763529
-0.0764314
-0.0765097
-0.0765879
-0.0766659
-0.0767437
-0.0768213
-0.0768987
-0.0769758
-0.0770528
-0.0771295
-0.0772061
-0.0772824
-0.0773585
-0.0774344
-0.0775101
-0.0775855
-0.0776607
-0.0777357
-0.0778104
-0.0778849
-0.0779591
-0.0780331
-0.0781068
-0.0781803
-0.0782534
-0.0783263
-0.0783989
-0.0784713
-0.0785433
-0.078615
-0.0786865
-0.0787576
-0.0788284
-0.0788989
-0.0789691
-0.0790389
-0.0791085
-0.0791776
-0.0792465
-0.079315
-0.0793831
-0.0794509
-0.0795183
-0.0795853
-0.079652
-0.0797182
-0.0797841
-0.0798496
-0.0799147
-0.0799794
-0.0800437
-0.0801075
-0.080171
-0.080234
-0.0802965
-0.0803587
-0.0804204
-0.0804816
-0.0805424
-0.0806027
-0.0806625
-0.0807218
-0.0807807
-0.0808391
-0.080897
-0.0809544
-0.0810113
-0.0810676
-0.0811235
-0.0811788
-0.0812336
-0.0812879
-0.0813416
-0.0813947
-0.0814473
-0.0814994
-0.0815508
-0.0816017
-0.0816521
-0.0817018
-0.0817509
-0.0817995
-0.0818474
-0.0818948
-0.0819415
-0.0819876
-0.082033
-0.0820779
-0.0821221
-0.0821656
-0.0822085
-0.0822508
-0.0822923
-0.0823333
-0.0823735
-0.0824131
-0.0824519
-0.0824901
-0.0825276
-0.0825644
-0.0826005
-0.0826359
-0.0826706
-0.0827045
-0.0827377
-0.0827702
-0.0828019
-0.082833
-0.0828632
-0.0828927
-0.0829215
-0.0829495
-0.0829767
-0.0830032
-0.0830289
-0.0830538
-0.0830779
-0.0831013
-0.0831238
-0.0831456
-0.0831666
-0.0831867
-0.0832061
-0.0832246
-0.0832424
-0.0832593
-0.0832754
-0.0832907
-0.0833052
-0.0833188
-0.0833316
-0.0833435
-0.0833547
-0.083365
-0.0833744
-0.083383
-0.0833908
-0.0833977
-0.0834038
-0.083409
-0.0834133
-0.0834168
-0.0834195
-0.0834212
-0.0834222
-0.0834222
-0.0834214
-0.0834197
-0.0834172
-0.0834138
-0.0834096
-0.0834044
-0.0833984
-0.0833916
-0.0833838
-0.0833752
-0.0833658
-0.0833554
-0.0833442
-0.0833322
-0.0833193
-0.0833055
-0.0832908
-0.0832753
-0.0832589
-0.0832417
-0.0832236
-0.0832046
-0.0831848
-0.0831641
-0.0831426
-0.0831202
-0.083097
-0.083073
-0.0830481
-0.0830223
-0.0829957
-0.0829683
-0.0829401
-0.082911
-0.0828811
-0.0828504
-0.0828188
-0.0827865
-0.0827533
-0.0827193
-0.0826845
-0.082649
-0.0826126
-0.0825754
-0.0825375
-0.0824987
-0.0824592
-0.082419
-0.0823779
-0.0823361
-0.0822935
-0.0822502
-0.0822061
-0.0821613
-0.0821158
-0.0820695
-0.0820225
-0.0819748
-0.0819264
-0.0818772
-0.0818274
-0.0817769
-0.0817256
-0.0816738
-0.0816212
-0.0815679
-0.081514
-0.0814595
-0.0814043
-0.0813485
-0.081292
-0.0812349
-0.0811772
-0.0811189
-0.0810599
-0.0810004
-0.0809403
-0.0808796
-0.0808184
-0.0807565
-0.0806942
-0.0806312
-0.0805678
-0.0805038
-0.0804392
-0.0803742
-0.0803086
-0.0802426
-0.0801761
-0.080109
-0.0800415
-0.0799736
-0.0799052
-0.0798363
-0.079767
-0.0796973
-0.0796271
-0.0795566
-0.0794856
-0.0794142
-0.0793425
-0.0792704
-0.0791979
-0.079125
-0.0790518
-0.0789783
-0.0789044
-0.0788302
-0.0787557
-0.0786809
-0.0786058
-0.0785304
-0.0784548
-0.0783789
-0.0783027
-0.0782263
-0.0781496
-0.0780727
-0.0779956
-0.0779183
-0.0778407
-0.077763
-0.0776851
-0.077607
-0.0775288
-0.0774504
-0.0773719
-0.0772932
-0.0772145
-0.0771355
-0.0770566
-0.0769774
-0.0768984
-0.0768189
-0.0767398
-0.0766602
-0.0765811
-0.0765012
-0.0764223
-0.0763422
-0.0762634
-0.0761831
-0.0761047
-0.076024
-0.0759463
-0.0758649
-0.0757886
-0.0757055
-0.075632
-0.0755462
-0.0754766
-0.0753883
-0.0753215
-0.0752344
-0.0751671
-0.0750899
-0.0750294
-0.0750294
-0.0750294
1
0.506975
0.291754
0.213968
0.178822
0.158464
0.144923
0.135189
0.127816
0.122009
0.117292
0.113364
0.110025
0.107139
0.104611
0.102371
0.100367
0.0985592
0.096917
0.0954166
0.0940393
0.0927704
0.091598
0.0905121
0.0895037
0.0885641
0.0876849
0.086859
0.0860811
0.0853482
0.0846583
0.0840096
0.083399
0.0828223
0.0822756
0.081755
0.0812576
0.0807814
0.0803256
0.0798909
0.079479
0.0790914
0.0787274
0.0783836
0.0780547
0.0777358
0.0774258
0.0771276
0.0768473
0.0765906
0.0763598
0.0761526
0.0759637
0.0757878
0.0756226
0.0754697
0.0753335
0.075218
0.0751247
0.0750514
0.0749933
0.0749451
0.0749032
0.0748668
0.0748375
0.0748181
0.0748104
0.0748143
0.0748279
0.0748477
0.0748703
0.0748934
0.0749164
0.0749403
0.0749671
0.0749992
0.0750384
0.0750856
0.0751409
0.0752032
0.0752712
0.0753432
0.0754179
0.0754942
0.0755713
0.0756488
0.0757264
0.0758042
0.0758822
0.0759604
0.0760387
0.0761172
0.0761957
0.0762744
0.0763529
0.0764314
0.0765097
0.0765879
0.0766659
0.0767437
0.0768213
0.0768987
0.0769758
0.0770528
0.0771295
0.0772061
0.0772824
0.0773585
0.0774344
0.0775101
0.0775855
0.0776607
0.0777357
0.0778104
0.0778849
0.0779591
0.0780331
0.0781068
0.0781803
0.0782534
0.0783263
0.0783989
0.0784713
0.0785433
0.078615
0.0786865
0.0787576
0.0788284
0.0788989
0.0789691
0.0790389
0.0791085
0.0791776
0.0792465
0.079315
0.0793831
0.0794509
0.0795183
0.0795853
0.079652
0.0797182
0.0797841
0.0798496
0.0799147
0.0799794
0.0800437
0.0801075
0.080171
0.080234
0.0802965
0.0803587
0.0804204
0.0804816
0.0805424
0.0806027
0.0806625
0.0807218
0.0807807
0.0808391
0.080897
0.0809544
0.0810113
0.0810676
0.0811235
0.0811788
0.0812336
0.0812879
0.0813416
0.0813947
0.0814473
0.0814994
0.0815508
0.0816017
0.0816521
0.0817018
0.0817509
0.0817995
0.0818474
0.0818948
0.0819415
0.0819876
0.082033
0.0820779
0.0821221
0.0821656
0.0822085
0.0822508
0.0822923
0.0823333
0.0823735
0.0824131
0.0824519
0.0824901
0.0825276
0.0825644
0.0826005
0.0826359
0.0826706
0.0827045
0.0827377
0.0827702
0.0828019
0.082833
0.0828632
0.0828927
0.0829215
0.0829495
0.0829767
0.0830032
0.0830289
0.0830538
0.0830779
0.0831013
0.0831238
0.0831456
0.0831666
0.0831867
0.0832061
0.0832246
0.0832424
0.0832593
0.0832754
0.0832907
0.0833052
0.0833188
0.0833316
0.0833435
0.0833547
0.083365
0.0833744
0.083383
0.0833908
0.0833977
0.0834038
0.083409
0.0834133
0.0834168
0.0834195
0.0834212
0.0834222
0.0834222
0.0834214
0.0834197
0.0834172
0.0834138
0.0834096
0.0834044
0.0833984
0.0833916
0.0833838
0.0833752
0.0833658
0.0833554
0.0833442
0.0833322
0.0833193
0.0833055
0.0832908
0.0832753
0.0832589
0.0832417
0.0832236
0.0832046
0.0831848
0.0831641
0.0831426
0.0831202
0.083097
0.083073
0.0830481
0.0830223
0.0829957
0.0829683
0.0829401
0.082911
0.0828811
0.0828504
0.0828188
0.0827865
0.0827533
0.0827193
0.0826845
0.082649
0.0826126
0.0825754
0.0825375
0.0824987
0.0824592
0.082419
0.0823779
0.0823361
0.0822935
0.0822502
0.0822061
0.0821613
0.0821158
0.0820695
0.0820225
0.0819748
0.0819264
0.0818772
0.0818274
0.0817769
0.0817256
0.0816738
0.0816212
0.0815679
0.081514
0.0814595
0.0814043
0.0813485
0.081292
0.0812349
0.0811772
0.0811189
0.0810599
0.0810004
0.0809403
0.0808796
0.0808184
0.0807565
0.0806942
0.0806312
0.0805678
0.0805038
0.0804392
0.0803742
0.0803086
0.0802426
0.0801761
0.080109
0.0800415
0.0799736
0.0799052
0.0798363
0.079767
0.0796973
0.0796271
0.0795566
0.0794856
0.0794142
0.0793425
0.0792704
0.0791979
0.079125
0.0790518
0.0789783
0.0789044
0.0788302
0.0787557
0.0786809
0.0786058
0.0785304
0.0784548
0.0783789
0.0783027
0.0782263
0.0781496
0.0780727
0.0779956
0.0779183
0.0778407
0.077763
0.0776851
0.077607
0.0775288
0.0774504
0.0773719
0.0772932
0.0772145
0.0771355
0.0770566
0.0769774
0.0768984
0.0768189
0.0767398
0.0766602
0.0765811
0.0765012
0.0764223
0.0763422
0.0762634
0.0761831
0.0761047
0.076024
0.0759463
0.0758649
0.0757886
0.0757055
0.075632
0.0755462
0.0754766
0.0753883
0.0753215
0.0752344
0.0751671
0.0750899
0.0750294
0.0750294
0.0750294
1
0.924087
0.735111
0.597119
0.511164
0.455818
0.417647
0.389742
0.368412
0.351529
0.337785
0.326334
0.316608
0.308212
0.300865
0.294362
0.28855
0.283312
0.278558
0.274219
0.27024
0.266575
0.263189
0.260049
0.257128
0.254402
0.251848
0.249447
0.247187
0.245057
0.243051
0.241159
0.239371
0.237677
0.236067
0.234533
0.233068
0.231668
0.230332
0.229059
0.227852
0.22671
0.225629
0.2246
0.223612
0.22266
0.221745
0.220874
0.220061
0.219313
0.218632
0.21801
0.217438
0.216907
0.216415
0.215968
0.215572
0.215232
0.214945
0.214705
0.214499
0.214318
0.214157
0.214015
0.213895
0.213802
0.213737
0.213698
0.21368
0.213675
0.213678
0.213686
0.213699
0.213721
0.213756
0.213807
0.213878
0.213968
0.214077
0.2142
0.214334
0.214476
0.214623
0.214772
0.214923
0.215074
0.215226
0.215378
0.21553
0.215683
0.215835
0.215988
0.216141
0.216293
0.216445
0.216597
0.216748
0.216899
0.217048
0.217198
0.217346
0.217494
0.217641
0.217787
0.217933
0.218078
0.218223
0.218366
0.218509
0.218651
0.218793
0.218934
0.219074
0.219213
0.219352
0.219489
0.219626
0.219762
0.219898
0.220032
0.220166
0.220299
0.220431
0.220562
0.220692
0.220822
0.22095
0.221078
0.221205
0.22133
0.221455
0.221579
0.221702
0.221825
0.221946
0.222066
0.222185
0.222303
0.222421
0.222537
0.222652
0.222766
0.22288
0.222992
0.223103
0.223213
0.223322
0.22343
0.223537
0.223642
0.223747
0.22385
0.223953
0.224054
0.224154
0.224253
0.224351
0.224448
0.224543
0.224638
0.224731
0.224823
0.224913
0.225003
0.225091
0.225178
0.225264
0.225349
0.225432
0.225514
0.225595
0.225674
0.225753
0.22583
0.225905
0.22598
0.226053
0.226124
0.226195
0.226264
0.226332
0.226398
0.226463
0.226527
0.226589
0.22665
0.22671
0.226768
0.226825
0.226881
0.226935
0.226987
0.227039
0.227089
0.227137
0.227184
0.22723
0.227274
0.227317
0.227358
0.227398
0.227437
0.227474
0.22751
0.227544
0.227577
0.227608
0.227638
0.227666
0.227693
0.227719
0.227743
0.227765
0.227786
0.227806
0.227824
0.227841
0.227856
0.22787
0.227882
0.227893
0.227903
0.227911
0.227917
0.227922
0.227926
0.227928
0.227929
0.227928
0.227926
0.227922
0.227917
0.22791
0.227902
0.227893
0.227882
0.22787
0.227856
0.227841
0.227824
0.227806
0.227787
0.227766
0.227744
0.22772
0.227695
0.227669
0.227641
0.227612
0.227581
0.22755
0.227516
0.227482
0.227446
0.227409
0.22737
0.22733
0.227289
0.227246
0.227203
0.227158
0.227111
0.227064
0.227015
0.226964
0.226913
0.22686
0.226807
0.226751
0.226695
0.226638
0.226579
0.226519
0.226458
0.226396
0.226332
0.226268
0.226202
0.226135
0.226068
0.225999
0.225929
0.225857
0.225785
0.225712
0.225638
0.225563
0.225486
0.225409
0.225331
0.225251
0.225171
0.22509
0.225008
0.224925
0.224841
0.224756
0.22467
0.224583
0.224496
0.224407
0.224318
0.224228
0.224137
0.224046
0.223953
0.22386
0.223766
0.223671
0.223576
0.22348
0.223383
0.223285
0.223187
0.223088
0.222988
0.222888
0.222787
0.222686
0.222584
0.222481
0.222378
0.222274
0.22217
0.222065
0.22196
0.221854
0.221748
0.221641
0.221533
0.221426
0.221318
0.221209
0.2211
0.220991
0.220881
0.220771
0.22066
0.22055
0.220438
0.220327
0.220215
0.220103
0.219991
0.219878
0.219765
0.219652
0.219539
0.219426
0.219312
0.219198
0.219084
0.21897
0.218855
0.218741
0.218626
0.218512
0.218397
0.218282
0.218167
0.218052
0.217937
0.217822
0.217707
0.217591
0.217476
0.217361
0.217246
0.217131
0.217016
0.216901
0.216786
0.216671
0.216556
0.216441
0.216327
0.216212
0.216099
0.215984
0.215871
0.215756
0.215644
0.215529
0.215418
0.215303
0.215194
0.215077
0.214972
0.214852
0.214752
0.214627
0.214536
0.214405
0.21432
0.214191
0.214105
0.213991
0.213903
0.213903
0.213903
1
1.07947
0.996658
0.883089
0.788017
0.716151
0.662232
0.620973
0.588586
0.562525
0.541084
0.523098
0.507753
0.494469
0.482823
0.4725
0.463264
0.454933
0.447368
0.440461
0.434124
0.428286
0.422888
0.417878
0.413211
0.408849
0.404757
0.400909
0.397285
0.393867
0.390642
0.387595
0.384708
0.381968
0.37936
0.376873
0.374499
0.372232
0.370069
0.368009
0.366051
0.364192
0.362425
0.360737
0.359117
0.35756
0.356069
0.354655
0.353333
0.35211
0.350986
0.349952
0.348997
0.348112
0.347298
0.346559
0.345901
0.345327
0.344831
0.344401
0.344021
0.34368
0.343372
0.343095
0.342855
0.342654
0.342492
0.342365
0.342267
0.342188
0.342123
0.342071
0.342033
0.342013
0.342017
0.342047
0.342107
0.342195
0.342306
0.342438
0.342583
0.342739
0.3429
0.343064
0.34323
0.343397
0.343564
0.343731
0.343899
0.344067
0.344236
0.344405
0.344573
0.344741
0.344909
0.345076
0.345242
0.345407
0.345572
0.345735
0.345898
0.346059
0.34622
0.34638
0.346539
0.346697
0.346854
0.34701
0.347165
0.347319
0.347472
0.347625
0.347776
0.347926
0.348075
0.348223
0.348371
0.348517
0.348662
0.348806
0.348949
0.34909
0.349231
0.349371
0.349509
0.349646
0.349782
0.349918
0.350051
0.350184
0.350316
0.350446
0.350575
0.350703
0.35083
0.350955
0.35108
0.351203
0.351324
0.351445
0.351564
0.351682
0.351799
0.351914
0.352028
0.352141
0.352253
0.352363
0.352472
0.352579
0.352685
0.35279
0.352893
0.352995
0.353096
0.353195
0.353293
0.353389
0.353484
0.353578
0.35367
0.353761
0.35385
0.353938
0.354024
0.354109
0.354192
0.354274
0.354355
0.354434
0.354511
0.354587
0.354662
0.354735
0.354806
0.354876
0.354945
0.355012
0.355077
0.355141
0.355203
0.355264
0.355323
0.355381
0.355437
0.355492
0.355545
0.355596
0.355646
0.355695
0.355742
0.355787
0.355831
0.355873
0.355913
0.355952
0.35599
0.356025
0.35606
0.356092
0.356123
0.356153
0.356181
0.356207
0.356232
0.356255
0.356277
0.356297
0.356315
0.356332
0.356348
0.356361
0.356374
0.356384
0.356393
0.356401
0.356407
0.356412
0.356414
0.356416
0.356416
0.356414
0.356411
0.356406
0.3564
0.356392
0.356383
0.356372
0.35636
0.356346
0.356331
0.356314
0.356296
0.356276
0.356255
0.356233
0.356209
0.356183
0.356157
0.356128
0.356099
0.356068
0.356035
0.356001
0.355966
0.355929
0.355891
0.355852
0.355811
0.355769
0.355726
0.355682
0.355636
0.355589
0.35554
0.35549
0.355439
0.355387
0.355334
0.355279
0.355223
0.355166
0.355108
0.355048
0.354988
0.354926
0.354863
0.354799
0.354734
0.354668
0.354601
0.354532
0.354463
0.354392
0.354321
0.354248
0.354175
0.3541
0.354025
0.353948
0.353871
0.353793
0.353713
0.353633
0.353552
0.35347
0.353387
0.353304
0.353219
0.353134
0.353048
0.352961
0.352873
0.352785
0.352696
0.352606
0.352515
0.352424
0.352332
0.352239
0.352146
0.352052
0.351957
0.351862
0.351766
0.35167
0.351573
0.351475
0.351377
0.351279
0.35118
0.35108
0.35098
0.350879
0.350778
0.350677
0.350575
0.350473
0.35037
0.350267
0.350164
0.35006
0.349956
0.349852
0.349747
0.349642
0.349537
0.349431
0.349325
0.349219
0.349113
0.349007
0.3489
0.348793
0.348686
0.348579
0.348472
0.348364
0.348257
0.348149
0.348041
0.347934
0.347826
0.347718
0.34761
0.347502
0.347394
0.347286
0.347178
0.347069
0.346961
0.346853
0.346745
0.346638
0.34653
0.346422
0.346314
0.346207
0.346099
0.345992
0.345885
0.345778
0.345671
0.345564
0.345458
0.345351
0.345245
0.345139
0.345033
0.344928
0.344822
0.344718
0.344612
0.344508
0.344403
0.3443
0.344196
0.344093
0.343989
0.343888
0.343783
0.343684
0.343579
0.343481
0.343377
0.343281
0.343175
0.343084
0.342974
0.342892
0.342774
0.342703
0.342579
0.342514
0.342393
0.342328
0.342217
0.342156
0.342156
0.342156
1
1.11155
1.11395
1.05495
0.983592
0.918124
0.862791
0.817124
0.779469
0.748153
0.721792
0.699319
0.679922
0.662988
0.648048
0.634741
0.622786
0.611968
0.602117
0.593103
0.584819
0.577176
0.570099
0.563522
0.557385
0.551639
0.546241
0.541158
0.536364
0.531839
0.527563
0.523515
0.519673
0.516019
0.512535
0.50921
0.506035
0.503003
0.50011
0.497353
0.49473
0.492233
0.489852
0.487573
0.485387
0.483286
0.481278
0.479374
0.477589
0.475928
0.474392
0.472971
0.471653
0.470432
0.469309
0.468289
0.467376
0.46657
0.465862
0.465237
0.464676
0.464166
0.463701
0.46328
0.462905
0.462579
0.4623
0.462063
0.461859
0.461681
0.461524
0.461386
0.461272
0.461186
0.461134
0.461119
0.461141
0.461198
0.461284
0.461394
0.461519
0.461656
0.461799
0.461945
0.462093
0.462243
0.462393
0.462543
0.462695
0.462847
0.462999
0.463152
0.463304
0.463456
0.463608
0.463759
0.463909
0.464058
0.464207
0.464354
0.4645
0.464646
0.46479
0.464934
0.465077
0.465218
0.465359
0.465499
0.465638
0.465775
0.465912
0.466048
0.466183
0.466317
0.466449
0.466581
0.466712
0.466841
0.46697
0.467097
0.467223
0.467349
0.467473
0.467596
0.467718
0.467838
0.467958
0.468076
0.468193
0.468309
0.468424
0.468538
0.46865
0.468762
0.468872
0.468981
0.469088
0.469194
0.4693
0.469403
0.469506
0.469607
0.469707
0.469806
0.469903
0.47
0.470094
0.470188
0.47028
0.470371
0.47046
0.470548
0.470635
0.470721
0.470805
0.470887
0.470969
0.471049
0.471127
0.471204
0.47128
0.471355
0.471428
0.471499
0.471569
0.471638
0.471705
0.471771
0.471835
0.471898
0.47196
0.47202
0.472079
0.472136
0.472191
0.472246
0.472298
0.47235
0.4724
0.472448
0.472495
0.47254
0.472584
0.472627
0.472667
0.472707
0.472745
0.472781
0.472817
0.47285
0.472882
0.472913
0.472942
0.472969
0.472995
0.47302
0.473043
0.473065
0.473085
0.473104
0.473121
0.473137
0.473151
0.473164
0.473175
0.473185
0.473193
0.4732
0.473206
0.47321
0.473212
0.473213
0.473213
0.473211
0.473208
0.473203
0.473197
0.47319
0.473181
0.47317
0.473159
0.473145
0.473131
0.473115
0.473098
0.473079
0.473059
0.473038
0.473015
0.472991
0.472965
0.472938
0.47291
0.472881
0.47285
0.472818
0.472785
0.47275
0.472715
0.472678
0.472639
0.4726
0.472559
0.472517
0.472474
0.472429
0.472384
0.472337
0.472289
0.47224
0.472189
0.472138
0.472085
0.472032
0.471977
0.471921
0.471864
0.471806
0.471747
0.471687
0.471626
0.471564
0.471501
0.471437
0.471372
0.471306
0.471239
0.471171
0.471102
0.471032
0.470962
0.47089
0.470818
0.470745
0.470671
0.470596
0.47052
0.470444
0.470366
0.470288
0.47021
0.47013
0.47005
0.469969
0.469887
0.469805
0.469722
0.469638
0.469554
0.469469
0.469383
0.469297
0.469211
0.469123
0.469035
0.468947
0.468858
0.468769
0.468679
0.468589
0.468498
0.468407
0.468315
0.468223
0.46813
0.468037
0.467944
0.467851
0.467757
0.467662
0.467568
0.467473
0.467377
0.467282
0.467186
0.46709
0.466994
0.466897
0.466801
0.466704
0.466607
0.46651
0.466412
0.466315
0.466217
0.466119
0.466021
0.465923
0.465825
0.465727
0.465629
0.465531
0.465433
0.465334
0.465236
0.465138
0.46504
0.464942
0.464843
0.464745
0.464647
0.464549
0.464451
0.464354
0.464256
0.464158
0.464061
0.463964
0.463866
0.463769
0.463673
0.463576
0.463479
0.463383
0.463287
0.463191
0.463095
0.463
0.462905
0.46281
0.462715
0.462621
0.462526
0.462433
0.462339
0.462246
0.462153
0.46206
0.461967
0.461875
0.461783
0.461692
0.461601
0.461511
0.46142
0.461331
0.46124
0.461152
0.461062
0.460975
0.460885
0.4608
0.46071
0.460627
0.460537
0.460457
0.460364
0.460291
0.460193
0.460129
0.460023
0.45997
0.459859
0.459813
0.459704
0.459661
0.459552
0.459533
0.459533
0.459533
1
1.09571
1.14325
1.1334
1.09688
1.05235
1.0083
0.967992
0.932297
0.901058
0.873767
0.849847
0.828768
0.81007
0.79337
0.77835
0.764748
0.752355
0.741005
0.730568
0.720939
0.712027
0.703754
0.696047
0.68884
0.682075
0.675705
0.669692
0.66401
0.658638
0.653553
0.648731
0.644146
0.639773
0.635597
0.631604
0.627786
0.624138
0.620656
0.617336
0.614174
0.61116
0.608281
0.605522
0.602869
0.60032
0.597881
0.595567
0.593392
0.591361
0.58947
0.587709
0.586069
0.584544
0.583138
0.581857
0.580708
0.579686
0.57878
0.57797
0.577237
0.576566
0.57595
0.575388
0.574881
0.574432
0.574035
0.573684
0.57337
0.573085
0.572824
0.57259
0.572387
0.572222
0.5721
0.572025
0.571996
0.572008
0.572054
0.572127
0.572218
0.572322
0.572432
0.572546
0.572662
0.572779
0.572897
0.573016
0.573136
0.573256
0.573378
0.5735
0.573621
0.573743
0.573864
0.573985
0.574105
0.574224
0.574342
0.57446
0.574576
0.574692
0.574806
0.57492
0.575033
0.575145
0.575256
0.575367
0.575476
0.575585
0.575692
0.575799
0.575904
0.576009
0.576113
0.576216
0.576318