# vtk DataFile Version 2.0
FlowField
ASCII
DATASET STRUCTURED_GRID
DIMENSIONS 400 1 50
POINTS 20000 float
0 0 0
0.08 0 0
0.16 0 0
0.24 0 0
0.32 0 0
0.4 0 0
0.48 0 0
0.56 0 0
0.64 0 0
0.72 0 0
0.8 0 0
0.88 0 0
0.96 0 0
1.04 0 0
1.12 0 0
1.2 0 0
1.28 0 0
1.36 0 0
1.44 0 0
1.52 0 0
1.6 0 0
1.68 0 0
1.76 0 0
1.84 0 0
1.92 0 0
2 0 0
2.08 0 0
2.16 0 0
2.24 0 0
2.32 0 0
2.4 0 0
2.48 0 0
2.56 0 0
2.64 0 0
2.72 0 0
2.8 0 0
2.88 0 0
2.96 0 0
3.04 0 0
3.12 0 0
3.2 0 0
3.28 0 0
3.36 0 0
3.44 0 0
3.52 0 0
3.6 0 0
3.68 0 0
3.76 0 0
3.84 0 0
3.92 0 0
4 0 0
4.08 0 0
4.16 0 0
4.24 0 0
4.32 0 0
4.4 0 0
4.48 0 0
4.56 0 0
4.64 0 0
4.72 0 0
4.8 0 0
4.88 0 0
4.96 0 0
5.04 0 0
5.12 0 0
5.2 0 0
5.28 0 0
5.36 0 0
5.44 0 0
5.52 0 0
5.6 0 0
5.68 0 0
5.76 0 0
5.84 0 0
5.92 0 0
6 0 0
6.08 0 0
6.16 0 0
6.24 0 0
6.32 0 0
6.4 0 0
6.48 0 0
6.56 0 0
6.64 0 0
6.72 0 0
6.8 0 0
6.88 0 0
6.96 0 0
7.04 0 0
7.12 0 0
7.2 0 0
7.28 0 0
7.36 0 0
7.44 0 0
7.52 0 0
7.6 0 0
7.68 0 0
7.76 0 0
7.84 0 0
7.92 0 0
8 0 0
8.08 0 0
8.16 0 0
8.24 0 0
8.32 0 0
8.4 0 0
8.48 0 0
8.56 0 0
8.64 0 0
8.72 0 0
8.8 0 0
8.88 0 0
8.96 0 0
9.04 0 0
9.12 0 0
9.2 0 0
9.28 0 0
9.36 0 0
9.44 0 0
9.52 0 0
9.6 0 0
9.68 0 0
9.76 0 0
9.84 0 0
9.92 0 0
10 0 0
10.08 0 0
10.16 0 0
10.24 0 0
10.32 0 0
10.4 0 0
10.48 0 0
10.56 0 0
10.64 0 0
10.72 0 0
10.8 0 0
10.88 0 0
10.96 0 0
11.04 0 0
11.12 0 0
11.2 0 0
11.28 0 0
11.36 0 0
11.44 0 0
11.52 0 0
11.6 0 0
11.68 0 0
11.76 0 0
11.84 0 0
11.92 0 0
12 0 0
12.08 0 0
12.16 0 0
12.24 0 0
12.32 0 0
12.4 0 0
12.48 0 0
12.56 0 0
12.64 0 0
12.72 0 0
12.8 0 0
12.88 0 0
12.96 0 0
13.04 0 0
13.12 0 0
13.2 0 0
13.28 0 0
13.36 0 0
13.44 0 0
13.52 0 0
13.6 0 0
13.68 0 0
13.76 0 0
13.84 0 0
13.92 0 0
14 0 0
14.08 0 0
14.16 0 0
14.24 0 0
14.32 0 0
14.4 0 0
14.48 0 0
14.56 0 0
14.64 0 0
14.72 0 0
14.8 0 0
14.88 0 0
14.96 0 0
15.04 0 0
15.12 0 0
15.2 0 0
15.28 0 0
15.36 0 0
15.44 0 0
15.52 0 0
15.6 0 0
15.68 0 0
15.76 0 0
15.84 0 0
15.92 0 0
16 0 0
16.08 0 0
16.16 0 0
16.24 0 0
16.32 0 0
16.4 0 0
16.48 0 0
16.56 0 0
16.64 0 0
16.72 0 0
16.8 0 0
16.88 0 0
16.96 0 0
17.04 0 0
17.12 0 0
17.2 0 0
17.28 0 0
17.36 0 0
17.44 0 0
17.52 0 0
17.6 0 0
17.68 0 0
17.76 0 0
17.84 0 0
17.92 0 0
18 0 0
18.08 0 0
18.16 0 0
18.24 0 0
18.32 0 0
18.4 0 0
18.48 0 0
18.56 0 0
18.64 0 0
18.72 0 0
18.8 0 0
18.88 0 0
18.96 0 0
19.04 0 0
19.12 0 0
19.2 0 0
19.28 0 0
19.36 0 0
19.44 0 0
19.52 0 0
19.6 0 0
19.68 0 0
19.76 0 0
19.84 0 0
19.92 0 0
20 0 0
20.08 0 0
20.16 0 0
20.24 0 0
20.32 0 0
20.4 0 0
20.48 0 0
20.56 0 0
20.64 0 0
20.72 0 0
20.8 0 0
20.88 0 0
20.96 0 0
21.04 0 0
21.12 0 0
21.2 0 0
21.28 0 0
21.36 0 0
21.44 0 0
21.52 0 0
21.6 0 0
21.68 0 0
21.76 0 0
21.84 0 0
21.92 0 0
22 0 0
22.08 0 0
22.16 0 0
22.24 0 0
22.32 0 0
22.4 0 0
22.48 0 0
22.56 0 0
22.64 0 0
22.72 0 0
22.8 0 0
22.88 0 0
22.96 0 0
23.04 0 0
23.12 0 0
23.2 0 0
23.28 0 0
23.36 0 0
23.44 0 0
23.52 0 0
23.6 0 0
23.68 0 0
23.76 0 0
23.84 0 0
23.92 0 0
24 0 0
24.08 0 0
24.16 0 0
24.24 0 0
24.32 0 0
24.4 0 0
24.48 0 0
24.56 0 0
24.64 0 0
24.72 0 0
24.8 0 0
24.88 0 0
24.96 0 0
25.04 0 0
25.12 0 0
25.2 0 0
25.28 0 0
25.36 0 0
25.44 0 0
25.52 0 0
25.6 0 0
25.68 0 0
25.76 0 0
25.84 0 0
25.92 0 0
26 0 0
26.08 0 0
26.16 0 0
26.24 0 0
26.32 0 0
26.4 0 0
26.48 0 0
26.56 0 0
26.64 0 0
26.72 0 0
26.8 0 0
26.88 0 0
26.96 0 0
27.04 0 0
27.12 0 0
27.2 0 0
27.28 0 0
27.36 0 0
27.44 0 0
27.52 0 0
27.6 0 0
27.68 0 0
27.76 0 0
27.84 0 0
27.92 0 0
28 0 0
28.08 0 0
28.16 0 0
28.24 0 0
28.32 0 0
28.4 0 0
28.48 0 0
28.56 0 0
28.64 0 0
28.72 0 0
28.8 0 0
28.88 0 0
28.96 0 0
29.04 0 0
29.12 0 0
29.2 0 0
29.28 0 0
29.36 0 0
29.44 0 0
29.52 0 0
29.6 0 0
29.68 0 0
29.76 0 0
29.84 0 0
29.92 0 0
30 0 0
30.08 0 0
30.16 0 0
30.24 0 0
30.32 0 0
30.4 0 0
30.48 0 0
30.56 0 0
30.64 0 0
30.72 0 0
30.8 0 0
30.88 0 0
30.96 0 0
31.04 0 0
31.12 0 0
31.2 0 0
31.28 0 0
31.36 0 0
31.44 0 0
31.52 0 0
31.6 0 0
31.68 0 0
31.76 0 0
31.84 0 0
31.92 0 0
0 0.02 0
0.08 0.02 0
0.16 0.02 0
0.24 0.02 0
0.32 0.02 0
0.4 0.02 0
0.48 0.02 0
0.56 0.02 0
0.64 0.02 0
0.72 0.02 0
0.8 0.02 0
0.88 0.02 0
0.96 0.02 0
1.04 0.02 0
1.12 0.02 0
1.2 0.02 0
1.28 0.02 0
1.36 0.02 0
1.44 0.02 0
1.52 0.02 0
1.6 0.02 0
1.68 0.02 0
1.76 0.02 0
1.84 0.02 0
1.92 0.02 0
2 0.02 0
2.08 0.02 0
2.16 0.02 0
2.24 0.02 0
2.32 0.02 0
2.4 0.02 0
2.48 0.02 0
2.56 0.02 0
2.64 0.02 0
2.72 0.02 0
2.8 0.02 0
2.88 0.02 0
2.96 0.02 0
3.04 0.02 0
3.12 0.02 0
3.2 0.02 0
3.28 0.02 0
3.36 0.02 0
3.44 0.02 0
3.52 0.02 0
3.6 0.02 0
3.68 0.02 0
3.76 0.02 0
3.84 0.02 0
3.92 0.02 0
4 0.02 0
4.08 0.02 0
4.16 0.02 0
4.24 0.02 0
4.32 0.02 0
4.4 0.02 0
4.48 0.02 0
4.56 0.02 0
4.64 0.02 0
4.72 0.02 0
4.8 0.02 0
4.88 0.02 0
4.96 0.02 0
5.04 0.02 0
5.12 0.02 0
5.2 0.02 0
5.28 0.02 0
5.36 0.02 0
5.44 0.02 0
5.52 0.02 0
5.6 0.02 0
5.68 0.02 0
5.76 0.02 0
5.84 0.02 0
5.92 0.02 0
6 0.02 0
6.08 0.02 0
6.16 0.02 0
6.24 0.02 0
6.32 0.02 0
6.4 0.02 0
6.48 0.02 0
6.56 0.02 0
6.64 0.02 0
6.72 0.02 0
6.8 0.02 0
6.88 0.02 0
6.96 0.02 0
7.04 0.02 0
7.12 0.02 0
7.2 0.02 0
7.28 0.02 0
7.36 0.02 0
7.44 0.02 0
7.52 0.02 0
7.6 0.02 0
7.68 0.02 0
7.76 0.02 0
7.84 0.02 0
7.92 0.02 0
8 0.02 0
8.08 0.02 0
8.16 0.02 0
8.24 0.02 0
8.32 0.02 0
8.4 0.02 0
8.48 0.02 0
8.56 0.02 0
8.64 0.02 0
8.72 0.02 0
8.8 0.02 0
8.88 0.02 0
8.96 0.02 0
9.04 0.02 0
9.12 0.02 0
9.2 0.02 0
9.28 0.02 0
9.36 0.02 0
9.44 0.02 0
9.52 0.02 0
9.6 0.02 0
9.68 0.02 0
9.76 0.02 0
9.84 0.02 0
9.92 0.02 0
10 0.02 0
10.08 0.02 0
10.16 0.02 0
10.24 0.02 0
10.32 0.02 0
10.4 0.02 0
10.48 0.02 0
10.56 0.02 0
10.64 0.02 0
10.72 0.02 0
10.8 0.02 0
10.88 0.02 0
10.96 0.02 0
11.04 0.02 0
11.12 0.02 0
11.2 0.02 0
11.28 0.02 0
11.36 0.02 0
11.44 0.02 0
11.52 0.02 0
11.6 0.02 0
11.68 0.02 0
11.76 0.02 0
11.84 0.02 0
11.92 0.02 0
12 0.02 0
12.08 0.02 0
12.16 0.02 0
12.24 0.02 0
12.32 0.02 0
12.4 0.02 0
12.48 0.02 0
12.56 0.02 0
12.64 0.02 0
12.72 0.02 0
12.8 0.02 0
12.88 0.02 0
12.96 0.02 0
13.04 0.02 0
13.12 0.02 0
13.2 0.02 0
13.28 0.02 0
13.36 0.02 0
13.44 0.02 0
13.52 0.02 0
13.6 0.02 0
13.68 0.02 0
13.76 0.02 0
13.84 0.02 0
13.92 0.02 0
14 0.02 0
14.08 0.02 0
14.16 0.02 0
14.24 0.02 0
14.32 0.02 0
14.4 0.02 0
14.48 0.02 0
14.56 0.02 0
14.64 0.02 0
14.72 0.02 0
14.8 0.02 0
14.88 0.02 0
14.96 0.02 0
15.04 0.02 0
15.12 0.02 0
15.2 0.02 0
15.28 0.02 0
15.36 0.02 0
15.44 0.02 0
15.52 0.02 0
15.6 0.02 0
15.68 0.02 0
15.76 0.02 0
15.84 0.02 0
15.92 0.02 0
16 0.02 0
16.08 0.02 0
16.16 0.02 0
16.24 0.02 0
16.32 0.02 0
16.4 0.02 0
16.48 0.02 0
16.56 0.02 0
16.64 0.02 0
16.72 0.02 0
16.8 0.02 0
16.88 0.02 0
16.96 0.02 0
17.04 0.02 0
17.12 0.02 0
17.2 0.02 0
17.28 0.02 0
17.36 0.02 0
17.44 0.02 0
17.52 0.02 0
17.6 0.02 0
17.68 0.02 0
17.76 0.02 0
17.84 0.02 0
17.92 0.02 0
18 0.02 0
18.08 0.02 0
18.16 0.02 0
18.24 0.02 0
18.32 0.02 0
18.4 0.02 0
18.48 0.02 0
18.56 0.02 0
18.64 0.02 0
18.72 0.02 0
18.8 0.02 0
18.88 0.02 0
18.96 0.02 0
19.04 0.02 0
19.12 0.02 0
19.2 0.02 0
19.28 0.02 0
19.36 0.02 0
19.44 0.02 0
19.52 0.02 0
19.6 0.02 0
19.68 0.02 0
19.76 0.02 0
19.84 0.02 0
19.92 0.02 0
20 0.02 0
20.08 0.02 0
20.16 0.02 0
20.24 0.02 0
20.32 0.02 0
20.4 0.02 0
20.48 0.02 0
20.56 0.02 0
20.64 0.02 0
20.72 0.02 0
20.8 0.02 0
20.88 0.02 0
20.96 0.02 0
21.04 0.02 0
21.12 0.02 0
21.2 0.02 0
21.28 0.02 0
21.36 0.02 0
21.44 0.02 0
21.52 0.02 0
21.6 0.02 0
21.68 0.02 0
21.76 0.02 0
21.84 0.02 0
21.92 0.02 0
22 0.02 0
22.08 0.02 0
22.16 0.02 0
22.24 0.02 0
22.32 0.02 0
22.4 0.02 0
22.48 0.02 0
22.56 0.02 0
22.64 0.02 0
22.72 0.02 0
22.8 0.02 0
22.88 0.02 0
22.96 0.02 0
23.04 0.02 0
23.12 0.02 0
23.2 0.02 0
23.28 0.02 0
23.36 0.02 0
23.44 0.02 0
23.52 0.02 0
23.6 0.02 0
23.68 0.02 0
23.76 0.02 0
23.84 0.02 0
23.92 0.02 0
24 0.02 0
24.08 0.02 0
24.16 0.02 0
24.24 0.02 0
24.32 0.02 0
24.4 0.02 0
24.48 0.02 0
24.56 0.02 0
24.64 0.02 0
24.72 0.02 0
24.8 0.02 0
24.88 0.02 0
24.96 0.02 0
25.04 0.02 0
25.12 0.02 0
25.2 0.02 0
25.28 0.02 0
25.36 0.02 0
25.44 0.02 0
25.52 0.02 0
25.6 0.02 0
25.68 0.02 0
25.76 0.02 0
25.84 0.02 0
25.92 0.02 0
26 0.02 0
26.08 0.02 0
26.16 0.02 0
26.24 0.02 0
26.32 0.02 0
26.4 0.02 0
26.48 0.02 0
26.56 0.02 0
26.64 0.02 0
26.72 0.02 0
26.8 0.02 0
26.88 0.02 0
26.96 0.02 0
27.04 0.02 0
27.12 0.02 0
27.2 0.02 0
27.28 0.02 0
27.36 0.02 0
27.44 0.02 0
27.52 0.02 0
27.6 0.02 0
27.68 0.02 0
27.76 0.02 0
27.84 0.02 0
27.92 0.02 0
28 0.02 0
28.08 0.02 0
28.16 0.02 0
28.24 0.02 0
28.32 0.02 0
28.4 0.02 0
28.48 0.02 0
28.56 0.02 0
28.64 0.02 0
28.72 0.02 0
28.8 0.02 0
28.88 0.02 0
28.96 0.02 0
29.04 0.02 0
29.12 0.02 0
29.2 0.02 0
29.28 0.02 0
29.36 0.02 0
29.44 0.02 0
29.52 0.02 0
29.6 0.02 0
29.68 0.02 0
29.76 0.02 0
29.84 0.02 0
29.92 0.02 0
30 0.02 0
30.08 0.02 0
30.16 0.02 0
30.24 0.02 0
30.32 0.02 0
30.4 0.02 0
30.48 0.02 0
30.56 0.02 0
30.64 0.02 0
30.72 0.02 0
30.8 0.02 0
30.88 0.02 0
30.96 0.02 0
31.04 0.02 0
31.12 0.02 0
31.2 0.02 0
31.28 0.02 0
31.36 0.02 0
31.44 0.02 0
31.52 0.02 0
31.6 0.02 0
31.68 0.02 0
31.76 0.02 0
31.84 0.02 0
31.92 0.02 0
0 0.04 0
0.08 0.04 0
0.16 0.04 0
0.24 0.04 0
0.32 0.04 0
0.4 0.04 0
0.48 0.04 0
0.56 0.04 0
0.64 0.04 0
0.72 0.04 0
0.8 0.04 0
0.88 0.04 0
0.96 0.04 0
1.04 0.04 0
1.12 0.04 0
1.2 0.04 0
1.28 0.04 0
1.36 0.04 0
1.44 0.04 0
1.52 0.04 0
1.6 0.04 0
1.68 0.04 0
1.76 0.04 0
1.84 0.04 0
1.92 0.04 0
2 0.04 0
2.08 0.04 0
2.16 0.04 0
2.24 0.04 0
2.32 0.04 0
2.4 0.04 0
2.48 0.04 0
2.56 0.04 0
2.64 0.04 0
2.72 0.04 0
2.8 0.04 0
2.88 0.04 0
2.96 0.04 0
3.04 0.04 0
3.12 0.04 0
3.2 0.04 0
3.28 0.04 0
3.36 0.04 0
3.44 0.04 0
3.52 0.04 0
3.6 0.04 0
3.68 0.04 0
3.76 0.04 0
3.84 0.04 0
3.92 0.04 0
4 0.04 0
4.08 0.04 0
4.16 0.04 0
4.24 0.04 0
4.32 0.04 0
4.4 0.04 0
4.48 0.04 0
4.56 0.04 0
4.64 0.04 0
4.72 0.04 0
4.8 0.04 0
4.88 0.04 0
4.96 0.04 0
5.04 0.04 0
5.12 0.04 0
5.2 0.04 0
5.28 0.04 0
5.36 0.04 0
5.44 0.04 0
5.52 0.04 0
5.6 0.04 0
5.68 0.04 0
5.76 0.04 0
5.84 0.04 0
5.92 0.04 0
6 0.04 0
6.08 0.04 0
6.16 0.04 0
6.24 0.04 0
6.32 0.04 0
6.4 0.04 0
6.48 0.04 0
6.56 0.04 0
6.64 0.04 0
6.72 0.04 0
6.8 0.04 0
6.88 0.04 0
6.96 0.04 0
7.04 0.04 0
7.12 0.04 0
7.2 0.04 0
7.28 0.04 0
7.36 0.04 0
7.44 0.04 0
7.52 0.04 0
7.6 0.04 0
7.68 0.04 0
7.76 0.04 0
7.84 0.04 0
[...]
POINT_DATA 20000

SCALARS u float 1
LOOKUP_TABLE default
0
-0.506549
-0.291044
-0.212995
-0.177591
-0.156975
-0.143177
-0.133191
-0.125571
-0.119521
-0.114564
-0.110397
-0.106821
-0.103699
-0.100936
-0.0984619
-0.0962249
-0.0941855
-0.0923127
-0.0905816
-0.088972
-0.0874682
-0.0860587
-0.0847352
-0.083491
-0.0823188
-0.0812104
-0.0801574
-0.0791528
-0.0781914
-0.0772703
-0.0763874
-0.0755418
-0.074733
-0.073961
-0.0732239
-0.0725176
-0.0718358
-0.0711726
-0.0705257
-0.0698975
-0.0692938
-0.0687204
-0.0681789
-0.0676658
-0.0671749
-0.0667009
-0.0662431
-0.065806
-0.0653964
-0.0650197
-0.0646765
-0.0643623
-0.0640695
-0.0637907
-0.0635215
-0.0632619
-0.0630146
-0.0627829
-0.0625685
-0.0623703
-0.0621846
-0.0620065
-0.0618319
-0.0616585
-0.0614863
-0.0613174
-0.0611548
-0.0610014
-0.0608592
-0.060729
-0.0606101
-0.0605011
-0.0604002
-0.0603053
-0.0602149
-0.0601276
-0.0600427
-0.0599599
-0.0598789
-0.0597998
-0.0597225
-0.0596472
-0.0595737
-0.0595021
-0.0594323
-0.0593642
-0.0592979
-0.0592332
-0.0591701
-0.0591085
-0.0590486
-0.0589902
-0.0589334
-0.0588781
-0.0588244
-0.0587723
-0.0587217
-0.0586727
-0.0586253
-0.0585794
-0.0585352
-0.0584924
-0.0584513
-0.0584117
-0.0583736
-0.0583372
-0.0583022
-0.0582688
-0.058237
-0.0582066
-0.0581778
-0.0581506
-0.0581248
-0.0581006
-0.0580778
-0.0580566
-0.0580369
-0.0580186
-0.0580018
-0.0579865
-0.0579726
-0.0579602
-0.0579493
-0.0579398
-0.0579317
-0.057925
-0.0579198
-0.0579159
-0.0579134
-0.0579124
-0.0579127
-0.0579143
-0.0579173
-0.0579217
-0.0579274
-0.0579344
-0.0579427
-0.0579523
-0.0579632
-0.0579754
-0.0579888
-0.0580035
-0.0580195
-0.0580367
-0.0580551
-0.0580747
-0.0580955
-0.0581175
-0.0581406
-0.058165
-0.0581904
-0.058217
-0.0582448
-0.0582736
-0.0583036
-0.0583346
-0.0583667
-0.0583999
-0.0584341
-0.0584693
-0.0585056
-0.0585429
-0.0585812
-0.0586205
-0.0586607
-0.0587019
-0.0587441
-0.0587872
-0.0588312
-0.0588761
-0.058922
-0.0589687
-0.0590163
-0.0590647
-0.059114
-0.0591642
-0.0592151
-0.0592669
-0.0593194
-0.0593728
-0.0594269
-0.0594818
-0.0595375
-0.0595938
-0.0596509
-0.0597088
-0.0597673
-0.0598265
-0.0598864
-0.0599469
-0.0600082
-0.06007
-0.0601325
-0.0601956
-0.0602593
-0.0603237
-0.0603886
-0.0604541
-0.0605201
-0.0605868
-0.0606539
-0.0607216
-0.0607898
-0.0608586
-0.0609278
-0.0609976
-0.0610678
-0.0611385
-0.0612096
-0.0612812
-0.0613533
-0.0614258
-0.0614987
-0.0615721
-0.0616458
-0.0617199
-0.0617945
-0.0618694
-0.0619447
-0.0620203
-0.0620964
-0.0621727
-0.0622494
-0.0623264
-0.0624038
-0.0624814
-0.0625594
-0.0626377
-0.0627163
-0.0627951
-0.0628742
-0.0629536
-0.0630333
-0.0631132
-0.0631934
-0.0632738
-0.0633544
-0.0634353
-0.0635164
-0.0635977
-0.0636792
-0.063761
-0.0638429
-0.063925
-0.0640073
-0.0640898
-0.0641725
-0.0642553
-0.0643383
-0.0644215
-0.0645048
-0.0645882
-0.0646718
-0.0647556
-0.0648395
-0.0649235
-0.0650076
-0.0650919
-0.0651763
-0.0652608
-0.0653454
-0.0654301
-0.0655149
-0.0655998
-0.0656848
-0.0657698
-0.065855
-0.0659403
-0.0660256
-0.066111
-0.0661965
-0.066282
-0.0663677
-0.0664533
-0.0665391
-0.0666249
-0.0667107
-0.0667966
-0.0668826
-0.0669686
-0.0670546
-0.0671407
-0.0672268
-0.067313
-0.0673992
-0.0674854
-0.0675717
-0.067658
-0.0677443
-0.0678306
-0.067917
-0.0680034
-0.0680898
-0.0681762
-0.0682627
-0.0683491
-0.0684356
-0.0685221
-0.0686086
-0.0686951
-0.0687816
-0.0688682
-0.0689547
-0.0690412
-0.0691278
-0.0692143
-0.0693009
-0.0693874
-0.069474
-0.0695605
-0.0696471
-0.0697336
-0.0698202
-0.0699067
-0.0699933
-0.0700798
-0.0701663
-0.0702529
-0.0703394
-0.0704259
-0.0705124
-0.0705989
-0.0706854
-0.0707719
-0.0708584
-0.0709449
-0.0710314
-0.0711178
-0.0712043
-0.0712908
-0.0713772
-0.0714637
-0.0715501
-0.0716365
-0.0717229
-0.0718093
-0.0718957
-0.0719821
-0.0720685
-0.0721549
-0.0722413
-0.0723277
-0.072414
-0.0725004
-0.0725867
-0.0726731
-0.0727594
-0.0728458
-0.0729321
-0.0730185
-0.0731048
-0.0731911
-0.0732774
-0.0733638
-0.0734501
-0.0735364
-0.0736227
-0.0737091
-0.0737954
-0.0738817
-0.073968
-0.0740543
-0.0741407
-0.074227
-0.0743133
-0.0743997
-0.074486
-0.0745724
-0.0746588
-0.0747451
-0.0748315
-0.0749178
-0.0750043
-0.0750906
-0.0751772
-0.0752635
-0.0753502
-0.0754364
-0.0755233
-0.0756093
-0.0756967
-0.0757822
-0.0758703
-0.0759552
-0.0760442
-0.0761285
-0.0762183
-0.076302
-0.0763929
-0.0764752
-0.0765693
-0.0766462
-0.0767501
-0.0768113
-0.0769341
-0.0769758
-0.0770596
-0.0770596
-0.0770596
1
0.506549
0.291044
0.212995
0.177591
0.156975
0.143177
0.133191
0.125571
0.119521
0.114564
0.110397
0.106821
0.103699
0.100936
0.0984619
0.0962249
0.0941855
0.0923127
0.0905816
0.088972
0.0874682
0.0860587
0.0847352
0.083491
0.0823188
0.0812104
0.0801574
0.0791528
0.0781914
0.0772703
0.0763874
0.0755418
0.074733
0.073961
0.0732239
0.0725176
0.0718358
0.0711726
0.0705257
0.0698975
0.0692938
0.0687204
0.0681789
0.0676658
0.0671749
0.0667009
0.0662431
0.065806
0.0653964
0.0650197
0.0646765
0.0643623
0.0640695
0.0637907
0.0635215
0.0632619
0.0630146
0.0627829
0.0625685
0.0623703
0.0621846
0.0620065
0.0618319
0.0616585
0.0614863
0.0613174
0.0611548
0.0610014
0.0608592
0.060729
0.0606101
0.0605011
0.0604002
0.0603053
0.0602149
0.0601276
0.0600427
0.0599599
0.0598789
0.0597998
0.0597225
0.0596472
0.0595737
0.0595021
0.0594323
0.0593642
0.0592979
0.0592332
0.0591701
0.0591085
0.0590486
0.0589902
0.0589334
0.0588781
0.0588244
0.0587723
0.0587217
0.0586727
0.0586253
0.0585794
0.0585352
0.0584924
0.0584513
0.0584117
0.0583736
0.0583372
0.0583022
0.0582688
0.058237
0.0582066
0.0581778
0.0581506
0.0581248
0.0581006
0.0580778
0.0580566
0.0580369
0.0580186
0.0580018
0.0579865
0.0579726
0.0579602
0.0579493
0.0579398
0.0579317
0.057925
0.0579198
0.0579159
0.0579134
0.0579124
0.0579127
0.0579143
0.0579173
0.0579217
0.0579274
0.0579344
0.0579427
0.0579523
0.0579632
0.0579754
0.0579888
0.0580035
0.0580195
0.0580367
0.0580551
0.0580747
0.0580955
0.0581175
0.0581406
0.058165
0.0581904
0.058217
0.0582448
0.0582736
0.0583036
0.0583346
0.0583667
0.0583999
0.0584341
0.0584693
0.0585056
0.0585429
0.0585812
0.0586205
0.0586607
0.0587019
0.0587441
0.0587872
0.0588312
0.0588761
0.058922
0.0589687
0.0590163
0.0590647
0.059114
0.0591642
0.0592151
0.0592669
0.0593194
0.0593728
0.0594269
0.0594818
0.0595375
0.0595938
0.0596509
0.0597088
0.0597673
0.0598265
0.0598864
0.0599469
0.0600082
0.06007
0.0601325
0.0601956
0.0602593
0.0603237
0.0603886
0.0604541
0.0605201
0.0605868
0.0606539
0.0607216
0.0607898
0.0608586
0.0609278
0.0609976
0.0610678
0.0611385
0.0612096
0.0612812
0.0613533
0.0614258
0.0614987
0.0615721
0.0616458
0.0617199
0.0617945
0.0618694
0.0619447
0.0620203
0.0620964
0.0621727
0.0622494
0.0623264
0.0624038
0.0624814
0.0625594
0.0626377
0.0627163
0.0627951
0.0628742
0.0629536
0.0630333
0.0631132
0.0631934
0.0632738
0.0633544
0.0634353
0.0635164
0.0635977
0.0636792
0.063761
0.0638429
0.063925
0.0640073
0.0640898
0.0641725
0.0642553
0.0643383
0.0644215
0.0645048
0.0645882
0.0646718
0.0647556
0.0648395
0.0649235
0.0650076
0.0650919
0.0651763
0.0652608
0.0653454
0.0654301
0.0655149
0.0655998
0.0656848
0.0657698
0.065855
0.0659403
0.0660256
0.066111
0.0661965
0.066282
0.0663677
0.0664533
0.0665391
0.0666249
0.0667107
0.0667966
0.0668826
0.0669686
0.0670546
0.0671407
0.0672268
0.067313
0.0673992
0.0674854
0.0675717
0.067658
0.0677443
0.0678306
0.067917
0.0680034
0.0680898
0.0681762
0.0682627
0.0683491
0.0684356
0.0685221
0.0686086
0.0686951
0.0687816
0.0688682
0.0689547
0.0690412
0.0691278
0.0692143
0.0693009
0.0693874
0.069474
0.0695605
0.0696471
0.0697336
0.0698202
0.0699067
0.0699933
0.0700798
0.0701663
0.0702529
0.0703394
0.0704259
0.0705124
0.0705989
0.0706854
0.0707719
0.0708584
0.0709449
0.0710314
0.0711178
0.0712043
0.0712908
0.0713772
0.0714637
0.0715501
0.0716365
0.0717229
0.0718093
0.0718957
0.0719821
0.0720685
0.0721549
0.0722413
0.0723277
0.072414
0.0725004
0.0725867
0.0726731
0.0727594
0.0728458
0.0729321
0.0730185
0.0731048
0.0731911
0.0732774
0.0733638
0.0734501
0.0735364
0.0736227
0.0737091
0.0737954
0.0738817
0.073968
0.0740543
0.0741407
0.074227
0.0743133
0.0743997
0.074486
0.0745724
0.0746588
0.0747451
0.0748315
0.0749178
0.0750043
0.0750906
0.0751772
0.0752635
0.0753502
0.0754364
0.0755233
0.0756093
0.0756967
0.0757822
0.0758703
0.0759552
0.0760442
0.0761285
0.0762183
0.076302
0.0763929
0.0764752
0.0765693
0.0766462
0.0767501
0.0768113
0.0769341
0.0769758
0.0770596
0.0770596
0.0770596
1
0.923421
0.73398
0.595497
0.509028
0.453155
0.414459
0.386038
0.364203
0.346825
0.332592
0.320656
0.310449
0.301577
0.293759
0.286788
0.28051
0.274806
0.269584
0.264772
0.260312
0.256161
0.252285
0.248657
0.245252
0.242048
0.239022
0.236151
0.233421
0.230818
0.228335
0.225964
0.223701
0.221542
0.219483
0.217515
0.215627
0.213807
0.212046
0.210342
0.208702
0.207136
0.205653
0.204251
0.202924
0.201659
0.200453
0.199307
0.198231
0.197236
0.196327
0.195498
0.194735
0.194022
0.193344
0.192696
0.192079
0.191497
0.190954
0.19045
0.189981
0.189538
0.189111
0.188695
0.188288
0.187892
0.187511
0.187152
0.186819
0.186515
0.186238
0.185986
0.185754
0.185537
0.185333
0.185136
0.184945
0.184759
0.184577
0.184399
0.184224
0.184053
0.183886
0.183722
0.183562
0.183406
0.183252
0.183102
0.182955
0.182812
0.182671
0.182533
0.182398
0.182266
0.182137
0.182011
0.181888
0.181768
0.181652
0.181538
0.181427
0.181319
0.181215
0.181113
0.181014
0.180919
0.180826
0.180737
0.18065
0.180567
0.180486
0.180409
0.180335
0.180263
0.180195
0.18013
0.180067
0.180008
0.179951
0.179898
0.179847
0.1798
0.179755
0.179714
0.179675
0.179639
0.179606
0.179576
0.179549
0.179524
0.179503
0.179484
0.179468
0.179455
0.179444
0.179437
0.179432
0.17943
0.179431
0.179434
0.17944
0.179449
0.17946
0.179474
0.179491
0.17951
0.179531
0.179556
0.179583
0.179612
0.179644
0.179678
0.179715
0.179755
0.179796
0.17984
0.179887
0.179936
0.179987
0.180041
0.180096
0.180155
0.180215
0.180278
0.180343
0.18041
0.180479
0.18055
0.180624
0.180699
0.180777
0.180857
0.180939
0.181023
0.181109
0.181196
0.181286
0.181378
0.181472
0.181567
0.181665
0.181764
0.181865
0.181968
0.182073
0.182179
0.182288
0.182397
0.182509
0.182622
0.182737
0.182854
0.182972
0.183092
0.183214
0.183336
0.183461
0.183587
0.183714
0.183843
0.183974
0.184106
0.184239
0.184373
0.184509
0.184647
0.184785
0.184925
0.185067
0.185209
0.185353
0.185498
0.185644
0.185792
0.18594
0.18609
0.186241
0.186393
0.186546
0.1867
0.186856
0.187012
0.187169
0.187328
0.187487
0.187647
0.187809
0.187971
0.188134
0.188298
0.188463
0.188629
0.188796
0.188964
0.189132
0.189302
0.189472
0.189643
0.189814
0.189987
0.19016
0.190334
0.190509
0.190684
0.19086
0.191037
0.191214
0.191393
0.191571
0.191751
0.191931
0.192111
0.192293
0.192474
0.192657
0.19284
0.193023
0.193207
0.193392
0.193577
0.193762
0.193948
0.194135
0.194322
0.19451
0.194698
0.194886
0.195075
0.195264
0.195454
0.195644
0.195835
0.196025
0.196217
0.196408
0.1966
0.196793
0.196986
0.197179
0.197372
0.197566
0.19776
0.197954
0.198149
0.198344
0.198539
0.198735
0.198931
0.199127
0.199323
0.19952
0.199717
0.199914
0.200112
0.200309
0.200507
0.200705
0.200904
0.201102
0.201301
0.2015
0.201699
0.201898
0.202098
0.202298
0.202497
0.202698
0.202898
0.203098
0.203299
0.2035
0.203701
0.203902
0.204103
0.204304
0.204506
0.204707
0.204909
0.205111
0.205313
0.205515
0.205717
0.20592
0.206122
0.206325
0.206528
0.206731
0.206934
0.207137
0.20734
0.207543
0.207746
0.20795
0.208153
0.208357
0.208561
0.208765
0.208968
0.209172
0.209376
0.209581
0.209785
0.209989
0.210193
0.210398
0.210602
0.210807
0.211011
0.211216
0.211421
0.211625
0.21183
0.212035
0.21224
0.212445
0.21265
0.212855
0.21306
0.213265
0.213471
0.213676
0.213881
0.214087
0.214292
0.214498
0.214703
0.214909
0.215114
0.21532
0.215525
0.215731
0.215937
0.216143
0.216349
0.216554
0.21676
0.216966
0.217173
0.217378
0.217585
0.21779
0.217998
0.218202
0.218411
0.218614
0.218825
0.219027
0.21924
0.21944
0.219656
0.219853
0.220075
0.220261
0.220504
0.220658
0.220941
0.221055
0.221298
0.221298
0.221298
1
1.07874
0.995442
0.881358
0.785717
0.713243
0.658704
0.616833
0.58385
0.557206
0.53519
0.516634
0.500727
0.48689
0.474701
0.463844
0.454078
0.445216
0.437114
0.429657
0.422757
0.416347
0.410371
0.404785
0.399549
0.394624
0.389974
0.38557
0.381388
0.377411
0.373626
0.370022
0.366588
0.363316
0.360196
0.357215
0.354356
0.351605
0.348952
0.346397
0.343948
0.341616
0.339409
0.337324
0.335352
0.333483
0.331713
0.330049
0.328502
0.327082
0.325789
0.32461
0.323526
0.322513
0.321557
0.320649
0.31979
0.318985
0.318235
0.317539
0.316888
0.316271
0.31568
0.315107
0.314554
0.314024
0.313524
0.31306
0.312637
0.312255
0.31191
0.311598
0.311312
0.311045
0.310793
0.31055
0.310313
0.310082
0.309856
0.309634
0.309416
0.309203
0.308995
0.30879
0.30859
0.308394
0.308202
0.308013
0.307827
0.307645
0.307467
0.307292
0.30712
0.306951
0.306786
0.306624
0.306466
0.306311
0.306159
0.306011
0.305866
0.305725
0.305587
0.305453
0.305322
0.305195
0.305071
0.30495
0.304833
0.304719
0.304609
0.304503
0.3044
0.3043
0.304203
0.304111
0.304021
0.303935
0.303853
0.303773
0.303698
0.303625
0.303556
0.303491
0.303429
0.30337
0.303314
0.303262
0.303214
0.303168
0.303126
0.303087
0.303052
0.30302
0.302991
0.302965
0.302943
0.302924
0.302908
0.302895
0.302885
0.302879
0.302875
0.302875
0.302878
0.302884
0.302893
0.302906
0.302921
0.302939
0.302961
0.302985
0.303012
0.303042
0.303075
0.303112
0.303151
0.303192
0.303237
0.303285
0.303335
0.303388
0.303444
0.303503
0.303564
0.303628
0.303695
0.303764
0.303836
0.303911
0.303989
0.304068
0.304151
0.304236
0.304323
0.304413
0.304506
0.304601
0.304698
0.304798
0.3049
0.305004
0.305111
0.30522
0.305331
0.305445
0.305561
0.305679
0.305799
0.305921
0.306046
0.306173
0.306301
0.306432
0.306565
0.3067
0.306837
0.306976
0.307117
0.30726
0.307405
0.307551
0.3077
0.30785
0.308003
0.308157
0.308313
0.30847
0.30863
0.308791
0.308954
0.309118
0.309284
0.309452
0.309621
0.309792
0.309965
0.310139
0.310315
0.310492
0.310671
0.310851
0.311033
0.311216
0.3114
0.311586
0.311774
0.311962
0.312152
0.312344
0.312536
0.31273
0.312925
0.313122
0.313319
0.313518
0.313718
0.31392
0.314122
0.314326
0.314531
0.314736
0.314943
0.315151
0.315361
0.315571
0.315782
0.315994
0.316207
0.316421
0.316637
0.316853
0.31707
0.317288
0.317507
0.317726
0.317947
0.318169
0.318391
0.318614
0.318838
0.319063
0.319289
0.319516
0.319743
0.319971
0.3202
0.320429
0.320659
0.32089
0.321122
0.321354
0.321587
0.321821
0.322055
0.32229
0.322526
0.322762
0.322999
0.323236
0.323475
0.323713
0.323952
0.324192
0.324432
0.324673
0.324915
0.325157
0.325399
0.325642
0.325885
0.326129
0.326373
0.326618
0.326864
0.327109
0.327355
0.327602
0.327849
0.328096
0.328344
0.328593
0.328841
0.32909
0.32934
0.329589
0.32984
0.33009
0.330341
0.330592
0.330844
0.331095
0.331348
0.3316
0.331853
0.332106
0.332359
0.332613
0.332867
0.333121
0.333376
0.333631
0.333886
0.334141
0.334396
0.334652
0.334908
0.335164
0.335421
0.335678
0.335935
0.336192
0.336449
0.336706
0.336964
0.337222
0.33748
0.337739
0.337997
0.338256
0.338514
0.338773
0.339033
0.339292
0.339551
0.339811
0.340071
0.34033
0.34059
0.340851
0.341111
0.341371
0.341632
0.341892
0.342153
0.342414
0.342675
0.342936
0.343197
0.343458
0.343719
0.34398
0.344242
0.344503
0.344765
0.345027
0.345288
0.34555
0.345812
0.346074
0.346335
0.346598
0.346859
0.347122
0.347383
0.347646
0.347908
0.348171
0.348432
0.348696
0.348956
0.349221
0.349481
0.349748
0.350005
0.350274
0.35053
0.350802
0.351056
0.351331
0.351581
0.351865
0.3521
0.352412
0.352607
0.352967
0.35312
0.353464
0.353464
0.353464
1
1.11082
1.11272
1.05325
0.981364
0.915306
0.85935
0.813056
0.774788
0.742875
0.71593
0.692877
0.672908
0.655414
0.639931
0.626098
0.61363
0.602301
0.591931
0.58238
0.573538
0.565319
0.557658
0.550498
0.543786
0.537471
0.531507
0.525856
0.520494
0.515399
0.510556
0.50595
0.501568
0.497396
0.493418
0.489617
0.485972
0.482468
0.479095
0.475854
0.472755
0.469808
0.467018
0.46438
0.461886
0.459527
0.457303
0.455225
0.453304
0.451547
0.449952
0.448499
0.447163
0.44592
0.444751
0.443648
0.44261
0.44164
0.440738
0.439898
0.43911
0.438362
0.437646
0.436958
0.436299
0.435677
0.435099
0.43457
0.434095
0.433672
0.433294
0.432955
0.432646
0.432358
0.432086
0.431824
0.431568
0.431319
0.431074
0.430834
0.430598
0.430367
0.430141
0.429919
0.429701
0.429488
0.429278
0.429072
0.42887
0.42867
0.428474
0.428282
0.428092
0.427906
0.427724
0.427544
0.427368
0.427196
0.427027
0.426861
0.426698
0.42654
0.426384
0.426232
0.426083
0.425938
0.425796
0.425658
0.425523
0.425392
0.425264
0.42514
0.425018
0.424901
0.424787
0.424676
0.424569
0.424465
0.424364
0.424267
0.424174
0.424084
0.423997
0.423914
0.423834
0.423757
0.423684
0.423614
0.423548
0.423484
0.423425
0.423368
0.423315
0.423265
0.423219
0.423175
0.423135
0.423099
0.423065
0.423035
0.423008
0.422984
0.422964
0.422946
0.422932
0.422921
0.422913
0.422908
0.422906
0.422907
0.422912
0.422919
0.42293
0.422943
0.42296
0.422979
0.423002
0.423027
0.423055
0.423086
0.42312
0.423157
0.423197
0.42324
0.423285
0.423333
0.423384
0.423438
0.423495
0.423554
0.423616
0.42368
0.423747
0.423817
0.423889
0.423964
0.424042
0.424122
0.424205
0.42429
0.424377
0.424467
0.42456
0.424655
0.424752
0.424851
0.424953
0.425058
0.425164
0.425273
0.425384
0.425498
0.425613
0.425731
0.425851
0.425973
0.426098
0.426224
0.426352
0.426483
0.426616
0.42675
0.426887
0.427025
0.427166
0.427308
0.427453
0.427599
0.427747
0.427897
0.428049
0.428203
0.428359
0.428516
0.428675
0.428836
0.428998
0.429162
0.429328
0.429496
0.429665
0.429836
0.430008
0.430182
0.430358
0.430535
0.430713
0.430894
0.431075
0.431258
0.431443
0.431629
0.431816
0.432005
0.432195
0.432386
0.432579
0.432773
0.432969
0.433166
0.433364
0.433563
0.433763
0.433965
0.434168
0.434372
0.434577
0.434784
0.434992
0.4352
0.43541
0.435621
0.435833
0.436046
0.43626
0.436476
0.436692
0.436909
0.437127
0.437346
0.437566
0.437788
0.43801
0.438232
0.438456
0.438681
0.438907
0.439133
0.439361
0.439589
0.439818
0.440048
0.440278
0.44051
0.440742
0.440975
0.441209
0.441443
0.441678
0.441914
0.442151
0.442388
0.442626
0.442865
0.443105
0.443345
0.443585
0.443827
0.444069
0.444311
0.444554
0.444798
0.445042
0.445287
0.445533
0.445779
0.446025
0.446272
0.44652
0.446768
0.447017
0.447266
0.447515
0.447766
0.448016
0.448267
0.448519
0.448771
0.449023
0.449276
0.449529
0.449783
0.450037
0.450291
0.450546
0.450801
0.451056
0.451312
0.451569
0.451825
0.452082
0.45234
0.452597
0.452855
0.453113
0.453372
0.453631
0.45389
0.454149
0.454409
0.454669
0.454929
0.45519
0.45545
0.455711
0.455973
0.456234
0.456496
0.456758
0.45702
0.457282
0.457544
0.457807
0.45807
0.458333
0.458596
0.45886
0.459123
0.459387
0.459651
0.459915
0.460179
0.460443
0.460708
0.460972
0.461237
0.461502
0.461766
0.462031
0.462296
0.462561
0.462827
0.463092
0.463357
0.463623
0.463888
0.464153
0.464419
0.464685
0.46495
0.465216
0.465482
0.465747
0.466013
0.466278
0.466545
0.46681
0.467077
0.467341
0.467609
0.467872
0.468141
0.468403
0.468675
0.468934
0.469208
0.469466
0.469742
0.469998
0.470278
0.470528
0.470821
0.471052
0.471376
0.471567
0.471934
0.472097
0.472469
0.472469
0.472469
1
1.09499
1.14202
1.13173
1.09474
1.04968
1.00504
0.964118
0.927817
0.895989
0.868121
0.843629
0.821981
0.802726
0.785492
0.769965
0.755882
0.743023
0.731204
0.720278
0.710129
0.70067
0.691833
0.683562
0.675797
0.668481
0.66156
0.654991
0.648748
0.642812
0.637169
0.631805
0.626703
0.621847
0.617218
0.612792
0.608546
0.604462
0.60053
0.596754
0.593148
0.589721
0.586473
0.583398
0.580482
0.57772
0.575116
0.572687
0.570447
0.568405
0.566552
0.564867
0.563318
0.561877
0.560526
0.559256
0.558067
0.556958
0.555927
0.554966
0.55406
0.553197
0.552368
0.551573
0.550815
0.550104
0.54945
0.54886
0.548336
0.547874
0.547467
0.547104
0.546775
0.54647
0.546181
0.545903
0.545631
0.545365
0.545104
0.544848
0.544596
0.544349
0.544107
0.543869
0.543636
0.543406
0.543181
0.542959
0.54274
0.542525
0.542313
0.542104
0.541898
0.541695
0.541496
0.5413
0.541107
0.540917
0.540731
0.540548
0.540368
0.540192
0.540019
0.539849
0.539682
0.539519
0.539359
0.539203
0.53905
0.5389
0.538753
0.53861
0.538471
0.538334