# vtk DataFile Version 2.0
FlowField
ASCII
DATASET STRUCTURED_GRID
DIMENSIONS 400 1 50
POINTS 20000 float
0 0 0
0.08 0 0
0.16 0 0
0.24 0 0
0.32 0 0
0.4 0 0
0.48 0 0
0.56 0 0
0.64 0 0
0.72 0 0
0.8 0 0
0.88 0 0
0.96 0 0
1.04 0 0
1.12 0 0
1.2 0 0
1.28 0 0
1.36 0 0
1.44 0 0
1.52 0 0
1.6 0 0
1.68 0 0
1.76 0 0
1.84 0 0
1.92 0 0
2 0 0
2.08 0 0
2.16 0 0
2.24 0 0
2.32 0 0
2.4 0 0
2.48 0 0
2.56 0 0
2.64 0 0
2.72 0 0
2.8 0 0
2.88 0 0
2.96 0 0
3.04 0 0
3.12 0 0
3.2 0 0
3.28 0 0
3.36 0 0
3.44 0 0
3.52 0 0
3.6 0 0
3.68 0 0
3.76 0 0
3.84 0 0
3.92 0 0
4 0 0
4.08 0 0
4.16 0 0
4.24 0 0
4.32 0 0
4.4 0 0
4.48 0 0
4.56 0 0
4.64 0 0
4.72 0 0
4.8 0 0
4.88 0 0
4.96 0 0
5.04 0 0
5.12 0 0
5.2 0 0
5.28 0 0
5.36 0 0
5.44 0 0
5.52 0 0
5.6 0 0
5.68 0 0
5.76 0 0
5.84 0 0
5.92 0 0
6 0 0
6.08 0 0
6.16 0 0
6.24 0 0
6.32 0 0
6.4 0 0
6.48 0 0
6.56 0 0
6.64 0 0
6.72 0 0
6.8 0 0
6.88 0 0
6.96 0 0
7.04 0 0
7.12 0 0
7.2 0 0
7.28 0 0
7.36 0 0
7.44 0 0
7.52 0 0
7.6 0 0
7.68 0 0
7.76 0 0
7.84 0 0
7.92 0 0
8 0 0
8.08 0 0
8.16 0 0
8.24 0 0
8.32 0 0
8.4 0 0
8.48 0 0
8.56 0 0
8.64 0 0
8.72 0 0
8.8 0 0
8.88 0 0
8.96 0 0
9.04 0 0
9.12 0 0
9.2 0 0
9.28 0 0
9.36 0 0
9.44 0 0
9.52 0 0
9.6 0 0
9.68 0 0
9.76 0 0
9.84 0 0
9.92 0 0
10 0 0
10.08 0 0
10.16 0 0
10.24 0 0
10.32 0 0
10.4 0 0
10.48 0 0
10.56 0 0
10.64 0 0
10.72 0 0
10.8 0 0
10.88 0 0
10.96 0 0
11.04 0 0
11.12 0 0
11.2 0 0
11.28 0 0
11.36 0 0
11.44 0 0
11.52 0 0
11.6 0 0
11.68 0 0
11.76 0 0
11.84 0 0
11.92 0 0
12 0 0
12.08 0 0
12.16 0 0
12.24 0 0
12.32 0 0
12.4 0 0
12.48 0 0
12.56 0 0
12.64 0 0
12.72 0 0
12.8 0 0
12.88 0 0
12.96 0 0
13.04 0 0
13.12 0 0
13.2 0 0
13.28 0 0
13.36 0 0
13.44 0 0
13.52 0 0
13.6 0 0
13.68 0 0
13.76 0 0
13.84 0 0
13.92 0 0
14 0 0
14.08 0 0
14.16 0 0
14.24 0 0
14.32 0 0
14.4 0 0
14.48 0 0
14.56 0 0
14.64 0 0
14.72 0 0
14.8 0 0
14.88 0 0
14.96 0 0
15.04 0 0
15.12 0 0
15.2 0 0
15.28 0 0
15.36 0 0
15.44 0 0
15.52 0 0
15.6 0 0
15.68 0 0
15.76 0 0
15.84 0 0
15.92 0 0
16 0 0
16.08 0 0
16.16 0 0
16.24 0 0
16.32 0 0
16.4 0 0
16.48 0 0
16.56 0 0
16.64 0 0
16.72 0 0
16.8 0 0
16.88 0 0
16.96 0 0
17.04 0 0
17.12 0 0
17.2 0 0
17.28 0 0
17.36 0 0
17.44 0 0
17.52 0 0
17.6 0 0
17.68 0 0
17.76 0 0
17.84 0 0
17.92 0 0
18 0 0
18.08 0 0
18.16 0 0
18.24 0 0
18.32 0 0
18.4 0 0
18.48 0 0
18.56 0 0
18.64 0 0
18.72 0 0
18.8 0 0
18.88 0 0
18.96 0 0
19.04 0 0
19.12 0 0
19.2 0 0
19.28 0 0
19.36 0 0
19.44 0 0
19.52 0 0
19.6 0 0
19.68 0 0
19.76 0 0
19.84 0 0
19.92 0 0
20 0 0
20.08 0 0
20.16 0 0
20.24 0 0
20.32 0 0
20.4 0 0
20.48 0 0
20.56 0 0
20.64 0 0
20.72 0 0
20.8 0 0
20.88 0 0
20.96 0 0
21.04 0 0
21.12 0 0
21.2 0 0
21.28 0 0
21.36 0 0
21.44 0 0
21.52 0 0
21.6 0 0
21.68 0 0
21.76 0 0
21.84 0 0
21.92 0 0
22 0 0
22.08 0 0
22.16 0 0
22.24 0 0
22.32 0 0
22.4 0 0
22.48 0 0
22.56 0 0
22.64 0 0
22.72 0 0
22.8 0 0
22.88 0 0
22.96 0 0
23.04 0 0
23.12 0 0
23.2 0 0
23.28 0 0
23.36 0 0
23.44 0 0
23.52 0 0
23.6 0 0
23.68 0 0
23.76 0 0
23.84 0 0
23.92 0 0
24 0 0
24.08 0 0
24.16 0 0
24.24 0 0
24.32 0 0
24.4 0 0
24.48 0 0
24.56 0 0
24.64 0 0
24.72 0 0
24.8 0 0
24.88 0 0
24.96 0 0
25.04 0 0
25.12 0 0
25.2 0 0
25.28 0 0
25.36 0 0
25.44 0 0
25.52 0 0
25.6 0 0
25.68 0 0
25.76 0 0
25.84 0 0
25.92 0 0
26 0 0
26.08 0 0
26.16 0 0
26.24 0 0
26.32 0 0
26.4 0 0
26.48 0 0
26.56 0 0
26.64 0 0
26.72 0 0
26.8 0 0
26.88 0 0
26.96 0 0
27.04 0 0
27.12 0 0
27.2 0 0
27.28 0 0
27.36 0 0
27.44 0 0
27.52 0 0
27.6 0 0
27.68 0 0
27.76 0 0
27.84 0 0
27.92 0 0
28 0 0
28.08 0 0
28.16 0 0
28.24 0 0
28.32 0 0
28.4 0 0
28.48 0 0
28.56 0 0
28.64 0 0
28.72 0 0
28.8 0 0
28.88 0 0
28.96 0 0
29.04 0 0
29.12 0 0
29.2 0 0
29.28 0 0
29.36 0 0
29.44 0 0
29.52 0 0
29.6 0 0
29.68 0 0
29.76 0 0
29.84 0 0
29.92 0 0
30 0 0
30.08 0 0
30.16 0 0
30.24 0 0
30.32 0 0
30.4 0 0
30.48 0 0
30.56 0 0
30.64 0 0
30.72 0 0
30.8 0 0
30.88 0 0
30.96 0 0
31.04 0 0
31.12 0 0
31.2 0 0
31.28 0 0
31.36 0 0
31.44 0 0
31.52 0 0
31.6 0 0
31.68 0 0
31.76 0 0
31.84 0 0
31.92 0 0
0 0.02 0
0.08 0.02 0
0.16 0.02 0
0.24 0.02 0
0.32 0.02 0
0.4 0.02 0
0.48 0.02 0
0.56 0.02 0
0.64 0.02 0
0.72 0.02 0
0.8 0.02 0
0.88 0.02 0
0.96 0.02 0
1.04 0.02 0
1.12 0.02 0
1.2 0.02 0
1.28 0.02 0
1.36 0.02 0
1.44 0.02 0
1.52 0.02 0
1.6 0.02 0
1.68 0.02 0
1.76 0.02 0
1.84 0.02 0
1.92 0.02 0
2 0.02 0
2.08 0.02 0
2.16 0.02 0
2.24 0.02 0
2.32 0.02 0
2.4 0.02 0
2.48 0.02 0
2.56 0.02 0
2.64 0.02 0
2.72 0.02 0
2.8 0.02 0
2.88 0.02 0
2.96 0.02 0
3.04 0.02 0
3.12 0.02 0
3.2 0.02 0
3.28 0.02 0
3.36 0.02 0
3.44 0.02 0
3.52 0.02 0
3.6 0.02 0
3.68 0.02 0
3.76 0.02 0
3.84 0.02 0
3.92 0.02 0
4 0.02 0
4.08 0.02 0
4.16 0.02 0
4.24 0.02 0
4.32 0.02 0
4.4 0.02 0
4.48 0.02 0
4.56 0.02 0
4.64 0.02 0
4.72 0.02 0
4.8 0.02 0
4.88 0.02 0
4.96 0.02 0
5.04 0.02 0
5.12 0.02 0
5.2 0.02 0
5.28 0.02 0
5.36 0.02 0
5.44 0.02 0
5.52 0.02 0
5.6 0.02 0
5.68 0.02 0
5.76 0.02 0
5.84 0.02 0
5.92 0.02 0
6 0.02 0
6.08 0.02 0
6.16 0.02 0
6.24 0.02 0
6.32 0.02 0
6.4 0.02 0
6.48 0.02 0
6.56 0.02 0
6.64 0.02 0
6.72 0.02 0
6.8 0.02 0
6.88 0.02 0
6.96 0.02 0
7.04 0.02 0
7.12 0.02 0
7.2 0.02 0
7.28 0.02 0
7.36 0.02 0
7.44 0.02 0
7.52 0.02 0
7.6 0.02 0
7.68 0.02 0
7.76 0.02 0
7.84 0.02 0
7.92 0.02 0
8 0.02 0
8.08 0.02 0
8.16 0.02 0
8.24 0.02 0
8.32 0.02 0
8.4 0.02 0
8.48 0.02 0
8.56 0.02 0
8.64 0.02 0
8.72 0.02 0
8.8 0.02 0
8.88 0.02 0
8.96 0.02 0
9.04 0.02 0
9.12 0.02 0
9.2 0.02 0
9.28 0.02 0
9.36 0.02 0
9.44 0.02 0
9.52 0.02 0
9.6 0.02 0
9.68 0.02 0
9.76 0.02 0
9.84 0.02 0
9.92 0.02 0
10 0.02 0
10.08 0.02 0
10.16 0.02 0
10.24 0.02 0
10.32 0.02 0
10.4 0.02 0
10.48 0.02 0
10.56 0.02 0
10.64 0.02 0
10.72 0.02 0
10.8 0.02 0
10.88 0.02 0
10.96 0.02 0
11.04 0.02 0
11.12 0.02 0
11.2 0.02 0
11.28 0.02 0
11.36 0.02 0
11.44 0.02 0
11.52 0.02 0
11.6 0.02 0
11.68 0.02 0
11.76 0.02 0
11.84 0.02 0
11.92 0.02 0
12 0.02 0
12.08 0.02 0
12.16 0.02 0
12.24 0.02 0
12.32 0.02 0
12.4 0.02 0
12.48 0.02 0
12.56 0.02 0
12.64 0.02 0
12.72 0.02 0
12.8 0.02 0
12.88 0.02 0
12.96 0.02 0
13.04 0.02 0
13.12 0.02 0
13.2 0.02 0
13.28 0.02 0
13.36 0.02 0
13.44 0.02 0
13.52 0.02 0
13.6 0.02 0
13.68 0.02 0
13.76 0.02 0
13.84 0.02 0
13.92 0.02 0
14 0.02 0
14.08 0.02 0
14.16 0.02 0
14.24 0.02 0
14.32 0.02 0
14.4 0.02 0
14.48 0.02 0
14.56 0.02 0
14.64 0.02 0
14.72 0.02 0
14.8 0.02 0
14.88 0.02 0
14.96 0.02 0
15.04 0.02 0
15.12 0.02 0
15.2 0.02 0
15.28 0.02 0
15.36 0.02 0
15.44 0.02 0
15.52 0.02 0
15.6 0.02 0
15.68 0.02 0
15.76 0.02 0
15.84 0.02 0
15.92 0.02 0
16 0.02 0
16.08 0.02 0
16.16 0.02 0
16.24 0.02 0
16.32 0.02 0
16.4 0.02 0
16.48 0.02 0
16.56 0.02 0
16.64 0.02 0
16.72 0.02 0
16.8 0.02 0
16.88 0.02 0
16.96 0.02 0
17.04 0.02 0
17.12 0.02 0
17.2 0.02 0
17.28 0.02 0
17.36 0.02 0
17.44 0.02 0
17.52 0.02 0
17.6 0.02 0
17.68 0.02 0
17.76 0.02 0
17.84 0.02 0
17.92 0.02 0
18 0.02 0
18.08 0.02 0
18.16 0.02 0
18.24 0.02 0
18.32 0.02 0
18.4 0.02 0
18.48 0.02 0
18.56 0.02 0
18.64 0.02 0
18.72 0.02 0
18.8 0.02 0
18.88 0.02 0
18.96 0.02 0
19.04 0.02 0
19.12 0.02 0
19.2 0.02 0
19.28 0.02 0
19.36 0.02 0
19.44 0.02 0
19.52 0.02 0
19.6 0.02 0
19.68 0.02 0
19.76 0.02 0
19.84 0.02 0
19.92 0.02 0
20 0.02 0
20.08 0.02 0
20.16 0.02 0
20.24 0.02 0
20.32 0.02 0
20.4 0.02 0
20.48 0.02 0
20.56 0.02 0
20.64 0.02 0
20.72 0.02 0
20.8 0.02 0
20.88 0.02 0
20.96 0.02 0
21.04 0.02 0
21.12 0.02 0
21.2 0.02 0
21.28 0.02 0
21.36 0.02 0
21.44 0.02 0
21.52 0.02 0
21.6 0.02 0
21.68 0.02 0
21.76 0.02 0
21.84 0.02 0
21.92 0.02 0
22 0.02 0
22.08 0.02 0
22.16 0.02 0
22.24 0.02 0
22.32 0.02 0
22.4 0.02 0
22.48 0.02 0
22.56 0.02 0
22.64 0.02 0
22.72 0.02 0
22.8 0.02 0
22.88 0.02 0
22.96 0.02 0
23.04 0.02 0
23.12 0.02 0
23.2 0.02 0
23.28 0.02 0
23.36 0.02 0
23.44 0.02 0
23.52 0.02 0
23.6 0.02 0
23.68 0.02 0
23.76 0.02 0
23.84 0.02 0
23.92 0.02 0
24 0.02 0
24.08 0.02 0
24.16 0.02 0
24.24 0.02 0
24.32 0.02 0
24.4 0.02 0
24.48 0.02 0
24.56 0.02 0
24.64 0.02 0
24.72 0.02 0
24.8 0.02 0
24.88 0.02 0
24.96 0.02 0
25.04 0.02 0
25.12 0.02 0
25.2 0.02 0
25.28 0.02 0
25.36 0.02 0
25.44 0.02 0
25.52 0.02 0
25.6 0.02 0
25.68 0.02 0
25.76 0.02 0
25.84 0.02 0
25.92 0.02 0
26 0.02 0
26.08 0.02 0
26.16 0.02 0
26.24 0.02 0
26.32 0.02 0
26.4 0.02 0
26.48 0.02 0
26.56 0.02 0
26.64 0.02 0
26.72 0.02 0
26.8 0.02 0
26.88 0.02 0
26.96 0.02 0
27.04 0.02 0
27.12 0.02 0
27.2 0.02 0
27.28 0.02 0
27.36 0.02 0
27.44 0.02 0
27.52 0.02 0
27.6 0.02 0
27.68 0.02 0
27.76 0.02 0
27.84 0.02 0
27.92 0.02 0
28 0.02 0
28.08 0.02 0
28.16 0.02 0
28.24 0.02 0
28.32 0.02 0
28.4 0.02 0
28.48 0.02 0
28.56 0.02 0
28.64 0.02 0
28.72 0.02 0
28.8 0.02 0
28.88 0.02 0
28.96 0.02 0
29.04 0.02 0
29.12 0.02 0
29.2 0.02 0
29.28 0.02 0
29.36 0.02 0
29.44 0.02 0
29.52 0.02 0
29.6 0.02 0
29.68 0.02 0
29.76 0.02 0
29.84 0.02 0
29.92 0.02 0
30 0.02 0
30.08 0.02 0
30.16 0.02 0
30.24 0.02 0
30.32 0.02 0
30.4 0.02 0
30.48 0.02 0
30.56 0.02 0
30.64 0.02 0
30.72 0.02 0
30.8 0.02 0
30.88 0.02 0
30.96 0.02 0
31.04 0.02 0
31.12 0.02 0
31.2 0.02 0
31.28 0.02 0
31.36 0.02 0
31.44 0.02 0
31.52 0.02 0
31.6 0.02 0
31.68 0.02 0
31.76 0.02 0
31.84 0.02 0
31.92 0.02 0
0 0.04 0
0.08 0.04 0
0.16 0.04 0
0.24 0.04 0
0.32 0.04 0
0.4 0.04 0
0.48 0.04 0
0.56 0.04 0
0.64 0.04 0
0.72 0.04 0
0.8 0.04 0
0.88 0.04 0
0.96 0.04 0
1.04 0.04 0
1.12 0.04 0
1.2 0.04 0
1.28 0.04 0
1.36 0.04 0
1.44 0.04 0
1.52 0.04 0
1.6 0.04 0
1.68 0.04 0
1.76 0.04 0
1.84 0.04 0
1.92 0.04 0
2 0.04 0
2.08 0.04 0
2.16 0.04 0
2.24 0.04 0
2.32 0.04 0
2.4 0.04 0
2.48 0.04 0
2.56 0.04 0
2.64 0.04 0
2.72 0.04 0
2.8 0.04 0
2.88 0.04 0
2.96 0.04 0
3.04 0.04 0
3.12 0.04 0
3.2 0.04 0
3.28 0.04 0
3.36 0.04 0
3.44 0.04 0
3.52 0.04 0
3.6 0.04 0
3.68 0.04 0
3.76 0.04 0
3.84 0.04 0
3.92 0.04 0
4 0.04 0
4.08 0.04 0
4.16 0.04 0
4.24 0.04 0
4.32 0.04 0
4.4 0.04 0
4.48 0.04 0
4.56 0.04 0
4.64 0.04 0
4.72 0.04 0
4.8 0.04 0
4.88 0.04 0
4.96 0.04 0
5.04 0.04 0
5.12 0.04 0
5.2 0.04 0
5.28 0.04 0
5.36 0.04 0
5.44 0.04 0
5.52 0.04 0
5.6 0.04 0
5.68 0.04 0
5.76 0.04 0
5.84 0.04 0
5.92 0.04 0
6 0.04 0
6.08 0.04 0
6.16 0.04 0
6.24 0.04 0
6.32 0.04 0
6.4 0.04 0
6.48 0.04 0
6.56 0.04 0
6.64 0.04 0
6.72 0.04 0
6.8 0.04 0
6.88 0.04 0
6.96 0.04 0
7.04 0.04 0
7.12 0.04 0
7.2 0.04 0
7.28 0.04 0
7.36 0.04 0
7.44 0.04 0
7.52 0.04 0
7.6 0.04 0
7.68 0.04 0
7.76 0.04 0
7.84 0.04 0
[...]
POINT_DATA 20000

SCALARS v float 1
LOOKUP_TABLE default
0
0
0
0
0
0
0
0
0
0
0
0
0
0
0
0
0
0
0
0
0
0
0
0
0
0
0
0
0
0
0
0
0
0
0
0
0
0
0
0
0
0
0
0
0
0
0
0
0
0
0
0
0
0
0
0
0
0
0
0
0
0
0
0
0
0
0
0
0
0
0
0
0
0
0
0
0
0
0
0
0
0
0
0
0
0
0
0
0
0
0
0
0
0
0
0
0
0
0
0
0
0
0
0
0
0
0
0
0
0
0
0
0
0
0
0
0
0
0
0
0
0
0
0
0
0
0
0
0
0
0
0
0
0
0
0
0
0
0
0
0
0
0
0
0
0
0
0
0
0
0
0
0
0
0
0
0
0
0
0
0
0
0
0
0
0
0
0
0
0
0
0
0
0
0
0
0
0
0
0
0
0
0
0
0
0
0
0
0
0
0
0
0
0
0
0
0
0
0
0
0
0
0
0
0
0
0
0
0
0
0
0
0
0
0
0
0
0
0
0
0
0
0
0
0
0
0
0
0
0
0
0
0
0
0
0
0
0
0
0
0
0
0
0
0
0
0
0
0
0
0
0
0
0
0
0
0
0
0
0
0
0
0
0
0
0
0
0
0
0
0
0
0
0
0
0
0
0
0
0
0
0
0
0
0
0
0
0
0
0
0
0
0
0
0
0
0
0
0
0
0
0
0
0
0
0
0
0
0
0
0
0
0
0
0
0
0
0
0
0
0
0
0
0
0
0
0
0
0
0
0
0
0
0
0
0
0
0
0
0
0
0
0
0
0
0
0
0
0
0
0
0
0
0
0
0
0
0
0
0
0
0
0
0
0
0
0
0
0
0
0
0
0
0
0
0
0
0
0
0
0
0
0
0
0
0
0
0
0
0
0
0
0
0
0
0
0
0
0
0
-0.123224
0.123224
0.0537884
0.0194354
0.00877946
0.00508598
0.00338396
0.00243348
0.00184362
0.00145239
0.00118011
0.000983304
0.000836431
0.000723728
0.000635082
0.000563807
0.000505374
0.000456648
0.000415413
0.000380071
0.000349449
0.000322667
0.000299057
0.000278098
0.000259379
0.000242573
0.000227413
0.00021368
0.000201193
0.0001898
0.000179372
0.000169798
0.000160984
0.000152849
0.000145324
0.000138345
0.000131861
0.000125823
0.000120191
0.000114927
0.000109998
0.000105375
0.000101032
9.69464e-05
9.30966e-05
8.94647e-05
8.60342e-05
8.27901e-05
7.97184e-05
7.68062e-05
7.40419e-05
7.14147e-05
6.89151e-05
6.65344e-05
6.42652e-05
6.21005e-05
6.00339e-05
5.80593e-05
5.61706e-05
5.4362e-05
5.2628e-05
5.09638e-05
4.93652e-05
4.7829e-05
4.63522e-05
4.49323e-05
4.35666e-05
4.22522e-05
4.09861e-05
3.97651e-05
3.85863e-05
3.74473e-05
3.63463e-05
3.52821e-05
3.42539e-05
3.32607e-05
3.23011e-05
3.13731e-05
3.04741e-05
2.96014e-05
2.8753e-05
2.79279e-05
2.71258e-05
2.63472e-05
2.55921e-05
2.48605e-05
2.41517e-05
2.34644e-05
2.27971e-05
2.21477e-05
2.15142e-05
2.08957e-05
2.02923e-05
1.97054e-05
1.91369e-05
1.85874e-05
1.80555e-05
1.75382e-05
1.70319e-05
1.65343e-05
1.60455e-05
1.55669e-05
1.51006e-05
1.46477e-05
1.42084e-05
1.37821e-05
1.33684e-05
1.29667e-05
1.25753e-05
1.21917e-05
1.18133e-05
1.1439e-05
1.10709e-05
1.07132e-05
1.03701e-05
1.00424e-05
9.72697e-06
9.41734e-06
9.10773e-06
8.79607e-06
8.48487e-06
8.17939e-06
7.88439e-06
7.60175e-06
7.3303e-06
7.06736e-06
6.81046e-06
6.55803e-06
6.30878e-06
6.06123e-06
5.81411e-06
5.56786e-06
5.3257e-06
5.09282e-06
4.87362e-06
4.66843e-06
4.47215e-06
4.27624e-06
4.07319e-06
3.86082e-06
3.64374e-06
3.43074e-06
3.22993e-06
3.04445e-06
2.87127e-06
2.70349e-06
2.53416e-06
2.35927e-06
2.17825e-06
1.99274e-06
1.805e-06
1.61753e-06
1.43356e-06
1.25708e-06
1.09129e-06
9.35769e-07
7.8444e-07
6.26637e-07
4.51834e-07
2.55971e-07
4.54931e-08
-1.64138e-07
-3.55656e-07
-5.19452e-07
-6.59869e-07
-7.94222e-07
-9.44373e-07
-1.1251e-06
-1.33567e-06
-1.55941e-06
-1.77193e-06
-1.95361e-06
-2.09968e-06
-2.22251e-06
-2.34506e-06
-2.48887e-06
-2.66329e-06
-2.8611e-06
-3.06275e-06
-3.24645e-06
-3.39878e-06
-3.5205e-06
-3.62507e-06
-3.73122e-06
-3.85363e-06
-3.99642e-06
-4.15224e-06
-4.30682e-06
-4.44619e-06
-4.56299e-06
-4.65897e-06
-4.7431e-06
-4.82661e-06
-4.9178e-06
-5.01875e-06
-5.12528e-06
-5.22965e-06
-5.32439e-06
-5.40544e-06
-5.47333e-06
-5.53222e-06
-5.58763e-06
-5.64388e-06
-5.70259e-06
-5.76244e-06
-5.82031e-06
-5.8729e-06
-5.91818e-06
-5.95607e-06
-5.98829e-06
-6.01742e-06
-6.04586e-06
-6.07501e-06
-6.10492e-06
-6.13454e-06
-6.16229e-06
-6.18676e-06
-6.20719e-06
-6.22367e-06
-6.237e-06
-6.24837e-06
-6.25893e-06
-6.26951e-06
-6.28046e-06
-6.29171e-06
-6.30286e-06
-6.31347e-06
-6.32317e-06
-6.33181e-06
-6.33946e-06
-6.34636e-06
-6.35283e-06
-6.35917e-06
-6.36562e-06
-6.37229e-06
-6.37918e-06
-6.38624e-06
-6.39336e-06
-6.40043e-06
-6.4074e-06
-6.41423e-06
-6.42093e-06
-6.42754e-06
-6.43408e-06
-6.44062e-06
-6.44717e-06
-6.45375e-06
-6.46036e-06
-6.46699e-06
-6.47363e-06
-6.48026e-06
-6.48687e-06
-6.49345e-06
-6.50001e-06
-6.50653e-06
-6.51303e-06
-6.51951e-06
-6.52598e-06
-6.53243e-06
-6.53887e-06
-6.54529e-06
-6.5517e-06
-6.5581e-06
-6.56447e-06
-6.57083e-06
-6.57717e-06
-6.58348e-06
-6.58977e-06
-6.59605e-06
-6.60229e-06
-6.60852e-06
-6.61472e-06
-6.6209e-06
-6.62706e-06
-6.63319e-06
-6.6393e-06
-6.64538e-06
-6.65144e-06
-6.65748e-06
-6.66348e-06
-6.66946e-06
-6.67542e-06
-6.68134e-06
-6.68724e-06
-6.69311e-06
-6.69895e-06
-6.70477e-06
-6.71055e-06
-6.7163e-06
-6.72202e-06
-6.72772e-06
-6.73338e-06
-6.73901e-06
-6.7446e-06
-6.75017e-06
-6.7557e-06
-6.7612e-06
-6.76666e-06
-6.77209e-06
-6.77749e-06
-6.78285e-06
-6.78817e-06
-6.79346e-06
-6.79872e-06
-6.80393e-06
-6.80911e-06
-6.81426e-06
-6.81936e-06
-6.82443e-06
-6.82946e-06
-6.83445e-06
-6.8394e-06
-6.84431e-06
-6.84919e-06
-6.85402e-06
-6.85881e-06
-6.86356e-06
-6.86827e-06
-6.87293e-06
-6.87756e-06
-6.88214e-06
-6.88669e-06
-6.89118e-06
-6.89564e-06
-6.90004e-06
-6.90442e-06
-6.90872e-06
-6.91302e-06
-6.91723e-06
-6.92145e-06
-6.92556e-06
-6.92969e-06
-6.9337e-06
-6.93775e-06
-6.94165e-06
-6.94563e-06
-6.94941e-06
-6.95331e-06
-6.95698e-06
-6.96082e-06
-6.96436e-06
-6.96813e-06
-6.97153e-06
-6.97525e-06
-6.97851e-06
-6.98219e-06
-6.98528e-06
-6.98894e-06
-6.99184e-06
-6.99551e-06
-6.99818e-06
-7.00189e-06
-7.00432e-06
-7.0081e-06
-7.01023e-06
-7.01415e-06
-7.01591e-06
-7.02004e-06
-7.02136e-06
-7.0258e-06
-7.02656e-06
-7.03144e-06
-7.03152e-06
-7.037e-06
-7.0362e-06
-7.04252e-06
-7.0406e-06
-7.04806e-06
-7.0447e-06
-7.05368e-06
-7.04847e-06
-7.05948e-06
-7.0519e-06
-7.06557e-06
-7.05496e-06
-7.07212e-06
-7.05761e-06
-7.07933e-06
-7.05982e-06
-7.08746e-06
-7.06151e-06
-7.09686e-06
-7.06263e-06
-7.10791e-06
-7.06307e-06
-7.12093e-06
-7.06284e-06
-7.13572e-06
-7.06229e-06
-7.15031e-06
-7.06291e-06
-7.15725e-06
-7.06884e-06
-7.13285e-06
-7.08897e-06
-6.99227e-06
-7.12783e-06
-6.13657e-06
-6.45418e-06
-6.45418e-06
-0.14215
0.14215
0.101001
0.0539089
0.0302522
0.0189139
0.0129231
0.00940843
0.00717542
0.00567245
0.00461591
0.00384687
0.00327034
0.0028268
0.00247759
0.00219689
0.00196704
0.00177571
0.00161414
0.00147596
0.0013565
0.00125225
0.00116051
0.00107922
0.00100673
0.000941734
0.000883173
0.000830182
0.000782041
0.00073815
0.000698002
0.000661166
0.000627274
0.000596008
0.000567094
0.000540293
0.000515398
0.000492225
0.000470613
0.000450419
0.000431516
0.000413792
0.000397145
0.000381488
0.000366739
0.000352829
0.000339693
0.000327273
0.000315514
0.000304368
0.000293789
0.000283736
0.000274174
0.000265069
0.000256391
0.000248115
0.000240214
0.000232665
0.000225445
0.000218531
0.000211905
0.000205547
0.000199443
0.000193579
0.000187944
0.000182527
0.000177317
0.000172303
0.000167472
0.000162815
0.000158319
0.000153977
0.000149782
0.00014573
0.000141814
0.000138032
0.000134377
0.00013084
0.000127413
0.000124087
0.000120857
0.000117719
0.000114673
0.000111717
0.000108853
0.000106076
0.000103386
0.000100775
9.82392e-05
9.57716e-05
9.33669e-05
9.10224e-05
8.87393e-05
8.65214e-05
8.43722e-05
8.22914e-05
8.02729e-05
7.83068e-05
7.63834e-05
7.44977e-05
7.26508e-05
7.08477e-05
6.90932e-05
6.73897e-05
6.57363e-05
6.4131e-05
6.25713e-05
6.10541e-05
5.95738e-05
5.8123e-05
5.66955e-05
5.52907e-05
5.39159e-05
5.25828e-05
5.13003e-05
5.00671e-05
4.88706e-05
4.76925e-05
4.65189e-05
4.53476e-05
4.41887e-05
4.30572e-05
4.19647e-05
4.09138e-05
3.9899e-05
3.89119e-05
3.79452e-05
3.69944e-05
3.6056e-05
3.51264e-05
3.42039e-05
3.3292e-05
3.24012e-05
3.15453e-05
3.07327e-05
2.99595e-05
2.92075e-05
2.84529e-05
2.76785e-05
2.6884e-05
2.60866e-05
2.53114e-05
2.45777e-05
2.38885e-05
2.32309e-05
2.25835e-05
2.19279e-05
2.12551e-05
2.05661e-05
1.98671e-05
1.91658e-05
1.84702e-05
1.77894e-05
1.71331e-05
1.6506e-05
1.59015e-05
1.52983e-05
1.46664e-05
1.39822e-05
1.3244e-05
1.24786e-05
1.17322e-05
1.10475e-05
1.04393e-05
9.88319e-06
9.32499e-06
8.70797e-06
8.00386e-06
7.22996e-06
6.44245e-06
5.70844e-06
5.0717e-06
4.53025e-06
4.03795e-06
3.52883e-06
2.9512e-06
2.29348e-06
1.5889e-06
8.97469e-07
2.75718e-07
-2.50198e-07
-6.94769e-07
-1.10304e-06
-1.52671e-06
-1.99917e-06
-2.52148e-06
-3.06496e-06
-3.58734e-06
-4.0534e-06
-4.45009e-06
-4.78973e-06
-5.10137e-06
-5.41574e-06
-5.7515e-06
-6.10865e-06
-6.47115e-06
-6.81605e-06
-7.12438e-06
-7.38861e-06
-7.61408e-06
-7.81481e-06
-8.00631e-06
-8.19904e-06
-8.39502e-06
-8.58865e-06
-8.77047e-06
-8.93198e-06
-9.0692e-06
-9.18388e-06
-9.28219e-06
-9.37185e-06
-9.45915e-06
-9.54698e-06
-9.63441e-06
-9.71781e-06
-9.7927e-06
-9.85564e-06
-9.90539e-06
-9.94315e-06
-9.97189e-06
-9.99531e-06
-1.00167e-05
-1.00381e-05
-1.00602e-05
-1.00824e-05
-1.01035e-05
-1.01223e-05
-1.0138e-05
-1.01504e-05
-1.01598e-05
-1.01673e-05
-1.01737e-05
-1.018e-05
-1.01868e-05
-1.01942e-05
-1.02023e-05
-1.02108e-05
-1.02193e-05
-1.02277e-05
-1.02357e-05
-1.02432e-05
-1.02505e-05
-1.02574e-05
-1.02643e-05
-1.02712e-05
-1.02782e-05
-1.02853e-05
-1.02925e-05
-1.02998e-05
-1.03071e-05
-1.03144e-05
-1.03217e-05
-1.03289e-05
-1.0336e-05
-1.03431e-05
-1.03501e-05
-1.03571e-05
-1.03641e-05
-1.03711e-05
-1.03781e-05
-1.03851e-05
-1.03921e-05
-1.0399e-05
-1.0406e-05
-1.04129e-05
-1.04198e-05
-1.04266e-05
-1.04335e-05
-1.04403e-05
-1.04471e-05
-1.04538e-05
-1.04605e-05
-1.04673e-05
-1.04739e-05
-1.04806e-05
-1.04872e-05
-1.04938e-05
-1.05004e-05
-1.05069e-05
-1.05135e-05
-1.052e-05
-1.05264e-05
-1.05328e-05
-1.05392e-05
-1.05456e-05
-1.05519e-05
-1.05582e-05
-1.05645e-05
-1.05708e-05
-1.0577e-05
-1.05831e-05
-1.05893e-05
-1.05954e-05
-1.06014e-05
-1.06075e-05
-1.06135e-05
-1.06194e-05
-1.06253e-05
-1.06312e-05
-1.06371e-05
-1.06429e-05
-1.06487e-05
-1.06544e-05
-1.06601e-05
-1.06657e-05
-1.06713e-05
-1.06769e-05
-1.06824e-05
-1.06879e-05
-1.06934e-05
-1.06988e-05
-1.07041e-05
-1.07095e-05
-1.07147e-05
-1.072e-05
-1.07252e-05
-1.07303e-05
-1.07354e-05
-1.07404e-05
-1.07455e-05
-1.07504e-05
-1.07553e-05
-1.07602e-05
-1.0765e-05
-1.07697e-05
-1.07745e-05
-1.07791e-05
-1.07838e-05
-1.07883e-05
-1.0793e-05
-1.07973e-05
-1.08019e-05
-1.08061e-05
-1.08106e-05
-1.08147e-05
-1.08191e-05
-1.08231e-05
-1.08275e-05
-1.08312e-05
-1.08356e-05
-1.08392e-05
-1.08435e-05
-1.08469e-05
-1.08513e-05
-1.08543e-05
-1.08589e-05
-1.08616e-05
-1.08663e-05
-1.08686e-05
-1.08735e-05
-1.08754e-05
-1.08806e-05
-1.08818e-05
-1.08876e-05
-1.08881e-05
-1.08945e-05
-1.0894e-05
-1.09013e-05
-1.08997e-05
-1.09082e-05
-1.0905e-05
-1.09151e-05
-1.09099e-05
-1.09223e-05
-1.09145e-05
-1.09298e-05
-1.09186e-05
-1.09378e-05
-1.09223e-05
-1.09467e-05
-1.09254e-05
-1.09566e-05
-1.0928e-05
-1.0968e-05
-1.09299e-05
-1.09814e-05
-1.0931e-05
-1.09975e-05
-1.09313e-05
-1.10173e-05
-1.09307e-05
-1.10418e-05
-1.09289e-05
-1.10725e-05
-1.09256e-05
-1.11105e-05
-1.09208e-05
-1.11554e-05
-1.09156e-05
-1.12011e-05
-1.0914e-05
-1.12247e-05
-1.09268e-05
-1.1153e-05
-1.09738e-05
-1.07293e-05
-1.10347e-05
-8.34456e-06
-9.27302e-06
-9.27302e-06
-0.122223
0.122223
0.12166
0.0822636
0.0539904
0.0368594
0.0263883
0.0197113
0.0152605
0.0121749
0.00996309
0.00833126
0.00709622
0.00613976
0.00538335
0.00477362
0.00427354
0.00385697
0.00350515
0.00320435
0.00294443
0.00271772
0.00251836
0.00234179
0.00218443
0.0020434
0.0019164
0.00180151
0.00169717
0.00160206
0.00151508
0.00143529
0.00136189
0.00129418
0.00123157
0.00117354
0.00111964
0.00106947
0.00102268
0.00097896
0.000938039
0.00089967
0.000863637
0.000829747
0.000797827
0.000767723
0.000739295
0.000712416
0.000686969
0.000662847
0.000639954
0.000618201
0.000597509
0.000577808
0.000559034
0.000541126
0.000524031
0.000507697
0.000492073
0.000477114
0.000462776
0.000449023
0.000435821
0.000423141
0.000410958
0.000399246
0.000387982
0.00037714
0.000366696
0.000356625
0.000346906
0.000337521
0.000328456
0.000319699
0.000311239
0.000303066
0.000295164
0.000287517
0.000280108
0.000272919
0.000265941
0.000259166
0.000252591
0.000246215
0.000240036
0.000234046
0.000228239
0.000222604
0.000217129
0.000211803
0.000206615
0.00020156
0.000196642
0.000191866
0.000187235
0.000182747
0.000178389
0.000174142
0.000169991
0.000165926
0.000161951
0.000158076
0.000154307
0.000150647
0.000147093
0.000143641
0.000140285
0.000137017
0.000133828
0.000130704
0.000127635
0.000124622
0.000121679
0.000118826
0.000116074
0.000113419
0.000110834
0.000108288
0.000105759
0.000103247
0.000100772
9.83599e-05
9.60293e-05
9.37816e-05
9.16047e-05
8.94824e-05
8.7402e-05
8.53557e-05
8.33377e-05
8.13427e-05
7.93691e-05
7.74251e-05
7.55297e-05
7.37052e-05
7.19626e-05
7.02898e-05
6.86525e-05
6.70095e-05
6.53353e-05
6.36346e-05
6.19411e-05
6.02983e-05
5.87355e-05
5.72524e-05
5.58213e-05
5.44034e-05
5.29677e-05
5.15013e-05
5.00085e-05
4.85023e-05
4.69968e-05
4.55063e-05
4.40461e-05
4.26305e-05
4.12636e-05
3.99288e-05
3.85858e-05
3.71841e-05
3.5689e-05
3.41068e-05
3.24919e-05
3.09257e-05
2.94758e-05
2.81561e-05
2.69132e-05
2.56487e-05
2.42702e-05
2.27423e-05
2.11097e-05
1.94782e-05
1.7962e-05
1.66251e-05
1.54494e-05
1.43445e-05
1.31956e-05
1.19227e-05
1.05206e-05
9.05936e-06
7.64742e-06
6.37743e-06
5.28286e-06
4.32638e-06
3.42315e-06
2.48502e-06
1.4624e-06
3.64044e-07
-7.52476e-07
-1.81205e-06
-2.75803e-06
-3.57565e-06
-4.29369e-06
-4.96617e-06
-5.64519e-06
-6.35819e-06
-7.09921e-06
-7.83609e-06
-8.5281e-06
-9.14461e-06
-9.6767e-06
-1.01377e-05
-1.05543e-05
-1.09535e-05
-1.13515e-05
-1.17496e-05
-1.2136e-05
-1.24939e-05
-1.28095e-05
-1.30779e-05
-1.33041e-05
-1.35002e-05
-1.36802e-05
-1.38544e-05
-1.40268e-05
-1.41948e-05
-1.43513e-05
-1.44889e-05
-1.46023e-05
-1.46903e-05
-1.47561e-05
-1.48058e-05
-1.48462e-05
-1.48831e-05
-1.49196e-05
-1.49567e-05
-1.49931e-05
-1.50266e-05
-1.5055e-05
-1.50772e-05
-1.50932e-05
-1.51041e-05
-1.51115e-05
-1.51174e-05
-1.51233e-05
-1.51302e-05
-1.51384e-05
-1.51476e-05
-1.51574e-05
-1.51672e-05
-1.51766e-05
-1.51852e-05
-1.51931e-05
-1.52003e-05
-1.52072e-05
-1.5214e-05
-1.52208e-05
-1.52279e-05
-1.52352e-05
-1.52426e-05
-1.52502e-05
-1.52579e-05
-1.52655e-05
-1.52731e-05
-1.52805e-05
-1.52879e-05
-1.52951e-05
-1.53023e-05
-1.53095e-05
-1.53166e-05
-1.53238e-05
-1.5331e-05
-1.53381e-05
-1.53453e-05
-1.53525e-05
-1.53596e-05
-1.53667e-05
-1.53738e-05
-1.53809e-05
-1.53879e-05
-1.53949e-05
-1.54019e-05
-1.54088e-05
-1.54157e-05
-1.54226e-05
-1.54294e-05
-1.54363e-05
-1.54431e-05
-1.54499e-05
-1.54566e-05
-1.54633e-05
-1.547e-05
-1.54767e-05
-1.54833e-05
-1.54899e-05
-1.54965e-05
-1.5503e-05
-1.55095e-05
-1.5516e-05
-1.55224e-05
-1.55288e-05
-1.55351e-05
-1.55415e-05
-1.55478e-05
-1.5554e-05
-1.55602e-05
-1.55664e-05
-1.55726e-05
-1.55787e-05
-1.55848e-05
-1.55908e-05
-1.55968e-05
-1.56028e-05
-1.56087e-05
-1.56145e-05
-1.56204e-05
-1.56262e-05
-1.56319e-05
-1.56376e-05
-1.56433e-05
-1.56489e-05
-1.56545e-05
-1.56601e-05
-1.56656e-05
-1.5671e-05
-1.56764e-05
-1.56818e-05
-1.56871e-05
-1.56923e-05
-1.56976e-05
-1.57027e-05
-1.57079e-05
-1.57129e-05
-1.5718e-05
-1.5723e-05
-1.5728e-05
-1.57328e-05
-1.57377e-05
-1.57424e-05
-1.57473e-05
-1.57518e-05
-1.57566e-05
-1.5761e-05
-1.57658e-05
-1.577e-05
-1.57747e-05
-1.57788e-05
-1.57835e-05
-1.57873e-05
-1.57921e-05
-1.57956e-05
-1.58005e-05
-1.58037e-05
-1.58087e-05
-1.58115e-05
-1.58167e-05
-1.58191e-05
-1.58246e-05
-1.58265e-05
-1.58323e-05
-1.58335e-05
-1.58399e-05
-1.58403e-05
-1.58475e-05
-1.58468e-05
-1.5855e-05
-1.58529e-05
-1.58626e-05
-1.58587e-05
-1.58703e-05
-1.58642e-05
-1.58783e-05
-1.58692e-05
-1.58866e-05
-1.58737e-05
-1.58957e-05
-1.58777e-05
-1.59056e-05
-1.58811e-05
-1.59168e-05
-1.58838e-05
-1.59298e-05
-1.58857e-05
-1.59453e-05
-1.58867e-05
-1.59639e-05
-1.58867e-05
-1.59868e-05
-1.58855e-05
-1.60154e-05
-1.5883e-05
-1.60516e-05
-1.58789e-05
-1.60977e-05
-1.58727e-05
-1.61566e-05
-1.5864e-05
-1.62308e-05
-1.58526e-05
-1.63198e-05
-1.58404e-05
-1.64125e-05
-1.58345e-05
-1.6467e-05
-1.58517e-05
-1.63516e-05
-1.59148e-05
-1.56201e-05
-1.59233e-05
-1.18107e-05
-1.28006e-05
-1.28006e-05
-0.094276
0.094276
0.121012
0.0969655
0.0717894
0.0531937
0.0401964
0.0311068
0.0246529
0.0199803
0.0165271
0.0139229
0.01192
0.0103502
0.00909772
0.0080815
0.00724406
0.00654405
0.00595137
0.00544375
0.00500455
0.00462111
0.00428368
0.00398467
0.00371805
0.00347902
0.00326368
0.00306881
0.00289178
0.00273037
0.00258271
0.00244721
0.00232252
0.00220747
0.00210106
0.00200241
0.00191076
0.00182543
0.00174583
0.00167144
0.00160179
0.00153648
0.00147513
0.00141742
0.00136306
0.00131179
0.00126337
0.00121757
0.00117422
0.00113311
0.00109409
0.00105702
0.00102175
0.000988164
0.000956155
0.000925622
0.000896471
0.000868612
0.000841963
0.000816447
0.000791991
0.000768533
0.000746016
0.000724391
0.000703613
0.00068364
0.000664427
0.000645934
0.000628117
0.000610938
0.00059436
0.000578353
0.000562893
0.000547958
0.000533528
0.000519584
0.000506102
0.000493053
0.000480409
0.000468145
0.000456243
0.000444691
0.000433485
0.000422619
0.000412088
0.00040188
0.00039198
0.000382373
0.000373038
0.000363958
0.000355117
0.000346508
0.000338134
0.00033
0.000322112
0.000314463
0.00030703
0.000299788
0.00029271
0.000285788
0.000279026
0.000272437
0.000266032
0.000259811
0.00025377
0.000247898
0.000242187
0.000236625
0.000231197
0.000225882
0.000220667
0.000215555
0.000210565
0.000205725
0.000201051
0.000196529
0.000192121
0.000187781
0.000183479
0.000179219
0.000175032
0.000170955
0.000167012
0.000163203
0.000159507
0.0001559
0.000152362
0.000148883
0.000145455
0.000142071
0.00013873
0.000135444
0.000132242
0.000129153
0.00012619
0.000123331
0.000120526
0.000117715
0.000114863
0.000111984
0.000109128
0.000106359
0.000103713
0.000101185
9.87303e-05
9.62909e-05
9.38227e-05
9.13103e-05
8.87627e-05
8.62004e-05
8.36444e-05
8.11146e-05
7.86315e-05
7.62131e-05
7.38619e-05
7.15505e-05
6.92192e-05
6.67969e-05
6.42393e-05
6.15631e-05
5.88523e-05
5.6225e-05
5.37728e-05
5.15058e-05
4.93381e-05
4.7125e-05
4.47391e-05
4.21412e-05
3.94087e-05
3.67011e-05
3.41809e-05
3.19303e-05
2.99099e-05
2.7981e-05
2.59782e-05
2.37953e-05
2.14382e-05
1.90192e-05
1.66984e-05
1.46041e-05
1.27737e-05
1.1142e-05
9.5808e-06
7.96449e-06
6.22943e-06
4.39818e-06
2.56095e-06
8.27544e-07
-7.24648e-07
-2.08184e-06
-3.29245e-06
-4.4377e-06
-5.59142e-06
-6.78831e-06
-8.01404e-06
-9.21821e-06
-1.03412e-05
-1.13414e-05
-1.22099e-05
-1.29701e-05
-1.36628e-05
-1.4327e-05
-1.49847e-05
-1.56351e-05
-1.62598e-05
-1.68341e-05
-1.73392e-05
-1.77699e-05
-1.81357e-05
-1.84555e-05
-1.87495e-05
-1.90324e-05
-1.93089e-05
-1.9574e-05
-1.98175e-05
-2.00287e-05
-2.02008e-05
-2.03335e-05
-2.04326e-05
-2.05078e-05
-2.05693e-05
-2.06254e-05
-2.06806e-05
-2.07356e-05
-2.07884e-05
-2.08357e-05
-2.08747e-05
-2.09038e-05
-2.09234e-05
-2.09355e-05
-2.09428e-05
-2.09482e-05
-2.09538e-05
-2.09609e-05
-2.097e-05
-2.09806e-05
-2.09919e-05
-2.10031e-05
-2.10135e-05
-2.10227e-05
-2.10308e-05
-2.1038e-05
-2.10447e-05
-2.10513e-05
-2.10581e-05
-2.10651e-05
-2.10726e-05
-2.10803e-05
-2.10883e-05
-2.10963e-05
-2.11042e-05
-2.1112e-05
-2.11197e-05
-2.11272e-05
-2.11346e-05
-2.11419e-05
-2.11492e-05
-2.11565e-05
-2.11638e-05
-2.11711e-05
-2.11784e-05
-2.11858e-05
-2.11931e-05
-2.12004e-05
-2.12077e-05
-2.1215e-05
-2.12222e-05
-2.12294e-05
-2.12365e-05
-2.12436e-05
-2.12507e-05
-2.12577e-05
-2.12648e-05
-2.12718e-05
-2.12787e-05
-2.12857e-05
-2.12926e-05
-2.12995e-05
-2.13064e-05
-2.13132e-05
-2.132e-05
-2.13267e-05
-2.13335e-05
-2.13402e-05
-2.13468e-05
-2.13535e-05
-2.13601e-05
-2.13666e-05
-2.13731e-05
-2.13796e-05
-2.13861e-05
-2.13925e-05
-2.13989e-05
-2.14052e-05
-2.14115e-05
-2.14178e-05
-2.1424e-05
-2.14302e-05
-2.14364e-05
-2.14425e-05
-2.14486e-05
-2.14546e-05
-2.14606e-05
-2.14665e-05
-2.14724e-05
-2.14783e-05
-2.14841e-05
-2.14899e-05
-2.14956e-05
-2.15013e-05
-2.15069e-05
-2.15126e-05
-2.15181e-05
-2.15236e-05
-2.1529e-05
-2.15345e-05
-2.15398e-05
-2.15452e-05
-2.15504e-05
-2.15557e-05
-2.15608e-05
-2.1566e-05
-2.1571e-05
-2.15761e-05
-2.15809e-05
-2.1586e-05
-2.15907e-05
-2.15958e-05
-2.16003e-05
-2.16053e-05
-2.16096e-05
-2.16146e-05
-2.16187e-05
-2.16237e-05
-2.16276e-05
-2.16327e-05
-2.16362e-05
-2.16414e-05
-2.16446e-05
-2.165e-05
-2.16528e-05
-2.16584e-05
-2.16607e-05
-2.16667e-05
-2.16683e-05
-2.16748e-05
-2.16756e-05
-2.16829e-05
-2.16826e-05
-2.16909e-05
-2.16893e-05
-2.16989e-05