# vtk DataFile Version 2.0
FlowField
ASCII
DATASET STRUCTURED_GRID
DIMENSIONS 400 1 50
POINTS 20000 float
0 0 0
0.08 0 0
0.16 0 0
0.24 0 0
0.32 0 0
0.4 0 0
0.48 0 0
0.56 0 0
0.64 0 0
0.72 0 0
0.8 0 0
0.88 0 0
0.96 0 0
1.04 0 0
1.12 0 0
1.2 0 0
1.28 0 0
1.36 0 0
1.44 0 0
1.52 0 0
1.6 0 0
1.68 0 0
1.76 0 0
1.84 0 0
1.92 0 0
2 0 0
2.08 0 0
2.16 0 0
2.24 0 0
2.32 0 0
2.4 0 0
2.48 0 0
2.56 0 0
2.64 0 0
2.72 0 0
2.8 0 0
2.88 0 0
2.96 0 0
3.04 0 0
3.12 0 0
3.2 0 0
3.28 0 0
3.36 0 0
3.44 0 0
3.52 0 0
3.6 0 0
3.68 0 0
3.76 0 0
3.84 0 0
3.92 0 0
4 0 0
4.08 0 0
4.16 0 0
4.24 0 0
4.32 0 0
4.4 0 0
4.48 0 0
4.56 0 0
4.64 0 0
4.72 0 0
4.8 0 0
4.88 0 0
4.96 0 0
5.04 0 0
5.12 0 0
5.2 0 0
5.28 0 0
5.36 0 0
5.44 0 0
5.52 0 0
5.6 0 0
5.68 0 0
5.76 0 0
5.84 0 0
5.92 0 0
6 0 0
6.08 0 0
6.16 0 0
6.24 0 0
6.32 0 0
6.4 0 0
6.48 0 0
6.56 0 0
6.64 0 0
6.72 0 0
6.8 0 0
6.88 0 0
6.96 0 0
7.04 0 0
7.12 0 0
7.2 0 0
7.28 0 0
7.36 0 0
7.44 0 0
7.52 0 0
7.6 0 0
7.68 0 0
7.76 0 0
7.84 0 0
7.92 0 0
8 0 0
8.08 0 0
8.16 0 0
8.24 0 0
8.32 0 0
8.4 0 0
8.48 0 0
8.56 0 0
8.64 0 0
8.72 0 0
8.8 0 0
8.88 0 0
8.96 0 0
9.04 0 0
9.12 0 0
9.2 0 0
9.28 0 0
9.36 0 0
9.44 0 0
9.52 0 0
9.6 0 0
9.68 0 0
9.76 0 0
9.84 0 0
9.92 0 0
10 0 0
10.08 0 0
10.16 0 0
10.24 0 0
10.32 0 0
10.4 0 0
10.48 0 0
10.56 0 0
10.64 0 0
10.72 0 0
10.8 0 0
10.88 0 0
10.96 0 0
11.04 0 0
11.12 0 0
11.2 0 0
11.28 0 0
11.36 0 0
11.44 0 0
11.52 0 0
11.6 0 0
11.68 0 0
11.76 0 0
11.84 0 0
11.92 0 0
12 0 0
12.08 0 0
12.16 0 0
12.24 0 0
12.32 0 0
12.4 0 0
12.48 0 0
12.56 0 0
12.64 0 0
12.72 0 0
12.8 0 0
12.88 0 0
12.96 0 0
13.04 0 0
13.12 0 0
13.2 0 0
13.28 0 0
13.36 0 0
13.44 0 0
13.52 0 0
13.6 0 0
13.68 0 0
13.76 0 0
13.84 0 0
13.92 0 0
14 0 0
14.08 0 0
14.16 0 0
14.24 0 0
14.32 0 0
14.4 0 0
14.48 0 0
14.56 0 0
14.64 0 0
14.72 0 0
14.8 0 0
14.88 0 0
14.96 0 0
15.04 0 0
15.12 0 0
15.2 0 0
15.28 0 0
15.36 0 0
15.44 0 0
15.52 0 0
15.6 0 0
15.68 0 0
15.76 0 0
15.84 0 0
15.92 0 0
16 0 0
16.08 0 0
16.16 0 0
16.24 0 0
16.32 0 0
16.4 0 0
16.48 0 0
16.56 0 0
16.64 0 0
16.72 0 0
16.8 0 0
16.88 0 0
16.96 0 0
17.04 0 0
17.12 0 0
17.2 0 0
17.28 0 0
17.36 0 0
17.44 0 0
17.52 0 0
17.6 0 0
17.68 0 0
17.76 0 0
17.84 0 0
17.92 0 0
18 0 0
18.08 0 0
18.16 0 0
18.24 0 0
18.32 0 0
18.4 0 0
18.48 0 0
18.56 0 0
18.64 0 0
18.72 0 0
18.8 0 0
18.88 0 0
18.96 0 0
19.04 0 0
19.12 0 0
19.2 0 0
19.28 0 0
19.36 0 0
19.44 0 0
19.52 0 0
19.6 0 0
19.68 0 0
19.76 0 0
19.84 0 0
19.92 0 0
20 0 0
20.08 0 0
20.16 0 0
20.24 0 0
20.32 0 0
20.4 0 0
20.48 0 0
20.56 0 0
20.64 0 0
20.72 0 0
20.8 0 0
20.88 0 0
20.96 0 0
21.04 0 0
21.12 0 0
21.2 0 0
21.28 0 0
21.36 0 0
21.44 0 0
21.52 0 0
21.6 0 0
21.68 0 0
21.76 0 0
21.84 0 0
21.92 0 0
22 0 0
22.08 0 0
22.16 0 0
22.24 0 0
22.32 0 0
22.4 0 0
22.48 0 0
22.56 0 0
22.64 0 0
22.72 0 0
22.8 0 0
22.88 0 0
22.96 0 0
23.04 0 0
23.12 0 0
23.2 0 0
23.28 0 0
23.36 0 0
23.44 0 0
23.52 0 0
23.6 0 0
23.68 0 0
23.76 0 0
23.84 0 0
23.92 0 0
24 0 0
24.08 0 0
24.16 0 0
24.24 0 0
24.32 0 0
24.4 0 0
24.48 0 0
24.56 0 0
24.64 0 0
24.72 0 0
24.8 0 0
24.88 0 0
24.96 0 0
25.04 0 0
25.12 0 0
25.2 0 0
25.28 0 0
25.36 0 0
25.44 0 0
25.52 0 0
25.6 0 0
25.68 0 0
25.76 0 0
25.84 0 0
25.92 0 0
26 0 0
26.08 0 0
26.16 0 0
26.24 0 0
26.32 0 0
26.4 0 0
26.48 0 0
26.56 0 0
26.64 0 0
26.72 0 0
26.8 0 0
26.88 0 0
26.96 0 0
27.04 0 0
27.12 0 0
27.2 0 0
27.28 0 0
27.36 0 0
27.44 0 0
27.52 0 0
27.6 0 0
27.68 0 0
27.76 0 0
27.84 0 0
27.92 0 0
28 0 0
28.08 0 0
28.16 0 0
28.24 0 0
28.32 0 0
28.4 0 0
28.48 0 0
28.56 0 0
28.64 0 0
28.72 0 0
28.8 0 0
28.88 0 0
28.96 0 0
29.04 0 0
29.12 0 0
29.2 0 0
29.28 0 0
29.36 0 0
29.44 0 0
29.52 0 0
29.6 0 0
29.68 0 0
29.76 0 0
29.84 0 0
29.92 0 0
30 0 0
30.08 0 0
30.16 0 0
30.24 0 0
30.32 0 0
30.4 0 0
30.48 0 0
30.56 0 0
30.64 0 0
30.72 0 0
30.8 0 0
30.88 0 0
30.96 0 0
31.04 0 0
31.12 0 0
31.2 0 0
31.28 0 0
31.36 0 0
31.44 0 0
31.52 0 0
31.6 0 0
31.68 0 0
31.76 0 0
31.84 0 0
31.92 0 0
0 0.02 0
0.08 0.02 0
0.16 0.02 0
0.24 0.02 0
0.32 0.02 0
0.4 0.02 0
0.48 0.02 0
0.56 0.02 0
0.64 0.02 0
0.72 0.02 0
0.8 0.02 0
0.88 0.02 0
0.96 0.02 0
1.04 0.02 0
1.12 0.02 0
1.2 0.02 0
1.28 0.02 0
1.36 0.02 0
1.44 0.02 0
1.52 0.02 0
1.6 0.02 0
1.68 0.02 0
1.76 0.02 0
1.84 0.02 0
1.92 0.02 0
2 0.02 0
2.08 0.02 0
2.16 0.02 0
2.24 0.02 0
2.32 0.02 0
2.4 0.02 0
2.48 0.02 0
2.56 0.02 0
2.64 0.02 0
2.72 0.02 0
2.8 0.02 0
2.88 0.02 0
2.96 0.02 0
3.04 0.02 0
3.12 0.02 0
3.2 0.02 0
3.28 0.02 0
3.36 0.02 0
3.44 0.02 0
3.52 0.02 0
3.6 0.02 0
3.68 0.02 0
3.76 0.02 0
3.84 0.02 0
3.92 0.02 0
4 0.02 0
4.08 0.02 0
4.16 0.02 0
4.24 0.02 0
4.32 0.02 0
4.4 0.02 0
4.48 0.02 0
4.56 0.02 0
4.64 0.02 0
4.72 0.02 0
4.8 0.02 0
4.88 0.02 0
4.96 0.02 0
5.04 0.02 0
5.12 0.02 0
5.2 0.02 0
5.28 0.02 0
5.36 0.02 0
5.44 0.02 0
5.52 0.02 0
5.6 0.02 0
5.68 0.02 0
5.76 0.02 0
5.84 0.02 0
5.92 0.02 0
6 0.02 0
6.08 0.02 0
6.16 0.02 0
6.24 0.02 0
6.32 0.02 0
6.4 0.02 0
6.48 0.02 0
6.56 0.02 0
6.64 0.02 0
6.72 0.02 0
6.8 0.02 0
6.88 0.02 0
6.96 0.02 0
7.04 0.02 0
7.12 0.02 0
7.2 0.02 0
7.28 0.02 0
7.36 0.02 0
7.44 0.02 0
7.52 0.02 0
7.6 0.02 0
7.68 0.02 0
7.76 0.02 0
7.84 0.02 0
7.92 0.02 0
8 0.02 0
8.08 0.02 0
8.16 0.02 0
8.24 0.02 0
8.32 0.02 0
8.4 0.02 0
8.48 0.02 0
8.56 0.02 0
8.64 0.02 0
8.72 0.02 0
8.8 0.02 0
8.88 0.02 0
8.96 0.02 0
9.04 0.02 0
9.12 0.02 0
9.2 0.02 0
9.28 0.02 0
9.36 0.02 0
9.44 0.02 0
9.52 0.02 0
9.6 0.02 0
9.68 0.02 0
9.76 0.02 0
9.84 0.02 0
9.92 0.02 0
10 0.02 0
10.08 0.02 0
10.16 0.02 0
10.24 0.02 0
10.32 0.02 0
10.4 0.02 0
10.48 0.02 0
10.56 0.02 0
10.64 0.02 0
10.72 0.02 0
10.8 0.02 0
10.88 0.02 0
10.96 0.02 0
11.04 0.02 0
11.12 0.02 0
11.2 0.02 0
11.28 0.02 0
11.36 0.02 0
11.44 0.02 0
11.52 0.02 0
11.6 0.02 0
11.68 0.02 0
11.76 0.02 0
11.84 0.02 0
11.92 0.02 0
12 0.02 0
12.08 0.02 0
12.16 0.02 0
12.24 0.02 0
12.32 0.02 0
12.4 0.02 0
12.48 0.02 0
12.56 0.02 0
12.64 0.02 0
12.72 0.02 0
12.8 0.02 0
12.88 0.02 0
12.96 0.02 0
13.04 0.02 0
13.12 0.02 0
13.2 0.02 0
13.28 0.02 0
13.36 0.02 0
13.44 0.02 0
13.52 0.02 0
13.6 0.02 0
13.68 0.02 0
13.76 0.02 0
13.84 0.02 0
13.92 0.02 0
14 0.02 0
14.08 0.02 0
14.16 0.02 0
14.24 0.02 0
14.32 0.02 0
14.4 0.02 0
14.48 0.02 0
14.56 0.02 0
14.64 0.02 0
14.72 0.02 0
14.8 0.02 0
14.88 0.02 0
14.96 0.02 0
15.04 0.02 0
15.12 0.02 0
15.2 0.02 0
15.28 0.02 0
15.36 0.02 0
15.44 0.02 0
15.52 0.02 0
15.6 0.02 0
15.68 0.02 0
15.76 0.02 0
15.84 0.02 0
15.92 0.02 0
16 0.02 0
16.08 0.02 0
16.16 0.02 0
16.24 0.02 0
16.32 0.02 0
16.4 0.02 0
16.48 0.02 0
16.56 0.02 0
16.64 0.02 0
16.72 0.02 0
16.8 0.02 0
16.88 0.02 0
16.96 0.02 0
17.04 0.02 0
17.12 0.02 0
17.2 0.02 0
17.28 0.02 0
17.36 0.02 0
17.44 0.02 0
17.52 0.02 0
17.6 0.02 0
17.68 0.02 0
17.76 0.02 0
17.84 0.02 0
17.92 0.02 0
18 0.02 0
18.08 0.02 0
18.16 0.02 0
18.24 0.02 0
18.32 0.02 0
18.4 0.02 0
18.48 0.02 0
18.56 0.02 0
18.64 0.02 0
18.72 0.02 0
18.8 0.02 0
18.88 0.02 0
18.96 0.02 0
19.04 0.02 0
19.12 0.02 0
19.2 0.02 0
19.28 0.02 0
19.36 0.02 0
19.44 0.02 0
19.52 0.02 0
19.6 0.02 0
19.68 0.02 0
19.76 0.02 0
19.84 0.02 0
19.92 0.02 0
20 0.02 0
20.08 0.02 0
20.16 0.02 0
20.24 0.02 0
20.32 0.02 0
20.4 0.02 0
20.48 0.02 0
20.56 0.02 0
20.64 0.02 0
20.72 0.02 0
20.8 0.02 0
20.88 0.02 0
20.96 0.02 0
21.04 0.02 0
21.12 0.02 0
21.2 0.02 0
21.28 0.02 0
21.36 0.02 0
21.44 0.02 0
21.52 0.02 0
21.6 0.02 0
21.68 0.02 0
21.76 0.02 0
21.84 0.02 0
21.92 0.02 0
22 0.02 0
22.08 0.02 0
22.16 0.02 0
22.24 0.02 0
22.32 0.02 0
22.4 0.02 0
22.48 0.02 0
22.56 0.02 0
22.64 0.02 0
22.72 0.02 0
22.8 0.02 0
22.88 0.02 0
22.96 0.02 0
23.04 0.02 0
23.12 0.02 0
23.2 0.02 0
23.28 0.02 0
23.36 0.02 0
23.44 0.02 0
23.52 0.02 0
23.6 0.02 0
23.68 0.02 0
23.76 0.02 0
23.84 0.02 0
23.92 0.02 0
24 0.02 0
24.08 0.02 0
24.16 0.02 0
24.24 0.02 0
24.32 0.02 0
24.4 0.02 0
24.48 0.02 0
24.56 0.02 0
24.64 0.02 0
24.72 0.02 0
24.8 0.02 0
24.88 0.02 0
24.96 0.02 0
25.04 0.02 0
25.12 0.02 0
25.2 0.02 0
25.28 0.02 0
25.36 0.02 0
25.44 0.02 0
25.52 0.02 0
25.6 0.02 0
25.68 0.02 0
25.76 0.02 0
25.84 0.02 0
25.92 0.02 0
26 0.02 0
26.08 0.02 0
26.16 0.02 0
26.24 0.02 0
26.32 0.02 0
26.4 0.02 0
26.48 0.02 0
26.56 0.02 0
26.64 0.02 0
26.72 0.02 0
26.8 0.02 0
26.88 0.02 0
26.96 0.02 0
27.04 0.02 0
27.12 0.02 0
27.2 0.02 0
27.28 0.02 0
27.36 0.02 0
27.44 0.02 0
27.52 0.02 0
27.6 0.02 0
27.68 0.02 0
27.76 0.02 0
27.84 0.02 0
27.92 0.02 0
28 0.02 0
28.08 0.02 0
28.16 0.02 0
28.24 0.02 0
28.32 0.02 0
28.4 0.02 0
28.48 0.02 0
28.56 0.02 0
28.64 0.02 0
28.72 0.02 0
28.8 0.02 0
28.88 0.02 0
28.96 0.02 0
29.04 0.02 0
29.12 0.02 0
29.2 0.02 0
29.28 0.02 0
29.36 0.02 0
29.44 0.02 0
29.52 0.02 0
29.6 0.02 0
29.68 0.02 0
29.76 0.02 0
29.84 0.02 0
29.92 0.02 0
30 0.02 0
30.08 0.02 0
30.16 0.02 0
30.24 0.02 0
30.32 0.02 0
30.4 0.02 0
30.48 0.02 0
30.56 0.02 0
30.64 0.02 0
30.72 0.02 0
30.8 0.02 0
30.88 0.02 0
30.96 0.02 0
31.04 0.02 0
31.12 0.02 0
31.2 0.02 0
31.28 0.02 0
31.36 0.02 0
31.44 0.02 0
31.52 0.02 0
31.6 0.02 0
31.68 0.02 0
31.76 0.02 0
31.84 0.02 0
31.92 0.02 0
0 0.04 0
0.08 0.04 0
0.16 0.04 0
0.24 0.04 0
0.32 0.04 0
0.4 0.04 0
0.48 0.04 0
0.56 0.04 0
0.64 0.04 0
0.72 0.04 0
0.8 0.04 0
0.88 0.04 0
0.96 0.04 0
1.04 0.04 0
1.12 0.04 0
1.2 0.04 0
1.28 0.04 0
1.36 0.04 0
1.44 0.04 0
1.52 0.04 0
1.6 0.04 0
1.68 0.04 0
1.76 0.04 0
1.84 0.04 0
1.92 0.04 0
2 0.04 0
2.08 0.04 0
2.16 0.04 0
2.24 0.04 0
2.32 0.04 0
2.4 0.04 0
2.48 0.04 0
2.56 0.04 0
2.64 0.04 0
2.72 0.04 0
2.8 0.04 0
2.88 0.04 0
2.96 0.04 0
3.04 0.04 0
3.12 0.04 0
3.2 0.04 0
3.28 0.04 0
3.36 0.04 0
3.44 0.04 0
3.52 0.04 0
3.6 0.04 0
3.68 0.04 0
3.76 0.04 0
3.84 0.04 0
3.92 0.04 0
4 0.04 0
4.08 0.04 0
4.16 0.04 0
4.24 0.04 0
4.32 0.04 0
4.4 0.04 0
4.48 0.04 0
4.56 0.04 0
4.64 0.04 0
4.72 0.04 0
4.8 0.04 0
4.88 0.04 0
4.96 0.04 0
5.04 0.04 0
5.12 0.04 0
5.2 0.04 0
5.28 0.04 0
5.36 0.04 0
5.44 0.04 0
5.52 0.04 0
5.6 0.04 0
5.68 0.04 0
5.76 0.04 0
5.84 0.04 0
5.92 0.04 0
6 0.04 0
6.08 0.04 0
6.16 0.04 0
6.24 0.04 0
6.32 0.04 0
6.4 0.04 0
6.48 0.04 0
6.56 0.04 0
6.64 0.04 0
6.72 0.04 0
6.8 0.04 0
6.88 0.04 0
6.96 0.04 0
7.04 0.04 0
7.12 0.04 0
7.2 0.04 0
7.28 0.04 0
7.36 0.04 0
7.44 0.04 0
7.52 0.04 0
7.6 0.04 0
7.68 0.04 0
7.76 0.04 0
7.84 0.04 0
[...]
POINT_DATA 20000

SCALARS p float 1
LOOKUP_TABLE default
1
188.514
188.283
188.216
188.191
188.176
188.164
188.153
188.144
188.135
188.126
188.118
188.11
188.102
188.094
188.087
188.08
188.073
188.067
188.06
188.054
188.048
188.043
188.037
188.032
188.026
188.021
188.016
188.012
188.007
188.003
187.998
187.994
187.99
187.986
187.982
187.979
187.975
187.972
187.968
187.965
187.962
187.959
187.956
187.953
187.951
187.948
187.946
187.943
187.941
187.939
187.937
187.935
187.933
187.931
187.93
187.928
187.927
187.925
187.924
187.923
187.922
187.921
187.92
187.92
187.919
187.918
187.918
187.918
187.917
187.917
187.917
187.917
187.917
187.917
187.918
187.918
187.918
187.919
187.919
187.92
187.92
187.921
187.922
187.922
187.923
187.924
187.925
187.926
187.927
187.929
187.93
187.931
187.932
187.934
187.935
187.937
187.938
187.94
187.941
187.943
187.944
187.946
187.948
187.95
187.952
187.953
187.955
187.957
187.959
187.961
187.963
187.965
187.968
187.97
187.972
187.974
187.977
187.979
187.981
187.984
187.986
187.989
187.991
187.994
187.996
187.999
188.001
188.004
188.007
188.01
188.012
188.015
188.018
188.021
188.024
188.027
188.03
188.032
188.035
188.038
188.042
188.045
188.048
188.051
188.054
188.057
188.06
188.063
188.067
188.07
188.073
188.076
188.08
188.083
188.086
188.09
188.093
188.096
188.1
188.103
188.107
188.11
188.114
188.117
188.12
188.124
188.127
188.131
188.134
188.138
188.141
188.145
188.149
188.152
188.156
188.159
188.163
188.166
188.17
188.173
188.177
188.181
188.184
188.188
188.191
188.195
188.198
188.202
188.205
188.209
188.212
188.216
188.219
188.223
188.226
188.23
188.233
188.237
188.24
188.244
188.247
188.251
188.254
188.257
188.261
188.264
188.268
188.271
188.274
188.278
188.281
188.284
188.287
188.291
188.294
188.297
188.3
188.303
188.306
188.309
188.312
188.315
188.318
188.321
188.324
188.327
188.33
188.333
188.336
188.339
188.341
188.344
188.347
188.35
188.352
188.355
188.357
188.36
188.363
188.365
188.367
188.37
188.372
188.375
188.377
188.379
188.381
188.384
188.386
188.388
188.39
188.392
188.394
188.396
188.398
188.4
188.401
188.403
188.405
188.407
188.408
188.41
188.411
188.413
188.414
188.416
188.417
188.418
188.42
188.421
188.422
188.423
188.424
188.425
188.426
188.427
188.428
188.429
188.43
188.431
188.431
188.432
188.432
188.433
188.433
188.434
188.434
188.435
188.435
188.435
188.435
188.435
188.435
188.435
188.435
188.435
188.435
188.435
188.435
188.434
188.434
188.433
188.433
188.432
188.432
188.431
188.43
188.43
188.429
188.428
188.427
188.426
188.425
188.424
188.422
188.421
188.42
188.419
188.417
188.416
188.414
188.413
188.411
188.409
188.407
188.406
188.404
188.402
188.4
188.398
188.396
188.393
188.391
188.389
188.387
188.384
188.382
188.379
188.377
188.374
188.371
188.368
188.366
188.363
188.36
188.357
188.354
188.35
188.347
188.344
188.341
188.337
188.334
188.33
188.327
188.323
188.319
188.316
188.312
188.308
188.304
188.3
188.296
188.292
188.288
188.283
188.279
188.275
188.27
188.266
188.261
188.257
188.252
188.247
188.242
188.237
188.232
188.227
188.222
188.217
188.212
188.207
188.202
188.196
188.191
188.185
188.18
188.174
188.168
188.163
188.157
188.151
188.145
188.139
188.133
188.127
188.12
188.114
0.5
188.514
188.514
188.283
188.216
188.191
188.176
188.164
188.153
188.144
188.135
188.126
188.118
188.11
188.102
188.094
188.087
188.08
188.073
188.067
188.06
188.054
188.048
188.043
188.037
188.032
188.026
188.021
188.016
188.012
188.007
188.003
187.998
187.994
187.99
187.986
187.982
187.979
187.975
187.972
187.968
187.965
187.962
187.959
187.956
187.953
187.951
187.948
187.946
187.943
187.941
187.939
187.937
187.935
187.933
187.931
187.93
187.928
187.927
187.925
187.924
187.923
187.922
187.921
187.92
187.92
187.919
187.918
187.918
187.918
187.917
187.917
187.917
187.917
187.917
187.917
187.918
187.918
187.918
187.919
187.919
187.92
187.92
187.921
187.922
187.922
187.923
187.924
187.925
187.926
187.927
187.929
187.93
187.931
187.932
187.934
187.935
187.937
187.938
187.94
187.941
187.943
187.944
187.946
187.948
187.95
187.952
187.953
187.955
187.957
187.959
187.961
187.963
187.965
187.968
187.97
187.972
187.974
187.977
187.979
187.981
187.984
187.986
187.989
187.991
187.994
187.996
187.999
188.001
188.004
188.007
188.01
188.012
188.015
188.018
188.021
188.024
188.027
188.03
188.032
188.035
188.038
188.042
188.045
188.048
188.051
188.054
188.057
188.06
188.063
188.067
188.07
188.073
188.076
188.08
188.083
188.086
188.09
188.093
188.096
188.1
188.103
188.107
188.11
188.114
188.117
188.12
188.124
188.127
188.131
188.134
188.138
188.141
188.145
188.149
188.152
188.156
188.159
188.163
188.166
188.17
188.173
188.177
188.181
188.184
188.188
188.191
188.195
188.198
188.202
188.205
188.209
188.212
188.216
188.219
188.223
188.226
188.23
188.233
188.237
188.24
188.244
188.247
188.251
188.254
188.257
188.261
188.264
188.268
188.271
188.274
188.278
188.281
188.284
188.287
188.291
188.294
188.297
188.3
188.303
188.306
188.309
188.312
188.315
188.318
188.321
188.324
188.327
188.33
188.333
188.336
188.339
188.341
188.344
188.347
188.35
188.352
188.355
188.357
188.36
188.363
188.365
188.367
188.37
188.372
188.375
188.377
188.379
188.381
188.384
188.386
188.388
188.39
188.392
188.394
188.396
188.398
188.4
188.401
188.403
188.405
188.407
188.408
188.41
188.411
188.413
188.414
188.416
188.417
188.418
188.42
188.421
188.422
188.423
188.424
188.425
188.426
188.427
188.428
188.429
188.43
188.431
188.431
188.432
188.432
188.433
188.433
188.434
188.434
188.435
188.435
188.435
188.435
188.435
188.435
188.435
188.435
188.435
188.435
188.435
188.435
188.434
188.434
188.433
188.433
188.432
188.432
188.431
188.43
188.43
188.429
188.428
188.427
188.426
188.425
188.424
188.422
188.421
188.42
188.419
188.417
188.416
188.414
188.413
188.411
188.409
188.407
188.406
188.404
188.402
188.4
188.398
188.396
188.393
188.391
188.389
188.387
188.384
188.382
188.379
188.377
188.374
188.371
188.368
188.366
188.363
188.36
188.357
188.354
188.35
188.347
188.344
188.341
188.337
188.334
188.33
188.327
188.323
188.319
188.316
188.312
188.308
188.304
188.3
188.296
188.292
188.288
188.283
188.279
188.275
188.27
188.266
188.261
188.257
188.252
188.247
188.242
188.237
188.232
188.227
188.222
188.217
188.212
188.207
188.202
188.196
188.191
188.185
188.18
188.174
188.168
188.163
188.157
188.151
188.145
188.139
188.133
188.127
188.12
188.114
188.114
188.464
188.464
188.288
188.221
188.194
188.178
188.165
188.154
188.144
188.135
188.126
188.118
188.11
188.102
188.095
188.087
188.08
188.074
188.067
188.061
188.054
188.048
188.043
188.037
188.032
188.026
188.021
188.016
188.012
188.007
188.003
187.998
187.994
187.99
187.986
187.982
187.979
187.975
187.972
187.968
187.965
187.962
187.959
187.956
187.953
187.951
187.948
187.946
187.943
187.941
187.939
187.937
187.935
187.933
187.931
187.93
187.928
187.927
187.925
187.924
187.923
187.922
187.921
187.92
187.92
187.919
187.918
187.918
187.918
187.917
187.917
187.917
187.917
187.917
187.917
187.918
187.918
187.918
187.919
187.919
187.92
187.92
187.921
187.922
187.922
187.923
187.924
187.925
187.926
187.927
187.929
187.93
187.931
187.932
187.934
187.935
187.937
187.938
187.94
187.941
187.943
187.944
187.946
187.948
187.95
187.952
187.953
187.955
187.957
187.959
187.961
187.963
187.965
187.968
187.97
187.972
187.974
187.977
187.979
187.981
187.984
187.986
187.989
187.991
187.994
187.996
187.999
188.001
188.004
188.007
188.01
188.012
188.015
188.018
188.021
188.024
188.027
188.03
188.032
188.035
188.038
188.042
188.045
188.048
188.051
188.054
188.057
188.06
188.063
188.067
188.07
188.073
188.076
188.08
188.083
188.086
188.09
188.093
188.096
188.1
188.103
188.107
188.11
188.114
188.117
188.121
188.124
188.127
188.131
188.134
188.138
188.142
188.145
188.149
188.152
188.156
188.159
188.163
188.166
188.17
188.173
188.177
188.181
188.184
188.188
188.191
188.195
188.198
188.202
188.205
188.209
188.212
188.216
188.219
188.223
188.227
188.23
188.233
188.237
188.24
188.244
188.247
188.251
188.254
188.258
188.261
188.264
188.268
188.271
188.274
188.278
188.281
188.284
188.287
188.291
188.294
188.297
188.3
188.303
188.306
188.309
188.312
188.315
188.318
188.321
188.324
188.327
188.33
188.333
188.336
188.339
188.341
188.344
188.347
188.35
188.352
188.355
188.358
188.36
188.363
188.365
188.367
188.37
188.372
188.375
188.377
188.379
188.381
188.384
188.386
188.388
188.39
188.392
188.394
188.396
188.398
188.4
188.401
188.403
188.405
188.407
188.408
188.41
188.411
188.413
188.414
188.416
188.417
188.418
188.42
188.421
188.422
188.423
188.424
188.425
188.426
188.427
188.428
188.429
188.43
188.431
188.431
188.432
188.432
188.433
188.433
188.434
188.434
188.435
188.435
188.435
188.435
188.435
188.435
188.435
188.435
188.435
188.435
188.435
188.435
188.434
188.434
188.433
188.433
188.432
188.432
188.431
188.43
188.43
188.429
188.428
188.427
188.426
188.425
188.424
188.423
188.421
188.42
188.419
188.417
188.416
188.414
188.413
188.411
188.409
188.408
188.406
188.404
188.402
188.4
188.398
188.396
188.393
188.391
188.389
188.387
188.384
188.382
188.379
188.377
188.374
188.371
188.368
188.366
188.363
188.36
188.357
188.354
188.35
188.347
188.344
188.341
188.337
188.334
188.33
188.327
188.323
188.319
188.316
188.312
188.308
188.304
188.3
188.296
188.292
188.288
188.283
188.279
188.275
188.27
188.266
188.261
188.257
188.252
188.247
188.242
188.237
188.233
188.228
188.222
188.217
188.212
188.207
188.202
188.196
188.191
188.185
188.18
188.174
188.168
188.163
188.157
188.151
188.145
188.139
188.133
188.127
188.12
188.114
188.114
188.424
188.424
188.291
188.226
188.197
188.179
188.166
188.155
188.145
188.136
188.127
188.118
188.11
188.102
188.095
188.088
188.08
188.074
188.067
188.061
188.055
188.049
188.043
188.037
188.032
188.027
188.021
188.017
188.012
188.007
188.003
187.998
187.994
187.99
187.986
187.982
187.979
187.975
187.972
187.968
187.965
187.962
187.959
187.956
187.953
187.951
187.948
187.946
187.943
187.941
187.939
187.937
187.935
187.933
187.931
187.93
187.928
187.927
187.925
187.924
187.923
187.922
187.921
187.92
187.92
187.919
187.918
187.918
187.918
187.917
187.917
187.917
187.917
187.917
187.917
187.918
187.918
187.918
187.919
187.919
187.92
187.92
187.921
187.922
187.922
187.923
187.924
187.925
187.926
187.927
187.929
187.93
187.931
187.932
187.934
187.935
187.937
187.938
187.94
187.941
187.943
187.944
187.946
187.948
187.95
187.952
187.953
187.955
187.957
187.959
187.961
187.963
187.966
187.968
187.97
187.972
187.974
187.977
187.979
187.981
187.984
187.986
187.989
187.991
187.994
187.996
187.999
188.001
188.004
188.007
188.01
188.012
188.015
188.018
188.021
188.024
188.027
188.03
188.033
188.035
188.039
188.042
188.045
188.048
188.051
188.054
188.057
188.06
188.063
188.067
188.07
188.073
188.076
188.08
188.083
188.086
188.09
188.093
188.096
188.1
188.103
188.107
188.11
188.114
188.117
188.121
188.124
188.127
188.131
188.134
188.138
188.142
188.145
188.149
188.152
188.156
188.159
188.163
188.166
188.17
188.173
188.177
188.181
188.184
188.188
188.191
188.195
188.198
188.202
188.205
188.209
188.212
188.216
188.219
188.223
188.227
188.23
188.233
188.237
188.24
188.244
188.247
188.251
188.254
188.258
188.261
188.264
188.268
188.271
188.274
188.278
188.281
188.284
188.287
188.291
188.294
188.297
188.3
188.303
188.306
188.309
188.312
188.315
188.318
188.321
188.324
188.327
188.33
188.333
188.336
188.339
188.341
188.344
188.347
188.35
188.352
188.355
188.357
188.36
188.363
188.365
188.367
188.37
188.372
188.375
188.377
188.379
188.381
188.384
188.386
188.388
188.39
188.392
188.394
188.396
188.398
188.4
188.401
188.403
188.405
188.407
188.408
188.41
188.411
188.413
188.414
188.416
188.417
188.418
188.42
188.421
188.422
188.423
188.424
188.425
188.426
188.427
188.428
188.429
188.43
188.431
188.431
188.432
188.432
188.433
188.433
188.434
188.434
188.435
188.435
188.435
188.435
188.435
188.435
188.435
188.435
188.435
188.435
188.435
188.435
188.434
188.434
188.433
188.433
188.432
188.432
188.431
188.43
188.43
188.429
188.428
188.427
188.426
188.425
188.424
188.422
188.421
188.42
188.419
188.417
188.416
188.414
188.413
188.411
188.409
188.407
188.406
188.404
188.402
188.4
188.398
188.396
188.393
188.391
188.389
188.387
188.384
188.382
188.379
188.377
188.374
188.371
188.368
188.366
188.363
188.36
188.357
188.354
188.35
188.347
188.344
188.341
188.337
188.334
188.33
188.327
188.323
188.319
188.316
188.312
188.308
188.304
188.3
188.296
188.292
188.288
188.283
188.279
188.275
188.27
188.266
188.261
188.257
188.252
188.247
188.242
188.237
188.232
188.227
188.222
188.217
188.212
188.207
188.202
188.196
188.191
188.185
188.18
188.174
188.168
188.163
188.157
188.151
188.145
188.139
188.133
188.127
188.12
188.114
188.114
188.392
188.392
188.292
188.231
188.2
188.181
188.168
188.156
188.146
188.136
188.127
188.119
188.11
188.103
188.095
188.088
188.081
188.074
188.067
188.061
188.055
188.049
188.043
188.037
188.032
188.027
188.022
188.017
188.012
188.007
188.003
187.998
187.994
187.99
187.986
187.982
187.979
187.975
187.972
187.968
187.965
187.962
187.959
187.956
187.953
187.951
187.948
187.946
187.943
187.941
187.939
187.937
187.935
187.933
187.931
187.93
187.928
187.927
187.925
187.924
187.923
187.922
187.921
187.92
187.92
187.919
187.918
187.918
187.918
187.917
187.917
187.917
187.917
187.917
187.917
187.918
187.918
187.918
187.919
187.919
187.92
187.92
187.921
187.922
187.922
187.923
187.924
187.925
187.926
187.927
187.929
187.93
187.931
187.932
187.934
187.935
187.937
187.938
187.94
187.941
187.943
187.944
187.946
187.948
187.95
187.952
187.953
187.955
187.957
187.959
187.961
187.963
187.966
187.968
187.97
187.972
187.974
187.977
187.979
187.981
187.984
187.986
187.989
187.991
187.994
187.996
187.999
188.001
188.004
188.007
188.01
188.012
188.015
188.018
188.021
188.024
188.027
188.03
188.033
188.035
188.039
188.042
188.045
188.048
188.051
188.054
188.057
188.06
188.063
188.067
188.07
188.073
188.076
188.08
188.083
188.086
188.09
188.093
188.096
188.1
188.103
188.107
188.11
188.114
188.117
188.121
188.124
188.127
188.131
188.134
188.138
188.142
188.145
188.149
188.152
188.156
188.159
188.163
188.166
188.17
188.173
188.177
188.181
188.184
188.188
188.191
188.195
188.198
188.202
188.205
188.209
188.212
188.216
188.219
188.223
188.227
188.23
188.233
188.237
188.24
188.244
188.247
188.251
188.254
188.258
188.261
188.264
188.268
188.271
188.274
188.278
188.281
188.284
188.287
188.291
188.294
188.297
188.3
188.303
188.306
188.309
188.312
188.315
188.318
188.321
188.324
188.327
188.33
188.333
188.336
188.339
188.341
188.344
188.347
188.35
188.352
188.355
188.357
188.36
188.363
188.365
188.367
188.37
188.372
188.375
188.377
188.379
188.381
188.384
188.386
188.388
188.39
188.392
188.394
188.396
188.398
188.4
188.401
188.403
188.405
188.407
188.408
188.41
188.411
188.413
188.414
188.416
188.417
188.418
188.42
188.421
188.422
188.423
188.424
188.425
188.426
188.427
188.428
188.429
188.43
188.431
188.431
188.432
188.432
188.433
188.433
188.434
188.434
188.435
188.435
188.435
188.435
188.435
188.435
188.435
188.435
188.435
188.435
188.435
188.435
188.434
188.434
188.433
188.433
188.432
188.432
188.431
188.43
188.43
188.429
188.428
188.427
188.426
188.425
188.424
188.422
188.421
188.42
188.419
188.417
188.416
188.414
188.413
188.411
188.409
188.407
188.406
188.404
188.402
188.4
188.398
188.396
188.393
188.391
188.389
188.387
188.384
188.382
188.379
188.377
188.374
188.371
188.368
188.366
188.363
188.36
188.357
188.354
188.35
188.347
188.344
188.341
188.337
188.334
188.33
188.327
188.323
188.319
188.316
188.312
188.308
188.304
188.3
188.296
188.292
188.288
188.283
188.279
188.275
188.27
188.266
188.261
188.257
188.252
188.247
188.242
188.237
188.232
188.227
188.222
188.217
188.212
188.207
188.202
188.196
188.191
188.185
188.18
188.174
188.168
188.163
188.157
188.151
188.145
188.139
188.133
188.127
188.12
188.114
188.114
188.367
188.367
188.29
188.235
188.204
188.184
188.169
188.157
188.147
188.137
188.128
188.119
188.111
188.103
188.095
188.088
188.081
188.074
188.067
188.061
188.055
188.049
188.043
188.037
188.032
188.027
188.022
188.017
188.012
188.007
188.003
187.999
187.994
187.99
187.986
187.983
187.979
187.975
187.972
187.969
187.965
187.962
187.959
187.956
187.953
187.951
187.948
187.946
187.943
187.941
187.939
187.937
187.935
187.933
187.931
187.93
187.928
187.927
187.925
187.924
187.923
187.922
187.921
187.92
187.92
187.919
187.918
187.918
187.918
187.917
187.917
187.917
187.917
187.917
187.917
187.918
187.918
187.918
187.919
187.919
187.92
187.92
187.921
187.922
187.922
187.923
187.924
187.925
187.926
187.927
187.929
187.93
187.931
187.932
187.934
187.935
187.937
187.938
187.94
187.941
187.943
187.944
187.946
187.948
187.95
187.952
187.953
187.955
187.957
187.959
187.961
187.963
187.966
187.968
187.97
187.972
187.974
187.977
187.979
187.981
187.984
187.986
187.989
187.991
187.994
187.996
187.999
188.002
188.004
188.007
188.01
188.012
188.015
188.018
188.021
188.024
188.027
188.03
188.033
188.035
188.039
188.042
188.045
188.048
188.051
188.054
188.057
188.06
188.063
188.067
188.07
188.073
188.076
188.08
188.083
188.086
188.09
188.093
188.096
188.1
188.103
188.107
188.11
188.114
188.117
188.121
188.124
188.127
188.131
188.134
188.138
188.142
188.145
188.149
188.152
188.156
188.159
188.163
188.166
188.17
188.173
188.177
188.181
188.184
188.188
188.191
188.195
188.198
188.202
188.205
188.209
188.212
188.216
188.219
188.223
188.227
188.23
188.233
188.237
188.24
188.244
188.247
188.251
188.254
188.257
188.261
188.264
188.268
188.271
188.274
188.278
188.281
188.284
188.287
188.291
188.294
188.297
188.3
188.303
188.306
188.309
188.312
188.315
188.318
188.321
188.324
188.327
188.33
188.333
188.336
188.339
188.341
188.344
188.347
188.35
188.352
188.355
188.357
188.36
188.363
188.365
188.367
188.37
188.372
188.375
188.377
188.379
188.381
188.384
188.386
188.388
188.39
188.392
188.394
188.396
188.398
188.4
188.401
188.403
188.405
188.407
188.408
188.41
188.411
188.413
188.414
188.416
188.417
188.418
188.42
188.421
188.422
188.423
188.424
188.425
188.426
188.427
188.428
188.429
188.43
188.431
188.431
188.432
188.432
188.433
188.433
188.434
188.434
188.435
188.435
188.435
188.435
188.435
188.435
188.435
188.435
188.435
188.435
188.435
188.435
188.434
188.434
188.433
188.433
188.432
188.432
188.431
188.43
188.43
188.429
188.428
188.427
188.426
188.425
188.424
188.422
188.421
188.42
188.419
188.417
188.416
188.414
188.413
188.411
188.409
188.407
188.406
188.404
188.402
188.4
188.398
188.396
188.393
188.391
188.389
188.387
188.384
188.382
188.379
188.377
188.374
188.371
188.368
188.366
188.363
188.36
188.357
188.354
188.35
188.347
188.344
188.341
188.337
188.334
188.33
188.327
188.323
188.319
188.316
188.312
188.308
188.304
188.3
188.296
188.292
188.288
188.283
188.279
188.275
188.27
188.266
188.261
188.257
188.252
188.247
188.242
188.237
188.232
188.227
188.222
188.217
188.212
188.207
188.202
188.196
188.191
188.185
188.18
188.174
188.168
188.163
188.157
188.151
188.145
188.139
188.133
188.127
188.12
188.114
188.114
188.345
188.345
188.286
188.238
188.207
188.187
188.171
188.159
188.148
188.138
188.128
188.12
188.111
188.103
188.096
188.088
188.081
188.074
188.068
188.061
188.055
188.049
188.043
188.038
188.032
188.027
188.022
188.017
188.012
188.007
188.003
187.999
187.994
187.99
187.986
187.983
187.979
187.975
187.972
187.969
187.965
187.962
187.959
187.956
187.954
187.951
187.948
187.946
187.943
187.941
187.939
187.937
187.935
187.933
187.931
187.93
187.928
187.927
187.925
187.924
187.923
187.922
187.921
187.92
187.92
187.919
187.918
187.918
187.918
187.917
187.917
187.917
187.917
187.917
187.917
187.918
187.918
187.918
187.919
187.919
187.92
187.92
187.921
187.922
187.922
187.923
187.924
187.925
187.926
187.927
187.929
187.93
187.931
187.932
187.934
187.935
187.937
187.938
187.94
187.941
187.943
187.944
187.946
187.948
187.95
187.952
187.953
187.955
187.957
187.959
187.961
187.963
187.966
187.968
187.97
187.972
187.974
187.977
187.979
187.981
187.984
187.986
187.989
187.991
187.994
187.996
187.999
188.002
188.004
188.007
188.01
188.012