# vtk DataFile Version 2.0
FlowField
ASCII
DATASET STRUCTURED_GRID
DIMENSIONS 400 1 50
POINTS 20000 float
0 0 0
0.08 0 0
0.16 0 0
0.24 0 0
0.32 0 0
0.4 0 0
0.48 0 0
0.56 0 0
0.64 0 0
0.72 0 0
0.8 0 0
0.88 0 0
0.96 0 0
1.04 0 0
1.12 0 0
1.2 0 0
1.28 0 0
1.36 0 0
1.44 0 0
1.52 0 0
1.6 0 0
1.68 0 0
1.76 0 0
1.84 0 0
1.92 0 0
2 0 0
2.08 0 0
2.16 0 0
2.24 0 0
2.32 0 0
2.4 0 0
2.48 0 0
2.56 0 0
2.64 0 0
2.72 0 0
2.8 0 0
2.88 0 0
2.96 0 0
3.04 0 0
3.12 0 0
3.2 0 0
3.28 0 0
3.36 0 0
3.44 0 0
3.52 0 0
3.6 0 0
3.68 0 0
3.76 0 0
3.84 0 0
3.92 0 0
4 0 0
4.08 0 0
4.16 0 0
4.24 0 0
4.32 0 0
4.4 0 0
4.48 0 0
4.56 0 0
4.64 0 0
4.72 0 0
4.8 0 0
4.88 0 0
4.96 0 0
5.04 0 0
5.12 0 0
5.2 0 0
5.28 0 0
5.36 0 0
5.44 0 0
5.52 0 0
5.6 0 0
5.68 0 0
5.76 0 0
5.84 0 0
5.92 0 0
6 0 0
6.08 0 0
6.16 0 0
6.24 0 0
6.32 0 0
6.4 0 0
6.48 0 0
6.56 0 0
6.64 0 0
6.72 0 0
6.8 0 0
6.88 0 0
6.96 0 0
7.04 0 0
7.12 0 0
7.2 0 0
7.28 0 0
7.36 0 0
7.44 0 0
7.52 0 0
7.6 0 0
7.68 0 0
7.76 0 0
7.84 0 0
7.92 0 0
8 0 0
8.08 0 0
8.16 0 0
8.24 0 0
8.32 0 0
8.4 0 0
8.48 0 0
8.56 0 0
8.64 0 0
8.72 0 0
8.8 0 0
8.88 0 0
8.96 0 0
9.04 0 0
9.12 0 0
9.2 0 0
9.28 0 0
9.36 0 0
9.44 0 0
9.52 0 0
9.6 0 0
9.68 0 0
9.76 0 0
9.84 0 0
9.92 0 0
10 0 0
10.08 0 0
10.16 0 0
10.24 0 0
10.32 0 0
10.4 0 0
10.48 0 0
10.56 0 0
10.64 0 0
10.72 0 0
10.8 0 0
10.88 0 0
10.96 0 0
11.04 0 0
11.12 0 0
11.2 0 0
11.28 0 0
11.36 0 0
11.44 0 0
11.52 0 0
11.6 0 0
11.68 0 0
11.76 0 0
11.84 0 0
11.92 0 0
12 0 0
12.08 0 0
12.16 0 0
12.24 0 0
12.32 0 0
12.4 0 0
12.48 0 0
12.56 0 0
12.64 0 0
12.72 0 0
12.8 0 0
12.88 0 0
12.96 0 0
13.04 0 0
13.12 0 0
13.2 0 0
13.28 0 0
13.36 0 0
13.44 0 0
13.52 0 0
13.6 0 0
13.68 0 0
13.76 0 0
13.84 0 0
13.92 0 0
14 0 0
14.08 0 0
14.16 0 0
14.24 0 0
14.32 0 0
14.4 0 0
14.48 0 0
14.56 0 0
14.64 0 0
14.72 0 0
14.8 0 0
14.88 0 0
14.96 0 0
15.04 0 0
15.12 0 0
15.2 0 0
15.28 0 0
15.36 0 0
15.44 0 0
15.52 0 0
15.6 0 0
15.68 0 0
15.76 0 0
15.84 0 0
15.92 0 0
16 0 0
16.08 0 0
16.16 0 0
16.24 0 0
16.32 0 0
16.4 0 0
16.48 0 0
16.56 0 0
16.64 0 0
16.72 0 0
16.8 0 0
16.88 0 0
16.96 0 0
17.04 0 0
17.12 0 0
17.2 0 0
17.28 0 0
17.36 0 0
17.44 0 0
17.52 0 0
17.6 0 0
17.68 0 0
17.76 0 0
17.84 0 0
17.92 0 0
18 0 0
18.08 0 0
18.16 0 0
18.24 0 0
18.32 0 0
18.4 0 0
18.48 0 0
18.56 0 0
18.64 0 0
18.72 0 0
18.8 0 0
18.88 0 0
18.96 0 0
19.04 0 0
19.12 0 0
19.2 0 0
19.28 0 0
19.36 0 0
19.44 0 0
19.52 0 0
19.6 0 0
19.68 0 0
19.76 0 0
19.84 0 0
19.92 0 0
20 0 0
20.08 0 0
20.16 0 0
20.24 0 0
20.32 0 0
20.4 0 0
20.48 0 0
20.56 0 0
20.64 0 0
20.72 0 0
20.8 0 0
20.88 0 0
20.96 0 0
21.04 0 0
21.12 0 0
21.2 0 0
21.28 0 0
21.36 0 0
21.44 0 0
21.52 0 0
21.6 0 0
21.68 0 0
21.76 0 0
21.84 0 0
21.92 0 0
22 0 0
22.08 0 0
22.16 0 0
22.24 0 0
22.32 0 0
22.4 0 0
22.48 0 0
22.56 0 0
22.64 0 0
22.72 0 0
22.8 0 0
22.88 0 0
22.96 0 0
23.04 0 0
23.12 0 0
23.2 0 0
23.28 0 0
23.36 0 0
23.44 0 0
23.52 0 0
23.6 0 0
23.68 0 0
23.76 0 0
23.84 0 0
23.92 0 0
24 0 0
24.08 0 0
24.16 0 0
24.24 0 0
24.32 0 0
24.4 0 0
24.48 0 0
24.56 0 0
24.64 0 0
24.72 0 0
24.8 0 0
24.88 0 0
24.96 0 0
25.04 0 0
25.12 0 0
25.2 0 0
25.28 0 0
25.36 0 0
25.44 0 0
25.52 0 0
25.6 0 0
25.68 0 0
25.76 0 0
25.84 0 0
25.92 0 0
26 0 0
26.08 0 0
26.16 0 0
26.24 0 0
26.32 0 0
26.4 0 0
26.48 0 0
26.56 0 0
26.64 0 0
26.72 0 0
26.8 0 0
26.88 0 0
26.96 0 0
27.04 0 0
27.12 0 0
27.2 0 0
27.28 0 0
27.36 0 0
27.44 0 0
27.52 0 0
27.6 0 0
27.68 0 0
27.76 0 0
27.84 0 0
27.92 0 0
28 0 0
28.08 0 0
28.16 0 0
28.24 0 0
28.32 0 0
28.4 0 0
28.48 0 0
28.56 0 0
28.64 0 0
28.72 0 0
28.8 0 0
28.88 0 0
28.96 0 0
29.04 0 0
29.12 0 0
29.2 0 0
29.28 0 0
29.36 0 0
29.44 0 0
29.52 0 0
29.6 0 0
29.68 0 0
29.76 0 0
29.84 0 0
29.92 0 0
30 0 0
30.08 0 0
30.16 0 0
30.24 0 0
30.32 0 0
30.4 0 0
30.48 0 0
30.56 0 0
30.64 0 0
30.72 0 0
30.8 0 0
30.88 0 0
30.96 0 0
31.04 0 0
31.12 0 0
31.2 0 0
31.28 0 0
31.36 0 0
31.44 0 0
31.52 0 0
31.6 0 0
31.68 0 0
31.76 0 0
31.84 0 0
31.92 0 0
0 0.02 0
0.08 0.02 0
0.16 0.02 0
0.24 0.02 0
0.32 0.02 0
0.4 0.02 0
0.48 0.02 0
0.56 0.02 0
0.64 0.02 0
0.72 0.02 0
0.8 0.02 0
0.88 0.02 0
0.96 0.02 0
1.04 0.02 0
1.12 0.02 0
1.2 0.02 0
1.28 0.02 0
1.36 0.02 0
1.44 0.02 0
1.52 0.02 0
1.6 0.02 0
1.68 0.02 0
1.76 0.02 0
1.84 0.02 0
1.92 0.02 0
2 0.02 0
2.08 0.02 0
2.16 0.02 0
2.24 0.02 0
2.32 0.02 0
2.4 0.02 0
2.48 0.02 0
2.56 0.02 0
2.64 0.02 0
2.72 0.02 0
2.8 0.02 0
2.88 0.02 0
2.96 0.02 0
3.04 0.02 0
3.12 0.02 0
3.2 0.02 0
3.28 0.02 0
3.36 0.02 0
3.44 0.02 0
3.52 0.02 0
3.6 0.02 0
3.68 0.02 0
3.76 0.02 0
3.84 0.02 0
3.92 0.02 0
4 0.02 0
4.08 0.02 0
4.16 0.02 0
4.24 0.02 0
4.32 0.02 0
4.4 0.02 0
4.48 0.02 0
4.56 0.02 0
4.64 0.02 0
4.72 0.02 0
4.8 0.02 0
4.88 0.02 0
4.96 0.02 0
5.04 0.02 0
5.12 0.02 0
5.2 0.02 0
5.28 0.02 0
5.36 0.02 0
5.44 0.02 0
5.52 0.02 0
5.6 0.02 0
5.68 0.02 0
5.76 0.02 0
5.84 0.02 0
5.92 0.02 0
6 0.02 0
6.08 0.02 0
6.16 0.02 0
6.24 0.02 0
6.32 0.02 0
6.4 0.02 0
6.48 0.02 0
6.56 0.02 0
6.64 0.02 0
6.72 0.02 0
6.8 0.02 0
6.88 0.02 0
6.96 0.02 0
7.04 0.02 0
7.12 0.02 0
7.2 0.02 0
7.28 0.02 0
7.36 0.02 0
7.44 0.02 0
7.52 0.02 0
7.6 0.02 0
7.68 0.02 0
7.76 0.02 0
7.84 0.02 0
7.92 0.02 0
8 0.02 0
8.08 0.02 0
8.16 0.02 0
8.24 0.02 0
8.32 0.02 0
8.4 0.02 0
8.48 0.02 0
8.56 0.02 0
8.64 0.02 0
8.72 0.02 0
8.8 0.02 0
8.88 0.02 0
8.96 0.02 0
9.04 0.02 0
9.12 0.02 0
9.2 0.02 0
9.28 0.02 0
9.36 0.02 0
9.44 0.02 0
9.52 0.02 0
9.6 0.02 0
9.68 0.02 0
9.76 0.02 0
9.84 0.02 0
9.92 0.02 0
10 0.02 0
10.08 0.02 0
10.16 0.02 0
10.24 0.02 0
10.32 0.02 0
10.4 0.02 0
10.48 0.02 0
10.56 0.02 0
10.64 0.02 0
10.72 0.02 0
10.8 0.02 0
10.88 0.02 0
10.96 0.02 0
11.04 0.02 0
11.12 0.02 0
11.2 0.02 0
11.28 0.02 0
11.36 0.02 0
11.44 0.02 0
11.52 0.02 0
11.6 0.02 0
11.68 0.02 0
11.76 0.02 0
11.84 0.02 0
11.92 0.02 0
12 0.02 0
12.08 0.02 0
12.16 0.02 0
12.24 0.02 0
12.32 0.02 0
12.4 0.02 0
12.48 0.02 0
12.56 0.02 0
12.64 0.02 0
12.72 0.02 0
12.8 0.02 0
12.88 0.02 0
12.96 0.02 0
13.04 0.02 0
13.12 0.02 0
13.2 0.02 0
13.28 0.02 0
13.36 0.02 0
13.44 0.02 0
13.52 0.02 0
13.6 0.02 0
13.68 0.02 0
13.76 0.02 0
13.84 0.02 0
13.92 0.02 0
14 0.02 0
14.08 0.02 0
14.16 0.02 0
14.24 0.02 0
14.32 0.02 0
14.4 0.02 0
14.48 0.02 0
14.56 0.02 0
14.64 0.02 0
14.72 0.02 0
14.8 0.02 0
14.88 0.02 0
14.96 0.02 0
15.04 0.02 0
15.12 0.02 0
15.2 0.02 0
15.28 0.02 0
15.36 0.02 0
15.44 0.02 0
15.52 0.02 0
15.6 0.02 0
15.68 0.02 0
15.76 0.02 0
15.84 0.02 0
15.92 0.02 0
16 0.02 0
16.08 0.02 0
16.16 0.02 0
16.24 0.02 0
16.32 0.02 0
16.4 0.02 0
16.48 0.02 0
16.56 0.02 0
16.64 0.02 0
16.72 0.02 0
16.8 0.02 0
16.88 0.02 0
16.96 0.02 0
17.04 0.02 0
17.12 0.02 0
17.2 0.02 0
17.28 0.02 0
17.36 0.02 0
17.44 0.02 0
17.52 0.02 0
17.6 0.02 0
17.68 0.02 0
17.76 0.02 0
17.84 0.02 0
17.92 0.02 0
18 0.02 0
18.08 0.02 0
18.16 0.02 0
18.24 0.02 0
18.32 0.02 0
18.4 0.02 0
18.48 0.02 0
18.56 0.02 0
18.64 0.02 0
18.72 0.02 0
18.8 0.02 0
18.88 0.02 0
18.96 0.02 0
19.04 0.02 0
19.12 0.02 0
19.2 0.02 0
19.28 0.02 0
19.36 0.02 0
19.44 0.02 0
19.52 0.02 0
19.6 0.02 0
19.68 0.02 0
19.76 0.02 0
19.84 0.02 0
19.92 0.02 0
20 0.02 0
20.08 0.02 0
20.16 0.02 0
20.24 0.02 0
20.32 0.02 0
20.4 0.02 0
20.48 0.02 0
20.56 0.02 0
20.64 0.02 0
20.72 0.02 0
20.8 0.02 0
20.88 0.02 0
20.96 0.02 0
21.04 0.02 0
21.12 0.02 0
21.2 0.02 0
21.28 0.02 0
21.36 0.02 0
21.44 0.02 0
21.52 0.02 0
21.6 0.02 0
21.68 0.02 0
21.76 0.02 0
21.84 0.02 0
21.92 0.02 0
22 0.02 0
22.08 0.02 0
22.16 0.02 0
22.24 0.02 0
22.32 0.02 0
22.4 0.02 0
22.48 0.02 0
22.56 0.02 0
22.64 0.02 0
22.72 0.02 0
22.8 0.02 0
22.88 0.02 0
22.96 0.02 0
23.04 0.02 0
23.12 0.02 0
23.2 0.02 0
23.28 0.02 0
23.36 0.02 0
23.44 0.02 0
23.52 0.02 0
23.6 0.02 0
23.68 0.02 0
23.76 0.02 0
23.84 0.02 0
23.92 0.02 0
24 0.02 0
24.08 0.02 0
24.16 0.02 0
24.24 0.02 0
24.32 0.02 0
24.4 0.02 0
24.48 0.02 0
24.56 0.02 0
24.64 0.02 0
24.72 0.02 0
24.8 0.02 0
24.88 0.02 0
24.96 0.02 0
25.04 0.02 0
25.12 0.02 0
25.2 0.02 0
25.28 0.02 0
25.36 0.02 0
25.44 0.02 0
25.52 0.02 0
25.6 0.02 0
25.68 0.02 0
25.76 0.02 0
25.84 0.02 0
25.92 0.02 0
26 0.02 0
26.08 0.02 0
26.16 0.02 0
26.24 0.02 0
26.32 0.02 0
26.4 0.02 0
26.48 0.02 0
26.56 0.02 0
26.64 0.02 0
26.72 0.02 0
26.8 0.02 0
26.88 0.02 0
26.96 0.02 0
27.04 0.02 0
27.12 0.02 0
27.2 0.02 0
27.28 0.02 0
27.36 0.02 0
27.44 0.02 0
27.52 0.02 0
27.6 0.02 0
27.68 0.02 0
27.76 0.02 0
27.84 0.02 0
27.92 0.02 0
28 0.02 0
28.08 0.02 0
28.16 0.02 0
28.24 0.02 0
28.32 0.02 0
28.4 0.02 0
28.48 0.02 0
28.56 0.02 0
28.64 0.02 0
28.72 0.02 0
28.8 0.02 0
28.88 0.02 0
28.96 0.02 0
29.04 0.02 0
29.12 0.02 0
29.2 0.02 0
29.28 0.02 0
29.36 0.02 0
29.44 0.02 0
29.52 0.02 0
29.6 0.02 0
29.68 0.02 0
29.76 0.02 0
29.84 0.02 0
29.92 0.02 0
30 0.02 0
30.08 0.02 0
30.16 0.02 0
30.24 0.02 0
30.32 0.02 0
30.4 0.02 0
30.48 0.02 0
30.56 0.02 0
30.64 0.02 0
30.72 0.02 0
30.8 0.02 0
30.88 0.02 0
30.96 0.02 0
31.04 0.02 0
31.12 0.02 0
31.2 0.02 0
31.28 0.02 0
31.36 0.02 0
31.44 0.02 0
31.52 0.02 0
31.6 0.02 0
31.68 0.02 0
31.76 0.02 0
31.84 0.02 0
31.92 0.02 0
0 0.04 0
0.08 0.04 0
0.16 0.04 0
0.24 0.04 0
0.32 0.04 0
0.4 0.04 0
0.48 0.04 0
0.56 0.04 0
0.64 0.04 0
0.72 0.04 0
0.8 0.04 0
0.88 0.04 0
0.96 0.04 0
1.04 0.04 0
1.12 0.04 0
1.2 0.04 0
1.28 0.04 0
1.36 0.04 0
1.44 0.04 0
1.52 0.04 0
1.6 0.04 0
1.68 0.04 0
1.76 0.04 0
1.84 0.04 0
1.92 0.04 0
2 0.04 0
2.08 0.04 0
2.16 0.04 0
2.24 0.04 0
2.32 0.04 0
2.4 0.04 0
2.48 0.04 0
2.56 0.04 0
2.64 0.04 0
2.72 0.04 0
2.8 0.04 0
2.88 0.04 0
2.96 0.04 0
3.04 0.04 0
3.12 0.04 0
3.2 0.04 0
3.28 0.04 0
3.36 0.04 0
3.44 0.04 0
3.52 0.04 0
3.6 0.04 0
3.68 0.04 0
3.76 0.04 0
3.84 0.04 0
3.92 0.04 0
4 0.04 0
4.08 0.04 0
4.16 0.04 0
4.24 0.04 0
4.32 0.04 0
4.4 0.04 0
4.48 0.04 0
4.56 0.04 0
4.64 0.04 0
4.72 0.04 0
4.8 0.04 0
4.88 0.04 0
4.96 0.04 0
5.04 0.04 0
5.12 0.04 0
5.2 0.04 0
5.28 0.04 0
5.36 0.04 0
5.44 0.04 0
5.52 0.04 0
5.6 0.04 0
5.68 0.04 0
5.76 0.04 0
5.84 0.04 0
5.92 0.04 0
6 0.04 0
6.08 0.04 0
6.16 0.04 0
6.24 0.04 0
6.32 0.04 0
6.4 0.04 0
6.48 0.04 0
6.56 0.04 0
6.64 0.04 0
6.72 0.04 0
6.8 0.04 0
6.88 0.04 0
6.96 0.04 0
7.04 0.04 0
7.12 0.04 0
7.2 0.04 0
7.28 0.04 0
7.36 0.04 0
7.44 0.04 0
7.52 0.04 0
7.6 0.04 0
7.68 0.04 0
7.76 0.04 0
7.84 0.04 0
[...]
POINT_DATA 20000

SCALARS v float 1
LOOKUP_TABLE default
0
0
0
0
0
0
0
0
0
0
0
0
0
0
0
0
0
0
0
0
0
0
0
0
0
0
0
0
0
0
0
0
0
0
0
0
0
0
0
0
0
0
0
0
0
0
0
0
0
0
0
0
0
0
0
0
0
0
0
0
0
0
0
0
0
0
0
0
0
0
0
0
0
0
0
0
0
0
0
0
0
0
0
0
0
0
0
0
0
0
0
0
0
0
0
0
0
0
0
0
0
0
0
0
0
0
0
0
0
0
0
0
0
0
0
0
0
0
0
0
0
0
0
0
0
0
0
0
0
0
0
0
0
0
0
0
0
0
0
0
0
0
0
0
0
0
0
0
0
0
0
0
0
0
0
0
0
0
0
0
0
0
0
0
0
0
0
0
0
0
0
0
0
0
0
0
0
0
0
0
0
0
0
0
0
0
0
0
0
0
0
0
0
0
0
0
0
0
0
0
0
0
0
0
0
0
0
0
0
0
0
0
0
0
0
0
0
0
0
0
0
0
0
0
0
0
0
0
0
0
0
0
0
0
0
0
0
0
0
0
0
0
0
0
0
0
0
0
0
0
0
0
0
0
0
0
0
0
0
0
0
0
0
0
0
0
0
0
0
0
0
0
0
0
0
0
0
0
0
0
0
0
0
0
0
0
0
0
0
0
0
0
0
0
0
0
0
0
0
0
0
0
0
0
0
0
0
0
0
0
0
0
0
0
0
0
0
0
0
0
0
0
0
0
0
0
0
0
0
0
0
0
0
0
0
0
0
0
0
0
0
0
0
0
0
0
0
0
0
0
0
0
0
0
0
0
0
0
0
0
0
0
0
0
0
0
0
0
0
0
0
0
0
0
0
0
0
0
0
0
0
0
0
0
0
0
0
0
0
0
0
0
0
0
0
0
0
0
0
0
-0.123227
0.123227
0.0537922
0.0194394
0.00878351
0.00509008
0.00338811
0.00243766
0.00184783
0.00145662
0.00118436
0.000987563
0.000840702
0.00072801
0.000639375
0.00056811
0.000509687
0.000460971
0.000419745
0.000384413
0.000353799
0.000327027
0.000303424
0.000282473
0.000263762
0.000246964
0.000231813
0.000218088
0.00020561
0.000194224
0.000183803
0.000174237
0.000165431
0.000157304
0.000149786
0.000142815
0.000136338
0.000130308
0.000124683
0.000119426
0.000114505
0.00010989
0.000105556
0.00010148
9.76402e-05
9.40185e-05
9.05978e-05
8.73629e-05
8.42999e-05
8.13963e-05
7.86407e-05
7.60227e-05
7.35327e-05
7.11622e-05
6.8903e-05
6.67481e-05
6.46906e-05
6.27243e-05
6.08437e-05
5.90435e-05
5.73189e-05
5.56653e-05
5.40786e-05
5.25551e-05
5.10911e-05
4.96833e-05
4.83287e-05
4.70243e-05
4.57676e-05
4.4556e-05
4.33873e-05
4.22592e-05
4.11697e-05
4.0117e-05
3.90993e-05
3.81148e-05
3.71621e-05
3.62397e-05
3.53462e-05
3.44803e-05
3.36408e-05
3.28266e-05
3.20365e-05
3.12696e-05
3.0525e-05
2.98016e-05
2.90986e-05
2.84153e-05
2.77509e-05
2.71046e-05
2.64758e-05
2.58639e-05
2.52681e-05
2.4688e-05
2.4123e-05
2.35725e-05
2.30361e-05
2.25133e-05
2.20035e-05
2.15065e-05
2.10218e-05
2.05489e-05
2.00876e-05
1.96374e-05
1.9198e-05
1.87691e-05
1.83504e-05
1.79415e-05
1.75423e-05
1.71523e-05
1.67714e-05
1.63993e-05
1.60357e-05
1.56805e-05
1.53334e-05
1.49941e-05
1.46625e-05
1.43384e-05
1.40216e-05
1.37119e-05
1.3409e-05
1.31129e-05
1.28234e-05
1.25403e-05
1.22635e-05
1.19927e-05
1.17279e-05
1.14689e-05
1.12156e-05
1.09678e-05
1.07254e-05
1.04884e-05
1.02565e-05
1.00297e-05
9.80782e-06
9.59077e-06
9.37844e-06
9.17073e-06
8.96752e-06
8.76873e-06
8.57428e-06
8.38406e-06
8.19798e-06
8.01595e-06
7.83788e-06
7.66366e-06
7.49321e-06
7.32645e-06
7.16333e-06
7.00378e-06
6.84772e-06
6.69508e-06
6.54578e-06
6.39974e-06
6.25689e-06
6.11715e-06
5.98045e-06
5.84673e-06
5.71593e-06
5.58799e-06
5.46287e-06
5.34051e-06
5.22085e-06
5.10381e-06
4.9893e-06
4.87727e-06
4.76767e-06
4.66047e-06
4.55562e-06
4.4531e-06
4.35282e-06
4.25475e-06
4.15882e-06
4.06499e-06
3.97322e-06
3.88343e-06
3.79557e-06
3.70959e-06
3.62545e-06
3.54316e-06
3.46272e-06
3.38407e-06
3.30715e-06
3.23185e-06
3.15812e-06
3.08592e-06
3.01528e-06
2.9462e-06
2.87867e-06
2.81262e-06
2.74798e-06
2.68471e-06
2.6228e-06
2.56226e-06
2.50307e-06
2.44515e-06
2.38842e-06
2.33283e-06
2.27841e-06
2.22521e-06
2.17327e-06
2.12257e-06
2.073e-06
2.02442e-06
1.97674e-06
1.93e-06
1.88428e-06
1.83966e-06
1.79612e-06
1.75359e-06
1.71194e-06
1.6711e-06
1.63111e-06
1.592e-06
1.55381e-06
1.51648e-06
1.47993e-06
1.44406e-06
1.40888e-06
1.37447e-06
1.34093e-06
1.30826e-06
1.27637e-06
1.24509e-06
1.21429e-06
1.18395e-06
1.15419e-06
1.12517e-06
1.09695e-06
1.06948e-06
1.0426e-06
1.01616e-06
9.90114e-07
9.64501e-07
9.39421e-07
9.14925e-07
8.90972e-07
8.67469e-07
8.44345e-07
8.21608e-07
7.99332e-07
7.77575e-07
7.56306e-07
7.35393e-07
7.14678e-07
6.9408e-07
6.73662e-07
6.5359e-07
6.34023e-07
6.14985e-07
5.96339e-07
5.77849e-07
5.59327e-07
5.40739e-07
5.22208e-07
5.03925e-07
4.86007e-07
4.68423e-07
4.51022e-07
4.33636e-07
4.16194e-07
3.98748e-07
3.81418e-07
3.64277e-07
3.47289e-07
3.30327e-07
3.13276e-07
2.9614e-07
2.79063e-07
2.62258e-07
2.45856e-07
2.29807e-07
2.13884e-07
1.97811e-07
1.81447e-07
1.64892e-07
1.48471e-07
1.32561e-07
1.17384e-07
1.02874e-07
8.86991e-08
7.44451e-08
5.98445e-08
4.49338e-08
3.00464e-08
1.56414e-08
2.0656e-09
-1.06242e-08
-2.26841e-08
-3.45416e-08
-4.6568e-08
-5.88874e-08
-7.13179e-08
-8.34706e-08
-9.49478e-08
-1.05535e-07
-1.15294e-07
-1.24508e-07
-1.33532e-07
-1.42615e-07
-1.51784e-07
-1.60851e-07
-1.69519e-07
-1.7753e-07
-1.84779e-07
-1.91356e-07
-1.97482e-07
-2.03403e-07
-2.09273e-07
-2.15104e-07
-2.20779e-07
-2.26123e-07
-2.30988e-07
-2.35327e-07
-2.39198e-07
-2.42736e-07
-2.46084e-07
-2.49341e-07
-2.52522e-07
-2.55578e-07
-2.58417e-07
-2.60968e-07
-2.63197e-07
-2.65135e-07
-2.66843e-07
-2.68407e-07
-2.69879e-07
-2.71293e-07
-2.72629e-07
-2.73865e-07
-2.74953e-07
-2.75893e-07
-2.76672e-07
-2.7734e-07
-2.77911e-07
-2.78448e-07
-2.7894e-07
-2.7943e-07
-2.79866e-07
-2.80282e-07
-2.80612e-07
-2.80914e-07
-2.81124e-07
-2.81336e-07
-2.81477e-07
-2.81661e-07
-2.81781e-07
-2.81971e-07
-2.82076e-07
-2.82262e-07
-2.8233e-07
-2.82499e-07
-2.82518e-07
-2.8268e-07
-2.82664e-07
-2.82845e-07
-2.82805e-07
-2.83027e-07
-2.82962e-07
-2.83232e-07
-2.83125e-07
-2.8345e-07
-2.83283e-07
-2.83677e-07
-2.83437e-07
-2.83928e-07
-2.83599e-07
-2.8422e-07
-2.83781e-07
-2.8457e-07
-2.83985e-07
-2.8499e-07
-2.84216e-07
-2.85498e-07
-2.84482e-07
-2.8612e-07
-2.84799e-07
-2.86894e-07
-2.8519e-07
-2.87865e-07
-2.85686e-07
-2.89083e-07
-2.86333e-07
-2.90598e-07
-2.87195e-07
-2.92441e-07
-2.88362e-07
-2.94566e-07
-2.8996e-07
-2.96683e-07
-2.92131e-07
-2.97798e-07
-2.94966e-07
-2.94683e-07
-2.98264e-07
-2.75417e-07
-3.00377e-07
-1.58478e-07
-2.42349e-07
-2.42349e-07
-0.142153
0.142153
0.101005
0.0539133
0.0302567
0.0189186
0.0129279
0.00941339
0.00718046
0.00567756
0.00462107
0.00385208
0.00327559
0.00283209
0.00248292
0.00220225
0.00197244
0.00178114
0.0016196
0.00148146
0.00136204
0.00125781
0.00116611
0.00108484
0.00101238
0.000947412
0.00088888
0.000835917
0.000787803
0.000743938
0.000703816
0.000667005
0.000633138
0.000601898
0.00057301
0.000546235
0.000521365
0.000498218
0.000476631
0.000456463
0.000437588
0.000419892
0.000403277
0.000387652
0.000372937
0.00035906
0.000345956
0.000333565
0.000321835
0.000310717
0.000300167
0.000290145
0.000280615
0.000271543
0.000262898
0.000254654
0.000246783
0.000239263
0.000232071
0.000225187
0.000218593
0.000212272
0.000206207
0.000200384
0.000194789
0.00018941
0.000184235
0.000179253
0.000174453
0.000169826
0.000165363
0.000161056
0.000156898
0.000152879
0.000148995
0.000145239
0.000141604
0.000138085
0.000134677
0.000131375
0.000128173
0.000125069
0.000122057
0.000119134
0.000116296
0.000113539
0.000110861
0.000108258
0.000105727
0.000103266
0.000100871
9.8541e-05
9.62729e-05
9.40648e-05
9.19143e-05
8.98195e-05
8.77784e-05
8.57892e-05
8.38503e-05
8.19598e-05
8.01164e-05
7.83183e-05
7.65643e-05
7.48529e-05
7.31828e-05
7.15528e-05
6.99616e-05
6.84081e-05
6.68911e-05
6.54098e-05
6.3963e-05
6.25498e-05
6.11692e-05
5.98205e-05
5.85026e-05
5.72148e-05
5.59562e-05
5.47261e-05
5.35237e-05
5.23484e-05
5.11995e-05
5.00762e-05
4.8978e-05
4.79042e-05
4.68542e-05
4.58274e-05
4.48233e-05
4.38412e-05
4.28808e-05
4.19416e-05
4.10229e-05
4.01245e-05
3.92458e-05
3.83863e-05
3.75457e-05
3.67233e-05
3.5919e-05
3.51321e-05
3.43625e-05
3.36096e-05
3.28733e-05
3.2153e-05
3.14484e-05
3.07592e-05
3.00851e-05
2.94256e-05
2.87804e-05
2.81494e-05
2.75321e-05
2.69284e-05
2.6338e-05
2.57605e-05
2.51957e-05
2.46433e-05
2.41029e-05
2.35744e-05
2.30575e-05
2.25519e-05
2.20573e-05
2.15737e-05
2.11007e-05
2.06382e-05
2.01859e-05
1.97435e-05
1.93107e-05
1.88874e-05
1.84733e-05
1.80683e-05
1.76723e-05
1.7285e-05
1.69063e-05
1.65358e-05
1.61736e-05
1.58192e-05
1.54726e-05
1.51335e-05
1.48018e-05
1.44772e-05
1.41596e-05
1.38491e-05
1.35455e-05
1.32486e-05
1.29582e-05
1.26739e-05
1.23956e-05
1.21232e-05
1.18568e-05
1.15962e-05
1.13415e-05
1.10923e-05
1.08484e-05
1.06097e-05
1.03762e-05
1.01479e-05
9.92458e-06
9.70605e-06
9.49207e-06
9.28252e-06
9.07747e-06
8.87705e-06
8.68132e-06
8.49009e-06
8.303e-06
8.11968e-06
7.93997e-06
7.76396e-06
7.59188e-06
7.42387e-06
7.25983e-06
7.09945e-06
6.94241e-06
6.78855e-06
6.63794e-06
6.49069e-06
6.34682e-06
6.20614e-06
6.06834e-06
5.93325e-06
5.80091e-06
5.67154e-06
5.54534e-06
5.42223e-06
5.30184e-06
5.1837e-06
5.06752e-06
4.95336e-06
4.84156e-06
4.73248e-06
4.62621e-06
4.5225e-06
4.42085e-06
4.3209e-06
4.22254e-06
4.12596e-06
4.03138e-06
3.93888e-06
3.84828e-06
3.75932e-06
3.67182e-06
3.58584e-06
3.50155e-06
3.41903e-06
3.33811e-06
3.25838e-06
3.17942e-06
3.10112e-06
3.02371e-06
2.94767e-06
2.87331e-06
2.80057e-06
2.72893e-06
2.65774e-06
2.58657e-06
2.51544e-06
2.44476e-06
2.37502e-06
2.30644e-06
2.2388e-06
2.17166e-06
2.10458e-06
2.03743e-06
1.97044e-06
1.9039e-06
1.83796e-06
1.77245e-06
1.70704e-06
1.64149e-06
1.57593e-06
1.51084e-06
1.44675e-06
1.38392e-06
1.32204e-06
1.26046e-06
1.1985e-06
1.136e-06
1.07345e-06
1.01185e-06
9.52149e-07
8.94753e-07
8.39231e-07
7.84556e-07
7.29664e-07
6.74066e-07
6.18151e-07
5.63014e-07
5.09902e-07
4.59565e-07
4.11882e-07
3.65947e-07
3.20563e-07
2.7488e-07
2.28827e-07
1.83143e-07
1.38988e-07
9.73634e-08
5.86421e-08
2.24328e-08
-1.21746e-08
-4.61262e-08
-7.9945e-08
-1.13507e-07
-1.46154e-07
-1.77043e-07
-2.05564e-07
-2.31605e-07
-2.55567e-07
-2.78141e-07
-2.99978e-07
-3.21408e-07
-3.4235e-07
-3.62401e-07
-3.81079e-07
-3.98051e-07
-4.13292e-07
-4.27059e-07
-4.39778e-07
-4.51836e-07
-4.63462e-07
-4.74639e-07
-4.85191e-07
-4.94866e-07
-5.03506e-07
-5.11071e-07
-5.17708e-07
-5.23618e-07
-5.29053e-07
-5.34137e-07
-5.38949e-07
-5.43405e-07
-5.47454e-07
-5.5097e-07
-5.53985e-07
-5.56489e-07
-5.58651e-07
-5.6051e-07
-5.62252e-07
-5.63827e-07
-5.65356e-07
-5.66678e-07
-5.67906e-07
-5.68844e-07
-5.69691e-07
-5.70255e-07
-5.70835e-07
-5.71192e-07
-5.71691e-07
-5.71977e-07
-5.72476e-07
-5.72691e-07
-5.73158e-07
-5.7324e-07
-5.73648e-07
-5.7358e-07
-5.73977e-07
-5.73803e-07
-5.74271e-07
-5.74025e-07
-5.74621e-07
-5.74287e-07
-5.75033e-07
-5.74559e-07
-5.75479e-07
-5.74815e-07
-5.75963e-07
-5.75067e-07
-5.76533e-07
-5.75357e-07
-5.77247e-07
-5.75715e-07
-5.78153e-07
-5.76157e-07
-5.79296e-07
-5.76698e-07
-5.80741e-07
-5.77374e-07
-5.82583e-07
-5.78245e-07
-5.84954e-07
-5.79397e-07
-5.8801e-07
-5.80945e-07
-5.91932e-07
-5.83048e-07
-5.96911e-07
-5.8593e-07
-6.03081e-07
-5.89903e-07
-6.1034e-07
-5.95364e-07
-6.17835e-07
-6.027e-07
-6.22478e-07
-6.11913e-07
-6.14189e-07
-6.21295e-07
-5.56306e-07
-6.21019e-07
-2.28515e-07
-4.36696e-07
-4.36696e-07
-0.122226
0.122226
0.121664
0.0822681
0.0539951
0.0368644
0.0263935
0.0197167
0.015266
0.0121805
0.00996884
0.00833709
0.00710213
0.00614574
0.0053894
0.00477974
0.00427974
0.00386324
0.00351148
0.00321076
0.0029509
0.00272426
0.00252496
0.00234845
0.00219115
0.00205018
0.00192324
0.0018084
0.00170412
0.00160906
0.00152214
0.0014424
0.00136905
0.00130139
0.00123884
0.00118086
0.00112701
0.0010769
0.00103016
0.000986504
0.000945643
0.000907337
0.000871371
0.000837549
0.000805699
0.000775662
0.000747298
0.00072048
0.000695092
0.00067103
0.000648198
0.00062651
0.000605886
0.000586255
0.00056755
0.00054971
0.00053268
0.000516408
0.000500848
0.000485955
0.00047169
0.000458015
0.000444896
0.000432301
0.0004202
0.000408566
0.000397374
0.000386599
0.00037622
0.000366215
0.000356566
0.000347254
0.000338264
0.000329578
0.000321182
0.000313063
0.000305208
0.000297603
0.000290239
0.000283104
0.000276188
0.000269481
0.000262975
0.000256661
0.000250532
0.000244579
0.000238796
0.000233175
0.000227711
0.000222398
0.000217229
0.000212201
0.000207306
0.000202541
0.000197901
0.000193382
0.000188979
0.000184688
0.000180506
0.000176429
0.000172454
0.000168577
0.000164795
0.000161106
0.000157506
0.000153992
0.000150563
0.000147215
0.000143946
0.000140755
0.000137638
0.000134593
0.00013162
0.000128715
0.000125877
0.000123103
0.000120393
0.000117745
0.000115156
0.000112626
0.000110153
0.000107735
0.000105372
0.000103061
0.000100801
9.85919e-05
9.64315e-05
9.43188e-05
9.22528e-05
9.02324e-05
8.82566e-05
8.63244e-05
8.44346e-05
8.25864e-05
8.07787e-05
7.90106e-05
7.72812e-05
7.55897e-05
7.39352e-05
7.23169e-05
7.07341e-05
6.91861e-05
6.76719e-05
6.61908e-05
6.47422e-05
6.33251e-05
6.19391e-05
6.05834e-05
5.92575e-05
5.79607e-05
5.66925e-05
5.54523e-05
5.42393e-05
5.3053e-05
5.18927e-05
5.07579e-05
4.9648e-05
4.85625e-05
4.75009e-05
4.64627e-05
4.54476e-05
4.44549e-05
4.34841e-05
4.25347e-05
4.1606e-05
4.06977e-05
3.98093e-05
3.89405e-05
3.8091e-05
3.72602e-05
3.64479e-05
3.56534e-05
3.48763e-05
3.41164e-05
3.33731e-05
3.2646e-05
3.19346e-05
3.12387e-05
3.0558e-05
2.98923e-05
2.92415e-05
2.8605e-05
2.79824e-05
2.7373e-05
2.67766e-05
2.61929e-05
2.5622e-05
2.50638e-05
2.45178e-05
2.39838e-05
2.34613e-05
2.295e-05
2.24498e-05
2.19606e-05
2.14822e-05
2.1014e-05
2.05556e-05
2.01069e-05
1.96679e-05
1.92389e-05
1.88197e-05
1.84101e-05
1.80093e-05
1.76166e-05
1.72319e-05
1.68552e-05
1.64871e-05
1.61276e-05
1.57764e-05
1.5433e-05
1.50968e-05
1.47675e-05
1.44452e-05
1.41301e-05
1.38222e-05
1.35211e-05
1.32262e-05
1.29372e-05
1.26542e-05
1.23776e-05
1.21076e-05
1.18441e-05
1.15862e-05
1.13331e-05
1.10844e-05
1.08403e-05
1.06014e-05
1.03682e-05
1.01407e-05
9.91846e-06
9.70051e-06
9.48623e-06
9.27551e-06
9.06868e-06
8.86609e-06
8.6678e-06
8.47345e-06
8.28253e-06
8.09478e-06
7.91027e-06
7.72929e-06
7.55189e-06
7.37766e-06
7.20586e-06
7.03581e-06
6.86737e-06
6.70104e-06
6.53756e-06
6.37739e-06
6.22024e-06
6.06513e-06
5.91094e-06
5.75697e-06
5.60339e-06
5.45094e-06
5.30043e-06
5.15212e-06
5.00553e-06
4.85983e-06
4.71431e-06
4.56883e-06
4.4238e-06
4.27975e-06
4.13686e-06
3.99481e-06
3.85302e-06
3.71119e-06
3.56966e-06
3.4293e-06
3.29101e-06
3.15508e-06
3.02091e-06
2.88732e-06
2.75331e-06
2.61878e-06
2.4848e-06
2.35317e-06
2.22545e-06
2.1021e-06
1.98216e-06
1.8638e-06
1.74528e-06
1.62602e-06
1.50696e-06
1.39017e-06
1.27774e-06
1.17073e-06
1.06869e-06
9.69863e-07
8.7221e-07
7.74457e-07
6.76764e-07
5.80629e-07
4.88117e-07
4.00841e-07
3.19216e-07
2.42349e-07
1.68564e-07
9.6283e-08
2.47742e-08
-4.55488e-08
-1.13422e-07
-1.77392e-07
-2.36533e-07
-2.90832e-07
-3.41148e-07
-3.88739e-07
-4.347e-07
-4.79498e-07
-5.22884e-07
-5.641e-07
-6.02332e-07
-6.37093e-07
-6.68458e-07
-6.96972e-07
-7.23427e-07
-7.48483e-07
-7.72488e-07
-7.95356e-07
-8.16759e-07
-8.36267e-07
-8.53662e-07
-8.68937e-07
-8.82415e-07
-8.94477e-07
-9.05575e-07
-9.15907e-07
-9.25598e-07
-9.34479e-07
-9.42477e-07
-9.49387e-07
-9.55311e-07
-9.60249e-07
-9.6454e-07
-9.68243e-07
-9.71704e-07
-9.74804e-07
-9.77773e-07
-9.80299e-07
-9.8262e-07
-9.84368e-07
-9.85948e-07
-9.86986e-07
-9.88074e-07
-9.88729e-07
-9.89664e-07
-9.9017e-07
-9.91083e-07
-9.91424e-07
-9.92258e-07
-9.92329e-07
-9.93053e-07
-9.92844e-07
-9.93563e-07
-9.93156e-07
-9.94024e-07
-9.93475e-07
-9.94593e-07
-9.93862e-07
-9.9527e-07
-9.94259e-07
-9.96012e-07
-9.94627e-07
-9.96839e-07
-9.95001e-07
-9.97847e-07
-9.95457e-07
-9.99147e-07
-9.96053e-07
-1.00083e-06
-9.96818e-07
-1.00299e-06
-9.9779e-07
-1.00577e-06
-9.99045e-07
-1.00935e-06
-1.00071e-06
-1.01401e-06
-1.00296e-06
-1.02007e-06
-1.00603e-06
-1.02791e-06
-1.01023e-06
-1.03793e-06
-1.01603e-06
-1.05045e-06
-1.02404e-06
-1.06536e-06
-1.03502e-06
-1.08118e-06
-1.04961e-06
-1.09231e-06
-1.06744e-06
-1.08035e-06
-1.08381e-06
-9.79795e-07
-1.07315e-06
-4.45938e-07
-7.13793e-07
-7.13793e-07
-0.0942784
0.0942784
0.121016
0.09697
0.0717942
0.0531988
0.0402018
0.0311124
0.0246587
0.0199862
0.0165332
0.0139291
0.0119263
0.0103566
0.00910422
0.00808811
0.00725077
0.00655088
0.0059583
0.0054508
0.0050117
0.00462837
0.00429104
0.00399213
0.00372562
0.00348669
0.00327144
0.00307667
0.00289972
0.0027384
0.00259082
0.0024554
0.0023308
0.00221584
0.00210952
0.00201096
0.00191939
0.00183415
0.00175465
0.00168036
0.00161082
0.00154561
0.00148438
0.00142679
0.00137255
0.00132138
0.00127307
0.00122737
0.00118412
0.00114311
0.0011042
0.00106723
0.00103207
0.000998606
0.000966716
0.000936298
0.00090726
0.000879513
0.000852977
0.000827579
0.00080325
0.000779926
0.000757551
0.000736068
0.000715428
0.000695585
0.000676494
0.000658115
0.00064041
0.000623345
0.000606887
0.000591004
0.000575669
0.000560854
0.000546535
0.000532687
0.00051929
0.000506321
0.000493762
0.000481594
0.000469801
0.000458365
0.000447272
0.000436507
0.000426057
0.000415909
0.00040605
0.00039647
0.000387157
0.000378101
0.000369293
0.000360723
0.000352382
0.000344264
0.000336358
0.000328659
0.000321158
0.000313849
0.000306726
0.000299783
0.000293013
0.000286411
0.000279972
0.00027369
0.000267562
0.000261581
0.000255743
0.000250045
0.000244482
0.000239051
0.000233747
0.000228567
0.000223508
0.000218566
0.000213738
0.00020902
0.000204411
0.000199906
0.000195504
0.000191202
0.000186997
0.000182886
0.000178867
0.000174939
0.000171098
0.000167343
0.000163671
0.00016008
0.000156569
0.000153136
0.000149779
0.000146496
0.000143285
0.000140145
0.000137074
0.000134071
0.000131133
0.00012826
0.000125451
0.000122702
0.000120015
0.000117386
0.000114815
0.0001123
0.000109841
0.000107435
0.000105083
0.000102782
0.000100531
9.83304e-05
9.61783e-05
9.40736e-05
9.20153e-05
9.00024e-05
8.80338e-05
8.61086e-05
8.42258e-05
8.23844e-05
8.05838e-05
7.8823e-05
7.71013e-05
7.54178e-05
7.37716e-05
7.21616e-05
7.0587e-05
6.9047e-05
6.7541e-05
6.60683e-05
6.46284e-05
6.32203e-05
6.18434e-05
6.04969e-05
5.91801e-05
5.78923e-05
5.66328e-05
5.54008e-05
5.41956e-05
5.30167e-05
5.18637e-05
5.07361e-05
4.96337e-05
4.85556e-05
4.75009e-05
4.64689e-05
4.54589e-05
4.44706e-05
4.3504e-05
4.25589e-05
4.16346e-05
4.07305e-05
3.98459e-05
3.89803e-05
3.81337e-05
3.73056e-05
3.64957e-05
3.57033e-05
3.49276e-05
3.41683e-05
3.34256e-05
3.26997e-05
3.19905e-05
3.12972e-05
3.06189e-05
2.99545e-05
2.93037e-05
2.86668e-05
2.80443e-05
2.74363e-05
2.68423e-05
2.62614e-05
2.56927e-05
2.51359e-05
2.4591e-05
2.40583e-05
2.35377e-05
2.30284e-05
2.25298e-05
2.20413e-05
2.15631e-05
2.10956e-05
2.06392e-05
2.01935e-05
1.97572e-05
1.93292e-05
1.89088e-05
1.84963e-05
1.80927e-05
1.76986e-05
1.73139e-05
1.69378e-05
1.65688e-05
1.62062e-05
1.58496e-05
1.54998e-05
1.5157e-05
1.48213e-05
1.44922e-05
1.41688e-05
1.38508e-05
1.35382e-05
1.32314e-05
1.29304e-05
1.26346e-05
1.23429e-05
1.20542e-05
1.17684e-05
1.14863e-05
1.12088e-05
1.09367e-05
1.06692e-05
1.04049e-05
1.01421e-05
9.87996e-06
9.6187e-06
9.35949e-06
9.10342e-06
8.85077e-06
8.60077e-06
8.35213e-06
8.10385e-06
7.8558e-06
7.60863e-06
7.3631e-06
7.11944e-06
6.87716e-06
6.63544e-06
6.39392e-06
6.15317e-06
5.91451e-06
5.67921e-06
5.44762e-06
5.2188e-06
4.99106e-06
4.76307e-06
4.53488e-06
4.30821e-06
4.08571e-06
3.86955e-06
3.66022e-06
3.45619e-06
3.25472e-06
3.05346e-06
2.85179e-06
2.65132e-06
2.45514e-06
2.26622e-06
2.08591e-06
1.9133e-06
1.74575e-06
1.58034e-06
1.41541e-06
1.25147e-06
1.09086e-06
9.36597e-07
7.90906e-07
6.54173e-07
5.24916e-07
4.00634e-07
2.79109e-07
1.59448e-07
4.24265e-08
-7.0028e-08
-1.75837e-07
-2.73794e-07
-3.6406e-07
-4.48021e-07
-5.27559e-07
-6.04225e-07
-6.78597e-07
-7.50222e-07
-8.17958e-07
-8.80666e-07
-9.37734e-07
-9.89395e-07
-1.03653e-06
-1.08034e-06
-1.12177e-06
-1.16128e-06
-1.1987e-06
-1.23354e-06
-1.26519e-06
-1.29341e-06
-1.31824e-06
-1.34023e-06
-1.35995e-06
-1.3781e-06
-1.39492e-06
-1.4106e-06
-1.42488e-06
-1.43767e-06
-1.4487e-06
-1.45816e-06
-1.46606e-06
-1.47296e-06
-1.47893e-06
-1.48449e-06
-1.48943e-06
-1.49413e-06
-1.49808e-06
-1.50169e-06
-1.50438e-06
-1.50683e-06
-1.50843e-06
-1.51013e-06
-1.51113e-06
-1.5126e-06
-1.51335e-06
-1.51476e-06
-1.51522e-06
-1.51648e-06
-1.51651e-06
-1.51762e-06
-1.51721e-06
-1.51833e-06
-1.51761e-06
-1.51899e-06
-1.51803e-06
-1.51981e-06
-1.51855e-06
-1.52079e-06
-1.51907e-06
-1.52188e-06
-1.51954e-06
-1.52311e-06
-1.52004e-06
-1.52465e-06
-1.52067e-06
-1.52666e-06
-1.52152e-06
-1.5293e-06
-1.52264e-06
-1.5327e-06
-1.52409e-06
-1.53711e-06
-1.526e-06
-1.54284e-06
-1.52857e-06
-1.55034e-06
-1.53208e-06
-1.56013e-06
-1.53689e-06
-1.57284e-06
-1.54353e-06
-1.58916e-06
-1.5527e-06
-1.60968e-06
-1.56537e-06
-1.63439e-06
-1.58266e-06