# vtk DataFile Version 2.0
FlowField
ASCII
DATASET STRUCTURED_GRID
DIMENSIONS 400 1 50
POINTS 20000 float
0 0 0
0.08 0 0
0.16 0 0
0.24 0 0
0.32 0 0
0.4 0 0
0.48 0 0
0.56 0 0
0.64 0 0
0.72 0 0
0.8 0 0
0.88 0 0
0.96 0 0
1.04 0 0
1.12 0 0
1.2 0 0
1.28 0 0
1.36 0 0
1.44 0 0
1.52 0 0
1.6 0 0
1.68 0 0
1.76 0 0
1.84 0 0
1.92 0 0
2 0 0
2.08 0 0
2.16 0 0
2.24 0 0
2.32 0 0
2.4 0 0
2.48 0 0
2.56 0 0
2.64 0 0
2.72 0 0
2.8 0 0
2.88 0 0
2.96 0 0
3.04 0 0
3.12 0 0
3.2 0 0
3.28 0 0
3.36 0 0
3.44 0 0
3.52 0 0
3.6 0 0
3.68 0 0
3.76 0 0
3.84 0 0
3.92 0 0
4 0 0
4.08 0 0
4.16 0 0
4.24 0 0
4.32 0 0
4.4 0 0
4.48 0 0
4.56 0 0
4.64 0 0
4.72 0 0
4.8 0 0
4.88 0 0
4.96 0 0
5.04 0 0
5.12 0 0
5.2 0 0
5.28 0 0
5.36 0 0
5.44 0 0
5.52 0 0
5.6 0 0
5.68 0 0
5.76 0 0
5.84 0 0
5.92 0 0
6 0 0
6.08 0 0
6.16 0 0
6.24 0 0
6.32 0 0
6.4 0 0
6.48 0 0
6.56 0 0
6.64 0 0
6.72 0 0
6.8 0 0
6.88 0 0
6.96 0 0
7.04 0 0
7.12 0 0
7.2 0 0
7.28 0 0
7.36 0 0
7.44 0 0
7.52 0 0
7.6 0 0
7.68 0 0
7.76 0 0
7.84 0 0
7.92 0 0
8 0 0
8.08 0 0
8.16 0 0
8.24 0 0
8.32 0 0
8.4 0 0
8.48 0 0
8.56 0 0
8.64 0 0
8.72 0 0
8.8 0 0
8.88 0 0
8.96 0 0
9.04 0 0
9.12 0 0
9.2 0 0
9.28 0 0
9.36 0 0
9.44 0 0
9.52 0 0
9.6 0 0
9.68 0 0
9.76 0 0
9.84 0 0
9.92 0 0
10 0 0
10.08 0 0
10.16 0 0
10.24 0 0
10.32 0 0
10.4 0 0
10.48 0 0
10.56 0 0
10.64 0 0
10.72 0 0
10.8 0 0
10.88 0 0
10.96 0 0
11.04 0 0
11.12 0 0
11.2 0 0
11.28 0 0
11.36 0 0
11.44 0 0
11.52 0 0
11.6 0 0
11.68 0 0
11.76 0 0
11.84 0 0
11.92 0 0
12 0 0
12.08 0 0
12.16 0 0
12.24 0 0
12.32 0 0
12.4 0 0
12.48 0 0
12.56 0 0
12.64 0 0
12.72 0 0
12.8 0 0
12.88 0 0
12.96 0 0
13.04 0 0
13.12 0 0
13.2 0 0
13.28 0 0
13.36 0 0
13.44 0 0
13.52 0 0
13.6 0 0
13.68 0 0
13.76 0 0
13.84 0 0
13.92 0 0
14 0 0
14.08 0 0
14.16 0 0
14.24 0 0
14.32 0 0
14.4 0 0
14.48 0 0
14.56 0 0
14.64 0 0
14.72 0 0
14.8 0 0
14.88 0 0
14.96 0 0
15.04 0 0
15.12 0 0
15.2 0 0
15.28 0 0
15.36 0 0
15.44 0 0
15.52 0 0
15.6 0 0
15.68 0 0
15.76 0 0
15.84 0 0
15.92 0 0
16 0 0
16.08 0 0
16.16 0 0
16.24 0 0
16.32 0 0
16.4 0 0
16.48 0 0
16.56 0 0
16.64 0 0
16.72 0 0
16.8 0 0
16.88 0 0
16.96 0 0
17.04 0 0
17.12 0 0
17.2 0 0
17.28 0 0
17.36 0 0
17.44 0 0
17.52 0 0
17.6 0 0
17.68 0 0
17.76 0 0
17.84 0 0
17.92 0 0
18 0 0
18.08 0 0
18.16 0 0
18.24 0 0
18.32 0 0
18.4 0 0
18.48 0 0
18.56 0 0
18.64 0 0
18.72 0 0
18.8 0 0
18.88 0 0
18.96 0 0
19.04 0 0
19.12 0 0
19.2 0 0
19.28 0 0
19.36 0 0
19.44 0 0
19.52 0 0
19.6 0 0
19.68 0 0
19.76 0 0
19.84 0 0
19.92 0 0
20 0 0
20.08 0 0
20.16 0 0
20.24 0 0
20.32 0 0
20.4 0 0
20.48 0 0
20.56 0 0
20.64 0 0
20.72 0 0
20.8 0 0
20.88 0 0
20.96 0 0
21.04 0 0
21.12 0 0
21.2 0 0
21.28 0 0
21.36 0 0
21.44 0 0
21.52 0 0
21.6 0 0
21.68 0 0
21.76 0 0
21.84 0 0
21.92 0 0
22 0 0
22.08 0 0
22.16 0 0
22.24 0 0
22.32 0 0
22.4 0 0
22.48 0 0
22.56 0 0
22.64 0 0
22.72 0 0
22.8 0 0
22.88 0 0
22.96 0 0
23.04 0 0
23.12 0 0
23.2 0 0
23.28 0 0
23.36 0 0
23.44 0 0
23.52 0 0
23.6 0 0
23.68 0 0
23.76 0 0
23.84 0 0
23.92 0 0
24 0 0
24.08 0 0
24.16 0 0
24.24 0 0
24.32 0 0
24.4 0 0
24.48 0 0
24.56 0 0
24.64 0 0
24.72 0 0
24.8 0 0
24.88 0 0
24.96 0 0
25.04 0 0
25.12 0 0
25.2 0 0
25.28 0 0
25.36 0 0
25.44 0 0
25.52 0 0
25.6 0 0
25.68 0 0
25.76 0 0
25.84 0 0
25.92 0 0
26 0 0
26.08 0 0
26.16 0 0
26.24 0 0
26.32 0 0
26.4 0 0
26.48 0 0
26.56 0 0
26.64 0 0
26.72 0 0
26.8 0 0
26.88 0 0
26.96 0 0
27.04 0 0
27.12 0 0
27.2 0 0
27.28 0 0
27.36 0 0
27.44 0 0
27.52 0 0
27.6 0 0
27.68 0 0
27.76 0 0
27.84 0 0
27.92 0 0
28 0 0
28.08 0 0
28.16 0 0
28.24 0 0
28.32 0 0
28.4 0 0
28.48 0 0
28.56 0 0
28.64 0 0
28.72 0 0
28.8 0 0
28.88 0 0
28.96 0 0
29.04 0 0
29.12 0 0
29.2 0 0
29.28 0 0
29.36 0 0
29.44 0 0
29.52 0 0
29.6 0 0
29.68 0 0
29.76 0 0
29.84 0 0
29.92 0 0
30 0 0
30.08 0 0
30.16 0 0
30.24 0 0
30.32 0 0
30.4 0 0
30.48 0 0
30.56 0 0
30.64 0 0
30.72 0 0
30.8 0 0
30.88 0 0
30.96 0 0
31.04 0 0
31.12 0 0
31.2 0 0
31.28 0 0
31.36 0 0
31.44 0 0
31.52 0 0
31.6 0 0
31.68 0 0
31.76 0 0
31.84 0 0
31.92 0 0
0 0.02 0
0.08 0.02 0
0.16 0.02 0
0.24 0.02 0
0.32 0.02 0
0.4 0.02 0
0.48 0.02 0
0.56 0.02 0
0.64 0.02 0
0.72 0.02 0
0.8 0.02 0
0.88 0.02 0
0.96 0.02 0
1.04 0.02 0
1.12 0.02 0
1.2 0.02 0
1.28 0.02 0
1.36 0.02 0
1.44 0.02 0
1.52 0.02 0
1.6 0.02 0
1.68 0.02 0
1.76 0.02 0
1.84 0.02 0
1.92 0.02 0
2 0.02 0
2.08 0.02 0
2.16 0.02 0
2.24 0.02 0
2.32 0.02 0
2.4 0.02 0
2.48 0.02 0
2.56 0.02 0
2.64 0.02 0
2.72 0.02 0
2.8 0.02 0
2.88 0.02 0
2.96 0.02 0
3.04 0.02 0
3.12 0.02 0
3.2 0.02 0
3.28 0.02 0
3.36 0.02 0
3.44 0.02 0
3.52 0.02 0
3.6 0.02 0
3.68 0.02 0
3.76 0.02 0
3.84 0.02 0
3.92 0.02 0
4 0.02 0
4.08 0.02 0
4.16 0.02 0
4.24 0.02 0
4.32 0.02 0
4.4 0.02 0
4.48 0.02 0
4.56 0.02 0
4.64 0.02 0
4.72 0.02 0
4.8 0.02 0
4.88 0.02 0
4.96 0.02 0
5.04 0.02 0
5.12 0.02 0
5.2 0.02 0
5.28 0.02 0
5.36 0.02 0
5.44 0.02 0
5.52 0.02 0
5.6 0.02 0
5.68 0.02 0
5.76 0.02 0
5.84 0.02 0
5.92 0.02 0
6 0.02 0
6.08 0.02 0
6.16 0.02 0
6.24 0.02 0
6.32 0.02 0
6.4 0.02 0
6.48 0.02 0
6.56 0.02 0
6.64 0.02 0
6.72 0.02 0
6.8 0.02 0
6.88 0.02 0
6.96 0.02 0
7.04 0.02 0
7.12 0.02 0
7.2 0.02 0
7.28 0.02 0
7.36 0.02 0
7.44 0.02 0
7.52 0.02 0
7.6 0.02 0
7.68 0.02 0
7.76 0.02 0
7.84 0.02 0
7.92 0.02 0
8 0.02 0
8.08 0.02 0
8.16 0.02 0
8.24 0.02 0
8.32 0.02 0
8.4 0.02 0
8.48 0.02 0
8.56 0.02 0
8.64 0.02 0
8.72 0.02 0
8.8 0.02 0
8.88 0.02 0
8.96 0.02 0
9.04 0.02 0
9.12 0.02 0
9.2 0.02 0
9.28 0.02 0
9.36 0.02 0
9.44 0.02 0
9.52 0.02 0
9.6 0.02 0
9.68 0.02 0
9.76 0.02 0
9.84 0.02 0
9.92 0.02 0
10 0.02 0
10.08 0.02 0
10.16 0.02 0
10.24 0.02 0
10.32 0.02 0
10.4 0.02 0
10.48 0.02 0
10.56 0.02 0
10.64 0.02 0
10.72 0.02 0
10.8 0.02 0
10.88 0.02 0
10.96 0.02 0
11.04 0.02 0
11.12 0.02 0
11.2 0.02 0
11.28 0.02 0
11.36 0.02 0
11.44 0.02 0
11.52 0.02 0
11.6 0.02 0
11.68 0.02 0
11.76 0.02 0
11.84 0.02 0
11.92 0.02 0
12 0.02 0
12.08 0.02 0
12.16 0.02 0
12.24 0.02 0
12.32 0.02 0
12.4 0.02 0
12.48 0.02 0
12.56 0.02 0
12.64 0.02 0
12.72 0.02 0
12.8 0.02 0
12.88 0.02 0
12.96 0.02 0
13.04 0.02 0
13.12 0.02 0
13.2 0.02 0
13.28 0.02 0
13.36 0.02 0
13.44 0.02 0
13.52 0.02 0
13.6 0.02 0
13.68 0.02 0
13.76 0.02 0
13.84 0.02 0
13.92 0.02 0
14 0.02 0
14.08 0.02 0
14.16 0.02 0
14.24 0.02 0
14.32 0.02 0
14.4 0.02 0
14.48 0.02 0
14.56 0.02 0
14.64 0.02 0
14.72 0.02 0
14.8 0.02 0
14.88 0.02 0
14.96 0.02 0
15.04 0.02 0
15.12 0.02 0
15.2 0.02 0
15.28 0.02 0
15.36 0.02 0
15.44 0.02 0
15.52 0.02 0
15.6 0.02 0
15.68 0.02 0
15.76 0.02 0
15.84 0.02 0
15.92 0.02 0
16 0.02 0
16.08 0.02 0
16.16 0.02 0
16.24 0.02 0
16.32 0.02 0
16.4 0.02 0
16.48 0.02 0
16.56 0.02 0
16.64 0.02 0
16.72 0.02 0
16.8 0.02 0
16.88 0.02 0
16.96 0.02 0
17.04 0.02 0
17.12 0.02 0
17.2 0.02 0
17.28 0.02 0
17.36 0.02 0
17.44 0.02 0
17.52 0.02 0
17.6 0.02 0
17.68 0.02 0
17.76 0.02 0
17.84 0.02 0
17.92 0.02 0
18 0.02 0
18.08 0.02 0
18.16 0.02 0
18.24 0.02 0
18.32 0.02 0
18.4 0.02 0
18.48 0.02 0
18.56 0.02 0
18.64 0.02 0
18.72 0.02 0
18.8 0.02 0
18.88 0.02 0
18.96 0.02 0
19.04 0.02 0
19.12 0.02 0
19.2 0.02 0
19.28 0.02 0
19.36 0.02 0
19.44 0.02 0
19.52 0.02 0
19.6 0.02 0
19.68 0.02 0
19.76 0.02 0
19.84 0.02 0
19.92 0.02 0
20 0.02 0
20.08 0.02 0
20.16 0.02 0
20.24 0.02 0
20.32 0.02 0
20.4 0.02 0
20.48 0.02 0
20.56 0.02 0
20.64 0.02 0
20.72 0.02 0
20.8 0.02 0
20.88 0.02 0
20.96 0.02 0
21.04 0.02 0
21.12 0.02 0
21.2 0.02 0
21.28 0.02 0
21.36 0.02 0
21.44 0.02 0
21.52 0.02 0
21.6 0.02 0
21.68 0.02 0
21.76 0.02 0
21.84 0.02 0
21.92 0.02 0
22 0.02 0
22.08 0.02 0
22.16 0.02 0
22.24 0.02 0
22.32 0.02 0
22.4 0.02 0
22.48 0.02 0
22.56 0.02 0
22.64 0.02 0
22.72 0.02 0
22.8 0.02 0
22.88 0.02 0
22.96 0.02 0
23.04 0.02 0
23.12 0.02 0
23.2 0.02 0
23.28 0.02 0
23.36 0.02 0
23.44 0.02 0
23.52 0.02 0
23.6 0.02 0
23.68 0.02 0
23.76 0.02 0
23.84 0.02 0
23.92 0.02 0
24 0.02 0
24.08 0.02 0
24.16 0.02 0
24.24 0.02 0
24.32 0.02 0
24.4 0.02 0
24.48 0.02 0
24.56 0.02 0
24.64 0.02 0
24.72 0.02 0
24.8 0.02 0
24.88 0.02 0
24.96 0.02 0
25.04 0.02 0
25.12 0.02 0
25.2 0.02 0
25.28 0.02 0
25.36 0.02 0
25.44 0.02 0
25.52 0.02 0
25.6 0.02 0
25.68 0.02 0
25.76 0.02 0
25.84 0.02 0
25.92 0.02 0
26 0.02 0
26.08 0.02 0
26.16 0.02 0
26.24 0.02 0
26.32 0.02 0
26.4 0.02 0
26.48 0.02 0
26.56 0.02 0
26.64 0.02 0
26.72 0.02 0
26.8 0.02 0
26.88 0.02 0
26.96 0.02 0
27.04 0.02 0
27.12 0.02 0
27.2 0.02 0
27.28 0.02 0
27.36 0.02 0
27.44 0.02 0
27.52 0.02 0
27.6 0.02 0
27.68 0.02 0
27.76 0.02 0
27.84 0.02 0
27.92 0.02 0
28 0.02 0
28.08 0.02 0
28.16 0.02 0
28.24 0.02 0
28.32 0.02 0
28.4 0.02 0
28.48 0.02 0
28.56 0.02 0
28.64 0.02 0
28.72 0.02 0
28.8 0.02 0
28.88 0.02 0
28.96 0.02 0
29.04 0.02 0
29.12 0.02 0
29.2 0.02 0
29.28 0.02 0
29.36 0.02 0
29.44 0.02 0
29.52 0.02 0
29.6 0.02 0
29.68 0.02 0
29.76 0.02 0
29.84 0.02 0
29.92 0.02 0
30 0.02 0
30.08 0.02 0
30.16 0.02 0
30.24 0.02 0
30.32 0.02 0
30.4 0.02 0
30.48 0.02 0
30.56 0.02 0
30.64 0.02 0
30.72 0.02 0
30.8 0.02 0
30.88 0.02 0
30.96 0.02 0
31.04 0.02 0
31.12 0.02 0
31.2 0.02 0
31.28 0.02 0
31.36 0.02 0
31.44 0.02 0
31.52 0.02 0
31.6 0.02 0
31.68 0.02 0
31.76 0.02 0
31.84 0.02 0
31.92 0.02 0
0 0.04 0
0.08 0.04 0
0.16 0.04 0
0.24 0.04 0
0.32 0.04 0
0.4 0.04 0
0.48 0.04 0
0.56 0.04 0
0.64 0.04 0
0.72 0.04 0
0.8 0.04 0
0.88 0.04 0
0.96 0.04 0
1.04 0.04 0
1.12 0.04 0
1.2 0.04 0
1.28 0.04 0
1.36 0.04 0
1.44 0.04 0
1.52 0.04 0
1.6 0.04 0
1.68 0.04 0
1.76 0.04 0
1.84 0.04 0
1.92 0.04 0
2 0.04 0
2.08 0.04 0
2.16 0.04 0
2.24 0.04 0
2.32 0.04 0
2.4 0.04 0
2.48 0.04 0
2.56 0.04 0
2.64 0.04 0
2.72 0.04 0
2.8 0.04 0
2.88 0.04 0
2.96 0.04 0
3.04 0.04 0
3.12 0.04 0
3.2 0.04 0
3.28 0.04 0
3.36 0.04 0
3.44 0.04 0
3.52 0.04 0
3.6 0.04 0
3.68 0.04 0
3.76 0.04 0
3.84 0.04 0
3.92 0.04 0
4 0.04 0
4.08 0.04 0
4.16 0.04 0
4.24 0.04 0
4.32 0.04 0
4.4 0.04 0
4.48 0.04 0
4.56 0.04 0
4.64 0.04 0
4.72 0.04 0
4.8 0.04 0
4.88 0.04 0
4.96 0.04 0
5.04 0.04 0
5.12 0.04 0
5.2 0.04 0
5.28 0.04 0
5.36 0.04 0
5.44 0.04 0
5.52 0.04 0
5.6 0.04 0
5.68 0.04 0
5.76 0.04 0
5.84 0.04 0
5.92 0.04 0
6 0.04 0
6.08 0.04 0
6.16 0.04 0
6.24 0.04 0
6.32 0.04 0
6.4 0.04 0
6.48 0.04 0
6.56 0.04 0
6.64 0.04 0
6.72 0.04 0
6.8 0.04 0
6.88 0.04 0
6.96 0.04 0
7.04 0.04 0
7.12 0.04 0
7.2 0.04 0
7.28 0.04 0
7.36 0.04 0
7.44 0.04 0
7.52 0.04 0
7.6 0.04 0
7.68 0.04 0
7.76 0.04 0
7.84 0.04 0
[...]
POINT_DATA 20000

SCALARS v float 1
LOOKUP_TABLE default
0
0
0
0
0
0
0
0
0
0
0
0
0
0
0
0
0
0
0
0
0
0
0
0
0
0
0
0
0
0
0
0
0
0
0
0
0
0
0
0
0
0
0
0
0
0
0
0
0
0
0
0
0
0
0
0
0
0
0
0
0
0
0
0
0
0
0
0
0
0
0
0
0
0
0
0
0
0
0
0
0
0
0
0
0
0
0
0
0
0
0
0
0
0
0
0
0
0
0
0
0
0
0
0
0
0
0
0
0
0
0
0
0
0
0
0
0
0
0
0
0
0
0
0
0
0
0
0
0
0
0
0
0
0
0
0
0
0
0
0
0
0
0
0
0
0
0
0
0
0
0
0
0
0
0
0
0
0
0
0
0
0
0
0
0
0
0
0
0
0
0
0
0
0
0
0
0
0
0
0
0
0
0
0
0
0
0
0
0
0
0
0
0
0
0
0
0
0
0
0
0
0
0
0
0
0
0
0
0
0
0
0
0
0
0
0
0
0
0
0
0
0
0
0
0
0
0
0
0
0
0
0
0
0
0
0
0
0
0
0
0
0
0
0
0
0
0
0
0
0
0
0
0
0
0
0
0
0
0
0
0
0
0
0
0
0
0
0
0
0
0
0
0
0
0
0
0
0
0
0
0
0
0
0
0
0
0
0
0
0
0
0
0
0
0
0
0
0
0
0
0
0
0
0
0
0
0
0
0
0
0
0
0
0
0
0
0
0
0
0
0
0
0
0
0
0
0
0
0
0
0
0
0
0
0
0
0
0
0
0
0
0
0
0
0
0
0
0
0
0
0
0
0
0
0
0
0
0
0
0
0
0
0
0
0
0
0
0
0
0
0
0
0
0
0
0
0
0
0
0
0
0
0
0
0
0
0
0
0
0
0
0
0
0
0
0
0
0
0
0
-0.122998
0.122998
0.0537
0.019399
0.00805067
0.00333532
0.00104066
8.38097e-05
-0.00020555
-0.000245145
-0.000221072
-0.000192225
-0.00017106
-0.000156991
-0.000148177
-0.000142584
-0.000139339
-0.000137376
-0.00013649
-0.00013605
-0.000136139
-0.000136318
-0.000136796
-0.000137217
-0.000137846
-0.000138361
-0.000139048
-0.000139598
-0.000140308
-0.000140874
-0.000141594
-0.000142169
-0.000142898
-0.00014348
-0.000144216
-0.000144807
-0.000145552
-0.000146152
-0.000146907
-0.000147517
-0.000148283
-0.000148904
-0.000149682
-0.000150314
-0.000151105
-0.00015175
-0.000152554
-0.000153212
-0.000154029
-0.000154702
-0.000155533
-0.00015622
-0.000157066
-0.000157767
-0.000158628
-0.000159345
-0.000160221
-0.000160954
-0.000161847
-0.000162596
-0.000163505
-0.000164271
-0.000165197
-0.00016598
-0.000166925
-0.000167726
-0.000168688
-0.000169508
-0.000170489
-0.000171328
-0.000172329
-0.000173187
-0.000174208
-0.000175087
-0.000176128
-0.000177028
-0.000178092
-0.000179013
-0.000180099
-0.000181043
-0.000182152
-0.000183119
-0.000184251
-0.000185243
-0.0001864
-0.000187417
-0.0001886
-0.000189642
-0.000190851
-0.000191921
-0.000193157
-0.000194255
-0.00019552
-0.000196646
-0.000197941
-0.000199097
-0.000200422
-0.00020161
-0.000202967
-0.000204187
-0.000205577
-0.000206831
-0.000208255
-0.000209544
-0.000211004
-0.000212329
-0.000213826
-0.000215189
-0.000216725
-0.000218127
-0.000219704
-0.000221147
-0.000222765
-0.00022425
-0.000225912
-0.000227442
-0.00022915
-0.000230726
-0.000232481
-0.000234106
-0.00023591
-0.000237585
-0.000239441
-0.000241169
-0.000243078
-0.000244861
-0.000246827
-0.000248668
-0.000250693
-0.000252594
-0.00025468
-0.000256644
-0.000258795
-0.000260825
-0.000263044
-0.000265143
-0.000267432
-0.000269604
-0.000271968
-0.000274216
-0.000276658
-0.000278986
-0.00028151
-0.000283922
-0.000286533
-0.000289033
-0.000291734
-0.000294328
-0.000297125
-0.000299817
-0.000302715
-0.00030551
-0.000308515
-0.000311419
-0.000314536
-0.000317556
-0.000320792
-0.000323934
-0.000327295
-0.000330567
-0.000334061
-0.000337469
-0.000341105
-0.000344658
-0.000348444
-0.000352151
-0.000356096
-0.000359967
-0.000364081
-0.000368127
-0.00037242
-0.000376652
-0.000381138
-0.000385568
-0.000390258
-0.000394901
-0.00039981
-0.00040468
-0.000409824
-0.000414936
-0.000420333
-0.000425706
-0.000431373
-0.000437027
-0.000442986
-0.000448942
-0.000455215
-0.000461498
-0.000468111
-0.000474747
-0.000481728
-0.000488747
-0.000496127
-0.000503563
-0.000511376
-0.000519265
-0.000527552
-0.000535934
-0.000544738
-0.00055366
-0.000563029
-0.000572543
-0.000582531
-0.000592693
-0.000603361
-0.000614237
-0.000625653
-0.000637313
-0.000649553
-0.000662077
-0.000675224
-0.000688702
-0.00070285
-0.000717379
-0.000732632
-0.000748322
-0.000764794
-0.000781765
-0.000799583
-0.000817967
-0.000837268
-0.00085721
-0.000878147
-0.000899804
-0.000922541
-0.000946084
-0.000970797
-0.000996411
-0.00102329
-0.00105117
-0.00108042
-0.00111078
-0.00114261
-0.00117567
-0.00121031
-0.0012463
-0.00128399
-0.00132314
-0.00136412
-0.00140668
-0.00145119
-0.00149741
-0.00154571
-0.00159583
-0.00164815
-0.00170242
-0.001759
-0.00181765
-0.00187873
-0.00194197
-0.00200774
-0.00207577
-0.00214642
-0.00221942
-0.0022951
-0.00237319
-0.00245402
-0.0025373
-0.00262335
-0.00271186
-0.00280315
-0.00289688
-0.00299337
-0.00309226
-0.00319383
-0.00329772
-0.00340421
-0.00351289
-0.00362403
-0.00373721
-0.00385265
-0.00396993
-0.00408926
-0.00421018
-0.00433287
-0.00445685
-0.0045823
-0.0047087
-0.0048362
-0.00496429
-0.00509306
-0.00522199
-0.00535117
-0.00548005
-0.0056087
-0.00573656
-0.00586367
-0.00598947
-0.00611399
-0.00623665
-0.00635748
-0.00647589
-0.00659191
-0.00670494
-0.00681502
-0.00692154
-0.00702456
-0.00712347
-0.00721833
-0.00730856
-0.00739422
-0.00747476
-0.00755024
-0.00762014
-0.00768456
-0.00774299
-0.00779556
-0.00784177
-0.00788181
-0.00791522
-0.0079422
-0.00796232
-0.00797584
-0.00798236
-0.00798217
-0.00797493
-0.00796096
-0.00793995
-0.00791225
-0.00787762
-0.00783645
-0.00778851
-0.00773423
-0.00767344
-0.0076066
-0.00753357
-0.00745483
-0.00737027
-0.00728043
-0.00718521
-0.00708515
-0.00698021
-0.00687094
-0.0067573
-0.00663988
-0.00651865
-0.00639419
-0.0062665
-0.00613617
-0.00600318
-0.00586813
-0.00573102
-0.00559244
-0.00545236
-0.00531139
-0.00516949
-0.00502725
-0.00488461
-0.00474216
-0.00459984
-0.00445819
-0.00431714
-0.00417724
-0.00403837
-0.00390106
-0.0037652
-0.00363126
-0.00349913
-0.00336926
-0.0032415
-0.00311629
-0.00299345
-0.00287342
-0.00275598
-0.00264154
-0.00252987
-0.00242136
-0.00231577
-0.00221346
-0.00211416
-0.00201823
-0.00192538
-0.00183594
-0.00174963
-0.00166675
-0.00158701
-0.0015107
-0.00143751
-0.00136773
-0.00130104
-0.00123772
-0.00117743
-0.00112046
-0.00106647
-0.00101573
-0.000967901
-0.000923265
-0.000881475
-0.000842786
-0.000806817
-0.000773804
-0.000743396
-0.000715934
-0.00069126
-0.000669961
-0.000652101
-0.000638324
-0.000628087
-0.00061578
-0.00061578
-0.141584
0.141584
0.100996
0.0539471
0.0275851
0.0126248
0.00463018
0.00108965
-0.000143544
-0.000451935
-0.000475008
-0.000436003
-0.000396385
-0.000366256
-0.000345813
-0.000331892
-0.00032334
-0.000317804
-0.000315048
-0.00031345
-0.00031333
-0.000313473
-0.000314487
-0.000315361
-0.000316843
-0.000318012
-0.000319681
-0.000320967
-0.00032271
-0.000324043
-0.000325816
-0.000327171
-0.000328962
-0.000330331
-0.000332137
-0.000333521
-0.000335343
-0.000336745
-0.000338585
-0.000340007
-0.000341869
-0.000343313
-0.000345199
-0.000346667
-0.000348579
-0.000350073
-0.000352012
-0.000353535
-0.000355502
-0.000357054
-0.000359051
-0.000360633
-0.000362662
-0.000364276
-0.000366337
-0.000367983
-0.000370078
-0.000371757
-0.000373887
-0.000375601
-0.000377766
-0.000379516
-0.000381718
-0.000383505
-0.000385745
-0.00038757
-0.000389848
-0.000391713
-0.000394031
-0.000395936
-0.000398296
-0.000400242
-0.000402644
-0.000404634
-0.000407079
-0.000409113
-0.000411603
-0.000413683
-0.000416219
-0.000418345
-0.00042093
-0.000423104
-0.000425738
-0.000427962
-0.000430646
-0.000432922
-0.000435658
-0.000437987
-0.000440777
-0.00044316
-0.000446006
-0.000448445
-0.000451349
-0.000453846
-0.000456809
-0.000459366
-0.00046239
-0.000465009
-0.000468096
-0.000470779
-0.000473931
-0.00047668
-0.0004799
-0.000482717
-0.000486006
-0.000488894
-0.000492254
-0.000495215
-0.00049865
-0.000501686
-0.000505198
-0.000508312
-0.000511904
-0.000515098
-0.000518772
-0.00052205
-0.000525809
-0.000529173
-0.00053302
-0.000536474
-0.000540413
-0.000543959
-0.000547992
-0.000551635
-0.000555765
-0.000559508
-0.00056374
-0.000567586
-0.000571923
-0.000575876
-0.000580323
-0.000584387
-0.000588947
-0.000593127
-0.000597805
-0.000602104
-0.000606905
-0.000611328
-0.000616256
-0.000620809
-0.000625869
-0.000630557
-0.000635755
-0.000640583
-0.000645923
-0.000650897
-0.000656387
-0.000661513
-0.000667157
-0.000672442
-0.000678248
-0.000683697
-0.000689672
-0.000695293
-0.000701444
-0.000707245
-0.000713579
-0.000719568
-0.000726094
-0.000732278
-0.000739005
-0.000745394
-0.00075233
-0.000758934
-0.000766089
-0.000772917
-0.000780302
-0.000787364
-0.000794991
-0.000802299
-0.000810178
-0.000817745
-0.000825889
-0.000833728
-0.00084215
-0.000850275
-0.00085899
-0.000867416
-0.00087644
-0.000885182
-0.000894532
-0.000903609
-0.000913303
-0.000922734
-0.000932792
-0.000942597
-0.000953041
-0.000963243
-0.000974097
-0.000984721
-0.000996011
-0.00100709
-0.00101884
-0.00103039
-0.00104264
-0.00105471
-0.0010675
-0.00108011
-0.00109347
-0.00110668
-0.00112065
-0.00113449
-0.00114913
-0.00116366
-0.00117901
-0.00119429
-0.00121042
-0.00122651
-0.00124348
-0.00126045
-0.00127833
-0.00129626
-0.00131515
-0.00133413
-0.0013541
-0.00137422
-0.00139539
-0.00141676
-0.00143923
-0.00146196
-0.00148587
-0.00151009
-0.00153555
-0.0015614
-0.00158858
-0.00161621
-0.00164525
-0.00167483
-0.0017059
-0.00173761
-0.00177089
-0.00180491
-0.0018406
-0.00187711
-0.00191541
-0.00195464
-0.00199575
-0.0020379
-0.00208204
-0.00212734
-0.00217473
-0.00222338
-0.00227424
-0.00232648
-0.00238103
-0.00243705
-0.0024955
-0.00255553
-0.00261807
-0.00268229
-0.00274911
-0.00281769
-0.00288895
-0.00296203
-0.00303785
-0.00311555
-0.00319604
-0.00327843
-0.00336362
-0.00345073
-0.00354064
-0.00363244
-0.00372701
-0.00382343
-0.00392254
-0.00402341
-0.00412688
-0.00423199
-0.00433956
-0.0044486
-0.00455993
-0.00467253
-0.00478719
-0.00490288
-0.00502036
-0.00513859
-0.00525831
-0.00537844
-0.00549971
-0.00562103
-0.00574309
-0.00586479
-0.00598681
-0.00610801
-0.00622907
-0.00634885
-0.00646798
-0.00658532
-0.0067015
-0.00681537
-0.00692755
-0.00703687
-0.00714396
-0.00724765
-0.00734856
-0.00744553
-0.00753918
-0.00762837
-0.00771372
-0.00779409
-0.00787014
-0.00794072
-0.00800653
-0.00806644
-0.00812115
-0.00816958
-0.00821245
-0.00824871
-0.0082791
-0.00830262
-0.00832003
-0.00833037
-0.00833445
-0.00833132
-0.00832185
-0.00830512
-0.00828204
-0.00825173
-0.00821514
-0.00817143
-0.00812158
-0.0080648
-0.0080021
-0.00793273
-0.00785772
-0.00777638
-0.00768976
-0.00759719
-0.00749976
-0.00739681
-0.00728948
-0.00717713
-0.00706089
-0.00694016
-0.00681609
-0.00668807
-0.00655729
-0.00642314
-0.00628681
-0.00614769
-0.00600696
-0.00586404
-0.0057201
-0.00557454
-0.00542852
-0.00528145
-0.00513448
-0.00498699
-0.00484011
-0.00469323
-0.00454746
-0.00440215
-0.00425841
-0.00411557
-0.00397472
-0.00383515
-0.00369794
-0.00356237
-0.00342948
-0.00329854
-0.00317057
-0.0030448
-0.00292223
-0.00280209
-0.00268535
-0.0025712
-0.0024606
-0.00235273
-0.00224853
-0.00214715
-0.00204952
-0.00195478
-0.00186382
-0.00177579
-0.00169156
-0.00161026
-0.00153276
-0.00145816
-0.00138733
-0.00131937
-0.00125514
-0.00119372
-0.00113597
-0.00108096
-0.00102956
-0.000980837
-0.000935648
-0.000893073
-0.000853933
-0.000817279
-0.00078392
-0.000752939
-0.000725249
-0.000700111
-0.000678647
-0.000660288
-0.000646089
-0.000634706
-0.000622436
-0.000622436
-0.121207
0.121207
0.121746
0.0827117
0.0495204
0.0254359
0.0107625
0.00353934
0.000629907
-0.000342613
-0.00060307
-0.000640572
-0.000621319
-0.000592502
-0.000567999
-0.000548832
-0.000535931
-0.00052689
-0.000521934
-0.000518784
-0.000518036
-0.000517809
-0.000519051
-0.000520155
-0.000522275
-0.000523952
-0.000526441
-0.000528352
-0.00053099
-0.000532992
-0.000535687
-0.000537725
-0.000540444
-0.000542499
-0.000545233
-0.000547302
-0.00055005
-0.000552136
-0.000554903
-0.000557009
-0.000559799
-0.000561928
-0.000564744
-0.000566901
-0.000569747
-0.000571934
-0.000574812
-0.000577031
-0.000579943
-0.000582198
-0.000585146
-0.000587437
-0.000590423
-0.000592752
-0.000595777
-0.000598145
-0.000601211
-0.00060362
-0.000606727
-0.000609179
-0.000612329
-0.000614824
-0.000618018
-0.000620558
-0.000623798
-0.000626383
-0.00062967
-0.000632302
-0.000635636
-0.000638317
-0.000641701
-0.00064443
-0.000647865
-0.000650645
-0.000654131
-0.000656964
-0.000660502
-0.000663388
-0.000666981
-0.000669922
-0.000673571
-0.000676567
-0.000680273
-0.000683327
-0.000687092
-0.000690205
-0.000694029
-0.000697203
-0.000701089
-0.000704325
-0.000708274
-0.000711573
-0.000715587
-0.000718952
-0.000723032
-0.000726464
-0.000730612
-0.000734113
-0.000738331
-0.000741903
-0.000746193
-0.000749837
-0.000754201
-0.000757919
-0.000762359
-0.000766154
-0.000770671
-0.000774544
-0.000779142
-0.000783096
-0.000787775
-0.000791812
-0.000796576
-0.000800698
-0.000805548
-0.000809758
-0.000814697
-0.000818997
-0.000824028
-0.000828421
-0.000833546
-0.000838033
-0.000843255
-0.000847841
-0.000853163
-0.000857849
-0.000863273
-0.000868064
-0.000873594
-0.000878491
-0.00088413
-0.000889137
-0.000894888
-0.000900009
-0.000905875
-0.000911113
-0.000917098
-0.000922457
-0.000928565
-0.000934049
-0.000940283
-0.000945895
-0.00095226
-0.000958005
-0.000964505
-0.000970387
-0.000977027
-0.00098305
-0.000989834
-0.000996004
-0.00100294
-0.00100926
-0.00101635
-0.00102282
-0.00103007
-0.00103671
-0.00104412
-0.00105093
-0.00105852
-0.0010655
-0.00107326
-0.00108043
-0.00108838
-0.00109573
-0.00110387
-0.00111142
-0.00111976
-0.00112751
-0.00113606
-0.00114402
-0.00115279
-0.00116097
-0.00116996
-0.00117838
-0.00118761
-0.00119627
-0.00120574
-0.00121465
-0.00122439
-0.00123357
-0.00124357
-0.00125303
-0.00126332
-0.00127308
-0.00128367
-0.00129374
-0.00130465
-0.00131505
-0.0013263
-0.00133705
-0.00134866
-0.00135978
-0.00137178
-0.00138329
-0.00139571
-0.00140765
-0.0014205
-0.0014329
-0.00144623
-0.00145912
-0.00147296
-0.00148638
-0.00150078
-0.00151479
-0.00152979
-0.00154442
-0.00156009
-0.00157541
-0.00159179
-0.00160787
-0.00162504
-0.00164194
-0.00165997
-0.00167778
-0.00169677
-0.00171558
-0.00173561
-0.00175552
-0.00177671
-0.00179783
-0.00182029
-0.00184274
-0.0018666
-0.00189053
-0.00191594
-0.00194148
-0.00196858
-0.00199591
-0.00202488
-0.00205415
-0.00208517
-0.00211658
-0.00214983
-0.00218357
-0.00221926
-0.00225554
-0.00229387
-0.00233291
-0.00237411
-0.00241612
-0.0024604
-0.00250562
-0.00255321
-0.00260184
-0.00265297
-0.00270525
-0.00276013
-0.00281626
-0.0028751
-0.0029353
-0.00299828
-0.00306272
-0.00313003
-0.00319885
-0.00327063
-0.00334398
-0.00342032
-0.00349829
-0.00357927
-0.00366189
-0.00374753
-0.00383479
-0.00392506
-0.0040169
-0.00411169
-0.00420798
-0.00430712
-0.00440766
-0.00451092
-0.00461542
-0.00472247
-0.00483058
-0.00494102
-0.00505228
-0.00516563
-0.00527952
-0.00539519
-0.00551109
-0.00562842
-0.00574562
-0.00586388
-0.0059816
-0.00609995
-0.00621733
-0.00633488
-0.00645099
-0.00656679
-0.00668063
-0.00679366
-0.00690421
-0.00701342
-0.00711962
-0.00722392
-0.00732468
-0.007423
-0.00751723
-0.00760849
-0.00769513
-0.00777828
-0.0078563
-0.00793033
-0.00799875
-0.00806273
-0.00812065
-0.00817371
-0.00822032
-0.00826171
-0.00829631
-0.00832538
-0.00834739
-0.00836363
-0.0083726
-0.00837563
-0.00837127
-0.00836087
-0.00834303
-0.00831913
-0.00828781
-0.00825049
-0.00820585
-0.00815537
-0.00809774
-0.00803447
-0.00796432
-0.00788881
-0.00780674
-0.00771966
-0.00762641
-0.00752856
-0.00742497
-0.00731725
-0.00720427
-0.00708767
-0.00696633
-0.00684191
-0.00671331
-0.00658219
-0.00644746
-0.0063108
-0.0061711
-0.00603005
-0.00588655
-0.00574229
-0.00559615
-0.00544981
-0.00530216
-0.00515486
-0.00500678
-0.00485958
-0.00471212
-0.00456601
-0.00442012
-0.00427605
-0.00413263
-0.00399144
-0.0038513
-0.00371375
-0.00357761
-0.0034444
-0.00331289
-0.00318459
-0.00305826
-0.00293539
-0.00281469
-0.00269764
-0.00258295
-0.00247207
-0.00236368
-0.0022592
-0.00215731
-0.00205943
-0.00196419
-0.001873
-0.00178449
-0.00170004
-0.00161828
-0.00154058
-0.00146555
-0.00139455
-0.00132617
-0.00126179
-0.00119998
-0.0011421
-0.00108673
-0.00103522
-0.000986155
-0.000940888
-0.000897995
-0.000858799
-0.000821851
-0.000788467
-0.000757235
-0.000729566
-0.000704208
-0.00068275
-0.00066406
-0.000649576
-0.000637424
-0.000625711
-0.000625711
-0.0928113
0.0928113
0.120931
0.0980342
0.0667004
0.0382871
0.0184673
0.00746949
0.00237183
0.000307171
-0.000447249
-0.000694346
-0.000760135
-0.000763595
-0.000749607
-0.000732016
-0.000717582
-0.000706071
-0.000698907
-0.000693907
-0.00069194
-0.000690832
-0.000691667
-0.000692518
-0.000694694
-0.000696446
-0.000699217
-0.000701353
-0.000704368
-0.000706655
-0.00070976
-0.000712098
-0.000715231
-0.000717583
-0.000720723
-0.000723079
-0.000726224
-0.000728584
-0.000731736
-0.000734105
-0.000737269
-0.000739652
-0.000742833
-0.000745235
-0.000748436
-0.00075086
-0.000754086
-0.000756536
-0.000759789
-0.000762267
-0.00076555
-0.000768058
-0.000771372
-0.000773912
-0.000777259
-0.000779832
-0.000783214
-0.000785822
-0.000789239
-0.000791883
-0.000795338
-0.000798019
-0.000801511
-0.000804231
-0.000807762
-0.000810521
-0.000814092
-0.000816891
-0.000820504
-0.000823344
-0.000826999
-0.000829881
-0.000833578
-0.000836504
-0.000840245
-0.000843215
-0.000847001
-0.000850016
-0.000853849
-0.000856909
-0.000860789
-0.000863896
-0.000867824
-0.00087098
-0.000874956
-0.000878161
-0.000882188
-0.000885443
-0.000889521
-0.000892828
-0.000896958
-0.000900317
-0.000904501
-0.000907914
-0.000912152
-0.00091562
-0.000919914
-0.000923438
-0.000927789
-0.000931371
-0.00093578
-0.00093942
-0.000943889
-0.00094759
-0.00095212
-0.000955882
-0.000960474
-0.0009643
-0.000968956
-0.000972846
-0.000977567
-0.000981523
-0.000986312
-0.000990335
-0.000995193
-0.000999285
-0.00100421
-0.00100838
-0.00101338
-0.00101761
-0.00102269
-0.001027
-0.00103215
-0.00103653
-0.00104176
-0.00104623
-0.00105154
-0.00105608
-0.00106147
-0.0010661
-0.00107157
-0.00107629
-0.00108185
-0.00108665
-0.0010923
-0.00109719
-0.00110293
-0.00110792
-0.00111376
-0.00111884
-0.00112477
-0.00112995
-0.00113598
-0.00114126
-0.0011474
-0.00115279
-0.00115903
-0.00116453
-0.00117088
-0.00117649
-0.00118296
-0.00118868
-0.00119527
-0.00120111
-0.00120782
-0.00121379
-0.00122063
-0.00122672
-0.00123369
-0.00123993
-0.00124703
-0.00125341
-0.00126066
-0.00126717
-0.00127457
-0.00128124
-0.0012888
-0.00129563
-0.00130334
-0.00131034
-0.00131823
-0.0013254
-0.00133346
-0.00134082
-0.00134907
-0.00135662
-0.00136507
-0.00137281
-0.00138147
-0.00138944
-0.00139831
-0.0014065
-0.00141562
-0.00142405
-0.00143341
-0.00144209
-0.00145172
-0.00146068
-0.00147059
-0.00147984
-0.00149005
-0.00149962
-0.00151016
-0.00152007
-0.00153096
-0.00154124
-0.00155251
-0.00156319
-0.00157488
-0.00158599
-0.00159813
-0.00160971
-0.00162236
-0.00163446
-0.00164764
-0.00166032
-0.0016741
-0.00168741
-0.00170185
-0.00171585
-0.00173103
-0.00174579
-0.00176178
-0.0017774
-0.00179428
-0.00181084
-0.00182872
-0.00184633
-0.00186531
-0.00188407
-0.00190428
-0.00192433
-0.00194589
-0.00196737
-0.00199043
-0.00201348
-0.0020382
-0.002063
-0.00208954
-0.00211626
-0.00214482
-0.00217365
-0.00220441
-0.00223555
-0.00226873
-0.00230239
-0.00233821
-0.00237461
-0.00241328
-0.00245266
-0.00249441
-0.00253699
-0.00258207
-0.00262808
-0.00267671
-0.00272639
-0.00277879
-0.00283236
-0.00288876
-0.00294642
-0.00300702
-0.00306897
-0.00313395
-0.00320036
-0.00326986
-0.00334087
-0.00341502
-0.00349072
-0.00356959
-0.00365004
-0.00373367
-0.00381887
-0.00390724
-0.00399713
-0.00409014
-0.0041846
-0.00428209
-0.00438094
-0.00448268
-0.00458564
-0.00469133
-0.00479803
-0.00490727
-0.00501729
-0.00512959
-0.0052424
-0.0053572
-0.00547218
-0.00558881
-0.00570528
-0.005823
-0.00594016
-0.00605816
-0.00617515
-0.00629252
-0.00640841
-0.0065242
-0.006638
-0.00675118
-0.00686186
-0.00697138
-0.00707786
-0.00718264
-0.00728383
-0.00738277
-0.00747757
-0.00756959
-0.00765693
-0.00774096
-0.00781979
-0.00789482
-0.00796416
-0.00802922
-0.00808816
-0.00814239
-0.00819009
-0.00823271
-0.00826847
-0.00829882
-0.00832203
-0.00833959
-0.00834979
-0.00835416
-0.00835104
-0.00834199
-0.00832538
-0.00830282
-0.00827272
-0.00823673
-0.00819328
-0.00814408
-0.00808761
-0.00802558
-0.00795653
-0.00788221
-0.00780118
-0.00771523
-0.00762295
-0.00752616
-0.00742346
-0.00731672
-0.00720457
-0.00708887
-0.00696827
-0.00684467
-0.00671672
-0.00658633
-0.00645217
-0.00631615
-0.00617694
-0.00603645
-0.00589336
-0.00574957
-0.00560376
-0.00545782
-0.00531042
-0.00516344
-0.00501555
-0.0048686
-0.00472124
-0.00457533
-0.00442949
-0.00428555
-0.00414212
-0.00400101