# vtk DataFile Version 2.0
FlowField
ASCII
DATASET STRUCTURED_GRID
DIMENSIONS 400 1 50
POINTS 20000 float
0 0 0
0.08 0 0
0.16 0 0
0.24 0 0
0.32 0 0
0.4 0 0
0.48 0 0
0.56 0 0
0.64 0 0
0.72 0 0
0.8 0 0
0.88 0 0
0.96 0 0
1.04 0 0
1.12 0 0
1.2 0 0
1.28 0 0
1.36 0 0
1.44 0 0
1.52 0 0
1.6 0 0
1.68 0 0
1.76 0 0
1.84 0 0
1.92 0 0
2 0 0
2.08 0 0
2.16 0 0
2.24 0 0
2.32 0 0
2.4 0 0
2.48 0 0
2.56 0 0
2.64 0 0
2.72 0 0
2.8 0 0
2.88 0 0
2.96 0 0
3.04 0 0
3.12 0 0
3.2 0 0
3.28 0 0
3.36 0 0
3.44 0 0
3.52 0 0
3.6 0 0
3.68 0 0
3.76 0 0
3.84 0 0
3.92 0 0
4 0 0
4.08 0 0
4.16 0 0
4.24 0 0
4.32 0 0
4.4 0 0
4.48 0 0
4.56 0 0
4.64 0 0
4.72 0 0
4.8 0 0
4.88 0 0
4.96 0 0
5.04 0 0
5.12 0 0
5.2 0 0
5.28 0 0
5.36 0 0
5.44 0 0
5.52 0 0
5.6 0 0
5.68 0 0
5.76 0 0
5.84 0 0
5.92 0 0
6 0 0
6.08 0 0
6.16 0 0
6.24 0 0
6.32 0 0
6.4 0 0
6.48 0 0
6.56 0 0
6.64 0 0
6.72 0 0
6.8 0 0
6.88 0 0
6.96 0 0
7.04 0 0
7.12 0 0
7.2 0 0
7.28 0 0
7.36 0 0
7.44 0 0
7.52 0 0
7.6 0 0
7.68 0 0
7.76 0 0
7.84 0 0
7.92 0 0
8 0 0
8.08 0 0
8.16 0 0
8.24 0 0
8.32 0 0
8.4 0 0
8.48 0 0
8.56 0 0
8.64 0 0
8.72 0 0
8.8 0 0
8.88 0 0
8.96 0 0
9.04 0 0
9.12 0 0
9.2 0 0
9.28 0 0
9.36 0 0
9.44 0 0
9.52 0 0
9.6 0 0
9.68 0 0
9.76 0 0
9.84 0 0
9.92 0 0
10 0 0
10.08 0 0
10.16 0 0
10.24 0 0
10.32 0 0
10.4 0 0
10.48 0 0
10.56 0 0
10.64 0 0
10.72 0 0
10.8 0 0
10.88 0 0
10.96 0 0
11.04 0 0
11.12 0 0
11.2 0 0
11.28 0 0
11.36 0 0
11.44 0 0
11.52 0 0
11.6 0 0
11.68 0 0
11.76 0 0
11.84 0 0
11.92 0 0
12 0 0
12.08 0 0
12.16 0 0
12.24 0 0
12.32 0 0
12.4 0 0
12.48 0 0
12.56 0 0
12.64 0 0
12.72 0 0
12.8 0 0
12.88 0 0
12.96 0 0
13.04 0 0
13.12 0 0
13.2 0 0
13.28 0 0
13.36 0 0
13.44 0 0
13.52 0 0
13.6 0 0
13.68 0 0
13.76 0 0
13.84 0 0
13.92 0 0
14 0 0
14.08 0 0
14.16 0 0
14.24 0 0
14.32 0 0
14.4 0 0
14.48 0 0
14.56 0 0
14.64 0 0
14.72 0 0
14.8 0 0
14.88 0 0
14.96 0 0
15.04 0 0
15.12 0 0
15.2 0 0
15.28 0 0
15.36 0 0
15.44 0 0
15.52 0 0
15.6 0 0
15.68 0 0
15.76 0 0
15.84 0 0
15.92 0 0
16 0 0
16.08 0 0
16.16 0 0
16.24 0 0
16.32 0 0
16.4 0 0
16.48 0 0
16.56 0 0
16.64 0 0
16.72 0 0
16.8 0 0
16.88 0 0
16.96 0 0
17.04 0 0
17.12 0 0
17.2 0 0
17.28 0 0
17.36 0 0
17.44 0 0
17.52 0 0
17.6 0 0
17.68 0 0
17.76 0 0
17.84 0 0
17.92 0 0
18 0 0
18.08 0 0
18.16 0 0
18.24 0 0
18.32 0 0
18.4 0 0
18.48 0 0
18.56 0 0
18.64 0 0
18.72 0 0
18.8 0 0
18.88 0 0
18.96 0 0
19.04 0 0
19.12 0 0
19.2 0 0
19.28 0 0
19.36 0 0
19.44 0 0
19.52 0 0
19.6 0 0
19.68 0 0
19.76 0 0
19.84 0 0
19.92 0 0
20 0 0
20.08 0 0
20.16 0 0
20.24 0 0
20.32 0 0
20.4 0 0
20.48 0 0
20.56 0 0
20.64 0 0
20.72 0 0
20.8 0 0
20.88 0 0
20.96 0 0
21.04 0 0
21.12 0 0
21.2 0 0
21.28 0 0
21.36 0 0
21.44 0 0
21.52 0 0
21.6 0 0
21.68 0 0
21.76 0 0
21.84 0 0
21.92 0 0
22 0 0
22.08 0 0
22.16 0 0
22.24 0 0
22.32 0 0
22.4 0 0
22.48 0 0
22.56 0 0
22.64 0 0
22.72 0 0
22.8 0 0
22.88 0 0
22.96 0 0
23.04 0 0
23.12 0 0
23.2 0 0
23.28 0 0
23.36 0 0
23.44 0 0
23.52 0 0
23.6 0 0
23.68 0 0
23.76 0 0
23.84 0 0
23.92 0 0
24 0 0
24.08 0 0
24.16 0 0
24.24 0 0
24.32 0 0
24.4 0 0
24.48 0 0
24.56 0 0
24.64 0 0
24.72 0 0
24.8 0 0
24.88 0 0
24.96 0 0
25.04 0 0
25.12 0 0
25.2 0 0
25.28 0 0
25.36 0 0
25.44 0 0
25.52 0 0
25.6 0 0
25.68 0 0
25.76 0 0
25.84 0 0
25.92 0 0
26 0 0
26.08 0 0
26.16 0 0
26.24 0 0
26.32 0 0
26.4 0 0
26.48 0 0
26.56 0 0
26.64 0 0
26.72 0 0
26.8 0 0
26.88 0 0
26.96 0 0
27.04 0 0
27.12 0 0
27.2 0 0
27.28 0 0
27.36 0 0
27.44 0 0
27.52 0 0
27.6 0 0
27.68 0 0
27.76 0 0
27.84 0 0
27.92 0 0
28 0 0
28.08 0 0
28.16 0 0
28.24 0 0
28.32 0 0
28.4 0 0
28.48 0 0
28.56 0 0
28.64 0 0
28.72 0 0
28.8 0 0
28.88 0 0
28.96 0 0
29.04 0 0
29.12 0 0
29.2 0 0
29.28 0 0
29.36 0 0
29.44 0 0
29.52 0 0
29.6 0 0
29.68 0 0
29.76 0 0
29.84 0 0
29.92 0 0
30 0 0
30.08 0 0
30.16 0 0
30.24 0 0
30.32 0 0
30.4 0 0
30.48 0 0
30.56 0 0
30.64 0 0
30.72 0 0
30.8 0 0
30.88 0 0
30.96 0 0
31.04 0 0
31.12 0 0
31.2 0 0
31.28 0 0
31.36 0 0
31.44 0 0
31.52 0 0
31.6 0 0
31.68 0 0
31.76 0 0
31.84 0 0
31.92 0 0
0 0.02 0
0.08 0.02 0
0.16 0.02 0
0.24 0.02 0
0.32 0.02 0
0.4 0.02 0
0.48 0.02 0
0.56 0.02 0
0.64 0.02 0
0.72 0.02 0
0.8 0.02 0
0.88 0.02 0
0.96 0.02 0
1.04 0.02 0
1.12 0.02 0
1.2 0.02 0
1.28 0.02 0
1.36 0.02 0
1.44 0.02 0
1.52 0.02 0
1.6 0.02 0
1.68 0.02 0
1.76 0.02 0
1.84 0.02 0
1.92 0.02 0
2 0.02 0
2.08 0.02 0
2.16 0.02 0
2.24 0.02 0
2.32 0.02 0
2.4 0.02 0
2.48 0.02 0
2.56 0.02 0
2.64 0.02 0
2.72 0.02 0
2.8 0.02 0
2.88 0.02 0
2.96 0.02 0
3.04 0.02 0
3.12 0.02 0
3.2 0.02 0
3.28 0.02 0
3.36 0.02 0
3.44 0.02 0
3.52 0.02 0
3.6 0.02 0
3.68 0.02 0
3.76 0.02 0
3.84 0.02 0
3.92 0.02 0
4 0.02 0
4.08 0.02 0
4.16 0.02 0
4.24 0.02 0
4.32 0.02 0
4.4 0.02 0
4.48 0.02 0
4.56 0.02 0
4.64 0.02 0
4.72 0.02 0
4.8 0.02 0
4.88 0.02 0
4.96 0.02 0
5.04 0.02 0
5.12 0.02 0
5.2 0.02 0
5.28 0.02 0
5.36 0.02 0
5.44 0.02 0
5.52 0.02 0
5.6 0.02 0
5.68 0.02 0
5.76 0.02 0
5.84 0.02 0
5.92 0.02 0
6 0.02 0
6.08 0.02 0
6.16 0.02 0
6.24 0.02 0
6.32 0.02 0
6.4 0.02 0
6.48 0.02 0
6.56 0.02 0
6.64 0.02 0
6.72 0.02 0
6.8 0.02 0
6.88 0.02 0
6.96 0.02 0
7.04 0.02 0
7.12 0.02 0
7.2 0.02 0
7.28 0.02 0
7.36 0.02 0
7.44 0.02 0
7.52 0.02 0
7.6 0.02 0
7.68 0.02 0
7.76 0.02 0
7.84 0.02 0
7.92 0.02 0
8 0.02 0
8.08 0.02 0
8.16 0.02 0
8.24 0.02 0
8.32 0.02 0
8.4 0.02 0
8.48 0.02 0
8.56 0.02 0
8.64 0.02 0
8.72 0.02 0
8.8 0.02 0
8.88 0.02 0
8.96 0.02 0
9.04 0.02 0
9.12 0.02 0
9.2 0.02 0
9.28 0.02 0
9.36 0.02 0
9.44 0.02 0
9.52 0.02 0
9.6 0.02 0
9.68 0.02 0
9.76 0.02 0
9.84 0.02 0
9.92 0.02 0
10 0.02 0
10.08 0.02 0
10.16 0.02 0
10.24 0.02 0
10.32 0.02 0
10.4 0.02 0
10.48 0.02 0
10.56 0.02 0
10.64 0.02 0
10.72 0.02 0
10.8 0.02 0
10.88 0.02 0
10.96 0.02 0
11.04 0.02 0
11.12 0.02 0
11.2 0.02 0
11.28 0.02 0
11.36 0.02 0
11.44 0.02 0
11.52 0.02 0
11.6 0.02 0
11.68 0.02 0
11.76 0.02 0
11.84 0.02 0
11.92 0.02 0
12 0.02 0
12.08 0.02 0
12.16 0.02 0
12.24 0.02 0
12.32 0.02 0
12.4 0.02 0
12.48 0.02 0
12.56 0.02 0
12.64 0.02 0
12.72 0.02 0
12.8 0.02 0
12.88 0.02 0
12.96 0.02 0
13.04 0.02 0
13.12 0.02 0
13.2 0.02 0
13.28 0.02 0
13.36 0.02 0
13.44 0.02 0
13.52 0.02 0
13.6 0.02 0
13.68 0.02 0
13.76 0.02 0
13.84 0.02 0
13.92 0.02 0
14 0.02 0
14.08 0.02 0
14.16 0.02 0
14.24 0.02 0
14.32 0.02 0
14.4 0.02 0
14.48 0.02 0
14.56 0.02 0
14.64 0.02 0
14.72 0.02 0
14.8 0.02 0
14.88 0.02 0
14.96 0.02 0
15.04 0.02 0
15.12 0.02 0
15.2 0.02 0
15.28 0.02 0
15.36 0.02 0
15.44 0.02 0
15.52 0.02 0
15.6 0.02 0
15.68 0.02 0
15.76 0.02 0
15.84 0.02 0
15.92 0.02 0
16 0.02 0
16.08 0.02 0
16.16 0.02 0
16.24 0.02 0
16.32 0.02 0
16.4 0.02 0
16.48 0.02 0
16.56 0.02 0
16.64 0.02 0
16.72 0.02 0
16.8 0.02 0
16.88 0.02 0
16.96 0.02 0
17.04 0.02 0
17.12 0.02 0
17.2 0.02 0
17.28 0.02 0
17.36 0.02 0
17.44 0.02 0
17.52 0.02 0
17.6 0.02 0
17.68 0.02 0
17.76 0.02 0
17.84 0.02 0
17.92 0.02 0
18 0.02 0
18.08 0.02 0
18.16 0.02 0
18.24 0.02 0
18.32 0.02 0
18.4 0.02 0
18.48 0.02 0
18.56 0.02 0
18.64 0.02 0
18.72 0.02 0
18.8 0.02 0
18.88 0.02 0
18.96 0.02 0
19.04 0.02 0
19.12 0.02 0
19.2 0.02 0
19.28 0.02 0
19.36 0.02 0
19.44 0.02 0
19.52 0.02 0
19.6 0.02 0
19.68 0.02 0
19.76 0.02 0
19.84 0.02 0
19.92 0.02 0
20 0.02 0
20.08 0.02 0
20.16 0.02 0
20.24 0.02 0
20.32 0.02 0
20.4 0.02 0
20.48 0.02 0
20.56 0.02 0
20.64 0.02 0
20.72 0.02 0
20.8 0.02 0
20.88 0.02 0
20.96 0.02 0
21.04 0.02 0
21.12 0.02 0
21.2 0.02 0
21.28 0.02 0
21.36 0.02 0
21.44 0.02 0
21.52 0.02 0
21.6 0.02 0
21.68 0.02 0
21.76 0.02 0
21.84 0.02 0
21.92 0.02 0
22 0.02 0
22.08 0.02 0
22.16 0.02 0
22.24 0.02 0
22.32 0.02 0
22.4 0.02 0
22.48 0.02 0
22.56 0.02 0
22.64 0.02 0
22.72 0.02 0
22.8 0.02 0
22.88 0.02 0
22.96 0.02 0
23.04 0.02 0
23.12 0.02 0
23.2 0.02 0
23.28 0.02 0
23.36 0.02 0
23.44 0.02 0
23.52 0.02 0
23.6 0.02 0
23.68 0.02 0
23.76 0.02 0
23.84 0.02 0
23.92 0.02 0
24 0.02 0
24.08 0.02 0
24.16 0.02 0
24.24 0.02 0
24.32 0.02 0
24.4 0.02 0
24.48 0.02 0
24.56 0.02 0
24.64 0.02 0
24.72 0.02 0
24.8 0.02 0
24.88 0.02 0
24.96 0.02 0
25.04 0.02 0
25.12 0.02 0
25.2 0.02 0
25.28 0.02 0
25.36 0.02 0
25.44 0.02 0
25.52 0.02 0
25.6 0.02 0
25.68 0.02 0
25.76 0.02 0
25.84 0.02 0
25.92 0.02 0
26 0.02 0
26.08 0.02 0
26.16 0.02 0
26.24 0.02 0
26.32 0.02 0
26.4 0.02 0
26.48 0.02 0
26.56 0.02 0
26.64 0.02 0
26.72 0.02 0
26.8 0.02 0
26.88 0.02 0
26.96 0.02 0
27.04 0.02 0
27.12 0.02 0
27.2 0.02 0
27.28 0.02 0
27.36 0.02 0
27.44 0.02 0
27.52 0.02 0
27.6 0.02 0
27.68 0.02 0
27.76 0.02 0
27.84 0.02 0
27.92 0.02 0
28 0.02 0
28.08 0.02 0
28.16 0.02 0
28.24 0.02 0
28.32 0.02 0
28.4 0.02 0
28.48 0.02 0
28.56 0.02 0
28.64 0.02 0
28.72 0.02 0
28.8 0.02 0
28.88 0.02 0
28.96 0.02 0
29.04 0.02 0
29.12 0.02 0
29.2 0.02 0
29.28 0.02 0
29.36 0.02 0
29.44 0.02 0
29.52 0.02 0
29.6 0.02 0
29.68 0.02 0
29.76 0.02 0
29.84 0.02 0
29.92 0.02 0
30 0.02 0
30.08 0.02 0
30.16 0.02 0
30.24 0.02 0
30.32 0.02 0
30.4 0.02 0
30.48 0.02 0
30.56 0.02 0
30.64 0.02 0
30.72 0.02 0
30.8 0.02 0
30.88 0.02 0
30.96 0.02 0
31.04 0.02 0
31.12 0.02 0
31.2 0.02 0
31.28 0.02 0
31.36 0.02 0
31.44 0.02 0
31.52 0.02 0
31.6 0.02 0
31.68 0.02 0
31.76 0.02 0
31.84 0.02 0
31.92 0.02 0
0 0.04 0
0.08 0.04 0
0.16 0.04 0
0.24 0.04 0
0.32 0.04 0
0.4 0.04 0
0.48 0.04 0
0.56 0.04 0
0.64 0.04 0
0.72 0.04 0
0.8 0.04 0
0.88 0.04 0
0.96 0.04 0
1.04 0.04 0
1.12 0.04 0
1.2 0.04 0
1.28 0.04 0
1.36 0.04 0
1.44 0.04 0
1.52 0.04 0
1.6 0.04 0
1.68 0.04 0
1.76 0.04 0
1.84 0.04 0
1.92 0.04 0
2 0.04 0
2.08 0.04 0
2.16 0.04 0
2.24 0.04 0
2.32 0.04 0
2.4 0.04 0
2.48 0.04 0
2.56 0.04 0
2.64 0.04 0
2.72 0.04 0
2.8 0.04 0
2.88 0.04 0
2.96 0.04 0
3.04 0.04 0
3.12 0.04 0
3.2 0.04 0
3.28 0.04 0
3.36 0.04 0
3.44 0.04 0
3.52 0.04 0
3.6 0.04 0
3.68 0.04 0
3.76 0.04 0
3.84 0.04 0
3.92 0.04 0
4 0.04 0
4.08 0.04 0
4.16 0.04 0
4.24 0.04 0
4.32 0.04 0
4.4 0.04 0
4.48 0.04 0
4.56 0.04 0
4.64 0.04 0
4.72 0.04 0
4.8 0.04 0
4.88 0.04 0
4.96 0.04 0
5.04 0.04 0
5.12 0.04 0
5.2 0.04 0
5.28 0.04 0
5.36 0.04 0
5.44 0.04 0
5.52 0.04 0
5.6 0.04 0
5.68 0.04 0
5.76 0.04 0
5.84 0.04 0
5.92 0.04 0
6 0.04 0
6.08 0.04 0
6.16 0.04 0
6.24 0.04 0
6.32 0.04 0
6.4 0.04 0
6.48 0.04 0
6.56 0.04 0
6.64 0.04 0
6.72 0.04 0
6.8 0.04 0
6.88 0.04 0
6.96 0.04 0
7.04 0.04 0
7.12 0.04 0
7.2 0.04 0
7.28 0.04 0
7.36 0.04 0
7.44 0.04 0
7.52 0.04 0
7.6 0.04 0
7.68 0.04 0
7.76 0.04 0
7.84 0.04 0
[...]
POINT_DATA 20000

SCALARS u float 1
LOOKUP_TABLE default
0
-0.507089
-0.291918
-0.214159
-0.179024
-0.158663
-0.145109
-0.135358
-0.127965
-0.122138
-0.117399
-0.113448
-0.110085
-0.107172
-0.104613
-0.10234
-0.1003
-0.0984553
-0.0967754
-0.0952369
-0.0938208
-0.0925118
-0.0912972
-0.0901665
-0.0891106
-0.0881219
-0.0871938
-0.0863206
-0.0854973
-0.0847196
-0.0839835
-0.0832858
-0.0826232
-0.0819932
-0.0813933
-0.0808212
-0.0802751
-0.079753
-0.0792535
-0.078775
-0.0783163
-0.0778759
-0.077453
-0.0770463
-0.076655
-0.0762782
-0.0759151
-0.0755649
-0.075227
-0.0749007
-0.0745854
-0.0742806
-0.0739858
-0.0737005
-0.0734242
-0.0731565
-0.0728971
-0.0726455
-0.0724015
-0.0721647
-0.0719348
-0.0717115
-0.0714946
-0.0712838
-0.0710788
-0.0708795
-0.0706856
-0.070497
-0.0703133
-0.0701346
-0.0699605
-0.0697909
-0.0696257
-0.0694647
-0.0693078
-0.0691549
-0.0690058
-0.0688603
-0.0687185
-0.0685801
-0.0684452
-0.0683134
-0.0681849
-0.0680594
-0.0679369
-0.0678174
-0.0677006
-0.0675866
-0.0674752
-0.0673665
-0.0672603
-0.0671565
-0.0670552
-0.0669561
-0.0668593
-0.0667648
-0.0666724
-0.0665821
-0.0664938
-0.0664076
-0.0663233
-0.0662409
-0.0661603
-0.0660816
-0.0660046
-0.0659293
-0.0658557
-0.0657838
-0.0657134
-0.0656447
-0.0655774
-0.0655116
-0.0654473
-0.0653844
-0.0653229
-0.0652628
-0.0652039
-0.0651464
-0.0650901
-0.0650351
-0.0649813
-0.0649286
-0.0648771
-0.0648267
-0.0647775
-0.0647293
-0.0646821
-0.064636
-0.0645908
-0.0645467
-0.0645035
-0.0644612
-0.0644199
-0.0643794
-0.0643398
-0.0643011
-0.0642632
-0.0642261
-0.0641898
-0.0641543
-0.0641196
-0.0640856
-0.0640523
-0.0640198
-0.0639879
-0.0639567
-0.0639262
-0.0638964
-0.0638672
-0.0638386
-0.0638106
-0.0637832
-0.0637564
-0.0637302
-0.0637045
-0.0636794
-0.0636549
-0.0636308
-0.0636073
-0.0635843
-0.0635618
-0.0635397
-0.0635182
-0.063497
-0.0634764
-0.0634562
-0.0634364
-0.063417
-0.0633981
-0.0633796
-0.0633614
-0.0633437
-0.0633263
-0.0633093
-0.0632926
-0.0632764
-0.0632604
-0.0632448
-0.0632296
-0.0632146
-0.0632
-0.0631857
-0.0631717
-0.063158
-0.0631446
-0.0631315
-0.0631186
-0.0631061
-0.0630938
-0.0630818
-0.0630701
-0.0630586
-0.0630474
-0.0630365
-0.0630258
-0.0630154
-0.0630053
-0.0629954
-0.0629857
-0.0629764
-0.0629672
-0.0629584
-0.0629497
-0.0629413
-0.0629332
-0.0629253
-0.0629177
-0.0629104
-0.0629033
-0.0628964
-0.0628898
-0.0628834
-0.0628772
-0.0628713
-0.0628656
-0.0628603
-0.0628551
-0.0628502
-0.0628455
-0.062841
-0.0628367
-0.0628326
-0.0628288
-0.0628252
-0.0628219
-0.0628188
-0.0628158
-0.0628131
-0.0628105
-0.0628081
-0.0628059
-0.0628039
-0.0628021
-0.0628005
-0.0627991
-0.0627978
-0.0627967
-0.0627956
-0.0627948
-0.062794
-0.0627934
-0.062793
-0.0627926
-0.0627924
-0.0627923
-0.0627923
-0.0627924
-0.0627925
-0.0627927
-0.0627931
-0.0627935
-0.062794
-0.0627945
-0.0627951
-0.0627958
-0.0627965
-0.0627973
-0.0627981
-0.0627989
-0.0627998
-0.0628007
-0.0628017
-0.0628027
-0.0628037
-0.0628047
-0.0628057
-0.0628068
-0.0628078
-0.0628089
-0.06281
-0.0628111
-0.0628122
-0.0628133
-0.0628145
-0.0628156
-0.0628167
-0.0628179
-0.062819
-0.0628202
-0.0628213
-0.0628225
-0.0628236
-0.0628248
-0.0628259
-0.0628271
-0.0628282
-0.0628294
-0.0628305
-0.0628317
-0.0628328
-0.062834
-0.0628351
-0.0628363
-0.0628375
-0.0628386
-0.0628398
-0.0628409
-0.0628421
-0.0628432
-0.0628444
-0.0628455
-0.0628467
-0.0628478
-0.062849
-0.0628501
-0.0628513
-0.0628524
-0.0628536
-0.0628547
-0.0628559
-0.0628571
-0.0628582
-0.0628594
-0.0628605
-0.0628617
-0.0628628
-0.062864
-0.0628651
-0.0628663
-0.0628674
-0.0628686
-0.0628697
-0.0628709
-0.062872
-0.0628732
-0.0628743
-0.0628755
-0.0628766
-0.0628778
-0.0628789
-0.0628801
-0.0628813
-0.0628824
-0.0628836
-0.0628847
-0.0628859
-0.062887
-0.0628882
-0.0628893
-0.0628905
-0.0628916
-0.0628928
-0.0628939
-0.0628951
-0.0628962
-0.0628974
-0.0628985
-0.0628997
-0.0629008
-0.062902
-0.0629031
-0.0629043
-0.0629054
-0.0629066
-0.0629077
-0.0629089
-0.06291
-0.0629112
-0.0629123
-0.0629135
-0.0629147
-0.0629158
-0.062917
-0.0629181
-0.0629193
-0.0629204
-0.0629216
-0.0629227
-0.0629239
-0.062925
-0.0629262
-0.0629274
-0.0629285
-0.0629297
-0.0629308
-0.062932
-0.0629331
-0.0629343
-0.0629355
-0.0629367
-0.0629378
-0.062939
-0.0629402
-0.0629414
-0.0629425
-0.0629437
-0.0629449
-0.0629461
-0.0629473
-0.0629486
-0.0629497
-0.062951
-0.0629522
-0.0629534
-0.0629546
-0.0629556
-0.0629569
-0.0629562
-0.0629562
-0.0629562
1
0.507089
0.291918
0.214159
0.179024
0.158663
0.145109
0.135358
0.127965
0.122138
0.117399
0.113448
0.110085
0.107172
0.104613
0.10234
0.1003
0.0984553
0.0967754
0.0952369
0.0938208
0.0925118
0.0912972
0.0901665
0.0891106
0.0881219
0.0871938
0.0863206
0.0854973
0.0847196
0.0839835
0.0832858
0.0826232
0.0819932
0.0813933
0.0808212
0.0802751
0.079753
0.0792535
0.078775
0.0783163
0.0778759
0.077453
0.0770463
0.076655
0.0762782
0.0759151
0.0755649
0.075227
0.0749007
0.0745854
0.0742806
0.0739858
0.0737005
0.0734242
0.0731565
0.0728971
0.0726455
0.0724015
0.0721647
0.0719348
0.0717115
0.0714946
0.0712838
0.0710788
0.0708795
0.0706856
0.070497
0.0703133
0.0701346
0.0699605
0.0697909
0.0696257
0.0694647
0.0693078
0.0691549
0.0690058
0.0688603
0.0687185
0.0685801
0.0684452
0.0683134
0.0681849
0.0680594
0.0679369
0.0678174
0.0677006
0.0675866
0.0674752
0.0673665
0.0672603
0.0671565
0.0670552
0.0669561
0.0668593
0.0667648
0.0666724
0.0665821
0.0664938
0.0664076
0.0663233
0.0662409
0.0661603
0.0660816
0.0660046
0.0659293
0.0658557
0.0657838
0.0657134
0.0656447
0.0655774
0.0655116
0.0654473
0.0653844
0.0653229
0.0652628
0.0652039
0.0651464
0.0650901
0.0650351
0.0649813
0.0649286
0.0648771
0.0648267
0.0647775
0.0647293
0.0646821
0.064636
0.0645908
0.0645467
0.0645035
0.0644612
0.0644199
0.0643794
0.0643398
0.0643011
0.0642632
0.0642261
0.0641898
0.0641543
0.0641196
0.0640856
0.0640523
0.0640198
0.0639879
0.0639567
0.0639262
0.0638964
0.0638672
0.0638386
0.0638106
0.0637832
0.0637564
0.0637302
0.0637045
0.0636794
0.0636549
0.0636308
0.0636073
0.0635843
0.0635618
0.0635397
0.0635182
0.063497
0.0634764
0.0634562
0.0634364
0.063417
0.0633981
0.0633796
0.0633614
0.0633437
0.0633263
0.0633093
0.0632926
0.0632764
0.0632604
0.0632448
0.0632296
0.0632146
0.0632
0.0631857
0.0631717
0.063158
0.0631446
0.0631315
0.0631186
0.0631061
0.0630938
0.0630818
0.0630701
0.0630586
0.0630474
0.0630365
0.0630258
0.0630154
0.0630053
0.0629954
0.0629857
0.0629764
0.0629672
0.0629584
0.0629497
0.0629413
0.0629332
0.0629253
0.0629177
0.0629104
0.0629033
0.0628964
0.0628898
0.0628834
0.0628772
0.0628713
0.0628656
0.0628603
0.0628551
0.0628502
0.0628455
0.062841
0.0628367
0.0628326
0.0628288
0.0628252
0.0628219
0.0628188
0.0628158
0.0628131
0.0628105
0.0628081
0.0628059
0.0628039
0.0628021
0.0628005
0.0627991
0.0627978
0.0627967
0.0627956
0.0627948
0.062794
0.0627934
0.062793
0.0627926
0.0627924
0.0627923
0.0627923
0.0627924
0.0627925
0.0627927
0.0627931
0.0627935
0.062794
0.0627945
0.0627951
0.0627958
0.0627965
0.0627973
0.0627981
0.0627989
0.0627998
0.0628007
0.0628017
0.0628027
0.0628037
0.0628047
0.0628057
0.0628068
0.0628078
0.0628089
0.06281
0.0628111
0.0628122
0.0628133
0.0628145
0.0628156
0.0628167
0.0628179
0.062819
0.0628202
0.0628213
0.0628225
0.0628236
0.0628248
0.0628259
0.0628271
0.0628282
0.0628294
0.0628305
0.0628317
0.0628328
0.062834
0.0628351
0.0628363
0.0628375
0.0628386
0.0628398
0.0628409
0.0628421
0.0628432
0.0628444
0.0628455
0.0628467
0.0628478
0.062849
0.0628501
0.0628513
0.0628524
0.0628536
0.0628547
0.0628559
0.0628571
0.0628582
0.0628594
0.0628605
0.0628617
0.0628628
0.062864
0.0628651
0.0628663
0.0628674
0.0628686
0.0628697
0.0628709
0.062872
0.0628732
0.0628743
0.0628755
0.0628766
0.0628778
0.0628789
0.0628801
0.0628813
0.0628824
0.0628836
0.0628847
0.0628859
0.062887
0.0628882
0.0628893
0.0628905
0.0628916
0.0628928
0.0628939
0.0628951
0.0628962
0.0628974
0.0628985
0.0628997
0.0629008
0.062902
0.0629031
0.0629043
0.0629054
0.0629066
0.0629077
0.0629089
0.06291
0.0629112
0.0629123
0.0629135
0.0629147
0.0629158
0.062917
0.0629181
0.0629193
0.0629204
0.0629216
0.0629227
0.0629239
0.062925
0.0629262
0.0629274
0.0629285
0.0629297
0.0629308
0.062932
0.0629331
0.0629343
0.0629355
0.0629367
0.0629378
0.062939
0.0629402
0.0629414
0.0629425
0.0629437
0.0629449
0.0629461
0.0629473
0.0629486
0.0629497
0.062951
0.0629522
0.0629534
0.0629546
0.0629556
0.0629569
0.0629562
0.0629562
0.0629562
1
0.924295
0.735444
0.597547
0.511653
0.456338
0.418177
0.390274
0.368942
0.352057
0.33831
0.326851
0.317111
0.308694
0.301319
0.294781
0.28893
0.283648
0.278848
0.27446
0.270426
0.266702
0.263251
0.260041
0.257046
0.254244
0.251615
0.249143
0.246814
0.244615
0.242534
0.240563
0.238692
0.236913
0.23522
0.233606
0.232065
0.230593
0.229185
0.227837
0.226544
0.225304
0.224113
0.222968
0.221867
0.220806
0.219785
0.2188
0.217849
0.216932
0.216046
0.215189
0.214361
0.213559
0.212783
0.212032
0.211304
0.210597
0.209913
0.209248
0.208603
0.207977
0.207369
0.206778
0.206203
0.205644
0.205101
0.204573
0.204058
0.203558
0.20307
0.202595
0.202133
0.201682
0.201243
0.200815
0.200398
0.199992
0.199595
0.199208
0.198831
0.198462
0.198103
0.197753
0.19741
0.197076
0.19675
0.196432
0.196121
0.195817
0.195521
0.195231
0.194948
0.194672
0.194402
0.194138
0.193881
0.193629
0.193383
0.193142
0.192907
0.192678
0.192453
0.192234
0.192019
0.19181
0.191605
0.191404
0.191208
0.191017
0.19083
0.190647
0.190468
0.190293
0.190121
0.189954
0.18979
0.18963
0.189474
0.189321
0.189171
0.189025
0.188882
0.188742
0.188605
0.188471
0.188339
0.188211
0.188086
0.187963
0.187843
0.187726
0.187611
0.187498
0.187388
0.187281
0.187176
0.187073
0.186972
0.186873
0.186777
0.186683
0.18659
0.1865
0.186411
0.186325
0.18624
0.186157
0.186076
0.185997
0.185919
0.185843
0.185769
0.185696
0.185625
0.185555
0.185487
0.18542
0.185355
0.185291
0.185229
0.185168
0.185108
0.185049
0.184992
0.184936
0.184881
0.184827
0.184775
0.184723
0.184673
0.184624
0.184576
0.184528
0.184482
0.184437
0.184393
0.18435
0.184307
0.184266
0.184225
0.184186
0.184147
0.184109
0.184072
0.184036
0.184
0.183965
0.183931
0.183898
0.183866
0.183834
0.183803
0.183773
0.183744
0.183715
0.183687
0.18366
0.183634
0.183608
0.183583
0.183559
0.183535
0.183512
0.18349
0.183469
0.183448
0.183428
0.183409
0.183391
0.183373
0.183356
0.183339
0.183323
0.183308
0.183294
0.18328
0.183267
0.183255
0.183243
0.183232
0.183221
0.183211
0.183202
0.183193
0.183185
0.183178
0.183171
0.183164
0.183158
0.183153
0.183148
0.183143
0.18314
0.183136
0.183133
0.18313
0.183128
0.183126
0.183125
0.183123
0.183123
0.183122
0.183122
0.183122
0.183122
0.183123
0.183124
0.183125
0.183126
0.183127
0.183129
0.183131
0.183133
0.183135
0.183137
0.183139
0.183142
0.183144
0.183147
0.18315
0.183152
0.183155
0.183158
0.183161
0.183164
0.183167
0.18317
0.183173
0.183177
0.18318
0.183183
0.183186
0.183189
0.183193
0.183196
0.183199
0.183202
0.183206
0.183209
0.183212
0.183215
0.183219
0.183222
0.183225
0.183229
0.183232
0.183235
0.183238
0.183242
0.183245
0.183248
0.183252
0.183255
0.183258
0.183261
0.183265
0.183268
0.183271
0.183275
0.183278
0.183281
0.183284
0.183288
0.183291
0.183294
0.183298
0.183301
0.183304
0.183307
0.183311
0.183314
0.183317
0.183321
0.183324
0.183327
0.18333
0.183334
0.183337
0.18334
0.183344
0.183347
0.18335
0.183353
0.183357
0.18336
0.183363
0.183367
0.18337
0.183373
0.183376
0.18338
0.183383
0.183386
0.18339
0.183393
0.183396
0.183399
0.183403
0.183406
0.183409
0.183413
0.183416
0.183419
0.183423
0.183426
0.183429
0.183432
0.183436
0.183439
0.183442
0.183446
0.183449
0.183452
0.183455
0.183459
0.183462
0.183465
0.183469
0.183472
0.183475
0.183479
0.183482
0.183485
0.183488
0.183492
0.183495
0.183498
0.183502
0.183505
0.183508
0.183512
0.183515
0.183518
0.183521
0.183525
0.183528
0.183531
0.183535
0.183538
0.183541
0.183545
0.183548
0.183552
0.183555
0.183558
0.183562
0.183565
0.183568
0.183572
0.183575
0.183579
0.183582
0.183586
0.183589
0.183592
0.183596
0.183596
0.183596
0.183596
1
1.0797
0.997067
0.883646
0.788691
0.716907
0.663043
0.621829
0.589485
0.563472
0.54208
0.524139
0.508832
0.495576
0.483949
0.473638
0.464408
0.456078
0.44851
0.441592
0.435236
0.429369
0.423933
0.418878
0.414162
0.40975
0.405612
0.401721
0.398055
0.394594
0.39132
0.388218
0.385274
0.382475
0.379812
0.377273
0.37485
0.372534
0.37032
0.368199
0.366167
0.364217
0.362344
0.360544
0.358813
0.357146
0.355541
0.353993
0.3525
0.351058
0.349666
0.348321
0.34702
0.345761
0.344542
0.343362
0.342219
0.34111
0.340035
0.338993
0.337981
0.336998
0.336044
0.335116
0.334215
0.333339
0.332487
0.331658
0.330852
0.330067
0.329303
0.328559
0.327834
0.327129
0.326441
0.32577
0.325117
0.32448
0.323859
0.323253
0.322663
0.322086
0.321524
0.320975
0.32044
0.319917
0.319407
0.318909
0.318423
0.317948
0.317485
0.317032
0.31659
0.316158
0.315736
0.315324
0.314921
0.314528
0.314143
0.313768
0.313401
0.313042
0.312691
0.312349
0.312014
0.311687
0.311367
0.311054
0.310748
0.31045
0.310158
0.309872
0.309593
0.30932
0.309053
0.308792
0.308537
0.308287
0.308043
0.307805
0.307571
0.307343
0.30712
0.306902
0.306688
0.30648
0.306275
0.306076
0.30588
0.305689
0.305502
0.305319
0.305141
0.304966
0.304794
0.304627
0.304463
0.304303
0.304146
0.303993
0.303842
0.303696
0.303552
0.303411
0.303274
0.303139
0.303007
0.302878
0.302752
0.302629
0.302508
0.30239
0.302274
0.302161
0.30205
0.301942
0.301836
0.301732
0.301631
0.301531
0.301434
0.301339
0.301246
0.301155
0.301066
0.300978
0.300893
0.30081
0.300728
0.300648
0.30057
0.300493
0.300418
0.300345
0.300273
0.300203
0.300134
0.300067
0.300001
0.299937
0.299874
0.299812
0.299752
0.299693
0.299635
0.299579
0.299524
0.29947
0.299417
0.299366
0.299316
0.299267
0.299219
0.299172
0.299127
0.299082
0.299039
0.298997
0.298956
0.298917
0.298878
0.298841
0.298804
0.298769
0.298735
0.298703
0.298671
0.29864
0.298611
0.298583
0.298555
0.298529
0.298504
0.29848
0.298457
0.298435
0.298414
0.298395
0.298376
0.298358
0.298341
0.298325
0.29831
0.298297
0.298284
0.298272
0.298261
0.29825
0.298241
0.298232
0.298224
0.298217
0.298211
0.298205
0.2982
0.298196
0.298192
0.298189
0.298186
0.298184
0.298183
0.298182
0.298182
0.298182
0.298182
0.298183
0.298184
0.298185
0.298187
0.29819
0.298192
0.298195
0.298198
0.298201
0.298204
0.298208
0.298212
0.298216
0.29822
0.298224
0.298228
0.298233
0.298237
0.298242
0.298247
0.298251
0.298256
0.298261
0.298266
0.298271
0.298276
0.298281
0.298286
0.298291
0.298296
0.298301
0.298306
0.298311
0.298316
0.298321
0.298327
0.298332
0.298337
0.298342
0.298347
0.298352
0.298357
0.298363
0.298368
0.298373
0.298378
0.298383
0.298388
0.298393
0.298399
0.298404
0.298409
0.298414
0.298419
0.298424
0.298429
0.298435
0.29844
0.298445
0.29845
0.298455
0.29846
0.298465
0.298471
0.298476
0.298481
0.298486
0.298491
0.298496
0.298501
0.298507
0.298512
0.298517
0.298522
0.298527
0.298532
0.298537
0.298543
0.298548
0.298553
0.298558
0.298563
0.298568
0.298574
0.298579
0.298584
0.298589
0.298594
0.298599
0.298604
0.29861
0.298615
0.29862
0.298625
0.29863
0.298635
0.298641
0.298646
0.298651
0.298656
0.298661
0.298666
0.298671
0.298677
0.298682
0.298687
0.298692
0.298697
0.298702
0.298708
0.298713
0.298718
0.298723
0.298728
0.298733
0.298739
0.298744
0.298749
0.298754
0.298759
0.298764
0.29877
0.298775
0.29878
0.298785
0.29879
0.298795
0.298801
0.298806
0.298811
0.298816
0.298821
0.298827
0.298832
0.298837
0.298842
0.298848
0.298853
0.298858
0.298863
0.298869
0.298874
0.298879
0.298885
0.29889
0.298895
0.298901
0.298906
0.298912
0.298917
0.298922
0.298927
0.29893
0.29893
0.29893
1
1.11179
1.11438
1.05557
0.98437
0.919031
0.863797
0.818212
0.78064
0.749416
0.723157
0.700788
0.68149
0.664645
0.649784
0.63655
0.624664
0.613912
0.604124
0.595163
0.586918
0.579301
0.572236
0.56566
0.559521
0.553774
0.54838
0.543306
0.538523
0.534005
0.52973
0.525677
0.521829
0.518171
0.514687
0.511366
0.508196
0.505166
0.502268
0.499492
0.496831
0.494277
0.491825
0.489468
0.4872
0.485017
0.482913
0.480886
0.478929
0.477041
0.475217
0.473454
0.471749
0.4701
0.468503
0.466957
0.465459
0.464007
0.462598
0.461232
0.459906
0.458619
0.457369
0.456155
0.454974
0.453827
0.452711
0.451626
0.45057
0.449543
0.448542
0.447568
0.44662
0.445696
0.444796
0.443919
0.443064
0.44223
0.441418
0.440625
0.439853
0.439099
0.438364
0.437646
0.436946
0.436263
0.435596
0.434945
0.43431
0.433689
0.433083
0.432492
0.431914
0.43135
0.430799
0.430261
0.429735
0.429221
0.428719
0.428229
0.42775
0.427282
0.426824
0.426377
0.42594
0.425513
0.425096
0.424688
0.42429
0.4239
0.423519
0.423147
0.422783
0.422427
0.422079
0.421739
0.421406
0.421081
0.420763
0.420452
0.420149
0.419851
0.419561
0.419277
0.418999
0.418727
0.418461
0.418201
0.417947
0.417698
0.417455
0.417217
0.416984
0.416756
0.416533
0.416316
0.416102
0.415894
0.41569
0.41549
0.415295
0.415104
0.414917
0.414734
0.414555
0.41438
0.414209
0.414041
0.413877
0.413717
0.41356
0.413406
0.413256
0.413109
0.412965
0.412824
0.412686
0.412551
0.41242
0.41229
0.412164
0.412041
0.41192
0.411801
0.411685
0.411572
0.411461
0.411353
0.411247
0.411143
0.411041
0.410942
0.410844
0.410749
0.410656
0.410565
0.410475
0.410388
0.410303
0.410219
0.410137
0.410057
0.409979
0.409902
0.409827
0.409754
0.409683
0.409613
0.409544
0.409478
0.409412
0.409349
0.409287
0.409226
0.409167
0.40911
0.409054
0.409
0.408947
0.408896
0.408846
0.408797
0.408751
0.408705
0.408661
0.408619
0.408578
0.408539
0.408501
0.408465
0.40843
0.408396
0.408364
0.408333
0.408304
0.408276
0.408249
0.408224
0.4082
0.408177
0.408156
0.408136
0.408117
0.408099
0.408083
0.408068
0.408054
0.408041
0.408029
0.408018
0.408008
0.407999
0.407991
0.407984
0.407978
0.407973
0.407968
0.407964
0.407961
0.407959
0.407958
0.407957
0.407956
0.407957
0.407957
0.407958
0.40796
0.407962
0.407965
0.407968
0.407971
0.407975
0.407979
0.407983
0.407988
0.407992
0.407997
0.408002
0.408008
0.408013
0.408019
0.408025
0.408031
0.408037
0.408043
0.408049
0.408055
0.408062
0.408068
0.408074
0.408081
0.408087
0.408094
0.4081
0.408107
0.408113
0.40812
0.408127
0.408133
0.40814
0.408146
0.408153
0.40816
0.408166
0.408173
0.40818
0.408186
0.408193
0.4082
0.408206
0.408213
0.408219
0.408226
0.408233
0.408239
0.408246
0.408253
0.408259
0.408266
0.408273
0.408279
0.408286
0.408293
0.408299
0.408306
0.408313
0.408319
0.408326
0.408333
0.408339
0.408346
0.408352
0.408359
0.408366
0.408372
0.408379
0.408386
0.408392
0.408399
0.408406
0.408412
0.408419
0.408426
0.408432
0.408439
0.408446
0.408452
0.408459
0.408466
0.408472
0.408479
0.408486
0.408492
0.408499
0.408506
0.408512
0.408519
0.408526
0.408532
0.408539
0.408546
0.408552
0.408559
0.408566
0.408572
0.408579
0.408586
0.408592
0.408599
0.408606
0.408612
0.408619
0.408626
0.408632
0.408639
0.408646
0.408652
0.408659
0.408666
0.408672
0.408679
0.408686
0.408692
0.408699
0.408706
0.408712
0.408719
0.408726
0.408733
0.408739
0.408746
0.408753
0.408759
0.408766
0.408773
0.408779
0.408786
0.408793
0.4088
0.408806
0.408813
0.40882
0.408827
0.408834
0.40884
0.408847
0.408854
0.408861
0.408868
0.408875
0.408882
0.408889
0.408896
0.408903
0.40891
0.408917
0.408923
0.408928
0.408928
0.408928
1
1.09593
1.14367
1.13403
1.0977
1.05334
1.00942
0.96922
0.933626
0.902501
0.875341
0.851564
0.83063
0.812071
0.7955
0.780603
0.767124
0.754857
0.743634
0.733316
0.72379
0.714961
0.706751
0.699092
0.691928
0.685208
0.678891
0.672939
0.667321
0.662008
0.656974
0.652198
0.647659
0.643339
0.639223
0.635296
0.631545
0.627958
0.624524
0.621234
0.618078
0.615048
0.612138
0.609339
0.606645
0.604051
0.601551
0.599141
0.596815
0.594569
0.592399
0.590301
0.588272
0.586309
0.584409
0.582568
0.580784
0.579055
0.577378
0.575751
0.574172
0.572639
0.57115
0.569703
0.568297
0.56693
0.565601
0.564308
0.56305
0.561826
0.560635
0.559475
0.558345
0.557244
0.556172
0.555127
0.554109
0.553117
0.552149
0.551206
0.550286
0.549388
0.548513
0.547659
0.546825
0.546012
0.545219
0.544444
0.543688
0.54295
0.542229
0.541525
0.540838
0.540167
0.539511
0.538871
0.538246
0.537635
0.537038
0.536456
0.535886
0.53533
0.534786
0.534255
0.533736
0.533228
0.532733
0.532248
0.531775
0.531312
0.53086
0.530418
0.529985
0.529563
0.52915
0.528746