# vtk DataFile Version 2.0
FlowField
ASCII
DATASET STRUCTURED_GRID
DIMENSIONS 400 1 50
POINTS 20000 float
0 0 0
0.08 0 0
0.16 0 0
0.24 0 0
0.32 0 0
0.4 0 0
0.48 0 0
0.56 0 0
0.64 0 0
0.72 0 0
0.8 0 0
0.88 0 0
0.96 0 0
1.04 0 0
1.12 0 0
1.2 0 0
1.28 0 0
1.36 0 0
1.44 0 0
1.52 0 0
1.6 0 0
1.68 0 0
1.76 0 0
1.84 0 0
1.92 0 0
2 0 0
2.08 0 0
2.16 0 0
2.24 0 0
2.32 0 0
2.4 0 0
2.48 0 0
2.56 0 0
2.64 0 0
2.72 0 0
2.8 0 0
2.88 0 0
2.96 0 0
3.04 0 0
3.12 0 0
3.2 0 0
3.28 0 0
3.36 0 0
3.44 0 0
3.52 0 0
3.6 0 0
3.68 0 0
3.76 0 0
3.84 0 0
3.92 0 0
4 0 0
4.08 0 0
4.16 0 0
4.24 0 0
4.32 0 0
4.4 0 0
4.48 0 0
4.56 0 0
4.64 0 0
4.72 0 0
4.8 0 0
4.88 0 0
4.96 0 0
5.04 0 0
5.12 0 0
5.2 0 0
5.28 0 0
5.36 0 0
5.44 0 0
5.52 0 0
5.6 0 0
5.68 0 0
5.76 0 0
5.84 0 0
5.92 0 0
6 0 0
6.08 0 0
6.16 0 0
6.24 0 0
6.32 0 0
6.4 0 0
6.48 0 0
6.56 0 0
6.64 0 0
6.72 0 0
6.8 0 0
6.88 0 0
6.96 0 0
7.04 0 0
7.12 0 0
7.2 0 0
7.28 0 0
7.36 0 0
7.44 0 0
7.52 0 0
7.6 0 0
7.68 0 0
7.76 0 0
7.84 0 0
7.92 0 0
8 0 0
8.08 0 0
8.16 0 0
8.24 0 0
8.32 0 0
8.4 0 0
8.48 0 0
8.56 0 0
8.64 0 0
8.72 0 0
8.8 0 0
8.88 0 0
8.96 0 0
9.04 0 0
9.12 0 0
9.2 0 0
9.28 0 0
9.36 0 0
9.44 0 0
9.52 0 0
9.6 0 0
9.68 0 0
9.76 0 0
9.84 0 0
9.92 0 0
10 0 0
10.08 0 0
10.16 0 0
10.24 0 0
10.32 0 0
10.4 0 0
10.48 0 0
10.56 0 0
10.64 0 0
10.72 0 0
10.8 0 0
10.88 0 0
10.96 0 0
11.04 0 0
11.12 0 0
11.2 0 0
11.28 0 0
11.36 0 0
11.44 0 0
11.52 0 0
11.6 0 0
11.68 0 0
11.76 0 0
11.84 0 0
11.92 0 0
12 0 0
12.08 0 0
12.16 0 0
12.24 0 0
12.32 0 0
12.4 0 0
12.48 0 0
12.56 0 0
12.64 0 0
12.72 0 0
12.8 0 0
12.88 0 0
12.96 0 0
13.04 0 0
13.12 0 0
13.2 0 0
13.28 0 0
13.36 0 0
13.44 0 0
13.52 0 0
13.6 0 0
13.68 0 0
13.76 0 0
13.84 0 0
13.92 0 0
14 0 0
14.08 0 0
14.16 0 0
14.24 0 0
14.32 0 0
14.4 0 0
14.48 0 0
14.56 0 0
14.64 0 0
14.72 0 0
14.8 0 0
14.88 0 0
14.96 0 0
15.04 0 0
15.12 0 0
15.2 0 0
15.28 0 0
15.36 0 0
15.44 0 0
15.52 0 0
15.6 0 0
15.68 0 0
15.76 0 0
15.84 0 0
15.92 0 0
16 0 0
16.08 0 0
16.16 0 0
16.24 0 0
16.32 0 0
16.4 0 0
16.48 0 0
16.56 0 0
16.64 0 0
16.72 0 0
16.8 0 0
16.88 0 0
16.96 0 0
17.04 0 0
17.12 0 0
17.2 0 0
17.28 0 0
17.36 0 0
17.44 0 0
17.52 0 0
17.6 0 0
17.68 0 0
17.76 0 0
17.84 0 0
17.92 0 0
18 0 0
18.08 0 0
18.16 0 0
18.24 0 0
18.32 0 0
18.4 0 0
18.48 0 0
18.56 0 0
18.64 0 0
18.72 0 0
18.8 0 0
18.88 0 0
18.96 0 0
19.04 0 0
19.12 0 0
19.2 0 0
19.28 0 0
19.36 0 0
19.44 0 0
19.52 0 0
19.6 0 0
19.68 0 0
19.76 0 0
19.84 0 0
19.92 0 0
20 0 0
20.08 0 0
20.16 0 0
20.24 0 0
20.32 0 0
20.4 0 0
20.48 0 0
20.56 0 0
20.64 0 0
20.72 0 0
20.8 0 0
20.88 0 0
20.96 0 0
21.04 0 0
21.12 0 0
21.2 0 0
21.28 0 0
21.36 0 0
21.44 0 0
21.52 0 0
21.6 0 0
21.68 0 0
21.76 0 0
21.84 0 0
21.92 0 0
22 0 0
22.08 0 0
22.16 0 0
22.24 0 0
22.32 0 0
22.4 0 0
22.48 0 0
22.56 0 0
22.64 0 0
22.72 0 0
22.8 0 0
22.88 0 0
22.96 0 0
23.04 0 0
23.12 0 0
23.2 0 0
23.28 0 0
23.36 0 0
23.44 0 0
23.52 0 0
23.6 0 0
23.68 0 0
23.76 0 0
23.84 0 0
23.92 0 0
24 0 0
24.08 0 0
24.16 0 0
24.24 0 0
24.32 0 0
24.4 0 0
24.48 0 0
24.56 0 0
24.64 0 0
24.72 0 0
24.8 0 0
24.88 0 0
24.96 0 0
25.04 0 0
25.12 0 0
25.2 0 0
25.28 0 0
25.36 0 0
25.44 0 0
25.52 0 0
25.6 0 0
25.68 0 0
25.76 0 0
25.84 0 0
25.92 0 0
26 0 0
26.08 0 0
26.16 0 0
26.24 0 0
26.32 0 0
26.4 0 0
26.48 0 0
26.56 0 0
26.64 0 0
26.72 0 0
26.8 0 0
26.88 0 0
26.96 0 0
27.04 0 0
27.12 0 0
27.2 0 0
27.28 0 0
27.36 0 0
27.44 0 0
27.52 0 0
27.6 0 0
27.68 0 0
27.76 0 0
27.84 0 0
27.92 0 0
28 0 0
28.08 0 0
28.16 0 0
28.24 0 0
28.32 0 0
28.4 0 0
28.48 0 0
28.56 0 0
28.64 0 0
28.72 0 0
28.8 0 0
28.88 0 0
28.96 0 0
29.04 0 0
29.12 0 0
29.2 0 0
29.28 0 0
29.36 0 0
29.44 0 0
29.52 0 0
29.6 0 0
29.68 0 0
29.76 0 0
29.84 0 0
29.92 0 0
30 0 0
30.08 0 0
30.16 0 0
30.24 0 0
30.32 0 0
30.4 0 0
30.48 0 0
30.56 0 0
30.64 0 0
30.72 0 0
30.8 0 0
30.88 0 0
30.96 0 0
31.04 0 0
31.12 0 0
31.2 0 0
31.28 0 0
31.36 0 0
31.44 0 0
31.52 0 0
31.6 0 0
31.68 0 0
31.76 0 0
31.84 0 0
31.92 0 0
0 0.02 0
0.08 0.02 0
0.16 0.02 0
0.24 0.02 0
0.32 0.02 0
0.4 0.02 0
0.48 0.02 0
0.56 0.02 0
0.64 0.02 0
0.72 0.02 0
0.8 0.02 0
0.88 0.02 0
0.96 0.02 0
1.04 0.02 0
1.12 0.02 0
1.2 0.02 0
1.28 0.02 0
1.36 0.02 0
1.44 0.02 0
1.52 0.02 0
1.6 0.02 0
1.68 0.02 0
1.76 0.02 0
1.84 0.02 0
1.92 0.02 0
2 0.02 0
2.08 0.02 0
2.16 0.02 0
2.24 0.02 0
2.32 0.02 0
2.4 0.02 0
2.48 0.02 0
2.56 0.02 0
2.64 0.02 0
2.72 0.02 0
2.8 0.02 0
2.88 0.02 0
2.96 0.02 0
3.04 0.02 0
3.12 0.02 0
3.2 0.02 0
3.28 0.02 0
3.36 0.02 0
3.44 0.02 0
3.52 0.02 0
3.6 0.02 0
3.68 0.02 0
3.76 0.02 0
3.84 0.02 0
3.92 0.02 0
4 0.02 0
4.08 0.02 0
4.16 0.02 0
4.24 0.02 0
4.32 0.02 0
4.4 0.02 0
4.48 0.02 0
4.56 0.02 0
4.64 0.02 0
4.72 0.02 0
4.8 0.02 0
4.88 0.02 0
4.96 0.02 0
5.04 0.02 0
5.12 0.02 0
5.2 0.02 0
5.28 0.02 0
5.36 0.02 0
5.44 0.02 0
5.52 0.02 0
5.6 0.02 0
5.68 0.02 0
5.76 0.02 0
5.84 0.02 0
5.92 0.02 0
6 0.02 0
6.08 0.02 0
6.16 0.02 0
6.24 0.02 0
6.32 0.02 0
6.4 0.02 0
6.48 0.02 0
6.56 0.02 0
6.64 0.02 0
6.72 0.02 0
6.8 0.02 0
6.88 0.02 0
6.96 0.02 0
7.04 0.02 0
7.12 0.02 0
7.2 0.02 0
7.28 0.02 0
7.36 0.02 0
7.44 0.02 0
7.52 0.02 0
7.6 0.02 0
7.68 0.02 0
7.76 0.02 0
7.84 0.02 0
7.92 0.02 0
8 0.02 0
8.08 0.02 0
8.16 0.02 0
8.24 0.02 0
8.32 0.02 0
8.4 0.02 0
8.48 0.02 0
8.56 0.02 0
8.64 0.02 0
8.72 0.02 0
8.8 0.02 0
8.88 0.02 0
8.96 0.02 0
9.04 0.02 0
9.12 0.02 0
9.2 0.02 0
9.28 0.02 0
9.36 0.02 0
9.44 0.02 0
9.52 0.02 0
9.6 0.02 0
9.68 0.02 0
9.76 0.02 0
9.84 0.02 0
9.92 0.02 0
10 0.02 0
10.08 0.02 0
10.16 0.02 0
10.24 0.02 0
10.32 0.02 0
10.4 0.02 0
10.48 0.02 0
10.56 0.02 0
10.64 0.02 0
10.72 0.02 0
10.8 0.02 0
10.88 0.02 0
10.96 0.02 0
11.04 0.02 0
11.12 0.02 0
11.2 0.02 0
11.28 0.02 0
11.36 0.02 0
11.44 0.02 0
11.52 0.02 0
11.6 0.02 0
11.68 0.02 0
11.76 0.02 0
11.84 0.02 0
11.92 0.02 0
12 0.02 0
12.08 0.02 0
12.16 0.02 0
12.24 0.02 0
12.32 0.02 0
12.4 0.02 0
12.48 0.02 0
12.56 0.02 0
12.64 0.02 0
12.72 0.02 0
12.8 0.02 0
12.88 0.02 0
12.96 0.02 0
13.04 0.02 0
13.12 0.02 0
13.2 0.02 0
13.28 0.02 0
13.36 0.02 0
13.44 0.02 0
13.52 0.02 0
13.6 0.02 0
13.68 0.02 0
13.76 0.02 0
13.84 0.02 0
13.92 0.02 0
14 0.02 0
14.08 0.02 0
14.16 0.02 0
14.24 0.02 0
14.32 0.02 0
14.4 0.02 0
14.48 0.02 0
14.56 0.02 0
14.64 0.02 0
14.72 0.02 0
14.8 0.02 0
14.88 0.02 0
14.96 0.02 0
15.04 0.02 0
15.12 0.02 0
15.2 0.02 0
15.28 0.02 0
15.36 0.02 0
15.44 0.02 0
15.52 0.02 0
15.6 0.02 0
15.68 0.02 0
15.76 0.02 0
15.84 0.02 0
15.92 0.02 0
16 0.02 0
16.08 0.02 0
16.16 0.02 0
16.24 0.02 0
16.32 0.02 0
16.4 0.02 0
16.48 0.02 0
16.56 0.02 0
16.64 0.02 0
16.72 0.02 0
16.8 0.02 0
16.88 0.02 0
16.96 0.02 0
17.04 0.02 0
17.12 0.02 0
17.2 0.02 0
17.28 0.02 0
17.36 0.02 0
17.44 0.02 0
17.52 0.02 0
17.6 0.02 0
17.68 0.02 0
17.76 0.02 0
17.84 0.02 0
17.92 0.02 0
18 0.02 0
18.08 0.02 0
18.16 0.02 0
18.24 0.02 0
18.32 0.02 0
18.4 0.02 0
18.48 0.02 0
18.56 0.02 0
18.64 0.02 0
18.72 0.02 0
18.8 0.02 0
18.88 0.02 0
18.96 0.02 0
19.04 0.02 0
19.12 0.02 0
19.2 0.02 0
19.28 0.02 0
19.36 0.02 0
19.44 0.02 0
19.52 0.02 0
19.6 0.02 0
19.68 0.02 0
19.76 0.02 0
19.84 0.02 0
19.92 0.02 0
20 0.02 0
20.08 0.02 0
20.16 0.02 0
20.24 0.02 0
20.32 0.02 0
20.4 0.02 0
20.48 0.02 0
20.56 0.02 0
20.64 0.02 0
20.72 0.02 0
20.8 0.02 0
20.88 0.02 0
20.96 0.02 0
21.04 0.02 0
21.12 0.02 0
21.2 0.02 0
21.28 0.02 0
21.36 0.02 0
21.44 0.02 0
21.52 0.02 0
21.6 0.02 0
21.68 0.02 0
21.76 0.02 0
21.84 0.02 0
21.92 0.02 0
22 0.02 0
22.08 0.02 0
22.16 0.02 0
22.24 0.02 0
22.32 0.02 0
22.4 0.02 0
22.48 0.02 0
22.56 0.02 0
22.64 0.02 0
22.72 0.02 0
22.8 0.02 0
22.88 0.02 0
22.96 0.02 0
23.04 0.02 0
23.12 0.02 0
23.2 0.02 0
23.28 0.02 0
23.36 0.02 0
23.44 0.02 0
23.52 0.02 0
23.6 0.02 0
23.68 0.02 0
23.76 0.02 0
23.84 0.02 0
23.92 0.02 0
24 0.02 0
24.08 0.02 0
24.16 0.02 0
24.24 0.02 0
24.32 0.02 0
24.4 0.02 0
24.48 0.02 0
24.56 0.02 0
24.64 0.02 0
24.72 0.02 0
24.8 0.02 0
24.88 0.02 0
24.96 0.02 0
25.04 0.02 0
25.12 0.02 0
25.2 0.02 0
25.28 0.02 0
25.36 0.02 0
25.44 0.02 0
25.52 0.02 0
25.6 0.02 0
25.68 0.02 0
25.76 0.02 0
25.84 0.02 0
25.92 0.02 0
26 0.02 0
26.08 0.02 0
26.16 0.02 0
26.24 0.02 0
26.32 0.02 0
26.4 0.02 0
26.48 0.02 0
26.56 0.02 0
26.64 0.02 0
26.72 0.02 0
26.8 0.02 0
26.88 0.02 0
26.96 0.02 0
27.04 0.02 0
27.12 0.02 0
27.2 0.02 0
27.28 0.02 0
27.36 0.02 0
27.44 0.02 0
27.52 0.02 0
27.6 0.02 0
27.68 0.02 0
27.76 0.02 0
27.84 0.02 0
27.92 0.02 0
28 0.02 0
28.08 0.02 0
28.16 0.02 0
28.24 0.02 0
28.32 0.02 0
28.4 0.02 0
28.48 0.02 0
28.56 0.02 0
28.64 0.02 0
28.72 0.02 0
28.8 0.02 0
28.88 0.02 0
28.96 0.02 0
29.04 0.02 0
29.12 0.02 0
29.2 0.02 0
29.28 0.02 0
29.36 0.02 0
29.44 0.02 0
29.52 0.02 0
29.6 0.02 0
29.68 0.02 0
29.76 0.02 0
29.84 0.02 0
29.92 0.02 0
30 0.02 0
30.08 0.02 0
30.16 0.02 0
30.24 0.02 0
30.32 0.02 0
30.4 0.02 0
30.48 0.02 0
30.56 0.02 0
30.64 0.02 0
30.72 0.02 0
30.8 0.02 0
30.88 0.02 0
30.96 0.02 0
31.04 0.02 0
31.12 0.02 0
31.2 0.02 0
31.28 0.02 0
31.36 0.02 0
31.44 0.02 0
31.52 0.02 0
31.6 0.02 0
31.68 0.02 0
31.76 0.02 0
31.84 0.02 0
31.92 0.02 0
0 0.04 0
0.08 0.04 0
0.16 0.04 0
0.24 0.04 0
0.32 0.04 0
0.4 0.04 0
0.48 0.04 0
0.56 0.04 0
0.64 0.04 0
0.72 0.04 0
0.8 0.04 0
0.88 0.04 0
0.96 0.04 0
1.04 0.04 0
1.12 0.04 0
1.2 0.04 0
1.28 0.04 0
1.36 0.04 0
1.44 0.04 0
1.52 0.04 0
1.6 0.04 0
1.68 0.04 0
1.76 0.04 0
1.84 0.04 0
1.92 0.04 0
2 0.04 0
2.08 0.04 0
2.16 0.04 0
2.24 0.04 0
2.32 0.04 0
2.4 0.04 0
2.48 0.04 0
2.56 0.04 0
2.64 0.04 0
2.72 0.04 0
2.8 0.04 0
2.88 0.04 0
2.96 0.04 0
3.04 0.04 0
3.12 0.04 0
3.2 0.04 0
3.28 0.04 0
3.36 0.04 0
3.44 0.04 0
3.52 0.04 0
3.6 0.04 0
3.68 0.04 0
3.76 0.04 0
3.84 0.04 0
3.92 0.04 0
4 0.04 0
4.08 0.04 0
4.16 0.04 0
4.24 0.04 0
4.32 0.04 0
4.4 0.04 0
4.48 0.04 0
4.56 0.04 0
4.64 0.04 0
4.72 0.04 0
4.8 0.04 0
4.88 0.04 0
4.96 0.04 0
5.04 0.04 0
5.12 0.04 0
5.2 0.04 0
5.28 0.04 0
5.36 0.04 0
5.44 0.04 0
5.52 0.04 0
5.6 0.04 0
5.68 0.04 0
5.76 0.04 0
5.84 0.04 0
5.92 0.04 0
6 0.04 0
6.08 0.04 0
6.16 0.04 0
6.24 0.04 0
6.32 0.04 0
6.4 0.04 0
6.48 0.04 0
6.56 0.04 0
6.64 0.04 0
6.72 0.04 0
6.8 0.04 0
6.88 0.04 0
6.96 0.04 0
7.04 0.04 0
7.12 0.04 0
7.2 0.04 0
7.28 0.04 0
7.36 0.04 0
7.44 0.04 0
7.52 0.04 0
7.6 0.04 0
7.68 0.04 0
7.76 0.04 0
7.84 0.04 0
[...]
POINT_DATA 20000

SCALARS u float 1
LOOKUP_TABLE default
0
-0.50709
-0.29192
-0.214162
-0.179027
-0.158666
-0.145112
-0.135361
-0.127969
-0.122142
-0.117403
-0.113452
-0.110089
-0.107176
-0.104618
-0.102344
-0.100305
-0.0984601
-0.0967803
-0.0952419
-0.0938259
-0.092517
-0.0913025
-0.0901718
-0.089116
-0.0881273
-0.0871993
-0.0863261
-0.0855029
-0.0847252
-0.0839892
-0.0832915
-0.0826289
-0.0819989
-0.081399
-0.0808269
-0.0802808
-0.0797588
-0.0792592
-0.0787807
-0.0783219
-0.0778815
-0.0774585
-0.0770518
-0.0766605
-0.0762836
-0.0759204
-0.0755701
-0.0752321
-0.0749058
-0.0745904
-0.0742855
-0.0739906
-0.0737051
-0.0734287
-0.0731609
-0.0729014
-0.0726497
-0.0724055
-0.0721685
-0.0719384
-0.071715
-0.0714978
-0.0712868
-0.0710816
-0.0708821
-0.070688
-0.0704991
-0.0703152
-0.0701362
-0.0699618
-0.069792
-0.0696265
-0.0694652
-0.069308
-0.0691547
-0.0690053
-0.0688595
-0.0687173
-0.0685786
-0.0684432
-0.0683111
-0.0681821
-0.0680563
-0.0679333
-0.0678133
-0.0676961
-0.0675816
-0.0674698
-0.0673606
-0.0672539
-0.0671496
-0.0670477
-0.0669481
-0.0668508
-0.0667557
-0.0666627
-0.0665719
-0.066483
-0.0663962
-0.0663113
-0.0662282
-0.0661471
-0.0660677
-0.0659901
-0.0659142
-0.0658399
-0.0657673
-0.0656963
-0.0656269
-0.065559
-0.0654925
-0.0654276
-0.065364
-0.0653018
-0.065241
-0.0651815
-0.0651234
-0.0650664
-0.0650107
-0.0649563
-0.064903
-0.0648508
-0.0647998
-0.0647499
-0.0647011
-0.0646534
-0.0646067
-0.064561
-0.0645162
-0.0644725
-0.0644297
-0.0643878
-0.0643469
-0.0643068
-0.0642676
-0.0642292
-0.0641917
-0.064155
-0.0641191
-0.0640839
-0.0640496
-0.0640159
-0.063983
-0.0639508
-0.0639193
-0.0638885
-0.0638584
-0.0638289
-0.0638
-0.0637718
-0.0637442
-0.0637172
-0.0636907
-0.0636649
-0.0636396
-0.0636148
-0.0635906
-0.0635669
-0.0635437
-0.0635211
-0.0634989
-0.0634772
-0.0634559
-0.0634351
-0.0634148
-0.0633949
-0.0633755
-0.0633564
-0.0633378
-0.0633196
-0.0633017
-0.0632843
-0.0632672
-0.0632505
-0.0632342
-0.0632182
-0.0632025
-0.0631872
-0.0631722
-0.0631576
-0.0631432
-0.0631292
-0.0631154
-0.063102
-0.0630889
-0.063076
-0.0630634
-0.0630511
-0.063039
-0.0630272
-0.0630157
-0.0630044
-0.0629933
-0.0629825
-0.0629719
-0.0629616
-0.0629514
-0.0629415
-0.0629318
-0.0629223
-0.062913
-0.0629039
-0.0628951
-0.0628863
-0.0628778
-0.0628695
-0.0628613
-0.0628533
-0.0628455
-0.0628379
-0.0628304
-0.0628231
-0.0628159
-0.0628089
-0.062802
-0.0627953
-0.0627887
-0.0627823
-0.062776
-0.0627698
-0.0627638
-0.0627579
-0.0627521
-0.0627465
-0.0627409
-0.0627355
-0.0627302
-0.062725
-0.0627199
-0.062715
-0.0627101
-0.0627053
-0.0627007
-0.0626961
-0.0626917
-0.0626873
-0.062683
-0.0626788
-0.0626747
-0.0626707
-0.0626668
-0.062663
-0.0626592
-0.0626555
-0.062652
-0.0626484
-0.062645
-0.0626416
-0.0626384
-0.0626351
-0.062632
-0.0626289
-0.0626259
-0.062623
-0.0626201
-0.0626173
-0.0626146
-0.0626119
-0.0626093
-0.0626067
-0.0626043
-0.0626018
-0.0625995
-0.0625972
-0.0625949
-0.0625928
-0.0625907
-0.0625886
-0.0625866
-0.0625847
-0.0625828
-0.062581
-0.0625792
-0.0625775
-0.0625759
-0.0625743
-0.0625728
-0.0625713
-0.0625699
-0.0625685
-0.0625672
-0.062566
-0.0625648
-0.0625637
-0.0625626
-0.0625615
-0.0625606
-0.0625596
-0.0625587
-0.0625579
-0.0625571
-0.0625564
-0.0625557
-0.062555
-0.0625544
-0.0625539
-0.0625534
-0.0625529
-0.0625524
-0.062552
-0.0625517
-0.0625514
-0.0625511
-0.0625508
-0.0625506
-0.0625504
-0.0625503
-0.0625501
-0.06255
-0.0625499
-0.0625499
-0.0625499
-0.0625499
-0.0625499
-0.0625499
-0.06255
-0.06255
-0.0625501
-0.0625502
-0.0625503
-0.0625505
-0.0625506
-0.0625508
-0.062551
-0.0625511
-0.0625513
-0.0625515
-0.0625517
-0.0625519
-0.0625522
-0.0625524
-0.0625526
-0.0625529
-0.0625531
-0.0625534
-0.0625536
-0.0625539
-0.0625541
-0.0625544
-0.0625546
-0.0625549
-0.0625552
-0.0625554
-0.0625557
-0.062556
-0.0625562
-0.0625565
-0.0625568
-0.0625571
-0.0625573
-0.0625576
-0.0625579
-0.0625581
-0.0625584
-0.0625587
-0.062559
-0.0625592
-0.0625595
-0.0625598
-0.0625601
-0.0625604
-0.0625606
-0.0625609
-0.0625612
-0.0625615
-0.0625617
-0.062562
-0.0625623
-0.0625626
-0.0625628
-0.0625631
-0.0625634
-0.0625637
-0.062564
-0.0625642
-0.0625645
-0.0625648
-0.0625651
-0.0625654
-0.0625657
-0.0625659
-0.0625662
-0.0625665
-0.0625668
-0.0625671
-0.0625674
-0.0625677
-0.062568
-0.0625683
-0.0625686
-0.0625689
-0.0625693
-0.0625696
-0.0625699
-0.0625701
-0.0625705
-0.0625703
-0.0625703
-0.0625703
1
0.50709
0.29192
0.214162
0.179027
0.158666
0.145112
0.135361
0.127969
0.122142
0.117403
0.113452
0.110089
0.107176
0.104618
0.102344
0.100305
0.0984601
0.0967803
0.0952419
0.0938259
0.092517
0.0913025
0.0901718
0.089116
0.0881273
0.0871993
0.0863261
0.0855029
0.0847252
0.0839892
0.0832915
0.0826289
0.0819989
0.081399
0.0808269
0.0802808
0.0797588
0.0792592
0.0787807
0.0783219
0.0778815
0.0774585
0.0770518
0.0766605
0.0762836
0.0759204
0.0755701
0.0752321
0.0749058
0.0745904
0.0742855
0.0739906
0.0737051
0.0734287
0.0731609
0.0729014
0.0726497
0.0724055
0.0721685
0.0719384
0.071715
0.0714978
0.0712868
0.0710816
0.0708821
0.070688
0.0704991
0.0703152
0.0701362
0.0699618
0.069792
0.0696265
0.0694652
0.069308
0.0691547
0.0690053
0.0688595
0.0687173
0.0685786
0.0684432
0.0683111
0.0681821
0.0680563
0.0679333
0.0678133
0.0676961
0.0675816
0.0674698
0.0673606
0.0672539
0.0671496
0.0670477
0.0669481
0.0668508
0.0667557
0.0666627
0.0665719
0.066483
0.0663962
0.0663113
0.0662282
0.0661471
0.0660677
0.0659901
0.0659142
0.0658399
0.0657673
0.0656963
0.0656269
0.065559
0.0654925
0.0654276
0.065364
0.0653018
0.065241
0.0651815
0.0651234
0.0650664
0.0650107
0.0649563
0.064903
0.0648508
0.0647998
0.0647499
0.0647011
0.0646534
0.0646067
0.064561
0.0645162
0.0644725
0.0644297
0.0643878
0.0643469
0.0643068
0.0642676
0.0642292
0.0641917
0.064155
0.0641191
0.0640839
0.0640496
0.0640159
0.063983
0.0639508
0.0639193
0.0638885
0.0638584
0.0638289
0.0638
0.0637718
0.0637442
0.0637172
0.0636907
0.0636649
0.0636396
0.0636148
0.0635906
0.0635669
0.0635437
0.0635211
0.0634989
0.0634772
0.0634559
0.0634351
0.0634148
0.0633949
0.0633755
0.0633564
0.0633378
0.0633196
0.0633017
0.0632843
0.0632672
0.0632505
0.0632342
0.0632182
0.0632025
0.0631872
0.0631722
0.0631576
0.0631432
0.0631292
0.0631154
0.063102
0.0630889
0.063076
0.0630634
0.0630511
0.063039
0.0630272
0.0630157
0.0630044
0.0629933
0.0629825
0.0629719
0.0629616
0.0629514
0.0629415
0.0629318
0.0629223
0.062913
0.0629039
0.0628951
0.0628863
0.0628778
0.0628695
0.0628613
0.0628533
0.0628455
0.0628379
0.0628304
0.0628231
0.0628159
0.0628089
0.062802
0.0627953
0.0627887
0.0627823
0.062776
0.0627698
0.0627638
0.0627579
0.0627521
0.0627465
0.0627409
0.0627355
0.0627302
0.062725
0.0627199
0.062715
0.0627101
0.0627053
0.0627007
0.0626961
0.0626917
0.0626873
0.062683
0.0626788
0.0626747
0.0626707
0.0626668
0.062663
0.0626592
0.0626555
0.062652
0.0626484
0.062645
0.0626416
0.0626384
0.0626351
0.062632
0.0626289
0.0626259
0.062623
0.0626201
0.0626173
0.0626146
0.0626119
0.0626093
0.0626067
0.0626043
0.0626018
0.0625995
0.0625972
0.0625949
0.0625928
0.0625907
0.0625886
0.0625866
0.0625847
0.0625828
0.062581
0.0625792
0.0625775
0.0625759
0.0625743
0.0625728
0.0625713
0.0625699
0.0625685
0.0625672
0.062566
0.0625648
0.0625637
0.0625626
0.0625615
0.0625606
0.0625596
0.0625587
0.0625579
0.0625571
0.0625564
0.0625557
0.062555
0.0625544
0.0625539
0.0625534
0.0625529
0.0625524
0.062552
0.0625517
0.0625514
0.0625511
0.0625508
0.0625506
0.0625504
0.0625503
0.0625501
0.06255
0.0625499
0.0625499
0.0625499
0.0625499
0.0625499
0.0625499
0.06255
0.06255
0.0625501
0.0625502
0.0625503
0.0625505
0.0625506
0.0625508
0.062551
0.0625511
0.0625513
0.0625515
0.0625517
0.0625519
0.0625522
0.0625524
0.0625526
0.0625529
0.0625531
0.0625534
0.0625536
0.0625539
0.0625541
0.0625544
0.0625546
0.0625549
0.0625552
0.0625554
0.0625557
0.062556
0.0625562
0.0625565
0.0625568
0.0625571
0.0625573
0.0625576
0.0625579
0.0625581
0.0625584
0.0625587
0.062559
0.0625592
0.0625595
0.0625598
0.0625601
0.0625604
0.0625606
0.0625609
0.0625612
0.0625615
0.0625617
0.062562
0.0625623
0.0625626
0.0625628
0.0625631
0.0625634
0.0625637
0.062564
0.0625642
0.0625645
0.0625648
0.0625651
0.0625654
0.0625657
0.0625659
0.0625662
0.0625665
0.0625668
0.0625671
0.0625674
0.0625677
0.062568
0.0625683
0.0625686
0.0625689
0.0625693
0.0625696
0.0625699
0.0625701
0.0625705
0.0625703
0.0625703
0.0625703
1
0.924297
0.735447
0.597551
0.511658
0.456344
0.418184
0.390281
0.36895
0.352066
0.338319
0.326861
0.317121
0.308704
0.30133
0.294793
0.288942
0.283661
0.278861
0.274473
0.27044
0.266716
0.263265
0.260056
0.257061
0.254259
0.251631
0.249159
0.24683
0.244631
0.242551
0.240579
0.238708
0.23693
0.235236
0.233622
0.232082
0.23061
0.229202
0.227854
0.226561
0.225321
0.22413
0.222985
0.221883
0.220823
0.219801
0.218816
0.217866
0.216948
0.216062
0.215205
0.214377
0.213575
0.212799
0.212047
0.211318
0.210612
0.209927
0.209262
0.208616
0.20799
0.207381
0.206789
0.206214
0.205655
0.205111
0.204582
0.204067
0.203566
0.203077
0.202602
0.202139
0.201687
0.201248
0.200819
0.200401
0.199993
0.199595
0.199208
0.198829
0.19846
0.1981
0.197748
0.197404
0.197069
0.196742
0.196422
0.19611
0.195805
0.195507
0.195216
0.194932
0.194654
0.194382
0.194117
0.193858
0.193604
0.193357
0.193115
0.192878
0.192646
0.19242
0.192199
0.191983
0.191771
0.191565
0.191362
0.191165
0.190971
0.190782
0.190597
0.190416
0.190239
0.190066
0.189897
0.189731
0.18957
0.189411
0.189256
0.189105
0.188957
0.188812
0.18867
0.188531
0.188395
0.188262
0.188133
0.188006
0.187881
0.18776
0.187641
0.187524
0.187411
0.187299
0.18719
0.187084
0.18698
0.186878
0.186778
0.18668
0.186585
0.186491
0.1864
0.186311
0.186223
0.186138
0.186054
0.185972
0.185892
0.185814
0.185737
0.185662
0.185589
0.185517
0.185447
0.185378
0.185311
0.185246
0.185181
0.185118
0.185057
0.184997
0.184938
0.18488
0.184824
0.184769
0.184715
0.184662
0.18461
0.18456
0.18451
0.184462
0.184415
0.184369
0.184323
0.184279
0.184236
0.184193
0.184152
0.184111
0.184071
0.184032
0.183994
0.183957
0.183921
0.183885
0.18385
0.183816
0.183783
0.18375
0.183718
0.183687
0.183656
0.183626
0.183597
0.183568
0.18354
0.183513
0.183486
0.18346
0.183434
0.183409
0.183384
0.18336
0.183336
0.183313
0.183291
0.183269
0.183247
0.183226
0.183205
0.183185
0.183165
0.183146
0.183127
0.183108
0.18309
0.183072
0.183055
0.183038
0.183021
0.183004
0.182988
0.182973
0.182957
0.182943
0.182928
0.182913
0.182899
0.182886
0.182872
0.182859
0.182846
0.182833
0.182821
0.182809
0.182797
0.182786
0.182774
0.182763
0.182752
0.182742
0.182731
0.182721
0.182711
0.182702
0.182692
0.182683
0.182674
0.182665
0.182656
0.182648
0.182639
0.182631
0.182623
0.182616
0.182608
0.182601
0.182593
0.182586
0.18258
0.182573
0.182567
0.18256
0.182554
0.182548
0.182542
0.182537
0.182531
0.182526
0.182521
0.182516
0.182511
0.182507
0.182502
0.182498
0.182494
0.18249
0.182486
0.182483
0.182479
0.182476
0.182473
0.18247
0.182467
0.182464
0.182462
0.182459
0.182457
0.182455
0.182453
0.182451
0.182449
0.182447
0.182446
0.182444
0.182443
0.182442
0.182441
0.18244
0.182439
0.182438
0.182437
0.182437
0.182436
0.182436
0.182436
0.182435
0.182435
0.182435
0.182435
0.182435
0.182435
0.182435
0.182435
0.182436
0.182436
0.182436
0.182437
0.182437
0.182437
0.182438
0.182438
0.182439
0.182439
0.18244
0.182441
0.182441
0.182442
0.182443
0.182443
0.182444
0.182445
0.182445
0.182446
0.182447
0.182447
0.182448
0.182449
0.18245
0.18245
0.182451
0.182452
0.182453
0.182454
0.182454
0.182455
0.182456
0.182457
0.182457
0.182458
0.182459
0.18246
0.182461
0.182461
0.182462
0.182463
0.182464
0.182464
0.182465
0.182466
0.182467
0.182468
0.182468
0.182469
0.18247
0.182471
0.182472
0.182472
0.182473
0.182474
0.182475
0.182475
0.182476
0.182477
0.182478
0.182479
0.182479
0.18248
0.182481
0.182482
0.182483
0.182484
0.182484
0.182485
0.182486
0.182487
0.182488
0.182489
0.182489
0.18249
0.182491
0.182492
0.182493
0.182494
0.182495
0.182495
0.182495
0.182495
1
1.07971
0.997071
0.883651
0.788698
0.716914
0.663052
0.621838
0.589496
0.563484
0.542093
0.524152
0.508846
0.495591
0.483965
0.473655
0.464425
0.456097
0.448529
0.441612
0.435256
0.42939
0.423954
0.418899
0.414184
0.409773
0.405635
0.401745
0.398079
0.394619
0.391345
0.388243
0.385299
0.382501
0.379838
0.377299
0.374876
0.372561
0.370347
0.368226
0.366194
0.364244
0.362371
0.360571
0.35884
0.357173
0.355568
0.35402
0.352527
0.351085
0.349693
0.348347
0.347046
0.345787
0.344568
0.343387
0.342243
0.341134
0.340059
0.339016
0.338003
0.33702
0.336065
0.335137
0.334235
0.333358
0.332505
0.331676
0.330868
0.330082
0.329317
0.328572
0.327846
0.327139
0.32645
0.325779
0.325124
0.324486
0.323863
0.323256
0.322663
0.322085
0.321521
0.320971
0.320434
0.319909
0.319397
0.318897
0.318409
0.317932
0.317466
0.317011
0.316567
0.316133
0.315708
0.315294
0.314888
0.314492
0.314106
0.313727
0.313358
0.312996
0.312643
0.312297
0.31196
0.31163
0.311307
0.310991
0.310683
0.310381
0.310086
0.309797
0.309515
0.309239
0.308969
0.308705
0.308447
0.308194
0.307947
0.307706
0.307469
0.307238
0.307012
0.306791
0.306575
0.306363
0.306157
0.305954
0.305756
0.305563
0.305373
0.305188
0.305007
0.304829
0.304656
0.304486
0.30432
0.304158
0.303999
0.303844
0.303692
0.303544
0.303398
0.303256
0.303117
0.302981
0.302848
0.302718
0.30259
0.302466
0.302344
0.302225
0.302108
0.301994
0.301882
0.301773
0.301667
0.301562
0.30146
0.30136
0.301262
0.301167
0.301073
0.300981
0.300892
0.300804
0.300719
0.300635
0.300553
0.300473
0.300394
0.300317
0.300242
0.300169
0.300097
0.300026
0.299957
0.29989
0.299824
0.29976
0.299697
0.299635
0.299575
0.299516
0.299458
0.299401
0.299346
0.299292
0.299239
0.299187
0.299136
0.299086
0.299038
0.29899
0.298944
0.298898
0.298854
0.29881
0.298768
0.298726
0.298685
0.298645
0.298606
0.298568
0.298531
0.298494
0.298458
0.298423
0.298389
0.298355
0.298322
0.29829
0.298259
0.298228
0.298198
0.298168
0.298139
0.298111
0.298083
0.298056
0.29803
0.298004
0.297979
0.297954
0.297929
0.297906
0.297882
0.29786
0.297837
0.297815
0.297794
0.297773
0.297753
0.297733
0.297713
0.297694
0.297675
0.297657
0.297639
0.297621
0.297604
0.297587
0.297571
0.297555
0.297539
0.297523
0.297508
0.297494
0.297479
0.297465
0.297451
0.297438
0.297425
0.297412
0.297399
0.297387
0.297375
0.297363
0.297352
0.297341
0.29733
0.29732
0.297309
0.297299
0.29729
0.29728
0.297271
0.297262
0.297254
0.297245
0.297237
0.297229
0.297222
0.297214
0.297207
0.297201
0.297194
0.297188
0.297182
0.297176
0.297171
0.297165
0.29716
0.297156
0.297151
0.297147
0.297143
0.297139
0.297135
0.297132
0.297128
0.297125
0.297122
0.29712
0.297117
0.297115
0.297113
0.297111
0.297109
0.297108
0.297106
0.297105
0.297104
0.297103
0.297102
0.297102
0.297101
0.297101
0.2971
0.2971
0.2971
0.2971
0.2971
0.2971
0.297101
0.297101
0.297101
0.297102
0.297102
0.297103
0.297104
0.297104
0.297105
0.297106
0.297107
0.297108
0.297109
0.29711
0.297111
0.297112
0.297113
0.297114
0.297115
0.297116
0.297117
0.297118
0.297119
0.297121
0.297122
0.297123
0.297124
0.297125
0.297126
0.297128
0.297129
0.29713
0.297131
0.297132
0.297134
0.297135
0.297136
0.297137
0.297139
0.29714
0.297141
0.297142
0.297143
0.297145
0.297146
0.297147
0.297148
0.29715
0.297151
0.297152
0.297153
0.297155
0.297156
0.297157
0.297158
0.29716
0.297161
0.297162
0.297163
0.297164
0.297166
0.297167
0.297168
0.297169
0.297171
0.297172
0.297173
0.297175
0.297176
0.297177
0.297178
0.29718
0.297181
0.297182
0.297184
0.297185
0.297186
0.297188
0.297189
0.297191
0.297192
0.297193
0.297195
0.297195
0.297195
0.297195
1
1.11179
1.11438
1.05557
0.984377
0.919039
0.863806
0.818223
0.780652
0.749429
0.723171
0.700803
0.681506
0.664663
0.649803
0.636569
0.624685
0.613934
0.604147
0.595186
0.586943
0.579326
0.572262
0.565687
0.559549
0.553802
0.548409
0.543336
0.538553
0.534036
0.529761
0.525709
0.521861
0.518203
0.51472
0.5114
0.50823
0.505201
0.502303
0.499527
0.496866
0.494313
0.49186
0.489503
0.487236
0.485052
0.482949
0.480921
0.478965
0.477076
0.475252
0.473489
0.471784
0.470134
0.468537
0.466991
0.465492
0.464039
0.462631
0.461264
0.459937
0.458649
0.457398
0.456183
0.455002
0.453854
0.452737
0.45165
0.450593
0.449565
0.448563
0.447588
0.446638
0.445712
0.444811
0.443932
0.443075
0.44224
0.441425
0.440631
0.439856
0.439101
0.438363
0.437643
0.436941
0.436255
0.435586
0.434932
0.434294
0.433671
0.433062
0.432468
0.431887
0.43132
0.430766
0.430224
0.429695
0.429178
0.428673
0.428179
0.427696
0.427224
0.426763
0.426312
0.425872
0.425441
0.42502
0.424608
0.424205
0.423812
0.423427
0.423051
0.422682
0.422323
0.421971
0.421626
0.42129
0.420961
0.420639
0.420324
0.420016
0.419715
0.419421
0.419132
0.418851
0.418575
0.418306
0.418042
0.417784
0.417532
0.417286
0.417044
0.416808
0.416578
0.416352
0.416131
0.415915
0.415704
0.415497
0.415295
0.415098
0.414904
0.414715
0.41453
0.414349
0.414172
0.413999
0.41383
0.413664
0.413502
0.413344
0.413189
0.413037
0.412889
0.412744
0.412602
0.412463
0.412327
0.412195
0.412065
0.411938
0.411813
0.411692
0.411573
0.411457
0.411343
0.411232
0.411123
0.411016
0.410912
0.41081
0.41071
0.410613
0.410517
0.410424
0.410332
0.410243
0.410156
0.41007
0.409986
0.409905
0.409824
0.409746
0.409669
0.409594
0.409521
0.409449
0.409379
0.40931
0.409243
0.409177
0.409113
0.40905
0.408988
0.408928
0.408869
0.408811
0.408754
0.408699
0.408645
0.408592
0.40854
0.40849
0.40844
0.408391
0.408344
0.408297
0.408252
0.408207
0.408164
0.408121
0.40808
0.408039
0.407999
0.40796
0.407921
0.407884
0.407847
0.407811
0.407776
0.407742
0.407708
0.407676
0.407643
0.407612
0.407581
0.407551
0.407521
0.407492
0.407464
0.407436
0.407409
0.407383
0.407357
0.407331
0.407306
0.407282
0.407258
0.407235
0.407212
0.40719
0.407168
0.407146
0.407126
0.407105
0.407085
0.407066
0.407046
0.407028
0.407009
0.406992
0.406974
0.406957
0.40694
0.406924
0.406908
0.406893
0.406878
0.406863
0.406849
0.406835
0.406821
0.406808
0.406795
0.406782
0.40677
0.406758
0.406747
0.406736
0.406725
0.406714
0.406704
0.406695
0.406685
0.406676
0.406668
0.406659
0.406651
0.406643
0.406636
0.406629
0.406622
0.406616
0.40661
0.406604
0.406598
0.406593
0.406588
0.406584
0.406579
0.406575
0.406571
0.406568
0.406564
0.406561
0.406558
0.406556
0.406553
0.406551
0.406549
0.406548
0.406546
0.406545
0.406544
0.406543
0.406542
0.406541
0.406541
0.40654
0.40654
0.40654
0.40654
0.40654
0.406541
0.406541
0.406541
0.406542
0.406543
0.406543
0.406544
0.406545
0.406546
0.406547
0.406548
0.406549
0.406551
0.406552
0.406553
0.406554
0.406556
0.406557
0.406558
0.40656
0.406561
0.406563
0.406564
0.406566
0.406567
0.406569
0.40657
0.406572
0.406573
0.406575
0.406576
0.406578
0.40658
0.406581
0.406583
0.406584
0.406586
0.406588
0.406589
0.406591
0.406592
0.406594
0.406595
0.406597
0.406599
0.4066
0.406602
0.406603
0.406605
0.406607
0.406608
0.40661
0.406611
0.406613
0.406615
0.406616
0.406618
0.406619
0.406621
0.406623
0.406624
0.406626
0.406627
0.406629
0.406631
0.406632
0.406634
0.406636
0.406637
0.406639
0.406641
0.406642
0.406644
0.406646
0.406647
0.406649
0.406651
0.406653
0.406654
0.406656
0.406658
0.40666
0.406661
0.406663
0.406664
0.406664
0.406664
1
1.09593
1.14368
1.13403
1.09771
1.05335
1.00943
0.96923
0.933638
0.902514
0.875356
0.851581
0.830648
0.81209
0.79552
0.780624
0.767147
0.754881
0.743659
0.733342
0.723817
0.71499
0.70678
0.699123
0.691959
0.68524
0.678924
0.672973
0.667355
0.662043
0.65701
0.652234
0.647696
0.643377
0.639262
0.635335
0.631585
0.627998
0.624565
0.621275
0.618119
0.61509
0.612179
0.609381
0.606687
0.604094
0.601594
0.599183
0.596857
0.594611
0.592441
0.590343
0.588314
0.586351
0.58445
0.582609
0.580824
0.579095
0.577417
0.575789
0.57421
0.572676
0.571186
0.569738
0.568331
0.566963
0.565633
0.564339
0.56308
0.561854
0.560661
0.5595
0.558368
0.557266
0.556192
0.555145
0.554125
0.553131
0.552161
0.551215
0.550293
0.549393
0.548515
0.547658
0.546822
0.546006
0.545209
0.544431
0.543672
0.54293
0.542206
0.541499
0.540808
0.540133
0.539474
0.53883
0.538201
0.537586
0.536985
0.536398
0.535824
0.535264
0.534715
0.53418
0.533656
0.533144
0.532644
0.532154
0.531676
0.531208
0.530751
0.530304
0.529867
0.52944
0.529022
0.528613
0.528214
0.527823