# vtk DataFile Version 2.0
FlowField
ASCII
DATASET STRUCTURED_GRID
DIMENSIONS 400 1 50
POINTS 20000 float
0 0 0
0.08 0 0
0.16 0 0
0.24 0 0
0.32 0 0
0.4 0 0
0.48 0 0
0.56 0 0
0.64 0 0
0.72 0 0
0.8 0 0
0.88 0 0
0.96 0 0
1.04 0 0
1.12 0 0
1.2 0 0
1.28 0 0
1.36 0 0
1.44 0 0
1.52 0 0
1.6 0 0
1.68 0 0
1.76 0 0
1.84 0 0
1.92 0 0
2 0 0
2.08 0 0
2.16 0 0
2.24 0 0
2.32 0 0
2.4 0 0
2.48 0 0
2.56 0 0
2.64 0 0
2.72 0 0
2.8 0 0
2.88 0 0
2.96 0 0
3.04 0 0
3.12 0 0
3.2 0 0
3.28 0 0
3.36 0 0
3.44 0 0
3.52 0 0
3.6 0 0
3.68 0 0
3.76 0 0
3.84 0 0
3.92 0 0
4 0 0
4.08 0 0
4.16 0 0
4.24 0 0
4.32 0 0
4.4 0 0
4.48 0 0
4.56 0 0
4.64 0 0
4.72 0 0
4.8 0 0
4.88 0 0
4.96 0 0
5.04 0 0
5.12 0 0
5.2 0 0
5.28 0 0
5.36 0 0
5.44 0 0
5.52 0 0
5.6 0 0
5.68 0 0
5.76 0 0
5.84 0 0
5.92 0 0
6 0 0
6.08 0 0
6.16 0 0
6.24 0 0
6.32 0 0
6.4 0 0
6.48 0 0
6.56 0 0
6.64 0 0
6.72 0 0
6.8 0 0
6.88 0 0
6.96 0 0
7.04 0 0
7.12 0 0
7.2 0 0
7.28 0 0
7.36 0 0
7.44 0 0
7.52 0 0
7.6 0 0
7.68 0 0
7.76 0 0
7.84 0 0
7.92 0 0
8 0 0
8.08 0 0
8.16 0 0
8.24 0 0
8.32 0 0
8.4 0 0
8.48 0 0
8.56 0 0
8.64 0 0
8.72 0 0
8.8 0 0
8.88 0 0
8.96 0 0
9.04 0 0
9.12 0 0
9.2 0 0
9.28 0 0
9.36 0 0
9.44 0 0
9.52 0 0
9.6 0 0
9.68 0 0
9.76 0 0
9.84 0 0
9.92 0 0
10 0 0
10.08 0 0
10.16 0 0
10.24 0 0
10.32 0 0
10.4 0 0
10.48 0 0
10.56 0 0
10.64 0 0
10.72 0 0
10.8 0 0
10.88 0 0
10.96 0 0
11.04 0 0
11.12 0 0
11.2 0 0
11.28 0 0
11.36 0 0
11.44 0 0
11.52 0 0
11.6 0 0
11.68 0 0
11.76 0 0
11.84 0 0
11.92 0 0
12 0 0
12.08 0 0
12.16 0 0
12.24 0 0
12.32 0 0
12.4 0 0
12.48 0 0
12.56 0 0
12.64 0 0
12.72 0 0
12.8 0 0
12.88 0 0
12.96 0 0
13.04 0 0
13.12 0 0
13.2 0 0
13.28 0 0
13.36 0 0
13.44 0 0
13.52 0 0
13.6 0 0
13.68 0 0
13.76 0 0
13.84 0 0
13.92 0 0
14 0 0
14.08 0 0
14.16 0 0
14.24 0 0
14.32 0 0
14.4 0 0
14.48 0 0
14.56 0 0
14.64 0 0
14.72 0 0
14.8 0 0
14.88 0 0
14.96 0 0
15.04 0 0
15.12 0 0
15.2 0 0
15.28 0 0
15.36 0 0
15.44 0 0
15.52 0 0
15.6 0 0
15.68 0 0
15.76 0 0
15.84 0 0
15.92 0 0
16 0 0
16.08 0 0
16.16 0 0
16.24 0 0
16.32 0 0
16.4 0 0
16.48 0 0
16.56 0 0
16.64 0 0
16.72 0 0
16.8 0 0
16.88 0 0
16.96 0 0
17.04 0 0
17.12 0 0
17.2 0 0
17.28 0 0
17.36 0 0
17.44 0 0
17.52 0 0
17.6 0 0
17.68 0 0
17.76 0 0
17.84 0 0
17.92 0 0
18 0 0
18.08 0 0
18.16 0 0
18.24 0 0
18.32 0 0
18.4 0 0
18.48 0 0
18.56 0 0
18.64 0 0
18.72 0 0
18.8 0 0
18.88 0 0
18.96 0 0
19.04 0 0
19.12 0 0
19.2 0 0
19.28 0 0
19.36 0 0
19.44 0 0
19.52 0 0
19.6 0 0
19.68 0 0
19.76 0 0
19.84 0 0
19.92 0 0
20 0 0
20.08 0 0
20.16 0 0
20.24 0 0
20.32 0 0
20.4 0 0
20.48 0 0
20.56 0 0
20.64 0 0
20.72 0 0
20.8 0 0
20.88 0 0
20.96 0 0
21.04 0 0
21.12 0 0
21.2 0 0
21.28 0 0
21.36 0 0
21.44 0 0
21.52 0 0
21.6 0 0
21.68 0 0
21.76 0 0
21.84 0 0
21.92 0 0
22 0 0
22.08 0 0
22.16 0 0
22.24 0 0
22.32 0 0
22.4 0 0
22.48 0 0
22.56 0 0
22.64 0 0
22.72 0 0
22.8 0 0
22.88 0 0
22.96 0 0
23.04 0 0
23.12 0 0
23.2 0 0
23.28 0 0
23.36 0 0
23.44 0 0
23.52 0 0
23.6 0 0
23.68 0 0
23.76 0 0
23.84 0 0
23.92 0 0
24 0 0
24.08 0 0
24.16 0 0
24.24 0 0
24.32 0 0
24.4 0 0
24.48 0 0
24.56 0 0
24.64 0 0
24.72 0 0
24.8 0 0
24.88 0 0
24.96 0 0
25.04 0 0
25.12 0 0
25.2 0 0
25.28 0 0
25.36 0 0
25.44 0 0
25.52 0 0
25.6 0 0
25.68 0 0
25.76 0 0
25.84 0 0
25.92 0 0
26 0 0
26.08 0 0
26.16 0 0
26.24 0 0
26.32 0 0
26.4 0 0
26.48 0 0
26.56 0 0
26.64 0 0
26.72 0 0
26.8 0 0
26.88 0 0
26.96 0 0
27.04 0 0
27.12 0 0
27.2 0 0
27.28 0 0
27.36 0 0
27.44 0 0
27.52 0 0
27.6 0 0
27.68 0 0
27.76 0 0
27.84 0 0
27.92 0 0
28 0 0
28.08 0 0
28.16 0 0
28.24 0 0
28.32 0 0
28.4 0 0
28.48 0 0
28.56 0 0
28.64 0 0
28.72 0 0
28.8 0 0
28.88 0 0
28.96 0 0
29.04 0 0
29.12 0 0
29.2 0 0
29.28 0 0
29.36 0 0
29.44 0 0
29.52 0 0
29.6 0 0
29.68 0 0
29.76 0 0
29.84 0 0
29.92 0 0
30 0 0
30.08 0 0
30.16 0 0
30.24 0 0
30.32 0 0
30.4 0 0
30.48 0 0
30.56 0 0
30.64 0 0
30.72 0 0
30.8 0 0
30.88 0 0
30.96 0 0
31.04 0 0
31.12 0 0
31.2 0 0
31.28 0 0
31.36 0 0
31.44 0 0
31.52 0 0
31.6 0 0
31.68 0 0
31.76 0 0
31.84 0 0
31.92 0 0
0 0.02 0
0.08 0.02 0
0.16 0.02 0
0.24 0.02 0
0.32 0.02 0
0.4 0.02 0
0.48 0.02 0
0.56 0.02 0
0.64 0.02 0
0.72 0.02 0
0.8 0.02 0
0.88 0.02 0
0.96 0.02 0
1.04 0.02 0
1.12 0.02 0
1.2 0.02 0
1.28 0.02 0
1.36 0.02 0
1.44 0.02 0
1.52 0.02 0
1.6 0.02 0
1.68 0.02 0
1.76 0.02 0
1.84 0.02 0
1.92 0.02 0
2 0.02 0
2.08 0.02 0
2.16 0.02 0
2.24 0.02 0
2.32 0.02 0
2.4 0.02 0
2.48 0.02 0
2.56 0.02 0
2.64 0.02 0
2.72 0.02 0
2.8 0.02 0
2.88 0.02 0
2.96 0.02 0
3.04 0.02 0
3.12 0.02 0
3.2 0.02 0
3.28 0.02 0
3.36 0.02 0
3.44 0.02 0
3.52 0.02 0
3.6 0.02 0
3.68 0.02 0
3.76 0.02 0
3.84 0.02 0
3.92 0.02 0
4 0.02 0
4.08 0.02 0
4.16 0.02 0
4.24 0.02 0
4.32 0.02 0
4.4 0.02 0
4.48 0.02 0
4.56 0.02 0
4.64 0.02 0
4.72 0.02 0
4.8 0.02 0
4.88 0.02 0
4.96 0.02 0
5.04 0.02 0
5.12 0.02 0
5.2 0.02 0
5.28 0.02 0
5.36 0.02 0
5.44 0.02 0
5.52 0.02 0
5.6 0.02 0
5.68 0.02 0
5.76 0.02 0
5.84 0.02 0
5.92 0.02 0
6 0.02 0
6.08 0.02 0
6.16 0.02 0
6.24 0.02 0
6.32 0.02 0
6.4 0.02 0
6.48 0.02 0
6.56 0.02 0
6.64 0.02 0
6.72 0.02 0
6.8 0.02 0
6.88 0.02 0
6.96 0.02 0
7.04 0.02 0
7.12 0.02 0
7.2 0.02 0
7.28 0.02 0
7.36 0.02 0
7.44 0.02 0
7.52 0.02 0
7.6 0.02 0
7.68 0.02 0
7.76 0.02 0
7.84 0.02 0
7.92 0.02 0
8 0.02 0
8.08 0.02 0
8.16 0.02 0
8.24 0.02 0
8.32 0.02 0
8.4 0.02 0
8.48 0.02 0
8.56 0.02 0
8.64 0.02 0
8.72 0.02 0
8.8 0.02 0
8.88 0.02 0
8.96 0.02 0
9.04 0.02 0
9.12 0.02 0
9.2 0.02 0
9.28 0.02 0
9.36 0.02 0
9.44 0.02 0
9.52 0.02 0
9.6 0.02 0
9.68 0.02 0
9.76 0.02 0
9.84 0.02 0
9.92 0.02 0
10 0.02 0
10.08 0.02 0
10.16 0.02 0
10.24 0.02 0
10.32 0.02 0
10.4 0.02 0
10.48 0.02 0
10.56 0.02 0
10.64 0.02 0
10.72 0.02 0
10.8 0.02 0
10.88 0.02 0
10.96 0.02 0
11.04 0.02 0
11.12 0.02 0
11.2 0.02 0
11.28 0.02 0
11.36 0.02 0
11.44 0.02 0
11.52 0.02 0
11.6 0.02 0
11.68 0.02 0
11.76 0.02 0
11.84 0.02 0
11.92 0.02 0
12 0.02 0
12.08 0.02 0
12.16 0.02 0
12.24 0.02 0
12.32 0.02 0
12.4 0.02 0
12.48 0.02 0
12.56 0.02 0
12.64 0.02 0
12.72 0.02 0
12.8 0.02 0
12.88 0.02 0
12.96 0.02 0
13.04 0.02 0
13.12 0.02 0
13.2 0.02 0
13.28 0.02 0
13.36 0.02 0
13.44 0.02 0
13.52 0.02 0
13.6 0.02 0
13.68 0.02 0
13.76 0.02 0
13.84 0.02 0
13.92 0.02 0
14 0.02 0
14.08 0.02 0
14.16 0.02 0
14.24 0.02 0
14.32 0.02 0
14.4 0.02 0
14.48 0.02 0
14.56 0.02 0
14.64 0.02 0
14.72 0.02 0
14.8 0.02 0
14.88 0.02 0
14.96 0.02 0
15.04 0.02 0
15.12 0.02 0
15.2 0.02 0
15.28 0.02 0
15.36 0.02 0
15.44 0.02 0
15.52 0.02 0
15.6 0.02 0
15.68 0.02 0
15.76 0.02 0
15.84 0.02 0
15.92 0.02 0
16 0.02 0
16.08 0.02 0
16.16 0.02 0
16.24 0.02 0
16.32 0.02 0
16.4 0.02 0
16.48 0.02 0
16.56 0.02 0
16.64 0.02 0
16.72 0.02 0
16.8 0.02 0
16.88 0.02 0
16.96 0.02 0
17.04 0.02 0
17.12 0.02 0
17.2 0.02 0
17.28 0.02 0
17.36 0.02 0
17.44 0.02 0
17.52 0.02 0
17.6 0.02 0
17.68 0.02 0
17.76 0.02 0
17.84 0.02 0
17.92 0.02 0
18 0.02 0
18.08 0.02 0
18.16 0.02 0
18.24 0.02 0
18.32 0.02 0
18.4 0.02 0
18.48 0.02 0
18.56 0.02 0
18.64 0.02 0
18.72 0.02 0
18.8 0.02 0
18.88 0.02 0
18.96 0.02 0
19.04 0.02 0
19.12 0.02 0
19.2 0.02 0
19.28 0.02 0
19.36 0.02 0
19.44 0.02 0
19.52 0.02 0
19.6 0.02 0
19.68 0.02 0
19.76 0.02 0
19.84 0.02 0
19.92 0.02 0
20 0.02 0
20.08 0.02 0
20.16 0.02 0
20.24 0.02 0
20.32 0.02 0
20.4 0.02 0
20.48 0.02 0
20.56 0.02 0
20.64 0.02 0
20.72 0.02 0
20.8 0.02 0
20.88 0.02 0
20.96 0.02 0
21.04 0.02 0
21.12 0.02 0
21.2 0.02 0
21.28 0.02 0
21.36 0.02 0
21.44 0.02 0
21.52 0.02 0
21.6 0.02 0
21.68 0.02 0
21.76 0.02 0
21.84 0.02 0
21.92 0.02 0
22 0.02 0
22.08 0.02 0
22.16 0.02 0
22.24 0.02 0
22.32 0.02 0
22.4 0.02 0
22.48 0.02 0
22.56 0.02 0
22.64 0.02 0
22.72 0.02 0
22.8 0.02 0
22.88 0.02 0
22.96 0.02 0
23.04 0.02 0
23.12 0.02 0
23.2 0.02 0
23.28 0.02 0
23.36 0.02 0
23.44 0.02 0
23.52 0.02 0
23.6 0.02 0
23.68 0.02 0
23.76 0.02 0
23.84 0.02 0
23.92 0.02 0
24 0.02 0
24.08 0.02 0
24.16 0.02 0
24.24 0.02 0
24.32 0.02 0
24.4 0.02 0
24.48 0.02 0
24.56 0.02 0
24.64 0.02 0
24.72 0.02 0
24.8 0.02 0
24.88 0.02 0
24.96 0.02 0
25.04 0.02 0
25.12 0.02 0
25.2 0.02 0
25.28 0.02 0
25.36 0.02 0
25.44 0.02 0
25.52 0.02 0
25.6 0.02 0
25.68 0.02 0
25.76 0.02 0
25.84 0.02 0
25.92 0.02 0
26 0.02 0
26.08 0.02 0
26.16 0.02 0
26.24 0.02 0
26.32 0.02 0
26.4 0.02 0
26.48 0.02 0
26.56 0.02 0
26.64 0.02 0
26.72 0.02 0
26.8 0.02 0
26.88 0.02 0
26.96 0.02 0
27.04 0.02 0
27.12 0.02 0
27.2 0.02 0
27.28 0.02 0
27.36 0.02 0
27.44 0.02 0
27.52 0.02 0
27.6 0.02 0
27.68 0.02 0
27.76 0.02 0
27.84 0.02 0
27.92 0.02 0
28 0.02 0
28.08 0.02 0
28.16 0.02 0
28.24 0.02 0
28.32 0.02 0
28.4 0.02 0
28.48 0.02 0
28.56 0.02 0
28.64 0.02 0
28.72 0.02 0
28.8 0.02 0
28.88 0.02 0
28.96 0.02 0
29.04 0.02 0
29.12 0.02 0
29.2 0.02 0
29.28 0.02 0
29.36 0.02 0
29.44 0.02 0
29.52 0.02 0
29.6 0.02 0
29.68 0.02 0
29.76 0.02 0
29.84 0.02 0
29.92 0.02 0
30 0.02 0
30.08 0.02 0
30.16 0.02 0
30.24 0.02 0
30.32 0.02 0
30.4 0.02 0
30.48 0.02 0
30.56 0.02 0
30.64 0.02 0
30.72 0.02 0
30.8 0.02 0
30.88 0.02 0
30.96 0.02 0
31.04 0.02 0
31.12 0.02 0
31.2 0.02 0
31.28 0.02 0
31.36 0.02 0
31.44 0.02 0
31.52 0.02 0
31.6 0.02 0
31.68 0.02 0
31.76 0.02 0
31.84 0.02 0
31.92 0.02 0
0 0.04 0
0.08 0.04 0
0.16 0.04 0
0.24 0.04 0
0.32 0.04 0
0.4 0.04 0
0.48 0.04 0
0.56 0.04 0
0.64 0.04 0
0.72 0.04 0
0.8 0.04 0
0.88 0.04 0
0.96 0.04 0
1.04 0.04 0
1.12 0.04 0
1.2 0.04 0
1.28 0.04 0
1.36 0.04 0
1.44 0.04 0
1.52 0.04 0
1.6 0.04 0
1.68 0.04 0
1.76 0.04 0
1.84 0.04 0
1.92 0.04 0
2 0.04 0
2.08 0.04 0
2.16 0.04 0
2.24 0.04 0
2.32 0.04 0
2.4 0.04 0
2.48 0.04 0
2.56 0.04 0
2.64 0.04 0
2.72 0.04 0
2.8 0.04 0
2.88 0.04 0
2.96 0.04 0
3.04 0.04 0
3.12 0.04 0
3.2 0.04 0
3.28 0.04 0
3.36 0.04 0
3.44 0.04 0
3.52 0.04 0
3.6 0.04 0
3.68 0.04 0
3.76 0.04 0
3.84 0.04 0
3.92 0.04 0
4 0.04 0
4.08 0.04 0
4.16 0.04 0
4.24 0.04 0
4.32 0.04 0
4.4 0.04 0
4.48 0.04 0
4.56 0.04 0
4.64 0.04 0
4.72 0.04 0
4.8 0.04 0
4.88 0.04 0
4.96 0.04 0
5.04 0.04 0
5.12 0.04 0
5.2 0.04 0
5.28 0.04 0
5.36 0.04 0
5.44 0.04 0
5.52 0.04 0
5.6 0.04 0
5.68 0.04 0
5.76 0.04 0
5.84 0.04 0
5.92 0.04 0
6 0.04 0
6.08 0.04 0
6.16 0.04 0
6.24 0.04 0
6.32 0.04 0
6.4 0.04 0
6.48 0.04 0
6.56 0.04 0
6.64 0.04 0
6.72 0.04 0
6.8 0.04 0
6.88 0.04 0
6.96 0.04 0
7.04 0.04 0
7.12 0.04 0
7.2 0.04 0
7.28 0.04 0
7.36 0.04 0
7.44 0.04 0
7.52 0.04 0
7.6 0.04 0
7.68 0.04 0
7.76 0.04 0
7.84 0.04 0
[...]
POINT_DATA 20000

SCALARS u float 1
LOOKUP_TABLE default
0
-0.507085
-0.291913
-0.214153
-0.179016
-0.158654
-0.145099
-0.135346
-0.127953
-0.122125
-0.117385
-0.113433
-0.110069
-0.107155
-0.104596
-0.102322
-0.100281
-0.0984358
-0.0967553
-0.0952161
-0.0937994
-0.0924897
-0.0912746
-0.0901432
-0.0890867
-0.0880975
-0.0871688
-0.0862951
-0.0854713
-0.0846931
-0.0839566
-0.0832584
-0.0825954
-0.0819649
-0.0813646
-0.0807921
-0.0802456
-0.0797233
-0.0792234
-0.0787446
-0.0782855
-0.0778449
-0.0774217
-0.0770148
-0.0766232
-0.0762462
-0.0758829
-0.0755325
-0.0751944
-0.0748679
-0.0745525
-0.0742476
-0.0739527
-0.0736673
-0.073391
-0.0731233
-0.0728639
-0.0726123
-0.0723684
-0.0721316
-0.0719018
-0.0716786
-0.0714618
-0.0712511
-0.0710463
-0.0708471
-0.0706534
-0.0704649
-0.0702815
-0.070103
-0.0699291
-0.0697599
-0.069595
-0.0694343
-0.0692778
-0.0691252
-0.0689765
-0.0688314
-0.06869
-0.068552
-0.0684175
-0.0682862
-0.0681581
-0.0680331
-0.0679111
-0.067792
-0.0676757
-0.0675621
-0.0674512
-0.067343
-0.0672372
-0.067134
-0.0670331
-0.0669346
-0.0668383
-0.0667443
-0.0666523
-0.0665625
-0.0664746
-0.0663888
-0.066305
-0.066223
-0.0661428
-0.0660645
-0.0659878
-0.0659128
-0.0658395
-0.0657678
-0.0656977
-0.0656292
-0.0655621
-0.0654966
-0.0654325
-0.0653697
-0.0653084
-0.0652483
-0.0651895
-0.065132
-0.0650757
-0.0650207
-0.0649669
-0.0649142
-0.0648627
-0.0648123
-0.0647629
-0.0647145
-0.0646671
-0.0646208
-0.0645756
-0.0645313
-0.064488
-0.0644456
-0.0644041
-0.0643635
-0.0643238
-0.0642848
-0.0642467
-0.0642094
-0.064173
-0.0641373
-0.0641025
-0.0640684
-0.064035
-0.0640023
-0.0639703
-0.0639389
-0.0639082
-0.0638782
-0.0638489
-0.0638203
-0.0637924
-0.063765
-0.0637383
-0.0637121
-0.0636864
-0.0636614
-0.063637
-0.0636132
-0.06359
-0.0635675
-0.0635455
-0.0635242
-0.0635034
-0.0634832
-0.0634634
-0.0634442
-0.0634257
-0.0634077
-0.0633906
-0.0633741
-0.0633582
-0.0633428
-0.063328
-0.0633135
-0.0632997
-0.0632864
-0.0632739
-0.0632621
-0.063251
-0.0632404
-0.0632303
-0.0632206
-0.0632113
-0.0632026
-0.0631944
-0.0631868
-0.06318
-0.0631736
-0.0631678
-0.0631623
-0.0631571
-0.0631523
-0.063148
-0.0631441
-0.0631407
-0.0631378
-0.0631353
-0.0631331
-0.0631313
-0.0631297
-0.0631284
-0.0631274
-0.0631267
-0.0631263
-0.0631262
-0.0631264
-0.0631269
-0.0631275
-0.0631283
-0.0631292
-0.0631304
-0.0631317
-0.0631332
-0.0631348
-0.0631366
-0.0631385
-0.0631405
-0.0631425
-0.0631447
-0.0631469
-0.0631492
-0.0631516
-0.063154
-0.0631565
-0.0631591
-0.0631617
-0.0631644
-0.063167
-0.0631697
-0.0631724
-0.0631751
-0.0631778
-0.0631805
-0.0631833
-0.0631861
-0.0631888
-0.0631916
-0.0631944
-0.0631972
-0.0632
-0.0632028
-0.0632056
-0.0632084
-0.0632112
-0.063214
-0.0632168
-0.0632196
-0.0632224
-0.0632252
-0.0632281
-0.0632309
-0.0632337
-0.0632365
-0.0632394
-0.0632422
-0.063245
-0.0632479
-0.0632507
-0.0632536
-0.0632564
-0.0632592
-0.0632621
-0.0632649
-0.0632678
-0.0632707
-0.0632735
-0.0632764
-0.0632792
-0.0632821
-0.063285
-0.0632878
-0.0632907
-0.0632936
-0.0632964
-0.0632993
-0.0633022
-0.0633051
-0.063308
-0.0633109
-0.0633137
-0.0633166
-0.0633195
-0.0633224
-0.0633253
-0.0633282
-0.0633311
-0.063334
-0.0633369
-0.0633398
-0.0633427
-0.0633456
-0.0633485
-0.0633514
-0.0633544
-0.0633573
-0.0633602
-0.0633631
-0.063366
-0.0633689
-0.0633719
-0.0633748
-0.0633777
-0.0633807
-0.0633836
-0.0633865
-0.0633894
-0.0633924
-0.0633953
-0.0633983
-0.0634012
-0.0634041
-0.0634071
-0.06341
-0.063413
-0.0634159
-0.0634189
-0.0634218
-0.0634248
-0.0634277
-0.0634307
-0.0634336
-0.0634366
-0.0634395
-0.0634425
-0.0634455
-0.0634484
-0.0634514
-0.0634544
-0.0634573
-0.0634603
-0.0634633
-0.0634662
-0.0634692
-0.0634722
-0.0634751
-0.0634781
-0.0634811
-0.0634841
-0.063487
-0.06349
-0.063493
-0.063496
-0.0634989
-0.0635019
-0.0635049
-0.0635079
-0.0635109
-0.0635139
-0.0635168
-0.0635198
-0.0635228
-0.0635258
-0.0635288
-0.0635318
-0.0635348
-0.0635378
-0.0635407
-0.0635437
-0.0635467
-0.0635497
-0.0635527
-0.0635557
-0.0635587
-0.0635617
-0.0635647
-0.0635677
-0.0635707
-0.0635737
-0.0635767
-0.0635797
-0.0635827
-0.0635857
-0.0635887
-0.0635917
-0.0635947
-0.0635977
-0.0636007
-0.0636038
-0.0636068
-0.0636098
-0.0636128
-0.0636159
-0.0636189
-0.063622
-0.063625
-0.0636281
-0.0636311
-0.0636343
-0.0636372
-0.0636405
-0.0636434
-0.0636467
-0.0636496
-0.0636528
-0.0636558
-0.0636585
-0.0636614
-0.0636608
-0.0636608
-0.0636608
1
0.507085
0.291913
0.214153
0.179016
0.158654
0.145099
0.135346
0.127953
0.122125
0.117385
0.113433
0.110069
0.107155
0.104596
0.102322
0.100281
0.0984358
0.0967553
0.0952161
0.0937994
0.0924897
0.0912746
0.0901432
0.0890867
0.0880975
0.0871688
0.0862951
0.0854713
0.0846931
0.0839566
0.0832584
0.0825954
0.0819649
0.0813646
0.0807921
0.0802456
0.0797233
0.0792234
0.0787446
0.0782855
0.0778449
0.0774217
0.0770148
0.0766232
0.0762462
0.0758829
0.0755325
0.0751944
0.0748679
0.0745525
0.0742476
0.0739527
0.0736673
0.073391
0.0731233
0.0728639
0.0726123
0.0723684
0.0721316
0.0719018
0.0716786
0.0714618
0.0712511
0.0710463
0.0708471
0.0706534
0.0704649
0.0702815
0.070103
0.0699291
0.0697599
0.069595
0.0694343
0.0692778
0.0691252
0.0689765
0.0688314
0.06869
0.068552
0.0684175
0.0682862
0.0681581
0.0680331
0.0679111
0.067792
0.0676757
0.0675621
0.0674512
0.067343
0.0672372
0.067134
0.0670331
0.0669346
0.0668383
0.0667443
0.0666523
0.0665625
0.0664746
0.0663888
0.066305
0.066223
0.0661428
0.0660645
0.0659878
0.0659128
0.0658395
0.0657678
0.0656977
0.0656292
0.0655621
0.0654966
0.0654325
0.0653697
0.0653084
0.0652483
0.0651895
0.065132
0.0650757
0.0650207
0.0649669
0.0649142
0.0648627
0.0648123
0.0647629
0.0647145
0.0646671
0.0646208
0.0645756
0.0645313
0.064488
0.0644456
0.0644041
0.0643635
0.0643238
0.0642848
0.0642467
0.0642094
0.064173
0.0641373
0.0641025
0.0640684
0.064035
0.0640023
0.0639703
0.0639389
0.0639082
0.0638782
0.0638489
0.0638203
0.0637924
0.063765
0.0637383
0.0637121
0.0636864
0.0636614
0.063637
0.0636132
0.06359
0.0635675
0.0635455
0.0635242
0.0635034
0.0634832
0.0634634
0.0634442
0.0634257
0.0634077
0.0633906
0.0633741
0.0633582
0.0633428
0.063328
0.0633135
0.0632997
0.0632864
0.0632739
0.0632621
0.063251
0.0632404
0.0632303
0.0632206
0.0632113
0.0632026
0.0631944
0.0631868
0.06318
0.0631736
0.0631678
0.0631623
0.0631571
0.0631523
0.063148
0.0631441
0.0631407
0.0631378
0.0631353
0.0631331
0.0631313
0.0631297
0.0631284
0.0631274
0.0631267
0.0631263
0.0631262
0.0631264
0.0631269
0.0631275
0.0631283
0.0631292
0.0631304
0.0631317
0.0631332
0.0631348
0.0631366
0.0631385
0.0631405
0.0631425
0.0631447
0.0631469
0.0631492
0.0631516
0.063154
0.0631565
0.0631591
0.0631617
0.0631644
0.063167
0.0631697
0.0631724
0.0631751
0.0631778
0.0631805
0.0631833
0.0631861
0.0631888
0.0631916
0.0631944
0.0631972
0.0632
0.0632028
0.0632056
0.0632084
0.0632112
0.063214
0.0632168
0.0632196
0.0632224
0.0632252
0.0632281
0.0632309
0.0632337
0.0632365
0.0632394
0.0632422
0.063245
0.0632479
0.0632507
0.0632536
0.0632564
0.0632592
0.0632621
0.0632649
0.0632678
0.0632707
0.0632735
0.0632764
0.0632792
0.0632821
0.063285
0.0632878
0.0632907
0.0632936
0.0632964
0.0632993
0.0633022
0.0633051
0.063308
0.0633109
0.0633137
0.0633166
0.0633195
0.0633224
0.0633253
0.0633282
0.0633311
0.063334
0.0633369
0.0633398
0.0633427
0.0633456
0.0633485
0.0633514
0.0633544
0.0633573
0.0633602
0.0633631
0.063366
0.0633689
0.0633719
0.0633748
0.0633777
0.0633807
0.0633836
0.0633865
0.0633894
0.0633924
0.0633953
0.0633983
0.0634012
0.0634041
0.0634071
0.06341
0.063413
0.0634159
0.0634189
0.0634218
0.0634248
0.0634277
0.0634307
0.0634336
0.0634366
0.0634395
0.0634425
0.0634455
0.0634484
0.0634514
0.0634544
0.0634573
0.0634603
0.0634633
0.0634662
0.0634692
0.0634722
0.0634751
0.0634781
0.0634811
0.0634841
0.063487
0.06349
0.063493
0.063496
0.0634989
0.0635019
0.0635049
0.0635079
0.0635109
0.0635139
0.0635168
0.0635198
0.0635228
0.0635258
0.0635288
0.0635318
0.0635348
0.0635378
0.0635407
0.0635437
0.0635467
0.0635497
0.0635527
0.0635557
0.0635587
0.0635617
0.0635647
0.0635677
0.0635707
0.0635737
0.0635767
0.0635797
0.0635827
0.0635857
0.0635887
0.0635917
0.0635947
0.0635977
0.0636007
0.0636038
0.0636068
0.0636098
0.0636128
0.0636159
0.0636189
0.063622
0.063625
0.0636281
0.0636311
0.0636343
0.0636372
0.0636405
0.0636434
0.0636467
0.0636496
0.0636528
0.0636558
0.0636585
0.0636614
0.0636608
0.0636608
0.0636608
1
0.92429
0.735435
0.597535
0.511638
0.45632
0.418157
0.39025
0.368916
0.35203
0.33828
0.326819
0.317077
0.308658
0.301281
0.294742
0.288889
0.283606
0.278804
0.274413
0.270378
0.266653
0.2632
0.259989
0.256993
0.254189
0.251559
0.249086
0.246756
0.244555
0.242474
0.240501
0.238629
0.236849
0.235155
0.233541
0.231999
0.230527
0.229118
0.227769
0.226476
0.225235
0.224043
0.222898
0.221796
0.220735
0.219713
0.218728
0.217778
0.21686
0.215974
0.215117
0.214289
0.213488
0.212712
0.21196
0.211232
0.210527
0.209842
0.209178
0.208534
0.207908
0.2073
0.20671
0.206136
0.205578
0.205036
0.204508
0.203994
0.203495
0.203008
0.202534
0.202073
0.201624
0.201186
0.200759
0.200344
0.199938
0.199543
0.199158
0.198782
0.198415
0.198057
0.197708
0.197368
0.197035
0.196711
0.196394
0.196085
0.195783
0.195488
0.1952
0.194919
0.194644
0.194376
0.194114
0.193858
0.193608
0.193363
0.193124
0.19289
0.192662
0.192439
0.192221
0.192008
0.191799
0.191595
0.191396
0.191201
0.19101
0.190824
0.190641
0.190463
0.190288
0.190118
0.189951
0.189787
0.189628
0.189471
0.189318
0.189169
0.189022
0.188879
0.188739
0.188602
0.188467
0.188336
0.188207
0.188082
0.187959
0.187838
0.187721
0.187605
0.187493
0.187382
0.187274
0.187168
0.187065
0.186964
0.186865
0.186768
0.186674
0.186581
0.18649
0.186401
0.186314
0.186229
0.186146
0.186065
0.185986
0.185909
0.185833
0.185759
0.185687
0.185616
0.185547
0.18548
0.185414
0.185351
0.185289
0.185229
0.18517
0.185113
0.185058
0.185004
0.184952
0.184902
0.184853
0.184807
0.184762
0.184719
0.184678
0.184638
0.184599
0.184562
0.184527
0.184494
0.184463
0.184433
0.184405
0.184379
0.184353
0.184329
0.184306
0.184286
0.184266
0.184249
0.184232
0.184217
0.184203
0.18419
0.184179
0.184168
0.184159
0.184151
0.184144
0.184138
0.184133
0.184129
0.184125
0.184123
0.184121
0.18412
0.18412
0.18412
0.184122
0.184124
0.184126
0.184129
0.184132
0.184136
0.18414
0.184144
0.184149
0.184155
0.18416
0.184166
0.184172
0.184178
0.184185
0.184191
0.184198
0.184205
0.184212
0.184219
0.184226
0.184234
0.184241
0.184248
0.184256
0.184263
0.184271
0.184278
0.184286
0.184294
0.184301
0.184309
0.184317
0.184324
0.184332
0.18434
0.184347
0.184355
0.184363
0.18437
0.184378
0.184386
0.184393
0.184401
0.184409
0.184417
0.184424
0.184432
0.18444
0.184447
0.184455
0.184463
0.184471
0.184479
0.184486
0.184494
0.184502
0.18451
0.184517
0.184525
0.184533
0.184541
0.184549
0.184556
0.184564
0.184572
0.18458
0.184588
0.184595
0.184603
0.184611
0.184619
0.184627
0.184635
0.184642
0.18465
0.184658
0.184666
0.184674
0.184682
0.18469
0.184697
0.184705
0.184713
0.184721
0.184729
0.184737
0.184745
0.184753
0.184761
0.184768
0.184776
0.184784
0.184792
0.1848
0.184808
0.184816
0.184824
0.184832
0.18484
0.184848
0.184856
0.184864
0.184871
0.184879
0.184887
0.184895
0.184903
0.184911
0.184919
0.184927
0.184935
0.184943
0.184951
0.184959
0.184967
0.184975
0.184983
0.184991
0.184999
0.185007
0.185015
0.185023
0.185031
0.185039
0.185047
0.185055
0.185063
0.185071
0.185079
0.185087
0.185095
0.185103
0.185111
0.185119
0.185127
0.185135
0.185143
0.185151
0.185159
0.185167
0.185175
0.185183
0.185191
0.185199
0.185207
0.185215
0.185223
0.185231
0.185239
0.185247
0.185255
0.185263
0.185271
0.185279
0.185287
0.185295
0.185303
0.185311
0.185319
0.185328
0.185336
0.185344
0.185352
0.18536
0.185368
0.185376
0.185384
0.185392
0.1854
0.185408
0.185416
0.185424
0.185432
0.18544
0.185448
0.185457
0.185465
0.185473
0.185481
0.185489
0.185497
0.185506
0.185514
0.185522
0.18553
0.185539
0.185547
0.185556
0.185564
0.185571
0.185579
0.185581
0.185581
0.185581
1
1.0797
0.997057
0.883632
0.788674
0.716885
0.663018
0.6218
0.589453
0.563437
0.542042
0.524098
0.508788
0.495529
0.4839
0.473586
0.464354
0.456022
0.448451
0.441531
0.435172
0.429304
0.423865
0.418808
0.41409
0.409677
0.405537
0.401644
0.397977
0.394514
0.391239
0.388135
0.38519
0.38239
0.379725
0.377185
0.374761
0.372445
0.370229
0.368108
0.366074
0.364124
0.36225
0.36045
0.358718
0.357051
0.355445
0.353897
0.352404
0.350962
0.34957
0.348225
0.346924
0.345666
0.344447
0.343268
0.342125
0.341017
0.339943
0.338901
0.33789
0.336908
0.335955
0.335029
0.334129
0.333254
0.332404
0.331577
0.330772
0.329989
0.329226
0.328484
0.327762
0.327058
0.326372
0.325704
0.325053
0.324419
0.3238
0.323197
0.322609
0.322035
0.321475
0.320929
0.320397
0.319877
0.319369
0.318874
0.318391
0.317919
0.317458
0.317008
0.316569
0.31614
0.315721
0.315311
0.314911
0.314521
0.314139
0.313766
0.313401
0.313045
0.312697
0.312356
0.312023
0.311698
0.31138
0.311069
0.310765
0.310468
0.310177
0.309893
0.309615
0.309343
0.309077
0.308817
0.308562
0.308313
0.308069
0.307831
0.307598
0.30737
0.307147
0.306928
0.306714
0.306505
0.306301
0.3061
0.305905
0.305713
0.305526
0.305342
0.305163
0.304987
0.304815
0.304647
0.304482
0.304321
0.304164
0.30401
0.303859
0.303712
0.303568
0.303426
0.303288
0.303153
0.303021
0.302892
0.302766
0.302643
0.302522
0.302405
0.30229
0.302178
0.302068
0.301961
0.301857
0.301756
0.301657
0.301562
0.301469
0.301378
0.30129
0.301205
0.301122
0.301042
0.300965
0.300891
0.30082
0.300751
0.300685
0.300622
0.300561
0.300502
0.300446
0.300393
0.300343
0.300295
0.300251
0.300208
0.300168
0.30013
0.300093
0.30006
0.300029
0.3
0.299974
0.29995
0.299927
0.299907
0.299888
0.29987
0.299855
0.299842
0.29983
0.29982
0.299812
0.299805
0.2998
0.299795
0.299792
0.29979
0.299789
0.29979
0.299791
0.299794
0.299797
0.299801
0.299806
0.299811
0.299817
0.299824
0.299831
0.299839
0.299848
0.299857
0.299866
0.299875
0.299885
0.299895
0.299905
0.299916
0.299926
0.299937
0.299948
0.29996
0.299971
0.299982
0.299994
0.300005
0.300017
0.300028
0.30004
0.300051
0.300063
0.300075
0.300086
0.300098
0.30011
0.300122
0.300133
0.300145
0.300157
0.300169
0.30018
0.300192
0.300204
0.300216
0.300227
0.300239
0.300251
0.300263
0.300275
0.300286
0.300298
0.30031
0.300322
0.300334
0.300346
0.300357
0.300369
0.300381
0.300393
0.300405
0.300417
0.300429
0.30044
0.300452
0.300464
0.300476
0.300488
0.3005
0.300512
0.300524
0.300536
0.300547
0.300559
0.300571
0.300583
0.300595
0.300607
0.300619
0.300631
0.300643
0.300655
0.300667
0.300679
0.300691
0.300703
0.300715
0.300727
0.300739
0.300751
0.300763
0.300775
0.300787
0.300799
0.300811
0.300823
0.300835
0.300847
0.300859
0.300871
0.300883
0.300895
0.300907
0.300919
0.300931
0.300943
0.300955
0.300967
0.300979
0.300991
0.301003
0.301015
0.301027
0.301039
0.301051
0.301063
0.301075
0.301087
0.301099
0.301111
0.301124
0.301136
0.301148
0.30116
0.301172
0.301184
0.301196
0.301208
0.30122
0.301232
0.301244
0.301256
0.301269
0.301281
0.301293
0.301305
0.301317
0.301329
0.301341
0.301353
0.301365
0.301377
0.30139
0.301402
0.301414
0.301426
0.301438
0.30145
0.301462
0.301474
0.301486
0.301499
0.301511
0.301523
0.301535
0.301547
0.301559
0.301571
0.301583
0.301595
0.301608
0.30162
0.301632
0.301644
0.301656
0.301668
0.30168
0.301693
0.301705
0.301717
0.301729
0.301741
0.301753
0.301765
0.301778
0.30179
0.301802
0.301814
0.301827
0.301839
0.301851
0.301863
0.301876
0.301888
0.301901
0.301913
0.301926
0.301938
0.301951
0.301963
0.301976
0.301988
0.301999
0.302011
0.302018
0.302018
0.302018
1
1.11178
1.11437
1.05555
0.984352
0.919008
0.86377
0.818182
0.780605
0.749377
0.723115
0.700742
0.681441
0.664593
0.649729
0.636491
0.624603
0.613848
0.604057
0.595093
0.586846
0.579226
0.572158
0.56558
0.559438
0.553689
0.548293
0.543217
0.538432
0.533911
0.529634
0.52558
0.52173
0.51807
0.514585
0.511263
0.508091
0.505061
0.502161
0.499384
0.496722
0.494168
0.491714
0.489356
0.487088
0.484904
0.482801
0.480773
0.478816
0.476928
0.475104
0.473341
0.471637
0.469988
0.468392
0.466846
0.465349
0.463898
0.46249
0.461125
0.459801
0.458515
0.457266
0.456054
0.454875
0.453729
0.452616
0.451532
0.450479
0.449454
0.448456
0.447485
0.446539
0.445618
0.444721
0.443847
0.442995
0.442165
0.441355
0.440566
0.439797
0.439047
0.438315
0.437602
0.436905
0.436226
0.435563
0.434916
0.434284
0.433668
0.433066
0.432478
0.431904
0.431344
0.430797
0.430263
0.42974
0.42923
0.428732
0.428245
0.42777
0.427305
0.42685
0.426406
0.425972
0.425548
0.425133
0.424728
0.424331
0.423944
0.423565
0.423195
0.422832
0.422478
0.422131
0.421792
0.42146
0.421136
0.420819
0.420508
0.420205
0.419907
0.419617
0.419332
0.419054
0.418782
0.418515
0.418255
0.418
0.41775
0.417506
0.417268
0.417034
0.416805
0.416582
0.416363
0.416148
0.415939
0.415734
0.415533
0.415337
0.415146
0.414958
0.414774
0.414594
0.414419
0.414247
0.414079
0.413915
0.413755
0.413599
0.413446
0.413297
0.413151
0.413009
0.41287
0.412735
0.412604
0.412476
0.412352
0.412231
0.412114
0.412001
0.41189
0.411783
0.41168
0.411581
0.411485
0.411393
0.411304
0.41122
0.411138
0.411059
0.410984
0.410912
0.410844
0.41078
0.41072
0.410662
0.410608
0.410556
0.410507
0.410462
0.410419
0.41038
0.410343
0.41031
0.410279
0.410251
0.410225
0.410201
0.410179
0.41016
0.410144
0.410129
0.410117
0.410107
0.410099
0.410092
0.410087
0.410083
0.410081
0.41008
0.410081
0.410083
0.410087
0.410092
0.410097
0.410103
0.410111
0.410119
0.410127
0.410137
0.410147
0.410158
0.41017
0.410181
0.410194
0.410206
0.410219
0.410232
0.410246
0.410259
0.410273
0.410287
0.410302
0.410316
0.410331
0.410345
0.41036
0.410374
0.410389
0.410404
0.410419
0.410434
0.410448
0.410463
0.410478
0.410493
0.410508
0.410523
0.410538
0.410553
0.410568
0.410583
0.410598
0.410612
0.410627
0.410642
0.410657
0.410672
0.410687
0.410702
0.410717
0.410732
0.410747
0.410762
0.410777
0.410792
0.410807
0.410822
0.410837
0.410852
0.410867
0.410882
0.410897
0.410912
0.410928
0.410943
0.410958
0.410973
0.410988
0.411003
0.411018
0.411033
0.411048
0.411063
0.411078
0.411093
0.411108
0.411124
0.411139
0.411154
0.411169
0.411184
0.411199
0.411214
0.411229
0.411244
0.41126
0.411275
0.41129
0.411305
0.41132
0.411335
0.41135
0.411366
0.411381
0.411396
0.411411
0.411426
0.411441
0.411457
0.411472
0.411487
0.411502
0.411517
0.411532
0.411548
0.411563
0.411578
0.411593
0.411608
0.411624
0.411639
0.411654
0.411669
0.411684
0.4117
0.411715
0.41173
0.411745
0.411761
0.411776
0.411791
0.411806
0.411821
0.411837
0.411852
0.411867
0.411882
0.411898
0.411913
0.411928
0.411943
0.411959
0.411974
0.411989
0.412004
0.412019
0.412035
0.41205
0.412065
0.41208
0.412096
0.412111
0.412126
0.412141
0.412157
0.412172
0.412187
0.412202
0.412218
0.412233
0.412248
0.412263
0.412279
0.412294
0.412309
0.412325
0.41234
0.412355
0.41237
0.412386
0.412401
0.412416
0.412431
0.412447
0.412462
0.412477
0.412492
0.412508
0.412523
0.412538
0.412554
0.412569
0.412584
0.4126
0.412615
0.41263
0.412645
0.412661
0.412676
0.412692
0.412707
0.412723
0.412738
0.412754
0.412769
0.412786
0.412801
0.412817
0.412832
0.412849
0.412863
0.412879
0.412893
0.412905
0.412905
0.412905
1
1.09593
1.14366
1.13401
1.09768
1.05332
1.00939
0.969188
0.93359
0.902461
0.875297
0.851517
0.830579
0.812016
0.795442
0.780541
0.767059
0.754789
0.743562
0.733241
0.723712
0.71488
0.706667
0.699005
0.691838
0.685115
0.678795
0.672841
0.667221
0.661905
0.656869
0.652091
0.64755
0.643228
0.63911
0.635182
0.631429
0.62784
0.624405
0.621114
0.617956
0.614926
0.612014
0.609214
0.60652
0.603925
0.601425
0.599014
0.596687
0.594441
0.592271
0.590174
0.588146
0.586183
0.584283
0.582443
0.58066
0.578932
0.577256
0.575631
0.574053
0.572521
0.571034
0.569589
0.568185
0.56682
0.565494
0.564203
0.562948
0.561727
0.560538
0.559381
0.558255
0.557158
0.556089
0.555048
0.554034
0.553045
0.552082
0.551142
0.550227
0.549333
0.548462
0.547613
0.546784
0.545975
0.545186
0.544416
0.543665
0.542931
0.542216
0.541517
0.540834
0.540168
0.539517
0.538882
0.538261
0.537655
0.537063
0.536484
0.535919
0.535366
0.534827
0.534299
0.533783
0.53328
0.532787
0.532306
0.531835
0.531375
0.530925
0.530485
0.530055
0.529635
0.529223
0.528821
0.528427
0.528042