# vtk DataFile Version 2.0
FlowField
ASCII
DATASET STRUCTURED_GRID
DIMENSIONS 400 1 50
POINTS 20000 float
0 0 0
0.08 0 0
0.16 0 0
0.24 0 0
0.32 0 0
0.4 0 0
0.48 0 0
0.56 0 0
0.64 0 0
0.72 0 0
0.8 0 0
0.88 0 0
0.96 0 0
1.04 0 0
1.12 0 0
1.2 0 0
1.28 0 0
1.36 0 0
1.44 0 0
1.52 0 0
1.6 0 0
1.68 0 0
1.76 0 0
1.84 0 0
1.92 0 0
2 0 0
2.08 0 0
2.16 0 0
2.24 0 0
2.32 0 0
2.4 0 0
2.48 0 0
2.56 0 0
2.64 0 0
2.72 0 0
2.8 0 0
2.88 0 0
2.96 0 0
3.04 0 0
3.12 0 0
3.2 0 0
3.28 0 0
3.36 0 0
3.44 0 0
3.52 0 0
3.6 0 0
3.68 0 0
3.76 0 0
3.84 0 0
3.92 0 0
4 0 0
4.08 0 0
4.16 0 0
4.24 0 0
4.32 0 0
4.4 0 0
4.48 0 0
4.56 0 0
4.64 0 0
4.72 0 0
4.8 0 0
4.88 0 0
4.96 0 0
5.04 0 0
5.12 0 0
5.2 0 0
5.28 0 0
5.36 0 0
5.44 0 0
5.52 0 0
5.6 0 0
5.68 0 0
5.76 0 0
5.84 0 0
5.92 0 0
6 0 0
6.08 0 0
6.16 0 0
6.24 0 0
6.32 0 0
6.4 0 0
6.48 0 0
6.56 0 0
6.64 0 0
6.72 0 0
6.8 0 0
6.88 0 0
6.96 0 0
7.04 0 0
7.12 0 0
7.2 0 0
7.28 0 0
7.36 0 0
7.44 0 0
7.52 0 0
7.6 0 0
7.68 0 0
7.76 0 0
7.84 0 0
7.92 0 0
8 0 0
8.08 0 0
8.16 0 0
8.24 0 0
8.32 0 0
8.4 0 0
8.48 0 0
8.56 0 0
8.64 0 0
8.72 0 0
8.8 0 0
8.88 0 0
8.96 0 0
9.04 0 0
9.12 0 0
9.2 0 0
9.28 0 0
9.36 0 0
9.44 0 0
9.52 0 0
9.6 0 0
9.68 0 0
9.76 0 0
9.84 0 0
9.92 0 0
10 0 0
10.08 0 0
10.16 0 0
10.24 0 0
10.32 0 0
10.4 0 0
10.48 0 0
10.56 0 0
10.64 0 0
10.72 0 0
10.8 0 0
10.88 0 0
10.96 0 0
11.04 0 0
11.12 0 0
11.2 0 0
11.28 0 0
11.36 0 0
11.44 0 0
11.52 0 0
11.6 0 0
11.68 0 0
11.76 0 0
11.84 0 0
11.92 0 0
12 0 0
12.08 0 0
12.16 0 0
12.24 0 0
12.32 0 0
12.4 0 0
12.48 0 0
12.56 0 0
12.64 0 0
12.72 0 0
12.8 0 0
12.88 0 0
12.96 0 0
13.04 0 0
13.12 0 0
13.2 0 0
13.28 0 0
13.36 0 0
13.44 0 0
13.52 0 0
13.6 0 0
13.68 0 0
13.76 0 0
13.84 0 0
13.92 0 0
14 0 0
14.08 0 0
14.16 0 0
14.24 0 0
14.32 0 0
14.4 0 0
14.48 0 0
14.56 0 0
14.64 0 0
14.72 0 0
14.8 0 0
14.88 0 0
14.96 0 0
15.04 0 0
15.12 0 0
15.2 0 0
15.28 0 0
15.36 0 0
15.44 0 0
15.52 0 0
15.6 0 0
15.68 0 0
15.76 0 0
15.84 0 0
15.92 0 0
16 0 0
16.08 0 0
16.16 0 0
16.24 0 0
16.32 0 0
16.4 0 0
16.48 0 0
16.56 0 0
16.64 0 0
16.72 0 0
16.8 0 0
16.88 0 0
16.96 0 0
17.04 0 0
17.12 0 0
17.2 0 0
17.28 0 0
17.36 0 0
17.44 0 0
17.52 0 0
17.6 0 0
17.68 0 0
17.76 0 0
17.84 0 0
17.92 0 0
18 0 0
18.08 0 0
18.16 0 0
18.24 0 0
18.32 0 0
18.4 0 0
18.48 0 0
18.56 0 0
18.64 0 0
18.72 0 0
18.8 0 0
18.88 0 0
18.96 0 0
19.04 0 0
19.12 0 0
19.2 0 0
19.28 0 0
19.36 0 0
19.44 0 0
19.52 0 0
19.6 0 0
19.68 0 0
19.76 0 0
19.84 0 0
19.92 0 0
20 0 0
20.08 0 0
20.16 0 0
20.24 0 0
20.32 0 0
20.4 0 0
20.48 0 0
20.56 0 0
20.64 0 0
20.72 0 0
20.8 0 0
20.88 0 0
20.96 0 0
21.04 0 0
21.12 0 0
21.2 0 0
21.28 0 0
21.36 0 0
21.44 0 0
21.52 0 0
21.6 0 0
21.68 0 0
21.76 0 0
21.84 0 0
21.92 0 0
22 0 0
22.08 0 0
22.16 0 0
22.24 0 0
22.32 0 0
22.4 0 0
22.48 0 0
22.56 0 0
22.64 0 0
22.72 0 0
22.8 0 0
22.88 0 0
22.96 0 0
23.04 0 0
23.12 0 0
23.2 0 0
23.28 0 0
23.36 0 0
23.44 0 0
23.52 0 0
23.6 0 0
23.68 0 0
23.76 0 0
23.84 0 0
23.92 0 0
24 0 0
24.08 0 0
24.16 0 0
24.24 0 0
24.32 0 0
24.4 0 0
24.48 0 0
24.56 0 0
24.64 0 0
24.72 0 0
24.8 0 0
24.88 0 0
24.96 0 0
25.04 0 0
25.12 0 0
25.2 0 0
25.28 0 0
25.36 0 0
25.44 0 0
25.52 0 0
25.6 0 0
25.68 0 0
25.76 0 0
25.84 0 0
25.92 0 0
26 0 0
26.08 0 0
26.16 0 0
26.24 0 0
26.32 0 0
26.4 0 0
26.48 0 0
26.56 0 0
26.64 0 0
26.72 0 0
26.8 0 0
26.88 0 0
26.96 0 0
27.04 0 0
27.12 0 0
27.2 0 0
27.28 0 0
27.36 0 0
27.44 0 0
27.52 0 0
27.6 0 0
27.68 0 0
27.76 0 0
27.84 0 0
27.92 0 0
28 0 0
28.08 0 0
28.16 0 0
28.24 0 0
28.32 0 0
28.4 0 0
28.48 0 0
28.56 0 0
28.64 0 0
28.72 0 0
28.8 0 0
28.88 0 0
28.96 0 0
29.04 0 0
29.12 0 0
29.2 0 0
29.28 0 0
29.36 0 0
29.44 0 0
29.52 0 0
29.6 0 0
29.68 0 0
29.76 0 0
29.84 0 0
29.92 0 0
30 0 0
30.08 0 0
30.16 0 0
30.24 0 0
30.32 0 0
30.4 0 0
30.48 0 0
30.56 0 0
30.64 0 0
30.72 0 0
30.8 0 0
30.88 0 0
30.96 0 0
31.04 0 0
31.12 0 0
31.2 0 0
31.28 0 0
31.36 0 0
31.44 0 0
31.52 0 0
31.6 0 0
31.68 0 0
31.76 0 0
31.84 0 0
31.92 0 0
0 0.02 0
0.08 0.02 0
0.16 0.02 0
0.24 0.02 0
0.32 0.02 0
0.4 0.02 0
0.48 0.02 0
0.56 0.02 0
0.64 0.02 0
0.72 0.02 0
0.8 0.02 0
0.88 0.02 0
0.96 0.02 0
1.04 0.02 0
1.12 0.02 0
1.2 0.02 0
1.28 0.02 0
1.36 0.02 0
1.44 0.02 0
1.52 0.02 0
1.6 0.02 0
1.68 0.02 0
1.76 0.02 0
1.84 0.02 0
1.92 0.02 0
2 0.02 0
2.08 0.02 0
2.16 0.02 0
2.24 0.02 0
2.32 0.02 0
2.4 0.02 0
2.48 0.02 0
2.56 0.02 0
2.64 0.02 0
2.72 0.02 0
2.8 0.02 0
2.88 0.02 0
2.96 0.02 0
3.04 0.02 0
3.12 0.02 0
3.2 0.02 0
3.28 0.02 0
3.36 0.02 0
3.44 0.02 0
3.52 0.02 0
3.6 0.02 0
3.68 0.02 0
3.76 0.02 0
3.84 0.02 0
3.92 0.02 0
4 0.02 0
4.08 0.02 0
4.16 0.02 0
4.24 0.02 0
4.32 0.02 0
4.4 0.02 0
4.48 0.02 0
4.56 0.02 0
4.64 0.02 0
4.72 0.02 0
4.8 0.02 0
4.88 0.02 0
4.96 0.02 0
5.04 0.02 0
5.12 0.02 0
5.2 0.02 0
5.28 0.02 0
5.36 0.02 0
5.44 0.02 0
5.52 0.02 0
5.6 0.02 0
5.68 0.02 0
5.76 0.02 0
5.84 0.02 0
5.92 0.02 0
6 0.02 0
6.08 0.02 0
6.16 0.02 0
6.24 0.02 0
6.32 0.02 0
6.4 0.02 0
6.48 0.02 0
6.56 0.02 0
6.64 0.02 0
6.72 0.02 0
6.8 0.02 0
6.88 0.02 0
6.96 0.02 0
7.04 0.02 0
7.12 0.02 0
7.2 0.02 0
7.28 0.02 0
7.36 0.02 0
7.44 0.02 0
7.52 0.02 0
7.6 0.02 0
7.68 0.02 0
7.76 0.02 0
7.84 0.02 0
7.92 0.02 0
8 0.02 0
8.08 0.02 0
8.16 0.02 0
8.24 0.02 0
8.32 0.02 0
8.4 0.02 0
8.48 0.02 0
8.56 0.02 0
8.64 0.02 0
8.72 0.02 0
8.8 0.02 0
8.88 0.02 0
8.96 0.02 0
9.04 0.02 0
9.12 0.02 0
9.2 0.02 0
9.28 0.02 0
9.36 0.02 0
9.44 0.02 0
9.52 0.02 0
9.6 0.02 0
9.68 0.02 0
9.76 0.02 0
9.84 0.02 0
9.92 0.02 0
10 0.02 0
10.08 0.02 0
10.16 0.02 0
10.24 0.02 0
10.32 0.02 0
10.4 0.02 0
10.48 0.02 0
10.56 0.02 0
10.64 0.02 0
10.72 0.02 0
10.8 0.02 0
10.88 0.02 0
10.96 0.02 0
11.04 0.02 0
11.12 0.02 0
11.2 0.02 0
11.28 0.02 0
11.36 0.02 0
11.44 0.02 0
11.52 0.02 0
11.6 0.02 0
11.68 0.02 0
11.76 0.02 0
11.84 0.02 0
11.92 0.02 0
12 0.02 0
12.08 0.02 0
12.16 0.02 0
12.24 0.02 0
12.32 0.02 0
12.4 0.02 0
12.48 0.02 0
12.56 0.02 0
12.64 0.02 0
12.72 0.02 0
12.8 0.02 0
12.88 0.02 0
12.96 0.02 0
13.04 0.02 0
13.12 0.02 0
13.2 0.02 0
13.28 0.02 0
13.36 0.02 0
13.44 0.02 0
13.52 0.02 0
13.6 0.02 0
13.68 0.02 0
13.76 0.02 0
13.84 0.02 0
13.92 0.02 0
14 0.02 0
14.08 0.02 0
14.16 0.02 0
14.24 0.02 0
14.32 0.02 0
14.4 0.02 0
14.48 0.02 0
14.56 0.02 0
14.64 0.02 0
14.72 0.02 0
14.8 0.02 0
14.88 0.02 0
14.96 0.02 0
15.04 0.02 0
15.12 0.02 0
15.2 0.02 0
15.28 0.02 0
15.36 0.02 0
15.44 0.02 0
15.52 0.02 0
15.6 0.02 0
15.68 0.02 0
15.76 0.02 0
15.84 0.02 0
15.92 0.02 0
16 0.02 0
16.08 0.02 0
16.16 0.02 0
16.24 0.02 0
16.32 0.02 0
16.4 0.02 0
16.48 0.02 0
16.56 0.02 0
16.64 0.02 0
16.72 0.02 0
16.8 0.02 0
16.88 0.02 0
16.96 0.02 0
17.04 0.02 0
17.12 0.02 0
17.2 0.02 0
17.28 0.02 0
17.36 0.02 0
17.44 0.02 0
17.52 0.02 0
17.6 0.02 0
17.68 0.02 0
17.76 0.02 0
17.84 0.02 0
17.92 0.02 0
18 0.02 0
18.08 0.02 0
18.16 0.02 0
18.24 0.02 0
18.32 0.02 0
18.4 0.02 0
18.48 0.02 0
18.56 0.02 0
18.64 0.02 0
18.72 0.02 0
18.8 0.02 0
18.88 0.02 0
18.96 0.02 0
19.04 0.02 0
19.12 0.02 0
19.2 0.02 0
19.28 0.02 0
19.36 0.02 0
19.44 0.02 0
19.52 0.02 0
19.6 0.02 0
19.68 0.02 0
19.76 0.02 0
19.84 0.02 0
19.92 0.02 0
20 0.02 0
20.08 0.02 0
20.16 0.02 0
20.24 0.02 0
20.32 0.02 0
20.4 0.02 0
20.48 0.02 0
20.56 0.02 0
20.64 0.02 0
20.72 0.02 0
20.8 0.02 0
20.88 0.02 0
20.96 0.02 0
21.04 0.02 0
21.12 0.02 0
21.2 0.02 0
21.28 0.02 0
21.36 0.02 0
21.44 0.02 0
21.52 0.02 0
21.6 0.02 0
21.68 0.02 0
21.76 0.02 0
21.84 0.02 0
21.92 0.02 0
22 0.02 0
22.08 0.02 0
22.16 0.02 0
22.24 0.02 0
22.32 0.02 0
22.4 0.02 0
22.48 0.02 0
22.56 0.02 0
22.64 0.02 0
22.72 0.02 0
22.8 0.02 0
22.88 0.02 0
22.96 0.02 0
23.04 0.02 0
23.12 0.02 0
23.2 0.02 0
23.28 0.02 0
23.36 0.02 0
23.44 0.02 0
23.52 0.02 0
23.6 0.02 0
23.68 0.02 0
23.76 0.02 0
23.84 0.02 0
23.92 0.02 0
24 0.02 0
24.08 0.02 0
24.16 0.02 0
24.24 0.02 0
24.32 0.02 0
24.4 0.02 0
24.48 0.02 0
24.56 0.02 0
24.64 0.02 0
24.72 0.02 0
24.8 0.02 0
24.88 0.02 0
24.96 0.02 0
25.04 0.02 0
25.12 0.02 0
25.2 0.02 0
25.28 0.02 0
25.36 0.02 0
25.44 0.02 0
25.52 0.02 0
25.6 0.02 0
25.68 0.02 0
25.76 0.02 0
25.84 0.02 0
25.92 0.02 0
26 0.02 0
26.08 0.02 0
26.16 0.02 0
26.24 0.02 0
26.32 0.02 0
26.4 0.02 0
26.48 0.02 0
26.56 0.02 0
26.64 0.02 0
26.72 0.02 0
26.8 0.02 0
26.88 0.02 0
26.96 0.02 0
27.04 0.02 0
27.12 0.02 0
27.2 0.02 0
27.28 0.02 0
27.36 0.02 0
27.44 0.02 0
27.52 0.02 0
27.6 0.02 0
27.68 0.02 0
27.76 0.02 0
27.84 0.02 0
27.92 0.02 0
28 0.02 0
28.08 0.02 0
28.16 0.02 0
28.24 0.02 0
28.32 0.02 0
28.4 0.02 0
28.48 0.02 0
28.56 0.02 0
28.64 0.02 0
28.72 0.02 0
28.8 0.02 0
28.88 0.02 0
28.96 0.02 0
29.04 0.02 0
29.12 0.02 0
29.2 0.02 0
29.28 0.02 0
29.36 0.02 0
29.44 0.02 0
29.52 0.02 0
29.6 0.02 0
29.68 0.02 0
29.76 0.02 0
29.84 0.02 0
29.92 0.02 0
30 0.02 0
30.08 0.02 0
30.16 0.02 0
30.24 0.02 0
30.32 0.02 0
30.4 0.02 0
30.48 0.02 0
30.56 0.02 0
30.64 0.02 0
30.72 0.02 0
30.8 0.02 0
30.88 0.02 0
30.96 0.02 0
31.04 0.02 0
31.12 0.02 0
31.2 0.02 0
31.28 0.02 0
31.36 0.02 0
31.44 0.02 0
31.52 0.02 0
31.6 0.02 0
31.68 0.02 0
31.76 0.02 0
31.84 0.02 0
31.92 0.02 0
0 0.04 0
0.08 0.04 0
0.16 0.04 0
0.24 0.04 0
0.32 0.04 0
0.4 0.04 0
0.48 0.04 0
0.56 0.04 0
0.64 0.04 0
0.72 0.04 0
0.8 0.04 0
0.88 0.04 0
0.96 0.04 0
1.04 0.04 0
1.12 0.04 0
1.2 0.04 0
1.28 0.04 0
1.36 0.04 0
1.44 0.04 0
1.52 0.04 0
1.6 0.04 0
1.68 0.04 0
1.76 0.04 0
1.84 0.04 0
1.92 0.04 0
2 0.04 0
2.08 0.04 0
2.16 0.04 0
2.24 0.04 0
2.32 0.04 0
2.4 0.04 0
2.48 0.04 0
2.56 0.04 0
2.64 0.04 0
2.72 0.04 0
2.8 0.04 0
2.88 0.04 0
2.96 0.04 0
3.04 0.04 0
3.12 0.04 0
3.2 0.04 0
3.28 0.04 0
3.36 0.04 0
3.44 0.04 0
3.52 0.04 0
3.6 0.04 0
3.68 0.04 0
3.76 0.04 0
3.84 0.04 0
3.92 0.04 0
4 0.04 0
4.08 0.04 0
4.16 0.04 0
4.24 0.04 0
4.32 0.04 0
4.4 0.04 0
4.48 0.04 0
4.56 0.04 0
4.64 0.04 0
4.72 0.04 0
4.8 0.04 0
4.88 0.04 0
4.96 0.04 0
5.04 0.04 0
5.12 0.04 0
5.2 0.04 0
5.28 0.04 0
5.36 0.04 0
5.44 0.04 0
5.52 0.04 0
5.6 0.04 0
5.68 0.04 0
5.76 0.04 0
5.84 0.04 0
5.92 0.04 0
6 0.04 0
6.08 0.04 0
6.16 0.04 0
6.24 0.04 0
6.32 0.04 0
6.4 0.04 0
6.48 0.04 0
6.56 0.04 0
6.64 0.04 0
6.72 0.04 0
6.8 0.04 0
6.88 0.04 0
6.96 0.04 0
7.04 0.04 0
7.12 0.04 0
7.2 0.04 0
7.28 0.04 0
7.36 0.04 0
7.44 0.04 0
7.52 0.04 0
7.6 0.04 0
7.68 0.04 0
7.76 0.04 0
7.84 0.04 0
[...]
POINT_DATA 20000

SCALARS v float 1
LOOKUP_TABLE default
0
0
0
0
0
0
0
0
0
0
0
0
0
0
0
0
0
0
0
0
0
0
0
0
0
0
0
0
0
0
0
0
0
0
0
0
0
0
0
0
0
0
0
0
0
0
0
0
0
0
0
0
0
0
0
0
0
0
0
0
0
0
0
0
0
0
0
0
0
0
0
0
0
0
0
0
0
0
0
0
0
0
0
0
0
0
0
0
0
0
0
0
0
0
0
0
0
0
0
0
0
0
0
0
0
0
0
0
0
0
0
0
0
0
0
0
0
0
0
0
0
0
0
0
0
0
0
0
0
0
0
0
0
0
0
0
0
0
0
0
0
0
0
0
0
0
0
0
0
0
0
0
0
0
0
0
0
0
0
0
0
0
0
0
0
0
0
0
0
0
0
0
0
0
0
0
0
0
0
0
0
0
0
0
0
0
0
0
0
0
0
0
0
0
0
0
0
0
0
0
0
0
0
0
0
0
0
0
0
0
0
0
0
0
0
0
0
0
0
0
0
0
0
0
0
0
0
0
0
0
0
0
0
0
0
0
0
0
0
0
0
0
0
0
0
0
0
0
0
0
0
0
0
0
0
0
0
0
0
0
0
0
0
0
0
0
0
0
0
0
0
0
0
0
0
0
0
0
0
0
0
0
0
0
0
0
0
0
0
0
0
0
0
0
0
0
0
0
0
0
0
0
0
0
0
0
0
0
0
0
0
0
0
0
0
0
0
0
0
0
0
0
0
0
0
0
0
0
0
0
0
0
0
0
0
0
0
0
0
0
0
0
0
0
0
0
0
0
0
0
0
0
0
0
0
0
0
0
0
0
0
0
0
0
0
0
0
0
0
0
0
0
0
0
0
0
0
0
0
0
0
0
0
0
0
0
0
0
0
0
0
0
0
0
0
0
0
0
0
0
-0.123192
0.123192
0.0537546
0.0194006
0.0087442
0.00505042
0.00334818
0.00239752
0.00180752
0.00141616
0.00114378
0.000946869
0.000799912
0.000687136
0.000598429
0.000527103
0.000468629
0.000419873
0.000378616
0.000343259
0.000312624
0.000285826
0.000262193
0.000241204
0.000222452
0.000205615
0.000190433
0.000176692
0.000164205
0.000152816
0.000142387
0.0001328
0.00012396
0.00011579
0.000108227
0.00010122
9.47226e-05
8.86879e-05
8.30695e-05
7.78206e-05
7.28986e-05
6.82695e-05
6.39111e-05
5.98111e-05
5.59613e-05
5.23502e-05
4.89596e-05
4.57647e-05
4.27387e-05
3.98579e-05
3.71042e-05
3.44668e-05
3.1943e-05
2.95383e-05
2.72631e-05
2.51252e-05
2.31205e-05
2.12281e-05
1.94155e-05
1.76524e-05
1.5926e-05
1.42469e-05
1.26417e-05
1.1136e-05
9.73918e-06
8.43982e-06
7.2122e-06
6.02768e-06
4.86314e-06
3.70429e-06
2.54664e-06
1.3976e-06
2.78548e-07
-7.78621e-07
-1.74424e-06
-2.6089e-06
-3.39538e-06
-4.15368e-06
-4.93792e-06
-5.77691e-06
-6.6565e-06
-7.52531e-06
-8.32153e-06
-9.00497e-06
-9.57644e-06
-1.00756e-05
-1.05615e-05
-1.10889e-05
-1.1691e-05
-1.23724e-05
-1.31095e-05
-1.38558e-05
-1.45522e-05
-1.5146e-05
-1.56163e-05
-1.59945e-05
-1.63647e-05
-1.68341e-05
-1.74806e-05
-1.83051e-05
-1.92161e-05
-2.00661e-05
-2.07245e-05
-2.11508e-05
-2.1425e-05
-2.17145e-05
-2.21893e-05
-2.29323e-05
-2.38916e-05
-2.4905e-05
-2.57813e-05
-2.63975e-05
-2.67582e-05
-2.69887e-05
-2.72659e-05
-2.77278e-05
-2.84075e-05
-2.92241e-05
-3.003e-05
-3.06876e-05
-3.11333e-05
-3.14007e-05
-3.15944e-05
-3.18346e-05
-3.22005e-05
-3.27004e-05
-3.32774e-05
-3.38441e-05
-3.43252e-05
-3.46883e-05
-3.49505e-05
-3.5162e-05
-3.5378e-05
-3.56332e-05
-3.59297e-05
-3.62409e-05
-3.65278e-05
-3.67576e-05
-3.69173e-05
-3.70175e-05
-3.70852e-05
-3.71526e-05
-3.72445e-05
-3.73705e-05
-3.75243e-05
-3.76876e-05
-3.78382e-05
-3.79567e-05
-3.80322e-05
-3.80638e-05
-3.80584e-05
-3.80279e-05
-3.79845e-05
-3.79382e-05
-3.78947e-05
-3.78556e-05
-3.78191e-05
-3.77822e-05
-3.77415e-05
-3.76946e-05
-3.76405e-05
-3.75798e-05
-3.75138e-05
-3.74444e-05
-3.73734e-05
-3.73022e-05
-3.72319e-05
-3.71628e-05
-3.70949e-05
-3.70279e-05
-3.69615e-05
-3.68953e-05
-3.68291e-05
-3.67627e-05
-3.6696e-05
-3.66291e-05
-3.65621e-05
-3.6495e-05
-3.6428e-05
-3.63611e-05
-3.62943e-05
-3.62277e-05
-3.61612e-05
-3.6095e-05
-3.60289e-05
-3.59629e-05
-3.58971e-05
-3.58314e-05
-3.57659e-05
-3.57005e-05
-3.56353e-05
-3.55702e-05
-3.55053e-05
-3.54405e-05
-3.5376e-05
-3.53116e-05
-3.52474e-05
-3.51834e-05
-3.51196e-05
-3.5056e-05
-3.49926e-05
-3.49294e-05
-3.48664e-05
-3.48036e-05
-3.47411e-05
-3.46788e-05
-3.46167e-05
-3.45548e-05
-3.44932e-05
-3.44318e-05
-3.43707e-05
-3.43099e-05
-3.42493e-05
-3.41889e-05
-3.41288e-05
-3.4069e-05
-3.40094e-05
-3.39502e-05
-3.38912e-05
-3.38324e-05
-3.3774e-05
-3.37159e-05
-3.3658e-05
-3.36005e-05
-3.35432e-05
-3.34862e-05
-3.34296e-05
-3.33733e-05
-3.33172e-05
-3.32615e-05
-3.32061e-05
-3.3151e-05
-3.30963e-05
-3.30419e-05
-3.29878e-05
-3.2934e-05
-3.28806e-05
-3.28275e-05
-3.27748e-05
-3.27224e-05
-3.26704e-05
-3.26187e-05
-3.25673e-05
-3.25163e-05
-3.24657e-05
-3.24154e-05
-3.23655e-05
-3.2316e-05
-3.22668e-05
-3.2218e-05
-3.21696e-05
-3.21215e-05
-3.20738e-05
-3.20265e-05
-3.19796e-05
-3.1933e-05
-3.18869e-05
-3.18411e-05
-3.17957e-05
-3.17507e-05
-3.17061e-05
-3.16619e-05
-3.16181e-05
-3.15746e-05
-3.15316e-05
-3.1489e-05
-3.14468e-05
-3.1405e-05
-3.13636e-05
-3.13226e-05
-3.1282e-05
-3.12418e-05
-3.1202e-05
-3.11627e-05
-3.11237e-05
-3.10852e-05
-3.10471e-05
-3.10094e-05
-3.09721e-05
-3.09353e-05
-3.08988e-05
-3.08628e-05
-3.08272e-05
-3.07921e-05
-3.07573e-05
-3.0723e-05
-3.06891e-05
-3.06557e-05
-3.06226e-05
-3.059e-05
-3.05579e-05
-3.05262e-05
-3.04949e-05
-3.0464e-05
-3.04336e-05
-3.04036e-05
-3.0374e-05
-3.03449e-05
-3.03162e-05
-3.0288e-05
-3.02602e-05
-3.02328e-05
-3.02059e-05
-3.01794e-05
-3.01533e-05
-3.01277e-05
-3.01026e-05
-3.00779e-05
-3.00536e-05
-3.00298e-05
-3.00064e-05
-2.99834e-05
-2.99609e-05
-2.99389e-05
-2.99173e-05
-2.98961e-05
-2.98754e-05
-2.98551e-05
-2.98353e-05
-2.98159e-05
-2.9797e-05
-2.97785e-05
-2.97605e-05
-2.97429e-05
-2.97258e-05
-2.97091e-05
-2.96928e-05
-2.96771e-05
-2.96617e-05
-2.96468e-05
-2.96324e-05
-2.96184e-05
-2.96048e-05
-2.95918e-05
-2.95791e-05
-2.9567e-05
-2.95551e-05
-2.9544e-05
-2.9533e-05
-2.95228e-05
-2.95126e-05
-2.95034e-05
-2.9494e-05
-2.94858e-05
-2.94772e-05
-2.94701e-05
-2.94622e-05
-2.94562e-05
-2.9449e-05
-2.94441e-05
-2.94375e-05
-2.94339e-05
-2.94278e-05
-2.94256e-05
-2.94198e-05
-2.94192e-05
-2.94135e-05
-2.94148e-05
-2.94089e-05
-2.94124e-05
-2.94059e-05
-2.9412e-05
-2.94045e-05
-2.94139e-05
-2.94047e-05
-2.9418e-05
-2.94063e-05
-2.94246e-05
-2.94092e-05
-2.94339e-05
-2.94133e-05
-2.94463e-05
-2.94183e-05
-2.94623e-05
-2.94237e-05
-2.94827e-05
-2.94288e-05
-2.95086e-05
-2.94331e-05
-2.95411e-05
-2.94358e-05
-2.95815e-05
-2.94364e-05
-2.96305e-05
-2.94354e-05
-2.96881e-05
-2.94333e-05
-2.97535e-05
-2.94296e-05
-2.98278e-05
-2.94149e-05
-2.99189e-05
-2.93564e-05
-3.00343e-05
-2.91826e-05
-3.00314e-05
-2.88509e-05
-2.75022e-05
-2.69625e-05
-2.69625e-05
-0.14212
0.14212
0.100965
0.0538716
0.030214
0.018875
0.0128836
0.00936837
0.00713488
0.00563148
0.00457455
0.00380514
0.00322828
0.00278444
0.00243499
0.00215409
0.00192409
0.00173264
0.00157097
0.00143272
0.00131318
0.00120883
0.00111697
0.00103553
0.000962889
0.000897751
0.000839072
0.000785991
0.000737778
0.000693815
0.000653572
0.000616607
0.000582552
0.000551106
0.00052202
0.000495079
0.000470091
0.000446868
0.00042523
0.000405005
0.000386041
0.00036822
0.000351456
0.000335692
0.000320881
0.000306963
0.000293863
0.00028149
0.000269758
0.000258589
0.00024793
0.000237748
0.000228034
0.000218797
0.000210056
0.000201814
0.000194038
0.000186649
0.000179551
0.000172663
0.000165966
0.000159499
0.000153337
0.000147536
0.000142103
0.000136985
0.000132099
0.00012736
0.000122709
0.000118115
0.000113578
0.000109131
0.000104844
0.000100801
9.70674e-05
9.36369e-05
9.04176e-05
8.7259e-05
8.4025e-05
8.06687e-05
7.72643e-05
7.39705e-05
7.09472e-05
6.82718e-05
6.59007e-05
6.36932e-05
6.14749e-05
5.91043e-05
5.65142e-05
5.3723e-05
5.08246e-05
4.79646e-05
4.53021e-05
4.29515e-05
4.09177e-05
3.90584e-05
3.71106e-05
3.4795e-05
3.19603e-05
2.86912e-05
2.53045e-05
2.22127e-05
1.97129e-05
1.78128e-05
1.62004e-05
1.43878e-05
1.19616e-05
8.80758e-06
5.18292e-06
1.59352e-06
-1.46089e-06
-3.73733e-06
-5.36335e-06
-6.75815e-06
-8.40918e-06
-1.06262e-05
-1.33992e-05
-1.64242e-05
-1.92726e-05
-2.16058e-05
-2.33284e-05
-2.46089e-05
-2.57749e-05
-2.71454e-05
-2.88873e-05
-3.09603e-05
-3.31629e-05
-3.52434e-05
-3.70172e-05
-3.84352e-05
-3.95815e-05
-4.06123e-05
-4.16743e-05
-4.28408e-05
-4.40907e-05
-4.53333e-05
-4.64586e-05
-4.73893e-05
-4.81113e-05
-4.86733e-05
-4.91624e-05
-4.96668e-05
-5.02445e-05
-5.09067e-05
-5.16204e-05
-5.23253e-05
-5.29568e-05
-5.34664e-05
-5.3833e-05
-5.4064e-05
-5.41883e-05
-5.42439e-05
-5.42674e-05
-5.42853e-05
-5.43113e-05
-5.43466e-05
-5.43848e-05
-5.44158e-05
-5.44307e-05
-5.44238e-05
-5.43942e-05
-5.43445e-05
-5.428e-05
-5.42068e-05
-5.41301e-05
-5.40542e-05
-5.39812e-05
-5.39121e-05
-5.38463e-05
-5.3783e-05
-5.3721e-05
-5.36592e-05
-5.35969e-05
-5.35337e-05
-5.34695e-05
-5.34046e-05
-5.33391e-05
-5.32734e-05
-5.32076e-05
-5.3142e-05
-5.30766e-05
-5.30115e-05
-5.29467e-05
-5.28821e-05
-5.28178e-05
-5.27536e-05
-5.26895e-05
-5.26256e-05
-5.25618e-05
-5.24981e-05
-5.24346e-05
-5.23711e-05
-5.23079e-05
-5.22447e-05
-5.21818e-05
-5.2119e-05
-5.20564e-05
-5.19939e-05
-5.19317e-05
-5.18697e-05
-5.18078e-05
-5.17462e-05
-5.16848e-05
-5.16236e-05
-5.15626e-05
-5.15018e-05
-5.14412e-05
-5.13809e-05
-5.13208e-05
-5.1261e-05
-5.12014e-05
-5.1142e-05
-5.10829e-05
-5.1024e-05
-5.09654e-05
-5.09071e-05
-5.0849e-05
-5.07912e-05
-5.07336e-05
-5.06764e-05
-5.06194e-05
-5.05627e-05
-5.05063e-05
-5.04502e-05
-5.03944e-05
-5.03389e-05
-5.02837e-05
-5.02288e-05
-5.01742e-05
-5.01199e-05
-5.00659e-05
-5.00123e-05
-4.9959e-05
-4.9906e-05
-4.98533e-05
-4.9801e-05
-4.9749e-05
-4.96974e-05
-4.96461e-05
-4.95951e-05
-4.95445e-05
-4.94942e-05
-4.94443e-05
-4.93947e-05
-4.93455e-05
-4.92967e-05
-4.92482e-05
-4.92001e-05
-4.91524e-05
-4.9105e-05
-4.9058e-05
-4.90114e-05
-4.89652e-05
-4.89193e-05
-4.88739e-05
-4.88288e-05
-4.87841e-05
-4.87398e-05
-4.86959e-05
-4.86524e-05
-4.86092e-05
-4.85665e-05
-4.85242e-05
-4.84823e-05
-4.84408e-05
-4.83997e-05
-4.8359e-05
-4.83187e-05
-4.82788e-05
-4.82394e-05
-4.82003e-05
-4.81617e-05
-4.81235e-05
-4.80857e-05
-4.80483e-05
-4.80114e-05
-4.79749e-05
-4.79388e-05
-4.79031e-05
-4.78679e-05
-4.78331e-05
-4.77987e-05
-4.77648e-05
-4.77313e-05
-4.76983e-05
-4.76656e-05
-4.76334e-05
-4.76017e-05
-4.75704e-05
-4.75395e-05
-4.75091e-05
-4.74791e-05
-4.74496e-05
-4.74205e-05
-4.73919e-05
-4.73637e-05
-4.7336e-05
-4.73087e-05
-4.72818e-05
-4.72554e-05
-4.72295e-05
-4.7204e-05
-4.7179e-05
-4.71544e-05
-4.71303e-05
-4.71066e-05
-4.70834e-05
-4.70607e-05
-4.70384e-05
-4.70165e-05
-4.69952e-05
-4.69743e-05
-4.69538e-05
-4.69338e-05
-4.69143e-05
-4.68952e-05
-4.68766e-05
-4.68584e-05
-4.68407e-05
-4.68235e-05
-4.68068e-05
-4.67905e-05
-4.67746e-05
-4.67593e-05
-4.67444e-05
-4.673e-05
-4.67159e-05
-4.67025e-05
-4.66894e-05
-4.66769e-05
-4.66647e-05
-4.66532e-05
-4.66419e-05
-4.66314e-05
-4.66209e-05
-4.66115e-05
-4.66017e-05
-4.65934e-05
-4.65845e-05
-4.65773e-05
-4.6569e-05
-4.6563e-05
-4.65554e-05
-4.65507e-05
-4.65436e-05
-4.65403e-05
-4.65337e-05
-4.6532e-05
-4.65255e-05
-4.65256e-05
-4.65191e-05
-4.65213e-05
-4.65143e-05
-4.65191e-05
-4.65113e-05
-4.65192e-05
-4.65098e-05
-4.65217e-05
-4.65097e-05
-4.65268e-05
-4.6511e-05
-4.65347e-05
-4.65135e-05
-4.65457e-05
-4.65171e-05
-4.65601e-05
-4.65215e-05
-4.65786e-05
-4.65263e-05
-4.66018e-05
-4.6531e-05
-4.66311e-05
-4.65347e-05
-4.66682e-05
-4.65359e-05
-4.67158e-05
-4.65328e-05
-4.67773e-05
-4.6523e-05
-4.68565e-05
-4.65044e-05
-4.69574e-05
-4.64761e-05
-4.70824e-05
-4.64391e-05
-4.72317e-05
-4.63962e-05
-4.74039e-05
-4.63445e-05
-4.76032e-05
-4.62544e-05
-4.78554e-05
-4.60208e-05
-4.81901e-05
-4.54194e-05
-4.82014e-05
-4.42983e-05
-4.17771e-05
-3.98766e-05
-3.98766e-05
-0.122197
0.122197
0.121623
0.0822256
0.0539516
0.0368197
0.0263478
0.0196699
0.0152182
0.0121319
0.0099193
0.00828673
0.007051
0.00609392
0.00533699
0.00472684
0.00422644
0.00380965
0.00345765
0.00315671
0.00289662
0.00266969
0.00247007
0.0022932
0.00213552
0.00199421
0.00186694
0.00175183
0.00164729
0.00155195
0.0014647
0.00138458
0.0013108
0.0012427
0.00117973
0.00112141
0.00106731
0.00101701
0.000970128
0.000926301
0.000885216
0.000846623
0.000810335
0.000776215
0.000744139
0.000713965
0.000685527
0.000658644
0.000633142
0.000608879
0.000585752
0.000563695
0.000542686
0.000522727
0.000503832
0.000485982
0.000469091
0.000453005
0.000437545
0.000422578
0.000408078
0.000394121
0.000380831
0.000368289
0.000356479
0.000345289
0.000334563
0.000324153
0.000313962
0.000303946
0.000294118
0.000284547
0.000275356
0.000266684
0.000258618
0.000251117
0.000243994
0.000236981
0.000229858
0.000222575
0.000215292
0.000208293
0.000201838
0.000196021
0.000190725
0.000185675
0.000180564
0.000175162
0.000169382
0.000163288
0.000157067
0.00015098
0.000145288
0.000140147
0.000135512
0.000131086
0.000126395
0.000120983
0.000114658
0.00010765
0.000100558
9.40897e-05
8.86859e-05
8.42592e-05
8.01924e-05
7.56332e-05
6.99384e-05
6.30297e-05
5.54612e-05
4.81522e-05
4.19254e-05
3.70968e-05
3.3333e-05
2.98443e-05
2.58008e-05
2.07463e-05
1.48008e-05
8.56365e-06
2.78793e-06
-1.99231e-06
-5.69589e-06
-8.68911e-06
-1.15699e-05
-1.48681e-05
-1.88138e-05
-2.32714e-05
-2.78488e-05
-3.2105e-05
-3.57482e-05
-3.87372e-05
-4.12546e-05
-4.35875e-05
-4.59816e-05
-4.85395e-05
-5.11992e-05
-5.37882e-05
-5.61181e-05
-5.80714e-05
-5.96466e-05
-6.09481e-05
-6.21356e-05
-6.33585e-05
-6.47029e-05
-6.61699e-05
-6.76858e-05
-6.9137e-05
-7.04114e-05
-7.14323e-05
-7.21755e-05
-7.26668e-05
-7.29667e-05
-7.3148e-05
-7.32764e-05
-7.33968e-05
-7.35297e-05
-7.36744e-05
-7.38172e-05
-7.39398e-05
-7.40271e-05
-7.40711e-05
-7.40719e-05
-7.40363e-05
-7.39749e-05
-7.38991e-05
-7.38189e-05
-7.37411e-05
-7.36695e-05
-7.36051e-05
-7.35469e-05
-7.34927e-05
-7.34404e-05
-7.3388e-05
-7.33345e-05
-7.32791e-05
-7.32219e-05
-7.31632e-05
-7.31034e-05
-7.30432e-05
-7.2983e-05
-7.29229e-05
-7.28633e-05
-7.28041e-05
-7.27453e-05
-7.26869e-05
-7.26288e-05
-7.25708e-05
-7.2513e-05
-7.24553e-05
-7.23976e-05
-7.23401e-05
-7.22826e-05
-7.22253e-05
-7.2168e-05
-7.2111e-05
-7.2054e-05
-7.19973e-05
-7.19407e-05
-7.18843e-05
-7.18281e-05
-7.1772e-05
-7.17162e-05
-7.16605e-05
-7.16051e-05
-7.15498e-05
-7.14948e-05
-7.14399e-05
-7.13853e-05
-7.13309e-05
-7.12767e-05
-7.12227e-05
-7.1169e-05
-7.11155e-05
-7.10623e-05
-7.10092e-05
-7.09565e-05
-7.09039e-05
-7.08517e-05
-7.07997e-05
-7.07479e-05
-7.06964e-05
-7.06452e-05
-7.05943e-05
-7.05436e-05
-7.04932e-05
-7.04431e-05
-7.03933e-05
-7.03438e-05
-7.02946e-05
-7.02456e-05
-7.0197e-05
-7.01486e-05
-7.01006e-05
-7.00529e-05
-7.00055e-05
-6.99584e-05
-6.99116e-05
-6.98652e-05
-6.9819e-05
-6.97732e-05
-6.97278e-05
-6.96826e-05
-6.96378e-05
-6.95933e-05
-6.95492e-05
-6.95054e-05
-6.9462e-05
-6.94189e-05
-6.93762e-05
-6.93338e-05
-6.92918e-05
-6.92501e-05
-6.92088e-05
-6.91678e-05
-6.91272e-05
-6.9087e-05
-6.90472e-05
-6.90077e-05
-6.89686e-05
-6.89299e-05
-6.88915e-05
-6.88536e-05
-6.8816e-05
-6.87788e-05
-6.87419e-05
-6.87055e-05
-6.86695e-05
-6.86338e-05
-6.85986e-05
-6.85637e-05
-6.85292e-05
-6.84952e-05
-6.84615e-05
-6.84282e-05
-6.83953e-05
-6.83629e-05
-6.83308e-05
-6.82992e-05
-6.82679e-05
-6.82371e-05
-6.82066e-05
-6.81766e-05
-6.8147e-05
-6.81178e-05
-6.80891e-05
-6.80607e-05
-6.80328e-05
-6.80052e-05
-6.79781e-05
-6.79515e-05
-6.79252e-05
-6.78994e-05
-6.7874e-05
-6.7849e-05
-6.78244e-05
-6.78003e-05
-6.77766e-05
-6.77533e-05
-6.77304e-05
-6.7708e-05
-6.7686e-05
-6.76645e-05
-6.76434e-05
-6.76227e-05
-6.76024e-05
-6.75826e-05
-6.75632e-05
-6.75442e-05
-6.75257e-05
-6.75076e-05
-6.749e-05
-6.74727e-05
-6.7456e-05
-6.74396e-05
-6.74237e-05
-6.74082e-05
-6.73932e-05
-6.73786e-05
-6.73645e-05
-6.73508e-05
-6.73376e-05
-6.73247e-05
-6.73123e-05
-6.73003e-05
-6.72889e-05
-6.72777e-05
-6.72672e-05
-6.72569e-05
-6.72473e-05
-6.72378e-05
-6.72292e-05
-6.72205e-05
-6.72129e-05
-6.72049e-05
-6.71983e-05
-6.71911e-05
-6.71856e-05
-6.7179e-05
-6.71747e-05
-6.71686e-05
-6.71655e-05
-6.71599e-05
-6.71583e-05
-6.7153e-05
-6.71529e-05
-6.71476e-05
-6.71494e-05
-6.7144e-05
-6.71479e-05
-6.71419e-05
-6.71484e-05
-6.71413e-05
-6.71511e-05
-6.71422e-05
-6.7156e-05
-6.71444e-05
-6.71635e-05
-6.71477e-05
-6.71738e-05
-6.7152e-05
-6.71873e-05
-6.7157e-05
-6.72043e-05
-6.71625e-05
-6.72255e-05
-6.71681e-05
-6.72515e-05
-6.71734e-05
-6.72835e-05
-6.71777e-05
-6.7323e-05
-6.71799e-05
-6.73725e-05
-6.71781e-05
-6.74358e-05
-6.71695e-05
-6.75179e-05
-6.71503e-05
-6.76255e-05
-6.71164e-05
-6.7766e-05
-6.7064e-05
-6.79467e-05
-6.69918e-05
-6.81722e-05
-6.69023e-05
-6.84438e-05
-6.67995e-05
-6.87618e-05
-6.66749e-05
-6.91411e-05
-6.64646e-05
-6.96423e-05
-6.59637e-05
-7.03305e-05
-6.47707e-05
-7.04749e-05
-6.26594e-05
-6.08989e-05
-5.52732e-05
-5.52732e-05
-0.094253
0.094253
0.120976
0.096927
0.0717503
0.0531541
0.0401559
0.0310653
0.0246104
0.0199367
0.0164825
0.0138771
0.0118731
0.0103023
0.00904895
0.00803203
0.00719406
0.0064937
0.00590077
0.00539295
0.0049535
0.00456973
0.0042319
0.00393242
0.00366533
0.00342585
0.00321009
0.00301485
0.00283743
0.00267558
0.00252739
0.00239127
0.00226591
0.0021502
0.0020432
0.00194409
0.0018521
0.00176655
0.00168677
0.00161217
0.00154224
0.00147656
0.00141481
0.00135674
0.00130211
0.00125067
0.00120214
0.00115623
0.00111267
0.00107123
0.00103177
0.000994169
0.000958388
0.00092441
0.000892228
0.000861784
0.000832927
0.000805414
0.000778976
0.000753424
0.000728722
0.000704985
0.000682376
0.000660993
0.000640784
0.000621569
0.000603108
0.000585194
0.000567694
0.00055056
0.000533818
0.000517576
0.000502008
0.000487299
0.00047355
0.000460674
0.000448379
0.000436272
0.000424049
0.000411666
0.000399375
0.000387589
0.00037666
0.000366687
0.000357457
0.000348551
0.000339522
0.000330061
0.000320072
0.000309679
0.000299169
0.000288915
0.000279269
0.000270416
0.00026224
0.000254276
0.000245831
0.000236278
0.000225404
0.000213603
0.000201782
0.000190942
0.000181657
0.000173716
0.000166171
0.000157798
0.000147742
0.000136
0.000123465
0.000111499
0.000101245
9.30599e-05
8.63627e-05
7.99592e-05
7.26682e-05
6.39072e-05
5.39429e-05
4.37038e-05
3.42815e-05
2.63941e-05
2.00786e-05
1.47383e-05
9.48574e-06
3.58202e-06
-3.24432e-06
-1.0733e-05
-1.82768e-05
-2.5235e-05
-3.12154e-05
-3.62012e-05
-4.04929e-05
-4.45207e-05
-4.86321e-05
-5.29533e-05
-5.73718e-05
-6.16269e-05
-6.54509e-05
-6.86924e-05
-7.13714e-05
-7.36565e-05
-7.57845e-05
-7.79634e-05
-8.03007e-05
-8.27773e-05
-8.52705e-05
-8.76081e-05
-8.96304e-05
-9.12372e-05
-9.24082e-05
-9.31962e-05
-9.37008e-05
-9.40344e-05
-9.4294e-05
-9.45431e-05
-9.48079e-05
-9.50839e-05
-9.53485e-05
-9.55746e-05
-9.5741e-05
-9.58382e-05
-9.58688e-05
-9.58449e-05
-9.57838e-05
-9.5703e-05
-9.56174e-05
-9.5537e-05
-9.54667e-05
-9.54075e-05
-9.53574e-05
-9.5313e-05
-9.52709e-05
-9.52284e-05
-9.51836e-05
-9.5136e-05
-9.50854e-05
-9.50326e-05
-9.49783e-05
-9.49232e-05
-9.48682e-05
-9.48135e-05
-9.47594e-05
-9.47059e-05
-9.4653e-05
-9.46006e-05
-9.45485e-05
-9.44966e-05
-9.44449e-05
-9.43932e-05
-9.43416e-05
-9.429e-05
-9.42385e-05
-9.41871e-05
-9.41358e-05
-9.40846e-05
-9.40336e-05
-9.39827e-05
-9.3932e-05
-9.38815e-05
-9.38311e-05
-9.37809e-05
-9.3731e-05
-9.36812e-05
-9.36316e-05
-9.35822e-05
-9.35329e-05
-9.34839e-05
-9.34351e-05
-9.33865e-05
-9.33381e-05
-9.329e-05
-9.3242e-05
-9.31943e-05
-9.31468e-05
-9.30996e-05
-9.30525e-05
-9.30058e-05
-9.29592e-05
-9.29129e-05
-9.28669e-05
-9.28211e-05
-9.27756e-05
-9.27303e-05
-9.26853e-05
-9.26406e-05
-9.25961e-05
-9.2552e-05
-9.25081e-05
-9.24644e-05
-9.24211e-05
-9.2378e-05
-9.23353e-05
-9.22928e-05
-9.22506e-05
-9.22088e-05
-9.21672e-05
-9.21259e-05
-9.2085e-05
-9.20443e-05
-9.2004e-05
-9.1964e-05
-9.19243e-05
-9.18849e-05
-9.18458e-05
-9.18071e-05
-9.17687e-05
-9.17306e-05
-9.16929e-05
-9.16554e-05
-9.16184e-05
-9.15816e-05
-9.15452e-05
-9.15092e-05
-9.14735e-05
-9.14381e-05
-9.14031e-05
-9.13685e-05
-9.13342e-05
-9.13002e-05
-9.12666e-05
-9.12334e-05
-9.12005e-05
-9.1168e-05
-9.11358e-05
-9.11041e-05
-9.10727e-05
-9.10416e-05
-9.10109e-05
-9.09806e-05
-9.09507e-05
-9.09211e-05
-9.0892e-05
-9.08632e-05
-9.08347e-05
-9.08067e-05
-9.0779e-05
-9.07517e-05
-9.07248e-05
-9.06983e-05
-9.06722e-05
-9.06465e-05
-9.06211e-05
-9.05961e-05
-9.05716e-05
-9.05474e-05
-9.05236e-05
-9.05002e-05
-9.04772e-05
-9.04546e-05
-9.04324e-05
-9.04105e-05
-9.03891e-05
-9.03681e-05
-9.03475e-05
-9.03272e-05
-9.03074e-05
-9.0288e-05
-9.02689e-05
-9.02503e-05
-9.02321e-05
-9.02142e-05
-9.01968e-05
-9.01798e-05
-9.01632e-05
-9.01469e-05
-9.01311e-05
-9.01157e-05
-9.01007e-05
-9.00861e-05
-9.00719e-05
-9.00581e-05
-9.00447e-05
-9.00317e-05
-9.00191e-05
-9.0007e-05
-8.99952e-05
-8.99839e-05
-8.99729e-05
-8.99624e-05
-8.99522e-05
-8.99425e-05
-8.99331e-05
-8.99243e-05
-8.99156e-05
-8.99076e-05
-8.98997e-05
-8.98926e-05
-8.98855e-05
-8.98793e-05
-8.98728e-05
-8.98676e-05
-8.98618e-05
-8.98575e-05