# vtk DataFile Version 2.0
FlowField
ASCII
DATASET STRUCTURED_GRID
DIMENSIONS 400 1 50
POINTS 20000 float
0 0 0
0.08 0 0
0.16 0 0
0.24 0 0
0.32 0 0
0.4 0 0
0.48 0 0
0.56 0 0
0.64 0 0
0.72 0 0
0.8 0 0
0.88 0 0
0.96 0 0
1.04 0 0
1.12 0 0
1.2 0 0
1.28 0 0
1.36 0 0
1.44 0 0
1.52 0 0
1.6 0 0
1.68 0 0
1.76 0 0
1.84 0 0
1.92 0 0
2 0 0
2.08 0 0
2.16 0 0
2.24 0 0
2.32 0 0
2.4 0 0
2.48 0 0
2.56 0 0
2.64 0 0
2.72 0 0
2.8 0 0
2.88 0 0
2.96 0 0
3.04 0 0
3.12 0 0
3.2 0 0
3.28 0 0
3.36 0 0
3.44 0 0
3.52 0 0
3.6 0 0
3.68 0 0
3.76 0 0
3.84 0 0
3.92 0 0
4 0 0
4.08 0 0
4.16 0 0
4.24 0 0
4.32 0 0
4.4 0 0
4.48 0 0
4.56 0 0
4.64 0 0
4.72 0 0
4.8 0 0
4.88 0 0
4.96 0 0
5.04 0 0
5.12 0 0
5.2 0 0
5.28 0 0
5.36 0 0
5.44 0 0
5.52 0 0
5.6 0 0
5.68 0 0
5.76 0 0
5.84 0 0
5.92 0 0
6 0 0
6.08 0 0
6.16 0 0
6.24 0 0
6.32 0 0
6.4 0 0
6.48 0 0
6.56 0 0
6.64 0 0
6.72 0 0
6.8 0 0
6.88 0 0
6.96 0 0
7.04 0 0
7.12 0 0
7.2 0 0
7.28 0 0
7.36 0 0
7.44 0 0
7.52 0 0
7.6 0 0
7.68 0 0
7.76 0 0
7.84 0 0
7.92 0 0
8 0 0
8.08 0 0
8.16 0 0
8.24 0 0
8.32 0 0
8.4 0 0
8.48 0 0
8.56 0 0
8.64 0 0
8.72 0 0
8.8 0 0
8.88 0 0
8.96 0 0
9.04 0 0
9.12 0 0
9.2 0 0
9.28 0 0
9.36 0 0
9.44 0 0
9.52 0 0
9.6 0 0
9.68 0 0
9.76 0 0
9.84 0 0
9.92 0 0
10 0 0
10.08 0 0
10.16 0 0
10.24 0 0
10.32 0 0
10.4 0 0
10.48 0 0
10.56 0 0
10.64 0 0
10.72 0 0
10.8 0 0
10.88 0 0
10.96 0 0
11.04 0 0
11.12 0 0
11.2 0 0
11.28 0 0
11.36 0 0
11.44 0 0
11.52 0 0
11.6 0 0
11.68 0 0
11.76 0 0
11.84 0 0
11.92 0 0
12 0 0
12.08 0 0
12.16 0 0
12.24 0 0
12.32 0 0
12.4 0 0
12.48 0 0
12.56 0 0
12.64 0 0
12.72 0 0
12.8 0 0
12.88 0 0
12.96 0 0
13.04 0 0
13.12 0 0
13.2 0 0
13.28 0 0
13.36 0 0
13.44 0 0
13.52 0 0
13.6 0 0
13.68 0 0
13.76 0 0
13.84 0 0
13.92 0 0
14 0 0
14.08 0 0
14.16 0 0
14.24 0 0
14.32 0 0
14.4 0 0
14.48 0 0
14.56 0 0
14.64 0 0
14.72 0 0
14.8 0 0
14.88 0 0
14.96 0 0
15.04 0 0
15.12 0 0
15.2 0 0
15.28 0 0
15.36 0 0
15.44 0 0
15.52 0 0
15.6 0 0
15.68 0 0
15.76 0 0
15.84 0 0
15.92 0 0
16 0 0
16.08 0 0
16.16 0 0
16.24 0 0
16.32 0 0
16.4 0 0
16.48 0 0
16.56 0 0
16.64 0 0
16.72 0 0
16.8 0 0
16.88 0 0
16.96 0 0
17.04 0 0
17.12 0 0
17.2 0 0
17.28 0 0
17.36 0 0
17.44 0 0
17.52 0 0
17.6 0 0
17.68 0 0
17.76 0 0
17.84 0 0
17.92 0 0
18 0 0
18.08 0 0
18.16 0 0
18.24 0 0
18.32 0 0
18.4 0 0
18.48 0 0
18.56 0 0
18.64 0 0
18.72 0 0
18.8 0 0
18.88 0 0
18.96 0 0
19.04 0 0
19.12 0 0
19.2 0 0
19.28 0 0
19.36 0 0
19.44 0 0
19.52 0 0
19.6 0 0
19.68 0 0
19.76 0 0
19.84 0 0
19.92 0 0
20 0 0
20.08 0 0
20.16 0 0
20.24 0 0
20.32 0 0
20.4 0 0
20.48 0 0
20.56 0 0
20.64 0 0
20.72 0 0
20.8 0 0
20.88 0 0
20.96 0 0
21.04 0 0
21.12 0 0
21.2 0 0
21.28 0 0
21.36 0 0
21.44 0 0
21.52 0 0
21.6 0 0
21.68 0 0
21.76 0 0
21.84 0 0
21.92 0 0
22 0 0
22.08 0 0
22.16 0 0
22.24 0 0
22.32 0 0
22.4 0 0
22.48 0 0
22.56 0 0
22.64 0 0
22.72 0 0
22.8 0 0
22.88 0 0
22.96 0 0
23.04 0 0
23.12 0 0
23.2 0 0
23.28 0 0
23.36 0 0
23.44 0 0
23.52 0 0
23.6 0 0
23.68 0 0
23.76 0 0
23.84 0 0
23.92 0 0
24 0 0
24.08 0 0
24.16 0 0
24.24 0 0
24.32 0 0
24.4 0 0
24.48 0 0
24.56 0 0
24.64 0 0
24.72 0 0
24.8 0 0
24.88 0 0
24.96 0 0
25.04 0 0
25.12 0 0
25.2 0 0
25.28 0 0
25.36 0 0
25.44 0 0
25.52 0 0
25.6 0 0
25.68 0 0
25.76 0 0
25.84 0 0
25.92 0 0
26 0 0
26.08 0 0
26.16 0 0
26.24 0 0
26.32 0 0
26.4 0 0
26.48 0 0
26.56 0 0
26.64 0 0
26.72 0 0
26.8 0 0
26.88 0 0
26.96 0 0
27.04 0 0
27.12 0 0
27.2 0 0
27.28 0 0
27.36 0 0
27.44 0 0
27.52 0 0
27.6 0 0
27.68 0 0
27.76 0 0
27.84 0 0
27.92 0 0
28 0 0
28.08 0 0
28.16 0 0
28.24 0 0
28.32 0 0
28.4 0 0
28.48 0 0
28.56 0 0
28.64 0 0
28.72 0 0
28.8 0 0
28.88 0 0
28.96 0 0
29.04 0 0
29.12 0 0
29.2 0 0
29.28 0 0
29.36 0 0
29.44 0 0
29.52 0 0
29.6 0 0
29.68 0 0
29.76 0 0
29.84 0 0
29.92 0 0
30 0 0
30.08 0 0
30.16 0 0
30.24 0 0
30.32 0 0
30.4 0 0
30.48 0 0
30.56 0 0
30.64 0 0
30.72 0 0
30.8 0 0
30.88 0 0
30.96 0 0
31.04 0 0
31.12 0 0
31.2 0 0
31.28 0 0
31.36 0 0
31.44 0 0
31.52 0 0
31.6 0 0
31.68 0 0
31.76 0 0
31.84 0 0
31.92 0 0
0 0.02 0
0.08 0.02 0
0.16 0.02 0
0.24 0.02 0
0.32 0.02 0
0.4 0.02 0
0.48 0.02 0
0.56 0.02 0
0.64 0.02 0
0.72 0.02 0
0.8 0.02 0
0.88 0.02 0
0.96 0.02 0
1.04 0.02 0
1.12 0.02 0
1.2 0.02 0
1.28 0.02 0
1.36 0.02 0
1.44 0.02 0
1.52 0.02 0
1.6 0.02 0
1.68 0.02 0
1.76 0.02 0
1.84 0.02 0
1.92 0.02 0
2 0.02 0
2.08 0.02 0
2.16 0.02 0
2.24 0.02 0
2.32 0.02 0
2.4 0.02 0
2.48 0.02 0
2.56 0.02 0
2.64 0.02 0
2.72 0.02 0
2.8 0.02 0
2.88 0.02 0
2.96 0.02 0
3.04 0.02 0
3.12 0.02 0
3.2 0.02 0
3.28 0.02 0
3.36 0.02 0
3.44 0.02 0
3.52 0.02 0
3.6 0.02 0
3.68 0.02 0
3.76 0.02 0
3.84 0.02 0
3.92 0.02 0
4 0.02 0
4.08 0.02 0
4.16 0.02 0
4.24 0.02 0
4.32 0.02 0
4.4 0.02 0
4.48 0.02 0
4.56 0.02 0
4.64 0.02 0
4.72 0.02 0
4.8 0.02 0
4.88 0.02 0
4.96 0.02 0
5.04 0.02 0
5.12 0.02 0
5.2 0.02 0
5.28 0.02 0
5.36 0.02 0
5.44 0.02 0
5.52 0.02 0
5.6 0.02 0
5.68 0.02 0
5.76 0.02 0
5.84 0.02 0
5.92 0.02 0
6 0.02 0
6.08 0.02 0
6.16 0.02 0
6.24 0.02 0
6.32 0.02 0
6.4 0.02 0
6.48 0.02 0
6.56 0.02 0
6.64 0.02 0
6.72 0.02 0
6.8 0.02 0
6.88 0.02 0
6.96 0.02 0
7.04 0.02 0
7.12 0.02 0
7.2 0.02 0
7.28 0.02 0
7.36 0.02 0
7.44 0.02 0
7.52 0.02 0
7.6 0.02 0
7.68 0.02 0
7.76 0.02 0
7.84 0.02 0
7.92 0.02 0
8 0.02 0
8.08 0.02 0
8.16 0.02 0
8.24 0.02 0
8.32 0.02 0
8.4 0.02 0
8.48 0.02 0
8.56 0.02 0
8.64 0.02 0
8.72 0.02 0
8.8 0.02 0
8.88 0.02 0
8.96 0.02 0
9.04 0.02 0
9.12 0.02 0
9.2 0.02 0
9.28 0.02 0
9.36 0.02 0
9.44 0.02 0
9.52 0.02 0
9.6 0.02 0
9.68 0.02 0
9.76 0.02 0
9.84 0.02 0
9.92 0.02 0
10 0.02 0
10.08 0.02 0
10.16 0.02 0
10.24 0.02 0
10.32 0.02 0
10.4 0.02 0
10.48 0.02 0
10.56 0.02 0
10.64 0.02 0
10.72 0.02 0
10.8 0.02 0
10.88 0.02 0
10.96 0.02 0
11.04 0.02 0
11.12 0.02 0
11.2 0.02 0
11.28 0.02 0
11.36 0.02 0
11.44 0.02 0
11.52 0.02 0
11.6 0.02 0
11.68 0.02 0
11.76 0.02 0
11.84 0.02 0
11.92 0.02 0
12 0.02 0
12.08 0.02 0
12.16 0.02 0
12.24 0.02 0
12.32 0.02 0
12.4 0.02 0
12.48 0.02 0
12.56 0.02 0
12.64 0.02 0
12.72 0.02 0
12.8 0.02 0
12.88 0.02 0
12.96 0.02 0
13.04 0.02 0
13.12 0.02 0
13.2 0.02 0
13.28 0.02 0
13.36 0.02 0
13.44 0.02 0
13.52 0.02 0
13.6 0.02 0
13.68 0.02 0
13.76 0.02 0
13.84 0.02 0
13.92 0.02 0
14 0.02 0
14.08 0.02 0
14.16 0.02 0
14.24 0.02 0
14.32 0.02 0
14.4 0.02 0
14.48 0.02 0
14.56 0.02 0
14.64 0.02 0
14.72 0.02 0
14.8 0.02 0
14.88 0.02 0
14.96 0.02 0
15.04 0.02 0
15.12 0.02 0
15.2 0.02 0
15.28 0.02 0
15.36 0.02 0
15.44 0.02 0
15.52 0.02 0
15.6 0.02 0
15.68 0.02 0
15.76 0.02 0
15.84 0.02 0
15.92 0.02 0
16 0.02 0
16.08 0.02 0
16.16 0.02 0
16.24 0.02 0
16.32 0.02 0
16.4 0.02 0
16.48 0.02 0
16.56 0.02 0
16.64 0.02 0
16.72 0.02 0
16.8 0.02 0
16.88 0.02 0
16.96 0.02 0
17.04 0.02 0
17.12 0.02 0
17.2 0.02 0
17.28 0.02 0
17.36 0.02 0
17.44 0.02 0
17.52 0.02 0
17.6 0.02 0
17.68 0.02 0
17.76 0.02 0
17.84 0.02 0
17.92 0.02 0
18 0.02 0
18.08 0.02 0
18.16 0.02 0
18.24 0.02 0
18.32 0.02 0
18.4 0.02 0
18.48 0.02 0
18.56 0.02 0
18.64 0.02 0
18.72 0.02 0
18.8 0.02 0
18.88 0.02 0
18.96 0.02 0
19.04 0.02 0
19.12 0.02 0
19.2 0.02 0
19.28 0.02 0
19.36 0.02 0
19.44 0.02 0
19.52 0.02 0
19.6 0.02 0
19.68 0.02 0
19.76 0.02 0
19.84 0.02 0
19.92 0.02 0
20 0.02 0
20.08 0.02 0
20.16 0.02 0
20.24 0.02 0
20.32 0.02 0
20.4 0.02 0
20.48 0.02 0
20.56 0.02 0
20.64 0.02 0
20.72 0.02 0
20.8 0.02 0
20.88 0.02 0
20.96 0.02 0
21.04 0.02 0
21.12 0.02 0
21.2 0.02 0
21.28 0.02 0
21.36 0.02 0
21.44 0.02 0
21.52 0.02 0
21.6 0.02 0
21.68 0.02 0
21.76 0.02 0
21.84 0.02 0
21.92 0.02 0
22 0.02 0
22.08 0.02 0
22.16 0.02 0
22.24 0.02 0
22.32 0.02 0
22.4 0.02 0
22.48 0.02 0
22.56 0.02 0
22.64 0.02 0
22.72 0.02 0
22.8 0.02 0
22.88 0.02 0
22.96 0.02 0
23.04 0.02 0
23.12 0.02 0
23.2 0.02 0
23.28 0.02 0
23.36 0.02 0
23.44 0.02 0
23.52 0.02 0
23.6 0.02 0
23.68 0.02 0
23.76 0.02 0
23.84 0.02 0
23.92 0.02 0
24 0.02 0
24.08 0.02 0
24.16 0.02 0
24.24 0.02 0
24.32 0.02 0
24.4 0.02 0
24.48 0.02 0
24.56 0.02 0
24.64 0.02 0
24.72 0.02 0
24.8 0.02 0
24.88 0.02 0
24.96 0.02 0
25.04 0.02 0
25.12 0.02 0
25.2 0.02 0
25.28 0.02 0
25.36 0.02 0
25.44 0.02 0
25.52 0.02 0
25.6 0.02 0
25.68 0.02 0
25.76 0.02 0
25.84 0.02 0
25.92 0.02 0
26 0.02 0
26.08 0.02 0
26.16 0.02 0
26.24 0.02 0
26.32 0.02 0
26.4 0.02 0
26.48 0.02 0
26.56 0.02 0
26.64 0.02 0
26.72 0.02 0
26.8 0.02 0
26.88 0.02 0
26.96 0.02 0
27.04 0.02 0
27.12 0.02 0
27.2 0.02 0
27.28 0.02 0
27.36 0.02 0
27.44 0.02 0
27.52 0.02 0
27.6 0.02 0
27.68 0.02 0
27.76 0.02 0
27.84 0.02 0
27.92 0.02 0
28 0.02 0
28.08 0.02 0
28.16 0.02 0
28.24 0.02 0
28.32 0.02 0
28.4 0.02 0
28.48 0.02 0
28.56 0.02 0
28.64 0.02 0
28.72 0.02 0
28.8 0.02 0
28.88 0.02 0
28.96 0.02 0
29.04 0.02 0
29.12 0.02 0
29.2 0.02 0
29.28 0.02 0
29.36 0.02 0
29.44 0.02 0
29.52 0.02 0
29.6 0.02 0
29.68 0.02 0
29.76 0.02 0
29.84 0.02 0
29.92 0.02 0
30 0.02 0
30.08 0.02 0
30.16 0.02 0
30.24 0.02 0
30.32 0.02 0
30.4 0.02 0
30.48 0.02 0
30.56 0.02 0
30.64 0.02 0
30.72 0.02 0
30.8 0.02 0
30.88 0.02 0
30.96 0.02 0
31.04 0.02 0
31.12 0.02 0
31.2 0.02 0
31.28 0.02 0
31.36 0.02 0
31.44 0.02 0
31.52 0.02 0
31.6 0.02 0
31.68 0.02 0
31.76 0.02 0
31.84 0.02 0
31.92 0.02 0
0 0.04 0
0.08 0.04 0
0.16 0.04 0
0.24 0.04 0
0.32 0.04 0
0.4 0.04 0
0.48 0.04 0
0.56 0.04 0
0.64 0.04 0
0.72 0.04 0
0.8 0.04 0
0.88 0.04 0
0.96 0.04 0
1.04 0.04 0
1.12 0.04 0
1.2 0.04 0
1.28 0.04 0
1.36 0.04 0
1.44 0.04 0
1.52 0.04 0
1.6 0.04 0
1.68 0.04 0
1.76 0.04 0
1.84 0.04 0
1.92 0.04 0
2 0.04 0
2.08 0.04 0
2.16 0.04 0
2.24 0.04 0
2.32 0.04 0
2.4 0.04 0
2.48 0.04 0
2.56 0.04 0
2.64 0.04 0
2.72 0.04 0
2.8 0.04 0
2.88 0.04 0
2.96 0.04 0
3.04 0.04 0
3.12 0.04 0
3.2 0.04 0
3.28 0.04 0
3.36 0.04 0
3.44 0.04 0
3.52 0.04 0
3.6 0.04 0
3.68 0.04 0
3.76 0.04 0
3.84 0.04 0
3.92 0.04 0
4 0.04 0
4.08 0.04 0
4.16 0.04 0
4.24 0.04 0
4.32 0.04 0
4.4 0.04 0
4.48 0.04 0
4.56 0.04 0
4.64 0.04 0
4.72 0.04 0
4.8 0.04 0
4.88 0.04 0
4.96 0.04 0
5.04 0.04 0
5.12 0.04 0
5.2 0.04 0
5.28 0.04 0
5.36 0.04 0
5.44 0.04 0
5.52 0.04 0
5.6 0.04 0
5.68 0.04 0
5.76 0.04 0
5.84 0.04 0
5.92 0.04 0
6 0.04 0
6.08 0.04 0
6.16 0.04 0
6.24 0.04 0
6.32 0.04 0
6.4 0.04 0
6.48 0.04 0
6.56 0.04 0
6.64 0.04 0
6.72 0.04 0
6.8 0.04 0
6.88 0.04 0
6.96 0.04 0
7.04 0.04 0
7.12 0.04 0
7.2 0.04 0
7.28 0.04 0
7.36 0.04 0
7.44 0.04 0
7.52 0.04 0
7.6 0.04 0
7.68 0.04 0
7.76 0.04 0
7.84 0.04 0
[...]
POINT_DATA 20000

SCALARS v float 1
LOOKUP_TABLE default
0
0
0
0
0
0
0
0
0
0
0
0
0
0
0
0
0
0
0
0
0
0
0
0
0
0
0
0
0
0
0
0
0
0
0
0
0
0
0
0
0
0
0
0
0
0
0
0
0
0
0
0
0
0
0
0
0
0
0
0
0
0
0
0
0
0
0
0
0
0
0
0
0
0
0
0
0
0
0
0
0
0
0
0
0
0
0
0
0
0
0
0
0
0
0
0
0
0
0
0
0
0
0
0
0
0
0
0
0
0
0
0
0
0
0
0
0
0
0
0
0
0
0
0
0
0
0
0
0
0
0
0
0
0
0
0
0
0
0
0
0
0
0
0
0
0
0
0
0
0
0
0
0
0
0
0
0
0
0
0
0
0
0
0
0
0
0
0
0
0
0
0
0
0
0
0
0
0
0
0
0
0
0
0
0
0
0
0
0
0
0
0
0
0
0
0
0
0
0
0
0
0
0
0
0
0
0
0
0
0
0
0
0
0
0
0
0
0
0
0
0
0
0
0
0
0
0
0
0
0
0
0
0
0
0
0
0
0
0
0
0
0
0
0
0
0
0
0
0
0
0
0
0
0
0
0
0
0
0
0
0
0
0
0
0
0
0
0
0
0
0
0
0
0
0
0
0
0
0
0
0
0
0
0
0
0
0
0
0
0
0
0
0
0
0
0
0
0
0
0
0
0
0
0
0
0
0
0
0
0
0
0
0
0
0
0
0
0
0
0
0
0
0
0
0
0
0
0
0
0
0
0
0
0
0
0
0
0
0
0
0
0
0
0
0
0
0
0
0
0
0
0
0
0
0
0
0
0
0
0
0
0
0
0
0
0
0
0
0
0
0
0
0
0
0
0
0
0
0
0
0
0
0
0
0
0
0
0
0
0
0
0
0
0
0
0
0
0
0
0
-0.123228
0.123228
0.0537923
0.0194395
0.00878363
0.0050902
0.00338823
0.00243778
0.00184796
0.00145674
0.00118448
0.000987685
0.000840824
0.000728133
0.000639498
0.000568233
0.000509811
0.000461095
0.00041987
0.000384537
0.000353924
0.000327151
0.000303549
0.000282598
0.000263888
0.00024709
0.000231938
0.000218214
0.000205736
0.000194351
0.00018393
0.000174363
0.000165557
0.000157431
0.000149913
0.000142942
0.000136466
0.000130435
0.00012481
0.000119554
0.000114633
0.000110018
0.000105685
0.000101608
9.77689e-05
9.41474e-05
9.07269e-05
8.74922e-05
8.44295e-05
8.15261e-05
7.87707e-05
7.61529e-05
7.36631e-05
7.12928e-05
6.90339e-05
6.68792e-05
6.48219e-05
6.2856e-05
6.09756e-05
5.91757e-05
5.74513e-05
5.5798e-05
5.42116e-05
5.26884e-05
5.12246e-05
4.98172e-05
4.84629e-05
4.71589e-05
4.59025e-05
4.46913e-05
4.35229e-05
4.23952e-05
4.13062e-05
4.02539e-05
3.92365e-05
3.82525e-05
3.73002e-05
3.63783e-05
3.54852e-05
3.46198e-05
3.37808e-05
3.2967e-05
3.21775e-05
3.14111e-05
3.0667e-05
2.99441e-05
2.92418e-05
2.8559e-05
2.78952e-05
2.72496e-05
2.66214e-05
2.60101e-05
2.5415e-05
2.48355e-05
2.42712e-05
2.37214e-05
2.31857e-05
2.26635e-05
2.21545e-05
2.16582e-05
2.11742e-05
2.07021e-05
2.02415e-05
1.9792e-05
1.93534e-05
1.89253e-05
1.85073e-05
1.80992e-05
1.77008e-05
1.73116e-05
1.69315e-05
1.65602e-05
1.61974e-05
1.58429e-05
1.54966e-05
1.51581e-05
1.48272e-05
1.45038e-05
1.41877e-05
1.38787e-05
1.35766e-05
1.32811e-05
1.29923e-05
1.27098e-05
1.24335e-05
1.21634e-05
1.18991e-05
1.16406e-05
1.13878e-05
1.11405e-05
1.08986e-05
1.06619e-05
1.04304e-05
1.02038e-05
9.98223e-06
9.76539e-06
9.55323e-06
9.34564e-06
9.14252e-06
8.94377e-06
8.74929e-06
8.55899e-06
8.37277e-06
8.19055e-06
8.01223e-06
7.83773e-06
7.66697e-06
7.49987e-06
7.33634e-06
7.17632e-06
7.01973e-06
6.8665e-06
6.71655e-06
6.56982e-06
6.42624e-06
6.28573e-06
6.14823e-06
6.01369e-06
5.88203e-06
5.75321e-06
5.62716e-06
5.50382e-06
5.38314e-06
5.26506e-06
5.14952e-06
5.03647e-06
4.92586e-06
4.81764e-06
4.71176e-06
4.60817e-06
4.50684e-06
4.4077e-06
4.31071e-06
4.21582e-06
4.123e-06
4.03219e-06
3.94335e-06
3.85644e-06
3.77142e-06
3.68826e-06
3.60692e-06
3.52735e-06
3.44951e-06
3.37337e-06
3.29888e-06
3.22602e-06
3.15475e-06
3.08503e-06
3.01683e-06
2.95012e-06
2.88487e-06
2.82105e-06
2.75862e-06
2.69756e-06
2.63782e-06
2.57937e-06
2.52219e-06
2.46626e-06
2.41155e-06
2.35804e-06
2.3057e-06
2.2545e-06
2.2044e-06
2.15539e-06
2.10744e-06
2.06054e-06
2.01465e-06
1.96977e-06
1.92584e-06
1.88288e-06
1.84085e-06
1.79976e-06
1.75957e-06
1.72024e-06
1.68176e-06
1.64408e-06
1.60722e-06
1.57118e-06
1.53594e-06
1.5015e-06
1.46779e-06
1.43481e-06
1.40252e-06
1.37093e-06
1.34004e-06
1.30984e-06
1.28031e-06
1.2514e-06
1.22311e-06
1.19542e-06
1.16835e-06
1.1419e-06
1.11605e-06
1.09075e-06
1.06596e-06
1.04166e-06
1.01787e-06
9.94625e-07
9.71925e-07
9.49749e-07
9.28046e-07
9.0677e-07
8.85904e-07
8.65464e-07
8.45475e-07
8.25948e-07
8.0686e-07
7.8817e-07
7.69844e-07
7.51878e-07
7.34294e-07
7.17114e-07
7.00335e-07
6.83919e-07
6.67818e-07
6.52003e-07
6.36484e-07
6.21303e-07
6.06496e-07
5.92062e-07
5.77959e-07
5.64126e-07
5.50521e-07
5.37144e-07
5.24034e-07
5.11231e-07
4.98746e-07
4.86549e-07
4.7459e-07
4.62831e-07
4.51268e-07
4.39923e-07
4.2882e-07
4.17951e-07
4.07281e-07
3.96765e-07
3.8638e-07
3.76142e-07
3.66089e-07
3.56247e-07
3.46599e-07
3.3709e-07
3.27649e-07
3.18238e-07
3.08872e-07
2.99608e-07
2.90501e-07
2.81566e-07
2.72763e-07
2.6402e-07
2.55275e-07
2.46519e-07
2.37791e-07
2.29149e-07
2.20632e-07
2.12228e-07
2.03891e-07
1.95573e-07
1.8726e-07
1.78984e-07
1.70798e-07
1.62736e-07
1.54786e-07
1.46894e-07
1.39003e-07
1.31094e-07
1.23209e-07
1.15426e-07
1.0782e-07
1.00409e-07
9.31392e-08
8.59139e-08
7.86517e-08
7.13367e-08
6.40384e-08
5.68761e-08
4.99588e-08
4.33231e-08
3.69177e-08
3.06276e-08
2.43452e-08
1.80247e-08
1.17177e-08
5.53977e-09
-3.78405e-10
-5.96785e-09
-1.12406e-08
-1.62942e-08
-2.12411e-08
-2.61696e-08
-3.10787e-08
-3.59061e-08
-4.05357e-08
-4.48875e-08
-4.89202e-08
-5.26884e-08
-5.62653e-08
-5.97585e-08
-6.31988e-08
-6.65994e-08
-6.98766e-08
-7.29847e-08
-7.58367e-08
-7.84603e-08
-8.08498e-08
-8.31158e-08
-8.52624e-08
-8.73832e-08
-8.9401e-08
-9.1363e-08
-9.31347e-08
-9.47929e-08
-9.62157e-08
-9.75636e-08
-9.87202e-08
-9.98996e-08
-1.00923e-07
-1.02021e-07
-1.02919e-07
-1.03896e-07
-1.04598e-07
-1.0541e-07
-1.05905e-07
-1.06604e-07
-1.06958e-07
-1.07631e-07
-1.07891e-07
-1.08573e-07
-1.08716e-07
-1.09399e-07
-1.09387e-07
-1.10087e-07
-1.09916e-07
-1.10696e-07
-1.10382e-07
-1.11314e-07
-1.10849e-07
-1.11987e-07
-1.11332e-07
-1.12723e-07
-1.11836e-07
-1.13552e-07
-1.12407e-07
-1.14533e-07
-1.13124e-07
-1.15726e-07
-1.14069e-07
-1.17128e-07
-1.15322e-07
-1.18601e-07
-1.1696e-07
-1.19635e-07
-1.19013e-07
-1.18539e-07
-1.21261e-07
-1.09038e-07
-1.22394e-07
-4.96837e-08
-9.31537e-08
-9.31537e-08
-0.142153
0.142153
0.101005
0.0539134
0.0302569
0.0189188
0.0129281
0.00941353
0.0071806
0.0056777
0.00462122
0.00385222
0.00327574
0.00283223
0.00248306
0.0022024
0.00197259
0.00178129
0.00161975
0.00148161
0.00136219
0.00125797
0.00116626
0.001085
0.00101254
0.000947569
0.000889038
0.000836075
0.000787962
0.000744098
0.000703976
0.000667166
0.0006333
0.00060206
0.000573173
0.000546399
0.00052153
0.000498383
0.000476797
0.00045663
0.000437755
0.00042006
0.000403446
0.000387821
0.000373107
0.000359231
0.000346127
0.000333737
0.000322008
0.00031089
0.000300341
0.00029032
0.000280791
0.00027172
0.000263077
0.000254833
0.000246963
0.000239444
0.000232253
0.00022537
0.000218777
0.000212457
0.000206393
0.000200572
0.000194978
0.000189601
0.000184427
0.000179446
0.000174647
0.000170022
0.000165561
0.000161255
0.000157098
0.000153081
0.000149199
0.000145444
0.000141811
0.000138294
0.000134888
0.000131587
0.000128388
0.000125285
0.000122275
0.000119354
0.000116518
0.000113764
0.000111088
0.000108487
0.000105958
0.000103499
0.000101108
9.878e-05
9.65146e-05
9.4309e-05
9.21612e-05
9.0069e-05
8.80307e-05
8.60444e-05
8.41082e-05
8.22207e-05
8.03801e-05
7.8585e-05
7.68339e-05
7.51255e-05
7.34584e-05
7.18314e-05
7.02433e-05
6.86929e-05
6.71792e-05
6.5701e-05
6.42573e-05
6.28473e-05
6.14698e-05
6.01241e-05
5.88093e-05
5.75244e-05
5.62688e-05
5.50417e-05
5.38422e-05
5.26697e-05
5.15235e-05
5.04029e-05
4.93072e-05
4.82359e-05
4.71883e-05
4.61639e-05
4.5162e-05
4.41821e-05
4.32238e-05
4.22864e-05
4.13695e-05
4.04726e-05
3.95953e-05
3.8737e-05
3.78973e-05
3.70759e-05
3.62722e-05
3.54859e-05
3.47166e-05
3.39639e-05
3.32274e-05
3.25068e-05
3.18017e-05
3.11118e-05
3.04367e-05
2.97762e-05
2.91298e-05
2.84973e-05
2.78784e-05
2.72729e-05
2.66803e-05
2.61005e-05
2.55331e-05
2.4978e-05
2.44348e-05
2.39032e-05
2.33831e-05
2.28742e-05
2.23763e-05
2.18891e-05
2.14124e-05
2.0946e-05
2.04897e-05
2.00432e-05
1.96064e-05
1.9179e-05
1.87609e-05
1.83518e-05
1.79517e-05
1.75602e-05
1.71772e-05
1.68025e-05
1.6436e-05
1.60775e-05
1.57268e-05
1.53837e-05
1.50481e-05
1.47198e-05
1.43987e-05
1.40846e-05
1.37774e-05
1.34769e-05
1.3183e-05
1.28954e-05
1.26142e-05
1.23391e-05
1.207e-05
1.18068e-05
1.15494e-05
1.12976e-05
1.10513e-05
1.08104e-05
1.05748e-05
1.03444e-05
1.01189e-05
9.8984e-06
9.68266e-06
9.47165e-06
9.26526e-06
9.06341e-06
8.86596e-06
8.6728e-06
8.48383e-06
8.29896e-06
8.11813e-06
7.94125e-06
7.76822e-06
7.59895e-06
7.43335e-06
7.27136e-06
7.11293e-06
6.95799e-06
6.80645e-06
6.65818e-06
6.51308e-06
6.37109e-06
6.2322e-06
6.09639e-06
5.96362e-06
5.83377e-06
5.70674e-06
5.58243e-06
5.46078e-06
5.34179e-06
5.22544e-06
5.11168e-06
5.0004e-06
4.8915e-06
4.78493e-06
4.68068e-06
4.57877e-06
4.47915e-06
4.38175e-06
4.2864e-06
4.19302e-06
4.10155e-06
4.01206e-06
3.92459e-06
3.83913e-06
3.75559e-06
3.6738e-06
3.59365e-06
3.5151e-06
3.4382e-06
3.363e-06
3.28949e-06
3.2176e-06
3.14719e-06
3.07819e-06
3.01058e-06
2.94443e-06
2.87977e-06
2.81656e-06
2.75468e-06
2.694e-06
2.63445e-06
2.57608e-06
2.51901e-06
2.46329e-06
2.40889e-06
2.35566e-06
2.30344e-06
2.25212e-06
2.20174e-06
2.15239e-06
2.10417e-06
2.05707e-06
2.01098e-06
1.96575e-06
1.92128e-06
1.87759e-06
1.83472e-06
1.7927e-06
1.7515e-06
1.711e-06
1.67107e-06
1.63166e-06
1.59284e-06
1.55469e-06
1.51724e-06
1.48041e-06
1.44402e-06
1.40788e-06
1.37192e-06
1.33622e-06
1.30093e-06
1.26617e-06
1.23195e-06
1.1981e-06
1.16444e-06
1.13081e-06
1.09724e-06
1.06385e-06
1.0308e-06
9.98168e-07
9.65884e-07
9.33819e-07
9.01859e-07
8.70005e-07
8.38364e-07
8.07076e-07
7.76205e-07
7.45687e-07
7.1537e-07
6.85124e-07
6.54948e-07
6.24994e-07
5.95489e-07
5.666e-07
5.38319e-07
5.10462e-07
4.82764e-07
4.55055e-07
4.2737e-07
3.99962e-07
3.7317e-07
3.47253e-07
3.22239e-07
2.97929e-07
2.73996e-07
2.5019e-07
2.26469e-07
2.03051e-07
1.80286e-07
1.58509e-07
1.3784e-07
1.18175e-07
9.92003e-08
8.06214e-08
6.22487e-08
4.41586e-08
2.65666e-08
9.8003e-09
-5.96663e-09
-2.06795e-08
-3.45511e-08
-4.77989e-08
-6.071e-08
-7.33161e-08
-8.56168e-08
-9.73446e-08
-1.08393e-07
-1.18544e-07
-1.27936e-07
-1.36571e-07
-1.44792e-07
-1.52572e-07
-1.60175e-07
-1.67329e-07
-1.7419e-07
-1.80353e-07
-1.86103e-07
-1.91078e-07
-1.9581e-07
-1.99916e-07
-2.04068e-07
-2.07668e-07
-2.1145e-07
-2.14528e-07
-2.17813e-07
-2.20188e-07
-2.22909e-07
-2.24609e-07
-2.26966e-07
-2.28207e-07
-2.30456e-07
-2.31349e-07
-2.33579e-07
-2.34052e-07
-2.36254e-07
-2.36213e-07
-2.38474e-07
-2.3793e-07
-2.40462e-07
-2.39462e-07
-2.42485e-07
-2.40992e-07
-2.44675e-07
-2.42569e-07
-2.47087e-07
-2.44247e-07
-2.49847e-07
-2.46202e-07
-2.53179e-07
-2.48697e-07
-2.57282e-07
-2.52004e-07
-2.62177e-07
-2.56379e-07
-2.67461e-07
-2.62053e-07
-2.71574e-07
-2.68992e-07
-2.69232e-07
-2.7594e-07
-2.41055e-07
-2.76326e-07
-7.42693e-08
-1.80878e-07
-1.80878e-07
-0.122226
0.122226
0.121664
0.0822683
0.0539952
0.0368645
0.0263937
0.0197168
0.0152661
0.0121807
0.009969
0.00833725
0.00710229
0.0061459
0.00538957
0.00477991
0.00427991
0.00386341
0.00351166
0.00321094
0.00295108
0.00272444
0.00252514
0.00234863
0.00219133
0.00205037
0.00192342
0.00180859
0.00170431
0.00160925
0.00152233
0.00144259
0.00136924
0.00130159
0.00123903
0.00118106
0.00112721
0.0010771
0.00103037
0.000986707
0.000945847
0.000907543
0.000871578
0.000837758
0.000805909
0.000775874
0.000747512
0.000720696
0.00069531
0.000671249
0.000648419
0.000626733
0.000606111
0.000586482
0.000567779
0.000549941
0.000532913
0.000516643
0.000501085
0.000486195
0.000471932
0.000458259
0.000445143
0.00043255
0.000420452
0.000408821
0.000397632
0.00038686
0.000376484
0.000366482
0.000356837
0.000347528
0.000338541
0.000329859
0.000321467
0.000313351
0.0003055
0.000297899
0.000290539
0.000283408
0.000276496
0.000269794
0.000263292
0.000256983
0.000250858
0.00024491
0.000239132
0.000233516
0.000228058
0.00022275
0.000217587
0.000212564
0.000207675
0.000202916
0.000198282
0.000193768
0.000189371
0.000185087
0.000180911
0.00017684
0.000172872
0.000169001
0.000165226
0.000161543
0.00015795
0.000154443
0.000151021
0.00014768
0.000144419
0.000141234
0.000138124
0.000135087
0.00013212
0.000129222
0.00012639
0.000123624
0.00012092
0.000118278
0.000115696
0.000113173
0.000110706
0.000108294
0.000105936
0.000103631
0.000101377
9.91726e-05
9.70173e-05
9.49095e-05
9.28481e-05
9.08319e-05
8.886e-05
8.69312e-05
8.50446e-05
8.31991e-05
8.13938e-05
7.96277e-05
7.78999e-05
7.62097e-05
7.4556e-05
7.29382e-05
7.13553e-05
6.98066e-05
6.82914e-05
6.68088e-05
6.53583e-05
6.39389e-05
6.25502e-05
6.11914e-05
5.98619e-05
5.8561e-05
5.72882e-05
5.60428e-05
5.48242e-05
5.36319e-05
5.24653e-05
5.13238e-05
5.0207e-05
4.91142e-05
4.80451e-05
4.6999e-05
4.59756e-05
4.49743e-05
4.39947e-05
4.30363e-05
4.20987e-05
4.11814e-05
4.02839e-05
3.9406e-05
3.85472e-05
3.77071e-05
3.68853e-05
3.60814e-05
3.5295e-05
3.45258e-05
3.37734e-05
3.30374e-05
3.23174e-05
3.16132e-05
3.09244e-05
3.02507e-05
2.95918e-05
2.89474e-05
2.8317e-05
2.77004e-05
2.70973e-05
2.65075e-05
2.59306e-05
2.53663e-05
2.48144e-05
2.42746e-05
2.37467e-05
2.32304e-05
2.27254e-05
2.22314e-05
2.17482e-05
2.12756e-05
2.08133e-05
2.03611e-05
1.99189e-05
1.94863e-05
1.90633e-05
1.86494e-05
1.82445e-05
1.78485e-05
1.74611e-05
1.70822e-05
1.67116e-05
1.6349e-05
1.59943e-05
1.56474e-05
1.53081e-05
1.49763e-05
1.46517e-05
1.43342e-05
1.40235e-05
1.37195e-05
1.34222e-05
1.31314e-05
1.28472e-05
1.25692e-05
1.22972e-05
1.20311e-05
1.17707e-05
1.15161e-05
1.12671e-05
1.10236e-05
1.07854e-05
1.05524e-05
1.03243e-05
1.01013e-05
9.88325e-06
9.6701e-06
9.46163e-06
9.25759e-06
9.05778e-06
8.86216e-06
8.67078e-06
8.48371e-06
8.3009e-06
8.12213e-06
7.94711e-06
7.77563e-06
7.60764e-06
7.4432e-06
7.2824e-06
7.12518e-06
6.97137e-06
6.82074e-06
6.67315e-06
6.52859e-06
6.38715e-06
6.24885e-06
6.11361e-06
5.98117e-06
5.85132e-06
5.72396e-06
5.59919e-06
5.47717e-06
5.35799e-06
5.24154e-06
5.12753e-06
5.01567e-06
4.9058e-06
4.798e-06
4.69243e-06
4.58922e-06
4.48832e-06
4.38949e-06
4.29248e-06
4.19713e-06
4.10343e-06
4.01148e-06
3.92131e-06
3.8328e-06
3.74573e-06
3.65989e-06
3.5752e-06
3.49176e-06
3.4097e-06
3.32903e-06
3.24957e-06
3.17097e-06
3.09293e-06
3.01535e-06
2.93839e-06
2.8623e-06
2.78728e-06
2.71326e-06
2.63995e-06
2.56701e-06
2.49422e-06
2.42164e-06
2.34952e-06
2.27812e-06
2.20754e-06
2.13765e-06
2.06821e-06
1.99906e-06
1.93022e-06
1.8619e-06
1.79434e-06
1.72762e-06
1.66161e-06
1.59605e-06
1.53074e-06
1.46573e-06
1.40132e-06
1.3379e-06
1.27573e-06
1.21473e-06
1.15458e-06
1.09481e-06
1.03521e-06
9.75898e-07
9.1738e-07
8.60244e-07
8.04894e-07
7.5131e-07
6.991e-07
6.47699e-07
5.96738e-07
5.46224e-07
4.96611e-07
4.48525e-07
4.02514e-07
3.58711e-07
3.16867e-07
2.76407e-07
2.36844e-07
1.97908e-07
1.59802e-07
1.22936e-07
8.7875e-08
5.48625e-08
2.39342e-08
-5.34289e-09
-3.33511e-08
-6.05789e-08
-8.70197e-08
-1.12647e-07
-1.36959e-07
-1.59811e-07
-1.80838e-07
-2.00363e-07
-2.18392e-07
-2.35567e-07
-2.5179e-07
-2.6754e-07
-2.82268e-07
-2.96304e-07
-3.08887e-07
-3.20626e-07
-3.3083e-07
-3.40558e-07
-3.49037e-07
-3.57569e-07
-3.64946e-07
-3.72617e-07
-3.78837e-07
-3.8543e-07
-3.90208e-07
-3.95676e-07
-3.99131e-07
-4.03889e-07
-4.06425e-07
-4.1094e-07
-4.12739e-07
-4.17164e-07
-4.18088e-07
-4.22439e-07
-4.22343e-07
-4.26826e-07
-4.25751e-07
-4.30785e-07
-4.28809e-07
-4.34814e-07
-4.31848e-07
-4.39161e-07
-4.34974e-07
-4.43963e-07
-4.38329e-07
-4.49512e-07
-4.42285e-07
-4.56268e-07
-4.47358e-07
-4.64639e-07
-4.54074e-07
-4.74709e-07
-4.62934e-07
-4.85806e-07
-4.74362e-07
-4.95117e-07
-4.88136e-07
-4.92997e-07
-5.01143e-07
-4.44688e-07
-4.97368e-07
-1.72342e-07
-3.09455e-07
-3.09455e-07
-0.0942785
0.0942785
0.121016
0.0969701
0.0717943
0.0531989
0.0402019
0.0311125
0.0246588
0.0199864
0.0165334
0.0139293
0.0119264
0.0103568
0.0091044
0.00808829
0.00725096
0.00655106
0.00595849
0.00545099
0.0050119
0.00462856
0.00429124
0.00399233
0.00372582
0.00348689
0.00327164
0.00307687
0.00289993
0.00273861
0.00259103
0.00245562
0.00233102
0.00221606
0.00210974
0.00201118
0.00191962
0.00183438
0.00175488
0.00168059
0.00161105
0.00154585
0.00148462
0.00142704
0.0013728
0.00132164
0.00127332
0.00122763
0.00118438
0.00114337
0.00110446
0.0010675
0.00103235
0.000998884
0.000966997
0.000936583
0.000907548
0.000879805
0.000853273
0.000827879
0.000803554
0.000780235
0.000757864
0.000736385
0.00071575
0.000695911
0.000676825
0.000658452
0.000640752
0.000623693
0.00060724
0.000591363
0.000576034
0.000561225
0.000546912
0.000533071
0.00051968
0.000506718
0.000494166
0.000482006
0.000470219
0.000458791
0.000447706
0.000436949
0.000426507
0.000416367
0.000406517
0.000396946
0.000387642
0.000378595
0.000369797
0.000361237
0.000352906
0.000344798
0.000336902
0.000329213
0.000321723
0.000314426
0.000307314
0.000300381
0.000293623
0.000287032
0.000280605
0.000274335
0.000268218
0.000262249
0.000256424
0.000250738
0.000245187
0.000239768
0.000234476
0.000229309
0.000224262
0.000219331
0.000214515
0.00020981
0.000205212
0.000200719
0.000196328
0.000192037
0.000187843
0.000183743
0.000179735
0.000175816
0.000171985
0.000168239
0.000164576
0.000160994
0.000157491
0.000154066
0.000150715
0.000147438
0.000144233
0.000141099
0.000138032
0.000135032
0.000132098
0.000129228
0.000126419
0.000123672
0.000120984
0.000118355
0.000115782
0.000113265
0.000110803
0.000108394
0.000106036
0.00010373
0.000101473
9.92657e-05
9.71055e-05
9.49921e-05
9.29243e-05
9.09011e-05
8.89216e-05
8.69849e-05
8.50901e-05
8.32362e-05
8.14224e-05
7.9648e-05
7.7912e-05
7.62136e-05
7.4552e-05
7.29265e-05
7.13363e-05
6.97807e-05
6.82588e-05
6.67701e-05
6.53139e-05
6.38894e-05
6.2496e-05
6.11331e-05
5.97999e-05
5.84959e-05
5.72204e-05
5.59727e-05
5.47524e-05
5.35589e-05
5.23915e-05
5.12498e-05
5.01331e-05
4.9041e-05
4.79728e-05
4.69281e-05
4.59063e-05
4.49069e-05
4.39295e-05
4.29736e-05
4.20387e-05
4.11244e-05
4.02302e-05
3.93556e-05
3.85003e-05
3.76637e-05
3.68455e-05
3.60451e-05
3.52623e-05
3.44966e-05
3.37478e-05
3.30155e-05
3.22992e-05
3.15986e-05
3.09132e-05
3.02428e-05
2.95871e-05
2.89458e-05
2.83184e-05
2.77048e-05
2.71046e-05
2.65175e-05
2.59433e-05
2.53818e-05
2.48326e-05
2.42953e-05
2.37696e-05
2.32554e-05
2.27524e-05
2.22605e-05
2.17797e-05
2.13094e-05
2.08493e-05
2.03992e-05
1.99589e-05
1.95282e-05
1.91071e-05
1.86953e-05
1.82926e-05
1.78985e-05
1.7513e-05
1.71359e-05
1.67673e-05
1.64069e-05
1.60544e-05
1.57094e-05
1.53717e-05
1.50411e-05
1.47176e-05
1.44015e-05
1.40925e-05
1.37903e-05
1.34944e-05
1.32046e-05
1.29207e-05
1.26429e-05
1.23712e-05
1.21055e-05
1.18455e-05
1.1591e-05
1.13416e-05
1.10973e-05
1.08583e-05
1.06246e-05
1.0396e-05
1.01722e-05
9.9527e-06
9.73751e-06
9.52672e-06
9.32057e-06
9.11915e-06
8.92224e-06
8.72941e-06
8.54022e-06
8.35446e-06
8.17224e-06
7.99378e-06
7.81926e-06
7.64854e-06
7.48126e-06
7.31702e-06
7.15559e-06
6.99696e-06
6.84126e-06
6.68849e-06
6.53847e-06
6.39083e-06
6.24525e-06
6.10164e-06
5.96012e-06
5.82086e-06
5.68384e-06
5.54874e-06
5.41505e-06
5.28232e-06
5.15045e-06
5.01966e-06
4.89033e-06
4.76269e-06
4.63662e-06
4.51166e-06
4.38732e-06
4.26331e-06
4.13974e-06
4.017e-06
3.89547e-06
3.77526e-06
3.65616e-06
3.53783e-06
3.42005e-06
3.30288e-06
3.18664e-06
3.07169e-06
2.95811e-06
2.84571e-06
2.73411e-06
2.62306e-06
2.51266e-06
2.40338e-06
2.29579e-06
2.19023e-06
2.08656e-06
1.98427e-06
1.88274e-06
1.7817e-06
1.6814e-06
1.58261e-06
1.48618e-06
1.39267e-06
1.30199e-06
1.21354e-06
1.12652e-06
1.04045e-06
9.55409e-07
8.72125e-07
7.91515e-07
7.14342e-07
6.40731e-07
5.70266e-07
5.02086e-07
4.35517e-07
3.70213e-07
3.0654e-07
2.45108e-07
1.86736e-07
1.31712e-07
8.00375e-08
3.10223e-08
-1.58827e-08
-6.13844e-08
-1.05408e-07
-1.47907e-07
-1.88111e-07
-2.25867e-07
-2.60649e-07
-2.93021e-07
-3.22972e-07
-3.51506e-07
-3.78398e-07
-4.04401e-07
-4.28614e-07
-4.51617e-07
-4.72212e-07
-4.91441e-07
-5.08196e-07
-5.24201e-07
-5.3816e-07
-5.52177e-07
-5.64248e-07
-5.76747e-07
-5.86829e-07
-5.97515e-07
-6.05237e-07
-6.14119e-07
-6.19726e-07
-6.27484e-07
-6.31592e-07
-6.38928e-07
-6.41789e-07
-6.4894e-07
-6.50343e-07
-6.57374e-07
-6.57125e-07
-6.64406e-07
-6.6258e-07
-6.70783e-07
-6.67476e-07
-6.77267e-07
-6.72314e-07
-6.84246e-07
-6.7727e-07
-6.91978e-07
-6.82611e-07
-7.00971e-07
-6.88942e-07
-7.11982e-07
-6.97073e-07
-7.25685e-07
-7.07818e-07
-7.42298e-07
-7.21953e-07
-7.60953e-07
-7.40081e-07
-7.77673e-07
-7.61591e-07
-7.78629e-07
-7.80524e-07
-7.15102e-07
-7.6656e-07
-3.67157e-07
-4.73244e-07
-4.73244e-07
-0.0702952