# vtk DataFile Version 2.0
FlowField
ASCII
DATASET STRUCTURED_GRID
DIMENSIONS 400 1 50
POINTS 20000 float
0 0 0
0.08 0 0
0.16 0 0
0.24 0 0
0.32 0 0
0.4 0 0
0.48 0 0
0.56 0 0
0.64 0 0
0.72 0 0
0.8 0 0
0.88 0 0
0.96 0 0
1.04 0 0
1.12 0 0
1.2 0 0
1.28 0 0
1.36 0 0
1.44 0 0
1.52 0 0
1.6 0 0
1.68 0 0
1.76 0 0
1.84 0 0
1.92 0 0
2 0 0
2.08 0 0
2.16 0 0
2.24 0 0
2.32 0 0
2.4 0 0
2.48 0 0
2.56 0 0
2.64 0 0
2.72 0 0
2.8 0 0
2.88 0 0
2.96 0 0
3.04 0 0
3.12 0 0
3.2 0 0
3.28 0 0
3.36 0 0
3.44 0 0
3.52 0 0
3.6 0 0
3.68 0 0
3.76 0 0
3.84 0 0
3.92 0 0
4 0 0
4.08 0 0
4.16 0 0
4.24 0 0
4.32 0 0
4.4 0 0
4.48 0 0
4.56 0 0
4.64 0 0
4.72 0 0
4.8 0 0
4.88 0 0
4.96 0 0
5.04 0 0
5.12 0 0
5.2 0 0
5.28 0 0
5.36 0 0
5.44 0 0
5.52 0 0
5.6 0 0
5.68 0 0
5.76 0 0
5.84 0 0
5.92 0 0
6 0 0
6.08 0 0
6.16 0 0
6.24 0 0
6.32 0 0
6.4 0 0
6.48 0 0
6.56 0 0
6.64 0 0
6.72 0 0
6.8 0 0
6.88 0 0
6.96 0 0
7.04 0 0
7.12 0 0
7.2 0 0
7.28 0 0
7.36 0 0
7.44 0 0
7.52 0 0
7.6 0 0
7.68 0 0
7.76 0 0
7.84 0 0
7.92 0 0
8 0 0
8.08 0 0
8.16 0 0
8.24 0 0
8.32 0 0
8.4 0 0
8.48 0 0
8.56 0 0
8.64 0 0
8.72 0 0
8.8 0 0
8.88 0 0
8.96 0 0
9.04 0 0
9.12 0 0
9.2 0 0
9.28 0 0
9.36 0 0
9.44 0 0
9.52 0 0
9.6 0 0
9.68 0 0
9.76 0 0
9.84 0 0
9.92 0 0
10 0 0
10.08 0 0
10.16 0 0
10.24 0 0
10.32 0 0
10.4 0 0
10.48 0 0
10.56 0 0
10.64 0 0
10.72 0 0
10.8 0 0
10.88 0 0
10.96 0 0
11.04 0 0
11.12 0 0
11.2 0 0
11.28 0 0
11.36 0 0
11.44 0 0
11.52 0 0
11.6 0 0
11.68 0 0
11.76 0 0
11.84 0 0
11.92 0 0
12 0 0
12.08 0 0
12.16 0 0
12.24 0 0
12.32 0 0
12.4 0 0
12.48 0 0
12.56 0 0
12.64 0 0
12.72 0 0
12.8 0 0
12.88 0 0
12.96 0 0
13.04 0 0
13.12 0 0
13.2 0 0
13.28 0 0
13.36 0 0
13.44 0 0
13.52 0 0
13.6 0 0
13.68 0 0
13.76 0 0
13.84 0 0
13.92 0 0
14 0 0
14.08 0 0
14.16 0 0
14.24 0 0
14.32 0 0
14.4 0 0
14.48 0 0
14.56 0 0
14.64 0 0
14.72 0 0
14.8 0 0
14.88 0 0
14.96 0 0
15.04 0 0
15.12 0 0
15.2 0 0
15.28 0 0
15.36 0 0
15.44 0 0
15.52 0 0
15.6 0 0
15.68 0 0
15.76 0 0
15.84 0 0
15.92 0 0
16 0 0
16.08 0 0
16.16 0 0
16.24 0 0
16.32 0 0
16.4 0 0
16.48 0 0
16.56 0 0
16.64 0 0
16.72 0 0
16.8 0 0
16.88 0 0
16.96 0 0
17.04 0 0
17.12 0 0
17.2 0 0
17.28 0 0
17.36 0 0
17.44 0 0
17.52 0 0
17.6 0 0
17.68 0 0
17.76 0 0
17.84 0 0
17.92 0 0
18 0 0
18.08 0 0
18.16 0 0
18.24 0 0
18.32 0 0
18.4 0 0
18.48 0 0
18.56 0 0
18.64 0 0
18.72 0 0
18.8 0 0
18.88 0 0
18.96 0 0
19.04 0 0
19.12 0 0
19.2 0 0
19.28 0 0
19.36 0 0
19.44 0 0
19.52 0 0
19.6 0 0
19.68 0 0
19.76 0 0
19.84 0 0
19.92 0 0
20 0 0
20.08 0 0
20.16 0 0
20.24 0 0
20.32 0 0
20.4 0 0
20.48 0 0
20.56 0 0
20.64 0 0
20.72 0 0
20.8 0 0
20.88 0 0
20.96 0 0
21.04 0 0
21.12 0 0
21.2 0 0
21.28 0 0
21.36 0 0
21.44 0 0
21.52 0 0
21.6 0 0
21.68 0 0
21.76 0 0
21.84 0 0
21.92 0 0
22 0 0
22.08 0 0
22.16 0 0
22.24 0 0
22.32 0 0
22.4 0 0
22.48 0 0
22.56 0 0
22.64 0 0
22.72 0 0
22.8 0 0
22.88 0 0
22.96 0 0
23.04 0 0
23.12 0 0
23.2 0 0
23.28 0 0
23.36 0 0
23.44 0 0
23.52 0 0
23.6 0 0
23.68 0 0
23.76 0 0
23.84 0 0
23.92 0 0
24 0 0
24.08 0 0
24.16 0 0
24.24 0 0
24.32 0 0
24.4 0 0
24.48 0 0
24.56 0 0
24.64 0 0
24.72 0 0
24.8 0 0
24.88 0 0
24.96 0 0
25.04 0 0
25.12 0 0
25.2 0 0
25.28 0 0
25.36 0 0
25.44 0 0
25.52 0 0
25.6 0 0
25.68 0 0
25.76 0 0
25.84 0 0
25.92 0 0
26 0 0
26.08 0 0
26.16 0 0
26.24 0 0
26.32 0 0
26.4 0 0
26.48 0 0
26.56 0 0
26.64 0 0
26.72 0 0
26.8 0 0
26.88 0 0
26.96 0 0
27.04 0 0
27.12 0 0
27.2 0 0
27.28 0 0
27.36 0 0
27.44 0 0
27.52 0 0
27.6 0 0
27.68 0 0
27.76 0 0
27.84 0 0
27.92 0 0
28 0 0
28.08 0 0
28.16 0 0
28.24 0 0
28.32 0 0
28.4 0 0
28.48 0 0
28.56 0 0
28.64 0 0
28.72 0 0
28.8 0 0
28.88 0 0
28.96 0 0
29.04 0 0
29.12 0 0
29.2 0 0
29.28 0 0
29.36 0 0
29.44 0 0
29.52 0 0
29.6 0 0
29.68 0 0
29.76 0 0
29.84 0 0
29.92 0 0
30 0 0
30.08 0 0
30.16 0 0
30.24 0 0
30.32 0 0
30.4 0 0
30.48 0 0
30.56 0 0
30.64 0 0
30.72 0 0
30.8 0 0
30.88 0 0
30.96 0 0
31.04 0 0
31.12 0 0
31.2 0 0
31.28 0 0
31.36 0 0
31.44 0 0
31.52 0 0
31.6 0 0
31.68 0 0
31.76 0 0
31.84 0 0
31.92 0 0
0 0.02 0
0.08 0.02 0
0.16 0.02 0
0.24 0.02 0
0.32 0.02 0
0.4 0.02 0
0.48 0.02 0
0.56 0.02 0
0.64 0.02 0
0.72 0.02 0
0.8 0.02 0
0.88 0.02 0
0.96 0.02 0
1.04 0.02 0
1.12 0.02 0
1.2 0.02 0
1.28 0.02 0
1.36 0.02 0
1.44 0.02 0
1.52 0.02 0
1.6 0.02 0
1.68 0.02 0
1.76 0.02 0
1.84 0.02 0
1.92 0.02 0
2 0.02 0
2.08 0.02 0
2.16 0.02 0
2.24 0.02 0
2.32 0.02 0
2.4 0.02 0
2.48 0.02 0
2.56 0.02 0
2.64 0.02 0
2.72 0.02 0
2.8 0.02 0
2.88 0.02 0
2.96 0.02 0
3.04 0.02 0
3.12 0.02 0
3.2 0.02 0
3.28 0.02 0
3.36 0.02 0
3.44 0.02 0
3.52 0.02 0
3.6 0.02 0
3.68 0.02 0
3.76 0.02 0
3.84 0.02 0
3.92 0.02 0
4 0.02 0
4.08 0.02 0
4.16 0.02 0
4.24 0.02 0
4.32 0.02 0
4.4 0.02 0
4.48 0.02 0
4.56 0.02 0
4.64 0.02 0
4.72 0.02 0
4.8 0.02 0
4.88 0.02 0
4.96 0.02 0
5.04 0.02 0
5.12 0.02 0
5.2 0.02 0
5.28 0.02 0
5.36 0.02 0
5.44 0.02 0
5.52 0.02 0
5.6 0.02 0
5.68 0.02 0
5.76 0.02 0
5.84 0.02 0
5.92 0.02 0
6 0.02 0
6.08 0.02 0
6.16 0.02 0
6.24 0.02 0
6.32 0.02 0
6.4 0.02 0
6.48 0.02 0
6.56 0.02 0
6.64 0.02 0
6.72 0.02 0
6.8 0.02 0
6.88 0.02 0
6.96 0.02 0
7.04 0.02 0
7.12 0.02 0
7.2 0.02 0
7.28 0.02 0
7.36 0.02 0
7.44 0.02 0
7.52 0.02 0
7.6 0.02 0
7.68 0.02 0
7.76 0.02 0
7.84 0.02 0
7.92 0.02 0
8 0.02 0
8.08 0.02 0
8.16 0.02 0
8.24 0.02 0
8.32 0.02 0
8.4 0.02 0
8.48 0.02 0
8.56 0.02 0
8.64 0.02 0
8.72 0.02 0
8.8 0.02 0
8.88 0.02 0
8.96 0.02 0
9.04 0.02 0
9.12 0.02 0
9.2 0.02 0
9.28 0.02 0
9.36 0.02 0
9.44 0.02 0
9.52 0.02 0
9.6 0.02 0
9.68 0.02 0
9.76 0.02 0
9.84 0.02 0
9.92 0.02 0
10 0.02 0
10.08 0.02 0
10.16 0.02 0
10.24 0.02 0
10.32 0.02 0
10.4 0.02 0
10.48 0.02 0
10.56 0.02 0
10.64 0.02 0
10.72 0.02 0
10.8 0.02 0
10.88 0.02 0
10.96 0.02 0
11.04 0.02 0
11.12 0.02 0
11.2 0.02 0
11.28 0.02 0
11.36 0.02 0
11.44 0.02 0
11.52 0.02 0
11.6 0.02 0
11.68 0.02 0
11.76 0.02 0
11.84 0.02 0
11.92 0.02 0
12 0.02 0
12.08 0.02 0
12.16 0.02 0
12.24 0.02 0
12.32 0.02 0
12.4 0.02 0
12.48 0.02 0
12.56 0.02 0
12.64 0.02 0
12.72 0.02 0
12.8 0.02 0
12.88 0.02 0
12.96 0.02 0
13.04 0.02 0
13.12 0.02 0
13.2 0.02 0
13.28 0.02 0
13.36 0.02 0
13.44 0.02 0
13.52 0.02 0
13.6 0.02 0
13.68 0.02 0
13.76 0.02 0
13.84 0.02 0
13.92 0.02 0
14 0.02 0
14.08 0.02 0
14.16 0.02 0
14.24 0.02 0
14.32 0.02 0
14.4 0.02 0
14.48 0.02 0
14.56 0.02 0
14.64 0.02 0
14.72 0.02 0
14.8 0.02 0
14.88 0.02 0
14.96 0.02 0
15.04 0.02 0
15.12 0.02 0
15.2 0.02 0
15.28 0.02 0
15.36 0.02 0
15.44 0.02 0
15.52 0.02 0
15.6 0.02 0
15.68 0.02 0
15.76 0.02 0
15.84 0.02 0
15.92 0.02 0
16 0.02 0
16.08 0.02 0
16.16 0.02 0
16.24 0.02 0
16.32 0.02 0
16.4 0.02 0
16.48 0.02 0
16.56 0.02 0
16.64 0.02 0
16.72 0.02 0
16.8 0.02 0
16.88 0.02 0
16.96 0.02 0
17.04 0.02 0
17.12 0.02 0
17.2 0.02 0
17.28 0.02 0
17.36 0.02 0
17.44 0.02 0
17.52 0.02 0
17.6 0.02 0
17.68 0.02 0
17.76 0.02 0
17.84 0.02 0
17.92 0.02 0
18 0.02 0
18.08 0.02 0
18.16 0.02 0
18.24 0.02 0
18.32 0.02 0
18.4 0.02 0
18.48 0.02 0
18.56 0.02 0
18.64 0.02 0
18.72 0.02 0
18.8 0.02 0
18.88 0.02 0
18.96 0.02 0
19.04 0.02 0
19.12 0.02 0
19.2 0.02 0
19.28 0.02 0
19.36 0.02 0
19.44 0.02 0
19.52 0.02 0
19.6 0.02 0
19.68 0.02 0
19.76 0.02 0
19.84 0.02 0
19.92 0.02 0
20 0.02 0
20.08 0.02 0
20.16 0.02 0
20.24 0.02 0
20.32 0.02 0
20.4 0.02 0
20.48 0.02 0
20.56 0.02 0
20.64 0.02 0
20.72 0.02 0
20.8 0.02 0
20.88 0.02 0
20.96 0.02 0
21.04 0.02 0
21.12 0.02 0
21.2 0.02 0
21.28 0.02 0
21.36 0.02 0
21.44 0.02 0
21.52 0.02 0
21.6 0.02 0
21.68 0.02 0
21.76 0.02 0
21.84 0.02 0
21.92 0.02 0
22 0.02 0
22.08 0.02 0
22.16 0.02 0
22.24 0.02 0
22.32 0.02 0
22.4 0.02 0
22.48 0.02 0
22.56 0.02 0
22.64 0.02 0
22.72 0.02 0
22.8 0.02 0
22.88 0.02 0
22.96 0.02 0
23.04 0.02 0
23.12 0.02 0
23.2 0.02 0
23.28 0.02 0
23.36 0.02 0
23.44 0.02 0
23.52 0.02 0
23.6 0.02 0
23.68 0.02 0
23.76 0.02 0
23.84 0.02 0
23.92 0.02 0
24 0.02 0
24.08 0.02 0
24.16 0.02 0
24.24 0.02 0
24.32 0.02 0
24.4 0.02 0
24.48 0.02 0
24.56 0.02 0
24.64 0.02 0
24.72 0.02 0
24.8 0.02 0
24.88 0.02 0
24.96 0.02 0
25.04 0.02 0
25.12 0.02 0
25.2 0.02 0
25.28 0.02 0
25.36 0.02 0
25.44 0.02 0
25.52 0.02 0
25.6 0.02 0
25.68 0.02 0
25.76 0.02 0
25.84 0.02 0
25.92 0.02 0
26 0.02 0
26.08 0.02 0
26.16 0.02 0
26.24 0.02 0
26.32 0.02 0
26.4 0.02 0
26.48 0.02 0
26.56 0.02 0
26.64 0.02 0
26.72 0.02 0
26.8 0.02 0
26.88 0.02 0
26.96 0.02 0
27.04 0.02 0
27.12 0.02 0
27.2 0.02 0
27.28 0.02 0
27.36 0.02 0
27.44 0.02 0
27.52 0.02 0
27.6 0.02 0
27.68 0.02 0
27.76 0.02 0
27.84 0.02 0
27.92 0.02 0
28 0.02 0
28.08 0.02 0
28.16 0.02 0
28.24 0.02 0
28.32 0.02 0
28.4 0.02 0
28.48 0.02 0
28.56 0.02 0
28.64 0.02 0
28.72 0.02 0
28.8 0.02 0
28.88 0.02 0
28.96 0.02 0
29.04 0.02 0
29.12 0.02 0
29.2 0.02 0
29.28 0.02 0
29.36 0.02 0
29.44 0.02 0
29.52 0.02 0
29.6 0.02 0
29.68 0.02 0
29.76 0.02 0
29.84 0.02 0
29.92 0.02 0
30 0.02 0
30.08 0.02 0
30.16 0.02 0
30.24 0.02 0
30.32 0.02 0
30.4 0.02 0
30.48 0.02 0
30.56 0.02 0
30.64 0.02 0
30.72 0.02 0
30.8 0.02 0
30.88 0.02 0
30.96 0.02 0
31.04 0.02 0
31.12 0.02 0
31.2 0.02 0
31.28 0.02 0
31.36 0.02 0
31.44 0.02 0
31.52 0.02 0
31.6 0.02 0
31.68 0.02 0
31.76 0.02 0
31.84 0.02 0
31.92 0.02 0
0 0.04 0
0.08 0.04 0
0.16 0.04 0
0.24 0.04 0
0.32 0.04 0
0.4 0.04 0
0.48 0.04 0
0.56 0.04 0
0.64 0.04 0
0.72 0.04 0
0.8 0.04 0
0.88 0.04 0
0.96 0.04 0
1.04 0.04 0
1.12 0.04 0
1.2 0.04 0
1.28 0.04 0
1.36 0.04 0
1.44 0.04 0
1.52 0.04 0
1.6 0.04 0
1.68 0.04 0
1.76 0.04 0
1.84 0.04 0
1.92 0.04 0
2 0.04 0
2.08 0.04 0
2.16 0.04 0
2.24 0.04 0
2.32 0.04 0
2.4 0.04 0
2.48 0.04 0
2.56 0.04 0
2.64 0.04 0
2.72 0.04 0
2.8 0.04 0
2.88 0.04 0
2.96 0.04 0
3.04 0.04 0
3.12 0.04 0
3.2 0.04 0
3.28 0.04 0
3.36 0.04 0
3.44 0.04 0
3.52 0.04 0
3.6 0.04 0
3.68 0.04 0
3.76 0.04 0
3.84 0.04 0
3.92 0.04 0
4 0.04 0
4.08 0.04 0
4.16 0.04 0
4.24 0.04 0
4.32 0.04 0
4.4 0.04 0
4.48 0.04 0
4.56 0.04 0
4.64 0.04 0
4.72 0.04 0
4.8 0.04 0
4.88 0.04 0
4.96 0.04 0
5.04 0.04 0
5.12 0.04 0
5.2 0.04 0
5.28 0.04 0
5.36 0.04 0
5.44 0.04 0
5.52 0.04 0
5.6 0.04 0
5.68 0.04 0
5.76 0.04 0
5.84 0.04 0
5.92 0.04 0
6 0.04 0
6.08 0.04 0
6.16 0.04 0
6.24 0.04 0
6.32 0.04 0
6.4 0.04 0
6.48 0.04 0
6.56 0.04 0
6.64 0.04 0
6.72 0.04 0
6.8 0.04 0
6.88 0.04 0
6.96 0.04 0
7.04 0.04 0
7.12 0.04 0
7.2 0.04 0
7.28 0.04 0
7.36 0.04 0
7.44 0.04 0
7.52 0.04 0
7.6 0.04 0
7.68 0.04 0
7.76 0.04 0
7.84 0.04 0
[...]
POINT_DATA 20000

SCALARS u float 1
LOOKUP_TABLE default
0
-0.507076
-0.291899
-0.214134
-0.178994
-0.158628
-0.14507
-0.135315
-0.127918
-0.122087
-0.117345
-0.113391
-0.110024
-0.107108
-0.104547
-0.10227
-0.100228
-0.0983802
-0.0966977
-0.0951565
-0.0937378
-0.0924263
-0.0912093
-0.0900761
-0.0890179
-0.0880269
-0.0870966
-0.0862212
-0.0853958
-0.084616
-0.083878
-0.0831783
-0.0825138
-0.081882
-0.0812803
-0.0807066
-0.0801589
-0.0796353
-0.0791343
-0.0786544
-0.0781942
-0.0777525
-0.0773283
-0.0769204
-0.0765279
-0.07615
-0.0757858
-0.0754346
-0.0750957
-0.0747685
-0.0744523
-0.0741467
-0.0738512
-0.0735652
-0.0732884
-0.0730202
-0.0727603
-0.0725083
-0.0722639
-0.0720268
-0.0717966
-0.0715731
-0.071356
-0.0711451
-0.0709401
-0.0707407
-0.0705468
-0.070358
-0.0701743
-0.0699955
-0.0698215
-0.0696521
-0.0694871
-0.0693263
-0.0691697
-0.069017
-0.0688681
-0.0687229
-0.0685812
-0.0684431
-0.0683083
-0.0681769
-0.0680486
-0.0679234
-0.0678011
-0.0676817
-0.0675649
-0.0674508
-0.0673393
-0.0672304
-0.0671241
-0.0670204
-0.0669191
-0.06682
-0.0667231
-0.0666283
-0.0665355
-0.0664447
-0.066356
-0.0662693
-0.0661846
-0.0661018
-0.0660208
-0.0659416
-0.0658639
-0.0657878
-0.0657133
-0.0656402
-0.0655688
-0.0654991
-0.0654311
-0.0653647
-0.0652998
-0.0652362
-0.0651738
-0.0651125
-0.0650525
-0.0649938
-0.0649366
-0.0648808
-0.0648263
-0.0647731
-0.0647212
-0.0646703
-0.0646205
-0.0645716
-0.0645239
-0.0644775
-0.0644324
-0.0643889
-0.0643469
-0.0643063
-0.0642668
-0.0642283
-0.0641906
-0.0641539
-0.0641184
-0.0640844
-0.064052
-0.0640214
-0.0639921
-0.0639639
-0.0639364
-0.0639097
-0.0638839
-0.0638594
-0.0638365
-0.0638152
-0.0637956
-0.0637772
-0.0637598
-0.0637431
-0.0637271
-0.063712
-0.063698
-0.0636853
-0.063674
-0.0636639
-0.0636548
-0.0636464
-0.0636386
-0.0636314
-0.0636248
-0.0636191
-0.0636143
-0.0636104
-0.0636074
-0.063605
-0.0636033
-0.063602
-0.0636012
-0.0636008
-0.0636009
-0.0636016
-0.0636028
-0.0636045
-0.0636065
-0.0636089
-0.0636116
-0.0636145
-0.0636176
-0.0636209
-0.0636245
-0.0636284
-0.0636325
-0.0636369
-0.0636414
-0.0636461
-0.0636508
-0.0636556
-0.0636605
-0.0636654
-0.0636703
-0.0636754
-0.0636804
-0.0636855
-0.0636907
-0.0636959
-0.0637012
-0.0637064
-0.0637117
-0.063717
-0.0637222
-0.0637275
-0.0637328
-0.0637381
-0.0637435
-0.0637488
-0.0637542
-0.0637595
-0.0637649
-0.0637703
-0.0637757
-0.0637811
-0.0637865
-0.063792
-0.0637974
-0.0638029
-0.0638084
-0.0638138
-0.0638193
-0.0638248
-0.0638303
-0.0638359
-0.0638414
-0.0638469
-0.0638525
-0.0638581
-0.0638637
-0.0638692
-0.0638748
-0.0638805
-0.0638861
-0.0638917
-0.0638973
-0.063903
-0.0639087
-0.0639143
-0.06392
-0.0639257
-0.0639314
-0.0639371
-0.0639429
-0.0639486
-0.0639543
-0.0639601
-0.0639659
-0.0639716
-0.0639774
-0.0639832
-0.063989
-0.0639948
-0.0640006
-0.0640065
-0.0640123
-0.0640182
-0.064024
-0.0640299
-0.0640358
-0.0640417
-0.0640476
-0.0640535
-0.0640594
-0.0640653
-0.0640712
-0.0640772
-0.0640831
-0.0640891
-0.064095
-0.064101
-0.064107
-0.064113
-0.064119
-0.064125
-0.064131
-0.064137
-0.0641431
-0.0641491
-0.0641552
-0.0641612
-0.0641673
-0.0641734
-0.0641794
-0.0641855
-0.0641916
-0.0641977
-0.0642038
-0.06421
-0.0642161
-0.0642222
-0.0642284
-0.0642345
-0.0642407
-0.0642468
-0.064253
-0.0642592
-0.0642653
-0.0642715
-0.0642777
-0.0642839
-0.0642901
-0.0642963
-0.0643026
-0.0643088
-0.064315
-0.0643213
-0.0643275
-0.0643338
-0.06434
-0.0643463
-0.0643525
-0.0643588
-0.0643651
-0.0643714
-0.0643777
-0.064384
-0.0643903
-0.0643966
-0.0644029
-0.0644092
-0.0644155
-0.0644219
-0.0644282
-0.0644345
-0.0644409
-0.0644472
-0.0644536
-0.0644599
-0.0644663
-0.0644727
-0.064479
-0.0644854
-0.0644918
-0.0644982
-0.0645046
-0.0645109
-0.0645173
-0.0645237
-0.0645301
-0.0645366
-0.064543
-0.0645494
-0.0645558
-0.0645622
-0.0645686
-0.0645751
-0.0645815
-0.0645879
-0.0645944
-0.0646008
-0.0646073
-0.0646137
-0.0646202
-0.0646266
-0.0646331
-0.0646395
-0.064646
-0.0646525
-0.0646589
-0.0646654
-0.0646719
-0.0646783
-0.0646848
-0.0646913
-0.0646978
-0.0647043
-0.0647107
-0.0647173
-0.0647237
-0.0647302
-0.0647367
-0.0647432
-0.0647497
-0.0647563
-0.0647627
-0.0647693
-0.0647757
-0.0647823
-0.0647888
-0.0647954
-0.0648019
-0.0648085
-0.0648149
-0.0648217
-0.0648281
-0.0648349
-0.0648412
-0.0648481
-0.0648544
-0.0648614
-0.0648677
-0.0648747
-0.064881
-0.064888
-0.0648941
-0.0649005
-0.0649064
-0.0649068
-0.0649068
-0.0649068
1
0.507076
0.291899
0.214134
0.178994
0.158628
0.14507
0.135315
0.127918
0.122087
0.117345
0.113391
0.110024
0.107108
0.104547
0.10227
0.100228
0.0983802
0.0966977
0.0951565
0.0937378
0.0924263
0.0912093
0.0900761
0.0890179
0.0880269
0.0870966
0.0862212
0.0853958
0.084616
0.083878
0.0831783
0.0825138
0.081882
0.0812803
0.0807066
0.0801589
0.0796353
0.0791343
0.0786544
0.0781942
0.0777525
0.0773283
0.0769204
0.0765279
0.07615
0.0757858
0.0754346
0.0750957
0.0747685
0.0744523
0.0741467
0.0738512
0.0735652
0.0732884
0.0730202
0.0727603
0.0725083
0.0722639
0.0720268
0.0717966
0.0715731
0.071356
0.0711451
0.0709401
0.0707407
0.0705468
0.070358
0.0701743
0.0699955
0.0698215
0.0696521
0.0694871
0.0693263
0.0691697
0.069017
0.0688681
0.0687229
0.0685812
0.0684431
0.0683083
0.0681769
0.0680486
0.0679234
0.0678011
0.0676817
0.0675649
0.0674508
0.0673393
0.0672304
0.0671241
0.0670204
0.0669191
0.06682
0.0667231
0.0666283
0.0665355
0.0664447
0.066356
0.0662693
0.0661846
0.0661018
0.0660208
0.0659416
0.0658639
0.0657878
0.0657133
0.0656402
0.0655688
0.0654991
0.0654311
0.0653647
0.0652998
0.0652362
0.0651738
0.0651125
0.0650525
0.0649938
0.0649366
0.0648808
0.0648263
0.0647731
0.0647212
0.0646703
0.0646205
0.0645716
0.0645239
0.0644775
0.0644324
0.0643889
0.0643469
0.0643063
0.0642668
0.0642283
0.0641906
0.0641539
0.0641184
0.0640844
0.064052
0.0640214
0.0639921
0.0639639
0.0639364
0.0639097
0.0638839
0.0638594
0.0638365
0.0638152
0.0637956
0.0637772
0.0637598
0.0637431
0.0637271
0.063712
0.063698
0.0636853
0.063674
0.0636639
0.0636548
0.0636464
0.0636386
0.0636314
0.0636248
0.0636191
0.0636143
0.0636104
0.0636074
0.063605
0.0636033
0.063602
0.0636012
0.0636008
0.0636009
0.0636016
0.0636028
0.0636045
0.0636065
0.0636089
0.0636116
0.0636145
0.0636176
0.0636209
0.0636245
0.0636284
0.0636325
0.0636369
0.0636414
0.0636461
0.0636508
0.0636556
0.0636605
0.0636654
0.0636703
0.0636754
0.0636804
0.0636855
0.0636907
0.0636959
0.0637012
0.0637064
0.0637117
0.063717
0.0637222
0.0637275
0.0637328
0.0637381
0.0637435
0.0637488
0.0637542
0.0637595
0.0637649
0.0637703
0.0637757
0.0637811
0.0637865
0.063792
0.0637974
0.0638029
0.0638084
0.0638138
0.0638193
0.0638248
0.0638303
0.0638359
0.0638414
0.0638469
0.0638525
0.0638581
0.0638637
0.0638692
0.0638748
0.0638805
0.0638861
0.0638917
0.0638973
0.063903
0.0639087
0.0639143
0.06392
0.0639257
0.0639314
0.0639371
0.0639429
0.0639486
0.0639543
0.0639601
0.0639659
0.0639716
0.0639774
0.0639832
0.063989
0.0639948
0.0640006
0.0640065
0.0640123
0.0640182
0.064024
0.0640299
0.0640358
0.0640417
0.0640476
0.0640535
0.0640594
0.0640653
0.0640712
0.0640772
0.0640831
0.0640891
0.064095
0.064101
0.064107
0.064113
0.064119
0.064125
0.064131
0.064137
0.0641431
0.0641491
0.0641552
0.0641612
0.0641673
0.0641734
0.0641794
0.0641855
0.0641916
0.0641977
0.0642038
0.06421
0.0642161
0.0642222
0.0642284
0.0642345
0.0642407
0.0642468
0.064253
0.0642592
0.0642653
0.0642715
0.0642777
0.0642839
0.0642901
0.0642963
0.0643026
0.0643088
0.064315
0.0643213
0.0643275
0.0643338
0.06434
0.0643463
0.0643525
0.0643588
0.0643651
0.0643714
0.0643777
0.064384
0.0643903
0.0643966
0.0644029
0.0644092
0.0644155
0.0644219
0.0644282
0.0644345
0.0644409
0.0644472
0.0644536
0.0644599
0.0644663
0.0644727
0.064479
0.0644854
0.0644918
0.0644982
0.0645046
0.0645109
0.0645173
0.0645237
0.0645301
0.0645366
0.064543
0.0645494
0.0645558
0.0645622
0.0645686
0.0645751
0.0645815
0.0645879
0.0645944
0.0646008
0.0646073
0.0646137
0.0646202
0.0646266
0.0646331
0.0646395
0.064646
0.0646525
0.0646589
0.0646654
0.0646719
0.0646783
0.0646848
0.0646913
0.0646978
0.0647043
0.0647107
0.0647173
0.0647237
0.0647302
0.0647367
0.0647432
0.0647497
0.0647563
0.0647627
0.0647693
0.0647757
0.0647823
0.0647888
0.0647954
0.0648019
0.0648085
0.0648149
0.0648217
0.0648281
0.0648349
0.0648412
0.0648481
0.0648544
0.0648614
0.0648677
0.0648747
0.064881
0.064888
0.0648941
0.0649005
0.0649064
0.0649068
0.0649068
0.0649068
1
0.924275
0.73541
0.597501
0.511595
0.456269
0.418098
0.390185
0.368844
0.351951
0.338194
0.326728
0.316979
0.308555
0.301173
0.294629
0.28877
0.283482
0.278676
0.274281
0.270241
0.266511
0.263054
0.259838
0.256838
0.25403
0.251396
0.248919
0.246585
0.244381
0.242296
0.24032
0.238445
0.236662
0.234965
0.233347
0.231803
0.230328
0.228917
0.227565
0.22627
0.225027
0.223833
0.222686
0.221582
0.22052
0.219496
0.218509
0.217557
0.216638
0.215751
0.214893
0.214064
0.213261
0.212485
0.211733
0.211004
0.210298
0.209613
0.208949
0.208304
0.207678
0.20707
0.20648
0.205906
0.205348
0.204806
0.204278
0.203765
0.203265
0.202779
0.202305
0.201845
0.201396
0.200958
0.200532
0.200116
0.199711
0.199316
0.198931
0.198555
0.198188
0.197831
0.197482
0.197141
0.196808
0.196482
0.196165
0.195854
0.195551
0.195256
0.194967
0.194685
0.194409
0.194139
0.193875
0.193617
0.193365
0.193118
0.192877
0.192642
0.192411
0.192186
0.191965
0.191749
0.191538
0.191331
0.191128
0.19093
0.190737
0.190548
0.190363
0.190183
0.190006
0.189832
0.189663
0.189497
0.189334
0.189176
0.189021
0.188871
0.188724
0.18858
0.188439
0.188302
0.188168
0.188037
0.18791
0.187787
0.187669
0.187554
0.187443
0.187335
0.18723
0.187127
0.187029
0.186933
0.186842
0.186756
0.186673
0.186595
0.186518
0.186445
0.186374
0.186307
0.186243
0.186183
0.186128
0.186077
0.186028
0.185983
0.185939
0.185898
0.18586
0.185825
0.185794
0.185765
0.18574
0.185717
0.185696
0.185677
0.185659
0.185644
0.185631
0.185621
0.185612
0.185606
0.185601
0.185598
0.185596
0.185596
0.185596
0.185598
0.185602
0.185606
0.185612
0.185619
0.185626
0.185635
0.185643
0.185653
0.185663
0.185674
0.185685
0.185697
0.185709
0.185722
0.185735
0.185748
0.185761
0.185775
0.185788
0.185802
0.185816
0.18583
0.185844
0.185858
0.185872
0.185887
0.185901
0.185915
0.18593
0.185944
0.185958
0.185973
0.185987
0.186002
0.186016
0.186031
0.186045
0.18606
0.186074
0.186089
0.186103
0.186118
0.186133
0.186147
0.186162
0.186177
0.186192
0.186206
0.186221
0.186236
0.186251
0.186266
0.186281
0.186296
0.18631
0.186325
0.18634
0.186355
0.18637
0.186385
0.1864
0.186415
0.186431
0.186446
0.186461
0.186476
0.186491
0.186506
0.186522
0.186537
0.186552
0.186567
0.186583
0.186598
0.186613
0.186629
0.186644
0.186659
0.186675
0.18669
0.186706
0.186721
0.186737
0.186752
0.186768
0.186783
0.186799
0.186814
0.18683
0.186846
0.186861
0.186877
0.186893
0.186908
0.186924
0.18694
0.186955
0.186971
0.186987
0.187003
0.187018
0.187034
0.18705
0.187066
0.187082
0.187098
0.187114
0.18713
0.187145
0.187161
0.187177
0.187193
0.187209
0.187225
0.187241
0.187257
0.187273
0.18729
0.187306
0.187322
0.187338
0.187354
0.18737
0.187386
0.187402
0.187419
0.187435
0.187451
0.187467
0.187483
0.1875
0.187516
0.187532
0.187548
0.187565
0.187581
0.187597
0.187614
0.18763
0.187646
0.187663
0.187679
0.187695
0.187712
0.187728
0.187745
0.187761
0.187777
0.187794
0.18781
0.187827
0.187843
0.18786
0.187876
0.187893
0.187909
0.187926
0.187942
0.187959
0.187975
0.187992
0.188008
0.188025
0.188042
0.188058
0.188075
0.188091
0.188108
0.188124
0.188141
0.188158
0.188174
0.188191
0.188208
0.188224
0.188241
0.188257
0.188274
0.188291
0.188307
0.188324
0.188341
0.188357
0.188374
0.188391
0.188408
0.188424
0.188441
0.188458
0.188474
0.188491
0.188508
0.188525
0.188541
0.188558
0.188575
0.188591
0.188608
0.188625
0.188642
0.188659
0.188675
0.188692
0.188709
0.188726
0.188742
0.188759
0.188776
0.188793
0.18881
0.188827
0.188843
0.188861
0.188877
0.188895
0.188911
0.188929
0.188945
0.188963
0.18898
0.188998
0.189013
0.18903
0.189045
0.189052
0.189052
0.189052
1
1.07968
0.997029
0.883593
0.788624
0.716825
0.662947
0.621719
0.589363
0.563337
0.541933
0.523981
0.508663
0.495397
0.483759
0.473439
0.464199
0.45586
0.448283
0.441356
0.434991
0.429115
0.423671
0.418608
0.413884
0.409465
0.405319
0.401421
0.397749
0.394281
0.391001
0.387892
0.384943
0.382139
0.37947
0.376926
0.374498
0.372178
0.369959
0.367835
0.365798
0.363845
0.361969
0.360166
0.358432
0.356762
0.355154
0.353604
0.352109
0.350666
0.349273
0.347926
0.346625
0.345366
0.344147
0.342967
0.341824
0.340716
0.339641
0.338599
0.337588
0.336607
0.335654
0.334729
0.33383
0.332956
0.332106
0.331279
0.330475
0.329693
0.328932
0.328191
0.327469
0.326767
0.326082
0.325415
0.324765
0.324132
0.323514
0.322911
0.322324
0.321751
0.321191
0.320646
0.320113
0.319593
0.319085
0.318589
0.318104
0.317631
0.31717
0.316719
0.316278
0.315848
0.315427
0.315015
0.314612
0.314218
0.313834
0.313458
0.31309
0.312731
0.312379
0.312035
0.311698
0.311368
0.311046
0.31073
0.310422
0.310121
0.309826
0.309538
0.309257
0.308981
0.308711
0.308447
0.308188
0.307936
0.30769
0.30745
0.307215
0.306987
0.306763
0.306545
0.306332
0.306125
0.305923
0.305727
0.305537
0.305354
0.305177
0.305005
0.304838
0.304677
0.30452
0.304368
0.304223
0.304084
0.303952
0.303826
0.303705
0.303589
0.303477
0.30337
0.303268
0.303173
0.303083
0.303
0.302922
0.302849
0.302781
0.302716
0.302655
0.302599
0.302547
0.302501
0.302459
0.302422
0.302388
0.302357
0.30233
0.302305
0.302284
0.302266
0.302251
0.30224
0.302231
0.302226
0.302222
0.30222
0.302221
0.302223
0.302227
0.302234
0.302242
0.302251
0.302262
0.302274
0.302288
0.302302
0.302317
0.302333
0.30235
0.302367
0.302386
0.302405
0.302425
0.302445
0.302465
0.302485
0.302506
0.302527
0.302548
0.302569
0.30259
0.302611
0.302633
0.302655
0.302676
0.302698
0.30272
0.302741
0.302763
0.302785
0.302807
0.302829
0.30285
0.302872
0.302894
0.302916
0.302938
0.30296
0.302982
0.303004
0.303026
0.303048
0.30307
0.303093
0.303115
0.303137
0.303159
0.303181
0.303204
0.303226
0.303248
0.303271
0.303293
0.303316
0.303338
0.30336
0.303383
0.303405
0.303428
0.30345
0.303473
0.303496
0.303518
0.303541
0.303564
0.303586
0.303609
0.303632
0.303654
0.303677
0.3037
0.303723
0.303746
0.303769
0.303791
0.303814
0.303837
0.30386
0.303883
0.303906
0.303929
0.303952
0.303975
0.303998
0.304022
0.304045
0.304068
0.304091
0.304114
0.304137
0.304161
0.304184
0.304207
0.30423
0.304254
0.304277
0.3043
0.304324
0.304347
0.304371
0.304394
0.304417
0.304441
0.304464
0.304488
0.304511
0.304535
0.304558
0.304582
0.304606
0.304629
0.304653
0.304676
0.3047
0.304724
0.304747
0.304771
0.304795
0.304819
0.304842
0.304866
0.30489
0.304914
0.304937
0.304961
0.304985
0.305009
0.305033
0.305057
0.305081
0.305105
0.305128
0.305152
0.305176
0.3052
0.305224
0.305248
0.305272
0.305296
0.30532
0.305344
0.305368
0.305392
0.305417
0.305441
0.305465
0.305489
0.305513
0.305537
0.305561
0.305585
0.305609
0.305634
0.305658
0.305682
0.305706
0.30573
0.305755
0.305779
0.305803
0.305827
0.305852
0.305876
0.3059
0.305924
0.305949
0.305973
0.305997
0.306021
0.306046
0.30607
0.306094
0.306119
0.306143
0.306167
0.306192
0.306216
0.30624
0.306265
0.306289
0.306313
0.306338
0.306362
0.306387
0.306411
0.306435
0.30646
0.306484
0.306508
0.306533
0.306557
0.306582
0.306606
0.306631
0.306655
0.306679
0.306704
0.306728
0.306753
0.306777
0.306802
0.306826
0.30685
0.306875
0.306899
0.306924
0.306948
0.306973
0.306998
0.307023
0.307047
0.307072
0.307096
0.307122
0.307146
0.307172
0.307195
0.307222
0.307245
0.307272
0.307295
0.30732
0.307342
0.307358
0.307358
0.307358
1
1.11177
1.11434
1.05551
0.9843
0.918945
0.863695
0.818095
0.780508
0.749269
0.722996
0.700613
0.681302
0.664445
0.649572
0.636326
0.624429
0.613666
0.603867
0.594894
0.586639
0.579011
0.571936
0.56535
0.559202
0.553445
0.548043
0.54296
0.538168
0.533642
0.529358
0.525298
0.521444
0.517779
0.514289
0.510962
0.507786
0.504751
0.501847
0.499066
0.496401
0.493843
0.491386
0.489025
0.486754
0.484568
0.482462
0.480431
0.478473
0.476583
0.474758
0.472994
0.471289
0.469639
0.468043
0.466497
0.465
0.463549
0.462142
0.460777
0.459453
0.458168
0.456921
0.455709
0.454531
0.453387
0.452275
0.451193
0.450141
0.449117
0.448121
0.447152
0.446208
0.445289
0.444394
0.443521
0.442671
0.441843
0.441035
0.440247
0.439479
0.43873
0.438
0.437286
0.43659
0.435911
0.435247
0.4346
0.433967
0.43335
0.432747
0.432159
0.431583
0.431021
0.430472
0.429934
0.429409
0.428895
0.428393
0.427903
0.427423
0.426954
0.426495
0.426046
0.425607
0.425177
0.424757
0.424345
0.423944
0.423551
0.423167
0.422792
0.422425
0.422065
0.421713
0.421369
0.421033
0.420704
0.420384
0.420071
0.419766
0.419468
0.419178
0.418894
0.418618
0.418349
0.418087
0.417833
0.417587
0.41735
0.41712
0.416897
0.416681
0.416472
0.41627
0.416075
0.415888
0.415709
0.415538
0.415376
0.41522
0.41507
0.414927
0.41479
0.41466
0.414538
0.414424
0.414317
0.414218
0.414125
0.414037
0.413954
0.413877
0.413806
0.413741
0.413683
0.41363
0.413583
0.41354
0.413502
0.413467
0.413436
0.41341
0.413388
0.41337
0.413356
0.413346
0.413339
0.413335
0.413334
0.413335
0.413338
0.413344
0.413353
0.413363
0.413376
0.41339
0.413406
0.413423
0.413441
0.413461
0.413481
0.413503
0.413526
0.41355
0.413574
0.413599
0.413624
0.41365
0.413675
0.413701
0.413728
0.413754
0.413781
0.413808
0.413834
0.413862
0.413889
0.413916
0.413943
0.41397
0.413998
0.414025
0.414052
0.41408
0.414107
0.414135
0.414162
0.414189
0.414217
0.414245
0.414272
0.4143
0.414327
0.414355
0.414383
0.41441
0.414438
0.414466
0.414493
0.414521
0.414549
0.414577
0.414605
0.414633
0.414661
0.414688
0.414716
0.414744
0.414772
0.4148
0.414828
0.414856
0.414885
0.414913
0.414941
0.414969
0.414997
0.415025
0.415054
0.415082
0.41511
0.415138
0.415167
0.415195
0.415223
0.415252
0.41528
0.415309
0.415337
0.415366
0.415394
0.415423
0.415451
0.41548
0.415508
0.415537
0.415565
0.415594
0.415623
0.415651
0.41568
0.415709
0.415738
0.415766
0.415795
0.415824
0.415853
0.415881
0.41591
0.415939
0.415968
0.415997
0.416026
0.416055
0.416084
0.416113
0.416142
0.416171
0.4162
0.416229
0.416258
0.416287
0.416316
0.416345
0.416374
0.416403
0.416433
0.416462
0.416491
0.41652
0.416549
0.416579
0.416608
0.416637
0.416666
0.416696
0.416725
0.416754
0.416784
0.416813
0.416842
0.416872
0.416901
0.41693
0.41696
0.416989
0.417019
0.417048
0.417078
0.417107
0.417137
0.417166
0.417196
0.417225
0.417255
0.417284
0.417314
0.417343
0.417373
0.417402
0.417432
0.417462
0.417491
0.417521
0.41755
0.41758
0.41761
0.417639
0.417669
0.417699
0.417728
0.417758
0.417788
0.417817
0.417847
0.417877
0.417906
0.417936
0.417966
0.417996
0.418025
0.418055
0.418085
0.418115
0.418144
0.418174
0.418204
0.418234
0.418263
0.418293
0.418323
0.418353
0.418383
0.418412
0.418442
0.418472
0.418502
0.418532
0.418561
0.418591
0.418621
0.418651
0.418681
0.41871
0.41874
0.41877
0.4188
0.41883
0.41886
0.418889
0.418919
0.418949
0.418979
0.419009
0.419039
0.419068
0.419099
0.419128
0.419159
0.419188
0.419219
0.419248
0.419279
0.419308
0.419339
0.419368
0.4194
0.419429
0.41946
0.419489
0.419522
0.41955
0.419583
0.41961
0.419642
0.419668
0.419695
0.419695
0.419695
1
1.09591
1.14363
1.13397
1.09763
1.05325
1.00932
0.969102
0.933492
0.902351
0.875176
0.851385
0.830435
0.811862
0.795278
0.780368
0.766876
0.754596
0.74336
0.73303
0.723492
0.714652
0.70643
0.698759
0.691583
0.684853
0.678525
0.672563
0.666935
0.661612
0.656569
0.651784
0.647237
0.64291
0.638786
0.634852
0.631094
0.627501
0.624061
0.620765
0.617603
0.614569
0.611653
0.608849
0.606152
0.603554
0.601051
0.598637
0.596308
0.59406
0.591889
0.58979
0.587761
0.585798
0.583898
0.582057
0.580275
0.578547
0.576871
0.575246
0.573669
0.572138
0.570652
0.569209
0.567806
0.566443
0.565118
0.56383
0.562576
0.561357
0.560171
0.559017
0.557893
0.556798
0.555732
0.554694
0.553681
0.552695
0.551733
0.550795
0.549881
0.54899
0.54812
0.547271
0.546443
0.545634
0.544845
0.544075
0.543322
0.542588
0.541871
0.541171
0.540488
0.539819
0.539166
0.538527
0.537902
0.537292
0.536695
0.536112
0.535542
0.534984
0.534439
0.533906
0.533384
0.532873
0.532373
0.531885
0.531408
0.530941
0.530485
0.530039
0.529603
0.529176
0.528758
0.52835
0.52795
0.52756
0.52718