# vtk DataFile Version 2.0
FlowField
ASCII
DATASET STRUCTURED_GRID
DIMENSIONS 400 1 50
POINTS 20000 float
0 0 0
0.08 0 0
0.16 0 0
0.24 0 0
0.32 0 0
0.4 0 0
0.48 0 0
0.56 0 0
0.64 0 0
0.72 0 0
0.8 0 0
0.88 0 0
0.96 0 0
1.04 0 0
1.12 0 0
1.2 0 0
1.28 0 0
1.36 0 0
1.44 0 0
1.52 0 0
1.6 0 0
1.68 0 0
1.76 0 0
1.84 0 0
1.92 0 0
2 0 0
2.08 0 0
2.16 0 0
2.24 0 0
2.32 0 0
2.4 0 0
2.48 0 0
2.56 0 0
2.64 0 0
2.72 0 0
2.8 0 0
2.88 0 0
2.96 0 0
3.04 0 0
3.12 0 0
3.2 0 0
3.28 0 0
3.36 0 0
3.44 0 0
3.52 0 0
3.6 0 0
3.68 0 0
3.76 0 0
3.84 0 0
3.92 0 0
4 0 0
4.08 0 0
4.16 0 0
4.24 0 0
4.32 0 0
4.4 0 0
4.48 0 0
4.56 0 0
4.64 0 0
4.72 0 0
4.8 0 0
4.88 0 0
4.96 0 0
5.04 0 0
5.12 0 0
5.2 0 0
5.28 0 0
5.36 0 0
5.44 0 0
5.52 0 0
5.6 0 0
5.68 0 0
5.76 0 0
5.84 0 0
5.92 0 0
6 0 0
6.08 0 0
6.16 0 0
6.24 0 0
6.32 0 0
6.4 0 0
6.48 0 0
6.56 0 0
6.64 0 0
6.72 0 0
6.8 0 0
6.88 0 0
6.96 0 0
7.04 0 0
7.12 0 0
7.2 0 0
7.28 0 0
7.36 0 0
7.44 0 0
7.52 0 0
7.6 0 0
7.68 0 0
7.76 0 0
7.84 0 0
7.92 0 0
8 0 0
8.08 0 0
8.16 0 0
8.24 0 0
8.32 0 0
8.4 0 0
8.48 0 0
8.56 0 0
8.64 0 0
8.72 0 0
8.8 0 0
8.88 0 0
8.96 0 0
9.04 0 0
9.12 0 0
9.2 0 0
9.28 0 0
9.36 0 0
9.44 0 0
9.52 0 0
9.6 0 0
9.68 0 0
9.76 0 0
9.84 0 0
9.92 0 0
10 0 0
10.08 0 0
10.16 0 0
10.24 0 0
10.32 0 0
10.4 0 0
10.48 0 0
10.56 0 0
10.64 0 0
10.72 0 0
10.8 0 0
10.88 0 0
10.96 0 0
11.04 0 0
11.12 0 0
11.2 0 0
11.28 0 0
11.36 0 0
11.44 0 0
11.52 0 0
11.6 0 0
11.68 0 0
11.76 0 0
11.84 0 0
11.92 0 0
12 0 0
12.08 0 0
12.16 0 0
12.24 0 0
12.32 0 0
12.4 0 0
12.48 0 0
12.56 0 0
12.64 0 0
12.72 0 0
12.8 0 0
12.88 0 0
12.96 0 0
13.04 0 0
13.12 0 0
13.2 0 0
13.28 0 0
13.36 0 0
13.44 0 0
13.52 0 0
13.6 0 0
13.68 0 0
13.76 0 0
13.84 0 0
13.92 0 0
14 0 0
14.08 0 0
14.16 0 0
14.24 0 0
14.32 0 0
14.4 0 0
14.48 0 0
14.56 0 0
14.64 0 0
14.72 0 0
14.8 0 0
14.88 0 0
14.96 0 0
15.04 0 0
15.12 0 0
15.2 0 0
15.28 0 0
15.36 0 0
15.44 0 0
15.52 0 0
15.6 0 0
15.68 0 0
15.76 0 0
15.84 0 0
15.92 0 0
16 0 0
16.08 0 0
16.16 0 0
16.24 0 0
16.32 0 0
16.4 0 0
16.48 0 0
16.56 0 0
16.64 0 0
16.72 0 0
16.8 0 0
16.88 0 0
16.96 0 0
17.04 0 0
17.12 0 0
17.2 0 0
17.28 0 0
17.36 0 0
17.44 0 0
17.52 0 0
17.6 0 0
17.68 0 0
17.76 0 0
17.84 0 0
17.92 0 0
18 0 0
18.08 0 0
18.16 0 0
18.24 0 0
18.32 0 0
18.4 0 0
18.48 0 0
18.56 0 0
18.64 0 0
18.72 0 0
18.8 0 0
18.88 0 0
18.96 0 0
19.04 0 0
19.12 0 0
19.2 0 0
19.28 0 0
19.36 0 0
19.44 0 0
19.52 0 0
19.6 0 0
19.68 0 0
19.76 0 0
19.84 0 0
19.92 0 0
20 0 0
20.08 0 0
20.16 0 0
20.24 0 0
20.32 0 0
20.4 0 0
20.48 0 0
20.56 0 0
20.64 0 0
20.72 0 0
20.8 0 0
20.88 0 0
20.96 0 0
21.04 0 0
21.12 0 0
21.2 0 0
21.28 0 0
21.36 0 0
21.44 0 0
21.52 0 0
21.6 0 0
21.68 0 0
21.76 0 0
21.84 0 0
21.92 0 0
22 0 0
22.08 0 0
22.16 0 0
22.24 0 0
22.32 0 0
22.4 0 0
22.48 0 0
22.56 0 0
22.64 0 0
22.72 0 0
22.8 0 0
22.88 0 0
22.96 0 0
23.04 0 0
23.12 0 0
23.2 0 0
23.28 0 0
23.36 0 0
23.44 0 0
23.52 0 0
23.6 0 0
23.68 0 0
23.76 0 0
23.84 0 0
23.92 0 0
24 0 0
24.08 0 0
24.16 0 0
24.24 0 0
24.32 0 0
24.4 0 0
24.48 0 0
24.56 0 0
24.64 0 0
24.72 0 0
24.8 0 0
24.88 0 0
24.96 0 0
25.04 0 0
25.12 0 0
25.2 0 0
25.28 0 0
25.36 0 0
25.44 0 0
25.52 0 0
25.6 0 0
25.68 0 0
25.76 0 0
25.84 0 0
25.92 0 0
26 0 0
26.08 0 0
26.16 0 0
26.24 0 0
26.32 0 0
26.4 0 0
26.48 0 0
26.56 0 0
26.64 0 0
26.72 0 0
26.8 0 0
26.88 0 0
26.96 0 0
27.04 0 0
27.12 0 0
27.2 0 0
27.28 0 0
27.36 0 0
27.44 0 0
27.52 0 0
27.6 0 0
27.68 0 0
27.76 0 0
27.84 0 0
27.92 0 0
28 0 0
28.08 0 0
28.16 0 0
28.24 0 0
28.32 0 0
28.4 0 0
28.48 0 0
28.56 0 0
28.64 0 0
28.72 0 0
28.8 0 0
28.88 0 0
28.96 0 0
29.04 0 0
29.12 0 0
29.2 0 0
29.28 0 0
29.36 0 0
29.44 0 0
29.52 0 0
29.6 0 0
29.68 0 0
29.76 0 0
29.84 0 0
29.92 0 0
30 0 0
30.08 0 0
30.16 0 0
30.24 0 0
30.32 0 0
30.4 0 0
30.48 0 0
30.56 0 0
30.64 0 0
30.72 0 0
30.8 0 0
30.88 0 0
30.96 0 0
31.04 0 0
31.12 0 0
31.2 0 0
31.28 0 0
31.36 0 0
31.44 0 0
31.52 0 0
31.6 0 0
31.68 0 0
31.76 0 0
31.84 0 0
31.92 0 0
0 0.02 0
0.08 0.02 0
0.16 0.02 0
0.24 0.02 0
0.32 0.02 0
0.4 0.02 0
0.48 0.02 0
0.56 0.02 0
0.64 0.02 0
0.72 0.02 0
0.8 0.02 0
0.88 0.02 0
0.96 0.02 0
1.04 0.02 0
1.12 0.02 0
1.2 0.02 0
1.28 0.02 0
1.36 0.02 0
1.44 0.02 0
1.52 0.02 0
1.6 0.02 0
1.68 0.02 0
1.76 0.02 0
1.84 0.02 0
1.92 0.02 0
2 0.02 0
2.08 0.02 0
2.16 0.02 0
2.24 0.02 0
2.32 0.02 0
2.4 0.02 0
2.48 0.02 0
2.56 0.02 0
2.64 0.02 0
2.72 0.02 0
2.8 0.02 0
2.88 0.02 0
2.96 0.02 0
3.04 0.02 0
3.12 0.02 0
3.2 0.02 0
3.28 0.02 0
3.36 0.02 0
3.44 0.02 0
3.52 0.02 0
3.6 0.02 0
3.68 0.02 0
3.76 0.02 0
3.84 0.02 0
3.92 0.02 0
4 0.02 0
4.08 0.02 0
4.16 0.02 0
4.24 0.02 0
4.32 0.02 0
4.4 0.02 0
4.48 0.02 0
4.56 0.02 0
4.64 0.02 0
4.72 0.02 0
4.8 0.02 0
4.88 0.02 0
4.96 0.02 0
5.04 0.02 0
5.12 0.02 0
5.2 0.02 0
5.28 0.02 0
5.36 0.02 0
5.44 0.02 0
5.52 0.02 0
5.6 0.02 0
5.68 0.02 0
5.76 0.02 0
5.84 0.02 0
5.92 0.02 0
6 0.02 0
6.08 0.02 0
6.16 0.02 0
6.24 0.02 0
6.32 0.02 0
6.4 0.02 0
6.48 0.02 0
6.56 0.02 0
6.64 0.02 0
6.72 0.02 0
6.8 0.02 0
6.88 0.02 0
6.96 0.02 0
7.04 0.02 0
7.12 0.02 0
7.2 0.02 0
7.28 0.02 0
7.36 0.02 0
7.44 0.02 0
7.52 0.02 0
7.6 0.02 0
7.68 0.02 0
7.76 0.02 0
7.84 0.02 0
7.92 0.02 0
8 0.02 0
8.08 0.02 0
8.16 0.02 0
8.24 0.02 0
8.32 0.02 0
8.4 0.02 0
8.48 0.02 0
8.56 0.02 0
8.64 0.02 0
8.72 0.02 0
8.8 0.02 0
8.88 0.02 0
8.96 0.02 0
9.04 0.02 0
9.12 0.02 0
9.2 0.02 0
9.28 0.02 0
9.36 0.02 0
9.44 0.02 0
9.52 0.02 0
9.6 0.02 0
9.68 0.02 0
9.76 0.02 0
9.84 0.02 0
9.92 0.02 0
10 0.02 0
10.08 0.02 0
10.16 0.02 0
10.24 0.02 0
10.32 0.02 0
10.4 0.02 0
10.48 0.02 0
10.56 0.02 0
10.64 0.02 0
10.72 0.02 0
10.8 0.02 0
10.88 0.02 0
10.96 0.02 0
11.04 0.02 0
11.12 0.02 0
11.2 0.02 0
11.28 0.02 0
11.36 0.02 0
11.44 0.02 0
11.52 0.02 0
11.6 0.02 0
11.68 0.02 0
11.76 0.02 0
11.84 0.02 0
11.92 0.02 0
12 0.02 0
12.08 0.02 0
12.16 0.02 0
12.24 0.02 0
12.32 0.02 0
12.4 0.02 0
12.48 0.02 0
12.56 0.02 0
12.64 0.02 0
12.72 0.02 0
12.8 0.02 0
12.88 0.02 0
12.96 0.02 0
13.04 0.02 0
13.12 0.02 0
13.2 0.02 0
13.28 0.02 0
13.36 0.02 0
13.44 0.02 0
13.52 0.02 0
13.6 0.02 0
13.68 0.02 0
13.76 0.02 0
13.84 0.02 0
13.92 0.02 0
14 0.02 0
14.08 0.02 0
14.16 0.02 0
14.24 0.02 0
14.32 0.02 0
14.4 0.02 0
14.48 0.02 0
14.56 0.02 0
14.64 0.02 0
14.72 0.02 0
14.8 0.02 0
14.88 0.02 0
14.96 0.02 0
15.04 0.02 0
15.12 0.02 0
15.2 0.02 0
15.28 0.02 0
15.36 0.02 0
15.44 0.02 0
15.52 0.02 0
15.6 0.02 0
15.68 0.02 0
15.76 0.02 0
15.84 0.02 0
15.92 0.02 0
16 0.02 0
16.08 0.02 0
16.16 0.02 0
16.24 0.02 0
16.32 0.02 0
16.4 0.02 0
16.48 0.02 0
16.56 0.02 0
16.64 0.02 0
16.72 0.02 0
16.8 0.02 0
16.88 0.02 0
16.96 0.02 0
17.04 0.02 0
17.12 0.02 0
17.2 0.02 0
17.28 0.02 0
17.36 0.02 0
17.44 0.02 0
17.52 0.02 0
17.6 0.02 0
17.68 0.02 0
17.76 0.02 0
17.84 0.02 0
17.92 0.02 0
18 0.02 0
18.08 0.02 0
18.16 0.02 0
18.24 0.02 0
18.32 0.02 0
18.4 0.02 0
18.48 0.02 0
18.56 0.02 0
18.64 0.02 0
18.72 0.02 0
18.8 0.02 0
18.88 0.02 0
18.96 0.02 0
19.04 0.02 0
19.12 0.02 0
19.2 0.02 0
19.28 0.02 0
19.36 0.02 0
19.44 0.02 0
19.52 0.02 0
19.6 0.02 0
19.68 0.02 0
19.76 0.02 0
19.84 0.02 0
19.92 0.02 0
20 0.02 0
20.08 0.02 0
20.16 0.02 0
20.24 0.02 0
20.32 0.02 0
20.4 0.02 0
20.48 0.02 0
20.56 0.02 0
20.64 0.02 0
20.72 0.02 0
20.8 0.02 0
20.88 0.02 0
20.96 0.02 0
21.04 0.02 0
21.12 0.02 0
21.2 0.02 0
21.28 0.02 0
21.36 0.02 0
21.44 0.02 0
21.52 0.02 0
21.6 0.02 0
21.68 0.02 0
21.76 0.02 0
21.84 0.02 0
21.92 0.02 0
22 0.02 0
22.08 0.02 0
22.16 0.02 0
22.24 0.02 0
22.32 0.02 0
22.4 0.02 0
22.48 0.02 0
22.56 0.02 0
22.64 0.02 0
22.72 0.02 0
22.8 0.02 0
22.88 0.02 0
22.96 0.02 0
23.04 0.02 0
23.12 0.02 0
23.2 0.02 0
23.28 0.02 0
23.36 0.02 0
23.44 0.02 0
23.52 0.02 0
23.6 0.02 0
23.68 0.02 0
23.76 0.02 0
23.84 0.02 0
23.92 0.02 0
24 0.02 0
24.08 0.02 0
24.16 0.02 0
24.24 0.02 0
24.32 0.02 0
24.4 0.02 0
24.48 0.02 0
24.56 0.02 0
24.64 0.02 0
24.72 0.02 0
24.8 0.02 0
24.88 0.02 0
24.96 0.02 0
25.04 0.02 0
25.12 0.02 0
25.2 0.02 0
25.28 0.02 0
25.36 0.02 0
25.44 0.02 0
25.52 0.02 0
25.6 0.02 0
25.68 0.02 0
25.76 0.02 0
25.84 0.02 0
25.92 0.02 0
26 0.02 0
26.08 0.02 0
26.16 0.02 0
26.24 0.02 0
26.32 0.02 0
26.4 0.02 0
26.48 0.02 0
26.56 0.02 0
26.64 0.02 0
26.72 0.02 0
26.8 0.02 0
26.88 0.02 0
26.96 0.02 0
27.04 0.02 0
27.12 0.02 0
27.2 0.02 0
27.28 0.02 0
27.36 0.02 0
27.44 0.02 0
27.52 0.02 0
27.6 0.02 0
27.68 0.02 0
27.76 0.02 0
27.84 0.02 0
27.92 0.02 0
28 0.02 0
28.08 0.02 0
28.16 0.02 0
28.24 0.02 0
28.32 0.02 0
28.4 0.02 0
28.48 0.02 0
28.56 0.02 0
28.64 0.02 0
28.72 0.02 0
28.8 0.02 0
28.88 0.02 0
28.96 0.02 0
29.04 0.02 0
29.12 0.02 0
29.2 0.02 0
29.28 0.02 0
29.36 0.02 0
29.44 0.02 0
29.52 0.02 0
29.6 0.02 0
29.68 0.02 0
29.76 0.02 0
29.84 0.02 0
29.92 0.02 0
30 0.02 0
30.08 0.02 0
30.16 0.02 0
30.24 0.02 0
30.32 0.02 0
30.4 0.02 0
30.48 0.02 0
30.56 0.02 0
30.64 0.02 0
30.72 0.02 0
30.8 0.02 0
30.88 0.02 0
30.96 0.02 0
31.04 0.02 0
31.12 0.02 0
31.2 0.02 0
31.28 0.02 0
31.36 0.02 0
31.44 0.02 0
31.52 0.02 0
31.6 0.02 0
31.68 0.02 0
31.76 0.02 0
31.84 0.02 0
31.92 0.02 0
0 0.04 0
0.08 0.04 0
0.16 0.04 0
0.24 0.04 0
0.32 0.04 0
0.4 0.04 0
0.48 0.04 0
0.56 0.04 0
0.64 0.04 0
0.72 0.04 0
0.8 0.04 0
0.88 0.04 0
0.96 0.04 0
1.04 0.04 0
1.12 0.04 0
1.2 0.04 0
1.28 0.04 0
1.36 0.04 0
1.44 0.04 0
1.52 0.04 0
1.6 0.04 0
1.68 0.04 0
1.76 0.04 0
1.84 0.04 0
1.92 0.04 0
2 0.04 0
2.08 0.04 0
2.16 0.04 0
2.24 0.04 0
2.32 0.04 0
2.4 0.04 0
2.48 0.04 0
2.56 0.04 0
2.64 0.04 0
2.72 0.04 0
2.8 0.04 0
2.88 0.04 0
2.96 0.04 0
3.04 0.04 0
3.12 0.04 0
3.2 0.04 0
3.28 0.04 0
3.36 0.04 0
3.44 0.04 0
3.52 0.04 0
3.6 0.04 0
3.68 0.04 0
3.76 0.04 0
3.84 0.04 0
3.92 0.04 0
4 0.04 0
4.08 0.04 0
4.16 0.04 0
4.24 0.04 0
4.32 0.04 0
4.4 0.04 0
4.48 0.04 0
4.56 0.04 0
4.64 0.04 0
4.72 0.04 0
4.8 0.04 0
4.88 0.04 0
4.96 0.04 0
5.04 0.04 0
5.12 0.04 0
5.2 0.04 0
5.28 0.04 0
5.36 0.04 0
5.44 0.04 0
5.52 0.04 0
5.6 0.04 0
5.68 0.04 0
5.76 0.04 0
5.84 0.04 0
5.92 0.04 0
6 0.04 0
6.08 0.04 0
6.16 0.04 0
6.24 0.04 0
6.32 0.04 0
6.4 0.04 0
6.48 0.04 0
6.56 0.04 0
6.64 0.04 0
6.72 0.04 0
6.8 0.04 0
6.88 0.04 0
6.96 0.04 0
7.04 0.04 0
7.12 0.04 0
7.2 0.04 0
7.28 0.04 0
7.36 0.04 0
7.44 0.04 0
7.52 0.04 0
7.6 0.04 0
7.68 0.04 0
7.76 0.04 0
7.84 0.04 0
[...]
POINT_DATA 20000

SCALARS u float 1
LOOKUP_TABLE default
0
-0.507024
-0.29182
-0.214037
-0.178881
-0.158502
-0.144932
-0.135166
-0.12776
-0.12192
-0.11717
-0.113207
-0.109833
-0.106911
-0.104343
-0.102061
-0.100013
-0.0981606
-0.0964733
-0.0949278
-0.0935052
-0.0921899
-0.0909692
-0.0898326
-0.088771
-0.0877767
-0.0868434
-0.0859653
-0.0851374
-0.0843554
-0.0836154
-0.0829137
-0.0822472
-0.0816133
-0.0810095
-0.0804339
-0.0798846
-0.0793598
-0.078858
-0.0783775
-0.0779169
-0.0774748
-0.07705
-0.0766415
-0.0762483
-0.0758699
-0.0755055
-0.0751544
-0.0748158
-0.0744888
-0.0741725
-0.0738663
-0.0735698
-0.0732827
-0.0730048
-0.0727358
-0.0724755
-0.0722234
-0.0719791
-0.0717418
-0.0715112
-0.0712866
-0.0710679
-0.0708551
-0.0706483
-0.0704477
-0.0702531
-0.0700639
-0.0698794
-0.0696989
-0.0695221
-0.0693489
-0.0691795
-0.0690145
-0.0688541
-0.0686984
-0.0685474
-0.0684004
-0.0682569
-0.0681161
-0.0679778
-0.0678419
-0.0677091
-0.0675802
-0.0674561
-0.067337
-0.0672225
-0.0671116
-0.0670029
-0.066896
-0.0667911
-0.0666896
-0.0665931
-0.0665027
-0.0664187
-0.0663399
-0.0662648
-0.066192
-0.0661209
-0.0660519
-0.0659864
-0.0659256
-0.06587
-0.0658195
-0.0657729
-0.0657287
-0.065686
-0.0656445
-0.0656047
-0.0655675
-0.0655337
-0.0655039
-0.0654776
-0.0654544
-0.0654335
-0.0654144
-0.0653968
-0.065381
-0.0653672
-0.0653558
-0.0653466
-0.0653395
-0.065334
-0.0653297
-0.0653261
-0.0653232
-0.0653211
-0.0653199
-0.06532
-0.0653216
-0.0653246
-0.0653291
-0.0653348
-0.0653414
-0.0653486
-0.0653561
-0.0653639
-0.0653718
-0.0653799
-0.065388
-0.0653964
-0.0654049
-0.0654135
-0.0654224
-0.0654313
-0.0654403
-0.0654494
-0.0654585
-0.0654675
-0.0654766
-0.0654856
-0.0654946
-0.0655036
-0.0655127
-0.0655217
-0.0655307
-0.0655397
-0.0655487
-0.0655577
-0.0655668
-0.0655758
-0.0655849
-0.0655939
-0.065603
-0.065612
-0.0656211
-0.0656301
-0.0656392
-0.0656483
-0.0656574
-0.0656665
-0.0656756
-0.0656847
-0.0656938
-0.0657029
-0.0657121
-0.0657212
-0.0657304
-0.0657395
-0.0657487
-0.0657579
-0.0657671
-0.0657763
-0.0657855
-0.0657948
-0.065804
-0.0658133
-0.0658226
-0.0658319
-0.0658412
-0.0658505
-0.0658598
-0.0658692
-0.0658785
-0.0658879
-0.0658973
-0.0659067
-0.0659162
-0.0659256
-0.0659351
-0.0659446
-0.0659541
-0.0659637
-0.0659732
-0.0659828
-0.0659924
-0.066002
-0.0660116
-0.0660213
-0.066031
-0.0660407
-0.0660504
-0.0660601
-0.0660699
-0.0660797
-0.0660895
-0.0660994
-0.0661093
-0.0661192
-0.0661291
-0.066139
-0.066149
-0.066159
-0.0661691
-0.0661791
-0.0661892
-0.0661993
-0.0662095
-0.0662197
-0.0662299
-0.0662401
-0.0662504
-0.0662606
-0.066271
-0.0662813
-0.0662917
-0.0663021
-0.0663126
-0.0663231
-0.0663336
-0.0663441
-0.0663547
-0.0663653
-0.0663759
-0.0663866
-0.0663973
-0.0664081
-0.0664188
-0.0664297
-0.0664405
-0.0664514
-0.0664623
-0.0664732
-0.0664842
-0.0664953
-0.0665063
-0.0665174
-0.0665285
-0.0665397
-0.0665509
-0.0665621
-0.0665734
-0.0665847
-0.0665961
-0.0666075
-0.0666189
-0.0666303
-0.0666418
-0.0666534
-0.0666649
-0.0666766
-0.0666882
-0.0666999
-0.0667116
-0.0667234
-0.0667352
-0.066747
-0.0667589
-0.0667708
-0.0667828
-0.0667947
-0.0668068
-0.0668188
-0.066831
-0.0668431
-0.0668553
-0.0668675
-0.0668798
-0.0668921
-0.0669044
-0.0669168
-0.0669292
-0.0669417
-0.0669542
-0.0669667
-0.0669793
-0.0669919
-0.0670045
-0.0670172
-0.0670299
-0.0670427
-0.0670555
-0.0670683
-0.0670812
-0.0670941
-0.0671071
-0.06712
-0.0671331
-0.0671461
-0.0671592
-0.0671724
-0.0671855
-0.0671988
-0.067212
-0.0672253
-0.0672386
-0.067252
-0.0672654
-0.0672788
-0.0672923
-0.0673058
-0.0673193
-0.0673329
-0.0673465
-0.0673601
-0.0673738
-0.0673875
-0.0674012
-0.067415
-0.0674288
-0.0674427
-0.0674566
-0.0674705
-0.0674844
-0.0674984
-0.0675124
-0.0675264
-0.0675405
-0.0675546
-0.0675688
-0.0675829
-0.0675971
-0.0676113
-0.0676256
-0.0676399
-0.0676542
-0.0676686
-0.0676829
-0.0676973
-0.0677118
-0.0677262
-0.0677407
-0.0677552
-0.0677698
-0.0677844
-0.067799
-0.0678136
-0.0678282
-0.0678429
-0.0678576
-0.0678723
-0.0678871
-0.0679019
-0.0679167
-0.0679315
-0.0679464
-0.0679612
-0.0679761
-0.067991
-0.068006
-0.0680209
-0.068036
-0.0680509
-0.068066
-0.068081
-0.0680962
-0.0681111
-0.0681265
-0.0681414
-0.0681569
-0.0681717
-0.0681874
-0.0682022
-0.068218
-0.0682327
-0.0682488
-0.0682634
-0.0682797
-0.0682942
-0.068311
-0.0683249
-0.0683425
-0.0683556
-0.068374
-0.0683862
-0.0684037
-0.0684162
-0.068417
-0.068417
-0.068417
1
0.507024
0.29182
0.214037
0.178881
0.158502
0.144932
0.135166
0.12776
0.12192
0.11717
0.113207
0.109833
0.106911
0.104343
0.102061
0.100013
0.0981606
0.0964733
0.0949278
0.0935052
0.0921899
0.0909692
0.0898326
0.088771
0.0877767
0.0868434
0.0859653
0.0851374
0.0843554
0.0836154
0.0829137
0.0822472
0.0816133
0.0810095
0.0804339
0.0798846
0.0793598
0.078858
0.0783775
0.0779169
0.0774748
0.07705
0.0766415
0.0762483
0.0758699
0.0755055
0.0751544
0.0748158
0.0744888
0.0741725
0.0738663
0.0735698
0.0732827
0.0730048
0.0727358
0.0724755
0.0722234
0.0719791
0.0717418
0.0715112
0.0712866
0.0710679
0.0708551
0.0706483
0.0704477
0.0702531
0.0700639
0.0698794
0.0696989
0.0695221
0.0693489
0.0691795
0.0690145
0.0688541
0.0686984
0.0685474
0.0684004
0.0682569
0.0681161
0.0679778
0.0678419
0.0677091
0.0675802
0.0674561
0.067337
0.0672225
0.0671116
0.0670029
0.066896
0.0667911
0.0666896
0.0665931
0.0665027
0.0664187
0.0663399
0.0662648
0.066192
0.0661209
0.0660519
0.0659864
0.0659256
0.06587
0.0658195
0.0657729
0.0657287
0.065686
0.0656445
0.0656047
0.0655675
0.0655337
0.0655039
0.0654776
0.0654544
0.0654335
0.0654144
0.0653968
0.065381
0.0653672
0.0653558
0.0653466
0.0653395
0.065334
0.0653297
0.0653261
0.0653232
0.0653211
0.0653199
0.06532
0.0653216
0.0653246
0.0653291
0.0653348
0.0653414
0.0653486
0.0653561
0.0653639
0.0653718
0.0653799
0.065388
0.0653964
0.0654049
0.0654135
0.0654224
0.0654313
0.0654403
0.0654494
0.0654585
0.0654675
0.0654766
0.0654856
0.0654946
0.0655036
0.0655127
0.0655217
0.0655307
0.0655397
0.0655487
0.0655577
0.0655668
0.0655758
0.0655849
0.0655939
0.065603
0.065612
0.0656211
0.0656301
0.0656392
0.0656483
0.0656574
0.0656665
0.0656756
0.0656847
0.0656938
0.0657029
0.0657121
0.0657212
0.0657304
0.0657395
0.0657487
0.0657579
0.0657671
0.0657763
0.0657855
0.0657948
0.065804
0.0658133
0.0658226
0.0658319
0.0658412
0.0658505
0.0658598
0.0658692
0.0658785
0.0658879
0.0658973
0.0659067
0.0659162
0.0659256
0.0659351
0.0659446
0.0659541
0.0659637
0.0659732
0.0659828
0.0659924
0.066002
0.0660116
0.0660213
0.066031
0.0660407
0.0660504
0.0660601
0.0660699
0.0660797
0.0660895
0.0660994
0.0661093
0.0661192
0.0661291
0.066139
0.066149
0.066159
0.0661691
0.0661791
0.0661892
0.0661993
0.0662095
0.0662197
0.0662299
0.0662401
0.0662504
0.0662606
0.066271
0.0662813
0.0662917
0.0663021
0.0663126
0.0663231
0.0663336
0.0663441
0.0663547
0.0663653
0.0663759
0.0663866
0.0663973
0.0664081
0.0664188
0.0664297
0.0664405
0.0664514
0.0664623
0.0664732
0.0664842
0.0664953
0.0665063
0.0665174
0.0665285
0.0665397
0.0665509
0.0665621
0.0665734
0.0665847
0.0665961
0.0666075
0.0666189
0.0666303
0.0666418
0.0666534
0.0666649
0.0666766
0.0666882
0.0666999
0.0667116
0.0667234
0.0667352
0.066747
0.0667589
0.0667708
0.0667828
0.0667947
0.0668068
0.0668188
0.066831
0.0668431
0.0668553
0.0668675
0.0668798
0.0668921
0.0669044
0.0669168
0.0669292
0.0669417
0.0669542
0.0669667
0.0669793
0.0669919
0.0670045
0.0670172
0.0670299
0.0670427
0.0670555
0.0670683
0.0670812
0.0670941
0.0671071
0.06712
0.0671331
0.0671461
0.0671592
0.0671724
0.0671855
0.0671988
0.067212
0.0672253
0.0672386
0.067252
0.0672654
0.0672788
0.0672923
0.0673058
0.0673193
0.0673329
0.0673465
0.0673601
0.0673738
0.0673875
0.0674012
0.067415
0.0674288
0.0674427
0.0674566
0.0674705
0.0674844
0.0674984
0.0675124
0.0675264
0.0675405
0.0675546
0.0675688
0.0675829
0.0675971
0.0676113
0.0676256
0.0676399
0.0676542
0.0676686
0.0676829
0.0676973
0.0677118
0.0677262
0.0677407
0.0677552
0.0677698
0.0677844
0.067799
0.0678136
0.0678282
0.0678429
0.0678576
0.0678723
0.0678871
0.0679019
0.0679167
0.0679315
0.0679464
0.0679612
0.0679761
0.067991
0.068006
0.0680209
0.068036
0.0680509
0.068066
0.068081
0.0680962
0.0681111
0.0681265
0.0681414
0.0681569
0.0681717
0.0681874
0.0682022
0.068218
0.0682327
0.0682488
0.0682634
0.0682797
0.0682942
0.068311
0.0683249
0.0683425
0.0683556
0.068374
0.0683862
0.0684037
0.0684162
0.068417
0.068417
0.068417
1
0.924183
0.735262
0.597303
0.511352
0.455984
0.417773
0.389822
0.368445
0.351517
0.337729
0.326231
0.316454
0.308001
0.300592
0.294022
0.28814
0.282828
0.277999
0.273583
0.269522
0.265772
0.262295
0.259059
0.256039
0.253213
0.250561
0.248066
0.245715
0.243495
0.241394
0.239402
0.237511
0.235713
0.234001
0.23237
0.230812
0.229325
0.227902
0.226539
0.225233
0.223979
0.222775
0.221616
0.220502
0.219429
0.218396
0.2174
0.216439
0.215511
0.214613
0.213745
0.212905
0.212091
0.211304
0.210542
0.209804
0.209089
0.208395
0.207721
0.207066
0.206428
0.205808
0.205205
0.204619
0.204049
0.203496
0.202957
0.202432
0.201918
0.201415
0.200924
0.200445
0.199978
0.199525
0.199084
0.198655
0.198237
0.197828
0.197428
0.197037
0.196654
0.196281
0.195921
0.195573
0.195239
0.194916
0.194602
0.194297
0.193999
0.193711
0.193434
0.193172
0.192926
0.192695
0.192477
0.192268
0.192066
0.191872
0.191686
0.191511
0.191349
0.191199
0.191062
0.190933
0.190811
0.190694
0.190582
0.190476
0.19038
0.190292
0.190214
0.190145
0.190083
0.190027
0.189976
0.18993
0.189889
0.189854
0.189824
0.189801
0.189782
0.189767
0.189755
0.189746
0.189739
0.189734
0.189733
0.189736
0.189742
0.189751
0.189764
0.18978
0.189797
0.189815
0.189835
0.189854
0.189875
0.189895
0.189917
0.189938
0.18996
0.189983
0.190006
0.190029
0.190052
0.190076
0.190099
0.190123
0.190147
0.19017
0.190194
0.190218
0.190242
0.190266
0.19029
0.190314
0.190338
0.190362
0.190386
0.190411
0.190435
0.19046
0.190484
0.190509
0.190534
0.190559
0.190584
0.190609
0.190634
0.190659
0.190684
0.190709
0.190735
0.19076
0.190786
0.190811
0.190837
0.190863
0.190889
0.190915
0.190941
0.190967
0.190993
0.191019
0.191046
0.191072
0.191099
0.191125
0.191152
0.191179
0.191206
0.191233
0.19126
0.191287
0.191314
0.191342
0.191369
0.191397
0.191425
0.191452
0.19148
0.191508
0.191536
0.191564
0.191592
0.191621
0.191649
0.191678
0.191706
0.191735
0.191764
0.191793
0.191822
0.191851
0.19188
0.191909
0.191939
0.191968
0.191998
0.192027
0.192057
0.192087
0.192117
0.192147
0.192178
0.192208
0.192238
0.192269
0.192299
0.19233
0.192361
0.192392
0.192423
0.192454
0.192485
0.192517
0.192548
0.19258
0.192611
0.192643
0.192675
0.192707
0.192739
0.192771
0.192803
0.192836
0.192868
0.192901
0.192934
0.192966
0.192999
0.193032
0.193066
0.193099
0.193132
0.193166
0.193199
0.193233
0.193267
0.1933
0.193334
0.193369
0.193403
0.193437
0.193471
0.193506
0.193541
0.193575
0.19361
0.193645
0.19368
0.193715
0.19375
0.193786
0.193821
0.193857
0.193892
0.193928
0.193964
0.194
0.194036
0.194072
0.194108
0.194145
0.194181
0.194218
0.194254
0.194291
0.194328
0.194365
0.194402
0.194439
0.194476
0.194513
0.194551
0.194588
0.194626
0.194664
0.194701
0.194739
0.194777
0.194815
0.194854
0.194892
0.19493
0.194969
0.195007
0.195046
0.195085
0.195123
0.195162
0.195201
0.19524
0.195279
0.195319
0.195358
0.195397
0.195437
0.195476
0.195516
0.195556
0.195596
0.195636
0.195676
0.195716
0.195756
0.195796
0.195836
0.195877
0.195917
0.195958
0.195998
0.196039
0.19608
0.19612
0.196161
0.196202
0.196243
0.196284
0.196326
0.196367
0.196408
0.196449
0.196491
0.196532
0.196574
0.196616
0.196657
0.196699
0.196741
0.196783
0.196825
0.196867
0.196909
0.196951
0.196993
0.197035
0.197077
0.19712
0.197162
0.197204
0.197247
0.197289
0.197332
0.197375
0.197417
0.19746
0.197503
0.197546
0.197588
0.197631
0.197674
0.197717
0.19776
0.197804
0.197846
0.19789
0.197933
0.197977
0.198019
0.198064
0.198106
0.198151
0.198193
0.198238
0.19828
0.198326
0.198368
0.198415
0.198455
0.198504
0.198543
0.198593
0.19863
0.198679
0.198715
0.198737
0.198737
0.198737
1
1.07958
0.996854
0.883354
0.788322
0.716463
0.662525
0.621239
0.588826
0.562745
0.541288
0.523284
0.507916
0.494602
0.482919
0.472554
0.463272
0.454892
0.447275
0.44031
0.433908
0.427997
0.422516
0.417417
0.412659
0.408205
0.404026
0.400096
0.396392
0.392893
0.389583
0.386444
0.383465
0.380633
0.377936
0.375365
0.372913
0.370569
0.368327
0.366181
0.364122
0.362147
0.360249
0.358424
0.356668
0.354978
0.35335
0.35178
0.350266
0.348803
0.347389
0.346021
0.344698
0.343418
0.342179
0.34098
0.339818
0.338691
0.337598
0.336536
0.335504
0.3345
0.333524
0.332574
0.331652
0.330755
0.329883
0.329033
0.328205
0.327395
0.326604
0.325832
0.325079
0.324347
0.323634
0.32294
0.322265
0.321607
0.320964
0.320335
0.31972
0.319121
0.318539
0.317976
0.317432
0.316909
0.316403
0.315913
0.315436
0.314975
0.314529
0.314104
0.313702
0.313323
0.312966
0.312627
0.312303
0.311992
0.311694
0.31141
0.311144
0.310897
0.310668
0.310456
0.310258
0.310069
0.30989
0.309721
0.309562
0.309417
0.309287
0.30917
0.309066
0.308972
0.308887
0.308811
0.308742
0.308681
0.308629
0.308585
0.30855
0.308521
0.308499
0.308481
0.308467
0.308458
0.308453
0.308453
0.308458
0.308469
0.308485
0.308505
0.308528
0.308554
0.308581
0.30861
0.308639
0.308669
0.308699
0.308731
0.308763
0.308795
0.308829
0.308862
0.308897
0.308931
0.308966
0.309001
0.309035
0.30907
0.309106
0.309141
0.309176
0.309211
0.309247
0.309283
0.309318
0.309354
0.30939
0.309427
0.309463
0.3095
0.309536
0.309573
0.30961
0.309647
0.309684
0.309722
0.309759
0.309797
0.309835
0.309873
0.309911
0.309949
0.309987
0.310026
0.310064
0.310103
0.310142
0.310181
0.31022
0.31026
0.310299
0.310339
0.310379
0.310419
0.310459
0.310499
0.31054
0.31058
0.310621
0.310662
0.310703
0.310744
0.310786
0.310827
0.310869
0.310911
0.310953
0.310995
0.311037
0.311079
0.311122
0.311165
0.311208
0.311251
0.311294
0.311337
0.311381
0.311425
0.311468
0.311512
0.311557
0.311601
0.311645
0.31169
0.311735
0.31178
0.311825
0.31187
0.311916
0.311961
0.312007
0.312053
0.312099
0.312145
0.312191
0.312238
0.312285
0.312332
0.312379
0.312426
0.312473
0.312521
0.312568
0.312616
0.312664
0.312712
0.31276
0.312809
0.312857
0.312906
0.312955
0.313004
0.313053
0.313103
0.313152
0.313202
0.313252
0.313302
0.313352
0.313402
0.313453
0.313504
0.313554
0.313605
0.313656
0.313708
0.313759
0.313811
0.313862
0.313914
0.313966
0.314018
0.314071
0.314123
0.314176
0.314229
0.314281
0.314335
0.314388
0.314441
0.314495
0.314548
0.314602
0.314656
0.31471
0.314764
0.314819
0.314873
0.314928
0.314983
0.315038
0.315093
0.315148
0.315203
0.315259
0.315315
0.31537
0.315426
0.315482
0.315538
0.315595
0.315651
0.315708
0.315765
0.315821
0.315878
0.315935
0.315993
0.31605
0.316108
0.316165
0.316223
0.316281
0.316339
0.316397
0.316455
0.316514
0.316572
0.316631
0.316689
0.316748
0.316807
0.316866
0.316925
0.316985
0.317044
0.317104
0.317163
0.317223
0.317283
0.317343
0.317403
0.317463
0.317523
0.317584
0.317644
0.317705
0.317766
0.317826
0.317887
0.317948
0.318009
0.31807
0.318132
0.318193
0.318254
0.318316
0.318378
0.318439
0.318501
0.318563
0.318625
0.318687
0.318749
0.318811
0.318874
0.318936
0.318999
0.319061
0.319124
0.319186
0.319249
0.319312
0.319375
0.319438
0.319501
0.319564
0.319627
0.31969
0.319754
0.319817
0.31988
0.319944
0.320007
0.320071
0.320135
0.320198
0.320262
0.320326
0.32039
0.320454
0.320518
0.320582
0.320646
0.32071
0.320775
0.320838
0.320904
0.320967
0.321033
0.321096
0.321162
0.321225
0.321292
0.321355
0.321423
0.321485
0.321554
0.321615
0.321686
0.321744
0.321818
0.321874
0.321947
0.322001
0.322052
0.322052
0.322052
1
1.11166
1.11415
1.05526
0.983979
0.918557
0.863238
0.817569
0.779913
0.748606
0.722266
0.699818
0.680443
0.663523
0.64859
0.635285
0.623332
0.612515
0.602664
0.593641
0.585337
0.577661
0.570538
0.563905
0.557709
0.551907
0.546459
0.541332
0.536497
0.531928
0.527603
0.523501
0.519606
0.515901
0.512373
0.50901
0.5058
0.502732
0.499797
0.496985
0.494289
0.4917
0.489213
0.486821
0.48452
0.482304
0.48017
0.478111
0.476125
0.474206
0.472352
0.470559
0.468824
0.467146
0.465522
0.463949
0.462426
0.460948
0.459515
0.458122
0.456769
0.455452
0.454172
0.452928
0.451718
0.450541
0.449397
0.448282
0.447194
0.446133
0.445096
0.444085
0.4431
0.44214
0.441207
0.440299
0.439414
0.438551
0.437708
0.436885
0.436082
0.435299
0.434539
0.433803
0.433093
0.432408
0.431747
0.431107
0.430487
0.429887
0.42931
0.42876
0.428239
0.427748
0.427284
0.426844
0.426424
0.426021
0.425636
0.425271
0.424928
0.42461
0.424314
0.42404
0.423782
0.423538
0.423307
0.42309
0.422888
0.422703
0.422536
0.422387
0.422254
0.422133
0.422024
0.421926
0.421838
0.42176
0.421693
0.421637
0.421591
0.421554
0.421524
0.4215
0.421483
0.421471
0.421465
0.421466
0.421473
0.421487
0.421507
0.421532
0.42156
0.421592
0.421625
0.421659
0.421695
0.421731
0.421769
0.421807
0.421846
0.421886
0.421926
0.421967
0.422009
0.422051
0.422093
0.422136
0.422178
0.42222
0.422263
0.422306
0.422349
0.422392
0.422435
0.422479
0.422522
0.422566
0.42261
0.422654
0.422699
0.422743
0.422788
0.422833
0.422878
0.422923
0.422969
0.423014
0.42306
0.423106
0.423152
0.423199
0.423245
0.423292
0.423339
0.423386
0.423433
0.423481
0.423528
0.423576
0.423624
0.423672
0.423721
0.423769
0.423818
0.423867
0.423916
0.423965
0.424015
0.424064
0.424114
0.424164
0.424215
0.424265
0.424316
0.424366
0.424417
0.424469
0.42452
0.424572
0.424623
0.424675
0.424728
0.42478
0.424832
0.424885
0.424938
0.424991
0.425044
0.425098
0.425152
0.425205
0.425259
0.425314
0.425368
0.425423
0.425478
0.425533
0.425588
0.425643
0.425699
0.425755
0.425811
0.425867
0.425923
0.42598
0.426036
0.426093
0.426151
0.426208
0.426265
0.426323
0.426381
0.426439
0.426497
0.426556
0.426614
0.426673
0.426732
0.426791
0.426851
0.42691
0.42697
0.42703
0.42709
0.427151
0.427211
0.427272
0.427333
0.427394
0.427455
0.427517
0.427578
0.42764
0.427702
0.427764
0.427826
0.427889
0.427952
0.428015
0.428078
0.428141
0.428204
0.428268
0.428332
0.428396
0.42846
0.428524
0.428588
0.428653
0.428718
0.428783
0.428848
0.428913
0.428979
0.429045
0.42911
0.429176
0.429243
0.429309
0.429375
0.429442
0.429509
0.429576
0.429643
0.42971
0.429778
0.429845
0.429913
0.429981
0.430049
0.430117
0.430186
0.430254
0.430323
0.430392
0.430461
0.43053
0.430599
0.430669
0.430738
0.430808
0.430878
0.430948
0.431018
0.431088
0.431159
0.431229
0.4313
0.431371
0.431442
0.431513
0.431584
0.431656
0.431727
0.431799
0.431871
0.431943
0.432015
0.432087
0.432159
0.432231
0.432304
0.432376
0.432449
0.432522
0.432595
0.432668
0.432741
0.432815
0.432888
0.432961
0.433035
0.433109
0.433183
0.433257
0.433331
0.433405
0.433479
0.433553
0.433628
0.433702
0.433777
0.433852
0.433927
0.434001
0.434076
0.434151
0.434227
0.434302
0.434377
0.434453
0.434528
0.434604
0.434679
0.434755
0.434831
0.434907
0.434983
0.435059
0.435135
0.435211
0.435287
0.435363
0.435439
0.435516
0.435592
0.435669
0.435745
0.435822
0.435899
0.435976
0.436052
0.436129
0.436206
0.436283
0.43636
0.436438
0.436514
0.436592
0.436668
0.436747
0.436823
0.436903
0.436978
0.437058
0.437133
0.437215
0.437289
0.437372
0.437445
0.437531
0.4376
0.43769
0.437756
0.437845
0.437909
0.437987
0.437987
0.437987
1
1.09581
1.14345
1.13372
1.09731
1.05286
1.00886
0.968568
0.932885
0.901671
0.874422
0.850559
0.829538
0.810893
0.794239
0.779261
0.765703
0.75336
0.742064
0.731676
0.722081
0.713185
0.704908
0.697182
0.689951
0.683166
0.676785
0.670771
0.665091
0.659717
0.654624
0.649789
0.645192
0.640817
0.636647
0.63267
0.628871
0.625238
0.62176
0.618427
0.615229
0.612157
0.609205
0.606365
0.603631
0.600997
0.598459
0.596011
0.593648
0.591364
0.589157
0.587023
0.584958
0.58296
0.581027
0.579155
0.57734
0.575581
0.573873
0.572215
0.570602
0.569034
0.567509
0.566026
0.564584
0.563182
0.561817
0.560487
0.55919
0.557925
0.55669
0.555485
0.554311
0.553169
0.552057
0.550975
0.54992
0.548892
0.547888
0.546907
0.545951
0.545019
0.544114
0.543238
0.542393
0.541576
0.540788
0.540025
0.539287
0.538574
0.537889
0.537236
0.536617
0.536033
0.535482
0.534958
0.534458
0.533979
0.533522
0.533089
0.532683
0.532304
0.531953
0.531625
0.531317
0.531026
0.530751
0.530493
0.530254
0.530035
0.529837
0.52966
0.529501
0.529357
0.529227