# vtk DataFile Version 2.0
FlowField
ASCII
DATASET STRUCTURED_GRID
DIMENSIONS 400 1 50
POINTS 20000 float
0 0 0
0.08 0 0
0.16 0 0
0.24 0 0
0.32 0 0
0.4 0 0
0.48 0 0
0.56 0 0
0.64 0 0
0.72 0 0
0.8 0 0
0.88 0 0
0.96 0 0
1.04 0 0
1.12 0 0
1.2 0 0
1.28 0 0
1.36 0 0
1.44 0 0
1.52 0 0
1.6 0 0
1.68 0 0
1.76 0 0
1.84 0 0
1.92 0 0
2 0 0
2.08 0 0
2.16 0 0
2.24 0 0
2.32 0 0
2.4 0 0
2.48 0 0
2.56 0 0
2.64 0 0
2.72 0 0
2.8 0 0
2.88 0 0
2.96 0 0
3.04 0 0
3.12 0 0
3.2 0 0
3.28 0 0
3.36 0 0
3.44 0 0
3.52 0 0
3.6 0 0
3.68 0 0
3.76 0 0
3.84 0 0
3.92 0 0
4 0 0
4.08 0 0
4.16 0 0
4.24 0 0
4.32 0 0
4.4 0 0
4.48 0 0
4.56 0 0
4.64 0 0
4.72 0 0
4.8 0 0
4.88 0 0
4.96 0 0
5.04 0 0
5.12 0 0
5.2 0 0
5.28 0 0
5.36 0 0
5.44 0 0
5.52 0 0
5.6 0 0
5.68 0 0
5.76 0 0
5.84 0 0
5.92 0 0
6 0 0
6.08 0 0
6.16 0 0
6.24 0 0
6.32 0 0
6.4 0 0
6.48 0 0
6.56 0 0
6.64 0 0
6.72 0 0
6.8 0 0
6.88 0 0
6.96 0 0
7.04 0 0
7.12 0 0
7.2 0 0
7.28 0 0
7.36 0 0
7.44 0 0
7.52 0 0
7.6 0 0
7.68 0 0
7.76 0 0
7.84 0 0
7.92 0 0
8 0 0
8.08 0 0
8.16 0 0
8.24 0 0
8.32 0 0
8.4 0 0
8.48 0 0
8.56 0 0
8.64 0 0
8.72 0 0
8.8 0 0
8.88 0 0
8.96 0 0
9.04 0 0
9.12 0 0
9.2 0 0
9.28 0 0
9.36 0 0
9.44 0 0
9.52 0 0
9.6 0 0
9.68 0 0
9.76 0 0
9.84 0 0
9.92 0 0
10 0 0
10.08 0 0
10.16 0 0
10.24 0 0
10.32 0 0
10.4 0 0
10.48 0 0
10.56 0 0
10.64 0 0
10.72 0 0
10.8 0 0
10.88 0 0
10.96 0 0
11.04 0 0
11.12 0 0
11.2 0 0
11.28 0 0
11.36 0 0
11.44 0 0
11.52 0 0
11.6 0 0
11.68 0 0
11.76 0 0
11.84 0 0
11.92 0 0
12 0 0
12.08 0 0
12.16 0 0
12.24 0 0
12.32 0 0
12.4 0 0
12.48 0 0
12.56 0 0
12.64 0 0
12.72 0 0
12.8 0 0
12.88 0 0
12.96 0 0
13.04 0 0
13.12 0 0
13.2 0 0
13.28 0 0
13.36 0 0
13.44 0 0
13.52 0 0
13.6 0 0
13.68 0 0
13.76 0 0
13.84 0 0
13.92 0 0
14 0 0
14.08 0 0
14.16 0 0
14.24 0 0
14.32 0 0
14.4 0 0
14.48 0 0
14.56 0 0
14.64 0 0
14.72 0 0
14.8 0 0
14.88 0 0
14.96 0 0
15.04 0 0
15.12 0 0
15.2 0 0
15.28 0 0
15.36 0 0
15.44 0 0
15.52 0 0
15.6 0 0
15.68 0 0
15.76 0 0
15.84 0 0
15.92 0 0
16 0 0
16.08 0 0
16.16 0 0
16.24 0 0
16.32 0 0
16.4 0 0
16.48 0 0
16.56 0 0
16.64 0 0
16.72 0 0
16.8 0 0
16.88 0 0
16.96 0 0
17.04 0 0
17.12 0 0
17.2 0 0
17.28 0 0
17.36 0 0
17.44 0 0
17.52 0 0
17.6 0 0
17.68 0 0
17.76 0 0
17.84 0 0
17.92 0 0
18 0 0
18.08 0 0
18.16 0 0
18.24 0 0
18.32 0 0
18.4 0 0
18.48 0 0
18.56 0 0
18.64 0 0
18.72 0 0
18.8 0 0
18.88 0 0
18.96 0 0
19.04 0 0
19.12 0 0
19.2 0 0
19.28 0 0
19.36 0 0
19.44 0 0
19.52 0 0
19.6 0 0
19.68 0 0
19.76 0 0
19.84 0 0
19.92 0 0
20 0 0
20.08 0 0
20.16 0 0
20.24 0 0
20.32 0 0
20.4 0 0
20.48 0 0
20.56 0 0
20.64 0 0
20.72 0 0
20.8 0 0
20.88 0 0
20.96 0 0
21.04 0 0
21.12 0 0
21.2 0 0
21.28 0 0
21.36 0 0
21.44 0 0
21.52 0 0
21.6 0 0
21.68 0 0
21.76 0 0
21.84 0 0
21.92 0 0
22 0 0
22.08 0 0
22.16 0 0
22.24 0 0
22.32 0 0
22.4 0 0
22.48 0 0
22.56 0 0
22.64 0 0
22.72 0 0
22.8 0 0
22.88 0 0
22.96 0 0
23.04 0 0
23.12 0 0
23.2 0 0
23.28 0 0
23.36 0 0
23.44 0 0
23.52 0 0
23.6 0 0
23.68 0 0
23.76 0 0
23.84 0 0
23.92 0 0
24 0 0
24.08 0 0
24.16 0 0
24.24 0 0
24.32 0 0
24.4 0 0
24.48 0 0
24.56 0 0
24.64 0 0
24.72 0 0
24.8 0 0
24.88 0 0
24.96 0 0
25.04 0 0
25.12 0 0
25.2 0 0
25.28 0 0
25.36 0 0
25.44 0 0
25.52 0 0
25.6 0 0
25.68 0 0
25.76 0 0
25.84 0 0
25.92 0 0
26 0 0
26.08 0 0
26.16 0 0
26.24 0 0
26.32 0 0
26.4 0 0
26.48 0 0
26.56 0 0
26.64 0 0
26.72 0 0
26.8 0 0
26.88 0 0
26.96 0 0
27.04 0 0
27.12 0 0
27.2 0 0
27.28 0 0
27.36 0 0
27.44 0 0
27.52 0 0
27.6 0 0
27.68 0 0
27.76 0 0
27.84 0 0
27.92 0 0
28 0 0
28.08 0 0
28.16 0 0
28.24 0 0
28.32 0 0
28.4 0 0
28.48 0 0
28.56 0 0
28.64 0 0
28.72 0 0
28.8 0 0
28.88 0 0
28.96 0 0
29.04 0 0
29.12 0 0
29.2 0 0
29.28 0 0
29.36 0 0
29.44 0 0
29.52 0 0
29.6 0 0
29.68 0 0
29.76 0 0
29.84 0 0
29.92 0 0
30 0 0
30.08 0 0
30.16 0 0
30.24 0 0
30.32 0 0
30.4 0 0
30.48 0 0
30.56 0 0
30.64 0 0
30.72 0 0
30.8 0 0
30.88 0 0
30.96 0 0
31.04 0 0
31.12 0 0
31.2 0 0
31.28 0 0
31.36 0 0
31.44 0 0
31.52 0 0
31.6 0 0
31.68 0 0
31.76 0 0
31.84 0 0
31.92 0 0
0 0.02 0
0.08 0.02 0
0.16 0.02 0
0.24 0.02 0
0.32 0.02 0
0.4 0.02 0
0.48 0.02 0
0.56 0.02 0
0.64 0.02 0
0.72 0.02 0
0.8 0.02 0
0.88 0.02 0
0.96 0.02 0
1.04 0.02 0
1.12 0.02 0
1.2 0.02 0
1.28 0.02 0
1.36 0.02 0
1.44 0.02 0
1.52 0.02 0
1.6 0.02 0
1.68 0.02 0
1.76 0.02 0
1.84 0.02 0
1.92 0.02 0
2 0.02 0
2.08 0.02 0
2.16 0.02 0
2.24 0.02 0
2.32 0.02 0
2.4 0.02 0
2.48 0.02 0
2.56 0.02 0
2.64 0.02 0
2.72 0.02 0
2.8 0.02 0
2.88 0.02 0
2.96 0.02 0
3.04 0.02 0
3.12 0.02 0
3.2 0.02 0
3.28 0.02 0
3.36 0.02 0
3.44 0.02 0
3.52 0.02 0
3.6 0.02 0
3.68 0.02 0
3.76 0.02 0
3.84 0.02 0
3.92 0.02 0
4 0.02 0
4.08 0.02 0
4.16 0.02 0
4.24 0.02 0
4.32 0.02 0
4.4 0.02 0
4.48 0.02 0
4.56 0.02 0
4.64 0.02 0
4.72 0.02 0
4.8 0.02 0
4.88 0.02 0
4.96 0.02 0
5.04 0.02 0
5.12 0.02 0
5.2 0.02 0
5.28 0.02 0
5.36 0.02 0
5.44 0.02 0
5.52 0.02 0
5.6 0.02 0
5.68 0.02 0
5.76 0.02 0
5.84 0.02 0
5.92 0.02 0
6 0.02 0
6.08 0.02 0
6.16 0.02 0
6.24 0.02 0
6.32 0.02 0
6.4 0.02 0
6.48 0.02 0
6.56 0.02 0
6.64 0.02 0
6.72 0.02 0
6.8 0.02 0
6.88 0.02 0
6.96 0.02 0
7.04 0.02 0
7.12 0.02 0
7.2 0.02 0
7.28 0.02 0
7.36 0.02 0
7.44 0.02 0
7.52 0.02 0
7.6 0.02 0
7.68 0.02 0
7.76 0.02 0
7.84 0.02 0
7.92 0.02 0
8 0.02 0
8.08 0.02 0
8.16 0.02 0
8.24 0.02 0
8.32 0.02 0
8.4 0.02 0
8.48 0.02 0
8.56 0.02 0
8.64 0.02 0
8.72 0.02 0
8.8 0.02 0
8.88 0.02 0
8.96 0.02 0
9.04 0.02 0
9.12 0.02 0
9.2 0.02 0
9.28 0.02 0
9.36 0.02 0
9.44 0.02 0
9.52 0.02 0
9.6 0.02 0
9.68 0.02 0
9.76 0.02 0
9.84 0.02 0
9.92 0.02 0
10 0.02 0
10.08 0.02 0
10.16 0.02 0
10.24 0.02 0
10.32 0.02 0
10.4 0.02 0
10.48 0.02 0
10.56 0.02 0
10.64 0.02 0
10.72 0.02 0
10.8 0.02 0
10.88 0.02 0
10.96 0.02 0
11.04 0.02 0
11.12 0.02 0
11.2 0.02 0
11.28 0.02 0
11.36 0.02 0
11.44 0.02 0
11.52 0.02 0
11.6 0.02 0
11.68 0.02 0
11.76 0.02 0
11.84 0.02 0
11.92 0.02 0
12 0.02 0
12.08 0.02 0
12.16 0.02 0
12.24 0.02 0
12.32 0.02 0
12.4 0.02 0
12.48 0.02 0
12.56 0.02 0
12.64 0.02 0
12.72 0.02 0
12.8 0.02 0
12.88 0.02 0
12.96 0.02 0
13.04 0.02 0
13.12 0.02 0
13.2 0.02 0
13.28 0.02 0
13.36 0.02 0
13.44 0.02 0
13.52 0.02 0
13.6 0.02 0
13.68 0.02 0
13.76 0.02 0
13.84 0.02 0
13.92 0.02 0
14 0.02 0
14.08 0.02 0
14.16 0.02 0
14.24 0.02 0
14.32 0.02 0
14.4 0.02 0
14.48 0.02 0
14.56 0.02 0
14.64 0.02 0
14.72 0.02 0
14.8 0.02 0
14.88 0.02 0
14.96 0.02 0
15.04 0.02 0
15.12 0.02 0
15.2 0.02 0
15.28 0.02 0
15.36 0.02 0
15.44 0.02 0
15.52 0.02 0
15.6 0.02 0
15.68 0.02 0
15.76 0.02 0
15.84 0.02 0
15.92 0.02 0
16 0.02 0
16.08 0.02 0
16.16 0.02 0
16.24 0.02 0
16.32 0.02 0
16.4 0.02 0
16.48 0.02 0
16.56 0.02 0
16.64 0.02 0
16.72 0.02 0
16.8 0.02 0
16.88 0.02 0
16.96 0.02 0
17.04 0.02 0
17.12 0.02 0
17.2 0.02 0
17.28 0.02 0
17.36 0.02 0
17.44 0.02 0
17.52 0.02 0
17.6 0.02 0
17.68 0.02 0
17.76 0.02 0
17.84 0.02 0
17.92 0.02 0
18 0.02 0
18.08 0.02 0
18.16 0.02 0
18.24 0.02 0
18.32 0.02 0
18.4 0.02 0
18.48 0.02 0
18.56 0.02 0
18.64 0.02 0
18.72 0.02 0
18.8 0.02 0
18.88 0.02 0
18.96 0.02 0
19.04 0.02 0
19.12 0.02 0
19.2 0.02 0
19.28 0.02 0
19.36 0.02 0
19.44 0.02 0
19.52 0.02 0
19.6 0.02 0
19.68 0.02 0
19.76 0.02 0
19.84 0.02 0
19.92 0.02 0
20 0.02 0
20.08 0.02 0
20.16 0.02 0
20.24 0.02 0
20.32 0.02 0
20.4 0.02 0
20.48 0.02 0
20.56 0.02 0
20.64 0.02 0
20.72 0.02 0
20.8 0.02 0
20.88 0.02 0
20.96 0.02 0
21.04 0.02 0
21.12 0.02 0
21.2 0.02 0
21.28 0.02 0
21.36 0.02 0
21.44 0.02 0
21.52 0.02 0
21.6 0.02 0
21.68 0.02 0
21.76 0.02 0
21.84 0.02 0
21.92 0.02 0
22 0.02 0
22.08 0.02 0
22.16 0.02 0
22.24 0.02 0
22.32 0.02 0
22.4 0.02 0
22.48 0.02 0
22.56 0.02 0
22.64 0.02 0
22.72 0.02 0
22.8 0.02 0
22.88 0.02 0
22.96 0.02 0
23.04 0.02 0
23.12 0.02 0
23.2 0.02 0
23.28 0.02 0
23.36 0.02 0
23.44 0.02 0
23.52 0.02 0
23.6 0.02 0
23.68 0.02 0
23.76 0.02 0
23.84 0.02 0
23.92 0.02 0
24 0.02 0
24.08 0.02 0
24.16 0.02 0
24.24 0.02 0
24.32 0.02 0
24.4 0.02 0
24.48 0.02 0
24.56 0.02 0
24.64 0.02 0
24.72 0.02 0
24.8 0.02 0
24.88 0.02 0
24.96 0.02 0
25.04 0.02 0
25.12 0.02 0
25.2 0.02 0
25.28 0.02 0
25.36 0.02 0
25.44 0.02 0
25.52 0.02 0
25.6 0.02 0
25.68 0.02 0
25.76 0.02 0
25.84 0.02 0
25.92 0.02 0
26 0.02 0
26.08 0.02 0
26.16 0.02 0
26.24 0.02 0
26.32 0.02 0
26.4 0.02 0
26.48 0.02 0
26.56 0.02 0
26.64 0.02 0
26.72 0.02 0
26.8 0.02 0
26.88 0.02 0
26.96 0.02 0
27.04 0.02 0
27.12 0.02 0
27.2 0.02 0
27.28 0.02 0
27.36 0.02 0
27.44 0.02 0
27.52 0.02 0
27.6 0.02 0
27.68 0.02 0
27.76 0.02 0
27.84 0.02 0
27.92 0.02 0
28 0.02 0
28.08 0.02 0
28.16 0.02 0
28.24 0.02 0
28.32 0.02 0
28.4 0.02 0
28.48 0.02 0
28.56 0.02 0
28.64 0.02 0
28.72 0.02 0
28.8 0.02 0
28.88 0.02 0
28.96 0.02 0
29.04 0.02 0
29.12 0.02 0
29.2 0.02 0
29.28 0.02 0
29.36 0.02 0
29.44 0.02 0
29.52 0.02 0
29.6 0.02 0
29.68 0.02 0
29.76 0.02 0
29.84 0.02 0
29.92 0.02 0
30 0.02 0
30.08 0.02 0
30.16 0.02 0
30.24 0.02 0
30.32 0.02 0
30.4 0.02 0
30.48 0.02 0
30.56 0.02 0
30.64 0.02 0
30.72 0.02 0
30.8 0.02 0
30.88 0.02 0
30.96 0.02 0
31.04 0.02 0
31.12 0.02 0
31.2 0.02 0
31.28 0.02 0
31.36 0.02 0
31.44 0.02 0
31.52 0.02 0
31.6 0.02 0
31.68 0.02 0
31.76 0.02 0
31.84 0.02 0
31.92 0.02 0
0 0.04 0
0.08 0.04 0
0.16 0.04 0
0.24 0.04 0
0.32 0.04 0
0.4 0.04 0
0.48 0.04 0
0.56 0.04 0
0.64 0.04 0
0.72 0.04 0
0.8 0.04 0
0.88 0.04 0
0.96 0.04 0
1.04 0.04 0
1.12 0.04 0
1.2 0.04 0
1.28 0.04 0
1.36 0.04 0
1.44 0.04 0
1.52 0.04 0
1.6 0.04 0
1.68 0.04 0
1.76 0.04 0
1.84 0.04 0
1.92 0.04 0
2 0.04 0
2.08 0.04 0
2.16 0.04 0
2.24 0.04 0
2.32 0.04 0
2.4 0.04 0
2.48 0.04 0
2.56 0.04 0
2.64 0.04 0
2.72 0.04 0
2.8 0.04 0
2.88 0.04 0
2.96 0.04 0
3.04 0.04 0
3.12 0.04 0
3.2 0.04 0
3.28 0.04 0
3.36 0.04 0
3.44 0.04 0
3.52 0.04 0
3.6 0.04 0
3.68 0.04 0
3.76 0.04 0
3.84 0.04 0
3.92 0.04 0
4 0.04 0
4.08 0.04 0
4.16 0.04 0
4.24 0.04 0
4.32 0.04 0
4.4 0.04 0
4.48 0.04 0
4.56 0.04 0
4.64 0.04 0
4.72 0.04 0
4.8 0.04 0
4.88 0.04 0
4.96 0.04 0
5.04 0.04 0
5.12 0.04 0
5.2 0.04 0
5.28 0.04 0
5.36 0.04 0
5.44 0.04 0
5.52 0.04 0
5.6 0.04 0
5.68 0.04 0
5.76 0.04 0
5.84 0.04 0
5.92 0.04 0
6 0.04 0
6.08 0.04 0
6.16 0.04 0
6.24 0.04 0
6.32 0.04 0
6.4 0.04 0
6.48 0.04 0
6.56 0.04 0
6.64 0.04 0
6.72 0.04 0
6.8 0.04 0
6.88 0.04 0
6.96 0.04 0
7.04 0.04 0
7.12 0.04 0
7.2 0.04 0
7.28 0.04 0
7.36 0.04 0
7.44 0.04 0
7.52 0.04 0
7.6 0.04 0
7.68 0.04 0
7.76 0.04 0
7.84 0.04 0
[...]
POINT_DATA 20000

SCALARS u float 1
LOOKUP_TABLE default
0
-0.507087
-0.291916
-0.214157
-0.179021
-0.158659
-0.145105
-0.135353
-0.127961
-0.122133
-0.117394
-0.113443
-0.110079
-0.107165
-0.104607
-0.102333
-0.100293
-0.0984481
-0.096768
-0.0952292
-0.0938129
-0.0925037
-0.0912889
-0.0901579
-0.0891018
-0.0881129
-0.0871846
-0.0863112
-0.0854878
-0.0847099
-0.0839737
-0.0832757
-0.0826131
-0.0819829
-0.0813828
-0.0808106
-0.0802643
-0.0797422
-0.0792425
-0.078764
-0.0783051
-0.0778646
-0.0774416
-0.0770348
-0.0766434
-0.0762666
-0.0759034
-0.0755531
-0.0752151
-0.0748888
-0.0745735
-0.0742687
-0.0739738
-0.0736884
-0.0734121
-0.0731445
-0.0728851
-0.0726335
-0.0723895
-0.0721527
-0.0719229
-0.0716996
-0.0714827
-0.071272
-0.0710671
-0.0708678
-0.070674
-0.0704855
-0.0703019
-0.0701233
-0.0699493
-0.0697798
-0.0696147
-0.0694539
-0.0692972
-0.0691444
-0.0689954
-0.0688501
-0.0687085
-0.0685703
-0.0684355
-0.068304
-0.0681756
-0.0680504
-0.0679281
-0.0678088
-0.0676922
-0.0675785
-0.0674673
-0.0673588
-0.0672528
-0.0671493
-0.0670482
-0.0669494
-0.0668529
-0.0667586
-0.0666665
-0.0665764
-0.0664884
-0.0664024
-0.0663184
-0.0662362
-0.0661559
-0.0660774
-0.0660006
-0.0659256
-0.0658523
-0.0657805
-0.0657104
-0.0656418
-0.0655747
-0.0655091
-0.065445
-0.0653823
-0.0653209
-0.0652609
-0.0652023
-0.0651449
-0.0650887
-0.0650338
-0.06498
-0.0649274
-0.064876
-0.0648257
-0.0647765
-0.0647283
-0.0646812
-0.0646351
-0.0645899
-0.0645458
-0.0645026
-0.0644603
-0.0644189
-0.0643784
-0.0643388
-0.0643
-0.0642621
-0.064225
-0.0641887
-0.0641531
-0.0641183
-0.0640842
-0.0640509
-0.0640183
-0.0639864
-0.0639552
-0.0639247
-0.0638948
-0.0638655
-0.0638368
-0.0638088
-0.0637814
-0.0637546
-0.0637283
-0.0637027
-0.0636776
-0.063653
-0.0636289
-0.0636053
-0.0635823
-0.0635597
-0.0635376
-0.063516
-0.0634949
-0.0634742
-0.063454
-0.0634342
-0.0634148
-0.0633958
-0.0633773
-0.0633591
-0.0633414
-0.0633242
-0.0633073
-0.0632908
-0.0632747
-0.063259
-0.0632436
-0.0632287
-0.0632141
-0.0631999
-0.0631861
-0.0631727
-0.0631597
-0.0631471
-0.063135
-0.0631231
-0.0631116
-0.0631005
-0.0630897
-0.0630794
-0.0630695
-0.0630601
-0.063051
-0.0630423
-0.0630339
-0.0630259
-0.0630181
-0.0630107
-0.0630038
-0.0629972
-0.0629911
-0.0629853
-0.0629799
-0.0629747
-0.0629697
-0.0629651
-0.0629608
-0.0629568
-0.0629533
-0.06295
-0.0629471
-0.0629444
-0.0629419
-0.0629396
-0.0629376
-0.0629358
-0.0629343
-0.0629331
-0.0629321
-0.0629313
-0.0629307
-0.0629303
-0.0629299
-0.0629298
-0.0629298
-0.06293
-0.0629303
-0.0629308
-0.0629315
-0.0629322
-0.062933
-0.0629339
-0.0629349
-0.062936
-0.0629371
-0.0629384
-0.0629397
-0.0629411
-0.0629425
-0.062944
-0.0629455
-0.0629471
-0.0629487
-0.0629503
-0.062952
-0.0629536
-0.0629554
-0.0629571
-0.0629588
-0.0629606
-0.0629623
-0.0629641
-0.0629659
-0.0629677
-0.0629695
-0.0629713
-0.0629731
-0.0629749
-0.0629767
-0.0629785
-0.0629803
-0.0629821
-0.062984
-0.0629858
-0.0629876
-0.0629894
-0.0629912
-0.0629931
-0.0629949
-0.0629967
-0.0629985
-0.0630004
-0.0630022
-0.063004
-0.0630058
-0.0630077
-0.0630095
-0.0630113
-0.0630132
-0.063015
-0.0630168
-0.0630187
-0.0630205
-0.0630223
-0.0630242
-0.063026
-0.0630278
-0.0630297
-0.0630315
-0.0630333
-0.0630352
-0.063037
-0.0630389
-0.0630407
-0.0630425
-0.0630444
-0.0630462
-0.0630481
-0.0630499
-0.0630518
-0.0630536
-0.0630555
-0.0630573
-0.0630592
-0.063061
-0.0630628
-0.0630647
-0.0630665
-0.0630684
-0.0630703
-0.0630721
-0.063074
-0.0630758
-0.0630777
-0.0630795
-0.0630814
-0.0630832
-0.0630851
-0.0630869
-0.0630888
-0.0630907
-0.0630925
-0.0630944
-0.0630962
-0.0630981
-0.0631
-0.0631018
-0.0631037
-0.0631055
-0.0631074
-0.0631093
-0.0631111
-0.063113
-0.0631149
-0.0631167
-0.0631186
-0.0631205
-0.0631223
-0.0631242
-0.0631261
-0.0631279
-0.0631298
-0.0631317
-0.0631335
-0.0631354
-0.0631373
-0.0631391
-0.063141
-0.0631429
-0.0631448
-0.0631466
-0.0631485
-0.0631504
-0.0631522
-0.0631541
-0.063156
-0.0631579
-0.0631597
-0.0631616
-0.0631635
-0.0631654
-0.0631672
-0.0631691
-0.063171
-0.0631729
-0.0631748
-0.0631766
-0.0631785
-0.0631804
-0.0631823
-0.0631842
-0.063186
-0.0631879
-0.0631898
-0.0631917
-0.0631936
-0.0631955
-0.0631974
-0.0631993
-0.0632012
-0.0632031
-0.063205
-0.063207
-0.0632088
-0.0632108
-0.0632127
-0.0632147
-0.0632166
-0.0632186
-0.0632205
-0.0632226
-0.0632245
-0.0632264
-0.0632284
-0.06323
-0.063232
-0.0632312
-0.0632312
-0.0632312
1
0.507087
0.291916
0.214157
0.179021
0.158659
0.145105
0.135353
0.127961
0.122133
0.117394
0.113443
0.110079
0.107165
0.104607
0.102333
0.100293
0.0984481
0.096768
0.0952292
0.0938129
0.0925037
0.0912889
0.0901579
0.0891018
0.0881129
0.0871846
0.0863112
0.0854878
0.0847099
0.0839737
0.0832757
0.0826131
0.0819829
0.0813828
0.0808106
0.0802643
0.0797422
0.0792425
0.078764
0.0783051
0.0778646
0.0774416
0.0770348
0.0766434
0.0762666
0.0759034
0.0755531
0.0752151
0.0748888
0.0745735
0.0742687
0.0739738
0.0736884
0.0734121
0.0731445
0.0728851
0.0726335
0.0723895
0.0721527
0.0719229
0.0716996
0.0714827
0.071272
0.0710671
0.0708678
0.070674
0.0704855
0.0703019
0.0701233
0.0699493
0.0697798
0.0696147
0.0694539
0.0692972
0.0691444
0.0689954
0.0688501
0.0687085
0.0685703
0.0684355
0.068304
0.0681756
0.0680504
0.0679281
0.0678088
0.0676922
0.0675785
0.0674673
0.0673588
0.0672528
0.0671493
0.0670482
0.0669494
0.0668529
0.0667586
0.0666665
0.0665764
0.0664884
0.0664024
0.0663184
0.0662362
0.0661559
0.0660774
0.0660006
0.0659256
0.0658523
0.0657805
0.0657104
0.0656418
0.0655747
0.0655091
0.065445
0.0653823
0.0653209
0.0652609
0.0652023
0.0651449
0.0650887
0.0650338
0.06498
0.0649274
0.064876
0.0648257
0.0647765
0.0647283
0.0646812
0.0646351
0.0645899
0.0645458
0.0645026
0.0644603
0.0644189
0.0643784
0.0643388
0.0643
0.0642621
0.064225
0.0641887
0.0641531
0.0641183
0.0640842
0.0640509
0.0640183
0.0639864
0.0639552
0.0639247
0.0638948
0.0638655
0.0638368
0.0638088
0.0637814
0.0637546
0.0637283
0.0637027
0.0636776
0.063653
0.0636289
0.0636053
0.0635823
0.0635597
0.0635376
0.063516
0.0634949
0.0634742
0.063454
0.0634342
0.0634148
0.0633958
0.0633773
0.0633591
0.0633414
0.0633242
0.0633073
0.0632908
0.0632747
0.063259
0.0632436
0.0632287
0.0632141
0.0631999
0.0631861
0.0631727
0.0631597
0.0631471
0.063135
0.0631231
0.0631116
0.0631005
0.0630897
0.0630794
0.0630695
0.0630601
0.063051
0.0630423
0.0630339
0.0630259
0.0630181
0.0630107
0.0630038
0.0629972
0.0629911
0.0629853
0.0629799
0.0629747
0.0629697
0.0629651
0.0629608
0.0629568
0.0629533
0.06295
0.0629471
0.0629444
0.0629419
0.0629396
0.0629376
0.0629358
0.0629343
0.0629331
0.0629321
0.0629313
0.0629307
0.0629303
0.0629299
0.0629298
0.0629298
0.06293
0.0629303
0.0629308
0.0629315
0.0629322
0.062933
0.0629339
0.0629349
0.062936
0.0629371
0.0629384
0.0629397
0.0629411
0.0629425
0.062944
0.0629455
0.0629471
0.0629487
0.0629503
0.062952
0.0629536
0.0629554
0.0629571
0.0629588
0.0629606
0.0629623
0.0629641
0.0629659
0.0629677
0.0629695
0.0629713
0.0629731
0.0629749
0.0629767
0.0629785
0.0629803
0.0629821
0.062984
0.0629858
0.0629876
0.0629894
0.0629912
0.0629931
0.0629949
0.0629967
0.0629985
0.0630004
0.0630022
0.063004
0.0630058
0.0630077
0.0630095
0.0630113
0.0630132
0.063015
0.0630168
0.0630187
0.0630205
0.0630223
0.0630242
0.063026
0.0630278
0.0630297
0.0630315
0.0630333
0.0630352
0.063037
0.0630389
0.0630407
0.0630425
0.0630444
0.0630462
0.0630481
0.0630499
0.0630518
0.0630536
0.0630555
0.0630573
0.0630592
0.063061
0.0630628
0.0630647
0.0630665
0.0630684
0.0630703
0.0630721
0.063074
0.0630758
0.0630777
0.0630795
0.0630814
0.0630832
0.0630851
0.0630869
0.0630888
0.0630907
0.0630925
0.0630944
0.0630962
0.0630981
0.0631
0.0631018
0.0631037
0.0631055
0.0631074
0.0631093
0.0631111
0.063113
0.0631149
0.0631167
0.0631186
0.0631205
0.0631223
0.0631242
0.0631261
0.0631279
0.0631298
0.0631317
0.0631335
0.0631354
0.0631373
0.0631391
0.063141
0.0631429
0.0631448
0.0631466
0.0631485
0.0631504
0.0631522
0.0631541
0.063156
0.0631579
0.0631597
0.0631616
0.0631635
0.0631654
0.0631672
0.0631691
0.063171
0.0631729
0.0631748
0.0631766
0.0631785
0.0631804
0.0631823
0.0631842
0.063186
0.0631879
0.0631898
0.0631917
0.0631936
0.0631955
0.0631974
0.0631993
0.0632012
0.0632031
0.063205
0.063207
0.0632088
0.0632108
0.0632127
0.0632147
0.0632166
0.0632186
0.0632205
0.0632226
0.0632245
0.0632264
0.0632284
0.06323
0.063232
0.0632312
0.0632312
0.0632312
1
0.924293
0.73544
0.597542
0.511647
0.456331
0.418169
0.390264
0.368932
0.352046
0.338298
0.326838
0.317097
0.308679
0.301304
0.294766
0.288913
0.283631
0.278831
0.274441
0.270407
0.266683
0.263231
0.260021
0.257025
0.254222
0.251593
0.249121
0.246791
0.244591
0.24251
0.240538
0.238667
0.236887
0.235194
0.233579
0.232039
0.230566
0.229158
0.227809
0.226516
0.225276
0.224085
0.222939
0.221838
0.220777
0.219756
0.218771
0.21782
0.216903
0.216016
0.21516
0.214331
0.21353
0.212754
0.212002
0.211274
0.210568
0.209883
0.209219
0.208574
0.207948
0.20734
0.206749
0.206175
0.205616
0.205073
0.204545
0.204031
0.20353
0.203043
0.202569
0.202107
0.201657
0.201218
0.200791
0.200374
0.199968
0.199572
0.199185
0.198809
0.198441
0.198082
0.197733
0.197391
0.197058
0.196732
0.196415
0.196104
0.195802
0.195506
0.195217
0.194935
0.194659
0.19439
0.194127
0.19387
0.193619
0.193374
0.193134
0.1929
0.192671
0.192447
0.192229
0.192015
0.191806
0.191602
0.191402
0.191207
0.191016
0.190829
0.190647
0.190468
0.190294
0.190123
0.189956
0.189793
0.189633
0.189477
0.189324
0.189175
0.189029
0.188886
0.188746
0.188609
0.188475
0.188344
0.188216
0.188091
0.187968
0.187848
0.18773
0.187615
0.187503
0.187393
0.187285
0.18718
0.187077
0.186976
0.186877
0.18678
0.186686
0.186593
0.186503
0.186414
0.186328
0.186243
0.18616
0.186079
0.185999
0.185921
0.185845
0.185771
0.185698
0.185627
0.185557
0.185489
0.185422
0.185357
0.185293
0.18523
0.185169
0.185109
0.18505
0.184993
0.184937
0.184882
0.184828
0.184776
0.184724
0.184674
0.184625
0.184578
0.184531
0.184486
0.184441
0.184398
0.184356
0.184315
0.184275
0.184236
0.184198
0.184162
0.184126
0.184092
0.184059
0.184027
0.183995
0.183965
0.183936
0.183909
0.183882
0.183857
0.183832
0.183809
0.183787
0.183765
0.183745
0.183725
0.183707
0.18369
0.183674
0.183659
0.183645
0.183631
0.183618
0.183607
0.183596
0.183586
0.183577
0.183569
0.183561
0.183555
0.183549
0.183543
0.183539
0.183535
0.183531
0.183529
0.183526
0.183525
0.183524
0.183523
0.183523
0.183523
0.183524
0.183525
0.183526
0.183528
0.18353
0.183533
0.183535
0.183538
0.183541
0.183545
0.183548
0.183552
0.183556
0.18356
0.183564
0.183568
0.183573
0.183577
0.183582
0.183586
0.183591
0.183596
0.183601
0.183606
0.183611
0.183616
0.183621
0.183626
0.183631
0.183636
0.183641
0.183646
0.183651
0.183656
0.183661
0.183666
0.183671
0.183676
0.183681
0.183686
0.183692
0.183697
0.183702
0.183707
0.183712
0.183717
0.183722
0.183727
0.183732
0.183738
0.183743
0.183748
0.183753
0.183758
0.183763
0.183768
0.183774
0.183779
0.183784
0.183789
0.183794
0.183799
0.183804
0.18381
0.183815
0.18382
0.183825
0.18383
0.183835
0.18384
0.183846
0.183851
0.183856
0.183861
0.183866
0.183871
0.183877
0.183882
0.183887
0.183892
0.183897
0.183903
0.183908
0.183913
0.183918
0.183923
0.183928
0.183934
0.183939
0.183944
0.183949
0.183954
0.18396
0.183965
0.18397
0.183975
0.18398
0.183986
0.183991
0.183996
0.184001
0.184006
0.184012
0.184017
0.184022
0.184027
0.184033
0.184038
0.184043
0.184048
0.184053
0.184059
0.184064
0.184069
0.184074
0.18408
0.184085
0.18409
0.184095
0.1841
0.184106
0.184111
0.184116
0.184121
0.184127
0.184132
0.184137
0.184142
0.184148
0.184153
0.184158
0.184163
0.184168
0.184174
0.184179
0.184184
0.184189
0.184195
0.1842
0.184205
0.18421
0.184216
0.184221
0.184226
0.184231
0.184237
0.184242
0.184247
0.184253
0.184258
0.184263
0.184268
0.184274
0.184279
0.184284
0.18429
0.184295
0.1843
0.184306
0.184311
0.184316
0.184322
0.184327
0.184332
0.184338
0.184343
0.184349
0.184354
0.18436
0.184365
0.18437
0.184375
0.184376
0.184376
0.184376
1
1.0797
0.997063
0.883641
0.788684
0.716898
0.663033
0.621817
0.589473
0.563458
0.542065
0.524122
0.508814
0.495557
0.483929
0.473617
0.464386
0.456056
0.448486
0.441567
0.43521
0.429342
0.423905
0.418849
0.414133
0.40972
0.405581
0.40169
0.398023
0.394561
0.391287
0.388184
0.385239
0.38244
0.379776
0.377236
0.374812
0.372497
0.370282
0.368161
0.366128
0.364177
0.362304
0.360504
0.358773
0.357106
0.3555
0.353952
0.352459
0.351017
0.349625
0.348279
0.346978
0.345719
0.344501
0.343321
0.342177
0.341069
0.339994
0.338952
0.33794
0.336958
0.336003
0.335077
0.334176
0.3333
0.332449
0.33162
0.330814
0.33003
0.329267
0.328523
0.327799
0.327094
0.326407
0.325738
0.325085
0.324449
0.323829
0.323224
0.322634
0.322059
0.321498
0.32095
0.320416
0.319894
0.319385
0.318889
0.318404
0.31793
0.317468
0.317016
0.316575
0.316145
0.315724
0.315313
0.314912
0.31452
0.314137
0.313762
0.313397
0.313039
0.31269
0.312348
0.312015
0.311689
0.31137
0.311058
0.310754
0.310456
0.310165
0.30988
0.309602
0.30933
0.309064
0.308804
0.308549
0.3083
0.308057
0.307819
0.307586
0.307358
0.307135
0.306918
0.306704
0.306496
0.306292
0.306092
0.305897
0.305706
0.305519
0.305336
0.305157
0.304982
0.304811
0.304643
0.304479
0.304318
0.304161
0.304008
0.303857
0.30371
0.303566
0.303425
0.303287
0.303152
0.30302
0.302891
0.302765
0.302641
0.30252
0.302402
0.302286
0.302173
0.302062
0.301953
0.301847
0.301743
0.301641
0.301542
0.301444
0.301349
0.301256
0.301165
0.301076
0.300989
0.300904
0.30082
0.300739
0.300659
0.300581
0.300505
0.300431
0.300359
0.300289
0.30022
0.300153
0.300087
0.300024
0.299962
0.299902
0.299844
0.299788
0.299733
0.29968
0.299629
0.29958
0.299532
0.299486
0.299442
0.2994
0.299359
0.29932
0.299283
0.299248
0.299214
0.299181
0.29915
0.299121
0.299094
0.299068
0.299044
0.299021
0.298999
0.298979
0.29896
0.298943
0.298927
0.298912
0.298899
0.298887
0.298877
0.298867
0.298858
0.29885
0.298844
0.298838
0.298834
0.29883
0.298827
0.298826
0.298824
0.298824
0.298824
0.298825
0.298826
0.298828
0.298831
0.298834
0.298838
0.298842
0.298846
0.298851
0.298856
0.298861
0.298867
0.298873
0.298879
0.298885
0.298892
0.298899
0.298906
0.298913
0.29892
0.298927
0.298935
0.298942
0.29895
0.298957
0.298965
0.298973
0.29898
0.298988
0.298996
0.299004
0.299012
0.299019
0.299027
0.299035
0.299043
0.299051
0.299059
0.299067
0.299075
0.299082
0.29909
0.299098
0.299106
0.299114
0.299122
0.29913
0.299138
0.299146
0.299154
0.299162
0.29917
0.299177
0.299185
0.299193
0.299201
0.299209
0.299217
0.299225
0.299233
0.299241
0.299249
0.299257
0.299265
0.299273
0.299281
0.299289
0.299297
0.299305
0.299313
0.299321
0.299329
0.299337
0.299345
0.299353
0.299361
0.299369
0.299377
0.299385
0.299393
0.299401
0.299409
0.299417
0.299425
0.299433
0.299441
0.299449
0.299457
0.299465
0.299473
0.299481
0.299489
0.299497
0.299505
0.299513
0.299521
0.299529
0.299537
0.299545
0.299553
0.299561
0.299569
0.299577
0.299585
0.299593
0.299601
0.299609
0.299617
0.299625
0.299633
0.299642
0.29965
0.299658
0.299666
0.299674
0.299682
0.29969
0.299698
0.299706
0.299714
0.299722
0.29973
0.299738
0.299746
0.299754
0.299763
0.299771
0.299779
0.299787
0.299795
0.299803
0.299811
0.299819
0.299827
0.299835
0.299843
0.299851
0.29986
0.299868
0.299876
0.299884
0.299892
0.2999
0.299908
0.299916
0.299924
0.299932
0.299941
0.299949
0.299957
0.299965
0.299973
0.299981
0.299989
0.299997
0.300006
0.300014
0.300022
0.30003
0.300039
0.300047
0.300055
0.300063
0.300072
0.30008
0.300089
0.300097
0.300105
0.300114
0.300122
0.30013
0.300138
0.300146
0.30015
0.30015
0.30015
1
1.11179
1.11437
1.05556
0.984363
0.919022
0.863786
0.8182
0.780626
0.7494
0.72314
0.700769
0.68147
0.664624
0.649762
0.636526
0.624639
0.613886
0.604097
0.595134
0.586889
0.57927
0.572204
0.565627
0.559487
0.553739
0.548344
0.543269
0.538485
0.533966
0.52969
0.525636
0.521788
0.518128
0.514644
0.511323
0.508152
0.505122
0.502223
0.499446
0.496785
0.494231
0.491778
0.48942
0.487152
0.484968
0.482865
0.480837
0.47888
0.476992
0.475167
0.473404
0.4717
0.47005
0.468454
0.466908
0.46541
0.463958
0.46255
0.461184
0.459858
0.458571
0.457322
0.456108
0.454928
0.453781
0.452666
0.451581
0.450526
0.449499
0.4485
0.447527
0.446579
0.445656
0.444757
0.443881
0.443027
0.442195
0.441384
0.440593
0.439821
0.439069
0.438335
0.437619
0.436921
0.436239
0.435574
0.434924
0.43429
0.433672
0.433068
0.432478
0.431902
0.431339
0.43079
0.430254
0.42973
0.429218
0.428718
0.428229
0.427752
0.427285
0.42683
0.426384
0.425949
0.425524
0.425108
0.424702
0.424304
0.423916
0.423537
0.423166
0.422803
0.422448
0.422102
0.421763
0.421431
0.421107
0.42079
0.42048
0.420176
0.41988
0.41959
0.419306
0.419028
0.418757
0.418491
0.418232
0.417977
0.417729
0.417485
0.417247
0.417014
0.416787
0.416564
0.416346
0.416132
0.415923
0.415719
0.415519
0.415323
0.415132
0.414945
0.414761
0.414582
0.414407
0.414235
0.414067
0.413903
0.413742
0.413584
0.41343
0.41328
0.413133
0.412988
0.412847
0.412709
0.412574
0.412442
0.412312
0.412186
0.412062
0.411941
0.411823
0.411707
0.411594
0.411483
0.411375
0.411269
0.411165
0.411064
0.410966
0.41087
0.410776
0.410685
0.410595
0.410509
0.410424
0.410342
0.410262
0.410184
0.410109
0.410036
0.409966
0.409898
0.409832
0.409768
0.409707
0.409647
0.40959
0.409536
0.409484
0.409434
0.409386
0.409341
0.409297
0.409256
0.409216
0.409179
0.409144
0.409111
0.40908
0.409051
0.409024
0.408998
0.408974
0.408952
0.408932
0.408914
0.408898
0.408883
0.408869
0.408857
0.408846
0.408837
0.408828
0.408822
0.408816
0.408812
0.408809
0.408807
0.408805
0.408805
0.408805
0.408807
0.408809
0.408812
0.408815
0.40882
0.408824
0.40883
0.408835
0.408842
0.408848
0.408855
0.408863
0.408871
0.408879
0.408887
0.408896
0.408904
0.408913
0.408923
0.408932
0.408941
0.408951
0.40896
0.40897
0.40898
0.40899
0.409
0.40901
0.409019
0.409029
0.409039
0.409049
0.40906
0.40907
0.40908
0.40909
0.4091
0.40911
0.40912
0.40913
0.40914
0.40915
0.409161
0.409171
0.409181
0.409191
0.409201
0.409211
0.409221
0.409232
0.409242
0.409252
0.409262
0.409272
0.409282
0.409293
0.409303
0.409313
0.409323
0.409333
0.409343
0.409354
0.409364
0.409374
0.409384
0.409394
0.409405
0.409415
0.409425
0.409435
0.409445
0.409456
0.409466
0.409476
0.409486
0.409497
0.409507
0.409517
0.409527
0.409537
0.409548
0.409558
0.409568
0.409578
0.409589
0.409599
0.409609
0.409619
0.40963
0.40964
0.40965
0.40966
0.409671
0.409681
0.409691
0.409702
0.409712
0.409722
0.409732
0.409743
0.409753
0.409763
0.409773
0.409784
0.409794
0.409804
0.409815
0.409825
0.409835
0.409845
0.409856
0.409866
0.409876
0.409887
0.409897
0.409907
0.409918
0.409928
0.409938
0.409948
0.409959
0.409969
0.409979
0.40999
0.41
0.41001
0.410021
0.410031
0.410041
0.410052
0.410062
0.410072
0.410083
0.410093
0.410103
0.410114
0.410124
0.410134
0.410145
0.410155
0.410165
0.410176
0.410186
0.410196
0.410207
0.410217
0.410227
0.410238
0.410248
0.410258
0.410269
0.410279
0.410289
0.4103
0.41031
0.410321
0.410331
0.410342
0.410352
0.410363
0.410373
0.410384
0.410394
0.410405
0.410415
0.410426
0.410437
0.410448
0.410458
0.410469
0.41048
0.41049
0.4105
0.410508
0.410508
0.410508
1
1.09593
1.14367
1.13402
1.09769
1.05333
1.00941
0.969207
0.933612
0.902485
0.875323
0.851545
0.830609
0.812048
0.795476
0.780578
0.767098
0.754829
0.743604
0.733285
0.723758
0.714928
0.706717
0.699057
0.691891
0.68517
0.678852
0.672899
0.66728
0.661965
0.656931
0.652153
0.647613
0.643293
0.639176
0.635248
0.631496
0.627908
0.624474
0.621183
0.618027
0.614997
0.612085
0.609286
0.606592
0.603997
0.601497
0.599086
0.59676
0.594514
0.592343
0.590246
0.588217
0.586254
0.584353
0.582513
0.580729
0.579
0.577323
0.575697
0.574118
0.572585
0.571097
0.56965
0.568245
0.566879
0.565551
0.564259
0.563002
0.561778
0.560588
0.559429
0.5583
0.557201
0.55613
0.555087
0.55407
0.553079
0.552113
0.551171
0.550252
0.549357
0.548483
0.547631
0.546799
0.545988
0.545196
0.544423
0.543669
0.542933
0.542214
0.541513
0.540828
0.540159
0.539505
0.538868
0.538245
0.537636
0.537042
0.536461
0.535893
0.535339
0.534798
0.534269
0.533752
0.533246
0.532753
0.53227
0.531798
0.531337
0.530887
0.530446
0.530016
0.529595
0.529183
0.528781
0.528388
0.528003
0.527627
0.527259
0.5269
0.526548