# vtk DataFile Version 2.0
FlowField
ASCII
DATASET STRUCTURED_GRID
DIMENSIONS 400 1 50
POINTS 20000 float
0 0 0
0.08 0 0
0.16 0 0
0.24 0 0
0.32 0 0
0.4 0 0
0.48 0 0
0.56 0 0
0.64 0 0
0.72 0 0
0.8 0 0
0.88 0 0
0.96 0 0
1.04 0 0
1.12 0 0
1.2 0 0
1.28 0 0
1.36 0 0
1.44 0 0
1.52 0 0
1.6 0 0
1.68 0 0
1.76 0 0
1.84 0 0
1.92 0 0
2 0 0
2.08 0 0
2.16 0 0
2.24 0 0
2.32 0 0
2.4 0 0
2.48 0 0
2.56 0 0
2.64 0 0
2.72 0 0
2.8 0 0
2.88 0 0
2.96 0 0
3.04 0 0
3.12 0 0
3.2 0 0
3.28 0 0
3.36 0 0
3.44 0 0
3.52 0 0
3.6 0 0
3.68 0 0
3.76 0 0
3.84 0 0
3.92 0 0
4 0 0
4.08 0 0
4.16 0 0
4.24 0 0
4.32 0 0
4.4 0 0
4.48 0 0
4.56 0 0
4.64 0 0
4.72 0 0
4.8 0 0
4.88 0 0
4.96 0 0
5.04 0 0
5.12 0 0
5.2 0 0
5.28 0 0
5.36 0 0
5.44 0 0
5.52 0 0
5.6 0 0
5.68 0 0
5.76 0 0
5.84 0 0
5.92 0 0
6 0 0
6.08 0 0
6.16 0 0
6.24 0 0
6.32 0 0
6.4 0 0
6.48 0 0
6.56 0 0
6.64 0 0
6.72 0 0
6.8 0 0
6.88 0 0
6.96 0 0
7.04 0 0
7.12 0 0
7.2 0 0
7.28 0 0
7.36 0 0
7.44 0 0
7.52 0 0
7.6 0 0
7.68 0 0
7.76 0 0
7.84 0 0
7.92 0 0
8 0 0
8.08 0 0
8.16 0 0
8.24 0 0
8.32 0 0
8.4 0 0
8.48 0 0
8.56 0 0
8.64 0 0
8.72 0 0
8.8 0 0
8.88 0 0
8.96 0 0
9.04 0 0
9.12 0 0
9.2 0 0
9.28 0 0
9.36 0 0
9.44 0 0
9.52 0 0
9.6 0 0
9.68 0 0
9.76 0 0
9.84 0 0
9.92 0 0
10 0 0
10.08 0 0
10.16 0 0
10.24 0 0
10.32 0 0
10.4 0 0
10.48 0 0
10.56 0 0
10.64 0 0
10.72 0 0
10.8 0 0
10.88 0 0
10.96 0 0
11.04 0 0
11.12 0 0
11.2 0 0
11.28 0 0
11.36 0 0
11.44 0 0
11.52 0 0
11.6 0 0
11.68 0 0
11.76 0 0
11.84 0 0
11.92 0 0
12 0 0
12.08 0 0
12.16 0 0
12.24 0 0
12.32 0 0
12.4 0 0
12.48 0 0
12.56 0 0
12.64 0 0
12.72 0 0
12.8 0 0
12.88 0 0
12.96 0 0
13.04 0 0
13.12 0 0
13.2 0 0
13.28 0 0
13.36 0 0
13.44 0 0
13.52 0 0
13.6 0 0
13.68 0 0
13.76 0 0
13.84 0 0
13.92 0 0
14 0 0
14.08 0 0
14.16 0 0
14.24 0 0
14.32 0 0
14.4 0 0
14.48 0 0
14.56 0 0
14.64 0 0
14.72 0 0
14.8 0 0
14.88 0 0
14.96 0 0
15.04 0 0
15.12 0 0
15.2 0 0
15.28 0 0
15.36 0 0
15.44 0 0
15.52 0 0
15.6 0 0
15.68 0 0
15.76 0 0
15.84 0 0
15.92 0 0
16 0 0
16.08 0 0
16.16 0 0
16.24 0 0
16.32 0 0
16.4 0 0
16.48 0 0
16.56 0 0
16.64 0 0
16.72 0 0
16.8 0 0
16.88 0 0
16.96 0 0
17.04 0 0
17.12 0 0
17.2 0 0
17.28 0 0
17.36 0 0
17.44 0 0
17.52 0 0
17.6 0 0
17.68 0 0
17.76 0 0
17.84 0 0
17.92 0 0
18 0 0
18.08 0 0
18.16 0 0
18.24 0 0
18.32 0 0
18.4 0 0
18.48 0 0
18.56 0 0
18.64 0 0
18.72 0 0
18.8 0 0
18.88 0 0
18.96 0 0
19.04 0 0
19.12 0 0
19.2 0 0
19.28 0 0
19.36 0 0
19.44 0 0
19.52 0 0
19.6 0 0
19.68 0 0
19.76 0 0
19.84 0 0
19.92 0 0
20 0 0
20.08 0 0
20.16 0 0
20.24 0 0
20.32 0 0
20.4 0 0
20.48 0 0
20.56 0 0
20.64 0 0
20.72 0 0
20.8 0 0
20.88 0 0
20.96 0 0
21.04 0 0
21.12 0 0
21.2 0 0
21.28 0 0
21.36 0 0
21.44 0 0
21.52 0 0
21.6 0 0
21.68 0 0
21.76 0 0
21.84 0 0
21.92 0 0
22 0 0
22.08 0 0
22.16 0 0
22.24 0 0
22.32 0 0
22.4 0 0
22.48 0 0
22.56 0 0
22.64 0 0
22.72 0 0
22.8 0 0
22.88 0 0
22.96 0 0
23.04 0 0
23.12 0 0
23.2 0 0
23.28 0 0
23.36 0 0
23.44 0 0
23.52 0 0
23.6 0 0
23.68 0 0
23.76 0 0
23.84 0 0
23.92 0 0
24 0 0
24.08 0 0
24.16 0 0
24.24 0 0
24.32 0 0
24.4 0 0
24.48 0 0
24.56 0 0
24.64 0 0
24.72 0 0
24.8 0 0
24.88 0 0
24.96 0 0
25.04 0 0
25.12 0 0
25.2 0 0
25.28 0 0
25.36 0 0
25.44 0 0
25.52 0 0
25.6 0 0
25.68 0 0
25.76 0 0
25.84 0 0
25.92 0 0
26 0 0
26.08 0 0
26.16 0 0
26.24 0 0
26.32 0 0
26.4 0 0
26.48 0 0
26.56 0 0
26.64 0 0
26.72 0 0
26.8 0 0
26.88 0 0
26.96 0 0
27.04 0 0
27.12 0 0
27.2 0 0
27.28 0 0
27.36 0 0
27.44 0 0
27.52 0 0
27.6 0 0
27.68 0 0
27.76 0 0
27.84 0 0
27.92 0 0
28 0 0
28.08 0 0
28.16 0 0
28.24 0 0
28.32 0 0
28.4 0 0
28.48 0 0
28.56 0 0
28.64 0 0
28.72 0 0
28.8 0 0
28.88 0 0
28.96 0 0
29.04 0 0
29.12 0 0
29.2 0 0
29.28 0 0
29.36 0 0
29.44 0 0
29.52 0 0
29.6 0 0
29.68 0 0
29.76 0 0
29.84 0 0
29.92 0 0
30 0 0
30.08 0 0
30.16 0 0
30.24 0 0
30.32 0 0
30.4 0 0
30.48 0 0
30.56 0 0
30.64 0 0
30.72 0 0
30.8 0 0
30.88 0 0
30.96 0 0
31.04 0 0
31.12 0 0
31.2 0 0
31.28 0 0
31.36 0 0
31.44 0 0
31.52 0 0
31.6 0 0
31.68 0 0
31.76 0 0
31.84 0 0
31.92 0 0
0 0.02 0
0.08 0.02 0
0.16 0.02 0
0.24 0.02 0
0.32 0.02 0
0.4 0.02 0
0.48 0.02 0
0.56 0.02 0
0.64 0.02 0
0.72 0.02 0
0.8 0.02 0
0.88 0.02 0
0.96 0.02 0
1.04 0.02 0
1.12 0.02 0
1.2 0.02 0
1.28 0.02 0
1.36 0.02 0
1.44 0.02 0
1.52 0.02 0
1.6 0.02 0
1.68 0.02 0
1.76 0.02 0
1.84 0.02 0
1.92 0.02 0
2 0.02 0
2.08 0.02 0
2.16 0.02 0
2.24 0.02 0
2.32 0.02 0
2.4 0.02 0
2.48 0.02 0
2.56 0.02 0
2.64 0.02 0
2.72 0.02 0
2.8 0.02 0
2.88 0.02 0
2.96 0.02 0
3.04 0.02 0
3.12 0.02 0
3.2 0.02 0
3.28 0.02 0
3.36 0.02 0
3.44 0.02 0
3.52 0.02 0
3.6 0.02 0
3.68 0.02 0
3.76 0.02 0
3.84 0.02 0
3.92 0.02 0
4 0.02 0
4.08 0.02 0
4.16 0.02 0
4.24 0.02 0
4.32 0.02 0
4.4 0.02 0
4.48 0.02 0
4.56 0.02 0
4.64 0.02 0
4.72 0.02 0
4.8 0.02 0
4.88 0.02 0
4.96 0.02 0
5.04 0.02 0
5.12 0.02 0
5.2 0.02 0
5.28 0.02 0
5.36 0.02 0
5.44 0.02 0
5.52 0.02 0
5.6 0.02 0
5.68 0.02 0
5.76 0.02 0
5.84 0.02 0
5.92 0.02 0
6 0.02 0
6.08 0.02 0
6.16 0.02 0
6.24 0.02 0
6.32 0.02 0
6.4 0.02 0
6.48 0.02 0
6.56 0.02 0
6.64 0.02 0
6.72 0.02 0
6.8 0.02 0
6.88 0.02 0
6.96 0.02 0
7.04 0.02 0
7.12 0.02 0
7.2 0.02 0
7.28 0.02 0
7.36 0.02 0
7.44 0.02 0
7.52 0.02 0
7.6 0.02 0
7.68 0.02 0
7.76 0.02 0
7.84 0.02 0
7.92 0.02 0
8 0.02 0
8.08 0.02 0
8.16 0.02 0
8.24 0.02 0
8.32 0.02 0
8.4 0.02 0
8.48 0.02 0
8.56 0.02 0
8.64 0.02 0
8.72 0.02 0
8.8 0.02 0
8.88 0.02 0
8.96 0.02 0
9.04 0.02 0
9.12 0.02 0
9.2 0.02 0
9.28 0.02 0
9.36 0.02 0
9.44 0.02 0
9.52 0.02 0
9.6 0.02 0
9.68 0.02 0
9.76 0.02 0
9.84 0.02 0
9.92 0.02 0
10 0.02 0
10.08 0.02 0
10.16 0.02 0
10.24 0.02 0
10.32 0.02 0
10.4 0.02 0
10.48 0.02 0
10.56 0.02 0
10.64 0.02 0
10.72 0.02 0
10.8 0.02 0
10.88 0.02 0
10.96 0.02 0
11.04 0.02 0
11.12 0.02 0
11.2 0.02 0
11.28 0.02 0
11.36 0.02 0
11.44 0.02 0
11.52 0.02 0
11.6 0.02 0
11.68 0.02 0
11.76 0.02 0
11.84 0.02 0
11.92 0.02 0
12 0.02 0
12.08 0.02 0
12.16 0.02 0
12.24 0.02 0
12.32 0.02 0
12.4 0.02 0
12.48 0.02 0
12.56 0.02 0
12.64 0.02 0
12.72 0.02 0
12.8 0.02 0
12.88 0.02 0
12.96 0.02 0
13.04 0.02 0
13.12 0.02 0
13.2 0.02 0
13.28 0.02 0
13.36 0.02 0
13.44 0.02 0
13.52 0.02 0
13.6 0.02 0
13.68 0.02 0
13.76 0.02 0
13.84 0.02 0
13.92 0.02 0
14 0.02 0
14.08 0.02 0
14.16 0.02 0
14.24 0.02 0
14.32 0.02 0
14.4 0.02 0
14.48 0.02 0
14.56 0.02 0
14.64 0.02 0
14.72 0.02 0
14.8 0.02 0
14.88 0.02 0
14.96 0.02 0
15.04 0.02 0
15.12 0.02 0
15.2 0.02 0
15.28 0.02 0
15.36 0.02 0
15.44 0.02 0
15.52 0.02 0
15.6 0.02 0
15.68 0.02 0
15.76 0.02 0
15.84 0.02 0
15.92 0.02 0
16 0.02 0
16.08 0.02 0
16.16 0.02 0
16.24 0.02 0
16.32 0.02 0
16.4 0.02 0
16.48 0.02 0
16.56 0.02 0
16.64 0.02 0
16.72 0.02 0
16.8 0.02 0
16.88 0.02 0
16.96 0.02 0
17.04 0.02 0
17.12 0.02 0
17.2 0.02 0
17.28 0.02 0
17.36 0.02 0
17.44 0.02 0
17.52 0.02 0
17.6 0.02 0
17.68 0.02 0
17.76 0.02 0
17.84 0.02 0
17.92 0.02 0
18 0.02 0
18.08 0.02 0
18.16 0.02 0
18.24 0.02 0
18.32 0.02 0
18.4 0.02 0
18.48 0.02 0
18.56 0.02 0
18.64 0.02 0
18.72 0.02 0
18.8 0.02 0
18.88 0.02 0
18.96 0.02 0
19.04 0.02 0
19.12 0.02 0
19.2 0.02 0
19.28 0.02 0
19.36 0.02 0
19.44 0.02 0
19.52 0.02 0
19.6 0.02 0
19.68 0.02 0
19.76 0.02 0
19.84 0.02 0
19.92 0.02 0
20 0.02 0
20.08 0.02 0
20.16 0.02 0
20.24 0.02 0
20.32 0.02 0
20.4 0.02 0
20.48 0.02 0
20.56 0.02 0
20.64 0.02 0
20.72 0.02 0
20.8 0.02 0
20.88 0.02 0
20.96 0.02 0
21.04 0.02 0
21.12 0.02 0
21.2 0.02 0
21.28 0.02 0
21.36 0.02 0
21.44 0.02 0
21.52 0.02 0
21.6 0.02 0
21.68 0.02 0
21.76 0.02 0
21.84 0.02 0
21.92 0.02 0
22 0.02 0
22.08 0.02 0
22.16 0.02 0
22.24 0.02 0
22.32 0.02 0
22.4 0.02 0
22.48 0.02 0
22.56 0.02 0
22.64 0.02 0
22.72 0.02 0
22.8 0.02 0
22.88 0.02 0
22.96 0.02 0
23.04 0.02 0
23.12 0.02 0
23.2 0.02 0
23.28 0.02 0
23.36 0.02 0
23.44 0.02 0
23.52 0.02 0
23.6 0.02 0
23.68 0.02 0
23.76 0.02 0
23.84 0.02 0
23.92 0.02 0
24 0.02 0
24.08 0.02 0
24.16 0.02 0
24.24 0.02 0
24.32 0.02 0
24.4 0.02 0
24.48 0.02 0
24.56 0.02 0
24.64 0.02 0
24.72 0.02 0
24.8 0.02 0
24.88 0.02 0
24.96 0.02 0
25.04 0.02 0
25.12 0.02 0
25.2 0.02 0
25.28 0.02 0
25.36 0.02 0
25.44 0.02 0
25.52 0.02 0
25.6 0.02 0
25.68 0.02 0
25.76 0.02 0
25.84 0.02 0
25.92 0.02 0
26 0.02 0
26.08 0.02 0
26.16 0.02 0
26.24 0.02 0
26.32 0.02 0
26.4 0.02 0
26.48 0.02 0
26.56 0.02 0
26.64 0.02 0
26.72 0.02 0
26.8 0.02 0
26.88 0.02 0
26.96 0.02 0
27.04 0.02 0
27.12 0.02 0
27.2 0.02 0
27.28 0.02 0
27.36 0.02 0
27.44 0.02 0
27.52 0.02 0
27.6 0.02 0
27.68 0.02 0
27.76 0.02 0
27.84 0.02 0
27.92 0.02 0
28 0.02 0
28.08 0.02 0
28.16 0.02 0
28.24 0.02 0
28.32 0.02 0
28.4 0.02 0
28.48 0.02 0
28.56 0.02 0
28.64 0.02 0
28.72 0.02 0
28.8 0.02 0
28.88 0.02 0
28.96 0.02 0
29.04 0.02 0
29.12 0.02 0
29.2 0.02 0
29.28 0.02 0
29.36 0.02 0
29.44 0.02 0
29.52 0.02 0
29.6 0.02 0
29.68 0.02 0
29.76 0.02 0
29.84 0.02 0
29.92 0.02 0
30 0.02 0
30.08 0.02 0
30.16 0.02 0
30.24 0.02 0
30.32 0.02 0
30.4 0.02 0
30.48 0.02 0
30.56 0.02 0
30.64 0.02 0
30.72 0.02 0
30.8 0.02 0
30.88 0.02 0
30.96 0.02 0
31.04 0.02 0
31.12 0.02 0
31.2 0.02 0
31.28 0.02 0
31.36 0.02 0
31.44 0.02 0
31.52 0.02 0
31.6 0.02 0
31.68 0.02 0
31.76 0.02 0
31.84 0.02 0
31.92 0.02 0
0 0.04 0
0.08 0.04 0
0.16 0.04 0
0.24 0.04 0
0.32 0.04 0
0.4 0.04 0
0.48 0.04 0
0.56 0.04 0
0.64 0.04 0
0.72 0.04 0
0.8 0.04 0
0.88 0.04 0
0.96 0.04 0
1.04 0.04 0
1.12 0.04 0
1.2 0.04 0
1.28 0.04 0
1.36 0.04 0
1.44 0.04 0
1.52 0.04 0
1.6 0.04 0
1.68 0.04 0
1.76 0.04 0
1.84 0.04 0
1.92 0.04 0
2 0.04 0
2.08 0.04 0
2.16 0.04 0
2.24 0.04 0
2.32 0.04 0
2.4 0.04 0
2.48 0.04 0
2.56 0.04 0
2.64 0.04 0
2.72 0.04 0
2.8 0.04 0
2.88 0.04 0
2.96 0.04 0
3.04 0.04 0
3.12 0.04 0
3.2 0.04 0
3.28 0.04 0
3.36 0.04 0
3.44 0.04 0
3.52 0.04 0
3.6 0.04 0
3.68 0.04 0
3.76 0.04 0
3.84 0.04 0
3.92 0.04 0
4 0.04 0
4.08 0.04 0
4.16 0.04 0
4.24 0.04 0
4.32 0.04 0
4.4 0.04 0
4.48 0.04 0
4.56 0.04 0
4.64 0.04 0
4.72 0.04 0
4.8 0.04 0
4.88 0.04 0
4.96 0.04 0
5.04 0.04 0
5.12 0.04 0
5.2 0.04 0
5.28 0.04 0
5.36 0.04 0
5.44 0.04 0
5.52 0.04 0
5.6 0.04 0
5.68 0.04 0
5.76 0.04 0
5.84 0.04 0
5.92 0.04 0
6 0.04 0
6.08 0.04 0
6.16 0.04 0
6.24 0.04 0
6.32 0.04 0
6.4 0.04 0
6.48 0.04 0
6.56 0.04 0
6.64 0.04 0
6.72 0.04 0
6.8 0.04 0
6.88 0.04 0
6.96 0.04 0
7.04 0.04 0
7.12 0.04 0
7.2 0.04 0
7.28 0.04 0
7.36 0.04 0
7.44 0.04 0
7.52 0.04 0
7.6 0.04 0
7.68 0.04 0
7.76 0.04 0
7.84 0.04 0
[...]
POINT_DATA 20000

SCALARS u float 1
LOOKUP_TABLE default
0
-0.507047
-0.291853
-0.214074
-0.178921
-0.158543
-0.144974
-0.135208
-0.127801
-0.121961
-0.117209
-0.113246
-0.10987
-0.106945
-0.104376
-0.102091
-0.100041
-0.0981852
-0.0964949
-0.094946
-0.0935197
-0.0922007
-0.0909763
-0.0898359
-0.0887706
-0.0877727
-0.0868356
-0.0859536
-0.0851215
-0.0843352
-0.0835906
-0.0828845
-0.0822138
-0.0815759
-0.0809684
-0.080389
-0.0798357
-0.0793066
-0.0788001
-0.0783148
-0.0778493
-0.0774024
-0.076973
-0.0765602
-0.076163
-0.0757803
-0.0754113
-0.0750553
-0.0747115
-0.0743793
-0.0740584
-0.0737481
-0.0734481
-0.0731579
-0.072877
-0.0726048
-0.0723407
-0.0720844
-0.0718356
-0.0715939
-0.0713594
-0.0711318
-0.0709107
-0.0706959
-0.0704869
-0.0702833
-0.0700848
-0.0698912
-0.0697025
-0.0695186
-0.0693396
-0.0691653
-0.0689958
-0.0688307
-0.0686697
-0.0685124
-0.0683585
-0.0682078
-0.0680605
-0.0679168
-0.0677768
-0.0676406
-0.0675077
-0.0673779
-0.0672506
-0.0671255
-0.0670026
-0.0668821
-0.0667642
-0.0666494
-0.0665377
-0.0664293
-0.0663239
-0.0662212
-0.0661206
-0.0660219
-0.0659248
-0.06583
-0.0657379
-0.0656495
-0.065565
-0.0654842
-0.0654063
-0.0653304
-0.0652559
-0.0651828
-0.0651119
-0.0650443
-0.0649808
-0.0649217
-0.0648664
-0.0648139
-0.0647631
-0.0647135
-0.0646654
-0.0646194
-0.0645765
-0.0645371
-0.0645012
-0.0644683
-0.0644375
-0.0644081
-0.0643798
-0.0643527
-0.0643275
-0.0643045
-0.0642842
-0.0642665
-0.064251
-0.0642373
-0.0642249
-0.0642138
-0.0642038
-0.0641951
-0.064188
-0.0641825
-0.0641784
-0.0641755
-0.0641736
-0.0641725
-0.0641719
-0.064172
-0.0641727
-0.0641742
-0.0641767
-0.0641802
-0.0641846
-0.0641898
-0.0641957
-0.064202
-0.0642086
-0.0642154
-0.0642223
-0.0642294
-0.0642367
-0.0642441
-0.0642517
-0.0642595
-0.0642674
-0.0642755
-0.0642837
-0.064292
-0.0643003
-0.0643087
-0.0643171
-0.0643256
-0.0643341
-0.0643427
-0.0643513
-0.0643599
-0.0643687
-0.0643774
-0.0643863
-0.0643952
-0.0644041
-0.0644131
-0.0644222
-0.0644313
-0.0644405
-0.0644497
-0.064459
-0.0644683
-0.0644777
-0.0644871
-0.0644966
-0.0645061
-0.0645157
-0.0645253
-0.064535
-0.0645447
-0.0645545
-0.0645644
-0.0645742
-0.0645842
-0.0645942
-0.0646042
-0.0646143
-0.0646244
-0.0646346
-0.0646449
-0.0646551
-0.0646655
-0.0646759
-0.0646863
-0.0646968
-0.0647073
-0.0647179
-0.0647285
-0.0647392
-0.0647499
-0.0647606
-0.0647714
-0.0647823
-0.0647932
-0.0648041
-0.0648151
-0.0648262
-0.0648373
-0.0648484
-0.0648596
-0.0648708
-0.064882
-0.0648933
-0.0649047
-0.0649161
-0.0649275
-0.064939
-0.0649505
-0.064962
-0.0649736
-0.0649853
-0.064997
-0.0650087
-0.0650205
-0.0650323
-0.0650441
-0.065056
-0.0650679
-0.0650799
-0.0650919
-0.0651039
-0.065116
-0.0651281
-0.0651403
-0.0651525
-0.0651647
-0.065177
-0.0651893
-0.0652016
-0.065214
-0.0652264
-0.0652388
-0.0652513
-0.0652638
-0.0652764
-0.065289
-0.0653016
-0.0653143
-0.0653269
-0.0653397
-0.0653524
-0.0653652
-0.065378
-0.0653909
-0.0654038
-0.0654167
-0.0654296
-0.0654426
-0.0654556
-0.0654687
-0.0654817
-0.0654948
-0.065508
-0.0655211
-0.0655343
-0.0655475
-0.0655608
-0.0655741
-0.0655874
-0.0656007
-0.065614
-0.0656274
-0.0656408
-0.0656543
-0.0656677
-0.0656812
-0.0656948
-0.0657083
-0.0657219
-0.0657355
-0.0657491
-0.0657627
-0.0657764
-0.0657901
-0.0658038
-0.0658175
-0.0658313
-0.0658451
-0.0658589
-0.0658727
-0.0658866
-0.0659004
-0.0659143
-0.0659282
-0.0659422
-0.0659561
-0.0659701
-0.0659841
-0.0659981
-0.0660122
-0.0660262
-0.0660403
-0.0660544
-0.0660685
-0.0660826
-0.0660968
-0.066111
-0.0661251
-0.0661393
-0.0661536
-0.0661678
-0.0661821
-0.0661963
-0.0662106
-0.0662249
-0.0662392
-0.0662536
-0.0662679
-0.0662823
-0.0662967
-0.0663111
-0.0663255
-0.0663399
-0.0663544
-0.0663688
-0.0663833
-0.0663977
-0.0664122
-0.0664267
-0.0664413
-0.0664558
-0.0664703
-0.0664849
-0.0664995
-0.066514
-0.0665286
-0.0665432
-0.0665578
-0.0665724
-0.0665871
-0.0666017
-0.0666164
-0.066631
-0.0666457
-0.0666604
-0.0666751
-0.0666898
-0.0667045
-0.0667192
-0.0667339
-0.0667486
-0.0667634
-0.0667781
-0.0667929
-0.0668076
-0.0668224
-0.0668372
-0.066852
-0.0668668
-0.0668816
-0.0668964
-0.0669112
-0.066926
-0.0669409
-0.0669556
-0.0669706
-0.0669853
-0.0670003
-0.067015
-0.0670301
-0.0670448
-0.06706
-0.0670746
-0.0670899
-0.0671044
-0.0671199
-0.0671343
-0.06715
-0.0671643
-0.0671802
-0.0671943
-0.0672105
-0.0672243
-0.0672408
-0.0672538
-0.0672702
-0.0672818
-0.067288
-0.067288
-0.067288
1
0.507047
0.291853
0.214074
0.178921
0.158543
0.144974
0.135208
0.127801
0.121961
0.117209
0.113246
0.10987
0.106945
0.104376
0.102091
0.100041
0.0981852
0.0964949
0.094946
0.0935197
0.0922007
0.0909763
0.0898359
0.0887706
0.0877727
0.0868356
0.0859536
0.0851215
0.0843352
0.0835906
0.0828845
0.0822138
0.0815759
0.0809684
0.080389
0.0798357
0.0793066
0.0788001
0.0783148
0.0778493
0.0774024
0.076973
0.0765602
0.076163
0.0757803
0.0754113
0.0750553
0.0747115
0.0743793
0.0740584
0.0737481
0.0734481
0.0731579
0.072877
0.0726048
0.0723407
0.0720844
0.0718356
0.0715939
0.0713594
0.0711318
0.0709107
0.0706959
0.0704869
0.0702833
0.0700848
0.0698912
0.0697025
0.0695186
0.0693396
0.0691653
0.0689958
0.0688307
0.0686697
0.0685124
0.0683585
0.0682078
0.0680605
0.0679168
0.0677768
0.0676406
0.0675077
0.0673779
0.0672506
0.0671255
0.0670026
0.0668821
0.0667642
0.0666494
0.0665377
0.0664293
0.0663239
0.0662212
0.0661206
0.0660219
0.0659248
0.06583
0.0657379
0.0656495
0.065565
0.0654842
0.0654063
0.0653304
0.0652559
0.0651828
0.0651119
0.0650443
0.0649808
0.0649217
0.0648664
0.0648139
0.0647631
0.0647135
0.0646654
0.0646194
0.0645765
0.0645371
0.0645012
0.0644683
0.0644375
0.0644081
0.0643798
0.0643527
0.0643275
0.0643045
0.0642842
0.0642665
0.064251
0.0642373
0.0642249
0.0642138
0.0642038
0.0641951
0.064188
0.0641825
0.0641784
0.0641755
0.0641736
0.0641725
0.0641719
0.064172
0.0641727
0.0641742
0.0641767
0.0641802
0.0641846
0.0641898
0.0641957
0.064202
0.0642086
0.0642154
0.0642223
0.0642294
0.0642367
0.0642441
0.0642517
0.0642595
0.0642674
0.0642755
0.0642837
0.064292
0.0643003
0.0643087
0.0643171
0.0643256
0.0643341
0.0643427
0.0643513
0.0643599
0.0643687
0.0643774
0.0643863
0.0643952
0.0644041
0.0644131
0.0644222
0.0644313
0.0644405
0.0644497
0.064459
0.0644683
0.0644777
0.0644871
0.0644966
0.0645061
0.0645157
0.0645253
0.064535
0.0645447
0.0645545
0.0645644
0.0645742
0.0645842
0.0645942
0.0646042
0.0646143
0.0646244
0.0646346
0.0646449
0.0646551
0.0646655
0.0646759
0.0646863
0.0646968
0.0647073
0.0647179
0.0647285
0.0647392
0.0647499
0.0647606
0.0647714
0.0647823
0.0647932
0.0648041
0.0648151
0.0648262
0.0648373
0.0648484
0.0648596
0.0648708
0.064882
0.0648933
0.0649047
0.0649161
0.0649275
0.064939
0.0649505
0.064962
0.0649736
0.0649853
0.064997
0.0650087
0.0650205
0.0650323
0.0650441
0.065056
0.0650679
0.0650799
0.0650919
0.0651039
0.065116
0.0651281
0.0651403
0.0651525
0.0651647
0.065177
0.0651893
0.0652016
0.065214
0.0652264
0.0652388
0.0652513
0.0652638
0.0652764
0.065289
0.0653016
0.0653143
0.0653269
0.0653397
0.0653524
0.0653652
0.065378
0.0653909
0.0654038
0.0654167
0.0654296
0.0654426
0.0654556
0.0654687
0.0654817
0.0654948
0.065508
0.0655211
0.0655343
0.0655475
0.0655608
0.0655741
0.0655874
0.0656007
0.065614
0.0656274
0.0656408
0.0656543
0.0656677
0.0656812
0.0656948
0.0657083
0.0657219
0.0657355
0.0657491
0.0657627
0.0657764
0.0657901
0.0658038
0.0658175
0.0658313
0.0658451
0.0658589
0.0658727
0.0658866
0.0659004
0.0659143
0.0659282
0.0659422
0.0659561
0.0659701
0.0659841
0.0659981
0.0660122
0.0660262
0.0660403
0.0660544
0.0660685
0.0660826
0.0660968
0.066111
0.0661251
0.0661393
0.0661536
0.0661678
0.0661821
0.0661963
0.0662106
0.0662249
0.0662392
0.0662536
0.0662679
0.0662823
0.0662967
0.0663111
0.0663255
0.0663399
0.0663544
0.0663688
0.0663833
0.0663977
0.0664122
0.0664267
0.0664413
0.0664558
0.0664703
0.0664849
0.0664995
0.066514
0.0665286
0.0665432
0.0665578
0.0665724
0.0665871
0.0666017
0.0666164
0.066631
0.0666457
0.0666604
0.0666751
0.0666898
0.0667045
0.0667192
0.0667339
0.0667486
0.0667634
0.0667781
0.0667929
0.0668076
0.0668224
0.0668372
0.066852
0.0668668
0.0668816
0.0668964
0.0669112
0.066926
0.0669409
0.0669556
0.0669706
0.0669853
0.0670003
0.067015
0.0670301
0.0670448
0.06706
0.0670746
0.0670899
0.0671044
0.0671199
0.0671343
0.06715
0.0671643
0.0671802
0.0671943
0.0672105
0.0672243
0.0672408
0.0672538
0.0672702
0.0672818
0.067288
0.067288
0.067288
1
0.924227
0.735331
0.597392
0.511457
0.456104
0.417907
0.389968
0.368604
0.351687
0.337909
0.326421
0.316652
0.308208
0.300807
0.294244
0.288367
0.283061
0.278236
0.273823
0.269766
0.266019
0.262545
0.259313
0.256296
0.253473
0.250823
0.248331
0.245982
0.243763
0.241664
0.239674
0.237785
0.235989
0.234279
0.232649
0.231093
0.229606
0.228183
0.22682
0.225513
0.224258
0.223054
0.221896
0.220782
0.21971
0.218676
0.217679
0.216717
0.215788
0.21489
0.214023
0.213185
0.212374
0.211589
0.210829
0.210092
0.209376
0.208682
0.208009
0.207355
0.206721
0.206104
0.205506
0.204923
0.204356
0.203803
0.203265
0.20274
0.20223
0.201733
0.201249
0.200778
0.200319
0.199872
0.199434
0.199006
0.198589
0.19818
0.197782
0.197395
0.197017
0.196648
0.196287
0.195933
0.195586
0.195246
0.194914
0.19459
0.194274
0.193967
0.193668
0.193378
0.193094
0.192817
0.192546
0.192281
0.192024
0.191776
0.191537
0.191309
0.191089
0.190877
0.190671
0.19047
0.190276
0.190089
0.189913
0.189747
0.189591
0.189444
0.189304
0.189169
0.189039
0.188914
0.188797
0.188688
0.188588
0.188496
0.188411
0.188331
0.188255
0.188184
0.188117
0.188055
0.188
0.187952
0.18791
0.187873
0.18784
0.187811
0.187785
0.187763
0.187745
0.18773
0.187719
0.187712
0.187708
0.187706
0.187706
0.187707
0.187711
0.187717
0.187725
0.187735
0.187747
0.187762
0.187778
0.187795
0.187814
0.187833
0.187852
0.187872
0.187892
0.187913
0.187934
0.187955
0.187977
0.187999
0.188021
0.188043
0.188066
0.188089
0.188112
0.188135
0.188158
0.188181
0.188204
0.188227
0.188251
0.188274
0.188298
0.188321
0.188345
0.188369
0.188393
0.188418
0.188442
0.188466
0.188491
0.188516
0.18854
0.188565
0.18859
0.188615
0.18864
0.188666
0.188691
0.188716
0.188742
0.188768
0.188793
0.188819
0.188845
0.188871
0.188898
0.188924
0.18895
0.188977
0.189003
0.18903
0.189057
0.189084
0.189111
0.189138
0.189165
0.189192
0.18922
0.189247
0.189275
0.189303
0.18933
0.189358
0.189386
0.189414
0.189443
0.189471
0.189499
0.189528
0.189556
0.189585
0.189614
0.189642
0.189671
0.1897
0.189729
0.189759
0.189788
0.189817
0.189847
0.189876
0.189906
0.189936
0.189965
0.189995
0.190025
0.190055
0.190085
0.190116
0.190146
0.190176
0.190207
0.190237
0.190268
0.190299
0.19033
0.19036
0.190391
0.190422
0.190454
0.190485
0.190516
0.190547
0.190579
0.19061
0.190642
0.190673
0.190705
0.190737
0.190769
0.190801
0.190833
0.190865
0.190897
0.190929
0.190962
0.190994
0.191026
0.191059
0.191091
0.191124
0.191157
0.191189
0.191222
0.191255
0.191288
0.191321
0.191354
0.191387
0.191421
0.191454
0.191487
0.19152
0.191554
0.191587
0.191621
0.191655
0.191688
0.191722
0.191756
0.19179
0.191823
0.191857
0.191891
0.191925
0.19196
0.191994
0.192028
0.192062
0.192096
0.192131
0.192165
0.1922
0.192234
0.192269
0.192303
0.192338
0.192373
0.192407
0.192442
0.192477
0.192512
0.192547
0.192582
0.192616
0.192651
0.192687
0.192722
0.192757
0.192792
0.192827
0.192862
0.192898
0.192933
0.192968
0.193004
0.193039
0.193075
0.19311
0.193146
0.193181
0.193217
0.193252
0.193288
0.193324
0.193359
0.193395
0.193431
0.193467
0.193502
0.193538
0.193574
0.19361
0.193646
0.193682
0.193718
0.193754
0.19379
0.193826
0.193862
0.193898
0.193934
0.19397
0.194006
0.194043
0.194079
0.194115
0.194151
0.194187
0.194224
0.19426
0.194296
0.194332
0.194369
0.194405
0.194441
0.194478
0.194514
0.19455
0.194587
0.194623
0.19466
0.194696
0.194732
0.194769
0.194805
0.194842
0.194878
0.194915
0.194952
0.194988
0.195025
0.195061
0.195098
0.195134
0.195172
0.195207
0.195246
0.195281
0.19532
0.195355
0.195394
0.195428
0.195468
0.195501
0.195541
0.19557
0.195595
0.195595
0.195595
1
1.07963
0.99694
0.883469
0.788463
0.716629
0.662717
0.621456
0.589068
0.563011
0.541577
0.523596
0.50825
0.494957
0.483294
0.472947
0.463683
0.45532
0.447718
0.440767
0.434378
0.42848
0.423013
0.417927
0.413182
0.408741
0.404575
0.400656
0.396964
0.393476
0.390177
0.38705
0.384083
0.381262
0.378576
0.376016
0.373573
0.371238
0.369004
0.366864
0.364813
0.362845
0.360955
0.359139
0.357391
0.355709
0.354088
0.352526
0.351018
0.349563
0.348158
0.3468
0.345487
0.344218
0.342989
0.341799
0.340645
0.339526
0.33844
0.337387
0.336365
0.335373
0.33441
0.333474
0.332563
0.331677
0.330814
0.329973
0.329155
0.328359
0.327584
0.32683
0.326095
0.325379
0.32468
0.323998
0.323331
0.32268
0.322044
0.321425
0.32082
0.320231
0.319656
0.319093
0.318542
0.318002
0.317474
0.316958
0.316455
0.315965
0.315489
0.315026
0.314575
0.314135
0.313706
0.313287
0.312879
0.312483
0.312102
0.311735
0.311384
0.311046
0.31072
0.310404
0.310098
0.309803
0.309521
0.309254
0.309003
0.308767
0.308544
0.308332
0.308127
0.307932
0.307746
0.307571
0.307409
0.307261
0.307124
0.306996
0.306877
0.306765
0.30666
0.306563
0.306474
0.306395
0.306326
0.306266
0.306213
0.306166
0.306125
0.30609
0.30606
0.306035
0.306016
0.306003
0.305995
0.305991
0.30599
0.305992
0.305998
0.306006
0.306018
0.306032
0.30605
0.306072
0.306096
0.306122
0.306149
0.306178
0.306207
0.306238
0.306268
0.3063
0.306331
0.306364
0.306396
0.30643
0.306463
0.306497
0.306531
0.306566
0.3066
0.306635
0.306669
0.306704
0.306739
0.306774
0.306809
0.306844
0.30688
0.306915
0.306951
0.306987
0.307023
0.307059
0.307095
0.307131
0.307167
0.307204
0.307241
0.307277
0.307314
0.307351
0.307388
0.307426
0.307463
0.307501
0.307538
0.307576
0.307614
0.307652
0.30769
0.307728
0.307767
0.307805
0.307844
0.307882
0.307921
0.30796
0.307999
0.308038
0.308078
0.308117
0.308157
0.308196
0.308236
0.308276
0.308316
0.308356
0.308396
0.308437
0.308477
0.308518
0.308559
0.308599
0.30864
0.308681
0.308722
0.308764
0.308805
0.308847
0.308888
0.30893
0.308972
0.309014
0.309056
0.309098
0.30914
0.309182
0.309225
0.309267
0.30931
0.309353
0.309395
0.309438
0.309481
0.309525
0.309568
0.309611
0.309655
0.309698
0.309742
0.309786
0.309829
0.309873
0.309917
0.309961
0.310006
0.31005
0.310094
0.310139
0.310183
0.310228
0.310273
0.310318
0.310363
0.310408
0.310453
0.310498
0.310543
0.310589
0.310634
0.31068
0.310725
0.310771
0.310817
0.310863
0.310909
0.310955
0.311001
0.311047
0.311094
0.31114
0.311186
0.311233
0.31128
0.311326
0.311373
0.31142
0.311467
0.311514
0.311561
0.311608
0.311655
0.311702
0.31175
0.311797
0.311844
0.311892
0.311939
0.311987
0.312035
0.312083
0.31213
0.312178
0.312226
0.312274
0.312322
0.312371
0.312419
0.312467
0.312515
0.312564
0.312612
0.312661
0.312709
0.312758
0.312807
0.312855
0.312904
0.312953
0.313002
0.313051
0.3131
0.313149
0.313198
0.313247
0.313296
0.313345
0.313394
0.313444
0.313493
0.313542
0.313592
0.313641
0.313691
0.31374
0.31379
0.313839
0.313889
0.313939
0.313988
0.314038
0.314088
0.314138
0.314188
0.314238
0.314287
0.314337
0.314387
0.314437
0.314487
0.314537
0.314588
0.314638
0.314688
0.314738
0.314788
0.314838
0.314889
0.314939
0.314989
0.315039
0.31509
0.31514
0.31519
0.315241
0.315291
0.315342
0.315392
0.315443
0.315493
0.315544
0.315594
0.315644
0.315695
0.315746
0.315796
0.315847
0.315897
0.315948
0.315998
0.316049
0.316099
0.31615
0.316201
0.316252
0.316302
0.316353
0.316403
0.316455
0.316505
0.316557
0.316606
0.316659
0.316708
0.316761
0.31681
0.316864
0.316912
0.316967
0.317015
0.317071
0.317116
0.317172
0.317213
0.317257
0.317257
0.317257
1
1.11171
1.11425
1.05539
0.984135
0.918743
0.863455
0.817818
0.780194
0.74892
0.722612
0.700196
0.680852
0.663963
0.64906
0.635785
0.623859
0.613068
0.60324
0.59424
0.585958
0.578303
0.5712
0.564589
0.558415
0.552633
0.547206
0.542099
0.537283
0.532734
0.528429
0.524347
0.520472
0.516787
0.513279
0.509933
0.50674
0.503687
0.500766
0.497968
0.495286
0.492711
0.490239
0.487863
0.485577
0.483376
0.481255
0.47921
0.477238
0.475335
0.473497
0.471721
0.470004
0.468344
0.466736
0.46518
0.46367
0.462207
0.460788
0.459411
0.458075
0.456778
0.455519
0.454295
0.453104
0.451946
0.450819
0.449722
0.448654
0.447614
0.446603
0.445618
0.444659
0.443724
0.442811
0.441921
0.441051
0.440201
0.439372
0.438564
0.437775
0.437006
0.436255
0.43552
0.434801
0.434098
0.433411
0.43274
0.432085
0.431448
0.430829
0.430226
0.429639
0.429066
0.428508
0.427965
0.427436
0.426924
0.426431
0.425956
0.425501
0.425063
0.424641
0.424233
0.423839
0.42346
0.423099
0.422757
0.422436
0.422133
0.421846
0.421573
0.421311
0.421061
0.420825
0.420603
0.420397
0.420208
0.420033
0.419871
0.419719
0.419577
0.419445
0.419323
0.419212
0.419114
0.419028
0.418952
0.418886
0.418828
0.418778
0.418734
0.418697
0.418668
0.418645
0.418629
0.41862
0.418615
0.418616
0.41862
0.418628
0.41864
0.418656
0.418676
0.4187
0.418728
0.418759
0.418792
0.418827
0.418864
0.418901
0.418939
0.418978
0.419017
0.419057
0.419098
0.419139
0.419181
0.419223
0.419266
0.419308
0.419351
0.419394
0.419437
0.41948
0.419523
0.419566
0.41961
0.419653
0.419697
0.419741
0.419785
0.419829
0.419873
0.419917
0.419962
0.420007
0.420051
0.420096
0.420141
0.420186
0.420231
0.420277
0.420322
0.420368
0.420413
0.420459
0.420505
0.420551
0.420597
0.420644
0.42069
0.420737
0.420783
0.42083
0.420877
0.420924
0.420971
0.421019
0.421066
0.421113
0.421161
0.421209
0.421257
0.421305
0.421353
0.421401
0.421449
0.421498
0.421546
0.421595
0.421644
0.421693
0.421742
0.421791
0.42184
0.421889
0.421939
0.421988
0.422038
0.422088
0.422138
0.422188
0.422238
0.422288
0.422338
0.422389
0.422439
0.42249
0.422541
0.422591
0.422642
0.422693
0.422745
0.422796
0.422847
0.422899
0.42295
0.423002
0.423054
0.423106
0.423158
0.42321
0.423262
0.423314
0.423366
0.423419
0.423471
0.423524
0.423577
0.423629
0.423682
0.423735
0.423788
0.423842
0.423895
0.423948
0.424002
0.424055
0.424109
0.424163
0.424216
0.42427
0.424324
0.424378
0.424432
0.424487
0.424541
0.424595
0.42465
0.424704
0.424759
0.424814
0.424868
0.424923
0.424978
0.425033
0.425088
0.425143
0.425199
0.425254
0.425309
0.425365
0.42542
0.425476
0.425532
0.425587
0.425643
0.425699
0.425755
0.425811
0.425867
0.425923
0.425979
0.426035
0.426092
0.426148
0.426204
0.426261
0.426318
0.426374
0.426431
0.426487
0.426544
0.426601
0.426658
0.426715
0.426772
0.426829
0.426886
0.426943
0.427
0.427058
0.427115
0.427172
0.42723
0.427287
0.427344
0.427402
0.42746
0.427517
0.427575
0.427632
0.42769
0.427748
0.427806
0.427864
0.427922
0.427979
0.428037
0.428095
0.428153
0.428211
0.42827
0.428328
0.428386
0.428444
0.428502
0.42856
0.428619
0.428677
0.428735
0.428794
0.428852
0.42891
0.428969
0.429027
0.429086
0.429144
0.429203
0.429261
0.42932
0.429378
0.429437
0.429496
0.429554
0.429613
0.429671
0.42973
0.429789
0.429847
0.429906
0.429965
0.430024
0.430082
0.430141
0.4302
0.430258
0.430317
0.430376
0.430435
0.430494
0.430552
0.430611
0.43067
0.430729
0.430787
0.430847
0.430905
0.430965
0.431023
0.431083
0.43114
0.431201
0.431258
0.43132
0.431377
0.431438
0.431495
0.431558
0.431614
0.431678
0.431732
0.431798
0.43185
0.431917
0.431964
0.432025
0.432025
0.432025
1
1.09586
1.14354
1.13384
1.09747
1.05305
1.00908
0.968824
0.933176
0.901998
0.874785
0.850957
0.829973
0.811365
0.794747
0.779805
0.766282
0.753972
0.742706
0.732345
0.722777
0.713907
0.705656
0.697956
0.690752
0.683993
0.677637
0.671648
0.665993
0.660644
0.655577
0.650768
0.646198
0.641849
0.637705
0.633751
0.629973
0.62636
0.622901
0.619586
0.616406
0.613353
0.61042
0.607599
0.604885
0.602271
0.599751
0.597322
0.594978
0.592715
0.59053
0.588419
0.586377
0.584402
0.58249
0.580638
0.578843
0.577102
0.575413
0.573775
0.572185
0.570641
0.569142
0.567685
0.566268
0.564889
0.563548
0.562242
0.560972
0.559735
0.558532
0.55736
0.556219
0.555107
0.554021
0.552962
0.551927
0.550917
0.549931
0.548969
0.548031
0.547115
0.546221
0.545347
0.544492
0.543656
0.542839
0.542042
0.541265
0.540508
0.539772
0.539056
0.538358
0.537678
0.537016
0.536371
0.535744
0.535137
0.534551
0.533988
0.533448
0.532928
0.532427
0.531943
0.531477
0.531029
0.530603
0.530199
0.529818
0.52946
0.52912
0.528797
0.528488
0.528193
0.527914
0.527653
0.52741