# vtk DataFile Version 2.0
FlowField
ASCII
DATASET STRUCTURED_GRID
DIMENSIONS 400 1 50
POINTS 20000 float
0 0 0
0.08 0 0
0.16 0 0
0.24 0 0
0.32 0 0
0.4 0 0
0.48 0 0
0.56 0 0
0.64 0 0
0.72 0 0
0.8 0 0
0.88 0 0
0.96 0 0
1.04 0 0
1.12 0 0
1.2 0 0
1.28 0 0
1.36 0 0
1.44 0 0
1.52 0 0
1.6 0 0
1.68 0 0
1.76 0 0
1.84 0 0
1.92 0 0
2 0 0
2.08 0 0
2.16 0 0
2.24 0 0
2.32 0 0
2.4 0 0
2.48 0 0
2.56 0 0
2.64 0 0
2.72 0 0
2.8 0 0
2.88 0 0
2.96 0 0
3.04 0 0
3.12 0 0
3.2 0 0
3.28 0 0
3.36 0 0
3.44 0 0
3.52 0 0
3.6 0 0
3.68 0 0
3.76 0 0
3.84 0 0
3.92 0 0
4 0 0
4.08 0 0
4.16 0 0
4.24 0 0
4.32 0 0
4.4 0 0
4.48 0 0
4.56 0 0
4.64 0 0
4.72 0 0
4.8 0 0
4.88 0 0
4.96 0 0
5.04 0 0
5.12 0 0
5.2 0 0
5.28 0 0
5.36 0 0
5.44 0 0
5.52 0 0
5.6 0 0
5.68 0 0
5.76 0 0
5.84 0 0
5.92 0 0
6 0 0
6.08 0 0
6.16 0 0
6.24 0 0
6.32 0 0
6.4 0 0
6.48 0 0
6.56 0 0
6.64 0 0
6.72 0 0
6.8 0 0
6.88 0 0
6.96 0 0
7.04 0 0
7.12 0 0
7.2 0 0
7.28 0 0
7.36 0 0
7.44 0 0
7.52 0 0
7.6 0 0
7.68 0 0
7.76 0 0
7.84 0 0
7.92 0 0
8 0 0
8.08 0 0
8.16 0 0
8.24 0 0
8.32 0 0
8.4 0 0
8.48 0 0
8.56 0 0
8.64 0 0
8.72 0 0
8.8 0 0
8.88 0 0
8.96 0 0
9.04 0 0
9.12 0 0
9.2 0 0
9.28 0 0
9.36 0 0
9.44 0 0
9.52 0 0
9.6 0 0
9.68 0 0
9.76 0 0
9.84 0 0
9.92 0 0
10 0 0
10.08 0 0
10.16 0 0
10.24 0 0
10.32 0 0
10.4 0 0
10.48 0 0
10.56 0 0
10.64 0 0
10.72 0 0
10.8 0 0
10.88 0 0
10.96 0 0
11.04 0 0
11.12 0 0
11.2 0 0
11.28 0 0
11.36 0 0
11.44 0 0
11.52 0 0
11.6 0 0
11.68 0 0
11.76 0 0
11.84 0 0
11.92 0 0
12 0 0
12.08 0 0
12.16 0 0
12.24 0 0
12.32 0 0
12.4 0 0
12.48 0 0
12.56 0 0
12.64 0 0
12.72 0 0
12.8 0 0
12.88 0 0
12.96 0 0
13.04 0 0
13.12 0 0
13.2 0 0
13.28 0 0
13.36 0 0
13.44 0 0
13.52 0 0
13.6 0 0
13.68 0 0
13.76 0 0
13.84 0 0
13.92 0 0
14 0 0
14.08 0 0
14.16 0 0
14.24 0 0
14.32 0 0
14.4 0 0
14.48 0 0
14.56 0 0
14.64 0 0
14.72 0 0
14.8 0 0
14.88 0 0
14.96 0 0
15.04 0 0
15.12 0 0
15.2 0 0
15.28 0 0
15.36 0 0
15.44 0 0
15.52 0 0
15.6 0 0
15.68 0 0
15.76 0 0
15.84 0 0
15.92 0 0
16 0 0
16.08 0 0
16.16 0 0
16.24 0 0
16.32 0 0
16.4 0 0
16.48 0 0
16.56 0 0
16.64 0 0
16.72 0 0
16.8 0 0
16.88 0 0
16.96 0 0
17.04 0 0
17.12 0 0
17.2 0 0
17.28 0 0
17.36 0 0
17.44 0 0
17.52 0 0
17.6 0 0
17.68 0 0
17.76 0 0
17.84 0 0
17.92 0 0
18 0 0
18.08 0 0
18.16 0 0
18.24 0 0
18.32 0 0
18.4 0 0
18.48 0 0
18.56 0 0
18.64 0 0
18.72 0 0
18.8 0 0
18.88 0 0
18.96 0 0
19.04 0 0
19.12 0 0
19.2 0 0
19.28 0 0
19.36 0 0
19.44 0 0
19.52 0 0
19.6 0 0
19.68 0 0
19.76 0 0
19.84 0 0
19.92 0 0
20 0 0
20.08 0 0
20.16 0 0
20.24 0 0
20.32 0 0
20.4 0 0
20.48 0 0
20.56 0 0
20.64 0 0
20.72 0 0
20.8 0 0
20.88 0 0
20.96 0 0
21.04 0 0
21.12 0 0
21.2 0 0
21.28 0 0
21.36 0 0
21.44 0 0
21.52 0 0
21.6 0 0
21.68 0 0
21.76 0 0
21.84 0 0
21.92 0 0
22 0 0
22.08 0 0
22.16 0 0
22.24 0 0
22.32 0 0
22.4 0 0
22.48 0 0
22.56 0 0
22.64 0 0
22.72 0 0
22.8 0 0
22.88 0 0
22.96 0 0
23.04 0 0
23.12 0 0
23.2 0 0
23.28 0 0
23.36 0 0
23.44 0 0
23.52 0 0
23.6 0 0
23.68 0 0
23.76 0 0
23.84 0 0
23.92 0 0
24 0 0
24.08 0 0
24.16 0 0
24.24 0 0
24.32 0 0
24.4 0 0
24.48 0 0
24.56 0 0
24.64 0 0
24.72 0 0
24.8 0 0
24.88 0 0
24.96 0 0
25.04 0 0
25.12 0 0
25.2 0 0
25.28 0 0
25.36 0 0
25.44 0 0
25.52 0 0
25.6 0 0
25.68 0 0
25.76 0 0
25.84 0 0
25.92 0 0
26 0 0
26.08 0 0
26.16 0 0
26.24 0 0
26.32 0 0
26.4 0 0
26.48 0 0
26.56 0 0
26.64 0 0
26.72 0 0
26.8 0 0
26.88 0 0
26.96 0 0
27.04 0 0
27.12 0 0
27.2 0 0
27.28 0 0
27.36 0 0
27.44 0 0
27.52 0 0
27.6 0 0
27.68 0 0
27.76 0 0
27.84 0 0
27.92 0 0
28 0 0
28.08 0 0
28.16 0 0
28.24 0 0
28.32 0 0
28.4 0 0
28.48 0 0
28.56 0 0
28.64 0 0
28.72 0 0
28.8 0 0
28.88 0 0
28.96 0 0
29.04 0 0
29.12 0 0
29.2 0 0
29.28 0 0
29.36 0 0
29.44 0 0
29.52 0 0
29.6 0 0
29.68 0 0
29.76 0 0
29.84 0 0
29.92 0 0
30 0 0
30.08 0 0
30.16 0 0
30.24 0 0
30.32 0 0
30.4 0 0
30.48 0 0
30.56 0 0
30.64 0 0
30.72 0 0
30.8 0 0
30.88 0 0
30.96 0 0
31.04 0 0
31.12 0 0
31.2 0 0
31.28 0 0
31.36 0 0
31.44 0 0
31.52 0 0
31.6 0 0
31.68 0 0
31.76 0 0
31.84 0 0
31.92 0 0
0 0.02 0
0.08 0.02 0
0.16 0.02 0
0.24 0.02 0
0.32 0.02 0
0.4 0.02 0
0.48 0.02 0
0.56 0.02 0
0.64 0.02 0
0.72 0.02 0
0.8 0.02 0
0.88 0.02 0
0.96 0.02 0
1.04 0.02 0
1.12 0.02 0
1.2 0.02 0
1.28 0.02 0
1.36 0.02 0
1.44 0.02 0
1.52 0.02 0
1.6 0.02 0
1.68 0.02 0
1.76 0.02 0
1.84 0.02 0
1.92 0.02 0
2 0.02 0
2.08 0.02 0
2.16 0.02 0
2.24 0.02 0
2.32 0.02 0
2.4 0.02 0
2.48 0.02 0
2.56 0.02 0
2.64 0.02 0
2.72 0.02 0
2.8 0.02 0
2.88 0.02 0
2.96 0.02 0
3.04 0.02 0
3.12 0.02 0
3.2 0.02 0
3.28 0.02 0
3.36 0.02 0
3.44 0.02 0
3.52 0.02 0
3.6 0.02 0
3.68 0.02 0
3.76 0.02 0
3.84 0.02 0
3.92 0.02 0
4 0.02 0
4.08 0.02 0
4.16 0.02 0
4.24 0.02 0
4.32 0.02 0
4.4 0.02 0
4.48 0.02 0
4.56 0.02 0
4.64 0.02 0
4.72 0.02 0
4.8 0.02 0
4.88 0.02 0
4.96 0.02 0
5.04 0.02 0
5.12 0.02 0
5.2 0.02 0
5.28 0.02 0
5.36 0.02 0
5.44 0.02 0
5.52 0.02 0
5.6 0.02 0
5.68 0.02 0
5.76 0.02 0
5.84 0.02 0
5.92 0.02 0
6 0.02 0
6.08 0.02 0
6.16 0.02 0
6.24 0.02 0
6.32 0.02 0
6.4 0.02 0
6.48 0.02 0
6.56 0.02 0
6.64 0.02 0
6.72 0.02 0
6.8 0.02 0
6.88 0.02 0
6.96 0.02 0
7.04 0.02 0
7.12 0.02 0
7.2 0.02 0
7.28 0.02 0
7.36 0.02 0
7.44 0.02 0
7.52 0.02 0
7.6 0.02 0
7.68 0.02 0
7.76 0.02 0
7.84 0.02 0
7.92 0.02 0
8 0.02 0
8.08 0.02 0
8.16 0.02 0
8.24 0.02 0
8.32 0.02 0
8.4 0.02 0
8.48 0.02 0
8.56 0.02 0
8.64 0.02 0
8.72 0.02 0
8.8 0.02 0
8.88 0.02 0
8.96 0.02 0
9.04 0.02 0
9.12 0.02 0
9.2 0.02 0
9.28 0.02 0
9.36 0.02 0
9.44 0.02 0
9.52 0.02 0
9.6 0.02 0
9.68 0.02 0
9.76 0.02 0
9.84 0.02 0
9.92 0.02 0
10 0.02 0
10.08 0.02 0
10.16 0.02 0
10.24 0.02 0
10.32 0.02 0
10.4 0.02 0
10.48 0.02 0
10.56 0.02 0
10.64 0.02 0
10.72 0.02 0
10.8 0.02 0
10.88 0.02 0
10.96 0.02 0
11.04 0.02 0
11.12 0.02 0
11.2 0.02 0
11.28 0.02 0
11.36 0.02 0
11.44 0.02 0
11.52 0.02 0
11.6 0.02 0
11.68 0.02 0
11.76 0.02 0
11.84 0.02 0
11.92 0.02 0
12 0.02 0
12.08 0.02 0
12.16 0.02 0
12.24 0.02 0
12.32 0.02 0
12.4 0.02 0
12.48 0.02 0
12.56 0.02 0
12.64 0.02 0
12.72 0.02 0
12.8 0.02 0
12.88 0.02 0
12.96 0.02 0
13.04 0.02 0
13.12 0.02 0
13.2 0.02 0
13.28 0.02 0
13.36 0.02 0
13.44 0.02 0
13.52 0.02 0
13.6 0.02 0
13.68 0.02 0
13.76 0.02 0
13.84 0.02 0
13.92 0.02 0
14 0.02 0
14.08 0.02 0
14.16 0.02 0
14.24 0.02 0
14.32 0.02 0
14.4 0.02 0
14.48 0.02 0
14.56 0.02 0
14.64 0.02 0
14.72 0.02 0
14.8 0.02 0
14.88 0.02 0
14.96 0.02 0
15.04 0.02 0
15.12 0.02 0
15.2 0.02 0
15.28 0.02 0
15.36 0.02 0
15.44 0.02 0
15.52 0.02 0
15.6 0.02 0
15.68 0.02 0
15.76 0.02 0
15.84 0.02 0
15.92 0.02 0
16 0.02 0
16.08 0.02 0
16.16 0.02 0
16.24 0.02 0
16.32 0.02 0
16.4 0.02 0
16.48 0.02 0
16.56 0.02 0
16.64 0.02 0
16.72 0.02 0
16.8 0.02 0
16.88 0.02 0
16.96 0.02 0
17.04 0.02 0
17.12 0.02 0
17.2 0.02 0
17.28 0.02 0
17.36 0.02 0
17.44 0.02 0
17.52 0.02 0
17.6 0.02 0
17.68 0.02 0
17.76 0.02 0
17.84 0.02 0
17.92 0.02 0
18 0.02 0
18.08 0.02 0
18.16 0.02 0
18.24 0.02 0
18.32 0.02 0
18.4 0.02 0
18.48 0.02 0
18.56 0.02 0
18.64 0.02 0
18.72 0.02 0
18.8 0.02 0
18.88 0.02 0
18.96 0.02 0
19.04 0.02 0
19.12 0.02 0
19.2 0.02 0
19.28 0.02 0
19.36 0.02 0
19.44 0.02 0
19.52 0.02 0
19.6 0.02 0
19.68 0.02 0
19.76 0.02 0
19.84 0.02 0
19.92 0.02 0
20 0.02 0
20.08 0.02 0
20.16 0.02 0
20.24 0.02 0
20.32 0.02 0
20.4 0.02 0
20.48 0.02 0
20.56 0.02 0
20.64 0.02 0
20.72 0.02 0
20.8 0.02 0
20.88 0.02 0
20.96 0.02 0
21.04 0.02 0
21.12 0.02 0
21.2 0.02 0
21.28 0.02 0
21.36 0.02 0
21.44 0.02 0
21.52 0.02 0
21.6 0.02 0
21.68 0.02 0
21.76 0.02 0
21.84 0.02 0
21.92 0.02 0
22 0.02 0
22.08 0.02 0
22.16 0.02 0
22.24 0.02 0
22.32 0.02 0
22.4 0.02 0
22.48 0.02 0
22.56 0.02 0
22.64 0.02 0
22.72 0.02 0
22.8 0.02 0
22.88 0.02 0
22.96 0.02 0
23.04 0.02 0
23.12 0.02 0
23.2 0.02 0
23.28 0.02 0
23.36 0.02 0
23.44 0.02 0
23.52 0.02 0
23.6 0.02 0
23.68 0.02 0
23.76 0.02 0
23.84 0.02 0
23.92 0.02 0
24 0.02 0
24.08 0.02 0
24.16 0.02 0
24.24 0.02 0
24.32 0.02 0
24.4 0.02 0
24.48 0.02 0
24.56 0.02 0
24.64 0.02 0
24.72 0.02 0
24.8 0.02 0
24.88 0.02 0
24.96 0.02 0
25.04 0.02 0
25.12 0.02 0
25.2 0.02 0
25.28 0.02 0
25.36 0.02 0
25.44 0.02 0
25.52 0.02 0
25.6 0.02 0
25.68 0.02 0
25.76 0.02 0
25.84 0.02 0
25.92 0.02 0
26 0.02 0
26.08 0.02 0
26.16 0.02 0
26.24 0.02 0
26.32 0.02 0
26.4 0.02 0
26.48 0.02 0
26.56 0.02 0
26.64 0.02 0
26.72 0.02 0
26.8 0.02 0
26.88 0.02 0
26.96 0.02 0
27.04 0.02 0
27.12 0.02 0
27.2 0.02 0
27.28 0.02 0
27.36 0.02 0
27.44 0.02 0
27.52 0.02 0
27.6 0.02 0
27.68 0.02 0
27.76 0.02 0
27.84 0.02 0
27.92 0.02 0
28 0.02 0
28.08 0.02 0
28.16 0.02 0
28.24 0.02 0
28.32 0.02 0
28.4 0.02 0
28.48 0.02 0
28.56 0.02 0
28.64 0.02 0
28.72 0.02 0
28.8 0.02 0
28.88 0.02 0
28.96 0.02 0
29.04 0.02 0
29.12 0.02 0
29.2 0.02 0
29.28 0.02 0
29.36 0.02 0
29.44 0.02 0
29.52 0.02 0
29.6 0.02 0
29.68 0.02 0
29.76 0.02 0
29.84 0.02 0
29.92 0.02 0
30 0.02 0
30.08 0.02 0
30.16 0.02 0
30.24 0.02 0
30.32 0.02 0
30.4 0.02 0
30.48 0.02 0
30.56 0.02 0
30.64 0.02 0
30.72 0.02 0
30.8 0.02 0
30.88 0.02 0
30.96 0.02 0
31.04 0.02 0
31.12 0.02 0
31.2 0.02 0
31.28 0.02 0
31.36 0.02 0
31.44 0.02 0
31.52 0.02 0
31.6 0.02 0
31.68 0.02 0
31.76 0.02 0
31.84 0.02 0
31.92 0.02 0
0 0.04 0
0.08 0.04 0
0.16 0.04 0
0.24 0.04 0
0.32 0.04 0
0.4 0.04 0
0.48 0.04 0
0.56 0.04 0
0.64 0.04 0
0.72 0.04 0
0.8 0.04 0
0.88 0.04 0
0.96 0.04 0
1.04 0.04 0
1.12 0.04 0
1.2 0.04 0
1.28 0.04 0
1.36 0.04 0
1.44 0.04 0
1.52 0.04 0
1.6 0.04 0
1.68 0.04 0
1.76 0.04 0
1.84 0.04 0
1.92 0.04 0
2 0.04 0
2.08 0.04 0
2.16 0.04 0
2.24 0.04 0
2.32 0.04 0
2.4 0.04 0
2.48 0.04 0
2.56 0.04 0
2.64 0.04 0
2.72 0.04 0
2.8 0.04 0
2.88 0.04 0
2.96 0.04 0
3.04 0.04 0
3.12 0.04 0
3.2 0.04 0
3.28 0.04 0
3.36 0.04 0
3.44 0.04 0
3.52 0.04 0
3.6 0.04 0
3.68 0.04 0
3.76 0.04 0
3.84 0.04 0
3.92 0.04 0
4 0.04 0
4.08 0.04 0
4.16 0.04 0
4.24 0.04 0
4.32 0.04 0
4.4 0.04 0
4.48 0.04 0
4.56 0.04 0
4.64 0.04 0
4.72 0.04 0
4.8 0.04 0
4.88 0.04 0
4.96 0.04 0
5.04 0.04 0
5.12 0.04 0
5.2 0.04 0
5.28 0.04 0
5.36 0.04 0
5.44 0.04 0
5.52 0.04 0
5.6 0.04 0
5.68 0.04 0
5.76 0.04 0
5.84 0.04 0
5.92 0.04 0
6 0.04 0
6.08 0.04 0
6.16 0.04 0
6.24 0.04 0
6.32 0.04 0
6.4 0.04 0
6.48 0.04 0
6.56 0.04 0
6.64 0.04 0
6.72 0.04 0
6.8 0.04 0
6.88 0.04 0
6.96 0.04 0
7.04 0.04 0
7.12 0.04 0
7.2 0.04 0
7.28 0.04 0
7.36 0.04 0
7.44 0.04 0
7.52 0.04 0
7.6 0.04 0
7.68 0.04 0
7.76 0.04 0
7.84 0.04 0
[...]
POINT_DATA 20000

SCALARS p float 1
LOOKUP_TABLE default
1
206.644
206.412
206.345
206.319
206.303
206.29
206.279
206.269
206.259
206.25
206.24
206.232
206.223
206.214
206.206
206.198
206.19
206.182
206.174
206.167
206.16
206.152
206.145
206.138
206.131
206.125
206.118
206.112
206.105
206.099
206.092
206.086
206.08
206.074
206.068
206.062
206.056
206.051
206.045
206.039
206.034
206.028
206.023
206.017
206.012
206.006
206.001
205.996
205.991
205.985
205.98
205.975
205.97
205.965
205.96
205.955
205.95
205.945
205.941
205.936
205.931
205.926
205.921
205.917
205.912
205.907
205.903
205.898
205.894
205.889
205.884
205.88
205.875
205.871
205.866
205.862
205.858
205.853
205.849
205.845
205.84
205.836
205.832
205.827
205.823
205.819
205.815
205.81
205.806
205.802
205.798
205.794
205.789
205.785
205.781
205.777
205.773
205.769
205.765
205.761
205.757
205.753
205.749
205.745
205.741
205.737
205.733
205.729
205.725
205.721
205.717
205.713
205.709
205.705
205.701
205.698
205.694
205.69
205.686
205.682
205.678
205.674
205.671
205.667
205.663
205.659
205.655
205.652
205.648
205.644
205.64
205.636
205.633
205.629
205.625
205.621
205.618
205.614
205.61
205.607
205.603
205.599
205.595
205.592
205.588
205.584
205.581
205.577
205.573
205.57
205.566
205.562
205.559
205.555
205.551
205.548
205.544
205.54
205.537
205.533
205.529
205.526
205.522
205.519
205.515
205.511
205.508
205.504
205.501
205.497
205.493
205.49
205.486
205.483
205.479
205.475
205.472
205.468
205.465
205.461
205.457
205.454
205.45
205.447
205.443
205.44
205.436
205.432
205.429
205.425
205.422
205.418
205.415
205.411
205.408
205.404
205.4
205.397
205.393
205.39
205.386
205.383
205.379
205.376
205.372
205.369
205.365
205.362
205.358
205.355
205.351
205.347
205.344
205.34
205.337
205.333
205.33
205.326
205.323
205.319
205.316
205.312
205.309
205.305
205.302
205.298
205.295
205.291
205.288
205.284
205.281
205.277
205.274
205.27
205.267
205.263
205.26
205.256
205.253
205.249
205.246
205.242
205.239
205.235
205.232
205.228
205.225
205.221
205.218
205.214
205.211
205.207
205.204
205.2
205.197
205.193
205.19
205.186
205.183
205.179
205.176
205.172
205.169
205.165
205.162
205.158
205.155
205.151
205.148
205.144
205.141
205.137
205.134
205.13
205.127
205.124
205.12
205.117
205.113
205.11
205.106
205.103
205.099
205.096
205.092
205.089
205.085
205.082
205.078
205.075
205.071
205.068
205.064
205.061
205.057
205.054
205.05
205.047
205.043
205.04
205.037
205.033
205.03
205.026
205.023
205.019
205.016
205.012
205.009
205.005
205.002
204.998
204.995
204.991
204.988
204.984
204.981
204.977
204.974
204.97
204.967
204.963
204.96
204.956
204.953
204.95
204.946
204.943
204.939
204.936
204.932
204.929
204.925
204.922
204.918
204.915
204.911
204.908
204.904
204.901
204.897
204.894
204.89
204.887
204.883
204.88
204.876
204.873
204.869
204.866
204.862
204.859
204.856
204.852
204.849
204.845
204.842
204.838
204.835
204.831
204.828
204.824
204.821
204.817
204.814
204.81
204.807
204.803
204.8
204.796
204.793
204.789
204.786
204.782
204.779
204.775
204.772
204.768
204.765
204.762
204.758
204.755
204.751
204.748
204.744
204.741
204.737
204.734
204.73
204.727
204.723
204.72
204.716
204.713
204.709
204.706
204.702
204.699
0.5
206.644
206.644
206.412
206.345
206.319
206.303
206.29
206.279
206.269
206.259
206.25
206.24
206.232
206.223
206.214
206.206
206.198
206.19
206.182
206.174
206.167
206.16
206.152
206.145
206.138
206.131
206.125
206.118
206.112
206.105
206.099
206.092
206.086
206.08
206.074
206.068
206.062
206.056
206.051
206.045
206.039
206.034
206.028
206.023
206.017
206.012
206.006
206.001
205.996
205.991
205.985
205.98
205.975
205.97
205.965
205.96
205.955
205.95
205.945
205.941
205.936
205.931
205.926
205.921
205.917
205.912
205.907
205.903
205.898
205.894
205.889
205.884
205.88
205.875
205.871
205.866
205.862
205.858
205.853
205.849
205.845
205.84
205.836
205.832
205.827
205.823
205.819
205.815
205.81
205.806
205.802
205.798
205.794
205.789
205.785
205.781
205.777
205.773
205.769
205.765
205.761
205.757
205.753
205.749
205.745
205.741
205.737
205.733
205.729
205.725
205.721
205.717
205.713
205.709
205.705
205.701
205.698
205.694
205.69
205.686
205.682
205.678
205.674
205.671
205.667
205.663
205.659
205.655
205.652
205.648
205.644
205.64
205.636
205.633
205.629
205.625
205.621
205.618
205.614
205.61
205.607
205.603
205.599
205.595
205.592
205.588
205.584
205.581
205.577
205.573
205.57
205.566
205.562
205.559
205.555
205.551
205.548
205.544
205.54
205.537
205.533
205.529
205.526
205.522
205.519
205.515
205.511
205.508
205.504
205.501
205.497
205.493
205.49
205.486
205.483
205.479
205.475
205.472
205.468
205.465
205.461
205.457
205.454
205.45
205.447
205.443
205.44
205.436
205.432
205.429
205.425
205.422
205.418
205.415
205.411
205.408
205.404
205.4
205.397
205.393
205.39
205.386
205.383
205.379
205.376
205.372
205.369
205.365
205.362
205.358
205.355
205.351
205.347
205.344
205.34
205.337
205.333
205.33
205.326
205.323
205.319
205.316
205.312
205.309
205.305
205.302
205.298
205.295
205.291
205.288
205.284
205.281
205.277
205.274
205.27
205.267
205.263
205.26
205.256
205.253
205.249
205.246
205.242
205.239
205.235
205.232
205.228
205.225
205.221
205.218
205.214
205.211
205.207
205.204
205.2
205.197
205.193
205.19
205.186
205.183
205.179
205.176
205.172
205.169
205.165
205.162
205.158
205.155
205.151
205.148
205.144
205.141
205.137
205.134
205.13
205.127
205.124
205.12
205.117
205.113
205.11
205.106
205.103
205.099
205.096
205.092
205.089
205.085
205.082
205.078
205.075
205.071
205.068
205.064
205.061
205.057
205.054
205.05
205.047
205.043
205.04
205.037
205.033
205.03
205.026
205.023
205.019
205.016
205.012
205.009
205.005
205.002
204.998
204.995
204.991
204.988
204.984
204.981
204.977
204.974
204.97
204.967
204.963
204.96
204.956
204.953
204.95
204.946
204.943
204.939
204.936
204.932
204.929
204.925
204.922
204.918
204.915
204.911
204.908
204.904
204.901
204.897
204.894
204.89
204.887
204.883
204.88
204.876
204.873
204.869
204.866
204.862
204.859
204.856
204.852
204.849
204.845
204.842
204.838
204.835
204.831
204.828
204.824
204.821
204.817
204.814
204.81
204.807
204.803
204.8
204.796
204.793
204.789
204.786
204.782
204.779
204.775
204.772
204.768
204.765
204.762
204.758
204.755
204.751
204.748
204.744
204.741
204.737
204.734
204.73
204.727
204.723
204.72
204.716
204.713
204.709
204.706
204.702
204.699
204.699
206.593
206.593
206.417
206.349
206.322
206.305
206.292
206.28
206.27
206.26
206.25
206.241
206.232
206.223
206.214
206.206
206.198
206.19
206.182
206.175
206.167
206.16
206.152
206.145
206.138
206.132
206.125
206.118
206.112
206.105
206.099
206.093
206.086
206.08
206.074
206.068
206.062
206.056
206.051
206.045
206.039
206.034
206.028
206.023
206.017
206.012
206.006
206.001
205.996
205.991
205.986
205.98
205.975
205.97
205.965
205.96
205.955
205.95
205.945
205.941
205.936
205.931
205.926
205.921
205.917
205.912
205.907
205.903
205.898
205.894
205.889
205.884
205.88
205.875
205.871
205.866
205.862
205.858
205.853
205.849
205.845
205.84
205.836
205.832
205.827
205.823
205.819
205.815
205.81
205.806
205.802
205.798
205.794
205.79
205.785
205.781
205.777
205.773
205.769
205.765
205.761
205.757
205.753
205.749
205.745
205.741
205.737
205.733
205.729
205.725
205.721
205.717
205.713
205.709
205.705
205.701
205.698
205.694
205.69
205.686
205.682
205.678
205.674
205.671
205.667
205.663
205.659
205.655
205.652
205.648
205.644
205.64
205.636
205.633
205.629
205.625
205.621
205.618
205.614
205.61
205.607
205.603
205.599
205.595
205.592
205.588
205.584
205.581
205.577
205.573
205.57
205.566
205.562
205.559
205.555
205.551
205.548
205.544
205.54
205.537
205.533
205.529
205.526
205.522
205.519
205.515
205.511
205.508
205.504
205.501
205.497
205.493
205.49
205.486
205.483
205.479
205.475
205.472
205.468
205.465
205.461
205.457
205.454
205.45
205.447
205.443
205.44
205.436
205.432
205.429
205.425
205.422
205.418
205.415
205.411
205.408
205.404
205.4
205.397
205.393
205.39
205.386
205.383
205.379
205.376
205.372
205.369
205.365
205.362
205.358
205.355
205.351
205.347
205.344
205.34
205.337
205.333
205.33
205.326
205.323
205.319
205.316
205.312
205.309
205.305
205.302
205.298
205.295
205.291
205.288
205.284
205.281
205.277
205.274
205.27
205.267
205.263
205.26
205.256
205.253
205.249
205.246
205.242
205.239
205.235
205.232
205.228
205.225
205.221
205.218
205.214
205.211
205.207
205.204
205.2
205.197
205.193
205.19
205.186
205.183
205.179
205.176
205.172
205.169
205.165
205.162
205.158
205.155
205.151
205.148
205.144
205.141
205.137
205.134
205.13
205.127
205.124
205.12
205.117
205.113
205.11
205.106
205.103
205.099
205.096
205.092
205.089
205.085
205.082
205.078
205.075
205.071
205.068
205.064
205.061
205.057
205.054
205.05
205.047
205.043
205.04
205.037
205.033
205.03
205.026
205.023
205.019
205.016
205.012
205.009
205.005
205.002
204.998
204.995
204.991
204.988
204.984
204.981
204.977
204.974
204.97
204.967
204.963
204.96
204.956
204.953
204.95
204.946
204.943
204.939
204.936
204.932
204.929
204.925
204.922
204.918
204.915
204.911
204.908
204.904
204.901
204.897
204.894
204.89
204.887
204.883
204.88
204.876
204.873
204.869
204.866
204.862
204.859
204.856
204.852
204.849
204.845
204.842
204.838
204.835
204.831
204.828
204.824
204.821
204.817
204.814
204.81
204.807
204.803
204.8
204.796
204.793
204.789
204.786
204.782
204.779
204.775
204.772
204.768
204.765
204.762
204.758
204.755
204.751
204.748
204.744
204.741
204.737
204.734
204.73
204.727
204.723
204.72
204.716
204.713
204.709
204.706
204.702
204.699
204.699
206.553
206.553
206.42
206.354
206.324
206.306
206.293
206.281
206.27
206.26
206.25
206.241
206.232
206.223
206.215
206.206
206.198
206.19
206.182
206.175
206.167
206.16
206.153
206.145
206.138
206.132
206.125
206.118
206.112
206.105
206.099
206.093
206.086
206.08
206.074
206.068
206.062
206.057
206.051
206.045
206.039
206.034
206.028
206.023
206.017
206.012
206.007
206.001
205.996
205.991
205.986
205.98
205.975
205.97
205.965
205.96
205.955
205.95
205.945
205.941
205.936
205.931
205.926
205.921
205.917
205.912
205.907
205.903
205.898
205.894
205.889
205.884
205.88
205.875
205.871
205.867
205.862
205.858
205.853
205.849
205.845
205.84
205.836
205.832
205.827
205.823
205.819
205.815
205.81
205.806
205.802
205.798
205.794
205.79
205.785
205.781
205.777
205.773
205.769
205.765
205.761
205.757
205.753
205.749
205.745
205.741
205.737
205.733
205.729
205.725
205.721
205.717
205.713
205.709
205.705
205.701
205.698
205.694
205.69
205.686
205.682
205.678
205.674
205.671
205.667
205.663
205.659
205.655
205.652
205.648
205.644
205.64
205.636
205.633
205.629
205.625
205.621
205.618
205.614
205.61
205.607
205.603
205.599
205.595
205.592
205.588
205.584
205.581
205.577
205.573
205.57
205.566
205.562
205.559
205.555
205.551
205.548
205.544
205.54
205.537
205.533
205.529
205.526
205.522
205.519
205.515
205.511
205.508
205.504
205.501
205.497
205.493
205.49
205.486
205.483
205.479
205.475
205.472
205.468
205.465
205.461
205.457
205.454
205.45
205.447
205.443
205.44
205.436
205.432
205.429
205.425
205.422
205.418
205.415
205.411
205.408
205.404
205.4
205.397
205.393
205.39
205.386
205.383
205.379
205.376
205.372
205.369
205.365
205.362
205.358
205.355
205.351
205.347
205.344
205.34
205.337
205.333
205.33
205.326
205.323
205.319
205.316
205.312
205.309
205.305
205.302
205.298
205.295
205.291
205.288
205.284
205.281
205.277
205.274
205.27
205.267
205.263
205.26
205.256
205.253
205.249
205.246
205.242
205.239
205.235
205.232
205.228
205.225
205.221
205.218
205.214
205.211
205.207
205.204
205.2
205.197
205.193
205.19
205.186
205.183
205.179
205.176
205.172
205.169
205.165
205.162
205.158
205.155
205.151
205.148
205.144
205.141
205.137
205.134
205.13
205.127
205.124
205.12
205.117
205.113
205.11
205.106
205.103
205.099
205.096
205.092
205.089
205.085
205.082
205.078
205.075
205.071
205.068
205.064
205.061
205.057
205.054
205.05
205.047
205.043
205.04
205.037
205.033
205.03
205.026
205.023
205.019
205.016
205.012
205.009
205.005
205.002
204.998
204.995
204.991
204.988
204.984
204.981
204.977
204.974
204.97
204.967
204.963
204.96
204.956
204.953
204.95
204.946
204.943
204.939
204.936
204.932
204.929
204.925
204.922
204.918
204.915
204.911
204.908
204.904
204.901
204.897
204.894
204.89
204.887
204.883
204.88
204.876
204.873
204.869
204.866
204.862
204.859
204.856
204.852
204.849
204.845
204.842
204.838
204.835
204.831
204.828
204.824
204.821
204.817
204.814
204.81
204.807
204.803
204.8
204.796
204.793
204.789
204.786
204.782
204.779
204.775
204.772
204.768
204.765
204.762
204.758
204.755
204.751
204.748
204.744
204.741
204.737
204.734
204.73
204.727
204.723
204.72
204.716
204.713
204.709
204.706
204.702
204.699
204.699
206.522
206.522
206.42
206.359
206.328
206.309
206.294
206.282
206.271
206.261
206.251
206.241
206.232
206.224
206.215
206.206
206.198
206.19
206.182
206.175
206.167
206.16
206.153
206.146
206.139
206.132
206.125
206.118
206.112
206.105
206.099
206.093
206.086
206.08
206.074
206.068
206.062
206.057
206.051
206.045
206.039
206.034
206.028
206.023
206.017
206.012
206.007
206.001
205.996
205.991
205.986
205.98
205.975
205.97
205.965
205.96
205.955
205.95
205.945
205.941
205.936
205.931
205.926
205.921
205.917
205.912
205.907
205.903
205.898
205.894
205.889
205.884
205.88
205.875
205.871
205.867
205.862
205.858
205.853
205.849
205.845
205.84
205.836
205.832
205.827
205.823
205.819
205.815
205.81
205.806
205.802
205.798
205.794
205.79
205.785
205.781
205.777
205.773
205.769
205.765
205.761
205.757
205.753
205.749
205.745
205.741
205.737
205.733
205.729
205.725
205.721
205.717
205.713
205.709
205.705
205.701
205.698
205.694
205.69
205.686
205.682
205.678
205.674
205.671
205.667
205.663
205.659
205.655
205.652
205.648
205.644
205.64
205.636
205.633
205.629
205.625
205.621
205.618
205.614
205.61
205.607
205.603
205.599
205.595
205.592
205.588
205.584
205.581
205.577
205.573
205.57
205.566
205.562
205.559
205.555
205.551
205.548
205.544
205.54
205.537
205.533
205.529
205.526
205.522
205.519
205.515
205.511
205.508
205.504
205.501
205.497
205.493
205.49
205.486
205.483
205.479
205.475
205.472
205.468
205.465
205.461
205.457
205.454
205.45
205.447
205.443
205.44
205.436
205.432
205.429
205.425
205.422
205.418
205.415
205.411
205.408
205.404
205.4
205.397
205.393
205.39
205.386
205.383
205.379
205.376
205.372
205.369
205.365
205.362
205.358
205.355
205.351
205.347
205.344
205.34
205.337
205.333
205.33
205.326
205.323
205.319
205.316
205.312
205.309
205.305
205.302
205.298
205.295
205.291
205.288
205.284
205.281
205.277
205.274
205.27
205.267
205.263
205.26
205.256
205.253
205.249
205.246
205.242
205.239
205.235
205.232
205.228
205.225
205.221
205.218
205.214
205.211
205.207
205.204
205.2
205.197
205.193
205.19
205.186
205.183
205.179
205.176
205.172
205.169
205.165
205.162
205.158
205.155
205.151
205.148
205.144
205.141
205.137
205.134
205.13
205.127
205.124
205.12
205.117
205.113
205.11
205.106
205.103
205.099
205.096
205.092
205.089
205.085
205.082
205.078
205.075
205.071
205.068
205.064
205.061
205.057
205.054
205.05
205.047
205.043
205.04
205.037
205.033
205.03
205.026
205.023
205.019
205.016
205.012
205.009
205.005
205.002
204.998
204.995
204.991
204.988
204.984
204.981
204.977
204.974
204.97
204.967
204.963
204.96
204.956
204.953
204.95
204.946
204.943
204.939
204.936
204.932
204.929
204.925
204.922
204.918
204.915
204.911
204.908
204.904
204.901
204.897
204.894
204.89
204.887
204.883
204.88
204.876
204.873
204.869
204.866
204.862
204.859
204.856
204.852
204.849
204.845
204.842
204.838
204.835
204.831
204.828
204.824
204.821
204.817
204.814
204.81
204.807
204.803
204.8
204.796
204.793
204.789
204.786
204.782
204.779
204.775
204.772
204.768
204.765
204.762
204.758
204.755
204.751
204.748
204.744
204.741
204.737
204.734
204.73
204.727
204.723
204.72
204.716
204.713
204.709
204.706
204.702
204.699
204.699
206.496
206.496
206.418
206.363
206.331
206.311
206.296
206.283
206.272
206.261
206.251
206.242
206.233
206.224
206.215
206.207
206.198
206.19
206.183
206.175
206.167
206.16
206.153
206.146
206.139
206.132
206.125
206.118
206.112
206.105
206.099
206.093
206.086
206.08
206.074
206.068
206.062
206.057
206.051
206.045
206.039
206.034
206.028
206.023
206.017
206.012
206.007
206.001
205.996
205.991
205.986
205.98
205.975
205.97
205.965
205.96
205.955
205.95
205.945
205.941
205.936
205.931
205.926
205.921
205.917
205.912
205.907
205.903
205.898
205.894
205.889
205.884
205.88
205.875
205.871
205.867
205.862
205.858
205.853
205.849
205.845
205.84
205.836
205.832
205.827
205.823
205.819
205.815
205.81
205.806
205.802
205.798
205.794
205.79
205.785
205.781
205.777
205.773
205.769
205.765
205.761
205.757
205.753
205.749
205.745
205.741
205.737
205.733
205.729
205.725
205.721
205.717
205.713
205.709
205.705
205.701
205.698
205.694
205.69
205.686
205.682
205.678
205.674
205.671
205.667
205.663
205.659
205.655
205.652
205.648
205.644
205.64
205.636
205.633
205.629
205.625
205.621
205.618
205.614
205.61
205.607
205.603
205.599
205.595
205.592
205.588
205.584
205.581
205.577
205.573
205.57
205.566
205.562
205.559
205.555
205.551
205.548
205.544
205.54
205.537
205.533
205.529
205.526
205.522
205.519
205.515
205.511
205.508
205.504
205.501
205.497
205.493
205.49
205.486
205.483
205.479
205.475
205.472
205.468
205.465
205.461
205.457
205.454
205.45
205.447
205.443
205.44
205.436
205.432
205.429
205.425
205.422
205.418
205.415
205.411
205.408
205.404
205.4
205.397
205.393
205.39
205.386
205.383
205.379
205.376
205.372
205.369
205.365
205.362
205.358
205.355
205.351
205.347
205.344
205.34
205.337
205.333
205.33
205.326
205.323
205.319
205.316
205.312
205.309
205.305
205.302
205.298
205.295
205.291
205.288
205.284
205.281
205.277
205.274
205.27
205.267
205.263
205.26
205.256
205.253
205.249
205.246
205.242
205.239
205.235
205.232
205.228
205.225
205.221
205.218
205.214
205.211
205.207
205.204
205.2
205.197
205.193
205.19
205.186
205.183
205.179
205.176
205.172
205.169
205.165
205.162
205.158
205.155
205.151
205.148
205.144
205.141
205.137
205.134
205.13
205.127
205.124
205.12
205.117
205.113
205.11
205.106
205.103
205.099
205.096
205.092
205.089
205.085
205.082
205.078
205.075
205.071
205.068
205.064
205.061
205.057
205.054
205.05
205.047
205.043
205.04
205.037
205.033
205.03
205.026
205.023
205.019
205.016
205.012
205.009
205.005
205.002
204.998
204.995
204.991
204.988
204.984
204.981
204.977
204.974
204.97
204.967
204.963
204.96
204.956
204.953
204.95
204.946
204.943
204.939
204.936
204.932
204.929
204.925
204.922
204.918
204.915
204.911
204.908
204.904
204.901
204.897
204.894
204.89
204.887
204.883
204.88
204.876
204.873
204.869
204.866
204.862
204.859
204.856
204.852
204.849
204.845
204.842
204.838
204.835
204.831
204.828
204.824
204.821
204.817
204.814
204.81
204.807
204.803
204.8
204.796
204.793
204.789
204.786
204.782
204.779
204.775
204.772
204.768
204.765
204.762
204.758
204.755
204.751
204.748
204.744
204.741
204.737
204.734
204.73
204.727
204.723
204.72
204.716
204.713
204.709
204.706
204.702
204.699
204.699
206.474
206.474
206.415
206.366
206.335
206.314
206.298
206.285
206.273
206.262
206.252
206.242
206.233
206.224
206.215
206.207
206.199
206.191
206.183
206.175
206.167
206.16
206.153
206.146
206.139
206.132
206.125
206.118
206.112
206.105
206.099
206.093
206.087
206.08
206.074
206.068
206.062
206.057
206.051
206.045
206.039
206.034
206.028
206.023
206.017
206.012
206.007
206.001
205.996
205.991
205.986
205.98
205.975
205.97
205.965
205.96
205.955
205.95
205.945
205.941
205.936
205.931
205.926
205.921
205.917
205.912
205.907
205.903
205.898
205.894
205.889
205.884
205.88
205.875
205.871
205.867
205.862
205.858
205.853
205.849
205.845
205.84
205.836
205.832
205.827
205.823
205.819
205.815
205.81
205.806
205.802
205.798
205.794
205.79
205.785
205.781
205.777
205.773
205.769
205.765
205.761
205.757
205.753
205.749
205.745
205.741
205.737
205.733
205.729
205.725
205.721
205.717
205.713
205.709
205.705
205.701
205.698
205.694
205.69
205.686
205.682
205.678
205.674
205.671
205.667
205.663
205.659
205.655
205.652
205.648