# vtk DataFile Version 2.0
FlowField
ASCII
DATASET STRUCTURED_GRID
DIMENSIONS 400 1 50
POINTS 20000 float
0 0 0
0.08 0 0
0.16 0 0
0.24 0 0
0.32 0 0
0.4 0 0
0.48 0 0
0.56 0 0
0.64 0 0
0.72 0 0
0.8 0 0
0.88 0 0
0.96 0 0
1.04 0 0
1.12 0 0
1.2 0 0
1.28 0 0
1.36 0 0
1.44 0 0
1.52 0 0
1.6 0 0
1.68 0 0
1.76 0 0
1.84 0 0
1.92 0 0
2 0 0
2.08 0 0
2.16 0 0
2.24 0 0
2.32 0 0
2.4 0 0
2.48 0 0
2.56 0 0
2.64 0 0
2.72 0 0
2.8 0 0
2.88 0 0
2.96 0 0
3.04 0 0
3.12 0 0
3.2 0 0
3.28 0 0
3.36 0 0
3.44 0 0
3.52 0 0
3.6 0 0
3.68 0 0
3.76 0 0
3.84 0 0
3.92 0 0
4 0 0
4.08 0 0
4.16 0 0
4.24 0 0
4.32 0 0
4.4 0 0
4.48 0 0
4.56 0 0
4.64 0 0
4.72 0 0
4.8 0 0
4.88 0 0
4.96 0 0
5.04 0 0
5.12 0 0
5.2 0 0
5.28 0 0
5.36 0 0
5.44 0 0
5.52 0 0
5.6 0 0
5.68 0 0
5.76 0 0
5.84 0 0
5.92 0 0
6 0 0
6.08 0 0
6.16 0 0
6.24 0 0
6.32 0 0
6.4 0 0
6.48 0 0
6.56 0 0
6.64 0 0
6.72 0 0
6.8 0 0
6.88 0 0
6.96 0 0
7.04 0 0
7.12 0 0
7.2 0 0
7.28 0 0
7.36 0 0
7.44 0 0
7.52 0 0
7.6 0 0
7.68 0 0
7.76 0 0
7.84 0 0
7.92 0 0
8 0 0
8.08 0 0
8.16 0 0
8.24 0 0
8.32 0 0
8.4 0 0
8.48 0 0
8.56 0 0
8.64 0 0
8.72 0 0
8.8 0 0
8.88 0 0
8.96 0 0
9.04 0 0
9.12 0 0
9.2 0 0
9.28 0 0
9.36 0 0
9.44 0 0
9.52 0 0
9.6 0 0
9.68 0 0
9.76 0 0
9.84 0 0
9.92 0 0
10 0 0
10.08 0 0
10.16 0 0
10.24 0 0
10.32 0 0
10.4 0 0
10.48 0 0
10.56 0 0
10.64 0 0
10.72 0 0
10.8 0 0
10.88 0 0
10.96 0 0
11.04 0 0
11.12 0 0
11.2 0 0
11.28 0 0
11.36 0 0
11.44 0 0
11.52 0 0
11.6 0 0
11.68 0 0
11.76 0 0
11.84 0 0
11.92 0 0
12 0 0
12.08 0 0
12.16 0 0
12.24 0 0
12.32 0 0
12.4 0 0
12.48 0 0
12.56 0 0
12.64 0 0
12.72 0 0
12.8 0 0
12.88 0 0
12.96 0 0
13.04 0 0
13.12 0 0
13.2 0 0
13.28 0 0
13.36 0 0
13.44 0 0
13.52 0 0
13.6 0 0
13.68 0 0
13.76 0 0
13.84 0 0
13.92 0 0
14 0 0
14.08 0 0
14.16 0 0
14.24 0 0
14.32 0 0
14.4 0 0
14.48 0 0
14.56 0 0
14.64 0 0
14.72 0 0
14.8 0 0
14.88 0 0
14.96 0 0
15.04 0 0
15.12 0 0
15.2 0 0
15.28 0 0
15.36 0 0
15.44 0 0
15.52 0 0
15.6 0 0
15.68 0 0
15.76 0 0
15.84 0 0
15.92 0 0
16 0 0
16.08 0 0
16.16 0 0
16.24 0 0
16.32 0 0
16.4 0 0
16.48 0 0
16.56 0 0
16.64 0 0
16.72 0 0
16.8 0 0
16.88 0 0
16.96 0 0
17.04 0 0
17.12 0 0
17.2 0 0
17.28 0 0
17.36 0 0
17.44 0 0
17.52 0 0
17.6 0 0
17.68 0 0
17.76 0 0
17.84 0 0
17.92 0 0
18 0 0
18.08 0 0
18.16 0 0
18.24 0 0
18.32 0 0
18.4 0 0
18.48 0 0
18.56 0 0
18.64 0 0
18.72 0 0
18.8 0 0
18.88 0 0
18.96 0 0
19.04 0 0
19.12 0 0
19.2 0 0
19.28 0 0
19.36 0 0
19.44 0 0
19.52 0 0
19.6 0 0
19.68 0 0
19.76 0 0
19.84 0 0
19.92 0 0
20 0 0
20.08 0 0
20.16 0 0
20.24 0 0
20.32 0 0
20.4 0 0
20.48 0 0
20.56 0 0
20.64 0 0
20.72 0 0
20.8 0 0
20.88 0 0
20.96 0 0
21.04 0 0
21.12 0 0
21.2 0 0
21.28 0 0
21.36 0 0
21.44 0 0
21.52 0 0
21.6 0 0
21.68 0 0
21.76 0 0
21.84 0 0
21.92 0 0
22 0 0
22.08 0 0
22.16 0 0
22.24 0 0
22.32 0 0
22.4 0 0
22.48 0 0
22.56 0 0
22.64 0 0
22.72 0 0
22.8 0 0
22.88 0 0
22.96 0 0
23.04 0 0
23.12 0 0
23.2 0 0
23.28 0 0
23.36 0 0
23.44 0 0
23.52 0 0
23.6 0 0
23.68 0 0
23.76 0 0
23.84 0 0
23.92 0 0
24 0 0
24.08 0 0
24.16 0 0
24.24 0 0
24.32 0 0
24.4 0 0
24.48 0 0
24.56 0 0
24.64 0 0
24.72 0 0
24.8 0 0
24.88 0 0
24.96 0 0
25.04 0 0
25.12 0 0
25.2 0 0
25.28 0 0
25.36 0 0
25.44 0 0
25.52 0 0
25.6 0 0
25.68 0 0
25.76 0 0
25.84 0 0
25.92 0 0
26 0 0
26.08 0 0
26.16 0 0
26.24 0 0
26.32 0 0
26.4 0 0
26.48 0 0
26.56 0 0
26.64 0 0
26.72 0 0
26.8 0 0
26.88 0 0
26.96 0 0
27.04 0 0
27.12 0 0
27.2 0 0
27.28 0 0
27.36 0 0
27.44 0 0
27.52 0 0
27.6 0 0
27.68 0 0
27.76 0 0
27.84 0 0
27.92 0 0
28 0 0
28.08 0 0
28.16 0 0
28.24 0 0
28.32 0 0
28.4 0 0
28.48 0 0
28.56 0 0
28.64 0 0
28.72 0 0
28.8 0 0
28.88 0 0
28.96 0 0
29.04 0 0
29.12 0 0
29.2 0 0
29.28 0 0
29.36 0 0
29.44 0 0
29.52 0 0
29.6 0 0
29.68 0 0
29.76 0 0
29.84 0 0
29.92 0 0
30 0 0
30.08 0 0
30.16 0 0
30.24 0 0
30.32 0 0
30.4 0 0
30.48 0 0
30.56 0 0
30.64 0 0
30.72 0 0
30.8 0 0
30.88 0 0
30.96 0 0
31.04 0 0
31.12 0 0
31.2 0 0
31.28 0 0
31.36 0 0
31.44 0 0
31.52 0 0
31.6 0 0
31.68 0 0
31.76 0 0
31.84 0 0
31.92 0 0
0 0.02 0
0.08 0.02 0
0.16 0.02 0
0.24 0.02 0
0.32 0.02 0
0.4 0.02 0
0.48 0.02 0
0.56 0.02 0
0.64 0.02 0
0.72 0.02 0
0.8 0.02 0
0.88 0.02 0
0.96 0.02 0
1.04 0.02 0
1.12 0.02 0
1.2 0.02 0
1.28 0.02 0
1.36 0.02 0
1.44 0.02 0
1.52 0.02 0
1.6 0.02 0
1.68 0.02 0
1.76 0.02 0
1.84 0.02 0
1.92 0.02 0
2 0.02 0
2.08 0.02 0
2.16 0.02 0
2.24 0.02 0
2.32 0.02 0
2.4 0.02 0
2.48 0.02 0
2.56 0.02 0
2.64 0.02 0
2.72 0.02 0
2.8 0.02 0
2.88 0.02 0
2.96 0.02 0
3.04 0.02 0
3.12 0.02 0
3.2 0.02 0
3.28 0.02 0
3.36 0.02 0
3.44 0.02 0
3.52 0.02 0
3.6 0.02 0
3.68 0.02 0
3.76 0.02 0
3.84 0.02 0
3.92 0.02 0
4 0.02 0
4.08 0.02 0
4.16 0.02 0
4.24 0.02 0
4.32 0.02 0
4.4 0.02 0
4.48 0.02 0
4.56 0.02 0
4.64 0.02 0
4.72 0.02 0
4.8 0.02 0
4.88 0.02 0
4.96 0.02 0
5.04 0.02 0
5.12 0.02 0
5.2 0.02 0
5.28 0.02 0
5.36 0.02 0
5.44 0.02 0
5.52 0.02 0
5.6 0.02 0
5.68 0.02 0
5.76 0.02 0
5.84 0.02 0
5.92 0.02 0
6 0.02 0
6.08 0.02 0
6.16 0.02 0
6.24 0.02 0
6.32 0.02 0
6.4 0.02 0
6.48 0.02 0
6.56 0.02 0
6.64 0.02 0
6.72 0.02 0
6.8 0.02 0
6.88 0.02 0
6.96 0.02 0
7.04 0.02 0
7.12 0.02 0
7.2 0.02 0
7.28 0.02 0
7.36 0.02 0
7.44 0.02 0
7.52 0.02 0
7.6 0.02 0
7.68 0.02 0
7.76 0.02 0
7.84 0.02 0
7.92 0.02 0
8 0.02 0
8.08 0.02 0
8.16 0.02 0
8.24 0.02 0
8.32 0.02 0
8.4 0.02 0
8.48 0.02 0
8.56 0.02 0
8.64 0.02 0
8.72 0.02 0
8.8 0.02 0
8.88 0.02 0
8.96 0.02 0
9.04 0.02 0
9.12 0.02 0
9.2 0.02 0
9.28 0.02 0
9.36 0.02 0
9.44 0.02 0
9.52 0.02 0
9.6 0.02 0
9.68 0.02 0
9.76 0.02 0
9.84 0.02 0
9.92 0.02 0
10 0.02 0
10.08 0.02 0
10.16 0.02 0
10.24 0.02 0
10.32 0.02 0
10.4 0.02 0
10.48 0.02 0
10.56 0.02 0
10.64 0.02 0
10.72 0.02 0
10.8 0.02 0
10.88 0.02 0
10.96 0.02 0
11.04 0.02 0
11.12 0.02 0
11.2 0.02 0
11.28 0.02 0
11.36 0.02 0
11.44 0.02 0
11.52 0.02 0
11.6 0.02 0
11.68 0.02 0
11.76 0.02 0
11.84 0.02 0
11.92 0.02 0
12 0.02 0
12.08 0.02 0
12.16 0.02 0
12.24 0.02 0
12.32 0.02 0
12.4 0.02 0
12.48 0.02 0
12.56 0.02 0
12.64 0.02 0
12.72 0.02 0
12.8 0.02 0
12.88 0.02 0
12.96 0.02 0
13.04 0.02 0
13.12 0.02 0
13.2 0.02 0
13.28 0.02 0
13.36 0.02 0
13.44 0.02 0
13.52 0.02 0
13.6 0.02 0
13.68 0.02 0
13.76 0.02 0
13.84 0.02 0
13.92 0.02 0
14 0.02 0
14.08 0.02 0
14.16 0.02 0
14.24 0.02 0
14.32 0.02 0
14.4 0.02 0
14.48 0.02 0
14.56 0.02 0
14.64 0.02 0
14.72 0.02 0
14.8 0.02 0
14.88 0.02 0
14.96 0.02 0
15.04 0.02 0
15.12 0.02 0
15.2 0.02 0
15.28 0.02 0
15.36 0.02 0
15.44 0.02 0
15.52 0.02 0
15.6 0.02 0
15.68 0.02 0
15.76 0.02 0
15.84 0.02 0
15.92 0.02 0
16 0.02 0
16.08 0.02 0
16.16 0.02 0
16.24 0.02 0
16.32 0.02 0
16.4 0.02 0
16.48 0.02 0
16.56 0.02 0
16.64 0.02 0
16.72 0.02 0
16.8 0.02 0
16.88 0.02 0
16.96 0.02 0
17.04 0.02 0
17.12 0.02 0
17.2 0.02 0
17.28 0.02 0
17.36 0.02 0
17.44 0.02 0
17.52 0.02 0
17.6 0.02 0
17.68 0.02 0
17.76 0.02 0
17.84 0.02 0
17.92 0.02 0
18 0.02 0
18.08 0.02 0
18.16 0.02 0
18.24 0.02 0
18.32 0.02 0
18.4 0.02 0
18.48 0.02 0
18.56 0.02 0
18.64 0.02 0
18.72 0.02 0
18.8 0.02 0
18.88 0.02 0
18.96 0.02 0
19.04 0.02 0
19.12 0.02 0
19.2 0.02 0
19.28 0.02 0
19.36 0.02 0
19.44 0.02 0
19.52 0.02 0
19.6 0.02 0
19.68 0.02 0
19.76 0.02 0
19.84 0.02 0
19.92 0.02 0
20 0.02 0
20.08 0.02 0
20.16 0.02 0
20.24 0.02 0
20.32 0.02 0
20.4 0.02 0
20.48 0.02 0
20.56 0.02 0
20.64 0.02 0
20.72 0.02 0
20.8 0.02 0
20.88 0.02 0
20.96 0.02 0
21.04 0.02 0
21.12 0.02 0
21.2 0.02 0
21.28 0.02 0
21.36 0.02 0
21.44 0.02 0
21.52 0.02 0
21.6 0.02 0
21.68 0.02 0
21.76 0.02 0
21.84 0.02 0
21.92 0.02 0
22 0.02 0
22.08 0.02 0
22.16 0.02 0
22.24 0.02 0
22.32 0.02 0
22.4 0.02 0
22.48 0.02 0
22.56 0.02 0
22.64 0.02 0
22.72 0.02 0
22.8 0.02 0
22.88 0.02 0
22.96 0.02 0
23.04 0.02 0
23.12 0.02 0
23.2 0.02 0
23.28 0.02 0
23.36 0.02 0
23.44 0.02 0
23.52 0.02 0
23.6 0.02 0
23.68 0.02 0
23.76 0.02 0
23.84 0.02 0
23.92 0.02 0
24 0.02 0
24.08 0.02 0
24.16 0.02 0
24.24 0.02 0
24.32 0.02 0
24.4 0.02 0
24.48 0.02 0
24.56 0.02 0
24.64 0.02 0
24.72 0.02 0
24.8 0.02 0
24.88 0.02 0
24.96 0.02 0
25.04 0.02 0
25.12 0.02 0
25.2 0.02 0
25.28 0.02 0
25.36 0.02 0
25.44 0.02 0
25.52 0.02 0
25.6 0.02 0
25.68 0.02 0
25.76 0.02 0
25.84 0.02 0
25.92 0.02 0
26 0.02 0
26.08 0.02 0
26.16 0.02 0
26.24 0.02 0
26.32 0.02 0
26.4 0.02 0
26.48 0.02 0
26.56 0.02 0
26.64 0.02 0
26.72 0.02 0
26.8 0.02 0
26.88 0.02 0
26.96 0.02 0
27.04 0.02 0
27.12 0.02 0
27.2 0.02 0
27.28 0.02 0
27.36 0.02 0
27.44 0.02 0
27.52 0.02 0
27.6 0.02 0
27.68 0.02 0
27.76 0.02 0
27.84 0.02 0
27.92 0.02 0
28 0.02 0
28.08 0.02 0
28.16 0.02 0
28.24 0.02 0
28.32 0.02 0
28.4 0.02 0
28.48 0.02 0
28.56 0.02 0
28.64 0.02 0
28.72 0.02 0
28.8 0.02 0
28.88 0.02 0
28.96 0.02 0
29.04 0.02 0
29.12 0.02 0
29.2 0.02 0
29.28 0.02 0
29.36 0.02 0
29.44 0.02 0
29.52 0.02 0
29.6 0.02 0
29.68 0.02 0
29.76 0.02 0
29.84 0.02 0
29.92 0.02 0
30 0.02 0
30.08 0.02 0
30.16 0.02 0
30.24 0.02 0
30.32 0.02 0
30.4 0.02 0
30.48 0.02 0
30.56 0.02 0
30.64 0.02 0
30.72 0.02 0
30.8 0.02 0
30.88 0.02 0
30.96 0.02 0
31.04 0.02 0
31.12 0.02 0
31.2 0.02 0
31.28 0.02 0
31.36 0.02 0
31.44 0.02 0
31.52 0.02 0
31.6 0.02 0
31.68 0.02 0
31.76 0.02 0
31.84 0.02 0
31.92 0.02 0
0 0.04 0
0.08 0.04 0
0.16 0.04 0
0.24 0.04 0
0.32 0.04 0
0.4 0.04 0
0.48 0.04 0
0.56 0.04 0
0.64 0.04 0
0.72 0.04 0
0.8 0.04 0
0.88 0.04 0
0.96 0.04 0
1.04 0.04 0
1.12 0.04 0
1.2 0.04 0
1.28 0.04 0
1.36 0.04 0
1.44 0.04 0
1.52 0.04 0
1.6 0.04 0
1.68 0.04 0
1.76 0.04 0
1.84 0.04 0
1.92 0.04 0
2 0.04 0
2.08 0.04 0
2.16 0.04 0
2.24 0.04 0
2.32 0.04 0
2.4 0.04 0
2.48 0.04 0
2.56 0.04 0
2.64 0.04 0
2.72 0.04 0
2.8 0.04 0
2.88 0.04 0
2.96 0.04 0
3.04 0.04 0
3.12 0.04 0
3.2 0.04 0
3.28 0.04 0
3.36 0.04 0
3.44 0.04 0
3.52 0.04 0
3.6 0.04 0
3.68 0.04 0
3.76 0.04 0
3.84 0.04 0
3.92 0.04 0
4 0.04 0
4.08 0.04 0
4.16 0.04 0
4.24 0.04 0
4.32 0.04 0
4.4 0.04 0
4.48 0.04 0
4.56 0.04 0
4.64 0.04 0
4.72 0.04 0
4.8 0.04 0
4.88 0.04 0
4.96 0.04 0
5.04 0.04 0
5.12 0.04 0
5.2 0.04 0
5.28 0.04 0
5.36 0.04 0
5.44 0.04 0
5.52 0.04 0
5.6 0.04 0
5.68 0.04 0
5.76 0.04 0
5.84 0.04 0
5.92 0.04 0
6 0.04 0
6.08 0.04 0
6.16 0.04 0
6.24 0.04 0
6.32 0.04 0
6.4 0.04 0
6.48 0.04 0
6.56 0.04 0
6.64 0.04 0
6.72 0.04 0
6.8 0.04 0
6.88 0.04 0
6.96 0.04 0
7.04 0.04 0
7.12 0.04 0
7.2 0.04 0
7.28 0.04 0
7.36 0.04 0
7.44 0.04 0
7.52 0.04 0
7.6 0.04 0
7.68 0.04 0
7.76 0.04 0
7.84 0.04 0
[...]
POINT_DATA 20000

SCALARS u float 1
LOOKUP_TABLE default
0
-0.506626
-0.291289
-0.213462
-0.178303
-0.157938
-0.144393
-0.134658
-0.127292
-0.121502
-0.116811
-0.112916
-0.109616
-0.106772
-0.104286
-0.102086
-0.100121
-0.098354
-0.0967572
-0.0953083
-0.0939871
-0.0927759
-0.0916598
-0.0906262
-0.0896641
-0.0887646
-0.0879236
-0.0871415
-0.0864208
-0.0857603
-0.0851515
-0.0845806
-0.0840359
-0.0835153
-0.0830283
-0.0825907
-0.082216
-0.0819077
-0.0816582
-0.0814532
-0.0812797
-0.0811307
-0.081007
-0.0809126
-0.0808505
-0.0808186
-0.0808095
-0.0808131
-0.0808199
-0.0808242
-0.0808252
-0.0808264
-0.080833
-0.0808506
-0.080883
-0.0809314
-0.0809948
-0.0810707
-0.0811557
-0.0812462
-0.0813394
-0.0814333
-0.0815263
-0.081618
-0.0817079
-0.081796
-0.0818823
-0.0819668
-0.0820496
-0.0821306
-0.0822098
-0.0822871
-0.0823623
-0.0824355
-0.0825065
-0.0825754
-0.082642
-0.0827063
-0.0827684
-0.0828282
-0.0828857
-0.0829409
-0.0829938
-0.0830443
-0.0830925
-0.0831384
-0.083182
-0.0832232
-0.083262
-0.0832985
-0.0833326
-0.0833644
-0.0833937
-0.0834208
-0.0834454
-0.0834677
-0.0834876
-0.0835052
-0.0835204
-0.0835332
-0.0835437
-0.0835518
-0.0835575
-0.083561
-0.083562
-0.0835608
-0.0835572
-0.0835513
-0.0835431
-0.0835326
-0.0835199
-0.0835048
-0.0834875
-0.0834679
-0.0834461
-0.0834221
-0.0833959
-0.0833675
-0.0833369
-0.0833041
-0.0832692
-0.0832322
-0.0831931
-0.0831519
-0.0831086
-0.0830633
-0.083016
-0.0829667
-0.0829154
-0.0828621
-0.0828069
-0.0827498
-0.0826908
-0.0826299
-0.0825673
-0.0825028
-0.0824365
-0.0823685
-0.0822988
-0.0822273
-0.0821542
-0.0820795
-0.0820032
-0.0819252
-0.0818458
-0.0817648
-0.0816823
-0.0815984
-0.0815131
-0.0814263
-0.0813383
-0.0812489
-0.0811582
-0.0810662
-0.0809731
-0.0808787
-0.0807832
-0.0806866
-0.0805889
-0.0804901
-0.0803904
-0.0802896
-0.080188
-0.0800854
-0.0799819
-0.0798776
-0.0797726
-0.0796667
-0.0795602
-0.0794529
-0.079345
-0.0792365
-0.0791274
-0.0790178
-0.0789077
-0.0787971
-0.078686
-0.0785746
-0.0784628
-0.0783507
-0.0782383
-0.0781257
-0.0780128
-0.0778998
-0.0777866
-0.0776733
-0.07756
-0.0774466
-0.0773332
-0.0772198
-0.0771065
-0.0769933
-0.0768803
-0.0767674
-0.0766547
-0.0765422
-0.07643
-0.0763182
-0.0762066
-0.0760954
-0.0759846
-0.0758743
-0.0757643
-0.0756549
-0.075546
-0.0754377
-0.0753299
-0.0752227
-0.0751162
-0.0750103
-0.0749051
-0.0748006
-0.0746969
-0.0745939
-0.0744917
-0.0743903
-0.0742898
-0.0741902
-0.0740914
-0.0739936
-0.0738967
-0.0738007
-0.0737058
-0.0736118
-0.0735189
-0.073427
-0.0733361
-0.0732464
-0.0731577
-0.0730702
-0.0729838
-0.0728986
-0.0728145
-0.0727316
-0.07265
-0.0725695
-0.0724903
-0.0724123
-0.0723356
-0.0722601
-0.072186
-0.0721131
-0.0720415
-0.0719713
-0.0719024
-0.0718348
-0.0717686
-0.0717037
-0.0716402
-0.0715781
-0.0715173
-0.071458
-0.0714
-0.0713435
-0.0712883
-0.0712346
-0.0711822
-0.0711313
-0.0710818
-0.0710338
-0.0709871
-0.0709419
-0.0708981
-0.0708558
-0.0708149
-0.0707754
-0.0707374
-0.0707008
-0.0706656
-0.0706319
-0.0705996
-0.0705687
-0.0705392
-0.0705112
-0.0704846
-0.0704594
-0.0704356
-0.0704133
-0.0703923
-0.0703728
-0.0703546
-0.0703378
-0.0703224
-0.0703084
-0.0702958
-0.0702845
-0.0702746
-0.0702661
-0.0702588
-0.070253
-0.0702484
-0.0702452
-0.0702432
-0.0702426
-0.0702433
-0.0702453
-0.0702485
-0.070253
-0.0702588
-0.0702658
-0.070274
-0.0702835
-0.0702942
-0.0703061
-0.0703192
-0.0703335
-0.0703489
-0.0703655
-0.0703833
-0.0704022
-0.0704222
-0.0704434
-0.0704656
-0.070489
-0.0705134
-0.0705389
-0.0705655
-0.0705931
-0.0706217
-0.0706514
-0.070682
-0.0707137
-0.0707463
-0.07078
-0.0708145
-0.0708501
-0.0708865
-0.0709239
-0.0709622
-0.0710013
-0.0710414
-0.0710823
-0.0711241
-0.0711668
-0.0712102
-0.0712545
-0.0712996
-0.0713455
-0.0713922
-0.0714396
-0.0714878
-0.0715367
-0.0715864
-0.0716368
-0.0716879
-0.0717397
-0.0717921
-0.0718452
-0.071899
-0.0719535
-0.0720085
-0.0720642
-0.0721205
-0.0721774
-0.0722348
-0.0722929
-0.0723514
-0.0724106
-0.0724702
-0.0725304
-0.0725911
-0.0726523
-0.072714
-0.0727762
-0.0728388
-0.0729019
-0.0729654
-0.0730293
-0.0730937
-0.0731585
-0.0732236
-0.0732892
-0.0733551
-0.0734214
-0.073488
-0.0735551
-0.0736223
-0.0736901
-0.0737579
-0.0738264
-0.0738947
-0.0739641
-0.0740325
-0.074103
-0.0741713
-0.0742431
-0.0743113
-0.0743845
-0.0744519
-0.0745279
-0.0745918
-0.0746755
-0.0747286
-0.0748277
-0.0748661
-0.074972
-0.0750162
-0.0750534
-0.0750534
-0.0750534
1
0.506626
0.291289
0.213462
0.178303
0.157938
0.144393
0.134658
0.127292
0.121502
0.116811
0.112916
0.109616
0.106772
0.104286
0.102086
0.100121
0.098354
0.0967572
0.0953083
0.0939871
0.0927759
0.0916598
0.0906262
0.0896641
0.0887646
0.0879236
0.0871415
0.0864208
0.0857603
0.0851515
0.0845806
0.0840359
0.0835153
0.0830283
0.0825907
0.082216
0.0819077
0.0816582
0.0814532
0.0812797
0.0811307
0.081007
0.0809126
0.0808505
0.0808186
0.0808095
0.0808131
0.0808199
0.0808242
0.0808252
0.0808264
0.080833
0.0808506
0.080883
0.0809314
0.0809948
0.0810707
0.0811557
0.0812462
0.0813394
0.0814333
0.0815263
0.081618
0.0817079
0.081796
0.0818823
0.0819668
0.0820496
0.0821306
0.0822098
0.0822871
0.0823623
0.0824355
0.0825065
0.0825754
0.082642
0.0827063
0.0827684
0.0828282
0.0828857
0.0829409
0.0829938
0.0830443
0.0830925
0.0831384
0.083182
0.0832232
0.083262
0.0832985
0.0833326
0.0833644
0.0833937
0.0834208
0.0834454
0.0834677
0.0834876
0.0835052
0.0835204
0.0835332
0.0835437
0.0835518
0.0835575
0.083561
0.083562
0.0835608
0.0835572
0.0835513
0.0835431
0.0835326
0.0835199
0.0835048
0.0834875
0.0834679
0.0834461
0.0834221
0.0833959
0.0833675
0.0833369
0.0833041
0.0832692
0.0832322
0.0831931
0.0831519
0.0831086
0.0830633
0.083016
0.0829667
0.0829154
0.0828621
0.0828069
0.0827498
0.0826908
0.0826299
0.0825673
0.0825028
0.0824365
0.0823685
0.0822988
0.0822273
0.0821542
0.0820795
0.0820032
0.0819252
0.0818458
0.0817648
0.0816823
0.0815984
0.0815131
0.0814263
0.0813383
0.0812489
0.0811582
0.0810662
0.0809731
0.0808787
0.0807832
0.0806866
0.0805889
0.0804901
0.0803904
0.0802896
0.080188
0.0800854
0.0799819
0.0798776
0.0797726
0.0796667
0.0795602
0.0794529
0.079345
0.0792365
0.0791274
0.0790178
0.0789077
0.0787971
0.078686
0.0785746
0.0784628
0.0783507
0.0782383
0.0781257
0.0780128
0.0778998
0.0777866
0.0776733
0.07756
0.0774466
0.0773332
0.0772198
0.0771065
0.0769933
0.0768803
0.0767674
0.0766547
0.0765422
0.07643
0.0763182
0.0762066
0.0760954
0.0759846
0.0758743
0.0757643
0.0756549
0.075546
0.0754377
0.0753299
0.0752227
0.0751162
0.0750103
0.0749051
0.0748006
0.0746969
0.0745939
0.0744917
0.0743903
0.0742898
0.0741902
0.0740914
0.0739936
0.0738967
0.0738007
0.0737058
0.0736118
0.0735189
0.073427
0.0733361
0.0732464
0.0731577
0.0730702
0.0729838
0.0728986
0.0728145
0.0727316
0.07265
0.0725695
0.0724903
0.0724123
0.0723356
0.0722601
0.072186
0.0721131
0.0720415
0.0719713
0.0719024
0.0718348
0.0717686
0.0717037
0.0716402
0.0715781
0.0715173
0.071458
0.0714
0.0713435
0.0712883
0.0712346
0.0711822
0.0711313
0.0710818
0.0710338
0.0709871
0.0709419
0.0708981
0.0708558
0.0708149
0.0707754
0.0707374
0.0707008
0.0706656
0.0706319
0.0705996
0.0705687
0.0705392
0.0705112
0.0704846
0.0704594
0.0704356
0.0704133
0.0703923
0.0703728
0.0703546
0.0703378
0.0703224
0.0703084
0.0702958
0.0702845
0.0702746
0.0702661
0.0702588
0.070253
0.0702484
0.0702452
0.0702432
0.0702426
0.0702433
0.0702453
0.0702485
0.070253
0.0702588
0.0702658
0.070274
0.0702835
0.0702942
0.0703061
0.0703192
0.0703335
0.0703489
0.0703655
0.0703833
0.0704022
0.0704222
0.0704434
0.0704656
0.070489
0.0705134
0.0705389
0.0705655
0.0705931
0.0706217
0.0706514
0.070682
0.0707137
0.0707463
0.07078
0.0708145
0.0708501
0.0708865
0.0709239
0.0709622
0.0710013
0.0710414
0.0710823
0.0711241
0.0711668
0.0712102
0.0712545
0.0712996
0.0713455
0.0713922
0.0714396
0.0714878
0.0715367
0.0715864
0.0716368
0.0716879
0.0717397
0.0717921
0.0718452
0.071899
0.0719535
0.0720085
0.0720642
0.0721205
0.0721774
0.0722348
0.0722929
0.0723514
0.0724106
0.0724702
0.0725304
0.0725911
0.0726523
0.072714
0.0727762
0.0728388
0.0729019
0.0729654
0.0730293
0.0730937
0.0731585
0.0732236
0.0732892
0.0733551
0.0734214
0.073488
0.0735551
0.0736223
0.0736901
0.0737579
0.0738264
0.0738947
0.0739641
0.0740325
0.074103
0.0741713
0.0742431
0.0743113
0.0743845
0.0744519
0.0745279
0.0745918
0.0746755
0.0747286
0.0748277
0.0748661
0.074972
0.0750162
0.0750534
0.0750534
0.0750534
1
0.923398
0.734069
0.595819
0.509633
0.454047
0.415625
0.387473
0.365915
0.348832
0.334912
0.323302
0.313426
0.304884
0.297392
0.290747
0.284798
0.279434
0.274569
0.270131
0.266056
0.262293
0.258803
0.255551
0.252509
0.249657
0.246985
0.244487
0.242161
0.239994
0.237965
0.236049
0.234231
0.232517
0.230932
0.229505
0.228252
0.227169
0.226233
0.225413
0.224684
0.224034
0.223462
0.222969
0.222553
0.222202
0.221898
0.221621
0.221357
0.221099
0.220852
0.220625
0.220427
0.220268
0.220151
0.220075
0.220033
0.220019
0.220024
0.22004
0.220062
0.220085
0.220108
0.220129
0.220148
0.220164
0.220178
0.22019
0.2202
0.220208
0.220213
0.220216
0.220216
0.220213
0.220207
0.220198
0.220186
0.220171
0.220153
0.220131
0.220106
0.220078
0.220047
0.220013
0.219975
0.219934
0.219891
0.219843
0.219793
0.21974
0.219683
0.219623
0.219561
0.219494
0.219425
0.219353
0.219278
0.219199
0.219118
0.219033
0.218946
0.218855
0.218762
0.218665
0.218566
0.218463
0.218358
0.21825
0.218139
0.218025
0.217909
0.21779
0.217668
0.217543
0.217416
0.217286
0.217154
0.217019
0.216882
0.216742
0.2166
0.216455
0.216308
0.216159
0.216008
0.215854
0.215698
0.215541
0.215381
0.215219
0.215055
0.21489
0.214722
0.214553
0.214382
0.214209
0.214035
0.213859
0.213681
0.213502
0.213322
0.21314
0.212957
0.212773
0.212587
0.2124
0.212213
0.212024
0.211834
0.211644
0.211452
0.21126
0.211067
0.210873
0.210679
0.210484
0.210289
0.210093
0.209897
0.209701
0.209504
0.209307
0.20911
0.208913
0.208716
0.208519
0.208322
0.208125
0.207929
0.207733
0.207537
0.207341
0.207146
0.206952
0.206758
0.206564
0.206372
0.20618
0.205989
0.205798
0.205609
0.20542
0.205233
0.205047
0.204862
0.204677
0.204495
0.204313
0.204133
0.203954
0.203777
0.203601
0.203426
0.203253
0.203082
0.202913
0.202745
0.202579
0.202414
0.202252
0.202091
0.201932
0.201776
0.201621
0.201468
0.201318
0.201169
0.201023
0.200879
0.200737
0.200597
0.200459
0.200324
0.200192
0.200061
0.199933
0.199808
0.199685
0.199564
0.199446
0.199331
0.199218
0.199107
0.199
0.198894
0.198792
0.198692
0.198595
0.198501
0.198409
0.19832
0.198234
0.198151
0.19807
0.197992
0.197917
0.197845
0.197776
0.197709
0.197646
0.197585
0.197527
0.197472
0.19742
0.197371
0.197324
0.197281
0.19724
0.197203
0.197168
0.197136
0.197107
0.197081
0.197057
0.197037
0.19702
0.197005
0.196993
0.196984
0.196978
0.196975
0.196975
0.196977
0.196982
0.196991
0.197002
0.197015
0.197032
0.197051
0.197073
0.197098
0.197125
0.197156
0.197189
0.197224
0.197263
0.197303
0.197347
0.197393
0.197442
0.197494
0.197548
0.197604
0.197663
0.197725
0.197789
0.197856
0.197925
0.197996
0.19807
0.198146
0.198225
0.198306
0.198389
0.198475
0.198563
0.198653
0.198746
0.198841
0.198938
0.199037
0.199138
0.199241
0.199347
0.199454
0.199564
0.199676
0.199789
0.199905
0.200023
0.200143
0.200264
0.200387
0.200513
0.20064
0.200769
0.2009
0.201032
0.201167
0.201303
0.201441
0.20158
0.201721
0.201864
0.202008
0.202154
0.202302
0.202451
0.202601
0.202753
0.202907
0.203062
0.203218
0.203376
0.203535
0.203695
0.203857
0.20402
0.204185
0.20435
0.204517
0.204686
0.204855
0.205025
0.205197
0.20537
0.205544
0.205718
0.205894
0.206072
0.20625
0.206429
0.206609
0.20679
0.206972
0.207154
0.207338
0.207523
0.207708
0.207894
0.208081
0.208269
0.208458
0.208647
0.208837
0.209028
0.20922
0.209412
0.209605
0.209798
0.209992
0.210187
0.210382
0.210578
0.210775
0.210972
0.211169
0.211367
0.211566
0.211765
0.211964
0.212165
0.212364
0.212567
0.212765
0.212971
0.213169
0.213377
0.213573
0.213787
0.213976
0.214206
0.214372
0.214635
0.214769
0.215048
0.215191
0.215373
0.215373
0.215373
1
1.07865
0.995324
0.88136
0.785912
0.713631
0.659251
0.61751
0.584653
0.558157
0.536317
0.517956
0.502246
0.488596
0.476583
0.465898
0.456316
0.447665
0.439805
0.432618
0.426003
0.419877
0.414178
0.408855
0.403868
0.399188
0.394797
0.390683
0.386833
0.383224
0.379827
0.376614
0.373578
0.370732
0.368109
0.365741
0.363638
0.361788
0.360155
0.358702
0.357397
0.356224
0.355177
0.354249
0.353428
0.352692
0.352018
0.351382
0.350772
0.350187
0.349636
0.349131
0.348684
0.348304
0.347989
0.347735
0.347531
0.347363
0.347221
0.347094
0.346975
0.346858
0.346742
0.346624
0.346505
0.346385
0.346263
0.346141
0.346017
0.345891
0.345765
0.345636
0.345505
0.345372
0.345237
0.345099
0.344959
0.344816
0.344671
0.344523
0.344373
0.34422
0.344064
0.343906
0.343746
0.343583
0.343418
0.34325
0.34308
0.342907
0.342732
0.342554
0.342374
0.342192
0.342007
0.34182
0.341631
0.341439
0.341246
0.34105
0.340851
0.340651
0.340448
0.340244
0.340037
0.339828
0.339618
0.339405
0.33919
0.338974
0.338755
0.338535
0.338313
0.338089
0.337864
0.337637
0.337408
0.337178
0.336946
0.336713
0.336478
0.336242
0.336005
0.335766
0.335526
0.335285
0.335043
0.3348
0.334556
0.33431
0.334064
0.333817
0.33357
0.333321
0.333072
0.332823
0.332572
0.332322
0.33207
0.331819
0.331567
0.331315
0.331062
0.33081
0.330557
0.330305
0.330052
0.3298
0.329548
0.329296
0.329044
0.328792
0.328541
0.328291
0.328041
0.327792
0.327543
0.327295
0.327048
0.326802
0.326556
0.326312
0.326068
0.325826
0.325585
0.325345
0.325106
0.324869
0.324633
0.324399
0.324166
0.323934
0.323705
0.323476
0.32325
0.323026
0.322803
0.322582
0.322363
0.322146
0.321932
0.321719
0.321509
0.3213
0.321094
0.320891
0.320689
0.320491
0.320294
0.3201
0.319909
0.31972
0.319534
0.319351
0.31917
0.318992
0.318817
0.318645
0.318476
0.31831
0.318146
0.317986
0.317828
0.317674
0.317523
0.317375
0.31723
0.317089
0.31695
0.316815
0.316683
0.316555
0.31643
0.316308
0.31619
0.316075
0.315963
0.315855
0.315751
0.315649
0.315552
0.315458
0.315367
0.315281
0.315197
0.315118
0.315042
0.314969
0.3149
0.314835
0.314774
0.314716
0.314661
0.314611
0.314564
0.314521
0.314481
0.314446
0.314413
0.314385
0.31436
0.314339
0.314322
0.314308
0.314298
0.314292
0.314289
0.31429
0.314295
0.314303
0.314315
0.31433
0.31435
0.314372
0.314399
0.314429
0.314462
0.314499
0.31454
0.314584
0.314632
0.314683
0.314738
0.314796
0.314858
0.314923
0.314991
0.315063
0.315138
0.315217
0.315299
0.315384
0.315472
0.315564
0.315659
0.315757
0.315859
0.315963
0.316071
0.316182
0.316296
0.316413
0.316533
0.316656
0.316783
0.316912
0.317044
0.317179
0.317317
0.317457
0.317601
0.317747
0.317896
0.318048
0.318203
0.31836
0.31852
0.318683
0.318848
0.319016
0.319187
0.319359
0.319535
0.319713
0.319893
0.320076
0.320261
0.320448
0.320638
0.32083
0.321024
0.321221
0.321419
0.32162
0.321823
0.322028
0.322236
0.322445
0.322656
0.322869
0.323084
0.323302
0.323521
0.323741
0.323964
0.324189
0.324415
0.324643
0.324873
0.325104
0.325338
0.325572
0.325809
0.326047
0.326287
0.326528
0.32677
0.327014
0.32726
0.327507
0.327755
0.328005
0.328256
0.328508
0.328762
0.329017
0.329273
0.329531
0.329789
0.330049
0.33031
0.330572
0.330835
0.331099
0.331364
0.33163
0.331897
0.332165
0.332434
0.332704
0.332975
0.333247
0.33352
0.333793
0.334067
0.334342
0.334618
0.334894
0.335171
0.335449
0.335728
0.336007
0.336287
0.336567
0.336848
0.33713
0.337412
0.337695
0.337978
0.338263
0.338546
0.338832
0.339115
0.339404
0.339687
0.339979
0.34026
0.340556
0.340835
0.341138
0.341406
0.341731
0.34197
0.342335
0.342537
0.34292
0.343132
0.343458
0.343458
0.343458
1
1.11072
1.11249
1.05303
0.981261
0.91534
0.859475
0.813213
0.774943
0.743038
0.716131
0.693145
0.673245
0.655801
0.640338
0.626507
0.614052
0.602775
0.592508
0.583103
0.574428
0.566378
0.558871
0.551844
0.545249
0.539051
0.533229
0.527765
0.522639
0.517818
0.513263
0.508948
0.504872
0.50106
0.497552
0.494379
0.491544
0.489024
0.486777
0.48476
0.482943
0.481305
0.479838
0.478524
0.477341
0.476257
0.475242
0.474272
0.473339
0.472447
0.471612
0.470852
0.470179
0.469599
0.469109
0.468698
0.468349
0.468046
0.467774
0.467519
0.467273
0.46703
0.466789
0.466546
0.466304
0.46606
0.465817
0.465573
0.465329
0.465085
0.464839
0.464593
0.464345
0.464096
0.463846
0.463593
0.463339
0.463083
0.462825
0.462566
0.462304
0.462041
0.461776
0.461509
0.46124
0.46097
0.460698
0.460424
0.460149
0.459872
0.459593
0.459313
0.459031
0.458748
0.458462
0.458176
0.457888
0.457598
0.457307
0.457015
0.456721
0.456426
0.45613
0.455832
0.455533
0.455233
0.454932
0.454629
0.454326
0.454021
0.453715
0.453409
0.453101
0.452793
0.452484
0.452174
0.451863
0.451551
0.451239
0.450926
0.450613
0.450299
0.449985
0.44967
0.449355
0.44904
0.448724
0.448408
0.448092
0.447776
0.44746
0.447144
0.446828
0.446512
0.446197
0.445881
0.445566
0.445252
0.444937
0.444624
0.44431
0.443998
0.443686
0.443374
0.443064
0.442754
0.442445
0.442137
0.441831
0.441525
0.44122
0.440917
0.440615
0.440314
0.440014
0.439716
0.43942
0.439125
0.438831
0.43854
0.43825
0.437961
0.437675
0.437391
0.437108
0.436828
0.436549
0.436273
0.435999
0.435727
0.435458
0.43519
0.434926
0.434663
0.434403
0.434146
0.433891
0.433639
0.43339
0.433144
0.4329
0.432659
0.432421
0.432186
0.431954
0.431725
0.431499
0.431276
0.431057
0.43084
0.430627
0.430417
0.430211
0.430008
0.429808
0.429612
0.429419
0.42923
0.429044
0.428862
0.428684
0.428509
0.428338
0.42817
0.428007
0.427847
0.42769
0.427538
0.42739
0.427245
0.427104
0.426968
0.426835
0.426706
0.426581
0.42646
0.426343
0.42623
0.426121
0.426016
0.425915
0.425819
0.425726
0.425638
0.425553
0.425473
0.425397
0.425325
0.425257
0.425193
0.425133
0.425078
0.425026
0.424979
0.424936
0.424897
0.424862
0.424832
0.424805
0.424783
0.424764
0.42475
0.42474
0.424734
0.424733
0.424735
0.424741
0.424751
0.424766
0.424784
0.424807
0.424833
0.424864
0.424898
0.424937
0.424979
0.425025
0.425076
0.42513
0.425188
0.42525
0.425315
0.425385
0.425458
0.425535
0.425616
0.425701
0.425789
0.425881
0.425976
0.426075
0.426178
0.426285
0.426395
0.426508
0.426625
0.426745
0.426869
0.426996
0.427127
0.427261
0.427398
0.427539
0.427683
0.42783
0.42798
0.428134
0.42829
0.42845
0.428613
0.428779
0.428947
0.429119
0.429294
0.429472
0.429652
0.429836
0.430022
0.430211
0.430403
0.430598
0.430795
0.430995
0.431197
0.431403
0.43161
0.431821
0.432033
0.432249
0.432466
0.432686
0.432909
0.433133
0.43336
0.43359
0.433821
0.434055
0.434291
0.434529
0.434769
0.435011
0.435256
0.435502
0.43575
0.436
0.436252
0.436506
0.436762
0.43702
0.437279
0.437541
0.437804
0.438068
0.438335
0.438603
0.438872
0.439143
0.439416
0.43969
0.439966
0.440243
0.440521
0.440801
0.441083
0.441365
0.441649
0.441935
0.442221
0.442509
0.442798
0.443088
0.443379
0.443672
0.443965
0.44426
0.444555
0.444852
0.445149
0.445448
0.445747
0.446048
0.446349
0.446651
0.446954
0.447258
0.447562
0.447868
0.448174
0.44848
0.448788
0.449096
0.449405
0.449714
0.450024
0.450335
0.450646
0.450957
0.45127
0.451582
0.451896
0.452209
0.452525
0.452837
0.453156
0.453467
0.45379
0.454099
0.454426
0.454732
0.455068
0.455361
0.455722
0.455983
0.456383
0.456614
0.457026
0.457263
0.457683
0.457683
0.457683
1
1.09492
1.14177
1.1314
1.09448
1.04955
1.00501
0.964111
0.927761
0.895865
0.867956
0.843462
0.821826
0.802559
0.785259
0.769618
0.755413
0.74247
0.730639
0.719767
0.709713
0.700355
0.6916
0.68338
0.675641
0.668348
0.661483
0.655031
0.648969
0.643253
0.637833
0.632678
0.627792
0.623216
0.619002
0.615186
0.611767
0.608708
0.605957
0.603467
0.601211
0.599176
0.597353
0.595722
0.594246
0.592882
0.591588
0.590337
0.589123
0.587958
0.586866
0.585873
0.584996
0.58424
0.583599
0.583057
0.582592
0.582184
0.581811
0.581459
0.581117
0.580779
0.580442
0.580105
0.579767
0.579429
0.579092
0.578754
0.578417
0.57808
0.577743
0.577405
0.577067
0.576727
0.576386
0.576044
0.5757
0.575355
0.575008
0.57466
0.574311
0.57396
0.573607
0.573254
0.572899
0.572542
0.572184
0.571825
0.571465
0.571103
0.57074
0.570376
0.570011
0.569645
0.569277
0.568908
0.568538
0.568168
0.567796
0.567423
0.567049
0.566674
0.566299
0.565922
0.565545
0.565167
0.564788
0.564408
0.564028
0.563647
0.563265
0.562883
0.562501
0.562118
0.561735
0.561351
0.560967