# vtk DataFile Version 2.0
FlowField
ASCII
DATASET STRUCTURED_GRID
DIMENSIONS 400 1 50
POINTS 20000 float
0 0 0
0.08 0 0
0.16 0 0
0.24 0 0
0.32 0 0
0.4 0 0
0.48 0 0
0.56 0 0
0.64 0 0
0.72 0 0
0.8 0 0
0.88 0 0
0.96 0 0
1.04 0 0
1.12 0 0
1.2 0 0
1.28 0 0
1.36 0 0
1.44 0 0
1.52 0 0
1.6 0 0
1.68 0 0
1.76 0 0
1.84 0 0
1.92 0 0
2 0 0
2.08 0 0
2.16 0 0
2.24 0 0
2.32 0 0
2.4 0 0
2.48 0 0
2.56 0 0
2.64 0 0
2.72 0 0
2.8 0 0
2.88 0 0
2.96 0 0
3.04 0 0
3.12 0 0
3.2 0 0
3.28 0 0
3.36 0 0
3.44 0 0
3.52 0 0
3.6 0 0
3.68 0 0
3.76 0 0
3.84 0 0
3.92 0 0
4 0 0
4.08 0 0
4.16 0 0
4.24 0 0
4.32 0 0
4.4 0 0
4.48 0 0
4.56 0 0
4.64 0 0
4.72 0 0
4.8 0 0
4.88 0 0
4.96 0 0
5.04 0 0
5.12 0 0
5.2 0 0
5.28 0 0
5.36 0 0
5.44 0 0
5.52 0 0
5.6 0 0
5.68 0 0
5.76 0 0
5.84 0 0
5.92 0 0
6 0 0
6.08 0 0
6.16 0 0
6.24 0 0
6.32 0 0
6.4 0 0
6.48 0 0
6.56 0 0
6.64 0 0
6.72 0 0
6.8 0 0
6.88 0 0
6.96 0 0
7.04 0 0
7.12 0 0
7.2 0 0
7.28 0 0
7.36 0 0
7.44 0 0
7.52 0 0
7.6 0 0
7.68 0 0
7.76 0 0
7.84 0 0
7.92 0 0
8 0 0
8.08 0 0
8.16 0 0
8.24 0 0
8.32 0 0
8.4 0 0
8.48 0 0
8.56 0 0
8.64 0 0
8.72 0 0
8.8 0 0
8.88 0 0
8.96 0 0
9.04 0 0
9.12 0 0
9.2 0 0
9.28 0 0
9.36 0 0
9.44 0 0
9.52 0 0
9.6 0 0
9.68 0 0
9.76 0 0
9.84 0 0
9.92 0 0
10 0 0
10.08 0 0
10.16 0 0
10.24 0 0
10.32 0 0
10.4 0 0
10.48 0 0
10.56 0 0
10.64 0 0
10.72 0 0
10.8 0 0
10.88 0 0
10.96 0 0
11.04 0 0
11.12 0 0
11.2 0 0
11.28 0 0
11.36 0 0
11.44 0 0
11.52 0 0
11.6 0 0
11.68 0 0
11.76 0 0
11.84 0 0
11.92 0 0
12 0 0
12.08 0 0
12.16 0 0
12.24 0 0
12.32 0 0
12.4 0 0
12.48 0 0
12.56 0 0
12.64 0 0
12.72 0 0
12.8 0 0
12.88 0 0
12.96 0 0
13.04 0 0
13.12 0 0
13.2 0 0
13.28 0 0
13.36 0 0
13.44 0 0
13.52 0 0
13.6 0 0
13.68 0 0
13.76 0 0
13.84 0 0
13.92 0 0
14 0 0
14.08 0 0
14.16 0 0
14.24 0 0
14.32 0 0
14.4 0 0
14.48 0 0
14.56 0 0
14.64 0 0
14.72 0 0
14.8 0 0
14.88 0 0
14.96 0 0
15.04 0 0
15.12 0 0
15.2 0 0
15.28 0 0
15.36 0 0
15.44 0 0
15.52 0 0
15.6 0 0
15.68 0 0
15.76 0 0
15.84 0 0
15.92 0 0
16 0 0
16.08 0 0
16.16 0 0
16.24 0 0
16.32 0 0
16.4 0 0
16.48 0 0
16.56 0 0
16.64 0 0
16.72 0 0
16.8 0 0
16.88 0 0
16.96 0 0
17.04 0 0
17.12 0 0
17.2 0 0
17.28 0 0
17.36 0 0
17.44 0 0
17.52 0 0
17.6 0 0
17.68 0 0
17.76 0 0
17.84 0 0
17.92 0 0
18 0 0
18.08 0 0
18.16 0 0
18.24 0 0
18.32 0 0
18.4 0 0
18.48 0 0
18.56 0 0
18.64 0 0
18.72 0 0
18.8 0 0
18.88 0 0
18.96 0 0
19.04 0 0
19.12 0 0
19.2 0 0
19.28 0 0
19.36 0 0
19.44 0 0
19.52 0 0
19.6 0 0
19.68 0 0
19.76 0 0
19.84 0 0
19.92 0 0
20 0 0
20.08 0 0
20.16 0 0
20.24 0 0
20.32 0 0
20.4 0 0
20.48 0 0
20.56 0 0
20.64 0 0
20.72 0 0
20.8 0 0
20.88 0 0
20.96 0 0
21.04 0 0
21.12 0 0
21.2 0 0
21.28 0 0
21.36 0 0
21.44 0 0
21.52 0 0
21.6 0 0
21.68 0 0
21.76 0 0
21.84 0 0
21.92 0 0
22 0 0
22.08 0 0
22.16 0 0
22.24 0 0
22.32 0 0
22.4 0 0
22.48 0 0
22.56 0 0
22.64 0 0
22.72 0 0
22.8 0 0
22.88 0 0
22.96 0 0
23.04 0 0
23.12 0 0
23.2 0 0
23.28 0 0
23.36 0 0
23.44 0 0
23.52 0 0
23.6 0 0
23.68 0 0
23.76 0 0
23.84 0 0
23.92 0 0
24 0 0
24.08 0 0
24.16 0 0
24.24 0 0
24.32 0 0
24.4 0 0
24.48 0 0
24.56 0 0
24.64 0 0
24.72 0 0
24.8 0 0
24.88 0 0
24.96 0 0
25.04 0 0
25.12 0 0
25.2 0 0
25.28 0 0
25.36 0 0
25.44 0 0
25.52 0 0
25.6 0 0
25.68 0 0
25.76 0 0
25.84 0 0
25.92 0 0
26 0 0
26.08 0 0
26.16 0 0
26.24 0 0
26.32 0 0
26.4 0 0
26.48 0 0
26.56 0 0
26.64 0 0
26.72 0 0
26.8 0 0
26.88 0 0
26.96 0 0
27.04 0 0
27.12 0 0
27.2 0 0
27.28 0 0
27.36 0 0
27.44 0 0
27.52 0 0
27.6 0 0
27.68 0 0
27.76 0 0
27.84 0 0
27.92 0 0
28 0 0
28.08 0 0
28.16 0 0
28.24 0 0
28.32 0 0
28.4 0 0
28.48 0 0
28.56 0 0
28.64 0 0
28.72 0 0
28.8 0 0
28.88 0 0
28.96 0 0
29.04 0 0
29.12 0 0
29.2 0 0
29.28 0 0
29.36 0 0
29.44 0 0
29.52 0 0
29.6 0 0
29.68 0 0
29.76 0 0
29.84 0 0
29.92 0 0
30 0 0
30.08 0 0
30.16 0 0
30.24 0 0
30.32 0 0
30.4 0 0
30.48 0 0
30.56 0 0
30.64 0 0
30.72 0 0
30.8 0 0
30.88 0 0
30.96 0 0
31.04 0 0
31.12 0 0
31.2 0 0
31.28 0 0
31.36 0 0
31.44 0 0
31.52 0 0
31.6 0 0
31.68 0 0
31.76 0 0
31.84 0 0
31.92 0 0
0 0.02 0
0.08 0.02 0
0.16 0.02 0
0.24 0.02 0
0.32 0.02 0
0.4 0.02 0
0.48 0.02 0
0.56 0.02 0
0.64 0.02 0
0.72 0.02 0
0.8 0.02 0
0.88 0.02 0
0.96 0.02 0
1.04 0.02 0
1.12 0.02 0
1.2 0.02 0
1.28 0.02 0
1.36 0.02 0
1.44 0.02 0
1.52 0.02 0
1.6 0.02 0
1.68 0.02 0
1.76 0.02 0
1.84 0.02 0
1.92 0.02 0
2 0.02 0
2.08 0.02 0
2.16 0.02 0
2.24 0.02 0
2.32 0.02 0
2.4 0.02 0
2.48 0.02 0
2.56 0.02 0
2.64 0.02 0
2.72 0.02 0
2.8 0.02 0
2.88 0.02 0
2.96 0.02 0
3.04 0.02 0
3.12 0.02 0
3.2 0.02 0
3.28 0.02 0
3.36 0.02 0
3.44 0.02 0
3.52 0.02 0
3.6 0.02 0
3.68 0.02 0
3.76 0.02 0
3.84 0.02 0
3.92 0.02 0
4 0.02 0
4.08 0.02 0
4.16 0.02 0
4.24 0.02 0
4.32 0.02 0
4.4 0.02 0
4.48 0.02 0
4.56 0.02 0
4.64 0.02 0
4.72 0.02 0
4.8 0.02 0
4.88 0.02 0
4.96 0.02 0
5.04 0.02 0
5.12 0.02 0
5.2 0.02 0
5.28 0.02 0
5.36 0.02 0
5.44 0.02 0
5.52 0.02 0
5.6 0.02 0
5.68 0.02 0
5.76 0.02 0
5.84 0.02 0
5.92 0.02 0
6 0.02 0
6.08 0.02 0
6.16 0.02 0
6.24 0.02 0
6.32 0.02 0
6.4 0.02 0
6.48 0.02 0
6.56 0.02 0
6.64 0.02 0
6.72 0.02 0
6.8 0.02 0
6.88 0.02 0
6.96 0.02 0
7.04 0.02 0
7.12 0.02 0
7.2 0.02 0
7.28 0.02 0
7.36 0.02 0
7.44 0.02 0
7.52 0.02 0
7.6 0.02 0
7.68 0.02 0
7.76 0.02 0
7.84 0.02 0
7.92 0.02 0
8 0.02 0
8.08 0.02 0
8.16 0.02 0
8.24 0.02 0
8.32 0.02 0
8.4 0.02 0
8.48 0.02 0
8.56 0.02 0
8.64 0.02 0
8.72 0.02 0
8.8 0.02 0
8.88 0.02 0
8.96 0.02 0
9.04 0.02 0
9.12 0.02 0
9.2 0.02 0
9.28 0.02 0
9.36 0.02 0
9.44 0.02 0
9.52 0.02 0
9.6 0.02 0
9.68 0.02 0
9.76 0.02 0
9.84 0.02 0
9.92 0.02 0
10 0.02 0
10.08 0.02 0
10.16 0.02 0
10.24 0.02 0
10.32 0.02 0
10.4 0.02 0
10.48 0.02 0
10.56 0.02 0
10.64 0.02 0
10.72 0.02 0
10.8 0.02 0
10.88 0.02 0
10.96 0.02 0
11.04 0.02 0
11.12 0.02 0
11.2 0.02 0
11.28 0.02 0
11.36 0.02 0
11.44 0.02 0
11.52 0.02 0
11.6 0.02 0
11.68 0.02 0
11.76 0.02 0
11.84 0.02 0
11.92 0.02 0
12 0.02 0
12.08 0.02 0
12.16 0.02 0
12.24 0.02 0
12.32 0.02 0
12.4 0.02 0
12.48 0.02 0
12.56 0.02 0
12.64 0.02 0
12.72 0.02 0
12.8 0.02 0
12.88 0.02 0
12.96 0.02 0
13.04 0.02 0
13.12 0.02 0
13.2 0.02 0
13.28 0.02 0
13.36 0.02 0
13.44 0.02 0
13.52 0.02 0
13.6 0.02 0
13.68 0.02 0
13.76 0.02 0
13.84 0.02 0
13.92 0.02 0
14 0.02 0
14.08 0.02 0
14.16 0.02 0
14.24 0.02 0
14.32 0.02 0
14.4 0.02 0
14.48 0.02 0
14.56 0.02 0
14.64 0.02 0
14.72 0.02 0
14.8 0.02 0
14.88 0.02 0
14.96 0.02 0
15.04 0.02 0
15.12 0.02 0
15.2 0.02 0
15.28 0.02 0
15.36 0.02 0
15.44 0.02 0
15.52 0.02 0
15.6 0.02 0
15.68 0.02 0
15.76 0.02 0
15.84 0.02 0
15.92 0.02 0
16 0.02 0
16.08 0.02 0
16.16 0.02 0
16.24 0.02 0
16.32 0.02 0
16.4 0.02 0
16.48 0.02 0
16.56 0.02 0
16.64 0.02 0
16.72 0.02 0
16.8 0.02 0
16.88 0.02 0
16.96 0.02 0
17.04 0.02 0
17.12 0.02 0
17.2 0.02 0
17.28 0.02 0
17.36 0.02 0
17.44 0.02 0
17.52 0.02 0
17.6 0.02 0
17.68 0.02 0
17.76 0.02 0
17.84 0.02 0
17.92 0.02 0
18 0.02 0
18.08 0.02 0
18.16 0.02 0
18.24 0.02 0
18.32 0.02 0
18.4 0.02 0
18.48 0.02 0
18.56 0.02 0
18.64 0.02 0
18.72 0.02 0
18.8 0.02 0
18.88 0.02 0
18.96 0.02 0
19.04 0.02 0
19.12 0.02 0
19.2 0.02 0
19.28 0.02 0
19.36 0.02 0
19.44 0.02 0
19.52 0.02 0
19.6 0.02 0
19.68 0.02 0
19.76 0.02 0
19.84 0.02 0
19.92 0.02 0
20 0.02 0
20.08 0.02 0
20.16 0.02 0
20.24 0.02 0
20.32 0.02 0
20.4 0.02 0
20.48 0.02 0
20.56 0.02 0
20.64 0.02 0
20.72 0.02 0
20.8 0.02 0
20.88 0.02 0
20.96 0.02 0
21.04 0.02 0
21.12 0.02 0
21.2 0.02 0
21.28 0.02 0
21.36 0.02 0
21.44 0.02 0
21.52 0.02 0
21.6 0.02 0
21.68 0.02 0
21.76 0.02 0
21.84 0.02 0
21.92 0.02 0
22 0.02 0
22.08 0.02 0
22.16 0.02 0
22.24 0.02 0
22.32 0.02 0
22.4 0.02 0
22.48 0.02 0
22.56 0.02 0
22.64 0.02 0
22.72 0.02 0
22.8 0.02 0
22.88 0.02 0
22.96 0.02 0
23.04 0.02 0
23.12 0.02 0
23.2 0.02 0
23.28 0.02 0
23.36 0.02 0
23.44 0.02 0
23.52 0.02 0
23.6 0.02 0
23.68 0.02 0
23.76 0.02 0
23.84 0.02 0
23.92 0.02 0
24 0.02 0
24.08 0.02 0
24.16 0.02 0
24.24 0.02 0
24.32 0.02 0
24.4 0.02 0
24.48 0.02 0
24.56 0.02 0
24.64 0.02 0
24.72 0.02 0
24.8 0.02 0
24.88 0.02 0
24.96 0.02 0
25.04 0.02 0
25.12 0.02 0
25.2 0.02 0
25.28 0.02 0
25.36 0.02 0
25.44 0.02 0
25.52 0.02 0
25.6 0.02 0
25.68 0.02 0
25.76 0.02 0
25.84 0.02 0
25.92 0.02 0
26 0.02 0
26.08 0.02 0
26.16 0.02 0
26.24 0.02 0
26.32 0.02 0
26.4 0.02 0
26.48 0.02 0
26.56 0.02 0
26.64 0.02 0
26.72 0.02 0
26.8 0.02 0
26.88 0.02 0
26.96 0.02 0
27.04 0.02 0
27.12 0.02 0
27.2 0.02 0
27.28 0.02 0
27.36 0.02 0
27.44 0.02 0
27.52 0.02 0
27.6 0.02 0
27.68 0.02 0
27.76 0.02 0
27.84 0.02 0
27.92 0.02 0
28 0.02 0
28.08 0.02 0
28.16 0.02 0
28.24 0.02 0
28.32 0.02 0
28.4 0.02 0
28.48 0.02 0
28.56 0.02 0
28.64 0.02 0
28.72 0.02 0
28.8 0.02 0
28.88 0.02 0
28.96 0.02 0
29.04 0.02 0
29.12 0.02 0
29.2 0.02 0
29.28 0.02 0
29.36 0.02 0
29.44 0.02 0
29.52 0.02 0
29.6 0.02 0
29.68 0.02 0
29.76 0.02 0
29.84 0.02 0
29.92 0.02 0
30 0.02 0
30.08 0.02 0
30.16 0.02 0
30.24 0.02 0
30.32 0.02 0
30.4 0.02 0
30.48 0.02 0
30.56 0.02 0
30.64 0.02 0
30.72 0.02 0
30.8 0.02 0
30.88 0.02 0
30.96 0.02 0
31.04 0.02 0
31.12 0.02 0
31.2 0.02 0
31.28 0.02 0
31.36 0.02 0
31.44 0.02 0
31.52 0.02 0
31.6 0.02 0
31.68 0.02 0
31.76 0.02 0
31.84 0.02 0
31.92 0.02 0
0 0.04 0
0.08 0.04 0
0.16 0.04 0
0.24 0.04 0
0.32 0.04 0
0.4 0.04 0
0.48 0.04 0
0.56 0.04 0
0.64 0.04 0
0.72 0.04 0
0.8 0.04 0
0.88 0.04 0
0.96 0.04 0
1.04 0.04 0
1.12 0.04 0
1.2 0.04 0
1.28 0.04 0
1.36 0.04 0
1.44 0.04 0
1.52 0.04 0
1.6 0.04 0
1.68 0.04 0
1.76 0.04 0
1.84 0.04 0
1.92 0.04 0
2 0.04 0
2.08 0.04 0
2.16 0.04 0
2.24 0.04 0
2.32 0.04 0
2.4 0.04 0
2.48 0.04 0
2.56 0.04 0
2.64 0.04 0
2.72 0.04 0
2.8 0.04 0
2.88 0.04 0
2.96 0.04 0
3.04 0.04 0
3.12 0.04 0
3.2 0.04 0
3.28 0.04 0
3.36 0.04 0
3.44 0.04 0
3.52 0.04 0
3.6 0.04 0
3.68 0.04 0
3.76 0.04 0
3.84 0.04 0
3.92 0.04 0
4 0.04 0
4.08 0.04 0
4.16 0.04 0
4.24 0.04 0
4.32 0.04 0
4.4 0.04 0
4.48 0.04 0
4.56 0.04 0
4.64 0.04 0
4.72 0.04 0
4.8 0.04 0
4.88 0.04 0
4.96 0.04 0
5.04 0.04 0
5.12 0.04 0
5.2 0.04 0
5.28 0.04 0
5.36 0.04 0
5.44 0.04 0
5.52 0.04 0
5.6 0.04 0
5.68 0.04 0
5.76 0.04 0
5.84 0.04 0
5.92 0.04 0
6 0.04 0
6.08 0.04 0
6.16 0.04 0
6.24 0.04 0
6.32 0.04 0
6.4 0.04 0
6.48 0.04 0
6.56 0.04 0
6.64 0.04 0
6.72 0.04 0
6.8 0.04 0
6.88 0.04 0
6.96 0.04 0
7.04 0.04 0
7.12 0.04 0
7.2 0.04 0
7.28 0.04 0
7.36 0.04 0
7.44 0.04 0
7.52 0.04 0
7.6 0.04 0
7.68 0.04 0
7.76 0.04 0
7.84 0.04 0
[...]
POINT_DATA 20000

SCALARS u float 1
LOOKUP_TABLE default
0
-0.5069
-0.291639
-0.213819
-0.178636
-0.158235
-0.144647
-0.134864
-0.127444
-0.121592
-0.116832
-0.112862
-0.109481
-0.106553
-0.103981
-0.101695
-0.0996448
-0.0977901
-0.0961018
-0.0945562
-0.0931345
-0.0918209
-0.0906021
-0.089467
-0.0884065
-0.0874132
-0.0864812
-0.0856051
-0.0847802
-0.084002
-0.0832661
-0.0825683
-0.081905
-0.0812728
-0.0806697
-0.0800944
-0.0795462
-0.0790242
-0.0785269
-0.0780517
-0.077596
-0.0771572
-0.076734
-0.0763257
-0.0759325
-0.0755543
-0.0751913
-0.0748429
-0.074508
-0.0741847
-0.0738708
-0.0735643
-0.0732641
-0.0729713
-0.0726883
-0.0724178
-0.0721614
-0.0719182
-0.0716856
-0.0714602
-0.0712401
-0.0710262
-0.0708218
-0.0706312
-0.0704573
-0.0703
-0.0701565
-0.0700226
-0.0698944
-0.0697705
-0.0696518
-0.0695409
-0.0694402
-0.069351
-0.0692721
-0.0692013
-0.069136
-0.0690744
-0.0690162
-0.0689623
-0.0689142
-0.0688729
-0.0688384
-0.0688097
-0.0687849
-0.0687622
-0.0687403
-0.0687187
-0.068698
-0.0686794
-0.068664
-0.068653
-0.0686469
-0.0686455
-0.0686484
-0.0686546
-0.0686631
-0.068673
-0.0686837
-0.0686948
-0.0687059
-0.0687171
-0.0687283
-0.0687396
-0.0687509
-0.0687623
-0.0687738
-0.0687852
-0.0687966
-0.0688078
-0.0688189
-0.0688298
-0.0688404
-0.0688509
-0.068861
-0.068871
-0.0688808
-0.0688903
-0.0688996
-0.0689087
-0.0689176
-0.0689263
-0.0689348
-0.0689431
-0.0689513
-0.0689592
-0.0689669
-0.0689745
-0.0689818
-0.068989
-0.068996
-0.0690028
-0.0690094
-0.0690159
-0.0690221
-0.0690283
-0.0690342
-0.06904
-0.0690456
-0.069051
-0.0690563
-0.0690615
-0.0690664
-0.0690713
-0.069076
-0.0690805
-0.0690849
-0.0690892
-0.0690933
-0.0690973
-0.0691012
-0.0691049
-0.0691085
-0.069112
-0.0691154
-0.0691187
-0.0691219
-0.0691249
-0.0691279
-0.0691307
-0.0691335
-0.0691362
-0.0691387
-0.0691412
-0.0691436
-0.069146
-0.0691482
-0.0691504
-0.0691525
-0.0691546
-0.0691566
-0.0691585
-0.0691604
-0.0691622
-0.069164
-0.0691658
-0.0691675
-0.0691691
-0.0691708
-0.0691724
-0.069174
-0.0691755
-0.0691771
-0.0691786
-0.0691801
-0.0691816
-0.0691831
-0.0691846
-0.0691861
-0.0691877
-0.0691892
-0.0691907
-0.0691923
-0.0691939
-0.0691955
-0.0691971
-0.0691988
-0.0692005
-0.0692023
-0.0692041
-0.0692059
-0.0692078
-0.0692097
-0.0692117
-0.0692138
-0.0692159
-0.0692181
-0.0692204
-0.0692227
-0.0692251
-0.0692276
-0.0692301
-0.0692328
-0.0692355
-0.0692384
-0.0692413
-0.0692443
-0.0692475
-0.0692507
-0.069254
-0.0692575
-0.069261
-0.0692647
-0.0692685
-0.0692724
-0.0692765
-0.0692806
-0.0692849
-0.0692894
-0.0692939
-0.0692986
-0.0693035
-0.0693084
-0.0693136
-0.0693188
-0.0693243
-0.0693298
-0.0693356
-0.0693414
-0.0693475
-0.0693537
-0.06936
-0.0693666
-0.0693733
-0.0693801
-0.0693871
-0.0693943
-0.0694017
-0.0694093
-0.069417
-0.0694249
-0.069433
-0.0694413
-0.0694497
-0.0694583
-0.0694672
-0.0694762
-0.0694854
-0.0694948
-0.0695044
-0.0695141
-0.0695241
-0.0695343
-0.0695446
-0.0695552
-0.0695659
-0.0695769
-0.0695881
-0.0695994
-0.069611
-0.0696227
-0.0696347
-0.0696469
-0.0696593
-0.0696718
-0.0696846
-0.0696976
-0.0697108
-0.0697242
-0.0697378
-0.0697517
-0.0697657
-0.0697799
-0.0697944
-0.069809
-0.0698239
-0.069839
-0.0698542
-0.0698697
-0.0698854
-0.0699013
-0.0699175
-0.0699338
-0.0699503
-0.0699671
-0.069984
-0.0700012
-0.0700185
-0.0700361
-0.0700539
-0.0700719
-0.07009
-0.0701084
-0.070127
-0.0701458
-0.0701648
-0.070184
-0.0702034
-0.070223
-0.0702428
-0.0702628
-0.070283
-0.0703034
-0.070324
-0.0703448
-0.0703658
-0.0703869
-0.0704083
-0.0704299
-0.0704516
-0.0704735
-0.0704956
-0.0705179
-0.0705404
-0.0705631
-0.070586
-0.070609
-0.0706322
-0.0706556
-0.0706792
-0.0707029
-0.0707268
-0.0707509
-0.0707752
-0.0707996
-0.0708242
-0.0708489
-0.0708738
-0.0708989
-0.0709242
-0.0709496
-0.0709751
-0.0710009
-0.0710267
-0.0710527
-0.0710789
-0.0711052
-0.0711317
-0.0711583
-0.0711851
-0.071212
-0.071239
-0.0712662
-0.0712935
-0.0713209
-0.0713485
-0.0713762
-0.0714041
-0.071432
-0.0714601
-0.0714883
-0.0715166
-0.0715451
-0.0715736
-0.0716023
-0.0716311
-0.0716599
-0.071689
-0.071718
-0.0717473
-0.0717766
-0.0718061
-0.0718355
-0.0718652
-0.0718948
-0.0719248
-0.0719544
-0.0719848
-0.0720144
-0.0720451
-0.0720747
-0.0721059
-0.0721354
-0.072167
-0.0721965
-0.0722286
-0.0722578
-0.0722907
-0.0723193
-0.0723537
-0.0723806
-0.0724177
-0.0724415
-0.0724825
-0.0725025
-0.0725438
-0.0725655
-0.0725731
-0.0725731
-0.0725731
1
0.5069
0.291639
0.213819
0.178636
0.158235
0.144647
0.134864
0.127444
0.121592
0.116832
0.112862
0.109481
0.106553
0.103981
0.101695
0.0996448
0.0977901
0.0961018
0.0945562
0.0931345
0.0918209
0.0906021
0.089467
0.0884065
0.0874132
0.0864812
0.0856051
0.0847802
0.084002
0.0832661
0.0825683
0.081905
0.0812728
0.0806697
0.0800944
0.0795462
0.0790242
0.0785269
0.0780517
0.077596
0.0771572
0.076734
0.0763257
0.0759325
0.0755543
0.0751913
0.0748429
0.074508
0.0741847
0.0738708
0.0735643
0.0732641
0.0729713
0.0726883
0.0724178
0.0721614
0.0719182
0.0716856
0.0714602
0.0712401
0.0710262
0.0708218
0.0706312
0.0704573
0.0703
0.0701565
0.0700226
0.0698944
0.0697705
0.0696518
0.0695409
0.0694402
0.069351
0.0692721
0.0692013
0.069136
0.0690744
0.0690162
0.0689623
0.0689142
0.0688729
0.0688384
0.0688097
0.0687849
0.0687622
0.0687403
0.0687187
0.068698
0.0686794
0.068664
0.068653
0.0686469
0.0686455
0.0686484
0.0686546
0.0686631
0.068673
0.0686837
0.0686948
0.0687059
0.0687171
0.0687283
0.0687396
0.0687509
0.0687623
0.0687738
0.0687852
0.0687966
0.0688078
0.0688189
0.0688298
0.0688404
0.0688509
0.068861
0.068871
0.0688808
0.0688903
0.0688996
0.0689087
0.0689176
0.0689263
0.0689348
0.0689431
0.0689513
0.0689592
0.0689669
0.0689745
0.0689818
0.068989
0.068996
0.0690028
0.0690094
0.0690159
0.0690221
0.0690283
0.0690342
0.06904
0.0690456
0.069051
0.0690563
0.0690615
0.0690664
0.0690713
0.069076
0.0690805
0.0690849
0.0690892
0.0690933
0.0690973
0.0691012
0.0691049
0.0691085
0.069112
0.0691154
0.0691187
0.0691219
0.0691249
0.0691279
0.0691307
0.0691335
0.0691362
0.0691387
0.0691412
0.0691436
0.069146
0.0691482
0.0691504
0.0691525
0.0691546
0.0691566
0.0691585
0.0691604
0.0691622
0.069164
0.0691658
0.0691675
0.0691691
0.0691708
0.0691724
0.069174
0.0691755
0.0691771
0.0691786
0.0691801
0.0691816
0.0691831
0.0691846
0.0691861
0.0691877
0.0691892
0.0691907
0.0691923
0.0691939
0.0691955
0.0691971
0.0691988
0.0692005
0.0692023
0.0692041
0.0692059
0.0692078
0.0692097
0.0692117
0.0692138
0.0692159
0.0692181
0.0692204
0.0692227
0.0692251
0.0692276
0.0692301
0.0692328
0.0692355
0.0692384
0.0692413
0.0692443
0.0692475
0.0692507
0.069254
0.0692575
0.069261
0.0692647
0.0692685
0.0692724
0.0692765
0.0692806
0.0692849
0.0692894
0.0692939
0.0692986
0.0693035
0.0693084
0.0693136
0.0693188
0.0693243
0.0693298
0.0693356
0.0693414
0.0693475
0.0693537
0.06936
0.0693666
0.0693733
0.0693801
0.0693871
0.0693943
0.0694017
0.0694093
0.069417
0.0694249
0.069433
0.0694413
0.0694497
0.0694583
0.0694672
0.0694762
0.0694854
0.0694948
0.0695044
0.0695141
0.0695241
0.0695343
0.0695446
0.0695552
0.0695659
0.0695769
0.0695881
0.0695994
0.069611
0.0696227
0.0696347
0.0696469
0.0696593
0.0696718
0.0696846
0.0696976
0.0697108
0.0697242
0.0697378
0.0697517
0.0697657
0.0697799
0.0697944
0.069809
0.0698239
0.069839
0.0698542
0.0698697
0.0698854
0.0699013
0.0699175
0.0699338
0.0699503
0.0699671
0.069984
0.0700012
0.0700185
0.0700361
0.0700539
0.0700719
0.07009
0.0701084
0.070127
0.0701458
0.0701648
0.070184
0.0702034
0.070223
0.0702428
0.0702628
0.070283
0.0703034
0.070324
0.0703448
0.0703658
0.0703869
0.0704083
0.0704299
0.0704516
0.0704735
0.0704956
0.0705179
0.0705404
0.0705631
0.070586
0.070609
0.0706322
0.0706556
0.0706792
0.0707029
0.0707268
0.0707509
0.0707752
0.0707996
0.0708242
0.0708489
0.0708738
0.0708989
0.0709242
0.0709496
0.0709751
0.0710009
0.0710267
0.0710527
0.0710789
0.0711052
0.0711317
0.0711583
0.0711851
0.071212
0.071239
0.0712662
0.0712935
0.0713209
0.0713485
0.0713762
0.0714041
0.071432
0.0714601
0.0714883
0.0715166
0.0715451
0.0715736
0.0716023
0.0716311
0.0716599
0.071689
0.071718
0.0717473
0.0717766
0.0718061
0.0718355
0.0718652
0.0718948
0.0719248
0.0719544
0.0719848
0.0720144
0.0720451
0.0720747
0.0721059
0.0721354
0.072167
0.0721965
0.0722286
0.0722578
0.0722907
0.0723193
0.0723537
0.0723806
0.0724177
0.0724415
0.0724825
0.0725025
0.0725438
0.0725655
0.0725731
0.0725731
0.0725731
1
0.923956
0.734904
0.596833
0.510782
0.455321
0.417022
0.388986
0.36753
0.350529
0.336671
0.325108
0.315269
0.306757
0.299293
0.29267
0.286737
0.281378
0.276504
0.272046
0.267945
0.264156
0.26064
0.257365
0.254305
0.251439
0.248749
0.246218
0.243832
0.241579
0.239445
0.23742
0.235494
0.233659
0.23191
0.230241
0.22865
0.227132
0.225681
0.224291
0.222955
0.221669
0.220428
0.219232
0.21808
0.216972
0.215904
0.214877
0.213886
0.212927
0.211996
0.211089
0.210207
0.209351
0.208528
0.20774
0.206989
0.206272
0.205583
0.204917
0.204273
0.203656
0.203072
0.202529
0.202029
0.201569
0.201143
0.200741
0.200358
0.199992
0.199647
0.199328
0.199036
0.198773
0.198534
0.198314
0.198108
0.197914
0.197732
0.197565
0.197413
0.197279
0.197161
0.197056
0.19696
0.19687
0.196785
0.196704
0.196629
0.196563
0.196508
0.196465
0.196434
0.196414
0.196403
0.1964
0.196401
0.196405
0.196411
0.196418
0.196426
0.196434
0.196443
0.196452
0.196462
0.196473
0.196484
0.196495
0.196507
0.196518
0.19653
0.196541
0.196552
0.196564
0.196575
0.196586
0.196596
0.196607
0.196618
0.196628
0.196639
0.196649
0.19666
0.19667
0.196681
0.196691
0.196701
0.196711
0.196721
0.196732
0.196742
0.196752
0.196762
0.196772
0.196782
0.196792
0.196803
0.196813
0.196823
0.196833
0.196843
0.196853
0.196864
0.196874
0.196884
0.196895
0.196905
0.196916
0.196926
0.196937
0.196947
0.196958
0.196969
0.19698
0.196991
0.197002
0.197013
0.197025
0.197036
0.197048
0.19706
0.197072
0.197084
0.197096
0.197108
0.197121
0.197133
0.197146
0.197159
0.197172
0.197185
0.197199
0.197213
0.197226
0.197241
0.197255
0.197269
0.197284
0.197299
0.197314
0.19733
0.197345
0.197361
0.197378
0.197394
0.197411
0.197428
0.197445
0.197462
0.19748
0.197498
0.197517
0.197535
0.197554
0.197573
0.197593
0.197613
0.197633
0.197654
0.197674
0.197696
0.197717
0.197739
0.197761
0.197784
0.197807
0.19783
0.197854
0.197878
0.197902
0.197927
0.197952
0.197977
0.198003
0.198029
0.198056
0.198083
0.198111
0.198138
0.198167
0.198195
0.198225
0.198254
0.198284
0.198314
0.198345
0.198376
0.198408
0.19844
0.198473
0.198505
0.198539
0.198573
0.198607
0.198642
0.198677
0.198712
0.198749
0.198785
0.198822
0.19886
0.198897
0.198936
0.198975
0.199014
0.199054
0.199094
0.199135
0.199176
0.199218
0.19926
0.199302
0.199345
0.199389
0.199433
0.199477
0.199522
0.199568
0.199614
0.19966
0.199707
0.199755
0.199802
0.199851
0.1999
0.199949
0.199999
0.200049
0.2001
0.200151
0.200203
0.200255
0.200307
0.200361
0.200414
0.200468
0.200523
0.200578
0.200633
0.200689
0.200746
0.200803
0.20086
0.200918
0.200976
0.201035
0.201094
0.201154
0.201214
0.201275
0.201336
0.201397
0.201459
0.201522
0.201584
0.201648
0.201711
0.201776
0.20184
0.201905
0.201971
0.202037
0.202103
0.20217
0.202237
0.202305
0.202373
0.202441
0.20251
0.20258
0.202649
0.202719
0.20279
0.202861
0.202932
0.203004
0.203076
0.203148
0.203221
0.203295
0.203368
0.203442
0.203517
0.203591
0.203666
0.203742
0.203818
0.203894
0.203971
0.204047
0.204125
0.204202
0.20428
0.204358
0.204437
0.204516
0.204595
0.204675
0.204755
0.204835
0.204915
0.204996
0.205077
0.205158
0.20524
0.205322
0.205404
0.205487
0.20557
0.205653
0.205736
0.20582
0.205903
0.205988
0.206072
0.206157
0.206241
0.206327
0.206412
0.206497
0.206583
0.206669
0.206755
0.206842
0.206929
0.207015
0.207102
0.20719
0.207277
0.207365
0.207453
0.207541
0.207629
0.207718
0.207806
0.207895
0.207983
0.208073
0.208161
0.208252
0.20834
0.208432
0.20852
0.208612
0.2087
0.208793
0.20888
0.208976
0.209061
0.20916
0.209242
0.209346
0.209422
0.209534
0.209602
0.209715
0.209784
0.209847
0.209847
0.209847
1
1.07932
0.99642
0.88277
0.787595
0.715593
0.661512
0.620084
0.587532
0.561319
0.539735
0.52161
0.506124
0.492696
0.480902
0.470431
0.461048
0.452572
0.444864
0.437811
0.431324
0.425328
0.419763
0.414578
0.409734
0.405195
0.400933
0.396923
0.39314
0.389564
0.386176
0.38296
0.379901
0.376988
0.374211
0.371563
0.369036
0.366623
0.364314
0.3621
0.359971
0.357921
0.355945
0.354041
0.352206
0.350438
0.348735
0.347092
0.345506
0.343971
0.342482
0.341035
0.339631
0.338274
0.336969
0.335718
0.334524
0.33338
0.332282
0.331223
0.330206
0.329235
0.328319
0.327466
0.326677
0.325946
0.325265
0.324623
0.324014
0.323438
0.322897
0.322396
0.321938
0.32152
0.321138
0.320783
0.320452
0.32014
0.319848
0.319578
0.319333
0.319113
0.318915
0.318736
0.318571
0.318416
0.318271
0.318136
0.318014
0.317906
0.317816
0.317744
0.31769
0.317651
0.317623
0.317606
0.317594
0.317587
0.317582
0.317578
0.317576
0.317575
0.317575
0.317576
0.317578
0.317582
0.317586
0.31759
0.317596
0.317601
0.317607
0.317613
0.317618
0.317624
0.317631
0.317637
0.317643
0.31765
0.317657
0.317663
0.317671
0.317678
0.317685
0.317693
0.317701
0.317709
0.317717
0.317726
0.317735
0.317744
0.317753
0.317762
0.317772
0.317782
0.317792
0.317803
0.317813
0.317824
0.317835
0.317847
0.317859
0.317871
0.317883
0.317896
0.317909
0.317922
0.317936
0.31795
0.317964
0.317979
0.317994
0.318009
0.318025
0.318041
0.318057
0.318074
0.318091
0.318109
0.318127
0.318145
0.318164
0.318183
0.318202
0.318222
0.318242
0.318263
0.318284
0.318306
0.318328
0.31835
0.318373
0.318396
0.31842
0.318444
0.318469
0.318494
0.31852
0.318546
0.318573
0.3186
0.318628
0.318656
0.318684
0.318714
0.318743
0.318773
0.318804
0.318835
0.318867
0.318899
0.318932
0.318966
0.319
0.319034
0.319069
0.319105
0.319141
0.319178
0.319215
0.319253
0.319292
0.319331
0.31937
0.319411
0.319451
0.319493
0.319535
0.319578
0.319621
0.319665
0.319709
0.319754
0.3198
0.319847
0.319894
0.319941
0.31999
0.320038
0.320088
0.320138
0.320189
0.32024
0.320293
0.320345
0.320399
0.320453
0.320507
0.320563
0.320619
0.320675
0.320733
0.320791
0.320849
0.320909
0.320969
0.321029
0.321091
0.321153
0.321215
0.321279
0.321343
0.321407
0.321473
0.321539
0.321605
0.321672
0.32174
0.321809
0.321878
0.321948
0.322019
0.32209
0.322162
0.322235
0.322308
0.322382
0.322457
0.322532
0.322608
0.322685
0.322762
0.32284
0.322919
0.322998
0.323078
0.323159
0.32324
0.323322
0.323404
0.323488
0.323571
0.323656
0.323741
0.323827
0.323913
0.324
0.324088
0.324176
0.324265
0.324355
0.324445
0.324536
0.324627
0.324719
0.324812
0.324905
0.324999
0.325093
0.325188
0.325284
0.32538
0.325477
0.325574
0.325672
0.325771
0.32587
0.32597
0.32607
0.326171
0.326272
0.326374
0.326477
0.32658
0.326683
0.326787
0.326892
0.326997
0.327103
0.327209
0.327316
0.327424
0.327531
0.32764
0.327749
0.327858
0.327968
0.328078
0.328189
0.3283
0.328412
0.328524
0.328637
0.32875
0.328864
0.328978
0.329092
0.329207
0.329323
0.329439
0.329555
0.329672
0.329789
0.329906
0.330024
0.330143
0.330262
0.330381
0.3305
0.33062
0.330741
0.330861
0.330982
0.331104
0.331226
0.331348
0.33147
0.331593
0.331716
0.33184
0.331964
0.332088
0.332212
0.332337
0.332462
0.332587
0.332713
0.332839
0.332965
0.333092
0.333219
0.333346
0.333473
0.333601
0.333729
0.333857
0.333985
0.334114
0.334243
0.334371
0.334501
0.33463
0.33476
0.33489
0.33502
0.33515
0.335281
0.335411
0.335543
0.335673
0.335806
0.335935
0.336069
0.336199
0.336334
0.336463
0.336599
0.336728
0.336866
0.336993
0.337136
0.337257
0.337408
0.33752
0.337682
0.337785
0.337948
0.338052
0.338179
0.338179
0.338179
1
1.1114
1.11369
1.05463
0.983194
0.917611
0.862126
0.816285
0.778455
0.746978
0.720473
0.697864
0.678332
0.661258
0.646173
0.63272
0.620626
0.609674
0.599696
0.590552
0.58213
0.574336
0.567093
0.560339
0.554023
0.5481
0.542535
0.537293
0.532345
0.527663
0.523225
0.519008
0.514997
0.511177
0.507535
0.504062
0.500747
0.497579
0.494546
0.491635
0.488836
0.48614
0.483542
0.481037
0.478623
0.476297
0.474053
0.471887
0.469794
0.467768
0.465804
0.463899
0.462055
0.460273
0.45856
0.456918
0.455347
0.453842
0.452396
0.451006
0.449672
0.448403
0.447206
0.446089
0.445053
0.44409
0.44319
0.442342
0.44154
0.440785
0.440078
0.439424
0.438825
0.438277
0.437773
0.437305
0.436867
0.436455
0.43607
0.435715
0.435389
0.435094
0.434826
0.434581
0.434354
0.434142
0.433945
0.433764
0.433601
0.433459
0.43334
0.433244
0.433169
0.433113
0.433071
0.43304
0.433015
0.432996
0.432979
0.432964
0.432951
0.43294
0.43293
0.432921
0.432914
0.432908
0.432904
0.4329
0.432897
0.432894
0.432892
0.43289
0.432888
0.432887
0.432885
0.432884
0.432884
0.432884
0.432884
0.432884
0.432885
0.432886
0.432887
0.432889
0.432891
0.432894
0.432897
0.432901
0.432904
0.432909
0.432913
0.432918
0.432924
0.43293
0.432936
0.432943
0.43295
0.432958
0.432966
0.432974
0.432983
0.432993
0.433003
0.433013
0.433024
0.433036
0.433047
0.43306
0.433073
0.433086
0.4331
0.433115
0.433129
0.433145
0.433161
0.433178
0.433195
0.433212
0.433231
0.43325
0.433269
0.433289
0.433309
0.43333
0.433352
0.433374
0.433397
0.433421
0.433445
0.43347
0.433495
0.433521
0.433548
0.433575
0.433603
0.433631
0.43366
0.43369
0.433721
0.433752
0.433783
0.433816
0.433849
0.433883
0.433917
0.433952
0.433988
0.434025
0.434062
0.4341
0.434139
0.434178
0.434218
0.434259
0.4343
0.434342
0.434385
0.434429
0.434473
0.434518
0.434564
0.434611
0.434658
0.434706
0.434755
0.434805
0.434855
0.434906
0.434958
0.435011
0.435064
0.435118
0.435173
0.435229
0.435285
0.435342
0.4354
0.435459
0.435519
0.435579
0.43564
0.435702
0.435765
0.435828
0.435892
0.435957
0.436023
0.43609
0.436157
0.436225
0.436294
0.436364
0.436434
0.436506
0.436578
0.436651
0.436724
0.436799
0.436874
0.43695
0.437027
0.437105
0.437183
0.437262
0.437342
0.437423
0.437505
0.437587
0.43767
0.437754
0.437839
0.437924
0.43801
0.438097
0.438185
0.438274
0.438363
0.438453
0.438544
0.438636
0.438728
0.438821
0.438915
0.43901
0.439105
0.439201
0.439298
0.439396
0.439494
0.439593
0.439693
0.439794
0.439895
0.439997
0.4401
0.440203
0.440307
0.440412
0.440518
0.440624
0.440731
0.440839
0.440948
0.441057
0.441167
0.441277
0.441388
0.4415
0.441613
0.441726
0.44184
0.441954
0.44207
0.442185
0.442302
0.442419
0.442537
0.442655
0.442774
0.442894
0.443014
0.443135
0.443257
0.443379
0.443502
0.443625
0.443749
0.443873
0.443998
0.444124
0.44425
0.444377
0.444504
0.444632
0.444761
0.44489
0.445019
0.445149
0.44528
0.445411
0.445543
0.445675
0.445808
0.445941
0.446075
0.446209
0.446343
0.446479
0.446614
0.44675
0.446887
0.447024
0.447161
0.447299
0.447437
0.447576
0.447715
0.447855
0.447995
0.448135
0.448276
0.448417
0.448559
0.448701
0.448843
0.448986
0.449129
0.449273
0.449417
0.449561
0.449705
0.44985
0.449995
0.450141
0.450287
0.450433
0.450579
0.450726
0.450873
0.451021
0.451168
0.451316
0.451464
0.451613
0.451761
0.45191
0.452059
0.452209
0.452358
0.452508
0.452658
0.452809
0.452959
0.45311
0.45326
0.453413
0.453563
0.453716
0.453866
0.45402
0.45417
0.454325
0.454474
0.45463
0.454779
0.454937
0.455085
0.455246
0.455391
0.455558
0.455696
0.455872
0.456001
0.456188
0.456309
0.456496
0.456615
0.456794
0.456794
0.456794
1
1.09556
1.14299
1.13308
1.09651
1.0519
1.00773
0.967266
0.931399
0.899998
0.872566
0.848522
0.827324
0.808502
0.79167
0.776517
0.762789
0.750285
0.738837
0.728306
0.718573
0.70954
0.701124
0.693256
0.685881
0.678954
0.672433
0.666282
0.660467
0.654957
0.649725
0.644748
0.640009
0.635491
0.631183
0.627073
0.623148
0.619396
0.615801
0.612347
0.609025
0.605823
0.602736
0.599761
0.596892
0.594124
0.591453
0.588872
0.586376
0.583958
0.581615
0.579344
0.577146
0.575025
0.572986
0.571032
0.569159
0.567364
0.565638
0.563978
0.562387
0.560874
0.559446
0.558111
0.556868
0.55571
0.554625
0.553603
0.552638
0.55173
0.550882
0.550099
0.549381
0.548722
0.548116
0.547552
0.547023
0.546527
0.546063
0.545633
0.545239
0.544878
0.544548
0.544244
0.543961
0.543697
0.543451
0.543226
0.543024
0.54285
0.542703
0.542584
0.542489
0.542416
0.542359
0.542313
0.542275
0.542243
0.542213
0.542185
0.54216
0.542136
0.542114
0.542093
0.542075
0.542058
0.542042
0.542027
0.542013
0.541999
0.541986
0.541973
0.541961
0.541949
0.541937
0.541925
0.541914
0.541904
0.541893
0.541884
0.541874
0.541865