# vtk DataFile Version 2.0
FlowField
ASCII
DATASET STRUCTURED_GRID
DIMENSIONS 400 1 50
POINTS 20000 float
0 0 0
0.08 0 0
0.16 0 0
0.24 0 0
0.32 0 0
0.4 0 0
0.48 0 0
0.56 0 0
0.64 0 0
0.72 0 0
0.8 0 0
0.88 0 0
0.96 0 0
1.04 0 0
1.12 0 0
1.2 0 0
1.28 0 0
1.36 0 0
1.44 0 0
1.52 0 0
1.6 0 0
1.68 0 0
1.76 0 0
1.84 0 0
1.92 0 0
2 0 0
2.08 0 0
2.16 0 0
2.24 0 0
2.32 0 0
2.4 0 0
2.48 0 0
2.56 0 0
2.64 0 0
2.72 0 0
2.8 0 0
2.88 0 0
2.96 0 0
3.04 0 0
3.12 0 0
3.2 0 0
3.28 0 0
3.36 0 0
3.44 0 0
3.52 0 0
3.6 0 0
3.68 0 0
3.76 0 0
3.84 0 0
3.92 0 0
4 0 0
4.08 0 0
4.16 0 0
4.24 0 0
4.32 0 0
4.4 0 0
4.48 0 0
4.56 0 0
4.64 0 0
4.72 0 0
4.8 0 0
4.88 0 0
4.96 0 0
5.04 0 0
5.12 0 0
5.2 0 0
5.28 0 0
5.36 0 0
5.44 0 0
5.52 0 0
5.6 0 0
5.68 0 0
5.76 0 0
5.84 0 0
5.92 0 0
6 0 0
6.08 0 0
6.16 0 0
6.24 0 0
6.32 0 0
6.4 0 0
6.48 0 0
6.56 0 0
6.64 0 0
6.72 0 0
6.8 0 0
6.88 0 0
6.96 0 0
7.04 0 0
7.12 0 0
7.2 0 0
7.28 0 0
7.36 0 0
7.44 0 0
7.52 0 0
7.6 0 0
7.68 0 0
7.76 0 0
7.84 0 0
7.92 0 0
8 0 0
8.08 0 0
8.16 0 0
8.24 0 0
8.32 0 0
8.4 0 0
8.48 0 0
8.56 0 0
8.64 0 0
8.72 0 0
8.8 0 0
8.88 0 0
8.96 0 0
9.04 0 0
9.12 0 0
9.2 0 0
9.28 0 0
9.36 0 0
9.44 0 0
9.52 0 0
9.6 0 0
9.68 0 0
9.76 0 0
9.84 0 0
9.92 0 0
10 0 0
10.08 0 0
10.16 0 0
10.24 0 0
10.32 0 0
10.4 0 0
10.48 0 0
10.56 0 0
10.64 0 0
10.72 0 0
10.8 0 0
10.88 0 0
10.96 0 0
11.04 0 0
11.12 0 0
11.2 0 0
11.28 0 0
11.36 0 0
11.44 0 0
11.52 0 0
11.6 0 0
11.68 0 0
11.76 0 0
11.84 0 0
11.92 0 0
12 0 0
12.08 0 0
12.16 0 0
12.24 0 0
12.32 0 0
12.4 0 0
12.48 0 0
12.56 0 0
12.64 0 0
12.72 0 0
12.8 0 0
12.88 0 0
12.96 0 0
13.04 0 0
13.12 0 0
13.2 0 0
13.28 0 0
13.36 0 0
13.44 0 0
13.52 0 0
13.6 0 0
13.68 0 0
13.76 0 0
13.84 0 0
13.92 0 0
14 0 0
14.08 0 0
14.16 0 0
14.24 0 0
14.32 0 0
14.4 0 0
14.48 0 0
14.56 0 0
14.64 0 0
14.72 0 0
14.8 0 0
14.88 0 0
14.96 0 0
15.04 0 0
15.12 0 0
15.2 0 0
15.28 0 0
15.36 0 0
15.44 0 0
15.52 0 0
15.6 0 0
15.68 0 0
15.76 0 0
15.84 0 0
15.92 0 0
16 0 0
16.08 0 0
16.16 0 0
16.24 0 0
16.32 0 0
16.4 0 0
16.48 0 0
16.56 0 0
16.64 0 0
16.72 0 0
16.8 0 0
16.88 0 0
16.96 0 0
17.04 0 0
17.12 0 0
17.2 0 0
17.28 0 0
17.36 0 0
17.44 0 0
17.52 0 0
17.6 0 0
17.68 0 0
17.76 0 0
17.84 0 0
17.92 0 0
18 0 0
18.08 0 0
18.16 0 0
18.24 0 0
18.32 0 0
18.4 0 0
18.48 0 0
18.56 0 0
18.64 0 0
18.72 0 0
18.8 0 0
18.88 0 0
18.96 0 0
19.04 0 0
19.12 0 0
19.2 0 0
19.28 0 0
19.36 0 0
19.44 0 0
19.52 0 0
19.6 0 0
19.68 0 0
19.76 0 0
19.84 0 0
19.92 0 0
20 0 0
20.08 0 0
20.16 0 0
20.24 0 0
20.32 0 0
20.4 0 0
20.48 0 0
20.56 0 0
20.64 0 0
20.72 0 0
20.8 0 0
20.88 0 0
20.96 0 0
21.04 0 0
21.12 0 0
21.2 0 0
21.28 0 0
21.36 0 0
21.44 0 0
21.52 0 0
21.6 0 0
21.68 0 0
21.76 0 0
21.84 0 0
21.92 0 0
22 0 0
22.08 0 0
22.16 0 0
22.24 0 0
22.32 0 0
22.4 0 0
22.48 0 0
22.56 0 0
22.64 0 0
22.72 0 0
22.8 0 0
22.88 0 0
22.96 0 0
23.04 0 0
23.12 0 0
23.2 0 0
23.28 0 0
23.36 0 0
23.44 0 0
23.52 0 0
23.6 0 0
23.68 0 0
23.76 0 0
23.84 0 0
23.92 0 0
24 0 0
24.08 0 0
24.16 0 0
24.24 0 0
24.32 0 0
24.4 0 0
24.48 0 0
24.56 0 0
24.64 0 0
24.72 0 0
24.8 0 0
24.88 0 0
24.96 0 0
25.04 0 0
25.12 0 0
25.2 0 0
25.28 0 0
25.36 0 0
25.44 0 0
25.52 0 0
25.6 0 0
25.68 0 0
25.76 0 0
25.84 0 0
25.92 0 0
26 0 0
26.08 0 0
26.16 0 0
26.24 0 0
26.32 0 0
26.4 0 0
26.48 0 0
26.56 0 0
26.64 0 0
26.72 0 0
26.8 0 0
26.88 0 0
26.96 0 0
27.04 0 0
27.12 0 0
27.2 0 0
27.28 0 0
27.36 0 0
27.44 0 0
27.52 0 0
27.6 0 0
27.68 0 0
27.76 0 0
27.84 0 0
27.92 0 0
28 0 0
28.08 0 0
28.16 0 0
28.24 0 0
28.32 0 0
28.4 0 0
28.48 0 0
28.56 0 0
28.64 0 0
28.72 0 0
28.8 0 0
28.88 0 0
28.96 0 0
29.04 0 0
29.12 0 0
29.2 0 0
29.28 0 0
29.36 0 0
29.44 0 0
29.52 0 0
29.6 0 0
29.68 0 0
29.76 0 0
29.84 0 0
29.92 0 0
30 0 0
30.08 0 0
30.16 0 0
30.24 0 0
30.32 0 0
30.4 0 0
30.48 0 0
30.56 0 0
30.64 0 0
30.72 0 0
30.8 0 0
30.88 0 0
30.96 0 0
31.04 0 0
31.12 0 0
31.2 0 0
31.28 0 0
31.36 0 0
31.44 0 0
31.52 0 0
31.6 0 0
31.68 0 0
31.76 0 0
31.84 0 0
31.92 0 0
0 0.02 0
0.08 0.02 0
0.16 0.02 0
0.24 0.02 0
0.32 0.02 0
0.4 0.02 0
0.48 0.02 0
0.56 0.02 0
0.64 0.02 0
0.72 0.02 0
0.8 0.02 0
0.88 0.02 0
0.96 0.02 0
1.04 0.02 0
1.12 0.02 0
1.2 0.02 0
1.28 0.02 0
1.36 0.02 0
1.44 0.02 0
1.52 0.02 0
1.6 0.02 0
1.68 0.02 0
1.76 0.02 0
1.84 0.02 0
1.92 0.02 0
2 0.02 0
2.08 0.02 0
2.16 0.02 0
2.24 0.02 0
2.32 0.02 0
2.4 0.02 0
2.48 0.02 0
2.56 0.02 0
2.64 0.02 0
2.72 0.02 0
2.8 0.02 0
2.88 0.02 0
2.96 0.02 0
3.04 0.02 0
3.12 0.02 0
3.2 0.02 0
3.28 0.02 0
3.36 0.02 0
3.44 0.02 0
3.52 0.02 0
3.6 0.02 0
3.68 0.02 0
3.76 0.02 0
3.84 0.02 0
3.92 0.02 0
4 0.02 0
4.08 0.02 0
4.16 0.02 0
4.24 0.02 0
4.32 0.02 0
4.4 0.02 0
4.48 0.02 0
4.56 0.02 0
4.64 0.02 0
4.72 0.02 0
4.8 0.02 0
4.88 0.02 0
4.96 0.02 0
5.04 0.02 0
5.12 0.02 0
5.2 0.02 0
5.28 0.02 0
5.36 0.02 0
5.44 0.02 0
5.52 0.02 0
5.6 0.02 0
5.68 0.02 0
5.76 0.02 0
5.84 0.02 0
5.92 0.02 0
6 0.02 0
6.08 0.02 0
6.16 0.02 0
6.24 0.02 0
6.32 0.02 0
6.4 0.02 0
6.48 0.02 0
6.56 0.02 0
6.64 0.02 0
6.72 0.02 0
6.8 0.02 0
6.88 0.02 0
6.96 0.02 0
7.04 0.02 0
7.12 0.02 0
7.2 0.02 0
7.28 0.02 0
7.36 0.02 0
7.44 0.02 0
7.52 0.02 0
7.6 0.02 0
7.68 0.02 0
7.76 0.02 0
7.84 0.02 0
7.92 0.02 0
8 0.02 0
8.08 0.02 0
8.16 0.02 0
8.24 0.02 0
8.32 0.02 0
8.4 0.02 0
8.48 0.02 0
8.56 0.02 0
8.64 0.02 0
8.72 0.02 0
8.8 0.02 0
8.88 0.02 0
8.96 0.02 0
9.04 0.02 0
9.12 0.02 0
9.2 0.02 0
9.28 0.02 0
9.36 0.02 0
9.44 0.02 0
9.52 0.02 0
9.6 0.02 0
9.68 0.02 0
9.76 0.02 0
9.84 0.02 0
9.92 0.02 0
10 0.02 0
10.08 0.02 0
10.16 0.02 0
10.24 0.02 0
10.32 0.02 0
10.4 0.02 0
10.48 0.02 0
10.56 0.02 0
10.64 0.02 0
10.72 0.02 0
10.8 0.02 0
10.88 0.02 0
10.96 0.02 0
11.04 0.02 0
11.12 0.02 0
11.2 0.02 0
11.28 0.02 0
11.36 0.02 0
11.44 0.02 0
11.52 0.02 0
11.6 0.02 0
11.68 0.02 0
11.76 0.02 0
11.84 0.02 0
11.92 0.02 0
12 0.02 0
12.08 0.02 0
12.16 0.02 0
12.24 0.02 0
12.32 0.02 0
12.4 0.02 0
12.48 0.02 0
12.56 0.02 0
12.64 0.02 0
12.72 0.02 0
12.8 0.02 0
12.88 0.02 0
12.96 0.02 0
13.04 0.02 0
13.12 0.02 0
13.2 0.02 0
13.28 0.02 0
13.36 0.02 0
13.44 0.02 0
13.52 0.02 0
13.6 0.02 0
13.68 0.02 0
13.76 0.02 0
13.84 0.02 0
13.92 0.02 0
14 0.02 0
14.08 0.02 0
14.16 0.02 0
14.24 0.02 0
14.32 0.02 0
14.4 0.02 0
14.48 0.02 0
14.56 0.02 0
14.64 0.02 0
14.72 0.02 0
14.8 0.02 0
14.88 0.02 0
14.96 0.02 0
15.04 0.02 0
15.12 0.02 0
15.2 0.02 0
15.28 0.02 0
15.36 0.02 0
15.44 0.02 0
15.52 0.02 0
15.6 0.02 0
15.68 0.02 0
15.76 0.02 0
15.84 0.02 0
15.92 0.02 0
16 0.02 0
16.08 0.02 0
16.16 0.02 0
16.24 0.02 0
16.32 0.02 0
16.4 0.02 0
16.48 0.02 0
16.56 0.02 0
16.64 0.02 0
16.72 0.02 0
16.8 0.02 0
16.88 0.02 0
16.96 0.02 0
17.04 0.02 0
17.12 0.02 0
17.2 0.02 0
17.28 0.02 0
17.36 0.02 0
17.44 0.02 0
17.52 0.02 0
17.6 0.02 0
17.68 0.02 0
17.76 0.02 0
17.84 0.02 0
17.92 0.02 0
18 0.02 0
18.08 0.02 0
18.16 0.02 0
18.24 0.02 0
18.32 0.02 0
18.4 0.02 0
18.48 0.02 0
18.56 0.02 0
18.64 0.02 0
18.72 0.02 0
18.8 0.02 0
18.88 0.02 0
18.96 0.02 0
19.04 0.02 0
19.12 0.02 0
19.2 0.02 0
19.28 0.02 0
19.36 0.02 0
19.44 0.02 0
19.52 0.02 0
19.6 0.02 0
19.68 0.02 0
19.76 0.02 0
19.84 0.02 0
19.92 0.02 0
20 0.02 0
20.08 0.02 0
20.16 0.02 0
20.24 0.02 0
20.32 0.02 0
20.4 0.02 0
20.48 0.02 0
20.56 0.02 0
20.64 0.02 0
20.72 0.02 0
20.8 0.02 0
20.88 0.02 0
20.96 0.02 0
21.04 0.02 0
21.12 0.02 0
21.2 0.02 0
21.28 0.02 0
21.36 0.02 0
21.44 0.02 0
21.52 0.02 0
21.6 0.02 0
21.68 0.02 0
21.76 0.02 0
21.84 0.02 0
21.92 0.02 0
22 0.02 0
22.08 0.02 0
22.16 0.02 0
22.24 0.02 0
22.32 0.02 0
22.4 0.02 0
22.48 0.02 0
22.56 0.02 0
22.64 0.02 0
22.72 0.02 0
22.8 0.02 0
22.88 0.02 0
22.96 0.02 0
23.04 0.02 0
23.12 0.02 0
23.2 0.02 0
23.28 0.02 0
23.36 0.02 0
23.44 0.02 0
23.52 0.02 0
23.6 0.02 0
23.68 0.02 0
23.76 0.02 0
23.84 0.02 0
23.92 0.02 0
24 0.02 0
24.08 0.02 0
24.16 0.02 0
24.24 0.02 0
24.32 0.02 0
24.4 0.02 0
24.48 0.02 0
24.56 0.02 0
24.64 0.02 0
24.72 0.02 0
24.8 0.02 0
24.88 0.02 0
24.96 0.02 0
25.04 0.02 0
25.12 0.02 0
25.2 0.02 0
25.28 0.02 0
25.36 0.02 0
25.44 0.02 0
25.52 0.02 0
25.6 0.02 0
25.68 0.02 0
25.76 0.02 0
25.84 0.02 0
25.92 0.02 0
26 0.02 0
26.08 0.02 0
26.16 0.02 0
26.24 0.02 0
26.32 0.02 0
26.4 0.02 0
26.48 0.02 0
26.56 0.02 0
26.64 0.02 0
26.72 0.02 0
26.8 0.02 0
26.88 0.02 0
26.96 0.02 0
27.04 0.02 0
27.12 0.02 0
27.2 0.02 0
27.28 0.02 0
27.36 0.02 0
27.44 0.02 0
27.52 0.02 0
27.6 0.02 0
27.68 0.02 0
27.76 0.02 0
27.84 0.02 0
27.92 0.02 0
28 0.02 0
28.08 0.02 0
28.16 0.02 0
28.24 0.02 0
28.32 0.02 0
28.4 0.02 0
28.48 0.02 0
28.56 0.02 0
28.64 0.02 0
28.72 0.02 0
28.8 0.02 0
28.88 0.02 0
28.96 0.02 0
29.04 0.02 0
29.12 0.02 0
29.2 0.02 0
29.28 0.02 0
29.36 0.02 0
29.44 0.02 0
29.52 0.02 0
29.6 0.02 0
29.68 0.02 0
29.76 0.02 0
29.84 0.02 0
29.92 0.02 0
30 0.02 0
30.08 0.02 0
30.16 0.02 0
30.24 0.02 0
30.32 0.02 0
30.4 0.02 0
30.48 0.02 0
30.56 0.02 0
30.64 0.02 0
30.72 0.02 0
30.8 0.02 0
30.88 0.02 0
30.96 0.02 0
31.04 0.02 0
31.12 0.02 0
31.2 0.02 0
31.28 0.02 0
31.36 0.02 0
31.44 0.02 0
31.52 0.02 0
31.6 0.02 0
31.68 0.02 0
31.76 0.02 0
31.84 0.02 0
31.92 0.02 0
0 0.04 0
0.08 0.04 0
0.16 0.04 0
0.24 0.04 0
0.32 0.04 0
0.4 0.04 0
0.48 0.04 0
0.56 0.04 0
0.64 0.04 0
0.72 0.04 0
0.8 0.04 0
0.88 0.04 0
0.96 0.04 0
1.04 0.04 0
1.12 0.04 0
1.2 0.04 0
1.28 0.04 0
1.36 0.04 0
1.44 0.04 0
1.52 0.04 0
1.6 0.04 0
1.68 0.04 0
1.76 0.04 0
1.84 0.04 0
1.92 0.04 0
2 0.04 0
2.08 0.04 0
2.16 0.04 0
2.24 0.04 0
2.32 0.04 0
2.4 0.04 0
2.48 0.04 0
2.56 0.04 0
2.64 0.04 0
2.72 0.04 0
2.8 0.04 0
2.88 0.04 0
2.96 0.04 0
3.04 0.04 0
3.12 0.04 0
3.2 0.04 0
3.28 0.04 0
3.36 0.04 0
3.44 0.04 0
3.52 0.04 0
3.6 0.04 0
3.68 0.04 0
3.76 0.04 0
3.84 0.04 0
3.92 0.04 0
4 0.04 0
4.08 0.04 0
4.16 0.04 0
4.24 0.04 0
4.32 0.04 0
4.4 0.04 0
4.48 0.04 0
4.56 0.04 0
4.64 0.04 0
4.72 0.04 0
4.8 0.04 0
4.88 0.04 0
4.96 0.04 0
5.04 0.04 0
5.12 0.04 0
5.2 0.04 0
5.28 0.04 0
5.36 0.04 0
5.44 0.04 0
5.52 0.04 0
5.6 0.04 0
5.68 0.04 0
5.76 0.04 0
5.84 0.04 0
5.92 0.04 0
6 0.04 0
6.08 0.04 0
6.16 0.04 0
6.24 0.04 0
6.32 0.04 0
6.4 0.04 0
6.48 0.04 0
6.56 0.04 0
6.64 0.04 0
6.72 0.04 0
6.8 0.04 0
6.88 0.04 0
6.96 0.04 0
7.04 0.04 0
7.12 0.04 0
7.2 0.04 0
7.28 0.04 0
7.36 0.04 0
7.44 0.04 0
7.52 0.04 0
7.6 0.04 0
7.68 0.04 0
7.76 0.04 0
7.84 0.04 0
[...]
POINT_DATA 20000

SCALARS v float 1
LOOKUP_TABLE default
0
0
0
0
0
0
0
0
0
0
0
0
0
0
0
0
0
0
0
0
0
0
0
0
0
0
0
0
0
0
0
0
0
0
0
0
0
0
0
0
0
0
0
0
0
0
0
0
0
0
0
0
0
0
0
0
0
0
0
0
0
0
0
0
0
0
0
0
0
0
0
0
0
0
0
0
0
0
0
0
0
0
0
0
0
0
0
0
0
0
0
0
0
0
0
0
0
0
0
0
0
0
0
0
0
0
0
0
0
0
0
0
0
0
0
0
0
0
0
0
0
0
0
0
0
0
0
0
0
0
0
0
0
0
0
0
0
0
0
0
0
0
0
0
0
0
0
0
0
0
0
0
0
0
0
0
0
0
0
0
0
0
0
0
0
0
0
0
0
0
0
0
0
0
0
0
0
0
0
0
0
0
0
0
0
0
0
0
0
0
0
0
0
0
0
0
0
0
0
0
0
0
0
0
0
0
0
0
0
0
0
0
0
0
0
0
0
0
0
0
0
0
0
0
0
0
0
0
0
0
0
0
0
0
0
0
0
0
0
0
0
0
0
0
0
0
0
0
0
0
0
0
0
0
0
0
0
0
0
0
0
0
0
0
0
0
0
0
0
0
0
0
0
0
0
0
0
0
0
0
0
0
0
0
0
0
0
0
0
0
0
0
0
0
0
0
0
0
0
0
0
0
0
0
0
0
0
0
0
0
0
0
0
0
0
0
0
0
0
0
0
0
0
0
0
0
0
0
0
0
0
0
0
0
0
0
0
0
0
0
0
0
0
0
0
0
0
0
0
0
0
0
0
0
0
0
0
0
0
0
0
0
0
0
0
0
0
0
0
0
0
0
0
0
0
0
0
0
0
0
0
0
0
0
0
0
0
0
0
0
0
0
0
0
0
0
0
0
0
0
-0.123222
0.123222
0.0537864
0.0194333
0.00877732
0.00508382
0.0033818
0.00243129
0.00184143
0.00145018
0.00117789
0.000981074
0.000834194
0.000721486
0.000632836
0.000561558
0.000503123
0.000454394
0.000413155
0.000377809
0.000347182
0.000320396
0.00029678
0.000275816
0.000257094
0.000240285
0.000225122
0.000211385
0.000198893
0.000187494
0.00017706
0.00016748
0.000158661
0.000150521
0.000142992
0.000136009
0.000129521
0.000123478
0.00011784
0.000112571
0.000107637
0.000103011
9.86666e-05
9.45794e-05
9.07282e-05
8.70936e-05
8.36583e-05
8.04072e-05
7.73273e-05
7.4407e-05
7.16357e-05
6.90034e-05
6.65004e-05
6.41173e-05
6.18452e-05
5.96761e-05
5.76031e-05
5.56206e-05
5.3724e-05
5.1909e-05
5.01718e-05
4.85077e-05
4.69116e-05
4.53783e-05
4.39024e-05
4.24796e-05
4.11071e-05
3.97834e-05
3.85077e-05
3.72794e-05
3.60969e-05
3.49578e-05
3.38588e-05
3.27966e-05
3.17681e-05
3.07708e-05
2.98036e-05
2.88662e-05
2.79599e-05
2.70855e-05
2.6243e-05
2.543e-05
2.46419e-05
2.38734e-05
2.3121e-05
2.23841e-05
2.16652e-05
2.09678e-05
2.02942e-05
1.96444e-05
1.90165e-05
1.84078e-05
1.7816e-05
1.72389e-05
1.66742e-05
1.61203e-05
1.55768e-05
1.50462e-05
1.45333e-05
1.40424e-05
1.35739e-05
1.31226e-05
1.26794e-05
1.2236e-05
1.17896e-05
1.13446e-05
1.09099e-05
1.04935e-05
1.00984e-05
9.72167e-06
9.35711e-06
8.99874e-06
8.64322e-06
8.28969e-06
7.93849e-06
7.5905e-06
7.24794e-06
6.91514e-06
6.59775e-06
6.29955e-06
6.01881e-06
5.74703e-06
5.47207e-06
5.1845e-06
4.88344e-06
4.57799e-06
4.28273e-06
4.00992e-06
3.76289e-06
3.53463e-06
3.312e-06
3.08264e-06
2.84041e-06
2.58648e-06
2.32687e-06
2.06872e-06
1.81807e-06
1.57936e-06
1.35534e-06
1.14574e-06
9.45083e-07
7.41821e-07
5.21349e-07
2.72969e-07
-2.50995e-09
-2.89749e-07
-5.6398e-07
-8.03073e-07
-1.00048e-06
-1.17127e-06
-1.34651e-06
-1.55788e-06
-1.82043e-06
-2.12319e-06
-2.43349e-06
-2.71329e-06
-2.93894e-06
-3.11371e-06
-3.26618e-06
-3.43542e-06
-3.65078e-06
-3.91714e-06
-4.213e-06
-4.50191e-06
-4.75087e-06
-4.94598e-06
-5.09774e-06
-5.23413e-06
-5.38578e-06
-5.57122e-06
-5.78916e-06
-6.021e-06
-6.24114e-06
-6.42952e-06
-6.58008e-06
-6.70191e-06
-6.81336e-06
-6.93269e-06
-7.07003e-06
-7.2241e-06
-7.38433e-06
-7.53677e-06
-7.67056e-06
-7.782e-06
-7.875e-06
-7.9581e-06
-8.04015e-06
-8.12651e-06
-8.21741e-06
-8.30876e-06
-8.39461e-06
-8.47001e-06
-8.53296e-06
-8.5849e-06
-8.62972e-06
-8.67195e-06
-8.71506e-06
-8.76036e-06
-8.80691e-06
-8.85224e-06
-8.89352e-06
-8.92862e-06
-8.95675e-06
-8.97856e-06
-8.99575e-06
-9.01038e-06
-9.02427e-06
-9.03858e-06
-9.05363e-06
-9.06909e-06
-9.08426e-06
-9.09838e-06
-9.11094e-06
-9.12178e-06
-9.13106e-06
-9.13921e-06
-9.14675e-06
-9.15414e-06
-9.16172e-06
-9.16966e-06
-9.17795e-06
-9.18648e-06
-9.19512e-06
-9.20371e-06
-9.21215e-06
-9.22041e-06
-9.22848e-06
-9.23642e-06
-9.24427e-06
-9.2521e-06
-9.25995e-06
-9.26783e-06
-9.27576e-06
-9.28373e-06
-9.29171e-06
-9.29969e-06
-9.30766e-06
-9.3156e-06
-9.32351e-06
-9.33139e-06
-9.33924e-06
-9.34706e-06
-9.35487e-06
-9.36266e-06
-9.37044e-06
-9.37821e-06
-9.38597e-06
-9.39371e-06
-9.40144e-06
-9.40915e-06
-9.41685e-06
-9.42453e-06
-9.43219e-06
-9.43984e-06
-9.44746e-06
-9.45507e-06
-9.46265e-06
-9.47022e-06
-9.47778e-06
-9.48531e-06
-9.49282e-06
-9.50032e-06
-9.50779e-06
-9.51525e-06
-9.52269e-06
-9.53011e-06
-9.5375e-06
-9.54488e-06
-9.55224e-06
-9.55958e-06
-9.5669e-06
-9.57419e-06
-9.58147e-06
-9.58873e-06
-9.59596e-06
-9.60318e-06
-9.61037e-06
-9.61754e-06
-9.62469e-06
-9.63182e-06
-9.63893e-06
-9.64601e-06
-9.65308e-06
-9.66012e-06
-9.66714e-06
-9.67414e-06
-9.68111e-06
-9.68806e-06
-9.69499e-06
-9.7019e-06
-9.70879e-06
-9.71565e-06
-9.72248e-06
-9.7293e-06
-9.73609e-06
-9.74286e-06
-9.74961e-06
-9.75633e-06
-9.76303e-06
-9.7697e-06
-9.77635e-06
-9.78298e-06
-9.78958e-06
-9.79616e-06
-9.80271e-06
-9.80924e-06
-9.81575e-06
-9.82223e-06
-9.82868e-06
-9.83512e-06
-9.84152e-06
-9.84791e-06
-9.85426e-06
-9.8606e-06
-9.8669e-06
-9.87319e-06
-9.87944e-06
-9.88568e-06
-9.89188e-06
-9.89806e-06
-9.90421e-06
-9.91035e-06
-9.91644e-06
-9.92253e-06
-9.92857e-06
-9.93461e-06
-9.94059e-06
-9.94659e-06
-9.95251e-06
-9.95846e-06
-9.96432e-06
-9.97023e-06
-9.97602e-06
-9.98189e-06
-9.98761e-06
-9.99345e-06
-9.9991e-06
-1.00049e-05
-1.00105e-05
-1.00163e-05
-1.00217e-05
-1.00275e-05
-1.00329e-05
-1.00387e-05
-1.00439e-05
-1.00497e-05
-1.00548e-05
-1.00607e-05
-1.00656e-05
-1.00715e-05
-1.00763e-05
-1.00823e-05
-1.00868e-05
-1.0093e-05
-1.00972e-05
-1.01037e-05
-1.01075e-05
-1.01143e-05
-1.01175e-05
-1.01249e-05
-1.01275e-05
-1.01355e-05
-1.01372e-05
-1.01461e-05
-1.01468e-05
-1.01569e-05
-1.01561e-05
-1.01678e-05
-1.01652e-05
-1.0179e-05
-1.0174e-05
-1.01905e-05
-1.01825e-05
-1.02026e-05
-1.01906e-05
-1.02155e-05
-1.01982e-05
-1.02294e-05
-1.02053e-05
-1.02448e-05
-1.02115e-05
-1.02621e-05
-1.02169e-05
-1.02819e-05
-1.02212e-05
-1.03044e-05
-1.02248e-05
-1.03289e-05
-1.02286e-05
-1.03525e-05
-1.02349e-05
-1.03666e-05
-1.02467e-05
-1.03471e-05
-1.02644e-05
-1.02065e-05
-1.02601e-05
-9.21352e-06
-9.37299e-06
-9.37299e-06
-0.142148
0.142148
0.100998
0.0539066
0.0302499
0.0189116
0.0129207
0.00940599
0.00717293
0.00566992
0.00461334
0.00384426
0.00326771
0.00282415
0.00247493
0.00219423
0.00196437
0.00177303
0.00161145
0.00147326
0.00135379
0.00124951
0.00115776
0.00107646
0.00100395
0.000938943
0.00088037
0.000827364
0.000779205
0.000735295
0.000695127
0.000658273
0.000624365
0.000593085
0.000564159
0.000537347
0.000512438
0.000489251
0.000467623
0.000447414
0.000428498
0.000410765
0.000394112
0.000378448
0.000363692
0.00034977
0.000336616
0.000324172
0.000312388
0.000301217
0.000290619
0.000280553
0.000270981
0.000261869
0.000253182
0.000244891
0.00023697
0.000229398
0.000222156
0.000215227
0.000208594
0.000202239
0.000196142
0.000190284
0.000184648
0.000179218
0.000173986
0.000168945
0.000164089
0.000159415
0.000154913
0.000150575
0.000146388
0.000142341
0.000138425
0.00013463
0.000130955
0.000127397
0.000123959
0.000120641
0.000117438
0.000114342
0.000111337
0.000108409
0.000105549
0.000102757
0.000100042
9.74109e-05
9.48692e-05
9.2414e-05
9.00377e-05
8.77315e-05
8.54879e-05
8.33003e-05
8.11626e-05
7.90711e-05
7.70267e-05
7.5038e-05
7.31173e-05
7.12726e-05
6.94999e-05
6.77802e-05
6.60875e-05
6.44024e-05
6.27227e-05
6.10652e-05
5.94552e-05
5.79118e-05
5.64382e-05
5.50216e-05
5.36429e-05
5.22859e-05
5.09428e-05
4.96128e-05
4.82981e-05
4.7003e-05
4.57355e-05
4.45083e-05
4.33347e-05
4.22199e-05
4.11526e-05
4.0105e-05
3.90445e-05
3.79516e-05
3.68326e-05
3.57189e-05
3.46509e-05
3.3656e-05
3.27337e-05
3.1857e-05
3.09867e-05
3.00913e-05
2.91595e-05
2.81998e-05
2.72324e-05
2.62778e-05
2.53518e-05
2.44642e-05
2.3618e-05
2.28064e-05
2.20075e-05
2.11864e-05
2.0306e-05
1.93472e-05
1.83262e-05
1.72955e-05
1.63235e-05
1.54592e-05
1.47014e-05
1.39918e-05
1.324e-05
1.23697e-05
1.13616e-05
1.02684e-05
9.19046e-06
8.22588e-06
7.41888e-06
6.73639e-06
6.08502e-06
5.35958e-06
4.4973e-06
3.5093e-06
2.47363e-06
1.49495e-06
6.52803e-07
-3.49452e-08
-6.16165e-07
-1.17641e-06
-1.79496e-06
-2.50766e-06
-3.29389e-06
-4.09143e-06
-4.82939e-06
-5.4616e-06
-5.98488e-06
-6.43553e-06
-6.86834e-06
-7.32994e-06
-7.83936e-06
-8.38349e-06
-8.92721e-06
-9.43169e-06
-9.87146e-06
-1.02431e-05
-1.05631e-05
-1.08576e-05
-1.11499e-05
-1.14511e-05
-1.17579e-05
-1.20561e-05
-1.23291e-05
-1.25652e-05
-1.27621e-05
-1.29268e-05
-1.30718e-05
-1.32098e-05
-1.33492e-05
-1.34915e-05
-1.36325e-05
-1.37645e-05
-1.38798e-05
-1.39737e-05
-1.40455e-05
-1.40986e-05
-1.41388e-05
-1.41724e-05
-1.42043e-05
-1.42371e-05
-1.42714e-05
-1.43056e-05
-1.43376e-05
-1.43655e-05
-1.43881e-05
-1.44053e-05
-1.44181e-05
-1.44279e-05
-1.44363e-05
-1.44447e-05
-1.44538e-05
-1.44641e-05
-1.44753e-05
-1.44871e-05
-1.44991e-05
-1.45108e-05
-1.45221e-05
-1.45327e-05
-1.45429e-05
-1.45527e-05
-1.45624e-05
-1.4572e-05
-1.45818e-05
-1.45917e-05
-1.46018e-05
-1.46119e-05
-1.46222e-05
-1.46325e-05
-1.46427e-05
-1.46528e-05
-1.46629e-05
-1.46729e-05
-1.46829e-05
-1.46928e-05
-1.47027e-05
-1.47126e-05
-1.47225e-05
-1.47323e-05
-1.47422e-05
-1.4752e-05
-1.47619e-05
-1.47717e-05
-1.47815e-05
-1.47913e-05
-1.4801e-05
-1.48107e-05
-1.48204e-05
-1.48301e-05
-1.48398e-05
-1.48494e-05
-1.4859e-05
-1.48686e-05
-1.48781e-05
-1.48877e-05
-1.48972e-05
-1.49067e-05
-1.49161e-05
-1.49256e-05
-1.4935e-05
-1.49444e-05
-1.49537e-05
-1.4963e-05
-1.49723e-05
-1.49816e-05
-1.49909e-05
-1.50001e-05
-1.50093e-05
-1.50185e-05
-1.50276e-05
-1.50367e-05
-1.50458e-05
-1.50548e-05
-1.50639e-05
-1.50729e-05
-1.50818e-05
-1.50908e-05
-1.50997e-05
-1.51086e-05
-1.51174e-05
-1.51262e-05
-1.5135e-05
-1.51438e-05
-1.51525e-05
-1.51612e-05
-1.51698e-05
-1.51785e-05
-1.51871e-05
-1.51956e-05
-1.52042e-05
-1.52127e-05
-1.52211e-05
-1.52296e-05
-1.5238e-05
-1.52463e-05
-1.52547e-05
-1.5263e-05
-1.52712e-05
-1.52795e-05
-1.52877e-05
-1.52959e-05
-1.5304e-05
-1.53121e-05
-1.53201e-05
-1.53282e-05
-1.53362e-05
-1.53441e-05
-1.5352e-05
-1.53599e-05
-1.53678e-05
-1.53756e-05
-1.53833e-05
-1.53911e-05
-1.53988e-05
-1.54065e-05
-1.54141e-05
-1.54217e-05
-1.54292e-05
-1.54368e-05
-1.54442e-05
-1.54517e-05
-1.5459e-05
-1.54665e-05
-1.54737e-05
-1.54811e-05
-1.54882e-05
-1.54956e-05
-1.55025e-05
-1.55099e-05
-1.55167e-05
-1.55241e-05
-1.55307e-05
-1.55382e-05
-1.55446e-05
-1.55521e-05
-1.55583e-05
-1.55659e-05
-1.55717e-05
-1.55795e-05
-1.5585e-05
-1.55931e-05
-1.55981e-05
-1.56065e-05
-1.5611e-05
-1.56199e-05
-1.56237e-05
-1.56332e-05
-1.56361e-05
-1.56466e-05
-1.56483e-05
-1.566e-05
-1.56602e-05
-1.56735e-05
-1.56717e-05
-1.56873e-05
-1.56829e-05
-1.57015e-05
-1.56937e-05
-1.57162e-05
-1.5704e-05
-1.57317e-05
-1.57137e-05
-1.57483e-05
-1.57228e-05
-1.57664e-05
-1.57312e-05
-1.57865e-05
-1.57386e-05
-1.58093e-05
-1.57448e-05
-1.5836e-05
-1.57494e-05
-1.58678e-05
-1.5752e-05
-1.59063e-05
-1.57521e-05
-1.59534e-05
-1.57495e-05
-1.60098e-05
-1.5745e-05
-1.60739e-05
-1.57415e-05
-1.61366e-05
-1.57454e-05
-1.61715e-05
-1.57641e-05
-1.61055e-05
-1.57912e-05
-1.56777e-05
-1.57144e-05
-1.29564e-05
-1.34664e-05
-1.34664e-05
-0.122222
0.122222
0.121657
0.0822614
0.053988
0.036857
0.0263859
0.0197088
0.0152578
0.0121722
0.00996027
0.00832837
0.00709328
0.00613679
0.00538036
0.00477062
0.00427053
0.00385395
0.0035021
0.00320129
0.00294134
0.0027146
0.0025152
0.00233861
0.00218122
0.00204016
0.00191313
0.0017982
0.00169382
0.00159868
0.00151166
0.00143183
0.0013584
0.00129066
0.00122803
0.00116998
0.00111605
0.00106585
0.00101903
0.000975289
0.000934344
0.000895956
0.000859907
0.000826
0.000794058
0.000763922
0.000735453
0.000708525
0.000683028
0.00065886
0.00063593
0.000614152
0.000593443
0.000573726
0.00055493
0.000536993
0.00051986
0.000503483
0.00048782
0.000472833
0.000458484
0.000444733
0.000431539
0.000418863
0.000406669
0.000394928
0.000383618
0.000372725
0.000362236
0.000352138
0.000342412
0.000333036
0.000323986
0.000315239
0.000306775
0.00029858
0.000290645
0.000282968
0.000275548
0.000268384
0.000261463
0.000254767
0.000248266
0.000241934
0.000235759
0.000229742
0.000223897
0.000218237
0.000212766
0.000207476
0.000202353
0.000197378
0.000192537
0.000187819
0.000183212
0.000178712
0.000174321
0.000170054
0.000165931
0.000161961
0.000158133
0.000154409
0.000150745
0.000147109
0.000143505
0.000139965
0.000136533
0.000133238
0.000130079
0.000127031
0.000124056
0.000121129
0.000118237
0.00011538
0.000112565
0.000109799
0.000107097
0.000104481
0.000101971
9.95703e-05
9.72534e-05
9.49691e-05
9.26632e-05
9.03084e-05
8.79243e-05
8.557e-05
8.33139e-05
8.11959e-05
7.92054e-05
7.72875e-05
7.53723e-05
7.34086e-05
7.13825e-05
6.93149e-05
6.72433e-05
6.52036e-05
6.3221e-05
6.13086e-05
5.94667e-05
5.76767e-05
5.58963e-05
5.40635e-05
5.21197e-05
5.00431e-05
4.78743e-05
4.5712e-05
4.36719e-05
4.18251e-05
4.01504e-05
3.85327e-05
3.68143e-05
3.48769e-05
3.27102e-05
3.04253e-05
2.82039e-05
2.62056e-05
2.44852e-05
2.29626e-05
2.14649e-05
1.98161e-05
1.79279e-05
1.58445e-05
1.37178e-05
1.17305e-05
1.00063e-05
8.55486e-06
7.2754e-06
6.01355e-06
4.63955e-06
3.10789e-06
1.47128e-06
-1.53007e-07
-1.64379e-06
-2.93189e-06
-4.02588e-06
-4.99929e-06
-5.9499e-06
-6.95332e-06
-8.03265e-06
-9.15545e-06
-1.02556e-05
-1.12663e-05
-1.21491e-05
-1.29052e-05
-1.3569e-05
-1.4188e-05
-1.48008e-05
-1.5423e-05
-1.60443e-05
-1.66383e-05
-1.71762e-05
-1.76403e-05
-1.80301e-05
-1.83608e-05
-1.86559e-05
-1.89371e-05
-1.92175e-05
-1.94978e-05
-1.9769e-05
-2.00169e-05
-2.02291e-05
-2.03987e-05
-2.05267e-05
-2.06208e-05
-2.06921e-05
-2.07521e-05
-2.08091e-05
-2.08673e-05
-2.09266e-05
-2.09843e-05
-2.10364e-05
-2.10797e-05
-2.11127e-05
-2.11358e-05
-2.1151e-05
-2.11613e-05
-2.11695e-05
-2.11779e-05
-2.1188e-05
-2.12001e-05
-2.12139e-05
-2.12287e-05
-2.12435e-05
-2.12577e-05
-2.12709e-05
-2.12831e-05
-2.12944e-05
-2.13051e-05
-2.13156e-05
-2.13262e-05
-2.1337e-05
-2.13482e-05
-2.13596e-05
-2.13713e-05
-2.1383e-05
-2.13948e-05
-2.14064e-05
-2.1418e-05
-2.14294e-05
-2.14408e-05
-2.1452e-05
-2.14632e-05
-2.14744e-05
-2.14855e-05
-2.14967e-05
-2.15078e-05
-2.1519e-05
-2.15301e-05
-2.15413e-05
-2.15524e-05
-2.15635e-05
-2.15745e-05
-2.15856e-05
-2.15966e-05
-2.16075e-05
-2.16185e-05
-2.16294e-05
-2.16403e-05
-2.16511e-05
-2.1662e-05
-2.16728e-05
-2.16836e-05
-2.16943e-05
-2.1705e-05
-2.17157e-05
-2.17264e-05
-2.1737e-05
-2.17476e-05
-2.17582e-05
-2.17688e-05
-2.17793e-05
-2.17898e-05
-2.18002e-05
-2.18106e-05
-2.1821e-05
-2.18314e-05
-2.18417e-05
-2.1852e-05
-2.18622e-05
-2.18725e-05
-2.18827e-05
-2.18928e-05
-2.19029e-05
-2.1913e-05
-2.19231e-05
-2.19331e-05
-2.19431e-05
-2.1953e-05
-2.19629e-05
-2.19728e-05
-2.19827e-05
-2.19925e-05
-2.20022e-05
-2.2012e-05
-2.20216e-05
-2.20313e-05
-2.20409e-05
-2.20505e-05
-2.206e-05
-2.20695e-05
-2.2079e-05
-2.20884e-05
-2.20978e-05
-2.21071e-05
-2.21164e-05
-2.21257e-05
-2.21349e-05
-2.21441e-05
-2.21532e-05
-2.21623e-05
-2.21714e-05
-2.21804e-05
-2.21893e-05
-2.21983e-05
-2.22071e-05
-2.2216e-05
-2.22248e-05
-2.22336e-05
-2.22422e-05
-2.22509e-05
-2.22595e-05
-2.22682e-05
-2.22766e-05
-2.22852e-05
-2.22935e-05
-2.2302e-05
-2.23102e-05
-2.23187e-05
-2.23268e-05
-2.23352e-05
-2.23431e-05
-2.23515e-05
-2.23592e-05
-2.23677e-05
-2.23752e-05
-2.23836e-05
-2.23909e-05
-2.23994e-05
-2.24064e-05
-2.24151e-05
-2.24217e-05
-2.24305e-05
-2.24368e-05
-2.24459e-05
-2.24516e-05
-2.24611e-05
-2.24662e-05
-2.24762e-05
-2.24805e-05
-2.24913e-05
-2.24945e-05
-2.25064e-05
-2.25082e-05
-2.25215e-05
-2.25215e-05
-2.25367e-05
-2.25345e-05
-2.25522e-05
-2.2547e-05
-2.25681e-05
-2.25591e-05
-2.25846e-05
-2.25705e-05
-2.26021e-05
-2.25813e-05
-2.26207e-05
-2.25912e-05
-2.2641e-05
-2.26003e-05
-2.26637e-05
-2.26082e-05
-2.26894e-05
-2.26148e-05
-2.27193e-05
-2.26198e-05
-2.27549e-05
-2.26225e-05
-2.27983e-05
-2.26224e-05
-2.28521e-05
-2.26185e-05
-2.29197e-05
-2.26099e-05
-2.30045e-05
-2.25964e-05
-2.31085e-05
-2.25796e-05
-2.32288e-05
-2.25649e-05
-2.33492e-05
-2.25624e-05
-2.34232e-05
-2.2581e-05
-2.33228e-05
-2.25929e-05
-2.25996e-05
-2.2344e-05
-1.83001e-05
-1.84386e-05
-1.84386e-05
-0.0942745
0.0942745
0.12101
0.0969632
0.071787
0.0531913
0.040194
0.0311042
0.0246502
0.0199774
0.0165242
0.0139198
0.0119168
0.010347
0.00909445
0.00807822
0.00724076
0.00654074
0.00594803
0.00544039
0.00500115
0.00461766
0.00428019
0.00398113
0.00371447
0.0034754
0.00325999
0.00306507
0.00288797
0.00272649
0.00257876
0.0024432
0.00231846
0.00220337
0.00209693
0.00199824
0.00190655
0.00182118
0.00174153
0.0016671
0.00159742
0.00153207
0.0014707
0.00141295
0.00135855
0.00130722
0.00125872
0.00121284
0.0011694
0.00112822
0.00108915
0.00105203
0.00101673
0.000983123
0.00095108
0.0009205
0.000891289
0.000863366
0.000836659
0.000811101
0.000786624
0.000763163
0.000740649
0.000719019
0.000698214
0.000678185
0.000658897
0.000640324
0.000622441
0.000605222
0.000588635
0.000572642
0.000557204
0.000542282
0.000527846
0.000513873
0.000500347
0.000487261
0.000474612
0.000462393
0.000450583
0.000439149
0.000428048
0.000417243
0.000406715
0.000396467
0.000386518
0.000376887
0.000367574
0.000358565
0.000349835
0.000341355
0.000333105
0.000325067
0.000317224
0.00030957
0.000302108
0.000294859
0.000287849
0.000281088
0.000274555
0.000268194
0.000261938
0.000255749
0.000249632
0.00024364
0.000237835
0.000232254
0.000226892
0.000221704
0.000216638
0.000211653
0.000206735
0.000201885
0.000197114
0.000192434
0.000187865
0.000183438
0.000179178
0.000175086
0.00017112
0.000167204
0.000163262
0.000159262
0.000155237
0.000151278
0.000147479
0.000143893
0.000140493
0.000137193
0.00013389
0.000130513
0.00012705
0.000123533
0.000120022
0.000116566
0.000113198
0.000109933
0.000106766
0.000103665
0.000100568
9.7385e-05
9.40382e-05
9.05054e-05
8.68548e-05
8.32338e-05
7.98052e-05
7.66593e-05
7.37501e-05
7.09006e-05
6.78836e-05
6.45416e-05
6.08793e-05
5.70742e-05
5.33939e-05
5.00594e-05
4.71302e-05
4.44718e-05
4.1826e-05
3.89459e-05
3.57235e-05
3.22449e-05
2.87442e-05
2.5485e-05
2.26328e-05
2.01818e-05
1.79705e-05
1.57711e-05
1.3404e-05
1.08192e-05
8.10823e-06
5.44876e-06
3.01351e-06
8.91736e-07
-9.42255e-07
-2.60431e-06
-4.23774e-06
-5.94629e-06
-7.75354e-06
-9.60343e-06
-1.13955e-05
-1.30347e-05
-1.44707e-05
-1.57127e-05
-1.68159e-05
-1.78509e-05
-1.8872e-05
-1.98979e-05
-2.09101e-05
-2.18683e-05
-2.27317e-05
-2.34771e-05
-2.41075e-05
-2.4648e-05
-2.51336e-05
-2.55957e-05
-2.60513e-05
-2.64996e-05
-2.69259e-05
-2.731e-05
-2.76343e-05
-2.78912e-05
-2.80843e-05
-2.82264e-05
-2.83353e-05
-2.84275e-05
-2.85151e-05
-2.86035e-05
-2.86919e-05
-2.87759e-05
-2.88499e-05
-2.89093e-05
-2.89526e-05
-2.89808e-05
-2.89976e-05
-2.90074e-05
-2.90147e-05
-2.90228e-05
-2.90335e-05
-2.90473e-05
-2.90635e-05
-2.90808e-05
-2.90981e-05
-2.91142e-05
-2.91288e-05
-2.91418e-05
-2.91535e-05
-2.91645e-05
-2.91752e-05
-2.91861e-05
-2.91974e-05
-2.92092e-05
-2.92215e-05
-2.92341e-05
-2.92468e-05
-2.92594e-05
-2.9272e-05
-2.92844e-05
-2.92966e-05
-2.93086e-05
-2.93206e-05
-2.93324e-05
-2.93442e-05
-2.93561e-05
-2.93679e-05
-2.93798e-05
-2.93916e-05
-2.94035e-05
-2.94153e-05
-2.94272e-05
-2.9439e-05
-2.94508e-05
-2.94625e-05
-2.94742e-05
-2.94858e-05
-2.94975e-05
-2.95091e-05
-2.95206e-05
-2.95322e-05
-2.95437e-05
-2.95552e-05
-2.95666e-05
-2.9578e-05
-2.95894e-05
-2.96008e-05
-2.96121e-05
-2.96234e-05
-2.96346e-05
-2.96459e-05
-2.96571e-05
-2.96682e-05
-2.96793e-05
-2.96904e-05
-2.97015e-05
-2.97125e-05
-2.97235e-05
-2.97344e-05
-2.97454e-05
-2.97562e-05
-2.97671e-05
-2.97779e-05
-2.97887e-05
-2.97994e-05
-2.98101e-05
-2.98207e-05
-2.98313e-05
-2.98419e-05
-2.98525e-05
-2.9863e-05
-2.98734e-05
-2.98838e-05
-2.98942e-05
-2.99046e-05
-2.99149e-05
-2.99251e-05
-2.99354e-05
-2.99455e-05
-2.99557e-05
-2.99657e-05
-2.99758e-05
-2.99858e-05
-2.99958e-05
-3.00057e-05
-3.00156e-05
-3.00254e-05
-3.00352e-05
-3.00449e-05
-3.00546e-05
-3.00643e-05
-3.00739e-05
-3.00834e-05
-3.0093e-05
-3.01024e-05
-3.01118e-05
-3.01212e-05
-3.01305e-05
-3.01398e-05
-3.01491e-05
-3.01582e-05
-3.01674e-05
-3.01763e-05
-3.01855e-05
-3.01943e-05
-3.02034e-05
-3.02121e-05
-3.02212e-05
-3.02297e-05
-3.02387e-05
-3.0247e-05
-3.0256e-05
-3.02642e-05
-3.02732e-05
-3.02811e-05
-3.02901e-05
-3.02978e-05
-3.03069e-05
-3.03142e-05
-3.03235e-05
-3.03304e-05
-3.034e-05
-3.03463e-05
-3.03562e-05
-3.03619e-05
-3.03724e-05
-3.03773e-05
-3.03885e-05
-3.03923e-05
-3.04045e-05