# vtk DataFile Version 2.0
FlowField
ASCII
DATASET STRUCTURED_GRID
DIMENSIONS 400 1 50
POINTS 20000 float
0 0 0
0.08 0 0
0.16 0 0
0.24 0 0
0.32 0 0
0.4 0 0
0.48 0 0
0.56 0 0
0.64 0 0
0.72 0 0
0.8 0 0
0.88 0 0
0.96 0 0
1.04 0 0
1.12 0 0
1.2 0 0
1.28 0 0
1.36 0 0
1.44 0 0
1.52 0 0
1.6 0 0
1.68 0 0
1.76 0 0
1.84 0 0
1.92 0 0
2 0 0
2.08 0 0
2.16 0 0
2.24 0 0
2.32 0 0
2.4 0 0
2.48 0 0
2.56 0 0
2.64 0 0
2.72 0 0
2.8 0 0
2.88 0 0
2.96 0 0
3.04 0 0
3.12 0 0
3.2 0 0
3.28 0 0
3.36 0 0
3.44 0 0
3.52 0 0
3.6 0 0
3.68 0 0
3.76 0 0
3.84 0 0
3.92 0 0
4 0 0
4.08 0 0
4.16 0 0
4.24 0 0
4.32 0 0
4.4 0 0
4.48 0 0
4.56 0 0
4.64 0 0
4.72 0 0
4.8 0 0
4.88 0 0
4.96 0 0
5.04 0 0
5.12 0 0
5.2 0 0
5.28 0 0
5.36 0 0
5.44 0 0
5.52 0 0
5.6 0 0
5.68 0 0
5.76 0 0
5.84 0 0
5.92 0 0
6 0 0
6.08 0 0
6.16 0 0
6.24 0 0
6.32 0 0
6.4 0 0
6.48 0 0
6.56 0 0
6.64 0 0
6.72 0 0
6.8 0 0
6.88 0 0
6.96 0 0
7.04 0 0
7.12 0 0
7.2 0 0
7.28 0 0
7.36 0 0
7.44 0 0
7.52 0 0
7.6 0 0
7.68 0 0
7.76 0 0
7.84 0 0
7.92 0 0
8 0 0
8.08 0 0
8.16 0 0
8.24 0 0
8.32 0 0
8.4 0 0
8.48 0 0
8.56 0 0
8.64 0 0
8.72 0 0
8.8 0 0
8.88 0 0
8.96 0 0
9.04 0 0
9.12 0 0
9.2 0 0
9.28 0 0
9.36 0 0
9.44 0 0
9.52 0 0
9.6 0 0
9.68 0 0
9.76 0 0
9.84 0 0
9.92 0 0
10 0 0
10.08 0 0
10.16 0 0
10.24 0 0
10.32 0 0
10.4 0 0
10.48 0 0
10.56 0 0
10.64 0 0
10.72 0 0
10.8 0 0
10.88 0 0
10.96 0 0
11.04 0 0
11.12 0 0
11.2 0 0
11.28 0 0
11.36 0 0
11.44 0 0
11.52 0 0
11.6 0 0
11.68 0 0
11.76 0 0
11.84 0 0
11.92 0 0
12 0 0
12.08 0 0
12.16 0 0
12.24 0 0
12.32 0 0
12.4 0 0
12.48 0 0
12.56 0 0
12.64 0 0
12.72 0 0
12.8 0 0
12.88 0 0
12.96 0 0
13.04 0 0
13.12 0 0
13.2 0 0
13.28 0 0
13.36 0 0
13.44 0 0
13.52 0 0
13.6 0 0
13.68 0 0
13.76 0 0
13.84 0 0
13.92 0 0
14 0 0
14.08 0 0
14.16 0 0
14.24 0 0
14.32 0 0
14.4 0 0
14.48 0 0
14.56 0 0
14.64 0 0
14.72 0 0
14.8 0 0
14.88 0 0
14.96 0 0
15.04 0 0
15.12 0 0
15.2 0 0
15.28 0 0
15.36 0 0
15.44 0 0
15.52 0 0
15.6 0 0
15.68 0 0
15.76 0 0
15.84 0 0
15.92 0 0
16 0 0
16.08 0 0
16.16 0 0
16.24 0 0
16.32 0 0
16.4 0 0
16.48 0 0
16.56 0 0
16.64 0 0
16.72 0 0
16.8 0 0
16.88 0 0
16.96 0 0
17.04 0 0
17.12 0 0
17.2 0 0
17.28 0 0
17.36 0 0
17.44 0 0
17.52 0 0
17.6 0 0
17.68 0 0
17.76 0 0
17.84 0 0
17.92 0 0
18 0 0
18.08 0 0
18.16 0 0
18.24 0 0
18.32 0 0
18.4 0 0
18.48 0 0
18.56 0 0
18.64 0 0
18.72 0 0
18.8 0 0
18.88 0 0
18.96 0 0
19.04 0 0
19.12 0 0
19.2 0 0
19.28 0 0
19.36 0 0
19.44 0 0
19.52 0 0
19.6 0 0
19.68 0 0
19.76 0 0
19.84 0 0
19.92 0 0
20 0 0
20.08 0 0
20.16 0 0
20.24 0 0
20.32 0 0
20.4 0 0
20.48 0 0
20.56 0 0
20.64 0 0
20.72 0 0
20.8 0 0
20.88 0 0
20.96 0 0
21.04 0 0
21.12 0 0
21.2 0 0
21.28 0 0
21.36 0 0
21.44 0 0
21.52 0 0
21.6 0 0
21.68 0 0
21.76 0 0
21.84 0 0
21.92 0 0
22 0 0
22.08 0 0
22.16 0 0
22.24 0 0
22.32 0 0
22.4 0 0
22.48 0 0
22.56 0 0
22.64 0 0
22.72 0 0
22.8 0 0
22.88 0 0
22.96 0 0
23.04 0 0
23.12 0 0
23.2 0 0
23.28 0 0
23.36 0 0
23.44 0 0
23.52 0 0
23.6 0 0
23.68 0 0
23.76 0 0
23.84 0 0
23.92 0 0
24 0 0
24.08 0 0
24.16 0 0
24.24 0 0
24.32 0 0
24.4 0 0
24.48 0 0
24.56 0 0
24.64 0 0
24.72 0 0
24.8 0 0
24.88 0 0
24.96 0 0
25.04 0 0
25.12 0 0
25.2 0 0
25.28 0 0
25.36 0 0
25.44 0 0
25.52 0 0
25.6 0 0
25.68 0 0
25.76 0 0
25.84 0 0
25.92 0 0
26 0 0
26.08 0 0
26.16 0 0
26.24 0 0
26.32 0 0
26.4 0 0
26.48 0 0
26.56 0 0
26.64 0 0
26.72 0 0
26.8 0 0
26.88 0 0
26.96 0 0
27.04 0 0
27.12 0 0
27.2 0 0
27.28 0 0
27.36 0 0
27.44 0 0
27.52 0 0
27.6 0 0
27.68 0 0
27.76 0 0
27.84 0 0
27.92 0 0
28 0 0
28.08 0 0
28.16 0 0
28.24 0 0
28.32 0 0
28.4 0 0
28.48 0 0
28.56 0 0
28.64 0 0
28.72 0 0
28.8 0 0
28.88 0 0
28.96 0 0
29.04 0 0
29.12 0 0
29.2 0 0
29.28 0 0
29.36 0 0
29.44 0 0
29.52 0 0
29.6 0 0
29.68 0 0
29.76 0 0
29.84 0 0
29.92 0 0
30 0 0
30.08 0 0
30.16 0 0
30.24 0 0
30.32 0 0
30.4 0 0
30.48 0 0
30.56 0 0
30.64 0 0
30.72 0 0
30.8 0 0
30.88 0 0
30.96 0 0
31.04 0 0
31.12 0 0
31.2 0 0
31.28 0 0
31.36 0 0
31.44 0 0
31.52 0 0
31.6 0 0
31.68 0 0
31.76 0 0
31.84 0 0
31.92 0 0
0 0.02 0
0.08 0.02 0
0.16 0.02 0
0.24 0.02 0
0.32 0.02 0
0.4 0.02 0
0.48 0.02 0
0.56 0.02 0
0.64 0.02 0
0.72 0.02 0
0.8 0.02 0
0.88 0.02 0
0.96 0.02 0
1.04 0.02 0
1.12 0.02 0
1.2 0.02 0
1.28 0.02 0
1.36 0.02 0
1.44 0.02 0
1.52 0.02 0
1.6 0.02 0
1.68 0.02 0
1.76 0.02 0
1.84 0.02 0
1.92 0.02 0
2 0.02 0
2.08 0.02 0
2.16 0.02 0
2.24 0.02 0
2.32 0.02 0
2.4 0.02 0
2.48 0.02 0
2.56 0.02 0
2.64 0.02 0
2.72 0.02 0
2.8 0.02 0
2.88 0.02 0
2.96 0.02 0
3.04 0.02 0
3.12 0.02 0
3.2 0.02 0
3.28 0.02 0
3.36 0.02 0
3.44 0.02 0
3.52 0.02 0
3.6 0.02 0
3.68 0.02 0
3.76 0.02 0
3.84 0.02 0
3.92 0.02 0
4 0.02 0
4.08 0.02 0
4.16 0.02 0
4.24 0.02 0
4.32 0.02 0
4.4 0.02 0
4.48 0.02 0
4.56 0.02 0
4.64 0.02 0
4.72 0.02 0
4.8 0.02 0
4.88 0.02 0
4.96 0.02 0
5.04 0.02 0
5.12 0.02 0
5.2 0.02 0
5.28 0.02 0
5.36 0.02 0
5.44 0.02 0
5.52 0.02 0
5.6 0.02 0
5.68 0.02 0
5.76 0.02 0
5.84 0.02 0
5.92 0.02 0
6 0.02 0
6.08 0.02 0
6.16 0.02 0
6.24 0.02 0
6.32 0.02 0
6.4 0.02 0
6.48 0.02 0
6.56 0.02 0
6.64 0.02 0
6.72 0.02 0
6.8 0.02 0
6.88 0.02 0
6.96 0.02 0
7.04 0.02 0
7.12 0.02 0
7.2 0.02 0
7.28 0.02 0
7.36 0.02 0
7.44 0.02 0
7.52 0.02 0
7.6 0.02 0
7.68 0.02 0
7.76 0.02 0
7.84 0.02 0
7.92 0.02 0
8 0.02 0
8.08 0.02 0
8.16 0.02 0
8.24 0.02 0
8.32 0.02 0
8.4 0.02 0
8.48 0.02 0
8.56 0.02 0
8.64 0.02 0
8.72 0.02 0
8.8 0.02 0
8.88 0.02 0
8.96 0.02 0
9.04 0.02 0
9.12 0.02 0
9.2 0.02 0
9.28 0.02 0
9.36 0.02 0
9.44 0.02 0
9.52 0.02 0
9.6 0.02 0
9.68 0.02 0
9.76 0.02 0
9.84 0.02 0
9.92 0.02 0
10 0.02 0
10.08 0.02 0
10.16 0.02 0
10.24 0.02 0
10.32 0.02 0
10.4 0.02 0
10.48 0.02 0
10.56 0.02 0
10.64 0.02 0
10.72 0.02 0
10.8 0.02 0
10.88 0.02 0
10.96 0.02 0
11.04 0.02 0
11.12 0.02 0
11.2 0.02 0
11.28 0.02 0
11.36 0.02 0
11.44 0.02 0
11.52 0.02 0
11.6 0.02 0
11.68 0.02 0
11.76 0.02 0
11.84 0.02 0
11.92 0.02 0
12 0.02 0
12.08 0.02 0
12.16 0.02 0
12.24 0.02 0
12.32 0.02 0
12.4 0.02 0
12.48 0.02 0
12.56 0.02 0
12.64 0.02 0
12.72 0.02 0
12.8 0.02 0
12.88 0.02 0
12.96 0.02 0
13.04 0.02 0
13.12 0.02 0
13.2 0.02 0
13.28 0.02 0
13.36 0.02 0
13.44 0.02 0
13.52 0.02 0
13.6 0.02 0
13.68 0.02 0
13.76 0.02 0
13.84 0.02 0
13.92 0.02 0
14 0.02 0
14.08 0.02 0
14.16 0.02 0
14.24 0.02 0
14.32 0.02 0
14.4 0.02 0
14.48 0.02 0
14.56 0.02 0
14.64 0.02 0
14.72 0.02 0
14.8 0.02 0
14.88 0.02 0
14.96 0.02 0
15.04 0.02 0
15.12 0.02 0
15.2 0.02 0
15.28 0.02 0
15.36 0.02 0
15.44 0.02 0
15.52 0.02 0
15.6 0.02 0
15.68 0.02 0
15.76 0.02 0
15.84 0.02 0
15.92 0.02 0
16 0.02 0
16.08 0.02 0
16.16 0.02 0
16.24 0.02 0
16.32 0.02 0
16.4 0.02 0
16.48 0.02 0
16.56 0.02 0
16.64 0.02 0
16.72 0.02 0
16.8 0.02 0
16.88 0.02 0
16.96 0.02 0
17.04 0.02 0
17.12 0.02 0
17.2 0.02 0
17.28 0.02 0
17.36 0.02 0
17.44 0.02 0
17.52 0.02 0
17.6 0.02 0
17.68 0.02 0
17.76 0.02 0
17.84 0.02 0
17.92 0.02 0
18 0.02 0
18.08 0.02 0
18.16 0.02 0
18.24 0.02 0
18.32 0.02 0
18.4 0.02 0
18.48 0.02 0
18.56 0.02 0
18.64 0.02 0
18.72 0.02 0
18.8 0.02 0
18.88 0.02 0
18.96 0.02 0
19.04 0.02 0
19.12 0.02 0
19.2 0.02 0
19.28 0.02 0
19.36 0.02 0
19.44 0.02 0
19.52 0.02 0
19.6 0.02 0
19.68 0.02 0
19.76 0.02 0
19.84 0.02 0
19.92 0.02 0
20 0.02 0
20.08 0.02 0
20.16 0.02 0
20.24 0.02 0
20.32 0.02 0
20.4 0.02 0
20.48 0.02 0
20.56 0.02 0
20.64 0.02 0
20.72 0.02 0
20.8 0.02 0
20.88 0.02 0
20.96 0.02 0
21.04 0.02 0
21.12 0.02 0
21.2 0.02 0
21.28 0.02 0
21.36 0.02 0
21.44 0.02 0
21.52 0.02 0
21.6 0.02 0
21.68 0.02 0
21.76 0.02 0
21.84 0.02 0
21.92 0.02 0
22 0.02 0
22.08 0.02 0
22.16 0.02 0
22.24 0.02 0
22.32 0.02 0
22.4 0.02 0
22.48 0.02 0
22.56 0.02 0
22.64 0.02 0
22.72 0.02 0
22.8 0.02 0
22.88 0.02 0
22.96 0.02 0
23.04 0.02 0
23.12 0.02 0
23.2 0.02 0
23.28 0.02 0
23.36 0.02 0
23.44 0.02 0
23.52 0.02 0
23.6 0.02 0
23.68 0.02 0
23.76 0.02 0
23.84 0.02 0
23.92 0.02 0
24 0.02 0
24.08 0.02 0
24.16 0.02 0
24.24 0.02 0
24.32 0.02 0
24.4 0.02 0
24.48 0.02 0
24.56 0.02 0
24.64 0.02 0
24.72 0.02 0
24.8 0.02 0
24.88 0.02 0
24.96 0.02 0
25.04 0.02 0
25.12 0.02 0
25.2 0.02 0
25.28 0.02 0
25.36 0.02 0
25.44 0.02 0
25.52 0.02 0
25.6 0.02 0
25.68 0.02 0
25.76 0.02 0
25.84 0.02 0
25.92 0.02 0
26 0.02 0
26.08 0.02 0
26.16 0.02 0
26.24 0.02 0
26.32 0.02 0
26.4 0.02 0
26.48 0.02 0
26.56 0.02 0
26.64 0.02 0
26.72 0.02 0
26.8 0.02 0
26.88 0.02 0
26.96 0.02 0
27.04 0.02 0
27.12 0.02 0
27.2 0.02 0
27.28 0.02 0
27.36 0.02 0
27.44 0.02 0
27.52 0.02 0
27.6 0.02 0
27.68 0.02 0
27.76 0.02 0
27.84 0.02 0
27.92 0.02 0
28 0.02 0
28.08 0.02 0
28.16 0.02 0
28.24 0.02 0
28.32 0.02 0
28.4 0.02 0
28.48 0.02 0
28.56 0.02 0
28.64 0.02 0
28.72 0.02 0
28.8 0.02 0
28.88 0.02 0
28.96 0.02 0
29.04 0.02 0
29.12 0.02 0
29.2 0.02 0
29.28 0.02 0
29.36 0.02 0
29.44 0.02 0
29.52 0.02 0
29.6 0.02 0
29.68 0.02 0
29.76 0.02 0
29.84 0.02 0
29.92 0.02 0
30 0.02 0
30.08 0.02 0
30.16 0.02 0
30.24 0.02 0
30.32 0.02 0
30.4 0.02 0
30.48 0.02 0
30.56 0.02 0
30.64 0.02 0
30.72 0.02 0
30.8 0.02 0
30.88 0.02 0
30.96 0.02 0
31.04 0.02 0
31.12 0.02 0
31.2 0.02 0
31.28 0.02 0
31.36 0.02 0
31.44 0.02 0
31.52 0.02 0
31.6 0.02 0
31.68 0.02 0
31.76 0.02 0
31.84 0.02 0
31.92 0.02 0
0 0.04 0
0.08 0.04 0
0.16 0.04 0
0.24 0.04 0
0.32 0.04 0
0.4 0.04 0
0.48 0.04 0
0.56 0.04 0
0.64 0.04 0
0.72 0.04 0
0.8 0.04 0
0.88 0.04 0
0.96 0.04 0
1.04 0.04 0
1.12 0.04 0
1.2 0.04 0
1.28 0.04 0
1.36 0.04 0
1.44 0.04 0
1.52 0.04 0
1.6 0.04 0
1.68 0.04 0
1.76 0.04 0
1.84 0.04 0
1.92 0.04 0
2 0.04 0
2.08 0.04 0
2.16 0.04 0
2.24 0.04 0
2.32 0.04 0
2.4 0.04 0
2.48 0.04 0
2.56 0.04 0
2.64 0.04 0
2.72 0.04 0
2.8 0.04 0
2.88 0.04 0
2.96 0.04 0
3.04 0.04 0
3.12 0.04 0
3.2 0.04 0
3.28 0.04 0
3.36 0.04 0
3.44 0.04 0
3.52 0.04 0
3.6 0.04 0
3.68 0.04 0
3.76 0.04 0
3.84 0.04 0
3.92 0.04 0
4 0.04 0
4.08 0.04 0
4.16 0.04 0
4.24 0.04 0
4.32 0.04 0
4.4 0.04 0
4.48 0.04 0
4.56 0.04 0
4.64 0.04 0
4.72 0.04 0
4.8 0.04 0
4.88 0.04 0
4.96 0.04 0
5.04 0.04 0
5.12 0.04 0
5.2 0.04 0
5.28 0.04 0
5.36 0.04 0
5.44 0.04 0
5.52 0.04 0
5.6 0.04 0
5.68 0.04 0
5.76 0.04 0
5.84 0.04 0
5.92 0.04 0
6 0.04 0
6.08 0.04 0
6.16 0.04 0
6.24 0.04 0
6.32 0.04 0
6.4 0.04 0
6.48 0.04 0
6.56 0.04 0
6.64 0.04 0
6.72 0.04 0
6.8 0.04 0
6.88 0.04 0
6.96 0.04 0
7.04 0.04 0
7.12 0.04 0
7.2 0.04 0
7.28 0.04 0
7.36 0.04 0
7.44 0.04 0
7.52 0.04 0
7.6 0.04 0
7.68 0.04 0
7.76 0.04 0
7.84 0.04 0
[...]
POINT_DATA 20000

SCALARS v float 1
LOOKUP_TABLE default
0
0
0
0
0
0
0
0
0
0
0
0
0
0
0
0
0
0
0
0
0
0
0
0
0
0
0
0
0
0
0
0
0
0
0
0
0
0
0
0
0
0
0
0
0
0
0
0
0
0
0
0
0
0
0
0
0
0
0
0
0
0
0
0
0
0
0
0
0
0
0
0
0
0
0
0
0
0
0
0
0
0
0
0
0
0
0
0
0
0
0
0
0
0
0
0
0
0
0
0
0
0
0
0
0
0
0
0
0
0
0
0
0
0
0
0
0
0
0
0
0
0
0
0
0
0
0
0
0
0
0
0
0
0
0
0
0
0
0
0
0
0
0
0
0
0
0
0
0
0
0
0
0
0
0
0
0
0
0
0
0
0
0
0
0
0
0
0
0
0
0
0
0
0
0
0
0
0
0
0
0
0
0
0
0
0
0
0
0
0
0
0
0
0
0
0
0
0
0
0
0
0
0
0
0
0
0
0
0
0
0
0
0
0
0
0
0
0
0
0
0
0
0
0
0
0
0
0
0
0
0
0
0
0
0
0
0
0
0
0
0
0
0
0
0
0
0
0
0
0
0
0
0
0
0
0
0
0
0
0
0
0
0
0
0
0
0
0
0
0
0
0
0
0
0
0
0
0
0
0
0
0
0
0
0
0
0
0
0
0
0
0
0
0
0
0
0
0
0
0
0
0
0
0
0
0
0
0
0
0
0
0
0
0
0
0
0
0
0
0
0
0
0
0
0
0
0
0
0
0
0
0
0
0
0
0
0
0
0
0
0
0
0
0
0
0
0
0
0
0
0
0
0
0
0
0
0
0
0
0
0
0
0
0
0
0
0
0
0
0
0
0
0
0
0
0
0
0
0
0
0
0
0
0
0
0
0
0
0
0
0
0
0
0
0
0
0
0
0
0
-0.123226
0.123226
0.053791
0.0194381
0.00878223
0.00508879
0.00338681
0.00243634
0.00184651
0.00145529
0.00118303
0.000986226
0.000839361
0.000726666
0.000638028
0.00056676
0.000508336
0.000459617
0.00041839
0.000383055
0.00035244
0.000325665
0.000302061
0.000281108
0.000262396
0.000245596
0.000230442
0.000216716
0.000204236
0.000192849
0.000182426
0.000172858
0.00016405
0.000155921
0.000148401
0.000141429
0.00013495
0.000128918
0.000123291
0.000118033
0.00011311
0.000108494
0.000104158
0.00010008
9.62387e-05
9.26153e-05
8.91928e-05
8.59561e-05
8.28912e-05
7.99856e-05
7.72279e-05
7.46076e-05
7.21153e-05
6.97425e-05
6.74811e-05
6.53239e-05
6.32641e-05
6.12956e-05
5.94127e-05
5.76101e-05
5.5883e-05
5.42269e-05
5.26378e-05
5.11118e-05
4.96454e-05
4.82352e-05
4.68781e-05
4.55712e-05
4.43117e-05
4.30971e-05
4.19252e-05
4.07938e-05
3.97011e-05
3.86451e-05
3.76243e-05
3.66368e-05
3.56811e-05
3.47556e-05
3.3859e-05
3.29899e-05
3.21471e-05
3.13297e-05
3.05367e-05
2.97669e-05
2.90196e-05
2.82935e-05
2.75878e-05
2.69015e-05
2.62339e-05
2.55842e-05
2.4952e-05
2.43367e-05
2.37379e-05
2.3155e-05
2.25876e-05
2.2035e-05
2.14965e-05
2.09715e-05
2.04596e-05
1.99604e-05
1.94737e-05
1.89992e-05
1.85367e-05
1.80858e-05
1.7646e-05
1.72167e-05
1.67976e-05
1.63882e-05
1.59882e-05
1.55974e-05
1.52159e-05
1.48436e-05
1.44806e-05
1.41267e-05
1.37815e-05
1.34443e-05
1.31146e-05
1.27922e-05
1.2477e-05
1.2169e-05
1.18686e-05
1.15755e-05
1.12896e-05
1.10104e-05
1.07376e-05
1.0471e-05
1.02102e-05
9.95488e-06
9.70484e-06
9.45998e-06
9.22062e-06
8.98726e-06
8.76021e-06
8.53924e-06
8.32356e-06
8.11215e-06
7.90432e-06
7.7001e-06
7.5001e-06
7.30505e-06
7.11524e-06
6.93032e-06
6.74962e-06
6.57258e-06
6.39902e-06
6.22901e-06
6.06253e-06
5.89927e-06
5.73881e-06
5.58107e-06
5.42657e-06
5.27622e-06
5.13068e-06
4.98971e-06
4.8521e-06
4.71631e-06
4.58135e-06
4.44748e-06
4.31602e-06
4.18852e-06
4.06573e-06
3.94725e-06
3.83179e-06
3.71811e-06
3.60562e-06
3.49454e-06
3.38548e-06
3.27881e-06
3.17456e-06
3.07258e-06
2.97306e-06
2.87649e-06
2.78336e-06
2.69347e-06
2.60569e-06
2.51841e-06
2.43045e-06
2.34193e-06
2.25432e-06
2.16964e-06
2.08918e-06
2.01262e-06
1.93815e-06
1.86343e-06
1.78695e-06
1.70871e-06
1.62997e-06
1.55233e-06
1.4767e-06
1.40298e-06
1.33046e-06
1.25848e-06
1.18685e-06
1.11565e-06
1.04464e-06
9.72998e-07
8.99609e-07
8.23967e-07
7.46956e-07
6.70825e-07
5.98122e-07
5.30113e-07
4.65667e-07
4.01478e-07
3.33699e-07
2.60156e-07
1.81849e-07
1.02754e-07
2.78777e-08
-3.94121e-08
-9.93058e-08
-1.55591e-07
-2.13728e-07
-2.77969e-07
-3.49091e-07
-4.23952e-07
-4.97109e-07
-5.63599e-07
-6.2142e-07
-6.72414e-07
-7.21174e-07
-7.72619e-07
-8.29518e-07
-8.91231e-07
-9.54189e-07
-1.01377e-06
-1.06656e-06
-1.11182e-06
-1.15161e-06
-1.18953e-06
-1.22893e-06
-1.27136e-06
-1.31603e-06
-1.36047e-06
-1.40179e-06
-1.43805e-06
-1.46902e-06
-1.49608e-06
-1.52142e-06
-1.54697e-06
-1.57365e-06
-1.60111e-06
-1.62806e-06
-1.65299e-06
-1.67484e-06
-1.6934e-06
-1.70928e-06
-1.72356e-06
-1.73724e-06
-1.75093e-06
-1.76461e-06
-1.77783e-06
-1.78992e-06
-1.80039e-06
-1.80904e-06
-1.8161e-06
-1.82203e-06
-1.82737e-06
-1.83251e-06
-1.83761e-06
-1.84259e-06
-1.8472e-06
-1.85119e-06
-1.85438e-06
-1.85675e-06
-1.85845e-06
-1.85969e-06
-1.86071e-06
-1.86168e-06
-1.86271e-06
-1.86377e-06
-1.8648e-06
-1.8657e-06
-1.8664e-06
-1.86688e-06
-1.86713e-06
-1.86724e-06
-1.86726e-06
-1.86727e-06
-1.86732e-06
-1.86742e-06
-1.86757e-06
-1.86775e-06
-1.86793e-06
-1.86809e-06
-1.86822e-06
-1.86831e-06
-1.86838e-06
-1.86844e-06
-1.86851e-06
-1.86858e-06
-1.86868e-06
-1.86879e-06
-1.86892e-06
-1.86905e-06
-1.8692e-06
-1.86934e-06
-1.86948e-06
-1.86961e-06
-1.86975e-06
-1.86989e-06
-1.87004e-06
-1.87018e-06
-1.87034e-06
-1.8705e-06
-1.87067e-06
-1.87084e-06
-1.87102e-06
-1.8712e-06
-1.87139e-06
-1.87158e-06
-1.87178e-06
-1.87197e-06
-1.87218e-06
-1.87238e-06
-1.87259e-06
-1.87281e-06
-1.87303e-06
-1.87325e-06
-1.87349e-06
-1.87372e-06
-1.87396e-06
-1.8742e-06
-1.87446e-06
-1.8747e-06
-1.87497e-06
-1.87522e-06
-1.8755e-06
-1.87576e-06
-1.87605e-06
-1.87632e-06
-1.87662e-06
-1.87689e-06
-1.87721e-06
-1.87749e-06
-1.87782e-06
-1.8781e-06
-1.87846e-06
-1.87873e-06
-1.87911e-06
-1.87938e-06
-1.87978e-06
-1.88004e-06
-1.88048e-06
-1.88073e-06
-1.8812e-06
-1.88143e-06
-1.88195e-06
-1.88215e-06
-1.88273e-06
-1.88289e-06
-1.88354e-06
-1.88364e-06
-1.88438e-06
-1.88441e-06
-1.88527e-06
-1.88519e-06
-1.8862e-06
-1.88599e-06
-1.88719e-06
-1.8868e-06
-1.88825e-06
-1.88762e-06
-1.88939e-06
-1.88845e-06
-1.89063e-06
-1.8893e-06
-1.89201e-06
-1.89015e-06
-1.89356e-06
-1.89101e-06
-1.89532e-06
-1.89188e-06
-1.89736e-06
-1.89276e-06
-1.89975e-06
-1.89366e-06
-1.9026e-06
-1.89458e-06
-1.90603e-06
-1.89556e-06
-1.91018e-06
-1.89665e-06
-1.91516e-06
-1.89796e-06
-1.92101e-06
-1.89968e-06
-1.92744e-06
-1.90213e-06
-1.93338e-06
-1.90576e-06
-1.93541e-06
-1.91107e-06
-1.92285e-06
-1.91836e-06
-1.85431e-06
-1.9252e-06
-1.41319e-06
-1.68042e-06
-1.68042e-06
-0.142152
0.142152
0.101003
0.0539119
0.0302553
0.0189172
0.0129265
0.00941187
0.00717893
0.005676
0.0046195
0.00385049
0.00327399
0.00283048
0.0024813
0.00220062
0.0019708
0.0017795
0.00161795
0.0014798
0.00136037
0.00125614
0.00116443
0.00108315
0.00101068
0.00094571
0.000887172
0.000834202
0.000786081
0.000742209
0.00070208
0.000665263
0.000631389
0.000600141
0.000571246
0.000544464
0.000519588
0.000496433
0.00047484
0.000454665
0.000435783
0.000418081
0.000401459
0.000385826
0.000371104
0.00035722
0.000344108
0.000331709
0.000319971
0.000308844
0.000298286
0.000288255
0.000278715
0.000269634
0.000260981
0.000252727
0.000244847
0.000237318
0.000230116
0.000223222
0.000216618
0.000210286
0.000204211
0.000198378
0.000192774
0.000187384
0.000182198
0.000177205
0.000172393
0.000167754
0.000163278
0.000158958
0.000154786
0.000150754
0.000146858
0.000143089
0.000139441
0.000135909
0.000132488
0.000129172
0.000125958
0.00012284
0.000119816
0.00011688
0.00011403
0.000111262
0.000108571
0.000105955
0.00010341
0.000100935
9.85265e-05
9.61831e-05
9.39027e-05
9.16832e-05
8.95224e-05
8.74179e-05
8.53674e-05
8.33687e-05
8.14202e-05
7.95206e-05
7.76688e-05
7.58637e-05
7.41042e-05
7.23885e-05
7.07149e-05
6.90818e-05
6.74873e-05
6.59303e-05
6.44097e-05
6.29251e-05
6.1476e-05
6.00624e-05
5.86838e-05
5.73393e-05
5.60272e-05
5.47458e-05
5.34933e-05
5.22689e-05
5.10725e-05
4.99044e-05
4.87646e-05
4.76525e-05
4.65672e-05
4.55072e-05
4.44716e-05
4.34593e-05
4.24693e-05
4.15007e-05
4.05528e-05
3.96256e-05
3.87201e-05
3.78371e-05
3.69772e-05
3.61389e-05
3.53197e-05
3.45168e-05
3.37286e-05
3.29556e-05
3.21996e-05
3.14623e-05
3.07439e-05
3.0043e-05
2.93575e-05
2.8686e-05
2.8028e-05
2.73836e-05
2.67525e-05
2.61337e-05
2.55264e-05
2.49307e-05
2.43483e-05
2.37813e-05
2.32309e-05
2.26954e-05
2.21712e-05
2.1654e-05
2.1142e-05
2.0637e-05
2.01428e-05
1.96634e-05
1.91999e-05
1.87503e-05
1.83106e-05
1.78778e-05
1.74505e-05
1.703e-05
1.66178e-05
1.62149e-05
1.58211e-05
1.54362e-05
1.50608e-05
1.4696e-05
1.43425e-05
1.39988e-05
1.36613e-05
1.33256e-05
1.29895e-05
1.26543e-05
1.23247e-05
1.20058e-05
1.16998e-05
1.14043e-05
1.11134e-05
1.0821e-05
1.05237e-05
1.02228e-05
9.92209e-06
9.62591e-06
9.33606e-06
9.05163e-06
8.77034e-06
8.49041e-06
8.21131e-06
7.93298e-06
7.65443e-06
7.37328e-06
7.0871e-06
6.79575e-06
6.50294e-06
6.21527e-06
5.93884e-06
5.67515e-06
5.41905e-06
5.16066e-06
4.8905e-06
4.60528e-06
4.31066e-06
4.01917e-06
3.74382e-06
3.49117e-06
3.25733e-06
3.02975e-06
2.79366e-06
2.53993e-06
2.27003e-06
1.99539e-06
1.73159e-06
1.49049e-06
1.27438e-06
1.07526e-06
8.79355e-07
6.74247e-07
4.55078e-07
2.26608e-07
4.57134e-10
-2.1081e-07
-3.99626e-07
-5.66508e-07
-7.19071e-07
-8.67792e-07
-1.02086e-06
-1.18062e-06
-1.34312e-06
-1.50057e-06
-1.64532e-06
-1.7733e-06
-1.88544e-06
-1.98669e-06
-2.08339e-06
-2.18038e-06
-2.27916e-06
-2.37778e-06
-2.47219e-06
-2.55833e-06
-2.63393e-06
-2.69923e-06
-2.75657e-06
-2.80916e-06
-2.85969e-06
-2.90938e-06
-2.9578e-06
-3.0034e-06
-3.04441e-06
-3.07967e-06
-3.10911e-06
-3.13368e-06
-3.1549e-06
-3.17428e-06
-3.19281e-06
-3.21075e-06
-3.22771e-06
-3.24297e-06
-3.25588e-06
-3.26613e-06
-3.27384e-06
-3.27956e-06
-3.28399e-06
-3.28781e-06
-3.29149e-06
-3.29521e-06
-3.29889e-06
-3.30228e-06
-3.30515e-06
-3.30732e-06
-3.30875e-06
-3.30956e-06
-3.30995e-06
-3.31014e-06
-3.31034e-06
-3.31065e-06
-3.31111e-06
-3.31168e-06
-3.3123e-06
-3.31289e-06
-3.31339e-06
-3.31377e-06
-3.31406e-06
-3.31428e-06
-3.31446e-06
-3.31467e-06
-3.31491e-06
-3.31519e-06
-3.31552e-06
-3.31589e-06
-3.31626e-06
-3.31664e-06
-3.317e-06
-3.31735e-06
-3.31768e-06
-3.318e-06
-3.31833e-06
-3.31866e-06
-3.31899e-06
-3.31934e-06
-3.31969e-06
-3.32006e-06
-3.32043e-06
-3.32081e-06
-3.32118e-06
-3.32156e-06
-3.32194e-06
-3.32233e-06
-3.32271e-06
-3.3231e-06
-3.32349e-06
-3.32389e-06
-3.32428e-06
-3.3247e-06
-3.3251e-06
-3.32552e-06
-3.32593e-06
-3.32637e-06
-3.32677e-06
-3.32722e-06
-3.32763e-06
-3.3281e-06
-3.3285e-06
-3.32898e-06
-3.32939e-06
-3.32989e-06
-3.33029e-06
-3.33081e-06
-3.33121e-06
-3.33175e-06
-3.33214e-06
-3.33272e-06
-3.33308e-06
-3.3337e-06
-3.33404e-06
-3.33471e-06
-3.33501e-06
-3.33574e-06
-3.33599e-06
-3.3368e-06
-3.33698e-06
-3.33789e-06
-3.33799e-06
-3.33902e-06
-3.339e-06
-3.3402e-06
-3.34002e-06
-3.34143e-06
-3.34105e-06
-3.34273e-06
-3.34209e-06
-3.34412e-06
-3.34313e-06
-3.34562e-06
-3.34417e-06
-3.34726e-06
-3.34522e-06
-3.34909e-06
-3.34626e-06
-3.35114e-06
-3.3473e-06
-3.3535e-06
-3.34835e-06
-3.35626e-06
-3.3494e-06
-3.35953e-06
-3.35045e-06
-3.36348e-06
-3.35153e-06
-3.36832e-06
-3.35264e-06
-3.37432e-06
-3.35382e-06
-3.38183e-06
-3.35513e-06
-3.39127e-06
-3.35669e-06
-3.40313e-06
-3.35869e-06
-3.41785e-06
-3.36152e-06
-3.43561e-06
-3.36581e-06
-3.45566e-06
-3.3725e-06
-3.47468e-06
-3.38272e-06
-3.48217e-06
-3.39702e-06
-3.44497e-06
-3.41275e-06
-3.23736e-06
-3.40705e-06
-2.01575e-06
-2.69358e-06
-2.69358e-06
-0.122225
0.122225
0.121662
0.0822667
0.0539937
0.0368629
0.026392
0.0197151
0.0152643
0.0121789
0.00996713
0.00833535
0.00710036
0.00614395
0.0053876
0.00477792
0.0042779
0.00386139
0.00350961
0.00320888
0.002949
0.00272234
0.00252303
0.00234651
0.00218919
0.00204821
0.00192125
0.0018064
0.0017021
0.00160703
0.00152009
0.00144034
0.00136697
0.0012993
0.00123673
0.00117874
0.00112488
0.00107475
0.001028
0.000984323
0.000943447
0.000905127
0.000869145
0.000835308
0.000803441
0.000773388
0.000745007
0.000718172
0.000692766
0.000668685
0.000645833
0.000624125
0.000603482
0.00058383
0.000565105
0.000547245
0.000530195
0.000513903
0.000498321
0.000483406
0.000469118
0.000455421
0.000442279
0.000429661
0.000417537
0.00040588
0.000394663
0.000383862
0.000373456
0.000363424
0.000353746
0.000344405
0.000335386
0.000326671
0.000318247
0.0003101
0.000302216
0.000294583
0.00028719
0.000280025
0.000273079
0.000266343
0.000259808
0.000253466
0.000247309
0.000241328
0.000235516
0.000229866
0.000224372
0.000219027
0.000213828
0.00020877
0.000203848
0.000199058
0.000194394
0.000189852
0.000185427
0.000181115
0.000176911
0.000172814
0.00016882
0.000164927
0.000161132
0.000157431
0.000153822
0.0001503
0.000146862
0.000143505
0.000140228
0.00013703
0.000133908
0.000130864
0.000127894
0.000124998
0.000122171
0.00011941
0.000116713
0.000114076
0.000111501
0.000108987
0.000106534
0.000104141
0.000101804
9.95228e-05
9.72935e-05
9.51148e-05
9.29846e-05
9.09013e-05
8.88635e-05
8.68714e-05
8.49262e-05
8.30295e-05
8.11812e-05
7.93782e-05
7.76155e-05
7.58884e-05
7.41944e-05
7.25346e-05
7.09122e-05
6.93297e-05
6.77868e-05
6.62805e-05
6.48071e-05
6.33638e-05
6.19499e-05
6.05655e-05
5.921e-05
5.78815e-05
5.65787e-05
5.5302e-05
5.40543e-05
5.28392e-05
5.16576e-05
5.0506e-05
4.93773e-05
4.82648e-05
4.71662e-05
4.6085e-05
4.50285e-05
4.40027e-05
4.30088e-05
4.20422e-05
4.1096e-05
4.01648e-05
3.92472e-05
3.83454e-05
3.74621e-05
3.65989e-05
3.57554e-05
3.49311e-05
3.41268e-05
3.33443e-05
3.25838e-05
3.18421e-05
3.11124e-05
3.03874e-05
2.96639e-05
2.89454e-05
2.82401e-05
2.75562e-05
2.68961e-05
2.62544e-05
2.56198e-05
2.49821e-05
2.43364e-05
2.36858e-05
2.30377e-05
2.2399e-05
2.17721e-05
2.11548e-05
2.05428e-05
1.99328e-05
1.9324e-05
1.87161e-05
1.81073e-05
1.74935e-05
1.68713e-05
1.62417e-05
1.56121e-05
1.49941e-05
1.4397e-05
1.38217e-05
1.32575e-05
1.2687e-05
1.20952e-05
1.14793e-05
1.08518e-05
1.02353e-05
9.65136e-06
9.1083e-06
8.5963e-06
8.09198e-06
7.57055e-06
7.01913e-06
6.44383e-06
5.86692e-06
5.31553e-06
4.808e-06
4.34504e-06
3.91017e-06
3.47883e-06
3.03111e-06
2.56158e-06
2.08142e-06
1.61225e-06
1.17531e-06
7.816e-07
4.27637e-07
9.84479e-08
-2.24354e-07
-5.53695e-07
-8.9162e-07
-1.2295e-06
-1.55312e-06
-1.84978e-06
-2.11389e-06
-2.34869e-06
-2.56385e-06
-2.77054e-06
-2.97649e-06
-3.18322e-06
-3.3864e-06
-3.5786e-06
-3.75311e-06
-3.90671e-06
-4.04074e-06
-4.15989e-06
-4.26998e-06
-4.37549e-06
-4.4781e-06
-4.57667e-06
-4.66833e-06
-4.75009e-06
-4.82031e-06
-4.87932e-06
-4.92917e-06
-4.97272e-06
-5.01263e-06
-5.05047e-06
-5.08654e-06
-5.12002e-06
-5.1497e-06
-5.17452e-06
-5.19415e-06
-5.20904e-06
-5.22028e-06
-5.22923e-06
-5.23708e-06
-5.24461e-06
-5.25204e-06
-5.25919e-06
-5.26562e-06
-5.27091e-06
-5.27482e-06
-5.27736e-06
-5.27879e-06
-5.27951e-06
-5.27993e-06
-5.28038e-06
-5.28105e-06
-5.28198e-06
-5.28308e-06
-5.28422e-06
-5.28527e-06
-5.28613e-06
-5.28678e-06
-5.28725e-06
-5.2876e-06
-5.28792e-06
-5.28827e-06
-5.28869e-06
-5.28919e-06
-5.28977e-06
-5.29039e-06
-5.29103e-06
-5.29165e-06
-5.29225e-06
-5.29281e-06
-5.29335e-06
-5.29387e-06
-5.29438e-06
-5.2949e-06
-5.29543e-06
-5.29598e-06
-5.29653e-06
-5.2971e-06
-5.29768e-06
-5.29826e-06
-5.29883e-06
-5.29941e-06
-5.29998e-06
-5.30056e-06
-5.30112e-06
-5.3017e-06
-5.30227e-06
-5.30286e-06
-5.30343e-06
-5.30404e-06
-5.30461e-06
-5.30522e-06
-5.30579e-06
-5.30642e-06
-5.30699e-06
-5.30763e-06
-5.30819e-06
-5.30885e-06
-5.3094e-06
-5.31008e-06
-5.31061e-06
-5.31132e-06
-5.31183e-06
-5.31257e-06
-5.31306e-06
-5.31385e-06
-5.3143e-06
-5.31513e-06
-5.31554e-06
-5.31644e-06
-5.31678e-06
-5.31777e-06
-5.31803e-06
-5.31913e-06
-5.31928e-06
-5.32053e-06
-5.32054e-06
-5.32197e-06
-5.32179e-06
-5.32346e-06
-5.32304e-06
-5.32502e-06
-5.32428e-06
-5.32668e-06
-5.32552e-06
-5.32845e-06
-5.32675e-06
-5.33037e-06
-5.32797e-06
-5.33249e-06
-5.32918e-06
-5.33487e-06
-5.33037e-06
-5.33759e-06
-5.33154e-06
-5.34076e-06
-5.3327e-06
-5.34452e-06
-5.33384e-06
-5.34905e-06
-5.33499e-06
-5.3546e-06
-5.33615e-06
-5.3615e-06
-5.33735e-06
-5.37016e-06
-5.33863e-06
-5.38116e-06
-5.34007e-06
-5.39518e-06
-5.3418e-06
-5.41311e-06
-5.34405e-06
-5.43593e-06
-5.34726e-06
-5.4646e-06
-5.35216e-06
-5.49961e-06
-5.35995e-06
-5.5398e-06
-5.3723e-06
-5.57932e-06
-5.39085e-06
-5.59923e-06
-5.41499e-06
-5.53954e-06
-5.43453e-06
-5.17788e-06
-5.38295e-06
-3.21372e-06
-4.0456e-06
-4.0456e-06
-0.0942776
0.0942776
0.121015
0.0969686
0.0717927
0.0531973
0.0402002
0.0311107
0.024657
0.0199845
0.0165314
0.0139273
0.0119244
0.0103547
0.0091023
0.00808616
0.0072488
0.00654888
0.00595628
0.00544875
0.00500964
0.00462627
0.00428893
0.00398999
0.00372345
0.0034845
0.00326923
0.00307443
0.00289746
0.00273611
0.00258851
0.00245306
0.00232843
0.00221345
0.0021071
0.00200852
0.00191693
0.00183167
0.00175214
0.00167782
0.00160826
0.00154303
0.00148177
0.00142415
0.00136988
0.00131869
0.00127034
0.00122462
0.00118133
0.00114029
0.00110134
0.00106434
0.00102915
0.000995651
0.000963726
0.000933275
0.000904201
0.000876419
0.000849846
0.00082441
0.000800042
0.00077668
0.000754264
0.000732741
0.00071206
0.000692175
0.000673041
0.000654617
0.000636866
0.000619752
0.000603244
0.000587311
0.000571926
0.000557062
0.000542693
0.000528797
0.00051535
0.000502331
0.00048972
0.000477501
0.000465655
0.000454168
0.000443024
0.000432209
0.00042171
0.000411511
0.000401601
0.000391968
0.000382601
0.000373491
0.00036463
0.000356009
0.000347621
0.000339458
0.00033151
0.000323771
0.000316231
0.000308883
0.000301722
0.000294742
0.000287938
0.000281307
0.000274843
0.000268541
0.000262393
0.000256395
0.000250541
0.000244826
0.000239249
0.000233805
0.000228494
0.000223313
0.00021826
0.000213332
0.000208522
0.000203824
0.000199235
0.000194751
0.000190372
0.000186098
0.000181927
0.000177858
0.000173885
0.000170005
0.000166215
0.000162511
0.000158891
0.000155351
0.00015189
0.000148508
0.000145206
0.000141986
0.000138847
0.000135784
0.000132789
0.000129856
0.00012698
0.000124165
0.000121413
0.000118729
0.00011611
0.000113554
0.000111052
0.000108603
0.000106203
0.000103855
0.000101555
9.93028e-05
9.7095e-05
9.49326e-05
9.28196e-05
9.07608e-05
8.87568e-05
8.68018e-05
8.48853e-05
8.29976e-05
8.11362e-05
7.93068e-05
7.752e-05
7.5784e-05
7.40996e-05
7.24593e-05
7.08529e-05
6.92726e-05
6.77169e-05
6.61894e-05
6.46943e-05
6.32333e-05
6.18057e-05
6.04105e-05
5.90485e-05
5.77219e-05
5.64305e-05
5.51688e-05
5.39268e-05
5.26941e-05
5.14667e-05
5.025e-05
4.90563e-05
4.78965e-05
4.67731e-05
4.56764e-05
4.459e-05
4.34988e-05
4.23969e-05
4.12896e-05
4.01881e-05
3.91019e-05
3.80338e-05
3.69796e-05
3.59326e-05
3.48883e-05
3.38453e-05
3.28033e-05
3.17598e-05
3.07093e-05
2.96474e-05
2.85764e-05
2.75077e-05
2.64579e-05
2.54399e-05
2.44531e-05
2.34812e-05
2.24988e-05
2.1486e-05
2.04408e-05
1.93835e-05
1.83477e-05
1.73631e-05
1.64394e-05
1.55599e-05
1.46893e-05
1.3793e-05
1.28549e-05
1.18871e-05
1.09238e-05
1.00042e-05
9.15262e-06
8.36739e-06
7.62244e-06
6.88185e-06
6.11847e-06
5.32727e-06
4.52703e-06
3.75024e-06
3.02698e-06
2.37111e-06
1.77525e-06
1.21619e-06
6.67247e-07
1.10996e-07
-4.53622e-07
-1.01255e-06
-1.54468e-06
-2.03229e-06
-2.46874e-06
-2.86028e-06
-3.22189e-06
-3.56984e-06
-3.91463e-06
-4.25745e-06
-4.59116e-06
-4.90476e-06
-5.18886e-06
-5.43965e-06
-5.6599e-06
-5.85709e-06
-6.03983e-06
-6.21442e-06
-6.38292e-06
-6.54331e-06
-6.69131e-06
-6.82276e-06
-6.9357e-06
-7.03105e-06
-7.11219e-06
-7.18348e-06
-7.24879e-06
-7.31031e-06
-7.36829e-06
-7.42149e-06
-7.46815e-06
-7.50692e-06
-7.53754e-06
-7.5609e-06
-7.57877e-06
-7.59321e-06
-7.60598e-06
-7.61814e-06
-7.62997e-06
-7.64112e-06
-7.65096e-06
-7.65891e-06
-7.66468e-06
-7.66837e-06
-7.67043e-06
-7.67149e-06
-7.67216e-06
-7.67292e-06
-7.67401e-06
-7.67545e-06
-7.67712e-06
-7.6788e-06
-7.68031e-06
-7.68151e-06
-7.6824e-06
-7.68301e-06
-7.68348e-06
-7.6839e-06
-7.68438e-06
-7.68497e-06
-7.68569e-06
-7.68651e-06
-7.68739e-06
-7.68827e-06
-7.68914e-06
-7.68995e-06
-7.69071e-06
-7.69142e-06
-7.69211e-06
-7.69279e-06
-7.69348e-06
-7.69419e-06
-7.69492e-06
-7.69566e-06
-7.69642e-06
-7.69717e-06
-7.69794e-06
-7.69868e-06
-7.69944e-06
-7.70017e-06
-7.70092e-06
-7.70164e-06
-7.7024e-06
-7.70311e-06
-7.70388e-06
-7.70459e-06
-7.70537e-06
-7.70608e-06
-7.70687e-06
-7.70758e-06
-7.70838e-06
-7.70907e-06
-7.70989e-06
-7.71056e-06
-7.71139e-06
-7.71204e-06
-7.71291e-06
-7.71352e-06
-7.71443e-06
-7.71501e-06
-7.71596e-06
-7.71649e-06
-7.7175e-06
-7.71796e-06
-7.71905e-06
-7.71943e-06
-7.72063e-06
-7.7209e-06
-7.72222e-06
-7.72235e-06
-7.72385e-06
-7.7238e-06
-7.72553e-06
-7.72523e-06
-7.72726e-06
-7.72665e-06
-7.72906e-06
-7.72805e-06
-7.73097e-06
-7.72942e-06
-7.73301e-06
-7.73078e-06
-7.73522e-06
-7.7321e-06
-7.73767e-06
-7.73338e-06
-7.74043e-06
-7.73463e-06
-7.7436e-06
-7.73584e-06
-7.74731e-06
-7.737e-06
-7.75173e-06
-7.73812e-06
-7.7571e-06
-7.73921e-06
-7.76372e-06
-7.74027e-06