# vtk DataFile Version 2.0
FlowField
ASCII
DATASET STRUCTURED_GRID
DIMENSIONS 400 1 50
POINTS 20000 float
0 0 0
0.08 0 0
0.16 0 0
0.24 0 0
0.32 0 0
0.4 0 0
0.48 0 0
0.56 0 0
0.64 0 0
0.72 0 0
0.8 0 0
0.88 0 0
0.96 0 0
1.04 0 0
1.12 0 0
1.2 0 0
1.28 0 0
1.36 0 0
1.44 0 0
1.52 0 0
1.6 0 0
1.68 0 0
1.76 0 0
1.84 0 0
1.92 0 0
2 0 0
2.08 0 0
2.16 0 0
2.24 0 0
2.32 0 0
2.4 0 0
2.48 0 0
2.56 0 0
2.64 0 0
2.72 0 0
2.8 0 0
2.88 0 0
2.96 0 0
3.04 0 0
3.12 0 0
3.2 0 0
3.28 0 0
3.36 0 0
3.44 0 0
3.52 0 0
3.6 0 0
3.68 0 0
3.76 0 0
3.84 0 0
3.92 0 0
4 0 0
4.08 0 0
4.16 0 0
4.24 0 0
4.32 0 0
4.4 0 0
4.48 0 0
4.56 0 0
4.64 0 0
4.72 0 0
4.8 0 0
4.88 0 0
4.96 0 0
5.04 0 0
5.12 0 0
5.2 0 0
5.28 0 0
5.36 0 0
5.44 0 0
5.52 0 0
5.6 0 0
5.68 0 0
5.76 0 0
5.84 0 0
5.92 0 0
6 0 0
6.08 0 0
6.16 0 0
6.24 0 0
6.32 0 0
6.4 0 0
6.48 0 0
6.56 0 0
6.64 0 0
6.72 0 0
6.8 0 0
6.88 0 0
6.96 0 0
7.04 0 0
7.12 0 0
7.2 0 0
7.28 0 0
7.36 0 0
7.44 0 0
7.52 0 0
7.6 0 0
7.68 0 0
7.76 0 0
7.84 0 0
7.92 0 0
8 0 0
8.08 0 0
8.16 0 0
8.24 0 0
8.32 0 0
8.4 0 0
8.48 0 0
8.56 0 0
8.64 0 0
8.72 0 0
8.8 0 0
8.88 0 0
8.96 0 0
9.04 0 0
9.12 0 0
9.2 0 0
9.28 0 0
9.36 0 0
9.44 0 0
9.52 0 0
9.6 0 0
9.68 0 0
9.76 0 0
9.84 0 0
9.92 0 0
10 0 0
10.08 0 0
10.16 0 0
10.24 0 0
10.32 0 0
10.4 0 0
10.48 0 0
10.56 0 0
10.64 0 0
10.72 0 0
10.8 0 0
10.88 0 0
10.96 0 0
11.04 0 0
11.12 0 0
11.2 0 0
11.28 0 0
11.36 0 0
11.44 0 0
11.52 0 0
11.6 0 0
11.68 0 0
11.76 0 0
11.84 0 0
11.92 0 0
12 0 0
12.08 0 0
12.16 0 0
12.24 0 0
12.32 0 0
12.4 0 0
12.48 0 0
12.56 0 0
12.64 0 0
12.72 0 0
12.8 0 0
12.88 0 0
12.96 0 0
13.04 0 0
13.12 0 0
13.2 0 0
13.28 0 0
13.36 0 0
13.44 0 0
13.52 0 0
13.6 0 0
13.68 0 0
13.76 0 0
13.84 0 0
13.92 0 0
14 0 0
14.08 0 0
14.16 0 0
14.24 0 0
14.32 0 0
14.4 0 0
14.48 0 0
14.56 0 0
14.64 0 0
14.72 0 0
14.8 0 0
14.88 0 0
14.96 0 0
15.04 0 0
15.12 0 0
15.2 0 0
15.28 0 0
15.36 0 0
15.44 0 0
15.52 0 0
15.6 0 0
15.68 0 0
15.76 0 0
15.84 0 0
15.92 0 0
16 0 0
16.08 0 0
16.16 0 0
16.24 0 0
16.32 0 0
16.4 0 0
16.48 0 0
16.56 0 0
16.64 0 0
16.72 0 0
16.8 0 0
16.88 0 0
16.96 0 0
17.04 0 0
17.12 0 0
17.2 0 0
17.28 0 0
17.36 0 0
17.44 0 0
17.52 0 0
17.6 0 0
17.68 0 0
17.76 0 0
17.84 0 0
17.92 0 0
18 0 0
18.08 0 0
18.16 0 0
18.24 0 0
18.32 0 0
18.4 0 0
18.48 0 0
18.56 0 0
18.64 0 0
18.72 0 0
18.8 0 0
18.88 0 0
18.96 0 0
19.04 0 0
19.12 0 0
19.2 0 0
19.28 0 0
19.36 0 0
19.44 0 0
19.52 0 0
19.6 0 0
19.68 0 0
19.76 0 0
19.84 0 0
19.92 0 0
20 0 0
20.08 0 0
20.16 0 0
20.24 0 0
20.32 0 0
20.4 0 0
20.48 0 0
20.56 0 0
20.64 0 0
20.72 0 0
20.8 0 0
20.88 0 0
20.96 0 0
21.04 0 0
21.12 0 0
21.2 0 0
21.28 0 0
21.36 0 0
21.44 0 0
21.52 0 0
21.6 0 0
21.68 0 0
21.76 0 0
21.84 0 0
21.92 0 0
22 0 0
22.08 0 0
22.16 0 0
22.24 0 0
22.32 0 0
22.4 0 0
22.48 0 0
22.56 0 0
22.64 0 0
22.72 0 0
22.8 0 0
22.88 0 0
22.96 0 0
23.04 0 0
23.12 0 0
23.2 0 0
23.28 0 0
23.36 0 0
23.44 0 0
23.52 0 0
23.6 0 0
23.68 0 0
23.76 0 0
23.84 0 0
23.92 0 0
24 0 0
24.08 0 0
24.16 0 0
24.24 0 0
24.32 0 0
24.4 0 0
24.48 0 0
24.56 0 0
24.64 0 0
24.72 0 0
24.8 0 0
24.88 0 0
24.96 0 0
25.04 0 0
25.12 0 0
25.2 0 0
25.28 0 0
25.36 0 0
25.44 0 0
25.52 0 0
25.6 0 0
25.68 0 0
25.76 0 0
25.84 0 0
25.92 0 0
26 0 0
26.08 0 0
26.16 0 0
26.24 0 0
26.32 0 0
26.4 0 0
26.48 0 0
26.56 0 0
26.64 0 0
26.72 0 0
26.8 0 0
26.88 0 0
26.96 0 0
27.04 0 0
27.12 0 0
27.2 0 0
27.28 0 0
27.36 0 0
27.44 0 0
27.52 0 0
27.6 0 0
27.68 0 0
27.76 0 0
27.84 0 0
27.92 0 0
28 0 0
28.08 0 0
28.16 0 0
28.24 0 0
28.32 0 0
28.4 0 0
28.48 0 0
28.56 0 0
28.64 0 0
28.72 0 0
28.8 0 0
28.88 0 0
28.96 0 0
29.04 0 0
29.12 0 0
29.2 0 0
29.28 0 0
29.36 0 0
29.44 0 0
29.52 0 0
29.6 0 0
29.68 0 0
29.76 0 0
29.84 0 0
29.92 0 0
30 0 0
30.08 0 0
30.16 0 0
30.24 0 0
30.32 0 0
30.4 0 0
30.48 0 0
30.56 0 0
30.64 0 0
30.72 0 0
30.8 0 0
30.88 0 0
30.96 0 0
31.04 0 0
31.12 0 0
31.2 0 0
31.28 0 0
31.36 0 0
31.44 0 0
31.52 0 0
31.6 0 0
31.68 0 0
31.76 0 0
31.84 0 0
31.92 0 0
0 0.02 0
0.08 0.02 0
0.16 0.02 0
0.24 0.02 0
0.32 0.02 0
0.4 0.02 0
0.48 0.02 0
0.56 0.02 0
0.64 0.02 0
0.72 0.02 0
0.8 0.02 0
0.88 0.02 0
0.96 0.02 0
1.04 0.02 0
1.12 0.02 0
1.2 0.02 0
1.28 0.02 0
1.36 0.02 0
1.44 0.02 0
1.52 0.02 0
1.6 0.02 0
1.68 0.02 0
1.76 0.02 0
1.84 0.02 0
1.92 0.02 0
2 0.02 0
2.08 0.02 0
2.16 0.02 0
2.24 0.02 0
2.32 0.02 0
2.4 0.02 0
2.48 0.02 0
2.56 0.02 0
2.64 0.02 0
2.72 0.02 0
2.8 0.02 0
2.88 0.02 0
2.96 0.02 0
3.04 0.02 0
3.12 0.02 0
3.2 0.02 0
3.28 0.02 0
3.36 0.02 0
3.44 0.02 0
3.52 0.02 0
3.6 0.02 0
3.68 0.02 0
3.76 0.02 0
3.84 0.02 0
3.92 0.02 0
4 0.02 0
4.08 0.02 0
4.16 0.02 0
4.24 0.02 0
4.32 0.02 0
4.4 0.02 0
4.48 0.02 0
4.56 0.02 0
4.64 0.02 0
4.72 0.02 0
4.8 0.02 0
4.88 0.02 0
4.96 0.02 0
5.04 0.02 0
5.12 0.02 0
5.2 0.02 0
5.28 0.02 0
5.36 0.02 0
5.44 0.02 0
5.52 0.02 0
5.6 0.02 0
5.68 0.02 0
5.76 0.02 0
5.84 0.02 0
5.92 0.02 0
6 0.02 0
6.08 0.02 0
6.16 0.02 0
6.24 0.02 0
6.32 0.02 0
6.4 0.02 0
6.48 0.02 0
6.56 0.02 0
6.64 0.02 0
6.72 0.02 0
6.8 0.02 0
6.88 0.02 0
6.96 0.02 0
7.04 0.02 0
7.12 0.02 0
7.2 0.02 0
7.28 0.02 0
7.36 0.02 0
7.44 0.02 0
7.52 0.02 0
7.6 0.02 0
7.68 0.02 0
7.76 0.02 0
7.84 0.02 0
7.92 0.02 0
8 0.02 0
8.08 0.02 0
8.16 0.02 0
8.24 0.02 0
8.32 0.02 0
8.4 0.02 0
8.48 0.02 0
8.56 0.02 0
8.64 0.02 0
8.72 0.02 0
8.8 0.02 0
8.88 0.02 0
8.96 0.02 0
9.04 0.02 0
9.12 0.02 0
9.2 0.02 0
9.28 0.02 0
9.36 0.02 0
9.44 0.02 0
9.52 0.02 0
9.6 0.02 0
9.68 0.02 0
9.76 0.02 0
9.84 0.02 0
9.92 0.02 0
10 0.02 0
10.08 0.02 0
10.16 0.02 0
10.24 0.02 0
10.32 0.02 0
10.4 0.02 0
10.48 0.02 0
10.56 0.02 0
10.64 0.02 0
10.72 0.02 0
10.8 0.02 0
10.88 0.02 0
10.96 0.02 0
11.04 0.02 0
11.12 0.02 0
11.2 0.02 0
11.28 0.02 0
11.36 0.02 0
11.44 0.02 0
11.52 0.02 0
11.6 0.02 0
11.68 0.02 0
11.76 0.02 0
11.84 0.02 0
11.92 0.02 0
12 0.02 0
12.08 0.02 0
12.16 0.02 0
12.24 0.02 0
12.32 0.02 0
12.4 0.02 0
12.48 0.02 0
12.56 0.02 0
12.64 0.02 0
12.72 0.02 0
12.8 0.02 0
12.88 0.02 0
12.96 0.02 0
13.04 0.02 0
13.12 0.02 0
13.2 0.02 0
13.28 0.02 0
13.36 0.02 0
13.44 0.02 0
13.52 0.02 0
13.6 0.02 0
13.68 0.02 0
13.76 0.02 0
13.84 0.02 0
13.92 0.02 0
14 0.02 0
14.08 0.02 0
14.16 0.02 0
14.24 0.02 0
14.32 0.02 0
14.4 0.02 0
14.48 0.02 0
14.56 0.02 0
14.64 0.02 0
14.72 0.02 0
14.8 0.02 0
14.88 0.02 0
14.96 0.02 0
15.04 0.02 0
15.12 0.02 0
15.2 0.02 0
15.28 0.02 0
15.36 0.02 0
15.44 0.02 0
15.52 0.02 0
15.6 0.02 0
15.68 0.02 0
15.76 0.02 0
15.84 0.02 0
15.92 0.02 0
16 0.02 0
16.08 0.02 0
16.16 0.02 0
16.24 0.02 0
16.32 0.02 0
16.4 0.02 0
16.48 0.02 0
16.56 0.02 0
16.64 0.02 0
16.72 0.02 0
16.8 0.02 0
16.88 0.02 0
16.96 0.02 0
17.04 0.02 0
17.12 0.02 0
17.2 0.02 0
17.28 0.02 0
17.36 0.02 0
17.44 0.02 0
17.52 0.02 0
17.6 0.02 0
17.68 0.02 0
17.76 0.02 0
17.84 0.02 0
17.92 0.02 0
18 0.02 0
18.08 0.02 0
18.16 0.02 0
18.24 0.02 0
18.32 0.02 0
18.4 0.02 0
18.48 0.02 0
18.56 0.02 0
18.64 0.02 0
18.72 0.02 0
18.8 0.02 0
18.88 0.02 0
18.96 0.02 0
19.04 0.02 0
19.12 0.02 0
19.2 0.02 0
19.28 0.02 0
19.36 0.02 0
19.44 0.02 0
19.52 0.02 0
19.6 0.02 0
19.68 0.02 0
19.76 0.02 0
19.84 0.02 0
19.92 0.02 0
20 0.02 0
20.08 0.02 0
20.16 0.02 0
20.24 0.02 0
20.32 0.02 0
20.4 0.02 0
20.48 0.02 0
20.56 0.02 0
20.64 0.02 0
20.72 0.02 0
20.8 0.02 0
20.88 0.02 0
20.96 0.02 0
21.04 0.02 0
21.12 0.02 0
21.2 0.02 0
21.28 0.02 0
21.36 0.02 0
21.44 0.02 0
21.52 0.02 0
21.6 0.02 0
21.68 0.02 0
21.76 0.02 0
21.84 0.02 0
21.92 0.02 0
22 0.02 0
22.08 0.02 0
22.16 0.02 0
22.24 0.02 0
22.32 0.02 0
22.4 0.02 0
22.48 0.02 0
22.56 0.02 0
22.64 0.02 0
22.72 0.02 0
22.8 0.02 0
22.88 0.02 0
22.96 0.02 0
23.04 0.02 0
23.12 0.02 0
23.2 0.02 0
23.28 0.02 0
23.36 0.02 0
23.44 0.02 0
23.52 0.02 0
23.6 0.02 0
23.68 0.02 0
23.76 0.02 0
23.84 0.02 0
23.92 0.02 0
24 0.02 0
24.08 0.02 0
24.16 0.02 0
24.24 0.02 0
24.32 0.02 0
24.4 0.02 0
24.48 0.02 0
24.56 0.02 0
24.64 0.02 0
24.72 0.02 0
24.8 0.02 0
24.88 0.02 0
24.96 0.02 0
25.04 0.02 0
25.12 0.02 0
25.2 0.02 0
25.28 0.02 0
25.36 0.02 0
25.44 0.02 0
25.52 0.02 0
25.6 0.02 0
25.68 0.02 0
25.76 0.02 0
25.84 0.02 0
25.92 0.02 0
26 0.02 0
26.08 0.02 0
26.16 0.02 0
26.24 0.02 0
26.32 0.02 0
26.4 0.02 0
26.48 0.02 0
26.56 0.02 0
26.64 0.02 0
26.72 0.02 0
26.8 0.02 0
26.88 0.02 0
26.96 0.02 0
27.04 0.02 0
27.12 0.02 0
27.2 0.02 0
27.28 0.02 0
27.36 0.02 0
27.44 0.02 0
27.52 0.02 0
27.6 0.02 0
27.68 0.02 0
27.76 0.02 0
27.84 0.02 0
27.92 0.02 0
28 0.02 0
28.08 0.02 0
28.16 0.02 0
28.24 0.02 0
28.32 0.02 0
28.4 0.02 0
28.48 0.02 0
28.56 0.02 0
28.64 0.02 0
28.72 0.02 0
28.8 0.02 0
28.88 0.02 0
28.96 0.02 0
29.04 0.02 0
29.12 0.02 0
29.2 0.02 0
29.28 0.02 0
29.36 0.02 0
29.44 0.02 0
29.52 0.02 0
29.6 0.02 0
29.68 0.02 0
29.76 0.02 0
29.84 0.02 0
29.92 0.02 0
30 0.02 0
30.08 0.02 0
30.16 0.02 0
30.24 0.02 0
30.32 0.02 0
30.4 0.02 0
30.48 0.02 0
30.56 0.02 0
30.64 0.02 0
30.72 0.02 0
30.8 0.02 0
30.88 0.02 0
30.96 0.02 0
31.04 0.02 0
31.12 0.02 0
31.2 0.02 0
31.28 0.02 0
31.36 0.02 0
31.44 0.02 0
31.52 0.02 0
31.6 0.02 0
31.68 0.02 0
31.76 0.02 0
31.84 0.02 0
31.92 0.02 0
0 0.04 0
0.08 0.04 0
0.16 0.04 0
0.24 0.04 0
0.32 0.04 0
0.4 0.04 0
0.48 0.04 0
0.56 0.04 0
0.64 0.04 0
0.72 0.04 0
0.8 0.04 0
0.88 0.04 0
0.96 0.04 0
1.04 0.04 0
1.12 0.04 0
1.2 0.04 0
1.28 0.04 0
1.36 0.04 0
1.44 0.04 0
1.52 0.04 0
1.6 0.04 0
1.68 0.04 0
1.76 0.04 0
1.84 0.04 0
1.92 0.04 0
2 0.04 0
2.08 0.04 0
2.16 0.04 0
2.24 0.04 0
2.32 0.04 0
2.4 0.04 0
2.48 0.04 0
2.56 0.04 0
2.64 0.04 0
2.72 0.04 0
2.8 0.04 0
2.88 0.04 0
2.96 0.04 0
3.04 0.04 0
3.12 0.04 0
3.2 0.04 0
3.28 0.04 0
3.36 0.04 0
3.44 0.04 0
3.52 0.04 0
3.6 0.04 0
3.68 0.04 0
3.76 0.04 0
3.84 0.04 0
3.92 0.04 0
4 0.04 0
4.08 0.04 0
4.16 0.04 0
4.24 0.04 0
4.32 0.04 0
4.4 0.04 0
4.48 0.04 0
4.56 0.04 0
4.64 0.04 0
4.72 0.04 0
4.8 0.04 0
4.88 0.04 0
4.96 0.04 0
5.04 0.04 0
5.12 0.04 0
5.2 0.04 0
5.28 0.04 0
5.36 0.04 0
5.44 0.04 0
5.52 0.04 0
5.6 0.04 0
5.68 0.04 0
5.76 0.04 0
5.84 0.04 0
5.92 0.04 0
6 0.04 0
6.08 0.04 0
6.16 0.04 0
6.24 0.04 0
6.32 0.04 0
6.4 0.04 0
6.48 0.04 0
6.56 0.04 0
6.64 0.04 0
6.72 0.04 0
6.8 0.04 0
6.88 0.04 0
6.96 0.04 0
7.04 0.04 0
7.12 0.04 0
7.2 0.04 0
7.28 0.04 0
7.36 0.04 0
7.44 0.04 0
7.52 0.04 0
7.6 0.04 0
7.68 0.04 0
7.76 0.04 0
7.84 0.04 0
[...]
POINT_DATA 20000

SCALARS v float 1
LOOKUP_TABLE default
0
0
0
0
0
0
0
0
0
0
0
0
0
0
0
0
0
0
0
0
0
0
0
0
0
0
0
0
0
0
0
0
0
0
0
0
0
0
0
0
0
0
0
0
0
0
0
0
0
0
0
0
0
0
0
0
0
0
0
0
0
0
0
0
0
0
0
0
0
0
0
0
0
0
0
0
0
0
0
0
0
0
0
0
0
0
0
0
0
0
0
0
0
0
0
0
0
0
0
0
0
0
0
0
0
0
0
0
0
0
0
0
0
0
0
0
0
0
0
0
0
0
0
0
0
0
0
0
0
0
0
0
0
0
0
0
0
0
0
0
0
0
0
0
0
0
0
0
0
0
0
0
0
0
0
0
0
0
0
0
0
0
0
0
0
0
0
0
0
0
0
0
0
0
0
0
0
0
0
0
0
0
0
0
0
0
0
0
0
0
0
0
0
0
0
0
0
0
0
0
0
0
0
0
0
0
0
0
0
0
0
0
0
0
0
0
0
0
0
0
0
0
0
0
0
0
0
0
0
0
0
0
0
0
0
0
0
0
0
0
0
0
0
0
0
0
0
0
0
0
0
0
0
0
0
0
0
0
0
0
0
0
0
0
0
0
0
0
0
0
0
0
0
0
0
0
0
0
0
0
0
0
0
0
0
0
0
0
0
0
0
0
0
0
0
0
0
0
0
0
0
0
0
0
0
0
0
0
0
0
0
0
0
0
0
0
0
0
0
0
0
0
0
0
0
0
0
0
0
0
0
0
0
0
0
0
0
0
0
0
0
0
0
0
0
0
0
0
0
0
0
0
0
0
0
0
0
0
0
0
0
0
0
0
0
0
0
0
0
0
0
0
0
0
0
0
0
0
0
0
0
0
0
0
0
0
0
0
0
0
0
0
0
0
0
0
0
0
0
0
-0.123227
0.123227
0.0537923
0.0194395
0.00878361
0.00509019
0.00338822
0.00243777
0.00184794
0.00145672
0.00118447
0.00098767
0.000840809
0.000728118
0.000639482
0.000568218
0.000509795
0.000461079
0.000419854
0.000384521
0.000353908
0.000327136
0.000303534
0.000282582
0.000263872
0.000247074
0.000231923
0.000218198
0.00020572
0.000194335
0.000183914
0.000174347
0.000165542
0.000157415
0.000149897
0.000142926
0.00013645
0.000130419
0.000124794
0.000119538
0.000114616
0.000110002
0.000105668
0.000101592
9.77527e-05
9.41311e-05
9.07106e-05
8.74759e-05
8.44131e-05
8.15097e-05
7.87543e-05
7.61364e-05
7.36467e-05
7.12763e-05
6.90174e-05
6.68626e-05
6.48053e-05
6.28393e-05
6.0959e-05
5.9159e-05
5.74346e-05
5.57812e-05
5.41948e-05
5.26715e-05
5.12077e-05
4.98002e-05
4.84459e-05
4.71418e-05
4.58854e-05
4.46741e-05
4.35057e-05
4.2378e-05
4.12889e-05
4.02365e-05
3.92191e-05
3.82351e-05
3.72827e-05
3.63607e-05
3.54676e-05
3.46021e-05
3.3763e-05
3.29492e-05
3.21596e-05
3.13931e-05
3.06489e-05
2.9926e-05
2.92235e-05
2.85407e-05
2.78768e-05
2.72311e-05
2.66028e-05
2.59914e-05
2.53962e-05
2.48167e-05
2.42522e-05
2.37023e-05
2.31665e-05
2.26443e-05
2.21351e-05
2.16387e-05
2.11546e-05
2.06823e-05
2.02216e-05
1.9772e-05
1.93333e-05
1.89051e-05
1.8487e-05
1.80788e-05
1.76802e-05
1.72909e-05
1.69107e-05
1.65392e-05
1.61763e-05
1.58217e-05
1.54752e-05
1.51366e-05
1.48056e-05
1.44821e-05
1.41659e-05
1.38567e-05
1.35544e-05
1.32588e-05
1.29698e-05
1.26872e-05
1.24108e-05
1.21405e-05
1.18762e-05
1.16176e-05
1.13647e-05
1.11172e-05
1.08752e-05
1.06384e-05
1.04068e-05
1.01802e-05
9.95846e-06
9.74154e-06
9.52929e-06
9.32162e-06
9.11842e-06
8.9196e-06
8.72505e-06
8.53468e-06
8.34841e-06
8.16615e-06
7.9878e-06
7.81329e-06
7.64251e-06
7.47541e-06
7.31189e-06
7.15188e-06
6.9953e-06
6.84209e-06
6.69218e-06
6.54548e-06
6.40195e-06
6.2615e-06
6.12407e-06
5.9896e-06
5.85802e-06
5.72928e-06
5.60331e-06
5.48007e-06
5.3595e-06
5.24154e-06
5.12613e-06
5.01323e-06
4.90276e-06
4.79469e-06
4.68896e-06
4.58552e-06
4.48434e-06
4.38535e-06
4.28852e-06
4.19381e-06
4.10116e-06
4.01052e-06
3.92185e-06
3.83511e-06
3.75026e-06
3.66726e-06
3.58608e-06
3.50667e-06
3.42899e-06
3.35302e-06
3.2787e-06
3.20602e-06
3.13491e-06
3.06534e-06
2.99728e-06
2.9307e-06
2.86558e-06
2.80189e-06
2.7396e-06
2.67866e-06
2.61904e-06
2.56071e-06
2.50364e-06
2.44782e-06
2.39321e-06
2.33979e-06
2.28752e-06
2.23638e-06
2.18636e-06
2.13744e-06
2.0896e-06
2.0428e-06
1.99699e-06
1.95215e-06
1.90827e-06
1.86535e-06
1.82338e-06
1.78236e-06
1.74224e-06
1.70297e-06
1.66453e-06
1.62691e-06
1.59011e-06
1.55413e-06
1.51896e-06
1.48454e-06
1.45085e-06
1.41788e-06
1.38563e-06
1.35412e-06
1.32332e-06
1.2932e-06
1.2637e-06
1.2348e-06
1.20648e-06
1.17879e-06
1.15175e-06
1.12535e-06
1.09954e-06
1.07426e-06
1.04947e-06
1.02516e-06
1.00137e-06
9.78134e-07
9.55434e-07
9.33232e-07
9.11477e-07
8.90146e-07
8.69248e-07
8.48815e-07
8.2886e-07
8.09355e-07
7.90245e-07
7.71481e-07
7.53055e-07
7.35003e-07
7.17377e-07
7.002e-07
6.8344e-07
6.67026e-07
6.50891e-07
6.35012e-07
6.19422e-07
6.04177e-07
5.89313e-07
5.74818e-07
5.60635e-07
5.46705e-07
5.33002e-07
5.19543e-07
5.06359e-07
4.93466e-07
4.80838e-07
4.68422e-07
4.56178e-07
4.44105e-07
4.32241e-07
4.20627e-07
4.09268e-07
3.9811e-07
3.8707e-07
3.76082e-07
3.65138e-07
3.54293e-07
3.43623e-07
3.3317e-07
3.22906e-07
3.12749e-07
3.0261e-07
2.92444e-07
2.8228e-07
2.72186e-07
2.62227e-07
2.52412e-07
2.42698e-07
2.33019e-07
2.23338e-07
2.13671e-07
2.04078e-07
1.94612e-07
1.85283e-07
1.76042e-07
1.66817e-07
1.57567e-07
1.48318e-07
1.39158e-07
1.30187e-07
1.21451e-07
1.12909e-07
1.04449e-07
9.59543e-08
8.73762e-08
7.87714e-08
7.02779e-08
6.20442e-08
5.41463e-08
4.65467e-08
3.9113e-08
3.16942e-08
2.42033e-08
1.66718e-08
9.23274e-09
2.05802e-09
-4.73321e-09
-1.11272e-08
-1.7223e-08
-2.31698e-08
-2.90949e-08
-3.50306e-08
-4.09109e-08
-4.6597e-08
-5.19615e-08
-5.69355e-08
-6.15547e-08
-6.5917e-08
-7.01531e-08
-7.43386e-08
-7.84915e-08
-8.25383e-08
-8.63932e-08
-8.99605e-08
-9.32261e-08
-9.62061e-08
-9.8997e-08
-1.01658e-07
-1.04266e-07
-1.06796e-07
-1.09242e-07
-1.1151e-07
-1.13597e-07
-1.1544e-07
-1.17118e-07
-1.18615e-07
-1.20053e-07
-1.21383e-07
-1.22709e-07
-1.23909e-07
-1.25078e-07
-1.26056e-07
-1.26993e-07
-1.27721e-07
-1.28469e-07
-1.29033e-07
-1.29699e-07
-1.30175e-07
-1.30803e-07
-1.31181e-07
-1.31746e-07
-1.31983e-07
-1.32476e-07
-1.32575e-07
-1.33045e-07
-1.33043e-07
-1.33551e-07
-1.33465e-07
-1.34043e-07
-1.33848e-07
-1.34509e-07
-1.34172e-07
-1.34949e-07
-1.34454e-07
-1.35411e-07
-1.34746e-07
-1.35958e-07
-1.35097e-07
-1.36634e-07
-1.3553e-07
-1.37465e-07
-1.36071e-07
-1.38484e-07
-1.36769e-07
-1.39728e-07
-1.37706e-07
-1.412e-07
-1.38979e-07
-1.4275e-07
-1.40679e-07
-1.43795e-07
-1.42845e-07
-1.42384e-07
-1.45274e-07
-1.31328e-07
-1.4667e-07
-6.31969e-08
-1.13125e-07
-1.13125e-07
-0.142153
0.142153
0.101005
0.0539134
0.0302568
0.0189188
0.0129281
0.00941351
0.00718058
0.00567768
0.0046212
0.0038522
0.00327572
0.00283222
0.00248305
0.00220238
0.00197257
0.00178128
0.00161974
0.00148159
0.00136217
0.00125795
0.00116624
0.00108498
0.00101252
0.000947549
0.000889018
0.000836055
0.000787941
0.000744077
0.000703955
0.000667146
0.000633279
0.000602039
0.000573152
0.000546378
0.000521509
0.000498362
0.000476776
0.000456608
0.000437733
0.000420039
0.000403424
0.0003878
0.000373085
0.000359209
0.000346105
0.000333715
0.000321985
0.000310868
0.000300319
0.000290298
0.000280768
0.000271697
0.000263054
0.00025481
0.00024694
0.000239421
0.000232229
0.000225347
0.000218754
0.000212433
0.000206369
0.000200547
0.000194954
0.000189576
0.000184402
0.000179421
0.000174622
0.000169996
0.000165535
0.000161229
0.000157072
0.000153055
0.000149173
0.000145418
0.000141784
0.000138267
0.00013486
0.00013156
0.00012836
0.000125257
0.000122247
0.000119326
0.000116489
0.000113734
0.000111058
0.000108457
0.000105928
0.000103469
0.000101077
9.87488e-05
9.64831e-05
9.42771e-05
9.21289e-05
9.00364e-05
8.79977e-05
8.60109e-05
8.40744e-05
8.21864e-05
8.03453e-05
7.85498e-05
7.67982e-05
7.50893e-05
7.34218e-05
7.17944e-05
7.02058e-05
6.8655e-05
6.71407e-05
6.56621e-05
6.42179e-05
6.28074e-05
6.14294e-05
6.00832e-05
5.87679e-05
5.74825e-05
5.62264e-05
5.49987e-05
5.37987e-05
5.26257e-05
5.14789e-05
5.03578e-05
4.92616e-05
4.81898e-05
4.71417e-05
4.61168e-05
4.51145e-05
4.41342e-05
4.31754e-05
4.22376e-05
4.13203e-05
4.0423e-05
3.95452e-05
3.86866e-05
3.78465e-05
3.70247e-05
3.62207e-05
3.54341e-05
3.46645e-05
3.39116e-05
3.31748e-05
3.2454e-05
3.17487e-05
3.10587e-05
3.03835e-05
2.97229e-05
2.90765e-05
2.8444e-05
2.78252e-05
2.72196e-05
2.66271e-05
2.60474e-05
2.54802e-05
2.49252e-05
2.43822e-05
2.3851e-05
2.33311e-05
2.28225e-05
2.23249e-05
2.18381e-05
2.13618e-05
2.08958e-05
2.04399e-05
1.9994e-05
1.95577e-05
1.91309e-05
1.87133e-05
1.83049e-05
1.79053e-05
1.75144e-05
1.71321e-05
1.67581e-05
1.63922e-05
1.60344e-05
1.56844e-05
1.5342e-05
1.50071e-05
1.46795e-05
1.4359e-05
1.40456e-05
1.37391e-05
1.34392e-05
1.3146e-05
1.28591e-05
1.25786e-05
1.23042e-05
1.20358e-05
1.17732e-05
1.15163e-05
1.12651e-05
1.10194e-05
1.0779e-05
1.0544e-05
1.0314e-05
1.00891e-05
9.86904e-06
9.65376e-06
9.44319e-06
9.23721e-06
9.03572e-06
8.8386e-06
8.64576e-06
8.45715e-06
8.27268e-06
8.09226e-06
7.91575e-06
7.74303e-06
7.57399e-06
7.4086e-06
7.24684e-06
7.08869e-06
6.93405e-06
6.78279e-06
6.63477e-06
6.4899e-06
6.34815e-06
6.20952e-06
6.07397e-06
5.94142e-06
5.81174e-06
5.68483e-06
5.56066e-06
5.43923e-06
5.32055e-06
5.20452e-06
5.09102e-06
4.97988e-06
4.87103e-06
4.76447e-06
4.6603e-06
4.55853e-06
4.45911e-06
4.36185e-06
4.26659e-06
4.17322e-06
4.08176e-06
3.99229e-06
3.90485e-06
3.81938e-06
3.73575e-06
3.65382e-06
3.57353e-06
3.49492e-06
3.41805e-06
3.34292e-06
3.26942e-06
3.19739e-06
3.12672e-06
3.0574e-06
2.98955e-06
2.92327e-06
2.8586e-06
2.79538e-06
2.73342e-06
2.67254e-06
2.61272e-06
2.55406e-06
2.4967e-06
2.44071e-06
2.38599e-06
2.33238e-06
2.27972e-06
2.22796e-06
2.17714e-06
2.12733e-06
2.07855e-06
2.03068e-06
1.98359e-06
1.93717e-06
1.89143e-06
1.84648e-06
1.8024e-06
1.75913e-06
1.71651e-06
1.67428e-06
1.6323e-06
1.5906e-06
1.54933e-06
1.50869e-06
1.46874e-06
1.42934e-06
1.39023e-06
1.35121e-06
1.31218e-06
1.27327e-06
1.23468e-06
1.19655e-06
1.15887e-06
1.1215e-06
1.08426e-06
1.0471e-06
1.01008e-06
9.73397e-07
9.3716e-07
9.01357e-07
8.65836e-07
8.30422e-07
7.95054e-07
7.59865e-07
7.25118e-07
6.91056e-07
6.5774e-07
6.24995e-07
5.92498e-07
5.5998e-07
5.27397e-07
4.94993e-07
4.63181e-07
4.32333e-07
4.0257e-07
3.73704e-07
3.45335e-07
3.17091e-07
2.88829e-07
2.60744e-07
2.33264e-07
2.0685e-07
1.81754e-07
1.57916e-07
1.34994e-07
1.12579e-07
9.03794e-08
6.84005e-08
4.68986e-08
2.628e-08
6.85354e-09
-1.12689e-08
-2.8268e-08
-4.44538e-08
-6.01797e-08
-7.55989e-08
-9.07004e-08
-1.05234e-07
-1.18966e-07
-1.31664e-07
-1.43356e-07
-1.54132e-07
-1.64293e-07
-1.73984e-07
-1.834e-07
-1.9242e-07
-2.01023e-07
-2.08931e-07
-2.16186e-07
-2.22628e-07
-2.28536e-07
-2.33854e-07
-2.38956e-07
-2.43657e-07
-2.48268e-07
-2.52391e-07
-2.56353e-07
-2.59657e-07
-2.62816e-07
-2.65301e-07
-2.67855e-07
-2.69806e-07
-2.7207e-07
-2.7369e-07
-2.75766e-07
-2.77005e-07
-2.78828e-07
-2.79586e-07
-2.81171e-07
-2.81491e-07
-2.83011e-07
-2.83009e-07
-2.84646e-07
-2.84354e-07
-2.86197e-07
-2.85538e-07
-2.87641e-07
-2.86529e-07
-2.89021e-07
-2.87414e-07
-2.90506e-07
-2.88368e-07
-2.92298e-07
-2.89536e-07
-2.94534e-07
-2.91001e-07
-2.97315e-07
-2.92863e-07
-3.00775e-07
-2.95312e-07
-3.0507e-07
-2.98621e-07
-3.10235e-07
-3.03101e-07
-3.15837e-07
-3.09013e-07
-3.20067e-07
-3.16318e-07
-3.1683e-07
-3.23734e-07
-2.83941e-07
-3.24359e-07
-9.24539e-08
-2.15414e-07
-2.15414e-07
-0.122226
0.122226
0.121664
0.0822682
0.0539952
0.0368645
0.0263937
0.0197168
0.0152661
0.0121807
0.00996898
0.00833723
0.00710227
0.00614588
0.00538955
0.00477989
0.00427988
0.00386339
0.00351163
0.00321091
0.00295106
0.00272441
0.00252511
0.00234861
0.00219131
0.00205034
0.0019234
0.00180857
0.00170428
0.00160923
0.0015223
0.00144257
0.00136922
0.00130156
0.00123901
0.00118103
0.00112719
0.00107707
0.00103034
0.00098668
0.00094582
0.000907516
0.000871551
0.000837731
0.000805882
0.000775846
0.000747484
0.000720668
0.000695282
0.000671221
0.00064839
0.000626704
0.000606082
0.000586452
0.000567749
0.000549911
0.000532883
0.000516613
0.000501054
0.000486164
0.0004719
0.000458228
0.000445111
0.000432518
0.000420419
0.000408788
0.000397598
0.000386826
0.000376449
0.000366447
0.000356801
0.000347493
0.000338505
0.000329822
0.00032143
0.000313314
0.000305462
0.000297861
0.0002905
0.000283368
0.000276456
0.000269753
0.000263251
0.000256941
0.000250815
0.000244867
0.000239088
0.000233472
0.000228012
0.000222704
0.00021754
0.000212516
0.000207626
0.000202866
0.000198232
0.000193717
0.000189319
0.000185034
0.000180857
0.000176786
0.000172816
0.000168945
0.000165168
0.000161485
0.00015789
0.000154383
0.000150959
0.000147617
0.000144355
0.000141169
0.000138058
0.00013502
0.000132052
0.000129153
0.00012632
0.000123552
0.000120848
0.000118205
0.000115621
0.000113096
0.000110628
0.000108215
0.000105856
0.00010355
0.000101295
9.90897e-05
9.69334e-05
9.48246e-05
9.27622e-05
9.07451e-05
8.87722e-05
8.68425e-05
8.4955e-05
8.31086e-05
8.13025e-05
7.95356e-05
7.78071e-05
7.61162e-05
7.44619e-05
7.28434e-05
7.126e-05
6.97108e-05
6.81952e-05
6.67123e-05
6.52615e-05
6.38421e-05
6.24533e-05
6.10944e-05
5.97649e-05
5.84641e-05
5.71915e-05
5.59463e-05
5.4728e-05
5.35361e-05
5.23699e-05
5.1229e-05
5.01128e-05
4.90207e-05
4.79523e-05
4.6907e-05
4.58844e-05
4.48841e-05
4.39055e-05
4.29482e-05
4.20118e-05
4.10957e-05
4.01996e-05
3.9323e-05
3.84656e-05
3.76268e-05
3.68064e-05
3.60039e-05
3.5219e-05
3.44514e-05
3.37005e-05
3.2966e-05
3.22476e-05
3.15449e-05
3.08577e-05
3.01855e-05
2.95281e-05
2.88851e-05
2.82563e-05
2.76413e-05
2.70397e-05
2.64514e-05
2.58759e-05
2.5313e-05
2.47624e-05
2.42239e-05
2.36972e-05
2.31822e-05
2.26784e-05
2.21856e-05
2.17035e-05
2.12319e-05
2.07707e-05
2.03195e-05
1.98782e-05
1.94465e-05
1.90242e-05
1.86111e-05
1.82071e-05
1.78119e-05
1.74254e-05
1.70473e-05
1.66774e-05
1.63154e-05
1.59612e-05
1.56148e-05
1.52762e-05
1.4945e-05
1.46211e-05
1.43042e-05
1.3994e-05
1.36906e-05
1.33938e-05
1.31037e-05
1.28199e-05
1.25423e-05
1.22707e-05
1.2005e-05
1.17451e-05
1.14911e-05
1.12428e-05
1.09998e-05
1.0762e-05
1.05291e-05
1.03012e-05
1.00784e-05
9.86069e-06
9.64793e-06
9.43978e-06
9.23591e-06
9.03617e-06
8.84058e-06
8.64927e-06
8.46226e-06
8.27943e-06
8.1005e-06
7.92522e-06
7.7535e-06
7.5854e-06
7.42101e-06
7.26028e-06
7.10299e-06
6.94885e-06
6.79767e-06
6.64946e-06
6.50441e-06
6.3627e-06
6.22429e-06
6.08892e-06
5.95619e-06
5.82583e-06
5.69782e-06
5.57235e-06
5.44965e-06
5.32977e-06
5.21252e-06
5.09757e-06
4.98465e-06
4.87367e-06
4.76472e-06
4.65791e-06
4.55321e-06
4.45039e-06
4.3492e-06
4.24946e-06
4.15122e-06
4.05463e-06
3.95978e-06
3.86653e-06
3.77454e-06
3.68339e-06
3.59284e-06
3.50296e-06
3.41406e-06
3.32643e-06
3.2401e-06
3.15479e-06
3.07005e-06
2.9855e-06
2.90108e-06
2.81702e-06
2.73365e-06
2.65121e-06
2.56964e-06
2.48867e-06
2.40801e-06
2.32761e-06
2.24764e-06
2.16839e-06
2.09007e-06
2.01261e-06
1.93574e-06
1.85919e-06
1.78292e-06
1.70718e-06
1.63247e-06
1.55916e-06
1.48731e-06
1.41655e-06
1.34633e-06
1.27624e-06
1.20631e-06
1.13703e-06
1.06914e-06
1.00325e-06
9.39474e-07
8.77414e-07
8.16364e-07
7.55735e-07
6.95387e-07
6.35761e-07
5.77648e-07
5.21825e-07
4.68641e-07
4.17902e-07
3.68961e-07
3.21118e-07
2.7394e-07
2.27532e-07
1.82401e-07
1.39265e-07
9.86009e-08
6.05219e-08
2.46314e-08
-9.63866e-09
-4.28894e-08
-7.5324e-08
-1.06869e-07
-1.37048e-07
-1.65473e-07
-1.91779e-07
-2.16091e-07
-2.38605e-07
-2.59882e-07
-2.80147e-07
-2.99724e-07
-3.18345e-07
-3.35987e-07
-3.52149e-07
-3.66971e-07
-3.80182e-07
-3.92347e-07
-4.03336e-07
-4.13858e-07
-4.23513e-07
-4.32903e-07
-4.41249e-07
-4.49218e-07
-4.55861e-07
-4.62221e-07
-4.67255e-07
-4.72435e-07
-4.76411e-07
-4.80983e-07
-4.84242e-07
-4.88373e-07
-4.90817e-07
-4.94408e-07
-4.95891e-07
-4.99023e-07
-4.99656e-07
-5.02675e-07
-5.02671e-07
-5.05911e-07
-5.05314e-07
-5.0894e-07
-5.07603e-07
-5.11746e-07
-5.09518e-07
-5.14451e-07
-5.11261e-07
-5.17406e-07
-5.13171e-07
-5.2099e-07
-5.15517e-07
-5.25471e-07
-5.18466e-07
-5.31071e-07
-5.22239e-07
-5.3809e-07
-5.27227e-07
-5.46871e-07
-5.3397e-07
-5.57535e-07
-5.43065e-07
-5.69344e-07
-5.54976e-07
-5.79021e-07
-5.69438e-07
-5.75426e-07
-5.83172e-07
-5.18809e-07
-5.78933e-07
-2.06182e-07
-3.64775e-07
-3.64775e-07
-0.0942785
0.0942785
0.121016
0.0969701
0.0717943
0.0531989
0.0402019
0.0311125
0.0246588
0.0199863
0.0165333
0.0139293
0.0119264
0.0103567
0.00910437
0.00808827
0.00725093
0.00655104
0.00595847
0.00545097
0.00501187
0.00462853
0.00429121
0.0039923
0.00372579
0.00348687
0.00327162
0.00307685
0.00289991
0.00273858
0.002591
0.00245559
0.00233099
0.00221603
0.00210971
0.00201115
0.00191959
0.00183435
0.00175485
0.00168056
0.00161102
0.00154582
0.00148459
0.001427
0.00137276
0.0013216
0.00127329
0.0012276
0.00118434
0.00114334
0.00110443
0.00106747
0.00103231
0.000998848
0.00096696
0.000936546
0.000907511
0.000879767
0.000853235
0.00082784
0.000803514
0.000780195
0.000757823
0.000736344
0.000715708
0.000695869
0.000676782
0.000658408
0.000640708
0.000623648
0.000607194
0.000591317
0.000575987
0.000561177
0.000546863
0.000533021
0.000519629
0.000506667
0.000494114
0.000481952
0.000470165
0.000458736
0.000447649
0.000436891
0.000426448
0.000416307
0.000406456
0.000396883
0.000387578
0.000378531
0.000369731
0.000361169
0.000352838
0.000344727
0.000336831
0.00032914
0.000321649
0.000314349
0.000307236
0.000300302
0.000293541
0.000286949
0.00028052
0.000274248
0.000268129
0.000262159
0.000256332
0.000250644
0.000245092
0.000239671
0.000234377
0.000229207
0.000224158
0.000219226
0.000214408
0.0002097
0.000205101
0.000200606
0.000196213
0.00019192
0.000187723
0.000183621
0.000179611
0.000175691
0.000171857
0.00016811
0.000164445
0.000160861
0.000157357
0.000153929
0.000150577
0.000147299
0.000144092
0.000140956
0.000137888
0.000134887
0.000131951
0.000129079
0.00012627
0.000123522
0.000120833
0.000118203
0.00011563
0.000113112
0.000110649
0.000108239
0.000105882
0.000103576
0.000101319
9.91113e-05
9.69514e-05
9.48383e-05
9.2771e-05
9.07485e-05
8.87698e-05
8.6834e-05
8.49402e-05
8.30874e-05
8.12749e-05
7.95018e-05
7.77673e-05
7.60705e-05
7.44108e-05
7.27872e-05
7.1199e-05
6.96455e-05
6.81259e-05
6.66395e-05
6.51856e-05
6.37635e-05
6.23725e-05
6.10121e-05
5.96815e-05
5.83801e-05
5.71073e-05
5.58624e-05
5.46448e-05
5.34539e-05
5.22892e-05
5.11501e-05
5.00362e-05
4.89467e-05
4.78812e-05
4.68392e-05
4.58201e-05
4.48234e-05
4.38485e-05
4.2895e-05
4.19624e-05
4.10503e-05
4.01583e-05
3.92859e-05
3.84328e-05
3.75983e-05
3.6782e-05
3.59835e-05
3.52025e-05
3.44386e-05
3.36915e-05
3.29607e-05
3.22458e-05
3.15466e-05
3.08627e-05
3.01938e-05
2.95397e-05
2.88997e-05
2.82736e-05
2.7661e-05
2.70618e-05
2.64758e-05
2.59027e-05
2.53424e-05
2.47943e-05
2.42581e-05
2.37334e-05
2.32201e-05
2.27182e-05
2.22274e-05
2.17474e-05
2.12779e-05
2.08186e-05
2.03692e-05
1.99298e-05
1.95003e-05
1.90803e-05
1.86695e-05
1.82673e-05
1.78736e-05
1.74884e-05
1.71118e-05
1.67438e-05
1.63841e-05
1.60321e-05
1.56875e-05
1.53499e-05
1.50194e-05
1.46961e-05
1.43801e-05
1.4071e-05
1.37686e-05
1.34723e-05
1.31822e-05
1.28981e-05
1.26203e-05
1.23487e-05
1.20828e-05
1.18222e-05
1.15668e-05
1.13164e-05
1.10713e-05
1.08318e-05
1.05978e-05
1.03689e-05
1.01444e-05
9.92396e-06
9.70758e-06
9.49553e-06
9.28811e-06
9.08535e-06
8.88693e-06
8.69235e-06
8.50119e-06
8.31334e-06
8.12891e-06
7.94805e-06
7.77065e-06
7.59639e-06
7.42485e-06
7.25578e-06
7.08923e-06
6.9254e-06
6.7644e-06
6.60597e-06
6.44957e-06
6.29457e-06
6.14067e-06
5.98799e-06
5.83695e-06
5.68794e-06
5.54097e-06
5.39559e-06
5.25111e-06
5.10702e-06
4.96324e-06
4.82015e-06
4.67826e-06
4.53786e-06
4.39884e-06
4.2608e-06
4.12334e-06
3.98641e-06
3.85028e-06
3.7154e-06
3.58205e-06
3.45012e-06
3.31922e-06
3.18897e-06
3.05934e-06
2.93079e-06
2.804e-06
2.67952e-06
2.55735e-06
2.43696e-06
2.31755e-06
2.19859e-06
2.08019e-06
1.96314e-06
1.84852e-06
1.73717e-06
1.6292e-06
1.52398e-06
1.42047e-06
1.31788e-06
1.21612e-06
1.1159e-06
1.01841e-06
9.24761e-07
8.35373e-07
7.4989e-07
6.67329e-07
5.86697e-07
5.07433e-07
4.29773e-07
3.54504e-07
2.82666e-07
2.14895e-07
1.51277e-07
9.11613e-08
3.37014e-08
-2.19632e-08
-7.60662e-08
-1.2846e-07
-1.78415e-07
-2.25402e-07
-2.68923e-07
-3.09243e-07
-3.46675e-07
-3.82077e-07
-4.15738e-07
-4.48129e-07
-4.78801e-07
-5.07749e-07
-5.34222e-07
-5.5851e-07
-5.80206e-07
-6.00234e-07
-6.18349e-07
-6.35668e-07
-6.51502e-07
-6.66828e-07
-6.80384e-07
-6.93301e-07
-7.04056e-07
-7.14379e-07
-7.22567e-07
-7.31015e-07
-7.3749e-07
-7.44922e-07
-7.50173e-07
-7.56829e-07
-7.6071e-07
-7.66474e-07
-7.68801e-07
-7.73855e-07
-7.74828e-07
-7.79723e-07
-7.79661e-07
-7.8491e-07
-7.83856e-07
-7.89723e-07
-7.87448e-07
-7.94171e-07
-7.9045e-07
-7.98492e-07
-7.93208e-07
-8.03253e-07
-7.9625e-07
-8.09045e-07
-7.99983e-07
-8.16294e-07
-8.04679e-07
-8.25382e-07
-8.10704e-07
-8.3683e-07
-8.18687e-07
-8.51238e-07
-8.29475e-07
-8.68885e-07
-8.43978e-07
-8.88806e-07
-8.62842e-07
-9.06337e-07
-8.85338e-07
-9.05481e-07
-9.05053e-07
-8.30598e-07
-8.88749e-07
-4.31365e-07
-5.54661e-07