# vtk DataFile Version 2.0
FlowField
ASCII
DATASET STRUCTURED_GRID
DIMENSIONS 400 1 50
POINTS 20000 float
0 0 0
0.08 0 0
0.16 0 0
0.24 0 0
0.32 0 0
0.4 0 0
0.48 0 0
0.56 0 0
0.64 0 0
0.72 0 0
0.8 0 0
0.88 0 0
0.96 0 0
1.04 0 0
1.12 0 0
1.2 0 0
1.28 0 0
1.36 0 0
1.44 0 0
1.52 0 0
1.6 0 0
1.68 0 0
1.76 0 0
1.84 0 0
1.92 0 0
2 0 0
2.08 0 0
2.16 0 0
2.24 0 0
2.32 0 0
2.4 0 0
2.48 0 0
2.56 0 0
2.64 0 0
2.72 0 0
2.8 0 0
2.88 0 0
2.96 0 0
3.04 0 0
3.12 0 0
3.2 0 0
3.28 0 0
3.36 0 0
3.44 0 0
3.52 0 0
3.6 0 0
3.68 0 0
3.76 0 0
3.84 0 0
3.92 0 0
4 0 0
4.08 0 0
4.16 0 0
4.24 0 0
4.32 0 0
4.4 0 0
4.48 0 0
4.56 0 0
4.64 0 0
4.72 0 0
4.8 0 0
4.88 0 0
4.96 0 0
5.04 0 0
5.12 0 0
5.2 0 0
5.28 0 0
5.36 0 0
5.44 0 0
5.52 0 0
5.6 0 0
5.68 0 0
5.76 0 0
5.84 0 0
5.92 0 0
6 0 0
6.08 0 0
6.16 0 0
6.24 0 0
6.32 0 0
6.4 0 0
6.48 0 0
6.56 0 0
6.64 0 0
6.72 0 0
6.8 0 0
6.88 0 0
6.96 0 0
7.04 0 0
7.12 0 0
7.2 0 0
7.28 0 0
7.36 0 0
7.44 0 0
7.52 0 0
7.6 0 0
7.68 0 0
7.76 0 0
7.84 0 0
7.92 0 0
8 0 0
8.08 0 0
8.16 0 0
8.24 0 0
8.32 0 0
8.4 0 0
8.48 0 0
8.56 0 0
8.64 0 0
8.72 0 0
8.8 0 0
8.88 0 0
8.96 0 0
9.04 0 0
9.12 0 0
9.2 0 0
9.28 0 0
9.36 0 0
9.44 0 0
9.52 0 0
9.6 0 0
9.68 0 0
9.76 0 0
9.84 0 0
9.92 0 0
10 0 0
10.08 0 0
10.16 0 0
10.24 0 0
10.32 0 0
10.4 0 0
10.48 0 0
10.56 0 0
10.64 0 0
10.72 0 0
10.8 0 0
10.88 0 0
10.96 0 0
11.04 0 0
11.12 0 0
11.2 0 0
11.28 0 0
11.36 0 0
11.44 0 0
11.52 0 0
11.6 0 0
11.68 0 0
11.76 0 0
11.84 0 0
11.92 0 0
12 0 0
12.08 0 0
12.16 0 0
12.24 0 0
12.32 0 0
12.4 0 0
12.48 0 0
12.56 0 0
12.64 0 0
12.72 0 0
12.8 0 0
12.88 0 0
12.96 0 0
13.04 0 0
13.12 0 0
13.2 0 0
13.28 0 0
13.36 0 0
13.44 0 0
13.52 0 0
13.6 0 0
13.68 0 0
13.76 0 0
13.84 0 0
13.92 0 0
14 0 0
14.08 0 0
14.16 0 0
14.24 0 0
14.32 0 0
14.4 0 0
14.48 0 0
14.56 0 0
14.64 0 0
14.72 0 0
14.8 0 0
14.88 0 0
14.96 0 0
15.04 0 0
15.12 0 0
15.2 0 0
15.28 0 0
15.36 0 0
15.44 0 0
15.52 0 0
15.6 0 0
15.68 0 0
15.76 0 0
15.84 0 0
15.92 0 0
16 0 0
16.08 0 0
16.16 0 0
16.24 0 0
16.32 0 0
16.4 0 0
16.48 0 0
16.56 0 0
16.64 0 0
16.72 0 0
16.8 0 0
16.88 0 0
16.96 0 0
17.04 0 0
17.12 0 0
17.2 0 0
17.28 0 0
17.36 0 0
17.44 0 0
17.52 0 0
17.6 0 0
17.68 0 0
17.76 0 0
17.84 0 0
17.92 0 0
18 0 0
18.08 0 0
18.16 0 0
18.24 0 0
18.32 0 0
18.4 0 0
18.48 0 0
18.56 0 0
18.64 0 0
18.72 0 0
18.8 0 0
18.88 0 0
18.96 0 0
19.04 0 0
19.12 0 0
19.2 0 0
19.28 0 0
19.36 0 0
19.44 0 0
19.52 0 0
19.6 0 0
19.68 0 0
19.76 0 0
19.84 0 0
19.92 0 0
20 0 0
20.08 0 0
20.16 0 0
20.24 0 0
20.32 0 0
20.4 0 0
20.48 0 0
20.56 0 0
20.64 0 0
20.72 0 0
20.8 0 0
20.88 0 0
20.96 0 0
21.04 0 0
21.12 0 0
21.2 0 0
21.28 0 0
21.36 0 0
21.44 0 0
21.52 0 0
21.6 0 0
21.68 0 0
21.76 0 0
21.84 0 0
21.92 0 0
22 0 0
22.08 0 0
22.16 0 0
22.24 0 0
22.32 0 0
22.4 0 0
22.48 0 0
22.56 0 0
22.64 0 0
22.72 0 0
22.8 0 0
22.88 0 0
22.96 0 0
23.04 0 0
23.12 0 0
23.2 0 0
23.28 0 0
23.36 0 0
23.44 0 0
23.52 0 0
23.6 0 0
23.68 0 0
23.76 0 0
23.84 0 0
23.92 0 0
24 0 0
24.08 0 0
24.16 0 0
24.24 0 0
24.32 0 0
24.4 0 0
24.48 0 0
24.56 0 0
24.64 0 0
24.72 0 0
24.8 0 0
24.88 0 0
24.96 0 0
25.04 0 0
25.12 0 0
25.2 0 0
25.28 0 0
25.36 0 0
25.44 0 0
25.52 0 0
25.6 0 0
25.68 0 0
25.76 0 0
25.84 0 0
25.92 0 0
26 0 0
26.08 0 0
26.16 0 0
26.24 0 0
26.32 0 0
26.4 0 0
26.48 0 0
26.56 0 0
26.64 0 0
26.72 0 0
26.8 0 0
26.88 0 0
26.96 0 0
27.04 0 0
27.12 0 0
27.2 0 0
27.28 0 0
27.36 0 0
27.44 0 0
27.52 0 0
27.6 0 0
27.68 0 0
27.76 0 0
27.84 0 0
27.92 0 0
28 0 0
28.08 0 0
28.16 0 0
28.24 0 0
28.32 0 0
28.4 0 0
28.48 0 0
28.56 0 0
28.64 0 0
28.72 0 0
28.8 0 0
28.88 0 0
28.96 0 0
29.04 0 0
29.12 0 0
29.2 0 0
29.28 0 0
29.36 0 0
29.44 0 0
29.52 0 0
29.6 0 0
29.68 0 0
29.76 0 0
29.84 0 0
29.92 0 0
30 0 0
30.08 0 0
30.16 0 0
30.24 0 0
30.32 0 0
30.4 0 0
30.48 0 0
30.56 0 0
30.64 0 0
30.72 0 0
30.8 0 0
30.88 0 0
30.96 0 0
31.04 0 0
31.12 0 0
31.2 0 0
31.28 0 0
31.36 0 0
31.44 0 0
31.52 0 0
31.6 0 0
31.68 0 0
31.76 0 0
31.84 0 0
31.92 0 0
0 0.02 0
0.08 0.02 0
0.16 0.02 0
0.24 0.02 0
0.32 0.02 0
0.4 0.02 0
0.48 0.02 0
0.56 0.02 0
0.64 0.02 0
0.72 0.02 0
0.8 0.02 0
0.88 0.02 0
0.96 0.02 0
1.04 0.02 0
1.12 0.02 0
1.2 0.02 0
1.28 0.02 0
1.36 0.02 0
1.44 0.02 0
1.52 0.02 0
1.6 0.02 0
1.68 0.02 0
1.76 0.02 0
1.84 0.02 0
1.92 0.02 0
2 0.02 0
2.08 0.02 0
2.16 0.02 0
2.24 0.02 0
2.32 0.02 0
2.4 0.02 0
2.48 0.02 0
2.56 0.02 0
2.64 0.02 0
2.72 0.02 0
2.8 0.02 0
2.88 0.02 0
2.96 0.02 0
3.04 0.02 0
3.12 0.02 0
3.2 0.02 0
3.28 0.02 0
3.36 0.02 0
3.44 0.02 0
3.52 0.02 0
3.6 0.02 0
3.68 0.02 0
3.76 0.02 0
3.84 0.02 0
3.92 0.02 0
4 0.02 0
4.08 0.02 0
4.16 0.02 0
4.24 0.02 0
4.32 0.02 0
4.4 0.02 0
4.48 0.02 0
4.56 0.02 0
4.64 0.02 0
4.72 0.02 0
4.8 0.02 0
4.88 0.02 0
4.96 0.02 0
5.04 0.02 0
5.12 0.02 0
5.2 0.02 0
5.28 0.02 0
5.36 0.02 0
5.44 0.02 0
5.52 0.02 0
5.6 0.02 0
5.68 0.02 0
5.76 0.02 0
5.84 0.02 0
5.92 0.02 0
6 0.02 0
6.08 0.02 0
6.16 0.02 0
6.24 0.02 0
6.32 0.02 0
6.4 0.02 0
6.48 0.02 0
6.56 0.02 0
6.64 0.02 0
6.72 0.02 0
6.8 0.02 0
6.88 0.02 0
6.96 0.02 0
7.04 0.02 0
7.12 0.02 0
7.2 0.02 0
7.28 0.02 0
7.36 0.02 0
7.44 0.02 0
7.52 0.02 0
7.6 0.02 0
7.68 0.02 0
7.76 0.02 0
7.84 0.02 0
7.92 0.02 0
8 0.02 0
8.08 0.02 0
8.16 0.02 0
8.24 0.02 0
8.32 0.02 0
8.4 0.02 0
8.48 0.02 0
8.56 0.02 0
8.64 0.02 0
8.72 0.02 0
8.8 0.02 0
8.88 0.02 0
8.96 0.02 0
9.04 0.02 0
9.12 0.02 0
9.2 0.02 0
9.28 0.02 0
9.36 0.02 0
9.44 0.02 0
9.52 0.02 0
9.6 0.02 0
9.68 0.02 0
9.76 0.02 0
9.84 0.02 0
9.92 0.02 0
10 0.02 0
10.08 0.02 0
10.16 0.02 0
10.24 0.02 0
10.32 0.02 0
10.4 0.02 0
10.48 0.02 0
10.56 0.02 0
10.64 0.02 0
10.72 0.02 0
10.8 0.02 0
10.88 0.02 0
10.96 0.02 0
11.04 0.02 0
11.12 0.02 0
11.2 0.02 0
11.28 0.02 0
11.36 0.02 0
11.44 0.02 0
11.52 0.02 0
11.6 0.02 0
11.68 0.02 0
11.76 0.02 0
11.84 0.02 0
11.92 0.02 0
12 0.02 0
12.08 0.02 0
12.16 0.02 0
12.24 0.02 0
12.32 0.02 0
12.4 0.02 0
12.48 0.02 0
12.56 0.02 0
12.64 0.02 0
12.72 0.02 0
12.8 0.02 0
12.88 0.02 0
12.96 0.02 0
13.04 0.02 0
13.12 0.02 0
13.2 0.02 0
13.28 0.02 0
13.36 0.02 0
13.44 0.02 0
13.52 0.02 0
13.6 0.02 0
13.68 0.02 0
13.76 0.02 0
13.84 0.02 0
13.92 0.02 0
14 0.02 0
14.08 0.02 0
14.16 0.02 0
14.24 0.02 0
14.32 0.02 0
14.4 0.02 0
14.48 0.02 0
14.56 0.02 0
14.64 0.02 0
14.72 0.02 0
14.8 0.02 0
14.88 0.02 0
14.96 0.02 0
15.04 0.02 0
15.12 0.02 0
15.2 0.02 0
15.28 0.02 0
15.36 0.02 0
15.44 0.02 0
15.52 0.02 0
15.6 0.02 0
15.68 0.02 0
15.76 0.02 0
15.84 0.02 0
15.92 0.02 0
16 0.02 0
16.08 0.02 0
16.16 0.02 0
16.24 0.02 0
16.32 0.02 0
16.4 0.02 0
16.48 0.02 0
16.56 0.02 0
16.64 0.02 0
16.72 0.02 0
16.8 0.02 0
16.88 0.02 0
16.96 0.02 0
17.04 0.02 0
17.12 0.02 0
17.2 0.02 0
17.28 0.02 0
17.36 0.02 0
17.44 0.02 0
17.52 0.02 0
17.6 0.02 0
17.68 0.02 0
17.76 0.02 0
17.84 0.02 0
17.92 0.02 0
18 0.02 0
18.08 0.02 0
18.16 0.02 0
18.24 0.02 0
18.32 0.02 0
18.4 0.02 0
18.48 0.02 0
18.56 0.02 0
18.64 0.02 0
18.72 0.02 0
18.8 0.02 0
18.88 0.02 0
18.96 0.02 0
19.04 0.02 0
19.12 0.02 0
19.2 0.02 0
19.28 0.02 0
19.36 0.02 0
19.44 0.02 0
19.52 0.02 0
19.6 0.02 0
19.68 0.02 0
19.76 0.02 0
19.84 0.02 0
19.92 0.02 0
20 0.02 0
20.08 0.02 0
20.16 0.02 0
20.24 0.02 0
20.32 0.02 0
20.4 0.02 0
20.48 0.02 0
20.56 0.02 0
20.64 0.02 0
20.72 0.02 0
20.8 0.02 0
20.88 0.02 0
20.96 0.02 0
21.04 0.02 0
21.12 0.02 0
21.2 0.02 0
21.28 0.02 0
21.36 0.02 0
21.44 0.02 0
21.52 0.02 0
21.6 0.02 0
21.68 0.02 0
21.76 0.02 0
21.84 0.02 0
21.92 0.02 0
22 0.02 0
22.08 0.02 0
22.16 0.02 0
22.24 0.02 0
22.32 0.02 0
22.4 0.02 0
22.48 0.02 0
22.56 0.02 0
22.64 0.02 0
22.72 0.02 0
22.8 0.02 0
22.88 0.02 0
22.96 0.02 0
23.04 0.02 0
23.12 0.02 0
23.2 0.02 0
23.28 0.02 0
23.36 0.02 0
23.44 0.02 0
23.52 0.02 0
23.6 0.02 0
23.68 0.02 0
23.76 0.02 0
23.84 0.02 0
23.92 0.02 0
24 0.02 0
24.08 0.02 0
24.16 0.02 0
24.24 0.02 0
24.32 0.02 0
24.4 0.02 0
24.48 0.02 0
24.56 0.02 0
24.64 0.02 0
24.72 0.02 0
24.8 0.02 0
24.88 0.02 0
24.96 0.02 0
25.04 0.02 0
25.12 0.02 0
25.2 0.02 0
25.28 0.02 0
25.36 0.02 0
25.44 0.02 0
25.52 0.02 0
25.6 0.02 0
25.68 0.02 0
25.76 0.02 0
25.84 0.02 0
25.92 0.02 0
26 0.02 0
26.08 0.02 0
26.16 0.02 0
26.24 0.02 0
26.32 0.02 0
26.4 0.02 0
26.48 0.02 0
26.56 0.02 0
26.64 0.02 0
26.72 0.02 0
26.8 0.02 0
26.88 0.02 0
26.96 0.02 0
27.04 0.02 0
27.12 0.02 0
27.2 0.02 0
27.28 0.02 0
27.36 0.02 0
27.44 0.02 0
27.52 0.02 0
27.6 0.02 0
27.68 0.02 0
27.76 0.02 0
27.84 0.02 0
27.92 0.02 0
28 0.02 0
28.08 0.02 0
28.16 0.02 0
28.24 0.02 0
28.32 0.02 0
28.4 0.02 0
28.48 0.02 0
28.56 0.02 0
28.64 0.02 0
28.72 0.02 0
28.8 0.02 0
28.88 0.02 0
28.96 0.02 0
29.04 0.02 0
29.12 0.02 0
29.2 0.02 0
29.28 0.02 0
29.36 0.02 0
29.44 0.02 0
29.52 0.02 0
29.6 0.02 0
29.68 0.02 0
29.76 0.02 0
29.84 0.02 0
29.92 0.02 0
30 0.02 0
30.08 0.02 0
30.16 0.02 0
30.24 0.02 0
30.32 0.02 0
30.4 0.02 0
30.48 0.02 0
30.56 0.02 0
30.64 0.02 0
30.72 0.02 0
30.8 0.02 0
30.88 0.02 0
30.96 0.02 0
31.04 0.02 0
31.12 0.02 0
31.2 0.02 0
31.28 0.02 0
31.36 0.02 0
31.44 0.02 0
31.52 0.02 0
31.6 0.02 0
31.68 0.02 0
31.76 0.02 0
31.84 0.02 0
31.92 0.02 0
0 0.04 0
0.08 0.04 0
0.16 0.04 0
0.24 0.04 0
0.32 0.04 0
0.4 0.04 0
0.48 0.04 0
0.56 0.04 0
0.64 0.04 0
0.72 0.04 0
0.8 0.04 0
0.88 0.04 0
0.96 0.04 0
1.04 0.04 0
1.12 0.04 0
1.2 0.04 0
1.28 0.04 0
1.36 0.04 0
1.44 0.04 0
1.52 0.04 0
1.6 0.04 0
1.68 0.04 0
1.76 0.04 0
1.84 0.04 0
1.92 0.04 0
2 0.04 0
2.08 0.04 0
2.16 0.04 0
2.24 0.04 0
2.32 0.04 0
2.4 0.04 0
2.48 0.04 0
2.56 0.04 0
2.64 0.04 0
2.72 0.04 0
2.8 0.04 0
2.88 0.04 0
2.96 0.04 0
3.04 0.04 0
3.12 0.04 0
3.2 0.04 0
3.28 0.04 0
3.36 0.04 0
3.44 0.04 0
3.52 0.04 0
3.6 0.04 0
3.68 0.04 0
3.76 0.04 0
3.84 0.04 0
3.92 0.04 0
4 0.04 0
4.08 0.04 0
4.16 0.04 0
4.24 0.04 0
4.32 0.04 0
4.4 0.04 0
4.48 0.04 0
4.56 0.04 0
4.64 0.04 0
4.72 0.04 0
4.8 0.04 0
4.88 0.04 0
4.96 0.04 0
5.04 0.04 0
5.12 0.04 0
5.2 0.04 0
5.28 0.04 0
5.36 0.04 0
5.44 0.04 0
5.52 0.04 0
5.6 0.04 0
5.68 0.04 0
5.76 0.04 0
5.84 0.04 0
5.92 0.04 0
6 0.04 0
6.08 0.04 0
6.16 0.04 0
6.24 0.04 0
6.32 0.04 0
6.4 0.04 0
6.48 0.04 0
6.56 0.04 0
6.64 0.04 0
6.72 0.04 0
6.8 0.04 0
6.88 0.04 0
6.96 0.04 0
7.04 0.04 0
7.12 0.04 0
7.2 0.04 0
7.28 0.04 0
7.36 0.04 0
7.44 0.04 0
7.52 0.04 0
7.6 0.04 0
7.68 0.04 0
7.76 0.04 0
7.84 0.04 0
[...]
POINT_DATA 20000

SCALARS u float 1
LOOKUP_TABLE default
0
-0.507097
-0.291931
-0.214202
-0.179345
-0.159441
-0.146219
-0.136701
-0.129921
-0.125545
-0.123149
-0.122127
-0.121888
-0.122014
-0.122268
-0.122537
-0.122776
-0.122971
-0.123124
-0.123242
-0.123334
-0.123409
-0.123471
-0.123525
-0.123574
-0.123619
-0.123661
-0.123701
-0.123739
-0.123775
-0.123808
-0.123839
-0.123867
-0.123893
-0.123915
-0.123934
-0.12395
-0.123961
-0.123969
-0.123973
-0.123972
-0.123966
-0.123956
-0.12394
-0.123918
-0.123891
-0.123858
-0.123818
-0.123771
-0.123717
-0.123656
-0.123587
-0.123509
-0.123423
-0.123328
-0.123224
-0.123109
-0.122985
-0.122849
-0.122703
-0.122545
-0.122375
-0.122192
-0.121996
-0.121786
-0.121562
-0.121324
-0.12107
-0.120801
-0.120515
-0.120212
-0.119892
-0.119554
-0.119197
-0.11882
-0.118424
-0.118007
-0.117569
-0.11711
-0.116628
-0.116123
-0.115594
-0.115042
-0.114464
-0.113861
-0.113232
-0.112576
-0.111893
-0.111182
-0.110442
-0.109674
-0.108876
-0.108048
-0.107189
-0.106299
-0.105377
-0.104423
-0.103437
-0.102418
-0.101365
-0.100278
-0.0991577
-0.0980026
-0.0968128
-0.0955881
-0.0943281
-0.0930329
-0.0917021
-0.0903358
-0.0889338
-0.0874963
-0.0860231
-0.0845143
-0.0829702
-0.0813909
-0.0797765
-0.0781275
-0.0764441
-0.0747266
-0.0729756
-0.0711916
-0.069375
-0.0675265
-0.0656467
-0.0637364
-0.0617963
-0.0598273
-0.0578302
-0.055806
-0.0537557
-0.0516803
-0.049581
-0.0474589
-0.0453152
-0.0431512
-0.0409682
-0.0387676
-0.0365508
-0.0343192
-0.0320744
-0.0298179
-0.0275513
-0.0252762
-0.0229942
-0.0207072
-0.0184167
-0.0161246
-0.0138325
-0.0115424
-0.00925595
-0.00697508
-0.00470156
-0.0024373
-0.000184081
0.00205616
0.00428165
0.00649047
0.00868085
0.0108509
0.0129989
0.0151229
0.0172212
0.0192922
0.021334
0.023345
0.0253235
0.0272679
0.0291767
0.0310484
0.0328814
0.0346744
0.0364259
0.0381347
0.0397995
0.0414191
0.0429925
0.0445183
0.0459959
0.047424
0.048802
0.0501289
0.0514042
0.052627
0.0537969
0.0549133
0.0559757
0.0569838
0.0579374
0.0588361
0.0596799
0.0604686
0.0612022
0.0618809
0.0625046
0.0630737
0.0635884
0.0640489
0.0644558
0.0648093
0.0651102
0.0653588
0.0655558
0.0657019
0.0657979
0.0658443
0.0658422
0.0657923
0.0656956
0.0655528
0.0653652
0.0651335
0.064859
0.0645425
0.0641853
0.0637883
0.0633528
0.0628799
0.0623707
0.0618264
0.0612483
0.0606373
0.0599949
0.059322
0.0586201
0.0578901
0.0571335
0.0563512
0.0555446
0.0547147
0.0538627
0.0529898
0.0520972
0.0511858
0.0502569
0.0493115
0.0483506
0.0473754
0.0463868
0.0453857
0.0443734
0.0433505
0.0423182
0.0412772
0.0402285
0.0391729
0.0381112
0.0370442
0.0359728
0.0348976
0.0338193
0.0327387
0.0316564
0.030573
0.0294892
0.0284055
0.0273225
0.0262407
0.0251606
0.0240826
0.0230074
0.0219351
0.0208664
0.0198014
0.0187407
0.0176845
0.0166332
0.0155869
0.0145462
0.013511
0.0124817
0.0114585
0.0104416
0.00943114
0.00842732
0.00743022
0.00644003
0.0054568
0.0044807
0.00351172
0.00255002
0.00159557
0.000648503
-0.000291235
-0.00122354
-0.00214848
-0.00306598
-0.00397612
-0.00487884
-0.00577423
-0.00666226
-0.00754304
-0.00841654
-0.00928288
-0.0101421
-0.0109942
-0.0118393
-0.0126775
-0.0135088
-0.0143334
-0.0151512
-0.0159625
-0.0167672
-0.0175655
-0.0183575
-0.0191432
-0.0199228
-0.0206964
-0.021464
-0.0222258
-0.0229818
-0.0237323
-0.0244772
-0.0252167
-0.0259508
-0.0266798
-0.0274036
-0.0281224
-0.0288363
-0.0295454
-0.0302498
-0.0309496
-0.0316448
-0.0323357
-0.0330223
-0.0337047
-0.0343829
-0.0350572
-0.0357274
-0.0363939
-0.0370566
-0.0377157
-0.0383712
-0.0390232
-0.0396718
-0.0403172
-0.0409592
-0.0415982
-0.0422341
-0.042867
-0.0434969
-0.0441241
-0.0447484
-0.0453701
-0.0459892
-0.0466057
-0.0472197
-0.0478314
-0.0484406
-0.0490476
-0.0496524
-0.0502551
-0.0508556
-0.0514542
-0.0520507
-0.0526454
-0.0532382
-0.0538293
-0.0544186
-0.0550063
-0.0555923
-0.0561768
-0.0567598
-0.0573413
-0.0579215
-0.0585004
-0.0590779
-0.0596543
-0.0602295
-0.0608037
-0.0613768
-0.0619489
-0.0625201
-0.0630904
-0.06366
-0.0642288
-0.0647969
-0.0653645
-0.0659315
-0.066498
-0.0670641
-0.0676299
-0.0681953
-0.0687606
-0.0693258
-0.0698909
-0.070456
-0.0710213
-0.0715867
-0.0721524
-0.0727186
-0.0732854
-0.073853
-0.0744219
-0.0749927
-0.0755653
-0.076156
-0.0766886
-0.0774819
-0.0774819
-0.0774819
1
0.507097
0.291931
0.214202
0.179345
0.159441
0.146219
0.136701
0.129921
0.125545
0.123149
0.122127
0.121888
0.122014
0.122268
0.122537
0.122776
0.122971
0.123124
0.123242
0.123334
0.123409
0.123471
0.123525
0.123574
0.123619
0.123661
0.123701
0.123739
0.123775
0.123808
0.123839
0.123867
0.123893
0.123915
0.123934
0.12395
0.123961
0.123969
0.123973
0.123972
0.123966
0.123956
0.12394
0.123918
0.123891
0.123858
0.123818
0.123771
0.123717
0.123656
0.123587
0.123509
0.123423
0.123328
0.123224
0.123109
0.122985
0.122849
0.122703
0.122545
0.122375
0.122192
0.121996
0.121786
0.121562
0.121324
0.12107
0.120801
0.120515
0.120212
0.119892
0.119554
0.119197
0.11882
0.118424
0.118007
0.117569
0.11711
0.116628
0.116123
0.115594
0.115042
0.114464
0.113861
0.113232
0.112576
0.111893
0.111182
0.110442
0.109674
0.108876
0.108048
0.107189
0.106299
0.105377
0.104423
0.103437
0.102418
0.101365
0.100278
0.0991577
0.0980026
0.0968128
0.0955881
0.0943281
0.0930329
0.0917021
0.0903358
0.0889338
0.0874963
0.0860231
0.0845143
0.0829702
0.0813909
0.0797765
0.0781275
0.0764441
0.0747266
0.0729756
0.0711916
0.069375
0.0675265
0.0656467
0.0637364
0.0617963
0.0598273
0.0578302
0.055806
0.0537557
0.0516803
0.049581
0.0474589
0.0453152
0.0431512
0.0409682
0.0387676
0.0365508
0.0343192
0.0320744
0.0298179
0.0275513
0.0252762
0.0229942
0.0207072
0.0184167
0.0161246
0.0138325
0.0115424
0.00925595
0.00697508
0.00470156
0.0024373
0.000184081
-0.00205616
-0.00428165
-0.00649047
-0.00868085
-0.0108509
-0.0129989
-0.0151229
-0.0172212
-0.0192922
-0.021334
-0.023345
-0.0253235
-0.0272679
-0.0291767
-0.0310484
-0.0328814
-0.0346744
-0.0364259
-0.0381347
-0.0397995
-0.0414191
-0.0429925
-0.0445183
-0.0459959
-0.047424
-0.048802
-0.0501289
-0.0514042
-0.052627
-0.0537969
-0.0549133
-0.0559757
-0.0569838
-0.0579374
-0.0588361
-0.0596799
-0.0604686
-0.0612022
-0.0618809
-0.0625046
-0.0630737
-0.0635884
-0.0640489
-0.0644558
-0.0648093
-0.0651102
-0.0653588
-0.0655558
-0.0657019
-0.0657979
-0.0658443
-0.0658422
-0.0657923
-0.0656956
-0.0655528
-0.0653652
-0.0651335
-0.064859
-0.0645425
-0.0641853
-0.0637883
-0.0633528
-0.0628799
-0.0623707
-0.0618264
-0.0612483
-0.0606373
-0.0599949
-0.059322
-0.0586201
-0.0578901
-0.0571335
-0.0563512
-0.0555446
-0.0547147
-0.0538627
-0.0529898
-0.0520972
-0.0511858
-0.0502569
-0.0493115
-0.0483506
-0.0473754
-0.0463868
-0.0453857
-0.0443734
-0.0433505
-0.0423182
-0.0412772
-0.0402285
-0.0391729
-0.0381112
-0.0370442
-0.0359728
-0.0348976
-0.0338193
-0.0327387
-0.0316564
-0.030573
-0.0294892
-0.0284055
-0.0273225
-0.0262407
-0.0251606
-0.0240826
-0.0230074
-0.0219351
-0.0208664
-0.0198014
-0.0187407
-0.0176845
-0.0166332
-0.0155869
-0.0145462
-0.013511
-0.0124817
-0.0114585
-0.0104416
-0.00943114
-0.00842732
-0.00743022
-0.00644003
-0.0054568
-0.0044807
-0.00351172
-0.00255002
-0.00159557
-0.000648503
0.000291235
0.00122354
0.00214848
0.00306598
0.00397612
0.00487884
0.00577423
0.00666226
0.00754304
0.00841654
0.00928288
0.0101421
0.0109942
0.0118393
0.0126775
0.0135088
0.0143334
0.0151512
0.0159625
0.0167672
0.0175655
0.0183575
0.0191432
0.0199228
0.0206964
0.021464
0.0222258
0.0229818
0.0237323
0.0244772
0.0252167
0.0259508
0.0266798
0.0274036
0.0281224
0.0288363
0.0295454
0.0302498
0.0309496
0.0316448
0.0323357
0.0330223
0.0337047
0.0343829
0.0350572
0.0357274
0.0363939
0.0370566
0.0377157
0.0383712
0.0390232
0.0396718
0.0403172
0.0409592
0.0415982
0.0422341
0.042867
0.0434969
0.0441241
0.0447484
0.0453701
0.0459892
0.0466057
0.0472197
0.0478314
0.0484406
0.0490476
0.0496524
0.0502551
0.0508556
0.0514542
0.0520507
0.0526454
0.0532382
0.0538293
0.0544186
0.0550063
0.0555923
0.0561768
0.0567598
0.0573413
0.0579215
0.0585004
0.0590779
0.0596543
0.0602295
0.0608037
0.0613768
0.0619489
0.0625201
0.0630904
0.06366
0.0642288
0.0647969
0.0653645
0.0659315
0.066498
0.0670641
0.0676299
0.0681953
0.0687606
0.0693258
0.0698909
0.070456
0.0710213
0.0715867
0.0721524
0.0727186
0.0732854
0.073853
0.0744219
0.0749927
0.0755653
0.076156
0.0766886
0.0774819
0.0774819
0.0774819
1
0.924324
0.735437
0.597611
0.512504
0.458397
0.421149
0.394178
0.375087
0.36275
0.355794
0.352528
0.35142
0.351392
0.351813
0.352363
0.352895
0.353356
0.353738
0.354051
0.354311
0.354535
0.354735
0.354919
0.355093
0.355262
0.355425
0.355586
0.355744
0.3559
0.356053
0.356203
0.356351
0.356495
0.356636
0.356773
0.356907
0.357035
0.357159
0.357278
0.357392
0.3575
0.357602
0.357697
0.357785
0.357867
0.35794
0.358006
0.358063
0.358111
0.35815
0.358178
0.358196
0.358204
0.3582
0.358183
0.358154
0.358112
0.358056
0.357985
0.3579
0.357798
0.35768
0.357544
0.357391
0.357219
0.357028
0.356816
0.356583
0.356328
0.356051
0.35575
0.355424
0.355073
0.354696
0.354292
0.353859
0.353398
0.352907
0.352384
0.35183
0.351243
0.350622
0.349966
0.349275
0.348546
0.347779
0.346974
0.346129
0.345243
0.344315
0.343344
0.342329
0.341269
0.340164
0.339012
0.337812
0.336564
0.335266
0.333918
0.332519
0.331067
0.329563
0.328006
0.326394
0.324728
0.323006
0.321228
0.319393
0.317501
0.315551
0.313544
0.311478
0.309353
0.307169
0.304927
0.302625
0.300264
0.297844
0.295364
0.292826
0.290229
0.287573
0.28486
0.282088
0.27926
0.276375
0.273435
0.270439
0.26739
0.264287
0.261131
0.257925
0.254669
0.251364
0.248011
0.244613
0.24117
0.237684
0.234157
0.23059
0.226986
0.223345
0.21967
0.215964
0.212227
0.208463
0.204672
0.200859
0.197024
0.19317
0.189299
0.185415
0.181519
0.177614
0.173702
0.169786
0.165868
0.161952
0.158039
0.154133
0.150235
0.146349
0.142477
0.138622
0.134786
0.130973
0.127183
0.123421
0.119687
0.115986
0.11232
0.10869
0.105099
0.10155
0.098044
0.0945842
0.0911722
0.0878104
0.0845005
0.0812446
0.0780445
0.074902
0.0718188
0.0687965
0.0658367
0.0629409
0.0601103
0.0573465
0.0546504
0.0520234
0.0494662
0.0469802
0.0445658
0.0422242
0.0399558
0.0377613
0.0356412
0.033596
0.0316258
0.0297312
0.0279121
0.0261688
0.0245011
0.0229091
0.0213926
0.0199514
0.0185851
0.0172935
0.016076
0.0149322
0.0138615
0.0128634
0.011937
0.0110817
0.0102966
0.00958105
0.00893392
0.00835446
0.00784152
0.00739423
0.00701138
0.00669203
0.00643488
0.00623894
0.00610287
0.00602562
0.00600579
0.00604229
0.0061337
0.0062789
0.00647644
0.00672517
0.00702364
0.00737068
0.00776483
0.00820492
0.00868949
0.00921737
0.00978712
0.0103976
0.0110473
0.0117352
0.0124598
0.01322
0.0140145
0.0148421
0.0157015
0.0165916
0.0175112
0.0184592
0.0194343
0.0204356
0.0214619
0.0225122
0.0235853
0.0246803
0.0257962
0.0269321
0.0280868
0.0292597
0.0304496
0.0316558
0.0328774
0.0341137
0.0353637
0.0366267
0.037902
0.0391888
0.0404865
0.0417943
0.0431116
0.0444378
0.0457722
0.0471144
0.0484636
0.0498195
0.0511814
0.0525489
0.0539214
0.0552986
0.0566799
0.0580651
0.0594536
0.0608452
0.0622393
0.0636357
0.0650341
0.0664342
0.0678356
0.0692381
0.0706413
0.0720452
0.0734494
0.0748537
0.0762578
0.0776616
0.0790649
0.0804676
0.0818694
0.0832702
0.0846699
0.0860683
0.0874653
0.0888608
0.0902546
0.0916468
0.0930372
0.0944257
0.0958121
0.0971966
0.098579
0.0999592
0.101337
0.102713
0.104086
0.105458
0.106826
0.108193
0.109557
0.110918
0.112278
0.113634
0.114989
0.11634
0.11769
0.119037
0.120381
0.121723
0.123063
0.1244
0.125734
0.127067
0.128397
0.129724
0.131049
0.132372
0.133693
0.135011
0.136327
0.13764
0.138952
0.140261
0.141568
0.142873
0.144176
0.145476
0.146775
0.148071
0.149366
0.150658
0.151949
0.153237
0.154524
0.155809
0.157092
0.158373
0.159652
0.16093
0.162206
0.16348
0.164753
0.166024
0.167294
0.168562
0.169828
0.171094
0.172358
0.17362
0.174882
0.176142
0.177402
0.17866
0.179917
0.181174
0.18243
0.183685
0.184939
0.186193
0.187446
0.188699
0.189952
0.191204
0.192457
0.19371
0.194962
0.196216
0.19747
0.198724
0.19998
0.201237
0.202496
0.203758
0.205024
0.206295
0.2076
0.208812
0.210662
0.210662
0.210662
1
1.07977
0.997046
0.883528
0.789472
0.719404
0.667049
0.627355
0.598165
0.578324
0.566205
0.559671
0.556677
0.555682
0.555693
0.556138
0.556713
0.557277
0.557777
0.558204
0.558571
0.558893
0.559184
0.559455
0.559713
0.559962
0.560206
0.560446
0.560684
0.560918
0.561151
0.56138
0.561607
0.561831
0.562051
0.562268
0.562481
0.562689
0.562893
0.563092
0.563286
0.563473
0.563655
0.563831
0.563999
0.56416
0.564314
0.564459
0.564596
0.564724
0.564842
0.56495
0.565047
0.565133
0.565208
0.56527
0.56532
0.565355
0.565377
0.565384
0.565375
0.56535
0.565308
0.565248
0.56517
0.565073
0.564955
0.564817
0.564657
0.564474
0.564268
0.564038
0.563782
0.5635
0.563191
0.562854
0.562487
0.56209
0.561663
0.561203
0.560709
0.560182
0.559619
0.55902
0.558383
0.557708
0.556993
0.556237
0.555439
0.554598
0.553714
0.552784
0.551808
0.550784
0.549713
0.548591
0.54742
0.546196
0.544921
0.543591
0.542207
0.540768
0.539273
0.53772
0.536109
0.534439
0.53271
0.53092
0.529068
0.527155
0.52518
0.523141
0.52104
0.518874
0.516643
0.514348
0.511988
0.509562
0.507072
0.504515
0.501894
0.499206
0.496453
0.493635
0.490753
0.487805
0.484794
0.481718
0.47858
0.475379
0.472117
0.468794
0.46541
0.461968
0.458468
0.454911
0.451299
0.447632
0.443913
0.440142
0.436322
0.432453
0.428537
0.424577
0.420575
0.416531
0.412448
0.408328
0.404174
0.399986
0.395769
0.391523
0.387251
0.382956
0.378639
0.374304
0.369953
0.365588
0.361212
0.356828
0.352437
0.348043
0.343649
0.339256
0.334867
0.330486
0.326115
0.321755
0.317411
0.313084
0.308777
0.304492
0.300233
0.296
0.291798
0.287628
0.283493
0.279394
0.275334
0.271316
0.267341
0.263411
0.259529
0.255695
0.251913
0.248184
0.24451
0.240892
0.237332
0.233831
0.23039
0.227012
0.223697
0.220447
0.217262
0.214144
0.211093
0.20811
0.205197
0.202353
0.19958
0.196877
0.194246
0.191686
0.189198
0.186783
0.18444
0.182169
0.179971
0.177844
0.17579
0.173808
0.171898
0.170059
0.168291
0.166594
0.164966
0.163408
0.161919
0.160499
0.159146
0.157859
0.156639
0.155484
0.154394
0.153367
0.152403
0.1515
0.150659
0.149877
0.149154
0.148489
0.14788
0.147327
0.146829
0.146385
0.145993
0.145653
0.145362
0.145122
0.144929
0.144783
0.144683
0.144629
0.144617
0.144649
0.144722
0.144836
0.14499
0.145181
0.145411
0.145676
0.145977
0.146313
0.146681
0.147083
0.147515
0.147979
0.148472
0.148993
0.149543
0.15012
0.150722
0.15135
0.152003
0.152679
0.153378
0.1541
0.154843
0.155606
0.15639
0.157193
0.158014
0.158854
0.159711
0.160584
0.161474
0.16238
0.163301
0.164236
0.165185
0.166148
0.167123
0.168112
0.169112
0.170124
0.171147
0.172181
0.173225
0.174279
0.175343
0.176416
0.177498
0.178588
0.179687
0.180793
0.181907
0.183029
0.184157
0.185292
0.186434
0.187582
0.188736
0.189896
0.191061
0.192231
0.193407
0.194587
0.195773
0.196962
0.198157
0.199355
0.200557
0.201763
0.202973
0.204186
0.205403
0.206623
0.207846
0.209072
0.2103
0.211532
0.212766
0.214003
0.215242
0.216483
0.217727
0.218972
0.22022
0.221469
0.22272
0.223973
0.225228
0.226484
0.227742
0.229
0.230261
0.231522
0.232785
0.234048
0.235313
0.236579
0.237845
0.239112
0.24038
0.241649
0.242918
0.244188
0.245458
0.246729
0.248
0.249272
0.250544
0.251815
0.253088
0.25436
0.255632
0.256905
0.258177
0.259449
0.260722
0.261994
0.263266
0.264538
0.265809
0.267081
0.268352
0.269623
0.270894
0.272164
0.273434
0.274704
0.275973
0.277243
0.278511
0.27978
0.281049
0.282317
0.283585
0.284852
0.28612
0.287388
0.288655
0.289923
0.291191
0.292458
0.293727
0.294996
0.296265
0.297535
0.298807
0.300081
0.301358
0.302639
0.303925
0.305247
0.306484
0.308406
0.308406
0.308406
1
1.11189
1.11442
1.05524
0.984582
0.921049
0.867869
0.824304
0.789962
0.764675
0.747564
0.736992
0.731089
0.728213
0.727131
0.727009
0.72733
0.727805
0.728295
0.728746
0.729147
0.729503
0.729826
0.730125
0.730409
0.730682
0.730948
0.731209
0.731467
0.731722
0.731974
0.732223
0.732469
0.732712
0.732951
0.733187
0.733419
0.733647
0.73387
0.734087
0.7343
0.734507
0.734707
0.734902
0.735089
0.735269
0.735441
0.735604
0.73576
0.735906
0.736042
0.736168
0.736283
0.736388
0.73648
0.73656
0.736627
0.73668
0.736719
0.736743
0.736751
0.736743
0.736718
0.736675
0.736614
0.736533
0.736432
0.736309
0.736165
0.735998
0.735808
0.735593
0.735353
0.735086
0.734791
0.734469
0.734117
0.733735
0.733321
0.732875
0.732395
0.731881
0.731331
0.730744
0.73012
0.729457
0.728754
0.728009
0.727223
0.726393
0.725519
0.724599
0.723632
0.722618
0.721555
0.720442
0.719278
0.718062
0.716793
0.71547
0.714091
0.712657
0.711166
0.709616
0.708008
0.70634
0.704612
0.702822
0.70097
0.699056
0.697078
0.695036
0.69293
0.690759
0.688522
0.686219
0.68385
0.681414
0.678912
0.676343
0.673707
0.671003
0.668233
0.665397
0.662493
0.659523
0.656488
0.653387
0.65022
0.64699
0.643695
0.640338
0.636919
0.633438
0.629897
0.626297
0.622638
0.618923
0.615153
0.611328
0.607451
0.603522
0.599544
0.595519
0.591447
0.587331
0.583173
0.578974
0.574737
0.570463
0.566156
0.561816
0.557447
0.55305
0.548628
0.544183
0.539718
0.535235
0.530736
0.526224
0.521702
0.517171
0.512635
0.508096
0.503557
0.499019
0.494487
0.489961
0.485445
0.480941
0.476452
0.471979
0.467526
0.463095
0.458688
0.454308
0.449957
0.445636
0.441349
0.437096
0.432882
0.428706
0.424572
0.420481
0.416435
0.412436
0.408486
0.404585
0.400736
0.39694
0.393199
0.389513
0.385885
0.382314
0.378803
0.375352
0.371963
0.368635
0.365371
0.36217
0.359033
0.355961
0.352954
0.350013
0.347138
0.344329
0.341586
0.33891
0.336301
0.333758
0.331282
0.328872
0.326528
0.32425
0.322038
0.319891
0.317808
0.315791
0.313837
0.311946
0.310118
0.308353
0.306649
0.305005
0.303422
0.301897
0.300432
0.299023
0.297672
0.296377
0.295136
0.29395
0.292817
0.291736
0.290707
0.289728
0.288799
0.287917
0.287084
0.286297
0.285555
0.284858
0.284205
0.283594
0.283025
0.282497
0.282008
0.281558
0.281146
0.280771
0.280432
0.280128
0.279858
0.279622
0.279418
0.279245
0.279103
0.278991
0.278908
0.278854
0.278827
0.278826
0.278852
0.278903
0.278978
0.279077
0.279199
0.279344
0.279511
0.279698
0.279906
0.280134
0.280382
0.280648
0.280933
0.281235
0.281554
0.28189
0.282242
0.282609
0.282992
0.28339
0.283802
0.284228
0.284667
0.285119
0.285584
0.286061
0.286551
0.287051
0.287563
0.288086
0.28862
0.289164
0.289718
0.290281
0.290854
0.291436
0.292027
0.292626
0.293234
0.29385
0.294474
0.295106
0.295745
0.296391
0.297045
0.297705
0.298372
0.299045
0.299725
0.300411
0.301103
0.3018
0.302504
0.303212
0.303926
0.304645
0.305369
0.306098
0.306832
0.30757
0.308313
0.30906
0.309811
0.310567
0.311326
0.312089
0.312856
0.313627
0.314401
0.315178
0.315959
0.316742
0.317529
0.318319
0.319112
0.319907
0.320705
0.321506
0.322309
0.323114
0.323922
0.324731
0.325543
0.326357
0.327172
0.32799
0.328809
0.329629
0.330451
0.331275
0.3321
0.332926
0.333753
0.334581
0.335411
0.336241
0.337072
0.337904
0.338737
0.33957
0.340403
0.341237
0.342072
0.342907
0.343742
0.344577
0.345413
0.346248
0.347084
0.34792
0.348755
0.349591
0.350426
0.351262
0.352097
0.352932
0.353766
0.3546
0.355435
0.356268
0.357102
0.357935
0.358768
0.359601
0.360434
0.361267
0.3621
0.362934
0.363768
0.364604
0.365441
0.366283
0.367128
0.367999
0.368831
0.370063
0.370063
0.370063
1
1.09602
1.14385
1.13365
1.09721
1.05423
1.01267
0.974978
0.942317
0.915626
0.895307
0.881007
0.871774
0.866386
0.863634
0.86251
0.862278
0.86247
0.862821
0.863203
0.863566
0.863895
0.864194
0.864468
0.864724
0.864968
0.865203
0.865432
0.865656
0.865876
0.866092
0.866305
0.866515
0.866722
0.866925
0.867124
0.867319
0.867509
0.867695
0.867875
0.86805
0.868219
0.868381
0.868537
0.868685
0.868826
0.868959
0.869084
0.869199
0.869305
0.869402
0.869488
0.869563
0.869626
0.869678
0.869716
0.869742
0.869753
0.869751
0.869732
0.869698
0.869648
0.86958
0.869494
0.869389
0.869265
0.86912
0.868953
0.868765
0.868554
0.868319
0.868059
0.867773
0.86746
0.86712
0.866752
0.866354
0.865925
0.865464
0.864971
0.864444
0.863882
0.863285
0.86265
0.861978
0.861266
0.860514
0.859721
0.858885
0.858005
0.857081
0.856111
0.855094
0.854029
0.852915
0.851751
0.850535
0.849267
0.847946
0.84657
0.845139
0.843652
0.842107
0.840504
0.838842
0.83712
0.835336
0.833492