# vtk DataFile Version 2.0
FlowField
ASCII
DATASET STRUCTURED_GRID
DIMENSIONS 400 1 50
POINTS 20000 float
0 0 0
0.08 0 0
0.16 0 0
0.24 0 0
0.32 0 0
0.4 0 0
0.48 0 0
0.56 0 0
0.64 0 0
0.72 0 0
0.8 0 0
0.88 0 0
0.96 0 0
1.04 0 0
1.12 0 0
1.2 0 0
1.28 0 0
1.36 0 0
1.44 0 0
1.52 0 0
1.6 0 0
1.68 0 0
1.76 0 0
1.84 0 0
1.92 0 0
2 0 0
2.08 0 0
2.16 0 0
2.24 0 0
2.32 0 0
2.4 0 0
2.48 0 0
2.56 0 0
2.64 0 0
2.72 0 0
2.8 0 0
2.88 0 0
2.96 0 0
3.04 0 0
3.12 0 0
3.2 0 0
3.28 0 0
3.36 0 0
3.44 0 0
3.52 0 0
3.6 0 0
3.68 0 0
3.76 0 0
3.84 0 0
3.92 0 0
4 0 0
4.08 0 0
4.16 0 0
4.24 0 0
4.32 0 0
4.4 0 0
4.48 0 0
4.56 0 0
4.64 0 0
4.72 0 0
4.8 0 0
4.88 0 0
4.96 0 0
5.04 0 0
5.12 0 0
5.2 0 0
5.28 0 0
5.36 0 0
5.44 0 0
5.52 0 0
5.6 0 0
5.68 0 0
5.76 0 0
5.84 0 0
5.92 0 0
6 0 0
6.08 0 0
6.16 0 0
6.24 0 0
6.32 0 0
6.4 0 0
6.48 0 0
6.56 0 0
6.64 0 0
6.72 0 0
6.8 0 0
6.88 0 0
6.96 0 0
7.04 0 0
7.12 0 0
7.2 0 0
7.28 0 0
7.36 0 0
7.44 0 0
7.52 0 0
7.6 0 0
7.68 0 0
7.76 0 0
7.84 0 0
7.92 0 0
8 0 0
8.08 0 0
8.16 0 0
8.24 0 0
8.32 0 0
8.4 0 0
8.48 0 0
8.56 0 0
8.64 0 0
8.72 0 0
8.8 0 0
8.88 0 0
8.96 0 0
9.04 0 0
9.12 0 0
9.2 0 0
9.28 0 0
9.36 0 0
9.44 0 0
9.52 0 0
9.6 0 0
9.68 0 0
9.76 0 0
9.84 0 0
9.92 0 0
10 0 0
10.08 0 0
10.16 0 0
10.24 0 0
10.32 0 0
10.4 0 0
10.48 0 0
10.56 0 0
10.64 0 0
10.72 0 0
10.8 0 0
10.88 0 0
10.96 0 0
11.04 0 0
11.12 0 0
11.2 0 0
11.28 0 0
11.36 0 0
11.44 0 0
11.52 0 0
11.6 0 0
11.68 0 0
11.76 0 0
11.84 0 0
11.92 0 0
12 0 0
12.08 0 0
12.16 0 0
12.24 0 0
12.32 0 0
12.4 0 0
12.48 0 0
12.56 0 0
12.64 0 0
12.72 0 0
12.8 0 0
12.88 0 0
12.96 0 0
13.04 0 0
13.12 0 0
13.2 0 0
13.28 0 0
13.36 0 0
13.44 0 0
13.52 0 0
13.6 0 0
13.68 0 0
13.76 0 0
13.84 0 0
13.92 0 0
14 0 0
14.08 0 0
14.16 0 0
14.24 0 0
14.32 0 0
14.4 0 0
14.48 0 0
14.56 0 0
14.64 0 0
14.72 0 0
14.8 0 0
14.88 0 0
14.96 0 0
15.04 0 0
15.12 0 0
15.2 0 0
15.28 0 0
15.36 0 0
15.44 0 0
15.52 0 0
15.6 0 0
15.68 0 0
15.76 0 0
15.84 0 0
15.92 0 0
16 0 0
16.08 0 0
16.16 0 0
16.24 0 0
16.32 0 0
16.4 0 0
16.48 0 0
16.56 0 0
16.64 0 0
16.72 0 0
16.8 0 0
16.88 0 0
16.96 0 0
17.04 0 0
17.12 0 0
17.2 0 0
17.28 0 0
17.36 0 0
17.44 0 0
17.52 0 0
17.6 0 0
17.68 0 0
17.76 0 0
17.84 0 0
17.92 0 0
18 0 0
18.08 0 0
18.16 0 0
18.24 0 0
18.32 0 0
18.4 0 0
18.48 0 0
18.56 0 0
18.64 0 0
18.72 0 0
18.8 0 0
18.88 0 0
18.96 0 0
19.04 0 0
19.12 0 0
19.2 0 0
19.28 0 0
19.36 0 0
19.44 0 0
19.52 0 0
19.6 0 0
19.68 0 0
19.76 0 0
19.84 0 0
19.92 0 0
20 0 0
20.08 0 0
20.16 0 0
20.24 0 0
20.32 0 0
20.4 0 0
20.48 0 0
20.56 0 0
20.64 0 0
20.72 0 0
20.8 0 0
20.88 0 0
20.96 0 0
21.04 0 0
21.12 0 0
21.2 0 0
21.28 0 0
21.36 0 0
21.44 0 0
21.52 0 0
21.6 0 0
21.68 0 0
21.76 0 0
21.84 0 0
21.92 0 0
22 0 0
22.08 0 0
22.16 0 0
22.24 0 0
22.32 0 0
22.4 0 0
22.48 0 0
22.56 0 0
22.64 0 0
22.72 0 0
22.8 0 0
22.88 0 0
22.96 0 0
23.04 0 0
23.12 0 0
23.2 0 0
23.28 0 0
23.36 0 0
23.44 0 0
23.52 0 0
23.6 0 0
23.68 0 0
23.76 0 0
23.84 0 0
23.92 0 0
24 0 0
24.08 0 0
24.16 0 0
24.24 0 0
24.32 0 0
24.4 0 0
24.48 0 0
24.56 0 0
24.64 0 0
24.72 0 0
24.8 0 0
24.88 0 0
24.96 0 0
25.04 0 0
25.12 0 0
25.2 0 0
25.28 0 0
25.36 0 0
25.44 0 0
25.52 0 0
25.6 0 0
25.68 0 0
25.76 0 0
25.84 0 0
25.92 0 0
26 0 0
26.08 0 0
26.16 0 0
26.24 0 0
26.32 0 0
26.4 0 0
26.48 0 0
26.56 0 0
26.64 0 0
26.72 0 0
26.8 0 0
26.88 0 0
26.96 0 0
27.04 0 0
27.12 0 0
27.2 0 0
27.28 0 0
27.36 0 0
27.44 0 0
27.52 0 0
27.6 0 0
27.68 0 0
27.76 0 0
27.84 0 0
27.92 0 0
28 0 0
28.08 0 0
28.16 0 0
28.24 0 0
28.32 0 0
28.4 0 0
28.48 0 0
28.56 0 0
28.64 0 0
28.72 0 0
28.8 0 0
28.88 0 0
28.96 0 0
29.04 0 0
29.12 0 0
29.2 0 0
29.28 0 0
29.36 0 0
29.44 0 0
29.52 0 0
29.6 0 0
29.68 0 0
29.76 0 0
29.84 0 0
29.92 0 0
30 0 0
30.08 0 0
30.16 0 0
30.24 0 0
30.32 0 0
30.4 0 0
30.48 0 0
30.56 0 0
30.64 0 0
30.72 0 0
30.8 0 0
30.88 0 0
30.96 0 0
31.04 0 0
31.12 0 0
31.2 0 0
31.28 0 0
31.36 0 0
31.44 0 0
31.52 0 0
31.6 0 0
31.68 0 0
31.76 0 0
31.84 0 0
31.92 0 0
0 0.02 0
0.08 0.02 0
0.16 0.02 0
0.24 0.02 0
0.32 0.02 0
0.4 0.02 0
0.48 0.02 0
0.56 0.02 0
0.64 0.02 0
0.72 0.02 0
0.8 0.02 0
0.88 0.02 0
0.96 0.02 0
1.04 0.02 0
1.12 0.02 0
1.2 0.02 0
1.28 0.02 0
1.36 0.02 0
1.44 0.02 0
1.52 0.02 0
1.6 0.02 0
1.68 0.02 0
1.76 0.02 0
1.84 0.02 0
1.92 0.02 0
2 0.02 0
2.08 0.02 0
2.16 0.02 0
2.24 0.02 0
2.32 0.02 0
2.4 0.02 0
2.48 0.02 0
2.56 0.02 0
2.64 0.02 0
2.72 0.02 0
2.8 0.02 0
2.88 0.02 0
2.96 0.02 0
3.04 0.02 0
3.12 0.02 0
3.2 0.02 0
3.28 0.02 0
3.36 0.02 0
3.44 0.02 0
3.52 0.02 0
3.6 0.02 0
3.68 0.02 0
3.76 0.02 0
3.84 0.02 0
3.92 0.02 0
4 0.02 0
4.08 0.02 0
4.16 0.02 0
4.24 0.02 0
4.32 0.02 0
4.4 0.02 0
4.48 0.02 0
4.56 0.02 0
4.64 0.02 0
4.72 0.02 0
4.8 0.02 0
4.88 0.02 0
4.96 0.02 0
5.04 0.02 0
5.12 0.02 0
5.2 0.02 0
5.28 0.02 0
5.36 0.02 0
5.44 0.02 0
5.52 0.02 0
5.6 0.02 0
5.68 0.02 0
5.76 0.02 0
5.84 0.02 0
5.92 0.02 0
6 0.02 0
6.08 0.02 0
6.16 0.02 0
6.24 0.02 0
6.32 0.02 0
6.4 0.02 0
6.48 0.02 0
6.56 0.02 0
6.64 0.02 0
6.72 0.02 0
6.8 0.02 0
6.88 0.02 0
6.96 0.02 0
7.04 0.02 0
7.12 0.02 0
7.2 0.02 0
7.28 0.02 0
7.36 0.02 0
7.44 0.02 0
7.52 0.02 0
7.6 0.02 0
7.68 0.02 0
7.76 0.02 0
7.84 0.02 0
7.92 0.02 0
8 0.02 0
8.08 0.02 0
8.16 0.02 0
8.24 0.02 0
8.32 0.02 0
8.4 0.02 0
8.48 0.02 0
8.56 0.02 0
8.64 0.02 0
8.72 0.02 0
8.8 0.02 0
8.88 0.02 0
8.96 0.02 0
9.04 0.02 0
9.12 0.02 0
9.2 0.02 0
9.28 0.02 0
9.36 0.02 0
9.44 0.02 0
9.52 0.02 0
9.6 0.02 0
9.68 0.02 0
9.76 0.02 0
9.84 0.02 0
9.92 0.02 0
10 0.02 0
10.08 0.02 0
10.16 0.02 0
10.24 0.02 0
10.32 0.02 0
10.4 0.02 0
10.48 0.02 0
10.56 0.02 0
10.64 0.02 0
10.72 0.02 0
10.8 0.02 0
10.88 0.02 0
10.96 0.02 0
11.04 0.02 0
11.12 0.02 0
11.2 0.02 0
11.28 0.02 0
11.36 0.02 0
11.44 0.02 0
11.52 0.02 0
11.6 0.02 0
11.68 0.02 0
11.76 0.02 0
11.84 0.02 0
11.92 0.02 0
12 0.02 0
12.08 0.02 0
12.16 0.02 0
12.24 0.02 0
12.32 0.02 0
12.4 0.02 0
12.48 0.02 0
12.56 0.02 0
12.64 0.02 0
12.72 0.02 0
12.8 0.02 0
12.88 0.02 0
12.96 0.02 0
13.04 0.02 0
13.12 0.02 0
13.2 0.02 0
13.28 0.02 0
13.36 0.02 0
13.44 0.02 0
13.52 0.02 0
13.6 0.02 0
13.68 0.02 0
13.76 0.02 0
13.84 0.02 0
13.92 0.02 0
14 0.02 0
14.08 0.02 0
14.16 0.02 0
14.24 0.02 0
14.32 0.02 0
14.4 0.02 0
14.48 0.02 0
14.56 0.02 0
14.64 0.02 0
14.72 0.02 0
14.8 0.02 0
14.88 0.02 0
14.96 0.02 0
15.04 0.02 0
15.12 0.02 0
15.2 0.02 0
15.28 0.02 0
15.36 0.02 0
15.44 0.02 0
15.52 0.02 0
15.6 0.02 0
15.68 0.02 0
15.76 0.02 0
15.84 0.02 0
15.92 0.02 0
16 0.02 0
16.08 0.02 0
16.16 0.02 0
16.24 0.02 0
16.32 0.02 0
16.4 0.02 0
16.48 0.02 0
16.56 0.02 0
16.64 0.02 0
16.72 0.02 0
16.8 0.02 0
16.88 0.02 0
16.96 0.02 0
17.04 0.02 0
17.12 0.02 0
17.2 0.02 0
17.28 0.02 0
17.36 0.02 0
17.44 0.02 0
17.52 0.02 0
17.6 0.02 0
17.68 0.02 0
17.76 0.02 0
17.84 0.02 0
17.92 0.02 0
18 0.02 0
18.08 0.02 0
18.16 0.02 0
18.24 0.02 0
18.32 0.02 0
18.4 0.02 0
18.48 0.02 0
18.56 0.02 0
18.64 0.02 0
18.72 0.02 0
18.8 0.02 0
18.88 0.02 0
18.96 0.02 0
19.04 0.02 0
19.12 0.02 0
19.2 0.02 0
19.28 0.02 0
19.36 0.02 0
19.44 0.02 0
19.52 0.02 0
19.6 0.02 0
19.68 0.02 0
19.76 0.02 0
19.84 0.02 0
19.92 0.02 0
20 0.02 0
20.08 0.02 0
20.16 0.02 0
20.24 0.02 0
20.32 0.02 0
20.4 0.02 0
20.48 0.02 0
20.56 0.02 0
20.64 0.02 0
20.72 0.02 0
20.8 0.02 0
20.88 0.02 0
20.96 0.02 0
21.04 0.02 0
21.12 0.02 0
21.2 0.02 0
21.28 0.02 0
21.36 0.02 0
21.44 0.02 0
21.52 0.02 0
21.6 0.02 0
21.68 0.02 0
21.76 0.02 0
21.84 0.02 0
21.92 0.02 0
22 0.02 0
22.08 0.02 0
22.16 0.02 0
22.24 0.02 0
22.32 0.02 0
22.4 0.02 0
22.48 0.02 0
22.56 0.02 0
22.64 0.02 0
22.72 0.02 0
22.8 0.02 0
22.88 0.02 0
22.96 0.02 0
23.04 0.02 0
23.12 0.02 0
23.2 0.02 0
23.28 0.02 0
23.36 0.02 0
23.44 0.02 0
23.52 0.02 0
23.6 0.02 0
23.68 0.02 0
23.76 0.02 0
23.84 0.02 0
23.92 0.02 0
24 0.02 0
24.08 0.02 0
24.16 0.02 0
24.24 0.02 0
24.32 0.02 0
24.4 0.02 0
24.48 0.02 0
24.56 0.02 0
24.64 0.02 0
24.72 0.02 0
24.8 0.02 0
24.88 0.02 0
24.96 0.02 0
25.04 0.02 0
25.12 0.02 0
25.2 0.02 0
25.28 0.02 0
25.36 0.02 0
25.44 0.02 0
25.52 0.02 0
25.6 0.02 0
25.68 0.02 0
25.76 0.02 0
25.84 0.02 0
25.92 0.02 0
26 0.02 0
26.08 0.02 0
26.16 0.02 0
26.24 0.02 0
26.32 0.02 0
26.4 0.02 0
26.48 0.02 0
26.56 0.02 0
26.64 0.02 0
26.72 0.02 0
26.8 0.02 0
26.88 0.02 0
26.96 0.02 0
27.04 0.02 0
27.12 0.02 0
27.2 0.02 0
27.28 0.02 0
27.36 0.02 0
27.44 0.02 0
27.52 0.02 0
27.6 0.02 0
27.68 0.02 0
27.76 0.02 0
27.84 0.02 0
27.92 0.02 0
28 0.02 0
28.08 0.02 0
28.16 0.02 0
28.24 0.02 0
28.32 0.02 0
28.4 0.02 0
28.48 0.02 0
28.56 0.02 0
28.64 0.02 0
28.72 0.02 0
28.8 0.02 0
28.88 0.02 0
28.96 0.02 0
29.04 0.02 0
29.12 0.02 0
29.2 0.02 0
29.28 0.02 0
29.36 0.02 0
29.44 0.02 0
29.52 0.02 0
29.6 0.02 0
29.68 0.02 0
29.76 0.02 0
29.84 0.02 0
29.92 0.02 0
30 0.02 0
30.08 0.02 0
30.16 0.02 0
30.24 0.02 0
30.32 0.02 0
30.4 0.02 0
30.48 0.02 0
30.56 0.02 0
30.64 0.02 0
30.72 0.02 0
30.8 0.02 0
30.88 0.02 0
30.96 0.02 0
31.04 0.02 0
31.12 0.02 0
31.2 0.02 0
31.28 0.02 0
31.36 0.02 0
31.44 0.02 0
31.52 0.02 0
31.6 0.02 0
31.68 0.02 0
31.76 0.02 0
31.84 0.02 0
31.92 0.02 0
0 0.04 0
0.08 0.04 0
0.16 0.04 0
0.24 0.04 0
0.32 0.04 0
0.4 0.04 0
0.48 0.04 0
0.56 0.04 0
0.64 0.04 0
0.72 0.04 0
0.8 0.04 0
0.88 0.04 0
0.96 0.04 0
1.04 0.04 0
1.12 0.04 0
1.2 0.04 0
1.28 0.04 0
1.36 0.04 0
1.44 0.04 0
1.52 0.04 0
1.6 0.04 0
1.68 0.04 0
1.76 0.04 0
1.84 0.04 0
1.92 0.04 0
2 0.04 0
2.08 0.04 0
2.16 0.04 0
2.24 0.04 0
2.32 0.04 0
2.4 0.04 0
2.48 0.04 0
2.56 0.04 0
2.64 0.04 0
2.72 0.04 0
2.8 0.04 0
2.88 0.04 0
2.96 0.04 0
3.04 0.04 0
3.12 0.04 0
3.2 0.04 0
3.28 0.04 0
3.36 0.04 0
3.44 0.04 0
3.52 0.04 0
3.6 0.04 0
3.68 0.04 0
3.76 0.04 0
3.84 0.04 0
3.92 0.04 0
4 0.04 0
4.08 0.04 0
4.16 0.04 0
4.24 0.04 0
4.32 0.04 0
4.4 0.04 0
4.48 0.04 0
4.56 0.04 0
4.64 0.04 0
4.72 0.04 0
4.8 0.04 0
4.88 0.04 0
4.96 0.04 0
5.04 0.04 0
5.12 0.04 0
5.2 0.04 0
5.28 0.04 0
5.36 0.04 0
5.44 0.04 0
5.52 0.04 0
5.6 0.04 0
5.68 0.04 0
5.76 0.04 0
5.84 0.04 0
5.92 0.04 0
6 0.04 0
6.08 0.04 0
6.16 0.04 0
6.24 0.04 0
6.32 0.04 0
6.4 0.04 0
6.48 0.04 0
6.56 0.04 0
6.64 0.04 0
6.72 0.04 0
6.8 0.04 0
6.88 0.04 0
6.96 0.04 0
7.04 0.04 0
7.12 0.04 0
7.2 0.04 0
7.28 0.04 0
7.36 0.04 0
7.44 0.04 0
7.52 0.04 0
7.6 0.04 0
7.68 0.04 0
7.76 0.04 0
7.84 0.04 0
[...]
POINT_DATA 20000

SCALARS v float 1
LOOKUP_TABLE default
0
0
0
0
0
0
0
0
0
0
0
0
0
0
0
0
0
0
0
0
0
0
0
0
0
0
0
0
0
0
0
0
0
0
0
0
0
0
0
0
0
0
0
0
0
0
0
0
0
0
0
0
0
0
0
0
0
0
0
0
0
0
0
0
0
0
0
0
0
0
0
0
0
0
0
0
0
0
0
0
0
0
0
0
0
0
0
0
0
0
0
0
0
0
0
0
0
0
0
0
0
0
0
0
0
0
0
0
0
0
0
0
0
0
0
0
0
0
0
0
0
0
0
0
0
0
0
0
0
0
0
0
0
0
0
0
0
0
0
0
0
0
0
0
0
0
0
0
0
0
0
0
0
0
0
0
0
0
0
0
0
0
0
0
0
0
0
0
0
0
0
0
0
0
0
0
0
0
0
0
0
0
0
0
0
0
0
0
0
0
0
0
0
0
0
0
0
0
0
0
0
0
0
0
0
0
0
0
0
0
0
0
0
0
0
0
0
0
0
0
0
0
0
0
0
0
0
0
0
0
0
0
0
0
0
0
0
0
0
0
0
0
0
0
0
0
0
0
0
0
0
0
0
0
0
0
0
0
0
0
0
0
0
0
0
0
0
0
0
0
0
0
0
0
0
0
0
0
0
0
0
0
0
0
0
0
0
0
0
0
0
0
0
0
0
0
0
0
0
0
0
0
0
0
0
0
0
0
0
0
0
0
0
0
0
0
0
0
0
0
0
0
0
0
0
0
0
0
0
0
0
0
0
0
0
0
0
0
0
0
0
0
0
0
0
0
0
0
0
0
0
0
0
0
0
0
0
0
0
0
0
0
0
0
0
0
0
0
0
0
0
0
0
0
0
0
0
0
0
0
0
0
0
0
0
0
0
0
0
0
0
0
0
0
0
0
0
0
0
0
-0.123182
0.123182
0.0537424
0.0193875
0.00873046
0.00503608
0.0033332
0.00238192
0.00179141
0.00139969
0.00112713
0.000930155
0.000783196
0.000670431
0.0005817
0.000510281
0.000451628
0.00040262
0.000361082
0.00032547
0.000294652
0.000267757
0.000244088
0.000223068
0.000204219
0.000187174
0.000171687
0.000157614
0.000144869
0.000133352
0.000122915
0.000113371
0.000104545
9.63066e-05
8.85802e-05
8.1334e-05
7.45725e-05
6.83306e-05
6.26496e-05
5.75266e-05
5.28677e-05
4.84905e-05
4.41962e-05
3.98724e-05
3.55559e-05
3.14056e-05
2.76044e-05
2.42544e-05
2.1331e-05
1.87093e-05
1.62268e-05
1.37388e-05
1.11481e-05
8.42481e-06
5.62809e-06
2.91729e-06
5.15562e-07
-1.39093e-06
-2.78226e-06
-3.88016e-06
-5.09524e-06
-6.84254e-06
-9.31403e-06
-1.23452e-05
-1.5474e-05
-1.8181e-05
-2.01803e-05
-2.15932e-05
-2.28923e-05
-2.46435e-05
-2.7189e-05
-3.04509e-05
-3.39658e-05
-3.71255e-05
-3.94878e-05
-4.09859e-05
-4.19337e-05
-4.28392e-05
-4.41403e-05
-4.60043e-05
-4.8283e-05
-5.06266e-05
-5.26802e-05
-5.42538e-05
-5.53904e-05
-5.63114e-05
-5.72864e-05
-5.84981e-05
-5.9967e-05
-6.15601e-05
-6.30677e-05
-6.43035e-05
-6.51821e-05
-6.5745e-05
-6.61327e-05
-6.65244e-05
-6.70723e-05
-6.78561e-05
-6.88696e-05
-7.00366e-05
-7.12454e-05
-7.23856e-05
-7.33762e-05
-7.41793e-05
-7.47981e-05
-7.52655e-05
-7.56282e-05
-7.59324e-05
-7.62145e-05
-7.6497e-05
-7.67893e-05
-7.70911e-05
-7.73972e-05
-7.77008e-05
-7.79966e-05
-7.8282e-05
-7.85566e-05
-7.88223e-05
-7.9082e-05
-7.93388e-05
-7.95954e-05
-7.9854e-05
-8.0116e-05
-8.0382e-05
-8.06523e-05
-8.09268e-05
-8.12051e-05
-8.1487e-05
-8.17723e-05
-8.20607e-05
-8.23521e-05
-8.26466e-05
-8.29439e-05
-8.32443e-05
-8.35477e-05
-8.38542e-05
-8.41637e-05
-8.44764e-05
-8.47922e-05
-8.51111e-05
-8.54333e-05
-8.57586e-05
-8.60871e-05
-8.64188e-05
-8.67537e-05
-8.70918e-05
-8.74331e-05
-8.77776e-05
-8.81254e-05
-8.84763e-05
-8.88304e-05
-8.91878e-05
-8.95484e-05
-8.99122e-05
-9.02793e-05
-9.06496e-05
-9.10231e-05
-9.13998e-05
-9.17798e-05
-9.2163e-05
-9.25494e-05
-9.29391e-05
-9.3332e-05
-9.37281e-05
-9.41275e-05
-9.45301e-05
-9.49359e-05
-9.53449e-05
-9.57571e-05
-9.61725e-05
-9.65911e-05
-9.7013e-05
-9.7438e-05
-9.78662e-05
-9.82975e-05
-9.87321e-05
-9.91698e-05
-9.96106e-05
-0.000100055
-0.000100502
-0.000100952
-0.000101405
-0.000101862
-0.000102321
-0.000102784
-0.000103249
-0.000103718
-0.00010419
-0.000104664
-0.000105142
-0.000105623
-0.000106106
-0.000106593
-0.000107083
-0.000107575
-0.00010807
-0.000108568
-0.000109069
-0.000109573
-0.00011008
-0.000110589
-0.000111101
-0.000111616
-0.000112134
-0.000112654
-0.000113177
-0.000113703
-0.000114231
-0.000114762
-0.000115295
-0.000115831
-0.000116369
-0.000116909
-0.000117453
-0.000117998
-0.000118546
-0.000119096
-0.000119649
-0.000120203
-0.00012076
-0.00012132
-0.000121881
-0.000122444
-0.00012301
-0.000123577
-0.000124147
-0.000124718
-0.000125292
-0.000125867
-0.000126444
-0.000127023
-0.000127603
-0.000128186
-0.00012877
-0.000129355
-0.000129943
-0.000130531
-0.000131121
-0.000131713
-0.000132306
-0.0001329
-0.000133496
-0.000134093
-0.000134691
-0.00013529
-0.000135891
-0.000136492
-0.000137094
-0.000137698
-0.000138302
-0.000138907
-0.000139512
-0.000140119
-0.000140726
-0.000141334
-0.000141942
-0.000142551
-0.00014316
-0.00014377
-0.00014438
-0.00014499
-0.0001456
-0.000146211
-0.000146822
-0.000147432
-0.000148043
-0.000148654
-0.000149264
-0.000149874
-0.000150484
-0.000151094
-0.000151703
-0.000152312
-0.00015292
-0.000153528
-0.000154135
-0.000154741
-0.000155346
-0.000155951
-0.000156555
-0.000157157
-0.000157759
-0.00015836
-0.000158959
-0.000159557
-0.000160154
-0.00016075
-0.000161344
-0.000161936
-0.000162527
-0.000163117
-0.000163704
-0.00016429
-0.000164874
-0.000165456
-0.000166036
-0.000166615
-0.000167191
-0.000167764
-0.000168336
-0.000168905
-0.000169472
-0.000170037
-0.000170598
-0.000171158
-0.000171715
-0.000172269
-0.00017282
-0.000173368
-0.000173914
-0.000174456
-0.000174995
-0.000175532
-0.000176065
-0.000176595
-0.000177121
-0.000177644
-0.000178164
-0.00017868
-0.000179193
-0.000179702
-0.000180207
-0.000180708
-0.000181206
-0.0001817
-0.000182189
-0.000182675
-0.000183157
-0.000183634
-0.000184107
-0.000184576
-0.000185041
-0.000185501
-0.000185957
-0.000186408
-0.000186855
-0.000187297
-0.000187734
-0.000188167
-0.000188595
-0.000189017
-0.000189435
-0.000189848
-0.000190256
-0.000190659
-0.000191057
-0.000191449
-0.000191837
-0.000192218
-0.000192595
-0.000192965
-0.000193332
-0.000193691
-0.000194047
-0.000194394
-0.000194739
-0.000195074
-0.000195409
-0.000195731
-0.000196056
-0.000196365
-0.00019668
-0.000196974
-0.00019728
-0.000197558
-0.000197857
-0.000198117
-0.000198412
-0.00019865
-0.000198943
-0.000199155
-0.000199452
-0.000199633
-0.000199939
-0.000200082
-0.000200405
-0.000200501
-0.00020085
-0.000200889
-0.000201279
-0.000201241
-0.000201699
-0.000201545
-0.000202127
-0.000201783
-0.000202583
-0.00020194
-0.000203082
-0.000202024
-0.000203602
-0.000202103
-0.000204075
-0.000202309
-0.000204446
-0.000202727
-0.000205103
-0.000202685
-0.000212816
-0.000191329
-0.000191329
-0.14211
0.14211
0.100951
0.0538556
0.0301961
0.0188551
0.0128613
0.0093438
0.00710845
0.0056039
0.00454649
0.00377706
0.00320036
0.00275664
0.0024071
0.00212583
0.00189518
0.00170292
0.0015404
0.00140141
0.00128133
0.00117664
0.00108456
0.00100286
0.000929753
0.000863897
0.000804333
0.00075042
0.000701664
0.000657544
0.000617439
0.000580691
0.000546721
0.000515117
0.000485628
0.000458128
0.000432584
0.00040903
0.000387488
0.000367835
0.000349703
0.000332535
0.000315814
0.000299323
0.000283256
0.000268084
0.000254256
0.000241938
0.000230939
0.000220824
0.000211108
0.000201401
0.000191486
0.000181358
0.000171269
0.000161711
0.000153265
0.000146294
0.000140626
0.000135443
0.000129544
0.000121912
0.000112296
0.000101429
9.07082e-05
8.14473e-05
7.41304e-05
6.81025e-05
6.19092e-05
5.41069e-05
4.40872e-05
3.24484e-05
2.07071e-05
1.0521e-05
2.85938e-06
-2.43291e-06
-6.47442e-06
-1.07187e-05
-1.62233e-05
-2.31938e-05
-3.09988e-05
-3.85875e-05
-4.50538e-05
-5.00517e-05
-5.38819e-05
-5.72573e-05
-6.09067e-05
-6.52264e-05
-7.01348e-05
-7.51653e-05
-7.972e-05
-8.33489e-05
-8.59306e-05
-8.76961e-05
-8.91104e-05
-9.06825e-05
-9.27883e-05
-9.55666e-05
-9.89114e-05
-0.000102542
-0.000106111
-0.000109313
-0.00011195
-0.000113957
-0.000115387
-0.000116367
-0.000117047
-0.000117568
-0.000118031
-0.000118494
-0.000118976
-0.000119473
-0.000119965
-0.000120434
-0.000120867
-0.000121258
-0.000121609
-0.000121928
-0.000122225
-0.000122509
-0.000122788
-0.00012307
-0.000123356
-0.00012365
-0.000123951
-0.000124259
-0.000124572
-0.00012489
-0.000125213
-0.000125538
-0.000125867
-0.000126199
-0.000126534
-0.000126872
-0.000127213
-0.000127557
-0.000127905
-0.000128256
-0.000128611
-0.000128969
-0.00012933
-0.000129695
-0.000130064
-0.000130436
-0.000130812
-0.000131191
-0.000131573
-0.000131959
-0.000132349
-0.000132742
-0.000133139
-0.000133539
-0.000133943
-0.00013435
-0.000134761
-0.000135176
-0.000135594
-0.000136015
-0.00013644
-0.000136869
-0.000137301
-0.000137737
-0.000138176
-0.000138618
-0.000139065
-0.000139515
-0.000139968
-0.000140425
-0.000140885
-0.000141349
-0.000141816
-0.000142287
-0.000142762
-0.000143239
-0.000143721
-0.000144206
-0.000144694
-0.000145186
-0.000145681
-0.000146179
-0.000146681
-0.000147186
-0.000147695
-0.000148207
-0.000148723
-0.000149242
-0.000149764
-0.000150289
-0.000150818
-0.00015135
-0.000151885
-0.000152424
-0.000152965
-0.00015351
-0.000154058
-0.000154609
-0.000155164
-0.000155721
-0.000156282
-0.000156845
-0.000157412
-0.000157981
-0.000158554
-0.000159129
-0.000159708
-0.000160289
-0.000160873
-0.00016146
-0.00016205
-0.000162643
-0.000163238
-0.000163836
-0.000164436
-0.00016504
-0.000165646
-0.000166254
-0.000166865
-0.000167479
-0.000168094
-0.000168713
-0.000169333
-0.000169956
-0.000170582
-0.000171209
-0.000171839
-0.000172471
-0.000173105
-0.000173741
-0.000174379
-0.000175019
-0.000175661
-0.000176305
-0.000176951
-0.000177598
-0.000178247
-0.000178898
-0.000179551
-0.000180205
-0.000180861
-0.000181518
-0.000182176
-0.000182836
-0.000183498
-0.00018416
-0.000184824
-0.000185489
-0.000186155
-0.000186822
-0.00018749
-0.000188159
-0.000188829
-0.000189499
-0.00019017
-0.000190842
-0.000191515
-0.000192188
-0.000192862
-0.000193536
-0.00019421
-0.000194885
-0.00019556
-0.000196235
-0.00019691
-0.000197586
-0.000198261
-0.000198936
-0.000199611
-0.000200286
-0.00020096
-0.000201634
-0.000202308
-0.000202981
-0.000203653
-0.000204325
-0.000204996
-0.000205667
-0.000206336
-0.000207004
-0.000207672
-0.000208338
-0.000209004
-0.000209668
-0.00021033
-0.000210992
-0.000211652
-0.00021231
-0.000212967
-0.000213622
-0.000214275
-0.000214927
-0.000215577
-0.000216224
-0.00021687
-0.000217513
-0.000218155
-0.000218794
-0.00021943
-0.000220065
-0.000220696
-0.000221326
-0.000221952
-0.000222576
-0.000223197
-0.000223815
-0.00022443
-0.000225042
-0.000225651
-0.000226257
-0.00022686
-0.000227459
-0.000228055
-0.000228647
-0.000229236
-0.000229821
-0.000230403
-0.000230981
-0.000231555
-0.000232125
-0.000232691
-0.000233252
-0.00023381
-0.000234364
-0.000234913
-0.000235458
-0.000235998
-0.000236534
-0.000237066
-0.000237592
-0.000238114
-0.000238631
-0.000239144
-0.000239651
-0.000240154
-0.000240651
-0.000241143
-0.00024163
-0.000242112
-0.000242589
-0.00024306
-0.000243525
-0.000243985
-0.00024444
-0.000244889
-0.000245332
-0.000245769
-0.000246201
-0.000246626
-0.000247047
-0.000247459
-0.000247869
-0.000248268
-0.000248666
-0.000249052
-0.000249439
-0.00024981
-0.000250187
-0.000250542
-0.000250909
-0.000251247
-0.000251606
-0.000251926
-0.000252278
-0.000252576
-0.000252925
-0.000253197
-0.000253547
-0.000253786
-0.000254147
-0.000254343
-0.000254727
-0.000254865
-0.000255287
-0.00025535
-0.00025583
-0.000255797
-0.000256357
-0.000256205
-0.000256873
-0.000256567
-0.000257389
-0.000256868
-0.000257934
-0.000257072
-0.00025856
-0.000257123
-0.000259336
-0.000256971
-0.000260302
-0.000256646
-0.000261392
-0.000256362
-0.000262389
-0.000256519
-0.000263147
-0.000257374
-0.000264884
-0.000257028
-0.00028381
-0.000236401
-0.000236401
-0.122189
0.122189
0.121609
0.0822085
0.0539315
0.0367963
0.02632
0.0196375
0.0151819
0.0120931
0.00987966
0.00824729
0.0070122
0.00605559
0.00529859
0.00468773
0.00418607
0.00376771
0.00341415
0.00311187
0.00285077
0.00262309
0.00242278
0.00224504
0.00208615
0.00194325
0.0018143
0.00169778
0.00159245
0.00149704
0.00141016
0.00133046
0.00125681
0.00118842
0.00112478
0.00106559
0.0010107
0.000960024
0.000913474
0.000870686
0.000830919
0.000793187
0.000756652
0.000721043
0.000686771
0.000654647
0.000625352
0.000599026
0.000575197
0.000553023
0.000531634
0.000510379
0.000488936
0.000467368
0.000446168
0.000426195
0.000408368
0.000393137
0.000379977
0.000367304
0.000353024
0.000335546
0.00031471
0.000292027
0.000269977
0.000250673
0.000234643
0.000220471
0.000205555
0.000187573
0.00016584
0.000141764
0.000118168
9.78543e-05
8.22219e-05
7.0663e-05
6.10164e-05
5.0753e-05
3.82253e-05
2.33447e-05
7.41706e-06
-7.67684e-06
-2.04675e-05
-3.05475e-05
-3.86196e-05
-4.60085e-05
-5.39466e-05
-6.30049e-05
-7.29105e-05
-8.27754e-05
-9.15724e-05
-9.86119e-05
-0.000103815
-0.000107699
-0.000111134
-0.000114994
-0.000119856
-0.000125856
-0.000132703
-0.000139834
-0.000146614
-0.00015252
-0.000157251
-0.000160752
-0.000163169
-0.000164765
-0.000165834
-0.000166629
-0.000167328
-0.000168028
-0.000168753
-0.00016949
-0.000170202
-0.000170856
-0.000171431
-0.000171921
-0.000172334
-0.000172684
-0.000172992
-0.000173276
-0.000173551
-0.000173829
-0.000174114
-0.000174411
-0.000174718
-0.000175035
-0.000175359
-0.000175689
-0.000176024
-0.000176362
-0.000176703
-0.000177047
-0.000177393
-0.000177742
-0.000178094
-0.000178449
-0.000178807
-0.000179169
-0.000179534
-0.000179903
-0.000180275
-0.000180651
-0.00018103
-0.000181413
-0.0001818
-0.000182189
-0.000182583
-0.00018298
-0.000183381
-0.000183785
-0.000184192
-0.000184603
-0.000185018
-0.000185436
-0.000185858
-0.000186284
-0.000186712
-0.000187145
-0.000187581
-0.00018802
-0.000188464
-0.00018891
-0.00018936
-0.000189814
-0.000190271
-0.000190732
-0.000191197
-0.000191665
-0.000192136
-0.000192611
-0.000193089
-0.000193571
-0.000194057
-0.000194545
-0.000195038
-0.000195534
-0.000196033
-0.000196536
-0.000197042
-0.000197551
-0.000198064
-0.000198581
-0.0001991
-0.000199624
-0.00020015
-0.00020068
-0.000201213
-0.000201749
-0.000202289
-0.000202832
-0.000203378
-0.000203928
-0.00020448
-0.000205036
-0.000205595
-0.000206157
-0.000206722
-0.000207291
-0.000207862
-0.000208437
-0.000209014
-0.000209594
-0.000210178
-0.000210764
-0.000211353
-0.000211945
-0.00021254
-0.000213138
-0.000213738
-0.000214342
-0.000214948
-0.000215556
-0.000216168
-0.000216781
-0.000217398
-0.000218017
-0.000218638
-0.000219262
-0.000219889
-0.000220517
-0.000221148
-0.000221782
-0.000222417
-0.000223055
-0.000223695
-0.000224337
-0.000224982
-0.000225628
-0.000226276
-0.000226926
-0.000227578
-0.000228232
-0.000228888
-0.000229545
-0.000230204
-0.000230865
-0.000231528
-0.000232191
-0.000232857
-0.000233524
-0.000234192
-0.000234861
-0.000235532
-0.000236204
-0.000236877
-0.000237552
-0.000238227
-0.000238903
-0.000239581
-0.000240259
-0.000240938
-0.000241617
-0.000242298
-0.000242978
-0.00024366
-0.000244342
-0.000245024
-0.000245707
-0.00024639
-0.000247073
-0.000247757
-0.000248441
-0.000249124
-0.000249808
-0.000250491
-0.000251175
-0.000251858
-0.00025254
-0.000253223
-0.000253905
-0.000254586
-0.000255267
-0.000255947
-0.000256627
-0.000257305
-0.000257983
-0.00025866
-0.000259336
-0.00026001
-0.000260684
-0.000261356
-0.000262027
-0.000262697
-0.000263365
-0.000264032
-0.000264697
-0.00026536
-0.000266021
-0.000266681
-0.000267339
-0.000267995
-0.000268649
-0.0002693
-0.00026995
-0.000270597
-0.000271241
-0.000271884
-0.000272523
-0.000273161
-0.000273795
-0.000274427
-0.000275056
-0.000275682
-0.000276305
-0.000276925
-0.000277541
-0.000278155
-0.000278765
-0.000279372
-0.000279976
-0.000280576
-0.000281172
-0.000281765
-0.000282354
-0.000282939
-0.00028352
-0.000284098
-0.000284671
-0.00028524
-0.000285805
-0.000286366
-0.000286922
-0.000287474
-0.000288021
-0.000288564
-0.000289102
-0.000289636
-0.000290165
-0.000290689
-0.000291208
-0.000291722
-0.000292231
-0.000292735
-0.000293233
-0.000293727
-0.000294215
-0.000294697
-0.000295174
-0.000295646
-0.000296112
-0.000296572
-0.000297027
-0.000297476
-0.000297919
-0.000298355
-0.000298788
-0.000299211
-0.000299632
-0.000300042
-0.000300452
-0.000300848
-0.000301247
-0.000301628
-0.000302017
-0.000302382
-0.000302763
-0.000303108
-0.000303483
-0.000303806
-0.000304177
-0.000304476
-0.000304847
-0.000305116
-0.000305493
-0.000305724
-0.000306117
-0.000306297
-0.000306724
-0.000306831
-0.000307316
-0.000307323
-0.000307897
-0.00030777
-0.00030847
-0.000308172
-0.000309039
-0.000308525
-0.000309613
-0.000308816
-0.000310217
-0.000309013
-0.000310909
-0.000309046
-0.000311789
-0.000308807
-0.000312987
-0.000308213
-0.000314563
-0.000307344
-0.000316367
-0.000306608
-0.000318011
-0.000306679
-0.000319358
-0.000307817
-0.000322856
-0.000306403
-0.000352043
-0.000278525
-0.000278525
-0.094247
0.094247
0.120964
0.0969102
0.0717302
0.0531298
0.0401258
0.031028
0.0245666
0.0198886
0.0164327
0.0138278
0.0118252
0.0102557
0.00900274
0.00798495
0.00714514
0.00644247
0.00584729
0.00533762
0.00489676
0.00451178
0.00417258
0.00387126
0.00360171
0.00335935
0.0031408
0.00294349
0.00276513
0.00260342
0.00245595
0.00232052
0.00219536
0.00207923
0.00197135
0.00187116
0.00177829
0.00169246
0.00161333
0.00154018
0.00147186
0.00140693
0.00134431
0.00128373
0.00122587
0.00117186
0.00112255
0.00107796
0.00103724
0.000999094
0.000962257
0.000925829
0.000889404
0.000853125
0.000817715
0.000784359
0.000754248
0.000727833
0.000704164
0.000680848
0.000654908
0.000624239
0.000588863
0.000551144
0.000514667
0.000482293
0.000454497
0.000429013
0.000402057
0.000370492
0.000333682
0.000293993
0.000255648
0.000222597
0.00019658
0.000176407
0.000158775
0.000140053
0.000118062
9.29384e-05
6.67655e-05
4.23043e-05
2.15689e-05
4.95823e-06
-8.71495e-06
-2.14421e-05
-3.49693e-05
-5.00138e-05
-6.60697e-05
-8.18027e-05
-9.5767e-05
-0.000107079
-0.000115767
-0.000122693
-0.000129158
-0.000136389
-0.000145121
-0.000155416
-0.000166733
-0.000178174
-0.00018879
-0.000197847
-0.000204965
-0.000210136
-0.000213641
-0.000215916
-0.000217419
-0.000218533
-0.000219516
-0.000220499
-0.000221513
-0.000222526
-0.000223485
-0.00022434
-0.000225063
-0.000225649
-0.000226113
-0.000226481
-0.000226785
-0.000227054
-0.00022731
-0.000227569
-0.00022784
-0.000228127
-0.000228428
-0.000228741
-0.000229064
-0.000229394
-0.000229729
-0.000230067
-0.000230407
-0.000230749
-0.000231093
-0.00023144
-0.000231789
-0.00023214
-0.000232495
-0.000232853
-0.000233215
-0.00023358
-0.000233948
-0.00023432
-0.000234696
-0.000235074
-0.000235457
-0.000235842
-0.000236231
-0.000236624
-0.00023702
-0.000237419
-0.000237822
-0.000238228
-0.000238638
-0.000239051
-0.000239468
-0.000239888
-0.000240311
-0.000240738
-0.000241169
-0.000241602
-0.00024204
-0.00024248
-0.000242924
-0.000243372
-0.000243823
-0.000244278
-0.000244735
-0.000245197
-0.000245661
-0.00024613
-0.000246601
-0.000247076
-0.000247554
-0.000248036
-0.000248521
-0.00024901
-0.000249502
-0.000249997
-0.000250495
-0.000250997
-0.000251502
-0.000252011
-0.000252522
-0.000253037
-0.000253556
-0.000254077
-0.000254602
-0.00025513
-0.000255661
-0.000256195
-0.000256733
-0.000257273
-0.000257817
-0.000258364
-0.000258913
-0.000259466
-0.000260022
-0.000260581
-0.000261143
-0.000261708
-0.000262276
-0.000262846
-0.00026342
-0.000263996
-0.000264575
-0.000265157
-0.000265742
-0.00026633
-0.00026692
-0.000267513
-0.000268108
-0.000268706
-0.000269307
-0.00026991
-0.000270516
-0.000271124
-0.000271734
-0.000272347
-0.000272962
-0.00027358
-0.0002742
-0.000274822
-0.000275446
-0.000276072
-0.000276701
-0.000277331
-0.000277964
-0.000278598
-0.000279235
-0.000279873
-0.000280513
-0.000281155
-0.000281799
-0.000282444
-0.000283091
-0.00028374
-0.00028439
-0.000285041
-0.000285694
-0.000286349
-0.000287005
-0.000287662
-0.00028832
-0.000288979
-0.00028964
-0.000290301
-0.000290964
-0.000291627
-0.000292292
-0.000292957
-0.000293623
-0.000294289
-0.000294957
-0.000295625
-0.000296293
-0.000296962
-0.000297631
-0.000298301
-0.000298971
-0.000299641
-0.000300311
-0.000300981
-0.000301651
-0.000302322
-0.000302992
-0.000303662
-0.000304331
-0.000305001
-0.000305669
-0.000306338
-0.000307006
-0.000307673
-0.00030834
-0.000309006
-0.000309671
-0.000310335
-0.000310998
-0.000311661
-0.000312322
-0.000312982
-0.000313641
-0.000314298
-0.000314954
-0.000315609
-0.000316262
-0.000316913
-0.000317563
-0.000318211
-0.000318857
-0.000319502
-0.000320144
-0.000320784
-0.000321422
-0.000322058
-0.000322692
-0.000323323
-0.000323952
-0.000324579
-0.000325202
-0.000325823
-0.000326442
-0.000327058
-0.00032767
-0.00032828
-0.000328887
-0.000329491
-0.000330091
-0.000330688
-0.000331282
-0.000331873
-0.00033246
-0.000333043
-0.000333623
-0.000334199
-0.000334772
-0.00033534
-0.000335905
-0.000336465
-0.000337022
-0.000337574