# vtk DataFile Version 2.0
FlowField
ASCII
DATASET STRUCTURED_GRID
DIMENSIONS 400 1 50
POINTS 20000 float
0 0 0
0.08 0 0
0.16 0 0
0.24 0 0
0.32 0 0
0.4 0 0
0.48 0 0
0.56 0 0
0.64 0 0
0.72 0 0
0.8 0 0
0.88 0 0
0.96 0 0
1.04 0 0
1.12 0 0
1.2 0 0
1.28 0 0
1.36 0 0
1.44 0 0
1.52 0 0
1.6 0 0
1.68 0 0
1.76 0 0
1.84 0 0
1.92 0 0
2 0 0
2.08 0 0
2.16 0 0
2.24 0 0
2.32 0 0
2.4 0 0
2.48 0 0
2.56 0 0
2.64 0 0
2.72 0 0
2.8 0 0
2.88 0 0
2.96 0 0
3.04 0 0
3.12 0 0
3.2 0 0
3.28 0 0
3.36 0 0
3.44 0 0
3.52 0 0
3.6 0 0
3.68 0 0
3.76 0 0
3.84 0 0
3.92 0 0
4 0 0
4.08 0 0
4.16 0 0
4.24 0 0
4.32 0 0
4.4 0 0
4.48 0 0
4.56 0 0
4.64 0 0
4.72 0 0
4.8 0 0
4.88 0 0
4.96 0 0
5.04 0 0
5.12 0 0
5.2 0 0
5.28 0 0
5.36 0 0
5.44 0 0
5.52 0 0
5.6 0 0
5.68 0 0
5.76 0 0
5.84 0 0
5.92 0 0
6 0 0
6.08 0 0
6.16 0 0
6.24 0 0
6.32 0 0
6.4 0 0
6.48 0 0
6.56 0 0
6.64 0 0
6.72 0 0
6.8 0 0
6.88 0 0
6.96 0 0
7.04 0 0
7.12 0 0
7.2 0 0
7.28 0 0
7.36 0 0
7.44 0 0
7.52 0 0
7.6 0 0
7.68 0 0
7.76 0 0
7.84 0 0
7.92 0 0
8 0 0
8.08 0 0
8.16 0 0
8.24 0 0
8.32 0 0
8.4 0 0
8.48 0 0
8.56 0 0
8.64 0 0
8.72 0 0
8.8 0 0
8.88 0 0
8.96 0 0
9.04 0 0
9.12 0 0
9.2 0 0
9.28 0 0
9.36 0 0
9.44 0 0
9.52 0 0
9.6 0 0
9.68 0 0
9.76 0 0
9.84 0 0
9.92 0 0
10 0 0
10.08 0 0
10.16 0 0
10.24 0 0
10.32 0 0
10.4 0 0
10.48 0 0
10.56 0 0
10.64 0 0
10.72 0 0
10.8 0 0
10.88 0 0
10.96 0 0
11.04 0 0
11.12 0 0
11.2 0 0
11.28 0 0
11.36 0 0
11.44 0 0
11.52 0 0
11.6 0 0
11.68 0 0
11.76 0 0
11.84 0 0
11.92 0 0
12 0 0
12.08 0 0
12.16 0 0
12.24 0 0
12.32 0 0
12.4 0 0
12.48 0 0
12.56 0 0
12.64 0 0
12.72 0 0
12.8 0 0
12.88 0 0
12.96 0 0
13.04 0 0
13.12 0 0
13.2 0 0
13.28 0 0
13.36 0 0
13.44 0 0
13.52 0 0
13.6 0 0
13.68 0 0
13.76 0 0
13.84 0 0
13.92 0 0
14 0 0
14.08 0 0
14.16 0 0
14.24 0 0
14.32 0 0
14.4 0 0
14.48 0 0
14.56 0 0
14.64 0 0
14.72 0 0
14.8 0 0
14.88 0 0
14.96 0 0
15.04 0 0
15.12 0 0
15.2 0 0
15.28 0 0
15.36 0 0
15.44 0 0
15.52 0 0
15.6 0 0
15.68 0 0
15.76 0 0
15.84 0 0
15.92 0 0
16 0 0
16.08 0 0
16.16 0 0
16.24 0 0
16.32 0 0
16.4 0 0
16.48 0 0
16.56 0 0
16.64 0 0
16.72 0 0
16.8 0 0
16.88 0 0
16.96 0 0
17.04 0 0
17.12 0 0
17.2 0 0
17.28 0 0
17.36 0 0
17.44 0 0
17.52 0 0
17.6 0 0
17.68 0 0
17.76 0 0
17.84 0 0
17.92 0 0
18 0 0
18.08 0 0
18.16 0 0
18.24 0 0
18.32 0 0
18.4 0 0
18.48 0 0
18.56 0 0
18.64 0 0
18.72 0 0
18.8 0 0
18.88 0 0
18.96 0 0
19.04 0 0
19.12 0 0
19.2 0 0
19.28 0 0
19.36 0 0
19.44 0 0
19.52 0 0
19.6 0 0
19.68 0 0
19.76 0 0
19.84 0 0
19.92 0 0
20 0 0
20.08 0 0
20.16 0 0
20.24 0 0
20.32 0 0
20.4 0 0
20.48 0 0
20.56 0 0
20.64 0 0
20.72 0 0
20.8 0 0
20.88 0 0
20.96 0 0
21.04 0 0
21.12 0 0
21.2 0 0
21.28 0 0
21.36 0 0
21.44 0 0
21.52 0 0
21.6 0 0
21.68 0 0
21.76 0 0
21.84 0 0
21.92 0 0
22 0 0
22.08 0 0
22.16 0 0
22.24 0 0
22.32 0 0
22.4 0 0
22.48 0 0
22.56 0 0
22.64 0 0
22.72 0 0
22.8 0 0
22.88 0 0
22.96 0 0
23.04 0 0
23.12 0 0
23.2 0 0
23.28 0 0
23.36 0 0
23.44 0 0
23.52 0 0
23.6 0 0
23.68 0 0
23.76 0 0
23.84 0 0
23.92 0 0
24 0 0
24.08 0 0
24.16 0 0
24.24 0 0
24.32 0 0
24.4 0 0
24.48 0 0
24.56 0 0
24.64 0 0
24.72 0 0
24.8 0 0
24.88 0 0
24.96 0 0
25.04 0 0
25.12 0 0
25.2 0 0
25.28 0 0
25.36 0 0
25.44 0 0
25.52 0 0
25.6 0 0
25.68 0 0
25.76 0 0
25.84 0 0
25.92 0 0
26 0 0
26.08 0 0
26.16 0 0
26.24 0 0
26.32 0 0
26.4 0 0
26.48 0 0
26.56 0 0
26.64 0 0
26.72 0 0
26.8 0 0
26.88 0 0
26.96 0 0
27.04 0 0
27.12 0 0
27.2 0 0
27.28 0 0
27.36 0 0
27.44 0 0
27.52 0 0
27.6 0 0
27.68 0 0
27.76 0 0
27.84 0 0
27.92 0 0
28 0 0
28.08 0 0
28.16 0 0
28.24 0 0
28.32 0 0
28.4 0 0
28.48 0 0
28.56 0 0
28.64 0 0
28.72 0 0
28.8 0 0
28.88 0 0
28.96 0 0
29.04 0 0
29.12 0 0
29.2 0 0
29.28 0 0
29.36 0 0
29.44 0 0
29.52 0 0
29.6 0 0
29.68 0 0
29.76 0 0
29.84 0 0
29.92 0 0
30 0 0
30.08 0 0
30.16 0 0
30.24 0 0
30.32 0 0
30.4 0 0
30.48 0 0
30.56 0 0
30.64 0 0
30.72 0 0
30.8 0 0
30.88 0 0
30.96 0 0
31.04 0 0
31.12 0 0
31.2 0 0
31.28 0 0
31.36 0 0
31.44 0 0
31.52 0 0
31.6 0 0
31.68 0 0
31.76 0 0
31.84 0 0
31.92 0 0
0 0.02 0
0.08 0.02 0
0.16 0.02 0
0.24 0.02 0
0.32 0.02 0
0.4 0.02 0
0.48 0.02 0
0.56 0.02 0
0.64 0.02 0
0.72 0.02 0
0.8 0.02 0
0.88 0.02 0
0.96 0.02 0
1.04 0.02 0
1.12 0.02 0
1.2 0.02 0
1.28 0.02 0
1.36 0.02 0
1.44 0.02 0
1.52 0.02 0
1.6 0.02 0
1.68 0.02 0
1.76 0.02 0
1.84 0.02 0
1.92 0.02 0
2 0.02 0
2.08 0.02 0
2.16 0.02 0
2.24 0.02 0
2.32 0.02 0
2.4 0.02 0
2.48 0.02 0
2.56 0.02 0
2.64 0.02 0
2.72 0.02 0
2.8 0.02 0
2.88 0.02 0
2.96 0.02 0
3.04 0.02 0
3.12 0.02 0
3.2 0.02 0
3.28 0.02 0
3.36 0.02 0
3.44 0.02 0
3.52 0.02 0
3.6 0.02 0
3.68 0.02 0
3.76 0.02 0
3.84 0.02 0
3.92 0.02 0
4 0.02 0
4.08 0.02 0
4.16 0.02 0
4.24 0.02 0
4.32 0.02 0
4.4 0.02 0
4.48 0.02 0
4.56 0.02 0
4.64 0.02 0
4.72 0.02 0
4.8 0.02 0
4.88 0.02 0
4.96 0.02 0
5.04 0.02 0
5.12 0.02 0
5.2 0.02 0
5.28 0.02 0
5.36 0.02 0
5.44 0.02 0
5.52 0.02 0
5.6 0.02 0
5.68 0.02 0
5.76 0.02 0
5.84 0.02 0
5.92 0.02 0
6 0.02 0
6.08 0.02 0
6.16 0.02 0
6.24 0.02 0
6.32 0.02 0
6.4 0.02 0
6.48 0.02 0
6.56 0.02 0
6.64 0.02 0
6.72 0.02 0
6.8 0.02 0
6.88 0.02 0
6.96 0.02 0
7.04 0.02 0
7.12 0.02 0
7.2 0.02 0
7.28 0.02 0
7.36 0.02 0
7.44 0.02 0
7.52 0.02 0
7.6 0.02 0
7.68 0.02 0
7.76 0.02 0
7.84 0.02 0
7.92 0.02 0
8 0.02 0
8.08 0.02 0
8.16 0.02 0
8.24 0.02 0
8.32 0.02 0
8.4 0.02 0
8.48 0.02 0
8.56 0.02 0
8.64 0.02 0
8.72 0.02 0
8.8 0.02 0
8.88 0.02 0
8.96 0.02 0
9.04 0.02 0
9.12 0.02 0
9.2 0.02 0
9.28 0.02 0
9.36 0.02 0
9.44 0.02 0
9.52 0.02 0
9.6 0.02 0
9.68 0.02 0
9.76 0.02 0
9.84 0.02 0
9.92 0.02 0
10 0.02 0
10.08 0.02 0
10.16 0.02 0
10.24 0.02 0
10.32 0.02 0
10.4 0.02 0
10.48 0.02 0
10.56 0.02 0
10.64 0.02 0
10.72 0.02 0
10.8 0.02 0
10.88 0.02 0
10.96 0.02 0
11.04 0.02 0
11.12 0.02 0
11.2 0.02 0
11.28 0.02 0
11.36 0.02 0
11.44 0.02 0
11.52 0.02 0
11.6 0.02 0
11.68 0.02 0
11.76 0.02 0
11.84 0.02 0
11.92 0.02 0
12 0.02 0
12.08 0.02 0
12.16 0.02 0
12.24 0.02 0
12.32 0.02 0
12.4 0.02 0
12.48 0.02 0
12.56 0.02 0
12.64 0.02 0
12.72 0.02 0
12.8 0.02 0
12.88 0.02 0
12.96 0.02 0
13.04 0.02 0
13.12 0.02 0
13.2 0.02 0
13.28 0.02 0
13.36 0.02 0
13.44 0.02 0
13.52 0.02 0
13.6 0.02 0
13.68 0.02 0
13.76 0.02 0
13.84 0.02 0
13.92 0.02 0
14 0.02 0
14.08 0.02 0
14.16 0.02 0
14.24 0.02 0
14.32 0.02 0
14.4 0.02 0
14.48 0.02 0
14.56 0.02 0
14.64 0.02 0
14.72 0.02 0
14.8 0.02 0
14.88 0.02 0
14.96 0.02 0
15.04 0.02 0
15.12 0.02 0
15.2 0.02 0
15.28 0.02 0
15.36 0.02 0
15.44 0.02 0
15.52 0.02 0
15.6 0.02 0
15.68 0.02 0
15.76 0.02 0
15.84 0.02 0
15.92 0.02 0
16 0.02 0
16.08 0.02 0
16.16 0.02 0
16.24 0.02 0
16.32 0.02 0
16.4 0.02 0
16.48 0.02 0
16.56 0.02 0
16.64 0.02 0
16.72 0.02 0
16.8 0.02 0
16.88 0.02 0
16.96 0.02 0
17.04 0.02 0
17.12 0.02 0
17.2 0.02 0
17.28 0.02 0
17.36 0.02 0
17.44 0.02 0
17.52 0.02 0
17.6 0.02 0
17.68 0.02 0
17.76 0.02 0
17.84 0.02 0
17.92 0.02 0
18 0.02 0
18.08 0.02 0
18.16 0.02 0
18.24 0.02 0
18.32 0.02 0
18.4 0.02 0
18.48 0.02 0
18.56 0.02 0
18.64 0.02 0
18.72 0.02 0
18.8 0.02 0
18.88 0.02 0
18.96 0.02 0
19.04 0.02 0
19.12 0.02 0
19.2 0.02 0
19.28 0.02 0
19.36 0.02 0
19.44 0.02 0
19.52 0.02 0
19.6 0.02 0
19.68 0.02 0
19.76 0.02 0
19.84 0.02 0
19.92 0.02 0
20 0.02 0
20.08 0.02 0
20.16 0.02 0
20.24 0.02 0
20.32 0.02 0
20.4 0.02 0
20.48 0.02 0
20.56 0.02 0
20.64 0.02 0
20.72 0.02 0
20.8 0.02 0
20.88 0.02 0
20.96 0.02 0
21.04 0.02 0
21.12 0.02 0
21.2 0.02 0
21.28 0.02 0
21.36 0.02 0
21.44 0.02 0
21.52 0.02 0
21.6 0.02 0
21.68 0.02 0
21.76 0.02 0
21.84 0.02 0
21.92 0.02 0
22 0.02 0
22.08 0.02 0
22.16 0.02 0
22.24 0.02 0
22.32 0.02 0
22.4 0.02 0
22.48 0.02 0
22.56 0.02 0
22.64 0.02 0
22.72 0.02 0
22.8 0.02 0
22.88 0.02 0
22.96 0.02 0
23.04 0.02 0
23.12 0.02 0
23.2 0.02 0
23.28 0.02 0
23.36 0.02 0
23.44 0.02 0
23.52 0.02 0
23.6 0.02 0
23.68 0.02 0
23.76 0.02 0
23.84 0.02 0
23.92 0.02 0
24 0.02 0
24.08 0.02 0
24.16 0.02 0
24.24 0.02 0
24.32 0.02 0
24.4 0.02 0
24.48 0.02 0
24.56 0.02 0
24.64 0.02 0
24.72 0.02 0
24.8 0.02 0
24.88 0.02 0
24.96 0.02 0
25.04 0.02 0
25.12 0.02 0
25.2 0.02 0
25.28 0.02 0
25.36 0.02 0
25.44 0.02 0
25.52 0.02 0
25.6 0.02 0
25.68 0.02 0
25.76 0.02 0
25.84 0.02 0
25.92 0.02 0
26 0.02 0
26.08 0.02 0
26.16 0.02 0
26.24 0.02 0
26.32 0.02 0
26.4 0.02 0
26.48 0.02 0
26.56 0.02 0
26.64 0.02 0
26.72 0.02 0
26.8 0.02 0
26.88 0.02 0
26.96 0.02 0
27.04 0.02 0
27.12 0.02 0
27.2 0.02 0
27.28 0.02 0
27.36 0.02 0
27.44 0.02 0
27.52 0.02 0
27.6 0.02 0
27.68 0.02 0
27.76 0.02 0
27.84 0.02 0
27.92 0.02 0
28 0.02 0
28.08 0.02 0
28.16 0.02 0
28.24 0.02 0
28.32 0.02 0
28.4 0.02 0
28.48 0.02 0
28.56 0.02 0
28.64 0.02 0
28.72 0.02 0
28.8 0.02 0
28.88 0.02 0
28.96 0.02 0
29.04 0.02 0
29.12 0.02 0
29.2 0.02 0
29.28 0.02 0
29.36 0.02 0
29.44 0.02 0
29.52 0.02 0
29.6 0.02 0
29.68 0.02 0
29.76 0.02 0
29.84 0.02 0
29.92 0.02 0
30 0.02 0
30.08 0.02 0
30.16 0.02 0
30.24 0.02 0
30.32 0.02 0
30.4 0.02 0
30.48 0.02 0
30.56 0.02 0
30.64 0.02 0
30.72 0.02 0
30.8 0.02 0
30.88 0.02 0
30.96 0.02 0
31.04 0.02 0
31.12 0.02 0
31.2 0.02 0
31.28 0.02 0
31.36 0.02 0
31.44 0.02 0
31.52 0.02 0
31.6 0.02 0
31.68 0.02 0
31.76 0.02 0
31.84 0.02 0
31.92 0.02 0
0 0.04 0
0.08 0.04 0
0.16 0.04 0
0.24 0.04 0
0.32 0.04 0
0.4 0.04 0
0.48 0.04 0
0.56 0.04 0
0.64 0.04 0
0.72 0.04 0
0.8 0.04 0
0.88 0.04 0
0.96 0.04 0
1.04 0.04 0
1.12 0.04 0
1.2 0.04 0
1.28 0.04 0
1.36 0.04 0
1.44 0.04 0
1.52 0.04 0
1.6 0.04 0
1.68 0.04 0
1.76 0.04 0
1.84 0.04 0
1.92 0.04 0
2 0.04 0
2.08 0.04 0
2.16 0.04 0
2.24 0.04 0
2.32 0.04 0
2.4 0.04 0
2.48 0.04 0
2.56 0.04 0
2.64 0.04 0
2.72 0.04 0
2.8 0.04 0
2.88 0.04 0
2.96 0.04 0
3.04 0.04 0
3.12 0.04 0
3.2 0.04 0
3.28 0.04 0
3.36 0.04 0
3.44 0.04 0
3.52 0.04 0
3.6 0.04 0
3.68 0.04 0
3.76 0.04 0
3.84 0.04 0
3.92 0.04 0
4 0.04 0
4.08 0.04 0
4.16 0.04 0
4.24 0.04 0
4.32 0.04 0
4.4 0.04 0
4.48 0.04 0
4.56 0.04 0
4.64 0.04 0
4.72 0.04 0
4.8 0.04 0
4.88 0.04 0
4.96 0.04 0
5.04 0.04 0
5.12 0.04 0
5.2 0.04 0
5.28 0.04 0
5.36 0.04 0
5.44 0.04 0
5.52 0.04 0
5.6 0.04 0
5.68 0.04 0
5.76 0.04 0
5.84 0.04 0
5.92 0.04 0
6 0.04 0
6.08 0.04 0
6.16 0.04 0
6.24 0.04 0
6.32 0.04 0
6.4 0.04 0
6.48 0.04 0
6.56 0.04 0
6.64 0.04 0
6.72 0.04 0
6.8 0.04 0
6.88 0.04 0
6.96 0.04 0
7.04 0.04 0
7.12 0.04 0
7.2 0.04 0
7.28 0.04 0
7.36 0.04 0
7.44 0.04 0
7.52 0.04 0
7.6 0.04 0
7.68 0.04 0
7.76 0.04 0
7.84 0.04 0
[...]
POINT_DATA 20000

SCALARS u float 1
LOOKUP_TABLE default
0
-0.507089
-0.29192
-0.214161
-0.179026
-0.158665
-0.145112
-0.13536
-0.127968
-0.122141
-0.117403
-0.113452
-0.110088
-0.107175
-0.104617
-0.102344
-0.100304
-0.0984594
-0.0967796
-0.0952411
-0.0938251
-0.0925162
-0.0913017
-0.090171
-0.0891151
-0.0881264
-0.0871984
-0.0863252
-0.085502
-0.0847242
-0.0839882
-0.0832905
-0.0826279
-0.0819979
-0.081398
-0.0808259
-0.0802797
-0.0797577
-0.0792582
-0.0787797
-0.0783208
-0.0778805
-0.0774574
-0.0770507
-0.0766594
-0.0762825
-0.0759193
-0.0755691
-0.0752311
-0.0749047
-0.0745893
-0.0742844
-0.0739895
-0.0737041
-0.0734277
-0.0731599
-0.0729003
-0.0726486
-0.0724045
-0.0721675
-0.0719374
-0.071714
-0.0714969
-0.0712859
-0.0710807
-0.0708812
-0.0706871
-0.0704982
-0.0703144
-0.0701354
-0.069961
-0.0697912
-0.0696258
-0.0694645
-0.0693074
-0.0691541
-0.0690047
-0.068859
-0.0687168
-0.0685781
-0.0684428
-0.0683107
-0.0681818
-0.068056
-0.0679331
-0.0678132
-0.067696
-0.0675816
-0.0674699
-0.0673607
-0.067254
-0.0671498
-0.067048
-0.0669485
-0.0668513
-0.0667562
-0.0666634
-0.0665726
-0.0664838
-0.0663971
-0.0663122
-0.0662293
-0.0661482
-0.066069
-0.0659914
-0.0659156
-0.0658415
-0.065769
-0.0656981
-0.0656288
-0.065561
-0.0654947
-0.0654299
-0.0653664
-0.0653044
-0.0652437
-0.0651843
-0.0651263
-0.0650695
-0.0650139
-0.0649596
-0.0649065
-0.0648545
-0.0648036
-0.0647538
-0.0647052
-0.0646576
-0.064611
-0.0645654
-0.0645209
-0.0644773
-0.0644346
-0.0643929
-0.0643521
-0.0643121
-0.0642731
-0.0642349
-0.0641975
-0.0641609
-0.0641251
-0.0640901
-0.0640559
-0.0640224
-0.0639896
-0.0639575
-0.0639262
-0.0638955
-0.0638654
-0.0638361
-0.0638073
-0.0637792
-0.0637517
-0.0637248
-0.0636984
-0.0636727
-0.0636475
-0.0636228
-0.0635987
-0.0635751
-0.063552
-0.0635294
-0.0635072
-0.0634856
-0.0634644
-0.0634437
-0.0634234
-0.0634036
-0.0633842
-0.0633652
-0.0633466
-0.0633284
-0.0633106
-0.0632932
-0.0632762
-0.0632595
-0.0632432
-0.0632272
-0.0632116
-0.0631963
-0.0631814
-0.0631667
-0.0631524
-0.0631384
-0.0631247
-0.0631112
-0.0630981
-0.0630853
-0.0630727
-0.0630604
-0.0630483
-0.0630365
-0.063025
-0.0630137
-0.0630027
-0.0629919
-0.0629813
-0.0629709
-0.0629608
-0.0629509
-0.0629412
-0.0629317
-0.0629224
-0.0629133
-0.0629044
-0.0628957
-0.0628872
-0.0628789
-0.0628707
-0.0628627
-0.0628549
-0.0628473
-0.0628398
-0.0628324
-0.0628253
-0.0628183
-0.0628114
-0.0628047
-0.0627981
-0.0627916
-0.0627853
-0.0627792
-0.0627731
-0.0627672
-0.0627615
-0.0627558
-0.0627503
-0.0627448
-0.0627395
-0.0627344
-0.0627293
-0.0627243
-0.0627195
-0.0627148
-0.0627101
-0.0627056
-0.0627012
-0.0626969
-0.0626926
-0.0626885
-0.0626845
-0.0626806
-0.0626768
-0.062673
-0.0626694
-0.0626658
-0.0626624
-0.062659
-0.0626558
-0.0626526
-0.0626495
-0.0626465
-0.0626436
-0.0626408
-0.0626381
-0.0626355
-0.062633
-0.0626305
-0.0626282
-0.0626259
-0.0626237
-0.0626216
-0.0626196
-0.0626177
-0.0626159
-0.0626141
-0.0626124
-0.0626108
-0.0626093
-0.0626079
-0.0626066
-0.0626053
-0.0626041
-0.062603
-0.0626019
-0.0626009
-0.0626
-0.0625992
-0.0625984
-0.0625977
-0.062597
-0.0625965
-0.0625959
-0.0625954
-0.062595
-0.0625946
-0.0625943
-0.062594
-0.0625938
-0.0625936
-0.0625935
-0.0625934
-0.0625934
-0.0625933
-0.0625933
-0.0625934
-0.0625935
-0.0625936
-0.0625937
-0.0625939
-0.0625941
-0.0625943
-0.0625945
-0.0625948
-0.062595
-0.0625953
-0.0625956
-0.0625959
-0.0625962
-0.0625966
-0.0625969
-0.0625973
-0.0625977
-0.062598
-0.0625984
-0.0625988
-0.0625992
-0.0625996
-0.0626
-0.0626004
-0.0626008
-0.0626013
-0.0626017
-0.0626021
-0.0626025
-0.062603
-0.0626034
-0.0626038
-0.0626042
-0.0626047
-0.0626051
-0.0626055
-0.062606
-0.0626064
-0.0626068
-0.0626073
-0.0626077
-0.0626082
-0.0626086
-0.062609
-0.0626095
-0.0626099
-0.0626103
-0.0626108
-0.0626112
-0.0626116
-0.0626121
-0.0626125
-0.062613
-0.0626134
-0.0626138
-0.0626143
-0.0626147
-0.0626151
-0.0626156
-0.062616
-0.0626165
-0.0626169
-0.0626173
-0.0626178
-0.0626182
-0.0626186
-0.0626191
-0.0626195
-0.06262
-0.0626204
-0.0626208
-0.0626213
-0.0626217
-0.0626221
-0.0626226
-0.062623
-0.0626235
-0.0626239
-0.0626243
-0.0626248
-0.0626252
-0.0626257
-0.0626261
-0.0626266
-0.062627
-0.0626275
-0.0626279
-0.0626284
-0.0626288
-0.0626293
-0.0626298
-0.0626302
-0.0626307
-0.0626311
-0.0626316
-0.0626321
-0.0626326
-0.0626331
-0.0626336
-0.062634
-0.0626344
-0.0626349
-0.0626347
-0.0626347
-0.0626347
1
0.507089
0.29192
0.214161
0.179026
0.158665
0.145112
0.13536
0.127968
0.122141
0.117403
0.113452
0.110088
0.107175
0.104617
0.102344
0.100304
0.0984594
0.0967796
0.0952411
0.0938251
0.0925162
0.0913017
0.090171
0.0891151
0.0881264
0.0871984
0.0863252
0.085502
0.0847242
0.0839882
0.0832905
0.0826279
0.0819979
0.081398
0.0808259
0.0802797
0.0797577
0.0792582
0.0787797
0.0783208
0.0778805
0.0774574
0.0770507
0.0766594
0.0762825
0.0759193
0.0755691
0.0752311
0.0749047
0.0745893
0.0742844
0.0739895
0.0737041
0.0734277
0.0731599
0.0729003
0.0726486
0.0724045
0.0721675
0.0719374
0.071714
0.0714969
0.0712859
0.0710807
0.0708812
0.0706871
0.0704982
0.0703144
0.0701354
0.069961
0.0697912
0.0696258
0.0694645
0.0693074
0.0691541
0.0690047
0.068859
0.0687168
0.0685781
0.0684428
0.0683107
0.0681818
0.068056
0.0679331
0.0678132
0.067696
0.0675816
0.0674699
0.0673607
0.067254
0.0671498
0.067048
0.0669485
0.0668513
0.0667562
0.0666634
0.0665726
0.0664838
0.0663971
0.0663122
0.0662293
0.0661482
0.066069
0.0659914
0.0659156
0.0658415
0.065769
0.0656981
0.0656288
0.065561
0.0654947
0.0654299
0.0653664
0.0653044
0.0652437
0.0651843
0.0651263
0.0650695
0.0650139
0.0649596
0.0649065
0.0648545
0.0648036
0.0647538
0.0647052
0.0646576
0.064611
0.0645654
0.0645209
0.0644773
0.0644346
0.0643929
0.0643521
0.0643121
0.0642731
0.0642349
0.0641975
0.0641609
0.0641251
0.0640901
0.0640559
0.0640224
0.0639896
0.0639575
0.0639262
0.0638955
0.0638654
0.0638361
0.0638073
0.0637792
0.0637517
0.0637248
0.0636984
0.0636727
0.0636475
0.0636228
0.0635987
0.0635751
0.063552
0.0635294
0.0635072
0.0634856
0.0634644
0.0634437
0.0634234
0.0634036
0.0633842
0.0633652
0.0633466
0.0633284
0.0633106
0.0632932
0.0632762
0.0632595
0.0632432
0.0632272
0.0632116
0.0631963
0.0631814
0.0631667
0.0631524
0.0631384
0.0631247
0.0631112
0.0630981
0.0630853
0.0630727
0.0630604
0.0630483
0.0630365
0.063025
0.0630137
0.0630027
0.0629919
0.0629813
0.0629709
0.0629608
0.0629509
0.0629412
0.0629317
0.0629224
0.0629133
0.0629044
0.0628957
0.0628872
0.0628789
0.0628707
0.0628627
0.0628549
0.0628473
0.0628398
0.0628324
0.0628253
0.0628183
0.0628114
0.0628047
0.0627981
0.0627916
0.0627853
0.0627792
0.0627731
0.0627672
0.0627615
0.0627558
0.0627503
0.0627448
0.0627395
0.0627344
0.0627293
0.0627243
0.0627195
0.0627148
0.0627101
0.0627056
0.0627012
0.0626969
0.0626926
0.0626885
0.0626845
0.0626806
0.0626768
0.062673
0.0626694
0.0626658
0.0626624
0.062659
0.0626558
0.0626526
0.0626495
0.0626465
0.0626436
0.0626408
0.0626381
0.0626355
0.062633
0.0626305
0.0626282
0.0626259
0.0626237
0.0626216
0.0626196
0.0626177
0.0626159
0.0626141
0.0626124
0.0626108
0.0626093
0.0626079
0.0626066
0.0626053
0.0626041
0.062603
0.0626019
0.0626009
0.0626
0.0625992
0.0625984
0.0625977
0.062597
0.0625965
0.0625959
0.0625954
0.062595
0.0625946
0.0625943
0.062594
0.0625938
0.0625936
0.0625935
0.0625934
0.0625934
0.0625933
0.0625933
0.0625934
0.0625935
0.0625936
0.0625937
0.0625939
0.0625941
0.0625943
0.0625945
0.0625948
0.062595
0.0625953
0.0625956
0.0625959
0.0625962
0.0625966
0.0625969
0.0625973
0.0625977
0.062598
0.0625984
0.0625988
0.0625992
0.0625996
0.0626
0.0626004
0.0626008
0.0626013
0.0626017
0.0626021
0.0626025
0.062603
0.0626034
0.0626038
0.0626042
0.0626047
0.0626051
0.0626055
0.062606
0.0626064
0.0626068
0.0626073
0.0626077
0.0626082
0.0626086
0.062609
0.0626095
0.0626099
0.0626103
0.0626108
0.0626112
0.0626116
0.0626121
0.0626125
0.062613
0.0626134
0.0626138
0.0626143
0.0626147
0.0626151
0.0626156
0.062616
0.0626165
0.0626169
0.0626173
0.0626178
0.0626182
0.0626186
0.0626191
0.0626195
0.06262
0.0626204
0.0626208
0.0626213
0.0626217
0.0626221
0.0626226
0.062623
0.0626235
0.0626239
0.0626243
0.0626248
0.0626252
0.0626257
0.0626261
0.0626266
0.062627
0.0626275
0.0626279
0.0626284
0.0626288
0.0626293
0.0626298
0.0626302
0.0626307
0.0626311
0.0626316
0.0626321
0.0626326
0.0626331
0.0626336
0.062634
0.0626344
0.0626349
0.0626347
0.0626347
0.0626347
1
0.924297
0.735446
0.597551
0.511657
0.456343
0.418183
0.39028
0.368949
0.352065
0.338318
0.326859
0.31712
0.308703
0.301328
0.294792
0.28894
0.283659
0.27886
0.274471
0.270438
0.266714
0.263263
0.260054
0.257059
0.254257
0.251628
0.249157
0.246828
0.244628
0.242548
0.240577
0.238706
0.236927
0.235234
0.23362
0.232079
0.230608
0.2292
0.227851
0.226559
0.225318
0.224127
0.222982
0.221881
0.22082
0.219799
0.218814
0.217863
0.216946
0.216059
0.215203
0.214374
0.213572
0.212796
0.212044
0.211316
0.210609
0.209924
0.209259
0.208614
0.207987
0.207379
0.206787
0.206212
0.205653
0.205109
0.20458
0.204065
0.203564
0.203076
0.2026
0.202137
0.201686
0.201246
0.200817
0.2004
0.199992
0.199594
0.199207
0.198828
0.198459
0.198099
0.197748
0.197404
0.197069
0.196742
0.196423
0.196111
0.195806
0.195508
0.195217
0.194933
0.194656
0.194384
0.194119
0.19386
0.193607
0.19336
0.193118
0.192881
0.19265
0.192424
0.192203
0.191987
0.191776
0.19157
0.191368
0.19117
0.190977
0.190789
0.190604
0.190423
0.190247
0.190074
0.189905
0.18974
0.189579
0.189421
0.189266
0.189115
0.188967
0.188823
0.188681
0.188543
0.188408
0.188275
0.188146
0.188019
0.187895
0.187774
0.187656
0.18754
0.187426
0.187316
0.187207
0.187101
0.186997
0.186896
0.186796
0.186699
0.186604
0.186511
0.18642
0.186331
0.186244
0.186159
0.186076
0.185994
0.185914
0.185836
0.18576
0.185685
0.185612
0.185541
0.185471
0.185403
0.185336
0.18527
0.185206
0.185143
0.185082
0.185022
0.184963
0.184906
0.18485
0.184795
0.184741
0.184688
0.184637
0.184587
0.184537
0.184489
0.184442
0.184396
0.18435
0.184306
0.184263
0.184221
0.184179
0.184139
0.184099
0.18406
0.184022
0.183985
0.183948
0.183913
0.183878
0.183844
0.183811
0.183778
0.183746
0.183715
0.183684
0.183654
0.183625
0.183596
0.183568
0.183541
0.183514
0.183488
0.183462
0.183437
0.183412
0.183388
0.183364
0.183341
0.183319
0.183297
0.183275
0.183254
0.183233
0.183213
0.183193
0.183174
0.183154
0.183136
0.183118
0.1831
0.183082
0.183065
0.183049
0.183032
0.183016
0.183001
0.182985
0.18297
0.182956
0.182941
0.182927
0.182914
0.1829
0.182887
0.182874
0.182862
0.18285
0.182838
0.182826
0.182815
0.182804
0.182793
0.182782
0.182772
0.182762
0.182752
0.182743
0.182734
0.182725
0.182716
0.182708
0.1827
0.182692
0.182684
0.182677
0.18267
0.182663
0.182656
0.18265
0.182644
0.182638
0.182633
0.182627
0.182622
0.182617
0.182613
0.182608
0.182604
0.1826
0.182596
0.182593
0.18259
0.182586
0.182584
0.182581
0.182578
0.182576
0.182574
0.182572
0.18257
0.182569
0.182567
0.182566
0.182565
0.182564
0.182563
0.182562
0.182562
0.182561
0.182561
0.182561
0.18256
0.18256
0.18256
0.182561
0.182561
0.182561
0.182562
0.182562
0.182563
0.182563
0.182564
0.182565
0.182565
0.182566
0.182567
0.182568
0.182569
0.18257
0.182571
0.182572
0.182573
0.182574
0.182575
0.182576
0.182577
0.182579
0.18258
0.182581
0.182582
0.182583
0.182584
0.182586
0.182587
0.182588
0.182589
0.18259
0.182592
0.182593
0.182594
0.182595
0.182597
0.182598
0.182599
0.1826
0.182602
0.182603
0.182604
0.182605
0.182606
0.182608
0.182609
0.18261
0.182611
0.182613
0.182614
0.182615
0.182616
0.182618
0.182619
0.18262
0.182621
0.182622
0.182624
0.182625
0.182626
0.182627
0.182629
0.18263
0.182631
0.182632
0.182634
0.182635
0.182636
0.182637
0.182639
0.18264
0.182641
0.182642
0.182643
0.182645
0.182646
0.182647
0.182648
0.18265
0.182651
0.182652
0.182653
0.182655
0.182656
0.182657
0.182658
0.18266
0.182661
0.182662
0.182664
0.182665
0.182666
0.182668
0.182669
0.18267
0.182672
0.182673
0.182674
0.182676
0.182677
0.182678
0.182679
0.18268
0.18268
0.18268
1
1.07971
0.997071
0.883651
0.788697
0.716913
0.663051
0.621837
0.589495
0.563482
0.542091
0.524151
0.508844
0.495589
0.483963
0.473652
0.464423
0.456094
0.448526
0.441609
0.435253
0.429387
0.423951
0.418896
0.414181
0.40977
0.405632
0.401742
0.398076
0.394615
0.391342
0.38824
0.385296
0.382498
0.379834
0.377295
0.374872
0.372557
0.370343
0.368223
0.36619
0.36424
0.362367
0.360567
0.358836
0.357169
0.355564
0.354016
0.352523
0.351081
0.349689
0.348343
0.347042
0.345783
0.344564
0.343383
0.34224
0.341131
0.340055
0.339012
0.338
0.337016
0.336061
0.335134
0.334232
0.333355
0.332502
0.331673
0.330865
0.33008
0.329315
0.32857
0.327844
0.327137
0.326448
0.325777
0.325122
0.324484
0.323862
0.323255
0.322663
0.322085
0.321521
0.320971
0.320434
0.31991
0.319398
0.318898
0.31841
0.317934
0.317468
0.317014
0.316569
0.316135
0.315712
0.315297
0.314893
0.314497
0.31411
0.313733
0.313363
0.313002
0.312649
0.312305
0.311967
0.311638
0.311315
0.311
0.310692
0.310391
0.310096
0.309808
0.309527
0.309251
0.308982
0.308719
0.308461
0.308209
0.307963
0.307722
0.307486
0.307256
0.307031
0.30681
0.306595
0.306384
0.306178
0.305976
0.305779
0.305586
0.305397
0.305213
0.305032
0.304855
0.304683
0.304514
0.304349
0.304187
0.304029
0.303874
0.303723
0.303575
0.30343
0.303289
0.30315
0.303015
0.302882
0.302753
0.302626
0.302502
0.302381
0.302262
0.302146
0.302032
0.301921
0.301812
0.301706
0.301602
0.3015
0.301401
0.301303
0.301208
0.301115
0.301023
0.300934
0.300847
0.300761
0.300678
0.300596
0.300516
0.300438
0.300361
0.300286
0.300213
0.300141
0.300071
0.300002
0.299935
0.299869
0.299805
0.299742
0.29968
0.29962
0.299561
0.299503
0.299447
0.299391
0.299337
0.299284
0.299233
0.299182
0.299132
0.299084
0.299036
0.29899
0.298944
0.2989
0.298856
0.298814
0.298772
0.298731
0.298691
0.298652
0.298614
0.298576
0.29854
0.298504
0.298469
0.298434
0.298401
0.298368
0.298336
0.298304
0.298273
0.298243
0.298214
0.298185
0.298156
0.298129
0.298102
0.298075
0.298049
0.298024
0.297999
0.297975
0.297951
0.297928
0.297905
0.297883
0.297861
0.29784
0.297819
0.297799
0.297779
0.297759
0.297741
0.297722
0.297704
0.297687
0.297669
0.297653
0.297636
0.297621
0.297605
0.29759
0.297576
0.297562
0.297548
0.297535
0.297522
0.297509
0.297497
0.297485
0.297474
0.297463
0.297453
0.297443
0.297433
0.297424
0.297415
0.297406
0.297398
0.297391
0.297383
0.297376
0.297369
0.297363
0.297357
0.297352
0.297346
0.297341
0.297337
0.297333
0.297329
0.297325
0.297321
0.297318
0.297315
0.297313
0.297311
0.297308
0.297307
0.297305
0.297304
0.297302
0.297301
0.297301
0.2973
0.2973
0.2973
0.2973
0.2973
0.2973
0.2973
0.297301
0.297301
0.297302
0.297303
0.297304
0.297305
0.297306
0.297307
0.297308
0.29731
0.297311
0.297313
0.297314
0.297316
0.297317
0.297319
0.297321
0.297322
0.297324
0.297326
0.297327
0.297329
0.297331
0.297333
0.297335
0.297337
0.297338
0.29734
0.297342
0.297344
0.297346
0.297348
0.29735
0.297352
0.297354
0.297356
0.297357
0.297359
0.297361
0.297363
0.297365
0.297367
0.297369
0.297371
0.297373
0.297375
0.297377
0.297379
0.297381
0.297382
0.297384
0.297386
0.297388
0.29739
0.297392
0.297394
0.297396
0.297398
0.2974
0.297402
0.297404
0.297406
0.297408
0.297409
0.297411
0.297413
0.297415
0.297417
0.297419
0.297421
0.297423
0.297425
0.297427
0.297429
0.297431
0.297433
0.297435
0.297437
0.297438
0.29744
0.297442
0.297444
0.297446
0.297448
0.29745
0.297452
0.297454
0.297456
0.297458
0.29746
0.297462
0.297464
0.297466
0.297468
0.29747
0.297472
0.297474
0.297477
0.297479
0.297481
0.297483
0.297485
0.297487
0.297488
0.297488
0.297488
1
1.11179
1.11438
1.05557
0.984376
0.919038
0.863805
0.818222
0.78065
0.749427
0.723169
0.700801
0.681504
0.66466
0.649801
0.636567
0.624682
0.613931
0.604144
0.595183
0.58694
0.579323
0.572258
0.565683
0.559545
0.553799
0.548406
0.543332
0.538549
0.534032
0.529757
0.525704
0.521857
0.518199
0.514716
0.511395
0.508225
0.505196
0.502298
0.499522
0.496861
0.494308
0.491856
0.489498
0.487231
0.485048
0.482944
0.480916
0.47896
0.477071
0.475247
0.473484
0.471779
0.470129
0.468533
0.466986
0.465487
0.464035
0.462626
0.461259
0.459933
0.458645
0.457394
0.456179
0.454998
0.45385
0.452733
0.451647
0.45059
0.449561
0.44856
0.447585
0.446635
0.44571
0.444808
0.44393
0.443073
0.442238
0.441424
0.44063
0.439856
0.4391
0.438363
0.437643
0.436941
0.436256
0.435587
0.434934
0.434296
0.433673
0.433065
0.432471
0.431891
0.431324
0.43077
0.430229
0.429701
0.429184
0.428679
0.428186
0.427704
0.427233
0.426772
0.426322
0.425882
0.425452
0.425032
0.424621
0.424219
0.423826
0.423442
0.423066
0.422699
0.42234
0.421989
0.421645
0.421309
0.420981
0.42066
0.420346
0.420039
0.419739
0.419445
0.419158
0.418877
0.418603
0.418334
0.418072
0.417815
0.417564
0.417318
0.417078
0.416843
0.416613
0.416388
0.416168
0.415953
0.415743
0.415537
0.415336
0.415139
0.414947
0.414759
0.414574
0.414394
0.414218
0.414046
0.413877
0.413713
0.413551
0.413394
0.413239
0.413088
0.412941
0.412796
0.412655
0.412517
0.412382
0.412249
0.41212
0.411994
0.41187
0.411749
0.41163
0.411514
0.411401
0.41129
0.411181
0.411075
0.410971
0.410869
0.41077
0.410673
0.410577
0.410484
0.410393
0.410304
0.410217
0.410131
0.410048
0.409966
0.409886
0.409808
0.409731
0.409656
0.409583
0.409511
0.409441
0.409372
0.409305
0.409239
0.409175
0.409112
0.40905
0.40899
0.408931
0.408873
0.408817
0.408762
0.408707
0.408654
0.408603
0.408552
0.408502
0.408454
0.408406
0.40836
0.408314
0.40827
0.408226
0.408183
0.408141
0.408101
0.408061
0.408021
0.407983
0.407946
0.407909
0.407873
0.407838
0.407803
0.40777
0.407737
0.407704
0.407673
0.407642
0.407612
0.407582
0.407554
0.407525
0.407498
0.407471
0.407445
0.407419
0.407394
0.407369
0.407345
0.407322
0.407299
0.407277
0.407256
0.407235
0.407214
0.407194
0.407175
0.407156
0.407138
0.40712
0.407103
0.407086
0.40707
0.407055
0.407039
0.407025
0.407011
0.406998
0.406985
0.406972
0.40696
0.406949
0.406938
0.406928
0.406918
0.406908
0.406899
0.406891
0.406883
0.406875
0.406868
0.406861
0.406855
0.406849
0.406844
0.406839
0.406834
0.40683
0.406826
0.406822
0.406819
0.406816
0.406814
0.406811
0.40681
0.406808
0.406806
0.406805
0.406804
0.406804
0.406803
0.406803
0.406803
0.406803
0.406804
0.406804
0.406805
0.406806
0.406807
0.406808
0.406809
0.406811
0.406812
0.406814
0.406815
0.406817
0.406819
0.406821
0.406823
0.406825
0.406827
0.406829
0.406831
0.406833
0.406836
0.406838
0.40684
0.406843
0.406845
0.406847
0.40685
0.406852
0.406855
0.406857
0.406859
0.406862
0.406864
0.406867
0.406869
0.406872
0.406874
0.406877
0.406879
0.406882
0.406884
0.406887
0.406889
0.406892
0.406894
0.406897
0.406899
0.406902
0.406904
0.406907
0.406909
0.406912
0.406914
0.406917
0.406919
0.406922
0.406924
0.406927
0.406929
0.406932
0.406934
0.406937
0.406939
0.406941
0.406944
0.406946
0.406949
0.406951
0.406954
0.406956
0.406959
0.406961
0.406964
0.406966
0.406969
0.406971
0.406974
0.406976
0.406979
0.406981
0.406984
0.406986
0.406989
0.406992
0.406994
0.406997
0.406999
0.407002
0.407004
0.407007
0.407009
0.407012
0.407014
0.407017
0.40702
0.407022
0.407025
0.407028
0.40703
0.407033
0.407036
0.407039
0.407041
0.407044
0.407046
0.407048
0.407048
0.407048
1
1.09593
1.14368
1.13403
1.09771
1.05335
1.00943
0.969229
0.933636
0.902513
0.875354
0.851579
0.830645
0.812087
0.795517
0.780622
0.767144
0.754878
0.743655
0.733338
0.723813
0.714986
0.706777
0.699119
0.691955
0.685236
0.678919
0.672969
0.667351
0.662038
0.657005
0.652229
0.647691
0.643372
0.639257
0.63533
0.631579
0.627993
0.624559
0.621269
0.618114
0.615084
0.612174
0.609375
0.606682
0.604088
0.601588
0.599178
0.596851
0.594605
0.592435
0.590337
0.588309
0.586345
0.584444
0.582603
0.580819
0.579089
0.577412
0.575784
0.574204
0.572671
0.571181
0.569733
0.568326
0.566959
0.565629
0.564335
0.563076
0.56185
0.560658
0.559496
0.558365
0.557263
0.556189
0.555143
0.554123
0.553129
0.552159
0.551214
0.550292
0.549392
0.548514
0.547658
0.546822
0.546007
0.54521
0.544433
0.543674
0.542933
0.542209
0.541503
0.540812
0.540138
0.53948
0.538836
0.538208
0.537593
0.536993
0.536407
0.535834
0.535274
0.534726
0.534191
0.533669
0.533157
0.532658
0.532169
0.531692
0.531225
0.530769
0.530323
0.529887
0.52946
0.529044
0.528636
0.528237
0.527848