# vtk DataFile Version 2.0
FlowField
ASCII
DATASET STRUCTURED_GRID
DIMENSIONS 400 1 50
POINTS 20000 float
0 0 0
0.08 0 0
0.16 0 0
0.24 0 0
0.32 0 0
0.4 0 0
0.48 0 0
0.56 0 0
0.64 0 0
0.72 0 0
0.8 0 0
0.88 0 0
0.96 0 0
1.04 0 0
1.12 0 0
1.2 0 0
1.28 0 0
1.36 0 0
1.44 0 0
1.52 0 0
1.6 0 0
1.68 0 0
1.76 0 0
1.84 0 0
1.92 0 0
2 0 0
2.08 0 0
2.16 0 0
2.24 0 0
2.32 0 0
2.4 0 0
2.48 0 0
2.56 0 0
2.64 0 0
2.72 0 0
2.8 0 0
2.88 0 0
2.96 0 0
3.04 0 0
3.12 0 0
3.2 0 0
3.28 0 0
3.36 0 0
3.44 0 0
3.52 0 0
3.6 0 0
3.68 0 0
3.76 0 0
3.84 0 0
3.92 0 0
4 0 0
4.08 0 0
4.16 0 0
4.24 0 0
4.32 0 0
4.4 0 0
4.48 0 0
4.56 0 0
4.64 0 0
4.72 0 0
4.8 0 0
4.88 0 0
4.96 0 0
5.04 0 0
5.12 0 0
5.2 0 0
5.28 0 0
5.36 0 0
5.44 0 0
5.52 0 0
5.6 0 0
5.68 0 0
5.76 0 0
5.84 0 0
5.92 0 0
6 0 0
6.08 0 0
6.16 0 0
6.24 0 0
6.32 0 0
6.4 0 0
6.48 0 0
6.56 0 0
6.64 0 0
6.72 0 0
6.8 0 0
6.88 0 0
6.96 0 0
7.04 0 0
7.12 0 0
7.2 0 0
7.28 0 0
7.36 0 0
7.44 0 0
7.52 0 0
7.6 0 0
7.68 0 0
7.76 0 0
7.84 0 0
7.92 0 0
8 0 0
8.08 0 0
8.16 0 0
8.24 0 0
8.32 0 0
8.4 0 0
8.48 0 0
8.56 0 0
8.64 0 0
8.72 0 0
8.8 0 0
8.88 0 0
8.96 0 0
9.04 0 0
9.12 0 0
9.2 0 0
9.28 0 0
9.36 0 0
9.44 0 0
9.52 0 0
9.6 0 0
9.68 0 0
9.76 0 0
9.84 0 0
9.92 0 0
10 0 0
10.08 0 0
10.16 0 0
10.24 0 0
10.32 0 0
10.4 0 0
10.48 0 0
10.56 0 0
10.64 0 0
10.72 0 0
10.8 0 0
10.88 0 0
10.96 0 0
11.04 0 0
11.12 0 0
11.2 0 0
11.28 0 0
11.36 0 0
11.44 0 0
11.52 0 0
11.6 0 0
11.68 0 0
11.76 0 0
11.84 0 0
11.92 0 0
12 0 0
12.08 0 0
12.16 0 0
12.24 0 0
12.32 0 0
12.4 0 0
12.48 0 0
12.56 0 0
12.64 0 0
12.72 0 0
12.8 0 0
12.88 0 0
12.96 0 0
13.04 0 0
13.12 0 0
13.2 0 0
13.28 0 0
13.36 0 0
13.44 0 0
13.52 0 0
13.6 0 0
13.68 0 0
13.76 0 0
13.84 0 0
13.92 0 0
14 0 0
14.08 0 0
14.16 0 0
14.24 0 0
14.32 0 0
14.4 0 0
14.48 0 0
14.56 0 0
14.64 0 0
14.72 0 0
14.8 0 0
14.88 0 0
14.96 0 0
15.04 0 0
15.12 0 0
15.2 0 0
15.28 0 0
15.36 0 0
15.44 0 0
15.52 0 0
15.6 0 0
15.68 0 0
15.76 0 0
15.84 0 0
15.92 0 0
16 0 0
16.08 0 0
16.16 0 0
16.24 0 0
16.32 0 0
16.4 0 0
16.48 0 0
16.56 0 0
16.64 0 0
16.72 0 0
16.8 0 0
16.88 0 0
16.96 0 0
17.04 0 0
17.12 0 0
17.2 0 0
17.28 0 0
17.36 0 0
17.44 0 0
17.52 0 0
17.6 0 0
17.68 0 0
17.76 0 0
17.84 0 0
17.92 0 0
18 0 0
18.08 0 0
18.16 0 0
18.24 0 0
18.32 0 0
18.4 0 0
18.48 0 0
18.56 0 0
18.64 0 0
18.72 0 0
18.8 0 0
18.88 0 0
18.96 0 0
19.04 0 0
19.12 0 0
19.2 0 0
19.28 0 0
19.36 0 0
19.44 0 0
19.52 0 0
19.6 0 0
19.68 0 0
19.76 0 0
19.84 0 0
19.92 0 0
20 0 0
20.08 0 0
20.16 0 0
20.24 0 0
20.32 0 0
20.4 0 0
20.48 0 0
20.56 0 0
20.64 0 0
20.72 0 0
20.8 0 0
20.88 0 0
20.96 0 0
21.04 0 0
21.12 0 0
21.2 0 0
21.28 0 0
21.36 0 0
21.44 0 0
21.52 0 0
21.6 0 0
21.68 0 0
21.76 0 0
21.84 0 0
21.92 0 0
22 0 0
22.08 0 0
22.16 0 0
22.24 0 0
22.32 0 0
22.4 0 0
22.48 0 0
22.56 0 0
22.64 0 0
22.72 0 0
22.8 0 0
22.88 0 0
22.96 0 0
23.04 0 0
23.12 0 0
23.2 0 0
23.28 0 0
23.36 0 0
23.44 0 0
23.52 0 0
23.6 0 0
23.68 0 0
23.76 0 0
23.84 0 0
23.92 0 0
24 0 0
24.08 0 0
24.16 0 0
24.24 0 0
24.32 0 0
24.4 0 0
24.48 0 0
24.56 0 0
24.64 0 0
24.72 0 0
24.8 0 0
24.88 0 0
24.96 0 0
25.04 0 0
25.12 0 0
25.2 0 0
25.28 0 0
25.36 0 0
25.44 0 0
25.52 0 0
25.6 0 0
25.68 0 0
25.76 0 0
25.84 0 0
25.92 0 0
26 0 0
26.08 0 0
26.16 0 0
26.24 0 0
26.32 0 0
26.4 0 0
26.48 0 0
26.56 0 0
26.64 0 0
26.72 0 0
26.8 0 0
26.88 0 0
26.96 0 0
27.04 0 0
27.12 0 0
27.2 0 0
27.28 0 0
27.36 0 0
27.44 0 0
27.52 0 0
27.6 0 0
27.68 0 0
27.76 0 0
27.84 0 0
27.92 0 0
28 0 0
28.08 0 0
28.16 0 0
28.24 0 0
28.32 0 0
28.4 0 0
28.48 0 0
28.56 0 0
28.64 0 0
28.72 0 0
28.8 0 0
28.88 0 0
28.96 0 0
29.04 0 0
29.12 0 0
29.2 0 0
29.28 0 0
29.36 0 0
29.44 0 0
29.52 0 0
29.6 0 0
29.68 0 0
29.76 0 0
29.84 0 0
29.92 0 0
30 0 0
30.08 0 0
30.16 0 0
30.24 0 0
30.32 0 0
30.4 0 0
30.48 0 0
30.56 0 0
30.64 0 0
30.72 0 0
30.8 0 0
30.88 0 0
30.96 0 0
31.04 0 0
31.12 0 0
31.2 0 0
31.28 0 0
31.36 0 0
31.44 0 0
31.52 0 0
31.6 0 0
31.68 0 0
31.76 0 0
31.84 0 0
31.92 0 0
0 0.02 0
0.08 0.02 0
0.16 0.02 0
0.24 0.02 0
0.32 0.02 0
0.4 0.02 0
0.48 0.02 0
0.56 0.02 0
0.64 0.02 0
0.72 0.02 0
0.8 0.02 0
0.88 0.02 0
0.96 0.02 0
1.04 0.02 0
1.12 0.02 0
1.2 0.02 0
1.28 0.02 0
1.36 0.02 0
1.44 0.02 0
1.52 0.02 0
1.6 0.02 0
1.68 0.02 0
1.76 0.02 0
1.84 0.02 0
1.92 0.02 0
2 0.02 0
2.08 0.02 0
2.16 0.02 0
2.24 0.02 0
2.32 0.02 0
2.4 0.02 0
2.48 0.02 0
2.56 0.02 0
2.64 0.02 0
2.72 0.02 0
2.8 0.02 0
2.88 0.02 0
2.96 0.02 0
3.04 0.02 0
3.12 0.02 0
3.2 0.02 0
3.28 0.02 0
3.36 0.02 0
3.44 0.02 0
3.52 0.02 0
3.6 0.02 0
3.68 0.02 0
3.76 0.02 0
3.84 0.02 0
3.92 0.02 0
4 0.02 0
4.08 0.02 0
4.16 0.02 0
4.24 0.02 0
4.32 0.02 0
4.4 0.02 0
4.48 0.02 0
4.56 0.02 0
4.64 0.02 0
4.72 0.02 0
4.8 0.02 0
4.88 0.02 0
4.96 0.02 0
5.04 0.02 0
5.12 0.02 0
5.2 0.02 0
5.28 0.02 0
5.36 0.02 0
5.44 0.02 0
5.52 0.02 0
5.6 0.02 0
5.68 0.02 0
5.76 0.02 0
5.84 0.02 0
5.92 0.02 0
6 0.02 0
6.08 0.02 0
6.16 0.02 0
6.24 0.02 0
6.32 0.02 0
6.4 0.02 0
6.48 0.02 0
6.56 0.02 0
6.64 0.02 0
6.72 0.02 0
6.8 0.02 0
6.88 0.02 0
6.96 0.02 0
7.04 0.02 0
7.12 0.02 0
7.2 0.02 0
7.28 0.02 0
7.36 0.02 0
7.44 0.02 0
7.52 0.02 0
7.6 0.02 0
7.68 0.02 0
7.76 0.02 0
7.84 0.02 0
7.92 0.02 0
8 0.02 0
8.08 0.02 0
8.16 0.02 0
8.24 0.02 0
8.32 0.02 0
8.4 0.02 0
8.48 0.02 0
8.56 0.02 0
8.64 0.02 0
8.72 0.02 0
8.8 0.02 0
8.88 0.02 0
8.96 0.02 0
9.04 0.02 0
9.12 0.02 0
9.2 0.02 0
9.28 0.02 0
9.36 0.02 0
9.44 0.02 0
9.52 0.02 0
9.6 0.02 0
9.68 0.02 0
9.76 0.02 0
9.84 0.02 0
9.92 0.02 0
10 0.02 0
10.08 0.02 0
10.16 0.02 0
10.24 0.02 0
10.32 0.02 0
10.4 0.02 0
10.48 0.02 0
10.56 0.02 0
10.64 0.02 0
10.72 0.02 0
10.8 0.02 0
10.88 0.02 0
10.96 0.02 0
11.04 0.02 0
11.12 0.02 0
11.2 0.02 0
11.28 0.02 0
11.36 0.02 0
11.44 0.02 0
11.52 0.02 0
11.6 0.02 0
11.68 0.02 0
11.76 0.02 0
11.84 0.02 0
11.92 0.02 0
12 0.02 0
12.08 0.02 0
12.16 0.02 0
12.24 0.02 0
12.32 0.02 0
12.4 0.02 0
12.48 0.02 0
12.56 0.02 0
12.64 0.02 0
12.72 0.02 0
12.8 0.02 0
12.88 0.02 0
12.96 0.02 0
13.04 0.02 0
13.12 0.02 0
13.2 0.02 0
13.28 0.02 0
13.36 0.02 0
13.44 0.02 0
13.52 0.02 0
13.6 0.02 0
13.68 0.02 0
13.76 0.02 0
13.84 0.02 0
13.92 0.02 0
14 0.02 0
14.08 0.02 0
14.16 0.02 0
14.24 0.02 0
14.32 0.02 0
14.4 0.02 0
14.48 0.02 0
14.56 0.02 0
14.64 0.02 0
14.72 0.02 0
14.8 0.02 0
14.88 0.02 0
14.96 0.02 0
15.04 0.02 0
15.12 0.02 0
15.2 0.02 0
15.28 0.02 0
15.36 0.02 0
15.44 0.02 0
15.52 0.02 0
15.6 0.02 0
15.68 0.02 0
15.76 0.02 0
15.84 0.02 0
15.92 0.02 0
16 0.02 0
16.08 0.02 0
16.16 0.02 0
16.24 0.02 0
16.32 0.02 0
16.4 0.02 0
16.48 0.02 0
16.56 0.02 0
16.64 0.02 0
16.72 0.02 0
16.8 0.02 0
16.88 0.02 0
16.96 0.02 0
17.04 0.02 0
17.12 0.02 0
17.2 0.02 0
17.28 0.02 0
17.36 0.02 0
17.44 0.02 0
17.52 0.02 0
17.6 0.02 0
17.68 0.02 0
17.76 0.02 0
17.84 0.02 0
17.92 0.02 0
18 0.02 0
18.08 0.02 0
18.16 0.02 0
18.24 0.02 0
18.32 0.02 0
18.4 0.02 0
18.48 0.02 0
18.56 0.02 0
18.64 0.02 0
18.72 0.02 0
18.8 0.02 0
18.88 0.02 0
18.96 0.02 0
19.04 0.02 0
19.12 0.02 0
19.2 0.02 0
19.28 0.02 0
19.36 0.02 0
19.44 0.02 0
19.52 0.02 0
19.6 0.02 0
19.68 0.02 0
19.76 0.02 0
19.84 0.02 0
19.92 0.02 0
20 0.02 0
20.08 0.02 0
20.16 0.02 0
20.24 0.02 0
20.32 0.02 0
20.4 0.02 0
20.48 0.02 0
20.56 0.02 0
20.64 0.02 0
20.72 0.02 0
20.8 0.02 0
20.88 0.02 0
20.96 0.02 0
21.04 0.02 0
21.12 0.02 0
21.2 0.02 0
21.28 0.02 0
21.36 0.02 0
21.44 0.02 0
21.52 0.02 0
21.6 0.02 0
21.68 0.02 0
21.76 0.02 0
21.84 0.02 0
21.92 0.02 0
22 0.02 0
22.08 0.02 0
22.16 0.02 0
22.24 0.02 0
22.32 0.02 0
22.4 0.02 0
22.48 0.02 0
22.56 0.02 0
22.64 0.02 0
22.72 0.02 0
22.8 0.02 0
22.88 0.02 0
22.96 0.02 0
23.04 0.02 0
23.12 0.02 0
23.2 0.02 0
23.28 0.02 0
23.36 0.02 0
23.44 0.02 0
23.52 0.02 0
23.6 0.02 0
23.68 0.02 0
23.76 0.02 0
23.84 0.02 0
23.92 0.02 0
24 0.02 0
24.08 0.02 0
24.16 0.02 0
24.24 0.02 0
24.32 0.02 0
24.4 0.02 0
24.48 0.02 0
24.56 0.02 0
24.64 0.02 0
24.72 0.02 0
24.8 0.02 0
24.88 0.02 0
24.96 0.02 0
25.04 0.02 0
25.12 0.02 0
25.2 0.02 0
25.28 0.02 0
25.36 0.02 0
25.44 0.02 0
25.52 0.02 0
25.6 0.02 0
25.68 0.02 0
25.76 0.02 0
25.84 0.02 0
25.92 0.02 0
26 0.02 0
26.08 0.02 0
26.16 0.02 0
26.24 0.02 0
26.32 0.02 0
26.4 0.02 0
26.48 0.02 0
26.56 0.02 0
26.64 0.02 0
26.72 0.02 0
26.8 0.02 0
26.88 0.02 0
26.96 0.02 0
27.04 0.02 0
27.12 0.02 0
27.2 0.02 0
27.28 0.02 0
27.36 0.02 0
27.44 0.02 0
27.52 0.02 0
27.6 0.02 0
27.68 0.02 0
27.76 0.02 0
27.84 0.02 0
27.92 0.02 0
28 0.02 0
28.08 0.02 0
28.16 0.02 0
28.24 0.02 0
28.32 0.02 0
28.4 0.02 0
28.48 0.02 0
28.56 0.02 0
28.64 0.02 0
28.72 0.02 0
28.8 0.02 0
28.88 0.02 0
28.96 0.02 0
29.04 0.02 0
29.12 0.02 0
29.2 0.02 0
29.28 0.02 0
29.36 0.02 0
29.44 0.02 0
29.52 0.02 0
29.6 0.02 0
29.68 0.02 0
29.76 0.02 0
29.84 0.02 0
29.92 0.02 0
30 0.02 0
30.08 0.02 0
30.16 0.02 0
30.24 0.02 0
30.32 0.02 0
30.4 0.02 0
30.48 0.02 0
30.56 0.02 0
30.64 0.02 0
30.72 0.02 0
30.8 0.02 0
30.88 0.02 0
30.96 0.02 0
31.04 0.02 0
31.12 0.02 0
31.2 0.02 0
31.28 0.02 0
31.36 0.02 0
31.44 0.02 0
31.52 0.02 0
31.6 0.02 0
31.68 0.02 0
31.76 0.02 0
31.84 0.02 0
31.92 0.02 0
0 0.04 0
0.08 0.04 0
0.16 0.04 0
0.24 0.04 0
0.32 0.04 0
0.4 0.04 0
0.48 0.04 0
0.56 0.04 0
0.64 0.04 0
0.72 0.04 0
0.8 0.04 0
0.88 0.04 0
0.96 0.04 0
1.04 0.04 0
1.12 0.04 0
1.2 0.04 0
1.28 0.04 0
1.36 0.04 0
1.44 0.04 0
1.52 0.04 0
1.6 0.04 0
1.68 0.04 0
1.76 0.04 0
1.84 0.04 0
1.92 0.04 0
2 0.04 0
2.08 0.04 0
2.16 0.04 0
2.24 0.04 0
2.32 0.04 0
2.4 0.04 0
2.48 0.04 0
2.56 0.04 0
2.64 0.04 0
2.72 0.04 0
2.8 0.04 0
2.88 0.04 0
2.96 0.04 0
3.04 0.04 0
3.12 0.04 0
3.2 0.04 0
3.28 0.04 0
3.36 0.04 0
3.44 0.04 0
3.52 0.04 0
3.6 0.04 0
3.68 0.04 0
3.76 0.04 0
3.84 0.04 0
3.92 0.04 0
4 0.04 0
4.08 0.04 0
4.16 0.04 0
4.24 0.04 0
4.32 0.04 0
4.4 0.04 0
4.48 0.04 0
4.56 0.04 0
4.64 0.04 0
4.72 0.04 0
4.8 0.04 0
4.88 0.04 0
4.96 0.04 0
5.04 0.04 0
5.12 0.04 0
5.2 0.04 0
5.28 0.04 0
5.36 0.04 0
5.44 0.04 0
5.52 0.04 0
5.6 0.04 0
5.68 0.04 0
5.76 0.04 0
5.84 0.04 0
5.92 0.04 0
6 0.04 0
6.08 0.04 0
6.16 0.04 0
6.24 0.04 0
6.32 0.04 0
6.4 0.04 0
6.48 0.04 0
6.56 0.04 0
6.64 0.04 0
6.72 0.04 0
6.8 0.04 0
6.88 0.04 0
6.96 0.04 0
7.04 0.04 0
7.12 0.04 0
7.2 0.04 0
7.28 0.04 0
7.36 0.04 0
7.44 0.04 0
7.52 0.04 0
7.6 0.04 0
7.68 0.04 0
7.76 0.04 0
7.84 0.04 0
[...]
POINT_DATA 20000

SCALARS v float 1
LOOKUP_TABLE default
0
0
0
0
0
0
0
0
0
0
0
0
0
0
0
0
0
0
0
0
0
0
0
0
0
0
0
0
0
0
0
0
0
0
0
0
0
0
0
0
0
0
0
0
0
0
0
0
0
0
0
0
0
0
0
0
0
0
0
0
0
0
0
0
0
0
0
0
0
0
0
0
0
0
0
0
0
0
0
0
0
0
0
0
0
0
0
0
0
0
0
0
0
0
0
0
0
0
0
0
0
0
0
0
0
0
0
0
0
0
0
0
0
0
0
0
0
0
0
0
0
0
0
0
0
0
0
0
0
0
0
0
0
0
0
0
0
0
0
0
0
0
0
0
0
0
0
0
0
0
0
0
0
0
0
0
0
0
0
0
0
0
0
0
0
0
0
0
0
0
0
0
0
0
0
0
0
0
0
0
0
0
0
0
0
0
0
0
0
0
0
0
0
0
0
0
0
0
0
0
0
0
0
0
0
0
0
0
0
0
0
0
0
0
0
0
0
0
0
0
0
0
0
0
0
0
0
0
0
0
0
0
0
0
0
0
0
0
0
0
0
0
0
0
0
0
0
0
0
0
0
0
0
0
0
0
0
0
0
0
0
0
0
0
0
0
0
0
0
0
0
0
0
0
0
0
0
0
0
0
0
0
0
0
0
0
0
0
0
0
0
0
0
0
0
0
0
0
0
0
0
0
0
0
0
0
0
0
0
0
0
0
0
0
0
0
0
0
0
0
0
0
0
0
0
0
0
0
0
0
0
0
0
0
0
0
0
0
0
0
0
0
0
0
0
0
0
0
0
0
0
0
0
0
0
0
0
0
0
0
0
0
0
0
0
0
0
0
0
0
0
0
0
0
0
0
0
0
0
0
0
0
0
0
0
0
0
0
0
0
0
0
0
0
0
0
0
0
0
0
-0.123206
0.123206
0.0537688
0.019415
0.00875862
0.00506479
0.00336249
0.00241176
0.00182172
0.00143034
0.00115796
0.000961079
0.000814148
0.000701393
0.000612692
0.000541352
0.000482845
0.000434036
0.000392717
0.000357297
0.000326609
0.000299774
0.000276116
0.000255106
0.000236327
0.000219448
0.000204206
0.000190393
0.000177835
0.000166385
0.000155913
0.000146303
0.000137449
0.000129261
0.000121667
0.000114612
0.000108056
0.000101965
9.63029e-05
9.10272e-05
8.60898e-05
8.14444e-05
7.70534e-05
7.28914e-05
6.89452e-05
6.52103e-05
6.16877e-05
5.83787e-05
5.52783e-05
5.23682e-05
4.96155e-05
4.69806e-05
4.44323e-05
4.19626e-05
3.95891e-05
3.73423e-05
3.5245e-05
3.32957e-05
3.1468e-05
2.9722e-05
2.80218e-05
2.63454e-05
2.46874e-05
2.30553e-05
2.14678e-05
1.9952e-05
1.85371e-05
1.72404e-05
1.60523e-05
1.49309e-05
1.38157e-05
1.26578e-05
1.14485e-05
1.02287e-05
9.06998e-06
8.03632e-06
7.15019e-06
6.38046e-06
5.65802e-06
4.9074e-06
4.07633e-06
3.15108e-06
2.15598e-06
1.14345e-06
1.79434e-07
-6.75031e-07
-1.38701e-06
-1.97412e-06
-2.51304e-06
-3.12009e-06
-3.90264e-06
-4.90035e-06
-6.04969e-06
-7.19978e-06
-8.18167e-06
-8.89929e-06
-9.39168e-06
-9.82605e-06
-1.04185e-05
-1.13209e-05
-1.25364e-05
-1.39103e-05
-1.52061e-05
-1.62254e-05
-1.6907e-05
-1.7354e-05
-1.77747e-05
-1.8373e-05
-1.92458e-05
-2.03414e-05
-2.14942e-05
-2.25139e-05
-2.3279e-05
-2.37889e-05
-2.41527e-05
-2.45274e-05
-2.50407e-05
-2.57376e-05
-2.65708e-05
-2.74353e-05
-2.8223e-05
-2.88707e-05
-2.93798e-05
-2.98042e-05
-3.02168e-05
-3.06731e-05
-3.11888e-05
-3.17389e-05
-3.22742e-05
-3.27466e-05
-3.313e-05
-3.34293e-05
-3.36753e-05
-3.39106e-05
-3.4173e-05
-3.44829e-05
-3.48387e-05
-3.52208e-05
-3.56001e-05
-3.59486e-05
-3.6247e-05
-3.64886e-05
-3.66785e-05
-3.68297e-05
-3.69582e-05
-3.70781e-05
-3.71992e-05
-3.73258e-05
-3.74576e-05
-3.75916e-05
-3.77237e-05
-3.78504e-05
-3.79698e-05
-3.80815e-05
-3.81867e-05
-3.82873e-05
-3.83855e-05
-3.84831e-05
-3.85816e-05
-3.86817e-05
-3.87838e-05
-3.88877e-05
-3.89931e-05
-3.90995e-05
-3.92066e-05
-3.93143e-05
-3.94222e-05
-3.95304e-05
-3.9639e-05
-3.97479e-05
-3.98573e-05
-3.99672e-05
-4.00777e-05
-4.01887e-05
-4.03004e-05
-4.04127e-05
-4.05256e-05
-4.0639e-05
-4.0753e-05
-4.08676e-05
-4.09827e-05
-4.10983e-05
-4.12144e-05
-4.13311e-05
-4.14482e-05
-4.15659e-05
-4.1684e-05
-4.18027e-05
-4.19218e-05
-4.20414e-05
-4.21615e-05
-4.22821e-05
-4.24031e-05
-4.25246e-05
-4.26465e-05
-4.27689e-05
-4.28917e-05
-4.3015e-05
-4.31386e-05
-4.32627e-05
-4.33872e-05
-4.35122e-05
-4.36375e-05
-4.37632e-05
-4.38892e-05
-4.40157e-05
-4.41425e-05
-4.42697e-05
-4.43972e-05
-4.45251e-05
-4.46533e-05
-4.47819e-05
-4.49107e-05
-4.50399e-05
-4.51694e-05
-4.52992e-05
-4.54292e-05
-4.55596e-05
-4.56902e-05
-4.58211e-05
-4.59522e-05
-4.60836e-05
-4.62152e-05
-4.6347e-05
-4.6479e-05
-4.66113e-05
-4.67437e-05
-4.68764e-05
-4.70092e-05
-4.71422e-05
-4.72753e-05
-4.74086e-05
-4.75421e-05
-4.76757e-05
-4.78093e-05
-4.79431e-05
-4.8077e-05
-4.8211e-05
-4.83451e-05
-4.84793e-05
-4.86135e-05
-4.87477e-05
-4.8882e-05
-4.90163e-05
-4.91507e-05
-4.9285e-05
-4.94193e-05
-4.95537e-05
-4.96879e-05
-4.98222e-05
-4.99564e-05
-5.00906e-05
-5.02247e-05
-5.03587e-05
-5.04926e-05
-5.06264e-05
-5.07601e-05
-5.08936e-05
-5.1027e-05
-5.11603e-05
-5.12934e-05
-5.14264e-05
-5.15591e-05
-5.16917e-05
-5.1824e-05
-5.19562e-05
-5.20881e-05
-5.22197e-05
-5.23511e-05
-5.24823e-05
-5.26131e-05
-5.27437e-05
-5.2874e-05
-5.30039e-05
-5.31335e-05
-5.32628e-05
-5.33918e-05
-5.35203e-05
-5.36485e-05
-5.37764e-05
-5.39038e-05
-5.40308e-05
-5.41574e-05
-5.42835e-05
-5.44092e-05
-5.45344e-05
-5.46592e-05
-5.47835e-05
-5.49073e-05
-5.50306e-05
-5.51533e-05
-5.52756e-05
-5.53973e-05
-5.55184e-05
-5.5639e-05
-5.57589e-05
-5.58783e-05
-5.59971e-05
-5.61153e-05
-5.62328e-05
-5.63497e-05
-5.6466e-05
-5.65816e-05
-5.66965e-05
-5.68107e-05
-5.69243e-05
-5.70371e-05
-5.71492e-05
-5.72605e-05
-5.73711e-05
-5.7481e-05
-5.75901e-05
-5.76984e-05
-5.78059e-05
-5.79126e-05
-5.80186e-05
-5.81236e-05
-5.82279e-05
-5.83313e-05
-5.84338e-05
-5.85355e-05
-5.86363e-05
-5.87361e-05
-5.88352e-05
-5.89332e-05
-5.90304e-05
-5.91266e-05
-5.92219e-05
-5.93162e-05
-5.94096e-05
-5.95019e-05
-5.95934e-05
-5.96837e-05
-5.97732e-05
-5.98615e-05
-5.9949e-05
-6.00352e-05
-6.01206e-05
-6.02047e-05
-6.0288e-05
-6.03699e-05
-6.04512e-05
-6.05308e-05
-6.061e-05
-6.06872e-05
-6.07644e-05
-6.08392e-05
-6.09143e-05
-6.09866e-05
-6.10597e-05
-6.11294e-05
-6.12006e-05
-6.12674e-05
-6.13368e-05
-6.14007e-05
-6.14684e-05
-6.1529e-05
-6.15953e-05
-6.16524e-05
-6.17176e-05
-6.17707e-05
-6.18353e-05
-6.18838e-05
-6.19484e-05
-6.19914e-05
-6.20571e-05
-6.20935e-05
-6.21616e-05
-6.21898e-05
-6.22621e-05
-6.22802e-05
-6.23588e-05
-6.23643e-05
-6.24522e-05
-6.24419e-05
-6.25427e-05
-6.25126e-05
-6.26311e-05
-6.25756e-05
-6.27192e-05
-6.26292e-05
-6.28094e-05
-6.26708e-05
-6.29059e-05
-6.26965e-05
-6.30137e-05
-6.27028e-05
-6.31359e-05
-6.26909e-05
-6.32666e-05
-6.26762e-05
-6.3379e-05
-6.26976e-05
-6.34122e-05
-6.28067e-05
-6.32669e-05
-6.29058e-05
-6.29114e-05
-5.88816e-05
-5.88816e-05
-0.142133
0.142133
0.10098
0.0538863
0.0302284
0.0188891
0.0128974
0.00938188
0.00714822
0.00564478
0.00458792
0.00381866
0.00324195
0.00279824
0.00244884
0.00216791
0.0019378
0.00174619
0.00158434
0.00144591
0.00132623
0.00122177
0.00112985
0.00104836
0.000975643
0.000910401
0.000851588
0.00079836
0.000750018
0.000705971
0.000665701
0.000628754
0.000594734
0.000563304
0.000534189
0.000507174
0.000482089
0.00045878
0.000437093
0.000416861
0.000397911
0.00038009
0.000363273
0.000347376
0.000332351
0.000318169
0.000304816
0.00029227
0.000280489
0.000269394
0.000258871
0.000248803
0.000239109
0.000229778
0.000220864
0.000212444
0.000204557
0.000197171
0.000190187
0.000183488
0.000176974
0.000170595
0.000164349
0.000158267
0.00015241
0.00014685
0.000141656
0.000136846
0.000132362
0.000128062
0.00012378
0.000119408
0.000114962
0.000110589
0.000106487
0.000102803
9.95499e-05
9.65953e-05
9.37241e-05
9.07328e-05
8.75052e-05
8.40416e-05
8.04447e-05
7.68812e-05
7.35327e-05
7.05395e-05
6.79389e-05
6.56174e-05
6.33149e-05
6.07052e-05
5.75434e-05
5.38114e-05
4.97732e-05
4.58816e-05
4.25593e-05
3.9962e-05
3.78609e-05
3.57273e-05
3.29944e-05
2.93605e-05
2.49676e-05
2.03492e-05
1.61677e-05
1.28812e-05
1.05165e-05
8.67026e-06
6.72998e-06
4.1923e-06
9.09619e-07
-2.85715e-06
-6.59335e-06
-9.7994e-06
-1.22303e-05
-1.39902e-05
-1.54516e-05
-1.70553e-05
-1.91024e-05
-2.16362e-05
-2.44572e-05
-2.72453e-05
-2.97185e-05
-3.17491e-05
-3.33925e-05
-3.48296e-05
-3.62631e-05
-3.78224e-05
-3.95158e-05
-4.12459e-05
-4.28679e-05
-4.42612e-05
-4.53799e-05
-4.62659e-05
-4.70244e-05
-4.77784e-05
-4.86222e-05
-4.95926e-05
-5.06637e-05
-5.17646e-05
-5.28076e-05
-5.37173e-05
-5.44503e-05
-5.50012e-05
-5.53968e-05
-5.56825e-05
-5.59072e-05
-5.6111e-05
-5.63188e-05
-5.65393e-05
-5.67688e-05
-5.69969e-05
-5.72116e-05
-5.74043e-05
-5.75709e-05
-5.77126e-05
-5.7834e-05
-5.79418e-05
-5.80426e-05
-5.81421e-05
-5.82441e-05
-5.83504e-05
-5.84615e-05
-5.85766e-05
-5.86947e-05
-5.88146e-05
-5.89351e-05
-5.90557e-05
-5.9176e-05
-5.9296e-05
-5.94158e-05
-5.95357e-05
-5.96559e-05
-5.97766e-05
-5.98979e-05
-6.002e-05
-6.01428e-05
-6.02664e-05
-6.03907e-05
-6.05157e-05
-6.06413e-05
-6.07674e-05
-6.08942e-05
-6.10215e-05
-6.11493e-05
-6.12776e-05
-6.14065e-05
-6.1536e-05
-6.16659e-05
-6.17964e-05
-6.19274e-05
-6.20589e-05
-6.21909e-05
-6.23234e-05
-6.24564e-05
-6.25899e-05
-6.27239e-05
-6.28583e-05
-6.29933e-05
-6.31286e-05
-6.32645e-05
-6.34008e-05
-6.35375e-05
-6.36746e-05
-6.38122e-05
-6.39502e-05
-6.40885e-05
-6.42273e-05
-6.43665e-05
-6.4506e-05
-6.46459e-05
-6.47862e-05
-6.49268e-05
-6.50678e-05
-6.52091e-05
-6.53508e-05
-6.54927e-05
-6.5635e-05
-6.57775e-05
-6.59204e-05
-6.60635e-05
-6.62069e-05
-6.63506e-05
-6.64945e-05
-6.66387e-05
-6.67831e-05
-6.69277e-05
-6.70726e-05
-6.72176e-05
-6.73628e-05
-6.75082e-05
-6.76538e-05
-6.77995e-05
-6.79454e-05
-6.80914e-05
-6.82376e-05
-6.83839e-05
-6.85302e-05
-6.86767e-05
-6.88232e-05
-6.89699e-05
-6.91166e-05
-6.92633e-05
-6.94101e-05
-6.95569e-05
-6.97037e-05
-6.98505e-05
-6.99973e-05
-7.01441e-05
-7.02909e-05
-7.04376e-05
-7.05842e-05
-7.07308e-05
-7.08773e-05
-7.10238e-05
-7.11701e-05
-7.13163e-05
-7.14623e-05
-7.16083e-05
-7.1754e-05
-7.18996e-05
-7.20451e-05
-7.21903e-05
-7.23353e-05
-7.24801e-05
-7.26247e-05
-7.27691e-05
-7.29131e-05
-7.3057e-05
-7.32005e-05
-7.33437e-05
-7.34867e-05
-7.36293e-05
-7.37715e-05
-7.39135e-05
-7.4055e-05
-7.41962e-05
-7.4337e-05
-7.44774e-05
-7.46174e-05
-7.4757e-05
-7.48961e-05
-7.50348e-05
-7.5173e-05
-7.53108e-05
-7.5448e-05
-7.55847e-05
-7.5721e-05
-7.58566e-05
-7.59918e-05
-7.61264e-05
-7.62604e-05
-7.63938e-05
-7.65266e-05
-7.66589e-05
-7.67904e-05
-7.69214e-05
-7.70517e-05
-7.71813e-05
-7.73103e-05
-7.74386e-05
-7.75662e-05
-7.7693e-05
-7.78191e-05
-7.79445e-05
-7.80691e-05
-7.8193e-05
-7.83161e-05
-7.84383e-05
-7.85598e-05
-7.86805e-05
-7.88003e-05
-7.89193e-05
-7.90374e-05
-7.91547e-05
-7.9271e-05
-7.93865e-05
-7.95011e-05
-7.96147e-05
-7.97274e-05
-7.98392e-05
-7.995e-05
-8.00599e-05
-8.01687e-05
-8.02766e-05
-8.03835e-05
-8.04893e-05
-8.05942e-05
-8.06979e-05
-8.08007e-05
-8.09023e-05
-8.10031e-05
-8.11024e-05
-8.1201e-05
-8.12982e-05
-8.13946e-05
-8.14894e-05
-8.15837e-05
-8.16761e-05
-8.17682e-05
-8.18581e-05
-8.1948e-05
-8.20354e-05
-8.21232e-05
-8.22078e-05
-8.22935e-05
-8.23753e-05
-8.24591e-05
-8.25377e-05
-8.26197e-05
-8.2695e-05
-8.27755e-05
-8.28471e-05
-8.29263e-05
-8.29938e-05
-8.30722e-05
-8.31351e-05
-8.32131e-05
-8.32708e-05
-8.33493e-05
-8.34007e-05
-8.34808e-05
-8.35245e-05
-8.36078e-05
-8.3642e-05
-8.37308e-05
-8.37528e-05
-8.38503e-05
-8.38564e-05
-8.3967e-05
-8.39522e-05
-8.40816e-05
-8.40397e-05
-8.41952e-05
-8.41184e-05
-8.43089e-05
-8.41874e-05
-8.44245e-05
-8.42455e-05
-8.45451e-05
-8.42903e-05
-8.46757e-05
-8.43168e-05
-8.4825e-05
-8.43165e-05
-8.50066e-05
-8.42772e-05
-8.52367e-05
-8.41877e-05
-8.55255e-05
-8.40521e-05
-8.58545e-05
-8.39177e-05
-8.61403e-05
-8.39008e-05
-8.62011e-05
-8.41427e-05
-8.57504e-05
-8.42937e-05
-8.43959e-05
-7.59215e-05
-7.59215e-05
-0.122209
0.122209
0.121638
0.0822404
0.0539655
0.0368329
0.0263602
0.0196817
0.0152296
0.0121431
0.00993071
0.00829849
0.00706316
0.0061064
0.00534963
0.00473946
0.00423888
0.00382178
0.00346942
0.00316812
0.00290774
0.0026806
0.00248081
0.00230378
0.00214592
0.00200438
0.00187687
0.00176154
0.00165682
0.00156142
0.00147421
0.00139419
0.00132052
0.00125249
0.0011895
0.00113107
0.00107682
0.0010264
0.000979439
0.000935591
0.000894505
0.000855872
0.00081945
0.000785071
0.000752624
0.000722034
0.00069324
0.000666171
0.000640713
0.000616695
0.000593895
0.000572095
0.000551158
0.000531069
0.000511919
0.000493822
0.000476816
0.000460814
0.000445623
0.000431027
0.000416862
0.000403052
0.000389604
0.000376583
0.000364093
0.000352254
0.00034116
0.000330816
0.000321082
0.000311697
0.000302377
0.000292961
0.000283517
0.000274318
0.000265704
0.000257892
0.00025085
0.000244305
0.000237865
0.000231189
0.00022411
0.000216669
0.000209078
0.000201638
0.00019465
0.000188316
0.00018264
0.000177364
0.000171998
0.000165986
0.000158964
0.000150992
0.000142601
0.000134596
0.00012765
0.000121923
0.000116909
0.000111649
0.000105214
9.72121e-05
8.8039e-05
7.8711e-05
7.03666e-05
6.36949e-05
5.85991e-05
5.42714e-05
4.96298e-05
4.38754e-05
3.68776e-05
2.92e-05
2.17779e-05
1.5436e-05
1.04991e-05
6.67998e-06
3.27064e-06
-4.88103e-07
-5.05513e-06
-1.04191e-05
-1.61652e-05
-2.17143e-05
-2.66005e-05
-3.06543e-05
-3.40245e-05
-3.70547e-05
-4.00951e-05
-4.33428e-05
-4.67777e-05
-5.02056e-05
-5.33718e-05
-5.60841e-05
-5.82926e-05
-6.00989e-05
-6.17028e-05
-6.33175e-05
-6.50914e-05
-6.70638e-05
-6.91662e-05
-7.12587e-05
-7.31841e-05
-7.4818e-05
-7.60987e-05
-7.70339e-05
-7.76854e-05
-7.8143e-05
-7.84968e-05
-7.88172e-05
-7.91443e-05
-7.94897e-05
-7.98433e-05
-8.0185e-05
-8.04941e-05
-8.07565e-05
-8.09676e-05
-8.11315e-05
-8.12585e-05
-8.13616e-05
-8.14534e-05
-8.15439e-05
-8.16395e-05
-8.17432e-05
-8.18552e-05
-8.1974e-05
-8.20972e-05
-8.22227e-05
-8.23486e-05
-8.24737e-05
-8.25977e-05
-8.27205e-05
-8.28425e-05
-8.29641e-05
-8.30858e-05
-8.32079e-05
-8.33308e-05
-8.34546e-05
-8.35792e-05
-8.37047e-05
-8.3831e-05
-8.39581e-05
-8.40857e-05
-8.4214e-05
-8.43427e-05
-8.44721e-05
-8.46019e-05
-8.47322e-05
-8.4863e-05
-8.49944e-05
-8.51263e-05
-8.52586e-05
-8.53915e-05
-8.55249e-05
-8.56588e-05
-8.57931e-05
-8.5928e-05
-8.60634e-05
-8.61992e-05
-8.63355e-05
-8.64722e-05
-8.66094e-05
-8.6747e-05
-8.68851e-05
-8.70236e-05
-8.71625e-05
-8.73018e-05
-8.74415e-05
-8.75817e-05
-8.77222e-05
-8.7863e-05
-8.80043e-05
-8.81459e-05
-8.82879e-05
-8.84302e-05
-8.85728e-05
-8.87158e-05
-8.88591e-05
-8.90027e-05
-8.91466e-05
-8.92907e-05
-8.94352e-05
-8.95799e-05
-8.97249e-05
-8.98702e-05
-9.00157e-05
-9.01614e-05
-9.03073e-05
-9.04535e-05
-9.05998e-05
-9.07464e-05
-9.08931e-05
-9.104e-05
-9.11871e-05
-9.13343e-05
-9.14816e-05
-9.16291e-05
-9.17767e-05
-9.19244e-05
-9.20722e-05
-9.222e-05
-9.2368e-05
-9.2516e-05
-9.2664e-05
-9.28121e-05
-9.29602e-05
-9.31084e-05
-9.32565e-05
-9.34046e-05
-9.35528e-05
-9.37008e-05
-9.38489e-05
-9.39968e-05
-9.41448e-05
-9.42926e-05
-9.44403e-05
-9.4588e-05
-9.47355e-05
-9.48829e-05
-9.50301e-05
-9.51772e-05
-9.53241e-05
-9.54709e-05
-9.56174e-05
-9.57638e-05
-9.59099e-05
-9.60558e-05
-9.62014e-05
-9.63468e-05
-9.6492e-05
-9.66368e-05
-9.67814e-05
-9.69256e-05
-9.70695e-05
-9.72131e-05
-9.73563e-05
-9.74992e-05
-9.76417e-05
-9.77838e-05
-9.79256e-05
-9.80669e-05
-9.82077e-05
-9.83482e-05
-9.84882e-05
-9.86277e-05
-9.87667e-05
-9.89052e-05
-9.90433e-05
-9.91808e-05
-9.93178e-05
-9.94542e-05
-9.95901e-05
-9.97254e-05
-9.98601e-05
-9.99942e-05
-0.000100128
-0.000100261
-0.000100393
-0.000100524
-0.000100655
-0.000100785
-0.000100915
-0.000101044
-0.000101172
-0.000101299
-0.000101426
-0.000101552
-0.000101677
-0.000101801
-0.000101925
-0.000102047
-0.000102169
-0.00010229
-0.000102411
-0.00010253
-0.000102648
-0.000102766
-0.000102883
-0.000102998
-0.000103113
-0.000103227
-0.00010334
-0.000103452
-0.000103563
-0.000103673
-0.000103782
-0.00010389
-0.000103997
-0.000104103
-0.000104208
-0.000104311
-0.000104414
-0.000104516
-0.000104617
-0.000104716
-0.000104814
-0.000104911
-0.000105008
-0.000105102
-0.000105197
-0.000105288
-0.000105381
-0.00010547
-0.00010556
-0.000105647
-0.000105735
-0.000105818
-0.000105905
-0.000105985
-0.00010607
-0.000106146
-0.00010623
-0.000106302
-0.000106386
-0.000106453
-0.000106536
-0.000106598
-0.000106682
-0.000106737
-0.000106823
-0.00010687
-0.00010696
-0.000106997
-0.000107092
-0.000107117
-0.000107221
-0.00010723
-0.000107348
-0.000107335
-0.000107473
-0.000107431
-0.000107597
-0.000107517
-0.000107723
-0.000107593
-0.000107852
-0.000107656
-0.000107987
-0.000107707
-0.000108131
-0.000107741
-0.000108291
-0.000107756
-0.000108477
-0.000107739
-0.000108706
-0.000107675
-0.000109005
-0.00010754
-0.000109405
-0.000107316
-0.000109922
-0.000107013
-0.000110519
-0.000106723
-0.000111042
-0.000106641
-0.000111192
-0.000106956
-0.000110564
-0.000106837
-0.000108485
-9.40746e-05
-9.40746e-05
-0.0942637
0.0942637
0.120992
0.0969423
0.0717644
0.0531668
0.0401673
0.0310755
0.0246198
0.0199457
0.0164917
0.013887
0.0118837
0.0103136
0.00906065
0.00804382
0.00720563
0.00650483
0.00591135
0.00540299
0.00496308
0.00457892
0.00424074
0.00394091
0.00367343
0.00343352
0.00321734
0.00302177
0.00284417
0.00268231
0.00253428
0.00239841
0.0022733
0.00215774
0.00205074
0.00195151
0.00185933
0.0017736
0.00169369
0.00161901
0.00154899
0.00148315
0.0014211
0.00136257
0.00130737
0.00125536
0.00120641
0.00116036
0.001117
0.00107605
0.00103715
0.000999988
0.000964351
0.000930217
0.000897703
0.000866949
0.000837974
0.000810616
0.000784578
0.000759542
0.000735281
0.0007117
0.000688823
0.000666748
0.000645618
0.000625591
0.000606776
0.000589145
0.000572473
0.000556367
0.000540421
0.000524428
0.000508512
0.000493081
0.00047861
0.000465372
0.000453272
0.000441873
0.000430599
0.000418977
0.000406802
0.000394175
0.000381427
0.000368993
0.000357283
0.000346541
0.000336715
0.000327378
0.000317801
0.000307197
0.000295097
0.000281657
0.000267703
0.000254399
0.00024266
0.000232623
0.000223473
0.000213805
0.000202339
0.000188634
0.000173394
0.000158163
0.00014457
0.00013351
0.000124715
0.000116923
0.00010856
9.85419e-05
8.67955e-05
7.42321e-05
6.22353e-05
5.19507e-05
4.37508e-05
3.71219e-05
3.09869e-05
2.42605e-05
1.63457e-05
7.34477e-06
-2.07633e-06
-1.10587e-05
-1.89528e-05
-2.55652e-05
-3.11621e-05
-3.62694e-05
-4.13917e-05
-4.67893e-05
-5.24026e-05
-5.79307e-05
-6.3006e-05
-6.73706e-05
-7.09824e-05
-7.4015e-05
-7.67705e-05
-7.95519e-05
-8.25533e-05
-8.58042e-05
-8.91798e-05
-9.24623e-05
-9.54218e-05
-9.78879e-05
-9.97895e-05
-0.000101158
-0.0001021
-0.000102759
-0.000103271
-0.000103736
-0.000104211
-0.000104707
-0.000105206
-0.000105677
-0.000106089
-0.000106424
-0.000106678
-0.00010686
-0.000106987
-0.000107079
-0.000107156
-0.000107233
-0.000107318
-0.000107417
-0.000107527
-0.000107647
-0.000107773
-0.000107901
-0.00010803
-0.000108156
-0.000108281
-0.000108403
-0.000108524
-0.000108643
-0.000108763
-0.000108883
-0.000109004
-0.000109126
-0.000109249
-0.000109373
-0.000109498
-0.000109623
-0.00010975
-0.000109876
-0.000110004
-0.000110131
-0.00011026
-0.000110388
-0.000110518
-0.000110647
-0.000110777
-0.000110908
-0.000111039
-0.000111171
-0.000111303
-0.000111435
-0.000111568
-0.000111702
-0.000111835
-0.00011197
-0.000112105
-0.00011224
-0.000112376
-0.000112512
-0.000112648
-0.000112785
-0.000112922
-0.00011306
-0.000113198
-0.000113336
-0.000113475
-0.000113614
-0.000113754
-0.000113893
-0.000114034
-0.000114174
-0.000114315
-0.000114456
-0.000114597
-0.000114739
-0.000114881
-0.000115023
-0.000115165
-0.000115308
-0.000115451
-0.000115594
-0.000115738
-0.000115881
-0.000116025
-0.000116169
-0.000116313
-0.000116457
-0.000116602
-0.000116747
-0.000116891
-0.000117036
-0.000117181
-0.000117326
-0.000117472
-0.000117617
-0.000117762
-0.000117908
-0.000118053
-0.000118199
-0.000118345
-0.00011849
-0.000118636
-0.000118781
-0.000118927
-0.000119073
-0.000119218
-0.000119364
-0.000119509
-0.000119655
-0.0001198
-0.000119945
-0.00012009
-0.000120235
-0.00012038
-0.000120525
-0.000120669
-0.000120814
-0.000120958
-0.000121102
-0.000121246
-0.000121389
-0.000121533
-0.000121676
-0.000121818
-0.000121961
-0.000122103
-0.000122245
-0.000122387
-0.000122528
-0.000122669
-0.00012281
-0.00012295
-0.00012309
-0.00012323
-0.000123369
-0.000123508
-0.000123646
-0.000123784
-0.000123922
-0.000124059
-0.000124195
-0.000124331
-0.000124467
-0.000124602
-0.000124736
-0.00012487
-0.000125004
-0.000125137
-0.000125269
-0.0001254
-0.000125531
-0.000125662
-0.000125792
-0.000125921
-0.000126049
-0.000126177
-0.000126304
-0.000126431
-0.000126556
-0.000126681
-0.000126806
-0.000126929
-0.000127052
-0.000127174
-0.000127295
-0.000127415
-0.000127535
-0.000127654
-0.000127772
-0.000127889
-0.000128005
-0.00012812
-0.000128234
-0.000128348
-0.00012846
-0.000128572
-0.000128683
-0.000128793
-0.000128901
-0.000129009
-0.000129116
-0.000129222
-0.000129327
-0.00012943
-0.000129533
-0.000129635
-0.000129736
-0.000129835
-0.000129934