# vtk DataFile Version 2.0
FlowField
ASCII
DATASET STRUCTURED_GRID
DIMENSIONS 400 1 50
POINTS 20000 float
0 0 0
0.08 0 0
0.16 0 0
0.24 0 0
0.32 0 0
0.4 0 0
0.48 0 0
0.56 0 0
0.64 0 0
0.72 0 0
0.8 0 0
0.88 0 0
0.96 0 0
1.04 0 0
1.12 0 0
1.2 0 0
1.28 0 0
1.36 0 0
1.44 0 0
1.52 0 0
1.6 0 0
1.68 0 0
1.76 0 0
1.84 0 0
1.92 0 0
2 0 0
2.08 0 0
2.16 0 0
2.24 0 0
2.32 0 0
2.4 0 0
2.48 0 0
2.56 0 0
2.64 0 0
2.72 0 0
2.8 0 0
2.88 0 0
2.96 0 0
3.04 0 0
3.12 0 0
3.2 0 0
3.28 0 0
3.36 0 0
3.44 0 0
3.52 0 0
3.6 0 0
3.68 0 0
3.76 0 0
3.84 0 0
3.92 0 0
4 0 0
4.08 0 0
4.16 0 0
4.24 0 0
4.32 0 0
4.4 0 0
4.48 0 0
4.56 0 0
4.64 0 0
4.72 0 0
4.8 0 0
4.88 0 0
4.96 0 0
5.04 0 0
5.12 0 0
5.2 0 0
5.28 0 0
5.36 0 0
5.44 0 0
5.52 0 0
5.6 0 0
5.68 0 0
5.76 0 0
5.84 0 0
5.92 0 0
6 0 0
6.08 0 0
6.16 0 0
6.24 0 0
6.32 0 0
6.4 0 0
6.48 0 0
6.56 0 0
6.64 0 0
6.72 0 0
6.8 0 0
6.88 0 0
6.96 0 0
7.04 0 0
7.12 0 0
7.2 0 0
7.28 0 0
7.36 0 0
7.44 0 0
7.52 0 0
7.6 0 0
7.68 0 0
7.76 0 0
7.84 0 0
7.92 0 0
8 0 0
8.08 0 0
8.16 0 0
8.24 0 0
8.32 0 0
8.4 0 0
8.48 0 0
8.56 0 0
8.64 0 0
8.72 0 0
8.8 0 0
8.88 0 0
8.96 0 0
9.04 0 0
9.12 0 0
9.2 0 0
9.28 0 0
9.36 0 0
9.44 0 0
9.52 0 0
9.6 0 0
9.68 0 0
9.76 0 0
9.84 0 0
9.92 0 0
10 0 0
10.08 0 0
10.16 0 0
10.24 0 0
10.32 0 0
10.4 0 0
10.48 0 0
10.56 0 0
10.64 0 0
10.72 0 0
10.8 0 0
10.88 0 0
10.96 0 0
11.04 0 0
11.12 0 0
11.2 0 0
11.28 0 0
11.36 0 0
11.44 0 0
11.52 0 0
11.6 0 0
11.68 0 0
11.76 0 0
11.84 0 0
11.92 0 0
12 0 0
12.08 0 0
12.16 0 0
12.24 0 0
12.32 0 0
12.4 0 0
12.48 0 0
12.56 0 0
12.64 0 0
12.72 0 0
12.8 0 0
12.88 0 0
12.96 0 0
13.04 0 0
13.12 0 0
13.2 0 0
13.28 0 0
13.36 0 0
13.44 0 0
13.52 0 0
13.6 0 0
13.68 0 0
13.76 0 0
13.84 0 0
13.92 0 0
14 0 0
14.08 0 0
14.16 0 0
14.24 0 0
14.32 0 0
14.4 0 0
14.48 0 0
14.56 0 0
14.64 0 0
14.72 0 0
14.8 0 0
14.88 0 0
14.96 0 0
15.04 0 0
15.12 0 0
15.2 0 0
15.28 0 0
15.36 0 0
15.44 0 0
15.52 0 0
15.6 0 0
15.68 0 0
15.76 0 0
15.84 0 0
15.92 0 0
16 0 0
16.08 0 0
16.16 0 0
16.24 0 0
16.32 0 0
16.4 0 0
16.48 0 0
16.56 0 0
16.64 0 0
16.72 0 0
16.8 0 0
16.88 0 0
16.96 0 0
17.04 0 0
17.12 0 0
17.2 0 0
17.28 0 0
17.36 0 0
17.44 0 0
17.52 0 0
17.6 0 0
17.68 0 0
17.76 0 0
17.84 0 0
17.92 0 0
18 0 0
18.08 0 0
18.16 0 0
18.24 0 0
18.32 0 0
18.4 0 0
18.48 0 0
18.56 0 0
18.64 0 0
18.72 0 0
18.8 0 0
18.88 0 0
18.96 0 0
19.04 0 0
19.12 0 0
19.2 0 0
19.28 0 0
19.36 0 0
19.44 0 0
19.52 0 0
19.6 0 0
19.68 0 0
19.76 0 0
19.84 0 0
19.92 0 0
20 0 0
20.08 0 0
20.16 0 0
20.24 0 0
20.32 0 0
20.4 0 0
20.48 0 0
20.56 0 0
20.64 0 0
20.72 0 0
20.8 0 0
20.88 0 0
20.96 0 0
21.04 0 0
21.12 0 0
21.2 0 0
21.28 0 0
21.36 0 0
21.44 0 0
21.52 0 0
21.6 0 0
21.68 0 0
21.76 0 0
21.84 0 0
21.92 0 0
22 0 0
22.08 0 0
22.16 0 0
22.24 0 0
22.32 0 0
22.4 0 0
22.48 0 0
22.56 0 0
22.64 0 0
22.72 0 0
22.8 0 0
22.88 0 0
22.96 0 0
23.04 0 0
23.12 0 0
23.2 0 0
23.28 0 0
23.36 0 0
23.44 0 0
23.52 0 0
23.6 0 0
23.68 0 0
23.76 0 0
23.84 0 0
23.92 0 0
24 0 0
24.08 0 0
24.16 0 0
24.24 0 0
24.32 0 0
24.4 0 0
24.48 0 0
24.56 0 0
24.64 0 0
24.72 0 0
24.8 0 0
24.88 0 0
24.96 0 0
25.04 0 0
25.12 0 0
25.2 0 0
25.28 0 0
25.36 0 0
25.44 0 0
25.52 0 0
25.6 0 0
25.68 0 0
25.76 0 0
25.84 0 0
25.92 0 0
26 0 0
26.08 0 0
26.16 0 0
26.24 0 0
26.32 0 0
26.4 0 0
26.48 0 0
26.56 0 0
26.64 0 0
26.72 0 0
26.8 0 0
26.88 0 0
26.96 0 0
27.04 0 0
27.12 0 0
27.2 0 0
27.28 0 0
27.36 0 0
27.44 0 0
27.52 0 0
27.6 0 0
27.68 0 0
27.76 0 0
27.84 0 0
27.92 0 0
28 0 0
28.08 0 0
28.16 0 0
28.24 0 0
28.32 0 0
28.4 0 0
28.48 0 0
28.56 0 0
28.64 0 0
28.72 0 0
28.8 0 0
28.88 0 0
28.96 0 0
29.04 0 0
29.12 0 0
29.2 0 0
29.28 0 0
29.36 0 0
29.44 0 0
29.52 0 0
29.6 0 0
29.68 0 0
29.76 0 0
29.84 0 0
29.92 0 0
30 0 0
30.08 0 0
30.16 0 0
30.24 0 0
30.32 0 0
30.4 0 0
30.48 0 0
30.56 0 0
30.64 0 0
30.72 0 0
30.8 0 0
30.88 0 0
30.96 0 0
31.04 0 0
31.12 0 0
31.2 0 0
31.28 0 0
31.36 0 0
31.44 0 0
31.52 0 0
31.6 0 0
31.68 0 0
31.76 0 0
31.84 0 0
31.92 0 0
0 0.02 0
0.08 0.02 0
0.16 0.02 0
0.24 0.02 0
0.32 0.02 0
0.4 0.02 0
0.48 0.02 0
0.56 0.02 0
0.64 0.02 0
0.72 0.02 0
0.8 0.02 0
0.88 0.02 0
0.96 0.02 0
1.04 0.02 0
1.12 0.02 0
1.2 0.02 0
1.28 0.02 0
1.36 0.02 0
1.44 0.02 0
1.52 0.02 0
1.6 0.02 0
1.68 0.02 0
1.76 0.02 0
1.84 0.02 0
1.92 0.02 0
2 0.02 0
2.08 0.02 0
2.16 0.02 0
2.24 0.02 0
2.32 0.02 0
2.4 0.02 0
2.48 0.02 0
2.56 0.02 0
2.64 0.02 0
2.72 0.02 0
2.8 0.02 0
2.88 0.02 0
2.96 0.02 0
3.04 0.02 0
3.12 0.02 0
3.2 0.02 0
3.28 0.02 0
3.36 0.02 0
3.44 0.02 0
3.52 0.02 0
3.6 0.02 0
3.68 0.02 0
3.76 0.02 0
3.84 0.02 0
3.92 0.02 0
4 0.02 0
4.08 0.02 0
4.16 0.02 0
4.24 0.02 0
4.32 0.02 0
4.4 0.02 0
4.48 0.02 0
4.56 0.02 0
4.64 0.02 0
4.72 0.02 0
4.8 0.02 0
4.88 0.02 0
4.96 0.02 0
5.04 0.02 0
5.12 0.02 0
5.2 0.02 0
5.28 0.02 0
5.36 0.02 0
5.44 0.02 0
5.52 0.02 0
5.6 0.02 0
5.68 0.02 0
5.76 0.02 0
5.84 0.02 0
5.92 0.02 0
6 0.02 0
6.08 0.02 0
6.16 0.02 0
6.24 0.02 0
6.32 0.02 0
6.4 0.02 0
6.48 0.02 0
6.56 0.02 0
6.64 0.02 0
6.72 0.02 0
6.8 0.02 0
6.88 0.02 0
6.96 0.02 0
7.04 0.02 0
7.12 0.02 0
7.2 0.02 0
7.28 0.02 0
7.36 0.02 0
7.44 0.02 0
7.52 0.02 0
7.6 0.02 0
7.68 0.02 0
7.76 0.02 0
7.84 0.02 0
7.92 0.02 0
8 0.02 0
8.08 0.02 0
8.16 0.02 0
8.24 0.02 0
8.32 0.02 0
8.4 0.02 0
8.48 0.02 0
8.56 0.02 0
8.64 0.02 0
8.72 0.02 0
8.8 0.02 0
8.88 0.02 0
8.96 0.02 0
9.04 0.02 0
9.12 0.02 0
9.2 0.02 0
9.28 0.02 0
9.36 0.02 0
9.44 0.02 0
9.52 0.02 0
9.6 0.02 0
9.68 0.02 0
9.76 0.02 0
9.84 0.02 0
9.92 0.02 0
10 0.02 0
10.08 0.02 0
10.16 0.02 0
10.24 0.02 0
10.32 0.02 0
10.4 0.02 0
10.48 0.02 0
10.56 0.02 0
10.64 0.02 0
10.72 0.02 0
10.8 0.02 0
10.88 0.02 0
10.96 0.02 0
11.04 0.02 0
11.12 0.02 0
11.2 0.02 0
11.28 0.02 0
11.36 0.02 0
11.44 0.02 0
11.52 0.02 0
11.6 0.02 0
11.68 0.02 0
11.76 0.02 0
11.84 0.02 0
11.92 0.02 0
12 0.02 0
12.08 0.02 0
12.16 0.02 0
12.24 0.02 0
12.32 0.02 0
12.4 0.02 0
12.48 0.02 0
12.56 0.02 0
12.64 0.02 0
12.72 0.02 0
12.8 0.02 0
12.88 0.02 0
12.96 0.02 0
13.04 0.02 0
13.12 0.02 0
13.2 0.02 0
13.28 0.02 0
13.36 0.02 0
13.44 0.02 0
13.52 0.02 0
13.6 0.02 0
13.68 0.02 0
13.76 0.02 0
13.84 0.02 0
13.92 0.02 0
14 0.02 0
14.08 0.02 0
14.16 0.02 0
14.24 0.02 0
14.32 0.02 0
14.4 0.02 0
14.48 0.02 0
14.56 0.02 0
14.64 0.02 0
14.72 0.02 0
14.8 0.02 0
14.88 0.02 0
14.96 0.02 0
15.04 0.02 0
15.12 0.02 0
15.2 0.02 0
15.28 0.02 0
15.36 0.02 0
15.44 0.02 0
15.52 0.02 0
15.6 0.02 0
15.68 0.02 0
15.76 0.02 0
15.84 0.02 0
15.92 0.02 0
16 0.02 0
16.08 0.02 0
16.16 0.02 0
16.24 0.02 0
16.32 0.02 0
16.4 0.02 0
16.48 0.02 0
16.56 0.02 0
16.64 0.02 0
16.72 0.02 0
16.8 0.02 0
16.88 0.02 0
16.96 0.02 0
17.04 0.02 0
17.12 0.02 0
17.2 0.02 0
17.28 0.02 0
17.36 0.02 0
17.44 0.02 0
17.52 0.02 0
17.6 0.02 0
17.68 0.02 0
17.76 0.02 0
17.84 0.02 0
17.92 0.02 0
18 0.02 0
18.08 0.02 0
18.16 0.02 0
18.24 0.02 0
18.32 0.02 0
18.4 0.02 0
18.48 0.02 0
18.56 0.02 0
18.64 0.02 0
18.72 0.02 0
18.8 0.02 0
18.88 0.02 0
18.96 0.02 0
19.04 0.02 0
19.12 0.02 0
19.2 0.02 0
19.28 0.02 0
19.36 0.02 0
19.44 0.02 0
19.52 0.02 0
19.6 0.02 0
19.68 0.02 0
19.76 0.02 0
19.84 0.02 0
19.92 0.02 0
20 0.02 0
20.08 0.02 0
20.16 0.02 0
20.24 0.02 0
20.32 0.02 0
20.4 0.02 0
20.48 0.02 0
20.56 0.02 0
20.64 0.02 0
20.72 0.02 0
20.8 0.02 0
20.88 0.02 0
20.96 0.02 0
21.04 0.02 0
21.12 0.02 0
21.2 0.02 0
21.28 0.02 0
21.36 0.02 0
21.44 0.02 0
21.52 0.02 0
21.6 0.02 0
21.68 0.02 0
21.76 0.02 0
21.84 0.02 0
21.92 0.02 0
22 0.02 0
22.08 0.02 0
22.16 0.02 0
22.24 0.02 0
22.32 0.02 0
22.4 0.02 0
22.48 0.02 0
22.56 0.02 0
22.64 0.02 0
22.72 0.02 0
22.8 0.02 0
22.88 0.02 0
22.96 0.02 0
23.04 0.02 0
23.12 0.02 0
23.2 0.02 0
23.28 0.02 0
23.36 0.02 0
23.44 0.02 0
23.52 0.02 0
23.6 0.02 0
23.68 0.02 0
23.76 0.02 0
23.84 0.02 0
23.92 0.02 0
24 0.02 0
24.08 0.02 0
24.16 0.02 0
24.24 0.02 0
24.32 0.02 0
24.4 0.02 0
24.48 0.02 0
24.56 0.02 0
24.64 0.02 0
24.72 0.02 0
24.8 0.02 0
24.88 0.02 0
24.96 0.02 0
25.04 0.02 0
25.12 0.02 0
25.2 0.02 0
25.28 0.02 0
25.36 0.02 0
25.44 0.02 0
25.52 0.02 0
25.6 0.02 0
25.68 0.02 0
25.76 0.02 0
25.84 0.02 0
25.92 0.02 0
26 0.02 0
26.08 0.02 0
26.16 0.02 0
26.24 0.02 0
26.32 0.02 0
26.4 0.02 0
26.48 0.02 0
26.56 0.02 0
26.64 0.02 0
26.72 0.02 0
26.8 0.02 0
26.88 0.02 0
26.96 0.02 0
27.04 0.02 0
27.12 0.02 0
27.2 0.02 0
27.28 0.02 0
27.36 0.02 0
27.44 0.02 0
27.52 0.02 0
27.6 0.02 0
27.68 0.02 0
27.76 0.02 0
27.84 0.02 0
27.92 0.02 0
28 0.02 0
28.08 0.02 0
28.16 0.02 0
28.24 0.02 0
28.32 0.02 0
28.4 0.02 0
28.48 0.02 0
28.56 0.02 0
28.64 0.02 0
28.72 0.02 0
28.8 0.02 0
28.88 0.02 0
28.96 0.02 0
29.04 0.02 0
29.12 0.02 0
29.2 0.02 0
29.28 0.02 0
29.36 0.02 0
29.44 0.02 0
29.52 0.02 0
29.6 0.02 0
29.68 0.02 0
29.76 0.02 0
29.84 0.02 0
29.92 0.02 0
30 0.02 0
30.08 0.02 0
30.16 0.02 0
30.24 0.02 0
30.32 0.02 0
30.4 0.02 0
30.48 0.02 0
30.56 0.02 0
30.64 0.02 0
30.72 0.02 0
30.8 0.02 0
30.88 0.02 0
30.96 0.02 0
31.04 0.02 0
31.12 0.02 0
31.2 0.02 0
31.28 0.02 0
31.36 0.02 0
31.44 0.02 0
31.52 0.02 0
31.6 0.02 0
31.68 0.02 0
31.76 0.02 0
31.84 0.02 0
31.92 0.02 0
0 0.04 0
0.08 0.04 0
0.16 0.04 0
0.24 0.04 0
0.32 0.04 0
0.4 0.04 0
0.48 0.04 0
0.56 0.04 0
0.64 0.04 0
0.72 0.04 0
0.8 0.04 0
0.88 0.04 0
0.96 0.04 0
1.04 0.04 0
1.12 0.04 0
1.2 0.04 0
1.28 0.04 0
1.36 0.04 0
1.44 0.04 0
1.52 0.04 0
1.6 0.04 0
1.68 0.04 0
1.76 0.04 0
1.84 0.04 0
1.92 0.04 0
2 0.04 0
2.08 0.04 0
2.16 0.04 0
2.24 0.04 0
2.32 0.04 0
2.4 0.04 0
2.48 0.04 0
2.56 0.04 0
2.64 0.04 0
2.72 0.04 0
2.8 0.04 0
2.88 0.04 0
2.96 0.04 0
3.04 0.04 0
3.12 0.04 0
3.2 0.04 0
3.28 0.04 0
3.36 0.04 0
3.44 0.04 0
3.52 0.04 0
3.6 0.04 0
3.68 0.04 0
3.76 0.04 0
3.84 0.04 0
3.92 0.04 0
4 0.04 0
4.08 0.04 0
4.16 0.04 0
4.24 0.04 0
4.32 0.04 0
4.4 0.04 0
4.48 0.04 0
4.56 0.04 0
4.64 0.04 0
4.72 0.04 0
4.8 0.04 0
4.88 0.04 0
4.96 0.04 0
5.04 0.04 0
5.12 0.04 0
5.2 0.04 0
5.28 0.04 0
5.36 0.04 0
5.44 0.04 0
5.52 0.04 0
5.6 0.04 0
5.68 0.04 0
5.76 0.04 0
5.84 0.04 0
5.92 0.04 0
6 0.04 0
6.08 0.04 0
6.16 0.04 0
6.24 0.04 0
6.32 0.04 0
6.4 0.04 0
6.48 0.04 0
6.56 0.04 0
6.64 0.04 0
6.72 0.04 0
6.8 0.04 0
6.88 0.04 0
6.96 0.04 0
7.04 0.04 0
7.12 0.04 0
7.2 0.04 0
7.28 0.04 0
7.36 0.04 0
7.44 0.04 0
7.52 0.04 0
7.6 0.04 0
7.68 0.04 0
7.76 0.04 0
7.84 0.04 0
[...]
POINT_DATA 20000

SCALARS p float 1
LOOKUP_TABLE default
1
206.679
206.448
206.38
206.355
206.339
206.326
206.315
206.305
206.295
206.285
206.276
206.267
206.258
206.25
206.242
206.233
206.226
206.218
206.21
206.203
206.195
206.188
206.181
206.174
206.167
206.16
206.154
206.147
206.141
206.134
206.128
206.122
206.116
206.11
206.104
206.098
206.092
206.086
206.081
206.075
206.069
206.064
206.058
206.053
206.047
206.042
206.037
206.032
206.026
206.021
206.016
206.011
206.006
206.001
205.996
205.991
205.986
205.981
205.976
205.971
205.967
205.962
205.957
205.952
205.948
205.943
205.938
205.934
205.929
205.925
205.92
205.916
205.911
205.907
205.902
205.898
205.893
205.889
205.885
205.88
205.876
205.872
205.867
205.863
205.859
205.854
205.85
205.846
205.842
205.838
205.833
205.829
205.825
205.821
205.817
205.813
205.809
205.805
205.801
205.797
205.793
205.789
205.784
205.78
205.777
205.773
205.769
205.765
205.761
205.757
205.753
205.749
205.745
205.741
205.737
205.733
205.729
205.726
205.722
205.718
205.714
205.71
205.706
205.702
205.699
205.695
205.691
205.687
205.684
205.68
205.676
205.672
205.668
205.665
205.661
205.657
205.653
205.65
205.646
205.642
205.639
205.635
205.631
205.627
205.624
205.62
205.616
205.613
205.609
205.605
205.602
205.598
205.594
205.591
205.587
205.583
205.58
205.576
205.573
205.569
205.565
205.562
205.558
205.554
205.551
205.547
205.544
205.54
205.536
205.533
205.529
205.526
205.522
205.518
205.515
205.511
205.508
205.504
205.5
205.497
205.493
205.49
205.486
205.483
205.479
205.475
205.472
205.468
205.465
205.461
205.458
205.454
205.451
205.447
205.443
205.44
205.436
205.433
205.429
205.426
205.422
205.419
205.415
205.412
205.408
205.405
205.401
205.397
205.394
205.39
205.387
205.383
205.38
205.376
205.373
205.369
205.366
205.362
205.359
205.355
205.352
205.348
205.345
205.341
205.338
205.334
205.331
205.327
205.324
205.32
205.317
205.313
205.31
205.306
205.303
205.299
205.296
205.292
205.289
205.285
205.282
205.278
205.275
205.271
205.268
205.264
205.261
205.257
205.254
205.25
205.247
205.243
205.24
205.236
205.233
205.229
205.226
205.222
205.219
205.215
205.212
205.208
205.205
205.201
205.198
205.194
205.191
205.187
205.184
205.18
205.177
205.173
205.17
205.166
205.163
205.159
205.156
205.153
205.149
205.146
205.142
205.139
205.135
205.132
205.128
205.125
205.121
205.118
205.114
205.111
205.107
205.104
205.1
205.097
205.093
205.09
205.086
205.083
205.079
205.076
205.073
205.069
205.066
205.062
205.059
205.055
205.052
205.048
205.045
205.041
205.038
205.034
205.031
205.027
205.024
205.02
205.017
205.013
205.01
205.006
205.003
205
204.996
204.993
204.989
204.986
204.982
204.979
204.975
204.972
204.968
204.965
204.961
204.958
204.954
204.951
204.947
204.944
204.94
204.937
204.934
204.93
204.927
204.923
204.92
204.916
204.913
204.909
204.906
204.902
204.899
204.895
204.892
204.888
204.885
204.881
204.878
204.875
204.871
204.868
204.864
204.861
204.857
204.854
204.85
204.847
204.843
204.84
204.836
204.833
204.829
204.826
204.822
204.819
204.816
204.812
204.809
204.805
204.802
204.798
204.795
204.791
204.788
204.784
204.781
204.777
204.774
204.77
204.767
204.763
204.76
204.756
204.753
204.75
204.746
204.743
204.739
204.736
0.5
206.679
206.679
206.448
206.38
206.355
206.339
206.326
206.315
206.305
206.295
206.285
206.276
206.267
206.258
206.25
206.242
206.233
206.226
206.218
206.21
206.203
206.195
206.188
206.181
206.174
206.167
206.16
206.154
206.147
206.141
206.134
206.128
206.122
206.116
206.11
206.104
206.098
206.092
206.086
206.081
206.075
206.069
206.064
206.058
206.053
206.047
206.042
206.037
206.032
206.026
206.021
206.016
206.011
206.006
206.001
205.996
205.991
205.986
205.981
205.976
205.971
205.967
205.962
205.957
205.952
205.948
205.943
205.938
205.934
205.929
205.925
205.92
205.916
205.911
205.907
205.902
205.898
205.893
205.889
205.885
205.88
205.876
205.872
205.867
205.863
205.859
205.854
205.85
205.846
205.842
205.838
205.833
205.829
205.825
205.821
205.817
205.813
205.809
205.805
205.801
205.797
205.793
205.789
205.784
205.78
205.777
205.773
205.769
205.765
205.761
205.757
205.753
205.749
205.745
205.741
205.737
205.733
205.729
205.726
205.722
205.718
205.714
205.71
205.706
205.702
205.699
205.695
205.691
205.687
205.684
205.68
205.676
205.672
205.668
205.665
205.661
205.657
205.653
205.65
205.646
205.642
205.639
205.635
205.631
205.627
205.624
205.62
205.616
205.613
205.609
205.605
205.602
205.598
205.594
205.591
205.587
205.583
205.58
205.576
205.573
205.569
205.565
205.562
205.558
205.554
205.551
205.547
205.544
205.54
205.536
205.533
205.529
205.526
205.522
205.518
205.515
205.511
205.508
205.504
205.5
205.497
205.493
205.49
205.486
205.483
205.479
205.475
205.472
205.468
205.465
205.461
205.458
205.454
205.451
205.447
205.443
205.44
205.436
205.433
205.429
205.426
205.422
205.419
205.415
205.412
205.408
205.405
205.401
205.397
205.394
205.39
205.387
205.383
205.38
205.376
205.373
205.369
205.366
205.362
205.359
205.355
205.352
205.348
205.345
205.341
205.338
205.334
205.331
205.327
205.324
205.32
205.317
205.313
205.31
205.306
205.303
205.299
205.296
205.292
205.289
205.285
205.282
205.278
205.275
205.271
205.268
205.264
205.261
205.257
205.254
205.25
205.247
205.243
205.24
205.236
205.233
205.229
205.226
205.222
205.219
205.215
205.212
205.208
205.205
205.201
205.198
205.194
205.191
205.187
205.184
205.18
205.177
205.173
205.17
205.166
205.163
205.159
205.156
205.153
205.149
205.146
205.142
205.139
205.135
205.132
205.128
205.125
205.121
205.118
205.114
205.111
205.107
205.104
205.1
205.097
205.093
205.09
205.086
205.083
205.079
205.076
205.073
205.069
205.066
205.062
205.059
205.055
205.052
205.048
205.045
205.041
205.038
205.034
205.031
205.027
205.024
205.02
205.017
205.013
205.01
205.006
205.003
205
204.996
204.993
204.989
204.986
204.982
204.979
204.975
204.972
204.968
204.965
204.961
204.958
204.954
204.951
204.947
204.944
204.94
204.937
204.934
204.93
204.927
204.923
204.92
204.916
204.913
204.909
204.906
204.902
204.899
204.895
204.892
204.888
204.885
204.881
204.878
204.875
204.871
204.868
204.864
204.861
204.857
204.854
204.85
204.847
204.843
204.84
204.836
204.833
204.829
204.826
204.822
204.819
204.816
204.812
204.809
204.805
204.802
204.798
204.795
204.791
204.788
204.784
204.781
204.777
204.774
204.77
204.767
204.763
204.76
204.756
204.753
204.75
204.746
204.743
204.739
204.736
204.736
206.629
206.629
206.453
206.385
206.357
206.34
206.327
206.316
206.305
206.295
206.286
206.276
206.267
206.259
206.25
206.242
206.234
206.226
206.218
206.21
206.203
206.195
206.188
206.181
206.174
206.167
206.16
206.154
206.147
206.141
206.134
206.128
206.122
206.116
206.11
206.104
206.098
206.092
206.086
206.081
206.075
206.069
206.064
206.058
206.053
206.047
206.042
206.037
206.032
206.026
206.021
206.016
206.011
206.006
206.001
205.996
205.991
205.986
205.981
205.976
205.971
205.967
205.962
205.957
205.952
205.948
205.943
205.938
205.934
205.929
205.925
205.92
205.916
205.911
205.907
205.902
205.898
205.893
205.889
205.885
205.88
205.876
205.872
205.867
205.863
205.859
205.854
205.85
205.846
205.842
205.838
205.833
205.829
205.825
205.821
205.817
205.813
205.809
205.805
205.801
205.797
205.793
205.789
205.785
205.78
205.777
205.773
205.769
205.765
205.761
205.757
205.753
205.749
205.745
205.741
205.737
205.733
205.729
205.726
205.722
205.718
205.714
205.71
205.706
205.702
205.699
205.695
205.691
205.687
205.684
205.68
205.676
205.672
205.668
205.665
205.661
205.657
205.653
205.65
205.646
205.642
205.639
205.635
205.631
205.627
205.624
205.62
205.616
205.613
205.609
205.605
205.602
205.598
205.594
205.591
205.587
205.583
205.58
205.576
205.573
205.569
205.565
205.562
205.558
205.554
205.551
205.547
205.544
205.54
205.536
205.533
205.529
205.526
205.522
205.518
205.515
205.511
205.508
205.504
205.5
205.497
205.493
205.49
205.486
205.483
205.479
205.475
205.472
205.468
205.465
205.461
205.458
205.454
205.451
205.447
205.443
205.44
205.436
205.433
205.429
205.426
205.422
205.419
205.415
205.412
205.408
205.405
205.401
205.397
205.394
205.39
205.387
205.383
205.38
205.376
205.373
205.369
205.366
205.362
205.359
205.355
205.352
205.348
205.345
205.341
205.338
205.334
205.331
205.327
205.324
205.32
205.317
205.313
205.31
205.306
205.303
205.299
205.296
205.292
205.289
205.285
205.282
205.278
205.275
205.271
205.268
205.264
205.261
205.257
205.254
205.25
205.247
205.243
205.24
205.236
205.233
205.229
205.226
205.222
205.219
205.215
205.212
205.208
205.205
205.201
205.198
205.194
205.191
205.187
205.184
205.18
205.177
205.173
205.17
205.166
205.163
205.159
205.156
205.153
205.149
205.146
205.142
205.139
205.135
205.132
205.128
205.125
205.121
205.118
205.114
205.111
205.107
205.104
205.1
205.097
205.093
205.09
205.086
205.083
205.079
205.076
205.073
205.069
205.066
205.062
205.059
205.055
205.052
205.048
205.045
205.041
205.038
205.034
205.031
205.027
205.024
205.02
205.017
205.013
205.01
205.006
205.003
205
204.996
204.993
204.989
204.986
204.982
204.979
204.975
204.972
204.968
204.965
204.961
204.958
204.954
204.951
204.947
204.944
204.94
204.937
204.934
204.93
204.927
204.923
204.92
204.916
204.913
204.909
204.906
204.902
204.899
204.895
204.892
204.888
204.885
204.881
204.878
204.875
204.871
204.868
204.864
204.861
204.857
204.854
204.85
204.847
204.843
204.84
204.836
204.833
204.829
204.826
204.822
204.819
204.816
204.812
204.809
204.805
204.802
204.798
204.795
204.791
204.788
204.784
204.781
204.777
204.774
204.77
204.767
204.763
204.76
204.756
204.753
204.75
204.746
204.743
204.739
204.736
204.736
206.589
206.589
206.456
206.39
206.36
206.342
206.328
206.317
206.306
206.296
206.286
206.277
206.268
206.259
206.25
206.242
206.234
206.226
206.218
206.21
206.203
206.195
206.188
206.181
206.174
206.167
206.161
206.154
206.147
206.141
206.135
206.128
206.122
206.116
206.11
206.104
206.098
206.092
206.086
206.081
206.075
206.069
206.064
206.058
206.053
206.048
206.042
206.037
206.032
206.026
206.021
206.016
206.011
206.006
206.001
205.996
205.991
205.986
205.981
205.976
205.971
205.967
205.962
205.957
205.952
205.948
205.943
205.938
205.934
205.929
205.925
205.92
205.916
205.911
205.907
205.902
205.898
205.893
205.889
205.885
205.88
205.876
205.872
205.867
205.863
205.859
205.854
205.85
205.846
205.842
205.838
205.833
205.829
205.825
205.821
205.817
205.813
205.809
205.805
205.801
205.797
205.793
205.789
205.785
205.781
205.777
205.773
205.769
205.765
205.761
205.757
205.753
205.749
205.745
205.741
205.737
205.733
205.729
205.726
205.722
205.718
205.714
205.71
205.706
205.703
205.699
205.695
205.691
205.687
205.684
205.68
205.676
205.672
205.668
205.665
205.661
205.657
205.653
205.65
205.646
205.642
205.639
205.635
205.631
205.627
205.624
205.62
205.616
205.613
205.609
205.605
205.602
205.598
205.594
205.591
205.587
205.583
205.58
205.576
205.573
205.569
205.565
205.562
205.558
205.554
205.551
205.547
205.544
205.54
205.536
205.533
205.529
205.526
205.522
205.518
205.515
205.511
205.508
205.504
205.5
205.497
205.493
205.49
205.486
205.483
205.479
205.475
205.472
205.468
205.465
205.461
205.458
205.454
205.451
205.447
205.443
205.44
205.436
205.433
205.429
205.426
205.422
205.419
205.415
205.412
205.408
205.405
205.401
205.397
205.394
205.39
205.387
205.383
205.38
205.376
205.373
205.369
205.366
205.362
205.359
205.355
205.352
205.348
205.345
205.341
205.338
205.334
205.331
205.327
205.324
205.32
205.317
205.313
205.31
205.306
205.303
205.299
205.296
205.292
205.289
205.285
205.282
205.278
205.275
205.271
205.268
205.264
205.261
205.257
205.254
205.25
205.247
205.243
205.24
205.236
205.233
205.229
205.226
205.222
205.219
205.215
205.212
205.208
205.205
205.201
205.198
205.194
205.191
205.187
205.184
205.18
205.177
205.173
205.17
205.166
205.163
205.159
205.156
205.153
205.149
205.146
205.142
205.139
205.135
205.132
205.128
205.125
205.121
205.118
205.114
205.111
205.107
205.104
205.1
205.097
205.093
205.09
205.086
205.083
205.079
205.076
205.073
205.069
205.066
205.062
205.059
205.055
205.052
205.048
205.045
205.041
205.038
205.034
205.031
205.027
205.024
205.02
205.017
205.013
205.01
205.006
205.003
205
204.996
204.993
204.989
204.986
204.982
204.979
204.975
204.972
204.968
204.965
204.961
204.958
204.954
204.951
204.947
204.944
204.94
204.937
204.934
204.93
204.927
204.923
204.92
204.916
204.913
204.909
204.906
204.902
204.899
204.895
204.892
204.888
204.885
204.881
204.878
204.875
204.871
204.868
204.864
204.861
204.857
204.854
204.85
204.847
204.843
204.84
204.836
204.833
204.829
204.826
204.822
204.819
204.816
204.812
204.809
204.805
204.802
204.798
204.795
204.791
204.788
204.784
204.781
204.777
204.774
204.77
204.767
204.763
204.76
204.756
204.753
204.75
204.746
204.743
204.739
204.736
204.736
206.557
206.557
206.456
206.395
206.364
206.344
206.33
206.318
206.307
206.296
206.287
206.277
206.268
206.259
206.251
206.242
206.234
206.226
206.218
206.21
206.203
206.196
206.188
206.181
206.174
206.167
206.161
206.154
206.147
206.141
206.135
206.128
206.122
206.116
206.11
206.104
206.098
206.092
206.086
206.081
206.075
206.069
206.064
206.058
206.053
206.048
206.042
206.037
206.032
206.026
206.021
206.016
206.011
206.006
206.001
205.996
205.991
205.986
205.981
205.976
205.971
205.967
205.962
205.957
205.952
205.948
205.943
205.938
205.934
205.929
205.925
205.92
205.916
205.911
205.907
205.902
205.898
205.893
205.889
205.885
205.88
205.876
205.872
205.867
205.863
205.859
205.854
205.85
205.846
205.842
205.838
205.833
205.829
205.825
205.821
205.817
205.813
205.809
205.805
205.801
205.797
205.793
205.789
205.785
205.781
205.777
205.773
205.769
205.765
205.761
205.757
205.753
205.749
205.745
205.741
205.737
205.733
205.729
205.726
205.722
205.718
205.714
205.71
205.706
205.703
205.699
205.695
205.691
205.687
205.684
205.68
205.676
205.672
205.668
205.665
205.661
205.657
205.653
205.65
205.646
205.642
205.639
205.635
205.631
205.627
205.624
205.62
205.616
205.613
205.609
205.605
205.602
205.598
205.594
205.591
205.587
205.583
205.58
205.576
205.573
205.569
205.565
205.562
205.558
205.554
205.551
205.547
205.544
205.54
205.536
205.533
205.529
205.526
205.522
205.518
205.515
205.511
205.508
205.504
205.5
205.497
205.493
205.49
205.486
205.483
205.479
205.475
205.472
205.468
205.465
205.461
205.458
205.454
205.451
205.447
205.443
205.44
205.436
205.433
205.429
205.426
205.422
205.419
205.415
205.412
205.408
205.405
205.401
205.397
205.394
205.39
205.387
205.383
205.38
205.376
205.373
205.369
205.366
205.362
205.359
205.355
205.352
205.348
205.345
205.341
205.338
205.334
205.331
205.327
205.324
205.32
205.317
205.313
205.31
205.306
205.303
205.299
205.296
205.292
205.289
205.285
205.282
205.278
205.275
205.271
205.268
205.264
205.261
205.257
205.254
205.25
205.247
205.243
205.24
205.236
205.233
205.229
205.226
205.222
205.219
205.215
205.212
205.208
205.205
205.201
205.198
205.194
205.191
205.187
205.184
205.18
205.177
205.173
205.17
205.166
205.163
205.159
205.156
205.153
205.149
205.146
205.142
205.139
205.135
205.132
205.128
205.125
205.121
205.118
205.114
205.111
205.107
205.104
205.1
205.097
205.093
205.09
205.086
205.083
205.079
205.076
205.073
205.069
205.066
205.062
205.059
205.055
205.052
205.048
205.045
205.041
205.038
205.034
205.031
205.027
205.024
205.02
205.017
205.013
205.01
205.006
205.003
205
204.996
204.993
204.989
204.986
204.982
204.979
204.975
204.972
204.968
204.965
204.961
204.958
204.954
204.951
204.947
204.944
204.94
204.937
204.934
204.93
204.927
204.923
204.92
204.916
204.913
204.909
204.906
204.902
204.899
204.895
204.892
204.888
204.885
204.881
204.878
204.875
204.871
204.868
204.864
204.861
204.857
204.854
204.85
204.847
204.843
204.84
204.836
204.833
204.829
204.826
204.822
204.819
204.816
204.812
204.809
204.805
204.802
204.798
204.795
204.791
204.788
204.784
204.781
204.777
204.774
204.77
204.767
204.763
204.76
204.756
204.753
204.75
204.746
204.743
204.739
204.736
204.736
206.531
206.531
206.454
206.399
206.367
206.347
206.332
206.319
206.308
206.297
206.287
206.278
206.268
206.259
206.251
206.242
206.234
206.226
206.218
206.211
206.203
206.196
206.188
206.181
206.174
206.167
206.161
206.154
206.147
206.141
206.135
206.128
206.122
206.116
206.11
206.104
206.098
206.092
206.086
206.081
206.075
206.069
206.064
206.058
206.053
206.048
206.042
206.037
206.032
206.026
206.021
206.016
206.011
206.006
206.001
205.996
205.991
205.986
205.981
205.976
205.971
205.967
205.962
205.957
205.952
205.948
205.943
205.938
205.934
205.929
205.925
205.92
205.916
205.911
205.907
205.902
205.898
205.893
205.889
205.885
205.88
205.876
205.872
205.867
205.863
205.859
205.855
205.85
205.846
205.842
205.838
205.834
205.829
205.825
205.821
205.817
205.813
205.809
205.805
205.801
205.797
205.793
205.789
205.785
205.781
205.777
205.773
205.769
205.765
205.761
205.757
205.753
205.749
205.745
205.741
205.737
205.733
205.729
205.726
205.722
205.718
205.714
205.71
205.706
205.703
205.699
205.695
205.691
205.687
205.684
205.68
205.676
205.672
205.668
205.665
205.661
205.657
205.653
205.65
205.646
205.642
205.639
205.635
205.631
205.627
205.624
205.62
205.616
205.613
205.609
205.605
205.602
205.598
205.594
205.591
205.587
205.583
205.58
205.576
205.573
205.569
205.565
205.562
205.558
205.554
205.551
205.547
205.544
205.54
205.536
205.533
205.529
205.526
205.522
205.518
205.515
205.511
205.508
205.504
205.5
205.497
205.493
205.49
205.486
205.483
205.479
205.475
205.472
205.468
205.465
205.461
205.458
205.454
205.451
205.447
205.443
205.44
205.436
205.433
205.429
205.426
205.422
205.419
205.415
205.412
205.408
205.405
205.401
205.397
205.394
205.39
205.387
205.383
205.38
205.376
205.373
205.369
205.366
205.362
205.359
205.355
205.352
205.348
205.345
205.341
205.338
205.334
205.331
205.327
205.324
205.32
205.317
205.313
205.31
205.306
205.303
205.299
205.296
205.292
205.289
205.285
205.282
205.278
205.275
205.271
205.268
205.264
205.261
205.257
205.254
205.25
205.247
205.243
205.24
205.236
205.233
205.229
205.226
205.222
205.219
205.215
205.212
205.208
205.205
205.201
205.198
205.194
205.191
205.187
205.184
205.18
205.177
205.173
205.17
205.166
205.163
205.159
205.156
205.153
205.149
205.146
205.142
205.139
205.135
205.132
205.128
205.125
205.121
205.118
205.114
205.111
205.107
205.104
205.1
205.097
205.093
205.09
205.086
205.083
205.079
205.076
205.073
205.069
205.066
205.062
205.059
205.055
205.052
205.048
205.045
205.041
205.038
205.034
205.031
205.027
205.024
205.02
205.017
205.013
205.01
205.006
205.003
205
204.996
204.993
204.989
204.986
204.982
204.979
204.975
204.972
204.968
204.965
204.961
204.958
204.954
204.951
204.947
204.944
204.94
204.937
204.934
204.93
204.927
204.923
204.92
204.916
204.913
204.909
204.906
204.902
204.899
204.895
204.892
204.888
204.885
204.881
204.878
204.875
204.871
204.868
204.864
204.861
204.857
204.854
204.85
204.847
204.843
204.84
204.836
204.833
204.829
204.826
204.822
204.819
204.816
204.812
204.809
204.805
204.802
204.798
204.795
204.791
204.788
204.784
204.781
204.777
204.774
204.77
204.767
204.763
204.76
204.756
204.753
204.75
204.746
204.743
204.739
204.736
204.736
206.51
206.51
206.45
206.402
206.37
206.349
206.334
206.32
206.309
206.298
206.288
206.278
206.269
206.26
206.251
206.243
206.234
206.226
206.218
206.211
206.203
206.196
206.189
206.181
206.174
206.168
206.161
206.154
206.148
206.141
206.135
206.128
206.122
206.116
206.11
206.104
206.098
206.092
206.086
206.081
206.075
206.069
206.064
206.058
206.053
206.048
206.042
206.037
206.032
206.026
206.021
206.016
206.011
206.006
206.001
205.996
205.991
205.986
205.981
205.976
205.971
205.967
205.962
205.957
205.952
205.948
205.943
205.938
205.934
205.929
205.925
205.92
205.916
205.911
205.907
205.902
205.898
205.893
205.889
205.885
205.88
205.876
205.872
205.867
205.863
205.859
205.855
205.85
205.846
205.842
205.838
205.834
205.829
205.825
205.821
205.817
205.813
205.809
205.805
205.801
205.797
205.793
205.789
205.785
205.781
205.777
205.773
205.769
205.765
205.761
205.757
205.753
205.749
205.745
205.741
205.737
205.733
205.729
205.726
205.722
205.718
205.714
205.71
205.706
205.703
205.699
205.695