# vtk DataFile Version 2.0
FlowField
ASCII
DATASET STRUCTURED_GRID
DIMENSIONS 400 1 50
POINTS 20000 float
0 0 0
0.08 0 0
0.16 0 0
0.24 0 0
0.32 0 0
0.4 0 0
0.48 0 0
0.56 0 0
0.64 0 0
0.72 0 0
0.8 0 0
0.88 0 0
0.96 0 0
1.04 0 0
1.12 0 0
1.2 0 0
1.28 0 0
1.36 0 0
1.44 0 0
1.52 0 0
1.6 0 0
1.68 0 0
1.76 0 0
1.84 0 0
1.92 0 0
2 0 0
2.08 0 0
2.16 0 0
2.24 0 0
2.32 0 0
2.4 0 0
2.48 0 0
2.56 0 0
2.64 0 0
2.72 0 0
2.8 0 0
2.88 0 0
2.96 0 0
3.04 0 0
3.12 0 0
3.2 0 0
3.28 0 0
3.36 0 0
3.44 0 0
3.52 0 0
3.6 0 0
3.68 0 0
3.76 0 0
3.84 0 0
3.92 0 0
4 0 0
4.08 0 0
4.16 0 0
4.24 0 0
4.32 0 0
4.4 0 0
4.48 0 0
4.56 0 0
4.64 0 0
4.72 0 0
4.8 0 0
4.88 0 0
4.96 0 0
5.04 0 0
5.12 0 0
5.2 0 0
5.28 0 0
5.36 0 0
5.44 0 0
5.52 0 0
5.6 0 0
5.68 0 0
5.76 0 0
5.84 0 0
5.92 0 0
6 0 0
6.08 0 0
6.16 0 0
6.24 0 0
6.32 0 0
6.4 0 0
6.48 0 0
6.56 0 0
6.64 0 0
6.72 0 0
6.8 0 0
6.88 0 0
6.96 0 0
7.04 0 0
7.12 0 0
7.2 0 0
7.28 0 0
7.36 0 0
7.44 0 0
7.52 0 0
7.6 0 0
7.68 0 0
7.76 0 0
7.84 0 0
7.92 0 0
8 0 0
8.08 0 0
8.16 0 0
8.24 0 0
8.32 0 0
8.4 0 0
8.48 0 0
8.56 0 0
8.64 0 0
8.72 0 0
8.8 0 0
8.88 0 0
8.96 0 0
9.04 0 0
9.12 0 0
9.2 0 0
9.28 0 0
9.36 0 0
9.44 0 0
9.52 0 0
9.6 0 0
9.68 0 0
9.76 0 0
9.84 0 0
9.92 0 0
10 0 0
10.08 0 0
10.16 0 0
10.24 0 0
10.32 0 0
10.4 0 0
10.48 0 0
10.56 0 0
10.64 0 0
10.72 0 0
10.8 0 0
10.88 0 0
10.96 0 0
11.04 0 0
11.12 0 0
11.2 0 0
11.28 0 0
11.36 0 0
11.44 0 0
11.52 0 0
11.6 0 0
11.68 0 0
11.76 0 0
11.84 0 0
11.92 0 0
12 0 0
12.08 0 0
12.16 0 0
12.24 0 0
12.32 0 0
12.4 0 0
12.48 0 0
12.56 0 0
12.64 0 0
12.72 0 0
12.8 0 0
12.88 0 0
12.96 0 0
13.04 0 0
13.12 0 0
13.2 0 0
13.28 0 0
13.36 0 0
13.44 0 0
13.52 0 0
13.6 0 0
13.68 0 0
13.76 0 0
13.84 0 0
13.92 0 0
14 0 0
14.08 0 0
14.16 0 0
14.24 0 0
14.32 0 0
14.4 0 0
14.48 0 0
14.56 0 0
14.64 0 0
14.72 0 0
14.8 0 0
14.88 0 0
14.96 0 0
15.04 0 0
15.12 0 0
15.2 0 0
15.28 0 0
15.36 0 0
15.44 0 0
15.52 0 0
15.6 0 0
15.68 0 0
15.76 0 0
15.84 0 0
15.92 0 0
16 0 0
16.08 0 0
16.16 0 0
16.24 0 0
16.32 0 0
16.4 0 0
16.48 0 0
16.56 0 0
16.64 0 0
16.72 0 0
16.8 0 0
16.88 0 0
16.96 0 0
17.04 0 0
17.12 0 0
17.2 0 0
17.28 0 0
17.36 0 0
17.44 0 0
17.52 0 0
17.6 0 0
17.68 0 0
17.76 0 0
17.84 0 0
17.92 0 0
18 0 0
18.08 0 0
18.16 0 0
18.24 0 0
18.32 0 0
18.4 0 0
18.48 0 0
18.56 0 0
18.64 0 0
18.72 0 0
18.8 0 0
18.88 0 0
18.96 0 0
19.04 0 0
19.12 0 0
19.2 0 0
19.28 0 0
19.36 0 0
19.44 0 0
19.52 0 0
19.6 0 0
19.68 0 0
19.76 0 0
19.84 0 0
19.92 0 0
20 0 0
20.08 0 0
20.16 0 0
20.24 0 0
20.32 0 0
20.4 0 0
20.48 0 0
20.56 0 0
20.64 0 0
20.72 0 0
20.8 0 0
20.88 0 0
20.96 0 0
21.04 0 0
21.12 0 0
21.2 0 0
21.28 0 0
21.36 0 0
21.44 0 0
21.52 0 0
21.6 0 0
21.68 0 0
21.76 0 0
21.84 0 0
21.92 0 0
22 0 0
22.08 0 0
22.16 0 0
22.24 0 0
22.32 0 0
22.4 0 0
22.48 0 0
22.56 0 0
22.64 0 0
22.72 0 0
22.8 0 0
22.88 0 0
22.96 0 0
23.04 0 0
23.12 0 0
23.2 0 0
23.28 0 0
23.36 0 0
23.44 0 0
23.52 0 0
23.6 0 0
23.68 0 0
23.76 0 0
23.84 0 0
23.92 0 0
24 0 0
24.08 0 0
24.16 0 0
24.24 0 0
24.32 0 0
24.4 0 0
24.48 0 0
24.56 0 0
24.64 0 0
24.72 0 0
24.8 0 0
24.88 0 0
24.96 0 0
25.04 0 0
25.12 0 0
25.2 0 0
25.28 0 0
25.36 0 0
25.44 0 0
25.52 0 0
25.6 0 0
25.68 0 0
25.76 0 0
25.84 0 0
25.92 0 0
26 0 0
26.08 0 0
26.16 0 0
26.24 0 0
26.32 0 0
26.4 0 0
26.48 0 0
26.56 0 0
26.64 0 0
26.72 0 0
26.8 0 0
26.88 0 0
26.96 0 0
27.04 0 0
27.12 0 0
27.2 0 0
27.28 0 0
27.36 0 0
27.44 0 0
27.52 0 0
27.6 0 0
27.68 0 0
27.76 0 0
27.84 0 0
27.92 0 0
28 0 0
28.08 0 0
28.16 0 0
28.24 0 0
28.32 0 0
28.4 0 0
28.48 0 0
28.56 0 0
28.64 0 0
28.72 0 0
28.8 0 0
28.88 0 0
28.96 0 0
29.04 0 0
29.12 0 0
29.2 0 0
29.28 0 0
29.36 0 0
29.44 0 0
29.52 0 0
29.6 0 0
29.68 0 0
29.76 0 0
29.84 0 0
29.92 0 0
30 0 0
30.08 0 0
30.16 0 0
30.24 0 0
30.32 0 0
30.4 0 0
30.48 0 0
30.56 0 0
30.64 0 0
30.72 0 0
30.8 0 0
30.88 0 0
30.96 0 0
31.04 0 0
31.12 0 0
31.2 0 0
31.28 0 0
31.36 0 0
31.44 0 0
31.52 0 0
31.6 0 0
31.68 0 0
31.76 0 0
31.84 0 0
31.92 0 0
0 0.02 0
0.08 0.02 0
0.16 0.02 0
0.24 0.02 0
0.32 0.02 0
0.4 0.02 0
0.48 0.02 0
0.56 0.02 0
0.64 0.02 0
0.72 0.02 0
0.8 0.02 0
0.88 0.02 0
0.96 0.02 0
1.04 0.02 0
1.12 0.02 0
1.2 0.02 0
1.28 0.02 0
1.36 0.02 0
1.44 0.02 0
1.52 0.02 0
1.6 0.02 0
1.68 0.02 0
1.76 0.02 0
1.84 0.02 0
1.92 0.02 0
2 0.02 0
2.08 0.02 0
2.16 0.02 0
2.24 0.02 0
2.32 0.02 0
2.4 0.02 0
2.48 0.02 0
2.56 0.02 0
2.64 0.02 0
2.72 0.02 0
2.8 0.02 0
2.88 0.02 0
2.96 0.02 0
3.04 0.02 0
3.12 0.02 0
3.2 0.02 0
3.28 0.02 0
3.36 0.02 0
3.44 0.02 0
3.52 0.02 0
3.6 0.02 0
3.68 0.02 0
3.76 0.02 0
3.84 0.02 0
3.92 0.02 0
4 0.02 0
4.08 0.02 0
4.16 0.02 0
4.24 0.02 0
4.32 0.02 0
4.4 0.02 0
4.48 0.02 0
4.56 0.02 0
4.64 0.02 0
4.72 0.02 0
4.8 0.02 0
4.88 0.02 0
4.96 0.02 0
5.04 0.02 0
5.12 0.02 0
5.2 0.02 0
5.28 0.02 0
5.36 0.02 0
5.44 0.02 0
5.52 0.02 0
5.6 0.02 0
5.68 0.02 0
5.76 0.02 0
5.84 0.02 0
5.92 0.02 0
6 0.02 0
6.08 0.02 0
6.16 0.02 0
6.24 0.02 0
6.32 0.02 0
6.4 0.02 0
6.48 0.02 0
6.56 0.02 0
6.64 0.02 0
6.72 0.02 0
6.8 0.02 0
6.88 0.02 0
6.96 0.02 0
7.04 0.02 0
7.12 0.02 0
7.2 0.02 0
7.28 0.02 0
7.36 0.02 0
7.44 0.02 0
7.52 0.02 0
7.6 0.02 0
7.68 0.02 0
7.76 0.02 0
7.84 0.02 0
7.92 0.02 0
8 0.02 0
8.08 0.02 0
8.16 0.02 0
8.24 0.02 0
8.32 0.02 0
8.4 0.02 0
8.48 0.02 0
8.56 0.02 0
8.64 0.02 0
8.72 0.02 0
8.8 0.02 0
8.88 0.02 0
8.96 0.02 0
9.04 0.02 0
9.12 0.02 0
9.2 0.02 0
9.28 0.02 0
9.36 0.02 0
9.44 0.02 0
9.52 0.02 0
9.6 0.02 0
9.68 0.02 0
9.76 0.02 0
9.84 0.02 0
9.92 0.02 0
10 0.02 0
10.08 0.02 0
10.16 0.02 0
10.24 0.02 0
10.32 0.02 0
10.4 0.02 0
10.48 0.02 0
10.56 0.02 0
10.64 0.02 0
10.72 0.02 0
10.8 0.02 0
10.88 0.02 0
10.96 0.02 0
11.04 0.02 0
11.12 0.02 0
11.2 0.02 0
11.28 0.02 0
11.36 0.02 0
11.44 0.02 0
11.52 0.02 0
11.6 0.02 0
11.68 0.02 0
11.76 0.02 0
11.84 0.02 0
11.92 0.02 0
12 0.02 0
12.08 0.02 0
12.16 0.02 0
12.24 0.02 0
12.32 0.02 0
12.4 0.02 0
12.48 0.02 0
12.56 0.02 0
12.64 0.02 0
12.72 0.02 0
12.8 0.02 0
12.88 0.02 0
12.96 0.02 0
13.04 0.02 0
13.12 0.02 0
13.2 0.02 0
13.28 0.02 0
13.36 0.02 0
13.44 0.02 0
13.52 0.02 0
13.6 0.02 0
13.68 0.02 0
13.76 0.02 0
13.84 0.02 0
13.92 0.02 0
14 0.02 0
14.08 0.02 0
14.16 0.02 0
14.24 0.02 0
14.32 0.02 0
14.4 0.02 0
14.48 0.02 0
14.56 0.02 0
14.64 0.02 0
14.72 0.02 0
14.8 0.02 0
14.88 0.02 0
14.96 0.02 0
15.04 0.02 0
15.12 0.02 0
15.2 0.02 0
15.28 0.02 0
15.36 0.02 0
15.44 0.02 0
15.52 0.02 0
15.6 0.02 0
15.68 0.02 0
15.76 0.02 0
15.84 0.02 0
15.92 0.02 0
16 0.02 0
16.08 0.02 0
16.16 0.02 0
16.24 0.02 0
16.32 0.02 0
16.4 0.02 0
16.48 0.02 0
16.56 0.02 0
16.64 0.02 0
16.72 0.02 0
16.8 0.02 0
16.88 0.02 0
16.96 0.02 0
17.04 0.02 0
17.12 0.02 0
17.2 0.02 0
17.28 0.02 0
17.36 0.02 0
17.44 0.02 0
17.52 0.02 0
17.6 0.02 0
17.68 0.02 0
17.76 0.02 0
17.84 0.02 0
17.92 0.02 0
18 0.02 0
18.08 0.02 0
18.16 0.02 0
18.24 0.02 0
18.32 0.02 0
18.4 0.02 0
18.48 0.02 0
18.56 0.02 0
18.64 0.02 0
18.72 0.02 0
18.8 0.02 0
18.88 0.02 0
18.96 0.02 0
19.04 0.02 0
19.12 0.02 0
19.2 0.02 0
19.28 0.02 0
19.36 0.02 0
19.44 0.02 0
19.52 0.02 0
19.6 0.02 0
19.68 0.02 0
19.76 0.02 0
19.84 0.02 0
19.92 0.02 0
20 0.02 0
20.08 0.02 0
20.16 0.02 0
20.24 0.02 0
20.32 0.02 0
20.4 0.02 0
20.48 0.02 0
20.56 0.02 0
20.64 0.02 0
20.72 0.02 0
20.8 0.02 0
20.88 0.02 0
20.96 0.02 0
21.04 0.02 0
21.12 0.02 0
21.2 0.02 0
21.28 0.02 0
21.36 0.02 0
21.44 0.02 0
21.52 0.02 0
21.6 0.02 0
21.68 0.02 0
21.76 0.02 0
21.84 0.02 0
21.92 0.02 0
22 0.02 0
22.08 0.02 0
22.16 0.02 0
22.24 0.02 0
22.32 0.02 0
22.4 0.02 0
22.48 0.02 0
22.56 0.02 0
22.64 0.02 0
22.72 0.02 0
22.8 0.02 0
22.88 0.02 0
22.96 0.02 0
23.04 0.02 0
23.12 0.02 0
23.2 0.02 0
23.28 0.02 0
23.36 0.02 0
23.44 0.02 0
23.52 0.02 0
23.6 0.02 0
23.68 0.02 0
23.76 0.02 0
23.84 0.02 0
23.92 0.02 0
24 0.02 0
24.08 0.02 0
24.16 0.02 0
24.24 0.02 0
24.32 0.02 0
24.4 0.02 0
24.48 0.02 0
24.56 0.02 0
24.64 0.02 0
24.72 0.02 0
24.8 0.02 0
24.88 0.02 0
24.96 0.02 0
25.04 0.02 0
25.12 0.02 0
25.2 0.02 0
25.28 0.02 0
25.36 0.02 0
25.44 0.02 0
25.52 0.02 0
25.6 0.02 0
25.68 0.02 0
25.76 0.02 0
25.84 0.02 0
25.92 0.02 0
26 0.02 0
26.08 0.02 0
26.16 0.02 0
26.24 0.02 0
26.32 0.02 0
26.4 0.02 0
26.48 0.02 0
26.56 0.02 0
26.64 0.02 0
26.72 0.02 0
26.8 0.02 0
26.88 0.02 0
26.96 0.02 0
27.04 0.02 0
27.12 0.02 0
27.2 0.02 0
27.28 0.02 0
27.36 0.02 0
27.44 0.02 0
27.52 0.02 0
27.6 0.02 0
27.68 0.02 0
27.76 0.02 0
27.84 0.02 0
27.92 0.02 0
28 0.02 0
28.08 0.02 0
28.16 0.02 0
28.24 0.02 0
28.32 0.02 0
28.4 0.02 0
28.48 0.02 0
28.56 0.02 0
28.64 0.02 0
28.72 0.02 0
28.8 0.02 0
28.88 0.02 0
28.96 0.02 0
29.04 0.02 0
29.12 0.02 0
29.2 0.02 0
29.28 0.02 0
29.36 0.02 0
29.44 0.02 0
29.52 0.02 0
29.6 0.02 0
29.68 0.02 0
29.76 0.02 0
29.84 0.02 0
29.92 0.02 0
30 0.02 0
30.08 0.02 0
30.16 0.02 0
30.24 0.02 0
30.32 0.02 0
30.4 0.02 0
30.48 0.02 0
30.56 0.02 0
30.64 0.02 0
30.72 0.02 0
30.8 0.02 0
30.88 0.02 0
30.96 0.02 0
31.04 0.02 0
31.12 0.02 0
31.2 0.02 0
31.28 0.02 0
31.36 0.02 0
31.44 0.02 0
31.52 0.02 0
31.6 0.02 0
31.68 0.02 0
31.76 0.02 0
31.84 0.02 0
31.92 0.02 0
0 0.04 0
0.08 0.04 0
0.16 0.04 0
0.24 0.04 0
0.32 0.04 0
0.4 0.04 0
0.48 0.04 0
0.56 0.04 0
0.64 0.04 0
0.72 0.04 0
0.8 0.04 0
0.88 0.04 0
0.96 0.04 0
1.04 0.04 0
1.12 0.04 0
1.2 0.04 0
1.28 0.04 0
1.36 0.04 0
1.44 0.04 0
1.52 0.04 0
1.6 0.04 0
1.68 0.04 0
1.76 0.04 0
1.84 0.04 0
1.92 0.04 0
2 0.04 0
2.08 0.04 0
2.16 0.04 0
2.24 0.04 0
2.32 0.04 0
2.4 0.04 0
2.48 0.04 0
2.56 0.04 0
2.64 0.04 0
2.72 0.04 0
2.8 0.04 0
2.88 0.04 0
2.96 0.04 0
3.04 0.04 0
3.12 0.04 0
3.2 0.04 0
3.28 0.04 0
3.36 0.04 0
3.44 0.04 0
3.52 0.04 0
3.6 0.04 0
3.68 0.04 0
3.76 0.04 0
3.84 0.04 0
3.92 0.04 0
4 0.04 0
4.08 0.04 0
4.16 0.04 0
4.24 0.04 0
4.32 0.04 0
4.4 0.04 0
4.48 0.04 0
4.56 0.04 0
4.64 0.04 0
4.72 0.04 0
4.8 0.04 0
4.88 0.04 0
4.96 0.04 0
5.04 0.04 0
5.12 0.04 0
5.2 0.04 0
5.28 0.04 0
5.36 0.04 0
5.44 0.04 0
5.52 0.04 0
5.6 0.04 0
5.68 0.04 0
5.76 0.04 0
5.84 0.04 0
5.92 0.04 0
6 0.04 0
6.08 0.04 0
6.16 0.04 0
6.24 0.04 0
6.32 0.04 0
6.4 0.04 0
6.48 0.04 0
6.56 0.04 0
6.64 0.04 0
6.72 0.04 0
6.8 0.04 0
6.88 0.04 0
6.96 0.04 0
7.04 0.04 0
7.12 0.04 0
7.2 0.04 0
7.28 0.04 0
7.36 0.04 0
7.44 0.04 0
7.52 0.04 0
7.6 0.04 0
7.68 0.04 0
7.76 0.04 0
7.84 0.04 0
[...]
POINT_DATA 20000

SCALARS v float 1
LOOKUP_TABLE default
0
0
0
0
0
0
0
0
0
0
0
0
0
0
0
0
0
0
0
0
0
0
0
0
0
0
0
0
0
0
0
0
0
0
0
0
0
0
0
0
0
0
0
0
0
0
0
0
0
0
0
0
0
0
0
0
0
0
0
0
0
0
0
0
0
0
0
0
0
0
0
0
0
0
0
0
0
0
0
0
0
0
0
0
0
0
0
0
0
0
0
0
0
0
0
0
0
0
0
0
0
0
0
0
0
0
0
0
0
0
0
0
0
0
0
0
0
0
0
0
0
0
0
0
0
0
0
0
0
0
0
0
0
0
0
0
0
0
0
0
0
0
0
0
0
0
0
0
0
0
0
0
0
0
0
0
0
0
0
0
0
0
0
0
0
0
0
0
0
0
0
0
0
0
0
0
0
0
0
0
0
0
0
0
0
0
0
0
0
0
0
0
0
0
0
0
0
0
0
0
0
0
0
0
0
0
0
0
0
0
0
0
0
0
0
0
0
0
0
0
0
0
0
0
0
0
0
0
0
0
0
0
0
0
0
0
0
0
0
0
0
0
0
0
0
0
0
0
0
0
0
0
0
0
0
0
0
0
0
0
0
0
0
0
0
0
0
0
0
0
0
0
0
0
0
0
0
0
0
0
0
0
0
0
0
0
0
0
0
0
0
0
0
0
0
0
0
0
0
0
0
0
0
0
0
0
0
0
0
0
0
0
0
0
0
0
0
0
0
0
0
0
0
0
0
0
0
0
0
0
0
0
0
0
0
0
0
0
0
0
0
0
0
0
0
0
0
0
0
0
0
0
0
0
0
0
0
0
0
0
0
0
0
0
0
0
0
0
0
0
0
0
0
0
0
0
0
0
0
0
0
0
0
0
0
0
0
0
0
0
0
0
0
0
0
0
0
0
0
0
-0.123045
0.123045
0.0536009
0.0192432
0.00858347
0.00488714
0.00318385
0.00223308
0.00164254
0.00124946
0.000974413
0.000774451
0.00062453
0.000509372
0.00041935
0.00034786
0.000289821
0.000241332
0.000199781
0.000163501
0.000131066
0.000101096
7.29236e-05
4.72331e-05
2.55377e-05
8.55606e-06
-5.12496e-06
-1.87392e-05
-3.54367e-05
-5.62411e-05
-7.94666e-05
-0.000102012
-0.000121499
-0.000137661
-0.000152115
-0.000166896
-0.000182929
-0.000199411
-0.00021437
-0.000225871
-0.000233079
-0.00023662
-0.000238182
-0.000239716
-0.000242701
-0.000247767
-0.000254726
-0.000262849
-0.000271238
-0.00027912
-0.000286008
-0.000291732
-0.000296378
-0.000300179
-0.000303415
-0.00030634
-0.000309141
-0.000311936
-0.000314783
-0.000317698
-0.000320675
-0.000323702
-0.000326765
-0.000329853
-0.000332961
-0.000336087
-0.000339231
-0.000342397
-0.000345585
-0.000348797
-0.000352036
-0.000355302
-0.000358595
-0.000361915
-0.000365263
-0.000368637
-0.000372037
-0.000375462
-0.000378911
-0.000382383
-0.000385877
-0.000389392
-0.000392928
-0.000396482
-0.000400055
-0.000403645
-0.000407252
-0.000410874
-0.000414509
-0.000418158
-0.00042182
-0.000425492
-0.000429174
-0.000432866
-0.000436565
-0.000440271
-0.000443983
-0.0004477
-0.00045142
-0.000455142
-0.000458866
-0.000462589
-0.000466312
-0.000470033
-0.00047375
-0.000477463
-0.00048117
-0.00048487
-0.000488562
-0.000492245
-0.000495917
-0.000499578
-0.000503227
-0.000506861
-0.00051048
-0.000514083
-0.000517668
-0.000521235
-0.000524781
-0.000528307
-0.00053181
-0.00053529
-0.000538746
-0.000542175
-0.000545578
-0.000548953
-0.000552298
-0.000555613
-0.000558897
-0.000562148
-0.000565365
-0.000568548
-0.000571694
-0.000574804
-0.000577875
-0.000580908
-0.0005839
-0.000586851
-0.00058976
-0.000592626
-0.000595448
-0.000598224
-0.000600955
-0.000603639
-0.000606274
-0.000608861
-0.000611398
-0.000613885
-0.000616321
-0.000618704
-0.000621034
-0.000623311
-0.000625533
-0.0006277
-0.000629812
-0.000631866
-0.000633864
-0.000635804
-0.000637685
-0.000639508
-0.000641271
-0.000642974
-0.000644616
-0.000646197
-0.000647717
-0.000649175
-0.000650571
-0.000651905
-0.000653175
-0.000654382
-0.000655526
-0.000656606
-0.000657622
-0.000658574
-0.000659461
-0.000660284
-0.000661043
-0.000661736
-0.000662366
-0.00066293
-0.00066343
-0.000663865
-0.000664235
-0.000664541
-0.000664783
-0.000664961
-0.000665074
-0.000665124
-0.00066511
-0.000665032
-0.000664892
-0.000664689
-0.000664423
-0.000664096
-0.000663706
-0.000663256
-0.000662745
-0.000662173
-0.000661542
-0.000660851
-0.000660101
-0.000659294
-0.000658428
-0.000657506
-0.000656527
-0.000655492
-0.000654402
-0.000653258
-0.00065206
-0.000650809
-0.000649506
-0.000648151
-0.000646746
-0.000645291
-0.000643786
-0.000642233
-0.000640633
-0.000638986
-0.000637294
-0.000635556
-0.000633775
-0.000631951
-0.000630084
-0.000628176
-0.000626228
-0.00062424
-0.000622215
-0.000620151
-0.000618051
-0.000615916
-0.000613746
-0.000611543
-0.000609307
-0.00060704
-0.000604742
-0.000602414
-0.000600058
-0.000597675
-0.000595265
-0.000592829
-0.000590369
-0.000587886
-0.00058538
-0.000582853
-0.000580305
-0.000577737
-0.000575152
-0.000572548
-0.000569929
-0.000567293
-0.000564644
-0.000561981
-0.000559305
-0.000556617
-0.00055392
-0.000551212
-0.000548496
-0.000545772
-0.000543041
-0.000540304
-0.000537562
-0.000534816
-0.000532067
-0.000529315
-0.000526562
-0.000523808
-0.000521055
-0.000518303
-0.000515553
-0.000512805
-0.000510061
-0.000507321
-0.000504587
-0.000501858
-0.000499136
-0.000496421
-0.000493715
-0.000491017
-0.000488329
-0.000485651
-0.000482984
-0.000480329
-0.000477686
-0.000475056
-0.000472439
-0.000469837
-0.000467249
-0.000464677
-0.00046212
-0.00045958
-0.000457057
-0.000454551
-0.000452064
-0.000449595
-0.000447145
-0.000444715
-0.000442305
-0.000439915
-0.000437546
-0.000435199
-0.000432873
-0.000430569
-0.000428288
-0.00042603
-0.000423795
-0.000421584
-0.000419396
-0.000417233
-0.000415095
-0.000412982
-0.000410894
-0.000408831
-0.000406794
-0.000404784
-0.000402799
-0.000400841
-0.00039891
-0.000397006
-0.00039513
-0.00039328
-0.000391459
-0.000389665
-0.000387899
-0.000386161
-0.000384452
-0.000382771
-0.000381119
-0.000379496
-0.000377901
-0.000376336
-0.0003748
-0.000373292
-0.000371815
-0.000370367
-0.000368948
-0.000367559
-0.0003662
-0.00036487
-0.00036357
-0.000362301
-0.000361061
-0.000359851
-0.000358672
-0.000357522
-0.000356403
-0.000355314
-0.000354255
-0.000353227
-0.000352229
-0.000351261
-0.000350324
-0.000349417
-0.000348541
-0.000347695
-0.000346879
-0.000346094
-0.00034534
-0.000344616
-0.000343923
-0.00034326
-0.000342628
-0.000342027
-0.000341456
-0.000340916
-0.000340406
-0.000339928
-0.00033948
-0.000339063
-0.000338676
-0.000338321
-0.000337996
-0.000337703
-0.00033744
-0.000337209
-0.000337008
-0.00033684
-0.000336699
-0.000336599
-0.000336512
-0.000336493
-0.00033644
-0.000336536
-0.000336465
-0.000336764
-0.000336539
-0.000337259
-0.00033656
-0.000338148
-0.000336449
-0.00033941
-0.000336455
-0.000340733
-0.000336764
-0.000342941
-0.000334047
-0.000354516
-0.000311224
-0.000386763
-0.000308995
-0.000308995
-0.141978
0.141978
0.100804
0.0537057
0.0300391
0.0186927
0.0127
0.0091867
0.0069522
0.00544226
0.0043749
0.00359438
0.00300849
0.00255961
0.00220976
0.00193192
0.00170575
0.00151654
0.00135469
0.00121395
0.00108917
0.000975963
0.000872354
0.000779818
0.000701146
0.000636163
0.000579125
0.000520676
0.000453264
0.000375836
0.00029415
0.000216522
0.00014835
8.93804e-05
3.52521e-05
-1.83814e-05
-7.23552e-05
-0.000123327
-0.000165961
-0.000196229
-0.000213738
-0.000221929
-0.00022641
-0.000232605
-0.000243942
-0.000261209
-0.000282994
-0.0003067
-0.000329617
-0.000349686
-0.000365836
-0.00037794
-0.000386553
-0.000392561
-0.000396895
-0.000400331
-0.000403414
-0.000406462
-0.000409619
-0.000412912
-0.000416315
-0.000419784
-0.000423277
-0.00042677
-0.00043025
-0.000433714
-0.00043717
-0.000440624
-0.000444087
-0.000447566
-0.000451066
-0.000454594
-0.00045815
-0.000461738
-0.000465357
-0.000469007
-0.000472687
-0.000476398
-0.000480138
-0.000483905
-0.000487699
-0.00049152
-0.000495365
-0.000499233
-0.000503125
-0.000507038
-0.000510972
-0.000514925
-0.000518897
-0.000522887
-0.000526893
-0.000530915
-0.000534951
-0.000539001
-0.000543063
-0.000547136
-0.00055122
-0.000555312
-0.000559412
-0.000563519
-0.000567632
-0.000571749
-0.000575869
-0.000579991
-0.000584115
-0.000588238
-0.00059236
-0.000596479
-0.000600594
-0.000604704
-0.000608808
-0.000612905
-0.000616993
-0.000621071
-0.000625138
-0.000629192
-0.000633233
-0.00063726
-0.00064127
-0.000645263
-0.000649238
-0.000653193
-0.000657127
-0.000661039
-0.000664928
-0.000668792
-0.000672631
-0.000676442
-0.000680226
-0.00068398
-0.000687704
-0.000691397
-0.000695056
-0.000698682
-0.000702273
-0.000705828
-0.000709345
-0.000712824
-0.000716264
-0.000719663
-0.000723021
-0.000726336
-0.000729608
-0.000732835
-0.000736017
-0.000739152
-0.000742239
-0.000745279
-0.000748269
-0.000751208
-0.000754097
-0.000756933
-0.000759717
-0.000762447
-0.000765123
-0.000767744
-0.000770309
-0.000772817
-0.000775269
-0.000777662
-0.000779996
-0.000782272
-0.000784487
-0.000786642
-0.000788737
-0.00079077
-0.000792741
-0.000794649
-0.000796495
-0.000798278
-0.000799997
-0.000801652
-0.000803243
-0.00080477
-0.000806231
-0.000807628
-0.00080896
-0.000810226
-0.000811426
-0.000812561
-0.00081363
-0.000814633
-0.000815571
-0.000816442
-0.000817248
-0.000817988
-0.000818662
-0.000819271
-0.000819814
-0.000820292
-0.000820704
-0.000821052
-0.000821335
-0.000821554
-0.000821709
-0.0008218
-0.000821827
-0.000821792
-0.000821694
-0.000821533
-0.000821311
-0.000821028
-0.000820684
-0.000820279
-0.000819815
-0.000819291
-0.000818709
-0.000818069
-0.000817372
-0.000816618
-0.000815808
-0.000814943
-0.000814023
-0.000813049
-0.000812022
-0.000810942
-0.000809811
-0.000808629
-0.000807397
-0.000806116
-0.000804786
-0.000803409
-0.000801985
-0.000800515
-0.000799001
-0.000797442
-0.000795841
-0.000794197
-0.000792512
-0.000790786
-0.000789022
-0.000787218
-0.000785378
-0.000783501
-0.000781588
-0.000779641
-0.00077766
-0.000775647
-0.000773602
-0.000771527
-0.000769422
-0.000767288
-0.000765127
-0.000762939
-0.000760726
-0.000758488
-0.000756226
-0.000753942
-0.000751636
-0.00074931
-0.000746964
-0.000744599
-0.000742217
-0.000739818
-0.000737403
-0.000734974
-0.00073253
-0.000730074
-0.000727607
-0.000725128
-0.000722639
-0.000720141
-0.000717635
-0.000715122
-0.000712603
-0.000710078
-0.000707549
-0.000705016
-0.00070248
-0.000699943
-0.000697404
-0.000694865
-0.000692327
-0.00068979
-0.000687255
-0.000684724
-0.000682196
-0.000679673
-0.000677155
-0.000674643
-0.000672138
-0.000669641
-0.000667152
-0.000664672
-0.000662201
-0.000659741
-0.000657292
-0.000654854
-0.000652429
-0.000650017
-0.000647618
-0.000645234
-0.000642864
-0.000640509
-0.000638171
-0.000635848
-0.000633543
-0.000631255
-0.000628985
-0.000626734
-0.000624502
-0.000622289
-0.000620096
-0.000617923
-0.000615771
-0.000613641
-0.000611532
-0.000609445
-0.000607381
-0.000605339
-0.000603321
-0.000601326
-0.000599356
-0.000597409
-0.000595488
-0.000593591
-0.000591719
-0.000589873
-0.000588053
-0.000586258
-0.000584491
-0.000582749
-0.000581035
-0.000579348
-0.000577688
-0.000576056
-0.000574452
-0.000572876
-0.000571328
-0.000569808
-0.000568317
-0.000566855
-0.000565421
-0.000564017
-0.000562642
-0.000561297
-0.000559981
-0.000558695
-0.000557439
-0.000556213
-0.000555016
-0.000553851
-0.000552715
-0.00055161
-0.000550535
-0.000549492
-0.000548479
-0.000547496
-0.000546545
-0.000545625
-0.000544736
-0.000543878
-0.000543051
-0.000542256
-0.000541492
-0.00054076
-0.000540059
-0.00053939
-0.000538753
-0.000538147
-0.000537574
-0.000537032
-0.000536522
-0.000536045
-0.0005356
-0.000535187
-0.000534806
-0.000534458
-0.000534143
-0.00053386
-0.000533611
-0.000533394
-0.00053321
-0.000533061
-0.000532943
-0.000532865
-0.000532807
-0.000532813
-0.000532797
-0.000532927
-0.00053289
-0.000533253
-0.000533031
-0.000533901
-0.000533075
-0.000535132
-0.000532698
-0.000537359
-0.00053166
-0.000540541
-0.000530749
-0.000543676
-0.000530688
-0.000549364
-0.000521966
-0.00058339
-0.000457254
-0.000693136
-0.000465208
-0.000465208
-0.122064
0.122064
0.12146
0.0820572
0.0537684
0.0366223
0.026149
0.0194781
0.0150276
0.0119292
0.00969406
0.00803624
0.00678041
0.00581381
0.00505895
0.00445825
0.00396777
0.00355621
0.00320358
0.00289688
0.00262578
0.002382
0.00216185
0.00196688
0.00179945
0.00165601
0.00152433
0.00138824
0.0012368
0.00107063
0.000900723
0.000740504
0.000597386
0.00046975
0.00035072
0.000235055
0.000123896
2.44329e-05
-5.46493e-05
-0.000108618
-0.000139701
-0.00015628
-0.000169267
-0.000187911
-0.000217055
-0.000256608
-0.00030282
-0.000350362
-0.000394245
-0.000431052
-0.000459346
-0.000479423
-0.000492714
-0.000501123
-0.000506494
-0.000510298
-0.000513526
-0.000516727
-0.000520127
-0.000523755
-0.000527544
-0.000531405
-0.000535266
-0.00053908
-0.000542827
-0.000546511
-0.000550142
-0.00055374
-0.000557323
-0.000560906
-0.000564503
-0.000568121
-0.000571767
-0.000575444
-0.000579154
-0.000582897
-0.000586673
-0.000590482
-0.000594321
-0.000598191
-0.00060209
-0.000606016
-0.000609969
-0.000613948
-0.000617951
-0.000621978
-0.000626027
-0.000630098
-0.000634189
-0.000638299
-0.000642428
-0.000646574
-0.000650736
-0.000654914
-0.000659105
-0.00066331
-0.000667527
-0.000671755
-0.000675993
-0.00068024
-0.000684494
-0.000688755
-0.000693021
-0.000697291
-0.000701564
-0.000705839
-0.000710115
-0.000714391
-0.000718665
-0.000722936
-0.000727203
-0.000731465
-0.00073572
-0.000739968
-0.000744207
-0.000748436
-0.000752654
-0.000756859
-0.000761051
-0.000765227
-0.000769388
-0.000773532
-0.000777657
-0.000781762
-0.000785846
-0.000789909
-0.000793948
-0.000797963
-0.000801952
-0.000805914
-0.000809849
-0.000813754
-0.000817629
-0.000821473
-0.000825284
-0.000829062
-0.000832805
-0.000836512
-0.000840183
-0.000843815
-0.000847409
-0.000850962
-0.000854475
-0.000857945
-0.000861372
-0.000864756
-0.000868094
-0.000871387
-0.000874632
-0.00087783
-0.00088098
-0.00088408
-0.00088713
-0.000890128
-0.000893075
-0.000895969
-0.00089881
-0.000901596
-0.000904328
-0.000907004
-0.000909624
-0.000912187
-0.000914693
-0.000917141
-0.00091953
-0.00092186
-0.000924131
-0.000926341
-0.000928491
-0.00093058
-0.000932608
-0.000934574
-0.000936478
-0.000938319
-0.000940098
-0.000941814
-0.000943467
-0.000945056
-0.000946582
-0.000948044
-0.000949443
-0.000950777
-0.000952048
-0.000953254
-0.000954397
-0.000955475
-0.00095649
-0.00095744
-0.000958327
-0.00095915
-0.00095991
-0.000960607
-0.00096124
-0.00096181
-0.000962318
-0.000962763
-0.000963147
-0.000963468
-0.000963729
-0.000963928
-0.000964067
-0.000964146
-0.000964165
-0.000964125
-0.000964026
-0.000963869
-0.000963654
-0.000963382
-0.000963054
-0.00096267
-0.00096223
-0.000961736
-0.000961188
-0.000960587
-0.000959933
-0.000959227
-0.00095847
-0.000957663
-0.000956805
-0.000955899
-0.000954945
-0.000953944
-0.000952896
-0.000951803
-0.000950664
-0.000949482
-0.000948257
-0.000946989
-0.00094568
-0.00094433
-0.000942941
-0.000941514
-0.000940048
-0.000938546
-0.000937008
-0.000935434
-0.000933827
-0.000932187
-0.000930514
-0.00092881
-0.000927076
-0.000925313
-0.000923521
-0.000921702
-0.000919856
-0.000917985
-0.000916089
-0.00091417
-0.000912228
-0.000910264
-0.00090828
-0.000906275
-0.000904252
-0.000902211
-0.000900153
-0.000898079
-0.00089599
-0.000893886
-0.00089177
-0.00088964
-0.0008875
-0.000885348
-0.000883187
-0.000881017
-0.00087884
-0.000876655
-0.000874463
-0.000872267
-0.000870066
-0.000867861
-0.000865653
-0.000863443
-0.000861231
-0.000859019
-0.000856808
-0.000854597
-0.000852388
-0.000850182
-0.000847979
-0.00084578
-0.000843585
-0.000841396
-0.000839214
-0.000837037
-0.000834869
-0.000832708
-0.000830556
-0.000828413
-0.000826281
-0.000824159
-0.000822048
-0.000819949
-0.000817862
-0.000815788
-0.000813728
-0.000811682
-0.00080965
-0.000807633
-0.000805632
-0.000803647
-0.000801678
-0.000799726
-0.000797792
-0.000795875
-0.000793977
-0.000792098
-0.000790238
-0.000788397
-0.000786576
-0.000784775
-0.000782996
-0.000781237
-0.000779499
-0.000777784
-0.00077609
-0.000774419
-0.00077277
-0.000771145
-0.000769542
-0.000767963
-0.000766408
-0.000764877
-0.000763371
-0.000761888
-0.000760431
-0.000758999
-0.000757592
-0.00075621
-0.000754854
-0.000753524
-0.00075222
-0.000750943
-0.000749691
-0.000748466
-0.000747268
-0.000746097
-0.000744953
-0.000743836
-0.000742746
-0.000741684
-0.000740649
-0.000739642
-0.000738663
-0.000737711
-0.000736788
-0.000735893
-0.000735026
-0.000734187
-0.000733377
-0.000732595
-0.000731842
-0.000731118
-0.000730422
-0.000729755
-0.000729118
-0.000728509
-0.000727929
-0.000727379
-0.000726858
-0.000726366
-0.000725904
-0.000725472
-0.000725069
-0.000724696
-0.000724353
-0.00072404
-0.000723757
-0.000723505
-0.000723283
-0.000723092
-0.000722932
-0.000722803
-0.000722705
-0.000722641
-0.000722604
-0.000722613
-0.000722627
-0.000722733
-0.000722759
-0.000723042
-0.000722957
-0.000723631
-0.000723114
-0.000724711
-0.000722949
-0.000726785
-0.000721853
-0.000730626
-0.000719436
-0.000736065
-0.000717305
-0.00074126
-0.000716595
-0.000751791
-0.000699647
-0.000813918
-0.00059095
-0.00100589
-0.000616924
-0.000616924
-0.0941293
0.0941293
0.120812
0.0967586
0.0715628
0.0529426
0.0399407
0.0308646
0.0244192
0.0197326
0.0162436
0.0135937
0.0115511
0.00996093
0.00871122
0.00771301
0.00689485
0.00620528
0.00561195
0.0050943
0.00463631
0.00422584
0.00385794
0.00353426
0.00325516
0.00301069
0.0027794
0.00253781
0.00227354
0.00199188
0.00171075
0.0014481
0.00121116
0.000994955
0.000789822
0.000591361
0.000405361
0.000244923
0.00012243
4.18495e-05
-4.18714e-06
-3.1464e-05
-5.77291e-05
-9.63571e-05
-0.000152876
-0.000225054
-0.000305532
-0.000385298
-0.000456609
-0.000514652
-0.000557887
-0.000587447
-0.000606075
-0.000617056
-0.000623412
-0.00062747
-0.000630744
-0.000634045
-0.000637679
-0.000641656
-0.000645857
-0.000650135
-0.000654377
-0.000658512
-0.000662516
-0.000666393
-0.000670167
-0.000673866
-0.000677521
-0.000681156
-0.000684792
-0.000688442
-0.000692116
-0.00069582
-0.000699557
-0.000703328
-0.000707133
-0.00071097
-0.00071484
-0.000718741
-0.000722671
-0.000726629
-0.000730615
-0.000734626
-0.000738663
-0.000742722
-0.000746805
-0.000750909
-0.000755034
-0.000759178
-0.000763341
-0.000767522
-0.000771719
-0.000775931
-0.000780159
-0.000784399
-0.000788652
-0.000792917
-0.000797191
-0.000801475
-0.000805767
-0.000810065
-0.00081437
-0.000818679
-0.000822992
-0.000827307
-0.000831624
-0.00083594
-0.000840256
-0.000844569
-0.000848879
-0.000853184
-0.000857484
-0.000861776
-0.000866061
-0.000870336
-0.000874601
-0.000878853
-0.000883093
-0.000887319
-0.00089153
-0.000895724
-0.000899901
-0.000904058
-0.000908196
-0.000912312
-0.000916407
-0.000920477
-0.000924523
-0.000928543
-0.000932537
-0.000936502
-0.000940438
-0.000944343
-0.000948217
-0.000952059
-0.000955867
-0.00095964
-0.000963377
-0.000967078
-0.000970741
-0.000974364
-0.000977949
-0.000981492
-0.000984993
-0.000988452
-0.000991867
-0.000995237
-0.000998561
-0.00100184
-0.00100507
-0.00100825
-0.00101139
-0.00101447
-0.0010175
-0.00102049
-0.00102342
-0.00102629
-0.00102912
-0.00103189
-0.0010346
-0.00103726
-0.00103987
-0.00104241
-0.0010449
-0.00104734
-0.00104971
-0.00105203
-0.00105428
-0.00105648
-0.00105862
-0.0010607
-0.00106271
-0.00106467
-0.00106656
-0.0010684
-0.00107017
-0.00107188
-0.00107353
-0.00107511
-0.00107664
-0.0010781
-0.0010795
-0.00108083
-0.00108211
-0.00108332
-0.00108447
-0.00108556
-0.00108658
-0.00108754
-0.00108844
-0.00108928
-0.00109006
-0.00109078
-0.00109143
-0.00109202
-0.00109256
-0.00109303
-0.00109345
-0.0010938
-0.00109409
-0.00109433
-0.00109451
-0.00109463
-0.00109469
-0.0010947
-0.00109465
-0.00109454
-0.00109438
-0.00109417
-0.0010939
-0.00109358
-0.0010932
-0.00109278
-0.0010923
-0.00109177
-0.00109119
-0.00109057
-0.00108989
-0.00108917
-0.0010884
-0.00108758
-0.00108672
-0.00108581
-0.00108486
-0.00108387
-0.00108284
-0.00108176
-0.00108064
-0.00107949
-0.00107829
-0.00107706
-0.00107579
-0.00107449
-0.00107315
-0.00107178
-0.00107037
-0.00106893
-0.00106746
-0.00106596
-0.00106443
-0.00106287
-0.00106128
-0.00105967
-0.00105803
-0.00105636
-0.00105467
-0.00105296
-0.00105123
-0.00104947
-0.0010477
-0.0010459
-0.00104409
-0.00104226
-0.00104041
-0.00103855
-0.00103667
-0.00103478
-0.00103287
-0.00103095
-0.00102903
-0.00102709
-0.00102514
-0.00102318
-0.00102121
-0.00101924
-0.00101726
-0.00101527
-0.00101328
-0.00101129
-0.00100929
-0.00100729
-0.00100529
-0.00100329
-0.00100129
-0.000999283
-0.000997283
-0.000995284
-0.000993288
-0.000991295
-0.000989307
-0.000987323
-0.000985345
-0.000983373
-0.000981407
-0.000979449
-0.000977499
-0.000975557
-0.000973624
-0.000971701
-0.000969788
-0.000967886
-0.000965996
-0.000964117
-0.00096225
-0.000960396
-0.000958556
-0.00095673
-0.000954918
-0.00095312
-0.000951338
-0.000949571
-0.000947821
-0.000946087
-0.00094437
-0.00094267
-0.000940988
-0.000939324
-0.000937678
-0.000936051
-0.000934443
-0.000932855
-0.000931286
-0.000929737
-0.000928209
-0.000926701