# vtk DataFile Version 2.0
FlowField
ASCII
DATASET STRUCTURED_GRID
DIMENSIONS 400 1 50
POINTS 20000 float
0 0 0
0.08 0 0
0.16 0 0
0.24 0 0
0.32 0 0
0.4 0 0
0.48 0 0
0.56 0 0
0.64 0 0
0.72 0 0
0.8 0 0
0.88 0 0
0.96 0 0
1.04 0 0
1.12 0 0
1.2 0 0
1.28 0 0
1.36 0 0
1.44 0 0
1.52 0 0
1.6 0 0
1.68 0 0
1.76 0 0
1.84 0 0
1.92 0 0
2 0 0
2.08 0 0
2.16 0 0
2.24 0 0
2.32 0 0
2.4 0 0
2.48 0 0
2.56 0 0
2.64 0 0
2.72 0 0
2.8 0 0
2.88 0 0
2.96 0 0
3.04 0 0
3.12 0 0
3.2 0 0
3.28 0 0
3.36 0 0
3.44 0 0
3.52 0 0
3.6 0 0
3.68 0 0
3.76 0 0
3.84 0 0
3.92 0 0
4 0 0
4.08 0 0
4.16 0 0
4.24 0 0
4.32 0 0
4.4 0 0
4.48 0 0
4.56 0 0
4.64 0 0
4.72 0 0
4.8 0 0
4.88 0 0
4.96 0 0
5.04 0 0
5.12 0 0
5.2 0 0
5.28 0 0
5.36 0 0
5.44 0 0
5.52 0 0
5.6 0 0
5.68 0 0
5.76 0 0
5.84 0 0
5.92 0 0
6 0 0
6.08 0 0
6.16 0 0
6.24 0 0
6.32 0 0
6.4 0 0
6.48 0 0
6.56 0 0
6.64 0 0
6.72 0 0
6.8 0 0
6.88 0 0
6.96 0 0
7.04 0 0
7.12 0 0
7.2 0 0
7.28 0 0
7.36 0 0
7.44 0 0
7.52 0 0
7.6 0 0
7.68 0 0
7.76 0 0
7.84 0 0
7.92 0 0
8 0 0
8.08 0 0
8.16 0 0
8.24 0 0
8.32 0 0
8.4 0 0
8.48 0 0
8.56 0 0
8.64 0 0
8.72 0 0
8.8 0 0
8.88 0 0
8.96 0 0
9.04 0 0
9.12 0 0
9.2 0 0
9.28 0 0
9.36 0 0
9.44 0 0
9.52 0 0
9.6 0 0
9.68 0 0
9.76 0 0
9.84 0 0
9.92 0 0
10 0 0
10.08 0 0
10.16 0 0
10.24 0 0
10.32 0 0
10.4 0 0
10.48 0 0
10.56 0 0
10.64 0 0
10.72 0 0
10.8 0 0
10.88 0 0
10.96 0 0
11.04 0 0
11.12 0 0
11.2 0 0
11.28 0 0
11.36 0 0
11.44 0 0
11.52 0 0
11.6 0 0
11.68 0 0
11.76 0 0
11.84 0 0
11.92 0 0
12 0 0
12.08 0 0
12.16 0 0
12.24 0 0
12.32 0 0
12.4 0 0
12.48 0 0
12.56 0 0
12.64 0 0
12.72 0 0
12.8 0 0
12.88 0 0
12.96 0 0
13.04 0 0
13.12 0 0
13.2 0 0
13.28 0 0
13.36 0 0
13.44 0 0
13.52 0 0
13.6 0 0
13.68 0 0
13.76 0 0
13.84 0 0
13.92 0 0
14 0 0
14.08 0 0
14.16 0 0
14.24 0 0
14.32 0 0
14.4 0 0
14.48 0 0
14.56 0 0
14.64 0 0
14.72 0 0
14.8 0 0
14.88 0 0
14.96 0 0
15.04 0 0
15.12 0 0
15.2 0 0
15.28 0 0
15.36 0 0
15.44 0 0
15.52 0 0
15.6 0 0
15.68 0 0
15.76 0 0
15.84 0 0
15.92 0 0
16 0 0
16.08 0 0
16.16 0 0
16.24 0 0
16.32 0 0
16.4 0 0
16.48 0 0
16.56 0 0
16.64 0 0
16.72 0 0
16.8 0 0
16.88 0 0
16.96 0 0
17.04 0 0
17.12 0 0
17.2 0 0
17.28 0 0
17.36 0 0
17.44 0 0
17.52 0 0
17.6 0 0
17.68 0 0
17.76 0 0
17.84 0 0
17.92 0 0
18 0 0
18.08 0 0
18.16 0 0
18.24 0 0
18.32 0 0
18.4 0 0
18.48 0 0
18.56 0 0
18.64 0 0
18.72 0 0
18.8 0 0
18.88 0 0
18.96 0 0
19.04 0 0
19.12 0 0
19.2 0 0
19.28 0 0
19.36 0 0
19.44 0 0
19.52 0 0
19.6 0 0
19.68 0 0
19.76 0 0
19.84 0 0
19.92 0 0
20 0 0
20.08 0 0
20.16 0 0
20.24 0 0
20.32 0 0
20.4 0 0
20.48 0 0
20.56 0 0
20.64 0 0
20.72 0 0
20.8 0 0
20.88 0 0
20.96 0 0
21.04 0 0
21.12 0 0
21.2 0 0
21.28 0 0
21.36 0 0
21.44 0 0
21.52 0 0
21.6 0 0
21.68 0 0
21.76 0 0
21.84 0 0
21.92 0 0
22 0 0
22.08 0 0
22.16 0 0
22.24 0 0
22.32 0 0
22.4 0 0
22.48 0 0
22.56 0 0
22.64 0 0
22.72 0 0
22.8 0 0
22.88 0 0
22.96 0 0
23.04 0 0
23.12 0 0
23.2 0 0
23.28 0 0
23.36 0 0
23.44 0 0
23.52 0 0
23.6 0 0
23.68 0 0
23.76 0 0
23.84 0 0
23.92 0 0
24 0 0
24.08 0 0
24.16 0 0
24.24 0 0
24.32 0 0
24.4 0 0
24.48 0 0
24.56 0 0
24.64 0 0
24.72 0 0
24.8 0 0
24.88 0 0
24.96 0 0
25.04 0 0
25.12 0 0
25.2 0 0
25.28 0 0
25.36 0 0
25.44 0 0
25.52 0 0
25.6 0 0
25.68 0 0
25.76 0 0
25.84 0 0
25.92 0 0
26 0 0
26.08 0 0
26.16 0 0
26.24 0 0
26.32 0 0
26.4 0 0
26.48 0 0
26.56 0 0
26.64 0 0
26.72 0 0
26.8 0 0
26.88 0 0
26.96 0 0
27.04 0 0
27.12 0 0
27.2 0 0
27.28 0 0
27.36 0 0
27.44 0 0
27.52 0 0
27.6 0 0
27.68 0 0
27.76 0 0
27.84 0 0
27.92 0 0
28 0 0
28.08 0 0
28.16 0 0
28.24 0 0
28.32 0 0
28.4 0 0
28.48 0 0
28.56 0 0
28.64 0 0
28.72 0 0
28.8 0 0
28.88 0 0
28.96 0 0
29.04 0 0
29.12 0 0
29.2 0 0
29.28 0 0
29.36 0 0
29.44 0 0
29.52 0 0
29.6 0 0
29.68 0 0
29.76 0 0
29.84 0 0
29.92 0 0
30 0 0
30.08 0 0
30.16 0 0
30.24 0 0
30.32 0 0
30.4 0 0
30.48 0 0
30.56 0 0
30.64 0 0
30.72 0 0
30.8 0 0
30.88 0 0
30.96 0 0
31.04 0 0
31.12 0 0
31.2 0 0
31.28 0 0
31.36 0 0
31.44 0 0
31.52 0 0
31.6 0 0
31.68 0 0
31.76 0 0
31.84 0 0
31.92 0 0
0 0.02 0
0.08 0.02 0
0.16 0.02 0
0.24 0.02 0
0.32 0.02 0
0.4 0.02 0
0.48 0.02 0
0.56 0.02 0
0.64 0.02 0
0.72 0.02 0
0.8 0.02 0
0.88 0.02 0
0.96 0.02 0
1.04 0.02 0
1.12 0.02 0
1.2 0.02 0
1.28 0.02 0
1.36 0.02 0
1.44 0.02 0
1.52 0.02 0
1.6 0.02 0
1.68 0.02 0
1.76 0.02 0
1.84 0.02 0
1.92 0.02 0
2 0.02 0
2.08 0.02 0
2.16 0.02 0
2.24 0.02 0
2.32 0.02 0
2.4 0.02 0
2.48 0.02 0
2.56 0.02 0
2.64 0.02 0
2.72 0.02 0
2.8 0.02 0
2.88 0.02 0
2.96 0.02 0
3.04 0.02 0
3.12 0.02 0
3.2 0.02 0
3.28 0.02 0
3.36 0.02 0
3.44 0.02 0
3.52 0.02 0
3.6 0.02 0
3.68 0.02 0
3.76 0.02 0
3.84 0.02 0
3.92 0.02 0
4 0.02 0
4.08 0.02 0
4.16 0.02 0
4.24 0.02 0
4.32 0.02 0
4.4 0.02 0
4.48 0.02 0
4.56 0.02 0
4.64 0.02 0
4.72 0.02 0
4.8 0.02 0
4.88 0.02 0
4.96 0.02 0
5.04 0.02 0
5.12 0.02 0
5.2 0.02 0
5.28 0.02 0
5.36 0.02 0
5.44 0.02 0
5.52 0.02 0
5.6 0.02 0
5.68 0.02 0
5.76 0.02 0
5.84 0.02 0
5.92 0.02 0
6 0.02 0
6.08 0.02 0
6.16 0.02 0
6.24 0.02 0
6.32 0.02 0
6.4 0.02 0
6.48 0.02 0
6.56 0.02 0
6.64 0.02 0
6.72 0.02 0
6.8 0.02 0
6.88 0.02 0
6.96 0.02 0
7.04 0.02 0
7.12 0.02 0
7.2 0.02 0
7.28 0.02 0
7.36 0.02 0
7.44 0.02 0
7.52 0.02 0
7.6 0.02 0
7.68 0.02 0
7.76 0.02 0
7.84 0.02 0
7.92 0.02 0
8 0.02 0
8.08 0.02 0
8.16 0.02 0
8.24 0.02 0
8.32 0.02 0
8.4 0.02 0
8.48 0.02 0
8.56 0.02 0
8.64 0.02 0
8.72 0.02 0
8.8 0.02 0
8.88 0.02 0
8.96 0.02 0
9.04 0.02 0
9.12 0.02 0
9.2 0.02 0
9.28 0.02 0
9.36 0.02 0
9.44 0.02 0
9.52 0.02 0
9.6 0.02 0
9.68 0.02 0
9.76 0.02 0
9.84 0.02 0
9.92 0.02 0
10 0.02 0
10.08 0.02 0
10.16 0.02 0
10.24 0.02 0
10.32 0.02 0
10.4 0.02 0
10.48 0.02 0
10.56 0.02 0
10.64 0.02 0
10.72 0.02 0
10.8 0.02 0
10.88 0.02 0
10.96 0.02 0
11.04 0.02 0
11.12 0.02 0
11.2 0.02 0
11.28 0.02 0
11.36 0.02 0
11.44 0.02 0
11.52 0.02 0
11.6 0.02 0
11.68 0.02 0
11.76 0.02 0
11.84 0.02 0
11.92 0.02 0
12 0.02 0
12.08 0.02 0
12.16 0.02 0
12.24 0.02 0
12.32 0.02 0
12.4 0.02 0
12.48 0.02 0
12.56 0.02 0
12.64 0.02 0
12.72 0.02 0
12.8 0.02 0
12.88 0.02 0
12.96 0.02 0
13.04 0.02 0
13.12 0.02 0
13.2 0.02 0
13.28 0.02 0
13.36 0.02 0
13.44 0.02 0
13.52 0.02 0
13.6 0.02 0
13.68 0.02 0
13.76 0.02 0
13.84 0.02 0
13.92 0.02 0
14 0.02 0
14.08 0.02 0
14.16 0.02 0
14.24 0.02 0
14.32 0.02 0
14.4 0.02 0
14.48 0.02 0
14.56 0.02 0
14.64 0.02 0
14.72 0.02 0
14.8 0.02 0
14.88 0.02 0
14.96 0.02 0
15.04 0.02 0
15.12 0.02 0
15.2 0.02 0
15.28 0.02 0
15.36 0.02 0
15.44 0.02 0
15.52 0.02 0
15.6 0.02 0
15.68 0.02 0
15.76 0.02 0
15.84 0.02 0
15.92 0.02 0
16 0.02 0
16.08 0.02 0
16.16 0.02 0
16.24 0.02 0
16.32 0.02 0
16.4 0.02 0
16.48 0.02 0
16.56 0.02 0
16.64 0.02 0
16.72 0.02 0
16.8 0.02 0
16.88 0.02 0
16.96 0.02 0
17.04 0.02 0
17.12 0.02 0
17.2 0.02 0
17.28 0.02 0
17.36 0.02 0
17.44 0.02 0
17.52 0.02 0
17.6 0.02 0
17.68 0.02 0
17.76 0.02 0
17.84 0.02 0
17.92 0.02 0
18 0.02 0
18.08 0.02 0
18.16 0.02 0
18.24 0.02 0
18.32 0.02 0
18.4 0.02 0
18.48 0.02 0
18.56 0.02 0
18.64 0.02 0
18.72 0.02 0
18.8 0.02 0
18.88 0.02 0
18.96 0.02 0
19.04 0.02 0
19.12 0.02 0
19.2 0.02 0
19.28 0.02 0
19.36 0.02 0
19.44 0.02 0
19.52 0.02 0
19.6 0.02 0
19.68 0.02 0
19.76 0.02 0
19.84 0.02 0
19.92 0.02 0
20 0.02 0
20.08 0.02 0
20.16 0.02 0
20.24 0.02 0
20.32 0.02 0
20.4 0.02 0
20.48 0.02 0
20.56 0.02 0
20.64 0.02 0
20.72 0.02 0
20.8 0.02 0
20.88 0.02 0
20.96 0.02 0
21.04 0.02 0
21.12 0.02 0
21.2 0.02 0
21.28 0.02 0
21.36 0.02 0
21.44 0.02 0
21.52 0.02 0
21.6 0.02 0
21.68 0.02 0
21.76 0.02 0
21.84 0.02 0
21.92 0.02 0
22 0.02 0
22.08 0.02 0
22.16 0.02 0
22.24 0.02 0
22.32 0.02 0
22.4 0.02 0
22.48 0.02 0
22.56 0.02 0
22.64 0.02 0
22.72 0.02 0
22.8 0.02 0
22.88 0.02 0
22.96 0.02 0
23.04 0.02 0
23.12 0.02 0
23.2 0.02 0
23.28 0.02 0
23.36 0.02 0
23.44 0.02 0
23.52 0.02 0
23.6 0.02 0
23.68 0.02 0
23.76 0.02 0
23.84 0.02 0
23.92 0.02 0
24 0.02 0
24.08 0.02 0
24.16 0.02 0
24.24 0.02 0
24.32 0.02 0
24.4 0.02 0
24.48 0.02 0
24.56 0.02 0
24.64 0.02 0
24.72 0.02 0
24.8 0.02 0
24.88 0.02 0
24.96 0.02 0
25.04 0.02 0
25.12 0.02 0
25.2 0.02 0
25.28 0.02 0
25.36 0.02 0
25.44 0.02 0
25.52 0.02 0
25.6 0.02 0
25.68 0.02 0
25.76 0.02 0
25.84 0.02 0
25.92 0.02 0
26 0.02 0
26.08 0.02 0
26.16 0.02 0
26.24 0.02 0
26.32 0.02 0
26.4 0.02 0
26.48 0.02 0
26.56 0.02 0
26.64 0.02 0
26.72 0.02 0
26.8 0.02 0
26.88 0.02 0
26.96 0.02 0
27.04 0.02 0
27.12 0.02 0
27.2 0.02 0
27.28 0.02 0
27.36 0.02 0
27.44 0.02 0
27.52 0.02 0
27.6 0.02 0
27.68 0.02 0
27.76 0.02 0
27.84 0.02 0
27.92 0.02 0
28 0.02 0
28.08 0.02 0
28.16 0.02 0
28.24 0.02 0
28.32 0.02 0
28.4 0.02 0
28.48 0.02 0
28.56 0.02 0
28.64 0.02 0
28.72 0.02 0
28.8 0.02 0
28.88 0.02 0
28.96 0.02 0
29.04 0.02 0
29.12 0.02 0
29.2 0.02 0
29.28 0.02 0
29.36 0.02 0
29.44 0.02 0
29.52 0.02 0
29.6 0.02 0
29.68 0.02 0
29.76 0.02 0
29.84 0.02 0
29.92 0.02 0
30 0.02 0
30.08 0.02 0
30.16 0.02 0
30.24 0.02 0
30.32 0.02 0
30.4 0.02 0
30.48 0.02 0
30.56 0.02 0
30.64 0.02 0
30.72 0.02 0
30.8 0.02 0
30.88 0.02 0
30.96 0.02 0
31.04 0.02 0
31.12 0.02 0
31.2 0.02 0
31.28 0.02 0
31.36 0.02 0
31.44 0.02 0
31.52 0.02 0
31.6 0.02 0
31.68 0.02 0
31.76 0.02 0
31.84 0.02 0
31.92 0.02 0
0 0.04 0
0.08 0.04 0
0.16 0.04 0
0.24 0.04 0
0.32 0.04 0
0.4 0.04 0
0.48 0.04 0
0.56 0.04 0
0.64 0.04 0
0.72 0.04 0
0.8 0.04 0
0.88 0.04 0
0.96 0.04 0
1.04 0.04 0
1.12 0.04 0
1.2 0.04 0
1.28 0.04 0
1.36 0.04 0
1.44 0.04 0
1.52 0.04 0
1.6 0.04 0
1.68 0.04 0
1.76 0.04 0
1.84 0.04 0
1.92 0.04 0
2 0.04 0
2.08 0.04 0
2.16 0.04 0
2.24 0.04 0
2.32 0.04 0
2.4 0.04 0
2.48 0.04 0
2.56 0.04 0
2.64 0.04 0
2.72 0.04 0
2.8 0.04 0
2.88 0.04 0
2.96 0.04 0
3.04 0.04 0
3.12 0.04 0
3.2 0.04 0
3.28 0.04 0
3.36 0.04 0
3.44 0.04 0
3.52 0.04 0
3.6 0.04 0
3.68 0.04 0
3.76 0.04 0
3.84 0.04 0
3.92 0.04 0
4 0.04 0
4.08 0.04 0
4.16 0.04 0
4.24 0.04 0
4.32 0.04 0
4.4 0.04 0
4.48 0.04 0
4.56 0.04 0
4.64 0.04 0
4.72 0.04 0
4.8 0.04 0
4.88 0.04 0
4.96 0.04 0
5.04 0.04 0
5.12 0.04 0
5.2 0.04 0
5.28 0.04 0
5.36 0.04 0
5.44 0.04 0
5.52 0.04 0
5.6 0.04 0
5.68 0.04 0
5.76 0.04 0
5.84 0.04 0
5.92 0.04 0
6 0.04 0
6.08 0.04 0
6.16 0.04 0
6.24 0.04 0
6.32 0.04 0
6.4 0.04 0
6.48 0.04 0
6.56 0.04 0
6.64 0.04 0
6.72 0.04 0
6.8 0.04 0
6.88 0.04 0
6.96 0.04 0
7.04 0.04 0
7.12 0.04 0
7.2 0.04 0
7.28 0.04 0
7.36 0.04 0
7.44 0.04 0
7.52 0.04 0
7.6 0.04 0
7.68 0.04 0
7.76 0.04 0
7.84 0.04 0
[...]
POINT_DATA 20000

SCALARS u float 1
LOOKUP_TABLE default
0
-0.507068
-0.291886
-0.214119
-0.178977
-0.158609
-0.14505
-0.135293
-0.127895
-0.122063
-0.117321
-0.113365
-0.109998
-0.107081
-0.104519
-0.102242
-0.1002
-0.0983517
-0.0966689
-0.0951275
-0.0937087
-0.0923972
-0.0911801
-0.0900469
-0.0889886
-0.0879977
-0.0870674
-0.0861922
-0.0853669
-0.0845873
-0.0838495
-0.08315
-0.0824858
-0.0818542
-0.0812527
-0.0806792
-0.0801318
-0.0796086
-0.079108
-0.0786286
-0.0781689
-0.0777278
-0.0773041
-0.0768967
-0.0765048
-0.0761274
-0.0757639
-0.0754134
-0.0750752
-0.0747487
-0.0744333
-0.0741283
-0.0738333
-0.0735479
-0.0732716
-0.0730041
-0.0727449
-0.0724937
-0.0722501
-0.0720138
-0.0717844
-0.0715616
-0.0713452
-0.0711349
-0.0709306
-0.0707319
-0.0705388
-0.070351
-0.0701682
-0.0699901
-0.0698167
-0.0696476
-0.0694829
-0.0693224
-0.069166
-0.0690137
-0.0688654
-0.0687208
-0.0685797
-0.068442
-0.0683074
-0.068176
-0.0680477
-0.0679225
-0.0678004
-0.0676812
-0.0675649
-0.0674511
-0.0673399
-0.067231
-0.0671244
-0.06702
-0.0669179
-0.0668183
-0.0667211
-0.0666263
-0.0665337
-0.0664432
-0.0663545
-0.0662675
-0.0661821
-0.0660985
-0.0660169
-0.0659372
-0.0658596
-0.0657838
-0.0657097
-0.0656371
-0.0655658
-0.0654959
-0.0654273
-0.0653603
-0.065295
-0.0652317
-0.0651705
-0.0651113
-0.0650538
-0.0649978
-0.0649429
-0.0648891
-0.0648367
-0.0647862
-0.0647378
-0.0646918
-0.0646481
-0.064606
-0.0645652
-0.0645252
-0.0644862
-0.0644485
-0.0644127
-0.0643793
-0.0643484
-0.0643195
-0.0642922
-0.064266
-0.0642407
-0.0642164
-0.0641933
-0.0641721
-0.0641528
-0.0641355
-0.0641198
-0.0641054
-0.0640919
-0.0640791
-0.0640672
-0.0640562
-0.0640466
-0.0640383
-0.0640314
-0.0640257
-0.064021
-0.064017
-0.0640136
-0.0640109
-0.0640089
-0.0640076
-0.0640072
-0.0640075
-0.0640085
-0.0640101
-0.064012
-0.0640143
-0.0640169
-0.0640199
-0.0640233
-0.0640271
-0.0640314
-0.064036
-0.064041
-0.0640462
-0.0640516
-0.0640572
-0.0640628
-0.0640684
-0.0640741
-0.0640799
-0.0640858
-0.0640917
-0.0640977
-0.0641038
-0.0641099
-0.0641161
-0.0641222
-0.0641284
-0.0641345
-0.0641407
-0.0641469
-0.064153
-0.0641592
-0.0641654
-0.0641716
-0.0641778
-0.064184
-0.0641903
-0.0641965
-0.0642028
-0.064209
-0.0642153
-0.0642215
-0.0642278
-0.0642341
-0.0642404
-0.0642467
-0.064253
-0.0642593
-0.0642656
-0.0642719
-0.0642783
-0.0642846
-0.064291
-0.0642973
-0.0643037
-0.0643101
-0.0643165
-0.0643229
-0.0643293
-0.0643357
-0.0643421
-0.0643485
-0.064355
-0.0643614
-0.0643678
-0.0643743
-0.0643808
-0.0643873
-0.0643937
-0.0644002
-0.0644067
-0.0644133
-0.0644198
-0.0644263
-0.0644329
-0.0644394
-0.064446
-0.0644525
-0.0644591
-0.0644657
-0.0644723
-0.0644789
-0.0644855
-0.0644921
-0.0644987
-0.0645054
-0.064512
-0.0645187
-0.0645253
-0.064532
-0.0645387
-0.0645454
-0.0645521
-0.0645588
-0.0645655
-0.0645722
-0.064579
-0.0645857
-0.0645925
-0.0645992
-0.064606
-0.0646128
-0.0646196
-0.0646264
-0.0646332
-0.06464
-0.0646469
-0.0646537
-0.0646605
-0.0646674
-0.0646743
-0.0646811
-0.064688
-0.0646949
-0.0647018
-0.0647087
-0.0647157
-0.0647226
-0.0647295
-0.0647365
-0.0647434
-0.0647504
-0.0647574
-0.0647644
-0.0647713
-0.0647783
-0.0647854
-0.0647924
-0.0647994
-0.0648064
-0.0648135
-0.0648206
-0.0648276
-0.0648347
-0.0648418
-0.0648489
-0.064856
-0.0648631
-0.0648702
-0.0648773
-0.0648845
-0.0648916
-0.0648988
-0.0649059
-0.0649131
-0.0649203
-0.0649275
-0.0649346
-0.0649419
-0.0649491
-0.0649563
-0.0649635
-0.0649708
-0.064978
-0.0649853
-0.0649925
-0.0649998
-0.0650071
-0.0650144
-0.0650216
-0.0650289
-0.0650363
-0.0650436
-0.0650509
-0.0650582
-0.0650656
-0.0650729
-0.0650803
-0.0650877
-0.065095
-0.0651024
-0.0651098
-0.0651172
-0.0651246
-0.065132
-0.0651394
-0.0651468
-0.0651543
-0.0651617
-0.0651691
-0.0651766
-0.0651841
-0.0651915
-0.065199
-0.0652065
-0.065214
-0.0652215
-0.0652289
-0.0652365
-0.065244
-0.0652515
-0.065259
-0.0652665
-0.0652741
-0.0652816
-0.0652892
-0.0652967
-0.0653043
-0.0653118
-0.0653194
-0.065327
-0.0653346
-0.0653422
-0.0653497
-0.0653574
-0.065365
-0.0653726
-0.0653802
-0.0653878
-0.0653954
-0.0654031
-0.0654107
-0.0654184
-0.065426
-0.0654337
-0.0654413
-0.0654491
-0.0654567
-0.0654645
-0.065472
-0.0654799
-0.0654875
-0.0654954
-0.0655029
-0.0655109
-0.0655184
-0.0655265
-0.065534
-0.0655422
-0.0655496
-0.065558
-0.0655653
-0.0655738
-0.0655809
-0.0655895
-0.0655965
-0.0656042
-0.0656113
-0.0656103
-0.0656103
-0.0656103
1
0.507068
0.291886
0.214119
0.178977
0.158609
0.14505
0.135293
0.127895
0.122063
0.117321
0.113365
0.109998
0.107081
0.104519
0.102242
0.1002
0.0983517
0.0966689
0.0951275
0.0937087
0.0923972
0.0911801
0.0900469
0.0889886
0.0879977
0.0870674
0.0861922
0.0853669
0.0845873
0.0838495
0.08315
0.0824858
0.0818542
0.0812527
0.0806792
0.0801318
0.0796086
0.079108
0.0786286
0.0781689
0.0777278
0.0773041
0.0768967
0.0765048
0.0761274
0.0757639
0.0754134
0.0750752
0.0747487
0.0744333
0.0741283
0.0738333
0.0735479
0.0732716
0.0730041
0.0727449
0.0724937
0.0722501
0.0720138
0.0717844
0.0715616
0.0713452
0.0711349
0.0709306
0.0707319
0.0705388
0.070351
0.0701682
0.0699901
0.0698167
0.0696476
0.0694829
0.0693224
0.069166
0.0690137
0.0688654
0.0687208
0.0685797
0.068442
0.0683074
0.068176
0.0680477
0.0679225
0.0678004
0.0676812
0.0675649
0.0674511
0.0673399
0.067231
0.0671244
0.06702
0.0669179
0.0668183
0.0667211
0.0666263
0.0665337
0.0664432
0.0663545
0.0662675
0.0661821
0.0660985
0.0660169
0.0659372
0.0658596
0.0657838
0.0657097
0.0656371
0.0655658
0.0654959
0.0654273
0.0653603
0.065295
0.0652317
0.0651705
0.0651113
0.0650538
0.0649978
0.0649429
0.0648891
0.0648367
0.0647862
0.0647378
0.0646918
0.0646481
0.064606
0.0645652
0.0645252
0.0644862
0.0644485
0.0644127
0.0643793
0.0643484
0.0643195
0.0642922
0.064266
0.0642407
0.0642164
0.0641933
0.0641721
0.0641528
0.0641355
0.0641198
0.0641054
0.0640919
0.0640791
0.0640672
0.0640562
0.0640466
0.0640383
0.0640314
0.0640257
0.064021
0.064017
0.0640136
0.0640109
0.0640089
0.0640076
0.0640072
0.0640075
0.0640085
0.0640101
0.064012
0.0640143
0.0640169
0.0640199
0.0640233
0.0640271
0.0640314
0.064036
0.064041
0.0640462
0.0640516
0.0640572
0.0640628
0.0640684
0.0640741
0.0640799
0.0640858
0.0640917
0.0640977
0.0641038
0.0641099
0.0641161
0.0641222
0.0641284
0.0641345
0.0641407
0.0641469
0.064153
0.0641592
0.0641654
0.0641716
0.0641778
0.064184
0.0641903
0.0641965
0.0642028
0.064209
0.0642153
0.0642215
0.0642278
0.0642341
0.0642404
0.0642467
0.064253
0.0642593
0.0642656
0.0642719
0.0642783
0.0642846
0.064291
0.0642973
0.0643037
0.0643101
0.0643165
0.0643229
0.0643293
0.0643357
0.0643421
0.0643485
0.064355
0.0643614
0.0643678
0.0643743
0.0643808
0.0643873
0.0643937
0.0644002
0.0644067
0.0644133
0.0644198
0.0644263
0.0644329
0.0644394
0.064446
0.0644525
0.0644591
0.0644657
0.0644723
0.0644789
0.0644855
0.0644921
0.0644987
0.0645054
0.064512
0.0645187
0.0645253
0.064532
0.0645387
0.0645454
0.0645521
0.0645588
0.0645655
0.0645722
0.064579
0.0645857
0.0645925
0.0645992
0.064606
0.0646128
0.0646196
0.0646264
0.0646332
0.06464
0.0646469
0.0646537
0.0646605
0.0646674
0.0646743
0.0646811
0.064688
0.0646949
0.0647018
0.0647087
0.0647157
0.0647226
0.0647295
0.0647365
0.0647434
0.0647504
0.0647574
0.0647644
0.0647713
0.0647783
0.0647854
0.0647924
0.0647994
0.0648064
0.0648135
0.0648206
0.0648276
0.0648347
0.0648418
0.0648489
0.064856
0.0648631
0.0648702
0.0648773
0.0648845
0.0648916
0.0648988
0.0649059
0.0649131
0.0649203
0.0649275
0.0649346
0.0649419
0.0649491
0.0649563
0.0649635
0.0649708
0.064978
0.0649853
0.0649925
0.0649998
0.0650071
0.0650144
0.0650216
0.0650289
0.0650363
0.0650436
0.0650509
0.0650582
0.0650656
0.0650729
0.0650803
0.0650877
0.065095
0.0651024
0.0651098
0.0651172
0.0651246
0.065132
0.0651394
0.0651468
0.0651543
0.0651617
0.0651691
0.0651766
0.0651841
0.0651915
0.065199
0.0652065
0.065214
0.0652215
0.0652289
0.0652365
0.065244
0.0652515
0.065259
0.0652665
0.0652741
0.0652816
0.0652892
0.0652967
0.0653043
0.0653118
0.0653194
0.065327
0.0653346
0.0653422
0.0653497
0.0653574
0.065365
0.0653726
0.0653802
0.0653878
0.0653954
0.0654031
0.0654107
0.0654184
0.065426
0.0654337
0.0654413
0.0654491
0.0654567
0.0654645
0.065472
0.0654799
0.0654875
0.0654954
0.0655029
0.0655109
0.0655184
0.0655265
0.065534
0.0655422
0.0655496
0.065558
0.0655653
0.0655738
0.0655809
0.0655895
0.0655965
0.0656042
0.0656113
0.0656103
0.0656103
0.0656103
1
0.924259
0.735386
0.597468
0.511556
0.456223
0.418046
0.390127
0.368781
0.351882
0.338121
0.326649
0.316897
0.308468
0.301082
0.294534
0.288672
0.283381
0.278571
0.274173
0.270131
0.266398
0.262938
0.25972
0.256717
0.253907
0.25127
0.248791
0.246455
0.244249
0.242162
0.240184
0.238307
0.236522
0.234823
0.233204
0.231658
0.230181
0.228769
0.227416
0.22612
0.224876
0.223681
0.222533
0.221428
0.220365
0.219341
0.218354
0.217401
0.216482
0.215594
0.214735
0.213905
0.213102
0.212325
0.211573
0.210844
0.210138
0.209453
0.208789
0.208144
0.207518
0.20691
0.206319
0.205745
0.205187
0.204645
0.204117
0.203604
0.203104
0.202617
0.202143
0.201681
0.201231
0.200793
0.200366
0.19995
0.199544
0.199148
0.198762
0.198385
0.198016
0.197657
0.197306
0.196964
0.19663
0.196303
0.195984
0.195672
0.195367
0.195068
0.194776
0.194491
0.194212
0.19394
0.193675
0.193415
0.193161
0.192912
0.192668
0.19243
0.192196
0.191968
0.191746
0.191528
0.191316
0.191109
0.190906
0.190706
0.190512
0.190321
0.190136
0.189955
0.189781
0.189611
0.189447
0.189288
0.189133
0.188981
0.188834
0.188691
0.188554
0.188423
0.188298
0.188178
0.188063
0.187952
0.187843
0.187739
0.187639
0.187544
0.187456
0.187374
0.187297
0.187224
0.187154
0.187087
0.187023
0.186964
0.18691
0.18686
0.186816
0.186775
0.186738
0.186703
0.18667
0.186641
0.186614
0.186591
0.186572
0.186555
0.186542
0.186531
0.186522
0.186515
0.18651
0.186506
0.186505
0.186506
0.186508
0.186512
0.186518
0.186525
0.186532
0.186541
0.18655
0.186561
0.186573
0.186585
0.186599
0.186613
0.186628
0.186643
0.186659
0.186674
0.18669
0.186706
0.186722
0.186739
0.186755
0.186772
0.186789
0.186806
0.186823
0.18684
0.186857
0.186874
0.186891
0.186908
0.186925
0.186942
0.18696
0.186977
0.186994
0.187011
0.187029
0.187046
0.187064
0.187081
0.187098
0.187116
0.187133
0.187151
0.187168
0.187186
0.187204
0.187221
0.187239
0.187257
0.187274
0.187292
0.18731
0.187328
0.187346
0.187363
0.187381
0.187399
0.187417
0.187435
0.187453
0.187471
0.187489
0.187507
0.187526
0.187544
0.187562
0.18758
0.187598
0.187617
0.187635
0.187653
0.187672
0.18769
0.187708
0.187727
0.187745
0.187764
0.187782
0.187801
0.187819
0.187838
0.187857
0.187875
0.187894
0.187913
0.187931
0.18795
0.187969
0.187988
0.188007
0.188026
0.188044
0.188063
0.188082
0.188101
0.18812
0.188139
0.188158
0.188178
0.188197
0.188216
0.188235
0.188254
0.188273
0.188293
0.188312
0.188331
0.188351
0.18837
0.188389
0.188409
0.188428
0.188448
0.188467
0.188487
0.188506
0.188526
0.188546
0.188565
0.188585
0.188605
0.188624
0.188644
0.188664
0.188683
0.188703
0.188723
0.188743
0.188763
0.188783
0.188803
0.188823
0.188843
0.188863
0.188883
0.188903
0.188923
0.188943
0.188963
0.188983
0.189003
0.189023
0.189044
0.189064
0.189084
0.189104
0.189125
0.189145
0.189165
0.189186
0.189206
0.189227
0.189247
0.189267
0.189288
0.189308
0.189329
0.189349
0.18937
0.18939
0.189411
0.189432
0.189452
0.189473
0.189494
0.189514
0.189535
0.189556
0.189576
0.189597
0.189618
0.189639
0.18966
0.18968
0.189701
0.189722
0.189743
0.189764
0.189785
0.189806
0.189827
0.189848
0.189869
0.18989
0.189911
0.189932
0.189953
0.189974
0.189995
0.190016
0.190037
0.190058
0.190079
0.190101
0.190122
0.190143
0.190164
0.190185
0.190206
0.190228
0.190249
0.19027
0.190291
0.190313
0.190334
0.190355
0.190377
0.190398
0.190419
0.190441
0.190462
0.190483
0.190505
0.190526
0.190547
0.190569
0.19059
0.190612
0.190633
0.190655
0.190676
0.190698
0.190719
0.190742
0.190763
0.190785
0.190806
0.190829
0.19085
0.190873
0.190893
0.190917
0.190937
0.19096
0.19098
0.191002
0.191022
0.191029
0.191029
0.191029
1
1.07966
0.997
0.883553
0.788573
0.716765
0.662878
0.62164
0.589275
0.56324
0.541827
0.523866
0.50854
0.495266
0.483621
0.473293
0.464047
0.455702
0.448118
0.441185
0.434814
0.428933
0.423483
0.418414
0.413685
0.40926
0.40511
0.401207
0.397529
0.394057
0.390772
0.387659
0.384704
0.381896
0.379223
0.376675
0.374243
0.37192
0.369698
0.36757
0.365531
0.363574
0.361695
0.359889
0.358152
0.356481
0.35487
0.353318
0.351821
0.350375
0.34898
0.347631
0.346327
0.345065
0.343845
0.342663
0.341518
0.340409
0.339333
0.33829
0.337278
0.336295
0.33534
0.334413
0.333513
0.332637
0.331786
0.330959
0.330153
0.329369
0.328606
0.327862
0.327138
0.326433
0.325746
0.325077
0.324425
0.323789
0.323169
0.322563
0.321972
0.321395
0.320832
0.320283
0.319747
0.319224
0.318712
0.318213
0.317724
0.317246
0.316779
0.316322
0.315876
0.31544
0.315014
0.314599
0.314192
0.313795
0.313405
0.313024
0.31265
0.312286
0.311929
0.311582
0.311242
0.31091
0.310586
0.310268
0.309958
0.309654
0.309358
0.30907
0.30879
0.308518
0.308255
0.308
0.307753
0.307512
0.307278
0.30705
0.306831
0.30662
0.306418
0.306226
0.306041
0.305863
0.305692
0.305526
0.305367
0.305215
0.305073
0.304939
0.304814
0.304696
0.304584
0.304478
0.304377
0.304282
0.304194
0.304113
0.30404
0.303973
0.303912
0.303856
0.303804
0.303757
0.303714
0.303675
0.303642
0.303615
0.303592
0.303573
0.303557
0.303545
0.303535
0.303529
0.303525
0.303525
0.303527
0.303532
0.30354
0.303549
0.30356
0.303573
0.303587
0.303602
0.303619
0.303638
0.303658
0.303679
0.303702
0.303724
0.303748
0.303772
0.303796
0.30382
0.303844
0.303869
0.303894
0.30392
0.303945
0.303971
0.303997
0.304023
0.304049
0.304075
0.304101
0.304127
0.304153
0.304179
0.304205
0.304232
0.304258
0.304284
0.304311
0.304337
0.304364
0.30439
0.304417
0.304443
0.30447
0.304497
0.304523
0.30455
0.304577
0.304604
0.304631
0.304658
0.304685
0.304712
0.304739
0.304766
0.304793
0.30482
0.304848
0.304875
0.304902
0.30493
0.304957
0.304984
0.305012
0.30504
0.305067
0.305095
0.305122
0.30515
0.305178
0.305206
0.305234
0.305262
0.305289
0.305317
0.305345
0.305374
0.305402
0.30543
0.305458
0.305486
0.305514
0.305543
0.305571
0.3056
0.305628
0.305656
0.305685
0.305714
0.305742
0.305771
0.305799
0.305828
0.305857
0.305886
0.305915
0.305944
0.305972
0.306001
0.30603
0.306059
0.306089
0.306118
0.306147
0.306176
0.306205
0.306235
0.306264
0.306293
0.306323
0.306352
0.306382
0.306411
0.306441
0.30647
0.3065
0.30653
0.306559
0.306589
0.306619
0.306649
0.306678
0.306708
0.306738
0.306768
0.306798
0.306828
0.306858
0.306888
0.306918
0.306949
0.306979
0.307009
0.307039
0.30707
0.3071
0.30713
0.307161
0.307191
0.307222
0.307252
0.307283
0.307313
0.307344
0.307374
0.307405
0.307436
0.307466
0.307497
0.307528
0.307559
0.30759
0.307621
0.307651
0.307682
0.307713
0.307744
0.307775
0.307806
0.307837
0.307869
0.3079
0.307931
0.307962
0.307993
0.308024
0.308056
0.308087
0.308118
0.30815
0.308181
0.308212
0.308244
0.308275
0.308307
0.308338
0.30837
0.308401
0.308433
0.308464
0.308496
0.308528
0.308559
0.308591
0.308623
0.308654
0.308686
0.308718
0.308749
0.308781
0.308813
0.308845
0.308877
0.308909
0.30894
0.308972
0.309004
0.309036
0.309068
0.3091
0.309132
0.309164
0.309196
0.309228
0.30926
0.309292
0.309324
0.309356
0.309388
0.309421
0.309453
0.309485
0.309517
0.309549
0.309582
0.309614
0.309646
0.309678
0.309711
0.309743
0.309775
0.309807
0.30984
0.309872
0.309905
0.309937
0.30997
0.310002
0.310035
0.310067
0.310101
0.310133
0.310167
0.310198
0.310233
0.310264
0.310299
0.310329
0.310363
0.310392
0.310413
0.310413
0.310413
1
1.11175
1.11431
1.05547
0.984246
0.91888
0.863619
0.818008
0.780409
0.749159
0.722875
0.70048
0.681159
0.664291
0.649408
0.636151
0.624245
0.613473
0.603664
0.594684
0.586421
0.578785
0.571702
0.565108
0.558952
0.553188
0.547778
0.542688
0.537889
0.533356
0.529065
0.524998
0.521137
0.517465
0.513969
0.510636
0.507455
0.504415
0.501506
0.49872
0.49605
0.493487
0.491026
0.488661
0.486385
0.484195
0.482085
0.480051
0.478089
0.476195
0.474366
0.472598
0.470889
0.469236
0.467637
0.466088
0.464588
0.463135
0.461726
0.460359
0.459032
0.457744
0.456494
0.45528
0.4541
0.452953
0.451838
0.450754
0.449699
0.448672
0.447673
0.4467
0.445752
0.444829
0.44393
0.443055
0.442201
0.441369
0.440558
0.439766
0.438993
0.438238
0.437502
0.436784
0.436083
0.435398
0.434729
0.434076
0.433437
0.432812
0.432202
0.431605
0.431022
0.430452
0.429896
0.429353
0.428822
0.428302
0.427793
0.427295
0.426808
0.426331
0.425866
0.425412
0.424968
0.424535
0.424111
0.423697
0.423292
0.422897
0.422512
0.422137
0.421773
0.421419
0.421077
0.420745
0.420423
0.42011
0.419807
0.419512
0.419228
0.418956
0.418695
0.418445
0.418206
0.417976
0.417754
0.417541
0.417337
0.417142
0.416959
0.416788
0.416627
0.416475
0.416332
0.416196
0.416067
0.415946
0.415834
0.415731
0.415638
0.415552
0.415475
0.415403
0.415337
0.415277
0.415223
0.415176
0.415134
0.4151
0.415071
0.415047
0.415028
0.415013
0.415001
0.414994
0.41499
0.41499
0.414993
0.415
0.41501
0.415022
0.415036
0.415052
0.415071
0.415091
0.415113
0.415137
0.415163
0.41519
0.415218
0.415247
0.415277
0.415307
0.415337
0.415368
0.415398
0.41543
0.415461
0.415493
0.415526
0.415558
0.41559
0.415623
0.415655
0.415688
0.415721
0.415753
0.415786
0.415819
0.415852
0.415885
0.415918
0.415951
0.415984
0.416017
0.41605
0.416084
0.416117
0.41615
0.416184
0.416217
0.416251
0.416284
0.416318
0.416352
0.416385
0.416419
0.416453
0.416487
0.416521
0.416555
0.416589
0.416623
0.416657
0.416691
0.416725
0.41676
0.416794
0.416828
0.416863
0.416897
0.416932
0.416966
0.417001
0.417036
0.41707
0.417105
0.41714
0.417175
0.41721
0.417245
0.41728
0.417315
0.41735
0.417385
0.417421
0.417456
0.417491
0.417527
0.417562
0.417598
0.417633
0.417669
0.417704
0.41774
0.417776
0.417811
0.417847
0.417883
0.417919
0.417955
0.417991
0.418027
0.418063
0.418099
0.418135
0.418172
0.418208
0.418244
0.418281
0.418317
0.418353
0.41839
0.418427
0.418463
0.4185
0.418536
0.418573
0.41861
0.418647
0.418684
0.41872
0.418757
0.418794
0.418831
0.418869
0.418906
0.418943
0.41898
0.419017
0.419054
0.419092
0.419129
0.419167
0.419204
0.419241
0.419279
0.419317
0.419354
0.419392
0.419429
0.419467
0.419505
0.419543
0.419581
0.419618
0.419656
0.419694
0.419732
0.41977
0.419808
0.419846
0.419884
0.419923
0.419961
0.419999
0.420037
0.420075
0.420114
0.420152
0.420191
0.420229
0.420267
0.420306
0.420344
0.420383
0.420422
0.42046
0.420499
0.420537
0.420576
0.420615
0.420654
0.420692
0.420731
0.42077
0.420809
0.420848
0.420887
0.420926
0.420965
0.421004
0.421043
0.421082
0.421121
0.42116
0.421199
0.421238
0.421277
0.421316
0.421356
0.421395
0.421434
0.421473
0.421513
0.421552
0.421591
0.421631
0.42167
0.42171
0.421749
0.421788
0.421828
0.421867
0.421907
0.421946
0.421986
0.422025
0.422065
0.422105
0.422144
0.422184
0.422223
0.422263
0.422303
0.422342
0.422382
0.422422
0.422462
0.422501
0.422541
0.422581
0.422621
0.42266
0.422701
0.42274
0.42278
0.42282
0.42286
0.4229
0.42294
0.42298
0.423021
0.42306
0.423101
0.42314
0.423182
0.423221
0.423264
0.423302
0.423346
0.423383
0.423427
0.423464
0.423507
0.423541
0.423577
0.423577
0.423577
1
1.09589
1.1436
1.13393
1.09758
1.05319
1.00924
0.969012
0.93339
0.902237
0.875049
0.851246
0.830284
0.811699
0.795102
0.78018
0.766677
0.754387
0.74314
0.7328
0.723253
0.714403
0.706172
0.698492
0.691307
0.684568
0.678231
0.67226
0.666623
0.661292
0.65624
0.651447
0.646891
0.642555
0.638424
0.634483
0.630718
0.627118
0.623672
0.62037
0.617203
0.614162
0.611241
0.608432
0.605729
0.603126
0.600618
0.598199
0.595865
0.593612
0.591436
0.589333
0.587299
0.585331
0.583427
0.581583
0.579797
0.578066
0.576388
0.574759
0.573179
0.571645
0.570156
0.568709
0.567303
0.565937
0.564609
0.563317
0.56206
0.560837
0.559646
0.558487
0.557358
0.556259
0.555189
0.554146
0.55313
0.552139
0.551173
0.55023
0.549309
0.548411
0.547535
0.54668
0.545845
0.54503
0.544234
0.543456
0.542695
0.541952
0.541226
0.540516
0.539822
0.539145
0.538484
0.537837
0.537205
0.536587
0.535982
0.535389
0.534809
0.534243
0.53369
0.53315
0.532622
0.532106
0.531603
0.53111
0.530629
0.53016
0.529702
0.529257
0.528825
0.528406
0.527999
0.527605
0.527223
0.526852
0.526492
0.526143
0.525807