# vtk DataFile Version 2.0
FlowField
ASCII
DATASET STRUCTURED_GRID
DIMENSIONS 400 1 50
POINTS 20000 float
0 0 0
0.08 0 0
0.16 0 0
0.24 0 0
0.32 0 0
0.4 0 0
0.48 0 0
0.56 0 0
0.64 0 0
0.72 0 0
0.8 0 0
0.88 0 0
0.96 0 0
1.04 0 0
1.12 0 0
1.2 0 0
1.28 0 0
1.36 0 0
1.44 0 0
1.52 0 0
1.6 0 0
1.68 0 0
1.76 0 0
1.84 0 0
1.92 0 0
2 0 0
2.08 0 0
2.16 0 0
2.24 0 0
2.32 0 0
2.4 0 0
2.48 0 0
2.56 0 0
2.64 0 0
2.72 0 0
2.8 0 0
2.88 0 0
2.96 0 0
3.04 0 0
3.12 0 0
3.2 0 0
3.28 0 0
3.36 0 0
3.44 0 0
3.52 0 0
3.6 0 0
3.68 0 0
3.76 0 0
3.84 0 0
3.92 0 0
4 0 0
4.08 0 0
4.16 0 0
4.24 0 0
4.32 0 0
4.4 0 0
4.48 0 0
4.56 0 0
4.64 0 0
4.72 0 0
4.8 0 0
4.88 0 0
4.96 0 0
5.04 0 0
5.12 0 0
5.2 0 0
5.28 0 0
5.36 0 0
5.44 0 0
5.52 0 0
5.6 0 0
5.68 0 0
5.76 0 0
5.84 0 0
5.92 0 0
6 0 0
6.08 0 0
6.16 0 0
6.24 0 0
6.32 0 0
6.4 0 0
6.48 0 0
6.56 0 0
6.64 0 0
6.72 0 0
6.8 0 0
6.88 0 0
6.96 0 0
7.04 0 0
7.12 0 0
7.2 0 0
7.28 0 0
7.36 0 0
7.44 0 0
7.52 0 0
7.6 0 0
7.68 0 0
7.76 0 0
7.84 0 0
7.92 0 0
8 0 0
8.08 0 0
8.16 0 0
8.24 0 0
8.32 0 0
8.4 0 0
8.48 0 0
8.56 0 0
8.64 0 0
8.72 0 0
8.8 0 0
8.88 0 0
8.96 0 0
9.04 0 0
9.12 0 0
9.2 0 0
9.28 0 0
9.36 0 0
9.44 0 0
9.52 0 0
9.6 0 0
9.68 0 0
9.76 0 0
9.84 0 0
9.92 0 0
10 0 0
10.08 0 0
10.16 0 0
10.24 0 0
10.32 0 0
10.4 0 0
10.48 0 0
10.56 0 0
10.64 0 0
10.72 0 0
10.8 0 0
10.88 0 0
10.96 0 0
11.04 0 0
11.12 0 0
11.2 0 0
11.28 0 0
11.36 0 0
11.44 0 0
11.52 0 0
11.6 0 0
11.68 0 0
11.76 0 0
11.84 0 0
11.92 0 0
12 0 0
12.08 0 0
12.16 0 0
12.24 0 0
12.32 0 0
12.4 0 0
12.48 0 0
12.56 0 0
12.64 0 0
12.72 0 0
12.8 0 0
12.88 0 0
12.96 0 0
13.04 0 0
13.12 0 0
13.2 0 0
13.28 0 0
13.36 0 0
13.44 0 0
13.52 0 0
13.6 0 0
13.68 0 0
13.76 0 0
13.84 0 0
13.92 0 0
14 0 0
14.08 0 0
14.16 0 0
14.24 0 0
14.32 0 0
14.4 0 0
14.48 0 0
14.56 0 0
14.64 0 0
14.72 0 0
14.8 0 0
14.88 0 0
14.96 0 0
15.04 0 0
15.12 0 0
15.2 0 0
15.28 0 0
15.36 0 0
15.44 0 0
15.52 0 0
15.6 0 0
15.68 0 0
15.76 0 0
15.84 0 0
15.92 0 0
16 0 0
16.08 0 0
16.16 0 0
16.24 0 0
16.32 0 0
16.4 0 0
16.48 0 0
16.56 0 0
16.64 0 0
16.72 0 0
16.8 0 0
16.88 0 0
16.96 0 0
17.04 0 0
17.12 0 0
17.2 0 0
17.28 0 0
17.36 0 0
17.44 0 0
17.52 0 0
17.6 0 0
17.68 0 0
17.76 0 0
17.84 0 0
17.92 0 0
18 0 0
18.08 0 0
18.16 0 0
18.24 0 0
18.32 0 0
18.4 0 0
18.48 0 0
18.56 0 0
18.64 0 0
18.72 0 0
18.8 0 0
18.88 0 0
18.96 0 0
19.04 0 0
19.12 0 0
19.2 0 0
19.28 0 0
19.36 0 0
19.44 0 0
19.52 0 0
19.6 0 0
19.68 0 0
19.76 0 0
19.84 0 0
19.92 0 0
20 0 0
20.08 0 0
20.16 0 0
20.24 0 0
20.32 0 0
20.4 0 0
20.48 0 0
20.56 0 0
20.64 0 0
20.72 0 0
20.8 0 0
20.88 0 0
20.96 0 0
21.04 0 0
21.12 0 0
21.2 0 0
21.28 0 0
21.36 0 0
21.44 0 0
21.52 0 0
21.6 0 0
21.68 0 0
21.76 0 0
21.84 0 0
21.92 0 0
22 0 0
22.08 0 0
22.16 0 0
22.24 0 0
22.32 0 0
22.4 0 0
22.48 0 0
22.56 0 0
22.64 0 0
22.72 0 0
22.8 0 0
22.88 0 0
22.96 0 0
23.04 0 0
23.12 0 0
23.2 0 0
23.28 0 0
23.36 0 0
23.44 0 0
23.52 0 0
23.6 0 0
23.68 0 0
23.76 0 0
23.84 0 0
23.92 0 0
24 0 0
24.08 0 0
24.16 0 0
24.24 0 0
24.32 0 0
24.4 0 0
24.48 0 0
24.56 0 0
24.64 0 0
24.72 0 0
24.8 0 0
24.88 0 0
24.96 0 0
25.04 0 0
25.12 0 0
25.2 0 0
25.28 0 0
25.36 0 0
25.44 0 0
25.52 0 0
25.6 0 0
25.68 0 0
25.76 0 0
25.84 0 0
25.92 0 0
26 0 0
26.08 0 0
26.16 0 0
26.24 0 0
26.32 0 0
26.4 0 0
26.48 0 0
26.56 0 0
26.64 0 0
26.72 0 0
26.8 0 0
26.88 0 0
26.96 0 0
27.04 0 0
27.12 0 0
27.2 0 0
27.28 0 0
27.36 0 0
27.44 0 0
27.52 0 0
27.6 0 0
27.68 0 0
27.76 0 0
27.84 0 0
27.92 0 0
28 0 0
28.08 0 0
28.16 0 0
28.24 0 0
28.32 0 0
28.4 0 0
28.48 0 0
28.56 0 0
28.64 0 0
28.72 0 0
28.8 0 0
28.88 0 0
28.96 0 0
29.04 0 0
29.12 0 0
29.2 0 0
29.28 0 0
29.36 0 0
29.44 0 0
29.52 0 0
29.6 0 0
29.68 0 0
29.76 0 0
29.84 0 0
29.92 0 0
30 0 0
30.08 0 0
30.16 0 0
30.24 0 0
30.32 0 0
30.4 0 0
30.48 0 0
30.56 0 0
30.64 0 0
30.72 0 0
30.8 0 0
30.88 0 0
30.96 0 0
31.04 0 0
31.12 0 0
31.2 0 0
31.28 0 0
31.36 0 0
31.44 0 0
31.52 0 0
31.6 0 0
31.68 0 0
31.76 0 0
31.84 0 0
31.92 0 0
0 0.02 0
0.08 0.02 0
0.16 0.02 0
0.24 0.02 0
0.32 0.02 0
0.4 0.02 0
0.48 0.02 0
0.56 0.02 0
0.64 0.02 0
0.72 0.02 0
0.8 0.02 0
0.88 0.02 0
0.96 0.02 0
1.04 0.02 0
1.12 0.02 0
1.2 0.02 0
1.28 0.02 0
1.36 0.02 0
1.44 0.02 0
1.52 0.02 0
1.6 0.02 0
1.68 0.02 0
1.76 0.02 0
1.84 0.02 0
1.92 0.02 0
2 0.02 0
2.08 0.02 0
2.16 0.02 0
2.24 0.02 0
2.32 0.02 0
2.4 0.02 0
2.48 0.02 0
2.56 0.02 0
2.64 0.02 0
2.72 0.02 0
2.8 0.02 0
2.88 0.02 0
2.96 0.02 0
3.04 0.02 0
3.12 0.02 0
3.2 0.02 0
3.28 0.02 0
3.36 0.02 0
3.44 0.02 0
3.52 0.02 0
3.6 0.02 0
3.68 0.02 0
3.76 0.02 0
3.84 0.02 0
3.92 0.02 0
4 0.02 0
4.08 0.02 0
4.16 0.02 0
4.24 0.02 0
4.32 0.02 0
4.4 0.02 0
4.48 0.02 0
4.56 0.02 0
4.64 0.02 0
4.72 0.02 0
4.8 0.02 0
4.88 0.02 0
4.96 0.02 0
5.04 0.02 0
5.12 0.02 0
5.2 0.02 0
5.28 0.02 0
5.36 0.02 0
5.44 0.02 0
5.52 0.02 0
5.6 0.02 0
5.68 0.02 0
5.76 0.02 0
5.84 0.02 0
5.92 0.02 0
6 0.02 0
6.08 0.02 0
6.16 0.02 0
6.24 0.02 0
6.32 0.02 0
6.4 0.02 0
6.48 0.02 0
6.56 0.02 0
6.64 0.02 0
6.72 0.02 0
6.8 0.02 0
6.88 0.02 0
6.96 0.02 0
7.04 0.02 0
7.12 0.02 0
7.2 0.02 0
7.28 0.02 0
7.36 0.02 0
7.44 0.02 0
7.52 0.02 0
7.6 0.02 0
7.68 0.02 0
7.76 0.02 0
7.84 0.02 0
7.92 0.02 0
8 0.02 0
8.08 0.02 0
8.16 0.02 0
8.24 0.02 0
8.32 0.02 0
8.4 0.02 0
8.48 0.02 0
8.56 0.02 0
8.64 0.02 0
8.72 0.02 0
8.8 0.02 0
8.88 0.02 0
8.96 0.02 0
9.04 0.02 0
9.12 0.02 0
9.2 0.02 0
9.28 0.02 0
9.36 0.02 0
9.44 0.02 0
9.52 0.02 0
9.6 0.02 0
9.68 0.02 0
9.76 0.02 0
9.84 0.02 0
9.92 0.02 0
10 0.02 0
10.08 0.02 0
10.16 0.02 0
10.24 0.02 0
10.32 0.02 0
10.4 0.02 0
10.48 0.02 0
10.56 0.02 0
10.64 0.02 0
10.72 0.02 0
10.8 0.02 0
10.88 0.02 0
10.96 0.02 0
11.04 0.02 0
11.12 0.02 0
11.2 0.02 0
11.28 0.02 0
11.36 0.02 0
11.44 0.02 0
11.52 0.02 0
11.6 0.02 0
11.68 0.02 0
11.76 0.02 0
11.84 0.02 0
11.92 0.02 0
12 0.02 0
12.08 0.02 0
12.16 0.02 0
12.24 0.02 0
12.32 0.02 0
12.4 0.02 0
12.48 0.02 0
12.56 0.02 0
12.64 0.02 0
12.72 0.02 0
12.8 0.02 0
12.88 0.02 0
12.96 0.02 0
13.04 0.02 0
13.12 0.02 0
13.2 0.02 0
13.28 0.02 0
13.36 0.02 0
13.44 0.02 0
13.52 0.02 0
13.6 0.02 0
13.68 0.02 0
13.76 0.02 0
13.84 0.02 0
13.92 0.02 0
14 0.02 0
14.08 0.02 0
14.16 0.02 0
14.24 0.02 0
14.32 0.02 0
14.4 0.02 0
14.48 0.02 0
14.56 0.02 0
14.64 0.02 0
14.72 0.02 0
14.8 0.02 0
14.88 0.02 0
14.96 0.02 0
15.04 0.02 0
15.12 0.02 0
15.2 0.02 0
15.28 0.02 0
15.36 0.02 0
15.44 0.02 0
15.52 0.02 0
15.6 0.02 0
15.68 0.02 0
15.76 0.02 0
15.84 0.02 0
15.92 0.02 0
16 0.02 0
16.08 0.02 0
16.16 0.02 0
16.24 0.02 0
16.32 0.02 0
16.4 0.02 0
16.48 0.02 0
16.56 0.02 0
16.64 0.02 0
16.72 0.02 0
16.8 0.02 0
16.88 0.02 0
16.96 0.02 0
17.04 0.02 0
17.12 0.02 0
17.2 0.02 0
17.28 0.02 0
17.36 0.02 0
17.44 0.02 0
17.52 0.02 0
17.6 0.02 0
17.68 0.02 0
17.76 0.02 0
17.84 0.02 0
17.92 0.02 0
18 0.02 0
18.08 0.02 0
18.16 0.02 0
18.24 0.02 0
18.32 0.02 0
18.4 0.02 0
18.48 0.02 0
18.56 0.02 0
18.64 0.02 0
18.72 0.02 0
18.8 0.02 0
18.88 0.02 0
18.96 0.02 0
19.04 0.02 0
19.12 0.02 0
19.2 0.02 0
19.28 0.02 0
19.36 0.02 0
19.44 0.02 0
19.52 0.02 0
19.6 0.02 0
19.68 0.02 0
19.76 0.02 0
19.84 0.02 0
19.92 0.02 0
20 0.02 0
20.08 0.02 0
20.16 0.02 0
20.24 0.02 0
20.32 0.02 0
20.4 0.02 0
20.48 0.02 0
20.56 0.02 0
20.64 0.02 0
20.72 0.02 0
20.8 0.02 0
20.88 0.02 0
20.96 0.02 0
21.04 0.02 0
21.12 0.02 0
21.2 0.02 0
21.28 0.02 0
21.36 0.02 0
21.44 0.02 0
21.52 0.02 0
21.6 0.02 0
21.68 0.02 0
21.76 0.02 0
21.84 0.02 0
21.92 0.02 0
22 0.02 0
22.08 0.02 0
22.16 0.02 0
22.24 0.02 0
22.32 0.02 0
22.4 0.02 0
22.48 0.02 0
22.56 0.02 0
22.64 0.02 0
22.72 0.02 0
22.8 0.02 0
22.88 0.02 0
22.96 0.02 0
23.04 0.02 0
23.12 0.02 0
23.2 0.02 0
23.28 0.02 0
23.36 0.02 0
23.44 0.02 0
23.52 0.02 0
23.6 0.02 0
23.68 0.02 0
23.76 0.02 0
23.84 0.02 0
23.92 0.02 0
24 0.02 0
24.08 0.02 0
24.16 0.02 0
24.24 0.02 0
24.32 0.02 0
24.4 0.02 0
24.48 0.02 0
24.56 0.02 0
24.64 0.02 0
24.72 0.02 0
24.8 0.02 0
24.88 0.02 0
24.96 0.02 0
25.04 0.02 0
25.12 0.02 0
25.2 0.02 0
25.28 0.02 0
25.36 0.02 0
25.44 0.02 0
25.52 0.02 0
25.6 0.02 0
25.68 0.02 0
25.76 0.02 0
25.84 0.02 0
25.92 0.02 0
26 0.02 0
26.08 0.02 0
26.16 0.02 0
26.24 0.02 0
26.32 0.02 0
26.4 0.02 0
26.48 0.02 0
26.56 0.02 0
26.64 0.02 0
26.72 0.02 0
26.8 0.02 0
26.88 0.02 0
26.96 0.02 0
27.04 0.02 0
27.12 0.02 0
27.2 0.02 0
27.28 0.02 0
27.36 0.02 0
27.44 0.02 0
27.52 0.02 0
27.6 0.02 0
27.68 0.02 0
27.76 0.02 0
27.84 0.02 0
27.92 0.02 0
28 0.02 0
28.08 0.02 0
28.16 0.02 0
28.24 0.02 0
28.32 0.02 0
28.4 0.02 0
28.48 0.02 0
28.56 0.02 0
28.64 0.02 0
28.72 0.02 0
28.8 0.02 0
28.88 0.02 0
28.96 0.02 0
29.04 0.02 0
29.12 0.02 0
29.2 0.02 0
29.28 0.02 0
29.36 0.02 0
29.44 0.02 0
29.52 0.02 0
29.6 0.02 0
29.68 0.02 0
29.76 0.02 0
29.84 0.02 0
29.92 0.02 0
30 0.02 0
30.08 0.02 0
30.16 0.02 0
30.24 0.02 0
30.32 0.02 0
30.4 0.02 0
30.48 0.02 0
30.56 0.02 0
30.64 0.02 0
30.72 0.02 0
30.8 0.02 0
30.88 0.02 0
30.96 0.02 0
31.04 0.02 0
31.12 0.02 0
31.2 0.02 0
31.28 0.02 0
31.36 0.02 0
31.44 0.02 0
31.52 0.02 0
31.6 0.02 0
31.68 0.02 0
31.76 0.02 0
31.84 0.02 0
31.92 0.02 0
0 0.04 0
0.08 0.04 0
0.16 0.04 0
0.24 0.04 0
0.32 0.04 0
0.4 0.04 0
0.48 0.04 0
0.56 0.04 0
0.64 0.04 0
0.72 0.04 0
0.8 0.04 0
0.88 0.04 0
0.96 0.04 0
1.04 0.04 0
1.12 0.04 0
1.2 0.04 0
1.28 0.04 0
1.36 0.04 0
1.44 0.04 0
1.52 0.04 0
1.6 0.04 0
1.68 0.04 0
1.76 0.04 0
1.84 0.04 0
1.92 0.04 0
2 0.04 0
2.08 0.04 0
2.16 0.04 0
2.24 0.04 0
2.32 0.04 0
2.4 0.04 0
2.48 0.04 0
2.56 0.04 0
2.64 0.04 0
2.72 0.04 0
2.8 0.04 0
2.88 0.04 0
2.96 0.04 0
3.04 0.04 0
3.12 0.04 0
3.2 0.04 0
3.28 0.04 0
3.36 0.04 0
3.44 0.04 0
3.52 0.04 0
3.6 0.04 0
3.68 0.04 0
3.76 0.04 0
3.84 0.04 0
3.92 0.04 0
4 0.04 0
4.08 0.04 0
4.16 0.04 0
4.24 0.04 0
4.32 0.04 0
4.4 0.04 0
4.48 0.04 0
4.56 0.04 0
4.64 0.04 0
4.72 0.04 0
4.8 0.04 0
4.88 0.04 0
4.96 0.04 0
5.04 0.04 0
5.12 0.04 0
5.2 0.04 0
5.28 0.04 0
5.36 0.04 0
5.44 0.04 0
5.52 0.04 0
5.6 0.04 0
5.68 0.04 0
5.76 0.04 0
5.84 0.04 0
5.92 0.04 0
6 0.04 0
6.08 0.04 0
6.16 0.04 0
6.24 0.04 0
6.32 0.04 0
6.4 0.04 0
6.48 0.04 0
6.56 0.04 0
6.64 0.04 0
6.72 0.04 0
6.8 0.04 0
6.88 0.04 0
6.96 0.04 0
7.04 0.04 0
7.12 0.04 0
7.2 0.04 0
7.28 0.04 0
7.36 0.04 0
7.44 0.04 0
7.52 0.04 0
7.6 0.04 0
7.68 0.04 0
7.76 0.04 0
7.84 0.04 0
[...]
POINT_DATA 20000

SCALARS p float 1
LOOKUP_TABLE default
1
202.632
202.401
202.334
202.308
202.292
202.28
202.269
202.258
202.248
202.239
202.23
202.221
202.212
202.204
202.196
202.187
202.18
202.172
202.164
202.157
202.149
202.142
202.135
202.128
202.121
202.115
202.108
202.102
202.095
202.089
202.083
202.076
202.07
202.064
202.058
202.052
202.047
202.041
202.035
202.029
202.024
202.018
202.013
202.007
202.002
201.996
201.991
201.986
201.981
201.975
201.97
201.965
201.96
201.955
201.95
201.945
201.94
201.935
201.93
201.925
201.92
201.916
201.911
201.906
201.901
201.897
201.892
201.887
201.883
201.878
201.873
201.869
201.864
201.86
201.855
201.851
201.846
201.842
201.837
201.833
201.828
201.824
201.82
201.815
201.811
201.807
201.802
201.798
201.794
201.789
201.785
201.781
201.777
201.772
201.768
201.764
201.76
201.756
201.752
201.748
201.743
201.739
201.735
201.731
201.727
201.723
201.719
201.715
201.711
201.707
201.703
201.699
201.695
201.692
201.688
201.684
201.68
201.676
201.672
201.668
201.664
201.661
201.657
201.653
201.649
201.645
201.641
201.638
201.634
201.63
201.626
201.622
201.619
201.615
201.611
201.607
201.603
201.6
201.596
201.592
201.588
201.584
201.581
201.577
201.573
201.569
201.566
201.562
201.558
201.554
201.55
201.547
201.543
201.539
201.535
201.531
201.527
201.524
201.52
201.516
201.512
201.508
201.505
201.501
201.497
201.493
201.489
201.485
201.482
201.478
201.474
201.47
201.466
201.462
201.458
201.455
201.451
201.447
201.443
201.439
201.435
201.431
201.428
201.424
201.42
201.416
201.412
201.408
201.404
201.4
201.397
201.393
201.389
201.385
201.381
201.377
201.373
201.369
201.365
201.361
201.358
201.354
201.35
201.346
201.342
201.338
201.334
201.33
201.326
201.322
201.318
201.314
201.311
201.307
201.303
201.299
201.295
201.291
201.287
201.283
201.279
201.275
201.271
201.267
201.263
201.259
201.255
201.251
201.247
201.243
201.239
201.235
201.231
201.227
201.223
201.219
201.216
201.212
201.208
201.204
201.2
201.196
201.192
201.188
201.184
201.18
201.175
201.171
201.167
201.163
201.159
201.155
201.151
201.147
201.143
201.139
201.135
201.131
201.127
201.123
201.119
201.115
201.111
201.107
201.103
201.099
201.095
201.091
201.087
201.082
201.078
201.074
201.07
201.066
201.062
201.058
201.054
201.05
201.046
201.042
201.037
201.033
201.029
201.025
201.021
201.017
201.013
201.009
201.004
201
200.996
200.992
200.988
200.984
200.98
200.975
200.971
200.967
200.963
200.959
200.955
200.95
200.946
200.942
200.938
200.934
200.93
200.925
200.921
200.917
200.913
200.909
200.904
200.9
200.896
200.892
200.887
200.883
200.879
200.875
200.87
200.866
200.862
200.858
200.853
200.849
200.845
200.841
200.836
200.832
200.828
200.824
200.819
200.815
200.811
200.806
200.802
200.798
200.793
200.789
200.785
200.781
200.776
200.772
200.768
200.763
200.759
200.755
200.75
200.746
200.741
200.737
200.733
200.728
200.724
200.72
200.715
200.711
200.706
200.702
200.698
200.693
200.689
200.685
200.68
200.676
200.671
200.667
200.662
200.658
200.654
200.649
200.645
200.64
200.636
200.631
200.627
200.622
200.618
200.613
200.609
200.605
200.6
200.596
200.591
200.587
200.582
200.578
200.573
200.569
200.564
200.56
200.555
200.551
200.546
200.542
200.537
200.532
0.5
202.632
202.632
202.401
202.334
202.308
202.292
202.28
202.269
202.258
202.248
202.239
202.23
202.221
202.212
202.204
202.196
202.187
202.18
202.172
202.164
202.157
202.149
202.142
202.135
202.128
202.121
202.115
202.108
202.102
202.095
202.089
202.083
202.076
202.07
202.064
202.058
202.052
202.047
202.041
202.035
202.029
202.024
202.018
202.013
202.007
202.002
201.996
201.991
201.986
201.981
201.975
201.97
201.965
201.96
201.955
201.95
201.945
201.94
201.935
201.93
201.925
201.92
201.916
201.911
201.906
201.901
201.897
201.892
201.887
201.883
201.878
201.873
201.869
201.864
201.86
201.855
201.851
201.846
201.842
201.837
201.833
201.828
201.824
201.82
201.815
201.811
201.807
201.802
201.798
201.794
201.789
201.785
201.781
201.777
201.772
201.768
201.764
201.76
201.756
201.752
201.748
201.743
201.739
201.735
201.731
201.727
201.723
201.719
201.715
201.711
201.707
201.703
201.699
201.695
201.692
201.688
201.684
201.68
201.676
201.672
201.668
201.664
201.661
201.657
201.653
201.649
201.645
201.641
201.638
201.634
201.63
201.626
201.622
201.619
201.615
201.611
201.607
201.603
201.6
201.596
201.592
201.588
201.584
201.581
201.577
201.573
201.569
201.566
201.562
201.558
201.554
201.55
201.547
201.543
201.539
201.535
201.531
201.527
201.524
201.52
201.516
201.512
201.508
201.505
201.501
201.497
201.493
201.489
201.485
201.482
201.478
201.474
201.47
201.466
201.462
201.458
201.455
201.451
201.447
201.443
201.439
201.435
201.431
201.428
201.424
201.42
201.416
201.412
201.408
201.404
201.4
201.397
201.393
201.389
201.385
201.381
201.377
201.373
201.369
201.365
201.361
201.358
201.354
201.35
201.346
201.342
201.338
201.334
201.33
201.326
201.322
201.318
201.314
201.311
201.307
201.303
201.299
201.295
201.291
201.287
201.283
201.279
201.275
201.271
201.267
201.263
201.259
201.255
201.251
201.247
201.243
201.239
201.235
201.231
201.227
201.223
201.219
201.216
201.212
201.208
201.204
201.2
201.196
201.192
201.188
201.184
201.18
201.175
201.171
201.167
201.163
201.159
201.155
201.151
201.147
201.143
201.139
201.135
201.131
201.127
201.123
201.119
201.115
201.111
201.107
201.103
201.099
201.095
201.091
201.087
201.082
201.078
201.074
201.07
201.066
201.062
201.058
201.054
201.05
201.046
201.042
201.037
201.033
201.029
201.025
201.021
201.017
201.013
201.009
201.004
201
200.996
200.992
200.988
200.984
200.98
200.975
200.971
200.967
200.963
200.959
200.955
200.95
200.946
200.942
200.938
200.934
200.93
200.925
200.921
200.917
200.913
200.909
200.904
200.9
200.896
200.892
200.887
200.883
200.879
200.875
200.87
200.866
200.862
200.858
200.853
200.849
200.845
200.841
200.836
200.832
200.828
200.824
200.819
200.815
200.811
200.806
200.802
200.798
200.793
200.789
200.785
200.781
200.776
200.772
200.768
200.763
200.759
200.755
200.75
200.746
200.741
200.737
200.733
200.728
200.724
200.72
200.715
200.711
200.706
200.702
200.698
200.693
200.689
200.685
200.68
200.676
200.671
200.667
200.662
200.658
200.654
200.649
200.645
200.64
200.636
200.631
200.627
200.622
200.618
200.613
200.609
200.605
200.6
200.596
200.591
200.587
200.582
200.578
200.573
200.569
200.564
200.56
200.555
200.551
200.546
200.542
200.537
200.532
200.532
202.582
202.582
202.406
202.338
202.311
202.294
202.281
202.269
202.259
202.249
202.239
202.23
202.221
202.213
202.204
202.196
202.188
202.18
202.172
202.164
202.157
202.15
202.142
202.135
202.128
202.121
202.115
202.108
202.102
202.095
202.089
202.083
202.076
202.07
202.064
202.058
202.052
202.047
202.041
202.035
202.029
202.024
202.018
202.013
202.007
202.002
201.996
201.991
201.986
201.981
201.975
201.97
201.965
201.96
201.955
201.95
201.945
201.94
201.935
201.93
201.925
201.92
201.916
201.911
201.906
201.901
201.897
201.892
201.887
201.883
201.878
201.873
201.869
201.864
201.86
201.855
201.851
201.846
201.842
201.837
201.833
201.828
201.824
201.82
201.815
201.811
201.807
201.802
201.798
201.794
201.789
201.785
201.781
201.777
201.772
201.768
201.764
201.76
201.756
201.752
201.748
201.743
201.739
201.735
201.731
201.727
201.723
201.719
201.715
201.711
201.707
201.703
201.699
201.695
201.692
201.688
201.684
201.68
201.676
201.672
201.668
201.664
201.661
201.657
201.653
201.649
201.645
201.641
201.638
201.634
201.63
201.626
201.622
201.619
201.615
201.611
201.607
201.603
201.6
201.596
201.592
201.588
201.584
201.581
201.577
201.573
201.569
201.566
201.562
201.558
201.554
201.55
201.547
201.543
201.539
201.535
201.531
201.527
201.524
201.52
201.516
201.512
201.508
201.505
201.501
201.497
201.493
201.489
201.485
201.482
201.478
201.474
201.47
201.466
201.462
201.458
201.455
201.451
201.447
201.443
201.439
201.435
201.431
201.428
201.424
201.42
201.416
201.412
201.408
201.404
201.4
201.397
201.393
201.389
201.385
201.381
201.377
201.373
201.369
201.365
201.361
201.358
201.354
201.35
201.346
201.342
201.338
201.334
201.33
201.326
201.322
201.318
201.314
201.311
201.307
201.303
201.299
201.295
201.291
201.287
201.283
201.279
201.275
201.271
201.267
201.263
201.259
201.255
201.251
201.247
201.243
201.239
201.235
201.231
201.227
201.223
201.219
201.216
201.212
201.208
201.204
201.2
201.196
201.192
201.188
201.184
201.18
201.175
201.171
201.167
201.163
201.159
201.155
201.151
201.147
201.143
201.139
201.135
201.131
201.127
201.123
201.119
201.115
201.111
201.107
201.103
201.099
201.095
201.091
201.087
201.082
201.078
201.074
201.07
201.066
201.062
201.058
201.054
201.05
201.046
201.042
201.037
201.033
201.029
201.025
201.021
201.017
201.013
201.009
201.004
201
200.996
200.992
200.988
200.984
200.98
200.975
200.971
200.967
200.963
200.959
200.955
200.95
200.946
200.942
200.938
200.934
200.93
200.925
200.921
200.917
200.913
200.909
200.904
200.9
200.896
200.892
200.887
200.883
200.879
200.875
200.87
200.866
200.862
200.858
200.853
200.849
200.845
200.841
200.836
200.832
200.828
200.824
200.819
200.815
200.811
200.806
200.802
200.798
200.793
200.789
200.785
200.781
200.776
200.772
200.768
200.763
200.759
200.755
200.75
200.746
200.741
200.737
200.733
200.728
200.724
200.72
200.715
200.711
200.706
200.702
200.698
200.693
200.689
200.685
200.68
200.676
200.671
200.667
200.662
200.658
200.654
200.649
200.645
200.64
200.636
200.631
200.627
200.622
200.618
200.613
200.609
200.605
200.6
200.596
200.591
200.587
200.582
200.578
200.573
200.569
200.564
200.56
200.555
200.551
200.546
200.542
200.537
200.532
200.532
202.542
202.542
202.409
202.343
202.313
202.296
202.282
202.27
202.26
202.249
202.24
202.231
202.222
202.213
202.204
202.196
202.188
202.18
202.172
202.164
202.157
202.15
202.142
202.135
202.128
202.122
202.115
202.108
202.102
202.095
202.089
202.083
202.076
202.07
202.064
202.058
202.052
202.047
202.041
202.035
202.029
202.024
202.018
202.013
202.007
202.002
201.996
201.991
201.986
201.981
201.975
201.97
201.965
201.96
201.955
201.95
201.945
201.94
201.935
201.93
201.925
201.92
201.916
201.911
201.906
201.901
201.897
201.892
201.887
201.883
201.878
201.873
201.869
201.864
201.86
201.855
201.851
201.846
201.842
201.837
201.833
201.828
201.824
201.82
201.815
201.811
201.807
201.802
201.798
201.794
201.789
201.785
201.781
201.777
201.772
201.768
201.764
201.76
201.756
201.752
201.748
201.743
201.739
201.735
201.731
201.727
201.723
201.719
201.715
201.711
201.707
201.703
201.699
201.695
201.692
201.688
201.684
201.68
201.676
201.672
201.668
201.664
201.661
201.657
201.653
201.649
201.645
201.641
201.638
201.634
201.63
201.626
201.622
201.619
201.615
201.611
201.607
201.603
201.6
201.596
201.592
201.588
201.584
201.581
201.577
201.573
201.569
201.566
201.562
201.558
201.554
201.55
201.547
201.543
201.539
201.535
201.531
201.527
201.524
201.52
201.516
201.512
201.508
201.505
201.501
201.497
201.493
201.489
201.485
201.482
201.478
201.474
201.47
201.466
201.462
201.458
201.455
201.451
201.447
201.443
201.439
201.435
201.431
201.428
201.424
201.42
201.416
201.412
201.408
201.404
201.4
201.397
201.393
201.389
201.385
201.381
201.377
201.373
201.369
201.365
201.361
201.358
201.354
201.35
201.346
201.342
201.338
201.334
201.33
201.326
201.322
201.318
201.314
201.311
201.307
201.303
201.299
201.295
201.291
201.287
201.283
201.279
201.275
201.271
201.267
201.263
201.259
201.255
201.251
201.247
201.243
201.239
201.235
201.231
201.227
201.223
201.219
201.216
201.212
201.208
201.204
201.2
201.196
201.192
201.188
201.184
201.18
201.175
201.171
201.167
201.163
201.159
201.155
201.151
201.147
201.143
201.139
201.135
201.131
201.127
201.123
201.119
201.115
201.111
201.107
201.103
201.099
201.095
201.091
201.087
201.082
201.078
201.074
201.07
201.066
201.062
201.058
201.054
201.05
201.046
201.042
201.037
201.033
201.029
201.025
201.021
201.017
201.013
201.009
201.004
201
200.996
200.992
200.988
200.984
200.98
200.975
200.971
200.967
200.963
200.959
200.955
200.95
200.946
200.942
200.938
200.934
200.93
200.925
200.921
200.917
200.913
200.909
200.904
200.9
200.896
200.892
200.887
200.883
200.879
200.875
200.87
200.866
200.862
200.858
200.853
200.849
200.845
200.841
200.836
200.832
200.828
200.824
200.819
200.815
200.811
200.806
200.802
200.798
200.793
200.789
200.785
200.781
200.776
200.772
200.768
200.763
200.759
200.755
200.75
200.746
200.741
200.737
200.733
200.728
200.724
200.72
200.715
200.711
200.706
200.702
200.698
200.693
200.689
200.685
200.68
200.676
200.671
200.667
200.662
200.658
200.654
200.649
200.645
200.64
200.636
200.631
200.627
200.622
200.618
200.613
200.609
200.605
200.6
200.596
200.591
200.587
200.582
200.578
200.573
200.569
200.564
200.56
200.555
200.551
200.546
200.542
200.537
200.532
200.532
202.51
202.51
202.409
202.348
202.317
202.298
202.283
202.271
202.26
202.25
202.24
202.231
202.222
202.213
202.204
202.196
202.188
202.18
202.172
202.165
202.157
202.15
202.143
202.135
202.128
202.122
202.115
202.108
202.102
202.095
202.089
202.083
202.076
202.07
202.064
202.058
202.052
202.047
202.041
202.035
202.029
202.024
202.018
202.013
202.007
202.002
201.997
201.991
201.986
201.981
201.975
201.97
201.965
201.96
201.955
201.95
201.945
201.94
201.935
201.93
201.925
201.92
201.916
201.911
201.906
201.901
201.897
201.892
201.887
201.883
201.878
201.873
201.869
201.864
201.86
201.855
201.851
201.846
201.842
201.837
201.833
201.828
201.824
201.82
201.815
201.811
201.807
201.802
201.798
201.794
201.789
201.785
201.781
201.777
201.772
201.768
201.764
201.76
201.756
201.752
201.748
201.743
201.739
201.735
201.731
201.727
201.723
201.719
201.715
201.711
201.707
201.703
201.699
201.695
201.692
201.688
201.684
201.68
201.676
201.672
201.668
201.664
201.661
201.657
201.653
201.649
201.645
201.641
201.638
201.634
201.63
201.626
201.622
201.619
201.615
201.611
201.607
201.603
201.6
201.596
201.592
201.588
201.584
201.581
201.577
201.573
201.569
201.566
201.562
201.558
201.554
201.55
201.547
201.543
201.539
201.535
201.531
201.527
201.524
201.52
201.516
201.512
201.508
201.505
201.501
201.497
201.493
201.489
201.485
201.482
201.478
201.474
201.47
201.466
201.462
201.458
201.455
201.451
201.447
201.443
201.439
201.435
201.431
201.428
201.424
201.42
201.416
201.412
201.408
201.404
201.4
201.397
201.393
201.389
201.385
201.381
201.377
201.373
201.369
201.365
201.361
201.358
201.354
201.35
201.346
201.342
201.338
201.334
201.33
201.326
201.322
201.318
201.314
201.311
201.307
201.303
201.299
201.295
201.291
201.287
201.283
201.279
201.275
201.271
201.267
201.263
201.259
201.255
201.251
201.247
201.243
201.239
201.235
201.231
201.227
201.223
201.219
201.216
201.212
201.208
201.204
201.2
201.196
201.192
201.188
201.184
201.18
201.175
201.171
201.167
201.163
201.159
201.155
201.151
201.147
201.143
201.139
201.135
201.131
201.127
201.123
201.119
201.115
201.111
201.107
201.103
201.099
201.095
201.091
201.087
201.082
201.078
201.074
201.07
201.066
201.062
201.058
201.054
201.05
201.046
201.042
201.037
201.033
201.029
201.025
201.021
201.017
201.013
201.009
201.004
201
200.996
200.992
200.988
200.984
200.98
200.975
200.971
200.967
200.963
200.959
200.955
200.95
200.946
200.942
200.938
200.934
200.93
200.925
200.921
200.917
200.913
200.909
200.904
200.9
200.896
200.892
200.887
200.883
200.879
200.875
200.87
200.866
200.862
200.858
200.853
200.849
200.845
200.841
200.836
200.832
200.828
200.824
200.819
200.815
200.811
200.806
200.802
200.798
200.793
200.789
200.785
200.781
200.776
200.772
200.768
200.763
200.759
200.755
200.75
200.746
200.741
200.737
200.733
200.728
200.724
200.72
200.715
200.711
200.706
200.702
200.698
200.693
200.689
200.685
200.68
200.676
200.671
200.667
200.662
200.658
200.654
200.649
200.645
200.64
200.636
200.631
200.627
200.622
200.618
200.613
200.609
200.605
200.6
200.596
200.591
200.587
200.582
200.578
200.573
200.569
200.564
200.56
200.555
200.551
200.546
200.542
200.537
200.532
200.532
202.485
202.485
202.407
202.352
202.32
202.3
202.285
202.272
202.261
202.251
202.241
202.231
202.222
202.213
202.205
202.196
202.188
202.18
202.172
202.165
202.157
202.15
202.143
202.136
202.129
202.122
202.115
202.108
202.102
202.095
202.089
202.083
202.077
202.07
202.064
202.058
202.052
202.047
202.041
202.035
202.029
202.024
202.018
202.013
202.007
202.002
201.997
201.991
201.986
201.981
201.975
201.97
201.965
201.96
201.955
201.95
201.945
201.94
201.935
201.93
201.925
201.92
201.916
201.911
201.906
201.901
201.897
201.892
201.887
201.883
201.878
201.873
201.869
201.864
201.86
201.855
201.851
201.846
201.842
201.837
201.833
201.828
201.824
201.82
201.815
201.811
201.807
201.802
201.798
201.794
201.789
201.785
201.781
201.777
201.772
201.768
201.764
201.76
201.756
201.752
201.748
201.743
201.739
201.735
201.731
201.727
201.723
201.719
201.715
201.711
201.707
201.703
201.699
201.695
201.692
201.688
201.684
201.68
201.676
201.672
201.668
201.664
201.661
201.657
201.653
201.649
201.645
201.641
201.638
201.634
201.63
201.626
201.622
201.619
201.615
201.611
201.607
201.603
201.6
201.596
201.592
201.588
201.584
201.581
201.577
201.573
201.569
201.566
201.562
201.558
201.554
201.55
201.547
201.543
201.539
201.535
201.531
201.527
201.524
201.52
201.516
201.512
201.508
201.505
201.501
201.497
201.493
201.489
201.485
201.482
201.478
201.474
201.47
201.466
201.462
201.458
201.455
201.451
201.447
201.443
201.439
201.435
201.431
201.428
201.424
201.42
201.416
201.412
201.408
201.404
201.4
201.397
201.393
201.389
201.385
201.381
201.377
201.373
201.369
201.365
201.361
201.358
201.354
201.35
201.346
201.342
201.338
201.334
201.33
201.326
201.322
201.318
201.314
201.311
201.307
201.303
201.299
201.295
201.291
201.287
201.283
201.279
201.275
201.271
201.267
201.263
201.259
201.255
201.251
201.247
201.243
201.239
201.235
201.231
201.227
201.223
201.219
201.216
201.212
201.208
201.204
201.2
201.196
201.192
201.188
201.184
201.18
201.175
201.171
201.167
201.163
201.159
201.155
201.151
201.147
201.143
201.139
201.135
201.131
201.127
201.123
201.119
201.115
201.111
201.107
201.103
201.099
201.095
201.091
201.087
201.082
201.078
201.074
201.07
201.066
201.062
201.058
201.054
201.05
201.046
201.042
201.037
201.033
201.029
201.025
201.021
201.017
201.013
201.009
201.004
201
200.996
200.992
200.988
200.984
200.98
200.975
200.971
200.967
200.963
200.959
200.955
200.95
200.946
200.942
200.938
200.934
200.93
200.925
200.921
200.917
200.913
200.909
200.904
200.9
200.896
200.892
200.887
200.883
200.879
200.875
200.87
200.866
200.862
200.858
200.853
200.849
200.845
200.841
200.836
200.832
200.828
200.824
200.819
200.815
200.811
200.806
200.802
200.798
200.793
200.789
200.785
200.781
200.776
200.772
200.768
200.763
200.759
200.755
200.75
200.746
200.741
200.737
200.733
200.728
200.724
200.72
200.715
200.711
200.706
200.702
200.698
200.693
200.689
200.685
200.68
200.676
200.671
200.667
200.662
200.658
200.654
200.649
200.645
200.64
200.636
200.631
200.627
200.622
200.618
200.613
200.609
200.605
200.6
200.596
200.591
200.587
200.582
200.578
200.573
200.569
200.564
200.56
200.555
200.551
200.546
200.542
200.537
200.532
200.532
202.463
202.463
202.404
202.355
202.324
202.303
202.287
202.274
202.262
202.252
202.241
202.232
202.223
202.214
202.205
202.197
202.188
202.18
202.172
202.165
202.157
202.15
202.143
202.136
202.129
202.122
202.115
202.108
202.102
202.095
202.089
202.083
202.077
202.07
202.064
202.058
202.053
202.047
202.041
202.035
202.029
202.024
202.018
202.013
202.007
202.002
201.997
201.991
201.986
201.981
201.975
201.97
201.965
201.96
201.955
201.95
201.945
201.94
201.935
201.93
201.925
201.92
201.916
201.911
201.906
201.901
201.897
201.892
201.887
201.883
201.878
201.873
201.869
201.864
201.86
201.855
201.851
201.846
201.842
201.837
201.833
201.828
201.824
201.82
201.815
201.811
201.807
201.802
201.798
201.794
201.789
201.785
201.781
201.777
201.772
201.768
201.764
201.76
201.756
201.752
201.748
201.743
201.739
201.735
201.731
201.727
201.723
201.719
201.715
201.711
201.707
201.703
201.699
201.695
201.692
201.688
201.684
201.68
201.676
201.672
201.668
201.664
201.661
201.657
201.653
201.649
201.645
201.641
201.638
201.634
201.63
201.626