# vtk DataFile Version 2.0
FlowField
ASCII
DATASET STRUCTURED_GRID
DIMENSIONS 400 1 50
POINTS 20000 float
0 0 0
0.08 0 0
0.16 0 0
0.24 0 0
0.32 0 0
0.4 0 0
0.48 0 0
0.56 0 0
0.64 0 0
0.72 0 0
0.8 0 0
0.88 0 0
0.96 0 0
1.04 0 0
1.12 0 0
1.2 0 0
1.28 0 0
1.36 0 0
1.44 0 0
1.52 0 0
1.6 0 0
1.68 0 0
1.76 0 0
1.84 0 0
1.92 0 0
2 0 0
2.08 0 0
2.16 0 0
2.24 0 0
2.32 0 0
2.4 0 0
2.48 0 0
2.56 0 0
2.64 0 0
2.72 0 0
2.8 0 0
2.88 0 0
2.96 0 0
3.04 0 0
3.12 0 0
3.2 0 0
3.28 0 0
3.36 0 0
3.44 0 0
3.52 0 0
3.6 0 0
3.68 0 0
3.76 0 0
3.84 0 0
3.92 0 0
4 0 0
4.08 0 0
4.16 0 0
4.24 0 0
4.32 0 0
4.4 0 0
4.48 0 0
4.56 0 0
4.64 0 0
4.72 0 0
4.8 0 0
4.88 0 0
4.96 0 0
5.04 0 0
5.12 0 0
5.2 0 0
5.28 0 0
5.36 0 0
5.44 0 0
5.52 0 0
5.6 0 0
5.68 0 0
5.76 0 0
5.84 0 0
5.92 0 0
6 0 0
6.08 0 0
6.16 0 0
6.24 0 0
6.32 0 0
6.4 0 0
6.48 0 0
6.56 0 0
6.64 0 0
6.72 0 0
6.8 0 0
6.88 0 0
6.96 0 0
7.04 0 0
7.12 0 0
7.2 0 0
7.28 0 0
7.36 0 0
7.44 0 0
7.52 0 0
7.6 0 0
7.68 0 0
7.76 0 0
7.84 0 0
7.92 0 0
8 0 0
8.08 0 0
8.16 0 0
8.24 0 0
8.32 0 0
8.4 0 0
8.48 0 0
8.56 0 0
8.64 0 0
8.72 0 0
8.8 0 0
8.88 0 0
8.96 0 0
9.04 0 0
9.12 0 0
9.2 0 0
9.28 0 0
9.36 0 0
9.44 0 0
9.52 0 0
9.6 0 0
9.68 0 0
9.76 0 0
9.84 0 0
9.92 0 0
10 0 0
10.08 0 0
10.16 0 0
10.24 0 0
10.32 0 0
10.4 0 0
10.48 0 0
10.56 0 0
10.64 0 0
10.72 0 0
10.8 0 0
10.88 0 0
10.96 0 0
11.04 0 0
11.12 0 0
11.2 0 0
11.28 0 0
11.36 0 0
11.44 0 0
11.52 0 0
11.6 0 0
11.68 0 0
11.76 0 0
11.84 0 0
11.92 0 0
12 0 0
12.08 0 0
12.16 0 0
12.24 0 0
12.32 0 0
12.4 0 0
12.48 0 0
12.56 0 0
12.64 0 0
12.72 0 0
12.8 0 0
12.88 0 0
12.96 0 0
13.04 0 0
13.12 0 0
13.2 0 0
13.28 0 0
13.36 0 0
13.44 0 0
13.52 0 0
13.6 0 0
13.68 0 0
13.76 0 0
13.84 0 0
13.92 0 0
14 0 0
14.08 0 0
14.16 0 0
14.24 0 0
14.32 0 0
14.4 0 0
14.48 0 0
14.56 0 0
14.64 0 0
14.72 0 0
14.8 0 0
14.88 0 0
14.96 0 0
15.04 0 0
15.12 0 0
15.2 0 0
15.28 0 0
15.36 0 0
15.44 0 0
15.52 0 0
15.6 0 0
15.68 0 0
15.76 0 0
15.84 0 0
15.92 0 0
16 0 0
16.08 0 0
16.16 0 0
16.24 0 0
16.32 0 0
16.4 0 0
16.48 0 0
16.56 0 0
16.64 0 0
16.72 0 0
16.8 0 0
16.88 0 0
16.96 0 0
17.04 0 0
17.12 0 0
17.2 0 0
17.28 0 0
17.36 0 0
17.44 0 0
17.52 0 0
17.6 0 0
17.68 0 0
17.76 0 0
17.84 0 0
17.92 0 0
18 0 0
18.08 0 0
18.16 0 0
18.24 0 0
18.32 0 0
18.4 0 0
18.48 0 0
18.56 0 0
18.64 0 0
18.72 0 0
18.8 0 0
18.88 0 0
18.96 0 0
19.04 0 0
19.12 0 0
19.2 0 0
19.28 0 0
19.36 0 0
19.44 0 0
19.52 0 0
19.6 0 0
19.68 0 0
19.76 0 0
19.84 0 0
19.92 0 0
20 0 0
20.08 0 0
20.16 0 0
20.24 0 0
20.32 0 0
20.4 0 0
20.48 0 0
20.56 0 0
20.64 0 0
20.72 0 0
20.8 0 0
20.88 0 0
20.96 0 0
21.04 0 0
21.12 0 0
21.2 0 0
21.28 0 0
21.36 0 0
21.44 0 0
21.52 0 0
21.6 0 0
21.68 0 0
21.76 0 0
21.84 0 0
21.92 0 0
22 0 0
22.08 0 0
22.16 0 0
22.24 0 0
22.32 0 0
22.4 0 0
22.48 0 0
22.56 0 0
22.64 0 0
22.72 0 0
22.8 0 0
22.88 0 0
22.96 0 0
23.04 0 0
23.12 0 0
23.2 0 0
23.28 0 0
23.36 0 0
23.44 0 0
23.52 0 0
23.6 0 0
23.68 0 0
23.76 0 0
23.84 0 0
23.92 0 0
24 0 0
24.08 0 0
24.16 0 0
24.24 0 0
24.32 0 0
24.4 0 0
24.48 0 0
24.56 0 0
24.64 0 0
24.72 0 0
24.8 0 0
24.88 0 0
24.96 0 0
25.04 0 0
25.12 0 0
25.2 0 0
25.28 0 0
25.36 0 0
25.44 0 0
25.52 0 0
25.6 0 0
25.68 0 0
25.76 0 0
25.84 0 0
25.92 0 0
26 0 0
26.08 0 0
26.16 0 0
26.24 0 0
26.32 0 0
26.4 0 0
26.48 0 0
26.56 0 0
26.64 0 0
26.72 0 0
26.8 0 0
26.88 0 0
26.96 0 0
27.04 0 0
27.12 0 0
27.2 0 0
27.28 0 0
27.36 0 0
27.44 0 0
27.52 0 0
27.6 0 0
27.68 0 0
27.76 0 0
27.84 0 0
27.92 0 0
28 0 0
28.08 0 0
28.16 0 0
28.24 0 0
28.32 0 0
28.4 0 0
28.48 0 0
28.56 0 0
28.64 0 0
28.72 0 0
28.8 0 0
28.88 0 0
28.96 0 0
29.04 0 0
29.12 0 0
29.2 0 0
29.28 0 0
29.36 0 0
29.44 0 0
29.52 0 0
29.6 0 0
29.68 0 0
29.76 0 0
29.84 0 0
29.92 0 0
30 0 0
30.08 0 0
30.16 0 0
30.24 0 0
30.32 0 0
30.4 0 0
30.48 0 0
30.56 0 0
30.64 0 0
30.72 0 0
30.8 0 0
30.88 0 0
30.96 0 0
31.04 0 0
31.12 0 0
31.2 0 0
31.28 0 0
31.36 0 0
31.44 0 0
31.52 0 0
31.6 0 0
31.68 0 0
31.76 0 0
31.84 0 0
31.92 0 0
0 0.02 0
0.08 0.02 0
0.16 0.02 0
0.24 0.02 0
0.32 0.02 0
0.4 0.02 0
0.48 0.02 0
0.56 0.02 0
0.64 0.02 0
0.72 0.02 0
0.8 0.02 0
0.88 0.02 0
0.96 0.02 0
1.04 0.02 0
1.12 0.02 0
1.2 0.02 0
1.28 0.02 0
1.36 0.02 0
1.44 0.02 0
1.52 0.02 0
1.6 0.02 0
1.68 0.02 0
1.76 0.02 0
1.84 0.02 0
1.92 0.02 0
2 0.02 0
2.08 0.02 0
2.16 0.02 0
2.24 0.02 0
2.32 0.02 0
2.4 0.02 0
2.48 0.02 0
2.56 0.02 0
2.64 0.02 0
2.72 0.02 0
2.8 0.02 0
2.88 0.02 0
2.96 0.02 0
3.04 0.02 0
3.12 0.02 0
3.2 0.02 0
3.28 0.02 0
3.36 0.02 0
3.44 0.02 0
3.52 0.02 0
3.6 0.02 0
3.68 0.02 0
3.76 0.02 0
3.84 0.02 0
3.92 0.02 0
4 0.02 0
4.08 0.02 0
4.16 0.02 0
4.24 0.02 0
4.32 0.02 0
4.4 0.02 0
4.48 0.02 0
4.56 0.02 0
4.64 0.02 0
4.72 0.02 0
4.8 0.02 0
4.88 0.02 0
4.96 0.02 0
5.04 0.02 0
5.12 0.02 0
5.2 0.02 0
5.28 0.02 0
5.36 0.02 0
5.44 0.02 0
5.52 0.02 0
5.6 0.02 0
5.68 0.02 0
5.76 0.02 0
5.84 0.02 0
5.92 0.02 0
6 0.02 0
6.08 0.02 0
6.16 0.02 0
6.24 0.02 0
6.32 0.02 0
6.4 0.02 0
6.48 0.02 0
6.56 0.02 0
6.64 0.02 0
6.72 0.02 0
6.8 0.02 0
6.88 0.02 0
6.96 0.02 0
7.04 0.02 0
7.12 0.02 0
7.2 0.02 0
7.28 0.02 0
7.36 0.02 0
7.44 0.02 0
7.52 0.02 0
7.6 0.02 0
7.68 0.02 0
7.76 0.02 0
7.84 0.02 0
7.92 0.02 0
8 0.02 0
8.08 0.02 0
8.16 0.02 0
8.24 0.02 0
8.32 0.02 0
8.4 0.02 0
8.48 0.02 0
8.56 0.02 0
8.64 0.02 0
8.72 0.02 0
8.8 0.02 0
8.88 0.02 0
8.96 0.02 0
9.04 0.02 0
9.12 0.02 0
9.2 0.02 0
9.28 0.02 0
9.36 0.02 0
9.44 0.02 0
9.52 0.02 0
9.6 0.02 0
9.68 0.02 0
9.76 0.02 0
9.84 0.02 0
9.92 0.02 0
10 0.02 0
10.08 0.02 0
10.16 0.02 0
10.24 0.02 0
10.32 0.02 0
10.4 0.02 0
10.48 0.02 0
10.56 0.02 0
10.64 0.02 0
10.72 0.02 0
10.8 0.02 0
10.88 0.02 0
10.96 0.02 0
11.04 0.02 0
11.12 0.02 0
11.2 0.02 0
11.28 0.02 0
11.36 0.02 0
11.44 0.02 0
11.52 0.02 0
11.6 0.02 0
11.68 0.02 0
11.76 0.02 0
11.84 0.02 0
11.92 0.02 0
12 0.02 0
12.08 0.02 0
12.16 0.02 0
12.24 0.02 0
12.32 0.02 0
12.4 0.02 0
12.48 0.02 0
12.56 0.02 0
12.64 0.02 0
12.72 0.02 0
12.8 0.02 0
12.88 0.02 0
12.96 0.02 0
13.04 0.02 0
13.12 0.02 0
13.2 0.02 0
13.28 0.02 0
13.36 0.02 0
13.44 0.02 0
13.52 0.02 0
13.6 0.02 0
13.68 0.02 0
13.76 0.02 0
13.84 0.02 0
13.92 0.02 0
14 0.02 0
14.08 0.02 0
14.16 0.02 0
14.24 0.02 0
14.32 0.02 0
14.4 0.02 0
14.48 0.02 0
14.56 0.02 0
14.64 0.02 0
14.72 0.02 0
14.8 0.02 0
14.88 0.02 0
14.96 0.02 0
15.04 0.02 0
15.12 0.02 0
15.2 0.02 0
15.28 0.02 0
15.36 0.02 0
15.44 0.02 0
15.52 0.02 0
15.6 0.02 0
15.68 0.02 0
15.76 0.02 0
15.84 0.02 0
15.92 0.02 0
16 0.02 0
16.08 0.02 0
16.16 0.02 0
16.24 0.02 0
16.32 0.02 0
16.4 0.02 0
16.48 0.02 0
16.56 0.02 0
16.64 0.02 0
16.72 0.02 0
16.8 0.02 0
16.88 0.02 0
16.96 0.02 0
17.04 0.02 0
17.12 0.02 0
17.2 0.02 0
17.28 0.02 0
17.36 0.02 0
17.44 0.02 0
17.52 0.02 0
17.6 0.02 0
17.68 0.02 0
17.76 0.02 0
17.84 0.02 0
17.92 0.02 0
18 0.02 0
18.08 0.02 0
18.16 0.02 0
18.24 0.02 0
18.32 0.02 0
18.4 0.02 0
18.48 0.02 0
18.56 0.02 0
18.64 0.02 0
18.72 0.02 0
18.8 0.02 0
18.88 0.02 0
18.96 0.02 0
19.04 0.02 0
19.12 0.02 0
19.2 0.02 0
19.28 0.02 0
19.36 0.02 0
19.44 0.02 0
19.52 0.02 0
19.6 0.02 0
19.68 0.02 0
19.76 0.02 0
19.84 0.02 0
19.92 0.02 0
20 0.02 0
20.08 0.02 0
20.16 0.02 0
20.24 0.02 0
20.32 0.02 0
20.4 0.02 0
20.48 0.02 0
20.56 0.02 0
20.64 0.02 0
20.72 0.02 0
20.8 0.02 0
20.88 0.02 0
20.96 0.02 0
21.04 0.02 0
21.12 0.02 0
21.2 0.02 0
21.28 0.02 0
21.36 0.02 0
21.44 0.02 0
21.52 0.02 0
21.6 0.02 0
21.68 0.02 0
21.76 0.02 0
21.84 0.02 0
21.92 0.02 0
22 0.02 0
22.08 0.02 0
22.16 0.02 0
22.24 0.02 0
22.32 0.02 0
22.4 0.02 0
22.48 0.02 0
22.56 0.02 0
22.64 0.02 0
22.72 0.02 0
22.8 0.02 0
22.88 0.02 0
22.96 0.02 0
23.04 0.02 0
23.12 0.02 0
23.2 0.02 0
23.28 0.02 0
23.36 0.02 0
23.44 0.02 0
23.52 0.02 0
23.6 0.02 0
23.68 0.02 0
23.76 0.02 0
23.84 0.02 0
23.92 0.02 0
24 0.02 0
24.08 0.02 0
24.16 0.02 0
24.24 0.02 0
24.32 0.02 0
24.4 0.02 0
24.48 0.02 0
24.56 0.02 0
24.64 0.02 0
24.72 0.02 0
24.8 0.02 0
24.88 0.02 0
24.96 0.02 0
25.04 0.02 0
25.12 0.02 0
25.2 0.02 0
25.28 0.02 0
25.36 0.02 0
25.44 0.02 0
25.52 0.02 0
25.6 0.02 0
25.68 0.02 0
25.76 0.02 0
25.84 0.02 0
25.92 0.02 0
26 0.02 0
26.08 0.02 0
26.16 0.02 0
26.24 0.02 0
26.32 0.02 0
26.4 0.02 0
26.48 0.02 0
26.56 0.02 0
26.64 0.02 0
26.72 0.02 0
26.8 0.02 0
26.88 0.02 0
26.96 0.02 0
27.04 0.02 0
27.12 0.02 0
27.2 0.02 0
27.28 0.02 0
27.36 0.02 0
27.44 0.02 0
27.52 0.02 0
27.6 0.02 0
27.68 0.02 0
27.76 0.02 0
27.84 0.02 0
27.92 0.02 0
28 0.02 0
28.08 0.02 0
28.16 0.02 0
28.24 0.02 0
28.32 0.02 0
28.4 0.02 0
28.48 0.02 0
28.56 0.02 0
28.64 0.02 0
28.72 0.02 0
28.8 0.02 0
28.88 0.02 0
28.96 0.02 0
29.04 0.02 0
29.12 0.02 0
29.2 0.02 0
29.28 0.02 0
29.36 0.02 0
29.44 0.02 0
29.52 0.02 0
29.6 0.02 0
29.68 0.02 0
29.76 0.02 0
29.84 0.02 0
29.92 0.02 0
30 0.02 0
30.08 0.02 0
30.16 0.02 0
30.24 0.02 0
30.32 0.02 0
30.4 0.02 0
30.48 0.02 0
30.56 0.02 0
30.64 0.02 0
30.72 0.02 0
30.8 0.02 0
30.88 0.02 0
30.96 0.02 0
31.04 0.02 0
31.12 0.02 0
31.2 0.02 0
31.28 0.02 0
31.36 0.02 0
31.44 0.02 0
31.52 0.02 0
31.6 0.02 0
31.68 0.02 0
31.76 0.02 0
31.84 0.02 0
31.92 0.02 0
0 0.04 0
0.08 0.04 0
0.16 0.04 0
0.24 0.04 0
0.32 0.04 0
0.4 0.04 0
0.48 0.04 0
0.56 0.04 0
0.64 0.04 0
0.72 0.04 0
0.8 0.04 0
0.88 0.04 0
0.96 0.04 0
1.04 0.04 0
1.12 0.04 0
1.2 0.04 0
1.28 0.04 0
1.36 0.04 0
1.44 0.04 0
1.52 0.04 0
1.6 0.04 0
1.68 0.04 0
1.76 0.04 0
1.84 0.04 0
1.92 0.04 0
2 0.04 0
2.08 0.04 0
2.16 0.04 0
2.24 0.04 0
2.32 0.04 0
2.4 0.04 0
2.48 0.04 0
2.56 0.04 0
2.64 0.04 0
2.72 0.04 0
2.8 0.04 0
2.88 0.04 0
2.96 0.04 0
3.04 0.04 0
3.12 0.04 0
3.2 0.04 0
3.28 0.04 0
3.36 0.04 0
3.44 0.04 0
3.52 0.04 0
3.6 0.04 0
3.68 0.04 0
3.76 0.04 0
3.84 0.04 0
3.92 0.04 0
4 0.04 0
4.08 0.04 0
4.16 0.04 0
4.24 0.04 0
4.32 0.04 0
4.4 0.04 0
4.48 0.04 0
4.56 0.04 0
4.64 0.04 0
4.72 0.04 0
4.8 0.04 0
4.88 0.04 0
4.96 0.04 0
5.04 0.04 0
5.12 0.04 0
5.2 0.04 0
5.28 0.04 0
5.36 0.04 0
5.44 0.04 0
5.52 0.04 0
5.6 0.04 0
5.68 0.04 0
5.76 0.04 0
5.84 0.04 0
5.92 0.04 0
6 0.04 0
6.08 0.04 0
6.16 0.04 0
6.24 0.04 0
6.32 0.04 0
6.4 0.04 0
6.48 0.04 0
6.56 0.04 0
6.64 0.04 0
6.72 0.04 0
6.8 0.04 0
6.88 0.04 0
6.96 0.04 0
7.04 0.04 0
7.12 0.04 0
7.2 0.04 0
7.28 0.04 0
7.36 0.04 0
7.44 0.04 0
7.52 0.04 0
7.6 0.04 0
7.68 0.04 0
7.76 0.04 0
7.84 0.04 0
[...]
POINT_DATA 20000

SCALARS v float 1
LOOKUP_TABLE default
0
0
0
0
0
0
0
0
0
0
0
0
0
0
0
0
0
0
0
0
0
0
0
0
0
0
0
0
0
0
0
0
0
0
0
0
0
0
0
0
0
0
0
0
0
0
0
0
0
0
0
0
0
0
0
0
0
0
0
0
0
0
0
0
0
0
0
0
0
0
0
0
0
0
0
0
0
0
0
0
0
0
0
0
0
0
0
0
0
0
0
0
0
0
0
0
0
0
0
0
0
0
0
0
0
0
0
0
0
0
0
0
0
0
0
0
0
0
0
0
0
0
0
0
0
0
0
0
0
0
0
0
0
0
0
0
0
0
0
0
0
0
0
0
0
0
0
0
0
0
0
0
0
0
0
0
0
0
0
0
0
0
0
0
0
0
0
0
0
0
0
0
0
0
0
0
0
0
0
0
0
0
0
0
0
0
0
0
0
0
0
0
0
0
0
0
0
0
0
0
0
0
0
0
0
0
0
0
0
0
0
0
0
0
0
0
0
0
0
0
0
0
0
0
0
0
0
0
0
0
0
0
0
0
0
0
0
0
0
0
0
0
0
0
0
0
0
0
0
0
0
0
0
0
0
0
0
0
0
0
0
0
0
0
0
0
0
0
0
0
0
0
0
0
0
0
0
0
0
0
0
0
0
0
0
0
0
0
0
0
0
0
0
0
0
0
0
0
0
0
0
0
0
0
0
0
0
0
0
0
0
0
0
0
0
0
0
0
0
0
0
0
0
0
0
0
0
0
0
0
0
0
0
0
0
0
0
0
0
0
0
0
0
0
0
0
0
0
0
0
0
0
0
0
0
0
0
0
0
0
0
0
0
0
0
0
0
0
0
0
0
0
0
0
0
0
0
0
0
0
0
0
0
0
0
0
0
0
0
0
0
0
0
0
0
0
0
0
0
0
-0.123227
0.123227
0.0537919
0.0194391
0.00878318
0.00508975
0.00338778
0.00243732
0.00184749
0.00145627
0.00118401
0.000987217
0.000840355
0.000727662
0.000639026
0.00056776
0.000509337
0.000460621
0.000419394
0.000384061
0.000353447
0.000326674
0.000303071
0.000282119
0.000263408
0.00024661
0.000231458
0.000217733
0.000205254
0.000193868
0.000183447
0.00017388
0.000165073
0.000156946
0.000149427
0.000142456
0.000135979
0.000129948
0.000124322
0.000119065
0.000114143
0.000109528
0.000105194
0.000101117
9.72767e-05
9.36545e-05
9.02333e-05
8.69979e-05
8.39344e-05
8.10302e-05
7.8274e-05
7.56554e-05
7.31648e-05
7.07936e-05
6.85338e-05
6.63782e-05
6.432e-05
6.23532e-05
6.04719e-05
5.8671e-05
5.69456e-05
5.52913e-05
5.37039e-05
5.21796e-05
5.07148e-05
4.93063e-05
4.79509e-05
4.66457e-05
4.53881e-05
4.41756e-05
4.30059e-05
4.18768e-05
4.07863e-05
3.97326e-05
3.87139e-05
3.77284e-05
3.67747e-05
3.58512e-05
3.49566e-05
3.40896e-05
3.3249e-05
3.24337e-05
3.16425e-05
3.08745e-05
3.01287e-05
2.94041e-05
2.87e-05
2.80155e-05
2.73498e-05
2.67022e-05
2.6072e-05
2.54587e-05
2.48617e-05
2.42803e-05
2.3714e-05
2.31623e-05
2.26246e-05
2.21005e-05
2.15895e-05
2.10913e-05
2.06053e-05
2.01313e-05
1.96688e-05
1.92175e-05
1.87771e-05
1.83472e-05
1.79275e-05
1.75176e-05
1.71172e-05
1.67262e-05
1.63443e-05
1.59713e-05
1.5607e-05
1.52511e-05
1.49034e-05
1.45637e-05
1.42317e-05
1.39071e-05
1.35899e-05
1.32799e-05
1.29769e-05
1.26807e-05
1.23913e-05
1.21084e-05
1.18319e-05
1.15614e-05
1.1297e-05
1.10384e-05
1.07854e-05
1.05381e-05
1.02964e-05
1.00602e-05
9.82933e-06
9.60366e-06
9.38302e-06
9.16723e-06
8.95618e-06
8.74977e-06
8.54794e-06
8.35059e-06
8.15766e-06
7.96907e-06
7.78476e-06
7.60462e-06
7.42848e-06
7.25616e-06
7.08749e-06
6.92237e-06
6.76084e-06
6.60295e-06
6.44873e-06
6.2981e-06
6.15087e-06
6.00683e-06
5.86584e-06
5.72784e-06
5.59283e-06
5.46077e-06
5.33159e-06
5.20517e-06
5.08148e-06
4.96052e-06
4.84236e-06
4.72694e-06
4.61407e-06
4.50343e-06
4.39482e-06
4.28823e-06
4.18386e-06
4.08198e-06
3.9827e-06
3.88588e-06
3.79115e-06
3.6982e-06
3.60692e-06
3.5174e-06
3.42984e-06
3.34434e-06
3.26077e-06
3.17897e-06
3.09881e-06
3.02036e-06
2.94378e-06
2.86912e-06
2.79623e-06
2.72473e-06
2.65432e-06
2.58496e-06
2.51697e-06
2.45079e-06
2.3867e-06
2.32459e-06
2.26399e-06
2.20435e-06
2.1454e-06
2.08725e-06
2.03028e-06
1.97485e-06
1.92105e-06
1.86867e-06
1.81741e-06
1.76707e-06
1.71768e-06
1.66933e-06
1.62204e-06
1.57561e-06
1.52977e-06
1.48438e-06
1.4396e-06
1.39583e-06
1.35342e-06
1.31238e-06
1.27228e-06
1.23242e-06
1.19229e-06
1.15183e-06
1.1115e-06
1.07196e-06
1.03364e-06
9.96477e-07
9.5998e-07
9.23537e-07
8.86794e-07
8.49814e-07
8.12937e-07
7.76474e-07
7.40481e-07
7.04763e-07
6.69099e-07
6.3349e-07
5.9821e-07
5.63595e-07
5.29721e-07
4.96216e-07
4.62393e-07
4.27665e-07
3.91976e-07
3.55969e-07
3.20702e-07
2.87062e-07
2.55203e-07
2.24372e-07
1.93266e-07
1.60745e-07
1.26509e-07
9.13332e-08
5.67163e-08
2.41108e-08
-5.84e-09
-3.3639e-08
-6.06604e-08
-8.84123e-08
-1.17737e-07
-1.48369e-07
-1.79086e-07
-2.08333e-07
-2.35009e-07
-2.58983e-07
-2.81103e-07
-3.02724e-07
-3.25014e-07
-3.48395e-07
-3.72391e-07
-3.9592e-07
-4.17847e-07
-4.37523e-07
-4.55041e-07
-4.71122e-07
-4.86726e-07
-5.02582e-07
-5.18886e-07
-5.35271e-07
-5.51034e-07
-5.65494e-07
-5.78295e-07
-5.89525e-07
-5.99629e-07
-6.09175e-07
-6.18601e-07
-6.2805e-07
-6.37361e-07
-6.46193e-07
-6.54197e-07
-6.61185e-07
-6.67187e-07
-6.72422e-07
-6.77185e-07
-6.81732e-07
-6.86183e-07
-6.90514e-07
-6.94596e-07
-6.98272e-07
-7.0144e-07
-7.04087e-07
-7.06294e-07
-7.08196e-07
-7.09927e-07
-7.11579e-07
-7.13178e-07
-7.14695e-07
-7.1607e-07
-7.17246e-07
-7.18196e-07
-7.18931e-07
-7.19497e-07
-7.19959e-07
-7.20372e-07
-7.20778e-07
-7.2119e-07
-7.216e-07
-7.21984e-07
-7.22323e-07
-7.22601e-07
-7.2282e-07
-7.22988e-07
-7.23129e-07
-7.23258e-07
-7.23395e-07
-7.23543e-07
-7.23708e-07
-7.23877e-07
-7.24052e-07
-7.24214e-07
-7.24372e-07
-7.24511e-07
-7.2465e-07
-7.24776e-07
-7.24912e-07
-7.2504e-07
-7.25187e-07
-7.25324e-07
-7.25483e-07
-7.25624e-07
-7.25789e-07
-7.25927e-07
-7.26093e-07
-7.26225e-07
-7.26395e-07
-7.26522e-07
-7.26701e-07
-7.26823e-07
-7.27014e-07
-7.27132e-07
-7.27336e-07
-7.27446e-07
-7.27667e-07
-7.27763e-07
-7.28004e-07
-7.28082e-07
-7.28348e-07
-7.28404e-07
-7.28703e-07
-7.28729e-07
-7.29072e-07
-7.29059e-07
-7.29457e-07
-7.29392e-07
-7.29862e-07
-7.29731e-07
-7.30292e-07
-7.30074e-07
-7.30755e-07
-7.30422e-07
-7.31258e-07
-7.30778e-07
-7.31815e-07
-7.31143e-07
-7.32441e-07
-7.3152e-07
-7.33156e-07
-7.31914e-07
-7.33988e-07
-7.32332e-07
-7.34972e-07
-7.32782e-07
-7.36153e-07
-7.33281e-07
-7.37589e-07
-7.3385e-07
-7.3935e-07
-7.34525e-07
-7.41516e-07
-7.3536e-07
-7.44163e-07
-7.36441e-07
-7.47319e-07
-7.37903e-07
-7.50857e-07
-7.39941e-07
-7.54193e-07
-7.42812e-07
-7.55433e-07
-7.46767e-07
-7.48567e-07
-7.5181e-07
-7.11117e-07
-7.5603e-07
-4.81949e-07
-6.37778e-07
-6.37778e-07
-0.142153
0.142153
0.101004
0.0539129
0.0302564
0.0189183
0.0129276
0.00941299
0.00718006
0.00567715
0.00462067
0.00385167
0.00327517
0.00283167
0.00248249
0.00220183
0.00197201
0.00178072
0.00161917
0.00148103
0.0013616
0.00125738
0.00116567
0.0010844
0.00101194
0.00094697
0.000888436
0.000835471
0.000787355
0.000743488
0.000703364
0.000666552
0.000632683
0.000601441
0.000572551
0.000545774
0.000520903
0.000497753
0.000476165
0.000455995
0.000437118
0.000419421
0.000402803
0.000387176
0.00037246
0.00035858
0.000345474
0.000333081
0.000321348
0.000310228
0.000299676
0.000289651
0.000280119
0.000271044
0.000262398
0.00025415
0.000246277
0.000238754
0.000231559
0.000224673
0.000218076
0.000211752
0.000205684
0.000199858
0.00019426
0.000188878
0.0001837
0.000178714
0.000173911
0.00016928
0.000164813
0.000160503
0.00015634
0.000152318
0.000148429
0.000144669
0.00014103
0.000137507
0.000134094
0.000130787
0.000127582
0.000124473
0.000121456
0.000118529
0.000115686
0.000112924
0.000110241
0.000107633
0.000105097
0.00010263
0.00010023
9.78951e-05
9.56218e-05
9.34085e-05
9.12529e-05
8.91531e-05
8.71069e-05
8.51127e-05
8.31687e-05
8.12732e-05
7.94248e-05
7.7622e-05
7.58633e-05
7.41475e-05
7.2473e-05
7.08386e-05
6.92431e-05
6.76853e-05
6.61641e-05
6.46786e-05
6.32279e-05
6.18112e-05
6.04276e-05
5.90761e-05
5.77558e-05
5.64658e-05
5.52052e-05
5.39733e-05
5.27693e-05
5.15928e-05
5.0443e-05
4.93194e-05
4.82213e-05
4.71481e-05
4.60989e-05
4.50732e-05
4.40704e-05
4.30897e-05
4.2131e-05
4.11938e-05
4.02778e-05
3.93827e-05
3.85078e-05
3.76527e-05
3.68166e-05
3.59991e-05
3.51996e-05
3.44179e-05
3.36537e-05
3.29065e-05
3.21762e-05
3.14624e-05
3.07647e-05
3.00827e-05
2.94159e-05
2.87635e-05
2.81253e-05
2.75008e-05
2.68901e-05
2.62932e-05
2.57102e-05
2.51405e-05
2.45836e-05
2.40388e-05
2.35056e-05
2.29839e-05
2.24735e-05
2.19744e-05
2.14862e-05
2.10086e-05
2.05413e-05
2.00845e-05
1.9638e-05
1.92017e-05
1.87747e-05
1.83563e-05
1.79459e-05
1.75437e-05
1.71502e-05
1.6766e-05
1.63913e-05
1.60253e-05
1.5667e-05
1.53156e-05
1.49708e-05
1.46331e-05
1.43029e-05
1.39802e-05
1.36648e-05
1.3356e-05
1.30536e-05
1.27578e-05
1.24689e-05
1.2187e-05
1.19114e-05
1.1641e-05
1.13752e-05
1.1114e-05
1.08586e-05
1.061e-05
1.03687e-05
1.0134e-05
9.90438e-06
9.6785e-06
9.45582e-06
9.23689e-06
9.0228e-06
8.81434e-06
8.6115e-06
8.41355e-06
8.2196e-06
8.0292e-06
7.84241e-06
7.65941e-06
7.48008e-06
7.30379e-06
7.12983e-06
6.95801e-06
6.78893e-06
6.62362e-06
6.46276e-06
6.30595e-06
6.15169e-06
5.9981e-06
5.84405e-06
5.68979e-06
5.5368e-06
5.38681e-06
5.24063e-06
5.09771e-06
4.95643e-06
4.81519e-06
4.67328e-06
4.5311e-06
4.38965e-06
4.24969e-06
4.11119e-06
3.97358e-06
3.83636e-06
3.69972e-06
3.56441e-06
3.43117e-06
3.29985e-06
3.16916e-06
3.03725e-06
2.90295e-06
2.76671e-06
2.63075e-06
2.49797e-06
2.37027e-06
2.24731e-06
2.12643e-06
2.00407e-06
1.87772e-06
1.74753e-06
1.61646e-06
1.48887e-06
1.36827e-06
1.25552e-06
1.14834e-06
1.04263e-06
9.34609e-07
8.22873e-07
7.09125e-07
5.97296e-07
4.91539e-07
3.94189e-07
3.04702e-07
2.20091e-07
1.36535e-07
5.12991e-08
-3.60015e-08
-1.23371e-07
-2.07549e-07
-2.85643e-07
-3.5645e-07
-4.20866e-07
-4.81277e-07
-5.40316e-07
-5.99642e-07
-6.59293e-07
-7.17854e-07
-7.73261e-07
-8.23816e-07
-8.68911e-07
-9.0918e-07
-9.46099e-07
-9.81256e-07
-1.01569e-06
-1.04955e-06
-1.08219e-06
-1.11261e-06
-1.13994e-06
-1.16386e-06
-1.18468e-06
-1.20315e-06
-1.22014e-06
-1.23632e-06
-1.25191e-06
-1.26675e-06
-1.28044e-06
-1.29259e-06
-1.303e-06
-1.31174e-06
-1.31913e-06
-1.32559e-06
-1.33149e-06
-1.33705e-06
-1.34231e-06
-1.34716e-06
-1.35144e-06
-1.355e-06
-1.35782e-06
-1.35998e-06
-1.36165e-06
-1.36302e-06
-1.36425e-06
-1.36544e-06
-1.36661e-06
-1.36774e-06
-1.36874e-06
-1.36957e-06
-1.3702e-06
-1.37065e-06
-1.37096e-06
-1.3712e-06
-1.37142e-06
-1.37166e-06
-1.37193e-06
-1.37225e-06
-1.37257e-06
-1.37289e-06
-1.37316e-06
-1.37342e-06
-1.37362e-06
-1.37382e-06
-1.37398e-06
-1.37417e-06
-1.37434e-06
-1.37457e-06
-1.37476e-06
-1.37502e-06
-1.37521e-06
-1.37548e-06
-1.37565e-06
-1.37592e-06
-1.37607e-06
-1.37635e-06
-1.37648e-06
-1.37678e-06
-1.3769e-06
-1.37723e-06
-1.37733e-06
-1.3777e-06
-1.37776e-06
-1.37818e-06
-1.37819e-06
-1.37867e-06
-1.37862e-06
-1.37918e-06
-1.37905e-06
-1.37971e-06
-1.37948e-06
-1.38028e-06
-1.37992e-06
-1.38089e-06
-1.38036e-06
-1.38156e-06
-1.38081e-06
-1.3823e-06
-1.38127e-06
-1.38314e-06
-1.38174e-06
-1.38411e-06
-1.38223e-06
-1.38525e-06
-1.38276e-06
-1.38662e-06
-1.38333e-06
-1.38828e-06
-1.38396e-06
-1.39033e-06
-1.38468e-06
-1.3929e-06
-1.38554e-06
-1.39613e-06
-1.38658e-06
-1.40023e-06
-1.38791e-06
-1.40545e-06
-1.38964e-06
-1.41206e-06
-1.39198e-06
-1.42037e-06
-1.39524e-06
-1.4305e-06
-1.39984e-06
-1.44214e-06
-1.40641e-06
-1.45353e-06
-1.41559e-06
-1.45878e-06
-1.42763e-06
-1.43917e-06
-1.44052e-06
-1.32596e-06
-1.43963e-06
-6.86572e-07
-1.07799e-06
-1.07799e-06
-0.122226
0.122226
0.121663
0.0822678
0.0539947
0.036864
0.0263931
0.0197163
0.0152656
0.0121801
0.00996839
0.00833663
0.00710167
0.00614527
0.00538893
0.00477927
0.00427926
0.00386276
0.003511
0.00321027
0.00295041
0.00272376
0.00252445
0.00234794
0.00219064
0.00204967
0.00192272
0.00180788
0.00170359
0.00160853
0.0015216
0.00144186
0.00136851
0.00130085
0.00123829
0.00118031
0.00112646
0.00107634
0.0010296
0.000985934
0.000945069
0.000906759
0.000870789
0.000836963
0.000805108
0.000775067
0.000746698
0.000719876
0.000694483
0.000670416
0.000647578
0.000625885
0.000605256
0.000585619
0.000566908
0.000549063
0.000532027
0.00051575
0.000500183
0.000485284
0.000471013
0.000457331
0.000444206
0.000431604
0.000419496
0.000407856
0.000396656
0.000385873
0.000375486
0.000365473
0.000355816
0.000346496
0.000337496
0.000328802
0.000320397
0.000312269
0.000304404
0.00029679
0.000289416
0.000282271
0.000275345
0.000268628
0.000262112
0.000255788
0.000249648
0.000243685
0.00023789
0.000232259
0.000226783
0.000221458
0.000216278
0.000211237
0.000206331
0.000201555
0.000196903
0.000192372
0.000187958
0.000183656
0.000179463
0.000175374
0.000171388
0.0001675
0.000163708
0.000160009
0.000156399
0.000152875
0.000149436
0.000146079
0.0001428
0.0001396
0.000136474
0.000133422
0.000130441
0.00012753
0.000124686
0.000121908
0.000119193
0.00011654
0.000113948
0.000111415
0.00010894
0.000106522
0.000104158
0.000101848
9.95899e-05
9.73827e-05
9.52248e-05
9.31151e-05
9.10529e-05
8.90372e-05
8.70673e-05
8.51423e-05
8.32609e-05
8.1422e-05
7.96242e-05
7.78665e-05
7.61479e-05
7.44677e-05
7.28252e-05
7.12196e-05
6.96503e-05
6.81165e-05
6.66174e-05
6.5152e-05
6.37193e-05
6.23179e-05
6.09471e-05
5.96062e-05
5.82952e-05
5.70141e-05
5.57625e-05
5.45395e-05
5.33437e-05
5.2174e-05
5.10295e-05
4.99098e-05
4.88147e-05
4.77438e-05
4.66963e-05
4.56716e-05
4.46694e-05
4.36895e-05
4.27318e-05
4.17954e-05
4.08791e-05
3.99814e-05
3.91014e-05
3.82394e-05
3.73964e-05
3.65733e-05
3.57698e-05
3.49847e-05
3.4216e-05
3.34623e-05
3.27233e-05
3.19997e-05
3.12922e-05
3.06008e-05
2.99248e-05
2.9263e-05
2.86152e-05
2.79817e-05
2.73629e-05
2.67586e-05
2.61674e-05
2.55877e-05
2.50183e-05
2.44599e-05
2.3914e-05
2.33825e-05
2.28658e-05
2.23624e-05
2.18695e-05
2.1385e-05
2.09081e-05
2.04398e-05
1.99821e-05
1.95362e-05
1.91018e-05
1.86774e-05
1.82613e-05
1.78529e-05
1.74522e-05
1.70594e-05
1.66742e-05
1.62954e-05
1.59218e-05
1.55532e-05
1.51907e-05
1.48359e-05
1.44897e-05
1.41511e-05
1.38171e-05
1.34845e-05
1.31516e-05
1.28194e-05
1.24904e-05
1.21676e-05
1.18519e-05
1.1542e-05
1.12349e-05
1.0928e-05
1.06201e-05
1.03123e-05
1.00064e-05
9.70346e-06
9.40341e-06
9.10519e-06
8.80802e-06
8.51231e-06
8.2194e-06
7.93032e-06
7.64452e-06
7.3596e-06
7.07249e-06
6.7816e-06
6.48832e-06
6.19683e-06
5.91201e-06
5.63662e-06
5.36934e-06
5.10516e-06
4.83804e-06
4.5644e-06
4.28549e-06
4.00715e-06
3.73705e-06
3.48069e-06
3.23861e-06
3.00614e-06
2.77595e-06
2.54205e-06
2.30297e-06
2.06259e-06
1.82817e-06
1.60665e-06
1.4013e-06
1.21029e-06
1.02788e-06
8.4747e-07
6.64903e-07
4.80314e-07
2.97799e-07
1.23186e-07
-3.88412e-08
-1.8684e-07
-3.22997e-07
-4.51785e-07
-5.77692e-07
-7.03187e-07
-8.27822e-07
-9.48777e-07
-1.06242e-06
-1.16604e-06
-1.25901e-06
-1.34285e-06
-1.42032e-06
-1.49418e-06
-1.56605e-06
-1.63593e-06
-1.70253e-06
-1.76409e-06
-1.81926e-06
-1.86771e-06
-1.91021e-06
-1.94824e-06
-1.98336e-06
-2.01664e-06
-2.0484e-06
-2.07828e-06
-2.10556e-06
-2.12961e-06
-2.1502e-06
-2.16759e-06
-2.18241e-06
-2.19544e-06
-2.20735e-06
-2.21848e-06
-2.22885e-06
-2.23827e-06
-2.24644e-06
-2.25318e-06
-2.25849e-06
-2.26258e-06
-2.26576e-06
-2.26841e-06
-2.27079e-06
-2.27307e-06
-2.27526e-06
-2.2773e-06
-2.27908e-06
-2.28051e-06
-2.28155e-06
-2.28227e-06
-2.28274e-06
-2.28311e-06
-2.28343e-06
-2.28382e-06
-2.28425e-06
-2.28475e-06
-2.28523e-06
-2.28571e-06
-2.2861e-06
-2.28645e-06
-2.2867e-06
-2.28696e-06
-2.28715e-06
-2.28741e-06
-2.28761e-06
-2.28792e-06
-2.28816e-06
-2.28853e-06
-2.28876e-06
-2.28914e-06
-2.28934e-06
-2.28972e-06
-2.28987e-06
-2.29026e-06
-2.29037e-06
-2.29081e-06
-2.29089e-06
-2.29139e-06
-2.29142e-06
-2.292e-06
-2.29196e-06
-2.29263e-06
-2.29249e-06
-2.29328e-06
-2.29302e-06
-2.29395e-06
-2.29353e-06
-2.29467e-06
-2.29405e-06
-2.29545e-06
-2.29457e-06
-2.29632e-06
-2.2951e-06
-2.2973e-06
-2.29565e-06
-2.29842e-06
-2.2962e-06
-2.29974e-06
-2.29679e-06
-2.30131e-06
-2.29741e-06
-2.30323e-06
-2.2981e-06
-2.30559e-06
-2.29888e-06
-2.30854e-06
-2.2998e-06
-2.31228e-06
-2.30091e-06
-2.31705e-06
-2.3023e-06
-2.32317e-06
-2.3041e-06
-2.33106e-06
-2.30648e-06
-2.34122e-06
-2.30971e-06
-2.35424e-06
-2.3142e-06
-2.37073e-06
-2.32056e-06
-2.39107e-06
-2.32963e-06
-2.41478e-06
-2.34253e-06
-2.43875e-06
-2.36031e-06
-2.45233e-06
-2.3826e-06
-2.42145e-06
-2.40275e-06
-2.22385e-06
-2.37993e-06
-1.18777e-06
-1.68637e-06
-1.68637e-06
-0.0942782
0.0942782
0.121016
0.0969696
0.0717938
0.0531984
0.0402014
0.0311119
0.0246583
0.0199858
0.0165327
0.0139286
0.0119258
0.0103561
0.00910372
0.0080876
0.00725026
0.00655036
0.00595778
0.00545027
0.00501116
0.00462782
0.00429049
0.00399157
0.00372505
0.00348612
0.00327086
0.00307608
0.00289913
0.0027378
0.00259021
0.00245479
0.00233018
0.00221521
0.00210889
0.00201032
0.00191875
0.0018335
0.00175399
0.00167969
0.00161015
0.00154493
0.00148369
0.0014261
0.00137185
0.00132068
0.00127235
0.00122665
0.00118338
0.00114237
0.00110345
0.00106647
0.00103131
0.000997829
0.000965929
0.000935502
0.000906454
0.000878697
0.000852151
0.000826742
0.000802402
0.000779068
0.00075668
0.000735186
0.000714534
0.000694678
0.000675574
0.000657182
0.000639464
0.000622385
0.000605912
0.000590014
0.000574664
0.000559834
0.000545499
0.000531636
0.000518222
0.000505237
0.000492661
0.000480476
0.000468665
0.000457212
0.000446101
0.000435318
0.00042485
0.000414682
0.000404804
0.000395204
0.000385871
0.000376795
0.000367966
0.000359376
0.000351015
0.000342876
0.000334951
0.000327231
0.000319711
0.000312382
0.000305239
0.000298276
0.000291487
0.000284866
0.000278408
0.000272108
0.000265962
0.000259963
0.000254108
0.000248393
0.000242813
0.000237366
0.000232047
0.000226853
0.000221781
0.000216828
0.000211989
0.000207263
0.000202645
0.000198132
0.000193724
0.000189416
0.000185207
0.000181094
0.000177075
0.000173147
0.000169308
0.000165556
0.000161888
0.000158303
0.000154798
0.000151373
0.000148026
0.000144755
0.000141559
0.000138435
0.000135381
0.000132395
0.000129476
0.000126623
0.000123834
0.000121108
0.000118443
0.000115839
0.000113294
0.000110807
0.000108375
0.000105996
0.00010367
0.000101395
9.91712e-05
9.69981e-05
9.4875e-05
9.28004e-05
9.0772e-05
8.87879e-05
8.68469e-05
8.49483e-05
8.30916e-05
8.1276e-05
7.95002e-05
7.77634e-05
7.60647e-05
7.44039e-05
7.27805e-05
7.11933e-05
6.96401e-05
6.81187e-05
6.66279e-05
6.51681e-05
6.37407e-05
6.23467e-05
6.09857e-05
5.96553e-05
5.83527e-05
5.70758e-05
5.58244e-05
5.45993e-05
5.34016e-05
5.22311e-05
5.10864e-05
4.99661e-05
4.88696e-05
4.77972e-05
4.67496e-05
4.57263e-05
4.47251e-05
4.37437e-05
4.27805e-05
4.18363e-05
4.09137e-05
4.00151e-05
3.91407e-05
3.82882e-05
3.74533e-05
3.66328e-05
3.5826e-05
3.50344e-05
3.42609e-05
3.3507e-05
3.27719e-05
3.20532e-05
3.13485e-05
3.06567e-05
2.9978e-05
2.93125e-05
2.86596e-05
2.80174e-05
2.73843e-05
2.67599e-05
2.61459e-05
2.55445e-05
2.49565e-05
2.43802e-05
2.38111e-05
2.32445e-05
2.26784e-05
2.21142e-05
2.15558e-05
2.10074e-05
2.04699e-05
1.99411e-05
1.94164e-05
1.88921e-05
1.83668e-05
1.78423e-05
1.73211e-05
1.68049e-05
1.62934e-05
1.57849e-05
1.52783e-05
1.47743e-05
1.42748e-05
1.37812e-05
1.32925e-05
1.2805e-05
1.23146e-05
1.18194e-05
1.13216e-05
1.08278e-05
1.03447e-05
9.87594e-06
9.41906e-06
8.96656e-06
8.50989e-06
8.04456e-06
7.57323e-06
7.10497e-06
6.65091e-06
6.2185e-06
5.80773e-06
5.41123e-06
5.01834e-06
4.6209e-06
4.21769e-06
3.81513e-06
3.42407e-06
3.05427e-06
2.70975e-06
2.38707e-06
2.07744e-06
1.77143e-06
1.46356e-06
1.15476e-06
8.51511e-07
5.62353e-07
2.93721e-07
4.70865e-08
-1.81291e-07
-3.98168e-07
-6.0994e-07
-8.19783e-07
-1.02658e-06
-1.22594e-06
-1.41258e-06
-1.58286e-06
-1.73628e-06
-1.87542e-06
-2.0045e-06
-2.1275e-06
-2.24657e-06
-2.36151e-06
-2.47031e-06
-2.57041e-06
-2.66004e-06
-2.73897e-06
-2.80858e-06
-2.87114e-06
-2.92897e-06
-2.98357e-06
-3.03532e-06
-3.08363e-06
-3.12747e-06
-3.166e-06
-3.19899e-06
-3.22696e-06
-3.25093e-06
-3.27208e-06
-3.29136e-06
-3.30926e-06
-3.32579e-06
-3.34063e-06
-3.35339e-06
-3.36386e-06
-3.3721e-06
-3.37847e-06
-3.38347e-06
-3.38766e-06
-3.39142e-06
-3.395e-06
-3.39838e-06
-3.40148e-06
-3.40411e-06
-3.40619e-06
-3.40768e-06
-3.40869e-06
-3.40934e-06
-3.40984e-06
-3.41029e-06
-3.41083e-06
-3.41143e-06
-3.41213e-06
-3.41279e-06
-3.41344e-06
-3.41393e-06
-3.41438e-06
-3.41467e-06
-3.41498e-06
-3.41518e-06
-3.4155e-06
-3.41572e-06
-3.41613e-06
-3.41641e-06
-3.41688e-06
-3.41714e-06
-3.41764e-06
-3.41783e-06
-3.41833e-06
-3.41845e-06
-3.41898e-06
-3.41904e-06
-3.41963e-06
-3.41963e-06
-3.42033e-06
-3.42025e-06
-3.42107e-06
-3.42087e-06
-3.42184e-06
-3.42148e-06
-3.42263e-06
-3.42206e-06
-3.42346e-06
-3.42264e-06
-3.42437e-06
-3.42321e-06
-3.42537e-06
-3.42379e-06
-3.42651e-06
-3.42437e-06
-3.42783e-06
-3.42497e-06
-3.42938e-06
-3.42559e-06
-3.43124e-06
-3.42625e-06
-3.43352e-06
-3.42697e-06
-3.43634e-06
-3.42779e-06
-3.4399e-06
-3.42875e-06
-3.44442e-06
-3.42992e-06
-3.45022e-06
-3.4314e-06
-3.45769e-06
-3.43332e-06
-3.46738e-06
-3.43587e-06
-3.47995e-06