# vtk DataFile Version 2.0
FlowField
ASCII
DATASET STRUCTURED_GRID
DIMENSIONS 400 1 50
POINTS 20000 float
0 0 0
0.08 0 0
0.16 0 0
0.24 0 0
0.32 0 0
0.4 0 0
0.48 0 0
0.56 0 0
0.64 0 0
0.72 0 0
0.8 0 0
0.88 0 0
0.96 0 0
1.04 0 0
1.12 0 0
1.2 0 0
1.28 0 0
1.36 0 0
1.44 0 0
1.52 0 0
1.6 0 0
1.68 0 0
1.76 0 0
1.84 0 0
1.92 0 0
2 0 0
2.08 0 0
2.16 0 0
2.24 0 0
2.32 0 0
2.4 0 0
2.48 0 0
2.56 0 0
2.64 0 0
2.72 0 0
2.8 0 0
2.88 0 0
2.96 0 0
3.04 0 0
3.12 0 0
3.2 0 0
3.28 0 0
3.36 0 0
3.44 0 0
3.52 0 0
3.6 0 0
3.68 0 0
3.76 0 0
3.84 0 0
3.92 0 0
4 0 0
4.08 0 0
4.16 0 0
4.24 0 0
4.32 0 0
4.4 0 0
4.48 0 0
4.56 0 0
4.64 0 0
4.72 0 0
4.8 0 0
4.88 0 0
4.96 0 0
5.04 0 0
5.12 0 0
5.2 0 0
5.28 0 0
5.36 0 0
5.44 0 0
5.52 0 0
5.6 0 0
5.68 0 0
5.76 0 0
5.84 0 0
5.92 0 0
6 0 0
6.08 0 0
6.16 0 0
6.24 0 0
6.32 0 0
6.4 0 0
6.48 0 0
6.56 0 0
6.64 0 0
6.72 0 0
6.8 0 0
6.88 0 0
6.96 0 0
7.04 0 0
7.12 0 0
7.2 0 0
7.28 0 0
7.36 0 0
7.44 0 0
7.52 0 0
7.6 0 0
7.68 0 0
7.76 0 0
7.84 0 0
7.92 0 0
8 0 0
8.08 0 0
8.16 0 0
8.24 0 0
8.32 0 0
8.4 0 0
8.48 0 0
8.56 0 0
8.64 0 0
8.72 0 0
8.8 0 0
8.88 0 0
8.96 0 0
9.04 0 0
9.12 0 0
9.2 0 0
9.28 0 0
9.36 0 0
9.44 0 0
9.52 0 0
9.6 0 0
9.68 0 0
9.76 0 0
9.84 0 0
9.92 0 0
10 0 0
10.08 0 0
10.16 0 0
10.24 0 0
10.32 0 0
10.4 0 0
10.48 0 0
10.56 0 0
10.64 0 0
10.72 0 0
10.8 0 0
10.88 0 0
10.96 0 0
11.04 0 0
11.12 0 0
11.2 0 0
11.28 0 0
11.36 0 0
11.44 0 0
11.52 0 0
11.6 0 0
11.68 0 0
11.76 0 0
11.84 0 0
11.92 0 0
12 0 0
12.08 0 0
12.16 0 0
12.24 0 0
12.32 0 0
12.4 0 0
12.48 0 0
12.56 0 0
12.64 0 0
12.72 0 0
12.8 0 0
12.88 0 0
12.96 0 0
13.04 0 0
13.12 0 0
13.2 0 0
13.28 0 0
13.36 0 0
13.44 0 0
13.52 0 0
13.6 0 0
13.68 0 0
13.76 0 0
13.84 0 0
13.92 0 0
14 0 0
14.08 0 0
14.16 0 0
14.24 0 0
14.32 0 0
14.4 0 0
14.48 0 0
14.56 0 0
14.64 0 0
14.72 0 0
14.8 0 0
14.88 0 0
14.96 0 0
15.04 0 0
15.12 0 0
15.2 0 0
15.28 0 0
15.36 0 0
15.44 0 0
15.52 0 0
15.6 0 0
15.68 0 0
15.76 0 0
15.84 0 0
15.92 0 0
16 0 0
16.08 0 0
16.16 0 0
16.24 0 0
16.32 0 0
16.4 0 0
16.48 0 0
16.56 0 0
16.64 0 0
16.72 0 0
16.8 0 0
16.88 0 0
16.96 0 0
17.04 0 0
17.12 0 0
17.2 0 0
17.28 0 0
17.36 0 0
17.44 0 0
17.52 0 0
17.6 0 0
17.68 0 0
17.76 0 0
17.84 0 0
17.92 0 0
18 0 0
18.08 0 0
18.16 0 0
18.24 0 0
18.32 0 0
18.4 0 0
18.48 0 0
18.56 0 0
18.64 0 0
18.72 0 0
18.8 0 0
18.88 0 0
18.96 0 0
19.04 0 0
19.12 0 0
19.2 0 0
19.28 0 0
19.36 0 0
19.44 0 0
19.52 0 0
19.6 0 0
19.68 0 0
19.76 0 0
19.84 0 0
19.92 0 0
20 0 0
20.08 0 0
20.16 0 0
20.24 0 0
20.32 0 0
20.4 0 0
20.48 0 0
20.56 0 0
20.64 0 0
20.72 0 0
20.8 0 0
20.88 0 0
20.96 0 0
21.04 0 0
21.12 0 0
21.2 0 0
21.28 0 0
21.36 0 0
21.44 0 0
21.52 0 0
21.6 0 0
21.68 0 0
21.76 0 0
21.84 0 0
21.92 0 0
22 0 0
22.08 0 0
22.16 0 0
22.24 0 0
22.32 0 0
22.4 0 0
22.48 0 0
22.56 0 0
22.64 0 0
22.72 0 0
22.8 0 0
22.88 0 0
22.96 0 0
23.04 0 0
23.12 0 0
23.2 0 0
23.28 0 0
23.36 0 0
23.44 0 0
23.52 0 0
23.6 0 0
23.68 0 0
23.76 0 0
23.84 0 0
23.92 0 0
24 0 0
24.08 0 0
24.16 0 0
24.24 0 0
24.32 0 0
24.4 0 0
24.48 0 0
24.56 0 0
24.64 0 0
24.72 0 0
24.8 0 0
24.88 0 0
24.96 0 0
25.04 0 0
25.12 0 0
25.2 0 0
25.28 0 0
25.36 0 0
25.44 0 0
25.52 0 0
25.6 0 0
25.68 0 0
25.76 0 0
25.84 0 0
25.92 0 0
26 0 0
26.08 0 0
26.16 0 0
26.24 0 0
26.32 0 0
26.4 0 0
26.48 0 0
26.56 0 0
26.64 0 0
26.72 0 0
26.8 0 0
26.88 0 0
26.96 0 0
27.04 0 0
27.12 0 0
27.2 0 0
27.28 0 0
27.36 0 0
27.44 0 0
27.52 0 0
27.6 0 0
27.68 0 0
27.76 0 0
27.84 0 0
27.92 0 0
28 0 0
28.08 0 0
28.16 0 0
28.24 0 0
28.32 0 0
28.4 0 0
28.48 0 0
28.56 0 0
28.64 0 0
28.72 0 0
28.8 0 0
28.88 0 0
28.96 0 0
29.04 0 0
29.12 0 0
29.2 0 0
29.28 0 0
29.36 0 0
29.44 0 0
29.52 0 0
29.6 0 0
29.68 0 0
29.76 0 0
29.84 0 0
29.92 0 0
30 0 0
30.08 0 0
30.16 0 0
30.24 0 0
30.32 0 0
30.4 0 0
30.48 0 0
30.56 0 0
30.64 0 0
30.72 0 0
30.8 0 0
30.88 0 0
30.96 0 0
31.04 0 0
31.12 0 0
31.2 0 0
31.28 0 0
31.36 0 0
31.44 0 0
31.52 0 0
31.6 0 0
31.68 0 0
31.76 0 0
31.84 0 0
31.92 0 0
0 0.02 0
0.08 0.02 0
0.16 0.02 0
0.24 0.02 0
0.32 0.02 0
0.4 0.02 0
0.48 0.02 0
0.56 0.02 0
0.64 0.02 0
0.72 0.02 0
0.8 0.02 0
0.88 0.02 0
0.96 0.02 0
1.04 0.02 0
1.12 0.02 0
1.2 0.02 0
1.28 0.02 0
1.36 0.02 0
1.44 0.02 0
1.52 0.02 0
1.6 0.02 0
1.68 0.02 0
1.76 0.02 0
1.84 0.02 0
1.92 0.02 0
2 0.02 0
2.08 0.02 0
2.16 0.02 0
2.24 0.02 0
2.32 0.02 0
2.4 0.02 0
2.48 0.02 0
2.56 0.02 0
2.64 0.02 0
2.72 0.02 0
2.8 0.02 0
2.88 0.02 0
2.96 0.02 0
3.04 0.02 0
3.12 0.02 0
3.2 0.02 0
3.28 0.02 0
3.36 0.02 0
3.44 0.02 0
3.52 0.02 0
3.6 0.02 0
3.68 0.02 0
3.76 0.02 0
3.84 0.02 0
3.92 0.02 0
4 0.02 0
4.08 0.02 0
4.16 0.02 0
4.24 0.02 0
4.32 0.02 0
4.4 0.02 0
4.48 0.02 0
4.56 0.02 0
4.64 0.02 0
4.72 0.02 0
4.8 0.02 0
4.88 0.02 0
4.96 0.02 0
5.04 0.02 0
5.12 0.02 0
5.2 0.02 0
5.28 0.02 0
5.36 0.02 0
5.44 0.02 0
5.52 0.02 0
5.6 0.02 0
5.68 0.02 0
5.76 0.02 0
5.84 0.02 0
5.92 0.02 0
6 0.02 0
6.08 0.02 0
6.16 0.02 0
6.24 0.02 0
6.32 0.02 0
6.4 0.02 0
6.48 0.02 0
6.56 0.02 0
6.64 0.02 0
6.72 0.02 0
6.8 0.02 0
6.88 0.02 0
6.96 0.02 0
7.04 0.02 0
7.12 0.02 0
7.2 0.02 0
7.28 0.02 0
7.36 0.02 0
7.44 0.02 0
7.52 0.02 0
7.6 0.02 0
7.68 0.02 0
7.76 0.02 0
7.84 0.02 0
7.92 0.02 0
8 0.02 0
8.08 0.02 0
8.16 0.02 0
8.24 0.02 0
8.32 0.02 0
8.4 0.02 0
8.48 0.02 0
8.56 0.02 0
8.64 0.02 0
8.72 0.02 0
8.8 0.02 0
8.88 0.02 0
8.96 0.02 0
9.04 0.02 0
9.12 0.02 0
9.2 0.02 0
9.28 0.02 0
9.36 0.02 0
9.44 0.02 0
9.52 0.02 0
9.6 0.02 0
9.68 0.02 0
9.76 0.02 0
9.84 0.02 0
9.92 0.02 0
10 0.02 0
10.08 0.02 0
10.16 0.02 0
10.24 0.02 0
10.32 0.02 0
10.4 0.02 0
10.48 0.02 0
10.56 0.02 0
10.64 0.02 0
10.72 0.02 0
10.8 0.02 0
10.88 0.02 0
10.96 0.02 0
11.04 0.02 0
11.12 0.02 0
11.2 0.02 0
11.28 0.02 0
11.36 0.02 0
11.44 0.02 0
11.52 0.02 0
11.6 0.02 0
11.68 0.02 0
11.76 0.02 0
11.84 0.02 0
11.92 0.02 0
12 0.02 0
12.08 0.02 0
12.16 0.02 0
12.24 0.02 0
12.32 0.02 0
12.4 0.02 0
12.48 0.02 0
12.56 0.02 0
12.64 0.02 0
12.72 0.02 0
12.8 0.02 0
12.88 0.02 0
12.96 0.02 0
13.04 0.02 0
13.12 0.02 0
13.2 0.02 0
13.28 0.02 0
13.36 0.02 0
13.44 0.02 0
13.52 0.02 0
13.6 0.02 0
13.68 0.02 0
13.76 0.02 0
13.84 0.02 0
13.92 0.02 0
14 0.02 0
14.08 0.02 0
14.16 0.02 0
14.24 0.02 0
14.32 0.02 0
14.4 0.02 0
14.48 0.02 0
14.56 0.02 0
14.64 0.02 0
14.72 0.02 0
14.8 0.02 0
14.88 0.02 0
14.96 0.02 0
15.04 0.02 0
15.12 0.02 0
15.2 0.02 0
15.28 0.02 0
15.36 0.02 0
15.44 0.02 0
15.52 0.02 0
15.6 0.02 0
15.68 0.02 0
15.76 0.02 0
15.84 0.02 0
15.92 0.02 0
16 0.02 0
16.08 0.02 0
16.16 0.02 0
16.24 0.02 0
16.32 0.02 0
16.4 0.02 0
16.48 0.02 0
16.56 0.02 0
16.64 0.02 0
16.72 0.02 0
16.8 0.02 0
16.88 0.02 0
16.96 0.02 0
17.04 0.02 0
17.12 0.02 0
17.2 0.02 0
17.28 0.02 0
17.36 0.02 0
17.44 0.02 0
17.52 0.02 0
17.6 0.02 0
17.68 0.02 0
17.76 0.02 0
17.84 0.02 0
17.92 0.02 0
18 0.02 0
18.08 0.02 0
18.16 0.02 0
18.24 0.02 0
18.32 0.02 0
18.4 0.02 0
18.48 0.02 0
18.56 0.02 0
18.64 0.02 0
18.72 0.02 0
18.8 0.02 0
18.88 0.02 0
18.96 0.02 0
19.04 0.02 0
19.12 0.02 0
19.2 0.02 0
19.28 0.02 0
19.36 0.02 0
19.44 0.02 0
19.52 0.02 0
19.6 0.02 0
19.68 0.02 0
19.76 0.02 0
19.84 0.02 0
19.92 0.02 0
20 0.02 0
20.08 0.02 0
20.16 0.02 0
20.24 0.02 0
20.32 0.02 0
20.4 0.02 0
20.48 0.02 0
20.56 0.02 0
20.64 0.02 0
20.72 0.02 0
20.8 0.02 0
20.88 0.02 0
20.96 0.02 0
21.04 0.02 0
21.12 0.02 0
21.2 0.02 0
21.28 0.02 0
21.36 0.02 0
21.44 0.02 0
21.52 0.02 0
21.6 0.02 0
21.68 0.02 0
21.76 0.02 0
21.84 0.02 0
21.92 0.02 0
22 0.02 0
22.08 0.02 0
22.16 0.02 0
22.24 0.02 0
22.32 0.02 0
22.4 0.02 0
22.48 0.02 0
22.56 0.02 0
22.64 0.02 0
22.72 0.02 0
22.8 0.02 0
22.88 0.02 0
22.96 0.02 0
23.04 0.02 0
23.12 0.02 0
23.2 0.02 0
23.28 0.02 0
23.36 0.02 0
23.44 0.02 0
23.52 0.02 0
23.6 0.02 0
23.68 0.02 0
23.76 0.02 0
23.84 0.02 0
23.92 0.02 0
24 0.02 0
24.08 0.02 0
24.16 0.02 0
24.24 0.02 0
24.32 0.02 0
24.4 0.02 0
24.48 0.02 0
24.56 0.02 0
24.64 0.02 0
24.72 0.02 0
24.8 0.02 0
24.88 0.02 0
24.96 0.02 0
25.04 0.02 0
25.12 0.02 0
25.2 0.02 0
25.28 0.02 0
25.36 0.02 0
25.44 0.02 0
25.52 0.02 0
25.6 0.02 0
25.68 0.02 0
25.76 0.02 0
25.84 0.02 0
25.92 0.02 0
26 0.02 0
26.08 0.02 0
26.16 0.02 0
26.24 0.02 0
26.32 0.02 0
26.4 0.02 0
26.48 0.02 0
26.56 0.02 0
26.64 0.02 0
26.72 0.02 0
26.8 0.02 0
26.88 0.02 0
26.96 0.02 0
27.04 0.02 0
27.12 0.02 0
27.2 0.02 0
27.28 0.02 0
27.36 0.02 0
27.44 0.02 0
27.52 0.02 0
27.6 0.02 0
27.68 0.02 0
27.76 0.02 0
27.84 0.02 0
27.92 0.02 0
28 0.02 0
28.08 0.02 0
28.16 0.02 0
28.24 0.02 0
28.32 0.02 0
28.4 0.02 0
28.48 0.02 0
28.56 0.02 0
28.64 0.02 0
28.72 0.02 0
28.8 0.02 0
28.88 0.02 0
28.96 0.02 0
29.04 0.02 0
29.12 0.02 0
29.2 0.02 0
29.28 0.02 0
29.36 0.02 0
29.44 0.02 0
29.52 0.02 0
29.6 0.02 0
29.68 0.02 0
29.76 0.02 0
29.84 0.02 0
29.92 0.02 0
30 0.02 0
30.08 0.02 0
30.16 0.02 0
30.24 0.02 0
30.32 0.02 0
30.4 0.02 0
30.48 0.02 0
30.56 0.02 0
30.64 0.02 0
30.72 0.02 0
30.8 0.02 0
30.88 0.02 0
30.96 0.02 0
31.04 0.02 0
31.12 0.02 0
31.2 0.02 0
31.28 0.02 0
31.36 0.02 0
31.44 0.02 0
31.52 0.02 0
31.6 0.02 0
31.68 0.02 0
31.76 0.02 0
31.84 0.02 0
31.92 0.02 0
0 0.04 0
0.08 0.04 0
0.16 0.04 0
0.24 0.04 0
0.32 0.04 0
0.4 0.04 0
0.48 0.04 0
0.56 0.04 0
0.64 0.04 0
0.72 0.04 0
0.8 0.04 0
0.88 0.04 0
0.96 0.04 0
1.04 0.04 0
1.12 0.04 0
1.2 0.04 0
1.28 0.04 0
1.36 0.04 0
1.44 0.04 0
1.52 0.04 0
1.6 0.04 0
1.68 0.04 0
1.76 0.04 0
1.84 0.04 0
1.92 0.04 0
2 0.04 0
2.08 0.04 0
2.16 0.04 0
2.24 0.04 0
2.32 0.04 0
2.4 0.04 0
2.48 0.04 0
2.56 0.04 0
2.64 0.04 0
2.72 0.04 0
2.8 0.04 0
2.88 0.04 0
2.96 0.04 0
3.04 0.04 0
3.12 0.04 0
3.2 0.04 0
3.28 0.04 0
3.36 0.04 0
3.44 0.04 0
3.52 0.04 0
3.6 0.04 0
3.68 0.04 0
3.76 0.04 0
3.84 0.04 0
3.92 0.04 0
4 0.04 0
4.08 0.04 0
4.16 0.04 0
4.24 0.04 0
4.32 0.04 0
4.4 0.04 0
4.48 0.04 0
4.56 0.04 0
4.64 0.04 0
4.72 0.04 0
4.8 0.04 0
4.88 0.04 0
4.96 0.04 0
5.04 0.04 0
5.12 0.04 0
5.2 0.04 0
5.28 0.04 0
5.36 0.04 0
5.44 0.04 0
5.52 0.04 0
5.6 0.04 0
5.68 0.04 0
5.76 0.04 0
5.84 0.04 0
5.92 0.04 0
6 0.04 0
6.08 0.04 0
6.16 0.04 0
6.24 0.04 0
6.32 0.04 0
6.4 0.04 0
6.48 0.04 0
6.56 0.04 0
6.64 0.04 0
6.72 0.04 0
6.8 0.04 0
6.88 0.04 0
6.96 0.04 0
7.04 0.04 0
7.12 0.04 0
7.2 0.04 0
7.28 0.04 0
7.36 0.04 0
7.44 0.04 0
7.52 0.04 0
7.6 0.04 0
7.68 0.04 0
7.76 0.04 0
7.84 0.04 0
[...]
POINT_DATA 20000

SCALARS v float 1
LOOKUP_TABLE default
0
0
0
0
0
0
0
0
0
0
0
0
0
0
0
0
0
0
0
0
0
0
0
0
0
0
0
0
0
0
0
0
0
0
0
0
0
0
0
0
0
0
0
0
0
0
0
0
0
0
0
0
0
0
0
0
0
0
0
0
0
0
0
0
0
0
0
0
0
0
0
0
0
0
0
0
0
0
0
0
0
0
0
0
0
0
0
0
0
0
0
0
0
0
0
0
0
0
0
0
0
0
0
0
0
0
0
0
0
0
0
0
0
0
0
0
0
0
0
0
0
0
0
0
0
0
0
0
0
0
0
0
0
0
0
0
0
0
0
0
0
0
0
0
0
0
0
0
0
0
0
0
0
0
0
0
0
0
0
0
0
0
0
0
0
0
0
0
0
0
0
0
0
0
0
0
0
0
0
0
0
0
0
0
0
0
0
0
0
0
0
0
0
0
0
0
0
0
0
0
0
0
0
0
0
0
0
0
0
0
0
0
0
0
0
0
0
0
0
0
0
0
0
0
0
0
0
0
0
0
0
0
0
0
0
0
0
0
0
0
0
0
0
0
0
0
0
0
0
0
0
0
0
0
0
0
0
0
0
0
0
0
0
0
0
0
0
0
0
0
0
0
0
0
0
0
0
0
0
0
0
0
0
0
0
0
0
0
0
0
0
0
0
0
0
0
0
0
0
0
0
0
0
0
0
0
0
0
0
0
0
0
0
0
0
0
0
0
0
0
0
0
0
0
0
0
0
0
0
0
0
0
0
0
0
0
0
0
0
0
0
0
0
0
0
0
0
0
0
0
0
0
0
0
0
0
0
0
0
0
0
0
0
0
0
0
0
0
0
0
0
0
0
0
0
0
0
0
0
0
0
0
0
0
0
0
0
0
0
0
0
0
0
0
0
0
0
0
0
0
-0.123171
0.123171
0.0537306
0.0193755
0.00871854
0.00502447
0.00332205
0.00237127
0.00178117
0.00138972
0.00111726
0.000920286
0.000773265
0.000660433
0.000571675
0.000500306
0.000441791
0.000392989
0.000351681
0.00031627
0.000285588
0.000258764
0.000235129
0.000214159
0.000195433
0.000178611
0.00016342
0.000149641
0.000137103
0.000125669
0.000115226
0.000105667
9.68903e-05
8.87934e-05
8.12841e-05
7.42882e-05
6.77542e-05
6.16502e-05
5.59561e-05
5.06551e-05
4.57273e-05
4.11449e-05
3.68688e-05
3.28507e-05
2.90416e-05
2.5407e-05
2.19393e-05
1.86569e-05
1.55876e-05
1.27442e-05
1.01091e-05
7.63632e-06
5.27147e-06
2.97345e-06
7.26461e-07
-1.46204e-06
-3.57103e-06
-5.57461e-06
-7.44788e-06
-9.17384e-06
-1.07544e-05
-1.22202e-05
-1.36282e-05
-1.50407e-05
-1.64922e-05
-1.79653e-05
-1.93932e-05
-2.06929e-05
-2.18109e-05
-2.27552e-05
-2.35939e-05
-2.4423e-05
-2.53234e-05
-2.63297e-05
-2.74232e-05
-2.8545e-05
-2.9618e-05
-3.05703e-05
-3.13569e-05
-3.19806e-05
-3.25047e-05
-3.30445e-05
-3.37285e-05
-3.46376e-05
-3.57517e-05
-3.69386e-05
-3.80064e-05
-3.88009e-05
-3.9299e-05
-3.96412e-05
-4.00738e-05
-4.08264e-05
-4.19856e-05
-4.34397e-05
-4.49269e-05
-4.61662e-05
-4.69999e-05
-4.74718e-05
-4.7798e-05
-4.82496e-05
-4.9012e-05
-5.00941e-05
-5.13335e-05
-5.24873e-05
-5.33563e-05
-5.38782e-05
-5.41458e-05
-5.4349e-05
-5.46771e-05
-5.52332e-05
-5.59988e-05
-5.68598e-05
-5.7671e-05
-5.83258e-05
-5.87962e-05
-5.91319e-05
-5.94237e-05
-5.97549e-05
-6.0164e-05
-6.06334e-05
-6.11052e-05
-6.1512e-05
-6.18073e-05
-6.19841e-05
-6.20736e-05
-6.21298e-05
-6.22078e-05
-6.23441e-05
-6.25475e-05
-6.27996e-05
-6.30652e-05
-6.33053e-05
-6.34888e-05
-6.35998e-05
-6.36385e-05
-6.36178e-05
-6.35567e-05
-6.34747e-05
-6.3387e-05
-6.33024e-05
-6.32232e-05
-6.31474e-05
-6.30707e-05
-6.29884e-05
-6.28974e-05
-6.27963e-05
-6.26856e-05
-6.2567e-05
-6.24428e-05
-6.23154e-05
-6.21869e-05
-6.20584e-05
-6.19306e-05
-6.18037e-05
-6.16775e-05
-6.15517e-05
-6.14258e-05
-6.12995e-05
-6.11727e-05
-6.10452e-05
-6.09169e-05
-6.0788e-05
-6.06585e-05
-6.05285e-05
-6.03981e-05
-6.02672e-05
-6.0136e-05
-6.00044e-05
-5.98725e-05
-5.97403e-05
-5.96078e-05
-5.94749e-05
-5.93417e-05
-5.92082e-05
-5.90743e-05
-5.89401e-05
-5.88057e-05
-5.86709e-05
-5.85359e-05
-5.84005e-05
-5.82649e-05
-5.81291e-05
-5.7993e-05
-5.78567e-05
-5.77201e-05
-5.75833e-05
-5.74463e-05
-5.73091e-05
-5.71717e-05
-5.70341e-05
-5.68963e-05
-5.67584e-05
-5.66203e-05
-5.64821e-05
-5.63437e-05
-5.62052e-05
-5.60666e-05
-5.59278e-05
-5.5789e-05
-5.56501e-05
-5.55111e-05
-5.5372e-05
-5.52329e-05
-5.50937e-05
-5.49544e-05
-5.48151e-05
-5.46759e-05
-5.45365e-05
-5.43972e-05
-5.42579e-05
-5.41186e-05
-5.39793e-05
-5.38401e-05
-5.37009e-05
-5.35618e-05
-5.34227e-05
-5.32837e-05
-5.31448e-05
-5.30059e-05
-5.28672e-05
-5.27286e-05
-5.25901e-05
-5.24518e-05
-5.23135e-05
-5.21755e-05
-5.20376e-05
-5.18998e-05
-5.17623e-05
-5.16249e-05
-5.14877e-05
-5.13508e-05
-5.1214e-05
-5.10775e-05
-5.09413e-05
-5.08053e-05
-5.06695e-05
-5.0534e-05
-5.03988e-05
-5.02639e-05
-5.01292e-05
-4.99949e-05
-4.98609e-05
-4.97272e-05
-4.95938e-05
-4.94608e-05
-4.93282e-05
-4.91959e-05
-4.90639e-05
-4.89324e-05
-4.88012e-05
-4.86705e-05
-4.85401e-05
-4.84102e-05
-4.82807e-05
-4.81516e-05
-4.8023e-05
-4.78948e-05
-4.77671e-05
-4.76399e-05
-4.75131e-05
-4.73869e-05
-4.72611e-05
-4.71358e-05
-4.70111e-05
-4.68868e-05
-4.67631e-05
-4.664e-05
-4.65174e-05
-4.63953e-05
-4.62738e-05
-4.61529e-05
-4.60326e-05
-4.59128e-05
-4.57937e-05
-4.56751e-05
-4.55572e-05
-4.54399e-05
-4.53232e-05
-4.52072e-05
-4.50918e-05
-4.4977e-05
-4.48629e-05
-4.47495e-05
-4.46368e-05
-4.45247e-05
-4.44133e-05
-4.43026e-05
-4.41927e-05
-4.40834e-05
-4.39748e-05
-4.3867e-05
-4.37599e-05
-4.36536e-05
-4.3548e-05
-4.34431e-05
-4.3339e-05
-4.32357e-05
-4.31331e-05
-4.30313e-05
-4.29303e-05
-4.28301e-05
-4.27307e-05
-4.26321e-05
-4.25343e-05
-4.24373e-05
-4.23411e-05
-4.22458e-05
-4.21513e-05
-4.20576e-05
-4.19648e-05
-4.18728e-05
-4.17817e-05
-4.16914e-05
-4.1602e-05
-4.15135e-05
-4.14258e-05
-4.1339e-05
-4.12531e-05
-4.11681e-05
-4.1084e-05
-4.10008e-05
-4.09185e-05
-4.08371e-05
-4.07567e-05
-4.06771e-05
-4.05985e-05
-4.05207e-05
-4.0444e-05
-4.03681e-05
-4.02932e-05
-4.02192e-05
-4.01462e-05
-4.00741e-05
-4.00031e-05
-3.99328e-05
-3.98637e-05
-3.97954e-05
-3.97283e-05
-3.96618e-05
-3.95967e-05
-3.95322e-05
-3.94691e-05
-3.94064e-05
-3.93454e-05
-3.92846e-05
-3.92257e-05
-3.91667e-05
-3.91101e-05
-3.90528e-05
-3.89985e-05
-3.89429e-05
-3.8891e-05
-3.8837e-05
-3.87877e-05
-3.8735e-05
-3.86886e-05
-3.8637e-05
-3.85938e-05
-3.85429e-05
-3.85033e-05
-3.84527e-05
-3.84173e-05
-3.83665e-05
-3.83358e-05
-3.8284e-05
-3.82591e-05
-3.82052e-05
-3.81875e-05
-3.81298e-05
-3.81213e-05
-3.80576e-05
-3.80611e-05
-3.79879e-05
-3.80079e-05
-3.79203e-05
-3.79624e-05
-3.78541e-05
-3.79257e-05
-3.77887e-05
-3.78989e-05
-3.7724e-05
-3.78828e-05
-3.76597e-05
-3.78786e-05
-3.75946e-05
-3.78898e-05
-3.75237e-05
-3.79256e-05
-3.74314e-05
-3.8006e-05
-3.72864e-05
-3.8155e-05
-3.70549e-05
-3.83329e-05
-3.6791e-05
-3.81104e-05
-3.68444e-05
-3.3912e-05
-3.43191e-05
-3.43191e-05
-0.1421
0.1421
0.100939
0.0538432
0.0301843
0.0188446
0.0128527
0.00933713
0.00710333
0.00559962
0.0045424
0.00377274
0.00319565
0.0027516
0.00240193
0.0021208
0.00189056
0.00169888
0.00153698
0.00139852
0.00127882
0.00117438
0.00108252
0.00100111
0.000928506
0.000863358
0.000804599
0.000751372
0.000702992
0.000658901
0.000618624
0.00058173
0.000547816
0.000516506
0.000487475
0.000460463
0.000435282
0.000411802
0.000389924
0.000369553
0.000350588
0.000332904
0.000316354
0.000300771
0.000286005
0.000271959
0.000258612
0.00024601
0.000234205
0.000223199
0.000212902
0.000203164
0.000193827
0.000184787
0.000176016
0.000167545
0.000159437
0.000151758
0.000144565
0.000137877
0.000131656
0.000125785
0.000120091
0.000114417
0.000108706
0.000103047
9.76466e-05
9.27157e-05
8.8351e-05
8.44689e-05
8.08379e-05
7.71845e-05
7.33124e-05
6.91725e-05
6.48628e-05
6.05764e-05
5.65304e-05
5.28987e-05
4.97533e-05
4.70172e-05
4.44525e-05
4.17128e-05
3.84724e-05
3.45908e-05
3.02269e-05
2.58139e-05
2.18692e-05
1.87182e-05
1.62795e-05
1.4052e-05
1.13395e-05
7.61074e-06
2.80194e-06
-2.6144e-06
-7.84685e-06
-1.21797e-05
-1.53336e-05
-1.75962e-05
-1.96566e-05
-2.22361e-05
-2.57183e-05
-2.99696e-05
-3.44336e-05
-3.84316e-05
-4.15033e-05
-4.36132e-05
-4.51324e-05
-4.6628e-05
-4.85826e-05
-5.1186e-05
-5.42885e-05
-5.75156e-05
-6.0467e-05
-6.28972e-05
-6.47973e-05
-6.63561e-05
-6.78396e-05
-6.94555e-05
-7.1266e-05
-7.31811e-05
-7.50196e-05
-7.66023e-05
-7.7832e-05
-7.87275e-05
-7.9407e-05
-8.00338e-05
-8.0753e-05
-8.16433e-05
-8.26993e-05
-8.38452e-05
-8.49683e-05
-8.59583e-05
-8.67386e-05
-8.72805e-05
-8.76018e-05
-8.77519e-05
-8.77928e-05
-8.77817e-05
-8.77598e-05
-8.77477e-05
-8.77484e-05
-8.77531e-05
-8.77481e-05
-8.77212e-05
-8.76646e-05
-8.75764e-05
-8.74601e-05
-8.73221e-05
-8.71701e-05
-8.70114e-05
-8.68513e-05
-8.66934e-05
-8.6539e-05
-8.63884e-05
-8.62407e-05
-8.60945e-05
-8.59488e-05
-8.58027e-05
-8.56554e-05
-8.55069e-05
-8.53571e-05
-8.5206e-05
-8.50541e-05
-8.49014e-05
-8.47482e-05
-8.45947e-05
-8.44408e-05
-8.42867e-05
-8.41323e-05
-8.39776e-05
-8.38227e-05
-8.36675e-05
-8.35119e-05
-8.33561e-05
-8.31999e-05
-8.30434e-05
-8.28866e-05
-8.27295e-05
-8.25721e-05
-8.24145e-05
-8.22566e-05
-8.20984e-05
-8.19401e-05
-8.17815e-05
-8.16227e-05
-8.14637e-05
-8.13046e-05
-8.11452e-05
-8.09857e-05
-8.08261e-05
-8.06663e-05
-8.05064e-05
-8.03464e-05
-8.01862e-05
-8.0026e-05
-7.98657e-05
-7.97053e-05
-7.95448e-05
-7.93843e-05
-7.92238e-05
-7.90632e-05
-7.89026e-05
-7.8742e-05
-7.85814e-05
-7.84208e-05
-7.82602e-05
-7.80997e-05
-7.79393e-05
-7.77788e-05
-7.76185e-05
-7.74582e-05
-7.72981e-05
-7.7138e-05
-7.69781e-05
-7.68183e-05
-7.66586e-05
-7.64991e-05
-7.63397e-05
-7.61805e-05
-7.60215e-05
-7.58627e-05
-7.57041e-05
-7.55457e-05
-7.53875e-05
-7.52296e-05
-7.50719e-05
-7.49145e-05
-7.47573e-05
-7.46005e-05
-7.44439e-05
-7.42876e-05
-7.41316e-05
-7.3976e-05
-7.38207e-05
-7.36658e-05
-7.35112e-05
-7.33569e-05
-7.32031e-05
-7.30496e-05
-7.28966e-05
-7.27439e-05
-7.25917e-05
-7.24399e-05
-7.22885e-05
-7.21376e-05
-7.19872e-05
-7.18372e-05
-7.16877e-05
-7.15387e-05
-7.13902e-05
-7.12422e-05
-7.10948e-05
-7.09479e-05
-7.08015e-05
-7.06556e-05
-7.05104e-05
-7.03657e-05
-7.02215e-05
-7.0078e-05
-6.99351e-05
-6.97927e-05
-6.9651e-05
-6.951e-05
-6.93695e-05
-6.92297e-05
-6.90906e-05
-6.89521e-05
-6.88143e-05
-6.86772e-05
-6.85408e-05
-6.8405e-05
-6.827e-05
-6.81357e-05
-6.80021e-05
-6.78693e-05
-6.77372e-05
-6.76058e-05
-6.74752e-05
-6.73454e-05
-6.72164e-05
-6.70881e-05
-6.69606e-05
-6.68339e-05
-6.67081e-05
-6.6583e-05
-6.64588e-05
-6.63354e-05
-6.62128e-05
-6.60911e-05
-6.59702e-05
-6.58502e-05
-6.5731e-05
-6.56128e-05
-6.54954e-05
-6.53789e-05
-6.52632e-05
-6.51485e-05
-6.50347e-05
-6.49218e-05
-6.48098e-05
-6.46988e-05
-6.45887e-05
-6.44795e-05
-6.43713e-05
-6.4264e-05
-6.41577e-05
-6.40523e-05
-6.39479e-05
-6.38445e-05
-6.37421e-05
-6.36406e-05
-6.35402e-05
-6.34407e-05
-6.33423e-05
-6.32448e-05
-6.31484e-05
-6.30529e-05
-6.29585e-05
-6.28652e-05
-6.27728e-05
-6.26815e-05
-6.25913e-05
-6.2502e-05
-6.24139e-05
-6.23267e-05
-6.22407e-05
-6.21557e-05
-6.20718e-05
-6.19889e-05
-6.19072e-05
-6.18264e-05
-6.17469e-05
-6.16682e-05
-6.1591e-05
-6.15144e-05
-6.14394e-05
-6.13649e-05
-6.12923e-05
-6.12199e-05
-6.11497e-05
-6.10792e-05
-6.10115e-05
-6.0943e-05
-6.08779e-05
-6.08112e-05
-6.07488e-05
-6.06839e-05
-6.06244e-05
-6.05609e-05
-6.05047e-05
-6.04424e-05
-6.03898e-05
-6.03283e-05
-6.02798e-05
-6.02184e-05
-6.01749e-05
-6.01127e-05
-6.00752e-05
-6.00111e-05
-5.9981e-05
-5.99136e-05
-5.98924e-05
-5.98198e-05
-5.98099e-05
-5.97297e-05
-5.9734e-05
-5.96428e-05
-5.96657e-05
-5.95584e-05
-5.96061e-05
-5.94752e-05
-5.95574e-05
-5.93917e-05
-5.95221e-05
-5.93061e-05
-5.95033e-05
-5.92163e-05
-5.95042e-05
-5.91209e-05
-5.95279e-05
-5.90193e-05
-5.95774e-05
-5.8911e-05
-5.96568e-05
-5.87925e-05
-5.97773e-05
-5.86474e-05
-5.99689e-05
-5.84269e-05
-6.02956e-05
-5.80305e-05
-6.0835e-05
-5.73485e-05
-6.14659e-05
-5.65289e-05
-6.08991e-05
-5.65082e-05
-4.99438e-05
-5.04641e-05
-5.04641e-05
-0.122181
0.122181
0.121597
0.0821961
0.0539202
0.0367874
0.026315
0.0196368
0.0151846
0.0120978
0.00988473
0.00825172
0.00701561
0.00605813
0.00530076
0.0046901
0.00418915
0.00377178
0.00341923
0.00311783
0.00285743
0.00263036
0.00243073
0.00225392
0.00209628
0.00195489
0.00182745
0.00171206
0.00160723
0.00151171
0.00142442
0.00134442
0.00127083
0.00120287
0.00113986
0.00108128
0.00102673
0.00097592
0.000928593
0.000884519
0.000843451
0.000805107
0.000769175
0.000735329
0.000703284
0.000672855
0.000643998
0.000616765
0.000591214
0.000567296
0.000544821
0.000523499
0.000503056
0.000483321
0.000464259
0.000445935
0.000428454
0.000411917
0.000396394
0.000381888
0.000368295
0.000355382
0.000342842
0.000330419
0.000318047
0.000305919
0.000294396
0.000283819
0.000274296
0.000265621
0.000257355
0.000249025
0.000240326
0.000231223
0.000221933
0.00021281
0.000204222
0.00019643
0.000189495
0.000183212
0.000177112
0.000170581
0.000163095
0.000154496
0.000145153
0.000135861
0.000127483
0.000120472
0.000114551
0.000108763
0.000101917
9.32182e-05
8.274e-05
7.14537e-05
6.07772e-05
5.18696e-05
4.50516e-05
3.96652e-05
3.44437e-05
2.81855e-05
2.03653e-05
1.13698e-05
2.25565e-06
-5.81415e-06
-1.21483e-05
-1.6827e-05
-2.06021e-05
-2.44848e-05
-2.92554e-05
-3.51378e-05
-4.17713e-05
-4.84523e-05
-5.44961e-05
-5.95342e-05
-6.36217e-05
-6.71365e-05
-7.05505e-05
-7.4197e-05
-7.81393e-05
-8.21822e-05
-8.59971e-05
-8.92885e-05
-9.19235e-05
-9.3976e-05
-9.56801e-05
-9.73271e-05
-9.91542e-05
-0.000101268
-0.000103625
-0.000106067
-0.000108384
-0.000110388
-0.00011196
-0.000113071
-0.000113773
-0.000114169
-0.000114376
-0.000114499
-0.000114606
-0.000114729
-0.000114869
-0.000115007
-0.000115118
-0.000115182
-0.000115186
-0.000115131
-0.000115024
-0.000114879
-0.000114711
-0.000114533
-0.000114355
-0.000114182
-0.000114017
-0.000113859
-0.000113707
-0.000113557
-0.000113409
-0.000113259
-0.000113108
-0.000112955
-0.000112799
-0.000112642
-0.000112484
-0.000112324
-0.000112164
-0.000112004
-0.000111843
-0.000111682
-0.000111522
-0.000111361
-0.000111199
-0.000111038
-0.000110876
-0.000110714
-0.000110551
-0.000110388
-0.000110225
-0.000110061
-0.000109898
-0.000109733
-0.000109569
-0.000109405
-0.00010924
-0.000109075
-0.00010891
-0.000108744
-0.000108579
-0.000108413
-0.000108247
-0.000108081
-0.000107915
-0.000107749
-0.000107582
-0.000107416
-0.000107249
-0.000107083
-0.000106916
-0.000106749
-0.000106582
-0.000106416
-0.000106249
-0.000106082
-0.000105915
-0.000105748
-0.000105582
-0.000105415
-0.000105248
-0.000105082
-0.000104915
-0.000104749
-0.000104583
-0.000104417
-0.000104251
-0.000104085
-0.000103919
-0.000103753
-0.000103588
-0.000103423
-0.000103258
-0.000103093
-0.000102928
-0.000102764
-0.0001026
-0.000102436
-0.000102273
-0.000102109
-0.000101947
-0.000101784
-0.000101621
-0.000101459
-0.000101298
-0.000101136
-0.000100975
-0.000100815
-0.000100655
-0.000100495
-0.000100335
-0.000100176
-0.000100018
-9.98597e-05
-9.9702e-05
-9.95448e-05
-9.9388e-05
-9.92318e-05
-9.9076e-05
-9.89207e-05
-9.87659e-05
-9.86117e-05
-9.8458e-05
-9.83048e-05
-9.81522e-05
-9.80002e-05
-9.78487e-05
-9.76978e-05
-9.75475e-05
-9.73979e-05
-9.72488e-05
-9.71003e-05
-9.69525e-05
-9.68054e-05
-9.66589e-05
-9.6513e-05
-9.63679e-05
-9.62234e-05
-9.60796e-05
-9.59365e-05
-9.57941e-05
-9.56524e-05
-9.55115e-05
-9.53713e-05
-9.52319e-05
-9.50932e-05
-9.49552e-05
-9.48181e-05
-9.46817e-05
-9.45461e-05
-9.44113e-05
-9.42773e-05
-9.41442e-05
-9.40118e-05
-9.38803e-05
-9.37497e-05
-9.36198e-05
-9.34909e-05
-9.33628e-05
-9.32355e-05
-9.31092e-05
-9.29837e-05
-9.28591e-05
-9.27354e-05
-9.26127e-05
-9.24908e-05
-9.23699e-05
-9.22499e-05
-9.21308e-05
-9.20127e-05
-9.18955e-05
-9.17793e-05
-9.1664e-05
-9.15497e-05
-9.14364e-05
-9.1324e-05
-9.12127e-05
-9.11023e-05
-9.0993e-05
-9.08846e-05
-9.07773e-05
-9.0671e-05
-9.05657e-05
-9.04614e-05
-9.03581e-05
-9.02559e-05
-9.01548e-05
-9.00547e-05
-8.99556e-05
-8.98576e-05
-8.97607e-05
-8.96648e-05
-8.957e-05
-8.94763e-05
-8.93836e-05
-8.92921e-05
-8.92016e-05
-8.91123e-05
-8.9024e-05
-8.89369e-05
-8.88507e-05
-8.87659e-05
-8.8682e-05
-8.85994e-05
-8.85176e-05
-8.84374e-05
-8.83578e-05
-8.828e-05
-8.82025e-05
-8.81271e-05
-8.80516e-05
-8.79788e-05
-8.79054e-05
-8.78352e-05
-8.77636e-05
-8.76963e-05
-8.76264e-05
-8.75622e-05
-8.74938e-05
-8.74328e-05
-8.73657e-05
-8.73084e-05
-8.7242e-05
-8.71889e-05
-8.71228e-05
-8.70747e-05
-8.70078e-05
-8.69658e-05
-8.6897e-05
-8.68626e-05
-8.67901e-05
-8.67654e-05
-8.6687e-05
-8.66746e-05
-8.65874e-05
-8.65906e-05
-8.64911e-05
-8.65141e-05
-8.63976e-05
-8.64462e-05
-8.63059e-05
-8.63887e-05
-8.62147e-05
-8.63444e-05
-8.61215e-05
-8.6317e-05
-8.60233e-05
-8.63118e-05
-8.59164e-05
-8.63345e-05
-8.57975e-05
-8.63911e-05
-8.5664e-05
-8.64873e-05
-8.55152e-05
-8.6629e-05
-8.535e-05
-8.68257e-05
-8.516e-05
-8.71015e-05
-8.49105e-05
-8.75191e-05
-8.45039e-05
-8.82052e-05
-8.37504e-05
-8.93002e-05
-8.24638e-05
-9.05474e-05
-8.09499e-05
-8.96449e-05
-8.06609e-05
-7.32191e-05
-7.03849e-05
-7.03849e-05
-0.0942404
0.0942404
0.120952
0.0968976
0.0717183
0.053121
0.0401227
0.031032
0.0245768
0.0199025
0.0164477
0.0138418
0.0118373
0.010266
0.0090121
0.0079944
0.00715548
0.00645407
0.00586012
0.00535147
0.00491149
0.0045275
0.00418968
0.0038903
0.00362324
0.00338363
0.00316757
0.00297192
0.00279414
0.00263208
0.00248391
0.00234799
0.00222286
0.00210722
0.00199999
0.00190031
0.00180753
0.00172113
0.00164067
0.00156573
0.00149584
0.00143052
0.00136927
0.00131155
0.00125694
0.00120514
0.00115606
0.00110974
0.00106621
0.00102536
0.000986841
0.000950236
0.000915145
0.000881339
0.000848786
0.000817583
0.000787873
0.000759779
0.000733363
0.000708593
0.00068528
0.000663068
0.000641507
0.000620243
0.000599211
0.000578704
0.000559243
0.000541279
0.000524914
0.000509794
0.000495258
0.00048063
0.000465512
0.000449906
0.000434163
0.000418807
0.000404347
0.000391107
0.000379106
0.000367984
0.000357023
0.000345332
0.0003322
0.000317468
0.000301733
0.000286168
0.000271974
0.000259705
0.000248849
0.000237968
0.000225376
0.000210057
0.000192284
0.000173592
0.00015606
0.000141283
0.000129574
0.000119844
0.000110207
9.89781e-05
8.55301e-05
7.05596e-05
5.56681e-05
4.25116e-05
3.19816e-05
2.38272e-05
1.68651e-05
9.61597e-06
1.01434e-06
-9.15712e-06
-2.02779e-05
-3.12806e-05
-4.11866e-05
-4.95203e-05
-5.64302e-05
-6.25108e-05
-6.84542e-05
-7.47174e-05
-8.13517e-05
-8.80424e-05
-9.4307e-05
-9.97387e-05
-0.000104184
-0.000107789
-0.000110917
-0.00011399
-0.000117329
-0.000121052
-0.000125059
-0.000129092
-0.000132839
-0.000136031
-0.000138518
-0.000140282
-0.000141426
-0.000142117
-0.000142537
-0.000142839
-0.000143121
-0.000143424
-0.000143745
-0.000144052
-0.000144308
-0.000144482
-0.000144562
-0.00014455
-0.00014446
-0.000144314
-0.000144137
-0.000143947
-0.000143758
-0.00014358
-0.000143413
-0.000143258
-0.000143112
-0.000142969
-0.000142828
-0.000142685
-0.00014254
-0.000142392
-0.00014224
-0.000142086
-0.000141931
-0.000141774
-0.000141616
-0.000141459
-0.000141301
-0.000141143
-0.000140985
-0.000140827
-0.000140669
-0.000140511
-0.000140352
-0.000140193
-0.000140034
-0.000139874
-0.000139713
-0.000139553
-0.000139392
-0.000139231
-0.00013907
-0.000138908
-0.000138746
-0.000138584
-0.000138422
-0.000138259
-0.000138096
-0.000137933
-0.00013777
-0.000137607
-0.000137444
-0.00013728
-0.000137117
-0.000136953
-0.000136789
-0.000136625
-0.000136461
-0.000136297
-0.000136133
-0.000135969
-0.000135805
-0.000135641
-0.000135477
-0.000135313
-0.000135149
-0.000134985
-0.000134821
-0.000134657
-0.000134493
-0.000134329
-0.000134165
-0.000134002
-0.000133838
-0.000133675
-0.000133512
-0.000133349
-0.000133186
-0.000133023
-0.000132861
-0.000132699
-0.000132537
-0.000132375
-0.000132213
-0.000132052
-0.000131891
-0.00013173
-0.00013157
-0.000131409
-0.000131249
-0.00013109
-0.000130931
-0.000130772
-0.000130613
-0.000130455
-0.000130297
-0.00013014
-0.000129983
-0.000129826
-0.00012967
-0.000129514
-0.000129359
-0.000129204
-0.00012905
-0.000128896
-0.000128743
-0.00012859
-0.000128437
-0.000128285
-0.000128134
-0.000127983
-0.000127833
-0.000127683
-0.000127534
-0.000127386
-0.000127238
-0.00012709
-0.000126944
-0.000126797
-0.000126652
-0.000126507
-0.000126363
-0.000126219
-0.000126076
-0.000125934
-0.000125793
-0.000125652
-0.000125512
-0.000125372
-0.000125234
-0.000125096
-0.000124959
-0.000124822
-0.000124687
-0.000124552
-0.000124417
-0.000124284
-0.000124152
-0.00012402
-0.000123889
-0.000123759
-0.000123629
-0.000123501
-0.000123373
-0.000123246
-0.000123121
-0.000122995
-0.000122871
-0.000122748
-0.000122626
-0.000122504
-0.000122383
-0.000122264
-0.000122145
-0.000122027
-0.00012191
-0.000121794
-0.000121679
-0.000121565
-0.000121452
-0.000121339
-0.000121228
-0.000121118
-0.000121009
-0.0001209
-0.000120793
-0.000120687
-0.000120581
-0.000120477
-0.000120374
-0.000120271
-0.00012017
-0.00012007
-0.000119971
-0.000119872
-0.000119775
-0.000119679
-0.000119584
-0.00011949
-0.000119397
-0.000119306
-0.000119215
-0.000119125
-0.000119036
-0.000118949
-0.000118862