# vtk DataFile Version 2.0
FlowField
ASCII
DATASET STRUCTURED_GRID
DIMENSIONS 400 1 50
POINTS 20000 float
0 0 0
0.08 0 0
0.16 0 0
0.24 0 0
0.32 0 0
0.4 0 0
0.48 0 0
0.56 0 0
0.64 0 0
0.72 0 0
0.8 0 0
0.88 0 0
0.96 0 0
1.04 0 0
1.12 0 0
1.2 0 0
1.28 0 0
1.36 0 0
1.44 0 0
1.52 0 0
1.6 0 0
1.68 0 0
1.76 0 0
1.84 0 0
1.92 0 0
2 0 0
2.08 0 0
2.16 0 0
2.24 0 0
2.32 0 0
2.4 0 0
2.48 0 0
2.56 0 0
2.64 0 0
2.72 0 0
2.8 0 0
2.88 0 0
2.96 0 0
3.04 0 0
3.12 0 0
3.2 0 0
3.28 0 0
3.36 0 0
3.44 0 0
3.52 0 0
3.6 0 0
3.68 0 0
3.76 0 0
3.84 0 0
3.92 0 0
4 0 0
4.08 0 0
4.16 0 0
4.24 0 0
4.32 0 0
4.4 0 0
4.48 0 0
4.56 0 0
4.64 0 0
4.72 0 0
4.8 0 0
4.88 0 0
4.96 0 0
5.04 0 0
5.12 0 0
5.2 0 0
5.28 0 0
5.36 0 0
5.44 0 0
5.52 0 0
5.6 0 0
5.68 0 0
5.76 0 0
5.84 0 0
5.92 0 0
6 0 0
6.08 0 0
6.16 0 0
6.24 0 0
6.32 0 0
6.4 0 0
6.48 0 0
6.56 0 0
6.64 0 0
6.72 0 0
6.8 0 0
6.88 0 0
6.96 0 0
7.04 0 0
7.12 0 0
7.2 0 0
7.28 0 0
7.36 0 0
7.44 0 0
7.52 0 0
7.6 0 0
7.68 0 0
7.76 0 0
7.84 0 0
7.92 0 0
8 0 0
8.08 0 0
8.16 0 0
8.24 0 0
8.32 0 0
8.4 0 0
8.48 0 0
8.56 0 0
8.64 0 0
8.72 0 0
8.8 0 0
8.88 0 0
8.96 0 0
9.04 0 0
9.12 0 0
9.2 0 0
9.28 0 0
9.36 0 0
9.44 0 0
9.52 0 0
9.6 0 0
9.68 0 0
9.76 0 0
9.84 0 0
9.92 0 0
10 0 0
10.08 0 0
10.16 0 0
10.24 0 0
10.32 0 0
10.4 0 0
10.48 0 0
10.56 0 0
10.64 0 0
10.72 0 0
10.8 0 0
10.88 0 0
10.96 0 0
11.04 0 0
11.12 0 0
11.2 0 0
11.28 0 0
11.36 0 0
11.44 0 0
11.52 0 0
11.6 0 0
11.68 0 0
11.76 0 0
11.84 0 0
11.92 0 0
12 0 0
12.08 0 0
12.16 0 0
12.24 0 0
12.32 0 0
12.4 0 0
12.48 0 0
12.56 0 0
12.64 0 0
12.72 0 0
12.8 0 0
12.88 0 0
12.96 0 0
13.04 0 0
13.12 0 0
13.2 0 0
13.28 0 0
13.36 0 0
13.44 0 0
13.52 0 0
13.6 0 0
13.68 0 0
13.76 0 0
13.84 0 0
13.92 0 0
14 0 0
14.08 0 0
14.16 0 0
14.24 0 0
14.32 0 0
14.4 0 0
14.48 0 0
14.56 0 0
14.64 0 0
14.72 0 0
14.8 0 0
14.88 0 0
14.96 0 0
15.04 0 0
15.12 0 0
15.2 0 0
15.28 0 0
15.36 0 0
15.44 0 0
15.52 0 0
15.6 0 0
15.68 0 0
15.76 0 0
15.84 0 0
15.92 0 0
16 0 0
16.08 0 0
16.16 0 0
16.24 0 0
16.32 0 0
16.4 0 0
16.48 0 0
16.56 0 0
16.64 0 0
16.72 0 0
16.8 0 0
16.88 0 0
16.96 0 0
17.04 0 0
17.12 0 0
17.2 0 0
17.28 0 0
17.36 0 0
17.44 0 0
17.52 0 0
17.6 0 0
17.68 0 0
17.76 0 0
17.84 0 0
17.92 0 0
18 0 0
18.08 0 0
18.16 0 0
18.24 0 0
18.32 0 0
18.4 0 0
18.48 0 0
18.56 0 0
18.64 0 0
18.72 0 0
18.8 0 0
18.88 0 0
18.96 0 0
19.04 0 0
19.12 0 0
19.2 0 0
19.28 0 0
19.36 0 0
19.44 0 0
19.52 0 0
19.6 0 0
19.68 0 0
19.76 0 0
19.84 0 0
19.92 0 0
20 0 0
20.08 0 0
20.16 0 0
20.24 0 0
20.32 0 0
20.4 0 0
20.48 0 0
20.56 0 0
20.64 0 0
20.72 0 0
20.8 0 0
20.88 0 0
20.96 0 0
21.04 0 0
21.12 0 0
21.2 0 0
21.28 0 0
21.36 0 0
21.44 0 0
21.52 0 0
21.6 0 0
21.68 0 0
21.76 0 0
21.84 0 0
21.92 0 0
22 0 0
22.08 0 0
22.16 0 0
22.24 0 0
22.32 0 0
22.4 0 0
22.48 0 0
22.56 0 0
22.64 0 0
22.72 0 0
22.8 0 0
22.88 0 0
22.96 0 0
23.04 0 0
23.12 0 0
23.2 0 0
23.28 0 0
23.36 0 0
23.44 0 0
23.52 0 0
23.6 0 0
23.68 0 0
23.76 0 0
23.84 0 0
23.92 0 0
24 0 0
24.08 0 0
24.16 0 0
24.24 0 0
24.32 0 0
24.4 0 0
24.48 0 0
24.56 0 0
24.64 0 0
24.72 0 0
24.8 0 0
24.88 0 0
24.96 0 0
25.04 0 0
25.12 0 0
25.2 0 0
25.28 0 0
25.36 0 0
25.44 0 0
25.52 0 0
25.6 0 0
25.68 0 0
25.76 0 0
25.84 0 0
25.92 0 0
26 0 0
26.08 0 0
26.16 0 0
26.24 0 0
26.32 0 0
26.4 0 0
26.48 0 0
26.56 0 0
26.64 0 0
26.72 0 0
26.8 0 0
26.88 0 0
26.96 0 0
27.04 0 0
27.12 0 0
27.2 0 0
27.28 0 0
27.36 0 0
27.44 0 0
27.52 0 0
27.6 0 0
27.68 0 0
27.76 0 0
27.84 0 0
27.92 0 0
28 0 0
28.08 0 0
28.16 0 0
28.24 0 0
28.32 0 0
28.4 0 0
28.48 0 0
28.56 0 0
28.64 0 0
28.72 0 0
28.8 0 0
28.88 0 0
28.96 0 0
29.04 0 0
29.12 0 0
29.2 0 0
29.28 0 0
29.36 0 0
29.44 0 0
29.52 0 0
29.6 0 0
29.68 0 0
29.76 0 0
29.84 0 0
29.92 0 0
30 0 0
30.08 0 0
30.16 0 0
30.24 0 0
30.32 0 0
30.4 0 0
30.48 0 0
30.56 0 0
30.64 0 0
30.72 0 0
30.8 0 0
30.88 0 0
30.96 0 0
31.04 0 0
31.12 0 0
31.2 0 0
31.28 0 0
31.36 0 0
31.44 0 0
31.52 0 0
31.6 0 0
31.68 0 0
31.76 0 0
31.84 0 0
31.92 0 0
0 0.02 0
0.08 0.02 0
0.16 0.02 0
0.24 0.02 0
0.32 0.02 0
0.4 0.02 0
0.48 0.02 0
0.56 0.02 0
0.64 0.02 0
0.72 0.02 0
0.8 0.02 0
0.88 0.02 0
0.96 0.02 0
1.04 0.02 0
1.12 0.02 0
1.2 0.02 0
1.28 0.02 0
1.36 0.02 0
1.44 0.02 0
1.52 0.02 0
1.6 0.02 0
1.68 0.02 0
1.76 0.02 0
1.84 0.02 0
1.92 0.02 0
2 0.02 0
2.08 0.02 0
2.16 0.02 0
2.24 0.02 0
2.32 0.02 0
2.4 0.02 0
2.48 0.02 0
2.56 0.02 0
2.64 0.02 0
2.72 0.02 0
2.8 0.02 0
2.88 0.02 0
2.96 0.02 0
3.04 0.02 0
3.12 0.02 0
3.2 0.02 0
3.28 0.02 0
3.36 0.02 0
3.44 0.02 0
3.52 0.02 0
3.6 0.02 0
3.68 0.02 0
3.76 0.02 0
3.84 0.02 0
3.92 0.02 0
4 0.02 0
4.08 0.02 0
4.16 0.02 0
4.24 0.02 0
4.32 0.02 0
4.4 0.02 0
4.48 0.02 0
4.56 0.02 0
4.64 0.02 0
4.72 0.02 0
4.8 0.02 0
4.88 0.02 0
4.96 0.02 0
5.04 0.02 0
5.12 0.02 0
5.2 0.02 0
5.28 0.02 0
5.36 0.02 0
5.44 0.02 0
5.52 0.02 0
5.6 0.02 0
5.68 0.02 0
5.76 0.02 0
5.84 0.02 0
5.92 0.02 0
6 0.02 0
6.08 0.02 0
6.16 0.02 0
6.24 0.02 0
6.32 0.02 0
6.4 0.02 0
6.48 0.02 0
6.56 0.02 0
6.64 0.02 0
6.72 0.02 0
6.8 0.02 0
6.88 0.02 0
6.96 0.02 0
7.04 0.02 0
7.12 0.02 0
7.2 0.02 0
7.28 0.02 0
7.36 0.02 0
7.44 0.02 0
7.52 0.02 0
7.6 0.02 0
7.68 0.02 0
7.76 0.02 0
7.84 0.02 0
7.92 0.02 0
8 0.02 0
8.08 0.02 0
8.16 0.02 0
8.24 0.02 0
8.32 0.02 0
8.4 0.02 0
8.48 0.02 0
8.56 0.02 0
8.64 0.02 0
8.72 0.02 0
8.8 0.02 0
8.88 0.02 0
8.96 0.02 0
9.04 0.02 0
9.12 0.02 0
9.2 0.02 0
9.28 0.02 0
9.36 0.02 0
9.44 0.02 0
9.52 0.02 0
9.6 0.02 0
9.68 0.02 0
9.76 0.02 0
9.84 0.02 0
9.92 0.02 0
10 0.02 0
10.08 0.02 0
10.16 0.02 0
10.24 0.02 0
10.32 0.02 0
10.4 0.02 0
10.48 0.02 0
10.56 0.02 0
10.64 0.02 0
10.72 0.02 0
10.8 0.02 0
10.88 0.02 0
10.96 0.02 0
11.04 0.02 0
11.12 0.02 0
11.2 0.02 0
11.28 0.02 0
11.36 0.02 0
11.44 0.02 0
11.52 0.02 0
11.6 0.02 0
11.68 0.02 0
11.76 0.02 0
11.84 0.02 0
11.92 0.02 0
12 0.02 0
12.08 0.02 0
12.16 0.02 0
12.24 0.02 0
12.32 0.02 0
12.4 0.02 0
12.48 0.02 0
12.56 0.02 0
12.64 0.02 0
12.72 0.02 0
12.8 0.02 0
12.88 0.02 0
12.96 0.02 0
13.04 0.02 0
13.12 0.02 0
13.2 0.02 0
13.28 0.02 0
13.36 0.02 0
13.44 0.02 0
13.52 0.02 0
13.6 0.02 0
13.68 0.02 0
13.76 0.02 0
13.84 0.02 0
13.92 0.02 0
14 0.02 0
14.08 0.02 0
14.16 0.02 0
14.24 0.02 0
14.32 0.02 0
14.4 0.02 0
14.48 0.02 0
14.56 0.02 0
14.64 0.02 0
14.72 0.02 0
14.8 0.02 0
14.88 0.02 0
14.96 0.02 0
15.04 0.02 0
15.12 0.02 0
15.2 0.02 0
15.28 0.02 0
15.36 0.02 0
15.44 0.02 0
15.52 0.02 0
15.6 0.02 0
15.68 0.02 0
15.76 0.02 0
15.84 0.02 0
15.92 0.02 0
16 0.02 0
16.08 0.02 0
16.16 0.02 0
16.24 0.02 0
16.32 0.02 0
16.4 0.02 0
16.48 0.02 0
16.56 0.02 0
16.64 0.02 0
16.72 0.02 0
16.8 0.02 0
16.88 0.02 0
16.96 0.02 0
17.04 0.02 0
17.12 0.02 0
17.2 0.02 0
17.28 0.02 0
17.36 0.02 0
17.44 0.02 0
17.52 0.02 0
17.6 0.02 0
17.68 0.02 0
17.76 0.02 0
17.84 0.02 0
17.92 0.02 0
18 0.02 0
18.08 0.02 0
18.16 0.02 0
18.24 0.02 0
18.32 0.02 0
18.4 0.02 0
18.48 0.02 0
18.56 0.02 0
18.64 0.02 0
18.72 0.02 0
18.8 0.02 0
18.88 0.02 0
18.96 0.02 0
19.04 0.02 0
19.12 0.02 0
19.2 0.02 0
19.28 0.02 0
19.36 0.02 0
19.44 0.02 0
19.52 0.02 0
19.6 0.02 0
19.68 0.02 0
19.76 0.02 0
19.84 0.02 0
19.92 0.02 0
20 0.02 0
20.08 0.02 0
20.16 0.02 0
20.24 0.02 0
20.32 0.02 0
20.4 0.02 0
20.48 0.02 0
20.56 0.02 0
20.64 0.02 0
20.72 0.02 0
20.8 0.02 0
20.88 0.02 0
20.96 0.02 0
21.04 0.02 0
21.12 0.02 0
21.2 0.02 0
21.28 0.02 0
21.36 0.02 0
21.44 0.02 0
21.52 0.02 0
21.6 0.02 0
21.68 0.02 0
21.76 0.02 0
21.84 0.02 0
21.92 0.02 0
22 0.02 0
22.08 0.02 0
22.16 0.02 0
22.24 0.02 0
22.32 0.02 0
22.4 0.02 0
22.48 0.02 0
22.56 0.02 0
22.64 0.02 0
22.72 0.02 0
22.8 0.02 0
22.88 0.02 0
22.96 0.02 0
23.04 0.02 0
23.12 0.02 0
23.2 0.02 0
23.28 0.02 0
23.36 0.02 0
23.44 0.02 0
23.52 0.02 0
23.6 0.02 0
23.68 0.02 0
23.76 0.02 0
23.84 0.02 0
23.92 0.02 0
24 0.02 0
24.08 0.02 0
24.16 0.02 0
24.24 0.02 0
24.32 0.02 0
24.4 0.02 0
24.48 0.02 0
24.56 0.02 0
24.64 0.02 0
24.72 0.02 0
24.8 0.02 0
24.88 0.02 0
24.96 0.02 0
25.04 0.02 0
25.12 0.02 0
25.2 0.02 0
25.28 0.02 0
25.36 0.02 0
25.44 0.02 0
25.52 0.02 0
25.6 0.02 0
25.68 0.02 0
25.76 0.02 0
25.84 0.02 0
25.92 0.02 0
26 0.02 0
26.08 0.02 0
26.16 0.02 0
26.24 0.02 0
26.32 0.02 0
26.4 0.02 0
26.48 0.02 0
26.56 0.02 0
26.64 0.02 0
26.72 0.02 0
26.8 0.02 0
26.88 0.02 0
26.96 0.02 0
27.04 0.02 0
27.12 0.02 0
27.2 0.02 0
27.28 0.02 0
27.36 0.02 0
27.44 0.02 0
27.52 0.02 0
27.6 0.02 0
27.68 0.02 0
27.76 0.02 0
27.84 0.02 0
27.92 0.02 0
28 0.02 0
28.08 0.02 0
28.16 0.02 0
28.24 0.02 0
28.32 0.02 0
28.4 0.02 0
28.48 0.02 0
28.56 0.02 0
28.64 0.02 0
28.72 0.02 0
28.8 0.02 0
28.88 0.02 0
28.96 0.02 0
29.04 0.02 0
29.12 0.02 0
29.2 0.02 0
29.28 0.02 0
29.36 0.02 0
29.44 0.02 0
29.52 0.02 0
29.6 0.02 0
29.68 0.02 0
29.76 0.02 0
29.84 0.02 0
29.92 0.02 0
30 0.02 0
30.08 0.02 0
30.16 0.02 0
30.24 0.02 0
30.32 0.02 0
30.4 0.02 0
30.48 0.02 0
30.56 0.02 0
30.64 0.02 0
30.72 0.02 0
30.8 0.02 0
30.88 0.02 0
30.96 0.02 0
31.04 0.02 0
31.12 0.02 0
31.2 0.02 0
31.28 0.02 0
31.36 0.02 0
31.44 0.02 0
31.52 0.02 0
31.6 0.02 0
31.68 0.02 0
31.76 0.02 0
31.84 0.02 0
31.92 0.02 0
0 0.04 0
0.08 0.04 0
0.16 0.04 0
0.24 0.04 0
0.32 0.04 0
0.4 0.04 0
0.48 0.04 0
0.56 0.04 0
0.64 0.04 0
0.72 0.04 0
0.8 0.04 0
0.88 0.04 0
0.96 0.04 0
1.04 0.04 0
1.12 0.04 0
1.2 0.04 0
1.28 0.04 0
1.36 0.04 0
1.44 0.04 0
1.52 0.04 0
1.6 0.04 0
1.68 0.04 0
1.76 0.04 0
1.84 0.04 0
1.92 0.04 0
2 0.04 0
2.08 0.04 0
2.16 0.04 0
2.24 0.04 0
2.32 0.04 0
2.4 0.04 0
2.48 0.04 0
2.56 0.04 0
2.64 0.04 0
2.72 0.04 0
2.8 0.04 0
2.88 0.04 0
2.96 0.04 0
3.04 0.04 0
3.12 0.04 0
3.2 0.04 0
3.28 0.04 0
3.36 0.04 0
3.44 0.04 0
3.52 0.04 0
3.6 0.04 0
3.68 0.04 0
3.76 0.04 0
3.84 0.04 0
3.92 0.04 0
4 0.04 0
4.08 0.04 0
4.16 0.04 0
4.24 0.04 0
4.32 0.04 0
4.4 0.04 0
4.48 0.04 0
4.56 0.04 0
4.64 0.04 0
4.72 0.04 0
4.8 0.04 0
4.88 0.04 0
4.96 0.04 0
5.04 0.04 0
5.12 0.04 0
5.2 0.04 0
5.28 0.04 0
5.36 0.04 0
5.44 0.04 0
5.52 0.04 0
5.6 0.04 0
5.68 0.04 0
5.76 0.04 0
5.84 0.04 0
5.92 0.04 0
6 0.04 0
6.08 0.04 0
6.16 0.04 0
6.24 0.04 0
6.32 0.04 0
6.4 0.04 0
6.48 0.04 0
6.56 0.04 0
6.64 0.04 0
6.72 0.04 0
6.8 0.04 0
6.88 0.04 0
6.96 0.04 0
7.04 0.04 0
7.12 0.04 0
7.2 0.04 0
7.28 0.04 0
7.36 0.04 0
7.44 0.04 0
7.52 0.04 0
7.6 0.04 0
7.68 0.04 0
7.76 0.04 0
7.84 0.04 0
[...]
POINT_DATA 20000

SCALARS v float 1
LOOKUP_TABLE default
0
0
0
0
0
0
0
0
0
0
0
0
0
0
0
0
0
0
0
0
0
0
0
0
0
0
0
0
0
0
0
0
0
0
0
0
0
0
0
0
0
0
0
0
0
0
0
0
0
0
0
0
0
0
0
0
0
0
0
0
0
0
0
0
0
0
0
0
0
0
0
0
0
0
0
0
0
0
0
0
0
0
0
0
0
0
0
0
0
0
0
0
0
0
0
0
0
0
0
0
0
0
0
0
0
0
0
0
0
0
0
0
0
0
0
0
0
0
0
0
0
0
0
0
0
0
0
0
0
0
0
0
0
0
0
0
0
0
0
0
0
0
0
0
0
0
0
0
0
0
0
0
0
0
0
0
0
0
0
0
0
0
0
0
0
0
0
0
0
0
0
0
0
0
0
0
0
0
0
0
0
0
0
0
0
0
0
0
0
0
0
0
0
0
0
0
0
0
0
0
0
0
0
0
0
0
0
0
0
0
0
0
0
0
0
0
0
0
0
0
0
0
0
0
0
0
0
0
0
0
0
0
0
0
0
0
0
0
0
0
0
0
0
0
0
0
0
0
0
0
0
0
0
0
0
0
0
0
0
0
0
0
0
0
0
0
0
0
0
0
0
0
0
0
0
0
0
0
0
0
0
0
0
0
0
0
0
0
0
0
0
0
0
0
0
0
0
0
0
0
0
0
0
0
0
0
0
0
0
0
0
0
0
0
0
0
0
0
0
0
0
0
0
0
0
0
0
0
0
0
0
0
0
0
0
0
0
0
0
0
0
0
0
0
0
0
0
0
0
0
0
0
0
0
0
0
0
0
0
0
0
0
0
0
0
0
0
0
0
0
0
0
0
0
0
0
0
0
0
0
0
0
0
0
0
0
0
0
0
0
0
0
0
0
0
0
0
0
0
0
-0.123227
0.123227
0.0537922
0.0194393
0.00878347
0.00509005
0.00338808
0.00243762
0.00184779
0.00145658
0.00118432
0.000987523
0.000840662
0.000727971
0.000639335
0.00056807
0.000509647
0.000460931
0.000419705
0.000384372
0.000353759
0.000326986
0.000303384
0.000282432
0.000263722
0.000246924
0.000231772
0.000218047
0.000205569
0.000194183
0.000183762
0.000174196
0.000165389
0.000157263
0.000149744
0.000142774
0.000136297
0.000130266
0.000124641
0.000119384
0.000114463
0.000109848
0.000105514
0.000101438
9.75979e-05
9.39761e-05
9.05554e-05
8.73204e-05
8.42573e-05
8.13537e-05
7.8598e-05
7.59799e-05
7.34898e-05
7.11192e-05
6.886e-05
6.67049e-05
6.46473e-05
6.2681e-05
6.08003e-05
5.89999e-05
5.72752e-05
5.56214e-05
5.40346e-05
5.25109e-05
5.10468e-05
4.96388e-05
4.82841e-05
4.69796e-05
4.57227e-05
4.4511e-05
4.33422e-05
4.22139e-05
4.11243e-05
4.00715e-05
3.90536e-05
3.8069e-05
3.71161e-05
3.61936e-05
3.52999e-05
3.44338e-05
3.35941e-05
3.27796e-05
3.19894e-05
3.12222e-05
3.04773e-05
2.97537e-05
2.90506e-05
2.83671e-05
2.77024e-05
2.7056e-05
2.6427e-05
2.58148e-05
2.52188e-05
2.46385e-05
2.40733e-05
2.35226e-05
2.29859e-05
2.24628e-05
2.19529e-05
2.14556e-05
2.09706e-05
2.04974e-05
2.00358e-05
1.95853e-05
1.91457e-05
1.87165e-05
1.82976e-05
1.78885e-05
1.7489e-05
1.70989e-05
1.67177e-05
1.63454e-05
1.59817e-05
1.56262e-05
1.52789e-05
1.49395e-05
1.46077e-05
1.42834e-05
1.39664e-05
1.36564e-05
1.33534e-05
1.30571e-05
1.27674e-05
1.24841e-05
1.22072e-05
1.19363e-05
1.16714e-05
1.14124e-05
1.1159e-05
1.09112e-05
1.06688e-05
1.04317e-05
1.01998e-05
9.97299e-06
9.75114e-06
9.53415e-06
9.32188e-06
9.11423e-06
8.91108e-06
8.71235e-06
8.51794e-06
8.32779e-06
8.1418e-06
7.95991e-06
7.782e-06
7.60799e-06
7.43777e-06
7.27126e-06
7.10838e-06
6.94905e-06
6.79319e-06
6.64075e-06
6.49166e-06
6.34587e-06
6.2033e-06
6.06385e-06
5.92744e-06
5.79397e-06
5.6634e-06
5.53567e-06
5.41076e-06
5.28862e-06
5.16918e-06
5.05237e-06
4.93813e-06
4.82639e-06
4.71709e-06
4.61018e-06
4.50557e-06
4.40322e-06
4.30306e-06
4.2051e-06
4.10931e-06
4.01568e-06
3.92413e-06
3.83455e-06
3.74684e-06
3.66094e-06
3.57686e-06
3.49462e-06
3.41422e-06
3.33562e-06
3.25873e-06
3.18347e-06
3.1098e-06
3.03773e-06
2.96725e-06
2.8983e-06
2.83081e-06
2.76468e-06
2.6999e-06
2.63653e-06
2.57463e-06
2.5142e-06
2.45517e-06
2.39736e-06
2.34064e-06
2.28498e-06
2.23046e-06
2.17721e-06
2.12527e-06
2.07458e-06
2.025e-06
1.97641e-06
1.92876e-06
1.88213e-06
1.83656e-06
1.79205e-06
1.74852e-06
1.70585e-06
1.66399e-06
1.62299e-06
1.58299e-06
1.54403e-06
1.50606e-06
1.46889e-06
1.43233e-06
1.39631e-06
1.3609e-06
1.3263e-06
1.29266e-06
1.25998e-06
1.22809e-06
1.1968e-06
1.16595e-06
1.13557e-06
1.10575e-06
1.07661e-06
1.04817e-06
1.02034e-06
9.93003e-07
9.66113e-07
9.39724e-07
9.13918e-07
8.88709e-07
8.63991e-07
8.39578e-07
8.15328e-07
7.91251e-07
7.67514e-07
7.44333e-07
7.21814e-07
6.99861e-07
6.78211e-07
6.56586e-07
6.34862e-07
6.13128e-07
5.91618e-07
5.70538e-07
5.49936e-07
5.2967e-07
5.09515e-07
4.89312e-07
4.69058e-07
4.48873e-07
4.28883e-07
4.09105e-07
3.89422e-07
3.69679e-07
3.49816e-07
3.29945e-07
3.10299e-07
2.91075e-07
2.72282e-07
2.53695e-07
2.34976e-07
2.1588e-07
1.96444e-07
1.77003e-07
1.58039e-07
1.3991e-07
1.22643e-07
1.05899e-07
8.9156e-08
7.19962e-08
5.43517e-08
3.65588e-08
1.91921e-08
2.76596e-09
-1.2532e-08
-2.69337e-08
-4.09608e-08
-5.51468e-08
-6.97591e-08
-8.46678e-08
-9.94203e-08
-1.13476e-07
-1.26475e-07
-1.38399e-07
-1.49558e-07
-1.60416e-07
-1.71353e-07
-1.82486e-07
-1.93634e-07
-2.0442e-07
-2.14471e-07
-2.23583e-07
-2.31807e-07
-2.39397e-07
-2.46679e-07
-2.53896e-07
-2.61112e-07
-2.68209e-07
-2.74959e-07
-2.8115e-07
-2.86678e-07
-2.91585e-07
-2.96031e-07
-3.00208e-07
-3.04267e-07
-3.08256e-07
-3.12127e-07
-3.15768e-07
-3.1907e-07
-3.21972e-07
-3.24492e-07
-3.26704e-07
-3.28712e-07
-3.30599e-07
-3.32415e-07
-3.34147e-07
-3.35763e-07
-3.37208e-07
-3.38456e-07
-3.39502e-07
-3.40383e-07
-3.41138e-07
-3.41826e-07
-3.42468e-07
-3.43091e-07
-3.43668e-07
-3.44201e-07
-3.44652e-07
-3.45036e-07
-3.45332e-07
-3.45586e-07
-3.45785e-07
-3.45988e-07
-3.46162e-07
-3.46364e-07
-3.46529e-07
-3.46719e-07
-3.46849e-07
-3.47004e-07
-3.47082e-07
-3.47206e-07
-3.47248e-07
-3.47368e-07
-3.47399e-07
-3.47539e-07
-3.47563e-07
-3.47726e-07
-3.47732e-07
-3.47913e-07
-3.47889e-07
-3.48091e-07
-3.4803e-07
-3.48267e-07
-3.48168e-07
-3.48458e-07
-3.48313e-07
-3.48672e-07
-3.48467e-07
-3.48914e-07
-3.48627e-07
-3.49185e-07
-3.48791e-07
-3.49495e-07
-3.48965e-07
-3.49858e-07
-3.49155e-07
-3.50296e-07
-3.49371e-07
-3.50833e-07
-3.49624e-07
-3.51496e-07
-3.49927e-07
-3.52325e-07
-3.50304e-07
-3.53365e-07
-3.50785e-07
-3.54673e-07
-3.51419e-07
-3.56305e-07
-3.52272e-07
-3.58295e-07
-3.53439e-07
-3.6059e-07
-3.55048e-07
-3.62862e-07
-3.5726e-07
-3.63967e-07
-3.60222e-07
-3.60177e-07
-3.63907e-07
-3.37775e-07
-3.66944e-07
-2.0359e-07
-2.99563e-07
-2.99563e-07
-0.142153
0.142153
0.101005
0.0539132
0.0302567
0.0189186
0.0129279
0.00941334
0.00718041
0.00567751
0.00462103
0.00385203
0.00327554
0.00283204
0.00248287
0.0022022
0.00197239
0.00178109
0.00161955
0.00148141
0.00136198
0.00125776
0.00116605
0.00108479
0.00101233
0.000947358
0.000888826
0.000835862
0.000787748
0.000743883
0.000703761
0.00066695
0.000633083
0.000601842
0.000572954
0.000546179
0.000521309
0.000498161
0.000476574
0.000456406
0.00043753
0.000419835
0.000403219
0.000387594
0.000372879
0.000359001
0.000345897
0.000333505
0.000321775
0.000310657
0.000300106
0.000290084
0.000280554
0.000271482
0.000262837
0.000254592
0.000246721
0.0002392
0.000232008
0.000225124
0.000218529
0.000212207
0.000206142
0.000200319
0.000194724
0.000189344
0.000184169
0.000179186
0.000174385
0.000169758
0.000165295
0.000160988
0.000156828
0.00015281
0.000148925
0.000145168
0.000141533
0.000138013
0.000134604
0.000131301
0.000128099
0.000124994
0.000121981
0.000119057
0.000116218
0.000113461
0.000110782
0.000108178
0.000105647
0.000103185
0.000100789
9.84586e-05
9.61898e-05
9.39808e-05
9.18296e-05
8.97339e-05
8.7692e-05
8.5702e-05
8.37622e-05
8.18708e-05
8.00263e-05
7.82273e-05
7.64723e-05
7.47599e-05
7.30889e-05
7.1458e-05
6.9866e-05
6.83117e-05
6.67941e-05
6.5312e-05
6.38644e-05
6.24505e-05
6.10692e-05
5.97197e-05
5.84011e-05
5.71126e-05
5.58534e-05
5.46227e-05
5.34196e-05
5.22436e-05
5.1094e-05
4.99701e-05
4.88713e-05
4.7797e-05
4.67467e-05
4.57197e-05
4.47154e-05
4.37333e-05
4.27728e-05
4.18335e-05
4.09148e-05
4.00164e-05
3.91377e-05
3.82784e-05
3.74379e-05
3.66159e-05
3.58119e-05
3.50254e-05
3.42561e-05
3.35036e-05
3.27676e-05
3.20478e-05
3.13438e-05
3.06553e-05
2.9982e-05
2.93235e-05
2.86794e-05
2.80493e-05
2.74331e-05
2.68304e-05
2.62409e-05
2.56644e-05
2.51007e-05
2.45494e-05
2.40103e-05
2.3483e-05
2.29673e-05
2.24628e-05
2.19693e-05
2.14867e-05
2.10148e-05
2.05533e-05
2.01021e-05
1.96608e-05
1.92293e-05
1.88072e-05
1.83944e-05
1.79906e-05
1.75956e-05
1.72092e-05
1.68311e-05
1.64614e-05
1.60999e-05
1.57465e-05
1.54008e-05
1.50626e-05
1.47315e-05
1.44074e-05
1.40903e-05
1.37802e-05
1.3477e-05
1.31804e-05
1.28904e-05
1.26065e-05
1.23287e-05
1.20569e-05
1.17911e-05
1.1531e-05
1.12764e-05
1.10271e-05
1.07831e-05
1.05444e-05
1.03112e-05
1.00834e-05
9.86073e-06
9.64261e-06
9.42876e-06
9.21915e-06
9.01404e-06
8.81369e-06
8.61815e-06
8.42714e-06
8.24024e-06
8.05713e-06
7.87776e-06
7.70226e-06
7.53076e-06
7.36316e-06
7.19918e-06
7.03851e-06
6.88107e-06
6.72704e-06
6.57669e-06
6.4301e-06
6.28695e-06
6.1467e-06
6.00886e-06
5.87333e-06
5.74042e-06
5.61063e-06
5.48425e-06
5.36113e-06
5.24074e-06
5.1225e-06
5.00611e-06
4.89165e-06
4.77944e-06
4.66972e-06
4.56243e-06
4.45729e-06
4.35398e-06
4.25243e-06
4.15277e-06
4.05517e-06
3.95955e-06
3.86555e-06
3.77265e-06
3.68055e-06
3.58939e-06
3.49968e-06
3.41193e-06
3.32625e-06
3.24221e-06
3.15902e-06
3.07597e-06
2.99289e-06
2.91013e-06
2.82835e-06
2.74802e-06
2.66911e-06
2.59111e-06
2.51341e-06
2.43564e-06
2.3579e-06
2.28052e-06
2.2038e-06
2.12769e-06
2.05185e-06
1.97591e-06
1.89983e-06
1.82404e-06
1.74916e-06
1.67562e-06
1.60325e-06
1.53134e-06
1.45901e-06
1.38584e-06
1.3122e-06
1.23922e-06
1.16818e-06
1.09984e-06
1.03395e-06
9.69383e-07
9.04726e-07
8.39099e-07
7.72687e-07
7.06703e-07
6.42776e-07
5.82114e-07
5.2488e-07
4.70129e-07
4.16325e-07
3.62158e-07
3.07224e-07
2.52217e-07
1.98561e-07
1.47683e-07
1.00322e-07
5.62215e-08
1.43186e-08
-2.66753e-08
-6.76315e-08
-1.08608e-07
-1.4888e-07
-1.87337e-07
-2.23037e-07
-2.55631e-07
-2.85474e-07
-3.13403e-07
-3.40316e-07
-3.66771e-07
-3.92792e-07
-4.17923e-07
-4.41517e-07
-4.63056e-07
-4.82388e-07
-4.99765e-07
-5.15711e-07
-5.30773e-07
-5.4531e-07
-5.59381e-07
-5.72789e-07
-5.85207e-07
-5.96375e-07
-6.06194e-07
-6.14789e-07
-6.22416e-07
-6.29386e-07
-6.35916e-07
-6.4211e-07
-6.47909e-07
-6.5321e-07
-6.57876e-07
-6.61874e-07
-6.65218e-07
-6.68054e-07
-6.70501e-07
-6.72732e-07
-6.74788e-07
-6.76738e-07
-6.78496e-07
-6.80074e-07
-6.81364e-07
-6.8244e-07
-6.83241e-07
-6.83927e-07
-6.84447e-07
-6.84987e-07
-6.85427e-07
-6.85944e-07
-6.86328e-07
-6.86783e-07
-6.87035e-07
-6.8737e-07
-6.87464e-07
-6.87713e-07
-6.87709e-07
-6.8796e-07
-6.87924e-07
-6.88238e-07
-6.88177e-07
-6.88558e-07
-6.88436e-07
-6.88873e-07
-6.88652e-07
-6.89163e-07
-6.88831e-07
-6.89461e-07
-6.89009e-07
-6.89814e-07
-6.89218e-07
-6.90249e-07
-6.89459e-07
-6.90774e-07
-6.89723e-07
-6.91402e-07
-6.90012e-07
-6.92166e-07
-6.90345e-07
-6.93122e-07
-6.90751e-07
-6.94338e-07
-6.91262e-07
-6.95896e-07
-6.91919e-07
-6.97899e-07
-6.92777e-07
-7.00478e-07
-6.93918e-07
-7.038e-07
-6.95462e-07
-7.08066e-07
-6.97577e-07
-7.13485e-07
-7.00499e-07
-7.20209e-07
-7.04547e-07
-7.28119e-07
-7.10128e-07
-7.36241e-07
-7.1767e-07
-7.4102e-07
-7.27309e-07
-7.30815e-07
-7.37703e-07
-6.63456e-07
-7.39098e-07
-2.87078e-07
-5.27022e-07
-5.27022e-07
-0.122226
0.122226
0.121664
0.0822681
0.0539951
0.0368643
0.0263935
0.0197166
0.0152659
0.0121805
0.00996879
0.00833703
0.00710207
0.00614568
0.00538935
0.00477968
0.00427968
0.00386318
0.00351142
0.0032107
0.00295084
0.00272419
0.00252489
0.00234839
0.00219109
0.00205012
0.00192317
0.00180834
0.00170405
0.001609
0.00152207
0.00144233
0.00136898
0.00130132
0.00123877
0.00118079
0.00112694
0.00107683
0.00103009
0.000986432
0.00094557
0.000907265
0.000871298
0.000837475
0.000805624
0.000775587
0.000747222
0.000720404
0.000695016
0.000670953
0.00064812
0.000626431
0.000605807
0.000586175
0.000567469
0.000549628
0.000532598
0.000516325
0.000500764
0.00048587
0.000471604
0.000457928
0.000444808
0.000432212
0.00042011
0.000408476
0.000397282
0.000386506
0.000376126
0.00036612
0.00035647
0.000347158
0.000338166
0.000329479
0.000321082
0.000312962
0.000305105
0.0002975
0.000290134
0.000282997
0.000276079
0.000269371
0.000262864
0.000256548
0.000250417
0.000244462
0.000238677
0.000233056
0.00022759
0.000222275
0.000217105
0.000212075
0.000207178
0.000202412
0.00019777
0.000193249
0.000188844
0.000184551
0.000180367
0.000176288
0.000172311
0.000168432
0.000164648
0.000160956
0.000157354
0.000153839
0.000150408
0.000147059
0.000143788
0.000140595
0.000137477
0.000134431
0.000131455
0.000128549
0.000125709
0.000122934
0.000120223
0.000117573
0.000114983
0.000112451
0.000109976
0.000107557
0.000105193
0.000102881
0.000100621
9.84107e-05
9.625e-05
9.41371e-05
9.20709e-05
9.00504e-05
8.80745e-05
8.61422e-05
8.42526e-05
8.24047e-05
8.05975e-05
7.883e-05
7.71014e-05
7.54106e-05
7.3757e-05
7.21396e-05
7.05578e-05
6.90109e-05
6.74981e-05
6.60187e-05
6.4572e-05
6.31571e-05
6.17733e-05
6.04199e-05
5.90962e-05
5.78017e-05
5.65357e-05
5.52977e-05
5.40871e-05
5.29033e-05
5.17457e-05
5.06137e-05
4.95065e-05
4.84236e-05
4.73645e-05
4.63288e-05
4.5316e-05
4.43258e-05
4.33576e-05
4.24108e-05
4.14849e-05
4.05794e-05
3.96938e-05
3.88276e-05
3.79803e-05
3.71515e-05
3.63408e-05
3.5548e-05
3.47729e-05
3.40151e-05
3.32738e-05
3.25486e-05
3.18388e-05
3.11441e-05
3.04645e-05
2.97998e-05
2.915e-05
2.85145e-05
2.78928e-05
2.72844e-05
2.66891e-05
2.61068e-05
2.55372e-05
2.49799e-05
2.44345e-05
2.39005e-05
2.33778e-05
2.28668e-05
2.23674e-05
2.18794e-05
2.14022e-05
2.09349e-05
2.04768e-05
2.00282e-05
1.95893e-05
1.91606e-05
1.8742e-05
1.83329e-05
1.79327e-05
1.75406e-05
1.71568e-05
1.67812e-05
1.64142e-05
1.60555e-05
1.57045e-05
1.53607e-05
1.5024e-05
1.46946e-05
1.43731e-05
1.40594e-05
1.37528e-05
1.34524e-05
1.31573e-05
1.28675e-05
1.25835e-05
1.23061e-05
1.20359e-05
1.17722e-05
1.15141e-05
1.12606e-05
1.10113e-05
1.07663e-05
1.05261e-05
1.02911e-05
1.00612e-05
9.83566e-06
9.61406e-06
9.39623e-06
9.18239e-06
8.97277e-06
8.76713e-06
8.56474e-06
8.36473e-06
8.16666e-06
7.97085e-06
7.77819e-06
7.58945e-06
7.40466e-06
7.2229e-06
7.04275e-06
6.86307e-06
6.68366e-06
6.50528e-06
6.32904e-06
6.15562e-06
5.98482e-06
5.81565e-06
5.64706e-06
5.47848e-06
5.31015e-06
5.14268e-06
4.97653e-06
4.81154e-06
4.64709e-06
4.48262e-06
4.3182e-06
4.15463e-06
3.993e-06
3.8339e-06
3.67691e-06
3.52073e-06
3.36397e-06
3.20613e-06
3.04814e-06
2.8921e-06
2.74018e-06
2.59342e-06
2.45113e-06
2.31119e-06
2.17126e-06
2.03009e-06
1.8884e-06
1.74852e-06
1.61327e-06
1.4845e-06
1.36215e-06
1.2443e-06
1.12825e-06
1.01194e-06
8.95014e-07
7.79003e-07
6.66504e-07
5.59887e-07
4.60159e-07
3.66571e-07
2.77108e-07
1.89564e-07
1.02634e-07
1.64907e-08
-6.74065e-08
-1.47091e-07
-2.2106e-07
-2.88935e-07
-3.51554e-07
-4.10485e-07
-4.67269e-07
-5.22749e-07
-5.76808e-07
-6.28556e-07
-6.76871e-07
-7.20948e-07
-7.60679e-07
-7.96645e-07
-8.29836e-07
-8.61203e-07
-8.91318e-07
-9.20202e-07
-9.47464e-07
-9.7254e-07
-9.95028e-07
-1.01484e-06
-1.03228e-06
-1.04785e-06
-1.06212e-06
-1.07543e-06
-1.08794e-06
-1.09953e-06
-1.11003e-06
-1.11921e-06
-1.12706e-06
-1.13365e-06
-1.13928e-06
-1.14415e-06
-1.1486e-06
-1.15266e-06
-1.15646e-06
-1.15984e-06
-1.16283e-06
-1.16525e-06
-1.16725e-06
-1.16874e-06
-1.17002e-06
-1.171e-06
-1.17201e-06
-1.17282e-06
-1.17376e-06
-1.17443e-06
-1.17522e-06
-1.17561e-06
-1.17618e-06
-1.17628e-06
-1.17669e-06
-1.17662e-06
-1.17705e-06
-1.17691e-06
-1.17747e-06
-1.17728e-06
-1.17796e-06
-1.17764e-06
-1.17843e-06
-1.17791e-06
-1.17885e-06
-1.17813e-06
-1.17931e-06
-1.17835e-06
-1.17988e-06
-1.17864e-06
-1.18062e-06
-1.17899e-06
-1.18153e-06
-1.17938e-06
-1.18265e-06
-1.17984e-06
-1.18405e-06
-1.18039e-06
-1.18585e-06
-1.18109e-06
-1.18817e-06
-1.18202e-06
-1.19118e-06
-1.18326e-06
-1.1951e-06
-1.18492e-06
-1.2002e-06
-1.18717e-06
-1.20682e-06
-1.19026e-06
-1.21537e-06
-1.19452e-06
-1.22632e-06
-1.20044e-06
-1.24e-06
-1.20863e-06
-1.25629e-06
-1.21987e-06
-1.2735e-06
-1.23488e-06
-1.28513e-06
-1.2535e-06
-1.26994e-06
-1.27142e-06
-1.15266e-06
-1.26186e-06
-5.39903e-07
-8.49884e-07
-8.49884e-07
-0.0942784
0.0942784
0.121016
0.0969699
0.0717941
0.0531987
0.0402017
0.0311123
0.0246586
0.0199862
0.0165331
0.0139291
0.0119262
0.0103565
0.00910416
0.00808805
0.00725071
0.00655081
0.00595824
0.00545073
0.00501164
0.0046283
0.00429097
0.00399206
0.00372555
0.00348662
0.00327136
0.00307659
0.00289965
0.00273832
0.00259074
0.00245532
0.00233072
0.00221576
0.00210944
0.00201088
0.00191931
0.00183407
0.00175457
0.00168027
0.00161073
0.00154553
0.00148429
0.0014267
0.00137246
0.00132129
0.00127297
0.00122728
0.00118402
0.00114302
0.0011041
0.00106713
0.00103198
0.000998508
0.000966616
0.000936197
0.000907157
0.000879409
0.000852872
0.000827472
0.000803141
0.000779817
0.000757439
0.000735955
0.000715313
0.000695468
0.000676375
0.000657995
0.000640289
0.000623222
0.000606762
0.000590877
0.00057554
0.000560723
0.000546402
0.000532552
0.000519153
0.000506182
0.00049362
0.00048145
0.000469653
0.000458215
0.000447119
0.000436351
0.000425898
0.000415747
0.000405886
0.000396303
0.000386987
0.000377929
0.000369118
0.000360545
0.000352202
0.00034408
0.000336171
0.000328468
0.000320964
0.000313653
0.000306526
0.000299579
0.000292805
0.0002862
0.000279757
0.000273472
0.00026734
0.000261356
0.000255516
0.000249815
0.000244249
0.000238814
0.000233508
0.000228325
0.000223262
0.000218317
0.000213487
0.000208767
0.000204154
0.000199647
0.000195243
0.000190938
0.00018673
0.000182617
0.000178597
0.000174666
0.000170824
0.000167068
0.000163395
0.000159804
0.000156293
0.000152859
0.000149502
0.000146219
0.000143008
0.000139869
0.000136799
0.000133796
0.00013086
0.000127989
0.00012518
0.000122434
0.000119748
0.000117121
0.000114553
0.000112041
0.000109585
0.000107183
0.000104834
0.000102537
0.00010029
9.80935e-05
9.59452e-05
9.38444e-05
9.17904e-05
8.97819e-05
8.78181e-05
8.58976e-05
8.40195e-05
8.21827e-05
8.03865e-05
7.863e-05
7.69127e-05
7.52337e-05
7.3592e-05
7.19868e-05
7.0417e-05
6.88819e-05
6.73807e-05
6.59125e-05
6.44765e-05
6.30719e-05
6.16982e-05
6.03549e-05
5.90415e-05
5.77573e-05
5.65014e-05
5.52727e-05
5.40702e-05
5.28936e-05
5.17425e-05
5.0617e-05
4.95165e-05
4.84403e-05
4.73874e-05
4.63572e-05
4.53492e-05
4.43632e-05
4.33988e-05
4.24554e-05
4.1532e-05
4.06281e-05
3.97436e-05
3.88788e-05
3.80336e-05
3.72076e-05
3.63997e-05
3.56087e-05
3.48337e-05
3.40747e-05
3.33324e-05
3.26073e-05
3.18992e-05
3.12071e-05
3.05299e-05
2.98667e-05
2.92174e-05
2.85824e-05
2.79617e-05
2.7355e-05
2.67614e-05
2.61801e-05
2.5611e-05
2.50543e-05
2.45108e-05
2.39802e-05
2.34616e-05
2.29533e-05
2.24544e-05
2.19646e-05
2.14849e-05
2.10164e-05
2.05594e-05
2.01134e-05
1.96766e-05
1.92475e-05
1.88256e-05
1.84112e-05
1.80051e-05
1.76075e-05
1.72183e-05
1.68364e-05
1.64611e-05
1.60921e-05
1.57298e-05
1.53744e-05
1.50254e-05
1.46818e-05
1.43423e-05
1.40063e-05
1.36743e-05
1.33476e-05
1.30271e-05
1.27128e-05
1.24033e-05
1.20963e-05
1.17903e-05
1.14851e-05
1.11819e-05
1.08823e-05
1.05872e-05
1.0296e-05
1.00074e-05
9.71965e-06
9.43213e-06
9.14518e-06
8.85977e-06
8.57649e-06
8.29508e-06
8.01462e-06
7.73436e-06
7.45446e-06
7.17618e-06
6.90107e-06
6.62992e-06
6.36203e-06
6.09551e-06
5.82845e-06
5.56034e-06
5.2928e-06
5.02893e-06
4.77183e-06
4.52282e-06
4.28069e-06
4.04225e-06
3.80423e-06
3.56511e-06
3.32621e-06
3.09114e-06
2.86395e-06
2.6471e-06
2.44018e-06
2.24022e-06
2.04329e-06
1.8466e-06
1.64998e-06
1.4559e-06
1.26824e-06
1.0903e-06
9.23299e-07
7.6588e-07
6.14986e-07
4.67469e-07
3.2164e-07
1.77992e-07
3.88134e-08
-9.30327e-08
-2.15507e-07
-3.28284e-07
-4.32783e-07
-5.31377e-07
-6.26275e-07
-7.18581e-07
-8.0799e-07
-8.93135e-07
-9.72404e-07
-1.04474e-06
-1.11015e-06
-1.16961e-06
-1.22463e-06
-1.2766e-06
-1.32628e-06
-1.37365e-06
-1.4181e-06
-1.45883e-06
-1.49531e-06
-1.52752e-06
-1.55598e-06
-1.58147e-06
-1.60482e-06
-1.62655e-06
-1.64685e-06
-1.66554e-06
-1.68235e-06
-1.69701e-06
-1.70955e-06
-1.72011e-06
-1.72915e-06
-1.73702e-06
-1.74418e-06
-1.75068e-06
-1.75671e-06
-1.76202e-06
-1.76668e-06
-1.77042e-06
-1.77353e-06
-1.77583e-06
-1.77784e-06
-1.77936e-06
-1.78095e-06
-1.78219e-06
-1.78364e-06
-1.78462e-06
-1.78581e-06
-1.78635e-06
-1.78718e-06
-1.78726e-06
-1.78788e-06
-1.78771e-06
-1.78838e-06
-1.7881e-06
-1.78896e-06
-1.78858e-06
-1.78963e-06
-1.78904e-06
-1.79027e-06
-1.78937e-06
-1.79086e-06
-1.78962e-06
-1.79151e-06
-1.78988e-06
-1.79234e-06
-1.79025e-06
-1.79344e-06
-1.7907e-06
-1.79482e-06
-1.79124e-06
-1.79654e-06
-1.79186e-06
-1.79872e-06
-1.79264e-06
-1.80154e-06
-1.79368e-06
-1.80522e-06
-1.79507e-06
-1.81003e-06
-1.79696e-06
-1.81633e-06
-1.79953e-06
-1.82455e-06
-1.80304e-06
-1.83526e-06
-1.8079e-06
-1.84916e-06
-1.81463e-06
-1.86702e-06
-1.82398e-06
-1.8895e-06