# vtk DataFile Version 2.0
FlowField
ASCII
DATASET STRUCTURED_GRID
DIMENSIONS 400 1 50
POINTS 20000 float
0 0 0
0.08 0 0
0.16 0 0
0.24 0 0
0.32 0 0
0.4 0 0
0.48 0 0
0.56 0 0
0.64 0 0
0.72 0 0
0.8 0 0
0.88 0 0
0.96 0 0
1.04 0 0
1.12 0 0
1.2 0 0
1.28 0 0
1.36 0 0
1.44 0 0
1.52 0 0
1.6 0 0
1.68 0 0
1.76 0 0
1.84 0 0
1.92 0 0
2 0 0
2.08 0 0
2.16 0 0
2.24 0 0
2.32 0 0
2.4 0 0
2.48 0 0
2.56 0 0
2.64 0 0
2.72 0 0
2.8 0 0
2.88 0 0
2.96 0 0
3.04 0 0
3.12 0 0
3.2 0 0
3.28 0 0
3.36 0 0
3.44 0 0
3.52 0 0
3.6 0 0
3.68 0 0
3.76 0 0
3.84 0 0
3.92 0 0
4 0 0
4.08 0 0
4.16 0 0
4.24 0 0
4.32 0 0
4.4 0 0
4.48 0 0
4.56 0 0
4.64 0 0
4.72 0 0
4.8 0 0
4.88 0 0
4.96 0 0
5.04 0 0
5.12 0 0
5.2 0 0
5.28 0 0
5.36 0 0
5.44 0 0
5.52 0 0
5.6 0 0
5.68 0 0
5.76 0 0
5.84 0 0
5.92 0 0
6 0 0
6.08 0 0
6.16 0 0
6.24 0 0
6.32 0 0
6.4 0 0
6.48 0 0
6.56 0 0
6.64 0 0
6.72 0 0
6.8 0 0
6.88 0 0
6.96 0 0
7.04 0 0
7.12 0 0
7.2 0 0
7.28 0 0
7.36 0 0
7.44 0 0
7.52 0 0
7.6 0 0
7.68 0 0
7.76 0 0
7.84 0 0
7.92 0 0
8 0 0
8.08 0 0
8.16 0 0
8.24 0 0
8.32 0 0
8.4 0 0
8.48 0 0
8.56 0 0
8.64 0 0
8.72 0 0
8.8 0 0
8.88 0 0
8.96 0 0
9.04 0 0
9.12 0 0
9.2 0 0
9.28 0 0
9.36 0 0
9.44 0 0
9.52 0 0
9.6 0 0
9.68 0 0
9.76 0 0
9.84 0 0
9.92 0 0
10 0 0
10.08 0 0
10.16 0 0
10.24 0 0
10.32 0 0
10.4 0 0
10.48 0 0
10.56 0 0
10.64 0 0
10.72 0 0
10.8 0 0
10.88 0 0
10.96 0 0
11.04 0 0
11.12 0 0
11.2 0 0
11.28 0 0
11.36 0 0
11.44 0 0
11.52 0 0
11.6 0 0
11.68 0 0
11.76 0 0
11.84 0 0
11.92 0 0
12 0 0
12.08 0 0
12.16 0 0
12.24 0 0
12.32 0 0
12.4 0 0
12.48 0 0
12.56 0 0
12.64 0 0
12.72 0 0
12.8 0 0
12.88 0 0
12.96 0 0
13.04 0 0
13.12 0 0
13.2 0 0
13.28 0 0
13.36 0 0
13.44 0 0
13.52 0 0
13.6 0 0
13.68 0 0
13.76 0 0
13.84 0 0
13.92 0 0
14 0 0
14.08 0 0
14.16 0 0
14.24 0 0
14.32 0 0
14.4 0 0
14.48 0 0
14.56 0 0
14.64 0 0
14.72 0 0
14.8 0 0
14.88 0 0
14.96 0 0
15.04 0 0
15.12 0 0
15.2 0 0
15.28 0 0
15.36 0 0
15.44 0 0
15.52 0 0
15.6 0 0
15.68 0 0
15.76 0 0
15.84 0 0
15.92 0 0
16 0 0
16.08 0 0
16.16 0 0
16.24 0 0
16.32 0 0
16.4 0 0
16.48 0 0
16.56 0 0
16.64 0 0
16.72 0 0
16.8 0 0
16.88 0 0
16.96 0 0
17.04 0 0
17.12 0 0
17.2 0 0
17.28 0 0
17.36 0 0
17.44 0 0
17.52 0 0
17.6 0 0
17.68 0 0
17.76 0 0
17.84 0 0
17.92 0 0
18 0 0
18.08 0 0
18.16 0 0
18.24 0 0
18.32 0 0
18.4 0 0
18.48 0 0
18.56 0 0
18.64 0 0
18.72 0 0
18.8 0 0
18.88 0 0
18.96 0 0
19.04 0 0
19.12 0 0
19.2 0 0
19.28 0 0
19.36 0 0
19.44 0 0
19.52 0 0
19.6 0 0
19.68 0 0
19.76 0 0
19.84 0 0
19.92 0 0
20 0 0
20.08 0 0
20.16 0 0
20.24 0 0
20.32 0 0
20.4 0 0
20.48 0 0
20.56 0 0
20.64 0 0
20.72 0 0
20.8 0 0
20.88 0 0
20.96 0 0
21.04 0 0
21.12 0 0
21.2 0 0
21.28 0 0
21.36 0 0
21.44 0 0
21.52 0 0
21.6 0 0
21.68 0 0
21.76 0 0
21.84 0 0
21.92 0 0
22 0 0
22.08 0 0
22.16 0 0
22.24 0 0
22.32 0 0
22.4 0 0
22.48 0 0
22.56 0 0
22.64 0 0
22.72 0 0
22.8 0 0
22.88 0 0
22.96 0 0
23.04 0 0
23.12 0 0
23.2 0 0
23.28 0 0
23.36 0 0
23.44 0 0
23.52 0 0
23.6 0 0
23.68 0 0
23.76 0 0
23.84 0 0
23.92 0 0
24 0 0
24.08 0 0
24.16 0 0
24.24 0 0
24.32 0 0
24.4 0 0
24.48 0 0
24.56 0 0
24.64 0 0
24.72 0 0
24.8 0 0
24.88 0 0
24.96 0 0
25.04 0 0
25.12 0 0
25.2 0 0
25.28 0 0
25.36 0 0
25.44 0 0
25.52 0 0
25.6 0 0
25.68 0 0
25.76 0 0
25.84 0 0
25.92 0 0
26 0 0
26.08 0 0
26.16 0 0
26.24 0 0
26.32 0 0
26.4 0 0
26.48 0 0
26.56 0 0
26.64 0 0
26.72 0 0
26.8 0 0
26.88 0 0
26.96 0 0
27.04 0 0
27.12 0 0
27.2 0 0
27.28 0 0
27.36 0 0
27.44 0 0
27.52 0 0
27.6 0 0
27.68 0 0
27.76 0 0
27.84 0 0
27.92 0 0
28 0 0
28.08 0 0
28.16 0 0
28.24 0 0
28.32 0 0
28.4 0 0
28.48 0 0
28.56 0 0
28.64 0 0
28.72 0 0
28.8 0 0
28.88 0 0
28.96 0 0
29.04 0 0
29.12 0 0
29.2 0 0
29.28 0 0
29.36 0 0
29.44 0 0
29.52 0 0
29.6 0 0
29.68 0 0
29.76 0 0
29.84 0 0
29.92 0 0
30 0 0
30.08 0 0
30.16 0 0
30.24 0 0
30.32 0 0
30.4 0 0
30.48 0 0
30.56 0 0
30.64 0 0
30.72 0 0
30.8 0 0
30.88 0 0
30.96 0 0
31.04 0 0
31.12 0 0
31.2 0 0
31.28 0 0
31.36 0 0
31.44 0 0
31.52 0 0
31.6 0 0
31.68 0 0
31.76 0 0
31.84 0 0
31.92 0 0
0 0.02 0
0.08 0.02 0
0.16 0.02 0
0.24 0.02 0
0.32 0.02 0
0.4 0.02 0
0.48 0.02 0
0.56 0.02 0
0.64 0.02 0
0.72 0.02 0
0.8 0.02 0
0.88 0.02 0
0.96 0.02 0
1.04 0.02 0
1.12 0.02 0
1.2 0.02 0
1.28 0.02 0
1.36 0.02 0
1.44 0.02 0
1.52 0.02 0
1.6 0.02 0
1.68 0.02 0
1.76 0.02 0
1.84 0.02 0
1.92 0.02 0
2 0.02 0
2.08 0.02 0
2.16 0.02 0
2.24 0.02 0
2.32 0.02 0
2.4 0.02 0
2.48 0.02 0
2.56 0.02 0
2.64 0.02 0
2.72 0.02 0
2.8 0.02 0
2.88 0.02 0
2.96 0.02 0
3.04 0.02 0
3.12 0.02 0
3.2 0.02 0
3.28 0.02 0
3.36 0.02 0
3.44 0.02 0
3.52 0.02 0
3.6 0.02 0
3.68 0.02 0
3.76 0.02 0
3.84 0.02 0
3.92 0.02 0
4 0.02 0
4.08 0.02 0
4.16 0.02 0
4.24 0.02 0
4.32 0.02 0
4.4 0.02 0
4.48 0.02 0
4.56 0.02 0
4.64 0.02 0
4.72 0.02 0
4.8 0.02 0
4.88 0.02 0
4.96 0.02 0
5.04 0.02 0
5.12 0.02 0
5.2 0.02 0
5.28 0.02 0
5.36 0.02 0
5.44 0.02 0
5.52 0.02 0
5.6 0.02 0
5.68 0.02 0
5.76 0.02 0
5.84 0.02 0
5.92 0.02 0
6 0.02 0
6.08 0.02 0
6.16 0.02 0
6.24 0.02 0
6.32 0.02 0
6.4 0.02 0
6.48 0.02 0
6.56 0.02 0
6.64 0.02 0
6.72 0.02 0
6.8 0.02 0
6.88 0.02 0
6.96 0.02 0
7.04 0.02 0
7.12 0.02 0
7.2 0.02 0
7.28 0.02 0
7.36 0.02 0
7.44 0.02 0
7.52 0.02 0
7.6 0.02 0
7.68 0.02 0
7.76 0.02 0
7.84 0.02 0
7.92 0.02 0
8 0.02 0
8.08 0.02 0
8.16 0.02 0
8.24 0.02 0
8.32 0.02 0
8.4 0.02 0
8.48 0.02 0
8.56 0.02 0
8.64 0.02 0
8.72 0.02 0
8.8 0.02 0
8.88 0.02 0
8.96 0.02 0
9.04 0.02 0
9.12 0.02 0
9.2 0.02 0
9.28 0.02 0
9.36 0.02 0
9.44 0.02 0
9.52 0.02 0
9.6 0.02 0
9.68 0.02 0
9.76 0.02 0
9.84 0.02 0
9.92 0.02 0
10 0.02 0
10.08 0.02 0
10.16 0.02 0
10.24 0.02 0
10.32 0.02 0
10.4 0.02 0
10.48 0.02 0
10.56 0.02 0
10.64 0.02 0
10.72 0.02 0
10.8 0.02 0
10.88 0.02 0
10.96 0.02 0
11.04 0.02 0
11.12 0.02 0
11.2 0.02 0
11.28 0.02 0
11.36 0.02 0
11.44 0.02 0
11.52 0.02 0
11.6 0.02 0
11.68 0.02 0
11.76 0.02 0
11.84 0.02 0
11.92 0.02 0
12 0.02 0
12.08 0.02 0
12.16 0.02 0
12.24 0.02 0
12.32 0.02 0
12.4 0.02 0
12.48 0.02 0
12.56 0.02 0
12.64 0.02 0
12.72 0.02 0
12.8 0.02 0
12.88 0.02 0
12.96 0.02 0
13.04 0.02 0
13.12 0.02 0
13.2 0.02 0
13.28 0.02 0
13.36 0.02 0
13.44 0.02 0
13.52 0.02 0
13.6 0.02 0
13.68 0.02 0
13.76 0.02 0
13.84 0.02 0
13.92 0.02 0
14 0.02 0
14.08 0.02 0
14.16 0.02 0
14.24 0.02 0
14.32 0.02 0
14.4 0.02 0
14.48 0.02 0
14.56 0.02 0
14.64 0.02 0
14.72 0.02 0
14.8 0.02 0
14.88 0.02 0
14.96 0.02 0
15.04 0.02 0
15.12 0.02 0
15.2 0.02 0
15.28 0.02 0
15.36 0.02 0
15.44 0.02 0
15.52 0.02 0
15.6 0.02 0
15.68 0.02 0
15.76 0.02 0
15.84 0.02 0
15.92 0.02 0
16 0.02 0
16.08 0.02 0
16.16 0.02 0
16.24 0.02 0
16.32 0.02 0
16.4 0.02 0
16.48 0.02 0
16.56 0.02 0
16.64 0.02 0
16.72 0.02 0
16.8 0.02 0
16.88 0.02 0
16.96 0.02 0
17.04 0.02 0
17.12 0.02 0
17.2 0.02 0
17.28 0.02 0
17.36 0.02 0
17.44 0.02 0
17.52 0.02 0
17.6 0.02 0
17.68 0.02 0
17.76 0.02 0
17.84 0.02 0
17.92 0.02 0
18 0.02 0
18.08 0.02 0
18.16 0.02 0
18.24 0.02 0
18.32 0.02 0
18.4 0.02 0
18.48 0.02 0
18.56 0.02 0
18.64 0.02 0
18.72 0.02 0
18.8 0.02 0
18.88 0.02 0
18.96 0.02 0
19.04 0.02 0
19.12 0.02 0
19.2 0.02 0
19.28 0.02 0
19.36 0.02 0
19.44 0.02 0
19.52 0.02 0
19.6 0.02 0
19.68 0.02 0
19.76 0.02 0
19.84 0.02 0
19.92 0.02 0
20 0.02 0
20.08 0.02 0
20.16 0.02 0
20.24 0.02 0
20.32 0.02 0
20.4 0.02 0
20.48 0.02 0
20.56 0.02 0
20.64 0.02 0
20.72 0.02 0
20.8 0.02 0
20.88 0.02 0
20.96 0.02 0
21.04 0.02 0
21.12 0.02 0
21.2 0.02 0
21.28 0.02 0
21.36 0.02 0
21.44 0.02 0
21.52 0.02 0
21.6 0.02 0
21.68 0.02 0
21.76 0.02 0
21.84 0.02 0
21.92 0.02 0
22 0.02 0
22.08 0.02 0
22.16 0.02 0
22.24 0.02 0
22.32 0.02 0
22.4 0.02 0
22.48 0.02 0
22.56 0.02 0
22.64 0.02 0
22.72 0.02 0
22.8 0.02 0
22.88 0.02 0
22.96 0.02 0
23.04 0.02 0
23.12 0.02 0
23.2 0.02 0
23.28 0.02 0
23.36 0.02 0
23.44 0.02 0
23.52 0.02 0
23.6 0.02 0
23.68 0.02 0
23.76 0.02 0
23.84 0.02 0
23.92 0.02 0
24 0.02 0
24.08 0.02 0
24.16 0.02 0
24.24 0.02 0
24.32 0.02 0
24.4 0.02 0
24.48 0.02 0
24.56 0.02 0
24.64 0.02 0
24.72 0.02 0
24.8 0.02 0
24.88 0.02 0
24.96 0.02 0
25.04 0.02 0
25.12 0.02 0
25.2 0.02 0
25.28 0.02 0
25.36 0.02 0
25.44 0.02 0
25.52 0.02 0
25.6 0.02 0
25.68 0.02 0
25.76 0.02 0
25.84 0.02 0
25.92 0.02 0
26 0.02 0
26.08 0.02 0
26.16 0.02 0
26.24 0.02 0
26.32 0.02 0
26.4 0.02 0
26.48 0.02 0
26.56 0.02 0
26.64 0.02 0
26.72 0.02 0
26.8 0.02 0
26.88 0.02 0
26.96 0.02 0
27.04 0.02 0
27.12 0.02 0
27.2 0.02 0
27.28 0.02 0
27.36 0.02 0
27.44 0.02 0
27.52 0.02 0
27.6 0.02 0
27.68 0.02 0
27.76 0.02 0
27.84 0.02 0
27.92 0.02 0
28 0.02 0
28.08 0.02 0
28.16 0.02 0
28.24 0.02 0
28.32 0.02 0
28.4 0.02 0
28.48 0.02 0
28.56 0.02 0
28.64 0.02 0
28.72 0.02 0
28.8 0.02 0
28.88 0.02 0
28.96 0.02 0
29.04 0.02 0
29.12 0.02 0
29.2 0.02 0
29.28 0.02 0
29.36 0.02 0
29.44 0.02 0
29.52 0.02 0
29.6 0.02 0
29.68 0.02 0
29.76 0.02 0
29.84 0.02 0
29.92 0.02 0
30 0.02 0
30.08 0.02 0
30.16 0.02 0
30.24 0.02 0
30.32 0.02 0
30.4 0.02 0
30.48 0.02 0
30.56 0.02 0
30.64 0.02 0
30.72 0.02 0
30.8 0.02 0
30.88 0.02 0
30.96 0.02 0
31.04 0.02 0
31.12 0.02 0
31.2 0.02 0
31.28 0.02 0
31.36 0.02 0
31.44 0.02 0
31.52 0.02 0
31.6 0.02 0
31.68 0.02 0
31.76 0.02 0
31.84 0.02 0
31.92 0.02 0
0 0.04 0
0.08 0.04 0
0.16 0.04 0
0.24 0.04 0
0.32 0.04 0
0.4 0.04 0
0.48 0.04 0
0.56 0.04 0
0.64 0.04 0
0.72 0.04 0
0.8 0.04 0
0.88 0.04 0
0.96 0.04 0
1.04 0.04 0
1.12 0.04 0
1.2 0.04 0
1.28 0.04 0
1.36 0.04 0
1.44 0.04 0
1.52 0.04 0
1.6 0.04 0
1.68 0.04 0
1.76 0.04 0
1.84 0.04 0
1.92 0.04 0
2 0.04 0
2.08 0.04 0
2.16 0.04 0
2.24 0.04 0
2.32 0.04 0
2.4 0.04 0
2.48 0.04 0
2.56 0.04 0
2.64 0.04 0
2.72 0.04 0
2.8 0.04 0
2.88 0.04 0
2.96 0.04 0
3.04 0.04 0
3.12 0.04 0
3.2 0.04 0
3.28 0.04 0
3.36 0.04 0
3.44 0.04 0
3.52 0.04 0
3.6 0.04 0
3.68 0.04 0
3.76 0.04 0
3.84 0.04 0
3.92 0.04 0
4 0.04 0
4.08 0.04 0
4.16 0.04 0
4.24 0.04 0
4.32 0.04 0
4.4 0.04 0
4.48 0.04 0
4.56 0.04 0
4.64 0.04 0
4.72 0.04 0
4.8 0.04 0
4.88 0.04 0
4.96 0.04 0
5.04 0.04 0
5.12 0.04 0
5.2 0.04 0
5.28 0.04 0
5.36 0.04 0
5.44 0.04 0
5.52 0.04 0
5.6 0.04 0
5.68 0.04 0
5.76 0.04 0
5.84 0.04 0
5.92 0.04 0
6 0.04 0
6.08 0.04 0
6.16 0.04 0
6.24 0.04 0
6.32 0.04 0
6.4 0.04 0
6.48 0.04 0
6.56 0.04 0
6.64 0.04 0
6.72 0.04 0
6.8 0.04 0
6.88 0.04 0
6.96 0.04 0
7.04 0.04 0
7.12 0.04 0
7.2 0.04 0
7.28 0.04 0
7.36 0.04 0
7.44 0.04 0
7.52 0.04 0
7.6 0.04 0
7.68 0.04 0
7.76 0.04 0
7.84 0.04 0
[...]
POINT_DATA 20000

SCALARS v float 1
LOOKUP_TABLE default
0
0
0
0
0
0
0
0
0
0
0
0
0
0
0
0
0
0
0
0
0
0
0
0
0
0
0
0
0
0
0
0
0
0
0
0
0
0
0
0
0
0
0
0
0
0
0
0
0
0
0
0
0
0
0
0
0
0
0
0
0
0
0
0
0
0
0
0
0
0
0
0
0
0
0
0
0
0
0
0
0
0
0
0
0
0
0
0
0
0
0
0
0
0
0
0
0
0
0
0
0
0
0
0
0
0
0
0
0
0
0
0
0
0
0
0
0
0
0
0
0
0
0
0
0
0
0
0
0
0
0
0
0
0
0
0
0
0
0
0
0
0
0
0
0
0
0
0
0
0
0
0
0
0
0
0
0
0
0
0
0
0
0
0
0
0
0
0
0
0
0
0
0
0
0
0
0
0
0
0
0
0
0
0
0
0
0
0
0
0
0
0
0
0
0
0
0
0
0
0
0
0
0
0
0
0
0
0
0
0
0
0
0
0
0
0
0
0
0
0
0
0
0
0
0
0
0
0
0
0
0
0
0
0
0
0
0
0
0
0
0
0
0
0
0
0
0
0
0
0
0
0
0
0
0
0
0
0
0
0
0
0
0
0
0
0
0
0
0
0
0
0
0
0
0
0
0
0
0
0
0
0
0
0
0
0
0
0
0
0
0
0
0
0
0
0
0
0
0
0
0
0
0
0
0
0
0
0
0
0
0
0
0
0
0
0
0
0
0
0
0
0
0
0
0
0
0
0
0
0
0
0
0
0
0
0
0
0
0
0
0
0
0
0
0
0
0
0
0
0
0
0
0
0
0
0
0
0
0
0
0
0
0
0
0
0
0
0
0
0
0
0
0
0
0
0
0
0
0
0
0
0
0
0
0
0
0
0
0
0
0
0
0
0
0
0
0
0
0
0
-0.123209
0.123209
0.053772
0.0194184
0.00876218
0.00506854
0.00336641
0.00241584
0.00182592
0.00143463
0.0011623
0.000965445
0.00081853
0.000705791
0.000617113
0.000545811
0.000487356
0.00043861
0.000397358
0.000362001
0.000331365
0.000304574
0.000280955
0.000259989
0.000241264
0.00022445
0.000209281
0.000195538
0.000183042
0.000171642
0.00016121
0.000151636
0.000142824
0.000134691
0.000127162
0.000120177
0.00011368
0.000107628
0.000101983
9.67098e-05
9.17786e-05
8.71592e-05
8.28229e-05
7.87431e-05
7.48963e-05
7.12637e-05
6.78302e-05
6.45843e-05
6.15154e-05
5.86126e-05
5.58638e-05
5.32555e-05
5.07735e-05
4.84045e-05
4.61377e-05
4.39667e-05
4.18897e-05
3.99076e-05
3.80213e-05
3.62276e-05
3.45183e-05
3.28818e-05
3.13068e-05
2.97862e-05
2.83182e-05
2.69047e-05
2.55489e-05
2.4253e-05
2.30172e-05
2.18394e-05
2.07142e-05
1.96319e-05
1.85793e-05
1.75446e-05
1.65232e-05
1.55218e-05
1.45559e-05
1.36415e-05
1.27851e-05
1.19786e-05
1.12034e-05
1.04402e-05
9.67849e-06
8.92109e-06
8.17954e-06
7.46688e-06
6.79166e-06
6.15643e-06
5.55895e-06
4.99306e-06
4.44796e-06
3.90805e-06
3.35686e-06
2.78509e-06
2.1986e-06
1.61958e-06
1.07764e-06
5.94241e-07
1.6946e-07
-2.20046e-07
-6.09738e-07
-1.02884e-06
-1.48569e-06
-1.965e-06
-2.43747e-06
-2.87503e-06
-3.26294e-06
-3.60356e-06
-3.91297e-06
-4.21476e-06
-4.53442e-06
-4.89444e-06
-5.30796e-06
-5.77117e-06
-6.2586e-06
-6.72759e-06
-7.13478e-06
-7.45914e-06
-7.71902e-06
-7.97048e-06
-8.28323e-06
-8.70409e-06
-9.22777e-06
-9.79344e-06
-1.03121e-05
-1.07121e-05
-1.09791e-05
-1.11662e-05
-1.13688e-05
-1.1676e-05
-1.21244e-05
-1.26793e-05
-1.3253e-05
-1.37495e-05
-1.41127e-05
-1.43514e-05
-1.45317e-05
-1.47401e-05
-1.50404e-05
-1.54441e-05
-1.59092e-05
-1.63642e-05
-1.67446e-05
-1.70218e-05
-1.72122e-05
-1.73648e-05
-1.75351e-05
-1.77593e-05
-1.8041e-05
-1.83543e-05
-1.86591e-05
-1.89211e-05
-1.91252e-05
-1.92789e-05
-1.94052e-05
-1.95303e-05
-1.96713e-05
-1.98305e-05
-1.99971e-05
-2.01537e-05
-2.02848e-05
-2.03835e-05
-2.04529e-05
-2.0504e-05
-2.05506e-05
-2.06035e-05
-2.06673e-05
-2.07396e-05
-2.08129e-05
-2.08779e-05
-2.09268e-05
-2.09555e-05
-2.09645e-05
-2.09576e-05
-2.09406e-05
-2.09194e-05
-2.08981e-05
-2.08788e-05
-2.08617e-05
-2.08452e-05
-2.08276e-05
-2.08071e-05
-2.07827e-05
-2.07542e-05
-2.07221e-05
-2.06876e-05
-2.06518e-05
-2.06156e-05
-2.05799e-05
-2.05449e-05
-2.05107e-05
-2.04771e-05
-2.04438e-05
-2.04106e-05
-2.03772e-05
-2.03435e-05
-2.03096e-05
-2.02754e-05
-2.0241e-05
-2.02065e-05
-2.01721e-05
-2.01377e-05
-2.01033e-05
-2.00691e-05
-2.00349e-05
-2.00008e-05
-1.99668e-05
-1.99328e-05
-1.98988e-05
-1.98648e-05
-1.98308e-05
-1.97969e-05
-1.9763e-05
-1.97291e-05
-1.96952e-05
-1.96614e-05
-1.96277e-05
-1.95939e-05
-1.95603e-05
-1.95267e-05
-1.94931e-05
-1.94596e-05
-1.94261e-05
-1.93928e-05
-1.93594e-05
-1.93262e-05
-1.9293e-05
-1.92598e-05
-1.92268e-05
-1.91938e-05
-1.91608e-05
-1.9128e-05
-1.90952e-05
-1.90625e-05
-1.90299e-05
-1.89974e-05
-1.8965e-05
-1.89326e-05
-1.89004e-05
-1.88682e-05
-1.88361e-05
-1.88041e-05
-1.87723e-05
-1.87405e-05
-1.87088e-05
-1.86772e-05
-1.86458e-05
-1.86144e-05
-1.85832e-05
-1.8552e-05
-1.8521e-05
-1.84901e-05
-1.84593e-05
-1.84286e-05
-1.83981e-05
-1.83676e-05
-1.83373e-05
-1.83072e-05
-1.82771e-05
-1.82472e-05
-1.82174e-05
-1.81878e-05
-1.81583e-05
-1.81289e-05
-1.80997e-05
-1.80706e-05
-1.80416e-05
-1.80128e-05
-1.79842e-05
-1.79557e-05
-1.79273e-05
-1.78991e-05
-1.78711e-05
-1.78432e-05
-1.78154e-05
-1.77879e-05
-1.77604e-05
-1.77332e-05
-1.77061e-05
-1.76792e-05
-1.76524e-05
-1.76258e-05
-1.75994e-05
-1.75732e-05
-1.75471e-05
-1.75212e-05
-1.74955e-05
-1.747e-05
-1.74446e-05
-1.74195e-05
-1.73945e-05
-1.73697e-05
-1.7345e-05
-1.73206e-05
-1.72964e-05
-1.72723e-05
-1.72485e-05
-1.72248e-05
-1.72013e-05
-1.71781e-05
-1.7155e-05
-1.71321e-05
-1.71094e-05
-1.70869e-05
-1.70647e-05
-1.70426e-05
-1.70207e-05
-1.69991e-05
-1.69777e-05
-1.69564e-05
-1.69354e-05
-1.69146e-05
-1.6894e-05
-1.68736e-05
-1.68534e-05
-1.68335e-05
-1.68137e-05
-1.67942e-05
-1.67749e-05
-1.67559e-05
-1.6737e-05
-1.67184e-05
-1.67e-05
-1.66818e-05
-1.66639e-05
-1.66462e-05
-1.66287e-05
-1.66114e-05
-1.65944e-05
-1.65776e-05
-1.6561e-05
-1.65447e-05
-1.65286e-05
-1.65128e-05
-1.64971e-05
-1.64818e-05
-1.64665e-05
-1.64518e-05
-1.64369e-05
-1.64227e-05
-1.64083e-05
-1.63946e-05
-1.63807e-05
-1.63676e-05
-1.6354e-05
-1.63415e-05
-1.63282e-05
-1.63164e-05
-1.63035e-05
-1.62923e-05
-1.62797e-05
-1.62693e-05
-1.62568e-05
-1.62474e-05
-1.6235e-05
-1.62266e-05
-1.62141e-05
-1.62068e-05
-1.61941e-05
-1.61883e-05
-1.61751e-05
-1.6171e-05
-1.61569e-05
-1.61549e-05
-1.61397e-05
-1.61402e-05
-1.61232e-05
-1.61271e-05
-1.61075e-05
-1.61156e-05
-1.60924e-05
-1.61061e-05
-1.60778e-05
-1.60989e-05
-1.60635e-05
-1.60944e-05
-1.60492e-05
-1.6093e-05
-1.60349e-05
-1.60953e-05
-1.60204e-05
-1.61019e-05
-1.60055e-05
-1.61133e-05
-1.59901e-05
-1.61304e-05
-1.59733e-05
-1.61545e-05
-1.59526e-05
-1.61872e-05
-1.59222e-05
-1.62261e-05
-1.58755e-05
-1.62389e-05
-1.58247e-05
-1.60258e-05
-1.58523e-05
-1.38436e-05
-1.45314e-05
-1.45314e-05
-0.142136
0.142136
0.100983
0.0538904
0.0302331
0.0188944
0.0129033
0.00938837
0.00715514
0.00565197
0.00459524
0.00382603
0.00324933
0.00280565
0.00245631
0.00217549
0.00194554
0.00175412
0.00159247
0.00145422
0.00133471
0.0012304
0.00113862
0.00105728
0.000984749
0.000919702
0.000861085
0.000808035
0.000759836
0.000715893
0.000675702
0.00063883
0.000604903
0.000573597
0.000544631
0.000517765
0.000492794
0.000469543
0.000447861
0.000427612
0.000408673
0.000390927
0.000374265
0.000358587
0.000343807
0.000329855
0.000316671
0.000304208
0.000292421
0.000281263
0.000270687
0.000260642
0.000251079
0.000241954
0.000233231
0.00022489
0.00021692
0.000209317
0.000202076
0.000195176
0.000188586
0.000182267
0.000176186
0.000170322
0.000164672
0.000159239
0.000154029
0.000149044
0.000144277
0.000139718
0.000135343
0.000131119
0.00012701
0.000122986
0.000119042
0.000115205
0.000111518
0.000108017
0.000104709
0.000101557
9.85055e-05
9.55027e-05
9.25291e-05
8.96005e-05
8.67526e-05
8.40197e-05
8.14201e-05
7.89538e-05
7.66071e-05
7.43553e-05
7.21623e-05
6.99834e-05
6.77787e-05
6.5536e-05
6.32867e-05
6.11007e-05
5.90554e-05
5.71925e-05
5.54898e-05
5.38665e-05
5.22231e-05
5.04921e-05
4.86704e-05
4.68163e-05
4.50154e-05
4.33374e-05
4.18069e-05
4.03997e-05
3.90573e-05
3.77064e-05
3.62762e-05
3.47138e-05
3.30008e-05
3.1171e-05
2.93139e-05
2.7551e-05
2.59844e-05
2.4637e-05
2.34211e-05
2.21633e-05
2.06847e-05
1.8899e-05
1.68737e-05
1.48118e-05
1.29562e-05
1.14622e-05
1.03094e-05
9.30307e-06
8.17024e-06
6.69953e-06
4.85129e-06
2.77846e-06
7.47954e-07
-9.94453e-07
-2.34413e-06
-3.38145e-06
-4.32105e-06
-5.39776e-06
-6.7504e-06
-8.36136e-06
-1.00768e-05
-1.16906e-05
-1.30448e-05
-1.4098e-05
-1.4931e-05
-1.56966e-05
-1.65414e-05
-1.75419e-05
-1.86797e-05
-1.98627e-05
-2.09763e-05
-2.19361e-05
-2.27194e-05
-2.33644e-05
-2.3944e-05
-2.45278e-05
-2.51533e-05
-2.58149e-05
-2.64738e-05
-2.70799e-05
-2.75959e-05
-2.80112e-05
-2.83436e-05
-2.86292e-05
-2.89062e-05
-2.92007e-05
-2.95191e-05
-2.98487e-05
-3.01647e-05
-3.04408e-05
-3.06581e-05
-3.08096e-05
-3.09013e-05
-3.09481e-05
-3.0968e-05
-3.09777e-05
-3.09881e-05
-3.10036e-05
-3.10229e-05
-3.10412e-05
-3.10531e-05
-3.10539e-05
-3.10418e-05
-3.10172e-05
-3.09826e-05
-3.09415e-05
-3.08975e-05
-3.08534e-05
-3.0811e-05
-3.0771e-05
-3.07333e-05
-3.06972e-05
-3.06618e-05
-3.06262e-05
-3.059e-05
-3.05529e-05
-3.05149e-05
-3.04762e-05
-3.04371e-05
-3.03978e-05
-3.03586e-05
-3.03195e-05
-3.02807e-05
-3.02422e-05
-3.02038e-05
-3.01656e-05
-3.01275e-05
-3.00894e-05
-3.00513e-05
-3.00132e-05
-2.99751e-05
-2.9937e-05
-2.9899e-05
-2.98609e-05
-2.98229e-05
-2.9785e-05
-2.97471e-05
-2.97093e-05
-2.96715e-05
-2.96338e-05
-2.95962e-05
-2.95587e-05
-2.95212e-05
-2.94838e-05
-2.94465e-05
-2.94093e-05
-2.93721e-05
-2.9335e-05
-2.92981e-05
-2.92611e-05
-2.92243e-05
-2.91876e-05
-2.9151e-05
-2.91145e-05
-2.9078e-05
-2.90417e-05
-2.90055e-05
-2.89694e-05
-2.89333e-05
-2.88975e-05
-2.88617e-05
-2.8826e-05
-2.87905e-05
-2.8755e-05
-2.87197e-05
-2.86845e-05
-2.86495e-05
-2.86146e-05
-2.85798e-05
-2.85451e-05
-2.85106e-05
-2.84762e-05
-2.8442e-05
-2.84079e-05
-2.83739e-05
-2.83401e-05
-2.83064e-05
-2.82729e-05
-2.82396e-05
-2.82064e-05
-2.81733e-05
-2.81404e-05
-2.81077e-05
-2.80751e-05
-2.80427e-05
-2.80105e-05
-2.79785e-05
-2.79466e-05
-2.79149e-05
-2.78833e-05
-2.78519e-05
-2.78208e-05
-2.77898e-05
-2.77589e-05
-2.77283e-05
-2.76979e-05
-2.76676e-05
-2.76375e-05
-2.76076e-05
-2.7578e-05
-2.75485e-05
-2.75192e-05
-2.74901e-05
-2.74612e-05
-2.74325e-05
-2.7404e-05
-2.73757e-05
-2.73477e-05
-2.73198e-05
-2.72921e-05
-2.72647e-05
-2.72375e-05
-2.72105e-05
-2.71837e-05
-2.71571e-05
-2.71308e-05
-2.71046e-05
-2.70787e-05
-2.7053e-05
-2.70276e-05
-2.70024e-05
-2.69774e-05
-2.69526e-05
-2.69281e-05
-2.69038e-05
-2.68797e-05
-2.68559e-05
-2.68323e-05
-2.68089e-05
-2.67858e-05
-2.67629e-05
-2.67403e-05
-2.67179e-05
-2.66958e-05
-2.66739e-05
-2.66523e-05
-2.66309e-05
-2.66098e-05
-2.65889e-05
-2.65682e-05
-2.65478e-05
-2.65278e-05
-2.65078e-05
-2.64883e-05
-2.64689e-05
-2.64498e-05
-2.64309e-05
-2.64125e-05
-2.6394e-05
-2.63761e-05
-2.63582e-05
-2.63409e-05
-2.63234e-05
-2.63067e-05
-2.62897e-05
-2.62736e-05
-2.6257e-05
-2.62416e-05
-2.62254e-05
-2.62107e-05
-2.61949e-05
-2.6181e-05
-2.61655e-05
-2.61523e-05
-2.61371e-05
-2.61249e-05
-2.61098e-05
-2.60987e-05
-2.60835e-05
-2.60737e-05
-2.60583e-05
-2.60499e-05
-2.60341e-05
-2.60275e-05
-2.60108e-05
-2.60066e-05
-2.59886e-05
-2.59871e-05
-2.59672e-05
-2.59692e-05
-2.59467e-05
-2.59532e-05
-2.5927e-05
-2.59391e-05
-2.5908e-05
-2.59273e-05
-2.58894e-05
-2.59183e-05
-2.58711e-05
-2.59126e-05
-2.58527e-05
-2.59111e-05
-2.58337e-05
-2.59148e-05
-2.58135e-05
-2.59251e-05
-2.57916e-05
-2.59435e-05
-2.57675e-05
-2.59718e-05
-2.57407e-05
-2.60118e-05
-2.5711e-05
-2.60658e-05
-2.56779e-05
-2.61365e-05
-2.56386e-05
-2.62284e-05
-2.55847e-05
-2.63473e-05
-2.54969e-05
-2.64867e-05
-2.53514e-05
-2.65476e-05
-2.5173e-05
-2.59305e-05
-2.51449e-05
-2.00875e-05
-2.17482e-05
-2.17482e-05
-0.122211
0.122211
0.121642
0.0822446
0.0539707
0.0368392
0.0263678
0.0196904
0.0152392
0.0121533
0.00994113
0.00830895
0.0070736
0.00611684
0.00536016
0.00475017
0.00424987
0.00383311
0.00348111
0.00318017
0.00292013
0.00269331
0.00249386
0.0023172
0.00215974
0.0020186
0.00189147
0.00177645
0.00167198
0.00157675
0.00148967
0.00140977
0.00133626
0.00126844
0.00120569
0.00114749
0.00109342
0.00104308
0.000996138
0.000952301
0.000911295
0.000872865
0.000836777
0.000802822
0.000770815
0.000740604
0.000712061
0.000685075
0.000659544
0.000635365
0.000612436
0.00059065
0.000569908
0.000550122
0.000531222
0.000513163
0.000495919
0.000479472
0.000463796
0.000448847
0.000434555
0.000420845
0.000407656
0.00039495
0.000382717
0.000370962
0.000359688
0.00034889
0.000338552
0.000328644
0.000319119
0.000309915
0.000300966
0.000292228
0.000283698
0.000275426
0.000267487
0.000259934
0.000252762
0.000245897
0.000239234
0.00023269
0.000226239
0.000219915
0.000213782
0.000207896
0.000202281
0.000196928
0.000191806
0.000186864
0.000182035
0.000177242
0.000172425
0.000167576
0.000162761
0.000158108
0.000153742
0.000149716
0.000145968
0.000142345
0.000138674
0.000134853
0.000130897
0.000126919
0.000123071
0.00011946
0.000116112
0.000112965
0.000109903
0.000106795
0.000103521
0.000100003
9.62291e-05
9.22799e-05
8.83245e-05
8.45714e-05
8.11748e-05
7.8139e-05
7.52794e-05
7.22849e-05
6.88663e-05
6.49201e-05
6.06129e-05
5.63243e-05
5.24635e-05
4.92531e-05
4.65982e-05
4.41212e-05
4.13489e-05
3.79571e-05
3.39405e-05
2.96176e-05
2.54678e-05
2.18909e-05
1.90139e-05
1.66436e-05
1.43808e-05
1.18301e-05
8.79278e-06
5.34977e-06
1.80195e-06
-1.48948e-06
-4.27639e-06
-6.52638e-06
-8.41393e-06
-1.02173e-05
-1.21806e-05
-1.44091e-05
-1.68414e-05
-1.9299e-05
-2.15816e-05
-2.35564e-05
-2.52046e-05
-2.66104e-05
-2.79078e-05
-2.92145e-05
-3.05844e-05
-3.19955e-05
-3.33726e-05
-3.46288e-05
-3.57056e-05
-3.65945e-05
-3.73356e-05
-3.79958e-05
-3.86406e-05
-3.93102e-05
-4.00083e-05
-4.07067e-05
-4.13593e-05
-4.19211e-05
-4.2363e-05
-4.26789e-05
-4.28847e-05
-4.30107e-05
-4.3091e-05
-4.31545e-05
-4.32192e-05
-4.32912e-05
-4.33664e-05
-4.34359e-05
-4.34898e-05
-4.3521e-05
-4.35272e-05
-4.35103e-05
-4.34759e-05
-4.34307e-05
-4.33812e-05
-4.33325e-05
-4.32875e-05
-4.3247e-05
-4.32105e-05
-4.31766e-05
-4.31436e-05
-4.31101e-05
-4.30752e-05
-4.30386e-05
-4.30003e-05
-4.29607e-05
-4.29204e-05
-4.28799e-05
-4.28396e-05
-4.27996e-05
-4.27601e-05
-4.2721e-05
-4.26823e-05
-4.26438e-05
-4.26054e-05
-4.2567e-05
-4.25286e-05
-4.24902e-05
-4.24517e-05
-4.24132e-05
-4.23747e-05
-4.23362e-05
-4.22977e-05
-4.22593e-05
-4.22209e-05
-4.21827e-05
-4.21445e-05
-4.21064e-05
-4.20683e-05
-4.20304e-05
-4.19925e-05
-4.19547e-05
-4.1917e-05
-4.18793e-05
-4.18418e-05
-4.18043e-05
-4.17669e-05
-4.17296e-05
-4.16924e-05
-4.16553e-05
-4.16182e-05
-4.15813e-05
-4.15445e-05
-4.15078e-05
-4.14712e-05
-4.14347e-05
-4.13984e-05
-4.13621e-05
-4.1326e-05
-4.129e-05
-4.12541e-05
-4.12183e-05
-4.11827e-05
-4.11472e-05
-4.11118e-05
-4.10766e-05
-4.10415e-05
-4.10065e-05
-4.09717e-05
-4.09371e-05
-4.09025e-05
-4.08682e-05
-4.08339e-05
-4.07999e-05
-4.07659e-05
-4.07322e-05
-4.06986e-05
-4.06651e-05
-4.06319e-05
-4.05988e-05
-4.05658e-05
-4.0533e-05
-4.05004e-05
-4.0468e-05
-4.04358e-05
-4.04037e-05
-4.03718e-05
-4.03401e-05
-4.03086e-05
-4.02773e-05
-4.02461e-05
-4.02152e-05
-4.01844e-05
-4.01538e-05
-4.01235e-05
-4.00933e-05
-4.00633e-05
-4.00335e-05
-4.0004e-05
-3.99746e-05
-3.99454e-05
-3.99165e-05
-3.98878e-05
-3.98592e-05
-3.98309e-05
-3.98028e-05
-3.97749e-05
-3.97473e-05
-3.97198e-05
-3.96926e-05
-3.96656e-05
-3.96389e-05
-3.96123e-05
-3.9586e-05
-3.95599e-05
-3.95341e-05
-3.95084e-05
-3.94831e-05
-3.94579e-05
-3.9433e-05
-3.94083e-05
-3.93839e-05
-3.93597e-05
-3.93358e-05
-3.93121e-05
-3.92886e-05
-3.92654e-05
-3.92424e-05
-3.92197e-05
-3.91973e-05
-3.9175e-05
-3.91531e-05
-3.91314e-05
-3.911e-05
-3.90887e-05
-3.90679e-05
-3.90471e-05
-3.90268e-05
-3.90066e-05
-3.89868e-05
-3.8967e-05
-3.89478e-05
-3.89286e-05
-3.89099e-05
-3.88912e-05
-3.88731e-05
-3.88548e-05
-3.88373e-05
-3.88195e-05
-3.88027e-05
-3.87853e-05
-3.87692e-05
-3.87522e-05
-3.87368e-05
-3.87202e-05
-3.87056e-05
-3.86892e-05
-3.86755e-05
-3.86593e-05
-3.86466e-05
-3.86305e-05
-3.86189e-05
-3.86027e-05
-3.85924e-05
-3.8576e-05
-3.85673e-05
-3.85503e-05
-3.85435e-05
-3.85255e-05
-3.85212e-05
-3.85017e-05
-3.85004e-05
-3.84788e-05
-3.84814e-05
-3.84566e-05
-3.84642e-05
-3.84352e-05
-3.84491e-05
-3.84144e-05
-3.84365e-05
-3.8394e-05
-3.84267e-05
-3.83739e-05
-3.84203e-05
-3.83536e-05
-3.84183e-05
-3.83326e-05
-3.84218e-05
-3.83104e-05
-3.84325e-05
-3.82859e-05
-3.84525e-05
-3.82581e-05
-3.84843e-05
-3.8226e-05
-3.8531e-05
-3.81886e-05
-3.8596e-05
-3.81452e-05
-3.86833e-05
-3.80954e-05
-3.87972e-05
-3.80377e-05
-3.89444e-05
-3.7966e-05
-3.91352e-05
-3.78624e-05
-3.93831e-05
-3.76889e-05
-3.96776e-05
-3.74005e-05
-3.98333e-05
-3.70378e-05
-3.87882e-05
-3.68247e-05
-2.97453e-05
-3.08401e-05
-3.08401e-05
-0.0942656
0.0942656
0.120995
0.0969463
0.0717695
0.0531734
0.0401758
0.0310858
0.0246316
0.0199585
0.0165049
0.0139002
0.0118968
0.0103265
0.00907361
0.00805699
0.00721916
0.00651882
0.00592584
0.00541799
0.00497859
0.00459498
0.00425742
0.00395826
0.00369149
0.00345229
0.00323674
0.00304167
0.00286443
0.00270282
0.00255496
0.00241927
0.00229438
0.0021791
0.00207242
0.00197347
0.00188152
0.0017959
0.00171605
0.00164146
0.00157167
0.00150625
0.0014448
0.00138697
0.00133246
0.001281
0.00123238
0.0011864
0.00114288
0.00110164
0.00106252
0.00102534
0.000989933
0.000956166
0.000923924
0.00089313
0.000863733
0.000835694
0.00080896
0.000783446
0.000759042
0.000735628
0.000713109
0.000691426
0.000670562
0.000650515
0.000631283
0.00061285
0.000595181
0.000578225
0.000561907
0.000546136
0.000530816
0.000515886
0.000501347
0.000487274
0.00047377
0.000460902
0.000448648
0.00043689
0.000425472
0.000414274
0.000403266
0.000392504
0.000382081
0.000372072
0.000362503
0.000353349
0.000344557
0.00033605
0.000327729
0.000319488
0.000311246
0.000303003
0.000294865
0.000287017
0.000279629
0.000272759
0.0002663
0.000260015
0.000253657
0.000247091
0.000240355
0.000233625
0.000227117
0.000220974
0.000215211
0.000209722
0.000204327
0.000198835
0.000193081
0.000186969
0.000180499
0.000173805
0.000167137
0.000160791
0.000154968
0.000149643
0.000144527
0.000139165
0.000133161
0.000126407
0.000119183
0.000112057
0.000105608
0.000100115
9.539e-05
9.08563e-05
8.58352e-05
7.98996e-05
7.30996e-05
6.5941e-05
5.9129e-05
5.32146e-05
4.83311e-05
4.4151e-05
4.00751e-05
3.55452e-05
3.03145e-05
2.45461e-05
1.8705e-05
1.33143e-05
8.70718e-06
4.89281e-06
1.58791e-06
-1.62057e-06
-5.07331e-06
-8.89536e-06
-1.29691e-05
-1.70195e-05
-2.07562e-05
-2.40015e-05
-2.67488e-05
-2.91372e-05
-3.13681e-05
-3.36084e-05
-3.59258e-05
-3.82771e-05
-4.05472e-05
-4.26109e-05
-4.43905e-05
-4.58837e-05
-4.71562e-05
-4.83085e-05
-4.94332e-05
-5.05823e-05
-5.17538e-05
-5.29005e-05
-5.39539e-05
-5.48505e-05
-5.55534e-05
-5.60606e-05
-5.64018e-05
-5.66254e-05
-5.67833e-05
-5.69177e-05
-5.70532e-05
-5.71966e-05
-5.73407e-05
-5.74714e-05
-5.75744e-05
-5.76404e-05
-5.76673e-05
-5.76596e-05
-5.76263e-05
-5.7578e-05
-5.75245e-05
-5.74732e-05
-5.74279e-05
-5.73897e-05
-5.73573e-05
-5.73284e-05
-5.73004e-05
-5.72713e-05
-5.72399e-05
-5.72057e-05
-5.7169e-05
-5.71305e-05
-5.7091e-05
-5.70512e-05
-5.70117e-05
-5.69728e-05
-5.69347e-05
-5.68972e-05
-5.68601e-05
-5.68234e-05
-5.67868e-05
-5.67502e-05
-5.67135e-05
-5.66768e-05
-5.66399e-05
-5.66029e-05
-5.65659e-05
-5.65289e-05
-5.64919e-05
-5.6455e-05
-5.64182e-05
-5.63814e-05
-5.63447e-05
-5.63081e-05
-5.62716e-05
-5.62351e-05
-5.61987e-05
-5.61624e-05
-5.61262e-05
-5.609e-05
-5.60539e-05
-5.60179e-05
-5.59819e-05
-5.59461e-05
-5.59103e-05
-5.58747e-05
-5.58391e-05
-5.58036e-05
-5.57682e-05
-5.5733e-05
-5.56978e-05
-5.56627e-05
-5.56278e-05
-5.55929e-05
-5.55582e-05
-5.55236e-05
-5.54891e-05
-5.54547e-05
-5.54205e-05
-5.53864e-05
-5.53524e-05
-5.53185e-05
-5.52848e-05
-5.52512e-05
-5.52177e-05
-5.51844e-05
-5.51513e-05
-5.51182e-05
-5.50853e-05
-5.50526e-05
-5.502e-05
-5.49876e-05
-5.49553e-05
-5.49232e-05
-5.48913e-05
-5.48595e-05
-5.48278e-05
-5.47964e-05
-5.47651e-05
-5.4734e-05
-5.4703e-05
-5.46722e-05
-5.46416e-05
-5.46112e-05
-5.4581e-05
-5.45509e-05
-5.4521e-05
-5.44913e-05
-5.44618e-05
-5.44325e-05
-5.44034e-05
-5.43745e-05
-5.43457e-05
-5.43172e-05
-5.42888e-05
-5.42607e-05
-5.42328e-05
-5.4205e-05
-5.41775e-05
-5.41502e-05
-5.41231e-05
-5.40962e-05
-5.40695e-05
-5.4043e-05
-5.40168e-05
-5.39907e-05
-5.39649e-05
-5.39393e-05
-5.39139e-05
-5.38887e-05
-5.38638e-05
-5.38391e-05
-5.38146e-05
-5.37904e-05
-5.37663e-05
-5.37426e-05
-5.3719e-05
-5.36957e-05
-5.36726e-05
-5.36497e-05
-5.36271e-05
-5.36048e-05
-5.35826e-05
-5.35607e-05
-5.35391e-05
-5.35177e-05
-5.34965e-05
-5.34756e-05
-5.34549e-05
-5.34345e-05
-5.34143e-05
-5.33945e-05
-5.33747e-05
-5.33554e-05
-5.33361e-05
-5.33174e-05
-5.32985e-05
-5.32803e-05
-5.3262e-05
-5.32444e-05
-5.32264e-05
-5.32094e-05
-5.31919e-05
-5.31756e-05
-5.31584e-05
-5.31428e-05
-5.3126e-05
-5.31111e-05
-5.30946e-05
-5.30805e-05