# vtk DataFile Version 2.0
FlowField
ASCII
DATASET STRUCTURED_GRID
DIMENSIONS 400 1 50
POINTS 20000 float
0 0 0
0.08 0 0
0.16 0 0
0.24 0 0
0.32 0 0
0.4 0 0
0.48 0 0
0.56 0 0
0.64 0 0
0.72 0 0
0.8 0 0
0.88 0 0
0.96 0 0
1.04 0 0
1.12 0 0
1.2 0 0
1.28 0 0
1.36 0 0
1.44 0 0
1.52 0 0
1.6 0 0
1.68 0 0
1.76 0 0
1.84 0 0
1.92 0 0
2 0 0
2.08 0 0
2.16 0 0
2.24 0 0
2.32 0 0
2.4 0 0
2.48 0 0
2.56 0 0
2.64 0 0
2.72 0 0
2.8 0 0
2.88 0 0
2.96 0 0
3.04 0 0
3.12 0 0
3.2 0 0
3.28 0 0
3.36 0 0
3.44 0 0
3.52 0 0
3.6 0 0
3.68 0 0
3.76 0 0
3.84 0 0
3.92 0 0
4 0 0
4.08 0 0
4.16 0 0
4.24 0 0
4.32 0 0
4.4 0 0
4.48 0 0
4.56 0 0
4.64 0 0
4.72 0 0
4.8 0 0
4.88 0 0
4.96 0 0
5.04 0 0
5.12 0 0
5.2 0 0
5.28 0 0
5.36 0 0
5.44 0 0
5.52 0 0
5.6 0 0
5.68 0 0
5.76 0 0
5.84 0 0
5.92 0 0
6 0 0
6.08 0 0
6.16 0 0
6.24 0 0
6.32 0 0
6.4 0 0
6.48 0 0
6.56 0 0
6.64 0 0
6.72 0 0
6.8 0 0
6.88 0 0
6.96 0 0
7.04 0 0
7.12 0 0
7.2 0 0
7.28 0 0
7.36 0 0
7.44 0 0
7.52 0 0
7.6 0 0
7.68 0 0
7.76 0 0
7.84 0 0
7.92 0 0
8 0 0
8.08 0 0
8.16 0 0
8.24 0 0
8.32 0 0
8.4 0 0
8.48 0 0
8.56 0 0
8.64 0 0
8.72 0 0
8.8 0 0
8.88 0 0
8.96 0 0
9.04 0 0
9.12 0 0
9.2 0 0
9.28 0 0
9.36 0 0
9.44 0 0
9.52 0 0
9.6 0 0
9.68 0 0
9.76 0 0
9.84 0 0
9.92 0 0
10 0 0
10.08 0 0
10.16 0 0
10.24 0 0
10.32 0 0
10.4 0 0
10.48 0 0
10.56 0 0
10.64 0 0
10.72 0 0
10.8 0 0
10.88 0 0
10.96 0 0
11.04 0 0
11.12 0 0
11.2 0 0
11.28 0 0
11.36 0 0
11.44 0 0
11.52 0 0
11.6 0 0
11.68 0 0
11.76 0 0
11.84 0 0
11.92 0 0
12 0 0
12.08 0 0
12.16 0 0
12.24 0 0
12.32 0 0
12.4 0 0
12.48 0 0
12.56 0 0
12.64 0 0
12.72 0 0
12.8 0 0
12.88 0 0
12.96 0 0
13.04 0 0
13.12 0 0
13.2 0 0
13.28 0 0
13.36 0 0
13.44 0 0
13.52 0 0
13.6 0 0
13.68 0 0
13.76 0 0
13.84 0 0
13.92 0 0
14 0 0
14.08 0 0
14.16 0 0
14.24 0 0
14.32 0 0
14.4 0 0
14.48 0 0
14.56 0 0
14.64 0 0
14.72 0 0
14.8 0 0
14.88 0 0
14.96 0 0
15.04 0 0
15.12 0 0
15.2 0 0
15.28 0 0
15.36 0 0
15.44 0 0
15.52 0 0
15.6 0 0
15.68 0 0
15.76 0 0
15.84 0 0
15.92 0 0
16 0 0
16.08 0 0
16.16 0 0
16.24 0 0
16.32 0 0
16.4 0 0
16.48 0 0
16.56 0 0
16.64 0 0
16.72 0 0
16.8 0 0
16.88 0 0
16.96 0 0
17.04 0 0
17.12 0 0
17.2 0 0
17.28 0 0
17.36 0 0
17.44 0 0
17.52 0 0
17.6 0 0
17.68 0 0
17.76 0 0
17.84 0 0
17.92 0 0
18 0 0
18.08 0 0
18.16 0 0
18.24 0 0
18.32 0 0
18.4 0 0
18.48 0 0
18.56 0 0
18.64 0 0
18.72 0 0
18.8 0 0
18.88 0 0
18.96 0 0
19.04 0 0
19.12 0 0
19.2 0 0
19.28 0 0
19.36 0 0
19.44 0 0
19.52 0 0
19.6 0 0
19.68 0 0
19.76 0 0
19.84 0 0
19.92 0 0
20 0 0
20.08 0 0
20.16 0 0
20.24 0 0
20.32 0 0
20.4 0 0
20.48 0 0
20.56 0 0
20.64 0 0
20.72 0 0
20.8 0 0
20.88 0 0
20.96 0 0
21.04 0 0
21.12 0 0
21.2 0 0
21.28 0 0
21.36 0 0
21.44 0 0
21.52 0 0
21.6 0 0
21.68 0 0
21.76 0 0
21.84 0 0
21.92 0 0
22 0 0
22.08 0 0
22.16 0 0
22.24 0 0
22.32 0 0
22.4 0 0
22.48 0 0
22.56 0 0
22.64 0 0
22.72 0 0
22.8 0 0
22.88 0 0
22.96 0 0
23.04 0 0
23.12 0 0
23.2 0 0
23.28 0 0
23.36 0 0
23.44 0 0
23.52 0 0
23.6 0 0
23.68 0 0
23.76 0 0
23.84 0 0
23.92 0 0
24 0 0
24.08 0 0
24.16 0 0
24.24 0 0
24.32 0 0
24.4 0 0
24.48 0 0
24.56 0 0
24.64 0 0
24.72 0 0
24.8 0 0
24.88 0 0
24.96 0 0
25.04 0 0
25.12 0 0
25.2 0 0
25.28 0 0
25.36 0 0
25.44 0 0
25.52 0 0
25.6 0 0
25.68 0 0
25.76 0 0
25.84 0 0
25.92 0 0
26 0 0
26.08 0 0
26.16 0 0
26.24 0 0
26.32 0 0
26.4 0 0
26.48 0 0
26.56 0 0
26.64 0 0
26.72 0 0
26.8 0 0
26.88 0 0
26.96 0 0
27.04 0 0
27.12 0 0
27.2 0 0
27.28 0 0
27.36 0 0
27.44 0 0
27.52 0 0
27.6 0 0
27.68 0 0
27.76 0 0
27.84 0 0
27.92 0 0
28 0 0
28.08 0 0
28.16 0 0
28.24 0 0
28.32 0 0
28.4 0 0
28.48 0 0
28.56 0 0
28.64 0 0
28.72 0 0
28.8 0 0
28.88 0 0
28.96 0 0
29.04 0 0
29.12 0 0
29.2 0 0
29.28 0 0
29.36 0 0
29.44 0 0
29.52 0 0
29.6 0 0
29.68 0 0
29.76 0 0
29.84 0 0
29.92 0 0
30 0 0
30.08 0 0
30.16 0 0
30.24 0 0
30.32 0 0
30.4 0 0
30.48 0 0
30.56 0 0
30.64 0 0
30.72 0 0
30.8 0 0
30.88 0 0
30.96 0 0
31.04 0 0
31.12 0 0
31.2 0 0
31.28 0 0
31.36 0 0
31.44 0 0
31.52 0 0
31.6 0 0
31.68 0 0
31.76 0 0
31.84 0 0
31.92 0 0
0 0.02 0
0.08 0.02 0
0.16 0.02 0
0.24 0.02 0
0.32 0.02 0
0.4 0.02 0
0.48 0.02 0
0.56 0.02 0
0.64 0.02 0
0.72 0.02 0
0.8 0.02 0
0.88 0.02 0
0.96 0.02 0
1.04 0.02 0
1.12 0.02 0
1.2 0.02 0
1.28 0.02 0
1.36 0.02 0
1.44 0.02 0
1.52 0.02 0
1.6 0.02 0
1.68 0.02 0
1.76 0.02 0
1.84 0.02 0
1.92 0.02 0
2 0.02 0
2.08 0.02 0
2.16 0.02 0
2.24 0.02 0
2.32 0.02 0
2.4 0.02 0
2.48 0.02 0
2.56 0.02 0
2.64 0.02 0
2.72 0.02 0
2.8 0.02 0
2.88 0.02 0
2.96 0.02 0
3.04 0.02 0
3.12 0.02 0
3.2 0.02 0
3.28 0.02 0
3.36 0.02 0
3.44 0.02 0
3.52 0.02 0
3.6 0.02 0
3.68 0.02 0
3.76 0.02 0
3.84 0.02 0
3.92 0.02 0
4 0.02 0
4.08 0.02 0
4.16 0.02 0
4.24 0.02 0
4.32 0.02 0
4.4 0.02 0
4.48 0.02 0
4.56 0.02 0
4.64 0.02 0
4.72 0.02 0
4.8 0.02 0
4.88 0.02 0
4.96 0.02 0
5.04 0.02 0
5.12 0.02 0
5.2 0.02 0
5.28 0.02 0
5.36 0.02 0
5.44 0.02 0
5.52 0.02 0
5.6 0.02 0
5.68 0.02 0
5.76 0.02 0
5.84 0.02 0
5.92 0.02 0
6 0.02 0
6.08 0.02 0
6.16 0.02 0
6.24 0.02 0
6.32 0.02 0
6.4 0.02 0
6.48 0.02 0
6.56 0.02 0
6.64 0.02 0
6.72 0.02 0
6.8 0.02 0
6.88 0.02 0
6.96 0.02 0
7.04 0.02 0
7.12 0.02 0
7.2 0.02 0
7.28 0.02 0
7.36 0.02 0
7.44 0.02 0
7.52 0.02 0
7.6 0.02 0
7.68 0.02 0
7.76 0.02 0
7.84 0.02 0
7.92 0.02 0
8 0.02 0
8.08 0.02 0
8.16 0.02 0
8.24 0.02 0
8.32 0.02 0
8.4 0.02 0
8.48 0.02 0
8.56 0.02 0
8.64 0.02 0
8.72 0.02 0
8.8 0.02 0
8.88 0.02 0
8.96 0.02 0
9.04 0.02 0
9.12 0.02 0
9.2 0.02 0
9.28 0.02 0
9.36 0.02 0
9.44 0.02 0
9.52 0.02 0
9.6 0.02 0
9.68 0.02 0
9.76 0.02 0
9.84 0.02 0
9.92 0.02 0
10 0.02 0
10.08 0.02 0
10.16 0.02 0
10.24 0.02 0
10.32 0.02 0
10.4 0.02 0
10.48 0.02 0
10.56 0.02 0
10.64 0.02 0
10.72 0.02 0
10.8 0.02 0
10.88 0.02 0
10.96 0.02 0
11.04 0.02 0
11.12 0.02 0
11.2 0.02 0
11.28 0.02 0
11.36 0.02 0
11.44 0.02 0
11.52 0.02 0
11.6 0.02 0
11.68 0.02 0
11.76 0.02 0
11.84 0.02 0
11.92 0.02 0
12 0.02 0
12.08 0.02 0
12.16 0.02 0
12.24 0.02 0
12.32 0.02 0
12.4 0.02 0
12.48 0.02 0
12.56 0.02 0
12.64 0.02 0
12.72 0.02 0
12.8 0.02 0
12.88 0.02 0
12.96 0.02 0
13.04 0.02 0
13.12 0.02 0
13.2 0.02 0
13.28 0.02 0
13.36 0.02 0
13.44 0.02 0
13.52 0.02 0
13.6 0.02 0
13.68 0.02 0
13.76 0.02 0
13.84 0.02 0
13.92 0.02 0
14 0.02 0
14.08 0.02 0
14.16 0.02 0
14.24 0.02 0
14.32 0.02 0
14.4 0.02 0
14.48 0.02 0
14.56 0.02 0
14.64 0.02 0
14.72 0.02 0
14.8 0.02 0
14.88 0.02 0
14.96 0.02 0
15.04 0.02 0
15.12 0.02 0
15.2 0.02 0
15.28 0.02 0
15.36 0.02 0
15.44 0.02 0
15.52 0.02 0
15.6 0.02 0
15.68 0.02 0
15.76 0.02 0
15.84 0.02 0
15.92 0.02 0
16 0.02 0
16.08 0.02 0
16.16 0.02 0
16.24 0.02 0
16.32 0.02 0
16.4 0.02 0
16.48 0.02 0
16.56 0.02 0
16.64 0.02 0
16.72 0.02 0
16.8 0.02 0
16.88 0.02 0
16.96 0.02 0
17.04 0.02 0
17.12 0.02 0
17.2 0.02 0
17.28 0.02 0
17.36 0.02 0
17.44 0.02 0
17.52 0.02 0
17.6 0.02 0
17.68 0.02 0
17.76 0.02 0
17.84 0.02 0
17.92 0.02 0
18 0.02 0
18.08 0.02 0
18.16 0.02 0
18.24 0.02 0
18.32 0.02 0
18.4 0.02 0
18.48 0.02 0
18.56 0.02 0
18.64 0.02 0
18.72 0.02 0
18.8 0.02 0
18.88 0.02 0
18.96 0.02 0
19.04 0.02 0
19.12 0.02 0
19.2 0.02 0
19.28 0.02 0
19.36 0.02 0
19.44 0.02 0
19.52 0.02 0
19.6 0.02 0
19.68 0.02 0
19.76 0.02 0
19.84 0.02 0
19.92 0.02 0
20 0.02 0
20.08 0.02 0
20.16 0.02 0
20.24 0.02 0
20.32 0.02 0
20.4 0.02 0
20.48 0.02 0
20.56 0.02 0
20.64 0.02 0
20.72 0.02 0
20.8 0.02 0
20.88 0.02 0
20.96 0.02 0
21.04 0.02 0
21.12 0.02 0
21.2 0.02 0
21.28 0.02 0
21.36 0.02 0
21.44 0.02 0
21.52 0.02 0
21.6 0.02 0
21.68 0.02 0
21.76 0.02 0
21.84 0.02 0
21.92 0.02 0
22 0.02 0
22.08 0.02 0
22.16 0.02 0
22.24 0.02 0
22.32 0.02 0
22.4 0.02 0
22.48 0.02 0
22.56 0.02 0
22.64 0.02 0
22.72 0.02 0
22.8 0.02 0
22.88 0.02 0
22.96 0.02 0
23.04 0.02 0
23.12 0.02 0
23.2 0.02 0
23.28 0.02 0
23.36 0.02 0
23.44 0.02 0
23.52 0.02 0
23.6 0.02 0
23.68 0.02 0
23.76 0.02 0
23.84 0.02 0
23.92 0.02 0
24 0.02 0
24.08 0.02 0
24.16 0.02 0
24.24 0.02 0
24.32 0.02 0
24.4 0.02 0
24.48 0.02 0
24.56 0.02 0
24.64 0.02 0
24.72 0.02 0
24.8 0.02 0
24.88 0.02 0
24.96 0.02 0
25.04 0.02 0
25.12 0.02 0
25.2 0.02 0
25.28 0.02 0
25.36 0.02 0
25.44 0.02 0
25.52 0.02 0
25.6 0.02 0
25.68 0.02 0
25.76 0.02 0
25.84 0.02 0
25.92 0.02 0
26 0.02 0
26.08 0.02 0
26.16 0.02 0
26.24 0.02 0
26.32 0.02 0
26.4 0.02 0
26.48 0.02 0
26.56 0.02 0
26.64 0.02 0
26.72 0.02 0
26.8 0.02 0
26.88 0.02 0
26.96 0.02 0
27.04 0.02 0
27.12 0.02 0
27.2 0.02 0
27.28 0.02 0
27.36 0.02 0
27.44 0.02 0
27.52 0.02 0
27.6 0.02 0
27.68 0.02 0
27.76 0.02 0
27.84 0.02 0
27.92 0.02 0
28 0.02 0
28.08 0.02 0
28.16 0.02 0
28.24 0.02 0
28.32 0.02 0
28.4 0.02 0
28.48 0.02 0
28.56 0.02 0
28.64 0.02 0
28.72 0.02 0
28.8 0.02 0
28.88 0.02 0
28.96 0.02 0
29.04 0.02 0
29.12 0.02 0
29.2 0.02 0
29.28 0.02 0
29.36 0.02 0
29.44 0.02 0
29.52 0.02 0
29.6 0.02 0
29.68 0.02 0
29.76 0.02 0
29.84 0.02 0
29.92 0.02 0
30 0.02 0
30.08 0.02 0
30.16 0.02 0
30.24 0.02 0
30.32 0.02 0
30.4 0.02 0
30.48 0.02 0
30.56 0.02 0
30.64 0.02 0
30.72 0.02 0
30.8 0.02 0
30.88 0.02 0
30.96 0.02 0
31.04 0.02 0
31.12 0.02 0
31.2 0.02 0
31.28 0.02 0
31.36 0.02 0
31.44 0.02 0
31.52 0.02 0
31.6 0.02 0
31.68 0.02 0
31.76 0.02 0
31.84 0.02 0
31.92 0.02 0
0 0.04 0
0.08 0.04 0
0.16 0.04 0
0.24 0.04 0
0.32 0.04 0
0.4 0.04 0
0.48 0.04 0
0.56 0.04 0
0.64 0.04 0
0.72 0.04 0
0.8 0.04 0
0.88 0.04 0
0.96 0.04 0
1.04 0.04 0
1.12 0.04 0
1.2 0.04 0
1.28 0.04 0
1.36 0.04 0
1.44 0.04 0
1.52 0.04 0
1.6 0.04 0
1.68 0.04 0
1.76 0.04 0
1.84 0.04 0
1.92 0.04 0
2 0.04 0
2.08 0.04 0
2.16 0.04 0
2.24 0.04 0
2.32 0.04 0
2.4 0.04 0
2.48 0.04 0
2.56 0.04 0
2.64 0.04 0
2.72 0.04 0
2.8 0.04 0
2.88 0.04 0
2.96 0.04 0
3.04 0.04 0
3.12 0.04 0
3.2 0.04 0
3.28 0.04 0
3.36 0.04 0
3.44 0.04 0
3.52 0.04 0
3.6 0.04 0
3.68 0.04 0
3.76 0.04 0
3.84 0.04 0
3.92 0.04 0
4 0.04 0
4.08 0.04 0
4.16 0.04 0
4.24 0.04 0
4.32 0.04 0
4.4 0.04 0
4.48 0.04 0
4.56 0.04 0
4.64 0.04 0
4.72 0.04 0
4.8 0.04 0
4.88 0.04 0
4.96 0.04 0
5.04 0.04 0
5.12 0.04 0
5.2 0.04 0
5.28 0.04 0
5.36 0.04 0
5.44 0.04 0
5.52 0.04 0
5.6 0.04 0
5.68 0.04 0
5.76 0.04 0
5.84 0.04 0
5.92 0.04 0
6 0.04 0
6.08 0.04 0
6.16 0.04 0
6.24 0.04 0
6.32 0.04 0
6.4 0.04 0
6.48 0.04 0
6.56 0.04 0
6.64 0.04 0
6.72 0.04 0
6.8 0.04 0
6.88 0.04 0
6.96 0.04 0
7.04 0.04 0
7.12 0.04 0
7.2 0.04 0
7.28 0.04 0
7.36 0.04 0
7.44 0.04 0
7.52 0.04 0
7.6 0.04 0
7.68 0.04 0
7.76 0.04 0
7.84 0.04 0
[...]
POINT_DATA 20000

SCALARS u float 1
LOOKUP_TABLE default
0
-0.506979
-0.291769
-0.214
-0.178853
-0.158461
-0.144883
-0.135151
-0.127836
-0.122124
-0.117524
-0.113739
-0.110573
-0.107866
-0.10549
-0.103388
-0.101582
-0.100134
-0.0990756
-0.0983689
-0.0979228
-0.0976349
-0.0974307
-0.0972763
-0.0971687
-0.0971165
-0.0971259
-0.097194
-0.0973097
-0.0974585
-0.0976262
-0.097802
-0.0979791
-0.0981543
-0.0983264
-0.098496
-0.0986639
-0.0988308
-0.0989975
-0.0991643
-0.0993316
-0.0994994
-0.0996677
-0.0998365
-0.100006
-0.100175
-0.100345
-0.100516
-0.100686
-0.100857
-0.101028
-0.101199
-0.101371
-0.101542
-0.101714
-0.101886
-0.102059
-0.102231
-0.102404
-0.102577
-0.10275
-0.102923
-0.103096
-0.10327
-0.103444
-0.103618
-0.103792
-0.103967
-0.104142
-0.104316
-0.104492
-0.104667
-0.104842
-0.105018
-0.105194
-0.10537
-0.105547
-0.105724
-0.1059
-0.106077
-0.106255
-0.106432
-0.10661
-0.106788
-0.106966
-0.107144
-0.107323
-0.107502
-0.107681
-0.10786
-0.108039
-0.108219
-0.108399
-0.108579
-0.108759
-0.108939
-0.10912
-0.109301
-0.109481
-0.109663
-0.109844
-0.110025
-0.110207
-0.110389
-0.110571
-0.110753
-0.110935
-0.111118
-0.1113
-0.111483
-0.111666
-0.111849
-0.112032
-0.112215
-0.112398
-0.112581
-0.112765
-0.112948
-0.113131
-0.113315
-0.113498
-0.113682
-0.113865
-0.114049
-0.114232
-0.114415
-0.114599
-0.114782
-0.114965
-0.115148
-0.115331
-0.115514
-0.115696
-0.115879
-0.116061
-0.116242
-0.116424
-0.116605
-0.116786
-0.116967
-0.117147
-0.117327
-0.117506
-0.117685
-0.117864
-0.118042
-0.118219
-0.118396
-0.118572
-0.118747
-0.118922
-0.119096
-0.119269
-0.119442
-0.119613
-0.119784
-0.119953
-0.120122
-0.12029
-0.120456
-0.120621
-0.120785
-0.120948
-0.12111
-0.12127
-0.121429
-0.121586
-0.121742
-0.121896
-0.122048
-0.122199
-0.122348
-0.122495
-0.12264
-0.122784
-0.122925
-0.123064
-0.123201
-0.123335
-0.123467
-0.123597
-0.123725
-0.123849
-0.123972
-0.124091
-0.124208
-0.124321
-0.124432
-0.12454
-0.124644
-0.124746
-0.124844
-0.124939
-0.12503
-0.125117
-0.125201
-0.125282
-0.125358
-0.125431
-0.1255
-0.125564
-0.125625
-0.125681
-0.125733
-0.12578
-0.125823
-0.125861
-0.125895
-0.125924
-0.125948
-0.125967
-0.125981
-0.12599
-0.125994
-0.125992
-0.125986
-0.125973
-0.125956
-0.125932
-0.125904
-0.125869
-0.125829
-0.125783
-0.125731
-0.125673
-0.125609
-0.125538
-0.125462
-0.12538
-0.125291
-0.125197
-0.125095
-0.124988
-0.124874
-0.124754
-0.124627
-0.124494
-0.124355
-0.124209
-0.124056
-0.123898
-0.123732
-0.12356
-0.123382
-0.123197
-0.123006
-0.122808
-0.122605
-0.122394
-0.122178
-0.121955
-0.121726
-0.121491
-0.12125
-0.121003
-0.12075
-0.120491
-0.120226
-0.119956
-0.11968
-0.119399
-0.119112
-0.11882
-0.118523
-0.118222
-0.117915
-0.117604
-0.117288
-0.116968
-0.116643
-0.116315
-0.115983
-0.115647
-0.115307
-0.114964
-0.114619
-0.11427
-0.113918
-0.113564
-0.113208
-0.11285
-0.11249
-0.112128
-0.111765
-0.111401
-0.111036
-0.110671
-0.110305
-0.109939
-0.109573
-0.109207
-0.108843
-0.108479
-0.108116
-0.107755
-0.107396
-0.107039
-0.106684
-0.106332
-0.105983
-0.105637
-0.105294
-0.104955
-0.10462
-0.104289
-0.103963
-0.103642
-0.103326
-0.103016
-0.102711
-0.102412
-0.102119
-0.101832
-0.101553
-0.10128
-0.101015
-0.100757
-0.100506
-0.100264
-0.10003
-0.0998041
-0.0995869
-0.0993786
-0.0991792
-0.0989891
-0.0988083
-0.0986371
-0.0984757
-0.0983241
-0.0981826
-0.0980513
-0.0979303
-0.0978198
-0.0977198
-0.0976305
-0.097552
-0.0974843
-0.0974275
-0.0973818
-0.0973471
-0.0973234
-0.0973109
-0.0973095
-0.0973192
-0.09734
-0.0973719
-0.097415
-0.097469
-0.0975341
-0.09761
-0.0976968
-0.0977943
-0.0979025
-0.0980212
-0.0981504
-0.0982898
-0.0984393
-0.0985987
-0.098768
-0.0989468
-0.0991351
-0.0993325
-0.0995389
-0.099754
-0.0999776
-0.100209
-0.100449
-0.100697
-0.100952
-0.101214
-0.101483
-0.101758
-0.10204
-0.102327
-0.10262
-0.102918
-0.103221
-0.103528
-0.10384
-0.104155
-0.104473
-0.104794
-0.105118
-0.105444
-0.105771
-0.1061
-0.10643
-0.106761
-0.107091
-0.107423
-0.107753
-0.108085
-0.108412
-0.108753
-0.109078
-0.10946
-0.109802
-0.110979
-0.110979
-0.110979
1
0.506979
0.291769
0.214
0.178853
0.158461
0.144883
0.135151
0.127836
0.122124
0.117524
0.113739
0.110573
0.107866
0.10549
0.103388
0.101582
0.100134
0.0990756
0.0983689
0.0979228
0.0976349
0.0974307
0.0972763
0.0971687
0.0971165
0.0971259
0.097194
0.0973097
0.0974585
0.0976262
0.097802
0.0979791
0.0981543
0.0983264
0.098496
0.0986639
0.0988308
0.0989975
0.0991643
0.0993316
0.0994994
0.0996677
0.0998365
0.100006
0.100175
0.100345
0.100516
0.100686
0.100857
0.101028
0.101199
0.101371
0.101542
0.101714
0.101886
0.102059
0.102231
0.102404
0.102577
0.10275
0.102923
0.103096
0.10327
0.103444
0.103618
0.103792
0.103967
0.104142
0.104316
0.104492
0.104667
0.104842
0.105018
0.105194
0.10537
0.105547
0.105724
0.1059
0.106077
0.106255
0.106432
0.10661
0.106788
0.106966
0.107144
0.107323
0.107502
0.107681
0.10786
0.108039
0.108219
0.108399
0.108579
0.108759
0.108939
0.10912
0.109301
0.109481
0.109663
0.109844
0.110025
0.110207
0.110389
0.110571
0.110753
0.110935
0.111118
0.1113
0.111483
0.111666
0.111849
0.112032
0.112215
0.112398
0.112581
0.112765
0.112948
0.113131
0.113315
0.113498
0.113682
0.113865
0.114049
0.114232
0.114415
0.114599
0.114782
0.114965
0.115148
0.115331
0.115514
0.115696
0.115879
0.116061
0.116242
0.116424
0.116605
0.116786
0.116967
0.117147
0.117327
0.117506
0.117685
0.117864
0.118042
0.118219
0.118396
0.118572
0.118747
0.118922
0.119096
0.119269
0.119442
0.119613
0.119784
0.119953
0.120122
0.12029
0.120456
0.120621
0.120785
0.120948
0.12111
0.12127
0.121429
0.121586
0.121742
0.121896
0.122048
0.122199
0.122348
0.122495
0.12264
0.122784
0.122925
0.123064
0.123201
0.123335
0.123467
0.123597
0.123725
0.123849
0.123972
0.124091
0.124208
0.124321
0.124432
0.12454
0.124644
0.124746
0.124844
0.124939
0.12503
0.125117
0.125201
0.125282
0.125358
0.125431
0.1255
0.125564
0.125625
0.125681
0.125733
0.12578
0.125823
0.125861
0.125895
0.125924
0.125948
0.125967
0.125981
0.12599
0.125994
0.125992
0.125986
0.125973
0.125956
0.125932
0.125904
0.125869
0.125829
0.125783
0.125731
0.125673
0.125609
0.125538
0.125462
0.12538
0.125291
0.125197
0.125095
0.124988
0.124874
0.124754
0.124627
0.124494
0.124355
0.124209
0.124056
0.123898
0.123732
0.12356
0.123382
0.123197
0.123006
0.122808
0.122605
0.122394
0.122178
0.121955
0.121726
0.121491
0.12125
0.121003
0.12075
0.120491
0.120226
0.119956
0.11968
0.119399
0.119112
0.11882
0.118523
0.118222
0.117915
0.117604
0.117288
0.116968
0.116643
0.116315
0.115983
0.115647
0.115307
0.114964
0.114619
0.11427
0.113918
0.113564
0.113208
0.11285
0.11249
0.112128
0.111765
0.111401
0.111036
0.110671
0.110305
0.109939
0.109573
0.109207
0.108843
0.108479
0.108116
0.107755
0.107396
0.107039
0.106684
0.106332
0.105983
0.105637
0.105294
0.104955
0.10462
0.104289
0.103963
0.103642
0.103326
0.103016
0.102711
0.102412
0.102119
0.101832
0.101553
0.10128
0.101015
0.100757
0.100506
0.100264
0.10003
0.0998041
0.0995869
0.0993786
0.0991792
0.0989891
0.0988083
0.0986371
0.0984757
0.0983241
0.0981826
0.0980513
0.0979303
0.0978198
0.0977198
0.0976305
0.097552
0.0974843
0.0974275
0.0973818
0.0973471
0.0973234
0.0973109
0.0973095
0.0973192
0.09734
0.0973719
0.097415
0.097469
0.0975341
0.09761
0.0976968
0.0977943
0.0979025
0.0980212
0.0981504
0.0982898
0.0984393
0.0985987
0.098768
0.0989468
0.0991351
0.0993325
0.0995389
0.099754
0.0999776
0.100209
0.100449
0.100697
0.100952
0.101214
0.101483
0.101758
0.10204
0.102327
0.10262
0.102918
0.103221
0.103528
0.10384
0.104155
0.104473
0.104794
0.105118
0.105444
0.105771
0.1061
0.10643
0.106761
0.107091
0.107423
0.107753
0.108085
0.108412
0.108753
0.109078
0.10946
0.109802
0.110979
0.110979
0.110979
1
0.924097
0.735163
0.597245
0.5113
0.45587
0.41762
0.389771
0.368666
0.35212
0.338769
0.327766
0.318536
0.310643
0.303792
0.297874
0.29294
0.289067
0.286232
0.284272
0.28294
0.282013
0.281342
0.280868
0.28058
0.28048
0.280558
0.280784
0.28112
0.281525
0.281965
0.282416
0.282867
0.283311
0.283747
0.284178
0.284606
0.285031
0.285457
0.285883
0.28631
0.286739
0.287168
0.287599
0.288031
0.288464
0.288897
0.289331
0.289766
0.290201
0.290637
0.291074
0.291511
0.291948
0.292386
0.292824
0.293263
0.293702
0.294141
0.294581
0.295022
0.295463
0.295904
0.296346
0.296789
0.297232
0.297675
0.298119
0.298563
0.299008
0.299453
0.299899
0.300345
0.300791
0.301239
0.301686
0.302134
0.302583
0.303032
0.303482
0.303932
0.304382
0.304833
0.305285
0.305737
0.306189
0.306642
0.307096
0.30755
0.308004
0.308459
0.308914
0.30937
0.309827
0.310283
0.310741
0.311198
0.311657
0.312115
0.312574
0.313034
0.313494
0.313955
0.314416
0.314877
0.315339
0.315801
0.316264
0.316727
0.31719
0.317654
0.318118
0.318583
0.319047
0.319513
0.319978
0.320444
0.32091
0.321377
0.321844
0.322311
0.322778
0.323245
0.323713
0.324181
0.324649
0.325117
0.325585
0.326054
0.326522
0.32699
0.327459
0.327927
0.328396
0.328864
0.329333
0.329801
0.330269
0.330736
0.331204
0.331671
0.332138
0.332605
0.333071
0.333536
0.334001
0.334466
0.33493
0.335393
0.335856
0.336318
0.336779
0.337239
0.337699
0.338157
0.338614
0.33907
0.339525
0.339979
0.340431
0.340882
0.341331
0.341779
0.342225
0.342669
0.343112
0.343553
0.343991
0.344428
0.344862
0.345294
0.345724
0.346151
0.346576
0.346998
0.347417
0.347833
0.348247
0.348657
0.349064
0.349467
0.349867
0.350263
0.350656
0.351045
0.351429
0.35181
0.352186
0.352558
0.352925
0.353288
0.353646
0.353999
0.354346
0.354689
0.355026
0.355357
0.355683
0.356003
0.356317
0.356624
0.356925
0.35722
0.357508
0.357789
0.358064
0.358331
0.35859
0.358842
0.359087
0.359324
0.359552
0.359773
0.359985
0.360189
0.360384
0.36057
0.360747
0.360915
0.361074
0.361223
0.361363
0.361493
0.361613
0.361723
0.361822
0.361911
0.36199
0.362057
0.362114
0.36216
0.362195
0.362218
0.362231
0.362231
0.36222
0.362197
0.362162
0.362115
0.362056
0.361985
0.361902
0.361806
0.361697
0.361576
0.361443
0.361296
0.361137
0.360965
0.36078
0.360582
0.360371
0.360146
0.359909
0.359659
0.359396
0.359119
0.35883
0.358527
0.358211
0.357882
0.357541
0.357186
0.356818
0.356437
0.356044
0.355638
0.355219
0.354788
0.354344
0.353888
0.353419
0.352938
0.352446
0.351941
0.351425
0.350897
0.350358
0.349808
0.349246
0.348674
0.348091
0.347498
0.346894
0.34628
0.345657
0.345024
0.344381
0.34373
0.34307
0.342401
0.341723
0.341038
0.340345
0.339644
0.338936
0.338221
0.337499
0.336771
0.336037
0.335298
0.334552
0.333802
0.333047
0.332287
0.331523
0.330755
0.329983
0.329208
0.32843
0.32765
0.326867
0.326082
0.325295
0.324507
0.323717
0.322927
0.322136
0.321345
0.320554
0.319764
0.318974
0.318184
0.317396
0.316609
0.315824
0.315041
0.314259
0.31348
0.312704
0.31193
0.311159
0.310392
0.309627
0.308866
0.308109
0.307356
0.306606
0.305861
0.305119
0.304382
0.30365
0.302921
0.302198
0.301478
0.300763
0.300053
0.299348
0.298647
0.297951
0.297259
0.296572
0.295889
0.29521
0.294536
0.293867
0.293201
0.292539
0.291881
0.291227
0.290576
0.289928
0.289284
0.288643
0.288004
0.287368
0.286734
0.286102
0.285472
0.284843
0.284216
0.283589
0.282963
0.282337
0.281711
0.281085
0.280458
0.27983
0.2792
0.278569
0.277936
0.277299
0.27666
0.276018
0.275372
0.274722
0.274068
0.273409
0.272745
0.272077
0.271402
0.270727
0.270038
0.269375
0.268674
0.268086
0.267415
0.267869
0.267869
0.267869
1
1.07947
0.996711
0.883275
0.788276
0.716314
0.66225
0.621021
0.588936
0.563389
0.54258
0.525304
0.510716
0.498186
0.487312
0.477965
0.470206
0.464097
0.459539
0.456247
0.453864
0.452087
0.450739
0.449754
0.44912
0.448827
0.448838
0.449093
0.44952
0.45005
0.45063
0.451227
0.451821
0.452405
0.452979
0.453545
0.454105
0.454664
0.455221
0.45578
0.45634
0.456901
0.457464
0.458029
0.458594
0.459161
0.459729
0.460298
0.460867
0.461437
0.462007
0.462579
0.46315
0.463722
0.464295
0.464868
0.465442
0.466016
0.466591
0.467166
0.467741
0.468317
0.468894
0.469471
0.470048
0.470626
0.471204
0.471783
0.472362
0.472941
0.473522
0.474102
0.474683
0.475264
0.475846
0.476428
0.477011
0.477594
0.478178
0.478762
0.479346
0.479931
0.480516
0.481102
0.481688
0.482275
0.482861
0.483449
0.484036
0.484624
0.485213
0.485802
0.486391
0.486981
0.48757
0.488161
0.488751
0.489342
0.489934
0.490525
0.491117
0.49171
0.492302
0.492895
0.493488
0.494082
0.494675
0.495269
0.495863
0.496458
0.497052
0.497647
0.498242
0.498837
0.499432
0.500028
0.500623
0.501219
0.501814
0.50241
0.503006
0.503602
0.504197
0.504793
0.505389
0.505984
0.506579
0.507175
0.50777
0.508365
0.508959
0.509553
0.510147
0.510741
0.511334
0.511927
0.512519
0.513111
0.513702
0.514293
0.514883
0.515472
0.516061
0.516649
0.517236
0.517822
0.518407
0.518991
0.519574
0.520155
0.520736
0.521315
0.521893
0.522469
0.523044
0.523618
0.52419
0.52476
0.525328
0.525894
0.526458
0.52702
0.52758
0.528138
0.528693
0.529246
0.529796
0.530344
0.530889
0.531431
0.53197
0.532505
0.533038
0.533567
0.534093
0.534615
0.535133
0.535647
0.536157
0.536664
0.537166
0.537663
0.538156
0.538644
0.539127
0.539605
0.540078
0.540546
0.541008
0.541464
0.541915
0.542359
0.542797
0.543229
0.543654
0.544073
0.544485
0.544889
0.545286
0.545676
0.546058
0.546432
0.546799
0.547156
0.547506
0.547847
0.548179
0.548501
0.548815
0.549119
0.549413
0.549698
0.549972
0.550236
0.55049
0.550733
0.550965
0.551185
0.551395
0.551593
0.551779
0.551953
0.552114
0.552264
0.552401
0.552525
0.552635
0.552733
0.552817
0.552888
0.552944
0.552987
0.553016
0.55303
0.553029
0.553013
0.552983
0.552937
0.552876
0.5528
0.552708
0.5526
0.552476
0.552335
0.552179
0.552006
0.551816
0.55161
0.551387
0.551147
0.550889
0.550615
0.550323
0.550014
0.549687
0.549342
0.54898
0.5486
0.548203
0.547787
0.547353
0.546902
0.546432
0.545945
0.545439
0.544915
0.544373
0.543814
0.543236
0.54264
0.542026
0.541394
0.540744
0.540076
0.53939
0.538687
0.537966
0.537227
0.536471
0.535698
0.534907
0.534099
0.533274
0.532433
0.531574
0.530699
0.529808
0.5289
0.527976
0.527037
0.526082
0.525111
0.524125
0.523124
0.522108
0.521077
0.520032
0.518973
0.517899
0.516813
0.515712
0.514599
0.513472
0.512333
0.511182
0.510018
0.508842
0.507655
0.506457
0.505247
0.504027
0.502796
0.501555
0.500304
0.499043
0.497773
0.496494
0.495206
0.493909
0.492604
0.491291
0.489971
0.488643
0.487307
0.485965
0.484616
0.48326
0.481899
0.480531
0.479157
0.477778
0.476394
0.475004
0.47361
0.472211
0.470807
0.469399
0.467987
0.466571
0.465151
0.463727
0.4623
0.460869
0.459435
0.457998
0.456557
0.455114
0.453667
0.452218
0.450765
0.44931
0.447852
0.446391
0.444928
0.443462
0.441993
0.440521
0.439047
0.437569
0.436089
0.434605
0.433119
0.431629
0.430137
0.42864
0.427141
0.425637
0.424131
0.42262
0.421105
0.419586
0.418063
0.416535
0.415002
0.413465
0.411922
0.410374
0.408821
0.407262
0.405697
0.404125
0.402548
0.400964
0.399373
0.397775
0.396169
0.394557
0.392937
0.391309
0.389675
0.388032
0.386388
0.384724
0.383094
0.381411
0.379863
0.378203
0.377339
0.377339
0.377339
1
1.11155
1.11396
1.05514
0.983954
0.918439
0.862885
0.817101
0.779651
0.748869
0.723275
0.701705
0.683259
0.667236
0.653202
0.641045
0.630873
0.62276
0.616561
0.6119
0.608325
0.605484
0.603197
0.60142
0.600163
0.59942
0.599135
0.599216
0.599554
0.600049
0.600622
0.601224
0.601826
0.602417
0.602996
0.603563
0.604125
0.604682
0.605239
0.605796
0.606355
0.606915
0.607477
0.60804
0.608604
0.60917
0.609736
0.610304
0.610872
0.61144
0.61201
0.612579
0.613149
0.61372
0.614291
0.614862
0.615433
0.616005
0.616577
0.61715
0.617722
0.618295
0.618869
0.619442
0.620016
0.62059
0.621165
0.621739
0.622314
0.622889
0.623464
0.62404
0.624615
0.625191
0.625767
0.626344
0.62692
0.627497
0.628074
0.628651
0.629228
0.629805
0.630382
0.63096
0.631537
0.632115
0.632693
0.633271
0.633849
0.634427
0.635005
0.635583
0.636161
0.63674
0.637318
0.637896
0.638474
0.639053
0.639631
0.640209
0.640787
0.641365
0.641943
0.642521
0.643098
0.643676
0.644253
0.64483
0.645407
0.645984
0.646561
0.647137
0.647713
0.648289
0.648864
0.649439
0.650014
0.650588
0.651162
0.651735
0.652308
0.652881
0.653453
0.654024
0.654595
0.655165
0.655734
0.656303
0.656871
0.657438
0.658005
0.65857
0.659135
0.659699
0.660261
0.660823
0.661384
0.661943
0.662501
0.663058
0.663614
0.664169
0.664721
0.665273
0.665823
0.666371
0.666918
0.667463
0.668006
0.668548
0.669087
0.669624
0.67016
0.670693
0.671223
0.671752
0.672278
0.672801
0.673322
0.673841
0.674356
0.674868
0.675378
0.675884
0.676387
0.676887
0.677383
0.677876
0.678365
0.67885
0.679332
0.679809
0.680282
0.680751
0.681215
0.681675
0.68213
0.68258
0.683025
0.683465
0.6839
0.684329
0.684752
0.68517
0.685582
0.685987
0.686387
0.686779
0.687166
0.687545
0.687917
0.688282
0.68864
0.68899
0.689333
0.689667
0.689994
0.690312
0.690621
0.690922
0.691213
0.691496
0.691769
0.692032
0.692286
0.69253
0.692763
0.692986
0.693199
0.6934
0.69359
0.693769
0.693936
0.694092
0.694235
0.694367
0.694485
0.694591
0.694684
0.694764
0.694831
0.694883
0.694922
0.694947
0.694958
0.694953
0.694935
0.694901
0.694851
0.694787
0.694707
0.69461
0.694498
0.694369
0.694224
0.694062
0.693884
0.693688
0.693474
0.693243
0.692995
0.692728
0.692443
0.69214
0.691819
0.691479
0.69112
0.690742
0.690345
0.689929
0.689493
0.689038
0.688563
0.688068
0.687554
0.687019
0.686464
0.685889
0.685294
0.684678
0.684042
0.683385
0.682708
0.682009
0.681291
0.680551
0.679791
0.67901
0.678208
0.677385
0.676541
0.675677
0.674792
0.673886
0.672959
0.672012
0.671044
0.670055
0.669046
0.668017
0.666967
0.665897
0.664807
0.663697
0.662567
0.661418
0.660249
0.65906
0.657852
0.656625
0.655379
0.654115
0.652831
0.65153
0.65021
0.648872
0.647516
0.646143
0.644752
0.643344
0.64192
0.640479
0.639021
0.637547
0.636058
0.634552
0.633032
0.631496
0.629946
0.62838
0.626801
0.625208
0.6236
0.62198
0.620346
0.618699
0.61704
0.615368
0.613684
0.611989
0.610281
0.608563
0.606834
0.605093
0.603343
0.601582
0.599811
0.598031
0.596241
0.594442
0.592634
0.590818
0.588993
0.587159
0.585318
0.583469
0.581612
0.579748
0.577876
0.575998
0.574112
0.57222
0.570322
0.568417
0.566505
0.564588
0.562665
0.560735
0.5588
0.556859
0.554913
0.552961
0.551003
0.549041
0.547072
0.545099
0.54312
0.541136
0.539146
0.537152
0.535152
0.533146
0.531136
0.52912
0.527098
0.525071
0.523039
0.521001
0.518957
0.516907
0.514852
0.51279
0.510723
0.508649
0.506569
0.504482
0.502389
0.500289
0.498183
0.496069
0.493948
0.49182
0.489684
0.487541
0.48539
0.483231
0.481064
0.47889
0.476707
0.474517
0.472317
0.470119
0.467897
0.465713
0.463469
0.461359
0.459126
0.457281
0.457281
0.457281
1
1.0957
1.14322
1.13354
1.09729
1.05283
1.00852
0.96789
0.932139
0.901262
0.874715
0.851803
0.83182
0.814133
0.798342
0.784404
0.772534
0.762899
0.755373
0.749523
0.744816
0.740852
0.737461
0.734653
0.732499
0.731029
0.730197
0.729888
0.729958
0.730266
0.730704
0.731196
0.7317
0.732195
0.732677
0.733147
0.733608
0.734064
0.734518
0.734972
0.735427
0.735883
0.736341
0.7368
0.73726
0.737721
0.738183
0.738646
0.73911
0.739574
0.740038
0.740503
0.740968
0.741433
0.741899
0.742365
0.74283
0.743296
0.743763
0.744229
0.744695
0.745161
0.745628
0.746094
0.746561
0.747027
0.747494
0.747961
0.748427
0.748894
0.74936
0.749827
0.750293
0.75076
0.751226
0.751692
0.752159
0.752625
0.753091
0.753557
0.754023
0.754488
0.754954
0.755419
0.755884
0.756349
0.756814
0.757278
0.757742
0.758206
0.75867
0.759134
0.759597
0.76006
0.760522
0.760985
0.761446
0.761908
0.762369
0.76283
0.76329
0.76375
0.764209
0.764668
0.765127
0.765585
0.766042
0.766499
0.766955
0.767411
0.767866
0.76832
0.768774
0.769226
0.769679
0.77013
0.770581
0.771031
0.77148
0.771928
0.772375
0.772821
0.773266
0.773711
0.774154
0.774596
0.775037
0.775477
0.775916
0.776353
0.776789
0.777224
0.777657
0.778089
0.77852
0.778949
0.779376
0.779802
0.780226
0.780648
0.781068
0.781487
0.781904
0.782318
0.782731
0.783142
0.78355
0.783956
0.78436
0.784761
0.78516
0.785556
0.785949
0.78634
0.786728
0.787113
0.787495
0.787874
0.78825
0.788623
0.788992
0.789357
0.789719
0.790077
0.790432
0.790782
0.791129
0.791471
0.791809
0.792142
0.792471
0.792795
0.793115
0.793429
0.793739
0.794043
0.794342
0.794635
0.794923
0.795205
0.79548
0.79575
0.796013
0.79627
0.796521
0.796764
0.797001
0.79723
0.797452
0.797666
0.797873