# vtk DataFile Version 2.0
FlowField
ASCII
DATASET STRUCTURED_GRID
DIMENSIONS 400 1 50
POINTS 20000 float
0 0 0
0.08 0 0
0.16 0 0
0.24 0 0
0.32 0 0
0.4 0 0
0.48 0 0
0.56 0 0
0.64 0 0
0.72 0 0
0.8 0 0
0.88 0 0
0.96 0 0
1.04 0 0
1.12 0 0
1.2 0 0
1.28 0 0
1.36 0 0
1.44 0 0
1.52 0 0
1.6 0 0
1.68 0 0
1.76 0 0
1.84 0 0
1.92 0 0
2 0 0
2.08 0 0
2.16 0 0
2.24 0 0
2.32 0 0
2.4 0 0
2.48 0 0
2.56 0 0
2.64 0 0
2.72 0 0
2.8 0 0
2.88 0 0
2.96 0 0
3.04 0 0
3.12 0 0
3.2 0 0
3.28 0 0
3.36 0 0
3.44 0 0
3.52 0 0
3.6 0 0
3.68 0 0
3.76 0 0
3.84 0 0
3.92 0 0
4 0 0
4.08 0 0
4.16 0 0
4.24 0 0
4.32 0 0
4.4 0 0
4.48 0 0
4.56 0 0
4.64 0 0
4.72 0 0
4.8 0 0
4.88 0 0
4.96 0 0
5.04 0 0
5.12 0 0
5.2 0 0
5.28 0 0
5.36 0 0
5.44 0 0
5.52 0 0
5.6 0 0
5.68 0 0
5.76 0 0
5.84 0 0
5.92 0 0
6 0 0
6.08 0 0
6.16 0 0
6.24 0 0
6.32 0 0
6.4 0 0
6.48 0 0
6.56 0 0
6.64 0 0
6.72 0 0
6.8 0 0
6.88 0 0
6.96 0 0
7.04 0 0
7.12 0 0
7.2 0 0
7.28 0 0
7.36 0 0
7.44 0 0
7.52 0 0
7.6 0 0
7.68 0 0
7.76 0 0
7.84 0 0
7.92 0 0
8 0 0
8.08 0 0
8.16 0 0
8.24 0 0
8.32 0 0
8.4 0 0
8.48 0 0
8.56 0 0
8.64 0 0
8.72 0 0
8.8 0 0
8.88 0 0
8.96 0 0
9.04 0 0
9.12 0 0
9.2 0 0
9.28 0 0
9.36 0 0
9.44 0 0
9.52 0 0
9.6 0 0
9.68 0 0
9.76 0 0
9.84 0 0
9.92 0 0
10 0 0
10.08 0 0
10.16 0 0
10.24 0 0
10.32 0 0
10.4 0 0
10.48 0 0
10.56 0 0
10.64 0 0
10.72 0 0
10.8 0 0
10.88 0 0
10.96 0 0
11.04 0 0
11.12 0 0
11.2 0 0
11.28 0 0
11.36 0 0
11.44 0 0
11.52 0 0
11.6 0 0
11.68 0 0
11.76 0 0
11.84 0 0
11.92 0 0
12 0 0
12.08 0 0
12.16 0 0
12.24 0 0
12.32 0 0
12.4 0 0
12.48 0 0
12.56 0 0
12.64 0 0
12.72 0 0
12.8 0 0
12.88 0 0
12.96 0 0
13.04 0 0
13.12 0 0
13.2 0 0
13.28 0 0
13.36 0 0
13.44 0 0
13.52 0 0
13.6 0 0
13.68 0 0
13.76 0 0
13.84 0 0
13.92 0 0
14 0 0
14.08 0 0
14.16 0 0
14.24 0 0
14.32 0 0
14.4 0 0
14.48 0 0
14.56 0 0
14.64 0 0
14.72 0 0
14.8 0 0
14.88 0 0
14.96 0 0
15.04 0 0
15.12 0 0
15.2 0 0
15.28 0 0
15.36 0 0
15.44 0 0
15.52 0 0
15.6 0 0
15.68 0 0
15.76 0 0
15.84 0 0
15.92 0 0
16 0 0
16.08 0 0
16.16 0 0
16.24 0 0
16.32 0 0
16.4 0 0
16.48 0 0
16.56 0 0
16.64 0 0
16.72 0 0
16.8 0 0
16.88 0 0
16.96 0 0
17.04 0 0
17.12 0 0
17.2 0 0
17.28 0 0
17.36 0 0
17.44 0 0
17.52 0 0
17.6 0 0
17.68 0 0
17.76 0 0
17.84 0 0
17.92 0 0
18 0 0
18.08 0 0
18.16 0 0
18.24 0 0
18.32 0 0
18.4 0 0
18.48 0 0
18.56 0 0
18.64 0 0
18.72 0 0
18.8 0 0
18.88 0 0
18.96 0 0
19.04 0 0
19.12 0 0
19.2 0 0
19.28 0 0
19.36 0 0
19.44 0 0
19.52 0 0
19.6 0 0
19.68 0 0
19.76 0 0
19.84 0 0
19.92 0 0
20 0 0
20.08 0 0
20.16 0 0
20.24 0 0
20.32 0 0
20.4 0 0
20.48 0 0
20.56 0 0
20.64 0 0
20.72 0 0
20.8 0 0
20.88 0 0
20.96 0 0
21.04 0 0
21.12 0 0
21.2 0 0
21.28 0 0
21.36 0 0
21.44 0 0
21.52 0 0
21.6 0 0
21.68 0 0
21.76 0 0
21.84 0 0
21.92 0 0
22 0 0
22.08 0 0
22.16 0 0
22.24 0 0
22.32 0 0
22.4 0 0
22.48 0 0
22.56 0 0
22.64 0 0
22.72 0 0
22.8 0 0
22.88 0 0
22.96 0 0
23.04 0 0
23.12 0 0
23.2 0 0
23.28 0 0
23.36 0 0
23.44 0 0
23.52 0 0
23.6 0 0
23.68 0 0
23.76 0 0
23.84 0 0
23.92 0 0
24 0 0
24.08 0 0
24.16 0 0
24.24 0 0
24.32 0 0
24.4 0 0
24.48 0 0
24.56 0 0
24.64 0 0
24.72 0 0
24.8 0 0
24.88 0 0
24.96 0 0
25.04 0 0
25.12 0 0
25.2 0 0
25.28 0 0
25.36 0 0
25.44 0 0
25.52 0 0
25.6 0 0
25.68 0 0
25.76 0 0
25.84 0 0
25.92 0 0
26 0 0
26.08 0 0
26.16 0 0
26.24 0 0
26.32 0 0
26.4 0 0
26.48 0 0
26.56 0 0
26.64 0 0
26.72 0 0
26.8 0 0
26.88 0 0
26.96 0 0
27.04 0 0
27.12 0 0
27.2 0 0
27.28 0 0
27.36 0 0
27.44 0 0
27.52 0 0
27.6 0 0
27.68 0 0
27.76 0 0
27.84 0 0
27.92 0 0
28 0 0
28.08 0 0
28.16 0 0
28.24 0 0
28.32 0 0
28.4 0 0
28.48 0 0
28.56 0 0
28.64 0 0
28.72 0 0
28.8 0 0
28.88 0 0
28.96 0 0
29.04 0 0
29.12 0 0
29.2 0 0
29.28 0 0
29.36 0 0
29.44 0 0
29.52 0 0
29.6 0 0
29.68 0 0
29.76 0 0
29.84 0 0
29.92 0 0
30 0 0
30.08 0 0
30.16 0 0
30.24 0 0
30.32 0 0
30.4 0 0
30.48 0 0
30.56 0 0
30.64 0 0
30.72 0 0
30.8 0 0
30.88 0 0
30.96 0 0
31.04 0 0
31.12 0 0
31.2 0 0
31.28 0 0
31.36 0 0
31.44 0 0
31.52 0 0
31.6 0 0
31.68 0 0
31.76 0 0
31.84 0 0
31.92 0 0
0 0.02 0
0.08 0.02 0
0.16 0.02 0
0.24 0.02 0
0.32 0.02 0
0.4 0.02 0
0.48 0.02 0
0.56 0.02 0
0.64 0.02 0
0.72 0.02 0
0.8 0.02 0
0.88 0.02 0
0.96 0.02 0
1.04 0.02 0
1.12 0.02 0
1.2 0.02 0
1.28 0.02 0
1.36 0.02 0
1.44 0.02 0
1.52 0.02 0
1.6 0.02 0
1.68 0.02 0
1.76 0.02 0
1.84 0.02 0
1.92 0.02 0
2 0.02 0
2.08 0.02 0
2.16 0.02 0
2.24 0.02 0
2.32 0.02 0
2.4 0.02 0
2.48 0.02 0
2.56 0.02 0
2.64 0.02 0
2.72 0.02 0
2.8 0.02 0
2.88 0.02 0
2.96 0.02 0
3.04 0.02 0
3.12 0.02 0
3.2 0.02 0
3.28 0.02 0
3.36 0.02 0
3.44 0.02 0
3.52 0.02 0
3.6 0.02 0
3.68 0.02 0
3.76 0.02 0
3.84 0.02 0
3.92 0.02 0
4 0.02 0
4.08 0.02 0
4.16 0.02 0
4.24 0.02 0
4.32 0.02 0
4.4 0.02 0
4.48 0.02 0
4.56 0.02 0
4.64 0.02 0
4.72 0.02 0
4.8 0.02 0
4.88 0.02 0
4.96 0.02 0
5.04 0.02 0
5.12 0.02 0
5.2 0.02 0
5.28 0.02 0
5.36 0.02 0
5.44 0.02 0
5.52 0.02 0
5.6 0.02 0
5.68 0.02 0
5.76 0.02 0
5.84 0.02 0
5.92 0.02 0
6 0.02 0
6.08 0.02 0
6.16 0.02 0
6.24 0.02 0
6.32 0.02 0
6.4 0.02 0
6.48 0.02 0
6.56 0.02 0
6.64 0.02 0
6.72 0.02 0
6.8 0.02 0
6.88 0.02 0
6.96 0.02 0
7.04 0.02 0
7.12 0.02 0
7.2 0.02 0
7.28 0.02 0
7.36 0.02 0
7.44 0.02 0
7.52 0.02 0
7.6 0.02 0
7.68 0.02 0
7.76 0.02 0
7.84 0.02 0
7.92 0.02 0
8 0.02 0
8.08 0.02 0
8.16 0.02 0
8.24 0.02 0
8.32 0.02 0
8.4 0.02 0
8.48 0.02 0
8.56 0.02 0
8.64 0.02 0
8.72 0.02 0
8.8 0.02 0
8.88 0.02 0
8.96 0.02 0
9.04 0.02 0
9.12 0.02 0
9.2 0.02 0
9.28 0.02 0
9.36 0.02 0
9.44 0.02 0
9.52 0.02 0
9.6 0.02 0
9.68 0.02 0
9.76 0.02 0
9.84 0.02 0
9.92 0.02 0
10 0.02 0
10.08 0.02 0
10.16 0.02 0
10.24 0.02 0
10.32 0.02 0
10.4 0.02 0
10.48 0.02 0
10.56 0.02 0
10.64 0.02 0
10.72 0.02 0
10.8 0.02 0
10.88 0.02 0
10.96 0.02 0
11.04 0.02 0
11.12 0.02 0
11.2 0.02 0
11.28 0.02 0
11.36 0.02 0
11.44 0.02 0
11.52 0.02 0
11.6 0.02 0
11.68 0.02 0
11.76 0.02 0
11.84 0.02 0
11.92 0.02 0
12 0.02 0
12.08 0.02 0
12.16 0.02 0
12.24 0.02 0
12.32 0.02 0
12.4 0.02 0
12.48 0.02 0
12.56 0.02 0
12.64 0.02 0
12.72 0.02 0
12.8 0.02 0
12.88 0.02 0
12.96 0.02 0
13.04 0.02 0
13.12 0.02 0
13.2 0.02 0
13.28 0.02 0
13.36 0.02 0
13.44 0.02 0
13.52 0.02 0
13.6 0.02 0
13.68 0.02 0
13.76 0.02 0
13.84 0.02 0
13.92 0.02 0
14 0.02 0
14.08 0.02 0
14.16 0.02 0
14.24 0.02 0
14.32 0.02 0
14.4 0.02 0
14.48 0.02 0
14.56 0.02 0
14.64 0.02 0
14.72 0.02 0
14.8 0.02 0
14.88 0.02 0
14.96 0.02 0
15.04 0.02 0
15.12 0.02 0
15.2 0.02 0
15.28 0.02 0
15.36 0.02 0
15.44 0.02 0
15.52 0.02 0
15.6 0.02 0
15.68 0.02 0
15.76 0.02 0
15.84 0.02 0
15.92 0.02 0
16 0.02 0
16.08 0.02 0
16.16 0.02 0
16.24 0.02 0
16.32 0.02 0
16.4 0.02 0
16.48 0.02 0
16.56 0.02 0
16.64 0.02 0
16.72 0.02 0
16.8 0.02 0
16.88 0.02 0
16.96 0.02 0
17.04 0.02 0
17.12 0.02 0
17.2 0.02 0
17.28 0.02 0
17.36 0.02 0
17.44 0.02 0
17.52 0.02 0
17.6 0.02 0
17.68 0.02 0
17.76 0.02 0
17.84 0.02 0
17.92 0.02 0
18 0.02 0
18.08 0.02 0
18.16 0.02 0
18.24 0.02 0
18.32 0.02 0
18.4 0.02 0
18.48 0.02 0
18.56 0.02 0
18.64 0.02 0
18.72 0.02 0
18.8 0.02 0
18.88 0.02 0
18.96 0.02 0
19.04 0.02 0
19.12 0.02 0
19.2 0.02 0
19.28 0.02 0
19.36 0.02 0
19.44 0.02 0
19.52 0.02 0
19.6 0.02 0
19.68 0.02 0
19.76 0.02 0
19.84 0.02 0
19.92 0.02 0
20 0.02 0
20.08 0.02 0
20.16 0.02 0
20.24 0.02 0
20.32 0.02 0
20.4 0.02 0
20.48 0.02 0
20.56 0.02 0
20.64 0.02 0
20.72 0.02 0
20.8 0.02 0
20.88 0.02 0
20.96 0.02 0
21.04 0.02 0
21.12 0.02 0
21.2 0.02 0
21.28 0.02 0
21.36 0.02 0
21.44 0.02 0
21.52 0.02 0
21.6 0.02 0
21.68 0.02 0
21.76 0.02 0
21.84 0.02 0
21.92 0.02 0
22 0.02 0
22.08 0.02 0
22.16 0.02 0
22.24 0.02 0
22.32 0.02 0
22.4 0.02 0
22.48 0.02 0
22.56 0.02 0
22.64 0.02 0
22.72 0.02 0
22.8 0.02 0
22.88 0.02 0
22.96 0.02 0
23.04 0.02 0
23.12 0.02 0
23.2 0.02 0
23.28 0.02 0
23.36 0.02 0
23.44 0.02 0
23.52 0.02 0
23.6 0.02 0
23.68 0.02 0
23.76 0.02 0
23.84 0.02 0
23.92 0.02 0
24 0.02 0
24.08 0.02 0
24.16 0.02 0
24.24 0.02 0
24.32 0.02 0
24.4 0.02 0
24.48 0.02 0
24.56 0.02 0
24.64 0.02 0
24.72 0.02 0
24.8 0.02 0
24.88 0.02 0
24.96 0.02 0
25.04 0.02 0
25.12 0.02 0
25.2 0.02 0
25.28 0.02 0
25.36 0.02 0
25.44 0.02 0
25.52 0.02 0
25.6 0.02 0
25.68 0.02 0
25.76 0.02 0
25.84 0.02 0
25.92 0.02 0
26 0.02 0
26.08 0.02 0
26.16 0.02 0
26.24 0.02 0
26.32 0.02 0
26.4 0.02 0
26.48 0.02 0
26.56 0.02 0
26.64 0.02 0
26.72 0.02 0
26.8 0.02 0
26.88 0.02 0
26.96 0.02 0
27.04 0.02 0
27.12 0.02 0
27.2 0.02 0
27.28 0.02 0
27.36 0.02 0
27.44 0.02 0
27.52 0.02 0
27.6 0.02 0
27.68 0.02 0
27.76 0.02 0
27.84 0.02 0
27.92 0.02 0
28 0.02 0
28.08 0.02 0
28.16 0.02 0
28.24 0.02 0
28.32 0.02 0
28.4 0.02 0
28.48 0.02 0
28.56 0.02 0
28.64 0.02 0
28.72 0.02 0
28.8 0.02 0
28.88 0.02 0
28.96 0.02 0
29.04 0.02 0
29.12 0.02 0
29.2 0.02 0
29.28 0.02 0
29.36 0.02 0
29.44 0.02 0
29.52 0.02 0
29.6 0.02 0
29.68 0.02 0
29.76 0.02 0
29.84 0.02 0
29.92 0.02 0
30 0.02 0
30.08 0.02 0
30.16 0.02 0
30.24 0.02 0
30.32 0.02 0
30.4 0.02 0
30.48 0.02 0
30.56 0.02 0
30.64 0.02 0
30.72 0.02 0
30.8 0.02 0
30.88 0.02 0
30.96 0.02 0
31.04 0.02 0
31.12 0.02 0
31.2 0.02 0
31.28 0.02 0
31.36 0.02 0
31.44 0.02 0
31.52 0.02 0
31.6 0.02 0
31.68 0.02 0
31.76 0.02 0
31.84 0.02 0
31.92 0.02 0
0 0.04 0
0.08 0.04 0
0.16 0.04 0
0.24 0.04 0
0.32 0.04 0
0.4 0.04 0
0.48 0.04 0
0.56 0.04 0
0.64 0.04 0
0.72 0.04 0
0.8 0.04 0
0.88 0.04 0
0.96 0.04 0
1.04 0.04 0
1.12 0.04 0
1.2 0.04 0
1.28 0.04 0
1.36 0.04 0
1.44 0.04 0
1.52 0.04 0
1.6 0.04 0
1.68 0.04 0
1.76 0.04 0
1.84 0.04 0
1.92 0.04 0
2 0.04 0
2.08 0.04 0
2.16 0.04 0
2.24 0.04 0
2.32 0.04 0
2.4 0.04 0
2.48 0.04 0
2.56 0.04 0
2.64 0.04 0
2.72 0.04 0
2.8 0.04 0
2.88 0.04 0
2.96 0.04 0
3.04 0.04 0
3.12 0.04 0
3.2 0.04 0
3.28 0.04 0
3.36 0.04 0
3.44 0.04 0
3.52 0.04 0
3.6 0.04 0
3.68 0.04 0
3.76 0.04 0
3.84 0.04 0
3.92 0.04 0
4 0.04 0
4.08 0.04 0
4.16 0.04 0
4.24 0.04 0
4.32 0.04 0
4.4 0.04 0
4.48 0.04 0
4.56 0.04 0
4.64 0.04 0
4.72 0.04 0
4.8 0.04 0
4.88 0.04 0
4.96 0.04 0
5.04 0.04 0
5.12 0.04 0
5.2 0.04 0
5.28 0.04 0
5.36 0.04 0
5.44 0.04 0
5.52 0.04 0
5.6 0.04 0
5.68 0.04 0
5.76 0.04 0
5.84 0.04 0
5.92 0.04 0
6 0.04 0
6.08 0.04 0
6.16 0.04 0
6.24 0.04 0
6.32 0.04 0
6.4 0.04 0
6.48 0.04 0
6.56 0.04 0
6.64 0.04 0
6.72 0.04 0
6.8 0.04 0
6.88 0.04 0
6.96 0.04 0
7.04 0.04 0
7.12 0.04 0
7.2 0.04 0
7.28 0.04 0
7.36 0.04 0
7.44 0.04 0
7.52 0.04 0
7.6 0.04 0
7.68 0.04 0
7.76 0.04 0
7.84 0.04 0
[...]
POINT_DATA 20000

SCALARS p float 1
LOOKUP_TABLE default
1
205.736
205.505
205.437
205.412
205.396
205.383
205.372
205.362
205.352
205.342
205.333
205.324
205.316
205.307
205.299
205.291
205.283
205.275
205.267
205.26
205.252
205.245
205.238
205.231
205.224
205.218
205.211
205.204
205.198
205.192
205.185
205.179
205.173
205.167
205.161
205.155
205.149
205.143
205.138
205.132
205.126
205.121
205.115
205.11
205.104
205.099
205.094
205.088
205.083
205.078
205.073
205.067
205.062
205.057
205.052
205.047
205.042
205.037
205.032
205.028
205.023
205.018
205.013
205.008
205.004
204.999
204.994
204.99
204.985
204.98
204.976
204.971
204.967
204.962
204.957
204.953
204.948
204.944
204.94
204.935
204.931
204.926
204.922
204.918
204.913
204.909
204.905
204.9
204.896
204.892
204.888
204.883
204.879
204.875
204.871
204.866
204.862
204.858
204.854
204.85
204.846
204.841
204.837
204.833
204.829
204.825
204.821
204.817
204.813
204.809
204.805
204.801
204.797
204.793
204.789
204.785
204.781
204.777
204.773
204.769
204.765
204.761
204.757
204.753
204.749
204.745
204.741
204.737
204.733
204.729
204.726
204.722
204.718
204.714
204.71
204.706
204.702
204.698
204.695
204.691
204.687
204.683
204.679
204.675
204.672
204.668
204.664
204.66
204.656
204.653
204.649
204.645
204.641
204.637
204.634
204.63
204.626
204.622
204.619
204.615
204.611
204.607
204.604
204.6
204.596
204.593
204.589
204.585
204.581
204.578
204.574
204.57
204.567
204.563
204.559
204.555
204.552
204.548
204.544
204.541
204.537
204.533
204.53
204.526
204.522
204.518
204.515
204.511
204.507
204.504
204.5
204.496
204.493
204.489
204.485
204.481
204.478
204.474
204.47
204.467
204.463
204.459
204.456
204.452
204.448
204.444
204.441
204.437
204.433
204.43
204.426
204.422
204.419
204.415
204.411
204.407
204.404
204.4
204.396
204.393
204.389
204.385
204.381
204.378
204.374
204.37
204.367
204.363
204.359
204.355
204.352
204.348
204.344
204.34
204.337
204.333
204.329
204.326
204.322
204.318
204.314
204.311
204.307
204.303
204.3
204.296
204.292
204.288
204.285
204.281
204.277
204.273
204.27
204.266
204.262
204.259
204.255
204.251
204.247
204.244
204.24
204.236
204.232
204.229
204.225
204.221
204.218
204.214
204.21
204.206
204.203
204.199
204.195
204.191
204.188
204.184
204.18
204.176
204.173
204.169
204.165
204.162
204.158
204.154
204.15
204.147
204.143
204.139
204.135
204.132
204.128
204.124
204.121
204.117
204.113
204.109
204.106
204.102
204.098
204.094
204.091
204.087
204.083
204.08
204.076
204.072
204.068
204.065
204.061
204.057
204.053
204.05
204.046
204.042
204.039
204.035
204.031
204.027
204.024
204.02
204.016
204.012
204.009
204.005
204.001
203.998
203.994
203.99
203.986
203.983
203.979
203.975
203.972
203.968
203.964
203.96
203.957
203.953
203.949
203.945
203.942
203.938
203.934
203.931
203.927
203.923
203.919
203.916
203.912
203.908
203.905
203.901
203.897
203.893
203.89
203.886
203.882
203.879
203.875
203.871
203.867
203.864
203.86
203.856
203.853
203.849
203.845
203.842
203.838
203.834
203.83
203.827
203.823
203.819
203.816
203.812
203.808
203.805
203.801
203.797
203.793
203.79
203.786
203.782
203.779
203.775
203.771
203.768
203.764
203.76
203.756
203.753
203.749
203.745
203.742
203.738
203.734
203.731
0.5
205.736
205.736
205.505
205.437
205.412
205.396
205.383
205.372
205.362
205.352
205.342
205.333
205.324
205.316
205.307
205.299
205.291
205.283
205.275
205.267
205.26
205.252
205.245
205.238
205.231
205.224
205.218
205.211
205.204
205.198
205.192
205.185
205.179
205.173
205.167
205.161
205.155
205.149
205.143
205.138
205.132
205.126
205.121
205.115
205.11
205.104
205.099
205.094
205.088
205.083
205.078
205.073
205.067
205.062
205.057
205.052
205.047
205.042
205.037
205.032
205.028
205.023
205.018
205.013
205.008
205.004
204.999
204.994
204.99
204.985
204.98
204.976
204.971
204.967
204.962
204.957
204.953
204.948
204.944
204.94
204.935
204.931
204.926
204.922
204.918
204.913
204.909
204.905
204.9
204.896
204.892
204.888
204.883
204.879
204.875
204.871
204.866
204.862
204.858
204.854
204.85
204.846
204.841
204.837
204.833
204.829
204.825
204.821
204.817
204.813
204.809
204.805
204.801
204.797
204.793
204.789
204.785
204.781
204.777
204.773
204.769
204.765
204.761
204.757
204.753
204.749
204.745
204.741
204.737
204.733
204.729
204.726
204.722
204.718
204.714
204.71
204.706
204.702
204.698
204.695
204.691
204.687
204.683
204.679
204.675
204.672
204.668
204.664
204.66
204.656
204.653
204.649
204.645
204.641
204.637
204.634
204.63
204.626
204.622
204.619
204.615
204.611
204.607
204.604
204.6
204.596
204.593
204.589
204.585
204.581
204.578
204.574
204.57
204.567
204.563
204.559
204.555
204.552
204.548
204.544
204.541
204.537
204.533
204.53
204.526
204.522
204.518
204.515
204.511
204.507
204.504
204.5
204.496
204.493
204.489
204.485
204.481
204.478
204.474
204.47
204.467
204.463
204.459
204.456
204.452
204.448
204.444
204.441
204.437
204.433
204.43
204.426
204.422
204.419
204.415
204.411
204.407
204.404
204.4
204.396
204.393
204.389
204.385
204.381
204.378
204.374
204.37
204.367
204.363
204.359
204.355
204.352
204.348
204.344
204.34
204.337
204.333
204.329
204.326
204.322
204.318
204.314
204.311
204.307
204.303
204.3
204.296
204.292
204.288
204.285
204.281
204.277
204.273
204.27
204.266
204.262
204.259
204.255
204.251
204.247
204.244
204.24
204.236
204.232
204.229
204.225
204.221
204.218
204.214
204.21
204.206
204.203
204.199
204.195
204.191
204.188
204.184
204.18
204.176
204.173
204.169
204.165
204.162
204.158
204.154
204.15
204.147
204.143
204.139
204.135
204.132
204.128
204.124
204.121
204.117
204.113
204.109
204.106
204.102
204.098
204.094
204.091
204.087
204.083
204.08
204.076
204.072
204.068
204.065
204.061
204.057
204.053
204.05
204.046
204.042
204.039
204.035
204.031
204.027
204.024
204.02
204.016
204.012
204.009
204.005
204.001
203.998
203.994
203.99
203.986
203.983
203.979
203.975
203.972
203.968
203.964
203.96
203.957
203.953
203.949
203.945
203.942
203.938
203.934
203.931
203.927
203.923
203.919
203.916
203.912
203.908
203.905
203.901
203.897
203.893
203.89
203.886
203.882
203.879
203.875
203.871
203.867
203.864
203.86
203.856
203.853
203.849
203.845
203.842
203.838
203.834
203.83
203.827
203.823
203.819
203.816
203.812
203.808
203.805
203.801
203.797
203.793
203.79
203.786
203.782
203.779
203.775
203.771
203.768
203.764
203.76
203.756
203.753
203.749
203.745
203.742
203.738
203.734
203.731
203.731
205.686
205.686
205.51
205.442
205.414
205.397
205.384
205.373
205.362
205.352
205.343
205.334
205.325
205.316
205.307
205.299
205.291
205.283
205.275
205.267
205.26
205.253
205.245
205.238
205.231
205.224
205.218
205.211
205.204
205.198
205.192
205.185
205.179
205.173
205.167
205.161
205.155
205.149
205.143
205.138
205.132
205.126
205.121
205.115
205.11
205.104
205.099
205.094
205.088
205.083
205.078
205.073
205.068
205.062
205.057
205.052
205.047
205.042
205.037
205.032
205.028
205.023
205.018
205.013
205.008
205.004
204.999
204.994
204.99
204.985
204.98
204.976
204.971
204.967
204.962
204.957
204.953
204.948
204.944
204.94
204.935
204.931
204.926
204.922
204.918
204.913
204.909
204.905
204.9
204.896
204.892
204.888
204.883
204.879
204.875
204.871
204.866
204.862
204.858
204.854
204.85
204.846
204.841
204.837
204.833
204.829
204.825
204.821
204.817
204.813
204.809
204.805
204.801
204.797
204.793
204.789
204.785
204.781
204.777
204.773
204.769
204.765
204.761
204.757
204.753
204.749
204.745
204.741
204.737
204.733
204.729
204.726
204.722
204.718
204.714
204.71
204.706
204.702
204.698
204.695
204.691
204.687
204.683
204.679
204.675
204.672
204.668
204.664
204.66
204.656
204.653
204.649
204.645
204.641
204.637
204.634
204.63
204.626
204.622
204.619
204.615
204.611
204.607
204.604
204.6
204.596
204.593
204.589
204.585
204.581
204.578
204.574
204.57
204.567
204.563
204.559
204.555
204.552
204.548
204.544
204.541
204.537
204.533
204.53
204.526
204.522
204.518
204.515
204.511
204.507
204.504
204.5
204.496
204.493
204.489
204.485
204.481
204.478
204.474
204.47
204.467
204.463
204.459
204.456
204.452
204.448
204.444
204.441
204.437
204.433
204.43
204.426
204.422
204.419
204.415
204.411
204.407
204.404
204.4
204.396
204.393
204.389
204.385
204.381
204.378
204.374
204.37
204.367
204.363
204.359
204.355
204.352
204.348
204.344
204.34
204.337
204.333
204.329
204.326
204.322
204.318
204.314
204.311
204.307
204.303
204.3
204.296
204.292
204.288
204.285
204.281
204.277
204.273
204.27
204.266
204.262
204.259
204.255
204.251
204.247
204.244
204.24
204.236
204.232
204.229
204.225
204.221
204.218
204.214
204.21
204.206
204.203
204.199
204.195
204.191
204.188
204.184
204.18
204.176
204.173
204.169
204.165
204.162
204.158
204.154
204.15
204.147
204.143
204.139
204.135
204.132
204.128
204.124
204.121
204.117
204.113
204.109
204.106
204.102
204.098
204.094
204.091
204.087
204.083
204.08
204.076
204.072
204.068
204.065
204.061
204.057
204.053
204.05
204.046
204.042
204.039
204.035
204.031
204.027
204.024
204.02
204.016
204.012
204.009
204.005
204.001
203.998
203.994
203.99
203.986
203.983
203.979
203.975
203.972
203.968
203.964
203.96
203.957
203.953
203.949
203.945
203.942
203.938
203.934
203.931
203.927
203.923
203.919
203.916
203.912
203.908
203.905
203.901
203.897
203.893
203.89
203.886
203.882
203.879
203.875
203.871
203.867
203.864
203.86
203.856
203.853
203.849
203.845
203.842
203.838
203.834
203.83
203.827
203.823
203.819
203.816
203.812
203.808
203.805
203.801
203.797
203.793
203.79
203.786
203.782
203.779
203.775
203.771
203.768
203.764
203.76
203.756
203.753
203.749
203.745
203.742
203.738
203.734
203.731
203.731
205.646
205.646
205.513
205.447
205.417
205.399
205.386
205.374
205.363
205.353
205.343
205.334
205.325
205.316
205.308
205.299
205.291
205.283
205.275
205.268
205.26
205.253
205.245
205.238
205.231
205.225
205.218
205.211
205.205
205.198
205.192
205.185
205.179
205.173
205.167
205.161
205.155
205.149
205.143
205.138
205.132
205.126
205.121
205.115
205.11
205.104
205.099
205.094
205.088
205.083
205.078
205.073
205.068
205.062
205.057
205.052
205.047
205.042
205.037
205.033
205.028
205.023
205.018
205.013
205.008
205.004
204.999
204.994
204.99
204.985
204.98
204.976
204.971
204.967
204.962
204.957
204.953
204.948
204.944
204.94
204.935
204.931
204.926
204.922
204.918
204.913
204.909
204.905
204.9
204.896
204.892
204.888
204.883
204.879
204.875
204.871
204.866
204.862
204.858
204.854
204.85
204.846
204.841
204.837
204.833
204.829
204.825
204.821
204.817
204.813
204.809
204.805
204.801
204.797
204.793
204.789
204.785
204.781
204.777
204.773
204.769
204.765
204.761
204.757
204.753
204.749
204.745
204.741
204.737
204.733
204.729
204.726
204.722
204.718
204.714
204.71
204.706
204.702
204.698
204.695
204.691
204.687
204.683
204.679
204.675
204.672
204.668
204.664
204.66
204.656
204.653
204.649
204.645
204.641
204.637
204.634
204.63
204.626
204.622
204.619
204.615
204.611
204.607
204.604
204.6
204.596
204.593
204.589
204.585
204.581
204.578
204.574
204.57
204.567
204.563
204.559
204.555
204.552
204.548
204.544
204.541
204.537
204.533
204.53
204.526
204.522
204.518
204.515
204.511
204.507
204.504
204.5
204.496
204.493
204.489
204.485
204.481
204.478
204.474
204.47
204.467
204.463
204.459
204.456
204.452
204.448
204.444
204.441
204.437
204.433
204.43
204.426
204.422
204.419
204.415
204.411
204.407
204.404
204.4
204.396
204.393
204.389
204.385
204.381
204.378
204.374
204.37
204.367
204.363
204.359
204.355
204.352
204.348
204.344
204.34
204.337
204.333
204.329
204.326
204.322
204.318
204.314
204.311
204.307
204.303
204.3
204.296
204.292
204.288
204.285
204.281
204.277
204.273
204.27
204.266
204.262
204.259
204.255
204.251
204.247
204.244
204.24
204.236
204.232
204.229
204.225
204.221
204.218
204.214
204.21
204.206
204.203
204.199
204.195
204.191
204.188
204.184
204.18
204.176
204.173
204.169
204.165
204.162
204.158
204.154
204.15
204.147
204.143
204.139
204.135
204.132
204.128
204.124
204.121
204.117
204.113
204.109
204.106
204.102
204.098
204.094
204.091
204.087
204.083
204.08
204.076
204.072
204.068
204.065
204.061
204.057
204.053
204.05
204.046
204.042
204.039
204.035
204.031
204.027
204.024
204.02
204.016
204.012
204.009
204.005
204.001
203.998
203.994
203.99
203.986
203.983
203.979
203.975
203.972
203.968
203.964
203.96
203.957
203.953
203.949
203.945
203.942
203.938
203.934
203.931
203.927
203.923
203.919
203.916
203.912
203.908
203.905
203.901
203.897
203.893
203.89
203.886
203.882
203.879
203.875
203.871
203.867
203.864
203.86
203.856
203.853
203.849
203.845
203.842
203.838
203.834
203.83
203.827
203.823
203.819
203.816
203.812
203.808
203.805
203.801
203.797
203.793
203.79
203.786
203.782
203.779
203.775
203.771
203.768
203.764
203.76
203.756
203.753
203.749
203.745
203.742
203.738
203.734
203.731
203.731
205.614
205.614
205.513
205.452
205.421
205.401
205.387
205.375
205.364
205.354
205.344
205.334
205.325
205.316
205.308
205.299
205.291
205.283
205.275
205.268
205.26
205.253
205.246
205.238
205.231
205.225
205.218
205.211
205.205
205.198
205.192
205.185
205.179
205.173
205.167
205.161
205.155
205.149
205.143
205.138
205.132
205.126
205.121
205.115
205.11
205.104
205.099
205.094
205.088
205.083
205.078
205.073
205.068
205.062
205.057
205.052
205.047
205.042
205.037
205.033
205.028
205.023
205.018
205.013
205.008
205.004
204.999
204.994
204.99
204.985
204.98
204.976
204.971
204.967
204.962
204.957
204.953
204.949
204.944
204.94
204.935
204.931
204.926
204.922
204.918
204.913
204.909
204.905
204.9
204.896
204.892
204.888
204.883
204.879
204.875
204.871
204.866
204.862
204.858
204.854
204.85
204.846
204.842
204.837
204.833
204.829
204.825
204.821
204.817
204.813
204.809
204.805
204.801
204.797
204.793
204.789
204.785
204.781
204.777
204.773
204.769
204.765
204.761
204.757
204.753
204.749
204.745
204.741
204.737
204.733
204.729
204.726
204.722
204.718
204.714
204.71
204.706
204.702
204.698
204.695
204.691
204.687
204.683
204.679
204.675
204.672
204.668
204.664
204.66
204.656
204.653
204.649
204.645
204.641
204.637
204.634
204.63
204.626
204.622
204.619
204.615
204.611
204.607
204.604
204.6
204.596
204.593
204.589
204.585
204.581
204.578
204.574
204.57
204.567
204.563
204.559
204.555
204.552
204.548
204.544
204.541
204.537
204.533
204.53
204.526
204.522
204.518
204.515
204.511
204.507
204.504
204.5
204.496
204.493
204.489
204.485
204.481
204.478
204.474
204.47
204.467
204.463
204.459
204.456
204.452
204.448
204.444
204.441
204.437
204.433
204.43
204.426
204.422
204.419
204.415
204.411
204.407
204.404
204.4
204.396
204.393
204.389
204.385
204.381
204.378
204.374
204.37
204.367
204.363
204.359
204.355
204.352
204.348
204.344
204.34
204.337
204.333
204.329
204.326
204.322
204.318
204.314
204.311
204.307
204.303
204.3
204.296
204.292
204.288
204.285
204.281
204.277
204.273
204.27
204.266
204.262
204.259
204.255
204.251
204.247
204.244
204.24
204.236
204.232
204.229
204.225
204.221
204.218
204.214
204.21
204.206
204.203
204.199
204.195
204.191
204.188
204.184
204.18
204.176
204.173
204.169
204.165
204.162
204.158
204.154
204.15
204.147
204.143
204.139
204.135
204.132
204.128
204.124
204.121
204.117
204.113
204.109
204.106
204.102
204.098
204.094
204.091
204.087
204.083
204.08
204.076
204.072
204.068
204.065
204.061
204.057
204.053
204.05
204.046
204.042
204.039
204.035
204.031
204.027
204.024
204.02
204.016
204.012
204.009
204.005
204.001
203.998
203.994
203.99
203.986
203.983
203.979
203.975
203.972
203.968
203.964
203.96
203.957
203.953
203.949
203.945
203.942
203.938
203.934
203.931
203.927
203.923
203.919
203.916
203.912
203.908
203.905
203.901
203.897
203.893
203.89
203.886
203.882
203.879
203.875
203.871
203.867
203.864
203.86
203.856
203.853
203.849
203.845
203.842
203.838
203.834
203.83
203.827
203.823
203.819
203.816
203.812
203.808
203.805
203.801
203.797
203.793
203.79
203.786
203.782
203.779
203.775
203.771
203.768
203.764
203.76
203.756
203.753
203.749
203.745
203.742
203.738
203.734
203.731
203.731
205.588
205.588
205.511
205.456
205.424
205.404
205.389
205.376
205.365
205.354
205.344
205.335
205.326
205.317
205.308
205.3
205.291
205.283
205.275
205.268
205.26
205.253
205.246
205.239
205.232
205.225
205.218
205.211
205.205
205.198
205.192
205.186
205.179
205.173
205.167
205.161
205.155
205.149
205.143
205.138
205.132
205.126
205.121
205.115
205.11
205.104
205.099
205.094
205.088
205.083
205.078
205.073
205.068
205.062
205.057
205.052
205.047
205.042
205.037
205.033
205.028
205.023
205.018
205.013
205.008
205.004
204.999
204.994
204.99
204.985
204.98
204.976
204.971
204.967
204.962
204.957
204.953
204.949
204.944
204.94
204.935
204.931
204.926
204.922
204.918
204.913
204.909
204.905
204.9
204.896
204.892
204.888
204.883
204.879
204.875
204.871
204.866
204.862
204.858
204.854
204.85
204.846
204.842
204.837
204.833
204.829
204.825
204.821
204.817
204.813
204.809
204.805
204.801
204.797
204.793
204.789
204.785
204.781
204.777
204.773
204.769
204.765
204.761
204.757
204.753
204.749
204.745
204.741
204.737
204.733
204.729
204.726
204.722
204.718
204.714
204.71
204.706
204.702
204.698
204.695
204.691
204.687
204.683
204.679
204.675
204.672
204.668
204.664
204.66
204.656
204.653
204.649
204.645
204.641
204.637
204.634
204.63
204.626
204.622
204.619
204.615
204.611
204.607
204.604
204.6
204.596
204.593
204.589
204.585
204.581
204.578
204.574
204.57
204.567
204.563
204.559
204.555
204.552
204.548
204.544
204.541
204.537
204.533
204.53
204.526
204.522
204.518
204.515
204.511
204.507
204.504
204.5
204.496
204.493
204.489
204.485
204.481
204.478
204.474
204.47
204.467
204.463
204.459
204.456
204.452
204.448
204.444
204.441
204.437
204.433
204.43
204.426
204.422
204.419
204.415
204.411
204.407
204.404
204.4
204.396
204.393
204.389
204.385
204.381
204.378
204.374
204.37
204.367
204.363
204.359
204.355
204.352
204.348
204.344
204.34
204.337
204.333
204.329
204.326
204.322
204.318
204.314
204.311
204.307
204.303
204.3
204.296
204.292
204.288
204.285
204.281
204.277
204.273
204.27
204.266
204.262
204.259
204.255
204.251
204.247
204.244
204.24
204.236
204.232
204.229
204.225
204.221
204.218
204.214
204.21
204.206
204.203
204.199
204.195
204.191
204.188
204.184
204.18
204.176
204.173
204.169
204.165
204.162
204.158
204.154
204.15
204.147
204.143
204.139
204.135
204.132
204.128
204.124
204.121
204.117
204.113
204.109
204.106
204.102
204.098
204.094
204.091
204.087
204.083
204.08
204.076
204.072
204.068
204.065
204.061
204.057
204.053
204.05
204.046
204.042
204.039
204.035
204.031
204.027
204.024
204.02
204.016
204.012
204.009
204.005
204.001
203.998
203.994
203.99
203.986
203.983
203.979
203.975
203.972
203.968
203.964
203.96
203.957
203.953
203.949
203.945
203.942
203.938
203.934
203.931
203.927
203.923
203.919
203.916
203.912
203.908
203.905
203.901
203.897
203.893
203.89
203.886
203.882
203.879
203.875
203.871
203.867
203.864
203.86
203.856
203.853
203.849
203.845
203.842
203.838
203.834
203.83
203.827
203.823
203.819
203.816
203.812
203.808
203.805
203.801
203.797
203.793
203.79
203.786
203.782
203.779
203.775
203.771
203.768
203.764
203.76
203.756
203.753
203.749
203.745
203.742
203.738
203.734
203.731
203.731
205.567
205.567
205.507
205.459
205.427
205.407
205.391
205.378
205.366
205.355
205.345
205.335
205.326
205.317
205.308
205.3
205.292
205.284
205.276
205.268
205.26
205.253
205.246
205.239
205.232
205.225
205.218
205.211
205.205
205.198
205.192
205.186
205.179
205.173
205.167
205.161
205.155
205.149
205.144
205.138
205.132
205.126
205.121
205.115
205.11
205.104
205.099
205.094
205.088
205.083
205.078
205.073
205.068
205.062
205.057
205.052
205.047
205.042
205.037
205.033
205.028
205.023
205.018
205.013
205.008
205.004
204.999
204.994
204.99
204.985
204.98
204.976
204.971
204.967
204.962
204.958
204.953
204.949
204.944
204.94
204.935
204.931
204.926
204.922
204.918
204.913
204.909
204.905
204.9
204.896
204.892
204.888
204.883
204.879
204.875
204.871
204.866
204.862
204.858
204.854
204.85
204.846
204.842
204.837
204.833
204.829
204.825
204.821
204.817
204.813
204.809
204.805
204.801
204.797
204.793
204.789
204.785
204.781
204.777
204.773
204.769
204.765
204.761
204.757
204.753