# vtk DataFile Version 2.0
FlowField
ASCII
DATASET STRUCTURED_GRID
DIMENSIONS 400 1 50
POINTS 20000 float
0 0 0
0.08 0 0
0.16 0 0
0.24 0 0
0.32 0 0
0.4 0 0
0.48 0 0
0.56 0 0
0.64 0 0
0.72 0 0
0.8 0 0
0.88 0 0
0.96 0 0
1.04 0 0
1.12 0 0
1.2 0 0
1.28 0 0
1.36 0 0
1.44 0 0
1.52 0 0
1.6 0 0
1.68 0 0
1.76 0 0
1.84 0 0
1.92 0 0
2 0 0
2.08 0 0
2.16 0 0
2.24 0 0
2.32 0 0
2.4 0 0
2.48 0 0
2.56 0 0
2.64 0 0
2.72 0 0
2.8 0 0
2.88 0 0
2.96 0 0
3.04 0 0
3.12 0 0
3.2 0 0
3.28 0 0
3.36 0 0
3.44 0 0
3.52 0 0
3.6 0 0
3.68 0 0
3.76 0 0
3.84 0 0
3.92 0 0
4 0 0
4.08 0 0
4.16 0 0
4.24 0 0
4.32 0 0
4.4 0 0
4.48 0 0
4.56 0 0
4.64 0 0
4.72 0 0
4.8 0 0
4.88 0 0
4.96 0 0
5.04 0 0
5.12 0 0
5.2 0 0
5.28 0 0
5.36 0 0
5.44 0 0
5.52 0 0
5.6 0 0
5.68 0 0
5.76 0 0
5.84 0 0
5.92 0 0
6 0 0
6.08 0 0
6.16 0 0
6.24 0 0
6.32 0 0
6.4 0 0
6.48 0 0
6.56 0 0
6.64 0 0
6.72 0 0
6.8 0 0
6.88 0 0
6.96 0 0
7.04 0 0
7.12 0 0
7.2 0 0
7.28 0 0
7.36 0 0
7.44 0 0
7.52 0 0
7.6 0 0
7.68 0 0
7.76 0 0
7.84 0 0
7.92 0 0
8 0 0
8.08 0 0
8.16 0 0
8.24 0 0
8.32 0 0
8.4 0 0
8.48 0 0
8.56 0 0
8.64 0 0
8.72 0 0
8.8 0 0
8.88 0 0
8.96 0 0
9.04 0 0
9.12 0 0
9.2 0 0
9.28 0 0
9.36 0 0
9.44 0 0
9.52 0 0
9.6 0 0
9.68 0 0
9.76 0 0
9.84 0 0
9.92 0 0
10 0 0
10.08 0 0
10.16 0 0
10.24 0 0
10.32 0 0
10.4 0 0
10.48 0 0
10.56 0 0
10.64 0 0
10.72 0 0
10.8 0 0
10.88 0 0
10.96 0 0
11.04 0 0
11.12 0 0
11.2 0 0
11.28 0 0
11.36 0 0
11.44 0 0
11.52 0 0
11.6 0 0
11.68 0 0
11.76 0 0
11.84 0 0
11.92 0 0
12 0 0
12.08 0 0
12.16 0 0
12.24 0 0
12.32 0 0
12.4 0 0
12.48 0 0
12.56 0 0
12.64 0 0
12.72 0 0
12.8 0 0
12.88 0 0
12.96 0 0
13.04 0 0
13.12 0 0
13.2 0 0
13.28 0 0
13.36 0 0
13.44 0 0
13.52 0 0
13.6 0 0
13.68 0 0
13.76 0 0
13.84 0 0
13.92 0 0
14 0 0
14.08 0 0
14.16 0 0
14.24 0 0
14.32 0 0
14.4 0 0
14.48 0 0
14.56 0 0
14.64 0 0
14.72 0 0
14.8 0 0
14.88 0 0
14.96 0 0
15.04 0 0
15.12 0 0
15.2 0 0
15.28 0 0
15.36 0 0
15.44 0 0
15.52 0 0
15.6 0 0
15.68 0 0
15.76 0 0
15.84 0 0
15.92 0 0
16 0 0
16.08 0 0
16.16 0 0
16.24 0 0
16.32 0 0
16.4 0 0
16.48 0 0
16.56 0 0
16.64 0 0
16.72 0 0
16.8 0 0
16.88 0 0
16.96 0 0
17.04 0 0
17.12 0 0
17.2 0 0
17.28 0 0
17.36 0 0
17.44 0 0
17.52 0 0
17.6 0 0
17.68 0 0
17.76 0 0
17.84 0 0
17.92 0 0
18 0 0
18.08 0 0
18.16 0 0
18.24 0 0
18.32 0 0
18.4 0 0
18.48 0 0
18.56 0 0
18.64 0 0
18.72 0 0
18.8 0 0
18.88 0 0
18.96 0 0
19.04 0 0
19.12 0 0
19.2 0 0
19.28 0 0
19.36 0 0
19.44 0 0
19.52 0 0
19.6 0 0
19.68 0 0
19.76 0 0
19.84 0 0
19.92 0 0
20 0 0
20.08 0 0
20.16 0 0
20.24 0 0
20.32 0 0
20.4 0 0
20.48 0 0
20.56 0 0
20.64 0 0
20.72 0 0
20.8 0 0
20.88 0 0
20.96 0 0
21.04 0 0
21.12 0 0
21.2 0 0
21.28 0 0
21.36 0 0
21.44 0 0
21.52 0 0
21.6 0 0
21.68 0 0
21.76 0 0
21.84 0 0
21.92 0 0
22 0 0
22.08 0 0
22.16 0 0
22.24 0 0
22.32 0 0
22.4 0 0
22.48 0 0
22.56 0 0
22.64 0 0
22.72 0 0
22.8 0 0
22.88 0 0
22.96 0 0
23.04 0 0
23.12 0 0
23.2 0 0
23.28 0 0
23.36 0 0
23.44 0 0
23.52 0 0
23.6 0 0
23.68 0 0
23.76 0 0
23.84 0 0
23.92 0 0
24 0 0
24.08 0 0
24.16 0 0
24.24 0 0
24.32 0 0
24.4 0 0
24.48 0 0
24.56 0 0
24.64 0 0
24.72 0 0
24.8 0 0
24.88 0 0
24.96 0 0
25.04 0 0
25.12 0 0
25.2 0 0
25.28 0 0
25.36 0 0
25.44 0 0
25.52 0 0
25.6 0 0
25.68 0 0
25.76 0 0
25.84 0 0
25.92 0 0
26 0 0
26.08 0 0
26.16 0 0
26.24 0 0
26.32 0 0
26.4 0 0
26.48 0 0
26.56 0 0
26.64 0 0
26.72 0 0
26.8 0 0
26.88 0 0
26.96 0 0
27.04 0 0
27.12 0 0
27.2 0 0
27.28 0 0
27.36 0 0
27.44 0 0
27.52 0 0
27.6 0 0
27.68 0 0
27.76 0 0
27.84 0 0
27.92 0 0
28 0 0
28.08 0 0
28.16 0 0
28.24 0 0
28.32 0 0
28.4 0 0
28.48 0 0
28.56 0 0
28.64 0 0
28.72 0 0
28.8 0 0
28.88 0 0
28.96 0 0
29.04 0 0
29.12 0 0
29.2 0 0
29.28 0 0
29.36 0 0
29.44 0 0
29.52 0 0
29.6 0 0
29.68 0 0
29.76 0 0
29.84 0 0
29.92 0 0
30 0 0
30.08 0 0
30.16 0 0
30.24 0 0
30.32 0 0
30.4 0 0
30.48 0 0
30.56 0 0
30.64 0 0
30.72 0 0
30.8 0 0
30.88 0 0
30.96 0 0
31.04 0 0
31.12 0 0
31.2 0 0
31.28 0 0
31.36 0 0
31.44 0 0
31.52 0 0
31.6 0 0
31.68 0 0
31.76 0 0
31.84 0 0
31.92 0 0
0 0.02 0
0.08 0.02 0
0.16 0.02 0
0.24 0.02 0
0.32 0.02 0
0.4 0.02 0
0.48 0.02 0
0.56 0.02 0
0.64 0.02 0
0.72 0.02 0
0.8 0.02 0
0.88 0.02 0
0.96 0.02 0
1.04 0.02 0
1.12 0.02 0
1.2 0.02 0
1.28 0.02 0
1.36 0.02 0
1.44 0.02 0
1.52 0.02 0
1.6 0.02 0
1.68 0.02 0
1.76 0.02 0
1.84 0.02 0
1.92 0.02 0
2 0.02 0
2.08 0.02 0
2.16 0.02 0
2.24 0.02 0
2.32 0.02 0
2.4 0.02 0
2.48 0.02 0
2.56 0.02 0
2.64 0.02 0
2.72 0.02 0
2.8 0.02 0
2.88 0.02 0
2.96 0.02 0
3.04 0.02 0
3.12 0.02 0
3.2 0.02 0
3.28 0.02 0
3.36 0.02 0
3.44 0.02 0
3.52 0.02 0
3.6 0.02 0
3.68 0.02 0
3.76 0.02 0
3.84 0.02 0
3.92 0.02 0
4 0.02 0
4.08 0.02 0
4.16 0.02 0
4.24 0.02 0
4.32 0.02 0
4.4 0.02 0
4.48 0.02 0
4.56 0.02 0
4.64 0.02 0
4.72 0.02 0
4.8 0.02 0
4.88 0.02 0
4.96 0.02 0
5.04 0.02 0
5.12 0.02 0
5.2 0.02 0
5.28 0.02 0
5.36 0.02 0
5.44 0.02 0
5.52 0.02 0
5.6 0.02 0
5.68 0.02 0
5.76 0.02 0
5.84 0.02 0
5.92 0.02 0
6 0.02 0
6.08 0.02 0
6.16 0.02 0
6.24 0.02 0
6.32 0.02 0
6.4 0.02 0
6.48 0.02 0
6.56 0.02 0
6.64 0.02 0
6.72 0.02 0
6.8 0.02 0
6.88 0.02 0
6.96 0.02 0
7.04 0.02 0
7.12 0.02 0
7.2 0.02 0
7.28 0.02 0
7.36 0.02 0
7.44 0.02 0
7.52 0.02 0
7.6 0.02 0
7.68 0.02 0
7.76 0.02 0
7.84 0.02 0
7.92 0.02 0
8 0.02 0
8.08 0.02 0
8.16 0.02 0
8.24 0.02 0
8.32 0.02 0
8.4 0.02 0
8.48 0.02 0
8.56 0.02 0
8.64 0.02 0
8.72 0.02 0
8.8 0.02 0
8.88 0.02 0
8.96 0.02 0
9.04 0.02 0
9.12 0.02 0
9.2 0.02 0
9.28 0.02 0
9.36 0.02 0
9.44 0.02 0
9.52 0.02 0
9.6 0.02 0
9.68 0.02 0
9.76 0.02 0
9.84 0.02 0
9.92 0.02 0
10 0.02 0
10.08 0.02 0
10.16 0.02 0
10.24 0.02 0
10.32 0.02 0
10.4 0.02 0
10.48 0.02 0
10.56 0.02 0
10.64 0.02 0
10.72 0.02 0
10.8 0.02 0
10.88 0.02 0
10.96 0.02 0
11.04 0.02 0
11.12 0.02 0
11.2 0.02 0
11.28 0.02 0
11.36 0.02 0
11.44 0.02 0
11.52 0.02 0
11.6 0.02 0
11.68 0.02 0
11.76 0.02 0
11.84 0.02 0
11.92 0.02 0
12 0.02 0
12.08 0.02 0
12.16 0.02 0
12.24 0.02 0
12.32 0.02 0
12.4 0.02 0
12.48 0.02 0
12.56 0.02 0
12.64 0.02 0
12.72 0.02 0
12.8 0.02 0
12.88 0.02 0
12.96 0.02 0
13.04 0.02 0
13.12 0.02 0
13.2 0.02 0
13.28 0.02 0
13.36 0.02 0
13.44 0.02 0
13.52 0.02 0
13.6 0.02 0
13.68 0.02 0
13.76 0.02 0
13.84 0.02 0
13.92 0.02 0
14 0.02 0
14.08 0.02 0
14.16 0.02 0
14.24 0.02 0
14.32 0.02 0
14.4 0.02 0
14.48 0.02 0
14.56 0.02 0
14.64 0.02 0
14.72 0.02 0
14.8 0.02 0
14.88 0.02 0
14.96 0.02 0
15.04 0.02 0
15.12 0.02 0
15.2 0.02 0
15.28 0.02 0
15.36 0.02 0
15.44 0.02 0
15.52 0.02 0
15.6 0.02 0
15.68 0.02 0
15.76 0.02 0
15.84 0.02 0
15.92 0.02 0
16 0.02 0
16.08 0.02 0
16.16 0.02 0
16.24 0.02 0
16.32 0.02 0
16.4 0.02 0
16.48 0.02 0
16.56 0.02 0
16.64 0.02 0
16.72 0.02 0
16.8 0.02 0
16.88 0.02 0
16.96 0.02 0
17.04 0.02 0
17.12 0.02 0
17.2 0.02 0
17.28 0.02 0
17.36 0.02 0
17.44 0.02 0
17.52 0.02 0
17.6 0.02 0
17.68 0.02 0
17.76 0.02 0
17.84 0.02 0
17.92 0.02 0
18 0.02 0
18.08 0.02 0
18.16 0.02 0
18.24 0.02 0
18.32 0.02 0
18.4 0.02 0
18.48 0.02 0
18.56 0.02 0
18.64 0.02 0
18.72 0.02 0
18.8 0.02 0
18.88 0.02 0
18.96 0.02 0
19.04 0.02 0
19.12 0.02 0
19.2 0.02 0
19.28 0.02 0
19.36 0.02 0
19.44 0.02 0
19.52 0.02 0
19.6 0.02 0
19.68 0.02 0
19.76 0.02 0
19.84 0.02 0
19.92 0.02 0
20 0.02 0
20.08 0.02 0
20.16 0.02 0
20.24 0.02 0
20.32 0.02 0
20.4 0.02 0
20.48 0.02 0
20.56 0.02 0
20.64 0.02 0
20.72 0.02 0
20.8 0.02 0
20.88 0.02 0
20.96 0.02 0
21.04 0.02 0
21.12 0.02 0
21.2 0.02 0
21.28 0.02 0
21.36 0.02 0
21.44 0.02 0
21.52 0.02 0
21.6 0.02 0
21.68 0.02 0
21.76 0.02 0
21.84 0.02 0
21.92 0.02 0
22 0.02 0
22.08 0.02 0
22.16 0.02 0
22.24 0.02 0
22.32 0.02 0
22.4 0.02 0
22.48 0.02 0
22.56 0.02 0
22.64 0.02 0
22.72 0.02 0
22.8 0.02 0
22.88 0.02 0
22.96 0.02 0
23.04 0.02 0
23.12 0.02 0
23.2 0.02 0
23.28 0.02 0
23.36 0.02 0
23.44 0.02 0
23.52 0.02 0
23.6 0.02 0
23.68 0.02 0
23.76 0.02 0
23.84 0.02 0
23.92 0.02 0
24 0.02 0
24.08 0.02 0
24.16 0.02 0
24.24 0.02 0
24.32 0.02 0
24.4 0.02 0
24.48 0.02 0
24.56 0.02 0
24.64 0.02 0
24.72 0.02 0
24.8 0.02 0
24.88 0.02 0
24.96 0.02 0
25.04 0.02 0
25.12 0.02 0
25.2 0.02 0
25.28 0.02 0
25.36 0.02 0
25.44 0.02 0
25.52 0.02 0
25.6 0.02 0
25.68 0.02 0
25.76 0.02 0
25.84 0.02 0
25.92 0.02 0
26 0.02 0
26.08 0.02 0
26.16 0.02 0
26.24 0.02 0
26.32 0.02 0
26.4 0.02 0
26.48 0.02 0
26.56 0.02 0
26.64 0.02 0
26.72 0.02 0
26.8 0.02 0
26.88 0.02 0
26.96 0.02 0
27.04 0.02 0
27.12 0.02 0
27.2 0.02 0
27.28 0.02 0
27.36 0.02 0
27.44 0.02 0
27.52 0.02 0
27.6 0.02 0
27.68 0.02 0
27.76 0.02 0
27.84 0.02 0
27.92 0.02 0
28 0.02 0
28.08 0.02 0
28.16 0.02 0
28.24 0.02 0
28.32 0.02 0
28.4 0.02 0
28.48 0.02 0
28.56 0.02 0
28.64 0.02 0
28.72 0.02 0
28.8 0.02 0
28.88 0.02 0
28.96 0.02 0
29.04 0.02 0
29.12 0.02 0
29.2 0.02 0
29.28 0.02 0
29.36 0.02 0
29.44 0.02 0
29.52 0.02 0
29.6 0.02 0
29.68 0.02 0
29.76 0.02 0
29.84 0.02 0
29.92 0.02 0
30 0.02 0
30.08 0.02 0
30.16 0.02 0
30.24 0.02 0
30.32 0.02 0
30.4 0.02 0
30.48 0.02 0
30.56 0.02 0
30.64 0.02 0
30.72 0.02 0
30.8 0.02 0
30.88 0.02 0
30.96 0.02 0
31.04 0.02 0
31.12 0.02 0
31.2 0.02 0
31.28 0.02 0
31.36 0.02 0
31.44 0.02 0
31.52 0.02 0
31.6 0.02 0
31.68 0.02 0
31.76 0.02 0
31.84 0.02 0
31.92 0.02 0
0 0.04 0
0.08 0.04 0
0.16 0.04 0
0.24 0.04 0
0.32 0.04 0
0.4 0.04 0
0.48 0.04 0
0.56 0.04 0
0.64 0.04 0
0.72 0.04 0
0.8 0.04 0
0.88 0.04 0
0.96 0.04 0
1.04 0.04 0
1.12 0.04 0
1.2 0.04 0
1.28 0.04 0
1.36 0.04 0
1.44 0.04 0
1.52 0.04 0
1.6 0.04 0
1.68 0.04 0
1.76 0.04 0
1.84 0.04 0
1.92 0.04 0
2 0.04 0
2.08 0.04 0
2.16 0.04 0
2.24 0.04 0
2.32 0.04 0
2.4 0.04 0
2.48 0.04 0
2.56 0.04 0
2.64 0.04 0
2.72 0.04 0
2.8 0.04 0
2.88 0.04 0
2.96 0.04 0
3.04 0.04 0
3.12 0.04 0
3.2 0.04 0
3.28 0.04 0
3.36 0.04 0
3.44 0.04 0
3.52 0.04 0
3.6 0.04 0
3.68 0.04 0
3.76 0.04 0
3.84 0.04 0
3.92 0.04 0
4 0.04 0
4.08 0.04 0
4.16 0.04 0
4.24 0.04 0
4.32 0.04 0
4.4 0.04 0
4.48 0.04 0
4.56 0.04 0
4.64 0.04 0
4.72 0.04 0
4.8 0.04 0
4.88 0.04 0
4.96 0.04 0
5.04 0.04 0
5.12 0.04 0
5.2 0.04 0
5.28 0.04 0
5.36 0.04 0
5.44 0.04 0
5.52 0.04 0
5.6 0.04 0
5.68 0.04 0
5.76 0.04 0
5.84 0.04 0
5.92 0.04 0
6 0.04 0
6.08 0.04 0
6.16 0.04 0
6.24 0.04 0
6.32 0.04 0
6.4 0.04 0
6.48 0.04 0
6.56 0.04 0
6.64 0.04 0
6.72 0.04 0
6.8 0.04 0
6.88 0.04 0
6.96 0.04 0
7.04 0.04 0
7.12 0.04 0
7.2 0.04 0
7.28 0.04 0
7.36 0.04 0
7.44 0.04 0
7.52 0.04 0
7.6 0.04 0
7.68 0.04 0
7.76 0.04 0
7.84 0.04 0
[...]
POINT_DATA 20000

SCALARS v float 1
LOOKUP_TABLE default
0
0
0
0
0
0
0
0
0
0
0
0
0
0
0
0
0
0
0
0
0
0
0
0
0
0
0
0
0
0
0
0
0
0
0
0
0
0
0
0
0
0
0
0
0
0
0
0
0
0
0
0
0
0
0
0
0
0
0
0
0
0
0
0
0
0
0
0
0
0
0
0
0
0
0
0
0
0
0
0
0
0
0
0
0
0
0
0
0
0
0
0
0
0
0
0
0
0
0
0
0
0
0
0
0
0
0
0
0
0
0
0
0
0
0
0
0
0
0
0
0
0
0
0
0
0
0
0
0
0
0
0
0
0
0
0
0
0
0
0
0
0
0
0
0
0
0
0
0
0
0
0
0
0
0
0
0
0
0
0
0
0
0
0
0
0
0
0
0
0
0
0
0
0
0
0
0
0
0
0
0
0
0
0
0
0
0
0
0
0
0
0
0
0
0
0
0
0
0
0
0
0
0
0
0
0
0
0
0
0
0
0
0
0
0
0
0
0
0
0
0
0
0
0
0
0
0
0
0
0
0
0
0
0
0
0
0
0
0
0
0
0
0
0
0
0
0
0
0
0
0
0
0
0
0
0
0
0
0
0
0
0
0
0
0
0
0
0
0
0
0
0
0
0
0
0
0
0
0
0
0
0
0
0
0
0
0
0
0
0
0
0
0
0
0
0
0
0
0
0
0
0
0
0
0
0
0
0
0
0
0
0
0
0
0
0
0
0
0
0
0
0
0
0
0
0
0
0
0
0
0
0
0
0
0
0
0
0
0
0
0
0
0
0
0
0
0
0
0
0
0
0
0
0
0
0
0
0
0
0
0
0
0
0
0
0
0
0
0
0
0
0
0
0
0
0
0
0
0
0
0
0
0
0
0
0
0
0
0
0
0
0
0
0
0
0
0
0
0
0
-0.122762
0.122762
0.0531935
0.0187499
0.00805608
0.00435547
0.00265681
0.00169583
0.00107779
0.000662455
0.000379519
0.000163047
-3.86471e-05
-0.000239504
-0.000422667
-0.000567762
-0.000669203
-0.00073551
-0.000779575
-0.000811098
-0.000834863
-0.000852531
-0.000864934
-0.000873205
-0.000878849
-0.000883323
-0.000887722
-0.000892659
-0.000898381
-0.000904887
-0.000912083
-0.000919844
-0.000928072
-0.000936687
-0.00094565
-0.000954926
-0.000964508
-0.000974385
-0.000984562
-0.000995033
-0.00100581
-0.00101688
-0.00102826
-0.00103995
-0.00105195
-0.00106425
-0.00107687
-0.0010898
-0.00110304
-0.0011166
-0.00113047
-0.00114465
-0.00115914
-0.00117394
-0.00118906
-0.00120448
-0.00122022
-0.00123625
-0.0012526
-0.00126924
-0.00128618
-0.00130342
-0.00132095
-0.00133877
-0.00135688
-0.00137527
-0.00139394
-0.00141288
-0.00143209
-0.00145156
-0.00147129
-0.00149126
-0.00151148
-0.00153194
-0.00155263
-0.00157354
-0.00159466
-0.00161599
-0.00163752
-0.00165923
-0.00168112
-0.00170318
-0.0017254
-0.00174776
-0.00177026
-0.00179288
-0.00181562
-0.00183845
-0.00186137
-0.00188436
-0.00190742
-0.00193051
-0.00195365
-0.00197679
-0.00199995
-0.00202308
-0.0020462
-0.00206926
-0.00209227
-0.0021152
-0.00213804
-0.00216076
-0.00218336
-0.00220582
-0.00222811
-0.00225023
-0.00227215
-0.00229385
-0.00231532
-0.00233653
-0.00235749
-0.00237814
-0.0023985
-0.00241853
-0.00243822
-0.00245755
-0.0024765
-0.00249505
-0.0025132
-0.0025309
-0.00254817
-0.00256496
-0.00258127
-0.00259708
-0.00261237
-0.00262714
-0.00264135
-0.002655
-0.00266807
-0.00268055
-0.00269242
-0.00270367
-0.00271429
-0.00272426
-0.00273358
-0.00274222
-0.00275018
-0.00275745
-0.00276402
-0.00276988
-0.00277502
-0.00277944
-0.00278312
-0.00278606
-0.00278826
-0.0027897
-0.0027904
-0.00279033
-0.00278951
-0.00278792
-0.00278556
-0.00278245
-0.00277857
-0.00277392
-0.00276852
-0.00276236
-0.00275545
-0.00274778
-0.00273937
-0.00273021
-0.00272033
-0.00270971
-0.00269838
-0.00268634
-0.0026736
-0.00266017
-0.00264605
-0.00263127
-0.00261583
-0.00259974
-0.00258302
-0.00256568
-0.00254774
-0.00252921
-0.0025101
-0.00249044
-0.00247023
-0.00244949
-0.00242824
-0.0024065
-0.00238428
-0.0023616
-0.00233849
-0.00231495
-0.00229101
-0.00226669
-0.002242
-0.00221696
-0.0021916
-0.00216593
-0.00213997
-0.00211374
-0.00208727
-0.00206056
-0.00203364
-0.00200653
-0.00197925
-0.00195181
-0.00192425
-0.00189656
-0.00186878
-0.00184092
-0.001813
-0.00178504
-0.00175705
-0.00172906
-0.00170108
-0.00167312
-0.00164521
-0.00161735
-0.00158958
-0.00156189
-0.00153431
-0.00150685
-0.00147952
-0.00145234
-0.00142532
-0.00139848
-0.00137182
-0.00134537
-0.00131912
-0.00129309
-0.0012673
-0.00124175
-0.00121646
-0.00119142
-0.00116666
-0.00114217
-0.00111797
-0.00109407
-0.00107047
-0.00104717
-0.00102419
-0.00100152
-0.00097919
-0.000957181
-0.000935509
-0.000914172
-0.000893179
-0.000872528
-0.000852227
-0.000832272
-0.000812672
-0.000793422
-0.00077453
-0.000755989
-0.000737807
-0.000719978
-0.000702507
-0.000685388
-0.000668628
-0.000652217
-0.000636161
-0.000620452
-0.000605096
-0.000590082
-0.000575416
-0.000561088
-0.000547102
-0.000533448
-0.00052013
-0.000507137
-0.000494474
-0.000482129
-0.000470105
-0.000458392
-0.000446991
-0.000435893
-0.0004251
-0.000414599
-0.000404394
-0.000394473
-0.000384838
-0.000375477
-0.000366392
-0.000357572
-0.000349018
-0.000340718
-0.000332675
-0.000324876
-0.000317323
-0.000310005
-0.000302922
-0.000296063
-0.00028943
-0.000283011
-0.000276807
-0.000270807
-0.000265012
-0.000259411
-0.000254006
-0.000248784
-0.000243748
-0.000238887
-0.000234201
-0.000229681
-0.000225327
-0.000221129
-0.000217089
-0.000213196
-0.000209452
-0.000205845
-0.00020238
-0.000199043
-0.00019584
-0.000192757
-0.000189799
-0.000186955
-0.000184228
-0.000181606
-0.000179095
-0.000176682
-0.000174372
-0.000172154
-0.000170033
-0.000167996
-0.00016605
-0.000164183
-0.0001624
-0.00016069
-0.000159058
-0.000157495
-0.000156004
-0.000154576
-0.000153215
-0.000151912
-0.000150672
-0.000149485
-0.000148356
-0.000147276
-0.00014625
-0.000145268
-0.000144337
-0.000143446
-0.000142602
-0.000141795
-0.000141031
-0.0001403
-0.000139609
-0.000138949
-0.000138325
-0.00013773
-0.000137168
-0.000136631
-0.000136125
-0.000135642
-0.000135188
-0.000134754
-0.000134347
-0.000133958
-0.000133594
-0.000133246
-0.00013292
-0.000132609
-0.000132319
-0.000132043
-0.000131785
-0.000131539
-0.000131311
-0.000131094
-0.000130893
-0.000130701
-0.000130524
-0.000130356
-0.000130202
-0.000130055
-0.000129922
-0.000129795
-0.000129681
-0.000129573
-0.000129477
-0.000129385
-0.000129305
-0.000129229
-0.000129165
-0.000129104
-0.000129054
-0.000129008
-0.000128972
-0.000128939
-0.000128916
-0.000128897
-0.000128888
-0.000128881
-0.000128886
-0.000128893
-0.000128911
-0.000128933
-0.000128966
-0.000129006
-0.000129051
-0.000129159
-0.000129022
-0.000130047
-0.000126928
-0.000136342
-0.000116512
-0.000134197
-0.000117299
-0.000117299
-0.141791
0.141791
0.100304
0.0529289
0.0291544
0.0178171
0.0118553
0.00830722
0.00597391
0.00437927
0.00326342
0.00239261
0.00159866
0.000841625
0.000173194
-0.000351031
-0.000722037
-0.000970502
-0.00113707
-0.00125182
-0.00133088
-0.00138217
-0.00141149
-0.00142501
-0.0014291
-0.00142909
-0.00142858
-0.00142944
-0.00143231
-0.00143709
-0.00144343
-0.0014509
-0.00145918
-0.00146804
-0.00147733
-0.00148695
-0.00149687
-0.00150706
-0.00151752
-0.00152825
-0.00153925
-0.00155053
-0.00156209
-0.00157393
-0.00158607
-0.00159848
-0.00161121
-0.00162421
-0.00163752
-0.00165111
-0.00166501
-0.00167919
-0.00169367
-0.00170844
-0.0017235
-0.00173884
-0.00175447
-0.00177038
-0.00178658
-0.00180304
-0.00181978
-0.00183678
-0.00185406
-0.00187159
-0.00188939
-0.00190742
-0.00192572
-0.00194424
-0.00196301
-0.00198199
-0.00200121
-0.00202064
-0.00204028
-0.00206011
-0.00208015
-0.00210035
-0.00212075
-0.0021413
-0.00216202
-0.00218287
-0.00220387
-0.00222499
-0.00224624
-0.00226757
-0.00228902
-0.00231053
-0.00233212
-0.00235376
-0.00237545
-0.00239715
-0.00241889
-0.00244062
-0.00246234
-0.00248403
-0.00250568
-0.00252726
-0.00254879
-0.00257021
-0.00259154
-0.00261274
-0.00263381
-0.00265471
-0.00267545
-0.002696
-0.00271634
-0.00273646
-0.00275634
-0.00277596
-0.00279531
-0.00281435
-0.0028331
-0.0028515
-0.00286957
-0.00288727
-0.00290459
-0.0029215
-0.00293801
-0.00295407
-0.00296969
-0.00298483
-0.0029995
-0.00301366
-0.00302731
-0.00304041
-0.00305298
-0.00306497
-0.0030764
-0.00308722
-0.00309744
-0.00310704
-0.00311601
-0.00312432
-0.00313198
-0.00313897
-0.00314528
-0.00315089
-0.00315582
-0.00316002
-0.00316351
-0.00316626
-0.00316829
-0.00316957
-0.00317011
-0.00316989
-0.00316893
-0.00316719
-0.0031647
-0.00316144
-0.00315742
-0.00315262
-0.00314706
-0.00314073
-0.00313364
-0.00312578
-0.00311716
-0.00310778
-0.00309766
-0.00308679
-0.00307518
-0.00306283
-0.00304976
-0.00303596
-0.00302147
-0.00300626
-0.00299038
-0.00297381
-0.00295658
-0.00293868
-0.00292015
-0.00290099
-0.00288122
-0.00286084
-0.00283988
-0.00281834
-0.00279626
-0.00277363
-0.00275049
-0.00272683
-0.0027027
-0.00267809
-0.00265304
-0.00262755
-0.00260165
-0.00257535
-0.00254869
-0.00252165
-0.0024943
-0.00246661
-0.00243864
-0.00241038
-0.00238187
-0.00235311
-0.00232415
-0.00229498
-0.00226564
-0.00223613
-0.00220649
-0.00217672
-0.00214686
-0.0021169
-0.0020869
-0.00205683
-0.00202676
-0.00199666
-0.00196658
-0.00193652
-0.00190652
-0.00187656
-0.00184669
-0.00181691
-0.00178724
-0.00175769
-0.00172828
-0.00169902
-0.00166994
-0.00164103
-0.00161232
-0.00158381
-0.00155553
-0.00152747
-0.00149967
-0.00147211
-0.00144482
-0.00141779
-0.00139106
-0.00136461
-0.00133847
-0.00131263
-0.00128712
-0.00126192
-0.00123706
-0.00121253
-0.00118835
-0.00116451
-0.00114103
-0.00111789
-0.00109513
-0.00107272
-0.00105069
-0.00102902
-0.00100773
-0.000986805
-0.000966266
-0.000946093
-0.000926308
-0.000906891
-0.000887862
-0.000869201
-0.000850928
-0.000833021
-0.0008155
-0.000798341
-0.000781566
-0.00076515
-0.000749112
-0.000733429
-0.000718119
-0.000703157
-0.000688563
-0.000674311
-0.000660419
-0.000646861
-0.000633656
-0.000620778
-0.000608243
-0.000596027
-0.000584146
-0.000572573
-0.000561326
-0.000550379
-0.000539747
-0.000529405
-0.000519368
-0.000509611
-0.000500149
-0.000490955
-0.000482047
-0.000473396
-0.000465019
-0.00045689
-0.000449025
-0.000441395
-0.000434019
-0.000426868
-0.000419959
-0.000413265
-0.000406803
-0.000400544
-0.000394507
-0.000388664
-0.000383031
-0.000377581
-0.000372332
-0.000367257
-0.000362371
-0.00035765
-0.000353109
-0.000348722
-0.000344506
-0.000340435
-0.000336526
-0.000332753
-0.000329132
-0.000325639
-0.00032229
-0.00031906
-0.000315966
-0.000312983
-0.000310128
-0.000307376
-0.000304745
-0.000302209
-0.000299786
-0.000297452
-0.000295224
-0.000293078
-0.000291032
-0.000289062
-0.000287184
-0.000285376
-0.000283656
-0.000281999
-0.000280424
-0.000278907
-0.000277467
-0.00027608
-0.000274764
-0.000273496
-0.000272296
-0.000271138
-0.000270043
-0.000268987
-0.00026799
-0.000267028
-0.00026612
-0.000265243
-0.000264417
-0.000263619
-0.000262868
-0.000262142
-0.00026146
-0.0002608
-0.000260181
-0.00025958
-0.000259018
-0.000258472
-0.000257962
-0.000257466
-0.000257004
-0.000256553
-0.000256133
-0.000255724
-0.000255344
-0.000254971
-0.000254628
-0.000254289
-0.000253978
-0.000253671
-0.00025339
-0.000253112
-0.000252859
-0.000252607
-0.000252379
-0.000252152
-0.000251948
-0.000251744
-0.000251562
-0.000251381
-0.00025122
-0.000251059
-0.000250919
-0.000250779
-0.000250659
-0.000250538
-0.000250438
-0.000250337
-0.000250257
-0.000250176
-0.000250117
-0.000250056
-0.000250018
-0.00024998
-0.000249964
-0.00024995
-0.00024996
-0.000249973
-0.000250011
-0.000250055
-0.000250128
-0.000250218
-0.000250321
-0.000250611
-0.00025018
-0.000253217
-0.000243953
-0.000272387
-0.000212247
-0.000283362
-0.000217172
-0.000217172
-0.122059
0.122059
0.121046
0.0811385
0.0526188
0.0355011
0.0251249
0.0184208
0.0137912
0.0105128
0.00814528
0.00626856
0.00457848
0.00300253
0.00162763
0.000542434
-0.000246521
-0.000797666
-0.00118232
-0.0014521
-0.0016361
-0.00175166
-0.00181412
-0.00183955
-0.00184333
-0.00183753
-0.00183003
-0.00182476
-0.00182307
-0.00182476
-0.00182917
-0.00183547
-0.00184306
-0.00185144
-0.00186038
-0.00186966
-0.00187923
-0.00188903
-0.00189906
-0.00190929
-0.00191976
-0.00193045
-0.00194141
-0.00195259
-0.00196404
-0.00197574
-0.00198772
-0.00199994
-0.00201246
-0.00202522
-0.00203828
-0.00205158
-0.00206518
-0.00207903
-0.00209316
-0.00210754
-0.0021222
-0.0021371
-0.00215229
-0.00216771
-0.0021834
-0.00219932
-0.00221551
-0.00223192
-0.00224859
-0.00226547
-0.0022826
-0.00229993
-0.0023175
-0.00233526
-0.00235325
-0.00237141
-0.00238979
-0.00240834
-0.00242708
-0.00244597
-0.00246504
-0.00248424
-0.00250361
-0.00252309
-0.00254272
-0.00256244
-0.00258228
-0.0026022
-0.00262222
-0.00264229
-0.00266244
-0.00268262
-0.00270285
-0.00272308
-0.00274334
-0.00276357
-0.0027838
-0.00280398
-0.00282413
-0.00284419
-0.0028642
-0.0028841
-0.0029039
-0.00292356
-0.0029431
-0.00296246
-0.00298166
-0.00300066
-0.00301947
-0.00303803
-0.00305638
-0.00307444
-0.00309225
-0.00310975
-0.00312695
-0.00314381
-0.00316034
-0.0031765
-0.00319229
-0.00320766
-0.00322265
-0.00323718
-0.00325128
-0.00326491
-0.00327807
-0.00329071
-0.00330287
-0.00331448
-0.00332556
-0.00333607
-0.00334603
-0.00335538
-0.00336415
-0.00337229
-0.00337982
-0.00338669
-0.00339294
-0.0033985
-0.00340341
-0.00340762
-0.00341116
-0.00341397
-0.0034161
-0.00341749
-0.00341818
-0.00341811
-0.00341733
-0.00341579
-0.00341352
-0.00341048
-0.00340671
-0.00340217
-0.00339689
-0.00339083
-0.00338404
-0.00337647
-0.00336817
-0.0033591
-0.0033493
-0.00333873
-0.00332744
-0.0033154
-0.00330265
-0.00328916
-0.00327497
-0.00326006
-0.00324447
-0.00322817
-0.00321122
-0.00319358
-0.0031753
-0.00315636
-0.00313681
-0.00311662
-0.00309585
-0.00307447
-0.00305254
-0.00303003
-0.00300699
-0.00298341
-0.00295934
-0.00293476
-0.00290972
-0.00288421
-0.00285827
-0.0028319
-0.00280514
-0.00277798
-0.00275048
-0.00272261
-0.00269444
-0.00266594
-0.00263717
-0.00260812
-0.00257884
-0.00254931
-0.00251959
-0.00248967
-0.0024596
-0.00242936
-0.00239901
-0.00236854
-0.00233799
-0.00230734
-0.00227667
-0.00224594
-0.00221521
-0.00218447
-0.00215376
-0.00212308
-0.00209246
-0.00206189
-0.00203143
-0.00200106
-0.00197082
-0.0019407
-0.00191074
-0.00188092
-0.00185131
-0.00182186
-0.00179263
-0.00176361
-0.00173483
-0.00170627
-0.00167798
-0.00164993
-0.00162217
-0.00159468
-0.0015675
-0.00154059
-0.00151402
-0.00148774
-0.00146181
-0.00143619
-0.00141093
-0.00138599
-0.00136142
-0.00133718
-0.00131333
-0.00128981
-0.00126669
-0.00124392
-0.00122154
-0.00119951
-0.00117789
-0.00115662
-0.00113576
-0.00111527
-0.00109517
-0.00107544
-0.00105611
-0.00103715
-0.00101859
-0.0010004
-0.000982599
-0.000965163
-0.000948123
-0.00093144
-0.000915149
-0.000899209
-0.000883656
-0.000868448
-0.000853621
-0.000839132
-0.000825017
-0.000811232
-0.000797813
-0.000784717
-0.000771977
-0.000759551
-0.000747474
-0.000735701
-0.000724266
-0.000713126
-0.000702314
-0.000691787
-0.000681579
-0.000671644
-0.000662017
-0.000652654
-0.000643588
-0.000634775
-0.000626248
-0.000617963
-0.000609953
-0.000602174
-0.00059466
-0.000587366
-0.000580325
-0.000573494
-0.000566906
-0.000560516
-0.000554358
-0.000548389
-0.000542641
-0.00053707
-0.000531711
-0.00052652
-0.000521529
-0.000516696
-0.000512055
-0.000507561
-0.000503249
-0.000499076
-0.000495075
-0.000491203
-0.000487495
-0.000483907
-0.000480474
-0.000477153
-0.000473978
-0.000470907
-0.000467975
-0.000465138
-0.000462433
-0.000459815
-0.000457321
-0.000454908
-0.000452611
-0.000450389
-0.000448276
-0.000446231
-0.00044429
-0.000442409
-0.000440627
-0.000438899
-0.000437263
-0.000435677
-0.000434177
-0.000432722
-0.000431348
-0.000430013
-0.000428755
-0.000427531
-0.000426379
-0.000425257
-0.000424203
-0.000423174
-0.000422209
-0.000421267
-0.000420383
-0.000419519
-0.00041871
-0.000417917
-0.000417176
-0.000416447
-0.000415767
-0.000415097
-0.000414474
-0.000413857
-0.000413284
-0.000412715
-0.000412188
-0.000411663
-0.000411178
-0.000410692
-0.000410244
-0.000409794
-0.000409381
-0.000408963
-0.000408581
-0.000408194
-0.00040784
-0.00040748
-0.000407153
-0.000406819
-0.000406518
-0.000406208
-0.00040593
-0.000405644
-0.00040539
-0.000405127
-0.000404895
-0.000404655
-0.000404447
-0.00040423
-0.000404045
-0.000403853
-0.000403693
-0.000403526
-0.000403391
-0.000403251
-0.000403145
-0.000403034
-0.000402959
-0.000402881
-0.000402841
-0.0004028
-0.000402801
-0.000402805
-0.000402854
-0.000402913
-0.000403025
-0.000403169
-0.000403334
-0.000403867
-0.000403026
-0.000408713
-0.000391697
-0.000443757
-0.000334823
-0.000488839
-0.000344007
-0.000344007
-0.0943042
0.0943042
0.120637
0.0958599
0.0702418
0.0516279
0.0388122
0.0297625
0.0230983
0.0181308
0.0143849
0.0113416
0.00860864
0.00609652
0.0039202
0.0021846
0.000881376
-7.64928e-05
-0.000782501
-0.00129884
-0.00165986
-0.00189022
-0.00201726
-0.00207183
-0.00208335
-0.00207471
-0.00206072
-0.00204892
-0.0020421
-0.00204028
-0.00204253
-0.0020476
-0.00205456
-0.00206265
-0.00207147
-0.00208069
-0.00209023
-0.00209995
-0.00210989
-0.00211999
-0.0021303
-0.00214078
-0.00215149
-0.00216241
-0.00217358
-0.00218496
-0.00219662
-0.0022085
-0.00222066
-0.00223305
-0.00224573
-0.00225864
-0.00227183
-0.00228526
-0.00229897
-0.00231292
-0.00232715
-0.0023416
-0.00235634
-0.0023713
-0.00238653
-0.00240198
-0.00241769
-0.00243362
-0.00244981
-0.0024662
-0.00248284
-0.00249967
-0.00251675
-0.00253401
-0.0025515
-0.00256915
-0.00258703
-0.00260506
-0.0026233
-0.00264168
-0.00266024
-0.00267894
-0.0026978
-0.00271677
-0.0027359
-0.00275511
-0.00277445
-0.00279387
-0.0028134
-0.00283297
-0.00285263
-0.00287231
-0.00289206
-0.00291181
-0.00293159
-0.00295135
-0.00297112
-0.00299083
-0.00301053
-0.00303014
-0.0030497
-0.00306915
-0.00308853
-0.00310776
-0.00312688
-0.00314582
-0.00316462
-0.00318322
-0.00320163
-0.00321981
-0.00323778
-0.00325546
-0.00327291
-0.00329005
-0.00330691
-0.00332342
-0.00333963
-0.00335545
-0.00337093
-0.00338599
-0.00340067
-0.00341491
-0.00342873
-0.00344207
-0.00345497
-0.00346735
-0.00347925
-0.00349061
-0.00350146
-0.00351173
-0.00352147
-0.0035306
-0.00353916
-0.00354709
-0.00355443
-0.00356112
-0.00356718
-0.00357257
-0.00357731
-0.00358135
-0.00358474
-0.0035874
-0.00358939
-0.00359064
-0.00359119
-0.003591
-0.0035901
-0.00358843
-0.00358606
-0.00358291
-0.00357904
-0.00357439
-0.00356902
-0.00356287
-0.003556
-0.00354834
-0.00353996
-0.00353081
-0.00352094
-0.00351029
-0.00349894
-0.00348683
-0.00347402
-0.00346046
-0.00344622
-0.00343125
-0.0034156
-0.00339925
-0.00338224
-0.00336454
-0.00334622
-0.00332722
-0.00330762
-0.00328738
-0.00326657
-0.00324513
-0.00322316
-0.00320059
-0.00317751
-0.00315388
-0.00312976
-0.00310512
-0.00308004
-0.00305447
-0.00302849
-0.00300205
-0.00297525
-0.00294803
-0.00292047
-0.00289254
-0.00286432
-0.00283575
-0.00280693
-0.00277781
-0.00274847
-0.00271888
-0.0026891
-0.00265911
-0.00262898
-0.00259867
-0.00256825
-0.0025377
-0.00250708
-0.00247636
-0.00244561
-0.00241481
-0.00238401
-0.00235318
-0.0023224
-0.00229162
-0.00226093
-0.00223027
-0.00219974
-0.00216927
-0.00213895
-0.00210873
-0.00207869
-0.00204878
-0.00201908
-0.00198954
-0.00196022
-0.0019311
-0.00190223
-0.00187357
-0.00184519
-0.00181705
-0.0017892
-0.00176161
-0.00173433
-0.00170733
-0.00168066
-0.00165429
-0.00162826
-0.00160254
-0.00157718
-0.00155214
-0.00152748
-0.00150315
-0.0014792
-0.00145558
-0.00143237
-0.00140949
-0.00138702
-0.0013649
-0.00134319
-0.00132182
-0.00130087
-0.00128028
-0.00126009
-0.00124027
-0.00122085
-0.0012018
-0.00118315
-0.00116486
-0.00114698
-0.00112945
-0.00111233
-0.00109556
-0.00107918
-0.00106316
-0.00104752
-0.00103223
-0.00101732
-0.00100275
-0.000988558
-0.000974691
-0.000961198
-0.00094802
-0.000935209
-0.000922704
-0.000910556
-0.000898706
-0.000887203
-0.000875988
-0.00086511
-0.00085451
-0.000844238
-0.000834232
-0.000824544
-0.000815111
-0.000805985
-0.000797105
-0.00078852
-0.00078017
-0.000772104
-0.000764262
-0.000756694
-0.000749339
-0.000742246
-0.000735356
-0.000728717
-0.000722269
-0.000716063
-0.000710038
-0.000704243
-0.000698619
-0.000693214
-0.00068797
-0.000682936
-0.000678052
-0.000673369
-0.000668826
-0.000664473
-0.000660251
-0.000656211
-0.000652292
-0.000648545
-0.000644912
-0.000641441
-0.000638076
-0.000634865
-0.00063175
-0.000628782
-0.000625902
-0.000623162
-0.000620502
-0.000617973
-0.000615518
-0.000613188
-0.000610924
-0.000608778
-0.000606691
-0.000604716
-0.000602794
-0.000600977
-0.000599208
-0.000597538
-0.000595909
-0.000594374
-0.000592876
-0.000591466
-0.000590087
-0.000588792
-0.000587523
-0.000586332
-0.000585163
-0.000584069
-0.000582992
-0.000581985
-0.000580992
-0.000580064
-0.000579146
-0.000578291
-0.000577442
-0.000576652
-0.000575864
-0.000575132
-0.000574401
-0.000573722
-0.00057304
-0.000572408
-0.000571771
-0.000571182
-0.000570585
-0.000570034
-0.000569472
-0.000568955
-0.000568426
-0.00056794
-0.00056744
-0.000566982
-0.000566509
-0.000566077
-0.000565629
-0.00056522
-0.000564796
-0.000564411
-0.000564009