# vtk DataFile Version 2.0
FlowField
ASCII
DATASET STRUCTURED_GRID
DIMENSIONS 400 1 50
POINTS 20000 float
0 0 0
0.08 0 0
0.16 0 0
0.24 0 0
0.32 0 0
0.4 0 0
0.48 0 0
0.56 0 0
0.64 0 0
0.72 0 0
0.8 0 0
0.88 0 0
0.96 0 0
1.04 0 0
1.12 0 0
1.2 0 0
1.28 0 0
1.36 0 0
1.44 0 0
1.52 0 0
1.6 0 0
1.68 0 0
1.76 0 0
1.84 0 0
1.92 0 0
2 0 0
2.08 0 0
2.16 0 0
2.24 0 0
2.32 0 0
2.4 0 0
2.48 0 0
2.56 0 0
2.64 0 0
2.72 0 0
2.8 0 0
2.88 0 0
2.96 0 0
3.04 0 0
3.12 0 0
3.2 0 0
3.28 0 0
3.36 0 0
3.44 0 0
3.52 0 0
3.6 0 0
3.68 0 0
3.76 0 0
3.84 0 0
3.92 0 0
4 0 0
4.08 0 0
4.16 0 0
4.24 0 0
4.32 0 0
4.4 0 0
4.48 0 0
4.56 0 0
4.64 0 0
4.72 0 0
4.8 0 0
4.88 0 0
4.96 0 0
5.04 0 0
5.12 0 0
5.2 0 0
5.28 0 0
5.36 0 0
5.44 0 0
5.52 0 0
5.6 0 0
5.68 0 0
5.76 0 0
5.84 0 0
5.92 0 0
6 0 0
6.08 0 0
6.16 0 0
6.24 0 0
6.32 0 0
6.4 0 0
6.48 0 0
6.56 0 0
6.64 0 0
6.72 0 0
6.8 0 0
6.88 0 0
6.96 0 0
7.04 0 0
7.12 0 0
7.2 0 0
7.28 0 0
7.36 0 0
7.44 0 0
7.52 0 0
7.6 0 0
7.68 0 0
7.76 0 0
7.84 0 0
7.92 0 0
8 0 0
8.08 0 0
8.16 0 0
8.24 0 0
8.32 0 0
8.4 0 0
8.48 0 0
8.56 0 0
8.64 0 0
8.72 0 0
8.8 0 0
8.88 0 0
8.96 0 0
9.04 0 0
9.12 0 0
9.2 0 0
9.28 0 0
9.36 0 0
9.44 0 0
9.52 0 0
9.6 0 0
9.68 0 0
9.76 0 0
9.84 0 0
9.92 0 0
10 0 0
10.08 0 0
10.16 0 0
10.24 0 0
10.32 0 0
10.4 0 0
10.48 0 0
10.56 0 0
10.64 0 0
10.72 0 0
10.8 0 0
10.88 0 0
10.96 0 0
11.04 0 0
11.12 0 0
11.2 0 0
11.28 0 0
11.36 0 0
11.44 0 0
11.52 0 0
11.6 0 0
11.68 0 0
11.76 0 0
11.84 0 0
11.92 0 0
12 0 0
12.08 0 0
12.16 0 0
12.24 0 0
12.32 0 0
12.4 0 0
12.48 0 0
12.56 0 0
12.64 0 0
12.72 0 0
12.8 0 0
12.88 0 0
12.96 0 0
13.04 0 0
13.12 0 0
13.2 0 0
13.28 0 0
13.36 0 0
13.44 0 0
13.52 0 0
13.6 0 0
13.68 0 0
13.76 0 0
13.84 0 0
13.92 0 0
14 0 0
14.08 0 0
14.16 0 0
14.24 0 0
14.32 0 0
14.4 0 0
14.48 0 0
14.56 0 0
14.64 0 0
14.72 0 0
14.8 0 0
14.88 0 0
14.96 0 0
15.04 0 0
15.12 0 0
15.2 0 0
15.28 0 0
15.36 0 0
15.44 0 0
15.52 0 0
15.6 0 0
15.68 0 0
15.76 0 0
15.84 0 0
15.92 0 0
16 0 0
16.08 0 0
16.16 0 0
16.24 0 0
16.32 0 0
16.4 0 0
16.48 0 0
16.56 0 0
16.64 0 0
16.72 0 0
16.8 0 0
16.88 0 0
16.96 0 0
17.04 0 0
17.12 0 0
17.2 0 0
17.28 0 0
17.36 0 0
17.44 0 0
17.52 0 0
17.6 0 0
17.68 0 0
17.76 0 0
17.84 0 0
17.92 0 0
18 0 0
18.08 0 0
18.16 0 0
18.24 0 0
18.32 0 0
18.4 0 0
18.48 0 0
18.56 0 0
18.64 0 0
18.72 0 0
18.8 0 0
18.88 0 0
18.96 0 0
19.04 0 0
19.12 0 0
19.2 0 0
19.28 0 0
19.36 0 0
19.44 0 0
19.52 0 0
19.6 0 0
19.68 0 0
19.76 0 0
19.84 0 0
19.92 0 0
20 0 0
20.08 0 0
20.16 0 0
20.24 0 0
20.32 0 0
20.4 0 0
20.48 0 0
20.56 0 0
20.64 0 0
20.72 0 0
20.8 0 0
20.88 0 0
20.96 0 0
21.04 0 0
21.12 0 0
21.2 0 0
21.28 0 0
21.36 0 0
21.44 0 0
21.52 0 0
21.6 0 0
21.68 0 0
21.76 0 0
21.84 0 0
21.92 0 0
22 0 0
22.08 0 0
22.16 0 0
22.24 0 0
22.32 0 0
22.4 0 0
22.48 0 0
22.56 0 0
22.64 0 0
22.72 0 0
22.8 0 0
22.88 0 0
22.96 0 0
23.04 0 0
23.12 0 0
23.2 0 0
23.28 0 0
23.36 0 0
23.44 0 0
23.52 0 0
23.6 0 0
23.68 0 0
23.76 0 0
23.84 0 0
23.92 0 0
24 0 0
24.08 0 0
24.16 0 0
24.24 0 0
24.32 0 0
24.4 0 0
24.48 0 0
24.56 0 0
24.64 0 0
24.72 0 0
24.8 0 0
24.88 0 0
24.96 0 0
25.04 0 0
25.12 0 0
25.2 0 0
25.28 0 0
25.36 0 0
25.44 0 0
25.52 0 0
25.6 0 0
25.68 0 0
25.76 0 0
25.84 0 0
25.92 0 0
26 0 0
26.08 0 0
26.16 0 0
26.24 0 0
26.32 0 0
26.4 0 0
26.48 0 0
26.56 0 0
26.64 0 0
26.72 0 0
26.8 0 0
26.88 0 0
26.96 0 0
27.04 0 0
27.12 0 0
27.2 0 0
27.28 0 0
27.36 0 0
27.44 0 0
27.52 0 0
27.6 0 0
27.68 0 0
27.76 0 0
27.84 0 0
27.92 0 0
28 0 0
28.08 0 0
28.16 0 0
28.24 0 0
28.32 0 0
28.4 0 0
28.48 0 0
28.56 0 0
28.64 0 0
28.72 0 0
28.8 0 0
28.88 0 0
28.96 0 0
29.04 0 0
29.12 0 0
29.2 0 0
29.28 0 0
29.36 0 0
29.44 0 0
29.52 0 0
29.6 0 0
29.68 0 0
29.76 0 0
29.84 0 0
29.92 0 0
30 0 0
30.08 0 0
30.16 0 0
30.24 0 0
30.32 0 0
30.4 0 0
30.48 0 0
30.56 0 0
30.64 0 0
30.72 0 0
30.8 0 0
30.88 0 0
30.96 0 0
31.04 0 0
31.12 0 0
31.2 0 0
31.28 0 0
31.36 0 0
31.44 0 0
31.52 0 0
31.6 0 0
31.68 0 0
31.76 0 0
31.84 0 0
31.92 0 0
0 0.02 0
0.08 0.02 0
0.16 0.02 0
0.24 0.02 0
0.32 0.02 0
0.4 0.02 0
0.48 0.02 0
0.56 0.02 0
0.64 0.02 0
0.72 0.02 0
0.8 0.02 0
0.88 0.02 0
0.96 0.02 0
1.04 0.02 0
1.12 0.02 0
1.2 0.02 0
1.28 0.02 0
1.36 0.02 0
1.44 0.02 0
1.52 0.02 0
1.6 0.02 0
1.68 0.02 0
1.76 0.02 0
1.84 0.02 0
1.92 0.02 0
2 0.02 0
2.08 0.02 0
2.16 0.02 0
2.24 0.02 0
2.32 0.02 0
2.4 0.02 0
2.48 0.02 0
2.56 0.02 0
2.64 0.02 0
2.72 0.02 0
2.8 0.02 0
2.88 0.02 0
2.96 0.02 0
3.04 0.02 0
3.12 0.02 0
3.2 0.02 0
3.28 0.02 0
3.36 0.02 0
3.44 0.02 0
3.52 0.02 0
3.6 0.02 0
3.68 0.02 0
3.76 0.02 0
3.84 0.02 0
3.92 0.02 0
4 0.02 0
4.08 0.02 0
4.16 0.02 0
4.24 0.02 0
4.32 0.02 0
4.4 0.02 0
4.48 0.02 0
4.56 0.02 0
4.64 0.02 0
4.72 0.02 0
4.8 0.02 0
4.88 0.02 0
4.96 0.02 0
5.04 0.02 0
5.12 0.02 0
5.2 0.02 0
5.28 0.02 0
5.36 0.02 0
5.44 0.02 0
5.52 0.02 0
5.6 0.02 0
5.68 0.02 0
5.76 0.02 0
5.84 0.02 0
5.92 0.02 0
6 0.02 0
6.08 0.02 0
6.16 0.02 0
6.24 0.02 0
6.32 0.02 0
6.4 0.02 0
6.48 0.02 0
6.56 0.02 0
6.64 0.02 0
6.72 0.02 0
6.8 0.02 0
6.88 0.02 0
6.96 0.02 0
7.04 0.02 0
7.12 0.02 0
7.2 0.02 0
7.28 0.02 0
7.36 0.02 0
7.44 0.02 0
7.52 0.02 0
7.6 0.02 0
7.68 0.02 0
7.76 0.02 0
7.84 0.02 0
7.92 0.02 0
8 0.02 0
8.08 0.02 0
8.16 0.02 0
8.24 0.02 0
8.32 0.02 0
8.4 0.02 0
8.48 0.02 0
8.56 0.02 0
8.64 0.02 0
8.72 0.02 0
8.8 0.02 0
8.88 0.02 0
8.96 0.02 0
9.04 0.02 0
9.12 0.02 0
9.2 0.02 0
9.28 0.02 0
9.36 0.02 0
9.44 0.02 0
9.52 0.02 0
9.6 0.02 0
9.68 0.02 0
9.76 0.02 0
9.84 0.02 0
9.92 0.02 0
10 0.02 0
10.08 0.02 0
10.16 0.02 0
10.24 0.02 0
10.32 0.02 0
10.4 0.02 0
10.48 0.02 0
10.56 0.02 0
10.64 0.02 0
10.72 0.02 0
10.8 0.02 0
10.88 0.02 0
10.96 0.02 0
11.04 0.02 0
11.12 0.02 0
11.2 0.02 0
11.28 0.02 0
11.36 0.02 0
11.44 0.02 0
11.52 0.02 0
11.6 0.02 0
11.68 0.02 0
11.76 0.02 0
11.84 0.02 0
11.92 0.02 0
12 0.02 0
12.08 0.02 0
12.16 0.02 0
12.24 0.02 0
12.32 0.02 0
12.4 0.02 0
12.48 0.02 0
12.56 0.02 0
12.64 0.02 0
12.72 0.02 0
12.8 0.02 0
12.88 0.02 0
12.96 0.02 0
13.04 0.02 0
13.12 0.02 0
13.2 0.02 0
13.28 0.02 0
13.36 0.02 0
13.44 0.02 0
13.52 0.02 0
13.6 0.02 0
13.68 0.02 0
13.76 0.02 0
13.84 0.02 0
13.92 0.02 0
14 0.02 0
14.08 0.02 0
14.16 0.02 0
14.24 0.02 0
14.32 0.02 0
14.4 0.02 0
14.48 0.02 0
14.56 0.02 0
14.64 0.02 0
14.72 0.02 0
14.8 0.02 0
14.88 0.02 0
14.96 0.02 0
15.04 0.02 0
15.12 0.02 0
15.2 0.02 0
15.28 0.02 0
15.36 0.02 0
15.44 0.02 0
15.52 0.02 0
15.6 0.02 0
15.68 0.02 0
15.76 0.02 0
15.84 0.02 0
15.92 0.02 0
16 0.02 0
16.08 0.02 0
16.16 0.02 0
16.24 0.02 0
16.32 0.02 0
16.4 0.02 0
16.48 0.02 0
16.56 0.02 0
16.64 0.02 0
16.72 0.02 0
16.8 0.02 0
16.88 0.02 0
16.96 0.02 0
17.04 0.02 0
17.12 0.02 0
17.2 0.02 0
17.28 0.02 0
17.36 0.02 0
17.44 0.02 0
17.52 0.02 0
17.6 0.02 0
17.68 0.02 0
17.76 0.02 0
17.84 0.02 0
17.92 0.02 0
18 0.02 0
18.08 0.02 0
18.16 0.02 0
18.24 0.02 0
18.32 0.02 0
18.4 0.02 0
18.48 0.02 0
18.56 0.02 0
18.64 0.02 0
18.72 0.02 0
18.8 0.02 0
18.88 0.02 0
18.96 0.02 0
19.04 0.02 0
19.12 0.02 0
19.2 0.02 0
19.28 0.02 0
19.36 0.02 0
19.44 0.02 0
19.52 0.02 0
19.6 0.02 0
19.68 0.02 0
19.76 0.02 0
19.84 0.02 0
19.92 0.02 0
20 0.02 0
20.08 0.02 0
20.16 0.02 0
20.24 0.02 0
20.32 0.02 0
20.4 0.02 0
20.48 0.02 0
20.56 0.02 0
20.64 0.02 0
20.72 0.02 0
20.8 0.02 0
20.88 0.02 0
20.96 0.02 0
21.04 0.02 0
21.12 0.02 0
21.2 0.02 0
21.28 0.02 0
21.36 0.02 0
21.44 0.02 0
21.52 0.02 0
21.6 0.02 0
21.68 0.02 0
21.76 0.02 0
21.84 0.02 0
21.92 0.02 0
22 0.02 0
22.08 0.02 0
22.16 0.02 0
22.24 0.02 0
22.32 0.02 0
22.4 0.02 0
22.48 0.02 0
22.56 0.02 0
22.64 0.02 0
22.72 0.02 0
22.8 0.02 0
22.88 0.02 0
22.96 0.02 0
23.04 0.02 0
23.12 0.02 0
23.2 0.02 0
23.28 0.02 0
23.36 0.02 0
23.44 0.02 0
23.52 0.02 0
23.6 0.02 0
23.68 0.02 0
23.76 0.02 0
23.84 0.02 0
23.92 0.02 0
24 0.02 0
24.08 0.02 0
24.16 0.02 0
24.24 0.02 0
24.32 0.02 0
24.4 0.02 0
24.48 0.02 0
24.56 0.02 0
24.64 0.02 0
24.72 0.02 0
24.8 0.02 0
24.88 0.02 0
24.96 0.02 0
25.04 0.02 0
25.12 0.02 0
25.2 0.02 0
25.28 0.02 0
25.36 0.02 0
25.44 0.02 0
25.52 0.02 0
25.6 0.02 0
25.68 0.02 0
25.76 0.02 0
25.84 0.02 0
25.92 0.02 0
26 0.02 0
26.08 0.02 0
26.16 0.02 0
26.24 0.02 0
26.32 0.02 0
26.4 0.02 0
26.48 0.02 0
26.56 0.02 0
26.64 0.02 0
26.72 0.02 0
26.8 0.02 0
26.88 0.02 0
26.96 0.02 0
27.04 0.02 0
27.12 0.02 0
27.2 0.02 0
27.28 0.02 0
27.36 0.02 0
27.44 0.02 0
27.52 0.02 0
27.6 0.02 0
27.68 0.02 0
27.76 0.02 0
27.84 0.02 0
27.92 0.02 0
28 0.02 0
28.08 0.02 0
28.16 0.02 0
28.24 0.02 0
28.32 0.02 0
28.4 0.02 0
28.48 0.02 0
28.56 0.02 0
28.64 0.02 0
28.72 0.02 0
28.8 0.02 0
28.88 0.02 0
28.96 0.02 0
29.04 0.02 0
29.12 0.02 0
29.2 0.02 0
29.28 0.02 0
29.36 0.02 0
29.44 0.02 0
29.52 0.02 0
29.6 0.02 0
29.68 0.02 0
29.76 0.02 0
29.84 0.02 0
29.92 0.02 0
30 0.02 0
30.08 0.02 0
30.16 0.02 0
30.24 0.02 0
30.32 0.02 0
30.4 0.02 0
30.48 0.02 0
30.56 0.02 0
30.64 0.02 0
30.72 0.02 0
30.8 0.02 0
30.88 0.02 0
30.96 0.02 0
31.04 0.02 0
31.12 0.02 0
31.2 0.02 0
31.28 0.02 0
31.36 0.02 0
31.44 0.02 0
31.52 0.02 0
31.6 0.02 0
31.68 0.02 0
31.76 0.02 0
31.84 0.02 0
31.92 0.02 0
0 0.04 0
0.08 0.04 0
0.16 0.04 0
0.24 0.04 0
0.32 0.04 0
0.4 0.04 0
0.48 0.04 0
0.56 0.04 0
0.64 0.04 0
0.72 0.04 0
0.8 0.04 0
0.88 0.04 0
0.96 0.04 0
1.04 0.04 0
1.12 0.04 0
1.2 0.04 0
1.28 0.04 0
1.36 0.04 0
1.44 0.04 0
1.52 0.04 0
1.6 0.04 0
1.68 0.04 0
1.76 0.04 0
1.84 0.04 0
1.92 0.04 0
2 0.04 0
2.08 0.04 0
2.16 0.04 0
2.24 0.04 0
2.32 0.04 0
2.4 0.04 0
2.48 0.04 0
2.56 0.04 0
2.64 0.04 0
2.72 0.04 0
2.8 0.04 0
2.88 0.04 0
2.96 0.04 0
3.04 0.04 0
3.12 0.04 0
3.2 0.04 0
3.28 0.04 0
3.36 0.04 0
3.44 0.04 0
3.52 0.04 0
3.6 0.04 0
3.68 0.04 0
3.76 0.04 0
3.84 0.04 0
3.92 0.04 0
4 0.04 0
4.08 0.04 0
4.16 0.04 0
4.24 0.04 0
4.32 0.04 0
4.4 0.04 0
4.48 0.04 0
4.56 0.04 0
4.64 0.04 0
4.72 0.04 0
4.8 0.04 0
4.88 0.04 0
4.96 0.04 0
5.04 0.04 0
5.12 0.04 0
5.2 0.04 0
5.28 0.04 0
5.36 0.04 0
5.44 0.04 0
5.52 0.04 0
5.6 0.04 0
5.68 0.04 0
5.76 0.04 0
5.84 0.04 0
5.92 0.04 0
6 0.04 0
6.08 0.04 0
6.16 0.04 0
6.24 0.04 0
6.32 0.04 0
6.4 0.04 0
6.48 0.04 0
6.56 0.04 0
6.64 0.04 0
6.72 0.04 0
6.8 0.04 0
6.88 0.04 0
6.96 0.04 0
7.04 0.04 0
7.12 0.04 0
7.2 0.04 0
7.28 0.04 0
7.36 0.04 0
7.44 0.04 0
7.52 0.04 0
7.6 0.04 0
7.68 0.04 0
7.76 0.04 0
7.84 0.04 0
[...]
POINT_DATA 20000

SCALARS u float 1
LOOKUP_TABLE default
0
-0.507066
-0.291884
-0.214118
-0.178977
-0.158611
-0.145054
-0.135299
-0.127905
-0.122075
-0.117335
-0.113383
-0.110018
-0.107104
-0.104546
-0.102272
-0.100232
-0.0983879
-0.0967084
-0.0951705
-0.0937552
-0.0924472
-0.0912338
-0.0901043
-0.0890499
-0.0880628
-0.0871364
-0.0862651
-0.0854438
-0.0846681
-0.0839343
-0.0832389
-0.0825788
-0.0819514
-0.0813542
-0.0807849
-0.0802415
-0.0797224
-0.0792258
-0.0787504
-0.0782949
-0.0778581
-0.0774388
-0.077036
-0.0766485
-0.0762757
-0.0759165
-0.0755703
-0.0752364
-0.0749144
-0.0746035
-0.0743032
-0.0740129
-0.0737321
-0.0734603
-0.0731971
-0.072942
-0.0726948
-0.0724552
-0.0722229
-0.0719978
-0.0717795
-0.0715676
-0.0713618
-0.0711616
-0.070967
-0.0707776
-0.0705934
-0.0704145
-0.0702405
-0.0700714
-0.0699067
-0.0697461
-0.0695895
-0.0694366
-0.0692874
-0.0691418
-0.0689998
-0.0688616
-0.0687271
-0.0685961
-0.0684685
-0.0683439
-0.068222
-0.0681026
-0.0679857
-0.0678715
-0.0677602
-0.0676519
-0.0675465
-0.0674436
-0.067343
-0.0672443
-0.0671473
-0.0670522
-0.0669589
-0.066868
-0.0667795
-0.0666937
-0.0666107
-0.0665301
-0.0664517
-0.0663749
-0.0662996
-0.0662258
-0.066154
-0.0660849
-0.066019
-0.0659564
-0.0658966
-0.065839
-0.0657827
-0.0657276
-0.0656737
-0.065622
-0.0655732
-0.065528
-0.0654861
-0.065447
-0.0654098
-0.0653738
-0.0653389
-0.0653053
-0.0652737
-0.0652447
-0.0652187
-0.0651955
-0.0651744
-0.0651547
-0.0651362
-0.0651185
-0.065102
-0.0650871
-0.0650742
-0.0650633
-0.0650544
-0.0650472
-0.0650412
-0.0650362
-0.065032
-0.0650288
-0.0650267
-0.0650258
-0.065026
-0.0650273
-0.0650295
-0.0650323
-0.0650357
-0.0650395
-0.0650437
-0.0650484
-0.0650538
-0.0650599
-0.0650666
-0.065074
-0.0650818
-0.0650901
-0.0650985
-0.0651071
-0.0651157
-0.0651244
-0.0651331
-0.0651419
-0.0651508
-0.0651597
-0.0651687
-0.0651778
-0.0651868
-0.0651959
-0.065205
-0.065214
-0.065223
-0.065232
-0.0652409
-0.0652498
-0.0652586
-0.0652674
-0.0652762
-0.065285
-0.0652937
-0.0653024
-0.0653111
-0.0653197
-0.0653284
-0.065337
-0.0653455
-0.065354
-0.0653625
-0.065371
-0.0653794
-0.0653878
-0.0653962
-0.0654045
-0.0654128
-0.0654211
-0.0654294
-0.0654376
-0.0654458
-0.0654539
-0.065462
-0.0654701
-0.0654782
-0.0654862
-0.0654942
-0.0655022
-0.0655101
-0.065518
-0.0655259
-0.0655337
-0.0655415
-0.0655493
-0.065557
-0.0655647
-0.0655724
-0.0655801
-0.0655877
-0.0655953
-0.0656028
-0.0656104
-0.0656179
-0.0656253
-0.0656328
-0.0656402
-0.0656475
-0.0656549
-0.0656622
-0.0656695
-0.0656767
-0.0656839
-0.0656911
-0.0656983
-0.0657054
-0.0657125
-0.0657196
-0.0657266
-0.0657336
-0.0657406
-0.0657475
-0.0657545
-0.0657613
-0.0657682
-0.065775
-0.0657818
-0.0657886
-0.0657953
-0.065802
-0.0658087
-0.0658154
-0.065822
-0.0658286
-0.0658352
-0.0658417
-0.0658482
-0.0658547
-0.0658611
-0.0658675
-0.0658739
-0.0658803
-0.0658866
-0.065893
-0.0658992
-0.0659055
-0.0659117
-0.0659179
-0.0659241
-0.0659302
-0.0659364
-0.0659425
-0.0659485
-0.0659546
-0.0659606
-0.0659666
-0.0659725
-0.0659785
-0.0659844
-0.0659903
-0.0659961
-0.066002
-0.0660078
-0.0660136
-0.0660193
-0.066025
-0.0660308
-0.0660365
-0.0660421
-0.0660478
-0.0660534
-0.066059
-0.0660645
-0.0660701
-0.0660756
-0.0660811
-0.0660866
-0.0660921
-0.0660975
-0.0661029
-0.0661083
-0.0661137
-0.066119
-0.0661244
-0.0661297
-0.066135
-0.0661402
-0.0661455
-0.0661507
-0.0661559
-0.0661611
-0.0661663
-0.0661714
-0.0661766
-0.0661817
-0.0661868
-0.0661919
-0.0661969
-0.066202
-0.066207
-0.066212
-0.066217
-0.066222
-0.066227
-0.0662319
-0.0662368
-0.0662417
-0.0662466
-0.0662515
-0.0662564
-0.0662612
-0.0662661
-0.0662709
-0.0662757
-0.0662805
-0.0662853
-0.0662901
-0.0662948
-0.0662996
-0.0663043
-0.066309
-0.0663137
-0.0663184
-0.0663231
-0.0663278
-0.0663325
-0.0663371
-0.0663418
-0.0663464
-0.066351
-0.0663556
-0.0663602
-0.0663648
-0.0663694
-0.066374
-0.0663786
-0.0663831
-0.0663877
-0.0663922
-0.0663968
-0.0664013
-0.0664058
-0.0664104
-0.0664149
-0.0664194
-0.0664239
-0.0664284
-0.0664329
-0.0664374
-0.0664419
-0.0664464
-0.0664509
-0.0664553
-0.0664598
-0.0664643
-0.0664688
-0.0664732
-0.0664778
-0.0664822
-0.0664867
-0.0664911
-0.0664957
-0.0665001
-0.0665047
-0.066509
-0.0665138
-0.066518
-0.0665229
-0.0665271
-0.066532
-0.0665361
-0.0665413
-0.0665453
-0.0665507
-0.0665545
-0.0665602
-0.0665637
-0.0665695
-0.0665731
-0.0665777
-0.0665822
-0.066578
-0.066578
-0.066578
1
0.507066
0.291884
0.214118
0.178977
0.158611
0.145054
0.135299
0.127905
0.122075
0.117335
0.113383
0.110018
0.107104
0.104546
0.102272
0.100232
0.0983879
0.0967084
0.0951705
0.0937552
0.0924472
0.0912338
0.0901043
0.0890499
0.0880628
0.0871364
0.0862651
0.0854438
0.0846681
0.0839343
0.0832389
0.0825788
0.0819514
0.0813542
0.0807849
0.0802415
0.0797224
0.0792258
0.0787504
0.0782949
0.0778581
0.0774388
0.077036
0.0766485
0.0762757
0.0759165
0.0755703
0.0752364
0.0749144
0.0746035
0.0743032
0.0740129
0.0737321
0.0734603
0.0731971
0.072942
0.0726948
0.0724552
0.0722229
0.0719978
0.0717795
0.0715676
0.0713618
0.0711616
0.070967
0.0707776
0.0705934
0.0704145
0.0702405
0.0700714
0.0699067
0.0697461
0.0695895
0.0694366
0.0692874
0.0691418
0.0689998
0.0688616
0.0687271
0.0685961
0.0684685
0.0683439
0.068222
0.0681026
0.0679857
0.0678715
0.0677602
0.0676519
0.0675465
0.0674436
0.067343
0.0672443
0.0671473
0.0670522
0.0669589
0.066868
0.0667795
0.0666937
0.0666107
0.0665301
0.0664517
0.0663749
0.0662996
0.0662258
0.066154
0.0660849
0.066019
0.0659564
0.0658966
0.065839
0.0657827
0.0657276
0.0656737
0.065622
0.0655732
0.065528
0.0654861
0.065447
0.0654098
0.0653738
0.0653389
0.0653053
0.0652737
0.0652447
0.0652187
0.0651955
0.0651744
0.0651547
0.0651362
0.0651185
0.065102
0.0650871
0.0650742
0.0650633
0.0650544
0.0650472
0.0650412
0.0650362
0.065032
0.0650288
0.0650267
0.0650258
0.065026
0.0650273
0.0650295
0.0650323
0.0650357
0.0650395
0.0650437
0.0650484
0.0650538
0.0650599
0.0650666
0.065074
0.0650818
0.0650901
0.0650985
0.0651071
0.0651157
0.0651244
0.0651331
0.0651419
0.0651508
0.0651597
0.0651687
0.0651778
0.0651868
0.0651959
0.065205
0.065214
0.065223
0.065232
0.0652409
0.0652498
0.0652586
0.0652674
0.0652762
0.065285
0.0652937
0.0653024
0.0653111
0.0653197
0.0653284
0.065337
0.0653455
0.065354
0.0653625
0.065371
0.0653794
0.0653878
0.0653962
0.0654045
0.0654128
0.0654211
0.0654294
0.0654376
0.0654458
0.0654539
0.065462
0.0654701
0.0654782
0.0654862
0.0654942
0.0655022
0.0655101
0.065518
0.0655259
0.0655337
0.0655415
0.0655493
0.065557
0.0655647
0.0655724
0.0655801
0.0655877
0.0655953
0.0656028
0.0656104
0.0656179
0.0656253
0.0656328
0.0656402
0.0656475
0.0656549
0.0656622
0.0656695
0.0656767
0.0656839
0.0656911
0.0656983
0.0657054
0.0657125
0.0657196
0.0657266
0.0657336
0.0657406
0.0657475
0.0657545
0.0657613
0.0657682
0.065775
0.0657818
0.0657886
0.0657953
0.065802
0.0658087
0.0658154
0.065822
0.0658286
0.0658352
0.0658417
0.0658482
0.0658547
0.0658611
0.0658675
0.0658739
0.0658803
0.0658866
0.065893
0.0658992
0.0659055
0.0659117
0.0659179
0.0659241
0.0659302
0.0659364
0.0659425
0.0659485
0.0659546
0.0659606
0.0659666
0.0659725
0.0659785
0.0659844
0.0659903
0.0659961
0.066002
0.0660078
0.0660136
0.0660193
0.066025
0.0660308
0.0660365
0.0660421
0.0660478
0.0660534
0.066059
0.0660645
0.0660701
0.0660756
0.0660811
0.0660866
0.0660921
0.0660975
0.0661029
0.0661083
0.0661137
0.066119
0.0661244
0.0661297
0.066135
0.0661402
0.0661455
0.0661507
0.0661559
0.0661611
0.0661663
0.0661714
0.0661766
0.0661817
0.0661868
0.0661919
0.0661969
0.066202
0.066207
0.066212
0.066217
0.066222
0.066227
0.0662319
0.0662368
0.0662417
0.0662466
0.0662515
0.0662564
0.0662612
0.0662661
0.0662709
0.0662757
0.0662805
0.0662853
0.0662901
0.0662948
0.0662996
0.0663043
0.066309
0.0663137
0.0663184
0.0663231
0.0663278
0.0663325
0.0663371
0.0663418
0.0663464
0.066351
0.0663556
0.0663602
0.0663648
0.0663694
0.066374
0.0663786
0.0663831
0.0663877
0.0663922
0.0663968
0.0664013
0.0664058
0.0664104
0.0664149
0.0664194
0.0664239
0.0664284
0.0664329
0.0664374
0.0664419
0.0664464
0.0664509
0.0664553
0.0664598
0.0664643
0.0664688
0.0664732
0.0664778
0.0664822
0.0664867
0.0664911
0.0664957
0.0665001
0.0665047
0.066509
0.0665138
0.066518
0.0665229
0.0665271
0.066532
0.0665361
0.0665413
0.0665453
0.0665507
0.0665545
0.0665602
0.0665637
0.0665695
0.0665731
0.0665777
0.0665822
0.066578
0.066578
0.066578
1
0.924255
0.735379
0.597461
0.511549
0.456219
0.418045
0.390129
0.368786
0.351892
0.338134
0.326667
0.316918
0.308494
0.301112
0.294569
0.288712
0.283426
0.278622
0.27423
0.270193
0.266467
0.263014
0.259802
0.256806
0.254002
0.251373
0.248901
0.246572
0.244373
0.242293
0.240323
0.238453
0.236676
0.234985
0.233373
0.231835
0.230366
0.228961
0.227616
0.226328
0.225092
0.223906
0.222767
0.221671
0.220616
0.219601
0.218622
0.217678
0.216767
0.215888
0.215039
0.214218
0.213424
0.212655
0.211911
0.21119
0.210492
0.209815
0.209159
0.208523
0.207905
0.207306
0.206724
0.206158
0.205607
0.205072
0.204552
0.204046
0.203554
0.203075
0.202608
0.202154
0.20171
0.201278
0.200856
0.200444
0.200043
0.199652
0.199272
0.198901
0.198539
0.198185
0.197839
0.197501
0.19717
0.196847
0.196532
0.196225
0.195926
0.195634
0.195348
0.195067
0.194792
0.194523
0.19426
0.194004
0.193755
0.193514
0.193279
0.193052
0.19283
0.192613
0.192401
0.192196
0.191996
0.191805
0.191622
0.191448
0.19128
0.191119
0.190961
0.190809
0.190662
0.190522
0.19039
0.190267
0.190152
0.190043
0.18994
0.189841
0.189745
0.189655
0.189571
0.189494
0.189425
0.189362
0.189303
0.189249
0.189198
0.189151
0.189108
0.189069
0.189036
0.189008
0.188984
0.188965
0.188948
0.188935
0.188924
0.188916
0.18891
0.188908
0.188909
0.188912
0.188917
0.188924
0.188933
0.188943
0.188954
0.188967
0.188981
0.188997
0.189015
0.189034
0.189054
0.189075
0.189096
0.189118
0.189139
0.189161
0.189183
0.189206
0.189228
0.189251
0.189274
0.189296
0.189319
0.189342
0.189365
0.189388
0.189411
0.189434
0.189456
0.189479
0.189501
0.189524
0.189546
0.189569
0.189591
0.189613
0.189636
0.189658
0.18968
0.189702
0.189724
0.189746
0.189768
0.18979
0.189812
0.189834
0.189855
0.189877
0.189899
0.18992
0.189942
0.189964
0.189985
0.190006
0.190028
0.190049
0.19007
0.190092
0.190113
0.190134
0.190155
0.190176
0.190197
0.190218
0.190239
0.19026
0.19028
0.190301
0.190322
0.190343
0.190363
0.190384
0.190404
0.190425
0.190445
0.190466
0.190486
0.190506
0.190526
0.190547
0.190567
0.190587
0.190607
0.190627
0.190647
0.190667
0.190687
0.190706
0.190726
0.190746
0.190766
0.190785
0.190805
0.190824
0.190844
0.190863
0.190883
0.190902
0.190922
0.190941
0.19096
0.190979
0.190999
0.191018
0.191037
0.191056
0.191075
0.191094
0.191113
0.191132
0.191151
0.191169
0.191188
0.191207
0.191226
0.191244
0.191263
0.191282
0.1913
0.191319
0.191337
0.191356
0.191374
0.191392
0.191411
0.191429
0.191447
0.191466
0.191484
0.191502
0.19152
0.191538
0.191556
0.191574
0.191593
0.191611
0.191628
0.191646
0.191664
0.191682
0.1917
0.191718
0.191736
0.191753
0.191771
0.191789
0.191806
0.191824
0.191842
0.191859
0.191877
0.191894
0.191912
0.191929
0.191947
0.191964
0.191982
0.191999
0.192016
0.192034
0.192051
0.192068
0.192086
0.192103
0.19212
0.192137
0.192155
0.192172
0.192189
0.192206
0.192223
0.19224
0.192257
0.192274
0.192291
0.192308
0.192325
0.192342
0.192359
0.192376
0.192393
0.19241
0.192427
0.192444
0.192461
0.192478
0.192495
0.192512
0.192528
0.192545
0.192562
0.192579
0.192596
0.192612
0.192629
0.192646
0.192663
0.192679
0.192696
0.192713
0.19273
0.192746
0.192763
0.19278
0.192796
0.192813
0.19283
0.192847
0.192863
0.19288
0.192897
0.192913
0.19293
0.192947
0.192963
0.19298
0.192997
0.193013
0.19303
0.193046
0.193063
0.19308
0.193097
0.193113
0.19313
0.193146
0.193163
0.19318
0.193197
0.193213
0.19323
0.193247
0.193264
0.19328
0.193297
0.193314
0.193331
0.193347
0.193365
0.193381
0.193399
0.193415
0.193434
0.193449
0.193468
0.193483
0.193503
0.193518
0.193538
0.193553
0.19357
0.193586
0.193588
0.193588
0.193588
1
1.07966
0.99699
0.883541
0.78856
0.716752
0.662866
0.621631
0.589268
0.563235
0.541825
0.523866
0.508542
0.495271
0.483629
0.473305
0.464061
0.45572
0.448141
0.441212
0.434846
0.428971
0.423527
0.418464
0.413742
0.409324
0.40518
0.401283
0.397613
0.394147
0.390869
0.387764
0.384817
0.382016
0.37935
0.37681
0.374386
0.37207
0.369856
0.367736
0.365706
0.363758
0.361888
0.360092
0.358365
0.356702
0.355101
0.353558
0.35207
0.350634
0.349248
0.347909
0.346615
0.345363
0.344151
0.342978
0.341842
0.340741
0.339675
0.338641
0.337638
0.336665
0.33572
0.334802
0.333909
0.333042
0.332198
0.331378
0.33058
0.329804
0.329049
0.328313
0.327596
0.326897
0.326215
0.32555
0.324902
0.32427
0.323654
0.323054
0.322469
0.321898
0.32134
0.320794
0.320261
0.319739
0.31923
0.318734
0.318249
0.317777
0.317315
0.316863
0.31642
0.315987
0.315564
0.31515
0.314748
0.314357
0.313977
0.313608
0.313249
0.3129
0.31256
0.312228
0.311907
0.311596
0.311298
0.311013
0.310739
0.310477
0.310224
0.309979
0.309742
0.309515
0.309299
0.309096
0.308906
0.308728
0.308559
0.308398
0.308244
0.308097
0.307959
0.307831
0.307714
0.307607
0.307509
0.307419
0.307335
0.307257
0.307184
0.307119
0.307061
0.307011
0.306968
0.306932
0.306901
0.306876
0.306855
0.306838
0.306825
0.306817
0.306813
0.306814
0.306818
0.306825
0.306835
0.306847
0.306862
0.306879
0.306898
0.306919
0.306943
0.30697
0.306997
0.307027
0.307057
0.307088
0.307119
0.307151
0.307182
0.307214
0.307247
0.30728
0.307313
0.307346
0.307379
0.307412
0.307446
0.307479
0.307512
0.307546
0.307579
0.307612
0.307645
0.307678
0.30771
0.307743
0.307776
0.307809
0.307842
0.307874
0.307907
0.30794
0.307972
0.308005
0.308037
0.30807
0.308102
0.308135
0.308167
0.308199
0.308231
0.308263
0.308296
0.308328
0.30836
0.308392
0.308424
0.308455
0.308487
0.308519
0.308551
0.308583
0.308614
0.308646
0.308678
0.308709
0.308741
0.308772
0.308803
0.308835
0.308866
0.308897
0.308929
0.30896
0.308991
0.309022
0.309053
0.309084
0.309115
0.309146
0.309177
0.309208
0.309239
0.30927
0.3093
0.309331
0.309362
0.309392
0.309423
0.309454
0.309484
0.309515
0.309545
0.309576
0.309606
0.309636
0.309667
0.309697
0.309727
0.309757
0.309787
0.309818
0.309848
0.309878
0.309908
0.309938
0.309968
0.309998
0.310028
0.310057
0.310087
0.310117
0.310147
0.310177
0.310206
0.310236
0.310266
0.310295
0.310325
0.310354
0.310384
0.310413
0.310443
0.310472
0.310502
0.310531
0.31056
0.31059
0.310619
0.310648
0.310677
0.310707
0.310736
0.310765
0.310794
0.310823
0.310852
0.310882
0.310911
0.31094
0.310969
0.310998
0.311027
0.311056
0.311084
0.311113
0.311142
0.311171
0.3112
0.311229
0.311258
0.311286
0.311315
0.311344
0.311373
0.311401
0.31143
0.311459
0.311487
0.311516
0.311545
0.311573
0.311602
0.311631
0.311659
0.311688
0.311716
0.311745
0.311773
0.311802
0.31183
0.311859
0.311887
0.311916
0.311944
0.311973
0.312001
0.31203
0.312058
0.312087
0.312115
0.312143
0.312172
0.3122
0.312229
0.312257
0.312285
0.312314
0.312342
0.312371
0.312399
0.312427
0.312456
0.312484
0.312512
0.312541
0.312569
0.312597
0.312626
0.312654
0.312682
0.312711
0.312739
0.312767
0.312796
0.312824
0.312852
0.312881
0.312909
0.312937
0.312966
0.312994
0.313022
0.313051
0.313079
0.313107
0.313136
0.313164
0.313192
0.313221
0.313249
0.313278
0.313306
0.313334
0.313363
0.313391
0.31342
0.313448
0.313477
0.313505
0.313533
0.313562
0.31359
0.313619
0.313648
0.313677
0.313705
0.313734
0.313762
0.313791
0.313819
0.313849
0.313877
0.313907
0.313935
0.313966
0.313993
0.314025
0.314051
0.314084
0.31411
0.314143
0.314169
0.314199
0.314225
0.314243
0.314243
0.314243
1
1.11174
1.1143
1.05546
0.984228
0.91886
0.863598
0.817988
0.78039
0.74914
0.722856
0.700462
0.68114
0.664272
0.649389
0.636133
0.624228
0.613456
0.60365
0.594671
0.586411
0.578778
0.571698
0.565109
0.558958
0.553198
0.547793
0.542708
0.537914
0.533386
0.529101
0.525039
0.521183
0.517517
0.514026
0.510699
0.507523
0.504489
0.501587
0.498808
0.496145
0.49359
0.491138
0.488781
0.486514
0.484331
0.482229
0.480203
0.478249
0.476364
0.474543
0.472785
0.471084
0.46944
0.467848
0.466307
0.464815
0.463369
0.461968
0.460609
0.459291
0.458013
0.456771
0.455564
0.454392
0.453252
0.452143
0.451065
0.450017
0.448997
0.448004
0.447037
0.446094
0.445175
0.44428
0.443406
0.442555
0.441725
0.440916
0.440127
0.439358
0.438607
0.437873
0.437156
0.436455
0.43577
0.435101
0.434448
0.433811
0.43319
0.432582
0.431988
0.431406
0.430837
0.430281
0.429739
0.429211
0.428698
0.4282
0.427716
0.427245
0.426786
0.42634
0.425907
0.425486
0.425081
0.424691
0.424318
0.42396
0.423616
0.423285
0.422966
0.422658
0.422363
0.422083
0.421819
0.421572
0.421339
0.421119
0.420909
0.420709
0.420519
0.42034
0.420175
0.420022
0.419883
0.419755
0.419637
0.419528
0.419426
0.419333
0.419248
0.419173
0.419108
0.419052
0.419005
0.418965
0.418931
0.418903
0.41888
0.418863
0.418851
0.418845
0.418844
0.418848
0.418856
0.418867
0.418882
0.418899
0.418919
0.418943
0.418969
0.418999
0.41903
0.419064
0.4191
0.419137
0.419174
0.419212
0.41925
0.419289
0.419328
0.419368
0.419407
0.419447
0.419488
0.419528
0.419569
0.41961
0.41965
0.419691
0.419731
0.419772
0.419812
0.419852
0.419892
0.419933
0.419973
0.420013
0.420053
0.420093
0.420134
0.420174
0.420214
0.420254
0.420294
0.420333
0.420373
0.420413
0.420453
0.420493
0.420533
0.420572
0.420612
0.420652
0.420691
0.420731
0.42077
0.42081
0.420849
0.420889
0.420928
0.420967
0.421007
0.421046
0.421085
0.421125
0.421164
0.421203
0.421242
0.421281
0.42132
0.421359
0.421398
0.421437
0.421476
0.421515
0.421554
0.421593
0.421632
0.421671
0.421709
0.421748
0.421787
0.421825
0.421864
0.421903
0.421941
0.42198
0.422018
0.422057
0.422095
0.422134
0.422172
0.422211
0.422249
0.422288
0.422326
0.422364
0.422402
0.422441
0.422479
0.422517
0.422555
0.422593
0.422632
0.42267
0.422708
0.422746
0.422784
0.422822
0.42286
0.422898
0.422936
0.422974
0.423012
0.42305
0.423088
0.423125
0.423163
0.423201
0.423239
0.423277
0.423314
0.423352
0.42339
0.423428
0.423465
0.423503
0.423541
0.423578
0.423616
0.423654
0.423691
0.423729
0.423766
0.423804
0.423841
0.423879
0.423916
0.423954
0.423991
0.424029
0.424066
0.424104
0.424141
0.424179
0.424216
0.424254
0.424291
0.424328
0.424366
0.424403
0.424441
0.424478
0.424515
0.424553
0.42459
0.424627
0.424665
0.424702
0.424739
0.424777
0.424814
0.424851
0.424888
0.424926
0.424963
0.425
0.425038
0.425075
0.425112
0.425149
0.425187
0.425224
0.425261
0.425298
0.425336
0.425373
0.42541
0.425447
0.425485
0.425522
0.425559
0.425596
0.425634
0.425671
0.425708
0.425745
0.425783
0.42582
0.425857
0.425894
0.425932
0.425969
0.426006
0.426044
0.426081
0.426118
0.426155
0.426193
0.42623
0.426267
0.426305
0.426342
0.426379
0.426417
0.426454
0.426491
0.426529
0.426566
0.426603
0.426641
0.426678
0.426715
0.426753
0.42679
0.426828
0.426865
0.426903
0.42694
0.426977
0.427015
0.427052
0.42709
0.427127
0.427165
0.427202
0.42724
0.427278
0.427315
0.427353
0.42739
0.427428
0.427465
0.427503
0.427541
0.427579
0.427616
0.427655
0.427692
0.427731
0.427767
0.427807
0.427843
0.427883
0.42792
0.42796
0.427996
0.428038
0.428073
0.428116
0.42815
0.428194
0.428228
0.42827
0.428302
0.428337
0.428337
0.428337
1
1.09589
1.14359
1.13391
1.09756
1.05316
1.00921
0.968985
0.933363
0.902209
0.87502
0.851215
0.830251
0.811664
0.795066
0.780142
0.766637
0.754344
0.743096
0.732755
0.723207
0.714358
0.706128
0.698451
0.691268
0.684531
0.678197
0.672229
0.666595
0.661267
0.656218
0.651428
0.646876
0.642543
0.638415
0.634477
0.630715
0.627119
0.623677
0.62038
0.617218
0.614184
0.611269
0.608467
0.605771
0.603175
0.600673
0.598261
0.595934
0.593688
0.591519
0.589422
0.587395
0.585434
0.583536
0.581698
0.579917
0.578192
0.57652
0.574899
0.573327
0.571801
0.570318
0.568878
0.567478
0.566117
0.564794
0.563507
0.562255
0.561036
0.55985
0.558695
0.557569
0.556472
0.555402
0.554359
0.553342
0.552351
0.551385
0.550443
0.549524
0.548627
0.547751
0.546894
0.546057
0.545238
0.544439
0.54366
0.542899
0.542155
0.541429
0.540719
0.540024
0.539344
0.538681
0.538034
0.537404
0.536792
0.536197
0.535618
0.535056
0.534509
0.533976
0.533459
0.532958
0.532474
0.532009
0.531564
0.531137
0.530726
0.530331
0.529949
0.529582
0.529232
0.528899
0.528585
0.52829
0.528012