# vtk DataFile Version 2.0
FlowField
ASCII
DATASET STRUCTURED_GRID
DIMENSIONS 400 1 50
POINTS 20000 float
0 0 0
0.08 0 0
0.16 0 0
0.24 0 0
0.32 0 0
0.4 0 0
0.48 0 0
0.56 0 0
0.64 0 0
0.72 0 0
0.8 0 0
0.88 0 0
0.96 0 0
1.04 0 0
1.12 0 0
1.2 0 0
1.28 0 0
1.36 0 0
1.44 0 0
1.52 0 0
1.6 0 0
1.68 0 0
1.76 0 0
1.84 0 0
1.92 0 0
2 0 0
2.08 0 0
2.16 0 0
2.24 0 0
2.32 0 0
2.4 0 0
2.48 0 0
2.56 0 0
2.64 0 0
2.72 0 0
2.8 0 0
2.88 0 0
2.96 0 0
3.04 0 0
3.12 0 0
3.2 0 0
3.28 0 0
3.36 0 0
3.44 0 0
3.52 0 0
3.6 0 0
3.68 0 0
3.76 0 0
3.84 0 0
3.92 0 0
4 0 0
4.08 0 0
4.16 0 0
4.24 0 0
4.32 0 0
4.4 0 0
4.48 0 0
4.56 0 0
4.64 0 0
4.72 0 0
4.8 0 0
4.88 0 0
4.96 0 0
5.04 0 0
5.12 0 0
5.2 0 0
5.28 0 0
5.36 0 0
5.44 0 0
5.52 0 0
5.6 0 0
5.68 0 0
5.76 0 0
5.84 0 0
5.92 0 0
6 0 0
6.08 0 0
6.16 0 0
6.24 0 0
6.32 0 0
6.4 0 0
6.48 0 0
6.56 0 0
6.64 0 0
6.72 0 0
6.8 0 0
6.88 0 0
6.96 0 0
7.04 0 0
7.12 0 0
7.2 0 0
7.28 0 0
7.36 0 0
7.44 0 0
7.52 0 0
7.6 0 0
7.68 0 0
7.76 0 0
7.84 0 0
7.92 0 0
8 0 0
8.08 0 0
8.16 0 0
8.24 0 0
8.32 0 0
8.4 0 0
8.48 0 0
8.56 0 0
8.64 0 0
8.72 0 0
8.8 0 0
8.88 0 0
8.96 0 0
9.04 0 0
9.12 0 0
9.2 0 0
9.28 0 0
9.36 0 0
9.44 0 0
9.52 0 0
9.6 0 0
9.68 0 0
9.76 0 0
9.84 0 0
9.92 0 0
10 0 0
10.08 0 0
10.16 0 0
10.24 0 0
10.32 0 0
10.4 0 0
10.48 0 0
10.56 0 0
10.64 0 0
10.72 0 0
10.8 0 0
10.88 0 0
10.96 0 0
11.04 0 0
11.12 0 0
11.2 0 0
11.28 0 0
11.36 0 0
11.44 0 0
11.52 0 0
11.6 0 0
11.68 0 0
11.76 0 0
11.84 0 0
11.92 0 0
12 0 0
12.08 0 0
12.16 0 0
12.24 0 0
12.32 0 0
12.4 0 0
12.48 0 0
12.56 0 0
12.64 0 0
12.72 0 0
12.8 0 0
12.88 0 0
12.96 0 0
13.04 0 0
13.12 0 0
13.2 0 0
13.28 0 0
13.36 0 0
13.44 0 0
13.52 0 0
13.6 0 0
13.68 0 0
13.76 0 0
13.84 0 0
13.92 0 0
14 0 0
14.08 0 0
14.16 0 0
14.24 0 0
14.32 0 0
14.4 0 0
14.48 0 0
14.56 0 0
14.64 0 0
14.72 0 0
14.8 0 0
14.88 0 0
14.96 0 0
15.04 0 0
15.12 0 0
15.2 0 0
15.28 0 0
15.36 0 0
15.44 0 0
15.52 0 0
15.6 0 0
15.68 0 0
15.76 0 0
15.84 0 0
15.92 0 0
16 0 0
16.08 0 0
16.16 0 0
16.24 0 0
16.32 0 0
16.4 0 0
16.48 0 0
16.56 0 0
16.64 0 0
16.72 0 0
16.8 0 0
16.88 0 0
16.96 0 0
17.04 0 0
17.12 0 0
17.2 0 0
17.28 0 0
17.36 0 0
17.44 0 0
17.52 0 0
17.6 0 0
17.68 0 0
17.76 0 0
17.84 0 0
17.92 0 0
18 0 0
18.08 0 0
18.16 0 0
18.24 0 0
18.32 0 0
18.4 0 0
18.48 0 0
18.56 0 0
18.64 0 0
18.72 0 0
18.8 0 0
18.88 0 0
18.96 0 0
19.04 0 0
19.12 0 0
19.2 0 0
19.28 0 0
19.36 0 0
19.44 0 0
19.52 0 0
19.6 0 0
19.68 0 0
19.76 0 0
19.84 0 0
19.92 0 0
20 0 0
20.08 0 0
20.16 0 0
20.24 0 0
20.32 0 0
20.4 0 0
20.48 0 0
20.56 0 0
20.64 0 0
20.72 0 0
20.8 0 0
20.88 0 0
20.96 0 0
21.04 0 0
21.12 0 0
21.2 0 0
21.28 0 0
21.36 0 0
21.44 0 0
21.52 0 0
21.6 0 0
21.68 0 0
21.76 0 0
21.84 0 0
21.92 0 0
22 0 0
22.08 0 0
22.16 0 0
22.24 0 0
22.32 0 0
22.4 0 0
22.48 0 0
22.56 0 0
22.64 0 0
22.72 0 0
22.8 0 0
22.88 0 0
22.96 0 0
23.04 0 0
23.12 0 0
23.2 0 0
23.28 0 0
23.36 0 0
23.44 0 0
23.52 0 0
23.6 0 0
23.68 0 0
23.76 0 0
23.84 0 0
23.92 0 0
24 0 0
24.08 0 0
24.16 0 0
24.24 0 0
24.32 0 0
24.4 0 0
24.48 0 0
24.56 0 0
24.64 0 0
24.72 0 0
24.8 0 0
24.88 0 0
24.96 0 0
25.04 0 0
25.12 0 0
25.2 0 0
25.28 0 0
25.36 0 0
25.44 0 0
25.52 0 0
25.6 0 0
25.68 0 0
25.76 0 0
25.84 0 0
25.92 0 0
26 0 0
26.08 0 0
26.16 0 0
26.24 0 0
26.32 0 0
26.4 0 0
26.48 0 0
26.56 0 0
26.64 0 0
26.72 0 0
26.8 0 0
26.88 0 0
26.96 0 0
27.04 0 0
27.12 0 0
27.2 0 0
27.28 0 0
27.36 0 0
27.44 0 0
27.52 0 0
27.6 0 0
27.68 0 0
27.76 0 0
27.84 0 0
27.92 0 0
28 0 0
28.08 0 0
28.16 0 0
28.24 0 0
28.32 0 0
28.4 0 0
28.48 0 0
28.56 0 0
28.64 0 0
28.72 0 0
28.8 0 0
28.88 0 0
28.96 0 0
29.04 0 0
29.12 0 0
29.2 0 0
29.28 0 0
29.36 0 0
29.44 0 0
29.52 0 0
29.6 0 0
29.68 0 0
29.76 0 0
29.84 0 0
29.92 0 0
30 0 0
30.08 0 0
30.16 0 0
30.24 0 0
30.32 0 0
30.4 0 0
30.48 0 0
30.56 0 0
30.64 0 0
30.72 0 0
30.8 0 0
30.88 0 0
30.96 0 0
31.04 0 0
31.12 0 0
31.2 0 0
31.28 0 0
31.36 0 0
31.44 0 0
31.52 0 0
31.6 0 0
31.68 0 0
31.76 0 0
31.84 0 0
31.92 0 0
0 0.02 0
0.08 0.02 0
0.16 0.02 0
0.24 0.02 0
0.32 0.02 0
0.4 0.02 0
0.48 0.02 0
0.56 0.02 0
0.64 0.02 0
0.72 0.02 0
0.8 0.02 0
0.88 0.02 0
0.96 0.02 0
1.04 0.02 0
1.12 0.02 0
1.2 0.02 0
1.28 0.02 0
1.36 0.02 0
1.44 0.02 0
1.52 0.02 0
1.6 0.02 0
1.68 0.02 0
1.76 0.02 0
1.84 0.02 0
1.92 0.02 0
2 0.02 0
2.08 0.02 0
2.16 0.02 0
2.24 0.02 0
2.32 0.02 0
2.4 0.02 0
2.48 0.02 0
2.56 0.02 0
2.64 0.02 0
2.72 0.02 0
2.8 0.02 0
2.88 0.02 0
2.96 0.02 0
3.04 0.02 0
3.12 0.02 0
3.2 0.02 0
3.28 0.02 0
3.36 0.02 0
3.44 0.02 0
3.52 0.02 0
3.6 0.02 0
3.68 0.02 0
3.76 0.02 0
3.84 0.02 0
3.92 0.02 0
4 0.02 0
4.08 0.02 0
4.16 0.02 0
4.24 0.02 0
4.32 0.02 0
4.4 0.02 0
4.48 0.02 0
4.56 0.02 0
4.64 0.02 0
4.72 0.02 0
4.8 0.02 0
4.88 0.02 0
4.96 0.02 0
5.04 0.02 0
5.12 0.02 0
5.2 0.02 0
5.28 0.02 0
5.36 0.02 0
5.44 0.02 0
5.52 0.02 0
5.6 0.02 0
5.68 0.02 0
5.76 0.02 0
5.84 0.02 0
5.92 0.02 0
6 0.02 0
6.08 0.02 0
6.16 0.02 0
6.24 0.02 0
6.32 0.02 0
6.4 0.02 0
6.48 0.02 0
6.56 0.02 0
6.64 0.02 0
6.72 0.02 0
6.8 0.02 0
6.88 0.02 0
6.96 0.02 0
7.04 0.02 0
7.12 0.02 0
7.2 0.02 0
7.28 0.02 0
7.36 0.02 0
7.44 0.02 0
7.52 0.02 0
7.6 0.02 0
7.68 0.02 0
7.76 0.02 0
7.84 0.02 0
7.92 0.02 0
8 0.02 0
8.08 0.02 0
8.16 0.02 0
8.24 0.02 0
8.32 0.02 0
8.4 0.02 0
8.48 0.02 0
8.56 0.02 0
8.64 0.02 0
8.72 0.02 0
8.8 0.02 0
8.88 0.02 0
8.96 0.02 0
9.04 0.02 0
9.12 0.02 0
9.2 0.02 0
9.28 0.02 0
9.36 0.02 0
9.44 0.02 0
9.52 0.02 0
9.6 0.02 0
9.68 0.02 0
9.76 0.02 0
9.84 0.02 0
9.92 0.02 0
10 0.02 0
10.08 0.02 0
10.16 0.02 0
10.24 0.02 0
10.32 0.02 0
10.4 0.02 0
10.48 0.02 0
10.56 0.02 0
10.64 0.02 0
10.72 0.02 0
10.8 0.02 0
10.88 0.02 0
10.96 0.02 0
11.04 0.02 0
11.12 0.02 0
11.2 0.02 0
11.28 0.02 0
11.36 0.02 0
11.44 0.02 0
11.52 0.02 0
11.6 0.02 0
11.68 0.02 0
11.76 0.02 0
11.84 0.02 0
11.92 0.02 0
12 0.02 0
12.08 0.02 0
12.16 0.02 0
12.24 0.02 0
12.32 0.02 0
12.4 0.02 0
12.48 0.02 0
12.56 0.02 0
12.64 0.02 0
12.72 0.02 0
12.8 0.02 0
12.88 0.02 0
12.96 0.02 0
13.04 0.02 0
13.12 0.02 0
13.2 0.02 0
13.28 0.02 0
13.36 0.02 0
13.44 0.02 0
13.52 0.02 0
13.6 0.02 0
13.68 0.02 0
13.76 0.02 0
13.84 0.02 0
13.92 0.02 0
14 0.02 0
14.08 0.02 0
14.16 0.02 0
14.24 0.02 0
14.32 0.02 0
14.4 0.02 0
14.48 0.02 0
14.56 0.02 0
14.64 0.02 0
14.72 0.02 0
14.8 0.02 0
14.88 0.02 0
14.96 0.02 0
15.04 0.02 0
15.12 0.02 0
15.2 0.02 0
15.28 0.02 0
15.36 0.02 0
15.44 0.02 0
15.52 0.02 0
15.6 0.02 0
15.68 0.02 0
15.76 0.02 0
15.84 0.02 0
15.92 0.02 0
16 0.02 0
16.08 0.02 0
16.16 0.02 0
16.24 0.02 0
16.32 0.02 0
16.4 0.02 0
16.48 0.02 0
16.56 0.02 0
16.64 0.02 0
16.72 0.02 0
16.8 0.02 0
16.88 0.02 0
16.96 0.02 0
17.04 0.02 0
17.12 0.02 0
17.2 0.02 0
17.28 0.02 0
17.36 0.02 0
17.44 0.02 0
17.52 0.02 0
17.6 0.02 0
17.68 0.02 0
17.76 0.02 0
17.84 0.02 0
17.92 0.02 0
18 0.02 0
18.08 0.02 0
18.16 0.02 0
18.24 0.02 0
18.32 0.02 0
18.4 0.02 0
18.48 0.02 0
18.56 0.02 0
18.64 0.02 0
18.72 0.02 0
18.8 0.02 0
18.88 0.02 0
18.96 0.02 0
19.04 0.02 0
19.12 0.02 0
19.2 0.02 0
19.28 0.02 0
19.36 0.02 0
19.44 0.02 0
19.52 0.02 0
19.6 0.02 0
19.68 0.02 0
19.76 0.02 0
19.84 0.02 0
19.92 0.02 0
20 0.02 0
20.08 0.02 0
20.16 0.02 0
20.24 0.02 0
20.32 0.02 0
20.4 0.02 0
20.48 0.02 0
20.56 0.02 0
20.64 0.02 0
20.72 0.02 0
20.8 0.02 0
20.88 0.02 0
20.96 0.02 0
21.04 0.02 0
21.12 0.02 0
21.2 0.02 0
21.28 0.02 0
21.36 0.02 0
21.44 0.02 0
21.52 0.02 0
21.6 0.02 0
21.68 0.02 0
21.76 0.02 0
21.84 0.02 0
21.92 0.02 0
22 0.02 0
22.08 0.02 0
22.16 0.02 0
22.24 0.02 0
22.32 0.02 0
22.4 0.02 0
22.48 0.02 0
22.56 0.02 0
22.64 0.02 0
22.72 0.02 0
22.8 0.02 0
22.88 0.02 0
22.96 0.02 0
23.04 0.02 0
23.12 0.02 0
23.2 0.02 0
23.28 0.02 0
23.36 0.02 0
23.44 0.02 0
23.52 0.02 0
23.6 0.02 0
23.68 0.02 0
23.76 0.02 0
23.84 0.02 0
23.92 0.02 0
24 0.02 0
24.08 0.02 0
24.16 0.02 0
24.24 0.02 0
24.32 0.02 0
24.4 0.02 0
24.48 0.02 0
24.56 0.02 0
24.64 0.02 0
24.72 0.02 0
24.8 0.02 0
24.88 0.02 0
24.96 0.02 0
25.04 0.02 0
25.12 0.02 0
25.2 0.02 0
25.28 0.02 0
25.36 0.02 0
25.44 0.02 0
25.52 0.02 0
25.6 0.02 0
25.68 0.02 0
25.76 0.02 0
25.84 0.02 0
25.92 0.02 0
26 0.02 0
26.08 0.02 0
26.16 0.02 0
26.24 0.02 0
26.32 0.02 0
26.4 0.02 0
26.48 0.02 0
26.56 0.02 0
26.64 0.02 0
26.72 0.02 0
26.8 0.02 0
26.88 0.02 0
26.96 0.02 0
27.04 0.02 0
27.12 0.02 0
27.2 0.02 0
27.28 0.02 0
27.36 0.02 0
27.44 0.02 0
27.52 0.02 0
27.6 0.02 0
27.68 0.02 0
27.76 0.02 0
27.84 0.02 0
27.92 0.02 0
28 0.02 0
28.08 0.02 0
28.16 0.02 0
28.24 0.02 0
28.32 0.02 0
28.4 0.02 0
28.48 0.02 0
28.56 0.02 0
28.64 0.02 0
28.72 0.02 0
28.8 0.02 0
28.88 0.02 0
28.96 0.02 0
29.04 0.02 0
29.12 0.02 0
29.2 0.02 0
29.28 0.02 0
29.36 0.02 0
29.44 0.02 0
29.52 0.02 0
29.6 0.02 0
29.68 0.02 0
29.76 0.02 0
29.84 0.02 0
29.92 0.02 0
30 0.02 0
30.08 0.02 0
30.16 0.02 0
30.24 0.02 0
30.32 0.02 0
30.4 0.02 0
30.48 0.02 0
30.56 0.02 0
30.64 0.02 0
30.72 0.02 0
30.8 0.02 0
30.88 0.02 0
30.96 0.02 0
31.04 0.02 0
31.12 0.02 0
31.2 0.02 0
31.28 0.02 0
31.36 0.02 0
31.44 0.02 0
31.52 0.02 0
31.6 0.02 0
31.68 0.02 0
31.76 0.02 0
31.84 0.02 0
31.92 0.02 0
0 0.04 0
0.08 0.04 0
0.16 0.04 0
0.24 0.04 0
0.32 0.04 0
0.4 0.04 0
0.48 0.04 0
0.56 0.04 0
0.64 0.04 0
0.72 0.04 0
0.8 0.04 0
0.88 0.04 0
0.96 0.04 0
1.04 0.04 0
1.12 0.04 0
1.2 0.04 0
1.28 0.04 0
1.36 0.04 0
1.44 0.04 0
1.52 0.04 0
1.6 0.04 0
1.68 0.04 0
1.76 0.04 0
1.84 0.04 0
1.92 0.04 0
2 0.04 0
2.08 0.04 0
2.16 0.04 0
2.24 0.04 0
2.32 0.04 0
2.4 0.04 0
2.48 0.04 0
2.56 0.04 0
2.64 0.04 0
2.72 0.04 0
2.8 0.04 0
2.88 0.04 0
2.96 0.04 0
3.04 0.04 0
3.12 0.04 0
3.2 0.04 0
3.28 0.04 0
3.36 0.04 0
3.44 0.04 0
3.52 0.04 0
3.6 0.04 0
3.68 0.04 0
3.76 0.04 0
3.84 0.04 0
3.92 0.04 0
4 0.04 0
4.08 0.04 0
4.16 0.04 0
4.24 0.04 0
4.32 0.04 0
4.4 0.04 0
4.48 0.04 0
4.56 0.04 0
4.64 0.04 0
4.72 0.04 0
4.8 0.04 0
4.88 0.04 0
4.96 0.04 0
5.04 0.04 0
5.12 0.04 0
5.2 0.04 0
5.28 0.04 0
5.36 0.04 0
5.44 0.04 0
5.52 0.04 0
5.6 0.04 0
5.68 0.04 0
5.76 0.04 0
5.84 0.04 0
5.92 0.04 0
6 0.04 0
6.08 0.04 0
6.16 0.04 0
6.24 0.04 0
6.32 0.04 0
6.4 0.04 0
6.48 0.04 0
6.56 0.04 0
6.64 0.04 0
6.72 0.04 0
6.8 0.04 0
6.88 0.04 0
6.96 0.04 0
7.04 0.04 0
7.12 0.04 0
7.2 0.04 0
7.28 0.04 0
7.36 0.04 0
7.44 0.04 0
7.52 0.04 0
7.6 0.04 0
7.68 0.04 0
7.76 0.04 0
7.84 0.04 0
[...]
POINT_DATA 20000

SCALARS p float 1
LOOKUP_TABLE default
1
195.323
195.091
195.024
194.999
194.983
194.971
194.959
194.949
194.94
194.93
194.921
194.912
194.904
194.895
194.887
194.879
194.871
194.863
194.856
194.848
194.841
194.834
194.827
194.82
194.813
194.807
194.8
194.793
194.787
194.781
194.774
194.768
194.762
194.756
194.75
194.744
194.738
194.733
194.727
194.721
194.716
194.71
194.705
194.699
194.694
194.688
194.683
194.678
194.672
194.667
194.662
194.657
194.652
194.647
194.642
194.637
194.632
194.627
194.622
194.617
194.612
194.607
194.602
194.598
194.593
194.588
194.584
194.579
194.574
194.57
194.565
194.561
194.556
194.552
194.548
194.543
194.539
194.535
194.53
194.526
194.522
194.518
194.513
194.509
194.505
194.501
194.497
194.493
194.489
194.485
194.481
194.477
194.473
194.469
194.465
194.461
194.457
194.453
194.449
194.445
194.441
194.437
194.433
194.429
194.425
194.421
194.417
194.413
194.409
194.405
194.401
194.397
194.393
194.389
194.385
194.381
194.377
194.373
194.37
194.366
194.362
194.358
194.354
194.35
194.346
194.342
194.338
194.334
194.33
194.326
194.322
194.318
194.314
194.31
194.306
194.302
194.298
194.294
194.29
194.286
194.282
194.278
194.274
194.27
194.266
194.262
194.258
194.254
194.25
194.246
194.242
194.238
194.234
194.23
194.226
194.222
194.218
194.214
194.21
194.206
194.202
194.198
194.194
194.19
194.186
194.182
194.178
194.174
194.17
194.166
194.162
194.158
194.154
194.15
194.146
194.142
194.138
194.134
194.13
194.126
194.122
194.118
194.114
194.11
194.106
194.102
194.098
194.094
194.09
194.086
194.082
194.078
194.074
194.07
194.066
194.062
194.059
194.055
194.051
194.047
194.043
194.039
194.035
194.031
194.027
194.023
194.019
194.015
194.011
194.007
194.003
193.999
193.995
193.991
193.987
193.983
193.979
193.975
193.971
193.967
193.963
193.959
193.955
193.951
193.947
193.943
193.939
193.935
193.931
193.927
193.923
193.919
193.915
193.911
193.907
193.903
193.899
193.895
193.891
193.887
193.883
193.879
193.875
193.871
193.867
193.863
193.859
193.855
193.851
193.847
193.843
193.838
193.834
193.83
193.826
193.822
193.818
193.814
193.81
193.806
193.802
193.797
193.793
193.789
193.785
193.781
193.777
193.773
193.768
193.764
193.76
193.756
193.752
193.747
193.743
193.739
193.735
193.73
193.726
193.722
193.718
193.713
193.709
193.705
193.7
193.696
193.692
193.687
193.683
193.678
193.674
193.67
193.665
193.661
193.656
193.652
193.647
193.643
193.638
193.634
193.629
193.625
193.62
193.616
193.611
193.606
193.602
193.597
193.592
193.588
193.583
193.578
193.574
193.569
193.564
193.559
193.555
193.55
193.545
193.54
193.535
193.53
193.525
193.521
193.516
193.511
193.506
193.501
193.496
193.491
193.485
193.48
193.475
193.47
193.465
193.46
193.455
193.449
193.444
193.439
193.434
193.428
193.423
193.418
193.412
193.407
193.401
193.396
193.39
193.385
193.379
193.374
193.368
193.363
193.357
193.352
193.346
193.34
193.334
193.329
193.323
193.317
193.311
193.306
193.3
193.294
193.288
193.282
193.276
193.27
193.264
193.258
193.252
193.246
193.24
193.234
193.227
193.221
193.215
193.209
193.203
193.196
193.19
193.184
193.177
193.171
193.164
193.158
193.152
193.145
193.139
193.132
193.125
193.119
193.112
193.106
193.099
193.092
0.5
195.323
195.323
195.091
195.024
194.999
194.983
194.971
194.959
194.949
194.94
194.93
194.921
194.912
194.904
194.895
194.887
194.879
194.871
194.863
194.856
194.848
194.841
194.834
194.827
194.82
194.813
194.807
194.8
194.793
194.787
194.781
194.774
194.768
194.762
194.756
194.75
194.744
194.738
194.733
194.727
194.721
194.716
194.71
194.705
194.699
194.694
194.688
194.683
194.678
194.672
194.667
194.662
194.657
194.652
194.647
194.642
194.637
194.632
194.627
194.622
194.617
194.612
194.607
194.602
194.598
194.593
194.588
194.584
194.579
194.574
194.57
194.565
194.561
194.556
194.552
194.548
194.543
194.539
194.535
194.53
194.526
194.522
194.518
194.513
194.509
194.505
194.501
194.497
194.493
194.489
194.485
194.481
194.477
194.473
194.469
194.465
194.461
194.457
194.453
194.449
194.445
194.441
194.437
194.433
194.429
194.425
194.421
194.417
194.413
194.409
194.405
194.401
194.397
194.393
194.389
194.385
194.381
194.377
194.373
194.37
194.366
194.362
194.358
194.354
194.35
194.346
194.342
194.338
194.334
194.33
194.326
194.322
194.318
194.314
194.31
194.306
194.302
194.298
194.294
194.29
194.286
194.282
194.278
194.274
194.27
194.266
194.262
194.258
194.254
194.25
194.246
194.242
194.238
194.234
194.23
194.226
194.222
194.218
194.214
194.21
194.206
194.202
194.198
194.194
194.19
194.186
194.182
194.178
194.174
194.17
194.166
194.162
194.158
194.154
194.15
194.146
194.142
194.138
194.134
194.13
194.126
194.122
194.118
194.114
194.11
194.106
194.102
194.098
194.094
194.09
194.086
194.082
194.078
194.074
194.07
194.066
194.062
194.059
194.055
194.051
194.047
194.043
194.039
194.035
194.031
194.027
194.023
194.019
194.015
194.011
194.007
194.003
193.999
193.995
193.991
193.987
193.983
193.979
193.975
193.971
193.967
193.963
193.959
193.955
193.951
193.947
193.943
193.939
193.935
193.931
193.927
193.923
193.919
193.915
193.911
193.907
193.903
193.899
193.895
193.891
193.887
193.883
193.879
193.875
193.871
193.867
193.863
193.859
193.855
193.851
193.847
193.843
193.838
193.834
193.83
193.826
193.822
193.818
193.814
193.81
193.806
193.802
193.797
193.793
193.789
193.785
193.781
193.777
193.773
193.768
193.764
193.76
193.756
193.752
193.747
193.743
193.739
193.735
193.73
193.726
193.722
193.718
193.713
193.709
193.705
193.7
193.696
193.692
193.687
193.683
193.678
193.674
193.67
193.665
193.661
193.656
193.652
193.647
193.643
193.638
193.634
193.629
193.625
193.62
193.616
193.611
193.606
193.602
193.597
193.592
193.588
193.583
193.578
193.574
193.569
193.564
193.559
193.555
193.55
193.545
193.54
193.535
193.53
193.525
193.521
193.516
193.511
193.506
193.501
193.496
193.491
193.485
193.48
193.475
193.47
193.465
193.46
193.455
193.449
193.444
193.439
193.434
193.428
193.423
193.418
193.412
193.407
193.401
193.396
193.39
193.385
193.379
193.374
193.368
193.363
193.357
193.352
193.346
193.34
193.334
193.329
193.323
193.317
193.311
193.306
193.3
193.294
193.288
193.282
193.276
193.27
193.264
193.258
193.252
193.246
193.24
193.234
193.227
193.221
193.215
193.209
193.203
193.196
193.19
193.184
193.177
193.171
193.164
193.158
193.152
193.145
193.139
193.132
193.125
193.119
193.112
193.106
193.099
193.092
193.092
195.273
195.273
195.097
195.029
195.001
194.985
194.972
194.96
194.95
194.94
194.931
194.921
194.913
194.904
194.895
194.887
194.879
194.871
194.863
194.856
194.848
194.841
194.834
194.827
194.82
194.813
194.807
194.8
194.793
194.787
194.781
194.774
194.768
194.762
194.756
194.75
194.744
194.739
194.733
194.727
194.721
194.716
194.71
194.705
194.699
194.694
194.688
194.683
194.678
194.672
194.667
194.662
194.657
194.652
194.647
194.642
194.637
194.632
194.627
194.622
194.617
194.612
194.607
194.602
194.598
194.593
194.588
194.584
194.579
194.574
194.57
194.565
194.561
194.556
194.552
194.548
194.543
194.539
194.535
194.53
194.526
194.522
194.518
194.514
194.509
194.505
194.501
194.497
194.493
194.489
194.485
194.481
194.477
194.473
194.469
194.465
194.461
194.457
194.453
194.449
194.445
194.441
194.437
194.433
194.429
194.425
194.421
194.417
194.413
194.409
194.405
194.401
194.397
194.393
194.389
194.385
194.381
194.377
194.373
194.37
194.366
194.362
194.358
194.354
194.35
194.346
194.342
194.338
194.334
194.33
194.326
194.322
194.318
194.314
194.31
194.306
194.302
194.298
194.294
194.29
194.286
194.282
194.278
194.274
194.27
194.266
194.262
194.258
194.254
194.25
194.246
194.242
194.238
194.234
194.23
194.226
194.222
194.218
194.214
194.21
194.206
194.202
194.198
194.194
194.19
194.186
194.182
194.178
194.174
194.17
194.166
194.162
194.158
194.154
194.15
194.146
194.142
194.138
194.134
194.13
194.126
194.122
194.118
194.114
194.11
194.106
194.102
194.098
194.094
194.09
194.086
194.082
194.078
194.074
194.07
194.066
194.062
194.059
194.055
194.051
194.047
194.043
194.039
194.035
194.031
194.027
194.023
194.019
194.015
194.011
194.007
194.003
193.999
193.995
193.991
193.987
193.983
193.979
193.975
193.971
193.967
193.963
193.959
193.955
193.951
193.947
193.943
193.939
193.935
193.931
193.927
193.923
193.919
193.915
193.911
193.907
193.903
193.899
193.895
193.891
193.887
193.883
193.879
193.875
193.871
193.867
193.863
193.859
193.855
193.851
193.847
193.843
193.838
193.834
193.83
193.826
193.822
193.818
193.814
193.81
193.806
193.802
193.797
193.793
193.789
193.785
193.781
193.777
193.773
193.768
193.764
193.76
193.756
193.752
193.747
193.743
193.739
193.735
193.73
193.726
193.722
193.718
193.713
193.709
193.705
193.7
193.696
193.692
193.687
193.683
193.678
193.674
193.67
193.665
193.661
193.656
193.652
193.647
193.643
193.638
193.634
193.629
193.625
193.62
193.616
193.611
193.606
193.602
193.597
193.593
193.588
193.583
193.578
193.574
193.569
193.564
193.559
193.555
193.55
193.545
193.54
193.535
193.53
193.525
193.521
193.516
193.511
193.506
193.501
193.496
193.491
193.485
193.48
193.475
193.47
193.465
193.46
193.455
193.449
193.444
193.439
193.434
193.428
193.423
193.418
193.412
193.407
193.401
193.396
193.391
193.385
193.38
193.374
193.368
193.363
193.357
193.352
193.346
193.34
193.335
193.329
193.323
193.317
193.311
193.306
193.3
193.294
193.288
193.282
193.276
193.27
193.264
193.258
193.252
193.246
193.24
193.234
193.227
193.221
193.215
193.209
193.203
193.196
193.19
193.184
193.177
193.171
193.164
193.158
193.152
193.145
193.139
193.132
193.125
193.119
193.112
193.106
193.099
193.092
193.092
195.232
195.232
195.099
195.034
195.004
194.986
194.973
194.961
194.951
194.941
194.931
194.922
194.913
194.904
194.896
194.887
194.879
194.871
194.864
194.856
194.849
194.841
194.834
194.827
194.82
194.813
194.807
194.8
194.794
194.787
194.781
194.775
194.768
194.762
194.756
194.75
194.744
194.739
194.733
194.727
194.721
194.716
194.71
194.705
194.699
194.694
194.688
194.683
194.678
194.672
194.667
194.662
194.657
194.652
194.647
194.642
194.637
194.632
194.627
194.622
194.617
194.612
194.607
194.602
194.598
194.593
194.588
194.584
194.579
194.574
194.57
194.565
194.561
194.556
194.552
194.548
194.543
194.539
194.535
194.53
194.526
194.522
194.518
194.514
194.509
194.505
194.501
194.497
194.493
194.489
194.485
194.481
194.477
194.473
194.469
194.465
194.461
194.457
194.453
194.449
194.445
194.441
194.437
194.433
194.429
194.425
194.421
194.417
194.413
194.409
194.405
194.401
194.397
194.393
194.389
194.385
194.381
194.377
194.373
194.37
194.366
194.362
194.358
194.354
194.35
194.346
194.342
194.338
194.334
194.33
194.326
194.322
194.318
194.314
194.31
194.306
194.302
194.298
194.294
194.29
194.286
194.282
194.278
194.274
194.27
194.266
194.262
194.258
194.254
194.25
194.246
194.242
194.238
194.234
194.23
194.226
194.222
194.218
194.214
194.21
194.206
194.202
194.198
194.194
194.19
194.186
194.182
194.178
194.174
194.17
194.166
194.162
194.158
194.154
194.15
194.146
194.142
194.138
194.134
194.13
194.126
194.122
194.118
194.114
194.11
194.106
194.102
194.098
194.094
194.09
194.086
194.082
194.078
194.074
194.07
194.066
194.062
194.059
194.055
194.051
194.047
194.043
194.039
194.035
194.031
194.027
194.023
194.019
194.015
194.011
194.007
194.003
193.999
193.995
193.991
193.987
193.983
193.979
193.975
193.971
193.967
193.963
193.959
193.955
193.951
193.947
193.943
193.939
193.935
193.931
193.927
193.923
193.919
193.915
193.911
193.907
193.903
193.899
193.895
193.891
193.887
193.883
193.879
193.875
193.871
193.867
193.863
193.859
193.855
193.851
193.847
193.843
193.838
193.834
193.83
193.826
193.822
193.818
193.814
193.81
193.806
193.802
193.797
193.793
193.789
193.785
193.781
193.777
193.773
193.768
193.764
193.76
193.756
193.752
193.747
193.743
193.739
193.735
193.73
193.726
193.722
193.718
193.713
193.709
193.705
193.7
193.696
193.692
193.687
193.683
193.678
193.674
193.67
193.665
193.661
193.656
193.652
193.647
193.643
193.638
193.634
193.629
193.625
193.62
193.616
193.611
193.606
193.602
193.597
193.593
193.588
193.583
193.578
193.574
193.569
193.564
193.559
193.555
193.55
193.545
193.54
193.535
193.53
193.525
193.521
193.516
193.511
193.506
193.501
193.496
193.491
193.485
193.48
193.475
193.47
193.465
193.46
193.455
193.449
193.444
193.439
193.434
193.428
193.423
193.418
193.412
193.407
193.401
193.396
193.391
193.385
193.379
193.374
193.368
193.363
193.357
193.352
193.346
193.34
193.335
193.329
193.323
193.317
193.311
193.306
193.3
193.294
193.288
193.282
193.276
193.27
193.264
193.258
193.252
193.246
193.24
193.234
193.227
193.221
193.215
193.209
193.203
193.196
193.19
193.184
193.177
193.171
193.164
193.158
193.152
193.145
193.139
193.132
193.125
193.119
193.112
193.106
193.099
193.092
193.092
195.201
195.201
195.1
195.039
195.008
194.989
194.974
194.962
194.951
194.941
194.931
194.922
194.913
194.904
194.896
194.888
194.879
194.871
194.864
194.856
194.849
194.841
194.834
194.827
194.82
194.813
194.807
194.8
194.794
194.787
194.781
194.775
194.768
194.762
194.756
194.75
194.744
194.739
194.733
194.727
194.721
194.716
194.71
194.705
194.699
194.694
194.688
194.683
194.678
194.673
194.667
194.662
194.657
194.652
194.647
194.642
194.637
194.632
194.627
194.622
194.617
194.612
194.607
194.602
194.598
194.593
194.588
194.584
194.579
194.574
194.57
194.565
194.561
194.556
194.552
194.548
194.543
194.539
194.535
194.53
194.526
194.522
194.518
194.514
194.509
194.505
194.501
194.497
194.493
194.489
194.485
194.481
194.477
194.473
194.469
194.465
194.461
194.457
194.453
194.449
194.445
194.441
194.437
194.433
194.429
194.425
194.421
194.417
194.413
194.409
194.405
194.401
194.397
194.393
194.389
194.385
194.381
194.377
194.373
194.37
194.366
194.362
194.358
194.354
194.35
194.346
194.342
194.338
194.334
194.33
194.326
194.322
194.318
194.314
194.31
194.306
194.302
194.298
194.294
194.29
194.286
194.282
194.278
194.274
194.27
194.266
194.262
194.258
194.254
194.25
194.246
194.242
194.238
194.234
194.23
194.226
194.222
194.218
194.214
194.21
194.206
194.202
194.198
194.194
194.19
194.186
194.182
194.178
194.174
194.17
194.166
194.162
194.158
194.154
194.15
194.146
194.142
194.138
194.134
194.13
194.126
194.122
194.118
194.114
194.11
194.106
194.102
194.098
194.094
194.09
194.086
194.082
194.078
194.074
194.07
194.066
194.062
194.059
194.055
194.051
194.047
194.043
194.039
194.035
194.031
194.027
194.023
194.019
194.015
194.011
194.007
194.003
193.999
193.995
193.991
193.987
193.983
193.979
193.975
193.971
193.967
193.963
193.959
193.955
193.951
193.947
193.943
193.939
193.935
193.931
193.927
193.923
193.919
193.915
193.911
193.907
193.903
193.899
193.895
193.891
193.887
193.883
193.879
193.875
193.871
193.867
193.863
193.859
193.855
193.851
193.847
193.843
193.838
193.834
193.83
193.826
193.822
193.818
193.814
193.81
193.806
193.802
193.797
193.793
193.789
193.785
193.781
193.777
193.773
193.768
193.764
193.76
193.756
193.752
193.747
193.743
193.739
193.735
193.73
193.726
193.722
193.718
193.713
193.709
193.705
193.7
193.696
193.692
193.687
193.683
193.678
193.674
193.67
193.665
193.661
193.656
193.652
193.647
193.643
193.638
193.634
193.629
193.625
193.62
193.616
193.611
193.606
193.602
193.597
193.593
193.588
193.583
193.578
193.574
193.569
193.564
193.559
193.555
193.55
193.545
193.54
193.535
193.53
193.525
193.521
193.516
193.511
193.506
193.501
193.496
193.491
193.485
193.48
193.475
193.47
193.465
193.46
193.455
193.449
193.444
193.439
193.434
193.428
193.423
193.418
193.412
193.407
193.401
193.396
193.391
193.385
193.379
193.374
193.368
193.363
193.357
193.352
193.346
193.34
193.335
193.329
193.323
193.317
193.311
193.306
193.3
193.294
193.288
193.282
193.276
193.27
193.264
193.258
193.252
193.246
193.24
193.234
193.227
193.221
193.215
193.209
193.203
193.196
193.19
193.184
193.177
193.171
193.164
193.158
193.152
193.145
193.139
193.132
193.125
193.119
193.112
193.106
193.099
193.092
193.092
195.175
195.175
195.098
195.043
195.011
194.991
194.976
194.963
194.952
194.942
194.932
194.923
194.913
194.905
194.896
194.888
194.88
194.872
194.864
194.856
194.849
194.841
194.834
194.827
194.82
194.813
194.807
194.8
194.794
194.787
194.781
194.775
194.768
194.762
194.756
194.75
194.744
194.739
194.733
194.727
194.721
194.716
194.71
194.705
194.699
194.694
194.688
194.683
194.678
194.673
194.667
194.662
194.657
194.652
194.647
194.642
194.637
194.632
194.627
194.622
194.617
194.612
194.607
194.602
194.598
194.593
194.588
194.584
194.579
194.574
194.57
194.565
194.561
194.556
194.552
194.548
194.543
194.539
194.535
194.53
194.526
194.522
194.518
194.514
194.509
194.505
194.501
194.497
194.493
194.489
194.485
194.481
194.477
194.473
194.469
194.465
194.461
194.457
194.453
194.449
194.445
194.441
194.437
194.433
194.429
194.425
194.421
194.417
194.413
194.409
194.405
194.401
194.397
194.393
194.389
194.385
194.381
194.377
194.373
194.37
194.366
194.362
194.358
194.354
194.35
194.346
194.342
194.338
194.334
194.33
194.326
194.322
194.318
194.314
194.31
194.306
194.302
194.298
194.294
194.29
194.286
194.282
194.278
194.274
194.27
194.266
194.262
194.258
194.254
194.25
194.246
194.242
194.238
194.234
194.23
194.226
194.222
194.218
194.214
194.21
194.206
194.202
194.198
194.194
194.19
194.186
194.182
194.178
194.174
194.17
194.166
194.162
194.158
194.154
194.15
194.146
194.142
194.138
194.134
194.13
194.126
194.122
194.118
194.114
194.11
194.106
194.102
194.098
194.094
194.09
194.086
194.082
194.078
194.074
194.07
194.066
194.062
194.059
194.055
194.051
194.047
194.043
194.039
194.035
194.031
194.027
194.023
194.019
194.015
194.011
194.007
194.003
193.999
193.995
193.991
193.987
193.983
193.979
193.975
193.971
193.967
193.963
193.959
193.955
193.951
193.947
193.943
193.939
193.935
193.931
193.927
193.923
193.919
193.915
193.911
193.907
193.903
193.899
193.895
193.891
193.887
193.883
193.879
193.875
193.871
193.867
193.863
193.859
193.855
193.851
193.847
193.843
193.838
193.834
193.83
193.826
193.822
193.818
193.814
193.81
193.806
193.802
193.797
193.793
193.789
193.785
193.781
193.777
193.773
193.768
193.764
193.76
193.756
193.752
193.747
193.743
193.739
193.735
193.73
193.726
193.722
193.718
193.713
193.709
193.705
193.7
193.696
193.692
193.687
193.683
193.678
193.674
193.67
193.665
193.661
193.656
193.652
193.647
193.643
193.638
193.634
193.629
193.625
193.62
193.616
193.611
193.606
193.602
193.597
193.593
193.588
193.583
193.578
193.574
193.569
193.564
193.559
193.555
193.55
193.545
193.54
193.535
193.53
193.525
193.521
193.516
193.511
193.506
193.501
193.496
193.491
193.485
193.48
193.475
193.47
193.465
193.46
193.455
193.449
193.444
193.439
193.434
193.428
193.423
193.418
193.412
193.407
193.401
193.396
193.39
193.385
193.379
193.374
193.368
193.363
193.357
193.352
193.346
193.34
193.335
193.329
193.323
193.317
193.311
193.306
193.3
193.294
193.288
193.282
193.276
193.27
193.264
193.258
193.252
193.246
193.24
193.234
193.227
193.221
193.215
193.209
193.203
193.196
193.19
193.184
193.177
193.171
193.164
193.158
193.152
193.145
193.139
193.132
193.125
193.119
193.112
193.106
193.099
193.092
193.092
195.154
195.154
195.094
195.045
195.014
194.994
194.978
194.965
194.953
194.943
194.933
194.923
194.914
194.905
194.896
194.888
194.88
194.872
194.864
194.856
194.849
194.842
194.834
194.827
194.82
194.814
194.807
194.8
194.794
194.787
194.781
194.775
194.768
194.762
194.756
194.75
194.744
194.739
194.733
194.727
194.721
194.716
194.71
194.705
194.699
194.694
194.688
194.683
194.678
194.673
194.667
194.662
194.657
194.652
194.647
194.642
194.637
194.632
194.627
194.622
194.617
194.612
194.607
194.602
194.598
194.593
194.588
194.584
194.579
194.574
194.57
194.565
194.561
194.556
194.552
194.548
194.543
194.539
194.535
194.53
194.526
194.522
194.518
194.514
194.509
194.505
194.501
194.497
194.493
194.489
194.485
194.481
194.477
194.473
194.469
194.465
194.461
194.457
194.453
194.449
194.445
194.441
194.437
194.433
194.429
194.425
194.421
194.417
194.413
194.409
194.405
194.401
194.397
194.393
194.389
194.385
194.381
194.377
194.373
194.37
194.366
194.362
194.358
194.354
194.35
194.346
194.342
194.338
194.334