# vtk DataFile Version 2.0
FlowField
ASCII
DATASET STRUCTURED_GRID
DIMENSIONS 400 1 50
POINTS 20000 float
0 0 0
0.08 0 0
0.16 0 0
0.24 0 0
0.32 0 0
0.4 0 0
0.48 0 0
0.56 0 0
0.64 0 0
0.72 0 0
0.8 0 0
0.88 0 0
0.96 0 0
1.04 0 0
1.12 0 0
1.2 0 0
1.28 0 0
1.36 0 0
1.44 0 0
1.52 0 0
1.6 0 0
1.68 0 0
1.76 0 0
1.84 0 0
1.92 0 0
2 0 0
2.08 0 0
2.16 0 0
2.24 0 0
2.32 0 0
2.4 0 0
2.48 0 0
2.56 0 0
2.64 0 0
2.72 0 0
2.8 0 0
2.88 0 0
2.96 0 0
3.04 0 0
3.12 0 0
3.2 0 0
3.28 0 0
3.36 0 0
3.44 0 0
3.52 0 0
3.6 0 0
3.68 0 0
3.76 0 0
3.84 0 0
3.92 0 0
4 0 0
4.08 0 0
4.16 0 0
4.24 0 0
4.32 0 0
4.4 0 0
4.48 0 0
4.56 0 0
4.64 0 0
4.72 0 0
4.8 0 0
4.88 0 0
4.96 0 0
5.04 0 0
5.12 0 0
5.2 0 0
5.28 0 0
5.36 0 0
5.44 0 0
5.52 0 0
5.6 0 0
5.68 0 0
5.76 0 0
5.84 0 0
5.92 0 0
6 0 0
6.08 0 0
6.16 0 0
6.24 0 0
6.32 0 0
6.4 0 0
6.48 0 0
6.56 0 0
6.64 0 0
6.72 0 0
6.8 0 0
6.88 0 0
6.96 0 0
7.04 0 0
7.12 0 0
7.2 0 0
7.28 0 0
7.36 0 0
7.44 0 0
7.52 0 0
7.6 0 0
7.68 0 0
7.76 0 0
7.84 0 0
7.92 0 0
8 0 0
8.08 0 0
8.16 0 0
8.24 0 0
8.32 0 0
8.4 0 0
8.48 0 0
8.56 0 0
8.64 0 0
8.72 0 0
8.8 0 0
8.88 0 0
8.96 0 0
9.04 0 0
9.12 0 0
9.2 0 0
9.28 0 0
9.36 0 0
9.44 0 0
9.52 0 0
9.6 0 0
9.68 0 0
9.76 0 0
9.84 0 0
9.92 0 0
10 0 0
10.08 0 0
10.16 0 0
10.24 0 0
10.32 0 0
10.4 0 0
10.48 0 0
10.56 0 0
10.64 0 0
10.72 0 0
10.8 0 0
10.88 0 0
10.96 0 0
11.04 0 0
11.12 0 0
11.2 0 0
11.28 0 0
11.36 0 0
11.44 0 0
11.52 0 0
11.6 0 0
11.68 0 0
11.76 0 0
11.84 0 0
11.92 0 0
12 0 0
12.08 0 0
12.16 0 0
12.24 0 0
12.32 0 0
12.4 0 0
12.48 0 0
12.56 0 0
12.64 0 0
12.72 0 0
12.8 0 0
12.88 0 0
12.96 0 0
13.04 0 0
13.12 0 0
13.2 0 0
13.28 0 0
13.36 0 0
13.44 0 0
13.52 0 0
13.6 0 0
13.68 0 0
13.76 0 0
13.84 0 0
13.92 0 0
14 0 0
14.08 0 0
14.16 0 0
14.24 0 0
14.32 0 0
14.4 0 0
14.48 0 0
14.56 0 0
14.64 0 0
14.72 0 0
14.8 0 0
14.88 0 0
14.96 0 0
15.04 0 0
15.12 0 0
15.2 0 0
15.28 0 0
15.36 0 0
15.44 0 0
15.52 0 0
15.6 0 0
15.68 0 0
15.76 0 0
15.84 0 0
15.92 0 0
16 0 0
16.08 0 0
16.16 0 0
16.24 0 0
16.32 0 0
16.4 0 0
16.48 0 0
16.56 0 0
16.64 0 0
16.72 0 0
16.8 0 0
16.88 0 0
16.96 0 0
17.04 0 0
17.12 0 0
17.2 0 0
17.28 0 0
17.36 0 0
17.44 0 0
17.52 0 0
17.6 0 0
17.68 0 0
17.76 0 0
17.84 0 0
17.92 0 0
18 0 0
18.08 0 0
18.16 0 0
18.24 0 0
18.32 0 0
18.4 0 0
18.48 0 0
18.56 0 0
18.64 0 0
18.72 0 0
18.8 0 0
18.88 0 0
18.96 0 0
19.04 0 0
19.12 0 0
19.2 0 0
19.28 0 0
19.36 0 0
19.44 0 0
19.52 0 0
19.6 0 0
19.68 0 0
19.76 0 0
19.84 0 0
19.92 0 0
20 0 0
20.08 0 0
20.16 0 0
20.24 0 0
20.32 0 0
20.4 0 0
20.48 0 0
20.56 0 0
20.64 0 0
20.72 0 0
20.8 0 0
20.88 0 0
20.96 0 0
21.04 0 0
21.12 0 0
21.2 0 0
21.28 0 0
21.36 0 0
21.44 0 0
21.52 0 0
21.6 0 0
21.68 0 0
21.76 0 0
21.84 0 0
21.92 0 0
22 0 0
22.08 0 0
22.16 0 0
22.24 0 0
22.32 0 0
22.4 0 0
22.48 0 0
22.56 0 0
22.64 0 0
22.72 0 0
22.8 0 0
22.88 0 0
22.96 0 0
23.04 0 0
23.12 0 0
23.2 0 0
23.28 0 0
23.36 0 0
23.44 0 0
23.52 0 0
23.6 0 0
23.68 0 0
23.76 0 0
23.84 0 0
23.92 0 0
24 0 0
24.08 0 0
24.16 0 0
24.24 0 0
24.32 0 0
24.4 0 0
24.48 0 0
24.56 0 0
24.64 0 0
24.72 0 0
24.8 0 0
24.88 0 0
24.96 0 0
25.04 0 0
25.12 0 0
25.2 0 0
25.28 0 0
25.36 0 0
25.44 0 0
25.52 0 0
25.6 0 0
25.68 0 0
25.76 0 0
25.84 0 0
25.92 0 0
26 0 0
26.08 0 0
26.16 0 0
26.24 0 0
26.32 0 0
26.4 0 0
26.48 0 0
26.56 0 0
26.64 0 0
26.72 0 0
26.8 0 0
26.88 0 0
26.96 0 0
27.04 0 0
27.12 0 0
27.2 0 0
27.28 0 0
27.36 0 0
27.44 0 0
27.52 0 0
27.6 0 0
27.68 0 0
27.76 0 0
27.84 0 0
27.92 0 0
28 0 0
28.08 0 0
28.16 0 0
28.24 0 0
28.32 0 0
28.4 0 0
28.48 0 0
28.56 0 0
28.64 0 0
28.72 0 0
28.8 0 0
28.88 0 0
28.96 0 0
29.04 0 0
29.12 0 0
29.2 0 0
29.28 0 0
29.36 0 0
29.44 0 0
29.52 0 0
29.6 0 0
29.68 0 0
29.76 0 0
29.84 0 0
29.92 0 0
30 0 0
30.08 0 0
30.16 0 0
30.24 0 0
30.32 0 0
30.4 0 0
30.48 0 0
30.56 0 0
30.64 0 0
30.72 0 0
30.8 0 0
30.88 0 0
30.96 0 0
31.04 0 0
31.12 0 0
31.2 0 0
31.28 0 0
31.36 0 0
31.44 0 0
31.52 0 0
31.6 0 0
31.68 0 0
31.76 0 0
31.84 0 0
31.92 0 0
0 0.02 0
0.08 0.02 0
0.16 0.02 0
0.24 0.02 0
0.32 0.02 0
0.4 0.02 0
0.48 0.02 0
0.56 0.02 0
0.64 0.02 0
0.72 0.02 0
0.8 0.02 0
0.88 0.02 0
0.96 0.02 0
1.04 0.02 0
1.12 0.02 0
1.2 0.02 0
1.28 0.02 0
1.36 0.02 0
1.44 0.02 0
1.52 0.02 0
1.6 0.02 0
1.68 0.02 0
1.76 0.02 0
1.84 0.02 0
1.92 0.02 0
2 0.02 0
2.08 0.02 0
2.16 0.02 0
2.24 0.02 0
2.32 0.02 0
2.4 0.02 0
2.48 0.02 0
2.56 0.02 0
2.64 0.02 0
2.72 0.02 0
2.8 0.02 0
2.88 0.02 0
2.96 0.02 0
3.04 0.02 0
3.12 0.02 0
3.2 0.02 0
3.28 0.02 0
3.36 0.02 0
3.44 0.02 0
3.52 0.02 0
3.6 0.02 0
3.68 0.02 0
3.76 0.02 0
3.84 0.02 0
3.92 0.02 0
4 0.02 0
4.08 0.02 0
4.16 0.02 0
4.24 0.02 0
4.32 0.02 0
4.4 0.02 0
4.48 0.02 0
4.56 0.02 0
4.64 0.02 0
4.72 0.02 0
4.8 0.02 0
4.88 0.02 0
4.96 0.02 0
5.04 0.02 0
5.12 0.02 0
5.2 0.02 0
5.28 0.02 0
5.36 0.02 0
5.44 0.02 0
5.52 0.02 0
5.6 0.02 0
5.68 0.02 0
5.76 0.02 0
5.84 0.02 0
5.92 0.02 0
6 0.02 0
6.08 0.02 0
6.16 0.02 0
6.24 0.02 0
6.32 0.02 0
6.4 0.02 0
6.48 0.02 0
6.56 0.02 0
6.64 0.02 0
6.72 0.02 0
6.8 0.02 0
6.88 0.02 0
6.96 0.02 0
7.04 0.02 0
7.12 0.02 0
7.2 0.02 0
7.28 0.02 0
7.36 0.02 0
7.44 0.02 0
7.52 0.02 0
7.6 0.02 0
7.68 0.02 0
7.76 0.02 0
7.84 0.02 0
7.92 0.02 0
8 0.02 0
8.08 0.02 0
8.16 0.02 0
8.24 0.02 0
8.32 0.02 0
8.4 0.02 0
8.48 0.02 0
8.56 0.02 0
8.64 0.02 0
8.72 0.02 0
8.8 0.02 0
8.88 0.02 0
8.96 0.02 0
9.04 0.02 0
9.12 0.02 0
9.2 0.02 0
9.28 0.02 0
9.36 0.02 0
9.44 0.02 0
9.52 0.02 0
9.6 0.02 0
9.68 0.02 0
9.76 0.02 0
9.84 0.02 0
9.92 0.02 0
10 0.02 0
10.08 0.02 0
10.16 0.02 0
10.24 0.02 0
10.32 0.02 0
10.4 0.02 0
10.48 0.02 0
10.56 0.02 0
10.64 0.02 0
10.72 0.02 0
10.8 0.02 0
10.88 0.02 0
10.96 0.02 0
11.04 0.02 0
11.12 0.02 0
11.2 0.02 0
11.28 0.02 0
11.36 0.02 0
11.44 0.02 0
11.52 0.02 0
11.6 0.02 0
11.68 0.02 0
11.76 0.02 0
11.84 0.02 0
11.92 0.02 0
12 0.02 0
12.08 0.02 0
12.16 0.02 0
12.24 0.02 0
12.32 0.02 0
12.4 0.02 0
12.48 0.02 0
12.56 0.02 0
12.64 0.02 0
12.72 0.02 0
12.8 0.02 0
12.88 0.02 0
12.96 0.02 0
13.04 0.02 0
13.12 0.02 0
13.2 0.02 0
13.28 0.02 0
13.36 0.02 0
13.44 0.02 0
13.52 0.02 0
13.6 0.02 0
13.68 0.02 0
13.76 0.02 0
13.84 0.02 0
13.92 0.02 0
14 0.02 0
14.08 0.02 0
14.16 0.02 0
14.24 0.02 0
14.32 0.02 0
14.4 0.02 0
14.48 0.02 0
14.56 0.02 0
14.64 0.02 0
14.72 0.02 0
14.8 0.02 0
14.88 0.02 0
14.96 0.02 0
15.04 0.02 0
15.12 0.02 0
15.2 0.02 0
15.28 0.02 0
15.36 0.02 0
15.44 0.02 0
15.52 0.02 0
15.6 0.02 0
15.68 0.02 0
15.76 0.02 0
15.84 0.02 0
15.92 0.02 0
16 0.02 0
16.08 0.02 0
16.16 0.02 0
16.24 0.02 0
16.32 0.02 0
16.4 0.02 0
16.48 0.02 0
16.56 0.02 0
16.64 0.02 0
16.72 0.02 0
16.8 0.02 0
16.88 0.02 0
16.96 0.02 0
17.04 0.02 0
17.12 0.02 0
17.2 0.02 0
17.28 0.02 0
17.36 0.02 0
17.44 0.02 0
17.52 0.02 0
17.6 0.02 0
17.68 0.02 0
17.76 0.02 0
17.84 0.02 0
17.92 0.02 0
18 0.02 0
18.08 0.02 0
18.16 0.02 0
18.24 0.02 0
18.32 0.02 0
18.4 0.02 0
18.48 0.02 0
18.56 0.02 0
18.64 0.02 0
18.72 0.02 0
18.8 0.02 0
18.88 0.02 0
18.96 0.02 0
19.04 0.02 0
19.12 0.02 0
19.2 0.02 0
19.28 0.02 0
19.36 0.02 0
19.44 0.02 0
19.52 0.02 0
19.6 0.02 0
19.68 0.02 0
19.76 0.02 0
19.84 0.02 0
19.92 0.02 0
20 0.02 0
20.08 0.02 0
20.16 0.02 0
20.24 0.02 0
20.32 0.02 0
20.4 0.02 0
20.48 0.02 0
20.56 0.02 0
20.64 0.02 0
20.72 0.02 0
20.8 0.02 0
20.88 0.02 0
20.96 0.02 0
21.04 0.02 0
21.12 0.02 0
21.2 0.02 0
21.28 0.02 0
21.36 0.02 0
21.44 0.02 0
21.52 0.02 0
21.6 0.02 0
21.68 0.02 0
21.76 0.02 0
21.84 0.02 0
21.92 0.02 0
22 0.02 0
22.08 0.02 0
22.16 0.02 0
22.24 0.02 0
22.32 0.02 0
22.4 0.02 0
22.48 0.02 0
22.56 0.02 0
22.64 0.02 0
22.72 0.02 0
22.8 0.02 0
22.88 0.02 0
22.96 0.02 0
23.04 0.02 0
23.12 0.02 0
23.2 0.02 0
23.28 0.02 0
23.36 0.02 0
23.44 0.02 0
23.52 0.02 0
23.6 0.02 0
23.68 0.02 0
23.76 0.02 0
23.84 0.02 0
23.92 0.02 0
24 0.02 0
24.08 0.02 0
24.16 0.02 0
24.24 0.02 0
24.32 0.02 0
24.4 0.02 0
24.48 0.02 0
24.56 0.02 0
24.64 0.02 0
24.72 0.02 0
24.8 0.02 0
24.88 0.02 0
24.96 0.02 0
25.04 0.02 0
25.12 0.02 0
25.2 0.02 0
25.28 0.02 0
25.36 0.02 0
25.44 0.02 0
25.52 0.02 0
25.6 0.02 0
25.68 0.02 0
25.76 0.02 0
25.84 0.02 0
25.92 0.02 0
26 0.02 0
26.08 0.02 0
26.16 0.02 0
26.24 0.02 0
26.32 0.02 0
26.4 0.02 0
26.48 0.02 0
26.56 0.02 0
26.64 0.02 0
26.72 0.02 0
26.8 0.02 0
26.88 0.02 0
26.96 0.02 0
27.04 0.02 0
27.12 0.02 0
27.2 0.02 0
27.28 0.02 0
27.36 0.02 0
27.44 0.02 0
27.52 0.02 0
27.6 0.02 0
27.68 0.02 0
27.76 0.02 0
27.84 0.02 0
27.92 0.02 0
28 0.02 0
28.08 0.02 0
28.16 0.02 0
28.24 0.02 0
28.32 0.02 0
28.4 0.02 0
28.48 0.02 0
28.56 0.02 0
28.64 0.02 0
28.72 0.02 0
28.8 0.02 0
28.88 0.02 0
28.96 0.02 0
29.04 0.02 0
29.12 0.02 0
29.2 0.02 0
29.28 0.02 0
29.36 0.02 0
29.44 0.02 0
29.52 0.02 0
29.6 0.02 0
29.68 0.02 0
29.76 0.02 0
29.84 0.02 0
29.92 0.02 0
30 0.02 0
30.08 0.02 0
30.16 0.02 0
30.24 0.02 0
30.32 0.02 0
30.4 0.02 0
30.48 0.02 0
30.56 0.02 0
30.64 0.02 0
30.72 0.02 0
30.8 0.02 0
30.88 0.02 0
30.96 0.02 0
31.04 0.02 0
31.12 0.02 0
31.2 0.02 0
31.28 0.02 0
31.36 0.02 0
31.44 0.02 0
31.52 0.02 0
31.6 0.02 0
31.68 0.02 0
31.76 0.02 0
31.84 0.02 0
31.92 0.02 0
0 0.04 0
0.08 0.04 0
0.16 0.04 0
0.24 0.04 0
0.32 0.04 0
0.4 0.04 0
0.48 0.04 0
0.56 0.04 0
0.64 0.04 0
0.72 0.04 0
0.8 0.04 0
0.88 0.04 0
0.96 0.04 0
1.04 0.04 0
1.12 0.04 0
1.2 0.04 0
1.28 0.04 0
1.36 0.04 0
1.44 0.04 0
1.52 0.04 0
1.6 0.04 0
1.68 0.04 0
1.76 0.04 0
1.84 0.04 0
1.92 0.04 0
2 0.04 0
2.08 0.04 0
2.16 0.04 0
2.24 0.04 0
2.32 0.04 0
2.4 0.04 0
2.48 0.04 0
2.56 0.04 0
2.64 0.04 0
2.72 0.04 0
2.8 0.04 0
2.88 0.04 0
2.96 0.04 0
3.04 0.04 0
3.12 0.04 0
3.2 0.04 0
3.28 0.04 0
3.36 0.04 0
3.44 0.04 0
3.52 0.04 0
3.6 0.04 0
3.68 0.04 0
3.76 0.04 0
3.84 0.04 0
3.92 0.04 0
4 0.04 0
4.08 0.04 0
4.16 0.04 0
4.24 0.04 0
4.32 0.04 0
4.4 0.04 0
4.48 0.04 0
4.56 0.04 0
4.64 0.04 0
4.72 0.04 0
4.8 0.04 0
4.88 0.04 0
4.96 0.04 0
5.04 0.04 0
5.12 0.04 0
5.2 0.04 0
5.28 0.04 0
5.36 0.04 0
5.44 0.04 0
5.52 0.04 0
5.6 0.04 0
5.68 0.04 0
5.76 0.04 0
5.84 0.04 0
5.92 0.04 0
6 0.04 0
6.08 0.04 0
6.16 0.04 0
6.24 0.04 0
6.32 0.04 0
6.4 0.04 0
6.48 0.04 0
6.56 0.04 0
6.64 0.04 0
6.72 0.04 0
6.8 0.04 0
6.88 0.04 0
6.96 0.04 0
7.04 0.04 0
7.12 0.04 0
7.2 0.04 0
7.28 0.04 0
7.36 0.04 0
7.44 0.04 0
7.52 0.04 0
7.6 0.04 0
7.68 0.04 0
7.76 0.04 0
7.84 0.04 0
[...]
POINT_DATA 20000

SCALARS v float 1
LOOKUP_TABLE default
0
0
0
0
0
0
0
0
0
0
0
0
0
0
0
0
0
0
0
0
0
0
0
0
0
0
0
0
0
0
0
0
0
0
0
0
0
0
0
0
0
0
0
0
0
0
0
0
0
0
0
0
0
0
0
0
0
0
0
0
0
0
0
0
0
0
0
0
0
0
0
0
0
0
0
0
0
0
0
0
0
0
0
0
0
0
0
0
0
0
0
0
0
0
0
0
0
0
0
0
0
0
0
0
0
0
0
0
0
0
0
0
0
0
0
0
0
0
0
0
0
0
0
0
0
0
0
0
0
0
0
0
0
0
0
0
0
0
0
0
0
0
0
0
0
0
0
0
0
0
0
0
0
0
0
0
0
0
0
0
0
0
0
0
0
0
0
0
0
0
0
0
0
0
0
0
0
0
0
0
0
0
0
0
0
0
0
0
0
0
0
0
0
0
0
0
0
0
0
0
0
0
0
0
0
0
0
0
0
0
0
0
0
0
0
0
0
0
0
0
0
0
0
0
0
0
0
0
0
0
0
0
0
0
0
0
0
0
0
0
0
0
0
0
0
0
0
0
0
0
0
0
0
0
0
0
0
0
0
0
0
0
0
0
0
0
0
0
0
0
0
0
0
0
0
0
0
0
0
0
0
0
0
0
0
0
0
0
0
0
0
0
0
0
0
0
0
0
0
0
0
0
0
0
0
0
0
0
0
0
0
0
0
0
0
0
0
0
0
0
0
0
0
0
0
0
0
0
0
0
0
0
0
0
0
0
0
0
0
0
0
0
0
0
0
0
0
0
0
0
0
0
0
0
0
0
0
0
0
0
0
0
0
0
0
0
0
0
0
0
0
0
0
0
0
0
0
0
0
0
0
0
0
0
0
0
0
0
0
0
0
0
0
0
0
0
0
0
0
0
-0.122785
0.122785
0.053322
0.0189579
0.00829684
0.00460015
0.00289548
0.00194288
0.00135153
0.000959338
0.000686443
0.000489147
0.000341812
0.000228634
0.000139498
6.77673e-05
8.99923e-06
-3.98452e-05
-8.08889e-05
-0.000115658
-0.000145355
-0.000171081
-0.000193889
-0.000214605
-0.000233587
-0.000250731
-0.000265774
-0.000278681
-0.000289786
-0.000299608
-0.000308606
-0.000317083
-0.000325268
-0.000333347
-0.000341324
-0.000348848
-0.000355286
-0.000360126
-0.000363466
-0.000366163
-0.000369445
-0.000374174
-0.000380277
-0.000386766
-0.000392366
-0.000396347
-0.000399001
-0.000401457
-0.000404977
-0.000410187
-0.000416705
-0.000423369
-0.000428873
-0.000432435
-0.000434124
-0.000434721
-0.000435248
-0.000436442
-0.000438454
-0.000440862
-0.000442957
-0.000444106
-0.00044403
-0.000442883
-0.000441144
-0.000439403
-0.000438145
-0.000437615
-0.000437796
-0.000438461
-0.000439287
-0.00043996
-0.000440249
-0.000440041
-0.000439332
-0.000438194
-0.000436737
-0.000435074
-0.000433295
-0.000431463
-0.000429614
-0.000427758
-0.000425895
-0.00042402
-0.000422126
-0.000420207
-0.000418263
-0.000416294
-0.000414303
-0.000412294
-0.00041027
-0.000408234
-0.000406188
-0.000404135
-0.000402076
-0.000400011
-0.000397941
-0.000395866
-0.000393786
-0.000391702
-0.000389614
-0.000387522
-0.000385426
-0.000383328
-0.000381226
-0.000379122
-0.000377016
-0.000374909
-0.000372799
-0.000370689
-0.000368578
-0.000366467
-0.000364356
-0.000362246
-0.000360136
-0.000358027
-0.00035592
-0.000353815
-0.000351711
-0.00034961
-0.000347512
-0.000345417
-0.000343325
-0.000341237
-0.000339153
-0.000337073
-0.000334998
-0.000332928
-0.000330863
-0.000328803
-0.000326749
-0.000324701
-0.000322659
-0.000320623
-0.000318595
-0.000316573
-0.000314559
-0.000312552
-0.000310553
-0.000308562
-0.000306579
-0.000304604
-0.000302638
-0.000300681
-0.000298733
-0.000296794
-0.000294864
-0.000292944
-0.000291034
-0.000289134
-0.000287244
-0.000285364
-0.000283495
-0.000281637
-0.000279789
-0.000277952
-0.000276127
-0.000274312
-0.000272509
-0.000270717
-0.000268937
-0.000267169
-0.000265413
-0.000263669
-0.000261936
-0.000260216
-0.000258509
-0.000256813
-0.00025513
-0.00025346
-0.000251802
-0.000250157
-0.000248525
-0.000246905
-0.000245299
-0.000243705
-0.000242125
-0.000240557
-0.000239003
-0.000237462
-0.000235934
-0.000234419
-0.000232917
-0.000231429
-0.000229954
-0.000228493
-0.000227045
-0.00022561
-0.000224188
-0.00022278
-0.000221386
-0.000220004
-0.000218636
-0.000217282
-0.000215941
-0.000214613
-0.000213298
-0.000211997
-0.000210709
-0.000209435
-0.000208174
-0.000206925
-0.00020569
-0.000204469
-0.00020326
-0.000202064
-0.000200882
-0.000199712
-0.000198556
-0.000197412
-0.000196281
-0.000195163
-0.000194058
-0.000192965
-0.000191885
-0.000190818
-0.000189763
-0.00018872
-0.00018769
-0.000186672
-0.000185667
-0.000184673
-0.000183692
-0.000182723
-0.000181765
-0.00018082
-0.000179887
-0.000178965
-0.000178055
-0.000177156
-0.000176269
-0.000175393
-0.000174529
-0.000173676
-0.000172834
-0.000172003
-0.000171184
-0.000170375
-0.000169577
-0.000168789
-0.000168013
-0.000167247
-0.000166492
-0.000165746
-0.000165012
-0.000164287
-0.000163573
-0.000162869
-0.000162174
-0.00016149
-0.000160815
-0.00016015
-0.000159495
-0.000158849
-0.000158213
-0.000157586
-0.000156968
-0.00015636
-0.000155761
-0.00015517
-0.000154589
-0.000154016
-0.000153452
-0.000152897
-0.00015235
-0.000151812
-0.000151282
-0.00015076
-0.000150247
-0.000149742
-0.000149245
-0.000148756
-0.000148275
-0.000147801
-0.000147335
-0.000146877
-0.000146427
-0.000145984
-0.000145548
-0.00014512
-0.000144699
-0.000144285
-0.000143878
-0.000143478
-0.000143085
-0.000142699
-0.00014232
-0.000141948
-0.000141582
-0.000141223
-0.00014087
-0.000140523
-0.000140183
-0.00013985
-0.000139522
-0.000139201
-0.000138885
-0.000138576
-0.000138273
-0.000137975
-0.000137684
-0.000137398
-0.000137118
-0.000136843
-0.000136574
-0.00013631
-0.000136052
-0.0001358
-0.000135552
-0.00013531
-0.000135073
-0.000134842
-0.000134615
-0.000134394
-0.000134177
-0.000133965
-0.000133759
-0.000133557
-0.00013336
-0.000133168
-0.00013298
-0.000132797
-0.000132619
-0.000132445
-0.000132276
-0.000132111
-0.00013195
-0.000131794
-0.000131643
-0.000131495
-0.000131352
-0.000131213
-0.000131079
-0.000130948
-0.000130822
-0.000130699
-0.000130581
-0.000130466
-0.000130356
-0.000130249
-0.000130147
-0.000130048
-0.000129953
-0.000129862
-0.000129774
-0.000129691
-0.000129611
-0.000129535
-0.000129462
-0.000129393
-0.000129328
-0.000129266
-0.000129208
-0.000129153
-0.000129102
-0.000129054
-0.00012901
-0.000128969
-0.000128931
-0.000128897
-0.000128866
-0.000128839
-0.000128815
-0.000128795
-0.000128776
-0.000128765
-0.000128751
-0.000128749
-0.000128736
-0.000128749
-0.000128733
-0.000128764
-0.00012874
-0.000128797
-0.000128756
-0.000128848
-0.000128779
-0.000128925
-0.000128798
-0.000129041
-0.000128799
-0.000129217
-0.000128764
-0.000129462
-0.000128701
-0.000129756
-0.000128645
-0.00013007
-0.000128599
-0.000130467
-0.000128368
-0.000131366
-0.000127154
-0.000133963
-0.000123347
-0.000138807
-0.000118603
-0.000129145
-0.000117587
-0.000117587
-0.141732
0.141732
0.100509
0.0534053
0.0297409
0.0183949
0.0123964
0.00887492
0.00663699
0.0051308
0.00407182
0.00330026
0.00272078
0.00227398
0.00192157
0.00163817
0.00140646
0.00121428
0.00105289
0.000915864
0.000798163
0.000695516
0.000604287
0.000521896
0.000447203
0.000380217
0.000321136
0.000269423
0.000223675
0.000182217
0.000143736
0.000107396
7.25911e-05
3.89075e-05
6.50524e-06
-2.35547e-05
-4.97133e-05
-7.1095e-05
-8.86458e-05
-0.000105179
-0.000124005
-0.000146957
-0.000173188
-0.000199687
-0.000223245
-0.000242565
-0.000259124
-0.000276211
-0.000296826
-0.000321779
-0.000349147
-0.000375298
-0.000396814
-0.000412161
-0.000422236
-0.000429636
-0.0004372
-0.000446639
-0.000457923
-0.000469586
-0.000479643
-0.000486602
-0.000490102
-0.000490959
-0.000490732
-0.00049107
-0.000493149
-0.000497385
-0.000503444
-0.000510493
-0.000517529
-0.000523673
-0.000528361
-0.000531389
-0.000532858
-0.000533066
-0.000532381
-0.000531149
-0.000529635
-0.000528011
-0.000526362
-0.000524713
-0.000523055
-0.000521368
-0.000519632
-0.000517835
-0.000515976
-0.000514059
-0.000512093
-0.00051009
-0.000508059
-0.000506008
-0.000503945
-0.000501873
-0.000499795
-0.000497712
-0.000495625
-0.000493533
-0.000491437
-0.000489337
-0.000487233
-0.000485124
-0.000483011
-0.000480895
-0.000478774
-0.00047665
-0.000474523
-0.000472394
-0.000470262
-0.000468129
-0.000465993
-0.000463857
-0.00046172
-0.000459583
-0.000457446
-0.000455309
-0.000453172
-0.000451037
-0.000448902
-0.00044677
-0.000444639
-0.000442511
-0.000440385
-0.000438262
-0.000436142
-0.000434026
-0.000431914
-0.000429805
-0.000427701
-0.000425602
-0.000423507
-0.000421418
-0.000419334
-0.000417256
-0.000415184
-0.000413118
-0.000411059
-0.000409006
-0.000406961
-0.000404922
-0.000402891
-0.000400868
-0.000398853
-0.000396845
-0.000394847
-0.000392856
-0.000390874
-0.000388902
-0.000386938
-0.000384984
-0.000383039
-0.000381104
-0.000379178
-0.000377263
-0.000375358
-0.000373463
-0.000371579
-0.000369705
-0.000367842
-0.00036599
-0.00036415
-0.00036232
-0.000360501
-0.000358695
-0.000356899
-0.000355115
-0.000353343
-0.000351583
-0.000349835
-0.000348099
-0.000346375
-0.000344664
-0.000342964
-0.000341278
-0.000339603
-0.000337941
-0.000336292
-0.000334655
-0.000333032
-0.000331421
-0.000329822
-0.000328237
-0.000326665
-0.000325105
-0.000323559
-0.000322026
-0.000320505
-0.000318998
-0.000317504
-0.000316023
-0.000314555
-0.000313101
-0.000311659
-0.000310231
-0.000308816
-0.000307414
-0.000306025
-0.000304649
-0.000303287
-0.000301937
-0.000300601
-0.000299278
-0.000297968
-0.000296671
-0.000295387
-0.000294116
-0.000292858
-0.000291613
-0.00029038
-0.000289161
-0.000287955
-0.000286761
-0.00028558
-0.000284412
-0.000283257
-0.000282114
-0.000280983
-0.000279866
-0.00027876
-0.000277667
-0.000276587
-0.000275519
-0.000274462
-0.000273419
-0.000272387
-0.000271367
-0.000270359
-0.000269363
-0.000268379
-0.000267407
-0.000266447
-0.000265498
-0.000264561
-0.000263635
-0.00026272
-0.000261817
-0.000260926
-0.000260045
-0.000259176
-0.000258317
-0.00025747
-0.000256633
-0.000255808
-0.000254993
-0.000254188
-0.000253395
-0.000252611
-0.000251839
-0.000251076
-0.000250324
-0.000249582
-0.00024885
-0.000248128
-0.000247416
-0.000246714
-0.000246022
-0.000245339
-0.000244666
-0.000244003
-0.000243349
-0.000242704
-0.000242069
-0.000241443
-0.000240826
-0.000240218
-0.000239619
-0.000239029
-0.000238447
-0.000237875
-0.000237311
-0.000236756
-0.000236209
-0.00023567
-0.00023514
-0.000234619
-0.000234105
-0.0002336
-0.000233102
-0.000232613
-0.000232131
-0.000231657
-0.000231191
-0.000230733
-0.000230282
-0.000229839
-0.000229403
-0.000228975
-0.000228554
-0.00022814
-0.000227734
-0.000227334
-0.000226942
-0.000226556
-0.000226178
-0.000225806
-0.000225441
-0.000225083
-0.000224731
-0.000224386
-0.000224048
-0.000223716
-0.000223391
-0.000223071
-0.000222758
-0.000222452
-0.000222151
-0.000221857
-0.000221569
-0.000221286
-0.00022101
-0.00022074
-0.000220475
-0.000220216
-0.000219963
-0.000219716
-0.000219474
-0.000219238
-0.000219007
-0.000218782
-0.000218563
-0.000218348
-0.000218139
-0.000217936
-0.000217737
-0.000217544
-0.000217356
-0.000217174
-0.000216996
-0.000216823
-0.000216656
-0.000216493
-0.000216335
-0.000216182
-0.000216034
-0.000215891
-0.000215753
-0.000215619
-0.00021549
-0.000215366
-0.000215246
-0.000215131
-0.000215021
-0.000214915
-0.000214814
-0.000214717
-0.000214624
-0.000214536
-0.000214453
-0.000214373
-0.000214298
-0.000214228
-0.000214161
-0.000214099
-0.000214041
-0.000213988
-0.000213939
-0.000213893
-0.000213852
-0.000213815
-0.000213783
-0.000213753
-0.00021373
-0.000213708
-0.000213695
-0.000213677
-0.000213677
-0.000213661
-0.00021368
-0.000213657
-0.000213705
-0.000213661
-0.000213757
-0.000213673
-0.000213839
-0.00021369
-0.000213955
-0.000213703
-0.000214126
-0.000213684
-0.000214399
-0.000213579
-0.000214839
-0.000213338
-0.000215477
-0.000212985
-0.000216248
-0.000212639
-0.000217053
-0.000212316
-0.000218101
-0.000211407
-0.000220684
-0.000207484
-0.000228485
-0.000195653
-0.000243437
-0.000180852
-0.000223673
-0.000183271
-0.000183271
-0.12185
0.12185
0.12116
0.0817528
0.0534778
0.0363401
0.025858
0.0191694
0.0147097
0.0116187
0.00940287
0.00776632
0.00652485
0.00556061
0.00479633
0.0041801
0.00367589
0.00325782
0.00290683
0.00260854
0.00235169
0.00212709
0.0019274
0.00174774
0.00158591
0.00144142
0.00131375
0.001201
0.00110001
0.0010076
0.000921481
0.000840306
0.000763138
0.000689392
0.000619461
0.000555107
0.000498604
0.000450737
0.000409136
0.0003686
0.000323642
0.000271724
0.00021486
0.000158296
0.000107028
6.24607e-05
2.14728e-05
-2.1524e-05
-7.09201e-05
-0.000126994
-0.000185486
-0.000239787
-0.000284321
-0.000317178
-0.00034064
-0.00035959
-0.000378871
-0.000401066
-0.000425708
-0.000450053
-0.000470799
-0.000485775
-0.00049487
-0.000499925
-0.000503832
-0.000509376
-0.000518314
-0.000530987
-0.00054646
-0.000563038
-0.000578872
-0.000592465
-0.000602954
-0.000610144
-0.000614374
-0.000616289
-0.000616617
-0.000616005
-0.000614932
-0.000613692
-0.000612423
-0.000611158
-0.000609874
-0.000608529
-0.000607091
-0.00060554
-0.000603877
-0.000602113
-0.000600268
-0.000598361
-0.000596412
-0.000594437
-0.000592446
-0.000590447
-0.000588443
-0.000586438
-0.00058443
-0.00058242
-0.000580407
-0.000578391
-0.000576371
-0.000574348
-0.00057232
-0.000570288
-0.000568252
-0.000566213
-0.000564171
-0.000562126
-0.000560079
-0.00055803
-0.000555979
-0.000553927
-0.000551874
-0.00054982
-0.000547766
-0.000545713
-0.000543659
-0.000541607
-0.000539556
-0.000537506
-0.000535458
-0.000533412
-0.000531368
-0.000529327
-0.000527289
-0.000525254
-0.000523222
-0.000521195
-0.000519171
-0.000517152
-0.000515137
-0.000513127
-0.000511123
-0.000509123
-0.00050713
-0.000505142
-0.00050316
-0.000501185
-0.000499216
-0.000497254
-0.0004953
-0.000493352
-0.000491412
-0.000489479
-0.000487555
-0.000485638
-0.00048373
-0.000481831
-0.00047994
-0.000478057
-0.000476184
-0.00047432
-0.000472465
-0.00047062
-0.000468785
-0.000466959
-0.000465143
-0.000463338
-0.000461543
-0.000459758
-0.000457983
-0.00045622
-0.000454467
-0.000452725
-0.000450993
-0.000449273
-0.000447565
-0.000445867
-0.000444181
-0.000442507
-0.000440844
-0.000439193
-0.000437553
-0.000435925
-0.00043431
-0.000432706
-0.000431114
-0.000429534
-0.000427967
-0.000426412
-0.000424868
-0.000423338
-0.000421819
-0.000420313
-0.00041882
-0.000417339
-0.00041587
-0.000414414
-0.00041297
-0.000411539
-0.00041012
-0.000408714
-0.000407321
-0.00040594
-0.000404572
-0.000403216
-0.000401873
-0.000400543
-0.000399225
-0.000397919
-0.000396627
-0.000395346
-0.000394079
-0.000392823
-0.000391581
-0.00039035
-0.000389132
-0.000387927
-0.000386734
-0.000385553
-0.000384384
-0.000383228
-0.000382084
-0.000380952
-0.000379833
-0.000378725
-0.00037763
-0.000376546
-0.000375474
-0.000374415
-0.000373367
-0.000372331
-0.000371307
-0.000370294
-0.000369293
-0.000368303
-0.000367326
-0.000366359
-0.000365404
-0.00036446
-0.000363528
-0.000362606
-0.000361696
-0.000360797
-0.000359909
-0.000359032
-0.000358165
-0.00035731
-0.000356465
-0.000355631
-0.000354807
-0.000353994
-0.000353191
-0.000352399
-0.000351617
-0.000350845
-0.000350083
-0.000349332
-0.00034859
-0.000347858
-0.000347137
-0.000346424
-0.000345722
-0.000345029
-0.000344346
-0.000343672
-0.000343008
-0.000342353
-0.000341707
-0.00034107
-0.000340442
-0.000339824
-0.000339214
-0.000338613
-0.000338022
-0.000337438
-0.000336864
-0.000336298
-0.00033574
-0.000335191
-0.00033465
-0.000334118
-0.000333594
-0.000333077
-0.000332569
-0.000332069
-0.000331577
-0.000331093
-0.000330616
-0.000330148
-0.000329687
-0.000329233
-0.000328787
-0.000328349
-0.000327917
-0.000327493
-0.000327077
-0.000326667
-0.000326265
-0.00032587
-0.000325482
-0.0003251
-0.000324726
-0.000324358
-0.000323998
-0.000323643
-0.000323296
-0.000322955
-0.00032262
-0.000322293
-0.000321971
-0.000321656
-0.000321347
-0.000321044
-0.000320748
-0.000320457
-0.000320173
-0.000319895
-0.000319622
-0.000319356
-0.000319096
-0.000318841
-0.000318592
-0.000318349
-0.000318111
-0.000317879
-0.000317653
-0.000317433
-0.000317217
-0.000317008
-0.000316803
-0.000316604
-0.000316411
-0.000316222
-0.000316039
-0.000315861
-0.000315688
-0.000315521
-0.000315358
-0.000315201
-0.000315048
-0.000314901
-0.000314758
-0.00031462
-0.000314487
-0.000314359
-0.000314236
-0.000314118
-0.000314004
-0.000313895
-0.00031379
-0.000313691
-0.000313595
-0.000313505
-0.000313419
-0.000313337
-0.00031326
-0.000313187
-0.000313119
-0.000313055
-0.000312995
-0.00031294
-0.000312889
-0.000312843
-0.0003128
-0.000312762
-0.000312728
-0.000312699
-0.000312673
-0.000312653
-0.000312634
-0.000312624
-0.000312611
-0.000312613
-0.000312603
-0.000312623
-0.000312607
-0.000312657
-0.000312619
-0.000312721
-0.000312634
-0.000312822
-0.000312649
-0.000312964
-0.00031266
-0.000313159
-0.00031265
-0.000313448
-0.00031256
-0.000313925
-0.000312284
-0.000314712
-0.000311738
-0.000315855
-0.000310989
-0.000317208
-0.000310271
-0.000318612
-0.000309563
-0.000320553
-0.000307623
-0.000325547
-0.000299928
-0.000340289
-0.000278164
-0.000367186
-0.000253056
-0.000343541
-0.000259784
-0.000259784
-0.0939471
0.0939471
0.120512
0.0964463
0.0712765
0.0526811
0.0396739
0.0305697
0.0241035
0.0194237
0.0159663
0.0133567
0.0113444
0.00976153
0.00849465
0.00746604
0.00662071
0.00591814
0.0053275
0.00482482
0.004391
0.00401057
0.00367174
0.00336713
0.00309363
0.0028502
0.00263505
0.00244405
0.00227156
0.00211251
0.00196369
0.00182346
0.00169076
0.001565
0.00144689
0.00133881
0.00124342
0.00116089
0.00108692
0.0010137
0.000933756
0.000844252
0.000748678
0.000654454
0.000567909
0.000489978
0.000415535
0.000336804
0.000248559
0.000151813
5.37736e-05
-3.57253e-05
-0.000109108
-0.000164477
-0.000205898
-0.000240736
-0.000275799
-0.000314346
-0.000355284
-0.000394557
-0.000427705
-0.000452202
-0.00046856
-0.000479929
-0.000490658
-0.000504597
-0.000523866
-0.000548436
-0.000576494
-0.000605275
-0.000631984
-0.000654505
-0.000671755
-0.000683672
-0.000690958
-0.000694719
-0.000696124
-0.000696175
-0.000695588
-0.000694788
-0.000693962
-0.000693143
-0.000692285
-0.000691326
-0.000690215
-0.000688928
-0.000687467
-0.000685856
-0.000684124
-0.000682305
-0.000680429
-0.000678519
-0.00067659
-0.000674655
-0.000672717
-0.000670781
-0.000668845
-0.00066691
-0.000664974
-0.000663036
-0.000661095
-0.000659151
-0.000657203
-0.000655252
-0.000653297
-0.000651338
-0.000649377
-0.000647413
-0.000645447
-0.000643479
-0.00064151
-0.00063954
-0.000637569
-0.000635597
-0.000633626
-0.000631655
-0.000629685
-0.000627715
-0.000625747
-0.000623781
-0.000621817
-0.000619854
-0.000617895
-0.000615938
-0.000613984
-0.000612033
-0.000610086
-0.000608143
-0.000606204
-0.00060427
-0.000602341
-0.000600416
-0.000598496
-0.000596582
-0.000594674
-0.000592772
-0.000590876
-0.000588986
-0.000587103
-0.000585227
-0.000583357
-0.000581496
-0.000579641
-0.000577794
-0.000575956
-0.000574125
-0.000572302
-0.000570488
-0.000568683
-0.000566886
-0.000565098
-0.00056332
-0.00056155
-0.00055979
-0.00055804
-0.0005563
-0.000554569
-0.000552848
-0.000551138
-0.000549438
-0.000547748
-0.000546069
-0.0005444
-0.000542742
-0.000541095
-0.000539459
-0.000537834
-0.00053622
-0.000534617
-0.000533026
-0.000531446
-0.000529877
-0.000528321
-0.000526775
-0.000525242
-0.00052372
-0.00052221
-0.000520712
-0.000519225
-0.000517751
-0.000516289
-0.000514838
-0.0005134
-0.000511974
-0.00051056
-0.000509159
-0.000507769
-0.000506392
-0.000505027
-0.000503674
-0.000502333
-0.000501005
-0.000499689
-0.000498385
-0.000497094
-0.000495815
-0.000494548
-0.000493293
-0.00049205
-0.00049082
-0.000489602
-0.000488396
-0.000487203
-0.000486021
-0.000484852
-0.000483695
-0.000482549
-0.000481416
-0.000480295
-0.000479186
-0.000478089
-0.000477003
-0.00047593
-0.000474868
-0.000473818
-0.00047278
-0.000471753
-0.000470738
-0.000469735
-0.000468743
-0.000467762
-0.000466793
-0.000465836
-0.000464889
-0.000463954
-0.00046303
-0.000462117
-0.000461215
-0.000460324
-0.000459444
-0.000458575
-0.000457717
-0.000456869
-0.000456032
-0.000455205
-0.000454389
-0.000453584
-0.000452789
-0.000452004
-0.000451229
-0.000450465
-0.000449711
-0.000448966
-0.000448232
-0.000447507
-0.000446793
-0.000446088
-0.000445392
-0.000444707
-0.00044403
-0.000443363
-0.000442706
-0.000442058
-0.000441419
-0.000440789
-0.000440168
-0.000439556
-0.000438953
-0.000438359
-0.000437773
-0.000437196
-0.000436628
-0.000436068
-0.000435517
-0.000434974
-0.00043444
-0.000433914
-0.000433395
-0.000432885
-0.000432383
-0.000431889
-0.000431403
-0.000430925
-0.000430454
-0.000429991
-0.000429536
-0.000429088
-0.000428647
-0.000428214
-0.000427788
-0.00042737
-0.000426958
-0.000426554
-0.000426157
-0.000425767
-0.000425384
-0.000425007
-0.000424638
-0.000424275
-0.000423919
-0.000423569
-0.000423226
-0.000422889
-0.000422559
-0.000422235
-0.000421918
-0.000421606
-0.000421301
-0.000421002
-0.00042071
-0.000420423
-0.000420142
-0.000419867
-0.000419598
-0.000419335
-0.000419077