# vtk DataFile Version 2.0
FlowField
ASCII
DATASET STRUCTURED_GRID
DIMENSIONS 400 1 50
POINTS 20000 float
0 0 0
0.08 0 0
0.16 0 0
0.24 0 0
0.32 0 0
0.4 0 0
0.48 0 0
0.56 0 0
0.64 0 0
0.72 0 0
0.8 0 0
0.88 0 0
0.96 0 0
1.04 0 0
1.12 0 0
1.2 0 0
1.28 0 0
1.36 0 0
1.44 0 0
1.52 0 0
1.6 0 0
1.68 0 0
1.76 0 0
1.84 0 0
1.92 0 0
2 0 0
2.08 0 0
2.16 0 0
2.24 0 0
2.32 0 0
2.4 0 0
2.48 0 0
2.56 0 0
2.64 0 0
2.72 0 0
2.8 0 0
2.88 0 0
2.96 0 0
3.04 0 0
3.12 0 0
3.2 0 0
3.28 0 0
3.36 0 0
3.44 0 0
3.52 0 0
3.6 0 0
3.68 0 0
3.76 0 0
3.84 0 0
3.92 0 0
4 0 0
4.08 0 0
4.16 0 0
4.24 0 0
4.32 0 0
4.4 0 0
4.48 0 0
4.56 0 0
4.64 0 0
4.72 0 0
4.8 0 0
4.88 0 0
4.96 0 0
5.04 0 0
5.12 0 0
5.2 0 0
5.28 0 0
5.36 0 0
5.44 0 0
5.52 0 0
5.6 0 0
5.68 0 0
5.76 0 0
5.84 0 0
5.92 0 0
6 0 0
6.08 0 0
6.16 0 0
6.24 0 0
6.32 0 0
6.4 0 0
6.48 0 0
6.56 0 0
6.64 0 0
6.72 0 0
6.8 0 0
6.88 0 0
6.96 0 0
7.04 0 0
7.12 0 0
7.2 0 0
7.28 0 0
7.36 0 0
7.44 0 0
7.52 0 0
7.6 0 0
7.68 0 0
7.76 0 0
7.84 0 0
7.92 0 0
8 0 0
8.08 0 0
8.16 0 0
8.24 0 0
8.32 0 0
8.4 0 0
8.48 0 0
8.56 0 0
8.64 0 0
8.72 0 0
8.8 0 0
8.88 0 0
8.96 0 0
9.04 0 0
9.12 0 0
9.2 0 0
9.28 0 0
9.36 0 0
9.44 0 0
9.52 0 0
9.6 0 0
9.68 0 0
9.76 0 0
9.84 0 0
9.92 0 0
10 0 0
10.08 0 0
10.16 0 0
10.24 0 0
10.32 0 0
10.4 0 0
10.48 0 0
10.56 0 0
10.64 0 0
10.72 0 0
10.8 0 0
10.88 0 0
10.96 0 0
11.04 0 0
11.12 0 0
11.2 0 0
11.28 0 0
11.36 0 0
11.44 0 0
11.52 0 0
11.6 0 0
11.68 0 0
11.76 0 0
11.84 0 0
11.92 0 0
12 0 0
12.08 0 0
12.16 0 0
12.24 0 0
12.32 0 0
12.4 0 0
12.48 0 0
12.56 0 0
12.64 0 0
12.72 0 0
12.8 0 0
12.88 0 0
12.96 0 0
13.04 0 0
13.12 0 0
13.2 0 0
13.28 0 0
13.36 0 0
13.44 0 0
13.52 0 0
13.6 0 0
13.68 0 0
13.76 0 0
13.84 0 0
13.92 0 0
14 0 0
14.08 0 0
14.16 0 0
14.24 0 0
14.32 0 0
14.4 0 0
14.48 0 0
14.56 0 0
14.64 0 0
14.72 0 0
14.8 0 0
14.88 0 0
14.96 0 0
15.04 0 0
15.12 0 0
15.2 0 0
15.28 0 0
15.36 0 0
15.44 0 0
15.52 0 0
15.6 0 0
15.68 0 0
15.76 0 0
15.84 0 0
15.92 0 0
16 0 0
16.08 0 0
16.16 0 0
16.24 0 0
16.32 0 0
16.4 0 0
16.48 0 0
16.56 0 0
16.64 0 0
16.72 0 0
16.8 0 0
16.88 0 0
16.96 0 0
17.04 0 0
17.12 0 0
17.2 0 0
17.28 0 0
17.36 0 0
17.44 0 0
17.52 0 0
17.6 0 0
17.68 0 0
17.76 0 0
17.84 0 0
17.92 0 0
18 0 0
18.08 0 0
18.16 0 0
18.24 0 0
18.32 0 0
18.4 0 0
18.48 0 0
18.56 0 0
18.64 0 0
18.72 0 0
18.8 0 0
18.88 0 0
18.96 0 0
19.04 0 0
19.12 0 0
19.2 0 0
19.28 0 0
19.36 0 0
19.44 0 0
19.52 0 0
19.6 0 0
19.68 0 0
19.76 0 0
19.84 0 0
19.92 0 0
20 0 0
20.08 0 0
20.16 0 0
20.24 0 0
20.32 0 0
20.4 0 0
20.48 0 0
20.56 0 0
20.64 0 0
20.72 0 0
20.8 0 0
20.88 0 0
20.96 0 0
21.04 0 0
21.12 0 0
21.2 0 0
21.28 0 0
21.36 0 0
21.44 0 0
21.52 0 0
21.6 0 0
21.68 0 0
21.76 0 0
21.84 0 0
21.92 0 0
22 0 0
22.08 0 0
22.16 0 0
22.24 0 0
22.32 0 0
22.4 0 0
22.48 0 0
22.56 0 0
22.64 0 0
22.72 0 0
22.8 0 0
22.88 0 0
22.96 0 0
23.04 0 0
23.12 0 0
23.2 0 0
23.28 0 0
23.36 0 0
23.44 0 0
23.52 0 0
23.6 0 0
23.68 0 0
23.76 0 0
23.84 0 0
23.92 0 0
24 0 0
24.08 0 0
24.16 0 0
24.24 0 0
24.32 0 0
24.4 0 0
24.48 0 0
24.56 0 0
24.64 0 0
24.72 0 0
24.8 0 0
24.88 0 0
24.96 0 0
25.04 0 0
25.12 0 0
25.2 0 0
25.28 0 0
25.36 0 0
25.44 0 0
25.52 0 0
25.6 0 0
25.68 0 0
25.76 0 0
25.84 0 0
25.92 0 0
26 0 0
26.08 0 0
26.16 0 0
26.24 0 0
26.32 0 0
26.4 0 0
26.48 0 0
26.56 0 0
26.64 0 0
26.72 0 0
26.8 0 0
26.88 0 0
26.96 0 0
27.04 0 0
27.12 0 0
27.2 0 0
27.28 0 0
27.36 0 0
27.44 0 0
27.52 0 0
27.6 0 0
27.68 0 0
27.76 0 0
27.84 0 0
27.92 0 0
28 0 0
28.08 0 0
28.16 0 0
28.24 0 0
28.32 0 0
28.4 0 0
28.48 0 0
28.56 0 0
28.64 0 0
28.72 0 0
28.8 0 0
28.88 0 0
28.96 0 0
29.04 0 0
29.12 0 0
29.2 0 0
29.28 0 0
29.36 0 0
29.44 0 0
29.52 0 0
29.6 0 0
29.68 0 0
29.76 0 0
29.84 0 0
29.92 0 0
30 0 0
30.08 0 0
30.16 0 0
30.24 0 0
30.32 0 0
30.4 0 0
30.48 0 0
30.56 0 0
30.64 0 0
30.72 0 0
30.8 0 0
30.88 0 0
30.96 0 0
31.04 0 0
31.12 0 0
31.2 0 0
31.28 0 0
31.36 0 0
31.44 0 0
31.52 0 0
31.6 0 0
31.68 0 0
31.76 0 0
31.84 0 0
31.92 0 0
0 0.02 0
0.08 0.02 0
0.16 0.02 0
0.24 0.02 0
0.32 0.02 0
0.4 0.02 0
0.48 0.02 0
0.56 0.02 0
0.64 0.02 0
0.72 0.02 0
0.8 0.02 0
0.88 0.02 0
0.96 0.02 0
1.04 0.02 0
1.12 0.02 0
1.2 0.02 0
1.28 0.02 0
1.36 0.02 0
1.44 0.02 0
1.52 0.02 0
1.6 0.02 0
1.68 0.02 0
1.76 0.02 0
1.84 0.02 0
1.92 0.02 0
2 0.02 0
2.08 0.02 0
2.16 0.02 0
2.24 0.02 0
2.32 0.02 0
2.4 0.02 0
2.48 0.02 0
2.56 0.02 0
2.64 0.02 0
2.72 0.02 0
2.8 0.02 0
2.88 0.02 0
2.96 0.02 0
3.04 0.02 0
3.12 0.02 0
3.2 0.02 0
3.28 0.02 0
3.36 0.02 0
3.44 0.02 0
3.52 0.02 0
3.6 0.02 0
3.68 0.02 0
3.76 0.02 0
3.84 0.02 0
3.92 0.02 0
4 0.02 0
4.08 0.02 0
4.16 0.02 0
4.24 0.02 0
4.32 0.02 0
4.4 0.02 0
4.48 0.02 0
4.56 0.02 0
4.64 0.02 0
4.72 0.02 0
4.8 0.02 0
4.88 0.02 0
4.96 0.02 0
5.04 0.02 0
5.12 0.02 0
5.2 0.02 0
5.28 0.02 0
5.36 0.02 0
5.44 0.02 0
5.52 0.02 0
5.6 0.02 0
5.68 0.02 0
5.76 0.02 0
5.84 0.02 0
5.92 0.02 0
6 0.02 0
6.08 0.02 0
6.16 0.02 0
6.24 0.02 0
6.32 0.02 0
6.4 0.02 0
6.48 0.02 0
6.56 0.02 0
6.64 0.02 0
6.72 0.02 0
6.8 0.02 0
6.88 0.02 0
6.96 0.02 0
7.04 0.02 0
7.12 0.02 0
7.2 0.02 0
7.28 0.02 0
7.36 0.02 0
7.44 0.02 0
7.52 0.02 0
7.6 0.02 0
7.68 0.02 0
7.76 0.02 0
7.84 0.02 0
7.92 0.02 0
8 0.02 0
8.08 0.02 0
8.16 0.02 0
8.24 0.02 0
8.32 0.02 0
8.4 0.02 0
8.48 0.02 0
8.56 0.02 0
8.64 0.02 0
8.72 0.02 0
8.8 0.02 0
8.88 0.02 0
8.96 0.02 0
9.04 0.02 0
9.12 0.02 0
9.2 0.02 0
9.28 0.02 0
9.36 0.02 0
9.44 0.02 0
9.52 0.02 0
9.6 0.02 0
9.68 0.02 0
9.76 0.02 0
9.84 0.02 0
9.92 0.02 0
10 0.02 0
10.08 0.02 0
10.16 0.02 0
10.24 0.02 0
10.32 0.02 0
10.4 0.02 0
10.48 0.02 0
10.56 0.02 0
10.64 0.02 0
10.72 0.02 0
10.8 0.02 0
10.88 0.02 0
10.96 0.02 0
11.04 0.02 0
11.12 0.02 0
11.2 0.02 0
11.28 0.02 0
11.36 0.02 0
11.44 0.02 0
11.52 0.02 0
11.6 0.02 0
11.68 0.02 0
11.76 0.02 0
11.84 0.02 0
11.92 0.02 0
12 0.02 0
12.08 0.02 0
12.16 0.02 0
12.24 0.02 0
12.32 0.02 0
12.4 0.02 0
12.48 0.02 0
12.56 0.02 0
12.64 0.02 0
12.72 0.02 0
12.8 0.02 0
12.88 0.02 0
12.96 0.02 0
13.04 0.02 0
13.12 0.02 0
13.2 0.02 0
13.28 0.02 0
13.36 0.02 0
13.44 0.02 0
13.52 0.02 0
13.6 0.02 0
13.68 0.02 0
13.76 0.02 0
13.84 0.02 0
13.92 0.02 0
14 0.02 0
14.08 0.02 0
14.16 0.02 0
14.24 0.02 0
14.32 0.02 0
14.4 0.02 0
14.48 0.02 0
14.56 0.02 0
14.64 0.02 0
14.72 0.02 0
14.8 0.02 0
14.88 0.02 0
14.96 0.02 0
15.04 0.02 0
15.12 0.02 0
15.2 0.02 0
15.28 0.02 0
15.36 0.02 0
15.44 0.02 0
15.52 0.02 0
15.6 0.02 0
15.68 0.02 0
15.76 0.02 0
15.84 0.02 0
15.92 0.02 0
16 0.02 0
16.08 0.02 0
16.16 0.02 0
16.24 0.02 0
16.32 0.02 0
16.4 0.02 0
16.48 0.02 0
16.56 0.02 0
16.64 0.02 0
16.72 0.02 0
16.8 0.02 0
16.88 0.02 0
16.96 0.02 0
17.04 0.02 0
17.12 0.02 0
17.2 0.02 0
17.28 0.02 0
17.36 0.02 0
17.44 0.02 0
17.52 0.02 0
17.6 0.02 0
17.68 0.02 0
17.76 0.02 0
17.84 0.02 0
17.92 0.02 0
18 0.02 0
18.08 0.02 0
18.16 0.02 0
18.24 0.02 0
18.32 0.02 0
18.4 0.02 0
18.48 0.02 0
18.56 0.02 0
18.64 0.02 0
18.72 0.02 0
18.8 0.02 0
18.88 0.02 0
18.96 0.02 0
19.04 0.02 0
19.12 0.02 0
19.2 0.02 0
19.28 0.02 0
19.36 0.02 0
19.44 0.02 0
19.52 0.02 0
19.6 0.02 0
19.68 0.02 0
19.76 0.02 0
19.84 0.02 0
19.92 0.02 0
20 0.02 0
20.08 0.02 0
20.16 0.02 0
20.24 0.02 0
20.32 0.02 0
20.4 0.02 0
20.48 0.02 0
20.56 0.02 0
20.64 0.02 0
20.72 0.02 0
20.8 0.02 0
20.88 0.02 0
20.96 0.02 0
21.04 0.02 0
21.12 0.02 0
21.2 0.02 0
21.28 0.02 0
21.36 0.02 0
21.44 0.02 0
21.52 0.02 0
21.6 0.02 0
21.68 0.02 0
21.76 0.02 0
21.84 0.02 0
21.92 0.02 0
22 0.02 0
22.08 0.02 0
22.16 0.02 0
22.24 0.02 0
22.32 0.02 0
22.4 0.02 0
22.48 0.02 0
22.56 0.02 0
22.64 0.02 0
22.72 0.02 0
22.8 0.02 0
22.88 0.02 0
22.96 0.02 0
23.04 0.02 0
23.12 0.02 0
23.2 0.02 0
23.28 0.02 0
23.36 0.02 0
23.44 0.02 0
23.52 0.02 0
23.6 0.02 0
23.68 0.02 0
23.76 0.02 0
23.84 0.02 0
23.92 0.02 0
24 0.02 0
24.08 0.02 0
24.16 0.02 0
24.24 0.02 0
24.32 0.02 0
24.4 0.02 0
24.48 0.02 0
24.56 0.02 0
24.64 0.02 0
24.72 0.02 0
24.8 0.02 0
24.88 0.02 0
24.96 0.02 0
25.04 0.02 0
25.12 0.02 0
25.2 0.02 0
25.28 0.02 0
25.36 0.02 0
25.44 0.02 0
25.52 0.02 0
25.6 0.02 0
25.68 0.02 0
25.76 0.02 0
25.84 0.02 0
25.92 0.02 0
26 0.02 0
26.08 0.02 0
26.16 0.02 0
26.24 0.02 0
26.32 0.02 0
26.4 0.02 0
26.48 0.02 0
26.56 0.02 0
26.64 0.02 0
26.72 0.02 0
26.8 0.02 0
26.88 0.02 0
26.96 0.02 0
27.04 0.02 0
27.12 0.02 0
27.2 0.02 0
27.28 0.02 0
27.36 0.02 0
27.44 0.02 0
27.52 0.02 0
27.6 0.02 0
27.68 0.02 0
27.76 0.02 0
27.84 0.02 0
27.92 0.02 0
28 0.02 0
28.08 0.02 0
28.16 0.02 0
28.24 0.02 0
28.32 0.02 0
28.4 0.02 0
28.48 0.02 0
28.56 0.02 0
28.64 0.02 0
28.72 0.02 0
28.8 0.02 0
28.88 0.02 0
28.96 0.02 0
29.04 0.02 0
29.12 0.02 0
29.2 0.02 0
29.28 0.02 0
29.36 0.02 0
29.44 0.02 0
29.52 0.02 0
29.6 0.02 0
29.68 0.02 0
29.76 0.02 0
29.84 0.02 0
29.92 0.02 0
30 0.02 0
30.08 0.02 0
30.16 0.02 0
30.24 0.02 0
30.32 0.02 0
30.4 0.02 0
30.48 0.02 0
30.56 0.02 0
30.64 0.02 0
30.72 0.02 0
30.8 0.02 0
30.88 0.02 0
30.96 0.02 0
31.04 0.02 0
31.12 0.02 0
31.2 0.02 0
31.28 0.02 0
31.36 0.02 0
31.44 0.02 0
31.52 0.02 0
31.6 0.02 0
31.68 0.02 0
31.76 0.02 0
31.84 0.02 0
31.92 0.02 0
0 0.04 0
0.08 0.04 0
0.16 0.04 0
0.24 0.04 0
0.32 0.04 0
0.4 0.04 0
0.48 0.04 0
0.56 0.04 0
0.64 0.04 0
0.72 0.04 0
0.8 0.04 0
0.88 0.04 0
0.96 0.04 0
1.04 0.04 0
1.12 0.04 0
1.2 0.04 0
1.28 0.04 0
1.36 0.04 0
1.44 0.04 0
1.52 0.04 0
1.6 0.04 0
1.68 0.04 0
1.76 0.04 0
1.84 0.04 0
1.92 0.04 0
2 0.04 0
2.08 0.04 0
2.16 0.04 0
2.24 0.04 0
2.32 0.04 0
2.4 0.04 0
2.48 0.04 0
2.56 0.04 0
2.64 0.04 0
2.72 0.04 0
2.8 0.04 0
2.88 0.04 0
2.96 0.04 0
3.04 0.04 0
3.12 0.04 0
3.2 0.04 0
3.28 0.04 0
3.36 0.04 0
3.44 0.04 0
3.52 0.04 0
3.6 0.04 0
3.68 0.04 0
3.76 0.04 0
3.84 0.04 0
3.92 0.04 0
4 0.04 0
4.08 0.04 0
4.16 0.04 0
4.24 0.04 0
4.32 0.04 0
4.4 0.04 0
4.48 0.04 0
4.56 0.04 0
4.64 0.04 0
4.72 0.04 0
4.8 0.04 0
4.88 0.04 0
4.96 0.04 0
5.04 0.04 0
5.12 0.04 0
5.2 0.04 0
5.28 0.04 0
5.36 0.04 0
5.44 0.04 0
5.52 0.04 0
5.6 0.04 0
5.68 0.04 0
5.76 0.04 0
5.84 0.04 0
5.92 0.04 0
6 0.04 0
6.08 0.04 0
6.16 0.04 0
6.24 0.04 0
6.32 0.04 0
6.4 0.04 0
6.48 0.04 0
6.56 0.04 0
6.64 0.04 0
6.72 0.04 0
6.8 0.04 0
6.88 0.04 0
6.96 0.04 0
7.04 0.04 0
7.12 0.04 0
7.2 0.04 0
7.28 0.04 0
7.36 0.04 0
7.44 0.04 0
7.52 0.04 0
7.6 0.04 0
7.68 0.04 0
7.76 0.04 0
7.84 0.04 0
[...]
POINT_DATA 20000

SCALARS v float 1
LOOKUP_TABLE default
0
0
0
0
0
0
0
0
0
0
0
0
0
0
0
0
0
0
0
0
0
0
0
0
0
0
0
0
0
0
0
0
0
0
0
0
0
0
0
0
0
0
0
0
0
0
0
0
0
0
0
0
0
0
0
0
0
0
0
0
0
0
0
0
0
0
0
0
0
0
0
0
0
0
0
0
0
0
0
0
0
0
0
0
0
0
0
0
0
0
0
0
0
0
0
0
0
0
0
0
0
0
0
0
0
0
0
0
0
0
0
0
0
0
0
0
0
0
0
0
0
0
0
0
0
0
0
0
0
0
0
0
0
0
0
0
0
0
0
0
0
0
0
0
0
0
0
0
0
0
0
0
0
0
0
0
0
0
0
0
0
0
0
0
0
0
0
0
0
0
0
0
0
0
0
0
0
0
0
0
0
0
0
0
0
0
0
0
0
0
0
0
0
0
0
0
0
0
0
0
0
0
0
0
0
0
0
0
0
0
0
0
0
0
0
0
0
0
0
0
0
0
0
0
0
0
0
0
0
0
0
0
0
0
0
0
0
0
0
0
0
0
0
0
0
0
0
0
0
0
0
0
0
0
0
0
0
0
0
0
0
0
0
0
0
0
0
0
0
0
0
0
0
0
0
0
0
0
0
0
0
0
0
0
0
0
0
0
0
0
0
0
0
0
0
0
0
0
0
0
0
0
0
0
0
0
0
0
0
0
0
0
0
0
0
0
0
0
0
0
0
0
0
0
0
0
0
0
0
0
0
0
0
0
0
0
0
0
0
0
0
0
0
0
0
0
0
0
0
0
0
0
0
0
0
0
0
0
0
0
0
0
0
0
0
0
0
0
0
0
0
0
0
0
0
0
0
0
0
0
0
0
0
0
0
0
0
0
0
0
0
0
0
0
0
0
0
0
0
0
-0.123227
0.123227
0.0537923
0.0194394
0.00878358
0.00509015
0.00338818
0.00243773
0.0018479
0.00145668
0.00118443
0.000987631
0.00084077
0.000728079
0.000639443
0.000568178
0.000509756
0.00046104
0.000419814
0.000384482
0.000353868
0.000327096
0.000303494
0.000282542
0.000263832
0.000247034
0.000231882
0.000218158
0.000205679
0.000194294
0.000183873
0.000174307
0.000165501
0.000157374
0.000149856
0.000142885
0.000136409
0.000130378
0.000124753
0.000119496
0.000114575
0.000109961
0.000105627
0.000101551
9.77111e-05
9.40895e-05
9.06689e-05
8.74341e-05
8.43712e-05
8.14677e-05
7.87122e-05
7.60943e-05
7.36045e-05
7.1234e-05
6.8975e-05
6.68201e-05
6.47627e-05
6.27967e-05
6.09162e-05
5.91161e-05
5.73916e-05
5.57381e-05
5.41516e-05
5.26282e-05
5.11643e-05
4.97566e-05
4.84022e-05
4.7098e-05
4.58414e-05
4.463e-05
4.34615e-05
4.23335e-05
4.12443e-05
4.01918e-05
3.91742e-05
3.819e-05
3.72375e-05
3.63153e-05
3.5422e-05
3.45563e-05
3.37171e-05
3.29031e-05
3.21133e-05
3.13466e-05
3.06022e-05
2.9879e-05
2.91763e-05
2.84933e-05
2.78292e-05
2.71832e-05
2.65547e-05
2.5943e-05
2.53476e-05
2.47678e-05
2.42031e-05
2.36529e-05
2.31168e-05
2.25943e-05
2.20849e-05
2.15882e-05
2.11038e-05
2.06313e-05
2.01703e-05
1.97204e-05
1.92813e-05
1.88528e-05
1.84344e-05
1.80259e-05
1.76269e-05
1.72373e-05
1.68568e-05
1.6485e-05
1.61218e-05
1.57669e-05
1.54201e-05
1.50811e-05
1.47499e-05
1.4426e-05
1.41095e-05
1.38e-05
1.34974e-05
1.32016e-05
1.29123e-05
1.26294e-05
1.23527e-05
1.20821e-05
1.18175e-05
1.15587e-05
1.13055e-05
1.10578e-05
1.08156e-05
1.05786e-05
1.03468e-05
1.012e-05
9.8981e-06
9.68103e-06
9.46865e-06
9.26087e-06
9.05759e-06
8.8587e-06
8.66409e-06
8.47369e-06
8.28738e-06
8.10509e-06
7.92674e-06
7.75223e-06
7.58151e-06
7.41447e-06
7.25105e-06
7.09116e-06
6.93473e-06
6.78168e-06
6.63193e-06
6.48541e-06
6.34207e-06
6.20184e-06
6.06466e-06
5.93046e-06
5.79917e-06
5.67074e-06
5.54509e-06
5.42217e-06
5.30191e-06
5.18426e-06
5.06918e-06
4.95662e-06
4.84652e-06
4.73884e-06
4.6335e-06
4.53047e-06
4.42968e-06
4.33109e-06
4.23464e-06
4.14029e-06
4.04799e-06
3.95772e-06
3.86944e-06
3.78311e-06
3.69865e-06
3.61603e-06
3.53518e-06
3.45609e-06
3.37872e-06
3.30304e-06
3.22902e-06
3.15661e-06
3.08577e-06
3.01648e-06
2.94871e-06
2.88242e-06
2.81756e-06
2.75409e-06
2.69196e-06
2.63116e-06
2.57168e-06
2.51353e-06
2.45668e-06
2.40108e-06
2.34665e-06
2.29336e-06
2.24119e-06
2.19014e-06
2.14023e-06
2.09144e-06
2.0437e-06
1.99697e-06
1.95124e-06
1.9065e-06
1.86277e-06
1.82003e-06
1.77822e-06
1.73727e-06
1.69714e-06
1.65785e-06
1.61943e-06
1.58192e-06
1.54531e-06
1.50952e-06
1.47446e-06
1.44007e-06
1.40635e-06
1.37337e-06
1.34116e-06
1.30972e-06
1.27898e-06
1.24887e-06
1.21936e-06
1.19045e-06
1.16218e-06
1.13458e-06
1.10759e-06
1.08116e-06
1.0552e-06
1.02973e-06
1.00478e-06
9.80448e-07
9.56739e-07
9.336e-07
9.10918e-07
8.88598e-07
8.66618e-07
8.45042e-07
8.23963e-07
8.03436e-07
7.83432e-07
7.63861e-07
7.44628e-07
7.25696e-07
7.07092e-07
6.88874e-07
6.71066e-07
6.53637e-07
6.36517e-07
6.19656e-07
6.03059e-07
5.86781e-07
5.70875e-07
5.55331e-07
5.40063e-07
5.24951e-07
5.09918e-07
4.94979e-07
4.80233e-07
4.65792e-07
4.51698e-07
4.37882e-07
4.242e-07
4.10517e-07
3.96787e-07
3.83069e-07
3.69476e-07
3.56095e-07
3.42924e-07
3.29878e-07
3.16854e-07
3.038e-07
2.9075e-07
2.77788e-07
2.64982e-07
2.52323e-07
2.39729e-07
2.27108e-07
2.14431e-07
2.01775e-07
1.89286e-07
1.77092e-07
1.65213e-07
1.53536e-07
1.41875e-07
1.30083e-07
1.18153e-07
1.06236e-07
9.45748e-08
8.33653e-08
7.26487e-08
6.22817e-08
5.20129e-08
4.16218e-08
3.10436e-08
2.04102e-08
9.98591e-09
3.07556e-11
-9.33062e-09
-1.81687e-08
-2.67036e-08
-3.5186e-08
-4.37638e-08
-5.24095e-08
-6.09364e-08
-6.90981e-08
-7.6708e-08
-8.3728e-08
-9.0273e-08
-9.65487e-08
-1.02742e-07
-1.08938e-07
-1.15085e-07
-1.21035e-07
-1.26618e-07
-1.31733e-07
-1.36377e-07
-1.40655e-07
-1.44708e-07
-1.48663e-07
-1.52564e-07
-1.56383e-07
-1.60022e-07
-1.63391e-07
-1.66425e-07
-1.69138e-07
-1.7158e-07
-1.73851e-07
-1.76009e-07
-1.78107e-07
-1.80115e-07
-1.82013e-07
-1.83729e-07
-1.8526e-07
-1.86578e-07
-1.87748e-07
-1.88776e-07
-1.89753e-07
-1.90652e-07
-1.91538e-07
-1.92331e-07
-1.93088e-07
-1.93706e-07
-1.94281e-07
-1.94713e-07
-1.9515e-07
-1.95469e-07
-1.95852e-07
-1.9612e-07
-1.96485e-07
-1.96696e-07
-1.97022e-07
-1.97145e-07
-1.97425e-07
-1.97459e-07
-1.97722e-07
-1.97695e-07
-1.97988e-07
-1.97916e-07
-1.98261e-07
-1.98132e-07
-1.98538e-07
-1.98326e-07
-1.98808e-07
-1.98494e-07
-1.9909e-07
-1.98662e-07
-1.99419e-07
-1.98858e-07
-1.99827e-07
-1.99095e-07
-2.00333e-07
-1.9938e-07
-2.00959e-07
-1.99727e-07
-2.01736e-07
-2.00166e-07
-2.02715e-07
-2.00743e-07
-2.03945e-07
-2.01518e-07
-2.05457e-07
-2.02568e-07
-2.07222e-07
-2.03994e-07
-2.09027e-07
-2.05914e-07
-2.10104e-07
-2.08399e-07
-2.07939e-07
-2.11257e-07
-1.93288e-07
-2.13005e-07
-1.04357e-07
-1.68767e-07
-1.68767e-07
-0.142153
0.142153
0.101005
0.0539133
0.0302568
0.0189187
0.012928
0.00941346
0.00718054
0.00567764
0.00462115
0.00385216
0.00327567
0.00283217
0.002483
0.00220233
0.00197252
0.00178123
0.00161969
0.00148155
0.00136212
0.0012579
0.00116619
0.00108493
0.00101247
0.000947498
0.000888967
0.000836003
0.00078789
0.000744025
0.000703903
0.000667093
0.000633227
0.000601987
0.000573099
0.000546324
0.000521455
0.000498308
0.000476722
0.000456554
0.000437679
0.000419984
0.000403369
0.000387744
0.00037303
0.000359153
0.000346049
0.000333659
0.000321929
0.000310811
0.000300261
0.00029024
0.00028071
0.000271639
0.000262995
0.000254751
0.000246881
0.000239361
0.000232169
0.000225286
0.000218693
0.000212372
0.000206308
0.000200486
0.000194892
0.000189513
0.000184339
0.000179357
0.000174558
0.000169932
0.00016547
0.000161163
0.000157005
0.000152988
0.000149105
0.000145349
0.000141715
0.000138197
0.00013479
0.000131489
0.000128288
0.000125185
0.000122174
0.000119252
0.000116415
0.000113659
0.000110982
0.00010838
0.00010585
0.00010339
0.000100997
9.86681e-05
9.64014e-05
9.41945e-05
9.20453e-05
8.99518e-05
8.79121e-05
8.59243e-05
8.39867e-05
8.20976e-05
8.02555e-05
7.84589e-05
7.67062e-05
7.49962e-05
7.33275e-05
7.16988e-05
7.0109e-05
6.8557e-05
6.70415e-05
6.55617e-05
6.41163e-05
6.27046e-05
6.13254e-05
5.9978e-05
5.86614e-05
5.73749e-05
5.61176e-05
5.48887e-05
5.36876e-05
5.25134e-05
5.13656e-05
5.02433e-05
4.9146e-05
4.80731e-05
4.7024e-05
4.5998e-05
4.49947e-05
4.40134e-05
4.30537e-05
4.21151e-05
4.1197e-05
4.02989e-05
3.94205e-05
3.85611e-05
3.77205e-05
3.68982e-05
3.60937e-05
3.53067e-05
3.45368e-05
3.37836e-05
3.30467e-05
3.23258e-05
3.16204e-05
3.09304e-05
3.02552e-05
2.95948e-05
2.89486e-05
2.83165e-05
2.76981e-05
2.70931e-05
2.65012e-05
2.59222e-05
2.53557e-05
2.48015e-05
2.42594e-05
2.3729e-05
2.32103e-05
2.27028e-05
2.22064e-05
2.17208e-05
2.12458e-05
2.07812e-05
2.03266e-05
1.9882e-05
1.94471e-05
1.90218e-05
1.86058e-05
1.81989e-05
1.7801e-05
1.74118e-05
1.70311e-05
1.66587e-05
1.62944e-05
1.59381e-05
1.55896e-05
1.52488e-05
1.49155e-05
1.45895e-05
1.42707e-05
1.39588e-05
1.36537e-05
1.33552e-05
1.30632e-05
1.27777e-05
1.24984e-05
1.22252e-05
1.19579e-05
1.16965e-05
1.14409e-05
1.11908e-05
1.09461e-05
1.07067e-05
1.04724e-05
1.02432e-05
1.0019e-05
9.79975e-06
9.58538e-06
9.37568e-06
9.17045e-06
8.96954e-06
8.77292e-06
8.58059e-06
8.39253e-06
8.20862e-06
8.0287e-06
7.85263e-06
7.68035e-06
7.51186e-06
7.34713e-06
7.18607e-06
7.02849e-06
6.8742e-06
6.7231e-06
6.57522e-06
6.43068e-06
6.28953e-06
6.15163e-06
6.01676e-06
5.88464e-06
5.75515e-06
5.62833e-06
5.5043e-06
5.38316e-06
5.26482e-06
5.14908e-06
5.03572e-06
4.92466e-06
4.81594e-06
4.70964e-06
4.60576e-06
4.50415e-06
4.40458e-06
4.30691e-06
4.21115e-06
4.11747e-06
4.02602e-06
3.93678e-06
3.84954e-06
3.76397e-06
3.67983e-06
3.59714e-06
3.51608e-06
3.4369e-06
3.35966e-06
3.28422e-06
3.21031e-06
3.13768e-06
3.06625e-06
2.99612e-06
2.92743e-06
2.86019e-06
2.79428e-06
2.72949e-06
2.66572e-06
2.60299e-06
2.54146e-06
2.48119e-06
2.42211e-06
2.36391e-06
2.30628e-06
2.24907e-06
2.19236e-06
2.13645e-06
2.0816e-06
2.02781e-06
1.97482e-06
1.9222e-06
1.86962e-06
1.81703e-06
1.76465e-06
1.71277e-06
1.66159e-06
1.61102e-06
1.56081e-06
1.51068e-06
1.46055e-06
1.41056e-06
1.36095e-06
1.31186e-06
1.26322e-06
1.21479e-06
1.16637e-06
1.11797e-06
1.06987e-06
1.02248e-06
9.76086e-07
9.30629e-07
8.85734e-07
8.40907e-07
7.95857e-07
7.5071e-07
7.05993e-07
6.6237e-07
6.20274e-07
5.79662e-07
5.40026e-07
5.00669e-07
4.61096e-07
4.21309e-07
3.81821e-07
3.4341e-07
3.06715e-07
2.71926e-07
2.38699e-07
2.06366e-07
1.74289e-07
1.42205e-07
1.10347e-07
7.93275e-08
4.98147e-08
2.22202e-08
-3.49371e-09
-2.77539e-08
-5.1156e-08
-7.4156e-08
-9.68813e-08
-1.19085e-07
-1.40318e-07
-1.60141e-07
-1.7836e-07
-1.95074e-07
-2.10644e-07
-2.25472e-07
-2.39873e-07
-2.53901e-07
-2.67422e-07
-2.80144e-07
-2.91846e-07
-3.02399e-07
-3.11912e-07
-3.20563e-07
-3.28646e-07
-3.36304e-07
-3.43655e-07
-3.50584e-07
-3.57034e-07
-3.6281e-07
-3.67948e-07
-3.7239e-07
-3.76364e-07
-3.79883e-07
-3.83214e-07
-3.86256e-07
-3.89197e-07
-3.91783e-07
-3.94207e-07
-3.96163e-07
-3.97978e-07
-3.99339e-07
-4.00723e-07
-4.01729e-07
-4.02933e-07
-4.03746e-07
-4.0485e-07
-4.05441e-07
-4.06393e-07
-4.06686e-07
-4.07488e-07
-4.07506e-07
-4.08272e-07
-4.08104e-07
-4.08965e-07
-4.08649e-07
-4.09673e-07
-4.09162e-07
-4.10378e-07
-4.09599e-07
-4.11068e-07
-4.09974e-07
-4.11819e-07
-4.10371e-07
-4.12747e-07
-4.10877e-07
-4.13948e-07
-4.11533e-07
-4.15485e-07
-4.12368e-07
-4.17438e-07
-4.13441e-07
-4.19934e-07
-4.14866e-07
-4.23145e-07
-4.16805e-07
-4.27252e-07
-4.19461e-07
-4.32384e-07
-4.23098e-07
-4.38492e-07
-4.28045e-07
-4.44946e-07
-4.34631e-07
-4.49373e-07
-4.42868e-07
-4.43912e-07
-4.51313e-07
-4.00079e-07
-4.51674e-07
-1.50299e-07
-3.09786e-07
-3.09786e-07
-0.122226
0.122226
0.121664
0.0822682
0.0539952
0.0368645
0.0263936
0.0197168
0.0152661
0.0121806
0.00996893
0.00833717
0.00710222
0.00614583
0.00538949
0.00477983
0.00427983
0.00386333
0.00351158
0.00321086
0.002951
0.00272435
0.00252505
0.00234855
0.00219125
0.00205028
0.00192334
0.00180851
0.00170422
0.00160917
0.00152224
0.0014425
0.00136915
0.0013015
0.00123894
0.00118097
0.00112712
0.00107701
0.00103027
0.000986613
0.000945753
0.000907448
0.000871483
0.000837662
0.000805812
0.000775776
0.000747413
0.000720596
0.000695209
0.000671148
0.000648317
0.00062663
0.000606007
0.000586377
0.000567673
0.000549834
0.000532805
0.000516534
0.000500975
0.000486084
0.00047182
0.000458146
0.000445028
0.000432434
0.000420335
0.000408703
0.000397512
0.000386738
0.000376361
0.000366358
0.00035671
0.000347401
0.000338412
0.000329728
0.000321334
0.000313217
0.000305363
0.000297761
0.000290398
0.000283265
0.000276351
0.000269647
0.000263143
0.000256832
0.000250704
0.000244754
0.000238973
0.000233355
0.000227894
0.000222583
0.000217418
0.000212392
0.0002075
0.000202738
0.000198101
0.000193584
0.000189184
0.000184897
0.000180718
0.000176644
0.000172672
0.000168798
0.000165019
0.000161333
0.000157736
0.000154226
0.0001508
0.000147455
0.00014419
0.000141001
0.000137888
0.000134847
0.000131876
0.000128974
0.000126139
0.000123369
0.000120661
0.000118016
0.00011543
0.000112902
0.000110432
0.000108016
0.000105655
0.000103346
0.000101089
9.88813e-05
9.67227e-05
9.46118e-05
9.25474e-05
9.05285e-05
8.85538e-05
8.66225e-05
8.47334e-05
8.28855e-05
8.10781e-05
7.931e-05
7.75805e-05
7.58887e-05
7.42337e-05
7.26147e-05
7.10309e-05
6.94814e-05
6.79656e-05
6.64827e-05
6.50321e-05
6.36129e-05
6.22247e-05
6.08667e-05
5.95382e-05
5.82386e-05
5.69673e-05
5.57236e-05
5.45069e-05
5.33168e-05
5.21526e-05
5.10138e-05
4.98999e-05
4.88103e-05
4.77446e-05
4.67021e-05
4.56824e-05
4.4685e-05
4.37094e-05
4.27552e-05
4.1822e-05
4.09092e-05
4.00166e-05
3.91436e-05
3.82897e-05
3.74546e-05
3.66379e-05
3.5839e-05
3.50577e-05
3.42934e-05
3.35461e-05
3.28152e-05
3.21004e-05
3.14014e-05
3.07177e-05
3.00489e-05
2.93947e-05
2.87548e-05
2.81289e-05
2.75168e-05
2.69181e-05
2.63326e-05
2.57598e-05
2.51996e-05
2.46517e-05
2.41157e-05
2.35914e-05
2.30784e-05
2.25764e-05
2.20854e-05
2.16051e-05
2.11354e-05
2.06762e-05
2.02269e-05
1.97872e-05
1.93569e-05
1.89359e-05
1.8524e-05
1.81213e-05
1.77275e-05
1.73422e-05
1.69652e-05
1.65964e-05
1.62356e-05
1.5883e-05
1.55381e-05
1.52007e-05
1.48704e-05
1.4547e-05
1.42307e-05
1.39214e-05
1.36194e-05
1.33242e-05
1.30354e-05
1.27526e-05
1.24756e-05
1.22043e-05
1.19391e-05
1.168e-05
1.14268e-05
1.11791e-05
1.09366e-05
1.0699e-05
1.04665e-05
1.02392e-05
1.0017e-05
9.79955e-06
9.5865e-06
9.3776e-06
9.1729e-06
8.97268e-06
8.77714e-06
8.58617e-06
8.39934e-06
8.21607e-06
8.03599e-06
7.85914e-06
7.68587e-06
7.51655e-06
7.35124e-06
7.18963e-06
7.03118e-06
6.87548e-06
6.72244e-06
6.57221e-06
6.42501e-06
6.28082e-06
6.13937e-06
6.00031e-06
5.86343e-06
5.72883e-06
5.5967e-06
5.46714e-06
5.3399e-06
5.21444e-06
5.09022e-06
4.96701e-06
4.84503e-06
4.72476e-06
4.60658e-06
4.49041e-06
4.3757e-06
4.26169e-06
4.14788e-06
4.03421e-06
3.92111e-06
3.8091e-06
3.69843e-06
3.5889e-06
3.48003e-06
3.37139e-06
3.26287e-06
3.15477e-06
3.04751e-06
2.94128e-06
2.83593e-06
2.73107e-06
2.6264e-06
2.52202e-06
2.41848e-06
2.31649e-06
2.21645e-06
2.1182e-06
2.02102e-06
1.92412e-06
1.8271e-06
1.73033e-06
1.6348e-06
1.54166e-06
1.45153e-06
1.36419e-06
1.27868e-06
1.1938e-06
1.10884e-06
1.02398e-06
9.40247e-07
8.59014e-07
7.81298e-07
7.07272e-07
6.36208e-07
5.66906e-07
4.98342e-07
4.30212e-07
3.63076e-07
2.98072e-07
2.3633e-07
1.78444e-07
1.24203e-07
7.27696e-08
2.30948e-08
-2.55394e-08
-7.32443e-08
-1.19498e-07
-1.63494e-07
-2.04519e-07
-2.42341e-07
-2.77235e-07
-3.09897e-07
-3.41033e-07
-3.71146e-07
-4.00263e-07
-4.28105e-07
-4.54153e-07
-4.78065e-07
-4.99676e-07
-5.19251e-07
-5.3714e-07
-5.53872e-07
-5.6967e-07
-5.84721e-07
-5.98791e-07
-6.11794e-07
-6.23396e-07
-6.33719e-07
-6.42681e-07
-6.50735e-07
-6.57893e-07
-6.64649e-07
-6.70779e-07
-6.76648e-07
-6.81759e-07
-6.86519e-07
-6.90345e-07
-6.93903e-07
-6.96579e-07
-6.99314e-07
-7.013e-07
-7.03665e-07
-7.05236e-07
-7.07362e-07
-7.08455e-07
-7.1026e-07
-7.10763e-07
-7.12286e-07
-7.12268e-07
-7.13741e-07
-7.13365e-07
-7.15029e-07
-7.1435e-07
-7.16327e-07
-7.15253e-07
-7.17605e-07
-7.16005e-07
-7.18871e-07
-7.16659e-07
-7.20284e-07
-7.17382e-07
-7.22068e-07
-7.1833e-07
-7.244e-07
-7.19583e-07
-7.2741e-07
-7.21206e-07
-7.3127e-07
-7.23329e-07
-7.3625e-07
-7.26188e-07
-7.42703e-07
-7.30103e-07
-7.51005e-07
-7.35485e-07
-7.61457e-07
-7.42856e-07
-7.74031e-07
-7.52851e-07
-7.87646e-07
-7.66047e-07
-7.97995e-07
-7.82192e-07
-7.90719e-07
-7.97415e-07
-7.14866e-07
-7.90594e-07
-3.07384e-07
-5.12945e-07
-5.12945e-07
-0.0942785
0.0942785
0.121016
0.09697
0.0717943
0.0531989
0.0402018
0.0311124
0.0246588
0.0199863
0.0165333
0.0139292
0.0119264
0.0103567
0.00910432
0.00808821
0.00725087
0.00655098
0.00595841
0.0054509
0.00501181
0.00462847
0.00429115
0.00399224
0.00372573
0.0034868
0.00327155
0.00307678
0.00289984
0.00273851
0.00259093
0.00245552
0.00233092
0.00221596
0.00210964
0.00201108
0.00191951
0.00183428
0.00175477
0.00168048
0.00161094
0.00154574
0.00148451
0.00142692
0.00137268
0.00132152
0.0012732
0.00122751
0.00118425
0.00114325
0.00110434
0.00106737
0.00103222
0.000998755
0.000966866
0.00093645
0.000907414
0.000879669
0.000853135
0.000827739
0.000803412
0.000780091
0.000757717
0.000736237
0.0007156
0.000695758
0.00067667
0.000658293
0.000640592
0.00062353
0.000607074
0.000591195
0.000575863
0.000561051
0.000546735
0.000532891
0.000519496
0.000506531
0.000493976
0.000481812
0.000470022
0.00045859
0.000447501
0.00043674
0.000426294
0.000416149
0.000406295
0.000396719
0.000387411
0.00037836
0.000369557
0.000360992
0.000352656
0.000344543
0.000336642
0.000328948
0.000321452
0.000314149
0.000307031
0.000300093
0.000293329
0.000286733
0.000280299
0.000274023
0.000267899
0.000261924
0.000256092
0.0002504
0.000244843
0.000239418
0.000234119
0.000228945
0.000223891
0.000218955
0.000214132
0.00020942
0.000204815
0.000200316
0.000195919
0.000191621
0.00018742
0.000183313
0.000179299
0.000175374
0.000171537
0.000167785
0.000164116
0.000160529
0.000157021
0.00015359
0.000150235
0.000146954
0.000143745
0.000140605
0.000137535
0.000134532
0.000131594
0.000128721
0.00012591
0.000123161
0.000120472
0.000117841
0.000115267
0.000112749
0.000110287
0.000107878
0.000105521
0.000103216
0.000100961
9.87556e-05
9.6598e-05
9.44874e-05
9.24229e-05
9.04034e-05
8.84281e-05
8.64959e-05
8.46062e-05
8.27578e-05
8.09499e-05
7.91816e-05
7.74521e-05
7.57604e-05
7.41058e-05
7.24877e-05
7.09051e-05
6.93575e-05
6.78439e-05
6.63637e-05
6.49161e-05
6.35004e-05
6.21159e-05
6.07617e-05
5.94374e-05
5.81421e-05
5.68755e-05
5.56369e-05
5.44257e-05
5.32412e-05
5.20827e-05
5.09495e-05
4.98412e-05
4.87572e-05
4.7697e-05
4.66602e-05
4.56462e-05
4.46544e-05
4.36844e-05
4.27357e-05
4.18078e-05
4.09003e-05
4.00124e-05
3.91438e-05
3.8294e-05
3.74626e-05
3.66496e-05
3.58546e-05
3.50772e-05
3.43166e-05
3.35724e-05
3.28441e-05
3.21316e-05
3.14347e-05
3.07532e-05
3.00868e-05
2.94349e-05
2.8797e-05
2.8173e-05
2.75628e-05
2.69662e-05
2.63827e-05
2.58119e-05
2.52532e-05
2.47063e-05
2.41714e-05
2.36485e-05
2.31377e-05
2.26384e-05
2.215e-05
2.16718e-05
2.12033e-05
2.07449e-05
2.02966e-05
1.98586e-05
1.94306e-05
1.90118e-05
1.86018e-05
1.82003e-05
1.78074e-05
1.74231e-05
1.70475e-05
1.66799e-05
1.63198e-05
1.59668e-05
1.5621e-05
1.52827e-05
1.49522e-05
1.46294e-05
1.43134e-05
1.40034e-05
1.36989e-05
1.34001e-05
1.31073e-05
1.28212e-05
1.25416e-05
1.22682e-05
1.2e-05
1.17365e-05
1.14775e-05
1.12233e-05
1.09741e-05
1.073e-05
1.04904e-05
1.02548e-05
1.00229e-05
9.79478e-06
9.57079e-06
9.35097e-06
9.1349e-06
8.92176e-06
8.71074e-06
8.50154e-06
8.29451e-06
8.09033e-06
7.88948e-06
7.69175e-06
7.49628e-06
7.30196e-06
7.10805e-06
6.91456e-06
6.72213e-06
6.53151e-06
6.343e-06
6.15626e-06
5.97056e-06
5.78529e-06
5.60037e-06
5.41625e-06
5.23355e-06
5.05255e-06
4.873e-06
4.69435e-06
4.51621e-06
4.3388e-06
4.16296e-06
3.98972e-06
3.81962e-06
3.65235e-06
3.48687e-06
3.32205e-06
3.15743e-06
2.99368e-06
2.83229e-06
2.6749e-06
2.52231e-06
2.37411e-06
2.22881e-06
2.08474e-06
1.94098e-06
1.79796e-06
1.65727e-06
1.52093e-06
1.39031e-06
1.26554e-06
1.14545e-06
1.02829e-06
9.12655e-07
7.98245e-07
6.86006e-07
5.77649e-07
4.74771e-07
3.7812e-07
2.87261e-07
2.00891e-07
1.17486e-07
3.60754e-08
-4.34038e-08
-1.20117e-07
-1.92886e-07
-2.60731e-07
-3.23418e-07
-3.81448e-07
-4.35893e-07
-4.87778e-07
-5.37798e-07
-5.85927e-07
-6.3173e-07
-6.74448e-07
-7.13638e-07
-7.49119e-07
-7.81355e-07
-8.10885e-07
-8.38504e-07
-8.64504e-07
-8.89152e-07
-9.1207e-07
-9.33165e-07
-9.51952e-07
-9.68684e-07
-9.83249e-07
-9.96377e-07
-1.00805e-06
-1.01906e-06
-1.02898e-06
-1.03844e-06
-1.04662e-06
-1.05421e-06
-1.0603e-06
-1.06598e-06
-1.07026e-06
-1.07466e-06
-1.07783e-06
-1.08162e-06
-1.08409e-06
-1.08745e-06
-1.08911e-06
-1.09195e-06
-1.09267e-06
-1.09508e-06
-1.09498e-06
-1.09734e-06
-1.09667e-06
-1.09934e-06
-1.09817e-06
-1.10134e-06
-1.09951e-06
-1.1033e-06
-1.10061e-06
-1.10525e-06
-1.10158e-06
-1.10748e-06
-1.10267e-06
-1.11031e-06
-1.10413e-06
-1.11404e-06
-1.10607e-06
-1.11886e-06
-1.10861e-06
-1.12508e-06
-1.11195e-06
-1.13314e-06
-1.11648e-06
-1.14362e-06
-1.12271e-06
-1.15716e-06
-1.13128e-06
-1.1743e-06
-1.14301e-06
-1.19512e-06
-1.15886e-06
-1.21817e-06
-1.17962e-06
-1.23732e-06
-1.20444e-06
-1.23199e-06