# vtk DataFile Version 2.0
FlowField
ASCII
DATASET STRUCTURED_GRID
DIMENSIONS 400 1 50
POINTS 20000 float
0 0 0
0.08 0 0
0.16 0 0
0.24 0 0
0.32 0 0
0.4 0 0
0.48 0 0
0.56 0 0
0.64 0 0
0.72 0 0
0.8 0 0
0.88 0 0
0.96 0 0
1.04 0 0
1.12 0 0
1.2 0 0
1.28 0 0
1.36 0 0
1.44 0 0
1.52 0 0
1.6 0 0
1.68 0 0
1.76 0 0
1.84 0 0
1.92 0 0
2 0 0
2.08 0 0
2.16 0 0
2.24 0 0
2.32 0 0
2.4 0 0
2.48 0 0
2.56 0 0
2.64 0 0
2.72 0 0
2.8 0 0
2.88 0 0
2.96 0 0
3.04 0 0
3.12 0 0
3.2 0 0
3.28 0 0
3.36 0 0
3.44 0 0
3.52 0 0
3.6 0 0
3.68 0 0
3.76 0 0
3.84 0 0
3.92 0 0
4 0 0
4.08 0 0
4.16 0 0
4.24 0 0
4.32 0 0
4.4 0 0
4.48 0 0
4.56 0 0
4.64 0 0
4.72 0 0
4.8 0 0
4.88 0 0
4.96 0 0
5.04 0 0
5.12 0 0
5.2 0 0
5.28 0 0
5.36 0 0
5.44 0 0
5.52 0 0
5.6 0 0
5.68 0 0
5.76 0 0
5.84 0 0
5.92 0 0
6 0 0
6.08 0 0
6.16 0 0
6.24 0 0
6.32 0 0
6.4 0 0
6.48 0 0
6.56 0 0
6.64 0 0
6.72 0 0
6.8 0 0
6.88 0 0
6.96 0 0
7.04 0 0
7.12 0 0
7.2 0 0
7.28 0 0
7.36 0 0
7.44 0 0
7.52 0 0
7.6 0 0
7.68 0 0
7.76 0 0
7.84 0 0
7.92 0 0
8 0 0
8.08 0 0
8.16 0 0
8.24 0 0
8.32 0 0
8.4 0 0
8.48 0 0
8.56 0 0
8.64 0 0
8.72 0 0
8.8 0 0
8.88 0 0
8.96 0 0
9.04 0 0
9.12 0 0
9.2 0 0
9.28 0 0
9.36 0 0
9.44 0 0
9.52 0 0
9.6 0 0
9.68 0 0
9.76 0 0
9.84 0 0
9.92 0 0
10 0 0
10.08 0 0
10.16 0 0
10.24 0 0
10.32 0 0
10.4 0 0
10.48 0 0
10.56 0 0
10.64 0 0
10.72 0 0
10.8 0 0
10.88 0 0
10.96 0 0
11.04 0 0
11.12 0 0
11.2 0 0
11.28 0 0
11.36 0 0
11.44 0 0
11.52 0 0
11.6 0 0
11.68 0 0
11.76 0 0
11.84 0 0
11.92 0 0
12 0 0
12.08 0 0
12.16 0 0
12.24 0 0
12.32 0 0
12.4 0 0
12.48 0 0
12.56 0 0
12.64 0 0
12.72 0 0
12.8 0 0
12.88 0 0
12.96 0 0
13.04 0 0
13.12 0 0
13.2 0 0
13.28 0 0
13.36 0 0
13.44 0 0
13.52 0 0
13.6 0 0
13.68 0 0
13.76 0 0
13.84 0 0
13.92 0 0
14 0 0
14.08 0 0
14.16 0 0
14.24 0 0
14.32 0 0
14.4 0 0
14.48 0 0
14.56 0 0
14.64 0 0
14.72 0 0
14.8 0 0
14.88 0 0
14.96 0 0
15.04 0 0
15.12 0 0
15.2 0 0
15.28 0 0
15.36 0 0
15.44 0 0
15.52 0 0
15.6 0 0
15.68 0 0
15.76 0 0
15.84 0 0
15.92 0 0
16 0 0
16.08 0 0
16.16 0 0
16.24 0 0
16.32 0 0
16.4 0 0
16.48 0 0
16.56 0 0
16.64 0 0
16.72 0 0
16.8 0 0
16.88 0 0
16.96 0 0
17.04 0 0
17.12 0 0
17.2 0 0
17.28 0 0
17.36 0 0
17.44 0 0
17.52 0 0
17.6 0 0
17.68 0 0
17.76 0 0
17.84 0 0
17.92 0 0
18 0 0
18.08 0 0
18.16 0 0
18.24 0 0
18.32 0 0
18.4 0 0
18.48 0 0
18.56 0 0
18.64 0 0
18.72 0 0
18.8 0 0
18.88 0 0
18.96 0 0
19.04 0 0
19.12 0 0
19.2 0 0
19.28 0 0
19.36 0 0
19.44 0 0
19.52 0 0
19.6 0 0
19.68 0 0
19.76 0 0
19.84 0 0
19.92 0 0
20 0 0
20.08 0 0
20.16 0 0
20.24 0 0
20.32 0 0
20.4 0 0
20.48 0 0
20.56 0 0
20.64 0 0
20.72 0 0
20.8 0 0
20.88 0 0
20.96 0 0
21.04 0 0
21.12 0 0
21.2 0 0
21.28 0 0
21.36 0 0
21.44 0 0
21.52 0 0
21.6 0 0
21.68 0 0
21.76 0 0
21.84 0 0
21.92 0 0
22 0 0
22.08 0 0
22.16 0 0
22.24 0 0
22.32 0 0
22.4 0 0
22.48 0 0
22.56 0 0
22.64 0 0
22.72 0 0
22.8 0 0
22.88 0 0
22.96 0 0
23.04 0 0
23.12 0 0
23.2 0 0
23.28 0 0
23.36 0 0
23.44 0 0
23.52 0 0
23.6 0 0
23.68 0 0
23.76 0 0
23.84 0 0
23.92 0 0
24 0 0
24.08 0 0
24.16 0 0
24.24 0 0
24.32 0 0
24.4 0 0
24.48 0 0
24.56 0 0
24.64 0 0
24.72 0 0
24.8 0 0
24.88 0 0
24.96 0 0
25.04 0 0
25.12 0 0
25.2 0 0
25.28 0 0
25.36 0 0
25.44 0 0
25.52 0 0
25.6 0 0
25.68 0 0
25.76 0 0
25.84 0 0
25.92 0 0
26 0 0
26.08 0 0
26.16 0 0
26.24 0 0
26.32 0 0
26.4 0 0
26.48 0 0
26.56 0 0
26.64 0 0
26.72 0 0
26.8 0 0
26.88 0 0
26.96 0 0
27.04 0 0
27.12 0 0
27.2 0 0
27.28 0 0
27.36 0 0
27.44 0 0
27.52 0 0
27.6 0 0
27.68 0 0
27.76 0 0
27.84 0 0
27.92 0 0
28 0 0
28.08 0 0
28.16 0 0
28.24 0 0
28.32 0 0
28.4 0 0
28.48 0 0
28.56 0 0
28.64 0 0
28.72 0 0
28.8 0 0
28.88 0 0
28.96 0 0
29.04 0 0
29.12 0 0
29.2 0 0
29.28 0 0
29.36 0 0
29.44 0 0
29.52 0 0
29.6 0 0
29.68 0 0
29.76 0 0
29.84 0 0
29.92 0 0
30 0 0
30.08 0 0
30.16 0 0
30.24 0 0
30.32 0 0
30.4 0 0
30.48 0 0
30.56 0 0
30.64 0 0
30.72 0 0
30.8 0 0
30.88 0 0
30.96 0 0
31.04 0 0
31.12 0 0
31.2 0 0
31.28 0 0
31.36 0 0
31.44 0 0
31.52 0 0
31.6 0 0
31.68 0 0
31.76 0 0
31.84 0 0
31.92 0 0
0 0.02 0
0.08 0.02 0
0.16 0.02 0
0.24 0.02 0
0.32 0.02 0
0.4 0.02 0
0.48 0.02 0
0.56 0.02 0
0.64 0.02 0
0.72 0.02 0
0.8 0.02 0
0.88 0.02 0
0.96 0.02 0
1.04 0.02 0
1.12 0.02 0
1.2 0.02 0
1.28 0.02 0
1.36 0.02 0
1.44 0.02 0
1.52 0.02 0
1.6 0.02 0
1.68 0.02 0
1.76 0.02 0
1.84 0.02 0
1.92 0.02 0
2 0.02 0
2.08 0.02 0
2.16 0.02 0
2.24 0.02 0
2.32 0.02 0
2.4 0.02 0
2.48 0.02 0
2.56 0.02 0
2.64 0.02 0
2.72 0.02 0
2.8 0.02 0
2.88 0.02 0
2.96 0.02 0
3.04 0.02 0
3.12 0.02 0
3.2 0.02 0
3.28 0.02 0
3.36 0.02 0
3.44 0.02 0
3.52 0.02 0
3.6 0.02 0
3.68 0.02 0
3.76 0.02 0
3.84 0.02 0
3.92 0.02 0
4 0.02 0
4.08 0.02 0
4.16 0.02 0
4.24 0.02 0
4.32 0.02 0
4.4 0.02 0
4.48 0.02 0
4.56 0.02 0
4.64 0.02 0
4.72 0.02 0
4.8 0.02 0
4.88 0.02 0
4.96 0.02 0
5.04 0.02 0
5.12 0.02 0
5.2 0.02 0
5.28 0.02 0
5.36 0.02 0
5.44 0.02 0
5.52 0.02 0
5.6 0.02 0
5.68 0.02 0
5.76 0.02 0
5.84 0.02 0
5.92 0.02 0
6 0.02 0
6.08 0.02 0
6.16 0.02 0
6.24 0.02 0
6.32 0.02 0
6.4 0.02 0
6.48 0.02 0
6.56 0.02 0
6.64 0.02 0
6.72 0.02 0
6.8 0.02 0
6.88 0.02 0
6.96 0.02 0
7.04 0.02 0
7.12 0.02 0
7.2 0.02 0
7.28 0.02 0
7.36 0.02 0
7.44 0.02 0
7.52 0.02 0
7.6 0.02 0
7.68 0.02 0
7.76 0.02 0
7.84 0.02 0
7.92 0.02 0
8 0.02 0
8.08 0.02 0
8.16 0.02 0
8.24 0.02 0
8.32 0.02 0
8.4 0.02 0
8.48 0.02 0
8.56 0.02 0
8.64 0.02 0
8.72 0.02 0
8.8 0.02 0
8.88 0.02 0
8.96 0.02 0
9.04 0.02 0
9.12 0.02 0
9.2 0.02 0
9.28 0.02 0
9.36 0.02 0
9.44 0.02 0
9.52 0.02 0
9.6 0.02 0
9.68 0.02 0
9.76 0.02 0
9.84 0.02 0
9.92 0.02 0
10 0.02 0
10.08 0.02 0
10.16 0.02 0
10.24 0.02 0
10.32 0.02 0
10.4 0.02 0
10.48 0.02 0
10.56 0.02 0
10.64 0.02 0
10.72 0.02 0
10.8 0.02 0
10.88 0.02 0
10.96 0.02 0
11.04 0.02 0
11.12 0.02 0
11.2 0.02 0
11.28 0.02 0
11.36 0.02 0
11.44 0.02 0
11.52 0.02 0
11.6 0.02 0
11.68 0.02 0
11.76 0.02 0
11.84 0.02 0
11.92 0.02 0
12 0.02 0
12.08 0.02 0
12.16 0.02 0
12.24 0.02 0
12.32 0.02 0
12.4 0.02 0
12.48 0.02 0
12.56 0.02 0
12.64 0.02 0
12.72 0.02 0
12.8 0.02 0
12.88 0.02 0
12.96 0.02 0
13.04 0.02 0
13.12 0.02 0
13.2 0.02 0
13.28 0.02 0
13.36 0.02 0
13.44 0.02 0
13.52 0.02 0
13.6 0.02 0
13.68 0.02 0
13.76 0.02 0
13.84 0.02 0
13.92 0.02 0
14 0.02 0
14.08 0.02 0
14.16 0.02 0
14.24 0.02 0
14.32 0.02 0
14.4 0.02 0
14.48 0.02 0
14.56 0.02 0
14.64 0.02 0
14.72 0.02 0
14.8 0.02 0
14.88 0.02 0
14.96 0.02 0
15.04 0.02 0
15.12 0.02 0
15.2 0.02 0
15.28 0.02 0
15.36 0.02 0
15.44 0.02 0
15.52 0.02 0
15.6 0.02 0
15.68 0.02 0
15.76 0.02 0
15.84 0.02 0
15.92 0.02 0
16 0.02 0
16.08 0.02 0
16.16 0.02 0
16.24 0.02 0
16.32 0.02 0
16.4 0.02 0
16.48 0.02 0
16.56 0.02 0
16.64 0.02 0
16.72 0.02 0
16.8 0.02 0
16.88 0.02 0
16.96 0.02 0
17.04 0.02 0
17.12 0.02 0
17.2 0.02 0
17.28 0.02 0
17.36 0.02 0
17.44 0.02 0
17.52 0.02 0
17.6 0.02 0
17.68 0.02 0
17.76 0.02 0
17.84 0.02 0
17.92 0.02 0
18 0.02 0
18.08 0.02 0
18.16 0.02 0
18.24 0.02 0
18.32 0.02 0
18.4 0.02 0
18.48 0.02 0
18.56 0.02 0
18.64 0.02 0
18.72 0.02 0
18.8 0.02 0
18.88 0.02 0
18.96 0.02 0
19.04 0.02 0
19.12 0.02 0
19.2 0.02 0
19.28 0.02 0
19.36 0.02 0
19.44 0.02 0
19.52 0.02 0
19.6 0.02 0
19.68 0.02 0
19.76 0.02 0
19.84 0.02 0
19.92 0.02 0
20 0.02 0
20.08 0.02 0
20.16 0.02 0
20.24 0.02 0
20.32 0.02 0
20.4 0.02 0
20.48 0.02 0
20.56 0.02 0
20.64 0.02 0
20.72 0.02 0
20.8 0.02 0
20.88 0.02 0
20.96 0.02 0
21.04 0.02 0
21.12 0.02 0
21.2 0.02 0
21.28 0.02 0
21.36 0.02 0
21.44 0.02 0
21.52 0.02 0
21.6 0.02 0
21.68 0.02 0
21.76 0.02 0
21.84 0.02 0
21.92 0.02 0
22 0.02 0
22.08 0.02 0
22.16 0.02 0
22.24 0.02 0
22.32 0.02 0
22.4 0.02 0
22.48 0.02 0
22.56 0.02 0
22.64 0.02 0
22.72 0.02 0
22.8 0.02 0
22.88 0.02 0
22.96 0.02 0
23.04 0.02 0
23.12 0.02 0
23.2 0.02 0
23.28 0.02 0
23.36 0.02 0
23.44 0.02 0
23.52 0.02 0
23.6 0.02 0
23.68 0.02 0
23.76 0.02 0
23.84 0.02 0
23.92 0.02 0
24 0.02 0
24.08 0.02 0
24.16 0.02 0
24.24 0.02 0
24.32 0.02 0
24.4 0.02 0
24.48 0.02 0
24.56 0.02 0
24.64 0.02 0
24.72 0.02 0
24.8 0.02 0
24.88 0.02 0
24.96 0.02 0
25.04 0.02 0
25.12 0.02 0
25.2 0.02 0
25.28 0.02 0
25.36 0.02 0
25.44 0.02 0
25.52 0.02 0
25.6 0.02 0
25.68 0.02 0
25.76 0.02 0
25.84 0.02 0
25.92 0.02 0
26 0.02 0
26.08 0.02 0
26.16 0.02 0
26.24 0.02 0
26.32 0.02 0
26.4 0.02 0
26.48 0.02 0
26.56 0.02 0
26.64 0.02 0
26.72 0.02 0
26.8 0.02 0
26.88 0.02 0
26.96 0.02 0
27.04 0.02 0
27.12 0.02 0
27.2 0.02 0
27.28 0.02 0
27.36 0.02 0
27.44 0.02 0
27.52 0.02 0
27.6 0.02 0
27.68 0.02 0
27.76 0.02 0
27.84 0.02 0
27.92 0.02 0
28 0.02 0
28.08 0.02 0
28.16 0.02 0
28.24 0.02 0
28.32 0.02 0
28.4 0.02 0
28.48 0.02 0
28.56 0.02 0
28.64 0.02 0
28.72 0.02 0
28.8 0.02 0
28.88 0.02 0
28.96 0.02 0
29.04 0.02 0
29.12 0.02 0
29.2 0.02 0
29.28 0.02 0
29.36 0.02 0
29.44 0.02 0
29.52 0.02 0
29.6 0.02 0
29.68 0.02 0
29.76 0.02 0
29.84 0.02 0
29.92 0.02 0
30 0.02 0
30.08 0.02 0
30.16 0.02 0
30.24 0.02 0
30.32 0.02 0
30.4 0.02 0
30.48 0.02 0
30.56 0.02 0
30.64 0.02 0
30.72 0.02 0
30.8 0.02 0
30.88 0.02 0
30.96 0.02 0
31.04 0.02 0
31.12 0.02 0
31.2 0.02 0
31.28 0.02 0
31.36 0.02 0
31.44 0.02 0
31.52 0.02 0
31.6 0.02 0
31.68 0.02 0
31.76 0.02 0
31.84 0.02 0
31.92 0.02 0
0 0.04 0
0.08 0.04 0
0.16 0.04 0
0.24 0.04 0
0.32 0.04 0
0.4 0.04 0
0.48 0.04 0
0.56 0.04 0
0.64 0.04 0
0.72 0.04 0
0.8 0.04 0
0.88 0.04 0
0.96 0.04 0
1.04 0.04 0
1.12 0.04 0
1.2 0.04 0
1.28 0.04 0
1.36 0.04 0
1.44 0.04 0
1.52 0.04 0
1.6 0.04 0
1.68 0.04 0
1.76 0.04 0
1.84 0.04 0
1.92 0.04 0
2 0.04 0
2.08 0.04 0
2.16 0.04 0
2.24 0.04 0
2.32 0.04 0
2.4 0.04 0
2.48 0.04 0
2.56 0.04 0
2.64 0.04 0
2.72 0.04 0
2.8 0.04 0
2.88 0.04 0
2.96 0.04 0
3.04 0.04 0
3.12 0.04 0
3.2 0.04 0
3.28 0.04 0
3.36 0.04 0
3.44 0.04 0
3.52 0.04 0
3.6 0.04 0
3.68 0.04 0
3.76 0.04 0
3.84 0.04 0
3.92 0.04 0
4 0.04 0
4.08 0.04 0
4.16 0.04 0
4.24 0.04 0
4.32 0.04 0
4.4 0.04 0
4.48 0.04 0
4.56 0.04 0
4.64 0.04 0
4.72 0.04 0
4.8 0.04 0
4.88 0.04 0
4.96 0.04 0
5.04 0.04 0
5.12 0.04 0
5.2 0.04 0
5.28 0.04 0
5.36 0.04 0
5.44 0.04 0
5.52 0.04 0
5.6 0.04 0
5.68 0.04 0
5.76 0.04 0
5.84 0.04 0
5.92 0.04 0
6 0.04 0
6.08 0.04 0
6.16 0.04 0
6.24 0.04 0
6.32 0.04 0
6.4 0.04 0
6.48 0.04 0
6.56 0.04 0
6.64 0.04 0
6.72 0.04 0
6.8 0.04 0
6.88 0.04 0
6.96 0.04 0
7.04 0.04 0
7.12 0.04 0
7.2 0.04 0
7.28 0.04 0
7.36 0.04 0
7.44 0.04 0
7.52 0.04 0
7.6 0.04 0
7.68 0.04 0
7.76 0.04 0
7.84 0.04 0
[...]
POINT_DATA 20000

SCALARS u float 1
LOOKUP_TABLE default
0
-0.507088
-0.291918
-0.214159
-0.179023
-0.158662
-0.145108
-0.135357
-0.127964
-0.122137
-0.117398
-0.113447
-0.110083
-0.10717
-0.104612
-0.102338
-0.100299
-0.098454
-0.0967741
-0.0952356
-0.0938195
-0.0925106
-0.091296
-0.0901653
-0.0891094
-0.0881207
-0.0871927
-0.0863195
-0.0854963
-0.0847186
-0.0839826
-0.0832849
-0.0826224
-0.0819925
-0.0813926
-0.0808206
-0.0802745
-0.0797526
-0.0792532
-0.0787748
-0.0783161
-0.0778758
-0.0774529
-0.0770463
-0.0766551
-0.0762784
-0.0759154
-0.0755654
-0.0752275
-0.0749014
-0.0745862
-0.0742816
-0.0739869
-0.0737017
-0.0734255
-0.073158
-0.0728987
-0.0726473
-0.0724034
-0.0721668
-0.071937
-0.0717139
-0.0714971
-0.0712865
-0.0710817
-0.0708826
-0.0706889
-0.0705004
-0.0703169
-0.0701384
-0.0699645
-0.0697951
-0.0696302
-0.0694694
-0.0693127
-0.06916
-0.0690111
-0.0688659
-0.0687243
-0.0685862
-0.0684514
-0.06832
-0.0681917
-0.0680664
-0.0679442
-0.0678249
-0.0677084
-0.0675947
-0.0674836
-0.0673752
-0.0672692
-0.0671657
-0.0670646
-0.0669659
-0.0668694
-0.0667751
-0.066683
-0.066593
-0.066505
-0.066419
-0.066335
-0.0662529
-0.0661726
-0.0660941
-0.0660174
-0.0659424
-0.0658691
-0.0657974
-0.0657273
-0.0656588
-0.0655918
-0.0655263
-0.0654622
-0.0653995
-0.0653382
-0.0652783
-0.0652197
-0.0651623
-0.0651062
-0.0650514
-0.0649977
-0.0649452
-0.0648939
-0.0648437
-0.0647945
-0.0647465
-0.0646994
-0.0646534
-0.0646084
-0.0645643
-0.0645212
-0.0644791
-0.0644378
-0.0643975
-0.0643579
-0.0643193
-0.0642814
-0.0642444
-0.0642082
-0.0641727
-0.064138
-0.0641041
-0.0640709
-0.0640384
-0.0640066
-0.0639754
-0.063945
-0.0639151
-0.063886
-0.0638574
-0.0638295
-0.0638022
-0.0637754
-0.0637493
-0.0637237
-0.0636986
-0.063674
-0.06365
-0.0636265
-0.0636036
-0.0635811
-0.0635591
-0.0635376
-0.0635165
-0.0634959
-0.0634757
-0.0634559
-0.0634366
-0.0634177
-0.0633991
-0.063381
-0.0633633
-0.063346
-0.0633291
-0.0633125
-0.0632962
-0.0632803
-0.0632648
-0.0632496
-0.0632348
-0.0632204
-0.0632063
-0.0631925
-0.063179
-0.0631659
-0.0631531
-0.0631407
-0.0631286
-0.0631168
-0.0631053
-0.0630943
-0.0630835
-0.0630732
-0.0630631
-0.0630533
-0.0630439
-0.0630347
-0.0630259
-0.0630175
-0.0630094
-0.0630017
-0.0629943
-0.0629872
-0.0629804
-0.0629739
-0.0629676
-0.0629616
-0.0629561
-0.0629508
-0.0629459
-0.0629413
-0.0629369
-0.0629328
-0.0629289
-0.0629252
-0.0629219
-0.0629188
-0.0629161
-0.0629136
-0.0629113
-0.0629092
-0.0629073
-0.0629056
-0.0629042
-0.0629029
-0.0629018
-0.062901
-0.0629003
-0.0628998
-0.0628994
-0.0628992
-0.0628991
-0.0628991
-0.0628992
-0.0628995
-0.0628999
-0.0629004
-0.062901
-0.0629017
-0.0629025
-0.0629033
-0.0629042
-0.0629052
-0.0629062
-0.0629073
-0.0629085
-0.0629097
-0.0629109
-0.0629122
-0.0629135
-0.0629148
-0.0629162
-0.0629176
-0.062919
-0.0629204
-0.0629218
-0.0629233
-0.0629247
-0.0629262
-0.0629277
-0.0629291
-0.0629306
-0.0629321
-0.0629336
-0.0629351
-0.0629366
-0.0629381
-0.0629396
-0.0629411
-0.0629426
-0.0629441
-0.0629456
-0.0629471
-0.0629485
-0.06295
-0.0629515
-0.062953
-0.0629545
-0.062956
-0.0629575
-0.062959
-0.0629605
-0.062962
-0.0629635
-0.062965
-0.0629664
-0.0629679
-0.0629694
-0.0629709
-0.0629724
-0.0629739
-0.0629754
-0.0629768
-0.0629783
-0.0629798
-0.0629813
-0.0629828
-0.0629843
-0.0629857
-0.0629872
-0.0629887
-0.0629902
-0.0629917
-0.0629931
-0.0629946
-0.0629961
-0.0629976
-0.062999
-0.0630005
-0.063002
-0.0630035
-0.0630049
-0.0630064
-0.0630079
-0.0630094
-0.0630108
-0.0630123
-0.0630138
-0.0630152
-0.0630167
-0.0630182
-0.0630196
-0.0630211
-0.0630226
-0.063024
-0.0630255
-0.063027
-0.0630284
-0.0630299
-0.0630314
-0.0630328
-0.0630343
-0.0630358
-0.0630372
-0.0630387
-0.0630401
-0.0630416
-0.0630431
-0.0630445
-0.063046
-0.0630474
-0.0630489
-0.0630504
-0.0630518
-0.0630533
-0.0630547
-0.0630562
-0.0630577
-0.0630591
-0.0630606
-0.063062
-0.0630635
-0.0630649
-0.0630664
-0.0630678
-0.0630693
-0.0630707
-0.0630722
-0.0630737
-0.0630751
-0.0630766
-0.063078
-0.0630795
-0.0630809
-0.0630824
-0.0630838
-0.0630853
-0.0630867
-0.0630882
-0.0630896
-0.0630911
-0.0630926
-0.063094
-0.0630955
-0.0630969
-0.0630984
-0.0630998
-0.0631013
-0.0631028
-0.0631042
-0.0631057
-0.0631072
-0.0631086
-0.0631102
-0.0631116
-0.0631131
-0.0631146
-0.0631161
-0.0631176
-0.0631192
-0.0631206
-0.0631222
-0.0631237
-0.0631252
-0.0631267
-0.0631279
-0.0631295
-0.0631288
-0.0631288
-0.0631288
1
0.507088
0.291918
0.214159
0.179023
0.158662
0.145108
0.135357
0.127964
0.122137
0.117398
0.113447
0.110083
0.10717
0.104612
0.102338
0.100299
0.098454
0.0967741
0.0952356
0.0938195
0.0925106
0.091296
0.0901653
0.0891094
0.0881207
0.0871927
0.0863195
0.0854963
0.0847186
0.0839826
0.0832849
0.0826224
0.0819925
0.0813926
0.0808206
0.0802745
0.0797526
0.0792532
0.0787748
0.0783161
0.0778758
0.0774529
0.0770463
0.0766551
0.0762784
0.0759154
0.0755654
0.0752275
0.0749014
0.0745862
0.0742816
0.0739869
0.0737017
0.0734255
0.073158
0.0728987
0.0726473
0.0724034
0.0721668
0.071937
0.0717139
0.0714971
0.0712865
0.0710817
0.0708826
0.0706889
0.0705004
0.0703169
0.0701384
0.0699645
0.0697951
0.0696302
0.0694694
0.0693127
0.06916
0.0690111
0.0688659
0.0687243
0.0685862
0.0684514
0.06832
0.0681917
0.0680664
0.0679442
0.0678249
0.0677084
0.0675947
0.0674836
0.0673752
0.0672692
0.0671657
0.0670646
0.0669659
0.0668694
0.0667751
0.066683
0.066593
0.066505
0.066419
0.066335
0.0662529
0.0661726
0.0660941
0.0660174
0.0659424
0.0658691
0.0657974
0.0657273
0.0656588
0.0655918
0.0655263
0.0654622
0.0653995
0.0653382
0.0652783
0.0652197
0.0651623
0.0651062
0.0650514
0.0649977
0.0649452
0.0648939
0.0648437
0.0647945
0.0647465
0.0646994
0.0646534
0.0646084
0.0645643
0.0645212
0.0644791
0.0644378
0.0643975
0.0643579
0.0643193
0.0642814
0.0642444
0.0642082
0.0641727
0.064138
0.0641041
0.0640709
0.0640384
0.0640066
0.0639754
0.063945
0.0639151
0.063886
0.0638574
0.0638295
0.0638022
0.0637754
0.0637493
0.0637237
0.0636986
0.063674
0.06365
0.0636265
0.0636036
0.0635811
0.0635591
0.0635376
0.0635165
0.0634959
0.0634757
0.0634559
0.0634366
0.0634177
0.0633991
0.063381
0.0633633
0.063346
0.0633291
0.0633125
0.0632962
0.0632803
0.0632648
0.0632496
0.0632348
0.0632204
0.0632063
0.0631925
0.063179
0.0631659
0.0631531
0.0631407
0.0631286
0.0631168
0.0631053
0.0630943
0.0630835
0.0630732
0.0630631
0.0630533
0.0630439
0.0630347
0.0630259
0.0630175
0.0630094
0.0630017
0.0629943
0.0629872
0.0629804
0.0629739
0.0629676
0.0629616
0.0629561
0.0629508
0.0629459
0.0629413
0.0629369
0.0629328
0.0629289
0.0629252
0.0629219
0.0629188
0.0629161
0.0629136
0.0629113
0.0629092
0.0629073
0.0629056
0.0629042
0.0629029
0.0629018
0.062901
0.0629003
0.0628998
0.0628994
0.0628992
0.0628991
0.0628991
0.0628992
0.0628995
0.0628999
0.0629004
0.062901
0.0629017
0.0629025
0.0629033
0.0629042
0.0629052
0.0629062
0.0629073
0.0629085
0.0629097
0.0629109
0.0629122
0.0629135
0.0629148
0.0629162
0.0629176
0.062919
0.0629204
0.0629218
0.0629233
0.0629247
0.0629262
0.0629277
0.0629291
0.0629306
0.0629321
0.0629336
0.0629351
0.0629366
0.0629381
0.0629396
0.0629411
0.0629426
0.0629441
0.0629456
0.0629471
0.0629485
0.06295
0.0629515
0.062953
0.0629545
0.062956
0.0629575
0.062959
0.0629605
0.062962
0.0629635
0.062965
0.0629664
0.0629679
0.0629694
0.0629709
0.0629724
0.0629739
0.0629754
0.0629768
0.0629783
0.0629798
0.0629813
0.0629828
0.0629843
0.0629857
0.0629872
0.0629887
0.0629902
0.0629917
0.0629931
0.0629946
0.0629961
0.0629976
0.062999
0.0630005
0.063002
0.0630035
0.0630049
0.0630064
0.0630079
0.0630094
0.0630108
0.0630123
0.0630138
0.0630152
0.0630167
0.0630182
0.0630196
0.0630211
0.0630226
0.063024
0.0630255
0.063027
0.0630284
0.0630299
0.0630314
0.0630328
0.0630343
0.0630358
0.0630372
0.0630387
0.0630401
0.0630416
0.0630431
0.0630445
0.063046
0.0630474
0.0630489
0.0630504
0.0630518
0.0630533
0.0630547
0.0630562
0.0630577
0.0630591
0.0630606
0.063062
0.0630635
0.0630649
0.0630664
0.0630678
0.0630693
0.0630707
0.0630722
0.0630737
0.0630751
0.0630766
0.063078
0.0630795
0.0630809
0.0630824
0.0630838
0.0630853
0.0630867
0.0630882
0.0630896
0.0630911
0.0630926
0.063094
0.0630955
0.0630969
0.0630984
0.0630998
0.0631013
0.0631028
0.0631042
0.0631057
0.0631072
0.0631086
0.0631102
0.0631116
0.0631131
0.0631146
0.0631161
0.0631176
0.0631192
0.0631206
0.0631222
0.0631237
0.0631252
0.0631267
0.0631279
0.0631295
0.0631288
0.0631288
0.0631288
1
0.924294
0.735443
0.597545
0.511651
0.456336
0.418175
0.390271
0.368939
0.352055
0.338307
0.326848
0.317107
0.30869
0.301315
0.294778
0.288926
0.283645
0.278845
0.274456
0.270423
0.266699
0.263248
0.260038
0.257043
0.25424
0.251612
0.24914
0.246811
0.244612
0.242531
0.24056
0.238689
0.23691
0.235217
0.233603
0.232063
0.230591
0.229183
0.227835
0.226543
0.225302
0.224112
0.222967
0.221866
0.220806
0.219784
0.2188
0.21785
0.216933
0.216047
0.21519
0.214362
0.213561
0.212786
0.212034
0.211306
0.210601
0.209916
0.209252
0.208608
0.207982
0.207374
0.206783
0.206209
0.205651
0.205108
0.20458
0.204066
0.203566
0.203079
0.202605
0.202143
0.201693
0.201255
0.200827
0.200411
0.200005
0.199609
0.199223
0.198846
0.198478
0.19812
0.19777
0.197428
0.197095
0.19677
0.196452
0.196142
0.195839
0.195543
0.195255
0.194972
0.194697
0.194428
0.194165
0.193908
0.193657
0.193412
0.193172
0.192938
0.192709
0.192485
0.192266
0.192053
0.191844
0.191639
0.19144
0.191245
0.191054
0.190867
0.190685
0.190507
0.190332
0.190162
0.189995
0.189832
0.189672
0.189516
0.189364
0.189214
0.189068
0.188926
0.188786
0.188649
0.188516
0.188385
0.188257
0.188132
0.188009
0.18789
0.187772
0.187658
0.187546
0.187436
0.187328
0.187223
0.18712
0.18702
0.186921
0.186825
0.186731
0.186638
0.186548
0.18646
0.186373
0.186289
0.186206
0.186125
0.186046
0.185968
0.185892
0.185818
0.185745
0.185674
0.185605
0.185536
0.18547
0.185405
0.185341
0.185278
0.185217
0.185158
0.185099
0.185042
0.184986
0.184931
0.184877
0.184825
0.184773
0.184723
0.184674
0.184626
0.184579
0.184533
0.184488
0.184444
0.184401
0.184359
0.184319
0.184279
0.18424
0.184202
0.184165
0.184129
0.184094
0.18406
0.184026
0.183994
0.183963
0.183933
0.183904
0.183875
0.183848
0.183821
0.183796
0.183771
0.183748
0.183725
0.183703
0.183683
0.183663
0.183644
0.183626
0.183608
0.183592
0.183576
0.183562
0.183548
0.183535
0.183523
0.183512
0.183501
0.183491
0.183482
0.183474
0.183466
0.183459
0.183453
0.183447
0.183442
0.183438
0.183434
0.18343
0.183428
0.183425
0.183424
0.183422
0.183421
0.183421
0.183421
0.183421
0.183421
0.183422
0.183423
0.183425
0.183427
0.183429
0.183431
0.183434
0.183436
0.183439
0.183442
0.183445
0.183448
0.183452
0.183455
0.183459
0.183463
0.183466
0.18347
0.183474
0.183478
0.183482
0.183486
0.18349
0.183494
0.183498
0.183503
0.183507
0.183511
0.183515
0.183519
0.183524
0.183528
0.183532
0.183536
0.183541
0.183545
0.183549
0.183553
0.183557
0.183562
0.183566
0.18357
0.183574
0.183579
0.183583
0.183587
0.183591
0.183595
0.1836
0.183604
0.183608
0.183612
0.183617
0.183621
0.183625
0.183629
0.183633
0.183638
0.183642
0.183646
0.18365
0.183654
0.183659
0.183663
0.183667
0.183671
0.183675
0.18368
0.183684
0.183688
0.183692
0.183696
0.183701
0.183705
0.183709
0.183713
0.183717
0.183721
0.183726
0.18373
0.183734
0.183738
0.183742
0.183747
0.183751
0.183755
0.183759
0.183763
0.183767
0.183772
0.183776
0.18378
0.183784
0.183788
0.183792
0.183797
0.183801
0.183805
0.183809
0.183813
0.183817
0.183822
0.183826
0.18383
0.183834
0.183838
0.183842
0.183846
0.183851
0.183855
0.183859
0.183863
0.183867
0.183871
0.183876
0.18388
0.183884
0.183888
0.183892
0.183896
0.1839
0.183905
0.183909
0.183913
0.183917
0.183921
0.183925
0.183929
0.183934
0.183938
0.183942
0.183946
0.18395
0.183954
0.183958
0.183963
0.183967
0.183971
0.183975
0.183979
0.183983
0.183988
0.183992
0.183996
0.184
0.184004
0.184008
0.184013
0.184017
0.184021
0.184025
0.184029
0.184034
0.184038
0.184042
0.184046
0.184051
0.184055
0.18406
0.184064
0.184068
0.184072
0.184076
0.18408
0.184081
0.184081
0.184081
1
1.0797
0.997066
0.883645
0.788689
0.716904
0.66304
0.621825
0.589482
0.563468
0.542076
0.524134
0.508827
0.495571
0.483944
0.473633
0.464402
0.456073
0.448504
0.441586
0.43523
0.429363
0.423927
0.418872
0.414156
0.409744
0.405606
0.401715
0.398049
0.394588
0.391315
0.388212
0.385268
0.38247
0.379806
0.377267
0.374845
0.37253
0.370315
0.368195
0.366162
0.364213
0.36234
0.360541
0.35881
0.357143
0.355538
0.35399
0.352498
0.351057
0.349665
0.34832
0.347019
0.345761
0.344543
0.343363
0.34222
0.341112
0.340038
0.338996
0.337984
0.337002
0.336048
0.335122
0.334221
0.333346
0.332494
0.331666
0.330861
0.330077
0.329313
0.32857
0.327846
0.327141
0.326454
0.325785
0.325132
0.324496
0.323876
0.323272
0.322682
0.322107
0.321545
0.320998
0.320463
0.319942
0.319433
0.318936
0.318451
0.317977
0.317515
0.317063
0.316622
0.316192
0.315771
0.31536
0.314958
0.314566
0.314183
0.313809
0.313443
0.313085
0.312736
0.312394
0.312061
0.311735
0.311416
0.311104
0.3108
0.310502
0.310211
0.309926
0.309648
0.309376
0.30911
0.30885
0.308596
0.308347
0.308104
0.307866
0.307633
0.307406
0.307183
0.306965
0.306753
0.306544
0.306341
0.306141
0.305946
0.305756
0.305569
0.305386
0.305208
0.305033
0.304862
0.304695
0.304531
0.304371
0.304214
0.304061
0.303911
0.303764
0.30362
0.30348
0.303342
0.303208
0.303076
0.302947
0.302821
0.302698
0.302577
0.302459
0.302343
0.30223
0.30212
0.302011
0.301905
0.301802
0.3017
0.301601
0.301504
0.301409
0.301316
0.301225
0.301136
0.301049
0.300963
0.30088
0.300798
0.300718
0.30064
0.300564
0.300489
0.300416
0.300345
0.300275
0.300207
0.30014
0.300075
0.300012
0.29995
0.299889
0.299831
0.299773
0.299718
0.299663
0.299611
0.299559
0.29951
0.299462
0.299415
0.29937
0.299327
0.299285
0.299244
0.299205
0.299167
0.299131
0.299097
0.299064
0.299032
0.299002
0.298973
0.298946
0.29892
0.298895
0.298871
0.298849
0.298829
0.29881
0.298792
0.298775
0.298759
0.298744
0.29873
0.298718
0.298707
0.298697
0.298688
0.29868
0.298672
0.298666
0.29866
0.298656
0.298652
0.298649
0.298647
0.298645
0.298644
0.298644
0.298644
0.298645
0.298646
0.298648
0.29865
0.298653
0.298656
0.298659
0.298663
0.298667
0.298671
0.298676
0.29868
0.298686
0.298691
0.298696
0.298702
0.298708
0.298713
0.298719
0.298725
0.298732
0.298738
0.298744
0.298751
0.298757
0.298763
0.29877
0.298776
0.298783
0.298789
0.298796
0.298803
0.298809
0.298816
0.298822
0.298829
0.298836
0.298842
0.298849
0.298855
0.298862
0.298869
0.298875
0.298882
0.298888
0.298895
0.298902
0.298908
0.298915
0.298921
0.298928
0.298935
0.298941
0.298948
0.298954
0.298961
0.298967
0.298974
0.298981
0.298987
0.298994
0.299
0.299007
0.299014
0.29902
0.299027
0.299033
0.29904
0.299046
0.299053
0.29906
0.299066
0.299073
0.299079
0.299086
0.299092
0.299099
0.299105
0.299112
0.299119
0.299125
0.299132
0.299138
0.299145
0.299151
0.299158
0.299164
0.299171
0.299178
0.299184
0.299191
0.299197
0.299204
0.29921
0.299217
0.299223
0.29923
0.299236
0.299243
0.299249
0.299256
0.299263
0.299269
0.299276
0.299282
0.299289
0.299295
0.299302
0.299308
0.299315
0.299321
0.299328
0.299334
0.299341
0.299347
0.299354
0.29936
0.299367
0.299373
0.29938
0.299386
0.299393
0.299399
0.299406
0.299412
0.299419
0.299425
0.299432
0.299438
0.299445
0.299452
0.299458
0.299465
0.299471
0.299478
0.299484
0.299491
0.299497
0.299504
0.29951
0.299517
0.299523
0.29953
0.299536
0.299543
0.299549
0.299556
0.299562
0.299569
0.299575
0.299582
0.299589
0.299595
0.299602
0.299609
0.299615
0.299622
0.299629
0.299636
0.299642
0.299649
0.299656
0.299663
0.299669
0.299676
0.299682
0.299685
0.299685
0.299685
1
1.11179
1.11438
1.05557
0.984368
0.919028
0.863793
0.818209
0.780636
0.749411
0.723152
0.700782
0.681484
0.664639
0.649778
0.636543
0.624657
0.613905
0.604117
0.595155
0.586911
0.579293
0.572228
0.565652
0.559513
0.553766
0.548372
0.543298
0.538515
0.533996
0.529721
0.525668
0.52182
0.518162
0.514679
0.511358
0.508188
0.505158
0.50226
0.499484
0.496823
0.49427
0.491817
0.48946
0.487193
0.48501
0.482907
0.48088
0.478924
0.477036
0.475212
0.473449
0.471745
0.470096
0.4685
0.466954
0.465457
0.464005
0.462598
0.461232
0.459907
0.45862
0.457371
0.456157
0.454978
0.453831
0.452716
0.451632
0.450577
0.44955
0.448551
0.447578
0.44663
0.445707
0.444808
0.443932
0.443079
0.442246
0.441435
0.440644
0.439872
0.43912
0.438386
0.43767
0.436971
0.436289
0.435624
0.434974
0.43434
0.433721
0.433117
0.432527
0.431951
0.431388
0.430838
0.430302
0.429777
0.429265
0.428765
0.428276
0.427799
0.427332
0.426876
0.42643
0.425995
0.42557
0.425154
0.424747
0.42435
0.423962
0.423582
0.423211
0.422848
0.422494
0.422147
0.421808
0.421476
0.421152
0.420835
0.420526
0.420222
0.419926
0.419636
0.419353
0.419076
0.418804
0.418539
0.41828
0.418026
0.417777
0.417535
0.417297
0.417065
0.416837
0.416615
0.416397
0.416184
0.415975
0.415771
0.415572
0.415377
0.415186
0.414999
0.414816
0.414637
0.414462
0.414291
0.414123
0.413959
0.413799
0.413642
0.413488
0.413338
0.413191
0.413047
0.412906
0.412768
0.412633
0.412501
0.412372
0.412246
0.412122
0.412001
0.411883
0.411767
0.411654
0.411543
0.411435
0.411329
0.411225
0.411123
0.411024
0.410927
0.410832
0.410739
0.410649
0.41056
0.410474
0.410389
0.410307
0.410227
0.410149
0.410072
0.409998
0.409926
0.409856
0.409787
0.409721
0.409657
0.409595
0.409535
0.409477
0.409421
0.409367
0.409314
0.409264
0.409216
0.409169
0.409125
0.409082
0.409042
0.409003
0.408966
0.408931
0.408898
0.408866
0.408836
0.408808
0.408782
0.408758
0.408735
0.408713
0.408693
0.408674
0.408657
0.408642
0.408628
0.408615
0.408604
0.408594
0.408585
0.408577
0.40857
0.408565
0.40856
0.408556
0.408554
0.408552
0.408551
0.408551
0.408551
0.408553
0.408554
0.408557
0.40856
0.408564
0.408568
0.408572
0.408577
0.408583
0.408588
0.408594
0.408601
0.408607
0.408614
0.408621
0.408629
0.408636
0.408644
0.408652
0.408659
0.408667
0.408676
0.408684
0.408692
0.4087
0.408709
0.408717
0.408725
0.408734
0.408742
0.408751
0.408759
0.408768
0.408776
0.408785
0.408793
0.408802
0.40881
0.408819
0.408827
0.408836
0.408845
0.408853
0.408862
0.40887
0.408879
0.408887
0.408896
0.408904
0.408913
0.408921
0.40893
0.408938
0.408947
0.408955
0.408964
0.408972
0.408981
0.408989
0.408998
0.409006
0.409015
0.409023
0.409032
0.40904
0.409049
0.409057
0.409066
0.409074
0.409083
0.409091
0.4091
0.409108
0.409117
0.409125
0.409134
0.409142
0.409151
0.409159
0.409168
0.409176
0.409185
0.409193
0.409202
0.40921
0.409219
0.409227
0.409236
0.409244
0.409253
0.409261
0.40927
0.409278
0.409287
0.409295
0.409304
0.409312
0.40932
0.409329
0.409337
0.409346
0.409354
0.409363
0.409371
0.40938
0.409388
0.409397
0.409405
0.409414
0.409422
0.40943
0.409439
0.409447
0.409456
0.409464
0.409473
0.409481
0.40949
0.409498
0.409507
0.409515
0.409523
0.409532
0.40954
0.409549
0.409557
0.409566
0.409574
0.409582
0.409591
0.409599
0.409608
0.409616
0.409625
0.409633
0.409642
0.40965
0.409658
0.409667
0.409675
0.409684
0.409692
0.409701
0.409709
0.409718
0.409726
0.409735
0.409743
0.409752
0.40976
0.409769
0.409777
0.409786
0.409794
0.409803
0.409812
0.409821
0.409829
0.409838
0.409847
0.409856
0.409864
0.409873
0.409882
0.40989
0.409898
0.409905
0.409905
0.409905
1
1.09593
1.14367
1.13403
1.0977
1.05334
1.00942
0.969215
0.933621
0.902496
0.875335
0.851559
0.830624
0.812064
0.795493
0.780595
0.767116
0.754849
0.743625
0.733307
0.723781
0.714952
0.706742
0.699082
0.691917
0.685197
0.67888
0.672929
0.66731
0.661997
0.656963
0.652186
0.647647
0.643328
0.639212
0.635285
0.631534
0.627946
0.624513
0.621222
0.618067
0.615037
0.612127
0.609328
0.606635
0.604041
0.601542
0.599131
0.596805
0.59456
0.59239
0.590293
0.588264
0.586302
0.584402
0.582561
0.580778
0.57905
0.577373
0.575747
0.574168
0.572636
0.571148
0.569702
0.568297
0.566931
0.565602
0.564311
0.563054
0.561831
0.56064
0.559481
0.558352
0.557253
0.556182
0.555139
0.554122
0.553131
0.552164
0.551222
0.550304
0.549408
0.548534
0.547681
0.546849
0.546038
0.545246
0.544473
0.543718
0.542982
0.542263
0.541561
0.540875
0.540206
0.539552
0.538914
0.53829
0.537681
0.537086
0.536505
0.535938
0.535383
0.534841
0.534312
0.533794
0.533289
0.532795
0.532312
0.53184
0.531379
0.530928
0.530488
0.530057
0.529636
0.529224
0.528822