# vtk DataFile Version 2.0
FlowField
ASCII
DATASET STRUCTURED_GRID
DIMENSIONS 400 1 50
POINTS 20000 float
0 0 0
0.08 0 0
0.16 0 0
0.24 0 0
0.32 0 0
0.4 0 0
0.48 0 0
0.56 0 0
0.64 0 0
0.72 0 0
0.8 0 0
0.88 0 0
0.96 0 0
1.04 0 0
1.12 0 0
1.2 0 0
1.28 0 0
1.36 0 0
1.44 0 0
1.52 0 0
1.6 0 0
1.68 0 0
1.76 0 0
1.84 0 0
1.92 0 0
2 0 0
2.08 0 0
2.16 0 0
2.24 0 0
2.32 0 0
2.4 0 0
2.48 0 0
2.56 0 0
2.64 0 0
2.72 0 0
2.8 0 0
2.88 0 0
2.96 0 0
3.04 0 0
3.12 0 0
3.2 0 0
3.28 0 0
3.36 0 0
3.44 0 0
3.52 0 0
3.6 0 0
3.68 0 0
3.76 0 0
3.84 0 0
3.92 0 0
4 0 0
4.08 0 0
4.16 0 0
4.24 0 0
4.32 0 0
4.4 0 0
4.48 0 0
4.56 0 0
4.64 0 0
4.72 0 0
4.8 0 0
4.88 0 0
4.96 0 0
5.04 0 0
5.12 0 0
5.2 0 0
5.28 0 0
5.36 0 0
5.44 0 0
5.52 0 0
5.6 0 0
5.68 0 0
5.76 0 0
5.84 0 0
5.92 0 0
6 0 0
6.08 0 0
6.16 0 0
6.24 0 0
6.32 0 0
6.4 0 0
6.48 0 0
6.56 0 0
6.64 0 0
6.72 0 0
6.8 0 0
6.88 0 0
6.96 0 0
7.04 0 0
7.12 0 0
7.2 0 0
7.28 0 0
7.36 0 0
7.44 0 0
7.52 0 0
7.6 0 0
7.68 0 0
7.76 0 0
7.84 0 0
7.92 0 0
8 0 0
8.08 0 0
8.16 0 0
8.24 0 0
8.32 0 0
8.4 0 0
8.48 0 0
8.56 0 0
8.64 0 0
8.72 0 0
8.8 0 0
8.88 0 0
8.96 0 0
9.04 0 0
9.12 0 0
9.2 0 0
9.28 0 0
9.36 0 0
9.44 0 0
9.52 0 0
9.6 0 0
9.68 0 0
9.76 0 0
9.84 0 0
9.92 0 0
10 0 0
10.08 0 0
10.16 0 0
10.24 0 0
10.32 0 0
10.4 0 0
10.48 0 0
10.56 0 0
10.64 0 0
10.72 0 0
10.8 0 0
10.88 0 0
10.96 0 0
11.04 0 0
11.12 0 0
11.2 0 0
11.28 0 0
11.36 0 0
11.44 0 0
11.52 0 0
11.6 0 0
11.68 0 0
11.76 0 0
11.84 0 0
11.92 0 0
12 0 0
12.08 0 0
12.16 0 0
12.24 0 0
12.32 0 0
12.4 0 0
12.48 0 0
12.56 0 0
12.64 0 0
12.72 0 0
12.8 0 0
12.88 0 0
12.96 0 0
13.04 0 0
13.12 0 0
13.2 0 0
13.28 0 0
13.36 0 0
13.44 0 0
13.52 0 0
13.6 0 0
13.68 0 0
13.76 0 0
13.84 0 0
13.92 0 0
14 0 0
14.08 0 0
14.16 0 0
14.24 0 0
14.32 0 0
14.4 0 0
14.48 0 0
14.56 0 0
14.64 0 0
14.72 0 0
14.8 0 0
14.88 0 0
14.96 0 0
15.04 0 0
15.12 0 0
15.2 0 0
15.28 0 0
15.36 0 0
15.44 0 0
15.52 0 0
15.6 0 0
15.68 0 0
15.76 0 0
15.84 0 0
15.92 0 0
16 0 0
16.08 0 0
16.16 0 0
16.24 0 0
16.32 0 0
16.4 0 0
16.48 0 0
16.56 0 0
16.64 0 0
16.72 0 0
16.8 0 0
16.88 0 0
16.96 0 0
17.04 0 0
17.12 0 0
17.2 0 0
17.28 0 0
17.36 0 0
17.44 0 0
17.52 0 0
17.6 0 0
17.68 0 0
17.76 0 0
17.84 0 0
17.92 0 0
18 0 0
18.08 0 0
18.16 0 0
18.24 0 0
18.32 0 0
18.4 0 0
18.48 0 0
18.56 0 0
18.64 0 0
18.72 0 0
18.8 0 0
18.88 0 0
18.96 0 0
19.04 0 0
19.12 0 0
19.2 0 0
19.28 0 0
19.36 0 0
19.44 0 0
19.52 0 0
19.6 0 0
19.68 0 0
19.76 0 0
19.84 0 0
19.92 0 0
20 0 0
20.08 0 0
20.16 0 0
20.24 0 0
20.32 0 0
20.4 0 0
20.48 0 0
20.56 0 0
20.64 0 0
20.72 0 0
20.8 0 0
20.88 0 0
20.96 0 0
21.04 0 0
21.12 0 0
21.2 0 0
21.28 0 0
21.36 0 0
21.44 0 0
21.52 0 0
21.6 0 0
21.68 0 0
21.76 0 0
21.84 0 0
21.92 0 0
22 0 0
22.08 0 0
22.16 0 0
22.24 0 0
22.32 0 0
22.4 0 0
22.48 0 0
22.56 0 0
22.64 0 0
22.72 0 0
22.8 0 0
22.88 0 0
22.96 0 0
23.04 0 0
23.12 0 0
23.2 0 0
23.28 0 0
23.36 0 0
23.44 0 0
23.52 0 0
23.6 0 0
23.68 0 0
23.76 0 0
23.84 0 0
23.92 0 0
24 0 0
24.08 0 0
24.16 0 0
24.24 0 0
24.32 0 0
24.4 0 0
24.48 0 0
24.56 0 0
24.64 0 0
24.72 0 0
24.8 0 0
24.88 0 0
24.96 0 0
25.04 0 0
25.12 0 0
25.2 0 0
25.28 0 0
25.36 0 0
25.44 0 0
25.52 0 0
25.6 0 0
25.68 0 0
25.76 0 0
25.84 0 0
25.92 0 0
26 0 0
26.08 0 0
26.16 0 0
26.24 0 0
26.32 0 0
26.4 0 0
26.48 0 0
26.56 0 0
26.64 0 0
26.72 0 0
26.8 0 0
26.88 0 0
26.96 0 0
27.04 0 0
27.12 0 0
27.2 0 0
27.28 0 0
27.36 0 0
27.44 0 0
27.52 0 0
27.6 0 0
27.68 0 0
27.76 0 0
27.84 0 0
27.92 0 0
28 0 0
28.08 0 0
28.16 0 0
28.24 0 0
28.32 0 0
28.4 0 0
28.48 0 0
28.56 0 0
28.64 0 0
28.72 0 0
28.8 0 0
28.88 0 0
28.96 0 0
29.04 0 0
29.12 0 0
29.2 0 0
29.28 0 0
29.36 0 0
29.44 0 0
29.52 0 0
29.6 0 0
29.68 0 0
29.76 0 0
29.84 0 0
29.92 0 0
30 0 0
30.08 0 0
30.16 0 0
30.24 0 0
30.32 0 0
30.4 0 0
30.48 0 0
30.56 0 0
30.64 0 0
30.72 0 0
30.8 0 0
30.88 0 0
30.96 0 0
31.04 0 0
31.12 0 0
31.2 0 0
31.28 0 0
31.36 0 0
31.44 0 0
31.52 0 0
31.6 0 0
31.68 0 0
31.76 0 0
31.84 0 0
31.92 0 0
0 0.02 0
0.08 0.02 0
0.16 0.02 0
0.24 0.02 0
0.32 0.02 0
0.4 0.02 0
0.48 0.02 0
0.56 0.02 0
0.64 0.02 0
0.72 0.02 0
0.8 0.02 0
0.88 0.02 0
0.96 0.02 0
1.04 0.02 0
1.12 0.02 0
1.2 0.02 0
1.28 0.02 0
1.36 0.02 0
1.44 0.02 0
1.52 0.02 0
1.6 0.02 0
1.68 0.02 0
1.76 0.02 0
1.84 0.02 0
1.92 0.02 0
2 0.02 0
2.08 0.02 0
2.16 0.02 0
2.24 0.02 0
2.32 0.02 0
2.4 0.02 0
2.48 0.02 0
2.56 0.02 0
2.64 0.02 0
2.72 0.02 0
2.8 0.02 0
2.88 0.02 0
2.96 0.02 0
3.04 0.02 0
3.12 0.02 0
3.2 0.02 0
3.28 0.02 0
3.36 0.02 0
3.44 0.02 0
3.52 0.02 0
3.6 0.02 0
3.68 0.02 0
3.76 0.02 0
3.84 0.02 0
3.92 0.02 0
4 0.02 0
4.08 0.02 0
4.16 0.02 0
4.24 0.02 0
4.32 0.02 0
4.4 0.02 0
4.48 0.02 0
4.56 0.02 0
4.64 0.02 0
4.72 0.02 0
4.8 0.02 0
4.88 0.02 0
4.96 0.02 0
5.04 0.02 0
5.12 0.02 0
5.2 0.02 0
5.28 0.02 0
5.36 0.02 0
5.44 0.02 0
5.52 0.02 0
5.6 0.02 0
5.68 0.02 0
5.76 0.02 0
5.84 0.02 0
5.92 0.02 0
6 0.02 0
6.08 0.02 0
6.16 0.02 0
6.24 0.02 0
6.32 0.02 0
6.4 0.02 0
6.48 0.02 0
6.56 0.02 0
6.64 0.02 0
6.72 0.02 0
6.8 0.02 0
6.88 0.02 0
6.96 0.02 0
7.04 0.02 0
7.12 0.02 0
7.2 0.02 0
7.28 0.02 0
7.36 0.02 0
7.44 0.02 0
7.52 0.02 0
7.6 0.02 0
7.68 0.02 0
7.76 0.02 0
7.84 0.02 0
7.92 0.02 0
8 0.02 0
8.08 0.02 0
8.16 0.02 0
8.24 0.02 0
8.32 0.02 0
8.4 0.02 0
8.48 0.02 0
8.56 0.02 0
8.64 0.02 0
8.72 0.02 0
8.8 0.02 0
8.88 0.02 0
8.96 0.02 0
9.04 0.02 0
9.12 0.02 0
9.2 0.02 0
9.28 0.02 0
9.36 0.02 0
9.44 0.02 0
9.52 0.02 0
9.6 0.02 0
9.68 0.02 0
9.76 0.02 0
9.84 0.02 0
9.92 0.02 0
10 0.02 0
10.08 0.02 0
10.16 0.02 0
10.24 0.02 0
10.32 0.02 0
10.4 0.02 0
10.48 0.02 0
10.56 0.02 0
10.64 0.02 0
10.72 0.02 0
10.8 0.02 0
10.88 0.02 0
10.96 0.02 0
11.04 0.02 0
11.12 0.02 0
11.2 0.02 0
11.28 0.02 0
11.36 0.02 0
11.44 0.02 0
11.52 0.02 0
11.6 0.02 0
11.68 0.02 0
11.76 0.02 0
11.84 0.02 0
11.92 0.02 0
12 0.02 0
12.08 0.02 0
12.16 0.02 0
12.24 0.02 0
12.32 0.02 0
12.4 0.02 0
12.48 0.02 0
12.56 0.02 0
12.64 0.02 0
12.72 0.02 0
12.8 0.02 0
12.88 0.02 0
12.96 0.02 0
13.04 0.02 0
13.12 0.02 0
13.2 0.02 0
13.28 0.02 0
13.36 0.02 0
13.44 0.02 0
13.52 0.02 0
13.6 0.02 0
13.68 0.02 0
13.76 0.02 0
13.84 0.02 0
13.92 0.02 0
14 0.02 0
14.08 0.02 0
14.16 0.02 0
14.24 0.02 0
14.32 0.02 0
14.4 0.02 0
14.48 0.02 0
14.56 0.02 0
14.64 0.02 0
14.72 0.02 0
14.8 0.02 0
14.88 0.02 0
14.96 0.02 0
15.04 0.02 0
15.12 0.02 0
15.2 0.02 0
15.28 0.02 0
15.36 0.02 0
15.44 0.02 0
15.52 0.02 0
15.6 0.02 0
15.68 0.02 0
15.76 0.02 0
15.84 0.02 0
15.92 0.02 0
16 0.02 0
16.08 0.02 0
16.16 0.02 0
16.24 0.02 0
16.32 0.02 0
16.4 0.02 0
16.48 0.02 0
16.56 0.02 0
16.64 0.02 0
16.72 0.02 0
16.8 0.02 0
16.88 0.02 0
16.96 0.02 0
17.04 0.02 0
17.12 0.02 0
17.2 0.02 0
17.28 0.02 0
17.36 0.02 0
17.44 0.02 0
17.52 0.02 0
17.6 0.02 0
17.68 0.02 0
17.76 0.02 0
17.84 0.02 0
17.92 0.02 0
18 0.02 0
18.08 0.02 0
18.16 0.02 0
18.24 0.02 0
18.32 0.02 0
18.4 0.02 0
18.48 0.02 0
18.56 0.02 0
18.64 0.02 0
18.72 0.02 0
18.8 0.02 0
18.88 0.02 0
18.96 0.02 0
19.04 0.02 0
19.12 0.02 0
19.2 0.02 0
19.28 0.02 0
19.36 0.02 0
19.44 0.02 0
19.52 0.02 0
19.6 0.02 0
19.68 0.02 0
19.76 0.02 0
19.84 0.02 0
19.92 0.02 0
20 0.02 0
20.08 0.02 0
20.16 0.02 0
20.24 0.02 0
20.32 0.02 0
20.4 0.02 0
20.48 0.02 0
20.56 0.02 0
20.64 0.02 0
20.72 0.02 0
20.8 0.02 0
20.88 0.02 0
20.96 0.02 0
21.04 0.02 0
21.12 0.02 0
21.2 0.02 0
21.28 0.02 0
21.36 0.02 0
21.44 0.02 0
21.52 0.02 0
21.6 0.02 0
21.68 0.02 0
21.76 0.02 0
21.84 0.02 0
21.92 0.02 0
22 0.02 0
22.08 0.02 0
22.16 0.02 0
22.24 0.02 0
22.32 0.02 0
22.4 0.02 0
22.48 0.02 0
22.56 0.02 0
22.64 0.02 0
22.72 0.02 0
22.8 0.02 0
22.88 0.02 0
22.96 0.02 0
23.04 0.02 0
23.12 0.02 0
23.2 0.02 0
23.28 0.02 0
23.36 0.02 0
23.44 0.02 0
23.52 0.02 0
23.6 0.02 0
23.68 0.02 0
23.76 0.02 0
23.84 0.02 0
23.92 0.02 0
24 0.02 0
24.08 0.02 0
24.16 0.02 0
24.24 0.02 0
24.32 0.02 0
24.4 0.02 0
24.48 0.02 0
24.56 0.02 0
24.64 0.02 0
24.72 0.02 0
24.8 0.02 0
24.88 0.02 0
24.96 0.02 0
25.04 0.02 0
25.12 0.02 0
25.2 0.02 0
25.28 0.02 0
25.36 0.02 0
25.44 0.02 0
25.52 0.02 0
25.6 0.02 0
25.68 0.02 0
25.76 0.02 0
25.84 0.02 0
25.92 0.02 0
26 0.02 0
26.08 0.02 0
26.16 0.02 0
26.24 0.02 0
26.32 0.02 0
26.4 0.02 0
26.48 0.02 0
26.56 0.02 0
26.64 0.02 0
26.72 0.02 0
26.8 0.02 0
26.88 0.02 0
26.96 0.02 0
27.04 0.02 0
27.12 0.02 0
27.2 0.02 0
27.28 0.02 0
27.36 0.02 0
27.44 0.02 0
27.52 0.02 0
27.6 0.02 0
27.68 0.02 0
27.76 0.02 0
27.84 0.02 0
27.92 0.02 0
28 0.02 0
28.08 0.02 0
28.16 0.02 0
28.24 0.02 0
28.32 0.02 0
28.4 0.02 0
28.48 0.02 0
28.56 0.02 0
28.64 0.02 0
28.72 0.02 0
28.8 0.02 0
28.88 0.02 0
28.96 0.02 0
29.04 0.02 0
29.12 0.02 0
29.2 0.02 0
29.28 0.02 0
29.36 0.02 0
29.44 0.02 0
29.52 0.02 0
29.6 0.02 0
29.68 0.02 0
29.76 0.02 0
29.84 0.02 0
29.92 0.02 0
30 0.02 0
30.08 0.02 0
30.16 0.02 0
30.24 0.02 0
30.32 0.02 0
30.4 0.02 0
30.48 0.02 0
30.56 0.02 0
30.64 0.02 0
30.72 0.02 0
30.8 0.02 0
30.88 0.02 0
30.96 0.02 0
31.04 0.02 0
31.12 0.02 0
31.2 0.02 0
31.28 0.02 0
31.36 0.02 0
31.44 0.02 0
31.52 0.02 0
31.6 0.02 0
31.68 0.02 0
31.76 0.02 0
31.84 0.02 0
31.92 0.02 0
0 0.04 0
0.08 0.04 0
0.16 0.04 0
0.24 0.04 0
0.32 0.04 0
0.4 0.04 0
0.48 0.04 0
0.56 0.04 0
0.64 0.04 0
0.72 0.04 0
0.8 0.04 0
0.88 0.04 0
0.96 0.04 0
1.04 0.04 0
1.12 0.04 0
1.2 0.04 0
1.28 0.04 0
1.36 0.04 0
1.44 0.04 0
1.52 0.04 0
1.6 0.04 0
1.68 0.04 0
1.76 0.04 0
1.84 0.04 0
1.92 0.04 0
2 0.04 0
2.08 0.04 0
2.16 0.04 0
2.24 0.04 0
2.32 0.04 0
2.4 0.04 0
2.48 0.04 0
2.56 0.04 0
2.64 0.04 0
2.72 0.04 0
2.8 0.04 0
2.88 0.04 0
2.96 0.04 0
3.04 0.04 0
3.12 0.04 0
3.2 0.04 0
3.28 0.04 0
3.36 0.04 0
3.44 0.04 0
3.52 0.04 0
3.6 0.04 0
3.68 0.04 0
3.76 0.04 0
3.84 0.04 0
3.92 0.04 0
4 0.04 0
4.08 0.04 0
4.16 0.04 0
4.24 0.04 0
4.32 0.04 0
4.4 0.04 0
4.48 0.04 0
4.56 0.04 0
4.64 0.04 0
4.72 0.04 0
4.8 0.04 0
4.88 0.04 0
4.96 0.04 0
5.04 0.04 0
5.12 0.04 0
5.2 0.04 0
5.28 0.04 0
5.36 0.04 0
5.44 0.04 0
5.52 0.04 0
5.6 0.04 0
5.68 0.04 0
5.76 0.04 0
5.84 0.04 0
5.92 0.04 0
6 0.04 0
6.08 0.04 0
6.16 0.04 0
6.24 0.04 0
6.32 0.04 0
6.4 0.04 0
6.48 0.04 0
6.56 0.04 0
6.64 0.04 0
6.72 0.04 0
6.8 0.04 0
6.88 0.04 0
6.96 0.04 0
7.04 0.04 0
7.12 0.04 0
7.2 0.04 0
7.28 0.04 0
7.36 0.04 0
7.44 0.04 0
7.52 0.04 0
7.6 0.04 0
7.68 0.04 0
7.76 0.04 0
7.84 0.04 0
[...]
POINT_DATA 20000

SCALARS p float 1
LOOKUP_TABLE default
1
193.231
193
192.934
192.908
192.893
192.881
192.87
192.859
192.85
192.84
192.831
192.822
192.813
192.804
192.796
192.787
192.779
192.77
192.762
192.754
192.746
192.738
192.73
192.723
192.715
192.707
192.7
192.692
192.684
192.677
192.669
192.662
192.655
192.647
192.64
192.632
192.625
192.617
192.61
192.603
192.595
192.588
192.58
192.573
192.566
192.558
192.551
192.543
192.536
192.528
192.521
192.514
192.506
192.499
192.491
192.483
192.476
192.468
192.461
192.453
192.446
192.438
192.431
192.423
192.416
192.408
192.401
192.393
192.385
192.378
192.37
192.363
192.355
192.347
192.34
192.332
192.324
192.317
192.309
192.301
192.294
192.286
192.278
192.27
192.262
192.254
192.247
192.239
192.231
192.223
192.215
192.207
192.199
192.191
192.183
192.175
192.166
192.158
192.15
192.142
192.134
192.125
192.117
192.109
192.1
192.092
192.084
192.075
192.067
192.058
192.05
192.041
192.032
192.024
192.015
192.007
191.998
191.989
191.98
191.972
191.963
191.954
191.945
191.937
191.928
191.919
191.91
191.901
191.892
191.883
191.874
191.865
191.856
191.847
191.838
191.829
191.82
191.811
191.802
191.793
191.784
191.775
191.766
191.757
191.748
191.739
191.73
191.721
191.711
191.702
191.693
191.684
191.675
191.666
191.657
191.648
191.638
191.629
191.62
191.611
191.602
191.593
191.583
191.574
191.565
191.556
191.547
191.538
191.529
191.52
191.51
191.501
191.492
191.483
191.474
191.465
191.456
191.447
191.438
191.429
191.42
191.411
191.402
191.393
191.384
191.375
191.366
191.357
191.348
191.339
191.33
191.321
191.312
191.303
191.294
191.286
191.277
191.268
191.259
191.25
191.242
191.233
191.224
191.215
191.207
191.198
191.189
191.181
191.172
191.164
191.155
191.146
191.138
191.129
191.121
191.112
191.104
191.096
191.087
191.079
191.07
191.062
191.054
191.045
191.037
191.029
191.021
191.012
191.004
190.996
190.988
190.98
190.972
190.964
190.956
190.948
190.94
190.932
190.924
190.916
190.908
190.9
190.892
190.884
190.877
190.869
190.861
190.853
190.846
190.838
190.83
190.823
190.815
190.808
190.8
190.793
190.785
190.778
190.77
190.763
190.755
190.748
190.741
190.733
190.726
190.719
190.712
190.704
190.697
190.69
190.683
190.676
190.669
190.662
190.655
190.648
190.641
190.634
190.627
190.62
190.613
190.606
190.599
190.592
190.586
190.579
190.572
190.565
190.559
190.552
190.545
190.539
190.532
190.526
190.519
190.513
190.506
190.5
190.493
190.487
190.48
190.474
190.468
190.461
190.455
190.449
190.442
190.436
190.43
190.424
190.418
190.411
190.405
190.399
190.393
190.387
190.381
190.375
190.369
190.363
190.357
190.351
190.345
190.339
190.333
190.327
190.321
190.315
190.31
190.304
190.298
190.292
190.286
190.281
190.275
190.269
190.264
190.258
190.252
190.247
190.241
190.235
190.23
190.224
190.219
190.213
190.208
190.202
190.197
190.191
190.186
190.18
190.175
190.169
190.164
190.159
190.153
190.148
190.142
190.137
190.132
190.126
190.121
190.116
190.111
190.105
190.1
190.095
190.09
190.085
190.079
190.074
190.069
190.064
190.059
190.054
190.048
190.043
190.038
190.033
190.028
190.023
190.018
190.013
190.008
190.003
189.998
189.993
189.988
189.983
189.978
189.973
189.968
189.963
189.958
189.953
189.949
189.944
0.5
193.231
193.231
193
192.934
192.908
192.893
192.881
192.87
192.859
192.85
192.84
192.831
192.822
192.813
192.804
192.796
192.787
192.779
192.77
192.762
192.754
192.746
192.738
192.73
192.723
192.715
192.707
192.7
192.692
192.684
192.677
192.669
192.662
192.655
192.647
192.64
192.632
192.625
192.617
192.61
192.603
192.595
192.588
192.58
192.573
192.566
192.558
192.551
192.543
192.536
192.528
192.521
192.514
192.506
192.499
192.491
192.483
192.476
192.468
192.461
192.453
192.446
192.438
192.431
192.423
192.416
192.408
192.401
192.393
192.385
192.378
192.37
192.363
192.355
192.347
192.34
192.332
192.324
192.317
192.309
192.301
192.294
192.286
192.278
192.27
192.262
192.254
192.247
192.239
192.231
192.223
192.215
192.207
192.199
192.191
192.183
192.175
192.166
192.158
192.15
192.142
192.134
192.125
192.117
192.109
192.1
192.092
192.084
192.075
192.067
192.058
192.05
192.041
192.032
192.024
192.015
192.007
191.998
191.989
191.98
191.972
191.963
191.954
191.945
191.937
191.928
191.919
191.91
191.901
191.892
191.883
191.874
191.865
191.856
191.847
191.838
191.829
191.82
191.811
191.802
191.793
191.784
191.775
191.766
191.757
191.748
191.739
191.73
191.721
191.711
191.702
191.693
191.684
191.675
191.666
191.657
191.648
191.638
191.629
191.62
191.611
191.602
191.593
191.583
191.574
191.565
191.556
191.547
191.538
191.529
191.52
191.51
191.501
191.492
191.483
191.474
191.465
191.456
191.447
191.438
191.429
191.42
191.411
191.402
191.393
191.384
191.375
191.366
191.357
191.348
191.339
191.33
191.321
191.312
191.303
191.294
191.286
191.277
191.268
191.259
191.25
191.242
191.233
191.224
191.215
191.207
191.198
191.189
191.181
191.172
191.164
191.155
191.146
191.138
191.129
191.121
191.112
191.104
191.096
191.087
191.079
191.07
191.062
191.054
191.045
191.037
191.029
191.021
191.012
191.004
190.996
190.988
190.98
190.972
190.964
190.956
190.948
190.94
190.932
190.924
190.916
190.908
190.9
190.892
190.884
190.877
190.869
190.861
190.853
190.846
190.838
190.83
190.823
190.815
190.808
190.8
190.793
190.785
190.778
190.77
190.763
190.755
190.748
190.741
190.733
190.726
190.719
190.712
190.704
190.697
190.69
190.683
190.676
190.669
190.662
190.655
190.648
190.641
190.634
190.627
190.62
190.613
190.606
190.599
190.592
190.586
190.579
190.572
190.565
190.559
190.552
190.545
190.539
190.532
190.526
190.519
190.513
190.506
190.5
190.493
190.487
190.48
190.474
190.468
190.461
190.455
190.449
190.442
190.436
190.43
190.424
190.418
190.411
190.405
190.399
190.393
190.387
190.381
190.375
190.369
190.363
190.357
190.351
190.345
190.339
190.333
190.327
190.321
190.315
190.31
190.304
190.298
190.292
190.286
190.281
190.275
190.269
190.264
190.258
190.252
190.247
190.241
190.235
190.23
190.224
190.219
190.213
190.208
190.202
190.197
190.191
190.186
190.18
190.175
190.169
190.164
190.159
190.153
190.148
190.142
190.137
190.132
190.126
190.121
190.116
190.111
190.105
190.1
190.095
190.09
190.085
190.079
190.074
190.069
190.064
190.059
190.054
190.048
190.043
190.038
190.033
190.028
190.023
190.018
190.013
190.008
190.003
189.998
189.993
189.988
189.983
189.978
189.973
189.968
189.963
189.958
189.953
189.949
189.944
189.944
193.181
193.181
193.006
192.938
192.911
192.894
192.882
192.87
192.86
192.85
192.841
192.831
192.822
192.813
192.804
192.796
192.787
192.779
192.771
192.762
192.754
192.746
192.738
192.731
192.723
192.715
192.707
192.7
192.692
192.685
192.677
192.67
192.662
192.655
192.647
192.64
192.632
192.625
192.617
192.61
192.603
192.595
192.588
192.58
192.573
192.566
192.558
192.551
192.543
192.536
192.529
192.521
192.514
192.506
192.499
192.491
192.484
192.476
192.468
192.461
192.453
192.446
192.438
192.431
192.423
192.416
192.408
192.401
192.393
192.385
192.378
192.37
192.363
192.355
192.347
192.34
192.332
192.324
192.317
192.309
192.301
192.294
192.286
192.278
192.27
192.262
192.254
192.247
192.239
192.231
192.223
192.215
192.207
192.199
192.191
192.183
192.175
192.166
192.158
192.15
192.142
192.134
192.125
192.117
192.109
192.1
192.092
192.084
192.075
192.067
192.058
192.05
192.041
192.032
192.024
192.015
192.007
191.998
191.989
191.981
191.972
191.963
191.954
191.945
191.937
191.928
191.919
191.91
191.901
191.892
191.883
191.874
191.865
191.856
191.847
191.838
191.829
191.82
191.811
191.802
191.793
191.784
191.775
191.766
191.757
191.748
191.739
191.73
191.721
191.711
191.702
191.693
191.684
191.675
191.666
191.657
191.648
191.638
191.629
191.62
191.611
191.602
191.593
191.584
191.574
191.565
191.556
191.547
191.538
191.529
191.52
191.51
191.501
191.492
191.483
191.474
191.465
191.456
191.447
191.438
191.429
191.42
191.411
191.402
191.393
191.384
191.375
191.366
191.357
191.348
191.339
191.33
191.321
191.312
191.303
191.294
191.286
191.277
191.268
191.259
191.25
191.242
191.233
191.224
191.215
191.207
191.198
191.189
191.181
191.172
191.164
191.155
191.146
191.138
191.129
191.121
191.112
191.104
191.096
191.087
191.079
191.07
191.062
191.054
191.045
191.037
191.029
191.021
191.012
191.004
190.996
190.988
190.98
190.972
190.964
190.956
190.948
190.94
190.932
190.924
190.916
190.908
190.9
190.892
190.884
190.877
190.869
190.861
190.853
190.846
190.838
190.83
190.823
190.815
190.808
190.8
190.793
190.785
190.778
190.77
190.763
190.755
190.748
190.741
190.733
190.726
190.719
190.712
190.704
190.697
190.69
190.683
190.676
190.669
190.662
190.655
190.648
190.641
190.634
190.627
190.62
190.613
190.606
190.599
190.592
190.586
190.579
190.572
190.565
190.559
190.552
190.546
190.539
190.532
190.526
190.519
190.513
190.506
190.5
190.493
190.487
190.48
190.474
190.468
190.461
190.455
190.449
190.442
190.436
190.43
190.424
190.418
190.411
190.405
190.399
190.393
190.387
190.381
190.375
190.369
190.363
190.357
190.351
190.345
190.339
190.333
190.327
190.321
190.315
190.31
190.304
190.298
190.292
190.286
190.281
190.275
190.269
190.264
190.258
190.252
190.247
190.241
190.235
190.23
190.224
190.219
190.213
190.208
190.202
190.197
190.191
190.186
190.18
190.175
190.169
190.164
190.159
190.153
190.148
190.142
190.137
190.132
190.126
190.121
190.116
190.111
190.105
190.1
190.095
190.09
190.085
190.079
190.074
190.069
190.064
190.059
190.054
190.048
190.043
190.038
190.033
190.028
190.023
190.018
190.013
190.008
190.003
189.998
189.993
189.988
189.983
189.978
189.973
189.968
189.963
189.958
189.954
189.949
189.944
189.944
193.141
193.141
193.008
192.943
192.914
192.896
192.883
192.871
192.861
192.851
192.841
192.832
192.822
192.813
192.805
192.796
192.787
192.779
192.771
192.763
192.754
192.746
192.739
192.731
192.723
192.715
192.707
192.7
192.692
192.685
192.677
192.67
192.662
192.655
192.647
192.64
192.632
192.625
192.617
192.61
192.603
192.595
192.588
192.581
192.573
192.566
192.558
192.551
192.543
192.536
192.529
192.521
192.514
192.506
192.499
192.491
192.484
192.476
192.468
192.461
192.453
192.446
192.438
192.431
192.423
192.416
192.408
192.401
192.393
192.385
192.378
192.37
192.363
192.355
192.347
192.34
192.332
192.324
192.317
192.309
192.301
192.294
192.286
192.278
192.27
192.262
192.254
192.247
192.239
192.231
192.223
192.215
192.207
192.199
192.191
192.183
192.175
192.166
192.158
192.15
192.142
192.134
192.125
192.117
192.109
192.1
192.092
192.084
192.075
192.067
192.058
192.05
192.041
192.032
192.024
192.015
192.007
191.998
191.989
191.981
191.972
191.963
191.954
191.945
191.937
191.928
191.919
191.91
191.901
191.892
191.883
191.874
191.865
191.856
191.847
191.838
191.829
191.82
191.811
191.802
191.793
191.784
191.775
191.766
191.757
191.748
191.739
191.73
191.721
191.711
191.702
191.693
191.684
191.675
191.666
191.657
191.648
191.638
191.629
191.62
191.611
191.602
191.593
191.584
191.574
191.565
191.556
191.547
191.538
191.529
191.52
191.51
191.501
191.492
191.483
191.474
191.465
191.456
191.447
191.438
191.429
191.42
191.411
191.402
191.393
191.384
191.375
191.366
191.357
191.348
191.339
191.33
191.321
191.312
191.303
191.294
191.286
191.277
191.268
191.259
191.25
191.242
191.233
191.224
191.215
191.207
191.198
191.189
191.181
191.172
191.164
191.155
191.146
191.138
191.129
191.121
191.112
191.104
191.096
191.087
191.079
191.07
191.062
191.054
191.045
191.037
191.029
191.021
191.012
191.004
190.996
190.988
190.98
190.972
190.964
190.956
190.948
190.94
190.932
190.924
190.916
190.908
190.9
190.892
190.884
190.877
190.869
190.861
190.853
190.846
190.838
190.83
190.823
190.815
190.808
190.8
190.793
190.785
190.778
190.77
190.763
190.755
190.748
190.741
190.733
190.726
190.719
190.712
190.704
190.697
190.69
190.683
190.676
190.669
190.662
190.655
190.648
190.641
190.634
190.627
190.62
190.613
190.606
190.599
190.592
190.586
190.579
190.572
190.566
190.559
190.552
190.546
190.539
190.532
190.526
190.519
190.513
190.506
190.5
190.493
190.487
190.48
190.474
190.468
190.461
190.455
190.449
190.442
190.436
190.43
190.424
190.418
190.411
190.405
190.399
190.393
190.387
190.381
190.375
190.369
190.363
190.357
190.351
190.345
190.339
190.333
190.327
190.321
190.315
190.31
190.304
190.298
190.292
190.286
190.281
190.275
190.269
190.264
190.258
190.252
190.247
190.241
190.235
190.23
190.224
190.219
190.213
190.208
190.202
190.197
190.191
190.186
190.18
190.175
190.169
190.164
190.159
190.153
190.148
190.142
190.137
190.132
190.126
190.121
190.116
190.111
190.105
190.1
190.095
190.09
190.085
190.079
190.074
190.069
190.064
190.059
190.054
190.048
190.043
190.038
190.033
190.028
190.023
190.018
190.013
190.008
190.003
189.998
189.993
189.988
189.983
189.978
189.973
189.968
189.963
189.958
189.954
189.949
189.944
189.944
193.109
193.109
193.009
192.948
192.917
192.898
192.884
192.872
192.861
192.851
192.841
192.832
192.823
192.814
192.805
192.796
192.788
192.779
192.771
192.763
192.755
192.747
192.739
192.731
192.723
192.715
192.707
192.7
192.692
192.685
192.677
192.67
192.662
192.655
192.647
192.64
192.632
192.625
192.618
192.61
192.603
192.595
192.588
192.581
192.573
192.566
192.558
192.551
192.543
192.536
192.529
192.521
192.514
192.506
192.499
192.491
192.484
192.476
192.469
192.461
192.453
192.446
192.438
192.431
192.423
192.416
192.408
192.401
192.393
192.385
192.378
192.37
192.363
192.355
192.347
192.34
192.332
192.324
192.317
192.309
192.301
192.294
192.286
192.278
192.27
192.262
192.254
192.247
192.239
192.231
192.223
192.215
192.207
192.199
192.191
192.183
192.175
192.166
192.158
192.15
192.142
192.134
192.125
192.117
192.109
192.1
192.092
192.084
192.075
192.067
192.058
192.05
192.041
192.032
192.024
192.015
192.007
191.998
191.989
191.981
191.972
191.963
191.954
191.945
191.937
191.928
191.919
191.91
191.901
191.892
191.883
191.874
191.865
191.856
191.847
191.838
191.829
191.82
191.811
191.802
191.793
191.784
191.775
191.766
191.757
191.748
191.739
191.73
191.721
191.711
191.702
191.693
191.684
191.675
191.666
191.657
191.648
191.638
191.629
191.62
191.611
191.602
191.593
191.584
191.574
191.565
191.556
191.547
191.538
191.529
191.52
191.51
191.501
191.492
191.483
191.474
191.465
191.456
191.447
191.438
191.429
191.42
191.411
191.402
191.393
191.384
191.375
191.366
191.357
191.348
191.339
191.33
191.321
191.312
191.303
191.294
191.286
191.277
191.268
191.259
191.25
191.242
191.233
191.224
191.215
191.207
191.198
191.189
191.181
191.172
191.164
191.155
191.146
191.138
191.129
191.121
191.112
191.104
191.096
191.087
191.079
191.07
191.062
191.054
191.045
191.037
191.029
191.021
191.012
191.004
190.996
190.988
190.98
190.972
190.964
190.956
190.948
190.94
190.932
190.924
190.916
190.908
190.9
190.892
190.884
190.877
190.869
190.861
190.853
190.846
190.838
190.83
190.823
190.815
190.808
190.8
190.793
190.785
190.778
190.77
190.763
190.755
190.748
190.741
190.733
190.726
190.719
190.712
190.704
190.697
190.69
190.683
190.676
190.669
190.662
190.655
190.648
190.641
190.634
190.627
190.62
190.613
190.606
190.599
190.592
190.586
190.579
190.572
190.566
190.559
190.552
190.546
190.539
190.532
190.526
190.519
190.513
190.506
190.5
190.493
190.487
190.48
190.474
190.468
190.461
190.455
190.449
190.442
190.436
190.43
190.424
190.418
190.411
190.405
190.399
190.393
190.387
190.381
190.375
190.369
190.363
190.357
190.351
190.345
190.339
190.333
190.327
190.321
190.315
190.31
190.304
190.298
190.292
190.286
190.281
190.275
190.269
190.264
190.258
190.252
190.247
190.241
190.235
190.23
190.224
190.219
190.213
190.208
190.202
190.197
190.191
190.186
190.18
190.175
190.169
190.164
190.159
190.153
190.148
190.142
190.137
190.132
190.126
190.121
190.116
190.111
190.105
190.1
190.095
190.09
190.085
190.079
190.074
190.069
190.064
190.059
190.054
190.048
190.043
190.038
190.033
190.028
190.023
190.018
190.013
190.008
190.003
189.998
189.993
189.988
189.983
189.978
189.973
189.968
189.963
189.958
189.954
189.949
189.944
189.944
193.084
193.084
193.007
192.952
192.921
192.901
192.886
192.873
192.862
192.852
192.842
192.832
192.823
192.814
192.805
192.796
192.788
192.779
192.771
192.763
192.755
192.747
192.739
192.731
192.723
192.715
192.708
192.7
192.692
192.685
192.677
192.67
192.662
192.655
192.647
192.64
192.632
192.625
192.618
192.61
192.603
192.595
192.588
192.581
192.573
192.566
192.558
192.551
192.543
192.536
192.529
192.521
192.514
192.506
192.499
192.491
192.484
192.476
192.469
192.461
192.453
192.446
192.438
192.431
192.423
192.416
192.408
192.401
192.393
192.385
192.378
192.37
192.363
192.355
192.347
192.34
192.332
192.324
192.317
192.309
192.301
192.294
192.286
192.278
192.27
192.262
192.254
192.247
192.239
192.231
192.223
192.215
192.207
192.199
192.191
192.183
192.175
192.166
192.158
192.15
192.142
192.134
192.125
192.117
192.109
192.1
192.092
192.084
192.075
192.067
192.058
192.05
192.041
192.032
192.024
192.015
192.007
191.998
191.989
191.981
191.972
191.963
191.954
191.945
191.937
191.928
191.919
191.91
191.901
191.892
191.883
191.874
191.865
191.856
191.847
191.838
191.829
191.82
191.811
191.802
191.793
191.784
191.775
191.766
191.757
191.748
191.739
191.73
191.721
191.711
191.702
191.693
191.684
191.675
191.666
191.657
191.648
191.638
191.629
191.62
191.611
191.602
191.593
191.584
191.574
191.565
191.556
191.547
191.538
191.529
191.52
191.51
191.501
191.492
191.483
191.474
191.465
191.456
191.447
191.438
191.429
191.42
191.411
191.402
191.393
191.384
191.375
191.366
191.357
191.348
191.339
191.33
191.321
191.312
191.303
191.294
191.286
191.277
191.268
191.259
191.25
191.242
191.233
191.224
191.216
191.207
191.198
191.189
191.181
191.172
191.164
191.155
191.147
191.138
191.129
191.121
191.112
191.104
191.096
191.087
191.079
191.07
191.062
191.054
191.045
191.037
191.029
191.021
191.012
191.004
190.996
190.988
190.98
190.972
190.964
190.956
190.948
190.94
190.932
190.924
190.916
190.908
190.9
190.892
190.884
190.877
190.869
190.861
190.853
190.846
190.838
190.83
190.823
190.815
190.808
190.8
190.793
190.785
190.778
190.77
190.763
190.755
190.748
190.741
190.733
190.726
190.719
190.712
190.704
190.697
190.69
190.683
190.676
190.669
190.662
190.655
190.648
190.641
190.634
190.627
190.62
190.613
190.606
190.599
190.592
190.586
190.579
190.572
190.566
190.559
190.552
190.546
190.539
190.532
190.526
190.519
190.513
190.506
190.5
190.493
190.487
190.48
190.474
190.468
190.461
190.455
190.449
190.442
190.436
190.43
190.424
190.418
190.411
190.405
190.399
190.393
190.387
190.381
190.375
190.369
190.363
190.357
190.351
190.345
190.339
190.333
190.327
190.321
190.315
190.31
190.304
190.298
190.292
190.286
190.281
190.275
190.269
190.264
190.258
190.252
190.247
190.241
190.235
190.23
190.224
190.219
190.213
190.208
190.202
190.197
190.191
190.186
190.18
190.175
190.169
190.164
190.159
190.153
190.148
190.142
190.137
190.132
190.126
190.121
190.116
190.111
190.105
190.1
190.095
190.09
190.085
190.079
190.074
190.069
190.064
190.059
190.054
190.048
190.043
190.038
190.033
190.028
190.023
190.018
190.013
190.008
190.003
189.998
189.993
189.988
189.983
189.978
189.973
189.968
189.963
189.958
189.953
189.949
189.944
189.944
193.062
193.062
193.003
192.955
192.924
192.904
192.888
192.875
192.863
192.853
192.843
192.833
192.823
192.814
192.805
192.797
192.788
192.779
192.771
192.763
192.755
192.747
192.739
192.731
192.723
192.715
192.708
192.7
192.692
192.685
192.677
192.67
192.662
192.655
192.647
192.64
192.632
192.625
192.618
192.61
192.603
192.595
192.588
192.581
192.573
192.566
192.558
192.551
192.543
192.536
192.529
192.521
192.514
192.506
192.499
192.491
192.484
192.476
192.469
192.461
192.453
192.446
192.438
192.431
192.423
192.416
192.408
192.401
192.393
192.385
192.378
192.37
192.363
192.355
192.347
192.34
192.332
192.324
192.317
192.309
192.301
192.293
192.286
192.278
192.27
192.262
192.254
192.247
192.239
192.231
192.223
192.215
192.207
192.199
192.191
192.183
192.175
192.166
192.158
192.15
192.142
192.134
192.125
192.117
192.109
192.1
192.092
192.084
192.075
192.067
192.058
192.05
192.041
192.032
192.024
192.015
192.007
191.998
191.989
191.98
191.972
191.963
191.954
191.945
191.937
191.928
191.919
191.91
191.901
191.892