# vtk DataFile Version 2.0
FlowField
ASCII
DATASET STRUCTURED_GRID
DIMENSIONS 400 1 50
POINTS 20000 float
0 0 0
0.08 0 0
0.16 0 0
0.24 0 0
0.32 0 0
0.4 0 0
0.48 0 0
0.56 0 0
0.64 0 0
0.72 0 0
0.8 0 0
0.88 0 0
0.96 0 0
1.04 0 0
1.12 0 0
1.2 0 0
1.28 0 0
1.36 0 0
1.44 0 0
1.52 0 0
1.6 0 0
1.68 0 0
1.76 0 0
1.84 0 0
1.92 0 0
2 0 0
2.08 0 0
2.16 0 0
2.24 0 0
2.32 0 0
2.4 0 0
2.48 0 0
2.56 0 0
2.64 0 0
2.72 0 0
2.8 0 0
2.88 0 0
2.96 0 0
3.04 0 0
3.12 0 0
3.2 0 0
3.28 0 0
3.36 0 0
3.44 0 0
3.52 0 0
3.6 0 0
3.68 0 0
3.76 0 0
3.84 0 0
3.92 0 0
4 0 0
4.08 0 0
4.16 0 0
4.24 0 0
4.32 0 0
4.4 0 0
4.48 0 0
4.56 0 0
4.64 0 0
4.72 0 0
4.8 0 0
4.88 0 0
4.96 0 0
5.04 0 0
5.12 0 0
5.2 0 0
5.28 0 0
5.36 0 0
5.44 0 0
5.52 0 0
5.6 0 0
5.68 0 0
5.76 0 0
5.84 0 0
5.92 0 0
6 0 0
6.08 0 0
6.16 0 0
6.24 0 0
6.32 0 0
6.4 0 0
6.48 0 0
6.56 0 0
6.64 0 0
6.72 0 0
6.8 0 0
6.88 0 0
6.96 0 0
7.04 0 0
7.12 0 0
7.2 0 0
7.28 0 0
7.36 0 0
7.44 0 0
7.52 0 0
7.6 0 0
7.68 0 0
7.76 0 0
7.84 0 0
7.92 0 0
8 0 0
8.08 0 0
8.16 0 0
8.24 0 0
8.32 0 0
8.4 0 0
8.48 0 0
8.56 0 0
8.64 0 0
8.72 0 0
8.8 0 0
8.88 0 0
8.96 0 0
9.04 0 0
9.12 0 0
9.2 0 0
9.28 0 0
9.36 0 0
9.44 0 0
9.52 0 0
9.6 0 0
9.68 0 0
9.76 0 0
9.84 0 0
9.92 0 0
10 0 0
10.08 0 0
10.16 0 0
10.24 0 0
10.32 0 0
10.4 0 0
10.48 0 0
10.56 0 0
10.64 0 0
10.72 0 0
10.8 0 0
10.88 0 0
10.96 0 0
11.04 0 0
11.12 0 0
11.2 0 0
11.28 0 0
11.36 0 0
11.44 0 0
11.52 0 0
11.6 0 0
11.68 0 0
11.76 0 0
11.84 0 0
11.92 0 0
12 0 0
12.08 0 0
12.16 0 0
12.24 0 0
12.32 0 0
12.4 0 0
12.48 0 0
12.56 0 0
12.64 0 0
12.72 0 0
12.8 0 0
12.88 0 0
12.96 0 0
13.04 0 0
13.12 0 0
13.2 0 0
13.28 0 0
13.36 0 0
13.44 0 0
13.52 0 0
13.6 0 0
13.68 0 0
13.76 0 0
13.84 0 0
13.92 0 0
14 0 0
14.08 0 0
14.16 0 0
14.24 0 0
14.32 0 0
14.4 0 0
14.48 0 0
14.56 0 0
14.64 0 0
14.72 0 0
14.8 0 0
14.88 0 0
14.96 0 0
15.04 0 0
15.12 0 0
15.2 0 0
15.28 0 0
15.36 0 0
15.44 0 0
15.52 0 0
15.6 0 0
15.68 0 0
15.76 0 0
15.84 0 0
15.92 0 0
16 0 0
16.08 0 0
16.16 0 0
16.24 0 0
16.32 0 0
16.4 0 0
16.48 0 0
16.56 0 0
16.64 0 0
16.72 0 0
16.8 0 0
16.88 0 0
16.96 0 0
17.04 0 0
17.12 0 0
17.2 0 0
17.28 0 0
17.36 0 0
17.44 0 0
17.52 0 0
17.6 0 0
17.68 0 0
17.76 0 0
17.84 0 0
17.92 0 0
18 0 0
18.08 0 0
18.16 0 0
18.24 0 0
18.32 0 0
18.4 0 0
18.48 0 0
18.56 0 0
18.64 0 0
18.72 0 0
18.8 0 0
18.88 0 0
18.96 0 0
19.04 0 0
19.12 0 0
19.2 0 0
19.28 0 0
19.36 0 0
19.44 0 0
19.52 0 0
19.6 0 0
19.68 0 0
19.76 0 0
19.84 0 0
19.92 0 0
20 0 0
20.08 0 0
20.16 0 0
20.24 0 0
20.32 0 0
20.4 0 0
20.48 0 0
20.56 0 0
20.64 0 0
20.72 0 0
20.8 0 0
20.88 0 0
20.96 0 0
21.04 0 0
21.12 0 0
21.2 0 0
21.28 0 0
21.36 0 0
21.44 0 0
21.52 0 0
21.6 0 0
21.68 0 0
21.76 0 0
21.84 0 0
21.92 0 0
22 0 0
22.08 0 0
22.16 0 0
22.24 0 0
22.32 0 0
22.4 0 0
22.48 0 0
22.56 0 0
22.64 0 0
22.72 0 0
22.8 0 0
22.88 0 0
22.96 0 0
23.04 0 0
23.12 0 0
23.2 0 0
23.28 0 0
23.36 0 0
23.44 0 0
23.52 0 0
23.6 0 0
23.68 0 0
23.76 0 0
23.84 0 0
23.92 0 0
24 0 0
24.08 0 0
24.16 0 0
24.24 0 0
24.32 0 0
24.4 0 0
24.48 0 0
24.56 0 0
24.64 0 0
24.72 0 0
24.8 0 0
24.88 0 0
24.96 0 0
25.04 0 0
25.12 0 0
25.2 0 0
25.28 0 0
25.36 0 0
25.44 0 0
25.52 0 0
25.6 0 0
25.68 0 0
25.76 0 0
25.84 0 0
25.92 0 0
26 0 0
26.08 0 0
26.16 0 0
26.24 0 0
26.32 0 0
26.4 0 0
26.48 0 0
26.56 0 0
26.64 0 0
26.72 0 0
26.8 0 0
26.88 0 0
26.96 0 0
27.04 0 0
27.12 0 0
27.2 0 0
27.28 0 0
27.36 0 0
27.44 0 0
27.52 0 0
27.6 0 0
27.68 0 0
27.76 0 0
27.84 0 0
27.92 0 0
28 0 0
28.08 0 0
28.16 0 0
28.24 0 0
28.32 0 0
28.4 0 0
28.48 0 0
28.56 0 0
28.64 0 0
28.72 0 0
28.8 0 0
28.88 0 0
28.96 0 0
29.04 0 0
29.12 0 0
29.2 0 0
29.28 0 0
29.36 0 0
29.44 0 0
29.52 0 0
29.6 0 0
29.68 0 0
29.76 0 0
29.84 0 0
29.92 0 0
30 0 0
30.08 0 0
30.16 0 0
30.24 0 0
30.32 0 0
30.4 0 0
30.48 0 0
30.56 0 0
30.64 0 0
30.72 0 0
30.8 0 0
30.88 0 0
30.96 0 0
31.04 0 0
31.12 0 0
31.2 0 0
31.28 0 0
31.36 0 0
31.44 0 0
31.52 0 0
31.6 0 0
31.68 0 0
31.76 0 0
31.84 0 0
31.92 0 0
0 0.02 0
0.08 0.02 0
0.16 0.02 0
0.24 0.02 0
0.32 0.02 0
0.4 0.02 0
0.48 0.02 0
0.56 0.02 0
0.64 0.02 0
0.72 0.02 0
0.8 0.02 0
0.88 0.02 0
0.96 0.02 0
1.04 0.02 0
1.12 0.02 0
1.2 0.02 0
1.28 0.02 0
1.36 0.02 0
1.44 0.02 0
1.52 0.02 0
1.6 0.02 0
1.68 0.02 0
1.76 0.02 0
1.84 0.02 0
1.92 0.02 0
2 0.02 0
2.08 0.02 0
2.16 0.02 0
2.24 0.02 0
2.32 0.02 0
2.4 0.02 0
2.48 0.02 0
2.56 0.02 0
2.64 0.02 0
2.72 0.02 0
2.8 0.02 0
2.88 0.02 0
2.96 0.02 0
3.04 0.02 0
3.12 0.02 0
3.2 0.02 0
3.28 0.02 0
3.36 0.02 0
3.44 0.02 0
3.52 0.02 0
3.6 0.02 0
3.68 0.02 0
3.76 0.02 0
3.84 0.02 0
3.92 0.02 0
4 0.02 0
4.08 0.02 0
4.16 0.02 0
4.24 0.02 0
4.32 0.02 0
4.4 0.02 0
4.48 0.02 0
4.56 0.02 0
4.64 0.02 0
4.72 0.02 0
4.8 0.02 0
4.88 0.02 0
4.96 0.02 0
5.04 0.02 0
5.12 0.02 0
5.2 0.02 0
5.28 0.02 0
5.36 0.02 0
5.44 0.02 0
5.52 0.02 0
5.6 0.02 0
5.68 0.02 0
5.76 0.02 0
5.84 0.02 0
5.92 0.02 0
6 0.02 0
6.08 0.02 0
6.16 0.02 0
6.24 0.02 0
6.32 0.02 0
6.4 0.02 0
6.48 0.02 0
6.56 0.02 0
6.64 0.02 0
6.72 0.02 0
6.8 0.02 0
6.88 0.02 0
6.96 0.02 0
7.04 0.02 0
7.12 0.02 0
7.2 0.02 0
7.28 0.02 0
7.36 0.02 0
7.44 0.02 0
7.52 0.02 0
7.6 0.02 0
7.68 0.02 0
7.76 0.02 0
7.84 0.02 0
7.92 0.02 0
8 0.02 0
8.08 0.02 0
8.16 0.02 0
8.24 0.02 0
8.32 0.02 0
8.4 0.02 0
8.48 0.02 0
8.56 0.02 0
8.64 0.02 0
8.72 0.02 0
8.8 0.02 0
8.88 0.02 0
8.96 0.02 0
9.04 0.02 0
9.12 0.02 0
9.2 0.02 0
9.28 0.02 0
9.36 0.02 0
9.44 0.02 0
9.52 0.02 0
9.6 0.02 0
9.68 0.02 0
9.76 0.02 0
9.84 0.02 0
9.92 0.02 0
10 0.02 0
10.08 0.02 0
10.16 0.02 0
10.24 0.02 0
10.32 0.02 0
10.4 0.02 0
10.48 0.02 0
10.56 0.02 0
10.64 0.02 0
10.72 0.02 0
10.8 0.02 0
10.88 0.02 0
10.96 0.02 0
11.04 0.02 0
11.12 0.02 0
11.2 0.02 0
11.28 0.02 0
11.36 0.02 0
11.44 0.02 0
11.52 0.02 0
11.6 0.02 0
11.68 0.02 0
11.76 0.02 0
11.84 0.02 0
11.92 0.02 0
12 0.02 0
12.08 0.02 0
12.16 0.02 0
12.24 0.02 0
12.32 0.02 0
12.4 0.02 0
12.48 0.02 0
12.56 0.02 0
12.64 0.02 0
12.72 0.02 0
12.8 0.02 0
12.88 0.02 0
12.96 0.02 0
13.04 0.02 0
13.12 0.02 0
13.2 0.02 0
13.28 0.02 0
13.36 0.02 0
13.44 0.02 0
13.52 0.02 0
13.6 0.02 0
13.68 0.02 0
13.76 0.02 0
13.84 0.02 0
13.92 0.02 0
14 0.02 0
14.08 0.02 0
14.16 0.02 0
14.24 0.02 0
14.32 0.02 0
14.4 0.02 0
14.48 0.02 0
14.56 0.02 0
14.64 0.02 0
14.72 0.02 0
14.8 0.02 0
14.88 0.02 0
14.96 0.02 0
15.04 0.02 0
15.12 0.02 0
15.2 0.02 0
15.28 0.02 0
15.36 0.02 0
15.44 0.02 0
15.52 0.02 0
15.6 0.02 0
15.68 0.02 0
15.76 0.02 0
15.84 0.02 0
15.92 0.02 0
16 0.02 0
16.08 0.02 0
16.16 0.02 0
16.24 0.02 0
16.32 0.02 0
16.4 0.02 0
16.48 0.02 0
16.56 0.02 0
16.64 0.02 0
16.72 0.02 0
16.8 0.02 0
16.88 0.02 0
16.96 0.02 0
17.04 0.02 0
17.12 0.02 0
17.2 0.02 0
17.28 0.02 0
17.36 0.02 0
17.44 0.02 0
17.52 0.02 0
17.6 0.02 0
17.68 0.02 0
17.76 0.02 0
17.84 0.02 0
17.92 0.02 0
18 0.02 0
18.08 0.02 0
18.16 0.02 0
18.24 0.02 0
18.32 0.02 0
18.4 0.02 0
18.48 0.02 0
18.56 0.02 0
18.64 0.02 0
18.72 0.02 0
18.8 0.02 0
18.88 0.02 0
18.96 0.02 0
19.04 0.02 0
19.12 0.02 0
19.2 0.02 0
19.28 0.02 0
19.36 0.02 0
19.44 0.02 0
19.52 0.02 0
19.6 0.02 0
19.68 0.02 0
19.76 0.02 0
19.84 0.02 0
19.92 0.02 0
20 0.02 0
20.08 0.02 0
20.16 0.02 0
20.24 0.02 0
20.32 0.02 0
20.4 0.02 0
20.48 0.02 0
20.56 0.02 0
20.64 0.02 0
20.72 0.02 0
20.8 0.02 0
20.88 0.02 0
20.96 0.02 0
21.04 0.02 0
21.12 0.02 0
21.2 0.02 0
21.28 0.02 0
21.36 0.02 0
21.44 0.02 0
21.52 0.02 0
21.6 0.02 0
21.68 0.02 0
21.76 0.02 0
21.84 0.02 0
21.92 0.02 0
22 0.02 0
22.08 0.02 0
22.16 0.02 0
22.24 0.02 0
22.32 0.02 0
22.4 0.02 0
22.48 0.02 0
22.56 0.02 0
22.64 0.02 0
22.72 0.02 0
22.8 0.02 0
22.88 0.02 0
22.96 0.02 0
23.04 0.02 0
23.12 0.02 0
23.2 0.02 0
23.28 0.02 0
23.36 0.02 0
23.44 0.02 0
23.52 0.02 0
23.6 0.02 0
23.68 0.02 0
23.76 0.02 0
23.84 0.02 0
23.92 0.02 0
24 0.02 0
24.08 0.02 0
24.16 0.02 0
24.24 0.02 0
24.32 0.02 0
24.4 0.02 0
24.48 0.02 0
24.56 0.02 0
24.64 0.02 0
24.72 0.02 0
24.8 0.02 0
24.88 0.02 0
24.96 0.02 0
25.04 0.02 0
25.12 0.02 0
25.2 0.02 0
25.28 0.02 0
25.36 0.02 0
25.44 0.02 0
25.52 0.02 0
25.6 0.02 0
25.68 0.02 0
25.76 0.02 0
25.84 0.02 0
25.92 0.02 0
26 0.02 0
26.08 0.02 0
26.16 0.02 0
26.24 0.02 0
26.32 0.02 0
26.4 0.02 0
26.48 0.02 0
26.56 0.02 0
26.64 0.02 0
26.72 0.02 0
26.8 0.02 0
26.88 0.02 0
26.96 0.02 0
27.04 0.02 0
27.12 0.02 0
27.2 0.02 0
27.28 0.02 0
27.36 0.02 0
27.44 0.02 0
27.52 0.02 0
27.6 0.02 0
27.68 0.02 0
27.76 0.02 0
27.84 0.02 0
27.92 0.02 0
28 0.02 0
28.08 0.02 0
28.16 0.02 0
28.24 0.02 0
28.32 0.02 0
28.4 0.02 0
28.48 0.02 0
28.56 0.02 0
28.64 0.02 0
28.72 0.02 0
28.8 0.02 0
28.88 0.02 0
28.96 0.02 0
29.04 0.02 0
29.12 0.02 0
29.2 0.02 0
29.28 0.02 0
29.36 0.02 0
29.44 0.02 0
29.52 0.02 0
29.6 0.02 0
29.68 0.02 0
29.76 0.02 0
29.84 0.02 0
29.92 0.02 0
30 0.02 0
30.08 0.02 0
30.16 0.02 0
30.24 0.02 0
30.32 0.02 0
30.4 0.02 0
30.48 0.02 0
30.56 0.02 0
30.64 0.02 0
30.72 0.02 0
30.8 0.02 0
30.88 0.02 0
30.96 0.02 0
31.04 0.02 0
31.12 0.02 0
31.2 0.02 0
31.28 0.02 0
31.36 0.02 0
31.44 0.02 0
31.52 0.02 0
31.6 0.02 0
31.68 0.02 0
31.76 0.02 0
31.84 0.02 0
31.92 0.02 0
0 0.04 0
0.08 0.04 0
0.16 0.04 0
0.24 0.04 0
0.32 0.04 0
0.4 0.04 0
0.48 0.04 0
0.56 0.04 0
0.64 0.04 0
0.72 0.04 0
0.8 0.04 0
0.88 0.04 0
0.96 0.04 0
1.04 0.04 0
1.12 0.04 0
1.2 0.04 0
1.28 0.04 0
1.36 0.04 0
1.44 0.04 0
1.52 0.04 0
1.6 0.04 0
1.68 0.04 0
1.76 0.04 0
1.84 0.04 0
1.92 0.04 0
2 0.04 0
2.08 0.04 0
2.16 0.04 0
2.24 0.04 0
2.32 0.04 0
2.4 0.04 0
2.48 0.04 0
2.56 0.04 0
2.64 0.04 0
2.72 0.04 0
2.8 0.04 0
2.88 0.04 0
2.96 0.04 0
3.04 0.04 0
3.12 0.04 0
3.2 0.04 0
3.28 0.04 0
3.36 0.04 0
3.44 0.04 0
3.52 0.04 0
3.6 0.04 0
3.68 0.04 0
3.76 0.04 0
3.84 0.04 0
3.92 0.04 0
4 0.04 0
4.08 0.04 0
4.16 0.04 0
4.24 0.04 0
4.32 0.04 0
4.4 0.04 0
4.48 0.04 0
4.56 0.04 0
4.64 0.04 0
4.72 0.04 0
4.8 0.04 0
4.88 0.04 0
4.96 0.04 0
5.04 0.04 0
5.12 0.04 0
5.2 0.04 0
5.28 0.04 0
5.36 0.04 0
5.44 0.04 0
5.52 0.04 0
5.6 0.04 0
5.68 0.04 0
5.76 0.04 0
5.84 0.04 0
5.92 0.04 0
6 0.04 0
6.08 0.04 0
6.16 0.04 0
6.24 0.04 0
6.32 0.04 0
6.4 0.04 0
6.48 0.04 0
6.56 0.04 0
6.64 0.04 0
6.72 0.04 0
6.8 0.04 0
6.88 0.04 0
6.96 0.04 0
7.04 0.04 0
7.12 0.04 0
7.2 0.04 0
7.28 0.04 0
7.36 0.04 0
7.44 0.04 0
7.52 0.04 0
7.6 0.04 0
7.68 0.04 0
7.76 0.04 0
7.84 0.04 0
[...]
POINT_DATA 20000

SCALARS u float 1
LOOKUP_TABLE default
0
-0.507065
-0.291882
-0.214115
-0.178973
-0.158606
-0.145049
-0.135294
-0.1279
-0.122071
-0.117332
-0.11338
-0.110016
-0.107103
-0.104545
-0.102272
-0.100233
-0.0983892
-0.0967107
-0.0951738
-0.0937596
-0.0924527
-0.0912404
-0.090112
-0.0890588
-0.088073
-0.0871481
-0.0862784
-0.0854588
-0.084685
-0.083953
-0.0832594
-0.0826011
-0.0819755
-0.0813802
-0.080813
-0.0802719
-0.0797551
-0.0792609
-0.0787877
-0.0783341
-0.077899
-0.0774814
-0.0770803
-0.0766949
-0.0763243
-0.0759677
-0.0756242
-0.075293
-0.0749733
-0.0746645
-0.0743661
-0.0740778
-0.0737992
-0.07353
-0.0732696
-0.0730174
-0.0727729
-0.0725356
-0.0723051
-0.0720812
-0.0718639
-0.0716531
-0.0714486
-0.0712503
-0.0710579
-0.070871
-0.0706891
-0.0705118
-0.0703388
-0.0701701
-0.0700058
-0.0698461
-0.0696912
-0.0695407
-0.0693941
-0.0692508
-0.0691105
-0.0689728
-0.0688379
-0.0687061
-0.0685778
-0.0684533
-0.0683326
-0.0682156
-0.0681017
-0.0679904
-0.0678813
-0.0677741
-0.067669
-0.0675669
-0.0674685
-0.0673745
-0.0672848
-0.0671988
-0.0671155
-0.0670338
-0.0669536
-0.0668755
-0.0668008
-0.0667307
-0.0666658
-0.0666058
-0.0665497
-0.0664959
-0.0664437
-0.0663929
-0.0663442
-0.0662987
-0.0662573
-0.0662202
-0.0661869
-0.0661563
-0.0661275
-0.0660998
-0.0660734
-0.0660486
-0.0660264
-0.0660071
-0.065991
-0.0659777
-0.0659666
-0.0659573
-0.0659493
-0.0659427
-0.0659375
-0.065934
-0.0659324
-0.0659326
-0.0659343
-0.0659371
-0.0659409
-0.0659452
-0.0659501
-0.0659556
-0.0659621
-0.0659695
-0.0659782
-0.0659879
-0.0659987
-0.0660102
-0.0660223
-0.0660348
-0.0660475
-0.0660603
-0.0660732
-0.0660861
-0.0660991
-0.0661123
-0.0661255
-0.0661388
-0.0661523
-0.0661657
-0.0661792
-0.0661927
-0.0662061
-0.0662195
-0.0662328
-0.0662461
-0.0662593
-0.0662725
-0.0662857
-0.0662988
-0.0663118
-0.0663249
-0.0663379
-0.0663508
-0.0663637
-0.0663766
-0.0663895
-0.0664023
-0.066415
-0.0664277
-0.0664404
-0.066453
-0.0664656
-0.0664782
-0.0664907
-0.0665031
-0.0665155
-0.0665279
-0.0665402
-0.0665525
-0.0665648
-0.0665769
-0.0665891
-0.0666012
-0.0666133
-0.0666253
-0.0666373
-0.0666492
-0.0666611
-0.0666729
-0.0666847
-0.0666964
-0.0667081
-0.0667198
-0.0667314
-0.0667429
-0.0667545
-0.0667659
-0.0667773
-0.0667887
-0.0668
-0.0668113
-0.0668225
-0.0668337
-0.0668448
-0.0668559
-0.066867
-0.0668779
-0.0668889
-0.0668998
-0.0669106
-0.0669214
-0.0669321
-0.0669428
-0.0669535
-0.0669641
-0.0669746
-0.0669851
-0.0669955
-0.0670059
-0.0670163
-0.0670266
-0.0670368
-0.067047
-0.0670572
-0.0670673
-0.0670773
-0.0670873
-0.0670972
-0.0671071
-0.067117
-0.0671268
-0.0671365
-0.0671462
-0.0671558
-0.0671654
-0.067175
-0.0671844
-0.0671939
-0.0672033
-0.0672126
-0.0672219
-0.0672311
-0.0672403
-0.0672494
-0.0672585
-0.0672675
-0.0672765
-0.0672854
-0.0672943
-0.0673031
-0.0673119
-0.0673206
-0.0673292
-0.0673379
-0.0673464
-0.0673549
-0.0673634
-0.0673718
-0.0673802
-0.0673885
-0.0673967
-0.0674049
-0.0674131
-0.0674212
-0.0674293
-0.0674373
-0.0674452
-0.0674531
-0.067461
-0.0674688
-0.0674765
-0.0674842
-0.0674919
-0.0674995
-0.067507
-0.0675145
-0.067522
-0.0675294
-0.0675367
-0.0675441
-0.0675513
-0.0675585
-0.0675657
-0.0675728
-0.0675798
-0.0675869
-0.0675938
-0.0676007
-0.0676076
-0.0676144
-0.0676212
-0.0676279
-0.0676346
-0.0676412
-0.0676478
-0.0676544
-0.0676608
-0.0676673
-0.0676737
-0.06768
-0.0676863
-0.0676926
-0.0676988
-0.067705
-0.0677111
-0.0677172
-0.0677232
-0.0677292
-0.0677352
-0.0677411
-0.0677469
-0.0677528
-0.0677585
-0.0677643
-0.0677699
-0.0677756
-0.0677812
-0.0677867
-0.0677923
-0.0677977
-0.0678032
-0.0678086
-0.0678139
-0.0678192
-0.0678245
-0.0678298
-0.0678349
-0.0678401
-0.0678452
-0.0678503
-0.0678553
-0.0678603
-0.0678653
-0.0678702
-0.0678751
-0.06788
-0.0678848
-0.0678896
-0.0678943
-0.067899
-0.0679037
-0.0679083
-0.0679129
-0.0679175
-0.067922
-0.0679266
-0.067931
-0.0679355
-0.0679399
-0.0679442
-0.0679486
-0.0679529
-0.0679572
-0.0679614
-0.0679656
-0.0679698
-0.067974
-0.0679781
-0.0679822
-0.0679863
-0.0679903
-0.0679944
-0.0679983
-0.0680023
-0.0680062
-0.0680102
-0.068014
-0.068018
-0.0680218
-0.0680257
-0.0680294
-0.0680333
-0.0680369
-0.0680408
-0.0680444
-0.0680483
-0.0680517
-0.0680558
-0.0680591
-0.0680632
-0.0680663
-0.0680706
-0.0680736
-0.0680781
-0.0680808
-0.0680856
-0.068088
-0.0680932
-0.0680955
-0.0681006
-0.0681032
-0.0681076
-0.0681105
-0.0681134
-0.0681134
-0.0681134
1
0.507065
0.291882
0.214115
0.178973
0.158606
0.145049
0.135294
0.1279
0.122071
0.117332
0.11338
0.110016
0.107103
0.104545
0.102272
0.100233
0.0983892
0.0967107
0.0951738
0.0937596
0.0924527
0.0912404
0.090112
0.0890588
0.088073
0.0871481
0.0862784
0.0854588
0.084685
0.083953
0.0832594
0.0826011
0.0819755
0.0813802
0.080813
0.0802719
0.0797551
0.0792609
0.0787877
0.0783341
0.077899
0.0774814
0.0770803
0.0766949
0.0763243
0.0759677
0.0756242
0.075293
0.0749733
0.0746645
0.0743661
0.0740778
0.0737992
0.07353
0.0732696
0.0730174
0.0727729
0.0725356
0.0723051
0.0720812
0.0718639
0.0716531
0.0714486
0.0712503
0.0710579
0.070871
0.0706891
0.0705118
0.0703388
0.0701701
0.0700058
0.0698461
0.0696912
0.0695407
0.0693941
0.0692508
0.0691105
0.0689728
0.0688379
0.0687061
0.0685778
0.0684533
0.0683326
0.0682156
0.0681017
0.0679904
0.0678813
0.0677741
0.067669
0.0675669
0.0674685
0.0673745
0.0672848
0.0671988
0.0671155
0.0670338
0.0669536
0.0668755
0.0668008
0.0667307
0.0666658
0.0666058
0.0665497
0.0664959
0.0664437
0.0663929
0.0663442
0.0662987
0.0662573
0.0662202
0.0661869
0.0661563
0.0661275
0.0660998
0.0660734
0.0660486
0.0660264
0.0660071
0.065991
0.0659777
0.0659666
0.0659573
0.0659493
0.0659427
0.0659375
0.065934
0.0659324
0.0659326
0.0659343
0.0659371
0.0659409
0.0659452
0.0659501
0.0659556
0.0659621
0.0659695
0.0659782
0.0659879
0.0659987
0.0660102
0.0660223
0.0660348
0.0660475
0.0660603
0.0660732
0.0660861
0.0660991
0.0661123
0.0661255
0.0661388
0.0661523
0.0661657
0.0661792
0.0661927
0.0662061
0.0662195
0.0662328
0.0662461
0.0662593
0.0662725
0.0662857
0.0662988
0.0663118
0.0663249
0.0663379
0.0663508
0.0663637
0.0663766
0.0663895
0.0664023
0.066415
0.0664277
0.0664404
0.066453
0.0664656
0.0664782
0.0664907
0.0665031
0.0665155
0.0665279
0.0665402
0.0665525
0.0665648
0.0665769
0.0665891
0.0666012
0.0666133
0.0666253
0.0666373
0.0666492
0.0666611
0.0666729
0.0666847
0.0666964
0.0667081
0.0667198
0.0667314
0.0667429
0.0667545
0.0667659
0.0667773
0.0667887
0.0668
0.0668113
0.0668225
0.0668337
0.0668448
0.0668559
0.066867
0.0668779
0.0668889
0.0668998
0.0669106
0.0669214
0.0669321
0.0669428
0.0669535
0.0669641
0.0669746
0.0669851
0.0669955
0.0670059
0.0670163
0.0670266
0.0670368
0.067047
0.0670572
0.0670673
0.0670773
0.0670873
0.0670972
0.0671071
0.067117
0.0671268
0.0671365
0.0671462
0.0671558
0.0671654
0.067175
0.0671844
0.0671939
0.0672033
0.0672126
0.0672219
0.0672311
0.0672403
0.0672494
0.0672585
0.0672675
0.0672765
0.0672854
0.0672943
0.0673031
0.0673119
0.0673206
0.0673292
0.0673379
0.0673464
0.0673549
0.0673634
0.0673718
0.0673802
0.0673885
0.0673967
0.0674049
0.0674131
0.0674212
0.0674293
0.0674373
0.0674452
0.0674531
0.067461
0.0674688
0.0674765
0.0674842
0.0674919
0.0674995
0.067507
0.0675145
0.067522
0.0675294
0.0675367
0.0675441
0.0675513
0.0675585
0.0675657
0.0675728
0.0675798
0.0675869
0.0675938
0.0676007
0.0676076
0.0676144
0.0676212
0.0676279
0.0676346
0.0676412
0.0676478
0.0676544
0.0676608
0.0676673
0.0676737
0.06768
0.0676863
0.0676926
0.0676988
0.067705
0.0677111
0.0677172
0.0677232
0.0677292
0.0677352
0.0677411
0.0677469
0.0677528
0.0677585
0.0677643
0.0677699
0.0677756
0.0677812
0.0677867
0.0677923
0.0677977
0.0678032
0.0678086
0.0678139
0.0678192
0.0678245
0.0678298
0.0678349
0.0678401
0.0678452
0.0678503
0.0678553
0.0678603
0.0678653
0.0678702
0.0678751
0.06788
0.0678848
0.0678896
0.0678943
0.067899
0.0679037
0.0679083
0.0679129
0.0679175
0.067922
0.0679266
0.067931
0.0679355
0.0679399
0.0679442
0.0679486
0.0679529
0.0679572
0.0679614
0.0679656
0.0679698
0.067974
0.0679781
0.0679822
0.0679863
0.0679903
0.0679944
0.0679983
0.0680023
0.0680062
0.0680102
0.068014
0.068018
0.0680218
0.0680257
0.0680294
0.0680333
0.0680369
0.0680408
0.0680444
0.0680483
0.0680517
0.0680558
0.0680591
0.0680632
0.0680663
0.0680706
0.0680736
0.0680781
0.0680808
0.0680856
0.068088
0.0680932
0.0680955
0.0681006
0.0681032
0.0681076
0.0681105
0.0681134
0.0681134
0.0681134
1
0.924254
0.735377
0.597458
0.511545
0.456215
0.418041
0.390127
0.368788
0.351896
0.338143
0.326679
0.316934
0.308513
0.301135
0.294595
0.288741
0.283459
0.278659
0.274271
0.270239
0.266517
0.263068
0.259862
0.25687
0.254073
0.251449
0.248984
0.246661
0.244469
0.242396
0.240432
0.238569
0.236799
0.235115
0.233511
0.23198
0.230519
0.229122
0.227784
0.226503
0.225274
0.224095
0.222963
0.221875
0.220829
0.219822
0.218852
0.217916
0.217014
0.216142
0.2153
0.214487
0.213701
0.212941
0.212206
0.211494
0.210804
0.210134
0.209484
0.208853
0.208241
0.207647
0.207071
0.206513
0.20597
0.205442
0.204928
0.204428
0.20394
0.203464
0.203002
0.202552
0.202115
0.201689
0.201274
0.200869
0.200472
0.200084
0.199705
0.199335
0.198975
0.198625
0.198286
0.197956
0.197635
0.197321
0.197014
0.196714
0.196422
0.196139
0.195868
0.195607
0.195358
0.195118
0.194885
0.194659
0.194439
0.194228
0.194028
0.19384
0.193665
0.193502
0.193348
0.1932
0.193058
0.192922
0.192793
0.192674
0.192566
0.192468
0.192378
0.192295
0.192217
0.192143
0.192075
0.192012
0.191956
0.191908
0.191868
0.191835
0.191807
0.191783
0.191763
0.191747
0.191736
0.191729
0.191727
0.191729
0.191734
0.191743
0.191754
0.191766
0.191781
0.191797
0.191817
0.191839
0.191863
0.191891
0.19192
0.191951
0.191983
0.192016
0.192049
0.192083
0.192117
0.192151
0.192185
0.192219
0.192254
0.192289
0.192324
0.192359
0.192394
0.192429
0.192464
0.192499
0.192533
0.192568
0.192602
0.192636
0.19267
0.192704
0.192738
0.192772
0.192806
0.19284
0.192873
0.192907
0.19294
0.192974
0.193007
0.19304
0.193073
0.193106
0.193138
0.193171
0.193204
0.193236
0.193268
0.1933
0.193333
0.193364
0.193396
0.193428
0.19346
0.193491
0.193523
0.193554
0.193585
0.193616
0.193647
0.193678
0.193709
0.193739
0.19377
0.1938
0.19383
0.19386
0.19389
0.19392
0.19395
0.193979
0.194009
0.194038
0.194067
0.194096
0.194125
0.194154
0.194183
0.194212
0.19424
0.194268
0.194297
0.194325
0.194353
0.194381
0.194408
0.194436
0.194463
0.194491
0.194518
0.194545
0.194572
0.194599
0.194625
0.194652
0.194678
0.194705
0.194731
0.194757
0.194783
0.194808
0.194834
0.19486
0.194885
0.19491
0.194935
0.19496
0.194985
0.19501
0.195034
0.195059
0.195083
0.195107
0.195131
0.195155
0.195179
0.195202
0.195226
0.195249
0.195272
0.195295
0.195318
0.195341
0.195364
0.195386
0.195409
0.195431
0.195453
0.195475
0.195497
0.195519
0.19554
0.195562
0.195583
0.195604
0.195625
0.195646
0.195667
0.195688
0.195708
0.195729
0.195749
0.195769
0.195789
0.195809
0.195829
0.195848
0.195868
0.195887
0.195906
0.195925
0.195944
0.195963
0.195982
0.196001
0.196019
0.196037
0.196056
0.196074
0.196092
0.196109
0.196127
0.196145
0.196162
0.196179
0.196197
0.196214
0.196231
0.196248
0.196264
0.196281
0.196297
0.196314
0.19633
0.196346
0.196362
0.196378
0.196394
0.196409
0.196425
0.19644
0.196456
0.196471
0.196486
0.196501
0.196516
0.196531
0.196545
0.19656
0.196574
0.196589
0.196603
0.196617
0.196631
0.196645
0.196659
0.196673
0.196686
0.1967
0.196713
0.196727
0.19674
0.196753
0.196766
0.196779
0.196792
0.196805
0.196817
0.19683
0.196842
0.196855
0.196867
0.196879
0.196892
0.196904
0.196916
0.196928
0.196939
0.196951
0.196963
0.196974
0.196986
0.196997
0.197009
0.19702
0.197031
0.197042
0.197053
0.197064
0.197075
0.197086
0.197097
0.197108
0.197119
0.197129
0.19714
0.19715
0.197161
0.197171
0.197182
0.197192
0.197202
0.197212
0.197223
0.197233
0.197243
0.197253
0.197263
0.197273
0.197283
0.197293
0.197303
0.197312
0.197324
0.197332
0.197344
0.197352
0.197365
0.197372
0.197385
0.197392
0.197406
0.197413
0.197425
0.197433
0.197441
0.197441
0.197441
1
1.07966
0.996989
0.883539
0.788557
0.716748
0.662863
0.62163
0.589272
0.563245
0.54184
0.523887
0.508569
0.495302
0.483665
0.473346
0.464108
0.455772
0.448198
0.441275
0.434915
0.429046
0.423609
0.418553
0.413838
0.409429
0.405294
0.401407
0.397746
0.39429
0.391022
0.387927
0.38499
0.382199
0.379544
0.377014
0.374601
0.372296
0.370093
0.367984
0.365963
0.364026
0.362167
0.360382
0.358667
0.357017
0.355429
0.353899
0.352423
0.351
0.349625
0.348297
0.347014
0.345775
0.344576
0.343415
0.342292
0.341202
0.340146
0.33912
0.338126
0.337161
0.336225
0.335317
0.334435
0.333578
0.332744
0.331933
0.331143
0.330373
0.329623
0.328893
0.328183
0.327493
0.32682
0.326164
0.325523
0.324896
0.324284
0.323686
0.323103
0.322536
0.321986
0.32145
0.320929
0.320422
0.319926
0.319443
0.318971
0.318513
0.318071
0.317645
0.317237
0.316845
0.316467
0.316102
0.315749
0.315408
0.315081
0.314772
0.314482
0.314211
0.313957
0.313715
0.313485
0.313265
0.313055
0.312858
0.312676
0.312509
0.312357
0.312217
0.312088
0.311966
0.311852
0.311747
0.311652
0.311568
0.311495
0.311434
0.311382
0.311338
0.311301
0.31127
0.311245
0.311227
0.311216
0.311212
0.311213
0.31122
0.311231
0.311246
0.311264
0.311285
0.31131
0.311338
0.311371
0.311408
0.311448
0.311491
0.311535
0.311582
0.311629
0.311676
0.311724
0.311773
0.311822
0.311871
0.31192
0.31197
0.31202
0.31207
0.312121
0.312171
0.312221
0.312271
0.312321
0.31237
0.31242
0.312469
0.312518
0.312567
0.312616
0.312665
0.312713
0.312762
0.31281
0.312858
0.312906
0.312954
0.313002
0.31305
0.313097
0.313145
0.313192
0.313239
0.313286
0.313333
0.313379
0.313426
0.313472
0.313518
0.313564
0.31361
0.313656
0.313702
0.313747
0.313792
0.313837
0.313882
0.313927
0.313972
0.314016
0.314061
0.314105
0.314149
0.314193
0.314236
0.31428
0.314323
0.314366
0.314409
0.314452
0.314495
0.314537
0.31458
0.314622
0.314664
0.314706
0.314748
0.314789
0.31483
0.314872
0.314913
0.314954
0.314994
0.315035
0.315075
0.315115
0.315155
0.315195
0.315235
0.315274
0.315313
0.315352
0.315391
0.31543
0.315469
0.315507
0.315545
0.315583
0.315621
0.315659
0.315697
0.315734
0.315771
0.315808
0.315845
0.315882
0.315918
0.315954
0.31599
0.316026
0.316062
0.316098
0.316133
0.316168
0.316203
0.316238
0.316273
0.316307
0.316342
0.316376
0.31641
0.316443
0.316477
0.31651
0.316544
0.316577
0.31661
0.316642
0.316675
0.316707
0.316739
0.316771
0.316803
0.316835
0.316866
0.316898
0.316929
0.31696
0.31699
0.317021
0.317051
0.317082
0.317112
0.317142
0.317171
0.317201
0.31723
0.317259
0.317288
0.317317
0.317346
0.317374
0.317403
0.317431
0.317459
0.317487
0.317515
0.317542
0.317569
0.317597
0.317624
0.31765
0.317677
0.317704
0.31773
0.317756
0.317782
0.317808
0.317834
0.31786
0.317885
0.31791
0.317935
0.31796
0.317985
0.31801
0.318034
0.318059
0.318083
0.318107
0.318131
0.318155
0.318178
0.318202
0.318225
0.318248
0.318271
0.318294
0.318317
0.31834
0.318362
0.318385
0.318407
0.318429
0.318451
0.318473
0.318494
0.318516
0.318537
0.318559
0.31858
0.318601
0.318622
0.318643
0.318664
0.318684
0.318705
0.318725
0.318745
0.318765
0.318785
0.318805
0.318825
0.318845
0.318865
0.318884
0.318903
0.318923
0.318942
0.318961
0.31898
0.318999
0.319018
0.319037
0.319055
0.319074
0.319092
0.319111
0.319129
0.319147
0.319165
0.319183
0.319201
0.319219
0.319237
0.319255
0.319273
0.31929
0.319308
0.319325
0.319343
0.31936
0.319378
0.319395
0.319412
0.319429
0.319447
0.319463
0.319482
0.319498
0.319516
0.319532
0.319551
0.319566
0.319586
0.3196
0.319621
0.319635
0.319656
0.31967
0.319692
0.319705
0.319727
0.319739
0.319758
0.319758
0.319758
1
1.11174
1.11429
1.05545
0.984225
0.918855
0.863593
0.817984
0.78039
0.749146
0.722868
0.70048
0.681164
0.664302
0.649424
0.636173
0.624272
0.613507
0.603705
0.594732
0.586477
0.57885
0.571776
0.565194
0.55905
0.5533
0.547904
0.542829
0.538046
0.533529
0.529255
0.525204
0.521359
0.517704
0.514225
0.510909
0.507745
0.504722
0.501831
0.499063
0.496411
0.493868
0.491427
0.489083
0.486829
0.484662
0.482575
0.480563
0.478624
0.476752
0.474944
0.473198
0.471511
0.46988
0.468302
0.466774
0.465295
0.463861
0.46247
0.461121
0.459813
0.458543
0.457311
0.456115
0.454954
0.453825
0.452728
0.451659
0.450618
0.449604
0.448616
0.447655
0.446719
0.445808
0.444921
0.444055
0.44321
0.442383
0.441576
0.440789
0.440022
0.439276
0.43855
0.437845
0.437158
0.436488
0.435835
0.435199
0.434579
0.433977
0.433396
0.432836
0.432299
0.431782
0.431285
0.430805
0.430342
0.429896
0.42947
0.429066
0.428687
0.428332
0.427997
0.42768
0.427377
0.427089
0.426815
0.426558
0.42632
0.426101
0.425901
0.425716
0.425545
0.425384
0.425234
0.425096
0.424972
0.424861
0.424766
0.424684
0.424614
0.424554
0.424502
0.424459
0.424425
0.424398
0.424381
0.424371
0.42437
0.424374
0.424384
0.424399
0.424419
0.424443
0.424472
0.424505
0.424544
0.424588
0.424635
0.424686
0.424739
0.424793
0.424849
0.424905
0.424962
0.425019
0.425077
0.425135
0.425194
0.425253
0.425312
0.425372
0.425431
0.425491
0.42555
0.425609
0.425668
0.425727
0.425785
0.425844
0.425902
0.42596
0.426018
0.426076
0.426133
0.426191
0.426248
0.426306
0.426363
0.42642
0.426477
0.426533
0.42659
0.426646
0.426702
0.426758
0.426814
0.42687
0.426925
0.426981
0.427036
0.427091
0.427146
0.4272
0.427255
0.427309
0.427363
0.427417
0.427471
0.427525
0.427578
0.427632
0.427685
0.427738
0.427791
0.427843
0.427896
0.427948
0.428
0.428052
0.428104
0.428155
0.428207
0.428258
0.428309
0.42836
0.42841
0.428461
0.428511
0.428561
0.428611
0.428661
0.428711
0.42876
0.428809
0.428858
0.428907
0.428956
0.429004
0.429052
0.4291
0.429148
0.429196
0.429243
0.429291
0.429338
0.429385
0.429431
0.429478
0.429524
0.42957
0.429616
0.429662
0.429708
0.429753
0.429798
0.429843
0.429888
0.429933
0.429977
0.430021
0.430065
0.430109
0.430153
0.430196
0.430239
0.430282
0.430325
0.430368
0.43041
0.430453
0.430495
0.430537
0.430578
0.43062
0.430661
0.430702
0.430743
0.430784
0.430824
0.430865
0.430905
0.430945
0.430985
0.431024
0.431064
0.431103
0.431142
0.431181
0.431219
0.431258
0.431296
0.431334
0.431372
0.431409
0.431447
0.431484
0.431521
0.431558
0.431595
0.431631
0.431668
0.431704
0.43174
0.431776
0.431811
0.431847
0.431882
0.431917
0.431952
0.431987
0.432022
0.432056
0.43209
0.432124
0.432158
0.432192
0.432225
0.432259
0.432292
0.432325
0.432358
0.43239
0.432423
0.432455
0.432487
0.432519
0.432551
0.432583
0.432614
0.432646
0.432677
0.432708
0.432739
0.432769
0.4328
0.43283
0.432861
0.432891
0.432921
0.432951
0.43298
0.43301
0.433039
0.433068
0.433097
0.433126
0.433155
0.433184
0.433212
0.433241
0.433269
0.433297
0.433325
0.433353
0.433381
0.433408
0.433436
0.433463
0.43349
0.433517
0.433544
0.433571
0.433598
0.433625
0.433651
0.433678
0.433704
0.43373
0.433756
0.433782
0.433808
0.433834
0.433859
0.433885
0.43391
0.433936
0.433961
0.433986
0.434011
0.434036
0.434061
0.434086
0.434111
0.434135
0.43416
0.434185
0.434209
0.434233
0.434258
0.434282
0.434306
0.43433
0.434355
0.434378
0.434403
0.434426
0.43445
0.434474
0.434498
0.434521
0.434546
0.434568
0.434594
0.434616
0.434642
0.434663
0.43469
0.434711
0.434739
0.434759
0.434788
0.434807
0.434838
0.434856
0.434887
0.434902
0.434935
0.434935
0.434935
1
1.09589
1.14359
1.13391
1.09755
1.05316
1.00921
0.968977
0.933356
0.902206
0.875023
0.851224
0.830267
0.811684
0.79509
0.78017
0.76667
0.754382
0.743138
0.7328
0.723256
0.71441
0.706184
0.698511
0.691335
0.684605
0.678279
0.672321
0.666697
0.661379
0.65634
0.65156
0.647018
0.642696
0.638579
0.634651
0.6309
0.627314
0.623882
0.620594
0.617442
0.614417
0.611514
0.608724
0.606041
0.603459
0.600972
0.598575
0.596262
0.594029
0.591872
0.589788
0.587774
0.585825
0.58394
0.582115
0.580346
0.578632
0.576969
0.575356
0.573792
0.572273
0.5708
0.56937
0.56798
0.56663
0.565316
0.564037
0.562791
0.561577
0.560394
0.559243
0.558122
0.557031
0.555967
0.554929
0.553915
0.552925
0.551958
0.551015
0.550097
0.549203
0.548333
0.547487
0.546663
0.545861
0.545078
0.544315
0.543572
0.542851
0.542155
0.541483
0.540838
0.540218
0.539621
0.539044
0.538488
0.537954
0.537444
0.536961
0.536506
0.536079
0.535676
0.535294
0.53493
0.534583
0.534254
0.533945
0.533658
0.533394
0.533151
0.532926
0.532717
0.532521
0.532339
0.532171
0.532019
0.531884