# vtk DataFile Version 2.0
FlowField
ASCII
DATASET STRUCTURED_GRID
DIMENSIONS 400 1 50
POINTS 20000 float
0 0 0
0.08 0 0
0.16 0 0
0.24 0 0
0.32 0 0
0.4 0 0
0.48 0 0
0.56 0 0
0.64 0 0
0.72 0 0
0.8 0 0
0.88 0 0
0.96 0 0
1.04 0 0
1.12 0 0
1.2 0 0
1.28 0 0
1.36 0 0
1.44 0 0
1.52 0 0
1.6 0 0
1.68 0 0
1.76 0 0
1.84 0 0
1.92 0 0
2 0 0
2.08 0 0
2.16 0 0
2.24 0 0
2.32 0 0
2.4 0 0
2.48 0 0
2.56 0 0
2.64 0 0
2.72 0 0
2.8 0 0
2.88 0 0
2.96 0 0
3.04 0 0
3.12 0 0
3.2 0 0
3.28 0 0
3.36 0 0
3.44 0 0
3.52 0 0
3.6 0 0
3.68 0 0
3.76 0 0
3.84 0 0
3.92 0 0
4 0 0
4.08 0 0
4.16 0 0
4.24 0 0
4.32 0 0
4.4 0 0
4.48 0 0
4.56 0 0
4.64 0 0
4.72 0 0
4.8 0 0
4.88 0 0
4.96 0 0
5.04 0 0
5.12 0 0
5.2 0 0
5.28 0 0
5.36 0 0
5.44 0 0
5.52 0 0
5.6 0 0
5.68 0 0
5.76 0 0
5.84 0 0
5.92 0 0
6 0 0
6.08 0 0
6.16 0 0
6.24 0 0
6.32 0 0
6.4 0 0
6.48 0 0
6.56 0 0
6.64 0 0
6.72 0 0
6.8 0 0
6.88 0 0
6.96 0 0
7.04 0 0
7.12 0 0
7.2 0 0
7.28 0 0
7.36 0 0
7.44 0 0
7.52 0 0
7.6 0 0
7.68 0 0
7.76 0 0
7.84 0 0
7.92 0 0
8 0 0
8.08 0 0
8.16 0 0
8.24 0 0
8.32 0 0
8.4 0 0
8.48 0 0
8.56 0 0
8.64 0 0
8.72 0 0
8.8 0 0
8.88 0 0
8.96 0 0
9.04 0 0
9.12 0 0
9.2 0 0
9.28 0 0
9.36 0 0
9.44 0 0
9.52 0 0
9.6 0 0
9.68 0 0
9.76 0 0
9.84 0 0
9.92 0 0
10 0 0
10.08 0 0
10.16 0 0
10.24 0 0
10.32 0 0
10.4 0 0
10.48 0 0
10.56 0 0
10.64 0 0
10.72 0 0
10.8 0 0
10.88 0 0
10.96 0 0
11.04 0 0
11.12 0 0
11.2 0 0
11.28 0 0
11.36 0 0
11.44 0 0
11.52 0 0
11.6 0 0
11.68 0 0
11.76 0 0
11.84 0 0
11.92 0 0
12 0 0
12.08 0 0
12.16 0 0
12.24 0 0
12.32 0 0
12.4 0 0
12.48 0 0
12.56 0 0
12.64 0 0
12.72 0 0
12.8 0 0
12.88 0 0
12.96 0 0
13.04 0 0
13.12 0 0
13.2 0 0
13.28 0 0
13.36 0 0
13.44 0 0
13.52 0 0
13.6 0 0
13.68 0 0
13.76 0 0
13.84 0 0
13.92 0 0
14 0 0
14.08 0 0
14.16 0 0
14.24 0 0
14.32 0 0
14.4 0 0
14.48 0 0
14.56 0 0
14.64 0 0
14.72 0 0
14.8 0 0
14.88 0 0
14.96 0 0
15.04 0 0
15.12 0 0
15.2 0 0
15.28 0 0
15.36 0 0
15.44 0 0
15.52 0 0
15.6 0 0
15.68 0 0
15.76 0 0
15.84 0 0
15.92 0 0
16 0 0
16.08 0 0
16.16 0 0
16.24 0 0
16.32 0 0
16.4 0 0
16.48 0 0
16.56 0 0
16.64 0 0
16.72 0 0
16.8 0 0
16.88 0 0
16.96 0 0
17.04 0 0
17.12 0 0
17.2 0 0
17.28 0 0
17.36 0 0
17.44 0 0
17.52 0 0
17.6 0 0
17.68 0 0
17.76 0 0
17.84 0 0
17.92 0 0
18 0 0
18.08 0 0
18.16 0 0
18.24 0 0
18.32 0 0
18.4 0 0
18.48 0 0
18.56 0 0
18.64 0 0
18.72 0 0
18.8 0 0
18.88 0 0
18.96 0 0
19.04 0 0
19.12 0 0
19.2 0 0
19.28 0 0
19.36 0 0
19.44 0 0
19.52 0 0
19.6 0 0
19.68 0 0
19.76 0 0
19.84 0 0
19.92 0 0
20 0 0
20.08 0 0
20.16 0 0
20.24 0 0
20.32 0 0
20.4 0 0
20.48 0 0
20.56 0 0
20.64 0 0
20.72 0 0
20.8 0 0
20.88 0 0
20.96 0 0
21.04 0 0
21.12 0 0
21.2 0 0
21.28 0 0
21.36 0 0
21.44 0 0
21.52 0 0
21.6 0 0
21.68 0 0
21.76 0 0
21.84 0 0
21.92 0 0
22 0 0
22.08 0 0
22.16 0 0
22.24 0 0
22.32 0 0
22.4 0 0
22.48 0 0
22.56 0 0
22.64 0 0
22.72 0 0
22.8 0 0
22.88 0 0
22.96 0 0
23.04 0 0
23.12 0 0
23.2 0 0
23.28 0 0
23.36 0 0
23.44 0 0
23.52 0 0
23.6 0 0
23.68 0 0
23.76 0 0
23.84 0 0
23.92 0 0
24 0 0
24.08 0 0
24.16 0 0
24.24 0 0
24.32 0 0
24.4 0 0
24.48 0 0
24.56 0 0
24.64 0 0
24.72 0 0
24.8 0 0
24.88 0 0
24.96 0 0
25.04 0 0
25.12 0 0
25.2 0 0
25.28 0 0
25.36 0 0
25.44 0 0
25.52 0 0
25.6 0 0
25.68 0 0
25.76 0 0
25.84 0 0
25.92 0 0
26 0 0
26.08 0 0
26.16 0 0
26.24 0 0
26.32 0 0
26.4 0 0
26.48 0 0
26.56 0 0
26.64 0 0
26.72 0 0
26.8 0 0
26.88 0 0
26.96 0 0
27.04 0 0
27.12 0 0
27.2 0 0
27.28 0 0
27.36 0 0
27.44 0 0
27.52 0 0
27.6 0 0
27.68 0 0
27.76 0 0
27.84 0 0
27.92 0 0
28 0 0
28.08 0 0
28.16 0 0
28.24 0 0
28.32 0 0
28.4 0 0
28.48 0 0
28.56 0 0
28.64 0 0
28.72 0 0
28.8 0 0
28.88 0 0
28.96 0 0
29.04 0 0
29.12 0 0
29.2 0 0
29.28 0 0
29.36 0 0
29.44 0 0
29.52 0 0
29.6 0 0
29.68 0 0
29.76 0 0
29.84 0 0
29.92 0 0
30 0 0
30.08 0 0
30.16 0 0
30.24 0 0
30.32 0 0
30.4 0 0
30.48 0 0
30.56 0 0
30.64 0 0
30.72 0 0
30.8 0 0
30.88 0 0
30.96 0 0
31.04 0 0
31.12 0 0
31.2 0 0
31.28 0 0
31.36 0 0
31.44 0 0
31.52 0 0
31.6 0 0
31.68 0 0
31.76 0 0
31.84 0 0
31.92 0 0
0 0.02 0
0.08 0.02 0
0.16 0.02 0
0.24 0.02 0
0.32 0.02 0
0.4 0.02 0
0.48 0.02 0
0.56 0.02 0
0.64 0.02 0
0.72 0.02 0
0.8 0.02 0
0.88 0.02 0
0.96 0.02 0
1.04 0.02 0
1.12 0.02 0
1.2 0.02 0
1.28 0.02 0
1.36 0.02 0
1.44 0.02 0
1.52 0.02 0
1.6 0.02 0
1.68 0.02 0
1.76 0.02 0
1.84 0.02 0
1.92 0.02 0
2 0.02 0
2.08 0.02 0
2.16 0.02 0
2.24 0.02 0
2.32 0.02 0
2.4 0.02 0
2.48 0.02 0
2.56 0.02 0
2.64 0.02 0
2.72 0.02 0
2.8 0.02 0
2.88 0.02 0
2.96 0.02 0
3.04 0.02 0
3.12 0.02 0
3.2 0.02 0
3.28 0.02 0
3.36 0.02 0
3.44 0.02 0
3.52 0.02 0
3.6 0.02 0
3.68 0.02 0
3.76 0.02 0
3.84 0.02 0
3.92 0.02 0
4 0.02 0
4.08 0.02 0
4.16 0.02 0
4.24 0.02 0
4.32 0.02 0
4.4 0.02 0
4.48 0.02 0
4.56 0.02 0
4.64 0.02 0
4.72 0.02 0
4.8 0.02 0
4.88 0.02 0
4.96 0.02 0
5.04 0.02 0
5.12 0.02 0
5.2 0.02 0
5.28 0.02 0
5.36 0.02 0
5.44 0.02 0
5.52 0.02 0
5.6 0.02 0
5.68 0.02 0
5.76 0.02 0
5.84 0.02 0
5.92 0.02 0
6 0.02 0
6.08 0.02 0
6.16 0.02 0
6.24 0.02 0
6.32 0.02 0
6.4 0.02 0
6.48 0.02 0
6.56 0.02 0
6.64 0.02 0
6.72 0.02 0
6.8 0.02 0
6.88 0.02 0
6.96 0.02 0
7.04 0.02 0
7.12 0.02 0
7.2 0.02 0
7.28 0.02 0
7.36 0.02 0
7.44 0.02 0
7.52 0.02 0
7.6 0.02 0
7.68 0.02 0
7.76 0.02 0
7.84 0.02 0
7.92 0.02 0
8 0.02 0
8.08 0.02 0
8.16 0.02 0
8.24 0.02 0
8.32 0.02 0
8.4 0.02 0
8.48 0.02 0
8.56 0.02 0
8.64 0.02 0
8.72 0.02 0
8.8 0.02 0
8.88 0.02 0
8.96 0.02 0
9.04 0.02 0
9.12 0.02 0
9.2 0.02 0
9.28 0.02 0
9.36 0.02 0
9.44 0.02 0
9.52 0.02 0
9.6 0.02 0
9.68 0.02 0
9.76 0.02 0
9.84 0.02 0
9.92 0.02 0
10 0.02 0
10.08 0.02 0
10.16 0.02 0
10.24 0.02 0
10.32 0.02 0
10.4 0.02 0
10.48 0.02 0
10.56 0.02 0
10.64 0.02 0
10.72 0.02 0
10.8 0.02 0
10.88 0.02 0
10.96 0.02 0
11.04 0.02 0
11.12 0.02 0
11.2 0.02 0
11.28 0.02 0
11.36 0.02 0
11.44 0.02 0
11.52 0.02 0
11.6 0.02 0
11.68 0.02 0
11.76 0.02 0
11.84 0.02 0
11.92 0.02 0
12 0.02 0
12.08 0.02 0
12.16 0.02 0
12.24 0.02 0
12.32 0.02 0
12.4 0.02 0
12.48 0.02 0
12.56 0.02 0
12.64 0.02 0
12.72 0.02 0
12.8 0.02 0
12.88 0.02 0
12.96 0.02 0
13.04 0.02 0
13.12 0.02 0
13.2 0.02 0
13.28 0.02 0
13.36 0.02 0
13.44 0.02 0
13.52 0.02 0
13.6 0.02 0
13.68 0.02 0
13.76 0.02 0
13.84 0.02 0
13.92 0.02 0
14 0.02 0
14.08 0.02 0
14.16 0.02 0
14.24 0.02 0
14.32 0.02 0
14.4 0.02 0
14.48 0.02 0
14.56 0.02 0
14.64 0.02 0
14.72 0.02 0
14.8 0.02 0
14.88 0.02 0
14.96 0.02 0
15.04 0.02 0
15.12 0.02 0
15.2 0.02 0
15.28 0.02 0
15.36 0.02 0
15.44 0.02 0
15.52 0.02 0
15.6 0.02 0
15.68 0.02 0
15.76 0.02 0
15.84 0.02 0
15.92 0.02 0
16 0.02 0
16.08 0.02 0
16.16 0.02 0
16.24 0.02 0
16.32 0.02 0
16.4 0.02 0
16.48 0.02 0
16.56 0.02 0
16.64 0.02 0
16.72 0.02 0
16.8 0.02 0
16.88 0.02 0
16.96 0.02 0
17.04 0.02 0
17.12 0.02 0
17.2 0.02 0
17.28 0.02 0
17.36 0.02 0
17.44 0.02 0
17.52 0.02 0
17.6 0.02 0
17.68 0.02 0
17.76 0.02 0
17.84 0.02 0
17.92 0.02 0
18 0.02 0
18.08 0.02 0
18.16 0.02 0
18.24 0.02 0
18.32 0.02 0
18.4 0.02 0
18.48 0.02 0
18.56 0.02 0
18.64 0.02 0
18.72 0.02 0
18.8 0.02 0
18.88 0.02 0
18.96 0.02 0
19.04 0.02 0
19.12 0.02 0
19.2 0.02 0
19.28 0.02 0
19.36 0.02 0
19.44 0.02 0
19.52 0.02 0
19.6 0.02 0
19.68 0.02 0
19.76 0.02 0
19.84 0.02 0
19.92 0.02 0
20 0.02 0
20.08 0.02 0
20.16 0.02 0
20.24 0.02 0
20.32 0.02 0
20.4 0.02 0
20.48 0.02 0
20.56 0.02 0
20.64 0.02 0
20.72 0.02 0
20.8 0.02 0
20.88 0.02 0
20.96 0.02 0
21.04 0.02 0
21.12 0.02 0
21.2 0.02 0
21.28 0.02 0
21.36 0.02 0
21.44 0.02 0
21.52 0.02 0
21.6 0.02 0
21.68 0.02 0
21.76 0.02 0
21.84 0.02 0
21.92 0.02 0
22 0.02 0
22.08 0.02 0
22.16 0.02 0
22.24 0.02 0
22.32 0.02 0
22.4 0.02 0
22.48 0.02 0
22.56 0.02 0
22.64 0.02 0
22.72 0.02 0
22.8 0.02 0
22.88 0.02 0
22.96 0.02 0
23.04 0.02 0
23.12 0.02 0
23.2 0.02 0
23.28 0.02 0
23.36 0.02 0
23.44 0.02 0
23.52 0.02 0
23.6 0.02 0
23.68 0.02 0
23.76 0.02 0
23.84 0.02 0
23.92 0.02 0
24 0.02 0
24.08 0.02 0
24.16 0.02 0
24.24 0.02 0
24.32 0.02 0
24.4 0.02 0
24.48 0.02 0
24.56 0.02 0
24.64 0.02 0
24.72 0.02 0
24.8 0.02 0
24.88 0.02 0
24.96 0.02 0
25.04 0.02 0
25.12 0.02 0
25.2 0.02 0
25.28 0.02 0
25.36 0.02 0
25.44 0.02 0
25.52 0.02 0
25.6 0.02 0
25.68 0.02 0
25.76 0.02 0
25.84 0.02 0
25.92 0.02 0
26 0.02 0
26.08 0.02 0
26.16 0.02 0
26.24 0.02 0
26.32 0.02 0
26.4 0.02 0
26.48 0.02 0
26.56 0.02 0
26.64 0.02 0
26.72 0.02 0
26.8 0.02 0
26.88 0.02 0
26.96 0.02 0
27.04 0.02 0
27.12 0.02 0
27.2 0.02 0
27.28 0.02 0
27.36 0.02 0
27.44 0.02 0
27.52 0.02 0
27.6 0.02 0
27.68 0.02 0
27.76 0.02 0
27.84 0.02 0
27.92 0.02 0
28 0.02 0
28.08 0.02 0
28.16 0.02 0
28.24 0.02 0
28.32 0.02 0
28.4 0.02 0
28.48 0.02 0
28.56 0.02 0
28.64 0.02 0
28.72 0.02 0
28.8 0.02 0
28.88 0.02 0
28.96 0.02 0
29.04 0.02 0
29.12 0.02 0
29.2 0.02 0
29.28 0.02 0
29.36 0.02 0
29.44 0.02 0
29.52 0.02 0
29.6 0.02 0
29.68 0.02 0
29.76 0.02 0
29.84 0.02 0
29.92 0.02 0
30 0.02 0
30.08 0.02 0
30.16 0.02 0
30.24 0.02 0
30.32 0.02 0
30.4 0.02 0
30.48 0.02 0
30.56 0.02 0
30.64 0.02 0
30.72 0.02 0
30.8 0.02 0
30.88 0.02 0
30.96 0.02 0
31.04 0.02 0
31.12 0.02 0
31.2 0.02 0
31.28 0.02 0
31.36 0.02 0
31.44 0.02 0
31.52 0.02 0
31.6 0.02 0
31.68 0.02 0
31.76 0.02 0
31.84 0.02 0
31.92 0.02 0
0 0.04 0
0.08 0.04 0
0.16 0.04 0
0.24 0.04 0
0.32 0.04 0
0.4 0.04 0
0.48 0.04 0
0.56 0.04 0
0.64 0.04 0
0.72 0.04 0
0.8 0.04 0
0.88 0.04 0
0.96 0.04 0
1.04 0.04 0
1.12 0.04 0
1.2 0.04 0
1.28 0.04 0
1.36 0.04 0
1.44 0.04 0
1.52 0.04 0
1.6 0.04 0
1.68 0.04 0
1.76 0.04 0
1.84 0.04 0
1.92 0.04 0
2 0.04 0
2.08 0.04 0
2.16 0.04 0
2.24 0.04 0
2.32 0.04 0
2.4 0.04 0
2.48 0.04 0
2.56 0.04 0
2.64 0.04 0
2.72 0.04 0
2.8 0.04 0
2.88 0.04 0
2.96 0.04 0
3.04 0.04 0
3.12 0.04 0
3.2 0.04 0
3.28 0.04 0
3.36 0.04 0
3.44 0.04 0
3.52 0.04 0
3.6 0.04 0
3.68 0.04 0
3.76 0.04 0
3.84 0.04 0
3.92 0.04 0
4 0.04 0
4.08 0.04 0
4.16 0.04 0
4.24 0.04 0
4.32 0.04 0
4.4 0.04 0
4.48 0.04 0
4.56 0.04 0
4.64 0.04 0
4.72 0.04 0
4.8 0.04 0
4.88 0.04 0
4.96 0.04 0
5.04 0.04 0
5.12 0.04 0
5.2 0.04 0
5.28 0.04 0
5.36 0.04 0
5.44 0.04 0
5.52 0.04 0
5.6 0.04 0
5.68 0.04 0
5.76 0.04 0
5.84 0.04 0
5.92 0.04 0
6 0.04 0
6.08 0.04 0
6.16 0.04 0
6.24 0.04 0
6.32 0.04 0
6.4 0.04 0
6.48 0.04 0
6.56 0.04 0
6.64 0.04 0
6.72 0.04 0
6.8 0.04 0
6.88 0.04 0
6.96 0.04 0
7.04 0.04 0
7.12 0.04 0
7.2 0.04 0
7.28 0.04 0
7.36 0.04 0
7.44 0.04 0
7.52 0.04 0
7.6 0.04 0
7.68 0.04 0
7.76 0.04 0
7.84 0.04 0
[...]
POINT_DATA 20000

SCALARS p float 1
LOOKUP_TABLE default
1
112.13
111.9
111.833
111.808
111.792
111.778
111.765
111.752
111.739
111.726
111.713
111.699
111.686
111.673
111.659
111.645
111.631
111.616
111.601
111.585
111.568
111.551
111.533
111.515
111.495
111.475
111.455
111.433
111.411
111.388
111.364
111.339
111.313
111.287
111.26
111.231
111.202
111.172
111.142
111.11
111.077
111.043
111.009
110.973
110.936
110.899
110.86
110.82
110.779
110.737
110.694
110.649
110.604
110.557
110.509
110.46
110.409
110.358
110.305
110.25
110.194
110.137
110.079
110.019
109.958
109.895
109.831
109.765
109.698
109.629
109.559
109.487
109.414
109.339
109.262
109.184
109.104
109.022
108.939
108.854
108.767
108.679
108.588
108.496
108.402
108.307
108.209
108.11
108.009
107.906
107.801
107.694
107.586
107.475
107.363
107.248
107.132
107.014
106.894
106.773
106.649
106.523
106.396
106.267
106.135
106.002
105.867
105.731
105.592
105.452
105.31
105.166
105.02
104.872
104.723
104.572
104.42
104.266
104.11
103.952
103.793
103.633
103.47
103.307
103.142
102.975
102.808
102.639
102.468
102.297
102.124
101.95
101.775
101.598
101.421
101.243
101.064
100.884
100.703
100.521
100.339
100.156
99.9726
99.7884
99.6038
99.4187
99.2332
99.0474
98.8613
98.675
98.4885
98.3019
98.1153
97.9287
97.7422
97.5558
97.3696
97.1837
96.998
96.8128
96.6279
96.4436
96.2598
96.0765
95.894
95.7121
95.531
95.3507
95.1713
94.9928
94.8153
94.6388
94.4634
94.2891
94.1159
93.944
93.7734
93.604
93.436
93.2694
93.1042
92.9405
92.7783
92.6176
92.4586
92.3011
92.1453
91.9911
91.8387
91.688
91.539
91.3919
91.2465
91.103
90.9614
90.8216
90.6837
90.5477
90.4136
90.2815
90.1513
90.023
89.8967
89.7724
89.6501
89.5298
89.4114
89.295
89.1807
89.0683
88.9579
88.8494
88.743
88.6385
88.536
88.4355
88.3369
88.2403
88.1455
88.0527
87.9619
87.8729
87.7857
87.7005
87.6171
87.5355
87.4557
87.3777
87.3015
87.227
87.1543
87.0833
87.014
86.9463
86.8803
86.8159
86.7531
86.6919
86.6322
86.574
86.5174
86.4622
86.4085
86.3562
86.3053
86.2558
86.2076
86.1607
86.1152
86.0709
86.0279
85.986
85.9454
85.9059
85.8676
85.8304
85.7943
85.7592
85.7252
85.6922
85.6602
85.6292
85.5991
85.5699
85.5416
85.5142
85.4877
85.4619
85.437
85.4128
85.3894
85.3668
85.3448
85.3236
85.303
85.2831
85.2638
85.2451
85.227
85.2095
85.1926
85.1762
85.1603
85.1449
85.13
85.1156
85.1016
85.0881
85.075
85.0623
85.05
85.0381
85.0266
85.0154
85.0046
84.9941
84.9839
84.974
84.9644
84.955
84.946
84.9372
84.9286
84.9203
84.9122
84.9044
84.8967
84.8893
84.882
84.8749
84.868
84.8613
84.8547
84.8483
84.842
84.8359
84.8299
84.824
84.8183
84.8126
84.8071
84.8016
84.7963
84.7911
84.7859
84.7808
84.7758
84.7709
84.7661
84.7613
84.7566
84.7519
84.7473
84.7427
84.7382
84.7338
84.7294
84.725
84.7206
84.7163
84.7121
84.7078
84.7036
84.6994
84.6952
84.6911
84.6869
84.6828
84.6787
84.6746
84.6706
84.6665
84.6625
84.6584
84.6544
84.6503
84.6463
84.6423
84.6383
84.6343
84.6302
84.6262
84.6222
84.6182
84.6141
84.6101
84.6061
84.602
84.598
84.5939
84.5899
84.5858
84.5817
84.5776
84.5735
84.5694
84.5653
84.5612
84.5571
84.5529
84.5488
84.5446
84.5404
84.5362
84.532
84.5278
84.5236
84.5194
84.5151
84.5108
84.5066
84.5023
84.498
84.4936
84.4893
84.4849
84.4806
84.4763
0.5
112.13
112.13
111.9
111.833
111.808
111.792
111.778
111.765
111.752
111.739
111.726
111.713
111.699
111.686
111.673
111.659
111.645
111.631
111.616
111.601
111.585
111.568
111.551
111.533
111.515
111.495
111.475
111.455
111.433
111.411
111.388
111.364
111.339
111.313
111.287
111.26
111.231
111.202
111.172
111.142
111.11
111.077
111.043
111.009
110.973
110.936
110.899
110.86
110.82
110.779
110.737
110.694
110.649
110.604
110.557
110.509
110.46
110.409
110.358
110.305
110.25
110.194
110.137
110.079
110.019
109.958
109.895
109.831
109.765
109.698
109.629
109.559
109.487
109.414
109.339
109.262
109.184
109.104
109.022
108.939
108.854
108.767
108.679
108.588
108.496
108.402
108.307
108.209
108.11
108.009
107.906
107.801
107.694
107.586
107.475
107.363
107.248
107.132
107.014
106.894
106.773
106.649
106.523
106.396
106.267
106.135
106.002
105.867
105.731
105.592
105.452
105.31
105.166
105.02
104.872
104.723
104.572
104.42
104.266
104.11
103.952
103.793
103.633
103.47
103.307
103.142
102.975
102.808
102.639
102.468
102.297
102.124
101.95
101.775
101.598
101.421
101.243
101.064
100.884
100.703
100.521
100.339
100.156
99.9726
99.7884
99.6038
99.4187
99.2332
99.0474
98.8613
98.675
98.4885
98.3019
98.1153
97.9287
97.7422
97.5558
97.3696
97.1837
96.998
96.8128
96.6279
96.4436
96.2598
96.0765
95.894
95.7121
95.531
95.3507
95.1713
94.9928
94.8153
94.6388
94.4634
94.2891
94.1159
93.944
93.7734
93.604
93.436
93.2694
93.1042
92.9405
92.7783
92.6176
92.4586
92.3011
92.1453
91.9911
91.8387
91.688
91.539
91.3919
91.2465
91.103
90.9614
90.8216
90.6837
90.5477
90.4136
90.2815
90.1513
90.023
89.8967
89.7724
89.6501
89.5298
89.4114
89.295
89.1807
89.0683
88.9579
88.8494
88.743
88.6385
88.536
88.4355
88.3369
88.2403
88.1455
88.0527
87.9619
87.8729
87.7857
87.7005
87.6171
87.5355
87.4557
87.3777
87.3015
87.227
87.1543
87.0833
87.014
86.9463
86.8803
86.8159
86.7531
86.6919
86.6322
86.574
86.5174
86.4622
86.4085
86.3562
86.3053
86.2558
86.2076
86.1607
86.1152
86.0709
86.0279
85.986
85.9454
85.9059
85.8676
85.8304
85.7943
85.7592
85.7252
85.6922
85.6602
85.6292
85.5991
85.5699
85.5416
85.5142
85.4877
85.4619
85.437
85.4128
85.3894
85.3668
85.3448
85.3236
85.303
85.2831
85.2638
85.2451
85.227
85.2095
85.1926
85.1762
85.1603
85.1449
85.13
85.1156
85.1016
85.0881
85.075
85.0623
85.05
85.0381
85.0266
85.0154
85.0046
84.9941
84.9839
84.974
84.9644
84.955
84.946
84.9372
84.9286
84.9203
84.9122
84.9044
84.8967
84.8893
84.882
84.8749
84.868
84.8613
84.8547
84.8483
84.842
84.8359
84.8299
84.824
84.8183
84.8126
84.8071
84.8016
84.7963
84.7911
84.7859
84.7808
84.7758
84.7709
84.7661
84.7613
84.7566
84.7519
84.7473
84.7427
84.7382
84.7338
84.7294
84.725
84.7206
84.7163
84.7121
84.7078
84.7036
84.6994
84.6952
84.6911
84.6869
84.6828
84.6787
84.6746
84.6706
84.6665
84.6625
84.6584
84.6544
84.6503
84.6463
84.6423
84.6383
84.6343
84.6302
84.6262
84.6222
84.6182
84.6141
84.6101
84.6061
84.602
84.598
84.5939
84.5899
84.5858
84.5817
84.5776
84.5735
84.5694
84.5653
84.5612
84.5571
84.5529
84.5488
84.5446
84.5404
84.5362
84.532
84.5278
84.5236
84.5194
84.5151
84.5108
84.5066
84.5023
84.498
84.4936
84.4893
84.4849
84.4806
84.4763
84.4763
112.08
112.08
111.905
111.838
111.811
111.793
111.779
111.766
111.753
111.74
111.726
111.713
111.7
111.686
111.673
111.659
111.645
111.631
111.616
111.601
111.585
111.568
111.551
111.533
111.515
111.495
111.475
111.455
111.433
111.411
111.387
111.364
111.339
111.313
111.287
111.259
111.231
111.202
111.172
111.141
111.11
111.077
111.043
111.009
110.973
110.936
110.898
110.86
110.82
110.779
110.737
110.693
110.649
110.604
110.557
110.509
110.46
110.409
110.357
110.304
110.25
110.194
110.137
110.079
110.019
109.958
109.895
109.831
109.765
109.698
109.629
109.559
109.487
109.414
109.339
109.262
109.184
109.104
109.022
108.939
108.854
108.767
108.678
108.588
108.496
108.402
108.307
108.209
108.11
108.009
107.906
107.801
107.694
107.585
107.475
107.363
107.248
107.132
107.014
106.894
106.773
106.649
106.523
106.396
106.267
106.135
106.002
105.867
105.731
105.592
105.452
105.31
105.166
105.02
104.872
104.723
104.572
104.42
104.266
104.11
103.952
103.793
103.633
103.471
103.307
103.142
102.976
102.808
102.639
102.468
102.297
102.124
101.95
101.775
101.599
101.421
101.243
101.064
100.884
100.703
100.522
100.339
100.156
99.9729
99.7888
99.6041
99.419
99.2336
99.0478
98.8617
98.6754
98.4889
98.3023
98.1157
97.9292
97.7426
97.5563
97.3701
97.1841
96.9985
96.8133
96.6284
96.4441
96.2603
96.0771
95.8945
95.7126
95.5315
95.3513
95.1719
94.9934
94.8159
94.6394
94.4639
94.2896
94.1165
93.9446
93.774
93.6046
93.4366
93.27
93.1048
92.9411
92.7789
92.6183
92.4592
92.3017
92.1459
91.9917
91.8393
91.6886
91.5397
91.3925
91.2472
91.1036
90.962
90.8222
90.6843
90.5483
90.4142
90.2821
90.1519
90.0236
89.8973
89.773
89.6507
89.5303
89.412
89.2956
89.1812
89.0688
88.9584
88.85
88.7435
88.6391
88.5366
88.436
88.3374
88.2408
88.1461
88.0532
87.9623
87.8733
87.7862
87.7009
87.6175
87.5359
87.4561
87.3781
87.3019
87.2275
87.1547
87.0837
87.0144
86.9467
86.8807
86.8163
86.7535
86.6922
86.6325
86.5744
86.5177
86.4626
86.4088
86.3565
86.3056
86.2561
86.2079
86.161
86.1155
86.0712
86.0281
85.9863
85.9457
85.9062
85.8679
85.8307
85.7945
85.7595
85.7255
85.6925
85.6605
85.6294
85.5993
85.5701
85.5418
85.5144
85.4878
85.4621
85.4372
85.413
85.3896
85.3669
85.345
85.3237
85.3031
85.2832
85.2639
85.2452
85.2271
85.2096
85.1927
85.1763
85.1604
85.145
85.1301
85.1157
85.1017
85.0882
85.0751
85.0624
85.0501
85.0382
85.0267
85.0155
85.0046
84.9941
84.9839
84.974
84.9644
84.9551
84.946
84.9372
84.9287
84.9204
84.9123
84.9044
84.8968
84.8893
84.8821
84.875
84.8681
84.8613
84.8548
84.8483
84.8421
84.8359
84.8299
84.824
84.8183
84.8126
84.8071
84.8017
84.7963
84.7911
84.7859
84.7809
84.7759
84.7709
84.7661
84.7613
84.7566
84.7519
84.7473
84.7428
84.7383
84.7338
84.7294
84.725
84.7206
84.7163
84.7121
84.7078
84.7036
84.6994
84.6952
84.6911
84.6869
84.6828
84.6787
84.6747
84.6706
84.6665
84.6625
84.6584
84.6544
84.6503
84.6463
84.6423
84.6383
84.6343
84.6302
84.6262
84.6222
84.6182
84.6141
84.6101
84.6061
84.602
84.598
84.5939
84.5899
84.5858
84.5817
84.5776
84.5735
84.5694
84.5653
84.5612
84.5571
84.5529
84.5488
84.5446
84.5404
84.5362
84.532
84.5278
84.5236
84.5194
84.5151
84.5108
84.5066
84.5023
84.498
84.4936
84.4893
84.4849
84.4806
84.4763
84.4763
112.04
112.04
111.908
111.843
111.813
111.795
111.78
111.766
111.753
111.74
111.727
111.713
111.7
111.686
111.673
111.659
111.645
111.631
111.616
111.6
111.584
111.568
111.551
111.533
111.514
111.495
111.475
111.454
111.433
111.41
111.387
111.363
111.339
111.313
111.287
111.259
111.231
111.202
111.172
111.141
111.109
111.077
111.043
111.008
110.973
110.936
110.898
110.859
110.819
110.779
110.736
110.693
110.649
110.603
110.557
110.509
110.459
110.409
110.357
110.304
110.25
110.194
110.137
110.079
110.019
109.957
109.895
109.831
109.765
109.698
109.629
109.559
109.487
109.413
109.338
109.262
109.183
109.104
109.022
108.939
108.853
108.767
108.678
108.588
108.496
108.402
108.306
108.209
108.109
108.008
107.905
107.8
107.694
107.585
107.475
107.362
107.248
107.132
107.014
106.894
106.772
106.649
106.523
106.396
106.266
106.135
106.002
105.867
105.73
105.592
105.452
105.309
105.165
105.02
104.872
104.723
104.572
104.42
104.265
104.11
103.952
103.793
103.632
103.47
103.307
103.142
102.975
102.808
102.639
102.468
102.297
102.124
101.95
101.775
101.599
101.421
101.243
101.064
100.884
100.703
100.522
100.339
100.156
99.9729
99.7888
99.6041
99.4191
99.2336
99.0478
98.8617
98.6754
98.489
98.3024
98.1158
97.9293
97.7427
97.5564
97.3702
97.1843
96.9987
96.8134
96.6286
96.4443
96.2605
96.0772
95.8947
95.7128
95.5318
95.3515
95.1721
94.9936
94.8161
94.6396
94.4642
94.2899
94.1168
93.9449
93.7742
93.6049
93.4369
93.2703
93.1051
92.9414
92.7792
92.6186
92.4595
92.302
92.1462
91.9921
91.8397
91.689
91.54
91.3929
91.2475
91.104
90.9623
90.8225
90.6846
90.5486
90.4146
90.2824
90.1522
90.024
89.8977
89.7734
89.6511
89.5307
89.4123
89.296
89.1816
89.0692
88.9588
88.8503
88.7439
88.6394
88.5369
88.4364
88.3378
88.2411
88.1464
88.0536
87.9627
87.8737
87.7865
87.7013
87.6178
87.5362
87.4565
87.3785
87.3022
87.2278
87.155
87.084
87.0146
86.947
86.8809
86.8165
86.7537
86.6925
86.6328
86.5746
86.518
86.4628
86.4091
86.3568
86.3058
86.2563
86.2081
86.1613
86.1157
86.0714
86.0283
85.9865
85.9459
85.9064
85.8681
85.8308
85.7947
85.7596
85.7256
85.6926
85.6606
85.6296
85.5995
85.5703
85.542
85.5145
85.488
85.4622
85.4373
85.4131
85.3897
85.367
85.3451
85.3238
85.3032
85.2833
85.264
85.2453
85.2272
85.2097
85.1928
85.1763
85.1605
85.1451
85.1302
85.1158
85.1018
85.0883
85.0752
85.0625
85.0502
85.0383
85.0267
85.0155
85.0047
84.9942
84.984
84.9741
84.9645
84.9551
84.9461
84.9373
84.9287
84.9204
84.9123
84.9045
84.8968
84.8893
84.8821
84.875
84.8681
84.8614
84.8548
84.8484
84.8421
84.8359
84.8299
84.824
84.8183
84.8126
84.8071
84.8017
84.7963
84.7911
84.7859
84.7809
84.7759
84.7709
84.7661
84.7613
84.7566
84.7519
84.7473
84.7428
84.7382
84.7338
84.7294
84.725
84.7206
84.7163
84.7121
84.7078
84.7036
84.6994
84.6952
84.6911
84.6869
84.6828
84.6787
84.6746
84.6706
84.6665
84.6625
84.6584
84.6544
84.6503
84.6463
84.6423
84.6383
84.6342
84.6302
84.6262
84.6222
84.6182
84.6141
84.6101
84.6061
84.602
84.598
84.5939
84.5898
84.5858
84.5817
84.5776
84.5735
84.5694
84.5653
84.5612
84.5571
84.5529
84.5488
84.5446
84.5404
84.5362
84.532
84.5278
84.5236
84.5193
84.5151
84.5108
84.5065
84.5023
84.4979
84.4936
84.4893
84.4849
84.4806
84.4763
84.4763
112.008
112.008
111.908
111.848
111.817
111.797
111.781
111.767
111.754
111.74
111.727
111.713
111.7
111.686
111.673
111.659
111.645
111.63
111.616
111.6
111.584
111.568
111.551
111.533
111.514
111.495
111.475
111.454
111.433
111.41
111.387
111.363
111.338
111.313
111.286
111.259
111.231
111.202
111.172
111.141
111.109
111.077
111.043
111.008
110.972
110.936
110.898
110.859
110.819
110.778
110.736
110.693
110.649
110.603
110.556
110.508
110.459
110.409
110.357
110.304
110.25
110.194
110.137
110.078
110.018
109.957
109.894
109.83
109.765
109.697
109.629
109.558
109.487
109.413
109.338
109.262
109.183
109.103
109.022
108.938
108.853
108.766
108.678
108.588
108.495
108.402
108.306
108.208
108.109
108.008
107.905
107.8
107.693
107.585
107.474
107.362
107.248
107.132
107.014
106.894
106.772
106.648
106.523
106.395
106.266
106.135
106.002
105.867
105.73
105.592
105.451
105.309
105.165
105.019
104.872
104.723
104.572
104.419
104.265
104.109
103.952
103.793
103.632
103.47
103.307
103.142
102.975
102.808
102.638
102.468
102.297
102.124
101.95
101.775
101.598
101.421
101.243
101.064
100.884
100.703
100.522
100.339
100.156
99.9729
99.7888
99.6041
99.4191
99.2336
99.0478
98.8618
98.6755
98.489
98.3025
98.1159
97.9293
97.7429
97.5565
97.3703
97.1844
96.9988
96.8136
96.6288
96.4444
96.2606
96.0774
95.8949
95.7131
95.532
95.3517
95.1723
94.9938
94.8163
94.6399
94.4645
94.2902
94.1171
93.9452
93.7745
93.6052
93.4372
93.2706
93.1054
92.9417
92.7795
92.6189
92.4598
92.3024
92.1466
91.9924
91.84
91.6893
91.5404
91.3932
91.2479
91.1044
90.9627
90.8229
90.685
90.549
90.4149
90.2828
90.1526
90.0243
89.8981
89.7737
89.6514
89.5311
89.4127
89.2963
89.1819
89.0695
88.9591
88.8507
88.7442
88.6398
88.5373
88.4367
88.3381
88.2415
88.1467
88.0539
87.963
87.874
87.7869
87.7016
87.6182
87.5366
87.4568
87.3788
87.3025
87.2281
87.1553
87.0843
87.0149
86.9473
86.8812
86.8168
86.754
86.6928
86.6331
86.5749
86.5182
86.463
86.4093
86.357
86.3061
86.2565
86.2083
86.1615
86.1159
86.0716
86.0285
85.9867
85.9461
85.9066
85.8682
85.831
85.7949
85.7598
85.7258
85.6928
85.6608
85.6297
85.5996
85.5704
85.5421
85.5147
85.4881
85.4624
85.4374
85.4132
85.3898
85.3671
85.3452
85.3239
85.3033
85.2834
85.2641
85.2454
85.2273
85.2098
85.1928
85.1764
85.1605
85.1451
85.1302
85.1158
85.1019
85.0883
85.0752
85.0625
85.0502
85.0383
85.0268
85.0156
85.0047
84.9942
84.984
84.9741
84.9645
84.9552
84.9461
84.9373
84.9287
84.9204
84.9123
84.9045
84.8968
84.8894
84.8821
84.875
84.8681
84.8614
84.8548
84.8484
84.8421
84.8359
84.8299
84.8241
84.8183
84.8126
84.8071
84.8017
84.7963
84.7911
84.7859
84.7809
84.7759
84.7709
84.7661
84.7613
84.7566
84.7519
84.7473
84.7428
84.7382
84.7338
84.7294
84.725
84.7206
84.7163
84.7121
84.7078
84.7036
84.6994
84.6952
84.6911
84.6869
84.6828
84.6787
84.6746
84.6706
84.6665
84.6624
84.6584
84.6544
84.6503
84.6463
84.6423
84.6383
84.6342
84.6302
84.6262
84.6222
84.6181
84.6141
84.6101
84.606
84.602
84.598
84.5939
84.5898
84.5858
84.5817
84.5776
84.5735
84.5694
84.5653
84.5612
84.557
84.5529
84.5487
84.5446
84.5404
84.5362
84.532
84.5278
84.5236
84.5193
84.5151
84.5108
84.5065
84.5022
84.4979
84.4936
84.4893
84.4849
84.4806
84.4763
84.4763
111.982
111.982
111.906
111.852
111.82
111.799
111.783
111.768
111.755
111.741
111.727
111.714
111.7
111.686
111.673
111.659
111.645
111.63
111.615
111.6
111.584
111.568
111.55
111.533
111.514
111.495
111.475
111.454
111.432
111.41
111.387
111.363
111.338
111.313
111.286
111.259
111.231
111.202
111.172
111.141
111.109
111.076
111.043
111.008
110.972
110.936
110.898
110.859
110.819
110.778
110.736
110.693
110.648
110.603
110.556
110.508
110.459
110.408
110.357
110.304
110.249
110.194
110.136
110.078
110.018
109.957
109.894
109.83
109.764
109.697
109.628
109.558
109.486
109.413
109.338
109.261
109.183
109.103
109.021
108.938
108.853
108.766
108.678
108.587
108.495
108.401
108.306
108.208
108.109
108.008
107.905
107.8
107.693
107.585
107.474
107.362
107.248
107.131
107.013
106.894
106.772
106.648
106.523
106.395
106.266
106.135
106.002
105.867
105.73
105.591
105.451
105.309
105.165
105.019
104.872
104.723
104.572
104.419
104.265
104.109
103.952
103.793
103.632
103.47
103.307
103.142
102.975
102.807
102.638
102.468
102.296
102.124
101.95
101.775
101.598
101.421
101.243
101.064
100.884
100.703
100.522
100.339
100.156
99.9729
99.7888
99.6041
99.4191
99.2336
99.0479
98.8618
98.6755
98.4891
98.3026
98.116
97.9294
97.743
97.5566
97.3704
97.1845
96.9989
96.8137
96.6289
96.4446
96.2608
96.0776
95.8951
95.7133
95.5322
95.3519
95.1725
94.9941
94.8166
94.6401
94.4647
94.2904
94.1173
93.9454
93.7748
93.6055
93.4375
93.2709
93.1057
92.942
92.7799
92.6192
92.4602
92.3027
92.1469
91.9928
91.8403
91.6896
91.5407
91.3936
91.2482
91.1047
90.963
90.8233
90.6854
90.5494
90.4153
90.2831
90.1529
90.0247
89.8984
89.7741
89.6518
89.5314
89.4131
89.2967
89.1823
89.0699
88.9595
88.8511
88.7446
88.6401
88.5376
88.4371
88.3385
88.2418
88.1471
88.0543
87.9633
87.8743
87.7872
87.7019
87.6185
87.5369
87.4571
87.3791
87.3028
87.2284
87.1556
87.0846
87.0152
86.9475
86.8815
86.8171
86.7543
86.693
86.6333
86.5751
86.5185
86.4633
86.4095
86.3572
86.3063
86.2568
86.2086
86.1617
86.1161
86.0718
86.0287
85.9869
85.9462
85.9068
85.8684
85.8312
85.7951
85.76
85.726
85.6929
85.6609
85.6299
85.5997
85.5706
85.5422
85.5148
85.4882
85.4625
85.4375
85.4133
85.3899
85.3673
85.3453
85.324
85.3034
85.2835
85.2642
85.2455
85.2274
85.2099
85.1929
85.1765
85.1606
85.1452
85.1303
85.1159
85.1019
85.0884
85.0753
85.0626
85.0503
85.0384
85.0268
85.0156
85.0048
84.9943
84.984
84.9741
84.9645
84.9552
84.9461
84.9373
84.9288
84.9205
84.9124
84.9045
84.8968
84.8894
84.8821
84.875
84.8681
84.8614
84.8548
84.8484
84.8421
84.836
84.83
84.8241
84.8183
84.8127
84.8071
84.8017
84.7963
84.7911
84.7859
84.7809
84.7759
84.7709
84.7661
84.7613
84.7566
84.7519
84.7473
84.7428
84.7382
84.7338
84.7294
84.725
84.7206
84.7163
84.7121
84.7078
84.7036
84.6994
84.6952
84.6911
84.6869
84.6828
84.6787
84.6746
84.6706
84.6665
84.6624
84.6584
84.6544
84.6503
84.6463
84.6423
84.6382
84.6342
84.6302
84.6262
84.6222
84.6181
84.6141
84.6101
84.606
84.602
84.5979
84.5939
84.5898
84.5858
84.5817
84.5776
84.5735
84.5694
84.5653
84.5612
84.557
84.5529
84.5487
84.5446
84.5404
84.5362
84.532
84.5278
84.5236
84.5193
84.5151
84.5108
84.5065
84.5022
84.4979
84.4936
84.4893
84.4849
84.4806
84.4762
84.4762
111.961
111.961
111.903
111.854
111.823
111.802
111.785
111.77
111.756
111.742
111.728
111.714
111.7
111.686
111.673
111.659
111.645
111.63
111.615
111.6
111.584
111.567
111.55
111.533
111.514
111.495
111.475
111.454
111.432
111.41
111.387
111.363
111.338
111.312
111.286
111.259
111.231
111.201
111.172
111.141
111.109
111.076
111.042
111.008
110.972
110.935
110.898
110.859
110.819
110.778
110.736
110.693
110.648
110.603
110.556
110.508
110.459
110.408
110.356
110.303
110.249
110.193
110.136
110.078
110.018
109.957
109.894
109.83
109.764
109.697
109.628
109.558
109.486
109.413
109.338
109.261
109.183
109.103
109.021
108.938
108.853
108.766
108.677
108.587
108.495
108.401
108.305
108.208
108.109
108.007
107.904
107.8
107.693
107.584
107.474
107.361
107.247
107.131
107.013
106.893
106.771
106.648
106.522
106.395
106.266
106.134
106.001
105.866
105.73
105.591
105.451
105.309
105.165
105.019
104.872
104.722
104.571
104.419
104.265
104.109
103.951
103.792
103.632
103.47
103.306
103.141
102.975