# vtk DataFile Version 2.0
FlowField
ASCII
DATASET STRUCTURED_GRID
DIMENSIONS 400 1 50
POINTS 20000 float
0 0 0
0.08 0 0
0.16 0 0
0.24 0 0
0.32 0 0
0.4 0 0
0.48 0 0
0.56 0 0
0.64 0 0
0.72 0 0
0.8 0 0
0.88 0 0
0.96 0 0
1.04 0 0
1.12 0 0
1.2 0 0
1.28 0 0
1.36 0 0
1.44 0 0
1.52 0 0
1.6 0 0
1.68 0 0
1.76 0 0
1.84 0 0
1.92 0 0
2 0 0
2.08 0 0
2.16 0 0
2.24 0 0
2.32 0 0
2.4 0 0
2.48 0 0
2.56 0 0
2.64 0 0
2.72 0 0
2.8 0 0
2.88 0 0
2.96 0 0
3.04 0 0
3.12 0 0
3.2 0 0
3.28 0 0
3.36 0 0
3.44 0 0
3.52 0 0
3.6 0 0
3.68 0 0
3.76 0 0
3.84 0 0
3.92 0 0
4 0 0
4.08 0 0
4.16 0 0
4.24 0 0
4.32 0 0
4.4 0 0
4.48 0 0
4.56 0 0
4.64 0 0
4.72 0 0
4.8 0 0
4.88 0 0
4.96 0 0
5.04 0 0
5.12 0 0
5.2 0 0
5.28 0 0
5.36 0 0
5.44 0 0
5.52 0 0
5.6 0 0
5.68 0 0
5.76 0 0
5.84 0 0
5.92 0 0
6 0 0
6.08 0 0
6.16 0 0
6.24 0 0
6.32 0 0
6.4 0 0
6.48 0 0
6.56 0 0
6.64 0 0
6.72 0 0
6.8 0 0
6.88 0 0
6.96 0 0
7.04 0 0
7.12 0 0
7.2 0 0
7.28 0 0
7.36 0 0
7.44 0 0
7.52 0 0
7.6 0 0
7.68 0 0
7.76 0 0
7.84 0 0
7.92 0 0
8 0 0
8.08 0 0
8.16 0 0
8.24 0 0
8.32 0 0
8.4 0 0
8.48 0 0
8.56 0 0
8.64 0 0
8.72 0 0
8.8 0 0
8.88 0 0
8.96 0 0
9.04 0 0
9.12 0 0
9.2 0 0
9.28 0 0
9.36 0 0
9.44 0 0
9.52 0 0
9.6 0 0
9.68 0 0
9.76 0 0
9.84 0 0
9.92 0 0
10 0 0
10.08 0 0
10.16 0 0
10.24 0 0
10.32 0 0
10.4 0 0
10.48 0 0
10.56 0 0
10.64 0 0
10.72 0 0
10.8 0 0
10.88 0 0
10.96 0 0
11.04 0 0
11.12 0 0
11.2 0 0
11.28 0 0
11.36 0 0
11.44 0 0
11.52 0 0
11.6 0 0
11.68 0 0
11.76 0 0
11.84 0 0
11.92 0 0
12 0 0
12.08 0 0
12.16 0 0
12.24 0 0
12.32 0 0
12.4 0 0
12.48 0 0
12.56 0 0
12.64 0 0
12.72 0 0
12.8 0 0
12.88 0 0
12.96 0 0
13.04 0 0
13.12 0 0
13.2 0 0
13.28 0 0
13.36 0 0
13.44 0 0
13.52 0 0
13.6 0 0
13.68 0 0
13.76 0 0
13.84 0 0
13.92 0 0
14 0 0
14.08 0 0
14.16 0 0
14.24 0 0
14.32 0 0
14.4 0 0
14.48 0 0
14.56 0 0
14.64 0 0
14.72 0 0
14.8 0 0
14.88 0 0
14.96 0 0
15.04 0 0
15.12 0 0
15.2 0 0
15.28 0 0
15.36 0 0
15.44 0 0
15.52 0 0
15.6 0 0
15.68 0 0
15.76 0 0
15.84 0 0
15.92 0 0
16 0 0
16.08 0 0
16.16 0 0
16.24 0 0
16.32 0 0
16.4 0 0
16.48 0 0
16.56 0 0
16.64 0 0
16.72 0 0
16.8 0 0
16.88 0 0
16.96 0 0
17.04 0 0
17.12 0 0
17.2 0 0
17.28 0 0
17.36 0 0
17.44 0 0
17.52 0 0
17.6 0 0
17.68 0 0
17.76 0 0
17.84 0 0
17.92 0 0
18 0 0
18.08 0 0
18.16 0 0
18.24 0 0
18.32 0 0
18.4 0 0
18.48 0 0
18.56 0 0
18.64 0 0
18.72 0 0
18.8 0 0
18.88 0 0
18.96 0 0
19.04 0 0
19.12 0 0
19.2 0 0
19.28 0 0
19.36 0 0
19.44 0 0
19.52 0 0
19.6 0 0
19.68 0 0
19.76 0 0
19.84 0 0
19.92 0 0
20 0 0
20.08 0 0
20.16 0 0
20.24 0 0
20.32 0 0
20.4 0 0
20.48 0 0
20.56 0 0
20.64 0 0
20.72 0 0
20.8 0 0
20.88 0 0
20.96 0 0
21.04 0 0
21.12 0 0
21.2 0 0
21.28 0 0
21.36 0 0
21.44 0 0
21.52 0 0
21.6 0 0
21.68 0 0
21.76 0 0
21.84 0 0
21.92 0 0
22 0 0
22.08 0 0
22.16 0 0
22.24 0 0
22.32 0 0
22.4 0 0
22.48 0 0
22.56 0 0
22.64 0 0
22.72 0 0
22.8 0 0
22.88 0 0
22.96 0 0
23.04 0 0
23.12 0 0
23.2 0 0
23.28 0 0
23.36 0 0
23.44 0 0
23.52 0 0
23.6 0 0
23.68 0 0
23.76 0 0
23.84 0 0
23.92 0 0
24 0 0
24.08 0 0
24.16 0 0
24.24 0 0
24.32 0 0
24.4 0 0
24.48 0 0
24.56 0 0
24.64 0 0
24.72 0 0
24.8 0 0
24.88 0 0
24.96 0 0
25.04 0 0
25.12 0 0
25.2 0 0
25.28 0 0
25.36 0 0
25.44 0 0
25.52 0 0
25.6 0 0
25.68 0 0
25.76 0 0
25.84 0 0
25.92 0 0
26 0 0
26.08 0 0
26.16 0 0
26.24 0 0
26.32 0 0
26.4 0 0
26.48 0 0
26.56 0 0
26.64 0 0
26.72 0 0
26.8 0 0
26.88 0 0
26.96 0 0
27.04 0 0
27.12 0 0
27.2 0 0
27.28 0 0
27.36 0 0
27.44 0 0
27.52 0 0
27.6 0 0
27.68 0 0
27.76 0 0
27.84 0 0
27.92 0 0
28 0 0
28.08 0 0
28.16 0 0
28.24 0 0
28.32 0 0
28.4 0 0
28.48 0 0
28.56 0 0
28.64 0 0
28.72 0 0
28.8 0 0
28.88 0 0
28.96 0 0
29.04 0 0
29.12 0 0
29.2 0 0
29.28 0 0
29.36 0 0
29.44 0 0
29.52 0 0
29.6 0 0
29.68 0 0
29.76 0 0
29.84 0 0
29.92 0 0
30 0 0
30.08 0 0
30.16 0 0
30.24 0 0
30.32 0 0
30.4 0 0
30.48 0 0
30.56 0 0
30.64 0 0
30.72 0 0
30.8 0 0
30.88 0 0
30.96 0 0
31.04 0 0
31.12 0 0
31.2 0 0
31.28 0 0
31.36 0 0
31.44 0 0
31.52 0 0
31.6 0 0
31.68 0 0
31.76 0 0
31.84 0 0
31.92 0 0
0 0.02 0
0.08 0.02 0
0.16 0.02 0
0.24 0.02 0
0.32 0.02 0
0.4 0.02 0
0.48 0.02 0
0.56 0.02 0
0.64 0.02 0
0.72 0.02 0
0.8 0.02 0
0.88 0.02 0
0.96 0.02 0
1.04 0.02 0
1.12 0.02 0
1.2 0.02 0
1.28 0.02 0
1.36 0.02 0
1.44 0.02 0
1.52 0.02 0
1.6 0.02 0
1.68 0.02 0
1.76 0.02 0
1.84 0.02 0
1.92 0.02 0
2 0.02 0
2.08 0.02 0
2.16 0.02 0
2.24 0.02 0
2.32 0.02 0
2.4 0.02 0
2.48 0.02 0
2.56 0.02 0
2.64 0.02 0
2.72 0.02 0
2.8 0.02 0
2.88 0.02 0
2.96 0.02 0
3.04 0.02 0
3.12 0.02 0
3.2 0.02 0
3.28 0.02 0
3.36 0.02 0
3.44 0.02 0
3.52 0.02 0
3.6 0.02 0
3.68 0.02 0
3.76 0.02 0
3.84 0.02 0
3.92 0.02 0
4 0.02 0
4.08 0.02 0
4.16 0.02 0
4.24 0.02 0
4.32 0.02 0
4.4 0.02 0
4.48 0.02 0
4.56 0.02 0
4.64 0.02 0
4.72 0.02 0
4.8 0.02 0
4.88 0.02 0
4.96 0.02 0
5.04 0.02 0
5.12 0.02 0
5.2 0.02 0
5.28 0.02 0
5.36 0.02 0
5.44 0.02 0
5.52 0.02 0
5.6 0.02 0
5.68 0.02 0
5.76 0.02 0
5.84 0.02 0
5.92 0.02 0
6 0.02 0
6.08 0.02 0
6.16 0.02 0
6.24 0.02 0
6.32 0.02 0
6.4 0.02 0
6.48 0.02 0
6.56 0.02 0
6.64 0.02 0
6.72 0.02 0
6.8 0.02 0
6.88 0.02 0
6.96 0.02 0
7.04 0.02 0
7.12 0.02 0
7.2 0.02 0
7.28 0.02 0
7.36 0.02 0
7.44 0.02 0
7.52 0.02 0
7.6 0.02 0
7.68 0.02 0
7.76 0.02 0
7.84 0.02 0
7.92 0.02 0
8 0.02 0
8.08 0.02 0
8.16 0.02 0
8.24 0.02 0
8.32 0.02 0
8.4 0.02 0
8.48 0.02 0
8.56 0.02 0
8.64 0.02 0
8.72 0.02 0
8.8 0.02 0
8.88 0.02 0
8.96 0.02 0
9.04 0.02 0
9.12 0.02 0
9.2 0.02 0
9.28 0.02 0
9.36 0.02 0
9.44 0.02 0
9.52 0.02 0
9.6 0.02 0
9.68 0.02 0
9.76 0.02 0
9.84 0.02 0
9.92 0.02 0
10 0.02 0
10.08 0.02 0
10.16 0.02 0
10.24 0.02 0
10.32 0.02 0
10.4 0.02 0
10.48 0.02 0
10.56 0.02 0
10.64 0.02 0
10.72 0.02 0
10.8 0.02 0
10.88 0.02 0
10.96 0.02 0
11.04 0.02 0
11.12 0.02 0
11.2 0.02 0
11.28 0.02 0
11.36 0.02 0
11.44 0.02 0
11.52 0.02 0
11.6 0.02 0
11.68 0.02 0
11.76 0.02 0
11.84 0.02 0
11.92 0.02 0
12 0.02 0
12.08 0.02 0
12.16 0.02 0
12.24 0.02 0
12.32 0.02 0
12.4 0.02 0
12.48 0.02 0
12.56 0.02 0
12.64 0.02 0
12.72 0.02 0
12.8 0.02 0
12.88 0.02 0
12.96 0.02 0
13.04 0.02 0
13.12 0.02 0
13.2 0.02 0
13.28 0.02 0
13.36 0.02 0
13.44 0.02 0
13.52 0.02 0
13.6 0.02 0
13.68 0.02 0
13.76 0.02 0
13.84 0.02 0
13.92 0.02 0
14 0.02 0
14.08 0.02 0
14.16 0.02 0
14.24 0.02 0
14.32 0.02 0
14.4 0.02 0
14.48 0.02 0
14.56 0.02 0
14.64 0.02 0
14.72 0.02 0
14.8 0.02 0
14.88 0.02 0
14.96 0.02 0
15.04 0.02 0
15.12 0.02 0
15.2 0.02 0
15.28 0.02 0
15.36 0.02 0
15.44 0.02 0
15.52 0.02 0
15.6 0.02 0
15.68 0.02 0
15.76 0.02 0
15.84 0.02 0
15.92 0.02 0
16 0.02 0
16.08 0.02 0
16.16 0.02 0
16.24 0.02 0
16.32 0.02 0
16.4 0.02 0
16.48 0.02 0
16.56 0.02 0
16.64 0.02 0
16.72 0.02 0
16.8 0.02 0
16.88 0.02 0
16.96 0.02 0
17.04 0.02 0
17.12 0.02 0
17.2 0.02 0
17.28 0.02 0
17.36 0.02 0
17.44 0.02 0
17.52 0.02 0
17.6 0.02 0
17.68 0.02 0
17.76 0.02 0
17.84 0.02 0
17.92 0.02 0
18 0.02 0
18.08 0.02 0
18.16 0.02 0
18.24 0.02 0
18.32 0.02 0
18.4 0.02 0
18.48 0.02 0
18.56 0.02 0
18.64 0.02 0
18.72 0.02 0
18.8 0.02 0
18.88 0.02 0
18.96 0.02 0
19.04 0.02 0
19.12 0.02 0
19.2 0.02 0
19.28 0.02 0
19.36 0.02 0
19.44 0.02 0
19.52 0.02 0
19.6 0.02 0
19.68 0.02 0
19.76 0.02 0
19.84 0.02 0
19.92 0.02 0
20 0.02 0
20.08 0.02 0
20.16 0.02 0
20.24 0.02 0
20.32 0.02 0
20.4 0.02 0
20.48 0.02 0
20.56 0.02 0
20.64 0.02 0
20.72 0.02 0
20.8 0.02 0
20.88 0.02 0
20.96 0.02 0
21.04 0.02 0
21.12 0.02 0
21.2 0.02 0
21.28 0.02 0
21.36 0.02 0
21.44 0.02 0
21.52 0.02 0
21.6 0.02 0
21.68 0.02 0
21.76 0.02 0
21.84 0.02 0
21.92 0.02 0
22 0.02 0
22.08 0.02 0
22.16 0.02 0
22.24 0.02 0
22.32 0.02 0
22.4 0.02 0
22.48 0.02 0
22.56 0.02 0
22.64 0.02 0
22.72 0.02 0
22.8 0.02 0
22.88 0.02 0
22.96 0.02 0
23.04 0.02 0
23.12 0.02 0
23.2 0.02 0
23.28 0.02 0
23.36 0.02 0
23.44 0.02 0
23.52 0.02 0
23.6 0.02 0
23.68 0.02 0
23.76 0.02 0
23.84 0.02 0
23.92 0.02 0
24 0.02 0
24.08 0.02 0
24.16 0.02 0
24.24 0.02 0
24.32 0.02 0
24.4 0.02 0
24.48 0.02 0
24.56 0.02 0
24.64 0.02 0
24.72 0.02 0
24.8 0.02 0
24.88 0.02 0
24.96 0.02 0
25.04 0.02 0
25.12 0.02 0
25.2 0.02 0
25.28 0.02 0
25.36 0.02 0
25.44 0.02 0
25.52 0.02 0
25.6 0.02 0
25.68 0.02 0
25.76 0.02 0
25.84 0.02 0
25.92 0.02 0
26 0.02 0
26.08 0.02 0
26.16 0.02 0
26.24 0.02 0
26.32 0.02 0
26.4 0.02 0
26.48 0.02 0
26.56 0.02 0
26.64 0.02 0
26.72 0.02 0
26.8 0.02 0
26.88 0.02 0
26.96 0.02 0
27.04 0.02 0
27.12 0.02 0
27.2 0.02 0
27.28 0.02 0
27.36 0.02 0
27.44 0.02 0
27.52 0.02 0
27.6 0.02 0
27.68 0.02 0
27.76 0.02 0
27.84 0.02 0
27.92 0.02 0
28 0.02 0
28.08 0.02 0
28.16 0.02 0
28.24 0.02 0
28.32 0.02 0
28.4 0.02 0
28.48 0.02 0
28.56 0.02 0
28.64 0.02 0
28.72 0.02 0
28.8 0.02 0
28.88 0.02 0
28.96 0.02 0
29.04 0.02 0
29.12 0.02 0
29.2 0.02 0
29.28 0.02 0
29.36 0.02 0
29.44 0.02 0
29.52 0.02 0
29.6 0.02 0
29.68 0.02 0
29.76 0.02 0
29.84 0.02 0
29.92 0.02 0
30 0.02 0
30.08 0.02 0
30.16 0.02 0
30.24 0.02 0
30.32 0.02 0
30.4 0.02 0
30.48 0.02 0
30.56 0.02 0
30.64 0.02 0
30.72 0.02 0
30.8 0.02 0
30.88 0.02 0
30.96 0.02 0
31.04 0.02 0
31.12 0.02 0
31.2 0.02 0
31.28 0.02 0
31.36 0.02 0
31.44 0.02 0
31.52 0.02 0
31.6 0.02 0
31.68 0.02 0
31.76 0.02 0
31.84 0.02 0
31.92 0.02 0
0 0.04 0
0.08 0.04 0
0.16 0.04 0
0.24 0.04 0
0.32 0.04 0
0.4 0.04 0
0.48 0.04 0
0.56 0.04 0
0.64 0.04 0
0.72 0.04 0
0.8 0.04 0
0.88 0.04 0
0.96 0.04 0
1.04 0.04 0
1.12 0.04 0
1.2 0.04 0
1.28 0.04 0
1.36 0.04 0
1.44 0.04 0
1.52 0.04 0
1.6 0.04 0
1.68 0.04 0
1.76 0.04 0
1.84 0.04 0
1.92 0.04 0
2 0.04 0
2.08 0.04 0
2.16 0.04 0
2.24 0.04 0
2.32 0.04 0
2.4 0.04 0
2.48 0.04 0
2.56 0.04 0
2.64 0.04 0
2.72 0.04 0
2.8 0.04 0
2.88 0.04 0
2.96 0.04 0
3.04 0.04 0
3.12 0.04 0
3.2 0.04 0
3.28 0.04 0
3.36 0.04 0
3.44 0.04 0
3.52 0.04 0
3.6 0.04 0
3.68 0.04 0
3.76 0.04 0
3.84 0.04 0
3.92 0.04 0
4 0.04 0
4.08 0.04 0
4.16 0.04 0
4.24 0.04 0
4.32 0.04 0
4.4 0.04 0
4.48 0.04 0
4.56 0.04 0
4.64 0.04 0
4.72 0.04 0
4.8 0.04 0
4.88 0.04 0
4.96 0.04 0
5.04 0.04 0
5.12 0.04 0
5.2 0.04 0
5.28 0.04 0
5.36 0.04 0
5.44 0.04 0
5.52 0.04 0
5.6 0.04 0
5.68 0.04 0
5.76 0.04 0
5.84 0.04 0
5.92 0.04 0
6 0.04 0
6.08 0.04 0
6.16 0.04 0
6.24 0.04 0
6.32 0.04 0
6.4 0.04 0
6.48 0.04 0
6.56 0.04 0
6.64 0.04 0
6.72 0.04 0
6.8 0.04 0
6.88 0.04 0
6.96 0.04 0
7.04 0.04 0
7.12 0.04 0
7.2 0.04 0
7.28 0.04 0
7.36 0.04 0
7.44 0.04 0
7.52 0.04 0
7.6 0.04 0
7.68 0.04 0
7.76 0.04 0
7.84 0.04 0
[...]
POINT_DATA 20000

SCALARS u float 1
LOOKUP_TABLE default
0
-0.50709
-0.29192
-0.214161
-0.179027
-0.158665
-0.145112
-0.135361
-0.127969
-0.122141
-0.117403
-0.113452
-0.110088
-0.107176
-0.104617
-0.102344
-0.100305
-0.0984598
-0.0967801
-0.0952416
-0.0938256
-0.0925167
-0.0913022
-0.0901715
-0.0891157
-0.088127
-0.087199
-0.0863259
-0.0855026
-0.0847249
-0.0839889
-0.0832912
-0.0826287
-0.0819987
-0.0813987
-0.0808267
-0.0802805
-0.0797585
-0.079259
-0.0787805
-0.0783217
-0.0778813
-0.0774583
-0.0770516
-0.0766602
-0.0762834
-0.0759202
-0.07557
-0.075232
-0.0749056
-0.0745902
-0.0742854
-0.0739904
-0.073705
-0.0734286
-0.0731608
-0.0729013
-0.0726496
-0.0724054
-0.0721685
-0.0719384
-0.071715
-0.0714979
-0.0712869
-0.0710817
-0.0708822
-0.0706881
-0.0704992
-0.0703154
-0.0701364
-0.069962
-0.0697922
-0.0696268
-0.0694655
-0.0693083
-0.0691551
-0.0690057
-0.0688599
-0.0687178
-0.0685791
-0.0684437
-0.0683116
-0.0681827
-0.0680569
-0.067934
-0.067814
-0.0676969
-0.0675824
-0.0674706
-0.0673615
-0.0672548
-0.0671506
-0.0670487
-0.0669492
-0.0668519
-0.0667569
-0.066664
-0.0665732
-0.0664844
-0.0663976
-0.0663128
-0.0662298
-0.0661487
-0.0660694
-0.0659918
-0.065916
-0.0658418
-0.0657693
-0.0656984
-0.065629
-0.0655612
-0.0654948
-0.0654299
-0.0653665
-0.0653044
-0.0652437
-0.0651843
-0.0651262
-0.0650693
-0.0650137
-0.0649593
-0.0649061
-0.0648541
-0.0648032
-0.0647534
-0.0647047
-0.064657
-0.0646104
-0.0645648
-0.0645202
-0.0644765
-0.0644338
-0.0643921
-0.0643512
-0.0643112
-0.0642721
-0.0642339
-0.0641964
-0.0641598
-0.064124
-0.0640889
-0.0640546
-0.0640211
-0.0639883
-0.0639562
-0.0639248
-0.0638941
-0.063864
-0.0638346
-0.0638058
-0.0637777
-0.0637501
-0.0637232
-0.0636968
-0.063671
-0.0636458
-0.0636211
-0.063597
-0.0635733
-0.0635502
-0.0635276
-0.0635054
-0.0634838
-0.0634626
-0.0634419
-0.0634216
-0.0634017
-0.0633823
-0.0633633
-0.0633447
-0.0633265
-0.0633087
-0.0632913
-0.0632742
-0.0632576
-0.0632412
-0.0632253
-0.0632096
-0.0631944
-0.0631794
-0.0631647
-0.0631504
-0.0631364
-0.0631227
-0.0631093
-0.0630961
-0.0630833
-0.0630707
-0.0630584
-0.0630463
-0.0630345
-0.063023
-0.0630117
-0.0630007
-0.0629899
-0.0629793
-0.0629689
-0.0629588
-0.0629489
-0.0629392
-0.0629297
-0.0629204
-0.0629113
-0.0629024
-0.0628937
-0.0628852
-0.0628769
-0.0628687
-0.0628607
-0.0628529
-0.0628452
-0.0628378
-0.0628304
-0.0628233
-0.0628162
-0.0628094
-0.0628027
-0.0627961
-0.0627896
-0.0627833
-0.0627772
-0.0627711
-0.0627652
-0.0627594
-0.0627538
-0.0627482
-0.0627428
-0.0627375
-0.0627323
-0.0627272
-0.0627223
-0.0627174
-0.0627126
-0.062708
-0.0627034
-0.062699
-0.0626946
-0.0626904
-0.0626862
-0.0626821
-0.0626781
-0.0626743
-0.0626705
-0.0626667
-0.0626631
-0.0626596
-0.0626561
-0.0626527
-0.0626495
-0.0626463
-0.0626431
-0.0626401
-0.0626371
-0.0626342
-0.0626314
-0.0626287
-0.0626261
-0.0626235
-0.062621
-0.0626186
-0.0626163
-0.0626141
-0.0626119
-0.0626098
-0.0626078
-0.0626058
-0.062604
-0.0626022
-0.0626005
-0.0625988
-0.0625973
-0.0625958
-0.0625943
-0.062593
-0.0625917
-0.0625904
-0.0625893
-0.0625882
-0.0625872
-0.0625862
-0.0625853
-0.0625845
-0.0625837
-0.062583
-0.0625823
-0.0625817
-0.0625811
-0.0625806
-0.0625802
-0.0625798
-0.0625794
-0.0625791
-0.0625788
-0.0625786
-0.0625784
-0.0625782
-0.0625781
-0.062578
-0.062578
-0.062578
-0.062578
-0.062578
-0.0625781
-0.0625782
-0.0625783
-0.0625784
-0.0625786
-0.0625787
-0.0625789
-0.0625791
-0.0625794
-0.0625796
-0.0625798
-0.0625801
-0.0625804
-0.0625807
-0.062581
-0.0625813
-0.0625816
-0.0625819
-0.0625822
-0.0625825
-0.0625829
-0.0625832
-0.0625835
-0.0625839
-0.0625842
-0.0625846
-0.0625849
-0.0625853
-0.0625856
-0.062586
-0.0625864
-0.0625867
-0.0625871
-0.0625875
-0.0625878
-0.0625882
-0.0625885
-0.0625889
-0.0625893
-0.0625896
-0.06259
-0.0625904
-0.0625907
-0.0625911
-0.0625915
-0.0625918
-0.0625922
-0.0625926
-0.0625929
-0.0625933
-0.0625937
-0.062594
-0.0625944
-0.0625948
-0.0625951
-0.0625955
-0.0625959
-0.0625962
-0.0625966
-0.062597
-0.0625973
-0.0625977
-0.0625981
-0.0625984
-0.0625988
-0.0625992
-0.0625995
-0.0625999
-0.0626003
-0.0626006
-0.062601
-0.0626014
-0.0626017
-0.0626021
-0.0626025
-0.0626029
-0.0626032
-0.0626036
-0.062604
-0.0626044
-0.0626047
-0.0626051
-0.0626055
-0.0626059
-0.0626063
-0.0626067
-0.0626071
-0.0626075
-0.0626079
-0.0626083
-0.0626087
-0.0626091
-0.0626095
-0.0626099
-0.0626103
-0.0626101
-0.0626101
-0.0626101
1
0.50709
0.29192
0.214161
0.179027
0.158665
0.145112
0.135361
0.127969
0.122141
0.117403
0.113452
0.110088
0.107176
0.104617
0.102344
0.100305
0.0984598
0.0967801
0.0952416
0.0938256
0.0925167
0.0913022
0.0901715
0.0891157
0.088127
0.087199
0.0863259
0.0855026
0.0847249
0.0839889
0.0832912
0.0826287
0.0819987
0.0813987
0.0808267
0.0802805
0.0797585
0.079259
0.0787805
0.0783217
0.0778813
0.0774583
0.0770516
0.0766602
0.0762834
0.0759202
0.07557
0.075232
0.0749056
0.0745902
0.0742854
0.0739904
0.073705
0.0734286
0.0731608
0.0729013
0.0726496
0.0724054
0.0721685
0.0719384
0.071715
0.0714979
0.0712869
0.0710817
0.0708822
0.0706881
0.0704992
0.0703154
0.0701364
0.069962
0.0697922
0.0696268
0.0694655
0.0693083
0.0691551
0.0690057
0.0688599
0.0687178
0.0685791
0.0684437
0.0683116
0.0681827
0.0680569
0.067934
0.067814
0.0676969
0.0675824
0.0674706
0.0673615
0.0672548
0.0671506
0.0670487
0.0669492
0.0668519
0.0667569
0.066664
0.0665732
0.0664844
0.0663976
0.0663128
0.0662298
0.0661487
0.0660694
0.0659918
0.065916
0.0658418
0.0657693
0.0656984
0.065629
0.0655612
0.0654948
0.0654299
0.0653665
0.0653044
0.0652437
0.0651843
0.0651262
0.0650693
0.0650137
0.0649593
0.0649061
0.0648541
0.0648032
0.0647534
0.0647047
0.064657
0.0646104
0.0645648
0.0645202
0.0644765
0.0644338
0.0643921
0.0643512
0.0643112
0.0642721
0.0642339
0.0641964
0.0641598
0.064124
0.0640889
0.0640546
0.0640211
0.0639883
0.0639562
0.0639248
0.0638941
0.063864
0.0638346
0.0638058
0.0637777
0.0637501
0.0637232
0.0636968
0.063671
0.0636458
0.0636211
0.063597
0.0635733
0.0635502
0.0635276
0.0635054
0.0634838
0.0634626
0.0634419
0.0634216
0.0634017
0.0633823
0.0633633
0.0633447
0.0633265
0.0633087
0.0632913
0.0632742
0.0632576
0.0632412
0.0632253
0.0632096
0.0631944
0.0631794
0.0631647
0.0631504
0.0631364
0.0631227
0.0631093
0.0630961
0.0630833
0.0630707
0.0630584
0.0630463
0.0630345
0.063023
0.0630117
0.0630007
0.0629899
0.0629793
0.0629689
0.0629588
0.0629489
0.0629392
0.0629297
0.0629204
0.0629113
0.0629024
0.0628937
0.0628852
0.0628769
0.0628687
0.0628607
0.0628529
0.0628452
0.0628378
0.0628304
0.0628233
0.0628162
0.0628094
0.0628027
0.0627961
0.0627896
0.0627833
0.0627772
0.0627711
0.0627652
0.0627594
0.0627538
0.0627482
0.0627428
0.0627375
0.0627323
0.0627272
0.0627223
0.0627174
0.0627126
0.062708
0.0627034
0.062699
0.0626946
0.0626904
0.0626862
0.0626821
0.0626781
0.0626743
0.0626705
0.0626667
0.0626631
0.0626596
0.0626561
0.0626527
0.0626495
0.0626463
0.0626431
0.0626401
0.0626371
0.0626342
0.0626314
0.0626287
0.0626261
0.0626235
0.062621
0.0626186
0.0626163
0.0626141
0.0626119
0.0626098
0.0626078
0.0626058
0.062604
0.0626022
0.0626005
0.0625988
0.0625973
0.0625958
0.0625943
0.062593
0.0625917
0.0625904
0.0625893
0.0625882
0.0625872
0.0625862
0.0625853
0.0625845
0.0625837
0.062583
0.0625823
0.0625817
0.0625811
0.0625806
0.0625802
0.0625798
0.0625794
0.0625791
0.0625788
0.0625786
0.0625784
0.0625782
0.0625781
0.062578
0.062578
0.062578
0.062578
0.062578
0.0625781
0.0625782
0.0625783
0.0625784
0.0625786
0.0625787
0.0625789
0.0625791
0.0625794
0.0625796
0.0625798
0.0625801
0.0625804
0.0625807
0.062581
0.0625813
0.0625816
0.0625819
0.0625822
0.0625825
0.0625829
0.0625832
0.0625835
0.0625839
0.0625842
0.0625846
0.0625849
0.0625853
0.0625856
0.062586
0.0625864
0.0625867
0.0625871
0.0625875
0.0625878
0.0625882
0.0625885
0.0625889
0.0625893
0.0625896
0.06259
0.0625904
0.0625907
0.0625911
0.0625915
0.0625918
0.0625922
0.0625926
0.0625929
0.0625933
0.0625937
0.062594
0.0625944
0.0625948
0.0625951
0.0625955
0.0625959
0.0625962
0.0625966
0.062597
0.0625973
0.0625977
0.0625981
0.0625984
0.0625988
0.0625992
0.0625995
0.0625999
0.0626003
0.0626006
0.062601
0.0626014
0.0626017
0.0626021
0.0626025
0.0626029
0.0626032
0.0626036
0.062604
0.0626044
0.0626047
0.0626051
0.0626055
0.0626059
0.0626063
0.0626067
0.0626071
0.0626075
0.0626079
0.0626083
0.0626087
0.0626091
0.0626095
0.0626099
0.0626103
0.0626101
0.0626101
0.0626101
1
0.924297
0.735447
0.597551
0.511658
0.456343
0.418184
0.39028
0.36895
0.352066
0.338319
0.32686
0.31712
0.308704
0.301329
0.294793
0.288941
0.28366
0.278861
0.274472
0.270439
0.266716
0.263265
0.260055
0.25706
0.254258
0.25163
0.249158
0.246829
0.24463
0.24255
0.240578
0.238707
0.236929
0.235236
0.233622
0.232081
0.230609
0.229201
0.227853
0.22656
0.22532
0.224129
0.222984
0.221883
0.220822
0.219801
0.218816
0.217865
0.216948
0.216061
0.215205
0.214376
0.213574
0.212798
0.212046
0.211318
0.210611
0.209926
0.209261
0.208616
0.207989
0.207381
0.206789
0.206214
0.205655
0.205111
0.204582
0.204067
0.203566
0.203078
0.202602
0.202139
0.201688
0.201248
0.200819
0.200402
0.199994
0.199596
0.199209
0.19883
0.198461
0.198101
0.197749
0.197406
0.197071
0.196744
0.196424
0.196112
0.195807
0.195509
0.195219
0.194934
0.194657
0.194385
0.19412
0.193861
0.193608
0.19336
0.193118
0.192882
0.192651
0.192425
0.192204
0.191987
0.191776
0.19157
0.191368
0.19117
0.190977
0.190788
0.190603
0.190423
0.190246
0.190073
0.189904
0.189739
0.189577
0.189419
0.189264
0.189113
0.188965
0.188821
0.188679
0.188541
0.188405
0.188273
0.188143
0.188016
0.187892
0.187771
0.187652
0.187536
0.187423
0.187312
0.187203
0.187097
0.186993
0.186891
0.186792
0.186694
0.186599
0.186506
0.186415
0.186326
0.186239
0.186153
0.18607
0.185988
0.185909
0.185831
0.185754
0.185679
0.185606
0.185535
0.185465
0.185396
0.185329
0.185264
0.1852
0.185137
0.185076
0.185016
0.184957
0.184899
0.184843
0.184788
0.184734
0.184682
0.18463
0.18458
0.18453
0.184482
0.184435
0.184389
0.184343
0.184299
0.184256
0.184213
0.184172
0.184131
0.184092
0.184053
0.184015
0.183978
0.183941
0.183906
0.183871
0.183837
0.183803
0.183771
0.183739
0.183708
0.183677
0.183647
0.183618
0.183589
0.183561
0.183534
0.183507
0.183481
0.183455
0.18343
0.183405
0.183381
0.183357
0.183334
0.183312
0.18329
0.183268
0.183247
0.183226
0.183206
0.183186
0.183166
0.183147
0.183129
0.183111
0.183093
0.183075
0.183058
0.183041
0.183025
0.183009
0.182993
0.182978
0.182963
0.182948
0.182934
0.18292
0.182906
0.182893
0.18288
0.182867
0.182854
0.182842
0.18283
0.182818
0.182806
0.182795
0.182784
0.182774
0.182763
0.182753
0.182743
0.182733
0.182724
0.182714
0.182705
0.182696
0.182688
0.18268
0.182671
0.182664
0.182656
0.182649
0.182641
0.182634
0.182628
0.182621
0.182615
0.182609
0.182603
0.182597
0.182592
0.182587
0.182582
0.182577
0.182572
0.182568
0.182564
0.18256
0.182556
0.182553
0.182549
0.182546
0.182543
0.18254
0.182538
0.182535
0.182533
0.182531
0.182529
0.182527
0.182525
0.182524
0.182522
0.182521
0.18252
0.182519
0.182518
0.182517
0.182517
0.182516
0.182516
0.182516
0.182515
0.182515
0.182515
0.182515
0.182515
0.182516
0.182516
0.182516
0.182517
0.182517
0.182518
0.182518
0.182519
0.18252
0.18252
0.182521
0.182522
0.182523
0.182523
0.182524
0.182525
0.182526
0.182527
0.182528
0.182529
0.18253
0.182531
0.182532
0.182533
0.182534
0.182535
0.182536
0.182537
0.182538
0.182539
0.18254
0.182541
0.182542
0.182543
0.182544
0.182545
0.182546
0.182547
0.182548
0.182549
0.18255
0.182551
0.182552
0.182553
0.182554
0.182555
0.182556
0.182557
0.182558
0.182559
0.18256
0.182561
0.182563
0.182564
0.182565
0.182566
0.182567
0.182568
0.182569
0.18257
0.182571
0.182572
0.182573
0.182574
0.182575
0.182576
0.182577
0.182578
0.182579
0.18258
0.182581
0.182582
0.182583
0.182584
0.182586
0.182587
0.182588
0.182589
0.18259
0.182591
0.182592
0.182593
0.182594
0.182595
0.182596
0.182597
0.182599
0.1826
0.182601
0.182602
0.182603
0.182604
0.182605
0.182607
0.182608
0.182609
0.182609
0.182609
0.182609
1
1.07971
0.997071
0.883651
0.788697
0.716914
0.663051
0.621838
0.589495
0.563483
0.542092
0.524152
0.508845
0.49559
0.483964
0.473654
0.464424
0.456096
0.448528
0.44161
0.435255
0.429389
0.423953
0.418898
0.414183
0.409772
0.405634
0.401744
0.398078
0.394617
0.391344
0.388242
0.385298
0.3825
0.379836
0.377298
0.374875
0.37256
0.370345
0.368225
0.366193
0.364243
0.36237
0.36057
0.358839
0.357172
0.355567
0.354019
0.352525
0.351084
0.349692
0.348346
0.347045
0.345785
0.344567
0.343386
0.342242
0.341134
0.340058
0.339015
0.338002
0.337019
0.336064
0.335136
0.334235
0.333358
0.332505
0.331675
0.330868
0.330082
0.329317
0.328572
0.327847
0.32714
0.326451
0.325779
0.325125
0.324486
0.323864
0.323257
0.322665
0.322087
0.321523
0.320973
0.320436
0.319911
0.3194
0.3189
0.318412
0.317935
0.317469
0.317015
0.31657
0.316136
0.315712
0.315298
0.314893
0.314497
0.314111
0.313733
0.313363
0.313002
0.312649
0.312304
0.311967
0.311637
0.311314
0.310999
0.310691
0.310389
0.310095
0.309806
0.309525
0.309249
0.308979
0.308716
0.308458
0.308206
0.307959
0.307718
0.307482
0.307252
0.307026
0.306806
0.30659
0.306379
0.306172
0.30597
0.305773
0.30558
0.305391
0.305206
0.305025
0.304848
0.304675
0.304506
0.304341
0.304179
0.304021
0.303866
0.303714
0.303566
0.303421
0.303279
0.303141
0.303005
0.302872
0.302743
0.302616
0.302492
0.30237
0.302251
0.302135
0.302021
0.30191
0.301801
0.301695
0.301591
0.301489
0.301389
0.301291
0.301196
0.301103
0.301011
0.300922
0.300835
0.300749
0.300666
0.300584
0.300504
0.300425
0.300349
0.300274
0.3002
0.300128
0.300058
0.299989
0.299922
0.299856
0.299792
0.299729
0.299667
0.299607
0.299548
0.29949
0.299434
0.299378
0.299324
0.299271
0.29922
0.299169
0.299119
0.299071
0.299023
0.298977
0.298931
0.298887
0.298843
0.298801
0.298759
0.298718
0.298678
0.298639
0.298601
0.298564
0.298527
0.298491
0.298456
0.298422
0.298388
0.298355
0.298323
0.298291
0.298261
0.29823
0.298201
0.298172
0.298144
0.298116
0.298089
0.298062
0.298036
0.298011
0.297986
0.297962
0.297938
0.297915
0.297892
0.29787
0.297848
0.297826
0.297806
0.297785
0.297765
0.297746
0.297727
0.297708
0.29769
0.297672
0.297654
0.297637
0.297621
0.297604
0.297589
0.297573
0.297558
0.297543
0.297529
0.297515
0.297502
0.297488
0.297475
0.297463
0.297451
0.297439
0.297428
0.297417
0.297406
0.297396
0.297386
0.297376
0.297367
0.297358
0.297349
0.297341
0.297333
0.297325
0.297318
0.297311
0.297305
0.297298
0.297292
0.297287
0.297281
0.297276
0.297271
0.297267
0.297263
0.297259
0.297255
0.297252
0.297248
0.297246
0.297243
0.29724
0.297238
0.297236
0.297235
0.297233
0.297232
0.29723
0.297229
0.297229
0.297228
0.297228
0.297227
0.297227
0.297227
0.297227
0.297227
0.297228
0.297228
0.297229
0.297229
0.29723
0.297231
0.297232
0.297232
0.297233
0.297235
0.297236
0.297237
0.297238
0.297239
0.297241
0.297242
0.297243
0.297245
0.297246
0.297248
0.297249
0.297251
0.297252
0.297254
0.297255
0.297257
0.297258
0.29726
0.297262
0.297263
0.297265
0.297266
0.297268
0.29727
0.297271
0.297273
0.297275
0.297276
0.297278
0.29728
0.297281
0.297283
0.297284
0.297286
0.297288
0.297289
0.297291
0.297293
0.297294
0.297296
0.297297
0.297299
0.297301
0.297302
0.297304
0.297306
0.297307
0.297309
0.297311
0.297312
0.297314
0.297315
0.297317
0.297319
0.29732
0.297322
0.297324
0.297325
0.297327
0.297329
0.29733
0.297332
0.297334
0.297335
0.297337
0.297339
0.29734
0.297342
0.297343
0.297345
0.297347
0.297349
0.29735
0.297352
0.297354
0.297355
0.297357
0.297359
0.297361
0.297362
0.297364
0.297366
0.297368
0.29737
0.297371
0.297373
0.297375
0.297376
0.297376
0.297376
1
1.11179
1.11438
1.05557
0.984376
0.919038
0.863805
0.818222
0.780651
0.749428
0.72317
0.700802
0.681505
0.664662
0.649802
0.636568
0.624684
0.613933
0.604145
0.595185
0.586941
0.579325
0.57226
0.565685
0.559547
0.553801
0.548408
0.543334
0.538552
0.534034
0.529759
0.525707
0.52186
0.518202
0.514719
0.511398
0.508228
0.505199
0.502301
0.499525
0.496864
0.494311
0.491859
0.489501
0.487234
0.485051
0.482947
0.480919
0.478963
0.477075
0.47525
0.473487
0.471782
0.470133
0.468536
0.466989
0.465491
0.464038
0.462629
0.461263
0.459936
0.458648
0.457397
0.456182
0.455001
0.453853
0.452736
0.45165
0.450593
0.449564
0.448563
0.447588
0.446638
0.445712
0.444811
0.443932
0.443076
0.442241
0.441426
0.440632
0.439858
0.439102
0.438365
0.437645
0.436943
0.436258
0.435588
0.434935
0.434297
0.433674
0.433066
0.432472
0.431891
0.431324
0.430771
0.430229
0.429701
0.429184
0.428679
0.428185
0.427703
0.427232
0.426771
0.426321
0.42588
0.42545
0.425029
0.424618
0.424216
0.423823
0.423438
0.423062
0.422695
0.422335
0.421984
0.42164
0.421304
0.420976
0.420654
0.42034
0.420033
0.419732
0.419438
0.419151
0.41887
0.418595
0.418326
0.418063
0.417806
0.417554
0.417308
0.417068
0.416832
0.416602
0.416377
0.416157
0.415942
0.415731
0.415525
0.415324
0.415126
0.414934
0.414745
0.414561
0.41438
0.414204
0.414031
0.413863
0.413698
0.413536
0.413378
0.413224
0.413073
0.412925
0.41278
0.412639
0.4125
0.412365
0.412233
0.412103
0.411976
0.411852
0.411731
0.411613
0.411497
0.411383
0.411272
0.411163
0.411057
0.410953
0.410851
0.410752
0.410654
0.410559
0.410466
0.410375
0.410286
0.410198
0.410113
0.410029
0.409947
0.409867
0.409789
0.409713
0.409638
0.409564
0.409493
0.409422
0.409354
0.409286
0.409221
0.409156
0.409093
0.409032
0.408971
0.408912
0.408855
0.408798
0.408743
0.408689
0.408636
0.408584
0.408533
0.408484
0.408435
0.408388
0.408341
0.408296
0.408251
0.408207
0.408165
0.408123
0.408082
0.408042
0.408003
0.407965
0.407927
0.407891
0.407855
0.407819
0.407785
0.407751
0.407718
0.407686
0.407655
0.407624
0.407593
0.407564
0.407535
0.407507
0.407479
0.407452
0.407425
0.407399
0.407374
0.407349
0.407325
0.407301
0.407278
0.407256
0.407234
0.407212
0.407191
0.407171
0.40715
0.407131
0.407112
0.407093
0.407075
0.407058
0.407041
0.407024
0.407008
0.406992
0.406977
0.406962
0.406948
0.406934
0.406921
0.406908
0.406896
0.406884
0.406872
0.406861
0.406851
0.406841
0.406831
0.406822
0.406813
0.406804
0.406796
0.406789
0.406781
0.406774
0.406768
0.406762
0.406756
0.406751
0.406746
0.406741
0.406737
0.406733
0.406729
0.406726
0.406723
0.40672
0.406718
0.406716
0.406714
0.406712
0.406711
0.40671
0.406709
0.406708
0.406707
0.406707
0.406707
0.406707
0.406707
0.406707
0.406708
0.406708
0.406709
0.40671
0.406711
0.406712
0.406713
0.406715
0.406716
0.406717
0.406719
0.40672
0.406722
0.406724
0.406725
0.406727
0.406729
0.406731
0.406733
0.406735
0.406737
0.406739
0.406741
0.406743
0.406745
0.406747
0.406749
0.406751
0.406753
0.406755
0.406757
0.406759
0.406761
0.406763
0.406765
0.406768
0.40677
0.406772
0.406774
0.406776
0.406778
0.40678
0.406782
0.406784
0.406787
0.406789
0.406791
0.406793
0.406795
0.406797
0.406799
0.406801
0.406804
0.406806
0.406808
0.40681
0.406812
0.406814
0.406816
0.406818
0.406821
0.406823
0.406825
0.406827
0.406829
0.406831
0.406833
0.406836
0.406838
0.40684
0.406842
0.406844
0.406846
0.406848
0.40685
0.406853
0.406855
0.406857
0.406859
0.406861
0.406863
0.406866
0.406868
0.40687
0.406872
0.406874
0.406877
0.406879
0.406881
0.406884
0.406886
0.406888
0.406891
0.406893
0.406895
0.406897
0.4069
0.406901
0.406901
0.406901
1
1.09593
1.14368
1.13403
1.09771
1.05335
1.00943
0.96923
0.933637
0.902513
0.875355
0.85158
0.830646
0.812088
0.795519
0.780623
0.767145
0.75488
0.743657
0.73334
0.723815
0.714988
0.706779
0.699121
0.691957
0.685238
0.678922
0.672971
0.667353
0.662041
0.657008
0.652232
0.647694
0.643375
0.639259
0.635333
0.631582
0.627996
0.624562
0.621272
0.618117
0.615088
0.612177
0.609378
0.606685
0.604091
0.601592
0.599181
0.596855
0.594609
0.592439
0.590341
0.588312
0.586349
0.584448
0.582607
0.580822
0.579093
0.577415
0.575788
0.574208
0.572674
0.571184
0.569737
0.56833
0.566962
0.565632
0.564338
0.563079
0.561854
0.560661
0.559499
0.558368
0.557266
0.556192
0.555146
0.554126
0.553131
0.552162
0.551216
0.550294
0.549394
0.548516
0.54766
0.546824
0.546008
0.545212
0.544434
0.543675
0.542934
0.54221
0.541503
0.540813
0.540138
0.53948
0.538836
0.538207
0.537593
0.536992
0.536406
0.535832
0.535272
0.534724
0.534189
0.533666
0.533154
0.532654
0.532166
0.531688
0.531221
0.530764
0.530318
0.529881