# vtk DataFile Version 2.0
FlowField
ASCII
DATASET STRUCTURED_GRID
DIMENSIONS 400 1 50
POINTS 20000 float
0 0 0
0.08 0 0
0.16 0 0
0.24 0 0
0.32 0 0
0.4 0 0
0.48 0 0
0.56 0 0
0.64 0 0
0.72 0 0
0.8 0 0
0.88 0 0
0.96 0 0
1.04 0 0
1.12 0 0
1.2 0 0
1.28 0 0
1.36 0 0
1.44 0 0
1.52 0 0
1.6 0 0
1.68 0 0
1.76 0 0
1.84 0 0
1.92 0 0
2 0 0
2.08 0 0
2.16 0 0
2.24 0 0
2.32 0 0
2.4 0 0
2.48 0 0
2.56 0 0
2.64 0 0
2.72 0 0
2.8 0 0
2.88 0 0
2.96 0 0
3.04 0 0
3.12 0 0
3.2 0 0
3.28 0 0
3.36 0 0
3.44 0 0
3.52 0 0
3.6 0 0
3.68 0 0
3.76 0 0
3.84 0 0
3.92 0 0
4 0 0
4.08 0 0
4.16 0 0
4.24 0 0
4.32 0 0
4.4 0 0
4.48 0 0
4.56 0 0
4.64 0 0
4.72 0 0
4.8 0 0
4.88 0 0
4.96 0 0
5.04 0 0
5.12 0 0
5.2 0 0
5.28 0 0
5.36 0 0
5.44 0 0
5.52 0 0
5.6 0 0
5.68 0 0
5.76 0 0
5.84 0 0
5.92 0 0
6 0 0
6.08 0 0
6.16 0 0
6.24 0 0
6.32 0 0
6.4 0 0
6.48 0 0
6.56 0 0
6.64 0 0
6.72 0 0
6.8 0 0
6.88 0 0
6.96 0 0
7.04 0 0
7.12 0 0
7.2 0 0
7.28 0 0
7.36 0 0
7.44 0 0
7.52 0 0
7.6 0 0
7.68 0 0
7.76 0 0
7.84 0 0
7.92 0 0
8 0 0
8.08 0 0
8.16 0 0
8.24 0 0
8.32 0 0
8.4 0 0
8.48 0 0
8.56 0 0
8.64 0 0
8.72 0 0
8.8 0 0
8.88 0 0
8.96 0 0
9.04 0 0
9.12 0 0
9.2 0 0
9.28 0 0
9.36 0 0
9.44 0 0
9.52 0 0
9.6 0 0
9.68 0 0
9.76 0 0
9.84 0 0
9.92 0 0
10 0 0
10.08 0 0
10.16 0 0
10.24 0 0
10.32 0 0
10.4 0 0
10.48 0 0
10.56 0 0
10.64 0 0
10.72 0 0
10.8 0 0
10.88 0 0
10.96 0 0
11.04 0 0
11.12 0 0
11.2 0 0
11.28 0 0
11.36 0 0
11.44 0 0
11.52 0 0
11.6 0 0
11.68 0 0
11.76 0 0
11.84 0 0
11.92 0 0
12 0 0
12.08 0 0
12.16 0 0
12.24 0 0
12.32 0 0
12.4 0 0
12.48 0 0
12.56 0 0
12.64 0 0
12.72 0 0
12.8 0 0
12.88 0 0
12.96 0 0
13.04 0 0
13.12 0 0
13.2 0 0
13.28 0 0
13.36 0 0
13.44 0 0
13.52 0 0
13.6 0 0
13.68 0 0
13.76 0 0
13.84 0 0
13.92 0 0
14 0 0
14.08 0 0
14.16 0 0
14.24 0 0
14.32 0 0
14.4 0 0
14.48 0 0
14.56 0 0
14.64 0 0
14.72 0 0
14.8 0 0
14.88 0 0
14.96 0 0
15.04 0 0
15.12 0 0
15.2 0 0
15.28 0 0
15.36 0 0
15.44 0 0
15.52 0 0
15.6 0 0
15.68 0 0
15.76 0 0
15.84 0 0
15.92 0 0
16 0 0
16.08 0 0
16.16 0 0
16.24 0 0
16.32 0 0
16.4 0 0
16.48 0 0
16.56 0 0
16.64 0 0
16.72 0 0
16.8 0 0
16.88 0 0
16.96 0 0
17.04 0 0
17.12 0 0
17.2 0 0
17.28 0 0
17.36 0 0
17.44 0 0
17.52 0 0
17.6 0 0
17.68 0 0
17.76 0 0
17.84 0 0
17.92 0 0
18 0 0
18.08 0 0
18.16 0 0
18.24 0 0
18.32 0 0
18.4 0 0
18.48 0 0
18.56 0 0
18.64 0 0
18.72 0 0
18.8 0 0
18.88 0 0
18.96 0 0
19.04 0 0
19.12 0 0
19.2 0 0
19.28 0 0
19.36 0 0
19.44 0 0
19.52 0 0
19.6 0 0
19.68 0 0
19.76 0 0
19.84 0 0
19.92 0 0
20 0 0
20.08 0 0
20.16 0 0
20.24 0 0
20.32 0 0
20.4 0 0
20.48 0 0
20.56 0 0
20.64 0 0
20.72 0 0
20.8 0 0
20.88 0 0
20.96 0 0
21.04 0 0
21.12 0 0
21.2 0 0
21.28 0 0
21.36 0 0
21.44 0 0
21.52 0 0
21.6 0 0
21.68 0 0
21.76 0 0
21.84 0 0
21.92 0 0
22 0 0
22.08 0 0
22.16 0 0
22.24 0 0
22.32 0 0
22.4 0 0
22.48 0 0
22.56 0 0
22.64 0 0
22.72 0 0
22.8 0 0
22.88 0 0
22.96 0 0
23.04 0 0
23.12 0 0
23.2 0 0
23.28 0 0
23.36 0 0
23.44 0 0
23.52 0 0
23.6 0 0
23.68 0 0
23.76 0 0
23.84 0 0
23.92 0 0
24 0 0
24.08 0 0
24.16 0 0
24.24 0 0
24.32 0 0
24.4 0 0
24.48 0 0
24.56 0 0
24.64 0 0
24.72 0 0
24.8 0 0
24.88 0 0
24.96 0 0
25.04 0 0
25.12 0 0
25.2 0 0
25.28 0 0
25.36 0 0
25.44 0 0
25.52 0 0
25.6 0 0
25.68 0 0
25.76 0 0
25.84 0 0
25.92 0 0
26 0 0
26.08 0 0
26.16 0 0
26.24 0 0
26.32 0 0
26.4 0 0
26.48 0 0
26.56 0 0
26.64 0 0
26.72 0 0
26.8 0 0
26.88 0 0
26.96 0 0
27.04 0 0
27.12 0 0
27.2 0 0
27.28 0 0
27.36 0 0
27.44 0 0
27.52 0 0
27.6 0 0
27.68 0 0
27.76 0 0
27.84 0 0
27.92 0 0
28 0 0
28.08 0 0
28.16 0 0
28.24 0 0
28.32 0 0
28.4 0 0
28.48 0 0
28.56 0 0
28.64 0 0
28.72 0 0
28.8 0 0
28.88 0 0
28.96 0 0
29.04 0 0
29.12 0 0
29.2 0 0
29.28 0 0
29.36 0 0
29.44 0 0
29.52 0 0
29.6 0 0
29.68 0 0
29.76 0 0
29.84 0 0
29.92 0 0
30 0 0
30.08 0 0
30.16 0 0
30.24 0 0
30.32 0 0
30.4 0 0
30.48 0 0
30.56 0 0
30.64 0 0
30.72 0 0
30.8 0 0
30.88 0 0
30.96 0 0
31.04 0 0
31.12 0 0
31.2 0 0
31.28 0 0
31.36 0 0
31.44 0 0
31.52 0 0
31.6 0 0
31.68 0 0
31.76 0 0
31.84 0 0
31.92 0 0
0 0.02 0
0.08 0.02 0
0.16 0.02 0
0.24 0.02 0
0.32 0.02 0
0.4 0.02 0
0.48 0.02 0
0.56 0.02 0
0.64 0.02 0
0.72 0.02 0
0.8 0.02 0
0.88 0.02 0
0.96 0.02 0
1.04 0.02 0
1.12 0.02 0
1.2 0.02 0
1.28 0.02 0
1.36 0.02 0
1.44 0.02 0
1.52 0.02 0
1.6 0.02 0
1.68 0.02 0
1.76 0.02 0
1.84 0.02 0
1.92 0.02 0
2 0.02 0
2.08 0.02 0
2.16 0.02 0
2.24 0.02 0
2.32 0.02 0
2.4 0.02 0
2.48 0.02 0
2.56 0.02 0
2.64 0.02 0
2.72 0.02 0
2.8 0.02 0
2.88 0.02 0
2.96 0.02 0
3.04 0.02 0
3.12 0.02 0
3.2 0.02 0
3.28 0.02 0
3.36 0.02 0
3.44 0.02 0
3.52 0.02 0
3.6 0.02 0
3.68 0.02 0
3.76 0.02 0
3.84 0.02 0
3.92 0.02 0
4 0.02 0
4.08 0.02 0
4.16 0.02 0
4.24 0.02 0
4.32 0.02 0
4.4 0.02 0
4.48 0.02 0
4.56 0.02 0
4.64 0.02 0
4.72 0.02 0
4.8 0.02 0
4.88 0.02 0
4.96 0.02 0
5.04 0.02 0
5.12 0.02 0
5.2 0.02 0
5.28 0.02 0
5.36 0.02 0
5.44 0.02 0
5.52 0.02 0
5.6 0.02 0
5.68 0.02 0
5.76 0.02 0
5.84 0.02 0
5.92 0.02 0
6 0.02 0
6.08 0.02 0
6.16 0.02 0
6.24 0.02 0
6.32 0.02 0
6.4 0.02 0
6.48 0.02 0
6.56 0.02 0
6.64 0.02 0
6.72 0.02 0
6.8 0.02 0
6.88 0.02 0
6.96 0.02 0
7.04 0.02 0
7.12 0.02 0
7.2 0.02 0
7.28 0.02 0
7.36 0.02 0
7.44 0.02 0
7.52 0.02 0
7.6 0.02 0
7.68 0.02 0
7.76 0.02 0
7.84 0.02 0
7.92 0.02 0
8 0.02 0
8.08 0.02 0
8.16 0.02 0
8.24 0.02 0
8.32 0.02 0
8.4 0.02 0
8.48 0.02 0
8.56 0.02 0
8.64 0.02 0
8.72 0.02 0
8.8 0.02 0
8.88 0.02 0
8.96 0.02 0
9.04 0.02 0
9.12 0.02 0
9.2 0.02 0
9.28 0.02 0
9.36 0.02 0
9.44 0.02 0
9.52 0.02 0
9.6 0.02 0
9.68 0.02 0
9.76 0.02 0
9.84 0.02 0
9.92 0.02 0
10 0.02 0
10.08 0.02 0
10.16 0.02 0
10.24 0.02 0
10.32 0.02 0
10.4 0.02 0
10.48 0.02 0
10.56 0.02 0
10.64 0.02 0
10.72 0.02 0
10.8 0.02 0
10.88 0.02 0
10.96 0.02 0
11.04 0.02 0
11.12 0.02 0
11.2 0.02 0
11.28 0.02 0
11.36 0.02 0
11.44 0.02 0
11.52 0.02 0
11.6 0.02 0
11.68 0.02 0
11.76 0.02 0
11.84 0.02 0
11.92 0.02 0
12 0.02 0
12.08 0.02 0
12.16 0.02 0
12.24 0.02 0
12.32 0.02 0
12.4 0.02 0
12.48 0.02 0
12.56 0.02 0
12.64 0.02 0
12.72 0.02 0
12.8 0.02 0
12.88 0.02 0
12.96 0.02 0
13.04 0.02 0
13.12 0.02 0
13.2 0.02 0
13.28 0.02 0
13.36 0.02 0
13.44 0.02 0
13.52 0.02 0
13.6 0.02 0
13.68 0.02 0
13.76 0.02 0
13.84 0.02 0
13.92 0.02 0
14 0.02 0
14.08 0.02 0
14.16 0.02 0
14.24 0.02 0
14.32 0.02 0
14.4 0.02 0
14.48 0.02 0
14.56 0.02 0
14.64 0.02 0
14.72 0.02 0
14.8 0.02 0
14.88 0.02 0
14.96 0.02 0
15.04 0.02 0
15.12 0.02 0
15.2 0.02 0
15.28 0.02 0
15.36 0.02 0
15.44 0.02 0
15.52 0.02 0
15.6 0.02 0
15.68 0.02 0
15.76 0.02 0
15.84 0.02 0
15.92 0.02 0
16 0.02 0
16.08 0.02 0
16.16 0.02 0
16.24 0.02 0
16.32 0.02 0
16.4 0.02 0
16.48 0.02 0
16.56 0.02 0
16.64 0.02 0
16.72 0.02 0
16.8 0.02 0
16.88 0.02 0
16.96 0.02 0
17.04 0.02 0
17.12 0.02 0
17.2 0.02 0
17.28 0.02 0
17.36 0.02 0
17.44 0.02 0
17.52 0.02 0
17.6 0.02 0
17.68 0.02 0
17.76 0.02 0
17.84 0.02 0
17.92 0.02 0
18 0.02 0
18.08 0.02 0
18.16 0.02 0
18.24 0.02 0
18.32 0.02 0
18.4 0.02 0
18.48 0.02 0
18.56 0.02 0
18.64 0.02 0
18.72 0.02 0
18.8 0.02 0
18.88 0.02 0
18.96 0.02 0
19.04 0.02 0
19.12 0.02 0
19.2 0.02 0
19.28 0.02 0
19.36 0.02 0
19.44 0.02 0
19.52 0.02 0
19.6 0.02 0
19.68 0.02 0
19.76 0.02 0
19.84 0.02 0
19.92 0.02 0
20 0.02 0
20.08 0.02 0
20.16 0.02 0
20.24 0.02 0
20.32 0.02 0
20.4 0.02 0
20.48 0.02 0
20.56 0.02 0
20.64 0.02 0
20.72 0.02 0
20.8 0.02 0
20.88 0.02 0
20.96 0.02 0
21.04 0.02 0
21.12 0.02 0
21.2 0.02 0
21.28 0.02 0
21.36 0.02 0
21.44 0.02 0
21.52 0.02 0
21.6 0.02 0
21.68 0.02 0
21.76 0.02 0
21.84 0.02 0
21.92 0.02 0
22 0.02 0
22.08 0.02 0
22.16 0.02 0
22.24 0.02 0
22.32 0.02 0
22.4 0.02 0
22.48 0.02 0
22.56 0.02 0
22.64 0.02 0
22.72 0.02 0
22.8 0.02 0
22.88 0.02 0
22.96 0.02 0
23.04 0.02 0
23.12 0.02 0
23.2 0.02 0
23.28 0.02 0
23.36 0.02 0
23.44 0.02 0
23.52 0.02 0
23.6 0.02 0
23.68 0.02 0
23.76 0.02 0
23.84 0.02 0
23.92 0.02 0
24 0.02 0
24.08 0.02 0
24.16 0.02 0
24.24 0.02 0
24.32 0.02 0
24.4 0.02 0
24.48 0.02 0
24.56 0.02 0
24.64 0.02 0
24.72 0.02 0
24.8 0.02 0
24.88 0.02 0
24.96 0.02 0
25.04 0.02 0
25.12 0.02 0
25.2 0.02 0
25.28 0.02 0
25.36 0.02 0
25.44 0.02 0
25.52 0.02 0
25.6 0.02 0
25.68 0.02 0
25.76 0.02 0
25.84 0.02 0
25.92 0.02 0
26 0.02 0
26.08 0.02 0
26.16 0.02 0
26.24 0.02 0
26.32 0.02 0
26.4 0.02 0
26.48 0.02 0
26.56 0.02 0
26.64 0.02 0
26.72 0.02 0
26.8 0.02 0
26.88 0.02 0
26.96 0.02 0
27.04 0.02 0
27.12 0.02 0
27.2 0.02 0
27.28 0.02 0
27.36 0.02 0
27.44 0.02 0
27.52 0.02 0
27.6 0.02 0
27.68 0.02 0
27.76 0.02 0
27.84 0.02 0
27.92 0.02 0
28 0.02 0
28.08 0.02 0
28.16 0.02 0
28.24 0.02 0
28.32 0.02 0
28.4 0.02 0
28.48 0.02 0
28.56 0.02 0
28.64 0.02 0
28.72 0.02 0
28.8 0.02 0
28.88 0.02 0
28.96 0.02 0
29.04 0.02 0
29.12 0.02 0
29.2 0.02 0
29.28 0.02 0
29.36 0.02 0
29.44 0.02 0
29.52 0.02 0
29.6 0.02 0
29.68 0.02 0
29.76 0.02 0
29.84 0.02 0
29.92 0.02 0
30 0.02 0
30.08 0.02 0
30.16 0.02 0
30.24 0.02 0
30.32 0.02 0
30.4 0.02 0
30.48 0.02 0
30.56 0.02 0
30.64 0.02 0
30.72 0.02 0
30.8 0.02 0
30.88 0.02 0
30.96 0.02 0
31.04 0.02 0
31.12 0.02 0
31.2 0.02 0
31.28 0.02 0
31.36 0.02 0
31.44 0.02 0
31.52 0.02 0
31.6 0.02 0
31.68 0.02 0
31.76 0.02 0
31.84 0.02 0
31.92 0.02 0
0 0.04 0
0.08 0.04 0
0.16 0.04 0
0.24 0.04 0
0.32 0.04 0
0.4 0.04 0
0.48 0.04 0
0.56 0.04 0
0.64 0.04 0
0.72 0.04 0
0.8 0.04 0
0.88 0.04 0
0.96 0.04 0
1.04 0.04 0
1.12 0.04 0
1.2 0.04 0
1.28 0.04 0
1.36 0.04 0
1.44 0.04 0
1.52 0.04 0
1.6 0.04 0
1.68 0.04 0
1.76 0.04 0
1.84 0.04 0
1.92 0.04 0
2 0.04 0
2.08 0.04 0
2.16 0.04 0
2.24 0.04 0
2.32 0.04 0
2.4 0.04 0
2.48 0.04 0
2.56 0.04 0
2.64 0.04 0
2.72 0.04 0
2.8 0.04 0
2.88 0.04 0
2.96 0.04 0
3.04 0.04 0
3.12 0.04 0
3.2 0.04 0
3.28 0.04 0
3.36 0.04 0
3.44 0.04 0
3.52 0.04 0
3.6 0.04 0
3.68 0.04 0
3.76 0.04 0
3.84 0.04 0
3.92 0.04 0
4 0.04 0
4.08 0.04 0
4.16 0.04 0
4.24 0.04 0
4.32 0.04 0
4.4 0.04 0
4.48 0.04 0
4.56 0.04 0
4.64 0.04 0
4.72 0.04 0
4.8 0.04 0
4.88 0.04 0
4.96 0.04 0
5.04 0.04 0
5.12 0.04 0
5.2 0.04 0
5.28 0.04 0
5.36 0.04 0
5.44 0.04 0
5.52 0.04 0
5.6 0.04 0
5.68 0.04 0
5.76 0.04 0
5.84 0.04 0
5.92 0.04 0
6 0.04 0
6.08 0.04 0
6.16 0.04 0
6.24 0.04 0
6.32 0.04 0
6.4 0.04 0
6.48 0.04 0
6.56 0.04 0
6.64 0.04 0
6.72 0.04 0
6.8 0.04 0
6.88 0.04 0
6.96 0.04 0
7.04 0.04 0
7.12 0.04 0
7.2 0.04 0
7.28 0.04 0
7.36 0.04 0
7.44 0.04 0
7.52 0.04 0
7.6 0.04 0
7.68 0.04 0
7.76 0.04 0
7.84 0.04 0
[...]
POINT_DATA 20000

SCALARS v float 1
LOOKUP_TABLE default
0
0
0
0
0
0
0
0
0
0
0
0
0
0
0
0
0
0
0
0
0
0
0
0
0
0
0
0
0
0
0
0
0
0
0
0
0
0
0
0
0
0
0
0
0
0
0
0
0
0
0
0
0
0
0
0
0
0
0
0
0
0
0
0
0
0
0
0
0
0
0
0
0
0
0
0
0
0
0
0
0
0
0
0
0
0
0
0
0
0
0
0
0
0
0
0
0
0
0
0
0
0
0
0
0
0
0
0
0
0
0
0
0
0
0
0
0
0
0
0
0
0
0
0
0
0
0
0
0
0
0
0
0
0
0
0
0
0
0
0
0
0
0
0
0
0
0
0
0
0
0
0
0
0
0
0
0
0
0
0
0
0
0
0
0
0
0
0
0
0
0
0
0
0
0
0
0
0
0
0
0
0
0
0
0
0
0
0
0
0
0
0
0
0
0
0
0
0
0
0
0
0
0
0
0
0
0
0
0
0
0
0
0
0
0
0
0
0
0
0
0
0
0
0
0
0
0
0
0
0
0
0
0
0
0
0
0
0
0
0
0
0
0
0
0
0
0
0
0
0
0
0
0
0
0
0
0
0
0
0
0
0
0
0
0
0
0
0
0
0
0
0
0
0
0
0
0
0
0
0
0
0
0
0
0
0
0
0
0
0
0
0
0
0
0
0
0
0
0
0
0
0
0
0
0
0
0
0
0
0
0
0
0
0
0
0
0
0
0
0
0
0
0
0
0
0
0
0
0
0
0
0
0
0
0
0
0
0
0
0
0
0
0
0
0
0
0
0
0
0
0
0
0
0
0
0
0
0
0
0
0
0
0
0
0
0
0
0
0
0
0
0
0
0
0
0
0
0
0
0
0
0
0
0
0
0
0
0
0
0
0
0
0
0
0
0
0
0
0
0
-0.123129
0.123129
0.0536814
0.0193208
0.00866571
0.00497672
0.0032733
0.00231177
0.00170755
0.00130664
0.00102885
0.000825054
0.000670218
0.000555613
0.000472863
0.000404484
0.000330249
0.000240816
0.000143607
5.55982e-05
-9.52333e-06
-4.9059e-05
-6.99767e-05
-8.24485e-05
-9.41242e-05
-0.000108003
-0.0001234
-0.000138075
-0.000150024
-0.000158309
-0.000163079
-0.000165148
-0.000165524
-0.000165076
-0.000164399
-0.000163812
-0.000163437
-0.000163277
-0.000163286
-0.000163404
-0.000163583
-0.000163788
-0.000163998
-0.000164202
-0.000164396
-0.000164578
-0.000164751
-0.000164915
-0.000165075
-0.00016523
-0.000165384
-0.000165537
-0.000165691
-0.000165845
-0.000166002
-0.000166161
-0.000166322
-0.000166486
-0.000166653
-0.000166822
-0.000166996
-0.000167172
-0.000167352
-0.000167535
-0.000167722
-0.000167911
-0.000168106
-0.000168303
-0.000168504
-0.000168709
-0.000168918
-0.000169131
-0.000169349
-0.00016957
-0.000169796
-0.000170026
-0.000170261
-0.0001705
-0.000170745
-0.000170994
-0.000171248
-0.000171508
-0.000171773
-0.000172043
-0.00017232
-0.000172601
-0.00017289
-0.000173184
-0.000173485
-0.000173792
-0.000174107
-0.000174428
-0.000174757
-0.000175092
-0.000175437
-0.000175788
-0.000176149
-0.000176517
-0.000176895
-0.000177282
-0.000177678
-0.000178084
-0.0001785
-0.000178926
-0.000179364
-0.000179812
-0.000180272
-0.000180744
-0.000181229
-0.000181725
-0.000182236
-0.00018276
-0.000183298
-0.000183851
-0.000184419
-0.000185002
-0.000185602
-0.000186218
-0.000186853
-0.000187504
-0.000188175
-0.000188864
-0.000189574
-0.000190304
-0.000191055
-0.000191828
-0.000192624
-0.000193443
-0.000194287
-0.000195155
-0.000196049
-0.00019697
-0.000197919
-0.000198895
-0.000199902
-0.000200939
-0.000202007
-0.000203107
-0.000204241
-0.000205409
-0.000206613
-0.000207853
-0.000209131
-0.000210448
-0.000211805
-0.000213203
-0.000214644
-0.000216128
-0.000217658
-0.000219234
-0.000220858
-0.000222531
-0.000224255
-0.00022603
-0.000227859
-0.000229743
-0.000231684
-0.000233682
-0.00023574
-0.000237859
-0.000240041
-0.000242287
-0.0002446
-0.000246979
-0.000249429
-0.00025195
-0.000254544
-0.000257212
-0.000259958
-0.000262781
-0.000265685
-0.00026867
-0.00027174
-0.000274895
-0.000278139
-0.000281472
-0.000284896
-0.000288414
-0.000292028
-0.000295738
-0.000299549
-0.00030346
-0.000307475
-0.000311595
-0.000315822
-0.000320158
-0.000324606
-0.000329167
-0.000333843
-0.000338635
-0.000343547
-0.000348579
-0.000353735
-0.000359014
-0.00036442
-0.000369954
-0.000375619
-0.000381415
-0.000387345
-0.00039341
-0.000399612
-0.000405952
-0.000412433
-0.000419055
-0.000425821
-0.000432731
-0.000439787
-0.00044699
-0.000454342
-0.000461844
-0.000469497
-0.000477301
-0.000485259
-0.00049337
-0.000501637
-0.000510059
-0.000518637
-0.000527372
-0.000536265
-0.000545315
-0.000554524
-0.000563891
-0.000573416
-0.0005831
-0.000592943
-0.000602944
-0.000613103
-0.000623419
-0.000633894
-0.000644524
-0.00065531
-0.000666251
-0.000677347
-0.000688594
-0.000699994
-0.000711544
-0.000723243
-0.000735089
-0.00074708
-0.000759215
-0.000771492
-0.000783908
-0.000796462
-0.00080915
-0.000821971
-0.00083492
-0.000847998
-0.000861199
-0.000874521
-0.00088796
-0.000901515
-0.000915179
-0.000928952
-0.000942828
-0.000956805
-0.000970876
-0.000985041
-0.000999292
-0.00101363
-0.00102804
-0.00104253
-0.00105709
-0.00107172
-0.0010864
-0.00110114
-0.00111593
-0.00113077
-0.00114565
-0.00116056
-0.00117551
-0.00119048
-0.00120546
-0.00122047
-0.00123548
-0.00125049
-0.0012655
-0.00128051
-0.0012955
-0.00131047
-0.00132541
-0.00134033
-0.00135521
-0.00137004
-0.00138483
-0.00139957
-0.00141425
-0.00142887
-0.00144341
-0.00145789
-0.00147228
-0.00148659
-0.0015008
-0.00151493
-0.00152895
-0.00154287
-0.00155667
-0.00157037
-0.00158394
-0.00159739
-0.00161072
-0.00162391
-0.00163697
-0.00164989
-0.00166266
-0.00167529
-0.00168777
-0.00170009
-0.00171226
-0.00172428
-0.00173613
-0.00174782
-0.00175934
-0.00177069
-0.00178188
-0.00179289
-0.00180374
-0.00181441
-0.0018249
-0.00183522
-0.00184537
-0.00185534
-0.00186513
-0.00187475
-0.0018842
-0.00189347
-0.00190257
-0.0019115
-0.00192025
-0.00192884
-0.00193726
-0.00194552
-0.00195361
-0.00196154
-0.00196931
-0.00197693
-0.00198439
-0.00199171
-0.00199888
-0.00200591
-0.0020128
-0.00201955
-0.00202617
-0.00203267
-0.00203905
-0.0020453
-0.00205145
-0.00205748
-0.00206341
-0.00206925
-0.00207499
-0.00208064
-0.0020862
-0.00209169
-0.0020971
-0.00210245
-0.00210773
-0.00211296
-0.00211813
-0.00212326
-0.00212834
-0.00213339
-0.00213841
-0.0021434
-0.00214837
-0.00215333
-0.00215827
-0.00216321
-0.00216815
-0.0021731
-0.00217805
-0.00218301
-0.002188
-0.002193
-0.00219803
-0.0022031
-0.00220819
-0.00221333
-0.0022185
-0.00222372
-0.00222898
-0.0022343
-0.00223967
-0.0022451
-0.00225059
-0.00225614
-0.00226175
-0.00226743
-0.00227318
-0.00227901
-0.00228505
-0.00229103
-0.00229801
-0.00230334
-0.00231355
-0.00231573
-0.00233577
-0.00233014
-0.00254215
-0.00217299
-0.00217299
-0.142061
0.142061
0.100877
0.0537624
0.0301141
0.0187964
0.0127977
0.00923607
0.00694586
0.00540541
0.0043285
0.00353793
0.00293984
0.0024909
0.00214778
0.00184596
0.00152597
0.00117115
0.000814385
0.000507947
0.00028539
0.000144996
5.9721e-05
-1.80086e-06
-6.0015e-05
-0.00012089
-0.000180651
-0.000232581
-0.000271875
-0.000297353
-0.000310912
-0.000315976
-0.000316086
-0.000314019
-0.000311548
-0.000309549
-0.000308303
-0.000307754
-0.000307726
-0.000308023
-0.000308494
-0.000309029
-0.000309569
-0.000310078
-0.000310551
-0.00031098
-0.000311376
-0.00031174
-0.000312085
-0.000312411
-0.000312729
-0.000313037
-0.000313345
-0.000313648
-0.000313955
-0.000314261
-0.000314573
-0.000314885
-0.000315204
-0.000315524
-0.000315852
-0.000316181
-0.000316518
-0.000316858
-0.000317204
-0.000317554
-0.000317911
-0.00031827
-0.000318638
-0.000319009
-0.000319387
-0.000319769
-0.000320159
-0.000320553
-0.000320954
-0.00032136
-0.000321774
-0.000322192
-0.000322619
-0.00032305
-0.000323491
-0.000323936
-0.000324391
-0.00032485
-0.00032532
-0.000325795
-0.00032628
-0.000326771
-0.000327273
-0.00032778
-0.000328299
-0.000328825
-0.000329362
-0.000329907
-0.000330463
-0.000331028
-0.000331605
-0.00033219
-0.000332789
-0.000333396
-0.000334018
-0.000334649
-0.000335295
-0.000335952
-0.000336624
-0.000337306
-0.000338006
-0.000338717
-0.000339445
-0.000340186
-0.000340946
-0.000341719
-0.000342511
-0.000343318
-0.000344145
-0.000344988
-0.000345852
-0.000346733
-0.000347637
-0.000348559
-0.000349505
-0.00035047
-0.000351461
-0.000352472
-0.00035351
-0.000354571
-0.000355659
-0.000356772
-0.000357914
-0.000359082
-0.000360282
-0.000361509
-0.000362769
-0.000364059
-0.000365384
-0.00036674
-0.000368134
-0.00036956
-0.000371027
-0.000372528
-0.000374071
-0.000375653
-0.000377278
-0.000378943
-0.000380655
-0.000382409
-0.000384213
-0.000386061
-0.000387962
-0.000389911
-0.000391914
-0.000393968
-0.00039608
-0.000398245
-0.000400471
-0.000402754
-0.000405101
-0.000407508
-0.000409982
-0.000412519
-0.000415127
-0.000417802
-0.00042055
-0.00042337
-0.000426266
-0.000429237
-0.000432288
-0.000435418
-0.000438632
-0.000441929
-0.000445314
-0.000448784
-0.000452347
-0.000456
-0.00045975
-0.000463593
-0.000467537
-0.000471578
-0.000475725
-0.000479974
-0.000484331
-0.000488795
-0.000493372
-0.000498059
-0.000502864
-0.000507783
-0.000512824
-0.000517984
-0.00052327
-0.000528678
-0.000534217
-0.000539883
-0.000545683
-0.000551614
-0.000557683
-0.000563887
-0.000570234
-0.00057672
-0.000583352
-0.000590127
-0.000597051
-0.000604122
-0.000611346
-0.000618721
-0.000626252
-0.000633937
-0.000641781
-0.000649782
-0.000657946
-0.00066627
-0.000674759
-0.00068341
-0.000692229
-0.000701213
-0.000710367
-0.000719687
-0.00072918
-0.000738841
-0.000748675
-0.000758679
-0.000768859
-0.000779208
-0.000789733
-0.00080043
-0.000811303
-0.000822346
-0.000833566
-0.000844958
-0.000856524
-0.000868261
-0.000880173
-0.000892254
-0.000904508
-0.00091693
-0.000929523
-0.000942281
-0.000955209
-0.000968299
-0.000981554
-0.00099497
-0.00100855
-0.00102228
-0.00103617
-0.00105021
-0.00106441
-0.00107875
-0.00109325
-0.00110788
-0.00112266
-0.00113757
-0.00115261
-0.00116779
-0.0011831
-0.00119852
-0.00121407
-0.00122974
-0.00124552
-0.0012614
-0.0012774
-0.00129348
-0.00130967
-0.00132595
-0.00134231
-0.00135875
-0.00137528
-0.00139187
-0.00140853
-0.00142525
-0.00144203
-0.00145885
-0.00147573
-0.00149264
-0.00150959
-0.00152656
-0.00154356
-0.00156058
-0.00157761
-0.00159464
-0.00161168
-0.00162871
-0.00164573
-0.00166273
-0.00167971
-0.00169666
-0.00171358
-0.00173045
-0.00174728
-0.00176406
-0.00178078
-0.00179744
-0.00181403
-0.00183054
-0.00184698
-0.00186332
-0.00187959
-0.00189575
-0.00191181
-0.00192777
-0.00194362
-0.00195935
-0.00197496
-0.00199045
-0.00200581
-0.00202104
-0.00203613
-0.00205108
-0.00206589
-0.00208054
-0.00209505
-0.0021094
-0.00212359
-0.00213762
-0.0021515
-0.0021652
-0.00217874
-0.0021921
-0.0022053
-0.00221832
-0.00223116
-0.00224383
-0.00225632
-0.00226864
-0.00228077
-0.00229273
-0.00230451
-0.00231611
-0.00232753
-0.00233877
-0.00234983
-0.00236072
-0.00237143
-0.00238197
-0.00239233
-0.00240252
-0.00241255
-0.0024224
-0.0024321
-0.00244162
-0.00245099
-0.0024602
-0.00246926
-0.00247817
-0.00248693
-0.00249554
-0.00250401
-0.00251235
-0.00252055
-0.00252862
-0.00253657
-0.00254439
-0.0025521
-0.00255969
-0.00256717
-0.00257455
-0.00258183
-0.00258902
-0.00259611
-0.00260312
-0.00261004
-0.00261689
-0.00262367
-0.00263037
-0.00263702
-0.0026436
-0.00265013
-0.00265661
-0.00266304
-0.00266943
-0.00267578
-0.0026821
-0.00268839
-0.00269465
-0.0027009
-0.00270712
-0.00271333
-0.00271952
-0.00272571
-0.0027319
-0.00273808
-0.00274426
-0.00275045
-0.00275665
-0.00276286
-0.00276908
-0.00277533
-0.00278161
-0.00278791
-0.00279429
-0.0028007
-0.00280752
-0.00281384
-0.00282291
-0.00282667
-0.00284546
-0.00283986
-0.00288995
-0.00286478
-0.00335872
-0.00259765
-0.00259765
-0.122151
0.122151
0.121529
0.0820832
0.0538261
0.036749
0.0262756
0.0195055
0.0149292
0.0117543
0.00949272
0.00781894
0.00654905
0.00558557
0.00482821
0.00414486
0.00342787
0.00266042
0.00191607
0.00129293
0.000843361
0.000551392
0.00035883
0.000206588
6.05878e-05
-8.54397e-05
-0.000221401
-0.000334239
-0.000416354
-0.000467723
-0.000493984
-0.000503085
-0.000502563
-0.00049804
-0.000492956
-0.000488938
-0.000486452
-0.000485338
-0.000485231
-0.000485739
-0.000486573
-0.000487522
-0.000488475
-0.000489366
-0.000490182
-0.000490912
-0.000491575
-0.000492175
-0.000492734
-0.000493254
-0.000493754
-0.000494234
-0.000494707
-0.00049517
-0.000495635
-0.000496095
-0.000496562
-0.000497026
-0.000497499
-0.000497972
-0.000498455
-0.000498938
-0.000499431
-0.000499924
-0.000500429
-0.000500934
-0.00050145
-0.000501967
-0.000502495
-0.000503025
-0.000503565
-0.000504108
-0.000504661
-0.000505217
-0.000505784
-0.000506353
-0.000506934
-0.000507518
-0.000508114
-0.000508712
-0.000509323
-0.000509938
-0.000510565
-0.000511195
-0.000511839
-0.000512487
-0.000513148
-0.000513814
-0.000514494
-0.000515179
-0.000515878
-0.000516583
-0.000517302
-0.000518028
-0.000518769
-0.000519517
-0.000520281
-0.000521052
-0.00052184
-0.000522636
-0.000523449
-0.000524271
-0.000525111
-0.000525961
-0.000526829
-0.000527707
-0.000528606
-0.000529515
-0.000530445
-0.000531387
-0.00053235
-0.000533326
-0.000534325
-0.000535338
-0.000536375
-0.000537427
-0.000538503
-0.000539596
-0.000540715
-0.000541851
-0.000543015
-0.000544198
-0.000545409
-0.00054664
-0.000547902
-0.000549186
-0.000550501
-0.00055184
-0.000553212
-0.000554609
-0.000556041
-0.0005575
-0.000558996
-0.000560521
-0.000562084
-0.000563679
-0.000565314
-0.000566982
-0.000568693
-0.000570439
-0.00057223
-0.000574059
-0.000575935
-0.000577851
-0.000579817
-0.000581825
-0.000583886
-0.000585992
-0.000588153
-0.000590362
-0.00059263
-0.000594947
-0.000597326
-0.000599759
-0.000602255
-0.000604809
-0.000607429
-0.00061011
-0.000612861
-0.000615675
-0.000618564
-0.000621519
-0.000624551
-0.000627654
-0.000630838
-0.000634096
-0.000637438
-0.000640859
-0.000644367
-0.000647958
-0.00065164
-0.000655408
-0.000659273
-0.000663227
-0.000667281
-0.000671429
-0.000675681
-0.000680031
-0.000684489
-0.000689049
-0.000693723
-0.000698502
-0.000703398
-0.000708404
-0.000713531
-0.000718773
-0.000724141
-0.000729627
-0.000735243
-0.000740981
-0.000746854
-0.000752853
-0.000758991
-0.000765259
-0.00077167
-0.000778216
-0.000784908
-0.000791739
-0.000798719
-0.000805843
-0.000813121
-0.000820544
-0.000828126
-0.000835857
-0.000843749
-0.000851794
-0.000860004
-0.000868369
-0.000876902
-0.000885594
-0.000894456
-0.00090348
-0.000912676
-0.000922036
-0.000931571
-0.000941272
-0.00095115
-0.000961196
-0.00097142
-0.000981813
-0.000992385
-0.00100313
-0.00101405
-0.00102514
-0.00103642
-0.00104786
-0.00105949
-0.00107129
-0.00108326
-0.00109541
-0.00110774
-0.00112023
-0.00113291
-0.00114575
-0.00115876
-0.00117195
-0.0011853
-0.00119882
-0.0012125
-0.00122635
-0.00124037
-0.00125453
-0.00126887
-0.00128335
-0.00129799
-0.00131278
-0.00132772
-0.0013428
-0.00135803
-0.00137339
-0.0013889
-0.00140453
-0.0014203
-0.00143619
-0.0014522
-0.00146833
-0.00148458
-0.00150093
-0.0015174
-0.00153396
-0.00155062
-0.00156738
-0.00158422
-0.00160114
-0.00161815
-0.00163522
-0.00165237
-0.00166958
-0.00168685
-0.00170416
-0.00172153
-0.00173893
-0.00175638
-0.00177385
-0.00179135
-0.00180886
-0.00182639
-0.00184393
-0.00186147
-0.001879
-0.00189652
-0.00191403
-0.00193152
-0.00194897
-0.00196639
-0.00198377
-0.00200111
-0.0020184
-0.00203563
-0.00205279
-0.00206989
-0.00208691
-0.00210385
-0.00212071
-0.00213747
-0.00215414
-0.00217071
-0.00218717
-0.00220353
-0.00221976
-0.00223588
-0.00225186
-0.00226772
-0.00228344
-0.00229903
-0.00231447
-0.00232977
-0.00234491
-0.00235991
-0.00237474
-0.00238941
-0.00240392
-0.00241827
-0.00243244
-0.00244645
-0.00246028
-0.00247393
-0.00248741
-0.00250071
-0.00251382
-0.00252676
-0.00253951
-0.00255208
-0.00256447
-0.00257667
-0.00258868
-0.00260052
-0.00261216
-0.00262363
-0.00263491
-0.00264601
-0.00265692
-0.00266766
-0.00267822
-0.0026886
-0.00269881
-0.00270884
-0.0027187
-0.0027284
-0.00273793
-0.0027473
-0.0027565
-0.00276555
-0.00277445
-0.00278319
-0.00279179
-0.00280025
-0.00280856
-0.00281674
-0.00282479
-0.00283271
-0.0028405
-0.00284818
-0.00285574
-0.00286319
-0.00287053
-0.00287777
-0.00288492
-0.00289197
-0.00289892
-0.0029058
-0.0029126
-0.00291932
-0.00292597
-0.00293255
-0.00293907
-0.00294554
-0.00295194
-0.00295831
-0.00296462
-0.00297089
-0.00297713
-0.00298333
-0.00298951
-0.00299566
-0.00300178
-0.00300789
-0.00301398
-0.00302006
-0.00302613
-0.0030322
-0.00303826
-0.00304434
-0.00305043
-0.00305654
-0.00306267
-0.00306885
-0.00307515
-0.00308146
-0.00308851
-0.00309444
-0.00310556
-0.00310636
-0.00313551
-0.00311861
-0.00320416
-0.003152
-0.00384581
-0.00282929
-0.00282929
-0.0942209
0.0942209
0.120887
0.096751
0.0715849
0.0530897
0.0401262
0.0309135
0.0242539
0.0194117
0.0158534
0.0131734
0.0111228
0.00955337
0.0082988
0.00714605
0.00593321
0.0046506
0.00342791
0.00242051
0.00169922
0.00122366
0.000892693
0.000612932
0.00033691
6.26435e-05
-0.000188125
-0.000392415
-0.000538762
-0.000629253
-0.000675265
-0.000691422
-0.000691037
-0.000683794
-0.000675513
-0.00066891
-0.00066476
-0.00066281
-0.000662472
-0.000663124
-0.0006643
-0.000665667
-0.000667048
-0.000668335
-0.000669505
-0.000670543
-0.000671473
-0.000672303
-0.000673065
-0.000673763
-0.000674426
-0.000675053
-0.000675665
-0.000676258
-0.000676849
-0.000677429
-0.000678014
-0.000678594
-0.000679181
-0.000679766
-0.00068036
-0.000680953
-0.000681556
-0.000682158
-0.000682772
-0.000683384
-0.000684008
-0.000684631
-0.000685266
-0.0006859
-0.000686547
-0.000687193
-0.000687852
-0.00068851
-0.000689181
-0.000689852
-0.000690537
-0.000691222
-0.00069192
-0.000692619
-0.000693331
-0.000694045
-0.000694773
-0.000695502
-0.000696246
-0.000696992
-0.000697753
-0.000698517
-0.000699295
-0.000700077
-0.000700875
-0.000701676
-0.000702493
-0.000703315
-0.000704153
-0.000704996
-0.000705857
-0.000706723
-0.000707607
-0.000708497
-0.000709407
-0.000710322
-0.000711258
-0.000712201
-0.000713164
-0.000714136
-0.000715129
-0.00071613
-0.000717155
-0.000718189
-0.000719246
-0.000720315
-0.000721407
-0.000722512
-0.000723642
-0.000724784
-0.000725954
-0.000727137
-0.000728349
-0.000729576
-0.000730831
-0.000732104
-0.000733407
-0.000734728
-0.000736081
-0.000737454
-0.00073886
-0.000740288
-0.00074175
-0.000743236
-0.000744758
-0.000746305
-0.00074789
-0.000749502
-0.000751154
-0.000752835
-0.000754559
-0.000756313
-0.000758111
-0.000759943
-0.000761821
-0.000763735
-0.000765697
-0.000767697
-0.000769749
-0.00077184
-0.000773986
-0.000776174
-0.00077842
-0.00078071
-0.00078306
-0.000785458
-0.000787919
-0.000790431
-0.000793009
-0.000795641
-0.000798341
-0.000801099
-0.000803929
-0.000806819
-0.000809785
-0.000812815
-0.000815924
-0.0008191
-0.000822358
-0.000825688
-0.000829104
-0.000832594
-0.000836175
-0.000839834
-0.000843586
-0.000847421
-0.000851354
-0.000855373
-0.000859493
-0.000863704
-0.000868021
-0.000872432
-0.000876953
-0.000881572
-0.000886305
-0.000891141
-0.000896095
-0.000901155
-0.000906338
-0.000911632
-0.000917052
-0.000922587
-0.000928253
-0.000934038
-0.000939958
-0.000946001
-0.000952183
-0.000958492
-0.000964944
-0.000971527
-0.000978257
-0.000985122
-0.000992137
-0.000999292
-0.0010066
-0.00101405
-0.00102166
-0.00102941
-0.00103733
-0.00104539
-0.00105362
-0.001062
-0.00107055
-0.00107925
-0.00108813
-0.00109716
-0.00110636
-0.00111572
-0.00112526
-0.00113496
-0.00114483
-0.00115487
-0.00116508
-0.00117546
-0.00118602
-0.00119675
-0.00120765
-0.00121872
-0.00122997
-0.00124138
-0.00125298
-0.00126474
-0.00127668
-0.00128879
-0.00130107
-0.00131352
-0.00132614
-0.00133892
-0.00135188
-0.001365
-0.00137829
-0.00139174
-0.00140536
-0.00141913
-0.00143307
-0.00144715
-0.0014614
-0.00147579
-0.00149034
-0.00150503
-0.00151987
-0.00153484
-0.00154996
-0.00156521
-0.0015806
-0.00159611
-0.00161175
-0.00162751
-0.00164339
-0.00165938
-0.00167548
-0.00169169
-0.001708
-0.0017244
-0.00174091
-0.00175749
-0.00177417
-0.00179091
-0.00180774
-0.00182463
-0.00184159
-0.0018586
-0.00187567
-0.00189278
-0.00190994
-0.00192713
-0.00194435
-0.0019616
-0.00197887
-0.00199615
-0.00201344
-0.00203073
-0.00204802
-0.0020653
-0.00208257
-0.00209981
-0.00211703
-0.00213421
-0.00215135
-0.00216845
-0.0021855
-0.00220249
-0.00221942
-0.00223628
-0.00225307
-0.00226978
-0.00228641
-0.00230294
-0.00231938
-0.00233571
-0.00235195
-0.00236807
-0.00238407
-0.00239996
-0.00241572
-0.00243134
-0.00244684
-0.00246219
-0.0024774
-0.00249247
-0.00250738
-0.00252214
-0.00253674
-0.00255118
-0.00256546
-0.00257956
-0.0025935
-0.00260727
-0.00262086
-0.00263427
-0.00264751
-0.00266056
-0.00267343
-0.00268611
-0.00269862
-0.00271093
-0.00272306
-0.002735
-0.00274676
-0.00275832
-0.0027697
-0.00278089
-0.0027919
-0.00280272
-0.00281336
-0.00282381
-0.00283408
-0.00284417
-0.00285408
-0.00286381
-0.00287338
-0.00288276
-0.00289198
-0.00290103
-0.00290992
-0.00291864
-0.00292721
-0.00293562
-0.00294389
-0.002952
-0.00295997
-0.0029678
-0.0029755
-0.00298306
-0.0029905
-0.0029978