# vtk DataFile Version 2.0
FlowField
ASCII
DATASET STRUCTURED_GRID
DIMENSIONS 400 1 50
POINTS 20000 float
0 0 0
0.08 0 0
0.16 0 0
0.24 0 0
0.32 0 0
0.4 0 0
0.48 0 0
0.56 0 0
0.64 0 0
0.72 0 0
0.8 0 0
0.88 0 0
0.96 0 0
1.04 0 0
1.12 0 0
1.2 0 0
1.28 0 0
1.36 0 0
1.44 0 0
1.52 0 0
1.6 0 0
1.68 0 0
1.76 0 0
1.84 0 0
1.92 0 0
2 0 0
2.08 0 0
2.16 0 0
2.24 0 0
2.32 0 0
2.4 0 0
2.48 0 0
2.56 0 0
2.64 0 0
2.72 0 0
2.8 0 0
2.88 0 0
2.96 0 0
3.04 0 0
3.12 0 0
3.2 0 0
3.28 0 0
3.36 0 0
3.44 0 0
3.52 0 0
3.6 0 0
3.68 0 0
3.76 0 0
3.84 0 0
3.92 0 0
4 0 0
4.08 0 0
4.16 0 0
4.24 0 0
4.32 0 0
4.4 0 0
4.48 0 0
4.56 0 0
4.64 0 0
4.72 0 0
4.8 0 0
4.88 0 0
4.96 0 0
5.04 0 0
5.12 0 0
5.2 0 0
5.28 0 0
5.36 0 0
5.44 0 0
5.52 0 0
5.6 0 0
5.68 0 0
5.76 0 0
5.84 0 0
5.92 0 0
6 0 0
6.08 0 0
6.16 0 0
6.24 0 0
6.32 0 0
6.4 0 0
6.48 0 0
6.56 0 0
6.64 0 0
6.72 0 0
6.8 0 0
6.88 0 0
6.96 0 0
7.04 0 0
7.12 0 0
7.2 0 0
7.28 0 0
7.36 0 0
7.44 0 0
7.52 0 0
7.6 0 0
7.68 0 0
7.76 0 0
7.84 0 0
7.92 0 0
8 0 0
8.08 0 0
8.16 0 0
8.24 0 0
8.32 0 0
8.4 0 0
8.48 0 0
8.56 0 0
8.64 0 0
8.72 0 0
8.8 0 0
8.88 0 0
8.96 0 0
9.04 0 0
9.12 0 0
9.2 0 0
9.28 0 0
9.36 0 0
9.44 0 0
9.52 0 0
9.6 0 0
9.68 0 0
9.76 0 0
9.84 0 0
9.92 0 0
10 0 0
10.08 0 0
10.16 0 0
10.24 0 0
10.32 0 0
10.4 0 0
10.48 0 0
10.56 0 0
10.64 0 0
10.72 0 0
10.8 0 0
10.88 0 0
10.96 0 0
11.04 0 0
11.12 0 0
11.2 0 0
11.28 0 0
11.36 0 0
11.44 0 0
11.52 0 0
11.6 0 0
11.68 0 0
11.76 0 0
11.84 0 0
11.92 0 0
12 0 0
12.08 0 0
12.16 0 0
12.24 0 0
12.32 0 0
12.4 0 0
12.48 0 0
12.56 0 0
12.64 0 0
12.72 0 0
12.8 0 0
12.88 0 0
12.96 0 0
13.04 0 0
13.12 0 0
13.2 0 0
13.28 0 0
13.36 0 0
13.44 0 0
13.52 0 0
13.6 0 0
13.68 0 0
13.76 0 0
13.84 0 0
13.92 0 0
14 0 0
14.08 0 0
14.16 0 0
14.24 0 0
14.32 0 0
14.4 0 0
14.48 0 0
14.56 0 0
14.64 0 0
14.72 0 0
14.8 0 0
14.88 0 0
14.96 0 0
15.04 0 0
15.12 0 0
15.2 0 0
15.28 0 0
15.36 0 0
15.44 0 0
15.52 0 0
15.6 0 0
15.68 0 0
15.76 0 0
15.84 0 0
15.92 0 0
16 0 0
16.08 0 0
16.16 0 0
16.24 0 0
16.32 0 0
16.4 0 0
16.48 0 0
16.56 0 0
16.64 0 0
16.72 0 0
16.8 0 0
16.88 0 0
16.96 0 0
17.04 0 0
17.12 0 0
17.2 0 0
17.28 0 0
17.36 0 0
17.44 0 0
17.52 0 0
17.6 0 0
17.68 0 0
17.76 0 0
17.84 0 0
17.92 0 0
18 0 0
18.08 0 0
18.16 0 0
18.24 0 0
18.32 0 0
18.4 0 0
18.48 0 0
18.56 0 0
18.64 0 0
18.72 0 0
18.8 0 0
18.88 0 0
18.96 0 0
19.04 0 0
19.12 0 0
19.2 0 0
19.28 0 0
19.36 0 0
19.44 0 0
19.52 0 0
19.6 0 0
19.68 0 0
19.76 0 0
19.84 0 0
19.92 0 0
20 0 0
20.08 0 0
20.16 0 0
20.24 0 0
20.32 0 0
20.4 0 0
20.48 0 0
20.56 0 0
20.64 0 0
20.72 0 0
20.8 0 0
20.88 0 0
20.96 0 0
21.04 0 0
21.12 0 0
21.2 0 0
21.28 0 0
21.36 0 0
21.44 0 0
21.52 0 0
21.6 0 0
21.68 0 0
21.76 0 0
21.84 0 0
21.92 0 0
22 0 0
22.08 0 0
22.16 0 0
22.24 0 0
22.32 0 0
22.4 0 0
22.48 0 0
22.56 0 0
22.64 0 0
22.72 0 0
22.8 0 0
22.88 0 0
22.96 0 0
23.04 0 0
23.12 0 0
23.2 0 0
23.28 0 0
23.36 0 0
23.44 0 0
23.52 0 0
23.6 0 0
23.68 0 0
23.76 0 0
23.84 0 0
23.92 0 0
24 0 0
24.08 0 0
24.16 0 0
24.24 0 0
24.32 0 0
24.4 0 0
24.48 0 0
24.56 0 0
24.64 0 0
24.72 0 0
24.8 0 0
24.88 0 0
24.96 0 0
25.04 0 0
25.12 0 0
25.2 0 0
25.28 0 0
25.36 0 0
25.44 0 0
25.52 0 0
25.6 0 0
25.68 0 0
25.76 0 0
25.84 0 0
25.92 0 0
26 0 0
26.08 0 0
26.16 0 0
26.24 0 0
26.32 0 0
26.4 0 0
26.48 0 0
26.56 0 0
26.64 0 0
26.72 0 0
26.8 0 0
26.88 0 0
26.96 0 0
27.04 0 0
27.12 0 0
27.2 0 0
27.28 0 0
27.36 0 0
27.44 0 0
27.52 0 0
27.6 0 0
27.68 0 0
27.76 0 0
27.84 0 0
27.92 0 0
28 0 0
28.08 0 0
28.16 0 0
28.24 0 0
28.32 0 0
28.4 0 0
28.48 0 0
28.56 0 0
28.64 0 0
28.72 0 0
28.8 0 0
28.88 0 0
28.96 0 0
29.04 0 0
29.12 0 0
29.2 0 0
29.28 0 0
29.36 0 0
29.44 0 0
29.52 0 0
29.6 0 0
29.68 0 0
29.76 0 0
29.84 0 0
29.92 0 0
30 0 0
30.08 0 0
30.16 0 0
30.24 0 0
30.32 0 0
30.4 0 0
30.48 0 0
30.56 0 0
30.64 0 0
30.72 0 0
30.8 0 0
30.88 0 0
30.96 0 0
31.04 0 0
31.12 0 0
31.2 0 0
31.28 0 0
31.36 0 0
31.44 0 0
31.52 0 0
31.6 0 0
31.68 0 0
31.76 0 0
31.84 0 0
31.92 0 0
0 0.02 0
0.08 0.02 0
0.16 0.02 0
0.24 0.02 0
0.32 0.02 0
0.4 0.02 0
0.48 0.02 0
0.56 0.02 0
0.64 0.02 0
0.72 0.02 0
0.8 0.02 0
0.88 0.02 0
0.96 0.02 0
1.04 0.02 0
1.12 0.02 0
1.2 0.02 0
1.28 0.02 0
1.36 0.02 0
1.44 0.02 0
1.52 0.02 0
1.6 0.02 0
1.68 0.02 0
1.76 0.02 0
1.84 0.02 0
1.92 0.02 0
2 0.02 0
2.08 0.02 0
2.16 0.02 0
2.24 0.02 0
2.32 0.02 0
2.4 0.02 0
2.48 0.02 0
2.56 0.02 0
2.64 0.02 0
2.72 0.02 0
2.8 0.02 0
2.88 0.02 0
2.96 0.02 0
3.04 0.02 0
3.12 0.02 0
3.2 0.02 0
3.28 0.02 0
3.36 0.02 0
3.44 0.02 0
3.52 0.02 0
3.6 0.02 0
3.68 0.02 0
3.76 0.02 0
3.84 0.02 0
3.92 0.02 0
4 0.02 0
4.08 0.02 0
4.16 0.02 0
4.24 0.02 0
4.32 0.02 0
4.4 0.02 0
4.48 0.02 0
4.56 0.02 0
4.64 0.02 0
4.72 0.02 0
4.8 0.02 0
4.88 0.02 0
4.96 0.02 0
5.04 0.02 0
5.12 0.02 0
5.2 0.02 0
5.28 0.02 0
5.36 0.02 0
5.44 0.02 0
5.52 0.02 0
5.6 0.02 0
5.68 0.02 0
5.76 0.02 0
5.84 0.02 0
5.92 0.02 0
6 0.02 0
6.08 0.02 0
6.16 0.02 0
6.24 0.02 0
6.32 0.02 0
6.4 0.02 0
6.48 0.02 0
6.56 0.02 0
6.64 0.02 0
6.72 0.02 0
6.8 0.02 0
6.88 0.02 0
6.96 0.02 0
7.04 0.02 0
7.12 0.02 0
7.2 0.02 0
7.28 0.02 0
7.36 0.02 0
7.44 0.02 0
7.52 0.02 0
7.6 0.02 0
7.68 0.02 0
7.76 0.02 0
7.84 0.02 0
7.92 0.02 0
8 0.02 0
8.08 0.02 0
8.16 0.02 0
8.24 0.02 0
8.32 0.02 0
8.4 0.02 0
8.48 0.02 0
8.56 0.02 0
8.64 0.02 0
8.72 0.02 0
8.8 0.02 0
8.88 0.02 0
8.96 0.02 0
9.04 0.02 0
9.12 0.02 0
9.2 0.02 0
9.28 0.02 0
9.36 0.02 0
9.44 0.02 0
9.52 0.02 0
9.6 0.02 0
9.68 0.02 0
9.76 0.02 0
9.84 0.02 0
9.92 0.02 0
10 0.02 0
10.08 0.02 0
10.16 0.02 0
10.24 0.02 0
10.32 0.02 0
10.4 0.02 0
10.48 0.02 0
10.56 0.02 0
10.64 0.02 0
10.72 0.02 0
10.8 0.02 0
10.88 0.02 0
10.96 0.02 0
11.04 0.02 0
11.12 0.02 0
11.2 0.02 0
11.28 0.02 0
11.36 0.02 0
11.44 0.02 0
11.52 0.02 0
11.6 0.02 0
11.68 0.02 0
11.76 0.02 0
11.84 0.02 0
11.92 0.02 0
12 0.02 0
12.08 0.02 0
12.16 0.02 0
12.24 0.02 0
12.32 0.02 0
12.4 0.02 0
12.48 0.02 0
12.56 0.02 0
12.64 0.02 0
12.72 0.02 0
12.8 0.02 0
12.88 0.02 0
12.96 0.02 0
13.04 0.02 0
13.12 0.02 0
13.2 0.02 0
13.28 0.02 0
13.36 0.02 0
13.44 0.02 0
13.52 0.02 0
13.6 0.02 0
13.68 0.02 0
13.76 0.02 0
13.84 0.02 0
13.92 0.02 0
14 0.02 0
14.08 0.02 0
14.16 0.02 0
14.24 0.02 0
14.32 0.02 0
14.4 0.02 0
14.48 0.02 0
14.56 0.02 0
14.64 0.02 0
14.72 0.02 0
14.8 0.02 0
14.88 0.02 0
14.96 0.02 0
15.04 0.02 0
15.12 0.02 0
15.2 0.02 0
15.28 0.02 0
15.36 0.02 0
15.44 0.02 0
15.52 0.02 0
15.6 0.02 0
15.68 0.02 0
15.76 0.02 0
15.84 0.02 0
15.92 0.02 0
16 0.02 0
16.08 0.02 0
16.16 0.02 0
16.24 0.02 0
16.32 0.02 0
16.4 0.02 0
16.48 0.02 0
16.56 0.02 0
16.64 0.02 0
16.72 0.02 0
16.8 0.02 0
16.88 0.02 0
16.96 0.02 0
17.04 0.02 0
17.12 0.02 0
17.2 0.02 0
17.28 0.02 0
17.36 0.02 0
17.44 0.02 0
17.52 0.02 0
17.6 0.02 0
17.68 0.02 0
17.76 0.02 0
17.84 0.02 0
17.92 0.02 0
18 0.02 0
18.08 0.02 0
18.16 0.02 0
18.24 0.02 0
18.32 0.02 0
18.4 0.02 0
18.48 0.02 0
18.56 0.02 0
18.64 0.02 0
18.72 0.02 0
18.8 0.02 0
18.88 0.02 0
18.96 0.02 0
19.04 0.02 0
19.12 0.02 0
19.2 0.02 0
19.28 0.02 0
19.36 0.02 0
19.44 0.02 0
19.52 0.02 0
19.6 0.02 0
19.68 0.02 0
19.76 0.02 0
19.84 0.02 0
19.92 0.02 0
20 0.02 0
20.08 0.02 0
20.16 0.02 0
20.24 0.02 0
20.32 0.02 0
20.4 0.02 0
20.48 0.02 0
20.56 0.02 0
20.64 0.02 0
20.72 0.02 0
20.8 0.02 0
20.88 0.02 0
20.96 0.02 0
21.04 0.02 0
21.12 0.02 0
21.2 0.02 0
21.28 0.02 0
21.36 0.02 0
21.44 0.02 0
21.52 0.02 0
21.6 0.02 0
21.68 0.02 0
21.76 0.02 0
21.84 0.02 0
21.92 0.02 0
22 0.02 0
22.08 0.02 0
22.16 0.02 0
22.24 0.02 0
22.32 0.02 0
22.4 0.02 0
22.48 0.02 0
22.56 0.02 0
22.64 0.02 0
22.72 0.02 0
22.8 0.02 0
22.88 0.02 0
22.96 0.02 0
23.04 0.02 0
23.12 0.02 0
23.2 0.02 0
23.28 0.02 0
23.36 0.02 0
23.44 0.02 0
23.52 0.02 0
23.6 0.02 0
23.68 0.02 0
23.76 0.02 0
23.84 0.02 0
23.92 0.02 0
24 0.02 0
24.08 0.02 0
24.16 0.02 0
24.24 0.02 0
24.32 0.02 0
24.4 0.02 0
24.48 0.02 0
24.56 0.02 0
24.64 0.02 0
24.72 0.02 0
24.8 0.02 0
24.88 0.02 0
24.96 0.02 0
25.04 0.02 0
25.12 0.02 0
25.2 0.02 0
25.28 0.02 0
25.36 0.02 0
25.44 0.02 0
25.52 0.02 0
25.6 0.02 0
25.68 0.02 0
25.76 0.02 0
25.84 0.02 0
25.92 0.02 0
26 0.02 0
26.08 0.02 0
26.16 0.02 0
26.24 0.02 0
26.32 0.02 0
26.4 0.02 0
26.48 0.02 0
26.56 0.02 0
26.64 0.02 0
26.72 0.02 0
26.8 0.02 0
26.88 0.02 0
26.96 0.02 0
27.04 0.02 0
27.12 0.02 0
27.2 0.02 0
27.28 0.02 0
27.36 0.02 0
27.44 0.02 0
27.52 0.02 0
27.6 0.02 0
27.68 0.02 0
27.76 0.02 0
27.84 0.02 0
27.92 0.02 0
28 0.02 0
28.08 0.02 0
28.16 0.02 0
28.24 0.02 0
28.32 0.02 0
28.4 0.02 0
28.48 0.02 0
28.56 0.02 0
28.64 0.02 0
28.72 0.02 0
28.8 0.02 0
28.88 0.02 0
28.96 0.02 0
29.04 0.02 0
29.12 0.02 0
29.2 0.02 0
29.28 0.02 0
29.36 0.02 0
29.44 0.02 0
29.52 0.02 0
29.6 0.02 0
29.68 0.02 0
29.76 0.02 0
29.84 0.02 0
29.92 0.02 0
30 0.02 0
30.08 0.02 0
30.16 0.02 0
30.24 0.02 0
30.32 0.02 0
30.4 0.02 0
30.48 0.02 0
30.56 0.02 0
30.64 0.02 0
30.72 0.02 0
30.8 0.02 0
30.88 0.02 0
30.96 0.02 0
31.04 0.02 0
31.12 0.02 0
31.2 0.02 0
31.28 0.02 0
31.36 0.02 0
31.44 0.02 0
31.52 0.02 0
31.6 0.02 0
31.68 0.02 0
31.76 0.02 0
31.84 0.02 0
31.92 0.02 0
0 0.04 0
0.08 0.04 0
0.16 0.04 0
0.24 0.04 0
0.32 0.04 0
0.4 0.04 0
0.48 0.04 0
0.56 0.04 0
0.64 0.04 0
0.72 0.04 0
0.8 0.04 0
0.88 0.04 0
0.96 0.04 0
1.04 0.04 0
1.12 0.04 0
1.2 0.04 0
1.28 0.04 0
1.36 0.04 0
1.44 0.04 0
1.52 0.04 0
1.6 0.04 0
1.68 0.04 0
1.76 0.04 0
1.84 0.04 0
1.92 0.04 0
2 0.04 0
2.08 0.04 0
2.16 0.04 0
2.24 0.04 0
2.32 0.04 0
2.4 0.04 0
2.48 0.04 0
2.56 0.04 0
2.64 0.04 0
2.72 0.04 0
2.8 0.04 0
2.88 0.04 0
2.96 0.04 0
3.04 0.04 0
3.12 0.04 0
3.2 0.04 0
3.28 0.04 0
3.36 0.04 0
3.44 0.04 0
3.52 0.04 0
3.6 0.04 0
3.68 0.04 0
3.76 0.04 0
3.84 0.04 0
3.92 0.04 0
4 0.04 0
4.08 0.04 0
4.16 0.04 0
4.24 0.04 0
4.32 0.04 0
4.4 0.04 0
4.48 0.04 0
4.56 0.04 0
4.64 0.04 0
4.72 0.04 0
4.8 0.04 0
4.88 0.04 0
4.96 0.04 0
5.04 0.04 0
5.12 0.04 0
5.2 0.04 0
5.28 0.04 0
5.36 0.04 0
5.44 0.04 0
5.52 0.04 0
5.6 0.04 0
5.68 0.04 0
5.76 0.04 0
5.84 0.04 0
5.92 0.04 0
6 0.04 0
6.08 0.04 0
6.16 0.04 0
6.24 0.04 0
6.32 0.04 0
6.4 0.04 0
6.48 0.04 0
6.56 0.04 0
6.64 0.04 0
6.72 0.04 0
6.8 0.04 0
6.88 0.04 0
6.96 0.04 0
7.04 0.04 0
7.12 0.04 0
7.2 0.04 0
7.28 0.04 0
7.36 0.04 0
7.44 0.04 0
7.52 0.04 0
7.6 0.04 0
7.68 0.04 0
7.76 0.04 0
7.84 0.04 0
[...]
POINT_DATA 20000

SCALARS v float 1
LOOKUP_TABLE default
0
0
0
0
0
0
0
0
0
0
0
0
0
0
0
0
0
0
0
0
0
0
0
0
0
0
0
0
0
0
0
0
0
0
0
0
0
0
0
0
0
0
0
0
0
0
0
0
0
0
0
0
0
0
0
0
0
0
0
0
0
0
0
0
0
0
0
0
0
0
0
0
0
0
0
0
0
0
0
0
0
0
0
0
0
0
0
0
0
0
0
0
0
0
0
0
0
0
0
0
0
0
0
0
0
0
0
0
0
0
0
0
0
0
0
0
0
0
0
0
0
0
0
0
0
0
0
0
0
0
0
0
0
0
0
0
0
0
0
0
0
0
0
0
0
0
0
0
0
0
0
0
0
0
0
0
0
0
0
0
0
0
0
0
0
0
0
0
0
0
0
0
0
0
0
0
0
0
0
0
0
0
0
0
0
0
0
0
0
0
0
0
0
0
0
0
0
0
0
0
0
0
0
0
0
0
0
0
0
0
0
0
0
0
0
0
0
0
0
0
0
0
0
0
0
0
0
0
0
0
0
0
0
0
0
0
0
0
0
0
0
0
0
0
0
0
0
0
0
0
0
0
0
0
0
0
0
0
0
0
0
0
0
0
0
0
0
0
0
0
0
0
0
0
0
0
0
0
0
0
0
0
0
0
0
0
0
0
0
0
0
0
0
0
0
0
0
0
0
0
0
0
0
0
0
0
0
0
0
0
0
0
0
0
0
0
0
0
0
0
0
0
0
0
0
0
0
0
0
0
0
0
0
0
0
0
0
0
0
0
0
0
0
0
0
0
0
0
0
0
0
0
0
0
0
0
0
0
0
0
0
0
0
0
0
0
0
0
0
0
0
0
0
0
0
0
0
0
0
0
0
0
0
0
0
0
0
0
0
0
0
0
0
0
0
0
0
0
0
0
-0.123225
0.123225
0.0537892
0.0194362
0.00878031
0.00508685
0.00338485
0.00243437
0.00184453
0.0014533
0.00118103
0.000984224
0.000837354
0.000724654
0.00063601
0.000564738
0.000506309
0.000457587
0.000416355
0.000381017
0.000350399
0.000323621
0.000300014
0.000279058
0.000260343
0.000243541
0.000228385
0.000214656
0.000202173
0.000190784
0.000180359
0.000170788
0.000161978
0.000153847
0.000146326
0.000139351
0.00013287
0.000126836
0.000121206
0.000115945
0.000111018
0.000106399
0.00010206
9.79791e-05
9.4135e-05
9.0509e-05
8.7084e-05
8.38447e-05
8.07771e-05
7.78687e-05
7.51083e-05
7.24856e-05
6.99911e-05
6.76162e-05
6.53528e-05
6.31934e-05
6.1131e-05
5.91593e-05
5.72728e-05
5.54662e-05
5.37351e-05
5.20752e-05
5.04826e-05
4.89534e-05
4.7484e-05
4.60708e-05
4.47105e-05
4.34002e-05
4.21373e-05
4.09195e-05
3.97449e-05
3.86116e-05
3.75176e-05
3.64608e-05
3.54388e-05
3.44497e-05
3.34914e-05
3.25626e-05
3.1662e-05
3.0789e-05
2.99429e-05
2.91229e-05
2.83282e-05
2.75574e-05
2.68093e-05
2.60823e-05
2.53753e-05
2.46874e-05
2.40183e-05
2.3368e-05
2.27365e-05
2.21235e-05
2.15279e-05
2.09483e-05
2.03833e-05
1.98319e-05
1.92934e-05
1.87679e-05
1.82555e-05
1.77564e-05
1.72708e-05
1.6799e-05
1.63407e-05
1.5895e-05
1.54604e-05
1.50353e-05
1.46186e-05
1.42104e-05
1.38122e-05
1.34254e-05
1.30508e-05
1.26876e-05
1.23337e-05
1.1987e-05
1.16462e-05
1.13113e-05
1.09831e-05
1.06624e-05
1.03494e-05
1.00441e-05
9.74702e-06
9.45866e-06
9.1792e-06
8.9076e-06
8.64153e-06
8.37838e-06
8.11695e-06
7.85848e-06
7.6062e-06
7.36338e-06
7.13115e-06
6.9076e-06
6.68877e-06
6.47091e-06
6.25256e-06
6.03495e-06
5.82088e-06
5.61287e-06
5.41196e-06
5.21782e-06
5.02963e-06
4.84682e-06
4.66895e-06
4.495e-06
4.32307e-06
4.15116e-06
3.97865e-06
3.80739e-06
3.64125e-06
3.48409e-06
3.33717e-06
3.19785e-06
3.06062e-06
2.92003e-06
2.77371e-06
2.62356e-06
2.4745e-06
2.33151e-06
2.19699e-06
2.06984e-06
1.94672e-06
1.8241e-06
1.69976e-06
1.57298e-06
1.44362e-06
1.31161e-06
1.17717e-06
1.0418e-06
9.08779e-07
7.81989e-07
6.63511e-07
5.51272e-07
4.38769e-07
3.17737e-07
1.82719e-07
3.49386e-08
-1.17166e-07
-2.6162e-07
-3.89163e-07
-4.98622e-07
-5.98188e-07
-7.0153e-07
-8.20635e-07
-9.5924e-07
-1.11051e-06
-1.26034e-06
-1.39455e-06
-1.50612e-06
-1.59869e-06
-1.68442e-06
-1.77765e-06
-1.88759e-06
-2.01397e-06
-2.14759e-06
-2.27522e-06
-2.38626e-06
-2.47751e-06
-2.55414e-06
-2.62649e-06
-2.70473e-06
-2.79411e-06
-2.89296e-06
-2.99416e-06
-3.08892e-06
-3.17095e-06
-3.23891e-06
-3.29646e-06
-3.34996e-06
-3.40532e-06
-3.46548e-06
-3.52958e-06
-3.59384e-06
-3.65366e-06
-3.70568e-06
-3.74906e-06
-3.78546e-06
-3.81796e-06
-3.8496e-06
-3.88215e-06
-3.91564e-06
-3.94864e-06
-3.97917e-06
-4.00562e-06
-4.02738e-06
-4.04501e-06
-4.05982e-06
-4.07335e-06
-4.08673e-06
-4.10038e-06
-4.11398e-06
-4.12677e-06
-4.13786e-06
-4.14668e-06
-4.15308e-06
-4.15739e-06
-4.16026e-06
-4.16239e-06
-4.16435e-06
-4.16647e-06
-4.16878e-06
-4.1711e-06
-4.17317e-06
-4.17474e-06
-4.17569e-06
-4.17601e-06
-4.17583e-06
-4.17535e-06
-4.17475e-06
-4.17419e-06
-4.17376e-06
-4.17348e-06
-4.1733e-06
-4.17316e-06
-4.173e-06
-4.17276e-06
-4.17244e-06
-4.17203e-06
-4.17155e-06
-4.17105e-06
-4.17054e-06
-4.17006e-06
-4.1696e-06
-4.16917e-06
-4.16876e-06
-4.16836e-06
-4.16797e-06
-4.16756e-06
-4.16715e-06
-4.16672e-06
-4.16629e-06
-4.16584e-06
-4.1654e-06
-4.16495e-06
-4.16451e-06
-4.16406e-06
-4.16363e-06
-4.16319e-06
-4.16275e-06
-4.16232e-06
-4.16188e-06
-4.16144e-06
-4.161e-06
-4.16056e-06
-4.16012e-06
-4.15968e-06
-4.15923e-06
-4.15879e-06
-4.15835e-06
-4.15791e-06
-4.15746e-06
-4.15702e-06
-4.15658e-06
-4.15614e-06
-4.1557e-06
-4.15526e-06
-4.15482e-06
-4.15438e-06
-4.15394e-06
-4.1535e-06
-4.15306e-06
-4.15262e-06
-4.15219e-06
-4.15175e-06
-4.15132e-06
-4.15088e-06
-4.15045e-06
-4.15002e-06
-4.14959e-06
-4.14916e-06
-4.14873e-06
-4.14831e-06
-4.14788e-06
-4.14746e-06
-4.14704e-06
-4.14661e-06
-4.1462e-06
-4.14578e-06
-4.14537e-06
-4.14495e-06
-4.14454e-06
-4.14413e-06
-4.14373e-06
-4.14331e-06
-4.14292e-06
-4.14251e-06
-4.14212e-06
-4.14171e-06
-4.14133e-06
-4.14092e-06
-4.14056e-06
-4.14014e-06
-4.13979e-06
-4.13938e-06
-4.13904e-06
-4.13862e-06
-4.1383e-06
-4.13787e-06
-4.13758e-06
-4.13714e-06
-4.13687e-06
-4.13641e-06
-4.13618e-06
-4.13569e-06
-4.1355e-06
-4.13499e-06
-4.13485e-06
-4.1343e-06
-4.13423e-06
-4.13361e-06
-4.13364e-06
-4.13293e-06
-4.13308e-06
-4.13227e-06
-4.13256e-06
-4.1316e-06
-4.13209e-06
-4.13095e-06
-4.13168e-06
-4.13029e-06
-4.13135e-06
-4.12963e-06
-4.13111e-06
-4.12897e-06
-4.13099e-06
-4.12829e-06
-4.13103e-06
-4.12759e-06
-4.13127e-06
-4.12686e-06
-4.13177e-06
-4.12608e-06
-4.1326e-06
-4.12524e-06
-4.13387e-06
-4.12434e-06
-4.1357e-06
-4.12336e-06
-4.13823e-06
-4.1223e-06
-4.14167e-06
-4.12116e-06
-4.14622e-06
-4.11998e-06
-4.15212e-06
-4.11879e-06
-4.15953e-06
-4.11765e-06
-4.16831e-06
-4.11664e-06
-4.17717e-06
-4.11619e-06
-4.18087e-06
-4.11804e-06
-4.16077e-06
-4.12827e-06
-4.04312e-06
-4.15848e-06
-3.28458e-06
-3.70365e-06
-3.70365e-06
-0.14215
0.14215
0.101001
0.0539098
0.0302531
0.0189149
0.0129242
0.00940954
0.00717656
0.00567362
0.00461709
0.00384806
0.00327154
0.00282801
0.00247881
0.00219812
0.00196828
0.00177696
0.0016154
0.00147724
0.00135779
0.00125355
0.00116183
0.00108054
0.00100806
0.00094308
0.000884532
0.000831552
0.000783422
0.000739541
0.000699402
0.000662576
0.000628693
0.000597437
0.000568533
0.000541743
0.000516857
0.000493692
0.000472087
0.0004519
0.000433005
0.000415291
0.000398657
0.000383014
0.000368282
0.000354388
0.000341266
0.000328857
0.000317109
0.000305971
0.000295402
0.000285361
0.000275812
0.000266722
0.000258059
0.000249795
0.000241904
0.000234361
0.000227145
0.000220237
0.000213618
0.000207272
0.000201185
0.00019534
0.000189723
0.000184322
0.000179123
0.000174117
0.000169293
0.000164642
0.000160156
0.000155828
0.000151649
0.000147612
0.000143709
0.000139931
0.000136272
0.000132727
0.000129292
0.000125963
0.000122737
0.000119611
0.00011658
0.000113641
0.000110787
0.000108015
0.000105319
0.000102698
0.00010015
9.76738e-05
9.52691e-05
9.29334e-05
9.06628e-05
8.84526e-05
8.62984e-05
8.41971e-05
8.21472e-05
8.01485e-05
7.82011e-05
7.63054e-05
7.44615e-05
7.26689e-05
7.0926e-05
6.92293e-05
6.75741e-05
6.59557e-05
6.4372e-05
6.28241e-05
6.13157e-05
5.98504e-05
5.84287e-05
5.70467e-05
5.56982e-05
5.43772e-05
5.30809e-05
5.181e-05
5.05668e-05
4.93529e-05
4.81689e-05
4.70151e-05
4.58919e-05
4.48003e-05
4.37395e-05
4.27052e-05
4.16904e-05
4.06888e-05
3.96988e-05
3.87256e-05
3.77783e-05
3.68645e-05
3.59845e-05
3.51308e-05
3.42919e-05
3.34585e-05
3.26287e-05
3.18076e-05
3.10034e-05
3.02224e-05
2.94663e-05
2.87333e-05
2.80207e-05
2.73264e-05
2.66483e-05
2.5983e-05
2.53252e-05
2.46704e-05
2.4019e-05
2.33778e-05
2.27577e-05
2.21672e-05
2.16064e-05
2.10648e-05
2.05263e-05
1.99775e-05
1.94154e-05
1.8848e-05
1.829e-05
1.77537e-05
1.72428e-05
1.67516e-05
1.62695e-05
1.57865e-05
1.52972e-05
1.48004e-05
1.42962e-05
1.37853e-05
1.32697e-05
1.27551e-05
1.22508e-05
1.17658e-05
1.13019e-05
1.08495e-05
1.03884e-05
9.89792e-06
9.36878e-06
8.81126e-06
8.25305e-06
7.72631e-06
7.25049e-06
6.82043e-06
6.40742e-06
5.97343e-06
5.49138e-06
4.9604e-06
4.40746e-06
3.87403e-06
3.39506e-06
2.98115e-06
2.61363e-06
2.25472e-06
1.86713e-06
1.43279e-06
9.61134e-07
4.83301e-07
3.59579e-08
-3.56541e-07
-6.92784e-07
-9.93068e-07
-1.28791e-06
-1.60271e-06
-1.94632e-06
-2.30839e-06
-2.66604e-06
-2.99546e-06
-3.28273e-06
-3.52881e-06
-3.7473e-06
-3.95681e-06
-4.17214e-06
-4.39836e-06
-4.63002e-06
-4.85501e-06
-5.06082e-06
-5.23997e-06
-5.39255e-06
-5.52505e-06
-5.64682e-06
-5.76582e-06
-5.88572e-06
-6.00521e-06
-6.11956e-06
-6.22326e-06
-6.31259e-06
-6.38698e-06
-6.44898e-06
-6.50287e-06
-6.55292e-06
-6.60189e-06
-6.65034e-06
-6.6969e-06
-6.7392e-06
-6.775e-06
-6.80308e-06
-6.82362e-06
-6.83805e-06
-6.84845e-06
-6.8569e-06
-6.86493e-06
-6.87324e-06
-6.88172e-06
-6.88978e-06
-6.89663e-06
-6.9017e-06
-6.90475e-06
-6.90595e-06
-6.90579e-06
-6.90487e-06
-6.90377e-06
-6.90289e-06
-6.90241e-06
-6.90233e-06
-6.9025e-06
-6.90272e-06
-6.9028e-06
-6.90264e-06
-6.90221e-06
-6.90153e-06
-6.90069e-06
-6.8998e-06
-6.89893e-06
-6.89813e-06
-6.89743e-06
-6.89682e-06
-6.89627e-06
-6.89574e-06
-6.89521e-06
-6.89465e-06
-6.89406e-06
-6.89343e-06
-6.89278e-06
-6.89211e-06
-6.89145e-06
-6.89079e-06
-6.89014e-06
-6.8895e-06
-6.88887e-06
-6.88825e-06
-6.88764e-06
-6.88702e-06
-6.8864e-06
-6.88578e-06
-6.88516e-06
-6.88453e-06
-6.88391e-06
-6.88328e-06
-6.88265e-06
-6.88203e-06
-6.88141e-06
-6.88079e-06
-6.88017e-06
-6.87955e-06
-6.87894e-06
-6.87833e-06
-6.87772e-06
-6.87711e-06
-6.87651e-06
-6.8759e-06
-6.8753e-06
-6.8747e-06
-6.87411e-06
-6.87351e-06
-6.87292e-06
-6.87233e-06
-6.87174e-06
-6.87115e-06
-6.87057e-06
-6.86999e-06
-6.86942e-06
-6.86884e-06
-6.86828e-06
-6.8677e-06
-6.86715e-06
-6.86658e-06
-6.86603e-06
-6.86547e-06
-6.86493e-06
-6.86437e-06
-6.86384e-06
-6.86329e-06
-6.86277e-06
-6.86222e-06
-6.86172e-06
-6.86116e-06
-6.86068e-06
-6.86013e-06
-6.85966e-06
-6.8591e-06
-6.85866e-06
-6.8581e-06
-6.85768e-06
-6.85711e-06
-6.85673e-06
-6.85614e-06
-6.8558e-06
-6.85518e-06
-6.85489e-06
-6.85424e-06
-6.85401e-06
-6.85332e-06
-6.85317e-06
-6.85241e-06
-6.85236e-06
-6.85152e-06
-6.8516e-06
-6.85063e-06
-6.85088e-06
-6.84976e-06
-6.85023e-06
-6.8489e-06
-6.84964e-06
-6.84804e-06
-6.84915e-06
-6.84719e-06
-6.84876e-06
-6.84633e-06
-6.84851e-06
-6.84546e-06
-6.84843e-06
-6.84457e-06
-6.84858e-06
-6.84365e-06
-6.849e-06
-6.84269e-06
-6.8498e-06
-6.84168e-06
-6.85109e-06
-6.84057e-06
-6.85301e-06
-6.83936e-06
-6.85577e-06
-6.83801e-06
-6.85962e-06
-6.83648e-06
-6.86489e-06
-6.83477e-06
-6.87199e-06
-6.83285e-06
-6.88146e-06
-6.83076e-06
-6.89393e-06
-6.82855e-06
-6.91016e-06
-6.82634e-06
-6.93098e-06
-6.82429e-06
-6.95705e-06
-6.82253e-06
-6.98809e-06
-6.82127e-06
-7.02021e-06
-6.82129e-06
-7.03722e-06
-6.82634e-06
-6.9813e-06
-6.84888e-06
-6.62839e-06
-6.89466e-06
-4.52784e-06
-5.62963e-06
-5.62963e-06
-0.122224
0.122224
0.12166
0.0822646
0.0539914
0.0368605
0.0263895
0.0197126
0.0152618
0.0121763
0.00996449
0.00833267
0.00709765
0.0061412
0.00538481
0.00477509
0.00427504
0.00385849
0.00350669
0.00320592
0.00294602
0.00271934
0.00252
0.00234346
0.00218612
0.00204512
0.00191814
0.00180327
0.00169895
0.00160387
0.0015169
0.00143713
0.00136375
0.00129606
0.00123346
0.00117545
0.00112157
0.00107142
0.00102464
0.00098094
0.000940037
0.000901691
0.000865685
0.000831825
0.000799937
0.000769863
0.000741461
0.000714604
0.000689176
0.000665071
0.000642197
0.000620466
0.0005998
0.000580127
0.000561379
0.000543494
0.000526417
0.000510095
0.000494482
0.000479535
0.000465217
0.00045149
0.00043832
0.000425676
0.000413526
0.000401843
0.000390599
0.000379771
0.000369337
0.000359279
0.000349579
0.000340219
0.000331183
0.000322452
0.000314009
0.00030584
0.00029793
0.000290267
0.000282844
0.000275652
0.000268683
0.000261929
0.000255381
0.00024903
0.000242864
0.000236874
0.000231051
0.000225391
0.000219889
0.000214544
0.000209352
0.000204308
0.000199403
0.000194628
0.000189975
0.000185438
0.000181015
0.000176705
0.000172507
0.000168421
0.000164447
0.000160582
0.000156823
0.000153162
0.000149591
0.0001461
0.000142688
0.000139356
0.00013611
0.000132956
0.000129892
0.000126911
0.000124001
0.000121151
0.000118358
0.000115623
0.00011295
0.000110341
0.000107797
0.000105319
0.000102905
0.000100558
9.8273e-05
9.60429e-05
9.38547e-05
9.16983e-05
8.95726e-05
8.74878e-05
8.54597e-05
8.34993e-05
8.16048e-05
7.97609e-05
7.79472e-05
7.61491e-05
7.43652e-05
7.26059e-05
7.08859e-05
6.92152e-05
6.75952e-05
6.60219e-05
6.44897e-05
6.29944e-05
6.15318e-05
6.00953e-05
5.86759e-05
5.72674e-05
5.58718e-05
5.45025e-05
5.31778e-05
5.19101e-05
5.06957e-05
4.95139e-05
4.83363e-05
4.71418e-05
4.59281e-05
4.47122e-05
4.35198e-05
4.23703e-05
4.1267e-05
4.0197e-05
3.91405e-05
3.80803e-05
3.7008e-05
3.59219e-05
3.48237e-05
3.37151e-05
3.2601e-05
3.1492e-05
3.04039e-05
2.93501e-05
2.83301e-05
2.73235e-05
2.6295e-05
2.52113e-05
2.40625e-05
2.28729e-05
2.16937e-05
2.05787e-05
1.9555e-05
1.86058e-05
1.76763e-05
1.67018e-05
1.56425e-05
1.45063e-05
1.33471e-05
1.22382e-05
1.12348e-05
1.03464e-05
9.53254e-06
8.72471e-06
7.86181e-06
6.92058e-06
5.92592e-06
4.93669e-06
4.01561e-06
3.19913e-06
2.48219e-06
1.82402e-06
1.17061e-06
4.81397e-07
-2.52861e-07
-1.00861e-06
-1.74346e-06
-2.41725e-06
-3.00982e-06
-3.52761e-06
-3.9975e-06
-4.45235e-06
-4.91588e-06
-5.39356e-06
-5.87293e-06
-6.33161e-06
-6.74852e-06
-7.11285e-06
-7.4273e-06
-7.70512e-06
-7.9632e-06
-8.21478e-06
-8.4649e-06
-8.70998e-06
-8.94111e-06
-9.14894e-06
-9.32792e-06
-9.47835e-06
-9.60569e-06
-9.71799e-06
-9.82264e-06
-9.92395e-06
-1.00223e-05
-1.01149e-05
-1.01976e-05
-1.02666e-05
-1.03206e-05
-1.03604e-05
-1.03891e-05
-1.04106e-05
-1.04288e-05
-1.04461e-05
-1.04635e-05
-1.04807e-05
-1.04966e-05
-1.05097e-05
-1.05193e-05
-1.0525e-05
-1.05274e-05
-1.05275e-05
-1.05263e-05
-1.0525e-05
-1.05242e-05
-1.05241e-05
-1.05247e-05
-1.05256e-05
-1.05266e-05
-1.05272e-05
-1.05274e-05
-1.0527e-05
-1.05262e-05
-1.05252e-05
-1.05241e-05
-1.05231e-05
-1.05222e-05
-1.05215e-05
-1.05209e-05
-1.05205e-05
-1.05201e-05
-1.05196e-05
-1.05192e-05
-1.05186e-05
-1.0518e-05
-1.05173e-05
-1.05167e-05
-1.0516e-05
-1.05153e-05
-1.05147e-05
-1.05141e-05
-1.05135e-05
-1.05129e-05
-1.05123e-05
-1.05117e-05
-1.05111e-05
-1.05105e-05
-1.05099e-05
-1.05093e-05
-1.05087e-05
-1.05081e-05
-1.05075e-05
-1.05069e-05
-1.05063e-05
-1.05057e-05
-1.05051e-05
-1.05045e-05
-1.05039e-05
-1.05033e-05
-1.05027e-05
-1.05021e-05
-1.05015e-05
-1.0501e-05
-1.05004e-05
-1.04998e-05
-1.04992e-05
-1.04987e-05
-1.04981e-05
-1.04975e-05
-1.0497e-05
-1.04964e-05
-1.04958e-05
-1.04953e-05
-1.04947e-05
-1.04942e-05
-1.04937e-05
-1.04931e-05
-1.04926e-05
-1.0492e-05
-1.04915e-05
-1.0491e-05
-1.04905e-05
-1.04899e-05
-1.04894e-05
-1.04889e-05
-1.04884e-05
-1.04879e-05
-1.04874e-05
-1.04869e-05
-1.04865e-05
-1.04859e-05
-1.04855e-05
-1.04849e-05
-1.04846e-05
-1.0484e-05
-1.04837e-05
-1.04831e-05
-1.04828e-05
-1.04821e-05
-1.0482e-05
-1.04812e-05
-1.04812e-05
-1.04803e-05
-1.04804e-05
-1.04795e-05
-1.04796e-05
-1.04786e-05
-1.0479e-05
-1.04777e-05
-1.04784e-05
-1.04769e-05
-1.04778e-05
-1.0476e-05
-1.04774e-05
-1.04752e-05
-1.04771e-05
-1.04743e-05
-1.04769e-05
-1.04734e-05
-1.04769e-05
-1.04725e-05
-1.04772e-05
-1.04715e-05
-1.04778e-05
-1.04705e-05
-1.04788e-05
-1.04694e-05
-1.04803e-05
-1.04682e-05
-1.04826e-05
-1.04668e-05
-1.04858e-05
-1.04653e-05
-1.04903e-05
-1.04635e-05
-1.04964e-05
-1.04615e-05
-1.05046e-05
-1.04591e-05
-1.05157e-05
-1.04564e-05
-1.05305e-05
-1.04533e-05
-1.055e-05
-1.04499e-05
-1.05755e-05
-1.04464e-05
-1.06086e-05
-1.04429e-05
-1.06511e-05
-1.04397e-05
-1.07045e-05
-1.04369e-05
-1.07687e-05
-1.04348e-05
-1.0837e-05
-1.04343e-05
-1.08794e-05
-1.04404e-05
-1.07906e-05
-1.0467e-05
-1.0176e-05
-1.0474e-05
-6.81934e-06
-8.15471e-06
-8.15471e-06
-0.0942765
0.0942765
0.121013
0.0969664
0.0717904
0.0531949
0.0401977
0.0311081
0.0246544
0.0199818
0.0165287
0.0139245
0.0119216
0.0103518
0.00909935
0.00808316
0.00724574
0.00654577
0.00595312
0.00544555
0.00500638
0.00462298
0.00428559
0.00398662
0.00372005
0.00348107
0.00326576
0.00307094
0.00289394
0.00273255
0.00258492
0.00244945
0.00232479
0.00220977
0.00210339
0.00200476
0.00191313
0.00182783
0.00174826
0.00167389
0.00160428
0.00153901
0.00147771
0.00142005
0.00136575
0.00131452
0.00126614
0.00122038
0.00117705
0.00113598
0.00109699
0.00105995
0.00102472
0.000991177
0.00095921
0.000928712
0.00089959
0.000871755
0.000845129
0.000819639
0.000795218
0.000771806
0.000749343
0.000727776
0.000707051
0.00068712
0.00066794
0.000649468
0.00063167
0.000614513
0.000597964
0.000581996
0.000566577
0.000551679
0.000537274
0.000523336
0.000509841
0.000496771
0.00048411
0.000471845
0.00045996
0.000448443
0.000437276
0.000426444
0.000415928
0.000405712
0.000395784
0.000386134
0.000376755
0.000367643
0.000358791
0.000350189
0.000341824
0.000333681
0.000325747
0.000318015
0.000310478
0.000303137
0.000295988
0.000289031
0.000282265
0.000275683
0.000269279
0.000263042
0.000256958
0.000251015
0.000245207
0.000239539
0.000234019
0.000228653
0.000223437
0.00021836
0.000213402
0.00020855
0.000203797
0.000199147
0.000194605
0.000190174
0.000185855
0.000181646
0.000177547
0.000173557
0.000169672
0.000165877
0.000162155
0.000158491
0.000154885
0.000151353
0.000147916
0.000144589
0.000141367
0.000138227
0.000135137
0.000132079
0.000129052
0.000126072
0.000123162
0.000120334
0.00011759
0.000114921
0.000112318
0.000109776
0.000107288
0.000104843
0.00010243
0.00010004
9.76775e-05
9.53619e-05
9.31192e-05
9.09649e-05
8.88912e-05
8.68655e-05
8.48465e-05
8.28055e-05
8.0742e-05
7.86828e-05
7.66652e-05
7.47152e-05
7.28342e-05
7.10009e-05
6.91848e-05
6.73614e-05
6.55194e-05
6.36578e-05
6.17797e-05
5.98888e-05
5.79921e-05
5.61054e-05
5.42505e-05
5.24448e-05
5.06851e-05
4.89395e-05
4.7157e-05
4.52926e-05
4.33372e-05
4.13307e-05
3.93496e-05
3.74696e-05
3.57241e-05
3.40823e-05
3.24618e-05
3.07705e-05
2.89573e-05
2.70421e-05
2.51087e-05
2.32639e-05
2.15824e-05
2.007e-05
1.86613e-05
1.72553e-05
1.57673e-05
1.41712e-05
1.25105e-05
1.08745e-05
9.35269e-06
7.99221e-06
6.77882e-06
5.64876e-06
4.52324e-06
3.34718e-06
2.11297e-06
8.59816e-07
-3.4869e-07
-1.45583e-06
-2.43637e-06
-3.30408e-06
-4.1008e-06
-4.87446e-06
-5.65727e-06
-6.45399e-06
-7.2438e-06
-7.99321e-06
-8.67256e-06
-9.26841e-06
-9.78727e-06
-1.02502e-05
-1.06823e-05
-1.11021e-05
-1.15157e-05
-1.19167e-05
-1.22916e-05
-1.26274e-05
-1.29169e-05
-1.31618e-05
-1.33712e-05
-1.35572e-05
-1.37304e-05
-1.38966e-05
-1.40559e-05
-1.42039e-05
-1.43343e-05
-1.44426e-05
-1.4527e-05
-1.45898e-05
-1.46359e-05
-1.46715e-05
-1.4702e-05
-1.47309e-05
-1.47596e-05
-1.47873e-05
-1.48123e-05
-1.48327e-05
-1.48473e-05
-1.4856e-05
-1.48598e-05
-1.48603e-05
-1.48592e-05
-1.4858e-05
-1.48576e-05
-1.48583e-05
-1.48599e-05
-1.4862e-05
-1.4864e-05
-1.48654e-05
-1.48661e-05
-1.48659e-05
-1.48652e-05
-1.48642e-05
-1.4863e-05
-1.48621e-05
-1.48613e-05
-1.48609e-05
-1.48606e-05
-1.48605e-05
-1.48604e-05
-1.48603e-05
-1.48601e-05
-1.48598e-05
-1.48593e-05
-1.48589e-05
-1.48584e-05
-1.48579e-05
-1.48574e-05
-1.4857e-05
-1.48566e-05
-1.48562e-05
-1.48558e-05
-1.48555e-05
-1.48551e-05
-1.48547e-05
-1.48543e-05
-1.48539e-05
-1.48535e-05
-1.48531e-05
-1.48527e-05
-1.48523e-05
-1.48519e-05
-1.48515e-05
-1.48511e-05
-1.48507e-05
-1.48502e-05
-1.48498e-05
-1.48494e-05
-1.4849e-05
-1.48486e-05
-1.48483e-05
-1.48478e-05
-1.48475e-05
-1.48471e-05
-1.48467e-05
-1.48463e-05
-1.48459e-05
-1.48455e-05
-1.48451e-05
-1.48447e-05
-1.48443e-05
-1.48439e-05
-1.48435e-05
-1.48431e-05
-1.48428e-05
-1.48424e-05
-1.4842e-05
-1.48416e-05
-1.48413e-05
-1.48409e-05
-1.48406e-05
-1.48402e-05
-1.48398e-05
-1.48394e-05
-1.48391e-05
-1.48387e-05
-1.48384e-05
-1.4838e-05
-1.48378e-05
-1.48373e-05
-1.48371e-05
-1.48366e-05
-1.48364e-05
-1.48359e-05
-1.48358e-05
-1.48352e-05
-1.48352e-05
-1.48345e-05
-1.48346e-05
-1.48338e-05
-1.48341e-05
-1.48332e-05
-1.48336e-05
-1.48325e-05
-1.48332e-05
-1.48318e-05
-1.48328e-05
-1.48311e-05
-1.48325e-05
-1.48304e-05
-1.48323e-05
-1.48297e-05
-1.48322e-05
-1.48289e-05
-1.48323e-05
-1.48281e-05
-1.48326e-05
-1.48272e-05
-1.48332e-05
-1.48262e-05
-1.48342e-05
-1.48252e-05