# vtk DataFile Version 2.0
FlowField
ASCII
DATASET STRUCTURED_GRID
DIMENSIONS 400 1 50
POINTS 20000 float
0 0 0
0.08 0 0
0.16 0 0
0.24 0 0
0.32 0 0
0.4 0 0
0.48 0 0
0.56 0 0
0.64 0 0
0.72 0 0
0.8 0 0
0.88 0 0
0.96 0 0
1.04 0 0
1.12 0 0
1.2 0 0
1.28 0 0
1.36 0 0
1.44 0 0
1.52 0 0
1.6 0 0
1.68 0 0
1.76 0 0
1.84 0 0
1.92 0 0
2 0 0
2.08 0 0
2.16 0 0
2.24 0 0
2.32 0 0
2.4 0 0
2.48 0 0
2.56 0 0
2.64 0 0
2.72 0 0
2.8 0 0
2.88 0 0
2.96 0 0
3.04 0 0
3.12 0 0
3.2 0 0
3.28 0 0
3.36 0 0
3.44 0 0
3.52 0 0
3.6 0 0
3.68 0 0
3.76 0 0
3.84 0 0
3.92 0 0
4 0 0
4.08 0 0
4.16 0 0
4.24 0 0
4.32 0 0
4.4 0 0
4.48 0 0
4.56 0 0
4.64 0 0
4.72 0 0
4.8 0 0
4.88 0 0
4.96 0 0
5.04 0 0
5.12 0 0
5.2 0 0
5.28 0 0
5.36 0 0
5.44 0 0
5.52 0 0
5.6 0 0
5.68 0 0
5.76 0 0
5.84 0 0
5.92 0 0
6 0 0
6.08 0 0
6.16 0 0
6.24 0 0
6.32 0 0
6.4 0 0
6.48 0 0
6.56 0 0
6.64 0 0
6.72 0 0
6.8 0 0
6.88 0 0
6.96 0 0
7.04 0 0
7.12 0 0
7.2 0 0
7.28 0 0
7.36 0 0
7.44 0 0
7.52 0 0
7.6 0 0
7.68 0 0
7.76 0 0
7.84 0 0
7.92 0 0
8 0 0
8.08 0 0
8.16 0 0
8.24 0 0
8.32 0 0
8.4 0 0
8.48 0 0
8.56 0 0
8.64 0 0
8.72 0 0
8.8 0 0
8.88 0 0
8.96 0 0
9.04 0 0
9.12 0 0
9.2 0 0
9.28 0 0
9.36 0 0
9.44 0 0
9.52 0 0
9.6 0 0
9.68 0 0
9.76 0 0
9.84 0 0
9.92 0 0
10 0 0
10.08 0 0
10.16 0 0
10.24 0 0
10.32 0 0
10.4 0 0
10.48 0 0
10.56 0 0
10.64 0 0
10.72 0 0
10.8 0 0
10.88 0 0
10.96 0 0
11.04 0 0
11.12 0 0
11.2 0 0
11.28 0 0
11.36 0 0
11.44 0 0
11.52 0 0
11.6 0 0
11.68 0 0
11.76 0 0
11.84 0 0
11.92 0 0
12 0 0
12.08 0 0
12.16 0 0
12.24 0 0
12.32 0 0
12.4 0 0
12.48 0 0
12.56 0 0
12.64 0 0
12.72 0 0
12.8 0 0
12.88 0 0
12.96 0 0
13.04 0 0
13.12 0 0
13.2 0 0
13.28 0 0
13.36 0 0
13.44 0 0
13.52 0 0
13.6 0 0
13.68 0 0
13.76 0 0
13.84 0 0
13.92 0 0
14 0 0
14.08 0 0
14.16 0 0
14.24 0 0
14.32 0 0
14.4 0 0
14.48 0 0
14.56 0 0
14.64 0 0
14.72 0 0
14.8 0 0
14.88 0 0
14.96 0 0
15.04 0 0
15.12 0 0
15.2 0 0
15.28 0 0
15.36 0 0
15.44 0 0
15.52 0 0
15.6 0 0
15.68 0 0
15.76 0 0
15.84 0 0
15.92 0 0
16 0 0
16.08 0 0
16.16 0 0
16.24 0 0
16.32 0 0
16.4 0 0
16.48 0 0
16.56 0 0
16.64 0 0
16.72 0 0
16.8 0 0
16.88 0 0
16.96 0 0
17.04 0 0
17.12 0 0
17.2 0 0
17.28 0 0
17.36 0 0
17.44 0 0
17.52 0 0
17.6 0 0
17.68 0 0
17.76 0 0
17.84 0 0
17.92 0 0
18 0 0
18.08 0 0
18.16 0 0
18.24 0 0
18.32 0 0
18.4 0 0
18.48 0 0
18.56 0 0
18.64 0 0
18.72 0 0
18.8 0 0
18.88 0 0
18.96 0 0
19.04 0 0
19.12 0 0
19.2 0 0
19.28 0 0
19.36 0 0
19.44 0 0
19.52 0 0
19.6 0 0
19.68 0 0
19.76 0 0
19.84 0 0
19.92 0 0
20 0 0
20.08 0 0
20.16 0 0
20.24 0 0
20.32 0 0
20.4 0 0
20.48 0 0
20.56 0 0
20.64 0 0
20.72 0 0
20.8 0 0
20.88 0 0
20.96 0 0
21.04 0 0
21.12 0 0
21.2 0 0
21.28 0 0
21.36 0 0
21.44 0 0
21.52 0 0
21.6 0 0
21.68 0 0
21.76 0 0
21.84 0 0
21.92 0 0
22 0 0
22.08 0 0
22.16 0 0
22.24 0 0
22.32 0 0
22.4 0 0
22.48 0 0
22.56 0 0
22.64 0 0
22.72 0 0
22.8 0 0
22.88 0 0
22.96 0 0
23.04 0 0
23.12 0 0
23.2 0 0
23.28 0 0
23.36 0 0
23.44 0 0
23.52 0 0
23.6 0 0
23.68 0 0
23.76 0 0
23.84 0 0
23.92 0 0
24 0 0
24.08 0 0
24.16 0 0
24.24 0 0
24.32 0 0
24.4 0 0
24.48 0 0
24.56 0 0
24.64 0 0
24.72 0 0
24.8 0 0
24.88 0 0
24.96 0 0
25.04 0 0
25.12 0 0
25.2 0 0
25.28 0 0
25.36 0 0
25.44 0 0
25.52 0 0
25.6 0 0
25.68 0 0
25.76 0 0
25.84 0 0
25.92 0 0
26 0 0
26.08 0 0
26.16 0 0
26.24 0 0
26.32 0 0
26.4 0 0
26.48 0 0
26.56 0 0
26.64 0 0
26.72 0 0
26.8 0 0
26.88 0 0
26.96 0 0
27.04 0 0
27.12 0 0
27.2 0 0
27.28 0 0
27.36 0 0
27.44 0 0
27.52 0 0
27.6 0 0
27.68 0 0
27.76 0 0
27.84 0 0
27.92 0 0
28 0 0
28.08 0 0
28.16 0 0
28.24 0 0
28.32 0 0
28.4 0 0
28.48 0 0
28.56 0 0
28.64 0 0
28.72 0 0
28.8 0 0
28.88 0 0
28.96 0 0
29.04 0 0
29.12 0 0
29.2 0 0
29.28 0 0
29.36 0 0
29.44 0 0
29.52 0 0
29.6 0 0
29.68 0 0
29.76 0 0
29.84 0 0
29.92 0 0
30 0 0
30.08 0 0
30.16 0 0
30.24 0 0
30.32 0 0
30.4 0 0
30.48 0 0
30.56 0 0
30.64 0 0
30.72 0 0
30.8 0 0
30.88 0 0
30.96 0 0
31.04 0 0
31.12 0 0
31.2 0 0
31.28 0 0
31.36 0 0
31.44 0 0
31.52 0 0
31.6 0 0
31.68 0 0
31.76 0 0
31.84 0 0
31.92 0 0
0 0.02 0
0.08 0.02 0
0.16 0.02 0
0.24 0.02 0
0.32 0.02 0
0.4 0.02 0
0.48 0.02 0
0.56 0.02 0
0.64 0.02 0
0.72 0.02 0
0.8 0.02 0
0.88 0.02 0
0.96 0.02 0
1.04 0.02 0
1.12 0.02 0
1.2 0.02 0
1.28 0.02 0
1.36 0.02 0
1.44 0.02 0
1.52 0.02 0
1.6 0.02 0
1.68 0.02 0
1.76 0.02 0
1.84 0.02 0
1.92 0.02 0
2 0.02 0
2.08 0.02 0
2.16 0.02 0
2.24 0.02 0
2.32 0.02 0
2.4 0.02 0
2.48 0.02 0
2.56 0.02 0
2.64 0.02 0
2.72 0.02 0
2.8 0.02 0
2.88 0.02 0
2.96 0.02 0
3.04 0.02 0
3.12 0.02 0
3.2 0.02 0
3.28 0.02 0
3.36 0.02 0
3.44 0.02 0
3.52 0.02 0
3.6 0.02 0
3.68 0.02 0
3.76 0.02 0
3.84 0.02 0
3.92 0.02 0
4 0.02 0
4.08 0.02 0
4.16 0.02 0
4.24 0.02 0
4.32 0.02 0
4.4 0.02 0
4.48 0.02 0
4.56 0.02 0
4.64 0.02 0
4.72 0.02 0
4.8 0.02 0
4.88 0.02 0
4.96 0.02 0
5.04 0.02 0
5.12 0.02 0
5.2 0.02 0
5.28 0.02 0
5.36 0.02 0
5.44 0.02 0
5.52 0.02 0
5.6 0.02 0
5.68 0.02 0
5.76 0.02 0
5.84 0.02 0
5.92 0.02 0
6 0.02 0
6.08 0.02 0
6.16 0.02 0
6.24 0.02 0
6.32 0.02 0
6.4 0.02 0
6.48 0.02 0
6.56 0.02 0
6.64 0.02 0
6.72 0.02 0
6.8 0.02 0
6.88 0.02 0
6.96 0.02 0
7.04 0.02 0
7.12 0.02 0
7.2 0.02 0
7.28 0.02 0
7.36 0.02 0
7.44 0.02 0
7.52 0.02 0
7.6 0.02 0
7.68 0.02 0
7.76 0.02 0
7.84 0.02 0
7.92 0.02 0
8 0.02 0
8.08 0.02 0
8.16 0.02 0
8.24 0.02 0
8.32 0.02 0
8.4 0.02 0
8.48 0.02 0
8.56 0.02 0
8.64 0.02 0
8.72 0.02 0
8.8 0.02 0
8.88 0.02 0
8.96 0.02 0
9.04 0.02 0
9.12 0.02 0
9.2 0.02 0
9.28 0.02 0
9.36 0.02 0
9.44 0.02 0
9.52 0.02 0
9.6 0.02 0
9.68 0.02 0
9.76 0.02 0
9.84 0.02 0
9.92 0.02 0
10 0.02 0
10.08 0.02 0
10.16 0.02 0
10.24 0.02 0
10.32 0.02 0
10.4 0.02 0
10.48 0.02 0
10.56 0.02 0
10.64 0.02 0
10.72 0.02 0
10.8 0.02 0
10.88 0.02 0
10.96 0.02 0
11.04 0.02 0
11.12 0.02 0
11.2 0.02 0
11.28 0.02 0
11.36 0.02 0
11.44 0.02 0
11.52 0.02 0
11.6 0.02 0
11.68 0.02 0
11.76 0.02 0
11.84 0.02 0
11.92 0.02 0
12 0.02 0
12.08 0.02 0
12.16 0.02 0
12.24 0.02 0
12.32 0.02 0
12.4 0.02 0
12.48 0.02 0
12.56 0.02 0
12.64 0.02 0
12.72 0.02 0
12.8 0.02 0
12.88 0.02 0
12.96 0.02 0
13.04 0.02 0
13.12 0.02 0
13.2 0.02 0
13.28 0.02 0
13.36 0.02 0
13.44 0.02 0
13.52 0.02 0
13.6 0.02 0
13.68 0.02 0
13.76 0.02 0
13.84 0.02 0
13.92 0.02 0
14 0.02 0
14.08 0.02 0
14.16 0.02 0
14.24 0.02 0
14.32 0.02 0
14.4 0.02 0
14.48 0.02 0
14.56 0.02 0
14.64 0.02 0
14.72 0.02 0
14.8 0.02 0
14.88 0.02 0
14.96 0.02 0
15.04 0.02 0
15.12 0.02 0
15.2 0.02 0
15.28 0.02 0
15.36 0.02 0
15.44 0.02 0
15.52 0.02 0
15.6 0.02 0
15.68 0.02 0
15.76 0.02 0
15.84 0.02 0
15.92 0.02 0
16 0.02 0
16.08 0.02 0
16.16 0.02 0
16.24 0.02 0
16.32 0.02 0
16.4 0.02 0
16.48 0.02 0
16.56 0.02 0
16.64 0.02 0
16.72 0.02 0
16.8 0.02 0
16.88 0.02 0
16.96 0.02 0
17.04 0.02 0
17.12 0.02 0
17.2 0.02 0
17.28 0.02 0
17.36 0.02 0
17.44 0.02 0
17.52 0.02 0
17.6 0.02 0
17.68 0.02 0
17.76 0.02 0
17.84 0.02 0
17.92 0.02 0
18 0.02 0
18.08 0.02 0
18.16 0.02 0
18.24 0.02 0
18.32 0.02 0
18.4 0.02 0
18.48 0.02 0
18.56 0.02 0
18.64 0.02 0
18.72 0.02 0
18.8 0.02 0
18.88 0.02 0
18.96 0.02 0
19.04 0.02 0
19.12 0.02 0
19.2 0.02 0
19.28 0.02 0
19.36 0.02 0
19.44 0.02 0
19.52 0.02 0
19.6 0.02 0
19.68 0.02 0
19.76 0.02 0
19.84 0.02 0
19.92 0.02 0
20 0.02 0
20.08 0.02 0
20.16 0.02 0
20.24 0.02 0
20.32 0.02 0
20.4 0.02 0
20.48 0.02 0
20.56 0.02 0
20.64 0.02 0
20.72 0.02 0
20.8 0.02 0
20.88 0.02 0
20.96 0.02 0
21.04 0.02 0
21.12 0.02 0
21.2 0.02 0
21.28 0.02 0
21.36 0.02 0
21.44 0.02 0
21.52 0.02 0
21.6 0.02 0
21.68 0.02 0
21.76 0.02 0
21.84 0.02 0
21.92 0.02 0
22 0.02 0
22.08 0.02 0
22.16 0.02 0
22.24 0.02 0
22.32 0.02 0
22.4 0.02 0
22.48 0.02 0
22.56 0.02 0
22.64 0.02 0
22.72 0.02 0
22.8 0.02 0
22.88 0.02 0
22.96 0.02 0
23.04 0.02 0
23.12 0.02 0
23.2 0.02 0
23.28 0.02 0
23.36 0.02 0
23.44 0.02 0
23.52 0.02 0
23.6 0.02 0
23.68 0.02 0
23.76 0.02 0
23.84 0.02 0
23.92 0.02 0
24 0.02 0
24.08 0.02 0
24.16 0.02 0
24.24 0.02 0
24.32 0.02 0
24.4 0.02 0
24.48 0.02 0
24.56 0.02 0
24.64 0.02 0
24.72 0.02 0
24.8 0.02 0
24.88 0.02 0
24.96 0.02 0
25.04 0.02 0
25.12 0.02 0
25.2 0.02 0
25.28 0.02 0
25.36 0.02 0
25.44 0.02 0
25.52 0.02 0
25.6 0.02 0
25.68 0.02 0
25.76 0.02 0
25.84 0.02 0
25.92 0.02 0
26 0.02 0
26.08 0.02 0
26.16 0.02 0
26.24 0.02 0
26.32 0.02 0
26.4 0.02 0
26.48 0.02 0
26.56 0.02 0
26.64 0.02 0
26.72 0.02 0
26.8 0.02 0
26.88 0.02 0
26.96 0.02 0
27.04 0.02 0
27.12 0.02 0
27.2 0.02 0
27.28 0.02 0
27.36 0.02 0
27.44 0.02 0
27.52 0.02 0
27.6 0.02 0
27.68 0.02 0
27.76 0.02 0
27.84 0.02 0
27.92 0.02 0
28 0.02 0
28.08 0.02 0
28.16 0.02 0
28.24 0.02 0
28.32 0.02 0
28.4 0.02 0
28.48 0.02 0
28.56 0.02 0
28.64 0.02 0
28.72 0.02 0
28.8 0.02 0
28.88 0.02 0
28.96 0.02 0
29.04 0.02 0
29.12 0.02 0
29.2 0.02 0
29.28 0.02 0
29.36 0.02 0
29.44 0.02 0
29.52 0.02 0
29.6 0.02 0
29.68 0.02 0
29.76 0.02 0
29.84 0.02 0
29.92 0.02 0
30 0.02 0
30.08 0.02 0
30.16 0.02 0
30.24 0.02 0
30.32 0.02 0
30.4 0.02 0
30.48 0.02 0
30.56 0.02 0
30.64 0.02 0
30.72 0.02 0
30.8 0.02 0
30.88 0.02 0
30.96 0.02 0
31.04 0.02 0
31.12 0.02 0
31.2 0.02 0
31.28 0.02 0
31.36 0.02 0
31.44 0.02 0
31.52 0.02 0
31.6 0.02 0
31.68 0.02 0
31.76 0.02 0
31.84 0.02 0
31.92 0.02 0
0 0.04 0
0.08 0.04 0
0.16 0.04 0
0.24 0.04 0
0.32 0.04 0
0.4 0.04 0
0.48 0.04 0
0.56 0.04 0
0.64 0.04 0
0.72 0.04 0
0.8 0.04 0
0.88 0.04 0
0.96 0.04 0
1.04 0.04 0
1.12 0.04 0
1.2 0.04 0
1.28 0.04 0
1.36 0.04 0
1.44 0.04 0
1.52 0.04 0
1.6 0.04 0
1.68 0.04 0
1.76 0.04 0
1.84 0.04 0
1.92 0.04 0
2 0.04 0
2.08 0.04 0
2.16 0.04 0
2.24 0.04 0
2.32 0.04 0
2.4 0.04 0
2.48 0.04 0
2.56 0.04 0
2.64 0.04 0
2.72 0.04 0
2.8 0.04 0
2.88 0.04 0
2.96 0.04 0
3.04 0.04 0
3.12 0.04 0
3.2 0.04 0
3.28 0.04 0
3.36 0.04 0
3.44 0.04 0
3.52 0.04 0
3.6 0.04 0
3.68 0.04 0
3.76 0.04 0
3.84 0.04 0
3.92 0.04 0
4 0.04 0
4.08 0.04 0
4.16 0.04 0
4.24 0.04 0
4.32 0.04 0
4.4 0.04 0
4.48 0.04 0
4.56 0.04 0
4.64 0.04 0
4.72 0.04 0
4.8 0.04 0
4.88 0.04 0
4.96 0.04 0
5.04 0.04 0
5.12 0.04 0
5.2 0.04 0
5.28 0.04 0
5.36 0.04 0
5.44 0.04 0
5.52 0.04 0
5.6 0.04 0
5.68 0.04 0
5.76 0.04 0
5.84 0.04 0
5.92 0.04 0
6 0.04 0
6.08 0.04 0
6.16 0.04 0
6.24 0.04 0
6.32 0.04 0
6.4 0.04 0
6.48 0.04 0
6.56 0.04 0
6.64 0.04 0
6.72 0.04 0
6.8 0.04 0
6.88 0.04 0
6.96 0.04 0
7.04 0.04 0
7.12 0.04 0
7.2 0.04 0
7.28 0.04 0
7.36 0.04 0
7.44 0.04 0
7.52 0.04 0
7.6 0.04 0
7.68 0.04 0
7.76 0.04 0
7.84 0.04 0
[...]
POINT_DATA 20000

SCALARS p float 1
LOOKUP_TABLE default
1
206.633
206.401
206.334
206.308
206.292
206.28
206.269
206.258
206.249
206.239
206.23
206.221
206.212
206.204
206.195
206.187
206.179
206.171
206.164
206.156
206.149
206.142
206.135
206.128
206.121
206.114
206.108
206.101
206.095
206.088
206.082
206.076
206.07
206.064
206.058
206.052
206.046
206.04
206.034
206.029
206.023
206.018
206.012
206.007
206.001
205.996
205.991
205.985
205.98
205.975
205.97
205.965
205.96
205.955
205.95
205.945
205.94
205.935
205.93
205.925
205.92
205.916
205.911
205.906
205.901
205.897
205.892
205.888
205.883
205.878
205.874
205.869
205.865
205.86
205.856
205.852
205.847
205.843
205.838
205.834
205.83
205.825
205.821
205.817
205.813
205.808
205.804
205.8
205.796
205.791
205.787
205.783
205.779
205.775
205.771
205.767
205.763
205.759
205.754
205.75
205.746
205.742
205.738
205.734
205.73
205.726
205.722
205.718
205.715
205.711
205.707
205.703
205.699
205.695
205.691
205.687
205.683
205.679
205.676
205.672
205.668
205.664
205.66
205.656
205.653
205.649
205.645
205.641
205.637
205.634
205.63
205.626
205.622
205.619
205.615
205.611
205.607
205.604
205.6
205.596
205.592
205.589
205.585
205.581
205.578
205.574
205.57
205.567
205.563
205.559
205.556
205.552
205.548
205.545
205.541
205.537
205.534
205.53
205.526
205.523
205.519
205.516
205.512
205.508
205.505
205.501
205.497
205.494
205.49
205.487
205.483
205.479
205.476
205.472
205.469
205.465
205.462
205.458
205.454
205.451
205.447
205.444
205.44
205.437
205.433
205.429
205.426
205.422
205.419
205.415
205.412
205.408
205.405
205.401
205.397
205.394
205.39
205.387
205.383
205.38
205.376
205.373
205.369
205.366
205.362
205.359
205.355
205.351
205.348
205.344
205.341
205.337
205.334
205.33
205.327
205.323
205.32
205.316
205.313
205.309
205.306
205.302
205.299
205.295
205.292
205.288
205.285
205.281
205.278
205.274
205.271
205.267
205.264
205.26
205.257
205.253
205.25
205.246
205.243
205.239
205.236
205.232
205.229
205.225
205.222
205.218
205.215
205.211
205.208
205.204
205.201
205.197
205.194
205.19
205.187
205.183
205.18
205.176
205.173
205.169
205.166
205.162
205.159
205.155
205.152
205.149
205.145
205.142
205.138
205.135
205.131
205.128
205.124
205.121
205.117
205.114
205.11
205.107
205.103
205.1
205.096
205.093
205.089
205.086
205.082
205.079
205.075
205.072
205.068
205.065
205.062
205.058
205.055
205.051
205.048
205.044
205.041
205.037
205.034
205.03
205.027
205.023
205.02
205.016
205.013
205.009
205.006
205.002
204.999
204.995
204.992
204.988
204.985
204.982
204.978
204.975
204.971
204.968
204.964
204.961
204.957
204.954
204.95
204.947
204.943
204.94
204.936
204.933
204.929
204.926
204.922
204.919
204.915
204.912
204.908
204.905
204.901
204.898
204.895
204.891
204.888
204.884
204.881
204.877
204.874
204.87
204.867
204.863
204.86
204.856
204.853
204.849
204.846
204.842
204.839
204.835
204.832
204.828
204.825
204.821
204.818
204.814
204.811
204.807
204.804
204.8
204.797
204.794
204.79
204.787
204.783
204.78
204.776
204.773
204.769
204.766
204.762
204.759
204.755
204.752
204.748
204.745
204.741
204.738
204.734
204.731
204.727
204.724
204.72
204.717
204.713
204.71
204.706
204.703
204.699
204.696
204.692
204.689
0.5
206.633
206.633
206.401
206.334
206.308
206.292
206.28
206.269
206.258
206.249
206.239
206.23
206.221
206.212
206.204
206.195
206.187
206.179
206.171
206.164
206.156
206.149
206.142
206.135
206.128
206.121
206.114
206.108
206.101
206.095
206.088
206.082
206.076
206.07
206.064
206.058
206.052
206.046
206.04
206.034
206.029
206.023
206.018
206.012
206.007
206.001
205.996
205.991
205.985
205.98
205.975
205.97
205.965
205.96
205.955
205.95
205.945
205.94
205.935
205.93
205.925
205.92
205.916
205.911
205.906
205.901
205.897
205.892
205.888
205.883
205.878
205.874
205.869
205.865
205.86
205.856
205.852
205.847
205.843
205.838
205.834
205.83
205.825
205.821
205.817
205.813
205.808
205.804
205.8
205.796
205.791
205.787
205.783
205.779
205.775
205.771
205.767
205.763
205.759
205.754
205.75
205.746
205.742
205.738
205.734
205.73
205.726
205.722
205.718
205.715
205.711
205.707
205.703
205.699
205.695
205.691
205.687
205.683
205.679
205.676
205.672
205.668
205.664
205.66
205.656
205.653
205.649
205.645
205.641
205.637
205.634
205.63
205.626
205.622
205.619
205.615
205.611
205.607
205.604
205.6
205.596
205.592
205.589
205.585
205.581
205.578
205.574
205.57
205.567
205.563
205.559
205.556
205.552
205.548
205.545
205.541
205.537
205.534
205.53
205.526
205.523
205.519
205.516
205.512
205.508
205.505
205.501
205.497
205.494
205.49
205.487
205.483
205.479
205.476
205.472
205.469
205.465
205.462
205.458
205.454
205.451
205.447
205.444
205.44
205.437
205.433
205.429
205.426
205.422
205.419
205.415
205.412
205.408
205.405
205.401
205.397
205.394
205.39
205.387
205.383
205.38
205.376
205.373
205.369
205.366
205.362
205.359
205.355
205.351
205.348
205.344
205.341
205.337
205.334
205.33
205.327
205.323
205.32
205.316
205.313
205.309
205.306
205.302
205.299
205.295
205.292
205.288
205.285
205.281
205.278
205.274
205.271
205.267
205.264
205.26
205.257
205.253
205.25
205.246
205.243
205.239
205.236
205.232
205.229
205.225
205.222
205.218
205.215
205.211
205.208
205.204
205.201
205.197
205.194
205.19
205.187
205.183
205.18
205.176
205.173
205.169
205.166
205.162
205.159
205.155
205.152
205.149
205.145
205.142
205.138
205.135
205.131
205.128
205.124
205.121
205.117
205.114
205.11
205.107
205.103
205.1
205.096
205.093
205.089
205.086
205.082
205.079
205.075
205.072
205.068
205.065
205.062
205.058
205.055
205.051
205.048
205.044
205.041
205.037
205.034
205.03
205.027
205.023
205.02
205.016
205.013
205.009
205.006
205.002
204.999
204.995
204.992
204.988
204.985
204.982
204.978
204.975
204.971
204.968
204.964
204.961
204.957
204.954
204.95
204.947
204.943
204.94
204.936
204.933
204.929
204.926
204.922
204.919
204.915
204.912
204.908
204.905
204.901
204.898
204.895
204.891
204.888
204.884
204.881
204.877
204.874
204.87
204.867
204.863
204.86
204.856
204.853
204.849
204.846
204.842
204.839
204.835
204.832
204.828
204.825
204.821
204.818
204.814
204.811
204.807
204.804
204.8
204.797
204.794
204.79
204.787
204.783
204.78
204.776
204.773
204.769
204.766
204.762
204.759
204.755
204.752
204.748
204.745
204.741
204.738
204.734
204.731
204.727
204.724
204.72
204.717
204.713
204.71
204.706
204.703
204.699
204.696
204.692
204.689
204.689
206.583
206.583
206.407
206.339
206.311
206.294
206.281
206.27
206.259
206.249
206.239
206.23
206.221
206.212
206.204
206.196
206.187
206.179
206.172
206.164
206.156
206.149
206.142
206.135
206.128
206.121
206.114
206.108
206.101
206.095
206.088
206.082
206.076
206.07
206.064
206.058
206.052
206.046
206.04
206.034
206.029
206.023
206.018
206.012
206.007
206.001
205.996
205.991
205.985
205.98
205.975
205.97
205.965
205.96
205.955
205.95
205.945
205.94
205.935
205.93
205.925
205.92
205.916
205.911
205.906
205.901
205.897
205.892
205.888
205.883
205.878
205.874
205.869
205.865
205.86
205.856
205.852
205.847
205.843
205.838
205.834
205.83
205.825
205.821
205.817
205.813
205.808
205.804
205.8
205.796
205.791
205.787
205.783
205.779
205.775
205.771
205.767
205.763
205.759
205.754
205.75
205.746
205.742
205.738
205.734
205.73
205.726
205.722
205.718
205.715
205.711
205.707
205.703
205.699
205.695
205.691
205.687
205.683
205.679
205.676
205.672
205.668
205.664
205.66
205.656
205.653
205.649
205.645
205.641
205.637
205.634
205.63
205.626
205.622
205.619
205.615
205.611
205.607
205.604
205.6
205.596
205.592
205.589
205.585
205.581
205.578
205.574
205.57
205.567
205.563
205.559
205.556
205.552
205.548
205.545
205.541
205.537
205.534
205.53
205.526
205.523
205.519
205.516
205.512
205.508
205.505
205.501
205.498
205.494
205.49
205.487
205.483
205.479
205.476
205.472
205.469
205.465
205.462
205.458
205.454
205.451
205.447
205.444
205.44
205.437
205.433
205.429
205.426
205.422
205.419
205.415
205.412
205.408
205.405
205.401
205.397
205.394
205.39
205.387
205.383
205.38
205.376
205.373
205.369
205.366
205.362
205.359
205.355
205.351
205.348
205.344
205.341
205.337
205.334
205.33
205.327
205.323
205.32
205.316
205.313
205.309
205.306
205.302
205.299
205.295
205.292
205.288
205.285
205.281
205.278
205.274
205.271
205.267
205.264
205.26
205.257
205.253
205.25
205.246
205.243
205.239
205.236
205.232
205.229
205.225
205.222
205.218
205.215
205.211
205.208
205.204
205.201
205.197
205.194
205.19
205.187
205.183
205.18
205.176
205.173
205.169
205.166
205.162
205.159
205.155
205.152
205.149
205.145
205.142
205.138
205.135
205.131
205.128
205.124
205.121
205.117
205.114
205.11
205.107
205.103
205.1
205.096
205.093
205.089
205.086
205.082
205.079
205.075
205.072
205.068
205.065
205.062
205.058
205.055
205.051
205.048
205.044
205.041
205.037
205.034
205.03
205.027
205.023
205.02
205.016
205.013
205.009
205.006
205.002
204.999
204.995
204.992
204.988
204.985
204.982
204.978
204.975
204.971
204.968
204.964
204.961
204.957
204.954
204.95
204.947
204.943
204.94
204.936
204.933
204.929
204.926
204.922
204.919
204.915
204.912
204.908
204.905
204.901
204.898
204.895
204.891
204.888
204.884
204.881
204.877
204.874
204.87
204.867
204.863
204.86
204.856
204.853
204.849
204.846
204.842
204.839
204.835
204.832
204.828
204.825
204.821
204.818
204.814
204.811
204.807
204.804
204.8
204.797
204.794
204.79
204.787
204.783
204.78
204.776
204.773
204.769
204.766
204.762
204.759
204.755
204.752
204.748
204.745
204.741
204.738
204.734
204.731
204.727
204.724
204.72
204.717
204.713
204.71
204.706
204.703
204.699
204.696
204.692
204.689
204.689
206.542
206.542
206.409
206.344
206.314
206.296
206.282
206.27
206.26
206.25
206.24
206.23
206.221
206.213
206.204
206.196
206.188
206.18
206.172
206.164
206.157
206.149
206.142
206.135
206.128
206.121
206.114
206.108
206.101
206.095
206.088
206.082
206.076
206.07
206.064
206.058
206.052
206.046
206.04
206.034
206.029
206.023
206.018
206.012
206.007
206.001
205.996
205.991
205.985
205.98
205.975
205.97
205.965
205.96
205.955
205.95
205.945
205.94
205.935
205.93
205.925
205.92
205.916
205.911
205.906
205.902
205.897
205.892
205.888
205.883
205.878
205.874
205.869
205.865
205.86
205.856
205.852
205.847
205.843
205.838
205.834
205.83
205.825
205.821
205.817
205.813
205.808
205.804
205.8
205.796
205.792
205.787
205.783
205.779
205.775
205.771
205.767
205.763
205.759
205.754
205.75
205.746
205.742
205.738
205.734
205.73
205.726
205.722
205.718
205.715
205.711
205.707
205.703
205.699
205.695
205.691
205.687
205.683
205.679
205.676
205.672
205.668
205.664
205.66
205.656
205.653
205.649
205.645
205.641
205.637
205.634
205.63
205.626
205.622
205.619
205.615
205.611
205.607
205.604
205.6
205.596
205.593
205.589
205.585
205.581
205.578
205.574
205.57
205.567
205.563
205.559
205.556
205.552
205.548
205.545
205.541
205.537
205.534
205.53
205.526
205.523
205.519
205.516
205.512
205.508
205.505
205.501
205.498
205.494
205.49
205.487
205.483
205.48
205.476
205.472
205.469
205.465
205.462
205.458
205.454
205.451
205.447
205.444
205.44
205.437
205.433
205.429
205.426
205.422
205.419
205.415
205.412
205.408
205.405
205.401
205.397
205.394
205.39
205.387
205.383
205.38
205.376
205.373
205.369
205.366
205.362
205.359
205.355
205.351
205.348
205.344
205.341
205.337
205.334
205.33
205.327
205.323
205.32
205.316
205.313
205.309
205.306
205.302
205.299
205.295
205.292
205.288
205.285
205.281
205.278
205.274
205.271
205.267
205.264
205.26
205.257
205.253
205.25
205.246
205.243
205.239
205.236
205.232
205.229
205.225
205.222
205.218
205.215
205.211
205.208
205.204
205.201
205.197
205.194
205.19
205.187
205.183
205.18
205.176
205.173
205.169
205.166
205.162
205.159
205.155
205.152
205.149
205.145
205.142
205.138
205.135
205.131
205.128
205.124
205.121
205.117
205.114
205.11
205.107
205.103
205.1
205.096
205.093
205.089
205.086
205.082
205.079
205.075
205.072
205.068
205.065
205.062
205.058
205.055
205.051
205.048
205.044
205.041
205.037
205.034
205.03
205.027
205.023
205.02
205.016
205.013
205.009
205.006
205.002
204.999
204.995
204.992
204.988
204.985
204.982
204.978
204.975
204.971
204.968
204.964
204.961
204.957
204.954
204.95
204.947
204.943
204.94
204.936
204.933
204.929
204.926
204.922
204.919
204.915
204.912
204.908
204.905
204.901
204.898
204.895
204.891
204.888
204.884
204.881
204.877
204.874
204.87
204.867
204.863
204.86
204.856
204.853
204.849
204.846
204.842
204.839
204.835
204.832
204.828
204.825
204.821
204.818
204.814
204.811
204.807
204.804
204.8
204.797
204.794
204.79
204.787
204.783
204.78
204.776
204.773
204.769
204.766
204.762
204.759
204.755
204.752
204.748
204.745
204.741
204.738
204.734
204.731
204.727
204.724
204.72
204.717
204.713
204.71
204.706
204.703
204.699
204.696
204.692
204.689
204.689
206.511
206.511
206.41
206.348
206.317
206.298
206.284
206.271
206.26
206.25
206.24
206.231
206.222
206.213
206.204
206.196
206.188
206.18
206.172
206.164
206.157
206.149
206.142
206.135
206.128
206.121
206.114
206.108
206.101
206.095
206.088
206.082
206.076
206.07
206.064
206.058
206.052
206.046
206.04
206.034
206.029
206.023
206.018
206.012
206.007
206.001
205.996
205.991
205.985
205.98
205.975
205.97
205.965
205.96
205.955
205.95
205.945
205.94
205.935
205.93
205.925
205.92
205.916
205.911
205.906
205.902
205.897
205.892
205.888
205.883
205.878
205.874
205.869
205.865
205.86
205.856
205.852
205.847
205.843
205.838
205.834
205.83
205.825
205.821
205.817
205.813
205.808
205.804
205.8
205.796
205.792
205.787
205.783
205.779
205.775
205.771
205.767
205.763
205.759
205.754
205.75
205.746
205.742
205.738
205.734
205.73
205.726
205.722
205.718
205.715
205.711
205.707
205.703
205.699
205.695
205.691
205.687
205.683
205.679
205.676
205.672
205.668
205.664
205.66
205.656
205.653
205.649
205.645
205.641
205.637
205.634
205.63
205.626
205.622
205.619
205.615
205.611
205.607
205.604
205.6
205.596
205.593
205.589
205.585
205.581
205.578
205.574
205.57
205.567
205.563
205.559
205.556
205.552
205.548
205.545
205.541
205.537
205.534
205.53
205.526
205.523
205.519
205.516
205.512
205.508
205.505
205.501
205.498
205.494
205.49
205.487
205.483
205.48
205.476
205.472
205.469
205.465
205.462
205.458
205.454
205.451
205.447
205.444
205.44
205.437
205.433
205.429
205.426
205.422
205.419
205.415
205.412
205.408
205.405
205.401
205.397
205.394
205.39
205.387
205.383
205.38
205.376
205.373
205.369
205.366
205.362
205.359
205.355
205.351
205.348
205.344
205.341
205.337
205.334
205.33
205.327
205.323
205.32
205.316
205.313
205.309
205.306
205.302
205.299
205.295
205.292
205.288
205.285
205.281
205.278
205.274
205.271
205.267
205.264
205.26
205.257
205.253
205.25
205.246
205.243
205.239
205.236
205.232
205.229
205.225
205.222
205.218
205.215
205.211
205.208
205.204
205.201
205.197
205.194
205.19
205.187
205.183
205.18
205.176
205.173
205.169
205.166
205.162
205.159
205.155
205.152
205.149
205.145
205.142
205.138
205.135
205.131
205.128
205.124
205.121
205.117
205.114
205.11
205.107
205.103
205.1
205.096
205.093
205.089
205.086
205.082
205.079
205.075
205.072
205.068
205.065
205.062
205.058
205.055
205.051
205.048
205.044
205.041
205.037
205.034
205.03
205.027
205.023
205.02
205.016
205.013
205.009
205.006
205.002
204.999
204.995
204.992
204.988
204.985
204.982
204.978
204.975
204.971
204.968
204.964
204.961
204.957
204.954
204.95
204.947
204.943
204.94
204.936
204.933
204.929
204.926
204.922
204.919
204.915
204.912
204.908
204.905
204.901
204.898
204.895
204.891
204.888
204.884
204.881
204.877
204.874
204.87
204.867
204.863
204.86
204.856
204.853
204.849
204.846
204.842
204.839
204.835
204.832
204.828
204.825
204.821
204.818
204.814
204.811
204.807
204.804
204.8
204.797
204.794
204.79
204.787
204.783
204.78
204.776
204.773
204.769
204.766
204.762
204.759
204.755
204.752
204.748
204.745
204.741
204.738
204.734
204.731
204.727
204.724
204.72
204.717
204.713
204.71
204.706
204.703
204.699
204.696
204.692
204.689
204.689
206.485
206.485
206.408
206.352
206.321
206.301
206.285
206.273
206.261
206.251
206.241
206.231
206.222
206.213
206.205
206.196
206.188
206.18
206.172
206.164
206.157
206.149
206.142
206.135
206.128
206.121
206.114
206.108
206.101
206.095
206.088
206.082
206.076
206.07
206.064
206.058
206.052
206.046
206.04
206.034
206.029
206.023
206.018
206.012
206.007
206.001
205.996
205.991
205.985
205.98
205.975
205.97
205.965
205.96
205.955
205.95
205.945
205.94
205.935
205.93
205.925
205.92
205.916
205.911
205.906
205.902
205.897
205.892
205.888
205.883
205.878
205.874
205.869
205.865
205.86
205.856
205.852
205.847
205.843
205.838
205.834
205.83
205.825
205.821
205.817
205.813
205.808
205.804
205.8
205.796
205.792
205.787
205.783
205.779
205.775
205.771
205.767
205.763
205.759
205.754
205.75
205.746
205.742
205.738
205.734
205.73
205.726
205.722
205.718
205.715
205.711
205.707
205.703
205.699
205.695
205.691
205.687
205.683
205.679
205.676
205.672
205.668
205.664
205.66
205.656
205.653
205.649
205.645
205.641
205.637
205.634
205.63
205.626
205.622
205.619
205.615
205.611
205.607
205.604
205.6
205.596
205.593
205.589
205.585
205.581
205.578
205.574
205.57
205.567
205.563
205.559
205.556
205.552
205.548
205.545
205.541
205.537
205.534
205.53
205.526
205.523
205.519
205.516
205.512
205.508
205.505
205.501
205.498
205.494
205.49
205.487
205.483
205.48
205.476
205.472
205.469
205.465
205.462
205.458
205.454
205.451
205.447
205.444
205.44
205.437
205.433
205.429
205.426
205.422
205.419
205.415
205.412
205.408
205.405
205.401
205.397
205.394
205.39
205.387
205.383
205.38
205.376
205.373
205.369
205.366
205.362
205.359
205.355
205.351
205.348
205.344
205.341
205.337
205.334
205.33
205.327
205.323
205.32
205.316
205.313
205.309
205.306
205.302
205.299
205.295
205.292
205.288
205.285
205.281
205.278
205.274
205.271
205.267
205.264
205.26
205.257
205.253
205.25
205.246
205.243
205.239
205.236
205.232
205.229
205.225
205.222
205.218
205.215
205.211
205.208
205.204
205.201
205.197
205.194
205.19
205.187
205.183
205.18
205.176
205.173
205.169
205.166
205.162
205.159
205.155
205.152
205.149
205.145
205.142
205.138
205.135
205.131
205.128
205.124
205.121
205.117
205.114
205.11
205.107
205.103
205.1
205.096
205.093
205.089
205.086
205.082
205.079
205.075
205.072
205.068
205.065
205.062
205.058
205.055
205.051
205.048
205.044
205.041
205.037
205.034
205.03
205.027
205.023
205.02
205.016
205.013
205.009
205.006
205.002
204.999
204.995
204.992
204.988
204.985
204.982
204.978
204.975
204.971
204.968
204.964
204.961
204.957
204.954
204.95
204.947
204.943
204.94
204.936
204.933
204.929
204.926
204.922
204.919
204.915
204.912
204.908
204.905
204.901
204.898
204.895
204.891
204.888
204.884
204.881
204.877
204.874
204.87
204.867
204.863
204.86
204.856
204.853
204.849
204.846
204.842
204.839
204.835
204.832
204.828
204.825
204.821
204.818
204.814
204.811
204.807
204.804
204.8
204.797
204.794
204.79
204.787
204.783
204.78
204.776
204.773
204.769
204.766
204.762
204.759
204.755
204.752
204.748
204.745
204.741
204.738
204.734
204.731
204.727
204.724
204.72
204.717
204.713
204.71
204.706
204.703
204.699
204.696
204.692
204.689
204.689
206.464
206.464
206.404
206.355
206.324
206.303
206.287
206.274
206.262
206.252
206.242
206.232
206.223
206.214
206.205
206.196
206.188
206.18
206.172
206.164
206.157
206.149
206.142
206.135
206.128
206.121
206.114
206.108
206.101
206.095
206.088
206.082
206.076
206.07
206.064
206.058
206.052
206.046
206.04
206.035
206.029
206.023
206.018
206.012
206.007
206.001
205.996
205.991
205.985
205.98
205.975
205.97
205.965
205.96
205.955
205.95
205.945
205.94
205.935
205.93
205.925
205.92
205.916
205.911
205.906
205.902
205.897
205.892
205.888
205.883
205.878
205.874
205.869
205.865
205.86
205.856
205.852
205.847
205.843
205.838
205.834
205.83
205.825
205.821
205.817
205.813
205.808
205.804
205.8
205.796
205.792
205.787
205.783
205.779
205.775
205.771
205.767
205.763
205.759
205.755
205.75
205.746
205.742
205.738
205.734
205.73
205.726
205.722
205.718
205.715
205.711
205.707
205.703
205.699
205.695
205.691
205.687
205.683
205.679
205.676
205.672
205.668
205.664
205.66
205.656
205.653
205.649
205.645
205.641
205.637
205.634
205.63
205.626