# vtk DataFile Version 2.0
FlowField
ASCII
DATASET STRUCTURED_GRID
DIMENSIONS 400 1 50
POINTS 20000 float
0 0 0
0.08 0 0
0.16 0 0
0.24 0 0
0.32 0 0
0.4 0 0
0.48 0 0
0.56 0 0
0.64 0 0
0.72 0 0
0.8 0 0
0.88 0 0
0.96 0 0
1.04 0 0
1.12 0 0
1.2 0 0
1.28 0 0
1.36 0 0
1.44 0 0
1.52 0 0
1.6 0 0
1.68 0 0
1.76 0 0
1.84 0 0
1.92 0 0
2 0 0
2.08 0 0
2.16 0 0
2.24 0 0
2.32 0 0
2.4 0 0
2.48 0 0
2.56 0 0
2.64 0 0
2.72 0 0
2.8 0 0
2.88 0 0
2.96 0 0
3.04 0 0
3.12 0 0
3.2 0 0
3.28 0 0
3.36 0 0
3.44 0 0
3.52 0 0
3.6 0 0
3.68 0 0
3.76 0 0
3.84 0 0
3.92 0 0
4 0 0
4.08 0 0
4.16 0 0
4.24 0 0
4.32 0 0
4.4 0 0
4.48 0 0
4.56 0 0
4.64 0 0
4.72 0 0
4.8 0 0
4.88 0 0
4.96 0 0
5.04 0 0
5.12 0 0
5.2 0 0
5.28 0 0
5.36 0 0
5.44 0 0
5.52 0 0
5.6 0 0
5.68 0 0
5.76 0 0
5.84 0 0
5.92 0 0
6 0 0
6.08 0 0
6.16 0 0
6.24 0 0
6.32 0 0
6.4 0 0
6.48 0 0
6.56 0 0
6.64 0 0
6.72 0 0
6.8 0 0
6.88 0 0
6.96 0 0
7.04 0 0
7.12 0 0
7.2 0 0
7.28 0 0
7.36 0 0
7.44 0 0
7.52 0 0
7.6 0 0
7.68 0 0
7.76 0 0
7.84 0 0
7.92 0 0
8 0 0
8.08 0 0
8.16 0 0
8.24 0 0
8.32 0 0
8.4 0 0
8.48 0 0
8.56 0 0
8.64 0 0
8.72 0 0
8.8 0 0
8.88 0 0
8.96 0 0
9.04 0 0
9.12 0 0
9.2 0 0
9.28 0 0
9.36 0 0
9.44 0 0
9.52 0 0
9.6 0 0
9.68 0 0
9.76 0 0
9.84 0 0
9.92 0 0
10 0 0
10.08 0 0
10.16 0 0
10.24 0 0
10.32 0 0
10.4 0 0
10.48 0 0
10.56 0 0
10.64 0 0
10.72 0 0
10.8 0 0
10.88 0 0
10.96 0 0
11.04 0 0
11.12 0 0
11.2 0 0
11.28 0 0
11.36 0 0
11.44 0 0
11.52 0 0
11.6 0 0
11.68 0 0
11.76 0 0
11.84 0 0
11.92 0 0
12 0 0
12.08 0 0
12.16 0 0
12.24 0 0
12.32 0 0
12.4 0 0
12.48 0 0
12.56 0 0
12.64 0 0
12.72 0 0
12.8 0 0
12.88 0 0
12.96 0 0
13.04 0 0
13.12 0 0
13.2 0 0
13.28 0 0
13.36 0 0
13.44 0 0
13.52 0 0
13.6 0 0
13.68 0 0
13.76 0 0
13.84 0 0
13.92 0 0
14 0 0
14.08 0 0
14.16 0 0
14.24 0 0
14.32 0 0
14.4 0 0
14.48 0 0
14.56 0 0
14.64 0 0
14.72 0 0
14.8 0 0
14.88 0 0
14.96 0 0
15.04 0 0
15.12 0 0
15.2 0 0
15.28 0 0
15.36 0 0
15.44 0 0
15.52 0 0
15.6 0 0
15.68 0 0
15.76 0 0
15.84 0 0
15.92 0 0
16 0 0
16.08 0 0
16.16 0 0
16.24 0 0
16.32 0 0
16.4 0 0
16.48 0 0
16.56 0 0
16.64 0 0
16.72 0 0
16.8 0 0
16.88 0 0
16.96 0 0
17.04 0 0
17.12 0 0
17.2 0 0
17.28 0 0
17.36 0 0
17.44 0 0
17.52 0 0
17.6 0 0
17.68 0 0
17.76 0 0
17.84 0 0
17.92 0 0
18 0 0
18.08 0 0
18.16 0 0
18.24 0 0
18.32 0 0
18.4 0 0
18.48 0 0
18.56 0 0
18.64 0 0
18.72 0 0
18.8 0 0
18.88 0 0
18.96 0 0
19.04 0 0
19.12 0 0
19.2 0 0
19.28 0 0
19.36 0 0
19.44 0 0
19.52 0 0
19.6 0 0
19.68 0 0
19.76 0 0
19.84 0 0
19.92 0 0
20 0 0
20.08 0 0
20.16 0 0
20.24 0 0
20.32 0 0
20.4 0 0
20.48 0 0
20.56 0 0
20.64 0 0
20.72 0 0
20.8 0 0
20.88 0 0
20.96 0 0
21.04 0 0
21.12 0 0
21.2 0 0
21.28 0 0
21.36 0 0
21.44 0 0
21.52 0 0
21.6 0 0
21.68 0 0
21.76 0 0
21.84 0 0
21.92 0 0
22 0 0
22.08 0 0
22.16 0 0
22.24 0 0
22.32 0 0
22.4 0 0
22.48 0 0
22.56 0 0
22.64 0 0
22.72 0 0
22.8 0 0
22.88 0 0
22.96 0 0
23.04 0 0
23.12 0 0
23.2 0 0
23.28 0 0
23.36 0 0
23.44 0 0
23.52 0 0
23.6 0 0
23.68 0 0
23.76 0 0
23.84 0 0
23.92 0 0
24 0 0
24.08 0 0
24.16 0 0
24.24 0 0
24.32 0 0
24.4 0 0
24.48 0 0
24.56 0 0
24.64 0 0
24.72 0 0
24.8 0 0
24.88 0 0
24.96 0 0
25.04 0 0
25.12 0 0
25.2 0 0
25.28 0 0
25.36 0 0
25.44 0 0
25.52 0 0
25.6 0 0
25.68 0 0
25.76 0 0
25.84 0 0
25.92 0 0
26 0 0
26.08 0 0
26.16 0 0
26.24 0 0
26.32 0 0
26.4 0 0
26.48 0 0
26.56 0 0
26.64 0 0
26.72 0 0
26.8 0 0
26.88 0 0
26.96 0 0
27.04 0 0
27.12 0 0
27.2 0 0
27.28 0 0
27.36 0 0
27.44 0 0
27.52 0 0
27.6 0 0
27.68 0 0
27.76 0 0
27.84 0 0
27.92 0 0
28 0 0
28.08 0 0
28.16 0 0
28.24 0 0
28.32 0 0
28.4 0 0
28.48 0 0
28.56 0 0
28.64 0 0
28.72 0 0
28.8 0 0
28.88 0 0
28.96 0 0
29.04 0 0
29.12 0 0
29.2 0 0
29.28 0 0
29.36 0 0
29.44 0 0
29.52 0 0
29.6 0 0
29.68 0 0
29.76 0 0
29.84 0 0
29.92 0 0
30 0 0
30.08 0 0
30.16 0 0
30.24 0 0
30.32 0 0
30.4 0 0
30.48 0 0
30.56 0 0
30.64 0 0
30.72 0 0
30.8 0 0
30.88 0 0
30.96 0 0
31.04 0 0
31.12 0 0
31.2 0 0
31.28 0 0
31.36 0 0
31.44 0 0
31.52 0 0
31.6 0 0
31.68 0 0
31.76 0 0
31.84 0 0
31.92 0 0
0 0.02 0
0.08 0.02 0
0.16 0.02 0
0.24 0.02 0
0.32 0.02 0
0.4 0.02 0
0.48 0.02 0
0.56 0.02 0
0.64 0.02 0
0.72 0.02 0
0.8 0.02 0
0.88 0.02 0
0.96 0.02 0
1.04 0.02 0
1.12 0.02 0
1.2 0.02 0
1.28 0.02 0
1.36 0.02 0
1.44 0.02 0
1.52 0.02 0
1.6 0.02 0
1.68 0.02 0
1.76 0.02 0
1.84 0.02 0
1.92 0.02 0
2 0.02 0
2.08 0.02 0
2.16 0.02 0
2.24 0.02 0
2.32 0.02 0
2.4 0.02 0
2.48 0.02 0
2.56 0.02 0
2.64 0.02 0
2.72 0.02 0
2.8 0.02 0
2.88 0.02 0
2.96 0.02 0
3.04 0.02 0
3.12 0.02 0
3.2 0.02 0
3.28 0.02 0
3.36 0.02 0
3.44 0.02 0
3.52 0.02 0
3.6 0.02 0
3.68 0.02 0
3.76 0.02 0
3.84 0.02 0
3.92 0.02 0
4 0.02 0
4.08 0.02 0
4.16 0.02 0
4.24 0.02 0
4.32 0.02 0
4.4 0.02 0
4.48 0.02 0
4.56 0.02 0
4.64 0.02 0
4.72 0.02 0
4.8 0.02 0
4.88 0.02 0
4.96 0.02 0
5.04 0.02 0
5.12 0.02 0
5.2 0.02 0
5.28 0.02 0
5.36 0.02 0
5.44 0.02 0
5.52 0.02 0
5.6 0.02 0
5.68 0.02 0
5.76 0.02 0
5.84 0.02 0
5.92 0.02 0
6 0.02 0
6.08 0.02 0
6.16 0.02 0
6.24 0.02 0
6.32 0.02 0
6.4 0.02 0
6.48 0.02 0
6.56 0.02 0
6.64 0.02 0
6.72 0.02 0
6.8 0.02 0
6.88 0.02 0
6.96 0.02 0
7.04 0.02 0
7.12 0.02 0
7.2 0.02 0
7.28 0.02 0
7.36 0.02 0
7.44 0.02 0
7.52 0.02 0
7.6 0.02 0
7.68 0.02 0
7.76 0.02 0
7.84 0.02 0
7.92 0.02 0
8 0.02 0
8.08 0.02 0
8.16 0.02 0
8.24 0.02 0
8.32 0.02 0
8.4 0.02 0
8.48 0.02 0
8.56 0.02 0
8.64 0.02 0
8.72 0.02 0
8.8 0.02 0
8.88 0.02 0
8.96 0.02 0
9.04 0.02 0
9.12 0.02 0
9.2 0.02 0
9.28 0.02 0
9.36 0.02 0
9.44 0.02 0
9.52 0.02 0
9.6 0.02 0
9.68 0.02 0
9.76 0.02 0
9.84 0.02 0
9.92 0.02 0
10 0.02 0
10.08 0.02 0
10.16 0.02 0
10.24 0.02 0
10.32 0.02 0
10.4 0.02 0
10.48 0.02 0
10.56 0.02 0
10.64 0.02 0
10.72 0.02 0
10.8 0.02 0
10.88 0.02 0
10.96 0.02 0
11.04 0.02 0
11.12 0.02 0
11.2 0.02 0
11.28 0.02 0
11.36 0.02 0
11.44 0.02 0
11.52 0.02 0
11.6 0.02 0
11.68 0.02 0
11.76 0.02 0
11.84 0.02 0
11.92 0.02 0
12 0.02 0
12.08 0.02 0
12.16 0.02 0
12.24 0.02 0
12.32 0.02 0
12.4 0.02 0
12.48 0.02 0
12.56 0.02 0
12.64 0.02 0
12.72 0.02 0
12.8 0.02 0
12.88 0.02 0
12.96 0.02 0
13.04 0.02 0
13.12 0.02 0
13.2 0.02 0
13.28 0.02 0
13.36 0.02 0
13.44 0.02 0
13.52 0.02 0
13.6 0.02 0
13.68 0.02 0
13.76 0.02 0
13.84 0.02 0
13.92 0.02 0
14 0.02 0
14.08 0.02 0
14.16 0.02 0
14.24 0.02 0
14.32 0.02 0
14.4 0.02 0
14.48 0.02 0
14.56 0.02 0
14.64 0.02 0
14.72 0.02 0
14.8 0.02 0
14.88 0.02 0
14.96 0.02 0
15.04 0.02 0
15.12 0.02 0
15.2 0.02 0
15.28 0.02 0
15.36 0.02 0
15.44 0.02 0
15.52 0.02 0
15.6 0.02 0
15.68 0.02 0
15.76 0.02 0
15.84 0.02 0
15.92 0.02 0
16 0.02 0
16.08 0.02 0
16.16 0.02 0
16.24 0.02 0
16.32 0.02 0
16.4 0.02 0
16.48 0.02 0
16.56 0.02 0
16.64 0.02 0
16.72 0.02 0
16.8 0.02 0
16.88 0.02 0
16.96 0.02 0
17.04 0.02 0
17.12 0.02 0
17.2 0.02 0
17.28 0.02 0
17.36 0.02 0
17.44 0.02 0
17.52 0.02 0
17.6 0.02 0
17.68 0.02 0
17.76 0.02 0
17.84 0.02 0
17.92 0.02 0
18 0.02 0
18.08 0.02 0
18.16 0.02 0
18.24 0.02 0
18.32 0.02 0
18.4 0.02 0
18.48 0.02 0
18.56 0.02 0
18.64 0.02 0
18.72 0.02 0
18.8 0.02 0
18.88 0.02 0
18.96 0.02 0
19.04 0.02 0
19.12 0.02 0
19.2 0.02 0
19.28 0.02 0
19.36 0.02 0
19.44 0.02 0
19.52 0.02 0
19.6 0.02 0
19.68 0.02 0
19.76 0.02 0
19.84 0.02 0
19.92 0.02 0
20 0.02 0
20.08 0.02 0
20.16 0.02 0
20.24 0.02 0
20.32 0.02 0
20.4 0.02 0
20.48 0.02 0
20.56 0.02 0
20.64 0.02 0
20.72 0.02 0
20.8 0.02 0
20.88 0.02 0
20.96 0.02 0
21.04 0.02 0
21.12 0.02 0
21.2 0.02 0
21.28 0.02 0
21.36 0.02 0
21.44 0.02 0
21.52 0.02 0
21.6 0.02 0
21.68 0.02 0
21.76 0.02 0
21.84 0.02 0
21.92 0.02 0
22 0.02 0
22.08 0.02 0
22.16 0.02 0
22.24 0.02 0
22.32 0.02 0
22.4 0.02 0
22.48 0.02 0
22.56 0.02 0
22.64 0.02 0
22.72 0.02 0
22.8 0.02 0
22.88 0.02 0
22.96 0.02 0
23.04 0.02 0
23.12 0.02 0
23.2 0.02 0
23.28 0.02 0
23.36 0.02 0
23.44 0.02 0
23.52 0.02 0
23.6 0.02 0
23.68 0.02 0
23.76 0.02 0
23.84 0.02 0
23.92 0.02 0
24 0.02 0
24.08 0.02 0
24.16 0.02 0
24.24 0.02 0
24.32 0.02 0
24.4 0.02 0
24.48 0.02 0
24.56 0.02 0
24.64 0.02 0
24.72 0.02 0
24.8 0.02 0
24.88 0.02 0
24.96 0.02 0
25.04 0.02 0
25.12 0.02 0
25.2 0.02 0
25.28 0.02 0
25.36 0.02 0
25.44 0.02 0
25.52 0.02 0
25.6 0.02 0
25.68 0.02 0
25.76 0.02 0
25.84 0.02 0
25.92 0.02 0
26 0.02 0
26.08 0.02 0
26.16 0.02 0
26.24 0.02 0
26.32 0.02 0
26.4 0.02 0
26.48 0.02 0
26.56 0.02 0
26.64 0.02 0
26.72 0.02 0
26.8 0.02 0
26.88 0.02 0
26.96 0.02 0
27.04 0.02 0
27.12 0.02 0
27.2 0.02 0
27.28 0.02 0
27.36 0.02 0
27.44 0.02 0
27.52 0.02 0
27.6 0.02 0
27.68 0.02 0
27.76 0.02 0
27.84 0.02 0
27.92 0.02 0
28 0.02 0
28.08 0.02 0
28.16 0.02 0
28.24 0.02 0
28.32 0.02 0
28.4 0.02 0
28.48 0.02 0
28.56 0.02 0
28.64 0.02 0
28.72 0.02 0
28.8 0.02 0
28.88 0.02 0
28.96 0.02 0
29.04 0.02 0
29.12 0.02 0
29.2 0.02 0
29.28 0.02 0
29.36 0.02 0
29.44 0.02 0
29.52 0.02 0
29.6 0.02 0
29.68 0.02 0
29.76 0.02 0
29.84 0.02 0
29.92 0.02 0
30 0.02 0
30.08 0.02 0
30.16 0.02 0
30.24 0.02 0
30.32 0.02 0
30.4 0.02 0
30.48 0.02 0
30.56 0.02 0
30.64 0.02 0
30.72 0.02 0
30.8 0.02 0
30.88 0.02 0
30.96 0.02 0
31.04 0.02 0
31.12 0.02 0
31.2 0.02 0
31.28 0.02 0
31.36 0.02 0
31.44 0.02 0
31.52 0.02 0
31.6 0.02 0
31.68 0.02 0
31.76 0.02 0
31.84 0.02 0
31.92 0.02 0
0 0.04 0
0.08 0.04 0
0.16 0.04 0
0.24 0.04 0
0.32 0.04 0
0.4 0.04 0
0.48 0.04 0
0.56 0.04 0
0.64 0.04 0
0.72 0.04 0
0.8 0.04 0
0.88 0.04 0
0.96 0.04 0
1.04 0.04 0
1.12 0.04 0
1.2 0.04 0
1.28 0.04 0
1.36 0.04 0
1.44 0.04 0
1.52 0.04 0
1.6 0.04 0
1.68 0.04 0
1.76 0.04 0
1.84 0.04 0
1.92 0.04 0
2 0.04 0
2.08 0.04 0
2.16 0.04 0
2.24 0.04 0
2.32 0.04 0
2.4 0.04 0
2.48 0.04 0
2.56 0.04 0
2.64 0.04 0
2.72 0.04 0
2.8 0.04 0
2.88 0.04 0
2.96 0.04 0
3.04 0.04 0
3.12 0.04 0
3.2 0.04 0
3.28 0.04 0
3.36 0.04 0
3.44 0.04 0
3.52 0.04 0
3.6 0.04 0
3.68 0.04 0
3.76 0.04 0
3.84 0.04 0
3.92 0.04 0
4 0.04 0
4.08 0.04 0
4.16 0.04 0
4.24 0.04 0
4.32 0.04 0
4.4 0.04 0
4.48 0.04 0
4.56 0.04 0
4.64 0.04 0
4.72 0.04 0
4.8 0.04 0
4.88 0.04 0
4.96 0.04 0
5.04 0.04 0
5.12 0.04 0
5.2 0.04 0
5.28 0.04 0
5.36 0.04 0
5.44 0.04 0
5.52 0.04 0
5.6 0.04 0
5.68 0.04 0
5.76 0.04 0
5.84 0.04 0
5.92 0.04 0
6 0.04 0
6.08 0.04 0
6.16 0.04 0
6.24 0.04 0
6.32 0.04 0
6.4 0.04 0
6.48 0.04 0
6.56 0.04 0
6.64 0.04 0
6.72 0.04 0
6.8 0.04 0
6.88 0.04 0
6.96 0.04 0
7.04 0.04 0
7.12 0.04 0
7.2 0.04 0
7.28 0.04 0
7.36 0.04 0
7.44 0.04 0
7.52 0.04 0
7.6 0.04 0
7.68 0.04 0
7.76 0.04 0
7.84 0.04 0
[...]
POINT_DATA 20000

SCALARS v float 1
LOOKUP_TABLE default
0
0
0
0
0
0
0
0
0
0
0
0
0
0
0
0
0
0
0
0
0
0
0
0
0
0
0
0
0
0
0
0
0
0
0
0
0
0
0
0
0
0
0
0
0
0
0
0
0
0
0
0
0
0
0
0
0
0
0
0
0
0
0
0
0
0
0
0
0
0
0
0
0
0
0
0
0
0
0
0
0
0
0
0
0
0
0
0
0
0
0
0
0
0
0
0
0
0
0
0
0
0
0
0
0
0
0
0
0
0
0
0
0
0
0
0
0
0
0
0
0
0
0
0
0
0
0
0
0
0
0
0
0
0
0
0
0
0
0
0
0
0
0
0
0
0
0
0
0
0
0
0
0
0
0
0
0
0
0
0
0
0
0
0
0
0
0
0
0
0
0
0
0
0
0
0
0
0
0
0
0
0
0
0
0
0
0
0
0
0
0
0
0
0
0
0
0
0
0
0
0
0
0
0
0
0
0
0
0
0
0
0
0
0
0
0
0
0
0
0
0
0
0
0
0
0
0
0
0
0
0
0
0
0
0
0
0
0
0
0
0
0
0
0
0
0
0
0
0
0
0
0
0
0
0
0
0
0
0
0
0
0
0
0
0
0
0
0
0
0
0
0
0
0
0
0
0
0
0
0
0
0
0
0
0
0
0
0
0
0
0
0
0
0
0
0
0
0
0
0
0
0
0
0
0
0
0
0
0
0
0
0
0
0
0
0
0
0
0
0
0
0
0
0
0
0
0
0
0
0
0
0
0
0
0
0
0
0
0
0
0
0
0
0
0
0
0
0
0
0
0
0
0
0
0
0
0
0
0
0
0
0
0
0
0
0
0
0
0
0
0
0
0
0
0
0
0
0
0
0
0
0
0
0
0
0
0
0
0
0
0
0
0
0
0
0
0
0
0
0
-0.123059
0.123059
0.0536085
0.0192484
0.00858904
0.00489372
0.00319052
0.00223915
0.00164853
0.00125658
0.000983647
0.000786257
0.000638886
0.00052577
0.000436788
0.000365241
0.000306569
0.000257596
0.000216078
0.000180422
0.000149506
0.000122526
9.88656e-05
7.79896e-05
5.93958e-05
4.26393e-05
2.73852e-05
1.34313e-05
6.76354e-07
-1.09355e-05
-2.14533e-05
-3.09373e-05
-3.94804e-05
-4.72404e-05
-5.44463e-05
-6.1338e-05
-6.80562e-05
-7.45625e-05
-8.06658e-05
-8.61544e-05
-9.09436e-05
-9.51347e-05
-9.89546e-05
-0.000102634
-0.000106317
-0.000110038
-0.000113748
-0.000117338
-0.000120648
-0.000123497
-0.000125769
-0.000127524
-0.000129057
-0.000130815
-0.000133181
-0.000136238
-0.000139673
-0.000142916
-0.000145459
-0.000147171
-0.000148414
-0.000149868
-0.000152161
-0.000155506
-0.00015957
-0.000163639
-0.000166992
-0.000169264
-0.000170605
-0.00017156
-0.000172757
-0.00017459
-0.000177046
-0.000179763
-0.000182253
-0.000184155
-0.000185399
-0.0001862
-0.000186918
-0.000187868
-0.000189176
-0.000190743
-0.000192317
-0.000193617
-0.000194464
-0.00019484
-0.000194884
-0.000194826
-0.000194894
-0.000195239
-0.000195905
-0.000196829
-0.000197879
-0.000198906
-0.000199784
-0.000200435
-0.000200839
-0.00020102
-0.000201028
-0.000200924
-0.000200759
-0.00020057
-0.000200379
-0.000200191
-0.000200004
-0.000199813
-0.000199609
-0.000199389
-0.000199151
-0.000198896
-0.000198625
-0.000198342
-0.00019805
-0.000197752
-0.00019745
-0.000197143
-0.000196834
-0.000196523
-0.000196208
-0.000195891
-0.00019557
-0.000195245
-0.000194917
-0.000194585
-0.000194249
-0.000193908
-0.000193564
-0.000193216
-0.000192864
-0.000192508
-0.000192148
-0.000191784
-0.000191416
-0.000191044
-0.000190669
-0.000190289
-0.000189906
-0.000189518
-0.000189127
-0.000188732
-0.000188334
-0.000187931
-0.000187524
-0.000187114
-0.0001867
-0.000186282
-0.000185861
-0.000185435
-0.000185006
-0.000184573
-0.000184137
-0.000183697
-0.000183253
-0.000182806
-0.000182355
-0.0001819
-0.000181442
-0.000180981
-0.000180516
-0.000180047
-0.000179575
-0.0001791
-0.000178621
-0.000178139
-0.000177654
-0.000177165
-0.000176673
-0.000176178
-0.00017568
-0.000175179
-0.000174675
-0.000174167
-0.000173657
-0.000173144
-0.000172628
-0.000172108
-0.000171587
-0.000171062
-0.000170535
-0.000170005
-0.000169472
-0.000168937
-0.000168399
-0.000167858
-0.000167316
-0.000166771
-0.000166223
-0.000165673
-0.000165121
-0.000164567
-0.000164011
-0.000163453
-0.000162892
-0.00016233
-0.000161765
-0.000161199
-0.000160631
-0.000160062
-0.00015949
-0.000158918
-0.000158343
-0.000157767
-0.000157189
-0.000156611
-0.00015603
-0.000155449
-0.000154866
-0.000154283
-0.000153698
-0.000153112
-0.000152525
-0.000151937
-0.000151348
-0.000150759
-0.000150169
-0.000149578
-0.000148987
-0.000148395
-0.000147802
-0.00014721
-0.000146617
-0.000146023
-0.00014543
-0.000144836
-0.000144242
-0.000143648
-0.000143054
-0.000142461
-0.000141867
-0.000141274
-0.000140681
-0.000140088
-0.000139496
-0.000138904
-0.000138312
-0.000137722
-0.000137132
-0.000136542
-0.000135954
-0.000135366
-0.000134779
-0.000134193
-0.000133608
-0.000133025
-0.000132442
-0.00013186
-0.00013128
-0.000130701
-0.000130124
-0.000129548
-0.000128973
-0.0001284
-0.000127828
-0.000127259
-0.00012669
-0.000126124
-0.000125559
-0.000124997
-0.000124436
-0.000123877
-0.00012332
-0.000122766
-0.000122213
-0.000121663
-0.000121114
-0.000120568
-0.000120025
-0.000119484
-0.000118945
-0.000118409
-0.000117875
-0.000117344
-0.000116815
-0.000116289
-0.000115766
-0.000115245
-0.000114728
-0.000114213
-0.000113701
-0.000113191
-0.000112685
-0.000112182
-0.000111682
-0.000111185
-0.000110691
-0.0001102
-0.000109712
-0.000109228
-0.000108747
-0.000108269
-0.000107794
-0.000107323
-0.000106855
-0.000106391
-0.00010593
-0.000105473
-0.000105019
-0.000104569
-0.000104122
-0.000103679
-0.000103239
-0.000102803
-0.000102371
-0.000101943
-0.000101518
-0.000101097
-0.00010068
-0.000100266
-9.98568e-05
-9.94512e-05
-9.90494e-05
-9.86516e-05
-9.82576e-05
-9.78676e-05
-9.74816e-05
-9.70995e-05
-9.67215e-05
-9.63475e-05
-9.59775e-05
-9.56115e-05
-9.52497e-05
-9.48919e-05
-9.45382e-05
-9.41887e-05
-9.38432e-05
-9.3502e-05
-9.31648e-05
-9.28319e-05
-9.25031e-05
-9.21785e-05
-9.18582e-05
-9.1542e-05
-9.12301e-05
-9.09224e-05
-9.06189e-05
-9.03197e-05
-9.00248e-05
-8.97341e-05
-8.94477e-05
-8.91656e-05
-8.88878e-05
-8.86143e-05
-8.83451e-05
-8.80802e-05
-8.78196e-05
-8.75634e-05
-8.73114e-05
-8.70639e-05
-8.68205e-05
-8.65818e-05
-8.63469e-05
-8.61171e-05
-8.58906e-05
-8.56698e-05
-8.54516e-05
-8.524e-05
-8.50298e-05
-8.48278e-05
-8.46253e-05
-8.44334e-05
-8.42378e-05
-8.4057e-05
-8.38672e-05
-8.36986e-05
-8.35135e-05
-8.33585e-05
-8.31764e-05
-8.30369e-05
-8.28557e-05
-8.27346e-05
-8.25506e-05
-8.24527e-05
-8.22597e-05
-8.21935e-05
-8.19805e-05
-8.19601e-05
-8.17102e-05
-8.17559e-05
-8.1447e-05
-8.15822e-05
-8.11912e-05
-8.14392e-05
-8.09444e-05
-8.13272e-05
-8.07054e-05
-8.12549e-05
-8.04548e-05
-8.12641e-05
-8.01211e-05
-8.14629e-05
-7.95509e-05
-8.20137e-05
-7.85949e-05
-8.28646e-05
-7.75655e-05
-8.28172e-05
-7.78902e-05
-7.43591e-05
-7.35622e-05
-7.35622e-05
-0.141997
0.141997
0.100807
0.0537014
0.030037
0.0186944
0.0127007
0.00918348
0.00694794
0.00544243
0.00438353
0.00361243
0.00303414
0.00258906
0.00223847
0.00195647
0.00172537
0.0015328
0.00136998
0.00123064
0.00111024
0.00100541
0.000913519
0.000832351
0.000759975
0.000694796
0.000635649
0.000581785
0.000532739
0.000488162
0.000447723
0.000411068
0.000377759
0.000347211
0.00031871
0.000291606
0.000265591
0.000240854
0.000217917
0.000197248
0.000178897
0.000162416
0.000147091
0.000132286
0.000117659
0.000103177
8.90277e-05
7.55477e-05
6.31746e-05
5.23281e-05
4.3159e-05
3.52791e-05
2.77081e-05
1.92104e-05
8.92404e-06
-3.07603e-06
-1.56907e-05
-2.73412e-05
-3.68893e-05
-4.43869e-05
-5.11653e-05
-5.91555e-05
-6.98079e-05
-8.32362e-05
-9.80891e-05
-0.000112227
-0.000123815
-0.000132224
-0.000138249
-0.000143583
-0.000149882
-0.000157945
-0.000167415
-0.000177099
-0.000185663
-0.000192308
-0.000197095
-0.000200812
-0.000204499
-0.000208929
-0.000214273
-0.000220098
-0.00022563
-0.000230143
-0.00023327
-0.000235128
-0.000236233
-0.00023727
-0.000238841
-0.000241277
-0.000244578
-0.000248462
-0.0002525
-0.000256251
-0.000259385
-0.000261734
-0.000263295
-0.000264185
-0.000264583
-0.000264676
-0.000264615
-0.000264502
-0.000264388
-0.000264285
-0.000264181
-0.000264057
-0.000263895
-0.000263683
-0.000263419
-0.000263108
-0.00026276
-0.000262383
-0.000261988
-0.000261583
-0.000261172
-0.000260759
-0.000260346
-0.000259931
-0.000259516
-0.000259098
-0.000258677
-0.000258253
-0.000257824
-0.000257392
-0.000256954
-0.000256512
-0.000256065
-0.000255614
-0.000255159
-0.000254699
-0.000254235
-0.000253767
-0.000253294
-0.000252817
-0.000252336
-0.000251851
-0.000251362
-0.000250869
-0.000250372
-0.00024987
-0.000249365
-0.000248856
-0.000248342
-0.000247825
-0.000247303
-0.000246778
-0.000246249
-0.000245716
-0.000245179
-0.000244638
-0.000244093
-0.000243545
-0.000242993
-0.000242438
-0.000241878
-0.000241315
-0.000240749
-0.000240179
-0.000239605
-0.000239028
-0.000238448
-0.000237864
-0.000237277
-0.000236687
-0.000236093
-0.000235496
-0.000234896
-0.000234293
-0.000233687
-0.000233078
-0.000232466
-0.000231851
-0.000231233
-0.000230612
-0.000229988
-0.000229362
-0.000228733
-0.000228102
-0.000227468
-0.000226832
-0.000226193
-0.000225551
-0.000224908
-0.000224262
-0.000223614
-0.000222964
-0.000222311
-0.000221657
-0.000221001
-0.000220343
-0.000219683
-0.000219021
-0.000218357
-0.000217692
-0.000217025
-0.000216357
-0.000215687
-0.000215016
-0.000214344
-0.00021367
-0.000212995
-0.000212319
-0.000211642
-0.000210964
-0.000210285
-0.000209605
-0.000208924
-0.000208243
-0.00020756
-0.000206878
-0.000206194
-0.000205511
-0.000204826
-0.000204142
-0.000203457
-0.000202772
-0.000202087
-0.000201402
-0.000200717
-0.000200032
-0.000199347
-0.000198662
-0.000197978
-0.000197294
-0.00019661
-0.000195927
-0.000195244
-0.000194562
-0.000193881
-0.0001932
-0.000192521
-0.000191842
-0.000191164
-0.000190487
-0.000189811
-0.000189136
-0.000188463
-0.000187791
-0.00018712
-0.00018645
-0.000185782
-0.000185116
-0.000184451
-0.000183788
-0.000183126
-0.000182467
-0.000181809
-0.000181153
-0.000180499
-0.000179846
-0.000179197
-0.000178549
-0.000177903
-0.00017726
-0.000176619
-0.00017598
-0.000175344
-0.00017471
-0.000174078
-0.00017345
-0.000172824
-0.0001722
-0.00017158
-0.000170962
-0.000170347
-0.000169734
-0.000169125
-0.000168519
-0.000167916
-0.000167316
-0.000166719
-0.000166125
-0.000165535
-0.000164947
-0.000164364
-0.000163783
-0.000163206
-0.000162632
-0.000162062
-0.000161495
-0.000160932
-0.000160373
-0.000159817
-0.000159265
-0.000158716
-0.000158172
-0.000157631
-0.000157094
-0.00015656
-0.000156031
-0.000155506
-0.000154985
-0.000154467
-0.000153954
-0.000153445
-0.00015294
-0.000152439
-0.000151942
-0.000151449
-0.000150961
-0.000150476
-0.000149996
-0.000149521
-0.000149049
-0.000148582
-0.00014812
-0.000147661
-0.000147208
-0.000146758
-0.000146313
-0.000145873
-0.000145437
-0.000145005
-0.000144578
-0.000144156
-0.000143738
-0.000143324
-0.000142916
-0.000142512
-0.000142112
-0.000141717
-0.000141327
-0.000140941
-0.000140561
-0.000140184
-0.000139813
-0.000139446
-0.000139084
-0.000138727
-0.000138374
-0.000138026
-0.000137683
-0.000137345
-0.000137011
-0.000136683
-0.000136359
-0.000136039
-0.000135725
-0.000135415
-0.000135111
-0.000134811
-0.000134515
-0.000134225
-0.00013394
-0.000133659
-0.000133383
-0.000133112
-0.000132846
-0.000132584
-0.000132328
-0.000132075
-0.00013183
-0.000131586
-0.000131351
-0.000131116
-0.000130892
-0.000130664
-0.000130453
-0.000130231
-0.000130035
-0.000129817
-0.000129637
-0.00012942
-0.000129261
-0.00012904
-0.000128907
-0.000128677
-0.000128575
-0.000128331
-0.000128269
-0.000127998
-0.000127992
-0.000127674
-0.000127751
-0.000127352
-0.000127556
-0.000127021
-0.000127419
-0.000126678
-0.000127344
-0.000126322
-0.00012733
-0.000125962
-0.000127379
-0.000125594
-0.000127519
-0.000125155
-0.000127881
-0.000124424
-0.000128807
-0.000122919
-0.000130813
-0.000120164
-0.000133743
-0.0001171
-0.000133967
-0.000117826
-0.000112675
-0.000108276
-0.000108276
-0.122094
0.122094
0.121466
0.0820493
0.0537662
0.0366303
0.0261561
0.019476
0.0150212
0.0119312
0.00971496
0.00807925
0.00684093
0.00588157
0.00512238
0.0045098
0.00400678
0.00358723
0.00323257
0.00292933
0.00266764
0.00244
0.00224047
0.0020641
0.00190673
0.00176507
0.00163673
0.00152013
0.00141416
0.00131789
0.00123044
0.00115088
0.00107821
0.00101124
0.000948681
0.000889441
0.000833088
0.000779993
0.000730992
0.000686703
0.000646976
0.000610852
0.000577016
0.000544382
0.000512417
0.00048112
0.000450842
0.000422153
0.000395744
0.000372207
0.000351605
0.000333067
0.000314788
0.000294693
0.000271518
0.000245672
0.000219219
0.000194806
0.000174077
0.000156535
0.000139606
0.000119986
9.55174e-05
6.6499e-05
3.56704e-05
6.84805e-06
-1.70009e-05
-3.51753e-05
-4.94037e-05
-6.27502e-05
-7.79419e-05
-9.6043e-05
-0.000116117
-0.000135937
-0.00015325
-0.000166898
-0.000177257
-0.000185869
-0.000194564
-0.000204561
-0.000215981
-0.000227931
-0.000239038
-0.000248128
-0.000254733
-0.000259233
-0.000262641
-0.000266174
-0.000270806
-0.000276984
-0.000284555
-0.000292911
-0.00030123
-0.00030874
-0.0003149
-0.000319487
-0.000322568
-0.000324413
-0.000325379
-0.000325816
-0.000325998
-0.000326099
-0.000326202
-0.000326317
-0.000326421
-0.000326476
-0.000326451
-0.00032633
-0.000326113
-0.000325811
-0.000325443
-0.000325029
-0.000324586
-0.000324129
-0.000323668
-0.000323206
-0.000322748
-0.000322291
-0.000321835
-0.000321379
-0.000320921
-0.000320459
-0.000319993
-0.000319523
-0.000319047
-0.000318566
-0.00031808
-0.000317589
-0.000317094
-0.000316593
-0.000316089
-0.00031558
-0.000315067
-0.000314549
-0.000314027
-0.000313501
-0.000312971
-0.000312436
-0.000311898
-0.000311355
-0.000310808
-0.000310257
-0.000309702
-0.000309143
-0.000308579
-0.000308012
-0.000307441
-0.000306866
-0.000306287
-0.000305704
-0.000305118
-0.000304527
-0.000303933
-0.000303335
-0.000302734
-0.000302128
-0.00030152
-0.000300908
-0.000300292
-0.000299673
-0.00029905
-0.000298424
-0.000297795
-0.000297163
-0.000296527
-0.000295888
-0.000295246
-0.000294601
-0.000293953
-0.000293302
-0.000292648
-0.000291992
-0.000291332
-0.00029067
-0.000290005
-0.000289338
-0.000288668
-0.000287995
-0.00028732
-0.000286643
-0.000285963
-0.000285281
-0.000284597
-0.00028391
-0.000283222
-0.000282532
-0.000281839
-0.000281145
-0.000280449
-0.000279751
-0.000279051
-0.00027835
-0.000277647
-0.000276943
-0.000276237
-0.00027553
-0.000274822
-0.000274112
-0.000273402
-0.00027269
-0.000271977
-0.000271263
-0.000270548
-0.000269833
-0.000269117
-0.0002684
-0.000267682
-0.000266964
-0.000266245
-0.000265526
-0.000264807
-0.000264087
-0.000263368
-0.000262648
-0.000261928
-0.000261208
-0.000260488
-0.000259768
-0.000259049
-0.000258329
-0.000257611
-0.000256892
-0.000256174
-0.000255457
-0.00025474
-0.000254024
-0.000253309
-0.000252595
-0.000251882
-0.000251169
-0.000250458
-0.000249748
-0.000249038
-0.000248331
-0.000247624
-0.000246919
-0.000246215
-0.000245513
-0.000244813
-0.000244114
-0.000243417
-0.000242721
-0.000242028
-0.000241336
-0.000240646
-0.000239959
-0.000239273
-0.00023859
-0.000237909
-0.00023723
-0.000236553
-0.000235879
-0.000235207
-0.000234538
-0.000233871
-0.000233207
-0.000232546
-0.000231887
-0.000231231
-0.000230578
-0.000229928
-0.000229281
-0.000228637
-0.000227995
-0.000227357
-0.000226722
-0.000226091
-0.000225462
-0.000224837
-0.000224215
-0.000223597
-0.000222982
-0.000222371
-0.000221763
-0.000221158
-0.000220558
-0.00021996
-0.000219367
-0.000218777
-0.000218192
-0.00021761
-0.000217032
-0.000216457
-0.000215887
-0.000215321
-0.000214758
-0.0002142
-0.000213646
-0.000213096
-0.00021255
-0.000212008
-0.000211471
-0.000210938
-0.000210409
-0.000209884
-0.000209364
-0.000208848
-0.000208336
-0.000207829
-0.000207327
-0.000206829
-0.000206335
-0.000205846
-0.000205361
-0.000204881
-0.000204406
-0.000203935
-0.000203469
-0.000203007
-0.000202551
-0.000202098
-0.000201651
-0.000201208
-0.00020077
-0.000200337
-0.000199909
-0.000199485
-0.000199067
-0.000198653
-0.000198244
-0.000197839
-0.00019744
-0.000197046
-0.000196656
-0.000196271
-0.000195892
-0.000195517
-0.000195147
-0.000194782
-0.000194422
-0.000194067
-0.000193716
-0.000193371
-0.000193031
-0.000192696
-0.000192366
-0.00019204
-0.00019172
-0.000191405
-0.000191094
-0.000190789
-0.000190489
-0.000190193
-0.000189903
-0.000189618
-0.000189338
-0.000189062
-0.000188792
-0.000188526
-0.000188267
-0.00018801
-0.000187762
-0.000187513
-0.000187278
-0.000187036
-0.000186814
-0.000186578
-0.000186371
-0.000186139
-0.000185951
-0.000185717
-0.000185554
-0.000185312
-0.000185181
-0.000184923
-0.000184833
-0.000184549
-0.000184511
-0.00018419
-0.000184221
-0.000183839
-0.00018397
-0.000183488
-0.000183773
-0.000183121
-0.00018365
-0.000182721
-0.00018362
-0.000182279
-0.000183691
-0.000181804
-0.000183858
-0.000181307
-0.000184127
-0.000180775
-0.000184567
-0.000180077
-0.000185441
-0.000178777
-0.000187411
-0.000175974
-0.000191402
-0.000170901
-0.000196928
-0.000165511
-0.000197459
-0.000166422
-0.000167072
-0.000150804
-0.000150804
-0.0941713
0.0941713
0.120828
0.0967501
0.0715613
0.0529613
0.0399629
0.0308716
0.0244141
0.0197359
0.0162766
0.0136669
0.0116593
0.0100856
0.00882915
0.00780848
0.00696598
0.00626059
0.00566274
0.00515085
0.00470879
0.00432412
0.00398673
0.00368818
0.00342149
0.00318126
0.0029637
0.00276623
0.00258692
0.00242405
0.00227589
0.00214072
0.00201677
0.00190212
0.00179485
0.00169351
0.00159763
0.00150781
0.00142516
0.0013503
0.0012827
0.00122076
0.00116251
0.00110643
0.00105185
0.000998815
0.000947822
0.000899615
0.000855051
0.000814786
0.0007787
0.00074537
0.000712162
0.000676224
0.000635992
0.000592307
0.000548228
0.000507406
0.00047185
0.000440454
0.000409308
0.000373757
0.000331071
0.000282162
0.000231321
0.000184106
0.000144557
0.00011331
8.75718e-05
6.28522e-05
3.54064e-05
4.03644e-06
-2.95977e-05
-6.21452e-05
-9.04387e-05
-0.000113046
-0.000130773
-0.00014601
-0.000161405
-0.0001786
-0.000197605
-0.000217025
-0.000234889
-0.000249631
-0.000260771
-0.000269044
-0.000276022
-0.000283456
-0.000292647
-0.000304065
-0.000317312
-0.000331363
-0.000344956
-0.00035697
-0.000366681
-0.00037385
-0.000378671
-0.000381614
-0.000383256
-0.000384135
-0.000384658
-0.000385077
-0.000385498
-0.000385931
-0.000386332
-0.000386644
-0.000386823
-0.00038685
-0.000386728
-0.000386478
-0.000386131
-0.000385717
-0.000385266
-0.000384797
-0.000384324
-0.000383856
-0.000383394
-0.000382938
-0.000382486
-0.000382035
-0.000381583
-0.000381127
-0.000380667
-0.000380202
-0.000379732
-0.000379255
-0.000378774
-0.000378287
-0.000377795
-0.000377299
-0.000376798
-0.000376292
-0.000375782
-0.000375268
-0.000374749
-0.000374226
-0.000373699
-0.000373167
-0.000372631
-0.000372091
-0.000371547
-0.000370999
-0.000370446
-0.00036989
-0.000369329
-0.000368764
-0.000368195
-0.000367622
-0.000367046
-0.000366465
-0.00036588
-0.000365292
-0.0003647
-0.000364104
-0.000363504
-0.000362901
-0.000362294
-0.000361683
-0.000361069
-0.000360452
-0.000359831
-0.000359206
-0.000358579
-0.000357948
-0.000357313
-0.000356676
-0.000356035
-0.000355392
-0.000354745
-0.000354095
-0.000353443
-0.000352787
-0.000352129
-0.000351468
-0.000350804
-0.000350138
-0.000349469
-0.000348797
-0.000348123
-0.000347447
-0.000346768
-0.000346087
-0.000345403
-0.000344718
-0.00034403
-0.000343341
-0.000342649
-0.000341956
-0.000341261
-0.000340563
-0.000339865
-0.000339164
-0.000338462
-0.000337759
-0.000337054
-0.000336347
-0.00033564
-0.000334931
-0.000334221
-0.00033351
-0.000332798
-0.000332084
-0.00033137
-0.000330656
-0.00032994
-0.000329224
-0.000328507
-0.000327789
-0.000327071
-0.000326353
-0.000325634
-0.000324915
-0.000324196
-0.000323477
-0.000322758
-0.000322038
-0.000321319
-0.0003206
-0.000319881
-0.000319163
-0.000318445
-0.000317727
-0.00031701
-0.000316293
-0.000315577
-0.000314862
-0.000314148
-0.000313434
-0.000312722
-0.00031201
-0.000311299
-0.00031059
-0.000309882
-0.000309175
-0.000308469
-0.000307765
-0.000307062
-0.000306361
-0.000305661
-0.000304963
-0.000304267
-0.000303572
-0.00030288
-0.000302189
-0.0003015
-0.000300814
-0.000300129
-0.000299447
-0.000298767
-0.000298089
-0.000297413
-0.00029674
-0.000296069
-0.000295401
-0.000294736
-0.000294073
-0.000293412
-0.000292755
-0.0002921
-0.000291448
-0.000290799
-0.000290154
-0.000289511
-0.000288871
-0.000288234
-0.0002876
-0.00028697
-0.000286343
-0.000285719
-0.000285099
-0.000284482
-0.000283868
-0.000283258
-0.000282652
-0.000282049
-0.00028145
-0.000280854
-0.000280262
-0.000279674
-0.00027909
-0.00027851
-0.000277933
-0.00027736
-0.000276792
-0.000276227
-0.000275666
-0.00027511
-0.000274557
-0.000274009
-0.000273465
-0.000272925
-0.000272389
-0.000271858
-0.000271331
-0.000270808
-0.000270289
-0.000269775
-0.000269265
-0.00026876
-0.000268259
-0.000267763
-0.000267271
-0.000266784
-0.000266301
-0.000265823
-0.00026535
-0.000264881
-0.000264417
-0.000263957
-0.000263502
-0.000263052
-0.000262607
-0.000262166