# vtk DataFile Version 2.0
FlowField
ASCII
DATASET STRUCTURED_GRID
DIMENSIONS 400 1 50
POINTS 20000 float
0 0 0
0.08 0 0
0.16 0 0
0.24 0 0
0.32 0 0
0.4 0 0
0.48 0 0
0.56 0 0
0.64 0 0
0.72 0 0
0.8 0 0
0.88 0 0
0.96 0 0
1.04 0 0
1.12 0 0
1.2 0 0
1.28 0 0
1.36 0 0
1.44 0 0
1.52 0 0
1.6 0 0
1.68 0 0
1.76 0 0
1.84 0 0
1.92 0 0
2 0 0
2.08 0 0
2.16 0 0
2.24 0 0
2.32 0 0
2.4 0 0
2.48 0 0
2.56 0 0
2.64 0 0
2.72 0 0
2.8 0 0
2.88 0 0
2.96 0 0
3.04 0 0
3.12 0 0
3.2 0 0
3.28 0 0
3.36 0 0
3.44 0 0
3.52 0 0
3.6 0 0
3.68 0 0
3.76 0 0
3.84 0 0
3.92 0 0
4 0 0
4.08 0 0
4.16 0 0
4.24 0 0
4.32 0 0
4.4 0 0
4.48 0 0
4.56 0 0
4.64 0 0
4.72 0 0
4.8 0 0
4.88 0 0
4.96 0 0
5.04 0 0
5.12 0 0
5.2 0 0
5.28 0 0
5.36 0 0
5.44 0 0
5.52 0 0
5.6 0 0
5.68 0 0
5.76 0 0
5.84 0 0
5.92 0 0
6 0 0
6.08 0 0
6.16 0 0
6.24 0 0
6.32 0 0
6.4 0 0
6.48 0 0
6.56 0 0
6.64 0 0
6.72 0 0
6.8 0 0
6.88 0 0
6.96 0 0
7.04 0 0
7.12 0 0
7.2 0 0
7.28 0 0
7.36 0 0
7.44 0 0
7.52 0 0
7.6 0 0
7.68 0 0
7.76 0 0
7.84 0 0
7.92 0 0
8 0 0
8.08 0 0
8.16 0 0
8.24 0 0
8.32 0 0
8.4 0 0
8.48 0 0
8.56 0 0
8.64 0 0
8.72 0 0
8.8 0 0
8.88 0 0
8.96 0 0
9.04 0 0
9.12 0 0
9.2 0 0
9.28 0 0
9.36 0 0
9.44 0 0
9.52 0 0
9.6 0 0
9.68 0 0
9.76 0 0
9.84 0 0
9.92 0 0
10 0 0
10.08 0 0
10.16 0 0
10.24 0 0
10.32 0 0
10.4 0 0
10.48 0 0
10.56 0 0
10.64 0 0
10.72 0 0
10.8 0 0
10.88 0 0
10.96 0 0
11.04 0 0
11.12 0 0
11.2 0 0
11.28 0 0
11.36 0 0
11.44 0 0
11.52 0 0
11.6 0 0
11.68 0 0
11.76 0 0
11.84 0 0
11.92 0 0
12 0 0
12.08 0 0
12.16 0 0
12.24 0 0
12.32 0 0
12.4 0 0
12.48 0 0
12.56 0 0
12.64 0 0
12.72 0 0
12.8 0 0
12.88 0 0
12.96 0 0
13.04 0 0
13.12 0 0
13.2 0 0
13.28 0 0
13.36 0 0
13.44 0 0
13.52 0 0
13.6 0 0
13.68 0 0
13.76 0 0
13.84 0 0
13.92 0 0
14 0 0
14.08 0 0
14.16 0 0
14.24 0 0
14.32 0 0
14.4 0 0
14.48 0 0
14.56 0 0
14.64 0 0
14.72 0 0
14.8 0 0
14.88 0 0
14.96 0 0
15.04 0 0
15.12 0 0
15.2 0 0
15.28 0 0
15.36 0 0
15.44 0 0
15.52 0 0
15.6 0 0
15.68 0 0
15.76 0 0
15.84 0 0
15.92 0 0
16 0 0
16.08 0 0
16.16 0 0
16.24 0 0
16.32 0 0
16.4 0 0
16.48 0 0
16.56 0 0
16.64 0 0
16.72 0 0
16.8 0 0
16.88 0 0
16.96 0 0
17.04 0 0
17.12 0 0
17.2 0 0
17.28 0 0
17.36 0 0
17.44 0 0
17.52 0 0
17.6 0 0
17.68 0 0
17.76 0 0
17.84 0 0
17.92 0 0
18 0 0
18.08 0 0
18.16 0 0
18.24 0 0
18.32 0 0
18.4 0 0
18.48 0 0
18.56 0 0
18.64 0 0
18.72 0 0
18.8 0 0
18.88 0 0
18.96 0 0
19.04 0 0
19.12 0 0
19.2 0 0
19.28 0 0
19.36 0 0
19.44 0 0
19.52 0 0
19.6 0 0
19.68 0 0
19.76 0 0
19.84 0 0
19.92 0 0
20 0 0
20.08 0 0
20.16 0 0
20.24 0 0
20.32 0 0
20.4 0 0
20.48 0 0
20.56 0 0
20.64 0 0
20.72 0 0
20.8 0 0
20.88 0 0
20.96 0 0
21.04 0 0
21.12 0 0
21.2 0 0
21.28 0 0
21.36 0 0
21.44 0 0
21.52 0 0
21.6 0 0
21.68 0 0
21.76 0 0
21.84 0 0
21.92 0 0
22 0 0
22.08 0 0
22.16 0 0
22.24 0 0
22.32 0 0
22.4 0 0
22.48 0 0
22.56 0 0
22.64 0 0
22.72 0 0
22.8 0 0
22.88 0 0
22.96 0 0
23.04 0 0
23.12 0 0
23.2 0 0
23.28 0 0
23.36 0 0
23.44 0 0
23.52 0 0
23.6 0 0
23.68 0 0
23.76 0 0
23.84 0 0
23.92 0 0
24 0 0
24.08 0 0
24.16 0 0
24.24 0 0
24.32 0 0
24.4 0 0
24.48 0 0
24.56 0 0
24.64 0 0
24.72 0 0
24.8 0 0
24.88 0 0
24.96 0 0
25.04 0 0
25.12 0 0
25.2 0 0
25.28 0 0
25.36 0 0
25.44 0 0
25.52 0 0
25.6 0 0
25.68 0 0
25.76 0 0
25.84 0 0
25.92 0 0
26 0 0
26.08 0 0
26.16 0 0
26.24 0 0
26.32 0 0
26.4 0 0
26.48 0 0
26.56 0 0
26.64 0 0
26.72 0 0
26.8 0 0
26.88 0 0
26.96 0 0
27.04 0 0
27.12 0 0
27.2 0 0
27.28 0 0
27.36 0 0
27.44 0 0
27.52 0 0
27.6 0 0
27.68 0 0
27.76 0 0
27.84 0 0
27.92 0 0
28 0 0
28.08 0 0
28.16 0 0
28.24 0 0
28.32 0 0
28.4 0 0
28.48 0 0
28.56 0 0
28.64 0 0
28.72 0 0
28.8 0 0
28.88 0 0
28.96 0 0
29.04 0 0
29.12 0 0
29.2 0 0
29.28 0 0
29.36 0 0
29.44 0 0
29.52 0 0
29.6 0 0
29.68 0 0
29.76 0 0
29.84 0 0
29.92 0 0
30 0 0
30.08 0 0
30.16 0 0
30.24 0 0
30.32 0 0
30.4 0 0
30.48 0 0
30.56 0 0
30.64 0 0
30.72 0 0
30.8 0 0
30.88 0 0
30.96 0 0
31.04 0 0
31.12 0 0
31.2 0 0
31.28 0 0
31.36 0 0
31.44 0 0
31.52 0 0
31.6 0 0
31.68 0 0
31.76 0 0
31.84 0 0
31.92 0 0
0 0.02 0
0.08 0.02 0
0.16 0.02 0
0.24 0.02 0
0.32 0.02 0
0.4 0.02 0
0.48 0.02 0
0.56 0.02 0
0.64 0.02 0
0.72 0.02 0
0.8 0.02 0
0.88 0.02 0
0.96 0.02 0
1.04 0.02 0
1.12 0.02 0
1.2 0.02 0
1.28 0.02 0
1.36 0.02 0
1.44 0.02 0
1.52 0.02 0
1.6 0.02 0
1.68 0.02 0
1.76 0.02 0
1.84 0.02 0
1.92 0.02 0
2 0.02 0
2.08 0.02 0
2.16 0.02 0
2.24 0.02 0
2.32 0.02 0
2.4 0.02 0
2.48 0.02 0
2.56 0.02 0
2.64 0.02 0
2.72 0.02 0
2.8 0.02 0
2.88 0.02 0
2.96 0.02 0
3.04 0.02 0
3.12 0.02 0
3.2 0.02 0
3.28 0.02 0
3.36 0.02 0
3.44 0.02 0
3.52 0.02 0
3.6 0.02 0
3.68 0.02 0
3.76 0.02 0
3.84 0.02 0
3.92 0.02 0
4 0.02 0
4.08 0.02 0
4.16 0.02 0
4.24 0.02 0
4.32 0.02 0
4.4 0.02 0
4.48 0.02 0
4.56 0.02 0
4.64 0.02 0
4.72 0.02 0
4.8 0.02 0
4.88 0.02 0
4.96 0.02 0
5.04 0.02 0
5.12 0.02 0
5.2 0.02 0
5.28 0.02 0
5.36 0.02 0
5.44 0.02 0
5.52 0.02 0
5.6 0.02 0
5.68 0.02 0
5.76 0.02 0
5.84 0.02 0
5.92 0.02 0
6 0.02 0
6.08 0.02 0
6.16 0.02 0
6.24 0.02 0
6.32 0.02 0
6.4 0.02 0
6.48 0.02 0
6.56 0.02 0
6.64 0.02 0
6.72 0.02 0
6.8 0.02 0
6.88 0.02 0
6.96 0.02 0
7.04 0.02 0
7.12 0.02 0
7.2 0.02 0
7.28 0.02 0
7.36 0.02 0
7.44 0.02 0
7.52 0.02 0
7.6 0.02 0
7.68 0.02 0
7.76 0.02 0
7.84 0.02 0
7.92 0.02 0
8 0.02 0
8.08 0.02 0
8.16 0.02 0
8.24 0.02 0
8.32 0.02 0
8.4 0.02 0
8.48 0.02 0
8.56 0.02 0
8.64 0.02 0
8.72 0.02 0
8.8 0.02 0
8.88 0.02 0
8.96 0.02 0
9.04 0.02 0
9.12 0.02 0
9.2 0.02 0
9.28 0.02 0
9.36 0.02 0
9.44 0.02 0
9.52 0.02 0
9.6 0.02 0
9.68 0.02 0
9.76 0.02 0
9.84 0.02 0
9.92 0.02 0
10 0.02 0
10.08 0.02 0
10.16 0.02 0
10.24 0.02 0
10.32 0.02 0
10.4 0.02 0
10.48 0.02 0
10.56 0.02 0
10.64 0.02 0
10.72 0.02 0
10.8 0.02 0
10.88 0.02 0
10.96 0.02 0
11.04 0.02 0
11.12 0.02 0
11.2 0.02 0
11.28 0.02 0
11.36 0.02 0
11.44 0.02 0
11.52 0.02 0
11.6 0.02 0
11.68 0.02 0
11.76 0.02 0
11.84 0.02 0
11.92 0.02 0
12 0.02 0
12.08 0.02 0
12.16 0.02 0
12.24 0.02 0
12.32 0.02 0
12.4 0.02 0
12.48 0.02 0
12.56 0.02 0
12.64 0.02 0
12.72 0.02 0
12.8 0.02 0
12.88 0.02 0
12.96 0.02 0
13.04 0.02 0
13.12 0.02 0
13.2 0.02 0
13.28 0.02 0
13.36 0.02 0
13.44 0.02 0
13.52 0.02 0
13.6 0.02 0
13.68 0.02 0
13.76 0.02 0
13.84 0.02 0
13.92 0.02 0
14 0.02 0
14.08 0.02 0
14.16 0.02 0
14.24 0.02 0
14.32 0.02 0
14.4 0.02 0
14.48 0.02 0
14.56 0.02 0
14.64 0.02 0
14.72 0.02 0
14.8 0.02 0
14.88 0.02 0
14.96 0.02 0
15.04 0.02 0
15.12 0.02 0
15.2 0.02 0
15.28 0.02 0
15.36 0.02 0
15.44 0.02 0
15.52 0.02 0
15.6 0.02 0
15.68 0.02 0
15.76 0.02 0
15.84 0.02 0
15.92 0.02 0
16 0.02 0
16.08 0.02 0
16.16 0.02 0
16.24 0.02 0
16.32 0.02 0
16.4 0.02 0
16.48 0.02 0
16.56 0.02 0
16.64 0.02 0
16.72 0.02 0
16.8 0.02 0
16.88 0.02 0
16.96 0.02 0
17.04 0.02 0
17.12 0.02 0
17.2 0.02 0
17.28 0.02 0
17.36 0.02 0
17.44 0.02 0
17.52 0.02 0
17.6 0.02 0
17.68 0.02 0
17.76 0.02 0
17.84 0.02 0
17.92 0.02 0
18 0.02 0
18.08 0.02 0
18.16 0.02 0
18.24 0.02 0
18.32 0.02 0
18.4 0.02 0
18.48 0.02 0
18.56 0.02 0
18.64 0.02 0
18.72 0.02 0
18.8 0.02 0
18.88 0.02 0
18.96 0.02 0
19.04 0.02 0
19.12 0.02 0
19.2 0.02 0
19.28 0.02 0
19.36 0.02 0
19.44 0.02 0
19.52 0.02 0
19.6 0.02 0
19.68 0.02 0
19.76 0.02 0
19.84 0.02 0
19.92 0.02 0
20 0.02 0
20.08 0.02 0
20.16 0.02 0
20.24 0.02 0
20.32 0.02 0
20.4 0.02 0
20.48 0.02 0
20.56 0.02 0
20.64 0.02 0
20.72 0.02 0
20.8 0.02 0
20.88 0.02 0
20.96 0.02 0
21.04 0.02 0
21.12 0.02 0
21.2 0.02 0
21.28 0.02 0
21.36 0.02 0
21.44 0.02 0
21.52 0.02 0
21.6 0.02 0
21.68 0.02 0
21.76 0.02 0
21.84 0.02 0
21.92 0.02 0
22 0.02 0
22.08 0.02 0
22.16 0.02 0
22.24 0.02 0
22.32 0.02 0
22.4 0.02 0
22.48 0.02 0
22.56 0.02 0
22.64 0.02 0
22.72 0.02 0
22.8 0.02 0
22.88 0.02 0
22.96 0.02 0
23.04 0.02 0
23.12 0.02 0
23.2 0.02 0
23.28 0.02 0
23.36 0.02 0
23.44 0.02 0
23.52 0.02 0
23.6 0.02 0
23.68 0.02 0
23.76 0.02 0
23.84 0.02 0
23.92 0.02 0
24 0.02 0
24.08 0.02 0
24.16 0.02 0
24.24 0.02 0
24.32 0.02 0
24.4 0.02 0
24.48 0.02 0
24.56 0.02 0
24.64 0.02 0
24.72 0.02 0
24.8 0.02 0
24.88 0.02 0
24.96 0.02 0
25.04 0.02 0
25.12 0.02 0
25.2 0.02 0
25.28 0.02 0
25.36 0.02 0
25.44 0.02 0
25.52 0.02 0
25.6 0.02 0
25.68 0.02 0
25.76 0.02 0
25.84 0.02 0
25.92 0.02 0
26 0.02 0
26.08 0.02 0
26.16 0.02 0
26.24 0.02 0
26.32 0.02 0
26.4 0.02 0
26.48 0.02 0
26.56 0.02 0
26.64 0.02 0
26.72 0.02 0
26.8 0.02 0
26.88 0.02 0
26.96 0.02 0
27.04 0.02 0
27.12 0.02 0
27.2 0.02 0
27.28 0.02 0
27.36 0.02 0
27.44 0.02 0
27.52 0.02 0
27.6 0.02 0
27.68 0.02 0
27.76 0.02 0
27.84 0.02 0
27.92 0.02 0
28 0.02 0
28.08 0.02 0
28.16 0.02 0
28.24 0.02 0
28.32 0.02 0
28.4 0.02 0
28.48 0.02 0
28.56 0.02 0
28.64 0.02 0
28.72 0.02 0
28.8 0.02 0
28.88 0.02 0
28.96 0.02 0
29.04 0.02 0
29.12 0.02 0
29.2 0.02 0
29.28 0.02 0
29.36 0.02 0
29.44 0.02 0
29.52 0.02 0
29.6 0.02 0
29.68 0.02 0
29.76 0.02 0
29.84 0.02 0
29.92 0.02 0
30 0.02 0
30.08 0.02 0
30.16 0.02 0
30.24 0.02 0
30.32 0.02 0
30.4 0.02 0
30.48 0.02 0
30.56 0.02 0
30.64 0.02 0
30.72 0.02 0
30.8 0.02 0
30.88 0.02 0
30.96 0.02 0
31.04 0.02 0
31.12 0.02 0
31.2 0.02 0
31.28 0.02 0
31.36 0.02 0
31.44 0.02 0
31.52 0.02 0
31.6 0.02 0
31.68 0.02 0
31.76 0.02 0
31.84 0.02 0
31.92 0.02 0
0 0.04 0
0.08 0.04 0
0.16 0.04 0
0.24 0.04 0
0.32 0.04 0
0.4 0.04 0
0.48 0.04 0
0.56 0.04 0
0.64 0.04 0
0.72 0.04 0
0.8 0.04 0
0.88 0.04 0
0.96 0.04 0
1.04 0.04 0
1.12 0.04 0
1.2 0.04 0
1.28 0.04 0
1.36 0.04 0
1.44 0.04 0
1.52 0.04 0
1.6 0.04 0
1.68 0.04 0
1.76 0.04 0
1.84 0.04 0
1.92 0.04 0
2 0.04 0
2.08 0.04 0
2.16 0.04 0
2.24 0.04 0
2.32 0.04 0
2.4 0.04 0
2.48 0.04 0
2.56 0.04 0
2.64 0.04 0
2.72 0.04 0
2.8 0.04 0
2.88 0.04 0
2.96 0.04 0
3.04 0.04 0
3.12 0.04 0
3.2 0.04 0
3.28 0.04 0
3.36 0.04 0
3.44 0.04 0
3.52 0.04 0
3.6 0.04 0
3.68 0.04 0
3.76 0.04 0
3.84 0.04 0
3.92 0.04 0
4 0.04 0
4.08 0.04 0
4.16 0.04 0
4.24 0.04 0
4.32 0.04 0
4.4 0.04 0
4.48 0.04 0
4.56 0.04 0
4.64 0.04 0
4.72 0.04 0
4.8 0.04 0
4.88 0.04 0
4.96 0.04 0
5.04 0.04 0
5.12 0.04 0
5.2 0.04 0
5.28 0.04 0
5.36 0.04 0
5.44 0.04 0
5.52 0.04 0
5.6 0.04 0
5.68 0.04 0
5.76 0.04 0
5.84 0.04 0
5.92 0.04 0
6 0.04 0
6.08 0.04 0
6.16 0.04 0
6.24 0.04 0
6.32 0.04 0
6.4 0.04 0
6.48 0.04 0
6.56 0.04 0
6.64 0.04 0
6.72 0.04 0
6.8 0.04 0
6.88 0.04 0
6.96 0.04 0
7.04 0.04 0
7.12 0.04 0
7.2 0.04 0
7.28 0.04 0
7.36 0.04 0
7.44 0.04 0
7.52 0.04 0
7.6 0.04 0
7.68 0.04 0
7.76 0.04 0
7.84 0.04 0
[...]
POINT_DATA 20000

SCALARS u float 1
LOOKUP_TABLE default
0
-0.507089
-0.291919
-0.214161
-0.179026
-0.158665
-0.145111
-0.13536
-0.127967
-0.12214
-0.117402
-0.113451
-0.110087
-0.107174
-0.104616
-0.102342
-0.100303
-0.0984581
-0.0967783
-0.0952398
-0.0938238
-0.0925148
-0.0913003
-0.0901695
-0.0891136
-0.088125
-0.0871969
-0.0863237
-0.0855004
-0.0847227
-0.0839866
-0.0832889
-0.0826263
-0.0819963
-0.0813963
-0.0808243
-0.0802781
-0.079756
-0.0792565
-0.078778
-0.0783192
-0.0778788
-0.0774558
-0.077049
-0.0766577
-0.0762808
-0.0759176
-0.0755674
-0.0752294
-0.074903
-0.0745877
-0.0742828
-0.0739879
-0.0737025
-0.0734261
-0.0731583
-0.0728988
-0.0726471
-0.072403
-0.072166
-0.071936
-0.0717126
-0.0714955
-0.0712846
-0.0710795
-0.07088
-0.0706859
-0.0704971
-0.0703133
-0.0701343
-0.0699601
-0.0697903
-0.0696249
-0.0694637
-0.0693066
-0.0691535
-0.0690041
-0.0688585
-0.0687164
-0.0685778
-0.0684425
-0.0683106
-0.0681817
-0.068056
-0.0679332
-0.0678134
-0.0676963
-0.067582
-0.0674704
-0.0673613
-0.0672548
-0.0671507
-0.067049
-0.0669496
-0.0668525
-0.0667576
-0.0666649
-0.0665742
-0.0664856
-0.066399
-0.0663144
-0.0662316
-0.0661507
-0.0660716
-0.0659942
-0.0659186
-0.0658446
-0.0657723
-0.0657016
-0.0656324
-0.0655648
-0.0654987
-0.065434
-0.0653708
-0.0653089
-0.0652484
-0.0651893
-0.0651314
-0.0650748
-0.0650194
-0.0649653
-0.0649123
-0.0648605
-0.0648098
-0.0647603
-0.0647118
-0.0646644
-0.064618
-0.0645726
-0.0645282
-0.0644848
-0.0644423
-0.0644007
-0.0643601
-0.0643203
-0.0642814
-0.0642433
-0.0642061
-0.0641697
-0.064134
-0.0640992
-0.0640651
-0.0640317
-0.063999
-0.0639671
-0.0639358
-0.0639052
-0.0638753
-0.063846
-0.0638174
-0.0637893
-0.0637619
-0.0637351
-0.0637088
-0.0636831
-0.063658
-0.0636334
-0.0636093
-0.0635857
-0.0635627
-0.0635401
-0.0635181
-0.0634964
-0.0634753
-0.0634546
-0.0634344
-0.0634146
-0.0633952
-0.0633762
-0.0633577
-0.0633395
-0.0633217
-0.0633043
-0.0632873
-0.0632706
-0.0632543
-0.0632384
-0.0632228
-0.0632075
-0.0631926
-0.0631779
-0.0631636
-0.0631496
-0.0631359
-0.0631225
-0.0631094
-0.0630965
-0.063084
-0.0630717
-0.0630597
-0.0630479
-0.0630364
-0.0630251
-0.063014
-0.0630032
-0.0629926
-0.0629823
-0.0629722
-0.0629623
-0.0629526
-0.0629431
-0.0629338
-0.0629247
-0.0629158
-0.0629071
-0.0628985
-0.0628902
-0.062882
-0.0628741
-0.0628663
-0.0628586
-0.0628511
-0.0628438
-0.0628367
-0.0628297
-0.0628229
-0.0628162
-0.0628097
-0.0628033
-0.0627971
-0.0627911
-0.0627851
-0.0627794
-0.0627738
-0.0627683
-0.062763
-0.0627578
-0.0627527
-0.0627478
-0.0627431
-0.0627385
-0.062734
-0.0627297
-0.0627255
-0.0627214
-0.0627175
-0.0627137
-0.0627101
-0.0627066
-0.0627032
-0.0627
-0.0626969
-0.0626939
-0.062691
-0.0626883
-0.0626857
-0.0626833
-0.062681
-0.0626788
-0.0626767
-0.0626747
-0.0626729
-0.0626712
-0.0626695
-0.062668
-0.0626667
-0.0626654
-0.0626642
-0.0626631
-0.0626622
-0.0626612
-0.0626604
-0.0626597
-0.0626591
-0.0626586
-0.0626581
-0.0626577
-0.0626574
-0.0626571
-0.062657
-0.0626568
-0.0626568
-0.0626568
-0.0626568
-0.0626569
-0.0626571
-0.0626573
-0.0626575
-0.0626578
-0.0626581
-0.0626584
-0.0626588
-0.0626592
-0.0626597
-0.0626601
-0.0626606
-0.0626611
-0.0626616
-0.0626622
-0.0626627
-0.0626633
-0.0626639
-0.0626645
-0.0626651
-0.0626657
-0.0626663
-0.062667
-0.0626676
-0.0626683
-0.0626689
-0.0626696
-0.0626702
-0.0626709
-0.0626715
-0.0626722
-0.0626729
-0.0626736
-0.0626742
-0.0626749
-0.0626756
-0.0626762
-0.0626769
-0.0626776
-0.0626783
-0.062679
-0.0626796
-0.0626803
-0.062681
-0.0626817
-0.0626823
-0.062683
-0.0626837
-0.0626844
-0.0626851
-0.0626857
-0.0626864
-0.0626871
-0.0626878
-0.0626885
-0.0626891
-0.0626898
-0.0626905
-0.0626912
-0.0626919
-0.0626925
-0.0626932
-0.0626939
-0.0626946
-0.0626952
-0.0626959
-0.0626966
-0.0626973
-0.062698
-0.0626986
-0.0626993
-0.0627
-0.0627007
-0.0627014
-0.0627021
-0.0627027
-0.0627034
-0.0627041
-0.0627048
-0.0627055
-0.0627061
-0.0627068
-0.0627075
-0.0627082
-0.0627089
-0.0627095
-0.0627102
-0.0627109
-0.0627116
-0.0627123
-0.0627129
-0.0627136
-0.0627143
-0.062715
-0.0627157
-0.0627164
-0.062717
-0.0627177
-0.0627184
-0.0627191
-0.0627198
-0.0627205
-0.0627212
-0.0627219
-0.0627225
-0.0627232
-0.0627239
-0.0627246
-0.0627253
-0.062726
-0.0627267
-0.0627275
-0.0627282
-0.0627289
-0.0627296
-0.0627304
-0.0627311
-0.0627318
-0.0627325
-0.0627333
-0.062734
-0.0627346
-0.0627353
-0.062735
-0.062735
-0.062735
1
0.507089
0.291919
0.214161
0.179026
0.158665
0.145111
0.13536
0.127967
0.12214
0.117402
0.113451
0.110087
0.107174
0.104616
0.102342
0.100303
0.0984581
0.0967783
0.0952398
0.0938238
0.0925148
0.0913003
0.0901695
0.0891136
0.088125
0.0871969
0.0863237
0.0855004
0.0847227
0.0839866
0.0832889
0.0826263
0.0819963
0.0813963
0.0808243
0.0802781
0.079756
0.0792565
0.078778
0.0783192
0.0778788
0.0774558
0.077049
0.0766577
0.0762808
0.0759176
0.0755674
0.0752294
0.074903
0.0745877
0.0742828
0.0739879
0.0737025
0.0734261
0.0731583
0.0728988
0.0726471
0.072403
0.072166
0.071936
0.0717126
0.0714955
0.0712846
0.0710795
0.07088
0.0706859
0.0704971
0.0703133
0.0701343
0.0699601
0.0697903
0.0696249
0.0694637
0.0693066
0.0691535
0.0690041
0.0688585
0.0687164
0.0685778
0.0684425
0.0683106
0.0681817
0.068056
0.0679332
0.0678134
0.0676963
0.067582
0.0674704
0.0673613
0.0672548
0.0671507
0.067049
0.0669496
0.0668525
0.0667576
0.0666649
0.0665742
0.0664856
0.066399
0.0663144
0.0662316
0.0661507
0.0660716
0.0659942
0.0659186
0.0658446
0.0657723
0.0657016
0.0656324
0.0655648
0.0654987
0.065434
0.0653708
0.0653089
0.0652484
0.0651893
0.0651314
0.0650748
0.0650194
0.0649653
0.0649123
0.0648605
0.0648098
0.0647603
0.0647118
0.0646644
0.064618
0.0645726
0.0645282
0.0644848
0.0644423
0.0644007
0.0643601
0.0643203
0.0642814
0.0642433
0.0642061
0.0641697
0.064134
0.0640992
0.0640651
0.0640317
0.063999
0.0639671
0.0639358
0.0639052
0.0638753
0.063846
0.0638174
0.0637893
0.0637619
0.0637351
0.0637088
0.0636831
0.063658
0.0636334
0.0636093
0.0635857
0.0635627
0.0635401
0.0635181
0.0634964
0.0634753
0.0634546
0.0634344
0.0634146
0.0633952
0.0633762
0.0633577
0.0633395
0.0633217
0.0633043
0.0632873
0.0632706
0.0632543
0.0632384
0.0632228
0.0632075
0.0631926
0.0631779
0.0631636
0.0631496
0.0631359
0.0631225
0.0631094
0.0630965
0.063084
0.0630717
0.0630597
0.0630479
0.0630364
0.0630251
0.063014
0.0630032
0.0629926
0.0629823
0.0629722
0.0629623
0.0629526
0.0629431
0.0629338
0.0629247
0.0629158
0.0629071
0.0628985
0.0628902
0.062882
0.0628741
0.0628663
0.0628586
0.0628511
0.0628438
0.0628367
0.0628297
0.0628229
0.0628162
0.0628097
0.0628033
0.0627971
0.0627911
0.0627851
0.0627794
0.0627738
0.0627683
0.062763
0.0627578
0.0627527
0.0627478
0.0627431
0.0627385
0.062734
0.0627297
0.0627255
0.0627214
0.0627175
0.0627137
0.0627101
0.0627066
0.0627032
0.0627
0.0626969
0.0626939
0.062691
0.0626883
0.0626857
0.0626833
0.062681
0.0626788
0.0626767
0.0626747
0.0626729
0.0626712
0.0626695
0.062668
0.0626667
0.0626654
0.0626642
0.0626631
0.0626622
0.0626612
0.0626604
0.0626597
0.0626591
0.0626586
0.0626581
0.0626577
0.0626574
0.0626571
0.062657
0.0626568
0.0626568
0.0626568
0.0626568
0.0626569
0.0626571
0.0626573
0.0626575
0.0626578
0.0626581
0.0626584
0.0626588
0.0626592
0.0626597
0.0626601
0.0626606
0.0626611
0.0626616
0.0626622
0.0626627
0.0626633
0.0626639
0.0626645
0.0626651
0.0626657
0.0626663
0.062667
0.0626676
0.0626683
0.0626689
0.0626696
0.0626702
0.0626709
0.0626715
0.0626722
0.0626729
0.0626736
0.0626742
0.0626749
0.0626756
0.0626762
0.0626769
0.0626776
0.0626783
0.062679
0.0626796
0.0626803
0.062681
0.0626817
0.0626823
0.062683
0.0626837
0.0626844
0.0626851
0.0626857
0.0626864
0.0626871
0.0626878
0.0626885
0.0626891
0.0626898
0.0626905
0.0626912
0.0626919
0.0626925
0.0626932
0.0626939
0.0626946
0.0626952
0.0626959
0.0626966
0.0626973
0.062698
0.0626986
0.0626993
0.0627
0.0627007
0.0627014
0.0627021
0.0627027
0.0627034
0.0627041
0.0627048
0.0627055
0.0627061
0.0627068
0.0627075
0.0627082
0.0627089
0.0627095
0.0627102
0.0627109
0.0627116
0.0627123
0.0627129
0.0627136
0.0627143
0.062715
0.0627157
0.0627164
0.062717
0.0627177
0.0627184
0.0627191
0.0627198
0.0627205
0.0627212
0.0627219
0.0627225
0.0627232
0.0627239
0.0627246
0.0627253
0.062726
0.0627267
0.0627275
0.0627282
0.0627289
0.0627296
0.0627304
0.0627311
0.0627318
0.0627325
0.0627333
0.062734
0.0627346
0.0627353
0.062735
0.062735
0.062735
1
0.924296
0.735446
0.59755
0.511656
0.456341
0.418182
0.390278
0.368947
0.352063
0.338316
0.326857
0.317117
0.308701
0.301326
0.294789
0.288938
0.283656
0.278857
0.274468
0.270435
0.266711
0.26326
0.26005
0.257055
0.254253
0.251625
0.249153
0.246824
0.244625
0.242544
0.240573
0.238702
0.236923
0.23523
0.233616
0.232076
0.230604
0.229196
0.227847
0.226555
0.225314
0.224123
0.222978
0.221877
0.220816
0.219795
0.21881
0.217859
0.216942
0.216055
0.215199
0.21437
0.213569
0.212792
0.212041
0.211312
0.210606
0.209921
0.209256
0.208611
0.207984
0.207376
0.206784
0.206209
0.20565
0.205107
0.204578
0.204063
0.203562
0.203074
0.202599
0.202136
0.201685
0.201245
0.200817
0.200399
0.199992
0.199594
0.199207
0.198829
0.19846
0.1981
0.197749
0.197406
0.197071
0.196744
0.196425
0.196113
0.195809
0.195511
0.195221
0.194937
0.19466
0.194389
0.194124
0.193866
0.193613
0.193366
0.193125
0.192889
0.192658
0.192432
0.192212
0.191997
0.191786
0.19158
0.191379
0.191182
0.190989
0.190801
0.190617
0.190437
0.190261
0.190089
0.18992
0.189756
0.189595
0.189438
0.189284
0.189133
0.188986
0.188842
0.188701
0.188563
0.188428
0.188297
0.188168
0.188042
0.187918
0.187798
0.18768
0.187564
0.187451
0.187341
0.187233
0.187127
0.187024
0.186923
0.186824
0.186727
0.186632
0.18654
0.186449
0.18636
0.186274
0.186189
0.186106
0.186025
0.185945
0.185867
0.185791
0.185717
0.185644
0.185573
0.185503
0.185435
0.185368
0.185303
0.185239
0.185176
0.185115
0.185055
0.184997
0.184939
0.184883
0.184828
0.184775
0.184722
0.184671
0.18462
0.184571
0.184523
0.184476
0.184429
0.184384
0.18434
0.184297
0.184255
0.184213
0.184173
0.184133
0.184094
0.184056
0.184019
0.183983
0.183947
0.183912
0.183878
0.183845
0.183812
0.18378
0.183749
0.183719
0.183689
0.183659
0.183631
0.183603
0.183575
0.183548
0.183522
0.183496
0.183471
0.183446
0.183422
0.183399
0.183376
0.183353
0.183331
0.183309
0.183288
0.183267
0.183247
0.183227
0.183208
0.183189
0.183171
0.183153
0.183135
0.183118
0.183102
0.183085
0.18307
0.183054
0.183039
0.183025
0.18301
0.182997
0.182983
0.18297
0.182958
0.182946
0.182934
0.182922
0.182911
0.182901
0.182891
0.182881
0.182871
0.182862
0.182854
0.182845
0.182837
0.18283
0.182823
0.182816
0.18281
0.182803
0.182798
0.182792
0.182787
0.182782
0.182778
0.182774
0.18277
0.182767
0.182763
0.18276
0.182758
0.182755
0.182753
0.182751
0.182749
0.182748
0.182747
0.182746
0.182745
0.182744
0.182744
0.182744
0.182743
0.182743
0.182744
0.182744
0.182744
0.182745
0.182746
0.182747
0.182747
0.182748
0.18275
0.182751
0.182752
0.182753
0.182755
0.182756
0.182758
0.182759
0.182761
0.182762
0.182764
0.182766
0.182767
0.182769
0.182771
0.182773
0.182774
0.182776
0.182778
0.18278
0.182782
0.182784
0.182785
0.182787
0.182789
0.182791
0.182793
0.182795
0.182797
0.182799
0.182801
0.182802
0.182804
0.182806
0.182808
0.18281
0.182812
0.182814
0.182816
0.182818
0.18282
0.182821
0.182823
0.182825
0.182827
0.182829
0.182831
0.182833
0.182835
0.182837
0.182839
0.18284
0.182842
0.182844
0.182846
0.182848
0.18285
0.182852
0.182854
0.182856
0.182858
0.182859
0.182861
0.182863
0.182865
0.182867
0.182869
0.182871
0.182873
0.182875
0.182877
0.182879
0.18288
0.182882
0.182884
0.182886
0.182888
0.18289
0.182892
0.182894
0.182896
0.182898
0.182899
0.182901
0.182903
0.182905
0.182907
0.182909
0.182911
0.182913
0.182915
0.182917
0.182919
0.182921
0.182922
0.182924
0.182926
0.182928
0.18293
0.182932
0.182934
0.182936
0.182938
0.18294
0.182942
0.182944
0.182946
0.182948
0.18295
0.182952
0.182954
0.182956
0.182958
0.18296
0.182962
0.182964
0.182966
0.182966
0.182966
0.182966
1
1.07971
0.99707
0.88365
0.788695
0.716912
0.663049
0.621835
0.589492
0.56348
0.542088
0.524148
0.508841
0.495586
0.483959
0.473649
0.464419
0.45609
0.448522
0.441605
0.435249
0.429383
0.423947
0.418892
0.414176
0.409765
0.405627
0.401737
0.398071
0.39461
0.391336
0.388234
0.38529
0.382492
0.379828
0.37729
0.374867
0.372552
0.370337
0.368217
0.366184
0.364234
0.362362
0.360562
0.35883
0.357164
0.355558
0.35401
0.352517
0.351076
0.349683
0.348338
0.347036
0.345777
0.344559
0.343378
0.342235
0.341126
0.340051
0.339008
0.337995
0.337012
0.336057
0.33513
0.334228
0.333351
0.332499
0.331669
0.330862
0.330077
0.329312
0.328568
0.327842
0.327136
0.326447
0.325776
0.325122
0.324484
0.323862
0.323255
0.322664
0.322086
0.321523
0.320973
0.320437
0.319913
0.319402
0.318902
0.318415
0.317939
0.317474
0.31702
0.316576
0.316143
0.31572
0.315306
0.314902
0.314507
0.314121
0.313744
0.313376
0.313015
0.312663
0.312319
0.311983
0.311654
0.311332
0.311018
0.310711
0.310411
0.310117
0.30983
0.309549
0.309274
0.309006
0.308744
0.308487
0.308236
0.307991
0.307751
0.307516
0.307286
0.307062
0.306842
0.306628
0.306418
0.306212
0.306012
0.305815
0.305623
0.305435
0.305252
0.305072
0.304896
0.304724
0.304556
0.304392
0.304231
0.304073
0.303919
0.303769
0.303621
0.303477
0.303336
0.303198
0.303063
0.302931
0.302802
0.302676
0.302552
0.302432
0.302313
0.302197
0.302084
0.301973
0.301865
0.301759
0.301655
0.301554
0.301454
0.301357
0.301262
0.301169
0.301078
0.300989
0.300902
0.300816
0.300733
0.300651
0.300571
0.300493
0.300416
0.300341
0.300268
0.300196
0.300126
0.300058
0.29999
0.299925
0.29986
0.299797
0.299736
0.299676
0.299617
0.299559
0.299502
0.299447
0.299393
0.29934
0.299288
0.299238
0.299188
0.29914
0.299092
0.299046
0.299
0.298955
0.298912
0.298869
0.298827
0.298787
0.298747
0.298707
0.298669
0.298632
0.298595
0.298559
0.298524
0.29849
0.298456
0.298423
0.298391
0.29836
0.298329
0.298299
0.29827
0.298242
0.298214
0.298187
0.29816
0.298134
0.298109
0.298085
0.298061
0.298038
0.298015
0.297994
0.297972
0.297952
0.297932
0.297912
0.297894
0.297876
0.297858
0.297841
0.297825
0.29781
0.297795
0.29778
0.297767
0.297753
0.297741
0.297729
0.297717
0.297706
0.297696
0.297687
0.297677
0.297669
0.297661
0.297653
0.297646
0.297639
0.297633
0.297628
0.297622
0.297618
0.297613
0.297609
0.297606
0.297603
0.2976
0.297598
0.297596
0.297594
0.297593
0.297591
0.297591
0.29759
0.29759
0.29759
0.29759
0.297591
0.297591
0.297592
0.297593
0.297594
0.297596
0.297597
0.297599
0.297601
0.297603
0.297605
0.297607
0.297609
0.297611
0.297614
0.297616
0.297619
0.297621
0.297624
0.297626
0.297629
0.297632
0.297635
0.297637
0.29764
0.297643
0.297646
0.297649
0.297652
0.297655
0.297657
0.29766
0.297663
0.297666
0.297669
0.297672
0.297675
0.297678
0.297681
0.297684
0.297687
0.29769
0.297693
0.297696
0.297699
0.297702
0.297705
0.297707
0.29771
0.297713
0.297716
0.297719
0.297722
0.297725
0.297728
0.297731
0.297734
0.297737
0.29774
0.297743
0.297746
0.297749
0.297752
0.297755
0.297758
0.297761
0.297764
0.297767
0.29777
0.297773
0.297776
0.297779
0.297781
0.297784
0.297787
0.29779
0.297793
0.297796
0.297799
0.297802
0.297805
0.297808
0.297811
0.297814
0.297817
0.29782
0.297823
0.297826
0.297829
0.297832
0.297835
0.297838
0.297841
0.297844
0.297847
0.29785
0.297853
0.297856
0.297858
0.297861
0.297864
0.297867
0.29787
0.297873
0.297876
0.297879
0.297882
0.297885
0.297888
0.297891
0.297894
0.297897
0.2979
0.297904
0.297907
0.29791
0.297913
0.297916
0.297919
0.297922
0.297926
0.297929
0.297932
0.297935
0.297938
0.297939
0.297939
0.297939
1
1.11179
1.11438
1.05557
0.984375
0.919036
0.863803
0.818219
0.780648
0.749424
0.723166
0.700798
0.681501
0.664657
0.649797
0.636563
0.624678
0.613927
0.604139
0.595178
0.586935
0.579318
0.572253
0.565678
0.559539
0.553793
0.548399
0.543326
0.538543
0.534025
0.52975
0.525698
0.52185
0.518192
0.514709
0.511388
0.508218
0.505189
0.502291
0.499515
0.496854
0.494301
0.491848
0.489491
0.487223
0.48504
0.482937
0.480909
0.478953
0.477064
0.47524
0.473477
0.471772
0.470123
0.468526
0.466979
0.465481
0.464029
0.46262
0.461253
0.459927
0.45864
0.457389
0.456174
0.454993
0.453845
0.452729
0.451643
0.450586
0.449558
0.448557
0.447582
0.446633
0.445708
0.444807
0.443928
0.443072
0.442238
0.441424
0.440631
0.439857
0.439102
0.438365
0.437646
0.436945
0.43626
0.435592
0.434939
0.434302
0.43368
0.433073
0.432479
0.4319
0.431334
0.430781
0.430241
0.429713
0.429198
0.428694
0.428201
0.42772
0.42725
0.426791
0.426342
0.425903
0.425474
0.425054
0.424644
0.424244
0.423852
0.423469
0.423094
0.422728
0.42237
0.42202
0.421678
0.421344
0.421017
0.420697
0.420384
0.420078
0.419779
0.419487
0.419201
0.418922
0.418648
0.418381
0.418119
0.417864
0.417614
0.417369
0.41713
0.416896
0.416667
0.416444
0.416225
0.416011
0.415802
0.415597
0.415397
0.415201
0.415009
0.414822
0.414638
0.414459
0.414284
0.414112
0.413944
0.41378
0.413619
0.413462
0.413308
0.413158
0.413011
0.412867
0.412726
0.412588
0.412453
0.412322
0.412192
0.412066
0.411943
0.411822
0.411703
0.411588
0.411474
0.411364
0.411255
0.411149
0.411045
0.410944
0.410844
0.410747
0.410652
0.410559
0.410468
0.410379
0.410291
0.410206
0.410123
0.410041
0.409961
0.409883
0.409806
0.409731
0.409658
0.409586
0.409516
0.409447
0.40938
0.409314
0.40925
0.409187
0.409125
0.409065
0.409006
0.408948
0.408891
0.408836
0.408782
0.408729
0.408677
0.408626
0.408576
0.408528
0.40848
0.408433
0.408388
0.408343
0.4083
0.408257
0.408216
0.408175
0.408135
0.408096
0.408059
0.408022
0.407986
0.40795
0.407916
0.407883
0.40785
0.407818
0.407788
0.407758
0.407729
0.4077
0.407673
0.407646
0.407621
0.407596
0.407572
0.407548
0.407526
0.407504
0.407483
0.407463
0.407444
0.407426
0.407408
0.407391
0.407375
0.40736
0.407345
0.407331
0.407318
0.407306
0.407294
0.407283
0.407273
0.407263
0.407254
0.407246
0.407238
0.407231
0.407225
0.407219
0.407213
0.407208
0.407204
0.4072
0.407197
0.407194
0.407191
0.407189
0.407188
0.407186
0.407186
0.407185
0.407185
0.407185
0.407185
0.407186
0.407187
0.407188
0.40719
0.407191
0.407193
0.407195
0.407197
0.4072
0.407202
0.407205
0.407208
0.407211
0.407214
0.407217
0.40722
0.407223
0.407226
0.40723
0.407233
0.407237
0.40724
0.407244
0.407248
0.407251
0.407255
0.407259
0.407262
0.407266
0.40727
0.407274
0.407277
0.407281
0.407285
0.407289
0.407293
0.407296
0.4073
0.407304
0.407308
0.407312
0.407315
0.407319
0.407323
0.407327
0.407331
0.407334
0.407338
0.407342
0.407346
0.40735
0.407354
0.407357
0.407361
0.407365
0.407369
0.407373
0.407376
0.40738
0.407384
0.407388
0.407392
0.407396
0.407399
0.407403
0.407407
0.407411
0.407415
0.407418
0.407422
0.407426
0.40743
0.407434
0.407438
0.407441
0.407445
0.407449
0.407453
0.407457
0.40746
0.407464
0.407468
0.407472
0.407476
0.40748
0.407483
0.407487
0.407491
0.407495
0.407499
0.407502
0.407506
0.40751
0.407514
0.407518
0.407522
0.407525
0.407529
0.407533
0.407537
0.407541
0.407545
0.407548
0.407552
0.407556
0.40756
0.407564
0.407568
0.407572
0.407575
0.407579
0.407583
0.407587
0.407591
0.407595
0.407599
0.407603
0.407607
0.407611
0.407615
0.407619
0.407624
0.407628
0.407632
0.407635
0.407638
0.407638
0.407638
1
1.09593
1.14368
1.13403
1.09771
1.05335
1.00943
0.969227
0.933634
0.90251
0.875351
0.851575
0.830642
0.812083
0.795513
0.780617
0.767139
0.754873
0.74365
0.733333
0.723808
0.71498
0.706771
0.699112
0.691948
0.685229
0.678913
0.672962
0.667344
0.662031
0.656998
0.652222
0.647683
0.643364
0.639249
0.635322
0.631571
0.627985
0.624551
0.621261
0.618105
0.615076
0.612165
0.609367
0.606673
0.604079
0.60158
0.599169
0.596843
0.594597
0.592427
0.590329
0.5883
0.586337
0.584436
0.582595
0.580811
0.579082
0.577404
0.575777
0.574198
0.572664
0.571174
0.569727
0.56832
0.566953
0.565623
0.56433
0.563071
0.561846
0.560654
0.559492
0.558362
0.55726
0.556187
0.555141
0.554122
0.553128
0.552159
0.551214
0.550293
0.549394
0.548517
0.547661
0.546826
0.546011
0.545216
0.544439
0.543681
0.542941
0.542218
0.541512
0.540823
0.54015
0.539492
0.53885
0.538222
0.537609
0.53701
0.536425
0.535853
0.535294
0.534748
0.534214
0.533693
0.533183
0.532685
0.532198
0.531721
0.531256
0.530801
0.530357
0.529922
0.529497
0.529082
0.528675
0.528278
0.52789