# vtk DataFile Version 2.0
FlowField
ASCII
DATASET STRUCTURED_GRID
DIMENSIONS 400 1 50
POINTS 20000 float
0 0 0
0.08 0 0
0.16 0 0
0.24 0 0
0.32 0 0
0.4 0 0
0.48 0 0
0.56 0 0
0.64 0 0
0.72 0 0
0.8 0 0
0.88 0 0
0.96 0 0
1.04 0 0
1.12 0 0
1.2 0 0
1.28 0 0
1.36 0 0
1.44 0 0
1.52 0 0
1.6 0 0
1.68 0 0
1.76 0 0
1.84 0 0
1.92 0 0
2 0 0
2.08 0 0
2.16 0 0
2.24 0 0
2.32 0 0
2.4 0 0
2.48 0 0
2.56 0 0
2.64 0 0
2.72 0 0
2.8 0 0
2.88 0 0
2.96 0 0
3.04 0 0
3.12 0 0
3.2 0 0
3.28 0 0
3.36 0 0
3.44 0 0
3.52 0 0
3.6 0 0
3.68 0 0
3.76 0 0
3.84 0 0
3.92 0 0
4 0 0
4.08 0 0
4.16 0 0
4.24 0 0
4.32 0 0
4.4 0 0
4.48 0 0
4.56 0 0
4.64 0 0
4.72 0 0
4.8 0 0
4.88 0 0
4.96 0 0
5.04 0 0
5.12 0 0
5.2 0 0
5.28 0 0
5.36 0 0
5.44 0 0
5.52 0 0
5.6 0 0
5.68 0 0
5.76 0 0
5.84 0 0
5.92 0 0
6 0 0
6.08 0 0
6.16 0 0
6.24 0 0
6.32 0 0
6.4 0 0
6.48 0 0
6.56 0 0
6.64 0 0
6.72 0 0
6.8 0 0
6.88 0 0
6.96 0 0
7.04 0 0
7.12 0 0
7.2 0 0
7.28 0 0
7.36 0 0
7.44 0 0
7.52 0 0
7.6 0 0
7.68 0 0
7.76 0 0
7.84 0 0
7.92 0 0
8 0 0
8.08 0 0
8.16 0 0
8.24 0 0
8.32 0 0
8.4 0 0
8.48 0 0
8.56 0 0
8.64 0 0
8.72 0 0
8.8 0 0
8.88 0 0
8.96 0 0
9.04 0 0
9.12 0 0
9.2 0 0
9.28 0 0
9.36 0 0
9.44 0 0
9.52 0 0
9.6 0 0
9.68 0 0
9.76 0 0
9.84 0 0
9.92 0 0
10 0 0
10.08 0 0
10.16 0 0
10.24 0 0
10.32 0 0
10.4 0 0
10.48 0 0
10.56 0 0
10.64 0 0
10.72 0 0
10.8 0 0
10.88 0 0
10.96 0 0
11.04 0 0
11.12 0 0
11.2 0 0
11.28 0 0
11.36 0 0
11.44 0 0
11.52 0 0
11.6 0 0
11.68 0 0
11.76 0 0
11.84 0 0
11.92 0 0
12 0 0
12.08 0 0
12.16 0 0
12.24 0 0
12.32 0 0
12.4 0 0
12.48 0 0
12.56 0 0
12.64 0 0
12.72 0 0
12.8 0 0
12.88 0 0
12.96 0 0
13.04 0 0
13.12 0 0
13.2 0 0
13.28 0 0
13.36 0 0
13.44 0 0
13.52 0 0
13.6 0 0
13.68 0 0
13.76 0 0
13.84 0 0
13.92 0 0
14 0 0
14.08 0 0
14.16 0 0
14.24 0 0
14.32 0 0
14.4 0 0
14.48 0 0
14.56 0 0
14.64 0 0
14.72 0 0
14.8 0 0
14.88 0 0
14.96 0 0
15.04 0 0
15.12 0 0
15.2 0 0
15.28 0 0
15.36 0 0
15.44 0 0
15.52 0 0
15.6 0 0
15.68 0 0
15.76 0 0
15.84 0 0
15.92 0 0
16 0 0
16.08 0 0
16.16 0 0
16.24 0 0
16.32 0 0
16.4 0 0
16.48 0 0
16.56 0 0
16.64 0 0
16.72 0 0
16.8 0 0
16.88 0 0
16.96 0 0
17.04 0 0
17.12 0 0
17.2 0 0
17.28 0 0
17.36 0 0
17.44 0 0
17.52 0 0
17.6 0 0
17.68 0 0
17.76 0 0
17.84 0 0
17.92 0 0
18 0 0
18.08 0 0
18.16 0 0
18.24 0 0
18.32 0 0
18.4 0 0
18.48 0 0
18.56 0 0
18.64 0 0
18.72 0 0
18.8 0 0
18.88 0 0
18.96 0 0
19.04 0 0
19.12 0 0
19.2 0 0
19.28 0 0
19.36 0 0
19.44 0 0
19.52 0 0
19.6 0 0
19.68 0 0
19.76 0 0
19.84 0 0
19.92 0 0
20 0 0
20.08 0 0
20.16 0 0
20.24 0 0
20.32 0 0
20.4 0 0
20.48 0 0
20.56 0 0
20.64 0 0
20.72 0 0
20.8 0 0
20.88 0 0
20.96 0 0
21.04 0 0
21.12 0 0
21.2 0 0
21.28 0 0
21.36 0 0
21.44 0 0
21.52 0 0
21.6 0 0
21.68 0 0
21.76 0 0
21.84 0 0
21.92 0 0
22 0 0
22.08 0 0
22.16 0 0
22.24 0 0
22.32 0 0
22.4 0 0
22.48 0 0
22.56 0 0
22.64 0 0
22.72 0 0
22.8 0 0
22.88 0 0
22.96 0 0
23.04 0 0
23.12 0 0
23.2 0 0
23.28 0 0
23.36 0 0
23.44 0 0
23.52 0 0
23.6 0 0
23.68 0 0
23.76 0 0
23.84 0 0
23.92 0 0
24 0 0
24.08 0 0
24.16 0 0
24.24 0 0
24.32 0 0
24.4 0 0
24.48 0 0
24.56 0 0
24.64 0 0
24.72 0 0
24.8 0 0
24.88 0 0
24.96 0 0
25.04 0 0
25.12 0 0
25.2 0 0
25.28 0 0
25.36 0 0
25.44 0 0
25.52 0 0
25.6 0 0
25.68 0 0
25.76 0 0
25.84 0 0
25.92 0 0
26 0 0
26.08 0 0
26.16 0 0
26.24 0 0
26.32 0 0
26.4 0 0
26.48 0 0
26.56 0 0
26.64 0 0
26.72 0 0
26.8 0 0
26.88 0 0
26.96 0 0
27.04 0 0
27.12 0 0
27.2 0 0
27.28 0 0
27.36 0 0
27.44 0 0
27.52 0 0
27.6 0 0
27.68 0 0
27.76 0 0
27.84 0 0
27.92 0 0
28 0 0
28.08 0 0
28.16 0 0
28.24 0 0
28.32 0 0
28.4 0 0
28.48 0 0
28.56 0 0
28.64 0 0
28.72 0 0
28.8 0 0
28.88 0 0
28.96 0 0
29.04 0 0
29.12 0 0
29.2 0 0
29.28 0 0
29.36 0 0
29.44 0 0
29.52 0 0
29.6 0 0
29.68 0 0
29.76 0 0
29.84 0 0
29.92 0 0
30 0 0
30.08 0 0
30.16 0 0
30.24 0 0
30.32 0 0
30.4 0 0
30.48 0 0
30.56 0 0
30.64 0 0
30.72 0 0
30.8 0 0
30.88 0 0
30.96 0 0
31.04 0 0
31.12 0 0
31.2 0 0
31.28 0 0
31.36 0 0
31.44 0 0
31.52 0 0
31.6 0 0
31.68 0 0
31.76 0 0
31.84 0 0
31.92 0 0
0 0.02 0
0.08 0.02 0
0.16 0.02 0
0.24 0.02 0
0.32 0.02 0
0.4 0.02 0
0.48 0.02 0
0.56 0.02 0
0.64 0.02 0
0.72 0.02 0
0.8 0.02 0
0.88 0.02 0
0.96 0.02 0
1.04 0.02 0
1.12 0.02 0
1.2 0.02 0
1.28 0.02 0
1.36 0.02 0
1.44 0.02 0
1.52 0.02 0
1.6 0.02 0
1.68 0.02 0
1.76 0.02 0
1.84 0.02 0
1.92 0.02 0
2 0.02 0
2.08 0.02 0
2.16 0.02 0
2.24 0.02 0
2.32 0.02 0
2.4 0.02 0
2.48 0.02 0
2.56 0.02 0
2.64 0.02 0
2.72 0.02 0
2.8 0.02 0
2.88 0.02 0
2.96 0.02 0
3.04 0.02 0
3.12 0.02 0
3.2 0.02 0
3.28 0.02 0
3.36 0.02 0
3.44 0.02 0
3.52 0.02 0
3.6 0.02 0
3.68 0.02 0
3.76 0.02 0
3.84 0.02 0
3.92 0.02 0
4 0.02 0
4.08 0.02 0
4.16 0.02 0
4.24 0.02 0
4.32 0.02 0
4.4 0.02 0
4.48 0.02 0
4.56 0.02 0
4.64 0.02 0
4.72 0.02 0
4.8 0.02 0
4.88 0.02 0
4.96 0.02 0
5.04 0.02 0
5.12 0.02 0
5.2 0.02 0
5.28 0.02 0
5.36 0.02 0
5.44 0.02 0
5.52 0.02 0
5.6 0.02 0
5.68 0.02 0
5.76 0.02 0
5.84 0.02 0
5.92 0.02 0
6 0.02 0
6.08 0.02 0
6.16 0.02 0
6.24 0.02 0
6.32 0.02 0
6.4 0.02 0
6.48 0.02 0
6.56 0.02 0
6.64 0.02 0
6.72 0.02 0
6.8 0.02 0
6.88 0.02 0
6.96 0.02 0
7.04 0.02 0
7.12 0.02 0
7.2 0.02 0
7.28 0.02 0
7.36 0.02 0
7.44 0.02 0
7.52 0.02 0
7.6 0.02 0
7.68 0.02 0
7.76 0.02 0
7.84 0.02 0
7.92 0.02 0
8 0.02 0
8.08 0.02 0
8.16 0.02 0
8.24 0.02 0
8.32 0.02 0
8.4 0.02 0
8.48 0.02 0
8.56 0.02 0
8.64 0.02 0
8.72 0.02 0
8.8 0.02 0
8.88 0.02 0
8.96 0.02 0
9.04 0.02 0
9.12 0.02 0
9.2 0.02 0
9.28 0.02 0
9.36 0.02 0
9.44 0.02 0
9.52 0.02 0
9.6 0.02 0
9.68 0.02 0
9.76 0.02 0
9.84 0.02 0
9.92 0.02 0
10 0.02 0
10.08 0.02 0
10.16 0.02 0
10.24 0.02 0
10.32 0.02 0
10.4 0.02 0
10.48 0.02 0
10.56 0.02 0
10.64 0.02 0
10.72 0.02 0
10.8 0.02 0
10.88 0.02 0
10.96 0.02 0
11.04 0.02 0
11.12 0.02 0
11.2 0.02 0
11.28 0.02 0
11.36 0.02 0
11.44 0.02 0
11.52 0.02 0
11.6 0.02 0
11.68 0.02 0
11.76 0.02 0
11.84 0.02 0
11.92 0.02 0
12 0.02 0
12.08 0.02 0
12.16 0.02 0
12.24 0.02 0
12.32 0.02 0
12.4 0.02 0
12.48 0.02 0
12.56 0.02 0
12.64 0.02 0
12.72 0.02 0
12.8 0.02 0
12.88 0.02 0
12.96 0.02 0
13.04 0.02 0
13.12 0.02 0
13.2 0.02 0
13.28 0.02 0
13.36 0.02 0
13.44 0.02 0
13.52 0.02 0
13.6 0.02 0
13.68 0.02 0
13.76 0.02 0
13.84 0.02 0
13.92 0.02 0
14 0.02 0
14.08 0.02 0
14.16 0.02 0
14.24 0.02 0
14.32 0.02 0
14.4 0.02 0
14.48 0.02 0
14.56 0.02 0
14.64 0.02 0
14.72 0.02 0
14.8 0.02 0
14.88 0.02 0
14.96 0.02 0
15.04 0.02 0
15.12 0.02 0
15.2 0.02 0
15.28 0.02 0
15.36 0.02 0
15.44 0.02 0
15.52 0.02 0
15.6 0.02 0
15.68 0.02 0
15.76 0.02 0
15.84 0.02 0
15.92 0.02 0
16 0.02 0
16.08 0.02 0
16.16 0.02 0
16.24 0.02 0
16.32 0.02 0
16.4 0.02 0
16.48 0.02 0
16.56 0.02 0
16.64 0.02 0
16.72 0.02 0
16.8 0.02 0
16.88 0.02 0
16.96 0.02 0
17.04 0.02 0
17.12 0.02 0
17.2 0.02 0
17.28 0.02 0
17.36 0.02 0
17.44 0.02 0
17.52 0.02 0
17.6 0.02 0
17.68 0.02 0
17.76 0.02 0
17.84 0.02 0
17.92 0.02 0
18 0.02 0
18.08 0.02 0
18.16 0.02 0
18.24 0.02 0
18.32 0.02 0
18.4 0.02 0
18.48 0.02 0
18.56 0.02 0
18.64 0.02 0
18.72 0.02 0
18.8 0.02 0
18.88 0.02 0
18.96 0.02 0
19.04 0.02 0
19.12 0.02 0
19.2 0.02 0
19.28 0.02 0
19.36 0.02 0
19.44 0.02 0
19.52 0.02 0
19.6 0.02 0
19.68 0.02 0
19.76 0.02 0
19.84 0.02 0
19.92 0.02 0
20 0.02 0
20.08 0.02 0
20.16 0.02 0
20.24 0.02 0
20.32 0.02 0
20.4 0.02 0
20.48 0.02 0
20.56 0.02 0
20.64 0.02 0
20.72 0.02 0
20.8 0.02 0
20.88 0.02 0
20.96 0.02 0
21.04 0.02 0
21.12 0.02 0
21.2 0.02 0
21.28 0.02 0
21.36 0.02 0
21.44 0.02 0
21.52 0.02 0
21.6 0.02 0
21.68 0.02 0
21.76 0.02 0
21.84 0.02 0
21.92 0.02 0
22 0.02 0
22.08 0.02 0
22.16 0.02 0
22.24 0.02 0
22.32 0.02 0
22.4 0.02 0
22.48 0.02 0
22.56 0.02 0
22.64 0.02 0
22.72 0.02 0
22.8 0.02 0
22.88 0.02 0
22.96 0.02 0
23.04 0.02 0
23.12 0.02 0
23.2 0.02 0
23.28 0.02 0
23.36 0.02 0
23.44 0.02 0
23.52 0.02 0
23.6 0.02 0
23.68 0.02 0
23.76 0.02 0
23.84 0.02 0
23.92 0.02 0
24 0.02 0
24.08 0.02 0
24.16 0.02 0
24.24 0.02 0
24.32 0.02 0
24.4 0.02 0
24.48 0.02 0
24.56 0.02 0
24.64 0.02 0
24.72 0.02 0
24.8 0.02 0
24.88 0.02 0
24.96 0.02 0
25.04 0.02 0
25.12 0.02 0
25.2 0.02 0
25.28 0.02 0
25.36 0.02 0
25.44 0.02 0
25.52 0.02 0
25.6 0.02 0
25.68 0.02 0
25.76 0.02 0
25.84 0.02 0
25.92 0.02 0
26 0.02 0
26.08 0.02 0
26.16 0.02 0
26.24 0.02 0
26.32 0.02 0
26.4 0.02 0
26.48 0.02 0
26.56 0.02 0
26.64 0.02 0
26.72 0.02 0
26.8 0.02 0
26.88 0.02 0
26.96 0.02 0
27.04 0.02 0
27.12 0.02 0
27.2 0.02 0
27.28 0.02 0
27.36 0.02 0
27.44 0.02 0
27.52 0.02 0
27.6 0.02 0
27.68 0.02 0
27.76 0.02 0
27.84 0.02 0
27.92 0.02 0
28 0.02 0
28.08 0.02 0
28.16 0.02 0
28.24 0.02 0
28.32 0.02 0
28.4 0.02 0
28.48 0.02 0
28.56 0.02 0
28.64 0.02 0
28.72 0.02 0
28.8 0.02 0
28.88 0.02 0
28.96 0.02 0
29.04 0.02 0
29.12 0.02 0
29.2 0.02 0
29.28 0.02 0
29.36 0.02 0
29.44 0.02 0
29.52 0.02 0
29.6 0.02 0
29.68 0.02 0
29.76 0.02 0
29.84 0.02 0
29.92 0.02 0
30 0.02 0
30.08 0.02 0
30.16 0.02 0
30.24 0.02 0
30.32 0.02 0
30.4 0.02 0
30.48 0.02 0
30.56 0.02 0
30.64 0.02 0
30.72 0.02 0
30.8 0.02 0
30.88 0.02 0
30.96 0.02 0
31.04 0.02 0
31.12 0.02 0
31.2 0.02 0
31.28 0.02 0
31.36 0.02 0
31.44 0.02 0
31.52 0.02 0
31.6 0.02 0
31.68 0.02 0
31.76 0.02 0
31.84 0.02 0
31.92 0.02 0
0 0.04 0
0.08 0.04 0
0.16 0.04 0
0.24 0.04 0
0.32 0.04 0
0.4 0.04 0
0.48 0.04 0
0.56 0.04 0
0.64 0.04 0
0.72 0.04 0
0.8 0.04 0
0.88 0.04 0
0.96 0.04 0
1.04 0.04 0
1.12 0.04 0
1.2 0.04 0
1.28 0.04 0
1.36 0.04 0
1.44 0.04 0
1.52 0.04 0
1.6 0.04 0
1.68 0.04 0
1.76 0.04 0
1.84 0.04 0
1.92 0.04 0
2 0.04 0
2.08 0.04 0
2.16 0.04 0
2.24 0.04 0
2.32 0.04 0
2.4 0.04 0
2.48 0.04 0
2.56 0.04 0
2.64 0.04 0
2.72 0.04 0
2.8 0.04 0
2.88 0.04 0
2.96 0.04 0
3.04 0.04 0
3.12 0.04 0
3.2 0.04 0
3.28 0.04 0
3.36 0.04 0
3.44 0.04 0
3.52 0.04 0
3.6 0.04 0
3.68 0.04 0
3.76 0.04 0
3.84 0.04 0
3.92 0.04 0
4 0.04 0
4.08 0.04 0
4.16 0.04 0
4.24 0.04 0
4.32 0.04 0
4.4 0.04 0
4.48 0.04 0
4.56 0.04 0
4.64 0.04 0
4.72 0.04 0
4.8 0.04 0
4.88 0.04 0
4.96 0.04 0
5.04 0.04 0
5.12 0.04 0
5.2 0.04 0
5.28 0.04 0
5.36 0.04 0
5.44 0.04 0
5.52 0.04 0
5.6 0.04 0
5.68 0.04 0
5.76 0.04 0
5.84 0.04 0
5.92 0.04 0
6 0.04 0
6.08 0.04 0
6.16 0.04 0
6.24 0.04 0
6.32 0.04 0
6.4 0.04 0
6.48 0.04 0
6.56 0.04 0
6.64 0.04 0
6.72 0.04 0
6.8 0.04 0
6.88 0.04 0
6.96 0.04 0
7.04 0.04 0
7.12 0.04 0
7.2 0.04 0
7.28 0.04 0
7.36 0.04 0
7.44 0.04 0
7.52 0.04 0
7.6 0.04 0
7.68 0.04 0
7.76 0.04 0
7.84 0.04 0
[...]
POINT_DATA 20000

SCALARS u float 1
LOOKUP_TABLE default
0
-0.507089
-0.291919
-0.21416
-0.179025
-0.158664
-0.14511
-0.135359
-0.127966
-0.122139
-0.117401
-0.113449
-0.110086
-0.107173
-0.104614
-0.102341
-0.100301
-0.0984566
-0.0967767
-0.0952382
-0.0938221
-0.0925132
-0.0912986
-0.0901679
-0.089112
-0.0881233
-0.0871952
-0.086322
-0.0854987
-0.084721
-0.083985
-0.0832872
-0.0826247
-0.0819946
-0.0813947
-0.0808226
-0.0802765
-0.0797545
-0.079255
-0.0787765
-0.0783177
-0.0778773
-0.0774544
-0.0770477
-0.0766564
-0.0762795
-0.0759164
-0.0755662
-0.0752283
-0.0749019
-0.0745866
-0.0742818
-0.073987
-0.0737016
-0.0734253
-0.0731576
-0.0728982
-0.0726466
-0.0724025
-0.0721657
-0.0719357
-0.0717124
-0.0714954
-0.0712846
-0.0710796
-0.0708802
-0.0706863
-0.0704976
-0.0703139
-0.070135
-0.0699609
-0.0697913
-0.069626
-0.069465
-0.069308
-0.069155
-0.0690058
-0.0688603
-0.0687184
-0.06858
-0.0684449
-0.0683131
-0.0681845
-0.0680589
-0.0679364
-0.0678167
-0.0676999
-0.0675858
-0.0674743
-0.0673655
-0.0672592
-0.0671553
-0.0670539
-0.0669547
-0.0668579
-0.0667632
-0.0666707
-0.0665803
-0.0664919
-0.0664056
-0.0663212
-0.0662387
-0.066158
-0.0660791
-0.0660021
-0.0659267
-0.065853
-0.065781
-0.0657105
-0.0656416
-0.0655743
-0.0655084
-0.065444
-0.065381
-0.0653194
-0.0652592
-0.0652003
-0.0651427
-0.0650863
-0.0650312
-0.0649773
-0.0649246
-0.064873
-0.0648225
-0.0647732
-0.0647249
-0.0646777
-0.0646315
-0.0645863
-0.0645421
-0.0644989
-0.0644566
-0.0644152
-0.0643747
-0.0643351
-0.0642963
-0.0642584
-0.0642213
-0.064185
-0.0641495
-0.0641147
-0.0640807
-0.0640474
-0.0640149
-0.063983
-0.0639518
-0.0639213
-0.0638915
-0.0638622
-0.0638336
-0.0638057
-0.0637783
-0.0637515
-0.0637253
-0.0636996
-0.0636745
-0.0636499
-0.0636259
-0.0636024
-0.0635793
-0.0635568
-0.0635347
-0.0635132
-0.063492
-0.0634714
-0.0634512
-0.0634314
-0.063412
-0.0633931
-0.0633746
-0.0633564
-0.0633387
-0.0633213
-0.0633043
-0.0632877
-0.0632714
-0.0632555
-0.0632399
-0.0632246
-0.0632097
-0.0631951
-0.0631808
-0.0631668
-0.0631531
-0.0631396
-0.0631265
-0.0631137
-0.0631011
-0.0630888
-0.0630768
-0.063065
-0.0630535
-0.0630422
-0.0630312
-0.0630204
-0.0630099
-0.0629996
-0.0629895
-0.0629797
-0.0629701
-0.0629607
-0.0629516
-0.0629426
-0.062934
-0.0629255
-0.0629172
-0.0629092
-0.0629014
-0.0628938
-0.0628864
-0.0628793
-0.0628723
-0.0628656
-0.0628591
-0.0628528
-0.0628468
-0.062841
-0.0628353
-0.0628299
-0.0628246
-0.0628196
-0.0628147
-0.0628101
-0.0628058
-0.0628016
-0.0627976
-0.0627938
-0.0627902
-0.0627867
-0.0627835
-0.0627804
-0.0627776
-0.062775
-0.0627725
-0.0627702
-0.0627681
-0.0627661
-0.0627642
-0.0627625
-0.062761
-0.0627597
-0.0627585
-0.0627574
-0.0627565
-0.0627557
-0.062755
-0.0627543
-0.0627539
-0.0627535
-0.0627532
-0.0627531
-0.062753
-0.062753
-0.0627531
-0.0627533
-0.0627535
-0.0627538
-0.0627542
-0.0627546
-0.0627552
-0.0627557
-0.0627563
-0.0627569
-0.0627576
-0.0627583
-0.0627591
-0.0627599
-0.0627607
-0.0627615
-0.0627624
-0.0627633
-0.0627642
-0.0627651
-0.062766
-0.0627669
-0.0627679
-0.0627688
-0.0627698
-0.0627708
-0.0627718
-0.0627728
-0.0627738
-0.0627748
-0.0627758
-0.0627768
-0.0627778
-0.0627788
-0.0627798
-0.0627808
-0.0627818
-0.0627829
-0.0627839
-0.0627849
-0.0627859
-0.0627869
-0.0627879
-0.062789
-0.06279
-0.062791
-0.062792
-0.062793
-0.062794
-0.0627951
-0.0627961
-0.0627971
-0.0627981
-0.0627991
-0.0628001
-0.0628012
-0.0628022
-0.0628032
-0.0628042
-0.0628052
-0.0628062
-0.0628073
-0.0628083
-0.0628093
-0.0628103
-0.0628113
-0.0628123
-0.0628134
-0.0628144
-0.0628154
-0.0628164
-0.0628174
-0.0628184
-0.0628194
-0.0628205
-0.0628215
-0.0628225
-0.0628235
-0.0628245
-0.0628255
-0.0628266
-0.0628276
-0.0628286
-0.0628296
-0.0628306
-0.0628316
-0.0628327
-0.0628337
-0.0628347
-0.0628357
-0.0628367
-0.0628377
-0.0628387
-0.0628398
-0.0628408
-0.0628418
-0.0628428
-0.0628438
-0.0628448
-0.0628458
-0.0628469
-0.0628479
-0.0628489
-0.0628499
-0.0628509
-0.0628519
-0.062853
-0.062854
-0.062855
-0.062856
-0.062857
-0.062858
-0.062859
-0.0628601
-0.0628611
-0.0628621
-0.0628631
-0.0628641
-0.0628651
-0.0628662
-0.0628672
-0.0628682
-0.0628692
-0.0628702
-0.0628713
-0.0628723
-0.0628733
-0.0628743
-0.0628754
-0.0628764
-0.0628775
-0.0628785
-0.0628796
-0.0628806
-0.0628817
-0.0628827
-0.0628838
-0.0628849
-0.062886
-0.062887
-0.0628881
-0.0628892
-0.06289
-0.0628911
-0.0628907
-0.0628907
-0.0628907
1
0.507089
0.291919
0.21416
0.179025
0.158664
0.14511
0.135359
0.127966
0.122139
0.117401
0.113449
0.110086
0.107173
0.104614
0.102341
0.100301
0.0984566
0.0967767
0.0952382
0.0938221
0.0925132
0.0912986
0.0901679
0.089112
0.0881233
0.0871952
0.086322
0.0854987
0.084721
0.083985
0.0832872
0.0826247
0.0819946
0.0813947
0.0808226
0.0802765
0.0797545
0.079255
0.0787765
0.0783177
0.0778773
0.0774544
0.0770477
0.0766564
0.0762795
0.0759164
0.0755662
0.0752283
0.0749019
0.0745866
0.0742818
0.073987
0.0737016
0.0734253
0.0731576
0.0728982
0.0726466
0.0724025
0.0721657
0.0719357
0.0717124
0.0714954
0.0712846
0.0710796
0.0708802
0.0706863
0.0704976
0.0703139
0.070135
0.0699609
0.0697913
0.069626
0.069465
0.069308
0.069155
0.0690058
0.0688603
0.0687184
0.06858
0.0684449
0.0683131
0.0681845
0.0680589
0.0679364
0.0678167
0.0676999
0.0675858
0.0674743
0.0673655
0.0672592
0.0671553
0.0670539
0.0669547
0.0668579
0.0667632
0.0666707
0.0665803
0.0664919
0.0664056
0.0663212
0.0662387
0.066158
0.0660791
0.0660021
0.0659267
0.065853
0.065781
0.0657105
0.0656416
0.0655743
0.0655084
0.065444
0.065381
0.0653194
0.0652592
0.0652003
0.0651427
0.0650863
0.0650312
0.0649773
0.0649246
0.064873
0.0648225
0.0647732
0.0647249
0.0646777
0.0646315
0.0645863
0.0645421
0.0644989
0.0644566
0.0644152
0.0643747
0.0643351
0.0642963
0.0642584
0.0642213
0.064185
0.0641495
0.0641147
0.0640807
0.0640474
0.0640149
0.063983
0.0639518
0.0639213
0.0638915
0.0638622
0.0638336
0.0638057
0.0637783
0.0637515
0.0637253
0.0636996
0.0636745
0.0636499
0.0636259
0.0636024
0.0635793
0.0635568
0.0635347
0.0635132
0.063492
0.0634714
0.0634512
0.0634314
0.063412
0.0633931
0.0633746
0.0633564
0.0633387
0.0633213
0.0633043
0.0632877
0.0632714
0.0632555
0.0632399
0.0632246
0.0632097
0.0631951
0.0631808
0.0631668
0.0631531
0.0631396
0.0631265
0.0631137
0.0631011
0.0630888
0.0630768
0.063065
0.0630535
0.0630422
0.0630312
0.0630204
0.0630099
0.0629996
0.0629895
0.0629797
0.0629701
0.0629607
0.0629516
0.0629426
0.062934
0.0629255
0.0629172
0.0629092
0.0629014
0.0628938
0.0628864
0.0628793
0.0628723
0.0628656
0.0628591
0.0628528
0.0628468
0.062841
0.0628353
0.0628299
0.0628246
0.0628196
0.0628147
0.0628101
0.0628058
0.0628016
0.0627976
0.0627938
0.0627902
0.0627867
0.0627835
0.0627804
0.0627776
0.062775
0.0627725
0.0627702
0.0627681
0.0627661
0.0627642
0.0627625
0.062761
0.0627597
0.0627585
0.0627574
0.0627565
0.0627557
0.062755
0.0627543
0.0627539
0.0627535
0.0627532
0.0627531
0.062753
0.062753
0.0627531
0.0627533
0.0627535
0.0627538
0.0627542
0.0627546
0.0627552
0.0627557
0.0627563
0.0627569
0.0627576
0.0627583
0.0627591
0.0627599
0.0627607
0.0627615
0.0627624
0.0627633
0.0627642
0.0627651
0.062766
0.0627669
0.0627679
0.0627688
0.0627698
0.0627708
0.0627718
0.0627728
0.0627738
0.0627748
0.0627758
0.0627768
0.0627778
0.0627788
0.0627798
0.0627808
0.0627818
0.0627829
0.0627839
0.0627849
0.0627859
0.0627869
0.0627879
0.062789
0.06279
0.062791
0.062792
0.062793
0.062794
0.0627951
0.0627961
0.0627971
0.0627981
0.0627991
0.0628001
0.0628012
0.0628022
0.0628032
0.0628042
0.0628052
0.0628062
0.0628073
0.0628083
0.0628093
0.0628103
0.0628113
0.0628123
0.0628134
0.0628144
0.0628154
0.0628164
0.0628174
0.0628184
0.0628194
0.0628205
0.0628215
0.0628225
0.0628235
0.0628245
0.0628255
0.0628266
0.0628276
0.0628286
0.0628296
0.0628306
0.0628316
0.0628327
0.0628337
0.0628347
0.0628357
0.0628367
0.0628377
0.0628387
0.0628398
0.0628408
0.0628418
0.0628428
0.0628438
0.0628448
0.0628458
0.0628469
0.0628479
0.0628489
0.0628499
0.0628509
0.0628519
0.062853
0.062854
0.062855
0.062856
0.062857
0.062858
0.062859
0.0628601
0.0628611
0.0628621
0.0628631
0.0628641
0.0628651
0.0628662
0.0628672
0.0628682
0.0628692
0.0628702
0.0628713
0.0628723
0.0628733
0.0628743
0.0628754
0.0628764
0.0628775
0.0628785
0.0628796
0.0628806
0.0628817
0.0628827
0.0628838
0.0628849
0.062886
0.062887
0.0628881
0.0628892
0.06289
0.0628911
0.0628907
0.0628907
0.0628907
1
0.924296
0.735445
0.597548
0.511655
0.456339
0.418179
0.390276
0.368945
0.35206
0.338313
0.326854
0.317114
0.308697
0.301322
0.294785
0.288934
0.283653
0.278853
0.274464
0.270431
0.266707
0.263256
0.260046
0.257051
0.254249
0.25162
0.249148
0.246819
0.24462
0.24254
0.240568
0.238697
0.236919
0.235225
0.233611
0.232071
0.230599
0.229191
0.227843
0.22655
0.22531
0.224119
0.222974
0.221873
0.220812
0.219791
0.218806
0.217856
0.216938
0.216052
0.215196
0.214367
0.213566
0.21279
0.212038
0.21131
0.210604
0.209919
0.209254
0.20861
0.207983
0.207375
0.206784
0.206209
0.20565
0.205107
0.204578
0.204064
0.203563
0.203076
0.202601
0.202138
0.201688
0.201248
0.20082
0.200403
0.199996
0.199599
0.199212
0.198835
0.198466
0.198107
0.197756
0.197414
0.19708
0.196753
0.196435
0.196124
0.19582
0.195523
0.195233
0.19495
0.194674
0.194403
0.19414
0.193882
0.19363
0.193383
0.193143
0.192907
0.192677
0.192453
0.192233
0.192018
0.191808
0.191603
0.191403
0.191206
0.191015
0.190827
0.190644
0.190465
0.190289
0.190118
0.189951
0.189787
0.189626
0.18947
0.189316
0.189167
0.18902
0.188877
0.188736
0.188599
0.188465
0.188334
0.188206
0.18808
0.187957
0.187837
0.18772
0.187605
0.187492
0.187382
0.187275
0.187169
0.187066
0.186966
0.186867
0.186771
0.186676
0.186584
0.186493
0.186405
0.186319
0.186234
0.186151
0.18607
0.185991
0.185913
0.185837
0.185763
0.18569
0.185619
0.185549
0.185481
0.185414
0.185349
0.185285
0.185223
0.185162
0.185102
0.185043
0.184986
0.18493
0.184875
0.184821
0.184769
0.184718
0.184667
0.184618
0.18457
0.184523
0.184477
0.184432
0.184387
0.184344
0.184302
0.18426
0.18422
0.18418
0.184141
0.184104
0.184066
0.18403
0.183994
0.18396
0.183926
0.183892
0.18386
0.183828
0.183797
0.183766
0.183736
0.183707
0.183679
0.183651
0.183624
0.183597
0.183571
0.183546
0.183522
0.183498
0.183475
0.183452
0.18343
0.183409
0.183388
0.183368
0.183348
0.18333
0.183311
0.183294
0.183277
0.18326
0.183245
0.183229
0.183215
0.183201
0.183187
0.183174
0.183162
0.18315
0.183139
0.183129
0.183119
0.183109
0.1831
0.183092
0.183084
0.183077
0.18307
0.183064
0.183058
0.183052
0.183047
0.183043
0.183039
0.183035
0.183032
0.183029
0.183026
0.183024
0.183022
0.183021
0.183019
0.183018
0.183018
0.183017
0.183017
0.183017
0.183018
0.183018
0.183019
0.18302
0.183021
0.183022
0.183024
0.183025
0.183027
0.183029
0.183031
0.183033
0.183035
0.183037
0.183039
0.183042
0.183044
0.183047
0.183049
0.183052
0.183054
0.183057
0.18306
0.183062
0.183065
0.183068
0.183071
0.183074
0.183076
0.183079
0.183082
0.183085
0.183088
0.18309
0.183093
0.183096
0.183099
0.183102
0.183105
0.183107
0.18311
0.183113
0.183116
0.183119
0.183122
0.183125
0.183127
0.18313
0.183133
0.183136
0.183139
0.183142
0.183144
0.183147
0.18315
0.183153
0.183156
0.183159
0.183162
0.183164
0.183167
0.18317
0.183173
0.183176
0.183179
0.183181
0.183184
0.183187
0.18319
0.183193
0.183196
0.183199
0.183201
0.183204
0.183207
0.18321
0.183213
0.183216
0.183218
0.183221
0.183224
0.183227
0.18323
0.183233
0.183235
0.183238
0.183241
0.183244
0.183247
0.18325
0.183252
0.183255
0.183258
0.183261
0.183264
0.183267
0.18327
0.183272
0.183275
0.183278
0.183281
0.183284
0.183287
0.183289
0.183292
0.183295
0.183298
0.183301
0.183304
0.183306
0.183309
0.183312
0.183315
0.183318
0.183321
0.183323
0.183326
0.183329
0.183332
0.183335
0.183338
0.183341
0.183343
0.183346
0.183349
0.183352
0.183355
0.183358
0.183361
0.183363
0.183366
0.183369
0.183372
0.183375
0.183378
0.183381
0.183384
0.183387
0.18339
0.183393
0.183396
0.183399
0.183402
0.183404
0.183407
0.183408
0.183408
0.183408
1
1.07971
0.997069
0.883648
0.788693
0.716909
0.663046
0.621832
0.589489
0.563476
0.542084
0.524143
0.508836
0.495581
0.483954
0.473644
0.464414
0.456085
0.448516
0.441599
0.435242
0.429376
0.42394
0.418885
0.41417
0.409758
0.40562
0.40173
0.398064
0.394603
0.391329
0.388227
0.385283
0.382485
0.379821
0.377282
0.374859
0.372544
0.37033
0.36821
0.366177
0.364227
0.362355
0.360555
0.358824
0.357157
0.355552
0.354004
0.352511
0.35107
0.349677
0.348332
0.347031
0.345772
0.344554
0.343374
0.34223
0.341122
0.340047
0.339004
0.337992
0.337009
0.336055
0.335128
0.334226
0.33335
0.332498
0.331669
0.330863
0.330078
0.329314
0.328569
0.327845
0.327139
0.326451
0.32578
0.325127
0.32449
0.323868
0.323262
0.322671
0.322095
0.321532
0.320983
0.320448
0.319925
0.319414
0.318916
0.31843
0.317955
0.317491
0.317038
0.316595
0.316163
0.315741
0.315328
0.314925
0.314531
0.314147
0.313771
0.313403
0.313044
0.312693
0.31235
0.312015
0.311687
0.311367
0.311054
0.310748
0.310449
0.310156
0.309871
0.309591
0.309318
0.30905
0.308789
0.308534
0.308284
0.30804
0.307801
0.307567
0.307339
0.307115
0.306897
0.306683
0.306474
0.30627
0.30607
0.305875
0.305683
0.305496
0.305313
0.305134
0.304959
0.304788
0.304621
0.304457
0.304296
0.304139
0.303986
0.303836
0.303689
0.303545
0.303405
0.303267
0.303133
0.303001
0.302872
0.302746
0.302622
0.302502
0.302384
0.302268
0.302155
0.302044
0.301936
0.30183
0.301726
0.301625
0.301526
0.301428
0.301333
0.30124
0.301149
0.30106
0.300973
0.300888
0.300804
0.300723
0.300643
0.300565
0.300488
0.300413
0.30034
0.300268
0.300198
0.30013
0.300062
0.299997
0.299932
0.299869
0.299808
0.299747
0.299688
0.299631
0.299574
0.299519
0.299465
0.299412
0.29936
0.299309
0.29926
0.299212
0.299164
0.299118
0.299073
0.299029
0.298986
0.298944
0.298903
0.298863
0.298824
0.298786
0.298749
0.298713
0.298678
0.298644
0.298611
0.298579
0.298548
0.298518
0.298489
0.298461
0.298434
0.298408
0.298383
0.298359
0.298336
0.298313
0.298292
0.298272
0.298252
0.298234
0.298216
0.298199
0.298183
0.298168
0.298154
0.29814
0.298128
0.298116
0.298105
0.298095
0.298086
0.298077
0.298069
0.298062
0.298055
0.298049
0.298044
0.298039
0.298035
0.298031
0.298028
0.298026
0.298024
0.298022
0.298021
0.29802
0.29802
0.29802
0.29802
0.298021
0.298022
0.298024
0.298025
0.298027
0.298029
0.298032
0.298034
0.298037
0.29804
0.298043
0.298046
0.29805
0.298053
0.298057
0.298061
0.298065
0.298069
0.298073
0.298077
0.298081
0.298085
0.298089
0.298093
0.298098
0.298102
0.298106
0.298111
0.298115
0.298119
0.298124
0.298128
0.298132
0.298137
0.298141
0.298146
0.29815
0.298155
0.298159
0.298163
0.298168
0.298172
0.298177
0.298181
0.298186
0.29819
0.298194
0.298199
0.298203
0.298208
0.298212
0.298217
0.298221
0.298225
0.29823
0.298234
0.298239
0.298243
0.298248
0.298252
0.298256
0.298261
0.298265
0.29827
0.298274
0.298279
0.298283
0.298287
0.298292
0.298296
0.298301
0.298305
0.29831
0.298314
0.298318
0.298323
0.298327
0.298332
0.298336
0.298341
0.298345
0.298349
0.298354
0.298358
0.298363
0.298367
0.298371
0.298376
0.29838
0.298385
0.298389
0.298394
0.298398
0.298402
0.298407
0.298411
0.298416
0.29842
0.298424
0.298429
0.298433
0.298438
0.298442
0.298447
0.298451
0.298455
0.29846
0.298464
0.298469
0.298473
0.298477
0.298482
0.298486
0.298491
0.298495
0.2985
0.298504
0.298508
0.298513
0.298517
0.298522
0.298526
0.29853
0.298535
0.298539
0.298544
0.298548
0.298553
0.298557
0.298562
0.298566
0.298571
0.298575
0.29858
0.298584
0.298589
0.298593
0.298598
0.298603
0.298608
0.298612
0.298617
0.298621
0.298626
0.29863
0.298632
0.298632
0.298632
1
1.11179
1.11438
1.05557
0.984372
0.919034
0.863799
0.818216
0.780644
0.74942
0.723162
0.700793
0.681495
0.664651
0.649791
0.636556
0.624671
0.61392
0.604132
0.595171
0.586927
0.57931
0.572245
0.565669
0.559531
0.553784
0.548391
0.543317
0.538534
0.534016
0.529741
0.525688
0.521841
0.518182
0.514699
0.511379
0.508209
0.505179
0.502281
0.499505
0.496844
0.494291
0.491839
0.489481
0.487214
0.485031
0.482928
0.4809
0.478944
0.477056
0.475232
0.473469
0.471764
0.470115
0.468518
0.466972
0.465474
0.464022
0.462614
0.461247
0.459922
0.458634
0.457384
0.45617
0.454989
0.453842
0.452726
0.451641
0.450585
0.449557
0.448556
0.447582
0.446634
0.44571
0.444809
0.443932
0.443077
0.442243
0.44143
0.440638
0.439865
0.439111
0.438375
0.437657
0.436957
0.436273
0.435606
0.434955
0.434319
0.433698
0.433092
0.4325
0.431922
0.431357
0.430806
0.430267
0.429741
0.429227
0.428724
0.428234
0.427754
0.427285
0.426827
0.42638
0.425942
0.425515
0.425097
0.424689
0.42429
0.4239
0.423518
0.423145
0.422781
0.422425
0.422076
0.421736
0.421403
0.421077
0.420759
0.420448
0.420144
0.419846
0.419555
0.419271
0.418992
0.41872
0.418454
0.418194
0.41794
0.417691
0.417447
0.417209
0.416976
0.416748
0.416526
0.416308
0.416094
0.415886
0.415682
0.415482
0.415287
0.415096
0.414909
0.414726
0.414547
0.414372
0.414201
0.414034
0.41387
0.413709
0.413552
0.413399
0.413249
0.413102
0.412958
0.412817
0.412679
0.412545
0.412413
0.412284
0.412158
0.412034
0.411913
0.411795
0.411679
0.411566
0.411455
0.411347
0.411241
0.411137
0.411035
0.410936
0.410839
0.410744
0.410651
0.410559
0.41047
0.410383
0.410298
0.410214
0.410132
0.410052
0.409974
0.409897
0.409822
0.409749
0.409677
0.409607
0.409538
0.409471
0.409405
0.409341
0.409278
0.409217
0.409157
0.409098
0.409041
0.408985
0.40893
0.408877
0.408826
0.408775
0.408726
0.408678
0.408632
0.408587
0.408543
0.4085
0.408459
0.408419
0.40838
0.408343
0.408307
0.408272
0.408238
0.408206
0.408175
0.408145
0.408117
0.408089
0.408063
0.408038
0.408014
0.407992
0.40797
0.40795
0.407931
0.407912
0.407895
0.407879
0.407865
0.407851
0.407838
0.407826
0.407815
0.407805
0.407796
0.407788
0.40778
0.407774
0.407768
0.407763
0.407758
0.407755
0.407752
0.407749
0.407747
0.407746
0.407745
0.407745
0.407745
0.407746
0.407747
0.407749
0.407751
0.407753
0.407755
0.407758
0.407762
0.407765
0.407769
0.407773
0.407777
0.407781
0.407786
0.40779
0.407795
0.4078
0.407805
0.40781
0.407815
0.407821
0.407826
0.407831
0.407837
0.407842
0.407848
0.407853
0.407859
0.407865
0.40787
0.407876
0.407881
0.407887
0.407893
0.407899
0.407904
0.40791
0.407916
0.407921
0.407927
0.407933
0.407939
0.407944
0.40795
0.407956
0.407961
0.407967
0.407973
0.407979
0.407984
0.40799
0.407996
0.408001
0.408007
0.408013
0.408019
0.408024
0.40803
0.408036
0.408042
0.408047
0.408053
0.408059
0.408064
0.40807
0.408076
0.408082
0.408087
0.408093
0.408099
0.408104
0.40811
0.408116
0.408122
0.408127
0.408133
0.408139
0.408144
0.40815
0.408156
0.408162
0.408167
0.408173
0.408179
0.408184
0.40819
0.408196
0.408201
0.408207
0.408213
0.408219
0.408224
0.40823
0.408236
0.408241
0.408247
0.408253
0.408259
0.408264
0.40827
0.408276
0.408281
0.408287
0.408293
0.408298
0.408304
0.40831
0.408316
0.408321
0.408327
0.408333
0.408338
0.408344
0.40835
0.408355
0.408361
0.408367
0.408373
0.408378
0.408384
0.40839
0.408395
0.408401
0.408407
0.408413
0.408418
0.408424
0.40843
0.408436
0.408441
0.408447
0.408453
0.408459
0.408464
0.40847
0.408476
0.408482
0.408488
0.408494
0.4085
0.408506
0.408512
0.408518
0.408524
0.40853
0.408535
0.40854
0.40854
0.40854
1
1.09593
1.14367
1.13403
1.0977
1.05334
1.00942
0.969223
0.93363
0.902505
0.875345
0.85157
0.830636
0.812077
0.795507
0.78061
0.767132
0.754865
0.743642
0.733324
0.723799
0.714971
0.706761
0.699103
0.691938
0.685219
0.678902
0.672951
0.667333
0.66202
0.656987
0.652211
0.647672
0.643353
0.639237
0.63531
0.631559
0.627972
0.624539
0.621249
0.618093
0.615064
0.612153
0.609354
0.606661
0.604067
0.601568
0.599157
0.596831
0.594585
0.592416
0.590318
0.588289
0.586326
0.584426
0.582585
0.580802
0.579072
0.577395
0.575768
0.574189
0.572656
0.571167
0.56972
0.568314
0.566947
0.565618
0.564325
0.563067
0.561843
0.560651
0.559491
0.558361
0.55726
0.556188
0.555143
0.554125
0.553132
0.552164
0.55122
0.5503
0.549402
0.548526
0.547672
0.546838
0.546024
0.54523
0.544455
0.543698
0.54296
0.542239
0.541534
0.540847
0.540175
0.539519
0.538878
0.538252
0.537641
0.537044
0.53646
0.53589
0.535333
0.534789
0.534257
0.533737
0.53323
0.532733
0.532248
0.531774
0.531311
0.530858
0.530415
0.529982
0.529559
0.529146
0.528742
0.528347
0.52796
0.527583
0.527213
0.526852