# vtk DataFile Version 2.0
FlowField
ASCII
DATASET STRUCTURED_GRID
DIMENSIONS 400 1 50
POINTS 20000 float
0 0 0
0.08 0 0
0.16 0 0
0.24 0 0
0.32 0 0
0.4 0 0
0.48 0 0
0.56 0 0
0.64 0 0
0.72 0 0
0.8 0 0
0.88 0 0
0.96 0 0
1.04 0 0
1.12 0 0
1.2 0 0
1.28 0 0
1.36 0 0
1.44 0 0
1.52 0 0
1.6 0 0
1.68 0 0
1.76 0 0
1.84 0 0
1.92 0 0
2 0 0
2.08 0 0
2.16 0 0
2.24 0 0
2.32 0 0
2.4 0 0
2.48 0 0
2.56 0 0
2.64 0 0
2.72 0 0
2.8 0 0
2.88 0 0
2.96 0 0
3.04 0 0
3.12 0 0
3.2 0 0
3.28 0 0
3.36 0 0
3.44 0 0
3.52 0 0
3.6 0 0
3.68 0 0
3.76 0 0
3.84 0 0
3.92 0 0
4 0 0
4.08 0 0
4.16 0 0
4.24 0 0
4.32 0 0
4.4 0 0
4.48 0 0
4.56 0 0
4.64 0 0
4.72 0 0
4.8 0 0
4.88 0 0
4.96 0 0
5.04 0 0
5.12 0 0
5.2 0 0
5.28 0 0
5.36 0 0
5.44 0 0
5.52 0 0
5.6 0 0
5.68 0 0
5.76 0 0
5.84 0 0
5.92 0 0
6 0 0
6.08 0 0
6.16 0 0
6.24 0 0
6.32 0 0
6.4 0 0
6.48 0 0
6.56 0 0
6.64 0 0
6.72 0 0
6.8 0 0
6.88 0 0
6.96 0 0
7.04 0 0
7.12 0 0
7.2 0 0
7.28 0 0
7.36 0 0
7.44 0 0
7.52 0 0
7.6 0 0
7.68 0 0
7.76 0 0
7.84 0 0
7.92 0 0
8 0 0
8.08 0 0
8.16 0 0
8.24 0 0
8.32 0 0
8.4 0 0
8.48 0 0
8.56 0 0
8.64 0 0
8.72 0 0
8.8 0 0
8.88 0 0
8.96 0 0
9.04 0 0
9.12 0 0
9.2 0 0
9.28 0 0
9.36 0 0
9.44 0 0
9.52 0 0
9.6 0 0
9.68 0 0
9.76 0 0
9.84 0 0
9.92 0 0
10 0 0
10.08 0 0
10.16 0 0
10.24 0 0
10.32 0 0
10.4 0 0
10.48 0 0
10.56 0 0
10.64 0 0
10.72 0 0
10.8 0 0
10.88 0 0
10.96 0 0
11.04 0 0
11.12 0 0
11.2 0 0
11.28 0 0
11.36 0 0
11.44 0 0
11.52 0 0
11.6 0 0
11.68 0 0
11.76 0 0
11.84 0 0
11.92 0 0
12 0 0
12.08 0 0
12.16 0 0
12.24 0 0
12.32 0 0
12.4 0 0
12.48 0 0
12.56 0 0
12.64 0 0
12.72 0 0
12.8 0 0
12.88 0 0
12.96 0 0
13.04 0 0
13.12 0 0
13.2 0 0
13.28 0 0
13.36 0 0
13.44 0 0
13.52 0 0
13.6 0 0
13.68 0 0
13.76 0 0
13.84 0 0
13.92 0 0
14 0 0
14.08 0 0
14.16 0 0
14.24 0 0
14.32 0 0
14.4 0 0
14.48 0 0
14.56 0 0
14.64 0 0
14.72 0 0
14.8 0 0
14.88 0 0
14.96 0 0
15.04 0 0
15.12 0 0
15.2 0 0
15.28 0 0
15.36 0 0
15.44 0 0
15.52 0 0
15.6 0 0
15.68 0 0
15.76 0 0
15.84 0 0
15.92 0 0
16 0 0
16.08 0 0
16.16 0 0
16.24 0 0
16.32 0 0
16.4 0 0
16.48 0 0
16.56 0 0
16.64 0 0
16.72 0 0
16.8 0 0
16.88 0 0
16.96 0 0
17.04 0 0
17.12 0 0
17.2 0 0
17.28 0 0
17.36 0 0
17.44 0 0
17.52 0 0
17.6 0 0
17.68 0 0
17.76 0 0
17.84 0 0
17.92 0 0
18 0 0
18.08 0 0
18.16 0 0
18.24 0 0
18.32 0 0
18.4 0 0
18.48 0 0
18.56 0 0
18.64 0 0
18.72 0 0
18.8 0 0
18.88 0 0
18.96 0 0
19.04 0 0
19.12 0 0
19.2 0 0
19.28 0 0
19.36 0 0
19.44 0 0
19.52 0 0
19.6 0 0
19.68 0 0
19.76 0 0
19.84 0 0
19.92 0 0
20 0 0
20.08 0 0
20.16 0 0
20.24 0 0
20.32 0 0
20.4 0 0
20.48 0 0
20.56 0 0
20.64 0 0
20.72 0 0
20.8 0 0
20.88 0 0
20.96 0 0
21.04 0 0
21.12 0 0
21.2 0 0
21.28 0 0
21.36 0 0
21.44 0 0
21.52 0 0
21.6 0 0
21.68 0 0
21.76 0 0
21.84 0 0
21.92 0 0
22 0 0
22.08 0 0
22.16 0 0
22.24 0 0
22.32 0 0
22.4 0 0
22.48 0 0
22.56 0 0
22.64 0 0
22.72 0 0
22.8 0 0
22.88 0 0
22.96 0 0
23.04 0 0
23.12 0 0
23.2 0 0
23.28 0 0
23.36 0 0
23.44 0 0
23.52 0 0
23.6 0 0
23.68 0 0
23.76 0 0
23.84 0 0
23.92 0 0
24 0 0
24.08 0 0
24.16 0 0
24.24 0 0
24.32 0 0
24.4 0 0
24.48 0 0
24.56 0 0
24.64 0 0
24.72 0 0
24.8 0 0
24.88 0 0
24.96 0 0
25.04 0 0
25.12 0 0
25.2 0 0
25.28 0 0
25.36 0 0
25.44 0 0
25.52 0 0
25.6 0 0
25.68 0 0
25.76 0 0
25.84 0 0
25.92 0 0
26 0 0
26.08 0 0
26.16 0 0
26.24 0 0
26.32 0 0
26.4 0 0
26.48 0 0
26.56 0 0
26.64 0 0
26.72 0 0
26.8 0 0
26.88 0 0
26.96 0 0
27.04 0 0
27.12 0 0
27.2 0 0
27.28 0 0
27.36 0 0
27.44 0 0
27.52 0 0
27.6 0 0
27.68 0 0
27.76 0 0
27.84 0 0
27.92 0 0
28 0 0
28.08 0 0
28.16 0 0
28.24 0 0
28.32 0 0
28.4 0 0
28.48 0 0
28.56 0 0
28.64 0 0
28.72 0 0
28.8 0 0
28.88 0 0
28.96 0 0
29.04 0 0
29.12 0 0
29.2 0 0
29.28 0 0
29.36 0 0
29.44 0 0
29.52 0 0
29.6 0 0
29.68 0 0
29.76 0 0
29.84 0 0
29.92 0 0
30 0 0
30.08 0 0
30.16 0 0
30.24 0 0
30.32 0 0
30.4 0 0
30.48 0 0
30.56 0 0
30.64 0 0
30.72 0 0
30.8 0 0
30.88 0 0
30.96 0 0
31.04 0 0
31.12 0 0
31.2 0 0
31.28 0 0
31.36 0 0
31.44 0 0
31.52 0 0
31.6 0 0
31.68 0 0
31.76 0 0
31.84 0 0
31.92 0 0
0 0.02 0
0.08 0.02 0
0.16 0.02 0
0.24 0.02 0
0.32 0.02 0
0.4 0.02 0
0.48 0.02 0
0.56 0.02 0
0.64 0.02 0
0.72 0.02 0
0.8 0.02 0
0.88 0.02 0
0.96 0.02 0
1.04 0.02 0
1.12 0.02 0
1.2 0.02 0
1.28 0.02 0
1.36 0.02 0
1.44 0.02 0
1.52 0.02 0
1.6 0.02 0
1.68 0.02 0
1.76 0.02 0
1.84 0.02 0
1.92 0.02 0
2 0.02 0
2.08 0.02 0
2.16 0.02 0
2.24 0.02 0
2.32 0.02 0
2.4 0.02 0
2.48 0.02 0
2.56 0.02 0
2.64 0.02 0
2.72 0.02 0
2.8 0.02 0
2.88 0.02 0
2.96 0.02 0
3.04 0.02 0
3.12 0.02 0
3.2 0.02 0
3.28 0.02 0
3.36 0.02 0
3.44 0.02 0
3.52 0.02 0
3.6 0.02 0
3.68 0.02 0
3.76 0.02 0
3.84 0.02 0
3.92 0.02 0
4 0.02 0
4.08 0.02 0
4.16 0.02 0
4.24 0.02 0
4.32 0.02 0
4.4 0.02 0
4.48 0.02 0
4.56 0.02 0
4.64 0.02 0
4.72 0.02 0
4.8 0.02 0
4.88 0.02 0
4.96 0.02 0
5.04 0.02 0
5.12 0.02 0
5.2 0.02 0
5.28 0.02 0
5.36 0.02 0
5.44 0.02 0
5.52 0.02 0
5.6 0.02 0
5.68 0.02 0
5.76 0.02 0
5.84 0.02 0
5.92 0.02 0
6 0.02 0
6.08 0.02 0
6.16 0.02 0
6.24 0.02 0
6.32 0.02 0
6.4 0.02 0
6.48 0.02 0
6.56 0.02 0
6.64 0.02 0
6.72 0.02 0
6.8 0.02 0
6.88 0.02 0
6.96 0.02 0
7.04 0.02 0
7.12 0.02 0
7.2 0.02 0
7.28 0.02 0
7.36 0.02 0
7.44 0.02 0
7.52 0.02 0
7.6 0.02 0
7.68 0.02 0
7.76 0.02 0
7.84 0.02 0
7.92 0.02 0
8 0.02 0
8.08 0.02 0
8.16 0.02 0
8.24 0.02 0
8.32 0.02 0
8.4 0.02 0
8.48 0.02 0
8.56 0.02 0
8.64 0.02 0
8.72 0.02 0
8.8 0.02 0
8.88 0.02 0
8.96 0.02 0
9.04 0.02 0
9.12 0.02 0
9.2 0.02 0
9.28 0.02 0
9.36 0.02 0
9.44 0.02 0
9.52 0.02 0
9.6 0.02 0
9.68 0.02 0
9.76 0.02 0
9.84 0.02 0
9.92 0.02 0
10 0.02 0
10.08 0.02 0
10.16 0.02 0
10.24 0.02 0
10.32 0.02 0
10.4 0.02 0
10.48 0.02 0
10.56 0.02 0
10.64 0.02 0
10.72 0.02 0
10.8 0.02 0
10.88 0.02 0
10.96 0.02 0
11.04 0.02 0
11.12 0.02 0
11.2 0.02 0
11.28 0.02 0
11.36 0.02 0
11.44 0.02 0
11.52 0.02 0
11.6 0.02 0
11.68 0.02 0
11.76 0.02 0
11.84 0.02 0
11.92 0.02 0
12 0.02 0
12.08 0.02 0
12.16 0.02 0
12.24 0.02 0
12.32 0.02 0
12.4 0.02 0
12.48 0.02 0
12.56 0.02 0
12.64 0.02 0
12.72 0.02 0
12.8 0.02 0
12.88 0.02 0
12.96 0.02 0
13.04 0.02 0
13.12 0.02 0
13.2 0.02 0
13.28 0.02 0
13.36 0.02 0
13.44 0.02 0
13.52 0.02 0
13.6 0.02 0
13.68 0.02 0
13.76 0.02 0
13.84 0.02 0
13.92 0.02 0
14 0.02 0
14.08 0.02 0
14.16 0.02 0
14.24 0.02 0
14.32 0.02 0
14.4 0.02 0
14.48 0.02 0
14.56 0.02 0
14.64 0.02 0
14.72 0.02 0
14.8 0.02 0
14.88 0.02 0
14.96 0.02 0
15.04 0.02 0
15.12 0.02 0
15.2 0.02 0
15.28 0.02 0
15.36 0.02 0
15.44 0.02 0
15.52 0.02 0
15.6 0.02 0
15.68 0.02 0
15.76 0.02 0
15.84 0.02 0
15.92 0.02 0
16 0.02 0
16.08 0.02 0
16.16 0.02 0
16.24 0.02 0
16.32 0.02 0
16.4 0.02 0
16.48 0.02 0
16.56 0.02 0
16.64 0.02 0
16.72 0.02 0
16.8 0.02 0
16.88 0.02 0
16.96 0.02 0
17.04 0.02 0
17.12 0.02 0
17.2 0.02 0
17.28 0.02 0
17.36 0.02 0
17.44 0.02 0
17.52 0.02 0
17.6 0.02 0
17.68 0.02 0
17.76 0.02 0
17.84 0.02 0
17.92 0.02 0
18 0.02 0
18.08 0.02 0
18.16 0.02 0
18.24 0.02 0
18.32 0.02 0
18.4 0.02 0
18.48 0.02 0
18.56 0.02 0
18.64 0.02 0
18.72 0.02 0
18.8 0.02 0
18.88 0.02 0
18.96 0.02 0
19.04 0.02 0
19.12 0.02 0
19.2 0.02 0
19.28 0.02 0
19.36 0.02 0
19.44 0.02 0
19.52 0.02 0
19.6 0.02 0
19.68 0.02 0
19.76 0.02 0
19.84 0.02 0
19.92 0.02 0
20 0.02 0
20.08 0.02 0
20.16 0.02 0
20.24 0.02 0
20.32 0.02 0
20.4 0.02 0
20.48 0.02 0
20.56 0.02 0
20.64 0.02 0
20.72 0.02 0
20.8 0.02 0
20.88 0.02 0
20.96 0.02 0
21.04 0.02 0
21.12 0.02 0
21.2 0.02 0
21.28 0.02 0
21.36 0.02 0
21.44 0.02 0
21.52 0.02 0
21.6 0.02 0
21.68 0.02 0
21.76 0.02 0
21.84 0.02 0
21.92 0.02 0
22 0.02 0
22.08 0.02 0
22.16 0.02 0
22.24 0.02 0
22.32 0.02 0
22.4 0.02 0
22.48 0.02 0
22.56 0.02 0
22.64 0.02 0
22.72 0.02 0
22.8 0.02 0
22.88 0.02 0
22.96 0.02 0
23.04 0.02 0
23.12 0.02 0
23.2 0.02 0
23.28 0.02 0
23.36 0.02 0
23.44 0.02 0
23.52 0.02 0
23.6 0.02 0
23.68 0.02 0
23.76 0.02 0
23.84 0.02 0
23.92 0.02 0
24 0.02 0
24.08 0.02 0
24.16 0.02 0
24.24 0.02 0
24.32 0.02 0
24.4 0.02 0
24.48 0.02 0
24.56 0.02 0
24.64 0.02 0
24.72 0.02 0
24.8 0.02 0
24.88 0.02 0
24.96 0.02 0
25.04 0.02 0
25.12 0.02 0
25.2 0.02 0
25.28 0.02 0
25.36 0.02 0
25.44 0.02 0
25.52 0.02 0
25.6 0.02 0
25.68 0.02 0
25.76 0.02 0
25.84 0.02 0
25.92 0.02 0
26 0.02 0
26.08 0.02 0
26.16 0.02 0
26.24 0.02 0
26.32 0.02 0
26.4 0.02 0
26.48 0.02 0
26.56 0.02 0
26.64 0.02 0
26.72 0.02 0
26.8 0.02 0
26.88 0.02 0
26.96 0.02 0
27.04 0.02 0
27.12 0.02 0
27.2 0.02 0
27.28 0.02 0
27.36 0.02 0
27.44 0.02 0
27.52 0.02 0
27.6 0.02 0
27.68 0.02 0
27.76 0.02 0
27.84 0.02 0
27.92 0.02 0
28 0.02 0
28.08 0.02 0
28.16 0.02 0
28.24 0.02 0
28.32 0.02 0
28.4 0.02 0
28.48 0.02 0
28.56 0.02 0
28.64 0.02 0
28.72 0.02 0
28.8 0.02 0
28.88 0.02 0
28.96 0.02 0
29.04 0.02 0
29.12 0.02 0
29.2 0.02 0
29.28 0.02 0
29.36 0.02 0
29.44 0.02 0
29.52 0.02 0
29.6 0.02 0
29.68 0.02 0
29.76 0.02 0
29.84 0.02 0
29.92 0.02 0
30 0.02 0
30.08 0.02 0
30.16 0.02 0
30.24 0.02 0
30.32 0.02 0
30.4 0.02 0
30.48 0.02 0
30.56 0.02 0
30.64 0.02 0
30.72 0.02 0
30.8 0.02 0
30.88 0.02 0
30.96 0.02 0
31.04 0.02 0
31.12 0.02 0
31.2 0.02 0
31.28 0.02 0
31.36 0.02 0
31.44 0.02 0
31.52 0.02 0
31.6 0.02 0
31.68 0.02 0
31.76 0.02 0
31.84 0.02 0
31.92 0.02 0
0 0.04 0
0.08 0.04 0
0.16 0.04 0
0.24 0.04 0
0.32 0.04 0
0.4 0.04 0
0.48 0.04 0
0.56 0.04 0
0.64 0.04 0
0.72 0.04 0
0.8 0.04 0
0.88 0.04 0
0.96 0.04 0
1.04 0.04 0
1.12 0.04 0
1.2 0.04 0
1.28 0.04 0
1.36 0.04 0
1.44 0.04 0
1.52 0.04 0
1.6 0.04 0
1.68 0.04 0
1.76 0.04 0
1.84 0.04 0
1.92 0.04 0
2 0.04 0
2.08 0.04 0
2.16 0.04 0
2.24 0.04 0
2.32 0.04 0
2.4 0.04 0
2.48 0.04 0
2.56 0.04 0
2.64 0.04 0
2.72 0.04 0
2.8 0.04 0
2.88 0.04 0
2.96 0.04 0
3.04 0.04 0
3.12 0.04 0
3.2 0.04 0
3.28 0.04 0
3.36 0.04 0
3.44 0.04 0
3.52 0.04 0
3.6 0.04 0
3.68 0.04 0
3.76 0.04 0
3.84 0.04 0
3.92 0.04 0
4 0.04 0
4.08 0.04 0
4.16 0.04 0
4.24 0.04 0
4.32 0.04 0
4.4 0.04 0
4.48 0.04 0
4.56 0.04 0
4.64 0.04 0
4.72 0.04 0
4.8 0.04 0
4.88 0.04 0
4.96 0.04 0
5.04 0.04 0
5.12 0.04 0
5.2 0.04 0
5.28 0.04 0
5.36 0.04 0
5.44 0.04 0
5.52 0.04 0
5.6 0.04 0
5.68 0.04 0
5.76 0.04 0
5.84 0.04 0
5.92 0.04 0
6 0.04 0
6.08 0.04 0
6.16 0.04 0
6.24 0.04 0
6.32 0.04 0
6.4 0.04 0
6.48 0.04 0
6.56 0.04 0
6.64 0.04 0
6.72 0.04 0
6.8 0.04 0
6.88 0.04 0
6.96 0.04 0
7.04 0.04 0
7.12 0.04 0
7.2 0.04 0
7.28 0.04 0
7.36 0.04 0
7.44 0.04 0
7.52 0.04 0
7.6 0.04 0
7.68 0.04 0
7.76 0.04 0
7.84 0.04 0
[...]
POINT_DATA 20000

SCALARS u float 1
LOOKUP_TABLE default
0
-0.507089
-0.29192
-0.214161
-0.179026
-0.158665
-0.145112
-0.13536
-0.127968
-0.122141
-0.117403
-0.113452
-0.110088
-0.107175
-0.104617
-0.102344
-0.100304
-0.0984593
-0.0967795
-0.0952411
-0.093825
-0.0925161
-0.0913016
-0.0901709
-0.0891151
-0.0881264
-0.0871984
-0.0863252
-0.085502
-0.0847243
-0.0839882
-0.0832905
-0.082628
-0.081998
-0.081398
-0.080826
-0.0802798
-0.0797578
-0.0792583
-0.0787798
-0.078321
-0.0778806
-0.0774576
-0.0770509
-0.0766595
-0.0762827
-0.0759195
-0.0755693
-0.0752313
-0.0749049
-0.0745896
-0.0742847
-0.0739898
-0.0737044
-0.073428
-0.0731602
-0.0729007
-0.072649
-0.0724049
-0.0721679
-0.0719379
-0.0717145
-0.0714974
-0.0712864
-0.0710813
-0.0708818
-0.0706877
-0.0704988
-0.070315
-0.070136
-0.0699617
-0.069792
-0.0696265
-0.0694653
-0.0693082
-0.069155
-0.0690056
-0.0688599
-0.0687178
-0.0685791
-0.0684438
-0.0683118
-0.0681829
-0.0680571
-0.0679343
-0.0678144
-0.0676972
-0.0675829
-0.0674712
-0.067362
-0.0672554
-0.0671513
-0.0670495
-0.06695
-0.0668528
-0.0667579
-0.066665
-0.0665743
-0.0664856
-0.0663989
-0.0663141
-0.0662312
-0.0661502
-0.066071
-0.0659935
-0.0659178
-0.0658437
-0.0657713
-0.0657005
-0.0656312
-0.0655635
-0.0654972
-0.0654324
-0.0653691
-0.0653071
-0.0652465
-0.0651872
-0.0651292
-0.0650725
-0.065017
-0.0649627
-0.0649096
-0.0648577
-0.0648069
-0.0647572
-0.0647086
-0.0646611
-0.0646146
-0.0645691
-0.0645246
-0.064481
-0.0644384
-0.0643968
-0.064356
-0.0643161
-0.0642771
-0.064239
-0.0642016
-0.0641651
-0.0641294
-0.0640945
-0.0640603
-0.0640268
-0.0639941
-0.0639621
-0.0639307
-0.0639001
-0.0638701
-0.0638408
-0.0638121
-0.063784
-0.0637565
-0.0637296
-0.0637033
-0.0636776
-0.0636524
-0.0636278
-0.0636037
-0.0635801
-0.063557
-0.0635345
-0.0635124
-0.0634907
-0.0634696
-0.0634489
-0.0634286
-0.0634088
-0.0633894
-0.0633704
-0.0633519
-0.0633337
-0.0633159
-0.0632985
-0.0632815
-0.0632648
-0.0632485
-0.0632326
-0.0632169
-0.0632017
-0.0631867
-0.0631721
-0.0631578
-0.0631437
-0.06313
-0.0631166
-0.0631035
-0.0630906
-0.0630781
-0.0630658
-0.0630537
-0.063042
-0.0630304
-0.0630191
-0.0630081
-0.0629973
-0.0629867
-0.0629764
-0.0629663
-0.0629563
-0.0629466
-0.0629372
-0.0629279
-0.0629188
-0.0629099
-0.0629012
-0.0628927
-0.0628843
-0.0628762
-0.0628682
-0.0628603
-0.0628527
-0.0628452
-0.0628379
-0.0628307
-0.0628237
-0.0628168
-0.0628101
-0.0628035
-0.0627971
-0.0627908
-0.0627846
-0.0627786
-0.0627727
-0.0627669
-0.0627612
-0.0627557
-0.0627503
-0.0627451
-0.0627399
-0.0627349
-0.06273
-0.0627251
-0.0627205
-0.0627159
-0.0627114
-0.0627071
-0.0627028
-0.0626987
-0.0626947
-0.0626908
-0.062687
-0.0626833
-0.0626797
-0.0626762
-0.0626728
-0.0626695
-0.0626663
-0.0626633
-0.0626603
-0.0626574
-0.0626546
-0.062652
-0.0626494
-0.062647
-0.0626446
-0.0626424
-0.0626402
-0.0626381
-0.0626361
-0.0626343
-0.0626325
-0.0626308
-0.0626292
-0.0626277
-0.0626263
-0.062625
-0.0626237
-0.0626226
-0.0626215
-0.0626205
-0.0626196
-0.0626187
-0.0626179
-0.0626172
-0.0626166
-0.062616
-0.0626155
-0.062615
-0.0626147
-0.0626143
-0.0626141
-0.0626138
-0.0626137
-0.0626135
-0.0626135
-0.0626134
-0.0626134
-0.0626135
-0.0626135
-0.0626137
-0.0626138
-0.062614
-0.0626142
-0.0626144
-0.0626147
-0.0626149
-0.0626152
-0.0626156
-0.0626159
-0.0626163
-0.0626166
-0.062617
-0.0626174
-0.0626178
-0.0626182
-0.0626187
-0.0626191
-0.0626195
-0.06262
-0.0626204
-0.0626209
-0.0626214
-0.0626218
-0.0626223
-0.0626228
-0.0626233
-0.0626238
-0.0626242
-0.0626247
-0.0626252
-0.0626257
-0.0626262
-0.0626267
-0.0626272
-0.0626277
-0.0626282
-0.0626287
-0.0626292
-0.0626297
-0.0626301
-0.0626306
-0.0626311
-0.0626316
-0.0626321
-0.0626326
-0.0626331
-0.0626336
-0.0626341
-0.0626346
-0.0626351
-0.0626356
-0.0626361
-0.0626366
-0.0626371
-0.0626376
-0.0626381
-0.0626386
-0.0626391
-0.0626396
-0.06264
-0.0626405
-0.062641
-0.0626415
-0.062642
-0.0626425
-0.062643
-0.0626435
-0.062644
-0.0626445
-0.062645
-0.0626455
-0.062646
-0.0626465
-0.062647
-0.0626475
-0.062648
-0.0626485
-0.062649
-0.0626495
-0.06265
-0.0626505
-0.062651
-0.0626515
-0.062652
-0.0626524
-0.062653
-0.0626535
-0.062654
-0.0626545
-0.062655
-0.0626555
-0.062656
-0.0626565
-0.062657
-0.0626575
-0.062658
-0.0626586
-0.0626591
-0.0626596
-0.0626602
-0.0626607
-0.0626613
-0.0626618
-0.0626623
-0.0626629
-0.0626633
-0.0626639
-0.0626636
-0.0626636
-0.0626636
1
0.507089
0.29192
0.214161
0.179026
0.158665
0.145112
0.13536
0.127968
0.122141
0.117403
0.113452
0.110088
0.107175
0.104617
0.102344
0.100304
0.0984593
0.0967795
0.0952411
0.093825
0.0925161
0.0913016
0.0901709
0.0891151
0.0881264
0.0871984
0.0863252
0.085502
0.0847243
0.0839882
0.0832905
0.082628
0.081998
0.081398
0.080826
0.0802798
0.0797578
0.0792583
0.0787798
0.078321
0.0778806
0.0774576
0.0770509
0.0766595
0.0762827
0.0759195
0.0755693
0.0752313
0.0749049
0.0745896
0.0742847
0.0739898
0.0737044
0.073428
0.0731602
0.0729007
0.072649
0.0724049
0.0721679
0.0719379
0.0717145
0.0714974
0.0712864
0.0710813
0.0708818
0.0706877
0.0704988
0.070315
0.070136
0.0699617
0.069792
0.0696265
0.0694653
0.0693082
0.069155
0.0690056
0.0688599
0.0687178
0.0685791
0.0684438
0.0683118
0.0681829
0.0680571
0.0679343
0.0678144
0.0676972
0.0675829
0.0674712
0.067362
0.0672554
0.0671513
0.0670495
0.06695
0.0668528
0.0667579
0.066665
0.0665743
0.0664856
0.0663989
0.0663141
0.0662312
0.0661502
0.066071
0.0659935
0.0659178
0.0658437
0.0657713
0.0657005
0.0656312
0.0655635
0.0654972
0.0654324
0.0653691
0.0653071
0.0652465
0.0651872
0.0651292
0.0650725
0.065017
0.0649627
0.0649096
0.0648577
0.0648069
0.0647572
0.0647086
0.0646611
0.0646146
0.0645691
0.0645246
0.064481
0.0644384
0.0643968
0.064356
0.0643161
0.0642771
0.064239
0.0642016
0.0641651
0.0641294
0.0640945
0.0640603
0.0640268
0.0639941
0.0639621
0.0639307
0.0639001
0.0638701
0.0638408
0.0638121
0.063784
0.0637565
0.0637296
0.0637033
0.0636776
0.0636524
0.0636278
0.0636037
0.0635801
0.063557
0.0635345
0.0635124
0.0634907
0.0634696
0.0634489
0.0634286
0.0634088
0.0633894
0.0633704
0.0633519
0.0633337
0.0633159
0.0632985
0.0632815
0.0632648
0.0632485
0.0632326
0.0632169
0.0632017
0.0631867
0.0631721
0.0631578
0.0631437
0.06313
0.0631166
0.0631035
0.0630906
0.0630781
0.0630658
0.0630537
0.063042
0.0630304
0.0630191
0.0630081
0.0629973
0.0629867
0.0629764
0.0629663
0.0629563
0.0629466
0.0629372
0.0629279
0.0629188
0.0629099
0.0629012
0.0628927
0.0628843
0.0628762
0.0628682
0.0628603
0.0628527
0.0628452
0.0628379
0.0628307
0.0628237
0.0628168
0.0628101
0.0628035
0.0627971
0.0627908
0.0627846
0.0627786
0.0627727
0.0627669
0.0627612
0.0627557
0.0627503
0.0627451
0.0627399
0.0627349
0.06273
0.0627251
0.0627205
0.0627159
0.0627114
0.0627071
0.0627028
0.0626987
0.0626947
0.0626908
0.062687
0.0626833
0.0626797
0.0626762
0.0626728
0.0626695
0.0626663
0.0626633
0.0626603
0.0626574
0.0626546
0.062652
0.0626494
0.062647
0.0626446
0.0626424
0.0626402
0.0626381
0.0626361
0.0626343
0.0626325
0.0626308
0.0626292
0.0626277
0.0626263
0.062625
0.0626237
0.0626226
0.0626215
0.0626205
0.0626196
0.0626187
0.0626179
0.0626172
0.0626166
0.062616
0.0626155
0.062615
0.0626147
0.0626143
0.0626141
0.0626138
0.0626137
0.0626135
0.0626135
0.0626134
0.0626134
0.0626135
0.0626135
0.0626137
0.0626138
0.062614
0.0626142
0.0626144
0.0626147
0.0626149
0.0626152
0.0626156
0.0626159
0.0626163
0.0626166
0.062617
0.0626174
0.0626178
0.0626182
0.0626187
0.0626191
0.0626195
0.06262
0.0626204
0.0626209
0.0626214
0.0626218
0.0626223
0.0626228
0.0626233
0.0626238
0.0626242
0.0626247
0.0626252
0.0626257
0.0626262
0.0626267
0.0626272
0.0626277
0.0626282
0.0626287
0.0626292
0.0626297
0.0626301
0.0626306
0.0626311
0.0626316
0.0626321
0.0626326
0.0626331
0.0626336
0.0626341
0.0626346
0.0626351
0.0626356
0.0626361
0.0626366
0.0626371
0.0626376
0.0626381
0.0626386
0.0626391
0.0626396
0.06264
0.0626405
0.062641
0.0626415
0.062642
0.0626425
0.062643
0.0626435
0.062644
0.0626445
0.062645
0.0626455
0.062646
0.0626465
0.062647
0.0626475
0.062648
0.0626485
0.062649
0.0626495
0.06265
0.0626505
0.062651
0.0626515
0.062652
0.0626524
0.062653
0.0626535
0.062654
0.0626545
0.062655
0.0626555
0.062656
0.0626565
0.062657
0.0626575
0.062658
0.0626586
0.0626591
0.0626596
0.0626602
0.0626607
0.0626613
0.0626618
0.0626623
0.0626629
0.0626633
0.0626639
0.0626636
0.0626636
0.0626636
1
0.924297
0.735446
0.59755
0.511657
0.456343
0.418183
0.39028
0.368949
0.352065
0.338318
0.326859
0.317119
0.308703
0.301328
0.294791
0.28894
0.283659
0.278859
0.274471
0.270438
0.266714
0.263263
0.260054
0.257059
0.254257
0.251628
0.249157
0.246828
0.244628
0.242548
0.240577
0.238706
0.236927
0.235234
0.23362
0.23208
0.230608
0.2292
0.227851
0.226559
0.225319
0.224127
0.222983
0.221881
0.220821
0.219799
0.218814
0.217864
0.216946
0.21606
0.215203
0.214375
0.213573
0.212797
0.212045
0.211316
0.21061
0.209925
0.20926
0.208615
0.207988
0.20738
0.206788
0.206213
0.205654
0.20511
0.204581
0.204067
0.203565
0.203077
0.202602
0.202139
0.201688
0.201248
0.20082
0.200402
0.199994
0.199597
0.199209
0.198831
0.198462
0.198102
0.19775
0.197407
0.197072
0.196745
0.196426
0.196114
0.195809
0.195512
0.195221
0.194937
0.19466
0.194388
0.194124
0.193865
0.193612
0.193364
0.193123
0.192886
0.192655
0.19243
0.192209
0.191993
0.191782
0.191576
0.191374
0.191177
0.190984
0.190795
0.190611
0.190431
0.190254
0.190082
0.189913
0.189748
0.189587
0.189429
0.189275
0.189124
0.188976
0.188832
0.18869
0.188552
0.188417
0.188285
0.188156
0.188029
0.187906
0.187785
0.187666
0.187551
0.187437
0.187327
0.187218
0.187112
0.187009
0.186907
0.186808
0.186711
0.186616
0.186523
0.186433
0.186344
0.186257
0.186172
0.186089
0.186007
0.185928
0.18585
0.185774
0.185699
0.185626
0.185555
0.185485
0.185417
0.18535
0.185284
0.18522
0.185158
0.185096
0.185037
0.184978
0.184921
0.184864
0.184809
0.184756
0.184703
0.184652
0.184601
0.184552
0.184504
0.184457
0.18441
0.184365
0.184321
0.184278
0.184235
0.184194
0.184154
0.184114
0.184075
0.184037
0.184
0.183964
0.183928
0.183893
0.183859
0.183826
0.183793
0.183761
0.18373
0.183699
0.183669
0.18364
0.183611
0.183583
0.183556
0.183529
0.183503
0.183477
0.183452
0.183427
0.183403
0.18338
0.183356
0.183334
0.183312
0.18329
0.183269
0.183248
0.183228
0.183208
0.183189
0.183169
0.183151
0.183133
0.183115
0.183097
0.18308
0.183064
0.183047
0.183031
0.183016
0.183001
0.182986
0.182971
0.182957
0.182943
0.182929
0.182916
0.182903
0.182891
0.182878
0.182866
0.182855
0.182843
0.182832
0.182822
0.182811
0.182801
0.182791
0.182782
0.182773
0.182764
0.182755
0.182747
0.182739
0.182731
0.182724
0.182717
0.18271
0.182703
0.182697
0.182691
0.182685
0.18268
0.182674
0.182669
0.182665
0.18266
0.182656
0.182652
0.182649
0.182645
0.182642
0.182639
0.182636
0.182634
0.182631
0.182629
0.182627
0.182626
0.182624
0.182623
0.182622
0.182621
0.18262
0.182619
0.182618
0.182618
0.182618
0.182617
0.182617
0.182617
0.182618
0.182618
0.182618
0.182619
0.182619
0.18262
0.182621
0.182621
0.182622
0.182623
0.182624
0.182625
0.182626
0.182627
0.182628
0.182629
0.18263
0.182631
0.182633
0.182634
0.182635
0.182636
0.182638
0.182639
0.18264
0.182642
0.182643
0.182644
0.182646
0.182647
0.182649
0.18265
0.182651
0.182653
0.182654
0.182655
0.182657
0.182658
0.18266
0.182661
0.182662
0.182664
0.182665
0.182667
0.182668
0.182669
0.182671
0.182672
0.182674
0.182675
0.182676
0.182678
0.182679
0.182681
0.182682
0.182683
0.182685
0.182686
0.182688
0.182689
0.18269
0.182692
0.182693
0.182695
0.182696
0.182697
0.182699
0.1827
0.182702
0.182703
0.182704
0.182706
0.182707
0.182709
0.18271
0.182711
0.182713
0.182714
0.182716
0.182717
0.182718
0.18272
0.182721
0.182723
0.182724
0.182725
0.182727
0.182728
0.18273
0.182731
0.182732
0.182734
0.182735
0.182737
0.182738
0.18274
0.182741
0.182742
0.182744
0.182745
0.182747
0.182748
0.18275
0.182751
0.182753
0.182754
0.182756
0.182757
0.182759
0.18276
0.182762
0.182762
0.182762
0.182762
1
1.07971
0.99707
0.883651
0.788697
0.716913
0.66305
0.621837
0.589494
0.563482
0.542091
0.52415
0.508844
0.495589
0.483962
0.473652
0.464423
0.456094
0.448526
0.441609
0.435253
0.429387
0.423951
0.418896
0.414181
0.409769
0.405632
0.401741
0.398076
0.394615
0.391342
0.38824
0.385296
0.382498
0.379834
0.377295
0.374872
0.372557
0.370343
0.368223
0.36619
0.36424
0.362368
0.360568
0.358836
0.35717
0.355564
0.354016
0.352523
0.351082
0.349689
0.348344
0.347042
0.345783
0.344565
0.343384
0.342241
0.341132
0.340057
0.339013
0.338001
0.337018
0.336063
0.335135
0.334233
0.333357
0.332504
0.331674
0.330867
0.330082
0.329317
0.328572
0.327847
0.32714
0.326451
0.32578
0.325125
0.324487
0.323865
0.323258
0.322666
0.322088
0.321525
0.320975
0.320438
0.319914
0.319402
0.318903
0.318415
0.317939
0.317473
0.317019
0.316575
0.316141
0.315717
0.315303
0.314899
0.314504
0.314117
0.31374
0.313371
0.31301
0.312657
0.312313
0.311976
0.311646
0.311324
0.311009
0.310702
0.310401
0.310106
0.309819
0.309537
0.309262
0.308993
0.30873
0.308473
0.308221
0.307975
0.307735
0.307499
0.307269
0.307044
0.306824
0.306609
0.306398
0.306192
0.305991
0.305794
0.305601
0.305413
0.305229
0.305048
0.304872
0.3047
0.304531
0.304366
0.304205
0.304047
0.303893
0.303742
0.303594
0.303449
0.303308
0.30317
0.303034
0.302902
0.302773
0.302646
0.302522
0.302401
0.302283
0.302167
0.302053
0.301942
0.301834
0.301728
0.301624
0.301522
0.301423
0.301325
0.30123
0.301137
0.301046
0.300957
0.300869
0.300784
0.3007
0.300619
0.300539
0.30046
0.300384
0.300309
0.300236
0.300164
0.300094
0.300025
0.299958
0.299892
0.299828
0.299765
0.299703
0.299643
0.299584
0.299526
0.29947
0.299414
0.29936
0.299307
0.299256
0.299205
0.299155
0.299107
0.299059
0.299013
0.298967
0.298923
0.298879
0.298837
0.298795
0.298754
0.298714
0.298675
0.298637
0.298599
0.298563
0.298527
0.298492
0.298457
0.298424
0.298391
0.298359
0.298327
0.298296
0.298266
0.298237
0.298208
0.298179
0.298152
0.298125
0.298098
0.298072
0.298047
0.298022
0.297998
0.297974
0.297951
0.297929
0.297907
0.297885
0.297864
0.297844
0.297824
0.297804
0.297785
0.297767
0.297749
0.297731
0.297714
0.297698
0.297682
0.297666
0.297651
0.297636
0.297622
0.297609
0.297595
0.297583
0.29757
0.297559
0.297547
0.297536
0.297526
0.297516
0.297506
0.297497
0.297488
0.29748
0.297472
0.297465
0.297458
0.297451
0.297445
0.297439
0.297434
0.297429
0.297424
0.297419
0.297415
0.297412
0.297408
0.297405
0.297402
0.2974
0.297398
0.297396
0.297394
0.297393
0.297392
0.297391
0.29739
0.297389
0.297389
0.297389
0.297389
0.297389
0.297389
0.29739
0.297391
0.297391
0.297392
0.297393
0.297395
0.297396
0.297397
0.297399
0.2974
0.297402
0.297403
0.297405
0.297407
0.297409
0.29741
0.297412
0.297414
0.297416
0.297418
0.29742
0.297422
0.297424
0.297426
0.297428
0.297431
0.297433
0.297435
0.297437
0.297439
0.297441
0.297443
0.297446
0.297448
0.29745
0.297452
0.297454
0.297457
0.297459
0.297461
0.297463
0.297465
0.297467
0.29747
0.297472
0.297474
0.297476
0.297478
0.297481
0.297483
0.297485
0.297487
0.297489
0.297492
0.297494
0.297496
0.297498
0.2975
0.297502
0.297505
0.297507
0.297509
0.297511
0.297513
0.297516
0.297518
0.29752
0.297522
0.297524
0.297526
0.297529
0.297531
0.297533
0.297535
0.297537
0.29754
0.297542
0.297544
0.297546
0.297548
0.297551
0.297553
0.297555
0.297557
0.297559
0.297562
0.297564
0.297566
0.297568
0.29757
0.297573
0.297575
0.297577
0.297579
0.297581
0.297584
0.297586
0.297588
0.297591
0.297593
0.297595
0.297597
0.2976
0.297602
0.297605
0.297607
0.297609
0.297612
0.297614
0.297616
0.297617
0.297617
0.297617
1
1.11179
1.11438
1.05557
0.984376
0.919038
0.863804
0.818221
0.78065
0.749427
0.723169
0.700801
0.681504
0.66466
0.6498
0.636566
0.624682
0.613931
0.604143
0.595183
0.586939
0.579322
0.572258
0.565683
0.559545
0.553798
0.548405
0.543332
0.538549
0.534031
0.529756
0.525704
0.521857
0.518199
0.514716
0.511395
0.508225
0.505196
0.502298
0.499522
0.496861
0.494308
0.491855
0.489498
0.487231
0.485048
0.482944
0.480916
0.47896
0.477072
0.475247
0.473484
0.47178
0.47013
0.468533
0.466987
0.465488
0.464036
0.462627
0.46126
0.459934
0.458646
0.457395
0.45618
0.454999
0.453851
0.452735
0.451649
0.450592
0.449563
0.448562
0.447587
0.446637
0.445712
0.444811
0.443932
0.443076
0.442241
0.441427
0.440634
0.439859
0.439104
0.438367
0.437648
0.436946
0.436261
0.435592
0.434939
0.434301
0.433679
0.433071
0.432477
0.431897
0.431331
0.430777
0.430236
0.429708
0.429192
0.428687
0.428194
0.427713
0.427242
0.426782
0.426332
0.425892
0.425462
0.425042
0.424631
0.42423
0.423837
0.423454
0.423078
0.422712
0.422353
0.422002
0.421659
0.421324
0.420996
0.420675
0.420362
0.420055
0.419755
0.419462
0.419175
0.418895
0.418621
0.418353
0.41809
0.417834
0.417583
0.417338
0.417098
0.416863
0.416634
0.416409
0.41619
0.415975
0.415765
0.41556
0.415359
0.415163
0.414971
0.414783
0.414599
0.414419
0.414243
0.414071
0.413903
0.413738
0.413577
0.41342
0.413266
0.413115
0.412968
0.412824
0.412682
0.412544
0.412409
0.412277
0.412148
0.412022
0.411898
0.411777
0.411659
0.411543
0.41143
0.411319
0.41121
0.411104
0.411
0.410899
0.410799
0.410702
0.410607
0.410514
0.410422
0.410333
0.410246
0.410161
0.410077
0.409995
0.409915
0.409837
0.409761
0.409686
0.409612
0.409541
0.409471
0.409402
0.409335
0.409269
0.409205
0.409142
0.40908
0.40902
0.408961
0.408903
0.408846
0.408791
0.408737
0.408684
0.408632
0.408581
0.408532
0.408483
0.408436
0.408389
0.408343
0.408299
0.408255
0.408212
0.408171
0.40813
0.40809
0.40805
0.408012
0.407975
0.407938
0.407902
0.407867
0.407833
0.407799
0.407766
0.407734
0.407703
0.407672
0.407642
0.407613
0.407584
0.407556
0.407529
0.407503
0.407477
0.407451
0.407427
0.407403
0.40738
0.407357
0.407335
0.407314
0.407293
0.407273
0.407254
0.407235
0.407216
0.407199
0.407182
0.407165
0.40715
0.407134
0.40712
0.407106
0.407093
0.40708
0.407067
0.407056
0.407045
0.407034
0.407024
0.407015
0.407006
0.406997
0.406989
0.406982
0.406975
0.406969
0.406963
0.406957
0.406952
0.406947
0.406943
0.406939
0.406936
0.406933
0.40693
0.406928
0.406926
0.406924
0.406922
0.406921
0.40692
0.40692
0.40692
0.40692
0.40692
0.40692
0.406921
0.406921
0.406922
0.406923
0.406925
0.406926
0.406928
0.406929
0.406931
0.406933
0.406935
0.406937
0.406939
0.406941
0.406944
0.406946
0.406949
0.406951
0.406954
0.406956
0.406959
0.406961
0.406964
0.406967
0.406969
0.406972
0.406975
0.406978
0.40698
0.406983
0.406986
0.406989
0.406992
0.406994
0.406997
0.407
0.407003
0.407006
0.407009
0.407011
0.407014
0.407017
0.40702
0.407023
0.407026
0.407028
0.407031
0.407034
0.407037
0.40704
0.407043
0.407045
0.407048
0.407051
0.407054
0.407057
0.40706
0.407062
0.407065
0.407068
0.407071
0.407074
0.407077
0.407079
0.407082
0.407085
0.407088
0.407091
0.407094
0.407096
0.407099
0.407102
0.407105
0.407108
0.407111
0.407113
0.407116
0.407119
0.407122
0.407125
0.407128
0.40713
0.407133
0.407136
0.407139
0.407142
0.407145
0.407147
0.40715
0.407153
0.407156
0.407159
0.407162
0.407165
0.407168
0.40717
0.407173
0.407176
0.407179
0.407182
0.407185
0.407188
0.407191
0.407194
0.407197
0.4072
0.407203
0.407206
0.407209
0.407212
0.407215
0.407217
0.407217
0.407217
1
1.09593
1.14368
1.13403
1.09771
1.05335
1.00943
0.969229
0.933636
0.902512
0.875353
0.851578
0.830645
0.812087
0.795517
0.780621
0.767143
0.754877
0.743655
0.733338
0.723813
0.714985
0.706776
0.699118
0.691954
0.685235
0.678919
0.672968
0.66735
0.662038
0.657005
0.652229
0.64769
0.643371
0.639256
0.635329
0.631579
0.627992
0.624559
0.621269
0.618113
0.615084
0.612173
0.609375
0.606681
0.604088
0.601588
0.599177
0.596851
0.594605
0.592435
0.590337
0.588309
0.586345
0.584445
0.582603
0.580819
0.57909
0.577412
0.575785
0.574205
0.572671
0.571182
0.569734
0.568328
0.56696
0.56563
0.564336
0.563077
0.561852
0.560659
0.559498
0.558367
0.557265
0.556192
0.555145
0.554126
0.553132
0.552162
0.551217
0.550295
0.549396
0.548518
0.547662
0.546827
0.546011
0.545215
0.544438
0.54368
0.542939
0.542215
0.541509
0.540819
0.540145
0.539487
0.538844
0.538216
0.537602
0.537002
0.536416
0.535843
0.535283
0.534736
0.534202
0.533679
0.533169
0.532669
0.532182
0.531705
0.531238
0.530782
0.530337
0.529901
0.529475
0.529059
0.528652
0.528254
0.527864
0.527484
0.527112
0.526748