# vtk DataFile Version 2.0
FlowField
ASCII
DATASET STRUCTURED_GRID
DIMENSIONS 400 1 50
POINTS 20000 float
0 0 0
0.08 0 0
0.16 0 0
0.24 0 0
0.32 0 0
0.4 0 0
0.48 0 0
0.56 0 0
0.64 0 0
0.72 0 0
0.8 0 0
0.88 0 0
0.96 0 0
1.04 0 0
1.12 0 0
1.2 0 0
1.28 0 0
1.36 0 0
1.44 0 0
1.52 0 0
1.6 0 0
1.68 0 0
1.76 0 0
1.84 0 0
1.92 0 0
2 0 0
2.08 0 0
2.16 0 0
2.24 0 0
2.32 0 0
2.4 0 0
2.48 0 0
2.56 0 0
2.64 0 0
2.72 0 0
2.8 0 0
2.88 0 0
2.96 0 0
3.04 0 0
3.12 0 0
3.2 0 0
3.28 0 0
3.36 0 0
3.44 0 0
3.52 0 0
3.6 0 0
3.68 0 0
3.76 0 0
3.84 0 0
3.92 0 0
4 0 0
4.08 0 0
4.16 0 0
4.24 0 0
4.32 0 0
4.4 0 0
4.48 0 0
4.56 0 0
4.64 0 0
4.72 0 0
4.8 0 0
4.88 0 0
4.96 0 0
5.04 0 0
5.12 0 0
5.2 0 0
5.28 0 0
5.36 0 0
5.44 0 0
5.52 0 0
5.6 0 0
5.68 0 0
5.76 0 0
5.84 0 0
5.92 0 0
6 0 0
6.08 0 0
6.16 0 0
6.24 0 0
6.32 0 0
6.4 0 0
6.48 0 0
6.56 0 0
6.64 0 0
6.72 0 0
6.8 0 0
6.88 0 0
6.96 0 0
7.04 0 0
7.12 0 0
7.2 0 0
7.28 0 0
7.36 0 0
7.44 0 0
7.52 0 0
7.6 0 0
7.68 0 0
7.76 0 0
7.84 0 0
7.92 0 0
8 0 0
8.08 0 0
8.16 0 0
8.24 0 0
8.32 0 0
8.4 0 0
8.48 0 0
8.56 0 0
8.64 0 0
8.72 0 0
8.8 0 0
8.88 0 0
8.96 0 0
9.04 0 0
9.12 0 0
9.2 0 0
9.28 0 0
9.36 0 0
9.44 0 0
9.52 0 0
9.6 0 0
9.68 0 0
9.76 0 0
9.84 0 0
9.92 0 0
10 0 0
10.08 0 0
10.16 0 0
10.24 0 0
10.32 0 0
10.4 0 0
10.48 0 0
10.56 0 0
10.64 0 0
10.72 0 0
10.8 0 0
10.88 0 0
10.96 0 0
11.04 0 0
11.12 0 0
11.2 0 0
11.28 0 0
11.36 0 0
11.44 0 0
11.52 0 0
11.6 0 0
11.68 0 0
11.76 0 0
11.84 0 0
11.92 0 0
12 0 0
12.08 0 0
12.16 0 0
12.24 0 0
12.32 0 0
12.4 0 0
12.48 0 0
12.56 0 0
12.64 0 0
12.72 0 0
12.8 0 0
12.88 0 0
12.96 0 0
13.04 0 0
13.12 0 0
13.2 0 0
13.28 0 0
13.36 0 0
13.44 0 0
13.52 0 0
13.6 0 0
13.68 0 0
13.76 0 0
13.84 0 0
13.92 0 0
14 0 0
14.08 0 0
14.16 0 0
14.24 0 0
14.32 0 0
14.4 0 0
14.48 0 0
14.56 0 0
14.64 0 0
14.72 0 0
14.8 0 0
14.88 0 0
14.96 0 0
15.04 0 0
15.12 0 0
15.2 0 0
15.28 0 0
15.36 0 0
15.44 0 0
15.52 0 0
15.6 0 0
15.68 0 0
15.76 0 0
15.84 0 0
15.92 0 0
16 0 0
16.08 0 0
16.16 0 0
16.24 0 0
16.32 0 0
16.4 0 0
16.48 0 0
16.56 0 0
16.64 0 0
16.72 0 0
16.8 0 0
16.88 0 0
16.96 0 0
17.04 0 0
17.12 0 0
17.2 0 0
17.28 0 0
17.36 0 0
17.44 0 0
17.52 0 0
17.6 0 0
17.68 0 0
17.76 0 0
17.84 0 0
17.92 0 0
18 0 0
18.08 0 0
18.16 0 0
18.24 0 0
18.32 0 0
18.4 0 0
18.48 0 0
18.56 0 0
18.64 0 0
18.72 0 0
18.8 0 0
18.88 0 0
18.96 0 0
19.04 0 0
19.12 0 0
19.2 0 0
19.28 0 0
19.36 0 0
19.44 0 0
19.52 0 0
19.6 0 0
19.68 0 0
19.76 0 0
19.84 0 0
19.92 0 0
20 0 0
20.08 0 0
20.16 0 0
20.24 0 0
20.32 0 0
20.4 0 0
20.48 0 0
20.56 0 0
20.64 0 0
20.72 0 0
20.8 0 0
20.88 0 0
20.96 0 0
21.04 0 0
21.12 0 0
21.2 0 0
21.28 0 0
21.36 0 0
21.44 0 0
21.52 0 0
21.6 0 0
21.68 0 0
21.76 0 0
21.84 0 0
21.92 0 0
22 0 0
22.08 0 0
22.16 0 0
22.24 0 0
22.32 0 0
22.4 0 0
22.48 0 0
22.56 0 0
22.64 0 0
22.72 0 0
22.8 0 0
22.88 0 0
22.96 0 0
23.04 0 0
23.12 0 0
23.2 0 0
23.28 0 0
23.36 0 0
23.44 0 0
23.52 0 0
23.6 0 0
23.68 0 0
23.76 0 0
23.84 0 0
23.92 0 0
24 0 0
24.08 0 0
24.16 0 0
24.24 0 0
24.32 0 0
24.4 0 0
24.48 0 0
24.56 0 0
24.64 0 0
24.72 0 0
24.8 0 0
24.88 0 0
24.96 0 0
25.04 0 0
25.12 0 0
25.2 0 0
25.28 0 0
25.36 0 0
25.44 0 0
25.52 0 0
25.6 0 0
25.68 0 0
25.76 0 0
25.84 0 0
25.92 0 0
26 0 0
26.08 0 0
26.16 0 0
26.24 0 0
26.32 0 0
26.4 0 0
26.48 0 0
26.56 0 0
26.64 0 0
26.72 0 0
26.8 0 0
26.88 0 0
26.96 0 0
27.04 0 0
27.12 0 0
27.2 0 0
27.28 0 0
27.36 0 0
27.44 0 0
27.52 0 0
27.6 0 0
27.68 0 0
27.76 0 0
27.84 0 0
27.92 0 0
28 0 0
28.08 0 0
28.16 0 0
28.24 0 0
28.32 0 0
28.4 0 0
28.48 0 0
28.56 0 0
28.64 0 0
28.72 0 0
28.8 0 0
28.88 0 0
28.96 0 0
29.04 0 0
29.12 0 0
29.2 0 0
29.28 0 0
29.36 0 0
29.44 0 0
29.52 0 0
29.6 0 0
29.68 0 0
29.76 0 0
29.84 0 0
29.92 0 0
30 0 0
30.08 0 0
30.16 0 0
30.24 0 0
30.32 0 0
30.4 0 0
30.48 0 0
30.56 0 0
30.64 0 0
30.72 0 0
30.8 0 0
30.88 0 0
30.96 0 0
31.04 0 0
31.12 0 0
31.2 0 0
31.28 0 0
31.36 0 0
31.44 0 0
31.52 0 0
31.6 0 0
31.68 0 0
31.76 0 0
31.84 0 0
31.92 0 0
0 0.02 0
0.08 0.02 0
0.16 0.02 0
0.24 0.02 0
0.32 0.02 0
0.4 0.02 0
0.48 0.02 0
0.56 0.02 0
0.64 0.02 0
0.72 0.02 0
0.8 0.02 0
0.88 0.02 0
0.96 0.02 0
1.04 0.02 0
1.12 0.02 0
1.2 0.02 0
1.28 0.02 0
1.36 0.02 0
1.44 0.02 0
1.52 0.02 0
1.6 0.02 0
1.68 0.02 0
1.76 0.02 0
1.84 0.02 0
1.92 0.02 0
2 0.02 0
2.08 0.02 0
2.16 0.02 0
2.24 0.02 0
2.32 0.02 0
2.4 0.02 0
2.48 0.02 0
2.56 0.02 0
2.64 0.02 0
2.72 0.02 0
2.8 0.02 0
2.88 0.02 0
2.96 0.02 0
3.04 0.02 0
3.12 0.02 0
3.2 0.02 0
3.28 0.02 0
3.36 0.02 0
3.44 0.02 0
3.52 0.02 0
3.6 0.02 0
3.68 0.02 0
3.76 0.02 0
3.84 0.02 0
3.92 0.02 0
4 0.02 0
4.08 0.02 0
4.16 0.02 0
4.24 0.02 0
4.32 0.02 0
4.4 0.02 0
4.48 0.02 0
4.56 0.02 0
4.64 0.02 0
4.72 0.02 0
4.8 0.02 0
4.88 0.02 0
4.96 0.02 0
5.04 0.02 0
5.12 0.02 0
5.2 0.02 0
5.28 0.02 0
5.36 0.02 0
5.44 0.02 0
5.52 0.02 0
5.6 0.02 0
5.68 0.02 0
5.76 0.02 0
5.84 0.02 0
5.92 0.02 0
6 0.02 0
6.08 0.02 0
6.16 0.02 0
6.24 0.02 0
6.32 0.02 0
6.4 0.02 0
6.48 0.02 0
6.56 0.02 0
6.64 0.02 0
6.72 0.02 0
6.8 0.02 0
6.88 0.02 0
6.96 0.02 0
7.04 0.02 0
7.12 0.02 0
7.2 0.02 0
7.28 0.02 0
7.36 0.02 0
7.44 0.02 0
7.52 0.02 0
7.6 0.02 0
7.68 0.02 0
7.76 0.02 0
7.84 0.02 0
7.92 0.02 0
8 0.02 0
8.08 0.02 0
8.16 0.02 0
8.24 0.02 0
8.32 0.02 0
8.4 0.02 0
8.48 0.02 0
8.56 0.02 0
8.64 0.02 0
8.72 0.02 0
8.8 0.02 0
8.88 0.02 0
8.96 0.02 0
9.04 0.02 0
9.12 0.02 0
9.2 0.02 0
9.28 0.02 0
9.36 0.02 0
9.44 0.02 0
9.52 0.02 0
9.6 0.02 0
9.68 0.02 0
9.76 0.02 0
9.84 0.02 0
9.92 0.02 0
10 0.02 0
10.08 0.02 0
10.16 0.02 0
10.24 0.02 0
10.32 0.02 0
10.4 0.02 0
10.48 0.02 0
10.56 0.02 0
10.64 0.02 0
10.72 0.02 0
10.8 0.02 0
10.88 0.02 0
10.96 0.02 0
11.04 0.02 0
11.12 0.02 0
11.2 0.02 0
11.28 0.02 0
11.36 0.02 0
11.44 0.02 0
11.52 0.02 0
11.6 0.02 0
11.68 0.02 0
11.76 0.02 0
11.84 0.02 0
11.92 0.02 0
12 0.02 0
12.08 0.02 0
12.16 0.02 0
12.24 0.02 0
12.32 0.02 0
12.4 0.02 0
12.48 0.02 0
12.56 0.02 0
12.64 0.02 0
12.72 0.02 0
12.8 0.02 0
12.88 0.02 0
12.96 0.02 0
13.04 0.02 0
13.12 0.02 0
13.2 0.02 0
13.28 0.02 0
13.36 0.02 0
13.44 0.02 0
13.52 0.02 0
13.6 0.02 0
13.68 0.02 0
13.76 0.02 0
13.84 0.02 0
13.92 0.02 0
14 0.02 0
14.08 0.02 0
14.16 0.02 0
14.24 0.02 0
14.32 0.02 0
14.4 0.02 0
14.48 0.02 0
14.56 0.02 0
14.64 0.02 0
14.72 0.02 0
14.8 0.02 0
14.88 0.02 0
14.96 0.02 0
15.04 0.02 0
15.12 0.02 0
15.2 0.02 0
15.28 0.02 0
15.36 0.02 0
15.44 0.02 0
15.52 0.02 0
15.6 0.02 0
15.68 0.02 0
15.76 0.02 0
15.84 0.02 0
15.92 0.02 0
16 0.02 0
16.08 0.02 0
16.16 0.02 0
16.24 0.02 0
16.32 0.02 0
16.4 0.02 0
16.48 0.02 0
16.56 0.02 0
16.64 0.02 0
16.72 0.02 0
16.8 0.02 0
16.88 0.02 0
16.96 0.02 0
17.04 0.02 0
17.12 0.02 0
17.2 0.02 0
17.28 0.02 0
17.36 0.02 0
17.44 0.02 0
17.52 0.02 0
17.6 0.02 0
17.68 0.02 0
17.76 0.02 0
17.84 0.02 0
17.92 0.02 0
18 0.02 0
18.08 0.02 0
18.16 0.02 0
18.24 0.02 0
18.32 0.02 0
18.4 0.02 0
18.48 0.02 0
18.56 0.02 0
18.64 0.02 0
18.72 0.02 0
18.8 0.02 0
18.88 0.02 0
18.96 0.02 0
19.04 0.02 0
19.12 0.02 0
19.2 0.02 0
19.28 0.02 0
19.36 0.02 0
19.44 0.02 0
19.52 0.02 0
19.6 0.02 0
19.68 0.02 0
19.76 0.02 0
19.84 0.02 0
19.92 0.02 0
20 0.02 0
20.08 0.02 0
20.16 0.02 0
20.24 0.02 0
20.32 0.02 0
20.4 0.02 0
20.48 0.02 0
20.56 0.02 0
20.64 0.02 0
20.72 0.02 0
20.8 0.02 0
20.88 0.02 0
20.96 0.02 0
21.04 0.02 0
21.12 0.02 0
21.2 0.02 0
21.28 0.02 0
21.36 0.02 0
21.44 0.02 0
21.52 0.02 0
21.6 0.02 0
21.68 0.02 0
21.76 0.02 0
21.84 0.02 0
21.92 0.02 0
22 0.02 0
22.08 0.02 0
22.16 0.02 0
22.24 0.02 0
22.32 0.02 0
22.4 0.02 0
22.48 0.02 0
22.56 0.02 0
22.64 0.02 0
22.72 0.02 0
22.8 0.02 0
22.88 0.02 0
22.96 0.02 0
23.04 0.02 0
23.12 0.02 0
23.2 0.02 0
23.28 0.02 0
23.36 0.02 0
23.44 0.02 0
23.52 0.02 0
23.6 0.02 0
23.68 0.02 0
23.76 0.02 0
23.84 0.02 0
23.92 0.02 0
24 0.02 0
24.08 0.02 0
24.16 0.02 0
24.24 0.02 0
24.32 0.02 0
24.4 0.02 0
24.48 0.02 0
24.56 0.02 0
24.64 0.02 0
24.72 0.02 0
24.8 0.02 0
24.88 0.02 0
24.96 0.02 0
25.04 0.02 0
25.12 0.02 0
25.2 0.02 0
25.28 0.02 0
25.36 0.02 0
25.44 0.02 0
25.52 0.02 0
25.6 0.02 0
25.68 0.02 0
25.76 0.02 0
25.84 0.02 0
25.92 0.02 0
26 0.02 0
26.08 0.02 0
26.16 0.02 0
26.24 0.02 0
26.32 0.02 0
26.4 0.02 0
26.48 0.02 0
26.56 0.02 0
26.64 0.02 0
26.72 0.02 0
26.8 0.02 0
26.88 0.02 0
26.96 0.02 0
27.04 0.02 0
27.12 0.02 0
27.2 0.02 0
27.28 0.02 0
27.36 0.02 0
27.44 0.02 0
27.52 0.02 0
27.6 0.02 0
27.68 0.02 0
27.76 0.02 0
27.84 0.02 0
27.92 0.02 0
28 0.02 0
28.08 0.02 0
28.16 0.02 0
28.24 0.02 0
28.32 0.02 0
28.4 0.02 0
28.48 0.02 0
28.56 0.02 0
28.64 0.02 0
28.72 0.02 0
28.8 0.02 0
28.88 0.02 0
28.96 0.02 0
29.04 0.02 0
29.12 0.02 0
29.2 0.02 0
29.28 0.02 0
29.36 0.02 0
29.44 0.02 0
29.52 0.02 0
29.6 0.02 0
29.68 0.02 0
29.76 0.02 0
29.84 0.02 0
29.92 0.02 0
30 0.02 0
30.08 0.02 0
30.16 0.02 0
30.24 0.02 0
30.32 0.02 0
30.4 0.02 0
30.48 0.02 0
30.56 0.02 0
30.64 0.02 0
30.72 0.02 0
30.8 0.02 0
30.88 0.02 0
30.96 0.02 0
31.04 0.02 0
31.12 0.02 0
31.2 0.02 0
31.28 0.02 0
31.36 0.02 0
31.44 0.02 0
31.52 0.02 0
31.6 0.02 0
31.68 0.02 0
31.76 0.02 0
31.84 0.02 0
31.92 0.02 0
0 0.04 0
0.08 0.04 0
0.16 0.04 0
0.24 0.04 0
0.32 0.04 0
0.4 0.04 0
0.48 0.04 0
0.56 0.04 0
0.64 0.04 0
0.72 0.04 0
0.8 0.04 0
0.88 0.04 0
0.96 0.04 0
1.04 0.04 0
1.12 0.04 0
1.2 0.04 0
1.28 0.04 0
1.36 0.04 0
1.44 0.04 0
1.52 0.04 0
1.6 0.04 0
1.68 0.04 0
1.76 0.04 0
1.84 0.04 0
1.92 0.04 0
2 0.04 0
2.08 0.04 0
2.16 0.04 0
2.24 0.04 0
2.32 0.04 0
2.4 0.04 0
2.48 0.04 0
2.56 0.04 0
2.64 0.04 0
2.72 0.04 0
2.8 0.04 0
2.88 0.04 0
2.96 0.04 0
3.04 0.04 0
3.12 0.04 0
3.2 0.04 0
3.28 0.04 0
3.36 0.04 0
3.44 0.04 0
3.52 0.04 0
3.6 0.04 0
3.68 0.04 0
3.76 0.04 0
3.84 0.04 0
3.92 0.04 0
4 0.04 0
4.08 0.04 0
4.16 0.04 0
4.24 0.04 0
4.32 0.04 0
4.4 0.04 0
4.48 0.04 0
4.56 0.04 0
4.64 0.04 0
4.72 0.04 0
4.8 0.04 0
4.88 0.04 0
4.96 0.04 0
5.04 0.04 0
5.12 0.04 0
5.2 0.04 0
5.28 0.04 0
5.36 0.04 0
5.44 0.04 0
5.52 0.04 0
5.6 0.04 0
5.68 0.04 0
5.76 0.04 0
5.84 0.04 0
5.92 0.04 0
6 0.04 0
6.08 0.04 0
6.16 0.04 0
6.24 0.04 0
6.32 0.04 0
6.4 0.04 0
6.48 0.04 0
6.56 0.04 0
6.64 0.04 0
6.72 0.04 0
6.8 0.04 0
6.88 0.04 0
6.96 0.04 0
7.04 0.04 0
7.12 0.04 0
7.2 0.04 0
7.28 0.04 0
7.36 0.04 0
7.44 0.04 0
7.52 0.04 0
7.6 0.04 0
7.68 0.04 0
7.76 0.04 0
7.84 0.04 0
[...]
POINT_DATA 20000

SCALARS u float 1
LOOKUP_TABLE default
0
-0.506617
-0.291603
-0.214361
-0.179893
-0.160224
-0.147346
-0.138307
-0.131734
-0.126816
-0.123021
-0.120083
-0.117941
-0.116592
-0.115963
-0.115901
-0.11623
-0.116809
-0.117547
-0.118392
-0.119314
-0.120286
-0.121285
-0.122295
-0.123303
-0.124304
-0.125296
-0.126279
-0.127256
-0.128229
-0.129199
-0.130167
-0.131134
-0.132099
-0.133063
-0.134027
-0.134988
-0.135949
-0.136908
-0.137864
-0.138819
-0.139772
-0.140722
-0.141669
-0.142613
-0.143554
-0.144492
-0.145426
-0.146356
-0.147282
-0.148204
-0.149121
-0.150032
-0.150939
-0.15184
-0.152735
-0.153624
-0.154506
-0.155381
-0.156249
-0.15711
-0.157962
-0.158806
-0.159642
-0.160468
-0.161284
-0.162091
-0.162888
-0.163673
-0.164448
-0.16521
-0.165961
-0.166699
-0.167424
-0.168136
-0.168834
-0.169517
-0.170186
-0.170839
-0.171477
-0.172098
-0.172703
-0.17329
-0.17386
-0.174411
-0.174944
-0.175458
-0.175952
-0.176426
-0.176879
-0.177312
-0.177723
-0.178112
-0.178479
-0.178823
-0.179144
-0.179442
-0.179715
-0.179964
-0.180188
-0.180386
-0.180559
-0.180707
-0.180827
-0.180922
-0.180989
-0.181029
-0.181041
-0.181026
-0.180983
-0.180911
-0.18081
-0.180681
-0.180524
-0.180337
-0.18012
-0.179875
-0.1796
-0.179296
-0.178962
-0.178598
-0.178205
-0.177782
-0.17733
-0.176848
-0.176337
-0.175797
-0.175227
-0.174629
-0.174001
-0.173345
-0.172661
-0.171948
-0.171208
-0.170439
-0.169644
-0.168822
-0.167973
-0.167098
-0.166198
-0.165272
-0.164321
-0.163346
-0.162347
-0.161325
-0.16028
-0.159212
-0.158123
-0.157013
-0.155882
-0.154732
-0.153562
-0.152374
-0.151168
-0.149945
-0.148705
-0.147449
-0.146179
-0.144894
-0.143595
-0.142284
-0.14096
-0.139625
-0.13828
-0.136924
-0.13556
-0.134187
-0.132807
-0.13142
-0.130028
-0.12863
-0.127227
-0.125821
-0.124412
-0.123001
-0.121589
-0.120176
-0.118764
-0.117352
-0.115942
-0.114534
-0.113129
-0.111728
-0.110332
-0.10894
-0.107554
-0.106175
-0.104803
-0.103438
-0.102082
-0.100735
-0.0993968
-0.0980689
-0.0967515
-0.0954452
-0.0941504
-0.0928678
-0.0915977
-0.0903405
-0.0890969
-0.087867
-0.0866515
-0.0854505
-0.0842646
-0.083094
-0.0819391
-0.0808001
-0.0796775
-0.0785713
-0.0774819
-0.0764096
-0.0753545
-0.0743168
-0.0732967
-0.0722944
-0.07131
-0.0703437
-0.0693955
-0.0684656
-0.0675539
-0.0666607
-0.0657859
-0.0649295
-0.0640916
-0.0632722
-0.0624713
-0.0616887
-0.0609246
-0.0601788
-0.0594513
-0.058742
-0.0580507
-0.0573775
-0.0567221
-0.0560845
-0.0554645
-0.054862
-0.0542769
-0.0537089
-0.0531579
-0.0526237
-0.0521062
-0.0516051
-0.0511202
-0.0506514
-0.0501984
-0.0497611
-0.0493391
-0.0489323
-0.0485404
-0.0481632
-0.0478005
-0.047452
-0.0471175
-0.0467967
-0.0464895
-0.0461954
-0.0459144
-0.0456461
-0.0453902
-0.0451466
-0.044915
-0.0446951
-0.0444867
-0.0442894
-0.0441032
-0.0439277
-0.0437626
-0.0436078
-0.0434629
-0.0433278
-0.0432021
-0.0430858
-0.0429784
-0.0428798
-0.0427897
-0.0427079
-0.0426343
-0.0425685
-0.0425103
-0.0424596
-0.042416
-0.0423795
-0.0423498
-0.0423266
-0.0423099
-0.0422993
-0.0422948
-0.042296
-0.0423029
-0.0423153
-0.0423329
-0.0423556
-0.0423832
-0.0424156
-0.0424526
-0.042494
-0.0425397
-0.0425895
-0.0426434
-0.0427011
-0.0427624
-0.0428274
-0.0428958
-0.0429675
-0.0430424
-0.0431204
-0.0432013
-0.043285
-0.0433715
-0.0434606
-0.0435521
-0.0436461
-0.0437424
-0.043841
-0.0439416
-0.0440443
-0.0441489
-0.0442555
-0.0443637
-0.0444737
-0.0445854
-0.0446986
-0.0448133
-0.0449294
-0.0450469
-0.0451656
-0.0452856
-0.0454068
-0.0455291
-0.0456525
-0.0457769
-0.0459023
-0.0460286
-0.0461558
-0.0462838
-0.0464126
-0.0465421
-0.0466723
-0.0468032
-0.0469348
-0.0470669
-0.0471996
-0.0473329
-0.0474666
-0.0476008
-0.0477355
-0.0478706
-0.0480061
-0.0481419
-0.0482781
-0.0484146
-0.0485514
-0.0486885
-0.0488258
-0.0489634
-0.0491012
-0.0492392
-0.0493774
-0.0495158
-0.0496544
-0.0497931
-0.0499319
-0.0500708
-0.0502099
-0.0503491
-0.0504883
-0.0506277
-0.0507671
-0.0509066
-0.0510461
-0.0511857
-0.0513254
-0.0514651
-0.0516049
-0.0517446
-0.0518845
-0.0520243
-0.0521642
-0.0523041
-0.0524441
-0.0525841
-0.0527241
-0.0528642
-0.0530043
-0.0531445
-0.0532847
-0.053425
-0.0535654
-0.0537059
-0.0538465
-0.0539874
-0.0541277
-0.0542719
-0.0544036
-0.0545727
-0.0546625
-0.0548229
-0.0548229
-0.0548229
1
0.506617
0.291603
0.214361
0.179893
0.160224
0.147346
0.138307
0.131734
0.126816
0.123021
0.120083
0.117941
0.116592
0.115963
0.115901
0.11623
0.116809
0.117547
0.118392
0.119314
0.120286
0.121285
0.122295
0.123303
0.124304
0.125296
0.126279
0.127256
0.128229
0.129199
0.130167
0.131134
0.132099
0.133063
0.134027
0.134988
0.135949
0.136908
0.137864
0.138819
0.139772
0.140722
0.141669
0.142613
0.143554
0.144492
0.145426
0.146356
0.147282
0.148204
0.149121
0.150032
0.150939
0.15184
0.152735
0.153624
0.154506
0.155381
0.156249
0.15711
0.157962
0.158806
0.159642
0.160468
0.161284
0.162091
0.162888
0.163673
0.164448
0.16521
0.165961
0.166699
0.167424
0.168136
0.168834
0.169517
0.170186
0.170839
0.171477
0.172098
0.172703
0.17329
0.17386
0.174411
0.174944
0.175458
0.175952
0.176426
0.176879
0.177312
0.177723
0.178112
0.178479
0.178823
0.179144
0.179442
0.179715
0.179964
0.180188
0.180386
0.180559
0.180707
0.180827
0.180922
0.180989
0.181029
0.181041
0.181026
0.180983
0.180911
0.18081
0.180681
0.180524
0.180337
0.18012
0.179875
0.1796
0.179296
0.178962
0.178598
0.178205
0.177782
0.17733
0.176848
0.176337
0.175797
0.175227
0.174629
0.174001
0.173345
0.172661
0.171948
0.171208
0.170439
0.169644
0.168822
0.167973
0.167098
0.166198
0.165272
0.164321
0.163346
0.162347
0.161325
0.16028
0.159212
0.158123
0.157013
0.155882
0.154732
0.153562
0.152374
0.151168
0.149945
0.148705
0.147449
0.146179
0.144894
0.143595
0.142284
0.14096
0.139625
0.13828
0.136924
0.13556
0.134187
0.132807
0.13142
0.130028
0.12863
0.127227
0.125821
0.124412
0.123001
0.121589
0.120176
0.118764
0.117352
0.115942
0.114534
0.113129
0.111728
0.110332
0.10894
0.107554
0.106175
0.104803
0.103438
0.102082
0.100735
0.0993968
0.0980689
0.0967515
0.0954452
0.0941504
0.0928678
0.0915977
0.0903405
0.0890969
0.087867
0.0866515
0.0854505
0.0842646
0.083094
0.0819391
0.0808001
0.0796775
0.0785713
0.0774819
0.0764096
0.0753545
0.0743168
0.0732967
0.0722944
0.07131
0.0703437
0.0693955
0.0684656
0.0675539
0.0666607
0.0657859
0.0649295
0.0640916
0.0632722
0.0624713
0.0616887
0.0609246
0.0601788
0.0594513
0.058742
0.0580507
0.0573775
0.0567221
0.0560845
0.0554645
0.054862
0.0542769
0.0537089
0.0531579
0.0526237
0.0521062
0.0516051
0.0511202
0.0506514
0.0501984
0.0497611
0.0493391
0.0489323
0.0485404
0.0481632
0.0478005
0.047452
0.0471175
0.0467967
0.0464895
0.0461954
0.0459144
0.0456461
0.0453902
0.0451466
0.044915
0.0446951
0.0444867
0.0442894
0.0441032
0.0439277
0.0437626
0.0436078
0.0434629
0.0433278
0.0432021
0.0430858
0.0429784
0.0428798
0.0427897
0.0427079
0.0426343
0.0425685
0.0425103
0.0424596
0.042416
0.0423795
0.0423498
0.0423266
0.0423099
0.0422993
0.0422948
0.042296
0.0423029
0.0423153
0.0423329
0.0423556
0.0423832
0.0424156
0.0424526
0.042494
0.0425397
0.0425895
0.0426434
0.0427011
0.0427624
0.0428274
0.0428958
0.0429675
0.0430424
0.0431204
0.0432013
0.043285
0.0433715
0.0434606
0.0435521
0.0436461
0.0437424
0.043841
0.0439416
0.0440443
0.0441489
0.0442555
0.0443637
0.0444737
0.0445854
0.0446986
0.0448133
0.0449294
0.0450469
0.0451656
0.0452856
0.0454068
0.0455291
0.0456525
0.0457769
0.0459023
0.0460286
0.0461558
0.0462838
0.0464126
0.0465421
0.0466723
0.0468032
0.0469348
0.0470669
0.0471996
0.0473329
0.0474666
0.0476008
0.0477355
0.0478706
0.0480061
0.0481419
0.0482781
0.0484146
0.0485514
0.0486885
0.0488258
0.0489634
0.0491012
0.0492392
0.0493774
0.0495158
0.0496544
0.0497931
0.0499319
0.0500708
0.0502099
0.0503491
0.0504883
0.0506277
0.0507671
0.0509066
0.0510461
0.0511857
0.0513254
0.0514651
0.0516049
0.0517446
0.0518845
0.0520243
0.0521642
0.0523041
0.0524441
0.0525841
0.0527241
0.0528642
0.0530043
0.0531445
0.0532847
0.053425
0.0535654
0.0537059
0.0538465
0.0539874
0.0541277
0.0542719
0.0544036
0.0545727
0.0546625
0.0548229
0.0548229
0.0548229
1
0.923086
0.733942
0.596525
0.511429
0.456879
0.419381
0.392228
0.371936
0.356358
0.344109
0.334475
0.327206
0.322158
0.319048
0.31745
0.316925
0.317124
0.317808
0.318819
0.320045
0.321398
0.322813
0.324241
0.325656
0.327044
0.328405
0.32974
0.331055
0.332353
0.333637
0.334911
0.336173
0.337425
0.338667
0.339899
0.341119
0.342327
0.343523
0.344707
0.345877
0.347033
0.348175
0.349302
0.350413
0.351508
0.352587
0.353648
0.354692
0.355718
0.356725
0.357713
0.358681
0.359628
0.360554
0.361459
0.362342
0.363201
0.364038
0.364851
0.365639
0.366402
0.367139
0.36785
0.368534
0.369191
0.369819
0.370419
0.370989
0.37153
0.37204
0.372519
0.372966
0.373381
0.373764
0.374113
0.374428
0.374708
0.374954
0.375163
0.375337
0.375474
0.375574
0.375636
0.37566
0.375645
0.375592
0.375498
0.375365
0.375192
0.374978
0.374722
0.374425
0.374087
0.373706
0.373283
0.372817
0.372308
0.371756
0.371161
0.370522
0.369839
0.369113
0.368342
0.367528
0.36667
0.365767
0.364821
0.36383
0.362796
0.361718
0.360596
0.35943
0.358221
0.356969
0.355675
0.354337
0.352958
0.351536
0.350073
0.348569
0.347024
0.34544
0.343815
0.342151
0.340449
0.338709
0.336931
0.335117
0.333267
0.331382
0.329462
0.327509
0.325522
0.323504
0.321454
0.319374
0.317265
0.315127
0.312961
0.310769
0.308552
0.306309
0.304044
0.301756
0.299446
0.297116
0.294767
0.2924
0.290016
0.287616
0.285201
0.282773
0.280333
0.277881
0.275419
0.272949
0.27047
0.267985
0.265495
0.263001
0.260504
0.258005
0.255505
0.253006
0.250509
0.248014
0.245523
0.243038
0.240558
0.238086
0.235623
0.233168
0.230725
0.228292
0.225873
0.223467
0.221075
0.218699
0.21634
0.213998
0.211674
0.209369
0.207084
0.20482
0.202577
0.200357
0.19816
0.195986
0.193838
0.191714
0.189616
0.187544
0.1855
0.183483
0.181494
0.179533
0.177602
0.1757
0.173827
0.171985
0.170174
0.168393
0.166644
0.164926
0.16324
0.161585
0.159963
0.158373
0.156816
0.15529
0.153798
0.152338
0.150911
0.149516
0.148154
0.146825
0.145528
0.144264
0.143032
0.141832
0.140665
0.139529
0.138425
0.137353
0.136313
0.135303
0.134324
0.133376
0.132459
0.131571
0.130713
0.129885
0.129086
0.128315
0.127573
0.12686
0.126174
0.125515
0.124883
0.124278
0.123699
0.123146
0.122618
0.122115
0.121637
0.121183
0.120753
0.120345
0.119961
0.119599
0.119259
0.118941
0.118643
0.118367
0.11811
0.117874
0.117656
0.117458
0.117278
0.117116
0.116972
0.116845
0.116735
0.116642
0.116564
0.116502
0.116455
0.116423
0.116405
0.116401
0.116411
0.116434
0.11647
0.116519
0.116579
0.116652
0.116736
0.116831
0.116936
0.117052
0.117179
0.117315
0.11746
0.117615
0.117779
0.117951
0.118131
0.11832
0.118516
0.11872
0.118931
0.119149
0.119373
0.119604
0.119842
0.120085
0.120335
0.120589
0.120849
0.121115
0.121385
0.12166
0.12194
0.122224
0.122512
0.122805
0.123101
0.123401
0.123705
0.124012
0.124322
0.124636
0.124952
0.125272
0.125594
0.125919
0.126246
0.126576
0.126908
0.127242
0.127579
0.127917
0.128257
0.128599
0.128943
0.129288
0.129635
0.129983
0.130333
0.130684
0.131036
0.13139
0.131744
0.1321
0.132457
0.132814
0.133173
0.133532
0.133892
0.134253
0.134614
0.134976
0.135339
0.135702
0.136066
0.13643
0.136794
0.137159
0.137525
0.13789
0.138256
0.138623
0.138989
0.139356
0.139723
0.14009
0.140457
0.140824
0.141191
0.141559
0.141926
0.142294
0.142661
0.143029
0.143397
0.143764
0.144132
0.144499
0.144867
0.145234
0.145601
0.145969
0.146336
0.146703
0.14707
0.147437
0.147804
0.148171
0.148538
0.148905
0.149272
0.149638
0.150005
0.150372
0.150739
0.151106
0.151473
0.15184
0.152207
0.152575
0.152943
0.15331
0.153685
0.154036
0.154462
0.154727
0.155206
0.155206
0.155206
1
1.07813
0.994463
0.880923
0.786362
0.714923
0.661139
0.619978
0.588001
0.562756
0.542516
0.526296
0.513657
0.50429
0.497745
0.49344
0.490802
0.48937
0.488804
0.488853
0.489316
0.490029
0.490868
0.491747
0.492617
0.493457
0.494259
0.495029
0.495771
0.496491
0.497193
0.49788
0.498554
0.499214
0.499861
0.500495
0.501115
0.501721
0.502311
0.502886
0.503444
0.503985
0.504509
0.505015
0.505501
0.505969
0.506416
0.506843
0.507248
0.507632
0.507994
0.508333
0.508649
0.50894
0.509208
0.50945
0.509666
0.509856
0.51002
0.510156
0.510264
0.510343
0.510394
0.510415
0.510405
0.510366
0.510294
0.510191
0.510056
0.509888
0.509686
0.509451
0.509181
0.508876
0.508536
0.50816
0.507748
0.507299
0.506813
0.506289
0.505727
0.505126
0.504487
0.503808
0.50309
0.502332
0.501533
0.500694
0.499815
0.498894
0.497931
0.496927
0.495881
0.494794
0.493664
0.492491
0.491277
0.49002
0.48872
0.487378
0.485993
0.484566
0.483096
0.481583
0.480029
0.478432
0.476793
0.475112
0.473389
0.471625
0.46982
0.467974
0.466087
0.46416
0.462194
0.460188
0.458143
0.45606
0.453939
0.451781
0.449585
0.447354
0.445088
0.442786
0.44045
0.438081
0.43568
0.433246
0.430781
0.428286
0.425762
0.423209
0.420629
0.418022
0.41539
0.412732
0.410051
0.407347
0.404622
0.401876
0.399111
0.396327
0.393526
0.390709
0.387876
0.38503
0.382171
0.379301
0.37642
0.37353
0.370633
0.367728
0.364818
0.361903
0.358986
0.356066
0.353146
0.350226
0.347308
0.344393
0.341482
0.338577
0.335677
0.332786
0.329903
0.32703
0.324169
0.321319
0.318483
0.315662
0.312855
0.310066
0.307294
0.30454
0.301807
0.299094
0.296402
0.293733
0.291087
0.288466
0.28587
0.2833
0.280756
0.27824
0.275753
0.273294
0.270865
0.268467
0.2661
0.263764
0.261461
0.25919
0.256953
0.25475
0.25258
0.250446
0.248347
0.246283
0.244255
0.242263
0.240308
0.238389
0.236507
0.234663
0.232855
0.231086
0.229353
0.227659
0.226002
0.224382
0.222801
0.221257
0.219751
0.218283
0.216852
0.215458
0.214102
0.212783
0.211501
0.210256
0.209048
0.207875
0.206739
0.205639
0.204574
0.203544
0.202549
0.201589
0.200663
0.199771
0.198913
0.198087
0.197294
0.196534
0.195805
0.195108
0.194442
0.193807
0.193201
0.192625
0.192079
0.191561
0.191071
0.190609
0.190175
0.189767
0.189386
0.18903
0.1887
0.188394
0.188113
0.187856
0.187622
0.187411
0.187222
0.187056
0.18691
0.186786
0.186682
0.186598
0.186533
0.186487
0.18646
0.186451
0.18646
0.186486
0.186528
0.186587
0.186662
0.186752
0.186857
0.186976
0.18711
0.187258
0.187419
0.187592
0.187779
0.187977
0.188188
0.18841
0.188643
0.188886
0.189141
0.189405
0.189679
0.189962
0.190255
0.190556
0.190866
0.191184
0.19151
0.191844
0.192185
0.192533
0.192888
0.19325
0.193618
0.193992
0.194372
0.194758
0.195149
0.195546
0.195947
0.196354
0.196765
0.19718
0.1976
0.198024
0.198452
0.198883
0.199318
0.199757
0.200199
0.200644
0.201092
0.201543
0.201997
0.202454
0.202913
0.203374
0.203838
0.204304
0.204772
0.205242
0.205713
0.206187
0.206662
0.207139
0.207618
0.208097
0.208579
0.209061
0.209545
0.21003
0.210516
0.211002
0.21149
0.211979
0.212469
0.212959
0.21345
0.213942
0.214434
0.214927
0.21542
0.215914
0.216409
0.216903
0.217399
0.217894
0.21839
0.218886
0.219382
0.219878
0.220374
0.220871
0.221368
0.221864
0.222361
0.222858
0.223355
0.223851
0.224348
0.224845
0.225341
0.225838
0.226334
0.22683
0.227326
0.227822
0.228318
0.228813
0.229309
0.229804
0.230299
0.230794
0.231289
0.231783
0.232278
0.232772
0.233266
0.23376
0.234254
0.234748
0.235242
0.235736
0.23623
0.236724
0.237218
0.237712
0.238207
0.238702
0.239196
0.239701
0.240174
0.240742
0.241114
0.241818
0.241818
0.241818
1
1.11022
1.11116
1.05157
0.980376
0.915165
0.859711
0.813638
0.775701
0.744518
0.718846
0.697837
0.680997
0.667898
0.658001
0.650701
0.645453
0.641827
0.639482
0.638116
0.637453
0.637243
0.637283
0.637434
0.637607
0.637761
0.637881
0.637965
0.63802
0.638052
0.638064
0.638061
0.638045
0.638017
0.637976
0.637924
0.637858
0.637779
0.637687
0.63758
0.637458
0.637321
0.637168
0.636998
0.636811
0.636606
0.636383
0.636141
0.635879
0.635598
0.635297
0.634974
0.63463
0.634265
0.633876
0.633465
0.63303
0.632571
0.632088
0.63158
0.631046
0.630486
0.629899
0.629285
0.628644
0.627975
0.627277
0.62655
0.625794
0.625008
0.624191
0.623343
0.622464
0.621554
0.620611
0.619635
0.618626
0.617584
0.616508
0.615398
0.614253
0.613074
0.611859
0.610608
0.609322
0.607999
0.60664
0.605245
0.603812
0.602342
0.600835
0.59929
0.597708
0.596088
0.59443
0.592733
0.590999
0.589227
0.587416
0.585568
0.583681
0.581756
0.579793
0.577792
0.575753
0.573677
0.571564
0.569413
0.567225
0.565001
0.56274
0.560443
0.558111
0.555743
0.55334
0.550903
0.548432
0.545927
0.54339
0.54082
0.538218
0.535586
0.532922
0.530229
0.527507
0.524756
0.521978
0.519173
0.516341
0.513485
0.510604
0.507699
0.504772
0.501824
0.498854
0.495865
0.492857
0.489831
0.486789
0.483731
0.480658
0.477572
0.474473
0.471363
0.468243
0.465113
0.461976
0.458832
0.455682
0.452528
0.44937
0.44621
0.443049
0.439888
0.436729
0.433572
0.430419
0.42727
0.424128
0.420993
0.417867
0.414749
0.411643
0.408548
0.405466
0.402398
0.399346
0.396309
0.39329
0.390289
0.387307
0.384346
0.381406
0.378488
0.375594
0.372724
0.369878
0.367059
0.364267
0.361502
0.358766
0.356059
0.353382
0.350736
0.348122
0.345539
0.342989
0.340473
0.337991
0.335543
0.333131
0.330754
0.328413
0.326108
0.323841
0.321611
0.319418
0.317264
0.315148
0.31307
0.311032
0.309032
0.307072
0.305151
0.303269
0.301427
0.299625
0.297863
0.29614
0.294457
0.292814
0.29121
0.289646
0.288121
0.286636
0.28519
0.283783
0.282415
0.281085
0.279794
0.278541
0.277326
0.276148
0.275008
0.273905
0.272838
0.271808
0.270813
0.269854
0.26893
0.268041
0.267187
0.266366
0.265578
0.264824
0.264102
0.263412
0.262754
0.262127
0.261531
0.260965
0.260429
0.259921
0.259443
0.258992
0.25857
0.258174
0.257805
0.257462
0.257145
0.256853
0.256586
0.256342
0.256122
0.255926
0.255752
0.255599
0.255469
0.255359
0.25527
0.255201
0.255152
0.255122
0.25511
0.255117
0.255141
0.255182
0.255241
0.255315
0.255406
0.255512
0.255632
0.255768
0.255918
0.256081
0.256258
0.256448
0.25665
0.256865
0.257091
0.257329
0.257578
0.257837
0.258108
0.258388
0.258678
0.258977
0.259285
0.259603
0.259928
0.260262
0.260604
0.260954
0.261311
0.261675
0.262046
0.262423
0.262807
0.263197
0.263593
0.263994
0.264401
0.264813
0.265231
0.265653
0.26608
0.266511
0.266946
0.267386
0.26783
0.268277
0.268728
0.269182
0.26964
0.270101
0.270565
0.271032
0.271502
0.271974
0.272449
0.272926
0.273405
0.273887
0.274371
0.274856
0.275344
0.275833
0.276325
0.276817
0.277311
0.277807
0.278304
0.278802
0.279302
0.279803
0.280304
0.280807
0.281311
0.281815
0.28232
0.282827
0.283333
0.283841
0.284349
0.284857
0.285367
0.285876
0.286386
0.286896
0.287407
0.287918
0.288429
0.28894
0.289452
0.289964
0.290475
0.290987
0.291499
0.292011
0.292523
0.293035
0.293547
0.294058
0.29457
0.295081
0.295593
0.296104
0.296615
0.297125
0.297636
0.298146
0.298657
0.299166
0.299676
0.300186
0.300695
0.301204
0.301713
0.302221
0.302729
0.303238
0.303745
0.304253
0.304761
0.305268
0.305776
0.306283
0.306791
0.307298
0.307806
0.308314
0.308823
0.309329
0.309848
0.310334
0.310915
0.311306
0.312073
0.312073
0.312073
1
1.09456
1.14032
1.12937
1.09273
1.04852
1.00452
0.963783
0.927433
0.895766
0.868667
0.845894
0.827138
0.811935
0.799704
0.789906
0.782168
0.776253
0.771959
0.769037
0.767177
0.766055
0.765381
0.764939
0.764586
0.764246
0.763883
0.763489
0.763065
0.762616
0.762147
0.761663
0.761164
0.760654
0.760132
0.759599
0.759055
0.758498
0.75793
0.757348
0.756752
0.756143
0.755519
0.75488
0.754226
0.753555
0.752868
0.752163
0.751441
0.750701
0.749942
0.749164
0.748366
0.747549
0.74671
0.745851
0.74497
0.744067
0.743142
0.742194
0.741222
0.740226
0.739206
0.73816
0.73709
0.735993
0.734871
0.733721
0.732544
0.73134
0.730107
0.728846
0.727556
0.726236
0.724887
0.723507
0.722097
0.720656
0.719184
0.717679
0.716143
0.714574
0.712973
0.711339
0.709671
0.707969
0.706234
0.704465
0.702661
0.700823
0.69895
0.697042
0.695099
0.693121
0.691108
0.689059
0.686975
0.684855
0.6827
0.68051
0.678284
0.676022
0.673725
0.671393
0.669026
0.666624
0.664187
0.661716
0.65921
0.65667
0.654097
0.65149
0.64885
0.646177
0.643472
0.640735
0.637967
0.635168
0.632339
0.62948
0.626591
0.623674
0.620729
0.617757
0.614758
0.611733
0.608683
0.605608
0.60251
0.599389
0.596246
0.593082
0.589898
0.586695
0.583473
0.580233
0.576978
0.573707
0.570421
0.567122
0.56381
0.560488
0.557155
0.553813
0.550462
0.547105
0.543742
0.540374
0.537003
0.533629
0.530254
0.526879
0.523505