# vtk DataFile Version 2.0
FlowField
ASCII
DATASET STRUCTURED_GRID
DIMENSIONS 400 1 50
POINTS 20000 float
0 0 0
0.08 0 0
0.16 0 0
0.24 0 0
0.32 0 0
0.4 0 0
0.48 0 0
0.56 0 0
0.64 0 0
0.72 0 0
0.8 0 0
0.88 0 0
0.96 0 0
1.04 0 0
1.12 0 0
1.2 0 0
1.28 0 0
1.36 0 0
1.44 0 0
1.52 0 0
1.6 0 0
1.68 0 0
1.76 0 0
1.84 0 0
1.92 0 0
2 0 0
2.08 0 0
2.16 0 0
2.24 0 0
2.32 0 0
2.4 0 0
2.48 0 0
2.56 0 0
2.64 0 0
2.72 0 0
2.8 0 0
2.88 0 0
2.96 0 0
3.04 0 0
3.12 0 0
3.2 0 0
3.28 0 0
3.36 0 0
3.44 0 0
3.52 0 0
3.6 0 0
3.68 0 0
3.76 0 0
3.84 0 0
3.92 0 0
4 0 0
4.08 0 0
4.16 0 0
4.24 0 0
4.32 0 0
4.4 0 0
4.48 0 0
4.56 0 0
4.64 0 0
4.72 0 0
4.8 0 0
4.88 0 0
4.96 0 0
5.04 0 0
5.12 0 0
5.2 0 0
5.28 0 0
5.36 0 0
5.44 0 0
5.52 0 0
5.6 0 0
5.68 0 0
5.76 0 0
5.84 0 0
5.92 0 0
6 0 0
6.08 0 0
6.16 0 0
6.24 0 0
6.32 0 0
6.4 0 0
6.48 0 0
6.56 0 0
6.64 0 0
6.72 0 0
6.8 0 0
6.88 0 0
6.96 0 0
7.04 0 0
7.12 0 0
7.2 0 0
7.28 0 0
7.36 0 0
7.44 0 0
7.52 0 0
7.6 0 0
7.68 0 0
7.76 0 0
7.84 0 0
7.92 0 0
8 0 0
8.08 0 0
8.16 0 0
8.24 0 0
8.32 0 0
8.4 0 0
8.48 0 0
8.56 0 0
8.64 0 0
8.72 0 0
8.8 0 0
8.88 0 0
8.96 0 0
9.04 0 0
9.12 0 0
9.2 0 0
9.28 0 0
9.36 0 0
9.44 0 0
9.52 0 0
9.6 0 0
9.68 0 0
9.76 0 0
9.84 0 0
9.92 0 0
10 0 0
10.08 0 0
10.16 0 0
10.24 0 0
10.32 0 0
10.4 0 0
10.48 0 0
10.56 0 0
10.64 0 0
10.72 0 0
10.8 0 0
10.88 0 0
10.96 0 0
11.04 0 0
11.12 0 0
11.2 0 0
11.28 0 0
11.36 0 0
11.44 0 0
11.52 0 0
11.6 0 0
11.68 0 0
11.76 0 0
11.84 0 0
11.92 0 0
12 0 0
12.08 0 0
12.16 0 0
12.24 0 0
12.32 0 0
12.4 0 0
12.48 0 0
12.56 0 0
12.64 0 0
12.72 0 0
12.8 0 0
12.88 0 0
12.96 0 0
13.04 0 0
13.12 0 0
13.2 0 0
13.28 0 0
13.36 0 0
13.44 0 0
13.52 0 0
13.6 0 0
13.68 0 0
13.76 0 0
13.84 0 0
13.92 0 0
14 0 0
14.08 0 0
14.16 0 0
14.24 0 0
14.32 0 0
14.4 0 0
14.48 0 0
14.56 0 0
14.64 0 0
14.72 0 0
14.8 0 0
14.88 0 0
14.96 0 0
15.04 0 0
15.12 0 0
15.2 0 0
15.28 0 0
15.36 0 0
15.44 0 0
15.52 0 0
15.6 0 0
15.68 0 0
15.76 0 0
15.84 0 0
15.92 0 0
16 0 0
16.08 0 0
16.16 0 0
16.24 0 0
16.32 0 0
16.4 0 0
16.48 0 0
16.56 0 0
16.64 0 0
16.72 0 0
16.8 0 0
16.88 0 0
16.96 0 0
17.04 0 0
17.12 0 0
17.2 0 0
17.28 0 0
17.36 0 0
17.44 0 0
17.52 0 0
17.6 0 0
17.68 0 0
17.76 0 0
17.84 0 0
17.92 0 0
18 0 0
18.08 0 0
18.16 0 0
18.24 0 0
18.32 0 0
18.4 0 0
18.48 0 0
18.56 0 0
18.64 0 0
18.72 0 0
18.8 0 0
18.88 0 0
18.96 0 0
19.04 0 0
19.12 0 0
19.2 0 0
19.28 0 0
19.36 0 0
19.44 0 0
19.52 0 0
19.6 0 0
19.68 0 0
19.76 0 0
19.84 0 0
19.92 0 0
20 0 0
20.08 0 0
20.16 0 0
20.24 0 0
20.32 0 0
20.4 0 0
20.48 0 0
20.56 0 0
20.64 0 0
20.72 0 0
20.8 0 0
20.88 0 0
20.96 0 0
21.04 0 0
21.12 0 0
21.2 0 0
21.28 0 0
21.36 0 0
21.44 0 0
21.52 0 0
21.6 0 0
21.68 0 0
21.76 0 0
21.84 0 0
21.92 0 0
22 0 0
22.08 0 0
22.16 0 0
22.24 0 0
22.32 0 0
22.4 0 0
22.48 0 0
22.56 0 0
22.64 0 0
22.72 0 0
22.8 0 0
22.88 0 0
22.96 0 0
23.04 0 0
23.12 0 0
23.2 0 0
23.28 0 0
23.36 0 0
23.44 0 0
23.52 0 0
23.6 0 0
23.68 0 0
23.76 0 0
23.84 0 0
23.92 0 0
24 0 0
24.08 0 0
24.16 0 0
24.24 0 0
24.32 0 0
24.4 0 0
24.48 0 0
24.56 0 0
24.64 0 0
24.72 0 0
24.8 0 0
24.88 0 0
24.96 0 0
25.04 0 0
25.12 0 0
25.2 0 0
25.28 0 0
25.36 0 0
25.44 0 0
25.52 0 0
25.6 0 0
25.68 0 0
25.76 0 0
25.84 0 0
25.92 0 0
26 0 0
26.08 0 0
26.16 0 0
26.24 0 0
26.32 0 0
26.4 0 0
26.48 0 0
26.56 0 0
26.64 0 0
26.72 0 0
26.8 0 0
26.88 0 0
26.96 0 0
27.04 0 0
27.12 0 0
27.2 0 0
27.28 0 0
27.36 0 0
27.44 0 0
27.52 0 0
27.6 0 0
27.68 0 0
27.76 0 0
27.84 0 0
27.92 0 0
28 0 0
28.08 0 0
28.16 0 0
28.24 0 0
28.32 0 0
28.4 0 0
28.48 0 0
28.56 0 0
28.64 0 0
28.72 0 0
28.8 0 0
28.88 0 0
28.96 0 0
29.04 0 0
29.12 0 0
29.2 0 0
29.28 0 0
29.36 0 0
29.44 0 0
29.52 0 0
29.6 0 0
29.68 0 0
29.76 0 0
29.84 0 0
29.92 0 0
30 0 0
30.08 0 0
30.16 0 0
30.24 0 0
30.32 0 0
30.4 0 0
30.48 0 0
30.56 0 0
30.64 0 0
30.72 0 0
30.8 0 0
30.88 0 0
30.96 0 0
31.04 0 0
31.12 0 0
31.2 0 0
31.28 0 0
31.36 0 0
31.44 0 0
31.52 0 0
31.6 0 0
31.68 0 0
31.76 0 0
31.84 0 0
31.92 0 0
0 0.02 0
0.08 0.02 0
0.16 0.02 0
0.24 0.02 0
0.32 0.02 0
0.4 0.02 0
0.48 0.02 0
0.56 0.02 0
0.64 0.02 0
0.72 0.02 0
0.8 0.02 0
0.88 0.02 0
0.96 0.02 0
1.04 0.02 0
1.12 0.02 0
1.2 0.02 0
1.28 0.02 0
1.36 0.02 0
1.44 0.02 0
1.52 0.02 0
1.6 0.02 0
1.68 0.02 0
1.76 0.02 0
1.84 0.02 0
1.92 0.02 0
2 0.02 0
2.08 0.02 0
2.16 0.02 0
2.24 0.02 0
2.32 0.02 0
2.4 0.02 0
2.48 0.02 0
2.56 0.02 0
2.64 0.02 0
2.72 0.02 0
2.8 0.02 0
2.88 0.02 0
2.96 0.02 0
3.04 0.02 0
3.12 0.02 0
3.2 0.02 0
3.28 0.02 0
3.36 0.02 0
3.44 0.02 0
3.52 0.02 0
3.6 0.02 0
3.68 0.02 0
3.76 0.02 0
3.84 0.02 0
3.92 0.02 0
4 0.02 0
4.08 0.02 0
4.16 0.02 0
4.24 0.02 0
4.32 0.02 0
4.4 0.02 0
4.48 0.02 0
4.56 0.02 0
4.64 0.02 0
4.72 0.02 0
4.8 0.02 0
4.88 0.02 0
4.96 0.02 0
5.04 0.02 0
5.12 0.02 0
5.2 0.02 0
5.28 0.02 0
5.36 0.02 0
5.44 0.02 0
5.52 0.02 0
5.6 0.02 0
5.68 0.02 0
5.76 0.02 0
5.84 0.02 0
5.92 0.02 0
6 0.02 0
6.08 0.02 0
6.16 0.02 0
6.24 0.02 0
6.32 0.02 0
6.4 0.02 0
6.48 0.02 0
6.56 0.02 0
6.64 0.02 0
6.72 0.02 0
6.8 0.02 0
6.88 0.02 0
6.96 0.02 0
7.04 0.02 0
7.12 0.02 0
7.2 0.02 0
7.28 0.02 0
7.36 0.02 0
7.44 0.02 0
7.52 0.02 0
7.6 0.02 0
7.68 0.02 0
7.76 0.02 0
7.84 0.02 0
7.92 0.02 0
8 0.02 0
8.08 0.02 0
8.16 0.02 0
8.24 0.02 0
8.32 0.02 0
8.4 0.02 0
8.48 0.02 0
8.56 0.02 0
8.64 0.02 0
8.72 0.02 0
8.8 0.02 0
8.88 0.02 0
8.96 0.02 0
9.04 0.02 0
9.12 0.02 0
9.2 0.02 0
9.28 0.02 0
9.36 0.02 0
9.44 0.02 0
9.52 0.02 0
9.6 0.02 0
9.68 0.02 0
9.76 0.02 0
9.84 0.02 0
9.92 0.02 0
10 0.02 0
10.08 0.02 0
10.16 0.02 0
10.24 0.02 0
10.32 0.02 0
10.4 0.02 0
10.48 0.02 0
10.56 0.02 0
10.64 0.02 0
10.72 0.02 0
10.8 0.02 0
10.88 0.02 0
10.96 0.02 0
11.04 0.02 0
11.12 0.02 0
11.2 0.02 0
11.28 0.02 0
11.36 0.02 0
11.44 0.02 0
11.52 0.02 0
11.6 0.02 0
11.68 0.02 0
11.76 0.02 0
11.84 0.02 0
11.92 0.02 0
12 0.02 0
12.08 0.02 0
12.16 0.02 0
12.24 0.02 0
12.32 0.02 0
12.4 0.02 0
12.48 0.02 0
12.56 0.02 0
12.64 0.02 0
12.72 0.02 0
12.8 0.02 0
12.88 0.02 0
12.96 0.02 0
13.04 0.02 0
13.12 0.02 0
13.2 0.02 0
13.28 0.02 0
13.36 0.02 0
13.44 0.02 0
13.52 0.02 0
13.6 0.02 0
13.68 0.02 0
13.76 0.02 0
13.84 0.02 0
13.92 0.02 0
14 0.02 0
14.08 0.02 0
14.16 0.02 0
14.24 0.02 0
14.32 0.02 0
14.4 0.02 0
14.48 0.02 0
14.56 0.02 0
14.64 0.02 0
14.72 0.02 0
14.8 0.02 0
14.88 0.02 0
14.96 0.02 0
15.04 0.02 0
15.12 0.02 0
15.2 0.02 0
15.28 0.02 0
15.36 0.02 0
15.44 0.02 0
15.52 0.02 0
15.6 0.02 0
15.68 0.02 0
15.76 0.02 0
15.84 0.02 0
15.92 0.02 0
16 0.02 0
16.08 0.02 0
16.16 0.02 0
16.24 0.02 0
16.32 0.02 0
16.4 0.02 0
16.48 0.02 0
16.56 0.02 0
16.64 0.02 0
16.72 0.02 0
16.8 0.02 0
16.88 0.02 0
16.96 0.02 0
17.04 0.02 0
17.12 0.02 0
17.2 0.02 0
17.28 0.02 0
17.36 0.02 0
17.44 0.02 0
17.52 0.02 0
17.6 0.02 0
17.68 0.02 0
17.76 0.02 0
17.84 0.02 0
17.92 0.02 0
18 0.02 0
18.08 0.02 0
18.16 0.02 0
18.24 0.02 0
18.32 0.02 0
18.4 0.02 0
18.48 0.02 0
18.56 0.02 0
18.64 0.02 0
18.72 0.02 0
18.8 0.02 0
18.88 0.02 0
18.96 0.02 0
19.04 0.02 0
19.12 0.02 0
19.2 0.02 0
19.28 0.02 0
19.36 0.02 0
19.44 0.02 0
19.52 0.02 0
19.6 0.02 0
19.68 0.02 0
19.76 0.02 0
19.84 0.02 0
19.92 0.02 0
20 0.02 0
20.08 0.02 0
20.16 0.02 0
20.24 0.02 0
20.32 0.02 0
20.4 0.02 0
20.48 0.02 0
20.56 0.02 0
20.64 0.02 0
20.72 0.02 0
20.8 0.02 0
20.88 0.02 0
20.96 0.02 0
21.04 0.02 0
21.12 0.02 0
21.2 0.02 0
21.28 0.02 0
21.36 0.02 0
21.44 0.02 0
21.52 0.02 0
21.6 0.02 0
21.68 0.02 0
21.76 0.02 0
21.84 0.02 0
21.92 0.02 0
22 0.02 0
22.08 0.02 0
22.16 0.02 0
22.24 0.02 0
22.32 0.02 0
22.4 0.02 0
22.48 0.02 0
22.56 0.02 0
22.64 0.02 0
22.72 0.02 0
22.8 0.02 0
22.88 0.02 0
22.96 0.02 0
23.04 0.02 0
23.12 0.02 0
23.2 0.02 0
23.28 0.02 0
23.36 0.02 0
23.44 0.02 0
23.52 0.02 0
23.6 0.02 0
23.68 0.02 0
23.76 0.02 0
23.84 0.02 0
23.92 0.02 0
24 0.02 0
24.08 0.02 0
24.16 0.02 0
24.24 0.02 0
24.32 0.02 0
24.4 0.02 0
24.48 0.02 0
24.56 0.02 0
24.64 0.02 0
24.72 0.02 0
24.8 0.02 0
24.88 0.02 0
24.96 0.02 0
25.04 0.02 0
25.12 0.02 0
25.2 0.02 0
25.28 0.02 0
25.36 0.02 0
25.44 0.02 0
25.52 0.02 0
25.6 0.02 0
25.68 0.02 0
25.76 0.02 0
25.84 0.02 0
25.92 0.02 0
26 0.02 0
26.08 0.02 0
26.16 0.02 0
26.24 0.02 0
26.32 0.02 0
26.4 0.02 0
26.48 0.02 0
26.56 0.02 0
26.64 0.02 0
26.72 0.02 0
26.8 0.02 0
26.88 0.02 0
26.96 0.02 0
27.04 0.02 0
27.12 0.02 0
27.2 0.02 0
27.28 0.02 0
27.36 0.02 0
27.44 0.02 0
27.52 0.02 0
27.6 0.02 0
27.68 0.02 0
27.76 0.02 0
27.84 0.02 0
27.92 0.02 0
28 0.02 0
28.08 0.02 0
28.16 0.02 0
28.24 0.02 0
28.32 0.02 0
28.4 0.02 0
28.48 0.02 0
28.56 0.02 0
28.64 0.02 0
28.72 0.02 0
28.8 0.02 0
28.88 0.02 0
28.96 0.02 0
29.04 0.02 0
29.12 0.02 0
29.2 0.02 0
29.28 0.02 0
29.36 0.02 0
29.44 0.02 0
29.52 0.02 0
29.6 0.02 0
29.68 0.02 0
29.76 0.02 0
29.84 0.02 0
29.92 0.02 0
30 0.02 0
30.08 0.02 0
30.16 0.02 0
30.24 0.02 0
30.32 0.02 0
30.4 0.02 0
30.48 0.02 0
30.56 0.02 0
30.64 0.02 0
30.72 0.02 0
30.8 0.02 0
30.88 0.02 0
30.96 0.02 0
31.04 0.02 0
31.12 0.02 0
31.2 0.02 0
31.28 0.02 0
31.36 0.02 0
31.44 0.02 0
31.52 0.02 0
31.6 0.02 0
31.68 0.02 0
31.76 0.02 0
31.84 0.02 0
31.92 0.02 0
0 0.04 0
0.08 0.04 0
0.16 0.04 0
0.24 0.04 0
0.32 0.04 0
0.4 0.04 0
0.48 0.04 0
0.56 0.04 0
0.64 0.04 0
0.72 0.04 0
0.8 0.04 0
0.88 0.04 0
0.96 0.04 0
1.04 0.04 0
1.12 0.04 0
1.2 0.04 0
1.28 0.04 0
1.36 0.04 0
1.44 0.04 0
1.52 0.04 0
1.6 0.04 0
1.68 0.04 0
1.76 0.04 0
1.84 0.04 0
1.92 0.04 0
2 0.04 0
2.08 0.04 0
2.16 0.04 0
2.24 0.04 0
2.32 0.04 0
2.4 0.04 0
2.48 0.04 0
2.56 0.04 0
2.64 0.04 0
2.72 0.04 0
2.8 0.04 0
2.88 0.04 0
2.96 0.04 0
3.04 0.04 0
3.12 0.04 0
3.2 0.04 0
3.28 0.04 0
3.36 0.04 0
3.44 0.04 0
3.52 0.04 0
3.6 0.04 0
3.68 0.04 0
3.76 0.04 0
3.84 0.04 0
3.92 0.04 0
4 0.04 0
4.08 0.04 0
4.16 0.04 0
4.24 0.04 0
4.32 0.04 0
4.4 0.04 0
4.48 0.04 0
4.56 0.04 0
4.64 0.04 0
4.72 0.04 0
4.8 0.04 0
4.88 0.04 0
4.96 0.04 0
5.04 0.04 0
5.12 0.04 0
5.2 0.04 0
5.28 0.04 0
5.36 0.04 0
5.44 0.04 0
5.52 0.04 0
5.6 0.04 0
5.68 0.04 0
5.76 0.04 0
5.84 0.04 0
5.92 0.04 0
6 0.04 0
6.08 0.04 0
6.16 0.04 0
6.24 0.04 0
6.32 0.04 0
6.4 0.04 0
6.48 0.04 0
6.56 0.04 0
6.64 0.04 0
6.72 0.04 0
6.8 0.04 0
6.88 0.04 0
6.96 0.04 0
7.04 0.04 0
7.12 0.04 0
7.2 0.04 0
7.28 0.04 0
7.36 0.04 0
7.44 0.04 0
7.52 0.04 0
7.6 0.04 0
7.68 0.04 0
7.76 0.04 0
7.84 0.04 0
[...]
POINT_DATA 20000

SCALARS u float 1
LOOKUP_TABLE default
0
-0.50709
-0.29192
-0.214162
-0.179027
-0.158666
-0.145113
-0.135361
-0.127969
-0.122142
-0.117404
-0.113452
-0.110089
-0.107176
-0.104618
-0.102345
-0.100305
-0.0984603
-0.0967806
-0.0952421
-0.0938261
-0.0925173
-0.0913028
-0.0901721
-0.0891162
-0.0881276
-0.0871995
-0.0863264
-0.0855032
-0.0847255
-0.0839895
-0.0832917
-0.0826292
-0.0819992
-0.0813992
-0.0808272
-0.080281
-0.079759
-0.0792595
-0.078781
-0.0783222
-0.0778818
-0.0774588
-0.0770521
-0.0766607
-0.0762838
-0.0759206
-0.0755704
-0.0752324
-0.074906
-0.0745906
-0.0742857
-0.0739908
-0.0737053
-0.0734289
-0.0731611
-0.0729015
-0.0726498
-0.0724056
-0.0721686
-0.0719386
-0.0717151
-0.071498
-0.0712869
-0.0710817
-0.0708822
-0.0706881
-0.0704991
-0.0703152
-0.0701362
-0.0699618
-0.069792
-0.0696265
-0.0694652
-0.069308
-0.0691547
-0.0690052
-0.0688594
-0.0687172
-0.0685784
-0.068443
-0.0683109
-0.0681819
-0.068056
-0.0679331
-0.067813
-0.0676958
-0.0675813
-0.0674694
-0.0673602
-0.0672534
-0.0671491
-0.0670472
-0.0669476
-0.0668502
-0.0667551
-0.0666621
-0.0665711
-0.0664823
-0.0663954
-0.0663104
-0.0662274
-0.0661461
-0.0660667
-0.065989
-0.0659131
-0.0658388
-0.0657662
-0.0656951
-0.0656256
-0.0655576
-0.0654911
-0.0654261
-0.0653625
-0.0653003
-0.0652394
-0.0651798
-0.0651216
-0.0650646
-0.0650088
-0.0649543
-0.0649009
-0.0648487
-0.0647976
-0.0647477
-0.0646988
-0.064651
-0.0646042
-0.0645584
-0.0645136
-0.0644698
-0.0644269
-0.064385
-0.0643439
-0.0643038
-0.0642645
-0.064226
-0.0641884
-0.0641516
-0.0641156
-0.0640804
-0.064046
-0.0640123
-0.0639793
-0.063947
-0.0639154
-0.0638845
-0.0638543
-0.0638247
-0.0637958
-0.0637675
-0.0637398
-0.0637127
-0.0636862
-0.0636603
-0.0636349
-0.0636101
-0.0635858
-0.0635621
-0.0635388
-0.0635161
-0.0634939
-0.0634721
-0.0634508
-0.06343
-0.0634096
-0.0633897
-0.0633701
-0.0633511
-0.0633324
-0.0633141
-0.0632962
-0.0632788
-0.0632616
-0.0632449
-0.0632285
-0.0632125
-0.0631968
-0.0631815
-0.0631665
-0.0631518
-0.0631374
-0.0631234
-0.0631096
-0.0630962
-0.063083
-0.0630701
-0.0630575
-0.0630452
-0.0630331
-0.0630213
-0.0630097
-0.0629984
-0.0629874
-0.0629765
-0.0629659
-0.0629556
-0.0629454
-0.0629355
-0.0629258
-0.0629163
-0.062907
-0.0628979
-0.062889
-0.0628803
-0.0628718
-0.0628634
-0.0628553
-0.0628473
-0.0628395
-0.0628318
-0.0628243
-0.062817
-0.0628098
-0.0628028
-0.062796
-0.0627893
-0.0627827
-0.0627762
-0.0627699
-0.0627638
-0.0627578
-0.0627519
-0.0627461
-0.0627404
-0.0627349
-0.0627295
-0.0627242
-0.062719
-0.0627139
-0.062709
-0.0627041
-0.0626994
-0.0626947
-0.0626901
-0.0626857
-0.0626813
-0.062677
-0.0626729
-0.0626688
-0.0626648
-0.0626608
-0.062657
-0.0626533
-0.0626496
-0.062646
-0.0626425
-0.062639
-0.0626357
-0.0626324
-0.0626291
-0.062626
-0.0626229
-0.0626199
-0.0626169
-0.062614
-0.0626112
-0.0626084
-0.0626057
-0.062603
-0.0626004
-0.0625979
-0.0625954
-0.062593
-0.0625906
-0.0625883
-0.062586
-0.0625838
-0.0625816
-0.0625795
-0.0625774
-0.0625754
-0.0625735
-0.0625715
-0.0625697
-0.0625678
-0.0625661
-0.0625643
-0.0625626
-0.062561
-0.0625594
-0.0625578
-0.0625563
-0.0625549
-0.0625535
-0.0625521
-0.0625508
-0.0625495
-0.0625482
-0.062547
-0.0625459
-0.0625448
-0.0625437
-0.0625427
-0.0625417
-0.0625407
-0.0625398
-0.062539
-0.0625381
-0.0625373
-0.0625366
-0.0625359
-0.0625352
-0.0625346
-0.062534
-0.0625334
-0.0625329
-0.0625324
-0.0625319
-0.0625315
-0.0625311
-0.0625307
-0.0625304
-0.06253
-0.0625298
-0.0625295
-0.0625293
-0.0625291
-0.0625289
-0.0625287
-0.0625286
-0.0625285
-0.0625284
-0.0625283
-0.0625283
-0.0625283
-0.0625282
-0.0625282
-0.0625283
-0.0625283
-0.0625283
-0.0625284
-0.0625285
-0.0625285
-0.0625286
-0.0625287
-0.0625288
-0.062529
-0.0625291
-0.0625292
-0.0625294
-0.0625295
-0.0625297
-0.0625298
-0.06253
-0.0625302
-0.0625303
-0.0625305
-0.0625307
-0.0625309
-0.0625311
-0.0625313
-0.0625315
-0.0625316
-0.0625318
-0.062532
-0.0625322
-0.0625324
-0.0625326
-0.0625328
-0.062533
-0.0625332
-0.0625334
-0.0625337
-0.0625339
-0.0625341
-0.0625343
-0.0625345
-0.0625347
-0.0625349
-0.0625351
-0.0625353
-0.0625355
-0.0625357
-0.0625359
-0.0625361
-0.0625363
-0.0625366
-0.0625368
-0.062537
-0.0625372
-0.0625374
-0.0625376
-0.0625379
-0.0625381
-0.0625383
-0.0625385
-0.0625387
-0.062539
-0.0625392
-0.0625394
-0.0625397
-0.0625399
-0.0625402
-0.0625404
-0.0625406
-0.0625409
-0.0625407
-0.0625407
-0.0625407
1
0.50709
0.29192
0.214162
0.179027
0.158666
0.145113
0.135361
0.127969
0.122142
0.117404
0.113452
0.110089
0.107176
0.104618
0.102345
0.100305
0.0984603
0.0967806
0.0952421
0.0938261
0.0925173
0.0913028
0.0901721
0.0891162
0.0881276
0.0871995
0.0863264
0.0855032
0.0847255
0.0839895
0.0832917
0.0826292
0.0819992
0.0813992
0.0808272
0.080281
0.079759
0.0792595
0.078781
0.0783222
0.0778818
0.0774588
0.0770521
0.0766607
0.0762838
0.0759206
0.0755704
0.0752324
0.074906
0.0745906
0.0742857
0.0739908
0.0737053
0.0734289
0.0731611
0.0729015
0.0726498
0.0724056
0.0721686
0.0719386
0.0717151
0.071498
0.0712869
0.0710817
0.0708822
0.0706881
0.0704991
0.0703152
0.0701362
0.0699618
0.069792
0.0696265
0.0694652
0.069308
0.0691547
0.0690052
0.0688594
0.0687172
0.0685784
0.068443
0.0683109
0.0681819
0.068056
0.0679331
0.067813
0.0676958
0.0675813
0.0674694
0.0673602
0.0672534
0.0671491
0.0670472
0.0669476
0.0668502
0.0667551
0.0666621
0.0665711
0.0664823
0.0663954
0.0663104
0.0662274
0.0661461
0.0660667
0.065989
0.0659131
0.0658388
0.0657662
0.0656951
0.0656256
0.0655576
0.0654911
0.0654261
0.0653625
0.0653003
0.0652394
0.0651798
0.0651216
0.0650646
0.0650088
0.0649543
0.0649009
0.0648487
0.0647976
0.0647477
0.0646988
0.064651
0.0646042
0.0645584
0.0645136
0.0644698
0.0644269
0.064385
0.0643439
0.0643038
0.0642645
0.064226
0.0641884
0.0641516
0.0641156
0.0640804
0.064046
0.0640123
0.0639793
0.063947
0.0639154
0.0638845
0.0638543
0.0638247
0.0637958
0.0637675
0.0637398
0.0637127
0.0636862
0.0636603
0.0636349
0.0636101
0.0635858
0.0635621
0.0635388
0.0635161
0.0634939
0.0634721
0.0634508
0.06343
0.0634096
0.0633897
0.0633701
0.0633511
0.0633324
0.0633141
0.0632962
0.0632788
0.0632616
0.0632449
0.0632285
0.0632125
0.0631968
0.0631815
0.0631665
0.0631518
0.0631374
0.0631234
0.0631096
0.0630962
0.063083
0.0630701
0.0630575
0.0630452
0.0630331
0.0630213
0.0630097
0.0629984
0.0629874
0.0629765
0.0629659
0.0629556
0.0629454
0.0629355
0.0629258
0.0629163
0.062907
0.0628979
0.062889
0.0628803
0.0628718
0.0628634
0.0628553
0.0628473
0.0628395
0.0628318
0.0628243
0.062817
0.0628098
0.0628028
0.062796
0.0627893
0.0627827
0.0627762
0.0627699
0.0627638
0.0627578
0.0627519
0.0627461
0.0627404
0.0627349
0.0627295
0.0627242
0.062719
0.0627139
0.062709
0.0627041
0.0626994
0.0626947
0.0626901
0.0626857
0.0626813
0.062677
0.0626729
0.0626688
0.0626648
0.0626608
0.062657
0.0626533
0.0626496
0.062646
0.0626425
0.062639
0.0626357
0.0626324
0.0626291
0.062626
0.0626229
0.0626199
0.0626169
0.062614
0.0626112
0.0626084
0.0626057
0.062603
0.0626004
0.0625979
0.0625954
0.062593
0.0625906
0.0625883
0.062586
0.0625838
0.0625816
0.0625795
0.0625774
0.0625754
0.0625735
0.0625715
0.0625697
0.0625678
0.0625661
0.0625643
0.0625626
0.062561
0.0625594
0.0625578
0.0625563
0.0625549
0.0625535
0.0625521
0.0625508
0.0625495
0.0625482
0.062547
0.0625459
0.0625448
0.0625437
0.0625427
0.0625417
0.0625407
0.0625398
0.062539
0.0625381
0.0625373
0.0625366
0.0625359
0.0625352
0.0625346
0.062534
0.0625334
0.0625329
0.0625324
0.0625319
0.0625315
0.0625311
0.0625307
0.0625304
0.06253
0.0625298
0.0625295
0.0625293
0.0625291
0.0625289
0.0625287
0.0625286
0.0625285
0.0625284
0.0625283
0.0625283
0.0625283
0.0625282
0.0625282
0.0625283
0.0625283
0.0625283
0.0625284
0.0625285
0.0625285
0.0625286
0.0625287
0.0625288
0.062529
0.0625291
0.0625292
0.0625294
0.0625295
0.0625297
0.0625298
0.06253
0.0625302
0.0625303
0.0625305
0.0625307
0.0625309
0.0625311
0.0625313
0.0625315
0.0625316
0.0625318
0.062532
0.0625322
0.0625324
0.0625326
0.0625328
0.062533
0.0625332
0.0625334
0.0625337
0.0625339
0.0625341
0.0625343
0.0625345
0.0625347
0.0625349
0.0625351
0.0625353
0.0625355
0.0625357
0.0625359
0.0625361
0.0625363
0.0625366
0.0625368
0.062537
0.0625372
0.0625374
0.0625376
0.0625379
0.0625381
0.0625383
0.0625385
0.0625387
0.062539
0.0625392
0.0625394
0.0625397
0.0625399
0.0625402
0.0625404
0.0625406
0.0625409
0.0625407
0.0625407
0.0625407
1
0.924297
0.735447
0.597551
0.511658
0.456344
0.418184
0.390281
0.368951
0.352067
0.33832
0.326861
0.317121
0.308705
0.301331
0.294794
0.288943
0.283662
0.278862
0.274474
0.27044
0.266717
0.263266
0.260056
0.257062
0.25426
0.251631
0.24916
0.246831
0.244632
0.242551
0.24058
0.238709
0.23693
0.235237
0.233623
0.232083
0.230611
0.229203
0.227855
0.226562
0.225322
0.224131
0.222986
0.221884
0.220824
0.219802
0.218817
0.217867
0.216949
0.216063
0.215206
0.214377
0.213576
0.212799
0.212047
0.211319
0.210612
0.209927
0.209262
0.208617
0.20799
0.207381
0.20679
0.206215
0.205655
0.205112
0.204582
0.204067
0.203566
0.203078
0.202602
0.202139
0.201688
0.201248
0.200819
0.200401
0.199993
0.199595
0.199207
0.198829
0.19846
0.198099
0.197747
0.197404
0.197069
0.196741
0.196421
0.196109
0.195804
0.195506
0.195215
0.194931
0.194653
0.194381
0.194116
0.193856
0.193603
0.193355
0.193113
0.192876
0.192644
0.192418
0.192197
0.19198
0.191769
0.191562
0.191359
0.191161
0.190968
0.190779
0.190593
0.190412
0.190235
0.190062
0.189893
0.189727
0.189565
0.189406
0.189251
0.189099
0.188951
0.188806
0.188664
0.188525
0.188389
0.188256
0.188126
0.187998
0.187874
0.187752
0.187633
0.187516
0.187402
0.187291
0.187182
0.187075
0.18697
0.186868
0.186768
0.18667
0.186575
0.186481
0.18639
0.1863
0.186212
0.186127
0.186043
0.185961
0.18588
0.185802
0.185725
0.18565
0.185576
0.185504
0.185434
0.185365
0.185298
0.185232
0.185167
0.185104
0.185043
0.184982
0.184923
0.184866
0.184809
0.184754
0.1847
0.184647
0.184595
0.184544
0.184495
0.184446
0.184399
0.184353
0.184307
0.184263
0.184219
0.184177
0.184135
0.184095
0.184055
0.184016
0.183978
0.183941
0.183904
0.183868
0.183833
0.183799
0.183766
0.183733
0.183701
0.18367
0.183639
0.183609
0.18358
0.183551
0.183523
0.183496
0.183469
0.183442
0.183417
0.183392
0.183367
0.183343
0.183319
0.183296
0.183274
0.183251
0.18323
0.183209
0.183188
0.183168
0.183148
0.183128
0.183109
0.183091
0.183073
0.183055
0.183037
0.18302
0.183004
0.182987
0.182971
0.182956
0.18294
0.182925
0.182911
0.182896
0.182882
0.182869
0.182855
0.182842
0.182829
0.182817
0.182804
0.182792
0.18278
0.182769
0.182757
0.182746
0.182735
0.182725
0.182714
0.182704
0.182694
0.182685
0.182675
0.182666
0.182657
0.182648
0.182639
0.18263
0.182622
0.182614
0.182606
0.182598
0.18259
0.182583
0.182575
0.182568
0.182561
0.182554
0.182548
0.182541
0.182535
0.182528
0.182522
0.182516
0.18251
0.182505
0.182499
0.182494
0.182489
0.182483
0.182478
0.182473
0.182469
0.182464
0.18246
0.182455
0.182451
0.182447
0.182443
0.182439
0.182435
0.182432
0.182428
0.182425
0.182422
0.182419
0.182416
0.182413
0.18241
0.182407
0.182405
0.182402
0.1824
0.182398
0.182396
0.182394
0.182392
0.18239
0.182389
0.182387
0.182386
0.182384
0.182383
0.182382
0.182381
0.18238
0.182379
0.182378
0.182377
0.182376
0.182376
0.182375
0.182375
0.182374
0.182374
0.182374
0.182373
0.182373
0.182373
0.182373
0.182373
0.182373
0.182373
0.182373
0.182373
0.182374
0.182374
0.182374
0.182374
0.182375
0.182375
0.182375
0.182376
0.182376
0.182376
0.182377
0.182377
0.182378
0.182378
0.182379
0.182379
0.18238
0.18238
0.182381
0.182381
0.182382
0.182382
0.182383
0.182384
0.182384
0.182385
0.182385
0.182386
0.182386
0.182387
0.182387
0.182388
0.182389
0.182389
0.18239
0.18239
0.182391
0.182392
0.182392
0.182393
0.182393
0.182394
0.182394
0.182395
0.182396
0.182396
0.182397
0.182397
0.182398
0.182399
0.182399
0.1824
0.1824
0.182401
0.182402
0.182402
0.182403
0.182404
0.182404
0.182405
0.182406
0.182406
0.182407
0.182408
0.182408
0.182409
0.18241
0.18241
0.18241
0.18241
1
1.07971
0.997071
0.883652
0.788698
0.716915
0.663052
0.621839
0.589497
0.563484
0.542093
0.524153
0.508847
0.495592
0.483966
0.473656
0.464426
0.456098
0.44853
0.441612
0.435257
0.429391
0.423955
0.418901
0.414185
0.409774
0.405636
0.401746
0.398081
0.39462
0.391346
0.388245
0.385301
0.382503
0.379839
0.3773
0.374877
0.372562
0.370348
0.368228
0.366195
0.364245
0.362373
0.360573
0.358841
0.357175
0.355569
0.354021
0.352528
0.351086
0.349694
0.348348
0.347047
0.345788
0.344569
0.343388
0.342244
0.341136
0.34006
0.339017
0.338004
0.337021
0.336066
0.335138
0.334236
0.333359
0.332506
0.331676
0.330869
0.330083
0.329318
0.328573
0.327847
0.32714
0.326451
0.325779
0.325124
0.324486
0.323863
0.323256
0.322663
0.322085
0.321521
0.320971
0.320433
0.319909
0.319396
0.318896
0.318408
0.317931
0.317465
0.31701
0.316565
0.316131
0.315706
0.315291
0.314886
0.31449
0.314103
0.313724
0.313354
0.312993
0.312639
0.312294
0.311956
0.311625
0.311302
0.310987
0.310678
0.310376
0.31008
0.309791
0.309509
0.309233
0.308962
0.308698
0.30844
0.308187
0.30794
0.307698
0.307461
0.30723
0.307003
0.306782
0.306565
0.306353
0.306146
0.305943
0.305745
0.305551
0.305361
0.305176
0.304994
0.304816
0.304643
0.304473
0.304306
0.304144
0.303985
0.303829
0.303677
0.303528
0.303382
0.303239
0.3031
0.302963
0.30283
0.302699
0.302572
0.302447
0.302325
0.302205
0.302088
0.301974
0.301862
0.301752
0.301645
0.301541
0.301438
0.301338
0.30124
0.301144
0.30105
0.300958
0.300868
0.300781
0.300695
0.300611
0.300528
0.300448
0.300369
0.300292
0.300217
0.300143
0.300071
0.300001
0.299932
0.299864
0.299798
0.299734
0.29967
0.299609
0.299548
0.299489
0.299431
0.299374
0.299319
0.299265
0.299212
0.29916
0.299109
0.299059
0.299011
0.298963
0.298917
0.298871
0.298826
0.298783
0.29874
0.298698
0.298658
0.298618
0.298579
0.29854
0.298503
0.298466
0.29843
0.298395
0.298361
0.298328
0.298295
0.298263
0.298231
0.2982
0.29817
0.298141
0.298112
0.298084
0.298056
0.298029
0.298002
0.297977
0.297951
0.297926
0.297902
0.297878
0.297855
0.297832
0.29781
0.297788
0.297767
0.297746
0.297726
0.297706
0.297686
0.297667
0.297648
0.29763
0.297612
0.297594
0.297577
0.29756
0.297544
0.297528
0.297512
0.297496
0.297481
0.297466
0.297452
0.297438
0.297424
0.29741
0.297397
0.297384
0.297371
0.297359
0.297347
0.297335
0.297323
0.297312
0.297301
0.29729
0.297279
0.297269
0.297259
0.297249
0.297239
0.297229
0.29722
0.297211
0.297202
0.297194
0.297185
0.297177
0.297169
0.297162
0.297154
0.297147
0.29714
0.297133
0.297126
0.297119
0.297113
0.297107
0.297101
0.297095
0.29709
0.297084
0.297079
0.297074
0.29707
0.297065
0.297061
0.297057
0.297053
0.297049
0.297045
0.297042
0.297038
0.297035
0.297032
0.297029
0.297027
0.297024
0.297022
0.29702
0.297018
0.297016
0.297014
0.297012
0.297011
0.29701
0.297008
0.297007
0.297006
0.297005
0.297005
0.297004
0.297003
0.297003
0.297002
0.297002
0.297002
0.297002
0.297002
0.297002
0.297002
0.297002
0.297002
0.297002
0.297003
0.297003
0.297004
0.297004
0.297005
0.297005
0.297006
0.297006
0.297007
0.297008
0.297008
0.297009
0.29701
0.29701
0.297011
0.297012
0.297013
0.297014
0.297014
0.297015
0.297016
0.297017
0.297018
0.297019
0.29702
0.297021
0.297021
0.297022
0.297023
0.297024
0.297025
0.297026
0.297027
0.297028
0.297029
0.29703
0.29703
0.297031
0.297032
0.297033
0.297034
0.297035
0.297036
0.297037
0.297038
0.297039
0.29704
0.297041
0.297042
0.297042
0.297043
0.297044
0.297045
0.297046
0.297047
0.297048
0.297049
0.29705
0.297051
0.297052
0.297053
0.297054
0.297055
0.297056
0.297057
0.297058
0.297059
0.29706
0.29706
0.29706
1
1.11179
1.11438
1.05557
0.984377
0.919039
0.863806
0.818223
0.780652
0.74943
0.723172
0.700804
0.681507
0.664663
0.649804
0.63657
0.624686
0.613935
0.604148
0.595188
0.586944
0.579328
0.572263
0.565688
0.55955
0.553804
0.548411
0.543338
0.538555
0.534037
0.529762
0.52571
0.521863
0.518205
0.514722
0.511401
0.508232
0.505202
0.502304
0.499529
0.496868
0.494314
0.491862
0.489505
0.487237
0.485054
0.482951
0.480923
0.478967
0.477078
0.475254
0.473491
0.471786
0.470136
0.468539
0.466992
0.465494
0.464041
0.462632
0.461265
0.459939
0.458651
0.4574
0.456184
0.455003
0.453855
0.452738
0.451651
0.450594
0.449565
0.448564
0.447588
0.446638
0.445713
0.444811
0.443932
0.443075
0.44224
0.441426
0.440631
0.439856
0.4391
0.438363
0.437643
0.43694
0.436254
0.435585
0.434931
0.434293
0.433669
0.433061
0.432466
0.431885
0.431318
0.430763
0.430221
0.429692
0.429175
0.428669
0.428175
0.427692
0.42722
0.426759
0.426308
0.425867
0.425436
0.425014
0.424602
0.424199
0.423805
0.42342
0.423043
0.422675
0.422315
0.421962
0.421618
0.421281
0.420951
0.420629
0.420314
0.420005
0.419704
0.419409
0.41912
0.418838
0.418562
0.418292
0.418028
0.41777
0.417517
0.41727
0.417028
0.416792
0.416561
0.416334
0.416113
0.415897
0.415685
0.415478
0.415275
0.415077
0.414883
0.414693
0.414508
0.414327
0.414149
0.413975
0.413806
0.41364
0.413477
0.413318
0.413163
0.413011
0.412862
0.412716
0.412574
0.412435
0.412299
0.412165
0.412035
0.411908
0.411783
0.411661
0.411542
0.411425
0.411311
0.411199
0.41109
0.410983
0.410879
0.410777
0.410677
0.410579
0.410483
0.41039
0.410298
0.410208
0.410121
0.410035
0.409951
0.409869
0.409789
0.40971
0.409633
0.409558
0.409485
0.409413
0.409343
0.409274
0.409206
0.40914
0.409076
0.409013
0.408951
0.408891
0.408832
0.408774
0.408717
0.408662
0.408608
0.408555
0.408503
0.408452
0.408403
0.408354
0.408307
0.40826
0.408215
0.40817
0.408127
0.408084
0.408042
0.408002
0.407962
0.407923
0.407884
0.407847
0.40781
0.407775
0.407739
0.407705
0.407672
0.407639
0.407607
0.407575
0.407544
0.407514
0.407485
0.407456
0.407427
0.4074
0.407373
0.407346
0.40732
0.407295
0.40727
0.407246
0.407222
0.407199
0.407176
0.407154
0.407132
0.40711
0.407089
0.407069
0.407049
0.407029
0.40701
0.406991
0.406973
0.406955
0.406937
0.40692
0.406903
0.406887
0.406871
0.406855
0.406839
0.406824
0.40681
0.406795
0.406781
0.406767
0.406754
0.40674
0.406728
0.406715
0.406703
0.406691
0.406679
0.406668
0.406657
0.406646
0.406635
0.406625
0.406615
0.406605
0.406596
0.406586
0.406577
0.406569
0.40656
0.406552
0.406544
0.406537
0.406529
0.406522
0.406515
0.406509
0.406502
0.406496
0.40649
0.406485
0.406479
0.406474
0.406469
0.406465
0.40646
0.406456
0.406452
0.406448
0.406445
0.406441
0.406438
0.406435
0.406432
0.40643
0.406427
0.406425
0.406423
0.406421
0.40642
0.406418
0.406417
0.406416
0.406414
0.406414
0.406413
0.406412
0.406411
0.406411
0.406411
0.40641
0.40641
0.40641
0.40641
0.40641
0.406411
0.406411
0.406411
0.406412
0.406412
0.406413
0.406414
0.406414
0.406415
0.406416
0.406416
0.406417
0.406418
0.406419
0.40642
0.406421
0.406422
0.406423
0.406424
0.406425
0.406426
0.406427
0.406428
0.406429
0.406431
0.406432
0.406433
0.406434
0.406435
0.406436
0.406437
0.406439
0.40644
0.406441
0.406442
0.406443
0.406444
0.406446
0.406447
0.406448
0.406449
0.40645
0.406452
0.406453
0.406454
0.406455
0.406456
0.406457
0.406459
0.40646
0.406461
0.406462
0.406464
0.406465
0.406466
0.406467
0.406468
0.40647
0.406471
0.406472
0.406474
0.406475
0.406476
0.406477
0.406479
0.40648
0.406482
0.406483
0.406484
0.406485
0.406486
0.406486
0.406486
1
1.09593
1.14368
1.13403
1.09771
1.05335
1.00943
0.969231
0.933639
0.902515
0.875356
0.851582
0.830648
0.81209
0.795521
0.780625
0.767148
0.754882
0.74366
0.733343
0.723818
0.714991
0.706782
0.699124
0.69196
0.685241
0.678925
0.672975
0.667357
0.662045
0.657012
0.652236
0.647698
0.643379
0.639263
0.635337
0.631586
0.628
0.624567
0.621277
0.618121
0.615092
0.612181
0.609383
0.606689
0.604096
0.601596
0.599185
0.596859
0.594613
0.592443
0.590345
0.588316
0.586353
0.584452
0.582611
0.580826
0.579097
0.577419
0.575791
0.574211
0.572677
0.571187
0.56974
0.568333
0.566965
0.565634
0.56434
0.563081
0.561856
0.560662
0.559501
0.558369
0.557267
0.556193
0.555146
0.554126
0.553131
0.552161
0.551215
0.550293
0.549393
0.548514
0.547657
0.546821
0.546005
0.545208
0.54443
0.54367
0.542929
0.542204
0.541497
0.540806
0.540131
0.539471
0.538827
0.538198
0.537583
0.536981
0.536394
0.53582
0.535259
0.53471
0.534174
0.53365
0.533138
0.532637
0.532147
0.531669
0.531201
0.530743
0.530296
0.529858
0.52943
0.529012
0.528603
0.528203
0.527811
0.527429
0.527055