# vtk DataFile Version 2.0
FlowField
ASCII
DATASET STRUCTURED_GRID
DIMENSIONS 400 1 50
POINTS 20000 float
0 0 0
0.08 0 0
0.16 0 0
0.24 0 0
0.32 0 0
0.4 0 0
0.48 0 0
0.56 0 0
0.64 0 0
0.72 0 0
0.8 0 0
0.88 0 0
0.96 0 0
1.04 0 0
1.12 0 0
1.2 0 0
1.28 0 0
1.36 0 0
1.44 0 0
1.52 0 0
1.6 0 0
1.68 0 0
1.76 0 0
1.84 0 0
1.92 0 0
2 0 0
2.08 0 0
2.16 0 0
2.24 0 0
2.32 0 0
2.4 0 0
2.48 0 0
2.56 0 0
2.64 0 0
2.72 0 0
2.8 0 0
2.88 0 0
2.96 0 0
3.04 0 0
3.12 0 0
3.2 0 0
3.28 0 0
3.36 0 0
3.44 0 0
3.52 0 0
3.6 0 0
3.68 0 0
3.76 0 0
3.84 0 0
3.92 0 0
4 0 0
4.08 0 0
4.16 0 0
4.24 0 0
4.32 0 0
4.4 0 0
4.48 0 0
4.56 0 0
4.64 0 0
4.72 0 0
4.8 0 0
4.88 0 0
4.96 0 0
5.04 0 0
5.12 0 0
5.2 0 0
5.28 0 0
5.36 0 0
5.44 0 0
5.52 0 0
5.6 0 0
5.68 0 0
5.76 0 0
5.84 0 0
5.92 0 0
6 0 0
6.08 0 0
6.16 0 0
6.24 0 0
6.32 0 0
6.4 0 0
6.48 0 0
6.56 0 0
6.64 0 0
6.72 0 0
6.8 0 0
6.88 0 0
6.96 0 0
7.04 0 0
7.12 0 0
7.2 0 0
7.28 0 0
7.36 0 0
7.44 0 0
7.52 0 0
7.6 0 0
7.68 0 0
7.76 0 0
7.84 0 0
7.92 0 0
8 0 0
8.08 0 0
8.16 0 0
8.24 0 0
8.32 0 0
8.4 0 0
8.48 0 0
8.56 0 0
8.64 0 0
8.72 0 0
8.8 0 0
8.88 0 0
8.96 0 0
9.04 0 0
9.12 0 0
9.2 0 0
9.28 0 0
9.36 0 0
9.44 0 0
9.52 0 0
9.6 0 0
9.68 0 0
9.76 0 0
9.84 0 0
9.92 0 0
10 0 0
10.08 0 0
10.16 0 0
10.24 0 0
10.32 0 0
10.4 0 0
10.48 0 0
10.56 0 0
10.64 0 0
10.72 0 0
10.8 0 0
10.88 0 0
10.96 0 0
11.04 0 0
11.12 0 0
11.2 0 0
11.28 0 0
11.36 0 0
11.44 0 0
11.52 0 0
11.6 0 0
11.68 0 0
11.76 0 0
11.84 0 0
11.92 0 0
12 0 0
12.08 0 0
12.16 0 0
12.24 0 0
12.32 0 0
12.4 0 0
12.48 0 0
12.56 0 0
12.64 0 0
12.72 0 0
12.8 0 0
12.88 0 0
12.96 0 0
13.04 0 0
13.12 0 0
13.2 0 0
13.28 0 0
13.36 0 0
13.44 0 0
13.52 0 0
13.6 0 0
13.68 0 0
13.76 0 0
13.84 0 0
13.92 0 0
14 0 0
14.08 0 0
14.16 0 0
14.24 0 0
14.32 0 0
14.4 0 0
14.48 0 0
14.56 0 0
14.64 0 0
14.72 0 0
14.8 0 0
14.88 0 0
14.96 0 0
15.04 0 0
15.12 0 0
15.2 0 0
15.28 0 0
15.36 0 0
15.44 0 0
15.52 0 0
15.6 0 0
15.68 0 0
15.76 0 0
15.84 0 0
15.92 0 0
16 0 0
16.08 0 0
16.16 0 0
16.24 0 0
16.32 0 0
16.4 0 0
16.48 0 0
16.56 0 0
16.64 0 0
16.72 0 0
16.8 0 0
16.88 0 0
16.96 0 0
17.04 0 0
17.12 0 0
17.2 0 0
17.28 0 0
17.36 0 0
17.44 0 0
17.52 0 0
17.6 0 0
17.68 0 0
17.76 0 0
17.84 0 0
17.92 0 0
18 0 0
18.08 0 0
18.16 0 0
18.24 0 0
18.32 0 0
18.4 0 0
18.48 0 0
18.56 0 0
18.64 0 0
18.72 0 0
18.8 0 0
18.88 0 0
18.96 0 0
19.04 0 0
19.12 0 0
19.2 0 0
19.28 0 0
19.36 0 0
19.44 0 0
19.52 0 0
19.6 0 0
19.68 0 0
19.76 0 0
19.84 0 0
19.92 0 0
20 0 0
20.08 0 0
20.16 0 0
20.24 0 0
20.32 0 0
20.4 0 0
20.48 0 0
20.56 0 0
20.64 0 0
20.72 0 0
20.8 0 0
20.88 0 0
20.96 0 0
21.04 0 0
21.12 0 0
21.2 0 0
21.28 0 0
21.36 0 0
21.44 0 0
21.52 0 0
21.6 0 0
21.68 0 0
21.76 0 0
21.84 0 0
21.92 0 0
22 0 0
22.08 0 0
22.16 0 0
22.24 0 0
22.32 0 0
22.4 0 0
22.48 0 0
22.56 0 0
22.64 0 0
22.72 0 0
22.8 0 0
22.88 0 0
22.96 0 0
23.04 0 0
23.12 0 0
23.2 0 0
23.28 0 0
23.36 0 0
23.44 0 0
23.52 0 0
23.6 0 0
23.68 0 0
23.76 0 0
23.84 0 0
23.92 0 0
24 0 0
24.08 0 0
24.16 0 0
24.24 0 0
24.32 0 0
24.4 0 0
24.48 0 0
24.56 0 0
24.64 0 0
24.72 0 0
24.8 0 0
24.88 0 0
24.96 0 0
25.04 0 0
25.12 0 0
25.2 0 0
25.28 0 0
25.36 0 0
25.44 0 0
25.52 0 0
25.6 0 0
25.68 0 0
25.76 0 0
25.84 0 0
25.92 0 0
26 0 0
26.08 0 0
26.16 0 0
26.24 0 0
26.32 0 0
26.4 0 0
26.48 0 0
26.56 0 0
26.64 0 0
26.72 0 0
26.8 0 0
26.88 0 0
26.96 0 0
27.04 0 0
27.12 0 0
27.2 0 0
27.28 0 0
27.36 0 0
27.44 0 0
27.52 0 0
27.6 0 0
27.68 0 0
27.76 0 0
27.84 0 0
27.92 0 0
28 0 0
28.08 0 0
28.16 0 0
28.24 0 0
28.32 0 0
28.4 0 0
28.48 0 0
28.56 0 0
28.64 0 0
28.72 0 0
28.8 0 0
28.88 0 0
28.96 0 0
29.04 0 0
29.12 0 0
29.2 0 0
29.28 0 0
29.36 0 0
29.44 0 0
29.52 0 0
29.6 0 0
29.68 0 0
29.76 0 0
29.84 0 0
29.92 0 0
30 0 0
30.08 0 0
30.16 0 0
30.24 0 0
30.32 0 0
30.4 0 0
30.48 0 0
30.56 0 0
30.64 0 0
30.72 0 0
30.8 0 0
30.88 0 0
30.96 0 0
31.04 0 0
31.12 0 0
31.2 0 0
31.28 0 0
31.36 0 0
31.44 0 0
31.52 0 0
31.6 0 0
31.68 0 0
31.76 0 0
31.84 0 0
31.92 0 0
0 0.02 0
0.08 0.02 0
0.16 0.02 0
0.24 0.02 0
0.32 0.02 0
0.4 0.02 0
0.48 0.02 0
0.56 0.02 0
0.64 0.02 0
0.72 0.02 0
0.8 0.02 0
0.88 0.02 0
0.96 0.02 0
1.04 0.02 0
1.12 0.02 0
1.2 0.02 0
1.28 0.02 0
1.36 0.02 0
1.44 0.02 0
1.52 0.02 0
1.6 0.02 0
1.68 0.02 0
1.76 0.02 0
1.84 0.02 0
1.92 0.02 0
2 0.02 0
2.08 0.02 0
2.16 0.02 0
2.24 0.02 0
2.32 0.02 0
2.4 0.02 0
2.48 0.02 0
2.56 0.02 0
2.64 0.02 0
2.72 0.02 0
2.8 0.02 0
2.88 0.02 0
2.96 0.02 0
3.04 0.02 0
3.12 0.02 0
3.2 0.02 0
3.28 0.02 0
3.36 0.02 0
3.44 0.02 0
3.52 0.02 0
3.6 0.02 0
3.68 0.02 0
3.76 0.02 0
3.84 0.02 0
3.92 0.02 0
4 0.02 0
4.08 0.02 0
4.16 0.02 0
4.24 0.02 0
4.32 0.02 0
4.4 0.02 0
4.48 0.02 0
4.56 0.02 0
4.64 0.02 0
4.72 0.02 0
4.8 0.02 0
4.88 0.02 0
4.96 0.02 0
5.04 0.02 0
5.12 0.02 0
5.2 0.02 0
5.28 0.02 0
5.36 0.02 0
5.44 0.02 0
5.52 0.02 0
5.6 0.02 0
5.68 0.02 0
5.76 0.02 0
5.84 0.02 0
5.92 0.02 0
6 0.02 0
6.08 0.02 0
6.16 0.02 0
6.24 0.02 0
6.32 0.02 0
6.4 0.02 0
6.48 0.02 0
6.56 0.02 0
6.64 0.02 0
6.72 0.02 0
6.8 0.02 0
6.88 0.02 0
6.96 0.02 0
7.04 0.02 0
7.12 0.02 0
7.2 0.02 0
7.28 0.02 0
7.36 0.02 0
7.44 0.02 0
7.52 0.02 0
7.6 0.02 0
7.68 0.02 0
7.76 0.02 0
7.84 0.02 0
7.92 0.02 0
8 0.02 0
8.08 0.02 0
8.16 0.02 0
8.24 0.02 0
8.32 0.02 0
8.4 0.02 0
8.48 0.02 0
8.56 0.02 0
8.64 0.02 0
8.72 0.02 0
8.8 0.02 0
8.88 0.02 0
8.96 0.02 0
9.04 0.02 0
9.12 0.02 0
9.2 0.02 0
9.28 0.02 0
9.36 0.02 0
9.44 0.02 0
9.52 0.02 0
9.6 0.02 0
9.68 0.02 0
9.76 0.02 0
9.84 0.02 0
9.92 0.02 0
10 0.02 0
10.08 0.02 0
10.16 0.02 0
10.24 0.02 0
10.32 0.02 0
10.4 0.02 0
10.48 0.02 0
10.56 0.02 0
10.64 0.02 0
10.72 0.02 0
10.8 0.02 0
10.88 0.02 0
10.96 0.02 0
11.04 0.02 0
11.12 0.02 0
11.2 0.02 0
11.28 0.02 0
11.36 0.02 0
11.44 0.02 0
11.52 0.02 0
11.6 0.02 0
11.68 0.02 0
11.76 0.02 0
11.84 0.02 0
11.92 0.02 0
12 0.02 0
12.08 0.02 0
12.16 0.02 0
12.24 0.02 0
12.32 0.02 0
12.4 0.02 0
12.48 0.02 0
12.56 0.02 0
12.64 0.02 0
12.72 0.02 0
12.8 0.02 0
12.88 0.02 0
12.96 0.02 0
13.04 0.02 0
13.12 0.02 0
13.2 0.02 0
13.28 0.02 0
13.36 0.02 0
13.44 0.02 0
13.52 0.02 0
13.6 0.02 0
13.68 0.02 0
13.76 0.02 0
13.84 0.02 0
13.92 0.02 0
14 0.02 0
14.08 0.02 0
14.16 0.02 0
14.24 0.02 0
14.32 0.02 0
14.4 0.02 0
14.48 0.02 0
14.56 0.02 0
14.64 0.02 0
14.72 0.02 0
14.8 0.02 0
14.88 0.02 0
14.96 0.02 0
15.04 0.02 0
15.12 0.02 0
15.2 0.02 0
15.28 0.02 0
15.36 0.02 0
15.44 0.02 0
15.52 0.02 0
15.6 0.02 0
15.68 0.02 0
15.76 0.02 0
15.84 0.02 0
15.92 0.02 0
16 0.02 0
16.08 0.02 0
16.16 0.02 0
16.24 0.02 0
16.32 0.02 0
16.4 0.02 0
16.48 0.02 0
16.56 0.02 0
16.64 0.02 0
16.72 0.02 0
16.8 0.02 0
16.88 0.02 0
16.96 0.02 0
17.04 0.02 0
17.12 0.02 0
17.2 0.02 0
17.28 0.02 0
17.36 0.02 0
17.44 0.02 0
17.52 0.02 0
17.6 0.02 0
17.68 0.02 0
17.76 0.02 0
17.84 0.02 0
17.92 0.02 0
18 0.02 0
18.08 0.02 0
18.16 0.02 0
18.24 0.02 0
18.32 0.02 0
18.4 0.02 0
18.48 0.02 0
18.56 0.02 0
18.64 0.02 0
18.72 0.02 0
18.8 0.02 0
18.88 0.02 0
18.96 0.02 0
19.04 0.02 0
19.12 0.02 0
19.2 0.02 0
19.28 0.02 0
19.36 0.02 0
19.44 0.02 0
19.52 0.02 0
19.6 0.02 0
19.68 0.02 0
19.76 0.02 0
19.84 0.02 0
19.92 0.02 0
20 0.02 0
20.08 0.02 0
20.16 0.02 0
20.24 0.02 0
20.32 0.02 0
20.4 0.02 0
20.48 0.02 0
20.56 0.02 0
20.64 0.02 0
20.72 0.02 0
20.8 0.02 0
20.88 0.02 0
20.96 0.02 0
21.04 0.02 0
21.12 0.02 0
21.2 0.02 0
21.28 0.02 0
21.36 0.02 0
21.44 0.02 0
21.52 0.02 0
21.6 0.02 0
21.68 0.02 0
21.76 0.02 0
21.84 0.02 0
21.92 0.02 0
22 0.02 0
22.08 0.02 0
22.16 0.02 0
22.24 0.02 0
22.32 0.02 0
22.4 0.02 0
22.48 0.02 0
22.56 0.02 0
22.64 0.02 0
22.72 0.02 0
22.8 0.02 0
22.88 0.02 0
22.96 0.02 0
23.04 0.02 0
23.12 0.02 0
23.2 0.02 0
23.28 0.02 0
23.36 0.02 0
23.44 0.02 0
23.52 0.02 0
23.6 0.02 0
23.68 0.02 0
23.76 0.02 0
23.84 0.02 0
23.92 0.02 0
24 0.02 0
24.08 0.02 0
24.16 0.02 0
24.24 0.02 0
24.32 0.02 0
24.4 0.02 0
24.48 0.02 0
24.56 0.02 0
24.64 0.02 0
24.72 0.02 0
24.8 0.02 0
24.88 0.02 0
24.96 0.02 0
25.04 0.02 0
25.12 0.02 0
25.2 0.02 0
25.28 0.02 0
25.36 0.02 0
25.44 0.02 0
25.52 0.02 0
25.6 0.02 0
25.68 0.02 0
25.76 0.02 0
25.84 0.02 0
25.92 0.02 0
26 0.02 0
26.08 0.02 0
26.16 0.02 0
26.24 0.02 0
26.32 0.02 0
26.4 0.02 0
26.48 0.02 0
26.56 0.02 0
26.64 0.02 0
26.72 0.02 0
26.8 0.02 0
26.88 0.02 0
26.96 0.02 0
27.04 0.02 0
27.12 0.02 0
27.2 0.02 0
27.28 0.02 0
27.36 0.02 0
27.44 0.02 0
27.52 0.02 0
27.6 0.02 0
27.68 0.02 0
27.76 0.02 0
27.84 0.02 0
27.92 0.02 0
28 0.02 0
28.08 0.02 0
28.16 0.02 0
28.24 0.02 0
28.32 0.02 0
28.4 0.02 0
28.48 0.02 0
28.56 0.02 0
28.64 0.02 0
28.72 0.02 0
28.8 0.02 0
28.88 0.02 0
28.96 0.02 0
29.04 0.02 0
29.12 0.02 0
29.2 0.02 0
29.28 0.02 0
29.36 0.02 0
29.44 0.02 0
29.52 0.02 0
29.6 0.02 0
29.68 0.02 0
29.76 0.02 0
29.84 0.02 0
29.92 0.02 0
30 0.02 0
30.08 0.02 0
30.16 0.02 0
30.24 0.02 0
30.32 0.02 0
30.4 0.02 0
30.48 0.02 0
30.56 0.02 0
30.64 0.02 0
30.72 0.02 0
30.8 0.02 0
30.88 0.02 0
30.96 0.02 0
31.04 0.02 0
31.12 0.02 0
31.2 0.02 0
31.28 0.02 0
31.36 0.02 0
31.44 0.02 0
31.52 0.02 0
31.6 0.02 0
31.68 0.02 0
31.76 0.02 0
31.84 0.02 0
31.92 0.02 0
0 0.04 0
0.08 0.04 0
0.16 0.04 0
0.24 0.04 0
0.32 0.04 0
0.4 0.04 0
0.48 0.04 0
0.56 0.04 0
0.64 0.04 0
0.72 0.04 0
0.8 0.04 0
0.88 0.04 0
0.96 0.04 0
1.04 0.04 0
1.12 0.04 0
1.2 0.04 0
1.28 0.04 0
1.36 0.04 0
1.44 0.04 0
1.52 0.04 0
1.6 0.04 0
1.68 0.04 0
1.76 0.04 0
1.84 0.04 0
1.92 0.04 0
2 0.04 0
2.08 0.04 0
2.16 0.04 0
2.24 0.04 0
2.32 0.04 0
2.4 0.04 0
2.48 0.04 0
2.56 0.04 0
2.64 0.04 0
2.72 0.04 0
2.8 0.04 0
2.88 0.04 0
2.96 0.04 0
3.04 0.04 0
3.12 0.04 0
3.2 0.04 0
3.28 0.04 0
3.36 0.04 0
3.44 0.04 0
3.52 0.04 0
3.6 0.04 0
3.68 0.04 0
3.76 0.04 0
3.84 0.04 0
3.92 0.04 0
4 0.04 0
4.08 0.04 0
4.16 0.04 0
4.24 0.04 0
4.32 0.04 0
4.4 0.04 0
4.48 0.04 0
4.56 0.04 0
4.64 0.04 0
4.72 0.04 0
4.8 0.04 0
4.88 0.04 0
4.96 0.04 0
5.04 0.04 0
5.12 0.04 0
5.2 0.04 0
5.28 0.04 0
5.36 0.04 0
5.44 0.04 0
5.52 0.04 0
5.6 0.04 0
5.68 0.04 0
5.76 0.04 0
5.84 0.04 0
5.92 0.04 0
6 0.04 0
6.08 0.04 0
6.16 0.04 0
6.24 0.04 0
6.32 0.04 0
6.4 0.04 0
6.48 0.04 0
6.56 0.04 0
6.64 0.04 0
6.72 0.04 0
6.8 0.04 0
6.88 0.04 0
6.96 0.04 0
7.04 0.04 0
7.12 0.04 0
7.2 0.04 0
7.28 0.04 0
7.36 0.04 0
7.44 0.04 0
7.52 0.04 0
7.6 0.04 0
7.68 0.04 0
7.76 0.04 0
7.84 0.04 0
[...]
POINT_DATA 20000

SCALARS v float 1
LOOKUP_TABLE default
0
0
0
0
0
0
0
0
0
0
0
0
0
0
0
0
0
0
0
0
0
0
0
0
0
0
0
0
0
0
0
0
0
0
0
0
0
0
0
0
0
0
0
0
0
0
0
0
0
0
0
0
0
0
0
0
0
0
0
0
0
0
0
0
0
0
0
0
0
0
0
0
0
0
0
0
0
0
0
0
0
0
0
0
0
0
0
0
0
0
0
0
0
0
0
0
0
0
0
0
0
0
0
0
0
0
0
0
0
0
0
0
0
0
0
0
0
0
0
0
0
0
0
0
0
0
0
0
0
0
0
0
0
0
0
0
0
0
0
0
0
0
0
0
0
0
0
0
0
0
0
0
0
0
0
0
0
0
0
0
0
0
0
0
0
0
0
0
0
0
0
0
0
0
0
0
0
0
0
0
0
0
0
0
0
0
0
0
0
0
0
0
0
0
0
0
0
0
0
0
0
0
0
0
0
0
0
0
0
0
0
0
0
0
0
0
0
0
0
0
0
0
0
0
0
0
0
0
0
0
0
0
0
0
0
0
0
0
0
0
0
0
0
0
0
0
0
0
0
0
0
0
0
0
0
0
0
0
0
0
0
0
0
0
0
0
0
0
0
0
0
0
0
0
0
0
0
0
0
0
0
0
0
0
0
0
0
0
0
0
0
0
0
0
0
0
0
0
0
0
0
0
0
0
0
0
0
0
0
0
0
0
0
0
0
0
0
0
0
0
0
0
0
0
0
0
0
0
0
0
0
0
0
0
0
0
0
0
0
0
0
0
0
0
0
0
0
0
0
0
0
0
0
0
0
0
0
0
0
0
0
0
0
0
0
0
0
0
0
0
0
0
0
0
0
0
0
0
0
0
0
0
0
0
0
0
0
0
0
0
0
0
0
0
0
0
0
0
0
0
-0.123224
0.123224
0.0537884
0.0194354
0.00877944
0.00508597
0.00338397
0.00243349
0.00184365
0.00145241
0.00118014
0.000983329
0.000836456
0.000723755
0.000635111
0.000563839
0.00050541
0.000456687
0.000415456
0.000380118
0.000349499
0.000322721
0.000299113
0.000278156
0.00025944
0.000242637
0.00022748
0.000213751
0.000201268
0.000189878
0.000179452
0.000169881
0.000161069
0.000152937
0.000145413
0.000138437
0.000131955
0.00012592
0.00012029
0.000115029
0.000110103
0.000105484
0.000101145
9.70642e-05
9.322e-05
8.9594e-05
8.61691e-05
8.29299e-05
7.98623e-05
7.69535e-05
7.4192e-05
7.15677e-05
6.90712e-05
6.66943e-05
6.44292e-05
6.22687e-05
6.0206e-05
5.82346e-05
5.63487e-05
5.45427e-05
5.28119e-05
5.11521e-05
4.95594e-05
4.80305e-05
4.65618e-05
4.51499e-05
4.37914e-05
4.24827e-05
4.12208e-05
4.00028e-05
3.88268e-05
3.76911e-05
3.65943e-05
3.5535e-05
3.45118e-05
3.35229e-05
3.25663e-05
3.16399e-05
3.07419e-05
2.98709e-05
2.90259e-05
2.82066e-05
2.74127e-05
2.66437e-05
2.58986e-05
2.51756e-05
2.44729e-05
2.37885e-05
2.31214e-05
2.24713e-05
2.18383e-05
2.12227e-05
2.06248e-05
2.00445e-05
1.94813e-05
1.89346e-05
1.84026e-05
1.78837e-05
1.73762e-05
1.68797e-05
1.63951e-05
1.5924e-05
1.5468e-05
1.50268e-05
1.45987e-05
1.41806e-05
1.37703e-05
1.33669e-05
1.2971e-05
1.25841e-05
1.2207e-05
1.18403e-05
1.14838e-05
1.11377e-05
1.08022e-05
1.04765e-05
1.01586e-05
9.84586e-06
9.53602e-06
9.22929e-06
8.92855e-06
8.63789e-06
8.36001e-06
8.09416e-06
7.83623e-06
7.58094e-06
7.32484e-06
7.06799e-06
6.81354e-06
6.56547e-06
6.32637e-06
6.09653e-06
5.87467e-06
5.65923e-06
5.44911e-06
5.24332e-06
5.04036e-06
4.83828e-06
4.6359e-06
4.43435e-06
4.23738e-06
4.04976e-06
3.87437e-06
3.7098e-06
3.55036e-06
3.38884e-06
3.22046e-06
3.04558e-06
2.86946e-06
2.69913e-06
2.53951e-06
2.39101e-06
2.24995e-06
2.11105e-06
1.97012e-06
1.8253e-06
1.67664e-06
1.52487e-06
1.37092e-06
1.21647e-06
1.06464e-06
9.19459e-07
7.83749e-07
6.56292e-07
5.30642e-07
3.97139e-07
2.47791e-07
8.14825e-08
-9.38838e-08
-2.64287e-07
-4.16595e-07
-5.45994e-07
-6.5947e-07
-7.7292e-07
-9.03043e-07
-1.05829e-06
-1.2339e-06
-1.41389e-06
-1.57913e-06
-1.71711e-06
-1.82835e-06
-1.92583e-06
-2.02819e-06
-2.15007e-06
-2.29497e-06
-2.45388e-06
-2.61032e-06
-2.74868e-06
-2.86162e-06
-2.95298e-06
-3.03499e-06
-3.12178e-06
-3.22255e-06
-3.33775e-06
-3.45971e-06
-3.57695e-06
-3.67986e-06
-3.7647e-06
-3.83464e-06
-3.89742e-06
-3.96134e-06
-4.03155e-06
-4.10822e-06
-4.18718e-06
-4.26232e-06
-4.32854e-06
-4.38371e-06
-4.42917e-06
-4.46863e-06
-4.50624e-06
-4.54487e-06
-4.58512e-06
-4.62554e-06
-4.6636e-06
-4.69695e-06
-4.72441e-06
-4.74632e-06
-4.76423e-06
-4.78015e-06
-4.79575e-06
-4.81185e-06
-4.82824e-06
-4.84399e-06
-4.85791e-06
-4.86906e-06
-4.87707e-06
-4.88219e-06
-4.88516e-06
-4.88691e-06
-4.88827e-06
-4.88978e-06
-4.89157e-06
-4.89351e-06
-4.89526e-06
-4.89648e-06
-4.89695e-06
-4.89661e-06
-4.89557e-06
-4.89405e-06
-4.89232e-06
-4.89058e-06
-4.88899e-06
-4.88761e-06
-4.8864e-06
-4.8853e-06
-4.88423e-06
-4.88311e-06
-4.88191e-06
-4.88061e-06
-4.87923e-06
-4.87782e-06
-4.87639e-06
-4.875e-06
-4.87365e-06
-4.87236e-06
-4.87111e-06
-4.8699e-06
-4.86872e-06
-4.86754e-06
-4.86638e-06
-4.86521e-06
-4.86405e-06
-4.8629e-06
-4.86176e-06
-4.86063e-06
-4.85952e-06
-4.85843e-06
-4.85737e-06
-4.85632e-06
-4.85529e-06
-4.85428e-06
-4.85329e-06
-4.85232e-06
-4.85136e-06
-4.85042e-06
-4.84949e-06
-4.84859e-06
-4.8477e-06
-4.84682e-06
-4.84597e-06
-4.84514e-06
-4.84432e-06
-4.84352e-06
-4.84274e-06
-4.84198e-06
-4.84124e-06
-4.84052e-06
-4.83982e-06
-4.83914e-06
-4.83848e-06
-4.83783e-06
-4.83721e-06
-4.83661e-06
-4.83602e-06
-4.83546e-06
-4.83491e-06
-4.83439e-06
-4.83389e-06
-4.8334e-06
-4.83294e-06
-4.8325e-06
-4.83208e-06
-4.83168e-06
-4.8313e-06
-4.83094e-06
-4.8306e-06
-4.83028e-06
-4.82999e-06
-4.82971e-06
-4.82946e-06
-4.82923e-06
-4.82902e-06
-4.82883e-06
-4.82867e-06
-4.82852e-06
-4.8284e-06
-4.8283e-06
-4.82823e-06
-4.82817e-06
-4.82814e-06
-4.82812e-06
-4.82814e-06
-4.82816e-06
-4.82823e-06
-4.82829e-06
-4.82841e-06
-4.82852e-06
-4.82868e-06
-4.82883e-06
-4.82905e-06
-4.82923e-06
-4.82951e-06
-4.82973e-06
-4.83006e-06
-4.83031e-06
-4.8307e-06
-4.83099e-06
-4.83144e-06
-4.83176e-06
-4.83228e-06
-4.83262e-06
-4.83322e-06
-4.83356e-06
-4.83426e-06
-4.8346e-06
-4.8354e-06
-4.83573e-06
-4.83665e-06
-4.83695e-06
-4.83801e-06
-4.83826e-06
-4.83948e-06
-4.83965e-06
-4.84108e-06
-4.84112e-06
-4.84281e-06
-4.84267e-06
-4.84469e-06
-4.8443e-06
-4.84673e-06
-4.846e-06
-4.84895e-06
-4.84776e-06
-4.85139e-06
-4.84958e-06
-4.85407e-06
-4.85145e-06
-4.85705e-06
-4.85335e-06
-4.86038e-06
-4.85526e-06
-4.86417e-06
-4.85718e-06
-4.86852e-06
-4.85906e-06
-4.87359e-06
-4.86087e-06
-4.87957e-06
-4.86258e-06
-4.88669e-06
-4.86416e-06
-4.89521e-06
-4.86565e-06
-4.90536e-06
-4.86715e-06
-4.91717e-06
-4.86893e-06
-4.93015e-06
-4.87148e-06
-4.94247e-06
-4.8754e-06
-4.94877e-06
-4.88095e-06
-4.93182e-06
-4.88724e-06
-4.8193e-06
-4.88891e-06
-3.99646e-06
-4.3822e-06
-4.3822e-06
-0.14215
0.14215
0.101001
0.0539089
0.0302523
0.018914
0.0129233
0.00940862
0.00717563
0.00567267
0.00461613
0.00384709
0.00327056
0.00282702
0.00247782
0.00219713
0.00196729
0.00177597
0.00161441
0.00147625
0.0013568
0.00125256
0.00116083
0.00107954
0.00100706
0.00094207
0.000883518
0.000830535
0.000782401
0.000738517
0.000698374
0.000661542
0.000627653
0.00059639
0.00056748
0.000540684
0.000515794
0.000492627
0.000471021
0.000450834
0.000431939
0.000414223
0.000397587
0.000381942
0.000367207
0.000353309
0.000340185
0.000327773
0.000316021
0.000304878
0.000294303
0.000284254
0.000274697
0.000265599
0.00025693
0.000248661
0.000240767
0.000233223
0.000226006
0.000219097
0.000212476
0.000206127
0.000200036
0.000194189
0.000188572
0.000183171
0.000177974
0.000172968
0.000168142
0.000163486
0.000158991
0.000154652
0.000150463
0.000146417
0.000142508
0.00013873
0.000135074
0.000131534
0.000128103
0.000124776
0.000121551
0.000118424
0.000115394
0.000112458
0.000109611
0.000106847
0.00010416
0.000101545
9.89974e-05
9.65174e-05
9.41047e-05
9.17596e-05
8.94819e-05
8.72704e-05
8.51228e-05
8.30356e-05
8.10035e-05
7.90213e-05
7.70849e-05
7.51938e-05
7.33508e-05
7.15602e-05
6.98243e-05
6.8141e-05
6.65033e-05
6.4903e-05
6.33341e-05
6.17952e-05
6.02888e-05
5.88186e-05
5.7387e-05
5.59944e-05
5.46403e-05
5.33243e-05
5.20456e-05
5.08009e-05
4.95837e-05
4.83866e-05
4.72052e-05
4.60421e-05
4.49065e-05
4.38085e-05
4.2753e-05
4.17344e-05
4.07395e-05
3.97544e-05
3.87717e-05
3.77946e-05
3.6833e-05
3.58978e-05
3.49944e-05
3.41221e-05
3.32762e-05
3.24517e-05
3.16452e-05
3.08534e-05
3.00719e-05
2.92961e-05
2.85248e-05
2.77633e-05
2.70229e-05
2.63153e-05
2.56447e-05
2.50029e-05
2.43721e-05
2.37331e-05
2.30767e-05
2.24082e-05
2.17445e-05
2.11046e-05
2.04985e-05
1.99234e-05
1.93663e-05
1.88118e-05
1.82493e-05
1.76751e-05
1.70905e-05
1.64986e-05
1.59034e-05
1.53107e-05
1.47297e-05
1.41699e-05
1.36352e-05
1.31173e-05
1.2595e-05
1.20427e-05
1.1444e-05
1.08044e-05
1.01522e-05
9.52708e-06
8.95935e-06
8.45215e-06
7.97715e-06
7.48762e-06
6.94287e-06
6.33083e-06
5.67613e-06
5.02866e-06
4.43838e-06
3.92984e-06
3.4899e-06
3.07513e-06
2.63459e-06
2.13584e-06
1.5806e-06
1.00271e-06
4.50179e-07
-3.86967e-08
-4.52931e-07
-8.11967e-07
-1.15394e-06
-1.51605e-06
-1.91711e-06
-2.35048e-06
-2.78955e-06
-3.20188e-06
-3.5645e-06
-3.87308e-06
-4.14156e-06
-4.39366e-06
-4.65112e-06
-4.92445e-06
-5.20984e-06
-5.4929e-06
-5.75636e-06
-5.98793e-06
-6.18479e-06
-6.35347e-06
-6.50565e-06
-6.65268e-06
-6.80101e-06
-6.95053e-06
-7.09589e-06
-7.22975e-06
-7.34635e-06
-7.44381e-06
-7.5245e-06
-7.59366e-06
-7.6571e-06
-7.71906e-06
-7.78097e-06
-7.84154e-06
-7.89777e-06
-7.94642e-06
-7.98537e-06
-8.01426e-06
-8.03451e-06
-8.04868e-06
-8.05958e-06
-8.06948e-06
-8.07963e-06
-8.09021e-06
-8.10057e-06
-8.10975e-06
-8.11686e-06
-8.12142e-06
-8.12349e-06
-8.12356e-06
-8.12237e-06
-8.12071e-06
-8.11917e-06
-8.11812e-06
-8.11763e-06
-8.11758e-06
-8.11773e-06
-8.11784e-06
-8.11773e-06
-8.11729e-06
-8.11655e-06
-8.11558e-06
-8.11449e-06
-8.1134e-06
-8.11238e-06
-8.11149e-06
-8.11072e-06
-8.11006e-06
-8.10946e-06
-8.10889e-06
-8.10832e-06
-8.10773e-06
-8.10712e-06
-8.10649e-06
-8.10584e-06
-8.1052e-06
-8.10458e-06
-8.10398e-06
-8.10341e-06
-8.10287e-06
-8.10235e-06
-8.10186e-06
-8.10139e-06
-8.10093e-06
-8.10049e-06
-8.10006e-06
-8.09964e-06
-8.09924e-06
-8.09885e-06
-8.09848e-06
-8.09813e-06
-8.09779e-06
-8.09747e-06
-8.09717e-06
-8.09689e-06
-8.09663e-06
-8.09639e-06
-8.09616e-06
-8.09595e-06
-8.09577e-06
-8.0956e-06
-8.09544e-06
-8.09531e-06
-8.0952e-06
-8.0951e-06
-8.09502e-06
-8.09497e-06
-8.09493e-06
-8.09491e-06
-8.09491e-06
-8.09493e-06
-8.09497e-06
-8.09503e-06
-8.09511e-06
-8.09521e-06
-8.09533e-06
-8.09546e-06
-8.09562e-06
-8.0958e-06
-8.096e-06
-8.09622e-06
-8.09646e-06
-8.09672e-06
-8.097e-06
-8.0973e-06
-8.09763e-06
-8.09796e-06
-8.09834e-06
-8.09871e-06
-8.09913e-06
-8.09954e-06
-8.1e-06
-8.10045e-06
-8.10097e-06
-8.10144e-06
-8.10201e-06
-8.10252e-06
-8.10315e-06
-8.10369e-06
-8.10437e-06
-8.10493e-06
-8.10568e-06
-8.10626e-06
-8.10708e-06
-8.10768e-06
-8.10857e-06
-8.10917e-06
-8.11015e-06
-8.11075e-06
-8.11184e-06
-8.11241e-06
-8.11362e-06
-8.11415e-06
-8.11551e-06
-8.11597e-06
-8.1175e-06
-8.11786e-06
-8.11962e-06
-8.11983e-06
-8.12186e-06
-8.12187e-06
-8.12424e-06
-8.12397e-06
-8.12678e-06
-8.12613e-06
-8.1295e-06
-8.12834e-06
-8.13244e-06
-8.13059e-06
-8.13564e-06
-8.13287e-06
-8.13914e-06
-8.13516e-06
-8.14302e-06
-8.13745e-06
-8.14737e-06
-8.13972e-06
-8.15232e-06
-8.14194e-06
-8.15802e-06
-8.14408e-06
-8.1647e-06
-8.1461e-06
-8.17264e-06
-8.14792e-06
-8.18225e-06
-8.14949e-06
-8.19403e-06
-8.15071e-06
-8.20863e-06
-8.15151e-06
-8.22686e-06
-8.15184e-06
-8.24961e-06
-8.15183e-06
-8.27767e-06
-8.15188e-06
-8.31131e-06
-8.15288e-06
-8.34915e-06
-8.15623e-06
-8.38571e-06
-8.16326e-06
-8.40446e-06
-8.173e-06
-8.35249e-06
-8.17711e-06
-8.01217e-06
-8.13416e-06
-5.76183e-06
-6.7404e-06
-6.7404e-06
-0.122223
0.122223
0.121659
0.0822637
0.0539905
0.0368596
0.0263886
0.0197117
0.0152608
0.0121753
0.00996348
0.00833164
0.0070966
0.00614014
0.00538374
0.00477402
0.00427397
0.00385743
0.00350563
0.00320486
0.00294497
0.00271828
0.00251893
0.00234238
0.00218503
0.00204402
0.00191703
0.00180216
0.00169783
0.00160273
0.00151576
0.00143597
0.00136257
0.00129487
0.00123226
0.00117424
0.00112035
0.0010702
0.00102342
0.00097972
0.000938815
0.000900465
0.000864453
0.000830586
0.000798689
0.000768606
0.000740195
0.000713328
0.000687889
0.000663772
0.000640883
0.000619137
0.000598454
0.000578766
0.000560006
0.000542113
0.00052503
0.000508705
0.000493089
0.000478139
0.000463813
0.000450078
0.0004369
0.000424249
0.000412095
0.000400409
0.000389164
0.000378332
0.000367891
0.000357819
0.0003481
0.000338719
0.000329662
0.000320915
0.000312464
0.000304294
0.000296389
0.000288735
0.000281318
0.000274127
0.000267157
0.000260401
0.000253853
0.000247507
0.000241351
0.000235375
0.000229565
0.000223911
0.000218408
0.000213053
0.000207846
0.000202786
0.000197872
0.000193099
0.000188463
0.000183955
0.000179565
0.000175284
0.000171106
0.000167028
0.000163057
0.000159198
0.000155455
0.00015182
0.000148281
0.000144823
0.000141435
0.000138117
0.000134874
0.000131711
0.000128631
0.000125636
0.000122722
0.000119888
0.000117132
0.000114446
0.000111818
0.000109236
0.000106693
0.000104197
0.000101762
9.94062e-05
9.71336e-05
9.49322e-05
9.27773e-05
9.06453e-05
8.85263e-05
8.64281e-05
8.43695e-05
8.23684e-05
8.04327e-05
7.85588e-05
7.67372e-05
7.49588e-05
7.32171e-05
7.1506e-05
6.98181e-05
6.81464e-05
6.64905e-05
6.48614e-05
6.32788e-05
6.1761e-05
6.03113e-05
5.89119e-05
5.75297e-05
5.61335e-05
5.47107e-05
5.32749e-05
5.18573e-05
5.04892e-05
4.91843e-05
4.79334e-05
4.67111e-05
4.54901e-05
4.42529e-05
4.29951e-05
4.17204e-05
4.04355e-05
3.9148e-05
3.78691e-05
3.6614e-05
3.53972e-05
3.42213e-05
3.30675e-05
3.18974e-05
3.06686e-05
2.93592e-05
2.79865e-05
2.6605e-05
2.5283e-05
2.40663e-05
2.29502e-05
2.1878e-05
2.07676e-05
1.95556e-05
1.82326e-05
1.68522e-05
1.55049e-05
1.42731e-05
1.31887e-05
1.22177e-05
1.12787e-05
1.02855e-05
9.191e-06
8.00977e-06
6.80857e-06
5.67172e-06
4.65962e-06
3.78158e-06
2.99542e-06
2.23166e-06
1.42876e-06
5.61427e-07
-3.50905e-07
-1.25722e-06
-2.10137e-06
-2.8479e-06
-3.4955e-06
-4.07342e-06
-4.62457e-06
-5.18485e-06
-5.76829e-06
-6.36402e-06
-6.94446e-06
-7.47973e-06
-7.95084e-06
-8.35627e-06
-8.71019e-06
-9.03427e-06
-9.34777e-06
-9.66035e-06
-9.96997e-06
-1.02662e-05
-1.05362e-05
-1.07709e-05
-1.09688e-05
-1.11354e-05
-1.12808e-05
-1.14151e-05
-1.15453e-05
-1.1673e-05
-1.17953e-05
-1.19067e-05
-1.20018e-05
-1.20775e-05
-1.21341e-05
-1.2175e-05
-1.2205e-05
-1.22293e-05
-1.22517e-05
-1.22742e-05
-1.22969e-05
-1.23184e-05
-1.2337e-05
-1.23513e-05
-1.23606e-05
-1.23654e-05
-1.23667e-05
-1.23659e-05
-1.23644e-05
-1.23633e-05
-1.23631e-05
-1.2364e-05
-1.23655e-05
-1.23672e-05
-1.23688e-05
-1.23698e-05
-1.23703e-05
-1.23701e-05
-1.23696e-05
-1.23689e-05
-1.23682e-05
-1.23677e-05
-1.23674e-05
-1.23673e-05
-1.23674e-05
-1.23675e-05
-1.23677e-05
-1.23679e-05
-1.2368e-05
-1.2368e-05
-1.2368e-05
-1.2368e-05
-1.2368e-05
-1.23679e-05
-1.2368e-05
-1.2368e-05
-1.23681e-05
-1.23682e-05
-1.23684e-05
-1.23685e-05
-1.23687e-05
-1.23689e-05
-1.23691e-05
-1.23693e-05
-1.23695e-05
-1.23697e-05
-1.237e-05
-1.23702e-05
-1.23705e-05
-1.23707e-05
-1.2371e-05
-1.23714e-05
-1.23717e-05
-1.2372e-05
-1.23724e-05
-1.23728e-05
-1.23732e-05
-1.23736e-05
-1.2374e-05
-1.23745e-05
-1.23749e-05
-1.23754e-05
-1.23759e-05
-1.23764e-05
-1.23769e-05
-1.23775e-05
-1.2378e-05
-1.23786e-05
-1.23792e-05
-1.23798e-05
-1.23804e-05
-1.23811e-05
-1.23817e-05
-1.23824e-05
-1.23831e-05
-1.23838e-05
-1.23845e-05
-1.23853e-05
-1.2386e-05
-1.23868e-05
-1.23876e-05
-1.23884e-05
-1.23893e-05
-1.23901e-05
-1.2391e-05
-1.23919e-05
-1.23928e-05
-1.23937e-05
-1.23947e-05
-1.23956e-05
-1.23966e-05
-1.23975e-05
-1.23986e-05
-1.23995e-05
-1.24007e-05
-1.24016e-05
-1.24028e-05
-1.24038e-05
-1.24051e-05
-1.2406e-05
-1.24074e-05
-1.24083e-05
-1.24098e-05
-1.24107e-05
-1.24123e-05
-1.24131e-05
-1.24149e-05
-1.24156e-05
-1.24175e-05
-1.24181e-05
-1.24203e-05
-1.24207e-05
-1.24232e-05
-1.24234e-05
-1.24262e-05
-1.2426e-05
-1.24294e-05
-1.24288e-05
-1.24328e-05
-1.24315e-05
-1.24363e-05
-1.24343e-05
-1.24402e-05
-1.2437e-05
-1.24443e-05
-1.24398e-05
-1.24489e-05
-1.24425e-05
-1.24539e-05
-1.24451e-05
-1.24596e-05
-1.24476e-05
-1.24662e-05
-1.245e-05
-1.24738e-05
-1.24522e-05
-1.24829e-05
-1.24541e-05
-1.24938e-05
-1.24558e-05
-1.25071e-05
-1.24569e-05
-1.25236e-05
-1.24575e-05
-1.25445e-05
-1.24574e-05
-1.25709e-05
-1.24564e-05
-1.26045e-05
-1.24545e-05
-1.26471e-05
-1.24519e-05
-1.27003e-05
-1.24496e-05
-1.2765e-05
-1.2449e-05
-1.2839e-05
-1.24525e-05
-1.29129e-05
-1.24614e-05
-1.29574e-05
-1.24709e-05
-1.28778e-05
-1.24569e-05
-1.22913e-05
-1.23059e-05
-8.71677e-06
-9.76925e-06
-9.76925e-06
-0.0942759
0.0942759
0.121012
0.0969655
0.0717895
0.053194
0.0401968
0.0311072
0.0246534
0.0199808
0.0165276
0.0139234
0.0119204
0.0103507
0.00909819
0.008082
0.00724459
0.00654462
0.00595198
0.00544442
0.00500525
0.00462185
0.00428445
0.00398547
0.00371889
0.00347988
0.00326456
0.00306972
0.0028927
0.00273129
0.00258364
0.00244814
0.00232346
0.00220842
0.00210202
0.00200338
0.00191175
0.00182644
0.00174686
0.0016725
0.00160289
0.00153761
0.0014763
0.00141863
0.00136431
0.00131306
0.00126466
0.00121888
0.00117553
0.00113443
0.00109542
0.00105835
0.0010231
0.000989532
0.000957547
0.000927039
0.000897909
0.00087007
0.000843438
0.000817939
0.000793506
0.000770079
0.0007476
0.000726018
0.000705282
0.000685344
0.000666155
0.000647673
0.000629858
0.000612676
0.000596096
0.000580094
0.000564645
0.000549725
0.000535309
0.000521371
0.000507885
0.000494826
0.000482174
0.00046991
0.000458022
0.000446499
0.000435331
0.000424504
0.000414002
0.000403803
0.00039389
0.000384246
0.000374863
0.000365736
0.000356862
0.000348241
0.000339867
0.000331733
0.00032383
0.000316145
0.000308662
0.000301366
0.000294248
0.000287305
0.000280545
0.000273976
0.000267599
0.000261403
0.000255369
0.000249473
0.000243701
0.000238054
0.000232538
0.000227161
0.000221928
0.000216836
0.000211883
0.000207063
0.000202373
0.0001978
0.000193326
0.000188934
0.000184615
0.00018038
0.000176252
0.000172253
0.000168388
0.000164636
0.00016096
0.000157328
0.000153726
0.000150169
0.000146684
0.000143297
0.000140018
0.000136838
0.000133742
0.000130717
0.000127752
0.00012484
0.000121969
0.00011913
0.000116324
0.000113568
0.000110889
0.000108313
0.00010584
0.000103442
0.00010107
9.86797e-05
9.62566e-05
9.38236e-05
9.14273e-05
8.91111e-05
8.68914e-05
8.47502e-05
8.26479e-05
8.05447e-05
7.84165e-05
7.62588e-05
7.40788e-05
7.18872e-05
6.96954e-05
6.75191e-05
6.53793e-05
6.32948e-05
6.12661e-05
5.92634e-05
5.72303e-05
5.51081e-05
5.2871e-05
5.05498e-05
4.82277e-05
4.60019e-05
4.39326e-05
4.20051e-05
4.01313e-05
3.81928e-05
3.61044e-05
3.38631e-05
3.15552e-05
2.93151e-05
2.72573e-05
2.54186e-05
2.374e-05
2.20992e-05
2.03744e-05
1.85061e-05
1.65256e-05
1.45365e-05
1.26612e-05
1.09809e-05
9.50033e-06
8.15074e-06
6.82907e-06
5.44953e-06
3.98253e-06
2.46352e-06
9.70488e-07
-4.15784e-07
-1.64842e-06
-2.73144e-06
-3.71173e-06
-4.65276e-06
-5.60443e-06
-6.58298e-06
-7.56858e-06
-8.51911e-06
-9.39166e-06
-1.01612e-05
-1.0829e-05
-1.14183e-05
-1.19617e-05
-1.24868e-05
-1.30059e-05
-1.35145e-05
-1.39965e-05
-1.44333e-05
-1.48133e-05
-1.51354e-05
-1.54094e-05
-1.56507e-05
-1.5874e-05
-1.60888e-05
-1.62968e-05
-1.64931e-05
-1.66696e-05
-1.68189e-05
-1.69375e-05
-1.70266e-05
-1.70918e-05
-1.71411e-05
-1.71818e-05
-1.72196e-05
-1.72571e-05
-1.72939e-05
-1.73281e-05
-1.73571e-05
-1.7379e-05
-1.73934e-05
-1.74008e-05
-1.74031e-05
-1.74026e-05
-1.74013e-05
-1.74008e-05
-1.74016e-05
-1.74039e-05
-1.74071e-05
-1.74105e-05
-1.74135e-05
-1.74157e-05
-1.74169e-05
-1.74173e-05
-1.74171e-05
-1.74167e-05
-1.74164e-05
-1.74163e-05
-1.74165e-05
-1.74171e-05
-1.74178e-05
-1.74187e-05
-1.74196e-05
-1.74205e-05
-1.74212e-05
-1.74218e-05
-1.74224e-05
-1.74229e-05
-1.74234e-05
-1.74239e-05
-1.74245e-05
-1.74251e-05
-1.74257e-05
-1.74264e-05
-1.74271e-05
-1.74279e-05
-1.74286e-05
-1.74294e-05
-1.74301e-05
-1.74309e-05
-1.74316e-05
-1.74324e-05
-1.74331e-05
-1.74339e-05
-1.74347e-05
-1.74355e-05
-1.74363e-05
-1.74372e-05
-1.7438e-05
-1.74389e-05
-1.74398e-05
-1.74407e-05
-1.74416e-05
-1.74425e-05
-1.74434e-05
-1.74444e-05
-1.74453e-05
-1.74463e-05
-1.74473e-05
-1.74482e-05
-1.74493e-05
-1.74503e-05
-1.74513e-05
-1.74523e-05
-1.74534e-05
-1.74545e-05
-1.74556e-05
-1.74567e-05
-1.74578e-05
-1.74589e-05
-1.74601e-05
-1.74612e-05
-1.74624e-05
-1.74636e-05
-1.74648e-05
-1.7466e-05
-1.74672e-05
-1.74684e-05
-1.74697e-05
-1.74709e-05
-1.74723e-05
-1.74735e-05
-1.74749e-05
-1.74761e-05
-1.74775e-05
-1.74788e-05
-1.74803e-05
-1.74815e-05
-1.7483e-05
-1.74843e-05
-1.74859e-05
-1.74871e-05
-1.74888e-05
-1.749e-05
-1.74917e-05
-1.74929e-05
-1.74948e-05
-1.74959e-05
-1.74979e-05
-1.74989e-05
-1.75011e-05
-1.75019e-05
-1.75043e-05
-1.7505e-05
-1.75077e-05
-1.75081e-05
-1.75112e-05
-1.75112e-05
-1.75148e-05
-1.75144e-05
-1.75185e-05
-1.75175e-05
-1.75224e-05
-1.75207e-05
-1.75266e-05
-1.75238e-05
-1.7531e-05
-1.75269e-05
-1.75358e-05
-1.75299e-05
-1.7541e-05