# vtk DataFile Version 2.0
FlowField
ASCII
DATASET STRUCTURED_GRID
DIMENSIONS 400 1 50
POINTS 20000 float
0 0 0
0.08 0 0
0.16 0 0
0.24 0 0
0.32 0 0
0.4 0 0
0.48 0 0
0.56 0 0
0.64 0 0
0.72 0 0
0.8 0 0
0.88 0 0
0.96 0 0
1.04 0 0
1.12 0 0
1.2 0 0
1.28 0 0
1.36 0 0
1.44 0 0
1.52 0 0
1.6 0 0
1.68 0 0
1.76 0 0
1.84 0 0
1.92 0 0
2 0 0
2.08 0 0
2.16 0 0
2.24 0 0
2.32 0 0
2.4 0 0
2.48 0 0
2.56 0 0
2.64 0 0
2.72 0 0
2.8 0 0
2.88 0 0
2.96 0 0
3.04 0 0
3.12 0 0
3.2 0 0
3.28 0 0
3.36 0 0
3.44 0 0
3.52 0 0
3.6 0 0
3.68 0 0
3.76 0 0
3.84 0 0
3.92 0 0
4 0 0
4.08 0 0
4.16 0 0
4.24 0 0
4.32 0 0
4.4 0 0
4.48 0 0
4.56 0 0
4.64 0 0
4.72 0 0
4.8 0 0
4.88 0 0
4.96 0 0
5.04 0 0
5.12 0 0
5.2 0 0
5.28 0 0
5.36 0 0
5.44 0 0
5.52 0 0
5.6 0 0
5.68 0 0
5.76 0 0
5.84 0 0
5.92 0 0
6 0 0
6.08 0 0
6.16 0 0
6.24 0 0
6.32 0 0
6.4 0 0
6.48 0 0
6.56 0 0
6.64 0 0
6.72 0 0
6.8 0 0
6.88 0 0
6.96 0 0
7.04 0 0
7.12 0 0
7.2 0 0
7.28 0 0
7.36 0 0
7.44 0 0
7.52 0 0
7.6 0 0
7.68 0 0
7.76 0 0
7.84 0 0
7.92 0 0
8 0 0
8.08 0 0
8.16 0 0
8.24 0 0
8.32 0 0
8.4 0 0
8.48 0 0
8.56 0 0
8.64 0 0
8.72 0 0
8.8 0 0
8.88 0 0
8.96 0 0
9.04 0 0
9.12 0 0
9.2 0 0
9.28 0 0
9.36 0 0
9.44 0 0
9.52 0 0
9.6 0 0
9.68 0 0
9.76 0 0
9.84 0 0
9.92 0 0
10 0 0
10.08 0 0
10.16 0 0
10.24 0 0
10.32 0 0
10.4 0 0
10.48 0 0
10.56 0 0
10.64 0 0
10.72 0 0
10.8 0 0
10.88 0 0
10.96 0 0
11.04 0 0
11.12 0 0
11.2 0 0
11.28 0 0
11.36 0 0
11.44 0 0
11.52 0 0
11.6 0 0
11.68 0 0
11.76 0 0
11.84 0 0
11.92 0 0
12 0 0
12.08 0 0
12.16 0 0
12.24 0 0
12.32 0 0
12.4 0 0
12.48 0 0
12.56 0 0
12.64 0 0
12.72 0 0
12.8 0 0
12.88 0 0
12.96 0 0
13.04 0 0
13.12 0 0
13.2 0 0
13.28 0 0
13.36 0 0
13.44 0 0
13.52 0 0
13.6 0 0
13.68 0 0
13.76 0 0
13.84 0 0
13.92 0 0
14 0 0
14.08 0 0
14.16 0 0
14.24 0 0
14.32 0 0
14.4 0 0
14.48 0 0
14.56 0 0
14.64 0 0
14.72 0 0
14.8 0 0
14.88 0 0
14.96 0 0
15.04 0 0
15.12 0 0
15.2 0 0
15.28 0 0
15.36 0 0
15.44 0 0
15.52 0 0
15.6 0 0
15.68 0 0
15.76 0 0
15.84 0 0
15.92 0 0
16 0 0
16.08 0 0
16.16 0 0
16.24 0 0
16.32 0 0
16.4 0 0
16.48 0 0
16.56 0 0
16.64 0 0
16.72 0 0
16.8 0 0
16.88 0 0
16.96 0 0
17.04 0 0
17.12 0 0
17.2 0 0
17.28 0 0
17.36 0 0
17.44 0 0
17.52 0 0
17.6 0 0
17.68 0 0
17.76 0 0
17.84 0 0
17.92 0 0
18 0 0
18.08 0 0
18.16 0 0
18.24 0 0
18.32 0 0
18.4 0 0
18.48 0 0
18.56 0 0
18.64 0 0
18.72 0 0
18.8 0 0
18.88 0 0
18.96 0 0
19.04 0 0
19.12 0 0
19.2 0 0
19.28 0 0
19.36 0 0
19.44 0 0
19.52 0 0
19.6 0 0
19.68 0 0
19.76 0 0
19.84 0 0
19.92 0 0
20 0 0
20.08 0 0
20.16 0 0
20.24 0 0
20.32 0 0
20.4 0 0
20.48 0 0
20.56 0 0
20.64 0 0
20.72 0 0
20.8 0 0
20.88 0 0
20.96 0 0
21.04 0 0
21.12 0 0
21.2 0 0
21.28 0 0
21.36 0 0
21.44 0 0
21.52 0 0
21.6 0 0
21.68 0 0
21.76 0 0
21.84 0 0
21.92 0 0
22 0 0
22.08 0 0
22.16 0 0
22.24 0 0
22.32 0 0
22.4 0 0
22.48 0 0
22.56 0 0
22.64 0 0
22.72 0 0
22.8 0 0
22.88 0 0
22.96 0 0
23.04 0 0
23.12 0 0
23.2 0 0
23.28 0 0
23.36 0 0
23.44 0 0
23.52 0 0
23.6 0 0
23.68 0 0
23.76 0 0
23.84 0 0
23.92 0 0
24 0 0
24.08 0 0
24.16 0 0
24.24 0 0
24.32 0 0
24.4 0 0
24.48 0 0
24.56 0 0
24.64 0 0
24.72 0 0
24.8 0 0
24.88 0 0
24.96 0 0
25.04 0 0
25.12 0 0
25.2 0 0
25.28 0 0
25.36 0 0
25.44 0 0
25.52 0 0
25.6 0 0
25.68 0 0
25.76 0 0
25.84 0 0
25.92 0 0
26 0 0
26.08 0 0
26.16 0 0
26.24 0 0
26.32 0 0
26.4 0 0
26.48 0 0
26.56 0 0
26.64 0 0
26.72 0 0
26.8 0 0
26.88 0 0
26.96 0 0
27.04 0 0
27.12 0 0
27.2 0 0
27.28 0 0
27.36 0 0
27.44 0 0
27.52 0 0
27.6 0 0
27.68 0 0
27.76 0 0
27.84 0 0
27.92 0 0
28 0 0
28.08 0 0
28.16 0 0
28.24 0 0
28.32 0 0
28.4 0 0
28.48 0 0
28.56 0 0
28.64 0 0
28.72 0 0
28.8 0 0
28.88 0 0
28.96 0 0
29.04 0 0
29.12 0 0
29.2 0 0
29.28 0 0
29.36 0 0
29.44 0 0
29.52 0 0
29.6 0 0
29.68 0 0
29.76 0 0
29.84 0 0
29.92 0 0
30 0 0
30.08 0 0
30.16 0 0
30.24 0 0
30.32 0 0
30.4 0 0
30.48 0 0
30.56 0 0
30.64 0 0
30.72 0 0
30.8 0 0
30.88 0 0
30.96 0 0
31.04 0 0
31.12 0 0
31.2 0 0
31.28 0 0
31.36 0 0
31.44 0 0
31.52 0 0
31.6 0 0
31.68 0 0
31.76 0 0
31.84 0 0
31.92 0 0
0 0.02 0
0.08 0.02 0
0.16 0.02 0
0.24 0.02 0
0.32 0.02 0
0.4 0.02 0
0.48 0.02 0
0.56 0.02 0
0.64 0.02 0
0.72 0.02 0
0.8 0.02 0
0.88 0.02 0
0.96 0.02 0
1.04 0.02 0
1.12 0.02 0
1.2 0.02 0
1.28 0.02 0
1.36 0.02 0
1.44 0.02 0
1.52 0.02 0
1.6 0.02 0
1.68 0.02 0
1.76 0.02 0
1.84 0.02 0
1.92 0.02 0
2 0.02 0
2.08 0.02 0
2.16 0.02 0
2.24 0.02 0
2.32 0.02 0
2.4 0.02 0
2.48 0.02 0
2.56 0.02 0
2.64 0.02 0
2.72 0.02 0
2.8 0.02 0
2.88 0.02 0
2.96 0.02 0
3.04 0.02 0
3.12 0.02 0
3.2 0.02 0
3.28 0.02 0
3.36 0.02 0
3.44 0.02 0
3.52 0.02 0
3.6 0.02 0
3.68 0.02 0
3.76 0.02 0
3.84 0.02 0
3.92 0.02 0
4 0.02 0
4.08 0.02 0
4.16 0.02 0
4.24 0.02 0
4.32 0.02 0
4.4 0.02 0
4.48 0.02 0
4.56 0.02 0
4.64 0.02 0
4.72 0.02 0
4.8 0.02 0
4.88 0.02 0
4.96 0.02 0
5.04 0.02 0
5.12 0.02 0
5.2 0.02 0
5.28 0.02 0
5.36 0.02 0
5.44 0.02 0
5.52 0.02 0
5.6 0.02 0
5.68 0.02 0
5.76 0.02 0
5.84 0.02 0
5.92 0.02 0
6 0.02 0
6.08 0.02 0
6.16 0.02 0
6.24 0.02 0
6.32 0.02 0
6.4 0.02 0
6.48 0.02 0
6.56 0.02 0
6.64 0.02 0
6.72 0.02 0
6.8 0.02 0
6.88 0.02 0
6.96 0.02 0
7.04 0.02 0
7.12 0.02 0
7.2 0.02 0
7.28 0.02 0
7.36 0.02 0
7.44 0.02 0
7.52 0.02 0
7.6 0.02 0
7.68 0.02 0
7.76 0.02 0
7.84 0.02 0
7.92 0.02 0
8 0.02 0
8.08 0.02 0
8.16 0.02 0
8.24 0.02 0
8.32 0.02 0
8.4 0.02 0
8.48 0.02 0
8.56 0.02 0
8.64 0.02 0
8.72 0.02 0
8.8 0.02 0
8.88 0.02 0
8.96 0.02 0
9.04 0.02 0
9.12 0.02 0
9.2 0.02 0
9.28 0.02 0
9.36 0.02 0
9.44 0.02 0
9.52 0.02 0
9.6 0.02 0
9.68 0.02 0
9.76 0.02 0
9.84 0.02 0
9.92 0.02 0
10 0.02 0
10.08 0.02 0
10.16 0.02 0
10.24 0.02 0
10.32 0.02 0
10.4 0.02 0
10.48 0.02 0
10.56 0.02 0
10.64 0.02 0
10.72 0.02 0
10.8 0.02 0
10.88 0.02 0
10.96 0.02 0
11.04 0.02 0
11.12 0.02 0
11.2 0.02 0
11.28 0.02 0
11.36 0.02 0
11.44 0.02 0
11.52 0.02 0
11.6 0.02 0
11.68 0.02 0
11.76 0.02 0
11.84 0.02 0
11.92 0.02 0
12 0.02 0
12.08 0.02 0
12.16 0.02 0
12.24 0.02 0
12.32 0.02 0
12.4 0.02 0
12.48 0.02 0
12.56 0.02 0
12.64 0.02 0
12.72 0.02 0
12.8 0.02 0
12.88 0.02 0
12.96 0.02 0
13.04 0.02 0
13.12 0.02 0
13.2 0.02 0
13.28 0.02 0
13.36 0.02 0
13.44 0.02 0
13.52 0.02 0
13.6 0.02 0
13.68 0.02 0
13.76 0.02 0
13.84 0.02 0
13.92 0.02 0
14 0.02 0
14.08 0.02 0
14.16 0.02 0
14.24 0.02 0
14.32 0.02 0
14.4 0.02 0
14.48 0.02 0
14.56 0.02 0
14.64 0.02 0
14.72 0.02 0
14.8 0.02 0
14.88 0.02 0
14.96 0.02 0
15.04 0.02 0
15.12 0.02 0
15.2 0.02 0
15.28 0.02 0
15.36 0.02 0
15.44 0.02 0
15.52 0.02 0
15.6 0.02 0
15.68 0.02 0
15.76 0.02 0
15.84 0.02 0
15.92 0.02 0
16 0.02 0
16.08 0.02 0
16.16 0.02 0
16.24 0.02 0
16.32 0.02 0
16.4 0.02 0
16.48 0.02 0
16.56 0.02 0
16.64 0.02 0
16.72 0.02 0
16.8 0.02 0
16.88 0.02 0
16.96 0.02 0
17.04 0.02 0
17.12 0.02 0
17.2 0.02 0
17.28 0.02 0
17.36 0.02 0
17.44 0.02 0
17.52 0.02 0
17.6 0.02 0
17.68 0.02 0
17.76 0.02 0
17.84 0.02 0
17.92 0.02 0
18 0.02 0
18.08 0.02 0
18.16 0.02 0
18.24 0.02 0
18.32 0.02 0
18.4 0.02 0
18.48 0.02 0
18.56 0.02 0
18.64 0.02 0
18.72 0.02 0
18.8 0.02 0
18.88 0.02 0
18.96 0.02 0
19.04 0.02 0
19.12 0.02 0
19.2 0.02 0
19.28 0.02 0
19.36 0.02 0
19.44 0.02 0
19.52 0.02 0
19.6 0.02 0
19.68 0.02 0
19.76 0.02 0
19.84 0.02 0
19.92 0.02 0
20 0.02 0
20.08 0.02 0
20.16 0.02 0
20.24 0.02 0
20.32 0.02 0
20.4 0.02 0
20.48 0.02 0
20.56 0.02 0
20.64 0.02 0
20.72 0.02 0
20.8 0.02 0
20.88 0.02 0
20.96 0.02 0
21.04 0.02 0
21.12 0.02 0
21.2 0.02 0
21.28 0.02 0
21.36 0.02 0
21.44 0.02 0
21.52 0.02 0
21.6 0.02 0
21.68 0.02 0
21.76 0.02 0
21.84 0.02 0
21.92 0.02 0
22 0.02 0
22.08 0.02 0
22.16 0.02 0
22.24 0.02 0
22.32 0.02 0
22.4 0.02 0
22.48 0.02 0
22.56 0.02 0
22.64 0.02 0
22.72 0.02 0
22.8 0.02 0
22.88 0.02 0
22.96 0.02 0
23.04 0.02 0
23.12 0.02 0
23.2 0.02 0
23.28 0.02 0
23.36 0.02 0
23.44 0.02 0
23.52 0.02 0
23.6 0.02 0
23.68 0.02 0
23.76 0.02 0
23.84 0.02 0
23.92 0.02 0
24 0.02 0
24.08 0.02 0
24.16 0.02 0
24.24 0.02 0
24.32 0.02 0
24.4 0.02 0
24.48 0.02 0
24.56 0.02 0
24.64 0.02 0
24.72 0.02 0
24.8 0.02 0
24.88 0.02 0
24.96 0.02 0
25.04 0.02 0
25.12 0.02 0
25.2 0.02 0
25.28 0.02 0
25.36 0.02 0
25.44 0.02 0
25.52 0.02 0
25.6 0.02 0
25.68 0.02 0
25.76 0.02 0
25.84 0.02 0
25.92 0.02 0
26 0.02 0
26.08 0.02 0
26.16 0.02 0
26.24 0.02 0
26.32 0.02 0
26.4 0.02 0
26.48 0.02 0
26.56 0.02 0
26.64 0.02 0
26.72 0.02 0
26.8 0.02 0
26.88 0.02 0
26.96 0.02 0
27.04 0.02 0
27.12 0.02 0
27.2 0.02 0
27.28 0.02 0
27.36 0.02 0
27.44 0.02 0
27.52 0.02 0
27.6 0.02 0
27.68 0.02 0
27.76 0.02 0
27.84 0.02 0
27.92 0.02 0
28 0.02 0
28.08 0.02 0
28.16 0.02 0
28.24 0.02 0
28.32 0.02 0
28.4 0.02 0
28.48 0.02 0
28.56 0.02 0
28.64 0.02 0
28.72 0.02 0
28.8 0.02 0
28.88 0.02 0
28.96 0.02 0
29.04 0.02 0
29.12 0.02 0
29.2 0.02 0
29.28 0.02 0
29.36 0.02 0
29.44 0.02 0
29.52 0.02 0
29.6 0.02 0
29.68 0.02 0
29.76 0.02 0
29.84 0.02 0
29.92 0.02 0
30 0.02 0
30.08 0.02 0
30.16 0.02 0
30.24 0.02 0
30.32 0.02 0
30.4 0.02 0
30.48 0.02 0
30.56 0.02 0
30.64 0.02 0
30.72 0.02 0
30.8 0.02 0
30.88 0.02 0
30.96 0.02 0
31.04 0.02 0
31.12 0.02 0
31.2 0.02 0
31.28 0.02 0
31.36 0.02 0
31.44 0.02 0
31.52 0.02 0
31.6 0.02 0
31.68 0.02 0
31.76 0.02 0
31.84 0.02 0
31.92 0.02 0
0 0.04 0
0.08 0.04 0
0.16 0.04 0
0.24 0.04 0
0.32 0.04 0
0.4 0.04 0
0.48 0.04 0
0.56 0.04 0
0.64 0.04 0
0.72 0.04 0
0.8 0.04 0
0.88 0.04 0
0.96 0.04 0
1.04 0.04 0
1.12 0.04 0
1.2 0.04 0
1.28 0.04 0
1.36 0.04 0
1.44 0.04 0
1.52 0.04 0
1.6 0.04 0
1.68 0.04 0
1.76 0.04 0
1.84 0.04 0
1.92 0.04 0
2 0.04 0
2.08 0.04 0
2.16 0.04 0
2.24 0.04 0
2.32 0.04 0
2.4 0.04 0
2.48 0.04 0
2.56 0.04 0
2.64 0.04 0
2.72 0.04 0
2.8 0.04 0
2.88 0.04 0
2.96 0.04 0
3.04 0.04 0
3.12 0.04 0
3.2 0.04 0
3.28 0.04 0
3.36 0.04 0
3.44 0.04 0
3.52 0.04 0
3.6 0.04 0
3.68 0.04 0
3.76 0.04 0
3.84 0.04 0
3.92 0.04 0
4 0.04 0
4.08 0.04 0
4.16 0.04 0
4.24 0.04 0
4.32 0.04 0
4.4 0.04 0
4.48 0.04 0
4.56 0.04 0
4.64 0.04 0
4.72 0.04 0
4.8 0.04 0
4.88 0.04 0
4.96 0.04 0
5.04 0.04 0
5.12 0.04 0
5.2 0.04 0
5.28 0.04 0
5.36 0.04 0
5.44 0.04 0
5.52 0.04 0
5.6 0.04 0
5.68 0.04 0
5.76 0.04 0
5.84 0.04 0
5.92 0.04 0
6 0.04 0
6.08 0.04 0
6.16 0.04 0
6.24 0.04 0
6.32 0.04 0
6.4 0.04 0
6.48 0.04 0
6.56 0.04 0
6.64 0.04 0
6.72 0.04 0
6.8 0.04 0
6.88 0.04 0
6.96 0.04 0
7.04 0.04 0
7.12 0.04 0
7.2 0.04 0
7.28 0.04 0
7.36 0.04 0
7.44 0.04 0
7.52 0.04 0
7.6 0.04 0
7.68 0.04 0
7.76 0.04 0
7.84 0.04 0
[...]
POINT_DATA 20000

SCALARS u float 1
LOOKUP_TABLE default
0
-0.507089
-0.291919
-0.214161
-0.179026
-0.158664
-0.145111
-0.13536
-0.127967
-0.12214
-0.117402
-0.113451
-0.110087
-0.107174
-0.104616
-0.102342
-0.100303
-0.0984582
-0.0967784
-0.0952399
-0.0938239
-0.0925149
-0.0913004
-0.0901697
-0.0891139
-0.0881252
-0.0871971
-0.086324
-0.0855007
-0.0847231
-0.083987
-0.0832893
-0.0826268
-0.0819968
-0.0813969
-0.0808248
-0.0802787
-0.0797567
-0.0792572
-0.0787787
-0.0783199
-0.0778796
-0.0774566
-0.0770499
-0.0766586
-0.0762818
-0.0759186
-0.0755684
-0.0752305
-0.0749041
-0.0745888
-0.074284
-0.0739891
-0.0737038
-0.0734274
-0.0731597
-0.0729002
-0.0726486
-0.0724045
-0.0721676
-0.0719377
-0.0717143
-0.0714973
-0.0712864
-0.0710813
-0.0708819
-0.0706879
-0.0704991
-0.0703154
-0.0701365
-0.0699623
-0.0697926
-0.0696273
-0.0694661
-0.0693091
-0.069156
-0.0690067
-0.0688612
-0.0687191
-0.0685806
-0.0684454
-0.0683135
-0.0681848
-0.0680591
-0.0679364
-0.0678167
-0.0676997
-0.0675855
-0.0674739
-0.0673649
-0.0672585
-0.0671545
-0.0670529
-0.0669536
-0.0668566
-0.0667618
-0.0666691
-0.0665786
-0.0664901
-0.0664036
-0.066319
-0.0662363
-0.0661555
-0.0660765
-0.0659992
-0.0659237
-0.0658498
-0.0657776
-0.065707
-0.065638
-0.0655705
-0.0655044
-0.0654399
-0.0653767
-0.065315
-0.0652546
-0.0651955
-0.0651377
-0.0650812
-0.0650259
-0.0649719
-0.064919
-0.0648673
-0.0648167
-0.0647673
-0.0647189
-0.0646715
-0.0646252
-0.0645799
-0.0645356
-0.0644923
-0.0644499
-0.0644084
-0.0643678
-0.0643281
-0.0642893
-0.0642513
-0.0642141
-0.0641777
-0.0641421
-0.0641073
-0.0640733
-0.06404
-0.0640073
-0.0639754
-0.0639442
-0.0639137
-0.0638838
-0.0638546
-0.063826
-0.063798
-0.0637706
-0.0637437
-0.0637175
-0.0636918
-0.0636667
-0.0636421
-0.0636181
-0.0635945
-0.0635715
-0.063549
-0.0635269
-0.0635053
-0.0634842
-0.0634635
-0.0634433
-0.0634235
-0.0634042
-0.0633852
-0.0633667
-0.0633485
-0.0633307
-0.0633134
-0.0632964
-0.0632797
-0.0632634
-0.0632475
-0.0632319
-0.0632166
-0.0632017
-0.0631871
-0.0631728
-0.0631588
-0.0631451
-0.0631317
-0.0631186
-0.0631057
-0.0630932
-0.0630809
-0.0630688
-0.0630571
-0.0630455
-0.0630343
-0.0630232
-0.0630124
-0.0630018
-0.0629915
-0.0629813
-0.0629714
-0.0629617
-0.0629522
-0.0629429
-0.0629338
-0.062925
-0.0629163
-0.0629077
-0.0628994
-0.0628913
-0.0628833
-0.0628755
-0.0628679
-0.0628605
-0.0628533
-0.0628462
-0.0628393
-0.0628326
-0.062826
-0.0628196
-0.0628134
-0.0628073
-0.0628015
-0.0627957
-0.0627902
-0.0627848
-0.0627795
-0.0627744
-0.0627695
-0.0627648
-0.0627602
-0.0627557
-0.0627515
-0.0627473
-0.0627434
-0.0627396
-0.0627359
-0.0627324
-0.062729
-0.0627258
-0.0627228
-0.0627199
-0.0627172
-0.0627146
-0.0627121
-0.0627097
-0.0627075
-0.0627055
-0.0627036
-0.0627018
-0.0627002
-0.0626986
-0.0626972
-0.0626959
-0.0626947
-0.0626936
-0.0626926
-0.0626918
-0.062691
-0.0626904
-0.0626898
-0.0626893
-0.0626889
-0.0626885
-0.0626883
-0.0626881
-0.062688
-0.0626879
-0.062688
-0.0626881
-0.0626882
-0.0626884
-0.0626886
-0.0626889
-0.0626892
-0.0626896
-0.06269
-0.0626905
-0.0626909
-0.0626915
-0.062692
-0.0626925
-0.0626931
-0.0626937
-0.0626943
-0.0626949
-0.0626956
-0.0626963
-0.0626969
-0.0626976
-0.0626983
-0.062699
-0.0626997
-0.0627004
-0.0627012
-0.0627019
-0.0627026
-0.0627033
-0.0627041
-0.0627048
-0.0627056
-0.0627063
-0.062707
-0.0627078
-0.0627085
-0.0627093
-0.06271
-0.0627108
-0.0627115
-0.0627123
-0.062713
-0.0627138
-0.0627145
-0.0627153
-0.062716
-0.0627168
-0.0627175
-0.0627183
-0.062719
-0.0627198
-0.0627205
-0.0627213
-0.062722
-0.0627228
-0.0627235
-0.0627242
-0.062725
-0.0627257
-0.0627265
-0.0627272
-0.062728
-0.0627287
-0.0627295
-0.0627302
-0.062731
-0.0627317
-0.0627325
-0.0627332
-0.062734
-0.0627347
-0.0627354
-0.0627362
-0.0627369
-0.0627377
-0.0627384
-0.0627392
-0.0627399
-0.0627407
-0.0627414
-0.0627422
-0.0627429
-0.0627436
-0.0627444
-0.0627451
-0.0627459
-0.0627466
-0.0627474
-0.0627481
-0.0627489
-0.0627496
-0.0627504
-0.0627511
-0.0627518
-0.0627526
-0.0627533
-0.0627541
-0.0627548
-0.0627556
-0.0627563
-0.0627571
-0.0627578
-0.0627586
-0.0627593
-0.0627601
-0.0627608
-0.0627616
-0.0627623
-0.0627631
-0.0627638
-0.0627646
-0.0627653
-0.0627661
-0.0627668
-0.0627676
-0.0627683
-0.0627691
-0.0627699
-0.0627707
-0.0627714
-0.0627722
-0.062773
-0.0627738
-0.0627746
-0.0627754
-0.0627762
-0.062777
-0.0627778
-0.0627784
-0.0627793
-0.0627788
-0.0627788
-0.0627788
1
0.507089
0.291919
0.214161
0.179026
0.158664
0.145111
0.13536
0.127967
0.12214
0.117402
0.113451
0.110087
0.107174
0.104616
0.102342
0.100303
0.0984582
0.0967784
0.0952399
0.0938239
0.0925149
0.0913004
0.0901697
0.0891139
0.0881252
0.0871971
0.086324
0.0855007
0.0847231
0.083987
0.0832893
0.0826268
0.0819968
0.0813969
0.0808248
0.0802787
0.0797567
0.0792572
0.0787787
0.0783199
0.0778796
0.0774566
0.0770499
0.0766586
0.0762818
0.0759186
0.0755684
0.0752305
0.0749041
0.0745888
0.074284
0.0739891
0.0737038
0.0734274
0.0731597
0.0729002
0.0726486
0.0724045
0.0721676
0.0719377
0.0717143
0.0714973
0.0712864
0.0710813
0.0708819
0.0706879
0.0704991
0.0703154
0.0701365
0.0699623
0.0697926
0.0696273
0.0694661
0.0693091
0.069156
0.0690067
0.0688612
0.0687191
0.0685806
0.0684454
0.0683135
0.0681848
0.0680591
0.0679364
0.0678167
0.0676997
0.0675855
0.0674739
0.0673649
0.0672585
0.0671545
0.0670529
0.0669536
0.0668566
0.0667618
0.0666691
0.0665786
0.0664901
0.0664036
0.066319
0.0662363
0.0661555
0.0660765
0.0659992
0.0659237
0.0658498
0.0657776
0.065707
0.065638
0.0655705
0.0655044
0.0654399
0.0653767
0.065315
0.0652546
0.0651955
0.0651377
0.0650812
0.0650259
0.0649719
0.064919
0.0648673
0.0648167
0.0647673
0.0647189
0.0646715
0.0646252
0.0645799
0.0645356
0.0644923
0.0644499
0.0644084
0.0643678
0.0643281
0.0642893
0.0642513
0.0642141
0.0641777
0.0641421
0.0641073
0.0640733
0.06404
0.0640073
0.0639754
0.0639442
0.0639137
0.0638838
0.0638546
0.063826
0.063798
0.0637706
0.0637437
0.0637175
0.0636918
0.0636667
0.0636421
0.0636181
0.0635945
0.0635715
0.063549
0.0635269
0.0635053
0.0634842
0.0634635
0.0634433
0.0634235
0.0634042
0.0633852
0.0633667
0.0633485
0.0633307
0.0633134
0.0632964
0.0632797
0.0632634
0.0632475
0.0632319
0.0632166
0.0632017
0.0631871
0.0631728
0.0631588
0.0631451
0.0631317
0.0631186
0.0631057
0.0630932
0.0630809
0.0630688
0.0630571
0.0630455
0.0630343
0.0630232
0.0630124
0.0630018
0.0629915
0.0629813
0.0629714
0.0629617
0.0629522
0.0629429
0.0629338
0.062925
0.0629163
0.0629077
0.0628994
0.0628913
0.0628833
0.0628755
0.0628679
0.0628605
0.0628533
0.0628462
0.0628393
0.0628326
0.062826
0.0628196
0.0628134
0.0628073
0.0628015
0.0627957
0.0627902
0.0627848
0.0627795
0.0627744
0.0627695
0.0627648
0.0627602
0.0627557
0.0627515
0.0627473
0.0627434
0.0627396
0.0627359
0.0627324
0.062729
0.0627258
0.0627228
0.0627199
0.0627172
0.0627146
0.0627121
0.0627097
0.0627075
0.0627055
0.0627036
0.0627018
0.0627002
0.0626986
0.0626972
0.0626959
0.0626947
0.0626936
0.0626926
0.0626918
0.062691
0.0626904
0.0626898
0.0626893
0.0626889
0.0626885
0.0626883
0.0626881
0.062688
0.0626879
0.062688
0.0626881
0.0626882
0.0626884
0.0626886
0.0626889
0.0626892
0.0626896
0.06269
0.0626905
0.0626909
0.0626915
0.062692
0.0626925
0.0626931
0.0626937
0.0626943
0.0626949
0.0626956
0.0626963
0.0626969
0.0626976
0.0626983
0.062699
0.0626997
0.0627004
0.0627012
0.0627019
0.0627026
0.0627033
0.0627041
0.0627048
0.0627056
0.0627063
0.062707
0.0627078
0.0627085
0.0627093
0.06271
0.0627108
0.0627115
0.0627123
0.062713
0.0627138
0.0627145
0.0627153
0.062716
0.0627168
0.0627175
0.0627183
0.062719
0.0627198
0.0627205
0.0627213
0.062722
0.0627228
0.0627235
0.0627242
0.062725
0.0627257
0.0627265
0.0627272
0.062728
0.0627287
0.0627295
0.0627302
0.062731
0.0627317
0.0627325
0.0627332
0.062734
0.0627347
0.0627354
0.0627362
0.0627369
0.0627377
0.0627384
0.0627392
0.0627399
0.0627407
0.0627414
0.0627422
0.0627429
0.0627436
0.0627444
0.0627451
0.0627459
0.0627466
0.0627474
0.0627481
0.0627489
0.0627496
0.0627504
0.0627511
0.0627518
0.0627526
0.0627533
0.0627541
0.0627548
0.0627556
0.0627563
0.0627571
0.0627578
0.0627586
0.0627593
0.0627601
0.0627608
0.0627616
0.0627623
0.0627631
0.0627638
0.0627646
0.0627653
0.0627661
0.0627668
0.0627676
0.0627683
0.0627691
0.0627699
0.0627707
0.0627714
0.0627722
0.062773
0.0627738
0.0627746
0.0627754
0.0627762
0.062777
0.0627778
0.0627784
0.0627793
0.0627788
0.0627788
0.0627788
1
0.924296
0.735446
0.597549
0.511656
0.456341
0.418181
0.390278
0.368947
0.352063
0.338315
0.326857
0.317117
0.3087
0.301325
0.294789
0.288937
0.283656
0.278856
0.274468
0.270434
0.266711
0.26326
0.26005
0.257055
0.254253
0.251625
0.249153
0.246824
0.244625
0.242544
0.240573
0.238702
0.236923
0.23523
0.233616
0.232076
0.230604
0.229196
0.227848
0.226555
0.225315
0.224124
0.222979
0.221878
0.220817
0.219796
0.218811
0.21786
0.216943
0.216057
0.2152
0.214372
0.21357
0.212794
0.212042
0.211314
0.210608
0.209923
0.209258
0.208613
0.207987
0.207378
0.206787
0.206212
0.205653
0.20511
0.204581
0.204066
0.203565
0.203077
0.202602
0.202139
0.201689
0.201249
0.200821
0.200403
0.199996
0.199599
0.199212
0.198834
0.198465
0.198105
0.197754
0.197411
0.197077
0.19675
0.196431
0.19612
0.195816
0.195518
0.195228
0.194945
0.194668
0.194397
0.194133
0.193874
0.193622
0.193375
0.193134
0.192898
0.192668
0.192442
0.192222
0.192007
0.191797
0.191591
0.19139
0.191193
0.191001
0.190813
0.190629
0.190449
0.190274
0.190102
0.189934
0.189769
0.189609
0.189452
0.189298
0.189148
0.189001
0.188857
0.188716
0.188579
0.188444
0.188313
0.188184
0.188058
0.187935
0.187814
0.187697
0.187581
0.187469
0.187358
0.187251
0.187145
0.187042
0.186941
0.186842
0.186746
0.186651
0.186559
0.186468
0.18638
0.186293
0.186208
0.186125
0.186044
0.185965
0.185887
0.185811
0.185737
0.185664
0.185593
0.185523
0.185455
0.185388
0.185323
0.185259
0.185196
0.185135
0.185075
0.185017
0.18496
0.184904
0.184849
0.184795
0.184742
0.184691
0.184641
0.184591
0.184543
0.184496
0.18445
0.184405
0.184361
0.184317
0.184275
0.184234
0.184193
0.184154
0.184115
0.184077
0.18404
0.184003
0.183968
0.183933
0.183899
0.183866
0.183833
0.183801
0.18377
0.183739
0.183709
0.18368
0.183651
0.183623
0.183596
0.183569
0.183543
0.183517
0.183492
0.183467
0.183443
0.183419
0.183396
0.183374
0.183352
0.18333
0.18331
0.183289
0.183269
0.18325
0.183231
0.183212
0.183194
0.183177
0.18316
0.183143
0.183127
0.183111
0.183096
0.183081
0.183067
0.183053
0.18304
0.183027
0.183015
0.183003
0.182991
0.18298
0.18297
0.182959
0.18295
0.18294
0.182931
0.182923
0.182915
0.182907
0.1829
0.182893
0.182887
0.182881
0.182875
0.18287
0.182865
0.18286
0.182856
0.182852
0.182849
0.182846
0.182843
0.18284
0.182838
0.182836
0.182834
0.182832
0.182831
0.18283
0.182829
0.182828
0.182828
0.182828
0.182828
0.182828
0.182828
0.182829
0.182829
0.18283
0.182831
0.182832
0.182833
0.182834
0.182836
0.182837
0.182838
0.18284
0.182841
0.182843
0.182845
0.182847
0.182848
0.18285
0.182852
0.182854
0.182856
0.182858
0.18286
0.182862
0.182864
0.182866
0.182868
0.18287
0.182872
0.182874
0.182877
0.182879
0.182881
0.182883
0.182885
0.182887
0.182889
0.182891
0.182893
0.182896
0.182898
0.1829
0.182902
0.182904
0.182906
0.182908
0.182911
0.182913
0.182915
0.182917
0.182919
0.182921
0.182923
0.182925
0.182928
0.18293
0.182932
0.182934
0.182936
0.182938
0.18294
0.182942
0.182945
0.182947
0.182949
0.182951
0.182953
0.182955
0.182957
0.182959
0.182962
0.182964
0.182966
0.182968
0.18297
0.182972
0.182974
0.182976
0.182979
0.182981
0.182983
0.182985
0.182987
0.182989
0.182991
0.182993
0.182995
0.182998
0.183
0.183002
0.183004
0.183006
0.183008
0.18301
0.183012
0.183015
0.183017
0.183019
0.183021
0.183023
0.183025
0.183027
0.183029
0.183032
0.183034
0.183036
0.183038
0.18304
0.183042
0.183044
0.183047
0.183049
0.183051
0.183053
0.183055
0.183057
0.183059
0.183062
0.183064
0.183066
0.183068
0.183071
0.183073
0.183075
0.183077
0.18308
0.183082
0.183084
0.183086
0.183088
0.183091
0.183091
0.183091
0.183091
1
1.07971
0.99707
0.883649
0.788695
0.716911
0.663048
0.621834
0.589492
0.563479
0.542087
0.524147
0.50884
0.495585
0.483958
0.473648
0.464418
0.456089
0.448521
0.441604
0.435248
0.429381
0.423946
0.418891
0.414175
0.409764
0.405626
0.401736
0.39807
0.394609
0.391336
0.388234
0.38529
0.382491
0.379828
0.377289
0.374866
0.372551
0.370337
0.368216
0.366184
0.364234
0.362361
0.360561
0.35883
0.357164
0.355558
0.35401
0.352517
0.351076
0.349684
0.348338
0.347037
0.345778
0.344559
0.343379
0.342236
0.341127
0.340052
0.339009
0.337997
0.337014
0.336059
0.335131
0.33423
0.333353
0.332501
0.331672
0.330865
0.33008
0.329315
0.328571
0.327846
0.327139
0.326451
0.32578
0.325126
0.324488
0.323867
0.32326
0.322669
0.322092
0.321529
0.320979
0.320443
0.319919
0.319408
0.318909
0.318422
0.317947
0.317482
0.317028
0.316585
0.316152
0.315729
0.315316
0.314912
0.314518
0.314132
0.313755
0.313387
0.313027
0.312676
0.312332
0.311996
0.311667
0.311346
0.311032
0.310725
0.310425
0.310132
0.309845
0.309565
0.309291
0.309023
0.308761
0.308505
0.308254
0.308009
0.307769
0.307535
0.307306
0.307082
0.306863
0.306648
0.306439
0.306234
0.306033
0.305837
0.305646
0.305458
0.305275
0.305095
0.30492
0.304748
0.30458
0.304416
0.304255
0.304098
0.303944
0.303794
0.303647
0.303503
0.303362
0.303224
0.30309
0.302958
0.302829
0.302703
0.302579
0.302458
0.30234
0.302225
0.302111
0.302001
0.301892
0.301786
0.301683
0.301581
0.301482
0.301385
0.30129
0.301197
0.301105
0.301016
0.300929
0.300844
0.30076
0.300679
0.300599
0.300521
0.300444
0.300369
0.300296
0.300224
0.300154
0.300086
0.300018
0.299953
0.299888
0.299825
0.299764
0.299704
0.299645
0.299587
0.29953
0.299475
0.299421
0.299368
0.299316
0.299266
0.299216
0.299167
0.29912
0.299073
0.299028
0.298983
0.29894
0.298897
0.298855
0.298814
0.298774
0.298735
0.298697
0.29866
0.298623
0.298587
0.298553
0.298519
0.298485
0.298453
0.298421
0.29839
0.29836
0.298331
0.298302
0.298274
0.298247
0.298221
0.298195
0.298171
0.298146
0.298123
0.298101
0.298079
0.298057
0.298037
0.298017
0.297998
0.29798
0.297962
0.297946
0.297929
0.297914
0.297899
0.297885
0.297871
0.297859
0.297846
0.297835
0.297824
0.297814
0.297804
0.297795
0.297787
0.297779
0.297772
0.297765
0.297759
0.297753
0.297748
0.297743
0.297739
0.297735
0.297732
0.297729
0.297727
0.297725
0.297723
0.297721
0.29772
0.29772
0.297719
0.297719
0.297719
0.29772
0.29772
0.297721
0.297722
0.297724
0.297725
0.297727
0.297729
0.297731
0.297733
0.297735
0.297738
0.29774
0.297743
0.297745
0.297748
0.297751
0.297754
0.297757
0.29776
0.297763
0.297766
0.297769
0.297772
0.297775
0.297778
0.297782
0.297785
0.297788
0.297791
0.297795
0.297798
0.297801
0.297805
0.297808
0.297811
0.297815
0.297818
0.297821
0.297825
0.297828
0.297831
0.297835
0.297838
0.297841
0.297845
0.297848
0.297851
0.297855
0.297858
0.297861
0.297865
0.297868
0.297871
0.297875
0.297878
0.297881
0.297885
0.297888
0.297891
0.297895
0.297898
0.297901
0.297905
0.297908
0.297911
0.297915
0.297918
0.297921
0.297925
0.297928
0.297931
0.297935
0.297938
0.297941
0.297945
0.297948
0.297951
0.297955
0.297958
0.297961
0.297965
0.297968
0.297971
0.297975
0.297978
0.297981
0.297985
0.297988
0.297991
0.297995
0.297998
0.298001
0.298005
0.298008
0.298011
0.298015
0.298018
0.298021
0.298025
0.298028
0.298031
0.298035
0.298038
0.298041
0.298045
0.298048
0.298051
0.298055
0.298058
0.298061
0.298065
0.298068
0.298072
0.298075
0.298078
0.298082
0.298085
0.298089
0.298092
0.298095
0.298099
0.298102
0.298106
0.298109
0.298113
0.298117
0.29812
0.298124
0.298127
0.29813
0.298134
0.298135
0.298135
0.298135
1
1.11179
1.11438
1.05557
0.984374
0.919036
0.863802
0.818219
0.780647
0.749424
0.723165
0.700797
0.681499
0.664655
0.649795
0.636561
0.624676
0.613925
0.604137
0.595177
0.586933
0.579316
0.572251
0.565676
0.559538
0.553791
0.548398
0.543324
0.538541
0.534024
0.529748
0.525696
0.521849
0.51819
0.514707
0.511387
0.508217
0.505187
0.502289
0.499513
0.496853
0.494299
0.491847
0.48949
0.487222
0.485039
0.482936
0.480908
0.478952
0.477063
0.475239
0.473476
0.471771
0.470122
0.468525
0.466979
0.465481
0.464028
0.46262
0.461253
0.459927
0.45864
0.457389
0.456175
0.454994
0.453846
0.45273
0.451644
0.450588
0.449559
0.448559
0.447584
0.446635
0.44571
0.444809
0.443931
0.443076
0.442242
0.441428
0.440635
0.439861
0.439106
0.43837
0.437652
0.43695
0.436266
0.435598
0.434946
0.434309
0.433688
0.433081
0.432488
0.431909
0.431343
0.430791
0.430251
0.429724
0.429208
0.428705
0.428213
0.427733
0.427263
0.426804
0.426355
0.425917
0.425488
0.425069
0.42466
0.42426
0.423868
0.423486
0.423112
0.422746
0.422389
0.42204
0.421698
0.421364
0.421038
0.420718
0.420406
0.420101
0.419802
0.41951
0.419225
0.418946
0.418673
0.418406
0.418145
0.41789
0.41764
0.417396
0.417157
0.416924
0.416695
0.416472
0.416254
0.41604
0.415831
0.415626
0.415426
0.415231
0.41504
0.414852
0.414669
0.41449
0.414315
0.414144
0.413976
0.413812
0.413651
0.413494
0.413341
0.41319
0.413043
0.412899
0.412759
0.412621
0.412486
0.412354
0.412225
0.412099
0.411976
0.411855
0.411736
0.411621
0.411507
0.411397
0.411288
0.411182
0.411078
0.410977
0.410878
0.41078
0.410685
0.410592
0.410501
0.410412
0.410325
0.410239
0.410156
0.410074
0.409994
0.409916
0.409839
0.409764
0.409691
0.409619
0.409549
0.40948
0.409413
0.409347
0.409283
0.40922
0.409158
0.409097
0.409038
0.40898
0.408924
0.408868
0.408814
0.408761
0.408709
0.408659
0.408609
0.408561
0.408513
0.408467
0.408422
0.408378
0.408334
0.408292
0.408251
0.408211
0.408172
0.408134
0.408097
0.408061
0.408026
0.407992
0.407959
0.407927
0.407896
0.407866
0.407837
0.407808
0.407781
0.407755
0.407729
0.407705
0.407681
0.407659
0.407637
0.407616
0.407597
0.407578
0.407559
0.407542
0.407526
0.40751
0.407496
0.407482
0.407469
0.407457
0.407445
0.407435
0.407425
0.407416
0.407407
0.4074
0.407392
0.407386
0.40738
0.407375
0.40737
0.407366
0.407363
0.40736
0.407357
0.407355
0.407353
0.407352
0.407351
0.407351
0.407351
0.407351
0.407352
0.407353
0.407354
0.407356
0.407358
0.40736
0.407362
0.407365
0.407367
0.40737
0.407373
0.407376
0.40738
0.407383
0.407386
0.40739
0.407394
0.407398
0.407401
0.407405
0.407409
0.407413
0.407417
0.407422
0.407426
0.40743
0.407434
0.407438
0.407442
0.407447
0.407451
0.407455
0.40746
0.407464
0.407468
0.407473
0.407477
0.407481
0.407485
0.40749
0.407494
0.407498
0.407503
0.407507
0.407511
0.407516
0.40752
0.407524
0.407529
0.407533
0.407537
0.407542
0.407546
0.40755
0.407555
0.407559
0.407563
0.407568
0.407572
0.407576
0.407581
0.407585
0.407589
0.407594
0.407598
0.407602
0.407607
0.407611
0.407615
0.40762
0.407624
0.407628
0.407633
0.407637
0.407641
0.407646
0.40765
0.407654
0.407659
0.407663
0.407667
0.407672
0.407676
0.40768
0.407685
0.407689
0.407693
0.407698
0.407702
0.407706
0.40771
0.407715
0.407719
0.407723
0.407728
0.407732
0.407736
0.407741
0.407745
0.407749
0.407754
0.407758
0.407762
0.407767
0.407771
0.407775
0.40778
0.407784
0.407788
0.407793
0.407797
0.407801
0.407806
0.40781
0.407815
0.407819
0.407823
0.407828
0.407832
0.407837
0.407841
0.407846
0.40785
0.407855
0.407859
0.407864
0.407869
0.407873
0.407878
0.407882
0.407887
0.407891
0.407894
0.407894
0.407894
1
1.09593
1.14368
1.13403
1.0977
1.05335
1.00942
0.969226
0.933633
0.902509
0.875349
0.851574
0.83064
0.812082
0.795512
0.780615
0.767137
0.754871
0.743648
0.733331
0.723806
0.714978
0.706768
0.69911
0.691946
0.685227
0.67891
0.672959
0.667341
0.662029
0.656995
0.652219
0.647681
0.643362
0.639246
0.635319
0.631569
0.627982
0.624548
0.621258
0.618103
0.615074
0.612163
0.609364
0.606671
0.604077
0.601577
0.599167
0.596841
0.594595
0.592425
0.590327
0.588298
0.586335
0.584435
0.582594
0.58081
0.57908
0.577403
0.575776
0.574196
0.572663
0.571174
0.569726
0.56832
0.566953
0.565623
0.56433
0.563071
0.561847
0.560654
0.559493
0.558363
0.557262
0.556189
0.555143
0.554124
0.553131
0.552162
0.551217
0.550296
0.549398
0.548521
0.547666
0.546831
0.546016
0.545221
0.544445
0.543688
0.542948
0.542226
0.54152
0.540831
0.540159
0.539502
0.53886
0.538233
0.53762
0.537022
0.536437
0.535865
0.535307
0.534762
0.534229
0.533707
0.533198
0.532701
0.532214
0.531739
0.531274
0.53082
0.530376
0.529942
0.529517
0.529103
0.528697