# vtk DataFile Version 2.0
FlowField
ASCII
DATASET STRUCTURED_GRID
DIMENSIONS 400 1 50
POINTS 20000 float
0 0 0
0.08 0 0
0.16 0 0
0.24 0 0
0.32 0 0
0.4 0 0
0.48 0 0
0.56 0 0
0.64 0 0
0.72 0 0
0.8 0 0
0.88 0 0
0.96 0 0
1.04 0 0
1.12 0 0
1.2 0 0
1.28 0 0
1.36 0 0
1.44 0 0
1.52 0 0
1.6 0 0
1.68 0 0
1.76 0 0
1.84 0 0
1.92 0 0
2 0 0
2.08 0 0
2.16 0 0
2.24 0 0
2.32 0 0
2.4 0 0
2.48 0 0
2.56 0 0
2.64 0 0
2.72 0 0
2.8 0 0
2.88 0 0
2.96 0 0
3.04 0 0
3.12 0 0
3.2 0 0
3.28 0 0
3.36 0 0
3.44 0 0
3.52 0 0
3.6 0 0
3.68 0 0
3.76 0 0
3.84 0 0
3.92 0 0
4 0 0
4.08 0 0
4.16 0 0
4.24 0 0
4.32 0 0
4.4 0 0
4.48 0 0
4.56 0 0
4.64 0 0
4.72 0 0
4.8 0 0
4.88 0 0
4.96 0 0
5.04 0 0
5.12 0 0
5.2 0 0
5.28 0 0
5.36 0 0
5.44 0 0
5.52 0 0
5.6 0 0
5.68 0 0
5.76 0 0
5.84 0 0
5.92 0 0
6 0 0
6.08 0 0
6.16 0 0
6.24 0 0
6.32 0 0
6.4 0 0
6.48 0 0
6.56 0 0
6.64 0 0
6.72 0 0
6.8 0 0
6.88 0 0
6.96 0 0
7.04 0 0
7.12 0 0
7.2 0 0
7.28 0 0
7.36 0 0
7.44 0 0
7.52 0 0
7.6 0 0
7.68 0 0
7.76 0 0
7.84 0 0
7.92 0 0
8 0 0
8.08 0 0
8.16 0 0
8.24 0 0
8.32 0 0
8.4 0 0
8.48 0 0
8.56 0 0
8.64 0 0
8.72 0 0
8.8 0 0
8.88 0 0
8.96 0 0
9.04 0 0
9.12 0 0
9.2 0 0
9.28 0 0
9.36 0 0
9.44 0 0
9.52 0 0
9.6 0 0
9.68 0 0
9.76 0 0
9.84 0 0
9.92 0 0
10 0 0
10.08 0 0
10.16 0 0
10.24 0 0
10.32 0 0
10.4 0 0
10.48 0 0
10.56 0 0
10.64 0 0
10.72 0 0
10.8 0 0
10.88 0 0
10.96 0 0
11.04 0 0
11.12 0 0
11.2 0 0
11.28 0 0
11.36 0 0
11.44 0 0
11.52 0 0
11.6 0 0
11.68 0 0
11.76 0 0
11.84 0 0
11.92 0 0
12 0 0
12.08 0 0
12.16 0 0
12.24 0 0
12.32 0 0
12.4 0 0
12.48 0 0
12.56 0 0
12.64 0 0
12.72 0 0
12.8 0 0
12.88 0 0
12.96 0 0
13.04 0 0
13.12 0 0
13.2 0 0
13.28 0 0
13.36 0 0
13.44 0 0
13.52 0 0
13.6 0 0
13.68 0 0
13.76 0 0
13.84 0 0
13.92 0 0
14 0 0
14.08 0 0
14.16 0 0
14.24 0 0
14.32 0 0
14.4 0 0
14.48 0 0
14.56 0 0
14.64 0 0
14.72 0 0
14.8 0 0
14.88 0 0
14.96 0 0
15.04 0 0
15.12 0 0
15.2 0 0
15.28 0 0
15.36 0 0
15.44 0 0
15.52 0 0
15.6 0 0
15.68 0 0
15.76 0 0
15.84 0 0
15.92 0 0
16 0 0
16.08 0 0
16.16 0 0
16.24 0 0
16.32 0 0
16.4 0 0
16.48 0 0
16.56 0 0
16.64 0 0
16.72 0 0
16.8 0 0
16.88 0 0
16.96 0 0
17.04 0 0
17.12 0 0
17.2 0 0
17.28 0 0
17.36 0 0
17.44 0 0
17.52 0 0
17.6 0 0
17.68 0 0
17.76 0 0
17.84 0 0
17.92 0 0
18 0 0
18.08 0 0
18.16 0 0
18.24 0 0
18.32 0 0
18.4 0 0
18.48 0 0
18.56 0 0
18.64 0 0
18.72 0 0
18.8 0 0
18.88 0 0
18.96 0 0
19.04 0 0
19.12 0 0
19.2 0 0
19.28 0 0
19.36 0 0
19.44 0 0
19.52 0 0
19.6 0 0
19.68 0 0
19.76 0 0
19.84 0 0
19.92 0 0
20 0 0
20.08 0 0
20.16 0 0
20.24 0 0
20.32 0 0
20.4 0 0
20.48 0 0
20.56 0 0
20.64 0 0
20.72 0 0
20.8 0 0
20.88 0 0
20.96 0 0
21.04 0 0
21.12 0 0
21.2 0 0
21.28 0 0
21.36 0 0
21.44 0 0
21.52 0 0
21.6 0 0
21.68 0 0
21.76 0 0
21.84 0 0
21.92 0 0
22 0 0
22.08 0 0
22.16 0 0
22.24 0 0
22.32 0 0
22.4 0 0
22.48 0 0
22.56 0 0
22.64 0 0
22.72 0 0
22.8 0 0
22.88 0 0
22.96 0 0
23.04 0 0
23.12 0 0
23.2 0 0
23.28 0 0
23.36 0 0
23.44 0 0
23.52 0 0
23.6 0 0
23.68 0 0
23.76 0 0
23.84 0 0
23.92 0 0
24 0 0
24.08 0 0
24.16 0 0
24.24 0 0
24.32 0 0
24.4 0 0
24.48 0 0
24.56 0 0
24.64 0 0
24.72 0 0
24.8 0 0
24.88 0 0
24.96 0 0
25.04 0 0
25.12 0 0
25.2 0 0
25.28 0 0
25.36 0 0
25.44 0 0
25.52 0 0
25.6 0 0
25.68 0 0
25.76 0 0
25.84 0 0
25.92 0 0
26 0 0
26.08 0 0
26.16 0 0
26.24 0 0
26.32 0 0
26.4 0 0
26.48 0 0
26.56 0 0
26.64 0 0
26.72 0 0
26.8 0 0
26.88 0 0
26.96 0 0
27.04 0 0
27.12 0 0
27.2 0 0
27.28 0 0
27.36 0 0
27.44 0 0
27.52 0 0
27.6 0 0
27.68 0 0
27.76 0 0
27.84 0 0
27.92 0 0
28 0 0
28.08 0 0
28.16 0 0
28.24 0 0
28.32 0 0
28.4 0 0
28.48 0 0
28.56 0 0
28.64 0 0
28.72 0 0
28.8 0 0
28.88 0 0
28.96 0 0
29.04 0 0
29.12 0 0
29.2 0 0
29.28 0 0
29.36 0 0
29.44 0 0
29.52 0 0
29.6 0 0
29.68 0 0
29.76 0 0
29.84 0 0
29.92 0 0
30 0 0
30.08 0 0
30.16 0 0
30.24 0 0
30.32 0 0
30.4 0 0
30.48 0 0
30.56 0 0
30.64 0 0
30.72 0 0
30.8 0 0
30.88 0 0
30.96 0 0
31.04 0 0
31.12 0 0
31.2 0 0
31.28 0 0
31.36 0 0
31.44 0 0
31.52 0 0
31.6 0 0
31.68 0 0
31.76 0 0
31.84 0 0
31.92 0 0
0 0.02 0
0.08 0.02 0
0.16 0.02 0
0.24 0.02 0
0.32 0.02 0
0.4 0.02 0
0.48 0.02 0
0.56 0.02 0
0.64 0.02 0
0.72 0.02 0
0.8 0.02 0
0.88 0.02 0
0.96 0.02 0
1.04 0.02 0
1.12 0.02 0
1.2 0.02 0
1.28 0.02 0
1.36 0.02 0
1.44 0.02 0
1.52 0.02 0
1.6 0.02 0
1.68 0.02 0
1.76 0.02 0
1.84 0.02 0
1.92 0.02 0
2 0.02 0
2.08 0.02 0
2.16 0.02 0
2.24 0.02 0
2.32 0.02 0
2.4 0.02 0
2.48 0.02 0
2.56 0.02 0
2.64 0.02 0
2.72 0.02 0
2.8 0.02 0
2.88 0.02 0
2.96 0.02 0
3.04 0.02 0
3.12 0.02 0
3.2 0.02 0
3.28 0.02 0
3.36 0.02 0
3.44 0.02 0
3.52 0.02 0
3.6 0.02 0
3.68 0.02 0
3.76 0.02 0
3.84 0.02 0
3.92 0.02 0
4 0.02 0
4.08 0.02 0
4.16 0.02 0
4.24 0.02 0
4.32 0.02 0
4.4 0.02 0
4.48 0.02 0
4.56 0.02 0
4.64 0.02 0
4.72 0.02 0
4.8 0.02 0
4.88 0.02 0
4.96 0.02 0
5.04 0.02 0
5.12 0.02 0
5.2 0.02 0
5.28 0.02 0
5.36 0.02 0
5.44 0.02 0
5.52 0.02 0
5.6 0.02 0
5.68 0.02 0
5.76 0.02 0
5.84 0.02 0
5.92 0.02 0
6 0.02 0
6.08 0.02 0
6.16 0.02 0
6.24 0.02 0
6.32 0.02 0
6.4 0.02 0
6.48 0.02 0
6.56 0.02 0
6.64 0.02 0
6.72 0.02 0
6.8 0.02 0
6.88 0.02 0
6.96 0.02 0
7.04 0.02 0
7.12 0.02 0
7.2 0.02 0
7.28 0.02 0
7.36 0.02 0
7.44 0.02 0
7.52 0.02 0
7.6 0.02 0
7.68 0.02 0
7.76 0.02 0
7.84 0.02 0
7.92 0.02 0
8 0.02 0
8.08 0.02 0
8.16 0.02 0
8.24 0.02 0
8.32 0.02 0
8.4 0.02 0
8.48 0.02 0
8.56 0.02 0
8.64 0.02 0
8.72 0.02 0
8.8 0.02 0
8.88 0.02 0
8.96 0.02 0
9.04 0.02 0
9.12 0.02 0
9.2 0.02 0
9.28 0.02 0
9.36 0.02 0
9.44 0.02 0
9.52 0.02 0
9.6 0.02 0
9.68 0.02 0
9.76 0.02 0
9.84 0.02 0
9.92 0.02 0
10 0.02 0
10.08 0.02 0
10.16 0.02 0
10.24 0.02 0
10.32 0.02 0
10.4 0.02 0
10.48 0.02 0
10.56 0.02 0
10.64 0.02 0
10.72 0.02 0
10.8 0.02 0
10.88 0.02 0
10.96 0.02 0
11.04 0.02 0
11.12 0.02 0
11.2 0.02 0
11.28 0.02 0
11.36 0.02 0
11.44 0.02 0
11.52 0.02 0
11.6 0.02 0
11.68 0.02 0
11.76 0.02 0
11.84 0.02 0
11.92 0.02 0
12 0.02 0
12.08 0.02 0
12.16 0.02 0
12.24 0.02 0
12.32 0.02 0
12.4 0.02 0
12.48 0.02 0
12.56 0.02 0
12.64 0.02 0
12.72 0.02 0
12.8 0.02 0
12.88 0.02 0
12.96 0.02 0
13.04 0.02 0
13.12 0.02 0
13.2 0.02 0
13.28 0.02 0
13.36 0.02 0
13.44 0.02 0
13.52 0.02 0
13.6 0.02 0
13.68 0.02 0
13.76 0.02 0
13.84 0.02 0
13.92 0.02 0
14 0.02 0
14.08 0.02 0
14.16 0.02 0
14.24 0.02 0
14.32 0.02 0
14.4 0.02 0
14.48 0.02 0
14.56 0.02 0
14.64 0.02 0
14.72 0.02 0
14.8 0.02 0
14.88 0.02 0
14.96 0.02 0
15.04 0.02 0
15.12 0.02 0
15.2 0.02 0
15.28 0.02 0
15.36 0.02 0
15.44 0.02 0
15.52 0.02 0
15.6 0.02 0
15.68 0.02 0
15.76 0.02 0
15.84 0.02 0
15.92 0.02 0
16 0.02 0
16.08 0.02 0
16.16 0.02 0
16.24 0.02 0
16.32 0.02 0
16.4 0.02 0
16.48 0.02 0
16.56 0.02 0
16.64 0.02 0
16.72 0.02 0
16.8 0.02 0
16.88 0.02 0
16.96 0.02 0
17.04 0.02 0
17.12 0.02 0
17.2 0.02 0
17.28 0.02 0
17.36 0.02 0
17.44 0.02 0
17.52 0.02 0
17.6 0.02 0
17.68 0.02 0
17.76 0.02 0
17.84 0.02 0
17.92 0.02 0
18 0.02 0
18.08 0.02 0
18.16 0.02 0
18.24 0.02 0
18.32 0.02 0
18.4 0.02 0
18.48 0.02 0
18.56 0.02 0
18.64 0.02 0
18.72 0.02 0
18.8 0.02 0
18.88 0.02 0
18.96 0.02 0
19.04 0.02 0
19.12 0.02 0
19.2 0.02 0
19.28 0.02 0
19.36 0.02 0
19.44 0.02 0
19.52 0.02 0
19.6 0.02 0
19.68 0.02 0
19.76 0.02 0
19.84 0.02 0
19.92 0.02 0
20 0.02 0
20.08 0.02 0
20.16 0.02 0
20.24 0.02 0
20.32 0.02 0
20.4 0.02 0
20.48 0.02 0
20.56 0.02 0
20.64 0.02 0
20.72 0.02 0
20.8 0.02 0
20.88 0.02 0
20.96 0.02 0
21.04 0.02 0
21.12 0.02 0
21.2 0.02 0
21.28 0.02 0
21.36 0.02 0
21.44 0.02 0
21.52 0.02 0
21.6 0.02 0
21.68 0.02 0
21.76 0.02 0
21.84 0.02 0
21.92 0.02 0
22 0.02 0
22.08 0.02 0
22.16 0.02 0
22.24 0.02 0
22.32 0.02 0
22.4 0.02 0
22.48 0.02 0
22.56 0.02 0
22.64 0.02 0
22.72 0.02 0
22.8 0.02 0
22.88 0.02 0
22.96 0.02 0
23.04 0.02 0
23.12 0.02 0
23.2 0.02 0
23.28 0.02 0
23.36 0.02 0
23.44 0.02 0
23.52 0.02 0
23.6 0.02 0
23.68 0.02 0
23.76 0.02 0
23.84 0.02 0
23.92 0.02 0
24 0.02 0
24.08 0.02 0
24.16 0.02 0
24.24 0.02 0
24.32 0.02 0
24.4 0.02 0
24.48 0.02 0
24.56 0.02 0
24.64 0.02 0
24.72 0.02 0
24.8 0.02 0
24.88 0.02 0
24.96 0.02 0
25.04 0.02 0
25.12 0.02 0
25.2 0.02 0
25.28 0.02 0
25.36 0.02 0
25.44 0.02 0
25.52 0.02 0
25.6 0.02 0
25.68 0.02 0
25.76 0.02 0
25.84 0.02 0
25.92 0.02 0
26 0.02 0
26.08 0.02 0
26.16 0.02 0
26.24 0.02 0
26.32 0.02 0
26.4 0.02 0
26.48 0.02 0
26.56 0.02 0
26.64 0.02 0
26.72 0.02 0
26.8 0.02 0
26.88 0.02 0
26.96 0.02 0
27.04 0.02 0
27.12 0.02 0
27.2 0.02 0
27.28 0.02 0
27.36 0.02 0
27.44 0.02 0
27.52 0.02 0
27.6 0.02 0
27.68 0.02 0
27.76 0.02 0
27.84 0.02 0
27.92 0.02 0
28 0.02 0
28.08 0.02 0
28.16 0.02 0
28.24 0.02 0
28.32 0.02 0
28.4 0.02 0
28.48 0.02 0
28.56 0.02 0
28.64 0.02 0
28.72 0.02 0
28.8 0.02 0
28.88 0.02 0
28.96 0.02 0
29.04 0.02 0
29.12 0.02 0
29.2 0.02 0
29.28 0.02 0
29.36 0.02 0
29.44 0.02 0
29.52 0.02 0
29.6 0.02 0
29.68 0.02 0
29.76 0.02 0
29.84 0.02 0
29.92 0.02 0
30 0.02 0
30.08 0.02 0
30.16 0.02 0
30.24 0.02 0
30.32 0.02 0
30.4 0.02 0
30.48 0.02 0
30.56 0.02 0
30.64 0.02 0
30.72 0.02 0
30.8 0.02 0
30.88 0.02 0
30.96 0.02 0
31.04 0.02 0
31.12 0.02 0
31.2 0.02 0
31.28 0.02 0
31.36 0.02 0
31.44 0.02 0
31.52 0.02 0
31.6 0.02 0
31.68 0.02 0
31.76 0.02 0
31.84 0.02 0
31.92 0.02 0
0 0.04 0
0.08 0.04 0
0.16 0.04 0
0.24 0.04 0
0.32 0.04 0
0.4 0.04 0
0.48 0.04 0
0.56 0.04 0
0.64 0.04 0
0.72 0.04 0
0.8 0.04 0
0.88 0.04 0
0.96 0.04 0
1.04 0.04 0
1.12 0.04 0
1.2 0.04 0
1.28 0.04 0
1.36 0.04 0
1.44 0.04 0
1.52 0.04 0
1.6 0.04 0
1.68 0.04 0
1.76 0.04 0
1.84 0.04 0
1.92 0.04 0
2 0.04 0
2.08 0.04 0
2.16 0.04 0
2.24 0.04 0
2.32 0.04 0
2.4 0.04 0
2.48 0.04 0
2.56 0.04 0
2.64 0.04 0
2.72 0.04 0
2.8 0.04 0
2.88 0.04 0
2.96 0.04 0
3.04 0.04 0
3.12 0.04 0
3.2 0.04 0
3.28 0.04 0
3.36 0.04 0
3.44 0.04 0
3.52 0.04 0
3.6 0.04 0
3.68 0.04 0
3.76 0.04 0
3.84 0.04 0
3.92 0.04 0
4 0.04 0
4.08 0.04 0
4.16 0.04 0
4.24 0.04 0
4.32 0.04 0
4.4 0.04 0
4.48 0.04 0
4.56 0.04 0
4.64 0.04 0
4.72 0.04 0
4.8 0.04 0
4.88 0.04 0
4.96 0.04 0
5.04 0.04 0
5.12 0.04 0
5.2 0.04 0
5.28 0.04 0
5.36 0.04 0
5.44 0.04 0
5.52 0.04 0
5.6 0.04 0
5.68 0.04 0
5.76 0.04 0
5.84 0.04 0
5.92 0.04 0
6 0.04 0
6.08 0.04 0
6.16 0.04 0
6.24 0.04 0
6.32 0.04 0
6.4 0.04 0
6.48 0.04 0
6.56 0.04 0
6.64 0.04 0
6.72 0.04 0
6.8 0.04 0
6.88 0.04 0
6.96 0.04 0
7.04 0.04 0
7.12 0.04 0
7.2 0.04 0
7.28 0.04 0
7.36 0.04 0
7.44 0.04 0
7.52 0.04 0
7.6 0.04 0
7.68 0.04 0
7.76 0.04 0
7.84 0.04 0
[...]
POINT_DATA 20000

SCALARS p float 1
LOOKUP_TABLE default
1
186.682
186.45
186.383
186.358
186.342
186.33
186.319
186.309
186.299
186.289
186.28
186.271
186.262
186.254
186.245
186.237
186.229
186.22
186.212
186.205
186.197
186.189
186.182
186.174
186.167
186.159
186.152
186.145
186.138
186.131
186.123
186.116
186.109
186.102
186.096
186.089
186.082
186.075
186.068
186.061
186.054
186.048
186.041
186.034
186.027
186.021
186.014
186.007
186.001
185.994
185.987
185.981
185.974
185.968
185.961
185.954
185.948
185.941
185.935
185.929
185.922
185.916
185.909
185.903
185.896
185.889
185.883
185.876
185.87
185.863
185.856
185.85
185.843
185.836
185.829
185.823
185.816
185.809
185.802
185.795
185.788
185.781
185.774
185.767
185.76
185.753
185.745
185.738
185.731
185.723
185.716
185.708
185.701
185.693
185.685
185.678
185.67
185.662
185.654
185.646
185.638
185.63
185.622
185.614
185.605
185.597
185.589
185.58
185.572
185.563
185.555
185.546
185.537
185.528
185.519
185.511
185.502
185.493
185.483
185.474
185.465
185.456
185.446
185.437
185.427
185.418
185.408
185.399
185.389
185.379
185.369
185.359
185.349
185.339
185.329
185.319
185.309
185.298
185.288
185.278
185.267
185.256
185.246
185.235
185.224
185.213
185.203
185.192
185.181
185.169
185.158
185.147
185.136
185.124
185.113
185.101
185.09
185.078
185.066
185.054
185.043
185.031
185.019
185.007
184.994
184.982
184.97
184.958
184.945
184.933
184.92
184.907
184.895
184.882
184.869
184.856
184.843
184.83
184.817
184.804
184.791
184.777
184.764
184.751
184.737
184.723
184.71
184.696
184.682
184.668
184.655
184.641
184.627
184.612
184.598
184.584
184.57
184.555
184.541
184.526
184.512
184.497
184.483
184.468
184.453
184.438
184.423
184.408
184.393
184.378
184.363
184.348
184.332
184.317
184.302
184.286
184.271
184.255
184.24
184.224
184.208
184.192
184.177
184.161
184.145
184.129
184.113
184.097
184.081
184.065
184.048
184.032
184.016
183.999
183.983
183.967
183.95
183.934
183.917
183.901
183.884
183.867
183.851
183.834
183.817
183.8
183.784
183.767
183.75
183.733
183.716
183.699
183.682
183.665
183.648
183.631
183.614
183.597
183.58
183.562
183.545
183.528
183.511
183.494
183.477
183.459
183.442
183.425
183.408
183.39
183.373
183.356
183.339
183.321
183.304
183.287
183.27
183.252
183.235
183.218
183.201
183.183
183.166
183.149
183.132
183.115
183.098
183.08
183.063
183.046
183.029
183.012
182.995
182.978
182.961
182.944
182.927
182.91
182.893
182.877
182.86
182.843
182.826
182.81
182.793
182.776
182.76
182.743
182.727
182.711
182.694
182.678
182.662
182.645
182.629
182.613
182.597
182.581
182.565
182.549
182.534
182.518
182.502
182.487
182.471
182.456
182.44
182.425
182.41
182.394
182.379
182.364
182.349
182.334
182.32
182.305
182.29
182.276
182.261
182.247
182.232
182.218
182.204
182.19
182.176
182.162
182.148
182.135
182.121
182.108
182.094
182.081
182.068
182.055
182.042
182.029
182.016
182.003
181.991
181.978
181.966
181.954
181.942
181.929
181.918
181.906
181.894
181.882
181.871
181.859
181.848
181.837
181.826
181.815
181.804
181.793
181.783
181.772
181.762
181.752
181.742
181.732
181.722
181.712
181.702
181.693
181.683
181.674
181.665
181.656
181.647
181.638
181.629
181.621
181.612
181.604
181.595
181.587
0.5
186.682
186.682
186.45
186.383
186.358
186.342
186.33
186.319
186.309
186.299
186.289
186.28
186.271
186.262
186.254
186.245
186.237
186.229
186.22
186.212
186.205
186.197
186.189
186.182
186.174
186.167
186.159
186.152
186.145
186.138
186.131
186.123
186.116
186.109
186.102
186.096
186.089
186.082
186.075
186.068
186.061
186.054
186.048
186.041
186.034
186.027
186.021
186.014
186.007
186.001
185.994
185.987
185.981
185.974
185.968
185.961
185.954
185.948
185.941
185.935
185.929
185.922
185.916
185.909
185.903
185.896
185.889
185.883
185.876
185.87
185.863
185.856
185.85
185.843
185.836
185.829
185.823
185.816
185.809
185.802
185.795
185.788
185.781
185.774
185.767
185.76
185.753
185.745
185.738
185.731
185.723
185.716
185.708
185.701
185.693
185.685
185.678
185.67
185.662
185.654
185.646
185.638
185.63
185.622
185.614
185.605
185.597
185.589
185.58
185.572
185.563
185.555
185.546
185.537
185.528
185.519
185.511
185.502
185.493
185.483
185.474
185.465
185.456
185.446
185.437
185.427
185.418
185.408
185.399
185.389
185.379
185.369
185.359
185.349
185.339
185.329
185.319
185.309
185.298
185.288
185.278
185.267
185.256
185.246
185.235
185.224
185.213
185.203
185.192
185.181
185.169
185.158
185.147
185.136
185.124
185.113
185.101
185.09
185.078
185.066
185.054
185.043
185.031
185.019
185.007
184.994
184.982
184.97
184.958
184.945
184.933
184.92
184.907
184.895
184.882
184.869
184.856
184.843
184.83
184.817
184.804
184.791
184.777
184.764
184.751
184.737
184.723
184.71
184.696
184.682
184.668
184.655
184.641
184.627
184.612
184.598
184.584
184.57
184.555
184.541
184.526
184.512
184.497
184.483
184.468
184.453
184.438
184.423
184.408
184.393
184.378
184.363
184.348
184.332
184.317
184.302
184.286
184.271
184.255
184.24
184.224
184.208
184.192
184.177
184.161
184.145
184.129
184.113
184.097
184.081
184.065
184.048
184.032
184.016
183.999
183.983
183.967
183.95
183.934
183.917
183.901
183.884
183.867
183.851
183.834
183.817
183.8
183.784
183.767
183.75
183.733
183.716
183.699
183.682
183.665
183.648
183.631
183.614
183.597
183.58
183.562
183.545
183.528
183.511
183.494
183.477
183.459
183.442
183.425
183.408
183.39
183.373
183.356
183.339
183.321
183.304
183.287
183.27
183.252
183.235
183.218
183.201
183.183
183.166
183.149
183.132
183.115
183.098
183.08
183.063
183.046
183.029
183.012
182.995
182.978
182.961
182.944
182.927
182.91
182.893
182.877
182.86
182.843
182.826
182.81
182.793
182.776
182.76
182.743
182.727
182.711
182.694
182.678
182.662
182.645
182.629
182.613
182.597
182.581
182.565
182.549
182.534
182.518
182.502
182.487
182.471
182.456
182.44
182.425
182.41
182.394
182.379
182.364
182.349
182.334
182.32
182.305
182.29
182.276
182.261
182.247
182.232
182.218
182.204
182.19
182.176
182.162
182.148
182.135
182.121
182.108
182.094
182.081
182.068
182.055
182.042
182.029
182.016
182.003
181.991
181.978
181.966
181.954
181.942
181.929
181.918
181.906
181.894
181.882
181.871
181.859
181.848
181.837
181.826
181.815
181.804
181.793
181.783
181.772
181.762
181.752
181.742
181.732
181.722
181.712
181.702
181.693
181.683
181.674
181.665
181.656
181.647
181.638
181.629
181.621
181.612
181.604
181.595
181.587
181.587
186.631
186.631
186.456
186.388
186.361
186.344
186.331
186.32
186.309
186.299
186.29
186.28
186.271
186.263
186.254
186.245
186.237
186.229
186.221
186.213
186.205
186.197
186.189
186.182
186.174
186.167
186.159
186.152
186.145
186.138
186.131
186.123
186.116
186.109
186.102
186.096
186.089
186.082
186.075
186.068
186.061
186.054
186.048
186.041
186.034
186.027
186.021
186.014
186.007
186.001
185.994
185.987
185.981
185.974
185.968
185.961
185.954
185.948
185.941
185.935
185.929
185.922
185.916
185.909
185.903
185.896
185.889
185.883
185.876
185.87
185.863
185.856
185.85
185.843
185.836
185.829
185.823
185.816
185.809
185.802
185.795
185.788
185.781
185.774
185.767
185.76
185.753
185.745
185.738
185.731
185.723
185.716
185.708
185.701
185.693
185.685
185.678
185.67
185.662
185.654
185.646
185.638
185.63
185.622
185.614
185.605
185.597
185.589
185.58
185.572
185.563
185.555
185.546
185.537
185.528
185.519
185.511
185.502
185.493
185.483
185.474
185.465
185.456
185.446
185.437
185.427
185.418
185.408
185.399
185.389
185.379
185.369
185.359
185.349
185.339
185.329
185.319
185.309
185.298
185.288
185.278
185.267
185.257
185.246
185.235
185.224
185.214
185.203
185.192
185.181
185.169
185.158
185.147
185.136
185.124
185.113
185.101
185.09
185.078
185.066
185.054
185.043
185.031
185.019
185.007
184.994
184.982
184.97
184.958
184.945
184.933
184.92
184.907
184.895
184.882
184.869
184.856
184.843
184.83
184.817
184.804
184.791
184.777
184.764
184.751
184.737
184.723
184.71
184.696
184.682
184.668
184.655
184.641
184.627
184.612
184.598
184.584
184.57
184.555
184.541
184.526
184.512
184.497
184.483
184.468
184.453
184.438
184.423
184.408
184.393
184.378
184.363
184.348
184.332
184.317
184.302
184.286
184.271
184.255
184.24
184.224
184.208
184.192
184.177
184.161
184.145
184.129
184.113
184.097
184.081
184.065
184.048
184.032
184.016
183.999
183.983
183.967
183.95
183.934
183.917
183.901
183.884
183.867
183.851
183.834
183.817
183.8
183.784
183.767
183.75
183.733
183.716
183.699
183.682
183.665
183.648
183.631
183.614
183.597
183.58
183.563
183.545
183.528
183.511
183.494
183.477
183.459
183.442
183.425
183.408
183.39
183.373
183.356
183.339
183.321
183.304
183.287
183.27
183.252
183.235
183.218
183.201
183.183
183.166
183.149
183.132
183.115
183.098
183.08
183.063
183.046
183.029
183.012
182.995
182.978
182.961
182.944
182.927
182.91
182.893
182.877
182.86
182.843
182.826
182.81
182.793
182.777
182.76
182.743
182.727
182.711
182.694
182.678
182.662
182.645
182.629
182.613
182.597
182.581
182.565
182.549
182.534
182.518
182.502
182.487
182.471
182.456
182.44
182.425
182.41
182.394
182.379
182.364
182.349
182.334
182.32
182.305
182.29
182.276
182.261
182.247
182.232
182.218
182.204
182.19
182.176
182.162
182.149
182.135
182.121
182.108
182.094
182.081
182.068
182.055
182.042
182.029
182.016
182.003
181.991
181.978
181.966
181.954
181.942
181.93
181.918
181.906
181.894
181.882
181.871
181.859
181.848
181.837
181.826
181.815
181.804
181.793
181.783
181.772
181.762
181.752
181.742
181.732
181.722
181.712
181.702
181.693
181.683
181.674
181.665
181.656
181.647
181.638
181.629
181.621
181.612
181.604
181.596
181.587
181.587
186.591
186.591
186.458
186.393
186.363
186.346
186.332
186.321
186.31
186.3
186.29
186.281
186.272
186.263
186.254
186.245
186.237
186.229
186.221
186.213
186.205
186.197
186.189
186.182
186.174
186.167
186.159
186.152
186.145
186.138
186.131
186.124
186.116
186.109
186.103
186.096
186.089
186.082
186.075
186.068
186.061
186.054
186.048
186.041
186.034
186.027
186.021
186.014
186.007
186.001
185.994
185.987
185.981
185.974
185.968
185.961
185.954
185.948
185.941
185.935
185.929
185.922
185.916
185.909
185.903
185.896
185.889
185.883
185.876
185.87
185.863
185.856
185.85
185.843
185.836
185.829
185.823
185.816
185.809
185.802
185.795
185.788
185.781
185.774
185.767
185.76
185.753
185.745
185.738
185.731
185.723
185.716
185.708
185.701
185.693
185.685
185.678
185.67
185.662
185.654
185.646
185.638
185.63
185.622
185.614
185.605
185.597
185.589
185.58
185.572
185.563
185.554
185.546
185.537
185.528
185.519
185.511
185.502
185.493
185.483
185.474
185.465
185.456
185.446
185.437
185.427
185.418
185.408
185.399
185.389
185.379
185.369
185.359
185.349
185.339
185.329
185.319
185.309
185.298
185.288
185.278
185.267
185.256
185.246
185.235
185.224
185.213
185.203
185.192
185.181
185.169
185.158
185.147
185.136
185.124
185.113
185.101
185.09
185.078
185.066
185.054
185.043
185.031
185.019
185.007
184.994
184.982
184.97
184.958
184.945
184.933
184.92
184.907
184.895
184.882
184.869
184.856
184.843
184.83
184.817
184.804
184.791
184.777
184.764
184.751
184.737
184.723
184.71
184.696
184.682
184.668
184.655
184.641
184.627
184.612
184.598
184.584
184.57
184.555
184.541
184.526
184.512
184.497
184.483
184.468
184.453
184.438
184.423
184.408
184.393
184.378
184.363
184.348
184.332
184.317
184.302
184.286
184.271
184.255
184.24
184.224
184.208
184.192
184.177
184.161
184.145
184.129
184.113
184.097
184.081
184.065
184.048
184.032
184.016
183.999
183.983
183.967
183.95
183.934
183.917
183.901
183.884
183.867
183.851
183.834
183.817
183.8
183.784
183.767
183.75
183.733
183.716
183.699
183.682
183.665
183.648
183.631
183.614
183.597
183.58
183.563
183.545
183.528
183.511
183.494
183.477
183.459
183.442
183.425
183.408
183.39
183.373
183.356
183.339
183.321
183.304
183.287
183.27
183.252
183.235
183.218
183.201
183.183
183.166
183.149
183.132
183.115
183.098
183.08
183.063
183.046
183.029
183.012
182.995
182.978
182.961
182.944
182.927
182.91
182.894
182.877
182.86
182.843
182.826
182.81
182.793
182.777
182.76
182.743
182.727
182.711
182.694
182.678
182.662
182.645
182.629
182.613
182.597
182.581
182.565
182.549
182.534
182.518
182.502
182.487
182.471
182.456
182.44
182.425
182.41
182.394
182.379
182.364
182.349
182.334
182.32
182.305
182.29
182.276
182.261
182.247
182.233
182.218
182.204
182.19
182.176
182.162
182.149
182.135
182.121
182.108
182.094
182.081
182.068
182.055
182.042
182.029
182.016
182.003
181.991
181.978
181.966
181.954
181.942
181.93
181.918
181.906
181.894
181.882
181.871
181.859
181.848
181.837
181.826
181.815
181.804
181.793
181.783
181.772
181.762
181.752
181.742
181.732
181.722
181.712
181.702
181.693
181.683
181.674
181.665
181.656
181.647
181.638
181.629
181.621
181.612
181.604
181.596
181.587
181.587
186.56
186.56
186.459
186.398
186.367
186.348
186.334
186.322
186.311
186.3
186.291
186.281
186.272
186.263
186.254
186.246
186.237
186.229
186.221
186.213
186.205
186.197
186.189
186.182
186.174
186.167
186.16
186.152
186.145
186.138
186.131
186.124
186.117
186.11
186.103
186.096
186.089
186.082
186.075
186.068
186.061
186.054
186.048
186.041
186.034
186.027
186.021
186.014
186.007
186.001
185.994
185.987
185.981
185.974
185.968
185.961
185.954
185.948
185.941
185.935
185.929
185.922
185.916
185.909
185.903
185.896
185.889
185.883
185.876
185.87
185.863
185.856
185.85
185.843
185.836
185.829
185.823
185.816
185.809
185.802
185.795
185.788
185.781
185.774
185.767
185.76
185.753
185.745
185.738
185.731
185.723
185.716
185.708
185.701
185.693
185.685
185.678
185.67
185.662
185.654
185.646
185.638
185.63
185.622
185.614
185.605
185.597
185.589
185.58
185.572
185.563
185.554
185.546
185.537
185.528
185.519
185.511
185.502
185.492
185.483
185.474
185.465
185.456
185.446
185.437
185.427
185.418
185.408
185.399
185.389
185.379
185.369
185.359
185.349
185.339
185.329
185.319
185.309
185.298
185.288
185.278
185.267
185.256
185.246
185.235
185.224
185.213
185.203
185.192
185.181
185.169
185.158
185.147
185.136
185.124
185.113
185.101
185.09
185.078
185.066
185.054
185.043
185.031
185.019
185.007
184.994
184.982
184.97
184.958
184.945
184.933
184.92
184.907
184.895
184.882
184.869
184.856
184.843
184.83
184.817
184.804
184.791
184.777
184.764
184.751
184.737
184.723
184.71
184.696
184.682
184.668
184.655
184.641
184.627
184.612
184.598
184.584
184.57
184.555
184.541
184.526
184.512
184.497
184.483
184.468
184.453
184.438
184.423
184.408
184.393
184.378
184.363
184.348
184.332
184.317
184.302
184.286
184.271
184.255
184.24
184.224
184.208
184.192
184.177
184.161
184.145
184.129
184.113
184.097
184.081
184.065
184.048
184.032
184.016
183.999
183.983
183.967
183.95
183.934
183.917
183.901
183.884
183.867
183.851
183.834
183.817
183.8
183.784
183.767
183.75
183.733
183.716
183.699
183.682
183.665
183.648
183.631
183.614
183.597
183.58
183.563
183.545
183.528
183.511
183.494
183.477
183.459
183.442
183.425
183.408
183.39
183.373
183.356
183.339
183.321
183.304
183.287
183.27
183.252
183.235
183.218
183.201
183.184
183.166
183.149
183.132
183.115
183.098
183.08
183.063
183.046
183.029
183.012
182.995
182.978
182.961
182.944
182.927
182.91
182.894
182.877
182.86
182.843
182.826
182.81
182.793
182.777
182.76
182.744
182.727
182.711
182.694
182.678
182.662
182.645
182.629
182.613
182.597
182.581
182.565
182.549
182.534
182.518
182.502
182.487
182.471
182.456
182.44
182.425
182.41
182.394
182.379
182.364
182.349
182.334
182.32
182.305
182.29
182.276
182.261
182.247
182.233
182.218
182.204
182.19
182.176
182.162
182.149
182.135
182.121
182.108
182.094
182.081
182.068
182.055
182.042
182.029
182.016
182.003
181.991
181.978
181.966
181.954
181.942
181.93
181.918
181.906
181.894
181.882
181.871
181.86
181.848
181.837
181.826
181.815
181.804
181.794
181.783
181.772
181.762
181.752
181.742
181.732
181.722
181.712
181.702
181.693
181.683
181.674
181.665
181.656
181.647
181.638
181.629
181.621
181.612
181.604
181.596
181.587
181.587
186.534
186.534
186.457
186.402
186.37
186.35
186.335
186.323
186.312
186.301
186.291
186.282
186.272
186.263
186.254
186.246
186.237
186.229
186.221
186.213
186.205
186.197
186.189
186.182
186.174
186.167
186.16
186.152
186.145
186.138
186.131
186.124
186.117
186.11
186.103
186.096
186.089
186.082
186.075
186.068
186.061
186.054
186.048
186.041
186.034
186.027
186.021
186.014
186.007
186.001
185.994
185.987
185.981
185.974
185.968
185.961
185.954
185.948
185.941
185.935
185.929
185.922
185.916
185.909
185.903
185.896
185.889
185.883
185.876
185.87
185.863
185.856
185.85
185.843
185.836
185.829
185.823
185.816
185.809
185.802
185.795
185.788
185.781
185.774
185.767
185.76
185.753
185.745
185.738
185.731
185.723
185.716
185.708
185.701
185.693
185.685
185.678
185.67
185.662
185.654
185.646
185.638
185.63
185.622
185.614
185.605
185.597
185.589
185.58
185.572
185.563
185.554
185.546
185.537
185.528
185.519
185.51
185.502
185.492
185.483
185.474
185.465
185.456
185.446
185.437
185.427
185.418
185.408
185.399
185.389
185.379
185.369
185.359
185.349
185.339
185.329
185.319
185.309
185.298
185.288
185.278
185.267
185.256
185.246
185.235
185.224
185.213
185.203
185.192
185.181
185.169
185.158
185.147
185.136
185.124
185.113
185.101
185.09
185.078
185.066
185.054
185.043
185.031
185.019
185.007
184.994
184.982
184.97
184.958
184.945
184.933
184.92
184.907
184.895
184.882
184.869
184.856
184.843
184.83
184.817
184.804
184.791
184.777
184.764
184.751
184.737
184.723
184.71
184.696
184.682
184.668
184.655
184.641
184.627
184.612
184.598
184.584
184.57
184.555
184.541
184.526
184.512
184.497
184.483
184.468
184.453
184.438
184.423
184.408
184.393
184.378
184.363
184.348
184.332
184.317
184.302
184.286
184.271
184.255
184.24
184.224
184.208
184.192
184.177
184.161
184.145
184.129
184.113
184.097
184.081
184.065
184.048
184.032
184.016
183.999
183.983
183.967
183.95
183.934
183.917
183.901
183.884
183.867
183.851
183.834
183.817
183.8
183.784
183.767
183.75
183.733
183.716
183.699
183.682
183.665
183.648
183.631
183.614
183.597
183.58
183.563
183.545
183.528
183.511
183.494
183.477
183.459
183.442
183.425
183.408
183.39
183.373
183.356
183.339
183.321
183.304
183.287
183.27
183.252
183.235
183.218
183.201
183.184
183.166
183.149
183.132
183.115
183.098
183.08
183.063
183.046
183.029
183.012
182.995
182.978
182.961
182.944
182.927
182.91
182.894
182.877
182.86
182.843
182.826
182.81
182.793
182.777
182.76
182.744
182.727
182.711
182.694
182.678
182.662
182.646
182.629
182.613
182.597
182.581
182.565
182.549
182.534
182.518
182.502
182.487
182.471
182.456
182.44
182.425
182.41
182.394
182.379
182.364
182.349
182.334
182.32
182.305
182.29
182.276
182.261
182.247
182.233
182.218
182.204
182.19
182.176
182.162
182.149
182.135
182.121
182.108
182.094
182.081
182.068
182.055
182.042
182.029
182.016
182.004
181.991
181.978
181.966
181.954
181.942
181.93
181.918
181.906
181.894
181.882
181.871
181.86
181.848
181.837
181.826
181.815
181.804
181.794
181.783
181.772
181.762
181.752
181.742
181.732
181.722
181.712
181.702
181.693
181.683
181.674
181.665
181.656
181.647
181.638
181.629
181.621
181.612
181.604
181.596
181.587
181.587
186.513
186.513
186.453
186.405
186.374
186.353
186.337
186.324
186.313
186.302
186.292
186.282
186.273
186.264
186.255
186.246
186.238
186.229
186.221
186.213
186.205
186.197
186.19
186.182
186.174
186.167
186.16
186.152
186.145
186.138
186.131
186.124
186.117
186.11
186.103
186.096
186.089
186.082
186.075
186.068
186.061
186.054
186.048
186.041
186.034
186.027
186.021
186.014
186.007
186.001
185.994
185.987
185.981
185.974
185.968
185.961
185.954
185.948
185.941
185.935
185.928
185.922
185.916
185.909
185.902
185.896
185.889
185.883
185.876
185.87
185.863
185.856
185.85
185.843
185.836
185.829
185.823
185.816
185.809
185.802
185.795
185.788
185.781
185.774
185.767
185.76
185.753
185.745
185.738
185.731
185.723
185.716
185.708
185.701
185.693
185.685
185.678
185.67
185.662
185.654
185.646
185.638
185.63
185.622
185.614
185.605
185.597
185.589
185.58
185.572
185.563
185.554
185.546
185.537
185.528
185.519
185.51
185.501
185.492
185.483
185.474