# vtk DataFile Version 2.0
FlowField
ASCII
DATASET STRUCTURED_GRID
DIMENSIONS 400 1 50
POINTS 20000 float
0 0 0
0.08 0 0
0.16 0 0
0.24 0 0
0.32 0 0
0.4 0 0
0.48 0 0
0.56 0 0
0.64 0 0
0.72 0 0
0.8 0 0
0.88 0 0
0.96 0 0
1.04 0 0
1.12 0 0
1.2 0 0
1.28 0 0
1.36 0 0
1.44 0 0
1.52 0 0
1.6 0 0
1.68 0 0
1.76 0 0
1.84 0 0
1.92 0 0
2 0 0
2.08 0 0
2.16 0 0
2.24 0 0
2.32 0 0
2.4 0 0
2.48 0 0
2.56 0 0
2.64 0 0
2.72 0 0
2.8 0 0
2.88 0 0
2.96 0 0
3.04 0 0
3.12 0 0
3.2 0 0
3.28 0 0
3.36 0 0
3.44 0 0
3.52 0 0
3.6 0 0
3.68 0 0
3.76 0 0
3.84 0 0
3.92 0 0
4 0 0
4.08 0 0
4.16 0 0
4.24 0 0
4.32 0 0
4.4 0 0
4.48 0 0
4.56 0 0
4.64 0 0
4.72 0 0
4.8 0 0
4.88 0 0
4.96 0 0
5.04 0 0
5.12 0 0
5.2 0 0
5.28 0 0
5.36 0 0
5.44 0 0
5.52 0 0
5.6 0 0
5.68 0 0
5.76 0 0
5.84 0 0
5.92 0 0
6 0 0
6.08 0 0
6.16 0 0
6.24 0 0
6.32 0 0
6.4 0 0
6.48 0 0
6.56 0 0
6.64 0 0
6.72 0 0
6.8 0 0
6.88 0 0
6.96 0 0
7.04 0 0
7.12 0 0
7.2 0 0
7.28 0 0
7.36 0 0
7.44 0 0
7.52 0 0
7.6 0 0
7.68 0 0
7.76 0 0
7.84 0 0
7.92 0 0
8 0 0
8.08 0 0
8.16 0 0
8.24 0 0
8.32 0 0
8.4 0 0
8.48 0 0
8.56 0 0
8.64 0 0
8.72 0 0
8.8 0 0
8.88 0 0
8.96 0 0
9.04 0 0
9.12 0 0
9.2 0 0
9.28 0 0
9.36 0 0
9.44 0 0
9.52 0 0
9.6 0 0
9.68 0 0
9.76 0 0
9.84 0 0
9.92 0 0
10 0 0
10.08 0 0
10.16 0 0
10.24 0 0
10.32 0 0
10.4 0 0
10.48 0 0
10.56 0 0
10.64 0 0
10.72 0 0
10.8 0 0
10.88 0 0
10.96 0 0
11.04 0 0
11.12 0 0
11.2 0 0
11.28 0 0
11.36 0 0
11.44 0 0
11.52 0 0
11.6 0 0
11.68 0 0
11.76 0 0
11.84 0 0
11.92 0 0
12 0 0
12.08 0 0
12.16 0 0
12.24 0 0
12.32 0 0
12.4 0 0
12.48 0 0
12.56 0 0
12.64 0 0
12.72 0 0
12.8 0 0
12.88 0 0
12.96 0 0
13.04 0 0
13.12 0 0
13.2 0 0
13.28 0 0
13.36 0 0
13.44 0 0
13.52 0 0
13.6 0 0
13.68 0 0
13.76 0 0
13.84 0 0
13.92 0 0
14 0 0
14.08 0 0
14.16 0 0
14.24 0 0
14.32 0 0
14.4 0 0
14.48 0 0
14.56 0 0
14.64 0 0
14.72 0 0
14.8 0 0
14.88 0 0
14.96 0 0
15.04 0 0
15.12 0 0
15.2 0 0
15.28 0 0
15.36 0 0
15.44 0 0
15.52 0 0
15.6 0 0
15.68 0 0
15.76 0 0
15.84 0 0
15.92 0 0
16 0 0
16.08 0 0
16.16 0 0
16.24 0 0
16.32 0 0
16.4 0 0
16.48 0 0
16.56 0 0
16.64 0 0
16.72 0 0
16.8 0 0
16.88 0 0
16.96 0 0
17.04 0 0
17.12 0 0
17.2 0 0
17.28 0 0
17.36 0 0
17.44 0 0
17.52 0 0
17.6 0 0
17.68 0 0
17.76 0 0
17.84 0 0
17.92 0 0
18 0 0
18.08 0 0
18.16 0 0
18.24 0 0
18.32 0 0
18.4 0 0
18.48 0 0
18.56 0 0
18.64 0 0
18.72 0 0
18.8 0 0
18.88 0 0
18.96 0 0
19.04 0 0
19.12 0 0
19.2 0 0
19.28 0 0
19.36 0 0
19.44 0 0
19.52 0 0
19.6 0 0
19.68 0 0
19.76 0 0
19.84 0 0
19.92 0 0
20 0 0
20.08 0 0
20.16 0 0
20.24 0 0
20.32 0 0
20.4 0 0
20.48 0 0
20.56 0 0
20.64 0 0
20.72 0 0
20.8 0 0
20.88 0 0
20.96 0 0
21.04 0 0
21.12 0 0
21.2 0 0
21.28 0 0
21.36 0 0
21.44 0 0
21.52 0 0
21.6 0 0
21.68 0 0
21.76 0 0
21.84 0 0
21.92 0 0
22 0 0
22.08 0 0
22.16 0 0
22.24 0 0
22.32 0 0
22.4 0 0
22.48 0 0
22.56 0 0
22.64 0 0
22.72 0 0
22.8 0 0
22.88 0 0
22.96 0 0
23.04 0 0
23.12 0 0
23.2 0 0
23.28 0 0
23.36 0 0
23.44 0 0
23.52 0 0
23.6 0 0
23.68 0 0
23.76 0 0
23.84 0 0
23.92 0 0
24 0 0
24.08 0 0
24.16 0 0
24.24 0 0
24.32 0 0
24.4 0 0
24.48 0 0
24.56 0 0
24.64 0 0
24.72 0 0
24.8 0 0
24.88 0 0
24.96 0 0
25.04 0 0
25.12 0 0
25.2 0 0
25.28 0 0
25.36 0 0
25.44 0 0
25.52 0 0
25.6 0 0
25.68 0 0
25.76 0 0
25.84 0 0
25.92 0 0
26 0 0
26.08 0 0
26.16 0 0
26.24 0 0
26.32 0 0
26.4 0 0
26.48 0 0
26.56 0 0
26.64 0 0
26.72 0 0
26.8 0 0
26.88 0 0
26.96 0 0
27.04 0 0
27.12 0 0
27.2 0 0
27.28 0 0
27.36 0 0
27.44 0 0
27.52 0 0
27.6 0 0
27.68 0 0
27.76 0 0
27.84 0 0
27.92 0 0
28 0 0
28.08 0 0
28.16 0 0
28.24 0 0
28.32 0 0
28.4 0 0
28.48 0 0
28.56 0 0
28.64 0 0
28.72 0 0
28.8 0 0
28.88 0 0
28.96 0 0
29.04 0 0
29.12 0 0
29.2 0 0
29.28 0 0
29.36 0 0
29.44 0 0
29.52 0 0
29.6 0 0
29.68 0 0
29.76 0 0
29.84 0 0
29.92 0 0
30 0 0
30.08 0 0
30.16 0 0
30.24 0 0
30.32 0 0
30.4 0 0
30.48 0 0
30.56 0 0
30.64 0 0
30.72 0 0
30.8 0 0
30.88 0 0
30.96 0 0
31.04 0 0
31.12 0 0
31.2 0 0
31.28 0 0
31.36 0 0
31.44 0 0
31.52 0 0
31.6 0 0
31.68 0 0
31.76 0 0
31.84 0 0
31.92 0 0
0 0.02 0
0.08 0.02 0
0.16 0.02 0
0.24 0.02 0
0.32 0.02 0
0.4 0.02 0
0.48 0.02 0
0.56 0.02 0
0.64 0.02 0
0.72 0.02 0
0.8 0.02 0
0.88 0.02 0
0.96 0.02 0
1.04 0.02 0
1.12 0.02 0
1.2 0.02 0
1.28 0.02 0
1.36 0.02 0
1.44 0.02 0
1.52 0.02 0
1.6 0.02 0
1.68 0.02 0
1.76 0.02 0
1.84 0.02 0
1.92 0.02 0
2 0.02 0
2.08 0.02 0
2.16 0.02 0
2.24 0.02 0
2.32 0.02 0
2.4 0.02 0
2.48 0.02 0
2.56 0.02 0
2.64 0.02 0
2.72 0.02 0
2.8 0.02 0
2.88 0.02 0
2.96 0.02 0
3.04 0.02 0
3.12 0.02 0
3.2 0.02 0
3.28 0.02 0
3.36 0.02 0
3.44 0.02 0
3.52 0.02 0
3.6 0.02 0
3.68 0.02 0
3.76 0.02 0
3.84 0.02 0
3.92 0.02 0
4 0.02 0
4.08 0.02 0
4.16 0.02 0
4.24 0.02 0
4.32 0.02 0
4.4 0.02 0
4.48 0.02 0
4.56 0.02 0
4.64 0.02 0
4.72 0.02 0
4.8 0.02 0
4.88 0.02 0
4.96 0.02 0
5.04 0.02 0
5.12 0.02 0
5.2 0.02 0
5.28 0.02 0
5.36 0.02 0
5.44 0.02 0
5.52 0.02 0
5.6 0.02 0
5.68 0.02 0
5.76 0.02 0
5.84 0.02 0
5.92 0.02 0
6 0.02 0
6.08 0.02 0
6.16 0.02 0
6.24 0.02 0
6.32 0.02 0
6.4 0.02 0
6.48 0.02 0
6.56 0.02 0
6.64 0.02 0
6.72 0.02 0
6.8 0.02 0
6.88 0.02 0
6.96 0.02 0
7.04 0.02 0
7.12 0.02 0
7.2 0.02 0
7.28 0.02 0
7.36 0.02 0
7.44 0.02 0
7.52 0.02 0
7.6 0.02 0
7.68 0.02 0
7.76 0.02 0
7.84 0.02 0
7.92 0.02 0
8 0.02 0
8.08 0.02 0
8.16 0.02 0
8.24 0.02 0
8.32 0.02 0
8.4 0.02 0
8.48 0.02 0
8.56 0.02 0
8.64 0.02 0
8.72 0.02 0
8.8 0.02 0
8.88 0.02 0
8.96 0.02 0
9.04 0.02 0
9.12 0.02 0
9.2 0.02 0
9.28 0.02 0
9.36 0.02 0
9.44 0.02 0
9.52 0.02 0
9.6 0.02 0
9.68 0.02 0
9.76 0.02 0
9.84 0.02 0
9.92 0.02 0
10 0.02 0
10.08 0.02 0
10.16 0.02 0
10.24 0.02 0
10.32 0.02 0
10.4 0.02 0
10.48 0.02 0
10.56 0.02 0
10.64 0.02 0
10.72 0.02 0
10.8 0.02 0
10.88 0.02 0
10.96 0.02 0
11.04 0.02 0
11.12 0.02 0
11.2 0.02 0
11.28 0.02 0
11.36 0.02 0
11.44 0.02 0
11.52 0.02 0
11.6 0.02 0
11.68 0.02 0
11.76 0.02 0
11.84 0.02 0
11.92 0.02 0
12 0.02 0
12.08 0.02 0
12.16 0.02 0
12.24 0.02 0
12.32 0.02 0
12.4 0.02 0
12.48 0.02 0
12.56 0.02 0
12.64 0.02 0
12.72 0.02 0
12.8 0.02 0
12.88 0.02 0
12.96 0.02 0
13.04 0.02 0
13.12 0.02 0
13.2 0.02 0
13.28 0.02 0
13.36 0.02 0
13.44 0.02 0
13.52 0.02 0
13.6 0.02 0
13.68 0.02 0
13.76 0.02 0
13.84 0.02 0
13.92 0.02 0
14 0.02 0
14.08 0.02 0
14.16 0.02 0
14.24 0.02 0
14.32 0.02 0
14.4 0.02 0
14.48 0.02 0
14.56 0.02 0
14.64 0.02 0
14.72 0.02 0
14.8 0.02 0
14.88 0.02 0
14.96 0.02 0
15.04 0.02 0
15.12 0.02 0
15.2 0.02 0
15.28 0.02 0
15.36 0.02 0
15.44 0.02 0
15.52 0.02 0
15.6 0.02 0
15.68 0.02 0
15.76 0.02 0
15.84 0.02 0
15.92 0.02 0
16 0.02 0
16.08 0.02 0
16.16 0.02 0
16.24 0.02 0
16.32 0.02 0
16.4 0.02 0
16.48 0.02 0
16.56 0.02 0
16.64 0.02 0
16.72 0.02 0
16.8 0.02 0
16.88 0.02 0
16.96 0.02 0
17.04 0.02 0
17.12 0.02 0
17.2 0.02 0
17.28 0.02 0
17.36 0.02 0
17.44 0.02 0
17.52 0.02 0
17.6 0.02 0
17.68 0.02 0
17.76 0.02 0
17.84 0.02 0
17.92 0.02 0
18 0.02 0
18.08 0.02 0
18.16 0.02 0
18.24 0.02 0
18.32 0.02 0
18.4 0.02 0
18.48 0.02 0
18.56 0.02 0
18.64 0.02 0
18.72 0.02 0
18.8 0.02 0
18.88 0.02 0
18.96 0.02 0
19.04 0.02 0
19.12 0.02 0
19.2 0.02 0
19.28 0.02 0
19.36 0.02 0
19.44 0.02 0
19.52 0.02 0
19.6 0.02 0
19.68 0.02 0
19.76 0.02 0
19.84 0.02 0
19.92 0.02 0
20 0.02 0
20.08 0.02 0
20.16 0.02 0
20.24 0.02 0
20.32 0.02 0
20.4 0.02 0
20.48 0.02 0
20.56 0.02 0
20.64 0.02 0
20.72 0.02 0
20.8 0.02 0
20.88 0.02 0
20.96 0.02 0
21.04 0.02 0
21.12 0.02 0
21.2 0.02 0
21.28 0.02 0
21.36 0.02 0
21.44 0.02 0
21.52 0.02 0
21.6 0.02 0
21.68 0.02 0
21.76 0.02 0
21.84 0.02 0
21.92 0.02 0
22 0.02 0
22.08 0.02 0
22.16 0.02 0
22.24 0.02 0
22.32 0.02 0
22.4 0.02 0
22.48 0.02 0
22.56 0.02 0
22.64 0.02 0
22.72 0.02 0
22.8 0.02 0
22.88 0.02 0
22.96 0.02 0
23.04 0.02 0
23.12 0.02 0
23.2 0.02 0
23.28 0.02 0
23.36 0.02 0
23.44 0.02 0
23.52 0.02 0
23.6 0.02 0
23.68 0.02 0
23.76 0.02 0
23.84 0.02 0
23.92 0.02 0
24 0.02 0
24.08 0.02 0
24.16 0.02 0
24.24 0.02 0
24.32 0.02 0
24.4 0.02 0
24.48 0.02 0
24.56 0.02 0
24.64 0.02 0
24.72 0.02 0
24.8 0.02 0
24.88 0.02 0
24.96 0.02 0
25.04 0.02 0
25.12 0.02 0
25.2 0.02 0
25.28 0.02 0
25.36 0.02 0
25.44 0.02 0
25.52 0.02 0
25.6 0.02 0
25.68 0.02 0
25.76 0.02 0
25.84 0.02 0
25.92 0.02 0
26 0.02 0
26.08 0.02 0
26.16 0.02 0
26.24 0.02 0
26.32 0.02 0
26.4 0.02 0
26.48 0.02 0
26.56 0.02 0
26.64 0.02 0
26.72 0.02 0
26.8 0.02 0
26.88 0.02 0
26.96 0.02 0
27.04 0.02 0
27.12 0.02 0
27.2 0.02 0
27.28 0.02 0
27.36 0.02 0
27.44 0.02 0
27.52 0.02 0
27.6 0.02 0
27.68 0.02 0
27.76 0.02 0
27.84 0.02 0
27.92 0.02 0
28 0.02 0
28.08 0.02 0
28.16 0.02 0
28.24 0.02 0
28.32 0.02 0
28.4 0.02 0
28.48 0.02 0
28.56 0.02 0
28.64 0.02 0
28.72 0.02 0
28.8 0.02 0
28.88 0.02 0
28.96 0.02 0
29.04 0.02 0
29.12 0.02 0
29.2 0.02 0
29.28 0.02 0
29.36 0.02 0
29.44 0.02 0
29.52 0.02 0
29.6 0.02 0
29.68 0.02 0
29.76 0.02 0
29.84 0.02 0
29.92 0.02 0
30 0.02 0
30.08 0.02 0
30.16 0.02 0
30.24 0.02 0
30.32 0.02 0
30.4 0.02 0
30.48 0.02 0
30.56 0.02 0
30.64 0.02 0
30.72 0.02 0
30.8 0.02 0
30.88 0.02 0
30.96 0.02 0
31.04 0.02 0
31.12 0.02 0
31.2 0.02 0
31.28 0.02 0
31.36 0.02 0
31.44 0.02 0
31.52 0.02 0
31.6 0.02 0
31.68 0.02 0
31.76 0.02 0
31.84 0.02 0
31.92 0.02 0
0 0.04 0
0.08 0.04 0
0.16 0.04 0
0.24 0.04 0
0.32 0.04 0
0.4 0.04 0
0.48 0.04 0
0.56 0.04 0
0.64 0.04 0
0.72 0.04 0
0.8 0.04 0
0.88 0.04 0
0.96 0.04 0
1.04 0.04 0
1.12 0.04 0
1.2 0.04 0
1.28 0.04 0
1.36 0.04 0
1.44 0.04 0
1.52 0.04 0
1.6 0.04 0
1.68 0.04 0
1.76 0.04 0
1.84 0.04 0
1.92 0.04 0
2 0.04 0
2.08 0.04 0
2.16 0.04 0
2.24 0.04 0
2.32 0.04 0
2.4 0.04 0
2.48 0.04 0
2.56 0.04 0
2.64 0.04 0
2.72 0.04 0
2.8 0.04 0
2.88 0.04 0
2.96 0.04 0
3.04 0.04 0
3.12 0.04 0
3.2 0.04 0
3.28 0.04 0
3.36 0.04 0
3.44 0.04 0
3.52 0.04 0
3.6 0.04 0
3.68 0.04 0
3.76 0.04 0
3.84 0.04 0
3.92 0.04 0
4 0.04 0
4.08 0.04 0
4.16 0.04 0
4.24 0.04 0
4.32 0.04 0
4.4 0.04 0
4.48 0.04 0
4.56 0.04 0
4.64 0.04 0
4.72 0.04 0
4.8 0.04 0
4.88 0.04 0
4.96 0.04 0
5.04 0.04 0
5.12 0.04 0
5.2 0.04 0
5.28 0.04 0
5.36 0.04 0
5.44 0.04 0
5.52 0.04 0
5.6 0.04 0
5.68 0.04 0
5.76 0.04 0
5.84 0.04 0
5.92 0.04 0
6 0.04 0
6.08 0.04 0
6.16 0.04 0
6.24 0.04 0
6.32 0.04 0
6.4 0.04 0
6.48 0.04 0
6.56 0.04 0
6.64 0.04 0
6.72 0.04 0
6.8 0.04 0
6.88 0.04 0
6.96 0.04 0
7.04 0.04 0
7.12 0.04 0
7.2 0.04 0
7.28 0.04 0
7.36 0.04 0
7.44 0.04 0
7.52 0.04 0
7.6 0.04 0
7.68 0.04 0
7.76 0.04 0
7.84 0.04 0
[...]
POINT_DATA 20000

SCALARS p float 1
LOOKUP_TABLE default
1
174.738
174.507
174.44
174.414
174.399
174.386
174.375
174.365
174.355
174.346
174.337
174.328
174.32
174.311
174.303
174.295
174.287
174.28
174.272
174.265
174.258
174.25
174.243
174.236
174.23
174.223
174.216
174.21
174.203
174.197
174.191
174.185
174.179
174.172
174.167
174.161
174.155
174.149
174.143
174.138
174.132
174.127
174.122
174.116
174.111
174.106
174.101
174.097
174.092
174.087
174.082
174.077
174.073
174.068
174.063
174.059
174.054
174.05
174.045
174.04
174.036
174.031
174.027
174.022
174.018
174.014
174.009
174.005
174
173.996
173.992
173.987
173.983
173.978
173.974
173.969
173.965
173.961
173.956
173.952
173.947
173.943
173.938
173.934
173.929
173.925
173.92
173.916
173.911
173.907
173.902
173.898
173.893
173.889
173.884
173.88
173.875
173.871
173.866
173.862
173.857
173.853
173.848
173.844
173.839
173.835
173.83
173.826
173.821
173.817
173.812
173.808
173.803
173.799
173.794
173.79
173.786
173.781
173.777
173.772
173.768
173.764
173.759
173.755
173.751
173.746
173.742
173.738
173.733
173.729
173.725
173.721
173.716
173.712
173.708
173.704
173.7
173.696
173.691
173.687
173.683
173.679
173.675
173.671
173.667
173.663
173.659
173.655
173.652
173.648
173.644
173.64
173.636
173.633
173.629
173.625
173.622
173.618
173.614
173.611
173.607
173.604
173.601
173.597
173.594
173.59
173.587
173.584
173.581
173.577
173.574
173.571
173.568
173.565
173.562
173.559
173.556
173.553
173.551
173.548
173.545
173.543
173.54
173.537
173.535
173.532
173.53
173.527
173.525
173.523
173.521
173.518
173.516
173.514
173.512
173.51
173.508
173.506
173.504
173.503
173.501
173.499
173.498
173.496
173.495
173.493
173.492
173.49
173.489
173.488
173.487
173.485
173.484
173.483
173.482
173.482
173.481
173.48
173.479
173.478
173.478
173.477
173.477
173.476
173.476
173.475
173.475
173.475
173.475
173.474
173.474
173.474
173.474
173.474
173.474
173.474
173.475
173.475
173.475
173.475
173.476
173.476
173.477
173.477
173.478
173.478
173.479
173.48
173.48
173.481
173.482
173.483
173.484
173.484
173.485
173.486
173.487
173.488
173.489
173.49
173.492
173.493
173.494
173.495
173.496
173.497
173.499
173.5
173.501
173.502
173.504
173.505
173.506
173.507
173.509
173.51
173.511
173.513
173.514
173.515
173.517
173.518
173.519
173.52
173.522
173.523
173.524
173.525
173.526
173.527
173.529
173.53
173.531
173.532
173.533
173.534
173.535
173.535
173.536
173.537
173.538
173.538
173.539
173.539
173.54
173.54
173.541
173.541
173.541
173.541
173.541
173.541
173.541
173.541
173.541
173.541
173.54
173.54
173.539
173.538
173.538
173.537
173.536
173.535
173.533
173.532
173.531
173.529
173.528
173.526
173.524
173.522
173.52
173.517
173.515
173.512
173.51
173.507
173.504
173.501
173.497
173.494
173.49
173.487
173.483
173.479
173.475
173.47
173.466
173.461
173.456
173.451
173.446
173.441
173.435
173.43
173.424
173.418
173.411
173.405
173.398
173.392
173.385
173.378
173.37
173.363
173.355
173.347
173.339
173.331
173.322
173.313
173.304
173.295
173.286
173.276
173.267
173.257
173.247
173.236
173.226
173.215
173.204
173.193
173.182
173.17
173.158
173.146
173.134
173.122
173.109
173.096
173.083
173.07
173.057
173.043
173.029
173.015
0.5
174.738
174.738
174.507
174.44
174.414
174.399
174.386
174.375
174.365
174.355
174.346
174.337
174.328
174.32
174.311
174.303
174.295
174.287
174.28
174.272
174.265
174.258
174.25
174.243
174.236
174.23
174.223
174.216
174.21
174.203
174.197
174.191
174.185
174.179
174.172
174.167
174.161
174.155
174.149
174.143
174.138
174.132
174.127
174.122
174.116
174.111
174.106
174.101
174.097
174.092
174.087
174.082
174.077
174.073
174.068
174.063
174.059
174.054
174.05
174.045
174.04
174.036
174.031
174.027
174.022
174.018
174.014
174.009
174.005
174
173.996
173.992
173.987
173.983
173.978
173.974
173.969
173.965
173.961
173.956
173.952
173.947
173.943
173.938
173.934
173.929
173.925
173.92
173.916
173.911
173.907
173.902
173.898
173.893
173.889
173.884
173.88
173.875
173.871
173.866
173.862
173.857
173.853
173.848
173.844
173.839
173.835
173.83
173.826
173.821
173.817
173.812
173.808
173.803
173.799
173.794
173.79
173.786
173.781
173.777
173.772
173.768
173.764
173.759
173.755
173.751
173.746
173.742
173.738
173.733
173.729
173.725
173.721
173.716
173.712
173.708
173.704
173.7
173.696
173.691
173.687
173.683
173.679
173.675
173.671
173.667
173.663
173.659
173.655
173.652
173.648
173.644
173.64
173.636
173.633
173.629
173.625
173.622
173.618
173.614
173.611
173.607
173.604
173.601
173.597
173.594
173.59
173.587
173.584
173.581
173.577
173.574
173.571
173.568
173.565
173.562
173.559
173.556
173.553
173.551
173.548
173.545
173.543
173.54
173.537
173.535
173.532
173.53
173.527
173.525
173.523
173.521
173.518
173.516
173.514
173.512
173.51
173.508
173.506
173.504
173.503
173.501
173.499
173.498
173.496
173.495
173.493
173.492
173.49
173.489
173.488
173.487
173.485
173.484
173.483
173.482
173.482
173.481
173.48
173.479
173.478
173.478
173.477
173.477
173.476
173.476
173.475
173.475
173.475
173.475
173.474
173.474
173.474
173.474
173.474
173.474
173.474
173.475
173.475
173.475
173.475
173.476
173.476
173.477
173.477
173.478
173.478
173.479
173.48
173.48
173.481
173.482
173.483
173.484
173.484
173.485
173.486
173.487
173.488
173.489
173.49
173.492
173.493
173.494
173.495
173.496
173.497
173.499
173.5
173.501
173.502
173.504
173.505
173.506
173.507
173.509
173.51
173.511
173.513
173.514
173.515
173.517
173.518
173.519
173.52
173.522
173.523
173.524
173.525
173.526
173.527
173.529
173.53
173.531
173.532
173.533
173.534
173.535
173.535
173.536
173.537
173.538
173.538
173.539
173.539
173.54
173.54
173.541
173.541
173.541
173.541
173.541
173.541
173.541
173.541
173.541
173.541
173.54
173.54
173.539
173.538
173.538
173.537
173.536
173.535
173.533
173.532
173.531
173.529
173.528
173.526
173.524
173.522
173.52
173.517
173.515
173.512
173.51
173.507
173.504
173.501
173.497
173.494
173.49
173.487
173.483
173.479
173.475
173.47
173.466
173.461
173.456
173.451
173.446
173.441
173.435
173.43
173.424
173.418
173.411
173.405
173.398
173.392
173.385
173.378
173.37
173.363
173.355
173.347
173.339
173.331
173.322
173.313
173.304
173.295
173.286
173.276
173.267
173.257
173.247
173.236
173.226
173.215
173.204
173.193
173.182
173.17
173.158
173.146
173.134
173.122
173.109
173.096
173.083
173.07
173.057
173.043
173.029
173.015
173.015
174.688
174.688
174.512
174.444
174.417
174.4
174.387
174.376
174.366
174.356
174.347
174.338
174.329
174.32
174.312
174.303
174.295
174.288
174.28
174.272
174.265
174.258
174.25
174.243
174.237
174.23
174.223
174.216
174.21
174.203
174.197
174.191
174.185
174.179
174.173
174.167
174.161
174.155
174.149
174.144
174.138
174.132
174.127
174.122
174.117
174.111
174.106
174.101
174.097
174.092
174.087
174.082
174.077
174.073
174.068
174.064
174.059
174.054
174.05
174.045
174.04
174.036
174.031
174.027
174.022
174.018
174.014
174.009
174.005
174
173.996
173.992
173.987
173.983
173.978
173.974
173.969
173.965
173.961
173.956
173.952
173.947
173.943
173.938
173.934
173.929
173.925
173.92
173.916
173.911
173.907
173.902
173.898
173.893
173.889
173.884
173.88
173.875
173.871
173.866
173.862
173.857
173.853
173.848
173.844
173.839
173.835
173.83
173.826
173.821
173.817
173.812
173.808
173.803
173.799
173.794
173.79
173.786
173.781
173.777
173.772
173.768
173.764
173.759
173.755
173.751
173.746
173.742
173.738
173.733
173.729
173.725
173.721
173.716
173.712
173.708
173.704
173.7
173.696
173.691
173.687
173.683
173.679
173.675
173.671
173.667
173.663
173.659
173.655
173.652
173.648
173.644
173.64
173.636
173.633
173.629
173.625
173.622
173.618
173.614
173.611
173.607
173.604
173.601
173.597
173.594
173.59
173.587
173.584
173.581
173.577
173.574
173.571
173.568
173.565
173.562
173.559
173.556
173.553
173.551
173.548
173.545
173.543
173.54
173.537
173.535
173.532
173.53
173.527
173.525
173.523
173.521
173.518
173.516
173.514
173.512
173.51
173.508
173.506
173.505
173.503
173.501
173.499
173.498
173.496
173.495
173.493
173.492
173.49
173.489
173.488
173.487
173.486
173.484
173.483
173.482
173.482
173.481
173.48
173.479
173.478
173.478
173.477
173.477
173.476
173.476
173.475
173.475
173.475
173.475
173.474
173.474
173.474
173.474
173.474
173.474
173.474
173.475
173.475
173.475
173.475
173.476
173.476
173.477
173.477
173.478
173.478
173.479
173.48
173.48
173.481
173.482
173.483
173.484
173.484
173.485
173.486
173.487
173.488
173.489
173.49
173.492
173.493
173.494
173.495
173.496
173.497
173.499
173.5
173.501
173.502
173.504
173.505
173.506
173.508
173.509
173.51
173.511
173.513
173.514
173.515
173.517
173.518
173.519
173.52
173.522
173.523
173.524
173.525
173.526
173.528
173.529
173.53
173.531
173.532
173.533
173.534
173.535
173.535
173.536
173.537
173.538
173.538
173.539
173.54
173.54
173.54
173.541
173.541
173.541
173.541
173.542
173.542
173.541
173.541
173.541
173.541
173.54
173.54
173.539
173.539
173.538
173.537
173.536
173.535
173.534
173.532
173.531
173.529
173.528
173.526
173.524
173.522
173.52
173.517
173.515
173.512
173.51
173.507
173.504
173.501
173.498
173.494
173.491
173.487
173.483
173.479
173.475
173.47
173.466
173.461
173.456
173.451
173.446
173.441
173.435
173.43
173.424
173.418
173.411
173.405
173.398
173.392
173.385
173.378
173.37
173.363
173.355
173.347
173.339
173.331
173.322
173.313
173.304
173.295
173.286
173.277
173.267
173.257
173.247
173.236
173.226
173.215
173.204
173.193
173.182
173.17
173.158
173.146
173.134
173.122
173.109
173.096
173.083
173.07
173.057
173.043
173.029
173.015
173.015
174.647
174.647
174.515
174.449
174.42
174.402
174.388
174.377
174.366
174.356
174.347
174.338
174.329
174.32
174.312
174.304
174.296
174.288
174.28
174.272
174.265
174.258
174.251
174.244
174.237
174.23
174.223
174.216
174.21
174.204
174.197
174.191
174.185
174.179
174.173
174.167
174.161
174.155
174.149
174.144
174.138
174.132
174.127
174.122
174.117
174.111
174.106
174.102
174.097
174.092
174.087
174.082
174.077
174.073
174.068
174.064
174.059
174.054
174.05
174.045
174.04
174.036
174.031
174.027
174.022
174.018
174.014
174.009
174.005
174
173.996
173.992
173.987
173.983
173.978
173.974
173.969
173.965
173.961
173.956
173.952
173.947
173.943
173.938
173.934
173.929
173.925
173.92
173.916
173.911
173.907
173.902
173.898
173.893
173.889
173.884
173.88
173.875
173.871
173.866
173.862
173.857
173.853
173.848
173.844
173.839
173.835
173.83
173.826
173.821
173.817
173.812
173.808
173.803
173.799
173.794
173.79
173.786
173.781
173.777
173.772
173.768
173.764
173.759
173.755
173.751
173.746
173.742
173.738
173.733
173.729
173.725
173.721
173.716
173.712
173.708
173.704
173.7
173.696
173.691
173.687
173.683
173.679
173.675
173.671
173.667
173.663
173.659
173.655
173.652
173.648
173.644
173.64
173.636
173.633
173.629
173.625
173.622
173.618
173.614
173.611
173.607
173.604
173.601
173.597
173.594
173.59
173.587
173.584
173.581
173.577
173.574
173.571
173.568
173.565
173.562
173.559
173.556
173.553
173.551
173.548
173.545
173.543
173.54
173.537
173.535
173.532
173.53
173.527
173.525
173.523
173.521
173.518
173.516
173.514
173.512
173.51
173.508
173.506
173.505
173.503
173.501
173.499
173.498
173.496
173.495
173.493
173.492
173.49
173.489
173.488
173.487
173.486
173.484
173.483
173.482
173.482
173.481
173.48
173.479
173.478
173.478
173.477
173.477
173.476
173.476
173.475
173.475
173.475
173.475
173.474
173.474
173.474
173.474
173.474
173.474
173.474
173.475
173.475
173.475
173.475
173.476
173.476
173.477
173.477
173.478
173.478
173.479
173.48
173.48
173.481
173.482
173.483
173.484
173.484
173.485
173.486
173.487
173.488
173.489
173.49
173.492
173.493
173.494
173.495
173.496
173.497
173.499
173.5
173.501
173.502
173.504
173.505
173.506
173.508
173.509
173.51
173.511
173.513
173.514
173.515
173.517
173.518
173.519
173.52
173.522
173.523
173.524
173.525
173.526
173.528
173.529
173.53
173.531
173.532
173.533
173.534
173.535
173.535
173.536
173.537
173.538
173.538
173.539
173.54
173.54
173.54
173.541
173.541
173.541
173.541
173.542
173.542
173.541
173.541
173.541
173.541
173.54
173.54
173.539
173.539
173.538
173.537
173.536
173.535
173.534
173.532
173.531
173.529
173.528
173.526
173.524
173.522
173.52
173.517
173.515
173.512
173.51
173.507
173.504
173.501
173.497
173.494
173.491
173.487
173.483
173.479
173.475
173.47
173.466
173.461
173.456
173.451
173.446
173.441
173.435
173.43
173.424
173.418
173.411
173.405
173.398
173.392
173.385
173.378
173.37
173.363
173.355
173.347
173.339
173.331
173.322
173.313
173.304
173.295
173.286
173.277
173.267
173.257
173.247
173.236
173.226
173.215
173.204
173.193
173.182
173.17
173.158
173.146
173.134
173.122
173.109
173.096
173.083
173.07
173.057
173.043
173.029
173.015
173.015
174.616
174.616
174.515
174.454
174.423
174.404
174.39
174.378
174.367
174.357
174.347
174.338
174.329
174.321
174.312
174.304
174.296
174.288
174.28
174.273
174.265
174.258
174.251
174.244
174.237
174.23
174.223
174.217
174.21
174.204
174.197
174.191
174.185
174.179
174.173
174.167
174.161
174.155
174.149
174.144
174.138
174.132
174.127
174.122
174.117
174.111
174.106
174.102
174.097
174.092
174.087
174.082
174.077
174.073
174.068
174.064
174.059
174.054
174.05
174.045
174.04
174.036
174.031
174.027
174.022
174.018
174.014
174.009
174.005
174
173.996
173.992
173.987
173.983
173.978
173.974
173.969
173.965
173.961
173.956
173.952
173.947
173.943
173.938
173.934
173.929
173.925
173.92
173.916
173.911
173.907
173.902
173.898
173.893
173.889
173.884
173.88
173.875
173.871
173.866
173.862
173.857
173.853
173.848
173.844
173.839
173.835
173.83
173.826
173.821
173.817
173.812
173.808
173.803
173.799
173.794
173.79
173.786
173.781
173.777
173.772
173.768
173.764
173.759
173.755
173.751
173.746
173.742
173.738
173.733
173.729
173.725
173.721
173.716
173.712
173.708
173.704
173.7
173.696
173.691
173.687
173.683
173.679
173.675
173.671
173.667
173.663
173.659
173.655
173.652
173.648
173.644
173.64
173.636
173.633
173.629
173.625
173.622
173.618
173.614
173.611
173.607
173.604
173.601
173.597
173.594
173.59
173.587
173.584
173.581
173.577
173.574
173.571
173.568
173.565
173.562
173.559
173.556
173.553
173.551
173.548
173.545
173.543
173.54
173.537
173.535
173.532
173.53
173.527
173.525
173.523
173.521
173.518
173.516
173.514
173.512
173.51
173.508
173.506
173.505
173.503
173.501
173.499
173.498
173.496
173.495
173.493
173.492
173.49
173.489
173.488
173.487
173.486
173.484
173.483
173.482
173.482
173.481
173.48
173.479
173.478
173.478
173.477
173.477
173.476
173.476
173.475
173.475
173.475
173.475
173.474
173.474
173.474
173.474
173.474
173.474
173.474
173.475
173.475
173.475
173.475
173.476
173.476
173.477
173.477
173.478
173.478
173.479
173.48
173.48
173.481
173.482
173.483
173.484
173.484
173.485
173.486
173.487
173.488
173.489
173.49
173.492
173.493
173.494
173.495
173.496
173.497
173.499
173.5
173.501
173.502
173.504
173.505
173.506
173.508
173.509
173.51
173.511
173.513
173.514
173.515
173.517
173.518
173.519
173.52
173.522
173.523
173.524
173.525
173.526
173.528
173.529
173.53
173.531
173.532
173.533
173.534
173.535
173.535
173.536
173.537
173.538
173.538
173.539
173.54
173.54
173.54
173.541
173.541
173.541
173.541
173.542
173.542
173.541
173.541
173.541
173.541
173.54
173.54
173.539
173.539
173.538
173.537
173.536
173.535
173.534
173.532
173.531
173.529
173.528
173.526
173.524
173.522
173.52
173.517
173.515
173.512
173.51
173.507
173.504
173.501
173.497
173.494
173.49
173.487
173.483
173.479
173.475
173.47
173.466
173.461
173.456
173.451
173.446
173.441
173.435
173.43
173.424
173.418
173.411
173.405
173.398
173.392
173.385
173.378
173.37
173.363
173.355
173.347
173.339
173.331
173.322
173.313
173.304
173.295
173.286
173.276
173.267
173.257
173.247
173.236
173.226
173.215
173.204
173.193
173.182
173.17
173.158
173.146
173.134
173.122
173.109
173.096
173.083
173.07
173.057
173.043
173.029
173.015
173.015
174.59
174.59
174.513
174.458
174.427
174.407
174.392
174.379
174.368
174.358
174.348
174.339
174.33
174.321
174.312
174.304
174.296
174.288
174.28
174.273
174.265
174.258
174.251
174.244
174.237
174.23
174.223
174.217
174.21
174.204
174.197
174.191
174.185
174.179
174.173
174.167
174.161
174.155
174.149
174.144
174.138
174.132
174.127
174.122
174.117
174.111
174.106
174.102
174.097
174.092
174.087
174.082
174.077
174.073
174.068
174.064
174.059
174.054
174.05
174.045
174.04
174.036
174.031
174.027
174.022
174.018
174.014
174.009
174.005
174
173.996
173.992
173.987
173.983
173.978
173.974
173.969
173.965
173.961
173.956
173.952
173.947
173.943
173.938
173.934
173.929
173.925
173.92
173.916
173.911
173.907
173.902
173.898
173.893
173.889
173.884
173.88
173.875
173.871
173.866
173.862
173.857
173.853
173.848
173.844
173.839
173.835
173.83
173.826
173.821
173.817
173.812
173.808
173.803
173.799
173.794
173.79
173.786
173.781
173.777
173.772
173.768
173.764
173.759
173.755
173.751
173.746
173.742
173.738
173.733
173.729
173.725
173.721
173.716
173.712
173.708
173.704
173.7
173.696
173.691
173.687
173.683
173.679
173.675
173.671
173.667
173.663
173.659
173.655
173.652
173.648
173.644
173.64
173.636
173.633
173.629
173.625
173.622
173.618
173.614
173.611
173.607
173.604
173.601
173.597
173.594
173.59
173.587
173.584
173.581
173.577
173.574
173.571
173.568
173.565
173.562
173.559
173.556
173.553
173.551
173.548
173.545
173.543
173.54
173.537
173.535
173.532
173.53
173.527
173.525
173.523
173.521
173.518
173.516
173.514
173.512
173.51
173.508
173.506
173.505
173.503
173.501
173.499
173.498
173.496
173.495
173.493
173.492
173.49
173.489
173.488
173.487
173.486
173.484
173.483
173.482
173.482
173.481
173.48
173.479
173.478
173.478
173.477
173.477
173.476
173.476
173.475
173.475
173.475
173.475
173.474
173.474
173.474
173.474
173.474
173.474
173.474
173.475
173.475
173.475
173.475
173.476
173.476
173.477
173.477
173.478
173.478
173.479
173.48
173.48
173.481
173.482
173.483
173.484
173.484
173.485
173.486
173.487
173.488
173.489
173.49
173.492
173.493
173.494
173.495
173.496
173.497
173.499
173.5
173.501
173.502
173.504
173.505
173.506
173.508
173.509
173.51
173.511
173.513
173.514
173.515
173.517
173.518
173.519
173.52
173.522
173.523
173.524
173.525
173.526
173.528
173.529
173.53
173.531
173.532
173.533
173.534
173.535
173.535
173.536
173.537
173.538
173.538
173.539
173.539
173.54
173.54
173.541
173.541
173.541
173.541
173.542
173.542
173.541
173.541
173.541
173.541
173.54
173.54
173.539
173.539
173.538
173.537
173.536
173.535
173.534
173.532
173.531
173.529
173.528
173.526
173.524
173.522
173.52
173.517
173.515
173.512
173.51
173.507
173.504
173.501
173.497
173.494
173.49
173.487
173.483
173.479
173.475
173.47
173.466
173.461
173.456
173.451
173.446
173.441
173.435
173.43
173.424
173.418
173.411
173.405
173.398
173.392
173.385
173.377
173.37
173.363
173.355
173.347
173.339
173.331
173.322
173.313
173.304
173.295
173.286
173.276
173.267
173.257
173.247
173.236
173.226
173.215
173.204
173.193
173.182
173.17
173.158
173.146
173.134
173.122
173.109
173.096
173.083
173.07
173.057
173.043
173.029
173.015
173.015
174.569
174.569
174.509
174.461
174.43
174.409
174.394
174.381
174.369
174.359
174.349
174.339
174.33
174.321
174.313
174.304
174.296
174.288
174.28
174.273
174.265
174.258
174.251
174.244
174.237
174.23
174.223
174.217
174.21
174.204
174.197
174.191
174.185
174.179
174.173
174.167
174.161
174.155
174.149
174.144
174.138
174.132
174.127
174.122
174.117
174.111
174.106
174.102
174.097
174.092
174.087
174.082
174.077
174.073
174.068
174.064
174.059
174.054
174.05
174.045
174.04
174.036
174.031
174.027
174.022
174.018
174.014
174.009
174.005
174
173.996
173.992
173.987
173.983
173.978
173.974
173.969
173.965
173.961
173.956
173.952
173.947
173.943
173.938
173.934
173.929
173.925
173.92
173.916
173.911
173.907
173.902
173.898
173.893
173.889
173.884
173.88
173.875
173.871
173.866
173.862
173.857
173.853
173.848
173.844
173.839
173.835
173.83
173.826
173.821
173.817
173.812
173.808
173.803
173.799
173.794
173.79
173.786
173.781
173.777
173.772
173.768
173.764
173.759
173.755
173.751
173.746
173.742
173.738