# vtk DataFile Version 2.0
FlowField
ASCII
DATASET STRUCTURED_GRID
DIMENSIONS 400 1 50
POINTS 20000 float
0 0 0
0.08 0 0
0.16 0 0
0.24 0 0
0.32 0 0
0.4 0 0
0.48 0 0
0.56 0 0
0.64 0 0
0.72 0 0
0.8 0 0
0.88 0 0
0.96 0 0
1.04 0 0
1.12 0 0
1.2 0 0
1.28 0 0
1.36 0 0
1.44 0 0
1.52 0 0
1.6 0 0
1.68 0 0
1.76 0 0
1.84 0 0
1.92 0 0
2 0 0
2.08 0 0
2.16 0 0
2.24 0 0
2.32 0 0
2.4 0 0
2.48 0 0
2.56 0 0
2.64 0 0
2.72 0 0
2.8 0 0
2.88 0 0
2.96 0 0
3.04 0 0
3.12 0 0
3.2 0 0
3.28 0 0
3.36 0 0
3.44 0 0
3.52 0 0
3.6 0 0
3.68 0 0
3.76 0 0
3.84 0 0
3.92 0 0
4 0 0
4.08 0 0
4.16 0 0
4.24 0 0
4.32 0 0
4.4 0 0
4.48 0 0
4.56 0 0
4.64 0 0
4.72 0 0
4.8 0 0
4.88 0 0
4.96 0 0
5.04 0 0
5.12 0 0
5.2 0 0
5.28 0 0
5.36 0 0
5.44 0 0
5.52 0 0
5.6 0 0
5.68 0 0
5.76 0 0
5.84 0 0
5.92 0 0
6 0 0
6.08 0 0
6.16 0 0
6.24 0 0
6.32 0 0
6.4 0 0
6.48 0 0
6.56 0 0
6.64 0 0
6.72 0 0
6.8 0 0
6.88 0 0
6.96 0 0
7.04 0 0
7.12 0 0
7.2 0 0
7.28 0 0
7.36 0 0
7.44 0 0
7.52 0 0
7.6 0 0
7.68 0 0
7.76 0 0
7.84 0 0
7.92 0 0
8 0 0
8.08 0 0
8.16 0 0
8.24 0 0
8.32 0 0
8.4 0 0
8.48 0 0
8.56 0 0
8.64 0 0
8.72 0 0
8.8 0 0
8.88 0 0
8.96 0 0
9.04 0 0
9.12 0 0
9.2 0 0
9.28 0 0
9.36 0 0
9.44 0 0
9.52 0 0
9.6 0 0
9.68 0 0
9.76 0 0
9.84 0 0
9.92 0 0
10 0 0
10.08 0 0
10.16 0 0
10.24 0 0
10.32 0 0
10.4 0 0
10.48 0 0
10.56 0 0
10.64 0 0
10.72 0 0
10.8 0 0
10.88 0 0
10.96 0 0
11.04 0 0
11.12 0 0
11.2 0 0
11.28 0 0
11.36 0 0
11.44 0 0
11.52 0 0
11.6 0 0
11.68 0 0
11.76 0 0
11.84 0 0
11.92 0 0
12 0 0
12.08 0 0
12.16 0 0
12.24 0 0
12.32 0 0
12.4 0 0
12.48 0 0
12.56 0 0
12.64 0 0
12.72 0 0
12.8 0 0
12.88 0 0
12.96 0 0
13.04 0 0
13.12 0 0
13.2 0 0
13.28 0 0
13.36 0 0
13.44 0 0
13.52 0 0
13.6 0 0
13.68 0 0
13.76 0 0
13.84 0 0
13.92 0 0
14 0 0
14.08 0 0
14.16 0 0
14.24 0 0
14.32 0 0
14.4 0 0
14.48 0 0
14.56 0 0
14.64 0 0
14.72 0 0
14.8 0 0
14.88 0 0
14.96 0 0
15.04 0 0
15.12 0 0
15.2 0 0
15.28 0 0
15.36 0 0
15.44 0 0
15.52 0 0
15.6 0 0
15.68 0 0
15.76 0 0
15.84 0 0
15.92 0 0
16 0 0
16.08 0 0
16.16 0 0
16.24 0 0
16.32 0 0
16.4 0 0
16.48 0 0
16.56 0 0
16.64 0 0
16.72 0 0
16.8 0 0
16.88 0 0
16.96 0 0
17.04 0 0
17.12 0 0
17.2 0 0
17.28 0 0
17.36 0 0
17.44 0 0
17.52 0 0
17.6 0 0
17.68 0 0
17.76 0 0
17.84 0 0
17.92 0 0
18 0 0
18.08 0 0
18.16 0 0
18.24 0 0
18.32 0 0
18.4 0 0
18.48 0 0
18.56 0 0
18.64 0 0
18.72 0 0
18.8 0 0
18.88 0 0
18.96 0 0
19.04 0 0
19.12 0 0
19.2 0 0
19.28 0 0
19.36 0 0
19.44 0 0
19.52 0 0
19.6 0 0
19.68 0 0
19.76 0 0
19.84 0 0
19.92 0 0
20 0 0
20.08 0 0
20.16 0 0
20.24 0 0
20.32 0 0
20.4 0 0
20.48 0 0
20.56 0 0
20.64 0 0
20.72 0 0
20.8 0 0
20.88 0 0
20.96 0 0
21.04 0 0
21.12 0 0
21.2 0 0
21.28 0 0
21.36 0 0
21.44 0 0
21.52 0 0
21.6 0 0
21.68 0 0
21.76 0 0
21.84 0 0
21.92 0 0
22 0 0
22.08 0 0
22.16 0 0
22.24 0 0
22.32 0 0
22.4 0 0
22.48 0 0
22.56 0 0
22.64 0 0
22.72 0 0
22.8 0 0
22.88 0 0
22.96 0 0
23.04 0 0
23.12 0 0
23.2 0 0
23.28 0 0
23.36 0 0
23.44 0 0
23.52 0 0
23.6 0 0
23.68 0 0
23.76 0 0
23.84 0 0
23.92 0 0
24 0 0
24.08 0 0
24.16 0 0
24.24 0 0
24.32 0 0
24.4 0 0
24.48 0 0
24.56 0 0
24.64 0 0
24.72 0 0
24.8 0 0
24.88 0 0
24.96 0 0
25.04 0 0
25.12 0 0
25.2 0 0
25.28 0 0
25.36 0 0
25.44 0 0
25.52 0 0
25.6 0 0
25.68 0 0
25.76 0 0
25.84 0 0
25.92 0 0
26 0 0
26.08 0 0
26.16 0 0
26.24 0 0
26.32 0 0
26.4 0 0
26.48 0 0
26.56 0 0
26.64 0 0
26.72 0 0
26.8 0 0
26.88 0 0
26.96 0 0
27.04 0 0
27.12 0 0
27.2 0 0
27.28 0 0
27.36 0 0
27.44 0 0
27.52 0 0
27.6 0 0
27.68 0 0
27.76 0 0
27.84 0 0
27.92 0 0
28 0 0
28.08 0 0
28.16 0 0
28.24 0 0
28.32 0 0
28.4 0 0
28.48 0 0
28.56 0 0
28.64 0 0
28.72 0 0
28.8 0 0
28.88 0 0
28.96 0 0
29.04 0 0
29.12 0 0
29.2 0 0
29.28 0 0
29.36 0 0
29.44 0 0
29.52 0 0
29.6 0 0
29.68 0 0
29.76 0 0
29.84 0 0
29.92 0 0
30 0 0
30.08 0 0
30.16 0 0
30.24 0 0
30.32 0 0
30.4 0 0
30.48 0 0
30.56 0 0
30.64 0 0
30.72 0 0
30.8 0 0
30.88 0 0
30.96 0 0
31.04 0 0
31.12 0 0
31.2 0 0
31.28 0 0
31.36 0 0
31.44 0 0
31.52 0 0
31.6 0 0
31.68 0 0
31.76 0 0
31.84 0 0
31.92 0 0
0 0.02 0
0.08 0.02 0
0.16 0.02 0
0.24 0.02 0
0.32 0.02 0
0.4 0.02 0
0.48 0.02 0
0.56 0.02 0
0.64 0.02 0
0.72 0.02 0
0.8 0.02 0
0.88 0.02 0
0.96 0.02 0
1.04 0.02 0
1.12 0.02 0
1.2 0.02 0
1.28 0.02 0
1.36 0.02 0
1.44 0.02 0
1.52 0.02 0
1.6 0.02 0
1.68 0.02 0
1.76 0.02 0
1.84 0.02 0
1.92 0.02 0
2 0.02 0
2.08 0.02 0
2.16 0.02 0
2.24 0.02 0
2.32 0.02 0
2.4 0.02 0
2.48 0.02 0
2.56 0.02 0
2.64 0.02 0
2.72 0.02 0
2.8 0.02 0
2.88 0.02 0
2.96 0.02 0
3.04 0.02 0
3.12 0.02 0
3.2 0.02 0
3.28 0.02 0
3.36 0.02 0
3.44 0.02 0
3.52 0.02 0
3.6 0.02 0
3.68 0.02 0
3.76 0.02 0
3.84 0.02 0
3.92 0.02 0
4 0.02 0
4.08 0.02 0
4.16 0.02 0
4.24 0.02 0
4.32 0.02 0
4.4 0.02 0
4.48 0.02 0
4.56 0.02 0
4.64 0.02 0
4.72 0.02 0
4.8 0.02 0
4.88 0.02 0
4.96 0.02 0
5.04 0.02 0
5.12 0.02 0
5.2 0.02 0
5.28 0.02 0
5.36 0.02 0
5.44 0.02 0
5.52 0.02 0
5.6 0.02 0
5.68 0.02 0
5.76 0.02 0
5.84 0.02 0
5.92 0.02 0
6 0.02 0
6.08 0.02 0
6.16 0.02 0
6.24 0.02 0
6.32 0.02 0
6.4 0.02 0
6.48 0.02 0
6.56 0.02 0
6.64 0.02 0
6.72 0.02 0
6.8 0.02 0
6.88 0.02 0
6.96 0.02 0
7.04 0.02 0
7.12 0.02 0
7.2 0.02 0
7.28 0.02 0
7.36 0.02 0
7.44 0.02 0
7.52 0.02 0
7.6 0.02 0
7.68 0.02 0
7.76 0.02 0
7.84 0.02 0
7.92 0.02 0
8 0.02 0
8.08 0.02 0
8.16 0.02 0
8.24 0.02 0
8.32 0.02 0
8.4 0.02 0
8.48 0.02 0
8.56 0.02 0
8.64 0.02 0
8.72 0.02 0
8.8 0.02 0
8.88 0.02 0
8.96 0.02 0
9.04 0.02 0
9.12 0.02 0
9.2 0.02 0
9.28 0.02 0
9.36 0.02 0
9.44 0.02 0
9.52 0.02 0
9.6 0.02 0
9.68 0.02 0
9.76 0.02 0
9.84 0.02 0
9.92 0.02 0
10 0.02 0
10.08 0.02 0
10.16 0.02 0
10.24 0.02 0
10.32 0.02 0
10.4 0.02 0
10.48 0.02 0
10.56 0.02 0
10.64 0.02 0
10.72 0.02 0
10.8 0.02 0
10.88 0.02 0
10.96 0.02 0
11.04 0.02 0
11.12 0.02 0
11.2 0.02 0
11.28 0.02 0
11.36 0.02 0
11.44 0.02 0
11.52 0.02 0
11.6 0.02 0
11.68 0.02 0
11.76 0.02 0
11.84 0.02 0
11.92 0.02 0
12 0.02 0
12.08 0.02 0
12.16 0.02 0
12.24 0.02 0
12.32 0.02 0
12.4 0.02 0
12.48 0.02 0
12.56 0.02 0
12.64 0.02 0
12.72 0.02 0
12.8 0.02 0
12.88 0.02 0
12.96 0.02 0
13.04 0.02 0
13.12 0.02 0
13.2 0.02 0
13.28 0.02 0
13.36 0.02 0
13.44 0.02 0
13.52 0.02 0
13.6 0.02 0
13.68 0.02 0
13.76 0.02 0
13.84 0.02 0
13.92 0.02 0
14 0.02 0
14.08 0.02 0
14.16 0.02 0
14.24 0.02 0
14.32 0.02 0
14.4 0.02 0
14.48 0.02 0
14.56 0.02 0
14.64 0.02 0
14.72 0.02 0
14.8 0.02 0
14.88 0.02 0
14.96 0.02 0
15.04 0.02 0
15.12 0.02 0
15.2 0.02 0
15.28 0.02 0
15.36 0.02 0
15.44 0.02 0
15.52 0.02 0
15.6 0.02 0
15.68 0.02 0
15.76 0.02 0
15.84 0.02 0
15.92 0.02 0
16 0.02 0
16.08 0.02 0
16.16 0.02 0
16.24 0.02 0
16.32 0.02 0
16.4 0.02 0
16.48 0.02 0
16.56 0.02 0
16.64 0.02 0
16.72 0.02 0
16.8 0.02 0
16.88 0.02 0
16.96 0.02 0
17.04 0.02 0
17.12 0.02 0
17.2 0.02 0
17.28 0.02 0
17.36 0.02 0
17.44 0.02 0
17.52 0.02 0
17.6 0.02 0
17.68 0.02 0
17.76 0.02 0
17.84 0.02 0
17.92 0.02 0
18 0.02 0
18.08 0.02 0
18.16 0.02 0
18.24 0.02 0
18.32 0.02 0
18.4 0.02 0
18.48 0.02 0
18.56 0.02 0
18.64 0.02 0
18.72 0.02 0
18.8 0.02 0
18.88 0.02 0
18.96 0.02 0
19.04 0.02 0
19.12 0.02 0
19.2 0.02 0
19.28 0.02 0
19.36 0.02 0
19.44 0.02 0
19.52 0.02 0
19.6 0.02 0
19.68 0.02 0
19.76 0.02 0
19.84 0.02 0
19.92 0.02 0
20 0.02 0
20.08 0.02 0
20.16 0.02 0
20.24 0.02 0
20.32 0.02 0
20.4 0.02 0
20.48 0.02 0
20.56 0.02 0
20.64 0.02 0
20.72 0.02 0
20.8 0.02 0
20.88 0.02 0
20.96 0.02 0
21.04 0.02 0
21.12 0.02 0
21.2 0.02 0
21.28 0.02 0
21.36 0.02 0
21.44 0.02 0
21.52 0.02 0
21.6 0.02 0
21.68 0.02 0
21.76 0.02 0
21.84 0.02 0
21.92 0.02 0
22 0.02 0
22.08 0.02 0
22.16 0.02 0
22.24 0.02 0
22.32 0.02 0
22.4 0.02 0
22.48 0.02 0
22.56 0.02 0
22.64 0.02 0
22.72 0.02 0
22.8 0.02 0
22.88 0.02 0
22.96 0.02 0
23.04 0.02 0
23.12 0.02 0
23.2 0.02 0
23.28 0.02 0
23.36 0.02 0
23.44 0.02 0
23.52 0.02 0
23.6 0.02 0
23.68 0.02 0
23.76 0.02 0
23.84 0.02 0
23.92 0.02 0
24 0.02 0
24.08 0.02 0
24.16 0.02 0
24.24 0.02 0
24.32 0.02 0
24.4 0.02 0
24.48 0.02 0
24.56 0.02 0
24.64 0.02 0
24.72 0.02 0
24.8 0.02 0
24.88 0.02 0
24.96 0.02 0
25.04 0.02 0
25.12 0.02 0
25.2 0.02 0
25.28 0.02 0
25.36 0.02 0
25.44 0.02 0
25.52 0.02 0
25.6 0.02 0
25.68 0.02 0
25.76 0.02 0
25.84 0.02 0
25.92 0.02 0
26 0.02 0
26.08 0.02 0
26.16 0.02 0
26.24 0.02 0
26.32 0.02 0
26.4 0.02 0
26.48 0.02 0
26.56 0.02 0
26.64 0.02 0
26.72 0.02 0
26.8 0.02 0
26.88 0.02 0
26.96 0.02 0
27.04 0.02 0
27.12 0.02 0
27.2 0.02 0
27.28 0.02 0
27.36 0.02 0
27.44 0.02 0
27.52 0.02 0
27.6 0.02 0
27.68 0.02 0
27.76 0.02 0
27.84 0.02 0
27.92 0.02 0
28 0.02 0
28.08 0.02 0
28.16 0.02 0
28.24 0.02 0
28.32 0.02 0
28.4 0.02 0
28.48 0.02 0
28.56 0.02 0
28.64 0.02 0
28.72 0.02 0
28.8 0.02 0
28.88 0.02 0
28.96 0.02 0
29.04 0.02 0
29.12 0.02 0
29.2 0.02 0
29.28 0.02 0
29.36 0.02 0
29.44 0.02 0
29.52 0.02 0
29.6 0.02 0
29.68 0.02 0
29.76 0.02 0
29.84 0.02 0
29.92 0.02 0
30 0.02 0
30.08 0.02 0
30.16 0.02 0
30.24 0.02 0
30.32 0.02 0
30.4 0.02 0
30.48 0.02 0
30.56 0.02 0
30.64 0.02 0
30.72 0.02 0
30.8 0.02 0
30.88 0.02 0
30.96 0.02 0
31.04 0.02 0
31.12 0.02 0
31.2 0.02 0
31.28 0.02 0
31.36 0.02 0
31.44 0.02 0
31.52 0.02 0
31.6 0.02 0
31.68 0.02 0
31.76 0.02 0
31.84 0.02 0
31.92 0.02 0
0 0.04 0
0.08 0.04 0
0.16 0.04 0
0.24 0.04 0
0.32 0.04 0
0.4 0.04 0
0.48 0.04 0
0.56 0.04 0
0.64 0.04 0
0.72 0.04 0
0.8 0.04 0
0.88 0.04 0
0.96 0.04 0
1.04 0.04 0
1.12 0.04 0
1.2 0.04 0
1.28 0.04 0
1.36 0.04 0
1.44 0.04 0
1.52 0.04 0
1.6 0.04 0
1.68 0.04 0
1.76 0.04 0
1.84 0.04 0
1.92 0.04 0
2 0.04 0
2.08 0.04 0
2.16 0.04 0
2.24 0.04 0
2.32 0.04 0
2.4 0.04 0
2.48 0.04 0
2.56 0.04 0
2.64 0.04 0
2.72 0.04 0
2.8 0.04 0
2.88 0.04 0
2.96 0.04 0
3.04 0.04 0
3.12 0.04 0
3.2 0.04 0
3.28 0.04 0
3.36 0.04 0
3.44 0.04 0
3.52 0.04 0
3.6 0.04 0
3.68 0.04 0
3.76 0.04 0
3.84 0.04 0
3.92 0.04 0
4 0.04 0
4.08 0.04 0
4.16 0.04 0
4.24 0.04 0
4.32 0.04 0
4.4 0.04 0
4.48 0.04 0
4.56 0.04 0
4.64 0.04 0
4.72 0.04 0
4.8 0.04 0
4.88 0.04 0
4.96 0.04 0
5.04 0.04 0
5.12 0.04 0
5.2 0.04 0
5.28 0.04 0
5.36 0.04 0
5.44 0.04 0
5.52 0.04 0
5.6 0.04 0
5.68 0.04 0
5.76 0.04 0
5.84 0.04 0
5.92 0.04 0
6 0.04 0
6.08 0.04 0
6.16 0.04 0
6.24 0.04 0
6.32 0.04 0
6.4 0.04 0
6.48 0.04 0
6.56 0.04 0
6.64 0.04 0
6.72 0.04 0
6.8 0.04 0
6.88 0.04 0
6.96 0.04 0
7.04 0.04 0
7.12 0.04 0
7.2 0.04 0
7.28 0.04 0
7.36 0.04 0
7.44 0.04 0
7.52 0.04 0
7.6 0.04 0
7.68 0.04 0
7.76 0.04 0
7.84 0.04 0
[...]
POINT_DATA 20000

SCALARS v float 1
LOOKUP_TABLE default
0
0
0
0
0
0
0
0
0
0
0
0
0
0
0
0
0
0
0
0
0
0
0
0
0
0
0
0
0
0
0
0
0
0
0
0
0
0
0
0
0
0
0
0
0
0
0
0
0
0
0
0
0
0
0
0
0
0
0
0
0
0
0
0
0
0
0
0
0
0
0
0
0
0
0
0
0
0
0
0
0
0
0
0
0
0
0
0
0
0
0
0
0
0
0
0
0
0
0
0
0
0
0
0
0
0
0
0
0
0
0
0
0
0
0
0
0
0
0
0
0
0
0
0
0
0
0
0
0
0
0
0
0
0
0
0
0
0
0
0
0
0
0
0
0
0
0
0
0
0
0
0
0
0
0
0
0
0
0
0
0
0
0
0
0
0
0
0
0
0
0
0
0
0
0
0
0
0
0
0
0
0
0
0
0
0
0
0
0
0
0
0
0
0
0
0
0
0
0
0
0
0
0
0
0
0
0
0
0
0
0
0
0
0
0
0
0
0
0
0
0
0
0
0
0
0
0
0
0
0
0
0
0
0
0
0
0
0
0
0
0
0
0
0
0
0
0
0
0
0
0
0
0
0
0
0
0
0
0
0
0
0
0
0
0
0
0
0
0
0
0
0
0
0
0
0
0
0
0
0
0
0
0
0
0
0
0
0
0
0
0
0
0
0
0
0
0
0
0
0
0
0
0
0
0
0
0
0
0
0
0
0
0
0
0
0
0
0
0
0
0
0
0
0
0
0
0
0
0
0
0
0
0
0
0
0
0
0
0
0
0
0
0
0
0
0
0
0
0
0
0
0
0
0
0
0
0
0
0
0
0
0
0
0
0
0
0
0
0
0
0
0
0
0
0
0
0
0
0
0
0
0
0
0
0
0
0
0
0
0
0
0
0
0
0
0
0
0
0
0
-0.123225
0.123225
0.0537901
0.0194372
0.00878126
0.00508781
0.00338583
0.00243536
0.00184552
0.0014543
0.00118203
0.000985228
0.00083836
0.000725664
0.000637023
0.000565754
0.000507328
0.000458608
0.000417379
0.000382044
0.000351428
0.000324652
0.000301047
0.000280093
0.00026138
0.00024458
0.000229426
0.000215699
0.000203218
0.000191831
0.000181407
0.000171839
0.000163031
0.000154902
0.000147381
0.000140408
0.000133929
0.000127896
0.000122268
0.000117009
0.000112085
0.000107469
0.000103133
9.9054e-05
9.52122e-05
9.15882e-05
8.81653e-05
8.49281e-05
8.1863e-05
7.89573e-05
7.61995e-05
7.35792e-05
7.10868e-05
6.87136e-05
6.64515e-05
6.42934e-05
6.22327e-05
6.02634e-05
5.83798e-05
5.65766e-05
5.48491e-05
5.31927e-05
5.1603e-05
5.00764e-05
4.86091e-05
4.71981e-05
4.58404e-05
4.45331e-05
4.32737e-05
4.20596e-05
4.08882e-05
3.97572e-05
3.86645e-05
3.7608e-05
3.65862e-05
3.55976e-05
3.46409e-05
3.37148e-05
3.2818e-05
3.19491e-05
3.11067e-05
3.02895e-05
2.94964e-05
2.87262e-05
2.79783e-05
2.72519e-05
2.65465e-05
2.58613e-05
2.51955e-05
2.4548e-05
2.39178e-05
2.3304e-05
2.27061e-05
2.21233e-05
2.15557e-05
2.10029e-05
2.04648e-05
1.99413e-05
1.94318e-05
1.89355e-05
1.84517e-05
1.79795e-05
1.75184e-05
1.70683e-05
1.66295e-05
1.62022e-05
1.57861e-05
1.53809e-05
1.49858e-05
1.45999e-05
1.42228e-05
1.38541e-05
1.34935e-05
1.3141e-05
1.27965e-05
1.24606e-05
1.21336e-05
1.18157e-05
1.15064e-05
1.12047e-05
1.09092e-05
1.06189e-05
1.0334e-05
1.00554e-05
9.78428e-06
9.52109e-06
9.26535e-06
9.01585e-06
8.7714e-06
8.53143e-06
8.29596e-06
8.06522e-06
7.8392e-06
7.61771e-06
7.40075e-06
7.1889e-06
6.98309e-06
6.78389e-06
6.5907e-06
6.40176e-06
6.21492e-06
6.02902e-06
5.84472e-06
5.66418e-06
5.48974e-06
5.32239e-06
5.1612e-06
5.00387e-06
4.84816e-06
4.69309e-06
4.53922e-06
4.3879e-06
4.24027e-06
4.09674e-06
3.95722e-06
3.82166e-06
3.69035e-06
3.56346e-06
3.44042e-06
3.31962e-06
3.19908e-06
3.07769e-06
2.95622e-06
2.83722e-06
2.72359e-06
2.6168e-06
2.51573e-06
2.41708e-06
2.31721e-06
2.21405e-06
2.10818e-06
2.00215e-06
1.89883e-06
1.79977e-06
1.70467e-06
1.61196e-06
1.52004e-06
1.42797e-06
1.33539e-06
1.24189e-06
1.14658e-06
1.04863e-06
9.48258e-07
8.47471e-07
7.49561e-07
6.57351e-07
5.71112e-07
4.87618e-07
4.01298e-07
3.07143e-07
2.03831e-07
9.51064e-08
-1.16606e-08
-1.0918e-07
-1.94248e-07
-2.69752e-07
-3.43406e-07
-4.23772e-07
-5.15689e-07
-6.17608e-07
-7.22295e-07
-8.20538e-07
-9.05863e-07
-9.77756e-07
-1.04175e-06
-1.10642e-06
-1.17901e-06
-1.26182e-06
-1.35139e-06
-1.4404e-06
-1.52145e-06
-1.59052e-06
-1.64862e-06
-1.70078e-06
-1.75335e-06
-1.81091e-06
-1.87425e-06
-1.94042e-06
-2.00446e-06
-2.06184e-06
-2.11044e-06
-2.15121e-06
-2.18738e-06
-2.22273e-06
-2.25993e-06
-2.2995e-06
-2.33993e-06
-2.37866e-06
-2.41329e-06
-2.44265e-06
-2.46708e-06
-2.48811e-06
-2.50761e-06
-2.52705e-06
-2.54693e-06
-2.56678e-06
-2.58555e-06
-2.60214e-06
-2.6159e-06
-2.62684e-06
-2.63555e-06
-2.64293e-06
-2.6498e-06
-2.65663e-06
-2.66345e-06
-2.66995e-06
-2.67564e-06
-2.6801e-06
-2.68316e-06
-2.68491e-06
-2.68565e-06
-2.68579e-06
-2.68572e-06
-2.6857e-06
-2.68579e-06
-2.68593e-06
-2.68598e-06
-2.68578e-06
-2.68523e-06
-2.6843e-06
-2.68305e-06
-2.68158e-06
-2.68003e-06
-2.67848e-06
-2.67701e-06
-2.67564e-06
-2.67435e-06
-2.6731e-06
-2.67185e-06
-2.67056e-06
-2.66923e-06
-2.66785e-06
-2.66644e-06
-2.66502e-06
-2.66361e-06
-2.66222e-06
-2.66087e-06
-2.65955e-06
-2.65826e-06
-2.65699e-06
-2.65572e-06
-2.65447e-06
-2.65321e-06
-2.65197e-06
-2.65072e-06
-2.64949e-06
-2.64826e-06
-2.64705e-06
-2.64585e-06
-2.64467e-06
-2.6435e-06
-2.64235e-06
-2.64121e-06
-2.64008e-06
-2.63896e-06
-2.63786e-06
-2.63676e-06
-2.63568e-06
-2.63461e-06
-2.63356e-06
-2.63251e-06
-2.63148e-06
-2.63047e-06
-2.62947e-06
-2.62848e-06
-2.6275e-06
-2.62654e-06
-2.62559e-06
-2.62466e-06
-2.62374e-06
-2.62283e-06
-2.62194e-06
-2.62106e-06
-2.62019e-06
-2.61934e-06
-2.61851e-06
-2.61768e-06
-2.61688e-06
-2.61608e-06
-2.6153e-06
-2.61453e-06
-2.61379e-06
-2.61305e-06
-2.61234e-06
-2.61162e-06
-2.61094e-06
-2.61025e-06
-2.6096e-06
-2.60894e-06
-2.60833e-06
-2.60769e-06
-2.60712e-06
-2.6065e-06
-2.60597e-06
-2.60538e-06
-2.60488e-06
-2.60431e-06
-2.60385e-06
-2.6033e-06
-2.6029e-06
-2.60236e-06
-2.602e-06
-2.60147e-06
-2.60118e-06
-2.60065e-06
-2.60043e-06
-2.59989e-06
-2.59975e-06
-2.59919e-06
-2.59914e-06
-2.59855e-06
-2.59862e-06
-2.59797e-06
-2.59818e-06
-2.59745e-06
-2.59783e-06
-2.59698e-06
-2.59758e-06
-2.59658e-06
-2.59745e-06
-2.59622e-06
-2.59744e-06
-2.59592e-06
-2.59758e-06
-2.59567e-06
-2.59789e-06
-2.59546e-06
-2.59842e-06
-2.5953e-06
-2.59919e-06
-2.59516e-06
-2.60029e-06
-2.59506e-06
-2.60178e-06
-2.59498e-06
-2.60376e-06
-2.59492e-06
-2.60636e-06
-2.5949e-06
-2.60973e-06
-2.59492e-06
-2.61404e-06
-2.59507e-06
-2.61942e-06
-2.59543e-06
-2.62592e-06
-2.5962e-06
-2.63328e-06
-2.59759e-06
-2.64033e-06
-2.59987e-06
-2.64311e-06
-2.60348e-06
-2.628e-06
-2.60998e-06
-2.53912e-06
-2.62279e-06
-1.94229e-06
-2.30235e-06
-2.30235e-06
-0.142151
0.142151
0.101002
0.0539108
0.0302542
0.0189161
0.0129253
0.00941074
0.00717778
0.00567485
0.00461834
0.00384932
0.0032728
0.00282928
0.00248009
0.00219941
0.00196958
0.00177828
0.00161672
0.00147857
0.00135913
0.0012549
0.00116318
0.00108191
0.00100944
0.000944458
0.000885916
0.000832942
0.000784818
0.000740943
0.000700811
0.00066399
0.000630113
0.000598863
0.000569964
0.000543178
0.000518297
0.000495138
0.000473541
0.000453362
0.000434476
0.00041677
0.000400145
0.00038451
0.000369784
0.000355896
0.00034278
0.000330378
0.000318637
0.000307508
0.000296946
0.000286912
0.00027737
0.000268284
0.000259626
0.000251367
0.000243482
0.000235947
0.000228741
0.000221843
0.000215235
0.000208899
0.00020282
0.000196982
0.000191372
0.000185977
0.000180787
0.000175789
0.000170975
0.000166334
0.000161857
0.000157534
0.000153358
0.000149322
0.000145419
0.000141643
0.00013799
0.000134453
0.000131029
0.000127711
0.000124494
0.000121374
0.000118346
0.000115406
0.000112552
0.00010978
0.000107088
0.000104473
0.000101931
9.94595e-05
9.70539e-05
9.47116e-05
9.24302e-05
9.02082e-05
8.80443e-05
8.59377e-05
8.38873e-05
8.18918e-05
7.9949e-05
7.80562e-05
7.62107e-05
7.441e-05
7.26527e-05
7.09385e-05
6.92676e-05
6.76401e-05
6.60549e-05
6.451e-05
6.30029e-05
6.15313e-05
6.00935e-05
5.86883e-05
5.7315e-05
5.59735e-05
5.4664e-05
5.33872e-05
5.21439e-05
5.09339e-05
4.9755e-05
4.86037e-05
4.74762e-05
4.63705e-05
4.52875e-05
4.42299e-05
4.32004e-05
4.21994e-05
4.12246e-05
4.02723e-05
3.93392e-05
3.8424e-05
3.7527e-05
3.66485e-05
3.57886e-05
3.49468e-05
3.41233e-05
3.33198e-05
3.25385e-05
3.17796e-05
3.10406e-05
3.03159e-05
2.96e-05
2.88912e-05
2.81925e-05
2.75103e-05
2.68502e-05
2.62133e-05
2.55956e-05
2.49902e-05
2.43915e-05
2.37979e-05
2.32118e-05
2.26372e-05
2.2077e-05
2.15318e-05
2.10013e-05
2.04852e-05
1.99838e-05
1.94969e-05
1.90218e-05
1.85537e-05
1.80878e-05
1.76223e-05
1.71609e-05
1.67112e-05
1.628e-05
1.58692e-05
1.54734e-05
1.50826e-05
1.46872e-05
1.42836e-05
1.3875e-05
1.34694e-05
1.3074e-05
1.26918e-05
1.23204e-05
1.19549e-05
1.15905e-05
1.12248e-05
1.08569e-05
1.04853e-05
1.01081e-05
9.72399e-06
9.33526e-06
8.94856e-06
8.57267e-06
8.21326e-06
7.86799e-06
7.52567e-06
7.17102e-06
6.7932e-06
6.39316e-06
5.98515e-06
5.59047e-06
5.22656e-06
4.89713e-06
4.58937e-06
4.28011e-06
3.9479e-06
3.58466e-06
3.20034e-06
2.81803e-06
2.46226e-06
2.14645e-06
1.86644e-06
1.60308e-06
1.33245e-06
1.03796e-06
7.1839e-07
3.87782e-07
6.79213e-08
-2.22473e-07
-4.76296e-07
-7.00366e-07
-9.10922e-07
-1.12509e-06
-1.35274e-06
-1.59261e-06
-1.83391e-06
-2.06226e-06
-2.26654e-06
-2.44348e-06
-2.59822e-06
-2.741e-06
-2.88209e-06
-3.02738e-06
-3.17647e-06
-3.32382e-06
-3.46196e-06
-3.58499e-06
-3.69096e-06
-3.78214e-06
-3.86357e-06
-3.94054e-06
-4.01653e-06
-4.09214e-06
-4.16545e-06
-4.23328e-06
-4.29285e-06
-4.34294e-06
-4.38426e-06
-4.41897e-06
-4.44974e-06
-4.47873e-06
-4.50697e-06
-4.53425e-06
-4.55946e-06
-4.5813e-06
-4.5988e-06
-4.61175e-06
-4.62071e-06
-4.6268e-06
-4.63127e-06
-4.63516e-06
-4.63909e-06
-4.64315e-06
-4.64709e-06
-4.65044e-06
-4.65282e-06
-4.654e-06
-4.65403e-06
-4.65312e-06
-4.65166e-06
-4.64999e-06
-4.64841e-06
-4.64706e-06
-4.64595e-06
-4.64502e-06
-4.64415e-06
-4.6432e-06
-4.64212e-06
-4.64086e-06
-4.63945e-06
-4.63795e-06
-4.63641e-06
-4.63491e-06
-4.63347e-06
-4.63212e-06
-4.63083e-06
-4.6296e-06
-4.62839e-06
-4.6272e-06
-4.62599e-06
-4.62477e-06
-4.62354e-06
-4.62231e-06
-4.62108e-06
-4.61986e-06
-4.61866e-06
-4.61748e-06
-4.61632e-06
-4.61519e-06
-4.61407e-06
-4.61296e-06
-4.61187e-06
-4.61079e-06
-4.60972e-06
-4.60866e-06
-4.60761e-06
-4.60657e-06
-4.60555e-06
-4.60454e-06
-4.60355e-06
-4.60257e-06
-4.60161e-06
-4.60066e-06
-4.59973e-06
-4.59881e-06
-4.59791e-06
-4.59702e-06
-4.59615e-06
-4.59528e-06
-4.59444e-06
-4.59361e-06
-4.5928e-06
-4.59199e-06
-4.59122e-06
-4.59044e-06
-4.58969e-06
-4.58894e-06
-4.58823e-06
-4.58751e-06
-4.58684e-06
-4.58614e-06
-4.58551e-06
-4.58483e-06
-4.58424e-06
-4.58359e-06
-4.58304e-06
-4.5824e-06
-4.5819e-06
-4.58129e-06
-4.58083e-06
-4.58023e-06
-4.57983e-06
-4.57924e-06
-4.57891e-06
-4.57831e-06
-4.57805e-06
-4.57744e-06
-4.57727e-06
-4.57664e-06
-4.57657e-06
-4.5759e-06
-4.57596e-06
-4.57522e-06
-4.57543e-06
-4.5746e-06
-4.575e-06
-4.57404e-06
-4.57468e-06
-4.57353e-06
-4.57447e-06
-4.57308e-06
-4.57441e-06
-4.57268e-06
-4.5745e-06
-4.57233e-06
-4.57478e-06
-4.57202e-06
-4.57529e-06
-4.57176e-06
-4.57607e-06
-4.57152e-06
-4.57719e-06
-4.57132e-06
-4.57874e-06
-4.57113e-06
-4.58085e-06
-4.57095e-06
-4.58366e-06
-4.57078e-06
-4.58738e-06
-4.57059e-06
-4.59227e-06
-4.57038e-06
-4.59869e-06
-4.57018e-06
-4.60705e-06
-4.57003e-06
-4.61787e-06
-4.57004e-06
-4.63172e-06
-4.57044e-06
-4.64914e-06
-4.57161e-06
-4.67038e-06
-4.57411e-06
-4.69476e-06
-4.57857e-06
-4.71875e-06
-4.58545e-06
-4.73011e-06
-4.59475e-06
-4.68665e-06
-4.6067e-06
-4.4187e-06
-4.61064e-06
-2.77247e-06
-3.68413e-06
-3.68413e-06
-0.122225
0.122225
0.121661
0.0822657
0.0539925
0.0368617
0.0263908
0.0197139
0.0152631
0.0121776
0.00996588
0.00833408
0.00709908
0.00614265
0.00538628
0.00477658
0.00427655
0.00386002
0.00350824
0.00320749
0.00294761
0.00272094
0.00252162
0.00234509
0.00218777
0.00204678
0.00191981
0.00180496
0.00170065
0.00160558
0.00151863
0.00143887
0.00136549
0.00129781
0.00123523
0.00117723
0.00112336
0.00107322
0.00102646
0.000982777
0.000941893
0.000903565
0.000867576
0.000833731
0.000801856
0.000771794
0.000743405
0.000716562
0.000691148
0.000667059
0.0006442
0.000622484
0.000601831
0.000582169
0.000563432
0.00054556
0.000528497
0.000512193
0.0004966
0.000481676
0.000467379
0.000453671
0.000440518
0.000427888
0.000415752
0.000404083
0.000392855
0.000382046
0.000371632
0.000361593
0.000351908
0.000342559
0.000333529
0.000324801
0.000316363
0.000308201
0.000300304
0.00029266
0.000285257
0.000278085
0.000271133
0.000264389
0.000257845
0.000251493
0.000245326
0.000239338
0.000233522
0.000227872
0.000222381
0.00021704
0.000211843
0.000206784
0.000201857
0.00019706
0.00019239
0.000187844
0.000183419
0.000179112
0.000174919
0.000170833
0.00016685
0.000162964
0.000159173
0.000155476
0.000151873
0.000148363
0.000144944
0.000141611
0.000138359
0.000135184
0.000132083
0.000129054
0.000126095
0.000123205
0.000120386
0.000117637
0.00011496
0.000112354
0.000109812
0.00010733
0.0001049
0.000102519
0.000100189
9.79153e-05
9.57011e-05
9.35464e-05
9.14462e-05
8.93935e-05
8.73828e-05
8.54119e-05
8.34813e-05
8.15919e-05
7.97432e-05
7.79345e-05
7.61662e-05
7.4441e-05
7.27619e-05
7.11286e-05
6.95351e-05
6.79714e-05
6.64289e-05
6.49055e-05
6.34076e-05
6.19464e-05
6.05306e-05
5.91605e-05
5.78277e-05
5.65199e-05
5.5228e-05
5.39503e-05
5.26919e-05
5.14599e-05
5.02588e-05
4.90894e-05
4.79505e-05
4.68413e-05
4.5762e-05
4.47111e-05
4.36834e-05
4.26702e-05
4.16637e-05
4.06624e-05
3.96738e-05
3.87109e-05
3.77844e-05
3.68951e-05
3.60317e-05
3.51758e-05
3.43119e-05
3.34353e-05
3.25536e-05
3.16808e-05
3.08289e-05
3.00012e-05
2.91921e-05
2.83921e-05
2.7593e-05
2.67907e-05
2.59835e-05
2.51693e-05
2.43452e-05
2.35101e-05
2.26693e-05
2.1835e-05
2.10219e-05
2.02373e-05
1.94747e-05
1.87129e-05
1.79263e-05
1.70995e-05
1.62387e-05
1.5372e-05
1.45364e-05
1.37589e-05
1.3041e-05
1.23561e-05
1.16631e-05
1.09276e-05
1.01414e-05
9.32683e-06
8.52656e-06
7.78133e-06
7.10962e-06
6.49877e-06
5.91237e-06
5.30944e-06
4.66523e-06
3.98294e-06
3.29103e-06
2.6283e-06
2.02495e-06
1.48907e-06
1.00486e-06
5.42314e-07
7.26727e-08
-4.18132e-07
-9.24303e-07
-1.42476e-06
-1.89429e-06
-2.31535e-06
-2.68508e-06
-3.01486e-06
-3.32362e-06
-3.62871e-06
-3.93869e-06
-4.25101e-06
-4.5548e-06
-4.83695e-06
-5.08816e-06
-5.30652e-06
-5.49738e-06
-5.67023e-06
-5.83427e-06
-5.99493e-06
-6.15244e-06
-6.30286e-06
-6.44058e-06
-6.56115e-06
-6.66315e-06
-6.74854e-06
-6.82159e-06
-6.88712e-06
-6.94876e-06
-7.00801e-06
-7.06418e-06
-7.11525e-06
-7.15901e-06
-7.19408e-06
-7.22045e-06
-7.23948e-06
-7.25334e-06
-7.26434e-06
-7.27428e-06
-7.28411e-06
-7.29389e-06
-7.30306e-06
-7.31085e-06
-7.31659e-06
-7.32004e-06
-7.32134e-06
-7.32103e-06
-7.31978e-06
-7.31825e-06
-7.31692e-06
-7.31601e-06
-7.31552e-06
-7.31528e-06
-7.31506e-06
-7.31467e-06
-7.31398e-06
-7.31295e-06
-7.31166e-06
-7.31022e-06
-7.30873e-06
-7.30731e-06
-7.306e-06
-7.30484e-06
-7.30379e-06
-7.30281e-06
-7.30187e-06
-7.30092e-06
-7.29995e-06
-7.29893e-06
-7.29789e-06
-7.29682e-06
-7.29576e-06
-7.29472e-06
-7.29369e-06
-7.2927e-06
-7.29173e-06
-7.29079e-06
-7.28987e-06
-7.28896e-06
-7.28806e-06
-7.28717e-06
-7.28628e-06
-7.2854e-06
-7.28453e-06
-7.28367e-06
-7.28283e-06
-7.282e-06
-7.28119e-06
-7.28038e-06
-7.2796e-06
-7.27883e-06
-7.27808e-06
-7.27733e-06
-7.27661e-06
-7.27589e-06
-7.2752e-06
-7.2745e-06
-7.27384e-06
-7.27316e-06
-7.27253e-06
-7.27189e-06
-7.27129e-06
-7.27066e-06
-7.2701e-06
-7.2695e-06
-7.26897e-06
-7.26839e-06
-7.2679e-06
-7.26734e-06
-7.2669e-06
-7.26635e-06
-7.26595e-06
-7.26542e-06
-7.26507e-06
-7.26455e-06
-7.26426e-06
-7.26373e-06
-7.26351e-06
-7.26297e-06
-7.26283e-06
-7.26227e-06
-7.26222e-06
-7.26162e-06
-7.26168e-06
-7.26103e-06
-7.26123e-06
-7.2605e-06
-7.26087e-06
-7.26001e-06
-7.2606e-06
-7.25958e-06
-7.26043e-06
-7.2592e-06
-7.26039e-06
-7.25886e-06
-7.26049e-06
-7.25856e-06
-7.26075e-06
-7.2583e-06
-7.26122e-06
-7.25807e-06
-7.26192e-06
-7.25786e-06
-7.26293e-06
-7.25767e-06
-7.26432e-06
-7.25749e-06
-7.26618e-06
-7.25731e-06
-7.26865e-06
-7.25712e-06
-7.27192e-06
-7.2569e-06
-7.27621e-06
-7.25665e-06
-7.28184e-06
-7.25633e-06
-7.28923e-06
-7.25595e-06
-7.29891e-06
-7.25551e-06
-7.31158e-06
-7.25504e-06
-7.3281e-06
-7.25466e-06
-7.34951e-06
-7.25461e-06
-7.37699e-06
-7.25536e-06
-7.4117e-06
-7.25762e-06
-7.45435e-06
-7.2624e-06
-7.504e-06
-7.27067e-06
-7.55457e-06
-7.28267e-06
-7.58393e-06
-7.29667e-06
-7.51526e-06
-7.30683e-06
-7.04812e-06
-7.25999e-06
-4.41354e-06
-5.52927e-06
-5.52927e-06
-0.094277
0.094277
0.121014
0.0969675
0.0717916
0.0531961
0.040199
0.0311095
0.0246558
0.0199832
0.0165302
0.013926
0.0119231
0.0103533
0.00910092
0.00808475
0.00724737
0.00654743
0.00595481
0.00544727
0.00500814
0.00462477
0.00428741
0.00398846
0.00372191
0.00348295
0.00326766
0.00307285
0.00289587
0.00273451
0.00258689
0.00245144
0.0023268
0.00221179
0.00210543
0.00200683
0.00191522
0.00182994
0.0017504
0.00167606
0.00160648
0.00154124
0.00147997
0.00142234
0.00136805
0.00131685
0.00126849
0.00122275
0.00117945
0.00113839
0.00109943
0.00106242
0.00102721
0.000993687
0.000961741
0.000931267
0.000902172
0.000874369
0.000847778
0.000822324
0.000797939
0.000774559
0.000752124
0.00073058
0.000709878
0.000689972
0.000670819
0.000652378
0.000634612
0.000617484
0.000600961
0.000585011
0.000569605
0.000554716
0.000540322
0.0005264
0.00051293
0.000499891
0.000487265
0.000475032
0.000463173
0.000451672
0.000440511
0.000429679
0.000419162
0.000408951
0.000399033
0.000389397
0.000380032
0.000370924
0.000362062
0.000353436
0.000345039
0.000336863
0.000328904
0.000321158
0.000313619
0.00030628
0.000299134
0.000292172
0.000285384
0.000278764
0.000272307
0.000266012
0.000259876
0.000253899
0.000248075
0.000242398
0.000236859
0.000231452
0.000226171
0.000221015
0.00021598
0.000211065
0.000206271
0.000201597
0.000197044
0.000192609
0.000188285
0.000184061
0.000179927
0.00017588
0.000171921
0.000168059
0.000164297
0.000160634
0.000157062
0.000153571
0.000150151
0.000146802
0.000143522
0.000140314
0.000137176
0.000134107
0.000131108
0.000128181
0.000125331
0.000122556
0.000119847
0.000117188
0.000114568
0.000111984
0.000109447
0.000106973
0.000104573
0.000102246
9.99792e-05
9.77539e-05
9.55578e-05
9.33894e-05
9.12568e-05
8.91705e-05
8.71367e-05
8.51558e-05
8.32253e-05
8.13435e-05
7.95102e-05
7.77225e-05
7.59726e-05
7.42476e-05
7.25368e-05
7.08389e-05
6.91654e-05
6.75349e-05
6.59618e-05
6.4445e-05
6.29663e-05
6.14984e-05
6.00197e-05
5.85249e-05
5.70264e-05
5.5545e-05
5.4097e-05
5.26855e-05
5.13008e-05
4.9928e-05
4.85552e-05
4.71767e-05
4.57906e-05
4.43943e-05
4.29839e-05
4.15589e-05
4.01276e-05
3.87081e-05
3.73205e-05
3.59742e-05
3.46574e-05
3.3339e-05
3.19828e-05
3.05697e-05
2.91124e-05
2.76538e-05
2.62478e-05
2.49303e-05
2.36991e-05
2.25125e-05
2.13104e-05
2.00463e-05
1.87129e-05
1.73474e-05
1.60132e-05
1.47674e-05
1.36325e-05
1.25854e-05
1.15708e-05
1.05304e-05
9.43215e-06
8.28559e-06
7.13546e-06
6.03859e-06
5.03637e-06
4.13658e-06
3.31283e-06
2.52019e-06
1.71816e-06
8.89366e-07
4.54986e-08
-7.80846e-07
-1.55314e-06
-2.24783e-06
-2.86346e-06
-3.41881e-06
-3.94226e-06
-4.45838e-06
-4.97795e-06
-5.4955e-06
-5.99425e-06
-6.45522e-06
-6.86597e-06
-7.22526e-06
-7.54219e-06
-7.83121e-06
-8.10564e-06
-8.37275e-06
-8.63214e-06
-8.87759e-06
-9.10096e-06
-9.29626e-06
-9.46218e-06
-9.60228e-06
-9.72327e-06
-9.83229e-06
-9.93447e-06
-1.00317e-05
-1.01227e-05
-1.02046e-05
-1.02742e-05
-1.03299e-05
-1.03722e-05
-1.04033e-05
-1.04267e-05
-1.04459e-05
-1.04633e-05
-1.04804e-05
-1.0497e-05
-1.05123e-05
-1.05251e-05
-1.05347e-05
-1.05406e-05
-1.05434e-05
-1.05437e-05
-1.05428e-05
-1.05416e-05
-1.05407e-05
-1.05404e-05
-1.05408e-05
-1.05414e-05
-1.0542e-05
-1.05422e-05
-1.0542e-05
-1.05413e-05
-1.05402e-05
-1.05388e-05
-1.05375e-05
-1.05362e-05
-1.05351e-05
-1.05343e-05
-1.05335e-05
-1.05329e-05
-1.05323e-05
-1.05317e-05
-1.05311e-05
-1.05303e-05
-1.05295e-05
-1.05287e-05
-1.05279e-05
-1.05271e-05
-1.05263e-05
-1.05256e-05
-1.05249e-05
-1.05242e-05
-1.05235e-05
-1.05229e-05
-1.05222e-05
-1.05216e-05
-1.0521e-05
-1.05203e-05
-1.05197e-05
-1.05191e-05
-1.05185e-05
-1.05179e-05
-1.05173e-05
-1.05167e-05
-1.05162e-05
-1.05156e-05
-1.05151e-05
-1.05146e-05
-1.05141e-05
-1.05136e-05
-1.05131e-05
-1.05126e-05
-1.05122e-05
-1.05117e-05
-1.05113e-05
-1.05109e-05
-1.05105e-05
-1.05101e-05
-1.05097e-05
-1.05093e-05
-1.0509e-05
-1.05086e-05
-1.05083e-05
-1.05079e-05
-1.05077e-05
-1.05073e-05
-1.05071e-05
-1.05067e-05
-1.05066e-05
-1.05062e-05
-1.05062e-05
-1.05057e-05
-1.05058e-05
-1.05053e-05
-1.05055e-05
-1.05049e-05
-1.05052e-05
-1.05046e-05
-1.0505e-05
-1.05043e-05
-1.05049e-05
-1.0504e-05
-1.05049e-05
-1.05038e-05
-1.0505e-05
-1.05036e-05
-1.05052e-05
-1.05034e-05
-1.05056e-05
-1.05033e-05
-1.05062e-05
-1.05032e-05
-1.05069e-05
-1.05031e-05
-1.0508e-05
-1.05029e-05
-1.05094e-05
-1.05028e-05
-1.05112e-05
-1.05026e-05
-1.05136e-05
-1.05024e-05
-1.05167e-05