# vtk DataFile Version 2.0
FlowField
ASCII
DATASET STRUCTURED_GRID
DIMENSIONS 400 1 50
POINTS 20000 float
0 0 0
0.08 0 0
0.16 0 0
0.24 0 0
0.32 0 0
0.4 0 0
0.48 0 0
0.56 0 0
0.64 0 0
0.72 0 0
0.8 0 0
0.88 0 0
0.96 0 0
1.04 0 0
1.12 0 0
1.2 0 0
1.28 0 0
1.36 0 0
1.44 0 0
1.52 0 0
1.6 0 0
1.68 0 0
1.76 0 0
1.84 0 0
1.92 0 0
2 0 0
2.08 0 0
2.16 0 0
2.24 0 0
2.32 0 0
2.4 0 0
2.48 0 0
2.56 0 0
2.64 0 0
2.72 0 0
2.8 0 0
2.88 0 0
2.96 0 0
3.04 0 0
3.12 0 0
3.2 0 0
3.28 0 0
3.36 0 0
3.44 0 0
3.52 0 0
3.6 0 0
3.68 0 0
3.76 0 0
3.84 0 0
3.92 0 0
4 0 0
4.08 0 0
4.16 0 0
4.24 0 0
4.32 0 0
4.4 0 0
4.48 0 0
4.56 0 0
4.64 0 0
4.72 0 0
4.8 0 0
4.88 0 0
4.96 0 0
5.04 0 0
5.12 0 0
5.2 0 0
5.28 0 0
5.36 0 0
5.44 0 0
5.52 0 0
5.6 0 0
5.68 0 0
5.76 0 0
5.84 0 0
5.92 0 0
6 0 0
6.08 0 0
6.16 0 0
6.24 0 0
6.32 0 0
6.4 0 0
6.48 0 0
6.56 0 0
6.64 0 0
6.72 0 0
6.8 0 0
6.88 0 0
6.96 0 0
7.04 0 0
7.12 0 0
7.2 0 0
7.28 0 0
7.36 0 0
7.44 0 0
7.52 0 0
7.6 0 0
7.68 0 0
7.76 0 0
7.84 0 0
7.92 0 0
8 0 0
8.08 0 0
8.16 0 0
8.24 0 0
8.32 0 0
8.4 0 0
8.48 0 0
8.56 0 0
8.64 0 0
8.72 0 0
8.8 0 0
8.88 0 0
8.96 0 0
9.04 0 0
9.12 0 0
9.2 0 0
9.28 0 0
9.36 0 0
9.44 0 0
9.52 0 0
9.6 0 0
9.68 0 0
9.76 0 0
9.84 0 0
9.92 0 0
10 0 0
10.08 0 0
10.16 0 0
10.24 0 0
10.32 0 0
10.4 0 0
10.48 0 0
10.56 0 0
10.64 0 0
10.72 0 0
10.8 0 0
10.88 0 0
10.96 0 0
11.04 0 0
11.12 0 0
11.2 0 0
11.28 0 0
11.36 0 0
11.44 0 0
11.52 0 0
11.6 0 0
11.68 0 0
11.76 0 0
11.84 0 0
11.92 0 0
12 0 0
12.08 0 0
12.16 0 0
12.24 0 0
12.32 0 0
12.4 0 0
12.48 0 0
12.56 0 0
12.64 0 0
12.72 0 0
12.8 0 0
12.88 0 0
12.96 0 0
13.04 0 0
13.12 0 0
13.2 0 0
13.28 0 0
13.36 0 0
13.44 0 0
13.52 0 0
13.6 0 0
13.68 0 0
13.76 0 0
13.84 0 0
13.92 0 0
14 0 0
14.08 0 0
14.16 0 0
14.24 0 0
14.32 0 0
14.4 0 0
14.48 0 0
14.56 0 0
14.64 0 0
14.72 0 0
14.8 0 0
14.88 0 0
14.96 0 0
15.04 0 0
15.12 0 0
15.2 0 0
15.28 0 0
15.36 0 0
15.44 0 0
15.52 0 0
15.6 0 0
15.68 0 0
15.76 0 0
15.84 0 0
15.92 0 0
16 0 0
16.08 0 0
16.16 0 0
16.24 0 0
16.32 0 0
16.4 0 0
16.48 0 0
16.56 0 0
16.64 0 0
16.72 0 0
16.8 0 0
16.88 0 0
16.96 0 0
17.04 0 0
17.12 0 0
17.2 0 0
17.28 0 0
17.36 0 0
17.44 0 0
17.52 0 0
17.6 0 0
17.68 0 0
17.76 0 0
17.84 0 0
17.92 0 0
18 0 0
18.08 0 0
18.16 0 0
18.24 0 0
18.32 0 0
18.4 0 0
18.48 0 0
18.56 0 0
18.64 0 0
18.72 0 0
18.8 0 0
18.88 0 0
18.96 0 0
19.04 0 0
19.12 0 0
19.2 0 0
19.28 0 0
19.36 0 0
19.44 0 0
19.52 0 0
19.6 0 0
19.68 0 0
19.76 0 0
19.84 0 0
19.92 0 0
20 0 0
20.08 0 0
20.16 0 0
20.24 0 0
20.32 0 0
20.4 0 0
20.48 0 0
20.56 0 0
20.64 0 0
20.72 0 0
20.8 0 0
20.88 0 0
20.96 0 0
21.04 0 0
21.12 0 0
21.2 0 0
21.28 0 0
21.36 0 0
21.44 0 0
21.52 0 0
21.6 0 0
21.68 0 0
21.76 0 0
21.84 0 0
21.92 0 0
22 0 0
22.08 0 0
22.16 0 0
22.24 0 0
22.32 0 0
22.4 0 0
22.48 0 0
22.56 0 0
22.64 0 0
22.72 0 0
22.8 0 0
22.88 0 0
22.96 0 0
23.04 0 0
23.12 0 0
23.2 0 0
23.28 0 0
23.36 0 0
23.44 0 0
23.52 0 0
23.6 0 0
23.68 0 0
23.76 0 0
23.84 0 0
23.92 0 0
24 0 0
24.08 0 0
24.16 0 0
24.24 0 0
24.32 0 0
24.4 0 0
24.48 0 0
24.56 0 0
24.64 0 0
24.72 0 0
24.8 0 0
24.88 0 0
24.96 0 0
25.04 0 0
25.12 0 0
25.2 0 0
25.28 0 0
25.36 0 0
25.44 0 0
25.52 0 0
25.6 0 0
25.68 0 0
25.76 0 0
25.84 0 0
25.92 0 0
26 0 0
26.08 0 0
26.16 0 0
26.24 0 0
26.32 0 0
26.4 0 0
26.48 0 0
26.56 0 0
26.64 0 0
26.72 0 0
26.8 0 0
26.88 0 0
26.96 0 0
27.04 0 0
27.12 0 0
27.2 0 0
27.28 0 0
27.36 0 0
27.44 0 0
27.52 0 0
27.6 0 0
27.68 0 0
27.76 0 0
27.84 0 0
27.92 0 0
28 0 0
28.08 0 0
28.16 0 0
28.24 0 0
28.32 0 0
28.4 0 0
28.48 0 0
28.56 0 0
28.64 0 0
28.72 0 0
28.8 0 0
28.88 0 0
28.96 0 0
29.04 0 0
29.12 0 0
29.2 0 0
29.28 0 0
29.36 0 0
29.44 0 0
29.52 0 0
29.6 0 0
29.68 0 0
29.76 0 0
29.84 0 0
29.92 0 0
30 0 0
30.08 0 0
30.16 0 0
30.24 0 0
30.32 0 0
30.4 0 0
30.48 0 0
30.56 0 0
30.64 0 0
30.72 0 0
30.8 0 0
30.88 0 0
30.96 0 0
31.04 0 0
31.12 0 0
31.2 0 0
31.28 0 0
31.36 0 0
31.44 0 0
31.52 0 0
31.6 0 0
31.68 0 0
31.76 0 0
31.84 0 0
31.92 0 0
0 0.02 0
0.08 0.02 0
0.16 0.02 0
0.24 0.02 0
0.32 0.02 0
0.4 0.02 0
0.48 0.02 0
0.56 0.02 0
0.64 0.02 0
0.72 0.02 0
0.8 0.02 0
0.88 0.02 0
0.96 0.02 0
1.04 0.02 0
1.12 0.02 0
1.2 0.02 0
1.28 0.02 0
1.36 0.02 0
1.44 0.02 0
1.52 0.02 0
1.6 0.02 0
1.68 0.02 0
1.76 0.02 0
1.84 0.02 0
1.92 0.02 0
2 0.02 0
2.08 0.02 0
2.16 0.02 0
2.24 0.02 0
2.32 0.02 0
2.4 0.02 0
2.48 0.02 0
2.56 0.02 0
2.64 0.02 0
2.72 0.02 0
2.8 0.02 0
2.88 0.02 0
2.96 0.02 0
3.04 0.02 0
3.12 0.02 0
3.2 0.02 0
3.28 0.02 0
3.36 0.02 0
3.44 0.02 0
3.52 0.02 0
3.6 0.02 0
3.68 0.02 0
3.76 0.02 0
3.84 0.02 0
3.92 0.02 0
4 0.02 0
4.08 0.02 0
4.16 0.02 0
4.24 0.02 0
4.32 0.02 0
4.4 0.02 0
4.48 0.02 0
4.56 0.02 0
4.64 0.02 0
4.72 0.02 0
4.8 0.02 0
4.88 0.02 0
4.96 0.02 0
5.04 0.02 0
5.12 0.02 0
5.2 0.02 0
5.28 0.02 0
5.36 0.02 0
5.44 0.02 0
5.52 0.02 0
5.6 0.02 0
5.68 0.02 0
5.76 0.02 0
5.84 0.02 0
5.92 0.02 0
6 0.02 0
6.08 0.02 0
6.16 0.02 0
6.24 0.02 0
6.32 0.02 0
6.4 0.02 0
6.48 0.02 0
6.56 0.02 0
6.64 0.02 0
6.72 0.02 0
6.8 0.02 0
6.88 0.02 0
6.96 0.02 0
7.04 0.02 0
7.12 0.02 0
7.2 0.02 0
7.28 0.02 0
7.36 0.02 0
7.44 0.02 0
7.52 0.02 0
7.6 0.02 0
7.68 0.02 0
7.76 0.02 0
7.84 0.02 0
7.92 0.02 0
8 0.02 0
8.08 0.02 0
8.16 0.02 0
8.24 0.02 0
8.32 0.02 0
8.4 0.02 0
8.48 0.02 0
8.56 0.02 0
8.64 0.02 0
8.72 0.02 0
8.8 0.02 0
8.88 0.02 0
8.96 0.02 0
9.04 0.02 0
9.12 0.02 0
9.2 0.02 0
9.28 0.02 0
9.36 0.02 0
9.44 0.02 0
9.52 0.02 0
9.6 0.02 0
9.68 0.02 0
9.76 0.02 0
9.84 0.02 0
9.92 0.02 0
10 0.02 0
10.08 0.02 0
10.16 0.02 0
10.24 0.02 0
10.32 0.02 0
10.4 0.02 0
10.48 0.02 0
10.56 0.02 0
10.64 0.02 0
10.72 0.02 0
10.8 0.02 0
10.88 0.02 0
10.96 0.02 0
11.04 0.02 0
11.12 0.02 0
11.2 0.02 0
11.28 0.02 0
11.36 0.02 0
11.44 0.02 0
11.52 0.02 0
11.6 0.02 0
11.68 0.02 0
11.76 0.02 0
11.84 0.02 0
11.92 0.02 0
12 0.02 0
12.08 0.02 0
12.16 0.02 0
12.24 0.02 0
12.32 0.02 0
12.4 0.02 0
12.48 0.02 0
12.56 0.02 0
12.64 0.02 0
12.72 0.02 0
12.8 0.02 0
12.88 0.02 0
12.96 0.02 0
13.04 0.02 0
13.12 0.02 0
13.2 0.02 0
13.28 0.02 0
13.36 0.02 0
13.44 0.02 0
13.52 0.02 0
13.6 0.02 0
13.68 0.02 0
13.76 0.02 0
13.84 0.02 0
13.92 0.02 0
14 0.02 0
14.08 0.02 0
14.16 0.02 0
14.24 0.02 0
14.32 0.02 0
14.4 0.02 0
14.48 0.02 0
14.56 0.02 0
14.64 0.02 0
14.72 0.02 0
14.8 0.02 0
14.88 0.02 0
14.96 0.02 0
15.04 0.02 0
15.12 0.02 0
15.2 0.02 0
15.28 0.02 0
15.36 0.02 0
15.44 0.02 0
15.52 0.02 0
15.6 0.02 0
15.68 0.02 0
15.76 0.02 0
15.84 0.02 0
15.92 0.02 0
16 0.02 0
16.08 0.02 0
16.16 0.02 0
16.24 0.02 0
16.32 0.02 0
16.4 0.02 0
16.48 0.02 0
16.56 0.02 0
16.64 0.02 0
16.72 0.02 0
16.8 0.02 0
16.88 0.02 0
16.96 0.02 0
17.04 0.02 0
17.12 0.02 0
17.2 0.02 0
17.28 0.02 0
17.36 0.02 0
17.44 0.02 0
17.52 0.02 0
17.6 0.02 0
17.68 0.02 0
17.76 0.02 0
17.84 0.02 0
17.92 0.02 0
18 0.02 0
18.08 0.02 0
18.16 0.02 0
18.24 0.02 0
18.32 0.02 0
18.4 0.02 0
18.48 0.02 0
18.56 0.02 0
18.64 0.02 0
18.72 0.02 0
18.8 0.02 0
18.88 0.02 0
18.96 0.02 0
19.04 0.02 0
19.12 0.02 0
19.2 0.02 0
19.28 0.02 0
19.36 0.02 0
19.44 0.02 0
19.52 0.02 0
19.6 0.02 0
19.68 0.02 0
19.76 0.02 0
19.84 0.02 0
19.92 0.02 0
20 0.02 0
20.08 0.02 0
20.16 0.02 0
20.24 0.02 0
20.32 0.02 0
20.4 0.02 0
20.48 0.02 0
20.56 0.02 0
20.64 0.02 0
20.72 0.02 0
20.8 0.02 0
20.88 0.02 0
20.96 0.02 0
21.04 0.02 0
21.12 0.02 0
21.2 0.02 0
21.28 0.02 0
21.36 0.02 0
21.44 0.02 0
21.52 0.02 0
21.6 0.02 0
21.68 0.02 0
21.76 0.02 0
21.84 0.02 0
21.92 0.02 0
22 0.02 0
22.08 0.02 0
22.16 0.02 0
22.24 0.02 0
22.32 0.02 0
22.4 0.02 0
22.48 0.02 0
22.56 0.02 0
22.64 0.02 0
22.72 0.02 0
22.8 0.02 0
22.88 0.02 0
22.96 0.02 0
23.04 0.02 0
23.12 0.02 0
23.2 0.02 0
23.28 0.02 0
23.36 0.02 0
23.44 0.02 0
23.52 0.02 0
23.6 0.02 0
23.68 0.02 0
23.76 0.02 0
23.84 0.02 0
23.92 0.02 0
24 0.02 0
24.08 0.02 0
24.16 0.02 0
24.24 0.02 0
24.32 0.02 0
24.4 0.02 0
24.48 0.02 0
24.56 0.02 0
24.64 0.02 0
24.72 0.02 0
24.8 0.02 0
24.88 0.02 0
24.96 0.02 0
25.04 0.02 0
25.12 0.02 0
25.2 0.02 0
25.28 0.02 0
25.36 0.02 0
25.44 0.02 0
25.52 0.02 0
25.6 0.02 0
25.68 0.02 0
25.76 0.02 0
25.84 0.02 0
25.92 0.02 0
26 0.02 0
26.08 0.02 0
26.16 0.02 0
26.24 0.02 0
26.32 0.02 0
26.4 0.02 0
26.48 0.02 0
26.56 0.02 0
26.64 0.02 0
26.72 0.02 0
26.8 0.02 0
26.88 0.02 0
26.96 0.02 0
27.04 0.02 0
27.12 0.02 0
27.2 0.02 0
27.28 0.02 0
27.36 0.02 0
27.44 0.02 0
27.52 0.02 0
27.6 0.02 0
27.68 0.02 0
27.76 0.02 0
27.84 0.02 0
27.92 0.02 0
28 0.02 0
28.08 0.02 0
28.16 0.02 0
28.24 0.02 0
28.32 0.02 0
28.4 0.02 0
28.48 0.02 0
28.56 0.02 0
28.64 0.02 0
28.72 0.02 0
28.8 0.02 0
28.88 0.02 0
28.96 0.02 0
29.04 0.02 0
29.12 0.02 0
29.2 0.02 0
29.28 0.02 0
29.36 0.02 0
29.44 0.02 0
29.52 0.02 0
29.6 0.02 0
29.68 0.02 0
29.76 0.02 0
29.84 0.02 0
29.92 0.02 0
30 0.02 0
30.08 0.02 0
30.16 0.02 0
30.24 0.02 0
30.32 0.02 0
30.4 0.02 0
30.48 0.02 0
30.56 0.02 0
30.64 0.02 0
30.72 0.02 0
30.8 0.02 0
30.88 0.02 0
30.96 0.02 0
31.04 0.02 0
31.12 0.02 0
31.2 0.02 0
31.28 0.02 0
31.36 0.02 0
31.44 0.02 0
31.52 0.02 0
31.6 0.02 0
31.68 0.02 0
31.76 0.02 0
31.84 0.02 0
31.92 0.02 0
0 0.04 0
0.08 0.04 0
0.16 0.04 0
0.24 0.04 0
0.32 0.04 0
0.4 0.04 0
0.48 0.04 0
0.56 0.04 0
0.64 0.04 0
0.72 0.04 0
0.8 0.04 0
0.88 0.04 0
0.96 0.04 0
1.04 0.04 0
1.12 0.04 0
1.2 0.04 0
1.28 0.04 0
1.36 0.04 0
1.44 0.04 0
1.52 0.04 0
1.6 0.04 0
1.68 0.04 0
1.76 0.04 0
1.84 0.04 0
1.92 0.04 0
2 0.04 0
2.08 0.04 0
2.16 0.04 0
2.24 0.04 0
2.32 0.04 0
2.4 0.04 0
2.48 0.04 0
2.56 0.04 0
2.64 0.04 0
2.72 0.04 0
2.8 0.04 0
2.88 0.04 0
2.96 0.04 0
3.04 0.04 0
3.12 0.04 0
3.2 0.04 0
3.28 0.04 0
3.36 0.04 0
3.44 0.04 0
3.52 0.04 0
3.6 0.04 0
3.68 0.04 0
3.76 0.04 0
3.84 0.04 0
3.92 0.04 0
4 0.04 0
4.08 0.04 0
4.16 0.04 0
4.24 0.04 0
4.32 0.04 0
4.4 0.04 0
4.48 0.04 0
4.56 0.04 0
4.64 0.04 0
4.72 0.04 0
4.8 0.04 0
4.88 0.04 0
4.96 0.04 0
5.04 0.04 0
5.12 0.04 0
5.2 0.04 0
5.28 0.04 0
5.36 0.04 0
5.44 0.04 0
5.52 0.04 0
5.6 0.04 0
5.68 0.04 0
5.76 0.04 0
5.84 0.04 0
5.92 0.04 0
6 0.04 0
6.08 0.04 0
6.16 0.04 0
6.24 0.04 0
6.32 0.04 0
6.4 0.04 0
6.48 0.04 0
6.56 0.04 0
6.64 0.04 0
6.72 0.04 0
6.8 0.04 0
6.88 0.04 0
6.96 0.04 0
7.04 0.04 0
7.12 0.04 0
7.2 0.04 0
7.28 0.04 0
7.36 0.04 0
7.44 0.04 0
7.52 0.04 0
7.6 0.04 0
7.68 0.04 0
7.76 0.04 0
7.84 0.04 0
[...]
POINT_DATA 20000

SCALARS v float 1
LOOKUP_TABLE default
0
0
0
0
0
0
0
0
0
0
0
0
0
0
0
0
0
0
0
0
0
0
0
0
0
0
0
0
0
0
0
0
0
0
0
0
0
0
0
0
0
0
0
0
0
0
0
0
0
0
0
0
0
0
0
0
0
0
0
0
0
0
0
0
0
0
0
0
0
0
0
0
0
0
0
0
0
0
0
0
0
0
0
0
0
0
0
0
0
0
0
0
0
0
0
0
0
0
0
0
0
0
0
0
0
0
0
0
0
0
0
0
0
0
0
0
0
0
0
0
0
0
0
0
0
0
0
0
0
0
0
0
0
0
0
0
0
0
0
0
0
0
0
0
0
0
0
0
0
0
0
0
0
0
0
0
0
0
0
0
0
0
0
0
0
0
0
0
0
0
0
0
0
0
0
0
0
0
0
0
0
0
0
0
0
0
0
0
0
0
0
0
0
0
0
0
0
0
0
0
0
0
0
0
0
0
0
0
0
0
0
0
0
0
0
0
0
0
0
0
0
0
0
0
0
0
0
0
0
0
0
0
0
0
0
0
0
0
0
0
0
0
0
0
0
0
0
0
0
0
0
0
0
0
0
0
0
0
0
0
0
0
0
0
0
0
0
0
0
0
0
0
0
0
0
0
0
0
0
0
0
0
0
0
0
0
0
0
0
0
0
0
0
0
0
0
0
0
0
0
0
0
0
0
0
0
0
0
0
0
0
0
0
0
0
0
0
0
0
0
0
0
0
0
0
0
0
0
0
0
0
0
0
0
0
0
0
0
0
0
0
0
0
0
0
0
0
0
0
0
0
0
0
0
0
0
0
0
0
0
0
0
0
0
0
0
0
0
0
0
0
0
0
0
0
0
0
0
0
0
0
0
0
0
0
0
0
0
0
0
0
0
0
0
0
0
0
0
0
0
-0.123226
0.123226
0.0537909
0.019438
0.00878208
0.00508863
0.00338665
0.00243618
0.00184635
0.00145512
0.00118286
0.00098606
0.000839194
0.000726499
0.00063786
0.000566591
0.000508165
0.000459446
0.000418217
0.000382882
0.000352266
0.00032549
0.000301885
0.000280931
0.000262218
0.000245417
0.000230263
0.000216536
0.000204055
0.000192667
0.000182244
0.000172675
0.000163866
0.000155737
0.000148217
0.000141243
0.000134764
0.000128731
0.000123104
0.000117844
0.000112921
0.000108303
0.000103967
9.98872e-05
9.60445e-05
9.24196e-05
8.89959e-05
8.5758e-05
8.26921e-05
7.97855e-05
7.70269e-05
7.44058e-05
7.19126e-05
6.95388e-05
6.72764e-05
6.51181e-05
6.30574e-05
6.10879e-05
5.92041e-05
5.74004e-05
5.56721e-05
5.40146e-05
5.24238e-05
5.0896e-05
4.94276e-05
4.80155e-05
4.66566e-05
4.53481e-05
4.40872e-05
4.28715e-05
4.16984e-05
4.05659e-05
3.94719e-05
3.84147e-05
3.73926e-05
3.6404e-05
3.54472e-05
3.45208e-05
3.36232e-05
3.27529e-05
3.19086e-05
3.10893e-05
3.02939e-05
2.95218e-05
2.8772e-05
2.80439e-05
2.73366e-05
2.66492e-05
2.59807e-05
2.53304e-05
2.46973e-05
2.40811e-05
2.34811e-05
2.2897e-05
2.23286e-05
2.17751e-05
2.12361e-05
2.07108e-05
2.01984e-05
1.96985e-05
1.92105e-05
1.87343e-05
1.82696e-05
1.78165e-05
1.73749e-05
1.69446e-05
1.65253e-05
1.61162e-05
1.57167e-05
1.53262e-05
1.49445e-05
1.45716e-05
1.42079e-05
1.38533e-05
1.35077e-05
1.31705e-05
1.28412e-05
1.25194e-05
1.22047e-05
1.18968e-05
1.15954e-05
1.13004e-05
1.1012e-05
1.07306e-05
1.04567e-05
1.01903e-05
9.93068e-06
9.67677e-06
9.42748e-06
9.18239e-06
8.94199e-06
8.70719e-06
8.47872e-06
8.25658e-06
8.04003e-06
7.82814e-06
7.62029e-06
7.41636e-06
7.21647e-06
7.02057e-06
6.82835e-06
6.63957e-06
6.45446e-06
6.27388e-06
6.0987e-06
5.92912e-06
5.76415e-06
5.60199e-06
5.44105e-06
5.28096e-06
5.1229e-06
4.96883e-06
4.82028e-06
4.67738e-06
4.53885e-06
4.40283e-06
4.26803e-06
4.13427e-06
4.00229e-06
3.87297e-06
3.74674e-06
3.6236e-06
3.5035e-06
3.38674e-06
3.27381e-06
3.16477e-06
3.05873e-06
2.95399e-06
2.84889e-06
2.74297e-06
2.63749e-06
2.53483e-06
2.4371e-06
2.34473e-06
2.25607e-06
2.16818e-06
2.07854e-06
1.98632e-06
1.89265e-06
1.79969e-06
1.70924e-06
1.6218e-06
1.53666e-06
1.45267e-06
1.36903e-06
1.2855e-06
1.20191e-06
1.11762e-06
1.03156e-06
9.42964e-07
8.52393e-07
7.62051e-07
6.74947e-07
5.93131e-07
5.16077e-07
4.40394e-07
3.61323e-07
2.75381e-07
1.82633e-07
8.71504e-08
-4.82341e-09
-8.81299e-08
-1.61584e-07
-2.28819e-07
-2.96517e-07
-3.70914e-07
-4.54468e-07
-5.44501e-07
-6.34552e-07
-7.17699e-07
-7.90068e-07
-8.52697e-07
-9.10829e-07
-9.71113e-07
-1.03822e-06
-1.11261e-06
-1.19052e-06
-1.266e-06
-1.33388e-06
-1.39212e-06
-1.44247e-06
-1.48934e-06
-1.53741e-06
-1.58947e-06
-1.64529e-06
-1.70206e-06
-1.75591e-06
-1.8038e-06
-1.84479e-06
-1.88016e-06
-1.91264e-06
-1.94501e-06
-1.9789e-06
-2.01424e-06
-2.04962e-06
-2.083e-06
-2.11277e-06
-2.13834e-06
-2.16026e-06
-2.17982e-06
-2.19844e-06
-2.21706e-06
-2.23586e-06
-2.25435e-06
-2.27168e-06
-2.28708e-06
-2.30019e-06
-2.31114e-06
-2.3205e-06
-2.32894e-06
-2.33706e-06
-2.34513e-06
-2.35312e-06
-2.36073e-06
-2.3676e-06
-2.37348e-06
-2.37827e-06
-2.3821e-06
-2.38523e-06
-2.38799e-06
-2.39064e-06
-2.39333e-06
-2.39609e-06
-2.39884e-06
-2.40147e-06
-2.40385e-06
-2.40593e-06
-2.40772e-06
-2.40927e-06
-2.41067e-06
-2.41202e-06
-2.41338e-06
-2.41481e-06
-2.41629e-06
-2.41781e-06
-2.41933e-06
-2.42083e-06
-2.42229e-06
-2.42368e-06
-2.42504e-06
-2.42636e-06
-2.42766e-06
-2.42897e-06
-2.43029e-06
-2.43161e-06
-2.43295e-06
-2.43429e-06
-2.43563e-06
-2.43696e-06
-2.43828e-06
-2.43958e-06
-2.44087e-06
-2.44215e-06
-2.44342e-06
-2.44469e-06
-2.44595e-06
-2.4472e-06
-2.44845e-06
-2.4497e-06
-2.45094e-06
-2.45217e-06
-2.45339e-06
-2.45461e-06
-2.45581e-06
-2.45701e-06
-2.4582e-06
-2.45938e-06
-2.46056e-06
-2.46172e-06
-2.46289e-06
-2.46404e-06
-2.46518e-06
-2.46631e-06
-2.46744e-06
-2.46856e-06
-2.46967e-06
-2.47077e-06
-2.47187e-06
-2.47295e-06
-2.47403e-06
-2.47509e-06
-2.47616e-06
-2.4772e-06
-2.47825e-06
-2.47927e-06
-2.48031e-06
-2.48131e-06
-2.48233e-06
-2.48331e-06
-2.48431e-06
-2.48527e-06
-2.48626e-06
-2.48719e-06
-2.48817e-06
-2.48908e-06
-2.49005e-06
-2.49093e-06
-2.49188e-06
-2.49273e-06
-2.49369e-06
-2.4945e-06
-2.49545e-06
-2.49622e-06
-2.49718e-06
-2.49791e-06
-2.49888e-06
-2.49955e-06
-2.50054e-06
-2.50115e-06
-2.50218e-06
-2.5027e-06
-2.50378e-06
-2.50421e-06
-2.50536e-06
-2.50567e-06
-2.50693e-06
-2.50709e-06
-2.50848e-06
-2.50845e-06
-2.51003e-06
-2.50977e-06
-2.5116e-06
-2.51103e-06
-2.51319e-06
-2.51223e-06
-2.51484e-06
-2.51338e-06
-2.51658e-06
-2.51446e-06
-2.51843e-06
-2.51548e-06
-2.52046e-06
-2.51644e-06
-2.52274e-06
-2.51733e-06
-2.52534e-06
-2.51816e-06
-2.52838e-06
-2.51895e-06
-2.53199e-06
-2.5197e-06
-2.53634e-06
-2.52047e-06
-2.54158e-06
-2.52132e-06
-2.5478e-06
-2.52237e-06
-2.5548e-06
-2.52392e-06
-2.56139e-06
-2.52659e-06
-2.56347e-06
-2.53182e-06
-2.5479e-06
-2.54256e-06
-2.46632e-06
-2.5601e-06
-1.97451e-06
-2.25888e-06
-2.25888e-06
-0.142152
0.142152
0.101003
0.0539117
0.0302551
0.018917
0.0129262
0.00941165
0.00717869
0.00567577
0.00461927
0.00385025
0.00327375
0.00283023
0.00248105
0.00220037
0.00197055
0.00177924
0.00161769
0.00147954
0.0013601
0.00125587
0.00116415
0.00108288
0.00101041
0.00094543
0.000886889
0.000833916
0.000785793
0.00074192
0.000701789
0.00066497
0.000631094
0.000599845
0.000570949
0.000544165
0.000519287
0.000496131
0.000474535
0.000454358
0.000435473
0.000417768
0.000401142
0.000385507
0.000370781
0.000356893
0.000343778
0.000331377
0.000319637
0.000308508
0.000297948
0.000287915
0.000278373
0.00026929
0.000260634
0.000252378
0.000244496
0.000236964
0.00022976
0.000222863
0.000216256
0.000209921
0.000203841
0.000198003
0.000192394
0.000187
0.00018181
0.000176813
0.000171998
0.000167356
0.000162878
0.000158556
0.000154381
0.000150347
0.000146448
0.000142676
0.000139027
0.000135493
0.00013207
0.000128751
0.000125533
0.00012241
0.00011938
0.000116439
0.000113584
0.000110811
0.000108117
0.0001055
0.000102955
0.000100479
9.80701e-05
9.57255e-05
9.34434e-05
9.12224e-05
8.90606e-05
8.6956e-05
8.4906e-05
8.29081e-05
8.09601e-05
7.90599e-05
7.72061e-05
7.53978e-05
7.36344e-05
7.19153e-05
7.02401e-05
6.86076e-05
6.70161e-05
6.54634e-05
6.39472e-05
6.2466e-05
6.10192e-05
5.96069e-05
5.82295e-05
5.68866e-05
5.55771e-05
5.42994e-05
5.30516e-05
5.18322e-05
5.06402e-05
4.94745e-05
4.83345e-05
4.722e-05
4.61314e-05
4.50699e-05
4.4036e-05
4.30292e-05
4.20469e-05
4.10856e-05
4.01428e-05
3.92177e-05
3.83121e-05
3.74285e-05
3.65681e-05
3.57302e-05
3.49123e-05
3.41117e-05
3.33268e-05
3.25574e-05
3.18037e-05
3.10655e-05
3.03417e-05
2.96322e-05
2.89379e-05
2.8261e-05
2.76032e-05
2.69642e-05
2.63402e-05
2.57262e-05
2.51186e-05
2.45176e-05
2.39271e-05
2.33526e-05
2.27973e-05
2.22602e-05
2.17369e-05
2.12224e-05
2.07136e-05
2.02109e-05
1.97167e-05
1.92332e-05
1.87615e-05
1.83014e-05
1.78528e-05
1.74164e-05
1.69931e-05
1.6582e-05
1.61799e-05
1.5782e-05
1.53845e-05
1.49874e-05
1.45953e-05
1.42147e-05
1.385e-05
1.35006e-05
1.31603e-05
1.28208e-05
1.2476e-05
1.21252e-05
1.17726e-05
1.14242e-05
1.10844e-05
1.07534e-05
1.04284e-05
1.01061e-05
9.78439e-06
9.46236e-06
9.13932e-06
8.81337e-06
8.48202e-06
8.14441e-06
7.80355e-06
7.46635e-06
7.14044e-06
6.82934e-06
6.52906e-06
6.22875e-06
5.91604e-06
5.58426e-06
5.23734e-06
4.88914e-06
4.55676e-06
4.25157e-06
3.97257e-06
3.70639e-06
3.43402e-06
3.14082e-06
2.82447e-06
2.49644e-06
2.17617e-06
1.88115e-06
1.61818e-06
1.38027e-06
1.15069e-06
9.11778e-07
6.53842e-07
3.79629e-07
1.0244e-07
-1.60798e-07
-3.97732e-07
-6.05965e-07
-7.93262e-07
-9.72943e-07
-1.15711e-06
-1.3511e-06
-1.55173e-06
-1.74957e-06
-1.93394e-06
-2.09784e-06
-2.24069e-06
-2.36783e-06
-2.48748e-06
-2.60687e-06
-2.72924e-06
-2.8531e-06
-2.9736e-06
-3.08513e-06
-3.18391e-06
-3.26935e-06
-3.34392e-06
-3.41169e-06
-3.47649e-06
-3.54044e-06
-3.60348e-06
-3.66379e-06
-3.71896e-06
-3.76713e-06
-3.8078e-06
-3.84187e-06
-3.87119e-06
-3.8978e-06
-3.92317e-06
-3.94786e-06
-3.97155e-06
-3.99331e-06
-4.01222e-06
-4.0277e-06
-4.03975e-06
-4.04896e-06
-4.05623e-06
-4.06249e-06
-4.06845e-06
-4.07446e-06
-4.0805e-06
-4.0863e-06
-4.09152e-06
-4.09589e-06
-4.09929e-06
-4.10183e-06
-4.10372e-06
-4.10525e-06
-4.1067e-06
-4.10825e-06
-4.10998e-06
-4.11187e-06
-4.11384e-06
-4.11581e-06
-4.11767e-06
-4.11938e-06
-4.12095e-06
-4.12241e-06
-4.12379e-06
-4.12516e-06
-4.12655e-06
-4.12799e-06
-4.12948e-06
-4.131e-06
-4.13254e-06
-4.13407e-06
-4.13559e-06
-4.13707e-06
-4.13853e-06
-4.13996e-06
-4.14138e-06
-4.14278e-06
-4.14418e-06
-4.14558e-06
-4.14697e-06
-4.14837e-06
-4.14976e-06
-4.15115e-06
-4.15253e-06
-4.1539e-06
-4.15525e-06
-4.1566e-06
-4.15793e-06
-4.15926e-06
-4.16057e-06
-4.16188e-06
-4.16318e-06
-4.16447e-06
-4.16575e-06
-4.16703e-06
-4.16829e-06
-4.16956e-06
-4.1708e-06
-4.17204e-06
-4.17326e-06
-4.17449e-06
-4.17569e-06
-4.1769e-06
-4.17808e-06
-4.17927e-06
-4.18042e-06
-4.18161e-06
-4.18273e-06
-4.1839e-06
-4.185e-06
-4.18616e-06
-4.18722e-06
-4.18837e-06
-4.1894e-06
-4.19055e-06
-4.19154e-06
-4.19269e-06
-4.19364e-06
-4.19479e-06
-4.19569e-06
-4.19686e-06
-4.19769e-06
-4.19889e-06
-4.19965e-06
-4.20088e-06
-4.20156e-06
-4.20285e-06
-4.20342e-06
-4.20479e-06
-4.20523e-06
-4.20672e-06
-4.20698e-06
-4.20863e-06
-4.20868e-06
-4.21054e-06
-4.21033e-06
-4.21246e-06
-4.21191e-06
-4.21442e-06
-4.21344e-06
-4.21644e-06
-4.2149e-06
-4.21855e-06
-4.21628e-06
-4.2208e-06
-4.2176e-06
-4.22324e-06
-4.21884e-06
-4.22596e-06
-4.21999e-06
-4.22907e-06
-4.22106e-06
-4.23269e-06
-4.22204e-06
-4.237e-06
-4.22295e-06
-4.24224e-06
-4.2238e-06
-4.24869e-06
-4.22463e-06
-4.25673e-06
-4.22549e-06
-4.26683e-06
-4.22648e-06
-4.27956e-06
-4.22775e-06
-4.2955e-06
-4.22955e-06
-4.31504e-06
-4.23229e-06
-4.33762e-06
-4.2368e-06
-4.35965e-06
-4.24474e-06
-4.36843e-06
-4.25939e-06
-4.32317e-06
-4.28549e-06
-4.07667e-06
-4.30776e-06
-2.70519e-06
-3.45463e-06
-3.45463e-06
-0.122225
0.122225
0.121662
0.0822665
0.0539934
0.0368626
0.0263917
0.0197148
0.0152641
0.0121786
0.00996684
0.00833505
0.00710007
0.00614365
0.00538729
0.00477761
0.00427758
0.00386106
0.00350928
0.00320853
0.00294866
0.00272199
0.00252267
0.00234614
0.00218882
0.00204784
0.00192087
0.00180602
0.00170171
0.00160664
0.0015197
0.00143994
0.00136657
0.0012989
0.00123632
0.00117833
0.00112446
0.00107433
0.00102758
0.000983896
0.000943014
0.000904688
0.000868699
0.000834855
0.000802982
0.000772923
0.000744538
0.000717698
0.000692288
0.000668204
0.000645349
0.000623637
0.00060299
0.000583334
0.000564603
0.000546738
0.000529683
0.000513385
0.000497799
0.000482878
0.000468584
0.000454879
0.000441728
0.000429101
0.000416969
0.000405303
0.000394079
0.000383273
0.000372862
0.000362825
0.000353143
0.000343797
0.000334772
0.000326053
0.000317624
0.000309472
0.000301583
0.000293946
0.000286547
0.000279376
0.000272423
0.000265677
0.000259133
0.000252781
0.000246615
0.000240627
0.000234811
0.00022916
0.000223665
0.00021832
0.00021312
0.00020806
0.000203135
0.000198343
0.000193678
0.000189136
0.000184713
0.000180402
0.0001762
0.000172101
0.000168104
0.000164206
0.000160406
0.000156702
0.000153092
0.000149574
0.000146144
0.000142798
0.000139531
0.00013634
0.000133225
0.000130185
0.00012722
0.000124329
0.000121509
0.000118758
0.000116071
0.000113446
0.00011088
0.000108372
0.000105921
0.000103526
0.000101187
9.89072e-05
9.66857e-05
9.45208e-05
9.24076e-05
9.03397e-05
8.83129e-05
8.63265e-05
8.43835e-05
8.24878e-05
8.06412e-05
7.88415e-05
7.70838e-05
7.53631e-05
7.3677e-05
7.20249e-05
7.04072e-05
6.88232e-05
6.72715e-05
6.57515e-05
6.4265e-05
6.28157e-05
6.14059e-05
6.00335e-05
5.86915e-05
5.73713e-05
5.60673e-05
5.47808e-05
5.35197e-05
5.22927e-05
5.11044e-05
4.99519e-05
4.88268e-05
4.77203e-05
4.6628e-05
4.5551e-05
4.44939e-05
4.34605e-05
4.24523e-05
4.14688e-05
4.05096e-05
3.95756e-05
3.86676e-05
3.77834e-05
3.69167e-05
3.6059e-05
3.52047e-05
3.43551e-05
3.35186e-05
3.27062e-05
3.19242e-05
3.11694e-05
3.04297e-05
2.96905e-05
2.89423e-05
2.81854e-05
2.7428e-05
2.66807e-05
2.59498e-05
2.52347e-05
2.45298e-05
2.38288e-05
2.31281e-05
2.24263e-05
2.17219e-05
2.10119e-05
2.02925e-05
1.95635e-05
1.88314e-05
1.81085e-05
1.74071e-05
1.67313e-05
1.60719e-05
1.54092e-05
1.47231e-05
1.40052e-05
1.32658e-05
1.2531e-05
1.18299e-05
1.11789e-05
1.05721e-05
9.98366e-06
9.38062e-06
8.74073e-06
8.06453e-06
7.37561e-06
6.7087e-06
6.09201e-06
5.53323e-06
5.01637e-06
4.51072e-06
3.98695e-06
3.43183e-06
2.85417e-06
2.27962e-06
1.73758e-06
1.24715e-06
8.09128e-07
4.07338e-07
1.78231e-08
-3.7916e-07
-7.90342e-07
-1.2076e-06
-1.61323e-06
-1.98896e-06
-2.32434e-06
-2.62054e-06
-2.8885e-06
-3.14307e-06
-3.3961e-06
-3.6519e-06
-3.90651e-06
-4.15077e-06
-4.3751e-06
-4.5738e-06
-4.74704e-06
-4.90004e-06
-5.04033e-06
-5.17439e-06
-5.30543e-06
-5.43269e-06
-5.55271e-06
-5.66131e-06
-5.75567e-06
-5.83546e-06
-5.90281e-06
-5.96127e-06
-6.01446e-06
-6.06484e-06
-6.11314e-06
-6.15857e-06
-6.19953e-06
-6.23447e-06
-6.26264e-06
-6.28435e-06
-6.30086e-06
-6.31391e-06
-6.32518e-06
-6.33586e-06
-6.34647e-06
-6.35688e-06
-6.36659e-06
-6.375e-06
-6.3817e-06
-6.38659e-06
-6.38991e-06
-6.39212e-06
-6.39378e-06
-6.39534e-06
-6.39712e-06
-6.39922e-06
-6.40159e-06
-6.40407e-06
-6.40649e-06
-6.4087e-06
-6.41063e-06
-6.4123e-06
-6.41378e-06
-6.41516e-06
-6.41654e-06
-6.41797e-06
-6.4195e-06
-6.42112e-06
-6.42281e-06
-6.42452e-06
-6.42622e-06
-6.42788e-06
-6.4295e-06
-6.43106e-06
-6.43259e-06
-6.4341e-06
-6.43559e-06
-6.43708e-06
-6.43858e-06
-6.44009e-06
-6.44159e-06
-6.4431e-06
-6.4446e-06
-6.44608e-06
-6.44756e-06
-6.44901e-06
-6.45046e-06
-6.45189e-06
-6.45331e-06
-6.45472e-06
-6.45613e-06
-6.45752e-06
-6.45891e-06
-6.46028e-06
-6.46166e-06
-6.46301e-06
-6.46437e-06
-6.4657e-06
-6.46704e-06
-6.46834e-06
-6.46967e-06
-6.47094e-06
-6.47225e-06
-6.4735e-06
-6.4748e-06
-6.47601e-06
-6.4773e-06
-6.47848e-06
-6.47976e-06
-6.4809e-06
-6.48218e-06
-6.48328e-06
-6.48456e-06
-6.48561e-06
-6.4869e-06
-6.48789e-06
-6.4892e-06
-6.49013e-06
-6.49147e-06
-6.49231e-06
-6.4937e-06
-6.49444e-06
-6.4959e-06
-6.49651e-06
-6.49807e-06
-6.49853e-06
-6.50022e-06
-6.50049e-06
-6.50237e-06
-6.50239e-06
-6.50452e-06
-6.50422e-06
-6.50668e-06
-6.50599e-06
-6.50889e-06
-6.50769e-06
-6.51116e-06
-6.50932e-06
-6.51355e-06
-6.51086e-06
-6.51609e-06
-6.51232e-06
-6.51887e-06
-6.51369e-06
-6.52196e-06
-6.51497e-06
-6.5255e-06
-6.51613e-06
-6.52964e-06
-6.51719e-06
-6.53459e-06
-6.51813e-06
-6.54063e-06
-6.51898e-06
-6.5481e-06
-6.51975e-06
-6.55748e-06
-6.52048e-06
-6.56935e-06
-6.52126e-06
-6.58449e-06
-6.52221e-06
-6.60385e-06
-6.52352e-06
-6.62862e-06
-6.52549e-06
-6.66005e-06
-6.52859e-06
-6.69905e-06
-6.53364e-06
-6.74481e-06
-6.54209e-06
-6.79086e-06
-6.55668e-06
-6.81399e-06
-6.58187e-06
-6.74022e-06
-6.61944e-06
-6.31031e-06
-6.60818e-06
-4.10193e-06
-5.03047e-06
-5.03047e-06
-0.0942776
0.0942776
0.121015
0.0969684
0.0717925
0.053197
0.0401999
0.0311104
0.0246567
0.0199842
0.0165311
0.013927
0.0119241
0.0103544
0.00910196
0.00808581
0.00724844
0.00654851
0.0059559
0.00544836
0.00500923
0.00462586
0.0042885
0.00398955
0.00372301
0.00348405
0.00326877
0.00307397
0.00289699
0.00273564
0.00258803
0.00245259
0.00232795
0.00221296
0.00210661
0.00200802
0.00191642
0.00183115
0.00175162
0.00167729
0.00160771
0.00154247
0.0014812
0.00142357
0.00136929
0.00131809
0.00126974
0.00122401
0.00118071
0.00113967
0.00110072
0.00106371
0.00102852
0.000995007
0.000963074
0.000932613
0.00090353
0.000875738
0.000849156
0.00082371
0.000799331
0.000775955
0.000753526
0.000731989
0.000711294
0.000691396
0.000672251
0.000653819
0.00063606
0.000618939
0.000602424
0.000586483
0.000571089
0.000556215
0.000541838
0.000527933
0.000514477
0.00050145
0.000488831
0.0004766
0.000464741
0.000453239
0.000442079
0.000431249
0.000420736
0.000410529
0.000400613
0.000390978
0.000381611
0.0003725
0.000363637
0.000355013
0.000346621
0.000338453
0.000330504
0.000322764
0.000315226
0.000307881
0.00030072
0.000293739
0.000286931
0.000280294
0.000273824
0.000267518
0.000261372
0.000255383
0.000249544
0.000243847
0.000238285
0.000232856
0.000227555
0.000222383
0.000217339
0.000212421
0.000207624
0.000202942
0.000198371
0.000193906
0.000189543
0.00018528
0.000181114
0.000177045
0.000173074
0.000169201
0.000165427
0.000161748
0.000158157
0.000154643
0.0001512
0.000147828
0.000144532
0.000141315
0.000138182
0.000135126
0.000132141
0.000129219
0.000126356
0.000123553
0.000120808
0.000118122
0.000115492
0.000112917
0.000110399
0.000107944
0.000105554
0.000103225
0.000100946
9.8705e-05
9.64944e-05
9.4317e-05
9.21843e-05
9.0109e-05
8.80965e-05
8.61415e-05
8.42311e-05
8.23525e-05
8.05e-05
7.8676e-05
7.68874e-05
7.51397e-05
7.34346e-05
7.17708e-05
7.01474e-05
6.85654e-05
6.70251e-05
6.55229e-05
6.4049e-05
6.25915e-05
6.11425e-05
5.97048e-05
5.82909e-05
5.69163e-05
5.55887e-05
5.43016e-05
5.30364e-05
5.17718e-05
5.04951e-05
4.92077e-05
4.79225e-05
4.66546e-05
4.54122e-05
4.41932e-05
4.29885e-05
4.17887e-05
4.05884e-05
3.93859e-05
3.81793e-05
3.69645e-05
3.57366e-05
3.44963e-05
3.32535e-05
3.20264e-05
3.0832e-05
2.96744e-05
2.85389e-05
2.73967e-05
2.622e-05
2.49994e-05
2.37528e-05
2.25195e-05
2.13405e-05
2.0237e-05
1.91969e-05
1.81807e-05
1.71411e-05
1.60489e-05
1.49089e-05
1.37583e-05
1.26481e-05
1.16169e-05
1.06724e-05
9.7879e-06
8.91789e-06
8.02136e-06
7.08255e-06
6.11787e-06
5.16664e-06
4.27124e-06
3.45705e-06
2.72213e-06
2.04067e-06
1.37741e-06
7.05064e-07
1.63332e-08
-6.74711e-07
-1.34126e-06
-1.95735e-06
-2.50952e-06
-3.00156e-06
-3.45088e-06
-3.87937e-06
-4.30355e-06
-4.72832e-06
-5.14673e-06
-5.5449e-06
-5.90923e-06
-6.23239e-06
-6.51578e-06
-6.76793e-06
-7.00013e-06
-7.22165e-06
-7.43661e-06
-7.64342e-06
-7.83674e-06
-8.01066e-06
-8.16153e-06
-8.28945e-06
-8.39807e-06
-8.49287e-06
-8.57918e-06
-8.6604e-06
-8.73743e-06
-8.80895e-06
-8.87264e-06
-8.92644e-06
-8.96952e-06
-9.00266e-06
-9.02796e-06
-9.0481e-06
-9.06556e-06
-9.08205e-06
-9.09819e-06
-9.11375e-06
-9.12795e-06
-9.13994e-06
-9.1492e-06
-9.15569e-06
-9.15985e-06
-9.16244e-06
-9.16427e-06
-9.16603e-06
-9.16814e-06
-9.17073e-06
-9.17368e-06
-9.17674e-06
-9.17966e-06
-9.18223e-06
-9.18439e-06
-9.18616e-06
-9.18766e-06
-9.18904e-06
-9.19044e-06
-9.19194e-06
-9.19359e-06
-9.19538e-06
-9.19726e-06
-9.19917e-06
-9.20106e-06
-9.20289e-06
-9.20465e-06
-9.20634e-06
-9.20798e-06
-9.20959e-06
-9.21119e-06
-9.21279e-06
-9.21441e-06
-9.21603e-06
-9.21767e-06
-9.2193e-06
-9.22092e-06
-9.22253e-06
-9.22413e-06
-9.22569e-06
-9.22726e-06
-9.22879e-06
-9.23032e-06
-9.23183e-06
-9.23335e-06
-9.23484e-06
-9.23634e-06
-9.23781e-06
-9.2393e-06
-9.24074e-06
-9.24222e-06
-9.24363e-06
-9.24508e-06
-9.24647e-06
-9.2479e-06
-9.24925e-06
-9.25068e-06
-9.25199e-06
-9.2534e-06
-9.25468e-06
-9.25608e-06
-9.25731e-06
-9.25872e-06
-9.2599e-06
-9.26131e-06
-9.26243e-06
-9.26386e-06
-9.26491e-06
-9.26636e-06
-9.26733e-06
-9.26883e-06
-9.26969e-06
-9.27126e-06
-9.272e-06
-9.27365e-06
-9.27424e-06
-9.27602e-06
-9.27642e-06
-9.27837e-06
-9.27852e-06
-9.28071e-06
-9.28056e-06
-9.28307e-06
-9.28253e-06
-9.28545e-06
-9.28441e-06
-9.28788e-06
-9.28621e-06
-9.29041e-06
-9.28792e-06
-9.29308e-06
-9.28953e-06
-9.29595e-06
-9.29104e-06
-9.2991e-06
-9.29243e-06
-9.30266e-06
-9.2937e-06
-9.30677e-06
-9.29483e-06
-9.31162e-06
-9.2958e-06
-9.31749e-06