# vtk DataFile Version 2.0
FlowField
ASCII
DATASET STRUCTURED_GRID
DIMENSIONS 400 1 50
POINTS 20000 float
0 0 0
0.08 0 0
0.16 0 0
0.24 0 0
0.32 0 0
0.4 0 0
0.48 0 0
0.56 0 0
0.64 0 0
0.72 0 0
0.8 0 0
0.88 0 0
0.96 0 0
1.04 0 0
1.12 0 0
1.2 0 0
1.28 0 0
1.36 0 0
1.44 0 0
1.52 0 0
1.6 0 0
1.68 0 0
1.76 0 0
1.84 0 0
1.92 0 0
2 0 0
2.08 0 0
2.16 0 0
2.24 0 0
2.32 0 0
2.4 0 0
2.48 0 0
2.56 0 0
2.64 0 0
2.72 0 0
2.8 0 0
2.88 0 0
2.96 0 0
3.04 0 0
3.12 0 0
3.2 0 0
3.28 0 0
3.36 0 0
3.44 0 0
3.52 0 0
3.6 0 0
3.68 0 0
3.76 0 0
3.84 0 0
3.92 0 0
4 0 0
4.08 0 0
4.16 0 0
4.24 0 0
4.32 0 0
4.4 0 0
4.48 0 0
4.56 0 0
4.64 0 0
4.72 0 0
4.8 0 0
4.88 0 0
4.96 0 0
5.04 0 0
5.12 0 0
5.2 0 0
5.28 0 0
5.36 0 0
5.44 0 0
5.52 0 0
5.6 0 0
5.68 0 0
5.76 0 0
5.84 0 0
5.92 0 0
6 0 0
6.08 0 0
6.16 0 0
6.24 0 0
6.32 0 0
6.4 0 0
6.48 0 0
6.56 0 0
6.64 0 0
6.72 0 0
6.8 0 0
6.88 0 0
6.96 0 0
7.04 0 0
7.12 0 0
7.2 0 0
7.28 0 0
7.36 0 0
7.44 0 0
7.52 0 0
7.6 0 0
7.68 0 0
7.76 0 0
7.84 0 0
7.92 0 0
8 0 0
8.08 0 0
8.16 0 0
8.24 0 0
8.32 0 0
8.4 0 0
8.48 0 0
8.56 0 0
8.64 0 0
8.72 0 0
8.8 0 0
8.88 0 0
8.96 0 0
9.04 0 0
9.12 0 0
9.2 0 0
9.28 0 0
9.36 0 0
9.44 0 0
9.52 0 0
9.6 0 0
9.68 0 0
9.76 0 0
9.84 0 0
9.92 0 0
10 0 0
10.08 0 0
10.16 0 0
10.24 0 0
10.32 0 0
10.4 0 0
10.48 0 0
10.56 0 0
10.64 0 0
10.72 0 0
10.8 0 0
10.88 0 0
10.96 0 0
11.04 0 0
11.12 0 0
11.2 0 0
11.28 0 0
11.36 0 0
11.44 0 0
11.52 0 0
11.6 0 0
11.68 0 0
11.76 0 0
11.84 0 0
11.92 0 0
12 0 0
12.08 0 0
12.16 0 0
12.24 0 0
12.32 0 0
12.4 0 0
12.48 0 0
12.56 0 0
12.64 0 0
12.72 0 0
12.8 0 0
12.88 0 0
12.96 0 0
13.04 0 0
13.12 0 0
13.2 0 0
13.28 0 0
13.36 0 0
13.44 0 0
13.52 0 0
13.6 0 0
13.68 0 0
13.76 0 0
13.84 0 0
13.92 0 0
14 0 0
14.08 0 0
14.16 0 0
14.24 0 0
14.32 0 0
14.4 0 0
14.48 0 0
14.56 0 0
14.64 0 0
14.72 0 0
14.8 0 0
14.88 0 0
14.96 0 0
15.04 0 0
15.12 0 0
15.2 0 0
15.28 0 0
15.36 0 0
15.44 0 0
15.52 0 0
15.6 0 0
15.68 0 0
15.76 0 0
15.84 0 0
15.92 0 0
16 0 0
16.08 0 0
16.16 0 0
16.24 0 0
16.32 0 0
16.4 0 0
16.48 0 0
16.56 0 0
16.64 0 0
16.72 0 0
16.8 0 0
16.88 0 0
16.96 0 0
17.04 0 0
17.12 0 0
17.2 0 0
17.28 0 0
17.36 0 0
17.44 0 0
17.52 0 0
17.6 0 0
17.68 0 0
17.76 0 0
17.84 0 0
17.92 0 0
18 0 0
18.08 0 0
18.16 0 0
18.24 0 0
18.32 0 0
18.4 0 0
18.48 0 0
18.56 0 0
18.64 0 0
18.72 0 0
18.8 0 0
18.88 0 0
18.96 0 0
19.04 0 0
19.12 0 0
19.2 0 0
19.28 0 0
19.36 0 0
19.44 0 0
19.52 0 0
19.6 0 0
19.68 0 0
19.76 0 0
19.84 0 0
19.92 0 0
20 0 0
20.08 0 0
20.16 0 0
20.24 0 0
20.32 0 0
20.4 0 0
20.48 0 0
20.56 0 0
20.64 0 0
20.72 0 0
20.8 0 0
20.88 0 0
20.96 0 0
21.04 0 0
21.12 0 0
21.2 0 0
21.28 0 0
21.36 0 0
21.44 0 0
21.52 0 0
21.6 0 0
21.68 0 0
21.76 0 0
21.84 0 0
21.92 0 0
22 0 0
22.08 0 0
22.16 0 0
22.24 0 0
22.32 0 0
22.4 0 0
22.48 0 0
22.56 0 0
22.64 0 0
22.72 0 0
22.8 0 0
22.88 0 0
22.96 0 0
23.04 0 0
23.12 0 0
23.2 0 0
23.28 0 0
23.36 0 0
23.44 0 0
23.52 0 0
23.6 0 0
23.68 0 0
23.76 0 0
23.84 0 0
23.92 0 0
24 0 0
24.08 0 0
24.16 0 0
24.24 0 0
24.32 0 0
24.4 0 0
24.48 0 0
24.56 0 0
24.64 0 0
24.72 0 0
24.8 0 0
24.88 0 0
24.96 0 0
25.04 0 0
25.12 0 0
25.2 0 0
25.28 0 0
25.36 0 0
25.44 0 0
25.52 0 0
25.6 0 0
25.68 0 0
25.76 0 0
25.84 0 0
25.92 0 0
26 0 0
26.08 0 0
26.16 0 0
26.24 0 0
26.32 0 0
26.4 0 0
26.48 0 0
26.56 0 0
26.64 0 0
26.72 0 0
26.8 0 0
26.88 0 0
26.96 0 0
27.04 0 0
27.12 0 0
27.2 0 0
27.28 0 0
27.36 0 0
27.44 0 0
27.52 0 0
27.6 0 0
27.68 0 0
27.76 0 0
27.84 0 0
27.92 0 0
28 0 0
28.08 0 0
28.16 0 0
28.24 0 0
28.32 0 0
28.4 0 0
28.48 0 0
28.56 0 0
28.64 0 0
28.72 0 0
28.8 0 0
28.88 0 0
28.96 0 0
29.04 0 0
29.12 0 0
29.2 0 0
29.28 0 0
29.36 0 0
29.44 0 0
29.52 0 0
29.6 0 0
29.68 0 0
29.76 0 0
29.84 0 0
29.92 0 0
30 0 0
30.08 0 0
30.16 0 0
30.24 0 0
30.32 0 0
30.4 0 0
30.48 0 0
30.56 0 0
30.64 0 0
30.72 0 0
30.8 0 0
30.88 0 0
30.96 0 0
31.04 0 0
31.12 0 0
31.2 0 0
31.28 0 0
31.36 0 0
31.44 0 0
31.52 0 0
31.6 0 0
31.68 0 0
31.76 0 0
31.84 0 0
31.92 0 0
0 0.02 0
0.08 0.02 0
0.16 0.02 0
0.24 0.02 0
0.32 0.02 0
0.4 0.02 0
0.48 0.02 0
0.56 0.02 0
0.64 0.02 0
0.72 0.02 0
0.8 0.02 0
0.88 0.02 0
0.96 0.02 0
1.04 0.02 0
1.12 0.02 0
1.2 0.02 0
1.28 0.02 0
1.36 0.02 0
1.44 0.02 0
1.52 0.02 0
1.6 0.02 0
1.68 0.02 0
1.76 0.02 0
1.84 0.02 0
1.92 0.02 0
2 0.02 0
2.08 0.02 0
2.16 0.02 0
2.24 0.02 0
2.32 0.02 0
2.4 0.02 0
2.48 0.02 0
2.56 0.02 0
2.64 0.02 0
2.72 0.02 0
2.8 0.02 0
2.88 0.02 0
2.96 0.02 0
3.04 0.02 0
3.12 0.02 0
3.2 0.02 0
3.28 0.02 0
3.36 0.02 0
3.44 0.02 0
3.52 0.02 0
3.6 0.02 0
3.68 0.02 0
3.76 0.02 0
3.84 0.02 0
3.92 0.02 0
4 0.02 0
4.08 0.02 0
4.16 0.02 0
4.24 0.02 0
4.32 0.02 0
4.4 0.02 0
4.48 0.02 0
4.56 0.02 0
4.64 0.02 0
4.72 0.02 0
4.8 0.02 0
4.88 0.02 0
4.96 0.02 0
5.04 0.02 0
5.12 0.02 0
5.2 0.02 0
5.28 0.02 0
5.36 0.02 0
5.44 0.02 0
5.52 0.02 0
5.6 0.02 0
5.68 0.02 0
5.76 0.02 0
5.84 0.02 0
5.92 0.02 0
6 0.02 0
6.08 0.02 0
6.16 0.02 0
6.24 0.02 0
6.32 0.02 0
6.4 0.02 0
6.48 0.02 0
6.56 0.02 0
6.64 0.02 0
6.72 0.02 0
6.8 0.02 0
6.88 0.02 0
6.96 0.02 0
7.04 0.02 0
7.12 0.02 0
7.2 0.02 0
7.28 0.02 0
7.36 0.02 0
7.44 0.02 0
7.52 0.02 0
7.6 0.02 0
7.68 0.02 0
7.76 0.02 0
7.84 0.02 0
7.92 0.02 0
8 0.02 0
8.08 0.02 0
8.16 0.02 0
8.24 0.02 0
8.32 0.02 0
8.4 0.02 0
8.48 0.02 0
8.56 0.02 0
8.64 0.02 0
8.72 0.02 0
8.8 0.02 0
8.88 0.02 0
8.96 0.02 0
9.04 0.02 0
9.12 0.02 0
9.2 0.02 0
9.28 0.02 0
9.36 0.02 0
9.44 0.02 0
9.52 0.02 0
9.6 0.02 0
9.68 0.02 0
9.76 0.02 0
9.84 0.02 0
9.92 0.02 0
10 0.02 0
10.08 0.02 0
10.16 0.02 0
10.24 0.02 0
10.32 0.02 0
10.4 0.02 0
10.48 0.02 0
10.56 0.02 0
10.64 0.02 0
10.72 0.02 0
10.8 0.02 0
10.88 0.02 0
10.96 0.02 0
11.04 0.02 0
11.12 0.02 0
11.2 0.02 0
11.28 0.02 0
11.36 0.02 0
11.44 0.02 0
11.52 0.02 0
11.6 0.02 0
11.68 0.02 0
11.76 0.02 0
11.84 0.02 0
11.92 0.02 0
12 0.02 0
12.08 0.02 0
12.16 0.02 0
12.24 0.02 0
12.32 0.02 0
12.4 0.02 0
12.48 0.02 0
12.56 0.02 0
12.64 0.02 0
12.72 0.02 0
12.8 0.02 0
12.88 0.02 0
12.96 0.02 0
13.04 0.02 0
13.12 0.02 0
13.2 0.02 0
13.28 0.02 0
13.36 0.02 0
13.44 0.02 0
13.52 0.02 0
13.6 0.02 0
13.68 0.02 0
13.76 0.02 0
13.84 0.02 0
13.92 0.02 0
14 0.02 0
14.08 0.02 0
14.16 0.02 0
14.24 0.02 0
14.32 0.02 0
14.4 0.02 0
14.48 0.02 0
14.56 0.02 0
14.64 0.02 0
14.72 0.02 0
14.8 0.02 0
14.88 0.02 0
14.96 0.02 0
15.04 0.02 0
15.12 0.02 0
15.2 0.02 0
15.28 0.02 0
15.36 0.02 0
15.44 0.02 0
15.52 0.02 0
15.6 0.02 0
15.68 0.02 0
15.76 0.02 0
15.84 0.02 0
15.92 0.02 0
16 0.02 0
16.08 0.02 0
16.16 0.02 0
16.24 0.02 0
16.32 0.02 0
16.4 0.02 0
16.48 0.02 0
16.56 0.02 0
16.64 0.02 0
16.72 0.02 0
16.8 0.02 0
16.88 0.02 0
16.96 0.02 0
17.04 0.02 0
17.12 0.02 0
17.2 0.02 0
17.28 0.02 0
17.36 0.02 0
17.44 0.02 0
17.52 0.02 0
17.6 0.02 0
17.68 0.02 0
17.76 0.02 0
17.84 0.02 0
17.92 0.02 0
18 0.02 0
18.08 0.02 0
18.16 0.02 0
18.24 0.02 0
18.32 0.02 0
18.4 0.02 0
18.48 0.02 0
18.56 0.02 0
18.64 0.02 0
18.72 0.02 0
18.8 0.02 0
18.88 0.02 0
18.96 0.02 0
19.04 0.02 0
19.12 0.02 0
19.2 0.02 0
19.28 0.02 0
19.36 0.02 0
19.44 0.02 0
19.52 0.02 0
19.6 0.02 0
19.68 0.02 0
19.76 0.02 0
19.84 0.02 0
19.92 0.02 0
20 0.02 0
20.08 0.02 0
20.16 0.02 0
20.24 0.02 0
20.32 0.02 0
20.4 0.02 0
20.48 0.02 0
20.56 0.02 0
20.64 0.02 0
20.72 0.02 0
20.8 0.02 0
20.88 0.02 0
20.96 0.02 0
21.04 0.02 0
21.12 0.02 0
21.2 0.02 0
21.28 0.02 0
21.36 0.02 0
21.44 0.02 0
21.52 0.02 0
21.6 0.02 0
21.68 0.02 0
21.76 0.02 0
21.84 0.02 0
21.92 0.02 0
22 0.02 0
22.08 0.02 0
22.16 0.02 0
22.24 0.02 0
22.32 0.02 0
22.4 0.02 0
22.48 0.02 0
22.56 0.02 0
22.64 0.02 0
22.72 0.02 0
22.8 0.02 0
22.88 0.02 0
22.96 0.02 0
23.04 0.02 0
23.12 0.02 0
23.2 0.02 0
23.28 0.02 0
23.36 0.02 0
23.44 0.02 0
23.52 0.02 0
23.6 0.02 0
23.68 0.02 0
23.76 0.02 0
23.84 0.02 0
23.92 0.02 0
24 0.02 0
24.08 0.02 0
24.16 0.02 0
24.24 0.02 0
24.32 0.02 0
24.4 0.02 0
24.48 0.02 0
24.56 0.02 0
24.64 0.02 0
24.72 0.02 0
24.8 0.02 0
24.88 0.02 0
24.96 0.02 0
25.04 0.02 0
25.12 0.02 0
25.2 0.02 0
25.28 0.02 0
25.36 0.02 0
25.44 0.02 0
25.52 0.02 0
25.6 0.02 0
25.68 0.02 0
25.76 0.02 0
25.84 0.02 0
25.92 0.02 0
26 0.02 0
26.08 0.02 0
26.16 0.02 0
26.24 0.02 0
26.32 0.02 0
26.4 0.02 0
26.48 0.02 0
26.56 0.02 0
26.64 0.02 0
26.72 0.02 0
26.8 0.02 0
26.88 0.02 0
26.96 0.02 0
27.04 0.02 0
27.12 0.02 0
27.2 0.02 0
27.28 0.02 0
27.36 0.02 0
27.44 0.02 0
27.52 0.02 0
27.6 0.02 0
27.68 0.02 0
27.76 0.02 0
27.84 0.02 0
27.92 0.02 0
28 0.02 0
28.08 0.02 0
28.16 0.02 0
28.24 0.02 0
28.32 0.02 0
28.4 0.02 0
28.48 0.02 0
28.56 0.02 0
28.64 0.02 0
28.72 0.02 0
28.8 0.02 0
28.88 0.02 0
28.96 0.02 0
29.04 0.02 0
29.12 0.02 0
29.2 0.02 0
29.28 0.02 0
29.36 0.02 0
29.44 0.02 0
29.52 0.02 0
29.6 0.02 0
29.68 0.02 0
29.76 0.02 0
29.84 0.02 0
29.92 0.02 0
30 0.02 0
30.08 0.02 0
30.16 0.02 0
30.24 0.02 0
30.32 0.02 0
30.4 0.02 0
30.48 0.02 0
30.56 0.02 0
30.64 0.02 0
30.72 0.02 0
30.8 0.02 0
30.88 0.02 0
30.96 0.02 0
31.04 0.02 0
31.12 0.02 0
31.2 0.02 0
31.28 0.02 0
31.36 0.02 0
31.44 0.02 0
31.52 0.02 0
31.6 0.02 0
31.68 0.02 0
31.76 0.02 0
31.84 0.02 0
31.92 0.02 0
0 0.04 0
0.08 0.04 0
0.16 0.04 0
0.24 0.04 0
0.32 0.04 0
0.4 0.04 0
0.48 0.04 0
0.56 0.04 0
0.64 0.04 0
0.72 0.04 0
0.8 0.04 0
0.88 0.04 0
0.96 0.04 0
1.04 0.04 0
1.12 0.04 0
1.2 0.04 0
1.28 0.04 0
1.36 0.04 0
1.44 0.04 0
1.52 0.04 0
1.6 0.04 0
1.68 0.04 0
1.76 0.04 0
1.84 0.04 0
1.92 0.04 0
2 0.04 0
2.08 0.04 0
2.16 0.04 0
2.24 0.04 0
2.32 0.04 0
2.4 0.04 0
2.48 0.04 0
2.56 0.04 0
2.64 0.04 0
2.72 0.04 0
2.8 0.04 0
2.88 0.04 0
2.96 0.04 0
3.04 0.04 0
3.12 0.04 0
3.2 0.04 0
3.28 0.04 0
3.36 0.04 0
3.44 0.04 0
3.52 0.04 0
3.6 0.04 0
3.68 0.04 0
3.76 0.04 0
3.84 0.04 0
3.92 0.04 0
4 0.04 0
4.08 0.04 0
4.16 0.04 0
4.24 0.04 0
4.32 0.04 0
4.4 0.04 0
4.48 0.04 0
4.56 0.04 0
4.64 0.04 0
4.72 0.04 0
4.8 0.04 0
4.88 0.04 0
4.96 0.04 0
5.04 0.04 0
5.12 0.04 0
5.2 0.04 0
5.28 0.04 0
5.36 0.04 0
5.44 0.04 0
5.52 0.04 0
5.6 0.04 0
5.68 0.04 0
5.76 0.04 0
5.84 0.04 0
5.92 0.04 0
6 0.04 0
6.08 0.04 0
6.16 0.04 0
6.24 0.04 0
6.32 0.04 0
6.4 0.04 0
6.48 0.04 0
6.56 0.04 0
6.64 0.04 0
6.72 0.04 0
6.8 0.04 0
6.88 0.04 0
6.96 0.04 0
7.04 0.04 0
7.12 0.04 0
7.2 0.04 0
7.28 0.04 0
7.36 0.04 0
7.44 0.04 0
7.52 0.04 0
7.6 0.04 0
7.68 0.04 0
7.76 0.04 0
7.84 0.04 0
[...]
POINT_DATA 20000

SCALARS v float 1
LOOKUP_TABLE default
0
0
0
0
0
0
0
0
0
0
0
0
0
0
0
0
0
0
0
0
0
0
0
0
0
0
0
0
0
0
0
0
0
0
0
0
0
0
0
0
0
0
0
0
0
0
0
0
0
0
0
0
0
0
0
0
0
0
0
0
0
0
0
0
0
0
0
0
0
0
0
0
0
0
0
0
0
0
0
0
0
0
0
0
0
0
0
0
0
0
0
0
0
0
0
0
0
0
0
0
0
0
0
0
0
0
0
0
0
0
0
0
0
0
0
0
0
0
0
0
0
0
0
0
0
0
0
0
0
0
0
0
0
0
0
0
0
0
0
0
0
0
0
0
0
0
0
0
0
0
0
0
0
0
0
0
0
0
0
0
0
0
0
0
0
0
0
0
0
0
0
0
0
0
0
0
0
0
0
0
0
0
0
0
0
0
0
0
0
0
0
0
0
0
0
0
0
0
0
0
0
0
0
0
0
0
0
0
0
0
0
0
0
0
0
0
0
0
0
0
0
0
0
0
0
0
0
0
0
0
0
0
0
0
0
0
0
0
0
0
0
0
0
0
0
0
0
0
0
0
0
0
0
0
0
0
0
0
0
0
0
0
0
0
0
0
0
0
0
0
0
0
0
0
0
0
0
0
0
0
0
0
0
0
0
0
0
0
0
0
0
0
0
0
0
0
0
0
0
0
0
0
0
0
0
0
0
0
0
0
0
0
0
0
0
0
0
0
0
0
0
0
0
0
0
0
0
0
0
0
0
0
0
0
0
0
0
0
0
0
0
0
0
0
0
0
0
0
0
0
0
0
0
0
0
0
0
0
0
0
0
0
0
0
0
0
0
0
0
0
0
0
0
0
0
0
0
0
0
0
0
0
0
0
0
0
0
0
0
0
0
0
0
0
0
0
0
0
0
0
-0.12322
0.12322
0.0537837
0.0194305
0.00877444
0.00508089
0.00337884
0.00242832
0.00183845
0.0014472
0.00117491
0.000978083
0.000831196
0.00071848
0.000629821
0.000558534
0.000500091
0.000451356
0.000410113
0.000374764
0.000344135
0.000317347
0.00029373
0.000272764
0.00025404
0.000237229
0.000222065
0.000208328
0.000195837
0.000184439
0.000174005
0.000164426
0.000155608
0.000147469
0.000139941
0.00013296
0.000126474
0.000120432
0.000114794
0.000109522
0.000104585
9.99533e-05
9.56036e-05
9.1513e-05
8.7661e-05
8.40283e-05
8.05968e-05
7.73502e-05
7.42741e-05
7.13562e-05
6.85858e-05
6.59539e-05
6.3452e-05
6.10718e-05
5.88046e-05
5.66418e-05
5.45748e-05
5.25961e-05
5.06995e-05
4.88808e-05
4.71372e-05
4.54665e-05
4.38659e-05
4.23318e-05
4.08594e-05
3.94436e-05
3.80794e-05
3.67632e-05
3.54925e-05
3.42663e-05
3.30843e-05
3.19471e-05
3.08542e-05
2.98034e-05
2.879e-05
2.78081e-05
2.68517e-05
2.59182e-05
2.50082e-05
2.41255e-05
2.32739e-05
2.24549e-05
2.16667e-05
2.09056e-05
2.01674e-05
1.9449e-05
1.87481e-05
1.80634e-05
1.73945e-05
1.67428e-05
1.6112e-05
1.55067e-05
1.49291e-05
1.43759e-05
1.38386e-05
1.33062e-05
1.2772e-05
1.2237e-05
1.17101e-05
1.12027e-05
1.07221e-05
1.0268e-05
9.83339e-06
9.40891e-06
8.98785e-06
8.568e-06
8.15056e-06
7.73808e-06
7.33357e-06
6.94094e-06
6.56526e-06
6.2109e-06
5.87791e-06
5.55927e-06
5.24205e-06
4.91325e-06
4.56739e-06
4.21092e-06
3.86006e-06
3.53246e-06
3.23761e-06
2.97174e-06
2.72001e-06
2.46461e-06
2.19348e-06
1.90479e-06
1.6056e-06
1.30679e-06
1.01815e-06
7.4592e-07
4.92554e-07
2.56677e-07
3.19854e-08
-1.93675e-07
-4.36378e-07
-7.09853e-07
-1.01697e-06
-1.34421e-06
-1.66441e-06
-1.9486e-06
-2.18191e-06
-2.37444e-06
-2.55943e-06
-2.77781e-06
-3.0566e-06
-3.39292e-06
-3.75329e-06
-4.08978e-06
-4.36474e-06
-4.57091e-06
-4.73577e-06
-4.90752e-06
-5.13021e-06
-5.42124e-06
-5.76295e-06
-6.11222e-06
-6.42258e-06
-6.6668e-06
-6.84877e-06
-6.99928e-06
-7.1591e-06
-7.35862e-06
-7.60419e-06
-7.87734e-06
-8.14568e-06
-8.37932e-06
-8.56426e-06
-8.70698e-06
-8.82913e-06
-8.95598e-06
-9.10477e-06
-9.2783e-06
-9.46568e-06
-9.64905e-06
-9.8123e-06
-9.94763e-06
-1.00575e-05
-1.01518e-05
-1.02426e-05
-1.03384e-05
-1.04412e-05
-1.05471e-05
-1.06484e-05
-1.07379e-05
-1.08118e-05
-1.08707e-05
-1.09192e-05
-1.09631e-05
-1.10077e-05
-1.10553e-05
-1.11056e-05
-1.11556e-05
-1.12016e-05
-1.12401e-05
-1.12697e-05
-1.12905e-05
-1.13044e-05
-1.13141e-05
-1.13221e-05
-1.13303e-05
-1.13395e-05
-1.13494e-05
-1.13594e-05
-1.13685e-05
-1.13757e-05
-1.13808e-05
-1.13839e-05
-1.13852e-05
-1.13854e-05
-1.13852e-05
-1.13851e-05
-1.13853e-05
-1.13859e-05
-1.1387e-05
-1.13882e-05
-1.13894e-05
-1.13906e-05
-1.13915e-05
-1.13922e-05
-1.13926e-05
-1.1393e-05
-1.13932e-05
-1.13934e-05
-1.13937e-05
-1.1394e-05
-1.13943e-05
-1.13946e-05
-1.1395e-05
-1.13953e-05
-1.13956e-05
-1.13959e-05
-1.13961e-05
-1.13963e-05
-1.13964e-05
-1.13965e-05
-1.13966e-05
-1.13967e-05
-1.13967e-05
-1.13967e-05
-1.13967e-05
-1.13966e-05
-1.13965e-05
-1.13965e-05
-1.13963e-05
-1.13962e-05
-1.1396e-05
-1.13958e-05
-1.13956e-05
-1.13954e-05
-1.13951e-05
-1.13948e-05
-1.13945e-05
-1.13941e-05
-1.13937e-05
-1.13933e-05
-1.13929e-05
-1.13924e-05
-1.1392e-05
-1.13915e-05
-1.13909e-05
-1.13904e-05
-1.13898e-05
-1.13892e-05
-1.13886e-05
-1.13879e-05
-1.13872e-05
-1.13865e-05
-1.13858e-05
-1.13851e-05
-1.13843e-05
-1.13835e-05
-1.13827e-05
-1.13818e-05
-1.1381e-05
-1.13801e-05
-1.13792e-05
-1.13782e-05
-1.13773e-05
-1.13763e-05
-1.13753e-05
-1.13743e-05
-1.13732e-05
-1.13722e-05
-1.13711e-05
-1.137e-05
-1.13688e-05
-1.13677e-05
-1.13665e-05
-1.13653e-05
-1.13641e-05
-1.13629e-05
-1.13616e-05
-1.13604e-05
-1.13591e-05
-1.13578e-05
-1.13564e-05
-1.13551e-05
-1.13537e-05
-1.13523e-05
-1.13509e-05
-1.13495e-05
-1.13481e-05
-1.13466e-05
-1.13451e-05
-1.13436e-05
-1.13421e-05
-1.13406e-05
-1.13391e-05
-1.13375e-05
-1.1336e-05
-1.13344e-05
-1.13328e-05
-1.13311e-05
-1.13295e-05
-1.13279e-05
-1.13262e-05
-1.13245e-05
-1.13229e-05
-1.13212e-05
-1.13195e-05
-1.13177e-05
-1.1316e-05
-1.13142e-05
-1.13125e-05
-1.13107e-05
-1.1309e-05
-1.13071e-05
-1.13054e-05
-1.13035e-05
-1.13017e-05
-1.12999e-05
-1.12981e-05
-1.12961e-05
-1.12944e-05
-1.12924e-05
-1.12906e-05
-1.12886e-05
-1.12869e-05
-1.12848e-05
-1.12831e-05
-1.1281e-05
-1.12793e-05
-1.12771e-05
-1.12754e-05
-1.12732e-05
-1.12716e-05
-1.12693e-05
-1.12678e-05
-1.12653e-05
-1.1264e-05
-1.12613e-05
-1.12602e-05
-1.12573e-05
-1.12564e-05
-1.12532e-05
-1.12527e-05
-1.12491e-05
-1.1249e-05
-1.12449e-05
-1.12454e-05
-1.12407e-05
-1.1242e-05
-1.12363e-05
-1.12388e-05
-1.12319e-05
-1.12358e-05
-1.12274e-05
-1.12331e-05
-1.12227e-05
-1.12309e-05
-1.12178e-05
-1.12294e-05
-1.12126e-05
-1.12286e-05
-1.1207e-05
-1.12288e-05
-1.12011e-05
-1.12303e-05
-1.11947e-05
-1.12335e-05
-1.11877e-05
-1.12388e-05
-1.118e-05
-1.12469e-05
-1.11713e-05
-1.12584e-05
-1.1161e-05
-1.1274e-05
-1.11483e-05
-1.12926e-05
-1.11333e-05
-1.1306e-05
-1.11208e-05
-1.12802e-05
-1.11312e-05
-1.1078e-05
-1.12074e-05
-9.70784e-06
-1.02088e-05
-1.02088e-05
-0.142146
0.142146
0.100996
0.0539035
0.0302465
0.0189081
0.0129171
0.00940239
0.00716932
0.00566629
0.0046097
0.00384061
0.00326402
0.00282043
0.00247117
0.00219043
0.00196054
0.00176917
0.00160756
0.00146936
0.00134987
0.00124559
0.00115383
0.00107252
0.001
0.000934988
0.000876411
0.000823402
0.000775242
0.000731331
0.00069116
0.000654302
0.000620389
0.000589105
0.000560174
0.000533358
0.000508446
0.000485251
0.000463612
0.000443387
0.000424452
0.000406697
0.000390027
0.000374352
0.000359593
0.000345674
0.000332527
0.000320091
0.000308311
0.00029714
0.000286536
0.000276464
0.00026689
0.000257779
0.000249099
0.000240817
0.000232903
0.000225331
0.000218079
0.000211129
0.000204471
0.000198093
0.000191981
0.000186121
0.000180493
0.000175081
0.000169867
0.00016484
0.000159991
0.000155316
0.000150812
0.000146478
0.000142307
0.000138291
0.000134412
0.000130652
0.000126995
0.000123435
0.000119975
0.000116626
0.000113396
0.000110285
0.000107286
0.000104384
0.000101568
9.88271e-05
9.61568e-05
9.35535e-05
9.10171e-05
8.85528e-05
8.61708e-05
8.38808e-05
8.16836e-05
7.95645e-05
7.74961e-05
7.54503e-05
7.34138e-05
7.13966e-05
6.94264e-05
6.75331e-05
6.57309e-05
6.4012e-05
6.23524e-05
6.07257e-05
5.91154e-05
5.75183e-05
5.59399e-05
5.43891e-05
5.28752e-05
5.14098e-05
5.0005e-05
4.86683e-05
4.73927e-05
4.61526e-05
4.49111e-05
4.36375e-05
4.23267e-05
4.10062e-05
3.97243e-05
3.85248e-05
3.74226e-05
3.63956e-05
3.53963e-05
3.43763e-05
3.33091e-05
3.2198e-05
3.10683e-05
2.99521e-05
2.88748e-05
2.78496e-05
2.68776e-05
2.59478e-05
2.50358e-05
2.41037e-05
2.31092e-05
2.20246e-05
2.08577e-05
1.96601e-05
1.85109e-05
1.74799e-05
1.65864e-05
1.57797e-05
1.49569e-05
1.40124e-05
1.28959e-05
1.16444e-05
1.03692e-05
9.20064e-06
8.22067e-06
7.4182e-06
6.69361e-06
5.90975e-06
4.96287e-06
3.83554e-06
2.60453e-06
1.40075e-06
3.43573e-07
-5.15953e-07
-1.21496e-06
-1.85426e-06
-2.54477e-06
-3.35351e-06
-4.27531e-06
-5.24163e-06
-6.15838e-06
-6.95195e-06
-7.60066e-06
-8.13881e-06
-8.6347e-06
-9.15609e-06
-9.74035e-06
-1.03822e-05
-1.10421e-05
-1.16681e-05
-1.222e-05
-1.26846e-05
-1.3077e-05
-1.34292e-05
-1.37739e-05
-1.41307e-05
-1.44998e-05
-1.48657e-05
-1.5206e-05
-1.55029e-05
-1.57494e-05
-1.59519e-05
-1.61252e-05
-1.62868e-05
-1.64494e-05
-1.66177e-05
-1.67875e-05
-1.69494e-05
-1.70926e-05
-1.72093e-05
-1.72966e-05
-1.73577e-05
-1.73993e-05
-1.74296e-05
-1.74559e-05
-1.74828e-05
-1.75119e-05
-1.75419e-05
-1.75704e-05
-1.75946e-05
-1.76126e-05
-1.76236e-05
-1.76284e-05
-1.76286e-05
-1.76262e-05
-1.7623e-05
-1.76203e-05
-1.76189e-05
-1.76188e-05
-1.76196e-05
-1.7621e-05
-1.76223e-05
-1.76232e-05
-1.76234e-05
-1.76229e-05
-1.76219e-05
-1.76206e-05
-1.76192e-05
-1.76178e-05
-1.76165e-05
-1.76154e-05
-1.76145e-05
-1.76136e-05
-1.76128e-05
-1.7612e-05
-1.76112e-05
-1.76102e-05
-1.76092e-05
-1.76081e-05
-1.7607e-05
-1.76058e-05
-1.76045e-05
-1.76032e-05
-1.7602e-05
-1.76007e-05
-1.75994e-05
-1.7598e-05
-1.75967e-05
-1.75953e-05
-1.7594e-05
-1.75925e-05
-1.75911e-05
-1.75896e-05
-1.75881e-05
-1.75866e-05
-1.7585e-05
-1.75835e-05
-1.75819e-05
-1.75802e-05
-1.75786e-05
-1.75769e-05
-1.75752e-05
-1.75735e-05
-1.75718e-05
-1.757e-05
-1.75682e-05
-1.75664e-05
-1.75646e-05
-1.75627e-05
-1.75609e-05
-1.7559e-05
-1.75571e-05
-1.75551e-05
-1.75532e-05
-1.75512e-05
-1.75492e-05
-1.75472e-05
-1.75451e-05
-1.75431e-05
-1.7541e-05
-1.75389e-05
-1.75368e-05
-1.75346e-05
-1.75325e-05
-1.75303e-05
-1.75281e-05
-1.75259e-05
-1.75237e-05
-1.75215e-05
-1.75192e-05
-1.75169e-05
-1.75146e-05
-1.75123e-05
-1.751e-05
-1.75077e-05
-1.75054e-05
-1.7503e-05
-1.75006e-05
-1.74982e-05
-1.74958e-05
-1.74934e-05
-1.7491e-05
-1.74885e-05
-1.74861e-05
-1.74836e-05
-1.74812e-05
-1.74787e-05
-1.74762e-05
-1.74737e-05
-1.74712e-05
-1.74686e-05
-1.74661e-05
-1.74635e-05
-1.7461e-05
-1.74584e-05
-1.74559e-05
-1.74533e-05
-1.74507e-05
-1.74481e-05
-1.74455e-05
-1.74429e-05
-1.74403e-05
-1.74377e-05
-1.74351e-05
-1.74324e-05
-1.74298e-05
-1.74272e-05
-1.74246e-05
-1.74219e-05
-1.74193e-05
-1.74166e-05
-1.7414e-05
-1.74113e-05
-1.74087e-05
-1.7406e-05
-1.74034e-05
-1.74006e-05
-1.73981e-05
-1.73953e-05
-1.73929e-05
-1.739e-05
-1.73876e-05
-1.73846e-05
-1.73824e-05
-1.73793e-05
-1.73771e-05
-1.73739e-05
-1.7372e-05
-1.73686e-05
-1.73668e-05
-1.73632e-05
-1.73618e-05
-1.73578e-05
-1.73568e-05
-1.73524e-05
-1.73519e-05
-1.7347e-05
-1.73472e-05
-1.73416e-05
-1.73426e-05
-1.73361e-05
-1.73382e-05
-1.73305e-05
-1.73342e-05
-1.73248e-05
-1.73305e-05
-1.7319e-05
-1.73273e-05
-1.7313e-05
-1.73248e-05
-1.73068e-05
-1.73232e-05
-1.73002e-05
-1.73227e-05
-1.72932e-05
-1.73238e-05
-1.72855e-05
-1.73269e-05
-1.7277e-05
-1.73326e-05
-1.72676e-05
-1.73418e-05
-1.7257e-05
-1.73553e-05
-1.72451e-05
-1.73745e-05
-1.72316e-05
-1.74007e-05
-1.72161e-05
-1.74362e-05
-1.71977e-05
-1.74834e-05
-1.71744e-05
-1.75446e-05
-1.71436e-05
-1.76166e-05
-1.71045e-05
-1.76743e-05
-1.70693e-05
-1.76124e-05
-1.70889e-05
-1.7015e-05
-1.72365e-05
-1.32342e-05
-1.4663e-05
-1.4663e-05
-0.12222
0.12222
0.121654
0.0822581
0.0539845
0.0368532
0.026382
0.0197049
0.0152539
0.0121683
0.00995637
0.00832443
0.00708929
0.00613273
0.00537622
0.0047664
0.00426623
0.00384959
0.00349769
0.00319683
0.00293685
0.00271008
0.00251067
0.00233406
0.00217665
0.00203559
0.00190855
0.00179362
0.00168924
0.00159409
0.00150706
0.00142722
0.00135377
0.00128602
0.00122337
0.0011653
0.00111136
0.00106113
0.00101428
0.000970496
0.000929508
0.00089108
0.000854999
0.000821074
0.000789129
0.000759002
0.000730546
0.000703629
0.000678134
0.000653958
0.000631012
0.000609215
0.000588492
0.000568769
0.000549976
0.000532045
0.000514912
0.000498522
0.00048283
0.0004678
0.000453403
0.000439611
0.000426393
0.000413715
0.000401539
0.000389828
0.000378548
0.000367676
0.000357194
0.00034709
0.000337357
0.000327986
0.000318965
0.000310269
0.000301865
0.00029372
0.000285806
0.000278113
0.000270648
0.000263429
0.000256464
0.000249751
0.000243271
0.000236998
0.000230908
0.000224984
0.000219217
0.000213601
0.000208137
0.000202833
0.000197706
0.000192768
0.000188016
0.000183419
0.000178927
0.000174494
0.000170101
0.000165774
0.000161561
0.000157512
0.000153645
0.000149939
0.000146347
0.000142823
0.000139342
0.000135899
0.000132508
0.000129185
0.000125947
0.000122812
0.000119799
0.000116915
0.000114142
0.000111431
0.000108716
0.000105953
0.000103142
0.000100338
9.76278e-05
9.50792e-05
9.27063e-05
9.0459e-05
8.82491e-05
8.59947e-05
8.36572e-05
8.12507e-05
7.88248e-05
7.6436e-05
7.41249e-05
7.1909e-05
6.97833e-05
6.77218e-05
6.56764e-05
6.35795e-05
6.13627e-05
5.899e-05
5.649e-05
5.39633e-05
5.15476e-05
4.93507e-05
4.73841e-05
4.55398e-05
4.36319e-05
4.14892e-05
3.905e-05
3.64063e-05
3.37658e-05
3.13485e-05
2.92718e-05
2.74863e-05
2.57992e-05
2.39736e-05
2.18513e-05
1.94338e-05
1.68804e-05
1.44265e-05
1.22665e-05
1.0463e-05
8.92585e-06
7.46727e-06
5.89979e-06
4.1264e-06
2.17923e-06
1.93162e-07
-1.66654e-06
-3.28353e-06
-4.63834e-06
-5.80647e-06
-6.91339e-06
-8.07259e-06
-9.33709e-06
-1.06844e-05
-1.20367e-05
-1.33028e-05
-1.44185e-05
-1.53703e-05
-1.61925e-05
-1.69449e-05
-1.76835e-05
-1.84373e-05
-1.92012e-05
-1.99442e-05
-2.06271e-05
-2.12212e-05
-2.17193e-05
-2.21363e-05
-2.2501e-05
-2.28437e-05
-2.3185e-05
-2.353e-05
-2.38693e-05
-2.41852e-05
-2.44591e-05
-2.46793e-05
-2.48435e-05
-2.49595e-05
-2.50408e-05
-2.51029e-05
-2.51582e-05
-2.52142e-05
-2.52727e-05
-2.53312e-05
-2.53847e-05
-2.54286e-05
-2.54599e-05
-2.54783e-05
-2.54854e-05
-2.54846e-05
-2.54796e-05
-2.54737e-05
-2.54692e-05
-2.54672e-05
-2.54675e-05
-2.54694e-05
-2.5472e-05
-2.54744e-05
-2.54757e-05
-2.54758e-05
-2.54747e-05
-2.54728e-05
-2.54703e-05
-2.54677e-05
-2.54652e-05
-2.54631e-05
-2.54613e-05
-2.54598e-05
-2.54585e-05
-2.54572e-05
-2.5456e-05
-2.54546e-05
-2.54532e-05
-2.54516e-05
-2.54498e-05
-2.5448e-05
-2.54462e-05
-2.54442e-05
-2.54423e-05
-2.54404e-05
-2.54385e-05
-2.54365e-05
-2.54346e-05
-2.54326e-05
-2.54306e-05
-2.54286e-05
-2.54266e-05
-2.54246e-05
-2.54225e-05
-2.54204e-05
-2.54182e-05
-2.5416e-05
-2.54139e-05
-2.54116e-05
-2.54094e-05
-2.54071e-05
-2.54049e-05
-2.54026e-05
-2.54002e-05
-2.53979e-05
-2.53955e-05
-2.53931e-05
-2.53907e-05
-2.53883e-05
-2.53859e-05
-2.53834e-05
-2.53809e-05
-2.53784e-05
-2.53759e-05
-2.53733e-05
-2.53708e-05
-2.53682e-05
-2.53656e-05
-2.5363e-05
-2.53604e-05
-2.53577e-05
-2.53551e-05
-2.53524e-05
-2.53497e-05
-2.5347e-05
-2.53443e-05
-2.53416e-05
-2.53388e-05
-2.53361e-05
-2.53333e-05
-2.53305e-05
-2.53277e-05
-2.53249e-05
-2.53221e-05
-2.53192e-05
-2.53164e-05
-2.53135e-05
-2.53107e-05
-2.53078e-05
-2.53049e-05
-2.5302e-05
-2.52991e-05
-2.52962e-05
-2.52933e-05
-2.52904e-05
-2.52874e-05
-2.52845e-05
-2.52815e-05
-2.52786e-05
-2.52756e-05
-2.52727e-05
-2.52697e-05
-2.52667e-05
-2.52637e-05
-2.52608e-05
-2.52578e-05
-2.52548e-05
-2.52518e-05
-2.52488e-05
-2.52458e-05
-2.52428e-05
-2.52398e-05
-2.52368e-05
-2.52337e-05
-2.52308e-05
-2.52277e-05
-2.52248e-05
-2.52217e-05
-2.52188e-05
-2.52157e-05
-2.52128e-05
-2.52097e-05
-2.52068e-05
-2.52037e-05
-2.52009e-05
-2.51977e-05
-2.51949e-05
-2.51917e-05
-2.5189e-05
-2.51857e-05
-2.51832e-05
-2.51797e-05
-2.51774e-05
-2.51738e-05
-2.51716e-05
-2.51678e-05
-2.51659e-05
-2.51618e-05
-2.51602e-05
-2.51559e-05
-2.51547e-05
-2.51499e-05
-2.51493e-05
-2.51439e-05
-2.51441e-05
-2.51378e-05
-2.51391e-05
-2.51318e-05
-2.51343e-05
-2.51256e-05
-2.51299e-05
-2.51193e-05
-2.51259e-05
-2.51129e-05
-2.51225e-05
-2.51062e-05
-2.51198e-05
-2.50994e-05
-2.51181e-05
-2.50921e-05
-2.51176e-05
-2.50843e-05
-2.51189e-05
-2.50758e-05
-2.51226e-05
-2.50664e-05
-2.51292e-05
-2.50557e-05
-2.51399e-05
-2.50436e-05
-2.51559e-05
-2.50296e-05
-2.51786e-05
-2.50134e-05
-2.52099e-05
-2.49947e-05
-2.52524e-05
-2.49729e-05
-2.53093e-05
-2.49472e-05
-2.53848e-05
-2.49155e-05
-2.54846e-05
-2.48739e-05
-2.56133e-05
-2.48171e-05
-2.57659e-05
-2.47432e-05
-2.58951e-05
-2.46728e-05
-2.58081e-05
-2.46827e-05
-2.4779e-05
-2.48005e-05
-1.88076e-05
-2.02664e-05
-2.02664e-05
-0.0942731
0.0942731
0.121007
0.0969599
0.0717834
0.0531875
0.04019
0.0311002
0.0246462
0.0199735
0.0165202
0.0139159
0.0119128
0.0103429
0.00909025
0.00807389
0.00723631
0.00653618
0.00594338
0.00543565
0.00499634
0.0046128
0.00427529
0.0039762
0.00370953
0.00347044
0.00325504
0.00306012
0.00288302
0.00272154
0.0025738
0.00243822
0.00231346
0.00219834
0.00209185
0.00199312
0.00190138
0.00181595
0.00173624
0.00166174
0.00159198
0.00152657
0.00146515
0.00140739
0.00135299
0.00130167
0.0012532
0.00120734
0.0011639
0.0011227
0.0010836
0.00104644
0.00101111
0.000977476
0.000945421
0.000914832
0.000885604
0.000857648
0.000830885
0.000805256
0.000780708
0.00075719
0.000734647
0.00071302
0.000692246
0.000672263
0.00065302
0.000634474
0.000616597
0.000599366
0.000582765
0.000566777
0.000551375
0.000536521
0.000522163
0.000508249
0.000494739
0.000481619
0.0004689
0.000456603
0.000444738
0.000433295
0.000422241
0.000411536
0.000401145
0.000391041
0.00038121
0.000371643
0.000362341
0.000353314
0.000344585
0.000336168
0.000328052
0.000320188
0.000312504
0.000304933
0.000297457
0.000290113
0.000282976
0.000276113
0.000269543
0.000263229
0.000257098
0.000251083
0.000245148
0.000239293
0.000233537
0.000227905
0.000222419
0.000217104
0.000211984
0.000207064
0.000202312
0.000197655
0.000193002
0.000188289
0.000183528
0.000178805
0.000174244
0.000169936
0.00016589
0.000162023
0.000158201
0.000154309
0.000150298
0.000146196
0.00014208
0.00013803
0.000134102
0.000130313
0.000126649
0.000123067
0.000119495
0.000115837
0.000111999
0.00010794
0.000103714
9.94735e-05
9.5415e-05
9.1682e-05
8.82725e-05
8.50149e-05
8.16366e-05
7.79015e-05
7.37435e-05
6.93183e-05
6.49373e-05
6.09118e-05
5.73893e-05
5.42727e-05
5.12676e-05
4.80346e-05
4.43661e-05
4.02935e-05
3.60701e-05
3.2042e-05
2.84778e-05
2.54439e-05
2.2787e-05
2.02247e-05
1.74917e-05
1.44662e-05
1.1216e-05
7.95031e-06
4.90881e-06
2.24829e-06
-2.0449e-08
-2.02127e-06
-3.94136e-06
-5.9401e-06
-8.08235e-06
-1.03227e-05
-1.25404e-05
-1.46027e-05
-1.6423e-05
-1.79909e-05
-1.93641e-05
-2.06332e-05
-2.18779e-05
-2.31358e-05
-2.43943e-05
-2.5605e-05
-2.67114e-05
-2.76745e-05
-2.84883e-05
-2.91786e-05
-2.97895e-05
-3.03646e-05
-3.09318e-05
-3.14958e-05
-3.20407e-05
-3.25398e-05
-3.29674e-05
-3.33086e-05
-3.35632e-05
-3.37449e-05
-3.38756e-05
-3.39783e-05
-3.40712e-05
-3.41644e-05
-3.42596e-05
-3.43522e-05
-3.44351e-05
-3.45016e-05
-3.4548e-05
-3.45745e-05
-3.45844e-05
-3.45829e-05
-3.45759e-05
-3.45682e-05
-3.45629e-05
-3.45614e-05
-3.45633e-05
-3.45676e-05
-3.45726e-05
-3.45768e-05
-3.45795e-05
-3.45803e-05
-3.45792e-05
-3.45769e-05
-3.4574e-05
-3.45709e-05
-3.45682e-05
-3.4566e-05
-3.45643e-05
-3.45631e-05
-3.45622e-05
-3.45614e-05
-3.45605e-05
-3.45595e-05
-3.45583e-05
-3.45569e-05
-3.45553e-05
-3.45536e-05
-3.45518e-05
-3.455e-05
-3.45482e-05
-3.45464e-05
-3.45446e-05
-3.45428e-05
-3.4541e-05
-3.45392e-05
-3.45374e-05
-3.45356e-05
-3.45337e-05
-3.45318e-05
-3.45299e-05
-3.45279e-05
-3.45259e-05
-3.45238e-05
-3.45218e-05
-3.45197e-05
-3.45176e-05
-3.45155e-05
-3.45133e-05
-3.45111e-05
-3.45089e-05
-3.45067e-05
-3.45045e-05
-3.45022e-05
-3.45e-05
-3.44977e-05
-3.44953e-05
-3.4493e-05
-3.44906e-05
-3.44882e-05
-3.44859e-05
-3.44834e-05
-3.4481e-05
-3.44785e-05
-3.44761e-05
-3.44736e-05
-3.44711e-05
-3.44685e-05
-3.4466e-05
-3.44635e-05
-3.44609e-05
-3.44583e-05
-3.44557e-05
-3.44531e-05
-3.44505e-05
-3.44478e-05
-3.44452e-05
-3.44425e-05
-3.44398e-05
-3.44371e-05
-3.44344e-05
-3.44317e-05
-3.4429e-05
-3.44262e-05
-3.44235e-05
-3.44207e-05
-3.4418e-05
-3.44152e-05
-3.44124e-05
-3.44096e-05
-3.44068e-05
-3.4404e-05
-3.44012e-05
-3.43983e-05
-3.43955e-05
-3.43927e-05
-3.43898e-05
-3.4387e-05
-3.43841e-05
-3.43812e-05
-3.43784e-05
-3.43755e-05
-3.43726e-05
-3.43698e-05
-3.43668e-05
-3.4364e-05
-3.43611e-05
-3.43582e-05
-3.43553e-05
-3.43524e-05
-3.43495e-05
-3.43467e-05
-3.43437e-05
-3.43409e-05
-3.43379e-05
-3.43351e-05
-3.4332e-05
-3.43293e-05
-3.43262e-05
-3.43236e-05
-3.43204e-05
-3.43178e-05
-3.43146e-05
-3.43121e-05
-3.43087e-05
-3.43064e-05
-3.43029e-05
-3.43008e-05
-3.42971e-05
-3.42952e-05
-3.42912e-05
-3.42896e-05
-3.42854e-05
-3.42842e-05
-3.42795e-05
-3.42788e-05
-3.42736e-05
-3.42736e-05
-3.42676e-05
-3.42686e-05
-3.42615e-05