# vtk DataFile Version 2.0
FlowField
ASCII
DATASET STRUCTURED_GRID
DIMENSIONS 400 1 50
POINTS 20000 float
0 0 0
0.08 0 0
0.16 0 0
0.24 0 0
0.32 0 0
0.4 0 0
0.48 0 0
0.56 0 0
0.64 0 0
0.72 0 0
0.8 0 0
0.88 0 0
0.96 0 0
1.04 0 0
1.12 0 0
1.2 0 0
1.28 0 0
1.36 0 0
1.44 0 0
1.52 0 0
1.6 0 0
1.68 0 0
1.76 0 0
1.84 0 0
1.92 0 0
2 0 0
2.08 0 0
2.16 0 0
2.24 0 0
2.32 0 0
2.4 0 0
2.48 0 0
2.56 0 0
2.64 0 0
2.72 0 0
2.8 0 0
2.88 0 0
2.96 0 0
3.04 0 0
3.12 0 0
3.2 0 0
3.28 0 0
3.36 0 0
3.44 0 0
3.52 0 0
3.6 0 0
3.68 0 0
3.76 0 0
3.84 0 0
3.92 0 0
4 0 0
4.08 0 0
4.16 0 0
4.24 0 0
4.32 0 0
4.4 0 0
4.48 0 0
4.56 0 0
4.64 0 0
4.72 0 0
4.8 0 0
4.88 0 0
4.96 0 0
5.04 0 0
5.12 0 0
5.2 0 0
5.28 0 0
5.36 0 0
5.44 0 0
5.52 0 0
5.6 0 0
5.68 0 0
5.76 0 0
5.84 0 0
5.92 0 0
6 0 0
6.08 0 0
6.16 0 0
6.24 0 0
6.32 0 0
6.4 0 0
6.48 0 0
6.56 0 0
6.64 0 0
6.72 0 0
6.8 0 0
6.88 0 0
6.96 0 0
7.04 0 0
7.12 0 0
7.2 0 0
7.28 0 0
7.36 0 0
7.44 0 0
7.52 0 0
7.6 0 0
7.68 0 0
7.76 0 0
7.84 0 0
7.92 0 0
8 0 0
8.08 0 0
8.16 0 0
8.24 0 0
8.32 0 0
8.4 0 0
8.48 0 0
8.56 0 0
8.64 0 0
8.72 0 0
8.8 0 0
8.88 0 0
8.96 0 0
9.04 0 0
9.12 0 0
9.2 0 0
9.28 0 0
9.36 0 0
9.44 0 0
9.52 0 0
9.6 0 0
9.68 0 0
9.76 0 0
9.84 0 0
9.92 0 0
10 0 0
10.08 0 0
10.16 0 0
10.24 0 0
10.32 0 0
10.4 0 0
10.48 0 0
10.56 0 0
10.64 0 0
10.72 0 0
10.8 0 0
10.88 0 0
10.96 0 0
11.04 0 0
11.12 0 0
11.2 0 0
11.28 0 0
11.36 0 0
11.44 0 0
11.52 0 0
11.6 0 0
11.68 0 0
11.76 0 0
11.84 0 0
11.92 0 0
12 0 0
12.08 0 0
12.16 0 0
12.24 0 0
12.32 0 0
12.4 0 0
12.48 0 0
12.56 0 0
12.64 0 0
12.72 0 0
12.8 0 0
12.88 0 0
12.96 0 0
13.04 0 0
13.12 0 0
13.2 0 0
13.28 0 0
13.36 0 0
13.44 0 0
13.52 0 0
13.6 0 0
13.68 0 0
13.76 0 0
13.84 0 0
13.92 0 0
14 0 0
14.08 0 0
14.16 0 0
14.24 0 0
14.32 0 0
14.4 0 0
14.48 0 0
14.56 0 0
14.64 0 0
14.72 0 0
14.8 0 0
14.88 0 0
14.96 0 0
15.04 0 0
15.12 0 0
15.2 0 0
15.28 0 0
15.36 0 0
15.44 0 0
15.52 0 0
15.6 0 0
15.68 0 0
15.76 0 0
15.84 0 0
15.92 0 0
16 0 0
16.08 0 0
16.16 0 0
16.24 0 0
16.32 0 0
16.4 0 0
16.48 0 0
16.56 0 0
16.64 0 0
16.72 0 0
16.8 0 0
16.88 0 0
16.96 0 0
17.04 0 0
17.12 0 0
17.2 0 0
17.28 0 0
17.36 0 0
17.44 0 0
17.52 0 0
17.6 0 0
17.68 0 0
17.76 0 0
17.84 0 0
17.92 0 0
18 0 0
18.08 0 0
18.16 0 0
18.24 0 0
18.32 0 0
18.4 0 0
18.48 0 0
18.56 0 0
18.64 0 0
18.72 0 0
18.8 0 0
18.88 0 0
18.96 0 0
19.04 0 0
19.12 0 0
19.2 0 0
19.28 0 0
19.36 0 0
19.44 0 0
19.52 0 0
19.6 0 0
19.68 0 0
19.76 0 0
19.84 0 0
19.92 0 0
20 0 0
20.08 0 0
20.16 0 0
20.24 0 0
20.32 0 0
20.4 0 0
20.48 0 0
20.56 0 0
20.64 0 0
20.72 0 0
20.8 0 0
20.88 0 0
20.96 0 0
21.04 0 0
21.12 0 0
21.2 0 0
21.28 0 0
21.36 0 0
21.44 0 0
21.52 0 0
21.6 0 0
21.68 0 0
21.76 0 0
21.84 0 0
21.92 0 0
22 0 0
22.08 0 0
22.16 0 0
22.24 0 0
22.32 0 0
22.4 0 0
22.48 0 0
22.56 0 0
22.64 0 0
22.72 0 0
22.8 0 0
22.88 0 0
22.96 0 0
23.04 0 0
23.12 0 0
23.2 0 0
23.28 0 0
23.36 0 0
23.44 0 0
23.52 0 0
23.6 0 0
23.68 0 0
23.76 0 0
23.84 0 0
23.92 0 0
24 0 0
24.08 0 0
24.16 0 0
24.24 0 0
24.32 0 0
24.4 0 0
24.48 0 0
24.56 0 0
24.64 0 0
24.72 0 0
24.8 0 0
24.88 0 0
24.96 0 0
25.04 0 0
25.12 0 0
25.2 0 0
25.28 0 0
25.36 0 0
25.44 0 0
25.52 0 0
25.6 0 0
25.68 0 0
25.76 0 0
25.84 0 0
25.92 0 0
26 0 0
26.08 0 0
26.16 0 0
26.24 0 0
26.32 0 0
26.4 0 0
26.48 0 0
26.56 0 0
26.64 0 0
26.72 0 0
26.8 0 0
26.88 0 0
26.96 0 0
27.04 0 0
27.12 0 0
27.2 0 0
27.28 0 0
27.36 0 0
27.44 0 0
27.52 0 0
27.6 0 0
27.68 0 0
27.76 0 0
27.84 0 0
27.92 0 0
28 0 0
28.08 0 0
28.16 0 0
28.24 0 0
28.32 0 0
28.4 0 0
28.48 0 0
28.56 0 0
28.64 0 0
28.72 0 0
28.8 0 0
28.88 0 0
28.96 0 0
29.04 0 0
29.12 0 0
29.2 0 0
29.28 0 0
29.36 0 0
29.44 0 0
29.52 0 0
29.6 0 0
29.68 0 0
29.76 0 0
29.84 0 0
29.92 0 0
30 0 0
30.08 0 0
30.16 0 0
30.24 0 0
30.32 0 0
30.4 0 0
30.48 0 0
30.56 0 0
30.64 0 0
30.72 0 0
30.8 0 0
30.88 0 0
30.96 0 0
31.04 0 0
31.12 0 0
31.2 0 0
31.28 0 0
31.36 0 0
31.44 0 0
31.52 0 0
31.6 0 0
31.68 0 0
31.76 0 0
31.84 0 0
31.92 0 0
0 0.02 0
0.08 0.02 0
0.16 0.02 0
0.24 0.02 0
0.32 0.02 0
0.4 0.02 0
0.48 0.02 0
0.56 0.02 0
0.64 0.02 0
0.72 0.02 0
0.8 0.02 0
0.88 0.02 0
0.96 0.02 0
1.04 0.02 0
1.12 0.02 0
1.2 0.02 0
1.28 0.02 0
1.36 0.02 0
1.44 0.02 0
1.52 0.02 0
1.6 0.02 0
1.68 0.02 0
1.76 0.02 0
1.84 0.02 0
1.92 0.02 0
2 0.02 0
2.08 0.02 0
2.16 0.02 0
2.24 0.02 0
2.32 0.02 0
2.4 0.02 0
2.48 0.02 0
2.56 0.02 0
2.64 0.02 0
2.72 0.02 0
2.8 0.02 0
2.88 0.02 0
2.96 0.02 0
3.04 0.02 0
3.12 0.02 0
3.2 0.02 0
3.28 0.02 0
3.36 0.02 0
3.44 0.02 0
3.52 0.02 0
3.6 0.02 0
3.68 0.02 0
3.76 0.02 0
3.84 0.02 0
3.92 0.02 0
4 0.02 0
4.08 0.02 0
4.16 0.02 0
4.24 0.02 0
4.32 0.02 0
4.4 0.02 0
4.48 0.02 0
4.56 0.02 0
4.64 0.02 0
4.72 0.02 0
4.8 0.02 0
4.88 0.02 0
4.96 0.02 0
5.04 0.02 0
5.12 0.02 0
5.2 0.02 0
5.28 0.02 0
5.36 0.02 0
5.44 0.02 0
5.52 0.02 0
5.6 0.02 0
5.68 0.02 0
5.76 0.02 0
5.84 0.02 0
5.92 0.02 0
6 0.02 0
6.08 0.02 0
6.16 0.02 0
6.24 0.02 0
6.32 0.02 0
6.4 0.02 0
6.48 0.02 0
6.56 0.02 0
6.64 0.02 0
6.72 0.02 0
6.8 0.02 0
6.88 0.02 0
6.96 0.02 0
7.04 0.02 0
7.12 0.02 0
7.2 0.02 0
7.28 0.02 0
7.36 0.02 0
7.44 0.02 0
7.52 0.02 0
7.6 0.02 0
7.68 0.02 0
7.76 0.02 0
7.84 0.02 0
7.92 0.02 0
8 0.02 0
8.08 0.02 0
8.16 0.02 0
8.24 0.02 0
8.32 0.02 0
8.4 0.02 0
8.48 0.02 0
8.56 0.02 0
8.64 0.02 0
8.72 0.02 0
8.8 0.02 0
8.88 0.02 0
8.96 0.02 0
9.04 0.02 0
9.12 0.02 0
9.2 0.02 0
9.28 0.02 0
9.36 0.02 0
9.44 0.02 0
9.52 0.02 0
9.6 0.02 0
9.68 0.02 0
9.76 0.02 0
9.84 0.02 0
9.92 0.02 0
10 0.02 0
10.08 0.02 0
10.16 0.02 0
10.24 0.02 0
10.32 0.02 0
10.4 0.02 0
10.48 0.02 0
10.56 0.02 0
10.64 0.02 0
10.72 0.02 0
10.8 0.02 0
10.88 0.02 0
10.96 0.02 0
11.04 0.02 0
11.12 0.02 0
11.2 0.02 0
11.28 0.02 0
11.36 0.02 0
11.44 0.02 0
11.52 0.02 0
11.6 0.02 0
11.68 0.02 0
11.76 0.02 0
11.84 0.02 0
11.92 0.02 0
12 0.02 0
12.08 0.02 0
12.16 0.02 0
12.24 0.02 0
12.32 0.02 0
12.4 0.02 0
12.48 0.02 0
12.56 0.02 0
12.64 0.02 0
12.72 0.02 0
12.8 0.02 0
12.88 0.02 0
12.96 0.02 0
13.04 0.02 0
13.12 0.02 0
13.2 0.02 0
13.28 0.02 0
13.36 0.02 0
13.44 0.02 0
13.52 0.02 0
13.6 0.02 0
13.68 0.02 0
13.76 0.02 0
13.84 0.02 0
13.92 0.02 0
14 0.02 0
14.08 0.02 0
14.16 0.02 0
14.24 0.02 0
14.32 0.02 0
14.4 0.02 0
14.48 0.02 0
14.56 0.02 0
14.64 0.02 0
14.72 0.02 0
14.8 0.02 0
14.88 0.02 0
14.96 0.02 0
15.04 0.02 0
15.12 0.02 0
15.2 0.02 0
15.28 0.02 0
15.36 0.02 0
15.44 0.02 0
15.52 0.02 0
15.6 0.02 0
15.68 0.02 0
15.76 0.02 0
15.84 0.02 0
15.92 0.02 0
16 0.02 0
16.08 0.02 0
16.16 0.02 0
16.24 0.02 0
16.32 0.02 0
16.4 0.02 0
16.48 0.02 0
16.56 0.02 0
16.64 0.02 0
16.72 0.02 0
16.8 0.02 0
16.88 0.02 0
16.96 0.02 0
17.04 0.02 0
17.12 0.02 0
17.2 0.02 0
17.28 0.02 0
17.36 0.02 0
17.44 0.02 0
17.52 0.02 0
17.6 0.02 0
17.68 0.02 0
17.76 0.02 0
17.84 0.02 0
17.92 0.02 0
18 0.02 0
18.08 0.02 0
18.16 0.02 0
18.24 0.02 0
18.32 0.02 0
18.4 0.02 0
18.48 0.02 0
18.56 0.02 0
18.64 0.02 0
18.72 0.02 0
18.8 0.02 0
18.88 0.02 0
18.96 0.02 0
19.04 0.02 0
19.12 0.02 0
19.2 0.02 0
19.28 0.02 0
19.36 0.02 0
19.44 0.02 0
19.52 0.02 0
19.6 0.02 0
19.68 0.02 0
19.76 0.02 0
19.84 0.02 0
19.92 0.02 0
20 0.02 0
20.08 0.02 0
20.16 0.02 0
20.24 0.02 0
20.32 0.02 0
20.4 0.02 0
20.48 0.02 0
20.56 0.02 0
20.64 0.02 0
20.72 0.02 0
20.8 0.02 0
20.88 0.02 0
20.96 0.02 0
21.04 0.02 0
21.12 0.02 0
21.2 0.02 0
21.28 0.02 0
21.36 0.02 0
21.44 0.02 0
21.52 0.02 0
21.6 0.02 0
21.68 0.02 0
21.76 0.02 0
21.84 0.02 0
21.92 0.02 0
22 0.02 0
22.08 0.02 0
22.16 0.02 0
22.24 0.02 0
22.32 0.02 0
22.4 0.02 0
22.48 0.02 0
22.56 0.02 0
22.64 0.02 0
22.72 0.02 0
22.8 0.02 0
22.88 0.02 0
22.96 0.02 0
23.04 0.02 0
23.12 0.02 0
23.2 0.02 0
23.28 0.02 0
23.36 0.02 0
23.44 0.02 0
23.52 0.02 0
23.6 0.02 0
23.68 0.02 0
23.76 0.02 0
23.84 0.02 0
23.92 0.02 0
24 0.02 0
24.08 0.02 0
24.16 0.02 0
24.24 0.02 0
24.32 0.02 0
24.4 0.02 0
24.48 0.02 0
24.56 0.02 0
24.64 0.02 0
24.72 0.02 0
24.8 0.02 0
24.88 0.02 0
24.96 0.02 0
25.04 0.02 0
25.12 0.02 0
25.2 0.02 0
25.28 0.02 0
25.36 0.02 0
25.44 0.02 0
25.52 0.02 0
25.6 0.02 0
25.68 0.02 0
25.76 0.02 0
25.84 0.02 0
25.92 0.02 0
26 0.02 0
26.08 0.02 0
26.16 0.02 0
26.24 0.02 0
26.32 0.02 0
26.4 0.02 0
26.48 0.02 0
26.56 0.02 0
26.64 0.02 0
26.72 0.02 0
26.8 0.02 0
26.88 0.02 0
26.96 0.02 0
27.04 0.02 0
27.12 0.02 0
27.2 0.02 0
27.28 0.02 0
27.36 0.02 0
27.44 0.02 0
27.52 0.02 0
27.6 0.02 0
27.68 0.02 0
27.76 0.02 0
27.84 0.02 0
27.92 0.02 0
28 0.02 0
28.08 0.02 0
28.16 0.02 0
28.24 0.02 0
28.32 0.02 0
28.4 0.02 0
28.48 0.02 0
28.56 0.02 0
28.64 0.02 0
28.72 0.02 0
28.8 0.02 0
28.88 0.02 0
28.96 0.02 0
29.04 0.02 0
29.12 0.02 0
29.2 0.02 0
29.28 0.02 0
29.36 0.02 0
29.44 0.02 0
29.52 0.02 0
29.6 0.02 0
29.68 0.02 0
29.76 0.02 0
29.84 0.02 0
29.92 0.02 0
30 0.02 0
30.08 0.02 0
30.16 0.02 0
30.24 0.02 0
30.32 0.02 0
30.4 0.02 0
30.48 0.02 0
30.56 0.02 0
30.64 0.02 0
30.72 0.02 0
30.8 0.02 0
30.88 0.02 0
30.96 0.02 0
31.04 0.02 0
31.12 0.02 0
31.2 0.02 0
31.28 0.02 0
31.36 0.02 0
31.44 0.02 0
31.52 0.02 0
31.6 0.02 0
31.68 0.02 0
31.76 0.02 0
31.84 0.02 0
31.92 0.02 0
0 0.04 0
0.08 0.04 0
0.16 0.04 0
0.24 0.04 0
0.32 0.04 0
0.4 0.04 0
0.48 0.04 0
0.56 0.04 0
0.64 0.04 0
0.72 0.04 0
0.8 0.04 0
0.88 0.04 0
0.96 0.04 0
1.04 0.04 0
1.12 0.04 0
1.2 0.04 0
1.28 0.04 0
1.36 0.04 0
1.44 0.04 0
1.52 0.04 0
1.6 0.04 0
1.68 0.04 0
1.76 0.04 0
1.84 0.04 0
1.92 0.04 0
2 0.04 0
2.08 0.04 0
2.16 0.04 0
2.24 0.04 0
2.32 0.04 0
2.4 0.04 0
2.48 0.04 0
2.56 0.04 0
2.64 0.04 0
2.72 0.04 0
2.8 0.04 0
2.88 0.04 0
2.96 0.04 0
3.04 0.04 0
3.12 0.04 0
3.2 0.04 0
3.28 0.04 0
3.36 0.04 0
3.44 0.04 0
3.52 0.04 0
3.6 0.04 0
3.68 0.04 0
3.76 0.04 0
3.84 0.04 0
3.92 0.04 0
4 0.04 0
4.08 0.04 0
4.16 0.04 0
4.24 0.04 0
4.32 0.04 0
4.4 0.04 0
4.48 0.04 0
4.56 0.04 0
4.64 0.04 0
4.72 0.04 0
4.8 0.04 0
4.88 0.04 0
4.96 0.04 0
5.04 0.04 0
5.12 0.04 0
5.2 0.04 0
5.28 0.04 0
5.36 0.04 0
5.44 0.04 0
5.52 0.04 0
5.6 0.04 0
5.68 0.04 0
5.76 0.04 0
5.84 0.04 0
5.92 0.04 0
6 0.04 0
6.08 0.04 0
6.16 0.04 0
6.24 0.04 0
6.32 0.04 0
6.4 0.04 0
6.48 0.04 0
6.56 0.04 0
6.64 0.04 0
6.72 0.04 0
6.8 0.04 0
6.88 0.04 0
6.96 0.04 0
7.04 0.04 0
7.12 0.04 0
7.2 0.04 0
7.28 0.04 0
7.36 0.04 0
7.44 0.04 0
7.52 0.04 0
7.6 0.04 0
7.68 0.04 0
7.76 0.04 0
7.84 0.04 0
[...]
POINT_DATA 20000

SCALARS p float 1
LOOKUP_TABLE default
1
205.238
205.006
204.939
204.913
204.897
204.885
204.874
204.863
204.854
204.844
204.835
204.826
204.817
204.809
204.801
204.792
204.784
204.777
204.769
204.762
204.754
204.747
204.74
204.733
204.726
204.719
204.713
204.706
204.7
204.694
204.687
204.681
204.675
204.669
204.663
204.657
204.651
204.645
204.64
204.634
204.628
204.623
204.617
204.612
204.607
204.601
204.596
204.591
204.585
204.58
204.575
204.57
204.565
204.56
204.555
204.55
204.545
204.54
204.535
204.53
204.525
204.521
204.516
204.511
204.506
204.502
204.497
204.492
204.488
204.483
204.479
204.474
204.47
204.465
204.461
204.456
204.452
204.447
204.443
204.439
204.434
204.43
204.425
204.421
204.417
204.413
204.408
204.404
204.4
204.396
204.391
204.387
204.383
204.379
204.375
204.37
204.366
204.362
204.358
204.354
204.35
204.346
204.342
204.338
204.334
204.33
204.326
204.322
204.318
204.314
204.31
204.306
204.302
204.298
204.294
204.29
204.286
204.282
204.278
204.274
204.27
204.266
204.262
204.258
204.255
204.251
204.247
204.243
204.239
204.235
204.232
204.228
204.224
204.22
204.216
204.213
204.209
204.205
204.201
204.197
204.194
204.19
204.186
204.183
204.179
204.175
204.171
204.168
204.164
204.16
204.157
204.153
204.149
204.146
204.142
204.138
204.134
204.131
204.127
204.123
204.12
204.116
204.113
204.109
204.105
204.102
204.098
204.094
204.091
204.087
204.083
204.08
204.076
204.072
204.069
204.065
204.061
204.058
204.054
204.051
204.047
204.043
204.04
204.036
204.032
204.029
204.025
204.021
204.018
204.014
204.01
204.007
204.003
203.999
203.996
203.992
203.988
203.985
203.981
203.977
203.974
203.97
203.966
203.963
203.959
203.955
203.952
203.948
203.944
203.941
203.937
203.933
203.93
203.926
203.922
203.919
203.915
203.911
203.908
203.904
203.9
203.896
203.893
203.889
203.885
203.882
203.878
203.874
203.871
203.867
203.863
203.86
203.856
203.852
203.848
203.845
203.841
203.837
203.834
203.83
203.826
203.822
203.819
203.815
203.811
203.808
203.804
203.8
203.797
203.793
203.789
203.785
203.782
203.778
203.774
203.77
203.767
203.763
203.759
203.756
203.752
203.748
203.744
203.741
203.737
203.733
203.729
203.726
203.722
203.718
203.715
203.711
203.707
203.703
203.7
203.696
203.692
203.688
203.685
203.681
203.677
203.673
203.67
203.666
203.662
203.658
203.655
203.651
203.647
203.643
203.64
203.636
203.632
203.628
203.625
203.621
203.617
203.613
203.61
203.606
203.602
203.598
203.595
203.591
203.587
203.583
203.579
203.576
203.572
203.568
203.564
203.561
203.557
203.553
203.549
203.545
203.542
203.538
203.534
203.53
203.527
203.523
203.519
203.515
203.511
203.508
203.504
203.5
203.496
203.492
203.489
203.485
203.481
203.477
203.474
203.47
203.466
203.462
203.458
203.455
203.451
203.447
203.443
203.439
203.436
203.432
203.428
203.424
203.42
203.417
203.413
203.409
203.405
203.401
203.397
203.394
203.39
203.386
203.382
203.378
203.375
203.371
203.367
203.363
203.359
203.355
203.352
203.348
203.344
203.34
203.336
203.333
203.329
203.325
203.321
203.317
203.313
203.31
203.306
203.302
203.298
203.294
203.29
203.287
203.283
203.279
203.275
203.271
203.267
203.264
203.26
203.256
203.252
203.248
203.244
203.24
203.237
203.233
0.5
205.238
205.238
205.006
204.939
204.913
204.897
204.885
204.874
204.863
204.854
204.844
204.835
204.826
204.817
204.809
204.801
204.792
204.784
204.777
204.769
204.762
204.754
204.747
204.74
204.733
204.726
204.719
204.713
204.706
204.7
204.694
204.687
204.681
204.675
204.669
204.663
204.657
204.651
204.645
204.64
204.634
204.628
204.623
204.617
204.612
204.607
204.601
204.596
204.591
204.585
204.58
204.575
204.57
204.565
204.56
204.555
204.55
204.545
204.54
204.535
204.53
204.525
204.521
204.516
204.511
204.506
204.502
204.497
204.492
204.488
204.483
204.479
204.474
204.47
204.465
204.461
204.456
204.452
204.447
204.443
204.439
204.434
204.43
204.425
204.421
204.417
204.413
204.408
204.404
204.4
204.396
204.391
204.387
204.383
204.379
204.375
204.37
204.366
204.362
204.358
204.354
204.35
204.346
204.342
204.338
204.334
204.33
204.326
204.322
204.318
204.314
204.31
204.306
204.302
204.298
204.294
204.29
204.286
204.282
204.278
204.274
204.27
204.266
204.262
204.258
204.255
204.251
204.247
204.243
204.239
204.235
204.232
204.228
204.224
204.22
204.216
204.213
204.209
204.205
204.201
204.197
204.194
204.19
204.186
204.183
204.179
204.175
204.171
204.168
204.164
204.16
204.157
204.153
204.149
204.146
204.142
204.138
204.134
204.131
204.127
204.123
204.12
204.116
204.113
204.109
204.105
204.102
204.098
204.094
204.091
204.087
204.083
204.08
204.076
204.072
204.069
204.065
204.061
204.058
204.054
204.051
204.047
204.043
204.04
204.036
204.032
204.029
204.025
204.021
204.018
204.014
204.01
204.007
204.003
203.999
203.996
203.992
203.988
203.985
203.981
203.977
203.974
203.97
203.966
203.963
203.959
203.955
203.952
203.948
203.944
203.941
203.937
203.933
203.93
203.926
203.922
203.919
203.915
203.911
203.908
203.904
203.9
203.896
203.893
203.889
203.885
203.882
203.878
203.874
203.871
203.867
203.863
203.86
203.856
203.852
203.848
203.845
203.841
203.837
203.834
203.83
203.826
203.822
203.819
203.815
203.811
203.808
203.804
203.8
203.797
203.793
203.789
203.785
203.782
203.778
203.774
203.77
203.767
203.763
203.759
203.756
203.752
203.748
203.744
203.741
203.737
203.733
203.729
203.726
203.722
203.718
203.715
203.711
203.707
203.703
203.7
203.696
203.692
203.688
203.685
203.681
203.677
203.673
203.67
203.666
203.662
203.658
203.655
203.651
203.647
203.643
203.64
203.636
203.632
203.628
203.625
203.621
203.617
203.613
203.61
203.606
203.602
203.598
203.595
203.591
203.587
203.583
203.579
203.576
203.572
203.568
203.564
203.561
203.557
203.553
203.549
203.545
203.542
203.538
203.534
203.53
203.527
203.523
203.519
203.515
203.511
203.508
203.504
203.5
203.496
203.492
203.489
203.485
203.481
203.477
203.474
203.47
203.466
203.462
203.458
203.455
203.451
203.447
203.443
203.439
203.436
203.432
203.428
203.424
203.42
203.417
203.413
203.409
203.405
203.401
203.397
203.394
203.39
203.386
203.382
203.378
203.375
203.371
203.367
203.363
203.359
203.355
203.352
203.348
203.344
203.34
203.336
203.333
203.329
203.325
203.321
203.317
203.313
203.31
203.306
203.302
203.298
203.294
203.29
203.287
203.283
203.279
203.275
203.271
203.267
203.264
203.26
203.256
203.252
203.248
203.244
203.24
203.237
203.233
203.233
205.188
205.188
205.011
204.944
204.916
204.899
204.886
204.875
204.864
204.854
204.845
204.835
204.826
204.818
204.809
204.801
204.793
204.785
204.777
204.769
204.762
204.754
204.747
204.74
204.733
204.726
204.72
204.713
204.706
204.7
204.694
204.687
204.681
204.675
204.669
204.663
204.657
204.651
204.645
204.64
204.634
204.628
204.623
204.617
204.612
204.607
204.601
204.596
204.591
204.585
204.58
204.575
204.57
204.565
204.56
204.555
204.55
204.545
204.54
204.535
204.53
204.525
204.521
204.516
204.511
204.506
204.502
204.497
204.492
204.488
204.483
204.479
204.474
204.47
204.465
204.461
204.456
204.452
204.447
204.443
204.439
204.434
204.43
204.425
204.421
204.417
204.413
204.408
204.404
204.4
204.396
204.391
204.387
204.383
204.379
204.375
204.37
204.366
204.362
204.358
204.354
204.35
204.346
204.342
204.338
204.334
204.33
204.326
204.322
204.318
204.314
204.31
204.306
204.302
204.298
204.294
204.29
204.286
204.282
204.278
204.274
204.27
204.266
204.262
204.258
204.255
204.251
204.247
204.243
204.239
204.235
204.232
204.228
204.224
204.22
204.216
204.213
204.209
204.205
204.201
204.197
204.194
204.19
204.186
204.183
204.179
204.175
204.171
204.168
204.164
204.16
204.157
204.153
204.149
204.146
204.142
204.138
204.134
204.131
204.127
204.123
204.12
204.116
204.113
204.109
204.105
204.102
204.098
204.094
204.091
204.087
204.083
204.08
204.076
204.072
204.069
204.065
204.061
204.058
204.054
204.051
204.047
204.043
204.04
204.036
204.032
204.029
204.025
204.021
204.018
204.014
204.01
204.007
204.003
203.999
203.996
203.992
203.988
203.985
203.981
203.977
203.974
203.97
203.966
203.963
203.959
203.955
203.952
203.948
203.944
203.941
203.937
203.933
203.93
203.926
203.922
203.919
203.915
203.911
203.908
203.904
203.9
203.896
203.893
203.889
203.885
203.882
203.878
203.874
203.871
203.867
203.863
203.86
203.856
203.852
203.848
203.845
203.841
203.837
203.834
203.83
203.826
203.822
203.819
203.815
203.811
203.808
203.804
203.8
203.797
203.793
203.789
203.785
203.782
203.778
203.774
203.77
203.767
203.763
203.759
203.756
203.752
203.748
203.744
203.741
203.737
203.733
203.729
203.726
203.722
203.718
203.715
203.711
203.707
203.703
203.7
203.696
203.692
203.688
203.685
203.681
203.677
203.673
203.67
203.666
203.662
203.658
203.655
203.651
203.647
203.643
203.64
203.636
203.632
203.628
203.625
203.621
203.617
203.613
203.61
203.606
203.602
203.598
203.595
203.591
203.587
203.583
203.579
203.576
203.572
203.568
203.564
203.561
203.557
203.553
203.549
203.545
203.542
203.538
203.534
203.53
203.527
203.523
203.519
203.515
203.511
203.508
203.504
203.5
203.496
203.492
203.489
203.485
203.481
203.477
203.474
203.47
203.466
203.462
203.458
203.455
203.451
203.447
203.443
203.439
203.436
203.432
203.428
203.424
203.42
203.417
203.413
203.409
203.405
203.401
203.397
203.394
203.39
203.386
203.382
203.378
203.375
203.371
203.367
203.363
203.359
203.355
203.352
203.348
203.344
203.34
203.336
203.333
203.329
203.325
203.321
203.317
203.313
203.31
203.306
203.302
203.298
203.294
203.29
203.287
203.283
203.279
203.275
203.271
203.267
203.264
203.26
203.256
203.252
203.248
203.244
203.24
203.237
203.233
203.233
205.147
205.147
205.014
204.949
204.919
204.901
204.887
204.875
204.865
204.855
204.845
204.836
204.827
204.818
204.809
204.801
204.793
204.785
204.777
204.769
204.762
204.754
204.747
204.74
204.733
204.726
204.72
204.713
204.706
204.7
204.694
204.687
204.681
204.675
204.669
204.663
204.657
204.651
204.646
204.64
204.634
204.629
204.623
204.617
204.612
204.607
204.601
204.596
204.591
204.585
204.58
204.575
204.57
204.565
204.56
204.555
204.55
204.545
204.54
204.535
204.53
204.525
204.521
204.516
204.511
204.506
204.502
204.497
204.492
204.488
204.483
204.479
204.474
204.47
204.465
204.461
204.456
204.452
204.447
204.443
204.439
204.434
204.43
204.425
204.421
204.417
204.413
204.408
204.404
204.4
204.396
204.391
204.387
204.383
204.379
204.375
204.37
204.366
204.362
204.358
204.354
204.35
204.346
204.342
204.338
204.334
204.33
204.326
204.322
204.318
204.314
204.31
204.306
204.302
204.298
204.294
204.29
204.286
204.282
204.278
204.274
204.27
204.266
204.262
204.258
204.255
204.251
204.247
204.243
204.239
204.235
204.232
204.228
204.224
204.22
204.216
204.213
204.209
204.205
204.201
204.197
204.194
204.19
204.186
204.183
204.179
204.175
204.171
204.168
204.164
204.16
204.157
204.153
204.149
204.146
204.142
204.138
204.134
204.131
204.127
204.123
204.12
204.116
204.113
204.109
204.105
204.102
204.098
204.094
204.091
204.087
204.083
204.08
204.076
204.072
204.069
204.065
204.061
204.058
204.054
204.051
204.047
204.043
204.04
204.036
204.032
204.029
204.025
204.021
204.018
204.014
204.01
204.007
204.003
203.999
203.996
203.992
203.988
203.985
203.981
203.977
203.974
203.97
203.966
203.963
203.959
203.955
203.952
203.948
203.944
203.941
203.937
203.933
203.93
203.926
203.922
203.919
203.915
203.911
203.908
203.904
203.9
203.896
203.893
203.889
203.885
203.882
203.878
203.874
203.871
203.867
203.863
203.86
203.856
203.852
203.848
203.845
203.841
203.837
203.834
203.83
203.826
203.822
203.819
203.815
203.811
203.808
203.804
203.8
203.797
203.793
203.789
203.785
203.782
203.778
203.774
203.77
203.767
203.763
203.759
203.756
203.752
203.748
203.744
203.741
203.737
203.733
203.729
203.726
203.722
203.718
203.715
203.711
203.707
203.703
203.7
203.696
203.692
203.688
203.685
203.681
203.677
203.673
203.67
203.666
203.662
203.658
203.655
203.651
203.647
203.643
203.64
203.636
203.632
203.628
203.625
203.621
203.617
203.613
203.61
203.606
203.602
203.598
203.595
203.591
203.587
203.583
203.579
203.576
203.572
203.568
203.564
203.561
203.557
203.553
203.549
203.545
203.542
203.538
203.534
203.53
203.527
203.523
203.519
203.515
203.511
203.508
203.504
203.5
203.496
203.492
203.489
203.485
203.481
203.477
203.474
203.47
203.466
203.462
203.458
203.455
203.451
203.447
203.443
203.439
203.436
203.432
203.428
203.424
203.42
203.417
203.413
203.409
203.405
203.401
203.397
203.394
203.39
203.386
203.382
203.378
203.375
203.371
203.367
203.363
203.359
203.355
203.352
203.348
203.344
203.34
203.336
203.333
203.329
203.325
203.321
203.317
203.313
203.31
203.306
203.302
203.298
203.294
203.29
203.287
203.283
203.279
203.275
203.271
203.267
203.264
203.26
203.256
203.252
203.248
203.244
203.24
203.237
203.233
203.233
205.116
205.116
205.014
204.953
204.922
204.903
204.889
204.876
204.865
204.855
204.845
204.836
204.827
204.818
204.809
204.801
204.793
204.785
204.777
204.769
204.762
204.755
204.747
204.74
204.733
204.726
204.72
204.713
204.706
204.7
204.694
204.687
204.681
204.675
204.669
204.663
204.657
204.651
204.646
204.64
204.634
204.629
204.623
204.617
204.612
204.607
204.601
204.596
204.591
204.585
204.58
204.575
204.57
204.565
204.56
204.555
204.55
204.545
204.54
204.535
204.53
204.525
204.521
204.516
204.511
204.506
204.502
204.497
204.492
204.488
204.483
204.479
204.474
204.47
204.465
204.461
204.456
204.452
204.447
204.443
204.439
204.434
204.43
204.425
204.421
204.417
204.413
204.408
204.404
204.4
204.396
204.391
204.387
204.383
204.379
204.375
204.37
204.366
204.362
204.358
204.354
204.35
204.346
204.342
204.338
204.334
204.33
204.326
204.322
204.318
204.314
204.31
204.306
204.302
204.298
204.294
204.29
204.286
204.282
204.278
204.274
204.27
204.266
204.262
204.258
204.255
204.251
204.247
204.243
204.239
204.235
204.232
204.228
204.224
204.22
204.216
204.213
204.209
204.205
204.201
204.197
204.194
204.19
204.186
204.183
204.179
204.175
204.171
204.168
204.164
204.16
204.157
204.153
204.149
204.146
204.142
204.138
204.134
204.131
204.127
204.123
204.12
204.116
204.113
204.109
204.105
204.102
204.098
204.094
204.091
204.087
204.083
204.08
204.076
204.072
204.069
204.065
204.061
204.058
204.054
204.051
204.047
204.043
204.04
204.036
204.032
204.029
204.025
204.021
204.018
204.014
204.01
204.007
204.003
203.999
203.996
203.992
203.988
203.985
203.981
203.977
203.974
203.97
203.966
203.963
203.959
203.955
203.952
203.948
203.944
203.941
203.937
203.933
203.93
203.926
203.922
203.919
203.915
203.911
203.908
203.904
203.9
203.896
203.893
203.889
203.885
203.882
203.878
203.874
203.871
203.867
203.863
203.86
203.856
203.852
203.848
203.845
203.841
203.837
203.834
203.83
203.826
203.822
203.819
203.815
203.811
203.808
203.804
203.8
203.797
203.793
203.789
203.785
203.782
203.778
203.774
203.77
203.767
203.763
203.759
203.756
203.752
203.748
203.744
203.741
203.737
203.733
203.729
203.726
203.722
203.718
203.715
203.711
203.707
203.703
203.7
203.696
203.692
203.688
203.685
203.681
203.677
203.673
203.67
203.666
203.662
203.658
203.655
203.651
203.647
203.643
203.64
203.636
203.632
203.628
203.625
203.621
203.617
203.613
203.61
203.606
203.602
203.598
203.595
203.591
203.587
203.583
203.579
203.576
203.572
203.568
203.564
203.561
203.557
203.553
203.549
203.545
203.542
203.538
203.534
203.53
203.527
203.523
203.519
203.515
203.511
203.508
203.504
203.5
203.496
203.492
203.489
203.485
203.481
203.477
203.474
203.47
203.466
203.462
203.458
203.455
203.451
203.447
203.443
203.439
203.436
203.432
203.428
203.424
203.42
203.417
203.413
203.409
203.405
203.401
203.397
203.394
203.39
203.386
203.382
203.378
203.375
203.371
203.367
203.363
203.359
203.355
203.352
203.348
203.344
203.34
203.336
203.333
203.329
203.325
203.321
203.317
203.313
203.31
203.306
203.302
203.298
203.294
203.29
203.287
203.283
203.279
203.275
203.271
203.267
203.264
203.26
203.256
203.252
203.248
203.244
203.24
203.237
203.233
203.233
205.09
205.09
205.012
204.957
204.926
204.906
204.89
204.878
204.866
204.856
204.846
204.836
204.827
204.818
204.81
204.801
204.793
204.785
204.777
204.77
204.762
204.755
204.747
204.74
204.733
204.726
204.72
204.713
204.707
204.7
204.694
204.687
204.681
204.675
204.669
204.663
204.657
204.651
204.646
204.64
204.634
204.629
204.623
204.618
204.612
204.607
204.601
204.596
204.591
204.585
204.58
204.575
204.57
204.565
204.56
204.555
204.55
204.545
204.54
204.535
204.53
204.525
204.521
204.516
204.511
204.506
204.502
204.497
204.493
204.488
204.483
204.479
204.474
204.47
204.465
204.461
204.456
204.452
204.447
204.443
204.439
204.434
204.43
204.425
204.421
204.417
204.413
204.408
204.404
204.4
204.396
204.391
204.387
204.383
204.379
204.375
204.37
204.366
204.362
204.358
204.354
204.35
204.346
204.342
204.338
204.334
204.33
204.326
204.322
204.318
204.314
204.31
204.306
204.302
204.298
204.294
204.29
204.286
204.282
204.278
204.274
204.27
204.266
204.262
204.258
204.255
204.251
204.247
204.243
204.239
204.235
204.232
204.228
204.224
204.22
204.216
204.213
204.209
204.205
204.201
204.197
204.194
204.19
204.186
204.183
204.179
204.175
204.171
204.168
204.164
204.16
204.157
204.153
204.149
204.146
204.142
204.138
204.134
204.131
204.127
204.123
204.12
204.116
204.113
204.109
204.105
204.102
204.098
204.094
204.091
204.087
204.083
204.08
204.076
204.072
204.069
204.065
204.061
204.058
204.054
204.051
204.047
204.043
204.04
204.036
204.032
204.029
204.025
204.021
204.018
204.014
204.01
204.007
204.003
203.999
203.996
203.992
203.988
203.985
203.981
203.977
203.974
203.97
203.966
203.963
203.959
203.955
203.952
203.948
203.944
203.941
203.937
203.933
203.93
203.926
203.922
203.919
203.915
203.911
203.908
203.904
203.9
203.896
203.893
203.889
203.885
203.882
203.878
203.874
203.871
203.867
203.863
203.86
203.856
203.852
203.848
203.845
203.841
203.837
203.834
203.83
203.826
203.822
203.819
203.815
203.811
203.808
203.804
203.8
203.797
203.793
203.789
203.785
203.782
203.778
203.774
203.77
203.767
203.763
203.759
203.756
203.752
203.748
203.744
203.741
203.737
203.733
203.729
203.726
203.722
203.718
203.715
203.711
203.707
203.703
203.7
203.696
203.692
203.688
203.685
203.681
203.677
203.673
203.67
203.666
203.662
203.658
203.655
203.651
203.647
203.643
203.64
203.636
203.632
203.628
203.625
203.621
203.617
203.613
203.61
203.606
203.602
203.598
203.595
203.591
203.587
203.583
203.579
203.576
203.572
203.568
203.564
203.561
203.557
203.553
203.549
203.545
203.542
203.538
203.534
203.53
203.527
203.523
203.519
203.515
203.511
203.508
203.504
203.5
203.496
203.492
203.489
203.485
203.481
203.477
203.474
203.47
203.466
203.462
203.458
203.455
203.451
203.447
203.443
203.439
203.436
203.432
203.428
203.424
203.42
203.417
203.413
203.409
203.405
203.401
203.397
203.394
203.39
203.386
203.382
203.378
203.375
203.371
203.367
203.363
203.359
203.355
203.352
203.348
203.344
203.34
203.336
203.333
203.329
203.325
203.321
203.317
203.313
203.31
203.306
203.302
203.298
203.294
203.29
203.287
203.283
203.279
203.275
203.271
203.267
203.264
203.26
203.256
203.252
203.248
203.244
203.24
203.237
203.233
203.233
205.069
205.069
205.009
204.96
204.929
204.908
204.892
204.879
204.867
204.857
204.847
204.837
204.828
204.819
204.81
204.802
204.793
204.785
204.777
204.77
204.762
204.755
204.748
204.74
204.733
204.727
204.72
204.713
204.707
204.7
204.694
204.687
204.681
204.675
204.669
204.663
204.657
204.651
204.646
204.64
204.634
204.629
204.623
204.618
204.612
204.607
204.601
204.596
204.591
204.585
204.58
204.575
204.57
204.565
204.56
204.555
204.55
204.545
204.54
204.535
204.53
204.526
204.521
204.516
204.511
204.506
204.502
204.497
204.493
204.488
204.483
204.479
204.474
204.47
204.465
204.461
204.456
204.452
204.447
204.443
204.439
204.434
204.43
204.425
204.421
204.417
204.413
204.408
204.404
204.4
204.396
204.391
204.387
204.383
204.379
204.375
204.37
204.366
204.362
204.358
204.354
204.35
204.346
204.342
204.338
204.334
204.33
204.326
204.322
204.318
204.314
204.31
204.306
204.302
204.298
204.294
204.29
204.286
204.282
204.278
204.274
204.27
204.266
204.262
204.258
204.255
204.251
204.247
204.243
204.239
204.235
204.232
204.228
204.224
204.22
204.216
204.213