# vtk DataFile Version 2.0
FlowField
ASCII
DATASET STRUCTURED_GRID
DIMENSIONS 400 1 50
POINTS 20000 float
0 0 0
0.08 0 0
0.16 0 0
0.24 0 0
0.32 0 0
0.4 0 0
0.48 0 0
0.56 0 0
0.64 0 0
0.72 0 0
0.8 0 0
0.88 0 0
0.96 0 0
1.04 0 0
1.12 0 0
1.2 0 0
1.28 0 0
1.36 0 0
1.44 0 0
1.52 0 0
1.6 0 0
1.68 0 0
1.76 0 0
1.84 0 0
1.92 0 0
2 0 0
2.08 0 0
2.16 0 0
2.24 0 0
2.32 0 0
2.4 0 0
2.48 0 0
2.56 0 0
2.64 0 0
2.72 0 0
2.8 0 0
2.88 0 0
2.96 0 0
3.04 0 0
3.12 0 0
3.2 0 0
3.28 0 0
3.36 0 0
3.44 0 0
3.52 0 0
3.6 0 0
3.68 0 0
3.76 0 0
3.84 0 0
3.92 0 0
4 0 0
4.08 0 0
4.16 0 0
4.24 0 0
4.32 0 0
4.4 0 0
4.48 0 0
4.56 0 0
4.64 0 0
4.72 0 0
4.8 0 0
4.88 0 0
4.96 0 0
5.04 0 0
5.12 0 0
5.2 0 0
5.28 0 0
5.36 0 0
5.44 0 0
5.52 0 0
5.6 0 0
5.68 0 0
5.76 0 0
5.84 0 0
5.92 0 0
6 0 0
6.08 0 0
6.16 0 0
6.24 0 0
6.32 0 0
6.4 0 0
6.48 0 0
6.56 0 0
6.64 0 0
6.72 0 0
6.8 0 0
6.88 0 0
6.96 0 0
7.04 0 0
7.12 0 0
7.2 0 0
7.28 0 0
7.36 0 0
7.44 0 0
7.52 0 0
7.6 0 0
7.68 0 0
7.76 0 0
7.84 0 0
7.92 0 0
8 0 0
8.08 0 0
8.16 0 0
8.24 0 0
8.32 0 0
8.4 0 0
8.48 0 0
8.56 0 0
8.64 0 0
8.72 0 0
8.8 0 0
8.88 0 0
8.96 0 0
9.04 0 0
9.12 0 0
9.2 0 0
9.28 0 0
9.36 0 0
9.44 0 0
9.52 0 0
9.6 0 0
9.68 0 0
9.76 0 0
9.84 0 0
9.92 0 0
10 0 0
10.08 0 0
10.16 0 0
10.24 0 0
10.32 0 0
10.4 0 0
10.48 0 0
10.56 0 0
10.64 0 0
10.72 0 0
10.8 0 0
10.88 0 0
10.96 0 0
11.04 0 0
11.12 0 0
11.2 0 0
11.28 0 0
11.36 0 0
11.44 0 0
11.52 0 0
11.6 0 0
11.68 0 0
11.76 0 0
11.84 0 0
11.92 0 0
12 0 0
12.08 0 0
12.16 0 0
12.24 0 0
12.32 0 0
12.4 0 0
12.48 0 0
12.56 0 0
12.64 0 0
12.72 0 0
12.8 0 0
12.88 0 0
12.96 0 0
13.04 0 0
13.12 0 0
13.2 0 0
13.28 0 0
13.36 0 0
13.44 0 0
13.52 0 0
13.6 0 0
13.68 0 0
13.76 0 0
13.84 0 0
13.92 0 0
14 0 0
14.08 0 0
14.16 0 0
14.24 0 0
14.32 0 0
14.4 0 0
14.48 0 0
14.56 0 0
14.64 0 0
14.72 0 0
14.8 0 0
14.88 0 0
14.96 0 0
15.04 0 0
15.12 0 0
15.2 0 0
15.28 0 0
15.36 0 0
15.44 0 0
15.52 0 0
15.6 0 0
15.68 0 0
15.76 0 0
15.84 0 0
15.92 0 0
16 0 0
16.08 0 0
16.16 0 0
16.24 0 0
16.32 0 0
16.4 0 0
16.48 0 0
16.56 0 0
16.64 0 0
16.72 0 0
16.8 0 0
16.88 0 0
16.96 0 0
17.04 0 0
17.12 0 0
17.2 0 0
17.28 0 0
17.36 0 0
17.44 0 0
17.52 0 0
17.6 0 0
17.68 0 0
17.76 0 0
17.84 0 0
17.92 0 0
18 0 0
18.08 0 0
18.16 0 0
18.24 0 0
18.32 0 0
18.4 0 0
18.48 0 0
18.56 0 0
18.64 0 0
18.72 0 0
18.8 0 0
18.88 0 0
18.96 0 0
19.04 0 0
19.12 0 0
19.2 0 0
19.28 0 0
19.36 0 0
19.44 0 0
19.52 0 0
19.6 0 0
19.68 0 0
19.76 0 0
19.84 0 0
19.92 0 0
20 0 0
20.08 0 0
20.16 0 0
20.24 0 0
20.32 0 0
20.4 0 0
20.48 0 0
20.56 0 0
20.64 0 0
20.72 0 0
20.8 0 0
20.88 0 0
20.96 0 0
21.04 0 0
21.12 0 0
21.2 0 0
21.28 0 0
21.36 0 0
21.44 0 0
21.52 0 0
21.6 0 0
21.68 0 0
21.76 0 0
21.84 0 0
21.92 0 0
22 0 0
22.08 0 0
22.16 0 0
22.24 0 0
22.32 0 0
22.4 0 0
22.48 0 0
22.56 0 0
22.64 0 0
22.72 0 0
22.8 0 0
22.88 0 0
22.96 0 0
23.04 0 0
23.12 0 0
23.2 0 0
23.28 0 0
23.36 0 0
23.44 0 0
23.52 0 0
23.6 0 0
23.68 0 0
23.76 0 0
23.84 0 0
23.92 0 0
24 0 0
24.08 0 0
24.16 0 0
24.24 0 0
24.32 0 0
24.4 0 0
24.48 0 0
24.56 0 0
24.64 0 0
24.72 0 0
24.8 0 0
24.88 0 0
24.96 0 0
25.04 0 0
25.12 0 0
25.2 0 0
25.28 0 0
25.36 0 0
25.44 0 0
25.52 0 0
25.6 0 0
25.68 0 0
25.76 0 0
25.84 0 0
25.92 0 0
26 0 0
26.08 0 0
26.16 0 0
26.24 0 0
26.32 0 0
26.4 0 0
26.48 0 0
26.56 0 0
26.64 0 0
26.72 0 0
26.8 0 0
26.88 0 0
26.96 0 0
27.04 0 0
27.12 0 0
27.2 0 0
27.28 0 0
27.36 0 0
27.44 0 0
27.52 0 0
27.6 0 0
27.68 0 0
27.76 0 0
27.84 0 0
27.92 0 0
28 0 0
28.08 0 0
28.16 0 0
28.24 0 0
28.32 0 0
28.4 0 0
28.48 0 0
28.56 0 0
28.64 0 0
28.72 0 0
28.8 0 0
28.88 0 0
28.96 0 0
29.04 0 0
29.12 0 0
29.2 0 0
29.28 0 0
29.36 0 0
29.44 0 0
29.52 0 0
29.6 0 0
29.68 0 0
29.76 0 0
29.84 0 0
29.92 0 0
30 0 0
30.08 0 0
30.16 0 0
30.24 0 0
30.32 0 0
30.4 0 0
30.48 0 0
30.56 0 0
30.64 0 0
30.72 0 0
30.8 0 0
30.88 0 0
30.96 0 0
31.04 0 0
31.12 0 0
31.2 0 0
31.28 0 0
31.36 0 0
31.44 0 0
31.52 0 0
31.6 0 0
31.68 0 0
31.76 0 0
31.84 0 0
31.92 0 0
0 0.02 0
0.08 0.02 0
0.16 0.02 0
0.24 0.02 0
0.32 0.02 0
0.4 0.02 0
0.48 0.02 0
0.56 0.02 0
0.64 0.02 0
0.72 0.02 0
0.8 0.02 0
0.88 0.02 0
0.96 0.02 0
1.04 0.02 0
1.12 0.02 0
1.2 0.02 0
1.28 0.02 0
1.36 0.02 0
1.44 0.02 0
1.52 0.02 0
1.6 0.02 0
1.68 0.02 0
1.76 0.02 0
1.84 0.02 0
1.92 0.02 0
2 0.02 0
2.08 0.02 0
2.16 0.02 0
2.24 0.02 0
2.32 0.02 0
2.4 0.02 0
2.48 0.02 0
2.56 0.02 0
2.64 0.02 0
2.72 0.02 0
2.8 0.02 0
2.88 0.02 0
2.96 0.02 0
3.04 0.02 0
3.12 0.02 0
3.2 0.02 0
3.28 0.02 0
3.36 0.02 0
3.44 0.02 0
3.52 0.02 0
3.6 0.02 0
3.68 0.02 0
3.76 0.02 0
3.84 0.02 0
3.92 0.02 0
4 0.02 0
4.08 0.02 0
4.16 0.02 0
4.24 0.02 0
4.32 0.02 0
4.4 0.02 0
4.48 0.02 0
4.56 0.02 0
4.64 0.02 0
4.72 0.02 0
4.8 0.02 0
4.88 0.02 0
4.96 0.02 0
5.04 0.02 0
5.12 0.02 0
5.2 0.02 0
5.28 0.02 0
5.36 0.02 0
5.44 0.02 0
5.52 0.02 0
5.6 0.02 0
5.68 0.02 0
5.76 0.02 0
5.84 0.02 0
5.92 0.02 0
6 0.02 0
6.08 0.02 0
6.16 0.02 0
6.24 0.02 0
6.32 0.02 0
6.4 0.02 0
6.48 0.02 0
6.56 0.02 0
6.64 0.02 0
6.72 0.02 0
6.8 0.02 0
6.88 0.02 0
6.96 0.02 0
7.04 0.02 0
7.12 0.02 0
7.2 0.02 0
7.28 0.02 0
7.36 0.02 0
7.44 0.02 0
7.52 0.02 0
7.6 0.02 0
7.68 0.02 0
7.76 0.02 0
7.84 0.02 0
7.92 0.02 0
8 0.02 0
8.08 0.02 0
8.16 0.02 0
8.24 0.02 0
8.32 0.02 0
8.4 0.02 0
8.48 0.02 0
8.56 0.02 0
8.64 0.02 0
8.72 0.02 0
8.8 0.02 0
8.88 0.02 0
8.96 0.02 0
9.04 0.02 0
9.12 0.02 0
9.2 0.02 0
9.28 0.02 0
9.36 0.02 0
9.44 0.02 0
9.52 0.02 0
9.6 0.02 0
9.68 0.02 0
9.76 0.02 0
9.84 0.02 0
9.92 0.02 0
10 0.02 0
10.08 0.02 0
10.16 0.02 0
10.24 0.02 0
10.32 0.02 0
10.4 0.02 0
10.48 0.02 0
10.56 0.02 0
10.64 0.02 0
10.72 0.02 0
10.8 0.02 0
10.88 0.02 0
10.96 0.02 0
11.04 0.02 0
11.12 0.02 0
11.2 0.02 0
11.28 0.02 0
11.36 0.02 0
11.44 0.02 0
11.52 0.02 0
11.6 0.02 0
11.68 0.02 0
11.76 0.02 0
11.84 0.02 0
11.92 0.02 0
12 0.02 0
12.08 0.02 0
12.16 0.02 0
12.24 0.02 0
12.32 0.02 0
12.4 0.02 0
12.48 0.02 0
12.56 0.02 0
12.64 0.02 0
12.72 0.02 0
12.8 0.02 0
12.88 0.02 0
12.96 0.02 0
13.04 0.02 0
13.12 0.02 0
13.2 0.02 0
13.28 0.02 0
13.36 0.02 0
13.44 0.02 0
13.52 0.02 0
13.6 0.02 0
13.68 0.02 0
13.76 0.02 0
13.84 0.02 0
13.92 0.02 0
14 0.02 0
14.08 0.02 0
14.16 0.02 0
14.24 0.02 0
14.32 0.02 0
14.4 0.02 0
14.48 0.02 0
14.56 0.02 0
14.64 0.02 0
14.72 0.02 0
14.8 0.02 0
14.88 0.02 0
14.96 0.02 0
15.04 0.02 0
15.12 0.02 0
15.2 0.02 0
15.28 0.02 0
15.36 0.02 0
15.44 0.02 0
15.52 0.02 0
15.6 0.02 0
15.68 0.02 0
15.76 0.02 0
15.84 0.02 0
15.92 0.02 0
16 0.02 0
16.08 0.02 0
16.16 0.02 0
16.24 0.02 0
16.32 0.02 0
16.4 0.02 0
16.48 0.02 0
16.56 0.02 0
16.64 0.02 0
16.72 0.02 0
16.8 0.02 0
16.88 0.02 0
16.96 0.02 0
17.04 0.02 0
17.12 0.02 0
17.2 0.02 0
17.28 0.02 0
17.36 0.02 0
17.44 0.02 0
17.52 0.02 0
17.6 0.02 0
17.68 0.02 0
17.76 0.02 0
17.84 0.02 0
17.92 0.02 0
18 0.02 0
18.08 0.02 0
18.16 0.02 0
18.24 0.02 0
18.32 0.02 0
18.4 0.02 0
18.48 0.02 0
18.56 0.02 0
18.64 0.02 0
18.72 0.02 0
18.8 0.02 0
18.88 0.02 0
18.96 0.02 0
19.04 0.02 0
19.12 0.02 0
19.2 0.02 0
19.28 0.02 0
19.36 0.02 0
19.44 0.02 0
19.52 0.02 0
19.6 0.02 0
19.68 0.02 0
19.76 0.02 0
19.84 0.02 0
19.92 0.02 0
20 0.02 0
20.08 0.02 0
20.16 0.02 0
20.24 0.02 0
20.32 0.02 0
20.4 0.02 0
20.48 0.02 0
20.56 0.02 0
20.64 0.02 0
20.72 0.02 0
20.8 0.02 0
20.88 0.02 0
20.96 0.02 0
21.04 0.02 0
21.12 0.02 0
21.2 0.02 0
21.28 0.02 0
21.36 0.02 0
21.44 0.02 0
21.52 0.02 0
21.6 0.02 0
21.68 0.02 0
21.76 0.02 0
21.84 0.02 0
21.92 0.02 0
22 0.02 0
22.08 0.02 0
22.16 0.02 0
22.24 0.02 0
22.32 0.02 0
22.4 0.02 0
22.48 0.02 0
22.56 0.02 0
22.64 0.02 0
22.72 0.02 0
22.8 0.02 0
22.88 0.02 0
22.96 0.02 0
23.04 0.02 0
23.12 0.02 0
23.2 0.02 0
23.28 0.02 0
23.36 0.02 0
23.44 0.02 0
23.52 0.02 0
23.6 0.02 0
23.68 0.02 0
23.76 0.02 0
23.84 0.02 0
23.92 0.02 0
24 0.02 0
24.08 0.02 0
24.16 0.02 0
24.24 0.02 0
24.32 0.02 0
24.4 0.02 0
24.48 0.02 0
24.56 0.02 0
24.64 0.02 0
24.72 0.02 0
24.8 0.02 0
24.88 0.02 0
24.96 0.02 0
25.04 0.02 0
25.12 0.02 0
25.2 0.02 0
25.28 0.02 0
25.36 0.02 0
25.44 0.02 0
25.52 0.02 0
25.6 0.02 0
25.68 0.02 0
25.76 0.02 0
25.84 0.02 0
25.92 0.02 0
26 0.02 0
26.08 0.02 0
26.16 0.02 0
26.24 0.02 0
26.32 0.02 0
26.4 0.02 0
26.48 0.02 0
26.56 0.02 0
26.64 0.02 0
26.72 0.02 0
26.8 0.02 0
26.88 0.02 0
26.96 0.02 0
27.04 0.02 0
27.12 0.02 0
27.2 0.02 0
27.28 0.02 0
27.36 0.02 0
27.44 0.02 0
27.52 0.02 0
27.6 0.02 0
27.68 0.02 0
27.76 0.02 0
27.84 0.02 0
27.92 0.02 0
28 0.02 0
28.08 0.02 0
28.16 0.02 0
28.24 0.02 0
28.32 0.02 0
28.4 0.02 0
28.48 0.02 0
28.56 0.02 0
28.64 0.02 0
28.72 0.02 0
28.8 0.02 0
28.88 0.02 0
28.96 0.02 0
29.04 0.02 0
29.12 0.02 0
29.2 0.02 0
29.28 0.02 0
29.36 0.02 0
29.44 0.02 0
29.52 0.02 0
29.6 0.02 0
29.68 0.02 0
29.76 0.02 0
29.84 0.02 0
29.92 0.02 0
30 0.02 0
30.08 0.02 0
30.16 0.02 0
30.24 0.02 0
30.32 0.02 0
30.4 0.02 0
30.48 0.02 0
30.56 0.02 0
30.64 0.02 0
30.72 0.02 0
30.8 0.02 0
30.88 0.02 0
30.96 0.02 0
31.04 0.02 0
31.12 0.02 0
31.2 0.02 0
31.28 0.02 0
31.36 0.02 0
31.44 0.02 0
31.52 0.02 0
31.6 0.02 0
31.68 0.02 0
31.76 0.02 0
31.84 0.02 0
31.92 0.02 0
0 0.04 0
0.08 0.04 0
0.16 0.04 0
0.24 0.04 0
0.32 0.04 0
0.4 0.04 0
0.48 0.04 0
0.56 0.04 0
0.64 0.04 0
0.72 0.04 0
0.8 0.04 0
0.88 0.04 0
0.96 0.04 0
1.04 0.04 0
1.12 0.04 0
1.2 0.04 0
1.28 0.04 0
1.36 0.04 0
1.44 0.04 0
1.52 0.04 0
1.6 0.04 0
1.68 0.04 0
1.76 0.04 0
1.84 0.04 0
1.92 0.04 0
2 0.04 0
2.08 0.04 0
2.16 0.04 0
2.24 0.04 0
2.32 0.04 0
2.4 0.04 0
2.48 0.04 0
2.56 0.04 0
2.64 0.04 0
2.72 0.04 0
2.8 0.04 0
2.88 0.04 0
2.96 0.04 0
3.04 0.04 0
3.12 0.04 0
3.2 0.04 0
3.28 0.04 0
3.36 0.04 0
3.44 0.04 0
3.52 0.04 0
3.6 0.04 0
3.68 0.04 0
3.76 0.04 0
3.84 0.04 0
3.92 0.04 0
4 0.04 0
4.08 0.04 0
4.16 0.04 0
4.24 0.04 0
4.32 0.04 0
4.4 0.04 0
4.48 0.04 0
4.56 0.04 0
4.64 0.04 0
4.72 0.04 0
4.8 0.04 0
4.88 0.04 0
4.96 0.04 0
5.04 0.04 0
5.12 0.04 0
5.2 0.04 0
5.28 0.04 0
5.36 0.04 0
5.44 0.04 0
5.52 0.04 0
5.6 0.04 0
5.68 0.04 0
5.76 0.04 0
5.84 0.04 0
5.92 0.04 0
6 0.04 0
6.08 0.04 0
6.16 0.04 0
6.24 0.04 0
6.32 0.04 0
6.4 0.04 0
6.48 0.04 0
6.56 0.04 0
6.64 0.04 0
6.72 0.04 0
6.8 0.04 0
6.88 0.04 0
6.96 0.04 0
7.04 0.04 0
7.12 0.04 0
7.2 0.04 0
7.28 0.04 0
7.36 0.04 0
7.44 0.04 0
7.52 0.04 0
7.6 0.04 0
7.68 0.04 0
7.76 0.04 0
7.84 0.04 0
[...]
POINT_DATA 20000

SCALARS p float 1
LOOKUP_TABLE default
1
204.438
204.206
204.139
204.113
204.097
204.085
204.074
204.063
204.054
204.044
204.035
204.026
204.018
204.009
204.001
203.993
203.985
203.977
203.97
203.962
203.955
203.948
203.941
203.934
203.927
203.921
203.914
203.908
203.901
203.895
203.889
203.883
203.877
203.871
203.865
203.859
203.854
203.848
203.843
203.837
203.832
203.826
203.821
203.816
203.81
203.805
203.8
203.795
203.79
203.785
203.78
203.775
203.77
203.765
203.76
203.756
203.751
203.746
203.741
203.737
203.732
203.728
203.723
203.718
203.714
203.71
203.705
203.701
203.696
203.692
203.688
203.683
203.679
203.675
203.67
203.666
203.662
203.658
203.654
203.65
203.646
203.641
203.637
203.633
203.629
203.625
203.621
203.617
203.613
203.609
203.605
203.602
203.598
203.594
203.59
203.586
203.582
203.578
203.575
203.571
203.567
203.563
203.559
203.556
203.552
203.548
203.545
203.541
203.537
203.534
203.53
203.526
203.523
203.519
203.516
203.512
203.508
203.505
203.501
203.498
203.494
203.491
203.487
203.484
203.48
203.477
203.473
203.47
203.467
203.463
203.46
203.456
203.453
203.45
203.446
203.443
203.44
203.436
203.433
203.43
203.426
203.423
203.42
203.416
203.413
203.41
203.406
203.403
203.4
203.397
203.393
203.39
203.387
203.383
203.38
203.377
203.374
203.37
203.367
203.364
203.361
203.357
203.354
203.351
203.348
203.344
203.341
203.338
203.335
203.332
203.328
203.325
203.322
203.319
203.315
203.312
203.309
203.306
203.302
203.299
203.296
203.293
203.289
203.286
203.283
203.28
203.276
203.273
203.27
203.266
203.263
203.26
203.257
203.253
203.25
203.247
203.244
203.24
203.237
203.234
203.231
203.227
203.224
203.221
203.217
203.214
203.211
203.208
203.204
203.201
203.198
203.195
203.191
203.188
203.185
203.181
203.178
203.175
203.171
203.168
203.165
203.162
203.158
203.155
203.152
203.148
203.145
203.142
203.138
203.135
203.132
203.128
203.125
203.122
203.118
203.115
203.112
203.108
203.105
203.102
203.098
203.095
203.092
203.088
203.085
203.082
203.078
203.075
203.072
203.068
203.065
203.061
203.058
203.055
203.051
203.048
203.045
203.041
203.038
203.034
203.031
203.028
203.024
203.021
203.017
203.014
203.011
203.007
203.004
203
202.997
202.993
202.99
202.987
202.983
202.98
202.976
202.973
202.969
202.966
202.962
202.959
202.955
202.952
202.948
202.945
202.942
202.938
202.935
202.931
202.928
202.924
202.921
202.917
202.914
202.91
202.907
202.903
202.899
202.896
202.892
202.889
202.885
202.882
202.878
202.875
202.871
202.868
202.864
202.86
202.857
202.853
202.85
202.846
202.843
202.839
202.835
202.832
202.828
202.825
202.821
202.817
202.814
202.81
202.806
202.803
202.799
202.796
202.792
202.788
202.785
202.781
202.777
202.774
202.77
202.766
202.763
202.759
202.755
202.752
202.748
202.744
202.74
202.737
202.733
202.729
202.726
202.722
202.718
202.714
202.711
202.707
202.703
202.699
202.696
202.692
202.688
202.684
202.68
202.677
202.673
202.669
202.665
202.661
202.658
202.654
202.65
202.646
202.642
202.639
202.635
202.631
202.627
202.623
202.619
202.615
202.612
202.608
202.604
202.6
202.596
202.592
202.588
202.584
202.58
202.577
202.573
202.569
202.565
202.561
202.557
202.553
202.549
202.545
202.541
202.537
202.533
202.529
0.5
204.438
204.438
204.206
204.139
204.113
204.097
204.085
204.074
204.063
204.054
204.044
204.035
204.026
204.018
204.009
204.001
203.993
203.985
203.977
203.97
203.962
203.955
203.948
203.941
203.934
203.927
203.921
203.914
203.908
203.901
203.895
203.889
203.883
203.877
203.871
203.865
203.859
203.854
203.848
203.843
203.837
203.832
203.826
203.821
203.816
203.81
203.805
203.8
203.795
203.79
203.785
203.78
203.775
203.77
203.765
203.76
203.756
203.751
203.746
203.741
203.737
203.732
203.728
203.723
203.718
203.714
203.71
203.705
203.701
203.696
203.692
203.688
203.683
203.679
203.675
203.67
203.666
203.662
203.658
203.654
203.65
203.646
203.641
203.637
203.633
203.629
203.625
203.621
203.617
203.613
203.609
203.605
203.602
203.598
203.594
203.59
203.586
203.582
203.578
203.575
203.571
203.567
203.563
203.559
203.556
203.552
203.548
203.545
203.541
203.537
203.534
203.53
203.526
203.523
203.519
203.516
203.512
203.508
203.505
203.501
203.498
203.494
203.491
203.487
203.484
203.48
203.477
203.473
203.47
203.467
203.463
203.46
203.456
203.453
203.45
203.446
203.443
203.44
203.436
203.433
203.43
203.426
203.423
203.42
203.416
203.413
203.41
203.406
203.403
203.4
203.397
203.393
203.39
203.387
203.383
203.38
203.377
203.374
203.37
203.367
203.364
203.361
203.357
203.354
203.351
203.348
203.344
203.341
203.338
203.335
203.332
203.328
203.325
203.322
203.319
203.315
203.312
203.309
203.306
203.302
203.299
203.296
203.293
203.289
203.286
203.283
203.28
203.276
203.273
203.27
203.266
203.263
203.26
203.257
203.253
203.25
203.247
203.244
203.24
203.237
203.234
203.231
203.227
203.224
203.221
203.217
203.214
203.211
203.208
203.204
203.201
203.198
203.195
203.191
203.188
203.185
203.181
203.178
203.175
203.171
203.168
203.165
203.162
203.158
203.155
203.152
203.148
203.145
203.142
203.138
203.135
203.132
203.128
203.125
203.122
203.118
203.115
203.112
203.108
203.105
203.102
203.098
203.095
203.092
203.088
203.085
203.082
203.078
203.075
203.072
203.068
203.065
203.061
203.058
203.055
203.051
203.048
203.045
203.041
203.038
203.034
203.031
203.028
203.024
203.021
203.017
203.014
203.011
203.007
203.004
203
202.997
202.993
202.99
202.987
202.983
202.98
202.976
202.973
202.969
202.966
202.962
202.959
202.955
202.952
202.948
202.945
202.942
202.938
202.935
202.931
202.928
202.924
202.921
202.917
202.914
202.91
202.907
202.903
202.899
202.896
202.892
202.889
202.885
202.882
202.878
202.875
202.871
202.868
202.864
202.86
202.857
202.853
202.85
202.846
202.843
202.839
202.835
202.832
202.828
202.825
202.821
202.817
202.814
202.81
202.806
202.803
202.799
202.796
202.792
202.788
202.785
202.781
202.777
202.774
202.77
202.766
202.763
202.759
202.755
202.752
202.748
202.744
202.74
202.737
202.733
202.729
202.726
202.722
202.718
202.714
202.711
202.707
202.703
202.699
202.696
202.692
202.688
202.684
202.68
202.677
202.673
202.669
202.665
202.661
202.658
202.654
202.65
202.646
202.642
202.639
202.635
202.631
202.627
202.623
202.619
202.615
202.612
202.608
202.604
202.6
202.596
202.592
202.588
202.584
202.58
202.577
202.573
202.569
202.565
202.561
202.557
202.553
202.549
202.545
202.541
202.537
202.533
202.529
202.529
204.387
204.387
204.211
204.143
204.116
204.099
204.086
204.075
204.064
204.054
204.045
204.035
204.027
204.018
204.009
204.001
203.993
203.985
203.977
203.97
203.962
203.955
203.948
203.941
203.934
203.927
203.921
203.914
203.908
203.902
203.895
203.889
203.883
203.877
203.871
203.865
203.86
203.854
203.848
203.843
203.837
203.832
203.826
203.821
203.816
203.81
203.805
203.8
203.795
203.79
203.785
203.78
203.775
203.77
203.765
203.76
203.756
203.751
203.746
203.741
203.737
203.732
203.728
203.723
203.718
203.714
203.71
203.705
203.701
203.696
203.692
203.688
203.683
203.679
203.675
203.671
203.666
203.662
203.658
203.654
203.65
203.646
203.641
203.637
203.633
203.629
203.625
203.621
203.617
203.613
203.609
203.605
203.602
203.598
203.594
203.59
203.586
203.582
203.578
203.575
203.571
203.567
203.563
203.559
203.556
203.552
203.548
203.545
203.541
203.537
203.534
203.53
203.526
203.523
203.519
203.516
203.512
203.508
203.505
203.501
203.498
203.494
203.491
203.487
203.484
203.48
203.477
203.473
203.47
203.467
203.463
203.46
203.456
203.453
203.45
203.446
203.443
203.44
203.436
203.433
203.43
203.426
203.423
203.42
203.416
203.413
203.41
203.406
203.403
203.4
203.397
203.393
203.39
203.387
203.383
203.38
203.377
203.374
203.37
203.367
203.364
203.361
203.357
203.354
203.351
203.348
203.344
203.341
203.338
203.335
203.332
203.328
203.325
203.322
203.319
203.315
203.312
203.309
203.306
203.302
203.299
203.296
203.293
203.289
203.286
203.283
203.28
203.276
203.273
203.27
203.267
203.263
203.26
203.257
203.253
203.25
203.247
203.244
203.24
203.237
203.234
203.231
203.227
203.224
203.221
203.217
203.214
203.211
203.208
203.204
203.201
203.198
203.195
203.191
203.188
203.185
203.181
203.178
203.175
203.171
203.168
203.165
203.162
203.158
203.155
203.152
203.148
203.145
203.142
203.138
203.135
203.132
203.128
203.125
203.122
203.118
203.115
203.112
203.108
203.105
203.102
203.098
203.095
203.092
203.088
203.085
203.082
203.078
203.075
203.072
203.068
203.065
203.061
203.058
203.055
203.051
203.048
203.045
203.041
203.038
203.034
203.031
203.028
203.024
203.021
203.017
203.014
203.011
203.007
203.004
203
202.997
202.993
202.99
202.987
202.983
202.98
202.976
202.973
202.969
202.966
202.962
202.959
202.955
202.952
202.948
202.945
202.942
202.938
202.935
202.931
202.928
202.924
202.921
202.917
202.914
202.91
202.907
202.903
202.899
202.896
202.892
202.889
202.885
202.882
202.878
202.875
202.871
202.868
202.864
202.86
202.857
202.853
202.85
202.846
202.843
202.839
202.835
202.832
202.828
202.825
202.821
202.817
202.814
202.81
202.806
202.803
202.799
202.796
202.792
202.788
202.785
202.781
202.777
202.774
202.77
202.766
202.763
202.759
202.755
202.752
202.748
202.744
202.74
202.737
202.733
202.729
202.726
202.722
202.718
202.714
202.711
202.707
202.703
202.699
202.696
202.692
202.688
202.684
202.68
202.677
202.673
202.669
202.665
202.661
202.658
202.654
202.65
202.646
202.642
202.639
202.635
202.631
202.627
202.623
202.619
202.615
202.612
202.608
202.604
202.6
202.596
202.592
202.588
202.584
202.58
202.577
202.573
202.569
202.565
202.561
202.557
202.553
202.549
202.545
202.541
202.537
202.533
202.529
202.529
204.347
204.347
204.214
204.148
204.119
204.101
204.087
204.075
204.065
204.055
204.045
204.036
204.027
204.018
204.01
204.001
203.993
203.985
203.978
203.97
203.963
203.955
203.948
203.941
203.934
203.928
203.921
203.914
203.908
203.902
203.895
203.889
203.883
203.877
203.871
203.865
203.86
203.854
203.848
203.843
203.837
203.832
203.826
203.821
203.816
203.81
203.805
203.8
203.795
203.79
203.785
203.78
203.775
203.77
203.765
203.76
203.756
203.751
203.746
203.741
203.737
203.732
203.728
203.723
203.718
203.714
203.71
203.705
203.701
203.696
203.692
203.688
203.683
203.679
203.675
203.671
203.666
203.662
203.658
203.654
203.65
203.646
203.641
203.637
203.633
203.629
203.625
203.621
203.617
203.613
203.609
203.605
203.602
203.598
203.594
203.59
203.586
203.582
203.578
203.575
203.571
203.567
203.563
203.56
203.556
203.552
203.548
203.545
203.541
203.537
203.534
203.53
203.526
203.523
203.519
203.516
203.512
203.508
203.505
203.501
203.498
203.494
203.491
203.487
203.484
203.48
203.477
203.473
203.47
203.467
203.463
203.46
203.456
203.453
203.45
203.446
203.443
203.44
203.436
203.433
203.43
203.426
203.423
203.42
203.416
203.413
203.41
203.406
203.403
203.4
203.397
203.393
203.39
203.387
203.383
203.38
203.377
203.374
203.37
203.367
203.364
203.361
203.357
203.354
203.351
203.348
203.344
203.341
203.338
203.335
203.332
203.328
203.325
203.322
203.319
203.315
203.312
203.309
203.306
203.302
203.299
203.296
203.293
203.289
203.286
203.283
203.28
203.276
203.273
203.27
203.266
203.263
203.26
203.257
203.253
203.25
203.247
203.244
203.24
203.237
203.234
203.231
203.227
203.224
203.221
203.217
203.214
203.211
203.208
203.204
203.201
203.198
203.195
203.191
203.188
203.185
203.181
203.178
203.175
203.171
203.168
203.165
203.162
203.158
203.155
203.152
203.148
203.145
203.142
203.138
203.135
203.132
203.128
203.125
203.122
203.118
203.115
203.112
203.108
203.105
203.102
203.098
203.095
203.092
203.088
203.085
203.082
203.078
203.075
203.072
203.068
203.065
203.061
203.058
203.055
203.051
203.048
203.045
203.041
203.038
203.034
203.031
203.028
203.024
203.021
203.017
203.014
203.011
203.007
203.004
203
202.997
202.993
202.99
202.987
202.983
202.98
202.976
202.973
202.969
202.966
202.962
202.959
202.955
202.952
202.948
202.945
202.942
202.938
202.935
202.931
202.928
202.924
202.921
202.917
202.914
202.91
202.907
202.903
202.899
202.896
202.892
202.889
202.885
202.882
202.878
202.875
202.871
202.868
202.864
202.86
202.857
202.853
202.85
202.846
202.843
202.839
202.835
202.832
202.828
202.825
202.821
202.817
202.814
202.81
202.806
202.803
202.799
202.796
202.792
202.788
202.785
202.781
202.777
202.774
202.77
202.766
202.763
202.759
202.755
202.752
202.748
202.744
202.74
202.737
202.733
202.729
202.726
202.722
202.718
202.714
202.711
202.707
202.703
202.699
202.696
202.692
202.688
202.684
202.68
202.677
202.673
202.669
202.665
202.661
202.658
202.654
202.65
202.646
202.642
202.639
202.635
202.631
202.627
202.623
202.619
202.615
202.612
202.608
202.604
202.6
202.596
202.592
202.588
202.584
202.58
202.577
202.573
202.569
202.565
202.561
202.557
202.553
202.549
202.545
202.541
202.537
202.533
202.529
202.529
204.316
204.316
204.214
204.153
204.122
204.103
204.089
204.076
204.065
204.055
204.045
204.036
204.027
204.018
204.01
204.001
203.993
203.985
203.978
203.97
203.963
203.955
203.948
203.941
203.934
203.928
203.921
203.914
203.908
203.902
203.895
203.889
203.883
203.877
203.871
203.865
203.86
203.854
203.848
203.843
203.837
203.832
203.826
203.821
203.816
203.81
203.805
203.8
203.795
203.79
203.785
203.78
203.775
203.77
203.765
203.76
203.756
203.751
203.746
203.741
203.737
203.732
203.728
203.723
203.719
203.714
203.71
203.705
203.701
203.696
203.692
203.688
203.683
203.679
203.675
203.671
203.666
203.662
203.658
203.654
203.65
203.646
203.641
203.637
203.633
203.629
203.625
203.621
203.617
203.613
203.609
203.605
203.602
203.598
203.594
203.59
203.586
203.582
203.578
203.575
203.571
203.567
203.563
203.56
203.556
203.552
203.548
203.545
203.541
203.537
203.534
203.53
203.526
203.523
203.519
203.516
203.512
203.508
203.505
203.501
203.498
203.494
203.491
203.487
203.484
203.48
203.477
203.473
203.47
203.467
203.463
203.46
203.456
203.453
203.45
203.446
203.443
203.44
203.436
203.433
203.43
203.426
203.423
203.42
203.416
203.413
203.41
203.406
203.403
203.4
203.397
203.393
203.39
203.387
203.383
203.38
203.377
203.374
203.37
203.367
203.364
203.361
203.357
203.354
203.351
203.348
203.344
203.341
203.338
203.335
203.332
203.328
203.325
203.322
203.319
203.315
203.312
203.309
203.306
203.302
203.299
203.296
203.293
203.289
203.286
203.283
203.28
203.276
203.273
203.27
203.266
203.263
203.26
203.257
203.253
203.25
203.247
203.244
203.24
203.237
203.234
203.231
203.227
203.224
203.221
203.217
203.214
203.211
203.208
203.204
203.201
203.198
203.195
203.191
203.188
203.185
203.181
203.178
203.175
203.171
203.168
203.165
203.162
203.158
203.155
203.152
203.148
203.145
203.142
203.138
203.135
203.132
203.128
203.125
203.122
203.118
203.115
203.112
203.108
203.105
203.102
203.098
203.095
203.092
203.088
203.085
203.082
203.078
203.075
203.072
203.068
203.065
203.061
203.058
203.055
203.051
203.048
203.045
203.041
203.038
203.034
203.031
203.028
203.024
203.021
203.017
203.014
203.011
203.007
203.004
203
202.997
202.993
202.99
202.987
202.983
202.98
202.976
202.973
202.969
202.966
202.962
202.959
202.955
202.952
202.948
202.945
202.942
202.938
202.935
202.931
202.928
202.924
202.921
202.917
202.914
202.91
202.907
202.903
202.899
202.896
202.892
202.889
202.885
202.882
202.878
202.875
202.871
202.868
202.864
202.86
202.857
202.853
202.85
202.846
202.843
202.839
202.835
202.832
202.828
202.825
202.821
202.817
202.814
202.81
202.806
202.803
202.799
202.796
202.792
202.788
202.785
202.781
202.777
202.774
202.77
202.766
202.763
202.759
202.755
202.752
202.748
202.744
202.74
202.737
202.733
202.729
202.726
202.722
202.718
202.714
202.711
202.707
202.703
202.699
202.696
202.692
202.688
202.684
202.68
202.677
202.673
202.669
202.665
202.661
202.658
202.654
202.65
202.646
202.642
202.639
202.635
202.631
202.627
202.623
202.619
202.615
202.612
202.608
202.604
202.6
202.596
202.592
202.588
202.584
202.58
202.577
202.573
202.569
202.565
202.561
202.557
202.553
202.549
202.545
202.541
202.537
202.533
202.529
202.529
204.29
204.29
204.212
204.157
204.126
204.105
204.09
204.078
204.066
204.056
204.046
204.037
204.027
204.019
204.01
204.002
203.994
203.986
203.978
203.97
203.963
203.955
203.948
203.941
203.934
203.928
203.921
203.914
203.908
203.902
203.895
203.889
203.883
203.877
203.871
203.865
203.86
203.854
203.848
203.843
203.837
203.832
203.826
203.821
203.816
203.81
203.805
203.8
203.795
203.79
203.785
203.78
203.775
203.77
203.765
203.76
203.756
203.751
203.746
203.741
203.737
203.732
203.728
203.723
203.719
203.714
203.71
203.705
203.701
203.696
203.692
203.688
203.683
203.679
203.675
203.671
203.666
203.662
203.658
203.654
203.65
203.646
203.641
203.637
203.633
203.629
203.625
203.621
203.617
203.613
203.609
203.605
203.602
203.598
203.594
203.59
203.586
203.582
203.578
203.575
203.571
203.567
203.563
203.56
203.556
203.552
203.548
203.545
203.541
203.537
203.534
203.53
203.526
203.523
203.519
203.516
203.512
203.508
203.505
203.501
203.498
203.494
203.491
203.487
203.484
203.48
203.477
203.473
203.47
203.467
203.463
203.46
203.456
203.453
203.45
203.446
203.443
203.44
203.436
203.433
203.43
203.426
203.423
203.42
203.416
203.413
203.41
203.406
203.403
203.4
203.397
203.393
203.39
203.387
203.383
203.38
203.377
203.374
203.37
203.367
203.364
203.361
203.357
203.354
203.351
203.348
203.344
203.341
203.338
203.335
203.332
203.328
203.325
203.322
203.319
203.315
203.312
203.309
203.306
203.302
203.299
203.296
203.293
203.289
203.286
203.283
203.28
203.276
203.273
203.27
203.266
203.263
203.26
203.257
203.253
203.25
203.247
203.244
203.24
203.237
203.234
203.231
203.227
203.224
203.221
203.217
203.214
203.211
203.208
203.204
203.201
203.198
203.195
203.191
203.188
203.185
203.181
203.178
203.175
203.171
203.168
203.165
203.162
203.158
203.155
203.152
203.148
203.145
203.142
203.138
203.135
203.132
203.128
203.125
203.122
203.118
203.115
203.112
203.108
203.105
203.102
203.098
203.095
203.092
203.088
203.085
203.082
203.078
203.075
203.072
203.068
203.065
203.061
203.058
203.055
203.051
203.048
203.045
203.041
203.038
203.034
203.031
203.028
203.024
203.021
203.017
203.014
203.011
203.007
203.004
203
202.997
202.993
202.99
202.987
202.983
202.98
202.976
202.973
202.969
202.966
202.962
202.959
202.955
202.952
202.948
202.945
202.942
202.938
202.935
202.931
202.928
202.924
202.921
202.917
202.914
202.91
202.907
202.903
202.899
202.896
202.892
202.889
202.885
202.882
202.878
202.875
202.871
202.868
202.864
202.86
202.857
202.853
202.85
202.846
202.843
202.839
202.835
202.832
202.828
202.825
202.821
202.817
202.814
202.81
202.806
202.803
202.799
202.796
202.792
202.788
202.785
202.781
202.777
202.774
202.77
202.766
202.763
202.759
202.755
202.752
202.748
202.744
202.74
202.737
202.733
202.729
202.726
202.722
202.718
202.714
202.711
202.707
202.703
202.699
202.696
202.692
202.688
202.684
202.68
202.677
202.673
202.669
202.665
202.661
202.658
202.654
202.65
202.646
202.642
202.639
202.635
202.631
202.627
202.623
202.619
202.615
202.612
202.608
202.604
202.6
202.596
202.592
202.588
202.584
202.58
202.577
202.573
202.569
202.565
202.561
202.557
202.553
202.549
202.545
202.541
202.537
202.533
202.529
202.529
204.269
204.269
204.209
204.16
204.129
204.108
204.092
204.079
204.067
204.057
204.047
204.037
204.028
204.019
204.01
204.002
203.994
203.986
203.978
203.97
203.963
203.956
203.948
203.941
203.935
203.928
203.921
203.915
203.908
203.902
203.895
203.889
203.883
203.877
203.871
203.865
203.86
203.854
203.848
203.843
203.837
203.832
203.826
203.821
203.816
203.81
203.805
203.8
203.795
203.79
203.785
203.78
203.775
203.77
203.765
203.76
203.756
203.751
203.746
203.741
203.737
203.732
203.728
203.723
203.719
203.714
203.71
203.705
203.701
203.696
203.692
203.688
203.683
203.679
203.675
203.671
203.666
203.662
203.658
203.654
203.65
203.646
203.641
203.637
203.633
203.629
203.625
203.621
203.617
203.613
203.609
203.605
203.602
203.598
203.594
203.59
203.586
203.582
203.578
203.575
203.571
203.567
203.563
203.56
203.556
203.552
203.548
203.545
203.541
203.537
203.534
203.53
203.526
203.523
203.519
203.516
203.512
203.508
203.505
203.501
203.498
203.494
203.491
203.487
203.484
203.48
203.477
203.473
203.47
203.467
203.463
203.46
203.456