# vtk DataFile Version 2.0
FlowField
ASCII
DATASET STRUCTURED_GRID
DIMENSIONS 400 1 50
POINTS 20000 float
0 0 0
0.08 0 0
0.16 0 0
0.24 0 0
0.32 0 0
0.4 0 0
0.48 0 0
0.56 0 0
0.64 0 0
0.72 0 0
0.8 0 0
0.88 0 0
0.96 0 0
1.04 0 0
1.12 0 0
1.2 0 0
1.28 0 0
1.36 0 0
1.44 0 0
1.52 0 0
1.6 0 0
1.68 0 0
1.76 0 0
1.84 0 0
1.92 0 0
2 0 0
2.08 0 0
2.16 0 0
2.24 0 0
2.32 0 0
2.4 0 0
2.48 0 0
2.56 0 0
2.64 0 0
2.72 0 0
2.8 0 0
2.88 0 0
2.96 0 0
3.04 0 0
3.12 0 0
3.2 0 0
3.28 0 0
3.36 0 0
3.44 0 0
3.52 0 0
3.6 0 0
3.68 0 0
3.76 0 0
3.84 0 0
3.92 0 0
4 0 0
4.08 0 0
4.16 0 0
4.24 0 0
4.32 0 0
4.4 0 0
4.48 0 0
4.56 0 0
4.64 0 0
4.72 0 0
4.8 0 0
4.88 0 0
4.96 0 0
5.04 0 0
5.12 0 0
5.2 0 0
5.28 0 0
5.36 0 0
5.44 0 0
5.52 0 0
5.6 0 0
5.68 0 0
5.76 0 0
5.84 0 0
5.92 0 0
6 0 0
6.08 0 0
6.16 0 0
6.24 0 0
6.32 0 0
6.4 0 0
6.48 0 0
6.56 0 0
6.64 0 0
6.72 0 0
6.8 0 0
6.88 0 0
6.96 0 0
7.04 0 0
7.12 0 0
7.2 0 0
7.28 0 0
7.36 0 0
7.44 0 0
7.52 0 0
7.6 0 0
7.68 0 0
7.76 0 0
7.84 0 0
7.92 0 0
8 0 0
8.08 0 0
8.16 0 0
8.24 0 0
8.32 0 0
8.4 0 0
8.48 0 0
8.56 0 0
8.64 0 0
8.72 0 0
8.8 0 0
8.88 0 0
8.96 0 0
9.04 0 0
9.12 0 0
9.2 0 0
9.28 0 0
9.36 0 0
9.44 0 0
9.52 0 0
9.6 0 0
9.68 0 0
9.76 0 0
9.84 0 0
9.92 0 0
10 0 0
10.08 0 0
10.16 0 0
10.24 0 0
10.32 0 0
10.4 0 0
10.48 0 0
10.56 0 0
10.64 0 0
10.72 0 0
10.8 0 0
10.88 0 0
10.96 0 0
11.04 0 0
11.12 0 0
11.2 0 0
11.28 0 0
11.36 0 0
11.44 0 0
11.52 0 0
11.6 0 0
11.68 0 0
11.76 0 0
11.84 0 0
11.92 0 0
12 0 0
12.08 0 0
12.16 0 0
12.24 0 0
12.32 0 0
12.4 0 0
12.48 0 0
12.56 0 0
12.64 0 0
12.72 0 0
12.8 0 0
12.88 0 0
12.96 0 0
13.04 0 0
13.12 0 0
13.2 0 0
13.28 0 0
13.36 0 0
13.44 0 0
13.52 0 0
13.6 0 0
13.68 0 0
13.76 0 0
13.84 0 0
13.92 0 0
14 0 0
14.08 0 0
14.16 0 0
14.24 0 0
14.32 0 0
14.4 0 0
14.48 0 0
14.56 0 0
14.64 0 0
14.72 0 0
14.8 0 0
14.88 0 0
14.96 0 0
15.04 0 0
15.12 0 0
15.2 0 0
15.28 0 0
15.36 0 0
15.44 0 0
15.52 0 0
15.6 0 0
15.68 0 0
15.76 0 0
15.84 0 0
15.92 0 0
16 0 0
16.08 0 0
16.16 0 0
16.24 0 0
16.32 0 0
16.4 0 0
16.48 0 0
16.56 0 0
16.64 0 0
16.72 0 0
16.8 0 0
16.88 0 0
16.96 0 0
17.04 0 0
17.12 0 0
17.2 0 0
17.28 0 0
17.36 0 0
17.44 0 0
17.52 0 0
17.6 0 0
17.68 0 0
17.76 0 0
17.84 0 0
17.92 0 0
18 0 0
18.08 0 0
18.16 0 0
18.24 0 0
18.32 0 0
18.4 0 0
18.48 0 0
18.56 0 0
18.64 0 0
18.72 0 0
18.8 0 0
18.88 0 0
18.96 0 0
19.04 0 0
19.12 0 0
19.2 0 0
19.28 0 0
19.36 0 0
19.44 0 0
19.52 0 0
19.6 0 0
19.68 0 0
19.76 0 0
19.84 0 0
19.92 0 0
20 0 0
20.08 0 0
20.16 0 0
20.24 0 0
20.32 0 0
20.4 0 0
20.48 0 0
20.56 0 0
20.64 0 0
20.72 0 0
20.8 0 0
20.88 0 0
20.96 0 0
21.04 0 0
21.12 0 0
21.2 0 0
21.28 0 0
21.36 0 0
21.44 0 0
21.52 0 0
21.6 0 0
21.68 0 0
21.76 0 0
21.84 0 0
21.92 0 0
22 0 0
22.08 0 0
22.16 0 0
22.24 0 0
22.32 0 0
22.4 0 0
22.48 0 0
22.56 0 0
22.64 0 0
22.72 0 0
22.8 0 0
22.88 0 0
22.96 0 0
23.04 0 0
23.12 0 0
23.2 0 0
23.28 0 0
23.36 0 0
23.44 0 0
23.52 0 0
23.6 0 0
23.68 0 0
23.76 0 0
23.84 0 0
23.92 0 0
24 0 0
24.08 0 0
24.16 0 0
24.24 0 0
24.32 0 0
24.4 0 0
24.48 0 0
24.56 0 0
24.64 0 0
24.72 0 0
24.8 0 0
24.88 0 0
24.96 0 0
25.04 0 0
25.12 0 0
25.2 0 0
25.28 0 0
25.36 0 0
25.44 0 0
25.52 0 0
25.6 0 0
25.68 0 0
25.76 0 0
25.84 0 0
25.92 0 0
26 0 0
26.08 0 0
26.16 0 0
26.24 0 0
26.32 0 0
26.4 0 0
26.48 0 0
26.56 0 0
26.64 0 0
26.72 0 0
26.8 0 0
26.88 0 0
26.96 0 0
27.04 0 0
27.12 0 0
27.2 0 0
27.28 0 0
27.36 0 0
27.44 0 0
27.52 0 0
27.6 0 0
27.68 0 0
27.76 0 0
27.84 0 0
27.92 0 0
28 0 0
28.08 0 0
28.16 0 0
28.24 0 0
28.32 0 0
28.4 0 0
28.48 0 0
28.56 0 0
28.64 0 0
28.72 0 0
28.8 0 0
28.88 0 0
28.96 0 0
29.04 0 0
29.12 0 0
29.2 0 0
29.28 0 0
29.36 0 0
29.44 0 0
29.52 0 0
29.6 0 0
29.68 0 0
29.76 0 0
29.84 0 0
29.92 0 0
30 0 0
30.08 0 0
30.16 0 0
30.24 0 0
30.32 0 0
30.4 0 0
30.48 0 0
30.56 0 0
30.64 0 0
30.72 0 0
30.8 0 0
30.88 0 0
30.96 0 0
31.04 0 0
31.12 0 0
31.2 0 0
31.28 0 0
31.36 0 0
31.44 0 0
31.52 0 0
31.6 0 0
31.68 0 0
31.76 0 0
31.84 0 0
31.92 0 0
0 0.02 0
0.08 0.02 0
0.16 0.02 0
0.24 0.02 0
0.32 0.02 0
0.4 0.02 0
0.48 0.02 0
0.56 0.02 0
0.64 0.02 0
0.72 0.02 0
0.8 0.02 0
0.88 0.02 0
0.96 0.02 0
1.04 0.02 0
1.12 0.02 0
1.2 0.02 0
1.28 0.02 0
1.36 0.02 0
1.44 0.02 0
1.52 0.02 0
1.6 0.02 0
1.68 0.02 0
1.76 0.02 0
1.84 0.02 0
1.92 0.02 0
2 0.02 0
2.08 0.02 0
2.16 0.02 0
2.24 0.02 0
2.32 0.02 0
2.4 0.02 0
2.48 0.02 0
2.56 0.02 0
2.64 0.02 0
2.72 0.02 0
2.8 0.02 0
2.88 0.02 0
2.96 0.02 0
3.04 0.02 0
3.12 0.02 0
3.2 0.02 0
3.28 0.02 0
3.36 0.02 0
3.44 0.02 0
3.52 0.02 0
3.6 0.02 0
3.68 0.02 0
3.76 0.02 0
3.84 0.02 0
3.92 0.02 0
4 0.02 0
4.08 0.02 0
4.16 0.02 0
4.24 0.02 0
4.32 0.02 0
4.4 0.02 0
4.48 0.02 0
4.56 0.02 0
4.64 0.02 0
4.72 0.02 0
4.8 0.02 0
4.88 0.02 0
4.96 0.02 0
5.04 0.02 0
5.12 0.02 0
5.2 0.02 0
5.28 0.02 0
5.36 0.02 0
5.44 0.02 0
5.52 0.02 0
5.6 0.02 0
5.68 0.02 0
5.76 0.02 0
5.84 0.02 0
5.92 0.02 0
6 0.02 0
6.08 0.02 0
6.16 0.02 0
6.24 0.02 0
6.32 0.02 0
6.4 0.02 0
6.48 0.02 0
6.56 0.02 0
6.64 0.02 0
6.72 0.02 0
6.8 0.02 0
6.88 0.02 0
6.96 0.02 0
7.04 0.02 0
7.12 0.02 0
7.2 0.02 0
7.28 0.02 0
7.36 0.02 0
7.44 0.02 0
7.52 0.02 0
7.6 0.02 0
7.68 0.02 0
7.76 0.02 0
7.84 0.02 0
7.92 0.02 0
8 0.02 0
8.08 0.02 0
8.16 0.02 0
8.24 0.02 0
8.32 0.02 0
8.4 0.02 0
8.48 0.02 0
8.56 0.02 0
8.64 0.02 0
8.72 0.02 0
8.8 0.02 0
8.88 0.02 0
8.96 0.02 0
9.04 0.02 0
9.12 0.02 0
9.2 0.02 0
9.28 0.02 0
9.36 0.02 0
9.44 0.02 0
9.52 0.02 0
9.6 0.02 0
9.68 0.02 0
9.76 0.02 0
9.84 0.02 0
9.92 0.02 0
10 0.02 0
10.08 0.02 0
10.16 0.02 0
10.24 0.02 0
10.32 0.02 0
10.4 0.02 0
10.48 0.02 0
10.56 0.02 0
10.64 0.02 0
10.72 0.02 0
10.8 0.02 0
10.88 0.02 0
10.96 0.02 0
11.04 0.02 0
11.12 0.02 0
11.2 0.02 0
11.28 0.02 0
11.36 0.02 0
11.44 0.02 0
11.52 0.02 0
11.6 0.02 0
11.68 0.02 0
11.76 0.02 0
11.84 0.02 0
11.92 0.02 0
12 0.02 0
12.08 0.02 0
12.16 0.02 0
12.24 0.02 0
12.32 0.02 0
12.4 0.02 0
12.48 0.02 0
12.56 0.02 0
12.64 0.02 0
12.72 0.02 0
12.8 0.02 0
12.88 0.02 0
12.96 0.02 0
13.04 0.02 0
13.12 0.02 0
13.2 0.02 0
13.28 0.02 0
13.36 0.02 0
13.44 0.02 0
13.52 0.02 0
13.6 0.02 0
13.68 0.02 0
13.76 0.02 0
13.84 0.02 0
13.92 0.02 0
14 0.02 0
14.08 0.02 0
14.16 0.02 0
14.24 0.02 0
14.32 0.02 0
14.4 0.02 0
14.48 0.02 0
14.56 0.02 0
14.64 0.02 0
14.72 0.02 0
14.8 0.02 0
14.88 0.02 0
14.96 0.02 0
15.04 0.02 0
15.12 0.02 0
15.2 0.02 0
15.28 0.02 0
15.36 0.02 0
15.44 0.02 0
15.52 0.02 0
15.6 0.02 0
15.68 0.02 0
15.76 0.02 0
15.84 0.02 0
15.92 0.02 0
16 0.02 0
16.08 0.02 0
16.16 0.02 0
16.24 0.02 0
16.32 0.02 0
16.4 0.02 0
16.48 0.02 0
16.56 0.02 0
16.64 0.02 0
16.72 0.02 0
16.8 0.02 0
16.88 0.02 0
16.96 0.02 0
17.04 0.02 0
17.12 0.02 0
17.2 0.02 0
17.28 0.02 0
17.36 0.02 0
17.44 0.02 0
17.52 0.02 0
17.6 0.02 0
17.68 0.02 0
17.76 0.02 0
17.84 0.02 0
17.92 0.02 0
18 0.02 0
18.08 0.02 0
18.16 0.02 0
18.24 0.02 0
18.32 0.02 0
18.4 0.02 0
18.48 0.02 0
18.56 0.02 0
18.64 0.02 0
18.72 0.02 0
18.8 0.02 0
18.88 0.02 0
18.96 0.02 0
19.04 0.02 0
19.12 0.02 0
19.2 0.02 0
19.28 0.02 0
19.36 0.02 0
19.44 0.02 0
19.52 0.02 0
19.6 0.02 0
19.68 0.02 0
19.76 0.02 0
19.84 0.02 0
19.92 0.02 0
20 0.02 0
20.08 0.02 0
20.16 0.02 0
20.24 0.02 0
20.32 0.02 0
20.4 0.02 0
20.48 0.02 0
20.56 0.02 0
20.64 0.02 0
20.72 0.02 0
20.8 0.02 0
20.88 0.02 0
20.96 0.02 0
21.04 0.02 0
21.12 0.02 0
21.2 0.02 0
21.28 0.02 0
21.36 0.02 0
21.44 0.02 0
21.52 0.02 0
21.6 0.02 0
21.68 0.02 0
21.76 0.02 0
21.84 0.02 0
21.92 0.02 0
22 0.02 0
22.08 0.02 0
22.16 0.02 0
22.24 0.02 0
22.32 0.02 0
22.4 0.02 0
22.48 0.02 0
22.56 0.02 0
22.64 0.02 0
22.72 0.02 0
22.8 0.02 0
22.88 0.02 0
22.96 0.02 0
23.04 0.02 0
23.12 0.02 0
23.2 0.02 0
23.28 0.02 0
23.36 0.02 0
23.44 0.02 0
23.52 0.02 0
23.6 0.02 0
23.68 0.02 0
23.76 0.02 0
23.84 0.02 0
23.92 0.02 0
24 0.02 0
24.08 0.02 0
24.16 0.02 0
24.24 0.02 0
24.32 0.02 0
24.4 0.02 0
24.48 0.02 0
24.56 0.02 0
24.64 0.02 0
24.72 0.02 0
24.8 0.02 0
24.88 0.02 0
24.96 0.02 0
25.04 0.02 0
25.12 0.02 0
25.2 0.02 0
25.28 0.02 0
25.36 0.02 0
25.44 0.02 0
25.52 0.02 0
25.6 0.02 0
25.68 0.02 0
25.76 0.02 0
25.84 0.02 0
25.92 0.02 0
26 0.02 0
26.08 0.02 0
26.16 0.02 0
26.24 0.02 0
26.32 0.02 0
26.4 0.02 0
26.48 0.02 0
26.56 0.02 0
26.64 0.02 0
26.72 0.02 0
26.8 0.02 0
26.88 0.02 0
26.96 0.02 0
27.04 0.02 0
27.12 0.02 0
27.2 0.02 0
27.28 0.02 0
27.36 0.02 0
27.44 0.02 0
27.52 0.02 0
27.6 0.02 0
27.68 0.02 0
27.76 0.02 0
27.84 0.02 0
27.92 0.02 0
28 0.02 0
28.08 0.02 0
28.16 0.02 0
28.24 0.02 0
28.32 0.02 0
28.4 0.02 0
28.48 0.02 0
28.56 0.02 0
28.64 0.02 0
28.72 0.02 0
28.8 0.02 0
28.88 0.02 0
28.96 0.02 0
29.04 0.02 0
29.12 0.02 0
29.2 0.02 0
29.28 0.02 0
29.36 0.02 0
29.44 0.02 0
29.52 0.02 0
29.6 0.02 0
29.68 0.02 0
29.76 0.02 0
29.84 0.02 0
29.92 0.02 0
30 0.02 0
30.08 0.02 0
30.16 0.02 0
30.24 0.02 0
30.32 0.02 0
30.4 0.02 0
30.48 0.02 0
30.56 0.02 0
30.64 0.02 0
30.72 0.02 0
30.8 0.02 0
30.88 0.02 0
30.96 0.02 0
31.04 0.02 0
31.12 0.02 0
31.2 0.02 0
31.28 0.02 0
31.36 0.02 0
31.44 0.02 0
31.52 0.02 0
31.6 0.02 0
31.68 0.02 0
31.76 0.02 0
31.84 0.02 0
31.92 0.02 0
0 0.04 0
0.08 0.04 0
0.16 0.04 0
0.24 0.04 0
0.32 0.04 0
0.4 0.04 0
0.48 0.04 0
0.56 0.04 0
0.64 0.04 0
0.72 0.04 0
0.8 0.04 0
0.88 0.04 0
0.96 0.04 0
1.04 0.04 0
1.12 0.04 0
1.2 0.04 0
1.28 0.04 0
1.36 0.04 0
1.44 0.04 0
1.52 0.04 0
1.6 0.04 0
1.68 0.04 0
1.76 0.04 0
1.84 0.04 0
1.92 0.04 0
2 0.04 0
2.08 0.04 0
2.16 0.04 0
2.24 0.04 0
2.32 0.04 0
2.4 0.04 0
2.48 0.04 0
2.56 0.04 0
2.64 0.04 0
2.72 0.04 0
2.8 0.04 0
2.88 0.04 0
2.96 0.04 0
3.04 0.04 0
3.12 0.04 0
3.2 0.04 0
3.28 0.04 0
3.36 0.04 0
3.44 0.04 0
3.52 0.04 0
3.6 0.04 0
3.68 0.04 0
3.76 0.04 0
3.84 0.04 0
3.92 0.04 0
4 0.04 0
4.08 0.04 0
4.16 0.04 0
4.24 0.04 0
4.32 0.04 0
4.4 0.04 0
4.48 0.04 0
4.56 0.04 0
4.64 0.04 0
4.72 0.04 0
4.8 0.04 0
4.88 0.04 0
4.96 0.04 0
5.04 0.04 0
5.12 0.04 0
5.2 0.04 0
5.28 0.04 0
5.36 0.04 0
5.44 0.04 0
5.52 0.04 0
5.6 0.04 0
5.68 0.04 0
5.76 0.04 0
5.84 0.04 0
5.92 0.04 0
6 0.04 0
6.08 0.04 0
6.16 0.04 0
6.24 0.04 0
6.32 0.04 0
6.4 0.04 0
6.48 0.04 0
6.56 0.04 0
6.64 0.04 0
6.72 0.04 0
6.8 0.04 0
6.88 0.04 0
6.96 0.04 0
7.04 0.04 0
7.12 0.04 0
7.2 0.04 0
7.28 0.04 0
7.36 0.04 0
7.44 0.04 0
7.52 0.04 0
7.6 0.04 0
7.68 0.04 0
7.76 0.04 0
7.84 0.04 0
[...]
POINT_DATA 20000

SCALARS v float 1
LOOKUP_TABLE default
0
0
0
0
0
0
0
0
0
0
0
0
0
0
0
0
0
0
0
0
0
0
0
0
0
0
0
0
0
0
0
0
0
0
0
0
0
0
0
0
0
0
0
0
0
0
0
0
0
0
0
0
0
0
0
0
0
0
0
0
0
0
0
0
0
0
0
0
0
0
0
0
0
0
0
0
0
0
0
0
0
0
0
0
0
0
0
0
0
0
0
0
0
0
0
0
0
0
0
0
0
0
0
0
0
0
0
0
0
0
0
0
0
0
0
0
0
0
0
0
0
0
0
0
0
0
0
0
0
0
0
0
0
0
0
0
0
0
0
0
0
0
0
0
0
0
0
0
0
0
0
0
0
0
0
0
0
0
0
0
0
0
0
0
0
0
0
0
0
0
0
0
0
0
0
0
0
0
0
0
0
0
0
0
0
0
0
0
0
0
0
0
0
0
0
0
0
0
0
0
0
0
0
0
0
0
0
0
0
0
0
0
0
0
0
0
0
0
0
0
0
0
0
0
0
0
0
0
0
0
0
0
0
0
0
0
0
0
0
0
0
0
0
0
0
0
0
0
0
0
0
0
0
0
0
0
0
0
0
0
0
0
0
0
0
0
0
0
0
0
0
0
0
0
0
0
0
0
0
0
0
0
0
0
0
0
0
0
0
0
0
0
0
0
0
0
0
0
0
0
0
0
0
0
0
0
0
0
0
0
0
0
0
0
0
0
0
0
0
0
0
0
0
0
0
0
0
0
0
0
0
0
0
0
0
0
0
0
0
0
0
0
0
0
0
0
0
0
0
0
0
0
0
0
0
0
0
0
0
0
0
0
0
0
0
0
0
0
0
0
0
0
0
0
0
0
0
0
0
0
0
0
0
0
0
0
0
0
0
0
0
0
0
0
0
0
0
0
0
0
-0.123227
0.123227
0.0537918
0.019439
0.00878309
0.00508966
0.00338769
0.00243723
0.0018474
0.00145618
0.00118392
0.000987124
0.000840262
0.00072757
0.000638933
0.000567667
0.000509243
0.000460526
0.0004193
0.000383966
0.000353352
0.000326579
0.000302976
0.000282024
0.000263312
0.000246514
0.000231361
0.000217636
0.000205157
0.000193771
0.000183349
0.000173782
0.000164975
0.000156848
0.000149329
0.000142358
0.00013588
0.000129849
0.000124223
0.000118966
0.000114044
0.000109428
0.000105094
0.000101016
9.71759e-05
9.35534e-05
9.01319e-05
8.68961e-05
8.38323e-05
8.09279e-05
7.81715e-05
7.55525e-05
7.30617e-05
7.06902e-05
6.84302e-05
6.62743e-05
6.42158e-05
6.22486e-05
6.03671e-05
5.85658e-05
5.684e-05
5.51853e-05
5.35974e-05
5.20726e-05
5.06073e-05
4.91983e-05
4.78423e-05
4.65367e-05
4.52787e-05
4.40658e-05
4.28957e-05
4.17662e-05
4.06754e-05
3.96213e-05
3.86021e-05
3.76162e-05
3.66621e-05
3.57382e-05
3.48432e-05
3.39757e-05
3.31345e-05
3.23185e-05
3.15266e-05
3.07579e-05
3.00114e-05
2.92862e-05
2.85815e-05
2.78965e-05
2.72303e-05
2.65823e-05
2.59517e-05
2.53379e-05
2.47404e-05
2.41585e-05
2.35918e-05
2.30396e-05
2.25016e-05
2.1977e-05
2.14656e-05
2.09668e-05
2.04802e-05
2.00056e-05
1.95424e-05
1.90905e-05
1.86495e-05
1.82192e-05
1.77991e-05
1.7389e-05
1.69884e-05
1.65973e-05
1.62152e-05
1.58419e-05
1.54773e-05
1.51212e-05
1.47734e-05
1.44335e-05
1.41015e-05
1.37769e-05
1.34596e-05
1.31495e-05
1.28462e-05
1.25497e-05
1.226e-05
1.1977e-05
1.17004e-05
1.14301e-05
1.1166e-05
1.09077e-05
1.06551e-05
1.04081e-05
1.01666e-05
9.93056e-06
9.69981e-06
9.47428e-06
9.25389e-06
9.0385e-06
8.82794e-06
8.622e-06
8.42048e-06
8.22323e-06
8.03023e-06
7.84153e-06
7.65721e-06
7.47724e-06
7.30144e-06
7.12957e-06
6.96136e-06
6.7967e-06
6.63556e-06
6.47794e-06
6.32382e-06
6.17309e-06
6.02565e-06
5.88146e-06
5.74054e-06
5.60288e-06
5.46832e-06
5.33655e-06
5.20728e-06
5.08038e-06
4.95598e-06
4.8344e-06
4.7159e-06
4.60044e-06
4.48767e-06
4.37714e-06
4.26854e-06
4.16188e-06
4.05738e-06
3.95527e-06
3.85557e-06
3.75809e-06
3.66261e-06
3.56909e-06
3.47763e-06
3.38837e-06
3.30124e-06
3.21592e-06
3.13201e-06
3.0493e-06
2.96801e-06
2.88865e-06
2.81171e-06
2.73724e-06
2.66483e-06
2.59379e-06
2.52357e-06
2.45412e-06
2.38583e-06
2.31925e-06
2.25469e-06
2.19205e-06
2.13098e-06
2.07108e-06
2.01223e-06
1.95451e-06
1.89802e-06
1.84269e-06
1.78825e-06
1.73447e-06
1.68139e-06
1.62938e-06
1.57891e-06
1.53016e-06
1.48279e-06
1.43604e-06
1.38912e-06
1.34173e-06
1.29422e-06
1.24739e-06
1.20195e-06
1.15809e-06
1.11536e-06
1.07295e-06
1.03022e-06
9.86992e-07
9.43599e-07
9.00524e-07
8.58039e-07
8.16064e-07
7.74332e-07
7.32701e-07
6.91339e-07
6.5061e-07
6.10716e-07
5.71398e-07
5.31939e-07
4.91567e-07
4.50001e-07
4.07783e-07
3.66106e-07
3.26182e-07
2.88493e-07
2.52394e-07
2.16364e-07
1.78806e-07
1.38973e-07
9.74643e-08
5.5995e-08
1.65298e-08
-1.97535e-08
-5.30951e-08
-8.50262e-08
-1.1755e-07
-1.52073e-07
-1.88662e-07
-2.26008e-07
-2.62105e-07
-2.95263e-07
-3.24924e-07
-3.51878e-07
-3.77791e-07
-4.04337e-07
-4.32376e-07
-4.61588e-07
-4.90704e-07
-5.18177e-07
-5.42936e-07
-5.64838e-07
-5.84654e-07
-6.03626e-07
-6.22848e-07
-6.42785e-07
-6.63133e-07
-6.83037e-07
-7.01547e-07
-7.18049e-07
-7.32501e-07
-7.45386e-07
-7.57438e-07
-7.69298e-07
-7.81257e-07
-7.93191e-07
-8.04679e-07
-8.15237e-07
-8.24542e-07
-8.32552e-07
-8.39499e-07
-8.45758e-07
-8.51689e-07
-8.575e-07
-8.63203e-07
-8.6865e-07
-8.73635e-07
-8.77996e-07
-8.81683e-07
-8.84775e-07
-8.87435e-07
-8.89845e-07
-8.92142e-07
-8.94381e-07
-8.96537e-07
-8.98535e-07
-9.00293e-07
-9.01761e-07
-9.02939e-07
-9.03876e-07
-9.04651e-07
-9.05344e-07
-9.06015e-07
-9.06691e-07
-9.07366e-07
-9.08016e-07
-9.08611e-07
-9.09127e-07
-9.09561e-07
-9.09923e-07
-9.10236e-07
-9.10525e-07
-9.10815e-07
-9.11117e-07
-9.11437e-07
-9.11768e-07
-9.12102e-07
-9.12426e-07
-9.12738e-07
-9.1303e-07
-9.1331e-07
-9.13575e-07
-9.13841e-07
-9.14101e-07
-9.14371e-07
-9.14639e-07
-9.14916e-07
-9.15187e-07
-9.15466e-07
-9.15731e-07
-9.16003e-07
-9.16258e-07
-9.16524e-07
-9.1677e-07
-9.17034e-07
-9.17274e-07
-9.1754e-07
-9.17775e-07
-9.18044e-07
-9.18272e-07
-9.18544e-07
-9.18762e-07
-9.19036e-07
-9.19242e-07
-9.19522e-07
-9.19714e-07
-9.20002e-07
-9.20177e-07
-9.20478e-07
-9.20632e-07
-9.20951e-07
-9.21079e-07
-9.21422e-07
-9.21519e-07
-9.21894e-07
-9.2195e-07
-9.22368e-07
-9.22372e-07
-9.22848e-07
-9.22787e-07
-9.23338e-07
-9.23193e-07
-9.23843e-07
-9.23591e-07
-9.24373e-07
-9.23982e-07
-9.24936e-07
-9.24367e-07
-9.25547e-07
-9.24747e-07
-9.26222e-07
-9.25125e-07
-9.26985e-07
-9.25504e-07
-9.27865e-07
-9.25892e-07
-9.28901e-07
-9.26298e-07
-9.30143e-07
-9.26737e-07
-9.31654e-07
-9.27232e-07
-9.33511e-07
-9.27817e-07
-9.35802e-07
-9.28547e-07
-9.38615e-07
-9.29503e-07
-9.41994e-07
-9.30811e-07
-9.45813e-07
-9.32663e-07
-9.49423e-07
-9.35366e-07
-9.50627e-07
-9.39399e-07
-9.42364e-07
-9.45469e-07
-8.98578e-07
-9.52818e-07
-6.37311e-07
-8.12743e-07
-8.12743e-07
-0.142153
0.142153
0.101004
0.0539128
0.0302563
0.0189182
0.0129274
0.00941288
0.00717995
0.00567704
0.00462055
0.00385155
0.00327505
0.00283155
0.00248237
0.00220171
0.00197189
0.00178059
0.00161905
0.0014809
0.00136147
0.00125725
0.00116554
0.00108427
0.00101181
0.000946836
0.000888302
0.000835336
0.00078722
0.000743352
0.000703228
0.000666415
0.000632545
0.000601303
0.000572412
0.000545635
0.000520763
0.000497613
0.000476023
0.000455853
0.000436975
0.000419276
0.000402658
0.00038703
0.000372312
0.000358432
0.000345325
0.000332931
0.000321198
0.000310077
0.000299524
0.000289499
0.000279965
0.00027089
0.000262242
0.000253994
0.00024612
0.000238596
0.0002314
0.000224513
0.000217915
0.000211589
0.00020552
0.000199693
0.000194094
0.00018871
0.00018353
0.000178543
0.000173738
0.000169106
0.000164639
0.000160327
0.000156163
0.000152139
0.00014825
0.000144488
0.000140848
0.000137324
0.00013391
0.000130601
0.000127394
0.000124283
0.000121264
0.000118334
0.00011549
0.000112726
0.000110042
0.000107432
0.000104895
0.000102427
0.000100026
9.7689e-05
9.54144e-05
9.31997e-05
9.10428e-05
8.89417e-05
8.68943e-05
8.48989e-05
8.29535e-05
8.10564e-05
7.92063e-05
7.74016e-05
7.56412e-05
7.39237e-05
7.22479e-05
7.06126e-05
6.90165e-05
6.74584e-05
6.5937e-05
6.44513e-05
6.30003e-05
6.15833e-05
6.01993e-05
5.88476e-05
5.75273e-05
5.62375e-05
5.49773e-05
5.37458e-05
5.25421e-05
5.13657e-05
5.02157e-05
4.9092e-05
4.79939e-05
4.69211e-05
4.58729e-05
4.48487e-05
4.38476e-05
4.2869e-05
4.19122e-05
4.09767e-05
4.00623e-05
3.91685e-05
3.8295e-05
3.74414e-05
3.66072e-05
3.5792e-05
3.4995e-05
3.42156e-05
3.34531e-05
3.27072e-05
3.19777e-05
3.12648e-05
3.05684e-05
2.98882e-05
2.92237e-05
2.85738e-05
2.7938e-05
2.73159e-05
2.67072e-05
2.61121e-05
2.55301e-05
2.49611e-05
2.44046e-05
2.38604e-05
2.33286e-05
2.28088e-05
2.23005e-05
2.18028e-05
2.13148e-05
2.08363e-05
2.03678e-05
1.99102e-05
1.94638e-05
1.90282e-05
1.86024e-05
1.81849e-05
1.77752e-05
1.73733e-05
1.69799e-05
1.65955e-05
1.62199e-05
1.58526e-05
1.5493e-05
1.51409e-05
1.47966e-05
1.44604e-05
1.41318e-05
1.38099e-05
1.34935e-05
1.31826e-05
1.28778e-05
1.25806e-05
1.2292e-05
1.20117e-05
1.17383e-05
1.14697e-05
1.12049e-05
1.0944e-05
1.06882e-05
1.0439e-05
1.01969e-05
9.96133e-06
9.73115e-06
9.50535e-06
9.28365e-06
9.06625e-06
8.85331e-06
8.64446e-06
8.43896e-06
8.23632e-06
8.03685e-06
7.8416e-06
7.6516e-06
7.46688e-06
7.28604e-06
7.10682e-06
6.92734e-06
6.74724e-06
6.56788e-06
6.3915e-06
6.21972e-06
6.0525e-06
5.88815e-06
5.72441e-06
5.55973e-06
5.39404e-06
5.22843e-06
5.06422e-06
4.90195e-06
4.74126e-06
4.58145e-06
4.4223e-06
4.26437e-06
4.10852e-06
3.95495e-06
3.80258e-06
3.64936e-06
3.49358e-06
3.33515e-06
3.1762e-06
3.02016e-06
2.86986e-06
2.72569e-06
2.58503e-06
2.44345e-06
2.29714e-06
2.14522e-06
1.99048e-06
1.83819e-06
1.69337e-06
1.55819e-06
1.43077e-06
1.30624e-06
1.17932e-06
1.04718e-06
9.10957e-07
7.7519e-07
6.455e-07
5.25807e-07
4.16485e-07
3.14379e-07
2.14562e-07
1.12875e-07
7.91137e-09
-9.84631e-08
-2.02223e-07
-2.99244e-07
-3.87251e-07
-4.6672e-07
-5.4041e-07
-6.11879e-07
-6.8378e-07
-7.56751e-07
-8.29353e-07
-8.98954e-07
-9.63062e-07
-1.02043e-06
-1.07146e-06
-1.11787e-06
-1.1618e-06
-1.20482e-06
-1.24742e-06
-1.28896e-06
-1.32813e-06
-1.36366e-06
-1.39491e-06
-1.42205e-06
-1.44594e-06
-1.46774e-06
-1.48838e-06
-1.50833e-06
-1.52749e-06
-1.54537e-06
-1.56142e-06
-1.57529e-06
-1.58699e-06
-1.59685e-06
-1.6054e-06
-1.61318e-06
-1.62051e-06
-1.6275e-06
-1.63404e-06
-1.6399e-06
-1.64488e-06
-1.6489e-06
-1.65202e-06
-1.65443e-06
-1.65638e-06
-1.65811e-06
-1.65976e-06
-1.66139e-06
-1.66297e-06
-1.66442e-06
-1.66565e-06
-1.66663e-06
-1.66736e-06
-1.66789e-06
-1.66829e-06
-1.66864e-06
-1.66901e-06
-1.66943e-06
-1.66989e-06
-1.67037e-06
-1.67086e-06
-1.6713e-06
-1.67171e-06
-1.67207e-06
-1.67239e-06
-1.67268e-06
-1.67297e-06
-1.67326e-06
-1.67358e-06
-1.67389e-06
-1.67424e-06
-1.67457e-06
-1.67492e-06
-1.67523e-06
-1.67556e-06
-1.67585e-06
-1.67618e-06
-1.67644e-06
-1.67677e-06
-1.67703e-06
-1.67737e-06
-1.67761e-06
-1.67797e-06
-1.6782e-06
-1.67857e-06
-1.67878e-06
-1.67917e-06
-1.67934e-06
-1.67976e-06
-1.67989e-06
-1.68034e-06
-1.68043e-06
-1.68093e-06
-1.68096e-06
-1.68152e-06
-1.68148e-06
-1.68213e-06
-1.68199e-06
-1.68275e-06
-1.68249e-06
-1.68339e-06
-1.68297e-06
-1.68408e-06
-1.68345e-06
-1.68481e-06
-1.68393e-06
-1.68562e-06
-1.6844e-06
-1.68652e-06
-1.68487e-06
-1.68756e-06
-1.68534e-06
-1.68877e-06
-1.68583e-06
-1.69023e-06
-1.68634e-06
-1.692e-06
-1.68689e-06
-1.69419e-06
-1.68752e-06
-1.69694e-06
-1.68826e-06
-1.70041e-06
-1.68917e-06
-1.70482e-06
-1.69035e-06
-1.71046e-06
-1.69192e-06
-1.71762e-06
-1.69408e-06
-1.72664e-06
-1.69712e-06
-1.73772e-06
-1.70145e-06
-1.75054e-06
-1.70767e-06
-1.76315e-06
-1.71655e-06
-1.7687e-06
-1.72897e-06
-1.74521e-06
-1.74474e-06
-1.61295e-06
-1.75108e-06
-8.82288e-07
-1.32957e-06
-1.32957e-06
-0.122226
0.122226
0.121663
0.0822677
0.0539946
0.0368639
0.026393
0.0197162
0.0152654
0.01218
0.00996826
0.0083365
0.00710153
0.00614513
0.00538879
0.00477912
0.00427911
0.00386261
0.00351084
0.00321011
0.00295025
0.0027236
0.00252429
0.00234778
0.00219048
0.00204951
0.00192255
0.00180771
0.00170342
0.00160836
0.00152143
0.00144169
0.00136833
0.00130067
0.00123811
0.00118013
0.00112628
0.00107616
0.00102942
0.00098575
0.000944883
0.000906572
0.000870599
0.000836771
0.000804914
0.000774871
0.000746501
0.000719677
0.000694283
0.000670214
0.000647375
0.00062568
0.00060505
0.000585411
0.000566698
0.000548851
0.000531813
0.000515534
0.000499965
0.000485064
0.00047079
0.000457106
0.000443977
0.000431372
0.000419262
0.000407618
0.000396416
0.000385631
0.000375241
0.000365226
0.000355566
0.000346243
0.000337241
0.000328544
0.000320137
0.000312006
0.000304138
0.000296522
0.000289145
0.000281996
0.000275066
0.000268345
0.000261825
0.000255497
0.000249353
0.000243386
0.000237588
0.000231954
0.000226476
0.000221148
0.000215965
0.000210921
0.000206012
0.000201233
0.000196579
0.000192045
0.000187628
0.000183323
0.000179127
0.000175036
0.000171046
0.000167154
0.000163359
0.000159656
0.000156044
0.000152519
0.000149079
0.000145721
0.000142442
0.000139241
0.000136115
0.000133062
0.000130081
0.000127169
0.000124325
0.000121548
0.000118834
0.000116182
0.000113591
0.000111058
0.000108583
0.000106165
0.000103802
0.000101493
9.92382e-05
9.70345e-05
9.48808e-05
9.27755e-05
9.07175e-05
8.87058e-05
8.67395e-05
8.48178e-05
8.29399e-05
8.11049e-05
7.93117e-05
7.75591e-05
7.58459e-05
7.41708e-05
7.25324e-05
7.09301e-05
6.93635e-05
6.78326e-05
6.63372e-05
6.48766e-05
6.34492e-05
6.20536e-05
6.06882e-05
5.93525e-05
5.80461e-05
5.67688e-05
5.552e-05
5.4299e-05
5.31049e-05
5.19375e-05
5.07965e-05
4.96811e-05
4.85902e-05
4.7522e-05
4.64752e-05
4.54495e-05
4.44458e-05
4.34654e-05
4.25086e-05
4.15745e-05
4.06607e-05
3.97651e-05
3.88865e-05
3.80254e-05
3.71828e-05
3.63593e-05
3.55546e-05
3.47674e-05
3.39968e-05
3.32426e-05
3.25051e-05
3.17846e-05
3.10802e-05
3.03899e-05
2.97123e-05
2.90469e-05
2.83956e-05
2.77605e-05
2.71431e-05
2.65425e-05
2.59558e-05
2.53797e-05
2.48123e-05
2.42543e-05
2.3708e-05
2.31755e-05
2.26577e-05
2.21532e-05
2.16597e-05
2.11756e-05
2.07004e-05
2.02344e-05
1.97778e-05
1.93297e-05
1.8889e-05
1.84547e-05
1.80276e-05
1.76094e-05
1.72015e-05
1.68036e-05
1.64128e-05
1.6025e-05
1.56373e-05
1.52496e-05
1.48645e-05
1.44858e-05
1.41158e-05
1.37541e-05
1.33973e-05
1.30413e-05
1.26839e-05
1.23252e-05
1.19674e-05
1.16127e-05
1.12617e-05
1.09139e-05
1.0568e-05
1.02237e-05
9.88195e-06
9.54421e-06
9.21047e-06
8.87859e-06
8.54509e-06
8.2074e-06
7.86609e-06
7.52534e-06
7.1911e-06
6.86771e-06
6.55493e-06
6.24752e-06
5.93778e-06
5.61986e-06
5.29341e-06
4.96436e-06
4.64219e-06
4.33509e-06
4.04567e-06
3.7696e-06
3.49796e-06
3.22205e-06
2.93815e-06
2.64951e-06
2.36481e-06
2.09371e-06
1.84216e-06
1.60963e-06
1.38975e-06
1.17382e-06
9.55215e-07
7.32523e-07
5.09915e-07
2.94784e-07
9.40074e-08
-8.92447e-08
-2.56676e-07
-4.13647e-07
-5.66367e-07
-7.18987e-07
-8.71936e-07
-1.02215e-06
-1.16488e-06
-1.296e-06
-1.41387e-06
-1.51975e-06
-1.61696e-06
-1.70927e-06
-1.79921e-06
-1.88728e-06
-1.97209e-06
-2.0513e-06
-2.12282e-06
-2.18581e-06
-2.24091e-06
-2.28985e-06
-2.33472e-06
-2.37712e-06
-2.41772e-06
-2.45622e-06
-2.49174e-06
-2.52336e-06
-2.55061e-06
-2.57365e-06
-2.59322e-06
-2.61032e-06
-2.62587e-06
-2.64043e-06
-2.65411e-06
-2.66669e-06
-2.67778e-06
-2.68707e-06
-2.69449e-06
-2.70023e-06
-2.70468e-06
-2.7083e-06
-2.7115e-06
-2.71453e-06
-2.71746e-06
-2.72023e-06
-2.72269e-06
-2.72471e-06
-2.72624e-06
-2.72731e-06
-2.72803e-06
-2.72855e-06
-2.72899e-06
-2.72948e-06
-2.73004e-06
-2.73068e-06
-2.73135e-06
-2.73201e-06
-2.73259e-06
-2.7331e-06
-2.73351e-06
-2.73387e-06
-2.73417e-06
-2.73449e-06
-2.7348e-06
-2.73518e-06
-2.73554e-06
-2.73597e-06
-2.73634e-06
-2.73677e-06
-2.73712e-06
-2.73753e-06
-2.73783e-06
-2.73822e-06
-2.7385e-06
-2.7389e-06
-2.73915e-06
-2.73959e-06
-2.73983e-06
-2.74029e-06
-2.7405e-06
-2.74099e-06
-2.74115e-06
-2.74169e-06
-2.74179e-06
-2.74237e-06
-2.7424e-06
-2.74306e-06
-2.743e-06
-2.74376e-06
-2.74359e-06
-2.74448e-06
-2.74417e-06
-2.74523e-06
-2.74473e-06
-2.74602e-06
-2.74528e-06
-2.74687e-06
-2.74582e-06
-2.7478e-06
-2.74635e-06
-2.74884e-06
-2.74688e-06
-2.75003e-06
-2.74741e-06
-2.75142e-06
-2.74795e-06
-2.75309e-06
-2.74851e-06
-2.75513e-06
-2.74911e-06
-2.75766e-06
-2.74978e-06
-2.76084e-06
-2.75055e-06
-2.76487e-06
-2.7515e-06
-2.77004e-06
-2.7527e-06
-2.77668e-06
-2.75428e-06
-2.78525e-06
-2.75644e-06
-2.79631e-06
-2.75943e-06
-2.81051e-06
-2.76366e-06
-2.82856e-06
-2.7697e-06
-2.85095e-06
-2.77833e-06
-2.87722e-06
-2.79065e-06
-2.9039e-06
-2.80795e-06
-2.91851e-06
-2.83097e-06
-2.88097e-06
-2.85581e-06
-2.6498e-06
-2.84181e-06
-1.46584e-06
-2.03906e-06
-2.03906e-06
-0.0942782
0.0942782
0.121016
0.0969695
0.0717937
0.0531983
0.0402012
0.0311118
0.0246581
0.0199856
0.0165326
0.0139285
0.0119256
0.0103559
0.00910357
0.00808744
0.0072501
0.00655019
0.00595761
0.00545009
0.00501099
0.00462764
0.00429031
0.00399139
0.00372486
0.00348593
0.00327067
0.00307589
0.00289894
0.0027376
0.00259001
0.00245459
0.00232998
0.00221501
0.00210868
0.00201011
0.00191854
0.00183329
0.00175377
0.00167947
0.00160992
0.00154471
0.00148346
0.00142586
0.00137161
0.00132044
0.00127211
0.00122641
0.00118314
0.00114212
0.0011032
0.00106622
0.00103105
0.000997569
0.000965666
0.000935235
0.000906183
0.000878422
0.000851872
0.00082646
0.000802115
0.000778776
0.000756384
0.000734885
0.000714228
0.000694368
0.000675259
0.000656863
0.000639141
0.000622058
0.00060558
0.000589679
0.000574324
0.000559489
0.00054515
0.000531282
0.000517863
0.000504873
0.000492291
0.0004801
0.000468283
0.000456823
0.000445705
0.000434915
0.00042444
0.000414267
0.000404384
0.000394779
0.000385441
0.00037636
0.000367527
0.000358931
0.000350566
0.000342421
0.000334491
0.000326767
0.000319241
0.000311907
0.000304759
0.00029779
0.000290995
0.000284368
0.000277905
0.000271601
0.00026545
0.000259449
0.000253592
0.000247876
0.000242295
0.000236847
0.000231527
0.000226332
0.000221259
0.000216305
0.000211467
0.000206741
0.000202124
0.000197613
0.000193206
0.000188899
0.000184691
0.000180579
0.000176562
0.000172638
0.000168804
0.000165058
0.000161397
0.000157819
0.000154321
0.000150903
0.000147562
0.000144298
0.000141108
0.00013799
0.000134944
0.000131968
0.000129058
0.000126213
0.000123431
0.000120711
0.000118053
0.000115455
0.000112917
0.000110438
0.000108016
0.000105647
0.00010333
0.000101064
9.88485e-05
9.66821e-05
9.45643e-05
9.24936e-05
9.04689e-05
8.84895e-05
8.65547e-05
8.46633e-05
8.28134e-05
8.10024e-05
7.92283e-05
7.74906e-05
7.57906e-05
7.413e-05
7.2509e-05
7.09258e-05
6.93769e-05
6.7859e-05
6.63706e-05
6.49123e-05
6.34855e-05
6.20912e-05
6.07285e-05
5.93954e-05
5.80905e-05
5.68135e-05
5.55648e-05
5.43446e-05
5.31514e-05
5.19825e-05
5.08355e-05
4.97103e-05
4.86092e-05
4.75356e-05
4.64911e-05
4.5474e-05
4.44799e-05
4.35039e-05
4.25437e-05
4.16003e-05
4.06771e-05
3.97773e-05
3.89015e-05
3.80475e-05
3.72118e-05
3.63919e-05
3.55871e-05
3.4798e-05
3.40246e-05
3.32656e-05
3.2519e-05
3.17838e-05
3.10609e-05
3.03526e-05
2.96608e-05
2.89844e-05
2.8319e-05
2.76586e-05
2.69992e-05
2.63409e-05
2.56877e-05
2.50451e-05
2.44161e-05
2.37994e-05
2.31899e-05
2.25816e-05
2.19715e-05
2.13601e-05
2.07508e-05
2.01467e-05
1.95489e-05
1.8956e-05
1.83662e-05
1.77792e-05
1.71965e-05
1.662e-05
1.60495e-05
1.54817e-05
1.49118e-05
1.43364e-05
1.37568e-05
1.31794e-05
1.26128e-05
1.20628e-05
1.15284e-05
1.10015e-05
1.04709e-05
9.929e-06
9.37629e-06
8.82222e-06
8.28078e-06
7.76334e-06
7.27273e-06
6.80176e-06
6.33723e-06
5.86707e-06
5.38695e-06
4.90276e-06
4.42767e-06
3.97559e-06
3.55428e-06
3.16193e-06
2.78861e-06
2.42161e-06
2.05195e-06
1.67852e-06
1.3082e-06
9.51981e-07
6.1952e-07
3.14652e-07
3.4097e-08
-2.30401e-07
-4.87827e-07
-7.43742e-07
-9.98138e-07
-1.24609e-06
-1.48056e-06
-1.69586e-06
-1.89011e-06
-2.06565e-06
-2.22765e-06
-2.38158e-06
-2.53091e-06
-2.67607e-06
-2.81477e-06
-2.94359e-06
-3.05968e-06
-3.16213e-06
-3.25217e-06
-3.33257e-06
-3.40644e-06
-3.47607e-06
-3.54229e-06
-3.60459e-06
-3.66166e-06
-3.71226e-06
-3.75582e-06
-3.79278e-06
-3.82433e-06
-3.85201e-06
-3.87716e-06
-3.90056e-06
-3.92234e-06
-3.94214e-06
-3.95943e-06
-3.97381e-06
-3.98525e-06
-3.9941e-06
-4.001e-06
-4.00666e-06
-4.01166e-06
-4.01636e-06
-4.02084e-06
-4.02499e-06
-4.0286e-06
-4.03151e-06
-4.03364e-06
-4.0351e-06
-4.03603e-06
-4.03668e-06
-4.03725e-06
-4.03789e-06
-4.03864e-06
-4.0395e-06
-4.04038e-06
-4.04124e-06
-4.04197e-06
-4.04258e-06
-4.04304e-06
-4.04344e-06
-4.04375e-06
-4.04412e-06
-4.04446e-06
-4.0449e-06
-4.04532e-06
-4.04584e-06
-4.04627e-06
-4.04679e-06
-4.04717e-06
-4.04766e-06
-4.04797e-06
-4.04844e-06
-4.04871e-06
-4.0492e-06
-4.04945e-06
-4.04999e-06
-4.05021e-06
-4.05079e-06
-4.05097e-06
-4.0516e-06
-4.0517e-06
-4.0524e-06
-4.0524e-06
-4.05319e-06
-4.05307e-06
-4.05399e-06
-4.05373e-06
-4.05481e-06
-4.05437e-06
-4.05567e-06
-4.05499e-06
-4.05658e-06
-4.0556e-06
-4.05755e-06
-4.05618e-06
-4.05863e-06
-4.05675e-06
-4.05984e-06
-4.05731e-06
-4.06123e-06
-4.05787e-06
-4.06287e-06
-4.05843e-06
-4.06486e-06
-4.05901e-06
-4.06729e-06
-4.05962e-06
-4.07033e-06
-4.0603e-06
-4.07417e-06
-4.06109e-06
-4.07908e-06
-4.06206e-06
-4.08538e-06
-4.0633e-06
-4.09354e-06
-4.06495e-06