# vtk DataFile Version 2.0
FlowField
ASCII
DATASET STRUCTURED_GRID
DIMENSIONS 400 1 50
POINTS 20000 float
0 0 0
0.08 0 0
0.16 0 0
0.24 0 0
0.32 0 0
0.4 0 0
0.48 0 0
0.56 0 0
0.64 0 0
0.72 0 0
0.8 0 0
0.88 0 0
0.96 0 0
1.04 0 0
1.12 0 0
1.2 0 0
1.28 0 0
1.36 0 0
1.44 0 0
1.52 0 0
1.6 0 0
1.68 0 0
1.76 0 0
1.84 0 0
1.92 0 0
2 0 0
2.08 0 0
2.16 0 0
2.24 0 0
2.32 0 0
2.4 0 0
2.48 0 0
2.56 0 0
2.64 0 0
2.72 0 0
2.8 0 0
2.88 0 0
2.96 0 0
3.04 0 0
3.12 0 0
3.2 0 0
3.28 0 0
3.36 0 0
3.44 0 0
3.52 0 0
3.6 0 0
3.68 0 0
3.76 0 0
3.84 0 0
3.92 0 0
4 0 0
4.08 0 0
4.16 0 0
4.24 0 0
4.32 0 0
4.4 0 0
4.48 0 0
4.56 0 0
4.64 0 0
4.72 0 0
4.8 0 0
4.88 0 0
4.96 0 0
5.04 0 0
5.12 0 0
5.2 0 0
5.28 0 0
5.36 0 0
5.44 0 0
5.52 0 0
5.6 0 0
5.68 0 0
5.76 0 0
5.84 0 0
5.92 0 0
6 0 0
6.08 0 0
6.16 0 0
6.24 0 0
6.32 0 0
6.4 0 0
6.48 0 0
6.56 0 0
6.64 0 0
6.72 0 0
6.8 0 0
6.88 0 0
6.96 0 0
7.04 0 0
7.12 0 0
7.2 0 0
7.28 0 0
7.36 0 0
7.44 0 0
7.52 0 0
7.6 0 0
7.68 0 0
7.76 0 0
7.84 0 0
7.92 0 0
8 0 0
8.08 0 0
8.16 0 0
8.24 0 0
8.32 0 0
8.4 0 0
8.48 0 0
8.56 0 0
8.64 0 0
8.72 0 0
8.8 0 0
8.88 0 0
8.96 0 0
9.04 0 0
9.12 0 0
9.2 0 0
9.28 0 0
9.36 0 0
9.44 0 0
9.52 0 0
9.6 0 0
9.68 0 0
9.76 0 0
9.84 0 0
9.92 0 0
10 0 0
10.08 0 0
10.16 0 0
10.24 0 0
10.32 0 0
10.4 0 0
10.48 0 0
10.56 0 0
10.64 0 0
10.72 0 0
10.8 0 0
10.88 0 0
10.96 0 0
11.04 0 0
11.12 0 0
11.2 0 0
11.28 0 0
11.36 0 0
11.44 0 0
11.52 0 0
11.6 0 0
11.68 0 0
11.76 0 0
11.84 0 0
11.92 0 0
12 0 0
12.08 0 0
12.16 0 0
12.24 0 0
12.32 0 0
12.4 0 0
12.48 0 0
12.56 0 0
12.64 0 0
12.72 0 0
12.8 0 0
12.88 0 0
12.96 0 0
13.04 0 0
13.12 0 0
13.2 0 0
13.28 0 0
13.36 0 0
13.44 0 0
13.52 0 0
13.6 0 0
13.68 0 0
13.76 0 0
13.84 0 0
13.92 0 0
14 0 0
14.08 0 0
14.16 0 0
14.24 0 0
14.32 0 0
14.4 0 0
14.48 0 0
14.56 0 0
14.64 0 0
14.72 0 0
14.8 0 0
14.88 0 0
14.96 0 0
15.04 0 0
15.12 0 0
15.2 0 0
15.28 0 0
15.36 0 0
15.44 0 0
15.52 0 0
15.6 0 0
15.68 0 0
15.76 0 0
15.84 0 0
15.92 0 0
16 0 0
16.08 0 0
16.16 0 0
16.24 0 0
16.32 0 0
16.4 0 0
16.48 0 0
16.56 0 0
16.64 0 0
16.72 0 0
16.8 0 0
16.88 0 0
16.96 0 0
17.04 0 0
17.12 0 0
17.2 0 0
17.28 0 0
17.36 0 0
17.44 0 0
17.52 0 0
17.6 0 0
17.68 0 0
17.76 0 0
17.84 0 0
17.92 0 0
18 0 0
18.08 0 0
18.16 0 0
18.24 0 0
18.32 0 0
18.4 0 0
18.48 0 0
18.56 0 0
18.64 0 0
18.72 0 0
18.8 0 0
18.88 0 0
18.96 0 0
19.04 0 0
19.12 0 0
19.2 0 0
19.28 0 0
19.36 0 0
19.44 0 0
19.52 0 0
19.6 0 0
19.68 0 0
19.76 0 0
19.84 0 0
19.92 0 0
20 0 0
20.08 0 0
20.16 0 0
20.24 0 0
20.32 0 0
20.4 0 0
20.48 0 0
20.56 0 0
20.64 0 0
20.72 0 0
20.8 0 0
20.88 0 0
20.96 0 0
21.04 0 0
21.12 0 0
21.2 0 0
21.28 0 0
21.36 0 0
21.44 0 0
21.52 0 0
21.6 0 0
21.68 0 0
21.76 0 0
21.84 0 0
21.92 0 0
22 0 0
22.08 0 0
22.16 0 0
22.24 0 0
22.32 0 0
22.4 0 0
22.48 0 0
22.56 0 0
22.64 0 0
22.72 0 0
22.8 0 0
22.88 0 0
22.96 0 0
23.04 0 0
23.12 0 0
23.2 0 0
23.28 0 0
23.36 0 0
23.44 0 0
23.52 0 0
23.6 0 0
23.68 0 0
23.76 0 0
23.84 0 0
23.92 0 0
24 0 0
24.08 0 0
24.16 0 0
24.24 0 0
24.32 0 0
24.4 0 0
24.48 0 0
24.56 0 0
24.64 0 0
24.72 0 0
24.8 0 0
24.88 0 0
24.96 0 0
25.04 0 0
25.12 0 0
25.2 0 0
25.28 0 0
25.36 0 0
25.44 0 0
25.52 0 0
25.6 0 0
25.68 0 0
25.76 0 0
25.84 0 0
25.92 0 0
26 0 0
26.08 0 0
26.16 0 0
26.24 0 0
26.32 0 0
26.4 0 0
26.48 0 0
26.56 0 0
26.64 0 0
26.72 0 0
26.8 0 0
26.88 0 0
26.96 0 0
27.04 0 0
27.12 0 0
27.2 0 0
27.28 0 0
27.36 0 0
27.44 0 0
27.52 0 0
27.6 0 0
27.68 0 0
27.76 0 0
27.84 0 0
27.92 0 0
28 0 0
28.08 0 0
28.16 0 0
28.24 0 0
28.32 0 0
28.4 0 0
28.48 0 0
28.56 0 0
28.64 0 0
28.72 0 0
28.8 0 0
28.88 0 0
28.96 0 0
29.04 0 0
29.12 0 0
29.2 0 0
29.28 0 0
29.36 0 0
29.44 0 0
29.52 0 0
29.6 0 0
29.68 0 0
29.76 0 0
29.84 0 0
29.92 0 0
30 0 0
30.08 0 0
30.16 0 0
30.24 0 0
30.32 0 0
30.4 0 0
30.48 0 0
30.56 0 0
30.64 0 0
30.72 0 0
30.8 0 0
30.88 0 0
30.96 0 0
31.04 0 0
31.12 0 0
31.2 0 0
31.28 0 0
31.36 0 0
31.44 0 0
31.52 0 0
31.6 0 0
31.68 0 0
31.76 0 0
31.84 0 0
31.92 0 0
0 0.02 0
0.08 0.02 0
0.16 0.02 0
0.24 0.02 0
0.32 0.02 0
0.4 0.02 0
0.48 0.02 0
0.56 0.02 0
0.64 0.02 0
0.72 0.02 0
0.8 0.02 0
0.88 0.02 0
0.96 0.02 0
1.04 0.02 0
1.12 0.02 0
1.2 0.02 0
1.28 0.02 0
1.36 0.02 0
1.44 0.02 0
1.52 0.02 0
1.6 0.02 0
1.68 0.02 0
1.76 0.02 0
1.84 0.02 0
1.92 0.02 0
2 0.02 0
2.08 0.02 0
2.16 0.02 0
2.24 0.02 0
2.32 0.02 0
2.4 0.02 0
2.48 0.02 0
2.56 0.02 0
2.64 0.02 0
2.72 0.02 0
2.8 0.02 0
2.88 0.02 0
2.96 0.02 0
3.04 0.02 0
3.12 0.02 0
3.2 0.02 0
3.28 0.02 0
3.36 0.02 0
3.44 0.02 0
3.52 0.02 0
3.6 0.02 0
3.68 0.02 0
3.76 0.02 0
3.84 0.02 0
3.92 0.02 0
4 0.02 0
4.08 0.02 0
4.16 0.02 0
4.24 0.02 0
4.32 0.02 0
4.4 0.02 0
4.48 0.02 0
4.56 0.02 0
4.64 0.02 0
4.72 0.02 0
4.8 0.02 0
4.88 0.02 0
4.96 0.02 0
5.04 0.02 0
5.12 0.02 0
5.2 0.02 0
5.28 0.02 0
5.36 0.02 0
5.44 0.02 0
5.52 0.02 0
5.6 0.02 0
5.68 0.02 0
5.76 0.02 0
5.84 0.02 0
5.92 0.02 0
6 0.02 0
6.08 0.02 0
6.16 0.02 0
6.24 0.02 0
6.32 0.02 0
6.4 0.02 0
6.48 0.02 0
6.56 0.02 0
6.64 0.02 0
6.72 0.02 0
6.8 0.02 0
6.88 0.02 0
6.96 0.02 0
7.04 0.02 0
7.12 0.02 0
7.2 0.02 0
7.28 0.02 0
7.36 0.02 0
7.44 0.02 0
7.52 0.02 0
7.6 0.02 0
7.68 0.02 0
7.76 0.02 0
7.84 0.02 0
7.92 0.02 0
8 0.02 0
8.08 0.02 0
8.16 0.02 0
8.24 0.02 0
8.32 0.02 0
8.4 0.02 0
8.48 0.02 0
8.56 0.02 0
8.64 0.02 0
8.72 0.02 0
8.8 0.02 0
8.88 0.02 0
8.96 0.02 0
9.04 0.02 0
9.12 0.02 0
9.2 0.02 0
9.28 0.02 0
9.36 0.02 0
9.44 0.02 0
9.52 0.02 0
9.6 0.02 0
9.68 0.02 0
9.76 0.02 0
9.84 0.02 0
9.92 0.02 0
10 0.02 0
10.08 0.02 0
10.16 0.02 0
10.24 0.02 0
10.32 0.02 0
10.4 0.02 0
10.48 0.02 0
10.56 0.02 0
10.64 0.02 0
10.72 0.02 0
10.8 0.02 0
10.88 0.02 0
10.96 0.02 0
11.04 0.02 0
11.12 0.02 0
11.2 0.02 0
11.28 0.02 0
11.36 0.02 0
11.44 0.02 0
11.52 0.02 0
11.6 0.02 0
11.68 0.02 0
11.76 0.02 0
11.84 0.02 0
11.92 0.02 0
12 0.02 0
12.08 0.02 0
12.16 0.02 0
12.24 0.02 0
12.32 0.02 0
12.4 0.02 0
12.48 0.02 0
12.56 0.02 0
12.64 0.02 0
12.72 0.02 0
12.8 0.02 0
12.88 0.02 0
12.96 0.02 0
13.04 0.02 0
13.12 0.02 0
13.2 0.02 0
13.28 0.02 0
13.36 0.02 0
13.44 0.02 0
13.52 0.02 0
13.6 0.02 0
13.68 0.02 0
13.76 0.02 0
13.84 0.02 0
13.92 0.02 0
14 0.02 0
14.08 0.02 0
14.16 0.02 0
14.24 0.02 0
14.32 0.02 0
14.4 0.02 0
14.48 0.02 0
14.56 0.02 0
14.64 0.02 0
14.72 0.02 0
14.8 0.02 0
14.88 0.02 0
14.96 0.02 0
15.04 0.02 0
15.12 0.02 0
15.2 0.02 0
15.28 0.02 0
15.36 0.02 0
15.44 0.02 0
15.52 0.02 0
15.6 0.02 0
15.68 0.02 0
15.76 0.02 0
15.84 0.02 0
15.92 0.02 0
16 0.02 0
16.08 0.02 0
16.16 0.02 0
16.24 0.02 0
16.32 0.02 0
16.4 0.02 0
16.48 0.02 0
16.56 0.02 0
16.64 0.02 0
16.72 0.02 0
16.8 0.02 0
16.88 0.02 0
16.96 0.02 0
17.04 0.02 0
17.12 0.02 0
17.2 0.02 0
17.28 0.02 0
17.36 0.02 0
17.44 0.02 0
17.52 0.02 0
17.6 0.02 0
17.68 0.02 0
17.76 0.02 0
17.84 0.02 0
17.92 0.02 0
18 0.02 0
18.08 0.02 0
18.16 0.02 0
18.24 0.02 0
18.32 0.02 0
18.4 0.02 0
18.48 0.02 0
18.56 0.02 0
18.64 0.02 0
18.72 0.02 0
18.8 0.02 0
18.88 0.02 0
18.96 0.02 0
19.04 0.02 0
19.12 0.02 0
19.2 0.02 0
19.28 0.02 0
19.36 0.02 0
19.44 0.02 0
19.52 0.02 0
19.6 0.02 0
19.68 0.02 0
19.76 0.02 0
19.84 0.02 0
19.92 0.02 0
20 0.02 0
20.08 0.02 0
20.16 0.02 0
20.24 0.02 0
20.32 0.02 0
20.4 0.02 0
20.48 0.02 0
20.56 0.02 0
20.64 0.02 0
20.72 0.02 0
20.8 0.02 0
20.88 0.02 0
20.96 0.02 0
21.04 0.02 0
21.12 0.02 0
21.2 0.02 0
21.28 0.02 0
21.36 0.02 0
21.44 0.02 0
21.52 0.02 0
21.6 0.02 0
21.68 0.02 0
21.76 0.02 0
21.84 0.02 0
21.92 0.02 0
22 0.02 0
22.08 0.02 0
22.16 0.02 0
22.24 0.02 0
22.32 0.02 0
22.4 0.02 0
22.48 0.02 0
22.56 0.02 0
22.64 0.02 0
22.72 0.02 0
22.8 0.02 0
22.88 0.02 0
22.96 0.02 0
23.04 0.02 0
23.12 0.02 0
23.2 0.02 0
23.28 0.02 0
23.36 0.02 0
23.44 0.02 0
23.52 0.02 0
23.6 0.02 0
23.68 0.02 0
23.76 0.02 0
23.84 0.02 0
23.92 0.02 0
24 0.02 0
24.08 0.02 0
24.16 0.02 0
24.24 0.02 0
24.32 0.02 0
24.4 0.02 0
24.48 0.02 0
24.56 0.02 0
24.64 0.02 0
24.72 0.02 0
24.8 0.02 0
24.88 0.02 0
24.96 0.02 0
25.04 0.02 0
25.12 0.02 0
25.2 0.02 0
25.28 0.02 0
25.36 0.02 0
25.44 0.02 0
25.52 0.02 0
25.6 0.02 0
25.68 0.02 0
25.76 0.02 0
25.84 0.02 0
25.92 0.02 0
26 0.02 0
26.08 0.02 0
26.16 0.02 0
26.24 0.02 0
26.32 0.02 0
26.4 0.02 0
26.48 0.02 0
26.56 0.02 0
26.64 0.02 0
26.72 0.02 0
26.8 0.02 0
26.88 0.02 0
26.96 0.02 0
27.04 0.02 0
27.12 0.02 0
27.2 0.02 0
27.28 0.02 0
27.36 0.02 0
27.44 0.02 0
27.52 0.02 0
27.6 0.02 0
27.68 0.02 0
27.76 0.02 0
27.84 0.02 0
27.92 0.02 0
28 0.02 0
28.08 0.02 0
28.16 0.02 0
28.24 0.02 0
28.32 0.02 0
28.4 0.02 0
28.48 0.02 0
28.56 0.02 0
28.64 0.02 0
28.72 0.02 0
28.8 0.02 0
28.88 0.02 0
28.96 0.02 0
29.04 0.02 0
29.12 0.02 0
29.2 0.02 0
29.28 0.02 0
29.36 0.02 0
29.44 0.02 0
29.52 0.02 0
29.6 0.02 0
29.68 0.02 0
29.76 0.02 0
29.84 0.02 0
29.92 0.02 0
30 0.02 0
30.08 0.02 0
30.16 0.02 0
30.24 0.02 0
30.32 0.02 0
30.4 0.02 0
30.48 0.02 0
30.56 0.02 0
30.64 0.02 0
30.72 0.02 0
30.8 0.02 0
30.88 0.02 0
30.96 0.02 0
31.04 0.02 0
31.12 0.02 0
31.2 0.02 0
31.28 0.02 0
31.36 0.02 0
31.44 0.02 0
31.52 0.02 0
31.6 0.02 0
31.68 0.02 0
31.76 0.02 0
31.84 0.02 0
31.92 0.02 0
0 0.04 0
0.08 0.04 0
0.16 0.04 0
0.24 0.04 0
0.32 0.04 0
0.4 0.04 0
0.48 0.04 0
0.56 0.04 0
0.64 0.04 0
0.72 0.04 0
0.8 0.04 0
0.88 0.04 0
0.96 0.04 0
1.04 0.04 0
1.12 0.04 0
1.2 0.04 0
1.28 0.04 0
1.36 0.04 0
1.44 0.04 0
1.52 0.04 0
1.6 0.04 0
1.68 0.04 0
1.76 0.04 0
1.84 0.04 0
1.92 0.04 0
2 0.04 0
2.08 0.04 0
2.16 0.04 0
2.24 0.04 0
2.32 0.04 0
2.4 0.04 0
2.48 0.04 0
2.56 0.04 0
2.64 0.04 0
2.72 0.04 0
2.8 0.04 0
2.88 0.04 0
2.96 0.04 0
3.04 0.04 0
3.12 0.04 0
3.2 0.04 0
3.28 0.04 0
3.36 0.04 0
3.44 0.04 0
3.52 0.04 0
3.6 0.04 0
3.68 0.04 0
3.76 0.04 0
3.84 0.04 0
3.92 0.04 0
4 0.04 0
4.08 0.04 0
4.16 0.04 0
4.24 0.04 0
4.32 0.04 0
4.4 0.04 0
4.48 0.04 0
4.56 0.04 0
4.64 0.04 0
4.72 0.04 0
4.8 0.04 0
4.88 0.04 0
4.96 0.04 0
5.04 0.04 0
5.12 0.04 0
5.2 0.04 0
5.28 0.04 0
5.36 0.04 0
5.44 0.04 0
5.52 0.04 0
5.6 0.04 0
5.68 0.04 0
5.76 0.04 0
5.84 0.04 0
5.92 0.04 0
6 0.04 0
6.08 0.04 0
6.16 0.04 0
6.24 0.04 0
6.32 0.04 0
6.4 0.04 0
6.48 0.04 0
6.56 0.04 0
6.64 0.04 0
6.72 0.04 0
6.8 0.04 0
6.88 0.04 0
6.96 0.04 0
7.04 0.04 0
7.12 0.04 0
7.2 0.04 0
7.28 0.04 0
7.36 0.04 0
7.44 0.04 0
7.52 0.04 0
7.6 0.04 0
7.68 0.04 0
7.76 0.04 0
7.84 0.04 0
[...]
POINT_DATA 20000

SCALARS u float 1
LOOKUP_TABLE default
0
-0.507042
-0.291844
-0.214062
-0.178907
-0.158527
-0.144957
-0.135189
-0.127783
-0.121942
-0.11719
-0.113227
-0.109852
-0.106929
-0.10436
-0.102076
-0.100026
-0.0981713
-0.0964816
-0.0949336
-0.0935084
-0.0921908
-0.0909681
-0.0898295
-0.0887659
-0.0877696
-0.086834
-0.0859535
-0.0851232
-0.0843389
-0.0835969
-0.0828936
-0.0822258
-0.0815908
-0.0809859
-0.0804088
-0.0798577
-0.0793309
-0.078827
-0.0783445
-0.0778821
-0.0774383
-0.0770117
-0.0766011
-0.0762055
-0.0758241
-0.0754566
-0.0751025
-0.0747612
-0.074432
-0.0741143
-0.073807
-0.0735095
-0.0732211
-0.0729411
-0.0726695
-0.0724061
-0.0721511
-0.0719042
-0.071665
-0.0714327
-0.0712063
-0.0709852
-0.070769
-0.0705578
-0.0703522
-0.0701524
-0.0699588
-0.0697711
-0.0695888
-0.0694112
-0.0692375
-0.069067
-0.0688997
-0.0687357
-0.0685761
-0.0684216
-0.0682729
-0.0681297
-0.067991
-0.0678555
-0.0677221
-0.0675908
-0.0674625
-0.0673394
-0.0672231
-0.0671145
-0.067013
-0.0669169
-0.0668243
-0.066734
-0.0666461
-0.0665618
-0.0664828
-0.0664102
-0.0663442
-0.0662836
-0.0662266
-0.0661717
-0.0661182
-0.0660663
-0.066017
-0.0659716
-0.0659307
-0.0658944
-0.0658621
-0.0658329
-0.065806
-0.065781
-0.065758
-0.0657374
-0.0657195
-0.0657046
-0.0656924
-0.0656825
-0.065674
-0.0656666
-0.06566
-0.0656542
-0.0656494
-0.0656461
-0.0656445
-0.0656449
-0.0656472
-0.0656511
-0.0656565
-0.0656628
-0.0656697
-0.065677
-0.0656845
-0.0656922
-0.0657001
-0.0657081
-0.0657163
-0.0657248
-0.0657335
-0.0657423
-0.0657513
-0.0657604
-0.0657695
-0.0657787
-0.0657879
-0.0657971
-0.0658063
-0.0658155
-0.0658247
-0.0658339
-0.0658432
-0.0658525
-0.0658618
-0.0658711
-0.0658805
-0.0658899
-0.0658993
-0.0659088
-0.0659183
-0.0659278
-0.0659374
-0.065947
-0.0659566
-0.0659662
-0.0659759
-0.0659856
-0.0659954
-0.0660052
-0.066015
-0.0660249
-0.0660348
-0.0660448
-0.0660548
-0.0660648
-0.0660749
-0.066085
-0.0660951
-0.0661053
-0.0661156
-0.0661259
-0.0661362
-0.0661466
-0.066157
-0.0661675
-0.066178
-0.0661886
-0.0661992
-0.0662098
-0.0662206
-0.0662313
-0.0662422
-0.066253
-0.066264
-0.0662749
-0.066286
-0.0662971
-0.0663082
-0.0663194
-0.0663307
-0.066342
-0.0663534
-0.0663648
-0.0663763
-0.0663879
-0.0663995
-0.0664112
-0.0664229
-0.0664347
-0.0664466
-0.0664585
-0.0664705
-0.0664825
-0.0664946
-0.0665068
-0.0665191
-0.0665314
-0.0665438
-0.0665562
-0.0665687
-0.0665813
-0.066594
-0.0666067
-0.0666195
-0.0666323
-0.0666453
-0.0666583
-0.0666713
-0.0666845
-0.0666977
-0.066711
-0.0667243
-0.0667378
-0.0667513
-0.0667649
-0.0667785
-0.0667922
-0.066806
-0.0668199
-0.0668339
-0.0668479
-0.066862
-0.0668762
-0.0668904
-0.0669047
-0.0669191
-0.0669336
-0.0669482
-0.0669628
-0.0669775
-0.0669923
-0.0670072
-0.0670221
-0.0670371
-0.0670522
-0.0670674
-0.0670827
-0.067098
-0.0671134
-0.0671289
-0.0671444
-0.0671601
-0.0671758
-0.0671916
-0.0672075
-0.0672234
-0.0672395
-0.0672556
-0.0672718
-0.067288
-0.0673044
-0.0673208
-0.0673373
-0.0673539
-0.0673705
-0.0673872
-0.0674041
-0.0674209
-0.0674379
-0.0674549
-0.0674721
-0.0674892
-0.0675065
-0.0675239
-0.0675413
-0.0675588
-0.0675763
-0.067594
-0.0676117
-0.0676295
-0.0676473
-0.0676653
-0.0676833
-0.0677014
-0.0677195
-0.0677377
-0.067756
-0.0677744
-0.0677929
-0.0678114
-0.0678299
-0.0678486
-0.0678673
-0.0678861
-0.067905
-0.0679239
-0.0679429
-0.0679619
-0.0679811
-0.0680003
-0.0680195
-0.0680388
-0.0680582
-0.0680777
-0.0680972
-0.0681167
-0.0681364
-0.0681561
-0.0681758
-0.0681956
-0.0682155
-0.0682354
-0.0682554
-0.0682755
-0.0682956
-0.0683157
-0.068336
-0.0683562
-0.0683766
-0.0683969
-0.0684174
-0.0684378
-0.0684584
-0.068479
-0.0684996
-0.0685203
-0.068541
-0.0685618
-0.0685826
-0.0686035
-0.0686244
-0.0686453
-0.0686663
-0.0686874
-0.0687084
-0.0687296
-0.0687507
-0.0687719
-0.0687932
-0.0688144
-0.0688357
-0.0688571
-0.0688785
-0.0688999
-0.0689213
-0.0689428
-0.0689643
-0.0689859
-0.0690074
-0.069029
-0.0690506
-0.0690723
-0.0690939
-0.0691157
-0.0691374
-0.0691591
-0.0691809
-0.0692027
-0.0692244
-0.0692463
-0.0692681
-0.06929
-0.0693118
-0.0693338
-0.0693556
-0.0693776
-0.0693994
-0.0694215
-0.0694433
-0.0694654
-0.0694872
-0.0695094
-0.0695312
-0.0695535
-0.0695751
-0.0695976
-0.0696191
-0.0696418
-0.0696632
-0.0696862
-0.0697072
-0.0697306
-0.0697514
-0.0697751
-0.0697957
-0.0698197
-0.06984
-0.0698645
-0.0698838
-0.0699097
-0.0699244
-0.0699504
-0.0699504
-0.0699504
1
0.507042
0.291844
0.214062
0.178907
0.158527
0.144957
0.135189
0.127783
0.121942
0.11719
0.113227
0.109852
0.106929
0.10436
0.102076
0.100026
0.0981713
0.0964816
0.0949336
0.0935084
0.0921908
0.0909681
0.0898295
0.0887659
0.0877696
0.086834
0.0859535
0.0851232
0.0843389
0.0835969
0.0828936
0.0822258
0.0815908
0.0809859
0.0804088
0.0798577
0.0793309
0.078827
0.0783445
0.0778821
0.0774383
0.0770117
0.0766011
0.0762055
0.0758241
0.0754566
0.0751025
0.0747612
0.074432
0.0741143
0.073807
0.0735095
0.0732211
0.0729411
0.0726695
0.0724061
0.0721511
0.0719042
0.071665
0.0714327
0.0712063
0.0709852
0.070769
0.0705578
0.0703522
0.0701524
0.0699588
0.0697711
0.0695888
0.0694112
0.0692375
0.069067
0.0688997
0.0687357
0.0685761
0.0684216
0.0682729
0.0681297
0.067991
0.0678555
0.0677221
0.0675908
0.0674625
0.0673394
0.0672231
0.0671145
0.067013
0.0669169
0.0668243
0.066734
0.0666461
0.0665618
0.0664828
0.0664102
0.0663442
0.0662836
0.0662266
0.0661717
0.0661182
0.0660663
0.066017
0.0659716
0.0659307
0.0658944
0.0658621
0.0658329
0.065806
0.065781
0.065758
0.0657374
0.0657195
0.0657046
0.0656924
0.0656825
0.065674
0.0656666
0.06566
0.0656542
0.0656494
0.0656461
0.0656445
0.0656449
0.0656472
0.0656511
0.0656565
0.0656628
0.0656697
0.065677
0.0656845
0.0656922
0.0657001
0.0657081
0.0657163
0.0657248
0.0657335
0.0657423
0.0657513
0.0657604
0.0657695
0.0657787
0.0657879
0.0657971
0.0658063
0.0658155
0.0658247
0.0658339
0.0658432
0.0658525
0.0658618
0.0658711
0.0658805
0.0658899
0.0658993
0.0659088
0.0659183
0.0659278
0.0659374
0.065947
0.0659566
0.0659662
0.0659759
0.0659856
0.0659954
0.0660052
0.066015
0.0660249
0.0660348
0.0660448
0.0660548
0.0660648
0.0660749
0.066085
0.0660951
0.0661053
0.0661156
0.0661259
0.0661362
0.0661466
0.066157
0.0661675
0.066178
0.0661886
0.0661992
0.0662098
0.0662206
0.0662313
0.0662422
0.066253
0.066264
0.0662749
0.066286
0.0662971
0.0663082
0.0663194
0.0663307
0.066342
0.0663534
0.0663648
0.0663763
0.0663879
0.0663995
0.0664112
0.0664229
0.0664347
0.0664466
0.0664585
0.0664705
0.0664825
0.0664946
0.0665068
0.0665191
0.0665314
0.0665438
0.0665562
0.0665687
0.0665813
0.066594
0.0666067
0.0666195
0.0666323
0.0666453
0.0666583
0.0666713
0.0666845
0.0666977
0.066711
0.0667243
0.0667378
0.0667513
0.0667649
0.0667785
0.0667922
0.066806
0.0668199
0.0668339
0.0668479
0.066862
0.0668762
0.0668904
0.0669047
0.0669191
0.0669336
0.0669482
0.0669628
0.0669775
0.0669923
0.0670072
0.0670221
0.0670371
0.0670522
0.0670674
0.0670827
0.067098
0.0671134
0.0671289
0.0671444
0.0671601
0.0671758
0.0671916
0.0672075
0.0672234
0.0672395
0.0672556
0.0672718
0.067288
0.0673044
0.0673208
0.0673373
0.0673539
0.0673705
0.0673872
0.0674041
0.0674209
0.0674379
0.0674549
0.0674721
0.0674892
0.0675065
0.0675239
0.0675413
0.0675588
0.0675763
0.067594
0.0676117
0.0676295
0.0676473
0.0676653
0.0676833
0.0677014
0.0677195
0.0677377
0.067756
0.0677744
0.0677929
0.0678114
0.0678299
0.0678486
0.0678673
0.0678861
0.067905
0.0679239
0.0679429
0.0679619
0.0679811
0.0680003
0.0680195
0.0680388
0.0680582
0.0680777
0.0680972
0.0681167
0.0681364
0.0681561
0.0681758
0.0681956
0.0682155
0.0682354
0.0682554
0.0682755
0.0682956
0.0683157
0.068336
0.0683562
0.0683766
0.0683969
0.0684174
0.0684378
0.0684584
0.068479
0.0684996
0.0685203
0.068541
0.0685618
0.0685826
0.0686035
0.0686244
0.0686453
0.0686663
0.0686874
0.0687084
0.0687296
0.0687507
0.0687719
0.0687932
0.0688144
0.0688357
0.0688571
0.0688785
0.0688999
0.0689213
0.0689428
0.0689643
0.0689859
0.0690074
0.069029
0.0690506
0.0690723
0.0690939
0.0691157
0.0691374
0.0691591
0.0691809
0.0692027
0.0692244
0.0692463
0.0692681
0.06929
0.0693118
0.0693338
0.0693556
0.0693776
0.0693994
0.0694215
0.0694433
0.0694654
0.0694872
0.0695094
0.0695312
0.0695535
0.0695751
0.0695976
0.0696191
0.0696418
0.0696632
0.0696862
0.0697072
0.0697306
0.0697514
0.0697751
0.0697957
0.0698197
0.06984
0.0698645
0.0698838
0.0699097
0.0699244
0.0699504
0.0699504
0.0699504
1
0.92422
0.735319
0.597376
0.511438
0.456083
0.417886
0.389948
0.368585
0.351671
0.337898
0.326415
0.316652
0.308213
0.300817
0.294259
0.288387
0.283086
0.278266
0.273859
0.269809
0.266069
0.262602
0.259378
0.25637
0.253554
0.250913
0.24843
0.24609
0.243881
0.241793
0.239814
0.237936
0.236151
0.234452
0.232832
0.231286
0.229809
0.228397
0.227046
0.22575
0.224508
0.223314
0.222166
0.221061
0.219998
0.218974
0.217987
0.217037
0.21612
0.215235
0.214379
0.21355
0.212748
0.21197
0.211216
0.210486
0.209779
0.209094
0.20843
0.207784
0.207156
0.206543
0.205945
0.205363
0.204797
0.204247
0.203714
0.203197
0.202694
0.202203
0.201724
0.201255
0.200796
0.200349
0.199915
0.199496
0.199092
0.198702
0.198324
0.197955
0.197595
0.197244
0.196907
0.196585
0.196282
0.195998
0.195731
0.195477
0.195234
0.194998
0.194773
0.19456
0.194362
0.19418
0.194014
0.193859
0.193714
0.193575
0.193441
0.193314
0.193197
0.19309
0.192995
0.192911
0.192837
0.192769
0.192708
0.192653
0.192604
0.192561
0.192526
0.192498
0.192476
0.192459
0.192446
0.192436
0.192429
0.192424
0.192423
0.192427
0.192434
0.192447
0.192464
0.192484
0.192507
0.192531
0.192557
0.192584
0.192611
0.192639
0.192667
0.192695
0.192724
0.192753
0.192782
0.192812
0.192842
0.192873
0.192903
0.192933
0.192963
0.192993
0.193023
0.193053
0.193083
0.193113
0.193143
0.193173
0.193203
0.193233
0.193263
0.193293
0.193323
0.193353
0.193383
0.193412
0.193442
0.193472
0.193502
0.193532
0.193562
0.193592
0.193622
0.193652
0.193682
0.193712
0.193742
0.193772
0.193802
0.193832
0.193862
0.193892
0.193922
0.193952
0.193982
0.194012
0.194042
0.194073
0.194103
0.194133
0.194163
0.194194
0.194224
0.194254
0.194285
0.194315
0.194346
0.194376
0.194407
0.194437
0.194468
0.194499
0.194529
0.19456
0.194591
0.194622
0.194653
0.194684
0.194715
0.194746
0.194777
0.194808
0.194839
0.19487
0.194902
0.194933
0.194964
0.194996
0.195028
0.195059
0.195091
0.195123
0.195154
0.195186
0.195218
0.19525
0.195282
0.195315
0.195347
0.195379
0.195412
0.195444
0.195477
0.195509
0.195542
0.195575
0.195608
0.195641
0.195674
0.195707
0.19574
0.195773
0.195806
0.19584
0.195873
0.195907
0.195941
0.195974
0.196008
0.196042
0.196076
0.196111
0.196145
0.196179
0.196214
0.196248
0.196283
0.196317
0.196352
0.196387
0.196422
0.196457
0.196492
0.196528
0.196563
0.196598
0.196634
0.19667
0.196705
0.196741
0.196777
0.196813
0.19685
0.196886
0.196922
0.196959
0.196995
0.197032
0.197069
0.197105
0.197142
0.19718
0.197217
0.197254
0.197291
0.197329
0.197366
0.197404
0.197442
0.19748
0.197518
0.197556
0.197594
0.197632
0.19767
0.197709
0.197747
0.197786
0.197825
0.197864
0.197903
0.197942
0.197981
0.19802
0.198059
0.198099
0.198138
0.198178
0.198218
0.198257
0.198297
0.198337
0.198377
0.198417
0.198458
0.198498
0.198538
0.198579
0.19862
0.19866
0.198701
0.198742
0.198783
0.198824
0.198865
0.198906
0.198947
0.198988
0.19903
0.199071
0.199113
0.199154
0.199196
0.199238
0.19928
0.199322
0.199363
0.199405
0.199448
0.19949
0.199532
0.199574
0.199616
0.199659
0.199701
0.199744
0.199786
0.199829
0.199872
0.199914
0.199957
0.2
0.200043
0.200086
0.200128
0.200171
0.200214
0.200258
0.200301
0.200344
0.200387
0.20043
0.200473
0.200516
0.20056
0.200603
0.200646
0.20069
0.200733
0.200776
0.20082
0.200863
0.200907
0.20095
0.200994
0.201037
0.201081
0.201124
0.201168
0.201211
0.201255
0.201298
0.201342
0.201385
0.201429
0.201472
0.201516
0.201559
0.201603
0.201646
0.20169
0.201733
0.201778
0.20182
0.201865
0.201906
0.201953
0.201994
0.202041
0.202081
0.202129
0.202169
0.202217
0.202255
0.202308
0.202337
0.202393
0.202393
0.202393
1
1.07962
0.996927
0.88345
0.788442
0.716605
0.662693
0.621432
0.589045
0.562993
0.541565
0.523591
0.508253
0.494968
0.483313
0.472974
0.463716
0.455359
0.447765
0.440822
0.434442
0.428553
0.423096
0.418021
0.413287
0.408857
0.404703
0.400798
0.397119
0.393647
0.390364
0.387254
0.384302
0.381497
0.378827
0.376282
0.373853
0.371533
0.369315
0.367192
0.365158
0.363206
0.361332
0.359531
0.357798
0.35613
0.354525
0.352979
0.351489
0.350052
0.348664
0.347322
0.346024
0.344767
0.343549
0.342369
0.341226
0.340119
0.339046
0.338006
0.336995
0.336011
0.335052
0.334118
0.33321
0.332328
0.331471
0.33064
0.329832
0.329046
0.328279
0.327531
0.3268
0.326087
0.325394
0.324721
0.324071
0.323444
0.322837
0.32225
0.32168
0.321125
0.320589
0.320074
0.319586
0.319125
0.318693
0.318285
0.317897
0.317526
0.317171
0.316832
0.316514
0.316219
0.315948
0.315697
0.315465
0.315246
0.315037
0.31484
0.314655
0.314485
0.314331
0.314195
0.314074
0.313967
0.313871
0.313784
0.313707
0.313639
0.313582
0.313535
0.313498
0.313471
0.31345
0.313435
0.313426
0.313421
0.313421
0.313427
0.31344
0.313459
0.313485
0.313516
0.313551
0.313591
0.313632
0.313675
0.313719
0.313763
0.313808
0.313854
0.3139
0.313947
0.313994
0.314042
0.31409
0.314138
0.314187
0.314235
0.314283
0.314331
0.314379
0.314427
0.314475
0.314523
0.31457
0.314618
0.314666
0.314713
0.314761
0.314808
0.314855
0.314903
0.31495
0.314997
0.315044
0.315091
0.315138
0.315185
0.315232
0.315279
0.315326
0.315373
0.31542
0.315466
0.315513
0.31556
0.315606
0.315653
0.315699
0.315746
0.315792
0.315839
0.315885
0.315932
0.315978
0.316024
0.316071
0.316117
0.316163
0.316209
0.316255
0.316302
0.316348
0.316394
0.31644
0.316486
0.316532
0.316579
0.316625
0.316671
0.316717
0.316763
0.316809
0.316855
0.316901
0.316947
0.316993
0.317039
0.317085
0.317131
0.317178
0.317224
0.31727
0.317316
0.317362
0.317408
0.317454
0.3175
0.317547
0.317593
0.317639
0.317685
0.317732
0.317778
0.317824
0.31787
0.317917
0.317963
0.31801
0.318056
0.318102
0.318149
0.318195
0.318242
0.318289
0.318335
0.318382
0.318429
0.318475
0.318522
0.318569
0.318616
0.318663
0.31871
0.318757
0.318804
0.318851
0.318898
0.318945
0.318992
0.31904
0.319087
0.319135
0.319182
0.319229
0.319277
0.319325
0.319372
0.31942
0.319468
0.319516
0.319563
0.319611
0.319659
0.319707
0.319756
0.319804
0.319852
0.3199
0.319949
0.319997
0.320046
0.320094
0.320143
0.320191
0.32024
0.320289
0.320338
0.320387
0.320436
0.320485
0.320534
0.320583
0.320633
0.320682
0.320731
0.320781
0.32083
0.32088
0.32093
0.320979
0.321029
0.321079
0.321129
0.321179
0.321229
0.321279
0.321329
0.321379
0.32143
0.32148
0.321531
0.321581
0.321632
0.321682
0.321733
0.321784
0.321835
0.321886
0.321937
0.321988
0.322039
0.32209
0.322141
0.322192
0.322243
0.322295
0.322346
0.322398
0.322449
0.322501
0.322553
0.322604
0.322656
0.322708
0.32276
0.322811
0.322863
0.322915
0.322967
0.32302
0.323072
0.323124
0.323176
0.323228
0.323281
0.323333
0.323385
0.323438
0.32349
0.323543
0.323595
0.323648
0.3237
0.323753
0.323805
0.323858
0.323911
0.323964
0.324016
0.324069
0.324122
0.324175
0.324227
0.32428
0.324333
0.324386
0.324439
0.324492
0.324545
0.324597
0.32465
0.324703
0.324756
0.324809
0.324862
0.324915
0.324968
0.325021
0.325074
0.325126
0.325179
0.325232
0.325285
0.325338
0.325391
0.325444
0.325497
0.325549
0.325602
0.325655
0.325708
0.32576
0.325813
0.325865
0.325919
0.32597
0.326024
0.326075
0.32613
0.32618
0.326235
0.326285
0.326341
0.32639
0.326447
0.326496
0.326553
0.326601
0.32666
0.326707
0.326767
0.326811
0.326877
0.326911
0.326983
0.326983
0.326983
1
1.11171
1.11423
1.05537
0.98411
0.918715
0.863424
0.817786
0.780162
0.74889
0.722588
0.700178
0.680843
0.663963
0.649068
0.635799
0.623879
0.613093
0.603271
0.594277
0.586003
0.578356
0.571263
0.56466
0.558496
0.552725
0.54731
0.542216
0.537416
0.532883
0.528595
0.524531
0.520673
0.517005
0.513513
0.510183
0.507005
0.503968
0.501064
0.498283
0.495618
0.493061
0.490605
0.488244
0.485973
0.483789
0.481686
0.47966
0.477708
0.475824
0.474005
0.472246
0.470545
0.468897
0.467301
0.465754
0.464256
0.462805
0.461398
0.460033
0.458706
0.457416
0.45616
0.454937
0.453748
0.452594
0.451472
0.450383
0.449325
0.448295
0.447291
0.446311
0.445355
0.444423
0.443517
0.442638
0.441789
0.440968
0.440176
0.439408
0.438664
0.437943
0.437247
0.436582
0.43595
0.435354
0.434794
0.434264
0.433761
0.43328
0.432822
0.432387
0.431978
0.431599
0.431249
0.430926
0.430624
0.430341
0.430073
0.42982
0.429585
0.429369
0.429175
0.429002
0.428849
0.428712
0.42859
0.42848
0.428383
0.428297
0.428225
0.428166
0.42812
0.428084
0.428058
0.428039
0.428027
0.428022
0.428025
0.428035
0.428053
0.42808
0.428114
0.428155
0.428201
0.428251
0.428303
0.428357
0.428413
0.428469
0.428525
0.428583
0.428641
0.428699
0.428759
0.428819
0.428879
0.428939
0.429
0.42906
0.42912
0.42918
0.42924
0.4293
0.429359
0.429419
0.429478
0.429537
0.429596
0.429656
0.429715
0.429773
0.429832
0.429891
0.42995
0.430008
0.430067
0.430125
0.430183
0.430242
0.4303
0.430358
0.430416
0.430473
0.430531
0.430589
0.430646
0.430704
0.430761
0.430819
0.430876
0.430933
0.43099
0.431047
0.431104
0.431161
0.431218
0.431275
0.431332
0.431388
0.431445
0.431501
0.431558
0.431614
0.431671
0.431727
0.431783
0.431839
0.431895
0.431951
0.432007
0.432063
0.432119
0.432175
0.432231
0.432287
0.432342
0.432398
0.432454
0.432509
0.432565
0.43262
0.432676
0.432731
0.432786
0.432842
0.432897
0.432952
0.433007
0.433063
0.433118
0.433173
0.433228
0.433283
0.433338
0.433393
0.433448
0.433503
0.433558
0.433613
0.433668
0.433723
0.433778
0.433833
0.433888
0.433943
0.433998
0.434052
0.434107
0.434162
0.434217
0.434272
0.434327
0.434381
0.434436
0.434491
0.434546
0.434601
0.434655
0.43471
0.434765
0.43482
0.434875
0.43493
0.434984
0.435039
0.435094
0.435149
0.435204
0.435259
0.435314
0.435368
0.435423
0.435478
0.435533
0.435588
0.435643
0.435698
0.435753
0.435808
0.435863
0.435918
0.435973
0.436029
0.436084
0.436139
0.436194
0.436249
0.436304
0.43636
0.436415
0.43647
0.436525
0.436581
0.436636
0.436692
0.436747
0.436802
0.436858
0.436913
0.436969
0.437024
0.43708
0.437135
0.437191
0.437247
0.437302
0.437358
0.437414
0.437469
0.437525
0.437581
0.437637
0.437693
0.437749
0.437804
0.43786
0.437916
0.437972
0.438028
0.438084
0.43814
0.438196
0.438252
0.438309
0.438365
0.438421
0.438477
0.438533
0.438589
0.438646
0.438702
0.438758
0.438814
0.438871
0.438927
0.438983
0.43904
0.439096
0.439153
0.439209
0.439265
0.439322
0.439378
0.439435
0.439491
0.439548
0.439604
0.439661
0.439717
0.439774
0.43983
0.439887
0.439943
0.44
0.440056
0.440113
0.440169
0.440226
0.440283
0.440339
0.440396
0.440452
0.440509
0.440565
0.440622
0.440678
0.440735
0.440791
0.440847
0.440904
0.44096
0.441017
0.441073
0.441129
0.441186
0.441242
0.441298
0.441355
0.441411
0.441467
0.441523
0.441579
0.441635
0.441691
0.441748
0.441803
0.44186
0.441915
0.441972
0.442027
0.442083
0.442139
0.442195
0.44225
0.442306
0.442361
0.442418
0.442472
0.442529
0.442583
0.442641
0.442694
0.442752
0.442805
0.442864
0.442916
0.442976
0.443027
0.443088
0.443138
0.443201
0.443249
0.443315
0.443359
0.443432
0.443466
0.443546
0.443546
0.443546
1
1.09585
1.14353
1.13382
1.09744
1.05302
1.00904
0.968784
0.933133
0.901954
0.874743
0.85092
0.829942
0.811342
0.794732
0.779796
0.766277
0.75397
0.742706
0.732349
0.722785
0.71392
0.705674
0.697981
0.690782
0.68403
0.677683
0.671704
0.666062
0.660729
0.655677
0.650885
0.646331
0.641996
0.637866
0.633925
0.630161
0.626562
0.623118
0.619817
0.616652
0.613613
0.610693
0.607886
0.605185
0.602586
0.600083
0.597672
0.595347
0.593104
0.590936
0.58884
0.586812
0.584847
0.582944
0.581099
0.579312
0.57758
0.5759
0.57427
0.572685
0.571144
0.569644
0.568185
0.566766
0.565388
0.56405
0.56275
0.561486
0.560255
0.559056
0.557886
0.556744
0.555632
0.55455
0.553501
0.552486
0.551506
0.550557
0.549639
0.54875
0.547889
0.54706
0.546267
0.545515
0.544804
0.544134
0.543501
0.542899
0.542325
0.541778
0.541259
0.540772
0.540319
0.5399
0.539512
0.53915
0.538809
0.538487
0.538184
0.537902
0.537645
0.537412
0.537205
0.53702
0.536855
0.536707
0.536574
0.536455
0.536351
0.536261
0.536187
0.536127
0.53608
0.536043
0.536016
0.535998
0.535987
0.535986