# vtk DataFile Version 2.0
FlowField
ASCII
DATASET STRUCTURED_GRID
DIMENSIONS 400 1 50
POINTS 20000 float
0 0 0
0.08 0 0
0.16 0 0
0.24 0 0
0.32 0 0
0.4 0 0
0.48 0 0
0.56 0 0
0.64 0 0
0.72 0 0
0.8 0 0
0.88 0 0
0.96 0 0
1.04 0 0
1.12 0 0
1.2 0 0
1.28 0 0
1.36 0 0
1.44 0 0
1.52 0 0
1.6 0 0
1.68 0 0
1.76 0 0
1.84 0 0
1.92 0 0
2 0 0
2.08 0 0
2.16 0 0
2.24 0 0
2.32 0 0
2.4 0 0
2.48 0 0
2.56 0 0
2.64 0 0
2.72 0 0
2.8 0 0
2.88 0 0
2.96 0 0
3.04 0 0
3.12 0 0
3.2 0 0
3.28 0 0
3.36 0 0
3.44 0 0
3.52 0 0
3.6 0 0
3.68 0 0
3.76 0 0
3.84 0 0
3.92 0 0
4 0 0
4.08 0 0
4.16 0 0
4.24 0 0
4.32 0 0
4.4 0 0
4.48 0 0
4.56 0 0
4.64 0 0
4.72 0 0
4.8 0 0
4.88 0 0
4.96 0 0
5.04 0 0
5.12 0 0
5.2 0 0
5.28 0 0
5.36 0 0
5.44 0 0
5.52 0 0
5.6 0 0
5.68 0 0
5.76 0 0
5.84 0 0
5.92 0 0
6 0 0
6.08 0 0
6.16 0 0
6.24 0 0
6.32 0 0
6.4 0 0
6.48 0 0
6.56 0 0
6.64 0 0
6.72 0 0
6.8 0 0
6.88 0 0
6.96 0 0
7.04 0 0
7.12 0 0
7.2 0 0
7.28 0 0
7.36 0 0
7.44 0 0
7.52 0 0
7.6 0 0
7.68 0 0
7.76 0 0
7.84 0 0
7.92 0 0
8 0 0
8.08 0 0
8.16 0 0
8.24 0 0
8.32 0 0
8.4 0 0
8.48 0 0
8.56 0 0
8.64 0 0
8.72 0 0
8.8 0 0
8.88 0 0
8.96 0 0
9.04 0 0
9.12 0 0
9.2 0 0
9.28 0 0
9.36 0 0
9.44 0 0
9.52 0 0
9.6 0 0
9.68 0 0
9.76 0 0
9.84 0 0
9.92 0 0
10 0 0
10.08 0 0
10.16 0 0
10.24 0 0
10.32 0 0
10.4 0 0
10.48 0 0
10.56 0 0
10.64 0 0
10.72 0 0
10.8 0 0
10.88 0 0
10.96 0 0
11.04 0 0
11.12 0 0
11.2 0 0
11.28 0 0
11.36 0 0
11.44 0 0
11.52 0 0
11.6 0 0
11.68 0 0
11.76 0 0
11.84 0 0
11.92 0 0
12 0 0
12.08 0 0
12.16 0 0
12.24 0 0
12.32 0 0
12.4 0 0
12.48 0 0
12.56 0 0
12.64 0 0
12.72 0 0
12.8 0 0
12.88 0 0
12.96 0 0
13.04 0 0
13.12 0 0
13.2 0 0
13.28 0 0
13.36 0 0
13.44 0 0
13.52 0 0
13.6 0 0
13.68 0 0
13.76 0 0
13.84 0 0
13.92 0 0
14 0 0
14.08 0 0
14.16 0 0
14.24 0 0
14.32 0 0
14.4 0 0
14.48 0 0
14.56 0 0
14.64 0 0
14.72 0 0
14.8 0 0
14.88 0 0
14.96 0 0
15.04 0 0
15.12 0 0
15.2 0 0
15.28 0 0
15.36 0 0
15.44 0 0
15.52 0 0
15.6 0 0
15.68 0 0
15.76 0 0
15.84 0 0
15.92 0 0
16 0 0
16.08 0 0
16.16 0 0
16.24 0 0
16.32 0 0
16.4 0 0
16.48 0 0
16.56 0 0
16.64 0 0
16.72 0 0
16.8 0 0
16.88 0 0
16.96 0 0
17.04 0 0
17.12 0 0
17.2 0 0
17.28 0 0
17.36 0 0
17.44 0 0
17.52 0 0
17.6 0 0
17.68 0 0
17.76 0 0
17.84 0 0
17.92 0 0
18 0 0
18.08 0 0
18.16 0 0
18.24 0 0
18.32 0 0
18.4 0 0
18.48 0 0
18.56 0 0
18.64 0 0
18.72 0 0
18.8 0 0
18.88 0 0
18.96 0 0
19.04 0 0
19.12 0 0
19.2 0 0
19.28 0 0
19.36 0 0
19.44 0 0
19.52 0 0
19.6 0 0
19.68 0 0
19.76 0 0
19.84 0 0
19.92 0 0
20 0 0
20.08 0 0
20.16 0 0
20.24 0 0
20.32 0 0
20.4 0 0
20.48 0 0
20.56 0 0
20.64 0 0
20.72 0 0
20.8 0 0
20.88 0 0
20.96 0 0
21.04 0 0
21.12 0 0
21.2 0 0
21.28 0 0
21.36 0 0
21.44 0 0
21.52 0 0
21.6 0 0
21.68 0 0
21.76 0 0
21.84 0 0
21.92 0 0
22 0 0
22.08 0 0
22.16 0 0
22.24 0 0
22.32 0 0
22.4 0 0
22.48 0 0
22.56 0 0
22.64 0 0
22.72 0 0
22.8 0 0
22.88 0 0
22.96 0 0
23.04 0 0
23.12 0 0
23.2 0 0
23.28 0 0
23.36 0 0
23.44 0 0
23.52 0 0
23.6 0 0
23.68 0 0
23.76 0 0
23.84 0 0
23.92 0 0
24 0 0
24.08 0 0
24.16 0 0
24.24 0 0
24.32 0 0
24.4 0 0
24.48 0 0
24.56 0 0
24.64 0 0
24.72 0 0
24.8 0 0
24.88 0 0
24.96 0 0
25.04 0 0
25.12 0 0
25.2 0 0
25.28 0 0
25.36 0 0
25.44 0 0
25.52 0 0
25.6 0 0
25.68 0 0
25.76 0 0
25.84 0 0
25.92 0 0
26 0 0
26.08 0 0
26.16 0 0
26.24 0 0
26.32 0 0
26.4 0 0
26.48 0 0
26.56 0 0
26.64 0 0
26.72 0 0
26.8 0 0
26.88 0 0
26.96 0 0
27.04 0 0
27.12 0 0
27.2 0 0
27.28 0 0
27.36 0 0
27.44 0 0
27.52 0 0
27.6 0 0
27.68 0 0
27.76 0 0
27.84 0 0
27.92 0 0
28 0 0
28.08 0 0
28.16 0 0
28.24 0 0
28.32 0 0
28.4 0 0
28.48 0 0
28.56 0 0
28.64 0 0
28.72 0 0
28.8 0 0
28.88 0 0
28.96 0 0
29.04 0 0
29.12 0 0
29.2 0 0
29.28 0 0
29.36 0 0
29.44 0 0
29.52 0 0
29.6 0 0
29.68 0 0
29.76 0 0
29.84 0 0
29.92 0 0
30 0 0
30.08 0 0
30.16 0 0
30.24 0 0
30.32 0 0
30.4 0 0
30.48 0 0
30.56 0 0
30.64 0 0
30.72 0 0
30.8 0 0
30.88 0 0
30.96 0 0
31.04 0 0
31.12 0 0
31.2 0 0
31.28 0 0
31.36 0 0
31.44 0 0
31.52 0 0
31.6 0 0
31.68 0 0
31.76 0 0
31.84 0 0
31.92 0 0
0 0.02 0
0.08 0.02 0
0.16 0.02 0
0.24 0.02 0
0.32 0.02 0
0.4 0.02 0
0.48 0.02 0
0.56 0.02 0
0.64 0.02 0
0.72 0.02 0
0.8 0.02 0
0.88 0.02 0
0.96 0.02 0
1.04 0.02 0
1.12 0.02 0
1.2 0.02 0
1.28 0.02 0
1.36 0.02 0
1.44 0.02 0
1.52 0.02 0
1.6 0.02 0
1.68 0.02 0
1.76 0.02 0
1.84 0.02 0
1.92 0.02 0
2 0.02 0
2.08 0.02 0
2.16 0.02 0
2.24 0.02 0
2.32 0.02 0
2.4 0.02 0
2.48 0.02 0
2.56 0.02 0
2.64 0.02 0
2.72 0.02 0
2.8 0.02 0
2.88 0.02 0
2.96 0.02 0
3.04 0.02 0
3.12 0.02 0
3.2 0.02 0
3.28 0.02 0
3.36 0.02 0
3.44 0.02 0
3.52 0.02 0
3.6 0.02 0
3.68 0.02 0
3.76 0.02 0
3.84 0.02 0
3.92 0.02 0
4 0.02 0
4.08 0.02 0
4.16 0.02 0
4.24 0.02 0
4.32 0.02 0
4.4 0.02 0
4.48 0.02 0
4.56 0.02 0
4.64 0.02 0
4.72 0.02 0
4.8 0.02 0
4.88 0.02 0
4.96 0.02 0
5.04 0.02 0
5.12 0.02 0
5.2 0.02 0
5.28 0.02 0
5.36 0.02 0
5.44 0.02 0
5.52 0.02 0
5.6 0.02 0
5.68 0.02 0
5.76 0.02 0
5.84 0.02 0
5.92 0.02 0
6 0.02 0
6.08 0.02 0
6.16 0.02 0
6.24 0.02 0
6.32 0.02 0
6.4 0.02 0
6.48 0.02 0
6.56 0.02 0
6.64 0.02 0
6.72 0.02 0
6.8 0.02 0
6.88 0.02 0
6.96 0.02 0
7.04 0.02 0
7.12 0.02 0
7.2 0.02 0
7.28 0.02 0
7.36 0.02 0
7.44 0.02 0
7.52 0.02 0
7.6 0.02 0
7.68 0.02 0
7.76 0.02 0
7.84 0.02 0
7.92 0.02 0
8 0.02 0
8.08 0.02 0
8.16 0.02 0
8.24 0.02 0
8.32 0.02 0
8.4 0.02 0
8.48 0.02 0
8.56 0.02 0
8.64 0.02 0
8.72 0.02 0
8.8 0.02 0
8.88 0.02 0
8.96 0.02 0
9.04 0.02 0
9.12 0.02 0
9.2 0.02 0
9.28 0.02 0
9.36 0.02 0
9.44 0.02 0
9.52 0.02 0
9.6 0.02 0
9.68 0.02 0
9.76 0.02 0
9.84 0.02 0
9.92 0.02 0
10 0.02 0
10.08 0.02 0
10.16 0.02 0
10.24 0.02 0
10.32 0.02 0
10.4 0.02 0
10.48 0.02 0
10.56 0.02 0
10.64 0.02 0
10.72 0.02 0
10.8 0.02 0
10.88 0.02 0
10.96 0.02 0
11.04 0.02 0
11.12 0.02 0
11.2 0.02 0
11.28 0.02 0
11.36 0.02 0
11.44 0.02 0
11.52 0.02 0
11.6 0.02 0
11.68 0.02 0
11.76 0.02 0
11.84 0.02 0
11.92 0.02 0
12 0.02 0
12.08 0.02 0
12.16 0.02 0
12.24 0.02 0
12.32 0.02 0
12.4 0.02 0
12.48 0.02 0
12.56 0.02 0
12.64 0.02 0
12.72 0.02 0
12.8 0.02 0
12.88 0.02 0
12.96 0.02 0
13.04 0.02 0
13.12 0.02 0
13.2 0.02 0
13.28 0.02 0
13.36 0.02 0
13.44 0.02 0
13.52 0.02 0
13.6 0.02 0
13.68 0.02 0
13.76 0.02 0
13.84 0.02 0
13.92 0.02 0
14 0.02 0
14.08 0.02 0
14.16 0.02 0
14.24 0.02 0
14.32 0.02 0
14.4 0.02 0
14.48 0.02 0
14.56 0.02 0
14.64 0.02 0
14.72 0.02 0
14.8 0.02 0
14.88 0.02 0
14.96 0.02 0
15.04 0.02 0
15.12 0.02 0
15.2 0.02 0
15.28 0.02 0
15.36 0.02 0
15.44 0.02 0
15.52 0.02 0
15.6 0.02 0
15.68 0.02 0
15.76 0.02 0
15.84 0.02 0
15.92 0.02 0
16 0.02 0
16.08 0.02 0
16.16 0.02 0
16.24 0.02 0
16.32 0.02 0
16.4 0.02 0
16.48 0.02 0
16.56 0.02 0
16.64 0.02 0
16.72 0.02 0
16.8 0.02 0
16.88 0.02 0
16.96 0.02 0
17.04 0.02 0
17.12 0.02 0
17.2 0.02 0
17.28 0.02 0
17.36 0.02 0
17.44 0.02 0
17.52 0.02 0
17.6 0.02 0
17.68 0.02 0
17.76 0.02 0
17.84 0.02 0
17.92 0.02 0
18 0.02 0
18.08 0.02 0
18.16 0.02 0
18.24 0.02 0
18.32 0.02 0
18.4 0.02 0
18.48 0.02 0
18.56 0.02 0
18.64 0.02 0
18.72 0.02 0
18.8 0.02 0
18.88 0.02 0
18.96 0.02 0
19.04 0.02 0
19.12 0.02 0
19.2 0.02 0
19.28 0.02 0
19.36 0.02 0
19.44 0.02 0
19.52 0.02 0
19.6 0.02 0
19.68 0.02 0
19.76 0.02 0
19.84 0.02 0
19.92 0.02 0
20 0.02 0
20.08 0.02 0
20.16 0.02 0
20.24 0.02 0
20.32 0.02 0
20.4 0.02 0
20.48 0.02 0
20.56 0.02 0
20.64 0.02 0
20.72 0.02 0
20.8 0.02 0
20.88 0.02 0
20.96 0.02 0
21.04 0.02 0
21.12 0.02 0
21.2 0.02 0
21.28 0.02 0
21.36 0.02 0
21.44 0.02 0
21.52 0.02 0
21.6 0.02 0
21.68 0.02 0
21.76 0.02 0
21.84 0.02 0
21.92 0.02 0
22 0.02 0
22.08 0.02 0
22.16 0.02 0
22.24 0.02 0
22.32 0.02 0
22.4 0.02 0
22.48 0.02 0
22.56 0.02 0
22.64 0.02 0
22.72 0.02 0
22.8 0.02 0
22.88 0.02 0
22.96 0.02 0
23.04 0.02 0
23.12 0.02 0
23.2 0.02 0
23.28 0.02 0
23.36 0.02 0
23.44 0.02 0
23.52 0.02 0
23.6 0.02 0
23.68 0.02 0
23.76 0.02 0
23.84 0.02 0
23.92 0.02 0
24 0.02 0
24.08 0.02 0
24.16 0.02 0
24.24 0.02 0
24.32 0.02 0
24.4 0.02 0
24.48 0.02 0
24.56 0.02 0
24.64 0.02 0
24.72 0.02 0
24.8 0.02 0
24.88 0.02 0
24.96 0.02 0
25.04 0.02 0
25.12 0.02 0
25.2 0.02 0
25.28 0.02 0
25.36 0.02 0
25.44 0.02 0
25.52 0.02 0
25.6 0.02 0
25.68 0.02 0
25.76 0.02 0
25.84 0.02 0
25.92 0.02 0
26 0.02 0
26.08 0.02 0
26.16 0.02 0
26.24 0.02 0
26.32 0.02 0
26.4 0.02 0
26.48 0.02 0
26.56 0.02 0
26.64 0.02 0
26.72 0.02 0
26.8 0.02 0
26.88 0.02 0
26.96 0.02 0
27.04 0.02 0
27.12 0.02 0
27.2 0.02 0
27.28 0.02 0
27.36 0.02 0
27.44 0.02 0
27.52 0.02 0
27.6 0.02 0
27.68 0.02 0
27.76 0.02 0
27.84 0.02 0
27.92 0.02 0
28 0.02 0
28.08 0.02 0
28.16 0.02 0
28.24 0.02 0
28.32 0.02 0
28.4 0.02 0
28.48 0.02 0
28.56 0.02 0
28.64 0.02 0
28.72 0.02 0
28.8 0.02 0
28.88 0.02 0
28.96 0.02 0
29.04 0.02 0
29.12 0.02 0
29.2 0.02 0
29.28 0.02 0
29.36 0.02 0
29.44 0.02 0
29.52 0.02 0
29.6 0.02 0
29.68 0.02 0
29.76 0.02 0
29.84 0.02 0
29.92 0.02 0
30 0.02 0
30.08 0.02 0
30.16 0.02 0
30.24 0.02 0
30.32 0.02 0
30.4 0.02 0
30.48 0.02 0
30.56 0.02 0
30.64 0.02 0
30.72 0.02 0
30.8 0.02 0
30.88 0.02 0
30.96 0.02 0
31.04 0.02 0
31.12 0.02 0
31.2 0.02 0
31.28 0.02 0
31.36 0.02 0
31.44 0.02 0
31.52 0.02 0
31.6 0.02 0
31.68 0.02 0
31.76 0.02 0
31.84 0.02 0
31.92 0.02 0
0 0.04 0
0.08 0.04 0
0.16 0.04 0
0.24 0.04 0
0.32 0.04 0
0.4 0.04 0
0.48 0.04 0
0.56 0.04 0
0.64 0.04 0
0.72 0.04 0
0.8 0.04 0
0.88 0.04 0
0.96 0.04 0
1.04 0.04 0
1.12 0.04 0
1.2 0.04 0
1.28 0.04 0
1.36 0.04 0
1.44 0.04 0
1.52 0.04 0
1.6 0.04 0
1.68 0.04 0
1.76 0.04 0
1.84 0.04 0
1.92 0.04 0
2 0.04 0
2.08 0.04 0
2.16 0.04 0
2.24 0.04 0
2.32 0.04 0
2.4 0.04 0
2.48 0.04 0
2.56 0.04 0
2.64 0.04 0
2.72 0.04 0
2.8 0.04 0
2.88 0.04 0
2.96 0.04 0
3.04 0.04 0
3.12 0.04 0
3.2 0.04 0
3.28 0.04 0
3.36 0.04 0
3.44 0.04 0
3.52 0.04 0
3.6 0.04 0
3.68 0.04 0
3.76 0.04 0
3.84 0.04 0
3.92 0.04 0
4 0.04 0
4.08 0.04 0
4.16 0.04 0
4.24 0.04 0
4.32 0.04 0
4.4 0.04 0
4.48 0.04 0
4.56 0.04 0
4.64 0.04 0
4.72 0.04 0
4.8 0.04 0
4.88 0.04 0
4.96 0.04 0
5.04 0.04 0
5.12 0.04 0
5.2 0.04 0
5.28 0.04 0
5.36 0.04 0
5.44 0.04 0
5.52 0.04 0
5.6 0.04 0
5.68 0.04 0
5.76 0.04 0
5.84 0.04 0
5.92 0.04 0
6 0.04 0
6.08 0.04 0
6.16 0.04 0
6.24 0.04 0
6.32 0.04 0
6.4 0.04 0
6.48 0.04 0
6.56 0.04 0
6.64 0.04 0
6.72 0.04 0
6.8 0.04 0
6.88 0.04 0
6.96 0.04 0
7.04 0.04 0
7.12 0.04 0
7.2 0.04 0
7.28 0.04 0
7.36 0.04 0
7.44 0.04 0
7.52 0.04 0
7.6 0.04 0
7.68 0.04 0
7.76 0.04 0
7.84 0.04 0
[...]
POINT_DATA 20000

SCALARS u float 1
LOOKUP_TABLE default
0
-0.50709
-0.29192
-0.214162
-0.179027
-0.158666
-0.145112
-0.135361
-0.127969
-0.122142
-0.117403
-0.113452
-0.110089
-0.107176
-0.104618
-0.102345
-0.100305
-0.0984603
-0.0967805
-0.0952421
-0.0938261
-0.0925172
-0.0913027
-0.090172
-0.0891162
-0.0881275
-0.0871995
-0.0863264
-0.0855031
-0.0847254
-0.0839894
-0.0832917
-0.0826292
-0.0819992
-0.0813992
-0.0808272
-0.080281
-0.079759
-0.0792595
-0.078781
-0.0783222
-0.0778818
-0.0774588
-0.0770521
-0.0766607
-0.0762838
-0.0759206
-0.0755704
-0.0752324
-0.074906
-0.0745906
-0.0742857
-0.0739908
-0.0737054
-0.073429
-0.0731612
-0.0729016
-0.0726499
-0.0724057
-0.0721687
-0.0719386
-0.0717152
-0.0714981
-0.071287
-0.0710819
-0.0708823
-0.0706882
-0.0704993
-0.0703154
-0.0701364
-0.069962
-0.0697922
-0.0696267
-0.0694654
-0.0693082
-0.0691549
-0.0690054
-0.0688596
-0.0687174
-0.0685787
-0.0684433
-0.0683112
-0.0681822
-0.0680563
-0.0679334
-0.0678134
-0.0676961
-0.0675816
-0.0674698
-0.0673606
-0.0672538
-0.0671495
-0.0670476
-0.066948
-0.0668507
-0.0667556
-0.0666626
-0.0665717
-0.0664828
-0.066396
-0.066311
-0.066228
-0.0661468
-0.0660674
-0.0659897
-0.0659138
-0.0658396
-0.0657669
-0.0656959
-0.0656264
-0.0655585
-0.065492
-0.065427
-0.0653634
-0.0653012
-0.0652404
-0.0651809
-0.0651226
-0.0650657
-0.06501
-0.0649555
-0.0649021
-0.06485
-0.0647989
-0.064749
-0.0647001
-0.0646523
-0.0646056
-0.0645598
-0.0645151
-0.0644713
-0.0644285
-0.0643866
-0.0643456
-0.0643054
-0.0642662
-0.0642278
-0.0641902
-0.0641535
-0.0641175
-0.0640823
-0.0640479
-0.0640142
-0.0639813
-0.0639491
-0.0639175
-0.0638867
-0.0638565
-0.063827
-0.0637981
-0.0637698
-0.0637422
-0.0637151
-0.0636887
-0.0636628
-0.0636374
-0.0636126
-0.0635884
-0.0635647
-0.0635415
-0.0635188
-0.0634965
-0.0634748
-0.0634535
-0.0634327
-0.0634124
-0.0633925
-0.063373
-0.0633539
-0.0633353
-0.063317
-0.0632992
-0.0632817
-0.0632646
-0.0632479
-0.0632315
-0.0632155
-0.0631999
-0.0631845
-0.0631695
-0.0631549
-0.0631405
-0.0631265
-0.0631127
-0.0630993
-0.0630861
-0.0630733
-0.0630607
-0.0630483
-0.0630363
-0.0630245
-0.0630129
-0.0630016
-0.0629906
-0.0629798
-0.0629692
-0.0629588
-0.0629487
-0.0629387
-0.062929
-0.0629195
-0.0629102
-0.0629012
-0.0628923
-0.0628835
-0.062875
-0.0628667
-0.0628585
-0.0628505
-0.0628427
-0.0628351
-0.0628276
-0.0628203
-0.0628131
-0.0628061
-0.0627992
-0.0627925
-0.0627859
-0.0627795
-0.0627732
-0.062767
-0.062761
-0.0627551
-0.0627493
-0.0627437
-0.0627381
-0.0627327
-0.0627274
-0.0627222
-0.0627172
-0.0627122
-0.0627073
-0.0627026
-0.0626979
-0.0626934
-0.0626889
-0.0626845
-0.0626803
-0.0626761
-0.062672
-0.062668
-0.0626641
-0.0626602
-0.0626565
-0.0626528
-0.0626492
-0.0626457
-0.0626422
-0.0626389
-0.0626356
-0.0626323
-0.0626292
-0.0626261
-0.0626231
-0.0626201
-0.0626172
-0.0626144
-0.0626116
-0.0626089
-0.0626063
-0.0626037
-0.0626012
-0.0625987
-0.0625963
-0.062594
-0.0625917
-0.0625894
-0.0625872
-0.0625851
-0.062583
-0.062581
-0.062579
-0.0625771
-0.0625753
-0.0625734
-0.0625717
-0.06257
-0.0625683
-0.0625667
-0.0625652
-0.0625636
-0.0625622
-0.0625608
-0.0625594
-0.0625581
-0.0625569
-0.0625557
-0.0625545
-0.0625534
-0.0625523
-0.0625513
-0.0625503
-0.0625494
-0.0625485
-0.0625477
-0.0625469
-0.0625462
-0.0625454
-0.0625448
-0.0625441
-0.0625436
-0.062543
-0.0625425
-0.062542
-0.0625416
-0.0625412
-0.0625408
-0.0625405
-0.0625402
-0.0625399
-0.0625397
-0.0625394
-0.0625393
-0.0625391
-0.062539
-0.0625388
-0.0625388
-0.0625387
-0.0625387
-0.0625386
-0.0625386
-0.0625386
-0.0625387
-0.0625387
-0.0625388
-0.0625389
-0.062539
-0.0625391
-0.0625392
-0.0625393
-0.0625394
-0.0625396
-0.0625397
-0.0625399
-0.0625401
-0.0625402
-0.0625404
-0.0625406
-0.0625408
-0.062541
-0.0625412
-0.0625414
-0.0625416
-0.0625419
-0.0625421
-0.0625423
-0.0625425
-0.0625427
-0.062543
-0.0625432
-0.0625434
-0.0625436
-0.0625439
-0.0625441
-0.0625443
-0.0625446
-0.0625448
-0.062545
-0.0625453
-0.0625455
-0.0625457
-0.062546
-0.0625462
-0.0625465
-0.0625467
-0.0625469
-0.0625472
-0.0625474
-0.0625476
-0.0625479
-0.0625481
-0.0625484
-0.0625486
-0.0625488
-0.0625491
-0.0625493
-0.0625496
-0.0625498
-0.06255
-0.0625503
-0.0625505
-0.0625508
-0.062551
-0.0625513
-0.0625515
-0.0625518
-0.062552
-0.0625523
-0.0625526
-0.0625528
-0.0625531
-0.0625534
-0.0625536
-0.0625539
-0.0625542
-0.0625544
-0.0625547
-0.0625546
-0.0625546
-0.0625546
1
0.50709
0.29192
0.214162
0.179027
0.158666
0.145112
0.135361
0.127969
0.122142
0.117403
0.113452
0.110089
0.107176
0.104618
0.102345
0.100305
0.0984603
0.0967805
0.0952421
0.0938261
0.0925172
0.0913027
0.090172
0.0891162
0.0881275
0.0871995
0.0863264
0.0855031
0.0847254
0.0839894
0.0832917
0.0826292
0.0819992
0.0813992
0.0808272
0.080281
0.079759
0.0792595
0.078781
0.0783222
0.0778818
0.0774588
0.0770521
0.0766607
0.0762838
0.0759206
0.0755704
0.0752324
0.074906
0.0745906
0.0742857
0.0739908
0.0737054
0.073429
0.0731612
0.0729016
0.0726499
0.0724057
0.0721687
0.0719386
0.0717152
0.0714981
0.071287
0.0710819
0.0708823
0.0706882
0.0704993
0.0703154
0.0701364
0.069962
0.0697922
0.0696267
0.0694654
0.0693082
0.0691549
0.0690054
0.0688596
0.0687174
0.0685787
0.0684433
0.0683112
0.0681822
0.0680563
0.0679334
0.0678134
0.0676961
0.0675816
0.0674698
0.0673606
0.0672538
0.0671495
0.0670476
0.066948
0.0668507
0.0667556
0.0666626
0.0665717
0.0664828
0.066396
0.066311
0.066228
0.0661468
0.0660674
0.0659897
0.0659138
0.0658396
0.0657669
0.0656959
0.0656264
0.0655585
0.065492
0.065427
0.0653634
0.0653012
0.0652404
0.0651809
0.0651226
0.0650657
0.06501
0.0649555
0.0649021
0.06485
0.0647989
0.064749
0.0647001
0.0646523
0.0646056
0.0645598
0.0645151
0.0644713
0.0644285
0.0643866
0.0643456
0.0643054
0.0642662
0.0642278
0.0641902
0.0641535
0.0641175
0.0640823
0.0640479
0.0640142
0.0639813
0.0639491
0.0639175
0.0638867
0.0638565
0.063827
0.0637981
0.0637698
0.0637422
0.0637151
0.0636887
0.0636628
0.0636374
0.0636126
0.0635884
0.0635647
0.0635415
0.0635188
0.0634965
0.0634748
0.0634535
0.0634327
0.0634124
0.0633925
0.063373
0.0633539
0.0633353
0.063317
0.0632992
0.0632817
0.0632646
0.0632479
0.0632315
0.0632155
0.0631999
0.0631845
0.0631695
0.0631549
0.0631405
0.0631265
0.0631127
0.0630993
0.0630861
0.0630733
0.0630607
0.0630483
0.0630363
0.0630245
0.0630129
0.0630016
0.0629906
0.0629798
0.0629692
0.0629588
0.0629487
0.0629387
0.062929
0.0629195
0.0629102
0.0629012
0.0628923
0.0628835
0.062875
0.0628667
0.0628585
0.0628505
0.0628427
0.0628351
0.0628276
0.0628203
0.0628131
0.0628061
0.0627992
0.0627925
0.0627859
0.0627795
0.0627732
0.062767
0.062761
0.0627551
0.0627493
0.0627437
0.0627381
0.0627327
0.0627274
0.0627222
0.0627172
0.0627122
0.0627073
0.0627026
0.0626979
0.0626934
0.0626889
0.0626845
0.0626803
0.0626761
0.062672
0.062668
0.0626641
0.0626602
0.0626565
0.0626528
0.0626492
0.0626457
0.0626422
0.0626389
0.0626356
0.0626323
0.0626292
0.0626261
0.0626231
0.0626201
0.0626172
0.0626144
0.0626116
0.0626089
0.0626063
0.0626037
0.0626012
0.0625987
0.0625963
0.062594
0.0625917
0.0625894
0.0625872
0.0625851
0.062583
0.062581
0.062579
0.0625771
0.0625753
0.0625734
0.0625717
0.06257
0.0625683
0.0625667
0.0625652
0.0625636
0.0625622
0.0625608
0.0625594
0.0625581
0.0625569
0.0625557
0.0625545
0.0625534
0.0625523
0.0625513
0.0625503
0.0625494
0.0625485
0.0625477
0.0625469
0.0625462
0.0625454
0.0625448
0.0625441
0.0625436
0.062543
0.0625425
0.062542
0.0625416
0.0625412
0.0625408
0.0625405
0.0625402
0.0625399
0.0625397
0.0625394
0.0625393
0.0625391
0.062539
0.0625388
0.0625388
0.0625387
0.0625387
0.0625386
0.0625386
0.0625386
0.0625387
0.0625387
0.0625388
0.0625389
0.062539
0.0625391
0.0625392
0.0625393
0.0625394
0.0625396
0.0625397
0.0625399
0.0625401
0.0625402
0.0625404
0.0625406
0.0625408
0.062541
0.0625412
0.0625414
0.0625416
0.0625419
0.0625421
0.0625423
0.0625425
0.0625427
0.062543
0.0625432
0.0625434
0.0625436
0.0625439
0.0625441
0.0625443
0.0625446
0.0625448
0.062545
0.0625453
0.0625455
0.0625457
0.062546
0.0625462
0.0625465
0.0625467
0.0625469
0.0625472
0.0625474
0.0625476
0.0625479
0.0625481
0.0625484
0.0625486
0.0625488
0.0625491
0.0625493
0.0625496
0.0625498
0.06255
0.0625503
0.0625505
0.0625508
0.062551
0.0625513
0.0625515
0.0625518
0.062552
0.0625523
0.0625526
0.0625528
0.0625531
0.0625534
0.0625536
0.0625539
0.0625542
0.0625544
0.0625547
0.0625546
0.0625546
0.0625546
1
0.924297
0.735447
0.597551
0.511658
0.456344
0.418184
0.390281
0.36895
0.352066
0.338319
0.326861
0.317121
0.308705
0.30133
0.294794
0.288942
0.283662
0.278862
0.274474
0.27044
0.266717
0.263266
0.260056
0.257062
0.25426
0.251631
0.24916
0.246831
0.244631
0.242551
0.24058
0.238709
0.23693
0.235237
0.233623
0.232083
0.230611
0.229203
0.227855
0.226562
0.225322
0.224131
0.222986
0.221884
0.220824
0.219802
0.218817
0.217867
0.216949
0.216063
0.215206
0.214377
0.213576
0.212799
0.212048
0.211319
0.210612
0.209927
0.209262
0.208617
0.20799
0.207382
0.20679
0.206215
0.205656
0.205112
0.204583
0.204068
0.203566
0.203078
0.202603
0.202139
0.201688
0.201248
0.200819
0.200401
0.199994
0.199596
0.199208
0.19883
0.19846
0.1981
0.197748
0.197405
0.197069
0.196742
0.196422
0.19611
0.195805
0.195507
0.195216
0.194932
0.194654
0.194382
0.194117
0.193858
0.193604
0.193356
0.193114
0.192877
0.192646
0.19242
0.192198
0.191982
0.19177
0.191564
0.191361
0.191164
0.19097
0.190781
0.190596
0.190415
0.190238
0.190065
0.189895
0.18973
0.189568
0.189409
0.189254
0.189103
0.188954
0.188809
0.188667
0.188528
0.188393
0.18826
0.18813
0.188003
0.187878
0.187756
0.187637
0.187521
0.187407
0.187296
0.187187
0.18708
0.186976
0.186873
0.186774
0.186676
0.18658
0.186487
0.186395
0.186306
0.186218
0.186133
0.186049
0.185967
0.185887
0.185808
0.185732
0.185657
0.185583
0.185511
0.185441
0.185372
0.185305
0.185239
0.185175
0.185112
0.18505
0.18499
0.184931
0.184873
0.184817
0.184762
0.184708
0.184655
0.184603
0.184553
0.184503
0.184455
0.184407
0.184361
0.184316
0.184271
0.184228
0.184186
0.184144
0.184103
0.184064
0.184025
0.183987
0.183949
0.183913
0.183877
0.183842
0.183808
0.183775
0.183742
0.18371
0.183679
0.183648
0.183618
0.183589
0.18356
0.183532
0.183505
0.183478
0.183452
0.183426
0.183401
0.183376
0.183352
0.183329
0.183305
0.183283
0.183261
0.183239
0.183218
0.183197
0.183177
0.183157
0.183138
0.183119
0.1831
0.183082
0.183064
0.183047
0.18303
0.183013
0.182997
0.182981
0.182965
0.18295
0.182935
0.18292
0.182906
0.182892
0.182878
0.182864
0.182851
0.182838
0.182826
0.182813
0.182801
0.182789
0.182778
0.182766
0.182755
0.182745
0.182734
0.182724
0.182713
0.182703
0.182694
0.182684
0.182675
0.182666
0.182657
0.182648
0.182639
0.182631
0.182623
0.182615
0.182607
0.182599
0.182592
0.182585
0.182578
0.182571
0.182564
0.182557
0.182551
0.182544
0.182538
0.182532
0.182526
0.182521
0.182515
0.18251
0.182505
0.182499
0.182494
0.18249
0.182485
0.182481
0.182476
0.182472
0.182468
0.182464
0.18246
0.182457
0.182453
0.18245
0.182446
0.182443
0.18244
0.182438
0.182435
0.182432
0.18243
0.182428
0.182425
0.182423
0.182421
0.182419
0.182418
0.182416
0.182415
0.182413
0.182412
0.182411
0.18241
0.182409
0.182408
0.182407
0.182406
0.182405
0.182405
0.182404
0.182404
0.182404
0.182403
0.182403
0.182403
0.182403
0.182403
0.182403
0.182403
0.182403
0.182403
0.182403
0.182404
0.182404
0.182404
0.182405
0.182405
0.182405
0.182406
0.182406
0.182407
0.182407
0.182408
0.182408
0.182409
0.182409
0.18241
0.18241
0.182411
0.182412
0.182412
0.182413
0.182413
0.182414
0.182415
0.182415
0.182416
0.182417
0.182417
0.182418
0.182419
0.182419
0.18242
0.182421
0.182421
0.182422
0.182423
0.182423
0.182424
0.182425
0.182425
0.182426
0.182427
0.182427
0.182428
0.182429
0.182429
0.18243
0.182431
0.182431
0.182432
0.182433
0.182433
0.182434
0.182435
0.182435
0.182436
0.182437
0.182437
0.182438
0.182439
0.18244
0.18244
0.182441
0.182442
0.182442
0.182443
0.182444
0.182445
0.182445
0.182446
0.182447
0.182448
0.182448
0.182449
0.182449
0.182449
0.182449
1
1.07971
0.997071
0.883651
0.788698
0.716915
0.663052
0.621839
0.589496
0.563484
0.542093
0.524153
0.508846
0.495592
0.483966
0.473655
0.464426
0.456097
0.44853
0.441612
0.435257
0.429391
0.423955
0.4189
0.414185
0.409774
0.405636
0.401746
0.39808
0.39462
0.391346
0.388244
0.385301
0.382502
0.379839
0.3773
0.374877
0.372562
0.370348
0.368227
0.366195
0.364245
0.362372
0.360573
0.358841
0.357175
0.355569
0.354021
0.352528
0.351086
0.349694
0.348348
0.347047
0.345788
0.344569
0.343388
0.342245
0.341136
0.34006
0.339017
0.338004
0.337021
0.336066
0.335138
0.334236
0.333359
0.332506
0.331677
0.330869
0.330083
0.329318
0.328573
0.327847
0.32714
0.326451
0.32578
0.325125
0.324486
0.323864
0.323256
0.322664
0.322086
0.321522
0.320972
0.320434
0.31991
0.319398
0.318897
0.318409
0.317932
0.317466
0.317011
0.316567
0.316132
0.315708
0.315293
0.314888
0.314492
0.314105
0.313727
0.313357
0.312995
0.312642
0.312296
0.311959
0.311628
0.311305
0.31099
0.310681
0.310379
0.310084
0.309795
0.309513
0.309236
0.308966
0.308702
0.308444
0.308191
0.307944
0.307702
0.307466
0.307235
0.307008
0.306787
0.306571
0.306359
0.306152
0.305949
0.305751
0.305558
0.305368
0.305182
0.305001
0.304824
0.30465
0.30448
0.304314
0.304152
0.303993
0.303837
0.303685
0.303536
0.303391
0.303248
0.303109
0.302973
0.30284
0.302709
0.302582
0.302457
0.302335
0.302216
0.302099
0.301985
0.301873
0.301763
0.301657
0.301552
0.30145
0.30135
0.301252
0.301156
0.301062
0.300971
0.300881
0.300793
0.300707
0.300623
0.300541
0.300461
0.300382
0.300305
0.30023
0.300157
0.300085
0.300014
0.299945
0.299878
0.299812
0.299747
0.299684
0.299623
0.299562
0.299503
0.299445
0.299389
0.299333
0.299279
0.299226
0.299174
0.299123
0.299074
0.299025
0.298978
0.298931
0.298886
0.298841
0.298797
0.298755
0.298713
0.298672
0.298632
0.298593
0.298555
0.298518
0.298481
0.298445
0.29841
0.298376
0.298342
0.298309
0.298277
0.298246
0.298215
0.298185
0.298155
0.298126
0.298098
0.298071
0.298044
0.298017
0.297991
0.297966
0.297941
0.297917
0.297893
0.29787
0.297847
0.297825
0.297803
0.297781
0.297761
0.29774
0.29772
0.297701
0.297681
0.297663
0.297644
0.297626
0.297609
0.297591
0.297575
0.297558
0.297542
0.297526
0.297511
0.297496
0.297481
0.297466
0.297452
0.297438
0.297425
0.297411
0.297399
0.297386
0.297373
0.297361
0.29735
0.297338
0.297327
0.297316
0.297305
0.297294
0.297284
0.297274
0.297264
0.297255
0.297245
0.297236
0.297228
0.297219
0.297211
0.297203
0.297195
0.297187
0.29718
0.297173
0.297166
0.297159
0.297153
0.297146
0.29714
0.297135
0.297129
0.297124
0.297118
0.297114
0.297109
0.297104
0.2971
0.297096
0.297092
0.297088
0.297085
0.297082
0.297078
0.297076
0.297073
0.29707
0.297068
0.297066
0.297063
0.297062
0.29706
0.297058
0.297057
0.297055
0.297054
0.297053
0.297052
0.297051
0.297051
0.29705
0.29705
0.297049
0.297049
0.297049
0.297049
0.297049
0.297049
0.297049
0.297049
0.29705
0.29705
0.29705
0.297051
0.297051
0.297052
0.297053
0.297053
0.297054
0.297055
0.297055
0.297056
0.297057
0.297058
0.297059
0.29706
0.297061
0.297061
0.297062
0.297063
0.297064
0.297065
0.297066
0.297067
0.297068
0.297069
0.29707
0.297071
0.297072
0.297073
0.297074
0.297075
0.297076
0.297078
0.297079
0.29708
0.297081
0.297082
0.297083
0.297084
0.297085
0.297086
0.297087
0.297088
0.297089
0.29709
0.297091
0.297092
0.297093
0.297094
0.297095
0.297096
0.297098
0.297099
0.2971
0.297101
0.297102
0.297103
0.297104
0.297105
0.297106
0.297107
0.297108
0.29711
0.297111
0.297112
0.297113
0.297114
0.297115
0.297116
0.297118
0.297119
0.29712
0.297121
0.297122
0.297123
0.297123
0.297123
1
1.11179
1.11438
1.05557
0.984377
0.919039
0.863806
0.818223
0.780652
0.749429
0.723172
0.700804
0.681507
0.664663
0.649804
0.63657
0.624686
0.613935
0.604148
0.595187
0.586944
0.579327
0.572263
0.565688
0.55955
0.553803
0.54841
0.543337
0.538555
0.534037
0.529762
0.52571
0.521863
0.518205
0.514722
0.511401
0.508231
0.505202
0.502304
0.499528
0.496867
0.494314
0.491862
0.489505
0.487237
0.485054
0.482951
0.480923
0.478966
0.477078
0.475254
0.47349
0.471785
0.470136
0.468539
0.466992
0.465494
0.464041
0.462632
0.461265
0.459939
0.458651
0.4574
0.456185
0.455003
0.453855
0.452738
0.451652
0.450595
0.449566
0.448564
0.447589
0.446639
0.445713
0.444812
0.443933
0.443076
0.442241
0.441426
0.440632
0.439857
0.439101
0.438364
0.437644
0.436941
0.436256
0.435586
0.434933
0.434294
0.433671
0.433062
0.432468
0.431887
0.43132
0.430765
0.430224
0.429694
0.429177
0.428672
0.428178
0.427695
0.427223
0.426762
0.426311
0.42587
0.425439
0.425018
0.424606
0.424203
0.423809
0.423424
0.423048
0.422679
0.422319
0.421967
0.421623
0.421286
0.420957
0.420635
0.42032
0.420011
0.41971
0.419415
0.419127
0.418845
0.418569
0.4183
0.418036
0.417778
0.417525
0.417278
0.417037
0.416801
0.41657
0.416344
0.416123
0.415906
0.415695
0.415488
0.415286
0.415088
0.414894
0.414705
0.41452
0.414338
0.414161
0.413988
0.413818
0.413652
0.41349
0.413332
0.413176
0.413024
0.412876
0.412731
0.412589
0.41245
0.412314
0.412181
0.412051
0.411923
0.411799
0.411677
0.411558
0.411442
0.411328
0.411216
0.411107
0.411
0.410896
0.410794
0.410694
0.410596
0.410501
0.410407
0.410316
0.410226
0.410139
0.410053
0.40997
0.409888
0.409807
0.409729
0.409652
0.409577
0.409504
0.409432
0.409362
0.409293
0.409225
0.40916
0.409095
0.409032
0.40897
0.40891
0.408851
0.408793
0.408737
0.408681
0.408627
0.408574
0.408523
0.408472
0.408422
0.408374
0.408326
0.40828
0.408234
0.40819
0.408146
0.408104
0.408062
0.408021
0.407981
0.407942
0.407904
0.407866
0.40783
0.407794
0.407759
0.407725
0.407691
0.407658
0.407626
0.407594
0.407564
0.407533
0.407504
0.407475
0.407447
0.407419
0.407392
0.407365
0.407339
0.407314
0.407289
0.407265
0.407241
0.407218
0.407195
0.407172
0.407151
0.407129
0.407108
0.407088
0.407068
0.407048
0.407029
0.40701
0.406992
0.406974
0.406956
0.406939
0.406922
0.406906
0.40689
0.406874
0.406859
0.406844
0.406829
0.406815
0.406801
0.406787
0.406774
0.406761
0.406748
0.406736
0.406724
0.406712
0.406701
0.40669
0.406679
0.406669
0.406658
0.406649
0.406639
0.40663
0.406621
0.406612
0.406604
0.406596
0.406588
0.406581
0.406574
0.406567
0.40656
0.406554
0.406548
0.406542
0.406537
0.406531
0.406526
0.406522
0.406517
0.406513
0.406509
0.406505
0.406502
0.406499
0.406496
0.406493
0.40649
0.406488
0.406486
0.406484
0.406482
0.40648
0.406479
0.406477
0.406476
0.406475
0.406474
0.406474
0.406473
0.406473
0.406472
0.406472
0.406472
0.406472
0.406472
0.406473
0.406473
0.406473
0.406474
0.406475
0.406475
0.406476
0.406477
0.406477
0.406478
0.406479
0.40648
0.406481
0.406482
0.406483
0.406484
0.406486
0.406487
0.406488
0.406489
0.40649
0.406492
0.406493
0.406494
0.406495
0.406497
0.406498
0.406499
0.406501
0.406502
0.406503
0.406505
0.406506
0.406507
0.406509
0.40651
0.406511
0.406513
0.406514
0.406516
0.406517
0.406518
0.40652
0.406521
0.406522
0.406524
0.406525
0.406526
0.406528
0.406529
0.406531
0.406532
0.406533
0.406535
0.406536
0.406537
0.406539
0.40654
0.406542
0.406543
0.406544
0.406546
0.406547
0.406549
0.40655
0.406552
0.406553
0.406555
0.406556
0.406557
0.406559
0.406561
0.406562
0.406564
0.406565
0.406567
0.406568
0.406569
0.406569
0.406569
1
1.09593
1.14368
1.13403
1.09771
1.05335
1.00943
0.969231
0.933638
0.902515
0.875356
0.851581
0.830648
0.81209
0.795521
0.780625
0.767148
0.754882
0.743659
0.733343
0.723818
0.714991
0.706781
0.699124
0.69196
0.685241
0.678925
0.672974
0.667357
0.662044
0.657011
0.652236
0.647697
0.643378
0.639263
0.635337
0.631586
0.627999
0.624566
0.621276
0.618121
0.615092
0.612181
0.609382
0.606689
0.604095
0.601596
0.599185
0.596859
0.594613
0.592443
0.590345
0.588316
0.586352
0.584452
0.58261
0.580826
0.579096
0.577419
0.575791
0.574211
0.572677
0.571187
0.56974
0.568333
0.566965
0.565634
0.56434
0.563081
0.561856
0.560663
0.559501
0.558369
0.557267
0.556193
0.555147
0.554126
0.553132
0.552162
0.551216
0.550293
0.549393
0.548515
0.547659
0.546822
0.546006
0.545209
0.544432
0.543672
0.54293
0.542206
0.541499
0.540808
0.540133
0.539474
0.53883
0.5382
0.537585
0.536984
0.536397
0.535823
0.535262
0.534714
0.534178
0.533654
0.533142
0.532641
0.532152
0.531673
0.531205
0.530748
0.530301
0.529863
0.529436
0.529018
0.528609
0.528209