# vtk DataFile Version 2.0
FlowField
ASCII
DATASET STRUCTURED_GRID
DIMENSIONS 400 1 50
POINTS 20000 float
0 0 0
0.08 0 0
0.16 0 0
0.24 0 0
0.32 0 0
0.4 0 0
0.48 0 0
0.56 0 0
0.64 0 0
0.72 0 0
0.8 0 0
0.88 0 0
0.96 0 0
1.04 0 0
1.12 0 0
1.2 0 0
1.28 0 0
1.36 0 0
1.44 0 0
1.52 0 0
1.6 0 0
1.68 0 0
1.76 0 0
1.84 0 0
1.92 0 0
2 0 0
2.08 0 0
2.16 0 0
2.24 0 0
2.32 0 0
2.4 0 0
2.48 0 0
2.56 0 0
2.64 0 0
2.72 0 0
2.8 0 0
2.88 0 0
2.96 0 0
3.04 0 0
3.12 0 0
3.2 0 0
3.28 0 0
3.36 0 0
3.44 0 0
3.52 0 0
3.6 0 0
3.68 0 0
3.76 0 0
3.84 0 0
3.92 0 0
4 0 0
4.08 0 0
4.16 0 0
4.24 0 0
4.32 0 0
4.4 0 0
4.48 0 0
4.56 0 0
4.64 0 0
4.72 0 0
4.8 0 0
4.88 0 0
4.96 0 0
5.04 0 0
5.12 0 0
5.2 0 0
5.28 0 0
5.36 0 0
5.44 0 0
5.52 0 0
5.6 0 0
5.68 0 0
5.76 0 0
5.84 0 0
5.92 0 0
6 0 0
6.08 0 0
6.16 0 0
6.24 0 0
6.32 0 0
6.4 0 0
6.48 0 0
6.56 0 0
6.64 0 0
6.72 0 0
6.8 0 0
6.88 0 0
6.96 0 0
7.04 0 0
7.12 0 0
7.2 0 0
7.28 0 0
7.36 0 0
7.44 0 0
7.52 0 0
7.6 0 0
7.68 0 0
7.76 0 0
7.84 0 0
7.92 0 0
8 0 0
8.08 0 0
8.16 0 0
8.24 0 0
8.32 0 0
8.4 0 0
8.48 0 0
8.56 0 0
8.64 0 0
8.72 0 0
8.8 0 0
8.88 0 0
8.96 0 0
9.04 0 0
9.12 0 0
9.2 0 0
9.28 0 0
9.36 0 0
9.44 0 0
9.52 0 0
9.6 0 0
9.68 0 0
9.76 0 0
9.84 0 0
9.92 0 0
10 0 0
10.08 0 0
10.16 0 0
10.24 0 0
10.32 0 0
10.4 0 0
10.48 0 0
10.56 0 0
10.64 0 0
10.72 0 0
10.8 0 0
10.88 0 0
10.96 0 0
11.04 0 0
11.12 0 0
11.2 0 0
11.28 0 0
11.36 0 0
11.44 0 0
11.52 0 0
11.6 0 0
11.68 0 0
11.76 0 0
11.84 0 0
11.92 0 0
12 0 0
12.08 0 0
12.16 0 0
12.24 0 0
12.32 0 0
12.4 0 0
12.48 0 0
12.56 0 0
12.64 0 0
12.72 0 0
12.8 0 0
12.88 0 0
12.96 0 0
13.04 0 0
13.12 0 0
13.2 0 0
13.28 0 0
13.36 0 0
13.44 0 0
13.52 0 0
13.6 0 0
13.68 0 0
13.76 0 0
13.84 0 0
13.92 0 0
14 0 0
14.08 0 0
14.16 0 0
14.24 0 0
14.32 0 0
14.4 0 0
14.48 0 0
14.56 0 0
14.64 0 0
14.72 0 0
14.8 0 0
14.88 0 0
14.96 0 0
15.04 0 0
15.12 0 0
15.2 0 0
15.28 0 0
15.36 0 0
15.44 0 0
15.52 0 0
15.6 0 0
15.68 0 0
15.76 0 0
15.84 0 0
15.92 0 0
16 0 0
16.08 0 0
16.16 0 0
16.24 0 0
16.32 0 0
16.4 0 0
16.48 0 0
16.56 0 0
16.64 0 0
16.72 0 0
16.8 0 0
16.88 0 0
16.96 0 0
17.04 0 0
17.12 0 0
17.2 0 0
17.28 0 0
17.36 0 0
17.44 0 0
17.52 0 0
17.6 0 0
17.68 0 0
17.76 0 0
17.84 0 0
17.92 0 0
18 0 0
18.08 0 0
18.16 0 0
18.24 0 0
18.32 0 0
18.4 0 0
18.48 0 0
18.56 0 0
18.64 0 0
18.72 0 0
18.8 0 0
18.88 0 0
18.96 0 0
19.04 0 0
19.12 0 0
19.2 0 0
19.28 0 0
19.36 0 0
19.44 0 0
19.52 0 0
19.6 0 0
19.68 0 0
19.76 0 0
19.84 0 0
19.92 0 0
20 0 0
20.08 0 0
20.16 0 0
20.24 0 0
20.32 0 0
20.4 0 0
20.48 0 0
20.56 0 0
20.64 0 0
20.72 0 0
20.8 0 0
20.88 0 0
20.96 0 0
21.04 0 0
21.12 0 0
21.2 0 0
21.28 0 0
21.36 0 0
21.44 0 0
21.52 0 0
21.6 0 0
21.68 0 0
21.76 0 0
21.84 0 0
21.92 0 0
22 0 0
22.08 0 0
22.16 0 0
22.24 0 0
22.32 0 0
22.4 0 0
22.48 0 0
22.56 0 0
22.64 0 0
22.72 0 0
22.8 0 0
22.88 0 0
22.96 0 0
23.04 0 0
23.12 0 0
23.2 0 0
23.28 0 0
23.36 0 0
23.44 0 0
23.52 0 0
23.6 0 0
23.68 0 0
23.76 0 0
23.84 0 0
23.92 0 0
24 0 0
24.08 0 0
24.16 0 0
24.24 0 0
24.32 0 0
24.4 0 0
24.48 0 0
24.56 0 0
24.64 0 0
24.72 0 0
24.8 0 0
24.88 0 0
24.96 0 0
25.04 0 0
25.12 0 0
25.2 0 0
25.28 0 0
25.36 0 0
25.44 0 0
25.52 0 0
25.6 0 0
25.68 0 0
25.76 0 0
25.84 0 0
25.92 0 0
26 0 0
26.08 0 0
26.16 0 0
26.24 0 0
26.32 0 0
26.4 0 0
26.48 0 0
26.56 0 0
26.64 0 0
26.72 0 0
26.8 0 0
26.88 0 0
26.96 0 0
27.04 0 0
27.12 0 0
27.2 0 0
27.28 0 0
27.36 0 0
27.44 0 0
27.52 0 0
27.6 0 0
27.68 0 0
27.76 0 0
27.84 0 0
27.92 0 0
28 0 0
28.08 0 0
28.16 0 0
28.24 0 0
28.32 0 0
28.4 0 0
28.48 0 0
28.56 0 0
28.64 0 0
28.72 0 0
28.8 0 0
28.88 0 0
28.96 0 0
29.04 0 0
29.12 0 0
29.2 0 0
29.28 0 0
29.36 0 0
29.44 0 0
29.52 0 0
29.6 0 0
29.68 0 0
29.76 0 0
29.84 0 0
29.92 0 0
30 0 0
30.08 0 0
30.16 0 0
30.24 0 0
30.32 0 0
30.4 0 0
30.48 0 0
30.56 0 0
30.64 0 0
30.72 0 0
30.8 0 0
30.88 0 0
30.96 0 0
31.04 0 0
31.12 0 0
31.2 0 0
31.28 0 0
31.36 0 0
31.44 0 0
31.52 0 0
31.6 0 0
31.68 0 0
31.76 0 0
31.84 0 0
31.92 0 0
0 0.02 0
0.08 0.02 0
0.16 0.02 0
0.24 0.02 0
0.32 0.02 0
0.4 0.02 0
0.48 0.02 0
0.56 0.02 0
0.64 0.02 0
0.72 0.02 0
0.8 0.02 0
0.88 0.02 0
0.96 0.02 0
1.04 0.02 0
1.12 0.02 0
1.2 0.02 0
1.28 0.02 0
1.36 0.02 0
1.44 0.02 0
1.52 0.02 0
1.6 0.02 0
1.68 0.02 0
1.76 0.02 0
1.84 0.02 0
1.92 0.02 0
2 0.02 0
2.08 0.02 0
2.16 0.02 0
2.24 0.02 0
2.32 0.02 0
2.4 0.02 0
2.48 0.02 0
2.56 0.02 0
2.64 0.02 0
2.72 0.02 0
2.8 0.02 0
2.88 0.02 0
2.96 0.02 0
3.04 0.02 0
3.12 0.02 0
3.2 0.02 0
3.28 0.02 0
3.36 0.02 0
3.44 0.02 0
3.52 0.02 0
3.6 0.02 0
3.68 0.02 0
3.76 0.02 0
3.84 0.02 0
3.92 0.02 0
4 0.02 0
4.08 0.02 0
4.16 0.02 0
4.24 0.02 0
4.32 0.02 0
4.4 0.02 0
4.48 0.02 0
4.56 0.02 0
4.64 0.02 0
4.72 0.02 0
4.8 0.02 0
4.88 0.02 0
4.96 0.02 0
5.04 0.02 0
5.12 0.02 0
5.2 0.02 0
5.28 0.02 0
5.36 0.02 0
5.44 0.02 0
5.52 0.02 0
5.6 0.02 0
5.68 0.02 0
5.76 0.02 0
5.84 0.02 0
5.92 0.02 0
6 0.02 0
6.08 0.02 0
6.16 0.02 0
6.24 0.02 0
6.32 0.02 0
6.4 0.02 0
6.48 0.02 0
6.56 0.02 0
6.64 0.02 0
6.72 0.02 0
6.8 0.02 0
6.88 0.02 0
6.96 0.02 0
7.04 0.02 0
7.12 0.02 0
7.2 0.02 0
7.28 0.02 0
7.36 0.02 0
7.44 0.02 0
7.52 0.02 0
7.6 0.02 0
7.68 0.02 0
7.76 0.02 0
7.84 0.02 0
7.92 0.02 0
8 0.02 0
8.08 0.02 0
8.16 0.02 0
8.24 0.02 0
8.32 0.02 0
8.4 0.02 0
8.48 0.02 0
8.56 0.02 0
8.64 0.02 0
8.72 0.02 0
8.8 0.02 0
8.88 0.02 0
8.96 0.02 0
9.04 0.02 0
9.12 0.02 0
9.2 0.02 0
9.28 0.02 0
9.36 0.02 0
9.44 0.02 0
9.52 0.02 0
9.6 0.02 0
9.68 0.02 0
9.76 0.02 0
9.84 0.02 0
9.92 0.02 0
10 0.02 0
10.08 0.02 0
10.16 0.02 0
10.24 0.02 0
10.32 0.02 0
10.4 0.02 0
10.48 0.02 0
10.56 0.02 0
10.64 0.02 0
10.72 0.02 0
10.8 0.02 0
10.88 0.02 0
10.96 0.02 0
11.04 0.02 0
11.12 0.02 0
11.2 0.02 0
11.28 0.02 0
11.36 0.02 0
11.44 0.02 0
11.52 0.02 0
11.6 0.02 0
11.68 0.02 0
11.76 0.02 0
11.84 0.02 0
11.92 0.02 0
12 0.02 0
12.08 0.02 0
12.16 0.02 0
12.24 0.02 0
12.32 0.02 0
12.4 0.02 0
12.48 0.02 0
12.56 0.02 0
12.64 0.02 0
12.72 0.02 0
12.8 0.02 0
12.88 0.02 0
12.96 0.02 0
13.04 0.02 0
13.12 0.02 0
13.2 0.02 0
13.28 0.02 0
13.36 0.02 0
13.44 0.02 0
13.52 0.02 0
13.6 0.02 0
13.68 0.02 0
13.76 0.02 0
13.84 0.02 0
13.92 0.02 0
14 0.02 0
14.08 0.02 0
14.16 0.02 0
14.24 0.02 0
14.32 0.02 0
14.4 0.02 0
14.48 0.02 0
14.56 0.02 0
14.64 0.02 0
14.72 0.02 0
14.8 0.02 0
14.88 0.02 0
14.96 0.02 0
15.04 0.02 0
15.12 0.02 0
15.2 0.02 0
15.28 0.02 0
15.36 0.02 0
15.44 0.02 0
15.52 0.02 0
15.6 0.02 0
15.68 0.02 0
15.76 0.02 0
15.84 0.02 0
15.92 0.02 0
16 0.02 0
16.08 0.02 0
16.16 0.02 0
16.24 0.02 0
16.32 0.02 0
16.4 0.02 0
16.48 0.02 0
16.56 0.02 0
16.64 0.02 0
16.72 0.02 0
16.8 0.02 0
16.88 0.02 0
16.96 0.02 0
17.04 0.02 0
17.12 0.02 0
17.2 0.02 0
17.28 0.02 0
17.36 0.02 0
17.44 0.02 0
17.52 0.02 0
17.6 0.02 0
17.68 0.02 0
17.76 0.02 0
17.84 0.02 0
17.92 0.02 0
18 0.02 0
18.08 0.02 0
18.16 0.02 0
18.24 0.02 0
18.32 0.02 0
18.4 0.02 0
18.48 0.02 0
18.56 0.02 0
18.64 0.02 0
18.72 0.02 0
18.8 0.02 0
18.88 0.02 0
18.96 0.02 0
19.04 0.02 0
19.12 0.02 0
19.2 0.02 0
19.28 0.02 0
19.36 0.02 0
19.44 0.02 0
19.52 0.02 0
19.6 0.02 0
19.68 0.02 0
19.76 0.02 0
19.84 0.02 0
19.92 0.02 0
20 0.02 0
20.08 0.02 0
20.16 0.02 0
20.24 0.02 0
20.32 0.02 0
20.4 0.02 0
20.48 0.02 0
20.56 0.02 0
20.64 0.02 0
20.72 0.02 0
20.8 0.02 0
20.88 0.02 0
20.96 0.02 0
21.04 0.02 0
21.12 0.02 0
21.2 0.02 0
21.28 0.02 0
21.36 0.02 0
21.44 0.02 0
21.52 0.02 0
21.6 0.02 0
21.68 0.02 0
21.76 0.02 0
21.84 0.02 0
21.92 0.02 0
22 0.02 0
22.08 0.02 0
22.16 0.02 0
22.24 0.02 0
22.32 0.02 0
22.4 0.02 0
22.48 0.02 0
22.56 0.02 0
22.64 0.02 0
22.72 0.02 0
22.8 0.02 0
22.88 0.02 0
22.96 0.02 0
23.04 0.02 0
23.12 0.02 0
23.2 0.02 0
23.28 0.02 0
23.36 0.02 0
23.44 0.02 0
23.52 0.02 0
23.6 0.02 0
23.68 0.02 0
23.76 0.02 0
23.84 0.02 0
23.92 0.02 0
24 0.02 0
24.08 0.02 0
24.16 0.02 0
24.24 0.02 0
24.32 0.02 0
24.4 0.02 0
24.48 0.02 0
24.56 0.02 0
24.64 0.02 0
24.72 0.02 0
24.8 0.02 0
24.88 0.02 0
24.96 0.02 0
25.04 0.02 0
25.12 0.02 0
25.2 0.02 0
25.28 0.02 0
25.36 0.02 0
25.44 0.02 0
25.52 0.02 0
25.6 0.02 0
25.68 0.02 0
25.76 0.02 0
25.84 0.02 0
25.92 0.02 0
26 0.02 0
26.08 0.02 0
26.16 0.02 0
26.24 0.02 0
26.32 0.02 0
26.4 0.02 0
26.48 0.02 0
26.56 0.02 0
26.64 0.02 0
26.72 0.02 0
26.8 0.02 0
26.88 0.02 0
26.96 0.02 0
27.04 0.02 0
27.12 0.02 0
27.2 0.02 0
27.28 0.02 0
27.36 0.02 0
27.44 0.02 0
27.52 0.02 0
27.6 0.02 0
27.68 0.02 0
27.76 0.02 0
27.84 0.02 0
27.92 0.02 0
28 0.02 0
28.08 0.02 0
28.16 0.02 0
28.24 0.02 0
28.32 0.02 0
28.4 0.02 0
28.48 0.02 0
28.56 0.02 0
28.64 0.02 0
28.72 0.02 0
28.8 0.02 0
28.88 0.02 0
28.96 0.02 0
29.04 0.02 0
29.12 0.02 0
29.2 0.02 0
29.28 0.02 0
29.36 0.02 0
29.44 0.02 0
29.52 0.02 0
29.6 0.02 0
29.68 0.02 0
29.76 0.02 0
29.84 0.02 0
29.92 0.02 0
30 0.02 0
30.08 0.02 0
30.16 0.02 0
30.24 0.02 0
30.32 0.02 0
30.4 0.02 0
30.48 0.02 0
30.56 0.02 0
30.64 0.02 0
30.72 0.02 0
30.8 0.02 0
30.88 0.02 0
30.96 0.02 0
31.04 0.02 0
31.12 0.02 0
31.2 0.02 0
31.28 0.02 0
31.36 0.02 0
31.44 0.02 0
31.52 0.02 0
31.6 0.02 0
31.68 0.02 0
31.76 0.02 0
31.84 0.02 0
31.92 0.02 0
0 0.04 0
0.08 0.04 0
0.16 0.04 0
0.24 0.04 0
0.32 0.04 0
0.4 0.04 0
0.48 0.04 0
0.56 0.04 0
0.64 0.04 0
0.72 0.04 0
0.8 0.04 0
0.88 0.04 0
0.96 0.04 0
1.04 0.04 0
1.12 0.04 0
1.2 0.04 0
1.28 0.04 0
1.36 0.04 0
1.44 0.04 0
1.52 0.04 0
1.6 0.04 0
1.68 0.04 0
1.76 0.04 0
1.84 0.04 0
1.92 0.04 0
2 0.04 0
2.08 0.04 0
2.16 0.04 0
2.24 0.04 0
2.32 0.04 0
2.4 0.04 0
2.48 0.04 0
2.56 0.04 0
2.64 0.04 0
2.72 0.04 0
2.8 0.04 0
2.88 0.04 0
2.96 0.04 0
3.04 0.04 0
3.12 0.04 0
3.2 0.04 0
3.28 0.04 0
3.36 0.04 0
3.44 0.04 0
3.52 0.04 0
3.6 0.04 0
3.68 0.04 0
3.76 0.04 0
3.84 0.04 0
3.92 0.04 0
4 0.04 0
4.08 0.04 0
4.16 0.04 0
4.24 0.04 0
4.32 0.04 0
4.4 0.04 0
4.48 0.04 0
4.56 0.04 0
4.64 0.04 0
4.72 0.04 0
4.8 0.04 0
4.88 0.04 0
4.96 0.04 0
5.04 0.04 0
5.12 0.04 0
5.2 0.04 0
5.28 0.04 0
5.36 0.04 0
5.44 0.04 0
5.52 0.04 0
5.6 0.04 0
5.68 0.04 0
5.76 0.04 0
5.84 0.04 0
5.92 0.04 0
6 0.04 0
6.08 0.04 0
6.16 0.04 0
6.24 0.04 0
6.32 0.04 0
6.4 0.04 0
6.48 0.04 0
6.56 0.04 0
6.64 0.04 0
6.72 0.04 0
6.8 0.04 0
6.88 0.04 0
6.96 0.04 0
7.04 0.04 0
7.12 0.04 0
7.2 0.04 0
7.28 0.04 0
7.36 0.04 0
7.44 0.04 0
7.52 0.04 0
7.6 0.04 0
7.68 0.04 0
7.76 0.04 0
7.84 0.04 0
[...]
POINT_DATA 20000

SCALARS v float 1
LOOKUP_TABLE default
0
0
0
0
0
0
0
0
0
0
0
0
0
0
0
0
0
0
0
0
0
0
0
0
0
0
0
0
0
0
0
0
0
0
0
0
0
0
0
0
0
0
0
0
0
0
0
0
0
0
0
0
0
0
0
0
0
0
0
0
0
0
0
0
0
0
0
0
0
0
0
0
0
0
0
0
0
0
0
0
0
0
0
0
0
0
0
0
0
0
0
0
0
0
0
0
0
0
0
0
0
0
0
0
0
0
0
0
0
0
0
0
0
0
0
0
0
0
0
0
0
0
0
0
0
0
0
0
0
0
0
0
0
0
0
0
0
0
0
0
0
0
0
0
0
0
0
0
0
0
0
0
0
0
0
0
0
0
0
0
0
0
0
0
0
0
0
0
0
0
0
0
0
0
0
0
0
0
0
0
0
0
0
0
0
0
0
0
0
0
0
0
0
0
0
0
0
0
0
0
0
0
0
0
0
0
0
0
0
0
0
0
0
0
0
0
0
0
0
0
0
0
0
0
0
0
0
0
0
0
0
0
0
0
0
0
0
0
0
0
0
0
0
0
0
0
0
0
0
0
0
0
0
0
0
0
0
0
0
0
0
0
0
0
0
0
0
0
0
0
0
0
0
0
0
0
0
0
0
0
0
0
0
0
0
0
0
0
0
0
0
0
0
0
0
0
0
0
0
0
0
0
0
0
0
0
0
0
0
0
0
0
0
0
0
0
0
0
0
0
0
0
0
0
0
0
0
0
0
0
0
0
0
0
0
0
0
0
0
0
0
0
0
0
0
0
0
0
0
0
0
0
0
0
0
0
0
0
0
0
0
0
0
0
0
0
0
0
0
0
0
0
0
0
0
0
0
0
0
0
0
0
0
0
0
0
0
0
0
0
0
0
0
0
0
0
0
0
0
0
-0.123227
0.123227
0.0537923
0.0194394
0.00878354
0.00509011
0.00338814
0.00243769
0.00184786
0.00145665
0.00118439
0.000987593
0.000840732
0.000728041
0.000639405
0.00056814
0.000509717
0.000461002
0.000419776
0.000384443
0.00035383
0.000327057
0.000303455
0.000282504
0.000263793
0.000246995
0.000231844
0.00021812
0.000205641
0.000194256
0.000183835
0.000174268
0.000165462
0.000157335
0.000149817
0.000142847
0.00013637
0.00013034
0.000124714
0.000119458
0.000114536
0.000109922
0.000105588
0.000101512
9.76722e-05
9.40506e-05
9.063e-05
8.73952e-05
8.43323e-05
8.14288e-05
7.86733e-05
7.60553e-05
7.35654e-05
7.1195e-05
6.89359e-05
6.6781e-05
6.47236e-05
6.27575e-05
6.0877e-05
5.90768e-05
5.73523e-05
5.56988e-05
5.41122e-05
5.25887e-05
5.11248e-05
4.97171e-05
4.83626e-05
4.70584e-05
4.58018e-05
4.45904e-05
4.34218e-05
4.22938e-05
4.12045e-05
4.01519e-05
3.91343e-05
3.815e-05
3.71975e-05
3.62752e-05
3.53818e-05
3.4516e-05
3.36767e-05
3.28626e-05
3.20727e-05
3.13059e-05
3.05614e-05
2.98382e-05
2.91355e-05
2.84523e-05
2.77881e-05
2.71421e-05
2.65135e-05
2.59017e-05
2.53062e-05
2.47263e-05
2.41615e-05
2.36112e-05
2.30749e-05
2.25523e-05
2.20428e-05
2.15459e-05
2.10614e-05
2.05887e-05
2.01276e-05
1.96776e-05
1.92384e-05
1.88098e-05
1.83913e-05
1.79826e-05
1.75836e-05
1.71939e-05
1.68132e-05
1.64413e-05
1.6078e-05
1.5723e-05
1.5376e-05
1.5037e-05
1.47055e-05
1.43816e-05
1.40649e-05
1.37553e-05
1.34527e-05
1.31567e-05
1.28674e-05
1.25844e-05
1.23077e-05
1.20371e-05
1.17724e-05
1.15135e-05
1.12603e-05
1.10126e-05
1.07704e-05
1.05334e-05
1.03016e-05
1.00748e-05
9.85289e-06
9.63583e-06
9.42347e-06
9.21573e-06
9.01249e-06
8.81367e-06
8.61917e-06
8.42888e-06
8.24271e-06
8.06058e-06
7.88238e-06
7.70803e-06
7.53747e-06
7.3706e-06
7.20736e-06
7.04767e-06
6.89146e-06
6.73864e-06
6.58913e-06
6.44285e-06
6.29975e-06
6.15975e-06
6.02281e-06
5.88886e-06
5.75785e-06
5.6297e-06
5.50436e-06
5.38175e-06
5.26183e-06
5.14451e-06
5.02975e-06
4.91749e-06
4.80767e-06
4.70027e-06
4.59523e-06
4.49252e-06
4.39206e-06
4.29378e-06
4.19763e-06
4.10356e-06
4.01153e-06
3.92152e-06
3.8335e-06
3.7474e-06
3.66318e-06
3.5808e-06
3.50023e-06
3.42142e-06
3.34434e-06
3.26891e-06
3.19508e-06
3.12283e-06
3.05214e-06
2.98301e-06
2.91544e-06
2.84937e-06
2.78472e-06
2.72142e-06
2.65944e-06
2.59877e-06
2.53944e-06
2.48143e-06
2.4247e-06
2.36919e-06
2.31486e-06
2.26169e-06
2.2097e-06
2.15887e-06
2.10917e-06
2.06052e-06
2.01286e-06
1.96616e-06
1.92047e-06
1.87584e-06
1.83229e-06
1.78976e-06
1.74813e-06
1.7073e-06
1.66725e-06
1.62803e-06
1.58971e-06
1.55232e-06
1.51581e-06
1.4801e-06
1.44509e-06
1.41079e-06
1.37722e-06
1.34443e-06
1.3124e-06
1.28106e-06
1.25033e-06
1.22016e-06
1.19059e-06
1.16171e-06
1.13357e-06
1.10615e-06
1.07933e-06
1.05296e-06
1.02699e-06
1.00145e-06
9.76454e-07
9.52102e-07
9.28408e-07
9.05285e-07
8.82603e-07
8.60274e-07
8.38296e-07
8.16735e-07
7.95652e-07
7.75048e-07
7.54858e-07
7.35004e-07
7.15458e-07
6.96262e-07
6.77486e-07
6.59154e-07
6.412e-07
6.23491e-07
6.05906e-07
5.88419e-07
5.71122e-07
5.54159e-07
5.37627e-07
5.21494e-07
5.05605e-07
4.89774e-07
4.7389e-07
4.57979e-07
4.4217e-07
4.26599e-07
4.11313e-07
3.96242e-07
3.8125e-07
3.6623e-07
3.51176e-07
3.36169e-07
3.21305e-07
3.06613e-07
2.92024e-07
2.77421e-07
2.62738e-07
2.48022e-07
2.33429e-07
2.19131e-07
2.052e-07
1.91546e-07
1.77954e-07
1.64218e-07
1.5027e-07
1.36252e-07
1.22448e-07
1.09142e-07
9.64484e-08
8.42471e-08
7.22402e-08
6.01156e-08
4.77227e-08
3.51614e-08
2.2737e-08
1.08023e-08
-4.23742e-10
-1.09659e-08
-2.10711e-08
-3.10735e-08
-4.12166e-08
-5.15296e-08
-6.18162e-08
-7.17594e-08
-8.10793e-08
-8.96666e-08
-9.76216e-08
-1.05192e-07
-1.1264e-07
-1.20117e-07
-1.27599e-07
-1.34915e-07
-1.41835e-07
-1.48191e-07
-1.53944e-07
-1.59198e-07
-1.64135e-07
-1.68933e-07
-1.73682e-07
-1.78367e-07
-1.82877e-07
-1.87084e-07
-1.90888e-07
-1.9428e-07
-1.97317e-07
-2.00115e-07
-2.02772e-07
-2.05354e-07
-2.07854e-07
-2.1023e-07
-2.12408e-07
-2.14349e-07
-2.1603e-07
-2.17496e-07
-2.18788e-07
-2.19983e-07
-2.21102e-07
-2.22181e-07
-2.2318e-07
-2.24105e-07
-2.24896e-07
-2.25587e-07
-2.2614e-07
-2.26633e-07
-2.27037e-07
-2.27443e-07
-2.27788e-07
-2.28161e-07
-2.28453e-07
-2.28768e-07
-2.28968e-07
-2.292e-07
-2.29303e-07
-2.2948e-07
-2.29526e-07
-2.29699e-07
-2.2972e-07
-2.29912e-07
-2.29906e-07
-2.30113e-07
-2.30058e-07
-2.30279e-07
-2.30164e-07
-2.30417e-07
-2.30246e-07
-2.30562e-07
-2.30336e-07
-2.30743e-07
-2.30446e-07
-2.30967e-07
-2.30571e-07
-2.31232e-07
-2.30706e-07
-2.3155e-07
-2.30861e-07
-2.31946e-07
-2.31053e-07
-2.32451e-07
-2.31301e-07
-2.33098e-07
-2.31625e-07
-2.33924e-07
-2.32052e-07
-2.34973e-07
-2.32623e-07
-2.36291e-07
-2.334e-07
-2.37913e-07
-2.34468e-07
-2.39806e-07
-2.35936e-07
-2.4173e-07
-2.37923e-07
-2.42816e-07
-2.405e-07
-2.40204e-07
-2.43509e-07
-2.23268e-07
-2.45605e-07
-1.20224e-07
-1.95304e-07
-1.95304e-07
-0.142153
0.142153
0.101005
0.0539133
0.0302568
0.0189187
0.012928
0.00941342
0.0071805
0.00567759
0.00462111
0.00385211
0.00327562
0.00283212
0.00248295
0.00220229
0.00197247
0.00178118
0.00161964
0.0014815
0.00136207
0.00125785
0.00116614
0.00108488
0.00101242
0.000947451
0.000888919
0.000835956
0.000787842
0.000743978
0.000703855
0.000667045
0.000633178
0.000601938
0.00057305
0.000546276
0.000521406
0.000498259
0.000476672
0.000456505
0.000437629
0.000419934
0.000403319
0.000387694
0.00037298
0.000359103
0.000345999
0.000333608
0.000321878
0.00031076
0.000300211
0.000290189
0.000280659
0.000271588
0.000262944
0.000254699
0.000246829
0.000239309
0.000232117
0.000225234
0.00021864
0.000212319
0.000206254
0.000200432
0.000194838
0.000189459
0.000184284
0.000179302
0.000174503
0.000169876
0.000165414
0.000161108
0.000156949
0.000152932
0.000149048
0.000145292
0.000141658
0.000138139
0.000134732
0.00013143
0.000128229
0.000125125
0.000122114
0.000119191
0.000116354
0.000113598
0.00011092
0.000108318
0.000105788
0.000103327
0.000100933
9.8604e-05
9.63368e-05
9.41293e-05
9.19795e-05
8.98854e-05
8.78451e-05
8.58566e-05
8.39184e-05
8.20287e-05
8.01859e-05
7.83886e-05
7.66354e-05
7.49248e-05
7.32555e-05
7.16262e-05
7.00359e-05
6.84832e-05
6.69672e-05
6.54867e-05
6.40407e-05
6.26283e-05
6.12486e-05
5.99005e-05
5.85833e-05
5.72961e-05
5.60382e-05
5.48087e-05
5.36069e-05
5.24322e-05
5.12838e-05
5.01611e-05
4.90634e-05
4.79901e-05
4.69406e-05
4.59143e-05
4.49106e-05
4.3929e-05
4.2969e-05
4.20301e-05
4.11118e-05
4.02135e-05
3.93349e-05
3.84755e-05
3.76347e-05
3.68123e-05
3.60078e-05
3.52208e-05
3.44509e-05
3.36979e-05
3.29612e-05
3.22406e-05
3.15356e-05
3.08459e-05
3.01712e-05
2.95112e-05
2.88655e-05
2.82339e-05
2.76161e-05
2.70117e-05
2.64205e-05
2.58422e-05
2.52765e-05
2.47231e-05
2.41817e-05
2.36522e-05
2.31342e-05
2.26276e-05
2.21321e-05
2.16476e-05
2.11736e-05
2.071e-05
2.02566e-05
1.98131e-05
1.93792e-05
1.89549e-05
1.85399e-05
1.8134e-05
1.77371e-05
1.73489e-05
1.69693e-05
1.6598e-05
1.62347e-05
1.58793e-05
1.55318e-05
1.51918e-05
1.48594e-05
1.45342e-05
1.42162e-05
1.39051e-05
1.36009e-05
1.33033e-05
1.30122e-05
1.27274e-05
1.24487e-05
1.21759e-05
1.19092e-05
1.16483e-05
1.13933e-05
1.11438e-05
1.08998e-05
1.06608e-05
1.04269e-05
1.01981e-05
9.97426e-06
9.75541e-06
9.54136e-06
9.33192e-06
9.12697e-06
8.92644e-06
8.73034e-06
8.5386e-06
8.35106e-06
8.16748e-06
7.9877e-06
7.81168e-06
7.63955e-06
7.47139e-06
7.30717e-06
7.14666e-06
6.98951e-06
6.8355e-06
6.68458e-06
6.53689e-06
6.39259e-06
6.2517e-06
6.11403e-06
5.97932e-06
5.84734e-06
5.71809e-06
5.59164e-06
5.46808e-06
5.34731e-06
5.2291e-06
5.11321e-06
4.99956e-06
4.8883e-06
4.77962e-06
4.67361e-06
4.5701e-06
4.46872e-06
4.36912e-06
4.27116e-06
4.17501e-06
4.08097e-06
3.98927e-06
3.89984e-06
3.81237e-06
3.72651e-06
3.64205e-06
3.55901e-06
3.4776e-06
3.39791e-06
3.31991e-06
3.24338e-06
3.16812e-06
3.09408e-06
3.02138e-06
2.95018e-06
2.88045e-06
2.81194e-06
2.74427e-06
2.67716e-06
2.61061e-06
2.54493e-06
2.48046e-06
2.41738e-06
2.35547e-06
2.29424e-06
2.23321e-06
2.17214e-06
2.1112e-06
2.05077e-06
1.99115e-06
1.9324e-06
1.87425e-06
1.81631e-06
1.75835e-06
1.70042e-06
1.64276e-06
1.5856e-06
1.52897e-06
1.47264e-06
1.41633e-06
1.35995e-06
1.30372e-06
1.24811e-06
1.19354e-06
1.14008e-06
1.08738e-06
1.03485e-06
9.82012e-07
9.28882e-07
8.75997e-07
8.2419e-07
7.74131e-07
7.25951e-07
6.79143e-07
6.32835e-07
5.86275e-07
5.3926e-07
4.9228e-07
4.46279e-07
4.0217e-07
3.60372e-07
3.20611e-07
2.82087e-07
2.43907e-07
2.05564e-07
1.67192e-07
1.29487e-07
9.33529e-08
5.94548e-08
2.79152e-08
-1.70303e-09
-3.01487e-08
-5.80931e-08
-8.58206e-08
-1.13118e-07
-1.39427e-07
-1.6413e-07
-1.86862e-07
-2.0765e-07
-2.26891e-07
-2.45126e-07
-2.62811e-07
-2.80115e-07
-2.96912e-07
-3.12854e-07
-3.27601e-07
-3.40947e-07
-3.52944e-07
-3.63821e-07
-3.73926e-07
-3.83516e-07
-3.92739e-07
-4.01526e-07
-4.0975e-07
-4.17205e-07
-4.23828e-07
-4.29594e-07
-4.34676e-07
-4.39203e-07
-4.43401e-07
-4.47304e-07
-4.51006e-07
-4.54376e-07
-4.57442e-07
-4.60042e-07
-4.62306e-07
-4.64135e-07
-4.65782e-07
-4.67144e-07
-4.68505e-07
-4.69648e-07
-4.70851e-07
-4.71768e-07
-4.72737e-07
-4.73329e-07
-4.74028e-07
-4.74319e-07
-4.74857e-07
-4.74977e-07
-4.75503e-07
-4.75536e-07
-4.7611e-07
-4.76036e-07
-4.76647e-07
-4.76408e-07
-4.77062e-07
-4.76638e-07
-4.77405e-07
-4.7681e-07
-4.77788e-07
-4.77015e-07
-4.78285e-07
-4.77281e-07
-4.78915e-07
-4.77593e-07
-4.79685e-07
-4.77949e-07
-4.8064e-07
-4.78388e-07
-4.81868e-07
-4.78969e-07
-4.83474e-07
-4.7976e-07
-4.85572e-07
-4.80829e-07
-4.8829e-07
-4.82279e-07
-4.91789e-07
-4.84258e-07
-4.96248e-07
-4.86986e-07
-5.01809e-07
-4.9075e-07
-5.08413e-07
-4.95899e-07
-5.15349e-07
-5.02757e-07
-5.1993e-07
-5.11301e-07
-5.13206e-07
-5.20069e-07
-4.62469e-07
-5.20636e-07
-1.73403e-07
-3.59418e-07
-3.59418e-07
-0.122226
0.122226
0.121664
0.0822682
0.0539951
0.0368644
0.0263936
0.0197167
0.015266
0.0121806
0.00996888
0.00833713
0.00710217
0.00614578
0.00538944
0.00477978
0.00427978
0.00386328
0.00351153
0.0032108
0.00295095
0.0027243
0.002525
0.0023485
0.00219119
0.00205023
0.00192328
0.00180845
0.00170416
0.00160911
0.00152219
0.00144245
0.0013691
0.00130144
0.00123889
0.00118091
0.00112706
0.00107695
0.00103022
0.000986555
0.000945694
0.000907389
0.000871423
0.000837602
0.000805752
0.000775716
0.000747353
0.000720535
0.000695148
0.000671086
0.000648255
0.000626567
0.000605944
0.000586313
0.000567609
0.000549769
0.00053274
0.000516469
0.000500909
0.000486017
0.000471752
0.000458078
0.00044496
0.000432366
0.000420266
0.000408633
0.000397441
0.000386667
0.000376289
0.000366285
0.000356637
0.000347327
0.000338337
0.000329652
0.000321258
0.00031314
0.000305285
0.000297682
0.000290319
0.000283184
0.000276269
0.000269564
0.000263059
0.000256747
0.000250619
0.000244667
0.000238885
0.000233266
0.000227804
0.000222492
0.000217326
0.000212298
0.000207405
0.000202642
0.000198003
0.000193486
0.000189084
0.000184795
0.000180614
0.000176539
0.000172565
0.00016869
0.00016491
0.000161223
0.000157624
0.000154113
0.000150685
0.000147339
0.000144072
0.000140883
0.000137768
0.000134725
0.000131753
0.00012885
0.000126013
0.000123241
0.000120532
0.000117885
0.000115298
0.000112769
0.000110297
0.000107881
0.000105518
0.000103209
0.00010095
9.87418e-05
9.65823e-05
9.44706e-05
9.24054e-05
9.03858e-05
8.84105e-05
8.64787e-05
8.45891e-05
8.27409e-05
8.0933e-05
7.91647e-05
7.7435e-05
7.57431e-05
7.40882e-05
7.24695e-05
7.08861e-05
6.93372e-05
6.78221e-05
6.634e-05
6.48901e-05
6.34719e-05
6.20846e-05
6.07276e-05
5.94003e-05
5.8102e-05
5.6832e-05
5.55899e-05
5.43748e-05
5.31863e-05
5.20237e-05
5.08866e-05
4.97744e-05
4.86868e-05
4.7623e-05
4.65827e-05
4.55652e-05
4.45701e-05
4.35968e-05
4.26449e-05
4.17139e-05
4.08033e-05
3.99128e-05
3.90419e-05
3.81903e-05
3.73575e-05
3.6543e-05
3.57464e-05
3.49671e-05
3.42049e-05
3.34595e-05
3.27304e-05
3.20175e-05
3.13203e-05
3.06383e-05
2.99713e-05
2.9319e-05
2.86809e-05
2.80568e-05
2.74462e-05
2.68488e-05
2.62643e-05
2.56926e-05
2.51336e-05
2.45869e-05
2.40523e-05
2.35292e-05
2.30171e-05
2.2516e-05
2.20257e-05
2.15462e-05
2.10774e-05
2.06188e-05
2.01701e-05
1.97311e-05
1.93016e-05
1.88815e-05
1.84708e-05
1.8069e-05
1.76758e-05
1.72908e-05
1.6914e-05
1.65456e-05
1.61856e-05
1.58339e-05
1.54901e-05
1.51535e-05
1.48237e-05
1.45007e-05
1.41848e-05
1.3876e-05
1.35745e-05
1.32798e-05
1.29914e-05
1.27089e-05
1.24323e-05
1.21618e-05
1.18974e-05
1.16389e-05
1.13858e-05
1.11378e-05
1.08947e-05
1.06568e-05
1.04243e-05
1.01975e-05
9.97577e-06
9.75853e-06
9.54518e-06
9.33554e-06
9.12993e-06
8.92887e-06
8.73264e-06
8.54105e-06
8.35349e-06
8.16933e-06
7.98824e-06
7.81031e-06
7.63584e-06
7.465e-06
7.29763e-06
7.13332e-06
6.97173e-06
6.81278e-06
6.65669e-06
6.50364e-06
6.35355e-06
6.20588e-06
6.05998e-06
5.91538e-06
5.77219e-06
5.63091e-06
5.49213e-06
5.356e-06
5.22204e-06
5.08935e-06
4.9571e-06
4.82499e-06
4.69336e-06
4.56287e-06
4.43402e-06
4.30677e-06
4.18061e-06
4.05487e-06
3.92919e-06
3.80372e-06
3.6789e-06
3.55512e-06
3.43236e-06
3.31022e-06
3.18824e-06
3.06638e-06
2.94511e-06
2.82527e-06
2.70751e-06
2.59185e-06
2.47762e-06
2.36379e-06
2.2497e-06
2.13554e-06
2.02238e-06
1.91168e-06
1.80448e-06
1.70083e-06
1.5997e-06
1.49956e-06
1.39925e-06
1.29863e-06
1.19876e-06
1.10135e-06
1.00789e-06
9.18919e-07
8.33769e-07
7.50962e-07
6.69016e-07
5.87235e-07
5.06062e-07
4.26846e-07
3.51152e-07
2.80009e-07
2.13443e-07
1.50547e-07
8.9975e-08
3.06361e-08
-2.78205e-08
-8.48862e-08
-1.39528e-07
-1.90711e-07
-2.37922e-07
-2.81352e-07
-3.21794e-07
-3.60218e-07
-3.97374e-07
-4.33468e-07
-4.68204e-07
-5.00954e-07
-5.3116e-07
-5.58539e-07
-5.83279e-07
-6.05843e-07
-6.26862e-07
-6.46764e-07
-6.6577e-07
-6.83722e-07
-7.00391e-07
-7.15435e-07
-7.28793e-07
-7.40472e-07
-7.50826e-07
-7.6009e-07
-7.68676e-07
-7.76614e-07
-7.84075e-07
-7.90799e-07
-7.96874e-07
-8.02008e-07
-8.06485e-07
-8.10126e-07
-8.13424e-07
-8.16163e-07
-8.18888e-07
-8.21153e-07
-8.23509e-07
-8.25273e-07
-8.27131e-07
-8.28245e-07
-8.29581e-07
-8.30126e-07
-8.31171e-07
-8.31392e-07
-8.32415e-07
-8.32455e-07
-8.33557e-07
-8.33367e-07
-8.34531e-07
-8.34014e-07
-8.35273e-07
-8.34401e-07
-8.35898e-07
-8.34697e-07
-8.36616e-07
-8.35063e-07
-8.3756e-07
-8.35544e-07
-8.38759e-07
-8.36113e-07
-8.4024e-07
-8.36779e-07
-8.42103e-07
-8.37625e-07
-8.44526e-07
-8.38772e-07
-8.47718e-07
-8.40349e-07
-8.51905e-07
-8.42501e-07
-8.57358e-07
-8.45436e-07
-8.64413e-07
-8.49463e-07
-8.73454e-07
-8.55018e-07
-8.84808e-07
-8.62672e-07
-8.98443e-07
-8.73088e-07
-9.13127e-07
-8.86819e-07
-9.23979e-07
-9.03514e-07
-9.14636e-07
-9.19119e-07
-8.26593e-07
-9.11385e-07
-3.55538e-07
-5.95887e-07
-5.95887e-07
-0.0942784
0.0942784
0.121016
0.09697
0.0717942
0.0531988
0.0402018
0.0311124
0.0246587
0.0199862
0.0165332
0.0139292
0.0119263
0.0103566
0.00910426
0.00808815
0.00725082
0.00655092
0.00595835
0.00545085
0.00501175
0.00462841
0.00429109
0.00399218
0.00372567
0.00348674
0.00327149
0.00307672
0.00289978
0.00273845
0.00259087
0.00245546
0.00233085
0.0022159
0.00210957
0.00201101
0.00191945
0.00183421
0.00175471
0.00168042
0.00161088
0.00154567
0.00148444
0.00142685
0.00137261
0.00132145
0.00127313
0.00122744
0.00118418
0.00114318
0.00110427
0.0010673
0.00103215
0.000998679
0.00096679
0.000936373
0.000907336
0.00087959
0.000853055
0.000827658
0.00080333
0.000780008
0.000757633
0.000736152
0.000715514
0.000695672
0.000676582
0.000658205
0.000640502
0.000623439
0.000606982
0.000591101
0.000575768
0.000560955
0.000546637
0.000532791
0.000519395
0.000506429
0.000493871
0.000481706
0.000469914
0.00045848
0.000447389
0.000436627
0.000426179
0.000416033
0.000406177
0.000396599
0.000387289
0.000378236
0.00036943
0.000360863
0.000352526
0.000344409
0.000336507
0.00032881
0.000321312
0.000314006
0.000306886
0.000299945
0.000293178
0.000286579
0.000280143
0.000273864
0.000267739
0.000261761
0.000255927
0.000250232
0.000244672
0.000239244
0.000233943
0.000228766
0.00022371
0.00021877
0.000213945
0.00020923
0.000204623
0.000200121
0.000195721
0.000191421
0.000187218
0.00018311
0.000179093
0.000175167
0.000171328
0.000167574
0.000163904
0.000160315
0.000156805
0.000153373
0.000150017
0.000146735
0.000143524
0.000140384
0.000137313
0.00013431
0.000131372
0.000128498
0.000125688
0.000122939
0.00012025
0.00011762
0.000115047
0.000112531
0.00011007
0.000107662
0.000105307
0.000103004
0.000100751
9.85471e-05
9.63919e-05
9.42838e-05
9.22219e-05
9.02052e-05
8.82326e-05
8.63034e-05
8.44167e-05
8.25716e-05
8.07671e-05
7.90025e-05
7.72767e-05
7.55889e-05
7.39384e-05
7.23241e-05
7.07453e-05
6.92013e-05
6.76915e-05
6.6215e-05
6.47713e-05
6.33595e-05
6.19788e-05
6.06285e-05
5.93078e-05
5.80161e-05
5.67528e-05
5.55175e-05
5.43094e-05
5.31281e-05
5.19727e-05
5.08427e-05
4.97375e-05
4.86567e-05
4.75995e-05
4.65652e-05
4.55534e-05
4.45636e-05
4.35954e-05
4.26488e-05
4.17231e-05
4.08177e-05
3.99319e-05
3.90649e-05
3.82166e-05
3.73866e-05
3.6575e-05
3.57814e-05
3.50051e-05
3.42457e-05
3.35027e-05
3.27758e-05
3.20649e-05
3.13698e-05
3.06899e-05
3.00245e-05
2.93732e-05
2.87358e-05
2.81126e-05
2.75036e-05
2.69087e-05
2.63269e-05
2.57574e-05
2.51996e-05
2.46534e-05
2.41192e-05
2.35972e-05
2.30873e-05
2.25889e-05
2.21011e-05
2.16234e-05
2.11558e-05
2.06985e-05
2.02515e-05
1.98143e-05
1.93864e-05
1.89672e-05
1.85563e-05
1.81543e-05
1.77615e-05
1.73779e-05
1.70029e-05
1.66354e-05
1.62746e-05
1.59202e-05
1.55728e-05
1.5233e-05
1.49012e-05
1.45771e-05
1.42596e-05
1.39478e-05
1.36413e-05
1.33402e-05
1.3045e-05
1.27558e-05
1.24723e-05
1.21939e-05
1.19201e-05
1.16508e-05
1.13862e-05
1.11266e-05
1.08718e-05
1.0621e-05
1.03731e-05
1.01276e-05
9.88458e-06
9.64482e-06
9.4091e-06
9.17754e-06
8.94934e-06
8.72314e-06
8.49774e-06
8.27279e-06
8.04881e-06
7.82679e-06
7.60738e-06
7.39045e-06
7.17518e-06
6.9606e-06
6.74625e-06
6.53238e-06
6.31967e-06
6.10867e-06
5.89933e-06
5.69105e-06
5.48323e-06
5.27586e-06
5.06972e-06
4.86602e-06
4.66568e-06
4.46867e-06
4.27394e-06
4.08007e-06
3.88621e-06
3.69277e-06
3.50144e-06
3.31433e-06
3.13284e-06
2.95689e-06
2.78489e-06
2.61462e-06
2.44454e-06
2.27465e-06
2.10663e-06
1.94303e-06
1.78592e-06
1.63592e-06
1.49189e-06
1.35164e-06
1.21309e-06
1.0754e-06
9.39418e-07
8.07198e-07
6.81001e-07
5.62192e-07
4.50641e-07
3.44905e-07
2.43003e-07
1.43427e-07
4.57994e-08
-4.90229e-08
-1.39498e-07
-2.24177e-07
-3.02436e-07
-3.74688e-07
-4.42182e-07
-5.06347e-07
-5.6823e-07
-6.28054e-07
-6.85328e-07
-7.39124e-07
-7.88681e-07
-8.33666e-07
-8.74448e-07
-9.11761e-07
-9.46549e-07
-9.79411e-07
-1.01064e-06
-1.03998e-06
-1.06709e-06
-1.0915e-06
-1.11319e-06
-1.1322e-06
-1.14912e-06
-1.16428e-06
-1.17831e-06
-1.19123e-06
-1.2033e-06
-1.21411e-06
-1.22384e-06
-1.23205e-06
-1.23923e-06
-1.24508e-06
-1.2504e-06
-1.25483e-06
-1.25922e-06
-1.26284e-06
-1.26658e-06
-1.26934e-06
-1.27226e-06
-1.27397e-06
-1.27608e-06
-1.27691e-06
-1.27858e-06
-1.27891e-06
-1.28055e-06
-1.28056e-06
-1.28232e-06
-1.28194e-06
-1.28379e-06
-1.28289e-06
-1.28491e-06
-1.28345e-06
-1.28588e-06
-1.28388e-06
-1.28701e-06
-1.28443e-06
-1.28849e-06
-1.28515e-06
-1.29038e-06
-1.286e-06
-1.29273e-06
-1.28701e-06
-1.29571e-06
-1.28832e-06
-1.29961e-06
-1.29012e-06
-1.30476e-06
-1.2926e-06
-1.31153e-06
-1.29601e-06
-1.32038e-06
-1.30067e-06
-1.33186e-06
-1.30708e-06
-1.34663e-06
-1.31593e-06
-1.36528e-06
-1.32809e-06
-1.3879e-06
-1.34457e-06
-1.41285e-06
-1.3661e-06