# vtk DataFile Version 2.0
FlowField
ASCII
DATASET STRUCTURED_GRID
DIMENSIONS 400 1 50
POINTS 20000 float
0 0 0
0.08 0 0
0.16 0 0
0.24 0 0
0.32 0 0
0.4 0 0
0.48 0 0
0.56 0 0
0.64 0 0
0.72 0 0
0.8 0 0
0.88 0 0
0.96 0 0
1.04 0 0
1.12 0 0
1.2 0 0
1.28 0 0
1.36 0 0
1.44 0 0
1.52 0 0
1.6 0 0
1.68 0 0
1.76 0 0
1.84 0 0
1.92 0 0
2 0 0
2.08 0 0
2.16 0 0
2.24 0 0
2.32 0 0
2.4 0 0
2.48 0 0
2.56 0 0
2.64 0 0
2.72 0 0
2.8 0 0
2.88 0 0
2.96 0 0
3.04 0 0
3.12 0 0
3.2 0 0
3.28 0 0
3.36 0 0
3.44 0 0
3.52 0 0
3.6 0 0
3.68 0 0
3.76 0 0
3.84 0 0
3.92 0 0
4 0 0
4.08 0 0
4.16 0 0
4.24 0 0
4.32 0 0
4.4 0 0
4.48 0 0
4.56 0 0
4.64 0 0
4.72 0 0
4.8 0 0
4.88 0 0
4.96 0 0
5.04 0 0
5.12 0 0
5.2 0 0
5.28 0 0
5.36 0 0
5.44 0 0
5.52 0 0
5.6 0 0
5.68 0 0
5.76 0 0
5.84 0 0
5.92 0 0
6 0 0
6.08 0 0
6.16 0 0
6.24 0 0
6.32 0 0
6.4 0 0
6.48 0 0
6.56 0 0
6.64 0 0
6.72 0 0
6.8 0 0
6.88 0 0
6.96 0 0
7.04 0 0
7.12 0 0
7.2 0 0
7.28 0 0
7.36 0 0
7.44 0 0
7.52 0 0
7.6 0 0
7.68 0 0
7.76 0 0
7.84 0 0
7.92 0 0
8 0 0
8.08 0 0
8.16 0 0
8.24 0 0
8.32 0 0
8.4 0 0
8.48 0 0
8.56 0 0
8.64 0 0
8.72 0 0
8.8 0 0
8.88 0 0
8.96 0 0
9.04 0 0
9.12 0 0
9.2 0 0
9.28 0 0
9.36 0 0
9.44 0 0
9.52 0 0
9.6 0 0
9.68 0 0
9.76 0 0
9.84 0 0
9.92 0 0
10 0 0
10.08 0 0
10.16 0 0
10.24 0 0
10.32 0 0
10.4 0 0
10.48 0 0
10.56 0 0
10.64 0 0
10.72 0 0
10.8 0 0
10.88 0 0
10.96 0 0
11.04 0 0
11.12 0 0
11.2 0 0
11.28 0 0
11.36 0 0
11.44 0 0
11.52 0 0
11.6 0 0
11.68 0 0
11.76 0 0
11.84 0 0
11.92 0 0
12 0 0
12.08 0 0
12.16 0 0
12.24 0 0
12.32 0 0
12.4 0 0
12.48 0 0
12.56 0 0
12.64 0 0
12.72 0 0
12.8 0 0
12.88 0 0
12.96 0 0
13.04 0 0
13.12 0 0
13.2 0 0
13.28 0 0
13.36 0 0
13.44 0 0
13.52 0 0
13.6 0 0
13.68 0 0
13.76 0 0
13.84 0 0
13.92 0 0
14 0 0
14.08 0 0
14.16 0 0
14.24 0 0
14.32 0 0
14.4 0 0
14.48 0 0
14.56 0 0
14.64 0 0
14.72 0 0
14.8 0 0
14.88 0 0
14.96 0 0
15.04 0 0
15.12 0 0
15.2 0 0
15.28 0 0
15.36 0 0
15.44 0 0
15.52 0 0
15.6 0 0
15.68 0 0
15.76 0 0
15.84 0 0
15.92 0 0
16 0 0
16.08 0 0
16.16 0 0
16.24 0 0
16.32 0 0
16.4 0 0
16.48 0 0
16.56 0 0
16.64 0 0
16.72 0 0
16.8 0 0
16.88 0 0
16.96 0 0
17.04 0 0
17.12 0 0
17.2 0 0
17.28 0 0
17.36 0 0
17.44 0 0
17.52 0 0
17.6 0 0
17.68 0 0
17.76 0 0
17.84 0 0
17.92 0 0
18 0 0
18.08 0 0
18.16 0 0
18.24 0 0
18.32 0 0
18.4 0 0
18.48 0 0
18.56 0 0
18.64 0 0
18.72 0 0
18.8 0 0
18.88 0 0
18.96 0 0
19.04 0 0
19.12 0 0
19.2 0 0
19.28 0 0
19.36 0 0
19.44 0 0
19.52 0 0
19.6 0 0
19.68 0 0
19.76 0 0
19.84 0 0
19.92 0 0
20 0 0
20.08 0 0
20.16 0 0
20.24 0 0
20.32 0 0
20.4 0 0
20.48 0 0
20.56 0 0
20.64 0 0
20.72 0 0
20.8 0 0
20.88 0 0
20.96 0 0
21.04 0 0
21.12 0 0
21.2 0 0
21.28 0 0
21.36 0 0
21.44 0 0
21.52 0 0
21.6 0 0
21.68 0 0
21.76 0 0
21.84 0 0
21.92 0 0
22 0 0
22.08 0 0
22.16 0 0
22.24 0 0
22.32 0 0
22.4 0 0
22.48 0 0
22.56 0 0
22.64 0 0
22.72 0 0
22.8 0 0
22.88 0 0
22.96 0 0
23.04 0 0
23.12 0 0
23.2 0 0
23.28 0 0
23.36 0 0
23.44 0 0
23.52 0 0
23.6 0 0
23.68 0 0
23.76 0 0
23.84 0 0
23.92 0 0
24 0 0
24.08 0 0
24.16 0 0
24.24 0 0
24.32 0 0
24.4 0 0
24.48 0 0
24.56 0 0
24.64 0 0
24.72 0 0
24.8 0 0
24.88 0 0
24.96 0 0
25.04 0 0
25.12 0 0
25.2 0 0
25.28 0 0
25.36 0 0
25.44 0 0
25.52 0 0
25.6 0 0
25.68 0 0
25.76 0 0
25.84 0 0
25.92 0 0
26 0 0
26.08 0 0
26.16 0 0
26.24 0 0
26.32 0 0
26.4 0 0
26.48 0 0
26.56 0 0
26.64 0 0
26.72 0 0
26.8 0 0
26.88 0 0
26.96 0 0
27.04 0 0
27.12 0 0
27.2 0 0
27.28 0 0
27.36 0 0
27.44 0 0
27.52 0 0
27.6 0 0
27.68 0 0
27.76 0 0
27.84 0 0
27.92 0 0
28 0 0
28.08 0 0
28.16 0 0
28.24 0 0
28.32 0 0
28.4 0 0
28.48 0 0
28.56 0 0
28.64 0 0
28.72 0 0
28.8 0 0
28.88 0 0
28.96 0 0
29.04 0 0
29.12 0 0
29.2 0 0
29.28 0 0
29.36 0 0
29.44 0 0
29.52 0 0
29.6 0 0
29.68 0 0
29.76 0 0
29.84 0 0
29.92 0 0
30 0 0
30.08 0 0
30.16 0 0
30.24 0 0
30.32 0 0
30.4 0 0
30.48 0 0
30.56 0 0
30.64 0 0
30.72 0 0
30.8 0 0
30.88 0 0
30.96 0 0
31.04 0 0
31.12 0 0
31.2 0 0
31.28 0 0
31.36 0 0
31.44 0 0
31.52 0 0
31.6 0 0
31.68 0 0
31.76 0 0
31.84 0 0
31.92 0 0
0 0.02 0
0.08 0.02 0
0.16 0.02 0
0.24 0.02 0
0.32 0.02 0
0.4 0.02 0
0.48 0.02 0
0.56 0.02 0
0.64 0.02 0
0.72 0.02 0
0.8 0.02 0
0.88 0.02 0
0.96 0.02 0
1.04 0.02 0
1.12 0.02 0
1.2 0.02 0
1.28 0.02 0
1.36 0.02 0
1.44 0.02 0
1.52 0.02 0
1.6 0.02 0
1.68 0.02 0
1.76 0.02 0
1.84 0.02 0
1.92 0.02 0
2 0.02 0
2.08 0.02 0
2.16 0.02 0
2.24 0.02 0
2.32 0.02 0
2.4 0.02 0
2.48 0.02 0
2.56 0.02 0
2.64 0.02 0
2.72 0.02 0
2.8 0.02 0
2.88 0.02 0
2.96 0.02 0
3.04 0.02 0
3.12 0.02 0
3.2 0.02 0
3.28 0.02 0
3.36 0.02 0
3.44 0.02 0
3.52 0.02 0
3.6 0.02 0
3.68 0.02 0
3.76 0.02 0
3.84 0.02 0
3.92 0.02 0
4 0.02 0
4.08 0.02 0
4.16 0.02 0
4.24 0.02 0
4.32 0.02 0
4.4 0.02 0
4.48 0.02 0
4.56 0.02 0
4.64 0.02 0
4.72 0.02 0
4.8 0.02 0
4.88 0.02 0
4.96 0.02 0
5.04 0.02 0
5.12 0.02 0
5.2 0.02 0
5.28 0.02 0
5.36 0.02 0
5.44 0.02 0
5.52 0.02 0
5.6 0.02 0
5.68 0.02 0
5.76 0.02 0
5.84 0.02 0
5.92 0.02 0
6 0.02 0
6.08 0.02 0
6.16 0.02 0
6.24 0.02 0
6.32 0.02 0
6.4 0.02 0
6.48 0.02 0
6.56 0.02 0
6.64 0.02 0
6.72 0.02 0
6.8 0.02 0
6.88 0.02 0
6.96 0.02 0
7.04 0.02 0
7.12 0.02 0
7.2 0.02 0
7.28 0.02 0
7.36 0.02 0
7.44 0.02 0
7.52 0.02 0
7.6 0.02 0
7.68 0.02 0
7.76 0.02 0
7.84 0.02 0
7.92 0.02 0
8 0.02 0
8.08 0.02 0
8.16 0.02 0
8.24 0.02 0
8.32 0.02 0
8.4 0.02 0
8.48 0.02 0
8.56 0.02 0
8.64 0.02 0
8.72 0.02 0
8.8 0.02 0
8.88 0.02 0
8.96 0.02 0
9.04 0.02 0
9.12 0.02 0
9.2 0.02 0
9.28 0.02 0
9.36 0.02 0
9.44 0.02 0
9.52 0.02 0
9.6 0.02 0
9.68 0.02 0
9.76 0.02 0
9.84 0.02 0
9.92 0.02 0
10 0.02 0
10.08 0.02 0
10.16 0.02 0
10.24 0.02 0
10.32 0.02 0
10.4 0.02 0
10.48 0.02 0
10.56 0.02 0
10.64 0.02 0
10.72 0.02 0
10.8 0.02 0
10.88 0.02 0
10.96 0.02 0
11.04 0.02 0
11.12 0.02 0
11.2 0.02 0
11.28 0.02 0
11.36 0.02 0
11.44 0.02 0
11.52 0.02 0
11.6 0.02 0
11.68 0.02 0
11.76 0.02 0
11.84 0.02 0
11.92 0.02 0
12 0.02 0
12.08 0.02 0
12.16 0.02 0
12.24 0.02 0
12.32 0.02 0
12.4 0.02 0
12.48 0.02 0
12.56 0.02 0
12.64 0.02 0
12.72 0.02 0
12.8 0.02 0
12.88 0.02 0
12.96 0.02 0
13.04 0.02 0
13.12 0.02 0
13.2 0.02 0
13.28 0.02 0
13.36 0.02 0
13.44 0.02 0
13.52 0.02 0
13.6 0.02 0
13.68 0.02 0
13.76 0.02 0
13.84 0.02 0
13.92 0.02 0
14 0.02 0
14.08 0.02 0
14.16 0.02 0
14.24 0.02 0
14.32 0.02 0
14.4 0.02 0
14.48 0.02 0
14.56 0.02 0
14.64 0.02 0
14.72 0.02 0
14.8 0.02 0
14.88 0.02 0
14.96 0.02 0
15.04 0.02 0
15.12 0.02 0
15.2 0.02 0
15.28 0.02 0
15.36 0.02 0
15.44 0.02 0
15.52 0.02 0
15.6 0.02 0
15.68 0.02 0
15.76 0.02 0
15.84 0.02 0
15.92 0.02 0
16 0.02 0
16.08 0.02 0
16.16 0.02 0
16.24 0.02 0
16.32 0.02 0
16.4 0.02 0
16.48 0.02 0
16.56 0.02 0
16.64 0.02 0
16.72 0.02 0
16.8 0.02 0
16.88 0.02 0
16.96 0.02 0
17.04 0.02 0
17.12 0.02 0
17.2 0.02 0
17.28 0.02 0
17.36 0.02 0
17.44 0.02 0
17.52 0.02 0
17.6 0.02 0
17.68 0.02 0
17.76 0.02 0
17.84 0.02 0
17.92 0.02 0
18 0.02 0
18.08 0.02 0
18.16 0.02 0
18.24 0.02 0
18.32 0.02 0
18.4 0.02 0
18.48 0.02 0
18.56 0.02 0
18.64 0.02 0
18.72 0.02 0
18.8 0.02 0
18.88 0.02 0
18.96 0.02 0
19.04 0.02 0
19.12 0.02 0
19.2 0.02 0
19.28 0.02 0
19.36 0.02 0
19.44 0.02 0
19.52 0.02 0
19.6 0.02 0
19.68 0.02 0
19.76 0.02 0
19.84 0.02 0
19.92 0.02 0
20 0.02 0
20.08 0.02 0
20.16 0.02 0
20.24 0.02 0
20.32 0.02 0
20.4 0.02 0
20.48 0.02 0
20.56 0.02 0
20.64 0.02 0
20.72 0.02 0
20.8 0.02 0
20.88 0.02 0
20.96 0.02 0
21.04 0.02 0
21.12 0.02 0
21.2 0.02 0
21.28 0.02 0
21.36 0.02 0
21.44 0.02 0
21.52 0.02 0
21.6 0.02 0
21.68 0.02 0
21.76 0.02 0
21.84 0.02 0
21.92 0.02 0
22 0.02 0
22.08 0.02 0
22.16 0.02 0
22.24 0.02 0
22.32 0.02 0
22.4 0.02 0
22.48 0.02 0
22.56 0.02 0
22.64 0.02 0
22.72 0.02 0
22.8 0.02 0
22.88 0.02 0
22.96 0.02 0
23.04 0.02 0
23.12 0.02 0
23.2 0.02 0
23.28 0.02 0
23.36 0.02 0
23.44 0.02 0
23.52 0.02 0
23.6 0.02 0
23.68 0.02 0
23.76 0.02 0
23.84 0.02 0
23.92 0.02 0
24 0.02 0
24.08 0.02 0
24.16 0.02 0
24.24 0.02 0
24.32 0.02 0
24.4 0.02 0
24.48 0.02 0
24.56 0.02 0
24.64 0.02 0
24.72 0.02 0
24.8 0.02 0
24.88 0.02 0
24.96 0.02 0
25.04 0.02 0
25.12 0.02 0
25.2 0.02 0
25.28 0.02 0
25.36 0.02 0
25.44 0.02 0
25.52 0.02 0
25.6 0.02 0
25.68 0.02 0
25.76 0.02 0
25.84 0.02 0
25.92 0.02 0
26 0.02 0
26.08 0.02 0
26.16 0.02 0
26.24 0.02 0
26.32 0.02 0
26.4 0.02 0
26.48 0.02 0
26.56 0.02 0
26.64 0.02 0
26.72 0.02 0
26.8 0.02 0
26.88 0.02 0
26.96 0.02 0
27.04 0.02 0
27.12 0.02 0
27.2 0.02 0
27.28 0.02 0
27.36 0.02 0
27.44 0.02 0
27.52 0.02 0
27.6 0.02 0
27.68 0.02 0
27.76 0.02 0
27.84 0.02 0
27.92 0.02 0
28 0.02 0
28.08 0.02 0
28.16 0.02 0
28.24 0.02 0
28.32 0.02 0
28.4 0.02 0
28.48 0.02 0
28.56 0.02 0
28.64 0.02 0
28.72 0.02 0
28.8 0.02 0
28.88 0.02 0
28.96 0.02 0
29.04 0.02 0
29.12 0.02 0
29.2 0.02 0
29.28 0.02 0
29.36 0.02 0
29.44 0.02 0
29.52 0.02 0
29.6 0.02 0
29.68 0.02 0
29.76 0.02 0
29.84 0.02 0
29.92 0.02 0
30 0.02 0
30.08 0.02 0
30.16 0.02 0
30.24 0.02 0
30.32 0.02 0
30.4 0.02 0
30.48 0.02 0
30.56 0.02 0
30.64 0.02 0
30.72 0.02 0
30.8 0.02 0
30.88 0.02 0
30.96 0.02 0
31.04 0.02 0
31.12 0.02 0
31.2 0.02 0
31.28 0.02 0
31.36 0.02 0
31.44 0.02 0
31.52 0.02 0
31.6 0.02 0
31.68 0.02 0
31.76 0.02 0
31.84 0.02 0
31.92 0.02 0
0 0.04 0
0.08 0.04 0
0.16 0.04 0
0.24 0.04 0
0.32 0.04 0
0.4 0.04 0
0.48 0.04 0
0.56 0.04 0
0.64 0.04 0
0.72 0.04 0
0.8 0.04 0
0.88 0.04 0
0.96 0.04 0
1.04 0.04 0
1.12 0.04 0
1.2 0.04 0
1.28 0.04 0
1.36 0.04 0
1.44 0.04 0
1.52 0.04 0
1.6 0.04 0
1.68 0.04 0
1.76 0.04 0
1.84 0.04 0
1.92 0.04 0
2 0.04 0
2.08 0.04 0
2.16 0.04 0
2.24 0.04 0
2.32 0.04 0
2.4 0.04 0
2.48 0.04 0
2.56 0.04 0
2.64 0.04 0
2.72 0.04 0
2.8 0.04 0
2.88 0.04 0
2.96 0.04 0
3.04 0.04 0
3.12 0.04 0
3.2 0.04 0
3.28 0.04 0
3.36 0.04 0
3.44 0.04 0
3.52 0.04 0
3.6 0.04 0
3.68 0.04 0
3.76 0.04 0
3.84 0.04 0
3.92 0.04 0
4 0.04 0
4.08 0.04 0
4.16 0.04 0
4.24 0.04 0
4.32 0.04 0
4.4 0.04 0
4.48 0.04 0
4.56 0.04 0
4.64 0.04 0
4.72 0.04 0
4.8 0.04 0
4.88 0.04 0
4.96 0.04 0
5.04 0.04 0
5.12 0.04 0
5.2 0.04 0
5.28 0.04 0
5.36 0.04 0
5.44 0.04 0
5.52 0.04 0
5.6 0.04 0
5.68 0.04 0
5.76 0.04 0
5.84 0.04 0
5.92 0.04 0
6 0.04 0
6.08 0.04 0
6.16 0.04 0
6.24 0.04 0
6.32 0.04 0
6.4 0.04 0
6.48 0.04 0
6.56 0.04 0
6.64 0.04 0
6.72 0.04 0
6.8 0.04 0
6.88 0.04 0
6.96 0.04 0
7.04 0.04 0
7.12 0.04 0
7.2 0.04 0
7.28 0.04 0
7.36 0.04 0
7.44 0.04 0
7.52 0.04 0
7.6 0.04 0
7.68 0.04 0
7.76 0.04 0
7.84 0.04 0
[...]
POINT_DATA 20000

SCALARS u float 1
LOOKUP_TABLE default
0
-0.50709
-0.29192
-0.214162
-0.179027
-0.158666
-0.145113
-0.135361
-0.127969
-0.122142
-0.117404
-0.113453
-0.110089
-0.107176
-0.104618
-0.102345
-0.100305
-0.0984605
-0.0967807
-0.0952423
-0.0938263
-0.0925174
-0.0913029
-0.0901723
-0.0891164
-0.0881278
-0.0871997
-0.0863266
-0.0855034
-0.0847257
-0.0839897
-0.0832919
-0.0826294
-0.0819994
-0.0813995
-0.0808274
-0.0802813
-0.0797592
-0.0792597
-0.0787812
-0.0783224
-0.077882
-0.077459
-0.0770523
-0.0766609
-0.0762841
-0.0759209
-0.0755706
-0.0752326
-0.0749062
-0.0745909
-0.074286
-0.073991
-0.0737056
-0.0734291
-0.0731613
-0.0729018
-0.0726501
-0.0724059
-0.0721689
-0.0719388
-0.0717153
-0.0714982
-0.0712872
-0.071082
-0.0708824
-0.0706883
-0.0704994
-0.0703155
-0.0701364
-0.0699621
-0.0697922
-0.0696267
-0.0694654
-0.0693082
-0.0691549
-0.0690054
-0.0688596
-0.0687174
-0.0685786
-0.0684432
-0.0683111
-0.0681821
-0.0680562
-0.0679332
-0.0678132
-0.0676959
-0.0675814
-0.0674696
-0.0673603
-0.0672535
-0.0671492
-0.0670473
-0.0669477
-0.0668503
-0.0667551
-0.0666621
-0.0665712
-0.0664823
-0.0663954
-0.0663104
-0.0662274
-0.0661461
-0.0660667
-0.065989
-0.065913
-0.0658387
-0.0657661
-0.065695
-0.0656255
-0.0655575
-0.065491
-0.0654259
-0.0653623
-0.0653
-0.0652391
-0.0651795
-0.0651213
-0.0650643
-0.0650085
-0.0649539
-0.0649005
-0.0648483
-0.0647972
-0.0647472
-0.0646983
-0.0646504
-0.0646036
-0.0645578
-0.064513
-0.0644691
-0.0644262
-0.0643842
-0.0643432
-0.064303
-0.0642637
-0.0642252
-0.0641875
-0.0641507
-0.0641147
-0.0640794
-0.0640449
-0.0640112
-0.0639782
-0.0639459
-0.0639143
-0.0638833
-0.0638531
-0.0638235
-0.0637945
-0.0637662
-0.0637385
-0.0637114
-0.0636848
-0.0636589
-0.0636335
-0.0636086
-0.0635843
-0.0635605
-0.0635372
-0.0635145
-0.0634922
-0.0634704
-0.0634491
-0.0634282
-0.0634078
-0.0633879
-0.0633683
-0.0633492
-0.0633305
-0.0633122
-0.0632943
-0.0632768
-0.0632597
-0.0632429
-0.0632265
-0.0632105
-0.0631948
-0.0631795
-0.0631644
-0.0631497
-0.0631353
-0.0631213
-0.0631075
-0.063094
-0.0630809
-0.063068
-0.0630553
-0.063043
-0.0630309
-0.0630191
-0.0630075
-0.0629962
-0.0629852
-0.0629743
-0.0629637
-0.0629534
-0.0629432
-0.0629333
-0.0629236
-0.0629141
-0.0629048
-0.0628957
-0.0628868
-0.062878
-0.0628695
-0.0628612
-0.062853
-0.062845
-0.0628372
-0.0628296
-0.0628221
-0.0628147
-0.0628076
-0.0628006
-0.0627937
-0.062787
-0.0627804
-0.062774
-0.0627677
-0.0627615
-0.0627555
-0.0627496
-0.0627438
-0.0627382
-0.0627326
-0.0627272
-0.0627219
-0.0627167
-0.0627117
-0.0627067
-0.0627018
-0.0626971
-0.0626924
-0.0626879
-0.0626834
-0.0626791
-0.0626748
-0.0626706
-0.0626665
-0.0626625
-0.0626586
-0.0626548
-0.062651
-0.0626473
-0.0626437
-0.0626402
-0.0626368
-0.0626334
-0.0626301
-0.0626269
-0.0626237
-0.0626206
-0.0626176
-0.0626146
-0.0626117
-0.0626089
-0.0626061
-0.0626034
-0.0626007
-0.0625981
-0.0625956
-0.0625931
-0.0625907
-0.0625883
-0.062586
-0.0625837
-0.0625814
-0.0625793
-0.0625771
-0.062575
-0.062573
-0.062571
-0.062569
-0.0625671
-0.0625653
-0.0625634
-0.0625617
-0.0625599
-0.0625582
-0.0625566
-0.062555
-0.0625534
-0.0625519
-0.0625504
-0.0625489
-0.0625475
-0.0625462
-0.0625448
-0.0625435
-0.0625423
-0.0625411
-0.0625399
-0.0625388
-0.0625376
-0.0625366
-0.0625356
-0.0625346
-0.0625336
-0.0625327
-0.0625318
-0.062531
-0.0625302
-0.0625294
-0.0625286
-0.0625279
-0.0625273
-0.0625266
-0.062526
-0.0625254
-0.0625249
-0.0625244
-0.0625239
-0.0625234
-0.062523
-0.0625226
-0.0625222
-0.0625219
-0.0625216
-0.0625213
-0.062521
-0.0625208
-0.0625206
-0.0625204
-0.0625202
-0.06252
-0.0625199
-0.0625198
-0.0625197
-0.0625196
-0.0625196
-0.0625195
-0.0625195
-0.0625195
-0.0625195
-0.0625195
-0.0625195
-0.0625195
-0.0625196
-0.0625197
-0.0625197
-0.0625198
-0.0625199
-0.06252
-0.0625201
-0.0625202
-0.0625203
-0.0625204
-0.0625205
-0.0625207
-0.0625208
-0.0625209
-0.0625211
-0.0625212
-0.0625214
-0.0625215
-0.0625217
-0.0625219
-0.062522
-0.0625222
-0.0625223
-0.0625225
-0.0625227
-0.0625228
-0.062523
-0.0625232
-0.0625233
-0.0625235
-0.0625237
-0.0625239
-0.062524
-0.0625242
-0.0625244
-0.0625246
-0.0625247
-0.0625249
-0.0625251
-0.0625253
-0.0625255
-0.0625256
-0.0625258
-0.062526
-0.0625262
-0.0625264
-0.0625266
-0.0625267
-0.0625269
-0.0625271
-0.0625273
-0.0625275
-0.0625277
-0.0625279
-0.0625281
-0.0625284
-0.0625286
-0.0625287
-0.062529
-0.0625288
-0.0625288
-0.0625288
1
0.50709
0.29192
0.214162
0.179027
0.158666
0.145113
0.135361
0.127969
0.122142
0.117404
0.113453
0.110089
0.107176
0.104618
0.102345
0.100305
0.0984605
0.0967807
0.0952423
0.0938263
0.0925174
0.0913029
0.0901723
0.0891164
0.0881278
0.0871997
0.0863266
0.0855034
0.0847257
0.0839897
0.0832919
0.0826294
0.0819994
0.0813995
0.0808274
0.0802813
0.0797592
0.0792597
0.0787812
0.0783224
0.077882
0.077459
0.0770523
0.0766609
0.0762841
0.0759209
0.0755706
0.0752326
0.0749062
0.0745909
0.074286
0.073991
0.0737056
0.0734291
0.0731613
0.0729018
0.0726501
0.0724059
0.0721689
0.0719388
0.0717153
0.0714982
0.0712872
0.071082
0.0708824
0.0706883
0.0704994
0.0703155
0.0701364
0.0699621
0.0697922
0.0696267
0.0694654
0.0693082
0.0691549
0.0690054
0.0688596
0.0687174
0.0685786
0.0684432
0.0683111
0.0681821
0.0680562
0.0679332
0.0678132
0.0676959
0.0675814
0.0674696
0.0673603
0.0672535
0.0671492
0.0670473
0.0669477
0.0668503
0.0667551
0.0666621
0.0665712
0.0664823
0.0663954
0.0663104
0.0662274
0.0661461
0.0660667
0.065989
0.065913
0.0658387
0.0657661
0.065695
0.0656255
0.0655575
0.065491
0.0654259
0.0653623
0.0653
0.0652391
0.0651795
0.0651213
0.0650643
0.0650085
0.0649539
0.0649005
0.0648483
0.0647972
0.0647472
0.0646983
0.0646504
0.0646036
0.0645578
0.064513
0.0644691
0.0644262
0.0643842
0.0643432
0.064303
0.0642637
0.0642252
0.0641875
0.0641507
0.0641147
0.0640794
0.0640449
0.0640112
0.0639782
0.0639459
0.0639143
0.0638833
0.0638531
0.0638235
0.0637945
0.0637662
0.0637385
0.0637114
0.0636848
0.0636589
0.0636335
0.0636086
0.0635843
0.0635605
0.0635372
0.0635145
0.0634922
0.0634704
0.0634491
0.0634282
0.0634078
0.0633879
0.0633683
0.0633492
0.0633305
0.0633122
0.0632943
0.0632768
0.0632597
0.0632429
0.0632265
0.0632105
0.0631948
0.0631795
0.0631644
0.0631497
0.0631353
0.0631213
0.0631075
0.063094
0.0630809
0.063068
0.0630553
0.063043
0.0630309
0.0630191
0.0630075
0.0629962
0.0629852
0.0629743
0.0629637
0.0629534
0.0629432
0.0629333
0.0629236
0.0629141
0.0629048
0.0628957
0.0628868
0.062878
0.0628695
0.0628612
0.062853
0.062845
0.0628372
0.0628296
0.0628221
0.0628147
0.0628076
0.0628006
0.0627937
0.062787
0.0627804
0.062774
0.0627677
0.0627615
0.0627555
0.0627496
0.0627438
0.0627382
0.0627326
0.0627272
0.0627219
0.0627167
0.0627117
0.0627067
0.0627018
0.0626971
0.0626924
0.0626879
0.0626834
0.0626791
0.0626748
0.0626706
0.0626665
0.0626625
0.0626586
0.0626548
0.062651
0.0626473
0.0626437
0.0626402
0.0626368
0.0626334
0.0626301
0.0626269
0.0626237
0.0626206
0.0626176
0.0626146
0.0626117
0.0626089
0.0626061
0.0626034
0.0626007
0.0625981
0.0625956
0.0625931
0.0625907
0.0625883
0.062586
0.0625837
0.0625814
0.0625793
0.0625771
0.062575
0.062573
0.062571
0.062569
0.0625671
0.0625653
0.0625634
0.0625617
0.0625599
0.0625582
0.0625566
0.062555
0.0625534
0.0625519
0.0625504
0.0625489
0.0625475
0.0625462
0.0625448
0.0625435
0.0625423
0.0625411
0.0625399
0.0625388
0.0625376
0.0625366
0.0625356
0.0625346
0.0625336
0.0625327
0.0625318
0.062531
0.0625302
0.0625294
0.0625286
0.0625279
0.0625273
0.0625266
0.062526
0.0625254
0.0625249
0.0625244
0.0625239
0.0625234
0.062523
0.0625226
0.0625222
0.0625219
0.0625216
0.0625213
0.062521
0.0625208
0.0625206
0.0625204
0.0625202
0.06252
0.0625199
0.0625198
0.0625197
0.0625196
0.0625196
0.0625195
0.0625195
0.0625195
0.0625195
0.0625195
0.0625195
0.0625195
0.0625196
0.0625197
0.0625197
0.0625198
0.0625199
0.06252
0.0625201
0.0625202
0.0625203
0.0625204
0.0625205
0.0625207
0.0625208
0.0625209
0.0625211
0.0625212
0.0625214
0.0625215
0.0625217
0.0625219
0.062522
0.0625222
0.0625223
0.0625225
0.0625227
0.0625228
0.062523
0.0625232
0.0625233
0.0625235
0.0625237
0.0625239
0.062524
0.0625242
0.0625244
0.0625246
0.0625247
0.0625249
0.0625251
0.0625253
0.0625255
0.0625256
0.0625258
0.062526
0.0625262
0.0625264
0.0625266
0.0625267
0.0625269
0.0625271
0.0625273
0.0625275
0.0625277
0.0625279
0.0625281
0.0625284
0.0625286
0.0625287
0.062529
0.0625288
0.0625288
0.0625288
1
0.924297
0.735447
0.597551
0.511658
0.456344
0.418184
0.390281
0.368951
0.352067
0.33832
0.326861
0.317122
0.308705
0.301331
0.294794
0.288943
0.283662
0.278862
0.274474
0.270441
0.266717
0.263267
0.260057
0.257062
0.25426
0.251632
0.24916
0.246831
0.244632
0.242552
0.24058
0.238709
0.236931
0.235238
0.233624
0.232083
0.230612
0.229204
0.227855
0.226563
0.225322
0.224131
0.222986
0.221885
0.220824
0.219803
0.218818
0.217867
0.21695
0.216063
0.215207
0.214378
0.213576
0.2128
0.212048
0.211319
0.210613
0.209928
0.209263
0.208617
0.207991
0.207382
0.20679
0.206215
0.205656
0.205112
0.204583
0.204068
0.203566
0.203078
0.202603
0.202139
0.201688
0.201248
0.200819
0.200401
0.199993
0.199596
0.199208
0.198829
0.19846
0.1981
0.197748
0.197404
0.197069
0.196741
0.196422
0.196109
0.195804
0.195506
0.195215
0.194931
0.194653
0.194381
0.194116
0.193856
0.193603
0.193355
0.193112
0.192876
0.192644
0.192418
0.192196
0.19198
0.191768
0.191561
0.191359
0.191161
0.190967
0.190778
0.190593
0.190411
0.190234
0.190061
0.189892
0.189726
0.189564
0.189405
0.18925
0.189098
0.188949
0.188804
0.188662
0.188523
0.188387
0.188254
0.188124
0.187996
0.187872
0.18775
0.187631
0.187514
0.1874
0.187288
0.187179
0.187072
0.186968
0.186865
0.186765
0.186667
0.186571
0.186478
0.186386
0.186296
0.186209
0.186123
0.186039
0.185957
0.185876
0.185798
0.185721
0.185645
0.185572
0.1855
0.185429
0.18536
0.185293
0.185227
0.185162
0.185099
0.185037
0.184977
0.184918
0.18486
0.184804
0.184748
0.184694
0.184641
0.184589
0.184539
0.184489
0.18444
0.184393
0.184346
0.184301
0.184257
0.184213
0.184171
0.184129
0.184088
0.184048
0.184009
0.183971
0.183934
0.183897
0.183862
0.183827
0.183793
0.183759
0.183726
0.183694
0.183663
0.183632
0.183602
0.183573
0.183544
0.183516
0.183489
0.183462
0.183436
0.18341
0.183385
0.18336
0.183336
0.183312
0.183289
0.183267
0.183244
0.183223
0.183202
0.183181
0.183161
0.183141
0.183121
0.183102
0.183084
0.183066
0.183048
0.18303
0.183013
0.182997
0.18298
0.182964
0.182949
0.182933
0.182918
0.182904
0.182889
0.182875
0.182862
0.182848
0.182835
0.182822
0.18281
0.182797
0.182785
0.182773
0.182762
0.18275
0.182739
0.182729
0.182718
0.182708
0.182697
0.182687
0.182678
0.182668
0.182659
0.18265
0.182641
0.182632
0.182623
0.182615
0.182607
0.182599
0.182591
0.182583
0.182576
0.182568
0.182561
0.182554
0.182547
0.182541
0.182534
0.182527
0.182521
0.182515
0.182509
0.182503
0.182497
0.182492
0.182486
0.182481
0.182475
0.18247
0.182465
0.18246
0.182456
0.182451
0.182446
0.182442
0.182438
0.182434
0.182429
0.182426
0.182422
0.182418
0.182414
0.182411
0.182407
0.182404
0.182401
0.182398
0.182395
0.182392
0.182389
0.182387
0.182384
0.182381
0.182379
0.182377
0.182375
0.182373
0.182371
0.182369
0.182367
0.182365
0.182364
0.182362
0.182361
0.182359
0.182358
0.182357
0.182356
0.182355
0.182354
0.182353
0.182352
0.182352
0.182351
0.18235
0.18235
0.182349
0.182349
0.182349
0.182348
0.182348
0.182348
0.182348
0.182348
0.182348
0.182348
0.182348
0.182348
0.182348
0.182348
0.182348
0.182348
0.182348
0.182349
0.182349
0.182349
0.182349
0.18235
0.18235
0.18235
0.182351
0.182351
0.182352
0.182352
0.182352
0.182353
0.182353
0.182354
0.182354
0.182355
0.182355
0.182356
0.182356
0.182356
0.182357
0.182357
0.182358
0.182358
0.182359
0.182359
0.18236
0.18236
0.182361
0.182361
0.182362
0.182362
0.182363
0.182363
0.182364
0.182364
0.182365
0.182365
0.182366
0.182366
0.182367
0.182367
0.182368
0.182368
0.182369
0.18237
0.18237
0.182371
0.182371
0.182372
0.182372
0.182373
0.182374
0.182374
0.182375
0.182375
0.182375
0.182375
0.182375
1
1.07971
0.997071
0.883652
0.788698
0.716915
0.663052
0.621839
0.589497
0.563485
0.542093
0.524153
0.508847
0.495592
0.483966
0.473656
0.464427
0.456098
0.44853
0.441613
0.435257
0.429391
0.423956
0.418901
0.414186
0.409774
0.405637
0.401747
0.398081
0.394621
0.391347
0.388245
0.385301
0.382503
0.37984
0.377301
0.374878
0.372563
0.370349
0.368228
0.366196
0.364246
0.362373
0.360573
0.358842
0.357175
0.35557
0.354022
0.352529
0.351087
0.349695
0.348349
0.347048
0.345789
0.34457
0.343389
0.342245
0.341136
0.340061
0.339018
0.338005
0.337022
0.336066
0.335139
0.334237
0.33336
0.332507
0.331677
0.33087
0.330084
0.329318
0.328573
0.327847
0.32714
0.326451
0.325779
0.325125
0.324486
0.323863
0.323256
0.322664
0.322086
0.321521
0.320971
0.320433
0.319909
0.319397
0.318896
0.318408
0.317931
0.317465
0.31701
0.316565
0.316131
0.315706
0.315291
0.314886
0.31449
0.314102
0.313724
0.313354
0.312992
0.312639
0.312293
0.311955
0.311624
0.311301
0.310985
0.310676
0.310374
0.310079
0.30979
0.309507
0.309231
0.308961
0.308696
0.308438
0.308185
0.307937
0.307695
0.307459
0.307227
0.307001
0.306779
0.306562
0.30635
0.306143
0.30594
0.305742
0.305547
0.305357
0.305172
0.30499
0.304812
0.304638
0.304468
0.304302
0.304139
0.303979
0.303824
0.303671
0.303522
0.303376
0.303233
0.303094
0.302957
0.302824
0.302693
0.302565
0.30244
0.302318
0.302198
0.302081
0.301966
0.301854
0.301744
0.301637
0.301532
0.30143
0.301329
0.301231
0.301135
0.301041
0.300949
0.300859
0.300771
0.300685
0.300601
0.300519
0.300438
0.300359
0.300282
0.300207
0.300133
0.300061
0.29999
0.299921
0.299854
0.299788
0.299723
0.29966
0.299598
0.299537
0.299478
0.29942
0.299363
0.299308
0.299253
0.2992
0.299148
0.299098
0.299048
0.298999
0.298952
0.298905
0.29886
0.298815
0.298771
0.298729
0.298687
0.298646
0.298606
0.298567
0.298529
0.298491
0.298455
0.298419
0.298384
0.298349
0.298316
0.298283
0.298251
0.298219
0.298189
0.298158
0.298129
0.2981
0.298072
0.298044
0.298017
0.297991
0.297965
0.297939
0.297915
0.29789
0.297867
0.297843
0.297821
0.297798
0.297777
0.297755
0.297734
0.297714
0.297694
0.297674
0.297655
0.297637
0.297618
0.2976
0.297583
0.297566
0.297549
0.297532
0.297516
0.2975
0.297485
0.29747
0.297455
0.29744
0.297426
0.297412
0.297399
0.297386
0.297373
0.29736
0.297347
0.297335
0.297323
0.297312
0.2973
0.297289
0.297278
0.297267
0.297257
0.297247
0.297237
0.297227
0.297217
0.297208
0.297199
0.29719
0.297181
0.297173
0.297164
0.297156
0.297148
0.29714
0.297133
0.297125
0.297118
0.297111
0.297104
0.297098
0.297091
0.297085
0.297079
0.297073
0.297067
0.297062
0.297056
0.297051
0.297046
0.297041
0.297036
0.297032
0.297027
0.297023
0.297019
0.297015
0.297011
0.297008
0.297004
0.297001
0.296998
0.296995
0.296992
0.296989
0.296987
0.296985
0.296982
0.29698
0.296978
0.296976
0.296975
0.296973
0.296971
0.29697
0.296969
0.296968
0.296967
0.296966
0.296965
0.296964
0.296963
0.296963
0.296962
0.296962
0.296962
0.296961
0.296961
0.296961
0.296961
0.296961
0.296961
0.296961
0.296961
0.296962
0.296962
0.296962
0.296963
0.296963
0.296963
0.296964
0.296964
0.296965
0.296965
0.296966
0.296967
0.296967
0.296968
0.296968
0.296969
0.29697
0.29697
0.296971
0.296972
0.296973
0.296973
0.296974
0.296975
0.296976
0.296976
0.296977
0.296978
0.296979
0.296979
0.29698
0.296981
0.296982
0.296982
0.296983
0.296984
0.296985
0.296986
0.296986
0.296987
0.296988
0.296989
0.296989
0.29699
0.296991
0.296992
0.296993
0.296994
0.296994
0.296995
0.296996
0.296997
0.296998
0.296999
0.297
0.297
0.297001
0.297002
0.297003
0.297004
0.297005
0.297005
0.297005
0.297005
1
1.11179
1.11438
1.05557
0.984377
0.919039
0.863806
0.818224
0.780653
0.74943
0.723172
0.700804
0.681507
0.664664
0.649804
0.636571
0.624686
0.613936
0.604148
0.595188
0.586945
0.579328
0.572264
0.565689
0.559551
0.553804
0.548411
0.543338
0.538556
0.534038
0.529763
0.525711
0.521864
0.518206
0.514723
0.511402
0.508233
0.505203
0.502305
0.499529
0.496869
0.494315
0.491863
0.489506
0.487238
0.485055
0.482952
0.480924
0.478967
0.477079
0.475255
0.473491
0.471786
0.470137
0.46854
0.466993
0.465495
0.464042
0.462633
0.461266
0.45994
0.458652
0.457401
0.456185
0.455004
0.453856
0.452739
0.451652
0.450595
0.449566
0.448565
0.447589
0.446639
0.445714
0.444812
0.443933
0.443076
0.442241
0.441426
0.440632
0.439857
0.439101
0.438363
0.437643
0.43694
0.436255
0.435585
0.434931
0.434293
0.433669
0.433061
0.432466
0.431885
0.431317
0.430763
0.430221
0.429692
0.429174
0.428669
0.428174
0.427691
0.427219
0.426758
0.426307
0.425866
0.425434
0.425013
0.4246
0.424197
0.423803
0.423418
0.423041
0.422673
0.422312
0.42196
0.421615
0.421278
0.420948
0.420626
0.42031
0.420002
0.4197
0.419405
0.419116
0.418834
0.418558
0.418288
0.418023
0.417765
0.417512
0.417265
0.417023
0.416786
0.416555
0.416328
0.416107
0.41589
0.415678
0.415471
0.415268
0.415069
0.414875
0.414685
0.4145
0.414318
0.41414
0.413966
0.413796
0.41363
0.413467
0.413308
0.413153
0.413
0.412851
0.412706
0.412563
0.412424
0.412287
0.412154
0.412023
0.411896
0.411771
0.411649
0.411529
0.411412
0.411298
0.411186
0.411077
0.41097
0.410865
0.410763
0.410663
0.410565
0.410469
0.410375
0.410284
0.410194
0.410106
0.41002
0.409936
0.409854
0.409774
0.409695
0.409618
0.409543
0.409469
0.409397
0.409327
0.409258
0.409191
0.409125
0.40906
0.408997
0.408935
0.408875
0.408816
0.408758
0.408701
0.408646
0.408592
0.408539
0.408487
0.408436
0.408387
0.408338
0.408291
0.408244
0.408199
0.408154
0.40811
0.408068
0.408026
0.407985
0.407945
0.407906
0.407868
0.407831
0.407794
0.407758
0.407723
0.407689
0.407655
0.407623
0.40759
0.407559
0.407528
0.407498
0.407468
0.40744
0.407411
0.407384
0.407357
0.40733
0.407304
0.407279
0.407254
0.40723
0.407206
0.407183
0.40716
0.407138
0.407116
0.407094
0.407074
0.407053
0.407033
0.407013
0.406994
0.406975
0.406957
0.406939
0.406921
0.406904
0.406887
0.406871
0.406855
0.406839
0.406823
0.406808
0.406794
0.406779
0.406765
0.406751
0.406737
0.406724
0.406711
0.406698
0.406686
0.406674
0.406662
0.40665
0.406639
0.406628
0.406617
0.406607
0.406596
0.406586
0.406577
0.406567
0.406558
0.406549
0.40654
0.406531
0.406523
0.406515
0.406507
0.406499
0.406492
0.406484
0.406477
0.406471
0.406464
0.406458
0.406452
0.406446
0.40644
0.406435
0.40643
0.406425
0.40642
0.406415
0.406411
0.406407
0.406403
0.406399
0.406395
0.406392
0.406389
0.406386
0.406383
0.40638
0.406377
0.406375
0.406373
0.406371
0.406369
0.406367
0.406366
0.406364
0.406363
0.406362
0.406361
0.40636
0.406359
0.406358
0.406358
0.406357
0.406357
0.406357
0.406356
0.406356
0.406356
0.406356
0.406356
0.406357
0.406357
0.406357
0.406358
0.406358
0.406359
0.406359
0.40636
0.40636
0.406361
0.406362
0.406362
0.406363
0.406364
0.406365
0.406365
0.406366
0.406367
0.406368
0.406369
0.40637
0.406371
0.406372
0.406373
0.406374
0.406375
0.406376
0.406377
0.406377
0.406378
0.406379
0.40638
0.406381
0.406382
0.406383
0.406384
0.406385
0.406386
0.406387
0.406389
0.40639
0.406391
0.406392
0.406393
0.406394
0.406395
0.406396
0.406397
0.406398
0.406399
0.4064
0.406401
0.406402
0.406403
0.406404
0.406406
0.406407
0.406408
0.406409
0.40641
0.406411
0.406412
0.406414
0.406414
0.406414
0.406414
1
1.09593
1.14368
1.13403
1.09771
1.05335
1.00943
0.969231
0.933639
0.902515
0.875357
0.851582
0.830649
0.812091
0.795522
0.780626
0.767148
0.754883
0.74366
0.733344
0.723819
0.714991
0.706782
0.699125
0.691961
0.685242
0.678926
0.672975
0.667358
0.662045
0.657012
0.652237
0.647699
0.64338
0.639264
0.635338
0.631587
0.628001
0.624567
0.621278
0.618122
0.615093
0.612182
0.609384
0.60669
0.604097
0.601597
0.599186
0.59686
0.594614
0.592444
0.590346
0.588317
0.586354
0.584453
0.582612
0.580827
0.579098
0.57742
0.575792
0.574212
0.572678
0.571188
0.569741
0.568334
0.566966
0.565635
0.564341
0.563082
0.561856
0.560663
0.559501
0.55837
0.557267
0.556193
0.555147
0.554126
0.553132
0.552162
0.551216
0.550293
0.549393
0.548515
0.547658
0.546821
0.546005
0.545208
0.54443
0.54367
0.542929
0.542204
0.541497
0.540805
0.54013
0.539471
0.538826
0.538197
0.537582
0.53698
0.536393
0.535819
0.535257
0.534709
0.534173
0.533648
0.533136
0.532635
0.532145
0.531666
0.531198
0.53074
0.530293
0.529855
0.529427
0.529009
0.528599
0.528199