# vtk DataFile Version 2.0
FlowField
ASCII
DATASET STRUCTURED_GRID
DIMENSIONS 400 1 50
POINTS 20000 float
0 0 0
0.08 0 0
0.16 0 0
0.24 0 0
0.32 0 0
0.4 0 0
0.48 0 0
0.56 0 0
0.64 0 0
0.72 0 0
0.8 0 0
0.88 0 0
0.96 0 0
1.04 0 0
1.12 0 0
1.2 0 0
1.28 0 0
1.36 0 0
1.44 0 0
1.52 0 0
1.6 0 0
1.68 0 0
1.76 0 0
1.84 0 0
1.92 0 0
2 0 0
2.08 0 0
2.16 0 0
2.24 0 0
2.32 0 0
2.4 0 0
2.48 0 0
2.56 0 0
2.64 0 0
2.72 0 0
2.8 0 0
2.88 0 0
2.96 0 0
3.04 0 0
3.12 0 0
3.2 0 0
3.28 0 0
3.36 0 0
3.44 0 0
3.52 0 0
3.6 0 0
3.68 0 0
3.76 0 0
3.84 0 0
3.92 0 0
4 0 0
4.08 0 0
4.16 0 0
4.24 0 0
4.32 0 0
4.4 0 0
4.48 0 0
4.56 0 0
4.64 0 0
4.72 0 0
4.8 0 0
4.88 0 0
4.96 0 0
5.04 0 0
5.12 0 0
5.2 0 0
5.28 0 0
5.36 0 0
5.44 0 0
5.52 0 0
5.6 0 0
5.68 0 0
5.76 0 0
5.84 0 0
5.92 0 0
6 0 0
6.08 0 0
6.16 0 0
6.24 0 0
6.32 0 0
6.4 0 0
6.48 0 0
6.56 0 0
6.64 0 0
6.72 0 0
6.8 0 0
6.88 0 0
6.96 0 0
7.04 0 0
7.12 0 0
7.2 0 0
7.28 0 0
7.36 0 0
7.44 0 0
7.52 0 0
7.6 0 0
7.68 0 0
7.76 0 0
7.84 0 0
7.92 0 0
8 0 0
8.08 0 0
8.16 0 0
8.24 0 0
8.32 0 0
8.4 0 0
8.48 0 0
8.56 0 0
8.64 0 0
8.72 0 0
8.8 0 0
8.88 0 0
8.96 0 0
9.04 0 0
9.12 0 0
9.2 0 0
9.28 0 0
9.36 0 0
9.44 0 0
9.52 0 0
9.6 0 0
9.68 0 0
9.76 0 0
9.84 0 0
9.92 0 0
10 0 0
10.08 0 0
10.16 0 0
10.24 0 0
10.32 0 0
10.4 0 0
10.48 0 0
10.56 0 0
10.64 0 0
10.72 0 0
10.8 0 0
10.88 0 0
10.96 0 0
11.04 0 0
11.12 0 0
11.2 0 0
11.28 0 0
11.36 0 0
11.44 0 0
11.52 0 0
11.6 0 0
11.68 0 0
11.76 0 0
11.84 0 0
11.92 0 0
12 0 0
12.08 0 0
12.16 0 0
12.24 0 0
12.32 0 0
12.4 0 0
12.48 0 0
12.56 0 0
12.64 0 0
12.72 0 0
12.8 0 0
12.88 0 0
12.96 0 0
13.04 0 0
13.12 0 0
13.2 0 0
13.28 0 0
13.36 0 0
13.44 0 0
13.52 0 0
13.6 0 0
13.68 0 0
13.76 0 0
13.84 0 0
13.92 0 0
14 0 0
14.08 0 0
14.16 0 0
14.24 0 0
14.32 0 0
14.4 0 0
14.48 0 0
14.56 0 0
14.64 0 0
14.72 0 0
14.8 0 0
14.88 0 0
14.96 0 0
15.04 0 0
15.12 0 0
15.2 0 0
15.28 0 0
15.36 0 0
15.44 0 0
15.52 0 0
15.6 0 0
15.68 0 0
15.76 0 0
15.84 0 0
15.92 0 0
16 0 0
16.08 0 0
16.16 0 0
16.24 0 0
16.32 0 0
16.4 0 0
16.48 0 0
16.56 0 0
16.64 0 0
16.72 0 0
16.8 0 0
16.88 0 0
16.96 0 0
17.04 0 0
17.12 0 0
17.2 0 0
17.28 0 0
17.36 0 0
17.44 0 0
17.52 0 0
17.6 0 0
17.68 0 0
17.76 0 0
17.84 0 0
17.92 0 0
18 0 0
18.08 0 0
18.16 0 0
18.24 0 0
18.32 0 0
18.4 0 0
18.48 0 0
18.56 0 0
18.64 0 0
18.72 0 0
18.8 0 0
18.88 0 0
18.96 0 0
19.04 0 0
19.12 0 0
19.2 0 0
19.28 0 0
19.36 0 0
19.44 0 0
19.52 0 0
19.6 0 0
19.68 0 0
19.76 0 0
19.84 0 0
19.92 0 0
20 0 0
20.08 0 0
20.16 0 0
20.24 0 0
20.32 0 0
20.4 0 0
20.48 0 0
20.56 0 0
20.64 0 0
20.72 0 0
20.8 0 0
20.88 0 0
20.96 0 0
21.04 0 0
21.12 0 0
21.2 0 0
21.28 0 0
21.36 0 0
21.44 0 0
21.52 0 0
21.6 0 0
21.68 0 0
21.76 0 0
21.84 0 0
21.92 0 0
22 0 0
22.08 0 0
22.16 0 0
22.24 0 0
22.32 0 0
22.4 0 0
22.48 0 0
22.56 0 0
22.64 0 0
22.72 0 0
22.8 0 0
22.88 0 0
22.96 0 0
23.04 0 0
23.12 0 0
23.2 0 0
23.28 0 0
23.36 0 0
23.44 0 0
23.52 0 0
23.6 0 0
23.68 0 0
23.76 0 0
23.84 0 0
23.92 0 0
24 0 0
24.08 0 0
24.16 0 0
24.24 0 0
24.32 0 0
24.4 0 0
24.48 0 0
24.56 0 0
24.64 0 0
24.72 0 0
24.8 0 0
24.88 0 0
24.96 0 0
25.04 0 0
25.12 0 0
25.2 0 0
25.28 0 0
25.36 0 0
25.44 0 0
25.52 0 0
25.6 0 0
25.68 0 0
25.76 0 0
25.84 0 0
25.92 0 0
26 0 0
26.08 0 0
26.16 0 0
26.24 0 0
26.32 0 0
26.4 0 0
26.48 0 0
26.56 0 0
26.64 0 0
26.72 0 0
26.8 0 0
26.88 0 0
26.96 0 0
27.04 0 0
27.12 0 0
27.2 0 0
27.28 0 0
27.36 0 0
27.44 0 0
27.52 0 0
27.6 0 0
27.68 0 0
27.76 0 0
27.84 0 0
27.92 0 0
28 0 0
28.08 0 0
28.16 0 0
28.24 0 0
28.32 0 0
28.4 0 0
28.48 0 0
28.56 0 0
28.64 0 0
28.72 0 0
28.8 0 0
28.88 0 0
28.96 0 0
29.04 0 0
29.12 0 0
29.2 0 0
29.28 0 0
29.36 0 0
29.44 0 0
29.52 0 0
29.6 0 0
29.68 0 0
29.76 0 0
29.84 0 0
29.92 0 0
30 0 0
30.08 0 0
30.16 0 0
30.24 0 0
30.32 0 0
30.4 0 0
30.48 0 0
30.56 0 0
30.64 0 0
30.72 0 0
30.8 0 0
30.88 0 0
30.96 0 0
31.04 0 0
31.12 0 0
31.2 0 0
31.28 0 0
31.36 0 0
31.44 0 0
31.52 0 0
31.6 0 0
31.68 0 0
31.76 0 0
31.84 0 0
31.92 0 0
0 0.02 0
0.08 0.02 0
0.16 0.02 0
0.24 0.02 0
0.32 0.02 0
0.4 0.02 0
0.48 0.02 0
0.56 0.02 0
0.64 0.02 0
0.72 0.02 0
0.8 0.02 0
0.88 0.02 0
0.96 0.02 0
1.04 0.02 0
1.12 0.02 0
1.2 0.02 0
1.28 0.02 0
1.36 0.02 0
1.44 0.02 0
1.52 0.02 0
1.6 0.02 0
1.68 0.02 0
1.76 0.02 0
1.84 0.02 0
1.92 0.02 0
2 0.02 0
2.08 0.02 0
2.16 0.02 0
2.24 0.02 0
2.32 0.02 0
2.4 0.02 0
2.48 0.02 0
2.56 0.02 0
2.64 0.02 0
2.72 0.02 0
2.8 0.02 0
2.88 0.02 0
2.96 0.02 0
3.04 0.02 0
3.12 0.02 0
3.2 0.02 0
3.28 0.02 0
3.36 0.02 0
3.44 0.02 0
3.52 0.02 0
3.6 0.02 0
3.68 0.02 0
3.76 0.02 0
3.84 0.02 0
3.92 0.02 0
4 0.02 0
4.08 0.02 0
4.16 0.02 0
4.24 0.02 0
4.32 0.02 0
4.4 0.02 0
4.48 0.02 0
4.56 0.02 0
4.64 0.02 0
4.72 0.02 0
4.8 0.02 0
4.88 0.02 0
4.96 0.02 0
5.04 0.02 0
5.12 0.02 0
5.2 0.02 0
5.28 0.02 0
5.36 0.02 0
5.44 0.02 0
5.52 0.02 0
5.6 0.02 0
5.68 0.02 0
5.76 0.02 0
5.84 0.02 0
5.92 0.02 0
6 0.02 0
6.08 0.02 0
6.16 0.02 0
6.24 0.02 0
6.32 0.02 0
6.4 0.02 0
6.48 0.02 0
6.56 0.02 0
6.64 0.02 0
6.72 0.02 0
6.8 0.02 0
6.88 0.02 0
6.96 0.02 0
7.04 0.02 0
7.12 0.02 0
7.2 0.02 0
7.28 0.02 0
7.36 0.02 0
7.44 0.02 0
7.52 0.02 0
7.6 0.02 0
7.68 0.02 0
7.76 0.02 0
7.84 0.02 0
7.92 0.02 0
8 0.02 0
8.08 0.02 0
8.16 0.02 0
8.24 0.02 0
8.32 0.02 0
8.4 0.02 0
8.48 0.02 0
8.56 0.02 0
8.64 0.02 0
8.72 0.02 0
8.8 0.02 0
8.88 0.02 0
8.96 0.02 0
9.04 0.02 0
9.12 0.02 0
9.2 0.02 0
9.28 0.02 0
9.36 0.02 0
9.44 0.02 0
9.52 0.02 0
9.6 0.02 0
9.68 0.02 0
9.76 0.02 0
9.84 0.02 0
9.92 0.02 0
10 0.02 0
10.08 0.02 0
10.16 0.02 0
10.24 0.02 0
10.32 0.02 0
10.4 0.02 0
10.48 0.02 0
10.56 0.02 0
10.64 0.02 0
10.72 0.02 0
10.8 0.02 0
10.88 0.02 0
10.96 0.02 0
11.04 0.02 0
11.12 0.02 0
11.2 0.02 0
11.28 0.02 0
11.36 0.02 0
11.44 0.02 0
11.52 0.02 0
11.6 0.02 0
11.68 0.02 0
11.76 0.02 0
11.84 0.02 0
11.92 0.02 0
12 0.02 0
12.08 0.02 0
12.16 0.02 0
12.24 0.02 0
12.32 0.02 0
12.4 0.02 0
12.48 0.02 0
12.56 0.02 0
12.64 0.02 0
12.72 0.02 0
12.8 0.02 0
12.88 0.02 0
12.96 0.02 0
13.04 0.02 0
13.12 0.02 0
13.2 0.02 0
13.28 0.02 0
13.36 0.02 0
13.44 0.02 0
13.52 0.02 0
13.6 0.02 0
13.68 0.02 0
13.76 0.02 0
13.84 0.02 0
13.92 0.02 0
14 0.02 0
14.08 0.02 0
14.16 0.02 0
14.24 0.02 0
14.32 0.02 0
14.4 0.02 0
14.48 0.02 0
14.56 0.02 0
14.64 0.02 0
14.72 0.02 0
14.8 0.02 0
14.88 0.02 0
14.96 0.02 0
15.04 0.02 0
15.12 0.02 0
15.2 0.02 0
15.28 0.02 0
15.36 0.02 0
15.44 0.02 0
15.52 0.02 0
15.6 0.02 0
15.68 0.02 0
15.76 0.02 0
15.84 0.02 0
15.92 0.02 0
16 0.02 0
16.08 0.02 0
16.16 0.02 0
16.24 0.02 0
16.32 0.02 0
16.4 0.02 0
16.48 0.02 0
16.56 0.02 0
16.64 0.02 0
16.72 0.02 0
16.8 0.02 0
16.88 0.02 0
16.96 0.02 0
17.04 0.02 0
17.12 0.02 0
17.2 0.02 0
17.28 0.02 0
17.36 0.02 0
17.44 0.02 0
17.52 0.02 0
17.6 0.02 0
17.68 0.02 0
17.76 0.02 0
17.84 0.02 0
17.92 0.02 0
18 0.02 0
18.08 0.02 0
18.16 0.02 0
18.24 0.02 0
18.32 0.02 0
18.4 0.02 0
18.48 0.02 0
18.56 0.02 0
18.64 0.02 0
18.72 0.02 0
18.8 0.02 0
18.88 0.02 0
18.96 0.02 0
19.04 0.02 0
19.12 0.02 0
19.2 0.02 0
19.28 0.02 0
19.36 0.02 0
19.44 0.02 0
19.52 0.02 0
19.6 0.02 0
19.68 0.02 0
19.76 0.02 0
19.84 0.02 0
19.92 0.02 0
20 0.02 0
20.08 0.02 0
20.16 0.02 0
20.24 0.02 0
20.32 0.02 0
20.4 0.02 0
20.48 0.02 0
20.56 0.02 0
20.64 0.02 0
20.72 0.02 0
20.8 0.02 0
20.88 0.02 0
20.96 0.02 0
21.04 0.02 0
21.12 0.02 0
21.2 0.02 0
21.28 0.02 0
21.36 0.02 0
21.44 0.02 0
21.52 0.02 0
21.6 0.02 0
21.68 0.02 0
21.76 0.02 0
21.84 0.02 0
21.92 0.02 0
22 0.02 0
22.08 0.02 0
22.16 0.02 0
22.24 0.02 0
22.32 0.02 0
22.4 0.02 0
22.48 0.02 0
22.56 0.02 0
22.64 0.02 0
22.72 0.02 0
22.8 0.02 0
22.88 0.02 0
22.96 0.02 0
23.04 0.02 0
23.12 0.02 0
23.2 0.02 0
23.28 0.02 0
23.36 0.02 0
23.44 0.02 0
23.52 0.02 0
23.6 0.02 0
23.68 0.02 0
23.76 0.02 0
23.84 0.02 0
23.92 0.02 0
24 0.02 0
24.08 0.02 0
24.16 0.02 0
24.24 0.02 0
24.32 0.02 0
24.4 0.02 0
24.48 0.02 0
24.56 0.02 0
24.64 0.02 0
24.72 0.02 0
24.8 0.02 0
24.88 0.02 0
24.96 0.02 0
25.04 0.02 0
25.12 0.02 0
25.2 0.02 0
25.28 0.02 0
25.36 0.02 0
25.44 0.02 0
25.52 0.02 0
25.6 0.02 0
25.68 0.02 0
25.76 0.02 0
25.84 0.02 0
25.92 0.02 0
26 0.02 0
26.08 0.02 0
26.16 0.02 0
26.24 0.02 0
26.32 0.02 0
26.4 0.02 0
26.48 0.02 0
26.56 0.02 0
26.64 0.02 0
26.72 0.02 0
26.8 0.02 0
26.88 0.02 0
26.96 0.02 0
27.04 0.02 0
27.12 0.02 0
27.2 0.02 0
27.28 0.02 0
27.36 0.02 0
27.44 0.02 0
27.52 0.02 0
27.6 0.02 0
27.68 0.02 0
27.76 0.02 0
27.84 0.02 0
27.92 0.02 0
28 0.02 0
28.08 0.02 0
28.16 0.02 0
28.24 0.02 0
28.32 0.02 0
28.4 0.02 0
28.48 0.02 0
28.56 0.02 0
28.64 0.02 0
28.72 0.02 0
28.8 0.02 0
28.88 0.02 0
28.96 0.02 0
29.04 0.02 0
29.12 0.02 0
29.2 0.02 0
29.28 0.02 0
29.36 0.02 0
29.44 0.02 0
29.52 0.02 0
29.6 0.02 0
29.68 0.02 0
29.76 0.02 0
29.84 0.02 0
29.92 0.02 0
30 0.02 0
30.08 0.02 0
30.16 0.02 0
30.24 0.02 0
30.32 0.02 0
30.4 0.02 0
30.48 0.02 0
30.56 0.02 0
30.64 0.02 0
30.72 0.02 0
30.8 0.02 0
30.88 0.02 0
30.96 0.02 0
31.04 0.02 0
31.12 0.02 0
31.2 0.02 0
31.28 0.02 0
31.36 0.02 0
31.44 0.02 0
31.52 0.02 0
31.6 0.02 0
31.68 0.02 0
31.76 0.02 0
31.84 0.02 0
31.92 0.02 0
0 0.04 0
0.08 0.04 0
0.16 0.04 0
0.24 0.04 0
0.32 0.04 0
0.4 0.04 0
0.48 0.04 0
0.56 0.04 0
0.64 0.04 0
0.72 0.04 0
0.8 0.04 0
0.88 0.04 0
0.96 0.04 0
1.04 0.04 0
1.12 0.04 0
1.2 0.04 0
1.28 0.04 0
1.36 0.04 0
1.44 0.04 0
1.52 0.04 0
1.6 0.04 0
1.68 0.04 0
1.76 0.04 0
1.84 0.04 0
1.92 0.04 0
2 0.04 0
2.08 0.04 0
2.16 0.04 0
2.24 0.04 0
2.32 0.04 0
2.4 0.04 0
2.48 0.04 0
2.56 0.04 0
2.64 0.04 0
2.72 0.04 0
2.8 0.04 0
2.88 0.04 0
2.96 0.04 0
3.04 0.04 0
3.12 0.04 0
3.2 0.04 0
3.28 0.04 0
3.36 0.04 0
3.44 0.04 0
3.52 0.04 0
3.6 0.04 0
3.68 0.04 0
3.76 0.04 0
3.84 0.04 0
3.92 0.04 0
4 0.04 0
4.08 0.04 0
4.16 0.04 0
4.24 0.04 0
4.32 0.04 0
4.4 0.04 0
4.48 0.04 0
4.56 0.04 0
4.64 0.04 0
4.72 0.04 0
4.8 0.04 0
4.88 0.04 0
4.96 0.04 0
5.04 0.04 0
5.12 0.04 0
5.2 0.04 0
5.28 0.04 0
5.36 0.04 0
5.44 0.04 0
5.52 0.04 0
5.6 0.04 0
5.68 0.04 0
5.76 0.04 0
5.84 0.04 0
5.92 0.04 0
6 0.04 0
6.08 0.04 0
6.16 0.04 0
6.24 0.04 0
6.32 0.04 0
6.4 0.04 0
6.48 0.04 0
6.56 0.04 0
6.64 0.04 0
6.72 0.04 0
6.8 0.04 0
6.88 0.04 0
6.96 0.04 0
7.04 0.04 0
7.12 0.04 0
7.2 0.04 0
7.28 0.04 0
7.36 0.04 0
7.44 0.04 0
7.52 0.04 0
7.6 0.04 0
7.68 0.04 0
7.76 0.04 0
7.84 0.04 0
[...]
POINT_DATA 20000

SCALARS p float 1
LOOKUP_TABLE default
1
199.419
199.187
199.12
199.094
199.079
199.066
199.055
199.045
199.035
199.026
199.016
199.007
198.999
198.99
198.982
198.974
198.966
198.958
198.95
198.942
198.935
198.927
198.92
198.913
198.906
198.899
198.892
198.885
198.879
198.872
198.866
198.859
198.853
198.846
198.84
198.834
198.827
198.821
198.815
198.809
198.803
198.797
198.791
198.785
198.779
198.773
198.767
198.762
198.756
198.75
198.744
198.738
198.733
198.727
198.721
198.716
198.71
198.705
198.699
198.693
198.688
198.682
198.677
198.671
198.666
198.66
198.655
198.649
198.644
198.638
198.633
198.627
198.622
198.617
198.611
198.606
198.6
198.595
198.59
198.584
198.579
198.574
198.568
198.563
198.558
198.552
198.547
198.542
198.537
198.531
198.526
198.521
198.516
198.51
198.505
198.5
198.495
198.49
198.484
198.479
198.474
198.469
198.463
198.458
198.453
198.448
198.442
198.437
198.432
198.427
198.421
198.416
198.411
198.405
198.4
198.395
198.389
198.384
198.379
198.373
198.368
198.362
198.357
198.351
198.346
198.341
198.335
198.329
198.324
198.318
198.313
198.307
198.302
198.296
198.29
198.285
198.279
198.273
198.268
198.262
198.256
198.251
198.245
198.239
198.233
198.227
198.222
198.216
198.21
198.204
198.198
198.192
198.186
198.18
198.175
198.169
198.163
198.157
198.151
198.145
198.139
198.133
198.126
198.12
198.114
198.108
198.102
198.096
198.09
198.084
198.077
198.071
198.065
198.059
198.053
198.046
198.04
198.034
198.028
198.021
198.015
198.009
198.002
197.996
197.99
197.983
197.977
197.97
197.964
197.958
197.951
197.945
197.938
197.932
197.925
197.919
197.912
197.906
197.899
197.893
197.886
197.88
197.873
197.867
197.86
197.853
197.847
197.84
197.834
197.827
197.82
197.814
197.807
197.8
197.794
197.787
197.78
197.774
197.767
197.76
197.753
197.747
197.74
197.733
197.726
197.72
197.713
197.706
197.699
197.693
197.686
197.679
197.672
197.665
197.659
197.652
197.645
197.638
197.631
197.625
197.618
197.611
197.604
197.597
197.59
197.584
197.577
197.57
197.563
197.556
197.549
197.542
197.536
197.529
197.522
197.515
197.508
197.501
197.494
197.487
197.481
197.474
197.467
197.46
197.453
197.446
197.439
197.433
197.426
197.419
197.412
197.405
197.398
197.392
197.385
197.378
197.371
197.364
197.357
197.351
197.344
197.337
197.33
197.323
197.317
197.31
197.303
197.296
197.29
197.283
197.276
197.269
197.263
197.256
197.249
197.242
197.236
197.229
197.222
197.216
197.209
197.202
197.196
197.189
197.182
197.176
197.169
197.163
197.156
197.149
197.143
197.136
197.13
197.123
197.117
197.11
197.104
197.097
197.091
197.084
197.078
197.071
197.065
197.059
197.052
197.046
197.039
197.033
197.027
197.02
197.014
197.008
197.002
196.995
196.989
196.983
196.977
196.97
196.964
196.958
196.952
196.946
196.94
196.934
196.927
196.921
196.915
196.909
196.903
196.897
196.891
196.885
196.879
196.873
196.868
196.862
196.856
196.85
196.844
196.838
196.833
196.827
196.821
196.815
196.81
196.804
196.798
196.793
196.787
196.781
196.776
196.77
196.765
196.759
196.754
196.748
196.743
196.737
196.732
196.726
196.721
196.716
196.71
196.705
196.7
196.694
196.689
196.684
196.679
196.673
196.668
196.663
196.658
196.653
196.648
196.643
196.638
196.632
0.5
199.419
199.419
199.187
199.12
199.094
199.079
199.066
199.055
199.045
199.035
199.026
199.016
199.007
198.999
198.99
198.982
198.974
198.966
198.958
198.95
198.942
198.935
198.927
198.92
198.913
198.906
198.899
198.892
198.885
198.879
198.872
198.866
198.859
198.853
198.846
198.84
198.834
198.827
198.821
198.815
198.809
198.803
198.797
198.791
198.785
198.779
198.773
198.767
198.762
198.756
198.75
198.744
198.738
198.733
198.727
198.721
198.716
198.71
198.705
198.699
198.693
198.688
198.682
198.677
198.671
198.666
198.66
198.655
198.649
198.644
198.638
198.633
198.627
198.622
198.617
198.611
198.606
198.6
198.595
198.59
198.584
198.579
198.574
198.568
198.563
198.558
198.552
198.547
198.542
198.537
198.531
198.526
198.521
198.516
198.51
198.505
198.5
198.495
198.49
198.484
198.479
198.474
198.469
198.463
198.458
198.453
198.448
198.442
198.437
198.432
198.427
198.421
198.416
198.411
198.405
198.4
198.395
198.389
198.384
198.379
198.373
198.368
198.362
198.357
198.351
198.346
198.341
198.335
198.329
198.324
198.318
198.313
198.307
198.302
198.296
198.29
198.285
198.279
198.273
198.268
198.262
198.256
198.251
198.245
198.239
198.233
198.227
198.222
198.216
198.21
198.204
198.198
198.192
198.186
198.18
198.175
198.169
198.163
198.157
198.151
198.145
198.139
198.133
198.126
198.12
198.114
198.108
198.102
198.096
198.09
198.084
198.077
198.071
198.065
198.059
198.053
198.046
198.04
198.034
198.028
198.021
198.015
198.009
198.002
197.996
197.99
197.983
197.977
197.97
197.964
197.958
197.951
197.945
197.938
197.932
197.925
197.919
197.912
197.906
197.899
197.893
197.886
197.88
197.873
197.867
197.86
197.853
197.847
197.84
197.834
197.827
197.82
197.814
197.807
197.8
197.794
197.787
197.78
197.774
197.767
197.76
197.753
197.747
197.74
197.733
197.726
197.72
197.713
197.706
197.699
197.693
197.686
197.679
197.672
197.665
197.659
197.652
197.645
197.638
197.631
197.625
197.618
197.611
197.604
197.597
197.59
197.584
197.577
197.57
197.563
197.556
197.549
197.542
197.536
197.529
197.522
197.515
197.508
197.501
197.494
197.487
197.481
197.474
197.467
197.46
197.453
197.446
197.439
197.433
197.426
197.419
197.412
197.405
197.398
197.392
197.385
197.378
197.371
197.364
197.357
197.351
197.344
197.337
197.33
197.323
197.317
197.31
197.303
197.296
197.29
197.283
197.276
197.269
197.263
197.256
197.249
197.242
197.236
197.229
197.222
197.216
197.209
197.202
197.196
197.189
197.182
197.176
197.169
197.163
197.156
197.149
197.143
197.136
197.13
197.123
197.117
197.11
197.104
197.097
197.091
197.084
197.078
197.071
197.065
197.059
197.052
197.046
197.039
197.033
197.027
197.02
197.014
197.008
197.002
196.995
196.989
196.983
196.977
196.97
196.964
196.958
196.952
196.946
196.94
196.934
196.927
196.921
196.915
196.909
196.903
196.897
196.891
196.885
196.879
196.873
196.868
196.862
196.856
196.85
196.844
196.838
196.833
196.827
196.821
196.815
196.81
196.804
196.798
196.793
196.787
196.781
196.776
196.77
196.765
196.759
196.754
196.748
196.743
196.737
196.732
196.726
196.721
196.716
196.71
196.705
196.7
196.694
196.689
196.684
196.679
196.673
196.668
196.663
196.658
196.653
196.648
196.643
196.638
196.632
196.632
199.368
199.368
199.192
199.125
199.097
199.08
199.067
199.056
199.045
199.036
199.026
199.017
199.008
198.999
198.99
198.982
198.974
198.966
198.958
198.95
198.942
198.935
198.928
198.92
198.913
198.906
198.899
198.892
198.885
198.879
198.872
198.866
198.859
198.853
198.846
198.84
198.834
198.827
198.821
198.815
198.809
198.803
198.797
198.791
198.785
198.779
198.773
198.767
198.762
198.756
198.75
198.744
198.738
198.733
198.727
198.721
198.716
198.71
198.705
198.699
198.693
198.688
198.682
198.677
198.671
198.666
198.66
198.655
198.649
198.644
198.638
198.633
198.627
198.622
198.617
198.611
198.606
198.6
198.595
198.59
198.584
198.579
198.574
198.568
198.563
198.558
198.552
198.547
198.542
198.537
198.531
198.526
198.521
198.516
198.51
198.505
198.5
198.495
198.49
198.484
198.479
198.474
198.469
198.463
198.458
198.453
198.448
198.442
198.437
198.432
198.427
198.421
198.416
198.411
198.405
198.4
198.395
198.389
198.384
198.379
198.373
198.368
198.362
198.357
198.351
198.346
198.341
198.335
198.329
198.324
198.318
198.313
198.307
198.302
198.296
198.29
198.285
198.279
198.273
198.268
198.262
198.256
198.251
198.245
198.239
198.233
198.227
198.222
198.216
198.21
198.204
198.198
198.192
198.186
198.18
198.175
198.169
198.163
198.157
198.151
198.145
198.139
198.133
198.126
198.12
198.114
198.108
198.102
198.096
198.09
198.084
198.077
198.071
198.065
198.059
198.053
198.046
198.04
198.034
198.028
198.021
198.015
198.009
198.002
197.996
197.99
197.983
197.977
197.97
197.964
197.958
197.951
197.945
197.938
197.932
197.925
197.919
197.912
197.906
197.899
197.893
197.886
197.88
197.873
197.867
197.86
197.853
197.847
197.84
197.834
197.827
197.82
197.814
197.807
197.8
197.794
197.787
197.78
197.774
197.767
197.76
197.753
197.747
197.74
197.733
197.726
197.72
197.713
197.706
197.699
197.693
197.686
197.679
197.672
197.665
197.659
197.652
197.645
197.638
197.631
197.625
197.618
197.611
197.604
197.597
197.59
197.584
197.577
197.57
197.563
197.556
197.549
197.542
197.536
197.529
197.522
197.515
197.508
197.501
197.494
197.488
197.481
197.474
197.467
197.46
197.453
197.446
197.439
197.433
197.426
197.419
197.412
197.405
197.398
197.392
197.385
197.378
197.371
197.364
197.357
197.351
197.344
197.337
197.33
197.323
197.317
197.31
197.303
197.296
197.29
197.283
197.276
197.269
197.263
197.256
197.249
197.242
197.236
197.229
197.222
197.216
197.209
197.202
197.196
197.189
197.182
197.176
197.169
197.163
197.156
197.149
197.143
197.136
197.13
197.123
197.117
197.11
197.104
197.097
197.091
197.084
197.078
197.071
197.065
197.059
197.052
197.046
197.039
197.033
197.027
197.02
197.014
197.008
197.002
196.995
196.989
196.983
196.977
196.97
196.964
196.958
196.952
196.946
196.94
196.934
196.927
196.921
196.915
196.909
196.903
196.897
196.891
196.885
196.879
196.873
196.868
196.862
196.856
196.85
196.844
196.838
196.833
196.827
196.821
196.815
196.81
196.804
196.798
196.793
196.787
196.781
196.776
196.77
196.765
196.759
196.754
196.748
196.743
196.737
196.732
196.726
196.721
196.716
196.71
196.705
196.7
196.694
196.689
196.684
196.679
196.673
196.668
196.663
196.658
196.653
196.648
196.643
196.638
196.632
196.632
199.328
199.328
199.195
199.13
199.1
199.082
199.069
199.057
199.046
199.036
199.026
199.017
199.008
198.999
198.991
198.982
198.974
198.966
198.958
198.95
198.943
198.935
198.928
198.92
198.913
198.906
198.899
198.892
198.886
198.879
198.872
198.866
198.859
198.853
198.846
198.84
198.834
198.827
198.821
198.815
198.809
198.803
198.797
198.791
198.785
198.779
198.773
198.767
198.762
198.756
198.75
198.744
198.739
198.733
198.727
198.721
198.716
198.71
198.705
198.699
198.693
198.688
198.682
198.677
198.671
198.666
198.66
198.655
198.649
198.644
198.638
198.633
198.627
198.622
198.617
198.611
198.606
198.6
198.595
198.59
198.584
198.579
198.574
198.568
198.563
198.558
198.552
198.547
198.542
198.537
198.531
198.526
198.521
198.516
198.51
198.505
198.5
198.495
198.49
198.484
198.479
198.474
198.469
198.463
198.458
198.453
198.448
198.442
198.437
198.432
198.427
198.421
198.416
198.411
198.405
198.4
198.395
198.389
198.384
198.379
198.373
198.368
198.362
198.357
198.351
198.346
198.341
198.335
198.329
198.324
198.318
198.313
198.307
198.302
198.296
198.29
198.285
198.279
198.273
198.268
198.262
198.256
198.251
198.245
198.239
198.233
198.227
198.222
198.216
198.21
198.204
198.198
198.192
198.186
198.18
198.175
198.169
198.163
198.157
198.151
198.145
198.139
198.133
198.126
198.12
198.114
198.108
198.102
198.096
198.09
198.084
198.077
198.071
198.065
198.059
198.053
198.046
198.04
198.034
198.028
198.021
198.015
198.009
198.002
197.996
197.99
197.983
197.977
197.97
197.964
197.958
197.951
197.945
197.938
197.932
197.925
197.919
197.912
197.906
197.899
197.893
197.886
197.88
197.873
197.867
197.86
197.853
197.847
197.84
197.834
197.827
197.82
197.814
197.807
197.8
197.794
197.787
197.78
197.774
197.767
197.76
197.753
197.747
197.74
197.733
197.726
197.72
197.713
197.706
197.699
197.693
197.686
197.679
197.672
197.665
197.659
197.652
197.645
197.638
197.631
197.625
197.618
197.611
197.604
197.597
197.59
197.584
197.577
197.57
197.563
197.556
197.549
197.542
197.536
197.529
197.522
197.515
197.508
197.501
197.494
197.488
197.481
197.474
197.467
197.46
197.453
197.446
197.439
197.433
197.426
197.419
197.412
197.405
197.398
197.392
197.385
197.378
197.371
197.364
197.357
197.351
197.344
197.337
197.33
197.323
197.317
197.31
197.303
197.296
197.29
197.283
197.276
197.269
197.263
197.256
197.249
197.242
197.236
197.229
197.222
197.216
197.209
197.202
197.196
197.189
197.182
197.176
197.169
197.163
197.156
197.149
197.143
197.136
197.13
197.123
197.117
197.11
197.104
197.097
197.091
197.084
197.078
197.071
197.065
197.059
197.052
197.046
197.039
197.033
197.027
197.02
197.014
197.008
197.002
196.995
196.989
196.983
196.977
196.97
196.964
196.958
196.952
196.946
196.94
196.934
196.927
196.921
196.915
196.909
196.903
196.897
196.891
196.885
196.879
196.874
196.868
196.862
196.856
196.85
196.844
196.838
196.833
196.827
196.821
196.815
196.81
196.804
196.798
196.793
196.787
196.781
196.776
196.77
196.765
196.759
196.754
196.748
196.743
196.737
196.732
196.726
196.721
196.716
196.71
196.705
196.7
196.694
196.689
196.684
196.679
196.673
196.668
196.663
196.658
196.653
196.648
196.643
196.638
196.632
196.632
199.297
199.297
199.195
199.134
199.103
199.084
199.07
199.058
199.047
199.037
199.027
199.017
199.008
198.999
198.991
198.982
198.974
198.966
198.958
198.95
198.943
198.935
198.928
198.92
198.913
198.906
198.899
198.892
198.886
198.879
198.872
198.866
198.859
198.853
198.846
198.84
198.834
198.827
198.821
198.815
198.809
198.803
198.797
198.791
198.785
198.779
198.773
198.767
198.762
198.756
198.75
198.744
198.739
198.733
198.727
198.721
198.716
198.71
198.705
198.699
198.693
198.688
198.682
198.677
198.671
198.666
198.66
198.655
198.649
198.644
198.638
198.633
198.627
198.622
198.617
198.611
198.606
198.6
198.595
198.59
198.584
198.579
198.574
198.568
198.563
198.558
198.552
198.547
198.542
198.537
198.531
198.526
198.521
198.516
198.51
198.505
198.5
198.495
198.49
198.484
198.479
198.474
198.469
198.463
198.458
198.453
198.448
198.442
198.437
198.432
198.427
198.421
198.416
198.411
198.405
198.4
198.395
198.389
198.384
198.379
198.373
198.368
198.362
198.357
198.351
198.346
198.34
198.335
198.329
198.324
198.318
198.313
198.307
198.302
198.296
198.29
198.285
198.279
198.273
198.268
198.262
198.256
198.251
198.245
198.239
198.233
198.227
198.222
198.216
198.21
198.204
198.198
198.192
198.186
198.18
198.175
198.169
198.163
198.157
198.151
198.145
198.139
198.133
198.126
198.12
198.114
198.108
198.102
198.096
198.09
198.084
198.077
198.071
198.065
198.059
198.053
198.046
198.04
198.034
198.028
198.021
198.015
198.009
198.002
197.996
197.99
197.983
197.977
197.97
197.964
197.958
197.951
197.945
197.938
197.932
197.925
197.919
197.912
197.906
197.899
197.893
197.886
197.88
197.873
197.867
197.86
197.853
197.847
197.84
197.834
197.827
197.82
197.814
197.807
197.8
197.794
197.787
197.78
197.774
197.767
197.76
197.753
197.747
197.74
197.733
197.726
197.72
197.713
197.706
197.699
197.693
197.686
197.679
197.672
197.665
197.659
197.652
197.645
197.638
197.631
197.625
197.618
197.611
197.604
197.597
197.59
197.584
197.577
197.57
197.563
197.556
197.549
197.542
197.536
197.529
197.522
197.515
197.508
197.501
197.494
197.488
197.481
197.474
197.467
197.46
197.453
197.446
197.439
197.433
197.426
197.419
197.412
197.405
197.398
197.392
197.385
197.378
197.371
197.364
197.357
197.351
197.344
197.337
197.33
197.323
197.317
197.31
197.303
197.296
197.29
197.283
197.276
197.269
197.263
197.256
197.249
197.242
197.236
197.229
197.222
197.216
197.209
197.202
197.196
197.189
197.182
197.176
197.169
197.163
197.156
197.149
197.143
197.136
197.13
197.123
197.117
197.11
197.104
197.097
197.091
197.084
197.078
197.071
197.065
197.059
197.052
197.046
197.039
197.033
197.027
197.02
197.014
197.008
197.002
196.995
196.989
196.983
196.977
196.97
196.964
196.958
196.952
196.946
196.94
196.934
196.927
196.921
196.915
196.909
196.903
196.897
196.891
196.885
196.879
196.874
196.868
196.862
196.856
196.85
196.844
196.838
196.833
196.827
196.821
196.815
196.81
196.804
196.798
196.793
196.787
196.781
196.776
196.77
196.765
196.759
196.754
196.748
196.743
196.737
196.732
196.726
196.721
196.716
196.71
196.705
196.7
196.694
196.689
196.684
196.679
196.673
196.668
196.663
196.658
196.653
196.648
196.643
196.638
196.632
196.632
199.271
199.271
199.193
199.139
199.107
199.087
199.072
199.059
199.048
199.037
199.027
199.018
199.009
199
198.991
198.983
198.974
198.966
198.958
198.95
198.943
198.935
198.928
198.921
198.913
198.906
198.899
198.892
198.886
198.879
198.872
198.866
198.859
198.853
198.846
198.84
198.834
198.827
198.821
198.815
198.809
198.803
198.797
198.791
198.785
198.779
198.773
198.767
198.762
198.756
198.75
198.744
198.739
198.733
198.727
198.721
198.716
198.71
198.705
198.699
198.693
198.688
198.682
198.677
198.671
198.666
198.66
198.655
198.649
198.644
198.638
198.633
198.627
198.622
198.617
198.611
198.606
198.6
198.595
198.59
198.584
198.579
198.574
198.568
198.563
198.558
198.552
198.547
198.542
198.537
198.531
198.526
198.521
198.516
198.51
198.505
198.5
198.495
198.49
198.484
198.479
198.474
198.469
198.463
198.458
198.453
198.448
198.442
198.437
198.432
198.427
198.421
198.416
198.411
198.405
198.4
198.395
198.389
198.384
198.379
198.373
198.368
198.362
198.357
198.351
198.346
198.34
198.335
198.329
198.324
198.318
198.313
198.307
198.302
198.296
198.29
198.285
198.279
198.273
198.268
198.262
198.256
198.251
198.245
198.239
198.233
198.227
198.222
198.216
198.21
198.204
198.198
198.192
198.186
198.18
198.175
198.169
198.163
198.157
198.151
198.145
198.139
198.133
198.126
198.12
198.114
198.108
198.102
198.096
198.09
198.084
198.077
198.071
198.065
198.059
198.053
198.046
198.04
198.034
198.028
198.021
198.015
198.009
198.002
197.996
197.99
197.983
197.977
197.97
197.964
197.958
197.951
197.945
197.938
197.932
197.925
197.919
197.912
197.906
197.899
197.893
197.886
197.88
197.873
197.867
197.86
197.853
197.847
197.84
197.834
197.827
197.82
197.814
197.807
197.8
197.794
197.787
197.78
197.774
197.767
197.76
197.753
197.747
197.74
197.733
197.726
197.72
197.713
197.706
197.699
197.693
197.686
197.679
197.672
197.665
197.659
197.652
197.645
197.638
197.631
197.625
197.618
197.611
197.604
197.597
197.59
197.584
197.577
197.57
197.563
197.556
197.549
197.542
197.536
197.529
197.522
197.515
197.508
197.501
197.494
197.488
197.481
197.474
197.467
197.46
197.453
197.446
197.439
197.433
197.426
197.419
197.412
197.405
197.398
197.392
197.385
197.378
197.371
197.364
197.357
197.351
197.344
197.337
197.33
197.323
197.317
197.31
197.303
197.296
197.29
197.283
197.276
197.269
197.263
197.256
197.249
197.242
197.236
197.229
197.222
197.216
197.209
197.202
197.196
197.189
197.182
197.176
197.169
197.163
197.156
197.149
197.143
197.136
197.13
197.123
197.117
197.11
197.104
197.097
197.091
197.084
197.078
197.071
197.065
197.059
197.052
197.046
197.039
197.033
197.027
197.02
197.014
197.008
197.002
196.995
196.989
196.983
196.977
196.97
196.964
196.958
196.952
196.946
196.94
196.934
196.927
196.921
196.915
196.909
196.903
196.897
196.891
196.885
196.879
196.874
196.868
196.862
196.856
196.85
196.844
196.838
196.833
196.827
196.821
196.815
196.81
196.804
196.798
196.793
196.787
196.781
196.776
196.77
196.765
196.759
196.754
196.748
196.743
196.737
196.732
196.726
196.721
196.716
196.71
196.705
196.7
196.694
196.689
196.684
196.679
196.673
196.668
196.663
196.658
196.653
196.648
196.643
196.638
196.633
196.633
199.25
199.25
199.19
199.141
199.11
199.089
199.074
199.061
199.049
199.038
199.028
199.018
199.009
199
198.991
198.983
198.975
198.966
198.958
198.951
198.943
198.935
198.928
198.921
198.913
198.906
198.899
198.893
198.886
198.879
198.872
198.866
198.859
198.853
198.846
198.84
198.834
198.828
198.821
198.815
198.809
198.803
198.797
198.791
198.785
198.779
198.773
198.767
198.762
198.756
198.75
198.744
198.739
198.733
198.727
198.721
198.716
198.71
198.705
198.699
198.693
198.688
198.682
198.677
198.671
198.666
198.66
198.655
198.649
198.644
198.638
198.633
198.627
198.622
198.617
198.611
198.606
198.6
198.595
198.59
198.584
198.579
198.574
198.568
198.563
198.558
198.552
198.547
198.542
198.537
198.531
198.526
198.521
198.516
198.51
198.505
198.5
198.495
198.49
198.484
198.479
198.474
198.469
198.463
198.458
198.453
198.448
198.442
198.437
198.432
198.427
198.421
198.416
198.411
198.405
198.4
198.395
198.389
198.384
198.379
198.373
198.368
198.362
198.357
198.351
198.346
198.34
198.335
198.329
198.324
198.318
198.313
198.307
198.302
198.296
198.29