# vtk DataFile Version 2.0
FlowField
ASCII
DATASET STRUCTURED_GRID
DIMENSIONS 400 1 50
POINTS 20000 float
0 0 0
0.08 0 0
0.16 0 0
0.24 0 0
0.32 0 0
0.4 0 0
0.48 0 0
0.56 0 0
0.64 0 0
0.72 0 0
0.8 0 0
0.88 0 0
0.96 0 0
1.04 0 0
1.12 0 0
1.2 0 0
1.28 0 0
1.36 0 0
1.44 0 0
1.52 0 0
1.6 0 0
1.68 0 0
1.76 0 0
1.84 0 0
1.92 0 0
2 0 0
2.08 0 0
2.16 0 0
2.24 0 0
2.32 0 0
2.4 0 0
2.48 0 0
2.56 0 0
2.64 0 0
2.72 0 0
2.8 0 0
2.88 0 0
2.96 0 0
3.04 0 0
3.12 0 0
3.2 0 0
3.28 0 0
3.36 0 0
3.44 0 0
3.52 0 0
3.6 0 0
3.68 0 0
3.76 0 0
3.84 0 0
3.92 0 0
4 0 0
4.08 0 0
4.16 0 0
4.24 0 0
4.32 0 0
4.4 0 0
4.48 0 0
4.56 0 0
4.64 0 0
4.72 0 0
4.8 0 0
4.88 0 0
4.96 0 0
5.04 0 0
5.12 0 0
5.2 0 0
5.28 0 0
5.36 0 0
5.44 0 0
5.52 0 0
5.6 0 0
5.68 0 0
5.76 0 0
5.84 0 0
5.92 0 0
6 0 0
6.08 0 0
6.16 0 0
6.24 0 0
6.32 0 0
6.4 0 0
6.48 0 0
6.56 0 0
6.64 0 0
6.72 0 0
6.8 0 0
6.88 0 0
6.96 0 0
7.04 0 0
7.12 0 0
7.2 0 0
7.28 0 0
7.36 0 0
7.44 0 0
7.52 0 0
7.6 0 0
7.68 0 0
7.76 0 0
7.84 0 0
7.92 0 0
8 0 0
8.08 0 0
8.16 0 0
8.24 0 0
8.32 0 0
8.4 0 0
8.48 0 0
8.56 0 0
8.64 0 0
8.72 0 0
8.8 0 0
8.88 0 0
8.96 0 0
9.04 0 0
9.12 0 0
9.2 0 0
9.28 0 0
9.36 0 0
9.44 0 0
9.52 0 0
9.6 0 0
9.68 0 0
9.76 0 0
9.84 0 0
9.92 0 0
10 0 0
10.08 0 0
10.16 0 0
10.24 0 0
10.32 0 0
10.4 0 0
10.48 0 0
10.56 0 0
10.64 0 0
10.72 0 0
10.8 0 0
10.88 0 0
10.96 0 0
11.04 0 0
11.12 0 0
11.2 0 0
11.28 0 0
11.36 0 0
11.44 0 0
11.52 0 0
11.6 0 0
11.68 0 0
11.76 0 0
11.84 0 0
11.92 0 0
12 0 0
12.08 0 0
12.16 0 0
12.24 0 0
12.32 0 0
12.4 0 0
12.48 0 0
12.56 0 0
12.64 0 0
12.72 0 0
12.8 0 0
12.88 0 0
12.96 0 0
13.04 0 0
13.12 0 0
13.2 0 0
13.28 0 0
13.36 0 0
13.44 0 0
13.52 0 0
13.6 0 0
13.68 0 0
13.76 0 0
13.84 0 0
13.92 0 0
14 0 0
14.08 0 0
14.16 0 0
14.24 0 0
14.32 0 0
14.4 0 0
14.48 0 0
14.56 0 0
14.64 0 0
14.72 0 0
14.8 0 0
14.88 0 0
14.96 0 0
15.04 0 0
15.12 0 0
15.2 0 0
15.28 0 0
15.36 0 0
15.44 0 0
15.52 0 0
15.6 0 0
15.68 0 0
15.76 0 0
15.84 0 0
15.92 0 0
16 0 0
16.08 0 0
16.16 0 0
16.24 0 0
16.32 0 0
16.4 0 0
16.48 0 0
16.56 0 0
16.64 0 0
16.72 0 0
16.8 0 0
16.88 0 0
16.96 0 0
17.04 0 0
17.12 0 0
17.2 0 0
17.28 0 0
17.36 0 0
17.44 0 0
17.52 0 0
17.6 0 0
17.68 0 0
17.76 0 0
17.84 0 0
17.92 0 0
18 0 0
18.08 0 0
18.16 0 0
18.24 0 0
18.32 0 0
18.4 0 0
18.48 0 0
18.56 0 0
18.64 0 0
18.72 0 0
18.8 0 0
18.88 0 0
18.96 0 0
19.04 0 0
19.12 0 0
19.2 0 0
19.28 0 0
19.36 0 0
19.44 0 0
19.52 0 0
19.6 0 0
19.68 0 0
19.76 0 0
19.84 0 0
19.92 0 0
20 0 0
20.08 0 0
20.16 0 0
20.24 0 0
20.32 0 0
20.4 0 0
20.48 0 0
20.56 0 0
20.64 0 0
20.72 0 0
20.8 0 0
20.88 0 0
20.96 0 0
21.04 0 0
21.12 0 0
21.2 0 0
21.28 0 0
21.36 0 0
21.44 0 0
21.52 0 0
21.6 0 0
21.68 0 0
21.76 0 0
21.84 0 0
21.92 0 0
22 0 0
22.08 0 0
22.16 0 0
22.24 0 0
22.32 0 0
22.4 0 0
22.48 0 0
22.56 0 0
22.64 0 0
22.72 0 0
22.8 0 0
22.88 0 0
22.96 0 0
23.04 0 0
23.12 0 0
23.2 0 0
23.28 0 0
23.36 0 0
23.44 0 0
23.52 0 0
23.6 0 0
23.68 0 0
23.76 0 0
23.84 0 0
23.92 0 0
24 0 0
24.08 0 0
24.16 0 0
24.24 0 0
24.32 0 0
24.4 0 0
24.48 0 0
24.56 0 0
24.64 0 0
24.72 0 0
24.8 0 0
24.88 0 0
24.96 0 0
25.04 0 0
25.12 0 0
25.2 0 0
25.28 0 0
25.36 0 0
25.44 0 0
25.52 0 0
25.6 0 0
25.68 0 0
25.76 0 0
25.84 0 0
25.92 0 0
26 0 0
26.08 0 0
26.16 0 0
26.24 0 0
26.32 0 0
26.4 0 0
26.48 0 0
26.56 0 0
26.64 0 0
26.72 0 0
26.8 0 0
26.88 0 0
26.96 0 0
27.04 0 0
27.12 0 0
27.2 0 0
27.28 0 0
27.36 0 0
27.44 0 0
27.52 0 0
27.6 0 0
27.68 0 0
27.76 0 0
27.84 0 0
27.92 0 0
28 0 0
28.08 0 0
28.16 0 0
28.24 0 0
28.32 0 0
28.4 0 0
28.48 0 0
28.56 0 0
28.64 0 0
28.72 0 0
28.8 0 0
28.88 0 0
28.96 0 0
29.04 0 0
29.12 0 0
29.2 0 0
29.28 0 0
29.36 0 0
29.44 0 0
29.52 0 0
29.6 0 0
29.68 0 0
29.76 0 0
29.84 0 0
29.92 0 0
30 0 0
30.08 0 0
30.16 0 0
30.24 0 0
30.32 0 0
30.4 0 0
30.48 0 0
30.56 0 0
30.64 0 0
30.72 0 0
30.8 0 0
30.88 0 0
30.96 0 0
31.04 0 0
31.12 0 0
31.2 0 0
31.28 0 0
31.36 0 0
31.44 0 0
31.52 0 0
31.6 0 0
31.68 0 0
31.76 0 0
31.84 0 0
31.92 0 0
0 0.02 0
0.08 0.02 0
0.16 0.02 0
0.24 0.02 0
0.32 0.02 0
0.4 0.02 0
0.48 0.02 0
0.56 0.02 0
0.64 0.02 0
0.72 0.02 0
0.8 0.02 0
0.88 0.02 0
0.96 0.02 0
1.04 0.02 0
1.12 0.02 0
1.2 0.02 0
1.28 0.02 0
1.36 0.02 0
1.44 0.02 0
1.52 0.02 0
1.6 0.02 0
1.68 0.02 0
1.76 0.02 0
1.84 0.02 0
1.92 0.02 0
2 0.02 0
2.08 0.02 0
2.16 0.02 0
2.24 0.02 0
2.32 0.02 0
2.4 0.02 0
2.48 0.02 0
2.56 0.02 0
2.64 0.02 0
2.72 0.02 0
2.8 0.02 0
2.88 0.02 0
2.96 0.02 0
3.04 0.02 0
3.12 0.02 0
3.2 0.02 0
3.28 0.02 0
3.36 0.02 0
3.44 0.02 0
3.52 0.02 0
3.6 0.02 0
3.68 0.02 0
3.76 0.02 0
3.84 0.02 0
3.92 0.02 0
4 0.02 0
4.08 0.02 0
4.16 0.02 0
4.24 0.02 0
4.32 0.02 0
4.4 0.02 0
4.48 0.02 0
4.56 0.02 0
4.64 0.02 0
4.72 0.02 0
4.8 0.02 0
4.88 0.02 0
4.96 0.02 0
5.04 0.02 0
5.12 0.02 0
5.2 0.02 0
5.28 0.02 0
5.36 0.02 0
5.44 0.02 0
5.52 0.02 0
5.6 0.02 0
5.68 0.02 0
5.76 0.02 0
5.84 0.02 0
5.92 0.02 0
6 0.02 0
6.08 0.02 0
6.16 0.02 0
6.24 0.02 0
6.32 0.02 0
6.4 0.02 0
6.48 0.02 0
6.56 0.02 0
6.64 0.02 0
6.72 0.02 0
6.8 0.02 0
6.88 0.02 0
6.96 0.02 0
7.04 0.02 0
7.12 0.02 0
7.2 0.02 0
7.28 0.02 0
7.36 0.02 0
7.44 0.02 0
7.52 0.02 0
7.6 0.02 0
7.68 0.02 0
7.76 0.02 0
7.84 0.02 0
7.92 0.02 0
8 0.02 0
8.08 0.02 0
8.16 0.02 0
8.24 0.02 0
8.32 0.02 0
8.4 0.02 0
8.48 0.02 0
8.56 0.02 0
8.64 0.02 0
8.72 0.02 0
8.8 0.02 0
8.88 0.02 0
8.96 0.02 0
9.04 0.02 0
9.12 0.02 0
9.2 0.02 0
9.28 0.02 0
9.36 0.02 0
9.44 0.02 0
9.52 0.02 0
9.6 0.02 0
9.68 0.02 0
9.76 0.02 0
9.84 0.02 0
9.92 0.02 0
10 0.02 0
10.08 0.02 0
10.16 0.02 0
10.24 0.02 0
10.32 0.02 0
10.4 0.02 0
10.48 0.02 0
10.56 0.02 0
10.64 0.02 0
10.72 0.02 0
10.8 0.02 0
10.88 0.02 0
10.96 0.02 0
11.04 0.02 0
11.12 0.02 0
11.2 0.02 0
11.28 0.02 0
11.36 0.02 0
11.44 0.02 0
11.52 0.02 0
11.6 0.02 0
11.68 0.02 0
11.76 0.02 0
11.84 0.02 0
11.92 0.02 0
12 0.02 0
12.08 0.02 0
12.16 0.02 0
12.24 0.02 0
12.32 0.02 0
12.4 0.02 0
12.48 0.02 0
12.56 0.02 0
12.64 0.02 0
12.72 0.02 0
12.8 0.02 0
12.88 0.02 0
12.96 0.02 0
13.04 0.02 0
13.12 0.02 0
13.2 0.02 0
13.28 0.02 0
13.36 0.02 0
13.44 0.02 0
13.52 0.02 0
13.6 0.02 0
13.68 0.02 0
13.76 0.02 0
13.84 0.02 0
13.92 0.02 0
14 0.02 0
14.08 0.02 0
14.16 0.02 0
14.24 0.02 0
14.32 0.02 0
14.4 0.02 0
14.48 0.02 0
14.56 0.02 0
14.64 0.02 0
14.72 0.02 0
14.8 0.02 0
14.88 0.02 0
14.96 0.02 0
15.04 0.02 0
15.12 0.02 0
15.2 0.02 0
15.28 0.02 0
15.36 0.02 0
15.44 0.02 0
15.52 0.02 0
15.6 0.02 0
15.68 0.02 0
15.76 0.02 0
15.84 0.02 0
15.92 0.02 0
16 0.02 0
16.08 0.02 0
16.16 0.02 0
16.24 0.02 0
16.32 0.02 0
16.4 0.02 0
16.48 0.02 0
16.56 0.02 0
16.64 0.02 0
16.72 0.02 0
16.8 0.02 0
16.88 0.02 0
16.96 0.02 0
17.04 0.02 0
17.12 0.02 0
17.2 0.02 0
17.28 0.02 0
17.36 0.02 0
17.44 0.02 0
17.52 0.02 0
17.6 0.02 0
17.68 0.02 0
17.76 0.02 0
17.84 0.02 0
17.92 0.02 0
18 0.02 0
18.08 0.02 0
18.16 0.02 0
18.24 0.02 0
18.32 0.02 0
18.4 0.02 0
18.48 0.02 0
18.56 0.02 0
18.64 0.02 0
18.72 0.02 0
18.8 0.02 0
18.88 0.02 0
18.96 0.02 0
19.04 0.02 0
19.12 0.02 0
19.2 0.02 0
19.28 0.02 0
19.36 0.02 0
19.44 0.02 0
19.52 0.02 0
19.6 0.02 0
19.68 0.02 0
19.76 0.02 0
19.84 0.02 0
19.92 0.02 0
20 0.02 0
20.08 0.02 0
20.16 0.02 0
20.24 0.02 0
20.32 0.02 0
20.4 0.02 0
20.48 0.02 0
20.56 0.02 0
20.64 0.02 0
20.72 0.02 0
20.8 0.02 0
20.88 0.02 0
20.96 0.02 0
21.04 0.02 0
21.12 0.02 0
21.2 0.02 0
21.28 0.02 0
21.36 0.02 0
21.44 0.02 0
21.52 0.02 0
21.6 0.02 0
21.68 0.02 0
21.76 0.02 0
21.84 0.02 0
21.92 0.02 0
22 0.02 0
22.08 0.02 0
22.16 0.02 0
22.24 0.02 0
22.32 0.02 0
22.4 0.02 0
22.48 0.02 0
22.56 0.02 0
22.64 0.02 0
22.72 0.02 0
22.8 0.02 0
22.88 0.02 0
22.96 0.02 0
23.04 0.02 0
23.12 0.02 0
23.2 0.02 0
23.28 0.02 0
23.36 0.02 0
23.44 0.02 0
23.52 0.02 0
23.6 0.02 0
23.68 0.02 0
23.76 0.02 0
23.84 0.02 0
23.92 0.02 0
24 0.02 0
24.08 0.02 0
24.16 0.02 0
24.24 0.02 0
24.32 0.02 0
24.4 0.02 0
24.48 0.02 0
24.56 0.02 0
24.64 0.02 0
24.72 0.02 0
24.8 0.02 0
24.88 0.02 0
24.96 0.02 0
25.04 0.02 0
25.12 0.02 0
25.2 0.02 0
25.28 0.02 0
25.36 0.02 0
25.44 0.02 0
25.52 0.02 0
25.6 0.02 0
25.68 0.02 0
25.76 0.02 0
25.84 0.02 0
25.92 0.02 0
26 0.02 0
26.08 0.02 0
26.16 0.02 0
26.24 0.02 0
26.32 0.02 0
26.4 0.02 0
26.48 0.02 0
26.56 0.02 0
26.64 0.02 0
26.72 0.02 0
26.8 0.02 0
26.88 0.02 0
26.96 0.02 0
27.04 0.02 0
27.12 0.02 0
27.2 0.02 0
27.28 0.02 0
27.36 0.02 0
27.44 0.02 0
27.52 0.02 0
27.6 0.02 0
27.68 0.02 0
27.76 0.02 0
27.84 0.02 0
27.92 0.02 0
28 0.02 0
28.08 0.02 0
28.16 0.02 0
28.24 0.02 0
28.32 0.02 0
28.4 0.02 0
28.48 0.02 0
28.56 0.02 0
28.64 0.02 0
28.72 0.02 0
28.8 0.02 0
28.88 0.02 0
28.96 0.02 0
29.04 0.02 0
29.12 0.02 0
29.2 0.02 0
29.28 0.02 0
29.36 0.02 0
29.44 0.02 0
29.52 0.02 0
29.6 0.02 0
29.68 0.02 0
29.76 0.02 0
29.84 0.02 0
29.92 0.02 0
30 0.02 0
30.08 0.02 0
30.16 0.02 0
30.24 0.02 0
30.32 0.02 0
30.4 0.02 0
30.48 0.02 0
30.56 0.02 0
30.64 0.02 0
30.72 0.02 0
30.8 0.02 0
30.88 0.02 0
30.96 0.02 0
31.04 0.02 0
31.12 0.02 0
31.2 0.02 0
31.28 0.02 0
31.36 0.02 0
31.44 0.02 0
31.52 0.02 0
31.6 0.02 0
31.68 0.02 0
31.76 0.02 0
31.84 0.02 0
31.92 0.02 0
0 0.04 0
0.08 0.04 0
0.16 0.04 0
0.24 0.04 0
0.32 0.04 0
0.4 0.04 0
0.48 0.04 0
0.56 0.04 0
0.64 0.04 0
0.72 0.04 0
0.8 0.04 0
0.88 0.04 0
0.96 0.04 0
1.04 0.04 0
1.12 0.04 0
1.2 0.04 0
1.28 0.04 0
1.36 0.04 0
1.44 0.04 0
1.52 0.04 0
1.6 0.04 0
1.68 0.04 0
1.76 0.04 0
1.84 0.04 0
1.92 0.04 0
2 0.04 0
2.08 0.04 0
2.16 0.04 0
2.24 0.04 0
2.32 0.04 0
2.4 0.04 0
2.48 0.04 0
2.56 0.04 0
2.64 0.04 0
2.72 0.04 0
2.8 0.04 0
2.88 0.04 0
2.96 0.04 0
3.04 0.04 0
3.12 0.04 0
3.2 0.04 0
3.28 0.04 0
3.36 0.04 0
3.44 0.04 0
3.52 0.04 0
3.6 0.04 0
3.68 0.04 0
3.76 0.04 0
3.84 0.04 0
3.92 0.04 0
4 0.04 0
4.08 0.04 0
4.16 0.04 0
4.24 0.04 0
4.32 0.04 0
4.4 0.04 0
4.48 0.04 0
4.56 0.04 0
4.64 0.04 0
4.72 0.04 0
4.8 0.04 0
4.88 0.04 0
4.96 0.04 0
5.04 0.04 0
5.12 0.04 0
5.2 0.04 0
5.28 0.04 0
5.36 0.04 0
5.44 0.04 0
5.52 0.04 0
5.6 0.04 0
5.68 0.04 0
5.76 0.04 0
5.84 0.04 0
5.92 0.04 0
6 0.04 0
6.08 0.04 0
6.16 0.04 0
6.24 0.04 0
6.32 0.04 0
6.4 0.04 0
6.48 0.04 0
6.56 0.04 0
6.64 0.04 0
6.72 0.04 0
6.8 0.04 0
6.88 0.04 0
6.96 0.04 0
7.04 0.04 0
7.12 0.04 0
7.2 0.04 0
7.28 0.04 0
7.36 0.04 0
7.44 0.04 0
7.52 0.04 0
7.6 0.04 0
7.68 0.04 0
7.76 0.04 0
7.84 0.04 0
[...]
POINT_DATA 20000

SCALARS v float 1
LOOKUP_TABLE default
0
0
0
0
0
0
0
0
0
0
0
0
0
0
0
0
0
0
0
0
0
0
0
0
0
0
0
0
0
0
0
0
0
0
0
0
0
0
0
0
0
0
0
0
0
0
0
0
0
0
0
0
0
0
0
0
0
0
0
0
0
0
0
0
0
0
0
0
0
0
0
0
0
0
0
0
0
0
0
0
0
0
0
0
0
0
0
0
0
0
0
0
0
0
0
0
0
0
0
0
0
0
0
0
0
0
0
0
0
0
0
0
0
0
0
0
0
0
0
0
0
0
0
0
0
0
0
0
0
0
0
0
0
0
0
0
0
0
0
0
0
0
0
0
0
0
0
0
0
0
0
0
0
0
0
0
0
0
0
0
0
0
0
0
0
0
0
0
0
0
0
0
0
0
0
0
0
0
0
0
0
0
0
0
0
0
0
0
0
0
0
0
0
0
0
0
0
0
0
0
0
0
0
0
0
0
0
0
0
0
0
0
0
0
0
0
0
0
0
0
0
0
0
0
0
0
0
0
0
0
0
0
0
0
0
0
0
0
0
0
0
0
0
0
0
0
0
0
0
0
0
0
0
0
0
0
0
0
0
0
0
0
0
0
0
0
0
0
0
0
0
0
0
0
0
0
0
0
0
0
0
0
0
0
0
0
0
0
0
0
0
0
0
0
0
0
0
0
0
0
0
0
0
0
0
0
0
0
0
0
0
0
0
0
0
0
0
0
0
0
0
0
0
0
0
0
0
0
0
0
0
0
0
0
0
0
0
0
0
0
0
0
0
0
0
0
0
0
0
0
0
0
0
0
0
0
0
0
0
0
0
0
0
0
0
0
0
0
0
0
0
0
0
0
0
0
0
0
0
0
0
0
0
0
0
0
0
0
0
0
0
0
0
0
0
0
0
0
0
0
-0.123221
0.123221
0.0537856
0.0194325
0.00877652
0.00508302
0.003381
0.0024305
0.00184064
0.0014494
0.00117712
0.000980303
0.000833423
0.000720716
0.000632066
0.000560788
0.000502354
0.000453628
0.000412393
0.000377052
0.00034643
0.00031965
0.000296041
0.000275083
0.000256366
0.000239561
0.000224402
0.000210671
0.000198186
0.000186795
0.000176369
0.000166798
0.000157987
0.000149855
0.000142331
0.000135354
0.00012887
0.000122832
0.0001172
0.000111936
0.00010701
0.00010239
9.80517e-05
9.39707e-05
9.01259e-05
8.64987e-05
8.30724e-05
7.98322e-05
7.67646e-05
7.38572e-05
7.10982e-05
6.84769e-05
6.59829e-05
6.3607e-05
6.13413e-05
5.91787e-05
5.71133e-05
5.51397e-05
5.32529e-05
5.14478e-05
4.97192e-05
4.80619e-05
4.6471e-05
4.49423e-05
4.34723e-05
4.20583e-05
4.06983e-05
3.93902e-05
3.81321e-05
3.69209e-05
3.57532e-05
3.46254e-05
3.3534e-05
3.24768e-05
3.14526e-05
3.04613e-05
2.95029e-05
2.85773e-05
2.76833e-05
2.68193e-05
2.5983e-05
2.5172e-05
2.4384e-05
2.36173e-05
2.28715e-05
2.21472e-05
2.14461e-05
2.07695e-05
2.01167e-05
1.94847e-05
1.88694e-05
1.82668e-05
1.76753e-05
1.70961e-05
1.65318e-05
1.59846e-05
1.54557e-05
1.49442e-05
1.44489e-05
1.39685e-05
1.35013e-05
1.30451e-05
1.25975e-05
1.21566e-05
1.17232e-05
1.1301e-05
1.08948e-05
1.05077e-05
1.01378e-05
9.7787e-06
9.42258e-06
9.06431e-06
8.70445e-06
8.34863e-06
8.00395e-06
7.67503e-06
7.36197e-06
7.06136e-06
6.7688e-06
6.4811e-06
6.19659e-06
5.91433e-06
5.63361e-06
5.35465e-06
5.07997e-06
4.81456e-06
4.56384e-06
4.33005e-06
4.10952e-06
3.8932e-06
3.67093e-06
3.43711e-06
3.19435e-06
2.95234e-06
2.72265e-06
2.51246e-06
2.32092e-06
2.14028e-06
1.96039e-06
1.77368e-06
1.57774e-06
1.3746e-06
1.16836e-06
9.63308e-07
7.6346e-07
5.72774e-07
3.94395e-07
2.28334e-07
6.89896e-08
-9.48683e-08
-2.76037e-07
-4.81891e-07
-7.08409e-07
-9.39617e-07
-1.15421e-06
-1.3367e-06
-1.48699e-06
-1.62233e-06
-1.76966e-06
-1.95168e-06
-2.17414e-06
-2.42175e-06
-2.66528e-06
-2.87643e-06
-3.04248e-06
-3.1729e-06
-3.2943e-06
-3.43653e-06
-3.6174e-06
-3.83397e-06
-4.06465e-06
-4.28049e-06
-4.45957e-06
-4.59702e-06
-4.70611e-06
-4.8104e-06
-4.93174e-06
-5.08008e-06
-5.24992e-06
-5.42439e-06
-5.58419e-06
-5.71662e-06
-5.82061e-06
-5.90577e-06
-5.9868e-06
-6.07628e-06
-6.17947e-06
-6.29299e-06
-6.40749e-06
-6.51256e-06
-6.60126e-06
-6.67258e-06
-6.73083e-06
-6.78302e-06
-6.83546e-06
-6.89127e-06
-6.94965e-06
-7.00691e-06
-7.05854e-06
-7.10129e-06
-7.13436e-06
-7.15947e-06
-7.17984e-06
-7.19884e-06
-7.21872e-06
-7.23999e-06
-7.26158e-06
-7.28148e-06
-7.29766e-06
-7.30878e-06
-7.31463e-06
-7.316e-06
-7.31432e-06
-7.31118e-06
-7.30782e-06
-7.30491e-06
-7.30252e-06
-7.30026e-06
-7.29753e-06
-7.29381e-06
-7.2888e-06
-7.28248e-06
-7.27507e-06
-7.26697e-06
-7.25858e-06
-7.25023e-06
-7.24214e-06
-7.23438e-06
-7.2269e-06
-7.21958e-06
-7.21231e-06
-7.20498e-06
-7.19753e-06
-7.18995e-06
-7.18226e-06
-7.17452e-06
-7.16676e-06
-7.15905e-06
-7.1514e-06
-7.14383e-06
-7.13633e-06
-7.12889e-06
-7.12149e-06
-7.11412e-06
-7.10677e-06
-7.09943e-06
-7.09211e-06
-7.0848e-06
-7.07751e-06
-7.07025e-06
-7.06302e-06
-7.05582e-06
-7.04866e-06
-7.04153e-06
-7.03444e-06
-7.02739e-06
-7.02037e-06
-7.01339e-06
-7.00644e-06
-6.99952e-06
-6.99264e-06
-6.98579e-06
-6.97898e-06
-6.9722e-06
-6.96546e-06
-6.95876e-06
-6.95209e-06
-6.94547e-06
-6.93888e-06
-6.93233e-06
-6.92582e-06
-6.91935e-06
-6.91293e-06
-6.90654e-06
-6.90019e-06
-6.89389e-06
-6.88763e-06
-6.88141e-06
-6.87523e-06
-6.86909e-06
-6.863e-06
-6.85696e-06
-6.85096e-06
-6.845e-06
-6.83909e-06
-6.83322e-06
-6.8274e-06
-6.82162e-06
-6.8159e-06
-6.81022e-06
-6.80458e-06
-6.799e-06
-6.79346e-06
-6.78797e-06
-6.78253e-06
-6.77714e-06
-6.7718e-06
-6.7665e-06
-6.76126e-06
-6.75607e-06
-6.75093e-06
-6.74584e-06
-6.7408e-06
-6.73582e-06
-6.73089e-06
-6.72601e-06
-6.72118e-06
-6.7164e-06
-6.71168e-06
-6.70701e-06
-6.7024e-06
-6.69784e-06
-6.69333e-06
-6.68889e-06
-6.68449e-06
-6.68015e-06
-6.67586e-06
-6.67164e-06
-6.66746e-06
-6.66336e-06
-6.65929e-06
-6.6553e-06
-6.65135e-06
-6.64748e-06
-6.64363e-06
-6.63988e-06
-6.63615e-06
-6.63252e-06
-6.6289e-06
-6.6254e-06
-6.62189e-06
-6.61852e-06
-6.61511e-06
-6.61188e-06
-6.60858e-06
-6.60548e-06
-6.60228e-06
-6.59933e-06
-6.59623e-06
-6.59343e-06
-6.59042e-06
-6.58778e-06
-6.58485e-06
-6.58239e-06
-6.57952e-06
-6.57726e-06
-6.57444e-06
-6.57239e-06
-6.5696e-06
-6.5678e-06
-6.56501e-06
-6.56349e-06
-6.56065e-06
-6.55948e-06
-6.55653e-06
-6.55576e-06
-6.55264e-06
-6.55237e-06
-6.54899e-06
-6.54932e-06
-6.54555e-06
-6.54663e-06
-6.54233e-06
-6.54435e-06
-6.53931e-06
-6.54253e-06
-6.53647e-06
-6.54123e-06
-6.53379e-06
-6.54054e-06
-6.53123e-06
-6.54057e-06
-6.52876e-06
-6.54149e-06
-6.52632e-06
-6.54348e-06
-6.52387e-06
-6.54677e-06
-6.52135e-06
-6.55165e-06
-6.51875e-06
-6.55842e-06
-6.51609e-06
-6.56736e-06
-6.51342e-06
-6.57863e-06
-6.51082e-06
-6.59209e-06
-6.50814e-06
-6.60645e-06
-6.50486e-06
-6.61632e-06
-6.50058e-06
-6.59932e-06
-6.49952e-06
-6.45094e-06
-6.5207e-06
-5.30396e-06
-5.86299e-06
-5.86299e-06
-0.142147
0.142147
0.100998
0.0539058
0.030249
0.0189107
0.0129199
0.00940517
0.00717214
0.00566915
0.00461258
0.00384351
0.00326695
0.00282339
0.00247416
0.00219345
0.00196359
0.00177225
0.00161068
0.0014725
0.00135304
0.00124879
0.00115705
0.00107576
0.00100327
0.000938271
0.000879709
0.000826715
0.000778572
0.000734679
0.000694529
0.000657692
0.000623798
0.000592529
0.00056361
0.000536803
0.000511899
0.000488717
0.000467098
0.0004469
0.000427996
0.000410274
0.000393632
0.00037798
0.000363237
0.00034933
0.000336194
0.000323774
0.000312015
0.000300871
0.000290295
0.000280246
0.000270686
0.000261581
0.0002529
0.000244616
0.000236706
0.000229149
0.000221924
0.00021501
0.000208388
0.000202038
0.000195943
0.000190088
0.000184458
0.000179044
0.000173837
0.000168829
0.000164008
0.000159365
0.000154887
0.00015056
0.000146375
0.000142324
0.000138403
0.00013461
0.000130945
0.000127403
0.00012398
0.000120669
0.000117461
0.00011435
0.000111328
0.000108391
0.000105536
0.000102767
0.000100086
9.74946e-05
9.4988e-05
9.25559e-05
9.01855e-05
8.7867e-05
8.55976e-05
8.33817e-05
8.12264e-05
7.91373e-05
7.71151e-05
7.51563e-05
7.32562e-05
7.14095e-05
6.9611e-05
6.78539e-05
6.61316e-05
6.44411e-05
6.27863e-05
6.11785e-05
5.96293e-05
5.81428e-05
5.67095e-05
5.53091e-05
5.39208e-05
5.25345e-05
5.11563e-05
4.98041e-05
4.84968e-05
4.72436e-05
4.60413e-05
4.48779e-05
4.37406e-05
4.26208e-05
4.15145e-05
4.04198e-05
3.93363e-05
3.82665e-05
3.72196e-05
3.62094e-05
3.5248e-05
3.43361e-05
3.34582e-05
3.25871e-05
3.16973e-05
3.078e-05
2.9849e-05
2.89344e-05
2.80659e-05
2.72569e-05
2.6498e-05
2.57631e-05
2.50239e-05
2.42622e-05
2.34753e-05
2.26722e-05
2.18659e-05
2.10693e-05
2.02932e-05
1.95468e-05
1.88349e-05
1.81515e-05
1.74754e-05
1.67738e-05
1.60159e-05
1.51914e-05
1.43232e-05
1.34617e-05
1.26629e-05
1.19571e-05
1.13286e-05
1.07184e-05
1.00528e-05
9.28164e-06
8.40821e-06
7.49041e-06
6.61306e-06
5.84464e-06
5.20182e-06
4.64095e-06
4.08109e-06
3.44614e-06
2.70363e-06
1.88027e-06
1.04709e-06
2.8309e-07
-3.63129e-07
-8.94551e-07
-1.36042e-06
-1.82906e-06
-2.35384e-06
-2.94937e-06
-3.58821e-06
-4.21769e-06
-4.78668e-06
-5.2687e-06
-5.67103e-06
-6.02739e-06
-6.37968e-06
-6.75832e-06
-7.17047e-06
-7.60001e-06
-8.01783e-06
-8.39614e-06
-8.72008e-06
-8.99201e-06
-9.22774e-06
-9.4478e-06
-9.66812e-06
-9.8943e-06
-1.01212e-05
-1.0337e-05
-1.05297e-05
-1.06921e-05
-1.08244e-05
-1.09337e-05
-1.10299e-05
-1.11221e-05
-1.12153e-05
-1.13096e-05
-1.14007e-05
-1.14828e-05
-1.15506e-05
-1.16014e-05
-1.16358e-05
-1.16572e-05
-1.16702e-05
-1.16795e-05
-1.16882e-05
-1.16979e-05
-1.17082e-05
-1.17179e-05
-1.17252e-05
-1.17288e-05
-1.17282e-05
-1.17236e-05
-1.17159e-05
-1.17065e-05
-1.16964e-05
-1.16867e-05
-1.16779e-05
-1.16699e-05
-1.16627e-05
-1.16558e-05
-1.16488e-05
-1.16415e-05
-1.16338e-05
-1.16257e-05
-1.16172e-05
-1.16085e-05
-1.15999e-05
-1.15913e-05
-1.1583e-05
-1.15748e-05
-1.15667e-05
-1.15588e-05
-1.1551e-05
-1.15431e-05
-1.15353e-05
-1.15274e-05
-1.15195e-05
-1.15116e-05
-1.15038e-05
-1.14959e-05
-1.14881e-05
-1.14804e-05
-1.14727e-05
-1.1465e-05
-1.14574e-05
-1.14498e-05
-1.14423e-05
-1.14348e-05
-1.14273e-05
-1.14199e-05
-1.14125e-05
-1.14052e-05
-1.13979e-05
-1.13906e-05
-1.13834e-05
-1.13762e-05
-1.13691e-05
-1.1362e-05
-1.13549e-05
-1.13479e-05
-1.1341e-05
-1.13341e-05
-1.13272e-05
-1.13204e-05
-1.13136e-05
-1.13069e-05
-1.13002e-05
-1.12936e-05
-1.1287e-05
-1.12804e-05
-1.12739e-05
-1.12675e-05
-1.12611e-05
-1.12548e-05
-1.12485e-05
-1.12423e-05
-1.12361e-05
-1.12299e-05
-1.12239e-05
-1.12178e-05
-1.12119e-05
-1.12059e-05
-1.12001e-05
-1.11943e-05
-1.11885e-05
-1.11828e-05
-1.11772e-05
-1.11716e-05
-1.11661e-05
-1.11606e-05
-1.11552e-05
-1.11498e-05
-1.11445e-05
-1.11393e-05
-1.11341e-05
-1.1129e-05
-1.11239e-05
-1.11189e-05
-1.11139e-05
-1.1109e-05
-1.11042e-05
-1.10995e-05
-1.10947e-05
-1.10901e-05
-1.10855e-05
-1.1081e-05
-1.10765e-05
-1.10722e-05
-1.10678e-05
-1.10636e-05
-1.10593e-05
-1.10552e-05
-1.10511e-05
-1.10471e-05
-1.10431e-05
-1.10393e-05
-1.10354e-05
-1.10318e-05
-1.1028e-05
-1.10245e-05
-1.10208e-05
-1.10174e-05
-1.10139e-05
-1.10107e-05
-1.10072e-05
-1.10042e-05
-1.10008e-05
-1.0998e-05
-1.09947e-05
-1.09921e-05
-1.09888e-05
-1.09865e-05
-1.09832e-05
-1.09812e-05
-1.09778e-05
-1.09762e-05
-1.09727e-05
-1.09715e-05
-1.09678e-05
-1.09672e-05
-1.09632e-05
-1.09633e-05
-1.09589e-05
-1.09597e-05
-1.09547e-05
-1.09566e-05
-1.09508e-05
-1.0954e-05
-1.0947e-05
-1.09519e-05
-1.09435e-05
-1.09505e-05
-1.09401e-05
-1.09499e-05
-1.09368e-05
-1.09501e-05
-1.09335e-05
-1.09516e-05
-1.09302e-05
-1.09545e-05
-1.09268e-05
-1.09592e-05
-1.09232e-05
-1.09662e-05
-1.09192e-05
-1.09762e-05
-1.09147e-05
-1.09901e-05
-1.09096e-05
-1.10086e-05
-1.09038e-05
-1.10329e-05
-1.08975e-05
-1.10639e-05
-1.08909e-05
-1.11024e-05
-1.08842e-05
-1.11481e-05
-1.08768e-05
-1.11974e-05
-1.08663e-05
-1.12337e-05
-1.08492e-05
-1.1188e-05
-1.08307e-05
-1.0745e-05
-1.08309e-05
-7.61901e-06
-9.03018e-06
-9.03018e-06
-0.122221
0.122221
0.121656
0.0822604
0.0539871
0.0368561
0.0263851
0.019708
0.0152572
0.0121715
0.00995969
0.0083278
0.0070927
0.00613619
0.00537974
0.00476998
0.00426988
0.00385329
0.00350146
0.00320066
0.00294074
0.00271403
0.00251467
0.0023381
0.00218074
0.00203971
0.0019127
0.0017978
0.00169345
0.00159833
0.00151134
0.00143154
0.00135812
0.0012904
0.00122777
0.00116972
0.0011158
0.00106561
0.00101881
0.000975078
0.000934154
0.000895788
0.000859762
0.000825877
0.000793961
0.000763855
0.000735421
0.000708534
0.000683078
0.00065895
0.000636052
0.000614295
0.000593598
0.000573886
0.000555095
0.000537167
0.000520049
0.000503695
0.000488058
0.000473095
0.000458762
0.000445018
0.000431825
0.000419152
0.00040697
0.000395256
0.000383989
0.000373149
0.000362715
0.000352661
0.000342962
0.000333593
0.000324533
0.000315768
0.000307288
0.000299088
0.000291163
0.000283505
0.000276101
0.000268937
0.000261996
0.000255264
0.000248726
0.000242374
0.000236206
0.000230223
0.00022443
0.000218825
0.000213397
0.000208127
0.00020299
0.000197971
0.000193066
0.000188283
0.000183636
0.000179131
0.000174767
0.000170537
0.00016643
0.000162436
0.000158544
0.000154743
0.000151021
0.000147374
0.000143812
0.000140352
0.000137014
0.0001338
0.000130688
0.000127642
0.000124627
0.000121631
0.000118666
0.000115767
0.000112965
0.000110271
0.000107676
0.000105157
0.000102691
0.000100263
9.78665e-05
9.55002e-05
9.31642e-05
9.08651e-05
8.86194e-05
8.64506e-05
8.43758e-05
8.23911e-05
8.04647e-05
7.85482e-05
7.66011e-05
7.46146e-05
7.26186e-05
7.06673e-05
6.88089e-05
6.70595e-05
6.53954e-05
6.3767e-05
6.21253e-05
6.04422e-05
5.87173e-05
5.69693e-05
5.52228e-05
5.34999e-05
5.18183e-05
5.01912e-05
4.86221e-05
4.70952e-05
4.55696e-05
4.39884e-05
4.2304e-05
4.05094e-05
3.8654e-05
3.68301e-05
3.51289e-05
3.35898e-05
3.21705e-05
3.07605e-05
2.92346e-05
2.75211e-05
2.56443e-05
2.37184e-05
2.18919e-05
2.0272e-05
1.88688e-05
1.75909e-05
1.62932e-05
1.48528e-05
1.32314e-05
1.14936e-05
9.77185e-06
8.19994e-06
6.8486e-06
5.69603e-06
4.64536e-06
3.5768e-06
2.40637e-06
1.1224e-06
-2.15716e-07
-1.51187e-06
-2.68108e-06
-3.68698e-06
-4.55259e-06
-5.34293e-06
-6.13083e-06
-6.96367e-06
-7.84593e-06
-8.74305e-06
-9.60183e-06
-1.03759e-05
-1.10445e-05
-1.16171e-05
-1.2125e-05
-1.26046e-05
-1.30817e-05
-1.35628e-05
-1.40362e-05
-1.44803e-05
-1.48747e-05
-1.52095e-05
-1.54878e-05
-1.57239e-05
-1.59359e-05
-1.61393e-05
-1.63414e-05
-1.65409e-05
-1.67295e-05
-1.68966e-05
-1.7034e-05
-1.71383e-05
-1.72121e-05
-1.72623e-05
-1.72978e-05
-1.73269e-05
-1.73548e-05
-1.73837e-05
-1.74127e-05
-1.74391e-05
-1.74601e-05
-1.74735e-05
-1.74788e-05
-1.74768e-05
-1.74696e-05
-1.74594e-05
-1.74486e-05
-1.74386e-05
-1.74302e-05
-1.74233e-05
-1.74176e-05
-1.74122e-05
-1.74067e-05
-1.74004e-05
-1.73933e-05
-1.73853e-05
-1.73768e-05
-1.73681e-05
-1.73593e-05
-1.73508e-05
-1.73425e-05
-1.73346e-05
-1.73269e-05
-1.73194e-05
-1.7312e-05
-1.73045e-05
-1.72971e-05
-1.72895e-05
-1.72819e-05
-1.72743e-05
-1.72666e-05
-1.7259e-05
-1.72514e-05
-1.72439e-05
-1.72364e-05
-1.7229e-05
-1.72217e-05
-1.72144e-05
-1.72072e-05
-1.72e-05
-1.71928e-05
-1.71857e-05
-1.71786e-05
-1.71715e-05
-1.71644e-05
-1.71574e-05
-1.71505e-05
-1.71436e-05
-1.71367e-05
-1.71299e-05
-1.71231e-05
-1.71164e-05
-1.71097e-05
-1.7103e-05
-1.70965e-05
-1.70899e-05
-1.70834e-05
-1.70769e-05
-1.70705e-05
-1.70642e-05
-1.70579e-05
-1.70516e-05
-1.70454e-05
-1.70392e-05
-1.70331e-05
-1.70271e-05
-1.70211e-05
-1.70151e-05
-1.70092e-05
-1.70033e-05
-1.69975e-05
-1.69918e-05
-1.69861e-05
-1.69805e-05
-1.69749e-05
-1.69693e-05
-1.69639e-05
-1.69585e-05
-1.69531e-05
-1.69478e-05
-1.69425e-05
-1.69374e-05
-1.69322e-05
-1.69271e-05
-1.69221e-05
-1.69172e-05
-1.69123e-05
-1.69074e-05
-1.69026e-05
-1.68979e-05
-1.68933e-05
-1.68887e-05
-1.68841e-05
-1.68796e-05
-1.68752e-05
-1.68709e-05
-1.68666e-05
-1.68624e-05
-1.68582e-05
-1.68541e-05
-1.685e-05
-1.68461e-05
-1.68421e-05
-1.68383e-05
-1.68344e-05
-1.68308e-05
-1.6827e-05
-1.68236e-05
-1.68199e-05
-1.68166e-05
-1.6813e-05
-1.68099e-05
-1.68064e-05
-1.68035e-05
-1.68e-05
-1.67973e-05
-1.67939e-05
-1.67914e-05
-1.6788e-05
-1.67859e-05
-1.67824e-05
-1.67806e-05
-1.67771e-05
-1.67756e-05
-1.67719e-05
-1.6771e-05
-1.67671e-05
-1.67667e-05
-1.67624e-05
-1.67628e-05
-1.6758e-05
-1.67593e-05
-1.67538e-05
-1.67562e-05
-1.67498e-05
-1.67537e-05
-1.67459e-05
-1.67517e-05
-1.67422e-05
-1.67505e-05
-1.67386e-05
-1.675e-05
-1.67351e-05
-1.67506e-05
-1.67315e-05
-1.67524e-05
-1.67279e-05
-1.67558e-05
-1.67242e-05
-1.67612e-05
-1.67201e-05
-1.67692e-05
-1.67156e-05
-1.67805e-05
-1.67103e-05
-1.67963e-05
-1.67041e-05
-1.68177e-05
-1.66966e-05
-1.68464e-05
-1.66878e-05
-1.68842e-05
-1.66775e-05
-1.69333e-05
-1.66661e-05
-1.69958e-05
-1.66539e-05
-1.70735e-05
-1.66409e-05
-1.71668e-05
-1.66255e-05
-1.72697e-05
-1.6602e-05
-1.73529e-05
-1.65611e-05
-1.72904e-05
-1.65039e-05
-1.6525e-05
-1.64069e-05
-1.15882e-05
-1.31328e-05
-1.31328e-05
-0.0942742
0.0942742
0.121009
0.0969622
0.0717861
0.0531905
0.0401932
0.0311036
0.0246497
0.019977
0.0165238
0.0139195
0.0119165
0.0103466
0.00909405
0.00807778
0.00724029
0.00654025
0.00594755
0.00543993
0.00500073
0.00461729
0.00427987
0.00398086
0.00371425
0.00347521
0.00325986
0.00306498
0.00288793
0.0027265
0.00257881
0.00244329
0.00231857
0.00220349
0.00209704
0.00199835
0.00190666
0.00182129
0.00174167
0.00166726
0.00159762
0.00153231
0.00147097
0.00141327
0.00135892
0.00130764
0.0012592
0.00121338
0.00117
0.00112888
0.00108984
0.00105275
0.00101746
0.000983846
0.000951804
0.000921233
0.000892044
0.000864154
0.000837485
0.000811962
0.000787512
0.000764065
0.000741558
0.000719937
0.000699154
0.00067917
0.000659947
0.000641448
0.000623638
0.000606474
0.000589914
0.000573919
0.000558454
0.000543496
0.000529029
0.000515043
0.000501525
0.000488461
0.000475828
0.000463602
0.000451757
0.000440267
0.000429112
0.000418278
0.000407759
0.000397558
0.000387677
0.000378111
0.000368842
0.000359838
0.000351064
0.000342498
0.000334135
0.000325989
0.000318076
0.000310405
0.000302972
0.000295763
0.00028876
0.000281948
0.000275311
0.00026883
0.000262489
0.000256284
0.000250228
0.000244347
0.000238664
0.000233181
0.000227862
0.000222653
0.000217506
0.000212404
0.000207372
0.00020246
0.000197711
0.000193137
0.000188721
0.000184426
0.000180218
0.000176076
0.000171994
0.000167968
0.000164001
0.000160102
0.000156296
0.000152615
0.000149081
0.000145683
0.000142371
0.000139077
0.000135743
0.000132364
0.000128987
0.000125691
0.000122543
0.000119559
0.000116697
0.000113882
0.000111043
0.000108143
0.000105185
0.000102201
9.92266e-05
9.62926e-05
9.34223e-05
9.06315e-05
8.79213e-05
8.52647e-05
8.26009e-05
7.98488e-05
7.69457e-05
7.38898e-05
7.07603e-05
6.76924e-05
6.48127e-05
6.21666e-05
5.96809e-05
5.71896e-05
5.45163e-05
5.15702e-05
4.8403e-05
4.51912e-05
4.21498e-05
3.94227e-05
3.70086e-05
3.47621e-05
3.24708e-05
2.99662e-05
2.72099e-05
2.43111e-05
2.14693e-05
1.88739e-05
1.66144e-05
1.46441e-05
1.28129e-05
1.09471e-05
8.93381e-06
6.76889e-06
4.54891e-06
2.41671e-06
4.91073e-07
-1.18465e-06
-2.65349e-06
-4.01519e-06
-5.3747e-06
-6.79497e-06
-8.2748e-06
-9.75801e-06
-1.11654e-05
-1.24322e-05
-1.35332e-05
-1.44876e-05
-1.53444e-05
-1.6157e-05
-1.69607e-05
-1.77622e-05
-1.85418e-05
-1.92673e-05
-1.99106e-05
-2.04592e-05
-2.09209e-05
-2.1318e-05
-2.16776e-05
-2.20214e-05
-2.2359e-05
-2.26868e-05
-2.29921e-05
-2.32597e-05
-2.34787e-05
-2.36458e-05
-2.37664e-05
-2.38518e-05
-2.39157e-05
-2.397e-05
-2.40223e-05
-2.40749e-05
-2.41263e-05
-2.41723e-05
-2.42088e-05
-2.42332e-05
-2.4245e-05
-2.4246e-05
-2.42395e-05
-2.4229e-05
-2.42178e-05
-2.42081e-05
-2.42008e-05
-2.41959e-05
-2.41923e-05
-2.41892e-05
-2.41856e-05
-2.41808e-05
-2.41746e-05
-2.41672e-05
-2.41591e-05
-2.41506e-05
-2.41421e-05
-2.4134e-05
-2.41263e-05
-2.41191e-05
-2.41123e-05
-2.41057e-05
-2.40991e-05
-2.40925e-05
-2.40858e-05
-2.40789e-05
-2.4072e-05
-2.4065e-05
-2.40579e-05
-2.40509e-05
-2.4044e-05
-2.40371e-05
-2.40303e-05
-2.40236e-05
-2.40169e-05
-2.40103e-05
-2.40037e-05
-2.39972e-05
-2.39906e-05
-2.39842e-05
-2.39777e-05
-2.39713e-05
-2.39648e-05
-2.39585e-05
-2.39522e-05
-2.39459e-05
-2.39396e-05
-2.39334e-05
-2.39272e-05
-2.39211e-05
-2.39151e-05
-2.3909e-05
-2.3903e-05
-2.38971e-05
-2.38912e-05
-2.38853e-05
-2.38795e-05
-2.38737e-05
-2.3868e-05
-2.38623e-05
-2.38567e-05
-2.38511e-05
-2.38456e-05
-2.38401e-05
-2.38347e-05
-2.38293e-05
-2.38239e-05
-2.38187e-05
-2.38134e-05
-2.38082e-05
-2.38031e-05
-2.3798e-05
-2.3793e-05
-2.3788e-05
-2.3783e-05
-2.37782e-05
-2.37733e-05
-2.37686e-05
-2.37638e-05
-2.37592e-05
-2.37546e-05
-2.375e-05
-2.37455e-05
-2.37411e-05
-2.37367e-05
-2.37323e-05
-2.3728e-05
-2.37238e-05
-2.37197e-05
-2.37156e-05
-2.37115e-05
-2.37075e-05
-2.37036e-05
-2.36997e-05
-2.36959e-05
-2.36921e-05
-2.36884e-05
-2.36848e-05
-2.36811e-05
-2.36777e-05
-2.36741e-05
-2.36708e-05
-2.36674e-05
-2.36642e-05
-2.36608e-05
-2.36578e-05
-2.36545e-05
-2.36517e-05
-2.36485e-05
-2.36459e-05
-2.36426e-05
-2.36403e-05
-2.3637e-05
-2.36349e-05
-2.36317e-05
-2.36299e-05
-2.36265e-05
-2.36251e-05
-2.36216e-05
-2.36206e-05
-2.36169e-05
-2.36165e-05
-2.36124e-05
-2.36127e-05
-2.36081e-05
-2.36093e-05
-2.3604e-05
-2.36062e-05
-2.36001e-05
-2.36037e-05
-2.35963e-05