# vtk DataFile Version 2.0
FlowField
ASCII
DATASET STRUCTURED_GRID
DIMENSIONS 400 1 50
POINTS 20000 float
0 0 0
0.08 0 0
0.16 0 0
0.24 0 0
0.32 0 0
0.4 0 0
0.48 0 0
0.56 0 0
0.64 0 0
0.72 0 0
0.8 0 0
0.88 0 0
0.96 0 0
1.04 0 0
1.12 0 0
1.2 0 0
1.28 0 0
1.36 0 0
1.44 0 0
1.52 0 0
1.6 0 0
1.68 0 0
1.76 0 0
1.84 0 0
1.92 0 0
2 0 0
2.08 0 0
2.16 0 0
2.24 0 0
2.32 0 0
2.4 0 0
2.48 0 0
2.56 0 0
2.64 0 0
2.72 0 0
2.8 0 0
2.88 0 0
2.96 0 0
3.04 0 0
3.12 0 0
3.2 0 0
3.28 0 0
3.36 0 0
3.44 0 0
3.52 0 0
3.6 0 0
3.68 0 0
3.76 0 0
3.84 0 0
3.92 0 0
4 0 0
4.08 0 0
4.16 0 0
4.24 0 0
4.32 0 0
4.4 0 0
4.48 0 0
4.56 0 0
4.64 0 0
4.72 0 0
4.8 0 0
4.88 0 0
4.96 0 0
5.04 0 0
5.12 0 0
5.2 0 0
5.28 0 0
5.36 0 0
5.44 0 0
5.52 0 0
5.6 0 0
5.68 0 0
5.76 0 0
5.84 0 0
5.92 0 0
6 0 0
6.08 0 0
6.16 0 0
6.24 0 0
6.32 0 0
6.4 0 0
6.48 0 0
6.56 0 0
6.64 0 0
6.72 0 0
6.8 0 0
6.88 0 0
6.96 0 0
7.04 0 0
7.12 0 0
7.2 0 0
7.28 0 0
7.36 0 0
7.44 0 0
7.52 0 0
7.6 0 0
7.68 0 0
7.76 0 0
7.84 0 0
7.92 0 0
8 0 0
8.08 0 0
8.16 0 0
8.24 0 0
8.32 0 0
8.4 0 0
8.48 0 0
8.56 0 0
8.64 0 0
8.72 0 0
8.8 0 0
8.88 0 0
8.96 0 0
9.04 0 0
9.12 0 0
9.2 0 0
9.28 0 0
9.36 0 0
9.44 0 0
9.52 0 0
9.6 0 0
9.68 0 0
9.76 0 0
9.84 0 0
9.92 0 0
10 0 0
10.08 0 0
10.16 0 0
10.24 0 0
10.32 0 0
10.4 0 0
10.48 0 0
10.56 0 0
10.64 0 0
10.72 0 0
10.8 0 0
10.88 0 0
10.96 0 0
11.04 0 0
11.12 0 0
11.2 0 0
11.28 0 0
11.36 0 0
11.44 0 0
11.52 0 0
11.6 0 0
11.68 0 0
11.76 0 0
11.84 0 0
11.92 0 0
12 0 0
12.08 0 0
12.16 0 0
12.24 0 0
12.32 0 0
12.4 0 0
12.48 0 0
12.56 0 0
12.64 0 0
12.72 0 0
12.8 0 0
12.88 0 0
12.96 0 0
13.04 0 0
13.12 0 0
13.2 0 0
13.28 0 0
13.36 0 0
13.44 0 0
13.52 0 0
13.6 0 0
13.68 0 0
13.76 0 0
13.84 0 0
13.92 0 0
14 0 0
14.08 0 0
14.16 0 0
14.24 0 0
14.32 0 0
14.4 0 0
14.48 0 0
14.56 0 0
14.64 0 0
14.72 0 0
14.8 0 0
14.88 0 0
14.96 0 0
15.04 0 0
15.12 0 0
15.2 0 0
15.28 0 0
15.36 0 0
15.44 0 0
15.52 0 0
15.6 0 0
15.68 0 0
15.76 0 0
15.84 0 0
15.92 0 0
16 0 0
16.08 0 0
16.16 0 0
16.24 0 0
16.32 0 0
16.4 0 0
16.48 0 0
16.56 0 0
16.64 0 0
16.72 0 0
16.8 0 0
16.88 0 0
16.96 0 0
17.04 0 0
17.12 0 0
17.2 0 0
17.28 0 0
17.36 0 0
17.44 0 0
17.52 0 0
17.6 0 0
17.68 0 0
17.76 0 0
17.84 0 0
17.92 0 0
18 0 0
18.08 0 0
18.16 0 0
18.24 0 0
18.32 0 0
18.4 0 0
18.48 0 0
18.56 0 0
18.64 0 0
18.72 0 0
18.8 0 0
18.88 0 0
18.96 0 0
19.04 0 0
19.12 0 0
19.2 0 0
19.28 0 0
19.36 0 0
19.44 0 0
19.52 0 0
19.6 0 0
19.68 0 0
19.76 0 0
19.84 0 0
19.92 0 0
20 0 0
20.08 0 0
20.16 0 0
20.24 0 0
20.32 0 0
20.4 0 0
20.48 0 0
20.56 0 0
20.64 0 0
20.72 0 0
20.8 0 0
20.88 0 0
20.96 0 0
21.04 0 0
21.12 0 0
21.2 0 0
21.28 0 0
21.36 0 0
21.44 0 0
21.52 0 0
21.6 0 0
21.68 0 0
21.76 0 0
21.84 0 0
21.92 0 0
22 0 0
22.08 0 0
22.16 0 0
22.24 0 0
22.32 0 0
22.4 0 0
22.48 0 0
22.56 0 0
22.64 0 0
22.72 0 0
22.8 0 0
22.88 0 0
22.96 0 0
23.04 0 0
23.12 0 0
23.2 0 0
23.28 0 0
23.36 0 0
23.44 0 0
23.52 0 0
23.6 0 0
23.68 0 0
23.76 0 0
23.84 0 0
23.92 0 0
24 0 0
24.08 0 0
24.16 0 0
24.24 0 0
24.32 0 0
24.4 0 0
24.48 0 0
24.56 0 0
24.64 0 0
24.72 0 0
24.8 0 0
24.88 0 0
24.96 0 0
25.04 0 0
25.12 0 0
25.2 0 0
25.28 0 0
25.36 0 0
25.44 0 0
25.52 0 0
25.6 0 0
25.68 0 0
25.76 0 0
25.84 0 0
25.92 0 0
26 0 0
26.08 0 0
26.16 0 0
26.24 0 0
26.32 0 0
26.4 0 0
26.48 0 0
26.56 0 0
26.64 0 0
26.72 0 0
26.8 0 0
26.88 0 0
26.96 0 0
27.04 0 0
27.12 0 0
27.2 0 0
27.28 0 0
27.36 0 0
27.44 0 0
27.52 0 0
27.6 0 0
27.68 0 0
27.76 0 0
27.84 0 0
27.92 0 0
28 0 0
28.08 0 0
28.16 0 0
28.24 0 0
28.32 0 0
28.4 0 0
28.48 0 0
28.56 0 0
28.64 0 0
28.72 0 0
28.8 0 0
28.88 0 0
28.96 0 0
29.04 0 0
29.12 0 0
29.2 0 0
29.28 0 0
29.36 0 0
29.44 0 0
29.52 0 0
29.6 0 0
29.68 0 0
29.76 0 0
29.84 0 0
29.92 0 0
30 0 0
30.08 0 0
30.16 0 0
30.24 0 0
30.32 0 0
30.4 0 0
30.48 0 0
30.56 0 0
30.64 0 0
30.72 0 0
30.8 0 0
30.88 0 0
30.96 0 0
31.04 0 0
31.12 0 0
31.2 0 0
31.28 0 0
31.36 0 0
31.44 0 0
31.52 0 0
31.6 0 0
31.68 0 0
31.76 0 0
31.84 0 0
31.92 0 0
0 0.02 0
0.08 0.02 0
0.16 0.02 0
0.24 0.02 0
0.32 0.02 0
0.4 0.02 0
0.48 0.02 0
0.56 0.02 0
0.64 0.02 0
0.72 0.02 0
0.8 0.02 0
0.88 0.02 0
0.96 0.02 0
1.04 0.02 0
1.12 0.02 0
1.2 0.02 0
1.28 0.02 0
1.36 0.02 0
1.44 0.02 0
1.52 0.02 0
1.6 0.02 0
1.68 0.02 0
1.76 0.02 0
1.84 0.02 0
1.92 0.02 0
2 0.02 0
2.08 0.02 0
2.16 0.02 0
2.24 0.02 0
2.32 0.02 0
2.4 0.02 0
2.48 0.02 0
2.56 0.02 0
2.64 0.02 0
2.72 0.02 0
2.8 0.02 0
2.88 0.02 0
2.96 0.02 0
3.04 0.02 0
3.12 0.02 0
3.2 0.02 0
3.28 0.02 0
3.36 0.02 0
3.44 0.02 0
3.52 0.02 0
3.6 0.02 0
3.68 0.02 0
3.76 0.02 0
3.84 0.02 0
3.92 0.02 0
4 0.02 0
4.08 0.02 0
4.16 0.02 0
4.24 0.02 0
4.32 0.02 0
4.4 0.02 0
4.48 0.02 0
4.56 0.02 0
4.64 0.02 0
4.72 0.02 0
4.8 0.02 0
4.88 0.02 0
4.96 0.02 0
5.04 0.02 0
5.12 0.02 0
5.2 0.02 0
5.28 0.02 0
5.36 0.02 0
5.44 0.02 0
5.52 0.02 0
5.6 0.02 0
5.68 0.02 0
5.76 0.02 0
5.84 0.02 0
5.92 0.02 0
6 0.02 0
6.08 0.02 0
6.16 0.02 0
6.24 0.02 0
6.32 0.02 0
6.4 0.02 0
6.48 0.02 0
6.56 0.02 0
6.64 0.02 0
6.72 0.02 0
6.8 0.02 0
6.88 0.02 0
6.96 0.02 0
7.04 0.02 0
7.12 0.02 0
7.2 0.02 0
7.28 0.02 0
7.36 0.02 0
7.44 0.02 0
7.52 0.02 0
7.6 0.02 0
7.68 0.02 0
7.76 0.02 0
7.84 0.02 0
7.92 0.02 0
8 0.02 0
8.08 0.02 0
8.16 0.02 0
8.24 0.02 0
8.32 0.02 0
8.4 0.02 0
8.48 0.02 0
8.56 0.02 0
8.64 0.02 0
8.72 0.02 0
8.8 0.02 0
8.88 0.02 0
8.96 0.02 0
9.04 0.02 0
9.12 0.02 0
9.2 0.02 0
9.28 0.02 0
9.36 0.02 0
9.44 0.02 0
9.52 0.02 0
9.6 0.02 0
9.68 0.02 0
9.76 0.02 0
9.84 0.02 0
9.92 0.02 0
10 0.02 0
10.08 0.02 0
10.16 0.02 0
10.24 0.02 0
10.32 0.02 0
10.4 0.02 0
10.48 0.02 0
10.56 0.02 0
10.64 0.02 0
10.72 0.02 0
10.8 0.02 0
10.88 0.02 0
10.96 0.02 0
11.04 0.02 0
11.12 0.02 0
11.2 0.02 0
11.28 0.02 0
11.36 0.02 0
11.44 0.02 0
11.52 0.02 0
11.6 0.02 0
11.68 0.02 0
11.76 0.02 0
11.84 0.02 0
11.92 0.02 0
12 0.02 0
12.08 0.02 0
12.16 0.02 0
12.24 0.02 0
12.32 0.02 0
12.4 0.02 0
12.48 0.02 0
12.56 0.02 0
12.64 0.02 0
12.72 0.02 0
12.8 0.02 0
12.88 0.02 0
12.96 0.02 0
13.04 0.02 0
13.12 0.02 0
13.2 0.02 0
13.28 0.02 0
13.36 0.02 0
13.44 0.02 0
13.52 0.02 0
13.6 0.02 0
13.68 0.02 0
13.76 0.02 0
13.84 0.02 0
13.92 0.02 0
14 0.02 0
14.08 0.02 0
14.16 0.02 0
14.24 0.02 0
14.32 0.02 0
14.4 0.02 0
14.48 0.02 0
14.56 0.02 0
14.64 0.02 0
14.72 0.02 0
14.8 0.02 0
14.88 0.02 0
14.96 0.02 0
15.04 0.02 0
15.12 0.02 0
15.2 0.02 0
15.28 0.02 0
15.36 0.02 0
15.44 0.02 0
15.52 0.02 0
15.6 0.02 0
15.68 0.02 0
15.76 0.02 0
15.84 0.02 0
15.92 0.02 0
16 0.02 0
16.08 0.02 0
16.16 0.02 0
16.24 0.02 0
16.32 0.02 0
16.4 0.02 0
16.48 0.02 0
16.56 0.02 0
16.64 0.02 0
16.72 0.02 0
16.8 0.02 0
16.88 0.02 0
16.96 0.02 0
17.04 0.02 0
17.12 0.02 0
17.2 0.02 0
17.28 0.02 0
17.36 0.02 0
17.44 0.02 0
17.52 0.02 0
17.6 0.02 0
17.68 0.02 0
17.76 0.02 0
17.84 0.02 0
17.92 0.02 0
18 0.02 0
18.08 0.02 0
18.16 0.02 0
18.24 0.02 0
18.32 0.02 0
18.4 0.02 0
18.48 0.02 0
18.56 0.02 0
18.64 0.02 0
18.72 0.02 0
18.8 0.02 0
18.88 0.02 0
18.96 0.02 0
19.04 0.02 0
19.12 0.02 0
19.2 0.02 0
19.28 0.02 0
19.36 0.02 0
19.44 0.02 0
19.52 0.02 0
19.6 0.02 0
19.68 0.02 0
19.76 0.02 0
19.84 0.02 0
19.92 0.02 0
20 0.02 0
20.08 0.02 0
20.16 0.02 0
20.24 0.02 0
20.32 0.02 0
20.4 0.02 0
20.48 0.02 0
20.56 0.02 0
20.64 0.02 0
20.72 0.02 0
20.8 0.02 0
20.88 0.02 0
20.96 0.02 0
21.04 0.02 0
21.12 0.02 0
21.2 0.02 0
21.28 0.02 0
21.36 0.02 0
21.44 0.02 0
21.52 0.02 0
21.6 0.02 0
21.68 0.02 0
21.76 0.02 0
21.84 0.02 0
21.92 0.02 0
22 0.02 0
22.08 0.02 0
22.16 0.02 0
22.24 0.02 0
22.32 0.02 0
22.4 0.02 0
22.48 0.02 0
22.56 0.02 0
22.64 0.02 0
22.72 0.02 0
22.8 0.02 0
22.88 0.02 0
22.96 0.02 0
23.04 0.02 0
23.12 0.02 0
23.2 0.02 0
23.28 0.02 0
23.36 0.02 0
23.44 0.02 0
23.52 0.02 0
23.6 0.02 0
23.68 0.02 0
23.76 0.02 0
23.84 0.02 0
23.92 0.02 0
24 0.02 0
24.08 0.02 0
24.16 0.02 0
24.24 0.02 0
24.32 0.02 0
24.4 0.02 0
24.48 0.02 0
24.56 0.02 0
24.64 0.02 0
24.72 0.02 0
24.8 0.02 0
24.88 0.02 0
24.96 0.02 0
25.04 0.02 0
25.12 0.02 0
25.2 0.02 0
25.28 0.02 0
25.36 0.02 0
25.44 0.02 0
25.52 0.02 0
25.6 0.02 0
25.68 0.02 0
25.76 0.02 0
25.84 0.02 0
25.92 0.02 0
26 0.02 0
26.08 0.02 0
26.16 0.02 0
26.24 0.02 0
26.32 0.02 0
26.4 0.02 0
26.48 0.02 0
26.56 0.02 0
26.64 0.02 0
26.72 0.02 0
26.8 0.02 0
26.88 0.02 0
26.96 0.02 0
27.04 0.02 0
27.12 0.02 0
27.2 0.02 0
27.28 0.02 0
27.36 0.02 0
27.44 0.02 0
27.52 0.02 0
27.6 0.02 0
27.68 0.02 0
27.76 0.02 0
27.84 0.02 0
27.92 0.02 0
28 0.02 0
28.08 0.02 0
28.16 0.02 0
28.24 0.02 0
28.32 0.02 0
28.4 0.02 0
28.48 0.02 0
28.56 0.02 0
28.64 0.02 0
28.72 0.02 0
28.8 0.02 0
28.88 0.02 0
28.96 0.02 0
29.04 0.02 0
29.12 0.02 0
29.2 0.02 0
29.28 0.02 0
29.36 0.02 0
29.44 0.02 0
29.52 0.02 0
29.6 0.02 0
29.68 0.02 0
29.76 0.02 0
29.84 0.02 0
29.92 0.02 0
30 0.02 0
30.08 0.02 0
30.16 0.02 0
30.24 0.02 0
30.32 0.02 0
30.4 0.02 0
30.48 0.02 0
30.56 0.02 0
30.64 0.02 0
30.72 0.02 0
30.8 0.02 0
30.88 0.02 0
30.96 0.02 0
31.04 0.02 0
31.12 0.02 0
31.2 0.02 0
31.28 0.02 0
31.36 0.02 0
31.44 0.02 0
31.52 0.02 0
31.6 0.02 0
31.68 0.02 0
31.76 0.02 0
31.84 0.02 0
31.92 0.02 0
0 0.04 0
0.08 0.04 0
0.16 0.04 0
0.24 0.04 0
0.32 0.04 0
0.4 0.04 0
0.48 0.04 0
0.56 0.04 0
0.64 0.04 0
0.72 0.04 0
0.8 0.04 0
0.88 0.04 0
0.96 0.04 0
1.04 0.04 0
1.12 0.04 0
1.2 0.04 0
1.28 0.04 0
1.36 0.04 0
1.44 0.04 0
1.52 0.04 0
1.6 0.04 0
1.68 0.04 0
1.76 0.04 0
1.84 0.04 0
1.92 0.04 0
2 0.04 0
2.08 0.04 0
2.16 0.04 0
2.24 0.04 0
2.32 0.04 0
2.4 0.04 0
2.48 0.04 0
2.56 0.04 0
2.64 0.04 0
2.72 0.04 0
2.8 0.04 0
2.88 0.04 0
2.96 0.04 0
3.04 0.04 0
3.12 0.04 0
3.2 0.04 0
3.28 0.04 0
3.36 0.04 0
3.44 0.04 0
3.52 0.04 0
3.6 0.04 0
3.68 0.04 0
3.76 0.04 0
3.84 0.04 0
3.92 0.04 0
4 0.04 0
4.08 0.04 0
4.16 0.04 0
4.24 0.04 0
4.32 0.04 0
4.4 0.04 0
4.48 0.04 0
4.56 0.04 0
4.64 0.04 0
4.72 0.04 0
4.8 0.04 0
4.88 0.04 0
4.96 0.04 0
5.04 0.04 0
5.12 0.04 0
5.2 0.04 0
5.28 0.04 0
5.36 0.04 0
5.44 0.04 0
5.52 0.04 0
5.6 0.04 0
5.68 0.04 0
5.76 0.04 0
5.84 0.04 0
5.92 0.04 0
6 0.04 0
6.08 0.04 0
6.16 0.04 0
6.24 0.04 0
6.32 0.04 0
6.4 0.04 0
6.48 0.04 0
6.56 0.04 0
6.64 0.04 0
6.72 0.04 0
6.8 0.04 0
6.88 0.04 0
6.96 0.04 0
7.04 0.04 0
7.12 0.04 0
7.2 0.04 0
7.28 0.04 0
7.36 0.04 0
7.44 0.04 0
7.52 0.04 0
7.6 0.04 0
7.68 0.04 0
7.76 0.04 0
7.84 0.04 0
[...]
POINT_DATA 20000

SCALARS v float 1
LOOKUP_TABLE default
0
0
0
0
0
0
0
0
0
0
0
0
0
0
0
0
0
0
0
0
0
0
0
0
0
0
0
0
0
0
0
0
0
0
0
0
0
0
0
0
0
0
0
0
0
0
0
0
0
0
0
0
0
0
0
0
0
0
0
0
0
0
0
0
0
0
0
0
0
0
0
0
0
0
0
0
0
0
0
0
0
0
0
0
0
0
0
0
0
0
0
0
0
0
0
0
0
0
0
0
0
0
0
0
0
0
0
0
0
0
0
0
0
0
0
0
0
0
0
0
0
0
0
0
0
0
0
0
0
0
0
0
0
0
0
0
0
0
0
0
0
0
0
0
0
0
0
0
0
0
0
0
0
0
0
0
0
0
0
0
0
0
0
0
0
0
0
0
0
0
0
0
0
0
0
0
0
0
0
0
0
0
0
0
0
0
0
0
0
0
0
0
0
0
0
0
0
0
0
0
0
0
0
0
0
0
0
0
0
0
0
0
0
0
0
0
0
0
0
0
0
0
0
0
0
0
0
0
0
0
0
0
0
0
0
0
0
0
0
0
0
0
0
0
0
0
0
0
0
0
0
0
0
0
0
0
0
0
0
0
0
0
0
0
0
0
0
0
0
0
0
0
0
0
0
0
0
0
0
0
0
0
0
0
0
0
0
0
0
0
0
0
0
0
0
0
0
0
0
0
0
0
0
0
0
0
0
0
0
0
0
0
0
0
0
0
0
0
0
0
0
0
0
0
0
0
0
0
0
0
0
0
0
0
0
0
0
0
0
0
0
0
0
0
0
0
0
0
0
0
0
0
0
0
0
0
0
0
0
0
0
0
0
0
0
0
0
0
0
0
0
0
0
0
0
0
0
0
0
0
0
0
0
0
0
0
0
0
0
0
0
0
0
0
0
0
0
0
0
0
-0.121192
0.121192
0.051651
0.0172555
0.00657983
0.00287508
0.00116355
0.000204722
-0.000390453
-0.000782886
-0.00105399
-0.00124979
-0.00139608
-0.00150752
-0.00159476
-0.00166701
-0.00172998
-0.0017839
-0.00182606
-0.00185621
-0.00187988
-0.00190614
-0.00194161
-0.00198585
-0.00203148
-0.00206879
-0.00209124
-0.0020983
-0.00209458
-0.00208655
-0.00207948
-0.00207582
-0.00207537
-0.00207641
-0.00207692
-0.00207536
-0.00207102
-0.00206394
-0.00205458
-0.00204361
-0.00203162
-0.00201908
-0.00200626
-0.0019933
-0.00198023
-0.00196706
-0.00195375
-0.00194029
-0.00192665
-0.00191284
-0.00189884
-0.00188466
-0.00187031
-0.0018558
-0.00184114
-0.00182633
-0.0018114
-0.00179633
-0.00178115
-0.00176586
-0.00175047
-0.00173498
-0.0017194
-0.00170375
-0.00168802
-0.00167222
-0.00165636
-0.00164044
-0.00162448
-0.00160848
-0.00159244
-0.00157637
-0.00156028
-0.00154417
-0.00152805
-0.00151192
-0.0014958
-0.00147968
-0.00146358
-0.00144749
-0.00143142
-0.00141539
-0.00139939
-0.00138342
-0.0013675
-0.00135163
-0.00133581
-0.00132006
-0.00130436
-0.00128873
-0.00127317
-0.00125769
-0.00124229
-0.00122697
-0.00121174
-0.00119661
-0.00118156
-0.00116662
-0.00115178
-0.00113704
-0.00112241
-0.00110789
-0.00109349
-0.0010792
-0.00106503
-0.00105099
-0.00103707
-0.00102327
-0.00100961
-0.000996071
-0.000982668
-0.0009694
-0.000956268
-0.000943273
-0.000930418
-0.000917703
-0.00090513
-0.0008927
-0.000880413
-0.000868272
-0.000856276
-0.000844426
-0.000832723
-0.000821168
-0.000809761
-0.000798502
-0.000787392
-0.00077643
-0.000765618
-0.000754954
-0.000744439
-0.000734072
-0.000723854
-0.000713785
-0.000703863
-0.000694088
-0.00068446
-0.000674979
-0.000665643
-0.000656452
-0.000647405
-0.000638502
-0.000629741
-0.000621122
-0.000612644
-0.000604305
-0.000596105
-0.000588043
-0.000580117
-0.000572326
-0.00056467
-0.000557146
-0.000549754
-0.000542493
-0.00053536
-0.000528355
-0.000521476
-0.000514722
-0.000508091
-0.000501582
-0.000495194
-0.000488924
-0.000482773
-0.000476737
-0.000470816
-0.000465007
-0.000459311
-0.000453723
-0.000448245
-0.000442873
-0.000437606
-0.000432443
-0.000427382
-0.000422421
-0.00041756
-0.000412795
-0.000408127
-0.000403553
-0.000399072
-0.000394681
-0.000390381
-0.000386168
-0.000382042
-0.000378001
-0.000374044
-0.000370169
-0.000366375
-0.000362659
-0.000359022
-0.00035546
-0.000351974
-0.00034856
-0.000345219
-0.000341949
-0.000338748
-0.000335614
-0.000332548
-0.000329546
-0.000326609
-0.000323734
-0.000320921
-0.000318167
-0.000315473
-0.000312837
-0.000310257
-0.000307732
-0.000305262
-0.000302844
-0.000300479
-0.000298164
-0.000295899
-0.000293683
-0.000291514
-0.000289392
-0.000287316
-0.000285284
-0.000283296
-0.00028135
-0.000279447
-0.000277583
-0.00027576
-0.000273976
-0.00027223
-0.000270521
-0.000268849
-0.000267212
-0.00026561
-0.000264043
-0.000262508
-0.000261006
-0.000259536
-0.000258097
-0.000256688
-0.000255309
-0.000253959
-0.000252637
-0.000251344
-0.000250077
-0.000248836
-0.000247622
-0.000246433
-0.000245268
-0.000244128
-0.000243012
-0.000241918
-0.000240847
-0.000239798
-0.000238771
-0.000237765
-0.000236779
-0.000235814
-0.000234868
-0.000233942
-0.000233035
-0.000232146
-0.000231275
-0.000230421
-0.000229585
-0.000228766
-0.000227964
-0.000227177
-0.000226407
-0.000225652
-0.000224912
-0.000224187
-0.000223476
-0.00022278
-0.000222098
-0.00022143
-0.000220774
-0.000220132
-0.000219503
-0.000218887
-0.000218282
-0.00021769
-0.00021711
-0.000216541
-0.000215984
-0.000215438
-0.000214903
-0.000214379
-0.000213865
-0.000213362
-0.000212868
-0.000212385
-0.000211912
-0.000211448
-0.000210994
-0.000210549
-0.000210114
-0.000209687
-0.000209269
-0.00020886
-0.000208459
-0.000208067
-0.000207683
-0.000207307
-0.000206939
-0.000206579
-0.000206227
-0.000205882
-0.000205545
-0.000205215
-0.000204893
-0.000204578
-0.00020427
-0.000203969
-0.000203674
-0.000203387
-0.000203106
-0.000202832
-0.000202564
-0.000202303
-0.000202048
-0.0002018
-0.000201557
-0.000201321
-0.000201091
-0.000200866
-0.000200648
-0.000200435
-0.000200228
-0.000200027
-0.000199832
-0.000199642
-0.000199457
-0.000199279
-0.000199105
-0.000198937
-0.000198774
-0.000198616
-0.000198463
-0.000198316
-0.000198174
-0.000198036
-0.000197904
-0.000197777
-0.000197654
-0.000197537
-0.000197424
-0.000197316
-0.000197212
-0.000197114
-0.00019702
-0.000196931
-0.000196846
-0.000196766
-0.000196691
-0.00019662
-0.000196554
-0.000196492
-0.000196434
-0.000196381
-0.000196333
-0.000196289
-0.000196249
-0.000196214
-0.000196182
-0.000196156
-0.000196133
-0.000196116
-0.000196102
-0.000196093
-0.000196088
-0.000196087
-0.000196091
-0.000196099
-0.000196112
-0.000196129
-0.00019615
-0.000196176
-0.000196206
-0.000196241
-0.00019628
-0.000196324
-0.000196373
-0.000196426
-0.000196484
-0.000196548
-0.000196616
-0.00019669
-0.00019677
-0.000196855
-0.000196949
-0.00019704
-0.000197167
-0.000197225
-0.00019748
-0.00019731
-0.000198063
-0.000197046
-0.000199318
-0.000195617
-0.000203364
-0.000187853
-0.000218491
-0.000169007
-0.000208027
-0.00017872
-0.00017872
-0.14021
0.14021
0.098767
0.0516501
0.0279686
0.0166033
0.0105817
0.00703599
0.00478219
0.00327273
0.0022156
0.00144207
0.000856193
0.000401908
3.8884e-05
-0.000264293
-0.000524556
-0.000743229
-0.000917749
-0.00105696
-0.00118488
-0.00132854
-0.00150025
-0.00168898
-0.00186712
-0.00200695
-0.00209522
-0.00213748
-0.00215191
-0.00215861
-0.00217128
-0.0021944
-0.0022251
-0.00225716
-0.0022846
-0.00230362
-0.00231313
-0.00231408
-0.00230852
-0.00229873
-0.00228662
-0.00227353
-0.00226021
-0.00224698
-0.0022339
-0.00222092
-0.00220792
-0.00219482
-0.00218155
-0.00216807
-0.00215436
-0.00214044
-0.00212632
-0.00211199
-0.00209749
-0.00208283
-0.00206801
-0.00205305
-0.00203797
-0.00202277
-0.00200745
-0.00199204
-0.00197653
-0.00196093
-0.00194525
-0.0019295
-0.00191367
-0.00189779
-0.00188185
-0.00186586
-0.00184983
-0.00183376
-0.00181767
-0.00180154
-0.0017854
-0.00176925
-0.00175309
-0.00173692
-0.00172076
-0.00170461
-0.00168848
-0.00167236
-0.00165627
-0.00164021
-0.00162419
-0.0016082
-0.00159226
-0.00157637
-0.00156054
-0.00154476
-0.00152904
-0.0015134
-0.00149782
-0.00148232
-0.0014669
-0.00145156
-0.00143631
-0.00142114
-0.00140607
-0.0013911
-0.00137623
-0.00136146
-0.00134679
-0.00133223
-0.00131779
-0.00130346
-0.00128924
-0.00127514
-0.00126117
-0.00124731
-0.00123358
-0.00121998
-0.00120651
-0.00119316
-0.00117995
-0.00116687
-0.00115393
-0.00114112
-0.00112844
-0.00111591
-0.00110351
-0.00109126
-0.00107914
-0.00106716
-0.00105533
-0.00104364
-0.00103209
-0.00102068
-0.00100942
-0.000998301
-0.000987325
-0.000976491
-0.0009658
-0.000955253
-0.000944848
-0.000934586
-0.000924466
-0.000914487
-0.00090465
-0.000894954
-0.000885398
-0.00087598
-0.000866702
-0.000857562
-0.000848559
-0.000839692
-0.000830961
-0.000822364
-0.000813901
-0.00080557
-0.00079737
-0.000789301
-0.000781361
-0.000773549
-0.000765864
-0.000758305
-0.00075087
-0.000743558
-0.000736368
-0.000729298
-0.000722348
-0.000715516
-0.0007088
-0.000702199
-0.000695712
-0.000689337
-0.000683073
-0.000676919
-0.000670873
-0.000664933
-0.000659099
-0.000653368
-0.00064774
-0.000642212
-0.000636784
-0.000631453
-0.00062622
-0.000621081
-0.000616036
-0.000611082
-0.00060622
-0.000601447
-0.000596762
-0.000592163
-0.000587649
-0.000583219
-0.000578871
-0.000574604
-0.000570417
-0.000566307
-0.000562275
-0.000558318
-0.000554435
-0.000550624
-0.000546886
-0.000543217
-0.000539618
-0.000536086
-0.000532621
-0.000529221
-0.000525885
-0.000522612
-0.000519401
-0.00051625
-0.000513159
-0.000510125
-0.000507149
-0.000504229
-0.000501364
-0.000498553
-0.000495795
-0.000493088
-0.000490433
-0.000487827
-0.000485271
-0.000482761
-0.0004803
-0.000477884
-0.000475513
-0.000473186
-0.000470903
-0.000468662
-0.000466463
-0.000464305
-0.000462187
-0.000460107
-0.000458067
-0.000456063
-0.000454098
-0.000452167
-0.000450273
-0.000448413
-0.000446587
-0.000444795
-0.000443035
-0.000441307
-0.000439611
-0.000437946
-0.000436311
-0.000434705
-0.000433128
-0.00043158
-0.00043006
-0.000428567
-0.000427101
-0.00042566
-0.000424247
-0.000422858
-0.000421494
-0.000420154
-0.000418838
-0.000417546
-0.000416276
-0.000415029
-0.000413805
-0.000412601
-0.00041142
-0.000410259
-0.000409119
-0.000407998
-0.000406898
-0.000405817
-0.000404755
-0.000403712
-0.000402687
-0.00040168
-0.000400692
-0.00039972
-0.000398766
-0.000397828
-0.000396908
-0.000396003
-0.000395115
-0.000394242
-0.000393385
-0.000392543
-0.000391717
-0.000390904
-0.000390107
-0.000389323
-0.000388555
-0.000387799
-0.000387058
-0.000386329
-0.000385614
-0.000384912
-0.000384223
-0.000383547
-0.000382883
-0.000382231
-0.000381592
-0.000380964
-0.000380349
-0.000379744
-0.000379152
-0.00037857
-0.000378
-0.000377441
-0.000376892
-0.000376354
-0.000375828
-0.000375311
-0.000374805
-0.000374308
-0.000373823
-0.000373346
-0.00037288
-0.000372423
-0.000371977
-0.000371539
-0.000371111
-0.000370692
-0.000370283
-0.000369882
-0.00036949
-0.000369107
-0.000368734
-0.000368368
-0.000368012
-0.000367663
-0.000367324
-0.000366992
-0.000366669
-0.000366354
-0.000366047
-0.000365748
-0.000365458
-0.000365174
-0.000364899
-0.000364631
-0.000364372
-0.000364119
-0.000363875
-0.000363638
-0.000363408
-0.000363185
-0.00036297
-0.000362762
-0.000362562
-0.000362368
-0.000362182
-0.000362002
-0.00036183
-0.000361664
-0.000361506
-0.000361354
-0.000361209
-0.000361071
-0.00036094
-0.000360815
-0.000360698
-0.000360586
-0.000360482
-0.000360384
-0.000360293
-0.000360209
-0.000360131
-0.00036006
-0.000359996
-0.000359938
-0.000359888
-0.000359844
-0.000359807
-0.000359776
-0.000359753
-0.000359736
-0.000359727
-0.000359724
-0.000359729
-0.000359741
-0.000359761
-0.000359787
-0.000359822
-0.000359865
-0.000359916
-0.000359975
-0.000360043
-0.00036012
-0.000360207
-0.000360304
-0.000360412
-0.000360532
-0.000360662
-0.000360816
-0.000360955
-0.0003612
-0.000361228
-0.000361862
-0.00036118
-0.00036335
-0.00036004
-0.000366914
-0.000355385
-0.000378878
-0.000331935
-0.000424652
-0.000274063
-0.000418975
-0.00030924
-0.00030924
-0.120461
0.120461
0.119389
0.0799926
0.0517311
0.034583
0.024067
0.0173315
0.0128385
0.0097413
0.00753138
0.00589196
0.00463508
0.00364808
0.00284976
0.00217945
0.00160734
0.00113179
0.000751881
0.000439518
0.000139916
-0.000198194
-0.00058892
-0.000999643
-0.00137175
-0.00165514
-0.00183331
-0.00192592
-0.00197267
-0.00201186
-0.00206617
-0.00213982
-0.00222423
-0.00230623
-0.00237469
-0.00242362
-0.00245233
-0.00246388
-0.00246301
-0.00245446
-0.00244202
-0.00242817
-0.00241428
-0.00240088
-0.00238803
-0.00237554
-0.00236321
-0.00235084
-0.00233831
-0.00232555
-0.00231251
-0.00229922
-0.00228568
-0.0022719
-0.00225793
-0.00224377
-0.00222945
-0.00221499
-0.00220039
-0.00218567
-0.00217084
-0.00215591
-0.00214088
-0.00212577
-0.00211058
-0.00209532
-0.00207999
-0.0020646
-0.00204916
-0.00203367
-0.00201813
-0.00200257
-0.00198697
-0.00197135
-0.00195571
-0.00194005
-0.00192439
-0.00190873
-0.00189308
-0.00187743
-0.00186179
-0.00184618
-0.00183059
-0.00181502
-0.0017995
-0.00178401
-0.00176856
-0.00175316
-0.00173782
-0.00172253
-0.0017073
-0.00169214
-0.00167705
-0.00166203
-0.00164708
-0.00163222
-0.00161744
-0.00160274
-0.00158814
-0.00157363
-0.00155921
-0.0015449
-0.00153068
-0.00151658
-0.00150258
-0.00148868
-0.0014749
-0.00146124
-0.00144769
-0.00143426
-0.00142095
-0.00140776
-0.0013947
-0.00138176
-0.00136895
-0.00135627
-0.00134371
-0.00133129
-0.001319
-0.00130684
-0.00129481
-0.00128292
-0.00127117
-0.00125955
-0.00124807
-0.00123672
-0.00122551
-0.00121444
-0.0012035
-0.00119271
-0.00118205
-0.00117152
-0.00116114
-0.00115089
-0.00114078
-0.00113081
-0.00112098
-0.00111127
-0.00110171
-0.00109228
-0.00108299
-0.00107382
-0.0010648
-0.0010559
-0.00104714
-0.0010385
-0.00103
-0.00102162
-0.00101337
-0.00100525
-0.00099726
-0.000989389
-0.000981644
-0.00097402
-0.000966518
-0.000959136
-0.000951873
-0.000944728
-0.0009377
-0.000930786
-0.000923987
-0.0009173
-0.000910725
-0.00090426
-0.000897904
-0.000891654
-0.000885511
-0.000879472
-0.000873537
-0.000867703
-0.00086197
-0.000856336
-0.0008508
-0.000845359
-0.000840014
-0.000834762
-0.000829602
-0.000824533
-0.000819553
-0.000814661
-0.000809856
-0.000805135
-0.0008005
-0.000795945
-0.000791473
-0.000787079
-0.000782765
-0.000778527
-0.000774366
-0.000770279
-0.000766265
-0.000762323
-0.000758452
-0.00075465
-0.000750918
-0.000747251
-0.000743651
-0.000740114
-0.000736643
-0.000733232
-0.000729884
-0.000726595
-0.000723365
-0.000720193
-0.000717078
-0.000714018
-0.000711014
-0.000708062
-0.000705164
-0.000702316
-0.000699521
-0.000696773
-0.000694076
-0.000691425
-0.000688822
-0.000686264
-0.000683752
-0.000681284
-0.000678859
-0.000676476
-0.000674136
-0.000671836
-0.000669577
-0.000667356
-0.000665175
-0.00066303
-0.000660924
-0.000658853
-0.000656819
-0.000654818
-0.000652853
-0.000650921
-0.000649022
-0.000647155
-0.000645321
-0.000643517
-0.000641744
-0.000640001
-0.000638288
-0.000636603
-0.000634947
-0.000633318
-0.000631717
-0.000630142
-0.000628594
-0.000627071
-0.000625575
-0.000624102
-0.000622655
-0.000621231
-0.000619832
-0.000618454
-0.000617101
-0.000615769
-0.000614459
-0.000613171
-0.000611904
-0.000610658
-0.000609433
-0.000608227
-0.000607042
-0.000605875
-0.000604729
-0.000603601
-0.000602492
-0.0006014
-0.000600327
-0.000599271
-0.000598234
-0.000597213
-0.000596209
-0.000595221
-0.000594251
-0.000593295
-0.000592357
-0.000591433
-0.000590526
-0.000589632
-0.000588755
-0.000587892
-0.000587044
-0.000586209
-0.00058539
-0.000584584
-0.000583792
-0.000583013
-0.000582249
-0.000581497
-0.000580758
-0.000580032
-0.00057932
-0.000578618
-0.000577931
-0.000577255
-0.000576592
-0.000575939
-0.0005753
-0.000574671
-0.000574055
-0.00057345
-0.000572857
-0.000572273
-0.000571702
-0.000571141
-0.000570592
-0.000570052
-0.000569524
-0.000569005
-0.000568498
-0.000568
-0.000567513
-0.000567035
-0.000566568
-0.00056611
-0.000565662
-0.000565223
-0.000564795
-0.000564376
-0.000563966
-0.000563565
-0.000563174
-0.000562791
-0.000562419
-0.000562054
-0.000561699
-0.000561352
-0.000561014
-0.000560684
-0.000560364
-0.000560051
-0.000559748
-0.000559452
-0.000559165
-0.000558885
-0.000558615
-0.000558352
-0.000558097
-0.00055785
-0.000557612
-0.00055738
-0.000557157
-0.000556941
-0.000556734
-0.000556533
-0.000556341
-0.000556155
-0.000555979
-0.000555808
-0.000555646
-0.000555491
-0.000555344
-0.000555203
-0.000555071
-0.000554946
-0.000554829
-0.000554718
-0.000554616
-0.000554521
-0.000554434
-0.000554354
-0.000554283
-0.000554219
-0.000554163
-0.000554115
-0.000554076
-0.000554044
-0.000554021
-0.000554007
-0.000554002
-0.000554005
-0.000554019
-0.000554041
-0.000554074
-0.000554117
-0.000554171
-0.000554236
-0.000554314
-0.000554404
-0.000554509
-0.000554628
-0.000554763
-0.000554917
-0.000555087
-0.000555298
-0.000555475
-0.000555857
-0.000555804
-0.000556946
-0.000555504
-0.000559613
-0.000553135
-0.000566218
-0.000544208
-0.000588459
-0.000501426
-0.000670695
-0.000400526
-0.000690853
-0.000464902
-0.000464902
-0.0926928
0.0926928
0.118717
0.0946589
0.0695435
0.0509704
0.037936
0.0287652
0.022242
0.0175496
0.0141064
0.0115008
0.00946955
0.00784898
0.00651845
0.00538797
0.00441791
0.00361304
0.00297312
0.00244595
0.00193398
0.00135141
0.000681538
-1.26213e-05
-0.000629695
-0.00109028
-0.00137592
-0.00152788
-0.00161589
-0.00170181
-0.00181816
-0.00196647
-0.00212871
-0.00228165
-0.00240725
-0.00249703
-0.00255146
-0.00257686
-0.00258184
-0.00257456
-0.00256134
-0.0025462
-0.00253127
-0.00251735
-0.00250446
-0.0024923
-0.0024805
-0.00246876
-0.00245687
-0.0024447
-0.00243223
-0.00241943
-0.00240634
-0.00239297
-0.00237938
-0.00236558
-0.0023516
-0.00233747
-0.0023232
-0.0023088
-0.0022943
-0.00227969
-0.002265
-0.00225021
-0.00223536
-0.00222043
-0.00220544
-0.00219039
-0.0021753
-0.00216015
-0.00214498
-0.00212976
-0.00211452
-0.00209926
-0.00208399
-0.0020687
-0.00205341
-0.00203812
-0.00202284
-0.00200757
-0.00199232
-0.00197708
-0.00196188
-0.0019467
-0.00193156
-0.00191647
-0.00190142
-0.00188641
-0.00187147
-0.00185658
-0.00184175
-0.00182699
-0.0018123
-0.00179769
-0.00178315
-0.0017687
-0.00175433
-0.00174004
-0.00172585
-0.00171176
-0.00169776
-0.00168386
-0.00167006
-0.00165637
-0.00164279
-0.00162932
-0.00161596
-0.00160271
-0.00158959
-0.00157658
-0.00156369
-0.00155092
-0.00153828
-0.00152577
-0.00151338
-0.00150111
-0.00148898
-0.00147698
-0.00146511
-0.00145337
-0.00144177
-0.0014303
-0.00141896
-0.00140776
-0.0013967
-0.00138576
-0.00137497
-0.00136431
-0.00135379
-0.00134341
-0.00133316
-0.00132305
-0.00131307
-0.00130324
-0.00129353
-0.00128396
-0.00127453
-0.00126523
-0.00125607
-0.00124704
-0.00123814
-0.00122937
-0.00122074
-0.00121223
-0.00120386
-0.00119561
-0.00118749
-0.0011795
-0.00117163
-0.00116389
-0.00115627
-0.00114877
-0.0011414
-0.00113415
-0.00112701
-0.00111999
-0.00111309
-0.00110631
-0.00109964
-0.00109308
-0.00108663
-0.00108029
-0.00107407
-0.00106794
-0.00106193
-0.00105602
-0.00105021
-0.00104451
-0.0010389
-0.0010334
-0.00102799
-0.00102268
-0.00101746
-0.00101234
-0.0010073
-0.00100236
-0.000997512
-0.000992747
-0.00098807
-0.000983477
-0.000978969
-0.000974541
-0.000970196
-0.000965929
-0.000961742
-0.00095763
-0.000953595
-0.000949632
-0.000945745
-0.000941927
-0.000938181
-0.000934503
-0.000930894
-0.00092735
-0.000923873
-0.000920459
-0.000917109
-0.000913819
-0.000910592
-0.000907423
-0.000904313
-0.000901259
-0.000898263
-0.00089532
-0.000892433
-0.000889597
-0.000886815
-0.000884081
-0.0008814
-0.000878766
-0.000876181
-0.000873641
-0.00087115
-0.000868701
-0.000866299
-0.000863938
-0.000861622
-0.000859345
-0.000857111
-0.000854915
-0.00085276
-0.000850642
-0.000848563
-0.000846519
-0.000844513
-0.00084254
-0.000840604
-0.000838701
-0.000836832
-0.000834995
-0.000833191
-0.000831416
-0.000829675
-0.000827961
-0.000826279
-0.000824624
-0.000822999
-0.000821401
-0.000819831
-0.000818287
-0.00081677
-0.000815278
-0.000813812
-0.00081237
-0.000810953
-0.000809559
-0.00080819
-0.000806842
-0.000805518
-0.000804215
-0.000802935
-0.000801675
-0.000800437
-0.000799219
-0.000798022
-0.000796843
-0.000795686
-0.000794546
-0.000793426
-0.000792324
-0.000791241
-0.000790174
-0.000789127
-0.000788095
-0.000787082
-0.000786084
-0.000785104
-0.000784139
-0.000783191
-0.000782257
-0.00078134
-0.000780437
-0.00077955
-0.000778677
-0.000777819
-0.000776974
-0.000776145
-0.000775328
-0.000774527
-0.000773737
-0.000772962
-0.000772198
-0.00077145
-0.000770712
-0.000769988
-0.000769275
-0.000768576
-0.000767887
-0.000767212
-0.000766547
-0.000765895
-0.000765253
-0.000764624
-0.000764004
-0.000763397
-0.000762799
-0.000762214
-0.000761637
-0.000761073
-0.000760517
-0.000759973
-0.000759438
-0.000758914
-0.000758398
-0.000757894
-0.000757398
-0.000756913
-0.000756436
-0.00075597
-0.000755511
-0.000755063
-0.000754623
-0.000754193
-0.000753771
-0.000753358
-0.000752953
-0.000752558
-0.00075217
-0.000751792
-0.00075142
-0.000751059
-0.000750703
-0.000750358
-0.000750019
-0.000749689
-0.000749365
-0.000749051
-0.000748743
-0.000748444
-0.000748151
-0.000747867
-0.000747589
-0.000747319
-0.000747055
-0.0007468
-0.00074655
-0.000746309