# vtk DataFile Version 2.0
FlowField
ASCII
DATASET STRUCTURED_GRID
DIMENSIONS 400 1 50
POINTS 20000 float
0 0 0
0.08 0 0
0.16 0 0
0.24 0 0
0.32 0 0
0.4 0 0
0.48 0 0
0.56 0 0
0.64 0 0
0.72 0 0
0.8 0 0
0.88 0 0
0.96 0 0
1.04 0 0
1.12 0 0
1.2 0 0
1.28 0 0
1.36 0 0
1.44 0 0
1.52 0 0
1.6 0 0
1.68 0 0
1.76 0 0
1.84 0 0
1.92 0 0
2 0 0
2.08 0 0
2.16 0 0
2.24 0 0
2.32 0 0
2.4 0 0
2.48 0 0
2.56 0 0
2.64 0 0
2.72 0 0
2.8 0 0
2.88 0 0
2.96 0 0
3.04 0 0
3.12 0 0
3.2 0 0
3.28 0 0
3.36 0 0
3.44 0 0
3.52 0 0
3.6 0 0
3.68 0 0
3.76 0 0
3.84 0 0
3.92 0 0
4 0 0
4.08 0 0
4.16 0 0
4.24 0 0
4.32 0 0
4.4 0 0
4.48 0 0
4.56 0 0
4.64 0 0
4.72 0 0
4.8 0 0
4.88 0 0
4.96 0 0
5.04 0 0
5.12 0 0
5.2 0 0
5.28 0 0
5.36 0 0
5.44 0 0
5.52 0 0
5.6 0 0
5.68 0 0
5.76 0 0
5.84 0 0
5.92 0 0
6 0 0
6.08 0 0
6.16 0 0
6.24 0 0
6.32 0 0
6.4 0 0
6.48 0 0
6.56 0 0
6.64 0 0
6.72 0 0
6.8 0 0
6.88 0 0
6.96 0 0
7.04 0 0
7.12 0 0
7.2 0 0
7.28 0 0
7.36 0 0
7.44 0 0
7.52 0 0
7.6 0 0
7.68 0 0
7.76 0 0
7.84 0 0
7.92 0 0
8 0 0
8.08 0 0
8.16 0 0
8.24 0 0
8.32 0 0
8.4 0 0
8.48 0 0
8.56 0 0
8.64 0 0
8.72 0 0
8.8 0 0
8.88 0 0
8.96 0 0
9.04 0 0
9.12 0 0
9.2 0 0
9.28 0 0
9.36 0 0
9.44 0 0
9.52 0 0
9.6 0 0
9.68 0 0
9.76 0 0
9.84 0 0
9.92 0 0
10 0 0
10.08 0 0
10.16 0 0
10.24 0 0
10.32 0 0
10.4 0 0
10.48 0 0
10.56 0 0
10.64 0 0
10.72 0 0
10.8 0 0
10.88 0 0
10.96 0 0
11.04 0 0
11.12 0 0
11.2 0 0
11.28 0 0
11.36 0 0
11.44 0 0
11.52 0 0
11.6 0 0
11.68 0 0
11.76 0 0
11.84 0 0
11.92 0 0
12 0 0
12.08 0 0
12.16 0 0
12.24 0 0
12.32 0 0
12.4 0 0
12.48 0 0
12.56 0 0
12.64 0 0
12.72 0 0
12.8 0 0
12.88 0 0
12.96 0 0
13.04 0 0
13.12 0 0
13.2 0 0
13.28 0 0
13.36 0 0
13.44 0 0
13.52 0 0
13.6 0 0
13.68 0 0
13.76 0 0
13.84 0 0
13.92 0 0
14 0 0
14.08 0 0
14.16 0 0
14.24 0 0
14.32 0 0
14.4 0 0
14.48 0 0
14.56 0 0
14.64 0 0
14.72 0 0
14.8 0 0
14.88 0 0
14.96 0 0
15.04 0 0
15.12 0 0
15.2 0 0
15.28 0 0
15.36 0 0
15.44 0 0
15.52 0 0
15.6 0 0
15.68 0 0
15.76 0 0
15.84 0 0
15.92 0 0
16 0 0
16.08 0 0
16.16 0 0
16.24 0 0
16.32 0 0
16.4 0 0
16.48 0 0
16.56 0 0
16.64 0 0
16.72 0 0
16.8 0 0
16.88 0 0
16.96 0 0
17.04 0 0
17.12 0 0
17.2 0 0
17.28 0 0
17.36 0 0
17.44 0 0
17.52 0 0
17.6 0 0
17.68 0 0
17.76 0 0
17.84 0 0
17.92 0 0
18 0 0
18.08 0 0
18.16 0 0
18.24 0 0
18.32 0 0
18.4 0 0
18.48 0 0
18.56 0 0
18.64 0 0
18.72 0 0
18.8 0 0
18.88 0 0
18.96 0 0
19.04 0 0
19.12 0 0
19.2 0 0
19.28 0 0
19.36 0 0
19.44 0 0
19.52 0 0
19.6 0 0
19.68 0 0
19.76 0 0
19.84 0 0
19.92 0 0
20 0 0
20.08 0 0
20.16 0 0
20.24 0 0
20.32 0 0
20.4 0 0
20.48 0 0
20.56 0 0
20.64 0 0
20.72 0 0
20.8 0 0
20.88 0 0
20.96 0 0
21.04 0 0
21.12 0 0
21.2 0 0
21.28 0 0
21.36 0 0
21.44 0 0
21.52 0 0
21.6 0 0
21.68 0 0
21.76 0 0
21.84 0 0
21.92 0 0
22 0 0
22.08 0 0
22.16 0 0
22.24 0 0
22.32 0 0
22.4 0 0
22.48 0 0
22.56 0 0
22.64 0 0
22.72 0 0
22.8 0 0
22.88 0 0
22.96 0 0
23.04 0 0
23.12 0 0
23.2 0 0
23.28 0 0
23.36 0 0
23.44 0 0
23.52 0 0
23.6 0 0
23.68 0 0
23.76 0 0
23.84 0 0
23.92 0 0
24 0 0
24.08 0 0
24.16 0 0
24.24 0 0
24.32 0 0
24.4 0 0
24.48 0 0
24.56 0 0
24.64 0 0
24.72 0 0
24.8 0 0
24.88 0 0
24.96 0 0
25.04 0 0
25.12 0 0
25.2 0 0
25.28 0 0
25.36 0 0
25.44 0 0
25.52 0 0
25.6 0 0
25.68 0 0
25.76 0 0
25.84 0 0
25.92 0 0
26 0 0
26.08 0 0
26.16 0 0
26.24 0 0
26.32 0 0
26.4 0 0
26.48 0 0
26.56 0 0
26.64 0 0
26.72 0 0
26.8 0 0
26.88 0 0
26.96 0 0
27.04 0 0
27.12 0 0
27.2 0 0
27.28 0 0
27.36 0 0
27.44 0 0
27.52 0 0
27.6 0 0
27.68 0 0
27.76 0 0
27.84 0 0
27.92 0 0
28 0 0
28.08 0 0
28.16 0 0
28.24 0 0
28.32 0 0
28.4 0 0
28.48 0 0
28.56 0 0
28.64 0 0
28.72 0 0
28.8 0 0
28.88 0 0
28.96 0 0
29.04 0 0
29.12 0 0
29.2 0 0
29.28 0 0
29.36 0 0
29.44 0 0
29.52 0 0
29.6 0 0
29.68 0 0
29.76 0 0
29.84 0 0
29.92 0 0
30 0 0
30.08 0 0
30.16 0 0
30.24 0 0
30.32 0 0
30.4 0 0
30.48 0 0
30.56 0 0
30.64 0 0
30.72 0 0
30.8 0 0
30.88 0 0
30.96 0 0
31.04 0 0
31.12 0 0
31.2 0 0
31.28 0 0
31.36 0 0
31.44 0 0
31.52 0 0
31.6 0 0
31.68 0 0
31.76 0 0
31.84 0 0
31.92 0 0
0 0.02 0
0.08 0.02 0
0.16 0.02 0
0.24 0.02 0
0.32 0.02 0
0.4 0.02 0
0.48 0.02 0
0.56 0.02 0
0.64 0.02 0
0.72 0.02 0
0.8 0.02 0
0.88 0.02 0
0.96 0.02 0
1.04 0.02 0
1.12 0.02 0
1.2 0.02 0
1.28 0.02 0
1.36 0.02 0
1.44 0.02 0
1.52 0.02 0
1.6 0.02 0
1.68 0.02 0
1.76 0.02 0
1.84 0.02 0
1.92 0.02 0
2 0.02 0
2.08 0.02 0
2.16 0.02 0
2.24 0.02 0
2.32 0.02 0
2.4 0.02 0
2.48 0.02 0
2.56 0.02 0
2.64 0.02 0
2.72 0.02 0
2.8 0.02 0
2.88 0.02 0
2.96 0.02 0
3.04 0.02 0
3.12 0.02 0
3.2 0.02 0
3.28 0.02 0
3.36 0.02 0
3.44 0.02 0
3.52 0.02 0
3.6 0.02 0
3.68 0.02 0
3.76 0.02 0
3.84 0.02 0
3.92 0.02 0
4 0.02 0
4.08 0.02 0
4.16 0.02 0
4.24 0.02 0
4.32 0.02 0
4.4 0.02 0
4.48 0.02 0
4.56 0.02 0
4.64 0.02 0
4.72 0.02 0
4.8 0.02 0
4.88 0.02 0
4.96 0.02 0
5.04 0.02 0
5.12 0.02 0
5.2 0.02 0
5.28 0.02 0
5.36 0.02 0
5.44 0.02 0
5.52 0.02 0
5.6 0.02 0
5.68 0.02 0
5.76 0.02 0
5.84 0.02 0
5.92 0.02 0
6 0.02 0
6.08 0.02 0
6.16 0.02 0
6.24 0.02 0
6.32 0.02 0
6.4 0.02 0
6.48 0.02 0
6.56 0.02 0
6.64 0.02 0
6.72 0.02 0
6.8 0.02 0
6.88 0.02 0
6.96 0.02 0
7.04 0.02 0
7.12 0.02 0
7.2 0.02 0
7.28 0.02 0
7.36 0.02 0
7.44 0.02 0
7.52 0.02 0
7.6 0.02 0
7.68 0.02 0
7.76 0.02 0
7.84 0.02 0
7.92 0.02 0
8 0.02 0
8.08 0.02 0
8.16 0.02 0
8.24 0.02 0
8.32 0.02 0
8.4 0.02 0
8.48 0.02 0
8.56 0.02 0
8.64 0.02 0
8.72 0.02 0
8.8 0.02 0
8.88 0.02 0
8.96 0.02 0
9.04 0.02 0
9.12 0.02 0
9.2 0.02 0
9.28 0.02 0
9.36 0.02 0
9.44 0.02 0
9.52 0.02 0
9.6 0.02 0
9.68 0.02 0
9.76 0.02 0
9.84 0.02 0
9.92 0.02 0
10 0.02 0
10.08 0.02 0
10.16 0.02 0
10.24 0.02 0
10.32 0.02 0
10.4 0.02 0
10.48 0.02 0
10.56 0.02 0
10.64 0.02 0
10.72 0.02 0
10.8 0.02 0
10.88 0.02 0
10.96 0.02 0
11.04 0.02 0
11.12 0.02 0
11.2 0.02 0
11.28 0.02 0
11.36 0.02 0
11.44 0.02 0
11.52 0.02 0
11.6 0.02 0
11.68 0.02 0
11.76 0.02 0
11.84 0.02 0
11.92 0.02 0
12 0.02 0
12.08 0.02 0
12.16 0.02 0
12.24 0.02 0
12.32 0.02 0
12.4 0.02 0
12.48 0.02 0
12.56 0.02 0
12.64 0.02 0
12.72 0.02 0
12.8 0.02 0
12.88 0.02 0
12.96 0.02 0
13.04 0.02 0
13.12 0.02 0
13.2 0.02 0
13.28 0.02 0
13.36 0.02 0
13.44 0.02 0
13.52 0.02 0
13.6 0.02 0
13.68 0.02 0
13.76 0.02 0
13.84 0.02 0
13.92 0.02 0
14 0.02 0
14.08 0.02 0
14.16 0.02 0
14.24 0.02 0
14.32 0.02 0
14.4 0.02 0
14.48 0.02 0
14.56 0.02 0
14.64 0.02 0
14.72 0.02 0
14.8 0.02 0
14.88 0.02 0
14.96 0.02 0
15.04 0.02 0
15.12 0.02 0
15.2 0.02 0
15.28 0.02 0
15.36 0.02 0
15.44 0.02 0
15.52 0.02 0
15.6 0.02 0
15.68 0.02 0
15.76 0.02 0
15.84 0.02 0
15.92 0.02 0
16 0.02 0
16.08 0.02 0
16.16 0.02 0
16.24 0.02 0
16.32 0.02 0
16.4 0.02 0
16.48 0.02 0
16.56 0.02 0
16.64 0.02 0
16.72 0.02 0
16.8 0.02 0
16.88 0.02 0
16.96 0.02 0
17.04 0.02 0
17.12 0.02 0
17.2 0.02 0
17.28 0.02 0
17.36 0.02 0
17.44 0.02 0
17.52 0.02 0
17.6 0.02 0
17.68 0.02 0
17.76 0.02 0
17.84 0.02 0
17.92 0.02 0
18 0.02 0
18.08 0.02 0
18.16 0.02 0
18.24 0.02 0
18.32 0.02 0
18.4 0.02 0
18.48 0.02 0
18.56 0.02 0
18.64 0.02 0
18.72 0.02 0
18.8 0.02 0
18.88 0.02 0
18.96 0.02 0
19.04 0.02 0
19.12 0.02 0
19.2 0.02 0
19.28 0.02 0
19.36 0.02 0
19.44 0.02 0
19.52 0.02 0
19.6 0.02 0
19.68 0.02 0
19.76 0.02 0
19.84 0.02 0
19.92 0.02 0
20 0.02 0
20.08 0.02 0
20.16 0.02 0
20.24 0.02 0
20.32 0.02 0
20.4 0.02 0
20.48 0.02 0
20.56 0.02 0
20.64 0.02 0
20.72 0.02 0
20.8 0.02 0
20.88 0.02 0
20.96 0.02 0
21.04 0.02 0
21.12 0.02 0
21.2 0.02 0
21.28 0.02 0
21.36 0.02 0
21.44 0.02 0
21.52 0.02 0
21.6 0.02 0
21.68 0.02 0
21.76 0.02 0
21.84 0.02 0
21.92 0.02 0
22 0.02 0
22.08 0.02 0
22.16 0.02 0
22.24 0.02 0
22.32 0.02 0
22.4 0.02 0
22.48 0.02 0
22.56 0.02 0
22.64 0.02 0
22.72 0.02 0
22.8 0.02 0
22.88 0.02 0
22.96 0.02 0
23.04 0.02 0
23.12 0.02 0
23.2 0.02 0
23.28 0.02 0
23.36 0.02 0
23.44 0.02 0
23.52 0.02 0
23.6 0.02 0
23.68 0.02 0
23.76 0.02 0
23.84 0.02 0
23.92 0.02 0
24 0.02 0
24.08 0.02 0
24.16 0.02 0
24.24 0.02 0
24.32 0.02 0
24.4 0.02 0
24.48 0.02 0
24.56 0.02 0
24.64 0.02 0
24.72 0.02 0
24.8 0.02 0
24.88 0.02 0
24.96 0.02 0
25.04 0.02 0
25.12 0.02 0
25.2 0.02 0
25.28 0.02 0
25.36 0.02 0
25.44 0.02 0
25.52 0.02 0
25.6 0.02 0
25.68 0.02 0
25.76 0.02 0
25.84 0.02 0
25.92 0.02 0
26 0.02 0
26.08 0.02 0
26.16 0.02 0
26.24 0.02 0
26.32 0.02 0
26.4 0.02 0
26.48 0.02 0
26.56 0.02 0
26.64 0.02 0
26.72 0.02 0
26.8 0.02 0
26.88 0.02 0
26.96 0.02 0
27.04 0.02 0
27.12 0.02 0
27.2 0.02 0
27.28 0.02 0
27.36 0.02 0
27.44 0.02 0
27.52 0.02 0
27.6 0.02 0
27.68 0.02 0
27.76 0.02 0
27.84 0.02 0
27.92 0.02 0
28 0.02 0
28.08 0.02 0
28.16 0.02 0
28.24 0.02 0
28.32 0.02 0
28.4 0.02 0
28.48 0.02 0
28.56 0.02 0
28.64 0.02 0
28.72 0.02 0
28.8 0.02 0
28.88 0.02 0
28.96 0.02 0
29.04 0.02 0
29.12 0.02 0
29.2 0.02 0
29.28 0.02 0
29.36 0.02 0
29.44 0.02 0
29.52 0.02 0
29.6 0.02 0
29.68 0.02 0
29.76 0.02 0
29.84 0.02 0
29.92 0.02 0
30 0.02 0
30.08 0.02 0
30.16 0.02 0
30.24 0.02 0
30.32 0.02 0
30.4 0.02 0
30.48 0.02 0
30.56 0.02 0
30.64 0.02 0
30.72 0.02 0
30.8 0.02 0
30.88 0.02 0
30.96 0.02 0
31.04 0.02 0
31.12 0.02 0
31.2 0.02 0
31.28 0.02 0
31.36 0.02 0
31.44 0.02 0
31.52 0.02 0
31.6 0.02 0
31.68 0.02 0
31.76 0.02 0
31.84 0.02 0
31.92 0.02 0
0 0.04 0
0.08 0.04 0
0.16 0.04 0
0.24 0.04 0
0.32 0.04 0
0.4 0.04 0
0.48 0.04 0
0.56 0.04 0
0.64 0.04 0
0.72 0.04 0
0.8 0.04 0
0.88 0.04 0
0.96 0.04 0
1.04 0.04 0
1.12 0.04 0
1.2 0.04 0
1.28 0.04 0
1.36 0.04 0
1.44 0.04 0
1.52 0.04 0
1.6 0.04 0
1.68 0.04 0
1.76 0.04 0
1.84 0.04 0
1.92 0.04 0
2 0.04 0
2.08 0.04 0
2.16 0.04 0
2.24 0.04 0
2.32 0.04 0
2.4 0.04 0
2.48 0.04 0
2.56 0.04 0
2.64 0.04 0
2.72 0.04 0
2.8 0.04 0
2.88 0.04 0
2.96 0.04 0
3.04 0.04 0
3.12 0.04 0
3.2 0.04 0
3.28 0.04 0
3.36 0.04 0
3.44 0.04 0
3.52 0.04 0
3.6 0.04 0
3.68 0.04 0
3.76 0.04 0
3.84 0.04 0
3.92 0.04 0
4 0.04 0
4.08 0.04 0
4.16 0.04 0
4.24 0.04 0
4.32 0.04 0
4.4 0.04 0
4.48 0.04 0
4.56 0.04 0
4.64 0.04 0
4.72 0.04 0
4.8 0.04 0
4.88 0.04 0
4.96 0.04 0
5.04 0.04 0
5.12 0.04 0
5.2 0.04 0
5.28 0.04 0
5.36 0.04 0
5.44 0.04 0
5.52 0.04 0
5.6 0.04 0
5.68 0.04 0
5.76 0.04 0
5.84 0.04 0
5.92 0.04 0
6 0.04 0
6.08 0.04 0
6.16 0.04 0
6.24 0.04 0
6.32 0.04 0
6.4 0.04 0
6.48 0.04 0
6.56 0.04 0
6.64 0.04 0
6.72 0.04 0
6.8 0.04 0
6.88 0.04 0
6.96 0.04 0
7.04 0.04 0
7.12 0.04 0
7.2 0.04 0
7.28 0.04 0
7.36 0.04 0
7.44 0.04 0
7.52 0.04 0
7.6 0.04 0
7.68 0.04 0
7.76 0.04 0
7.84 0.04 0
[...]
POINT_DATA 20000

SCALARS p float 1
LOOKUP_TABLE default
1
197.091
196.861
196.794
196.768
196.753
196.741
196.73
196.72
196.711
196.702
196.694
196.685
196.677
196.669
196.662
196.654
196.647
196.64
196.633
196.626
196.619
196.613
196.607
196.601
196.595
196.589
196.583
196.577
196.572
196.566
196.561
196.556
196.55
196.545
196.54
196.535
196.531
196.526
196.521
196.517
196.512
196.508
196.503
196.499
196.495
196.491
196.486
196.482
196.478
196.474
196.47
196.467
196.463
196.459
196.455
196.452
196.448
196.444
196.441
196.437
196.434
196.431
196.427
196.424
196.421
196.418
196.414
196.411
196.408
196.405
196.402
196.399
196.396
196.393
196.39
196.388
196.385
196.382
196.38
196.377
196.374
196.372
196.369
196.367
196.364
196.362
196.36
196.357
196.355
196.353
196.35
196.348
196.346
196.344
196.341
196.339
196.337
196.335
196.333
196.331
196.329
196.327
196.325
196.323
196.321
196.318
196.317
196.315
196.313
196.311
196.309
196.307
196.305
196.303
196.301
196.299
196.297
196.295
196.293
196.291
196.289
196.287
196.285
196.284
196.282
196.28
196.278
196.276
196.274
196.272
196.27
196.268
196.266
196.264
196.262
196.26
196.258
196.257
196.255
196.253
196.251
196.249
196.247
196.245
196.243
196.241
196.239
196.237
196.235
196.233
196.231
196.229
196.227
196.225
196.223
196.221
196.219
196.217
196.215
196.213
196.211
196.209
196.207
196.205
196.203
196.201
196.199
196.197
196.195
196.193
196.191
196.188
196.186
196.184
196.182
196.18
196.178
196.176
196.174
196.171
196.169
196.167
196.165
196.163
196.161
196.158
196.156
196.154
196.152
196.15
196.147
196.145
196.143
196.141
196.138
196.136
196.134
196.131
196.129
196.127
196.124
196.122
196.12
196.117
196.115
196.113
196.11
196.108
196.106
196.103
196.101
196.098
196.096
196.093
196.091
196.088
196.086
196.083
196.081
196.078
196.076
196.073
196.071
196.068
196.066
196.063
196.061
196.058
196.055
196.053
196.05
196.047
196.045
196.042
196.039
196.037
196.034
196.031
196.029
196.026
196.023
196.02
196.018
196.015
196.012
196.009
196.006
196.004
196.001
195.998
195.995
195.992
195.989
195.986
195.983
195.981
195.978
195.975
195.972
195.969
195.966
195.963
195.96
195.957
195.954
195.951
195.948
195.945
195.942
195.938
195.935
195.932
195.929
195.926
195.923
195.92
195.917
195.913
195.91
195.907
195.904
195.901
195.897
195.894
195.891
195.888
195.884
195.881
195.878
195.874
195.871
195.868
195.864
195.861
195.858
195.854
195.851
195.847
195.844
195.84
195.837
195.834
195.83
195.827
195.823
195.82
195.816
195.812
195.809
195.805
195.802
195.798
195.795
195.791
195.787
195.784
195.78
195.776
195.773
195.769
195.765
195.762
195.758
195.754
195.751
195.747
195.743
195.739
195.735
195.732
195.728
195.724
195.72
195.716
195.712
195.709
195.705
195.701
195.697
195.693
195.689
195.685
195.681
195.677
195.673
195.669
195.665
195.661
195.657
195.653
195.649
195.645
195.641
195.637
195.633
195.629
195.625
195.62
195.616
195.612
195.608
195.604
195.6
195.595
195.591
195.587
195.583
195.578
195.574
195.57
195.566
195.561
195.557
195.553
195.548
195.544
195.54
195.535
195.531
195.526
195.522
195.518
195.513
195.509
195.504
195.5
195.495
195.491
195.486
195.482
195.477
195.473
195.468
195.464
195.459
195.454
195.45
195.445
0.5
197.091
197.091
196.861
196.794
196.768
196.753
196.741
196.73
196.72
196.711
196.702
196.694
196.685
196.677
196.669
196.662
196.654
196.647
196.64
196.633
196.626
196.619
196.613
196.607
196.601
196.595
196.589
196.583
196.577
196.572
196.566
196.561
196.556
196.55
196.545
196.54
196.535
196.531
196.526
196.521
196.517
196.512
196.508
196.503
196.499
196.495
196.491
196.486
196.482
196.478
196.474
196.47
196.467
196.463
196.459
196.455
196.452
196.448
196.444
196.441
196.437
196.434
196.431
196.427
196.424
196.421
196.418
196.414
196.411
196.408
196.405
196.402
196.399
196.396
196.393
196.39
196.388
196.385
196.382
196.38
196.377
196.374
196.372
196.369
196.367
196.364
196.362
196.36
196.357
196.355
196.353
196.35
196.348
196.346
196.344
196.341
196.339
196.337
196.335
196.333
196.331
196.329
196.327
196.325
196.323
196.321
196.318
196.317
196.315
196.313
196.311
196.309
196.307
196.305
196.303
196.301
196.299
196.297
196.295
196.293
196.291
196.289
196.287
196.285
196.284
196.282
196.28
196.278
196.276
196.274
196.272
196.27
196.268
196.266
196.264
196.262
196.26
196.258
196.257
196.255
196.253
196.251
196.249
196.247
196.245
196.243
196.241
196.239
196.237
196.235
196.233
196.231
196.229
196.227
196.225
196.223
196.221
196.219
196.217
196.215
196.213
196.211
196.209
196.207
196.205
196.203
196.201
196.199
196.197
196.195
196.193
196.191
196.188
196.186
196.184
196.182
196.18
196.178
196.176
196.174
196.171
196.169
196.167
196.165
196.163
196.161
196.158
196.156
196.154
196.152
196.15
196.147
196.145
196.143
196.141
196.138
196.136
196.134
196.131
196.129
196.127
196.124
196.122
196.12
196.117
196.115
196.113
196.11
196.108
196.106
196.103
196.101
196.098
196.096
196.093
196.091
196.088
196.086
196.083
196.081
196.078
196.076
196.073
196.071
196.068
196.066
196.063
196.061
196.058
196.055
196.053
196.05
196.047
196.045
196.042
196.039
196.037
196.034
196.031
196.029
196.026
196.023
196.02
196.018
196.015
196.012
196.009
196.006
196.004
196.001
195.998
195.995
195.992
195.989
195.986
195.983
195.981
195.978
195.975
195.972
195.969
195.966
195.963
195.96
195.957
195.954
195.951
195.948
195.945
195.942
195.938
195.935
195.932
195.929
195.926
195.923
195.92
195.917
195.913
195.91
195.907
195.904
195.901
195.897
195.894
195.891
195.888
195.884
195.881
195.878
195.874
195.871
195.868
195.864
195.861
195.858
195.854
195.851
195.847
195.844
195.84
195.837
195.834
195.83
195.827
195.823
195.82
195.816
195.812
195.809
195.805
195.802
195.798
195.795
195.791
195.787
195.784
195.78
195.776
195.773
195.769
195.765
195.762
195.758
195.754
195.751
195.747
195.743
195.739
195.735
195.732
195.728
195.724
195.72
195.716
195.712
195.709
195.705
195.701
195.697
195.693
195.689
195.685
195.681
195.677
195.673
195.669
195.665
195.661
195.657
195.653
195.649
195.645
195.641
195.637
195.633
195.629
195.625
195.62
195.616
195.612
195.608
195.604
195.6
195.595
195.591
195.587
195.583
195.578
195.574
195.57
195.566
195.561
195.557
195.553
195.548
195.544
195.54
195.535
195.531
195.526
195.522
195.518
195.513
195.509
195.504
195.5
195.495
195.491
195.486
195.482
195.477
195.473
195.468
195.464
195.459
195.454
195.45
195.445
195.445
197.041
197.041
196.866
196.798
196.771
196.755
196.742
196.731
196.721
196.712
196.703
196.694
196.686
196.677
196.669
196.662
196.654
196.647
196.64
196.633
196.626
196.62
196.613
196.607
196.601
196.595
196.589
196.583
196.577
196.572
196.566
196.561
196.556
196.55
196.545
196.54
196.536
196.531
196.526
196.521
196.517
196.512
196.508
196.503
196.499
196.495
196.491
196.486
196.482
196.478
196.474
196.47
196.467
196.463
196.459
196.455
196.452
196.448
196.445
196.441
196.438
196.434
196.431
196.427
196.424
196.421
196.418
196.414
196.411
196.408
196.405
196.402
196.399
196.396
196.393
196.391
196.388
196.385
196.382
196.38
196.377
196.374
196.372
196.369
196.367
196.364
196.362
196.36
196.357
196.355
196.353
196.35
196.348
196.346
196.344
196.341
196.339
196.337
196.335
196.333
196.331
196.329
196.327
196.325
196.323
196.321
196.319
196.317
196.315
196.313
196.311
196.309
196.307
196.305
196.303
196.301
196.299
196.297
196.295
196.293
196.291
196.289
196.287
196.285
196.284
196.282
196.28
196.278
196.276
196.274
196.272
196.27
196.268
196.266
196.264
196.262
196.26
196.258
196.257
196.255
196.253
196.251
196.249
196.247
196.245
196.243
196.241
196.239
196.237
196.235
196.233
196.231
196.229
196.227
196.225
196.223
196.221
196.219
196.217
196.215
196.213
196.211
196.209
196.207
196.205
196.203
196.201
196.199
196.197
196.195
196.193
196.191
196.188
196.186
196.184
196.182
196.18
196.178
196.176
196.174
196.171
196.169
196.167
196.165
196.163
196.161
196.158
196.156
196.154
196.152
196.15
196.147
196.145
196.143
196.141
196.138
196.136
196.134
196.131
196.129
196.127
196.124
196.122
196.12
196.117
196.115
196.113
196.11
196.108
196.106
196.103
196.101
196.098
196.096
196.093
196.091
196.088
196.086
196.083
196.081
196.078
196.076
196.073
196.071
196.068
196.066
196.063
196.061
196.058
196.055
196.053
196.05
196.047
196.045
196.042
196.039
196.037
196.034
196.031
196.029
196.026
196.023
196.02
196.018
196.015
196.012
196.009
196.006
196.004
196.001
195.998
195.995
195.992
195.989
195.986
195.983
195.981
195.978
195.975
195.972
195.969
195.966
195.963
195.96
195.957
195.954
195.951
195.948
195.945
195.942
195.938
195.935
195.932
195.929
195.926
195.923
195.92
195.917
195.913
195.91
195.907
195.904
195.901
195.897
195.894
195.891
195.888
195.884
195.881
195.878
195.874
195.871
195.868
195.864
195.861
195.858
195.854
195.851
195.847
195.844
195.84
195.837
195.834
195.83
195.827
195.823
195.82
195.816
195.812
195.809
195.805
195.802
195.798
195.795
195.791
195.787
195.784
195.78
195.776
195.773
195.769
195.765
195.762
195.758
195.754
195.751
195.747
195.743
195.739
195.735
195.732
195.728
195.724
195.72
195.716
195.712
195.709
195.705
195.701
195.697
195.693
195.689
195.685
195.681
195.677
195.673
195.669
195.665
195.661
195.657
195.653
195.649
195.645
195.641
195.637
195.633
195.629
195.625
195.62
195.616
195.612
195.608
195.604
195.6
195.595
195.591
195.587
195.583
195.578
195.574
195.57
195.566
195.561
195.557
195.553
195.548
195.544
195.54
195.535
195.531
195.526
195.522
195.518
195.513
195.509
195.504
195.5
195.495
195.491
195.486
195.482
195.477
195.473
195.468
195.464
195.459
195.454
195.45
195.445
195.445
197.001
197.001
196.868
196.803
196.774
196.756
196.743
196.732
196.722
196.712
196.703
196.694
196.686
196.678
196.67
196.662
196.654
196.647
196.64
196.633
196.626
196.62
196.613
196.607
196.601
196.595
196.589
196.583
196.577
196.572
196.566
196.561
196.556
196.551
196.545
196.54
196.536
196.531
196.526
196.521
196.517
196.512
196.508
196.503
196.499
196.495
196.491
196.486
196.482
196.478
196.474
196.471
196.467
196.463
196.459
196.455
196.452
196.448
196.445
196.441
196.438
196.434
196.431
196.427
196.424
196.421
196.418
196.414
196.411
196.408
196.405
196.402
196.399
196.396
196.393
196.391
196.388
196.385
196.382
196.38
196.377
196.374
196.372
196.369
196.367
196.364
196.362
196.36
196.357
196.355
196.353
196.35
196.348
196.346
196.344
196.341
196.339
196.337
196.335
196.333
196.331
196.329
196.327
196.325
196.323
196.321
196.319
196.317
196.315
196.313
196.311
196.309
196.307
196.305
196.303
196.301
196.299
196.297
196.295
196.293
196.291
196.289
196.287
196.285
196.284
196.282
196.28
196.278
196.276
196.274
196.272
196.27
196.268
196.266
196.264
196.262
196.26
196.258
196.257
196.255
196.253
196.251
196.249
196.247
196.245
196.243
196.241
196.239
196.237
196.235
196.233
196.231
196.229
196.227
196.225
196.223
196.221
196.219
196.217
196.215
196.213
196.211
196.209
196.207
196.205
196.203
196.201
196.199
196.197
196.195
196.193
196.191
196.188
196.186
196.184
196.182
196.18
196.178
196.176
196.174
196.171
196.169
196.167
196.165
196.163
196.161
196.158
196.156
196.154
196.152
196.15
196.147
196.145
196.143
196.141
196.138
196.136
196.134
196.131
196.129
196.127
196.124
196.122
196.12
196.117
196.115
196.113
196.11
196.108
196.106
196.103
196.101
196.098
196.096
196.093
196.091
196.088
196.086
196.083
196.081
196.078
196.076
196.073
196.071
196.068
196.066
196.063
196.061
196.058
196.055
196.053
196.05
196.047
196.045
196.042
196.039
196.037
196.034
196.031
196.029
196.026
196.023
196.02
196.018
196.015
196.012
196.009
196.006
196.004
196.001
195.998
195.995
195.992
195.989
195.986
195.983
195.981
195.978
195.975
195.972
195.969
195.966
195.963
195.96
195.957
195.954
195.951
195.948
195.945
195.942
195.938
195.935
195.932
195.929
195.926
195.923
195.92
195.917
195.913
195.91
195.907
195.904
195.901
195.897
195.894
195.891
195.888
195.884
195.881
195.878
195.874
195.871
195.868
195.864
195.861
195.858
195.854
195.851
195.847
195.844
195.84
195.837
195.834
195.83
195.827
195.823
195.82
195.816
195.812
195.809
195.805
195.802
195.798
195.795
195.791
195.787
195.784
195.78
195.776
195.773
195.769
195.765
195.762
195.758
195.754
195.751
195.747
195.743
195.739
195.735
195.732
195.728
195.724
195.72
195.716
195.712
195.709
195.705
195.701
195.697
195.693
195.689
195.685
195.681
195.677
195.673
195.669
195.665
195.661
195.657
195.653
195.649
195.645
195.641
195.637
195.633
195.629
195.625
195.62
195.616
195.612
195.608
195.604
195.6
195.595
195.591
195.587
195.583
195.578
195.574
195.57
195.566
195.561
195.557
195.553
195.548
195.544
195.54
195.535
195.531
195.526
195.522
195.518
195.513
195.509
195.504
195.5
195.495
195.491
195.486
195.482
195.477
195.473
195.468
195.464
195.459
195.454
195.45
195.445
195.445
196.97
196.97
196.869
196.808
196.777
196.759
196.745
196.733
196.723
196.713
196.704
196.695
196.686
196.678
196.67
196.662
196.655
196.647
196.64
196.633
196.626
196.62
196.613
196.607
196.601
196.595
196.589
196.583
196.577
196.572
196.566
196.561
196.556
196.551
196.545
196.541
196.536
196.531
196.526
196.521
196.517
196.512
196.508
196.503
196.499
196.495
196.491
196.487
196.482
196.478
196.474
196.471
196.467
196.463
196.459
196.455
196.452
196.448
196.445
196.441
196.438
196.434
196.431
196.427
196.424
196.421
196.418
196.414
196.411
196.408
196.405
196.402
196.399
196.396
196.393
196.391
196.388
196.385
196.382
196.38
196.377
196.374
196.372
196.369
196.367
196.364
196.362
196.36
196.357
196.355
196.353
196.35
196.348
196.346
196.344
196.341
196.339
196.337
196.335
196.333
196.331
196.329
196.327
196.325
196.323
196.321
196.319
196.317
196.315
196.313
196.311
196.309
196.307
196.305
196.303
196.301
196.299
196.297
196.295
196.293
196.291
196.289
196.287
196.285
196.284
196.282
196.28
196.278
196.276
196.274
196.272
196.27
196.268
196.266
196.264
196.262
196.26
196.258
196.257
196.255
196.253
196.251
196.249
196.247
196.245
196.243
196.241
196.239
196.237
196.235
196.233
196.231
196.229
196.227
196.225
196.223
196.221
196.219
196.217
196.215
196.213
196.211
196.209
196.207
196.205
196.203
196.201
196.199
196.197
196.195
196.193
196.191
196.188
196.186
196.184
196.182
196.18
196.178
196.176
196.174
196.171
196.169
196.167
196.165
196.163
196.161
196.158
196.156
196.154
196.152
196.15
196.147
196.145
196.143
196.141
196.138
196.136
196.134
196.131
196.129
196.127
196.124
196.122
196.12
196.117
196.115
196.113
196.11
196.108
196.106
196.103
196.101
196.098
196.096
196.093
196.091
196.088
196.086
196.083
196.081
196.078
196.076
196.073
196.071
196.068
196.066
196.063
196.061
196.058
196.055
196.053
196.05
196.047
196.045
196.042
196.039
196.037
196.034
196.031
196.029
196.026
196.023
196.02
196.018
196.015
196.012
196.009
196.006
196.004
196.001
195.998
195.995
195.992
195.989
195.986
195.983
195.981
195.978
195.975
195.972
195.969
195.966
195.963
195.96
195.957
195.954
195.951
195.948
195.945
195.942
195.938
195.935
195.932
195.929
195.926
195.923
195.92
195.917
195.913
195.91
195.907
195.904
195.901
195.897
195.894
195.891
195.888
195.884
195.881
195.878
195.874
195.871
195.868
195.864
195.861
195.858
195.854
195.851
195.847
195.844
195.84
195.837
195.834
195.83
195.827
195.823
195.82
195.816
195.812
195.809
195.805
195.802
195.798
195.795
195.791
195.787
195.784
195.78
195.776
195.773
195.769
195.765
195.762
195.758
195.754
195.751
195.747
195.743
195.739
195.735
195.732
195.728
195.724
195.72
195.716
195.712
195.709
195.705
195.701
195.697
195.693
195.689
195.685
195.681
195.677
195.673
195.669
195.665
195.661
195.657
195.653
195.649
195.645
195.641
195.637
195.633
195.629
195.625
195.62
195.616
195.612
195.608
195.604
195.6
195.595
195.591
195.587
195.583
195.578
195.574
195.57
195.566
195.561
195.557
195.553
195.548
195.544
195.54
195.535
195.531
195.526
195.522
195.518
195.513
195.509
195.504
195.5
195.495
195.491
195.486
195.482
195.477
195.473
195.468
195.464
195.459
195.454
195.45
195.445
195.445
196.944
196.944
196.867
196.812
196.781
196.761
196.746
196.734
196.723
196.713
196.704
196.695
196.686
196.678
196.67
196.662
196.655
196.647
196.64
196.633
196.627
196.62
196.613
196.607
196.601
196.595
196.589
196.583
196.577
196.572
196.566
196.561
196.556
196.551
196.546
196.541
196.536
196.531
196.526
196.521
196.517
196.512
196.508
196.503
196.499
196.495
196.491
196.487
196.482
196.478
196.474
196.471
196.467
196.463
196.459
196.455
196.452
196.448
196.445
196.441
196.438
196.434
196.431
196.427
196.424
196.421
196.418
196.414
196.411
196.408
196.405
196.402
196.399
196.396
196.393
196.391
196.388
196.385
196.382
196.38
196.377
196.374
196.372
196.369
196.367
196.364
196.362
196.36
196.357
196.355
196.353
196.35
196.348
196.346
196.344
196.341
196.339
196.337
196.335
196.333
196.331
196.329
196.327
196.325
196.323
196.321
196.319
196.317
196.315
196.313
196.311
196.309
196.307
196.305
196.303
196.301
196.299
196.297
196.295
196.293
196.291
196.289
196.287
196.285
196.284
196.282
196.28
196.278
196.276
196.274
196.272
196.27
196.268
196.266
196.264
196.262
196.26
196.258
196.257
196.255
196.253
196.251
196.249
196.247
196.245
196.243
196.241
196.239
196.237
196.235
196.233
196.231
196.229
196.227
196.225
196.223
196.221
196.219
196.217
196.215
196.213
196.211
196.209
196.207
196.205
196.203
196.201
196.199
196.197
196.195
196.193
196.191
196.188
196.186
196.184
196.182
196.18
196.178
196.176
196.174
196.171
196.169
196.167
196.165
196.163
196.161
196.158
196.156
196.154
196.152
196.15
196.147
196.145
196.143
196.141
196.138
196.136
196.134
196.131
196.129
196.127
196.124
196.122
196.12
196.117
196.115
196.113
196.11
196.108
196.106
196.103
196.101
196.098
196.096
196.093
196.091
196.088
196.086
196.083
196.081
196.078
196.076
196.073
196.071
196.068
196.066
196.063
196.061
196.058
196.055
196.053
196.05
196.047
196.045
196.042
196.039
196.037
196.034
196.031
196.029
196.026
196.023
196.02
196.018
196.015
196.012
196.009
196.006
196.004
196.001
195.998
195.995
195.992
195.989
195.986
195.983
195.981
195.978
195.975
195.972
195.969
195.966
195.963
195.96
195.957
195.954
195.951
195.948
195.945
195.942
195.938
195.935
195.932
195.929
195.926
195.923
195.92
195.917
195.913
195.91
195.907
195.904
195.901
195.897
195.894
195.891
195.888
195.884
195.881
195.878
195.874
195.871
195.868
195.864
195.861
195.858
195.854
195.851
195.847
195.844
195.84
195.837
195.834
195.83
195.827
195.823
195.82
195.816
195.812
195.809
195.805
195.802
195.798
195.795
195.791
195.787
195.784
195.78
195.776
195.773
195.769
195.765
195.762
195.758
195.754
195.751
195.747
195.743
195.739
195.735
195.732
195.728
195.724
195.72
195.716
195.712
195.709
195.705
195.701
195.697
195.693
195.689
195.685
195.681
195.677
195.673
195.669
195.665
195.661
195.657
195.653
195.649
195.645
195.641
195.637
195.633
195.629
195.625
195.62
195.616
195.612
195.608
195.604
195.6
195.595
195.591
195.587
195.583
195.578
195.574
195.57
195.566
195.561
195.557
195.553
195.548
195.544
195.54
195.535
195.531
195.526
195.522
195.518
195.513
195.509
195.504
195.5
195.495
195.491
195.486
195.482
195.477
195.473
195.468
195.464
195.459
195.454
195.45
195.445
195.445
196.923
196.923
196.863
196.815
196.784
196.764
196.748
196.736
196.725
196.714
196.705
196.696
196.687
196.679
196.67
196.663
196.655
196.648
196.64
196.633
196.627
196.62
196.614
196.607
196.601
196.595
196.589
196.583
196.578
196.572
196.566
196.561
196.556
196.551
196.546
196.541
196.536
196.531
196.526
196.521
196.517
196.512
196.508
196.503
196.499
196.495
196.491
196.487
196.482
196.478
196.474
196.471
196.467
196.463
196.459
196.455
196.452
196.448
196.445
196.441
196.438
196.434
196.431
196.427
196.424
196.421
196.418
196.414
196.411
196.408
196.405
196.402
196.399
196.396
196.393
196.391
196.388
196.385
196.382
196.38
196.377
196.374
196.372
196.369
196.367
196.364
196.362
196.36
196.357
196.355
196.353
196.35
196.348
196.346
196.344
196.341
196.339
196.337
196.335
196.333
196.331
196.329
196.327
196.325
196.323
196.321
196.319
196.317
196.315
196.313
196.311
196.309
196.307
196.305
196.303
196.301
196.299
196.297
196.295