# vtk DataFile Version 2.0
FlowField
ASCII
DATASET STRUCTURED_GRID
DIMENSIONS 400 1 50
POINTS 20000 float
0 0 0
0.08 0 0
0.16 0 0
0.24 0 0
0.32 0 0
0.4 0 0
0.48 0 0
0.56 0 0
0.64 0 0
0.72 0 0
0.8 0 0
0.88 0 0
0.96 0 0
1.04 0 0
1.12 0 0
1.2 0 0
1.28 0 0
1.36 0 0
1.44 0 0
1.52 0 0
1.6 0 0
1.68 0 0
1.76 0 0
1.84 0 0
1.92 0 0
2 0 0
2.08 0 0
2.16 0 0
2.24 0 0
2.32 0 0
2.4 0 0
2.48 0 0
2.56 0 0
2.64 0 0
2.72 0 0
2.8 0 0
2.88 0 0
2.96 0 0
3.04 0 0
3.12 0 0
3.2 0 0
3.28 0 0
3.36 0 0
3.44 0 0
3.52 0 0
3.6 0 0
3.68 0 0
3.76 0 0
3.84 0 0
3.92 0 0
4 0 0
4.08 0 0
4.16 0 0
4.24 0 0
4.32 0 0
4.4 0 0
4.48 0 0
4.56 0 0
4.64 0 0
4.72 0 0
4.8 0 0
4.88 0 0
4.96 0 0
5.04 0 0
5.12 0 0
5.2 0 0
5.28 0 0
5.36 0 0
5.44 0 0
5.52 0 0
5.6 0 0
5.68 0 0
5.76 0 0
5.84 0 0
5.92 0 0
6 0 0
6.08 0 0
6.16 0 0
6.24 0 0
6.32 0 0
6.4 0 0
6.48 0 0
6.56 0 0
6.64 0 0
6.72 0 0
6.8 0 0
6.88 0 0
6.96 0 0
7.04 0 0
7.12 0 0
7.2 0 0
7.28 0 0
7.36 0 0
7.44 0 0
7.52 0 0
7.6 0 0
7.68 0 0
7.76 0 0
7.84 0 0
7.92 0 0
8 0 0
8.08 0 0
8.16 0 0
8.24 0 0
8.32 0 0
8.4 0 0
8.48 0 0
8.56 0 0
8.64 0 0
8.72 0 0
8.8 0 0
8.88 0 0
8.96 0 0
9.04 0 0
9.12 0 0
9.2 0 0
9.28 0 0
9.36 0 0
9.44 0 0
9.52 0 0
9.6 0 0
9.68 0 0
9.76 0 0
9.84 0 0
9.92 0 0
10 0 0
10.08 0 0
10.16 0 0
10.24 0 0
10.32 0 0
10.4 0 0
10.48 0 0
10.56 0 0
10.64 0 0
10.72 0 0
10.8 0 0
10.88 0 0
10.96 0 0
11.04 0 0
11.12 0 0
11.2 0 0
11.28 0 0
11.36 0 0
11.44 0 0
11.52 0 0
11.6 0 0
11.68 0 0
11.76 0 0
11.84 0 0
11.92 0 0
12 0 0
12.08 0 0
12.16 0 0
12.24 0 0
12.32 0 0
12.4 0 0
12.48 0 0
12.56 0 0
12.64 0 0
12.72 0 0
12.8 0 0
12.88 0 0
12.96 0 0
13.04 0 0
13.12 0 0
13.2 0 0
13.28 0 0
13.36 0 0
13.44 0 0
13.52 0 0
13.6 0 0
13.68 0 0
13.76 0 0
13.84 0 0
13.92 0 0
14 0 0
14.08 0 0
14.16 0 0
14.24 0 0
14.32 0 0
14.4 0 0
14.48 0 0
14.56 0 0
14.64 0 0
14.72 0 0
14.8 0 0
14.88 0 0
14.96 0 0
15.04 0 0
15.12 0 0
15.2 0 0
15.28 0 0
15.36 0 0
15.44 0 0
15.52 0 0
15.6 0 0
15.68 0 0
15.76 0 0
15.84 0 0
15.92 0 0
16 0 0
16.08 0 0
16.16 0 0
16.24 0 0
16.32 0 0
16.4 0 0
16.48 0 0
16.56 0 0
16.64 0 0
16.72 0 0
16.8 0 0
16.88 0 0
16.96 0 0
17.04 0 0
17.12 0 0
17.2 0 0
17.28 0 0
17.36 0 0
17.44 0 0
17.52 0 0
17.6 0 0
17.68 0 0
17.76 0 0
17.84 0 0
17.92 0 0
18 0 0
18.08 0 0
18.16 0 0
18.24 0 0
18.32 0 0
18.4 0 0
18.48 0 0
18.56 0 0
18.64 0 0
18.72 0 0
18.8 0 0
18.88 0 0
18.96 0 0
19.04 0 0
19.12 0 0
19.2 0 0
19.28 0 0
19.36 0 0
19.44 0 0
19.52 0 0
19.6 0 0
19.68 0 0
19.76 0 0
19.84 0 0
19.92 0 0
20 0 0
20.08 0 0
20.16 0 0
20.24 0 0
20.32 0 0
20.4 0 0
20.48 0 0
20.56 0 0
20.64 0 0
20.72 0 0
20.8 0 0
20.88 0 0
20.96 0 0
21.04 0 0
21.12 0 0
21.2 0 0
21.28 0 0
21.36 0 0
21.44 0 0
21.52 0 0
21.6 0 0
21.68 0 0
21.76 0 0
21.84 0 0
21.92 0 0
22 0 0
22.08 0 0
22.16 0 0
22.24 0 0
22.32 0 0
22.4 0 0
22.48 0 0
22.56 0 0
22.64 0 0
22.72 0 0
22.8 0 0
22.88 0 0
22.96 0 0
23.04 0 0
23.12 0 0
23.2 0 0
23.28 0 0
23.36 0 0
23.44 0 0
23.52 0 0
23.6 0 0
23.68 0 0
23.76 0 0
23.84 0 0
23.92 0 0
24 0 0
24.08 0 0
24.16 0 0
24.24 0 0
24.32 0 0
24.4 0 0
24.48 0 0
24.56 0 0
24.64 0 0
24.72 0 0
24.8 0 0
24.88 0 0
24.96 0 0
25.04 0 0
25.12 0 0
25.2 0 0
25.28 0 0
25.36 0 0
25.44 0 0
25.52 0 0
25.6 0 0
25.68 0 0
25.76 0 0
25.84 0 0
25.92 0 0
26 0 0
26.08 0 0
26.16 0 0
26.24 0 0
26.32 0 0
26.4 0 0
26.48 0 0
26.56 0 0
26.64 0 0
26.72 0 0
26.8 0 0
26.88 0 0
26.96 0 0
27.04 0 0
27.12 0 0
27.2 0 0
27.28 0 0
27.36 0 0
27.44 0 0
27.52 0 0
27.6 0 0
27.68 0 0
27.76 0 0
27.84 0 0
27.92 0 0
28 0 0
28.08 0 0
28.16 0 0
28.24 0 0
28.32 0 0
28.4 0 0
28.48 0 0
28.56 0 0
28.64 0 0
28.72 0 0
28.8 0 0
28.88 0 0
28.96 0 0
29.04 0 0
29.12 0 0
29.2 0 0
29.28 0 0
29.36 0 0
29.44 0 0
29.52 0 0
29.6 0 0
29.68 0 0
29.76 0 0
29.84 0 0
29.92 0 0
30 0 0
30.08 0 0
30.16 0 0
30.24 0 0
30.32 0 0
30.4 0 0
30.48 0 0
30.56 0 0
30.64 0 0
30.72 0 0
30.8 0 0
30.88 0 0
30.96 0 0
31.04 0 0
31.12 0 0
31.2 0 0
31.28 0 0
31.36 0 0
31.44 0 0
31.52 0 0
31.6 0 0
31.68 0 0
31.76 0 0
31.84 0 0
31.92 0 0
0 0.02 0
0.08 0.02 0
0.16 0.02 0
0.24 0.02 0
0.32 0.02 0
0.4 0.02 0
0.48 0.02 0
0.56 0.02 0
0.64 0.02 0
0.72 0.02 0
0.8 0.02 0
0.88 0.02 0
0.96 0.02 0
1.04 0.02 0
1.12 0.02 0
1.2 0.02 0
1.28 0.02 0
1.36 0.02 0
1.44 0.02 0
1.52 0.02 0
1.6 0.02 0
1.68 0.02 0
1.76 0.02 0
1.84 0.02 0
1.92 0.02 0
2 0.02 0
2.08 0.02 0
2.16 0.02 0
2.24 0.02 0
2.32 0.02 0
2.4 0.02 0
2.48 0.02 0
2.56 0.02 0
2.64 0.02 0
2.72 0.02 0
2.8 0.02 0
2.88 0.02 0
2.96 0.02 0
3.04 0.02 0
3.12 0.02 0
3.2 0.02 0
3.28 0.02 0
3.36 0.02 0
3.44 0.02 0
3.52 0.02 0
3.6 0.02 0
3.68 0.02 0
3.76 0.02 0
3.84 0.02 0
3.92 0.02 0
4 0.02 0
4.08 0.02 0
4.16 0.02 0
4.24 0.02 0
4.32 0.02 0
4.4 0.02 0
4.48 0.02 0
4.56 0.02 0
4.64 0.02 0
4.72 0.02 0
4.8 0.02 0
4.88 0.02 0
4.96 0.02 0
5.04 0.02 0
5.12 0.02 0
5.2 0.02 0
5.28 0.02 0
5.36 0.02 0
5.44 0.02 0
5.52 0.02 0
5.6 0.02 0
5.68 0.02 0
5.76 0.02 0
5.84 0.02 0
5.92 0.02 0
6 0.02 0
6.08 0.02 0
6.16 0.02 0
6.24 0.02 0
6.32 0.02 0
6.4 0.02 0
6.48 0.02 0
6.56 0.02 0
6.64 0.02 0
6.72 0.02 0
6.8 0.02 0
6.88 0.02 0
6.96 0.02 0
7.04 0.02 0
7.12 0.02 0
7.2 0.02 0
7.28 0.02 0
7.36 0.02 0
7.44 0.02 0
7.52 0.02 0
7.6 0.02 0
7.68 0.02 0
7.76 0.02 0
7.84 0.02 0
7.92 0.02 0
8 0.02 0
8.08 0.02 0
8.16 0.02 0
8.24 0.02 0
8.32 0.02 0
8.4 0.02 0
8.48 0.02 0
8.56 0.02 0
8.64 0.02 0
8.72 0.02 0
8.8 0.02 0
8.88 0.02 0
8.96 0.02 0
9.04 0.02 0
9.12 0.02 0
9.2 0.02 0
9.28 0.02 0
9.36 0.02 0
9.44 0.02 0
9.52 0.02 0
9.6 0.02 0
9.68 0.02 0
9.76 0.02 0
9.84 0.02 0
9.92 0.02 0
10 0.02 0
10.08 0.02 0
10.16 0.02 0
10.24 0.02 0
10.32 0.02 0
10.4 0.02 0
10.48 0.02 0
10.56 0.02 0
10.64 0.02 0
10.72 0.02 0
10.8 0.02 0
10.88 0.02 0
10.96 0.02 0
11.04 0.02 0
11.12 0.02 0
11.2 0.02 0
11.28 0.02 0
11.36 0.02 0
11.44 0.02 0
11.52 0.02 0
11.6 0.02 0
11.68 0.02 0
11.76 0.02 0
11.84 0.02 0
11.92 0.02 0
12 0.02 0
12.08 0.02 0
12.16 0.02 0
12.24 0.02 0
12.32 0.02 0
12.4 0.02 0
12.48 0.02 0
12.56 0.02 0
12.64 0.02 0
12.72 0.02 0
12.8 0.02 0
12.88 0.02 0
12.96 0.02 0
13.04 0.02 0
13.12 0.02 0
13.2 0.02 0
13.28 0.02 0
13.36 0.02 0
13.44 0.02 0
13.52 0.02 0
13.6 0.02 0
13.68 0.02 0
13.76 0.02 0
13.84 0.02 0
13.92 0.02 0
14 0.02 0
14.08 0.02 0
14.16 0.02 0
14.24 0.02 0
14.32 0.02 0
14.4 0.02 0
14.48 0.02 0
14.56 0.02 0
14.64 0.02 0
14.72 0.02 0
14.8 0.02 0
14.88 0.02 0
14.96 0.02 0
15.04 0.02 0
15.12 0.02 0
15.2 0.02 0
15.28 0.02 0
15.36 0.02 0
15.44 0.02 0
15.52 0.02 0
15.6 0.02 0
15.68 0.02 0
15.76 0.02 0
15.84 0.02 0
15.92 0.02 0
16 0.02 0
16.08 0.02 0
16.16 0.02 0
16.24 0.02 0
16.32 0.02 0
16.4 0.02 0
16.48 0.02 0
16.56 0.02 0
16.64 0.02 0
16.72 0.02 0
16.8 0.02 0
16.88 0.02 0
16.96 0.02 0
17.04 0.02 0
17.12 0.02 0
17.2 0.02 0
17.28 0.02 0
17.36 0.02 0
17.44 0.02 0
17.52 0.02 0
17.6 0.02 0
17.68 0.02 0
17.76 0.02 0
17.84 0.02 0
17.92 0.02 0
18 0.02 0
18.08 0.02 0
18.16 0.02 0
18.24 0.02 0
18.32 0.02 0
18.4 0.02 0
18.48 0.02 0
18.56 0.02 0
18.64 0.02 0
18.72 0.02 0
18.8 0.02 0
18.88 0.02 0
18.96 0.02 0
19.04 0.02 0
19.12 0.02 0
19.2 0.02 0
19.28 0.02 0
19.36 0.02 0
19.44 0.02 0
19.52 0.02 0
19.6 0.02 0
19.68 0.02 0
19.76 0.02 0
19.84 0.02 0
19.92 0.02 0
20 0.02 0
20.08 0.02 0
20.16 0.02 0
20.24 0.02 0
20.32 0.02 0
20.4 0.02 0
20.48 0.02 0
20.56 0.02 0
20.64 0.02 0
20.72 0.02 0
20.8 0.02 0
20.88 0.02 0
20.96 0.02 0
21.04 0.02 0
21.12 0.02 0
21.2 0.02 0
21.28 0.02 0
21.36 0.02 0
21.44 0.02 0
21.52 0.02 0
21.6 0.02 0
21.68 0.02 0
21.76 0.02 0
21.84 0.02 0
21.92 0.02 0
22 0.02 0
22.08 0.02 0
22.16 0.02 0
22.24 0.02 0
22.32 0.02 0
22.4 0.02 0
22.48 0.02 0
22.56 0.02 0
22.64 0.02 0
22.72 0.02 0
22.8 0.02 0
22.88 0.02 0
22.96 0.02 0
23.04 0.02 0
23.12 0.02 0
23.2 0.02 0
23.28 0.02 0
23.36 0.02 0
23.44 0.02 0
23.52 0.02 0
23.6 0.02 0
23.68 0.02 0
23.76 0.02 0
23.84 0.02 0
23.92 0.02 0
24 0.02 0
24.08 0.02 0
24.16 0.02 0
24.24 0.02 0
24.32 0.02 0
24.4 0.02 0
24.48 0.02 0
24.56 0.02 0
24.64 0.02 0
24.72 0.02 0
24.8 0.02 0
24.88 0.02 0
24.96 0.02 0
25.04 0.02 0
25.12 0.02 0
25.2 0.02 0
25.28 0.02 0
25.36 0.02 0
25.44 0.02 0
25.52 0.02 0
25.6 0.02 0
25.68 0.02 0
25.76 0.02 0
25.84 0.02 0
25.92 0.02 0
26 0.02 0
26.08 0.02 0
26.16 0.02 0
26.24 0.02 0
26.32 0.02 0
26.4 0.02 0
26.48 0.02 0
26.56 0.02 0
26.64 0.02 0
26.72 0.02 0
26.8 0.02 0
26.88 0.02 0
26.96 0.02 0
27.04 0.02 0
27.12 0.02 0
27.2 0.02 0
27.28 0.02 0
27.36 0.02 0
27.44 0.02 0
27.52 0.02 0
27.6 0.02 0
27.68 0.02 0
27.76 0.02 0
27.84 0.02 0
27.92 0.02 0
28 0.02 0
28.08 0.02 0
28.16 0.02 0
28.24 0.02 0
28.32 0.02 0
28.4 0.02 0
28.48 0.02 0
28.56 0.02 0
28.64 0.02 0
28.72 0.02 0
28.8 0.02 0
28.88 0.02 0
28.96 0.02 0
29.04 0.02 0
29.12 0.02 0
29.2 0.02 0
29.28 0.02 0
29.36 0.02 0
29.44 0.02 0
29.52 0.02 0
29.6 0.02 0
29.68 0.02 0
29.76 0.02 0
29.84 0.02 0
29.92 0.02 0
30 0.02 0
30.08 0.02 0
30.16 0.02 0
30.24 0.02 0
30.32 0.02 0
30.4 0.02 0
30.48 0.02 0
30.56 0.02 0
30.64 0.02 0
30.72 0.02 0
30.8 0.02 0
30.88 0.02 0
30.96 0.02 0
31.04 0.02 0
31.12 0.02 0
31.2 0.02 0
31.28 0.02 0
31.36 0.02 0
31.44 0.02 0
31.52 0.02 0
31.6 0.02 0
31.68 0.02 0
31.76 0.02 0
31.84 0.02 0
31.92 0.02 0
0 0.04 0
0.08 0.04 0
0.16 0.04 0
0.24 0.04 0
0.32 0.04 0
0.4 0.04 0
0.48 0.04 0
0.56 0.04 0
0.64 0.04 0
0.72 0.04 0
0.8 0.04 0
0.88 0.04 0
0.96 0.04 0
1.04 0.04 0
1.12 0.04 0
1.2 0.04 0
1.28 0.04 0
1.36 0.04 0
1.44 0.04 0
1.52 0.04 0
1.6 0.04 0
1.68 0.04 0
1.76 0.04 0
1.84 0.04 0
1.92 0.04 0
2 0.04 0
2.08 0.04 0
2.16 0.04 0
2.24 0.04 0
2.32 0.04 0
2.4 0.04 0
2.48 0.04 0
2.56 0.04 0
2.64 0.04 0
2.72 0.04 0
2.8 0.04 0
2.88 0.04 0
2.96 0.04 0
3.04 0.04 0
3.12 0.04 0
3.2 0.04 0
3.28 0.04 0
3.36 0.04 0
3.44 0.04 0
3.52 0.04 0
3.6 0.04 0
3.68 0.04 0
3.76 0.04 0
3.84 0.04 0
3.92 0.04 0
4 0.04 0
4.08 0.04 0
4.16 0.04 0
4.24 0.04 0
4.32 0.04 0
4.4 0.04 0
4.48 0.04 0
4.56 0.04 0
4.64 0.04 0
4.72 0.04 0
4.8 0.04 0
4.88 0.04 0
4.96 0.04 0
5.04 0.04 0
5.12 0.04 0
5.2 0.04 0
5.28 0.04 0
5.36 0.04 0
5.44 0.04 0
5.52 0.04 0
5.6 0.04 0
5.68 0.04 0
5.76 0.04 0
5.84 0.04 0
5.92 0.04 0
6 0.04 0
6.08 0.04 0
6.16 0.04 0
6.24 0.04 0
6.32 0.04 0
6.4 0.04 0
6.48 0.04 0
6.56 0.04 0
6.64 0.04 0
6.72 0.04 0
6.8 0.04 0
6.88 0.04 0
6.96 0.04 0
7.04 0.04 0
7.12 0.04 0
7.2 0.04 0
7.28 0.04 0
7.36 0.04 0
7.44 0.04 0
7.52 0.04 0
7.6 0.04 0
7.68 0.04 0
7.76 0.04 0
7.84 0.04 0
[...]
POINT_DATA 20000

SCALARS u float 1
LOOKUP_TABLE default
0
-0.506946
-0.291691
-0.21386
-0.178659
-0.158236
-0.144625
-0.134818
-0.127372
-0.121493
-0.116704
-0.112704
-0.109292
-0.106333
-0.103729
-0.101411
-0.0993274
-0.0974396
-0.0957171
-0.0941362
-0.092678
-0.0913271
-0.090071
-0.0888994
-0.0878035
-0.0867757
-0.0858092
-0.084898
-0.0840368
-0.083221
-0.0824469
-0.0817113
-0.0810117
-0.0803457
-0.079711
-0.079105
-0.0785254
-0.07797
-0.077437
-0.0769247
-0.0764322
-0.0759585
-0.0755029
-0.0750645
-0.0746423
-0.0742349
-0.0738408
-0.0734586
-0.0730875
-0.0727274
-0.0723785
-0.0720412
-0.0717154
-0.0714005
-0.0710954
-0.0707988
-0.0705095
-0.070227
-0.0699509
-0.0696817
-0.06942
-0.0691666
-0.0689216
-0.0686845
-0.068454
-0.068228
-0.0680052
-0.0677855
-0.0675703
-0.0673622
-0.0671637
-0.066976
-0.0667984
-0.0666288
-0.0664646
-0.0663044
-0.0661487
-0.0659995
-0.0658592
-0.0657297
-0.0656107
-0.0655003
-0.0653955
-0.0652941
-0.065195
-0.0650987
-0.065007
-0.0649215
-0.0648433
-0.0647721
-0.0647067
-0.0646456
-0.0645877
-0.0645327
-0.0644809
-0.0644331
-0.06439
-0.0643516
-0.0643175
-0.0642867
-0.0642581
-0.0642309
-0.0642047
-0.0641798
-0.0641567
-0.0641362
-0.0641188
-0.0641047
-0.0640941
-0.0640864
-0.0640812
-0.0640778
-0.0640757
-0.0640745
-0.0640739
-0.0640737
-0.0640741
-0.0640749
-0.0640762
-0.064078
-0.0640804
-0.0640832
-0.0640865
-0.0640901
-0.0640941
-0.0640984
-0.064103
-0.0641078
-0.0641129
-0.0641182
-0.0641238
-0.0641297
-0.0641358
-0.0641421
-0.0641488
-0.0641557
-0.0641629
-0.0641703
-0.0641781
-0.0641861
-0.0641943
-0.0642029
-0.0642117
-0.0642207
-0.06423
-0.0642396
-0.0642495
-0.0642596
-0.0642699
-0.0642805
-0.0642914
-0.0643026
-0.0643139
-0.0643256
-0.0643375
-0.0643496
-0.0643621
-0.0643747
-0.0643876
-0.0644008
-0.0644142
-0.0644278
-0.0644417
-0.0644559
-0.0644702
-0.0644849
-0.0644997
-0.0645148
-0.0645302
-0.0645457
-0.0645615
-0.0645776
-0.0645939
-0.0646104
-0.0646271
-0.0646441
-0.0646613
-0.0646787
-0.0646963
-0.0647142
-0.0647323
-0.0647506
-0.0647691
-0.0647878
-0.0648068
-0.064826
-0.0648453
-0.0648649
-0.0648847
-0.0649047
-0.0649249
-0.0649453
-0.064966
-0.0649868
-0.0650078
-0.065029
-0.0650504
-0.065072
-0.0650938
-0.0651158
-0.065138
-0.0651603
-0.0651829
-0.0652056
-0.0652285
-0.0652516
-0.0652749
-0.0652984
-0.065322
-0.0653458
-0.0653698
-0.0653939
-0.0654183
-0.0654427
-0.0654674
-0.0654922
-0.0655172
-0.0655424
-0.0655677
-0.0655931
-0.0656187
-0.0656445
-0.0656705
-0.0656965
-0.0657228
-0.0657491
-0.0657757
-0.0658023
-0.0658292
-0.0658561
-0.0658832
-0.0659105
-0.0659378
-0.0659654
-0.065993
-0.0660208
-0.0660487
-0.0660767
-0.0661049
-0.0661332
-0.0661616
-0.0661902
-0.0662188
-0.0662476
-0.0662765
-0.0663055
-0.0663347
-0.0663639
-0.0663933
-0.0664228
-0.0664524
-0.0664821
-0.0665119
-0.0665418
-0.0665718
-0.0666019
-0.0666321
-0.0666625
-0.0666929
-0.0667234
-0.066754
-0.0667847
-0.0668156
-0.0668465
-0.0668774
-0.0669085
-0.0669397
-0.066971
-0.0670023
-0.0670337
-0.0670653
-0.0670968
-0.0671285
-0.0671603
-0.0671921
-0.067224
-0.067256
-0.0672881
-0.0673203
-0.0673525
-0.0673848
-0.0674171
-0.0674496
-0.0674821
-0.0675146
-0.0675473
-0.06758
-0.0676128
-0.0676456
-0.0676785
-0.0677114
-0.0677445
-0.0677775
-0.0678107
-0.0678439
-0.0678771
-0.0679104
-0.0679438
-0.0679772
-0.0680107
-0.0680442
-0.0680778
-0.0681115
-0.0681451
-0.0681789
-0.0682127
-0.0682465
-0.0682804
-0.0683143
-0.0683483
-0.0683823
-0.0684163
-0.0684504
-0.0684846
-0.0685187
-0.068553
-0.0685872
-0.0686215
-0.0686559
-0.0686903
-0.0687247
-0.0687592
-0.0687937
-0.0688282
-0.0688627
-0.0688973
-0.068932
-0.0689666
-0.0690013
-0.0690361
-0.0690708
-0.0691056
-0.0691405
-0.0691753
-0.0692102
-0.0692451
-0.0692801
-0.069315
-0.06935
-0.069385
-0.0694201
-0.0694552
-0.0694903
-0.0695254
-0.0695605
-0.0695957
-0.0696309
-0.0696661
-0.0697014
-0.0697366
-0.0697719
-0.0698072
-0.0698425
-0.0698779
-0.0699132
-0.0699486
-0.069984
-0.0700195
-0.0700549
-0.0700904
-0.0701258
-0.0701613
-0.0701968
-0.0702324
-0.0702679
-0.0703035
-0.070339
-0.0703747
-0.0704102
-0.0704459
-0.0704815
-0.0705172
-0.0705528
-0.0705886
-0.0706242
-0.0706601
-0.0706956
-0.0707316
-0.070767
-0.0708033
-0.0708386
-0.070875
-0.0709102
-0.0709469
-0.0709819
-0.071019
-0.0710537
-0.0710912
-0.0711256
-0.0711636
-0.0711975
-0.0712366
-0.0712689
-0.0713103
-0.0713388
-0.0713836
-0.0714063
-0.0714329
-0.0714329
-0.0714329
1
0.506946
0.291691
0.21386
0.178659
0.158236
0.144625
0.134818
0.127372
0.121493
0.116704
0.112704
0.109292
0.106333
0.103729
0.101411
0.0993274
0.0974396
0.0957171
0.0941362
0.092678
0.0913271
0.090071
0.0888994
0.0878035
0.0867757
0.0858092
0.084898
0.0840368
0.083221
0.0824469
0.0817113
0.0810117
0.0803457
0.079711
0.079105
0.0785254
0.07797
0.077437
0.0769247
0.0764322
0.0759585
0.0755029
0.0750645
0.0746423
0.0742349
0.0738408
0.0734586
0.0730875
0.0727274
0.0723785
0.0720412
0.0717154
0.0714005
0.0710954
0.0707988
0.0705095
0.070227
0.0699509
0.0696817
0.06942
0.0691666
0.0689216
0.0686845
0.068454
0.068228
0.0680052
0.0677855
0.0675703
0.0673622
0.0671637
0.066976
0.0667984
0.0666288
0.0664646
0.0663044
0.0661487
0.0659995
0.0658592
0.0657297
0.0656107
0.0655003
0.0653955
0.0652941
0.065195
0.0650987
0.065007
0.0649215
0.0648433
0.0647721
0.0647067
0.0646456
0.0645877
0.0645327
0.0644809
0.0644331
0.06439
0.0643516
0.0643175
0.0642867
0.0642581
0.0642309
0.0642047
0.0641798
0.0641567
0.0641362
0.0641188
0.0641047
0.0640941
0.0640864
0.0640812
0.0640778
0.0640757
0.0640745
0.0640739
0.0640737
0.0640741
0.0640749
0.0640762
0.064078
0.0640804
0.0640832
0.0640865
0.0640901
0.0640941
0.0640984
0.064103
0.0641078
0.0641129
0.0641182
0.0641238
0.0641297
0.0641358
0.0641421
0.0641488
0.0641557
0.0641629
0.0641703
0.0641781
0.0641861
0.0641943
0.0642029
0.0642117
0.0642207
0.06423
0.0642396
0.0642495
0.0642596
0.0642699
0.0642805
0.0642914
0.0643026
0.0643139
0.0643256
0.0643375
0.0643496
0.0643621
0.0643747
0.0643876
0.0644008
0.0644142
0.0644278
0.0644417
0.0644559
0.0644702
0.0644849
0.0644997
0.0645148
0.0645302
0.0645457
0.0645615
0.0645776
0.0645939
0.0646104
0.0646271
0.0646441
0.0646613
0.0646787
0.0646963
0.0647142
0.0647323
0.0647506
0.0647691
0.0647878
0.0648068
0.064826
0.0648453
0.0648649
0.0648847
0.0649047
0.0649249
0.0649453
0.064966
0.0649868
0.0650078
0.065029
0.0650504
0.065072
0.0650938
0.0651158
0.065138
0.0651603
0.0651829
0.0652056
0.0652285
0.0652516
0.0652749
0.0652984
0.065322
0.0653458
0.0653698
0.0653939
0.0654183
0.0654427
0.0654674
0.0654922
0.0655172
0.0655424
0.0655677
0.0655931
0.0656187
0.0656445
0.0656705
0.0656965
0.0657228
0.0657491
0.0657757
0.0658023
0.0658292
0.0658561
0.0658832
0.0659105
0.0659378
0.0659654
0.065993
0.0660208
0.0660487
0.0660767
0.0661049
0.0661332
0.0661616
0.0661902
0.0662188
0.0662476
0.0662765
0.0663055
0.0663347
0.0663639
0.0663933
0.0664228
0.0664524
0.0664821
0.0665119
0.0665418
0.0665718
0.0666019
0.0666321
0.0666625
0.0666929
0.0667234
0.066754
0.0667847
0.0668156
0.0668465
0.0668774
0.0669085
0.0669397
0.066971
0.0670023
0.0670337
0.0670653
0.0670968
0.0671285
0.0671603
0.0671921
0.067224
0.067256
0.0672881
0.0673203
0.0673525
0.0673848
0.0674171
0.0674496
0.0674821
0.0675146
0.0675473
0.06758
0.0676128
0.0676456
0.0676785
0.0677114
0.0677445
0.0677775
0.0678107
0.0678439
0.0678771
0.0679104
0.0679438
0.0679772
0.0680107
0.0680442
0.0680778
0.0681115
0.0681451
0.0681789
0.0682127
0.0682465
0.0682804
0.0683143
0.0683483
0.0683823
0.0684163
0.0684504
0.0684846
0.0685187
0.068553
0.0685872
0.0686215
0.0686559
0.0686903
0.0687247
0.0687592
0.0687937
0.0688282
0.0688627
0.0688973
0.068932
0.0689666
0.0690013
0.0690361
0.0690708
0.0691056
0.0691405
0.0691753
0.0692102
0.0692451
0.0692801
0.069315
0.06935
0.069385
0.0694201
0.0694552
0.0694903
0.0695254
0.0695605
0.0695957
0.0696309
0.0696661
0.0697014
0.0697366
0.0697719
0.0698072
0.0698425
0.0698779
0.0699132
0.0699486
0.069984
0.0700195
0.0700549
0.0700904
0.0701258
0.0701613
0.0701968
0.0702324
0.0702679
0.0703035
0.070339
0.0703747
0.0704102
0.0704459
0.0704815
0.0705172
0.0705528
0.0705886
0.0706242
0.0706601
0.0706956
0.0707316
0.070767
0.0708033
0.0708386
0.070875
0.0709102
0.0709469
0.0709819
0.071019
0.0710537
0.0710912
0.0711256
0.0711636
0.0711975
0.0712366
0.0712689
0.0713103
0.0713388
0.0713836
0.0714063
0.0714329
0.0714329
0.0714329
1
0.924062
0.735056
0.59701
0.510971
0.455517
0.417224
0.389193
0.367739
0.350735
0.336872
0.325301
0.315452
0.30693
0.299453
0.292815
0.286866
0.281487
0.276591
0.272107
0.267978
0.26416
0.260616
0.257314
0.25423
0.25134
0.248625
0.246068
0.243654
0.24137
0.239206
0.237152
0.2352
0.233344
0.231575
0.229887
0.228274
0.226728
0.225247
0.223824
0.222459
0.221146
0.219884
0.21867
0.2175
0.216372
0.215281
0.214225
0.213202
0.212211
0.211253
0.210328
0.209433
0.208567
0.207727
0.20691
0.206115
0.205339
0.204584
0.203849
0.203136
0.202445
0.201777
0.201128
0.200497
0.19988
0.199275
0.198684
0.198111
0.197561
0.197037
0.196541
0.196069
0.195617
0.195182
0.194762
0.194359
0.193977
0.193621
0.193291
0.192986
0.192699
0.192427
0.192165
0.191913
0.191672
0.191446
0.191238
0.191047
0.190872
0.190711
0.190561
0.190419
0.190287
0.190164
0.190052
0.189951
0.189862
0.189783
0.189711
0.189644
0.189582
0.189524
0.18947
0.189423
0.189384
0.189352
0.189328
0.189312
0.189302
0.189297
0.189296
0.189297
0.1893
0.189304
0.189309
0.189315
0.189322
0.189331
0.18934
0.189351
0.189362
0.189375
0.189388
0.189402
0.189416
0.189431
0.189446
0.189462
0.189478
0.189495
0.189513
0.18953
0.189549
0.189568
0.189587
0.189607
0.189628
0.189649
0.189671
0.189693
0.189716
0.189739
0.189763
0.189787
0.189812
0.189838
0.189864
0.18989
0.189917
0.189945
0.189973
0.190001
0.19003
0.19006
0.19009
0.190121
0.190152
0.190184
0.190216
0.190248
0.190282
0.190315
0.19035
0.190384
0.19042
0.190455
0.190492
0.190528
0.190566
0.190603
0.190641
0.19068
0.190719
0.190759
0.190799
0.19084
0.190881
0.190923
0.190965
0.191007
0.19105
0.191094
0.191138
0.191182
0.191227
0.191272
0.191318
0.191364
0.191411
0.191458
0.191505
0.191553
0.191602
0.191651
0.1917
0.19175
0.1918
0.191851
0.191902
0.191953
0.192005
0.192057
0.19211
0.192163
0.192216
0.19227
0.192324
0.192379
0.192434
0.19249
0.192546
0.192602
0.192658
0.192715
0.192773
0.19283
0.192889
0.192947
0.193006
0.193065
0.193125
0.193184
0.193245
0.193305
0.193366
0.193428
0.193489
0.193551
0.193613
0.193676
0.193739
0.193802
0.193866
0.19393
0.193994
0.194059
0.194124
0.194189
0.194254
0.19432
0.194386
0.194452
0.194519
0.194586
0.194653
0.194721
0.194789
0.194857
0.194925
0.194994
0.195063
0.195132
0.195201
0.195271
0.195341
0.195411
0.195481
0.195552
0.195623
0.195694
0.195766
0.195837
0.195909
0.195981
0.196054
0.196126
0.196199
0.196272
0.196345
0.196419
0.196493
0.196566
0.196641
0.196715
0.196789
0.196864
0.196939
0.197014
0.19709
0.197165
0.197241
0.197317
0.197393
0.197469
0.197545
0.197622
0.197699
0.197776
0.197853
0.19793
0.198008
0.198085
0.198163
0.198241
0.198319
0.198397
0.198476
0.198554
0.198633
0.198712
0.198791
0.19887
0.198949
0.199029
0.199108
0.199188
0.199268
0.199348
0.199428
0.199508
0.199588
0.199669
0.199749
0.19983
0.199911
0.199992
0.200073
0.200154
0.200235
0.200316
0.200398
0.200479
0.200561
0.200643
0.200725
0.200807
0.200889
0.200971
0.201053
0.201135
0.201218
0.2013
0.201383
0.201465
0.201548
0.201631
0.201714
0.201797
0.20188
0.201963
0.202046
0.202129
0.202213
0.202296
0.20238
0.202463
0.202547
0.20263
0.202714
0.202798
0.202882
0.202966
0.203049
0.203133
0.203217
0.203302
0.203386
0.20347
0.203554
0.203638
0.203723
0.203807
0.203891
0.203976
0.20406
0.204145
0.204229
0.204314
0.204398
0.204483
0.204568
0.204652
0.204737
0.204822
0.204907
0.204991
0.205077
0.205161
0.205247
0.205331
0.205417
0.2055
0.205587
0.20567
0.205758
0.205841
0.205929
0.206011
0.206101
0.206182
0.206274
0.206352
0.206449
0.206518
0.206623
0.206681
0.206762
0.206762
0.206762
1
1.07945
0.996632
0.883038
0.787906
0.715946
0.661911
0.620529
0.588024
0.561853
0.540307
0.522216
0.506765
0.49337
0.481608
0.471166
0.461808
0.453351
0.445656
0.438612
0.43213
0.42614
0.420581
0.415406
0.410572
0.406045
0.401793
0.397789
0.394012
0.39044
0.387058
0.38385
0.380803
0.377905
0.375145
0.372511
0.369994
0.367585
0.365276
0.36306
0.360934
0.358891
0.356927
0.355038
0.353218
0.351463
0.349767
0.348127
0.346541
0.345007
0.343524
0.342091
0.340705
0.339364
0.338062
0.336797
0.335566
0.334368
0.333202
0.332069
0.33097
0.329905
0.328874
0.327873
0.326899
0.325949
0.325023
0.324122
0.323252
0.322418
0.321626
0.320873
0.320157
0.319473
0.318815
0.318185
0.317584
0.317017
0.316489
0.315999
0.315544
0.315116
0.314711
0.314323
0.313952
0.313602
0.313275
0.312975
0.3127
0.312448
0.312216
0.312
0.311798
0.31161
0.311438
0.311281
0.311142
0.311018
0.310907
0.310807
0.310716
0.310632
0.310556
0.310489
0.310432
0.310385
0.310351
0.310328
0.310314
0.310309
0.31031
0.310315
0.310323
0.310333
0.310345
0.310359
0.310374
0.31039
0.310408
0.310427
0.310447
0.310469
0.310492
0.310515
0.310539
0.310564
0.310589
0.310615
0.310642
0.310669
0.310697
0.310725
0.310754
0.310783
0.310814
0.310844
0.310876
0.310908
0.310941
0.310974
0.311008
0.311042
0.311077
0.311113
0.31115
0.311187
0.311224
0.311263
0.311301
0.311341
0.311381
0.311422
0.311463
0.311505
0.311548
0.311591
0.311635
0.311679
0.311724
0.31177
0.311816
0.311863
0.31191
0.311958
0.312007
0.312056
0.312106
0.312156
0.312207
0.312259
0.312311
0.312363
0.312417
0.312471
0.312525
0.31258
0.312636
0.312692
0.312749
0.312806
0.312864
0.312923
0.312982
0.313041
0.313101
0.313162
0.313223
0.313285
0.313347
0.31341
0.313474
0.313538
0.313602
0.313667
0.313733
0.313799
0.313866
0.313933
0.314
0.314069
0.314137
0.314207
0.314276
0.314346
0.314417
0.314488
0.31456
0.314632
0.314705
0.314778
0.314852
0.314926
0.315001
0.315076
0.315151
0.315227
0.315304
0.315381
0.315458
0.315536
0.315614
0.315693
0.315772
0.315852
0.315932
0.316012
0.316093
0.316175
0.316257
0.316339
0.316421
0.316504
0.316588
0.316672
0.316756
0.316841
0.316926
0.317011
0.317097
0.317183
0.31727
0.317357
0.317444
0.317532
0.31762
0.317709
0.317798
0.317887
0.317976
0.318066
0.318157
0.318247
0.318338
0.31843
0.318521
0.318613
0.318706
0.318798
0.318891
0.318985
0.319078
0.319172
0.319266
0.319361
0.319456
0.319551
0.319646
0.319742
0.319838
0.319935
0.320031
0.320128
0.320225
0.320323
0.320421
0.320519
0.320617
0.320716
0.320814
0.320913
0.321013
0.321112
0.321212
0.321312
0.321413
0.321513
0.321614
0.321715
0.321816
0.321918
0.32202
0.322122
0.322224
0.322326
0.322429
0.322532
0.322635
0.322738
0.322841
0.322945
0.323049
0.323153
0.323257
0.323361
0.323466
0.323571
0.323676
0.323781
0.323886
0.323992
0.324097
0.324203
0.324309
0.324415
0.324522
0.324628
0.324735
0.324842
0.324949
0.325056
0.325163
0.32527
0.325378
0.325485
0.325593
0.325701
0.325809
0.325917
0.326026
0.326134
0.326243
0.326351
0.32646
0.326569
0.326678
0.326787
0.326896
0.327006
0.327115
0.327225
0.327334
0.327444
0.327554
0.327664
0.327773
0.327884
0.327994
0.328104
0.328214
0.328325
0.328435
0.328546
0.328656
0.328767
0.328877
0.328988
0.329099
0.32921
0.329321
0.329432
0.329543
0.329654
0.329765
0.329877
0.329988
0.330099
0.33021
0.330322
0.330433
0.330545
0.330656
0.330768
0.330879
0.330991
0.331102
0.331214
0.331325
0.331438
0.331548
0.331662
0.331772
0.331886
0.331995
0.33211
0.332219
0.332335
0.332443
0.33256
0.332667
0.332786
0.332892
0.333013
0.333115
0.333244
0.333335
0.333473
0.333551
0.333675
0.333675
0.333675
1
1.11153
1.11393
1.05495
0.983567
0.918042
0.862621
0.816853
0.7791
0.747698
0.721264
0.698723
0.67926
0.662255
0.647241
0.633858
0.621828
0.610933
0.601002
0.591897
0.58351
0.575751
0.568546
0.561833
0.55556
0.54968
0.544155
0.538951
0.534039
0.529394
0.524995
0.520823
0.51686
0.51309
0.509499
0.506072
0.502796
0.499661
0.496656
0.493774
0.491007
0.488349
0.485794
0.483335
0.480966
0.478682
0.476475
0.474343
0.472282
0.47029
0.468365
0.466505
0.464706
0.462964
0.461274
0.459632
0.458034
0.45648
0.454969
0.453502
0.452078
0.450698
0.44936
0.448062
0.4468
0.445572
0.444376
0.443217
0.4421
0.441031
0.440014
0.439047
0.438128
0.43725
0.436408
0.435604
0.43484
0.434121
0.43345
0.432827
0.432247
0.431702
0.431186
0.430695
0.430228
0.429789
0.429382
0.429007
0.428665
0.428352
0.428063
0.427795
0.427546
0.427314
0.427102
0.426911
0.426739
0.426587
0.426451
0.426329
0.426219
0.426119
0.426029
0.425952
0.425889
0.42584
0.425805
0.425784
0.425774
0.425773
0.425779
0.425791
0.425805
0.425822
0.425841
0.425861
0.425883
0.425906
0.425932
0.425958
0.425986
0.426016
0.426046
0.426078
0.42611
0.426142
0.426175
0.426209
0.426243
0.426278
0.426314
0.42635
0.426386
0.426423
0.426461
0.4265
0.426539
0.426579
0.426619
0.42666
0.426702
0.426744
0.426787
0.426831
0.426875
0.42692
0.426965
0.427011
0.427058
0.427105
0.427153
0.427201
0.42725
0.4273
0.42735
0.427401
0.427453
0.427505
0.427558
0.427611
0.427665
0.42772
0.427775
0.427831
0.427887
0.427944
0.428002
0.42806
0.428119
0.428178
0.428238
0.428299
0.42836
0.428422
0.428484
0.428547
0.428611
0.428675
0.42874
0.428805
0.428871
0.428937
0.429004
0.429072
0.42914
0.429208
0.429278
0.429347
0.429418
0.429489
0.42956
0.429632
0.429705
0.429778
0.429851
0.429926
0.43
0.430075
0.430151
0.430227
0.430304
0.430382
0.430459
0.430538
0.430617
0.430696
0.430776
0.430856
0.430937
0.431019
0.431101
0.431183
0.431266
0.431349
0.431433
0.431517
0.431602
0.431687
0.431773
0.431859
0.431946
0.432033
0.432121
0.432209
0.432297
0.432386
0.432476
0.432566
0.432656
0.432747
0.432838
0.432929
0.433021
0.433114
0.433207
0.4333
0.433394
0.433488
0.433582
0.433677
0.433772
0.433868
0.433964
0.434061
0.434158
0.434255
0.434352
0.43445
0.434549
0.434648
0.434747
0.434846
0.434946
0.435046
0.435147
0.435248
0.435349
0.435451
0.435553
0.435655
0.435757
0.43586
0.435964
0.436067
0.436171
0.436275
0.43638
0.436485
0.43659
0.436695
0.436801
0.436907
0.437014
0.43712
0.437227
0.437334
0.437442
0.43755
0.437658
0.437766
0.437875
0.437984
0.438093
0.438202
0.438312
0.438422
0.438532
0.438642
0.438753
0.438864
0.438975
0.439086
0.439198
0.43931
0.439422
0.439534
0.439647
0.439759
0.439872
0.439985
0.440099
0.440212
0.440326
0.44044
0.440554
0.440669
0.440783
0.440898
0.441013
0.441128
0.441243
0.441359
0.441474
0.44159
0.441706
0.441822
0.441938
0.442055
0.442171
0.442288
0.442405
0.442522
0.442639
0.442757
0.442874
0.442992
0.443109
0.443227
0.443345
0.443463
0.443582
0.4437
0.443819
0.443937
0.444056
0.444175
0.444294
0.444413
0.444532
0.444651
0.44477
0.44489
0.445009
0.445129
0.445249
0.445369
0.445488
0.445608
0.445728
0.445848
0.445969
0.446089
0.446209
0.446329
0.44645
0.44657
0.446691
0.446811
0.446932
0.447053
0.447173
0.447294
0.447415
0.447536
0.447656
0.447778
0.447898
0.448019
0.44814
0.448261
0.448382
0.448504
0.448624
0.448746
0.448866
0.448988
0.449108
0.449231
0.449351
0.449474
0.449593
0.449717
0.449835
0.44996
0.450078
0.450203
0.45032
0.450448
0.450563
0.450693
0.450806
0.45094
0.451047
0.45119
0.451286
0.451439
0.451524
0.451673
0.451673
0.451673
1
1.09568
1.14323
1.13341
1.0969
1.05236
1.00825
0.967865
0.932084
0.900773
0.873428
0.849469
0.828355
0.809621
0.792884
0.777828
0.764195
0.751776
0.740401
0.729931
0.720252
0.711271
0.70291
0.695102
0.687791
0.680927
0.674466
0.668371
0.662611
0.657157
0.651987
0.64708
0.642416
0.637978
0.633746
0.629705
0.62584
0.622139
0.61859
0.615185
0.611915
0.608773
0.60575
0.60284
0.600036
0.59733
0.594716
0.59219
0.589749
0.587391
0.585112
0.582911
0.580781
0.578718
0.576716
0.574771
0.572879
0.571039
0.56925
0.567512
0.565826
0.564191
0.562605
0.561066
0.55957
0.558115
0.5567
0.555331
0.554012
0.55275
0.551548
0.550406
0.549319
0.54828
0.547286
0.546337
0.545436
0.544588
0.543797
0.543061
0.542374
0.541729
0.541119
0.540538
0.539989
0.539474
0.538997
0.538558
0.538158
0.537791
0.537453
0.537139
0.536847
0.536577
0.536329
0.536105
0.535904
0.535724
0.535563
0.535418
0.535287
0.535169
0.535065
0.534975
0.534903
0.534847
0.534808
0.534785
0.534774
0.534774
0.534781
0.534794
0.53481
0.534828
0.534848
0.53487
0.534894
0.534919
0.534947
0.534976