# vtk DataFile Version 2.0
FlowField
ASCII
DATASET STRUCTURED_GRID
DIMENSIONS 400 1 200
POINTS 80000 float
0 0 0
0.08 0 0
0.16 0 0
0.24 0 0
0.32 0 0
0.4 0 0
0.48 0 0
0.56 0 0
0.64 0 0
0.72 0 0
0.8 0 0
0.88 0 0
0.96 0 0
1.04 0 0
1.12 0 0
1.2 0 0
1.28 0 0
1.36 0 0
1.44 0 0
1.52 0 0
1.6 0 0
1.68 0 0
1.76 0 0
1.84 0 0
1.92 0 0
2 0 0
2.08 0 0
2.16 0 0
2.24 0 0
2.32 0 0
2.4 0 0
2.48 0 0
2.56 0 0
2.64 0 0
2.72 0 0
2.8 0 0
2.88 0 0
2.96 0 0
3.04 0 0
3.12 0 0
3.2 0 0
3.28 0 0
3.36 0 0
3.44 0 0
3.52 0 0
3.6 0 0
3.68 0 0
3.76 0 0
3.84 0 0
3.92 0 0
4 0 0
4.08 0 0
4.16 0 0
4.24 0 0
4.32 0 0
4.4 0 0
4.48 0 0
4.56 0 0
4.64 0 0
4.72 0 0
4.8 0 0
4.88 0 0
4.96 0 0
5.04 0 0
5.12 0 0
5.2 0 0
5.28 0 0
5.36 0 0
5.44 0 0
5.52 0 0
5.6 0 0
5.68 0 0
5.76 0 0
5.84 0 0
5.92 0 0
6 0 0
6.08 0 0
6.16 0 0
6.24 0 0
6.32 0 0
6.4 0 0
6.48 0 0
6.56 0 0
6.64 0 0
6.72 0 0
6.8 0 0
6.88 0 0
6.96 0 0
7.04 0 0
7.12 0 0
7.2 0 0
7.28 0 0
7.36 0 0
7.44 0 0
7.52 0 0
7.6 0 0
7.68 0 0
7.76 0 0
7.84 0 0
7.92 0 0
8 0 0
8.08 0 0
8.16 0 0
8.24 0 0
8.32 0 0
8.4 0 0
8.48 0 0
8.56 0 0
8.64 0 0
8.72 0 0
8.8 0 0
8.88 0 0
8.96 0 0
9.04 0 0
9.12 0 0
9.2 0 0
9.28 0 0
9.36 0 0
9.44 0 0
9.52 0 0
9.6 0 0
9.68 0 0
9.76 0 0
9.84 0 0
9.92 0 0
10 0 0
10.08 0 0
10.16 0 0
10.24 0 0
10.32 0 0
10.4 0 0
10.48 0 0
10.56 0 0
10.64 0 0
10.72 0 0
10.8 0 0
10.88 0 0
10.96 0 0
11.04 0 0
11.12 0 0
11.2 0 0
11.28 0 0
11.36 0 0
11.44 0 0
11.52 0 0
11.6 0 0
11.68 0 0
11.76 0 0
11.84 0 0
11.92 0 0
12 0 0
12.08 0 0
12.16 0 0
12.24 0 0
12.32 0 0
12.4 0 0
12.48 0 0
12.56 0 0
12.64 0 0
12.72 0 0
12.8 0 0
12.88 0 0
12.96 0 0
13.04 0 0
13.12 0 0
13.2 0 0
13.28 0 0
13.36 0 0
13.44 0 0
13.52 0 0
13.6 0 0
13.68 0 0
13.76 0 0
13.84 0 0
13.92 0 0
14 0 0
14.08 0 0
14.16 0 0
14.24 0 0
14.32 0 0
14.4 0 0
14.48 0 0
14.56 0 0
14.64 0 0
14.72 0 0
14.8 0 0
14.88 0 0
14.96 0 0
15.04 0 0
15.12 0 0
15.2 0 0
15.28 0 0
15.36 0 0
15.44 0 0
15.52 0 0
15.6 0 0
15.68 0 0
15.76 0 0
15.84 0 0
15.92 0 0
16 0 0
16.08 0 0
16.16 0 0
16.24 0 0
16.32 0 0
16.4 0 0
16.48 0 0
16.56 0 0
16.64 0 0
16.72 0 0
16.8 0 0
16.88 0 0
16.96 0 0
17.04 0 0
17.12 0 0
17.2 0 0
17.28 0 0
17.36 0 0
17.44 0 0
17.52 0 0
17.6 0 0
17.68 0 0
17.76 0 0
17.84 0 0
17.92 0 0
18 0 0
18.08 0 0
18.16 0 0
18.24 0 0
18.32 0 0
18.4 0 0
18.48 0 0
18.56 0 0
18.64 0 0
18.72 0 0
18.8 0 0
18.88 0 0
18.96 0 0
19.04 0 0
19.12 0 0
19.2 0 0
19.28 0 0
19.36 0 0
19.44 0 0
19.52 0 0
19.6 0 0
19.68 0 0
19.76 0 0
19.84 0 0
19.92 0 0
20 0 0
20.08 0 0
20.16 0 0
20.24 0 0
20.32 0 0
20.4 0 0
20.48 0 0
20.56 0 0
20.64 0 0
20.72 0 0
20.8 0 0
20.88 0 0
20.96 0 0
21.04 0 0
21.12 0 0
21.2 0 0
21.28 0 0
21.36 0 0
21.44 0 0
21.52 0 0
21.6 0 0
21.68 0 0
21.76 0 0
21.84 0 0
21.92 0 0
22 0 0
22.08 0 0
22.16 0 0
22.24 0 0
22.32 0 0
22.4 0 0
22.48 0 0
22.56 0 0
22.64 0 0
22.72 0 0
22.8 0 0
22.88 0 0
22.96 0 0
23.04 0 0
23.12 0 0
23.2 0 0
23.28 0 0
23.36 0 0
23.44 0 0
23.52 0 0
23.6 0 0
23.68 0 0
23.76 0 0
23.84 0 0
23.92 0 0
24 0 0
24.08 0 0
24.16 0 0
24.24 0 0
24.32 0 0
24.4 0 0
24.48 0 0
24.56 0 0
24.64 0 0
24.72 0 0
24.8 0 0
24.88 0 0
24.96 0 0
25.04 0 0
25.12 0 0
25.2 0 0
25.28 0 0
25.36 0 0
25.44 0 0
25.52 0 0
25.6 0 0
25.68 0 0
25.76 0 0
25.84 0 0
25.92 0 0
26 0 0
26.08 0 0
26.16 0 0
26.24 0 0
26.32 0 0
26.4 0 0
26.48 0 0
26.56 0 0
26.64 0 0
26.72 0 0
26.8 0 0
26.88 0 0
26.96 0 0
27.04 0 0
27.12 0 0
27.2 0 0
27.28 0 0
27.36 0 0
27.44 0 0
27.52 0 0
27.6 0 0
27.68 0 0
27.76 0 0
27.84 0 0
27.92 0 0
28 0 0
28.08 0 0
28.16 0 0
28.24 0 0
28.32 0 0
28.4 0 0
28.48 0 0
28.56 0 0
28.64 0 0
28.72 0 0
28.8 0 0
28.88 0 0
28.96 0 0
29.04 0 0
29.12 0 0
29.2 0 0
29.28 0 0
29.36 0 0
29.44 0 0
29.52 0 0
29.6 0 0
29.68 0 0
29.76 0 0
29.84 0 0
29.92 0 0
30 0 0
30.08 0 0
30.16 0 0
30.24 0 0
30.32 0 0
30.4 0 0
30.48 0 0
30.56 0 0
30.64 0 0
30.72 0 0
30.8 0 0
30.88 0 0
30.96 0 0
31.04 0 0
31.12 0 0
31.2 0 0
31.28 0 0
31.36 0 0
31.44 0 0
31.52 0 0
31.6 0 0
31.68 0 0
31.76 0 0
31.84 0 0
31.92 0 0
0 0.005 0
0.08 0.005 0
0.16 0.005 0
0.24 0.005 0
0.32 0.005 0
0.4 0.005 0
0.48 0.005 0
0.56 0.005 0
0.64 0.005 0
0.72 0.005 0
0.8 0.005 0
0.88 0.005 0
0.96 0.005 0
1.04 0.005 0
1.12 0.005 0
1.2 0.005 0
1.28 0.005 0
1.36 0.005 0
1.44 0.005 0
1.52 0.005 0
1.6 0.005 0
1.68 0.005 0
1.76 0.005 0
1.84 0.005 0
1.92 0.005 0
2 0.005 0
2.08 0.005 0
2.16 0.005 0
2.24 0.005 0
2.32 0.005 0
2.4 0.005 0
2.48 0.005 0
2.56 0.005 0
2.64 0.005 0
2.72 0.005 0
2.8 0.005 0
2.88 0.005 0
2.96 0.005 0
3.04 0.005 0
3.12 0.005 0
3.2 0.005 0
3.28 0.005 0
3.36 0.005 0
3.44 0.005 0
3.52 0.005 0
3.6 0.005 0
3.68 0.005 0
3.76 0.005 0
3.84 0.005 0
3.92 0.005 0
4 0.005 0
4.08 0.005 0
4.16 0.005 0
4.24 0.005 0
4.32 0.005 0
4.4 0.005 0
4.48 0.005 0
4.56 0.005 0
4.64 0.005 0
4.72 0.005 0
4.8 0.005 0
4.88 0.005 0
4.96 0.005 0
5.04 0.005 0
5.12 0.005 0
5.2 0.005 0
5.28 0.005 0
5.36 0.005 0
5.44 0.005 0
5.52 0.005 0
5.6 0.005 0
5.68 0.005 0
5.76 0.005 0
5.84 0.005 0
5.92 0.005 0
6 0.005 0
6.08 0.005 0
6.16 0.005 0
6.24 0.005 0
6.32 0.005 0
6.4 0.005 0
6.48 0.005 0
6.56 0.005 0
6.64 0.005 0
6.72 0.005 0
6.8 0.005 0
6.88 0.005 0
6.96 0.005 0
7.04 0.005 0
7.12 0.005 0
7.2 0.005 0
7.28 0.005 0
7.36 0.005 0
7.44 0.005 0
7.52 0.005 0
7.6 0.005 0
7.68 0.005 0
7.76 0.005 0
7.84 0.005 0
7.92 0.005 0
8 0.005 0
8.08 0.005 0
8.16 0.005 0
8.24 0.005 0
8.32 0.005 0
8.4 0.005 0
8.48 0.005 0
8.56 0.005 0
8.64 0.005 0
8.72 0.005 0
8.8 0.005 0
8.88 0.005 0
8.96 0.005 0
9.04 0.005 0
9.12 0.005 0
9.2 0.005 0
9.28 0.005 0
9.36 0.005 0
9.44 0.005 0
9.52 0.005 0
9.6 0.005 0
9.68 0.005 0
9.76 0.005 0
9.84 0.005 0
9.92 0.005 0
10 0.005 0
10.08 0.005 0
10.16 0.005 0
10.24 0.005 0
10.32 0.005 0
10.4 0.005 0
10.48 0.005 0
10.56 0.005 0
10.64 0.005 0
10.72 0.005 0
10.8 0.005 0
10.88 0.005 0
10.96 0.005 0
11.04 0.005 0
11.12 0.005 0
11.2 0.005 0
11.28 0.005 0
11.36 0.005 0
11.44 0.005 0
11.52 0.005 0
11.6 0.005 0
11.68 0.005 0
11.76 0.005 0
11.84 0.005 0
11.92 0.005 0
12 0.005 0
12.08 0.005 0
12.16 0.005 0
12.24 0.005 0
12.32 0.005 0
12.4 0.005 0
12.48 0.005 0
12.56 0.005 0
12.64 0.005 0
12.72 0.005 0
12.8 0.005 0
12.88 0.005 0
12.96 0.005 0
13.04 0.005 0
13.12 0.005 0
13.2 0.005 0
13.28 0.005 0
13.36 0.005 0
13.44 0.005 0
13.52 0.005 0
13.6 0.005 0
13.68 0.005 0
13.76 0.005 0
13.84 0.005 0
13.92 0.005 0
14 0.005 0
14.08 0.005 0
14.16 0.005 0
14.24 0.005 0
14.32 0.005 0
14.4 0.005 0
14.48 0.005 0
14.56 0.005 0
14.64 0.005 0
14.72 0.005 0
14.8 0.005 0
14.88 0.005 0
14.96 0.005 0
15.04 0.005 0
15.12 0.005 0
15.2 0.005 0
15.28 0.005 0
15.36 0.005 0
15.44 0.005 0
15.52 0.005 0
15.6 0.005 0
15.68 0.005 0
15.76 0.005 0
15.84 0.005 0
15.92 0.005 0
16 0.005 0
16.08 0.005 0
16.16 0.005 0
16.24 0.005 0
16.32 0.005 0
16.4 0.005 0
16.48 0.005 0
16.56 0.005 0
16.64 0.005 0
16.72 0.005 0
16.8 0.005 0
16.88 0.005 0
16.96 0.005 0
17.04 0.005 0
17.12 0.005 0
17.2 0.005 0
17.28 0.005 0
17.36 0.005 0
17.44 0.005 0
17.52 0.005 0
17.6 0.005 0
17.68 0.005 0
17.76 0.005 0
17.84 0.005 0
17.92 0.005 0
18 0.005 0
18.08 0.005 0
18.16 0.005 0
18.24 0.005 0
18.32 0.005 0
18.4 0.005 0
18.48 0.005 0
18.56 0.005 0
18.64 0.005 0
18.72 0.005 0
18.8 0.005 0
18.88 0.005 0
18.96 0.005 0
19.04 0.005 0
19.12 0.005 0
19.2 0.005 0
19.28 0.005 0
19.36 0.005 0
19.44 0.005 0
19.52 0.005 0
19.6 0.005 0
19.68 0.005 0
19.76 0.005 0
19.84 0.005 0
19.92 0.005 0
20 0.005 0
20.08 0.005 0
20.16 0.005 0
20.24 0.005 0
20.32 0.005 0
20.4 0.005 0
20.48 0.005 0
20.56 0.005 0
20.64 0.005 0
20.72 0.005 0
20.8 0.005 0
20.88 0.005 0
20.96 0.005 0
21.04 0.005 0
21.12 0.005 0
21.2 0.005 0
21.28 0.005 0
21.36 0.005 0
21.44 0.005 0
21.52 0.005 0
21.6 0.005 0
21.68 0.005 0
21.76 0.005 0
21.84 0.005 0
21.92 0.005 0
22 0.005 0
22.08 0.005 0
22.16 0.005 0
22.24 0.005 0
22.32 0.005 0
22.4 0.005 0
22.48 0.005 0
22.56 0.005 0
22.64 0.005 0
22.72 0.005 0
22.8 0.005 0
22.88 0.005 0
22.96 0.005 0
23.04 0.005 0
23.12 0.005 0
23.2 0.005 0
23.28 0.005 0
23.36 0.005 0
23.44 0.005 0
23.52 0.005 0
23.6 0.005 0
23.68 0.005 0
23.76 0.005 0
23.84 0.005 0
23.92 0.005 0
24 0.005 0
24.08 0.005 0
24.16 0.005 0
24.24 0.005 0
24.32 0.005 0
24.4 0.005 0
24.48 0.005 0
24.56 0.005 0
24.64 0.005 0
24.72 0.005 0
24.8 0.005 0
24.88 0.005 0
24.96 0.005 0
25.04 0.005 0
25.12 0.005 0
25.2 0.005 0
25.28 0.005 0
25.36 0.005 0
25.44 0.005 0
25.52 0.005 0
25.6 0.005 0
25.68 0.005 0
25.76 0.005 0
25.84 0.005 0
25.92 0.005 0
26 0.005 0
26.08 0.005 0
26.16 0.005 0
26.24 0.005 0
26.32 0.005 0
26.4 0.005 0
26.48 0.005 0
26.56 0.005 0
26.64 0.005 0
26.72 0.005 0
26.8 0.005 0
26.88 0.005 0
26.96 0.005 0
27.04 0.005 0
27.12 0.005 0
27.2 0.005 0
27.28 0.005 0
27.36 0.005 0
27.44 0.005 0
27.52 0.005 0
27.6 0.005 0
27.68 0.005 0
27.76 0.005 0
27.84 0.005 0
27.92 0.005 0
28 0.005 0
28.08 0.005 0
28.16 0.005 0
28.24 0.005 0
28.32 0.005 0
28.4 0.005 0
28.48 0.005 0
28.56 0.005 0
28.64 0.005 0
28.72 0.005 0
28.8 0.005 0
28.88 0.005 0
28.96 0.005 0
29.04 0.005 0
29.12 0.005 0
29.2 0.005 0
29.28 0.005 0
29.36 0.005 0
29.44 0.005 0
29.52 0.005 0
29.6 0.005 0
29.68 0.005 0
29.76 0.005 0
29.84 0.005 0
29.92 0.005 0
30 0.005 0
30.08 0.005 0
30.16 0.005 0
30.24 0.005 0
30.32 0.005 0
30.4 0.005 0
30.48 0.005 0
30.56 0.005 0
30.64 0.005 0
30.72 0.005 0
30.8 0.005 0
30.88 0.005 0
30.96 0.005 0
31.04 0.005 0
31.12 0.005 0
31.2 0.005 0
31.28 0.005 0
31.36 0.005 0
31.44 0.005 0
31.52 0.005 0
31.6 0.005 0
31.68 0.005 0
31.76 0.005 0
31.84 0.005 0
31.92 0.005 0
0 0.01 0
0.08 0.01 0
0.16 0.01 0
0.24 0.01 0
0.32 0.01 0
0.4 0.01 0
0.48 0.01 0
0.56 0.01 0
0.64 0.01 0
0.72 0.01 0
0.8 0.01 0
0.88 0.01 0
0.96 0.01 0
1.04 0.01 0
1.12 0.01 0
1.2 0.01 0
1.28 0.01 0
1.36 0.01 0
1.44 0.01 0
1.52 0.01 0
1.6 0.01 0
1.68 0.01 0
1.76 0.01 0
1.84 0.01 0
1.92 0.01 0
2 0.01 0
2.08 0.01 0
2.16 0.01 0
2.24 0.01 0
2.32 0.01 0
2.4 0.01 0
2.48 0.01 0
2.56 0.01 0
2.64 0.01 0
2.72 0.01 0
2.8 0.01 0
2.88 0.01 0
2.96 0.01 0
3.04 0.01 0
3.12 0.01 0
3.2 0.01 0
3.28 0.01 0
3.36 0.01 0
3.44 0.01 0
3.52 0.01 0
3.6 0.01 0
3.68 0.01 0
3.76 0.01 0
3.84 0.01 0
3.92 0.01 0
4 0.01 0
4.08 0.01 0
4.16 0.01 0
4.24 0.01 0
4.32 0.01 0
4.4 0.01 0
4.48 0.01 0
4.56 0.01 0
4.64 0.01 0
4.72 0.01 0
4.8 0.01 0
4.88 0.01 0
4.96 0.01 0
5.04 0.01 0
5.12 0.01 0
[...]
POINT_DATA 80000

SCALARS p float 1
LOOKUP_TABLE default
1
56.5477
56.246
56.2048
56.1847
56.1703
56.1583
56.1476
56.1376
56.1281
56.1189
56.1101
56.1014
56.093
56.0848
56.0768
56.069
56.0613
56.0538
56.0464
56.0392
56.0321
56.0251
56.0183
56.0116
56.0049
55.9984
55.992
55.9857
55.9795
55.9733
55.9673
55.9613
55.9554
55.9495
55.9438
55.9381
55.9324
55.9268
55.9213
55.9159
55.9105
55.9051
55.8998
55.8945
55.8893
55.8842
55.879
55.874
55.8689
55.8639
55.859
55.854
55.8492
55.8443
55.8395
55.8347
55.83
55.8253
55.8206
55.8159
55.8113
55.8067
55.8021
55.7976
55.7931
55.7886
55.7841
55.7797
55.7752
55.7708
55.7665
55.7621
55.7578
55.7535
55.7492
55.7449
55.7407
55.7365
55.7323
55.7281
55.7239
55.7198
55.7156
55.7115
55.7074
55.7033
55.6993
55.6952
55.6912
55.6872
55.6832
55.6792
55.6752
55.6712
55.6673
55.6633
55.6594
55.6555
55.6516
55.6477
55.6439
55.64
55.6361
55.6323
55.6285
55.6247
55.6209
55.6171
55.6133
55.6095
55.6058
55.602
55.5983
55.5945
55.5908
55.5871
55.5834
55.5797
55.576
55.5723
55.5686
55.565
55.5613
55.5577
55.554
55.5504
55.5467
55.5431
55.5395
55.5359
55.5323
55.5287
55.5251
55.5215
55.518
55.5144
55.5108
55.5073
55.5037
55.5002
55.4966
55.4931
55.4896
55.4861
55.4825
55.479
55.4755
55.472
55.4685
55.465
55.4615
55.4581
55.4546
55.4511
55.4476
55.4442
55.4407
55.4372
55.4338
55.4303
55.4269
55.4235
55.42
55.4166
55.4132
55.4097
55.4063
55.4029
55.3995
55.3961
55.3927
55.3893
55.3859
55.3825
55.3791
55.3757
55.3723
55.369
55.3656
55.3622
55.3588
55.3555
55.3521
55.3488
55.3454
55.342
55.3387
55.3353
55.332
55.3287
55.3253
55.322
55.3186
55.3153
55.312
55.3086
55.3053
55.302
55.2987
55.2953
55.292
55.2887
55.2854
55.2821
55.2788
55.2754
55.2721
55.2688
55.2655
55.2622
55.2589
55.2556
55.2523
55.249
55.2457
55.2424
55.239
55.2357
55.2324
55.2291
55.2258
55.2225
55.2192
55.2159
55.2126
55.2093
55.206
55.2027
55.1994
55.1961
55.1928
55.1895
55.1862
55.1829
55.1796
55.1763
55.173
55.1697
55.1664
55.1631
55.1598
55.1565
55.1532
55.1499
55.1466
55.1433
55.14
55.1367
55.1334
55.1301
55.1268
55.1235
55.1202
55.1169
55.1136
55.1103
55.107
55.1037
55.1004
55.0971
55.0938
55.0905
55.0872
55.0839
55.0806
55.0773
55.074
55.0707
55.0674
55.0641
55.0608
55.0575
55.0542
55.0509
55.0476
55.0443
55.041
55.0377
55.0344
55.0311
55.0278
55.0245
55.0212
55.0179
55.0146
55.0113
55.008
55.0047
55.0014
54.9981
54.9948
54.9915
54.9882
54.9849
54.9816
54.9783
54.975
54.9717
54.9684
54.9651
54.9618
54.9585
54.9552
54.9519
54.9486
54.9453
54.942
54.9387
54.9354
54.9321
54.9288
54.9255
54.9222
54.9189
54.9156
54.9123
54.909
54.9057
54.9024
54.8991
54.8958
54.8925
54.8892
54.8859
54.8826
54.8793
54.876
54.8727
54.8694
54.8661
54.8628
54.8595
54.8562
54.8529
54.8496
54.8463
54.843
54.8397
54.8364
54.8331
54.8298
54.8265
54.8232
54.8199
54.8166
54.8133
54.81
54.8067
54.8034
54.8001
54.7968
54.7935
54.7902
54.7869
54.7836
54.7803
54.777
54.7737
54.7704
54.7671
54.7638
54.7605
54.7572
54.7539
54.7506
54.7473
54.744
54.7407
54.7374
54.7341
54.7308
54.7275
54.7242
54.7209
54.7176
54.7143
54.711
54.7077
54.7044
54.7011
54.6978
54.6945
54.6912
54.6879
54.6846
54.6813
54.678
54.6747
54.6714
54.6681
54.6648
54.6615
54.6582
54.6549
54.6516
54.6483
54.645
54.6417
0.5
56.5477
56.5477
56.246
56.2048
56.1847
56.1703
56.1583
56.1476
56.1376
56.1281
56.1189
56.1101
56.1014
56.093
56.0848
56.0768
56.069
56.0613
56.0538
56.0464
56.0392
56.0321
56.0251
56.0183
56.0116
56.0049
55.9984
55.992
55.9857
55.9795
55.9733
55.9673
55.9613
55.9554
55.9495
55.9438
55.9381
55.9324
55.9268
55.9213
55.9159
55.9105
55.9051
55.8998
55.8945
55.8893
55.8842
55.879
55.874
55.8689
55.8639
55.859
55.854
55.8492
55.8443
55.8395
55.8347
55.83
55.8253
55.8206
55.8159
55.8113
55.8067
55.8021
55.7976
55.7931
55.7886
55.7841
55.7797
55.7752
55.7708
55.7665
55.7621
55.7578
55.7535
55.7492
55.7449
55.7407
55.7365
55.7323
55.7281
55.7239
55.7198
55.7156
55.7115
55.7074
55.7033
55.6993
55.6952
55.6912
55.6872
55.6832
55.6792
55.6752
55.6712
55.6673
55.6633
55.6594
55.6555
55.6516
55.6477
55.6439
55.64
55.6361
55.6323
55.6285
55.6247
55.6209
55.6171
55.6133
55.6095
55.6058
55.602
55.5983
55.5945
55.5908
55.5871
55.5834
55.5797
55.576
55.5723
55.5686
55.565
55.5613
55.5577
55.554
55.5504
55.5467
55.5431
55.5395
55.5359
55.5323
55.5287
55.5251
55.5215
55.518
55.5144
55.5108
55.5073
55.5037
55.5002
55.4966
55.4931
55.4896
55.4861
55.4825
55.479
55.4755
55.472
55.4685
55.465
55.4615
55.4581
55.4546
55.4511
55.4476
55.4442
55.4407
55.4372
55.4338
55.4303
55.4269
55.4235
55.42
55.4166
55.4132
55.4097
55.4063
55.4029
55.3995
55.3961
55.3927
55.3893
55.3859
55.3825
55.3791
55.3757
55.3723
55.369
55.3656
55.3622
55.3588
55.3555
55.3521
55.3488
55.3454
55.342
55.3387
55.3353
55.332
55.3287
55.3253
55.322
55.3186
55.3153
55.312
55.3086
55.3053
55.302
55.2987
55.2953
55.292
55.2887
55.2854
55.2821
55.2788
55.2754
55.2721
55.2688
55.2655
55.2622
55.2589
55.2556
55.2523
55.249
55.2457
55.2424
55.239
55.2357
55.2324
55.2291
55.2258
55.2225
55.2192
55.2159
55.2126
55.2093
55.206
55.2027
55.1994
55.1961
55.1928
55.1895
55.1862
55.1829
55.1796
55.1763
55.173
55.1697
55.1664
55.1631
55.1598
55.1565
55.1532
55.1499
55.1466
55.1433
55.14
55.1367
55.1334
55.1301
55.1268
55.1235
55.1202
55.1169
55.1136
55.1103
55.107
55.1037
55.1004
55.0971
55.0938
55.0905
55.0872
55.0839
55.0806
55.0773
55.074
55.0707
55.0674
55.0641
55.0608
55.0575
55.0542
55.0509
55.0476
55.0443
55.041
55.0377
55.0344
55.0311
55.0278
55.0245
55.0212
55.0179
55.0146
55.0113
55.008
55.0047
55.0014
54.9981
54.9948
54.9915
54.9882
54.9849
54.9816
54.9783
54.975
54.9717
54.9684
54.9651
54.9618
54.9585
54.9552
54.9519
54.9486
54.9453
54.942
54.9387
54.9354
54.9321
54.9288
54.9255
54.9222
54.9189
54.9156
54.9123
54.909
54.9057
54.9024
54.8991
54.8958
54.8925
54.8892
54.8859
54.8826
54.8793
54.876
54.8727
54.8694
54.8661
54.8628
54.8595
54.8562
54.8529
54.8496
54.8463
54.843
54.8397
54.8364
54.8331
54.8298
54.8265
54.8232
54.8199
54.8166
54.8133
54.81
54.8067
54.8034
54.8001
54.7968
54.7935
54.7902
54.7869
54.7836
54.7803
54.777
54.7737
54.7704
54.7671
54.7638
54.7605
54.7572
54.7539
54.7506
54.7473
54.744
54.7407
54.7374
54.7341
54.7308
54.7275
54.7242
54.7209
54.7176
54.7143
54.711
54.7077
54.7044
54.7011
54.6978
54.6945
54.6912
54.6879
54.6846
54.6813
54.678
54.6747
54.6714
54.6681
54.6648
54.6615
54.6582
54.6549
54.6516
54.6483
54.645
54.6417
54.6417
56.5331
56.5331
56.2498
56.2061
56.1854
56.1707
56.1586
56.1478
56.1377
56.1282
56.119
56.1101
56.1015
56.0931
56.0849
56.0769
56.069
56.0613
56.0538
56.0464
56.0392
56.0321
56.0252
56.0183
56.0116
56.005
55.9985
55.992
55.9857
55.9795
55.9733
55.9673
55.9613
55.9554
55.9495
55.9438
55.9381
55.9324
55.9269
55.9213
55.9159
55.9105
55.9051
55.8998
55.8945
55.8893
55.8842
55.879
55.874
55.8689
55.8639
55.859
55.8541
55.8492
55.8443
55.8395
55.8347
55.83
55.8253
55.8206
55.8159
55.8113
55.8067
55.8021
55.7976
55.7931
55.7886
55.7841
55.7797
55.7752
55.7708
55.7665
55.7621
55.7578
55.7535
55.7492
55.7449
55.7407
55.7365
55.7323
55.7281
55.7239
55.7198
55.7156
55.7115
55.7074
55.7033
55.6993
55.6952
55.6912
55.6872
55.6832
55.6792
55.6752
55.6712
55.6673
55.6633
55.6594
55.6555
55.6516
55.6477
55.6439
55.64
55.6362
55.6323
55.6285
55.6247
55.6209
55.6171
55.6133
55.6095
55.6058
55.602
55.5983
55.5945
55.5908
55.5871
55.5834
55.5797
55.576
55.5723
55.5686
55.565
55.5613
55.5577
55.554
55.5504
55.5467
55.5431
55.5395
55.5359
55.5323
55.5287
55.5251
55.5215
55.518
55.5144
55.5108
55.5073
55.5037
55.5002
55.4966
55.4931
55.4896
55.4861
55.4825
55.479
55.4755
55.472
55.4685
55.465
55.4615
55.4581
55.4546
55.4511
55.4476
55.4442
55.4407
55.4372
55.4338
55.4303
55.4269
55.4235
55.42
55.4166
55.4132
55.4097
55.4063
55.4029
55.3995
55.3961
55.3927
55.3893
55.3859
55.3825
55.3791
55.3757
55.3723
55.369
55.3656
55.3622
55.3588
55.3555
55.3521
55.3488
55.3454
55.342
55.3387
55.3353
55.332
55.3287
55.3253
55.322
55.3186
55.3153
55.312
55.3086
55.3053
55.302
55.2987
55.2953
55.292
55.2887
55.2854
55.2821
55.2788
55.2754
55.2721
55.2688
55.2655
55.2622
55.2589
55.2556
55.2523
55.249
55.2457
55.2424
55.239
55.2357
55.2324
55.2291
55.2258
55.2225
55.2192
55.2159
55.2126
55.2093
55.206
55.2027
55.1994
55.1961
55.1928
55.1895
55.1862
55.1829
55.1796
55.1763
55.173
55.1697
55.1664
55.1631
55.1598
55.1565
55.1532
55.1499
55.1466
55.1433
55.14
55.1367
55.1334
55.1301
55.1268
55.1235
55.1202
55.1169
55.1136
55.1103
55.107
55.1037
55.1004
55.0971
55.0938
55.0905
55.0872
55.0839
55.0806
55.0773
55.074
55.0707
55.0674
55.0641
55.0608
55.0575
55.0542
55.0509
55.0476
55.0443
55.041
55.0377
55.0344
55.0311
55.0278
55.0245
55.0212
55.0179
55.0146
55.0113
55.008
55.0047
55.0014
54.9981
54.9948
54.9915
54.9882
54.9849
54.9816
54.9783
54.975
54.9717
54.9684
54.9651
54.9618
54.9585
54.9552
54.9519
54.9486
54.9453
54.942
54.9387
54.9354
54.9321
54.9288
54.9255
54.9222
54.9189
54.9156
54.9123
54.909
54.9057
54.9024
54.8991
54.8958
54.8925
54.8892
54.8859
54.8826
54.8793
54.876
54.8727
54.8694
54.8661
54.8628
54.8595
54.8562
54.8529
54.8496
54.8463
54.843
54.8397
54.8364
54.8331
54.8298
54.8265
54.8232
54.8199
54.8166
54.8133
54.81
54.8067
54.8034
54.8001
54.7968
54.7935
54.7902
54.7869
54.7836
54.7803
54.777
54.7737
54.7704
54.7671
54.7638
54.7605
54.7572
54.7539
54.7506
54.7473
54.744
54.7407
54.7374
54.7341
54.7308
54.7275
54.7242
54.7209
54.7176
54.7143
54.711
54.7077
54.7044
54.7011
54.6978
54.6945
54.6912
54.6879
54.6846
54.6813
54.678
54.6747
54.6714
54.6681
54.6648
54.6615
54.6582
54.6549
54.6516
54.6483
54.645
54.6417
54.6417
56.5172
56.5172
56.253
56.2073
56.186
56.1711
56.1589
56.148
56.1379
56.1283
56.1191
56.1102
56.1016
56.0932
56.0849
56.0769
56.0691
56.0614
56.0539
56.0465
56.0392
56.0322
56.0252
56.0183
56.0116
56.005
55.9985
55.9921
55.9857
55.9795
55.9734
55.9673
55.9613
55.9554
55.9496
55.9438
55.9381
55.9324
55.9269
55.9213
55.9159
55.9105
55.9051
55.8998
55.8946
55.8893
55.8842
55.8791
55.874
55.8689
55.8639
55.859
55.8541
55.8492
55.8443
55.8395
55.8347
55.83
55.8253
55.8206
55.8159
55.8113
55.8067
55.8021
55.7976
55.7931
55.7886
55.7841
55.7797
55.7752
55.7709
55.7665
55.7621
55.7578
55.7535
55.7492
55.745
55.7407
55.7365
55.7323
55.7281
55.7239
55.7198
55.7156
55.7115
55.7074
55.7033
55.6993
55.6952
55.6912
55.6872
55.6832
55.6792
55.6752
55.6712
55.6673
55.6633
55.6594
55.6555
55.6516
55.6477
55.6439
55.64
55.6362
55.6323
55.6285
55.6247
55.6209
55.6171
55.6133
55.6095
55.6058
55.602
55.5983
55.5945
55.5908
55.5871
55.5834
55.5797
55.576
55.5723
55.5686
55.565
55.5613
55.5577
55.554
55.5504
55.5467
55.5431
55.5395
55.5359
55.5323
55.5287
55.5251
55.5215
55.518
55.5144
55.5108
55.5073
55.5037
55.5002
55.4966
55.4931
55.4896
55.4861
55.4825
55.479
55.4755
55.472
55.4685
55.465
55.4615
55.4581
55.4546
55.4511
55.4476
55.4442
55.4407
55.4372
55.4338
55.4303
55.4269
55.4235
55.42
55.4166
55.4132
55.4097
55.4063
55.4029
55.3995
55.3961
55.3927
55.3893
55.3859
55.3825
55.3791
55.3757
55.3723
55.369
55.3656
55.3622
55.3588
55.3555
55.3521
55.3488
55.3454
55.342
55.3387
55.3353
55.332
55.3287
55.3253
55.322
55.3186
55.3153
55.312
55.3086
55.3053
55.302
55.2987
55.2953
55.292
55.2887
55.2854
55.2821
55.2788
55.2754
55.2721
55.2688
55.2655
55.2622
55.2589
55.2556
55.2523
55.249
55.2457
55.2424
55.239
55.2357
55.2324
55.2291
55.2258
55.2225
55.2192
55.2159
55.2126
55.2093
55.206
55.2027
55.1994
55.1961
55.1928
55.1895
55.1862
55.1829
55.1796
55.1763
55.173
55.1697
55.1664
55.1631
55.1598
55.1565
55.1532
55.1499
55.1466
55.1433
55.14
55.1367
55.1334
55.1301
55.1268
55.1235
55.1202
55.1169
55.1136
55.1103
55.107
55.1037
55.1004
55.0971
55.0938
55.0905
55.0872
55.0839
55.0806
55.0773
55.074
55.0707
55.0674
55.0641
55.0608
55.0575
55.0542
55.0509
55.0476
55.0443
55.041
55.0377
55.0344
55.0311
55.0278
55.0245
55.0212
55.0179
55.0146
55.0113
55.008
55.0047
55.0014
54.9981
54.9948
54.9915
54.9882
54.9849
54.9816
54.9783
54.975
54.9717
54.9684
54.9651
54.9618
54.9585
54.9552
54.9519
54.9486
54.9453
54.942
54.9387
54.9354
54.9321
54.9288
54.9255
54.9222
54.9189
54.9156
54.9123
54.909
54.9057
54.9024
54.8991
54.8958
54.8925
54.8892
54.8859
54.8826
54.8793
54.876
54.8727
54.8694
54.8661
54.8628
54.8595
54.8562
54.8529
54.8496
54.8463
54.843
54.8397
54.8364
54.8331
54.8298
54.8265
54.8232
54.8199
54.8166
54.8133
54.81
54.8067
54.8034
54.8001
54.7968
54.7935
54.7902
54.7869
54.7836
54.7803
54.777
54.7737
54.7704
54.7671
54.7638
54.7605
54.7572
54.7539
54.7506
54.7473
54.744
54.7407
54.7374
54.7341
54.7308
54.7275
54.7242
54.7209
54.7176
54.7143
54.711
54.7077
54.7044
54.7011
54.6978
54.6945
54.6912
54.6879
54.6846
54.6813
54.678
54.6747
54.6714
54.6681
54.6648
54.6615
54.6582
54.6549
54.6516
54.6483
54.645
54.6417
54.6417
56.5012
56.5012
56.2559
56.2084
56.1866
56.1715
56.1591
56.1482
56.138
56.1284
56.1192
56.1103
56.1017
56.0932
56.085
56.077
56.0691
56.0614
56.0539
56.0465
56.0393
56.0322
56.0252
56.0184
56.0116
56.005
55.9985
55.9921
55.9858
55.9795
55.9734
55.9673
55.9613
55.9554
55.9496
55.9438
55.9381
55.9325
55.9269
55.9214
55.9159
55.9105
55.9051
55.8998
55.8946
55.8893
55.8842
55.8791
55.874
55.8689
55.8639
55.859
55.8541
55.8492
55.8443
55.8395
55.8347
55.83
55.8253
55.8206
55.8159
55.8113
55.8067
55.8021
55.7976
55.7931
55.7886
55.7841
55.7797
55.7753
55.7709
55.7665
55.7621
55.7578
55.7535
55.7492
55.745
55.7407
55.7365
55.7323
55.7281
55.7239
55.7198
55.7156
55.7115
55.7074
55.7033
55.6993
55.6952
55.6912
55.6872
55.6832
55.6792
55.6752
55.6712
55.6673
55.6633
55.6594
55.6555
55.6516
55.6477
55.6439
55.64
55.6362
55.6323
55.6285
55.6247
55.6209
55.6171
55.6133
55.6095
55.6058
55.602
55.5983
55.5945
55.5908
55.5871
55.5834
55.5797
55.576
55.5723
55.5686
55.565
55.5613
55.5577
55.554
55.5504
55.5467
55.5431
55.5395
55.5359
55.5323
55.5287
55.5251
55.5215
55.518
55.5144
55.5108
55.5073
55.5037
55.5002
55.4966
55.4931
55.4896
55.4861
55.4825
55.479
55.4755
55.472
55.4685
55.465
55.4615
55.4581
55.4546
55.4511
55.4476
55.4442
55.4407
55.4372
55.4338
55.4303
55.4269
55.4235
55.42
55.4166
55.4132
55.4097
55.4063
55.4029
55.3995
55.3961
55.3927
55.3893
55.3859
55.3825
55.3791
55.3757
55.3723
55.369
55.3656
55.3622
55.3588
55.3555
55.3521
55.3488
55.3454
55.342
55.3387
55.3353
55.332
55.3287
55.3253
55.322
55.3186
55.3153
55.312
55.3086
55.3053
55.302
55.2987
55.2953
55.292
55.2887
55.2854
55.2821
55.2788
55.2754
55.2721
55.2688
55.2655
55.2622
55.2589
55.2556
55.2523
55.249
55.2457
55.2424
55.2391
55.2357
55.2324
55.2291
55.2258
55.2225
55.2192
55.2159
55.2126
55.2093
55.206
55.2027
55.1994
55.1961
55.1928
55.1895
55.1862
55.1829
55.1796
55.1763
55.173
55.1697
55.1664
55.1631
55.1598
55.1565
55.1532
55.1499
55.1466
55.1433
55.14
55.1367
55.1334
55.1301
55.1268
55.1235
55.1202
55.1169
55.1136
55.1103
55.107
55.1037
55.1004
55.0971
55.0938
55.0905
55.0872
55.0839
55.0806
55.0773
55.074
55.0707
55.0674
55.0641
55.0608
55.0575
55.0542
55.0509
55.0476
55.0443
55.041
55.0377
55.0344
55.0311
55.0278
55.0245
55.0212
55.0179
55.0146
55.0113
55.008
55.0047
55.0014
54.9981
54.9948
54.9915
54.9882
54.9849
54.9816
54.9783
54.975
54.9717
54.9684
54.9651
54.9618
54.9585
54.9552
54.9519
54.9486
54.9453
54.942
54.9387
54.9354
54.9321
54.9288
54.9255
54.9222
54.9189
54.9156
54.9123
54.909
54.9057
54.9024
54.8991
54.8958
54.8925
54.8892
54.8859
54.8826
54.8793
54.876
54.8727
54.8694
54.8661
54.8628
54.8595
54.8562
54.8529
54.8496
54.8463
54.843
54.8397
54.8364
54.8331
54.8298
54.8265
54.8232
54.8199
54.8166
54.8133
54.81
54.8067
54.8034
54.8001
54.7968
54.7935
54.7902
54.7869
54.7836
54.7803
54.777
54.7737
54.7704
54.7671
54.7638
54.7605
54.7572
54.7539
54.7506
54.7473
54.744
54.7407
54.7374
54.7341
54.7308
54.7275
54.7242
54.7209
54.7176
54.7143
54.711
54.7077
54.7044
54.7011
54.6978
54.6945
54.6912
54.6879
54.6846
54.6813
54.678
54.6747
54.6714
54.6681
54.6648
54.6615
54.6582
54.6549
54.6516
54.6483
54.645
54.6417
54.6417
56.4861
56.4861
56.2586
56.2095
56.1872
56.1719
56.1594
56.1484
56.1382
56.1285
56.1193
56.1104
56.1017
56.0933
56.085
56.077
56.0691
56.0615
56.0539
56.0465
56.0393
56.0322
56.0252
56.0184
56.0116
56.005
55.9985
55.9921
55.9858
55.9795
55.9734
55.9673
55.9613
55.9554
55.9496
55.9438
55.9381
55.9325
55.9269
55.9214
55.9159
55.9105
55.9051
55.8998
55.8946
55.8894
55.8842
55.8791
55.874
55.8689
55.8639
55.859
55.8541
55.8492
55.8443
55.8395
55.8347
55.83
55.8253
55.8206
55.8159
55.8113
55.8067
55.8021
55.7976
55.7931
55.7886
55.7841
55.7797
55.7753
55.7709
55.7665
55.7621
55.7578
55.7535
55.7492
55.745
55.7407
55.7365
55.7323
55.7281
55.7239
55.7198
55.7156
55.7115
55.7074
55.7033
55.6993
55.6952
55.6912
55.6872
55.6832
55.6792
55.6752
55.6712
55.6673
55.6634
55.6594
55.6555
55.6516
55.6477
55.6439
55.64
55.6362
55.6323
55.6285
55.6247
55.6209
55.6171
55.6133
55.6095
55.6058
55.602
55.5983
55.5945
55.5908
55.5871
55.5834
55.5797
55.576
55.5723
55.5686
55.565
55.5613
55.5577
55.554
55.5504
55.5467
55.5431
55.5395
55.5359
55.5323
55.5287
55.5251
55.5215
55.518
55.5144
55.5108
55.5073
55.5037
55.5002
55.4966
55.4931
55.4896
55.4861
55.4825
55.479
55.4755
55.472
55.4685
55.465
55.4615
55.4581
55.4546
55.4511
55.4476
55.4442
55.4407
55.4372
55.4338
55.4303
55.4269
55.4235
55.42
55.4166
55.4132
55.4097
55.4063
55.4029
55.3995
55.3961
55.3927
55.3893
55.3859
55.3825
55.3791
55.3757
55.3723
55.369
55.3656
55.3622
55.3588
55.3555
55.3521
55.3488
55.3454
55.342
55.3387
55.3353
55.332
55.3287
55.3253
55.322
55.3186
55.3153
55.312
55.3086
55.3053
55.302
55.2987
55.2953
55.292
55.2887
55.2854
55.2821
55.2788
55.2754
55.2721
55.2688
55.2655
55.2622
55.2589
55.2556
55.2523
55.249
55.2457
55.2424
55.2391
55.2357
55.2324
55.2291
55.2258
55.2225
55.2192
55.2159
55.2126
55.2093
55.206
55.2027
55.1994
55.1961
55.1928
55.1895
55.1862
55.1829
55.1796
55.1763
55.173
55.1697
55.1664
55.1631
55.1598
55.1565
55.1532
55.1499
55.1466
55.1433
55.14
55.1367
55.1334
55.1301
55.1268
55.1235
55.1202
55.1169
55.1136
55.1103
55.107
55.1037
55.1004
55.0971
55.0938
55.0905
55.0872
55.0839
55.0806
55.0773
55.074
55.0707
55.0674
55.0641
55.0608
55.0575
55.0542
55.0509
55.0476
55.0443
55.041
55.0377
55.0344
55.0311
55.0278
55.0245
55.0212
55.0179
55.0146
55.0113
55.008
55.0047
55.0014
54.9981
54.9948
54.9915
54.9882
54.9849
54.9816
54.9783
54.975
54.9717
54.9684
54.9651
54.9618
54.9585
54.9552
54.9519
54.9486
54.9453
54.942
54.9387
54.9354
54.9321
54.9288
54.9255
54.9222
54.9189
54.9156
54.9123
54.909
54.9057
54.9024
54.8991
54.8958
54.8925
54.8892
54.8859
54.8826
54.8793
54.876
54.8727
54.8694
54.8661
54.8628
54.8595
54.8562
54.8529
54.8496
54.8463
54.843
54.8397
54.8364
54.8331
54.8298
54.8265
54.8232
54.8199
54.8166
54.8133
54.81
54.8067
54.8034
54.8001
54.7968
54.7935
54.7902
54.7869
54.7836
54.7803
54.777
54.7737
54.7704
54.7671
54.7638
54.7605
54.7572
54.7539
54.7506
54.7473
54.744
54.7407
54.7374
54.7341
54.7308
54.7275
54.7242
54.7209
54.7176
54.7143
54.711
54.7077
54.7044
54.7011
54.6978
54.6945
54.6912
54.6879
54.6846
54.6813
54.678
54.6747
54.6714
54.6681
54.6648
54.6615
54.6582
54.6549
54.6516
54.6483
54.645
54.6417
54.6417
56.4721
56.4721
56.2612
56.2106
56.1878
56.1722
56.1596
56.1486
56.1383
56.1287
56.1194
56.1105
56.1018
56.0933
56.0851
56.0771
56.0692
56.0615
56.054
56.0466
56.0393
56.0322
56.0253
56.0184
56.0117
56.005
55.9985
55.9921
55.9858
55.9795
55.9734
55.9673
55.9613
55.9554
55.9496
55.9438
55.9381
55.9325
55.9269
55.9214
55.9159
55.9105
55.9051
55.8998
55.8946
55.8894
55.8842
55.8791
55.874
55.869
55.864
55.859
55.8541
55.8492
55.8443
55.8395
55.8347
55.83
55.8253
55.8206
55.8159
55.8113
55.8067
55.8021
55.7976
55.7931
55.7886
55.7841
55.7797
55.7753
55.7709
55.7665
55.7621
55.7578
55.7535
55.7492
55.745
55.7407
55.7365
55.7323
55.7281
55.7239
55.7198
55.7156
55.7115
55.7074
55.7033
55.6993
55.6952
55.6912
55.6872
55.6832
55.6792
55.6752
55.6712
55.6673
55.6634
55.6594
55.6555
55.6516
55.6477
55.6439
55.64
55.6362
55.6323
55.6285
55.6247
55.6209
55.6171
55.6133
55.6095
55.6058
55.602
55.5983
55.5945
55.5908
55.5871
55.5834
55.5797
55.576
55.5723
55.5686
55.565
55.5613
55.5577
55.554
55.5504
55.5467
55.5431
55.5395
55.5359
55.5323
55.5287