# vtk DataFile Version 2.0
FlowField
ASCII
DATASET STRUCTURED_GRID
DIMENSIONS 400 1 200
POINTS 80000 float
0 0 0
0.08 0 0
0.16 0 0
0.24 0 0
0.32 0 0
0.4 0 0
0.48 0 0
0.56 0 0
0.64 0 0
0.72 0 0
0.8 0 0
0.88 0 0
0.96 0 0
1.04 0 0
1.12 0 0
1.2 0 0
1.28 0 0
1.36 0 0
1.44 0 0
1.52 0 0
1.6 0 0
1.68 0 0
1.76 0 0
1.84 0 0
1.92 0 0
2 0 0
2.08 0 0
2.16 0 0
2.24 0 0
2.32 0 0
2.4 0 0
2.48 0 0
2.56 0 0
2.64 0 0
2.72 0 0
2.8 0 0
2.88 0 0
2.96 0 0
3.04 0 0
3.12 0 0
3.2 0 0
3.28 0 0
3.36 0 0
3.44 0 0
3.52 0 0
3.6 0 0
3.68 0 0
3.76 0 0
3.84 0 0
3.92 0 0
4 0 0
4.08 0 0
4.16 0 0
4.24 0 0
4.32 0 0
4.4 0 0
4.48 0 0
4.56 0 0
4.64 0 0
4.72 0 0
4.8 0 0
4.88 0 0
4.96 0 0
5.04 0 0
5.12 0 0
5.2 0 0
5.28 0 0
5.36 0 0
5.44 0 0
5.52 0 0
5.6 0 0
5.68 0 0
5.76 0 0
5.84 0 0
5.92 0 0
6 0 0
6.08 0 0
6.16 0 0
6.24 0 0
6.32 0 0
6.4 0 0
6.48 0 0
6.56 0 0
6.64 0 0
6.72 0 0
6.8 0 0
6.88 0 0
6.96 0 0
7.04 0 0
7.12 0 0
7.2 0 0
7.28 0 0
7.36 0 0
7.44 0 0
7.52 0 0
7.6 0 0
7.68 0 0
7.76 0 0
7.84 0 0
7.92 0 0
8 0 0
8.08 0 0
8.16 0 0
8.24 0 0
8.32 0 0
8.4 0 0
8.48 0 0
8.56 0 0
8.64 0 0
8.72 0 0
8.8 0 0
8.88 0 0
8.96 0 0
9.04 0 0
9.12 0 0
9.2 0 0
9.28 0 0
9.36 0 0
9.44 0 0
9.52 0 0
9.6 0 0
9.68 0 0
9.76 0 0
9.84 0 0
9.92 0 0
10 0 0
10.08 0 0
10.16 0 0
10.24 0 0
10.32 0 0
10.4 0 0
10.48 0 0
10.56 0 0
10.64 0 0
10.72 0 0
10.8 0 0
10.88 0 0
10.96 0 0
11.04 0 0
11.12 0 0
11.2 0 0
11.28 0 0
11.36 0 0
11.44 0 0
11.52 0 0
11.6 0 0
11.68 0 0
11.76 0 0
11.84 0 0
11.92 0 0
12 0 0
12.08 0 0
12.16 0 0
12.24 0 0
12.32 0 0
12.4 0 0
12.48 0 0
12.56 0 0
12.64 0 0
12.72 0 0
12.8 0 0
12.88 0 0
12.96 0 0
13.04 0 0
13.12 0 0
13.2 0 0
13.28 0 0
13.36 0 0
13.44 0 0
13.52 0 0
13.6 0 0
13.68 0 0
13.76 0 0
13.84 0 0
13.92 0 0
14 0 0
14.08 0 0
14.16 0 0
14.24 0 0
14.32 0 0
14.4 0 0
14.48 0 0
14.56 0 0
14.64 0 0
14.72 0 0
14.8 0 0
14.88 0 0
14.96 0 0
15.04 0 0
15.12 0 0
15.2 0 0
15.28 0 0
15.36 0 0
15.44 0 0
15.52 0 0
15.6 0 0
15.68 0 0
15.76 0 0
15.84 0 0
15.92 0 0
16 0 0
16.08 0 0
16.16 0 0
16.24 0 0
16.32 0 0
16.4 0 0
16.48 0 0
16.56 0 0
16.64 0 0
16.72 0 0
16.8 0 0
16.88 0 0
16.96 0 0
17.04 0 0
17.12 0 0
17.2 0 0
17.28 0 0
17.36 0 0
17.44 0 0
17.52 0 0
17.6 0 0
17.68 0 0
17.76 0 0
17.84 0 0
17.92 0 0
18 0 0
18.08 0 0
18.16 0 0
18.24 0 0
18.32 0 0
18.4 0 0
18.48 0 0
18.56 0 0
18.64 0 0
18.72 0 0
18.8 0 0
18.88 0 0
18.96 0 0
19.04 0 0
19.12 0 0
19.2 0 0
19.28 0 0
19.36 0 0
19.44 0 0
19.52 0 0
19.6 0 0
19.68 0 0
19.76 0 0
19.84 0 0
19.92 0 0
20 0 0
20.08 0 0
20.16 0 0
20.24 0 0
20.32 0 0
20.4 0 0
20.48 0 0
20.56 0 0
20.64 0 0
20.72 0 0
20.8 0 0
20.88 0 0
20.96 0 0
21.04 0 0
21.12 0 0
21.2 0 0
21.28 0 0
21.36 0 0
21.44 0 0
21.52 0 0
21.6 0 0
21.68 0 0
21.76 0 0
21.84 0 0
21.92 0 0
22 0 0
22.08 0 0
22.16 0 0
22.24 0 0
22.32 0 0
22.4 0 0
22.48 0 0
22.56 0 0
22.64 0 0
22.72 0 0
22.8 0 0
22.88 0 0
22.96 0 0
23.04 0 0
23.12 0 0
23.2 0 0
23.28 0 0
23.36 0 0
23.44 0 0
23.52 0 0
23.6 0 0
23.68 0 0
23.76 0 0
23.84 0 0
23.92 0 0
24 0 0
24.08 0 0
24.16 0 0
24.24 0 0
24.32 0 0
24.4 0 0
24.48 0 0
24.56 0 0
24.64 0 0
24.72 0 0
24.8 0 0
24.88 0 0
24.96 0 0
25.04 0 0
25.12 0 0
25.2 0 0
25.28 0 0
25.36 0 0
25.44 0 0
25.52 0 0
25.6 0 0
25.68 0 0
25.76 0 0
25.84 0 0
25.92 0 0
26 0 0
26.08 0 0
26.16 0 0
26.24 0 0
26.32 0 0
26.4 0 0
26.48 0 0
26.56 0 0
26.64 0 0
26.72 0 0
26.8 0 0
26.88 0 0
26.96 0 0
27.04 0 0
27.12 0 0
27.2 0 0
27.28 0 0
27.36 0 0
27.44 0 0
27.52 0 0
27.6 0 0
27.68 0 0
27.76 0 0
27.84 0 0
27.92 0 0
28 0 0
28.08 0 0
28.16 0 0
28.24 0 0
28.32 0 0
28.4 0 0
28.48 0 0
28.56 0 0
28.64 0 0
28.72 0 0
28.8 0 0
28.88 0 0
28.96 0 0
29.04 0 0
29.12 0 0
29.2 0 0
29.28 0 0
29.36 0 0
29.44 0 0
29.52 0 0
29.6 0 0
29.68 0 0
29.76 0 0
29.84 0 0
29.92 0 0
30 0 0
30.08 0 0
30.16 0 0
30.24 0 0
30.32 0 0
30.4 0 0
30.48 0 0
30.56 0 0
30.64 0 0
30.72 0 0
30.8 0 0
30.88 0 0
30.96 0 0
31.04 0 0
31.12 0 0
31.2 0 0
31.28 0 0
31.36 0 0
31.44 0 0
31.52 0 0
31.6 0 0
31.68 0 0
31.76 0 0
31.84 0 0
31.92 0 0
0 0.005 0
0.08 0.005 0
0.16 0.005 0
0.24 0.005 0
0.32 0.005 0
0.4 0.005 0
0.48 0.005 0
0.56 0.005 0
0.64 0.005 0
0.72 0.005 0
0.8 0.005 0
0.88 0.005 0
0.96 0.005 0
1.04 0.005 0
1.12 0.005 0
1.2 0.005 0
1.28 0.005 0
1.36 0.005 0
1.44 0.005 0
1.52 0.005 0
1.6 0.005 0
1.68 0.005 0
1.76 0.005 0
1.84 0.005 0
1.92 0.005 0
2 0.005 0
2.08 0.005 0
2.16 0.005 0
2.24 0.005 0
2.32 0.005 0
2.4 0.005 0
2.48 0.005 0
2.56 0.005 0
2.64 0.005 0
2.72 0.005 0
2.8 0.005 0
2.88 0.005 0
2.96 0.005 0
3.04 0.005 0
3.12 0.005 0
3.2 0.005 0
3.28 0.005 0
3.36 0.005 0
3.44 0.005 0
3.52 0.005 0
3.6 0.005 0
3.68 0.005 0
3.76 0.005 0
3.84 0.005 0
3.92 0.005 0
4 0.005 0
4.08 0.005 0
4.16 0.005 0
4.24 0.005 0
4.32 0.005 0
4.4 0.005 0
4.48 0.005 0
4.56 0.005 0
4.64 0.005 0
4.72 0.005 0
4.8 0.005 0
4.88 0.005 0
4.96 0.005 0
5.04 0.005 0
5.12 0.005 0
5.2 0.005 0
5.28 0.005 0
5.36 0.005 0
5.44 0.005 0
5.52 0.005 0
5.6 0.005 0
5.68 0.005 0
5.76 0.005 0
5.84 0.005 0
5.92 0.005 0
6 0.005 0
6.08 0.005 0
6.16 0.005 0
6.24 0.005 0
6.32 0.005 0
6.4 0.005 0
6.48 0.005 0
6.56 0.005 0
6.64 0.005 0
6.72 0.005 0
6.8 0.005 0
6.88 0.005 0
6.96 0.005 0
7.04 0.005 0
7.12 0.005 0
7.2 0.005 0
7.28 0.005 0
7.36 0.005 0
7.44 0.005 0
7.52 0.005 0
7.6 0.005 0
7.68 0.005 0
7.76 0.005 0
7.84 0.005 0
7.92 0.005 0
8 0.005 0
8.08 0.005 0
8.16 0.005 0
8.24 0.005 0
8.32 0.005 0
8.4 0.005 0
8.48 0.005 0
8.56 0.005 0
8.64 0.005 0
8.72 0.005 0
8.8 0.005 0
8.88 0.005 0
8.96 0.005 0
9.04 0.005 0
9.12 0.005 0
9.2 0.005 0
9.28 0.005 0
9.36 0.005 0
9.44 0.005 0
9.52 0.005 0
9.6 0.005 0
9.68 0.005 0
9.76 0.005 0
9.84 0.005 0
9.92 0.005 0
10 0.005 0
10.08 0.005 0
10.16 0.005 0
10.24 0.005 0
10.32 0.005 0
10.4 0.005 0
10.48 0.005 0
10.56 0.005 0
10.64 0.005 0
10.72 0.005 0
10.8 0.005 0
10.88 0.005 0
10.96 0.005 0
11.04 0.005 0
11.12 0.005 0
11.2 0.005 0
11.28 0.005 0
11.36 0.005 0
11.44 0.005 0
11.52 0.005 0
11.6 0.005 0
11.68 0.005 0
11.76 0.005 0
11.84 0.005 0
11.92 0.005 0
12 0.005 0
12.08 0.005 0
12.16 0.005 0
12.24 0.005 0
12.32 0.005 0
12.4 0.005 0
12.48 0.005 0
12.56 0.005 0
12.64 0.005 0
12.72 0.005 0
12.8 0.005 0
12.88 0.005 0
12.96 0.005 0
13.04 0.005 0
13.12 0.005 0
13.2 0.005 0
13.28 0.005 0
13.36 0.005 0
13.44 0.005 0
13.52 0.005 0
13.6 0.005 0
13.68 0.005 0
13.76 0.005 0
13.84 0.005 0
13.92 0.005 0
14 0.005 0
14.08 0.005 0
14.16 0.005 0
14.24 0.005 0
14.32 0.005 0
14.4 0.005 0
14.48 0.005 0
14.56 0.005 0
14.64 0.005 0
14.72 0.005 0
14.8 0.005 0
14.88 0.005 0
14.96 0.005 0
15.04 0.005 0
15.12 0.005 0
15.2 0.005 0
15.28 0.005 0
15.36 0.005 0
15.44 0.005 0
15.52 0.005 0
15.6 0.005 0
15.68 0.005 0
15.76 0.005 0
15.84 0.005 0
15.92 0.005 0
16 0.005 0
16.08 0.005 0
16.16 0.005 0
16.24 0.005 0
16.32 0.005 0
16.4 0.005 0
16.48 0.005 0
16.56 0.005 0
16.64 0.005 0
16.72 0.005 0
16.8 0.005 0
16.88 0.005 0
16.96 0.005 0
17.04 0.005 0
17.12 0.005 0
17.2 0.005 0
17.28 0.005 0
17.36 0.005 0
17.44 0.005 0
17.52 0.005 0
17.6 0.005 0
17.68 0.005 0
17.76 0.005 0
17.84 0.005 0
17.92 0.005 0
18 0.005 0
18.08 0.005 0
18.16 0.005 0
18.24 0.005 0
18.32 0.005 0
18.4 0.005 0
18.48 0.005 0
18.56 0.005 0
18.64 0.005 0
18.72 0.005 0
18.8 0.005 0
18.88 0.005 0
18.96 0.005 0
19.04 0.005 0
19.12 0.005 0
19.2 0.005 0
19.28 0.005 0
19.36 0.005 0
19.44 0.005 0
19.52 0.005 0
19.6 0.005 0
19.68 0.005 0
19.76 0.005 0
19.84 0.005 0
19.92 0.005 0
20 0.005 0
20.08 0.005 0
20.16 0.005 0
20.24 0.005 0
20.32 0.005 0
20.4 0.005 0
20.48 0.005 0
20.56 0.005 0
20.64 0.005 0
20.72 0.005 0
20.8 0.005 0
20.88 0.005 0
20.96 0.005 0
21.04 0.005 0
21.12 0.005 0
21.2 0.005 0
21.28 0.005 0
21.36 0.005 0
21.44 0.005 0
21.52 0.005 0
21.6 0.005 0
21.68 0.005 0
21.76 0.005 0
21.84 0.005 0
21.92 0.005 0
22 0.005 0
22.08 0.005 0
22.16 0.005 0
22.24 0.005 0
22.32 0.005 0
22.4 0.005 0
22.48 0.005 0
22.56 0.005 0
22.64 0.005 0
22.72 0.005 0
22.8 0.005 0
22.88 0.005 0
22.96 0.005 0
23.04 0.005 0
23.12 0.005 0
23.2 0.005 0
23.28 0.005 0
23.36 0.005 0
23.44 0.005 0
23.52 0.005 0
23.6 0.005 0
23.68 0.005 0
23.76 0.005 0
23.84 0.005 0
23.92 0.005 0
24 0.005 0
24.08 0.005 0
24.16 0.005 0
24.24 0.005 0
24.32 0.005 0
24.4 0.005 0
24.48 0.005 0
24.56 0.005 0
24.64 0.005 0
24.72 0.005 0
24.8 0.005 0
24.88 0.005 0
24.96 0.005 0
25.04 0.005 0
25.12 0.005 0
25.2 0.005 0
25.28 0.005 0
25.36 0.005 0
25.44 0.005 0
25.52 0.005 0
25.6 0.005 0
25.68 0.005 0
25.76 0.005 0
25.84 0.005 0
25.92 0.005 0
26 0.005 0
26.08 0.005 0
26.16 0.005 0
26.24 0.005 0
26.32 0.005 0
26.4 0.005 0
26.48 0.005 0
26.56 0.005 0
26.64 0.005 0
26.72 0.005 0
26.8 0.005 0
26.88 0.005 0
26.96 0.005 0
27.04 0.005 0
27.12 0.005 0
27.2 0.005 0
27.28 0.005 0
27.36 0.005 0
27.44 0.005 0
27.52 0.005 0
27.6 0.005 0
27.68 0.005 0
27.76 0.005 0
27.84 0.005 0
27.92 0.005 0
28 0.005 0
28.08 0.005 0
28.16 0.005 0
28.24 0.005 0
28.32 0.005 0
28.4 0.005 0
28.48 0.005 0
28.56 0.005 0
28.64 0.005 0
28.72 0.005 0
28.8 0.005 0
28.88 0.005 0
28.96 0.005 0
29.04 0.005 0
29.12 0.005 0
29.2 0.005 0
29.28 0.005 0
29.36 0.005 0
29.44 0.005 0
29.52 0.005 0
29.6 0.005 0
29.68 0.005 0
29.76 0.005 0
29.84 0.005 0
29.92 0.005 0
30 0.005 0
30.08 0.005 0
30.16 0.005 0
30.24 0.005 0
30.32 0.005 0
30.4 0.005 0
30.48 0.005 0
30.56 0.005 0
30.64 0.005 0
30.72 0.005 0
30.8 0.005 0
30.88 0.005 0
30.96 0.005 0
31.04 0.005 0
31.12 0.005 0
31.2 0.005 0
31.28 0.005 0
31.36 0.005 0
31.44 0.005 0
31.52 0.005 0
31.6 0.005 0
31.68 0.005 0
31.76 0.005 0
31.84 0.005 0
31.92 0.005 0
0 0.01 0
0.08 0.01 0
0.16 0.01 0
0.24 0.01 0
0.32 0.01 0
0.4 0.01 0
0.48 0.01 0
0.56 0.01 0
0.64 0.01 0
0.72 0.01 0
0.8 0.01 0
0.88 0.01 0
0.96 0.01 0
1.04 0.01 0
1.12 0.01 0
1.2 0.01 0
1.28 0.01 0
1.36 0.01 0
1.44 0.01 0
1.52 0.01 0
1.6 0.01 0
1.68 0.01 0
1.76 0.01 0
1.84 0.01 0
1.92 0.01 0
2 0.01 0
2.08 0.01 0
2.16 0.01 0
2.24 0.01 0
2.32 0.01 0
2.4 0.01 0
2.48 0.01 0
2.56 0.01 0
2.64 0.01 0
2.72 0.01 0
2.8 0.01 0
2.88 0.01 0
2.96 0.01 0
3.04 0.01 0
3.12 0.01 0
3.2 0.01 0
3.28 0.01 0
3.36 0.01 0
3.44 0.01 0
3.52 0.01 0
3.6 0.01 0
3.68 0.01 0
3.76 0.01 0
3.84 0.01 0
3.92 0.01 0
4 0.01 0
4.08 0.01 0
4.16 0.01 0
4.24 0.01 0
4.32 0.01 0
4.4 0.01 0
4.48 0.01 0
4.56 0.01 0
4.64 0.01 0
4.72 0.01 0
4.8 0.01 0
4.88 0.01 0
4.96 0.01 0
5.04 0.01 0
5.12 0.01 0
[...]
POINT_DATA 80000

SCALARS v float 1
LOOKUP_TABLE default
0
0
0
0
0
0
0
0
0
0
0
0
0
0
0
0
0
0
0
0
0
0
0
0
0
0
0
0
0
0
0
0
0
0
0
0
0
0
0
0
0
0
0
0
0
0
0
0
0
0
0
0
0
0
0
0
0
0
0
0
0
0
0
0
0
0
0
0
0
0
0
0
0
0
0
0
0
0
0
0
0
0
0
0
0
0
0
0
0
0
0
0
0
0
0
0
0
0
0
0
0
0
0
0
0
0
0
0
0
0
0
0
0
0
0
0
0
0
0
0
0
0
0
0
0
0
0
0
0
0
0
0
0
0
0
0
0
0
0
0
0
0
0
0
0
0
0
0
0
0
0
0
0
0
0
0
0
0
0
0
0
0
0
0
0
0
0
0
0
0
0
0
0
0
0
0
0
0
0
0
0
0
0
0
0
0
0
0
0
0
0
0
0
0
0
0
0
0
0
0
0
0
0
0
0
0
0
0
0
0
0
0
0
0
0
0
0
0
0
0
0
0
0
0
0
0
0
0
0
0
0
0
0
0
0
0
0
0
0
0
0
0
0
0
0
0
0
0
0
0
0
0
0
0
0
0
0
0
0
0
0
0
0
0
0
0
0
0
0
0
0
0
0
0
0
0
0
0
0
0
0
0
0
0
0
0
0
0
0
0
0
0
0
0
0
0
0
0
0
0
0
0
0
0
0
0
0
0
0
0
0
0
0
0
0
0
0
0
0
0
0
0
0
0
0
0
0
0
0
0
0
0
0
0
0
0
0
0
0
0
0
0
0
0
0
0
0
0
0
0
0
0
0
0
0
0
0
0
0
0
0
0
0
0
0
0
0
0
0
0
0
0
0
0
0
0
0
0
0
0
0
0
0
0
0
0
0
0
0
0
0
0
0
0
0
0
0
0
0
0
-0.0542711
0.0542711
0.00396209
0.00099833
0.00049226
0.000302696
0.00020732
0.000151692
0.00011625
9.22938e-05
7.53807e-05
6.302e-05
5.37196e-05
4.65411e-05
4.08733e-05
3.63062e-05
3.25586e-05
2.94336e-05
2.67906e-05
2.45274e-05
2.25685e-05
2.08572e-05
1.93499e-05
1.80131e-05
1.682e-05
1.57496e-05
1.47844e-05
1.39105e-05
1.31161e-05
1.23915e-05
1.17283e-05
1.11195e-05
1.05592e-05
1.00421e-05
9.56376e-06
9.12028e-06
8.70822e-06
8.3246e-06
7.96676e-06
7.63237e-06
7.31936e-06
7.02587e-06
6.75027e-06
6.49106e-06
6.24694e-06
6.01671e-06
5.79929e-06
5.59371e-06
5.39909e-06
5.21464e-06
5.03963e-06
4.87339e-06
4.71532e-06
4.56487e-06
4.42153e-06
4.28484e-06
4.15437e-06
4.02973e-06
3.91055e-06
3.79651e-06
3.68728e-06
3.5826e-06
3.48219e-06
3.38581e-06
3.29322e-06
3.20423e-06
3.11863e-06
3.03624e-06
2.95688e-06
2.88041e-06
2.80666e-06
2.73551e-06
2.66681e-06
2.60046e-06
2.53633e-06
2.47432e-06
2.41433e-06
2.35626e-06
2.30003e-06
2.24554e-06
2.19274e-06
2.14153e-06
2.09186e-06
2.04365e-06
1.99684e-06
1.95138e-06
1.90721e-06
1.86428e-06
1.82254e-06
1.78195e-06
1.74245e-06
1.70401e-06
1.66659e-06
1.63015e-06
1.59465e-06
1.56007e-06
1.52636e-06
1.4935e-06
1.46147e-06
1.43022e-06
1.39974e-06
1.37e-06
1.34098e-06
1.31265e-06
1.285e-06
1.25799e-06
1.23162e-06
1.20586e-06
1.1807e-06
1.15611e-06
1.13208e-06
1.10859e-06
1.08563e-06
1.06319e-06
1.04125e-06
1.01979e-06
9.98808e-07
9.78284e-07
9.58209e-07
9.3857e-07
9.19357e-07
9.00558e-07
8.82163e-07
8.64162e-07
8.46544e-07
8.29302e-07
8.12425e-07
7.95904e-07
7.79732e-07
7.639e-07
7.48399e-07
7.33222e-07
7.18362e-07
7.03811e-07
6.89562e-07
6.75609e-07
6.61944e-07
6.48561e-07
6.35454e-07
6.22616e-07
6.10043e-07
5.97727e-07
5.85663e-07
5.73846e-07
5.6227e-07
5.50931e-07
5.39823e-07
5.2894e-07
5.18279e-07
5.07835e-07
4.97603e-07
4.87578e-07
4.77756e-07
4.68134e-07
4.58706e-07
4.49468e-07
4.40418e-07
4.3155e-07
4.22861e-07
4.14348e-07
4.06006e-07
3.97833e-07
3.89824e-07
3.81976e-07
3.74287e-07
3.66752e-07
3.59369e-07
3.52135e-07
3.45046e-07
3.381e-07
3.31293e-07
3.24624e-07
3.18088e-07
3.11684e-07
3.05408e-07
2.99259e-07
2.93233e-07
2.87328e-07
2.81541e-07
2.75871e-07
2.70315e-07
2.64871e-07
2.59535e-07
2.54307e-07
2.49184e-07
2.44164e-07
2.39245e-07
2.34424e-07
2.297e-07
2.25072e-07
2.20536e-07
2.16091e-07
2.11735e-07
2.07467e-07
2.03285e-07
1.99187e-07
1.95171e-07
1.91235e-07
1.87379e-07
1.836e-07
1.79897e-07
1.76269e-07
1.72714e-07
1.6923e-07
1.65816e-07
1.6247e-07
1.59192e-07
1.5598e-07
1.52832e-07
1.49748e-07
1.46725e-07
1.43764e-07
1.40862e-07
1.38018e-07
1.35232e-07
1.32502e-07
1.29826e-07
1.27205e-07
1.24636e-07
1.22119e-07
1.19652e-07
1.17235e-07
1.14867e-07
1.12547e-07
1.10273e-07
1.08045e-07
1.05862e-07
1.03723e-07
1.01627e-07
9.95729e-08
9.75604e-08
9.55885e-08
9.36564e-08
9.17632e-08
8.99081e-08
8.80905e-08
8.63094e-08
8.45643e-08
8.28544e-08
8.1179e-08
7.95373e-08
7.79288e-08
7.63526e-08
7.48083e-08
7.32952e-08
7.18125e-08
7.03598e-08
6.89364e-08
6.75417e-08
6.61752e-08
6.48362e-08
6.35243e-08
6.22388e-08
6.09793e-08
5.97452e-08
5.8536e-08
5.73512e-08
5.61904e-08
5.5053e-08
5.39385e-08
5.28466e-08
5.17766e-08
5.07284e-08
4.97012e-08
4.86948e-08
4.77088e-08
4.67426e-08
4.5796e-08
4.48685e-08
4.39597e-08
4.30693e-08
4.21968e-08
4.1342e-08
4.05045e-08
3.96839e-08
3.88798e-08
3.8092e-08
3.73202e-08
3.65639e-08
3.58229e-08
3.50969e-08
3.43856e-08
3.36887e-08
3.30058e-08
3.23368e-08
3.16813e-08
3.10391e-08
3.04099e-08
2.97934e-08
2.91895e-08
2.85977e-08
2.80179e-08
2.745e-08
2.68935e-08
2.63483e-08
2.58141e-08
2.52909e-08
2.47782e-08
2.42759e-08
2.37839e-08
2.33018e-08
2.28295e-08
2.23668e-08
2.19135e-08
2.14694e-08
2.10342e-08
2.06079e-08
2.01901e-08
1.97808e-08
1.93797e-08
1.89867e-08
1.86015e-08
1.8224e-08
1.78539e-08
1.74912e-08
1.71355e-08
1.67868e-08
1.64448e-08
1.61094e-08
1.57803e-08
1.54575e-08
1.51406e-08
1.48296e-08
1.45242e-08
1.42243e-08
1.39297e-08
1.36402e-08
1.33556e-08
1.30758e-08
1.28005e-08
1.25297e-08
1.22632e-08
1.20007e-08
1.17422e-08
1.14874e-08
1.12363e-08
1.09887e-08
1.07445e-08
1.05035e-08
1.02655e-08
1.00306e-08
9.79856e-09
9.56929e-09
9.34268e-09
9.11868e-09
8.89714e-09
8.6781e-09
8.46139e-09
8.24705e-09
8.03495e-09
7.82515e-09
7.6175e-09
7.41214e-09
7.20888e-09
7.0079e-09
6.80901e-09
6.61243e-09
6.41795e-09
6.22585e-09
6.03589e-09
5.84838e-09
5.66308e-09
5.48035e-09
5.29986e-09
5.12208e-09
4.94665e-09
4.77401e-09
4.60388e-09
4.43661e-09
4.27205e-09
4.11034e-09
3.95167e-09
3.79567e-09
3.64324e-09
3.49308e-09
3.34729e-09
3.20294e-09
3.0643e-09
2.9256e-09
2.79474e-09
2.6612e-09
2.539e-09
2.40964e-09
2.29727e-09
2.17024e-09
2.0693e-09
1.94113e-09
1.85356e-09
1.71771e-09
1.64522e-09
1.48879e-09
1.43084e-09
1.22787e-09
1.17629e-09
8.75783e-10
8.08972e-10
3.36549e-10
3.04958e-10
-5.0622e-11
-5.0622e-11
-0.0952159
0.0952159
0.0129756
0.00385462
0.00193431
0.0011962
0.000821741
0.000602314
0.000462067
0.000367041
0.000299831
0.000250645
0.000213602
0.000184994
0.0001624
0.000144195
0.00012926
0.00011681
0.000106284
9.72762e-05
8.9483e-05
8.26777e-05
7.66868e-05
7.13754e-05
6.66372e-05
6.23871e-05
5.85564e-05
5.50887e-05
5.19373e-05
4.9063e-05
4.64331e-05
4.40194e-05
4.17981e-05
3.97484e-05
3.78526e-05
3.60951e-05
3.44622e-05
3.29422e-05
3.15245e-05
3.01997e-05
2.89598e-05
2.77972e-05
2.67056e-05
2.56789e-05
2.47121e-05
2.38003e-05
2.29393e-05
2.21252e-05
2.13546e-05
2.06242e-05
1.99313e-05
1.92731e-05
1.86473e-05
1.80516e-05
1.74842e-05
1.69431e-05
1.64266e-05
1.59332e-05
1.54615e-05
1.501e-05
1.45777e-05
1.41634e-05
1.3766e-05
1.33845e-05
1.30181e-05
1.2666e-05
1.23272e-05
1.20012e-05
1.16871e-05
1.13845e-05
1.10927e-05
1.08112e-05
1.05394e-05
1.02769e-05
1.00231e-05
9.77781e-06
9.54047e-06
9.31075e-06
9.0883e-06
8.87278e-06
8.6639e-06
8.46135e-06
8.26487e-06
8.07418e-06
7.88906e-06
7.70927e-06
7.53458e-06
7.36481e-06
7.19974e-06
7.0392e-06
6.88301e-06
6.73101e-06
6.58304e-06
6.43895e-06
6.2986e-06
6.16186e-06
6.02861e-06
5.89871e-06
5.77205e-06
5.64853e-06
5.52804e-06
5.41049e-06
5.29577e-06
5.18379e-06
5.07448e-06
4.96775e-06
4.86351e-06
4.7617e-06
4.66224e-06
4.56506e-06
4.4701e-06
4.37729e-06
4.28657e-06
4.19789e-06
4.11118e-06
4.02639e-06
3.94348e-06
3.86239e-06
3.78307e-06
3.70548e-06
3.62957e-06
3.5553e-06
3.48263e-06
3.41152e-06
3.34193e-06
3.27381e-06
3.20714e-06
3.14189e-06
3.07801e-06
3.01547e-06
2.95425e-06
2.8943e-06
2.83561e-06
2.77814e-06
2.72187e-06
2.66676e-06
2.61279e-06
2.55994e-06
2.50818e-06
2.45749e-06
2.40783e-06
2.3592e-06
2.31156e-06
2.2649e-06
2.21919e-06
2.17442e-06
2.13056e-06
2.08759e-06
2.0455e-06
2.00426e-06
1.96386e-06
1.92428e-06
1.88551e-06
1.84752e-06
1.8103e-06
1.77383e-06
1.7381e-06
1.70309e-06
1.66879e-06
1.63518e-06
1.60226e-06
1.56999e-06
1.53838e-06
1.5074e-06
1.47705e-06
1.44731e-06
1.41816e-06
1.38961e-06
1.36163e-06
1.33421e-06
1.30735e-06
1.28102e-06
1.25522e-06
1.22995e-06
1.20518e-06
1.18091e-06
1.15712e-06
1.13382e-06
1.11098e-06
1.08861e-06
1.06668e-06
1.04519e-06
1.02414e-06
1.0035e-06
9.83285e-07
9.63473e-07
9.4406e-07
9.25036e-07
9.06395e-07
8.88128e-07
8.70228e-07
8.52688e-07
8.35501e-07
8.18658e-07
8.02155e-07
7.85982e-07
7.70135e-07
7.54606e-07
7.3939e-07
7.24479e-07
7.09868e-07
6.95551e-07
6.81521e-07
6.67774e-07
6.54303e-07
6.41102e-07
6.28168e-07
6.15493e-07
6.03073e-07
5.90903e-07
5.78978e-07
5.67293e-07
5.55843e-07
5.44623e-07
5.33629e-07
5.22856e-07
5.123e-07
5.01956e-07
4.91821e-07
4.8189e-07
4.72158e-07
4.62623e-07
4.53279e-07
4.44124e-07
4.35153e-07
4.26363e-07
4.1775e-07
4.0931e-07
4.0104e-07
3.92937e-07
3.84998e-07
3.77218e-07
3.69595e-07
3.62126e-07
3.54807e-07
3.47636e-07
3.4061e-07
3.33725e-07
3.26979e-07
3.20369e-07
3.13892e-07
3.07546e-07
3.01328e-07
2.95235e-07
2.89266e-07
2.83417e-07
2.77685e-07
2.7207e-07
2.66568e-07
2.61177e-07
2.55894e-07
2.50719e-07
2.45647e-07
2.40678e-07
2.3581e-07
2.3104e-07
2.26366e-07
2.21786e-07
2.17299e-07
2.12902e-07
2.08595e-07
2.04374e-07
2.00238e-07
1.96186e-07
1.92216e-07
1.88326e-07
1.84515e-07
1.8078e-07
1.77121e-07
1.73536e-07
1.70024e-07
1.66582e-07
1.6321e-07
1.59906e-07
1.56668e-07
1.53497e-07
1.50389e-07
1.47344e-07
1.44361e-07
1.41437e-07
1.38574e-07
1.35767e-07
1.33018e-07
1.30325e-07
1.27685e-07
1.251e-07
1.22566e-07
1.20084e-07
1.17652e-07
1.1527e-07
1.12935e-07
1.10648e-07
1.08408e-07
1.06212e-07
1.04062e-07
1.01955e-07
9.98905e-08
9.78682e-08
9.58869e-08
9.39458e-08
9.20441e-08
9.0181e-08
8.83556e-08
8.65673e-08
8.48151e-08
8.30984e-08
8.14164e-08
7.97682e-08
7.81533e-08
7.65707e-08
7.50198e-08
7.34998e-08
7.20099e-08
7.05495e-08
6.91177e-08
6.77139e-08
6.63374e-08
6.49873e-08
6.36629e-08
6.23636e-08
6.10885e-08
5.98371e-08
5.86084e-08
5.74019e-08
5.62168e-08
5.50524e-08
5.3908e-08
5.27828e-08
5.16763e-08
5.05878e-08
4.95165e-08
4.84618e-08
4.74232e-08
4.63999e-08
4.53914e-08
4.43971e-08
4.34164e-08
4.24488e-08
4.14939e-08
4.0551e-08
3.96198e-08
3.86998e-08
3.77906e-08
3.68919e-08
3.60034e-08
3.51246e-08
3.42556e-08
3.33957e-08
3.25451e-08
3.17034e-08
3.08707e-08
3.00465e-08
2.92314e-08
2.84246e-08
2.76268e-08
2.68374e-08
2.60572e-08
2.52854e-08
2.4523e-08
2.37692e-08
2.30253e-08
2.22901e-08
2.15652e-08
2.08495e-08
2.01445e-08
1.9449e-08
1.87647e-08
1.80905e-08
1.74278e-08
1.6776e-08
1.61356e-08
1.55075e-08
1.48902e-08
1.4287e-08
1.36933e-08
1.31167e-08
1.25465e-08
1.19984e-08
1.14512e-08
1.0934e-08
1.0408e-08
9.92486e-09
9.41641e-09
8.97182e-09
8.47406e-09
8.0738e-09
7.57384e-09
7.22493e-09
6.69818e-09
6.40664e-09
5.80475e-09
5.56756e-09
4.79287e-09
4.57757e-09
3.43759e-09
3.15952e-09
1.37244e-09
1.20974e-09
-1.98021e-10
-1.98021e-10
-0.125293
0.125293
0.0249359
0.00835802
0.004278
0.00266152
0.00183374
0.00134635
0.00103388
0.000821704
0.000671387
0.00056125
0.000478232
0.000414085
0.00036341
0.000322576
0.000289079
0.000261164
0.000237571
0.000217385
0.000199929
0.000184691
0.000171281
0.000159395
0.000148795
0.00013929
0.000130724
0.000122972
0.000115928
0.000109505
0.000103628
9.8235e-05
9.32724e-05
8.86939e-05
8.44593e-05
8.0534e-05
7.68875e-05
7.3493e-05
7.03272e-05
6.73692e-05
6.46006e-05
6.2005e-05
5.95678e-05
5.72759e-05
5.51176e-05
5.30821e-05
5.11602e-05
4.9343e-05
4.76229e-05
4.59928e-05
4.44461e-05
4.29771e-05
4.15804e-05
4.02511e-05
3.89847e-05
3.77771e-05
3.66246e-05
3.55236e-05
3.44709e-05
3.34636e-05
3.2499e-05
3.15744e-05
3.06877e-05
2.98366e-05
2.90191e-05
2.82334e-05
2.74776e-05
2.67502e-05
2.60496e-05
2.53745e-05
2.47236e-05
2.40955e-05
2.34892e-05
2.29036e-05
2.23376e-05
2.17904e-05
2.1261e-05
2.07486e-05
2.02525e-05
1.97718e-05
1.93059e-05
1.88542e-05
1.8416e-05
1.79907e-05
1.75779e-05
1.71769e-05
1.67874e-05
1.64088e-05
1.60407e-05
1.56827e-05
1.53345e-05
1.49955e-05
1.46656e-05
1.43444e-05
1.40315e-05
1.37266e-05
1.34295e-05
1.31399e-05
1.28576e-05
1.25822e-05
1.23136e-05
1.20516e-05
1.17958e-05
1.15462e-05
1.13026e-05
1.10647e-05
1.08324e-05
1.06054e-05
1.03838e-05
1.01672e-05
9.95553e-06
9.7487e-06
9.54653e-06
9.34889e-06
9.15567e-06
8.96674e-06
8.78198e-06
8.60128e-06
8.42454e-06
8.25165e-06
8.08251e-06
7.91703e-06
7.75511e-06
7.59667e-06
7.44162e-06
7.28986e-06
7.14134e-06
6.99595e-06
6.85364e-06
6.71432e-06
6.57793e-06
6.4444e-06
6.31366e-06
6.18564e-06
6.06028e-06
5.93753e-06
5.81732e-06
5.6996e-06
5.58431e-06
5.47139e-06
5.36079e-06
5.25247e-06
5.14637e-06
5.04245e-06
4.94065e-06
4.84093e-06
4.74325e-06
4.64755e-06
4.55381e-06
4.46198e-06
4.37201e-06
4.28387e-06
4.19751e-06
4.11291e-06
4.03003e-06
3.94882e-06
3.86926e-06
3.7913e-06
3.71492e-06
3.64009e-06
3.56676e-06
3.49492e-06
3.42453e-06
3.35555e-06
3.28797e-06
3.22175e-06
3.15686e-06
3.09328e-06
3.03098e-06
2.96994e-06
2.91012e-06
2.85151e-06
2.79408e-06
2.7378e-06
2.68266e-06
2.62862e-06
2.57567e-06
2.52379e-06
2.47295e-06
2.42313e-06
2.37431e-06
2.32647e-06
2.2796e-06
2.23367e-06
2.18866e-06
2.14455e-06
2.10133e-06
2.05898e-06
2.01749e-06
1.97682e-06
1.93697e-06
1.89793e-06
1.85967e-06
1.82218e-06
1.78544e-06
1.74944e-06
1.71416e-06
1.67959e-06
1.64572e-06
1.61253e-06
1.58001e-06
1.54814e-06
1.51691e-06
1.4863e-06
1.45632e-06
1.42694e-06
1.39814e-06
1.36993e-06
1.34229e-06
1.3152e-06
1.28865e-06
1.26264e-06
1.23716e-06
1.21218e-06
1.18771e-06
1.16373e-06
1.14024e-06
1.11722e-06
1.09466e-06
1.07255e-06
1.05089e-06
1.02967e-06
1.00887e-06
9.88494e-07
9.68527e-07
9.48962e-07
9.29791e-07
9.11006e-07
8.92601e-07
8.74566e-07
8.56894e-07
8.39579e-07
8.22612e-07
8.05988e-07
7.89699e-07
7.73738e-07
7.58099e-07
7.42776e-07
7.27762e-07
7.1305e-07
6.98635e-07
6.84511e-07
6.70672e-07
6.57112e-07
6.43826e-07
6.30808e-07
6.18052e-07
6.05554e-07
5.93309e-07
5.8131e-07
5.69554e-07
5.58035e-07
5.46748e-07
5.35689e-07
5.24854e-07
5.14237e-07
5.03835e-07
4.93643e-07
4.83656e-07
4.73872e-07
4.64284e-07
4.54891e-07
4.45687e-07
4.36669e-07
4.27833e-07
4.19176e-07
4.10693e-07
4.02382e-07
3.94239e-07
3.8626e-07
3.78442e-07
3.70783e-07
3.63278e-07
3.55925e-07
3.4872e-07
3.41661e-07
3.34745e-07
3.27968e-07
3.21329e-07
3.14823e-07
3.0845e-07
3.02205e-07
2.96086e-07
2.90091e-07
2.84218e-07
2.78463e-07
2.72825e-07
2.67301e-07
2.61889e-07
2.56587e-07
2.51392e-07
2.46302e-07
2.41316e-07
2.36431e-07
2.31644e-07
2.26955e-07
2.22361e-07
2.17861e-07
2.13451e-07
2.09131e-07
2.04899e-07
2.00753e-07
1.9669e-07
1.9271e-07
1.88811e-07
1.8499e-07
1.81246e-07
1.77578e-07
1.73983e-07
1.70461e-07
1.67009e-07
1.63625e-07
1.60308e-07
1.57057e-07
1.5387e-07
1.50744e-07
1.47679e-07
1.44673e-07
1.41724e-07
1.38831e-07
1.35991e-07
1.33203e-07
1.30467e-07
1.27779e-07
1.25138e-07
1.22544e-07
1.19994e-07
1.17486e-07
1.1502e-07
1.12593e-07
1.10205e-07
1.07854e-07
1.05538e-07
1.03255e-07
1.01006e-07
9.87881e-08
9.66004e-08
9.44416e-08
9.23108e-08
9.02067e-08
8.81285e-08
8.60751e-08
8.40459e-08
8.20397e-08
8.00562e-08
7.80943e-08
7.61541e-08
7.42343e-08
7.23353e-08
7.04559e-08
6.85969e-08
6.67569e-08
6.4937e-08
6.31358e-08
6.1355e-08
5.95928e-08
5.78513e-08
5.61287e-08
5.44275e-08
5.27455e-08
5.10856e-08
4.94457e-08
4.78288e-08
4.62326e-08
4.46605e-08
4.311e-08
4.15846e-08
4.00821e-08
3.86054e-08
3.71534e-08
3.57272e-08
3.43284e-08
3.29543e-08
3.16117e-08
3.02907e-08
2.90077e-08
2.774e-08
2.65207e-08
2.53051e-08
2.41548e-08
2.29874e-08
2.19129e-08
2.07862e-08
1.97968e-08
1.8696e-08
1.78039e-08
1.67015e-08
1.59216e-08
1.47649e-08
1.41093e-08
1.27947e-08
1.22558e-08
1.05735e-08
1.00792e-08
7.61498e-09
6.97848e-09
3.12349e-09
2.70284e-09
-4.43277e-10
-4.43277e-10
-0.146488
0.146488
0.0383105
0.014234
0.00745602
0.00467275
0.00323055
0.00237653
0.00182708
0.00145306
0.00118762
0.000992883
0.000845958
0.000732363
0.000642595
0.000570249
0.000510907
0.00046146
0.000419681
0.000383945
0.00035305
0.00032609
0.00030237
0.000281354
0.000262615
0.000245814
0.000230678
0.000216981
0.000204538
0.000193192
0.000182814
0.000173291
0.000164528
0.000156444
0.000148969
0.000142039
0.000135602
0.000129611
0.000124023
0.000118802
0.000113916
0.000109336
0.000105035
0.00010099
9.71815e-05
9.35899e-05
9.01987e-05
8.69925e-05
8.39575e-05
8.10814e-05
7.83526e-05
7.5761e-05
7.32969e-05
7.09518e-05
6.87178e-05
6.65875e-05
6.45543e-05
6.26121e-05
6.07552e-05
5.89785e-05
5.7277e-05
5.56463e-05
5.40823e-05
5.25811e-05
5.11393e-05
4.97534e-05
4.84205e-05
4.71376e-05
4.59021e-05
4.47115e-05
4.35636e-05
4.2456e-05
4.13868e-05
4.03541e-05
3.93561e-05
3.83912e-05
3.74577e-05
3.65542e-05
3.56794e-05
3.48319e-05
3.40105e-05
3.3214e-05
3.24414e-05
3.16917e-05
3.09639e-05
3.0257e-05
2.95703e-05
2.89029e-05
2.8254e-05
2.7623e-05
2.70091e-05
2.64117e-05
2.58302e-05
2.52639e-05
2.47124e-05
2.41751e-05
2.36514e-05
2.3141e-05
2.26434e-05
2.21581e-05
2.16848e-05
2.1223e-05
2.07723e-05
2.03325e-05
1.99031e-05
1.94839e-05
1.90745e-05
1.86747e-05
1.82841e-05
1.79025e-05
1.75296e-05
1.71652e-05
1.6809e-05
1.64608e-05
1.61204e-05
1.57875e-05
1.5462e-05
1.51437e-05
1.48323e-05
1.45278e-05
1.42298e-05
1.39383e-05
1.36531e-05
1.3374e-05
1.31009e-05
1.28336e-05
1.2572e-05
1.23159e-05
1.20653e-05
1.18199e-05
1.15797e-05
1.13445e-05
1.11143e-05
1.08888e-05
1.0668e-05
1.04519e-05
1.02402e-05
1.00329e-05
9.82983e-06
9.63098e-06
9.43624e-06
9.24549e-06
9.05866e-06
8.87566e-06
8.69641e-06
8.52083e-06
8.34883e-06
8.18034e-06
8.01528e-06
7.85358e-06
7.69518e-06
7.53999e-06
7.38796e-06
7.23901e-06
7.09308e-06
6.95011e-06
6.81003e-06
6.67279e-06
6.53832e-06
6.40657e-06
6.27749e-06
6.15101e-06
6.02709e-06
5.90566e-06
5.78669e-06
5.67012e-06
5.55589e-06
5.44397e-06
5.3343e-06
5.22684e-06
5.12155e-06
5.01838e-06
4.91728e-06
4.81822e-06
4.72115e-06
4.62603e-06
4.53283e-06
4.44151e-06
4.35202e-06
4.26433e-06
4.1784e-06
4.0942e-06
4.0117e-06
3.93085e-06
3.85163e-06
3.774e-06
3.69793e-06
3.6234e-06
3.55036e-06
3.47879e-06
3.40865e-06
3.33993e-06
3.27259e-06
3.20661e-06
3.14195e-06
3.07859e-06
3.0165e-06
2.95566e-06
2.89605e-06
2.83764e-06
2.7804e-06
2.72431e-06
2.66935e-06
2.61549e-06
2.56272e-06
2.51101e-06
2.46034e-06
2.41069e-06
2.36204e-06
2.31436e-06
2.26765e-06
2.22188e-06
2.17702e-06
2.13307e-06
2.09001e-06
2.04781e-06
2.00646e-06
1.96595e-06
1.92625e-06
1.88735e-06
1.84923e-06
1.81188e-06
1.77528e-06
1.73942e-06
1.70429e-06
1.66986e-06
1.63612e-06
1.60307e-06
1.57068e-06
1.53894e-06
1.50784e-06
1.47737e-06
1.44752e-06
1.41826e-06
1.3896e-06
1.36151e-06
1.33399e-06
1.30703e-06
1.28061e-06
1.25472e-06
1.22935e-06
1.2045e-06
1.18015e-06
1.15629e-06
1.13291e-06
1.11e-06
1.08755e-06
1.06556e-06
1.04401e-06
1.0229e-06
1.00221e-06
9.81943e-07
9.62083e-07
9.42623e-07
9.23557e-07
9.04876e-07
8.86571e-07
8.68637e-07
8.51064e-07
8.33847e-07
8.16977e-07
8.00448e-07
7.84253e-07
7.68384e-07
7.52837e-07
7.37603e-07
7.22677e-07
7.08053e-07
6.93724e-07
6.79684e-07
6.65929e-07
6.52451e-07
6.39245e-07
6.26307e-07
6.1363e-07
6.01209e-07
5.89039e-07
5.77115e-07
5.65432e-07
5.53985e-07
5.4277e-07
5.31782e-07
5.21016e-07
5.10468e-07
5.00133e-07
4.90008e-07
4.80087e-07
4.70367e-07
4.60845e-07
4.51515e-07
4.42374e-07
4.33419e-07
4.24645e-07
4.16049e-07
4.07627e-07
3.99376e-07
3.91293e-07
3.83374e-07
3.75615e-07
3.68014e-07
3.60567e-07
3.53271e-07
3.46123e-07
3.39119e-07
3.32258e-07
3.25534e-07
3.18947e-07
3.12491e-07
3.06166e-07
2.99967e-07
2.93891e-07
2.87937e-07
2.821e-07
2.76377e-07
2.70767e-07
2.65266e-07
2.5987e-07
2.54578e-07
2.49387e-07
2.44292e-07
2.39292e-07
2.34384e-07
2.29565e-07
2.24831e-07
2.20181e-07
2.15611e-07
2.11119e-07
2.06701e-07
2.02356e-07
1.9808e-07
1.93872e-07
1.89728e-07
1.85646e-07
1.81623e-07
1.77658e-07
1.73747e-07
1.6989e-07
1.66084e-07
1.62326e-07
1.58615e-07
1.5495e-07
1.51328e-07
1.47749e-07
1.4421e-07
1.40711e-07
1.37251e-07
1.33828e-07
1.30441e-07
1.27091e-07
1.23775e-07
1.20496e-07
1.1725e-07
1.1404e-07
1.10863e-07
1.07722e-07
1.04614e-07
1.01543e-07
9.85052e-08
9.55055e-08
9.25402e-08
8.96142e-08
8.67236e-08
8.38741e-08
8.10613e-08
7.82915e-08
7.55602e-08
7.28736e-08
7.02277e-08
6.76277e-08
6.50716e-08
6.25615e-08
6.00999e-08
5.76825e-08
5.53207e-08
5.2998e-08
5.07418e-08
4.85141e-08
4.63706e-08
4.42357e-08
4.22138e-08
4.01657e-08
3.82769e-08
3.63025e-08
3.45626e-08
3.26368e-08
3.10665e-08
2.91425e-08
2.77664e-08
2.57546e-08
2.4593e-08
2.23169e-08
2.1355e-08
1.84572e-08
1.75693e-08
1.33427e-08
1.22035e-08
5.60396e-09
4.77867e-09
-7.85877e-10
-7.85877e-10
-0.160438
0.160438
0.0519966
0.0211683
0.0113796
0.00719514
0.00499512
0.00368317
0.00283556
0.00225694
0.00184546
0.00154313
0.00131479
0.00113812
0.00099845