# vtk DataFile Version 2.0
FlowField
ASCII
DATASET STRUCTURED_GRID
DIMENSIONS 400 1 200
POINTS 80000 float
0 0 0
0.08 0 0
0.16 0 0
0.24 0 0
0.32 0 0
0.4 0 0
0.48 0 0
0.56 0 0
0.64 0 0
0.72 0 0
0.8 0 0
0.88 0 0
0.96 0 0
1.04 0 0
1.12 0 0
1.2 0 0
1.28 0 0
1.36 0 0
1.44 0 0
1.52 0 0
1.6 0 0
1.68 0 0
1.76 0 0
1.84 0 0
1.92 0 0
2 0 0
2.08 0 0
2.16 0 0
2.24 0 0
2.32 0 0
2.4 0 0
2.48 0 0
2.56 0 0
2.64 0 0
2.72 0 0
2.8 0 0
2.88 0 0
2.96 0 0
3.04 0 0
3.12 0 0
3.2 0 0
3.28 0 0
3.36 0 0
3.44 0 0
3.52 0 0
3.6 0 0
3.68 0 0
3.76 0 0
3.84 0 0
3.92 0 0
4 0 0
4.08 0 0
4.16 0 0
4.24 0 0
4.32 0 0
4.4 0 0
4.48 0 0
4.56 0 0
4.64 0 0
4.72 0 0
4.8 0 0
4.88 0 0
4.96 0 0
5.04 0 0
5.12 0 0
5.2 0 0
5.28 0 0
5.36 0 0
5.44 0 0
5.52 0 0
5.6 0 0
5.68 0 0
5.76 0 0
5.84 0 0
5.92 0 0
6 0 0
6.08 0 0
6.16 0 0
6.24 0 0
6.32 0 0
6.4 0 0
6.48 0 0
6.56 0 0
6.64 0 0
6.72 0 0
6.8 0 0
6.88 0 0
6.96 0 0
7.04 0 0
7.12 0 0
7.2 0 0
7.28 0 0
7.36 0 0
7.44 0 0
7.52 0 0
7.6 0 0
7.68 0 0
7.76 0 0
7.84 0 0
7.92 0 0
8 0 0
8.08 0 0
8.16 0 0
8.24 0 0
8.32 0 0
8.4 0 0
8.48 0 0
8.56 0 0
8.64 0 0
8.72 0 0
8.8 0 0
8.88 0 0
8.96 0 0
9.04 0 0
9.12 0 0
9.2 0 0
9.28 0 0
9.36 0 0
9.44 0 0
9.52 0 0
9.6 0 0
9.68 0 0
9.76 0 0
9.84 0 0
9.92 0 0
10 0 0
10.08 0 0
10.16 0 0
10.24 0 0
10.32 0 0
10.4 0 0
10.48 0 0
10.56 0 0
10.64 0 0
10.72 0 0
10.8 0 0
10.88 0 0
10.96 0 0
11.04 0 0
11.12 0 0
11.2 0 0
11.28 0 0
11.36 0 0
11.44 0 0
11.52 0 0
11.6 0 0
11.68 0 0
11.76 0 0
11.84 0 0
11.92 0 0
12 0 0
12.08 0 0
12.16 0 0
12.24 0 0
12.32 0 0
12.4 0 0
12.48 0 0
12.56 0 0
12.64 0 0
12.72 0 0
12.8 0 0
12.88 0 0
12.96 0 0
13.04 0 0
13.12 0 0
13.2 0 0
13.28 0 0
13.36 0 0
13.44 0 0
13.52 0 0
13.6 0 0
13.68 0 0
13.76 0 0
13.84 0 0
13.92 0 0
14 0 0
14.08 0 0
14.16 0 0
14.24 0 0
14.32 0 0
14.4 0 0
14.48 0 0
14.56 0 0
14.64 0 0
14.72 0 0
14.8 0 0
14.88 0 0
14.96 0 0
15.04 0 0
15.12 0 0
15.2 0 0
15.28 0 0
15.36 0 0
15.44 0 0
15.52 0 0
15.6 0 0
15.68 0 0
15.76 0 0
15.84 0 0
15.92 0 0
16 0 0
16.08 0 0
16.16 0 0
16.24 0 0
16.32 0 0
16.4 0 0
16.48 0 0
16.56 0 0
16.64 0 0
16.72 0 0
16.8 0 0
16.88 0 0
16.96 0 0
17.04 0 0
17.12 0 0
17.2 0 0
17.28 0 0
17.36 0 0
17.44 0 0
17.52 0 0
17.6 0 0
17.68 0 0
17.76 0 0
17.84 0 0
17.92 0 0
18 0 0
18.08 0 0
18.16 0 0
18.24 0 0
18.32 0 0
18.4 0 0
18.48 0 0
18.56 0 0
18.64 0 0
18.72 0 0
18.8 0 0
18.88 0 0
18.96 0 0
19.04 0 0
19.12 0 0
19.2 0 0
19.28 0 0
19.36 0 0
19.44 0 0
19.52 0 0
19.6 0 0
19.68 0 0
19.76 0 0
19.84 0 0
19.92 0 0
20 0 0
20.08 0 0
20.16 0 0
20.24 0 0
20.32 0 0
20.4 0 0
20.48 0 0
20.56 0 0
20.64 0 0
20.72 0 0
20.8 0 0
20.88 0 0
20.96 0 0
21.04 0 0
21.12 0 0
21.2 0 0
21.28 0 0
21.36 0 0
21.44 0 0
21.52 0 0
21.6 0 0
21.68 0 0
21.76 0 0
21.84 0 0
21.92 0 0
22 0 0
22.08 0 0
22.16 0 0
22.24 0 0
22.32 0 0
22.4 0 0
22.48 0 0
22.56 0 0
22.64 0 0
22.72 0 0
22.8 0 0
22.88 0 0
22.96 0 0
23.04 0 0
23.12 0 0
23.2 0 0
23.28 0 0
23.36 0 0
23.44 0 0
23.52 0 0
23.6 0 0
23.68 0 0
23.76 0 0
23.84 0 0
23.92 0 0
24 0 0
24.08 0 0
24.16 0 0
24.24 0 0
24.32 0 0
24.4 0 0
24.48 0 0
24.56 0 0
24.64 0 0
24.72 0 0
24.8 0 0
24.88 0 0
24.96 0 0
25.04 0 0
25.12 0 0
25.2 0 0
25.28 0 0
25.36 0 0
25.44 0 0
25.52 0 0
25.6 0 0
25.68 0 0
25.76 0 0
25.84 0 0
25.92 0 0
26 0 0
26.08 0 0
26.16 0 0
26.24 0 0
26.32 0 0
26.4 0 0
26.48 0 0
26.56 0 0
26.64 0 0
26.72 0 0
26.8 0 0
26.88 0 0
26.96 0 0
27.04 0 0
27.12 0 0
27.2 0 0
27.28 0 0
27.36 0 0
27.44 0 0
27.52 0 0
27.6 0 0
27.68 0 0
27.76 0 0
27.84 0 0
27.92 0 0
28 0 0
28.08 0 0
28.16 0 0
28.24 0 0
28.32 0 0
28.4 0 0
28.48 0 0
28.56 0 0
28.64 0 0
28.72 0 0
28.8 0 0
28.88 0 0
28.96 0 0
29.04 0 0
29.12 0 0
29.2 0 0
29.28 0 0
29.36 0 0
29.44 0 0
29.52 0 0
29.6 0 0
29.68 0 0
29.76 0 0
29.84 0 0
29.92 0 0
30 0 0
30.08 0 0
30.16 0 0
30.24 0 0
30.32 0 0
30.4 0 0
30.48 0 0
30.56 0 0
30.64 0 0
30.72 0 0
30.8 0 0
30.88 0 0
30.96 0 0
31.04 0 0
31.12 0 0
31.2 0 0
31.28 0 0
31.36 0 0
31.44 0 0
31.52 0 0
31.6 0 0
31.68 0 0
31.76 0 0
31.84 0 0
31.92 0 0
0 0.005 0
0.08 0.005 0
0.16 0.005 0
0.24 0.005 0
0.32 0.005 0
0.4 0.005 0
0.48 0.005 0
0.56 0.005 0
0.64 0.005 0
0.72 0.005 0
0.8 0.005 0
0.88 0.005 0
0.96 0.005 0
1.04 0.005 0
1.12 0.005 0
1.2 0.005 0
1.28 0.005 0
1.36 0.005 0
1.44 0.005 0
1.52 0.005 0
1.6 0.005 0
1.68 0.005 0
1.76 0.005 0
1.84 0.005 0
1.92 0.005 0
2 0.005 0
2.08 0.005 0
2.16 0.005 0
2.24 0.005 0
2.32 0.005 0
2.4 0.005 0
2.48 0.005 0
2.56 0.005 0
2.64 0.005 0
2.72 0.005 0
2.8 0.005 0
2.88 0.005 0
2.96 0.005 0
3.04 0.005 0
3.12 0.005 0
3.2 0.005 0
3.28 0.005 0
3.36 0.005 0
3.44 0.005 0
3.52 0.005 0
3.6 0.005 0
3.68 0.005 0
3.76 0.005 0
3.84 0.005 0
3.92 0.005 0
4 0.005 0
4.08 0.005 0
4.16 0.005 0
4.24 0.005 0
4.32 0.005 0
4.4 0.005 0
4.48 0.005 0
4.56 0.005 0
4.64 0.005 0
4.72 0.005 0
4.8 0.005 0
4.88 0.005 0
4.96 0.005 0
5.04 0.005 0
5.12 0.005 0
5.2 0.005 0
5.28 0.005 0
5.36 0.005 0
5.44 0.005 0
5.52 0.005 0
5.6 0.005 0
5.68 0.005 0
5.76 0.005 0
5.84 0.005 0
5.92 0.005 0
6 0.005 0
6.08 0.005 0
6.16 0.005 0
6.24 0.005 0
6.32 0.005 0
6.4 0.005 0
6.48 0.005 0
6.56 0.005 0
6.64 0.005 0
6.72 0.005 0
6.8 0.005 0
6.88 0.005 0
6.96 0.005 0
7.04 0.005 0
7.12 0.005 0
7.2 0.005 0
7.28 0.005 0
7.36 0.005 0
7.44 0.005 0
7.52 0.005 0
7.6 0.005 0
7.68 0.005 0
7.76 0.005 0
7.84 0.005 0
7.92 0.005 0
8 0.005 0
8.08 0.005 0
8.16 0.005 0
8.24 0.005 0
8.32 0.005 0
8.4 0.005 0
8.48 0.005 0
8.56 0.005 0
8.64 0.005 0
8.72 0.005 0
8.8 0.005 0
8.88 0.005 0
8.96 0.005 0
9.04 0.005 0
9.12 0.005 0
9.2 0.005 0
9.28 0.005 0
9.36 0.005 0
9.44 0.005 0
9.52 0.005 0
9.6 0.005 0
9.68 0.005 0
9.76 0.005 0
9.84 0.005 0
9.92 0.005 0
10 0.005 0
10.08 0.005 0
10.16 0.005 0
10.24 0.005 0
10.32 0.005 0
10.4 0.005 0
10.48 0.005 0
10.56 0.005 0
10.64 0.005 0
10.72 0.005 0
10.8 0.005 0
10.88 0.005 0
10.96 0.005 0
11.04 0.005 0
11.12 0.005 0
11.2 0.005 0
11.28 0.005 0
11.36 0.005 0
11.44 0.005 0
11.52 0.005 0
11.6 0.005 0
11.68 0.005 0
11.76 0.005 0
11.84 0.005 0
11.92 0.005 0
12 0.005 0
12.08 0.005 0
12.16 0.005 0
12.24 0.005 0
12.32 0.005 0
12.4 0.005 0
12.48 0.005 0
12.56 0.005 0
12.64 0.005 0
12.72 0.005 0
12.8 0.005 0
12.88 0.005 0
12.96 0.005 0
13.04 0.005 0
13.12 0.005 0
13.2 0.005 0
13.28 0.005 0
13.36 0.005 0
13.44 0.005 0
13.52 0.005 0
13.6 0.005 0
13.68 0.005 0
13.76 0.005 0
13.84 0.005 0
13.92 0.005 0
14 0.005 0
14.08 0.005 0
14.16 0.005 0
14.24 0.005 0
14.32 0.005 0
14.4 0.005 0
14.48 0.005 0
14.56 0.005 0
14.64 0.005 0
14.72 0.005 0
14.8 0.005 0
14.88 0.005 0
14.96 0.005 0
15.04 0.005 0
15.12 0.005 0
15.2 0.005 0
15.28 0.005 0
15.36 0.005 0
15.44 0.005 0
15.52 0.005 0
15.6 0.005 0
15.68 0.005 0
15.76 0.005 0
15.84 0.005 0
15.92 0.005 0
16 0.005 0
16.08 0.005 0
16.16 0.005 0
16.24 0.005 0
16.32 0.005 0
16.4 0.005 0
16.48 0.005 0
16.56 0.005 0
16.64 0.005 0
16.72 0.005 0
16.8 0.005 0
16.88 0.005 0
16.96 0.005 0
17.04 0.005 0
17.12 0.005 0
17.2 0.005 0
17.28 0.005 0
17.36 0.005 0
17.44 0.005 0
17.52 0.005 0
17.6 0.005 0
17.68 0.005 0
17.76 0.005 0
17.84 0.005 0
17.92 0.005 0
18 0.005 0
18.08 0.005 0
18.16 0.005 0
18.24 0.005 0
18.32 0.005 0
18.4 0.005 0
18.48 0.005 0
18.56 0.005 0
18.64 0.005 0
18.72 0.005 0
18.8 0.005 0
18.88 0.005 0
18.96 0.005 0
19.04 0.005 0
19.12 0.005 0
19.2 0.005 0
19.28 0.005 0
19.36 0.005 0
19.44 0.005 0
19.52 0.005 0
19.6 0.005 0
19.68 0.005 0
19.76 0.005 0
19.84 0.005 0
19.92 0.005 0
20 0.005 0
20.08 0.005 0
20.16 0.005 0
20.24 0.005 0
20.32 0.005 0
20.4 0.005 0
20.48 0.005 0
20.56 0.005 0
20.64 0.005 0
20.72 0.005 0
20.8 0.005 0
20.88 0.005 0
20.96 0.005 0
21.04 0.005 0
21.12 0.005 0
21.2 0.005 0
21.28 0.005 0
21.36 0.005 0
21.44 0.005 0
21.52 0.005 0
21.6 0.005 0
21.68 0.005 0
21.76 0.005 0
21.84 0.005 0
21.92 0.005 0
22 0.005 0
22.08 0.005 0
22.16 0.005 0
22.24 0.005 0
22.32 0.005 0
22.4 0.005 0
22.48 0.005 0
22.56 0.005 0
22.64 0.005 0
22.72 0.005 0
22.8 0.005 0
22.88 0.005 0
22.96 0.005 0
23.04 0.005 0
23.12 0.005 0
23.2 0.005 0
23.28 0.005 0
23.36 0.005 0
23.44 0.005 0
23.52 0.005 0
23.6 0.005 0
23.68 0.005 0
23.76 0.005 0
23.84 0.005 0
23.92 0.005 0
24 0.005 0
24.08 0.005 0
24.16 0.005 0
24.24 0.005 0
24.32 0.005 0
24.4 0.005 0
24.48 0.005 0
24.56 0.005 0
24.64 0.005 0
24.72 0.005 0
24.8 0.005 0
24.88 0.005 0
24.96 0.005 0
25.04 0.005 0
25.12 0.005 0
25.2 0.005 0
25.28 0.005 0
25.36 0.005 0
25.44 0.005 0
25.52 0.005 0
25.6 0.005 0
25.68 0.005 0
25.76 0.005 0
25.84 0.005 0
25.92 0.005 0
26 0.005 0
26.08 0.005 0
26.16 0.005 0
26.24 0.005 0
26.32 0.005 0
26.4 0.005 0
26.48 0.005 0
26.56 0.005 0
26.64 0.005 0
26.72 0.005 0
26.8 0.005 0
26.88 0.005 0
26.96 0.005 0
27.04 0.005 0
27.12 0.005 0
27.2 0.005 0
27.28 0.005 0
27.36 0.005 0
27.44 0.005 0
27.52 0.005 0
27.6 0.005 0
27.68 0.005 0
27.76 0.005 0
27.84 0.005 0
27.92 0.005 0
28 0.005 0
28.08 0.005 0
28.16 0.005 0
28.24 0.005 0
28.32 0.005 0
28.4 0.005 0
28.48 0.005 0
28.56 0.005 0
28.64 0.005 0
28.72 0.005 0
28.8 0.005 0
28.88 0.005 0
28.96 0.005 0
29.04 0.005 0
29.12 0.005 0
29.2 0.005 0
29.28 0.005 0
29.36 0.005 0
29.44 0.005 0
29.52 0.005 0
29.6 0.005 0
29.68 0.005 0
29.76 0.005 0
29.84 0.005 0
29.92 0.005 0
30 0.005 0
30.08 0.005 0
30.16 0.005 0
30.24 0.005 0
30.32 0.005 0
30.4 0.005 0
30.48 0.005 0
30.56 0.005 0
30.64 0.005 0
30.72 0.005 0
30.8 0.005 0
30.88 0.005 0
30.96 0.005 0
31.04 0.005 0
31.12 0.005 0
31.2 0.005 0
31.28 0.005 0
31.36 0.005 0
31.44 0.005 0
31.52 0.005 0
31.6 0.005 0
31.68 0.005 0
31.76 0.005 0
31.84 0.005 0
31.92 0.005 0
0 0.01 0
0.08 0.01 0
0.16 0.01 0
0.24 0.01 0
0.32 0.01 0
0.4 0.01 0
0.48 0.01 0
0.56 0.01 0
0.64 0.01 0
0.72 0.01 0
0.8 0.01 0
0.88 0.01 0
0.96 0.01 0
1.04 0.01 0
1.12 0.01 0
1.2 0.01 0
1.28 0.01 0
1.36 0.01 0
1.44 0.01 0
1.52 0.01 0
1.6 0.01 0
1.68 0.01 0
1.76 0.01 0
1.84 0.01 0
1.92 0.01 0
2 0.01 0
2.08 0.01 0
2.16 0.01 0
2.24 0.01 0
2.32 0.01 0
2.4 0.01 0
2.48 0.01 0
2.56 0.01 0
2.64 0.01 0
2.72 0.01 0
2.8 0.01 0
2.88 0.01 0
2.96 0.01 0
3.04 0.01 0
3.12 0.01 0
3.2 0.01 0
3.28 0.01 0
3.36 0.01 0
3.44 0.01 0
3.52 0.01 0
3.6 0.01 0
3.68 0.01 0
3.76 0.01 0
3.84 0.01 0
3.92 0.01 0
4 0.01 0
4.08 0.01 0
4.16 0.01 0
4.24 0.01 0
4.32 0.01 0
4.4 0.01 0
4.48 0.01 0
4.56 0.01 0
4.64 0.01 0
4.72 0.01 0
4.8 0.01 0
4.88 0.01 0
4.96 0.01 0
5.04 0.01 0
5.12 0.01 0
[...]
POINT_DATA 80000

SCALARS p float 1
LOOKUP_TABLE default
1
56.9549
56.6531
56.6119
56.5918
56.5774
56.5654
56.5547
56.5447
56.5352
56.5261
56.5172
56.5086
56.5003
56.4921
56.4841
56.4764
56.4687
56.4613
56.454
56.4469
56.44
56.4331
56.4265
56.42
56.4137
56.4076
56.4016
56.3958
56.3902
56.3848
56.3796
56.3745
56.3695
56.3646
56.3596
56.3547
56.3499
56.345
56.3402
56.3355
56.3308
56.3263
56.3218
56.3173
56.3129
56.3086
56.3042
56.2999
56.2956
56.2913
56.287
56.2827
56.2784
56.274
56.2697
56.2654
56.2611
56.2568
56.2525
56.2481
56.2438
56.2395
56.2352
56.2308
56.2265
56.2222
56.2178
56.2135
56.2091
56.2048
56.2005
56.1961
56.1917
56.1874
56.183
56.1787
56.1743
56.1699
56.1656
56.1612
56.1568
56.1524
56.148
56.1437
56.1393
56.1349
56.1305
56.1261
56.1217
56.1173
56.1128
56.1084
56.104
56.0996
56.0952
56.0907
56.0863
56.0819
56.0774
56.073
56.0685
56.0641
56.0596
56.0552
56.0507
56.0463
56.0418
56.0373
56.0329
56.0284
56.0239
56.0194
56.015
56.0105
56.006
56.0015
55.997
55.9925
55.988
55.9835
55.979
55.9745
55.97
55.9655
55.961
55.9565
55.952
55.9474
55.9429
55.9384
55.9339
55.9293
55.9248
55.9203
55.9158
55.9112
55.9067
55.9022
55.8976
55.8931
55.8886
55.884
55.8795
55.8749
55.8704
55.8658
55.8613
55.8568
55.8522
55.8477
55.8431
55.8386
55.834
55.8294
55.8249
55.8203
55.8158
55.8112
55.8067
55.8021
55.7976
55.793
55.7884
55.7839
55.7793
55.7748
55.7702
55.7656
55.7611
55.7565
55.7519
55.7474
55.7428
55.7382
55.7337
55.7291
55.7245
55.72
55.7154
55.7108
55.7063
55.7017
55.6971
55.6925
55.688
55.6834
55.6788
55.6743
55.6697
55.6651
55.6605
55.656
55.6514
55.6468
55.6422
55.6377
55.6331
55.6285
55.6239
55.6194
55.6148
55.6102
55.6056
55.6011
55.5965
55.5919
55.5873
55.5827
55.5782
55.5736
55.569
55.5644
55.5598
55.5553
55.5507
55.5461
55.5415
55.5369
55.5323
55.5278
55.5232
55.5186
55.514
55.5094
55.5048
55.5003
55.4957
55.4911
55.4865
55.4819
55.4773
55.4727
55.4682
55.4636
55.459
55.4544
55.4498
55.4452
55.4406
55.436
55.4314
55.4268
55.4223
55.4177
55.4131
55.4085
55.4039
55.3993
55.3947
55.3901
55.3855
55.3809
55.3763
55.3717
55.3671
55.3625
55.3579
55.3533
55.3487
55.3441
55.3395
55.3349
55.3303
55.3257
55.3211
55.3165
55.3119
55.3073
55.3027
55.2981
55.2935
55.2889
55.2843
55.2797
55.2751
55.2705
55.2659
55.2613
55.2567
55.2521
55.2475
55.2428
55.2382
55.2336
55.229
55.2244
55.2198
55.2152
55.2106
55.206
55.2014
55.1967
55.1921
55.1875
55.1829
55.1783
55.1737
55.169
55.1644
55.1598
55.1552
55.1506
55.146
55.1413
55.1367
55.1321
55.1275
55.1229
55.1182
55.1136
55.109
55.1044
55.0997
55.0951
55.0905
55.0859
55.0812
55.0766
55.072
55.0674
55.0627
55.0581
55.0535
55.0488
55.0442
55.0396
55.0349
55.0303
55.0257
55.021
55.0164
55.0118
55.0071
55.0025
54.9979
54.9932
54.9886
54.984
54.9793
54.9747
54.97
54.9654
54.9608
54.9561
54.9515
54.9468
54.9422
54.9375
54.9329
54.9282
54.9236
54.919
54.9143
54.9097
54.905
54.9004
54.8957
54.8911
54.8864
54.8818
54.8771
54.8724
54.8678
54.8631
54.8585
54.8538
54.8492
54.8445
54.8399
54.8352
54.8305
54.8259
54.8212
54.8166
54.8119
54.8072
54.8026
54.7979
54.7932
54.7886
54.7839
54.7792
54.7746
54.7699
54.7652
54.7606
54.7559
54.7512
54.7465
54.7419
54.7372
54.7325
54.7279
54.7232
54.7185
54.7138
54.7091
54.7045
0.5
56.9549
56.9549
56.6531
56.6119
56.5918
56.5774
56.5654
56.5547
56.5447
56.5352
56.5261
56.5172
56.5086
56.5003
56.4921
56.4841
56.4764
56.4687
56.4613
56.454
56.4469
56.44
56.4331
56.4265
56.42
56.4137
56.4076
56.4016
56.3958
56.3902
56.3848
56.3796
56.3745
56.3695
56.3646
56.3596
56.3547
56.3499
56.345
56.3402
56.3355
56.3308
56.3263
56.3218
56.3173
56.3129
56.3086
56.3042
56.2999
56.2956
56.2913
56.287
56.2827
56.2784
56.274
56.2697
56.2654
56.2611
56.2568
56.2525
56.2481
56.2438
56.2395
56.2352
56.2308
56.2265
56.2222
56.2178
56.2135
56.2091
56.2048
56.2005
56.1961
56.1917
56.1874
56.183
56.1787
56.1743
56.1699
56.1656
56.1612
56.1568
56.1524
56.148
56.1437
56.1393
56.1349
56.1305
56.1261
56.1217
56.1173
56.1128
56.1084
56.104
56.0996
56.0952
56.0907
56.0863
56.0819
56.0774
56.073
56.0685
56.0641
56.0596
56.0552
56.0507
56.0463
56.0418
56.0373
56.0329
56.0284
56.0239
56.0194
56.015
56.0105
56.006
56.0015
55.997
55.9925
55.988
55.9835
55.979
55.9745
55.97
55.9655
55.961
55.9565
55.952
55.9474
55.9429
55.9384
55.9339
55.9293
55.9248
55.9203
55.9158
55.9112
55.9067
55.9022
55.8976
55.8931
55.8886
55.884
55.8795
55.8749
55.8704
55.8658
55.8613
55.8568
55.8522
55.8477
55.8431
55.8386
55.834
55.8294
55.8249
55.8203
55.8158
55.8112
55.8067
55.8021
55.7976
55.793
55.7884
55.7839
55.7793
55.7748
55.7702
55.7656
55.7611
55.7565
55.7519
55.7474
55.7428
55.7382
55.7337
55.7291
55.7245
55.72
55.7154
55.7108
55.7063
55.7017
55.6971
55.6925
55.688
55.6834
55.6788
55.6743
55.6697
55.6651
55.6605
55.656
55.6514
55.6468
55.6422
55.6377
55.6331
55.6285
55.6239
55.6194
55.6148
55.6102
55.6056
55.6011
55.5965
55.5919
55.5873
55.5827
55.5782
55.5736
55.569
55.5644
55.5598
55.5553
55.5507
55.5461
55.5415
55.5369
55.5323
55.5278
55.5232
55.5186
55.514
55.5094
55.5048
55.5003
55.4957
55.4911
55.4865
55.4819
55.4773
55.4727
55.4682
55.4636
55.459
55.4544
55.4498
55.4452
55.4406
55.436
55.4314
55.4268
55.4223
55.4177
55.4131
55.4085
55.4039
55.3993
55.3947
55.3901
55.3855
55.3809
55.3763
55.3717
55.3671
55.3625
55.3579
55.3533
55.3487
55.3441
55.3395
55.3349
55.3303
55.3257
55.3211
55.3165
55.3119
55.3073
55.3027
55.2981
55.2935
55.2889
55.2843
55.2797
55.2751
55.2705
55.2659
55.2613
55.2567
55.2521
55.2475
55.2428
55.2382
55.2336
55.229
55.2244
55.2198
55.2152
55.2106
55.206
55.2014
55.1967
55.1921
55.1875
55.1829
55.1783
55.1737
55.169
55.1644
55.1598
55.1552
55.1506
55.146
55.1413
55.1367
55.1321
55.1275
55.1229
55.1182
55.1136
55.109
55.1044
55.0997
55.0951
55.0905
55.0859
55.0812
55.0766
55.072
55.0674
55.0627
55.0581
55.0535
55.0488
55.0442
55.0396
55.0349
55.0303
55.0257
55.021
55.0164
55.0118
55.0071
55.0025
54.9979
54.9932
54.9886
54.984
54.9793
54.9747
54.97
54.9654
54.9608
54.9561
54.9515
54.9468
54.9422
54.9375
54.9329
54.9282
54.9236
54.919
54.9143
54.9097
54.905
54.9004
54.8957
54.8911
54.8864
54.8818
54.8771
54.8724
54.8678
54.8631
54.8585
54.8538
54.8492
54.8445
54.8399
54.8352
54.8305
54.8259
54.8212
54.8166
54.8119
54.8072
54.8026
54.7979
54.7932
54.7886
54.7839
54.7792
54.7746
54.7699
54.7652
54.7606
54.7559
54.7512
54.7465
54.7419
54.7372
54.7325
54.7279
54.7232
54.7185
54.7138
54.7091
54.7045
54.7045
56.9403
56.9403
56.657
56.6132
56.5925
56.5778
56.5657
56.5549
56.5448
56.5353
56.5262
56.5173
56.5087
56.5003
56.4922
56.4842
56.4764
56.4688
56.4613
56.4541
56.4469
56.44
56.4332
56.4265
56.42
56.4137
56.4076
56.4016
56.3959
56.3903
56.3848
56.3796
56.3745
56.3695
56.3646
56.3597
56.3547
56.3499
56.345
56.3402
56.3355
56.3308
56.3263
56.3218
56.3173
56.3129
56.3086
56.3042
56.2999
56.2956
56.2913
56.287
56.2827
56.2784
56.274
56.2697
56.2654
56.2611
56.2568
56.2525
56.2481
56.2438
56.2395
56.2352
56.2308
56.2265
56.2222
56.2178
56.2135
56.2091
56.2048
56.2005
56.1961
56.1917
56.1874
56.183
56.1787
56.1743
56.1699
56.1656
56.1612
56.1568
56.1524
56.148
56.1437
56.1393
56.1349
56.1305
56.1261
56.1217
56.1173
56.1128
56.1084
56.104
56.0996
56.0952
56.0907
56.0863
56.0819
56.0774
56.073
56.0685
56.0641
56.0596
56.0552
56.0507
56.0463
56.0418
56.0373
56.0329
56.0284
56.0239
56.0194
56.015
56.0105
56.006
56.0015
55.997
55.9925
55.988
55.9835
55.979
55.9745
55.97
55.9655
55.961
55.9565
55.9519
55.9474
55.9429
55.9384
55.9339
55.9293
55.9248
55.9203
55.9158
55.9112
55.9067
55.9022
55.8976
55.8931
55.8886
55.884
55.8795
55.8749
55.8704
55.8658
55.8613
55.8568
55.8522
55.8477
55.8431
55.8386
55.834
55.8294
55.8249
55.8203
55.8158
55.8112
55.8067
55.8021
55.7976
55.793
55.7884
55.7839
55.7793
55.7748
55.7702
55.7656
55.7611
55.7565
55.7519
55.7474
55.7428
55.7382
55.7337
55.7291
55.7245
55.72
55.7154
55.7108
55.7063
55.7017
55.6971
55.6925
55.688
55.6834
55.6788
55.6743
55.6697
55.6651
55.6605
55.656
55.6514
55.6468
55.6422
55.6377
55.6331
55.6285
55.6239
55.6194
55.6148
55.6102
55.6056
55.6011
55.5965
55.5919
55.5873
55.5827
55.5782
55.5736
55.569
55.5644
55.5598
55.5553
55.5507
55.5461
55.5415
55.5369
55.5323
55.5278
55.5232
55.5186
55.514
55.5094
55.5048
55.5003
55.4957
55.4911
55.4865
55.4819
55.4773
55.4727
55.4682
55.4636
55.459
55.4544
55.4498
55.4452
55.4406
55.436
55.4314
55.4268
55.4223
55.4177
55.4131
55.4085
55.4039
55.3993
55.3947
55.3901
55.3855
55.3809
55.3763
55.3717
55.3671
55.3625
55.3579
55.3533
55.3487
55.3441
55.3395
55.3349
55.3303
55.3257
55.3211
55.3165
55.3119
55.3073
55.3027
55.2981
55.2935
55.2889
55.2843
55.2797
55.2751
55.2705
55.2659
55.2613
55.2567
55.2521
55.2475
55.2428
55.2382
55.2336
55.229
55.2244
55.2198
55.2152
55.2106
55.206
55.2014
55.1967
55.1921
55.1875
55.1829
55.1783
55.1737
55.169
55.1644
55.1598
55.1552
55.1506
55.146
55.1413
55.1367
55.1321
55.1275
55.1229
55.1182
55.1136
55.109
55.1044
55.0997
55.0951
55.0905
55.0859
55.0812
55.0766
55.072
55.0674
55.0627
55.0581
55.0535
55.0488
55.0442
55.0396
55.0349
55.0303
55.0257
55.021
55.0164
55.0118
55.0071
55.0025
54.9979
54.9932
54.9886
54.984
54.9793
54.9747
54.97
54.9654
54.9608
54.9561
54.9515
54.9468
54.9422
54.9375
54.9329
54.9282
54.9236
54.919
54.9143
54.9097
54.905
54.9004
54.8957
54.8911
54.8864
54.8818
54.8771
54.8724
54.8678
54.8631
54.8585
54.8538
54.8492
54.8445
54.8399
54.8352
54.8305
54.8259
54.8212
54.8166
54.8119
54.8072
54.8026
54.7979
54.7932
54.7886
54.7839
54.7792
54.7746
54.7699
54.7652
54.7606
54.7559
54.7512
54.7465
54.7419
54.7372
54.7325
54.7279
54.7232
54.7185
54.7138
54.7091
54.7045
54.7045
56.9243
56.9243
56.6601
56.6144
56.5931
56.5782
56.566
56.5551
56.545
56.5354
56.5263
56.5174
56.5088
56.5004
56.4922
56.4842
56.4764
56.4688
56.4614
56.4541
56.447
56.44
56.4332
56.4265
56.4201
56.4137
56.4076
56.4016
56.3959
56.3903
56.3849
56.3796
56.3745
56.3695
56.3646
56.3597
56.3548
56.3499
56.345
56.3402
56.3355
56.3308
56.3263
56.3218
56.3173
56.3129
56.3086
56.3042
56.2999
56.2956
56.2913
56.287
56.2827
56.2784
56.274
56.2697
56.2654
56.2611
56.2568
56.2525
56.2481
56.2438
56.2395
56.2352
56.2308
56.2265
56.2222
56.2178
56.2135
56.2091
56.2048
56.2004
56.1961
56.1917
56.1874
56.183
56.1787
56.1743
56.1699
56.1656
56.1612
56.1568
56.1524
56.148
56.1437
56.1393
56.1349
56.1305
56.1261
56.1217
56.1173
56.1128
56.1084
56.104
56.0996
56.0952
56.0907
56.0863
56.0819
56.0774
56.073
56.0685
56.0641
56.0596
56.0552
56.0507
56.0463
56.0418
56.0373
56.0329
56.0284
56.0239
56.0194
56.015
56.0105
56.006
56.0015
55.997
55.9925
55.988
55.9835
55.979
55.9745
55.97
55.9655
55.961
55.9565
55.9519
55.9474
55.9429
55.9384
55.9339
55.9293
55.9248
55.9203
55.9158
55.9112
55.9067
55.9022
55.8976
55.8931
55.8886
55.884
55.8795
55.8749
55.8704
55.8658
55.8613
55.8568
55.8522
55.8477
55.8431
55.8386
55.834
55.8294
55.8249
55.8203
55.8158
55.8112
55.8067
55.8021
55.7976
55.793
55.7884
55.7839
55.7793
55.7748
55.7702
55.7656
55.7611
55.7565
55.7519
55.7474
55.7428
55.7382
55.7337
55.7291
55.7245
55.72
55.7154
55.7108
55.7063
55.7017
55.6971
55.6925
55.688
55.6834
55.6788
55.6743
55.6697
55.6651
55.6605
55.656
55.6514
55.6468
55.6422
55.6377
55.6331
55.6285
55.6239
55.6194
55.6148
55.6102
55.6056
55.6011
55.5965
55.5919
55.5873
55.5827
55.5782
55.5736
55.569
55.5644
55.5598
55.5553
55.5507
55.5461
55.5415
55.5369
55.5323
55.5278
55.5232
55.5186
55.514
55.5094
55.5048
55.5003
55.4957
55.4911
55.4865
55.4819
55.4773
55.4727
55.4682
55.4636
55.459
55.4544
55.4498
55.4452
55.4406
55.436
55.4314
55.4268
55.4223
55.4177
55.4131
55.4085
55.4039
55.3993
55.3947
55.3901
55.3855
55.3809
55.3763
55.3717
55.3671
55.3625
55.3579
55.3533
55.3487
55.3441
55.3395
55.3349
55.3303
55.3257
55.3211
55.3165
55.3119
55.3073
55.3027
55.2981
55.2935
55.2889
55.2843
55.2797
55.2751
55.2705
55.2659
55.2613
55.2567
55.2521
55.2475
55.2428
55.2382
55.2336
55.229
55.2244
55.2198
55.2152
55.2106
55.206
55.2014
55.1967
55.1921
55.1875
55.1829
55.1783
55.1737
55.169
55.1644
55.1598
55.1552
55.1506
55.146
55.1413
55.1367
55.1321
55.1275
55.1229
55.1182
55.1136
55.109
55.1044
55.0997
55.0951
55.0905
55.0859
55.0812
55.0766
55.072
55.0674
55.0627
55.0581
55.0535
55.0488
55.0442
55.0396
55.0349
55.0303
55.0257
55.021
55.0164
55.0118
55.0071
55.0025
54.9979
54.9932
54.9886
54.984
54.9793
54.9747
54.97
54.9654
54.9608
54.9561
54.9515
54.9468
54.9422
54.9375
54.9329
54.9282
54.9236
54.919
54.9143
54.9097
54.905
54.9004
54.8957
54.8911
54.8864
54.8818
54.8771
54.8724
54.8678
54.8631
54.8585
54.8538
54.8492
54.8445
54.8399
54.8352
54.8305
54.8259
54.8212
54.8166
54.8119
54.8072
54.8026
54.7979
54.7932
54.7886
54.7839
54.7792
54.7746
54.7699
54.7652
54.7606
54.7559
54.7512
54.7465
54.7419
54.7372
54.7325
54.7279
54.7232
54.7185
54.7138
54.7091
54.7045
54.7045
56.9084
56.9084
56.663
56.6155
56.5937
56.5786
56.5662
56.5553
56.5451
56.5356
56.5264
56.5175
56.5088
56.5005
56.4923
56.4843
56.4765
56.4689
56.4614
56.4541
56.447
56.44
56.4332
56.4266
56.4201
56.4138
56.4076
56.4017
56.3959
56.3903
56.3849
56.3796
56.3745
56.3695
56.3646
56.3597
56.3548
56.3499
56.345
56.3402
56.3355
56.3308
56.3263
56.3218
56.3173
56.3129
56.3086
56.3042
56.2999
56.2956
56.2913
56.287
56.2827
56.2784
56.274
56.2697
56.2654
56.2611
56.2568
56.2525
56.2481
56.2438
56.2395
56.2352
56.2308
56.2265
56.2222
56.2178
56.2135
56.2091
56.2048
56.2004
56.1961
56.1917
56.1874
56.183
56.1787
56.1743
56.1699
56.1656
56.1612
56.1568
56.1524
56.148
56.1437
56.1393
56.1349
56.1305
56.1261
56.1217
56.1173
56.1128
56.1084
56.104
56.0996
56.0952
56.0907
56.0863
56.0819
56.0774
56.073
56.0685
56.0641
56.0596
56.0552
56.0507
56.0463
56.0418
56.0373
56.0329
56.0284
56.0239
56.0194
56.015
56.0105
56.006
56.0015
55.997
55.9925
55.988
55.9835
55.979
55.9745
55.97
55.9655
55.961
55.9565
55.9519
55.9474
55.9429
55.9384
55.9339
55.9293
55.9248
55.9203
55.9158
55.9112
55.9067
55.9022
55.8976
55.8931
55.8886
55.884
55.8795
55.8749
55.8704
55.8658
55.8613
55.8568
55.8522
55.8477
55.8431
55.8386
55.834
55.8294
55.8249
55.8203
55.8158
55.8112
55.8067
55.8021
55.7976
55.793
55.7884
55.7839
55.7793
55.7748
55.7702
55.7656
55.7611
55.7565
55.7519
55.7474
55.7428
55.7382
55.7337
55.7291
55.7245
55.72
55.7154
55.7108
55.7063
55.7017
55.6971
55.6925
55.688
55.6834
55.6788
55.6743
55.6697
55.6651
55.6605
55.656
55.6514
55.6468
55.6422
55.6377
55.6331
55.6285
55.6239
55.6194
55.6148
55.6102
55.6056
55.6011
55.5965
55.5919
55.5873
55.5827
55.5782
55.5736
55.569
55.5644
55.5598
55.5553
55.5507
55.5461
55.5415
55.5369
55.5323
55.5278
55.5232
55.5186
55.514
55.5094
55.5048
55.5003
55.4957
55.4911
55.4865
55.4819
55.4773
55.4727
55.4682
55.4636
55.459
55.4544
55.4498
55.4452
55.4406
55.436
55.4314
55.4268
55.4223
55.4177
55.4131
55.4085
55.4039
55.3993
55.3947
55.3901
55.3855
55.3809
55.3763
55.3717
55.3671
55.3625
55.3579
55.3533
55.3487
55.3441
55.3395
55.3349
55.3303
55.3257
55.3211
55.3165
55.3119
55.3073
55.3027
55.2981
55.2935
55.2889
55.2843
55.2797
55.2751
55.2705
55.2659
55.2613
55.2567
55.2521
55.2475
55.2428
55.2382
55.2336
55.229
55.2244
55.2198
55.2152
55.2106
55.206
55.2014
55.1967
55.1921
55.1875
55.1829
55.1783
55.1737
55.169
55.1644
55.1598
55.1552
55.1506
55.146
55.1413
55.1367
55.1321
55.1275
55.1229
55.1182
55.1136
55.109
55.1044
55.0997
55.0951
55.0905
55.0859
55.0812
55.0766
55.072
55.0674
55.0627
55.0581
55.0535
55.0488
55.0442
55.0396
55.0349
55.0303
55.0257
55.021
55.0164
55.0118
55.0071
55.0025
54.9979
54.9932
54.9886
54.984
54.9793
54.9747
54.97
54.9654
54.9608
54.9561
54.9515
54.9468
54.9422
54.9375
54.9329
54.9282
54.9236
54.919
54.9143
54.9097
54.905
54.9004
54.8957
54.8911
54.8864
54.8818
54.8771
54.8724
54.8678
54.8631
54.8585
54.8538
54.8492
54.8445
54.8399
54.8352
54.8305
54.8259
54.8212
54.8166
54.8119
54.8072
54.8026
54.7979
54.7932
54.7886
54.7839
54.7792
54.7746
54.7699
54.7652
54.7606
54.7559
54.7512
54.7465
54.7419
54.7372
54.7325
54.7279
54.7232
54.7185
54.7138
54.7091
54.7045
54.7045
56.8933
56.8933
56.6657
56.6166
56.5943
56.579
56.5665
56.5555
56.5453
56.5357
56.5265
56.5176
56.5089
56.5005
56.4923
56.4843
56.4765
56.4689
56.4614
56.4542
56.447
56.4401
56.4332
56.4266
56.4201
56.4138
56.4076
56.4017
56.3959
56.3903
56.3849
56.3796
56.3745
56.3695
56.3646
56.3597
56.3548
56.3499
56.345
56.3402
56.3355
56.3308
56.3263
56.3218
56.3173
56.3129
56.3086
56.3042
56.2999
56.2956
56.2913
56.287
56.2827
56.2784
56.274
56.2697
56.2654
56.2611
56.2568
56.2525
56.2481
56.2438
56.2395
56.2352
56.2308
56.2265
56.2222
56.2178
56.2135
56.2091
56.2048
56.2004
56.1961
56.1917
56.1874
56.183
56.1787
56.1743
56.1699
56.1656
56.1612
56.1568
56.1524
56.148
56.1437
56.1393
56.1349
56.1305
56.1261
56.1217
56.1173
56.1128
56.1084
56.104
56.0996
56.0952
56.0907
56.0863
56.0819
56.0774
56.073
56.0685
56.0641
56.0596
56.0552
56.0507
56.0463
56.0418
56.0373
56.0329
56.0284
56.0239
56.0194
56.015
56.0105
56.006
56.0015
55.997
55.9925
55.988
55.9835
55.979
55.9745
55.97
55.9655
55.961
55.9565
55.9519
55.9474
55.9429
55.9384
55.9339
55.9293
55.9248
55.9203
55.9158
55.9112
55.9067
55.9022
55.8976
55.8931
55.8886
55.884
55.8795
55.8749
55.8704
55.8658
55.8613
55.8568
55.8522
55.8477
55.8431
55.8386
55.834
55.8294
55.8249
55.8203
55.8158
55.8112
55.8067
55.8021
55.7976
55.793
55.7884
55.7839
55.7793
55.7748
55.7702
55.7656
55.7611
55.7565
55.7519
55.7474
55.7428
55.7382
55.7337
55.7291
55.7245
55.72
55.7154
55.7108
55.7063
55.7017
55.6971
55.6925
55.688
55.6834
55.6788
55.6743
55.6697
55.6651
55.6605
55.656
55.6514
55.6468
55.6422
55.6377
55.6331
55.6285
55.6239
55.6194
55.6148
55.6102
55.6056
55.6011
55.5965
55.5919
55.5873
55.5827
55.5782
55.5736
55.569
55.5644
55.5598
55.5553
55.5507
55.5461
55.5415
55.5369
55.5323
55.5278
55.5232
55.5186
55.514
55.5094
55.5048
55.5003
55.4957
55.4911
55.4865
55.4819
55.4773
55.4727
55.4682
55.4636
55.459
55.4544
55.4498
55.4452
55.4406
55.436
55.4314
55.4268
55.4223
55.4177
55.4131
55.4085
55.4039
55.3993
55.3947
55.3901
55.3855
55.3809
55.3763
55.3717
55.3671
55.3625
55.3579
55.3533
55.3487
55.3441
55.3395
55.3349
55.3303
55.3257
55.3211
55.3165
55.3119
55.3073
55.3027
55.2981
55.2935
55.2889
55.2843
55.2797
55.2751
55.2705
55.2659
55.2613
55.2567
55.2521
55.2475
55.2428
55.2382
55.2336
55.229
55.2244
55.2198
55.2152
55.2106
55.206
55.2014
55.1967
55.1921
55.1875
55.1829
55.1783
55.1737
55.169
55.1644
55.1598
55.1552
55.1506
55.146
55.1413
55.1367
55.1321
55.1275
55.1229
55.1182
55.1136
55.109
55.1044
55.0997
55.0951
55.0905
55.0859
55.0812
55.0766
55.072
55.0674
55.0627
55.0581
55.0535
55.0488
55.0442
55.0396
55.0349
55.0303
55.0257
55.021
55.0164
55.0118
55.0071
55.0025
54.9979
54.9932
54.9886
54.984
54.9793
54.9747
54.97
54.9654
54.9608
54.9561
54.9515
54.9468
54.9422
54.9375
54.9329
54.9282
54.9236
54.919
54.9143
54.9097
54.905
54.9004
54.8957
54.8911
54.8864
54.8818
54.8771
54.8724
54.8678
54.8631
54.8585
54.8538
54.8492
54.8445
54.8399
54.8352
54.8305
54.8259
54.8212
54.8166
54.8119
54.8072
54.8026
54.7979
54.7932
54.7886
54.7839
54.7792
54.7746
54.7699
54.7652
54.7606
54.7559
54.7512
54.7465
54.7419
54.7372
54.7325
54.7278
54.7232
54.7185
54.7138
54.7091
54.7045
54.7045
56.8793
56.8793
56.6683
56.6178
56.5949
56.5793
56.5667
56.5557
56.5454
56.5358
56.5266
56.5176
56.509
56.5006
56.4924
56.4844
56.4766
56.4689
56.4615
56.4542
56.4471
56.4401
56.4333
56.4266
56.4201
56.4138
56.4077
56.4017
56.3959
56.3903
56.3849
56.3796
56.3745
56.3695
56.3646
56.3597
56.3548
56.3499
56.345
56.3402
56.3355
56.3308
56.3263
56.3218
56.3173
56.3129
56.3086
56.3042
56.2999
56.2956
56.2913
56.287
56.2827
56.2784
56.274
56.2697
56.2654
56.2611
56.2568
56.2525
56.2481
56.2438
56.2395
56.2352
56.2308
56.2265
56.2222
56.2178
56.2135
56.2091
56.2048
56.2004
56.1961
56.1917
56.1874
56.183
56.1787
56.1743
56.1699
56.1656
56.1612
56.1568
56.1524
56.148
56.1437
56.1393
56.1349
56.1305
56.1261
56.1217
56.1173
56.1128
56.1084
56.104
56.0996
56.0952
56.0907
56.0863
56.0819
56.0774
56.073
56.0685
56.0641
56.0596
56.0552
56.0507
56.0463
56.0418
56.0373
56.0329
56.0284
56.0239
56.0194
56.015
56.0105
56.006
56.0015
55.997
55.9925
55.988
55.9835
55.979
55.9745
55.97
55.9655
55.961
55.9565
55.9519