# vtk DataFile Version 2.0
FlowField
ASCII
DATASET STRUCTURED_GRID
DIMENSIONS 400 1 200
POINTS 80000 float
0 0 0
0.08 0 0
0.16 0 0
0.24 0 0
0.32 0 0
0.4 0 0
0.48 0 0
0.56 0 0
0.64 0 0
0.72 0 0
0.8 0 0
0.88 0 0
0.96 0 0
1.04 0 0
1.12 0 0
1.2 0 0
1.28 0 0
1.36 0 0
1.44 0 0
1.52 0 0
1.6 0 0
1.68 0 0
1.76 0 0
1.84 0 0
1.92 0 0
2 0 0
2.08 0 0
2.16 0 0
2.24 0 0
2.32 0 0
2.4 0 0
2.48 0 0
2.56 0 0
2.64 0 0
2.72 0 0
2.8 0 0
2.88 0 0
2.96 0 0
3.04 0 0
3.12 0 0
3.2 0 0
3.28 0 0
3.36 0 0
3.44 0 0
3.52 0 0
3.6 0 0
3.68 0 0
3.76 0 0
3.84 0 0
3.92 0 0
4 0 0
4.08 0 0
4.16 0 0
4.24 0 0
4.32 0 0
4.4 0 0
4.48 0 0
4.56 0 0
4.64 0 0
4.72 0 0
4.8 0 0
4.88 0 0
4.96 0 0
5.04 0 0
5.12 0 0
5.2 0 0
5.28 0 0
5.36 0 0
5.44 0 0
5.52 0 0
5.6 0 0
5.68 0 0
5.76 0 0
5.84 0 0
5.92 0 0
6 0 0
6.08 0 0
6.16 0 0
6.24 0 0
6.32 0 0
6.4 0 0
6.48 0 0
6.56 0 0
6.64 0 0
6.72 0 0
6.8 0 0
6.88 0 0
6.96 0 0
7.04 0 0
7.12 0 0
7.2 0 0
7.28 0 0
7.36 0 0
7.44 0 0
7.52 0 0
7.6 0 0
7.68 0 0
7.76 0 0
7.84 0 0
7.92 0 0
8 0 0
8.08 0 0
8.16 0 0
8.24 0 0
8.32 0 0
8.4 0 0
8.48 0 0
8.56 0 0
8.64 0 0
8.72 0 0
8.8 0 0
8.88 0 0
8.96 0 0
9.04 0 0
9.12 0 0
9.2 0 0
9.28 0 0
9.36 0 0
9.44 0 0
9.52 0 0
9.6 0 0
9.68 0 0
9.76 0 0
9.84 0 0
9.92 0 0
10 0 0
10.08 0 0
10.16 0 0
10.24 0 0
10.32 0 0
10.4 0 0
10.48 0 0
10.56 0 0
10.64 0 0
10.72 0 0
10.8 0 0
10.88 0 0
10.96 0 0
11.04 0 0
11.12 0 0
11.2 0 0
11.28 0 0
11.36 0 0
11.44 0 0
11.52 0 0
11.6 0 0
11.68 0 0
11.76 0 0
11.84 0 0
11.92 0 0
12 0 0
12.08 0 0
12.16 0 0
12.24 0 0
12.32 0 0
12.4 0 0
12.48 0 0
12.56 0 0
12.64 0 0
12.72 0 0
12.8 0 0
12.88 0 0
12.96 0 0
13.04 0 0
13.12 0 0
13.2 0 0
13.28 0 0
13.36 0 0
13.44 0 0
13.52 0 0
13.6 0 0
13.68 0 0
13.76 0 0
13.84 0 0
13.92 0 0
14 0 0
14.08 0 0
14.16 0 0
14.24 0 0
14.32 0 0
14.4 0 0
14.48 0 0
14.56 0 0
14.64 0 0
14.72 0 0
14.8 0 0
14.88 0 0
14.96 0 0
15.04 0 0
15.12 0 0
15.2 0 0
15.28 0 0
15.36 0 0
15.44 0 0
15.52 0 0
15.6 0 0
15.68 0 0
15.76 0 0
15.84 0 0
15.92 0 0
16 0 0
16.08 0 0
16.16 0 0
16.24 0 0
16.32 0 0
16.4 0 0
16.48 0 0
16.56 0 0
16.64 0 0
16.72 0 0
16.8 0 0
16.88 0 0
16.96 0 0
17.04 0 0
17.12 0 0
17.2 0 0
17.28 0 0
17.36 0 0
17.44 0 0
17.52 0 0
17.6 0 0
17.68 0 0
17.76 0 0
17.84 0 0
17.92 0 0
18 0 0
18.08 0 0
18.16 0 0
18.24 0 0
18.32 0 0
18.4 0 0
18.48 0 0
18.56 0 0
18.64 0 0
18.72 0 0
18.8 0 0
18.88 0 0
18.96 0 0
19.04 0 0
19.12 0 0
19.2 0 0
19.28 0 0
19.36 0 0
19.44 0 0
19.52 0 0
19.6 0 0
19.68 0 0
19.76 0 0
19.84 0 0
19.92 0 0
20 0 0
20.08 0 0
20.16 0 0
20.24 0 0
20.32 0 0
20.4 0 0
20.48 0 0
20.56 0 0
20.64 0 0
20.72 0 0
20.8 0 0
20.88 0 0
20.96 0 0
21.04 0 0
21.12 0 0
21.2 0 0
21.28 0 0
21.36 0 0
21.44 0 0
21.52 0 0
21.6 0 0
21.68 0 0
21.76 0 0
21.84 0 0
21.92 0 0
22 0 0
22.08 0 0
22.16 0 0
22.24 0 0
22.32 0 0
22.4 0 0
22.48 0 0
22.56 0 0
22.64 0 0
22.72 0 0
22.8 0 0
22.88 0 0
22.96 0 0
23.04 0 0
23.12 0 0
23.2 0 0
23.28 0 0
23.36 0 0
23.44 0 0
23.52 0 0
23.6 0 0
23.68 0 0
23.76 0 0
23.84 0 0
23.92 0 0
24 0 0
24.08 0 0
24.16 0 0
24.24 0 0
24.32 0 0
24.4 0 0
24.48 0 0
24.56 0 0
24.64 0 0
24.72 0 0
24.8 0 0
24.88 0 0
24.96 0 0
25.04 0 0
25.12 0 0
25.2 0 0
25.28 0 0
25.36 0 0
25.44 0 0
25.52 0 0
25.6 0 0
25.68 0 0
25.76 0 0
25.84 0 0
25.92 0 0
26 0 0
26.08 0 0
26.16 0 0
26.24 0 0
26.32 0 0
26.4 0 0
26.48 0 0
26.56 0 0
26.64 0 0
26.72 0 0
26.8 0 0
26.88 0 0
26.96 0 0
27.04 0 0
27.12 0 0
27.2 0 0
27.28 0 0
27.36 0 0
27.44 0 0
27.52 0 0
27.6 0 0
27.68 0 0
27.76 0 0
27.84 0 0
27.92 0 0
28 0 0
28.08 0 0
28.16 0 0
28.24 0 0
28.32 0 0
28.4 0 0
28.48 0 0
28.56 0 0
28.64 0 0
28.72 0 0
28.8 0 0
28.88 0 0
28.96 0 0
29.04 0 0
29.12 0 0
29.2 0 0
29.28 0 0
29.36 0 0
29.44 0 0
29.52 0 0
29.6 0 0
29.68 0 0
29.76 0 0
29.84 0 0
29.92 0 0
30 0 0
30.08 0 0
30.16 0 0
30.24 0 0
30.32 0 0
30.4 0 0
30.48 0 0
30.56 0 0
30.64 0 0
30.72 0 0
30.8 0 0
30.88 0 0
30.96 0 0
31.04 0 0
31.12 0 0
31.2 0 0
31.28 0 0
31.36 0 0
31.44 0 0
31.52 0 0
31.6 0 0
31.68 0 0
31.76 0 0
31.84 0 0
31.92 0 0
0 0.005 0
0.08 0.005 0
0.16 0.005 0
0.24 0.005 0
0.32 0.005 0
0.4 0.005 0
0.48 0.005 0
0.56 0.005 0
0.64 0.005 0
0.72 0.005 0
0.8 0.005 0
0.88 0.005 0
0.96 0.005 0
1.04 0.005 0
1.12 0.005 0
1.2 0.005 0
1.28 0.005 0
1.36 0.005 0
1.44 0.005 0
1.52 0.005 0
1.6 0.005 0
1.68 0.005 0
1.76 0.005 0
1.84 0.005 0
1.92 0.005 0
2 0.005 0
2.08 0.005 0
2.16 0.005 0
2.24 0.005 0
2.32 0.005 0
2.4 0.005 0
2.48 0.005 0
2.56 0.005 0
2.64 0.005 0
2.72 0.005 0
2.8 0.005 0
2.88 0.005 0
2.96 0.005 0
3.04 0.005 0
3.12 0.005 0
3.2 0.005 0
3.28 0.005 0
3.36 0.005 0
3.44 0.005 0
3.52 0.005 0
3.6 0.005 0
3.68 0.005 0
3.76 0.005 0
3.84 0.005 0
3.92 0.005 0
4 0.005 0
4.08 0.005 0
4.16 0.005 0
4.24 0.005 0
4.32 0.005 0
4.4 0.005 0
4.48 0.005 0
4.56 0.005 0
4.64 0.005 0
4.72 0.005 0
4.8 0.005 0
4.88 0.005 0
4.96 0.005 0
5.04 0.005 0
5.12 0.005 0
5.2 0.005 0
5.28 0.005 0
5.36 0.005 0
5.44 0.005 0
5.52 0.005 0
5.6 0.005 0
5.68 0.005 0
5.76 0.005 0
5.84 0.005 0
5.92 0.005 0
6 0.005 0
6.08 0.005 0
6.16 0.005 0
6.24 0.005 0
6.32 0.005 0
6.4 0.005 0
6.48 0.005 0
6.56 0.005 0
6.64 0.005 0
6.72 0.005 0
6.8 0.005 0
6.88 0.005 0
6.96 0.005 0
7.04 0.005 0
7.12 0.005 0
7.2 0.005 0
7.28 0.005 0
7.36 0.005 0
7.44 0.005 0
7.52 0.005 0
7.6 0.005 0
7.68 0.005 0
7.76 0.005 0
7.84 0.005 0
7.92 0.005 0
8 0.005 0
8.08 0.005 0
8.16 0.005 0
8.24 0.005 0
8.32 0.005 0
8.4 0.005 0
8.48 0.005 0
8.56 0.005 0
8.64 0.005 0
8.72 0.005 0
8.8 0.005 0
8.88 0.005 0
8.96 0.005 0
9.04 0.005 0
9.12 0.005 0
9.2 0.005 0
9.28 0.005 0
9.36 0.005 0
9.44 0.005 0
9.52 0.005 0
9.6 0.005 0
9.68 0.005 0
9.76 0.005 0
9.84 0.005 0
9.92 0.005 0
10 0.005 0
10.08 0.005 0
10.16 0.005 0
10.24 0.005 0
10.32 0.005 0
10.4 0.005 0
10.48 0.005 0
10.56 0.005 0
10.64 0.005 0
10.72 0.005 0
10.8 0.005 0
10.88 0.005 0
10.96 0.005 0
11.04 0.005 0
11.12 0.005 0
11.2 0.005 0
11.28 0.005 0
11.36 0.005 0
11.44 0.005 0
11.52 0.005 0
11.6 0.005 0
11.68 0.005 0
11.76 0.005 0
11.84 0.005 0
11.92 0.005 0
12 0.005 0
12.08 0.005 0
12.16 0.005 0
12.24 0.005 0
12.32 0.005 0
12.4 0.005 0
12.48 0.005 0
12.56 0.005 0
12.64 0.005 0
12.72 0.005 0
12.8 0.005 0
12.88 0.005 0
12.96 0.005 0
13.04 0.005 0
13.12 0.005 0
13.2 0.005 0
13.28 0.005 0
13.36 0.005 0
13.44 0.005 0
13.52 0.005 0
13.6 0.005 0
13.68 0.005 0
13.76 0.005 0
13.84 0.005 0
13.92 0.005 0
14 0.005 0
14.08 0.005 0
14.16 0.005 0
14.24 0.005 0
14.32 0.005 0
14.4 0.005 0
14.48 0.005 0
14.56 0.005 0
14.64 0.005 0
14.72 0.005 0
14.8 0.005 0
14.88 0.005 0
14.96 0.005 0
15.04 0.005 0
15.12 0.005 0
15.2 0.005 0
15.28 0.005 0
15.36 0.005 0
15.44 0.005 0
15.52 0.005 0
15.6 0.005 0
15.68 0.005 0
15.76 0.005 0
15.84 0.005 0
15.92 0.005 0
16 0.005 0
16.08 0.005 0
16.16 0.005 0
16.24 0.005 0
16.32 0.005 0
16.4 0.005 0
16.48 0.005 0
16.56 0.005 0
16.64 0.005 0
16.72 0.005 0
16.8 0.005 0
16.88 0.005 0
16.96 0.005 0
17.04 0.005 0
17.12 0.005 0
17.2 0.005 0
17.28 0.005 0
17.36 0.005 0
17.44 0.005 0
17.52 0.005 0
17.6 0.005 0
17.68 0.005 0
17.76 0.005 0
17.84 0.005 0
17.92 0.005 0
18 0.005 0
18.08 0.005 0
18.16 0.005 0
18.24 0.005 0
18.32 0.005 0
18.4 0.005 0
18.48 0.005 0
18.56 0.005 0
18.64 0.005 0
18.72 0.005 0
18.8 0.005 0
18.88 0.005 0
18.96 0.005 0
19.04 0.005 0
19.12 0.005 0
19.2 0.005 0
19.28 0.005 0
19.36 0.005 0
19.44 0.005 0
19.52 0.005 0
19.6 0.005 0
19.68 0.005 0
19.76 0.005 0
19.84 0.005 0
19.92 0.005 0
20 0.005 0
20.08 0.005 0
20.16 0.005 0
20.24 0.005 0
20.32 0.005 0
20.4 0.005 0
20.48 0.005 0
20.56 0.005 0
20.64 0.005 0
20.72 0.005 0
20.8 0.005 0
20.88 0.005 0
20.96 0.005 0
21.04 0.005 0
21.12 0.005 0
21.2 0.005 0
21.28 0.005 0
21.36 0.005 0
21.44 0.005 0
21.52 0.005 0
21.6 0.005 0
21.68 0.005 0
21.76 0.005 0
21.84 0.005 0
21.92 0.005 0
22 0.005 0
22.08 0.005 0
22.16 0.005 0
22.24 0.005 0
22.32 0.005 0
22.4 0.005 0
22.48 0.005 0
22.56 0.005 0
22.64 0.005 0
22.72 0.005 0
22.8 0.005 0
22.88 0.005 0
22.96 0.005 0
23.04 0.005 0
23.12 0.005 0
23.2 0.005 0
23.28 0.005 0
23.36 0.005 0
23.44 0.005 0
23.52 0.005 0
23.6 0.005 0
23.68 0.005 0
23.76 0.005 0
23.84 0.005 0
23.92 0.005 0
24 0.005 0
24.08 0.005 0
24.16 0.005 0
24.24 0.005 0
24.32 0.005 0
24.4 0.005 0
24.48 0.005 0
24.56 0.005 0
24.64 0.005 0
24.72 0.005 0
24.8 0.005 0
24.88 0.005 0
24.96 0.005 0
25.04 0.005 0
25.12 0.005 0
25.2 0.005 0
25.28 0.005 0
25.36 0.005 0
25.44 0.005 0
25.52 0.005 0
25.6 0.005 0
25.68 0.005 0
25.76 0.005 0
25.84 0.005 0
25.92 0.005 0
26 0.005 0
26.08 0.005 0
26.16 0.005 0
26.24 0.005 0
26.32 0.005 0
26.4 0.005 0
26.48 0.005 0
26.56 0.005 0
26.64 0.005 0
26.72 0.005 0
26.8 0.005 0
26.88 0.005 0
26.96 0.005 0
27.04 0.005 0
27.12 0.005 0
27.2 0.005 0
27.28 0.005 0
27.36 0.005 0
27.44 0.005 0
27.52 0.005 0
27.6 0.005 0
27.68 0.005 0
27.76 0.005 0
27.84 0.005 0
27.92 0.005 0
28 0.005 0
28.08 0.005 0
28.16 0.005 0
28.24 0.005 0
28.32 0.005 0
28.4 0.005 0
28.48 0.005 0
28.56 0.005 0
28.64 0.005 0
28.72 0.005 0
28.8 0.005 0
28.88 0.005 0
28.96 0.005 0
29.04 0.005 0
29.12 0.005 0
29.2 0.005 0
29.28 0.005 0
29.36 0.005 0
29.44 0.005 0
29.52 0.005 0
29.6 0.005 0
29.68 0.005 0
29.76 0.005 0
29.84 0.005 0
29.92 0.005 0
30 0.005 0
30.08 0.005 0
30.16 0.005 0
30.24 0.005 0
30.32 0.005 0
30.4 0.005 0
30.48 0.005 0
30.56 0.005 0
30.64 0.005 0
30.72 0.005 0
30.8 0.005 0
30.88 0.005 0
30.96 0.005 0
31.04 0.005 0
31.12 0.005 0
31.2 0.005 0
31.28 0.005 0
31.36 0.005 0
31.44 0.005 0
31.52 0.005 0
31.6 0.005 0
31.68 0.005 0
31.76 0.005 0
31.84 0.005 0
31.92 0.005 0
0 0.01 0
0.08 0.01 0
0.16 0.01 0
0.24 0.01 0
0.32 0.01 0
0.4 0.01 0
0.48 0.01 0
0.56 0.01 0
0.64 0.01 0
0.72 0.01 0
0.8 0.01 0
0.88 0.01 0
0.96 0.01 0
1.04 0.01 0
1.12 0.01 0
1.2 0.01 0
1.28 0.01 0
1.36 0.01 0
1.44 0.01 0
1.52 0.01 0
1.6 0.01 0
1.68 0.01 0
1.76 0.01 0
1.84 0.01 0
1.92 0.01 0
2 0.01 0
2.08 0.01 0
2.16 0.01 0
2.24 0.01 0
2.32 0.01 0
2.4 0.01 0
2.48 0.01 0
2.56 0.01 0
2.64 0.01 0
2.72 0.01 0
2.8 0.01 0
2.88 0.01 0
2.96 0.01 0
3.04 0.01 0
3.12 0.01 0
3.2 0.01 0
3.28 0.01 0
3.36 0.01 0
3.44 0.01 0
3.52 0.01 0
3.6 0.01 0
3.68 0.01 0
3.76 0.01 0
3.84 0.01 0
3.92 0.01 0
4 0.01 0
4.08 0.01 0
4.16 0.01 0
4.24 0.01 0
4.32 0.01 0
4.4 0.01 0
4.48 0.01 0
4.56 0.01 0
4.64 0.01 0
4.72 0.01 0
4.8 0.01 0
4.88 0.01 0
4.96 0.01 0
5.04 0.01 0
5.12 0.01 0
[...]
POINT_DATA 80000

SCALARS u float 1
LOOKUP_TABLE default
0
-0.131663
-0.0682691
-0.0522958
-0.0444197
-0.0395766
-0.0362595
-0.0338324
-0.0319724
-0.0304957
-0.0292896
-0.0282813
-0.0274218
-0.0266772
-0.0260232
-0.0254423
-0.0249214
-0.0244504
-0.0240218
-0.0236293
-0.0232683
-0.0229345
-0.0226249
-0.0223367
-0.0220676
-0.0218156
-0.0215791
-0.0213565
-0.0211467
-0.0209484
-0.0207608
-0.0205828
-0.0204139
-0.0202532
-0.0201002
-0.0199543
-0.019815
-0.0196818
-0.0195543
-0.0194322
-0.0193151
-0.0192026
-0.0190946
-0.0189908
-0.0188908
-0.0187946
-0.0187018
-0.0186123
-0.0185259
-0.0184424
-0.0183618
-0.0182838
-0.0182084
-0.0181353
-0.0180646
-0.017996
-0.0179296
-0.0178651
-0.0178025
-0.0177417
-0.0176827
-0.0176254
-0.0175697
-0.0175155
-0.0174628
-0.0174115
-0.0173616
-0.017313
-0.0172657
-0.0172196
-0.0171747
-0.0171309
-0.0170883
-0.0170467
-0.0170061
-0.0169665
-0.0169278
-0.0168901
-0.0168533
-0.0168174
-0.0167823
-0.0167481
-0.0167146
-0.0166819
-0.01665
-0.0166188
-0.0165883
-0.0165585
-0.0165294
-0.016501
-0.0164732
-0.016446
-0.0164195
-0.0163936
-0.0163684
-0.0163437
-0.0163197
-0.0162963
-0.0162736
-0.0162514
-0.0162299
-0.0162091
-0.0161888
-0.0161692
-0.0161503
-0.016132
-0.0161143
-0.0160972
-0.0160808
-0.016065
-0.0160498
-0.0160352
-0.0160212
-0.0160078
-0.0159949
-0.0159826
-0.0159709
-0.0159598
-0.0159491
-0.015939
-0.0159294
-0.0159203
-0.0159117
-0.0159035
-0.0158958
-0.0158886
-0.0158817
-0.0158753
-0.0158693
-0.0158637
-0.0158584
-0.0158535
-0.015849
-0.0158448
-0.0158409
-0.0158372
-0.0158339
-0.0158309
-0.0158281
-0.0158256
-0.0158234
-0.0158213
-0.0158195
-0.0158178
-0.0158164
-0.0158151
-0.0158139
-0.015813
-0.0158122
-0.0158115
-0.015811
-0.0158105
-0.0158102
-0.01581
-0.0158099
-0.0158098
-0.0158098
-0.0158098
-0.0158099
-0.01581
-0.0158101
-0.0158102
-0.0158103
-0.0158105
-0.0158107
-0.0158108
-0.015811
-0.0158112
-0.0158113
-0.0158115
-0.0158117
-0.0158119
-0.015812
-0.0158122
-0.0158124
-0.0158126
-0.0158127
-0.0158129
-0.0158131
-0.0158133
-0.0158134
-0.0158136
-0.0158138
-0.015814
-0.0158142
-0.0158143
-0.0158145
-0.0158147
-0.0158149
-0.015815
-0.0158152
-0.0158154
-0.0158156
-0.0158158
-0.0158159
-0.0158161
-0.0158163
-0.0158165
-0.0158167
-0.0158168
-0.015817
-0.0158172
-0.0158174
-0.0158176
-0.0158177
-0.0158179
-0.0158181
-0.0158183
-0.0158184
-0.0158186
-0.0158188
-0.015819
-0.0158192
-0.0158193
-0.0158195
-0.0158197
-0.0158199
-0.0158201
-0.0158203
-0.0158204
-0.0158206
-0.0158208
-0.015821
-0.0158212
-0.0158213
-0.0158215
-0.0158217
-0.0158219
-0.0158221
-0.0158222
-0.0158224
-0.0158226
-0.0158228
-0.015823
-0.0158232
-0.0158233
-0.0158235
-0.0158237
-0.0158239
-0.0158241
-0.0158242
-0.0158244
-0.0158246
-0.0158248
-0.015825
-0.0158252
-0.0158253
-0.0158255
-0.0158257
-0.0158259
-0.0158261
-0.0158263
-0.0158264
-0.0158266
-0.0158268
-0.015827
-0.0158272
-0.0158274
-0.0158275
-0.0158277
-0.0158279
-0.0158281
-0.0158283
-0.0158285
-0.0158287
-0.0158288
-0.015829
-0.0158292
-0.0158294
-0.0158296
-0.0158298
-0.0158299
-0.0158301
-0.0158303
-0.0158305
-0.0158307
-0.0158309
-0.0158311
-0.0158312
-0.0158314
-0.0158316
-0.0158318
-0.015832
-0.0158322
-0.0158324
-0.0158325
-0.0158327
-0.0158329
-0.0158331
-0.0158333
-0.0158335
-0.0158337
-0.0158339
-0.015834
-0.0158342
-0.0158344
-0.0158346
-0.0158348
-0.015835
-0.0158352
-0.0158354
-0.0158355
-0.0158357
-0.0158359
-0.0158361
-0.0158363
-0.0158365
-0.0158367
-0.0158369
-0.015837
-0.0158372
-0.0158374
-0.0158376
-0.0158378
-0.015838
-0.0158382
-0.0158384
-0.0158386
-0.0158387
-0.0158389
-0.0158391
-0.0158393
-0.0158395
-0.0158397
-0.0158399
-0.0158401
-0.0158403
-0.0158405
-0.0158406
-0.0158408
-0.015841
-0.0158412
-0.0158414
-0.0158416
-0.0158418
-0.015842
-0.0158422
-0.0158424
-0.0158426
-0.0158427
-0.0158429
-0.0158431
-0.0158433
-0.0158435
-0.0158437
-0.0158439
-0.0158441
-0.0158443
-0.0158445
-0.0158447
-0.0158449
-0.015845
-0.0158452
-0.0158454
-0.0158456
-0.0158458
-0.015846
-0.0158462
-0.0158464
-0.0158466
-0.0158468
-0.015847
-0.0158472
-0.0158474
-0.0158476
-0.0158477
-0.0158479
-0.0158481
-0.0158483
-0.0158485
-0.0158487
-0.0158489
-0.0158491
-0.0158493
-0.0158495
-0.0158497
-0.0158499
-0.0158501
-0.0158503
-0.0158505
-0.0158507
-0.0158509
-0.015851
-0.0158512
-0.0158514
-0.0158516
-0.0158518
-0.015852
-0.0158522
-0.0158524
-0.0158526
-0.0158528
-0.015853
-0.0158532
-0.0158535
-0.0158536
-0.0158539
-0.0158536
-0.0158536
-0.0158536
1
0.131663
0.0682691
0.0522958
0.0444197
0.0395766
0.0362595
0.0338324
0.0319724
0.0304957
0.0292896
0.0282813
0.0274218
0.0266772
0.0260232
0.0254423
0.0249214
0.0244504
0.0240218
0.0236293
0.0232683
0.0229345
0.0226249
0.0223367
0.0220676
0.0218156
0.0215791
0.0213565
0.0211467
0.0209484
0.0207608
0.0205828
0.0204139
0.0202532
0.0201002
0.0199543
0.019815
0.0196818
0.0195543
0.0194322
0.0193151
0.0192026
0.0190946
0.0189908
0.0188908
0.0187946
0.0187018
0.0186123
0.0185259
0.0184424
0.0183618
0.0182838
0.0182084
0.0181353
0.0180646
0.017996
0.0179296
0.0178651
0.0178025
0.0177417
0.0176827
0.0176254
0.0175697
0.0175155
0.0174628
0.0174115
0.0173616
0.017313
0.0172657
0.0172196
0.0171747
0.0171309
0.0170883
0.0170467
0.0170061
0.0169665
0.0169278
0.0168901
0.0168533
0.0168174
0.0167823
0.0167481
0.0167146
0.0166819
0.01665
0.0166188
0.0165883
0.0165585
0.0165294
0.016501
0.0164732
0.016446
0.0164195
0.0163936
0.0163684
0.0163437
0.0163197
0.0162963
0.0162736
0.0162514
0.0162299
0.0162091
0.0161888
0.0161692
0.0161503
0.016132
0.0161143
0.0160972
0.0160808
0.016065
0.0160498
0.0160352
0.0160212
0.0160078
0.0159949
0.0159826
0.0159709
0.0159598
0.0159491
0.015939
0.0159294
0.0159203
0.0159117
0.0159035
0.0158958
0.0158886
0.0158817
0.0158753
0.0158693
0.0158637
0.0158584
0.0158535
0.015849
0.0158448
0.0158409
0.0158372
0.0158339
0.0158309
0.0158281
0.0158256
0.0158234
0.0158213
0.0158195
0.0158178
0.0158164
0.0158151
0.0158139
0.015813
0.0158122
0.0158115
0.015811
0.0158105
0.0158102
0.01581
0.0158099
0.0158098
0.0158098
0.0158098
0.0158099
0.01581
0.0158101
0.0158102
0.0158103
0.0158105
0.0158107
0.0158108
0.015811
0.0158112
0.0158113
0.0158115
0.0158117
0.0158119
0.015812
0.0158122
0.0158124
0.0158126
0.0158127
0.0158129
0.0158131
0.0158133
0.0158134
0.0158136
0.0158138
0.015814
0.0158142
0.0158143
0.0158145
0.0158147
0.0158149
0.015815
0.0158152
0.0158154
0.0158156
0.0158158
0.0158159
0.0158161
0.0158163
0.0158165
0.0158167
0.0158168
0.015817
0.0158172
0.0158174
0.0158176
0.0158177
0.0158179
0.0158181
0.0158183
0.0158184
0.0158186
0.0158188
0.015819
0.0158192
0.0158193
0.0158195
0.0158197
0.0158199
0.0158201
0.0158203
0.0158204
0.0158206
0.0158208
0.015821
0.0158212
0.0158213
0.0158215
0.0158217
0.0158219
0.0158221
0.0158222
0.0158224
0.0158226
0.0158228
0.015823
0.0158232
0.0158233
0.0158235
0.0158237
0.0158239
0.0158241
0.0158242
0.0158244
0.0158246
0.0158248
0.015825
0.0158252
0.0158253
0.0158255
0.0158257
0.0158259
0.0158261
0.0158263
0.0158264
0.0158266
0.0158268
0.015827
0.0158272
0.0158274
0.0158275
0.0158277
0.0158279
0.0158281
0.0158283
0.0158285
0.0158287
0.0158288
0.015829
0.0158292
0.0158294
0.0158296
0.0158298
0.0158299
0.0158301
0.0158303
0.0158305
0.0158307
0.0158309
0.0158311
0.0158312
0.0158314
0.0158316
0.0158318
0.015832
0.0158322
0.0158324
0.0158325
0.0158327
0.0158329
0.0158331
0.0158333
0.0158335
0.0158337
0.0158339
0.015834
0.0158342
0.0158344
0.0158346
0.0158348
0.015835
0.0158352
0.0158354
0.0158355
0.0158357
0.0158359
0.0158361
0.0158363
0.0158365
0.0158367
0.0158369
0.015837
0.0158372
0.0158374
0.0158376
0.0158378
0.015838
0.0158382
0.0158384
0.0158386
0.0158387
0.0158389
0.0158391
0.0158393
0.0158395
0.0158397
0.0158399
0.0158401
0.0158403
0.0158405
0.0158406
0.0158408
0.015841
0.0158412
0.0158414
0.0158416
0.0158418
0.015842
0.0158422
0.0158424
0.0158426
0.0158427
0.0158429
0.0158431
0.0158433
0.0158435
0.0158437
0.0158439
0.0158441
0.0158443
0.0158445
0.0158447
0.0158449
0.015845
0.0158452
0.0158454
0.0158456
0.0158458
0.015846
0.0158462
0.0158464
0.0158466
0.0158468
0.015847
0.0158472
0.0158474
0.0158476
0.0158477
0.0158479
0.0158481
0.0158483
0.0158485
0.0158487
0.0158489
0.0158491
0.0158493
0.0158495
0.0158497
0.0158499
0.0158501
0.0158503
0.0158505
0.0158507
0.0158509
0.015851
0.0158512
0.0158514
0.0158516
0.0158518
0.015852
0.0158522
0.0158524
0.0158526
0.0158528
0.015853
0.0158532
0.0158535
0.0158536
0.0158539
0.0158536
0.0158536
0.0158536
1
0.344884
0.200667
0.154967
0.131894
0.117598
0.107767
0.100557
0.0950244
0.0906285
0.0870373
0.0840353
0.0814773
0.079262
0.0773176
0.0755914
0.0740442
0.0726462
0.0713743
0.0702104
0.0691397
0.0681506
0.0672333
0.0663795
0.0655824
0.0648362
0.0641359
0.063477
0.0628559
0.0622692
0.0617139
0.0611875
0.0606877
0.0602124
0.0597598
0.0593282
0.0589161
0.0585223
0.0581453
0.0577843
0.057438
0.0571057
0.0567864
0.0564794
0.056184
0.0558994
0.0556252
0.0553607
0.0551054
0.0548588
0.0546205
0.0543901
0.0541672
0.0539514
0.0537424
0.0535399
0.0533435
0.053153
0.0529682
0.0527887
0.0526145
0.0524452
0.0522806
0.0521206
0.051965
0.0518136
0.0516662
0.0515228
0.0513831
0.051247
0.0511144
0.0509852
0.0508592
0.0507363
0.0506165
0.0504997
0.0503857
0.0502744
0.0501658
0.0500598
0.0499563
0.0498552
0.0497565
0.04966
0.0495658
0.0494738
0.0493839
0.0492961
0.0492102
0.0491264
0.0490445
0.0489645
0.0488864
0.0488102
0.0487358
0.0486634
0.0485928
0.048524
0.0484571
0.0483922
0.0483291
0.0482679
0.0482086
0.0481512
0.0480956
0.048042
0.0479903
0.0479404
0.0478924
0.0478462
0.0478018
0.0477593
0.0477185
0.0476794
0.047642
0.0476063
0.0475722
0.0475397
0.0475089
0.0474795
0.0474517
0.0474253
0.0474003
0.0473767
0.0473544
0.0473334
0.0473137
0.0472952
0.0472779
0.0472617
0.0472466
0.0472325
0.0472195
0.0472074
0.0471962
0.0471858
0.0471764
0.0471677
0.0471599
0.0471528
0.0471464
0.0471406
0.0471354
0.0471307
0.0471266
0.047123
0.0471199
0.0471172
0.047115
0.0471131
0.0471117
0.0471106
0.0471098
0.0471092
0.0471089
0.0471088
0.0471087
0.0471089
0.0471091
0.0471094
0.0471097
0.0471101
0.0471105
0.047111
0.0471115
0.047112
0.0471125
0.047113
0.0471135
0.047114
0.0471146
0.0471151
0.0471156
0.0471161
0.0471167
0.0471172
0.0471177
0.0471182
0.0471188
0.0471193
0.0471198
0.0471204
0.0471209
0.0471214
0.047122
0.0471225
0.047123
0.0471235
0.0471241
0.0471246
0.0471251
0.0471257
0.0471262
0.0471267
0.0471273
0.0471278
0.0471283
0.0471289
0.0471294
0.0471299
0.0471305
0.047131
0.0471315
0.0471321
0.0471326
0.0471331
0.0471337
0.0471342
0.0471347
0.0471353
0.0471358
0.0471363
0.0471369
0.0471374
0.047138
0.0471385
0.047139
0.0471396
0.0471401
0.0471406
0.0471412
0.0471417
0.0471423
0.0471428
0.0471433
0.0471439
0.0471444
0.047145
0.0471455
0.047146
0.0471466
0.0471471
0.0471477
0.0471482
0.0471488
0.0471493
0.0471498
0.0471504
0.0471509
0.0471515
0.047152
0.0471526
0.0471531
0.0471536
0.0471542
0.0471547
0.0471553
0.0471558
0.0471564
0.0471569
0.0471575
0.047158
0.0471586
0.0471591
0.0471597
0.0471602
0.0471608
0.0471613
0.0471619
0.0471624
0.0471629
0.0471635
0.047164
0.0471646
0.0471651
0.0471657
0.0471662
0.0471668
0.0471674
0.0471679
0.0471685
0.047169
0.0471696
0.0471701
0.0471707
0.0471712
0.0471718
0.0471723
0.0471729
0.0471734
0.047174
0.0471745
0.0471751
0.0471757
0.0471762
0.0471768
0.0471773
0.0471779
0.0471784
0.047179
0.0471795
0.0471801
0.0471807
0.0471812
0.0471818
0.0471823
0.0471829
0.0471834
0.047184
0.0471846
0.0471851
0.0471857
0.0471862
0.0471868
0.0471874
0.0471879
0.0471885
0.0471891
0.0471896
0.0471902
0.0471907
0.0471913
0.0471919
0.0471924
0.047193
0.0471936
0.0471941
0.0471947
0.0471952
0.0471958
0.0471964
0.0471969
0.0471975
0.0471981
0.0471986
0.0471992
0.0471998
0.0472003
0.0472009
0.0472015
0.047202
0.0472026
0.0472032
0.0472037
0.0472043
0.0472049
0.0472054
0.047206
0.0472066
0.0472072
0.0472077
0.0472083
0.0472089
0.0472094
0.04721
0.0472106
0.0472111
0.0472117
0.0472123
0.0472129
0.0472134
0.047214
0.0472146
0.0472152
0.0472157
0.0472163
0.0472169
0.0472175
0.047218
0.0472186
0.0472192
0.0472198
0.0472203
0.0472209
0.0472215
0.0472221
0.0472226
0.0472232
0.0472238
0.0472244
0.0472249
0.0472255
0.0472261
0.0472267
0.0472273
0.0472278
0.0472284
0.047229
0.0472296
0.0472302
0.0472307
0.0472313
0.0472319
0.0472325
0.0472331
0.0472337
0.0472342
0.0472348
0.0472354
0.047236
0.0472366
0.0472371
0.0472378
0.0472383
0.047239
0.0472394
0.0472403
0.0472395
0.0472395
0.0472395
1
0.518765
0.327401
0.255347
0.217848
0.194403
0.178211
0.166307
0.157158
0.149883
0.143938
0.138969
0.134735
0.131069
0.127853
0.124999
0.122442
0.120132
0.118032
0.11611
0.114343
0.112711
0.111197
0.109789
0.108474
0.107244
0.106089
0.105003
0.103979
0.103012
0.102097
0.10123
0.100406
0.099623
0.0988773
0.0981663
0.0974875
0.0968387
0.0962179
0.0956232
0.0950529
0.0945056
0.0939798
0.0934743
0.0929878
0.0925193
0.0920677
0.0916322
0.0912119
0.090806
0.0904138
0.0900345
0.0896676
0.0893123
0.0889683
0.088635
0.0883118
0.0879983
0.0876941
0.0873988
0.0871121
0.0868335
0.0865627
0.0862994
0.0860434
0.0857943
0.0855518
0.0853158
0.085086
0.0848621
0.084644
0.0844314
0.0842242
0.0840221
0.0838251
0.0836329
0.0834454
0.0832624
0.0830838
0.0829094
0.0827392
0.082573
0.0824107
0.0822522
0.0820973
0.0819461
0.0817983
0.0816539
0.0815129
0.0813751
0.0812406
0.0811092
0.080981
0.0808559
0.0807339
0.080615
0.0804992
0.0803865
0.0802769
0.0801704
0.0800671
0.0799669
0.0798699
0.079776
0.0796853
0.0795976
0.0795131
0.0794317
0.0793533
0.079278
0.0792056
0.0791363
0.0790698
0.0790062
0.0789453
0.0788872
0.0788318
0.078779
0.0787288
0.0786812
0.078636
0.0785932
0.0785527
0.0785144
0.0784783
0.0784444
0.0784125
0.0783825
0.0783546
0.0783285
0.0783041
0.0782815
0.0782604
0.0782409
0.0782229
0.0782064
0.0781912
0.0781774
0.0781648
0.0781535
0.0781432
0.078134
0.0781257
0.0781184
0.0781119
0.0781062
0.0781013
0.0780971
0.0780936
0.0780908
0.0780886
0.078087
0.0780858
0.078085
0.0780845
0.0780843
0.0780844
0.0780846
0.078085
0.0780855
0.0780861
0.0780868
0.0780875
0.0780883
0.0780891
0.0780899
0.0780908
0.0780916
0.0780925
0.0780934
0.0780942
0.0780951
0.078096
0.0780968
0.0780977
0.0780986
0.0780994
0.0781003
0.0781012
0.0781021
0.0781029
0.0781038
0.0781047
0.0781056
0.0781065
0.0781073
0.0781082
0.0781091
0.07811
0.0781108
0.0781117
0.0781126
0.0781135
0.0781144
0.0781152
0.0781161
0.078117
0.0781179
0.0781188
0.0781197
0.0781205
0.0781214
0.0781223
0.0781232
0.0781241
0.078125
0.0781259
0.0781267
0.0781276
0.0781285
0.0781294
0.0781303
0.0781312
0.0781321
0.078133
0.0781339
0.0781348
0.0781356
0.0781365
0.0781374
0.0781383
0.0781392
0.0781401
0.078141
0.0781419
0.0781428
0.0781437
0.0781446
0.0781455
0.0781464
0.0781473
0.0781482
0.0781491
0.07815
0.0781509
0.0781518
0.0781527
0.0781536
0.0781545
0.0781554
0.0781563
0.0781572
0.0781581
0.078159
0.0781599
0.0781608
0.0781617
0.0781626
0.0781635
0.0781644
0.0781653
0.0781662
0.0781671
0.078168
0.0781689
0.0781698
0.0781707
0.0781716
0.0781726
0.0781735
0.0781744
0.0781753
0.0781762
0.0781771
0.078178
0.0781789
0.0781798
0.0781808
0.0781817
0.0781826
0.0781835
0.0781844
0.0781853
0.0781862
0.0781872
0.0781881
0.078189
0.0781899
0.0781908
0.0781917
0.0781927
0.0781936
0.0781945
0.0781954
0.0781963
0.0781973
0.0781982
0.0781991
0.0782
0.0782009
0.0782019
0.0782028
0.0782037
0.0782046
0.0782056
0.0782065
0.0782074
0.0782083
0.0782093
0.0782102
0.0782111
0.078212
0.078213
0.0782139
0.0782148
0.0782158
0.0782167
0.0782176
0.0782185
0.0782195
0.0782204
0.0782213
0.0782223
0.0782232
0.0782241
0.0782251
0.078226
0.0782269
0.0782279
0.0782288
0.0782297
0.0782307
0.0782316
0.0782325
0.0782335
0.0782344
0.0782354
0.0782363
0.0782372
0.0782382
0.0782391
0.0782401
0.078241
0.0782419
0.0782429
0.0782438
0.0782448
0.0782457
0.0782467
0.0782476
0.0782485
0.0782495
0.0782504
0.0782514
0.0782523
0.0782533
0.0782542
0.0782552
0.0782561
0.0782571
0.078258
0.078259
0.0782599
0.0782609
0.0782618
0.0782628
0.0782637
0.0782647
0.0782656
0.0782666
0.0782675
0.0782685
0.0782694
0.0782704
0.0782713
0.0782723
0.0782732
0.0782742
0.0782752
0.0782761
0.0782771
0.078278
0.078279
0.07828
0.0782809
0.0782819
0.0782828
0.0782838
0.0782847
0.0782857
0.0782867
0.0782876
0.0782886
0.0782896
0.0782905
0.0782915
0.0782925
0.0782934
0.0782944
0.0782953
0.0782963
0.0782973
0.0782983
0.0782992
0.0783004
0.078301
0.0783025
0.0783014
0.0783014
0.0783014
1
0.660887
0.446894
0.352877
0.302029
0.269849
0.2475
0.231018
0.218327
0.208225
0.199965
0.193059
0.187176
0.182083
0.177616
0.173654
0.170104
0.1669
0.163986
0.161321
0.158871
0.156609
0.154511
0.15256
0.150739
0.149035
0.147435
0.145931
0.144514
0.143175
0.141908
0.140707
0.139567
0.138483
0.137451
0.136466
0.135527
0.134629
0.13377
0.132947
0.132158
0.131401
0.130673
0.129974
0.129301
0.128653
0.128028
0.127426
0.126844
0.126283
0.12574
0.125216
0.124708
0.124217
0.123741
0.12328
0.122834
0.1224
0.121979
0.121571
0.121175
0.12079
0.120415
0.120051
0.119697
0.119353
0.119018
0.118692
0.118374
0.118064
0.117763
0.117469
0.117183
0.116904
0.116631
0.116366
0.116106
0.115854
0.115607
0.115366
0.115131
0.114901
0.114677
0.114458
0.114244
0.114035
0.113831
0.113632
0.113437
0.113247
0.113061
0.11288
0.112703
0.11253
0.112362
0.112198
0.112039
0.111883
0.111732
0.111586
0.111444
0.111306
0.111172
0.111043
0.110918
0.110798
0.110682
0.11057
0.110463
0.110359
0.11026
0.110165
0.110074
0.109987
0.109904
0.109824
0.109748
0.109676
0.109608
0.109543
0.109481
0.109423
0.109367
0.109315
0.109266
0.10922
0.109176
0.109136
0.109098
0.109062
0.109029
0.108998
0.10897
0.108943
0.108919
0.108897
0.108876
0.108858
0.108841
0.108825
0.108812
0.108799
0.108788
0.108778
0.10877
0.108762
0.108756
0.10875
0.108746
0.108742
0.108739
0.108737
0.108736
0.108735
0.108734
0.108734
0.108734
0.108734
0.108735
0.108736
0.108737
0.108738
0.108739
0.10874
0.108741
0.108742
0.108743
0.108744
0.108746
0.108747
0.108748
0.108749
0.10875
0.108752
0.108753
0.108754
0.108755
0.108756
0.108758
0.108759
0.10876
0.108761
0.108762
0.108764
0.108765
0.108766
0.108767
0.108769
0.10877
0.108771
0.108772
0.108773
0.108775
0.108776
0.108777
0.108778
0.10878
0.108781
0.108782
0.108783
0.108785
0.108786
0.108787
0.108788
0.108789
0.108791
0.108792
0.108793
0.108794
0.108796
0.108797
0.108798
0.108799
0.108801
0.108802
0.108803
0.108804
0.108806
0.108807
0.108808
0.108809
0.108811
0.108812
0.108813
0.108814
0.108815
0.108817
0.108818
0.108819
0.10882
0.108822
0.108823
0.108824
0.108825
0.108827
0.108828
0.108829
0.10883
0.108832
0.108833
0.108834
0.108835
0.108837
0.108838
0.108839
0.10884
0.108842
0.108843
0.108844
0.108846
0.108847
0.108848
0.108849
0.108851
0.108852
0.108853
0.108854
0.108856
0.108857
0.108858
0.108859
0.108861
0.108862
0.108863
0.108864
0.108866
0.108867
0.108868
0.10887
0.108871
0.108872
0.108873
0.108875
0.108876
0.108877
0.108878
0.10888
0.108881
0.108882
0.108884
0.108885
0.108886
0.108887
0.108889
0.10889
0.108891
0.108893
0.108894
0.108895
0.108896
0.108898
0.108899
0.1089
0.108901
0.108903
0.108904
0.108905
0.108907
0.108908
0.108909
0.10891
0.108912
0.108913
0.108914
0.108916
0.108917
0.108918
0.10892
0.108921
0.108922
0.108923
0.108925
0.108926
0.108927
0.108929
0.10893
0.108931
0.108932
0.108934
0.108935
0.108936
0.108938
0.108939
0.10894
0.108942
0.108943
0.108944
0.108946
0.108947
0.108948
0.108949
0.108951
0.108952
0.108953
0.108955
0.108956
0.108957
0.108959
0.10896
0.108961
0.108963
0.108964
0.108965
0.108966
0.108968
0.108969
0.10897
0.108972
0.108973
0.108974
0.108976
0.108977
0.108978
0.10898
0.108981
0.108982
0.108984
0.108985
0.108986
0.108988
0.108989
0.10899
0.108992
0.108993
0.108994
0.108996
0.108997
0.108998
0.109
0.109001
0.109002
0.109004
0.109005
0.109006
0.109008
0.109009
0.10901
0.109012
0.109013
0.109014
0.109016
0.109017
0.109018
0.10902
0.109021
0.109022
0.109024
0.109025
0.109026
0.109028
0.109029
0.10903
0.109032
0.109033
0.109035
0.109035
0.109038
0.109036
0.109036
0.109036
1
0.776802
0.557824
0.446877
0.384101
0.343742
0.315509
0.294603
0.278468
0.265606
0.25508
0.246276
0.238775
0.232283
0.226589
0.221539
0.217018
0.212936
0.209226
0.205834
0.202716
0.199837
0.197168
0.194686
0.19237
0.190203
0.188169