# vtk DataFile Version 2.0
FlowField
ASCII
DATASET STRUCTURED_GRID
DIMENSIONS 400 1 200
POINTS 80000 float
0 0 0
0.08 0 0
0.16 0 0
0.24 0 0
0.32 0 0
0.4 0 0
0.48 0 0
0.56 0 0
0.64 0 0
0.72 0 0
0.8 0 0
0.88 0 0
0.96 0 0
1.04 0 0
1.12 0 0
1.2 0 0
1.28 0 0
1.36 0 0
1.44 0 0
1.52 0 0
1.6 0 0
1.68 0 0
1.76 0 0
1.84 0 0
1.92 0 0
2 0 0
2.08 0 0
2.16 0 0
2.24 0 0
2.32 0 0
2.4 0 0
2.48 0 0
2.56 0 0
2.64 0 0
2.72 0 0
2.8 0 0
2.88 0 0
2.96 0 0
3.04 0 0
3.12 0 0
3.2 0 0
3.28 0 0
3.36 0 0
3.44 0 0
3.52 0 0
3.6 0 0
3.68 0 0
3.76 0 0
3.84 0 0
3.92 0 0
4 0 0
4.08 0 0
4.16 0 0
4.24 0 0
4.32 0 0
4.4 0 0
4.48 0 0
4.56 0 0
4.64 0 0
4.72 0 0
4.8 0 0
4.88 0 0
4.96 0 0
5.04 0 0
5.12 0 0
5.2 0 0
5.28 0 0
5.36 0 0
5.44 0 0
5.52 0 0
5.6 0 0
5.68 0 0
5.76 0 0
5.84 0 0
5.92 0 0
6 0 0
6.08 0 0
6.16 0 0
6.24 0 0
6.32 0 0
6.4 0 0
6.48 0 0
6.56 0 0
6.64 0 0
6.72 0 0
6.8 0 0
6.88 0 0
6.96 0 0
7.04 0 0
7.12 0 0
7.2 0 0
7.28 0 0
7.36 0 0
7.44 0 0
7.52 0 0
7.6 0 0
7.68 0 0
7.76 0 0
7.84 0 0
7.92 0 0
8 0 0
8.08 0 0
8.16 0 0
8.24 0 0
8.32 0 0
8.4 0 0
8.48 0 0
8.56 0 0
8.64 0 0
8.72 0 0
8.8 0 0
8.88 0 0
8.96 0 0
9.04 0 0
9.12 0 0
9.2 0 0
9.28 0 0
9.36 0 0
9.44 0 0
9.52 0 0
9.6 0 0
9.68 0 0
9.76 0 0
9.84 0 0
9.92 0 0
10 0 0
10.08 0 0
10.16 0 0
10.24 0 0
10.32 0 0
10.4 0 0
10.48 0 0
10.56 0 0
10.64 0 0
10.72 0 0
10.8 0 0
10.88 0 0
10.96 0 0
11.04 0 0
11.12 0 0
11.2 0 0
11.28 0 0
11.36 0 0
11.44 0 0
11.52 0 0
11.6 0 0
11.68 0 0
11.76 0 0
11.84 0 0
11.92 0 0
12 0 0
12.08 0 0
12.16 0 0
12.24 0 0
12.32 0 0
12.4 0 0
12.48 0 0
12.56 0 0
12.64 0 0
12.72 0 0
12.8 0 0
12.88 0 0
12.96 0 0
13.04 0 0
13.12 0 0
13.2 0 0
13.28 0 0
13.36 0 0
13.44 0 0
13.52 0 0
13.6 0 0
13.68 0 0
13.76 0 0
13.84 0 0
13.92 0 0
14 0 0
14.08 0 0
14.16 0 0
14.24 0 0
14.32 0 0
14.4 0 0
14.48 0 0
14.56 0 0
14.64 0 0
14.72 0 0
14.8 0 0
14.88 0 0
14.96 0 0
15.04 0 0
15.12 0 0
15.2 0 0
15.28 0 0
15.36 0 0
15.44 0 0
15.52 0 0
15.6 0 0
15.68 0 0
15.76 0 0
15.84 0 0
15.92 0 0
16 0 0
16.08 0 0
16.16 0 0
16.24 0 0
16.32 0 0
16.4 0 0
16.48 0 0
16.56 0 0
16.64 0 0
16.72 0 0
16.8 0 0
16.88 0 0
16.96 0 0
17.04 0 0
17.12 0 0
17.2 0 0
17.28 0 0
17.36 0 0
17.44 0 0
17.52 0 0
17.6 0 0
17.68 0 0
17.76 0 0
17.84 0 0
17.92 0 0
18 0 0
18.08 0 0
18.16 0 0
18.24 0 0
18.32 0 0
18.4 0 0
18.48 0 0
18.56 0 0
18.64 0 0
18.72 0 0
18.8 0 0
18.88 0 0
18.96 0 0
19.04 0 0
19.12 0 0
19.2 0 0
19.28 0 0
19.36 0 0
19.44 0 0
19.52 0 0
19.6 0 0
19.68 0 0
19.76 0 0
19.84 0 0
19.92 0 0
20 0 0
20.08 0 0
20.16 0 0
20.24 0 0
20.32 0 0
20.4 0 0
20.48 0 0
20.56 0 0
20.64 0 0
20.72 0 0
20.8 0 0
20.88 0 0
20.96 0 0
21.04 0 0
21.12 0 0
21.2 0 0
21.28 0 0
21.36 0 0
21.44 0 0
21.52 0 0
21.6 0 0
21.68 0 0
21.76 0 0
21.84 0 0
21.92 0 0
22 0 0
22.08 0 0
22.16 0 0
22.24 0 0
22.32 0 0
22.4 0 0
22.48 0 0
22.56 0 0
22.64 0 0
22.72 0 0
22.8 0 0
22.88 0 0
22.96 0 0
23.04 0 0
23.12 0 0
23.2 0 0
23.28 0 0
23.36 0 0
23.44 0 0
23.52 0 0
23.6 0 0
23.68 0 0
23.76 0 0
23.84 0 0
23.92 0 0
24 0 0
24.08 0 0
24.16 0 0
24.24 0 0
24.32 0 0
24.4 0 0
24.48 0 0
24.56 0 0
24.64 0 0
24.72 0 0
24.8 0 0
24.88 0 0
24.96 0 0
25.04 0 0
25.12 0 0
25.2 0 0
25.28 0 0
25.36 0 0
25.44 0 0
25.52 0 0
25.6 0 0
25.68 0 0
25.76 0 0
25.84 0 0
25.92 0 0
26 0 0
26.08 0 0
26.16 0 0
26.24 0 0
26.32 0 0
26.4 0 0
26.48 0 0
26.56 0 0
26.64 0 0
26.72 0 0
26.8 0 0
26.88 0 0
26.96 0 0
27.04 0 0
27.12 0 0
27.2 0 0
27.28 0 0
27.36 0 0
27.44 0 0
27.52 0 0
27.6 0 0
27.68 0 0
27.76 0 0
27.84 0 0
27.92 0 0
28 0 0
28.08 0 0
28.16 0 0
28.24 0 0
28.32 0 0
28.4 0 0
28.48 0 0
28.56 0 0
28.64 0 0
28.72 0 0
28.8 0 0
28.88 0 0
28.96 0 0
29.04 0 0
29.12 0 0
29.2 0 0
29.28 0 0
29.36 0 0
29.44 0 0
29.52 0 0
29.6 0 0
29.68 0 0
29.76 0 0
29.84 0 0
29.92 0 0
30 0 0
30.08 0 0
30.16 0 0
30.24 0 0
30.32 0 0
30.4 0 0
30.48 0 0
30.56 0 0
30.64 0 0
30.72 0 0
30.8 0 0
30.88 0 0
30.96 0 0
31.04 0 0
31.12 0 0
31.2 0 0
31.28 0 0
31.36 0 0
31.44 0 0
31.52 0 0
31.6 0 0
31.68 0 0
31.76 0 0
31.84 0 0
31.92 0 0
0 0.005 0
0.08 0.005 0
0.16 0.005 0
0.24 0.005 0
0.32 0.005 0
0.4 0.005 0
0.48 0.005 0
0.56 0.005 0
0.64 0.005 0
0.72 0.005 0
0.8 0.005 0
0.88 0.005 0
0.96 0.005 0
1.04 0.005 0
1.12 0.005 0
1.2 0.005 0
1.28 0.005 0
1.36 0.005 0
1.44 0.005 0
1.52 0.005 0
1.6 0.005 0
1.68 0.005 0
1.76 0.005 0
1.84 0.005 0
1.92 0.005 0
2 0.005 0
2.08 0.005 0
2.16 0.005 0
2.24 0.005 0
2.32 0.005 0
2.4 0.005 0
2.48 0.005 0
2.56 0.005 0
2.64 0.005 0
2.72 0.005 0
2.8 0.005 0
2.88 0.005 0
2.96 0.005 0
3.04 0.005 0
3.12 0.005 0
3.2 0.005 0
3.28 0.005 0
3.36 0.005 0
3.44 0.005 0
3.52 0.005 0
3.6 0.005 0
3.68 0.005 0
3.76 0.005 0
3.84 0.005 0
3.92 0.005 0
4 0.005 0
4.08 0.005 0
4.16 0.005 0
4.24 0.005 0
4.32 0.005 0
4.4 0.005 0
4.48 0.005 0
4.56 0.005 0
4.64 0.005 0
4.72 0.005 0
4.8 0.005 0
4.88 0.005 0
4.96 0.005 0
5.04 0.005 0
5.12 0.005 0
5.2 0.005 0
5.28 0.005 0
5.36 0.005 0
5.44 0.005 0
5.52 0.005 0
5.6 0.005 0
5.68 0.005 0
5.76 0.005 0
5.84 0.005 0
5.92 0.005 0
6 0.005 0
6.08 0.005 0
6.16 0.005 0
6.24 0.005 0
6.32 0.005 0
6.4 0.005 0
6.48 0.005 0
6.56 0.005 0
6.64 0.005 0
6.72 0.005 0
6.8 0.005 0
6.88 0.005 0
6.96 0.005 0
7.04 0.005 0
7.12 0.005 0
7.2 0.005 0
7.28 0.005 0
7.36 0.005 0
7.44 0.005 0
7.52 0.005 0
7.6 0.005 0
7.68 0.005 0
7.76 0.005 0
7.84 0.005 0
7.92 0.005 0
8 0.005 0
8.08 0.005 0
8.16 0.005 0
8.24 0.005 0
8.32 0.005 0
8.4 0.005 0
8.48 0.005 0
8.56 0.005 0
8.64 0.005 0
8.72 0.005 0
8.8 0.005 0
8.88 0.005 0
8.96 0.005 0
9.04 0.005 0
9.12 0.005 0
9.2 0.005 0
9.28 0.005 0
9.36 0.005 0
9.44 0.005 0
9.52 0.005 0
9.6 0.005 0
9.68 0.005 0
9.76 0.005 0
9.84 0.005 0
9.92 0.005 0
10 0.005 0
10.08 0.005 0
10.16 0.005 0
10.24 0.005 0
10.32 0.005 0
10.4 0.005 0
10.48 0.005 0
10.56 0.005 0
10.64 0.005 0
10.72 0.005 0
10.8 0.005 0
10.88 0.005 0
10.96 0.005 0
11.04 0.005 0
11.12 0.005 0
11.2 0.005 0
11.28 0.005 0
11.36 0.005 0
11.44 0.005 0
11.52 0.005 0
11.6 0.005 0
11.68 0.005 0
11.76 0.005 0
11.84 0.005 0
11.92 0.005 0
12 0.005 0
12.08 0.005 0
12.16 0.005 0
12.24 0.005 0
12.32 0.005 0
12.4 0.005 0
12.48 0.005 0
12.56 0.005 0
12.64 0.005 0
12.72 0.005 0
12.8 0.005 0
12.88 0.005 0
12.96 0.005 0
13.04 0.005 0
13.12 0.005 0
13.2 0.005 0
13.28 0.005 0
13.36 0.005 0
13.44 0.005 0
13.52 0.005 0
13.6 0.005 0
13.68 0.005 0
13.76 0.005 0
13.84 0.005 0
13.92 0.005 0
14 0.005 0
14.08 0.005 0
14.16 0.005 0
14.24 0.005 0
14.32 0.005 0
14.4 0.005 0
14.48 0.005 0
14.56 0.005 0
14.64 0.005 0
14.72 0.005 0
14.8 0.005 0
14.88 0.005 0
14.96 0.005 0
15.04 0.005 0
15.12 0.005 0
15.2 0.005 0
15.28 0.005 0
15.36 0.005 0
15.44 0.005 0
15.52 0.005 0
15.6 0.005 0
15.68 0.005 0
15.76 0.005 0
15.84 0.005 0
15.92 0.005 0
16 0.005 0
16.08 0.005 0
16.16 0.005 0
16.24 0.005 0
16.32 0.005 0
16.4 0.005 0
16.48 0.005 0
16.56 0.005 0
16.64 0.005 0
16.72 0.005 0
16.8 0.005 0
16.88 0.005 0
16.96 0.005 0
17.04 0.005 0
17.12 0.005 0
17.2 0.005 0
17.28 0.005 0
17.36 0.005 0
17.44 0.005 0
17.52 0.005 0
17.6 0.005 0
17.68 0.005 0
17.76 0.005 0
17.84 0.005 0
17.92 0.005 0
18 0.005 0
18.08 0.005 0
18.16 0.005 0
18.24 0.005 0
18.32 0.005 0
18.4 0.005 0
18.48 0.005 0
18.56 0.005 0
18.64 0.005 0
18.72 0.005 0
18.8 0.005 0
18.88 0.005 0
18.96 0.005 0
19.04 0.005 0
19.12 0.005 0
19.2 0.005 0
19.28 0.005 0
19.36 0.005 0
19.44 0.005 0
19.52 0.005 0
19.6 0.005 0
19.68 0.005 0
19.76 0.005 0
19.84 0.005 0
19.92 0.005 0
20 0.005 0
20.08 0.005 0
20.16 0.005 0
20.24 0.005 0
20.32 0.005 0
20.4 0.005 0
20.48 0.005 0
20.56 0.005 0
20.64 0.005 0
20.72 0.005 0
20.8 0.005 0
20.88 0.005 0
20.96 0.005 0
21.04 0.005 0
21.12 0.005 0
21.2 0.005 0
21.28 0.005 0
21.36 0.005 0
21.44 0.005 0
21.52 0.005 0
21.6 0.005 0
21.68 0.005 0
21.76 0.005 0
21.84 0.005 0
21.92 0.005 0
22 0.005 0
22.08 0.005 0
22.16 0.005 0
22.24 0.005 0
22.32 0.005 0
22.4 0.005 0
22.48 0.005 0
22.56 0.005 0
22.64 0.005 0
22.72 0.005 0
22.8 0.005 0
22.88 0.005 0
22.96 0.005 0
23.04 0.005 0
23.12 0.005 0
23.2 0.005 0
23.28 0.005 0
23.36 0.005 0
23.44 0.005 0
23.52 0.005 0
23.6 0.005 0
23.68 0.005 0
23.76 0.005 0
23.84 0.005 0
23.92 0.005 0
24 0.005 0
24.08 0.005 0
24.16 0.005 0
24.24 0.005 0
24.32 0.005 0
24.4 0.005 0
24.48 0.005 0
24.56 0.005 0
24.64 0.005 0
24.72 0.005 0
24.8 0.005 0
24.88 0.005 0
24.96 0.005 0
25.04 0.005 0
25.12 0.005 0
25.2 0.005 0
25.28 0.005 0
25.36 0.005 0
25.44 0.005 0
25.52 0.005 0
25.6 0.005 0
25.68 0.005 0
25.76 0.005 0
25.84 0.005 0
25.92 0.005 0
26 0.005 0
26.08 0.005 0
26.16 0.005 0
26.24 0.005 0
26.32 0.005 0
26.4 0.005 0
26.48 0.005 0
26.56 0.005 0
26.64 0.005 0
26.72 0.005 0
26.8 0.005 0
26.88 0.005 0
26.96 0.005 0
27.04 0.005 0
27.12 0.005 0
27.2 0.005 0
27.28 0.005 0
27.36 0.005 0
27.44 0.005 0
27.52 0.005 0
27.6 0.005 0
27.68 0.005 0
27.76 0.005 0
27.84 0.005 0
27.92 0.005 0
28 0.005 0
28.08 0.005 0
28.16 0.005 0
28.24 0.005 0
28.32 0.005 0
28.4 0.005 0
28.48 0.005 0
28.56 0.005 0
28.64 0.005 0
28.72 0.005 0
28.8 0.005 0
28.88 0.005 0
28.96 0.005 0
29.04 0.005 0
29.12 0.005 0
29.2 0.005 0
29.28 0.005 0
29.36 0.005 0
29.44 0.005 0
29.52 0.005 0
29.6 0.005 0
29.68 0.005 0
29.76 0.005 0
29.84 0.005 0
29.92 0.005 0
30 0.005 0
30.08 0.005 0
30.16 0.005 0
30.24 0.005 0
30.32 0.005 0
30.4 0.005 0
30.48 0.005 0
30.56 0.005 0
30.64 0.005 0
30.72 0.005 0
30.8 0.005 0
30.88 0.005 0
30.96 0.005 0
31.04 0.005 0
31.12 0.005 0
31.2 0.005 0
31.28 0.005 0
31.36 0.005 0
31.44 0.005 0
31.52 0.005 0
31.6 0.005 0
31.68 0.005 0
31.76 0.005 0
31.84 0.005 0
31.92 0.005 0
0 0.01 0
0.08 0.01 0
0.16 0.01 0
0.24 0.01 0
0.32 0.01 0
0.4 0.01 0
0.48 0.01 0
0.56 0.01 0
0.64 0.01 0
0.72 0.01 0
0.8 0.01 0
0.88 0.01 0
0.96 0.01 0
1.04 0.01 0
1.12 0.01 0
1.2 0.01 0
1.28 0.01 0
1.36 0.01 0
1.44 0.01 0
1.52 0.01 0
1.6 0.01 0
1.68 0.01 0
1.76 0.01 0
1.84 0.01 0
1.92 0.01 0
2 0.01 0
2.08 0.01 0
2.16 0.01 0
2.24 0.01 0
2.32 0.01 0
2.4 0.01 0
2.48 0.01 0
2.56 0.01 0
2.64 0.01 0
2.72 0.01 0
2.8 0.01 0
2.88 0.01 0
2.96 0.01 0
3.04 0.01 0
3.12 0.01 0
3.2 0.01 0
3.28 0.01 0
3.36 0.01 0
3.44 0.01 0
3.52 0.01 0
3.6 0.01 0
3.68 0.01 0
3.76 0.01 0
3.84 0.01 0
3.92 0.01 0
4 0.01 0
4.08 0.01 0
4.16 0.01 0
4.24 0.01 0
4.32 0.01 0
4.4 0.01 0
4.48 0.01 0
4.56 0.01 0
4.64 0.01 0
4.72 0.01 0
4.8 0.01 0
4.88 0.01 0
4.96 0.01 0
5.04 0.01 0
5.12 0.01 0
[...]
POINT_DATA 80000

SCALARS v float 1
LOOKUP_TABLE default
0
0
0
0
0
0
0
0
0
0
0
0
0
0
0
0
0
0
0
0
0
0
0
0
0
0
0
0
0
0
0
0
0
0
0
0
0
0
0
0
0
0
0
0
0
0
0
0
0
0
0
0
0
0
0
0
0
0
0
0
0
0
0
0
0
0
0
0
0
0
0
0
0
0
0
0
0
0
0
0
0
0
0
0
0
0
0
0
0
0
0
0
0
0
0
0
0
0
0
0
0
0
0
0
0
0
0
0
0
0
0
0
0
0
0
0
0
0
0
0
0
0
0
0
0
0
0
0
0
0
0
0
0
0
0
0
0
0
0
0
0
0
0
0
0
0
0
0
0
0
0
0
0
0
0
0
0
0
0
0
0
0
0
0
0
0
0
0
0
0
0
0
0
0
0
0
0
0
0
0
0
0
0
0
0
0
0
0
0
0
0
0
0
0
0
0
0
0
0
0
0
0
0
0
0
0
0
0
0
0
0
0
0
0
0
0
0
0
0
0
0
0
0
0
0
0
0
0
0
0
0
0
0
0
0
0
0
0
0
0
0
0
0
0
0
0
0
0
0
0
0
0
0
0
0
0
0
0
0
0
0
0
0
0
0
0
0
0
0
0
0
0
0
0
0
0
0
0
0
0
0
0
0
0
0
0
0
0
0
0
0
0
0
0
0
0
0
0
0
0
0
0
0
0
0
0
0
0
0
0
0
0
0
0
0
0
0
0
0
0
0
0
0
0
0
0
0
0
0
0
0
0
0
0
0
0
0
0
0
0
0
0
0
0
0
0
0
0
0
0
0
0
0
0
0
0
0
0
0
0
0
0
0
0
0
0
0
0
0
0
0
0
0
0
0
0
0
0
0
0
0
0
0
0
0
0
0
0
0
0
0
0
0
0
0
0
0
0
0
0
-0.0542711
0.0542711
0.0039621
0.00099833
0.00049226
0.000302696
0.00020732
0.000151692
0.00011625
9.22939e-05
7.53807e-05
6.30201e-05
5.37196e-05
4.65412e-05
4.08733e-05
3.63062e-05
3.25587e-05
2.94337e-05
2.67907e-05
2.45275e-05
2.25686e-05
2.08572e-05
1.935e-05
1.80131e-05
1.68201e-05
1.57496e-05
1.47845e-05
1.39106e-05
1.31162e-05
1.23915e-05
1.17283e-05
1.11196e-05
1.05592e-05
1.00421e-05
9.56381e-06
9.12032e-06
8.70827e-06
8.32464e-06
7.96681e-06
7.63242e-06
7.31941e-06
7.02592e-06
6.75031e-06
6.49111e-06
6.24699e-06
6.01676e-06
5.79933e-06
5.59376e-06
5.39914e-06
5.21469e-06
5.03967e-06
4.87344e-06
4.71537e-06
4.56492e-06
4.42158e-06
4.28489e-06
4.15442e-06
4.02977e-06
3.9106e-06
3.79655e-06
3.68733e-06
3.58265e-06
3.48224e-06
3.38585e-06
3.29327e-06
3.20428e-06
3.11868e-06
3.03629e-06
2.95693e-06
2.88046e-06
2.80671e-06
2.73556e-06
2.66686e-06
2.60051e-06
2.53638e-06
2.47437e-06
2.41437e-06
2.35631e-06
2.30007e-06
2.24559e-06
2.19279e-06
2.14158e-06
2.0919e-06
2.04369e-06
1.99689e-06
1.95143e-06
1.90726e-06
1.86433e-06
1.82259e-06
1.78199e-06
1.7425e-06
1.70406e-06
1.66664e-06
1.63019e-06
1.5947e-06
1.56011e-06
1.52641e-06
1.49355e-06
1.46151e-06
1.43027e-06
1.39979e-06
1.37005e-06
1.34103e-06
1.3127e-06
1.28505e-06
1.25804e-06
1.23167e-06
1.20591e-06
1.18074e-06
1.15615e-06
1.13212e-06
1.10864e-06
1.08568e-06
1.06324e-06
1.0413e-06
1.01984e-06
9.98855e-07
9.78331e-07
9.58256e-07
9.38617e-07
9.19404e-07
9.00605e-07
8.8221e-07
8.64208e-07
8.46591e-07
8.29348e-07
8.12471e-07
7.95951e-07
7.79778e-07
7.63946e-07
7.48445e-07
7.33268e-07
7.18408e-07
7.03857e-07
6.89608e-07
6.75655e-07
6.6199e-07
6.48607e-07
6.35499e-07
6.22662e-07
6.10088e-07
5.97772e-07
5.85708e-07
5.73891e-07
5.62315e-07
5.50975e-07
5.39867e-07
5.28985e-07
5.18324e-07
5.07879e-07
4.97647e-07
4.87622e-07
4.778e-07
4.68177e-07
4.58749e-07
4.49511e-07
4.4046e-07
4.31592e-07
4.22904e-07
4.1439e-07
4.06048e-07
3.97874e-07
3.89865e-07
3.82018e-07
3.74328e-07
3.66793e-07
3.5941e-07
3.52176e-07
3.45086e-07
3.3814e-07
3.31333e-07
3.24663e-07
3.18127e-07
3.11723e-07
3.05447e-07
2.99297e-07
2.93271e-07
2.87366e-07
2.81579e-07
2.75909e-07
2.70353e-07
2.64908e-07
2.59572e-07
2.54344e-07
2.49221e-07
2.44201e-07
2.39281e-07
2.3446e-07
2.29736e-07
2.25107e-07
2.20571e-07
2.16126e-07
2.11771e-07
2.07502e-07
2.0332e-07
1.99222e-07
1.95205e-07
1.9127e-07
1.87414e-07
1.83635e-07
1.79932e-07
1.76304e-07
1.72748e-07
1.69264e-07
1.6585e-07
1.62505e-07
1.59227e-07
1.56014e-07
1.52867e-07
1.49783e-07
1.4676e-07
1.43799e-07
1.40897e-07
1.38053e-07
1.35267e-07
1.32537e-07
1.29862e-07
1.2724e-07
1.24672e-07
1.22155e-07
1.19688e-07
1.17272e-07
1.14904e-07
1.12584e-07
1.1031e-07
1.08082e-07
1.05899e-07
1.0376e-07
1.01665e-07
9.96109e-08
9.75987e-08
9.56271e-08
9.36951e-08
9.18021e-08
8.99473e-08
8.81298e-08
8.6349e-08
8.46041e-08
8.28944e-08
8.12191e-08
7.95777e-08
7.79693e-08
7.63934e-08
7.48493e-08
7.33363e-08
7.18538e-08
7.04013e-08
6.8978e-08
6.75835e-08
6.62171e-08
6.48783e-08
6.35665e-08
6.22812e-08
6.10219e-08
5.97879e-08
5.85789e-08
5.73943e-08
5.62336e-08
5.50963e-08
5.3982e-08
5.28902e-08
5.18205e-08
5.07723e-08
4.97453e-08
4.87391e-08
4.77532e-08
4.67872e-08
4.58407e-08
4.49134e-08
4.40048e-08
4.31145e-08
4.22422e-08
4.13876e-08
4.05502e-08
3.97298e-08
3.89259e-08
3.81383e-08
3.73666e-08
3.66105e-08
3.58696e-08
3.51438e-08
3.44326e-08
3.37358e-08
3.30531e-08
3.23842e-08
3.17288e-08
3.10867e-08
3.04576e-08
2.98411e-08
2.92372e-08
2.86454e-08
2.80656e-08
2.74976e-08
2.6941e-08
2.63957e-08
2.58614e-08
2.53379e-08
2.48251e-08
2.43226e-08
2.38302e-08
2.33478e-08
2.28752e-08
2.24121e-08
2.19584e-08
2.15139e-08
2.10784e-08
2.06517e-08
2.02336e-08
1.9824e-08
1.94226e-08
1.90294e-08
1.86442e-08
1.82667e-08
1.78969e-08
1.75345e-08
1.71795e-08
1.68317e-08
1.64909e-08
1.6157e-08
1.58299e-08
1.55094e-08
1.51954e-08
1.48877e-08
1.45862e-08
1.42909e-08
1.40015e-08
1.3718e-08
1.34403e-08
1.31681e-08
1.29015e-08
1.26402e-08
1.23843e-08
1.21335e-08
1.18879e-08
1.16471e-08
1.14113e-08
1.11801e-08
1.09539e-08
1.07319e-08
1.05147e-08
1.03016e-08
1.00932e-08
9.8886e-09
9.68861e-09
9.49211e-09
9.30025e-09
9.1115e-09
8.92745e-09
8.74612e-09
8.56963e-09
8.39535e-09
8.22618e-09
8.05861e-09
7.89654e-09
7.73532e-09
7.58018e-09
7.42491e-09
7.27658e-09
7.12686e-09
6.98524e-09
6.84062e-09
6.70574e-09
6.56568e-09
6.43765e-09
6.30154e-09
6.18057e-09
6.04766e-09
5.93416e-09
5.80354e-09
5.69813e-09
5.5686e-09
5.47223e-09
5.34228e-09
5.2563e-09
5.1239e-09
5.05026e-09
4.91271e-09
4.85411e-09
4.70774e-09
4.66792e-09
4.50768e-09
4.49166e-09
4.31053e-09
4.32496e-09
4.1128e-09
4.16583e-09
3.90768e-09
4.00787e-09
3.68031e-09
3.8326e-09
3.39662e-09
3.58993e-09
2.97685e-09
3.15162e-09
2.24411e-09
2.22168e-09
9.18034e-10
3.55877e-10
8.7166e-15
8.7166e-15
-0.0952159
0.0952159
0.0129756
0.00385462
0.00193431
0.0011962
0.000821741
0.000602314
0.000462067
0.000367041
0.000299831
0.000250645
0.000213602
0.000184994
0.0001624
0.000144195
0.00012926
0.00011681
0.000106285
9.72762e-05
8.9483e-05
8.26778e-05
7.66869e-05
7.13755e-05
6.66372e-05
6.23872e-05
5.85565e-05
5.50888e-05
5.19373e-05
4.90631e-05
4.64332e-05
4.40195e-05
4.17981e-05
3.97485e-05
3.78527e-05
3.60951e-05
3.44623e-05
3.29423e-05
3.15245e-05
3.01998e-05
2.89598e-05
2.77973e-05
2.67056e-05
2.5679e-05
2.47122e-05
2.38004e-05
2.29394e-05
2.21253e-05
2.13547e-05
2.06243e-05
1.99313e-05
1.92732e-05
1.86473e-05
1.80517e-05
1.74842e-05
1.69431e-05
1.64266e-05
1.59333e-05
1.54615e-05
1.50101e-05
1.45778e-05
1.41635e-05
1.37661e-05
1.33846e-05
1.30182e-05
1.2666e-05
1.23273e-05
1.20012e-05
1.16872e-05
1.13846e-05
1.10928e-05
1.08113e-05
1.05395e-05
1.02769e-05
1.00232e-05
9.77787e-06
9.54053e-06
9.31081e-06
9.08836e-06
8.87285e-06
8.66396e-06
8.46141e-06
8.26493e-06
8.07425e-06
7.88912e-06
7.70933e-06
7.53465e-06
7.36487e-06
7.1998e-06
7.03926e-06
6.88307e-06
6.73107e-06
6.5831e-06
6.43901e-06
6.29866e-06
6.16193e-06
6.02867e-06
5.89877e-06
5.77211e-06
5.64859e-06
5.5281e-06
5.41055e-06
5.29583e-06
5.18385e-06
5.07454e-06
4.96781e-06
4.86357e-06
4.76176e-06
4.6623e-06
4.56512e-06
4.47016e-06
4.37735e-06
4.28663e-06
4.19794e-06
4.11124e-06
4.02645e-06
3.94354e-06
3.86245e-06
3.78313e-06
3.70554e-06
3.62963e-06
3.55536e-06
3.48269e-06
3.41158e-06
3.34198e-06
3.27387e-06
3.2072e-06
3.14194e-06
3.07806e-06
3.01553e-06
2.9543e-06
2.89436e-06
2.83567e-06
2.7782e-06
2.72192e-06
2.66681e-06
2.61285e-06
2.56e-06
2.50823e-06
2.45754e-06
2.40788e-06
2.35925e-06
2.31161e-06
2.26495e-06
2.21924e-06
2.17447e-06
2.13061e-06
2.08764e-06
2.04555e-06
2.00431e-06
1.96391e-06
1.92433e-06
1.88555e-06
1.84756e-06
1.81034e-06
1.77387e-06
1.73814e-06
1.70313e-06
1.66883e-06
1.63522e-06
1.60229e-06
1.57003e-06
1.53841e-06
1.50744e-06
1.47708e-06
1.44734e-06
1.4182e-06
1.38964e-06
1.36166e-06
1.33424e-06
1.30737e-06
1.28105e-06
1.25525e-06
1.22997e-06
1.2052e-06
1.18093e-06
1.15715e-06
1.13384e-06
1.11101e-06
1.08863e-06
1.0667e-06
1.04521e-06
1.02415e-06
1.00352e-06
9.83302e-07
9.6349e-07
9.44076e-07
9.25051e-07
9.06409e-07
8.88142e-07
8.70242e-07
8.52701e-07
8.35513e-07
8.1867e-07
8.02166e-07
7.85993e-07
7.70146e-07
7.54617e-07
7.394e-07
7.24489e-07
7.09877e-07
6.9556e-07
6.8153e-07
6.67783e-07
6.54312e-07
6.41112e-07
6.28177e-07
6.15503e-07
6.03083e-07
5.90913e-07
5.78989e-07
5.67304e-07
5.55854e-07
5.44635e-07
5.33641e-07
5.22869e-07
5.12313e-07
5.0197e-07
4.91836e-07
4.81905e-07
4.72174e-07
4.6264e-07
4.53297e-07
4.44142e-07
4.35172e-07
4.26383e-07
4.17771e-07
4.09332e-07
4.01063e-07
3.92961e-07
3.85022e-07
3.77243e-07
3.69621e-07
3.62153e-07
3.54835e-07
3.47665e-07
3.40639e-07
3.33755e-07
3.2701e-07
3.20401e-07
3.13925e-07
3.07579e-07
3.01362e-07
2.9527e-07
2.89301e-07
2.83453e-07
2.77722e-07
2.72108e-07
2.66606e-07
2.61216e-07
2.55934e-07
2.50759e-07
2.45688e-07
2.4072e-07
2.35852e-07
2.31082e-07
2.26409e-07
2.2183e-07
2.17344e-07
2.12948e-07
2.08641e-07
2.0442e-07
2.00285e-07
1.96234e-07
1.92265e-07
1.88375e-07
1.84564e-07
1.80831e-07
1.77172e-07
1.73588e-07
1.70076e-07
1.66635e-07
1.63263e-07
1.5996e-07
1.56723e-07
1.53552e-07
1.50445e-07
1.47401e-07
1.44418e-07
1.41496e-07
1.38632e-07
1.35827e-07
1.33078e-07
1.30385e-07
1.27746e-07
1.25161e-07
1.22628e-07
1.20146e-07
1.17714e-07
1.15332e-07
1.12997e-07
1.1071e-07
1.0847e-07
1.06274e-07
1.04123e-07
1.02015e-07
9.99502e-08
9.7927e-08
9.59447e-08
9.40025e-08
9.20996e-08
9.02352e-08
8.84085e-08
8.66188e-08
8.48653e-08
8.31472e-08
8.1464e-08
7.98147e-08
7.81989e-08
7.66157e-08
7.50646e-08
7.35449e-08
7.20558e-08
7.0597e-08
6.91677e-08
6.77673e-08
6.63952e-08
6.50509e-08
6.37338e-08
6.24434e-08
6.1179e-08
5.99403e-08
5.87266e-08
5.75376e-08
5.63725e-08
5.52311e-08
5.41127e-08
5.30171e-08
5.19434e-08
5.08918e-08
4.98611e-08
4.88516e-08
4.78622e-08
4.68933e-08
4.59434e-08
4.50134e-08
4.41015e-08
4.32089e-08
4.23334e-08
4.14767e-08
4.06362e-08
3.9814e-08
3.90069e-08
3.8218e-08
3.74429e-08
3.66859e-08
3.59415e-08
3.52154e-08
3.45002e-08
3.38039e-08
3.31166e-08
3.24491e-08
3.17883e-08
3.11487e-08
3.05131e-08
2.99007e-08
2.92887e-08
2.87031e-08
2.8113e-08
2.75538e-08
2.6984e-08
2.64512e-08
2.58996e-08
2.53935e-08
2.48578e-08
2.43792e-08
2.38566e-08
2.34069e-08
2.2894e-08
2.24755e-08
2.19677e-08
2.15839e-08
2.10755e-08
2.07315e-08
2.02149e-08
1.99178e-08
1.93829e-08
1.91427e-08
1.85759e-08
1.84065e-08
1.77889e-08
1.77091e-08
1.70143e-08
1.70485e-08
1.62387e-08
1.64172e-08
1.54362e-08
1.57903e-08
1.45499e-08
1.50966e-08
1.3449e-08
1.41438e-08
1.18267e-08
1.24401e-08
9.00038e-09
8.85147e-09
3.87203e-09
1.68353e-09
4.56243e-14
4.56243e-14
-0.125293
0.125293
0.0249359
0.00835802
0.004278
0.00266152
0.00183374
0.00134635
0.00103388
0.000821704
0.000671387
0.00056125
0.000478232
0.000414085
0.000363411
0.000322576
0.000289079
0.000261164
0.000237571
0.000217385
0.000199929
0.000184691
0.000171281
0.000159395
0.000148795
0.00013929
0.000130724
0.000122972
0.000115928
0.000109505
0.000103628
9.82351e-05
9.32725e-05
8.8694e-05
8.44594e-05
8.05341e-05
7.68875e-05
7.34931e-05
7.03273e-05
6.73693e-05
6.46007e-05
6.20051e-05
5.95679e-05
5.7276e-05
5.51176e-05
5.30822e-05
5.11603e-05
4.93431e-05
4.7623e-05
4.59928e-05
4.44462e-05
4.29772e-05
4.15805e-05
4.02512e-05
3.89848e-05
3.77772e-05
3.66246e-05
3.55236e-05
3.4471e-05
3.34637e-05
3.2499e-05
3.15745e-05
3.06878e-05
2.98367e-05
2.90192e-05
2.82334e-05
2.74777e-05
2.67503e-05
2.60497e-05
2.53746e-05
2.47236e-05
2.40956e-05
2.34893e-05
2.29037e-05
2.23377e-05
2.17905e-05
2.12611e-05
2.07487e-05
2.02525e-05
1.97718e-05
1.9306e-05
1.88542e-05
1.8416e-05
1.79908e-05
1.75779e-05
1.7177e-05
1.67875e-05
1.64089e-05
1.60408e-05
1.56828e-05
1.53345e-05
1.49956e-05
1.46657e-05
1.43444e-05
1.40315e-05
1.37267e-05
1.34296e-05
1.314e-05
1.28576e-05
1.25823e-05
1.23137e-05
1.20516e-05
1.17959e-05
1.15463e-05
1.13027e-05
1.10648e-05
1.08324e-05
1.06055e-05
1.03838e-05
1.01672e-05
9.9556e-06
9.74877e-06
9.5466e-06
9.34896e-06
9.15574e-06
8.9668e-06
8.78204e-06
8.60135e-06
8.42461e-06
8.25172e-06
8.08258e-06
7.9171e-06
7.75518e-06
7.59674e-06
7.44168e-06
7.28993e-06
7.1414e-06
6.99602e-06
6.8537e-06
6.71439e-06
6.57799e-06
6.44446e-06
6.31371e-06
6.1857e-06
6.06034e-06
5.93759e-06
5.81738e-06
5.69965e-06
5.58436e-06
5.47144e-06
5.36085e-06
5.25252e-06
5.14642e-06
5.0425e-06
4.9407e-06
4.84098e-06
4.74329e-06
4.6476e-06
4.55385e-06
4.46202e-06
4.37205e-06
4.2839e-06
4.19755e-06
4.11295e-06
4.03006e-06
3.94885e-06
3.86929e-06
3.79133e-06
3.71495e-06
3.64011e-06
3.56679e-06
3.49494e-06
3.42455e-06
3.35557e-06
3.28798e-06
3.22176e-06
3.15687e-06
3.09329e-06
3.03099e-06
2.96994e-06
2.91013e-06
2.85151e-06
2.79408e-06
2.7378e-06
2.68265e-06
2.62861e-06
2.57566e-06
2.52378e-06
2.47293e-06
2.42311e-06
2.37429e-06
2.32645e-06
2.27958e-06
2.23364e-06
2.18863e-06
2.14453e-06
2.10131e-06
2.05896e-06
2.01746e-06
1.97679e-06
1.93694e-06
1.89789e-06
1.85963e-06
1.82214e-06
1.7854e-06
1.7494e-06
1.71412e-06
1.67955e-06
1.64568e-06
1.61249e-06
1.57996e-06
1.54809e-06
1.51686e-06
1.48626e-06
1.45628e-06
1.42689e-06
1.3981e-06
1.36989e-06
1.34225e-06
1.31516e-06
1.28861e-06
1.26261e-06
1.23712e-06
1.21215e-06
1.18768e-06
1.1637e-06
1.14021e-06
1.11718e-06
1.09463e-06
1.07252e-06
1.05086e-06
1.02964e-06
1.00885e-06
9.88472e-07
9.68507e-07
9.48944e-07
9.29775e-07
9.10992e-07
8.92588e-07
8.74555e-07
8.56885e-07
8.39572e-07
8.22608e-07
8.05985e-07
7.89698e-07
7.73739e-07
7.58102e-07
7.42781e-07
7.27768e-07
7.13058e-07
6.98645e-07
6.84523e-07
6.70686e-07
6.57128e-07
6.43843e-07
6.30826e-07
6.18073e-07
6.05576e-07
5.93332e-07
5.81335e-07
5.6958e-07
5.58062e-07
5.46777e-07
5.3572e-07
5.24886e-07
5.1427e-07
5.03869e-07
4.93679e-07
4.83694e-07
4.7391e-07
4.64324e-07
4.54932e-07
4.4573e-07
4.36713e-07
4.27879e-07
4.19223e-07
4.10742e-07
4.02432e-07
3.9429e-07
3.86313e-07
3.78497e-07
3.70839e-07
3.63336e-07
3.55984e-07
3.48781e-07
3.41723e-07
3.34808e-07
3.28033e-07
3.21395e-07
3.14891e-07
3.08519e-07
3.02275e-07
2.96158e-07
2.90164e-07
2.84292e-07
2.78538e-07
2.72901e-07
2.67377e-07
2.61966e-07
2.56664e-07
2.51469e-07
2.46379e-07
2.41392e-07
2.36506e-07
2.31718e-07
2.27028e-07
2.22432e-07
2.1793e-07
2.13518e-07
2.09196e-07
2.04961e-07
2.00812e-07
1.96747e-07
1.92764e-07
1.88861e-07
1.85038e-07
1.81292e-07
1.77621e-07
1.74025e-07
1.70502e-07
1.6705e-07
1.63668e-07
1.60354e-07
1.57108e-07
1.53927e-07
1.5081e-07
1.47757e-07
1.44765e-07
1.41834e-07
1.38962e-07
1.36149e-07
1.33392e-07
1.30691e-07
1.28045e-07
1.25452e-07
1.22912e-07
1.20423e-07
1.17985e-07
1.15595e-07
1.13255e-07
1.10961e-07
1.08715e-07
1.06513e-07
1.04357e-07
1.02243e-07
1.00173e-07
9.81439e-08
9.61573e-08
9.42091e-08
9.23025e-08
9.0432e-08
8.86022e-08
8.68062e-08
8.50504e-08
8.33256e-08
8.1641e-08
7.99844e-08
7.83684e-08
7.6777e-08
7.52272e-08
7.36979e-08
7.22121e-08
7.0742e-08
6.93183e-08
6.79041e-08
6.65409e-08
6.51794e-08
6.38755e-08
6.25632e-08
6.13178e-08
6.00508e-08
5.88638e-08
5.76378e-08
5.65098e-08
5.53197e-08
5.42522e-08
5.30919e-08
5.20881e-08
5.09501e-08
5.00147e-08
4.88894e-08
4.80298e-08
4.69048e-08
4.61318e-08
4.49909e-08
4.43195e-08
4.31412e-08
4.25928e-08
4.13476e-08
4.09519e-08
3.95995e-08
3.93963e-08
3.78803e-08
3.79218e-08
3.61613e-08
3.65115e-08
3.43858e-08
3.51111e-08
3.24304e-08
3.35653e-08
3.00104e-08
3.14554e-08
2.6457e-08
2.77118e-08
2.02785e-08
1.98683e-08
9.04677e-09
4.23938e-09
8.39819e-14
8.39819e-14
-0.146488
0.146488
0.0383105
0.014234
0.00745602
0.00467275
0.00323055
0.00237653
0.00182708
0.00145306
0.00118762
0.000992883
0.000845958
0.000732363
0.000642595
0.000570249
0.000510907
0.00046146
0.000419681
0.000383945
0.00035305
0.00032609
0.000302371
0.000281354
0.000262615
0.000245815
0.000230678
0.000216982
0.000204538
0.000193192
0.000182814
0.000173291
0.000164528
0.000156444
0.000148969
0.000142039
0.000135602
0.000129611
0.000124023
0.000118802
0.000113916
0.000109336
0.000105035
0.00010099
9.71816e-05
9.359e-05
9.01988e-05
8.69925e-05
8.39576e-05
8.10815e-05
7.83527e-05
7.57611e-05
7.3297e-05
7.09519e-05
6.87178e-05
6.65876e-05
6.45544e-05
6.26122e-05
6.07553e-05
5.89786e-05
5.7277e-05
5.56464e-05
5.40824e-05
5.25812e-05
5.11393e-05
4.97535e-05
4.84206e-05
4.71377e-05
4.59022e-05
4.47116e-05
4.35637e-05
4.24561e-05
4.13869e-05
4.03542e-05
3.93562e-05
3.83913e-05
3.74578e-05
3.65543e-05
3.56795e-05
3.4832e-05
3.40105e-05
3.32141e-05
3.24415e-05
3.16918e-05
3.0964e-05
3.02571e-05
2.95704e-05
2.8903e-05
2.82541e-05
2.76231e-05
2.70092e-05
2.64118e-05
2.58303e-05
2.5264e-05
2.47125e-05
2.41751e-05
2.36515e-05
2.31411e-05
2.26435e-05
2.21582e-05
2.16849e-05
2.12231e-05
2.07724e-05
2.03326e-05
1.99032e-05
1.9484e-05
1.90746e-05
1.86748e-05
1.82842e-05
1.79026e-05
1.75297e-05
1.71652e-05
1.68091e-05
1.64609e-05
1.61204e-05
1.57876e-05
1.54621e-05
1.51438e-05
1.48324e-05
1.45279e-05
1.42299e-05
1.39384e-05
1.36532e-05
1.33741e-05
1.3101e-05
1.28337e-05
1.25721e-05
1.2316e-05
1.20654e-05
1.182e-05
1.15798e-05
1.13446e-05
1.11143e-05
1.08889e-05
1.06681e-05
1.04519e-05
1.02402e-05
1.00329e-05
9.82988e-06
9.63103e-06
9.43628e-06
9.24554e-06
9.05871e-06
8.87571e-06
8.69645e-06
8.52086e-06
8.34886e-06
8.18037e-06
8.01531e-06
7.85361e-06
7.6952e-06
7.54001e-06
7.38798e-06
7.23902e-06
7.09309e-06
6.95012e-06
6.81004e-06
6.67279e-06
6.53832e-06
6.40657e-06
6.27749e-06
6.151e-06
6.02708e-06
5.90565e-06
5.78667e-06
5.67009e-06
5.55587e-06
5.44394e-06
5.33427e-06
5.22681e-06
5.12151e-06
5.01833e-06
4.91723e-06
4.81817e-06
4.7211e-06
4.62598e-06
4.53277e-06
4.44144e-06
4.35195e-06
4.26425e-06
4.17832e-06
4.09412e-06
4.01161e-06
3.93076e-06
3.85154e-06
3.77391e-06
3.69784e-06
3.6233e-06
3.55026e-06
3.47868e-06
3.40855e-06
3.33982e-06
3.27248e-06
3.20649e-06
3.14183e-06
3.07847e-06
3.01638e-06
2.95555e-06
2.89593e-06
2.83752e-06
2.78028e-06
2.72419e-06
2.66922e-06
2.61537e-06
2.5626e-06
2.51089e-06
2.46022e-06
2.41057e-06
2.36192e-06
2.31425e-06
2.26753e-06
2.22176e-06
2.17691e-06
2.13296e-06
2.0899e-06
2.04771e-06
2.00636e-06
1.96585e-06
1.92615e-06
1.88725e-06
1.84914e-06
1.81179e-06
1.7752e-06
1.73934e-06
1.70421e-06
1.66978e-06
1.63605e-06
1.603e-06
1.57061e-06
1.53888e-06
1.50778e-06
1.47732e-06
1.44746e-06
1.41821e-06
1.38955e-06
1.36147e-06
1.33395e-06
1.30699e-06
1.28057e-06
1.25469e-06
1.22933e-06
1.20448e-06
1.18013e-06
1.15627e-06
1.13289e-06
1.10999e-06
1.08754e-06
1.06555e-06
1.04401e-06
1.0229e-06
1.00221e-06
9.81947e-07
9.62089e-07
9.42632e-07
9.23568e-07
9.04889e-07
8.86587e-07
8.68655e-07
8.51085e-07
8.3387e-07
8.17003e-07
8.00476e-07
7.84283e-07
7.68418e-07
7.52873e-07
7.37642e-07
7.22718e-07
7.08097e-07
6.9377e-07
6.79734e-07
6.65981e-07
6.52505e-07
6.39303e-07
6.26367e-07
6.13692e-07
6.01274e-07
5.89107e-07
5.77186e-07
5.65505e-07
5.54061e-07
5.42849e-07
5.31862e-07
5.21099e-07
5.10552e-07
5.00219e-07
4.90095e-07
4.80176e-07
4.70457e-07
4.60935e-07
4.51605e-07
4.42465e-07
4.33509e-07
4.24734e-07
4.16136e-07
4.07713e-07
3.9946e-07
3.91374e-07
3.83451e-07
3.75689e-07
3.68083e-07
3.60632e-07
3.53331e-07
3.46178e-07
3.3917e-07
3.32304e-07
3.25576e-07
3.18985e-07
3.12527e-07
3.062e-07
3e-07
2.93927e-07
2.87976e-07
2.82145e-07
2.76433e-07
2.70836e-07
2.65352e-07
2.59979e-07
2.54716e-07
2.49558e-07
2.44505e-07
2.39554e-07
2.34704e-07
2.29952e-07
2.25296e-07
2.20733e-07
2.16264e-07
2.11885e-07
2.07595e-07
2.03391e-07
1.99273e-07
1.95237e-07
1.91284e-07
1.8741e-07
1.83616e-07
1.79897e-07
1.76255e-07
1.72684e-07
1.69189e-07
1.65761e-07
1.62406e-07
1.59115e-07
1.55896e-07
1.52736e-07
1.49646e-07
1.46611e-07
1.43647e-07
1.40733e-07
1.37889e-07
1.35089e-07
1.32362e-07
1.29672e-07
1.27057e-07
1.24471e-07
1.21965e-07
1.19477e-07
1.17078e-07
1.14683e-07
1.12388e-07
1.1008e-07
1.07888e-07
1.0566e-07
1.0357e-07
1.01415e-07
9.94274e-08
9.73362e-08
9.54549e-08
9.3417e-08
9.16465e-08
8.96491e-08
8.79975e-08
8.60243e-08
8.4504e-08
8.25338e-08
8.11628e-08
7.9168e-08
7.79721e-08
7.59159e-08
7.49312e-08
7.27636e-08
7.20402e-08
6.96926e-08
6.92982e-08
6.66745e-08
6.66976e-08
6.366e-08
6.42088e-08
6.05516e-08
6.1738e-08
5.71371e-08
5.90175e-08
5.29257e-08
5.53261e-08
4.67641e-08
4.88223e-08
3.60733e-08
3.526e-08
1.66091e-08
8.27525e-09
1.49058e-13
1.49058e-13
-0.160438
0.160438
0.0519966
0.0211683
0.0113796
0.00719514
0.00499512
0.00368317
0.00283556
0.00225694
0.00184546
0.00154313
0.00131479
0.00113812
0.00099845
0.000885863