# vtk DataFile Version 2.0
FlowField
ASCII
DATASET STRUCTURED_GRID
DIMENSIONS 400 1 200
POINTS 80000 float
0 0 0
0.08 0 0
0.16 0 0
0.24 0 0
0.32 0 0
0.4 0 0
0.48 0 0
0.56 0 0
0.64 0 0
0.72 0 0
0.8 0 0
0.88 0 0
0.96 0 0
1.04 0 0
1.12 0 0
1.2 0 0
1.28 0 0
1.36 0 0
1.44 0 0
1.52 0 0
1.6 0 0
1.68 0 0
1.76 0 0
1.84 0 0
1.92 0 0
2 0 0
2.08 0 0
2.16 0 0
2.24 0 0
2.32 0 0
2.4 0 0
2.48 0 0
2.56 0 0
2.64 0 0
2.72 0 0
2.8 0 0
2.88 0 0
2.96 0 0
3.04 0 0
3.12 0 0
3.2 0 0
3.28 0 0
3.36 0 0
3.44 0 0
3.52 0 0
3.6 0 0
3.68 0 0
3.76 0 0
3.84 0 0
3.92 0 0
4 0 0
4.08 0 0
4.16 0 0
4.24 0 0
4.32 0 0
4.4 0 0
4.48 0 0
4.56 0 0
4.64 0 0
4.72 0 0
4.8 0 0
4.88 0 0
4.96 0 0
5.04 0 0
5.12 0 0
5.2 0 0
5.28 0 0
5.36 0 0
5.44 0 0
5.52 0 0
5.6 0 0
5.68 0 0
5.76 0 0
5.84 0 0
5.92 0 0
6 0 0
6.08 0 0
6.16 0 0
6.24 0 0
6.32 0 0
6.4 0 0
6.48 0 0
6.56 0 0
6.64 0 0
6.72 0 0
6.8 0 0
6.88 0 0
6.96 0 0
7.04 0 0
7.12 0 0
7.2 0 0
7.28 0 0
7.36 0 0
7.44 0 0
7.52 0 0
7.6 0 0
7.68 0 0
7.76 0 0
7.84 0 0
7.92 0 0
8 0 0
8.08 0 0
8.16 0 0
8.24 0 0
8.32 0 0
8.4 0 0
8.48 0 0
8.56 0 0
8.64 0 0
8.72 0 0
8.8 0 0
8.88 0 0
8.96 0 0
9.04 0 0
9.12 0 0
9.2 0 0
9.28 0 0
9.36 0 0
9.44 0 0
9.52 0 0
9.6 0 0
9.68 0 0
9.76 0 0
9.84 0 0
9.92 0 0
10 0 0
10.08 0 0
10.16 0 0
10.24 0 0
10.32 0 0
10.4 0 0
10.48 0 0
10.56 0 0
10.64 0 0
10.72 0 0
10.8 0 0
10.88 0 0
10.96 0 0
11.04 0 0
11.12 0 0
11.2 0 0
11.28 0 0
11.36 0 0
11.44 0 0
11.52 0 0
11.6 0 0
11.68 0 0
11.76 0 0
11.84 0 0
11.92 0 0
12 0 0
12.08 0 0
12.16 0 0
12.24 0 0
12.32 0 0
12.4 0 0
12.48 0 0
12.56 0 0
12.64 0 0
12.72 0 0
12.8 0 0
12.88 0 0
12.96 0 0
13.04 0 0
13.12 0 0
13.2 0 0
13.28 0 0
13.36 0 0
13.44 0 0
13.52 0 0
13.6 0 0
13.68 0 0
13.76 0 0
13.84 0 0
13.92 0 0
14 0 0
14.08 0 0
14.16 0 0
14.24 0 0
14.32 0 0
14.4 0 0
14.48 0 0
14.56 0 0
14.64 0 0
14.72 0 0
14.8 0 0
14.88 0 0
14.96 0 0
15.04 0 0
15.12 0 0
15.2 0 0
15.28 0 0
15.36 0 0
15.44 0 0
15.52 0 0
15.6 0 0
15.68 0 0
15.76 0 0
15.84 0 0
15.92 0 0
16 0 0
16.08 0 0
16.16 0 0
16.24 0 0
16.32 0 0
16.4 0 0
16.48 0 0
16.56 0 0
16.64 0 0
16.72 0 0
16.8 0 0
16.88 0 0
16.96 0 0
17.04 0 0
17.12 0 0
17.2 0 0
17.28 0 0
17.36 0 0
17.44 0 0
17.52 0 0
17.6 0 0
17.68 0 0
17.76 0 0
17.84 0 0
17.92 0 0
18 0 0
18.08 0 0
18.16 0 0
18.24 0 0
18.32 0 0
18.4 0 0
18.48 0 0
18.56 0 0
18.64 0 0
18.72 0 0
18.8 0 0
18.88 0 0
18.96 0 0
19.04 0 0
19.12 0 0
19.2 0 0
19.28 0 0
19.36 0 0
19.44 0 0
19.52 0 0
19.6 0 0
19.68 0 0
19.76 0 0
19.84 0 0
19.92 0 0
20 0 0
20.08 0 0
20.16 0 0
20.24 0 0
20.32 0 0
20.4 0 0
20.48 0 0
20.56 0 0
20.64 0 0
20.72 0 0
20.8 0 0
20.88 0 0
20.96 0 0
21.04 0 0
21.12 0 0
21.2 0 0
21.28 0 0
21.36 0 0
21.44 0 0
21.52 0 0
21.6 0 0
21.68 0 0
21.76 0 0
21.84 0 0
21.92 0 0
22 0 0
22.08 0 0
22.16 0 0
22.24 0 0
22.32 0 0
22.4 0 0
22.48 0 0
22.56 0 0
22.64 0 0
22.72 0 0
22.8 0 0
22.88 0 0
22.96 0 0
23.04 0 0
23.12 0 0
23.2 0 0
23.28 0 0
23.36 0 0
23.44 0 0
23.52 0 0
23.6 0 0
23.68 0 0
23.76 0 0
23.84 0 0
23.92 0 0
24 0 0
24.08 0 0
24.16 0 0
24.24 0 0
24.32 0 0
24.4 0 0
24.48 0 0
24.56 0 0
24.64 0 0
24.72 0 0
24.8 0 0
24.88 0 0
24.96 0 0
25.04 0 0
25.12 0 0
25.2 0 0
25.28 0 0
25.36 0 0
25.44 0 0
25.52 0 0
25.6 0 0
25.68 0 0
25.76 0 0
25.84 0 0
25.92 0 0
26 0 0
26.08 0 0
26.16 0 0
26.24 0 0
26.32 0 0
26.4 0 0
26.48 0 0
26.56 0 0
26.64 0 0
26.72 0 0
26.8 0 0
26.88 0 0
26.96 0 0
27.04 0 0
27.12 0 0
27.2 0 0
27.28 0 0
27.36 0 0
27.44 0 0
27.52 0 0
27.6 0 0
27.68 0 0
27.76 0 0
27.84 0 0
27.92 0 0
28 0 0
28.08 0 0
28.16 0 0
28.24 0 0
28.32 0 0
28.4 0 0
28.48 0 0
28.56 0 0
28.64 0 0
28.72 0 0
28.8 0 0
28.88 0 0
28.96 0 0
29.04 0 0
29.12 0 0
29.2 0 0
29.28 0 0
29.36 0 0
29.44 0 0
29.52 0 0
29.6 0 0
29.68 0 0
29.76 0 0
29.84 0 0
29.92 0 0
30 0 0
30.08 0 0
30.16 0 0
30.24 0 0
30.32 0 0
30.4 0 0
30.48 0 0
30.56 0 0
30.64 0 0
30.72 0 0
30.8 0 0
30.88 0 0
30.96 0 0
31.04 0 0
31.12 0 0
31.2 0 0
31.28 0 0
31.36 0 0
31.44 0 0
31.52 0 0
31.6 0 0
31.68 0 0
31.76 0 0
31.84 0 0
31.92 0 0
0 0.005 0
0.08 0.005 0
0.16 0.005 0
0.24 0.005 0
0.32 0.005 0
0.4 0.005 0
0.48 0.005 0
0.56 0.005 0
0.64 0.005 0
0.72 0.005 0
0.8 0.005 0
0.88 0.005 0
0.96 0.005 0
1.04 0.005 0
1.12 0.005 0
1.2 0.005 0
1.28 0.005 0
1.36 0.005 0
1.44 0.005 0
1.52 0.005 0
1.6 0.005 0
1.68 0.005 0
1.76 0.005 0
1.84 0.005 0
1.92 0.005 0
2 0.005 0
2.08 0.005 0
2.16 0.005 0
2.24 0.005 0
2.32 0.005 0
2.4 0.005 0
2.48 0.005 0
2.56 0.005 0
2.64 0.005 0
2.72 0.005 0
2.8 0.005 0
2.88 0.005 0
2.96 0.005 0
3.04 0.005 0
3.12 0.005 0
3.2 0.005 0
3.28 0.005 0
3.36 0.005 0
3.44 0.005 0
3.52 0.005 0
3.6 0.005 0
3.68 0.005 0
3.76 0.005 0
3.84 0.005 0
3.92 0.005 0
4 0.005 0
4.08 0.005 0
4.16 0.005 0
4.24 0.005 0
4.32 0.005 0
4.4 0.005 0
4.48 0.005 0
4.56 0.005 0
4.64 0.005 0
4.72 0.005 0
4.8 0.005 0
4.88 0.005 0
4.96 0.005 0
5.04 0.005 0
5.12 0.005 0
5.2 0.005 0
5.28 0.005 0
5.36 0.005 0
5.44 0.005 0
5.52 0.005 0
5.6 0.005 0
5.68 0.005 0
5.76 0.005 0
5.84 0.005 0
5.92 0.005 0
6 0.005 0
6.08 0.005 0
6.16 0.005 0
6.24 0.005 0
6.32 0.005 0
6.4 0.005 0
6.48 0.005 0
6.56 0.005 0
6.64 0.005 0
6.72 0.005 0
6.8 0.005 0
6.88 0.005 0
6.96 0.005 0
7.04 0.005 0
7.12 0.005 0
7.2 0.005 0
7.28 0.005 0
7.36 0.005 0
7.44 0.005 0
7.52 0.005 0
7.6 0.005 0
7.68 0.005 0
7.76 0.005 0
7.84 0.005 0
7.92 0.005 0
8 0.005 0
8.08 0.005 0
8.16 0.005 0
8.24 0.005 0
8.32 0.005 0
8.4 0.005 0
8.48 0.005 0
8.56 0.005 0
8.64 0.005 0
8.72 0.005 0
8.8 0.005 0
8.88 0.005 0
8.96 0.005 0
9.04 0.005 0
9.12 0.005 0
9.2 0.005 0
9.28 0.005 0
9.36 0.005 0
9.44 0.005 0
9.52 0.005 0
9.6 0.005 0
9.68 0.005 0
9.76 0.005 0
9.84 0.005 0
9.92 0.005 0
10 0.005 0
10.08 0.005 0
10.16 0.005 0
10.24 0.005 0
10.32 0.005 0
10.4 0.005 0
10.48 0.005 0
10.56 0.005 0
10.64 0.005 0
10.72 0.005 0
10.8 0.005 0
10.88 0.005 0
10.96 0.005 0
11.04 0.005 0
11.12 0.005 0
11.2 0.005 0
11.28 0.005 0
11.36 0.005 0
11.44 0.005 0
11.52 0.005 0
11.6 0.005 0
11.68 0.005 0
11.76 0.005 0
11.84 0.005 0
11.92 0.005 0
12 0.005 0
12.08 0.005 0
12.16 0.005 0
12.24 0.005 0
12.32 0.005 0
12.4 0.005 0
12.48 0.005 0
12.56 0.005 0
12.64 0.005 0
12.72 0.005 0
12.8 0.005 0
12.88 0.005 0
12.96 0.005 0
13.04 0.005 0
13.12 0.005 0
13.2 0.005 0
13.28 0.005 0
13.36 0.005 0
13.44 0.005 0
13.52 0.005 0
13.6 0.005 0
13.68 0.005 0
13.76 0.005 0
13.84 0.005 0
13.92 0.005 0
14 0.005 0
14.08 0.005 0
14.16 0.005 0
14.24 0.005 0
14.32 0.005 0
14.4 0.005 0
14.48 0.005 0
14.56 0.005 0
14.64 0.005 0
14.72 0.005 0
14.8 0.005 0
14.88 0.005 0
14.96 0.005 0
15.04 0.005 0
15.12 0.005 0
15.2 0.005 0
15.28 0.005 0
15.36 0.005 0
15.44 0.005 0
15.52 0.005 0
15.6 0.005 0
15.68 0.005 0
15.76 0.005 0
15.84 0.005 0
15.92 0.005 0
16 0.005 0
16.08 0.005 0
16.16 0.005 0
16.24 0.005 0
16.32 0.005 0
16.4 0.005 0
16.48 0.005 0
16.56 0.005 0
16.64 0.005 0
16.72 0.005 0
16.8 0.005 0
16.88 0.005 0
16.96 0.005 0
17.04 0.005 0
17.12 0.005 0
17.2 0.005 0
17.28 0.005 0
17.36 0.005 0
17.44 0.005 0
17.52 0.005 0
17.6 0.005 0
17.68 0.005 0
17.76 0.005 0
17.84 0.005 0
17.92 0.005 0
18 0.005 0
18.08 0.005 0
18.16 0.005 0
18.24 0.005 0
18.32 0.005 0
18.4 0.005 0
18.48 0.005 0
18.56 0.005 0
18.64 0.005 0
18.72 0.005 0
18.8 0.005 0
18.88 0.005 0
18.96 0.005 0
19.04 0.005 0
19.12 0.005 0
19.2 0.005 0
19.28 0.005 0
19.36 0.005 0
19.44 0.005 0
19.52 0.005 0
19.6 0.005 0
19.68 0.005 0
19.76 0.005 0
19.84 0.005 0
19.92 0.005 0
20 0.005 0
20.08 0.005 0
20.16 0.005 0
20.24 0.005 0
20.32 0.005 0
20.4 0.005 0
20.48 0.005 0
20.56 0.005 0
20.64 0.005 0
20.72 0.005 0
20.8 0.005 0
20.88 0.005 0
20.96 0.005 0
21.04 0.005 0
21.12 0.005 0
21.2 0.005 0
21.28 0.005 0
21.36 0.005 0
21.44 0.005 0
21.52 0.005 0
21.6 0.005 0
21.68 0.005 0
21.76 0.005 0
21.84 0.005 0
21.92 0.005 0
22 0.005 0
22.08 0.005 0
22.16 0.005 0
22.24 0.005 0
22.32 0.005 0
22.4 0.005 0
22.48 0.005 0
22.56 0.005 0
22.64 0.005 0
22.72 0.005 0
22.8 0.005 0
22.88 0.005 0
22.96 0.005 0
23.04 0.005 0
23.12 0.005 0
23.2 0.005 0
23.28 0.005 0
23.36 0.005 0
23.44 0.005 0
23.52 0.005 0
23.6 0.005 0
23.68 0.005 0
23.76 0.005 0
23.84 0.005 0
23.92 0.005 0
24 0.005 0
24.08 0.005 0
24.16 0.005 0
24.24 0.005 0
24.32 0.005 0
24.4 0.005 0
24.48 0.005 0
24.56 0.005 0
24.64 0.005 0
24.72 0.005 0
24.8 0.005 0
24.88 0.005 0
24.96 0.005 0
25.04 0.005 0
25.12 0.005 0
25.2 0.005 0
25.28 0.005 0
25.36 0.005 0
25.44 0.005 0
25.52 0.005 0
25.6 0.005 0
25.68 0.005 0
25.76 0.005 0
25.84 0.005 0
25.92 0.005 0
26 0.005 0
26.08 0.005 0
26.16 0.005 0
26.24 0.005 0
26.32 0.005 0
26.4 0.005 0
26.48 0.005 0
26.56 0.005 0
26.64 0.005 0
26.72 0.005 0
26.8 0.005 0
26.88 0.005 0
26.96 0.005 0
27.04 0.005 0
27.12 0.005 0
27.2 0.005 0
27.28 0.005 0
27.36 0.005 0
27.44 0.005 0
27.52 0.005 0
27.6 0.005 0
27.68 0.005 0
27.76 0.005 0
27.84 0.005 0
27.92 0.005 0
28 0.005 0
28.08 0.005 0
28.16 0.005 0
28.24 0.005 0
28.32 0.005 0
28.4 0.005 0
28.48 0.005 0
28.56 0.005 0
28.64 0.005 0
28.72 0.005 0
28.8 0.005 0
28.88 0.005 0
28.96 0.005 0
29.04 0.005 0
29.12 0.005 0
29.2 0.005 0
29.28 0.005 0
29.36 0.005 0
29.44 0.005 0
29.52 0.005 0
29.6 0.005 0
29.68 0.005 0
29.76 0.005 0
29.84 0.005 0
29.92 0.005 0
30 0.005 0
30.08 0.005 0
30.16 0.005 0
30.24 0.005 0
30.32 0.005 0
30.4 0.005 0
30.48 0.005 0
30.56 0.005 0
30.64 0.005 0
30.72 0.005 0
30.8 0.005 0
30.88 0.005 0
30.96 0.005 0
31.04 0.005 0
31.12 0.005 0
31.2 0.005 0
31.28 0.005 0
31.36 0.005 0
31.44 0.005 0
31.52 0.005 0
31.6 0.005 0
31.68 0.005 0
31.76 0.005 0
31.84 0.005 0
31.92 0.005 0
0 0.01 0
0.08 0.01 0
0.16 0.01 0
0.24 0.01 0
0.32 0.01 0
0.4 0.01 0
0.48 0.01 0
0.56 0.01 0
0.64 0.01 0
0.72 0.01 0
0.8 0.01 0
0.88 0.01 0
0.96 0.01 0
1.04 0.01 0
1.12 0.01 0
1.2 0.01 0
1.28 0.01 0
1.36 0.01 0
1.44 0.01 0
1.52 0.01 0
1.6 0.01 0
1.68 0.01 0
1.76 0.01 0
1.84 0.01 0
1.92 0.01 0
2 0.01 0
2.08 0.01 0
2.16 0.01 0
2.24 0.01 0
2.32 0.01 0
2.4 0.01 0
2.48 0.01 0
2.56 0.01 0
2.64 0.01 0
2.72 0.01 0
2.8 0.01 0
2.88 0.01 0
2.96 0.01 0
3.04 0.01 0
3.12 0.01 0
3.2 0.01 0
3.28 0.01 0
3.36 0.01 0
3.44 0.01 0
3.52 0.01 0
3.6 0.01 0
3.68 0.01 0
3.76 0.01 0
3.84 0.01 0
3.92 0.01 0
4 0.01 0
4.08 0.01 0
4.16 0.01 0
4.24 0.01 0
4.32 0.01 0
4.4 0.01 0
4.48 0.01 0
4.56 0.01 0
4.64 0.01 0
4.72 0.01 0
4.8 0.01 0
4.88 0.01 0
4.96 0.01 0
5.04 0.01 0
5.12 0.01 0
[...]
POINT_DATA 80000

SCALARS v float 1
LOOKUP_TABLE default
0
0
0
0
0
0
0
0
0
0
0
0
0
0
0
0
0
0
0
0
0
0
0
0
0
0
0
0
0
0
0
0
0
0
0
0
0
0
0
0
0
0
0
0
0
0
0
0
0
0
0
0
0
0
0
0
0
0
0
0
0
0
0
0
0
0
0
0
0
0
0
0
0
0
0
0
0
0
0
0
0
0
0
0
0
0
0
0
0
0
0
0
0
0
0
0
0
0
0
0
0
0
0
0
0
0
0
0
0
0
0
0
0
0
0
0
0
0
0
0
0
0
0
0
0
0
0
0
0
0
0
0
0
0
0
0
0
0
0
0
0
0
0
0
0
0
0
0
0
0
0
0
0
0
0
0
0
0
0
0
0
0
0
0
0
0
0
0
0
0
0
0
0
0
0
0
0
0
0
0
0
0
0
0
0
0
0
0
0
0
0
0
0
0
0
0
0
0
0
0
0
0
0
0
0
0
0
0
0
0
0
0
0
0
0
0
0
0
0
0
0
0
0
0
0
0
0
0
0
0
0
0
0
0
0
0
0
0
0
0
0
0
0
0
0
0
0
0
0
0
0
0
0
0
0
0
0
0
0
0
0
0
0
0
0
0
0
0
0
0
0
0
0
0
0
0
0
0
0
0
0
0
0
0
0
0
0
0
0
0
0
0
0
0
0
0
0
0
0
0
0
0
0
0
0
0
0
0
0
0
0
0
0
0
0
0
0
0
0
0
0
0
0
0
0
0
0
0
0
0
0
0
0
0
0
0
0
0
0
0
0
0
0
0
0
0
0
0
0
0
0
0
0
0
0
0
0
0
0
0
0
0
0
0
0
0
0
0
0
0
0
0
0
0
0
0
0
0
0
0
0
0
0
0
0
0
0
0
0
0
0
0
0
0
0
0
0
0
0
0
-0.0542711
0.0542711
0.0039621
0.00099833
0.00049226
0.000302696
0.00020732
0.000151692
0.00011625
9.22939e-05
7.53807e-05
6.30201e-05
5.37196e-05
4.65412e-05
4.08733e-05
3.63062e-05
3.25587e-05
2.94337e-05
2.67907e-05
2.45275e-05
2.25686e-05
2.08572e-05
1.935e-05
1.80131e-05
1.68201e-05
1.57496e-05
1.47845e-05
1.39106e-05
1.31162e-05
1.23915e-05
1.17283e-05
1.11195e-05
1.05592e-05
1.00421e-05
9.5638e-06
9.12031e-06
8.70826e-06
8.32463e-06
7.9668e-06
7.63241e-06
7.31939e-06
7.02591e-06
6.7503e-06
6.4911e-06
6.24698e-06
6.01674e-06
5.79932e-06
5.59375e-06
5.39913e-06
5.21468e-06
5.03966e-06
4.87342e-06
4.71536e-06
4.56491e-06
4.42157e-06
4.28488e-06
4.15441e-06
4.02976e-06
3.91059e-06
3.79654e-06
3.68732e-06
3.58264e-06
3.48223e-06
3.38584e-06
3.29326e-06
3.20427e-06
3.11867e-06
3.03627e-06
2.95692e-06
2.88044e-06
2.8067e-06
2.73554e-06
2.66685e-06
2.6005e-06
2.53637e-06
2.47436e-06
2.41436e-06
2.3563e-06
2.30006e-06
2.24558e-06
2.19277e-06
2.14157e-06
2.09189e-06
2.04368e-06
1.99688e-06
1.95142e-06
1.90725e-06
1.86432e-06
1.82258e-06
1.78198e-06
1.74249e-06
1.70405e-06
1.66662e-06
1.63018e-06
1.59469e-06
1.5601e-06
1.5264e-06
1.49354e-06
1.4615e-06
1.43026e-06
1.39978e-06
1.37004e-06
1.34102e-06
1.31269e-06
1.28504e-06
1.25803e-06
1.23166e-06
1.2059e-06
1.18073e-06
1.15614e-06
1.13211e-06
1.10863e-06
1.08567e-06
1.06323e-06
1.04129e-06
1.01983e-06
9.98844e-07
9.78321e-07
9.58245e-07
9.38607e-07
9.19393e-07
9.00594e-07
8.82199e-07
8.64198e-07
8.4658e-07
8.29338e-07
8.12461e-07
7.9594e-07
7.79768e-07
7.63935e-07
7.48435e-07
7.33258e-07
7.18398e-07
7.03847e-07
6.89598e-07
6.75644e-07
6.61979e-07
6.48596e-07
6.35489e-07
6.22652e-07
6.10078e-07
5.97762e-07
5.85698e-07
5.73881e-07
5.62305e-07
5.50965e-07
5.39857e-07
5.28975e-07
5.18314e-07
5.07869e-07
4.97637e-07
4.87612e-07
4.7779e-07
4.68167e-07
4.58739e-07
4.49502e-07
4.40451e-07
4.31583e-07
4.22894e-07
4.14381e-07
4.06039e-07
3.97865e-07
3.89856e-07
3.82009e-07
3.74319e-07
3.66784e-07
3.59401e-07
3.52167e-07
3.45078e-07
3.38132e-07
3.31325e-07
3.24655e-07
3.18119e-07
3.11715e-07
3.05439e-07
2.99289e-07
2.93263e-07
2.87358e-07
2.81572e-07
2.75902e-07
2.70345e-07
2.64901e-07
2.59565e-07
2.54337e-07
2.49214e-07
2.44194e-07
2.39274e-07
2.34454e-07
2.2973e-07
2.25101e-07
2.20565e-07
2.1612e-07
2.11765e-07
2.07497e-07
2.03314e-07
1.99216e-07
1.952e-07
1.91265e-07
1.87409e-07
1.8363e-07
1.79927e-07
1.76299e-07
1.72744e-07
1.6926e-07
1.65846e-07
1.62501e-07
1.59223e-07
1.5601e-07
1.52863e-07
1.49779e-07
1.46757e-07
1.43795e-07
1.40893e-07
1.3805e-07
1.35264e-07
1.32534e-07
1.29858e-07
1.27237e-07
1.24668e-07
1.22151e-07
1.19685e-07
1.17269e-07
1.14901e-07
1.1258e-07
1.10307e-07
1.08079e-07
1.05896e-07
1.03757e-07
1.01661e-07
9.96078e-08
9.75955e-08
9.56238e-08
9.36918e-08
9.17988e-08
8.99439e-08
8.81264e-08
8.63455e-08
8.46005e-08
8.28907e-08
8.12154e-08
7.95738e-08
7.79654e-08
7.63894e-08
7.48451e-08
7.33321e-08
7.18495e-08
7.03968e-08
6.89735e-08
6.75788e-08
6.62123e-08
6.48734e-08
6.35615e-08
6.22761e-08
6.10166e-08
5.97826e-08
5.85734e-08
5.73887e-08
5.62279e-08
5.50905e-08
5.39761e-08
5.28841e-08
5.18143e-08
5.0766e-08
4.97389e-08
4.87326e-08
4.77465e-08
4.67804e-08
4.58338e-08
4.49064e-08
4.39977e-08
4.31073e-08
4.22349e-08
4.13802e-08
4.05427e-08
3.97221e-08
3.89181e-08
3.81304e-08
3.73586e-08
3.66024e-08
3.58615e-08
3.51355e-08
3.44242e-08
3.37273e-08
3.30445e-08
3.23755e-08
3.172e-08
3.10778e-08
3.04485e-08
2.9832e-08
2.92279e-08
2.8636e-08
2.80562e-08
2.7488e-08
2.69313e-08
2.63859e-08
2.58515e-08
2.53279e-08
2.4815e-08
2.43123e-08
2.38199e-08
2.33374e-08
2.28647e-08
2.24015e-08
2.19477e-08
2.15031e-08
2.10675e-08
2.06407e-08
2.02225e-08
1.98128e-08
1.94114e-08
1.90181e-08
1.86328e-08
1.82553e-08
1.78854e-08
1.7523e-08
1.71679e-08
1.682e-08
1.64792e-08
1.61452e-08
1.58181e-08
1.54975e-08
1.51834e-08
1.48758e-08
1.45743e-08
1.42789e-08
1.39896e-08
1.37061e-08
1.34283e-08
1.31562e-08
1.28895e-08
1.26283e-08
1.23724e-08
1.21217e-08
1.18761e-08
1.16354e-08
1.13997e-08
1.11687e-08
1.09424e-08
1.07207e-08
1.05035e-08
1.02907e-08
1.00822e-08
9.87792e-09
9.67782e-09
9.48169e-09
9.28961e-09
9.10127e-09
8.91687e-09
8.736e-09
8.55895e-09
8.38517e-09
8.21515e-09
8.04811e-09
7.88482e-09
7.72416e-09
7.56729e-09
7.41263e-09
7.26192e-09
7.11288e-09
6.9681e-09
6.82422e-09
6.68514e-09
6.54601e-09
6.41249e-09
6.27757e-09
6.14953e-09
6.01825e-09
5.89571e-09
5.76736e-09
5.65052e-09
5.52425e-09
5.41351e-09
5.28819e-09
5.18426e-09
5.05848e-09
4.96251e-09
4.83432e-09
4.74802e-09
4.61474e-09
4.5407e-09
4.39856e-09
4.34043e-09
4.18397e-09
4.14676e-09
3.9679e-09
3.95807e-09
3.74435e-09
3.76906e-09
3.50021e-09
3.56425e-09
3.20542e-09
3.30142e-09
2.78963e-09
2.87204e-09
2.09688e-09
2.02648e-09
8.79092e-10
4.06213e-10
-7.4622e-12
-7.4622e-12
-0.0952159
0.0952159
0.0129756
0.00385462
0.00193431
0.0011962
0.000821741
0.000602314
0.000462067
0.000367041
0.000299831
0.000250645
0.000213602
0.000184994
0.0001624
0.000144195
0.00012926
0.00011681
0.000106285
9.72762e-05
8.9483e-05
8.26778e-05
7.66869e-05
7.13755e-05
6.66372e-05
6.23872e-05
5.85565e-05
5.50888e-05
5.19373e-05
4.90631e-05
4.64331e-05
4.40195e-05
4.17981e-05
3.97485e-05
3.78526e-05
3.60951e-05
3.44623e-05
3.29423e-05
3.15245e-05
3.01998e-05
2.89598e-05
2.77973e-05
2.67056e-05
2.5679e-05
2.47122e-05
2.38004e-05
2.29393e-05
2.21253e-05
2.13546e-05
2.06243e-05
1.99313e-05
1.92731e-05
1.86473e-05
1.80517e-05
1.74842e-05
1.69431e-05
1.64266e-05
1.59332e-05
1.54615e-05
1.50101e-05
1.45778e-05
1.41635e-05
1.3766e-05
1.33846e-05
1.30182e-05
1.2666e-05
1.23272e-05
1.20012e-05
1.16872e-05
1.13846e-05
1.10928e-05
1.08112e-05
1.05394e-05
1.02769e-05
1.00232e-05
9.77786e-06
9.54052e-06
9.3108e-06
9.08835e-06
8.87283e-06
8.66395e-06
8.4614e-06
8.26491e-06
8.07423e-06
7.88911e-06
7.70931e-06
7.53463e-06
7.36485e-06
7.19979e-06
7.03925e-06
6.88306e-06
6.73106e-06
6.58309e-06
6.439e-06
6.29865e-06
6.16191e-06
6.02865e-06
5.89875e-06
5.7721e-06
5.64858e-06
5.52809e-06
5.41053e-06
5.29581e-06
5.18384e-06
5.07453e-06
4.96779e-06
4.86356e-06
4.76174e-06
4.66228e-06
4.5651e-06
4.47014e-06
4.37733e-06
4.28662e-06
4.19793e-06
4.11122e-06
4.02644e-06
3.94353e-06
3.86244e-06
3.78312e-06
3.70553e-06
3.62962e-06
3.55535e-06
3.48268e-06
3.41156e-06
3.34197e-06
3.27386e-06
3.20719e-06
3.14193e-06
3.07805e-06
3.01551e-06
2.95429e-06
2.89435e-06
2.83565e-06
2.77818e-06
2.72191e-06
2.6668e-06
2.61284e-06
2.55998e-06
2.50822e-06
2.45753e-06
2.40787e-06
2.35924e-06
2.3116e-06
2.26494e-06
2.21923e-06
2.17446e-06
2.1306e-06
2.08763e-06
2.04554e-06
2.0043e-06
1.9639e-06
1.92432e-06
1.88554e-06
1.84755e-06
1.81033e-06
1.77386e-06
1.73813e-06
1.70312e-06
1.66882e-06
1.63522e-06
1.60229e-06
1.57002e-06
1.53841e-06
1.50743e-06
1.47708e-06
1.44733e-06
1.41819e-06
1.38964e-06
1.36165e-06
1.33424e-06
1.30737e-06
1.28104e-06
1.25525e-06
1.22997e-06
1.2052e-06
1.18093e-06
1.15715e-06
1.13384e-06
1.111e-06
1.08863e-06
1.0667e-06
1.04521e-06
1.02416e-06
1.00352e-06
9.83304e-07
9.63493e-07
9.44079e-07
9.25055e-07
9.06414e-07
8.88147e-07
8.70247e-07
8.52707e-07
8.35519e-07
8.18677e-07
8.02173e-07
7.86001e-07
7.70154e-07
7.54625e-07
7.39409e-07
7.24498e-07
7.09888e-07
6.95571e-07
6.81542e-07
6.67795e-07
6.54324e-07
6.41124e-07
6.2819e-07
6.15516e-07
6.03097e-07
5.90927e-07
5.79003e-07
5.67318e-07
5.55869e-07
5.4465e-07
5.33657e-07
5.22885e-07
5.12329e-07
5.01987e-07
4.91852e-07
4.81922e-07
4.72191e-07
4.62656e-07
4.53314e-07
4.44159e-07
4.35189e-07
4.264e-07
4.17788e-07
4.09349e-07
4.0108e-07
3.92978e-07
3.85039e-07
3.7726e-07
3.69637e-07
3.62169e-07
3.54851e-07
3.4768e-07
3.40654e-07
3.3377e-07
3.27024e-07
3.20415e-07
3.13939e-07
3.07593e-07
3.01375e-07
2.95283e-07
2.89314e-07
2.83465e-07
2.77734e-07
2.72119e-07
2.66617e-07
2.61226e-07
2.55944e-07
2.50768e-07
2.45697e-07
2.40728e-07
2.3586e-07
2.3109e-07
2.26416e-07
2.21837e-07
2.1735e-07
2.12953e-07
2.08646e-07
2.04425e-07
2.0029e-07
1.96238e-07
1.92268e-07
1.88378e-07
1.84567e-07
1.80833e-07
1.77174e-07
1.73589e-07
1.70077e-07
1.66635e-07
1.63263e-07
1.59959e-07
1.56722e-07
1.53551e-07
1.50443e-07
1.47399e-07
1.44415e-07
1.41493e-07
1.38629e-07
1.35823e-07
1.33074e-07
1.3038e-07
1.27741e-07
1.25155e-07
1.22622e-07
1.20139e-07
1.17707e-07
1.15324e-07
1.1299e-07
1.10702e-07
1.08461e-07
1.06265e-07
1.04113e-07
1.02005e-07
9.99398e-08
9.79162e-08
9.59335e-08
9.39909e-08
9.20876e-08
9.02228e-08
8.83957e-08
8.66056e-08
8.48517e-08
8.31333e-08
8.14497e-08
7.98001e-08
7.8184e-08
7.66005e-08
7.50491e-08
7.3529e-08
7.20398e-08
7.05807e-08
6.91511e-08
6.77505e-08
6.63782e-08
6.50337e-08
6.37164e-08
6.24258e-08
6.11613e-08
5.99225e-08
5.87087e-08
5.75195e-08
5.63544e-08
5.5213e-08
5.40946e-08
5.2999e-08
5.19255e-08
5.08738e-08
4.98434e-08
4.8834e-08
4.78449e-08
4.6876e-08
4.59267e-08
4.49967e-08
4.40856e-08
4.31929e-08
4.23183e-08
4.14616e-08
4.0622e-08
3.97996e-08
3.89937e-08
3.82043e-08
3.74305e-08
3.66727e-08
3.59297e-08
3.52021e-08
3.44885e-08
3.37898e-08
3.31041e-08
3.24331e-08
3.17739e-08
3.11294e-08
3.04953e-08
2.9876e-08
2.92655e-08
2.86704e-08
2.8082e-08
2.751e-08
2.69421e-08
2.63924e-08
2.58431e-08
2.53151e-08
2.47825e-08
2.42758e-08
2.37575e-08
2.32722e-08
2.27657e-08
2.23024e-08
2.18043e-08
2.13644e-08
2.08707e-08
2.04567e-08
1.99619e-08
1.95782e-08
1.9075e-08
1.87278e-08
1.82063e-08
1.79052e-08
1.73512e-08
1.71098e-08
1.6503e-08
1.63398e-08
1.565e-08
1.55889e-08
1.47693e-08
1.48365e-08
1.38111e-08
1.40232e-08
1.26602e-08
1.29872e-08
1.10471e-08
1.1313e-08
8.37198e-09
8.04576e-09
3.66843e-09
1.81886e-09
-2.43222e-11
-2.43222e-11
-0.125293
0.125293
0.0249359
0.00835802
0.004278
0.00266152
0.00183374
0.00134635
0.00103388
0.000821704
0.000671387
0.00056125
0.000478232
0.000414085
0.000363411
0.000322576
0.000289079
0.000261164
0.000237571
0.000217385
0.000199929
0.000184691
0.000171281
0.000159395
0.000148795
0.00013929
0.000130724
0.000122972
0.000115928
0.000109505
0.000103628
9.82351e-05
9.32725e-05
8.8694e-05
8.44594e-05
8.05341e-05
7.68875e-05
7.34931e-05
7.03272e-05
6.73693e-05
6.46007e-05
6.20051e-05
5.95679e-05
5.7276e-05
5.51176e-05
5.30822e-05
5.11602e-05
4.93431e-05
4.7623e-05
4.59928e-05
4.44462e-05
4.29772e-05
4.15805e-05
4.02512e-05
3.89848e-05
3.77772e-05
3.66246e-05
3.55236e-05
3.44709e-05
3.34636e-05
3.2499e-05
3.15745e-05
3.06878e-05
2.98367e-05
2.90192e-05
2.82334e-05
2.74776e-05
2.67502e-05
2.60497e-05
2.53746e-05
2.47236e-05
2.40956e-05
2.34893e-05
2.29036e-05
2.23377e-05
2.17905e-05
2.12611e-05
2.07487e-05
2.02525e-05
1.97718e-05
1.9306e-05
1.88542e-05
1.8416e-05
1.79908e-05
1.75779e-05
1.7177e-05
1.67874e-05
1.64088e-05
1.60408e-05
1.56828e-05
1.53345e-05
1.49956e-05
1.46657e-05
1.43444e-05
1.40315e-05
1.37267e-05
1.34296e-05
1.314e-05
1.28576e-05
1.25823e-05
1.23137e-05
1.20516e-05
1.17959e-05
1.15463e-05
1.13026e-05
1.10647e-05
1.08324e-05
1.06055e-05
1.03838e-05
1.01672e-05
9.95559e-06
9.74875e-06
9.54658e-06
9.34894e-06
9.15572e-06
8.96679e-06
8.78203e-06
8.60133e-06
8.42459e-06
8.2517e-06
8.08256e-06
7.91708e-06
7.75516e-06
7.59672e-06
7.44167e-06
7.28991e-06
7.14139e-06
6.996e-06
6.85369e-06
6.71437e-06
6.57798e-06
6.44444e-06
6.3137e-06
6.18568e-06
6.06033e-06
5.93757e-06
5.81736e-06
5.69964e-06
5.58435e-06
5.47143e-06
5.36083e-06
5.25251e-06
5.14641e-06
5.04249e-06
4.94069e-06
4.84097e-06
4.74328e-06
4.64759e-06
4.55384e-06
4.46201e-06
4.37204e-06
4.2839e-06
4.19754e-06
4.11294e-06
4.03006e-06
3.94885e-06
3.86928e-06
3.79133e-06
3.71495e-06
3.64011e-06
3.56678e-06
3.49494e-06
3.42454e-06
3.35557e-06
3.28799e-06
3.22176e-06
3.15688e-06
3.09329e-06
3.03099e-06
2.96995e-06
2.91013e-06
2.85152e-06
2.79408e-06
2.73781e-06
2.68266e-06
2.62862e-06
2.57567e-06
2.52379e-06
2.47295e-06
2.42313e-06
2.37431e-06
2.32647e-06
2.27959e-06
2.23366e-06
2.18865e-06
2.14455e-06
2.10133e-06
2.05898e-06
2.01748e-06
1.97681e-06
1.93697e-06
1.89792e-06
1.85966e-06
1.82217e-06
1.78543e-06
1.74943e-06
1.71415e-06
1.67959e-06
1.64571e-06
1.61252e-06
1.58e-06
1.54813e-06
1.5169e-06
1.4863e-06
1.45632e-06
1.42694e-06
1.39815e-06
1.36993e-06
1.34229e-06
1.3152e-06
1.28866e-06
1.26265e-06
1.23717e-06
1.2122e-06
1.18773e-06
1.16375e-06
1.14026e-06
1.11724e-06
1.09468e-06
1.07257e-06
1.05092e-06
1.02969e-06
1.0089e-06
9.88524e-07
9.68559e-07
9.48996e-07
9.29827e-07
9.11044e-07
8.9264e-07
8.74607e-07
8.56937e-07
8.39623e-07
8.22659e-07
8.06036e-07
7.89748e-07
7.73789e-07
7.58151e-07
7.42829e-07
7.27816e-07
7.13105e-07
6.98691e-07
6.84568e-07
6.7073e-07
6.57171e-07
6.43885e-07
6.30868e-07
6.18113e-07
6.05616e-07
5.9337e-07
5.81372e-07
5.69616e-07
5.58098e-07
5.46811e-07
5.35753e-07
5.24918e-07
5.14302e-07
5.039e-07
4.93708e-07
4.83722e-07
4.73937e-07
4.6435e-07
4.54957e-07
4.45754e-07
4.36736e-07
4.27901e-07
4.19244e-07
4.10762e-07
4.02451e-07
3.94308e-07
3.8633e-07
3.78513e-07
3.70854e-07
3.6335e-07
3.55997e-07
3.48793e-07
3.41734e-07
3.34819e-07
3.28043e-07
3.21404e-07
3.14899e-07
3.08525e-07
3.02281e-07
2.96163e-07
2.90168e-07
2.84295e-07
2.7854e-07
2.72902e-07
2.67377e-07
2.61965e-07
2.56661e-07
2.51465e-07
2.46375e-07
2.41387e-07
2.36499e-07
2.31711e-07
2.2702e-07
2.22423e-07
2.1792e-07
2.13507e-07
2.09184e-07
2.04948e-07
2.00798e-07
1.96732e-07
1.92748e-07
1.88845e-07
1.85021e-07
1.81274e-07
1.77603e-07
1.74006e-07
1.70483e-07
1.6703e-07
1.63647e-07
1.60333e-07
1.57086e-07
1.53904e-07
1.50787e-07
1.47733e-07
1.44741e-07
1.4181e-07
1.38938e-07
1.36124e-07
1.33367e-07
1.30665e-07
1.28019e-07
1.25426e-07
1.22886e-07
1.20397e-07
1.17959e-07
1.1557e-07
1.13229e-07
1.10936e-07
1.0869e-07
1.06489e-07
1.04333e-07
1.0222e-07
1.0015e-07
9.81227e-08
9.61362e-08
9.41898e-08
9.2283e-08
9.04146e-08
8.85843e-08
8.67907e-08
8.50338e-08
8.33117e-08
8.1625e-08
7.99713e-08
7.83518e-08
7.67633e-08
7.52082e-08
7.36818e-08
7.21881e-08
7.07207e-08
6.92857e-08
6.78741e-08
6.64951e-08
6.5136e-08
6.38106e-08
6.25005e-08
6.12264e-08
5.99617e-08
5.8737e-08
5.75138e-08
5.6337e-08
5.51509e-08
5.40211e-08
5.28673e-08
5.17844e-08
5.0657e-08
4.96223e-08
4.85142e-08
4.75307e-08
4.6433e-08
4.55061e-08
4.44072e-08
4.35457e-08
4.24299e-08
4.16475e-08
4.04936e-08
3.98104e-08
3.85881e-08
3.8033e-08
3.66989e-08
3.63114e-08
3.48008e-08
3.46314e-08
3.28442e-08
3.29484e-08
3.0721e-08
3.11329e-08
2.81816e-08
2.88333e-08
2.46396e-08
2.51471e-08
1.87878e-08
1.80006e-08
8.49742e-09
4.42123e-09
-5.27351e-11
-5.27351e-11
-0.146488
0.146488
0.0383105
0.014234
0.00745602
0.00467275
0.00323055
0.00237653
0.00182708
0.00145306
0.00118762
0.000992883
0.000845958
0.000732363
0.000642595
0.000570249
0.000510907
0.00046146
0.000419681
0.000383945
0.00035305
0.00032609
0.000302371
0.000281354
0.000262615
0.000245814
0.000230678
0.000216982
0.000204538
0.000193192
0.000182814
0.000173291
0.000164528
0.000156444
0.000148969
0.000142039
0.000135602
0.000129611
0.000124023
0.000118802
0.000113916
0.000109336
0.000105035
0.00010099
9.71816e-05
9.359e-05
9.01987e-05
8.69925e-05
8.39576e-05
8.10814e-05
7.83527e-05
7.5761e-05
7.3297e-05
7.09519e-05
6.87178e-05
6.65875e-05
6.45544e-05
6.26122e-05
6.07553e-05
5.89785e-05
5.7277e-05
5.56463e-05
5.40823e-05
5.25812e-05
5.11393e-05
4.97535e-05
4.84205e-05
4.71377e-05
4.59022e-05
4.47116e-05
4.35636e-05
4.24561e-05
4.13869e-05
4.03542e-05
3.93562e-05
3.83912e-05
3.74578e-05
3.65543e-05
3.56795e-05
3.48319e-05
3.40105e-05
3.32141e-05
3.24415e-05
3.16918e-05
3.09639e-05
3.02571e-05
2.95704e-05
2.8903e-05
2.82541e-05
2.76231e-05
2.70092e-05
2.64118e-05
2.58302e-05
2.5264e-05
2.47125e-05
2.41751e-05
2.36515e-05
2.31411e-05
2.26435e-05
2.21582e-05
2.16849e-05
2.1223e-05
2.07724e-05
2.03326e-05
1.99032e-05
1.9484e-05
1.90746e-05
1.86748e-05
1.82842e-05
1.79025e-05
1.75297e-05
1.71652e-05
1.6809e-05
1.64608e-05
1.61204e-05
1.57876e-05
1.54621e-05
1.51437e-05
1.48324e-05
1.45278e-05
1.42299e-05
1.39384e-05
1.36532e-05
1.33741e-05
1.3101e-05
1.28337e-05
1.25721e-05
1.2316e-05
1.20653e-05
1.182e-05
1.15797e-05
1.13446e-05
1.11143e-05
1.08888e-05
1.06681e-05
1.04519e-05
1.02402e-05
1.00329e-05
9.82987e-06
9.63102e-06
9.43627e-06
9.24553e-06
9.0587e-06
8.8757e-06
8.69644e-06
8.52086e-06
8.34885e-06
8.18036e-06
8.0153e-06
7.85361e-06
7.6952e-06
7.54001e-06
7.38797e-06
7.23902e-06
7.09309e-06
6.95012e-06
6.81004e-06
6.67279e-06
6.53833e-06
6.40658e-06
6.27749e-06
6.15101e-06
6.02708e-06
5.90566e-06
5.78668e-06
5.67011e-06
5.55588e-06
5.44396e-06
5.33429e-06
5.22683e-06
5.12153e-06
5.01835e-06
4.91726e-06
4.81819e-06
4.72112e-06
4.626e-06
4.5328e-06
4.44147e-06
4.35198e-06
4.26429e-06
4.17836e-06
4.09416e-06
4.01165e-06
3.93081e-06
3.85159e-06
3.77396e-06
3.69789e-06
3.62335e-06
3.55031e-06
3.47874e-06
3.40861e-06
3.33988e-06
3.27254e-06
3.20656e-06
3.1419e-06
3.07854e-06
3.01645e-06
2.95562e-06
2.896e-06
2.83759e-06
2.78035e-06
2.72426e-06
2.66931e-06
2.61545e-06
2.56268e-06
2.51097e-06
2.46031e-06
2.41066e-06
2.36201e-06
2.31434e-06
2.26763e-06
2.22186e-06
2.17701e-06
2.13306e-06
2.09e-06
2.0478e-06
2.00646e-06
1.96595e-06
1.92625e-06
1.88735e-06
1.84924e-06
1.81189e-06
1.7753e-06
1.73944e-06
1.70431e-06
1.66988e-06
1.63615e-06
1.6031e-06
1.57071e-06
1.53898e-06
1.50788e-06
1.47742e-06
1.44756e-06
1.41831e-06
1.38965e-06
1.36157e-06
1.33405e-06
1.30709e-06
1.28067e-06
1.25478e-06
1.22942e-06
1.20457e-06
1.18021e-06
1.15636e-06
1.13298e-06
1.11007e-06
1.08763e-06
1.06564e-06
1.04409e-06
1.02298e-06
1.00229e-06
9.8202e-07
9.62161e-07
9.42702e-07
9.23636e-07
9.04955e-07
8.86652e-07
8.68718e-07
8.51146e-07
8.33929e-07
8.1706e-07
8.00531e-07
7.84336e-07
7.68469e-07
7.52922e-07
7.37689e-07
7.22764e-07
7.08141e-07
6.93813e-07
6.79774e-07
6.66019e-07
6.52543e-07
6.39338e-07
6.264e-07
6.13724e-07
6.01304e-07
5.89135e-07
5.77212e-07
5.65531e-07
5.54085e-07
5.4287e-07
5.31883e-07
5.21117e-07
5.10569e-07
5.00234e-07
4.90109e-07
4.80188e-07
4.70467e-07
4.60943e-07
4.51612e-07
4.42469e-07
4.33512e-07
4.24735e-07
4.16136e-07
4.07711e-07
3.99456e-07
3.91368e-07
3.83444e-07
3.7568e-07
3.68073e-07
3.6062e-07
3.53318e-07
3.46164e-07
3.39154e-07
3.32286e-07
3.25557e-07
3.18964e-07
3.12505e-07
3.06176e-07
2.99976e-07
2.93901e-07
2.87949e-07
2.82117e-07
2.76404e-07
2.70806e-07
2.65321e-07
2.59948e-07
2.54683e-07
2.49525e-07
2.44472e-07
2.3952e-07
2.34669e-07
2.29917e-07
2.2526e-07
2.20698e-07
2.16228e-07
2.11849e-07
2.07559e-07
2.03356e-07
1.99238e-07
1.95203e-07
1.9125e-07
1.87378e-07
1.83584e-07
1.79867e-07
1.76225e-07
1.72657e-07
1.69162e-07
1.65737e-07
1.62382e-07
1.59094e-07
1.55874e-07
1.52718e-07
1.49626e-07
1.46596e-07
1.43628e-07
1.40718e-07
1.37868e-07
1.35072e-07
1.32335e-07
1.29649e-07
1.2702e-07
1.24438e-07
1.21912e-07
1.19427e-07
1.17e-07
1.14607e-07
1.12274e-07
1.09968e-07
1.07724e-07
1.05498e-07
1.03341e-07
1.01187e-07
9.91138e-08
9.70259e-08
9.50345e-08
9.30035e-08
9.1094e-08
8.91099e-08
8.72841e-08
8.53347e-08
8.35976e-08
8.16677e-08
8.00284e-08
7.80979e-08
7.65714e-08
7.46139e-08
7.32231e-08
7.12022e-08
6.99812e-08
6.78456e-08
6.68434e-08
6.45192e-08
6.38026e-08
6.11798e-08
6.08344e-08
5.77424e-08
5.78615e-08
5.40215e-08
5.46613e-08
4.95879e-08
5.0629e-08
4.34325e-08
4.42128e-08
3.33007e-08
3.18463e-08
1.54834e-08
8.39604e-09
-9.32103e-11
-9.32103e-11
-0.160438
0.160438
0.0519966
0.0211683
0.0113796
0.00719514
0.00499512
0.00368317
0.00283556
0.00225694
0.00184546
0.00154313
0.00131479
0.00113812
0.00099845
0.000885863