# vtk DataFile Version 2.0
FlowField
ASCII
DATASET STRUCTURED_GRID
DIMENSIONS 400 1 200
POINTS 80000 float
0 0 0
0.08 0 0
0.16 0 0
0.24 0 0
0.32 0 0
0.4 0 0
0.48 0 0
0.56 0 0
0.64 0 0
0.72 0 0
0.8 0 0
0.88 0 0
0.96 0 0
1.04 0 0
1.12 0 0
1.2 0 0
1.28 0 0
1.36 0 0
1.44 0 0
1.52 0 0
1.6 0 0
1.68 0 0
1.76 0 0
1.84 0 0
1.92 0 0
2 0 0
2.08 0 0
2.16 0 0
2.24 0 0
2.32 0 0
2.4 0 0
2.48 0 0
2.56 0 0
2.64 0 0
2.72 0 0
2.8 0 0
2.88 0 0
2.96 0 0
3.04 0 0
3.12 0 0
3.2 0 0
3.28 0 0
3.36 0 0
3.44 0 0
3.52 0 0
3.6 0 0
3.68 0 0
3.76 0 0
3.84 0 0
3.92 0 0
4 0 0
4.08 0 0
4.16 0 0
4.24 0 0
4.32 0 0
4.4 0 0
4.48 0 0
4.56 0 0
4.64 0 0
4.72 0 0
4.8 0 0
4.88 0 0
4.96 0 0
5.04 0 0
5.12 0 0
5.2 0 0
5.28 0 0
5.36 0 0
5.44 0 0
5.52 0 0
5.6 0 0
5.68 0 0
5.76 0 0
5.84 0 0
5.92 0 0
6 0 0
6.08 0 0
6.16 0 0
6.24 0 0
6.32 0 0
6.4 0 0
6.48 0 0
6.56 0 0
6.64 0 0
6.72 0 0
6.8 0 0
6.88 0 0
6.96 0 0
7.04 0 0
7.12 0 0
7.2 0 0
7.28 0 0
7.36 0 0
7.44 0 0
7.52 0 0
7.6 0 0
7.68 0 0
7.76 0 0
7.84 0 0
7.92 0 0
8 0 0
8.08 0 0
8.16 0 0
8.24 0 0
8.32 0 0
8.4 0 0
8.48 0 0
8.56 0 0
8.64 0 0
8.72 0 0
8.8 0 0
8.88 0 0
8.96 0 0
9.04 0 0
9.12 0 0
9.2 0 0
9.28 0 0
9.36 0 0
9.44 0 0
9.52 0 0
9.6 0 0
9.68 0 0
9.76 0 0
9.84 0 0
9.92 0 0
10 0 0
10.08 0 0
10.16 0 0
10.24 0 0
10.32 0 0
10.4 0 0
10.48 0 0
10.56 0 0
10.64 0 0
10.72 0 0
10.8 0 0
10.88 0 0
10.96 0 0
11.04 0 0
11.12 0 0
11.2 0 0
11.28 0 0
11.36 0 0
11.44 0 0
11.52 0 0
11.6 0 0
11.68 0 0
11.76 0 0
11.84 0 0
11.92 0 0
12 0 0
12.08 0 0
12.16 0 0
12.24 0 0
12.32 0 0
12.4 0 0
12.48 0 0
12.56 0 0
12.64 0 0
12.72 0 0
12.8 0 0
12.88 0 0
12.96 0 0
13.04 0 0
13.12 0 0
13.2 0 0
13.28 0 0
13.36 0 0
13.44 0 0
13.52 0 0
13.6 0 0
13.68 0 0
13.76 0 0
13.84 0 0
13.92 0 0
14 0 0
14.08 0 0
14.16 0 0
14.24 0 0
14.32 0 0
14.4 0 0
14.48 0 0
14.56 0 0
14.64 0 0
14.72 0 0
14.8 0 0
14.88 0 0
14.96 0 0
15.04 0 0
15.12 0 0
15.2 0 0
15.28 0 0
15.36 0 0
15.44 0 0
15.52 0 0
15.6 0 0
15.68 0 0
15.76 0 0
15.84 0 0
15.92 0 0
16 0 0
16.08 0 0
16.16 0 0
16.24 0 0
16.32 0 0
16.4 0 0
16.48 0 0
16.56 0 0
16.64 0 0
16.72 0 0
16.8 0 0
16.88 0 0
16.96 0 0
17.04 0 0
17.12 0 0
17.2 0 0
17.28 0 0
17.36 0 0
17.44 0 0
17.52 0 0
17.6 0 0
17.68 0 0
17.76 0 0
17.84 0 0
17.92 0 0
18 0 0
18.08 0 0
18.16 0 0
18.24 0 0
18.32 0 0
18.4 0 0
18.48 0 0
18.56 0 0
18.64 0 0
18.72 0 0
18.8 0 0
18.88 0 0
18.96 0 0
19.04 0 0
19.12 0 0
19.2 0 0
19.28 0 0
19.36 0 0
19.44 0 0
19.52 0 0
19.6 0 0
19.68 0 0
19.76 0 0
19.84 0 0
19.92 0 0
20 0 0
20.08 0 0
20.16 0 0
20.24 0 0
20.32 0 0
20.4 0 0
20.48 0 0
20.56 0 0
20.64 0 0
20.72 0 0
20.8 0 0
20.88 0 0
20.96 0 0
21.04 0 0
21.12 0 0
21.2 0 0
21.28 0 0
21.36 0 0
21.44 0 0
21.52 0 0
21.6 0 0
21.68 0 0
21.76 0 0
21.84 0 0
21.92 0 0
22 0 0
22.08 0 0
22.16 0 0
22.24 0 0
22.32 0 0
22.4 0 0
22.48 0 0
22.56 0 0
22.64 0 0
22.72 0 0
22.8 0 0
22.88 0 0
22.96 0 0
23.04 0 0
23.12 0 0
23.2 0 0
23.28 0 0
23.36 0 0
23.44 0 0
23.52 0 0
23.6 0 0
23.68 0 0
23.76 0 0
23.84 0 0
23.92 0 0
24 0 0
24.08 0 0
24.16 0 0
24.24 0 0
24.32 0 0
24.4 0 0
24.48 0 0
24.56 0 0
24.64 0 0
24.72 0 0
24.8 0 0
24.88 0 0
24.96 0 0
25.04 0 0
25.12 0 0
25.2 0 0
25.28 0 0
25.36 0 0
25.44 0 0
25.52 0 0
25.6 0 0
25.68 0 0
25.76 0 0
25.84 0 0
25.92 0 0
26 0 0
26.08 0 0
26.16 0 0
26.24 0 0
26.32 0 0
26.4 0 0
26.48 0 0
26.56 0 0
26.64 0 0
26.72 0 0
26.8 0 0
26.88 0 0
26.96 0 0
27.04 0 0
27.12 0 0
27.2 0 0
27.28 0 0
27.36 0 0
27.44 0 0
27.52 0 0
27.6 0 0
27.68 0 0
27.76 0 0
27.84 0 0
27.92 0 0
28 0 0
28.08 0 0
28.16 0 0
28.24 0 0
28.32 0 0
28.4 0 0
28.48 0 0
28.56 0 0
28.64 0 0
28.72 0 0
28.8 0 0
28.88 0 0
28.96 0 0
29.04 0 0
29.12 0 0
29.2 0 0
29.28 0 0
29.36 0 0
29.44 0 0
29.52 0 0
29.6 0 0
29.68 0 0
29.76 0 0
29.84 0 0
29.92 0 0
30 0 0
30.08 0 0
30.16 0 0
30.24 0 0
30.32 0 0
30.4 0 0
30.48 0 0
30.56 0 0
30.64 0 0
30.72 0 0
30.8 0 0
30.88 0 0
30.96 0 0
31.04 0 0
31.12 0 0
31.2 0 0
31.28 0 0
31.36 0 0
31.44 0 0
31.52 0 0
31.6 0 0
31.68 0 0
31.76 0 0
31.84 0 0
31.92 0 0
0 0.005 0
0.08 0.005 0
0.16 0.005 0
0.24 0.005 0
0.32 0.005 0
0.4 0.005 0
0.48 0.005 0
0.56 0.005 0
0.64 0.005 0
0.72 0.005 0
0.8 0.005 0
0.88 0.005 0
0.96 0.005 0
1.04 0.005 0
1.12 0.005 0
1.2 0.005 0
1.28 0.005 0
1.36 0.005 0
1.44 0.005 0
1.52 0.005 0
1.6 0.005 0
1.68 0.005 0
1.76 0.005 0
1.84 0.005 0
1.92 0.005 0
2 0.005 0
2.08 0.005 0
2.16 0.005 0
2.24 0.005 0
2.32 0.005 0
2.4 0.005 0
2.48 0.005 0
2.56 0.005 0
2.64 0.005 0
2.72 0.005 0
2.8 0.005 0
2.88 0.005 0
2.96 0.005 0
3.04 0.005 0
3.12 0.005 0
3.2 0.005 0
3.28 0.005 0
3.36 0.005 0
3.44 0.005 0
3.52 0.005 0
3.6 0.005 0
3.68 0.005 0
3.76 0.005 0
3.84 0.005 0
3.92 0.005 0
4 0.005 0
4.08 0.005 0
4.16 0.005 0
4.24 0.005 0
4.32 0.005 0
4.4 0.005 0
4.48 0.005 0
4.56 0.005 0
4.64 0.005 0
4.72 0.005 0
4.8 0.005 0
4.88 0.005 0
4.96 0.005 0
5.04 0.005 0
5.12 0.005 0
5.2 0.005 0
5.28 0.005 0
5.36 0.005 0
5.44 0.005 0
5.52 0.005 0
5.6 0.005 0
5.68 0.005 0
5.76 0.005 0
5.84 0.005 0
5.92 0.005 0
6 0.005 0
6.08 0.005 0
6.16 0.005 0
6.24 0.005 0
6.32 0.005 0
6.4 0.005 0
6.48 0.005 0
6.56 0.005 0
6.64 0.005 0
6.72 0.005 0
6.8 0.005 0
6.88 0.005 0
6.96 0.005 0
7.04 0.005 0
7.12 0.005 0
7.2 0.005 0
7.28 0.005 0
7.36 0.005 0
7.44 0.005 0
7.52 0.005 0
7.6 0.005 0
7.68 0.005 0
7.76 0.005 0
7.84 0.005 0
7.92 0.005 0
8 0.005 0
8.08 0.005 0
8.16 0.005 0
8.24 0.005 0
8.32 0.005 0
8.4 0.005 0
8.48 0.005 0
8.56 0.005 0
8.64 0.005 0
8.72 0.005 0
8.8 0.005 0
8.88 0.005 0
8.96 0.005 0
9.04 0.005 0
9.12 0.005 0
9.2 0.005 0
9.28 0.005 0
9.36 0.005 0
9.44 0.005 0
9.52 0.005 0
9.6 0.005 0
9.68 0.005 0
9.76 0.005 0
9.84 0.005 0
9.92 0.005 0
10 0.005 0
10.08 0.005 0
10.16 0.005 0
10.24 0.005 0
10.32 0.005 0
10.4 0.005 0
10.48 0.005 0
10.56 0.005 0
10.64 0.005 0
10.72 0.005 0
10.8 0.005 0
10.88 0.005 0
10.96 0.005 0
11.04 0.005 0
11.12 0.005 0
11.2 0.005 0
11.28 0.005 0
11.36 0.005 0
11.44 0.005 0
11.52 0.005 0
11.6 0.005 0
11.68 0.005 0
11.76 0.005 0
11.84 0.005 0
11.92 0.005 0
12 0.005 0
12.08 0.005 0
12.16 0.005 0
12.24 0.005 0
12.32 0.005 0
12.4 0.005 0
12.48 0.005 0
12.56 0.005 0
12.64 0.005 0
12.72 0.005 0
12.8 0.005 0
12.88 0.005 0
12.96 0.005 0
13.04 0.005 0
13.12 0.005 0
13.2 0.005 0
13.28 0.005 0
13.36 0.005 0
13.44 0.005 0
13.52 0.005 0
13.6 0.005 0
13.68 0.005 0
13.76 0.005 0
13.84 0.005 0
13.92 0.005 0
14 0.005 0
14.08 0.005 0
14.16 0.005 0
14.24 0.005 0
14.32 0.005 0
14.4 0.005 0
14.48 0.005 0
14.56 0.005 0
14.64 0.005 0
14.72 0.005 0
14.8 0.005 0
14.88 0.005 0
14.96 0.005 0
15.04 0.005 0
15.12 0.005 0
15.2 0.005 0
15.28 0.005 0
15.36 0.005 0
15.44 0.005 0
15.52 0.005 0
15.6 0.005 0
15.68 0.005 0
15.76 0.005 0
15.84 0.005 0
15.92 0.005 0
16 0.005 0
16.08 0.005 0
16.16 0.005 0
16.24 0.005 0
16.32 0.005 0
16.4 0.005 0
16.48 0.005 0
16.56 0.005 0
16.64 0.005 0
16.72 0.005 0
16.8 0.005 0
16.88 0.005 0
16.96 0.005 0
17.04 0.005 0
17.12 0.005 0
17.2 0.005 0
17.28 0.005 0
17.36 0.005 0
17.44 0.005 0
17.52 0.005 0
17.6 0.005 0
17.68 0.005 0
17.76 0.005 0
17.84 0.005 0
17.92 0.005 0
18 0.005 0
18.08 0.005 0
18.16 0.005 0
18.24 0.005 0
18.32 0.005 0
18.4 0.005 0
18.48 0.005 0
18.56 0.005 0
18.64 0.005 0
18.72 0.005 0
18.8 0.005 0
18.88 0.005 0
18.96 0.005 0
19.04 0.005 0
19.12 0.005 0
19.2 0.005 0
19.28 0.005 0
19.36 0.005 0
19.44 0.005 0
19.52 0.005 0
19.6 0.005 0
19.68 0.005 0
19.76 0.005 0
19.84 0.005 0
19.92 0.005 0
20 0.005 0
20.08 0.005 0
20.16 0.005 0
20.24 0.005 0
20.32 0.005 0
20.4 0.005 0
20.48 0.005 0
20.56 0.005 0
20.64 0.005 0
20.72 0.005 0
20.8 0.005 0
20.88 0.005 0
20.96 0.005 0
21.04 0.005 0
21.12 0.005 0
21.2 0.005 0
21.28 0.005 0
21.36 0.005 0
21.44 0.005 0
21.52 0.005 0
21.6 0.005 0
21.68 0.005 0
21.76 0.005 0
21.84 0.005 0
21.92 0.005 0
22 0.005 0
22.08 0.005 0
22.16 0.005 0
22.24 0.005 0
22.32 0.005 0
22.4 0.005 0
22.48 0.005 0
22.56 0.005 0
22.64 0.005 0
22.72 0.005 0
22.8 0.005 0
22.88 0.005 0
22.96 0.005 0
23.04 0.005 0
23.12 0.005 0
23.2 0.005 0
23.28 0.005 0
23.36 0.005 0
23.44 0.005 0
23.52 0.005 0
23.6 0.005 0
23.68 0.005 0
23.76 0.005 0
23.84 0.005 0
23.92 0.005 0
24 0.005 0
24.08 0.005 0
24.16 0.005 0
24.24 0.005 0
24.32 0.005 0
24.4 0.005 0
24.48 0.005 0
24.56 0.005 0
24.64 0.005 0
24.72 0.005 0
24.8 0.005 0
24.88 0.005 0
24.96 0.005 0
25.04 0.005 0
25.12 0.005 0
25.2 0.005 0
25.28 0.005 0
25.36 0.005 0
25.44 0.005 0
25.52 0.005 0
25.6 0.005 0
25.68 0.005 0
25.76 0.005 0
25.84 0.005 0
25.92 0.005 0
26 0.005 0
26.08 0.005 0
26.16 0.005 0
26.24 0.005 0
26.32 0.005 0
26.4 0.005 0
26.48 0.005 0
26.56 0.005 0
26.64 0.005 0
26.72 0.005 0
26.8 0.005 0
26.88 0.005 0
26.96 0.005 0
27.04 0.005 0
27.12 0.005 0
27.2 0.005 0
27.28 0.005 0
27.36 0.005 0
27.44 0.005 0
27.52 0.005 0
27.6 0.005 0
27.68 0.005 0
27.76 0.005 0
27.84 0.005 0
27.92 0.005 0
28 0.005 0
28.08 0.005 0
28.16 0.005 0
28.24 0.005 0
28.32 0.005 0
28.4 0.005 0
28.48 0.005 0
28.56 0.005 0
28.64 0.005 0
28.72 0.005 0
28.8 0.005 0
28.88 0.005 0
28.96 0.005 0
29.04 0.005 0
29.12 0.005 0
29.2 0.005 0
29.28 0.005 0
29.36 0.005 0
29.44 0.005 0
29.52 0.005 0
29.6 0.005 0
29.68 0.005 0
29.76 0.005 0
29.84 0.005 0
29.92 0.005 0
30 0.005 0
30.08 0.005 0
30.16 0.005 0
30.24 0.005 0
30.32 0.005 0
30.4 0.005 0
30.48 0.005 0
30.56 0.005 0
30.64 0.005 0
30.72 0.005 0
30.8 0.005 0
30.88 0.005 0
30.96 0.005 0
31.04 0.005 0
31.12 0.005 0
31.2 0.005 0
31.28 0.005 0
31.36 0.005 0
31.44 0.005 0
31.52 0.005 0
31.6 0.005 0
31.68 0.005 0
31.76 0.005 0
31.84 0.005 0
31.92 0.005 0
0 0.01 0
0.08 0.01 0
0.16 0.01 0
0.24 0.01 0
0.32 0.01 0
0.4 0.01 0
0.48 0.01 0
0.56 0.01 0
0.64 0.01 0
0.72 0.01 0
0.8 0.01 0
0.88 0.01 0
0.96 0.01 0
1.04 0.01 0
1.12 0.01 0
1.2 0.01 0
1.28 0.01 0
1.36 0.01 0
1.44 0.01 0
1.52 0.01 0
1.6 0.01 0
1.68 0.01 0
1.76 0.01 0
1.84 0.01 0
1.92 0.01 0
2 0.01 0
2.08 0.01 0
2.16 0.01 0
2.24 0.01 0
2.32 0.01 0
2.4 0.01 0
2.48 0.01 0
2.56 0.01 0
2.64 0.01 0
2.72 0.01 0
2.8 0.01 0
2.88 0.01 0
2.96 0.01 0
3.04 0.01 0
3.12 0.01 0
3.2 0.01 0
3.28 0.01 0
3.36 0.01 0
3.44 0.01 0
3.52 0.01 0
3.6 0.01 0
3.68 0.01 0
3.76 0.01 0
3.84 0.01 0
3.92 0.01 0
4 0.01 0
4.08 0.01 0
4.16 0.01 0
4.24 0.01 0
4.32 0.01 0
4.4 0.01 0
4.48 0.01 0
4.56 0.01 0
4.64 0.01 0
4.72 0.01 0
4.8 0.01 0
4.88 0.01 0
4.96 0.01 0
5.04 0.01 0
5.12 0.01 0
[...]
POINT_DATA 80000

SCALARS u float 1
LOOKUP_TABLE default
0
-0.131663
-0.068269
-0.0522958
-0.0444196
-0.0395765
-0.0362593
-0.0338323
-0.0319723
-0.0304956
-0.0292895
-0.0282812
-0.0274217
-0.026677
-0.026023
-0.0254421
-0.0249212
-0.0244502
-0.0240216
-0.0236292
-0.0232681
-0.0229343
-0.0226247
-0.0223365
-0.0220674
-0.0218154
-0.0215789
-0.0213563
-0.0211464
-0.0209482
-0.0207605
-0.0205826
-0.0204137
-0.020253
-0.0201
-0.0199541
-0.0198147
-0.0196815
-0.0195541
-0.0194319
-0.0193148
-0.0192024
-0.0190944
-0.0189906
-0.0188906
-0.0187943
-0.0187015
-0.018612
-0.0185257
-0.0184422
-0.0183616
-0.0182836
-0.0182082
-0.0181351
-0.0180644
-0.0179958
-0.0179294
-0.0178649
-0.0178023
-0.0177416
-0.0176826
-0.0176252
-0.0175695
-0.0175154
-0.0174627
-0.0174114
-0.0173615
-0.0173129
-0.0172656
-0.0172195
-0.0171746
-0.0171308
-0.0170882
-0.0170466
-0.017006
-0.0169664
-0.0169278
-0.0168901
-0.0168532
-0.0168173
-0.0167822
-0.016748
-0.0167145
-0.0166818
-0.0166498
-0.0166186
-0.0165881
-0.0165583
-0.0165291
-0.0165006
-0.0164727
-0.0164454
-0.0164188
-0.0163927
-0.0163672
-0.0163422
-0.0163178
-0.0162939
-0.0162705
-0.0162476
-0.0162252
-0.0162033
-0.0161818
-0.0161608
-0.0161403
-0.0161201
-0.0161004
-0.0160811
-0.0160622
-0.0160437
-0.0160256
-0.0160079
-0.0159905
-0.0159735
-0.0159568
-0.0159405
-0.0159245
-0.0159089
-0.0158935
-0.0158785
-0.0158638
-0.0158494
-0.0158353
-0.0158214
-0.0158079
-0.0157946
-0.0157816
-0.0157689
-0.0157564
-0.0157442
-0.0157322
-0.0157205
-0.015709
-0.0156977
-0.0156867
-0.0156759
-0.0156653
-0.0156549
-0.0156447
-0.0156348
-0.015625
-0.0156154
-0.0156061
-0.0155969
-0.0155879
-0.0155791
-0.0155704
-0.015562
-0.0155537
-0.0155455
-0.0155376
-0.0155298
-0.0155221
-0.0155146
-0.0155073
-0.0155001
-0.015493
-0.0154861
-0.0154794
-0.0154727
-0.0154662
-0.0154599
-0.0154537
-0.0154476
-0.0154416
-0.0154357
-0.01543
-0.0154244
-0.015419
-0.0154136
-0.0154084
-0.0154033
-0.0153983
-0.0153934
-0.0153887
-0.015384
-0.0153795
-0.0153751
-0.0153708
-0.0153666
-0.0153626
-0.0153586
-0.0153548
-0.0153511
-0.0153475
-0.015344
-0.0153406
-0.0153373
-0.0153342
-0.0153311
-0.0153282
-0.0153253
-0.0153226
-0.01532
-0.0153174
-0.015315
-0.0153127
-0.0153105
-0.0153083
-0.0153063
-0.0153043
-0.0153025
-0.0153007
-0.015299
-0.0152974
-0.0152959
-0.0152945
-0.0152931
-0.0152919
-0.0152907
-0.0152895
-0.0152885
-0.0152875
-0.0152865
-0.0152857
-0.0152848
-0.0152841
-0.0152834
-0.0152827
-0.0152821
-0.0152816
-0.0152811
-0.0152806
-0.0152802
-0.0152798
-0.0152795
-0.0152791
-0.0152789
-0.0152786
-0.0152784
-0.0152782
-0.015278
-0.0152778
-0.0152777
-0.0152776
-0.0152775
-0.0152774
-0.0152774
-0.0152773
-0.0152773
-0.0152772
-0.0152772
-0.0152772
-0.0152772
-0.0152772
-0.0152772
-0.0152772
-0.0152772
-0.0152772
-0.0152772
-0.0152773
-0.0152773
-0.0152773
-0.0152773
-0.0152774
-0.0152774
-0.0152774
-0.0152775
-0.0152775
-0.0152775
-0.0152776
-0.0152776
-0.0152776
-0.0152776
-0.0152777
-0.0152777
-0.0152777
-0.0152778
-0.0152778
-0.0152778
-0.0152779
-0.0152779
-0.0152779
-0.015278
-0.015278
-0.015278
-0.0152781
-0.0152781
-0.0152781
-0.0152782
-0.0152782
-0.0152782
-0.0152783
-0.0152783
-0.0152783
-0.0152784
-0.0152784
-0.0152784
-0.0152785
-0.0152785
-0.0152786
-0.0152786
-0.0152786
-0.0152787
-0.0152787
-0.0152787
-0.0152788
-0.0152788
-0.0152788
-0.0152789
-0.0152789
-0.0152789
-0.015279
-0.015279
-0.015279
-0.0152791
-0.0152791
-0.0152791
-0.0152792
-0.0152792
-0.0152792
-0.0152793
-0.0152793
-0.0152793
-0.0152794
-0.0152794
-0.0152794
-0.0152795
-0.0152795
-0.0152795
-0.0152796
-0.0152796
-0.0152796
-0.0152797
-0.0152797
-0.0152797
-0.0152798
-0.0152798
-0.0152798
-0.0152799
-0.0152799
-0.0152799
-0.01528
-0.01528
-0.0152801
-0.0152801
-0.0152801
-0.0152802
-0.0152802
-0.0152802
-0.0152803
-0.0152803
-0.0152803
-0.0152804
-0.0152804
-0.0152804
-0.0152805
-0.0152805
-0.0152805
-0.0152806
-0.0152806
-0.0152806
-0.0152807
-0.0152807
-0.0152807
-0.0152808
-0.0152808
-0.0152808
-0.0152809
-0.0152809
-0.015281
-0.015281
-0.015281
-0.0152811
-0.0152811
-0.0152811
-0.0152812
-0.0152812
-0.0152812
-0.0152813
-0.0152813
-0.0152813
-0.0152814
-0.0152814
-0.0152814
-0.0152815
-0.0152815
-0.0152816
-0.0152816
-0.0152816
-0.0152817
-0.0152817
-0.0152817
-0.0152818
-0.0152818
-0.0152818
-0.0152819
-0.0152819
-0.0152819
-0.015282
-0.015282
-0.015282
-0.0152821
-0.0152821
-0.0152822
-0.0152822
-0.0152822
-0.0152822
-0.0152822
-0.0152822
1
0.131663
0.068269
0.0522958
0.0444196
0.0395765
0.0362593
0.0338323
0.0319723
0.0304956
0.0292895
0.0282812
0.0274217
0.026677
0.026023
0.0254421
0.0249212
0.0244502
0.0240216
0.0236292
0.0232681
0.0229343
0.0226247
0.0223365
0.0220674
0.0218154
0.0215789
0.0213563
0.0211464
0.0209482
0.0207605
0.0205826
0.0204137
0.020253
0.0201
0.0199541
0.0198147
0.0196815
0.0195541
0.0194319
0.0193148
0.0192024
0.0190944
0.0189906
0.0188906
0.0187943
0.0187015
0.018612
0.0185257
0.0184422
0.0183616
0.0182836
0.0182082
0.0181351
0.0180644
0.0179958
0.0179294
0.0178649
0.0178023
0.0177416
0.0176826
0.0176252
0.0175695
0.0175154
0.0174627
0.0174114
0.0173615
0.0173129
0.0172656
0.0172195
0.0171746
0.0171308
0.0170882
0.0170466
0.017006
0.0169664
0.0169278
0.0168901
0.0168532
0.0168173
0.0167822
0.016748
0.0167145
0.0166818
0.0166498
0.0166186
0.0165881
0.0165583
0.0165291
0.0165006
0.0164727
0.0164454
0.0164188
0.0163927
0.0163672
0.0163422
0.0163178
0.0162939
0.0162705
0.0162476
0.0162252
0.0162033
0.0161818
0.0161608
0.0161403
0.0161201
0.0161004
0.0160811
0.0160622
0.0160437
0.0160256
0.0160079
0.0159905
0.0159735
0.0159568
0.0159405
0.0159245
0.0159089
0.0158935
0.0158785
0.0158638
0.0158494
0.0158353
0.0158214
0.0158079
0.0157946
0.0157816
0.0157689
0.0157564
0.0157442
0.0157322
0.0157205
0.015709
0.0156977
0.0156867
0.0156759
0.0156653
0.0156549
0.0156447
0.0156348
0.015625
0.0156154
0.0156061
0.0155969
0.0155879
0.0155791
0.0155704
0.015562
0.0155537
0.0155455
0.0155376
0.0155298
0.0155221
0.0155146
0.0155073
0.0155001
0.015493
0.0154861
0.0154794
0.0154727
0.0154662
0.0154599
0.0154537
0.0154476
0.0154416
0.0154357
0.01543
0.0154244
0.015419
0.0154136
0.0154084
0.0154033
0.0153983
0.0153934
0.0153887
0.015384
0.0153795
0.0153751
0.0153708
0.0153666
0.0153626
0.0153586
0.0153548
0.0153511
0.0153475
0.015344
0.0153406
0.0153373
0.0153342
0.0153311
0.0153282
0.0153253
0.0153226
0.01532
0.0153174
0.015315
0.0153127
0.0153105
0.0153083
0.0153063
0.0153043
0.0153025
0.0153007
0.015299
0.0152974
0.0152959
0.0152945
0.0152931
0.0152919
0.0152907
0.0152895
0.0152885
0.0152875
0.0152865
0.0152857
0.0152848
0.0152841
0.0152834
0.0152827
0.0152821
0.0152816
0.0152811
0.0152806
0.0152802
0.0152798
0.0152795
0.0152791
0.0152789
0.0152786
0.0152784
0.0152782
0.015278
0.0152778
0.0152777
0.0152776
0.0152775
0.0152774
0.0152774
0.0152773
0.0152773
0.0152772
0.0152772
0.0152772
0.0152772
0.0152772
0.0152772
0.0152772
0.0152772
0.0152772
0.0152772
0.0152773
0.0152773
0.0152773
0.0152773
0.0152774
0.0152774
0.0152774
0.0152775
0.0152775
0.0152775
0.0152776
0.0152776
0.0152776
0.0152776
0.0152777
0.0152777
0.0152777
0.0152778
0.0152778
0.0152778
0.0152779
0.0152779
0.0152779
0.015278
0.015278
0.015278
0.0152781
0.0152781
0.0152781
0.0152782
0.0152782
0.0152782
0.0152783
0.0152783
0.0152783
0.0152784
0.0152784
0.0152784
0.0152785
0.0152785
0.0152786
0.0152786
0.0152786
0.0152787
0.0152787
0.0152787
0.0152788
0.0152788
0.0152788
0.0152789
0.0152789
0.0152789
0.015279
0.015279
0.015279
0.0152791
0.0152791
0.0152791
0.0152792
0.0152792
0.0152792
0.0152793
0.0152793
0.0152793
0.0152794
0.0152794
0.0152794
0.0152795
0.0152795
0.0152795
0.0152796
0.0152796
0.0152796
0.0152797
0.0152797
0.0152797
0.0152798
0.0152798
0.0152798
0.0152799
0.0152799
0.0152799
0.01528
0.01528
0.0152801
0.0152801
0.0152801
0.0152802
0.0152802
0.0152802
0.0152803
0.0152803
0.0152803
0.0152804
0.0152804
0.0152804
0.0152805
0.0152805
0.0152805
0.0152806
0.0152806
0.0152806
0.0152807
0.0152807
0.0152807
0.0152808
0.0152808
0.0152808
0.0152809
0.0152809
0.015281
0.015281
0.015281
0.0152811
0.0152811
0.0152811
0.0152812
0.0152812
0.0152812
0.0152813
0.0152813
0.0152813
0.0152814
0.0152814
0.0152814
0.0152815
0.0152815
0.0152816
0.0152816
0.0152816
0.0152817
0.0152817
0.0152817
0.0152818
0.0152818
0.0152818
0.0152819
0.0152819
0.0152819
0.015282
0.015282
0.015282
0.0152821
0.0152821
0.0152822
0.0152822
0.0152822
0.0152822
0.0152822
0.0152822
1
0.344884
0.200667
0.154967
0.131894
0.117598
0.107767
0.100557
0.0950241
0.0906281
0.0870369
0.0840349
0.0814768
0.0792616
0.0773172
0.0755909
0.0740437
0.0726457
0.0713738
0.0702098
0.0691392
0.0681501
0.0672327
0.0663789
0.0655818
0.0648356
0.0641353
0.0634764
0.0628553
0.0622685
0.0617133
0.0611869
0.060687
0.0602117
0.0597591
0.0593275
0.0589155
0.0585216
0.0581447
0.0577836
0.0574373
0.057105
0.0567857
0.0564787
0.0561833
0.0558987
0.0556245
0.05536
0.0551047
0.0548581
0.0546199
0.0543895
0.0541666
0.0539508
0.0537418
0.0535392
0.0533429
0.0531524
0.0529676
0.0527882
0.052614
0.0524447
0.0522801
0.0521201
0.0519645
0.0518131
0.0516658
0.0515224
0.0513827
0.0512466
0.051114
0.0509848
0.0508589
0.050736
0.0506163
0.0504994
0.0503854
0.0502741
0.0501655
0.0500594
0.0499559
0.0498548
0.049756
0.0496595
0.0495652
0.0494731
0.0493831
0.0492951
0.049209
0.0491249
0.0490426
0.0489622
0.0488835
0.0488066
0.0487313
0.0486577
0.0485857
0.0485152
0.0484462
0.0483787
0.0483126
0.048248
0.0481847
0.0481227
0.0480621
0.0480027
0.0479446
0.0478877
0.047832
0.0477775
0.0477241
0.0476717
0.0476205
0.0475704
0.0475212
0.0474731
0.047426
0.0473798
0.0473346
0.0472904
0.047247
0.0472045
0.0471629
0.0471221
0.0470822
0.0470431
0.0470048
0.0469672
0.0469304
0.0468944
0.0468591
0.0468245
0.0467907
0.0467575
0.0467249
0.0466931
0.0466619
0.0466313
0.0466013
0.046572
0.0465432
0.046515
0.0464874
0.0464603
0.0464338
0.0464078
0.0463824
0.0463574
0.046333
0.0463091
0.0462856
0.0462626
0.0462401
0.046218
0.0461964
0.0461752
0.0461544
0.046134
0.0461141
0.0460946
0.0460755
0.0460567
0.0460384
0.0460205
0.0460029
0.0459857
0.0459689
0.0459524
0.0459363
0.0459206
0.0459052
0.0458902
0.0458755
0.0458612
0.0458473
0.0458337
0.0458204
0.0458075
0.0457949
0.0457827
0.0457708
0.0457592
0.045748
0.0457371
0.0457266
0.0457164
0.0457065
0.0456969
0.0456877
0.0456788
0.0456702
0.0456619
0.0456539
0.0456462
0.0456389
0.0456318
0.045625
0.0456185
0.0456123
0.0456064
0.0456007
0.0455954
0.0455902
0.0455854
0.0455807
0.0455764
0.0455722
0.0455683
0.0455646
0.0455611
0.0455579
0.0455548
0.0455519
0.0455492
0.0455467
0.0455444
0.0455422
0.0455402
0.0455384
0.0455367
0.0455351
0.0455336
0.0455323
0.0455311
0.04553
0.045529
0.0455281
0.0455273
0.0455266
0.045526
0.0455254
0.0455249
0.0455245
0.0455241
0.0455238
0.0455235
0.0455233
0.0455231
0.045523
0.0455228
0.0455228
0.0455227
0.0455227
0.0455226
0.0455226
0.0455227
0.0455227
0.0455227
0.0455228
0.0455229
0.0455229
0.045523
0.0455231
0.0455232
0.0455233
0.0455233
0.0455234
0.0455235
0.0455236
0.0455237
0.0455238
0.0455239
0.045524
0.0455241
0.0455242
0.0455243
0.0455244
0.0455245
0.0455246
0.0455247
0.0455248
0.0455249
0.045525
0.0455251
0.0455252
0.0455253
0.0455254
0.0455255
0.0455256
0.0455257
0.0455258
0.0455259
0.045526
0.0455261
0.0455262
0.0455263
0.0455264
0.0455265
0.0455266
0.0455267
0.0455268
0.0455269
0.045527
0.0455271
0.0455272
0.0455273
0.0455274
0.0455275
0.0455276
0.0455277
0.0455278
0.0455279
0.045528
0.0455281
0.0455282
0.0455283
0.0455284
0.0455285
0.0455286
0.0455287
0.0455288
0.0455289
0.045529
0.0455291
0.0455292
0.0455293
0.0455294
0.0455295
0.0455296
0.0455297
0.0455298
0.0455299
0.04553
0.0455301
0.0455302
0.0455303
0.0455304
0.0455306
0.0455307
0.0455308
0.0455309
0.045531
0.0455311
0.0455312
0.0455313
0.0455314
0.0455315
0.0455316
0.0455317
0.0455318
0.0455319
0.045532
0.0455321
0.0455322
0.0455323
0.0455324
0.0455325
0.0455326
0.0455327
0.0455328
0.0455329
0.045533
0.0455331
0.0455332
0.0455333
0.0455334
0.0455335
0.0455336
0.0455338
0.0455339
0.045534
0.0455341
0.0455342
0.0455343
0.0455344
0.0455345
0.0455346
0.0455347
0.0455348
0.0455349
0.045535
0.0455351
0.0455352
0.0455353
0.0455354
0.0455355
0.0455356
0.0455357
0.0455358
0.045536
0.0455361
0.0455362
0.0455363
0.0455364
0.0455365
0.0455366
0.0455367
0.0455368
0.0455369
0.045537
0.0455371
0.0455372
0.0455373
0.0455374
0.0455376
0.0455376
0.0455378
0.0455376
0.0455376
0.0455376
1
0.518765
0.327401
0.255347
0.217848
0.194403
0.178211
0.166306
0.157157
0.149883
0.143938
0.138968
0.134734
0.131068
0.127852
0.124998
0.122441
0.120131
0.118031
0.116109
0.114342
0.11271
0.111196
0.109788
0.108473
0.107243
0.106088
0.105002
0.103978
0.103011
0.102096
0.101229
0.100405
0.099622
0.0988762
0.0981652
0.0974864
0.0968376
0.0962168
0.0956221
0.0950518
0.0945045
0.0939787
0.0934731
0.0929866
0.0925181
0.0920666
0.0916311
0.0912108
0.0908049
0.0904127
0.0900334
0.0896665
0.0893113
0.0889673
0.088634
0.0883108
0.0879973
0.0876932
0.0873979
0.0871112
0.0868326
0.0865619
0.0862986
0.0860426
0.0857935
0.0855511
0.0853151
0.0850853
0.0848615
0.0846434
0.0844309
0.0842237
0.0840216
0.0838246
0.0836324
0.0834449
0.0832618
0.0830832
0.0829088
0.0827386
0.0825723
0.0824098
0.0822512
0.0820961
0.0819447
0.0817966
0.0816519
0.0815104
0.0813721
0.0812369
0.0811047
0.0809753
0.0808488
0.0807251
0.0806041
0.0804856
0.0803698
0.0802564
0.0801454
0.0800369
0.0799306
0.0798266
0.0797248
0.0796251
0.0795275
0.079432
0.0793385
0.079247
0.0791573
0.0790695
0.0789836
0.0788994
0.078817
0.0787363
0.0786572
0.0785798
0.078504
0.0784297
0.0783569
0.0782857
0.0782159
0.0781475
0.0780805
0.0780149
0.0779507
0.0778877
0.077826
0.0777656
0.0777064
0.0776484
0.0775916
0.077536
0.0774815
0.077428
0.0773757
0.0773244
0.0772742
0.077225
0.0771767
0.0771295
0.0770832
0.0770378
0.0769934
0.0769498
0.0769072
0.0768654
0.0768244
0.0767843
0.0767449
0.0767064
0.0766686
0.0766316
0.0765954
0.0765598
0.076525
0.0764909
0.0764575
0.0764248
0.0763928
0.0763614
0.0763307
0.0763006
0.0762711
0.0762423
0.076214
0.0761864
0.0761594
0.0761331
0.0761073
0.0760821
0.0760574
0.0760334
0.07601
0.0759871
0.0759648
0.0759431
0.075922
0.0759014
0.0758814
0.0758619
0.075843
0.0758247
0.0758069
0.0757897
0.075773
0.0757568
0.0757412
0.0757262
0.0757116
0.0756976
0.0756841
0.0756711
0.0756586
0.0756466
0.0756351
0.0756241
0.0756135
0.0756034
0.0755938
0.0755846
0.0755759
0.0755675
0.0755596
0.0755522
0.0755451
0.0755384
0.075532
0.075526
0.0755204
0.0755151
0.0755102
0.0755056
0.0755012
0.0754972
0.0754934
0.0754899
0.0754867
0.0754837
0.075481
0.0754785
0.0754761
0.075474
0.0754721
0.0754703
0.0754688
0.0754673
0.0754661
0.0754649
0.0754639
0.075463
0.0754622
0.0754616
0.075461
0.0754605
0.07546
0.0754597
0.0754594
0.0754592
0.075459
0.0754589
0.0754588
0.0754587
0.0754587
0.0754587
0.0754588
0.0754588
0.0754589
0.075459
0.0754591
0.0754592
0.0754594
0.0754595
0.0754596
0.0754598
0.0754599
0.0754601
0.0754602
0.0754604
0.0754606
0.0754607
0.0754609
0.0754611
0.0754612
0.0754614
0.0754615
0.0754617
0.0754619
0.075462
0.0754622
0.0754624
0.0754625
0.0754627
0.0754629
0.075463
0.0754632
0.0754633
0.0754635
0.0754637
0.0754638
0.075464
0.0754642
0.0754643
0.0754645
0.0754647
0.0754648
0.075465
0.0754652
0.0754653
0.0754655
0.0754657
0.0754658
0.075466
0.0754662
0.0754663
0.0754665
0.0754667
0.0754668
0.075467
0.0754672
0.0754673
0.0754675
0.0754677
0.0754678
0.075468
0.0754682
0.0754683
0.0754685
0.0754687
0.0754688
0.075469
0.0754692
0.0754693
0.0754695
0.0754697
0.0754699
0.07547
0.0754702
0.0754704
0.0754705
0.0754707
0.0754709
0.075471
0.0754712
0.0754714
0.0754715
0.0754717
0.0754719
0.0754721
0.0754722
0.0754724
0.0754726
0.0754727
0.0754729
0.0754731
0.0754732
0.0754734
0.0754736
0.0754738
0.0754739
0.0754741
0.0754743
0.0754744
0.0754746
0.0754748
0.075475
0.0754751
0.0754753
0.0754755
0.0754756
0.0754758
0.075476
0.0754762
0.0754763
0.0754765
0.0754767
0.0754768
0.075477
0.0754772
0.0754774
0.0754775
0.0754777
0.0754779
0.075478
0.0754782
0.0754784
0.0754786
0.0754787
0.0754789
0.0754791
0.0754793
0.0754794
0.0754796
0.0754798
0.07548
0.0754801
0.0754803
0.0754805
0.0754807
0.0754808
0.075481
0.0754812
0.0754813
0.0754815
0.0754817
0.0754819
0.075482
0.0754822
0.0754824
0.0754826
0.0754828
0.0754829
0.0754831
0.0754833
0.0754835
0.0754836
0.0754839
0.0754837
0.0754837
0.0754837
1
0.660887
0.446893
0.352877
0.302029
0.269849
0.2475
0.231017
0.218326
0.208224
0.199965
0.193058
0.187175
0.182082
0.177615
0.173653
0.170103
0.166899
0.163985
0.16132
0.15887
0.156608
0.15451
0.152559
0.150738
0.149033
0.147434
0.14593
0.144512
0.143173
0.141906
0.140705
0.139565
0.138481
0.137449
0.136465
0.135526
0.134628
0.133769
0.132946
0.132157
0.131399
0.130672
0.129972
0.129299
0.128651
0.128027
0.127424
0.126843
0.126281
0.125739
0.125214
0.124707
0.124216
0.12374
0.123279
0.122832
0.122399
0.121978
0.12157
0.121174
0.120788
0.120414
0.12005
0.119696
0.119352
0.119017
0.118691
0.118373
0.118064
0.117762
0.117468
0.117182
0.116903
0.11663
0.116365
0.116106
0.115853
0.115606
0.115365
0.11513
0.1149
0.114676
0.114456
0.114242
0.114033
0.113828
0.113628
0.113433
0.113242
0.113055
0.112872
0.112694
0.112519
0.112348
0.112181
0.112017
0.111857
0.111701
0.111548
0.111398
0.111251
0.111107
0.110967
0.110829
0.110694
0.110562
0.110433
0.110307
0.110183
0.110062
0.109943
0.109827
0.109713
0.109602
0.109493
0.109386
0.109281
0.109178
0.109078
0.10898
0.108883
0.108789
0.108696
0.108606
0.108517
0.10843
0.108345
0.108262
0.10818
0.1081
0.108022
0.107945
0.10787
0.107796
0.107724
0.107653
0.107583
0.107516
0.107449
0.107384
0.10732
0.107257
0.107196
0.107136
0.107077
0.107019
0.106963
0.106907
0.106853
0.1068
0.106748
0.106697
0.106647
0.106598
0.10655
0.106503
0.106457
0.106411
0.106367
0.106324
0.106282
0.10624
0.106199
0.10616
0.106121
0.106083
0.106045
0.106009
0.105974
0.105939
0.105905
0.105872
0.10584
0.105808
0.105777
0.105748
0.105718
0.10569
0.105663
0.105636
0.10561
0.105585
0.10556
0.105537
0.105514
0.105492
0.10547
0.105449
0.105429
0.10541
0.105392
0.105374
0.105357
0.10534
0.105325
0.10531
0.105295
0.105281
0.105268
0.105256
0.105244
0.105232
0.105222
0.105211
0.105202
0.105193
0.105184
0.105176
0.105168
0.105161
0.105154
0.105148
0.105142
0.105137
0.105132
0.105127
0.105122
0.105118
0.105115
0.105111
0.105108
0.105105
0.105103
0.1051
0.105098
0.105096
0.105095
0.105093
0.105092
0.105091
0.105089
0.105089
0.105088
0.105087
0.105087
0.105086
0.105086
0.105085
0.105085
0.105085
0.105085
0.105085
0.105085
0.105085
0.105085
0.105085
0.105085
0.105085
0.105086
0.105086
0.105086
0.105086
0.105086
0.105086
0.105087
0.105087
0.105087
0.105087
0.105088
0.105088
0.105088
0.105088
0.105088
0.105089
0.105089
0.105089
0.105089
0.10509
0.10509
0.10509
0.10509
0.10509
0.105091
0.105091
0.105091
0.105091
0.105092
0.105092
0.105092
0.105092
0.105093
0.105093
0.105093
0.105093
0.105093
0.105094
0.105094
0.105094
0.105094
0.105095
0.105095
0.105095
0.105095
0.105096
0.105096
0.105096
0.105096
0.105096
0.105097
0.105097
0.105097
0.105097
0.105098
0.105098
0.105098
0.105098
0.105099
0.105099
0.105099
0.105099
0.1051
0.1051
0.1051
0.1051
0.1051
0.105101
0.105101
0.105101
0.105101
0.105102
0.105102
0.105102
0.105102
0.105103
0.105103
0.105103
0.105103
0.105104
0.105104
0.105104
0.105104
0.105104
0.105105
0.105105
0.105105
0.105105
0.105106
0.105106
0.105106
0.105106
0.105107
0.105107
0.105107
0.105107
0.105108
0.105108
0.105108
0.105108
0.105108
0.105109
0.105109
0.105109
0.105109
0.10511
0.10511
0.10511
0.10511
0.105111
0.105111
0.105111
0.105111
0.105112
0.105112
0.105112
0.105112
0.105113
0.105113
0.105113
0.105113
0.105114
0.105114
0.105114
0.105114
0.105115
0.105115
0.105115
0.105115
0.105115
0.105116
0.105116
0.105116
0.105116
0.105117
0.105117
0.105117
0.105117
0.105118
0.105118
0.105118
0.105118
0.105119
0.105119
0.105119
0.105119
0.10512
0.10512
0.10512
0.10512
0.10512
1
0.776802
0.557824
0.446877
0.3841
0.343742
0.315509
0.294602
0.278467
0.265605
0.255079
0.246275
0.238774
0.232282
0.226588
0.221538
0.217017
0.212935
0.209225
0.205832
0.202714
0.199835
0.197167
0.194685
0.192368
0.190201
0.188167
0.186255