# vtk DataFile Version 2.0
FlowField
ASCII
DATASET STRUCTURED_GRID
DIMENSIONS 400 1 200
POINTS 80000 float
0 0 0
0.08 0 0
0.16 0 0
0.24 0 0
0.32 0 0
0.4 0 0
0.48 0 0
0.56 0 0
0.64 0 0
0.72 0 0
0.8 0 0
0.88 0 0
0.96 0 0
1.04 0 0
1.12 0 0
1.2 0 0
1.28 0 0
1.36 0 0
1.44 0 0
1.52 0 0
1.6 0 0
1.68 0 0
1.76 0 0
1.84 0 0
1.92 0 0
2 0 0
2.08 0 0
2.16 0 0
2.24 0 0
2.32 0 0
2.4 0 0
2.48 0 0
2.56 0 0
2.64 0 0
2.72 0 0
2.8 0 0
2.88 0 0
2.96 0 0
3.04 0 0
3.12 0 0
3.2 0 0
3.28 0 0
3.36 0 0
3.44 0 0
3.52 0 0
3.6 0 0
3.68 0 0
3.76 0 0
3.84 0 0
3.92 0 0
4 0 0
4.08 0 0
4.16 0 0
4.24 0 0
4.32 0 0
4.4 0 0
4.48 0 0
4.56 0 0
4.64 0 0
4.72 0 0
4.8 0 0
4.88 0 0
4.96 0 0
5.04 0 0
5.12 0 0
5.2 0 0
5.28 0 0
5.36 0 0
5.44 0 0
5.52 0 0
5.6 0 0
5.68 0 0
5.76 0 0
5.84 0 0
5.92 0 0
6 0 0
6.08 0 0
6.16 0 0
6.24 0 0
6.32 0 0
6.4 0 0
6.48 0 0
6.56 0 0
6.64 0 0
6.72 0 0
6.8 0 0
6.88 0 0
6.96 0 0
7.04 0 0
7.12 0 0
7.2 0 0
7.28 0 0
7.36 0 0
7.44 0 0
7.52 0 0
7.6 0 0
7.68 0 0
7.76 0 0
7.84 0 0
7.92 0 0
8 0 0
8.08 0 0
8.16 0 0
8.24 0 0
8.32 0 0
8.4 0 0
8.48 0 0
8.56 0 0
8.64 0 0
8.72 0 0
8.8 0 0
8.88 0 0
8.96 0 0
9.04 0 0
9.12 0 0
9.2 0 0
9.28 0 0
9.36 0 0
9.44 0 0
9.52 0 0
9.6 0 0
9.68 0 0
9.76 0 0
9.84 0 0
9.92 0 0
10 0 0
10.08 0 0
10.16 0 0
10.24 0 0
10.32 0 0
10.4 0 0
10.48 0 0
10.56 0 0
10.64 0 0
10.72 0 0
10.8 0 0
10.88 0 0
10.96 0 0
11.04 0 0
11.12 0 0
11.2 0 0
11.28 0 0
11.36 0 0
11.44 0 0
11.52 0 0
11.6 0 0
11.68 0 0
11.76 0 0
11.84 0 0
11.92 0 0
12 0 0
12.08 0 0
12.16 0 0
12.24 0 0
12.32 0 0
12.4 0 0
12.48 0 0
12.56 0 0
12.64 0 0
12.72 0 0
12.8 0 0
12.88 0 0
12.96 0 0
13.04 0 0
13.12 0 0
13.2 0 0
13.28 0 0
13.36 0 0
13.44 0 0
13.52 0 0
13.6 0 0
13.68 0 0
13.76 0 0
13.84 0 0
13.92 0 0
14 0 0
14.08 0 0
14.16 0 0
14.24 0 0
14.32 0 0
14.4 0 0
14.48 0 0
14.56 0 0
14.64 0 0
14.72 0 0
14.8 0 0
14.88 0 0
14.96 0 0
15.04 0 0
15.12 0 0
15.2 0 0
15.28 0 0
15.36 0 0
15.44 0 0
15.52 0 0
15.6 0 0
15.68 0 0
15.76 0 0
15.84 0 0
15.92 0 0
16 0 0
16.08 0 0
16.16 0 0
16.24 0 0
16.32 0 0
16.4 0 0
16.48 0 0
16.56 0 0
16.64 0 0
16.72 0 0
16.8 0 0
16.88 0 0
16.96 0 0
17.04 0 0
17.12 0 0
17.2 0 0
17.28 0 0
17.36 0 0
17.44 0 0
17.52 0 0
17.6 0 0
17.68 0 0
17.76 0 0
17.84 0 0
17.92 0 0
18 0 0
18.08 0 0
18.16 0 0
18.24 0 0
18.32 0 0
18.4 0 0
18.48 0 0
18.56 0 0
18.64 0 0
18.72 0 0
18.8 0 0
18.88 0 0
18.96 0 0
19.04 0 0
19.12 0 0
19.2 0 0
19.28 0 0
19.36 0 0
19.44 0 0
19.52 0 0
19.6 0 0
19.68 0 0
19.76 0 0
19.84 0 0
19.92 0 0
20 0 0
20.08 0 0
20.16 0 0
20.24 0 0
20.32 0 0
20.4 0 0
20.48 0 0
20.56 0 0
20.64 0 0
20.72 0 0
20.8 0 0
20.88 0 0
20.96 0 0
21.04 0 0
21.12 0 0
21.2 0 0
21.28 0 0
21.36 0 0
21.44 0 0
21.52 0 0
21.6 0 0
21.68 0 0
21.76 0 0
21.84 0 0
21.92 0 0
22 0 0
22.08 0 0
22.16 0 0
22.24 0 0
22.32 0 0
22.4 0 0
22.48 0 0
22.56 0 0
22.64 0 0
22.72 0 0
22.8 0 0
22.88 0 0
22.96 0 0
23.04 0 0
23.12 0 0
23.2 0 0
23.28 0 0
23.36 0 0
23.44 0 0
23.52 0 0
23.6 0 0
23.68 0 0
23.76 0 0
23.84 0 0
23.92 0 0
24 0 0
24.08 0 0
24.16 0 0
24.24 0 0
24.32 0 0
24.4 0 0
24.48 0 0
24.56 0 0
24.64 0 0
24.72 0 0
24.8 0 0
24.88 0 0
24.96 0 0
25.04 0 0
25.12 0 0
25.2 0 0
25.28 0 0
25.36 0 0
25.44 0 0
25.52 0 0
25.6 0 0
25.68 0 0
25.76 0 0
25.84 0 0
25.92 0 0
26 0 0
26.08 0 0
26.16 0 0
26.24 0 0
26.32 0 0
26.4 0 0
26.48 0 0
26.56 0 0
26.64 0 0
26.72 0 0
26.8 0 0
26.88 0 0
26.96 0 0
27.04 0 0
27.12 0 0
27.2 0 0
27.28 0 0
27.36 0 0
27.44 0 0
27.52 0 0
27.6 0 0
27.68 0 0
27.76 0 0
27.84 0 0
27.92 0 0
28 0 0
28.08 0 0
28.16 0 0
28.24 0 0
28.32 0 0
28.4 0 0
28.48 0 0
28.56 0 0
28.64 0 0
28.72 0 0
28.8 0 0
28.88 0 0
28.96 0 0
29.04 0 0
29.12 0 0
29.2 0 0
29.28 0 0
29.36 0 0
29.44 0 0
29.52 0 0
29.6 0 0
29.68 0 0
29.76 0 0
29.84 0 0
29.92 0 0
30 0 0
30.08 0 0
30.16 0 0
30.24 0 0
30.32 0 0
30.4 0 0
30.48 0 0
30.56 0 0
30.64 0 0
30.72 0 0
30.8 0 0
30.88 0 0
30.96 0 0
31.04 0 0
31.12 0 0
31.2 0 0
31.28 0 0
31.36 0 0
31.44 0 0
31.52 0 0
31.6 0 0
31.68 0 0
31.76 0 0
31.84 0 0
31.92 0 0
0 0.005 0
0.08 0.005 0
0.16 0.005 0
0.24 0.005 0
0.32 0.005 0
0.4 0.005 0
0.48 0.005 0
0.56 0.005 0
0.64 0.005 0
0.72 0.005 0
0.8 0.005 0
0.88 0.005 0
0.96 0.005 0
1.04 0.005 0
1.12 0.005 0
1.2 0.005 0
1.28 0.005 0
1.36 0.005 0
1.44 0.005 0
1.52 0.005 0
1.6 0.005 0
1.68 0.005 0
1.76 0.005 0
1.84 0.005 0
1.92 0.005 0
2 0.005 0
2.08 0.005 0
2.16 0.005 0
2.24 0.005 0
2.32 0.005 0
2.4 0.005 0
2.48 0.005 0
2.56 0.005 0
2.64 0.005 0
2.72 0.005 0
2.8 0.005 0
2.88 0.005 0
2.96 0.005 0
3.04 0.005 0
3.12 0.005 0
3.2 0.005 0
3.28 0.005 0
3.36 0.005 0
3.44 0.005 0
3.52 0.005 0
3.6 0.005 0
3.68 0.005 0
3.76 0.005 0
3.84 0.005 0
3.92 0.005 0
4 0.005 0
4.08 0.005 0
4.16 0.005 0
4.24 0.005 0
4.32 0.005 0
4.4 0.005 0
4.48 0.005 0
4.56 0.005 0
4.64 0.005 0
4.72 0.005 0
4.8 0.005 0
4.88 0.005 0
4.96 0.005 0
5.04 0.005 0
5.12 0.005 0
5.2 0.005 0
5.28 0.005 0
5.36 0.005 0
5.44 0.005 0
5.52 0.005 0
5.6 0.005 0
5.68 0.005 0
5.76 0.005 0
5.84 0.005 0
5.92 0.005 0
6 0.005 0
6.08 0.005 0
6.16 0.005 0
6.24 0.005 0
6.32 0.005 0
6.4 0.005 0
6.48 0.005 0
6.56 0.005 0
6.64 0.005 0
6.72 0.005 0
6.8 0.005 0
6.88 0.005 0
6.96 0.005 0
7.04 0.005 0
7.12 0.005 0
7.2 0.005 0
7.28 0.005 0
7.36 0.005 0
7.44 0.005 0
7.52 0.005 0
7.6 0.005 0
7.68 0.005 0
7.76 0.005 0
7.84 0.005 0
7.92 0.005 0
8 0.005 0
8.08 0.005 0
8.16 0.005 0
8.24 0.005 0
8.32 0.005 0
8.4 0.005 0
8.48 0.005 0
8.56 0.005 0
8.64 0.005 0
8.72 0.005 0
8.8 0.005 0
8.88 0.005 0
8.96 0.005 0
9.04 0.005 0
9.12 0.005 0
9.2 0.005 0
9.28 0.005 0
9.36 0.005 0
9.44 0.005 0
9.52 0.005 0
9.6 0.005 0
9.68 0.005 0
9.76 0.005 0
9.84 0.005 0
9.92 0.005 0
10 0.005 0
10.08 0.005 0
10.16 0.005 0
10.24 0.005 0
10.32 0.005 0
10.4 0.005 0
10.48 0.005 0
10.56 0.005 0
10.64 0.005 0
10.72 0.005 0
10.8 0.005 0
10.88 0.005 0
10.96 0.005 0
11.04 0.005 0
11.12 0.005 0
11.2 0.005 0
11.28 0.005 0
11.36 0.005 0
11.44 0.005 0
11.52 0.005 0
11.6 0.005 0
11.68 0.005 0
11.76 0.005 0
11.84 0.005 0
11.92 0.005 0
12 0.005 0
12.08 0.005 0
12.16 0.005 0
12.24 0.005 0
12.32 0.005 0
12.4 0.005 0
12.48 0.005 0
12.56 0.005 0
12.64 0.005 0
12.72 0.005 0
12.8 0.005 0
12.88 0.005 0
12.96 0.005 0
13.04 0.005 0
13.12 0.005 0
13.2 0.005 0
13.28 0.005 0
13.36 0.005 0
13.44 0.005 0
13.52 0.005 0
13.6 0.005 0
13.68 0.005 0
13.76 0.005 0
13.84 0.005 0
13.92 0.005 0
14 0.005 0
14.08 0.005 0
14.16 0.005 0
14.24 0.005 0
14.32 0.005 0
14.4 0.005 0
14.48 0.005 0
14.56 0.005 0
14.64 0.005 0
14.72 0.005 0
14.8 0.005 0
14.88 0.005 0
14.96 0.005 0
15.04 0.005 0
15.12 0.005 0
15.2 0.005 0
15.28 0.005 0
15.36 0.005 0
15.44 0.005 0
15.52 0.005 0
15.6 0.005 0
15.68 0.005 0
15.76 0.005 0
15.84 0.005 0
15.92 0.005 0
16 0.005 0
16.08 0.005 0
16.16 0.005 0
16.24 0.005 0
16.32 0.005 0
16.4 0.005 0
16.48 0.005 0
16.56 0.005 0
16.64 0.005 0
16.72 0.005 0
16.8 0.005 0
16.88 0.005 0
16.96 0.005 0
17.04 0.005 0
17.12 0.005 0
17.2 0.005 0
17.28 0.005 0
17.36 0.005 0
17.44 0.005 0
17.52 0.005 0
17.6 0.005 0
17.68 0.005 0
17.76 0.005 0
17.84 0.005 0
17.92 0.005 0
18 0.005 0
18.08 0.005 0
18.16 0.005 0
18.24 0.005 0
18.32 0.005 0
18.4 0.005 0
18.48 0.005 0
18.56 0.005 0
18.64 0.005 0
18.72 0.005 0
18.8 0.005 0
18.88 0.005 0
18.96 0.005 0
19.04 0.005 0
19.12 0.005 0
19.2 0.005 0
19.28 0.005 0
19.36 0.005 0
19.44 0.005 0
19.52 0.005 0
19.6 0.005 0
19.68 0.005 0
19.76 0.005 0
19.84 0.005 0
19.92 0.005 0
20 0.005 0
20.08 0.005 0
20.16 0.005 0
20.24 0.005 0
20.32 0.005 0
20.4 0.005 0
20.48 0.005 0
20.56 0.005 0
20.64 0.005 0
20.72 0.005 0
20.8 0.005 0
20.88 0.005 0
20.96 0.005 0
21.04 0.005 0
21.12 0.005 0
21.2 0.005 0
21.28 0.005 0
21.36 0.005 0
21.44 0.005 0
21.52 0.005 0
21.6 0.005 0
21.68 0.005 0
21.76 0.005 0
21.84 0.005 0
21.92 0.005 0
22 0.005 0
22.08 0.005 0
22.16 0.005 0
22.24 0.005 0
22.32 0.005 0
22.4 0.005 0
22.48 0.005 0
22.56 0.005 0
22.64 0.005 0
22.72 0.005 0
22.8 0.005 0
22.88 0.005 0
22.96 0.005 0
23.04 0.005 0
23.12 0.005 0
23.2 0.005 0
23.28 0.005 0
23.36 0.005 0
23.44 0.005 0
23.52 0.005 0
23.6 0.005 0
23.68 0.005 0
23.76 0.005 0
23.84 0.005 0
23.92 0.005 0
24 0.005 0
24.08 0.005 0
24.16 0.005 0
24.24 0.005 0
24.32 0.005 0
24.4 0.005 0
24.48 0.005 0
24.56 0.005 0
24.64 0.005 0
24.72 0.005 0
24.8 0.005 0
24.88 0.005 0
24.96 0.005 0
25.04 0.005 0
25.12 0.005 0
25.2 0.005 0
25.28 0.005 0
25.36 0.005 0
25.44 0.005 0
25.52 0.005 0
25.6 0.005 0
25.68 0.005 0
25.76 0.005 0
25.84 0.005 0
25.92 0.005 0
26 0.005 0
26.08 0.005 0
26.16 0.005 0
26.24 0.005 0
26.32 0.005 0
26.4 0.005 0
26.48 0.005 0
26.56 0.005 0
26.64 0.005 0
26.72 0.005 0
26.8 0.005 0
26.88 0.005 0
26.96 0.005 0
27.04 0.005 0
27.12 0.005 0
27.2 0.005 0
27.28 0.005 0
27.36 0.005 0
27.44 0.005 0
27.52 0.005 0
27.6 0.005 0
27.68 0.005 0
27.76 0.005 0
27.84 0.005 0
27.92 0.005 0
28 0.005 0
28.08 0.005 0
28.16 0.005 0
28.24 0.005 0
28.32 0.005 0
28.4 0.005 0
28.48 0.005 0
28.56 0.005 0
28.64 0.005 0
28.72 0.005 0
28.8 0.005 0
28.88 0.005 0
28.96 0.005 0
29.04 0.005 0
29.12 0.005 0
29.2 0.005 0
29.28 0.005 0
29.36 0.005 0
29.44 0.005 0
29.52 0.005 0
29.6 0.005 0
29.68 0.005 0
29.76 0.005 0
29.84 0.005 0
29.92 0.005 0
30 0.005 0
30.08 0.005 0
30.16 0.005 0
30.24 0.005 0
30.32 0.005 0
30.4 0.005 0
30.48 0.005 0
30.56 0.005 0
30.64 0.005 0
30.72 0.005 0
30.8 0.005 0
30.88 0.005 0
30.96 0.005 0
31.04 0.005 0
31.12 0.005 0
31.2 0.005 0
31.28 0.005 0
31.36 0.005 0
31.44 0.005 0
31.52 0.005 0
31.6 0.005 0
31.68 0.005 0
31.76 0.005 0
31.84 0.005 0
31.92 0.005 0
0 0.01 0
0.08 0.01 0
0.16 0.01 0
0.24 0.01 0
0.32 0.01 0
0.4 0.01 0
0.48 0.01 0
0.56 0.01 0
0.64 0.01 0
0.72 0.01 0
0.8 0.01 0
0.88 0.01 0
0.96 0.01 0
1.04 0.01 0
1.12 0.01 0
1.2 0.01 0
1.28 0.01 0
1.36 0.01 0
1.44 0.01 0
1.52 0.01 0
1.6 0.01 0
1.68 0.01 0
1.76 0.01 0
1.84 0.01 0
1.92 0.01 0
2 0.01 0
2.08 0.01 0
2.16 0.01 0
2.24 0.01 0
2.32 0.01 0
2.4 0.01 0
2.48 0.01 0
2.56 0.01 0
2.64 0.01 0
2.72 0.01 0
2.8 0.01 0
2.88 0.01 0
2.96 0.01 0
3.04 0.01 0
3.12 0.01 0
3.2 0.01 0
3.28 0.01 0
3.36 0.01 0
3.44 0.01 0
3.52 0.01 0
3.6 0.01 0
3.68 0.01 0
3.76 0.01 0
3.84 0.01 0
3.92 0.01 0
4 0.01 0
4.08 0.01 0
4.16 0.01 0
4.24 0.01 0
4.32 0.01 0
4.4 0.01 0
4.48 0.01 0
4.56 0.01 0
4.64 0.01 0
4.72 0.01 0
4.8 0.01 0
4.88 0.01 0
4.96 0.01 0
5.04 0.01 0
5.12 0.01 0
[...]
POINT_DATA 80000

SCALARS v float 1
LOOKUP_TABLE default
0
0
0
0
0
0
0
0
0
0
0
0
0
0
0
0
0
0
0
0
0
0
0
0
0
0
0
0
0
0
0
0
0
0
0
0
0
0
0
0
0
0
0
0
0
0
0
0
0
0
0
0
0
0
0
0
0
0
0
0
0
0
0
0
0
0
0
0
0
0
0
0
0
0
0
0
0
0
0
0
0
0
0
0
0
0
0
0
0
0
0
0
0
0
0
0
0
0
0
0
0
0
0
0
0
0
0
0
0
0
0
0
0
0
0
0
0
0
0
0
0
0
0
0
0
0
0
0
0
0
0
0
0
0
0
0
0
0
0
0
0
0
0
0
0
0
0
0
0
0
0
0
0
0
0
0
0
0
0
0
0
0
0
0
0
0
0
0
0
0
0
0
0
0
0
0
0
0
0
0
0
0
0
0
0
0
0
0
0
0
0
0
0
0
0
0
0
0
0
0
0
0
0
0
0
0
0
0
0
0
0
0
0
0
0
0
0
0
0
0
0
0
0
0
0
0
0
0
0
0
0
0
0
0
0
0
0
0
0
0
0
0
0
0
0
0
0
0
0
0
0
0
0
0
0
0
0
0
0
0
0
0
0
0
0
0
0
0
0
0
0
0
0
0
0
0
0
0
0
0
0
0
0
0
0
0
0
0
0
0
0
0
0
0
0
0
0
0
0
0
0
0
0
0
0
0
0
0
0
0
0
0
0
0
0
0
0
0
0
0
0
0
0
0
0
0
0
0
0
0
0
0
0
0
0
0
0
0
0
0
0
0
0
0
0
0
0
0
0
0
0
0
0
0
0
0
0
0
0
0
0
0
0
0
0
0
0
0
0
0
0
0
0
0
0
0
0
0
0
0
0
0
0
0
0
0
0
0
0
0
0
0
0
0
0
0
0
0
0
0
-0.0542712
0.0542712
0.00396224
0.00099848
0.000492411
0.000302848
0.000207472
0.000151844
0.000116403
9.24465e-05
7.55335e-05
6.3173e-05
5.38727e-05
4.66944e-05
4.10266e-05
3.64596e-05
3.27122e-05
2.95873e-05
2.69444e-05
2.46812e-05
2.27223e-05
2.1011e-05
1.9504e-05
1.81672e-05
1.69741e-05
1.59033e-05
1.49381e-05
1.40643e-05
1.32701e-05
1.25453e-05
1.18814e-05
1.12718e-05
1.07109e-05
1.01938e-05
9.71551e-06
9.27122e-06
8.85716e-06
8.47087e-06
8.1107e-06
7.77479e-06
7.46043e-06
7.16432e-06
6.88374e-06
6.61738e-06
6.36525e-06
6.12747e-06
5.90294e-06
5.68902e-06
5.48241e-06
5.2807e-06
5.08316e-06
4.89025e-06
4.70199e-06
4.51658e-06
4.33023e-06
4.1387e-06
3.93958e-06
3.73396e-06
3.52636e-06
3.32284e-06
3.12835e-06
2.94481e-06
2.7709e-06
2.60364e-06
2.4407e-06
2.2822e-06
2.13095e-06
1.99104e-06
1.86569e-06
1.75536e-06
1.65719e-06
1.56596e-06
1.47606e-06
1.38367e-06
1.28807e-06
1.19173e-06
1.09921e-06
1.01535e-06
9.43521e-07
8.8455e-07
8.36524e-07
7.95501e-07
7.5671e-07
7.15836e-07
6.69995e-07
6.18207e-07
5.61327e-07
5.01573e-07
4.41844e-07
3.85047e-07
3.33562e-07
2.88948e-07
2.51869e-07
2.22203e-07
1.99257e-07
1.8201e-07
1.69331e-07
1.60144e-07
1.53522e-07
1.48728e-07
1.45214e-07
1.42586e-07
1.40579e-07
1.39012e-07
1.37763e-07
1.36745e-07
1.35897e-07
1.35171e-07
1.34531e-07
1.33947e-07
1.33398e-07
1.3287e-07
1.3235e-07
1.31832e-07
1.31314e-07
1.30793e-07
1.3027e-07
1.29744e-07
1.29216e-07
1.28688e-07
1.28159e-07
1.2763e-07
1.27102e-07
1.26574e-07
1.26046e-07
1.25519e-07
1.24992e-07
1.24465e-07
1.23938e-07
1.23411e-07
1.22884e-07
1.22356e-07
1.21829e-07
1.21301e-07
1.20774e-07
1.20246e-07
1.19718e-07
1.19189e-07
1.18661e-07
1.18132e-07
1.17604e-07
1.17075e-07
1.16546e-07
1.16016e-07
1.15487e-07
1.14958e-07
1.14428e-07
1.13898e-07
1.13369e-07
1.12839e-07
1.12308e-07
1.11778e-07
1.11248e-07
1.10717e-07
1.10187e-07
1.09656e-07
1.09125e-07
1.08594e-07
1.08063e-07
1.07531e-07
1.07e-07
1.06468e-07
1.05936e-07
1.05404e-07
1.04872e-07
1.0434e-07
1.03807e-07
1.03275e-07
1.02742e-07
1.02209e-07
1.01676e-07
1.01143e-07
1.00609e-07
1.00076e-07
9.9542e-08
9.90081e-08
9.8474e-08
9.79397e-08
9.74053e-08
9.68706e-08
9.63358e-08
9.58009e-08
9.52657e-08
9.47304e-08
9.41949e-08
9.36592e-08
9.31234e-08
9.25874e-08
9.20512e-08
9.15148e-08
9.09783e-08
9.04415e-08
8.99046e-08
8.93675e-08
8.88303e-08
8.82928e-08
8.77552e-08
8.72174e-08
8.66795e-08
8.61413e-08
8.5603e-08
8.50644e-08
8.45258e-08
8.39869e-08
8.34478e-08
8.29086e-08
8.23692e-08
8.18296e-08
8.12899e-08
8.07499e-08
8.02098e-08
7.96695e-08
7.9129e-08
7.85883e-08
7.80475e-08
7.75065e-08
7.69653e-08
7.64239e-08
7.58823e-08
7.53406e-08
7.47987e-08
7.42566e-08
7.37143e-08
7.31719e-08
7.26293e-08
7.20865e-08
7.15435e-08
7.10004e-08
7.0457e-08
6.99135e-08
6.93699e-08
6.8826e-08
6.8282e-08
6.77378e-08
6.71934e-08
6.66488e-08
6.61041e-08
6.55592e-08
6.50141e-08
6.44689e-08
6.39234e-08
6.33778e-08
6.28321e-08
6.22861e-08
6.174e-08
6.11937e-08
6.06472e-08
6.01005e-08
5.95537e-08
5.90067e-08
5.84596e-08
5.79122e-08
5.73647e-08
5.6817e-08
5.62692e-08
5.57211e-08
5.51729e-08
5.46246e-08
5.4076e-08
5.35273e-08
5.29784e-08
5.24294e-08
5.18801e-08
5.13307e-08
5.07811e-08
5.02314e-08
4.96815e-08
4.91314e-08
4.85811e-08
4.80307e-08
4.74801e-08
4.69293e-08
4.63783e-08
4.58272e-08
4.52759e-08
4.47244e-08
4.41728e-08
4.3621e-08
4.3069e-08
4.25168e-08
4.19645e-08
4.1412e-08
4.08593e-08
4.03065e-08
3.97535e-08
3.92003e-08
3.86469e-08
3.80934e-08
3.75397e-08
3.69858e-08
3.64317e-08
3.58775e-08
3.53231e-08
3.47685e-08
3.42138e-08
3.36589e-08
3.31038e-08
3.25485e-08
3.1993e-08
3.14374e-08
3.08816e-08
3.03256e-08
2.97695e-08
2.92132e-08
2.86567e-08
2.81e-08
2.75431e-08
2.69861e-08
2.64289e-08
2.58715e-08
2.53139e-08
2.47562e-08
2.41982e-08
2.36401e-08
2.30819e-08
2.25234e-08
2.19648e-08
2.14059e-08
2.08469e-08
2.02877e-08
1.97284e-08
1.91687e-08
1.86092e-08
1.8049e-08
1.74893e-08
1.69285e-08
1.63687e-08
1.58072e-08
1.52474e-08
1.46851e-08
1.41255e-08
1.35622e-08
1.30029e-08
1.24384e-08
1.18796e-08
1.13138e-08
1.07557e-08
1.01883e-08
9.63108e-09
9.06195e-09
8.50592e-09
7.93464e-09
7.38023e-09
6.80626e-09
6.2541e-09
5.67671e-09
5.12767e-09
4.5458e-09
4.00116e-09
3.41333e-09
2.87477e-09
2.27903e-09
1.74881e-09
1.14257e-09
6.23581e-10
3.61939e-12
-5.00499e-10
-1.13828e-09
-1.62292e-09
-2.28369e-09
-2.7431e-09
-3.43321e-09
-3.86028e-09
-4.58769e-09
-4.97348e-09
-5.74817e-09
-6.08149e-09
-6.91591e-09
-7.18285e-09
-8.09244e-09
-8.27579e-09
-9.27942e-09
-9.3585e-09
-1.04785e-08
-1.04293e-08
-1.16909e-08
-1.14875e-08
-1.29163e-08
-1.25348e-08
-1.41516e-08
-1.35782e-08
-1.53869e-08
-1.4636e-08
-1.65996e-08
-1.57514e-08
-1.77407e-08
-1.70196e-08
-1.87064e-08
-1.86521e-08
-1.92695e-08
-2.11267e-08
-1.88805e-08
-2.55605e-08
-1.59062e-08
-3.46274e-08
-3.25477e-09
-5.415e-08
8.83734e-08
-2.42426e-08
-2.42426e-08
-0.095216
0.095216
0.0129758
0.0038548
0.00193449
0.00119639
0.000821931
0.000602505
0.000462259
0.000367233
0.000300024
0.000250839
0.000213796
0.000185188
0.000162595
0.00014439
0.000129455
0.000117006
0.000106481
9.74729e-05
8.96797e-05
8.28748e-05
7.68845e-05
7.15734e-05
6.68347e-05
6.25838e-05
5.87527e-05
5.52854e-05
5.21345e-05
4.92594e-05
4.66267e-05
4.42097e-05
4.19863e-05
3.99362e-05
3.80397e-05
3.62781e-05
3.46369e-05
3.31061e-05
3.16789e-05
3.03472e-05
2.91e-05
2.79247e-05
2.68109e-05
2.57541e-05
2.47537e-05
2.38093e-05
2.29158e-05
2.20625e-05
2.12371e-05
2.04308e-05
1.9641e-05
1.8869e-05
1.81136e-05
1.7367e-05
1.66146e-05
1.58414e-05
1.50402e-05
1.42173e-05
1.33908e-05
1.25834e-05
1.18129e-05
1.10852e-05
1.03948e-05
9.73088e-06
9.08593e-06
8.4617e-06
7.86925e-06
7.32337e-06
6.83451e-06
6.40241e-06
6.01484e-06
5.6517e-06
5.29269e-06
4.92496e-06
4.54747e-06
4.17066e-06
3.81181e-06
3.48828e-06
3.21126e-06
2.98217e-06
2.79253e-06
2.6269e-06
2.46751e-06
2.29894e-06
2.11153e-06
1.90281e-06
1.67699e-06
1.44302e-06
1.212e-06
9.94666e-07
7.99529e-07
6.31891e-07
4.93685e-07
3.83971e-07
2.99779e-07
2.37032e-07
1.91353e-07
1.58646e-07
1.3543e-07
1.18961e-07
1.07204e-07
9.87209e-08
9.25267e-08
8.79586e-08
8.45654e-08
8.20304e-08
8.01212e-08
7.86609e-08
7.75122e-08
7.65693e-08
7.57528e-08
7.5006e-08
7.42905e-08
7.35833e-08
7.28717e-08
7.21507e-08
7.14197e-08
7.06805e-08
6.99357e-08
6.91881e-08
6.84396e-08
6.76919e-08
6.69456e-08
6.62011e-08
6.54585e-08
6.47174e-08
6.39774e-08
6.32383e-08
6.24996e-08
6.17611e-08
6.10225e-08
6.02837e-08
5.95446e-08
5.88052e-08
5.80654e-08
5.73252e-08
5.65846e-08
5.58437e-08
5.51026e-08
5.43611e-08
5.36195e-08
5.28777e-08
5.21356e-08
5.13934e-08
5.06511e-08
4.99086e-08
4.9166e-08
4.84233e-08
4.76804e-08
4.69374e-08
4.61943e-08
4.54511e-08
4.47078e-08
4.39643e-08
4.32207e-08
4.24769e-08
4.1733e-08
4.09889e-08
4.02447e-08
3.95004e-08
3.87558e-08
3.80111e-08
3.72662e-08
3.65211e-08
3.57759e-08
3.50304e-08
3.42848e-08
3.35389e-08
3.27929e-08
3.20466e-08
3.13002e-08
3.05535e-08
2.98066e-08
2.90596e-08
2.83123e-08
2.75647e-08
2.6817e-08
2.6069e-08
2.53208e-08
2.45724e-08
2.38237e-08
2.30749e-08
2.23257e-08
2.15764e-08
2.08268e-08
2.0077e-08
1.9327e-08
1.85767e-08
1.78262e-08
1.70754e-08
1.63244e-08
1.55732e-08
1.48217e-08
1.407e-08
1.3318e-08
1.25658e-08
1.18134e-08
1.10607e-08
1.03078e-08
9.55457e-09
8.80114e-09
8.04748e-09
7.29354e-09
6.53937e-09
5.78496e-09
5.03028e-09
4.27536e-09
3.52021e-09
2.76478e-09
2.00911e-09
1.25319e-09
4.97035e-10
-2.59388e-10
-1.01606e-09
-1.77298e-09
-2.53014e-09
-3.28757e-09
-4.04523e-09
-4.80317e-09
-5.56134e-09
-6.31976e-09
-7.07844e-09
-7.83737e-09
-8.59656e-09
-9.35599e-09
-1.01157e-08
-1.08756e-08
-1.16358e-08
-1.23963e-08
-1.3157e-08
-1.39179e-08
-1.46791e-08
-1.54406e-08
-1.62023e-08
-1.69642e-08
-1.77264e-08
-1.84889e-08
-1.92516e-08
-2.00146e-08
-2.07778e-08
-2.15413e-08
-2.23051e-08
-2.30691e-08
-2.38333e-08
-2.45978e-08
-2.53625e-08
-2.61276e-08
-2.68928e-08
-2.76583e-08
-2.84241e-08
-2.91901e-08
-2.99564e-08
-3.0723e-08
-3.14898e-08
-3.22568e-08
-3.30241e-08
-3.37917e-08
-3.45595e-08
-3.53275e-08
-3.60959e-08
-3.68645e-08
-3.76333e-08
-3.84024e-08
-3.91718e-08
-3.99414e-08
-4.07112e-08
-4.14814e-08
-4.22517e-08
-4.30224e-08
-4.37933e-08
-4.45644e-08
-4.53358e-08
-4.61075e-08
-4.68794e-08
-4.76516e-08
-4.84241e-08
-4.91968e-08
-4.99698e-08
-5.0743e-08
-5.15165e-08
-5.22902e-08
-5.30643e-08
-5.38386e-08
-5.46131e-08
-5.53879e-08
-5.6163e-08
-5.69383e-08
-5.77139e-08
-5.84898e-08
-5.92659e-08
-6.00423e-08
-6.0819e-08
-6.15959e-08
-6.23731e-08
-6.31506e-08
-6.39283e-08
-6.47064e-08
-6.54846e-08
-6.62632e-08
-6.7042e-08
-6.78211e-08
-6.86005e-08
-6.93802e-08
-7.01601e-08
-7.09403e-08
-7.17208e-08
-7.25015e-08
-7.32826e-08
-7.40639e-08
-7.48455e-08
-7.56274e-08
-7.64096e-08
-7.7192e-08
-7.79747e-08
-7.87577e-08
-7.95411e-08
-8.03246e-08
-8.11086e-08
-8.18926e-08
-8.26773e-08
-8.34617e-08
-8.42473e-08
-8.50319e-08
-8.58185e-08
-8.66031e-08
-8.73912e-08
-8.81753e-08
-8.89652e-08
-8.97485e-08
-9.05407e-08
-9.13226e-08
-9.21177e-08
-9.28976e-08
-9.36963e-08
-9.44735e-08
-9.52764e-08
-9.60504e-08
-9.68582e-08
-9.7628e-08
-9.84418e-08
-9.92063e-08
-1.00027e-07
-1.00785e-07
-1.01615e-07
-1.02364e-07
-1.03206e-07
-1.03942e-07
-1.048e-07
-1.05519e-07
-1.06399e-07
-1.07094e-07
-1.08002e-07
-1.08666e-07
-1.09613e-07
-1.10234e-07
-1.11231e-07
-1.11795e-07
-1.12858e-07
-1.13349e-07
-1.14497e-07
-1.14893e-07
-1.16149e-07
-1.16424e-07
-1.17819e-07
-1.17938e-07
-1.19509e-07
-1.19432e-07
-1.21225e-07
-1.20899e-07
-1.22972e-07
-1.22333e-07
-1.24756e-07
-1.23727e-07
-1.26584e-07
-1.25074e-07
-1.2846e-07
-1.26373e-07
-1.30384e-07
-1.27629e-07
-1.32343e-07
-1.28867e-07
-1.34303e-07
-1.30156e-07
-1.36179e-07
-1.31655e-07
-1.37794e-07
-1.33717e-07
-1.38766e-07
-1.37128e-07
-1.38265e-07
-1.43659e-07
-1.34287e-07
-1.5744e-07
-1.20854e-07
-1.88257e-07
-7.19202e-08
-2.56227e-07
2.6322e-07
-1.44832e-07
-1.44832e-07
-0.125293
0.125293
0.0249361
0.00835823
0.00427821
0.00266174
0.00183396
0.00134658
0.00103411
0.000821931
0.000671616
0.00056148
0.000478463
0.000414317
0.000363644
0.00032281
0.000289314
0.0002614
0.000237808
0.000217622
0.000200166
0.000184929
0.00017152
0.000159635
0.000149034
0.000139527
0.00013096
0.000123209
0.000116166
0.00010974
0.000103857
9.84568e-05
9.34897e-05
8.89097e-05
8.46724e-05
8.07368e-05
7.70706e-05
7.3652e-05
7.04645e-05
6.74894e-05
6.47017e-05
6.20738e-05
5.95839e-05
5.72216e-05
5.49856e-05
5.28731e-05
5.08715e-05
4.89572e-05
4.71036e-05
4.52924e-05
4.35182e-05
4.17824e-05
4.0081e-05
3.83955e-05
3.66946e-05
3.49477e-05
3.31425e-05
3.12952e-05
2.94466e-05
2.76453e-05
2.59276e-05
2.43045e-05
2.27635e-05
2.12823e-05
1.98469e-05
1.84626e-05
1.71537e-05
1.59505e-05
1.48727e-05
1.39169e-05
1.30546e-05
1.22424e-05
1.14382e-05
1.0617e-05
9.77885e-06
8.94766e-06
8.16033e-06
7.4525e-06
6.84576e-06
6.34065e-06
5.91719e-06
5.54163e-06
5.1764e-06
4.7899e-06
4.36333e-06
3.89326e-06
3.39018e-06
2.87406e-06
2.36881e-06
1.89701e-06
1.47613e-06
1.11661e-06
8.21698e-07
5.8863e-07
4.10504e-07
2.78249e-07
1.82316e-07
1.13877e-07
6.54966e-08
3.13492e-08
7.13413e-09
-1.01799e-08
-2.26629e-08
-3.17109e-08
-3.82757e-08
-4.3028e-08
-4.64606e-08
-4.89494e-08
-5.07857e-08
-5.21935e-08
-5.33399e-08
-5.43438e-08
-5.52846e-08
-5.62102e-08
-5.71461e-08
-5.81022e-08
-5.90792e-08
-6.0073e-08
-6.10779e-08
-6.20884e-08
-6.30999e-08
-6.41095e-08
-6.51156e-08
-6.61175e-08
-6.71153e-08
-6.81097e-08
-6.91014e-08
-7.00913e-08
-7.10801e-08
-7.20685e-08
-7.30569e-08
-7.40455e-08
-7.50347e-08
-7.60244e-08
-7.70149e-08
-7.80059e-08
-7.89976e-08
-7.99897e-08
-8.09823e-08
-8.19753e-08
-8.29686e-08
-8.39622e-08
-8.49559e-08
-8.59498e-08
-8.69439e-08
-8.7938e-08
-8.89323e-08
-8.99266e-08
-9.0921e-08
-9.19155e-08
-9.291e-08
-9.39046e-08
-9.48993e-08
-9.58941e-08
-9.6889e-08
-9.7884e-08
-9.88792e-08
-9.98744e-08
-1.0087e-07
-1.01865e-07
-1.02861e-07
-1.03857e-07
-1.04853e-07
-1.05849e-07
-1.06846e-07
-1.07842e-07
-1.08839e-07
-1.09836e-07
-1.10834e-07
-1.11831e-07
-1.12829e-07
-1.13827e-07
-1.14826e-07
-1.15824e-07
-1.16823e-07
-1.17822e-07
-1.18822e-07
-1.19821e-07
-1.20821e-07
-1.21822e-07
-1.22822e-07
-1.23823e-07
-1.24824e-07
-1.25825e-07
-1.26827e-07
-1.27829e-07
-1.28831e-07
-1.29834e-07
-1.30837e-07
-1.3184e-07
-1.32843e-07
-1.33847e-07
-1.34851e-07
-1.35856e-07
-1.36861e-07
-1.37866e-07
-1.38871e-07
-1.39877e-07
-1.40883e-07
-1.41889e-07
-1.42896e-07
-1.43903e-07
-1.4491e-07
-1.45918e-07
-1.46926e-07
-1.47934e-07
-1.48943e-07
-1.49952e-07
-1.50961e-07
-1.51971e-07
-1.5298e-07
-1.53991e-07
-1.55001e-07
-1.56012e-07
-1.57024e-07
-1.58035e-07
-1.59047e-07
-1.6006e-07
-1.61072e-07
-1.62085e-07
-1.63099e-07
-1.64112e-07
-1.65126e-07
-1.66141e-07
-1.67156e-07
-1.68171e-07
-1.69186e-07
-1.70202e-07
-1.71218e-07
-1.72234e-07
-1.73251e-07
-1.74268e-07
-1.75286e-07
-1.76304e-07
-1.77322e-07
-1.7834e-07
-1.79359e-07
-1.80378e-07
-1.81398e-07
-1.82418e-07
-1.83438e-07
-1.84459e-07
-1.8548e-07
-1.86501e-07
-1.87523e-07
-1.88545e-07
-1.89568e-07
-1.9059e-07
-1.91614e-07
-1.92637e-07
-1.93661e-07
-1.94685e-07
-1.9571e-07
-1.96735e-07
-1.9776e-07
-1.98786e-07
-1.99812e-07
-2.00838e-07
-2.01865e-07
-2.02892e-07
-2.03919e-07
-2.04947e-07
-2.05975e-07
-2.07004e-07
-2.08033e-07
-2.09062e-07
-2.10092e-07
-2.11122e-07
-2.12153e-07
-2.13183e-07
-2.14214e-07
-2.15246e-07
-2.16278e-07
-2.1731e-07
-2.18343e-07
-2.19376e-07
-2.20409e-07
-2.21443e-07
-2.22477e-07
-2.23512e-07
-2.24547e-07
-2.25582e-07
-2.26618e-07
-2.27654e-07
-2.2869e-07
-2.29727e-07
-2.30764e-07
-2.31802e-07
-2.3284e-07
-2.33878e-07
-2.34917e-07
-2.35956e-07
-2.36996e-07
-2.38036e-07
-2.39076e-07
-2.40117e-07
-2.41158e-07
-2.42199e-07
-2.43241e-07
-2.44284e-07
-2.45326e-07
-2.46369e-07
-2.47413e-07
-2.48457e-07
-2.49501e-07
-2.50546e-07
-2.51591e-07
-2.52637e-07
-2.53683e-07
-2.5473e-07
-2.55776e-07
-2.56824e-07
-2.57871e-07
-2.5892e-07
-2.59968e-07
-2.61017e-07
-2.62067e-07
-2.63117e-07
-2.64167e-07
-2.65218e-07
-2.66268e-07
-2.67321e-07
-2.68372e-07
-2.69426e-07
-2.70477e-07
-2.71534e-07
-2.72583e-07
-2.73644e-07
-2.7469e-07
-2.75756e-07
-2.76799e-07
-2.77871e-07
-2.78909e-07
-2.79988e-07
-2.8102e-07
-2.82108e-07
-2.83133e-07
-2.8423e-07
-2.85246e-07
-2.86356e-07
-2.8736e-07
-2.88485e-07
-2.89475e-07
-2.90619e-07
-2.91589e-07
-2.92758e-07
-2.937e-07
-2.94903e-07
-2.95809e-07
-2.97057e-07
-2.97913e-07
-2.99222e-07
-3.00008e-07
-3.01399e-07
-3.02094e-07
-3.03593e-07
-3.04167e-07
-3.05805e-07
-3.06222e-07
-3.08042e-07
-3.08255e-07
-3.10307e-07
-3.1026e-07
-3.12608e-07
-3.12229e-07
-3.14952e-07
-3.14152e-07
-3.1735e-07
-3.16018e-07
-3.19814e-07
-3.17812e-07
-3.22358e-07
-3.1952e-07
-3.24994e-07
-3.21128e-07
-3.27732e-07
-3.2263e-07
-3.30572e-07
-3.24037e-07
-3.33489e-07
-3.25405e-07
-3.36409e-07
-3.26877e-07
-3.39155e-07
-3.28791e-07
-3.41352e-07
-3.31898e-07
-3.42199e-07
-3.37865e-07
-3.39955e-07
-3.50457e-07
-3.30409e-07
-3.78422e-07
-3.01014e-07
-4.42342e-07
-1.96972e-07
-5.82835e-07
5.0063e-07
-3.4796e-07
-3.4796e-07
-0.146488
0.146488
0.0383107
0.0142343
0.00745626
0.00467299
0.00323079
0.00237678
0.00182733
0.00145332
0.00118788
0.000993145
0.000846223
0.000732629
0.000642863
0.000570519
0.000511179
0.000461733
0.000419955
0.00038422
0.000353325
0.000326366
0.000302649
0.000281633
0.000262892
0.000246088
0.000230951
0.000217255
0.000204813
0.000193463
0.000183073
0.000173537
0.000164767
0.000156679
0.000149197
0.000142248
0.000135775
0.000129741
0.000124114
0.00011886
0.000113936
0.000109292
0.000104893
0.000100721
9.67702e-05
9.30357e-05
8.94929e-05
8.61003e-05
8.28129e-05
7.96002e-05
7.64526e-05
7.33708e-05
7.03455e-05
6.7343e-05
6.43099e-05
6.11972e-05
5.79886e-05
5.47157e-05
5.14502e-05
4.82743e-05
4.52474e-05
4.2386e-05
3.96684e-05
3.70581e-05
3.45339e-05
3.21073e-05
2.98198e-05
2.77207e-05
2.58392e-05
2.41653e-05
2.26479e-05
2.12129e-05
1.97912e-05
1.83435e-05
1.68736e-05
1.54237e-05
1.40561e-05
1.28288e-05
1.17747e-05
1.08914e-05
1.01424e-05
9.46973e-06
8.81047e-06
8.11327e-06
7.34904e-06
6.51471e-06
5.63011e-06
4.73026e-06
3.85584e-06
3.04451e-06
2.32473e-06
1.71279e-06
1.21291e-06
8.1928e-07
5.19391e-07
2.97331e-07
1.36633e-07
2.2227e-08
-5.84898e-08
-1.15338e-07
-1.55541e-07
-1.84176e-07
-2.04705e-07
-2.19467e-07
-2.30058e-07
-2.37607e-07
-2.42943e-07
-2.46702e-07
-2.49374e-07
-2.51335e-07
-2.52866e-07
-2.54164e-07
-2.55361e-07
-2.56535e-07
-2.57728e-07
-2.58956e-07
-2.60218e-07
-2.61507e-07
-2.62815e-07
-2.64131e-07
-2.65448e-07
-2.66761e-07
-2.68067e-07
-2.69366e-07
-2.70658e-07
-2.71945e-07
-2.73226e-07
-2.74504e-07
-2.75781e-07
-2.77056e-07
-2.78332e-07
-2.79608e-07
-2.80884e-07
-2.82162e-07
-2.83441e-07
-2.8472e-07
-2.86e-07
-2.87282e-07
-2.88563e-07
-2.89846e-07
-2.91128e-07
-2.92411e-07
-2.93694e-07
-2.94977e-07
-2.96261e-07
-2.97544e-07
-2.98828e-07
-3.00111e-07
-3.01394e-07
-3.02678e-07
-3.03961e-07
-3.05244e-07
-3.06528e-07
-3.07811e-07
-3.09094e-07
-3.10378e-07
-3.11661e-07
-3.12945e-07
-3.14229e-07
-3.15512e-07
-3.16796e-07
-3.1808e-07
-3.19365e-07
-3.20649e-07
-3.21934e-07
-3.23219e-07
-3.24504e-07
-3.25789e-07
-3.27075e-07
-3.2836e-07
-3.29647e-07
-3.30933e-07
-3.3222e-07
-3.33507e-07
-3.34794e-07
-3.36082e-07
-3.3737e-07
-3.38658e-07
-3.39946e-07
-3.41235e-07
-3.42525e-07
-3.43814e-07
-3.45104e-07
-3.46395e-07
-3.47685e-07
-3.48976e-07
-3.50268e-07
-3.5156e-07
-3.52852e-07
-3.54144e-07
-3.55437e-07
-3.56731e-07
-3.58024e-07
-3.59318e-07
-3.60613e-07
-3.61908e-07
-3.63203e-07
-3.64499e-07
-3.65795e-07
-3.67092e-07
-3.68389e-07
-3.69686e-07
-3.70984e-07
-3.72282e-07
-3.7358e-07
-3.74879e-07
-3.76179e-07
-3.77479e-07
-3.78779e-07
-3.8008e-07
-3.81381e-07
-3.82683e-07
-3.83985e-07
-3.85287e-07
-3.8659e-07
-3.87893e-07
-3.89197e-07
-3.90501e-07
-3.91806e-07
-3.93111e-07
-3.94417e-07
-3.95723e-07
-3.97029e-07
-3.98336e-07
-3.99644e-07
-4.00951e-07
-4.0226e-07
-4.03568e-07
-4.04878e-07
-4.06187e-07
-4.07497e-07
-4.08808e-07
-4.10119e-07
-4.1143e-07
-4.12742e-07
-4.14055e-07
-4.15368e-07
-4.16681e-07
-4.17995e-07
-4.19309e-07
-4.20624e-07
-4.21939e-07
-4.23255e-07
-4.24571e-07
-4.25888e-07
-4.27205e-07
-4.28522e-07
-4.29841e-07
-4.31159e-07
-4.32478e-07
-4.33798e-07
-4.35118e-07
-4.36438e-07
-4.37759e-07
-4.39081e-07
-4.40403e-07
-4.41725e-07
-4.43048e-07
-4.44372e-07
-4.45696e-07
-4.4702e-07
-4.48345e-07
-4.49671e-07
-4.50997e-07
-4.52323e-07
-4.5365e-07
-4.54978e-07
-4.56306e-07
-4.57634e-07
-4.58963e-07
-4.60293e-07
-4.61623e-07
-4.62953e-07
-4.64284e-07
-4.65616e-07
-4.66948e-07
-4.68281e-07
-4.69614e-07
-4.70947e-07
-4.72281e-07
-4.73616e-07
-4.74951e-07
-4.76287e-07
-4.77623e-07
-4.7896e-07
-4.80297e-07
-4.81635e-07
-4.82974e-07
-4.84313e-07
-4.85652e-07
-4.86992e-07
-4.88333e-07
-4.89674e-07
-4.91015e-07
-4.92358e-07
-4.937e-07
-4.95044e-07
-4.96388e-07
-4.97732e-07
-4.99077e-07
-5.00423e-07
-5.01769e-07
-5.03116e-07
-5.04463e-07
-5.05811e-07
-5.07159e-07
-5.08508e-07
-5.09858e-07
-5.11208e-07
-5.12559e-07
-5.1391e-07
-5.15262e-07
-5.16615e-07
-5.17968e-07
-5.19322e-07
-5.20677e-07
-5.22032e-07
-5.23388e-07
-5.24743e-07
-5.26101e-07
-5.27458e-07
-5.28818e-07
-5.30174e-07
-5.31537e-07
-5.32892e-07
-5.3426e-07
-5.35613e-07
-5.36986e-07
-5.38335e-07
-5.39716e-07
-5.41058e-07
-5.42449e-07
-5.43784e-07
-5.45187e-07
-5.46511e-07
-5.47928e-07
-5.49239e-07
-5.50674e-07
-5.51969e-07
-5.53424e-07
-5.547e-07
-5.5618e-07
-5.5743e-07
-5.58943e-07
-5.60159e-07
-5.61714e-07
-5.62884e-07