# vtk DataFile Version 2.0
FlowField
ASCII
DATASET STRUCTURED_GRID
DIMENSIONS 800 1 200
POINTS 160000 float
0 0 0
0.04 0 0
0.08 0 0
0.12 0 0
0.16 0 0
0.2 0 0
0.24 0 0
0.28 0 0
0.32 0 0
0.36 0 0
0.4 0 0
0.44 0 0
0.48 0 0
0.52 0 0
0.56 0 0
0.6 0 0
0.64 0 0
0.68 0 0
0.72 0 0
0.76 0 0
0.8 0 0
0.84 0 0
0.88 0 0
0.92 0 0
0.96 0 0
1 0 0
1.04 0 0
1.08 0 0
1.12 0 0
1.16 0 0
1.2 0 0
1.24 0 0
1.28 0 0
1.32 0 0
1.36 0 0
1.4 0 0
1.44 0 0
1.48 0 0
1.52 0 0
1.56 0 0
1.6 0 0
1.64 0 0
1.68 0 0
1.72 0 0
1.76 0 0
1.8 0 0
1.84 0 0
1.88 0 0
1.92 0 0
1.96 0 0
2 0 0
2.04 0 0
2.08 0 0
2.12 0 0
2.16 0 0
2.2 0 0
2.24 0 0
2.28 0 0
2.32 0 0
2.36 0 0
2.4 0 0
2.44 0 0
2.48 0 0
2.52 0 0
2.56 0 0
2.6 0 0
2.64 0 0
2.68 0 0
2.72 0 0
2.76 0 0
2.8 0 0
2.84 0 0
2.88 0 0
2.92 0 0
2.96 0 0
3 0 0
3.04 0 0
3.08 0 0
3.12 0 0
3.16 0 0
3.2 0 0
3.24 0 0
3.28 0 0
3.32 0 0
3.36 0 0
3.4 0 0
3.44 0 0
3.48 0 0
3.52 0 0
3.56 0 0
3.6 0 0
3.64 0 0
3.68 0 0
3.72 0 0
3.76 0 0
3.8 0 0
3.84 0 0
3.88 0 0
3.92 0 0
3.96 0 0
4 0 0
4.04 0 0
4.08 0 0
4.12 0 0
4.16 0 0
4.2 0 0
4.24 0 0
4.28 0 0
4.32 0 0
4.36 0 0
4.4 0 0
4.44 0 0
4.48 0 0
4.52 0 0
4.56 0 0
4.6 0 0
4.64 0 0
4.68 0 0
4.72 0 0
4.76 0 0
4.8 0 0
4.84 0 0
4.88 0 0
4.92 0 0
4.96 0 0
5 0 0
5.04 0 0
5.08 0 0
5.12 0 0
5.16 0 0
5.2 0 0
5.24 0 0
5.28 0 0
5.32 0 0
5.36 0 0
5.4 0 0
5.44 0 0
5.48 0 0
5.52 0 0
5.56 0 0
5.6 0 0
5.64 0 0
5.68 0 0
5.72 0 0
5.76 0 0
5.8 0 0
5.84 0 0
5.88 0 0
5.92 0 0
5.96 0 0
6 0 0
6.04 0 0
6.08 0 0
6.12 0 0
6.16 0 0
6.2 0 0
6.24 0 0
6.28 0 0
6.32 0 0
6.36 0 0
6.4 0 0
6.44 0 0
6.48 0 0
6.52 0 0
6.56 0 0
6.6 0 0
6.64 0 0
6.68 0 0
6.72 0 0
6.76 0 0
6.8 0 0
6.84 0 0
6.88 0 0
6.92 0 0
6.96 0 0
7 0 0
7.04 0 0
7.08 0 0
7.12 0 0
7.16 0 0
7.2 0 0
7.24 0 0
7.28 0 0
7.32 0 0
7.36 0 0
7.4 0 0
7.44 0 0
7.48 0 0
7.52 0 0
7.56 0 0
7.6 0 0
7.64 0 0
7.68 0 0
7.72 0 0
7.76 0 0
7.8 0 0
7.84 0 0
7.88 0 0
7.92 0 0
7.96 0 0
8 0 0
8.04 0 0
8.08 0 0
8.12 0 0
8.16 0 0
8.2 0 0
8.24 0 0
8.28 0 0
8.32 0 0
8.36 0 0
8.4 0 0
8.44 0 0
8.48 0 0
8.52 0 0
8.56 0 0
8.6 0 0
8.64 0 0
8.68 0 0
8.72 0 0
8.76 0 0
8.8 0 0
8.84 0 0
8.88 0 0
8.92 0 0
8.96 0 0
9 0 0
9.04 0 0
9.08 0 0
9.12 0 0
9.16 0 0
9.2 0 0
9.24 0 0
9.28 0 0
9.32 0 0
9.36 0 0
9.4 0 0
9.44 0 0
9.48 0 0
9.52 0 0
9.56 0 0
9.6 0 0
9.64 0 0
9.68 0 0
9.72 0 0
9.76 0 0
9.8 0 0
9.84 0 0
9.88 0 0
9.92 0 0
9.96 0 0
10 0 0
10.04 0 0
10.08 0 0
10.12 0 0
10.16 0 0
10.2 0 0
10.24 0 0
10.28 0 0
10.32 0 0
10.36 0 0
10.4 0 0
10.44 0 0
10.48 0 0
10.52 0 0
10.56 0 0
10.6 0 0
10.64 0 0
10.68 0 0
10.72 0 0
10.76 0 0
10.8 0 0
10.84 0 0
10.88 0 0
10.92 0 0
10.96 0 0
11 0 0
11.04 0 0
11.08 0 0
11.12 0 0
11.16 0 0
11.2 0 0
11.24 0 0
11.28 0 0
11.32 0 0
11.36 0 0
11.4 0 0
11.44 0 0
11.48 0 0
11.52 0 0
11.56 0 0
11.6 0 0
11.64 0 0
11.68 0 0
11.72 0 0
11.76 0 0
11.8 0 0
11.84 0 0
11.88 0 0
11.92 0 0
11.96 0 0
12 0 0
12.04 0 0
12.08 0 0
12.12 0 0
12.16 0 0
12.2 0 0
12.24 0 0
12.28 0 0
12.32 0 0
12.36 0 0
12.4 0 0
12.44 0 0
12.48 0 0
12.52 0 0
12.56 0 0
12.6 0 0
12.64 0 0
12.68 0 0
12.72 0 0
12.76 0 0
12.8 0 0
12.84 0 0
12.88 0 0
12.92 0 0
12.96 0 0
13 0 0
13.04 0 0
13.08 0 0
13.12 0 0
13.16 0 0
13.2 0 0
13.24 0 0
13.28 0 0
13.32 0 0
13.36 0 0
13.4 0 0
13.44 0 0
13.48 0 0
13.52 0 0
13.56 0 0
13.6 0 0
13.64 0 0
13.68 0 0
13.72 0 0
13.76 0 0
13.8 0 0
13.84 0 0
13.88 0 0
13.92 0 0
13.96 0 0
14 0 0
14.04 0 0
14.08 0 0
14.12 0 0
14.16 0 0
14.2 0 0
14.24 0 0
14.28 0 0
14.32 0 0
14.36 0 0
14.4 0 0
14.44 0 0
14.48 0 0
14.52 0 0
14.56 0 0
14.6 0 0
14.64 0 0
14.68 0 0
14.72 0 0
14.76 0 0
14.8 0 0
14.84 0 0
14.88 0 0
14.92 0 0
14.96 0 0
15 0 0
15.04 0 0
15.08 0 0
15.12 0 0
15.16 0 0
15.2 0 0
15.24 0 0
15.28 0 0
15.32 0 0
15.36 0 0
15.4 0 0
15.44 0 0
15.48 0 0
15.52 0 0
15.56 0 0
15.6 0 0
15.64 0 0
15.68 0 0
15.72 0 0
15.76 0 0
15.8 0 0
15.84 0 0
15.88 0 0
15.92 0 0
15.96 0 0
16 0 0
16.04 0 0
16.08 0 0
16.12 0 0
16.16 0 0
16.2 0 0
16.24 0 0
16.28 0 0
16.32 0 0
16.36 0 0
16.4 0 0
16.44 0 0
16.48 0 0
16.52 0 0
16.56 0 0
16.6 0 0
16.64 0 0
16.68 0 0
16.72 0 0
16.76 0 0
16.8 0 0
16.84 0 0
16.88 0 0
16.92 0 0
16.96 0 0
17 0 0
17.04 0 0
17.08 0 0
17.12 0 0
17.16 0 0
17.2 0 0
17.24 0 0
17.28 0 0
17.32 0 0
17.36 0 0
17.4 0 0
17.44 0 0
17.48 0 0
17.52 0 0
17.56 0 0
17.6 0 0
17.64 0 0
17.68 0 0
17.72 0 0
17.76 0 0
17.8 0 0
17.84 0 0
17.88 0 0
17.92 0 0
17.96 0 0
18 0 0
18.04 0 0
18.08 0 0
18.12 0 0
18.16 0 0
18.2 0 0
18.24 0 0
18.28 0 0
18.32 0 0
18.36 0 0
18.4 0 0
18.44 0 0
18.48 0 0
18.52 0 0
18.56 0 0
18.6 0 0
18.64 0 0
18.68 0 0
18.72 0 0
18.76 0 0
18.8 0 0
18.84 0 0
18.88 0 0
18.92 0 0
18.96 0 0
19 0 0
19.04 0 0
19.08 0 0
19.12 0 0
19.16 0 0
19.2 0 0
19.24 0 0
19.28 0 0
19.32 0 0
19.36 0 0
19.4 0 0
19.44 0 0
19.48 0 0
19.52 0 0
19.56 0 0
19.6 0 0
19.64 0 0
19.68 0 0
19.72 0 0
19.76 0 0
19.8 0 0
19.84 0 0
19.88 0 0
19.92 0 0
19.96 0 0
20 0 0
20.04 0 0
20.08 0 0
20.12 0 0
20.16 0 0
20.2 0 0
20.24 0 0
20.28 0 0
20.32 0 0
20.36 0 0
20.4 0 0
20.44 0 0
20.48 0 0
20.52 0 0
20.56 0 0
20.6 0 0
20.64 0 0
20.68 0 0
20.72 0 0
20.76 0 0
20.8 0 0
20.84 0 0
20.88 0 0
20.92 0 0
20.96 0 0
21 0 0
21.04 0 0
21.08 0 0
21.12 0 0
21.16 0 0
21.2 0 0
21.24 0 0
21.28 0 0
21.32 0 0
21.36 0 0
21.4 0 0
21.44 0 0
21.48 0 0
21.52 0 0
21.56 0 0
21.6 0 0
21.64 0 0
21.68 0 0
21.72 0 0
21.76 0 0
21.8 0 0
21.84 0 0
21.88 0 0
21.92 0 0
21.96 0 0
22 0 0
22.04 0 0
22.08 0 0
22.12 0 0
22.16 0 0
22.2 0 0
22.24 0 0
22.28 0 0
22.32 0 0
22.36 0 0
22.4 0 0
22.44 0 0
22.48 0 0
22.52 0 0
22.56 0 0
22.6 0 0
22.64 0 0
22.68 0 0
22.72 0 0
22.76 0 0
22.8 0 0
22.84 0 0
22.88 0 0
22.92 0 0
22.96 0 0
23 0 0
23.04 0 0
23.08 0 0
23.12 0 0
23.16 0 0
23.2 0 0
23.24 0 0
23.28 0 0
23.32 0 0
23.36 0 0
23.4 0 0
23.44 0 0
23.48 0 0
23.52 0 0
23.56 0 0
23.6 0 0
23.64 0 0
23.68 0 0
23.72 0 0
23.76 0 0
23.8 0 0
23.84 0 0
23.88 0 0
23.92 0 0
23.96 0 0
24 0 0
24.04 0 0
24.08 0 0
24.12 0 0
24.16 0 0
24.2 0 0
24.24 0 0
24.28 0 0
24.32 0 0
24.36 0 0
24.4 0 0
24.44 0 0
24.48 0 0
24.52 0 0
24.56 0 0
24.6 0 0
24.64 0 0
24.68 0 0
24.72 0 0
24.76 0 0
24.8 0 0
24.84 0 0
24.88 0 0
24.92 0 0
24.96 0 0
25 0 0
25.04 0 0
25.08 0 0
25.12 0 0
25.16 0 0
25.2 0 0
25.24 0 0
25.28 0 0
25.32 0 0
25.36 0 0
25.4 0 0
25.44 0 0
25.48 0 0
25.52 0 0
25.56 0 0
25.6 0 0
25.64 0 0
25.68 0 0
25.72 0 0
25.76 0 0
25.8 0 0
25.84 0 0
25.88 0 0
25.92 0 0
25.96 0 0
26 0 0
26.04 0 0
26.08 0 0
26.12 0 0
26.16 0 0
26.2 0 0
26.24 0 0
26.28 0 0
26.32 0 0
26.36 0 0
26.4 0 0
26.44 0 0
26.48 0 0
26.52 0 0
26.56 0 0
26.6 0 0
26.64 0 0
26.68 0 0
26.72 0 0
26.76 0 0
26.8 0 0
26.84 0 0
26.88 0 0
26.92 0 0
26.96 0 0
27 0 0
27.04 0 0
27.08 0 0
27.12 0 0
27.16 0 0
27.2 0 0
27.24 0 0
27.28 0 0
27.32 0 0
27.36 0 0
27.4 0 0
27.44 0 0
27.48 0 0
27.52 0 0
27.56 0 0
27.6 0 0
27.64 0 0
27.68 0 0
27.72 0 0
27.76 0 0
27.8 0 0
27.84 0 0
27.88 0 0
27.92 0 0
27.96 0 0
28 0 0
28.04 0 0
28.08 0 0
28.12 0 0
28.16 0 0
28.2 0 0
28.24 0 0
28.28 0 0
28.32 0 0
28.36 0 0
28.4 0 0
28.44 0 0
28.48 0 0
28.52 0 0
28.56 0 0
28.6 0 0
28.64 0 0
28.68 0 0
28.72 0 0
28.76 0 0
28.8 0 0
28.84 0 0
28.88 0 0
28.92 0 0
28.96 0 0
29 0 0
29.04 0 0
29.08 0 0
29.12 0 0
29.16 0 0
29.2 0 0
29.24 0 0
29.28 0 0
29.32 0 0
29.36 0 0
29.4 0 0
29.44 0 0
29.48 0 0
29.52 0 0
29.56 0 0
29.6 0 0
29.64 0 0
29.68 0 0
29.72 0 0
29.76 0 0
29.8 0 0
29.84 0 0
29.88 0 0
29.92 0 0
29.96 0 0
30 0 0
30.04 0 0
30.08 0 0
30.12 0 0
30.16 0 0
30.2 0 0
30.24 0 0
30.28 0 0
30.32 0 0
30.36 0 0
30.4 0 0
30.44 0 0
30.48 0 0
30.52 0 0
30.56 0 0
30.6 0 0
30.64 0 0
30.68 0 0
30.72 0 0
30.76 0 0
30.8 0 0
30.84 0 0
30.88 0 0
30.92 0 0
30.96 0 0
31 0 0
31.04 0 0
31.08 0 0
31.12 0 0
31.16 0 0
31.2 0 0
31.24 0 0
31.28 0 0
31.32 0 0
31.36 0 0
31.4 0 0
31.44 0 0
31.48 0 0
31.52 0 0
31.56 0 0
31.6 0 0
31.64 0 0
31.68 0 0
31.72 0 0
31.76 0 0
31.8 0 0
31.84 0 0
31.88 0 0
31.92 0 0
31.96 0 0
0 0.005 0
0.04 0.005 0
0.08 0.005 0
0.12 0.005 0
0.16 0.005 0
0.2 0.005 0
0.24 0.005 0
0.28 0.005 0
0.32 0.005 0
0.36 0.005 0
0.4 0.005 0
0.44 0.005 0
0.48 0.005 0
0.52 0.005 0
0.56 0.005 0
0.6 0.005 0
0.64 0.005 0
0.68 0.005 0
0.72 0.005 0
0.76 0.005 0
0.8 0.005 0
0.84 0.005 0
0.88 0.005 0
0.92 0.005 0
0.96 0.005 0
1 0.005 0
1.04 0.005 0
1.08 0.005 0
1.12 0.005 0
1.16 0.005 0
1.2 0.005 0
1.24 0.005 0
1.28 0.005 0
1.32 0.005 0
1.36 0.005 0
1.4 0.005 0
1.44 0.005 0
1.48 0.005 0
1.52 0.005 0
1.56 0.005 0
1.6 0.005 0
1.64 0.005 0
1.68 0.005 0
1.72 0.005 0
1.76 0.005 0
1.8 0.005 0
1.84 0.005 0
1.88 0.005 0
1.92 0.005 0
1.96 0.005 0
2 0.005 0
2.04 0.005 0
2.08 0.005 0
2.12 0.005 0
2.16 0.005 0
2.2 0.005 0
2.24 0.005 0
2.28 0.005 0
2.32 0.005 0
2.36 0.005 0
2.4 0.005 0
2.44 0.005 0
2.48 0.005 0
2.52 0.005 0
2.56 0.005 0
2.6 0.005 0
2.64 0.005 0
2.68 0.005 0
2.72 0.005 0
2.76 0.005 0
2.8 0.005 0
2.84 0.005 0
2.88 0.005 0
2.92 0.005 0
2.96 0.005 0
3 0.005 0
3.04 0.005 0
3.08 0.005 0
3.12 0.005 0
3.16 0.005 0
3.2 0.005 0
3.24 0.005 0
3.28 0.005 0
3.32 0.005 0
3.36 0.005 0
3.4 0.005 0
3.44 0.005 0
3.48 0.005 0
3.52 0.005 0
3.56 0.005 0
3.6 0.005 0
3.64 0.005 0
3.68 0.005 0
3.72 0.005 0
3.76 0.005 0
3.8 0.005 0
3.84 0.005 0
3.88 0.005 0
3.92 0.005 0
3.96 0.005 0
4 0.005 0
4.04 0.005 0
4.08 0.005 0
4.12 0.005 0
4.16 0.005 0
4.2 0.005 0
4.24 0.005 0
4.28 0.005 0
4.32 0.005 0
4.36 0.005 0
4.4 0.005 0
4.44 0.005 0
4.48 0.005 0
4.52 0.005 0
4.56 0.005 0
4.6 0.005 0
4.64 0.005 0
4.68 0.005 0
4.72 0.005 0
4.76 0.005 0
4.8 0.005 0
4.84 0.005 0
4.88 0.005 0
4.92 0.005 0
4.96 0.005 0
5 0.005 0
5.04 0.005 0
5.08 0.005 0
5.12 0.005 0
5.16 0.005 0
5.2 0.005 0
5.24 0.005 0
5.28 0.005 0
5.32 0.005 0
5.36 0.005 0
5.4 0.005 0
5.44 0.005 0
5.48 0.005 0
5.52 0.005 0
5.56 0.005 0
5.6 0.005 0
5.64 0.005 0
5.68 0.005 0
5.72 0.005 0
5.76 0.005 0
5.8 0.005 0
5.84 0.005 0
5.88 0.005 0
5.92 0.005 0
5.96 0.005 0
6 0.005 0
6.04 0.005 0
6.08 0.005 0
6.12 0.005 0
6.16 0.005 0
6.2 0.005 0
6.24 0.005 0
6.28 0.005 0
6.32 0.005 0
6.36 0.005 0
6.4 0.005 0
6.44 0.005 0
6.48 0.005 0
6.52 0.005 0
6.56 0.005 0
6.6 0.005 0
6.64 0.005 0
6.68 0.005 0
6.72 0.005 0
6.76 0.005 0
6.8 0.005 0
6.84 0.005 0
6.88 0.005 0
6.92 0.005 0
6.96 0.005 0
7 0.005 0
7.04 0.005 0
7.08 0.005 0
7.12 0.005 0
7.16 0.005 0
7.2 0.005 0
7.24 0.005 0
7.28 0.005 0
7.32 0.005 0
7.36 0.005 0
7.4 0.005 0
[...]
POINT_DATA 160000

SCALARS phi float 1
LOOKUP_TABLE default
1
1
1
1
1
1
1
1
1
1
1
1
1
1
1
1
1
1
1
1
1
1
1
1
1
1
1
1
1
1
1
1
1
1
1
0.999999
0.999999
0.999999
0.999999
0.999998
0.999997
0.999997
0.999995
0.999994
0.999992
0.99999
0.999988
0.999985
0.999982
0.999978
0.999973
0.999968
0.999961
0.999954
0.999946
0.999937
0.999926
0.999914
0.999901
0.999886
0.99987
0.999852
0.999832
0.99981
0.999786
0.99976
0.999731
0.9997
0.999667
0.999631
0.999592
0.99955
0.999505
0.999457
0.999406
0.999352
0.999294
0.999232
0.999167
0.999099
0.999026
0.998949
0.998869
0.998784
0.998695
0.998602
0.998504
0.998403
0.998296
0.998185
0.998069
0.997949
0.997824
0.997694
0.997559
0.997419
0.997275
0.997125
0.99697
0.99681
0.996645
0.996475
0.9963
0.996119
0.995933
0.995742
0.995546
0.995344
0.995137
0.994925
0.994707
0.994484
0.994256
0.994022
0.993783
0.993539
0.993289
0.993034
0.992774
0.992509
0.992238
0.991962
0.99168
0.991394
0.991102
0.990805
0.990502
0.990195
0.989883
0.989565
0.989242
0.988915
0.988582
0.988244
0.987901
0.987554
0.987201
0.986844
0.986482
0.986115
0.985743
0.985367
0.984986
0.984601
0.98421
0.983816
0.983416
0.983013
0.982604
0.982192
0.981775
0.981354
0.980928
0.980499
0.980065
0.979627
0.979185
0.978739
0.978289
0.977835
0.977377
0.976915
0.97645
0.975981
0.975508
0.975031
0.97455
0.974067
0.973579
0.973088
0.972594
0.972096
0.971595
0.97109
0.970582
0.970071
0.969557
0.96904
0.968519
0.967996
0.967469
0.96694
0.966407
0.965872
0.965334
0.964793
0.964249
0.963702
0.963153
0.962601
0.962047
0.96149
0.960931
0.960369
0.959804
0.959237
0.958668
0.958097
0.957523
0.956947
0.956369
0.955789
0.955206
0.954622
0.954035
0.953446
0.952856
0.952263
0.951669
0.951073
0.950474
0.949874
0.949273
0.948669
0.948064
0.947457
0.946849
0.946239
0.945627
0.945014
0.944399
0.943783
0.943165
0.942546
0.941926
0.941304
0.940681
0.940057
0.939431
0.938805
0.938177
0.937547
0.936917
0.936285
0.935653
0.935019
0.934385
0.933749
0.933112
0.932475
0.931836
0.931197
0.930557
0.929915
0.929273
0.928631
0.927987
0.927343
0.926698
0.926052
0.925405
0.924758
0.924111
0.923462
0.922813
0.922164
0.921514
0.920863
0.920212
0.91956
0.918908
0.918255
0.917602
0.916949
0.916295
0.915641
0.914987
0.914332
0.913677
0.913021
0.912365
0.911709
0.911053
0.910396
0.90974
0.909083
0.908426
0.907768
0.907111
0.906453
0.905795
0.905138
0.90448
0.903822
0.903163
0.902505
0.901847
0.901189
0.90053
0.899872
0.899214
0.898555
0.897897
0.897239
0.89658
0.895922
0.895264
0.894606
0.893947
0.893289
0.892631
0.891973
0.891316
0.890658
0.89
0.889343
0.888685
0.888028
0.88737
0.886713
0.886056
0.885399
0.884742
0.884085
0.883429
0.882772
0.882116
0.881459
0.880803
0.880147
0.87949
0.878834
0.878178
0.877522
0.876866
0.876211
0.875555
0.874899
0.874243
0.873587
0.872931
0.872276
0.87162
0.870964
0.870308
0.869652
0.868996
0.86834
0.867683
0.867027
0.86637
0.865714
0.865057
0.864399
0.863742
0.863084
0.862426
0.861768
0.86111
0.860451
0.859792
0.859132
0.858472
0.857812
0.857151
0.85649
0.855828
0.855165
0.854502
0.853839
0.853175
0.85251
0.851845
0.851178
0.850511
0.849844
0.849175
0.848506
0.847836
0.847165
0.846493
0.84582
0.845146
0.844471
0.843795
0.843118
0.842439
0.84176
0.841079
0.840398
0.839714
0.83903
0.838344
0.837657
0.836968
0.836278
0.835587
0.834894
0.834199
0.833503
0.832805
0.832106
0.831405
0.830702
0.829997
0.82929
0.828582
0.827872
0.827159
0.826445
0.825729
0.825011
0.82429
0.823568
0.822843
0.822116
0.821387
0.820656
0.819922
0.819187
0.818448
0.817708
0.816964
0.816219
0.815471
0.81472
0.813967
0.813211
0.812453
0.811691
0.810928
0.810161
0.809392
0.80862
0.807845
0.807067
0.806286
0.805502
0.804716
0.803926
0.803133
0.802338
0.801539
0.800737
0.799932
0.799124
0.798313
0.797498
0.79668
0.795859
0.795035
0.794208
0.793377
0.792542
0.791705
0.790864
0.790019
0.789172
0.78832
0.787466
0.786607
0.785746
0.78488
0.784011
0.783139
0.782263
0.781384
0.7805
0.779614
0.778723
0.777829
0.776931
0.77603
0.775125
0.774216
0.773303
0.772387
0.771467
0.770543
0.769616
0.768685
0.76775
0.766811
0.765869
0.764922
0.763972
0.763018
0.762061
0.761099
0.760134
0.759165
0.758192
0.757215
0.756235
0.75525
0.754262
0.75327
0.752275
0.751275
0.750272
0.749265
0.748254
0.747239
0.746221
0.745198
0.744172
0.743142
0.742109
0.741071
0.74003
0.738985
0.737937
0.736884
0.735828
0.734769
0.733705
0.732638
0.731567
0.730493
0.729415
0.728333
0.727248
0.726159
0.725066
0.72397
0.72287
0.721767
0.72066
0.719549
0.718435
0.717318
0.716197
0.715073
0.713945
0.712814
0.711679
0.710541
0.709399
0.708254
0.707106
0.705955
0.7048
0.703642
0.702481
0.701316
0.700148
0.698977
0.697803
0.696626
0.695445
0.694262
0.693075
0.691886
0.690693
0.689497
0.688298
0.687096
0.685892
0.684684
0.683474
0.68226
0.681044
0.679825
0.678603
0.677378
0.676151
0.674921
0.673688
0.672452
0.671214
0.669973
0.66873
0.667484
0.666235
0.664984
0.66373
0.662474
0.661216
0.659955
0.658692
0.657426
0.656158
0.654888
0.653615
0.65234
0.651063
0.649784
0.648503
0.647219
0.645933
0.644646
0.643356
0.642064
0.64077
0.639474
0.638177
0.636877
0.635575
0.634272
0.632967
0.63166
0.630351
0.62904
0.627728
0.626414
0.625098
0.623781
0.622462
0.621142
0.61982
0.618496
0.617171
0.615845
0.614517
0.613187
0.611857
0.610524
0.609191
0.607856
0.60652
0.605183
0.603845
0.602505
0.601164
0.599822
0.598479
0.597135
0.59579
0.594444
0.593097
0.591749
0.5904
0.58905
0.587699
0.586347
0.584994
0.583641
0.582287
0.580932
0.579576
0.57822
0.576863
0.575505
0.574147
0.572788
0.571429
0.570069
0.568708
0.567347
0.565986
0.564624
0.563261
0.561899
0.560535
0.559172
0.557808
0.556444
0.55508
0.553715
0.55235
0.550985
0.54962
0.548255
0.546889
0.545524
0.544158
0.542793
0.541427
0.540061
0.538695
0.53733
0.535964
0.534598
0.533233
0.531868
0.530502
0.529137
0.527773
0.526408
0.525044
0.523679
0.522316
0.520952
0.519589
0.518226
0.516863
0.515501
0.514139
0.512778
0.511417
0.510057
0.508697
0.507337
0.505978
0.50462
0.503262
0.501904
0.500548
0.499192
0.497836
0.496481
0.495127
0.493774
0.492421
0.491069
0.489718
0.488367
0.487017
0.485668
0.48432
0.482973
0.481626
0.480281
0.478936
0.477592
0.476249
0.474907
0.473566
0.472225
0.470886
0.469548
0.468211
0.466875
0.465539
0.464205
0.462872
0.46154
0.460209
0.458879
0.457551
0.456223
0.454896
0.453571
0.452247
0.450924
0.449602
0.448282
0.446962
0.445644
0.444328
0.443012
0.441698
0.440385
0.439073
0.437762
0.436453
0.435146
0.433839
0.432534
0.43123
0.429928
0.428627
0.427327
0.426029
0.424732
0.423437
0.422143
0.420851
0.41956
0.41827
0.416982
0.415696
0.414411
0.413127
0.411845
0.410564
0.409285
0.408008
0.406732
0.405458
0.404185
0.402914
0.401644
0.400376
0.39911
0.397845
0.396582
0.39532
0.39406
0.392802
0.391545
0.39029
0.389037
0.387785
0.386535
0.385287
0.38404
0.382795
0.381552
0.38031
0.37907
0.377832
0.376596
0.375361
0.374128
0.372897
0.371667
0.37044
0.369213
0.367989
0.366767
0.365546
0.364326
0.36311
0.361893
0.360684
0.359469
0.358308
0.357237
0.357237
1
1
1
1
1
1
1
1
1
1
1
1
1
1
1
1
1
1
1
1
1
1
1
1
1
1
1
1
1
1
1
1
1
1
1
0.999999
0.999999
0.999999
0.999999
0.999998
0.999997
0.999997
0.999995
0.999994
0.999992
0.99999
0.999988
0.999985
0.999982
0.999978
0.999973
0.999968
0.999961
0.999954
0.999946
0.999937
0.999926
0.999914
0.999901
0.999886
0.99987
0.999852
0.999832
0.99981
0.999786
0.99976
0.999731
0.9997
0.999667
0.999631
0.999592
0.99955
0.999505
0.999457
0.999406
0.999352
0.999294
0.999232
0.999167
0.999099
0.999026
0.998949
0.998869
0.998784
0.998695
0.998602
0.998504
0.998403
0.998296
0.998185
0.998069
0.997949
0.997824
0.997694
0.997559
0.997419
0.997275
0.997125
0.99697
0.99681
0.996645
0.996475
0.9963
0.996119
0.995933
0.995742
0.995546
0.995344
0.995137
0.994925
0.994707
0.994484
0.994256
0.994022
0.993783
0.993539
0.993289
0.993034
0.992774
0.992509
0.992238
0.991962
0.99168
0.991394
0.991102
0.990805
0.990502
0.990195
0.989883
0.989565
0.989242
0.988915
0.988582
0.988244
0.987901
0.987554
0.987201
0.986844
0.986482
0.986115
0.985743
0.985367
0.984986
0.984601
0.98421
0.983816
0.983416
0.983013
0.982604
0.982192
0.981775
0.981354
0.980928
0.980499
0.980065
0.979627
0.979185
0.978739
0.978289
0.977835
0.977377
0.976915
0.97645
0.975981
0.975508
0.975031
0.97455
0.974067
0.973579
0.973088
0.972594
0.972096
0.971595
0.97109
0.970582
0.970071
0.969557
0.96904
0.968519
0.967996
0.967469
0.96694
0.966407
0.965872
0.965334
0.964793
0.964249
0.963702
0.963153
0.962601
0.962047
0.96149
0.960931
0.960369
0.959804
0.959237
0.958668
0.958097
0.957523
0.956947
0.956369
0.955789
0.955206
0.954622
0.954035
0.953446
0.952856
0.952263
0.951669
0.951073
0.950474
0.949874
0.949273
0.948669
0.948064
0.947457
0.946849
0.946239
0.945627
0.945014
0.944399
0.943783
0.943165
0.942546
0.941926
0.941304
0.940681
0.940057
0.939431
0.938805
0.938177
0.937547
0.936917
0.936285
0.935653
0.935019
0.934385
0.933749
0.933112
0.932475
0.931836
0.931197
0.930557
0.929915
0.929273
0.928631
0.927987
0.927343
0.926698
0.926052
0.925405
0.924758
0.924111
0.923462
0.922813
0.922164
0.921514
0.920863
0.920212
0.91956
0.918908
0.918255
0.917602
0.916949
0.916295
0.915641
0.914987
0.914332
0.913677
0.913021
0.912365
0.911709
0.911053
0.910396
0.90974
0.909083
0.908426
0.907768
0.907111
0.906453
0.905795
0.905138
0.90448
0.903822
0.903163
0.902505
0.901847
0.901189
0.90053
0.899872
0.899214
0.898555
0.897897
0.897239
0.89658
0.895922
0.895264
0.894606
0.893947
0.893289
0.892631
0.891973
0.891316
0.890658
0.89
0.889343
0.888685
0.888028
0.88737
0.886713
0.886056
0.885399
0.884742
0.884085
0.883429
0.882772
0.882116
0.881459
0.880803
0.880147
0.87949
0.878834
0.878178
0.877522
0.876866
0.876211
0.875555
0.874899
0.874243
0.873587
0.872931
0.872276
0.87162
0.870964
0.870308
0.869652
0.868996
0.86834
0.867683
0.867027
0.86637
0.865714
0.865057
0.864399
0.863742
0.863084
0.862426
0.861768
0.86111
0.860451
0.859792
0.859132
0.858472
0.857812
0.857151
0.85649
0.855828
0.855165
0.854502
0.853839
0.853175
0.85251
0.851845
0.851178
0.850511
0.849844
0.849175
0.848506
0.847836
0.847165
0.846493
0.84582
0.845146
0.844471
0.843795
0.843118
0.842439
0.84176
0.841079
0.840398
0.839714
0.83903
0.838344
0.837657
0.836968
0.836278
0.835587
0.834894
0.834199
0.833503
0.832805
0.832106
0.831405
0.830702
0.829997
0.82929
0.828582
0.827872
0.827159
0.826445
0.825729
0.825011
0.82429
0.823568
0.822843
0.822116
0.821387
0.820656
0.819922
0.819187
0.818448
0.817708
0.816964
0.816219
0.815471
0.81472
0.813967
0.813211
0.812453
0.811691
0.810928
0.810161
0.809392
0.80862
0.807845
0.807067
0.806286
0.805502
0.804716
0.803926
0.803133
0.802338
0.801539
0.800737
0.799932
0.799124
0.798313
0.797498
0.79668
0.795859
0.795035
0.794208
0.793377
0.792542
0.791705
0.790864
0.790019
0.789172
0.78832
0.787466
0.786607
0.785746
0.78488
0.784011
0.783139
0.782263
0.781384
0.7805
0.779614
0.778723
0.777829
0.776931
0.77603
0.775125
0.774216
0.773303
0.772387
0.771467
0.770543
0.769616
0.768685
0.76775
0.766811
0.765869
0.764922
0.763972
0.763018
0.762061
0.761099
0.760134
0.759165
0.758192
0.757215
0.756235
0.75525
0.754262
0.75327
0.752275
0.751275
0.750272
0.749265
0.748254
0.747239
0.746221
0.745198
0.744172
0.743142
0.742109
0.741071
0.74003
0.738985
0.737937
0.736884
0.735828
0.734769
0.733705
0.732638
0.731567
0.730493
0.729415
0.728333
0.727248
0.726159
0.725066
0.72397
0.72287
0.721767
0.72066
0.719549
0.718435
0.717318
0.716197
0.715073
0.713945
0.712814
0.711679
0.710541
0.709399
0.708254
0.707106
0.705955
0.7048
0.703642
0.702481
0.701316
0.700148
0.698977
0.697803
0.696626
0.695445
0.694262
0.693075
0.691886
0.690693
0.689497
0.688298
0.687096
0.685892
0.684684
0.683474
0.68226
0.681044
0.679825
0.678603
0.677378
0.676151
0.674921
0.673688
0.672452
0.671214
0.669973
0.66873
0.667484
0.666235
0.664984
0.66373
0.662474
0.661216
0.659955
0.658692
0.657426
0.656158
0.654888
0.653615
0.65234
0.651063
0.649784
0.648503
0.647219
0.645933
0.644646
0.643356
0.642064
0.64077
0.639474
0.638177
0.636877
0.635575
0.634272
0.632967
0.63166
0.630351
0.62904
0.627728
0.626414
0.625098
0.623781
0.622462
0.621142
0.61982
0.618496
0.617171
0.615845
0.614517
0.613187
0.611857
0.610524
0.609191
0.607856
0.60652
0.605183
0.603845
0.602505
0.601164
0.599822
0.598479
0.597135
0.59579
0.594444
0.593097
0.591749
0.5904
0.58905
0.587699
0.586347
0.584994
0.583641
0.582287
0.580932
0.579576
0.57822
0.576863
0.575505
0.574147
0.572788
0.571429
0.570069
0.568708
0.567347
0.565986
0.564624
0.563261
0.561899
0.560535
0.559172
0.557808
0.556444
0.55508
0.553715
0.55235
0.550985
0.54962
0.548255
0.546889
0.545524
0.544158
0.542793
0.541427
0.540061
0.538695
0.53733
0.535964
0.534598
0.533233
0.531868
0.530502
0.529137
0.527773
0.526408
0.525044
0.523679
0.522316
0.520952
0.519589
0.518226
0.516863
0.515501
0.514139
0.512778
0.511417
0.510057
0.508697
0.507337
0.505978
0.50462
0.503262
0.501904
0.500548
0.499192
0.497836
0.496481
0.495127
0.493774
0.492421
0.491069
0.489718
0.488367
0.487017
0.485668
0.48432
0.482973
0.481626
0.480281
0.478936
0.477592
0.476249
0.474907
0.473566
0.472225
0.470886
0.469548
0.468211
0.466875
0.465539
0.464205
0.462872
0.46154
0.460209
0.458879
0.457551
0.456223
0.454896
0.453571
0.452247
0.450924
0.449602
0.448282
0.446962
0.445644
0.444328
0.443012
0.441698
0.440385
0.439073
0.437762
0.436453
0.435146
0.433839
0.432534
0.43123
0.429928
0.428627
0.427327
0.426029
0.424732
0.423437
0.422143
0.420851
0.41956
0.41827
0.416982
0.415696
0.414411
0.413127
0.411845
0.410564
0.409285
0.408008
0.406732
0.405458
0.404185
0.402914
0.401644
0.400376
0.39911
0.397845
0.396582
0.39532
0.39406
0.392802
0.391545
0.39029
0.389037
0.387785
0.386535
0.385287
0.38404
0.382795
0.381552
0.38031
0.37907
0.377832
0.376596
0.375361
0.374128
0.372897
0.371667
0.37044
0.369213
0.367989
0.366767
0.365546
0.364326
0.36311
0.361893
0.360684
0.359469
0.358308
0.357237
0.357237
1
1
1
1
1
1
1
1
1
1
1
1
1
1
1
1
1
1
1
1
1
1
1
1
1
1
1
1
1
1
1
1
1
1
1
0.999999
0.999999
0.999999
0.999999
0.999998
0.999997
0.999997
0.999995
0.999994
0.999992
0.99999
0.999988
0.999985
0.999982
0.999978
0.999973
0.999968
0.999961
0.999954
0.999946
0.999937
0.999926
0.999914
0.999901
0.999886
0.99987
0.999852
0.999832
0.99981
0.999786
0.99976
0.999731
0.9997
0.999667
0.999631
0.999592
0.99955
0.999505
0.999457
0.999406
0.999352
0.999294
0.999232
0.999167
0.999098
0.999026
0.998949
0.998869
0.998784
0.998695
0.998602
0.998504
0.998402
0.998296
0.998185
0.998069
0.997949
0.997824
0.997694
0.997559
0.997419
0.997274
0.997124
0.99697
0.99681
0.996645
0.996474
0.996299
0.996118
0.995933
0.995742
0.995545
0.995343
0.995136
0.994924
0.994706
0.994483
0.994255
0.994022
0.993783
0.993538
0.993289
0.993034
0.992773
0.992508
0.992237
0.991961
0.991679
0.991393
0.991101
0.990804
0.990501
0.990194
0.989882
0.989564
0.989241
0.988914
0.988581
0.988243
0.9879
0.987553
0.9872
0.986843
0.986481
0.986114
0.985742
0.985366
0.984985
0.984599
0.984209
0.983814
0.983415
0.983011
0.982603
0.982191
0.981774
0.981353
0.980927
0.980497
0.980064
0.979626
0.979184
0.978738
0.978288
0.977834
0.977376
0.976914
0.976448
0.975979
0.975506
0.975029
0.974549
0.974065
0.973578
0.973087
0.972592
0.972094
0.971593
0.971089
0.970581
0.97007
0.969555
0.969038
0.968518
0.967994
0.967467
0.966938
0.966405
0.96587
0.965332
0.964791
0.964247
0.963701
0.963152
0.9626
0.962045
0.961488
0.960929
0.960367
0.959803
0.959236
0.958667
0.958095
0.957521
0.956946
0.956367
0.955787
0.955205
0.95462
0.954033
0.953445
0.952854
0.952262
0.951667
0.951071
0.950473
0.949873
0.949271
0.948667
0.948062
0.947455
0.946847
0.946237
0.945625
0.945012
0.944397
0.943781
0.943164
0.942545
0.941924
0.941303
0.940679
0.940055
0.93943
0.938803
0.938175
0.937545
0.936915
0.936284
0.935651
0.935017
0.934383
0.933747
0.933111
0.932473
0.931834
0.931195
0.930555
0.929913
0.929271
0.928629
0.927985
0.927341
0.926696
0.92605
0.925404
0.924756
0.924109
0.92346
0.922811
0.922162
0.921512
0.920861
0.92021
0.919558
0.918906
0.918254
0.917601
0.916947
0.916293
0.915639
0.914985
0.91433
0.913675
0.913019
0.912363
0.911707
0.911051
0.910395
0.909738
0.909081
0.908424
0.907766
0.907109
0.906451
0.905794
0.905136
0.904478
0.90382
0.903162
0.902503
0.901845
0.901187
0.900528
0.89987
0.899212
0.898553
0.897895
0.897237
0.896578
0.89592
0.895262
0.894604
0.893946
0.893288
0.89263
0.891972
0.891314
0.890656
0.889998
0.889341
0.888683
0.888026
0.887369
0.886712
0.886054
0.885398
0.884741
0.884084
0.883427
0.882771
0.882114
0.881458
0.880801
0.880145
0.879489
0.878833
0.878177
0.877521
0.876865
0.876209
0.875553
0.874898
0.874242
0.873586
0.87293
0.872275
0.871619
0.870963
0.870307
0.869651
0.868995
0.868339
0.867683
0.867026
0.86637
0.865713
0.865056
0.864399
0.863742
0.863084
0.862426
0.861768
0.86111
0.860451
0.859792
0.859132
0.858473
0.857812
0.857152
0.85649
0.855829
0.855166
0.854503
0.85384
0.853176
0.852511
0.851846
0.85118
0.850513
0.849846
0.849177
0.848508
0.847838
0.847167
0.846495
0.845823
0.845149
0.844474
0.843798
0.843121
0.842443
0.841764
0.841083
0.840402
0.839719
0.839035
0.838349
0.837662
0.836974
0.836284
0.835593
0.8349
0.834206
0.83351
0.832812
0.832113
0.831412
0.830709
0.830005
0.829298
0.82859
0.82788
0.827168
0.826454
0.825738
0.82502
0.8243
0.823578
0.822854
0.822127
0.821399
0.820668
0.819935
0.819199
0.818461
0.817721
0.816978
0.816233
0.815485
0.814735
0.813982
0.813227
0.812468
0.811708
0.810944
0.810178
0.809409
0.808637
0.807863
0.807085
0.806305
0.805522
0.804736
0.803946
0.803154
0.802359
0.801561
0.800759
0.799955
0.799147
0.798336
0.797522
0.796705
0.795885
0.795061
0.794234
0.793403
0.79257
0.791733
0.790892
0.790048
0.789201
0.78835
0.787496
0.786638
0.785777
0.784912
0.784044
0.783172
0.782297
0.781418
0.780535
0.779649
0.778759
0.777866
0.776969
0.776068
0.775163
0.774255
0.773343
0.772428
0.771508
0.770585
0.769658
0.768728
0.767793
0.766855
0.765913
0.764968
0.764018
0.763065
0.762108
0.761147
0.760182
0.759214
0.758242
0.757266
0.756286
0.755302
0.754315
0.753324
0.752329
0.75133
0.750327
0.749321
0.74831
0.747296
0.746279
0.745257
0.744232
0.743202
0.742169
0.741133
0.740092
0.739048
0.738
0.736949
0.735893
0.734834
0.733772
0.732705
0.731635
0.730561
0.729484
0.728403
0.727318
0.72623
0.725138
0.724042
0.722943
0.721841
0.720735
0.719625
0.718512
0.717395
0.716275
0.715151
0.714024
0.712893
0.711759
0.710622
0.709481
0.708337
0.70719
0.706039
0.704885
0.703728
0.702567
0.701403
0.700236
0.699066
0.697892
0.696716
0.695536
0.694353
0.693167
0.691978
0.690786
0.689591
0.688393
0.687192
0.685988
0.684781
0.683571
0.682358
0.681143
0.679924
0.678703
0.677479
0.676252
0.675023
0.673791
0.672556
0.671318
0.670078
0.668835
0.66759
0.666342
0.665092
0.663839
0.662584
0.661326
0.660065
0.658803
0.657538
0.656271
0.655001
0.653729
0.652455
0.651178
0.6499
0.648619
0.647336
0.646051
0.644764
0.643475
0.642184
0.640891
0.639595
0.638298
0.636999
0.635698
0.634395
0.633091
0.631784
0.630476
0.629166
0.627854
0.626541
0.625226
0.623909
0.622591
0.621271
0.61995
0.618627
0.617302
0.615976
0.614649
0.61332
0.61199
0.610659
0.609326
0.607992
0.606656
0.60532
0.603982
0.602643
0.601302
0.599961
0.598618
0.597275
0.59593
0.594585
0.593238
0.59189
0.590542
0.589192
0.587842
0.586491
0.585139
0.583786
0.582432
0.581078
0.579723
0.578367
0.57701
0.575653
0.574295
0.572937
0.571578
0.570218
0.568858
0.567498
0.566137
0.564775
0.563413
0.562051
0.560688
0.559325
0.557962
0.556598
0.555235
0.55387
0.552506
0.551141
0.549777
0.548412
0.547047
0.545682
0.544316
0.542951
0.541586
0.54022
0.538855
0.53749
0.536124
0.534759
0.533394
0.532029
0.530664
0.5293
0.527935
0.526571
0.525207
0.523843
0.52248
0.521116
0.519754
0.518391
0.517029
0.515667
0.514306
0.512944
0.511584
0.510224
0.508864
0.507505
0.506146
0.504788
0.503431
0.502074
0.500717
0.499361
0.498006
0.496652
0.495298
0.493945
0.492592
0.49124
0.489889
0.488539
0.48719
0.485841
0.484493
0.483146
0.4818
0.480454
0.47911
0.477766
0.476423
0.475081
0.47374
0.472401
0.471062
0.469724
0.468386
0.46705
0.465716
0.464382
0.463049
0.461717
0.460386
0.459057
0.457728
0.456401
0.455074
0.453749
0.452425
0.451103