# vtk DataFile Version 2.0
FlowField
ASCII
DATASET STRUCTURED_GRID
DIMENSIONS 800 1 200
POINTS 160000 float
0 0 0
0.04 0 0
0.08 0 0
0.12 0 0
0.16 0 0
0.2 0 0
0.24 0 0
0.28 0 0
0.32 0 0
0.36 0 0
0.4 0 0
0.44 0 0
0.48 0 0
0.52 0 0
0.56 0 0
0.6 0 0
0.64 0 0
0.68 0 0
0.72 0 0
0.76 0 0
0.8 0 0
0.84 0 0
0.88 0 0
0.92 0 0
0.96 0 0
1 0 0
1.04 0 0
1.08 0 0
1.12 0 0
1.16 0 0
1.2 0 0
1.24 0 0
1.28 0 0
1.32 0 0
1.36 0 0
1.4 0 0
1.44 0 0
1.48 0 0
1.52 0 0
1.56 0 0
1.6 0 0
1.64 0 0
1.68 0 0
1.72 0 0
1.76 0 0
1.8 0 0
1.84 0 0
1.88 0 0
1.92 0 0
1.96 0 0
2 0 0
2.04 0 0
2.08 0 0
2.12 0 0
2.16 0 0
2.2 0 0
2.24 0 0
2.28 0 0
2.32 0 0
2.36 0 0
2.4 0 0
2.44 0 0
2.48 0 0
2.52 0 0
2.56 0 0
2.6 0 0
2.64 0 0
2.68 0 0
2.72 0 0
2.76 0 0
2.8 0 0
2.84 0 0
2.88 0 0
2.92 0 0
2.96 0 0
3 0 0
3.04 0 0
3.08 0 0
3.12 0 0
3.16 0 0
3.2 0 0
3.24 0 0
3.28 0 0
3.32 0 0
3.36 0 0
3.4 0 0
3.44 0 0
3.48 0 0
3.52 0 0
3.56 0 0
3.6 0 0
3.64 0 0
3.68 0 0
3.72 0 0
3.76 0 0
3.8 0 0
3.84 0 0
3.88 0 0
3.92 0 0
3.96 0 0
4 0 0
4.04 0 0
4.08 0 0
4.12 0 0
4.16 0 0
4.2 0 0
4.24 0 0
4.28 0 0
4.32 0 0
4.36 0 0
4.4 0 0
4.44 0 0
4.48 0 0
4.52 0 0
4.56 0 0
4.6 0 0
4.64 0 0
4.68 0 0
4.72 0 0
4.76 0 0
4.8 0 0
4.84 0 0
4.88 0 0
4.92 0 0
4.96 0 0
5 0 0
5.04 0 0
5.08 0 0
5.12 0 0
5.16 0 0
5.2 0 0
5.24 0 0
5.28 0 0
5.32 0 0
5.36 0 0
5.4 0 0
5.44 0 0
5.48 0 0
5.52 0 0
5.56 0 0
5.6 0 0
5.64 0 0
5.68 0 0
5.72 0 0
5.76 0 0
5.8 0 0
5.84 0 0
5.88 0 0
5.92 0 0
5.96 0 0
6 0 0
6.04 0 0
6.08 0 0
6.12 0 0
6.16 0 0
6.2 0 0
6.24 0 0
6.28 0 0
6.32 0 0
6.36 0 0
6.4 0 0
6.44 0 0
6.48 0 0
6.52 0 0
6.56 0 0
6.6 0 0
6.64 0 0
6.68 0 0
6.72 0 0
6.76 0 0
6.8 0 0
6.84 0 0
6.88 0 0
6.92 0 0
6.96 0 0
7 0 0
7.04 0 0
7.08 0 0
7.12 0 0
7.16 0 0
7.2 0 0
7.24 0 0
7.28 0 0
7.32 0 0
7.36 0 0
7.4 0 0
7.44 0 0
7.48 0 0
7.52 0 0
7.56 0 0
7.6 0 0
7.64 0 0
7.68 0 0
7.72 0 0
7.76 0 0
7.8 0 0
7.84 0 0
7.88 0 0
7.92 0 0
7.96 0 0
8 0 0
8.04 0 0
8.08 0 0
8.12 0 0
8.16 0 0
8.2 0 0
8.24 0 0
8.28 0 0
8.32 0 0
8.36 0 0
8.4 0 0
8.44 0 0
8.48 0 0
8.52 0 0
8.56 0 0
8.6 0 0
8.64 0 0
8.68 0 0
8.72 0 0
8.76 0 0
8.8 0 0
8.84 0 0
8.88 0 0
8.92 0 0
8.96 0 0
9 0 0
9.04 0 0
9.08 0 0
9.12 0 0
9.16 0 0
9.2 0 0
9.24 0 0
9.28 0 0
9.32 0 0
9.36 0 0
9.4 0 0
9.44 0 0
9.48 0 0
9.52 0 0
9.56 0 0
9.6 0 0
9.64 0 0
9.68 0 0
9.72 0 0
9.76 0 0
9.8 0 0
9.84 0 0
9.88 0 0
9.92 0 0
9.96 0 0
10 0 0
10.04 0 0
10.08 0 0
10.12 0 0
10.16 0 0
10.2 0 0
10.24 0 0
10.28 0 0
10.32 0 0
10.36 0 0
10.4 0 0
10.44 0 0
10.48 0 0
10.52 0 0
10.56 0 0
10.6 0 0
10.64 0 0
10.68 0 0
10.72 0 0
10.76 0 0
10.8 0 0
10.84 0 0
10.88 0 0
10.92 0 0
10.96 0 0
11 0 0
11.04 0 0
11.08 0 0
11.12 0 0
11.16 0 0
11.2 0 0
11.24 0 0
11.28 0 0
11.32 0 0
11.36 0 0
11.4 0 0
11.44 0 0
11.48 0 0
11.52 0 0
11.56 0 0
11.6 0 0
11.64 0 0
11.68 0 0
11.72 0 0
11.76 0 0
11.8 0 0
11.84 0 0
11.88 0 0
11.92 0 0
11.96 0 0
12 0 0
12.04 0 0
12.08 0 0
12.12 0 0
12.16 0 0
12.2 0 0
12.24 0 0
12.28 0 0
12.32 0 0
12.36 0 0
12.4 0 0
12.44 0 0
12.48 0 0
12.52 0 0
12.56 0 0
12.6 0 0
12.64 0 0
12.68 0 0
12.72 0 0
12.76 0 0
12.8 0 0
12.84 0 0
12.88 0 0
12.92 0 0
12.96 0 0
13 0 0
13.04 0 0
13.08 0 0
13.12 0 0
13.16 0 0
13.2 0 0
13.24 0 0
13.28 0 0
13.32 0 0
13.36 0 0
13.4 0 0
13.44 0 0
13.48 0 0
13.52 0 0
13.56 0 0
13.6 0 0
13.64 0 0
13.68 0 0
13.72 0 0
13.76 0 0
13.8 0 0
13.84 0 0
13.88 0 0
13.92 0 0
13.96 0 0
14 0 0
14.04 0 0
14.08 0 0
14.12 0 0
14.16 0 0
14.2 0 0
14.24 0 0
14.28 0 0
14.32 0 0
14.36 0 0
14.4 0 0
14.44 0 0
14.48 0 0
14.52 0 0
14.56 0 0
14.6 0 0
14.64 0 0
14.68 0 0
14.72 0 0
14.76 0 0
14.8 0 0
14.84 0 0
14.88 0 0
14.92 0 0
14.96 0 0
15 0 0
15.04 0 0
15.08 0 0
15.12 0 0
15.16 0 0
15.2 0 0
15.24 0 0
15.28 0 0
15.32 0 0
15.36 0 0
15.4 0 0
15.44 0 0
15.48 0 0
15.52 0 0
15.56 0 0
15.6 0 0
15.64 0 0
15.68 0 0
15.72 0 0
15.76 0 0
15.8 0 0
15.84 0 0
15.88 0 0
15.92 0 0
15.96 0 0
16 0 0
16.04 0 0
16.08 0 0
16.12 0 0
16.16 0 0
16.2 0 0
16.24 0 0
16.28 0 0
16.32 0 0
16.36 0 0
16.4 0 0
16.44 0 0
16.48 0 0
16.52 0 0
16.56 0 0
16.6 0 0
16.64 0 0
16.68 0 0
16.72 0 0
16.76 0 0
16.8 0 0
16.84 0 0
16.88 0 0
16.92 0 0
16.96 0 0
17 0 0
17.04 0 0
17.08 0 0
17.12 0 0
17.16 0 0
17.2 0 0
17.24 0 0
17.28 0 0
17.32 0 0
17.36 0 0
17.4 0 0
17.44 0 0
17.48 0 0
17.52 0 0
17.56 0 0
17.6 0 0
17.64 0 0
17.68 0 0
17.72 0 0
17.76 0 0
17.8 0 0
17.84 0 0
17.88 0 0
17.92 0 0
17.96 0 0
18 0 0
18.04 0 0
18.08 0 0
18.12 0 0
18.16 0 0
18.2 0 0
18.24 0 0
18.28 0 0
18.32 0 0
18.36 0 0
18.4 0 0
18.44 0 0
18.48 0 0
18.52 0 0
18.56 0 0
18.6 0 0
18.64 0 0
18.68 0 0
18.72 0 0
18.76 0 0
18.8 0 0
18.84 0 0
18.88 0 0
18.92 0 0
18.96 0 0
19 0 0
19.04 0 0
19.08 0 0
19.12 0 0
19.16 0 0
19.2 0 0
19.24 0 0
19.28 0 0
19.32 0 0
19.36 0 0
19.4 0 0
19.44 0 0
19.48 0 0
19.52 0 0
19.56 0 0
19.6 0 0
19.64 0 0
19.68 0 0
19.72 0 0
19.76 0 0
19.8 0 0
19.84 0 0
19.88 0 0
19.92 0 0
19.96 0 0
20 0 0
20.04 0 0
20.08 0 0
20.12 0 0
20.16 0 0
20.2 0 0
20.24 0 0
20.28 0 0
20.32 0 0
20.36 0 0
20.4 0 0
20.44 0 0
20.48 0 0
20.52 0 0
20.56 0 0
20.6 0 0
20.64 0 0
20.68 0 0
20.72 0 0
20.76 0 0
20.8 0 0
20.84 0 0
20.88 0 0
20.92 0 0
20.96 0 0
21 0 0
21.04 0 0
21.08 0 0
21.12 0 0
21.16 0 0
21.2 0 0
21.24 0 0
21.28 0 0
21.32 0 0
21.36 0 0
21.4 0 0
21.44 0 0
21.48 0 0
21.52 0 0
21.56 0 0
21.6 0 0
21.64 0 0
21.68 0 0
21.72 0 0
21.76 0 0
21.8 0 0
21.84 0 0
21.88 0 0
21.92 0 0
21.96 0 0
22 0 0
22.04 0 0
22.08 0 0
22.12 0 0
22.16 0 0
22.2 0 0
22.24 0 0
22.28 0 0
22.32 0 0
22.36 0 0
22.4 0 0
22.44 0 0
22.48 0 0
22.52 0 0
22.56 0 0
22.6 0 0
22.64 0 0
22.68 0 0
22.72 0 0
22.76 0 0
22.8 0 0
22.84 0 0
22.88 0 0
22.92 0 0
22.96 0 0
23 0 0
23.04 0 0
23.08 0 0
23.12 0 0
23.16 0 0
23.2 0 0
23.24 0 0
23.28 0 0
23.32 0 0
23.36 0 0
23.4 0 0
23.44 0 0
23.48 0 0
23.52 0 0
23.56 0 0
23.6 0 0
23.64 0 0
23.68 0 0
23.72 0 0
23.76 0 0
23.8 0 0
23.84 0 0
23.88 0 0
23.92 0 0
23.96 0 0
24 0 0
24.04 0 0
24.08 0 0
24.12 0 0
24.16 0 0
24.2 0 0
24.24 0 0
24.28 0 0
24.32 0 0
24.36 0 0
24.4 0 0
24.44 0 0
24.48 0 0
24.52 0 0
24.56 0 0
24.6 0 0
24.64 0 0
24.68 0 0
24.72 0 0
24.76 0 0
24.8 0 0
24.84 0 0
24.88 0 0
24.92 0 0
24.96 0 0
25 0 0
25.04 0 0
25.08 0 0
25.12 0 0
25.16 0 0
25.2 0 0
25.24 0 0
25.28 0 0
25.32 0 0
25.36 0 0
25.4 0 0
25.44 0 0
25.48 0 0
25.52 0 0
25.56 0 0
25.6 0 0
25.64 0 0
25.68 0 0
25.72 0 0
25.76 0 0
25.8 0 0
25.84 0 0
25.88 0 0
25.92 0 0
25.96 0 0
26 0 0
26.04 0 0
26.08 0 0
26.12 0 0
26.16 0 0
26.2 0 0
26.24 0 0
26.28 0 0
26.32 0 0
26.36 0 0
26.4 0 0
26.44 0 0
26.48 0 0
26.52 0 0
26.56 0 0
26.6 0 0
26.64 0 0
26.68 0 0
26.72 0 0
26.76 0 0
26.8 0 0
26.84 0 0
26.88 0 0
26.92 0 0
26.96 0 0
27 0 0
27.04 0 0
27.08 0 0
27.12 0 0
27.16 0 0
27.2 0 0
27.24 0 0
27.28 0 0
27.32 0 0
27.36 0 0
27.4 0 0
27.44 0 0
27.48 0 0
27.52 0 0
27.56 0 0
27.6 0 0
27.64 0 0
27.68 0 0
27.72 0 0
27.76 0 0
27.8 0 0
27.84 0 0
27.88 0 0
27.92 0 0
27.96 0 0
28 0 0
28.04 0 0
28.08 0 0
28.12 0 0
28.16 0 0
28.2 0 0
28.24 0 0
28.28 0 0
28.32 0 0
28.36 0 0
28.4 0 0
28.44 0 0
28.48 0 0
28.52 0 0
28.56 0 0
28.6 0 0
28.64 0 0
28.68 0 0
28.72 0 0
28.76 0 0
28.8 0 0
28.84 0 0
28.88 0 0
28.92 0 0
28.96 0 0
29 0 0
29.04 0 0
29.08 0 0
29.12 0 0
29.16 0 0
29.2 0 0
29.24 0 0
29.28 0 0
29.32 0 0
29.36 0 0
29.4 0 0
29.44 0 0
29.48 0 0
29.52 0 0
29.56 0 0
29.6 0 0
29.64 0 0
29.68 0 0
29.72 0 0
29.76 0 0
29.8 0 0
29.84 0 0
29.88 0 0
29.92 0 0
29.96 0 0
30 0 0
30.04 0 0
30.08 0 0
30.12 0 0
30.16 0 0
30.2 0 0
30.24 0 0
30.28 0 0
30.32 0 0
30.36 0 0
30.4 0 0
30.44 0 0
30.48 0 0
30.52 0 0
30.56 0 0
30.6 0 0
30.64 0 0
30.68 0 0
30.72 0 0
30.76 0 0
30.8 0 0
30.84 0 0
30.88 0 0
30.92 0 0
30.96 0 0
31 0 0
31.04 0 0
31.08 0 0
31.12 0 0
31.16 0 0
31.2 0 0
31.24 0 0
31.28 0 0
31.32 0 0
31.36 0 0
31.4 0 0
31.44 0 0
31.48 0 0
31.52 0 0
31.56 0 0
31.6 0 0
31.64 0 0
31.68 0 0
31.72 0 0
31.76 0 0
31.8 0 0
31.84 0 0
31.88 0 0
31.92 0 0
31.96 0 0
0 0.005 0
0.04 0.005 0
0.08 0.005 0
0.12 0.005 0
0.16 0.005 0
0.2 0.005 0
0.24 0.005 0
0.28 0.005 0
0.32 0.005 0
0.36 0.005 0
0.4 0.005 0
0.44 0.005 0
0.48 0.005 0
0.52 0.005 0
0.56 0.005 0
0.6 0.005 0
0.64 0.005 0
0.68 0.005 0
0.72 0.005 0
0.76 0.005 0
0.8 0.005 0
0.84 0.005 0
0.88 0.005 0
0.92 0.005 0
0.96 0.005 0
1 0.005 0
1.04 0.005 0
1.08 0.005 0
1.12 0.005 0
1.16 0.005 0
1.2 0.005 0
1.24 0.005 0
1.28 0.005 0
1.32 0.005 0
1.36 0.005 0
1.4 0.005 0
1.44 0.005 0
1.48 0.005 0
1.52 0.005 0
1.56 0.005 0
1.6 0.005 0
1.64 0.005 0
1.68 0.005 0
1.72 0.005 0
1.76 0.005 0
1.8 0.005 0
1.84 0.005 0
1.88 0.005 0
1.92 0.005 0
1.96 0.005 0
2 0.005 0
2.04 0.005 0
2.08 0.005 0
2.12 0.005 0
2.16 0.005 0
2.2 0.005 0
2.24 0.005 0
2.28 0.005 0
2.32 0.005 0
2.36 0.005 0
2.4 0.005 0
2.44 0.005 0
2.48 0.005 0
2.52 0.005 0
2.56 0.005 0
2.6 0.005 0
2.64 0.005 0
2.68 0.005 0
2.72 0.005 0
2.76 0.005 0
2.8 0.005 0
2.84 0.005 0
2.88 0.005 0
2.92 0.005 0
2.96 0.005 0
3 0.005 0
3.04 0.005 0
3.08 0.005 0
3.12 0.005 0
3.16 0.005 0
3.2 0.005 0
3.24 0.005 0
3.28 0.005 0
3.32 0.005 0
3.36 0.005 0
3.4 0.005 0
3.44 0.005 0
3.48 0.005 0
3.52 0.005 0
3.56 0.005 0
3.6 0.005 0
3.64 0.005 0
3.68 0.005 0
3.72 0.005 0
3.76 0.005 0
3.8 0.005 0
3.84 0.005 0
3.88 0.005 0
3.92 0.005 0
3.96 0.005 0
4 0.005 0
4.04 0.005 0
4.08 0.005 0
4.12 0.005 0
4.16 0.005 0
4.2 0.005 0
4.24 0.005 0
4.28 0.005 0
4.32 0.005 0
4.36 0.005 0
4.4 0.005 0
4.44 0.005 0
4.48 0.005 0
4.52 0.005 0
4.56 0.005 0
4.6 0.005 0
4.64 0.005 0
4.68 0.005 0
4.72 0.005 0
4.76 0.005 0
4.8 0.005 0
4.84 0.005 0
4.88 0.005 0
4.92 0.005 0
4.96 0.005 0
5 0.005 0
5.04 0.005 0
5.08 0.005 0
5.12 0.005 0
5.16 0.005 0
5.2 0.005 0
5.24 0.005 0
5.28 0.005 0
5.32 0.005 0
5.36 0.005 0
5.4 0.005 0
5.44 0.005 0
5.48 0.005 0
5.52 0.005 0
5.56 0.005 0
5.6 0.005 0
5.64 0.005 0
5.68 0.005 0
5.72 0.005 0
5.76 0.005 0
5.8 0.005 0
5.84 0.005 0
5.88 0.005 0
5.92 0.005 0
5.96 0.005 0
6 0.005 0
6.04 0.005 0
6.08 0.005 0
6.12 0.005 0
6.16 0.005 0
6.2 0.005 0
6.24 0.005 0
6.28 0.005 0
6.32 0.005 0
6.36 0.005 0
6.4 0.005 0
6.44 0.005 0
6.48 0.005 0
6.52 0.005 0
6.56 0.005 0
6.6 0.005 0
6.64 0.005 0
6.68 0.005 0
6.72 0.005 0
6.76 0.005 0
6.8 0.005 0
6.84 0.005 0
6.88 0.005 0
6.92 0.005 0
6.96 0.005 0
7 0.005 0
7.04 0.005 0
7.08 0.005 0
7.12 0.005 0
7.16 0.005 0
7.2 0.005 0
7.24 0.005 0
7.28 0.005 0
7.32 0.005 0
7.36 0.005 0
7.4 0.005 0
[...]
POINT_DATA 160000

SCALARS u float 1
LOOKUP_TABLE default
-1
-0.483358
-0.183963
-0.108845
-0.081033
-0.0668336
-0.0581181
-0.0521526
-0.0477773
-0.0444144
-0.0417412
-0.0395614
-0.0377481
-0.0362152
-0.0349014
-0.0337623
-0.0327646
-0.0318829
-0.0310973
-0.0303922
-0.0297552
-0.0291762
-0.0286471
-0.028161
-0.0277124
-0.0272966
-0.0269098
-0.0265486
-0.0262102
-0.0258923
-0.0255928
-0.0253098
-0.025042
-0.0247879
-0.0245463
-0.0243163
-0.0240969
-0.0238873
-0.0236868
-0.0234947
-0.0233105
-0.0231336
-0.0229635
-0.0227999
-0.0226424
-0.0224905
-0.0223439
-0.0222025
-0.0220658
-0.0219336
-0.0218056
-0.0216818
-0.0215618
-0.0214455
-0.0213326
-0.0212231
-0.0211168
-0.0210135
-0.0209131
-0.0208154
-0.0207204
-0.0206279
-0.0205379
-0.0204502
-0.0203647
-0.0202813
-0.0202001
-0.0201208
-0.0200434
-0.0199678
-0.019894
-0.0198219
-0.0197515
-0.0196826
-0.0196153
-0.0195494
-0.019485
-0.0194219
-0.0193602
-0.0192997
-0.0192405
-0.0191825
-0.0191257
-0.01907
-0.0190154
-0.0189619
-0.0189094
-0.0188578
-0.0188073
-0.0187577
-0.018709
-0.0186613
-0.0186143
-0.0185683
-0.018523
-0.0184785
-0.0184348
-0.0183919
-0.0183497
-0.0183082
-0.0182674
-0.0182273
-0.0181878
-0.018149
-0.0181108
-0.0180732
-0.0180363
-0.0179999
-0.017964
-0.0179288
-0.0178941
-0.0178599
-0.0178262
-0.017793
-0.0177604
-0.0177282
-0.0176965
-0.0176652
-0.0176344
-0.0176041
-0.0175742
-0.0175447
-0.0175156
-0.0174869
-0.0174586
-0.0174308
-0.0174033
-0.0173762
-0.0173494
-0.017323
-0.017297
-0.0172713
-0.0172459
-0.0172209
-0.0171962
-0.0171719
-0.0171478
-0.0171241
-0.0171007
-0.0170775
-0.0170547
-0.0170321
-0.0170099
-0.0169879
-0.0169661
-0.0169447
-0.0169235
-0.0169026
-0.0168819
-0.0168615
-0.0168413
-0.0168214
-0.0168017
-0.0167822
-0.016763
-0.016744
-0.0167252
-0.0167066
-0.0166883
-0.0166702
-0.0166523
-0.0166346
-0.0166171
-0.0165997
-0.0165826
-0.0165657
-0.016549
-0.0165325
-0.0165161
-0.0165
-0.016484
-0.0164682
-0.0164526
-0.0164371
-0.0164218
-0.0164067
-0.0163918
-0.016377
-0.0163624
-0.0163479
-0.0163336
-0.0163195
-0.0163055
-0.0162916
-0.0162779
-0.0162644
-0.016251
-0.0162377
-0.0162246
-0.0162116
-0.0161988
-0.0161861
-0.0161735
-0.0161611
-0.0161487
-0.0161366
-0.0161245
-0.0161126
-0.0161008
-0.0160891
-0.0160776
-0.0160661
-0.0160548
-0.0160436
-0.0160325
-0.0160216
-0.0160107
-0.016
-0.0159893
-0.0159788
-0.0159684
-0.0159581
-0.0159479
-0.0159378
-0.0159278
-0.0159179
-0.0159081
-0.0158984
-0.0158888
-0.0158793
-0.0158698
-0.0158605
-0.0158513
-0.0158422
-0.0158332
-0.0158242
-0.0158154
-0.0158066
-0.0157979
-0.0157893
-0.0157808
-0.0157724
-0.015764
-0.0157558
-0.0157476
-0.0157395
-0.0157315
-0.0157236
-0.0157157
-0.0157079
-0.0157002
-0.0156926
-0.0156851
-0.0156776
-0.0156702
-0.0156629
-0.0156556
-0.0156484
-0.0156413
-0.0156343
-0.0156273
-0.0156204
-0.0156135
-0.0156067
-0.0156
-0.0155934
-0.0155868
-0.0155803
-0.0155738
-0.0155675
-0.0155611
-0.0155549
-0.0155486
-0.0155425
-0.0155364
-0.0155304
-0.0155244
-0.0155185
-0.0155126
-0.0155068
-0.0155011
-0.0154954
-0.0154898
-0.0154842
-0.0154787
-0.0154732
-0.0154678
-0.0154624
-0.0154571
-0.0154518
-0.0154466
-0.0154414
-0.0154363
-0.0154312
-0.0154262
-0.0154213
-0.0154163
-0.0154114
-0.0154066
-0.0154018
-0.0153971
-0.0153924
-0.0153877
-0.0153831
-0.0153786
-0.015374
-0.0153696
-0.0153651
-0.0153607
-0.0153564
-0.015352
-0.0153478
-0.0153435
-0.0153393
-0.0153352
-0.0153311
-0.015327
-0.015323
-0.015319
-0.015315
-0.0153111
-0.0153072
-0.0153033
-0.0152995
-0.0152957
-0.015292
-0.0152883
-0.0152846
-0.0152809
-0.0152773
-0.0152737
-0.0152702
-0.0152667
-0.0152632
-0.0152598
-0.0152564
-0.015253
-0.0152497
-0.0152463
-0.0152431
-0.0152398
-0.0152366
-0.0152334
-0.0152303
-0.0152272
-0.0152241
-0.015221
-0.015218
-0.015215
-0.015212
-0.0152091
-0.0152062
-0.0152033
-0.0152004
-0.0151976
-0.0151948
-0.0151921
-0.0151894
-0.0151867
-0.015184
-0.0151814
-0.0151788
-0.0151762
-0.0151736
-0.0151711
-0.0151686
-0.0151662
-0.0151638
-0.0151614
-0.015159
-0.0151566
-0.0151543
-0.015152
-0.0151498
-0.0151476
-0.0151454
-0.0151432
-0.0151411
-0.015139
-0.0151369
-0.0151348
-0.0151328
-0.0151308
-0.0151288
-0.0151269
-0.015125
-0.0151231
-0.0151212
-0.0151194
-0.0151176
-0.0151158
-0.0151141
-0.0151124
-0.0151107
-0.015109
-0.0151074
-0.0151058
-0.0151042
-0.0151026
-0.0151011
-0.0150996
-0.0150981
-0.0150966
-0.0150952
-0.0150938
-0.0150924
-0.015091
-0.0150897
-0.0150884
-0.0150871
-0.0150858
-0.0150846
-0.0150834
-0.0150822
-0.015081
-0.0150799
-0.0150787
-0.0150776
-0.0150765
-0.0150755
-0.0150744
-0.0150734
-0.0150724
-0.0150714
-0.0150704
-0.0150695
-0.0150686
-0.0150676
-0.0150667
-0.0150659
-0.015065
-0.0150642
-0.0150634
-0.0150625
-0.0150618
-0.015061
-0.0150602
-0.0150595
-0.0150588
-0.015058
-0.0150573
-0.0150567
-0.015056
-0.0150553
-0.0150547
-0.015054
-0.0150534
-0.0150528
-0.0150522
-0.0150516
-0.0150511
-0.0150505
-0.01505
-0.0150494
-0.0150489
-0.0150484
-0.0150478
-0.0150473
-0.0150468
-0.0150464
-0.0150459
-0.0150454
-0.015045
-0.0150445
-0.0150441
-0.0150436
-0.0150432
-0.0150428
-0.0150423
-0.0150419
-0.0150415
-0.0150411
-0.0150407
-0.0150403
-0.0150399
-0.0150396
-0.0150392
-0.0150388
-0.0150384
-0.0150381
-0.0150377
-0.0150373
-0.015037
-0.0150366
-0.0150363
-0.0150359
-0.0150356
-0.0150353
-0.0150349
-0.0150346
-0.0150343
-0.0150339
-0.0150336
-0.0150333
-0.0150329
-0.0150326
-0.0150323
-0.015032
-0.0150317
-0.0150313
-0.015031
-0.0150307
-0.0150304
-0.0150301
-0.0150298
-0.0150294
-0.0150291
-0.0150288
-0.0150285
-0.0150282
-0.0150279
-0.0150276
-0.0150273
-0.015027
-0.0150266
-0.0150263
-0.015026
-0.0150257
-0.0150254
-0.0150251
-0.0150248
-0.0150245
-0.0150242
-0.0150239
-0.0150236
-0.0150233
-0.015023
-0.0150227
-0.0150223
-0.015022
-0.0150217
-0.0150214
-0.0150211
-0.0150208
-0.0150205
-0.0150202
-0.0150199
-0.0150196
-0.0150193
-0.015019
-0.0150187
-0.0150184
-0.015018
-0.0150177
-0.0150174
-0.0150171
-0.0150168
-0.0150165
-0.0150162
-0.0150159
-0.0150156
-0.0150153
-0.015015
-0.0150147
-0.0150144
-0.0150141
-0.0150138
-0.0150134
-0.0150131
-0.0150128
-0.0150125
-0.0150122
-0.0150119
-0.0150116
-0.0150113
-0.015011
-0.0150107
-0.0150104
-0.0150101
-0.0150098
-0.0150095
-0.0150091
-0.0150088
-0.0150085
-0.0150082
-0.0150079
-0.0150076
-0.0150073
-0.015007
-0.0150067
-0.0150064
-0.0150061
-0.0150058
-0.0150055
-0.0150052
-0.0150049
-0.0150045
-0.0150042
-0.0150039
-0.0150036
-0.0150033
-0.015003
-0.0150027
-0.0150024
-0.0150021
-0.0150018
-0.0150015
-0.0150012
-0.0150009
-0.0150006
-0.0150003
-0.0149999
-0.0149996
-0.0149993
-0.014999
-0.0149987
-0.0149984
-0.0149981
-0.0149978
-0.0149975
-0.0149972
-0.0149969
-0.0149966
-0.0149963
-0.014996
-0.0149957
-0.0149953
-0.014995
-0.0149947
-0.0149944
-0.0149941
-0.0149938
-0.0149935
-0.0149932
-0.0149929
-0.0149926
-0.0149923
-0.014992
-0.0149917
-0.0149914
-0.014991
-0.0149907
-0.0149904
-0.0149901
-0.0149898
-0.0149895
-0.0149892
-0.0149889
-0.0149886
-0.0149883
-0.014988
-0.0149877
-0.0149874
-0.0149871
-0.0149868
-0.0149864
-0.0149861
-0.0149858
-0.0149855
-0.0149852
-0.0149849
-0.0149846
-0.0149843
-0.014984
-0.0149837
-0.0149834
-0.0149831
-0.0149828
-0.0149825
-0.0149822
-0.0149818
-0.0149815
-0.0149812
-0.0149809
-0.0149806
-0.0149803
-0.01498
-0.0149797
-0.0149794
-0.0149791
-0.0149788
-0.0149785
-0.0149782
-0.0149779
-0.0149776
-0.0149772
-0.0149769
-0.0149766
-0.0149763
-0.014976
-0.0149757
-0.0149754
-0.0149751
-0.0149748
-0.0149745
-0.0149742
-0.0149739
-0.0149736
-0.0149733
-0.014973
-0.0149726
-0.0149723
-0.014972
-0.0149717
-0.0149714
-0.0149711
-0.0149708
-0.0149705
-0.0149702
-0.0149699
-0.0149696
-0.0149693
-0.014969
-0.0149687
-0.0149683
-0.014968
-0.0149677
-0.0149674
-0.0149671
-0.0149668
-0.0149665
-0.0149662
-0.0149659
-0.0149656
-0.0149653
-0.014965
-0.0149647
-0.0149644
-0.0149641
-0.0149637
-0.0149634
-0.0149631
-0.0149628
-0.0149625
-0.0149622
-0.0149619
-0.0149616
-0.0149613
-0.014961
-0.0149607
-0.0149604
-0.0149601
-0.0149598
-0.0149595
-0.0149591
-0.0149588
-0.0149585
-0.0149582
-0.0149579
-0.0149576
-0.0149573
-0.014957
-0.0149567
-0.0149564
-0.0149561
-0.0149558
-0.0149555
-0.0149552
-0.0149549
-0.0149545
-0.0149542
-0.0149539
-0.0149536
-0.0149533
-0.014953
-0.0149527
-0.0149524
-0.0149521
-0.0149518
-0.0149515
-0.0149512
-0.0149509
-0.0149506
-0.0149503
-0.0149499
-0.0149496
-0.0149493
-0.014949
-0.0149487
-0.0149484
-0.0149481
-0.0149478
-0.0149475
-0.0149472
-0.0149469
-0.0149466
-0.0149463
-0.014946
-0.0149457
-0.0149453
-0.014945
-0.0149447
-0.0149444
-0.0149441
-0.0149438
-0.0149435
-0.0149432
-0.0149429
-0.0149426
-0.0149422
-0.0149419
-0.0149416
-0.0149413
-0.014941
-0.0149406
-0.0149403
-0.0149399
-0.0149396
-0.0149392
-0.0149388
-0.0149384
-0.0149379
-0.0149374
-0.0149369
-0.0149362
-0.0149356
-0.0149346
-0.0149342
-0.0149342
-0.0149342
1
0.483358
0.183963
0.108845
0.081033
0.0668336
0.0581181
0.0521526
0.0477773
0.0444144
0.0417412
0.0395614
0.0377481
0.0362152
0.0349014
0.0337623
0.0327646
0.0318829
0.0310973
0.0303922
0.0297552
0.0291762
0.0286471
0.028161
0.0277124
0.0272966
0.0269098
0.0265486
0.0262102
0.0258923
0.0255928
0.0253098
0.025042
0.0247879
0.0245463
0.0243163
0.0240969
0.0238873
0.0236868
0.0234947
0.0233105
0.0231336
0.0229635
0.0227999
0.0226424
0.0224905
0.0223439
0.0222025
0.0220658
0.0219336
0.0218056
0.0216818
0.0215618
0.0214455
0.0213326
0.0212231
0.0211168
0.0210135
0.0209131
0.0208154
0.0207204
0.0206279
0.0205379
0.0204502
0.0203647
0.0202813
0.0202001
0.0201208
0.0200434
0.0199678
0.019894
0.0198219
0.0197515
0.0196826
0.0196153
0.0195494
0.019485
0.0194219
0.0193602
0.0192997
0.0192405
0.0191825
0.0191257
0.01907
0.0190154
0.0189619
0.0189094
0.0188578
0.0188073
0.0187577
0.018709
0.0186613
0.0186143
0.0185683
0.018523
0.0184785
0.0184348
0.0183919
0.0183497
0.0183082
0.0182674
0.0182273
0.0181878
0.018149
0.0181108
0.0180732
0.0180363
0.0179999
0.017964
0.0179288
0.0178941
0.0178599
0.0178262
0.017793
0.0177604
0.0177282
0.0176965
0.0176652
0.0176344
0.0176041
0.0175742
0.0175447
0.0175156
0.0174869
0.0174586
0.0174308
0.0174033
0.0173762
0.0173494
0.017323
0.017297
0.0172713
0.0172459
0.0172209
0.0171962
0.0171719
0.0171478
0.0171241
0.0171007
0.0170775
0.0170547
0.0170321
0.0170099
0.0169879
0.0169661
0.0169447
0.0169235
0.0169026
0.0168819
0.0168615
0.0168413
0.0168214
0.0168017
0.0167822
0.016763
0.016744
0.0167252
0.0167066
0.0166883
0.0166702
0.0166523
0.0166346
0.0166171
0.0165997
0.0165826
0.0165657
0.016549
0.0165325
0.0165161
0.0165
0.016484
0.0164682
0.0164526
0.0164371
0.0164218
0.0164067
0.0163918
0.016377
0.0163624
0.0163479
0.0163336
0.0163195
0.0163055
0.0162916
0.0162779
0.0162644
0.016251
0.0162377
0.0162246
0.0162116
0.0161988
0.0161861
0.0161735
0.0161611
0.0161487
0.0161366
0.0161245
0.0161126
0.0161008
0.0160891
0.0160776
0.0160661
0.0160548
0.0160436
0.0160325
0.0160216
0.0160107
0.016
0.0159893
0.0159788
0.0159684
0.0159581
0.0159479
0.0159378
0.0159278
0.0159179
0.0159081
0.0158984
0.0158888
0.0158793
0.0158698
0.0158605
0.0158513
0.0158422
0.0158332
0.0158242
0.0158154
0.0158066
0.0157979
0.0157893
0.0157808
0.0157724
0.015764
0.0157558
0.0157476
0.0157395
0.0157315
0.0157236
0.0157157
0.0157079
0.0157002
0.0156926
0.0156851
0.0156776
0.0156702
0.0156629
0.0156556
0.0156484
0.0156413
0.0156343
0.0156273
0.0156204
0.0156135
0.0156067
0.0156
0.0155934
0.0155868
0.0155803
0.0155738
0.0155675
0.0155611
0.0155549
0.0155486
0.0155425
0.0155364
0.0155304
0.0155244
0.0155185
0.0155126
0.0155068
0.0155011
0.0154954
0.0154898
0.0154842
0.0154787
0.0154732
0.0154678
0.0154624
0.0154571
0.0154518
0.0154466
0.0154414
0.0154363
0.0154312
0.0154262
0.0154213
0.0154163
0.0154114
0.0154066
0.0154018
0.0153971
0.0153924
0.0153877
0.0153831
0.0153786
0.015374
0.0153696
0.0153651
0.0153607
0.0153564
0.015352
0.0153478
0.0153435
0.0153393
0.0153352
0.0153311
0.015327
0.015323
0.015319
0.015315
0.0153111
0.0153072
0.0153033
0.0152995
0.0152957
0.015292
0.0152883
0.0152846
0.0152809
0.0152773
0.0152737
0.0152702
0.0152667
0.0152632
0.0152598
0.0152564
0.015253
0.0152497
0.0152463
0.0152431
0.0152398
0.0152366
0.0152334
0.0152303
0.0152272
0.0152241
0.015221
0.015218
0.015215
0.015212
0.0152091
0.0152062
0.0152033
0.0152004
0.0151976
0.0151948
0.0151921
0.0151894
0.0151867
0.015184
0.0151814
0.0151788
0.0151762
0.0151736
0.0151711
0.0151686
0.0151662
0.0151638
0.0151614
0.015159
0.0151566
0.0151543
0.015152
0.0151498
0.0151476
0.0151454
0.0151432
0.0151411
0.015139
0.0151369
0.0151348
0.0151328
0.0151308
0.0151288
0.0151269
0.015125
0.0151231
0.0151212
0.0151194
0.0151176
0.0151158
0.0151141
0.0151124
0.0151107
0.015109
0.0151074
0.0151058
0.0151042
0.0151026
0.0151011
0.0150996
0.0150981
0.0150966
0.0150952
0.0150938
0.0150924
0.015091
0.0150897
0.0150884
0.0150871
0.0150858
0.0150846
0.0150834
0.0150822
0.015081
0.0150799
0.0150787
0.0150776
0.0150765
0.0150755
0.0150744
0.0150734
0.0150724
0.0150714
0.0150704
0.0150695
0.0150686
0.0150676
0.0150667
0.0150659
0.015065
0.0150642
0.0150634
0.0150625
0.0150618
0.015061
0.0150602
0.0150595
0.0150588
0.015058
0.0150573
0.0150567
0.015056
0.0150553
0.0150547
0.015054
0.0150534
0.0150528
0.0150522
0.0150516
0.0150511
0.0150505
0.01505
0.0150494
0.0150489
0.0150484
0.0150478
0.0150473
0.0150468
0.0150464
0.0150459
0.0150454
0.015045
0.0150445
0.0150441
0.0150436
0.0150432
0.0150428
0.0150423
0.0150419
0.0150415
0.0150411
0.0150407
0.0150403
0.0150399
0.0150396
0.0150392
0.0150388
0.0150384
0.0150381
0.0150377
0.0150373
0.015037
0.0150366
0.0150363
0.0150359
0.0150356
0.0150353
0.0150349
0.0150346
0.0150343
0.0150339
0.0150336
0.0150333
0.0150329
0.0150326
0.0150323
0.015032
0.0150317
0.0150313
0.015031
0.0150307
0.0150304
0.0150301
0.0150298
0.0150294
0.0150291
0.0150288
0.0150285
0.0150282
0.0150279
0.0150276
0.0150273
0.015027
0.0150266
0.0150263
0.015026
0.0150257
0.0150254
0.0150251
0.0150248
0.0150245
0.0150242
0.0150239
0.0150236
0.0150233
0.015023
0.0150227
0.0150223
0.015022
0.0150217
0.0150214
0.0150211
0.0150208
0.0150205
0.0150202
0.0150199
0.0150196
0.0150193
0.015019
0.0150187
0.0150184
0.015018
0.0150177
0.0150174
0.0150171
0.0150168
0.0150165
0.0150162
0.0150159
0.0150156
0.0150153
0.015015
0.0150147
0.0150144
0.0150141
0.0150138
0.0150134
0.0150131
0.0150128
0.0150125
0.0150122
0.0150119
0.0150116
0.0150113
0.015011
0.0150107
0.0150104
0.0150101
0.0150098
0.0150095
0.0150091
0.0150088
0.0150085
0.0150082
0.0150079
0.0150076
0.0150073
0.015007
0.0150067
0.0150064
0.0150061
0.0150058
0.0150055
0.0150052
0.0150049
0.0150045
0.0150042
0.0150039
0.0150036
0.0150033
0.015003
0.0150027
0.0150024
0.0150021
0.0150018
0.0150015
0.0150012
0.0150009
0.0150006
0.0150003
0.0149999
0.0149996
0.0149993
0.014999
0.0149987
0.0149984
0.0149981
0.0149978
0.0149975
0.0149972
0.0149969
0.0149966
0.0149963
0.014996
0.0149957
0.0149953
0.014995
0.0149947
0.0149944
0.0149941
0.0149938
0.0149935
0.0149932
0.0149929
0.0149926
0.0149923
0.014992
0.0149917
0.0149914
0.014991
0.0149907
0.0149904
0.0149901
0.0149898
0.0149895
0.0149892
0.0149889
0.0149886
0.0149883
0.014988
0.0149877
0.0149874
0.0149871
0.0149868
0.0149864
0.0149861
0.0149858
0.0149855
0.0149852
0.0149849
0.0149846
0.0149843
0.014984
0.0149837
0.0149834
0.0149831
0.0149828
0.0149825
0.0149822
0.0149818
0.0149815
0.0149812
0.0149809
0.0149806
0.0149803
0.01498
0.0149797
0.0149794
0.0149791
0.0149788
0.0149785
0.0149782
0.0149779
0.0149776
0.0149772
0.0149769
0.0149766
0.0149763
0.014976
0.0149757
0.0149754
0.0149751
0.0149748
0.0149745
0.0149742
0.0149739
0.0149736
0.0149733
0.014973
0.0149726
0.0149723
0.014972
0.0149717
0.0149714
0.0149711
0.0149708
0.0149705
0.0149702
0.0149699
0.0149696
0.0149693
0.014969
0.0149687
0.0149683
0.014968
0.0149677
0.0149674
0.0149671
0.0149668
0.0149665
0.0149662
0.0149659
0.0149656
0.0149653
0.014965
0.0149647
0.0149644
0.0149641
0.0149637
0.0149634
0.0149631
0.0149628
0.0149625
0.0149622
0.0149619
0.0149616
0.0149613
0.014961
0.0149607
0.0149604
0.0149601
0.0149598
0.0149595
0.0149591
0.0149588
0.0149585
0.0149582
0.0149579
0.0149576
0.0149573
0.014957
0.0149567
0.0149564
0.0149561
0.0149558
0.0149555
0.0149552
0.0149549
0.0149545
0.0149542
0.0149539
0.0149536
0.0149533
0.014953
0.0149527
0.0149524
0.0149521
0.0149518
0.0149515
0.0149512
0.0149509
0.0149506
0.0149503
0.0149499
0.0149496
0.0149493
0.014949
0.0149487
0.0149484
0.0149481
0.0149478
0.0149475
0.0149472
0.0149469
0.0149466
0.0149463
0.014946
0.0149457
0.0149453
0.014945
0.0149447
0.0149444
0.0149441
0.0149438
0.0149435
0.0149432
0.0149429
0.0149426
0.0149422
0.0149419
0.0149416
0.0149413
0.014941
0.0149406
0.0149403
0.0149399
0.0149396
0.0149392
0.0149388
0.0149384
0.0149379
0.0149374
0.0149369
0.0149362
0.0149356
0.0149346
0.0149342
0.0149342
0.0149342
1
0.969191
0.495616
0.314223
0.237897
0.197396
0.172133
0.154696
0.141842
0.131928
0.124027
0.117573
0.112196
0.107645
0.103742
0.100354
0.0973862
0.0947618
0.092423
0.0903236
0.0884269
0.086703
0.0851275
0.0836806
0.0823455
0.0811084
0.0799577
0.0788835
0.0778775
0.0769326
0.0760425
0.075202
0.0744066
0.0736521
0.0729351
0.0722525
0.0716015
0.0709798
0.0703851
0.0698156
0.0692695
0.0687452
0.0682413
0.0677565
0.0672897
0.0668397
0.0664057
0.0659867
0.0655818
0.0651904
0.0648117
0.064445
0.0640898
0.0637455
0.0634115
0.0630874
0.0627727
0.062467
0.0621698
0.0618809
0.0615998
0.0613262
0.0610598
0.0608003
0.0605474
0.0603009
0.0600605
0.059826
0.0595971
0.0593736
0.0591554
0.0589422
0.0587338
0.0585302
0.0583311
0.0581363
0.0579458
0.0577593
0.0575768
0.0573981
0.0572231
0.0570516
0.0568836
0.056719
0.0565576
0.0563993
0.0562441
0.0560919
0.0559425
0.055796
0.0556521
0.0555109
0.0553722
0.055236
0.0551022
0.0549708
0.0548417
0.0547148
0.0545901
0.0544675
0.0543469
0.0542284
0.0541118
0.0539971
0.0538843
0.0537733
0.053664
0.0535565
0.0534507
0.0533465
0.0532439
0.0531429
0.0530434
0.0529455
0.052849
0.0527539
0.0526602
0.0525679
0.052477
0.0523873
0.052299
0.0522119
0.052126
0.0520413
0.0519578
0.0518755
0.0517943
0.0517142
0.0516352
0.0515573
0.0514804
0.0514045
0.0513297
0.0512558
0.0511829
0.051111
0.05104
0.0509699
0.0509007
0.0508324
0.0507649
0.0506984
0.0506326
0.0505677
0.0505035
0.0504402
0.0503777
0.0503159
0.0502548
0.0501946
0.050135
0.0500762
0.050018
0.0499606
0.0499038
0.0498477
0.0497923
0.0497375
0.0496834
0.0496299
0.049577
0.0495248
0.0494731
0.049422
0.0493715
0.0493216
0.0492723
0.0492235
0.0491753
0.0491276
0.0490804
0.0490338
0.0489877
0.0489421
0.048897
0.0488524
0.0488083
0.0487646
0.0487215
0.0486788
0.0486366
0.0485949
0.0485536
0.0485127
0.0484723
0.0484323
0.0483928
0.0483537
0.048315
0.0482767
0.0482388
0.0482013
0.0481642
0.0481275
0.0480912
0.0480553
0.0480197
0.0479846
0.0479497
0.0479153
0.0478812
0.0478475
0.0478141
0.0477811
0.0477484
0.047716
0.047684
0.0476523
0.0476209
0.0475899
0.0475591
0.0475287
0.0474986
0.0474688
0.0474393
0.0474101
0.0473812
0.0473526
0.0473243
0.0472963
0.0472685
0.047241
0.0472139
0.0471869
0.0471603
0.0471339
0.0471078
0.0470819
0.0470563
0.047031
0.0470059
0.0469811
0.0469565
0.0469321
0.046908
0.0468842
0.0468605
0.0468371
0.046814
0.046791
0.0467683
0.0467458
0.0467236
0.0467015
0.0466797
0.0466581
0.0466367
0.0466155
0.0465945
0.0465737
0.0465531
0.0465327
0.0465126
0.0464926
0.0464728
0.0464532
0.0464338
0.0464146
0.0463956
0.0463767
0.0463581
0.0463396
0.0463213
0.0463031
0.0462852
0.0462674
0.0462498
0.0462324
0.0462151
0.046198
0.0461811
0.0461643
0.0461477
0.0461312
0.0461149
0.0460988
0.0460828
0.046067
0.0460513
0.0460358
0.0460204
0.0460051
0.04599
0.0459751
0.0459603
0.0459456
0.0459311
0.0459167
0.0459024
0.0458883
0.0458743
0.0458605
0.0458468
0.0458332
0.0458197
0.0458064
0.0457932
0.0457801
0.0457671
0.0457543
0.0457415
0.0457289
0.0457164
0.0457041
0.0456918
0.0456797
0.0456677
0.0456558
0.045644
0.0456323
0.0456207
0.0456092
0.0455979
0.0455866
0.0455754
0.0455644
0.0455535
0.0455426
0.0455319
0.0455212
0.0455107
0.0455003
0.0454899
0.0454797
0.0454695
0.0454595
0.0454496
0.0454397
0.04543
0.0454203
0.0454107
0.0454013
0.0453919
0.0453826
0.0453734
0.0453643
0.0453553
0.0453464
0.0453376
0.0453288
0.0453202