# vtk DataFile Version 2.0
FlowField
ASCII
DATASET STRUCTURED_GRID
DIMENSIONS 800 1 200
POINTS 160000 float
0 0 0
0.04 0 0
0.08 0 0
0.12 0 0
0.16 0 0
0.2 0 0
0.24 0 0
0.28 0 0
0.32 0 0
0.36 0 0
0.4 0 0
0.44 0 0
0.48 0 0
0.52 0 0
0.56 0 0
0.6 0 0
0.64 0 0
0.68 0 0
0.72 0 0
0.76 0 0
0.8 0 0
0.84 0 0
0.88 0 0
0.92 0 0
0.96 0 0
1 0 0
1.04 0 0
1.08 0 0
1.12 0 0
1.16 0 0
1.2 0 0
1.24 0 0
1.28 0 0
1.32 0 0
1.36 0 0
1.4 0 0
1.44 0 0
1.48 0 0
1.52 0 0
1.56 0 0
1.6 0 0
1.64 0 0
1.68 0 0
1.72 0 0
1.76 0 0
1.8 0 0
1.84 0 0
1.88 0 0
1.92 0 0
1.96 0 0
2 0 0
2.04 0 0
2.08 0 0
2.12 0 0
2.16 0 0
2.2 0 0
2.24 0 0
2.28 0 0
2.32 0 0
2.36 0 0
2.4 0 0
2.44 0 0
2.48 0 0
2.52 0 0
2.56 0 0
2.6 0 0
2.64 0 0
2.68 0 0
2.72 0 0
2.76 0 0
2.8 0 0
2.84 0 0
2.88 0 0
2.92 0 0
2.96 0 0
3 0 0
3.04 0 0
3.08 0 0
3.12 0 0
3.16 0 0
3.2 0 0
3.24 0 0
3.28 0 0
3.32 0 0
3.36 0 0
3.4 0 0
3.44 0 0
3.48 0 0
3.52 0 0
3.56 0 0
3.6 0 0
3.64 0 0
3.68 0 0
3.72 0 0
3.76 0 0
3.8 0 0
3.84 0 0
3.88 0 0
3.92 0 0
3.96 0 0
4 0 0
4.04 0 0
4.08 0 0
4.12 0 0
4.16 0 0
4.2 0 0
4.24 0 0
4.28 0 0
4.32 0 0
4.36 0 0
4.4 0 0
4.44 0 0
4.48 0 0
4.52 0 0
4.56 0 0
4.6 0 0
4.64 0 0
4.68 0 0
4.72 0 0
4.76 0 0
4.8 0 0
4.84 0 0
4.88 0 0
4.92 0 0
4.96 0 0
5 0 0
5.04 0 0
5.08 0 0
5.12 0 0
5.16 0 0
5.2 0 0
5.24 0 0
5.28 0 0
5.32 0 0
5.36 0 0
5.4 0 0
5.44 0 0
5.48 0 0
5.52 0 0
5.56 0 0
5.6 0 0
5.64 0 0
5.68 0 0
5.72 0 0
5.76 0 0
5.8 0 0
5.84 0 0
5.88 0 0
5.92 0 0
5.96 0 0
6 0 0
6.04 0 0
6.08 0 0
6.12 0 0
6.16 0 0
6.2 0 0
6.24 0 0
6.28 0 0
6.32 0 0
6.36 0 0
6.4 0 0
6.44 0 0
6.48 0 0
6.52 0 0
6.56 0 0
6.6 0 0
6.64 0 0
6.68 0 0
6.72 0 0
6.76 0 0
6.8 0 0
6.84 0 0
6.88 0 0
6.92 0 0
6.96 0 0
7 0 0
7.04 0 0
7.08 0 0
7.12 0 0
7.16 0 0
7.2 0 0
7.24 0 0
7.28 0 0
7.32 0 0
7.36 0 0
7.4 0 0
7.44 0 0
7.48 0 0
7.52 0 0
7.56 0 0
7.6 0 0
7.64 0 0
7.68 0 0
7.72 0 0
7.76 0 0
7.8 0 0
7.84 0 0
7.88 0 0
7.92 0 0
7.96 0 0
8 0 0
8.04 0 0
8.08 0 0
8.12 0 0
8.16 0 0
8.2 0 0
8.24 0 0
8.28 0 0
8.32 0 0
8.36 0 0
8.4 0 0
8.44 0 0
8.48 0 0
8.52 0 0
8.56 0 0
8.6 0 0
8.64 0 0
8.68 0 0
8.72 0 0
8.76 0 0
8.8 0 0
8.84 0 0
8.88 0 0
8.92 0 0
8.96 0 0
9 0 0
9.04 0 0
9.08 0 0
9.12 0 0
9.16 0 0
9.2 0 0
9.24 0 0
9.28 0 0
9.32 0 0
9.36 0 0
9.4 0 0
9.44 0 0
9.48 0 0
9.52 0 0
9.56 0 0
9.6 0 0
9.64 0 0
9.68 0 0
9.72 0 0
9.76 0 0
9.8 0 0
9.84 0 0
9.88 0 0
9.92 0 0
9.96 0 0
10 0 0
10.04 0 0
10.08 0 0
10.12 0 0
10.16 0 0
10.2 0 0
10.24 0 0
10.28 0 0
10.32 0 0
10.36 0 0
10.4 0 0
10.44 0 0
10.48 0 0
10.52 0 0
10.56 0 0
10.6 0 0
10.64 0 0
10.68 0 0
10.72 0 0
10.76 0 0
10.8 0 0
10.84 0 0
10.88 0 0
10.92 0 0
10.96 0 0
11 0 0
11.04 0 0
11.08 0 0
11.12 0 0
11.16 0 0
11.2 0 0
11.24 0 0
11.28 0 0
11.32 0 0
11.36 0 0
11.4 0 0
11.44 0 0
11.48 0 0
11.52 0 0
11.56 0 0
11.6 0 0
11.64 0 0
11.68 0 0
11.72 0 0
11.76 0 0
11.8 0 0
11.84 0 0
11.88 0 0
11.92 0 0
11.96 0 0
12 0 0
12.04 0 0
12.08 0 0
12.12 0 0
12.16 0 0
12.2 0 0
12.24 0 0
12.28 0 0
12.32 0 0
12.36 0 0
12.4 0 0
12.44 0 0
12.48 0 0
12.52 0 0
12.56 0 0
12.6 0 0
12.64 0 0
12.68 0 0
12.72 0 0
12.76 0 0
12.8 0 0
12.84 0 0
12.88 0 0
12.92 0 0
12.96 0 0
13 0 0
13.04 0 0
13.08 0 0
13.12 0 0
13.16 0 0
13.2 0 0
13.24 0 0
13.28 0 0
13.32 0 0
13.36 0 0
13.4 0 0
13.44 0 0
13.48 0 0
13.52 0 0
13.56 0 0
13.6 0 0
13.64 0 0
13.68 0 0
13.72 0 0
13.76 0 0
13.8 0 0
13.84 0 0
13.88 0 0
13.92 0 0
13.96 0 0
14 0 0
14.04 0 0
14.08 0 0
14.12 0 0
14.16 0 0
14.2 0 0
14.24 0 0
14.28 0 0
14.32 0 0
14.36 0 0
14.4 0 0
14.44 0 0
14.48 0 0
14.52 0 0
14.56 0 0
14.6 0 0
14.64 0 0
14.68 0 0
14.72 0 0
14.76 0 0
14.8 0 0
14.84 0 0
14.88 0 0
14.92 0 0
14.96 0 0
15 0 0
15.04 0 0
15.08 0 0
15.12 0 0
15.16 0 0
15.2 0 0
15.24 0 0
15.28 0 0
15.32 0 0
15.36 0 0
15.4 0 0
15.44 0 0
15.48 0 0
15.52 0 0
15.56 0 0
15.6 0 0
15.64 0 0
15.68 0 0
15.72 0 0
15.76 0 0
15.8 0 0
15.84 0 0
15.88 0 0
15.92 0 0
15.96 0 0
16 0 0
16.04 0 0
16.08 0 0
16.12 0 0
16.16 0 0
16.2 0 0
16.24 0 0
16.28 0 0
16.32 0 0
16.36 0 0
16.4 0 0
16.44 0 0
16.48 0 0
16.52 0 0
16.56 0 0
16.6 0 0
16.64 0 0
16.68 0 0
16.72 0 0
16.76 0 0
16.8 0 0
16.84 0 0
16.88 0 0
16.92 0 0
16.96 0 0
17 0 0
17.04 0 0
17.08 0 0
17.12 0 0
17.16 0 0
17.2 0 0
17.24 0 0
17.28 0 0
17.32 0 0
17.36 0 0
17.4 0 0
17.44 0 0
17.48 0 0
17.52 0 0
17.56 0 0
17.6 0 0
17.64 0 0
17.68 0 0
17.72 0 0
17.76 0 0
17.8 0 0
17.84 0 0
17.88 0 0
17.92 0 0
17.96 0 0
18 0 0
18.04 0 0
18.08 0 0
18.12 0 0
18.16 0 0
18.2 0 0
18.24 0 0
18.28 0 0
18.32 0 0
18.36 0 0
18.4 0 0
18.44 0 0
18.48 0 0
18.52 0 0
18.56 0 0
18.6 0 0
18.64 0 0
18.68 0 0
18.72 0 0
18.76 0 0
18.8 0 0
18.84 0 0
18.88 0 0
18.92 0 0
18.96 0 0
19 0 0
19.04 0 0
19.08 0 0
19.12 0 0
19.16 0 0
19.2 0 0
19.24 0 0
19.28 0 0
19.32 0 0
19.36 0 0
19.4 0 0
19.44 0 0
19.48 0 0
19.52 0 0
19.56 0 0
19.6 0 0
19.64 0 0
19.68 0 0
19.72 0 0
19.76 0 0
19.8 0 0
19.84 0 0
19.88 0 0
19.92 0 0
19.96 0 0
20 0 0
20.04 0 0
20.08 0 0
20.12 0 0
20.16 0 0
20.2 0 0
20.24 0 0
20.28 0 0
20.32 0 0
20.36 0 0
20.4 0 0
20.44 0 0
20.48 0 0
20.52 0 0
20.56 0 0
20.6 0 0
20.64 0 0
20.68 0 0
20.72 0 0
20.76 0 0
20.8 0 0
20.84 0 0
20.88 0 0
20.92 0 0
20.96 0 0
21 0 0
21.04 0 0
21.08 0 0
21.12 0 0
21.16 0 0
21.2 0 0
21.24 0 0
21.28 0 0
21.32 0 0
21.36 0 0
21.4 0 0
21.44 0 0
21.48 0 0
21.52 0 0
21.56 0 0
21.6 0 0
21.64 0 0
21.68 0 0
21.72 0 0
21.76 0 0
21.8 0 0
21.84 0 0
21.88 0 0
21.92 0 0
21.96 0 0
22 0 0
22.04 0 0
22.08 0 0
22.12 0 0
22.16 0 0
22.2 0 0
22.24 0 0
22.28 0 0
22.32 0 0
22.36 0 0
22.4 0 0
22.44 0 0
22.48 0 0
22.52 0 0
22.56 0 0
22.6 0 0
22.64 0 0
22.68 0 0
22.72 0 0
22.76 0 0
22.8 0 0
22.84 0 0
22.88 0 0
22.92 0 0
22.96 0 0
23 0 0
23.04 0 0
23.08 0 0
23.12 0 0
23.16 0 0
23.2 0 0
23.24 0 0
23.28 0 0
23.32 0 0
23.36 0 0
23.4 0 0
23.44 0 0
23.48 0 0
23.52 0 0
23.56 0 0
23.6 0 0
23.64 0 0
23.68 0 0
23.72 0 0
23.76 0 0
23.8 0 0
23.84 0 0
23.88 0 0
23.92 0 0
23.96 0 0
24 0 0
24.04 0 0
24.08 0 0
24.12 0 0
24.16 0 0
24.2 0 0
24.24 0 0
24.28 0 0
24.32 0 0
24.36 0 0
24.4 0 0
24.44 0 0
24.48 0 0
24.52 0 0
24.56 0 0
24.6 0 0
24.64 0 0
24.68 0 0
24.72 0 0
24.76 0 0
24.8 0 0
24.84 0 0
24.88 0 0
24.92 0 0
24.96 0 0
25 0 0
25.04 0 0
25.08 0 0
25.12 0 0
25.16 0 0
25.2 0 0
25.24 0 0
25.28 0 0
25.32 0 0
25.36 0 0
25.4 0 0
25.44 0 0
25.48 0 0
25.52 0 0
25.56 0 0
25.6 0 0
25.64 0 0
25.68 0 0
25.72 0 0
25.76 0 0
25.8 0 0
25.84 0 0
25.88 0 0
25.92 0 0
25.96 0 0
26 0 0
26.04 0 0
26.08 0 0
26.12 0 0
26.16 0 0
26.2 0 0
26.24 0 0
26.28 0 0
26.32 0 0
26.36 0 0
26.4 0 0
26.44 0 0
26.48 0 0
26.52 0 0
26.56 0 0
26.6 0 0
26.64 0 0
26.68 0 0
26.72 0 0
26.76 0 0
26.8 0 0
26.84 0 0
26.88 0 0
26.92 0 0
26.96 0 0
27 0 0
27.04 0 0
27.08 0 0
27.12 0 0
27.16 0 0
27.2 0 0
27.24 0 0
27.28 0 0
27.32 0 0
27.36 0 0
27.4 0 0
27.44 0 0
27.48 0 0
27.52 0 0
27.56 0 0
27.6 0 0
27.64 0 0
27.68 0 0
27.72 0 0
27.76 0 0
27.8 0 0
27.84 0 0
27.88 0 0
27.92 0 0
27.96 0 0
28 0 0
28.04 0 0
28.08 0 0
28.12 0 0
28.16 0 0
28.2 0 0
28.24 0 0
28.28 0 0
28.32 0 0
28.36 0 0
28.4 0 0
28.44 0 0
28.48 0 0
28.52 0 0
28.56 0 0
28.6 0 0
28.64 0 0
28.68 0 0
28.72 0 0
28.76 0 0
28.8 0 0
28.84 0 0
28.88 0 0
28.92 0 0
28.96 0 0
29 0 0
29.04 0 0
29.08 0 0
29.12 0 0
29.16 0 0
29.2 0 0
29.24 0 0
29.28 0 0
29.32 0 0
29.36 0 0
29.4 0 0
29.44 0 0
29.48 0 0
29.52 0 0
29.56 0 0
29.6 0 0
29.64 0 0
29.68 0 0
29.72 0 0
29.76 0 0
29.8 0 0
29.84 0 0
29.88 0 0
29.92 0 0
29.96 0 0
30 0 0
30.04 0 0
30.08 0 0
30.12 0 0
30.16 0 0
30.2 0 0
30.24 0 0
30.28 0 0
30.32 0 0
30.36 0 0
30.4 0 0
30.44 0 0
30.48 0 0
30.52 0 0
30.56 0 0
30.6 0 0
30.64 0 0
30.68 0 0
30.72 0 0
30.76 0 0
30.8 0 0
30.84 0 0
30.88 0 0
30.92 0 0
30.96 0 0
31 0 0
31.04 0 0
31.08 0 0
31.12 0 0
31.16 0 0
31.2 0 0
31.24 0 0
31.28 0 0
31.32 0 0
31.36 0 0
31.4 0 0
31.44 0 0
31.48 0 0
31.52 0 0
31.56 0 0
31.6 0 0
31.64 0 0
31.68 0 0
31.72 0 0
31.76 0 0
31.8 0 0
31.84 0 0
31.88 0 0
31.92 0 0
31.96 0 0
0 0.005 0
0.04 0.005 0
0.08 0.005 0
0.12 0.005 0
0.16 0.005 0
0.2 0.005 0
0.24 0.005 0
0.28 0.005 0
0.32 0.005 0
0.36 0.005 0
0.4 0.005 0
0.44 0.005 0
0.48 0.005 0
0.52 0.005 0
0.56 0.005 0
0.6 0.005 0
0.64 0.005 0
0.68 0.005 0
0.72 0.005 0
0.76 0.005 0
0.8 0.005 0
0.84 0.005 0
0.88 0.005 0
0.92 0.005 0
0.96 0.005 0
1 0.005 0
1.04 0.005 0
1.08 0.005 0
1.12 0.005 0
1.16 0.005 0
1.2 0.005 0
1.24 0.005 0
1.28 0.005 0
1.32 0.005 0
1.36 0.005 0
1.4 0.005 0
1.44 0.005 0
1.48 0.005 0
1.52 0.005 0
1.56 0.005 0
1.6 0.005 0
1.64 0.005 0
1.68 0.005 0
1.72 0.005 0
1.76 0.005 0
1.8 0.005 0
1.84 0.005 0
1.88 0.005 0
1.92 0.005 0
1.96 0.005 0
2 0.005 0
2.04 0.005 0
2.08 0.005 0
2.12 0.005 0
2.16 0.005 0
2.2 0.005 0
2.24 0.005 0
2.28 0.005 0
2.32 0.005 0
2.36 0.005 0
2.4 0.005 0
2.44 0.005 0
2.48 0.005 0
2.52 0.005 0
2.56 0.005 0
2.6 0.005 0
2.64 0.005 0
2.68 0.005 0
2.72 0.005 0
2.76 0.005 0
2.8 0.005 0
2.84 0.005 0
2.88 0.005 0
2.92 0.005 0
2.96 0.005 0
3 0.005 0
3.04 0.005 0
3.08 0.005 0
3.12 0.005 0
3.16 0.005 0
3.2 0.005 0
3.24 0.005 0
3.28 0.005 0
3.32 0.005 0
3.36 0.005 0
3.4 0.005 0
3.44 0.005 0
3.48 0.005 0
3.52 0.005 0
3.56 0.005 0
3.6 0.005 0
3.64 0.005 0
3.68 0.005 0
3.72 0.005 0
3.76 0.005 0
3.8 0.005 0
3.84 0.005 0
3.88 0.005 0
3.92 0.005 0
3.96 0.005 0
4 0.005 0
4.04 0.005 0
4.08 0.005 0
4.12 0.005 0
4.16 0.005 0
4.2 0.005 0
4.24 0.005 0
4.28 0.005 0
4.32 0.005 0
4.36 0.005 0
4.4 0.005 0
4.44 0.005 0
4.48 0.005 0
4.52 0.005 0
4.56 0.005 0
4.6 0.005 0
4.64 0.005 0
4.68 0.005 0
4.72 0.005 0
4.76 0.005 0
4.8 0.005 0
4.84 0.005 0
4.88 0.005 0
4.92 0.005 0
4.96 0.005 0
5 0.005 0
5.04 0.005 0
5.08 0.005 0
5.12 0.005 0
5.16 0.005 0
5.2 0.005 0
5.24 0.005 0
5.28 0.005 0
5.32 0.005 0
5.36 0.005 0
5.4 0.005 0
5.44 0.005 0
5.48 0.005 0
5.52 0.005 0
5.56 0.005 0
5.6 0.005 0
5.64 0.005 0
5.68 0.005 0
5.72 0.005 0
5.76 0.005 0
5.8 0.005 0
5.84 0.005 0
5.88 0.005 0
5.92 0.005 0
5.96 0.005 0
6 0.005 0
6.04 0.005 0
6.08 0.005 0
6.12 0.005 0
6.16 0.005 0
6.2 0.005 0
6.24 0.005 0
6.28 0.005 0
6.32 0.005 0
6.36 0.005 0
6.4 0.005 0
6.44 0.005 0
6.48 0.005 0
6.52 0.005 0
6.56 0.005 0
6.6 0.005 0
6.64 0.005 0
6.68 0.005 0
6.72 0.005 0
6.76 0.005 0
6.8 0.005 0
6.84 0.005 0
6.88 0.005 0
6.92 0.005 0
6.96 0.005 0
7 0.005 0
7.04 0.005 0
7.08 0.005 0
7.12 0.005 0
7.16 0.005 0
7.2 0.005 0
7.24 0.005 0
7.28 0.005 0
7.32 0.005 0
7.36 0.005 0
7.4 0.005 0
[...]
POINT_DATA 160000

SCALARS p float 1
LOOKUP_TABLE default
1
65.9387
63.7232
63.4683
63.4082
63.3818
63.3657
63.3541
63.3449
63.337
63.3301
63.3237
63.3179
63.3123
63.307
63.3019
63.2969
63.2921
63.2874
63.2827
63.2782
63.2737
63.2694
63.265
63.2607
63.2565
63.2524
63.2483
63.2442
63.2402
63.2362
63.2323
63.2284
63.2246
63.2208
63.2171
63.2133
63.2097
63.206
63.2024
63.1989
63.1954
63.1919
63.1884
63.185
63.1816
63.1782
63.1749
63.1716
63.1683
63.165
63.1618
63.1586
63.1554
63.1523
63.1492
63.1461
63.143
63.1399
63.1369
63.1339
63.1309
63.1279
63.125
63.122
63.1191
63.1162
63.1134
63.1105
63.1077
63.1048
63.102
63.0992
63.0965
63.0937
63.091
63.0882
63.0855
63.0828
63.0801
63.0775
63.0748
63.0722
63.0695
63.0669
63.0643
63.0617
63.0592
63.0566
63.054
63.0515
63.049
63.0464
63.0439
63.0414
63.0389
63.0365
63.034
63.0315
63.0291
63.0267
63.0242
63.0218
63.0194
63.017
63.0146
63.0123
63.0099
63.0075
63.0052
63.0028
63.0005
62.9982
62.9958
62.9935
62.9912
62.9889
62.9867
62.9844
62.9821
62.9798
62.9776
62.9753
62.9731
62.9709
62.9686
62.9664
62.9642
62.962
62.9598
62.9576
62.9554
62.9532
62.9511
62.9489
62.9467
62.9446
62.9424
62.9403
62.9381
62.936
62.9339
62.9318
62.9296
62.9275
62.9254
62.9233
62.9212
62.9191
62.9171
62.915
62.9129
62.9108
62.9088
62.9067
62.9047
62.9026
62.9006
62.8986
62.8965
62.8945
62.8925
62.8904
62.8884
62.8864
62.8844
62.8824
62.8804
62.8784
62.8764
62.8745
62.8725
62.8705
62.8685
62.8666
62.8646
62.8626
62.8607
62.8587
62.8568
62.8548
62.8529
62.851
62.849
62.8471
62.8452
62.8433
62.8413
62.8394
62.8375
62.8356
62.8337
62.8318
62.8299
62.828
62.8261
62.8242
62.8223
62.8205
62.8186
62.8167
62.8148
62.813
62.8111
62.8092
62.8074
62.8055
62.8037
62.8018
62.8
62.7981
62.7963
62.7944
62.7926
62.7908
62.7889
62.7871
62.7853
62.7834
62.7816
62.7798
62.778
62.7762
62.7744
62.7726
62.7707
62.7689
62.7671
62.7653
62.7635
62.7617
62.76
62.7582
62.7564
62.7546
62.7528
62.751
62.7492
62.7475
62.7457
62.7439
62.7421
62.7404
62.7386
62.7368
62.7351
62.7333
62.7316
62.7298
62.7281
62.7263
62.7246
62.7228
62.7211
62.7193
62.7176
62.7158
62.7141
62.7123
62.7106
62.7089
62.7071
62.7054
62.7037
62.702
62.7002
62.6985
62.6968
62.6951
62.6933
62.6916
62.6899
62.6882
62.6865
62.6848
62.6831
62.6813
62.6796
62.6779
62.6762
62.6745
62.6728
62.6711
62.6694
62.6677
62.666
62.6643
62.6626
62.6609
62.6593
62.6576
62.6559
62.6542
62.6525
62.6508
62.6491
62.6475
62.6458
62.6441
62.6424
62.6407
62.6391
62.6374
62.6357
62.634
62.6324
62.6307
62.629
62.6274
62.6257
62.624
62.6224
62.6207
62.619
62.6174
62.6157
62.6141
62.6124
62.6108
62.6091
62.6074
62.6058
62.6041
62.6025
62.6008
62.5992
62.5975
62.5959
62.5942
62.5926
62.5909
62.5893
62.5876
62.586
62.5844
62.5827
62.5811
62.5794
62.5778
62.5762
62.5745
62.5729
62.5713
62.5696
62.568
62.5663
62.5647
62.5631
62.5615
62.5598
62.5582
62.5566
62.5549
62.5533
62.5517
62.5501
62.5484
62.5468
62.5452
62.5436
62.5419
62.5403
62.5387
62.5371
62.5354
62.5338
62.5322
62.5306
62.529
62.5274
62.5257
62.5241
62.5225
62.5209
62.5193
62.5177
62.516
62.5144
62.5128
62.5112
62.5096
62.508
62.5064
62.5048
62.5032
62.5016
62.4999
62.4983
62.4967
62.4951
62.4935
62.4919
62.4903
62.4887
62.4871
62.4855
62.4839
62.4823
62.4807
62.4791
62.4775
62.4759
62.4743
62.4727
62.4711
62.4695
62.4679
62.4663
62.4647
62.4631
62.4615
62.4599
62.4583
62.4567
62.4551
62.4535
62.4519
62.4504
62.4488
62.4472
62.4456
62.444
62.4424
62.4408
62.4392
62.4376
62.436
62.4344
62.4328
62.4313
62.4297
62.4281
62.4265
62.4249
62.4233
62.4217
62.4201
62.4186
62.417
62.4154
62.4138
62.4122
62.4106
62.409
62.4075
62.4059
62.4043
62.4027
62.4011
62.3995
62.398
62.3964
62.3948
62.3932
62.3916
62.3901
62.3885
62.3869
62.3853
62.3837
62.3822
62.3806
62.379
62.3774
62.3758
62.3743
62.3727
62.3711
62.3695
62.368
62.3664
62.3648
62.3632
62.3616
62.3601
62.3585
62.3569
62.3553
62.3538
62.3522
62.3506
62.349
62.3475
62.3459
62.3443
62.3427
62.3412
62.3396
62.338
62.3365
62.3349
62.3333
62.3317
62.3302
62.3286
62.327
62.3254
62.3239
62.3223
62.3207
62.3192
62.3176
62.316
62.3145
62.3129
62.3113
62.3097
62.3082
62.3066
62.305
62.3035
62.3019
62.3003
62.2988
62.2972
62.2956
62.2941
62.2925
62.2909
62.2894
62.2878
62.2862
62.2847
62.2831
62.2815
62.28
62.2784
62.2768
62.2753
62.2737
62.2721
62.2706
62.269
62.2674
62.2659
62.2643
62.2627
62.2612
62.2596
62.258
62.2565
62.2549
62.2533
62.2518
62.2502
62.2487
62.2471
62.2455
62.244
62.2424
62.2408
62.2393
62.2377
62.2361
62.2346
62.233
62.2315
62.2299
62.2283
62.2268
62.2252
62.2236
62.2221
62.2205
62.219
62.2174
62.2158
62.2143
62.2127
62.2112
62.2096
62.208
62.2065
62.2049
62.2034
62.2018
62.2002
62.1987
62.1971
62.1956
62.194
62.1924
62.1909
62.1893
62.1878
62.1862
62.1846
62.1831
62.1815
62.18
62.1784
62.1768
62.1753
62.1737
62.1722
62.1706
62.1691
62.1675
62.1659
62.1644
62.1628
62.1613
62.1597
62.1582
62.1566
62.155
62.1535
62.1519
62.1504
62.1488
62.1473
62.1457
62.1441
62.1426
62.141
62.1395
62.1379
62.1364
62.1348
62.1332
62.1317
62.1301
62.1286
62.127
62.1255
62.1239
62.1223
62.1208
62.1192
62.1177
62.1161
62.1146
62.113
62.1115
62.1099
62.1084
62.1068
62.1052
62.1037
62.1021
62.1006
62.099
62.0975
62.0959
62.0944
62.0928
62.0913
62.0897
62.0881
62.0866
62.085
62.0835
62.0819
62.0804
62.0788
62.0773
62.0757
62.0742
62.0726
62.0711
62.0695
62.0679
62.0664
62.0648
62.0633
62.0617
62.0602
62.0586
62.0571
62.0555
62.054
62.0524
62.0509
62.0493
62.0478
62.0462
62.0447
62.0431
62.0415
62.04
62.0384
62.0369
62.0353
62.0338
62.0322
62.0307
62.0291
62.0276
62.026
62.0245
62.0229
62.0214
62.0198
62.0183
62.0167
62.0152
62.0136
62.0121
62.0105
62.009
62.0074
62.0059
62.0043
62.0028
62.0012
61.9997
61.9981
61.9966
61.995
61.9935
61.9919
61.9904
61.9888
61.9873
61.9857
61.9841
61.9826
61.981
61.9795
61.9779
61.9764
61.9748
61.9733
61.9717
61.9702
61.9686
61.9671
61.9655
61.964
61.9625
61.9609
61.9594
61.9578
61.9563
61.9547
61.9532
61.9516
61.9501
61.9485
61.947
61.9454
61.9439
61.9423
61.9408
61.9392
61.9377
61.9361
61.9346
61.933
61.9315
61.9299
61.9284
61.9268
61.9253
61.9237
61.9222
61.9206
61.9191
61.9175
61.916
61.9144
61.9129
61.9113
61.9098
61.9082
61.9067
61.9051
61.9036
61.902
61.9005
61.899
61.8974
61.8959
61.8943
61.8928
61.8912
61.8897
61.8881
61.8866
61.885
61.8835
61.8819
61.8804
61.8788
61.8773
61.8757
61.8742
61.8726
61.8711
61.8696
61.868
61.8665
61.8649
61.8634
61.8618
61.8603
61.8587
61.8572
61.8556
1
65.9387
65.9387
63.7232
63.4683
63.4082
63.3818
63.3657
63.3541
63.3449
63.337
63.3301
63.3237
63.3179
63.3123
63.307
63.3019
63.2969
63.2921
63.2874
63.2827
63.2782
63.2737
63.2694
63.265
63.2607
63.2565
63.2524
63.2483
63.2442
63.2402
63.2362
63.2323
63.2284
63.2246
63.2208
63.2171
63.2133
63.2097
63.206
63.2024
63.1989
63.1954
63.1919
63.1884
63.185
63.1816
63.1782
63.1749
63.1716
63.1683
63.165
63.1618
63.1586
63.1554
63.1523
63.1492
63.1461
63.143
63.1399
63.1369
63.1339
63.1309
63.1279
63.125
63.122
63.1191
63.1162
63.1134
63.1105
63.1077
63.1048
63.102
63.0992
63.0965
63.0937
63.091
63.0882
63.0855
63.0828
63.0801
63.0775
63.0748
63.0722
63.0695
63.0669
63.0643
63.0617
63.0592
63.0566
63.054
63.0515
63.049
63.0464
63.0439
63.0414
63.0389
63.0365
63.034
63.0315
63.0291
63.0267
63.0242
63.0218
63.0194
63.017
63.0146
63.0123
63.0099
63.0075
63.0052
63.0028
63.0005
62.9982
62.9958
62.9935
62.9912
62.9889
62.9867
62.9844
62.9821
62.9798
62.9776
62.9753
62.9731
62.9709
62.9686
62.9664
62.9642
62.962
62.9598
62.9576
62.9554
62.9532
62.9511
62.9489
62.9467
62.9446
62.9424
62.9403
62.9381
62.936
62.9339
62.9318
62.9296
62.9275
62.9254
62.9233
62.9212
62.9191
62.9171
62.915
62.9129
62.9108
62.9088
62.9067
62.9047
62.9026
62.9006
62.8986
62.8965
62.8945
62.8925
62.8904
62.8884
62.8864
62.8844
62.8824
62.8804
62.8784
62.8764
62.8745
62.8725
62.8705
62.8685
62.8666
62.8646
62.8626
62.8607
62.8587
62.8568
62.8548
62.8529
62.851
62.849
62.8471
62.8452
62.8433
62.8413
62.8394
62.8375
62.8356
62.8337
62.8318
62.8299
62.828
62.8261
62.8242
62.8223
62.8205
62.8186
62.8167
62.8148
62.813
62.8111
62.8092
62.8074
62.8055
62.8037
62.8018
62.8
62.7981
62.7963
62.7944
62.7926
62.7908
62.7889
62.7871
62.7853
62.7834
62.7816
62.7798
62.778
62.7762
62.7744
62.7726
62.7707
62.7689
62.7671
62.7653
62.7635
62.7617
62.76
62.7582
62.7564
62.7546
62.7528
62.751
62.7492
62.7475
62.7457
62.7439
62.7421
62.7404
62.7386
62.7368
62.7351
62.7333
62.7316
62.7298
62.7281
62.7263
62.7246
62.7228
62.7211
62.7193
62.7176
62.7158
62.7141
62.7123
62.7106
62.7089
62.7071
62.7054
62.7037
62.702
62.7002
62.6985
62.6968
62.6951
62.6933
62.6916
62.6899
62.6882
62.6865
62.6848
62.6831
62.6813
62.6796
62.6779
62.6762
62.6745
62.6728
62.6711
62.6694
62.6677
62.666
62.6643
62.6626
62.6609
62.6593
62.6576
62.6559
62.6542
62.6525
62.6508
62.6491
62.6475
62.6458
62.6441
62.6424
62.6407
62.6391
62.6374
62.6357
62.634
62.6324
62.6307
62.629
62.6274
62.6257
62.624
62.6224
62.6207
62.619
62.6174
62.6157
62.6141
62.6124
62.6108
62.6091
62.6074
62.6058
62.6041
62.6025
62.6008
62.5992
62.5975
62.5959
62.5942
62.5926
62.5909
62.5893
62.5876
62.586
62.5844
62.5827
62.5811
62.5794
62.5778
62.5762
62.5745
62.5729
62.5713
62.5696
62.568
62.5663
62.5647
62.5631
62.5615
62.5598
62.5582
62.5566
62.5549
62.5533
62.5517
62.5501
62.5484
62.5468
62.5452
62.5436
62.5419
62.5403
62.5387
62.5371
62.5354
62.5338
62.5322
62.5306
62.529
62.5274
62.5257
62.5241
62.5225
62.5209
62.5193
62.5177
62.516
62.5144
62.5128
62.5112
62.5096
62.508
62.5064
62.5048
62.5032
62.5016
62.4999
62.4983
62.4967
62.4951
62.4935
62.4919
62.4903
62.4887
62.4871
62.4855
62.4839
62.4823
62.4807
62.4791
62.4775
62.4759
62.4743
62.4727
62.4711
62.4695
62.4679
62.4663
62.4647
62.4631
62.4615
62.4599
62.4583
62.4567
62.4551
62.4535
62.4519
62.4504
62.4488
62.4472
62.4456
62.444
62.4424
62.4408
62.4392
62.4376
62.436
62.4344
62.4328
62.4313
62.4297
62.4281
62.4265
62.4249
62.4233
62.4217
62.4201
62.4186
62.417
62.4154
62.4138
62.4122
62.4106
62.409
62.4075
62.4059
62.4043
62.4027
62.4011
62.3995
62.398
62.3964
62.3948
62.3932
62.3916
62.3901
62.3885
62.3869
62.3853
62.3837
62.3822
62.3806
62.379
62.3774
62.3758
62.3743
62.3727
62.3711
62.3695
62.368
62.3664
62.3648
62.3632
62.3616
62.3601
62.3585
62.3569
62.3553
62.3538
62.3522
62.3506
62.349
62.3475
62.3459
62.3443
62.3427
62.3412
62.3396
62.338
62.3365
62.3349
62.3333
62.3317
62.3302
62.3286
62.327
62.3254
62.3239
62.3223
62.3207
62.3192
62.3176
62.316
62.3145
62.3129
62.3113
62.3097
62.3082
62.3066
62.305
62.3035
62.3019
62.3003
62.2988
62.2972
62.2956
62.2941
62.2925
62.2909
62.2894
62.2878
62.2862
62.2847
62.2831
62.2815
62.28
62.2784
62.2768
62.2753
62.2737
62.2721
62.2706
62.269
62.2674
62.2659
62.2643
62.2627
62.2612
62.2596
62.258
62.2565
62.2549
62.2533
62.2518
62.2502
62.2487
62.2471
62.2455
62.244
62.2424
62.2408
62.2393
62.2377
62.2361
62.2346
62.233
62.2315
62.2299
62.2283
62.2268
62.2252
62.2236
62.2221
62.2205
62.219
62.2174
62.2158
62.2143
62.2127
62.2112
62.2096
62.208
62.2065
62.2049
62.2034
62.2018
62.2002
62.1987
62.1971
62.1956
62.194
62.1924
62.1909
62.1893
62.1878
62.1862
62.1846
62.1831
62.1815
62.18
62.1784
62.1768
62.1753
62.1737
62.1722
62.1706
62.1691
62.1675
62.1659
62.1644
62.1628
62.1613
62.1597
62.1582
62.1566
62.155
62.1535
62.1519
62.1504
62.1488
62.1473
62.1457
62.1441
62.1426
62.141
62.1395
62.1379
62.1364
62.1348
62.1332
62.1317
62.1301
62.1286
62.127
62.1255
62.1239
62.1223
62.1208
62.1192
62.1177
62.1161
62.1146
62.113
62.1115
62.1099
62.1084
62.1068
62.1052
62.1037
62.1021
62.1006
62.099
62.0975
62.0959
62.0944
62.0928
62.0913
62.0897
62.0881
62.0866
62.085
62.0835
62.0819
62.0804
62.0788
62.0773
62.0757
62.0742
62.0726
62.0711
62.0695
62.0679
62.0664
62.0648
62.0633
62.0617
62.0602
62.0586
62.0571
62.0555
62.054
62.0524
62.0509
62.0493
62.0478
62.0462
62.0447
62.0431
62.0415
62.04
62.0384
62.0369
62.0353
62.0338
62.0322
62.0307
62.0291
62.0276
62.026
62.0245
62.0229
62.0214
62.0198
62.0183
62.0167
62.0152
62.0136
62.0121
62.0105
62.009
62.0074
62.0059
62.0043
62.0028
62.0012
61.9997
61.9981
61.9966
61.995
61.9935
61.9919
61.9904
61.9888
61.9873
61.9857
61.9841
61.9826
61.981
61.9795
61.9779
61.9764
61.9748
61.9733
61.9717
61.9702
61.9686
61.9671
61.9655
61.964
61.9625
61.9609
61.9594
61.9578
61.9563
61.9547
61.9532
61.9516
61.9501
61.9485
61.947
61.9454
61.9439
61.9423
61.9408
61.9392
61.9377
61.9361
61.9346
61.933
61.9315
61.9299
61.9284
61.9268
61.9253
61.9237
61.9222
61.9206
61.9191
61.9175
61.916
61.9144
61.9129
61.9113
61.9098
61.9082
61.9067
61.9051
61.9036
61.902
61.9005
61.899
61.8974
61.8959
61.8943
61.8928
61.8912
61.8897
61.8881
61.8866
61.885
61.8835
61.8819
61.8804
61.8788
61.8773
61.8757
61.8742
61.8726
61.8711
61.8696
61.868
61.8665
61.8649
61.8634
61.8618
61.8603
61.8587
61.8572
61.8556
61.8556
65.2916
65.2916
63.7336
63.4778
63.4123
63.384
63.3671
63.3551
63.3456
63.3376
63.3305
63.3241
63.3182
63.3126
63.3072
63.3021
63.2971
63.2922
63.2875
63.2829
63.2783
63.2738
63.2694
63.2651
63.2608
63.2566
63.2524
63.2483
63.2443
63.2402
63.2363
63.2324
63.2285
63.2246
63.2208
63.2171
63.2134
63.2097
63.2061
63.2025
63.1989
63.1954
63.1919
63.1884
63.185
63.1816
63.1782
63.1749
63.1716
63.1683
63.1651
63.1618
63.1586
63.1555
63.1523
63.1492
63.1461
63.143
63.1399
63.1369
63.1339
63.1309
63.1279
63.125
63.1221
63.1191
63.1162
63.1134
63.1105
63.1077
63.1049
63.102
63.0993
63.0965
63.0937
63.091
63.0883
63.0855
63.0828
63.0802
63.0775
63.0748
63.0722
63.0696
63.0669
63.0643
63.0617
63.0592
63.0566
63.054
63.0515
63.049
63.0465
63.0439
63.0414
63.039
63.0365
63.034
63.0316
63.0291
63.0267
63.0243
63.0218
63.0194
63.017
63.0146
63.0123
63.0099
63.0075
63.0052
63.0028
63.0005
62.9982
62.9959
62.9935
62.9912
62.989
62.9867
62.9844
62.9821
62.9799
62.9776
62.9753
62.9731
62.9709
62.9686
62.9664
62.9642
62.962
62.9598
62.9576
62.9554
62.9532
62.9511
62.9489
62.9467
62.9446
62.9424
62.9403
62.9381
62.936
62.9339
62.9318
62.9296
62.9275
62.9254
62.9233
62.9212
62.9192
62.9171
62.915
62.9129
62.9109
62.9088
62.9067
62.9047
62.9026
62.9006
62.8986
62.8965
62.8945
62.8925
62.8905
62.8884
62.8864
62.8844
62.8824
62.8804
62.8784
62.8764
62.8745
62.8725
62.8705
62.8685
62.8666
62.8646
62.8626
62.8607
62.8587
62.8568
62.8548
62.8529
62.851
62.849
62.8471
62.8452
62.8433
62.8413
62.8394
62.8375
62.8356
62.8337
62.8318
62.8299
62.828
62.8261
62.8242
62.8223
62.8205
62.8186
62.8167
62.8148
62.813
62.8111
62.8092
62.8074
62.8055
62.8037
62.8018
62.8
62.7981
62.7963
62.7944
62.7926
62.7908
62.7889
62.7871
62.7853
62.7834
62.7816
62.7798
62.778
62.7762
62.7744
62.7726
62.7707
62.7689
62.7671
62.7653
62.7635
62.7618
62.76
62.7582
62.7564
62.7546
62.7528
62.751
62.7492
62.7475
62.7457
62.7439
62.7422
62.7404
62.7386
62.7369
62.7351
62.7333
62.7316
62.7298
62.7281
62.7263
62.7246
62.7228
62.7211
62.7193
62.7176
62.7158
62.7141
62.7124
62.7106
62.7089
62.7071
62.7054
62.7037
62.702
62.7002
62.6985
62.6968
62.6951
62.6933
62.6916
62.6899
62.6882
62.6865
62.6848
62.6831
62.6813
62.6796
62.6779
62.6762
62.6745
62.6728
62.6711
62.6694
62.6677
62.666
62.6643
62.6626
62.661
62.6593
62.6576
62.6559
62.6542
62.6525
62.6508
62.6491
62.6475
62.6458
62.6441
62.6424
62.6407
62.6391
62.6374
62.6357
62.6341
62.6324
62.6307
62.629
62.6274
62.6257
62.624
62.6224
62.6207
62.6191
62.6174
62.6157
62.6141
62.6124
62.6108
62.6091
62.6074
62.6058
62.6041
62.6025
62.6008
62.5992
62.5975
62.5959
62.5942
62.5926
62.5909
62.5893
62.5877
62.586
62.5844
62.5827
62.5811
62.5794
62.5778
62.5762
62.5745
62.5729
62.5713
62.5696
62.568
62.5664
62.5647
62.5631
62.5615
62.5598
62.5582
62.5566
62.5549
62.5533
62.5517
62.5501
62.5484
62.5468
62.5452
62.5436
62.5419
62.5403
62.5387
62.5371
62.5354
62.5338
62.5322
62.5306
62.529
62.5274
62.5257
62.5241
62.5225
62.5209
62.5193
62.5177
62.5161
62.5144
62.5128
62.5112
62.5096
62.508
62.5064
62.5048
62.5032
62.5016
62.5
62.4983
62.4967
62.4951
62.4935
62.4919
62.4903
62.4887
62.4871
62.4855
62.4839
62.4823
62.4807
62.4791
62.4775
62.4759
62.4743
62.4727
62.4711
62.4695
62.4679
62.4663
62.4647
62.4631
62.4615
62.4599
62.4583
62.4567
62.4551
62.4535
62.4519
62.4504
62.4488
62.4472
62.4456
62.444
62.4424
62.4408
62.4392
62.4376
62.436
62.4344
62.4329
62.4313
62.4297
62.4281
62.4265
62.4249
62.4233
62.4217
62.4201
62.4186
62.417
62.4154
62.4138
62.4122
62.4106
62.4091
62.4075
62.4059
62.4043
62.4027
62.4011
62.3996
62.398
62.3964
62.3948
62.3932
62.3916
62.3901
62.3885
62.3869
62.3853
62.3837
62.3822
62.3806
62.379
62.3774
62.3758
62.3743
62.3727
62.3711
62.3695
62.368
62.3664
62.3648
62.3632
62.3616
62.3601
62.3585
62.3569
62.3553
62.3538
62.3522
62.3506
62.349
62.3475
62.3459
62.3443
62.3427
62.3412
62.3396
62.338
62.3365
62.3349
62.3333
62.3317
62.3302
62.3286
62.327
62.3255
62.3239
62.3223
62.3207
62.3192
62.3176
62.316
62.3145
62.3129
62.3113
62.3097
62.3082
62.3066
62.305
62.3035
62.3019
62.3003
62.2988
62.2972
62.2956
62.2941
62.2925
62.2909
62.2894
62.2878
62.2862
62.2847
62.2831
62.2815
62.28
62.2784
62.2768
62.2753
62.2737
62.2721
62.2706
62.269
62.2674
62.2659
62.2643
62.2627
62.2612
62.2596
62.258
62.2565
62.2549
62.2533
62.2518
62.2502
62.2487
62.2471
62.2455
62.244
62.2424
62.2408
62.2393
62.2377
62.2362
62.2346
62.233
62.2315
62.2299
62.2283
62.2268
62.2252
62.2237
62.2221
62.2205
62.219
62.2174
62.2158
62.2143
62.2127
62.2112
62.2096
62.208
62.2065
62.2049
62.2034
62.2018
62.2002
62.1987
62.1971
62.1956
62.194
62.1924
62.1909
62.1893
62.1878
62.1862
62.1846
62.1831
62.1815
62.18
62.1784
62.1769
62.1753
62.1737
62.1722
62.1706
62.1691
62.1675
62.1659
62.1644
62.1628
62.1613
62.1597
62.1582
62.1566
62.155
62.1535
62.1519
62.1504
62.1488
62.1473
62.1457
62.1441
62.1426
62.141
62.1395
62.1379
62.1364
62.1348
62.1332
62.1317
62.1301
62.1286
62.127
62.1255
62.1239
62.1224
62.1208
62.1192
62.1177
62.1161
62.1146
62.113
62.1115
62.1099
62.1084
62.1068
62.1052
62.1037
62.1021
62.1006
62.099
62.0975
62.0959
62.0944
62.0928
62.0913
62.0897
62.0881
62.0866
62.085
62.0835
62.0819
62.0804
62.0788
62.0773
62.0757
62.0742
62.0726
62.0711
62.0695
62.0679
62.0664
62.0648
62.0633
62.0617
62.0602
62.0586
62.0571
62.0555
62.054
62.0524
62.0509
62.0493
62.0478
62.0462
62.0447
62.0431
62.0416
62.04
62.0384
62.0369
62.0353
62.0338
62.0322
62.0307
62.0291
62.0276
62.026
62.0245
62.0229
62.0214
62.0198
62.0183
62.0167
62.0152
62.0136
62.0121
62.0105
62.009
62.0074
62.0059
62.0043
62.0028
62.0012
61.9997
61.9981
61.9966
61.995
61.9935
61.9919
61.9904
61.9888
61.9873
61.9857
61.9842
61.9826
61.9811
61.9795
61.978
61.9764
61.9749
61.9733
61.9718
61.9702
61.9687
61.9671
61.9656
61.964
61.9625
61.9609
61.9594
61.9578
61.9563
61.9547
61.9532
61.9516
61.9501
61.9485
61.947
61.9454
61.9439
61.9423
61.9408
61.9392
61.9377
61.9361
61.9346
61.933
61.9315
61.9299
61.9284
61.9268
61.9253
61.9237
61.9222
61.9206
61.9191
61.9175
61.916
61.9144
61.9129
61.9113
61.9098
61.9082
61.9067
61.9051
61.9036
61.9021
61.9005
61.899
61.8974
61.8959
61.8943
61.8928
61.8912
61.8897
61.8881
61.8866
61.885
61.8835
61.8819
61.8804
61.8788
61.8773
61.8757
61.8742
61.8727
61.8711
61.8696
61.868
61.8665
61.8649
61.8634
61.8618
61.8603
61.8587
61.8572
61.8556
61.8556
64.6021
64.6021
63.7178
63.4845
63.416
63.386
63.3684
63.356
63.3463
63.3381
63.3309
63.3245
63.3185
63.3128
63.3074
63.3022
63.2972
63.2924
63.2876
63.283
63.2784
63.2739
63.2695
63.2652
63.2609
63.2567
63.2525
63.2484
63.2443
63.2403
63.2363
63.2324
63.2285
63.2247
63.2209
63.2171
63.2134
63.2097
63.2061
63.2025
63.1989
63.1954
63.1919
63.1885
63.185
63.1816
63.1783
63.1749
63.1716
63.1683
63.1651
63.1619
63.1587
63.1555
63.1523
63.1492
63.1461
63.143
63.14
63.1369
63.1339
63.1309
63.128
63.125
63.1221
63.1192
63.1163
63.1134
63.1105
63.1077
63.1049
63.1021
63.0993
63.0965
63.0937
63.091
63.0883
63.0855
63.0828
63.0802
63.0775
63.0748
63.0722
63.0696
63.0669
63.0643
63.0618
63.0592
63.0566
63.0541
63.0515
63.049
63.0465
63.044
63.0415
63.039
63.0365
63.034
63.0316
63.0291
63.0267
63.0243
63.0218
63.0194
63.017
63.0147
63.0123
63.0099
63.0075
63.0052
63.0028
63.0005
62.9982
62.9959
62.9936
62.9913
62.989
62.9867
62.9844
62.9821
62.9799
62.9776
62.9753
62.9731
62.9709
62.9686
62.9664