# vtk DataFile Version 2.0
FlowField
ASCII
DATASET STRUCTURED_GRID
DIMENSIONS 800 1 200
POINTS 160000 float
0 0 0
0.04 0 0
0.08 0 0
0.12 0 0
0.16 0 0
0.2 0 0
0.24 0 0
0.28 0 0
0.32 0 0
0.36 0 0
0.4 0 0
0.44 0 0
0.48 0 0
0.52 0 0
0.56 0 0
0.6 0 0
0.64 0 0
0.68 0 0
0.72 0 0
0.76 0 0
0.8 0 0
0.84 0 0
0.88 0 0
0.92 0 0
0.96 0 0
1 0 0
1.04 0 0
1.08 0 0
1.12 0 0
1.16 0 0
1.2 0 0
1.24 0 0
1.28 0 0
1.32 0 0
1.36 0 0
1.4 0 0
1.44 0 0
1.48 0 0
1.52 0 0
1.56 0 0
1.6 0 0
1.64 0 0
1.68 0 0
1.72 0 0
1.76 0 0
1.8 0 0
1.84 0 0
1.88 0 0
1.92 0 0
1.96 0 0
2 0 0
2.04 0 0
2.08 0 0
2.12 0 0
2.16 0 0
2.2 0 0
2.24 0 0
2.28 0 0
2.32 0 0
2.36 0 0
2.4 0 0
2.44 0 0
2.48 0 0
2.52 0 0
2.56 0 0
2.6 0 0
2.64 0 0
2.68 0 0
2.72 0 0
2.76 0 0
2.8 0 0
2.84 0 0
2.88 0 0
2.92 0 0
2.96 0 0
3 0 0
3.04 0 0
3.08 0 0
3.12 0 0
3.16 0 0
3.2 0 0
3.24 0 0
3.28 0 0
3.32 0 0
3.36 0 0
3.4 0 0
3.44 0 0
3.48 0 0
3.52 0 0
3.56 0 0
3.6 0 0
3.64 0 0
3.68 0 0
3.72 0 0
3.76 0 0
3.8 0 0
3.84 0 0
3.88 0 0
3.92 0 0
3.96 0 0
4 0 0
4.04 0 0
4.08 0 0
4.12 0 0
4.16 0 0
4.2 0 0
4.24 0 0
4.28 0 0
4.32 0 0
4.36 0 0
4.4 0 0
4.44 0 0
4.48 0 0
4.52 0 0
4.56 0 0
4.6 0 0
4.64 0 0
4.68 0 0
4.72 0 0
4.76 0 0
4.8 0 0
4.84 0 0
4.88 0 0
4.92 0 0
4.96 0 0
5 0 0
5.04 0 0
5.08 0 0
5.12 0 0
5.16 0 0
5.2 0 0
5.24 0 0
5.28 0 0
5.32 0 0
5.36 0 0
5.4 0 0
5.44 0 0
5.48 0 0
5.52 0 0
5.56 0 0
5.6 0 0
5.64 0 0
5.68 0 0
5.72 0 0
5.76 0 0
5.8 0 0
5.84 0 0
5.88 0 0
5.92 0 0
5.96 0 0
6 0 0
6.04 0 0
6.08 0 0
6.12 0 0
6.16 0 0
6.2 0 0
6.24 0 0
6.28 0 0
6.32 0 0
6.36 0 0
6.4 0 0
6.44 0 0
6.48 0 0
6.52 0 0
6.56 0 0
6.6 0 0
6.64 0 0
6.68 0 0
6.72 0 0
6.76 0 0
6.8 0 0
6.84 0 0
6.88 0 0
6.92 0 0
6.96 0 0
7 0 0
7.04 0 0
7.08 0 0
7.12 0 0
7.16 0 0
7.2 0 0
7.24 0 0
7.28 0 0
7.32 0 0
7.36 0 0
7.4 0 0
7.44 0 0
7.48 0 0
7.52 0 0
7.56 0 0
7.6 0 0
7.64 0 0
7.68 0 0
7.72 0 0
7.76 0 0
7.8 0 0
7.84 0 0
7.88 0 0
7.92 0 0
7.96 0 0
8 0 0
8.04 0 0
8.08 0 0
8.12 0 0
8.16 0 0
8.2 0 0
8.24 0 0
8.28 0 0
8.32 0 0
8.36 0 0
8.4 0 0
8.44 0 0
8.48 0 0
8.52 0 0
8.56 0 0
8.6 0 0
8.64 0 0
8.68 0 0
8.72 0 0
8.76 0 0
8.8 0 0
8.84 0 0
8.88 0 0
8.92 0 0
8.96 0 0
9 0 0
9.04 0 0
9.08 0 0
9.12 0 0
9.16 0 0
9.2 0 0
9.24 0 0
9.28 0 0
9.32 0 0
9.36 0 0
9.4 0 0
9.44 0 0
9.48 0 0
9.52 0 0
9.56 0 0
9.6 0 0
9.64 0 0
9.68 0 0
9.72 0 0
9.76 0 0
9.8 0 0
9.84 0 0
9.88 0 0
9.92 0 0
9.96 0 0
10 0 0
10.04 0 0
10.08 0 0
10.12 0 0
10.16 0 0
10.2 0 0
10.24 0 0
10.28 0 0
10.32 0 0
10.36 0 0
10.4 0 0
10.44 0 0
10.48 0 0
10.52 0 0
10.56 0 0
10.6 0 0
10.64 0 0
10.68 0 0
10.72 0 0
10.76 0 0
10.8 0 0
10.84 0 0
10.88 0 0
10.92 0 0
10.96 0 0
11 0 0
11.04 0 0
11.08 0 0
11.12 0 0
11.16 0 0
11.2 0 0
11.24 0 0
11.28 0 0
11.32 0 0
11.36 0 0
11.4 0 0
11.44 0 0
11.48 0 0
11.52 0 0
11.56 0 0
11.6 0 0
11.64 0 0
11.68 0 0
11.72 0 0
11.76 0 0
11.8 0 0
11.84 0 0
11.88 0 0
11.92 0 0
11.96 0 0
12 0 0
12.04 0 0
12.08 0 0
12.12 0 0
12.16 0 0
12.2 0 0
12.24 0 0
12.28 0 0
12.32 0 0
12.36 0 0
12.4 0 0
12.44 0 0
12.48 0 0
12.52 0 0
12.56 0 0
12.6 0 0
12.64 0 0
12.68 0 0
12.72 0 0
12.76 0 0
12.8 0 0
12.84 0 0
12.88 0 0
12.92 0 0
12.96 0 0
13 0 0
13.04 0 0
13.08 0 0
13.12 0 0
13.16 0 0
13.2 0 0
13.24 0 0
13.28 0 0
13.32 0 0
13.36 0 0
13.4 0 0
13.44 0 0
13.48 0 0
13.52 0 0
13.56 0 0
13.6 0 0
13.64 0 0
13.68 0 0
13.72 0 0
13.76 0 0
13.8 0 0
13.84 0 0
13.88 0 0
13.92 0 0
13.96 0 0
14 0 0
14.04 0 0
14.08 0 0
14.12 0 0
14.16 0 0
14.2 0 0
14.24 0 0
14.28 0 0
14.32 0 0
14.36 0 0
14.4 0 0
14.44 0 0
14.48 0 0
14.52 0 0
14.56 0 0
14.6 0 0
14.64 0 0
14.68 0 0
14.72 0 0
14.76 0 0
14.8 0 0
14.84 0 0
14.88 0 0
14.92 0 0
14.96 0 0
15 0 0
15.04 0 0
15.08 0 0
15.12 0 0
15.16 0 0
15.2 0 0
15.24 0 0
15.28 0 0
15.32 0 0
15.36 0 0
15.4 0 0
15.44 0 0
15.48 0 0
15.52 0 0
15.56 0 0
15.6 0 0
15.64 0 0
15.68 0 0
15.72 0 0
15.76 0 0
15.8 0 0
15.84 0 0
15.88 0 0
15.92 0 0
15.96 0 0
16 0 0
16.04 0 0
16.08 0 0
16.12 0 0
16.16 0 0
16.2 0 0
16.24 0 0
16.28 0 0
16.32 0 0
16.36 0 0
16.4 0 0
16.44 0 0
16.48 0 0
16.52 0 0
16.56 0 0
16.6 0 0
16.64 0 0
16.68 0 0
16.72 0 0
16.76 0 0
16.8 0 0
16.84 0 0
16.88 0 0
16.92 0 0
16.96 0 0
17 0 0
17.04 0 0
17.08 0 0
17.12 0 0
17.16 0 0
17.2 0 0
17.24 0 0
17.28 0 0
17.32 0 0
17.36 0 0
17.4 0 0
17.44 0 0
17.48 0 0
17.52 0 0
17.56 0 0
17.6 0 0
17.64 0 0
17.68 0 0
17.72 0 0
17.76 0 0
17.8 0 0
17.84 0 0
17.88 0 0
17.92 0 0
17.96 0 0
18 0 0
18.04 0 0
18.08 0 0
18.12 0 0
18.16 0 0
18.2 0 0
18.24 0 0
18.28 0 0
18.32 0 0
18.36 0 0
18.4 0 0
18.44 0 0
18.48 0 0
18.52 0 0
18.56 0 0
18.6 0 0
18.64 0 0
18.68 0 0
18.72 0 0
18.76 0 0
18.8 0 0
18.84 0 0
18.88 0 0
18.92 0 0
18.96 0 0
19 0 0
19.04 0 0
19.08 0 0
19.12 0 0
19.16 0 0
19.2 0 0
19.24 0 0
19.28 0 0
19.32 0 0
19.36 0 0
19.4 0 0
19.44 0 0
19.48 0 0
19.52 0 0
19.56 0 0
19.6 0 0
19.64 0 0
19.68 0 0
19.72 0 0
19.76 0 0
19.8 0 0
19.84 0 0
19.88 0 0
19.92 0 0
19.96 0 0
20 0 0
20.04 0 0
20.08 0 0
20.12 0 0
20.16 0 0
20.2 0 0
20.24 0 0
20.28 0 0
20.32 0 0
20.36 0 0
20.4 0 0
20.44 0 0
20.48 0 0
20.52 0 0
20.56 0 0
20.6 0 0
20.64 0 0
20.68 0 0
20.72 0 0
20.76 0 0
20.8 0 0
20.84 0 0
20.88 0 0
20.92 0 0
20.96 0 0
21 0 0
21.04 0 0
21.08 0 0
21.12 0 0
21.16 0 0
21.2 0 0
21.24 0 0
21.28 0 0
21.32 0 0
21.36 0 0
21.4 0 0
21.44 0 0
21.48 0 0
21.52 0 0
21.56 0 0
21.6 0 0
21.64 0 0
21.68 0 0
21.72 0 0
21.76 0 0
21.8 0 0
21.84 0 0
21.88 0 0
21.92 0 0
21.96 0 0
22 0 0
22.04 0 0
22.08 0 0
22.12 0 0
22.16 0 0
22.2 0 0
22.24 0 0
22.28 0 0
22.32 0 0
22.36 0 0
22.4 0 0
22.44 0 0
22.48 0 0
22.52 0 0
22.56 0 0
22.6 0 0
22.64 0 0
22.68 0 0
22.72 0 0
22.76 0 0
22.8 0 0
22.84 0 0
22.88 0 0
22.92 0 0
22.96 0 0
23 0 0
23.04 0 0
23.08 0 0
23.12 0 0
23.16 0 0
23.2 0 0
23.24 0 0
23.28 0 0
23.32 0 0
23.36 0 0
23.4 0 0
23.44 0 0
23.48 0 0
23.52 0 0
23.56 0 0
23.6 0 0
23.64 0 0
23.68 0 0
23.72 0 0
23.76 0 0
23.8 0 0
23.84 0 0
23.88 0 0
23.92 0 0
23.96 0 0
24 0 0
24.04 0 0
24.08 0 0
24.12 0 0
24.16 0 0
24.2 0 0
24.24 0 0
24.28 0 0
24.32 0 0
24.36 0 0
24.4 0 0
24.44 0 0
24.48 0 0
24.52 0 0
24.56 0 0
24.6 0 0
24.64 0 0
24.68 0 0
24.72 0 0
24.76 0 0
24.8 0 0
24.84 0 0
24.88 0 0
24.92 0 0
24.96 0 0
25 0 0
25.04 0 0
25.08 0 0
25.12 0 0
25.16 0 0
25.2 0 0
25.24 0 0
25.28 0 0
25.32 0 0
25.36 0 0
25.4 0 0
25.44 0 0
25.48 0 0
25.52 0 0
25.56 0 0
25.6 0 0
25.64 0 0
25.68 0 0
25.72 0 0
25.76 0 0
25.8 0 0
25.84 0 0
25.88 0 0
25.92 0 0
25.96 0 0
26 0 0
26.04 0 0
26.08 0 0
26.12 0 0
26.16 0 0
26.2 0 0
26.24 0 0
26.28 0 0
26.32 0 0
26.36 0 0
26.4 0 0
26.44 0 0
26.48 0 0
26.52 0 0
26.56 0 0
26.6 0 0
26.64 0 0
26.68 0 0
26.72 0 0
26.76 0 0
26.8 0 0
26.84 0 0
26.88 0 0
26.92 0 0
26.96 0 0
27 0 0
27.04 0 0
27.08 0 0
27.12 0 0
27.16 0 0
27.2 0 0
27.24 0 0
27.28 0 0
27.32 0 0
27.36 0 0
27.4 0 0
27.44 0 0
27.48 0 0
27.52 0 0
27.56 0 0
27.6 0 0
27.64 0 0
27.68 0 0
27.72 0 0
27.76 0 0
27.8 0 0
27.84 0 0
27.88 0 0
27.92 0 0
27.96 0 0
28 0 0
28.04 0 0
28.08 0 0
28.12 0 0
28.16 0 0
28.2 0 0
28.24 0 0
28.28 0 0
28.32 0 0
28.36 0 0
28.4 0 0
28.44 0 0
28.48 0 0
28.52 0 0
28.56 0 0
28.6 0 0
28.64 0 0
28.68 0 0
28.72 0 0
28.76 0 0
28.8 0 0
28.84 0 0
28.88 0 0
28.92 0 0
28.96 0 0
29 0 0
29.04 0 0
29.08 0 0
29.12 0 0
29.16 0 0
29.2 0 0
29.24 0 0
29.28 0 0
29.32 0 0
29.36 0 0
29.4 0 0
29.44 0 0
29.48 0 0
29.52 0 0
29.56 0 0
29.6 0 0
29.64 0 0
29.68 0 0
29.72 0 0
29.76 0 0
29.8 0 0
29.84 0 0
29.88 0 0
29.92 0 0
29.96 0 0
30 0 0
30.04 0 0
30.08 0 0
30.12 0 0
30.16 0 0
30.2 0 0
30.24 0 0
30.28 0 0
30.32 0 0
30.36 0 0
30.4 0 0
30.44 0 0
30.48 0 0
30.52 0 0
30.56 0 0
30.6 0 0
30.64 0 0
30.68 0 0
30.72 0 0
30.76 0 0
30.8 0 0
30.84 0 0
30.88 0 0
30.92 0 0
30.96 0 0
31 0 0
31.04 0 0
31.08 0 0
31.12 0 0
31.16 0 0
31.2 0 0
31.24 0 0
31.28 0 0
31.32 0 0
31.36 0 0
31.4 0 0
31.44 0 0
31.48 0 0
31.52 0 0
31.56 0 0
31.6 0 0
31.64 0 0
31.68 0 0
31.72 0 0
31.76 0 0
31.8 0 0
31.84 0 0
31.88 0 0
31.92 0 0
31.96 0 0
0 0.005 0
0.04 0.005 0
0.08 0.005 0
0.12 0.005 0
0.16 0.005 0
0.2 0.005 0
0.24 0.005 0
0.28 0.005 0
0.32 0.005 0
0.36 0.005 0
0.4 0.005 0
0.44 0.005 0
0.48 0.005 0
0.52 0.005 0
0.56 0.005 0
0.6 0.005 0
0.64 0.005 0
0.68 0.005 0
0.72 0.005 0
0.76 0.005 0
0.8 0.005 0
0.84 0.005 0
0.88 0.005 0
0.92 0.005 0
0.96 0.005 0
1 0.005 0
1.04 0.005 0
1.08 0.005 0
1.12 0.005 0
1.16 0.005 0
1.2 0.005 0
1.24 0.005 0
1.28 0.005 0
1.32 0.005 0
1.36 0.005 0
1.4 0.005 0
1.44 0.005 0
1.48 0.005 0
1.52 0.005 0
1.56 0.005 0
1.6 0.005 0
1.64 0.005 0
1.68 0.005 0
1.72 0.005 0
1.76 0.005 0
1.8 0.005 0
1.84 0.005 0
1.88 0.005 0
1.92 0.005 0
1.96 0.005 0
2 0.005 0
2.04 0.005 0
2.08 0.005 0
2.12 0.005 0
2.16 0.005 0
2.2 0.005 0
2.24 0.005 0
2.28 0.005 0
2.32 0.005 0
2.36 0.005 0
2.4 0.005 0
2.44 0.005 0
2.48 0.005 0
2.52 0.005 0
2.56 0.005 0
2.6 0.005 0
2.64 0.005 0
2.68 0.005 0
2.72 0.005 0
2.76 0.005 0
2.8 0.005 0
2.84 0.005 0
2.88 0.005 0
2.92 0.005 0
2.96 0.005 0
3 0.005 0
3.04 0.005 0
3.08 0.005 0
3.12 0.005 0
3.16 0.005 0
3.2 0.005 0
3.24 0.005 0
3.28 0.005 0
3.32 0.005 0
3.36 0.005 0
3.4 0.005 0
3.44 0.005 0
3.48 0.005 0
3.52 0.005 0
3.56 0.005 0
3.6 0.005 0
3.64 0.005 0
3.68 0.005 0
3.72 0.005 0
3.76 0.005 0
3.8 0.005 0
3.84 0.005 0
3.88 0.005 0
3.92 0.005 0
3.96 0.005 0
4 0.005 0
4.04 0.005 0
4.08 0.005 0
4.12 0.005 0
4.16 0.005 0
4.2 0.005 0
4.24 0.005 0
4.28 0.005 0
4.32 0.005 0
4.36 0.005 0
4.4 0.005 0
4.44 0.005 0
4.48 0.005 0
4.52 0.005 0
4.56 0.005 0
4.6 0.005 0
4.64 0.005 0
4.68 0.005 0
4.72 0.005 0
4.76 0.005 0
4.8 0.005 0
4.84 0.005 0
4.88 0.005 0
4.92 0.005 0
4.96 0.005 0
5 0.005 0
5.04 0.005 0
5.08 0.005 0
5.12 0.005 0
5.16 0.005 0
5.2 0.005 0
5.24 0.005 0
5.28 0.005 0
5.32 0.005 0
5.36 0.005 0
5.4 0.005 0
5.44 0.005 0
5.48 0.005 0
5.52 0.005 0
5.56 0.005 0
5.6 0.005 0
5.64 0.005 0
5.68 0.005 0
5.72 0.005 0
5.76 0.005 0
5.8 0.005 0
5.84 0.005 0
5.88 0.005 0
5.92 0.005 0
5.96 0.005 0
6 0.005 0
6.04 0.005 0
6.08 0.005 0
6.12 0.005 0
6.16 0.005 0
6.2 0.005 0
6.24 0.005 0
6.28 0.005 0
6.32 0.005 0
6.36 0.005 0
6.4 0.005 0
6.44 0.005 0
6.48 0.005 0
6.52 0.005 0
6.56 0.005 0
6.6 0.005 0
6.64 0.005 0
6.68 0.005 0
6.72 0.005 0
6.76 0.005 0
6.8 0.005 0
6.84 0.005 0
6.88 0.005 0
6.92 0.005 0
6.96 0.005 0
7 0.005 0
7.04 0.005 0
7.08 0.005 0
7.12 0.005 0
7.16 0.005 0
7.2 0.005 0
7.24 0.005 0
7.28 0.005 0
7.32 0.005 0
7.36 0.005 0
7.4 0.005 0
[...]
POINT_DATA 160000

SCALARS v float 1
LOOKUP_TABLE default
0
0
0
0
0
0
0
0
0
0
0
0
0
0
0
0
0
0
0
0
0
0
0
0
0
0
0
0
0
0
0
0
0
0
0
0
0
0
0
0
0
0
0
0
0
0
0
0
0
0
0
0
0
0
0
0
0
0
0
0
0
0
0
0
0
0
0
0
0
0
0
0
0
0
0
0
0
0
0
0
0
0
0
0
0
0
0
0
0
0
0
0
0
0
0
0
0
0
0
0
0
0
0
0
0
0
0
0
0
0
0
0
0
0
0
0
0
0
0
0
0
0
0
0
0
0
0
0
0
0
0
0
0
0
0
0
0
0
0
0
0
0
0
0
0
0
0
0
0
0
0
0
0
0
0
0
0
0
0
0
0
0
0
0
0
0
0
0
0
0
0
0
0
0
0
0
0
0
0
0
0
0
0
0
0
0
0
0
0
0
0
0
0
0
0
0
0
0
0
0
0
0
0
0
0
0
0
0
0
0
0
0
0
0
0
0
0
0
0
0
0
0
0
0
0
0
0
0
0
0
0
0
0
0
0
0
0
0
0
0
0
0
0
0
0
0
0
0
0
0
0
0
0
0
0
0
0
0
0
0
0
0
0
0
0
0
0
0
0
0
0
0
0
0
0
0
0
0
0
0
0
0
0
0
0
0
0
0
0
0
0
0
0
0
0
0
0
0
0
0
0
0
0
0
0
0
0
0
0
0
0
0
0
0
0
0
0
0
0
0
0
0
0
0
0
0
0
0
0
0
0
0
0
0
0
0
0
0
0
0
0
0
0
0
0
0
0
0
0
0
0
0
0
0
0
0
0
0
0
0
0
0
0
0
0
0
0
0
0
0
0
0
0
0
0
0
0
0
0
0
0
0
0
0
0
0
0
0
0
0
0
0
0
0
0
0
0
0
0
0
0
0
0
0
0
0
0
0
0
0
0
0
0
0
0
0
0
0
0
0
0
0
0
0
0
0
0
0
0
0
0
0
0
0
0
0
0
0
0
0
0
0
0
0
0
0
0
0
0
0
0
0
0
0
0
0
0
0
0
0
0
0
0
0
0
0
0
0
0
0
0
0
0
0
0
0
0
0
0
0
0
0
0
0
0
0
0
0
0
0
0
0
0
0
0
0
0
0
0
0
0
0
0
0
0
0
0
0
0
0
0
0
0
0
0
0
0
0
0
0
0
0
0
0
0
0
0
0
0
0
0
0
0
0
0
0
0
0
0
0
0
0
0
0
0
0
0
0
0
0
0
0
0
0
0
0
0
0
0
0
0
0
0
0
0
0
0
0
0
0
0
0
0
0
0
0
0
0
0
0
0
0
0
0
0
0
0
0
0
0
0
0
0
0
0
0
0
0
0
0
0
0
0
0
0
0
0
0
0
0
0
0
0
0
0
0
0
0
0
0
0
0
0
0
0
0
0
0
0
0
0
0
0
0
0
0
0
0
0
0
0
0
0
0
0
0
0
0
0
0
0
0
0
0
0
0
0
0
0
0
0
0
0
0
0
0
0
0
0
0
0
0
0
0
0
0
0
0
0
0
0
0
0
0
0
0
0
0
0
0
0
0
0
0
0
0
0
0
0
0
0
0
0
0
0
0
0
0
0
0
0
0
0
0
0
0
0
0
0
0
0
0
0
0
0
0
0
0
0
0
0
0
0
0
0
0
0
0
0
0
0
0
0
0
0
0
0
0
0
0
0
0
0
0
0
0
0
0
0
0
0
0
0
0
0
0
0
0
0
0
0
0
0
0
0
0
0
0
0
0
0
0
0
0
0
0
0
0
0
0
0
0
0
0
0
0
0
0
0
0
0
0
0.0374151
0.00938057
0.00346741
0.0017658
0.00108032
0.000736557
0.000537779
0.000411233
0.000325034
0.000263345
0.000217523
0.000182492
0.00015509
0.000133254
0.000115581
0.000101089
8.907e-05
7.90019e-05
7.04919e-05
6.32397e-05
5.70128e-05
5.16285e-05
4.69418e-05
4.28371e-05
3.92206e-05
3.60164e-05
3.31624e-05
3.06074e-05
2.83091e-05
2.62325e-05
2.43479e-05
2.26309e-05
2.10606e-05
1.96194e-05
1.82923e-05
1.70664e-05
1.59308e-05
1.4876e-05
1.38938e-05
1.29771e-05
1.21195e-05
1.13158e-05
1.05611e-05
9.85104e-06
9.18202e-06
8.55066e-06
7.95397e-06
7.38927e-06
6.85417e-06
6.3465e-06
5.86431e-06
5.40582e-06
4.96942e-06
4.55364e-06
4.15713e-06
3.77866e-06
3.4171e-06
3.07143e-06
2.74068e-06
2.42396e-06
2.12047e-06
1.82945e-06
1.55019e-06
1.28206e-06
1.02443e-06
7.76761e-07
5.38514e-07
3.09202e-07
8.83666e-08
-1.24418e-07
-3.29552e-07
-5.27413e-07
-7.18354e-07
-9.02707e-07
-1.08078e-06
-1.25286e-06
-1.41924e-06
-1.58016e-06
-1.73588e-06
-1.88661e-06
-2.03259e-06
-2.17402e-06
-2.31109e-06
-2.44399e-06
-2.57289e-06
-2.69796e-06
-2.81934e-06
-2.9372e-06
-3.05168e-06
-3.1629e-06
-3.27099e-06
-3.37608e-06
-3.47829e-06
-3.57771e-06
-3.67447e-06
-3.76864e-06
-3.86034e-06
-3.94964e-06
-4.03665e-06
-4.12143e-06
-4.20408e-06
-4.28465e-06
-4.36323e-06
-4.43989e-06
-4.51469e-06
-4.5877e-06
-4.65897e-06
-4.72856e-06
-4.79653e-06
-4.86294e-06
-4.92782e-06
-4.99124e-06
-5.05324e-06
-5.11387e-06
-5.17316e-06
-5.23117e-06
-5.28792e-06
-5.34347e-06
-5.39785e-06
-5.45109e-06
-5.50324e-06
-5.55431e-06
-5.60435e-06
-5.65339e-06
-5.70146e-06
-5.74858e-06
-5.7948e-06
-5.84013e-06
-5.8846e-06
-5.92824e-06
-5.97108e-06
-6.01314e-06
-6.05445e-06
-6.09502e-06
-6.13489e-06
-6.17408e-06
-6.21261e-06
-6.25051e-06
-6.28781e-06
-6.32453e-06
-6.36069e-06
-6.39632e-06
-6.43146e-06
-6.46613e-06
-6.50036e-06
-6.53418e-06
-6.56764e-06
-6.60076e-06
-6.63359e-06
-6.66615e-06
-6.69849e-06
-6.73065e-06
-6.76268e-06
-6.79459e-06
-6.82645e-06
-6.85828e-06
-6.89012e-06
-6.922e-06
-6.95396e-06
-6.98601e-06
-7.01819e-06
-7.05051e-06
-7.08298e-06
-7.11561e-06
-7.1484e-06
-7.18135e-06
-7.21445e-06
-7.24769e-06
-7.28105e-06
-7.3145e-06
-7.34801e-06
-7.38157e-06
-7.41513e-06
-7.44867e-06
-7.48214e-06
-7.51552e-06
-7.54876e-06
-7.58183e-06
-7.61469e-06
-7.64732e-06
-7.67968e-06
-7.71174e-06
-7.74348e-06
-7.77488e-06
-7.80591e-06
-7.83655e-06
-7.8668e-06
-7.89664e-06
-7.92606e-06
-7.95505e-06
-7.98361e-06
-8.01174e-06
-8.03944e-06
-8.06669e-06
-8.09352e-06
-8.11991e-06
-8.14587e-06
-8.17141e-06
-8.19652e-06
-8.22122e-06
-8.2455e-06
-8.26936e-06
-8.29281e-06
-8.31585e-06
-8.3385e-06
-8.36073e-06
-8.38257e-06
-8.40401e-06
-8.42505e-06
-8.44571e-06
-8.46597e-06
-8.48584e-06
-8.50532e-06
-8.52441e-06
-8.54312e-06
-8.56144e-06
-8.57938e-06
-8.59694e-06
-8.61412e-06
-8.63092e-06
-8.64734e-06
-8.6634e-06
-8.6791e-06
-8.69443e-06
-8.70941e-06
-8.72403e-06
-8.7383e-06
-8.75223e-06
-8.76582e-06
-8.77906e-06
-8.79197e-06
-8.80455e-06
-8.8168e-06
-8.82872e-06
-8.84031e-06
-8.85159e-06
-8.86256e-06
-8.87322e-06
-8.88357e-06
-8.89361e-06
-8.90335e-06
-8.91278e-06
-8.92192e-06
-8.93077e-06
-8.93933e-06
-8.94762e-06
-8.95566e-06
-8.96347e-06
-8.97107e-06
-8.97848e-06
-8.98571e-06
-8.9928e-06
-8.99974e-06
-9.00653e-06
-9.01318e-06
-9.01966e-06
-9.02595e-06
-9.03202e-06
-9.03784e-06
-9.04337e-06
-9.04858e-06
-9.05344e-06
-9.05792e-06
-9.062e-06
-9.06568e-06
-9.06896e-06
-9.07184e-06
-9.07434e-06
-9.07649e-06
-9.07832e-06
-9.07985e-06
-9.08112e-06
-9.08217e-06
-9.08304e-06
-9.08375e-06
-9.08433e-06
-9.0848e-06
-9.0852e-06
-9.08553e-06
-9.08582e-06
-9.08607e-06
-9.08629e-06
-9.0865e-06
-9.0867e-06
-9.08688e-06
-9.08706e-06
-9.08724e-06
-9.08741e-06
-9.08758e-06
-9.08775e-06
-9.08792e-06
-9.0881e-06
-9.08827e-06
-9.08844e-06
-9.08862e-06
-9.08879e-06
-9.08897e-06
-9.08915e-06
-9.08933e-06
-9.0895e-06
-9.08968e-06
-9.08986e-06
-9.09005e-06
-9.09023e-06
-9.09041e-06
-9.09059e-06
-9.09077e-06
-9.09095e-06
-9.09113e-06
-9.09132e-06
-9.0915e-06
-9.09168e-06
-9.09186e-06
-9.09204e-06
-9.09222e-06
-9.0924e-06
-9.09258e-06
-9.09276e-06
-9.09294e-06
-9.09312e-06
-9.0933e-06
-9.09348e-06
-9.09366e-06
-9.09384e-06
-9.09402e-06
-9.0942e-06
-9.09438e-06
-9.09456e-06
-9.09475e-06
-9.09493e-06
-9.09511e-06
-9.09529e-06
-9.09547e-06
-9.09565e-06
-9.09583e-06
-9.09601e-06
-9.09619e-06
-9.09637e-06
-9.09655e-06
-9.09674e-06
-9.09691e-06
-9.0971e-06
-9.09728e-06
-9.09746e-06
-9.09764e-06
-9.09782e-06
-9.098e-06
-9.09818e-06
-9.09837e-06
-9.09855e-06
-9.09873e-06
-9.09891e-06
-9.09909e-06
-9.09927e-06
-9.09945e-06
-9.09963e-06
-9.09982e-06
-9.1e-06
-9.10018e-06
-9.10036e-06
-9.10054e-06
-9.10072e-06
-9.1009e-06
-9.10109e-06
-9.10127e-06
-9.10145e-06
-9.10163e-06
-9.10181e-06
-9.10199e-06
-9.10218e-06
-9.10236e-06
-9.10254e-06
-9.10272e-06
-9.1029e-06
-9.10308e-06
-9.10327e-06
-9.10345e-06
-9.10363e-06
-9.10381e-06
-9.10399e-06
-9.10417e-06
-9.10436e-06
-9.10454e-06
-9.10472e-06
-9.10491e-06
-9.10509e-06
-9.10527e-06
-9.10545e-06
-9.10563e-06
-9.10581e-06
-9.10599e-06
-9.10618e-06
-9.10636e-06
-9.10654e-06
-9.10673e-06
-9.10691e-06
-9.10709e-06
-9.10727e-06
-9.10745e-06
-9.10764e-06
-9.10782e-06
-9.108e-06
-9.10819e-06
-9.10837e-06
-9.10855e-06
-9.10873e-06
-9.10891e-06
-9.1091e-06
-9.10928e-06
-9.10946e-06
-9.10964e-06
-9.10983e-06
-9.11001e-06
-9.1102e-06
-9.11038e-06
-9.11056e-06
-9.11074e-06
-9.11092e-06
-9.11111e-06
-9.11129e-06
-9.11148e-06
-9.11166e-06
-9.11184e-06
-9.11202e-06
-9.11221e-06
-9.11239e-06
-9.11257e-06
-9.11276e-06
-9.11294e-06
-9.11312e-06
-9.1133e-06
-9.11349e-06
-9.11367e-06
-9.11385e-06
-9.11404e-06
-9.11422e-06
-9.1144e-06
-9.11459e-06
-9.11477e-06
-9.11495e-06
-9.11514e-06
-9.11532e-06
-9.11551e-06
-9.11569e-06
-9.11587e-06
-9.11605e-06
-9.11624e-06
-9.11642e-06
-9.11661e-06
-9.11679e-06
-9.11697e-06
-9.11716e-06
-9.11734e-06
-9.11753e-06
-9.11771e-06
-9.11789e-06
-9.11807e-06
-9.11826e-06
-9.11844e-06
-9.11863e-06
-9.11881e-06
-9.119e-06
-9.11918e-06
-9.11937e-06
-9.11955e-06
-9.11973e-06
-9.11991e-06
-9.1201e-06
-9.12028e-06
-9.12047e-06
-9.12065e-06
-9.12084e-06
-9.12102e-06
-9.1212e-06
-9.12139e-06
-9.12157e-06
-9.12176e-06
-9.12194e-06
-9.12213e-06
-9.12231e-06
-9.12249e-06
-9.12268e-06
-9.12286e-06
-9.12305e-06
-9.12323e-06
-9.12342e-06
-9.1236e-06
-9.12379e-06
-9.12397e-06
-9.12415e-06
-9.12434e-06
-9.12453e-06
-9.12471e-06
-9.12489e-06
-9.12508e-06
-9.12526e-06
-9.12545e-06
-9.12564e-06
-9.12582e-06
-9.126e-06
-9.12619e-06
-9.12637e-06
-9.12656e-06
-9.12674e-06
-9.12692e-06
-9.12711e-06
-9.1273e-06
-9.12748e-06
-9.12767e-06
-9.12786e-06
-9.12804e-06
-9.12822e-06
-9.12841e-06
-9.12859e-06
-9.12878e-06
-9.12896e-06
-9.12915e-06
-9.12933e-06
-9.12952e-06
-9.12971e-06
-9.12989e-06
-9.13008e-06
-9.13026e-06
-9.13045e-06
-9.13063e-06
-9.13082e-06
-9.131e-06
-9.13119e-06
-9.13137e-06
-9.13156e-06
-9.13175e-06
-9.13193e-06
-9.13212e-06
-9.1323e-06
-9.13249e-06
-9.13268e-06
-9.13286e-06
-9.13305e-06
-9.13323e-06
-9.13342e-06
-9.1336e-06
-9.13379e-06
-9.13398e-06
-9.13416e-06
-9.13435e-06
-9.13453e-06
-9.13472e-06
-9.13491e-06
-9.13509e-06
-9.13528e-06
-9.13547e-06
-9.13565e-06
-9.13584e-06
-9.13602e-06
-9.13621e-06
-9.1364e-06
-9.13658e-06
-9.13677e-06
-9.13695e-06
-9.13714e-06
-9.13733e-06
-9.13752e-06
-9.1377e-06
-9.13789e-06
-9.13807e-06
-9.13826e-06
-9.13845e-06
-9.13864e-06
-9.13882e-06
-9.13901e-06
-9.13919e-06
-9.13938e-06
-9.13957e-06
-9.13975e-06
-9.13994e-06
-9.14013e-06
-9.14031e-06
-9.1405e-06
-9.14069e-06
-9.14087e-06
-9.14106e-06
-9.14125e-06
-9.14143e-06
-9.14163e-06
-9.14181e-06
-9.142e-06
-9.14218e-06
-9.14237e-06
-9.14256e-06
-9.14274e-06
-9.14293e-06
-9.14312e-06
-9.14331e-06
-9.1435e-06
-9.14368e-06
-9.14387e-06
-9.14406e-06
-9.14424e-06
-9.14443e-06
-9.14462e-06
-9.14481e-06
-9.145e-06
-9.14518e-06
-9.14537e-06
-9.14556e-06
-9.14574e-06
-9.14593e-06
-9.14612e-06
-9.14631e-06
-9.14649e-06
-9.14668e-06
-9.14687e-06
-9.14706e-06
-9.14724e-06
-9.14743e-06
-9.14762e-06
-9.14781e-06
-9.14799e-06
-9.14818e-06
-9.14837e-06
-9.14856e-06
-9.14875e-06
-9.14893e-06
-9.14912e-06
-9.14931e-06
-9.1495e-06
-9.14969e-06
-9.14988e-06
-9.15007e-06
-9.15025e-06
-9.15044e-06
-9.15063e-06
-9.15082e-06
-9.15101e-06
-9.15119e-06
-9.15138e-06
-9.15157e-06
-9.15176e-06
-9.15195e-06
-9.15213e-06
-9.15232e-06
-9.15251e-06
-9.1527e-06
-9.15289e-06
-9.15308e-06
-9.15327e-06
-9.15345e-06
-9.15364e-06
-9.15383e-06
-9.15402e-06
-9.15421e-06
-9.1544e-06
-9.15459e-06
-9.15477e-06
-9.15496e-06
-9.15515e-06
-9.15535e-06
-9.15554e-06
-9.15572e-06
-9.15591e-06
-9.1561e-06
-9.15629e-06
-9.15648e-06
-9.15667e-06
-9.15686e-06
-9.15705e-06
-9.15723e-06
-9.15742e-06
-9.15761e-06
-9.1578e-06
-9.15799e-06
-9.15818e-06
-9.15837e-06
-9.15856e-06
-9.15875e-06
-9.15894e-06
-9.15913e-06
-9.15931e-06
-9.15951e-06
-9.1597e-06
-9.15989e-06
-9.16008e-06
-9.16027e-06
-9.16045e-06
-9.16064e-06
-9.16083e-06
-9.16103e-06
-9.16122e-06
-9.1614e-06
-9.16159e-06
-9.16178e-06
-9.16197e-06
-9.16217e-06
-9.16235e-06
-9.16254e-06
-9.16273e-06
-9.16292e-06
-9.16311e-06
-9.1633e-06
-9.16349e-06
-9.16368e-06
-9.16387e-06
-9.16406e-06
-9.16425e-06
-9.16444e-06
-9.16463e-06
-9.16482e-06
-9.16501e-06
-9.1652e-06
-9.16539e-06
-9.16558e-06
-9.16578e-06
-9.16597e-06
-9.16616e-06
-9.16635e-06
-9.16654e-06
-9.16673e-06
-9.16692e-06
-9.16711e-06
-9.1673e-06
-9.16749e-06
-9.16768e-06
-9.16787e-06
-9.16806e-06
-9.16825e-06
-9.16844e-06
-9.16863e-06
-9.16883e-06
-9.16902e-06
-9.16921e-06
-9.1694e-06
-9.16959e-06
-9.16978e-06
-9.16997e-06
-9.17016e-06
-9.17035e-06
-9.17055e-06
-9.17074e-06
-9.17092e-06
-9.17112e-06
-9.17131e-06
-9.1715e-06
-9.17169e-06
-9.17188e-06
-9.17207e-06
-9.17226e-06
-9.17246e-06
-9.17265e-06
-9.17284e-06
-9.17303e-06
-9.17322e-06
-9.17341e-06
-9.1736e-06
-9.17379e-06
-9.17398e-06
-9.17417e-06
-9.17436e-06
-9.17455e-06
-9.17474e-06
-9.17492e-06
-9.17511e-06
-9.1753e-06
-9.17548e-06
-9.17566e-06
-9.17585e-06
-9.17602e-06
-9.17619e-06
-9.17635e-06
-9.17651e-06
-9.17666e-06
-9.17681e-06
-9.17693e-06
-9.17704e-06
-9.17713e-06
-9.17719e-06
-9.17722e-06
-9.1772e-06
-9.17714e-06
-9.177e-06
-9.17678e-06
-9.17643e-06
-9.17598e-06
-9.17529e-06
-9.17447e-06
-9.17323e-06
-9.17184e-06
-9.16963e-06
-9.16739e-06
-9.16343e-06
-9.16005e-06
-9.15246e-06
-9.14824e-06
-9.13142e-06
-9.13182e-06
-9.08116e-06
-9.17371e-06
-6.47915e-06
-6.47915e-06
0
0
0.0966092
0.032052
0.0130055
0.0068257
0.0042354
0.00291346
0.00214181
0.00164773
0.00130987
0.00106738
0.000886875
0.000748626
0.00064032
0.000553896
0.00048387
0.00042639
0.000378674
0.00033867
0.000304833
0.00027598
0.000251192
0.000229749
0.000211078
0.000194721
0.000180307
0.000167535
0.000156158
0.000145973
0.000136812
0.000128536
0.000121026
0.000114185
0.00010793
0.00010219
9.69063e-05
9.20268e-05
8.75076e-05
8.33111e-05
7.94043e-05
7.57588e-05
7.23497e-05
6.91551e-05
6.61559e-05
6.33351e-05
6.06776e-05
5.81703e-05
5.5801e-05
5.35592e-05
5.14352e-05
4.94204e-05
4.7507e-05
4.56879e-05
4.39567e-05
4.23074e-05
4.07347e-05
3.92338e-05
3.78001e-05
3.64295e-05
3.51181e-05
3.38625e-05
3.26595e-05
3.15059e-05
3.0399e-05
2.93363e-05
2.83153e-05
2.73338e-05
2.63897e-05
2.54811e-05
2.46061e-05
2.3763e-05
2.29503e-05
2.21664e-05
2.141e-05
2.06797e-05
1.99743e-05
1.92926e-05
1.86336e-05
1.79962e-05
1.73794e-05
1.67824e-05
1.62042e-05
1.56441e-05
1.51013e-05
1.45749e-05
1.40645e-05
1.35692e-05
1.30885e-05
1.26218e-05
1.21685e-05
1.17281e-05
1.13001e-05
1.08839e-05
1.04793e-05
1.00856e-05
9.70252e-06
9.32965e-06
8.9666e-06
8.61302e-06
8.26855e-06
7.93288e-06
7.6057e-06
7.2867e-06
6.97559e-06
6.6721e-06
6.37598e-06
6.08696e-06
5.80481e-06
5.52931e-06
5.26023e-06
4.99734e-06
4.74047e-06
4.4894e-06
4.24395e-06
4.00394e-06
3.7692e-06
3.53955e-06
3.31484e-06
3.09492e-06
2.87962e-06
2.6688e-06
2.46234e-06
2.26009e-06
2.06193e-06
1.86772e-06
1.67734e-06
1.49067e-06
1.3076e-06
1.12802e-06
9.51811e-07
7.7887e-07
6.09094e-07
4.42376e-07
2.78614e-07
1.17712e-07
-4.04302e-08
-1.95915e-07
-3.48841e-07
-4.99311e-07
-6.47428e-07
-7.93295e-07
-9.37023e-07
-1.07873e-06
-1.21852e-06
-1.35652e-06
-1.49286e-06
-1.62767e-06
-1.7611e-06
-1.89328e-06
-2.02435e-06
-2.15448e-06
-2.28382e-06
-2.41252e-06
-2.54074e-06
-2.66864e-06
-2.79635e-06
-2.92404e-06
-3.05182e-06
-3.17984e-06
-3.30819e-06
-3.43696e-06
-3.56625e-06
-3.69611e-06
-3.82658e-06
-3.95767e-06
-4.0894e-06
-4.22172e-06
-4.35459e-06
-4.48797e-06
-4.62176e-06
-4.75586e-06
-4.89016e-06
-5.02454e-06
-5.15888e-06
-5.29302e-06
-5.42683e-06
-5.56017e-06
-5.6929e-06
-5.82486e-06
-5.95593e-06
-6.08599e-06
-6.21491e-06
-6.34259e-06
-6.46893e-06
-6.59384e-06
-6.71724e-06
-6.83906e-06
-6.95926e-06
-7.07779e-06
-7.19462e-06
-7.30972e-06
-7.42307e-06
-7.53468e-06
-7.64453e-06
-7.75262e-06
-7.85897e-06
-7.96358e-06
-8.06647e-06
-8.16764e-06
-8.26711e-06
-8.36489e-06
-8.46099e-06
-8.55543e-06
-8.64822e-06
-8.73938e-06
-8.8289e-06
-8.91681e-06
-9.00311e-06
-9.08782e-06
-9.17093e-06
-9.25247e-06
-9.33244e-06
-9.41084e-06
-9.48768e-06
-9.56297e-06
-9.63671e-06
-9.7089e-06
-9.77956e-06
-9.84869e-06
-9.91631e-06
-9.98242e-06
-1.0047e-05
-1.01102e-05
-1.01719e-05
-1.02321e-05
-1.0291e-05
-1.03484e-05
-1.04044e-05
-1.04591e-05
-1.05124e-05
-1.05643e-05
-1.06149e-05
-1.06642e-05
-1.07121e-05
-1.07588e-05
-1.08042e-05
-1.08483e-05
-1.08911e-05
-1.09327e-05
-1.09731e-05
-1.10123e-05
-1.10503e-05
-1.1087e-05
-1.11226e-05
-1.1157e-05
-1.11903e-05
-1.12225e-05
-1.12538e-05
-1.12841e-05
-1.13136e-05
-1.13423e-05
-1.13703e-05
-1.13977e-05
-1.14244e-05
-1.14505e-05
-1.1476e-05
-1.15007e-05
-1.15247e-05
-1.15476e-05
-1.15695e-05
-1.15902e-05
-1.16096e-05
-1.16276e-05
-1.16441e-05
-1.1659e-05
-1.16723e-05
-1.16841e-05
-1.16943e-05
-1.17032e-05
-1.17106e-05
-1.17169e-05
-1.17221e-05
-1.17263e-05
-1.17297e-05
-1.17324e-05
-1.17345e-05
-1.17362e-05
-1.17375e-05
-1.17385e-05
-1.17393e-05
-1.17399e-05
-1.17404e-05
-1.17408e-05
-1.17411e-05
-1.17414e-05
-1.17416e-05
-1.17418e-05
-1.1742e-05
-1.17423e-05
-1.17425e-05
-1.17427e-05
-1.17429e-05
-1.17431e-05
-1.17433e-05
-1.17435e-05
-1.17437e-05
-1.17439e-05
-1.17441e-05
-1.17444e-05
-1.17446e-05
-1.17448e-05
-1.17451e-05
-1.17453e-05
-1.17455e-05
-1.17458e-05
-1.1746e-05
-1.17463e-05
-1.17465e-05
-1.17467e-05
-1.1747e-05
-1.17472e-05
-1.17474e-05
-1.17477e-05
-1.17479e-05
-1.17481e-05
-1.17484e-05
-1.17486e-05
-1.17489e-05
-1.17491e-05
-1.17493e-05
-1.17495e-05
-1.17498e-05
-1.175e-05
-1.17503e-05
-1.17505e-05
-1.17507e-05
-1.1751e-05
-1.17512e-05
-1.17514e-05
-1.17517e-05
-1.17519e-05
-1.17521e-05
-1.17524e-05
-1.17526e-05
-1.17528e-05
-1.17531e-05
-1.17533e-05
-1.17535e-05
-1.17538e-05
-1.1754e-05
-1.17543e-05
-1.17545e-05
-1.17547e-05
-1.1755e-05
-1.17552e-05
-1.17554e-05
-1.17557e-05
-1.17559e-05
-1.17561e-05
-1.17564e-05
-1.17566e-05
-1.17568e-05
-1.17571e-05
-1.17573e-05
-1.17575e-05
-1.17578e-05
-1.1758e-05
-1.17583e-05
-1.17585e-05
-1.17587e-05
-1.1759e-05
-1.17592e-05
-1.17594e-05
-1.17597e-05
-1.17599e-05
-1.17601e-05
-1.17604e-05
-1.17606e-05
-1.17609e-05
-1.17611e-05
-1.17613e-05
-1.17616e-05
-1.17618e-05
-1.1762e-05
-1.17623e-05
-1.17625e-05
-1.17627e-05
-1.1763e-05
-1.17632e-05
-1.17635e-05
-1.17637e-05
-1.17639e-05
-1.17642e-05
-1.17644e-05
-1.17646e-05
-1.17649e-05
-1.17651e-05
-1.17653e-05
-1.17656e-05
-1.17658e-05
-1.17661e-05
-1.17663e-05
-1.17665e-05
-1.17668e-05
-1.1767e-05
-1.17672e-05
-1.17675e-05
-1.17677e-05
-1.1768e-05
-1.17682e-05
-1.17684e-05
-1.17687e-05
-1.17689e-05
-1.17691e-05
-1.17694e-05
-1.17696e-05
-1.17699e-05
-1.17701e-05
-1.17703e-05
-1.17706e-05
-1.17708e-05
-1.1771e-05
-1.17713e-05
-1.17715e-05
-1.17718e-05
-1.1772e-05
-1.17722e-05
-1.17725e-05
-1.17727e-05
-1.17729e-05
-1.17732e-05
-1.17734e-05
-1.17737e-05
-1.17739e-05
-1.17741e-05
-1.17744e-05
-1.17746e-05
-1.17749e-05
-1.17751e-05
-1.17753e-05
-1.17756e-05
-1.17758e-05
-1.1776e-05
-1.17763e-05
-1.17765e-05
-1.17768e-05
-1.1777e-05
-1.17772e-05
-1.17775e-05
-1.17777e-05
-1.1778e-05
-1.17782e-05
-1.17784e-05
-1.17787e-05
-1.17789e-05
-1.17791e-05
-1.17794e-05
-1.17796e-05
-1.17799e-05
-1.17801e-05
-1.17803e-05
-1.17806e-05
-1.17808e-05
-1.17811e-05
-1.17813e-05
-1.17815e-05
-1.17818e-05
-1.1782e-05
-1.17823e-05
-1.17825e-05
-1.17827e-05
-1.1783e-05
-1.17832e-05
-1.17835e-05
-1.17837e-05
-1.17839e-05
-1.17842e-05
-1.17844e-05
-1.17846e-05
-1.17849e-05
-1.17851e-05
-1.17854e-05
-1.17856e-05
-1.17858e-05
-1.17861e-05
-1.17863e-05
-1.17866e-05
-1.17868e-05
-1.1787e-05
-1.17873e-05
-1.17875e-05
-1.17878e-05
-1.1788e-05
-1.17882e-05
-1.17885e-05
-1.17887e-05
-1.1789e-05
-1.17892e-05
-1.17894e-05
-1.17897e-05
-1.17899e-05
-1.17902e-05
-1.17904e-05
-1.17906e-05
-1.17909e-05
-1.17911e-05
-1.17914e-05
-1.17916e-05
-1.17918e-05
-1.17921e-05
-1.17923e-05
-1.17926e-05
-1.17928e-05
-1.1793e-05
-1.17933e-05
-1.17935e-05
-1.17938e-05
-1.1794e-05
-1.17943e-05
-1.17945e-05
-1.17947e-05
-1.1795e-05
-1.17952e-05
-1.17955e-05
-1.17957e-05
-1.17959e-05
-1.17962e-05
-1.17964e-05
-1.17967e-05
-1.17969e-05
-1.17971e-05
-1.17974e-05
-1.17976e-05
-1.17979e-05
-1.17981e-05
-1.17984e-05
-1.17986e-05
-1.17988e-05
-1.17991e-05
-1.17993e-05
-1.17996e-05
-1.17998e-05
-1.18e-05
-1.18003e-05
-1.18005e-05
-1.18008e-05
-1.1801e-05
-1.18013e-05
-1.18015e-05
-1.18017e-05
-1.1802e-05
-1.18022e-05
-1.18025e-05
-1.18027e-05
-1.18029e-05
-1.18032e-05
-1.18034e-05
-1.18037e-05
-1.18039e-05
-1.18042e-05
-1.18044e-05
-1.18046e-05
-1.18049e-05
-1.18051e-05
-1.18054e-05
-1.18056e-05
-1.18059e-05
-1.18061e-05
-1.18063e-05
-1.18066e-05
-1.18068e-05
-1.18071e-05
-1.18073e-05
-1.18076e-05
-1.18078e-05
-1.1808e-05
-1.18083e-05
-1.18085e-05
-1.18088e-05
-1.1809e-05
-1.18092e-05
-1.18095e-05
-1.18097e-05
-1.181e-05
-1.18102e-05
-1.18105e-05
-1.18107e-05
-1.18109e-05
-1.18112e-05
-1.18114e-05
-1.18117e-05
-1.18119e-05
-1.18122e-05
-1.18124e-05
-1.18127e-05
-1.18129e-05
-1.18131e-05
-1.18134e-05
-1.18136e-05
-1.18139e-05
-1.18141e-05
-1.18144e-05
-1.18146e-05
-1.18148e-05
-1.18151e-05
-1.18153e-05
-1.18156e-05
-1.18158e-05
-1.18161e-05
-1.18163e-05
-1.18165e-05
-1.18168e-05
-1.1817e-05
-1.18173e-05
-1.18175e-05
-1.18178e-05
-1.1818e-05
-1.18183e-05
-1.18185e-05
-1.18187e-05
-1.1819e-05
-1.18192e-05
-1.18195e-05
-1.18197e-05
-1.182e-05
-1.18202e-05
-1.18205e-05
-1.18207e-05
-1.18209e-05
-1.18212e-05
-1.18214e-05
-1.18217e-05
-1.18219e-05
-1.18222e-05
-1.18224e-05
-1.18227e-05
-1.18229e-05
-1.18231e-05
-1.18234e-05
-1.18236e-05
-1.18239e-05
-1.18241e-05
-1.18244e-05
-1.18246e-05
-1.18249e-05
-1.18251e-05
-1.18254e-05
-1.18256e-05
-1.18258e-05
-1.18261e-05
-1.18263e-05
-1.18266e-05
-1.18268e-05