# vtk DataFile Version 2.0
FlowField
ASCII
DATASET STRUCTURED_GRID
DIMENSIONS 800 1 200
POINTS 160000 float
0 0 0
0.04 0 0
0.08 0 0
0.12 0 0
0.16 0 0
0.2 0 0
0.24 0 0
0.28 0 0
0.32 0 0
0.36 0 0
0.4 0 0
0.44 0 0
0.48 0 0
0.52 0 0
0.56 0 0
0.6 0 0
0.64 0 0
0.68 0 0
0.72 0 0
0.76 0 0
0.8 0 0
0.84 0 0
0.88 0 0
0.92 0 0
0.96 0 0
1 0 0
1.04 0 0
1.08 0 0
1.12 0 0
1.16 0 0
1.2 0 0
1.24 0 0
1.28 0 0
1.32 0 0
1.36 0 0
1.4 0 0
1.44 0 0
1.48 0 0
1.52 0 0
1.56 0 0
1.6 0 0
1.64 0 0
1.68 0 0
1.72 0 0
1.76 0 0
1.8 0 0
1.84 0 0
1.88 0 0
1.92 0 0
1.96 0 0
2 0 0
2.04 0 0
2.08 0 0
2.12 0 0
2.16 0 0
2.2 0 0
2.24 0 0
2.28 0 0
2.32 0 0
2.36 0 0
2.4 0 0
2.44 0 0
2.48 0 0
2.52 0 0
2.56 0 0
2.6 0 0
2.64 0 0
2.68 0 0
2.72 0 0
2.76 0 0
2.8 0 0
2.84 0 0
2.88 0 0
2.92 0 0
2.96 0 0
3 0 0
3.04 0 0
3.08 0 0
3.12 0 0
3.16 0 0
3.2 0 0
3.24 0 0
3.28 0 0
3.32 0 0
3.36 0 0
3.4 0 0
3.44 0 0
3.48 0 0
3.52 0 0
3.56 0 0
3.6 0 0
3.64 0 0
3.68 0 0
3.72 0 0
3.76 0 0
3.8 0 0
3.84 0 0
3.88 0 0
3.92 0 0
3.96 0 0
4 0 0
4.04 0 0
4.08 0 0
4.12 0 0
4.16 0 0
4.2 0 0
4.24 0 0
4.28 0 0
4.32 0 0
4.36 0 0
4.4 0 0
4.44 0 0
4.48 0 0
4.52 0 0
4.56 0 0
4.6 0 0
4.64 0 0
4.68 0 0
4.72 0 0
4.76 0 0
4.8 0 0
4.84 0 0
4.88 0 0
4.92 0 0
4.96 0 0
5 0 0
5.04 0 0
5.08 0 0
5.12 0 0
5.16 0 0
5.2 0 0
5.24 0 0
5.28 0 0
5.32 0 0
5.36 0 0
5.4 0 0
5.44 0 0
5.48 0 0
5.52 0 0
5.56 0 0
5.6 0 0
5.64 0 0
5.68 0 0
5.72 0 0
5.76 0 0
5.8 0 0
5.84 0 0
5.88 0 0
5.92 0 0
5.96 0 0
6 0 0
6.04 0 0
6.08 0 0
6.12 0 0
6.16 0 0
6.2 0 0
6.24 0 0
6.28 0 0
6.32 0 0
6.36 0 0
6.4 0 0
6.44 0 0
6.48 0 0
6.52 0 0
6.56 0 0
6.6 0 0
6.64 0 0
6.68 0 0
6.72 0 0
6.76 0 0
6.8 0 0
6.84 0 0
6.88 0 0
6.92 0 0
6.96 0 0
7 0 0
7.04 0 0
7.08 0 0
7.12 0 0
7.16 0 0
7.2 0 0
7.24 0 0
7.28 0 0
7.32 0 0
7.36 0 0
7.4 0 0
7.44 0 0
7.48 0 0
7.52 0 0
7.56 0 0
7.6 0 0
7.64 0 0
7.68 0 0
7.72 0 0
7.76 0 0
7.8 0 0
7.84 0 0
7.88 0 0
7.92 0 0
7.96 0 0
8 0 0
8.04 0 0
8.08 0 0
8.12 0 0
8.16 0 0
8.2 0 0
8.24 0 0
8.28 0 0
8.32 0 0
8.36 0 0
8.4 0 0
8.44 0 0
8.48 0 0
8.52 0 0
8.56 0 0
8.6 0 0
8.64 0 0
8.68 0 0
8.72 0 0
8.76 0 0
8.8 0 0
8.84 0 0
8.88 0 0
8.92 0 0
8.96 0 0
9 0 0
9.04 0 0
9.08 0 0
9.12 0 0
9.16 0 0
9.2 0 0
9.24 0 0
9.28 0 0
9.32 0 0
9.36 0 0
9.4 0 0
9.44 0 0
9.48 0 0
9.52 0 0
9.56 0 0
9.6 0 0
9.64 0 0
9.68 0 0
9.72 0 0
9.76 0 0
9.8 0 0
9.84 0 0
9.88 0 0
9.92 0 0
9.96 0 0
10 0 0
10.04 0 0
10.08 0 0
10.12 0 0
10.16 0 0
10.2 0 0
10.24 0 0
10.28 0 0
10.32 0 0
10.36 0 0
10.4 0 0
10.44 0 0
10.48 0 0
10.52 0 0
10.56 0 0
10.6 0 0
10.64 0 0
10.68 0 0
10.72 0 0
10.76 0 0
10.8 0 0
10.84 0 0
10.88 0 0
10.92 0 0
10.96 0 0
11 0 0
11.04 0 0
11.08 0 0
11.12 0 0
11.16 0 0
11.2 0 0
11.24 0 0
11.28 0 0
11.32 0 0
11.36 0 0
11.4 0 0
11.44 0 0
11.48 0 0
11.52 0 0
11.56 0 0
11.6 0 0
11.64 0 0
11.68 0 0
11.72 0 0
11.76 0 0
11.8 0 0
11.84 0 0
11.88 0 0
11.92 0 0
11.96 0 0
12 0 0
12.04 0 0
12.08 0 0
12.12 0 0
12.16 0 0
12.2 0 0
12.24 0 0
12.28 0 0
12.32 0 0
12.36 0 0
12.4 0 0
12.44 0 0
12.48 0 0
12.52 0 0
12.56 0 0
12.6 0 0
12.64 0 0
12.68 0 0
12.72 0 0
12.76 0 0
12.8 0 0
12.84 0 0
12.88 0 0
12.92 0 0
12.96 0 0
13 0 0
13.04 0 0
13.08 0 0
13.12 0 0
13.16 0 0
13.2 0 0
13.24 0 0
13.28 0 0
13.32 0 0
13.36 0 0
13.4 0 0
13.44 0 0
13.48 0 0
13.52 0 0
13.56 0 0
13.6 0 0
13.64 0 0
13.68 0 0
13.72 0 0
13.76 0 0
13.8 0 0
13.84 0 0
13.88 0 0
13.92 0 0
13.96 0 0
14 0 0
14.04 0 0
14.08 0 0
14.12 0 0
14.16 0 0
14.2 0 0
14.24 0 0
14.28 0 0
14.32 0 0
14.36 0 0
14.4 0 0
14.44 0 0
14.48 0 0
14.52 0 0
14.56 0 0
14.6 0 0
14.64 0 0
14.68 0 0
14.72 0 0
14.76 0 0
14.8 0 0
14.84 0 0
14.88 0 0
14.92 0 0
14.96 0 0
15 0 0
15.04 0 0
15.08 0 0
15.12 0 0
15.16 0 0
15.2 0 0
15.24 0 0
15.28 0 0
15.32 0 0
15.36 0 0
15.4 0 0
15.44 0 0
15.48 0 0
15.52 0 0
15.56 0 0
15.6 0 0
15.64 0 0
15.68 0 0
15.72 0 0
15.76 0 0
15.8 0 0
15.84 0 0
15.88 0 0
15.92 0 0
15.96 0 0
16 0 0
16.04 0 0
16.08 0 0
16.12 0 0
16.16 0 0
16.2 0 0
16.24 0 0
16.28 0 0
16.32 0 0
16.36 0 0
16.4 0 0
16.44 0 0
16.48 0 0
16.52 0 0
16.56 0 0
16.6 0 0
16.64 0 0
16.68 0 0
16.72 0 0
16.76 0 0
16.8 0 0
16.84 0 0
16.88 0 0
16.92 0 0
16.96 0 0
17 0 0
17.04 0 0
17.08 0 0
17.12 0 0
17.16 0 0
17.2 0 0
17.24 0 0
17.28 0 0
17.32 0 0
17.36 0 0
17.4 0 0
17.44 0 0
17.48 0 0
17.52 0 0
17.56 0 0
17.6 0 0
17.64 0 0
17.68 0 0
17.72 0 0
17.76 0 0
17.8 0 0
17.84 0 0
17.88 0 0
17.92 0 0
17.96 0 0
18 0 0
18.04 0 0
18.08 0 0
18.12 0 0
18.16 0 0
18.2 0 0
18.24 0 0
18.28 0 0
18.32 0 0
18.36 0 0
18.4 0 0
18.44 0 0
18.48 0 0
18.52 0 0
18.56 0 0
18.6 0 0
18.64 0 0
18.68 0 0
18.72 0 0
18.76 0 0
18.8 0 0
18.84 0 0
18.88 0 0
18.92 0 0
18.96 0 0
19 0 0
19.04 0 0
19.08 0 0
19.12 0 0
19.16 0 0
19.2 0 0
19.24 0 0
19.28 0 0
19.32 0 0
19.36 0 0
19.4 0 0
19.44 0 0
19.48 0 0
19.52 0 0
19.56 0 0
19.6 0 0
19.64 0 0
19.68 0 0
19.72 0 0
19.76 0 0
19.8 0 0
19.84 0 0
19.88 0 0
19.92 0 0
19.96 0 0
20 0 0
20.04 0 0
20.08 0 0
20.12 0 0
20.16 0 0
20.2 0 0
20.24 0 0
20.28 0 0
20.32 0 0
20.36 0 0
20.4 0 0
20.44 0 0
20.48 0 0
20.52 0 0
20.56 0 0
20.6 0 0
20.64 0 0
20.68 0 0
20.72 0 0
20.76 0 0
20.8 0 0
20.84 0 0
20.88 0 0
20.92 0 0
20.96 0 0
21 0 0
21.04 0 0
21.08 0 0
21.12 0 0
21.16 0 0
21.2 0 0
21.24 0 0
21.28 0 0
21.32 0 0
21.36 0 0
21.4 0 0
21.44 0 0
21.48 0 0
21.52 0 0
21.56 0 0
21.6 0 0
21.64 0 0
21.68 0 0
21.72 0 0
21.76 0 0
21.8 0 0
21.84 0 0
21.88 0 0
21.92 0 0
21.96 0 0
22 0 0
22.04 0 0
22.08 0 0
22.12 0 0
22.16 0 0
22.2 0 0
22.24 0 0
22.28 0 0
22.32 0 0
22.36 0 0
22.4 0 0
22.44 0 0
22.48 0 0
22.52 0 0
22.56 0 0
22.6 0 0
22.64 0 0
22.68 0 0
22.72 0 0
22.76 0 0
22.8 0 0
22.84 0 0
22.88 0 0
22.92 0 0
22.96 0 0
23 0 0
23.04 0 0
23.08 0 0
23.12 0 0
23.16 0 0
23.2 0 0
23.24 0 0
23.28 0 0
23.32 0 0
23.36 0 0
23.4 0 0
23.44 0 0
23.48 0 0
23.52 0 0
23.56 0 0
23.6 0 0
23.64 0 0
23.68 0 0
23.72 0 0
23.76 0 0
23.8 0 0
23.84 0 0
23.88 0 0
23.92 0 0
23.96 0 0
24 0 0
24.04 0 0
24.08 0 0
24.12 0 0
24.16 0 0
24.2 0 0
24.24 0 0
24.28 0 0
24.32 0 0
24.36 0 0
24.4 0 0
24.44 0 0
24.48 0 0
24.52 0 0
24.56 0 0
24.6 0 0
24.64 0 0
24.68 0 0
24.72 0 0
24.76 0 0
24.8 0 0
24.84 0 0
24.88 0 0
24.92 0 0
24.96 0 0
25 0 0
25.04 0 0
25.08 0 0
25.12 0 0
25.16 0 0
25.2 0 0
25.24 0 0
25.28 0 0
25.32 0 0
25.36 0 0
25.4 0 0
25.44 0 0
25.48 0 0
25.52 0 0
25.56 0 0
25.6 0 0
25.64 0 0
25.68 0 0
25.72 0 0
25.76 0 0
25.8 0 0
25.84 0 0
25.88 0 0
25.92 0 0
25.96 0 0
26 0 0
26.04 0 0
26.08 0 0
26.12 0 0
26.16 0 0
26.2 0 0
26.24 0 0
26.28 0 0
26.32 0 0
26.36 0 0
26.4 0 0
26.44 0 0
26.48 0 0
26.52 0 0
26.56 0 0
26.6 0 0
26.64 0 0
26.68 0 0
26.72 0 0
26.76 0 0
26.8 0 0
26.84 0 0
26.88 0 0
26.92 0 0
26.96 0 0
27 0 0
27.04 0 0
27.08 0 0
27.12 0 0
27.16 0 0
27.2 0 0
27.24 0 0
27.28 0 0
27.32 0 0
27.36 0 0
27.4 0 0
27.44 0 0
27.48 0 0
27.52 0 0
27.56 0 0
27.6 0 0
27.64 0 0
27.68 0 0
27.72 0 0
27.76 0 0
27.8 0 0
27.84 0 0
27.88 0 0
27.92 0 0
27.96 0 0
28 0 0
28.04 0 0
28.08 0 0
28.12 0 0
28.16 0 0
28.2 0 0
28.24 0 0
28.28 0 0
28.32 0 0
28.36 0 0
28.4 0 0
28.44 0 0
28.48 0 0
28.52 0 0
28.56 0 0
28.6 0 0
28.64 0 0
28.68 0 0
28.72 0 0
28.76 0 0
28.8 0 0
28.84 0 0
28.88 0 0
28.92 0 0
28.96 0 0
29 0 0
29.04 0 0
29.08 0 0
29.12 0 0
29.16 0 0
29.2 0 0
29.24 0 0
29.28 0 0
29.32 0 0
29.36 0 0
29.4 0 0
29.44 0 0
29.48 0 0
29.52 0 0
29.56 0 0
29.6 0 0
29.64 0 0
29.68 0 0
29.72 0 0
29.76 0 0
29.8 0 0
29.84 0 0
29.88 0 0
29.92 0 0
29.96 0 0
30 0 0
30.04 0 0
30.08 0 0
30.12 0 0
30.16 0 0
30.2 0 0
30.24 0 0
30.28 0 0
30.32 0 0
30.36 0 0
30.4 0 0
30.44 0 0
30.48 0 0
30.52 0 0
30.56 0 0
30.6 0 0
30.64 0 0
30.68 0 0
30.72 0 0
30.76 0 0
30.8 0 0
30.84 0 0
30.88 0 0
30.92 0 0
30.96 0 0
31 0 0
31.04 0 0
31.08 0 0
31.12 0 0
31.16 0 0
31.2 0 0
31.24 0 0
31.28 0 0
31.32 0 0
31.36 0 0
31.4 0 0
31.44 0 0
31.48 0 0
31.52 0 0
31.56 0 0
31.6 0 0
31.64 0 0
31.68 0 0
31.72 0 0
31.76 0 0
31.8 0 0
31.84 0 0
31.88 0 0
31.92 0 0
31.96 0 0
0 0.005 0
0.04 0.005 0
0.08 0.005 0
0.12 0.005 0
0.16 0.005 0
0.2 0.005 0
0.24 0.005 0
0.28 0.005 0
0.32 0.005 0
0.36 0.005 0
0.4 0.005 0
0.44 0.005 0
0.48 0.005 0
0.52 0.005 0
0.56 0.005 0
0.6 0.005 0
0.64 0.005 0
0.68 0.005 0
0.72 0.005 0
0.76 0.005 0
0.8 0.005 0
0.84 0.005 0
0.88 0.005 0
0.92 0.005 0
0.96 0.005 0
1 0.005 0
1.04 0.005 0
1.08 0.005 0
1.12 0.005 0
1.16 0.005 0
1.2 0.005 0
1.24 0.005 0
1.28 0.005 0
1.32 0.005 0
1.36 0.005 0
1.4 0.005 0
1.44 0.005 0
1.48 0.005 0
1.52 0.005 0
1.56 0.005 0
1.6 0.005 0
1.64 0.005 0
1.68 0.005 0
1.72 0.005 0
1.76 0.005 0
1.8 0.005 0
1.84 0.005 0
1.88 0.005 0
1.92 0.005 0
1.96 0.005 0
2 0.005 0
2.04 0.005 0
2.08 0.005 0
2.12 0.005 0
2.16 0.005 0
2.2 0.005 0
2.24 0.005 0
2.28 0.005 0
2.32 0.005 0
2.36 0.005 0
2.4 0.005 0
2.44 0.005 0
2.48 0.005 0
2.52 0.005 0
2.56 0.005 0
2.6 0.005 0
2.64 0.005 0
2.68 0.005 0
2.72 0.005 0
2.76 0.005 0
2.8 0.005 0
2.84 0.005 0
2.88 0.005 0
2.92 0.005 0
2.96 0.005 0
3 0.005 0
3.04 0.005 0
3.08 0.005 0
3.12 0.005 0
3.16 0.005 0
3.2 0.005 0
3.24 0.005 0
3.28 0.005 0
3.32 0.005 0
3.36 0.005 0
3.4 0.005 0
3.44 0.005 0
3.48 0.005 0
3.52 0.005 0
3.56 0.005 0
3.6 0.005 0
3.64 0.005 0
3.68 0.005 0
3.72 0.005 0
3.76 0.005 0
3.8 0.005 0
3.84 0.005 0
3.88 0.005 0
3.92 0.005 0
3.96 0.005 0
4 0.005 0
4.04 0.005 0
4.08 0.005 0
4.12 0.005 0
4.16 0.005 0
4.2 0.005 0
4.24 0.005 0
4.28 0.005 0
4.32 0.005 0
4.36 0.005 0
4.4 0.005 0
4.44 0.005 0
4.48 0.005 0
4.52 0.005 0
4.56 0.005 0
4.6 0.005 0
4.64 0.005 0
4.68 0.005 0
4.72 0.005 0
4.76 0.005 0
4.8 0.005 0
4.84 0.005 0
4.88 0.005 0
4.92 0.005 0
4.96 0.005 0
5 0.005 0
5.04 0.005 0
5.08 0.005 0
5.12 0.005 0
5.16 0.005 0
5.2 0.005 0
5.24 0.005 0
5.28 0.005 0
5.32 0.005 0
5.36 0.005 0
5.4 0.005 0
5.44 0.005 0
5.48 0.005 0
5.52 0.005 0
5.56 0.005 0
5.6 0.005 0
5.64 0.005 0
5.68 0.005 0
5.72 0.005 0
5.76 0.005 0
5.8 0.005 0
5.84 0.005 0
5.88 0.005 0
5.92 0.005 0
5.96 0.005 0
6 0.005 0
6.04 0.005 0
6.08 0.005 0
6.12 0.005 0
6.16 0.005 0
6.2 0.005 0
6.24 0.005 0
6.28 0.005 0
6.32 0.005 0
6.36 0.005 0
6.4 0.005 0
6.44 0.005 0
6.48 0.005 0
6.52 0.005 0
6.56 0.005 0
6.6 0.005 0
6.64 0.005 0
6.68 0.005 0
6.72 0.005 0
6.76 0.005 0
6.8 0.005 0
6.84 0.005 0
6.88 0.005 0
6.92 0.005 0
6.96 0.005 0
7 0.005 0
7.04 0.005 0
7.08 0.005 0
7.12 0.005 0
7.16 0.005 0
7.2 0.005 0
7.24 0.005 0
7.28 0.005 0
7.32 0.005 0
7.36 0.005 0
7.4 0.005 0
[...]
POINT_DATA 160000

SCALARS v float 1
LOOKUP_TABLE default
0
0
0
0
0
0
0
0
0
0
0
0
0
0
0
0
0
0
0
0
0
0
0
0
0
0
0
0
0
0
0
0
0
0
0
0
0
0
0
0
0
0
0
0
0
0
0
0
0
0
0
0
0
0
0
0
0
0
0
0
0
0
0
0
0
0
0
0
0
0
0
0
0
0
0
0
0
0
0
0
0
0
0
0
0
0
0
0
0
0
0
0
0
0
0
0
0
0
0
0
0
0
0
0
0
0
0
0
0
0
0
0
0
0
0
0
0
0
0
0
0
0
0
0
0
0
0
0
0
0
0
0
0
0
0
0
0
0
0
0
0
0
0
0
0
0
0
0
0
0
0
0
0
0
0
0
0
0
0
0
0
0
0
0
0
0
0
0
0
0
0
0
0
0
0
0
0
0
0
0
0
0
0
0
0
0
0
0
0
0
0
0
0
0
0
0
0
0
0
0
0
0
0
0
0
0
0
0
0
0
0
0
0
0
0
0
0
0
0
0
0
0
0
0
0
0
0
0
0
0
0
0
0
0
0
0
0
0
0
0
0
0
0
0
0
0
0
0
0
0
0
0
0
0
0
0
0
0
0
0
0
0
0
0
0
0
0
0
0
0
0
0
0
0
0
0
0
0
0
0
0
0
0
0
0
0
0
0
0
0
0
0
0
0
0
0
0
0
0
0
0
0
0
0
0
0
0
0
0
0
0
0
0
0
0
0
0
0
0
0
0
0
0
0
0
0
0
0
0
0
0
0
0
0
0
0
0
0
0
0
0
0
0
0
0
0
0
0
0
0
0
0
0
0
0
0
0
0
0
0
0
0
0
0
0
0
0
0
0
0
0
0
0
0
0
0
0
0
0
0
0
0
0
0
0
0
0
0
0
0
0
0
0
0
0
0
0
0
0
0
0
0
0
0
0
0
0
0
0
0
0
0
0
0
0
0
0
0
0
0
0
0
0
0
0
0
0
0
0
0
0
0
0
0
0
0
0
0
0
0
0
0
0
0
0
0
0
0
0
0
0
0
0
0
0
0
0
0
0
0
0
0
0
0
0
0
0
0
0
0
0
0
0
0
0
0
0
0
0
0
0
0
0
0
0
0
0
0
0
0
0
0
0
0
0
0
0
0
0
0
0
0
0
0
0
0
0
0
0
0
0
0
0
0
0
0
0
0
0
0
0
0
0
0
0
0
0
0
0
0
0
0
0
0
0
0
0
0
0
0
0
0
0
0
0
0
0
0
0
0
0
0
0
0
0
0
0
0
0
0
0
0
0
0
0
0
0
0
0
0
0
0
0
0
0
0
0
0
0
0
0
0
0
0
0
0
0
0
0
0
0
0
0
0
0
0
0
0
0
0
0
0
0
0
0
0
0
0
0
0
0
0
0
0
0
0
0
0
0
0
0
0
0
0
0
0
0
0
0
0
0
0
0
0
0
0
0
0
0
0
0
0
0
0
0
0
0
0
0
0
0
0
0
0
0
0
0
0
0
0
0
0
0
0
0
0
0
0
0
0
0
0
0
0
0
0
0
0
0
0
0
0
0
0
0
0
0
0
0
0
0
0
0
0
0
0
0
0
0
0
0
0
0
0
0
0
0
0
0
0
0
0
0
0
0
0
0
0
0
0
0
0
0
0
0
0
0
0
0
0
0
0
0
0
0
0
0
0
0
0
0
0
0
0
0
0
0
0
0
0
0
0
0
0
0
0
0
0
0
0
0
0
0
0
0
0
0
0
0
0
0
0
0
0
0
0
0
0
0
0
0
0
0
0
0
0
0
0
0
0
0
0
0
0
0
0
0
0
0
0
0
0
0.0374156
0.00938101
0.00346785
0.00176623
0.00108076
0.000736996
0.000538219
0.000411674
0.000325475
0.000263786
0.000217965
0.000182934
0.000155533
0.000133696
0.000116024
0.000101532
8.95136e-05
7.94457e-05
7.09359e-05
6.36839e-05
5.74571e-05
5.20729e-05
4.73865e-05
4.32818e-05
3.96655e-05
3.64614e-05
3.36075e-05
3.10527e-05
2.87545e-05
2.66779e-05
2.47935e-05
2.30766e-05
2.15064e-05
2.00653e-05
1.87382e-05
1.75124e-05
1.63769e-05
1.53222e-05
1.434e-05
1.34234e-05
1.25659e-05
1.17622e-05
1.10075e-05
1.02976e-05
9.6286e-06
8.99729e-06
8.40065e-06
7.836e-06
7.30095e-06
6.79333e-06
6.31119e-06
5.85274e-06
5.41639e-06
5.00064e-06
4.60417e-06
4.22574e-06
3.86423e-06
3.5186e-06
3.18788e-06
2.8712e-06
2.56775e-06
2.27676e-06
1.99754e-06
1.72944e-06
1.47185e-06
1.2242e-06
9.85984e-07
7.56704e-07
5.35899e-07
3.23141e-07
1.18033e-07
-7.97989e-08
-2.70709e-07
-4.55035e-07
-6.33085e-07
-8.05146e-07
-9.7149e-07
-1.13239e-06
-1.28808e-06
-1.4388e-06
-1.58476e-06
-1.72616e-06
-1.86321e-06
-1.99608e-06
-2.12496e-06
-2.25e-06
-2.37137e-06
-2.48921e-06
-2.60366e-06
-2.71486e-06
-2.82294e-06
-2.92801e-06
-3.03019e-06
-3.12959e-06
-3.22632e-06
-3.32047e-06
-3.41215e-06
-3.50143e-06
-3.58841e-06
-3.67317e-06
-3.75578e-06
-3.83633e-06
-3.91488e-06
-3.99152e-06
-4.06629e-06
-4.13925e-06
-4.21048e-06
-4.28004e-06
-4.34797e-06
-4.41433e-06
-4.47917e-06
-4.54254e-06
-4.60448e-06
-4.66505e-06
-4.72427e-06
-4.78221e-06
-4.83889e-06
-4.89435e-06
-4.94863e-06
-5.00177e-06
-5.0538e-06
-5.10476e-06
-5.15466e-06
-5.20356e-06
-5.25147e-06
-5.29842e-06
-5.34444e-06
-5.38956e-06
-5.4338e-06
-5.47718e-06
-5.51973e-06
-5.56148e-06
-5.60244e-06
-5.64264e-06
-5.6821e-06
-5.72082e-06
-5.75884e-06
-5.79618e-06
-5.83285e-06
-5.86887e-06
-5.90425e-06
-5.93901e-06
-5.97318e-06
-6.00675e-06
-6.03975e-06
-6.07218e-06
-6.10408e-06
-6.13544e-06
-6.16628e-06
-6.19662e-06
-6.22646e-06
-6.25581e-06
-6.2847e-06
-6.31313e-06
-6.34111e-06
-6.36864e-06
-6.39574e-06
-6.42243e-06
-6.4487e-06
-6.47457e-06
-6.50005e-06
-6.52515e-06
-6.54986e-06
-6.57422e-06
-6.59821e-06
-6.62184e-06
-6.64514e-06
-6.66809e-06
-6.69072e-06
-6.71302e-06
-6.735e-06
-6.75668e-06
-6.77805e-06
-6.79912e-06
-6.8199e-06
-6.84039e-06
-6.8606e-06
-6.88054e-06
-6.9002e-06
-6.9196e-06
-6.93874e-06
-6.95763e-06
-6.97626e-06
-6.99464e-06
-7.01279e-06
-7.0307e-06
-7.04838e-06
-7.06583e-06
-7.08305e-06
-7.10006e-06
-7.11685e-06
-7.13343e-06
-7.14979e-06
-7.16595e-06
-7.18191e-06
-7.19767e-06
-7.21324e-06
-7.22861e-06
-7.2438e-06
-7.25879e-06
-7.27361e-06
-7.28825e-06
-7.30271e-06
-7.317e-06
-7.33111e-06
-7.34506e-06
-7.35884e-06
-7.37246e-06
-7.38592e-06
-7.39922e-06
-7.41237e-06
-7.42536e-06
-7.4382e-06
-7.45089e-06
-7.46343e-06
-7.47584e-06
-7.48809e-06
-7.50021e-06
-7.51219e-06
-7.52403e-06
-7.53574e-06
-7.54732e-06
-7.55877e-06
-7.57009e-06
-7.58127e-06
-7.59233e-06
-7.60328e-06
-7.61411e-06
-7.62481e-06
-7.63538e-06
-7.64585e-06
-7.6562e-06
-7.66644e-06
-7.67656e-06
-7.68657e-06
-7.69647e-06
-7.70628e-06
-7.71597e-06
-7.72555e-06
-7.73502e-06
-7.7444e-06
-7.75368e-06
-7.76286e-06
-7.77194e-06
-7.78092e-06
-7.7898e-06
-7.79858e-06
-7.80728e-06
-7.81587e-06
-7.82438e-06
-7.8328e-06
-7.84113e-06
-7.84937e-06
-7.85752e-06
-7.86559e-06
-7.87357e-06
-7.88146e-06
-7.88927e-06
-7.89699e-06
-7.90464e-06
-7.91221e-06
-7.9197e-06
-7.92711e-06
-7.93444e-06
-7.9417e-06
-7.94888e-06
-7.956e-06
-7.96304e-06
-7.97e-06
-7.9769e-06
-7.98373e-06
-7.9905e-06
-7.9972e-06
-8.00384e-06
-8.01041e-06
-8.01693e-06
-8.02339e-06
-8.02979e-06
-8.03614e-06
-8.04243e-06
-8.04867e-06
-8.05487e-06
-8.06102e-06
-8.06713e-06
-8.07319e-06
-8.07921e-06
-8.08518e-06
-8.09113e-06
-8.09704e-06
-8.10291e-06
-8.10875e-06
-8.11456e-06
-8.12035e-06
-8.12611e-06
-8.13185e-06
-8.13757e-06
-8.14325e-06
-8.14892e-06
-8.15458e-06
-8.16022e-06
-8.16584e-06
-8.17145e-06
-8.17705e-06
-8.18263e-06
-8.1882e-06
-8.19376e-06
-8.19931e-06
-8.20485e-06
-8.21038e-06
-8.21591e-06
-8.22143e-06
-8.22693e-06
-8.23244e-06
-8.23793e-06
-8.24342e-06
-8.24889e-06
-8.25437e-06
-8.25983e-06
-8.26529e-06
-8.27074e-06
-8.27618e-06
-8.28161e-06
-8.28702e-06
-8.29243e-06
-8.29783e-06
-8.30321e-06
-8.30859e-06
-8.31395e-06
-8.31929e-06
-8.32462e-06
-8.32993e-06
-8.33523e-06
-8.34051e-06
-8.34577e-06
-8.351e-06
-8.35622e-06
-8.36142e-06
-8.36658e-06
-8.37173e-06
-8.37685e-06
-8.38194e-06
-8.38701e-06
-8.39204e-06
-8.39704e-06
-8.40201e-06
-8.40695e-06
-8.41185e-06
-8.41672e-06
-8.42155e-06
-8.42635e-06
-8.4311e-06
-8.43582e-06
-8.44049e-06
-8.44512e-06
-8.44971e-06
-8.45425e-06
-8.45875e-06
-8.4632e-06
-8.4676e-06
-8.47196e-06
-8.47626e-06
-8.48052e-06
-8.48473e-06
-8.48888e-06
-8.49298e-06
-8.49702e-06
-8.50102e-06
-8.50495e-06
-8.50883e-06
-8.51266e-06
-8.51643e-06
-8.52014e-06
-8.52379e-06
-8.52739e-06
-8.53093e-06
-8.5344e-06
-8.53782e-06
-8.54118e-06
-8.54448e-06
-8.54772e-06
-8.5509e-06
-8.55402e-06
-8.55708e-06
-8.56007e-06
-8.56301e-06
-8.56589e-06
-8.5687e-06
-8.57146e-06
-8.57416e-06
-8.57679e-06
-8.57937e-06
-8.58188e-06
-8.58434e-06
-8.58674e-06
-8.58908e-06
-8.59136e-06
-8.59358e-06
-8.59574e-06
-8.59785e-06
-8.59989e-06
-8.60188e-06
-8.60382e-06
-8.60571e-06
-8.60753e-06
-8.60931e-06
-8.61102e-06
-8.61269e-06
-8.6143e-06
-8.61586e-06
-8.61738e-06
-8.61883e-06
-8.62024e-06
-8.62161e-06
-8.62292e-06
-8.62419e-06
-8.62541e-06
-8.62659e-06
-8.62772e-06
-8.6288e-06
-8.62984e-06
-8.63085e-06
-8.63181e-06
-8.63273e-06
-8.63362e-06
-8.63446e-06
-8.63527e-06
-8.63603e-06
-8.63677e-06
-8.63747e-06
-8.63813e-06
-8.63876e-06
-8.63937e-06
-8.63995e-06
-8.64048e-06
-8.64099e-06
-8.64148e-06
-8.64194e-06
-8.64237e-06
-8.64278e-06
-8.64317e-06
-8.64353e-06
-8.64387e-06
-8.64419e-06
-8.64449e-06
-8.64476e-06
-8.64502e-06
-8.64527e-06
-8.6455e-06
-8.64571e-06
-8.6459e-06
-8.64609e-06
-8.64626e-06
-8.64641e-06
-8.64655e-06
-8.64669e-06
-8.64681e-06
-8.64692e-06
-8.64702e-06
-8.64711e-06
-8.6472e-06
-8.64728e-06
-8.64735e-06
-8.64742e-06
-8.64748e-06
-8.64754e-06
-8.64759e-06
-8.64764e-06
-8.64769e-06
-8.64774e-06
-8.64778e-06
-8.64782e-06
-8.64786e-06
-8.6479e-06
-8.64794e-06
-8.64797e-06
-8.64801e-06
-8.64804e-06
-8.64808e-06
-8.64811e-06
-8.64815e-06
-8.64819e-06
-8.64822e-06
-8.64825e-06
-8.64829e-06
-8.64832e-06
-8.64836e-06
-8.64839e-06
-8.64842e-06
-8.64846e-06
-8.6485e-06
-8.64853e-06
-8.64857e-06
-8.6486e-06
-8.64863e-06
-8.64867e-06
-8.64871e-06
-8.64874e-06
-8.64878e-06
-8.64882e-06
-8.64885e-06
-8.64888e-06
-8.64891e-06
-8.64895e-06
-8.64898e-06
-8.64902e-06
-8.64906e-06
-8.64909e-06
-8.64913e-06
-8.64916e-06
-8.64919e-06
-8.64922e-06
-8.64926e-06
-8.6493e-06
-8.64934e-06
-8.64937e-06
-8.6494e-06
-8.64944e-06
-8.64947e-06
-8.64951e-06
-8.64954e-06
-8.64958e-06
-8.64961e-06
-8.64965e-06
-8.64968e-06
-8.64972e-06
-8.64976e-06
-8.64979e-06
-8.64982e-06
-8.64985e-06
-8.64989e-06
-8.64993e-06
-8.64996e-06
-8.64999e-06
-8.65003e-06
-8.65007e-06
-8.6501e-06
-8.65014e-06
-8.65017e-06
-8.65021e-06
-8.65024e-06
-8.65028e-06
-8.65031e-06
-8.65035e-06
-8.65039e-06
-8.65042e-06
-8.65045e-06
-8.65048e-06
-8.65052e-06
-8.65056e-06
-8.6506e-06
-8.65063e-06
-8.65066e-06
-8.6507e-06
-8.65074e-06
-8.65077e-06
-8.6508e-06
-8.65084e-06
-8.65088e-06
-8.65091e-06
-8.65094e-06
-8.65098e-06
-8.65102e-06
-8.65105e-06
-8.65109e-06
-8.65112e-06
-8.65116e-06
-8.65119e-06
-8.65123e-06
-8.65127e-06
-8.6513e-06
-8.65134e-06
-8.65137e-06
-8.6514e-06
-8.65144e-06
-8.65147e-06
-8.65151e-06
-8.65154e-06
-8.65158e-06
-8.65162e-06
-8.65165e-06
-8.65168e-06
-8.65172e-06
-8.65176e-06
-8.6518e-06
-8.65183e-06
-8.65186e-06
-8.6519e-06
-8.65194e-06
-8.65197e-06
-8.652e-06
-8.65204e-06
-8.65208e-06
-8.65211e-06
-8.65215e-06
-8.65218e-06
-8.65221e-06
-8.65226e-06
-8.65229e-06
-8.65233e-06
-8.65236e-06
-8.65239e-06
-8.65243e-06
-8.65246e-06
-8.6525e-06
-8.65253e-06
-8.65257e-06
-8.6526e-06
-8.65264e-06
-8.65268e-06
-8.65271e-06
-8.65275e-06
-8.65279e-06
-8.65282e-06
-8.65285e-06
-8.65289e-06
-8.65293e-06
-8.65296e-06
-8.653e-06
-8.65303e-06
-8.65306e-06
-8.6531e-06
-8.65314e-06
-8.65317e-06
-8.65321e-06
-8.65325e-06
-8.65328e-06
-8.65331e-06
-8.65335e-06
-8.65338e-06
-8.65342e-06
-8.65346e-06
-8.6535e-06
-8.65353e-06
-8.65356e-06
-8.6536e-06
-8.65363e-06
-8.65367e-06
-8.65371e-06
-8.65374e-06
-8.65377e-06
-8.65381e-06
-8.65385e-06
-8.65389e-06
-8.65392e-06
-8.65396e-06
-8.65399e-06
-8.65403e-06
-8.65406e-06
-8.6541e-06
-8.65413e-06
-8.65417e-06
-8.65421e-06
-8.65424e-06
-8.65428e-06
-8.65431e-06
-8.65435e-06
-8.65438e-06
-8.65442e-06
-8.65446e-06
-8.65449e-06
-8.65453e-06
-8.65456e-06
-8.6546e-06
-8.65463e-06
-8.65467e-06
-8.6547e-06
-8.65474e-06
-8.65478e-06
-8.65481e-06
-8.65485e-06
-8.65489e-06
-8.65492e-06
-8.65495e-06
-8.65499e-06
-8.65503e-06
-8.65506e-06
-8.6551e-06
-8.65514e-06
-8.65517e-06
-8.65521e-06
-8.65524e-06
-8.65528e-06
-8.65532e-06
-8.65535e-06
-8.65539e-06
-8.65542e-06
-8.65546e-06
-8.65549e-06
-8.65553e-06
-8.65557e-06
-8.6556e-06
-8.65564e-06
-8.65568e-06
-8.65571e-06
-8.65575e-06
-8.65578e-06
-8.65582e-06
-8.65585e-06
-8.65589e-06
-8.65592e-06
-8.65596e-06
-8.65599e-06
-8.65603e-06
-8.65607e-06
-8.6561e-06
-8.65614e-06
-8.65617e-06
-8.6562e-06
-8.65624e-06
-8.65628e-06
-8.65632e-06
-8.65635e-06
-8.65639e-06
-8.65643e-06
-8.65647e-06
-8.6565e-06
-8.65653e-06
-8.65657e-06
-8.65661e-06
-8.65664e-06
-8.65668e-06
-8.65672e-06
-8.65676e-06
-8.65679e-06
-8.65682e-06
-8.65686e-06
-8.65689e-06
-8.65693e-06
-8.65697e-06
-8.65701e-06
-8.65704e-06
-8.65707e-06
-8.65711e-06
-8.65715e-06
-8.65719e-06
-8.65722e-06
-8.65726e-06
-8.6573e-06
-8.65733e-06
-8.65737e-06
-8.6574e-06
-8.65744e-06
-8.65747e-06
-8.65751e-06
-8.65755e-06
-8.65758e-06
-8.65762e-06
-8.65765e-06
-8.65769e-06
-8.65773e-06
-8.65776e-06
-8.6578e-06
-8.65784e-06
-8.65787e-06
-8.6579e-06
-8.65794e-06
-8.65797e-06
-8.65801e-06
-8.65804e-06
-8.65808e-06
-8.65811e-06
-8.65813e-06
-8.65817e-06
-8.6582e-06
-8.65822e-06
-8.65824e-06
-8.65826e-06
-8.65828e-06
-8.6583e-06
-8.6583e-06
-8.6583e-06
-8.65828e-06
-8.65825e-06
-8.6582e-06
-8.65813e-06
-8.65803e-06
-8.6579e-06
-8.65772e-06
-8.65748e-06
-8.65717e-06
-8.65675e-06
-8.65624e-06
-8.65554e-06
-8.6547e-06
-8.65352e-06
-8.65217e-06
-8.65016e-06
-8.64804e-06
-8.64449e-06
-8.64128e-06
-8.63457e-06
-8.63035e-06
-8.61562e-06
-8.6146e-06
-8.57065e-06
-8.64608e-06
-6.11255e-06
-6.11255e-06
0
0
0.0966099
0.0320525
0.013006
0.00682623
0.00423593
0.002914
0.00214236
0.00164828
0.00131042
0.00106793
0.000887427
0.000749179
0.000640875
0.000554452
0.000484427
0.000426948
0.000379233
0.00033923
0.000305393
0.000276541
0.000251754
0.000230311
0.000211641
0.000195284
0.000180871
0.000168099
0.000156723
0.000146538
0.000137378
0.000129102
0.000121593
0.000114752
0.000108497
0.000102758
9.74744e-05
9.25951e-05
8.80763e-05
8.38801e-05
7.99736e-05
7.63284e-05
7.29195e-05
6.97251e-05
6.67261e-05
6.39056e-05
6.12484e-05
5.87412e-05
5.63722e-05
5.41306e-05
5.20068e-05
4.99922e-05
4.8079e-05
4.62601e-05
4.4529e-05
4.28799e-05
4.13074e-05
3.98067e-05
3.83731e-05
3.70027e-05
3.56915e-05
3.4436e-05
3.32331e-05
3.20797e-05
3.0973e-05
2.99104e-05
2.88895e-05
2.79082e-05
2.69642e-05
2.60557e-05
2.51808e-05
2.43378e-05
2.35252e-05
2.27415e-05
2.19852e-05
2.1255e-05
2.05497e-05
1.98681e-05
1.92092e-05
1.85719e-05
1.79553e-05
1.73583e-05
1.67803e-05
1.62202e-05
1.56775e-05
1.51513e-05
1.46409e-05
1.41457e-05
1.36651e-05
1.31985e-05
1.27453e-05
1.2305e-05
1.18771e-05
1.1461e-05
1.10564e-05
1.06629e-05
1.02799e-05
9.90714e-06
9.54419e-06
9.19072e-06
8.84637e-06
8.51082e-06
8.18376e-06
7.86488e-06
7.55391e-06
7.25057e-06
6.95459e-06
6.66575e-06
6.38378e-06
6.10846e-06
5.83957e-06
5.5769e-06
5.32025e-06
5.06943e-06
4.82426e-06
4.58454e-06
4.35012e-06
4.12083e-06
3.8965e-06
3.67698e-06
3.46215e-06
3.25184e-06
3.04592e-06
2.84427e-06
2.64676e-06
2.45326e-06
2.26367e-06
2.07787e-06
1.89576e-06
1.71722e-06
1.54216e-06
1.37048e-06
1.2021e-06
1.0369e-06
8.74818e-07
7.15759e-07
5.59651e-07
4.06415e-07
2.55967e-07
1.08234e-07
-3.68513e-08
-1.79351e-07
-3.1934e-07
-4.56883e-07
-5.92036e-07
-7.24858e-07
-8.55409e-07
-9.83746e-07
-1.10993e-06
-1.234e-06
-1.35602e-06
-1.47602e-06
-1.59407e-06
-1.71021e-06
-1.82448e-06
-1.93692e-06
-2.04758e-06
-2.1565e-06
-2.26371e-06
-2.36926e-06
-2.47318e-06
-2.57552e-06
-2.6763e-06
-2.77555e-06
-2.87332e-06
-2.96963e-06
-3.06452e-06
-3.158e-06
-3.25013e-06
-3.34093e-06
-3.43041e-06
-3.5186e-06
-3.60555e-06
-3.69126e-06
-3.77577e-06
-3.85909e-06
-3.94127e-06
-4.0223e-06
-4.10222e-06
-4.18105e-06
-4.25881e-06
-4.33552e-06
-4.4112e-06
-4.48587e-06
-4.55955e-06
-4.63225e-06
-4.70401e-06
-4.77482e-06
-4.84471e-06
-4.9137e-06
-4.9818e-06
-5.04903e-06
-5.1154e-06
-5.18093e-06
-5.24563e-06
-5.30952e-06
-5.37261e-06
-5.43492e-06
-5.49646e-06
-5.55723e-06
-5.61725e-06
-5.67655e-06
-5.73512e-06
-5.79298e-06
-5.85014e-06
-5.90661e-06
-5.96241e-06
-6.01754e-06
-6.07201e-06
-6.12584e-06
-6.17904e-06
-6.23161e-06
-6.28356e-06
-6.3349e-06
-6.38565e-06
-6.43581e-06
-6.48539e-06
-6.53439e-06
-6.58283e-06
-6.63072e-06
-6.67807e-06
-6.72487e-06
-6.77114e-06
-6.81689e-06
-6.86213e-06
-6.90685e-06
-6.95106e-06
-6.99479e-06
-7.03803e-06
-7.08079e-06
-7.12307e-06
-7.16488e-06
-7.20623e-06
-7.24713e-06
-7.28757e-06
-7.32757e-06
-7.36713e-06
-7.40626e-06
-7.44497e-06
-7.48325e-06
-7.52111e-06
-7.55856e-06
-7.59561e-06
-7.63226e-06
-7.66852e-06
-7.70438e-06
-7.73985e-06
-7.77494e-06
-7.80966e-06
-7.844e-06
-7.87798e-06
-7.9116e-06
-7.94485e-06
-7.97775e-06
-8.0103e-06
-8.04251e-06
-8.07438e-06
-8.10591e-06
-8.1371e-06
-8.16795e-06
-8.19849e-06
-8.22872e-06
-8.25862e-06
-8.28821e-06
-8.3175e-06
-8.34649e-06
-8.37518e-06
-8.40358e-06
-8.43169e-06
-8.45952e-06
-8.48708e-06
-8.51436e-06
-8.54138e-06
-8.56815e-06
-8.59466e-06
-8.62093e-06
-8.64696e-06
-8.67276e-06
-8.69833e-06
-8.72369e-06
-8.74883e-06
-8.77377e-06
-8.79852e-06
-8.82308e-06
-8.84746e-06
-8.87167e-06
-8.89572e-06
-8.9196e-06
-8.94334e-06
-8.96694e-06
-8.9904e-06
-9.01374e-06
-9.03696e-06
-9.06006e-06
-9.08307e-06
-9.10598e-06
-9.1288e-06
-9.15153e-06
-9.17418e-06
-9.19676e-06
-9.21928e-06
-9.24173e-06
-9.26413e-06
-9.28648e-06
-9.30877e-06
-9.33102e-06
-9.35322e-06
-9.37539e-06
-9.39753e-06
-9.41963e-06
-9.4417e-06
-9.46373e-06
-9.48574e-06
-9.50772e-06
-9.52968e-06
-9.5516e-06
-9.57349e-06
-9.59536e-06
-9.61719e-06
-9.639e-06
-9.66078e-06
-9.68252e-06
-9.70422e-06
-9.72589e-06
-9.74751e-06
-9.76909e-06
-9.79062e-06
-9.81211e-06
-9.83354e-06
-9.85492e-06
-9.87623e-06
-9.89749e-06
-9.91867e-06
-9.93978e-06
-9.96083e-06
-9.98178e-06
-1.00027e-05
-1.00234e-05
-1.00441e-05
-1.00647e-05
-1.00852e-05
-1.01056e-05
-1.01259e-05
-1.0146e-05
-1.01661e-05
-1.0186e-05
-1.02058e-05
-1.02254e-05
-1.02449e-05
-1.02643e-05
-1.02835e-05
-1.03025e-05
-1.03214e-05
-1.03401e-05
-1.03587e-05
-1.03771e-05
-1.03953e-05
-1.04133e-05
-1.04311e-05
-1.04488e-05
-1.04663e-05
-1.04835e-05
-1.05006e-05
-1.05174e-05
-1.05341e-05
-1.05505e-05
-1.05668e-05
-1.05828e-05
-1.05986e-05
-1.06141e-05
-1.06295e-05
-1.06446e-05
-1.06595e-05
-1.06741e-05
-1.06885e-05
-1.07027e-05
-1.07167e-05
-1.07304e-05
-1.07439e-05
-1.07571e-05
-1.07701e-05
-1.07829e-05
-1.07954e-05
-1.08076e-05
-1.08197e-05
-1.08314e-05
-1.0843e-05
-1.08543e-05
-1.08653e-05
-1.08761e-05
-1.08867e-05
-1.0897e-05
-1.09071e-05
-1.0917e-05
-1.09266e-05
-1.0936e-05
-1.09451e-05
-1.0954e-05
-1.09627e-05
-1.09711e-05
-1.09793e-05
-1.09873e-05
-1.09951e-05
-1.10026e-05
-1.10099e-05
-1.1017e-05
-1.10239e-05
-1.10306e-05
-1.1037e-05
-1.10433e-05
-1.10493e-05
-1.10552e-05
-1.10608e-05
-1.10662e-05
-1.10715e-05
-1.10765e-05
-1.10814e-05
-1.10861e-05
-1.10906e-05
-1.10949e-05
-1.10991e-05
-1.11031e-05
-1.11069e-05
-1.11106e-05
-1.11141e-05
-1.11174e-05
-1.11206e-05
-1.11237e-05
-1.11266e-05
-1.11293e-05
-1.1132e-05
-1.11345e-05
-1.11368e-05
-1.11391e-05
-1.11412e-05
-1.11432e-05
-1.11451e-05
-1.11469e-05
-1.11486e-05
-1.11502e-05
-1.11517e-05
-1.1153e-05
-1.11543e-05
-1.11556e-05
-1.11567e-05
-1.11578e-05
-1.11587e-05
-1.11596e-05
-1.11605e-05
-1.11613e-05
-1.1162e-05
-1.11626e-05
-1.11632e-05
-1.11638e-05
-1.11643e-05
-1.11647e-05
-1.11652e-05
-1.11655e-05
-1.11659e-05
-1.11662e-05
-1.11664e-05
-1.11667e-05
-1.11669e-05
-1.11671e-05
-1.11672e-05
-1.11674e-05
-1.11675e-05
-1.11676e-05
-1.11677e-05
-1.11678e-05
-1.11679e-05
-1.1168e-05
-1.1168e-05
-1.11681e-05
-1.11682e-05
-1.11682e-05
-1.11683e-05
-1.11683e-05
-1.11684e-05
-1.11684e-05
-1.11685e-05
-1.11685e-05
-1.11686e-05
-1.11686e-05
-1.11687e-05
-1.11687e-05
-1.11687e-05
-1.11688e-05
-1.11688e-05
-1.11689e-05
-1.11689e-05
-1.1169e-05
-1.1169e-05
-1.11691e-05
-1.11691e-05
-1.11692e-05
-1.11692e-05
-1.11693e-05
-1.11693e-05
-1.11693e-05
-1.11694e-05
-1.11694e-05
-1.11695e-05
-1.11695e-05
-1.11696e-05
-1.11696e-05
-1.11697e-05
-1.11697e-05
-1.11698e-05
-1.11698e-05
-1.11698e-05
-1.11699e-05
-1.11699e-05
-1.117e-05
-1.117e-05
-1.11701e-05
-1.11701e-05
-1.11702e-05
-1.11702e-05
-1.11703e-05
-1.11703e-05
-1.11703e-05
-1.11704e-05
-1.11704e-05
-1.11705e-05
-1.11705e-05
-1.11706e-05
-1.11706e-05
-1.11707e-05
-1.11707e-05
-1.11708e-05
-1.11708e-05
-1.11709e-05
-1.11709e-05
-1.11709e-05
-1.1171e-05
-1.1171e-05
-1.11711e-05
-1.11711e-05
-1.11712e-05
-1.11712e-05
-1.11713e-05
-1.11713e-05
-1.11714e-05
-1.11714e-05
-1.11715e-05
-1.11715e-05
-1.11715e-05
-1.11716e-05
-1.11716e-05
-1.11717e-05
-1.11717e-05
-1.11718e-05
-1.11718e-05
-1.11719e-05
-1.11719e-05
-1.1172e-05
-1.1172e-05
-1.11721e-05
-1.11721e-05
-1.11721e-05
-1.11722e-05
-1.11722e-05
-1.11723e-05
-1.11723e-05
-1.11724e-05
-1.11724e-05
-1.11725e-05
-1.11725e-05
-1.11726e-05
-1.11726e-05
-1.11727e-05
-1.11727e-05
-1.11727e-05
-1.11728e-05
-1.11728e-05
-1.11729e-05
-1.11729e-05
-1.1173e-05
-1.1173e-05
-1.11731e-05
-1.11731e-05
-1.11732e-05
-1.11732e-05
-1.11733e-05
-1.11733e-05
-1.11733e-05
-1.11734e-05
-1.11734e-05
-1.11735e-05
-1.11735e-05
-1.11736e-05
-1.11736e-05
-1.11737e-05
-1.11737e-05
-1.11738e-05
-1.11738e-05
-1.11739e-05
-1.11739e-05
-1.1174e-05
-1.1174e-05
-1.1174e-05
-1.11741e-05
-1.11741e-05
-1.11742e-05
-1.11742e-05
-1.11743e-05
-1.11743e-05
-1.11744e-05
-1.11744e-05
-1.11745e-05
-1.11745e-05
-1.11746e-05
-1.11746e-05
-1.11746e-05
-1.11747e-05
-1.11747e-05
-1.11748e-05
-1.11748e-05
-1.11749e-05
-1.11749e-05
-1.1175e-05
-1.1175e-05
-1.11751e-05
-1.11751e-05
-1.11752e-05
-1.11752e-05
-1.11753e-05
-1.11753e-05
-1.11753e-05
-1.11754e-05
-1.11754e-05
-1.11755e-05
-1.11755e-05
-1.11756e-05
-1.11756e-05
-1.11757e-05
-1.11757e-05
-1.11758e-05
-1.11758e-05
-1.11759e-05
-1.11759e-05
-1.1176e-05
-1.1176e-05
-1.11761e-05