# vtk DataFile Version 2.0
FlowField
ASCII
DATASET STRUCTURED_GRID
DIMENSIONS 800 1 200
POINTS 160000 float
0 0 0
0.04 0 0
0.08 0 0
0.12 0 0
0.16 0 0
0.2 0 0
0.24 0 0
0.28 0 0
0.32 0 0
0.36 0 0
0.4 0 0
0.44 0 0
0.48 0 0
0.52 0 0
0.56 0 0
0.6 0 0
0.64 0 0
0.68 0 0
0.72 0 0
0.76 0 0
0.8 0 0
0.84 0 0
0.88 0 0
0.92 0 0
0.96 0 0
1 0 0
1.04 0 0
1.08 0 0
1.12 0 0
1.16 0 0
1.2 0 0
1.24 0 0
1.28 0 0
1.32 0 0
1.36 0 0
1.4 0 0
1.44 0 0
1.48 0 0
1.52 0 0
1.56 0 0
1.6 0 0
1.64 0 0
1.68 0 0
1.72 0 0
1.76 0 0
1.8 0 0
1.84 0 0
1.88 0 0
1.92 0 0
1.96 0 0
2 0 0
2.04 0 0
2.08 0 0
2.12 0 0
2.16 0 0
2.2 0 0
2.24 0 0
2.28 0 0
2.32 0 0
2.36 0 0
2.4 0 0
2.44 0 0
2.48 0 0
2.52 0 0
2.56 0 0
2.6 0 0
2.64 0 0
2.68 0 0
2.72 0 0
2.76 0 0
2.8 0 0
2.84 0 0
2.88 0 0
2.92 0 0
2.96 0 0
3 0 0
3.04 0 0
3.08 0 0
3.12 0 0
3.16 0 0
3.2 0 0
3.24 0 0
3.28 0 0
3.32 0 0
3.36 0 0
3.4 0 0
3.44 0 0
3.48 0 0
3.52 0 0
3.56 0 0
3.6 0 0
3.64 0 0
3.68 0 0
3.72 0 0
3.76 0 0
3.8 0 0
3.84 0 0
3.88 0 0
3.92 0 0
3.96 0 0
4 0 0
4.04 0 0
4.08 0 0
4.12 0 0
4.16 0 0
4.2 0 0
4.24 0 0
4.28 0 0
4.32 0 0
4.36 0 0
4.4 0 0
4.44 0 0
4.48 0 0
4.52 0 0
4.56 0 0
4.6 0 0
4.64 0 0
4.68 0 0
4.72 0 0
4.76 0 0
4.8 0 0
4.84 0 0
4.88 0 0
4.92 0 0
4.96 0 0
5 0 0
5.04 0 0
5.08 0 0
5.12 0 0
5.16 0 0
5.2 0 0
5.24 0 0
5.28 0 0
5.32 0 0
5.36 0 0
5.4 0 0
5.44 0 0
5.48 0 0
5.52 0 0
5.56 0 0
5.6 0 0
5.64 0 0
5.68 0 0
5.72 0 0
5.76 0 0
5.8 0 0
5.84 0 0
5.88 0 0
5.92 0 0
5.96 0 0
6 0 0
6.04 0 0
6.08 0 0
6.12 0 0
6.16 0 0
6.2 0 0
6.24 0 0
6.28 0 0
6.32 0 0
6.36 0 0
6.4 0 0
6.44 0 0
6.48 0 0
6.52 0 0
6.56 0 0
6.6 0 0
6.64 0 0
6.68 0 0
6.72 0 0
6.76 0 0
6.8 0 0
6.84 0 0
6.88 0 0
6.92 0 0
6.96 0 0
7 0 0
7.04 0 0
7.08 0 0
7.12 0 0
7.16 0 0
7.2 0 0
7.24 0 0
7.28 0 0
7.32 0 0
7.36 0 0
7.4 0 0
7.44 0 0
7.48 0 0
7.52 0 0
7.56 0 0
7.6 0 0
7.64 0 0
7.68 0 0
7.72 0 0
7.76 0 0
7.8 0 0
7.84 0 0
7.88 0 0
7.92 0 0
7.96 0 0
8 0 0
8.04 0 0
8.08 0 0
8.12 0 0
8.16 0 0
8.2 0 0
8.24 0 0
8.28 0 0
8.32 0 0
8.36 0 0
8.4 0 0
8.44 0 0
8.48 0 0
8.52 0 0
8.56 0 0
8.6 0 0
8.64 0 0
8.68 0 0
8.72 0 0
8.76 0 0
8.8 0 0
8.84 0 0
8.88 0 0
8.92 0 0
8.96 0 0
9 0 0
9.04 0 0
9.08 0 0
9.12 0 0
9.16 0 0
9.2 0 0
9.24 0 0
9.28 0 0
9.32 0 0
9.36 0 0
9.4 0 0
9.44 0 0
9.48 0 0
9.52 0 0
9.56 0 0
9.6 0 0
9.64 0 0
9.68 0 0
9.72 0 0
9.76 0 0
9.8 0 0
9.84 0 0
9.88 0 0
9.92 0 0
9.96 0 0
10 0 0
10.04 0 0
10.08 0 0
10.12 0 0
10.16 0 0
10.2 0 0
10.24 0 0
10.28 0 0
10.32 0 0
10.36 0 0
10.4 0 0
10.44 0 0
10.48 0 0
10.52 0 0
10.56 0 0
10.6 0 0
10.64 0 0
10.68 0 0
10.72 0 0
10.76 0 0
10.8 0 0
10.84 0 0
10.88 0 0
10.92 0 0
10.96 0 0
11 0 0
11.04 0 0
11.08 0 0
11.12 0 0
11.16 0 0
11.2 0 0
11.24 0 0
11.28 0 0
11.32 0 0
11.36 0 0
11.4 0 0
11.44 0 0
11.48 0 0
11.52 0 0
11.56 0 0
11.6 0 0
11.64 0 0
11.68 0 0
11.72 0 0
11.76 0 0
11.8 0 0
11.84 0 0
11.88 0 0
11.92 0 0
11.96 0 0
12 0 0
12.04 0 0
12.08 0 0
12.12 0 0
12.16 0 0
12.2 0 0
12.24 0 0
12.28 0 0
12.32 0 0
12.36 0 0
12.4 0 0
12.44 0 0
12.48 0 0
12.52 0 0
12.56 0 0
12.6 0 0
12.64 0 0
12.68 0 0
12.72 0 0
12.76 0 0
12.8 0 0
12.84 0 0
12.88 0 0
12.92 0 0
12.96 0 0
13 0 0
13.04 0 0
13.08 0 0
13.12 0 0
13.16 0 0
13.2 0 0
13.24 0 0
13.28 0 0
13.32 0 0
13.36 0 0
13.4 0 0
13.44 0 0
13.48 0 0
13.52 0 0
13.56 0 0
13.6 0 0
13.64 0 0
13.68 0 0
13.72 0 0
13.76 0 0
13.8 0 0
13.84 0 0
13.88 0 0
13.92 0 0
13.96 0 0
14 0 0
14.04 0 0
14.08 0 0
14.12 0 0
14.16 0 0
14.2 0 0
14.24 0 0
14.28 0 0
14.32 0 0
14.36 0 0
14.4 0 0
14.44 0 0
14.48 0 0
14.52 0 0
14.56 0 0
14.6 0 0
14.64 0 0
14.68 0 0
14.72 0 0
14.76 0 0
14.8 0 0
14.84 0 0
14.88 0 0
14.92 0 0
14.96 0 0
15 0 0
15.04 0 0
15.08 0 0
15.12 0 0
15.16 0 0
15.2 0 0
15.24 0 0
15.28 0 0
15.32 0 0
15.36 0 0
15.4 0 0
15.44 0 0
15.48 0 0
15.52 0 0
15.56 0 0
15.6 0 0
15.64 0 0
15.68 0 0
15.72 0 0
15.76 0 0
15.8 0 0
15.84 0 0
15.88 0 0
15.92 0 0
15.96 0 0
16 0 0
16.04 0 0
16.08 0 0
16.12 0 0
16.16 0 0
16.2 0 0
16.24 0 0
16.28 0 0
16.32 0 0
16.36 0 0
16.4 0 0
16.44 0 0
16.48 0 0
16.52 0 0
16.56 0 0
16.6 0 0
16.64 0 0
16.68 0 0
16.72 0 0
16.76 0 0
16.8 0 0
16.84 0 0
16.88 0 0
16.92 0 0
16.96 0 0
17 0 0
17.04 0 0
17.08 0 0
17.12 0 0
17.16 0 0
17.2 0 0
17.24 0 0
17.28 0 0
17.32 0 0
17.36 0 0
17.4 0 0
17.44 0 0
17.48 0 0
17.52 0 0
17.56 0 0
17.6 0 0
17.64 0 0
17.68 0 0
17.72 0 0
17.76 0 0
17.8 0 0
17.84 0 0
17.88 0 0
17.92 0 0
17.96 0 0
18 0 0
18.04 0 0
18.08 0 0
18.12 0 0
18.16 0 0
18.2 0 0
18.24 0 0
18.28 0 0
18.32 0 0
18.36 0 0
18.4 0 0
18.44 0 0
18.48 0 0
18.52 0 0
18.56 0 0
18.6 0 0
18.64 0 0
18.68 0 0
18.72 0 0
18.76 0 0
18.8 0 0
18.84 0 0
18.88 0 0
18.92 0 0
18.96 0 0
19 0 0
19.04 0 0
19.08 0 0
19.12 0 0
19.16 0 0
19.2 0 0
19.24 0 0
19.28 0 0
19.32 0 0
19.36 0 0
19.4 0 0
19.44 0 0
19.48 0 0
19.52 0 0
19.56 0 0
19.6 0 0
19.64 0 0
19.68 0 0
19.72 0 0
19.76 0 0
19.8 0 0
19.84 0 0
19.88 0 0
19.92 0 0
19.96 0 0
20 0 0
20.04 0 0
20.08 0 0
20.12 0 0
20.16 0 0
20.2 0 0
20.24 0 0
20.28 0 0
20.32 0 0
20.36 0 0
20.4 0 0
20.44 0 0
20.48 0 0
20.52 0 0
20.56 0 0
20.6 0 0
20.64 0 0
20.68 0 0
20.72 0 0
20.76 0 0
20.8 0 0
20.84 0 0
20.88 0 0
20.92 0 0
20.96 0 0
21 0 0
21.04 0 0
21.08 0 0
21.12 0 0
21.16 0 0
21.2 0 0
21.24 0 0
21.28 0 0
21.32 0 0
21.36 0 0
21.4 0 0
21.44 0 0
21.48 0 0
21.52 0 0
21.56 0 0
21.6 0 0
21.64 0 0
21.68 0 0
21.72 0 0
21.76 0 0
21.8 0 0
21.84 0 0
21.88 0 0
21.92 0 0
21.96 0 0
22 0 0
22.04 0 0
22.08 0 0
22.12 0 0
22.16 0 0
22.2 0 0
22.24 0 0
22.28 0 0
22.32 0 0
22.36 0 0
22.4 0 0
22.44 0 0
22.48 0 0
22.52 0 0
22.56 0 0
22.6 0 0
22.64 0 0
22.68 0 0
22.72 0 0
22.76 0 0
22.8 0 0
22.84 0 0
22.88 0 0
22.92 0 0
22.96 0 0
23 0 0
23.04 0 0
23.08 0 0
23.12 0 0
23.16 0 0
23.2 0 0
23.24 0 0
23.28 0 0
23.32 0 0
23.36 0 0
23.4 0 0
23.44 0 0
23.48 0 0
23.52 0 0
23.56 0 0
23.6 0 0
23.64 0 0
23.68 0 0
23.72 0 0
23.76 0 0
23.8 0 0
23.84 0 0
23.88 0 0
23.92 0 0
23.96 0 0
24 0 0
24.04 0 0
24.08 0 0
24.12 0 0
24.16 0 0
24.2 0 0
24.24 0 0
24.28 0 0
24.32 0 0
24.36 0 0
24.4 0 0
24.44 0 0
24.48 0 0
24.52 0 0
24.56 0 0
24.6 0 0
24.64 0 0
24.68 0 0
24.72 0 0
24.76 0 0
24.8 0 0
24.84 0 0
24.88 0 0
24.92 0 0
24.96 0 0
25 0 0
25.04 0 0
25.08 0 0
25.12 0 0
25.16 0 0
25.2 0 0
25.24 0 0
25.28 0 0
25.32 0 0
25.36 0 0
25.4 0 0
25.44 0 0
25.48 0 0
25.52 0 0
25.56 0 0
25.6 0 0
25.64 0 0
25.68 0 0
25.72 0 0
25.76 0 0
25.8 0 0
25.84 0 0
25.88 0 0
25.92 0 0
25.96 0 0
26 0 0
26.04 0 0
26.08 0 0
26.12 0 0
26.16 0 0
26.2 0 0
26.24 0 0
26.28 0 0
26.32 0 0
26.36 0 0
26.4 0 0
26.44 0 0
26.48 0 0
26.52 0 0
26.56 0 0
26.6 0 0
26.64 0 0
26.68 0 0
26.72 0 0
26.76 0 0
26.8 0 0
26.84 0 0
26.88 0 0
26.92 0 0
26.96 0 0
27 0 0
27.04 0 0
27.08 0 0
27.12 0 0
27.16 0 0
27.2 0 0
27.24 0 0
27.28 0 0
27.32 0 0
27.36 0 0
27.4 0 0
27.44 0 0
27.48 0 0
27.52 0 0
27.56 0 0
27.6 0 0
27.64 0 0
27.68 0 0
27.72 0 0
27.76 0 0
27.8 0 0
27.84 0 0
27.88 0 0
27.92 0 0
27.96 0 0
28 0 0
28.04 0 0
28.08 0 0
28.12 0 0
28.16 0 0
28.2 0 0
28.24 0 0
28.28 0 0
28.32 0 0
28.36 0 0
28.4 0 0
28.44 0 0
28.48 0 0
28.52 0 0
28.56 0 0
28.6 0 0
28.64 0 0
28.68 0 0
28.72 0 0
28.76 0 0
28.8 0 0
28.84 0 0
28.88 0 0
28.92 0 0
28.96 0 0
29 0 0
29.04 0 0
29.08 0 0
29.12 0 0
29.16 0 0
29.2 0 0
29.24 0 0
29.28 0 0
29.32 0 0
29.36 0 0
29.4 0 0
29.44 0 0
29.48 0 0
29.52 0 0
29.56 0 0
29.6 0 0
29.64 0 0
29.68 0 0
29.72 0 0
29.76 0 0
29.8 0 0
29.84 0 0
29.88 0 0
29.92 0 0
29.96 0 0
30 0 0
30.04 0 0
30.08 0 0
30.12 0 0
30.16 0 0
30.2 0 0
30.24 0 0
30.28 0 0
30.32 0 0
30.36 0 0
30.4 0 0
30.44 0 0
30.48 0 0
30.52 0 0
30.56 0 0
30.6 0 0
30.64 0 0
30.68 0 0
30.72 0 0
30.76 0 0
30.8 0 0
30.84 0 0
30.88 0 0
30.92 0 0
30.96 0 0
31 0 0
31.04 0 0
31.08 0 0
31.12 0 0
31.16 0 0
31.2 0 0
31.24 0 0
31.28 0 0
31.32 0 0
31.36 0 0
31.4 0 0
31.44 0 0
31.48 0 0
31.52 0 0
31.56 0 0
31.6 0 0
31.64 0 0
31.68 0 0
31.72 0 0
31.76 0 0
31.8 0 0
31.84 0 0
31.88 0 0
31.92 0 0
31.96 0 0
0 0.005 0
0.04 0.005 0
0.08 0.005 0
0.12 0.005 0
0.16 0.005 0
0.2 0.005 0
0.24 0.005 0
0.28 0.005 0
0.32 0.005 0
0.36 0.005 0
0.4 0.005 0
0.44 0.005 0
0.48 0.005 0
0.52 0.005 0
0.56 0.005 0
0.6 0.005 0
0.64 0.005 0
0.68 0.005 0
0.72 0.005 0
0.76 0.005 0
0.8 0.005 0
0.84 0.005 0
0.88 0.005 0
0.92 0.005 0
0.96 0.005 0
1 0.005 0
1.04 0.005 0
1.08 0.005 0
1.12 0.005 0
1.16 0.005 0
1.2 0.005 0
1.24 0.005 0
1.28 0.005 0
1.32 0.005 0
1.36 0.005 0
1.4 0.005 0
1.44 0.005 0
1.48 0.005 0
1.52 0.005 0
1.56 0.005 0
1.6 0.005 0
1.64 0.005 0
1.68 0.005 0
1.72 0.005 0
1.76 0.005 0
1.8 0.005 0
1.84 0.005 0
1.88 0.005 0
1.92 0.005 0
1.96 0.005 0
2 0.005 0
2.04 0.005 0
2.08 0.005 0
2.12 0.005 0
2.16 0.005 0
2.2 0.005 0
2.24 0.005 0
2.28 0.005 0
2.32 0.005 0
2.36 0.005 0
2.4 0.005 0
2.44 0.005 0
2.48 0.005 0
2.52 0.005 0
2.56 0.005 0
2.6 0.005 0
2.64 0.005 0
2.68 0.005 0
2.72 0.005 0
2.76 0.005 0
2.8 0.005 0
2.84 0.005 0
2.88 0.005 0
2.92 0.005 0
2.96 0.005 0
3 0.005 0
3.04 0.005 0
3.08 0.005 0
3.12 0.005 0
3.16 0.005 0
3.2 0.005 0
3.24 0.005 0
3.28 0.005 0
3.32 0.005 0
3.36 0.005 0
3.4 0.005 0
3.44 0.005 0
3.48 0.005 0
3.52 0.005 0
3.56 0.005 0
3.6 0.005 0
3.64 0.005 0
3.68 0.005 0
3.72 0.005 0
3.76 0.005 0
3.8 0.005 0
3.84 0.005 0
3.88 0.005 0
3.92 0.005 0
3.96 0.005 0
4 0.005 0
4.04 0.005 0
4.08 0.005 0
4.12 0.005 0
4.16 0.005 0
4.2 0.005 0
4.24 0.005 0
4.28 0.005 0
4.32 0.005 0
4.36 0.005 0
4.4 0.005 0
4.44 0.005 0
4.48 0.005 0
4.52 0.005 0
4.56 0.005 0
4.6 0.005 0
4.64 0.005 0
4.68 0.005 0
4.72 0.005 0
4.76 0.005 0
4.8 0.005 0
4.84 0.005 0
4.88 0.005 0
4.92 0.005 0
4.96 0.005 0
5 0.005 0
5.04 0.005 0
5.08 0.005 0
5.12 0.005 0
5.16 0.005 0
5.2 0.005 0
5.24 0.005 0
5.28 0.005 0
5.32 0.005 0
5.36 0.005 0
5.4 0.005 0
5.44 0.005 0
5.48 0.005 0
5.52 0.005 0
5.56 0.005 0
5.6 0.005 0
5.64 0.005 0
5.68 0.005 0
5.72 0.005 0
5.76 0.005 0
5.8 0.005 0
5.84 0.005 0
5.88 0.005 0
5.92 0.005 0
5.96 0.005 0
6 0.005 0
6.04 0.005 0
6.08 0.005 0
6.12 0.005 0
6.16 0.005 0
6.2 0.005 0
6.24 0.005 0
6.28 0.005 0
6.32 0.005 0
6.36 0.005 0
6.4 0.005 0
6.44 0.005 0
6.48 0.005 0
6.52 0.005 0
6.56 0.005 0
6.6 0.005 0
6.64 0.005 0
6.68 0.005 0
6.72 0.005 0
6.76 0.005 0
6.8 0.005 0
6.84 0.005 0
6.88 0.005 0
6.92 0.005 0
6.96 0.005 0
7 0.005 0
7.04 0.005 0
7.08 0.005 0
7.12 0.005 0
7.16 0.005 0
7.2 0.005 0
7.24 0.005 0
7.28 0.005 0
7.32 0.005 0
7.36 0.005 0
7.4 0.005 0
[...]
POINT_DATA 160000

SCALARS phi float 1
LOOKUP_TABLE default
1
1
1
1
1
1
1
1
1
1
1
1
1
1
1
1
1
1
1
1
1
1
1
1
1
1
1
1
1
1
1
1
1
1
1
0.999999
0.999999
0.999999
0.999999
0.999998
0.999997
0.999997
0.999995
0.999994
0.999992
0.99999
0.999988
0.999985
0.999981
0.999977
0.999972
0.999965
0.999957
0.999948
0.999936
0.999921
0.999903
0.999881
0.999853
0.999818
0.999775
0.99972
0.999653
0.99957
0.999468
0.999342
0.99919
0.999005
0.998783
0.998519
0.998205
0.997836
0.997404
0.996902
0.996323
0.995659
0.994901
0.994043
0.993075
0.99199
0.990781
0.989439
0.987959
0.986332
0.984553
0.982616
0.980515
0.978245
0.975803
0.973184
0.970386
0.967406
0.964242
0.960893
0.957359
0.95364
0.949735
0.945647
0.941376
0.936925
0.932296
0.927493
0.922519
0.917377
0.912071
0.906606
0.900986
0.895217
0.889302
0.883248
0.877059
0.870741
0.864299
0.857739
0.851067
0.844287
0.837407
0.83043
0.823363
0.816211
0.80898
0.801674
0.7943
0.786861
0.779364
0.771814
0.764214
0.75657
0.748887
0.741168
0.733418
0.725642
0.717843
0.710025
0.702193
0.694349
0.686498
0.678642
0.670785
0.66293
0.655081
0.647239
0.639408
0.631591
0.62379
0.616007
0.608246
0.600507
0.592793
0.585107
0.577449
0.569823
0.562229
0.554669
0.547146
0.539659
0.532212
0.524804
0.517438
0.510114
0.502834
0.495599
0.488409
0.481265
0.474169
0.467121
0.460122
0.453173
0.446274
0.439425
0.432628
0.425883
0.419191
0.412551
0.405964
0.399431
0.392951
0.386526
0.380155
0.373838
0.367577
0.36137
0.355218
0.349121
0.34308
0.337094
0.331163
0.325287
0.319467
0.313702
0.307992
0.302338
0.296738
0.291194
0.285705
0.280271
0.274891
0.269566
0.264296
0.25908
0.253919
0.248811
0.243758
0.238759
0.233813
0.228921
0.224082
0.219297
0.214564
0.209885
0.205259
0.200685
0.196164
0.191696
0.18728
0.182916
0.178604
0.174345
0.170137
0.165982
0.161878
0.157826
0.153826
0.149878
0.145981
0.142136
0.138343
0.134602
0.130912
0.127274
0.123688
0.120154
0.116672
0.113241
0.109863
0.106537
0.103264
0.100043
0.0968739
0.0937579
0.0906945
0.0876841
0.0847266
0.0818223
0.0789712
0.0761736
0.0734294
0.070739
0.0681023
0.0655195
0.0629907
0.060516
0.0580956
0.0557295
0.0534177
0.0511605
0.0489577
0.0468094
0.0447157
0.0426765
0.0406918
0.0387616
0.0368858
0.0350642
0.0332969
0.0315836
0.0299241
0.0283182
0.0267657
0.0252663
0.0238197
0.0224255
0.0210833
0.0197927
0.0185532
0.0173643
0.0162255
0.0151361
0.0140954
0.0131029
0.0121576
0.0112589
0.0104059
0.00959769
0.00883335
0.00811189
0.00743229
0.00679346
0.00619428
0.00563359
0.00511018
0.0046228
0.00417017
0.00375094
0.00336378
0.00300728
0.00268003
0.00238061
0.00210754
0.00185939
0.00163466
0.00143191
0.00124968
0.00108652
0.000941036
0.000811835
0.000697579
0.000596973
0.000508773
0.000431794
0.000364912
0.000307069
0.000257277
0.000214616
0.00017824
0.000147371
0.000121302
9.93942e-05
8.1074e-05
6.58291e-05
5.32063e-05
4.28064e-05
3.42806e-05
2.73262e-05
2.16818e-05
1.71236e-05
1.3461e-05
1.05326e-05
8.20313e-06
6.35921e-06
4.90692e-06
3.76877e-06
2.88123e-06
2.19254e-06
1.66078e-06
1.25221e-06
9.39817e-07
7.02135e-07
5.22171e-07
3.86568e-07
2.84883e-07
2.08997e-07
1.52636e-07
1.10974e-07
8.03228e-08
5.78789e-08
4.15215e-08
2.96554e-08
2.10873e-08
1.4929e-08
1.05232e-08
7.38536e-09
5.16079e-09
3.59078e-09
2.48769e-09
1.71613e-09
1.17884e-09
8.0635e-10
5.4924e-10
3.72545e-10
2.51642e-10
1.69271e-10
1.13394e-10
7.56495e-11
5.02626e-11
3.32594e-11
2.1919e-11
1.43872e-11
9.40557e-12
6.12431e-12
3.97193e-12
2.56582e-12
1.65096e-12
1.05815e-12
6.75551e-13
4.29618e-13
2.72162e-13
1.71751e-13
1.07971e-13
6.76175e-14
4.21854e-14
2.62195e-14
1.6235e-14
1.00151e-14
6.15514e-15
3.76886e-15
2.29921e-15
1.3975e-15
8.46318e-16
5.10663e-16
3.07015e-16
1.83915e-16
1.09777e-16
6.52911e-17
3.86944e-17
2.28508e-17
1.34469e-17
7.8852e-18
4.6077e-18
2.68312e-18
1.557e-18
9.00404e-19
5.18908e-19
2.98026e-19
1.70583e-19
9.73063e-20
5.53192e-20
3.13434e-20
1.76994e-20
9.96138e-21
5.58771e-21
3.12398e-21
1.74079e-21
9.66845e-22
5.35234e-22
2.95334e-22
1.62432e-22
8.90476e-23
4.866e-23
2.6505e-23
1.4391e-23
7.78882e-24
4.20216e-24
2.25995e-24
1.21159e-24
6.47515e-25
3.44972e-25
1.83217e-25
9.70059e-26
5.1202e-26
2.69425e-26
1.41336e-26
7.39166e-27
3.85395e-27
2.00332e-27
1.0382e-27
5.36414e-28
2.76321e-28
1.41915e-28
7.26686e-29
3.71e-29
1.88849e-29
9.58453e-30
4.8501e-30
2.44712e-30
1.2311e-30
6.17538e-31
3.08869e-31
1.54039e-31
7.66005e-32
3.79827e-32
1.878e-32
9.25907e-33
4.55201e-33
2.23155e-33
1.0909e-33
5.31785e-34
2.58505e-34
1.2531e-34
6.0575e-35
2.92006e-35
1.40374e-35
6.72946e-36
3.2172e-36
1.53385e-36
7.2929e-37
3.45805e-37
1.63524e-37
7.71177e-38
3.62704e-38
1.7013e-38
7.95868e-39
3.71312e-39
1.72773e-39
8.01784e-40
3.71095e-40
1.71303e-40
7.88674e-41
3.62149e-41
1.65859e-41
7.57624e-42
3.45173e-42
1.56852e-42
7.10915e-43
3.21383e-43
1.44913e-43
6.51744e-44
2.9237e-44
1.30822e-44
5.83875e-45
2.5993e-45
1.15423e-45
5.11247e-46
2.25878e-46
9.95469e-47
4.37616e-47
1.91899e-47
8.39403e-48
3.6626e-48
1.59416e-48
6.9215e-49
2.99778e-49
1.29518e-49
5.5821e-50
2.39995e-50
1.02932e-50
4.40391e-51
1.87964e-51
8.00318e-52
3.39939e-52
1.44044e-52
6.08902e-53
2.56779e-53
1.08028e-53
4.53396e-54
1.8984e-54
7.92994e-55
3.30465e-55
1.37391e-55
5.69862e-56
2.35811e-56
9.73512e-57
4.00965e-57
1.64763e-57
6.75472e-58
2.76279e-58
1.12742e-58
4.59012e-59
1.86451e-59
7.55629e-60
3.05534e-60
1.2326e-60
4.96128e-61
1.99242e-61
7.98334e-62
3.19159e-62
1.27307e-62
5.06663e-63
2.01193e-63
7.97143e-64
3.1513e-64
1.24301e-64
4.89213e-65
1.92113e-65
7.5276e-66
2.94305e-66
1.14811e-66
4.46907e-67
1.7358e-67
6.72716e-68
2.60146e-68
1.00383e-68
3.86508e-69
1.48497e-69
5.69296e-70
2.17783e-70
8.31332e-71
3.16661e-71
1.20361e-71
4.56506e-72
1.72776e-72
6.52527e-73
2.45918e-73
9.24836e-74
3.47073e-74
1.29976e-74
4.85726e-75
1.81138e-75
6.74089e-76
2.50333e-76
9.27715e-77
3.4309e-77
1.26619e-77
4.66329e-78
1.71391e-78
6.2862e-79
2.30089e-79
8.40448e-80
3.06363e-80
1.11449e-80
4.04601e-81
1.46587e-81
5.30008e-82
1.91245e-82
6.88679e-83
2.47496e-83
8.87658e-84
3.17724e-84
1.13497e-84
4.0462e-85
1.43961e-85
5.11182e-86
1.81152e-86
6.40691e-87
2.26148e-87
7.96673e-88
2.80098e-88
9.82845e-89
3.44197e-89
1.20303e-89
4.19659e-90
1.46106e-90
5.07686e-91
1.76066e-91
6.09417e-92
2.10529e-92
7.25886e-93
2.49797e-93
8.57966e-94
2.94116e-94
1.00631e-94
3.43651e-95
1.17131e-95
3.98471e-96
1.35299e-96
4.58533e-97
1.55103e-97
5.23662e-98
1.76466e-98
5.93541e-99
1.99262e-99
6.67702e-100
2.2332e-100
7.45519e-101
2.48416e-101
8.26214e-102
2.74282e-102
9.08856e-103
3.006e-103
9.92383e-104
3.27015e-104
1.07562e-104
3.5314e-105
1.15729e-105
3.78563e-106
1.23607e-106
4.02858e-107
1.3106e-107
4.256e-108
1.37957e-108
4.46372e-109
1.44167e-109
4.64784e-110
1.49573e-110
4.8048e-111
1.5407e-111
4.93152e-112
1.57568e-112
5.02549e-113
1.59998e-113
5.08486e-114
1.61314e-114
5.10852e-115
1.61492e-115
5.09609e-116
1.60531e-116
5.04795e-117
1.58456e-117
4.96525e-118
1.55315e-118
4.84982e-119
1.51175e-119
4.70412e-120
1.46124e-120
4.53118e-121
1.40265e-121
4.33445e-122
1.33712e-122
4.11772e-123
1.26589e-123
3.88499e-124
1.19025e-124
3.64037e-125
1.1115e-125
3.38791e-126
1.03089e-126
3.13155e-127
9.49655e-128
2.875e-128
8.68909e-129
2.62167e-129
7.89676e-130
2.37459e-130
7.12852e-131
2.13639e-131
6.39199e-132
1.90926e-132
5.69336e-133
1.69492e-133
5.03739e-134
1.49466e-134
4.4275e-135
1.30935e-135
3.86576e-136
1.13946e-136
3.35309e-137
9.85096e-138
2.88934e-138
8.46071e-139
2.47346e-139
7.21926e-140
2.10364e-140
6.1199e-141
1.7775e-141
5.15432e-142
1.4922e-142
4.31303e-143
1.24462e-143
3.58581e-144
1.03143e-144
2.96207e-145
8.49282e-146
2.43116e-146
6.94831e-147
1.98267e-147
5.64847e-148
1.60664e-148
4.56263e-149
1.29367e-149
3.6622e-150
1.03508e-150
2.92091e-151
8.2296e-152
2.31502e-152
6.502e-153
1.8233e-153
5.1049e-154
1.42704e-154
3.98297e-155
1.10994e-155
3.08827e-156
8.57936e-157
2.37969e-157
6.59039e-158
1.82234e-158
5.03126e-159
1.38692e-159
3.81732e-160
1.04905e-160
2.8785e-161
7.88623e-162
2.15728e-162
5.89223e-163
1.6069e-163
4.37557e-164
1.18965e-164
3.22956e-165
8.75402e-166
2.36926e-166
6.40266e-167
1.72763e-167
4.65464e-168
1.25218e-168
3.3635e-169
9.0212e-170
2.41593e-170
6.46033e-171
1.72494e-171
4.5988e-172
1.22424e-172
3.25418e-173
8.63715e-174
2.28904e-174
6.05748e-175
1.60062e-175
4.22318e-176
1.11263e-176
2.92698e-177
7.68863e-178
2.01669e-178
5.28193e-179
1.38136e-179
3.60734e-180
9.40657e-181
2.44929e-181
6.3682e-182
1.65333e-182
4.28618e-183
1.10956e-183
2.86815e-184
7.40325e-185
1.90816e-185
4.91111e-186
1.26217e-186
3.23914e-187
8.30075e-188
2.12412e-188
5.42774e-189
1.38495e-189
3.52882e-190
8.97844e-191
2.28114e-191
5.78737e-192
1.46619e-192
3.70918e-193
9.37014e-194
2.36359e-194
5.95994e-195
1.47529e-195
1.47529e-195
1
1
1
1
1
1
1
1
1
1
1
1
1
1
1
1
1
1
1
1
1
1
1
1
1
1
1
1
1
1
1
1
1
1
1
0.999999
0.999999
0.999999
0.999999
0.999998
0.999997
0.999997
0.999995
0.999994
0.999992
0.99999
0.999988
0.999985
0.999981
0.999977
0.999972
0.999965
0.999957
0.999948
0.999936
0.999921
0.999903
0.999881
0.999853
0.999818
0.999775
0.99972
0.999653
0.99957
0.999468
0.999342
0.99919
0.999005
0.998783
0.998519
0.998205
0.997836
0.997404
0.996902
0.996323
0.995659
0.994901
0.994043
0.993075
0.99199
0.990781
0.989439
0.987959
0.986332
0.984553
0.982616
0.980515
0.978245
0.975803
0.973184
0.970386
0.967406
0.964242
0.960893
0.957359
0.95364
0.949735
0.945647
0.941376
0.936925
0.932296
0.927493
0.922519
0.917377
0.912071
0.906606
0.900986
0.895217
0.889302
0.883248
0.877059
0.870741
0.864299
0.857739
0.851067
0.844287
0.837407
0.83043
0.823363
0.816211
0.80898
0.801674
0.7943
0.786861
0.779364
0.771814
0.764214
0.75657
0.748887
0.741168
0.733418
0.725642
0.717843
0.710025
0.702193
0.694349
0.686498
0.678642
0.670785
0.66293
0.655081
0.647239
0.639408
0.631591
0.62379
0.616007
0.608246
0.600507
0.592793
0.585107
0.577449
0.569823
0.562229
0.554669
0.547146
0.539659
0.532212
0.524804
0.517438
0.510114
0.502834
0.495599
0.488409
0.481265
0.474169
0.467121
0.460122
0.453173
0.446274
0.439425
0.432628
0.425883
0.419191
0.412551
0.405964
0.399431
0.392951
0.386526
0.380155
0.373838
0.367577
0.36137
0.355218
0.349121
0.34308
0.337094
0.331163
0.325287
0.319467
0.313702
0.307992
0.302338
0.296738
0.291194
0.285705
0.280271
0.274891
0.269566
0.264296
0.25908
0.253919
0.248811
0.243758
0.238759
0.233813
0.228921
0.224082
0.219297
0.214564
0.209885
0.205259
0.200685
0.196164
0.191696
0.18728
0.182916
0.178604
0.174345
0.170137
0.165982
0.161878
0.157826
0.153826
0.149878
0.145981
0.142136
0.138343
0.134602
0.130912
0.127274
0.123688
0.120154
0.116672
0.113241
0.109863
0.106537
0.103264
0.100043
0.0968739
0.0937579
0.0906945
0.0876841
0.0847266
0.0818223
0.0789712
0.0761736
0.0734294
0.070739
0.0681023
0.0655195
0.0629907
0.060516
0.0580956
0.0557295
0.0534177
0.0511605
0.0489577
0.0468094
0.0447157
0.0426765
0.0406918
0.0387616
0.0368858
0.0350642
0.0332969
0.0315836
0.0299241
0.0283182
0.0267657
0.0252663
0.0238197
0.0224255
0.0210833
0.0197927
0.0185532
0.0173643
0.0162255
0.0151361
0.0140954
0.0131029
0.0121576
0.0112589
0.0104059
0.00959769
0.00883335
0.00811189
0.00743229
0.00679346
0.00619428
0.00563359
0.00511018
0.0046228
0.00417017
0.00375094
0.00336378
0.00300728
0.00268003
0.00238061
0.00210754
0.00185939
0.00163466
0.00143191
0.00124968
0.00108652
0.000941036
0.000811835
0.000697579
0.000596973
0.000508773
0.000431794
0.000364912
0.000307069
0.000257277
0.000214616
0.00017824
0.000147371
0.000121302
9.93942e-05
8.1074e-05
6.58291e-05
5.32063e-05
4.28064e-05
3.42806e-05
2.73262e-05
2.16818e-05
1.71236e-05
1.3461e-05
1.05326e-05
8.20313e-06
6.35921e-06
4.90692e-06
3.76877e-06
2.88123e-06
2.19254e-06
1.66078e-06
1.25221e-06
9.39817e-07
7.02135e-07
5.22171e-07
3.86568e-07
2.84883e-07
2.08997e-07
1.52636e-07
1.10974e-07
8.03228e-08
5.78789e-08
4.15215e-08
2.96554e-08
2.10873e-08
1.4929e-08
1.05232e-08
7.38536e-09
5.16079e-09
3.59078e-09
2.48769e-09
1.71613e-09
1.17884e-09
8.0635e-10
5.4924e-10
3.72545e-10
2.51642e-10
1.69271e-10
1.13394e-10
7.56495e-11
5.02626e-11
3.32594e-11
2.1919e-11
1.43872e-11
9.40557e-12
6.12431e-12
3.97193e-12
2.56582e-12
1.65096e-12
1.05815e-12
6.75551e-13
4.29618e-13
2.72162e-13
1.71751e-13
1.07971e-13
6.76175e-14
4.21854e-14
2.62195e-14
1.6235e-14
1.00151e-14
6.15514e-15
3.76886e-15
2.29921e-15
1.3975e-15
8.46318e-16
5.10663e-16
3.07015e-16
1.83915e-16
1.09777e-16
6.52911e-17
3.86944e-17
2.28508e-17
1.34469e-17
7.8852e-18
4.6077e-18
2.68312e-18
1.557e-18
9.00404e-19
5.18908e-19
2.98026e-19
1.70583e-19
9.73063e-20
5.53192e-20
3.13434e-20
1.76994e-20
9.96138e-21
5.58771e-21
3.12398e-21
1.74079e-21
9.66845e-22
5.35234e-22
2.95334e-22
1.62432e-22
8.90476e-23
4.866e-23
2.6505e-23
1.4391e-23
7.78882e-24
4.20216e-24
2.25995e-24
1.21159e-24
6.47515e-25
3.44972e-25
1.83217e-25
9.70059e-26
5.1202e-26
2.69425e-26
1.41336e-26
7.39166e-27
3.85395e-27
2.00332e-27
1.0382e-27
5.36414e-28
2.76321e-28
1.41915e-28
7.26686e-29
3.71e-29
1.88849e-29
9.58453e-30
4.8501e-30
2.44712e-30
1.2311e-30
6.17538e-31
3.08869e-31
1.54039e-31
7.66005e-32
3.79827e-32
1.878e-32
9.25907e-33
4.55201e-33
2.23155e-33
1.0909e-33
5.31785e-34
2.58505e-34
1.2531e-34
6.0575e-35
2.92006e-35
1.40374e-35
6.72946e-36
3.2172e-36
1.53385e-36
7.2929e-37
3.45805e-37
1.63524e-37
7.71177e-38
3.62704e-38
1.7013e-38
7.95868e-39
3.71312e-39
1.72773e-39
8.01784e-40
3.71095e-40
1.71303e-40
7.88674e-41
3.62149e-41
1.65859e-41
7.57624e-42
3.45173e-42
1.56852e-42
7.10915e-43
3.21383e-43
1.44913e-43
6.51744e-44
2.9237e-44
1.30822e-44
5.83875e-45
2.5993e-45
1.15423e-45
5.11247e-46
2.25878e-46
9.95469e-47
4.37616e-47
1.91899e-47
8.39403e-48
3.6626e-48
1.59416e-48
6.9215e-49
2.99778e-49
1.29518e-49
5.5821e-50
2.39995e-50
1.02932e-50
4.40391e-51
1.87964e-51
8.00318e-52
3.39939e-52
1.44044e-52
6.08902e-53
2.56779e-53
1.08028e-53
4.53396e-54
1.8984e-54
7.92994e-55
3.30465e-55
1.37391e-55
5.69862e-56
2.35811e-56
9.73512e-57
4.00965e-57
1.64763e-57
6.75472e-58
2.76279e-58
1.12742e-58
4.59012e-59
1.86451e-59
7.55629e-60
3.05534e-60
1.2326e-60
4.96128e-61
1.99242e-61
7.98334e-62
3.19159e-62
1.27307e-62
5.06663e-63
2.01193e-63
7.97143e-64
3.1513e-64
1.24301e-64
4.89213e-65
1.92113e-65
7.5276e-66
2.94305e-66
1.14811e-66
4.46907e-67
1.7358e-67
6.72716e-68
2.60146e-68
1.00383e-68
3.86508e-69
1.48497e-69
5.69296e-70
2.17783e-70
8.31332e-71
3.16661e-71
1.20361e-71
4.56506e-72
1.72776e-72
6.52527e-73
2.45918e-73
9.24836e-74
3.47073e-74
1.29976e-74
4.85726e-75
1.81138e-75
6.74089e-76
2.50333e-76
9.27715e-77
3.4309e-77
1.26619e-77
4.66329e-78
1.71391e-78
6.2862e-79
2.30089e-79
8.40448e-80
3.06363e-80
1.11449e-80
4.04601e-81
1.46587e-81
5.30008e-82
1.91245e-82
6.88679e-83
2.47496e-83
8.87658e-84
3.17724e-84
1.13497e-84
4.0462e-85
1.43961e-85
5.11182e-86
1.81152e-86
6.40691e-87
2.26148e-87
7.96673e-88
2.80098e-88
9.82845e-89
3.44197e-89
1.20303e-89
4.19659e-90
1.46106e-90
5.07686e-91
1.76066e-91
6.09417e-92
2.10529e-92
7.25886e-93
2.49797e-93
8.57966e-94
2.94116e-94
1.00631e-94
3.43651e-95
1.17131e-95
3.98471e-96
1.35299e-96
4.58533e-97
1.55103e-97
5.23662e-98
1.76466e-98
5.93541e-99
1.99262e-99
6.67702e-100
2.2332e-100
7.45519e-101
2.48416e-101
8.26214e-102
2.74282e-102
9.08856e-103
3.006e-103
9.92383e-104
3.27015e-104
1.07562e-104
3.5314e-105
1.15729e-105
3.78563e-106
1.23607e-106
4.02858e-107
1.3106e-107
4.256e-108
1.37957e-108
4.46372e-109
1.44167e-109
4.64784e-110
1.49573e-110
4.8048e-111
1.5407e-111
4.93152e-112
1.57568e-112
5.02549e-113
1.59998e-113
5.08486e-114
1.61314e-114
5.10852e-115
1.61492e-115
5.09609e-116
1.60531e-116
5.04795e-117
1.58456e-117
4.96525e-118
1.55315e-118
4.84982e-119
1.51175e-119
4.70412e-120
1.46124e-120
4.53118e-121
1.40265e-121
4.33445e-122
1.33712e-122
4.11772e-123
1.26589e-123
3.88499e-124
1.19025e-124
3.64037e-125
1.1115e-125
3.38791e-126
1.03089e-126
3.13155e-127
9.49655e-128
2.875e-128
8.68909e-129
2.62167e-129
7.89676e-130
2.37459e-130
7.12852e-131
2.13639e-131
6.39199e-132
1.90926e-132
5.69336e-133
1.69492e-133
5.03739e-134
1.49466e-134
4.4275e-135
1.30935e-135
3.86576e-136
1.13946e-136
3.35309e-137
9.85096e-138
2.88934e-138
8.46071e-139
2.47346e-139
7.21926e-140
2.10364e-140
6.1199e-141
1.7775e-141
5.15432e-142
1.4922e-142
4.31303e-143
1.24462e-143
3.58581e-144
1.03143e-144
2.96207e-145
8.49282e-146
2.43116e-146
6.94831e-147
1.98267e-147
5.64847e-148
1.60664e-148
4.56263e-149
1.29367e-149
3.6622e-150
1.03508e-150
2.92091e-151
8.2296e-152
2.31502e-152
6.502e-153
1.8233e-153
5.1049e-154
1.42704e-154
3.98297e-155
1.10994e-155
3.08827e-156
8.57936e-157
2.37969e-157
6.59039e-158
1.82234e-158
5.03126e-159
1.38692e-159
3.81732e-160
1.04905e-160
2.8785e-161
7.88623e-162
2.15728e-162
5.89223e-163
1.6069e-163
4.37557e-164
1.18965e-164
3.22956e-165
8.75402e-166
2.36926e-166
6.40266e-167
1.72763e-167
4.65464e-168
1.25218e-168
3.3635e-169
9.0212e-170
2.41593e-170
6.46033e-171
1.72494e-171
4.5988e-172
1.22424e-172
3.25418e-173
8.63715e-174
2.28904e-174
6.05748e-175
1.60062e-175
4.22318e-176
1.11263e-176
2.92698e-177
7.68863e-178
2.01669e-178
5.28193e-179
1.38136e-179
3.60734e-180
9.40657e-181
2.44929e-181
6.3682e-182
1.65333e-182
4.28618e-183
1.10956e-183
2.86815e-184
7.40325e-185
1.90816e-185
4.91111e-186
1.26217e-186
3.23914e-187
8.30075e-188
2.12412e-188
5.42774e-189
1.38495e-189
3.52882e-190
8.97844e-191
2.28114e-191
5.78737e-192
1.46619e-192
3.70918e-193
9.37014e-194
2.36359e-194
5.95994e-195
1.47529e-195
1.47529e-195
1
1
1
1
1
1
1
1
1
1
1
1
1
1
1
1
1
1
1
1
1
1
1
1
1
1
1
1
1
1
1
1
1
1
1
0.999999
0.999999
0.999999
0.999999
0.999998
0.999997
0.999997
0.999995
0.999994
0.999992
0.99999
0.999988
0.999985
0.999981
0.999977
0.999972
0.999965
0.999957
0.999948
0.999936
0.999922
0.999904
0.999881
0.999854
0.999819
0.999776
0.999723
0.999656
0.999574
0.999472
0.999348
0.999197
0.999015
0.998795
0.998533
0.998223
0.997857
0.997429
0.996932
0.996358
0.9957
0.994949
0.994097
0.993137
0.992061
0.990861
0.989529
0.988059
0.986443
0.984676
0.982751
0.980663
0.978407
0.975979
0.973375
0.970592
0.967628
0.96448
0.961148
0.957631
0.953928
0.950041
0.94597
0.941717
0.937284
0.932674
0.927889
0.922932
0.917808
0.91252
0.907073
0.901471
0.895719
0.889821
0.883784
0.877612
0.87131
0.864885
0.858341
0.851684
0.84492
0.838054
0.831092
0.824039
0.816901
0.809683
0.802391
0.795029
0.787603
0.780118
0.772579
0.76499
0.757357
0.749684
0.741975
0.734235
0.726467
0.718677
0.710867
0.703043
0.695206
0.687362
0.679513
0.671662
0.663814
0.65597
0.648134
0.640308
0.632496
0.624699
0.61692
0.609162
0.601427
0.593716
0.586033
0.578378
0.570754
0.563162
0.555604
0.548082
0.540597
0.53315
0.525744
0.518378
0.511055
0.503775
0.496539
0.489349
0.482205
0.475108
0.46806
0.46106
0.454109
0.447209
0.440359
0.43356
0.426814
0.420119
0.413477
0.406888
0.400353
0.393871
0.387443
0.381069
0.37475
0.368486
0.362276
0.356121
0.350021
0.343976
0.337987
0.332052
0.326173
0.320349
0.314581
0.308867
0.303209
0.297606
0.292057
0.286564
0.281126
0.275742
0.270413
0.265138
0.259918
0.254752
0.24964
0.244583
0.239579
0.234628
0.229731
0.224888
0.220098
0.215361
0.210676
0.206045
0.201466
0.19694
0.192467
0.188045
0.183676
0.179359
0.175094
0.170881
0.16672
0.162611
0.158553
0.154547
0.150593
0.14669
0.14284
0.13904
0.135293
0.131597
0.127952
0.12436
0.120819
0.11733
0.113893
0.110508
0.107175
0.103894
0.100666
0.0974899
0.0943663
0.0912954
0.0882772
0.0853119
0.0823996
0.0795405
0.0767346
0.0739821
0.0712832
0.0686379
0.0660465
0.0635089
0.0610253
0.0585958
0.0562205
0.0538994
0.0516327
0.0494204
0.0472625
0.045159
0.04311
0.0411154
0.0391752
0.0372893
0.0354575
0.0336799
0.0319563
0.0302864
0.0286701
0.0271071
0.0255972
0.0241401
0.0227353
0.0213826
0.0200815
0.0188315
0.0176321
0.0164828
0.015383
0.014332
0.0133291
0.0123737
0.0114649
0.010602
0.00978396
0.00900995
0.00827899
0.00759005
0.00694209
0.00633399
0.00576459
0.0052327
0.00473709
0.00427649
0.00384957
0.00345499
0.00309138
0.00275732
0.0024514
0.00217216
0.00191816
0.00168792
0.00147999
0.00129291
0.00112524
0.000975566
0.000842502
0.000724698
0.000620849
0.0005297
0.000450053
0.000380769
0.000320776
0.000269069
0.000224713
0.000186843
0.000154665
0.000127457