# vtk DataFile Version 2.0
FlowField
ASCII
DATASET STRUCTURED_GRID
DIMENSIONS 800 1 200
POINTS 160000 float
0 0 0
0.04 0 0
0.08 0 0
0.12 0 0
0.16 0 0
0.2 0 0
0.24 0 0
0.28 0 0
0.32 0 0
0.36 0 0
0.4 0 0
0.44 0 0
0.48 0 0
0.52 0 0
0.56 0 0
0.6 0 0
0.64 0 0
0.68 0 0
0.72 0 0
0.76 0 0
0.8 0 0
0.84 0 0
0.88 0 0
0.92 0 0
0.96 0 0
1 0 0
1.04 0 0
1.08 0 0
1.12 0 0
1.16 0 0
1.2 0 0
1.24 0 0
1.28 0 0
1.32 0 0
1.36 0 0
1.4 0 0
1.44 0 0
1.48 0 0
1.52 0 0
1.56 0 0
1.6 0 0
1.64 0 0
1.68 0 0
1.72 0 0
1.76 0 0
1.8 0 0
1.84 0 0
1.88 0 0
1.92 0 0
1.96 0 0
2 0 0
2.04 0 0
2.08 0 0
2.12 0 0
2.16 0 0
2.2 0 0
2.24 0 0
2.28 0 0
2.32 0 0
2.36 0 0
2.4 0 0
2.44 0 0
2.48 0 0
2.52 0 0
2.56 0 0
2.6 0 0
2.64 0 0
2.68 0 0
2.72 0 0
2.76 0 0
2.8 0 0
2.84 0 0
2.88 0 0
2.92 0 0
2.96 0 0
3 0 0
3.04 0 0
3.08 0 0
3.12 0 0
3.16 0 0
3.2 0 0
3.24 0 0
3.28 0 0
3.32 0 0
3.36 0 0
3.4 0 0
3.44 0 0
3.48 0 0
3.52 0 0
3.56 0 0
3.6 0 0
3.64 0 0
3.68 0 0
3.72 0 0
3.76 0 0
3.8 0 0
3.84 0 0
3.88 0 0
3.92 0 0
3.96 0 0
4 0 0
4.04 0 0
4.08 0 0
4.12 0 0
4.16 0 0
4.2 0 0
4.24 0 0
4.28 0 0
4.32 0 0
4.36 0 0
4.4 0 0
4.44 0 0
4.48 0 0
4.52 0 0
4.56 0 0
4.6 0 0
4.64 0 0
4.68 0 0
4.72 0 0
4.76 0 0
4.8 0 0
4.84 0 0
4.88 0 0
4.92 0 0
4.96 0 0
5 0 0
5.04 0 0
5.08 0 0
5.12 0 0
5.16 0 0
5.2 0 0
5.24 0 0
5.28 0 0
5.32 0 0
5.36 0 0
5.4 0 0
5.44 0 0
5.48 0 0
5.52 0 0
5.56 0 0
5.6 0 0
5.64 0 0
5.68 0 0
5.72 0 0
5.76 0 0
5.8 0 0
5.84 0 0
5.88 0 0
5.92 0 0
5.96 0 0
6 0 0
6.04 0 0
6.08 0 0
6.12 0 0
6.16 0 0
6.2 0 0
6.24 0 0
6.28 0 0
6.32 0 0
6.36 0 0
6.4 0 0
6.44 0 0
6.48 0 0
6.52 0 0
6.56 0 0
6.6 0 0
6.64 0 0
6.68 0 0
6.72 0 0
6.76 0 0
6.8 0 0
6.84 0 0
6.88 0 0
6.92 0 0
6.96 0 0
7 0 0
7.04 0 0
7.08 0 0
7.12 0 0
7.16 0 0
7.2 0 0
7.24 0 0
7.28 0 0
7.32 0 0
7.36 0 0
7.4 0 0
7.44 0 0
7.48 0 0
7.52 0 0
7.56 0 0
7.6 0 0
7.64 0 0
7.68 0 0
7.72 0 0
7.76 0 0
7.8 0 0
7.84 0 0
7.88 0 0
7.92 0 0
7.96 0 0
8 0 0
8.04 0 0
8.08 0 0
8.12 0 0
8.16 0 0
8.2 0 0
8.24 0 0
8.28 0 0
8.32 0 0
8.36 0 0
8.4 0 0
8.44 0 0
8.48 0 0
8.52 0 0
8.56 0 0
8.6 0 0
8.64 0 0
8.68 0 0
8.72 0 0
8.76 0 0
8.8 0 0
8.84 0 0
8.88 0 0
8.92 0 0
8.96 0 0
9 0 0
9.04 0 0
9.08 0 0
9.12 0 0
9.16 0 0
9.2 0 0
9.24 0 0
9.28 0 0
9.32 0 0
9.36 0 0
9.4 0 0
9.44 0 0
9.48 0 0
9.52 0 0
9.56 0 0
9.6 0 0
9.64 0 0
9.68 0 0
9.72 0 0
9.76 0 0
9.8 0 0
9.84 0 0
9.88 0 0
9.92 0 0
9.96 0 0
10 0 0
10.04 0 0
10.08 0 0
10.12 0 0
10.16 0 0
10.2 0 0
10.24 0 0
10.28 0 0
10.32 0 0
10.36 0 0
10.4 0 0
10.44 0 0
10.48 0 0
10.52 0 0
10.56 0 0
10.6 0 0
10.64 0 0
10.68 0 0
10.72 0 0
10.76 0 0
10.8 0 0
10.84 0 0
10.88 0 0
10.92 0 0
10.96 0 0
11 0 0
11.04 0 0
11.08 0 0
11.12 0 0
11.16 0 0
11.2 0 0
11.24 0 0
11.28 0 0
11.32 0 0
11.36 0 0
11.4 0 0
11.44 0 0
11.48 0 0
11.52 0 0
11.56 0 0
11.6 0 0
11.64 0 0
11.68 0 0
11.72 0 0
11.76 0 0
11.8 0 0
11.84 0 0
11.88 0 0
11.92 0 0
11.96 0 0
12 0 0
12.04 0 0
12.08 0 0
12.12 0 0
12.16 0 0
12.2 0 0
12.24 0 0
12.28 0 0
12.32 0 0
12.36 0 0
12.4 0 0
12.44 0 0
12.48 0 0
12.52 0 0
12.56 0 0
12.6 0 0
12.64 0 0
12.68 0 0
12.72 0 0
12.76 0 0
12.8 0 0
12.84 0 0
12.88 0 0
12.92 0 0
12.96 0 0
13 0 0
13.04 0 0
13.08 0 0
13.12 0 0
13.16 0 0
13.2 0 0
13.24 0 0
13.28 0 0
13.32 0 0
13.36 0 0
13.4 0 0
13.44 0 0
13.48 0 0
13.52 0 0
13.56 0 0
13.6 0 0
13.64 0 0
13.68 0 0
13.72 0 0
13.76 0 0
13.8 0 0
13.84 0 0
13.88 0 0
13.92 0 0
13.96 0 0
14 0 0
14.04 0 0
14.08 0 0
14.12 0 0
14.16 0 0
14.2 0 0
14.24 0 0
14.28 0 0
14.32 0 0
14.36 0 0
14.4 0 0
14.44 0 0
14.48 0 0
14.52 0 0
14.56 0 0
14.6 0 0
14.64 0 0
14.68 0 0
14.72 0 0
14.76 0 0
14.8 0 0
14.84 0 0
14.88 0 0
14.92 0 0
14.96 0 0
15 0 0
15.04 0 0
15.08 0 0
15.12 0 0
15.16 0 0
15.2 0 0
15.24 0 0
15.28 0 0
15.32 0 0
15.36 0 0
15.4 0 0
15.44 0 0
15.48 0 0
15.52 0 0
15.56 0 0
15.6 0 0
15.64 0 0
15.68 0 0
15.72 0 0
15.76 0 0
15.8 0 0
15.84 0 0
15.88 0 0
15.92 0 0
15.96 0 0
16 0 0
16.04 0 0
16.08 0 0
16.12 0 0
16.16 0 0
16.2 0 0
16.24 0 0
16.28 0 0
16.32 0 0
16.36 0 0
16.4 0 0
16.44 0 0
16.48 0 0
16.52 0 0
16.56 0 0
16.6 0 0
16.64 0 0
16.68 0 0
16.72 0 0
16.76 0 0
16.8 0 0
16.84 0 0
16.88 0 0
16.92 0 0
16.96 0 0
17 0 0
17.04 0 0
17.08 0 0
17.12 0 0
17.16 0 0
17.2 0 0
17.24 0 0
17.28 0 0
17.32 0 0
17.36 0 0
17.4 0 0
17.44 0 0
17.48 0 0
17.52 0 0
17.56 0 0
17.6 0 0
17.64 0 0
17.68 0 0
17.72 0 0
17.76 0 0
17.8 0 0
17.84 0 0
17.88 0 0
17.92 0 0
17.96 0 0
18 0 0
18.04 0 0
18.08 0 0
18.12 0 0
18.16 0 0
18.2 0 0
18.24 0 0
18.28 0 0
18.32 0 0
18.36 0 0
18.4 0 0
18.44 0 0
18.48 0 0
18.52 0 0
18.56 0 0
18.6 0 0
18.64 0 0
18.68 0 0
18.72 0 0
18.76 0 0
18.8 0 0
18.84 0 0
18.88 0 0
18.92 0 0
18.96 0 0
19 0 0
19.04 0 0
19.08 0 0
19.12 0 0
19.16 0 0
19.2 0 0
19.24 0 0
19.28 0 0
19.32 0 0
19.36 0 0
19.4 0 0
19.44 0 0
19.48 0 0
19.52 0 0
19.56 0 0
19.6 0 0
19.64 0 0
19.68 0 0
19.72 0 0
19.76 0 0
19.8 0 0
19.84 0 0
19.88 0 0
19.92 0 0
19.96 0 0
20 0 0
20.04 0 0
20.08 0 0
20.12 0 0
20.16 0 0
20.2 0 0
20.24 0 0
20.28 0 0
20.32 0 0
20.36 0 0
20.4 0 0
20.44 0 0
20.48 0 0
20.52 0 0
20.56 0 0
20.6 0 0
20.64 0 0
20.68 0 0
20.72 0 0
20.76 0 0
20.8 0 0
20.84 0 0
20.88 0 0
20.92 0 0
20.96 0 0
21 0 0
21.04 0 0
21.08 0 0
21.12 0 0
21.16 0 0
21.2 0 0
21.24 0 0
21.28 0 0
21.32 0 0
21.36 0 0
21.4 0 0
21.44 0 0
21.48 0 0
21.52 0 0
21.56 0 0
21.6 0 0
21.64 0 0
21.68 0 0
21.72 0 0
21.76 0 0
21.8 0 0
21.84 0 0
21.88 0 0
21.92 0 0
21.96 0 0
22 0 0
22.04 0 0
22.08 0 0
22.12 0 0
22.16 0 0
22.2 0 0
22.24 0 0
22.28 0 0
22.32 0 0
22.36 0 0
22.4 0 0
22.44 0 0
22.48 0 0
22.52 0 0
22.56 0 0
22.6 0 0
22.64 0 0
22.68 0 0
22.72 0 0
22.76 0 0
22.8 0 0
22.84 0 0
22.88 0 0
22.92 0 0
22.96 0 0
23 0 0
23.04 0 0
23.08 0 0
23.12 0 0
23.16 0 0
23.2 0 0
23.24 0 0
23.28 0 0
23.32 0 0
23.36 0 0
23.4 0 0
23.44 0 0
23.48 0 0
23.52 0 0
23.56 0 0
23.6 0 0
23.64 0 0
23.68 0 0
23.72 0 0
23.76 0 0
23.8 0 0
23.84 0 0
23.88 0 0
23.92 0 0
23.96 0 0
24 0 0
24.04 0 0
24.08 0 0
24.12 0 0
24.16 0 0
24.2 0 0
24.24 0 0
24.28 0 0
24.32 0 0
24.36 0 0
24.4 0 0
24.44 0 0
24.48 0 0
24.52 0 0
24.56 0 0
24.6 0 0
24.64 0 0
24.68 0 0
24.72 0 0
24.76 0 0
24.8 0 0
24.84 0 0
24.88 0 0
24.92 0 0
24.96 0 0
25 0 0
25.04 0 0
25.08 0 0
25.12 0 0
25.16 0 0
25.2 0 0
25.24 0 0
25.28 0 0
25.32 0 0
25.36 0 0
25.4 0 0
25.44 0 0
25.48 0 0
25.52 0 0
25.56 0 0
25.6 0 0
25.64 0 0
25.68 0 0
25.72 0 0
25.76 0 0
25.8 0 0
25.84 0 0
25.88 0 0
25.92 0 0
25.96 0 0
26 0 0
26.04 0 0
26.08 0 0
26.12 0 0
26.16 0 0
26.2 0 0
26.24 0 0
26.28 0 0
26.32 0 0
26.36 0 0
26.4 0 0
26.44 0 0
26.48 0 0
26.52 0 0
26.56 0 0
26.6 0 0
26.64 0 0
26.68 0 0
26.72 0 0
26.76 0 0
26.8 0 0
26.84 0 0
26.88 0 0
26.92 0 0
26.96 0 0
27 0 0
27.04 0 0
27.08 0 0
27.12 0 0
27.16 0 0
27.2 0 0
27.24 0 0
27.28 0 0
27.32 0 0
27.36 0 0
27.4 0 0
27.44 0 0
27.48 0 0
27.52 0 0
27.56 0 0
27.6 0 0
27.64 0 0
27.68 0 0
27.72 0 0
27.76 0 0
27.8 0 0
27.84 0 0
27.88 0 0
27.92 0 0
27.96 0 0
28 0 0
28.04 0 0
28.08 0 0
28.12 0 0
28.16 0 0
28.2 0 0
28.24 0 0
28.28 0 0
28.32 0 0
28.36 0 0
28.4 0 0
28.44 0 0
28.48 0 0
28.52 0 0
28.56 0 0
28.6 0 0
28.64 0 0
28.68 0 0
28.72 0 0
28.76 0 0
28.8 0 0
28.84 0 0
28.88 0 0
28.92 0 0
28.96 0 0
29 0 0
29.04 0 0
29.08 0 0
29.12 0 0
29.16 0 0
29.2 0 0
29.24 0 0
29.28 0 0
29.32 0 0
29.36 0 0
29.4 0 0
29.44 0 0
29.48 0 0
29.52 0 0
29.56 0 0
29.6 0 0
29.64 0 0
29.68 0 0
29.72 0 0
29.76 0 0
29.8 0 0
29.84 0 0
29.88 0 0
29.92 0 0
29.96 0 0
30 0 0
30.04 0 0
30.08 0 0
30.12 0 0
30.16 0 0
30.2 0 0
30.24 0 0
30.28 0 0
30.32 0 0
30.36 0 0
30.4 0 0
30.44 0 0
30.48 0 0
30.52 0 0
30.56 0 0
30.6 0 0
30.64 0 0
30.68 0 0
30.72 0 0
30.76 0 0
30.8 0 0
30.84 0 0
30.88 0 0
30.92 0 0
30.96 0 0
31 0 0
31.04 0 0
31.08 0 0
31.12 0 0
31.16 0 0
31.2 0 0
31.24 0 0
31.28 0 0
31.32 0 0
31.36 0 0
31.4 0 0
31.44 0 0
31.48 0 0
31.52 0 0
31.56 0 0
31.6 0 0
31.64 0 0
31.68 0 0
31.72 0 0
31.76 0 0
31.8 0 0
31.84 0 0
31.88 0 0
31.92 0 0
31.96 0 0
0 0.005 0
0.04 0.005 0
0.08 0.005 0
0.12 0.005 0
0.16 0.005 0
0.2 0.005 0
0.24 0.005 0
0.28 0.005 0
0.32 0.005 0
0.36 0.005 0
0.4 0.005 0
0.44 0.005 0
0.48 0.005 0
0.52 0.005 0
0.56 0.005 0
0.6 0.005 0
0.64 0.005 0
0.68 0.005 0
0.72 0.005 0
0.76 0.005 0
0.8 0.005 0
0.84 0.005 0
0.88 0.005 0
0.92 0.005 0
0.96 0.005 0
1 0.005 0
1.04 0.005 0
1.08 0.005 0
1.12 0.005 0
1.16 0.005 0
1.2 0.005 0
1.24 0.005 0
1.28 0.005 0
1.32 0.005 0
1.36 0.005 0
1.4 0.005 0
1.44 0.005 0
1.48 0.005 0
1.52 0.005 0
1.56 0.005 0
1.6 0.005 0
1.64 0.005 0
1.68 0.005 0
1.72 0.005 0
1.76 0.005 0
1.8 0.005 0
1.84 0.005 0
1.88 0.005 0
1.92 0.005 0
1.96 0.005 0
2 0.005 0
2.04 0.005 0
2.08 0.005 0
2.12 0.005 0
2.16 0.005 0
2.2 0.005 0
2.24 0.005 0
2.28 0.005 0
2.32 0.005 0
2.36 0.005 0
2.4 0.005 0
2.44 0.005 0
2.48 0.005 0
2.52 0.005 0
2.56 0.005 0
2.6 0.005 0
2.64 0.005 0
2.68 0.005 0
2.72 0.005 0
2.76 0.005 0
2.8 0.005 0
2.84 0.005 0
2.88 0.005 0
2.92 0.005 0
2.96 0.005 0
3 0.005 0
3.04 0.005 0
3.08 0.005 0
3.12 0.005 0
3.16 0.005 0
3.2 0.005 0
3.24 0.005 0
3.28 0.005 0
3.32 0.005 0
3.36 0.005 0
3.4 0.005 0
3.44 0.005 0
3.48 0.005 0
3.52 0.005 0
3.56 0.005 0
3.6 0.005 0
3.64 0.005 0
3.68 0.005 0
3.72 0.005 0
3.76 0.005 0
3.8 0.005 0
3.84 0.005 0
3.88 0.005 0
3.92 0.005 0
3.96 0.005 0
4 0.005 0
4.04 0.005 0
4.08 0.005 0
4.12 0.005 0
4.16 0.005 0
4.2 0.005 0
4.24 0.005 0
4.28 0.005 0
4.32 0.005 0
4.36 0.005 0
4.4 0.005 0
4.44 0.005 0
4.48 0.005 0
4.52 0.005 0
4.56 0.005 0
4.6 0.005 0
4.64 0.005 0
4.68 0.005 0
4.72 0.005 0
4.76 0.005 0
4.8 0.005 0
4.84 0.005 0
4.88 0.005 0
4.92 0.005 0
4.96 0.005 0
5 0.005 0
5.04 0.005 0
5.08 0.005 0
5.12 0.005 0
5.16 0.005 0
5.2 0.005 0
5.24 0.005 0
5.28 0.005 0
5.32 0.005 0
5.36 0.005 0
5.4 0.005 0
5.44 0.005 0
5.48 0.005 0
5.52 0.005 0
5.56 0.005 0
5.6 0.005 0
5.64 0.005 0
5.68 0.005 0
5.72 0.005 0
5.76 0.005 0
5.8 0.005 0
5.84 0.005 0
5.88 0.005 0
5.92 0.005 0
5.96 0.005 0
6 0.005 0
6.04 0.005 0
6.08 0.005 0
6.12 0.005 0
6.16 0.005 0
6.2 0.005 0
6.24 0.005 0
6.28 0.005 0
6.32 0.005 0
6.36 0.005 0
6.4 0.005 0
6.44 0.005 0
6.48 0.005 0
6.52 0.005 0
6.56 0.005 0
6.6 0.005 0
6.64 0.005 0
6.68 0.005 0
6.72 0.005 0
6.76 0.005 0
6.8 0.005 0
6.84 0.005 0
6.88 0.005 0
6.92 0.005 0
6.96 0.005 0
7 0.005 0
7.04 0.005 0
7.08 0.005 0
7.12 0.005 0
7.16 0.005 0
7.2 0.005 0
7.24 0.005 0
7.28 0.005 0
7.32 0.005 0
7.36 0.005 0
7.4 0.005 0
[...]
POINT_DATA 160000

SCALARS v float 1
LOOKUP_TABLE default
0
0
0
0
0
0
0
0
0
0
0
0
0
0
0
0
0
0
0
0
0
0
0
0
0
0
0
0
0
0
0
0
0
0
0
0
0
0
0
0
0
0
0
0
0
0
0
0
0
0
0
0
0
0
0
0
0
0
0
0
0
0
0
0
0
0
0
0
0
0
0
0
0
0
0
0
0
0
0
0
0
0
0
0
0
0
0
0
0
0
0
0
0
0
0
0
0
0
0
0
0
0
0
0
0
0
0
0
0
0
0
0
0
0
0
0
0
0
0
0
0
0
0
0
0
0
0
0
0
0
0
0
0
0
0
0
0
0
0
0
0
0
0
0
0
0
0
0
0
0
0
0
0
0
0
0
0
0
0
0
0
0
0
0
0
0
0
0
0
0
0
0
0
0
0
0
0
0
0
0
0
0
0
0
0
0
0
0
0
0
0
0
0
0
0
0
0
0
0
0
0
0
0
0
0
0
0
0
0
0
0
0
0
0
0
0
0
0
0
0
0
0
0
0
0
0
0
0
0
0
0
0
0
0
0
0
0
0
0
0
0
0
0
0
0
0
0
0
0
0
0
0
0
0
0
0
0
0
0
0
0
0
0
0
0
0
0
0
0
0
0
0
0
0
0
0
0
0
0
0
0
0
0
0
0
0
0
0
0
0
0
0
0
0
0
0
0
0
0
0
0
0
0
0
0
0
0
0
0
0
0
0
0
0
0
0
0
0
0
0
0
0
0
0
0
0
0
0
0
0
0
0
0
0
0
0
0
0
0
0
0
0
0
0
0
0
0
0
0
0
0
0
0
0
0
0
0
0
0
0
0
0
0
0
0
0
0
0
0
0
0
0
0
0
0
0
0
0
0
0
0
0
0
0
0
0
0
0
0
0
0
0
0
0
0
0
0
0
0
0
0
0
0
0
0
0
0
0
0
0
0
0
0
0
0
0
0
0
0
0
0
0
0
0
0
0
0
0
0
0
0
0
0
0
0
0
0
0
0
0
0
0
0
0
0
0
0
0
0
0
0
0
0
0
0
0
0
0
0
0
0
0
0
0
0
0
0
0
0
0
0
0
0
0
0
0
0
0
0
0
0
0
0
0
0
0
0
0
0
0
0
0
0
0
0
0
0
0
0
0
0
0
0
0
0
0
0
0
0
0
0
0
0
0
0
0
0
0
0
0
0
0
0
0
0
0
0
0
0
0
0
0
0
0
0
0
0
0
0
0
0
0
0
0
0
0
0
0
0
0
0
0
0
0
0
0
0
0
0
0
0
0
0
0
0
0
0
0
0
0
0
0
0
0
0
0
0
0
0
0
0
0
0
0
0
0
0
0
0
0
0
0
0
0
0
0
0
0
0
0
0
0
0
0
0
0
0
0
0
0
0
0
0
0
0
0
0
0
0
0
0
0
0
0
0
0
0
0
0
0
0
0
0
0
0
0
0
0
0
0
0
0
0
0
0
0
0
0
0
0
0
0
0
0
0
0
0
0
0
0
0
0
0
0
0
0
0
0
0
0
0
0
0
0
0
0
0
0
0
0
0
0
0
0
0
0
0
0
0
0
0
0
0
0
0
0
0
0
0
0
0
0
0
0
0
0
0
0
0
0
0
0
0
0
0
0
0
0
0
0
0
0
0
0
0
0
0
0
0
0
0
0
0
0
0
0
0
0
0
0
0
0
0
0
0
0
0
0
0
0
0
0
0
0
0
0
0
0
0
0
0
0
0
0
0
0
0
0
0
0
0
0
0
0
0
0
0
0
0
0
0
0
0
0
0
0
0
0
0
0
0
0
0
0
0
0
0
0
0
0
0
0
0.0374158
0.00938113
0.00346796
0.00176635
0.00108087
0.000737107
0.00053833
0.000411785
0.000325586
0.000263898
0.000218077
0.000183046
0.000155645
0.000133809
0.000116136
0.000101645
8.96261e-05
7.95582e-05
7.10484e-05
6.37965e-05
5.75698e-05
5.21856e-05
4.74992e-05
4.33946e-05
3.97783e-05
3.65742e-05
3.37204e-05
3.11655e-05
2.88674e-05
2.67908e-05
2.49064e-05
2.31896e-05
2.16194e-05
2.01783e-05
1.88512e-05
1.76255e-05
1.649e-05
1.54353e-05
1.44531e-05
1.35365e-05
1.2679e-05
1.18754e-05
1.11207e-05
1.04108e-05
9.7418e-06
9.1105e-06
8.51388e-06
7.94925e-06
7.41421e-06
6.9066e-06
6.42447e-06
5.96604e-06
5.52969e-06
5.11395e-06
4.7175e-06
4.33909e-06
3.97758e-06
3.63196e-06
3.30125e-06
2.98458e-06
2.68113e-06
2.39014e-06
2.11094e-06
1.84285e-06
1.58526e-06
1.33763e-06
1.09943e-06
8.70158e-07
6.49358e-07
4.36605e-07
2.31504e-07
3.36803e-08
-1.57225e-07
-3.41547e-07
-5.19593e-07
-6.91646e-07
-8.57986e-07
-1.01887e-06
-1.17455e-06
-1.32525e-06
-1.4712e-06
-1.61261e-06
-1.74966e-06
-1.88252e-06
-2.01139e-06
-2.13643e-06
-2.25779e-06
-2.37563e-06
-2.49008e-06
-2.60127e-06
-2.70934e-06
-2.8144e-06
-2.91657e-06
-3.01597e-06
-3.11269e-06
-3.20684e-06
-3.29851e-06
-3.3878e-06
-3.47477e-06
-3.55952e-06
-3.64213e-06
-3.72267e-06
-3.80122e-06
-3.87784e-06
-3.9526e-06
-4.02558e-06
-4.09681e-06
-4.16635e-06
-4.23427e-06
-4.30063e-06
-4.36547e-06
-4.42884e-06
-4.49076e-06
-4.55132e-06
-4.61055e-06
-4.66848e-06
-4.72516e-06
-4.78062e-06
-4.8349e-06
-4.88804e-06
-4.94006e-06
-4.99101e-06
-5.04091e-06
-5.08979e-06
-5.1377e-06
-5.18465e-06
-5.23067e-06
-5.27579e-06
-5.32002e-06
-5.3634e-06
-5.40595e-06
-5.44769e-06
-5.48865e-06
-5.52884e-06
-5.56831e-06
-5.60703e-06
-5.64505e-06
-5.68238e-06
-5.71904e-06
-5.75505e-06
-5.79043e-06
-5.8252e-06
-5.85936e-06
-5.89291e-06
-5.92591e-06
-5.95836e-06
-5.99025e-06
-6.02161e-06
-6.05245e-06
-6.08278e-06
-6.11262e-06
-6.14198e-06
-6.17086e-06
-6.19927e-06
-6.22725e-06
-6.25479e-06
-6.28189e-06
-6.30856e-06
-6.33483e-06
-6.36071e-06
-6.38618e-06
-6.41128e-06
-6.436e-06
-6.46035e-06
-6.48434e-06
-6.50797e-06
-6.53126e-06
-6.55421e-06
-6.57684e-06
-6.59914e-06
-6.62112e-06
-6.6428e-06
-6.66416e-06
-6.68523e-06
-6.70601e-06
-6.72651e-06
-6.74672e-06
-6.76665e-06
-6.78632e-06
-6.80571e-06
-6.82484e-06
-6.84372e-06
-6.86236e-06
-6.88075e-06
-6.8989e-06
-6.91681e-06
-6.93448e-06
-6.95193e-06
-6.96916e-06
-6.98616e-06
-7.00295e-06
-7.01953e-06
-7.03589e-06
-7.05206e-06
-7.06801e-06
-7.08377e-06
-7.09933e-06
-7.11471e-06
-7.12991e-06
-7.1449e-06
-7.1597e-06
-7.17435e-06
-7.18882e-06
-7.20311e-06
-7.21722e-06
-7.23117e-06
-7.24495e-06
-7.25857e-06
-7.27203e-06
-7.28533e-06
-7.29848e-06
-7.31147e-06
-7.3243e-06
-7.33699e-06
-7.34954e-06
-7.36195e-06
-7.37421e-06
-7.38633e-06
-7.3983e-06
-7.41014e-06
-7.42186e-06
-7.43344e-06
-7.44489e-06
-7.45621e-06
-7.4674e-06
-7.47847e-06
-7.48941e-06
-7.50023e-06
-7.51093e-06
-7.52152e-06
-7.53198e-06
-7.54233e-06
-7.55257e-06
-7.5627e-06
-7.57271e-06
-7.58262e-06
-7.59242e-06
-7.6021e-06
-7.61168e-06
-7.62116e-06
-7.63055e-06
-7.63983e-06
-7.64902e-06
-7.6581e-06
-7.66708e-06
-7.67597e-06
-7.68476e-06
-7.69345e-06
-7.70206e-06
-7.71057e-06
-7.719e-06
-7.72733e-06
-7.73557e-06
-7.74373e-06
-7.75181e-06
-7.7598e-06
-7.76771e-06
-7.77553e-06
-7.78326e-06
-7.79092e-06
-7.7985e-06
-7.806e-06
-7.81342e-06
-7.82076e-06
-7.82803e-06
-7.83522e-06
-7.84234e-06
-7.84938e-06
-7.85634e-06
-7.86323e-06
-7.87005e-06
-7.87681e-06
-7.8835e-06
-7.89011e-06
-7.89665e-06
-7.90313e-06
-7.90955e-06
-7.9159e-06
-7.92218e-06
-7.9284e-06
-7.93455e-06
-7.94064e-06
-7.94666e-06
-7.95263e-06
-7.95853e-06
-7.96438e-06
-7.97016e-06
-7.97588e-06
-7.98155e-06
-7.98716e-06
-7.99272e-06
-7.99821e-06
-8.00364e-06
-8.00903e-06
-8.01436e-06
-8.01963e-06
-8.02484e-06
-8.03001e-06
-8.03513e-06
-8.04019e-06
-8.04519e-06
-8.05015e-06
-8.05506e-06
-8.05993e-06
-8.06475e-06
-8.06951e-06
-8.07421e-06
-8.07887e-06
-8.08349e-06
-8.08807e-06
-8.0926e-06
-8.09707e-06
-8.10149e-06
-8.10588e-06
-8.11023e-06
-8.11454e-06
-8.1188e-06
-8.12301e-06
-8.12719e-06
-8.13132e-06
-8.1354e-06
-8.13943e-06
-8.14344e-06
-8.14742e-06
-8.15134e-06
-8.15522e-06
-8.15905e-06
-8.16286e-06
-8.16664e-06
-8.17038e-06
-8.17407e-06
-8.17771e-06
-8.18133e-06
-8.18492e-06
-8.18846e-06
-8.19197e-06
-8.19544e-06
-8.19888e-06
-8.20228e-06
-8.20565e-06
-8.209e-06
-8.2123e-06
-8.21556e-06
-8.2188e-06
-8.22201e-06
-8.22519e-06
-8.22833e-06
-8.23143e-06
-8.2345e-06
-8.23755e-06
-8.24057e-06
-8.24355e-06
-8.2465e-06
-8.24943e-06
-8.25232e-06
-8.25518e-06
-8.25802e-06
-8.26083e-06
-8.26361e-06
-8.26636e-06
-8.26908e-06
-8.27177e-06
-8.27444e-06
-8.27709e-06
-8.27971e-06
-8.2823e-06
-8.28486e-06
-8.2874e-06
-8.28992e-06
-8.2924e-06
-8.29485e-06
-8.29729e-06
-8.29971e-06
-8.3021e-06
-8.30445e-06
-8.30679e-06
-8.30911e-06
-8.31141e-06
-8.31368e-06
-8.31594e-06
-8.31816e-06
-8.32036e-06
-8.32254e-06
-8.3247e-06
-8.32683e-06
-8.32894e-06
-8.33103e-06
-8.3331e-06
-8.33516e-06
-8.33719e-06
-8.3392e-06
-8.34118e-06
-8.34315e-06
-8.3451e-06
-8.34703e-06
-8.34895e-06
-8.35084e-06
-8.3527e-06
-8.35456e-06
-8.3564e-06
-8.35821e-06
-8.36e-06
-8.36179e-06
-8.36355e-06
-8.36529e-06
-8.36702e-06
-8.36872e-06
-8.37041e-06
-8.37208e-06
-8.37374e-06
-8.37538e-06
-8.37702e-06
-8.37862e-06
-8.38021e-06
-8.38178e-06
-8.38335e-06
-8.3849e-06
-8.38642e-06
-8.38793e-06
-8.38943e-06
-8.39091e-06
-8.39238e-06
-8.39383e-06
-8.39526e-06
-8.39669e-06
-8.3981e-06
-8.39949e-06
-8.40087e-06
-8.40223e-06
-8.40358e-06
-8.40492e-06
-8.40624e-06
-8.40756e-06
-8.40886e-06
-8.41015e-06
-8.41142e-06
-8.41268e-06
-8.41393e-06
-8.41516e-06
-8.41637e-06
-8.41759e-06
-8.41879e-06
-8.41998e-06
-8.42115e-06
-8.42231e-06
-8.42345e-06
-8.42459e-06
-8.42572e-06
-8.42684e-06
-8.42794e-06
-8.42902e-06
-8.4301e-06
-8.43118e-06
-8.43224e-06
-8.43329e-06
-8.43433e-06
-8.43535e-06
-8.43636e-06
-8.43737e-06
-8.43837e-06
-8.43936e-06
-8.44033e-06
-8.4413e-06
-8.44225e-06
-8.4432e-06
-8.44414e-06
-8.44507e-06
-8.44598e-06
-8.44689e-06
-8.4478e-06
-8.4487e-06
-8.44958e-06
-8.45045e-06
-8.45132e-06
-8.45217e-06
-8.45301e-06
-8.45385e-06
-8.45468e-06
-8.45549e-06
-8.45631e-06
-8.45711e-06
-8.4579e-06
-8.4587e-06
-8.45948e-06
-8.46025e-06
-8.46102e-06
-8.46177e-06
-8.46252e-06
-8.46326e-06
-8.46399e-06
-8.46471e-06
-8.46543e-06
-8.46615e-06
-8.46685e-06
-8.46755e-06
-8.46824e-06
-8.46893e-06
-8.4696e-06
-8.47027e-06
-8.47093e-06
-8.47158e-06
-8.47224e-06
-8.4729e-06
-8.47353e-06
-8.47415e-06
-8.47477e-06
-8.47539e-06
-8.47599e-06
-8.47659e-06
-8.47719e-06
-8.47779e-06
-8.47838e-06
-8.47896e-06
-8.47954e-06
-8.48011e-06
-8.48066e-06
-8.48122e-06
-8.48177e-06
-8.48232e-06
-8.48286e-06
-8.48339e-06
-8.48392e-06
-8.48444e-06
-8.48496e-06
-8.48547e-06
-8.48599e-06
-8.48649e-06
-8.48698e-06
-8.48747e-06
-8.48797e-06
-8.48845e-06
-8.48893e-06
-8.4894e-06
-8.48987e-06
-8.49033e-06
-8.49079e-06
-8.49124e-06
-8.49168e-06
-8.49213e-06
-8.49257e-06
-8.493e-06
-8.49344e-06
-8.49386e-06
-8.49429e-06
-8.49471e-06
-8.49512e-06
-8.49553e-06
-8.49594e-06
-8.49634e-06
-8.49674e-06
-8.49713e-06
-8.49751e-06
-8.4979e-06
-8.49829e-06
-8.49867e-06
-8.49903e-06
-8.4994e-06
-8.49977e-06
-8.50014e-06
-8.50049e-06
-8.50084e-06
-8.5012e-06
-8.50155e-06
-8.5019e-06
-8.50224e-06
-8.50256e-06
-8.50289e-06
-8.50323e-06
-8.50357e-06
-8.50389e-06
-8.50421e-06
-8.50452e-06
-8.50483e-06
-8.50514e-06
-8.50545e-06
-8.50576e-06
-8.50606e-06
-8.50636e-06
-8.50666e-06
-8.50695e-06
-8.50724e-06
-8.50752e-06
-8.5078e-06
-8.50808e-06
-8.50836e-06
-8.50864e-06
-8.50891e-06
-8.50918e-06
-8.50945e-06
-8.50971e-06
-8.50997e-06
-8.51023e-06
-8.51049e-06
-8.51074e-06
-8.51099e-06
-8.51124e-06
-8.51149e-06
-8.51173e-06
-8.51197e-06
-8.51221e-06
-8.51244e-06
-8.51267e-06
-8.5129e-06
-8.51313e-06
-8.51336e-06
-8.51358e-06
-8.5138e-06
-8.51402e-06
-8.51424e-06
-8.51445e-06
-8.51466e-06
-8.51487e-06
-8.51509e-06
-8.51529e-06
-8.51549e-06
-8.5157e-06
-8.51589e-06
-8.51609e-06
-8.51629e-06
-8.51648e-06
-8.51668e-06
-8.51687e-06
-8.51705e-06
-8.51723e-06
-8.51742e-06
-8.51761e-06
-8.51779e-06
-8.51796e-06
-8.51814e-06
-8.51831e-06
-8.51848e-06
-8.51865e-06
-8.51882e-06
-8.519e-06
-8.51917e-06
-8.51934e-06
-8.51949e-06
-8.51965e-06
-8.5198e-06
-8.51997e-06
-8.52013e-06
-8.52029e-06
-8.52045e-06
-8.52059e-06
-8.52074e-06
-8.52088e-06
-8.52102e-06
-8.52117e-06
-8.52132e-06
-8.52147e-06
-8.52162e-06
-8.52176e-06
-8.52189e-06
-8.52202e-06
-8.52216e-06
-8.52229e-06
-8.52241e-06
-8.52255e-06
-8.52269e-06
-8.52282e-06
-8.52295e-06
-8.52307e-06
-8.52319e-06
-8.52331e-06
-8.52343e-06
-8.52355e-06
-8.52367e-06
-8.52379e-06
-8.52391e-06
-8.52403e-06
-8.52414e-06
-8.52425e-06
-8.52438e-06
-8.52449e-06
-8.52459e-06
-8.52469e-06
-8.5248e-06
-8.52491e-06
-8.52502e-06
-8.52512e-06
-8.52523e-06
-8.52533e-06
-8.52544e-06
-8.52554e-06
-8.52564e-06
-8.52573e-06
-8.52582e-06
-8.52592e-06
-8.52601e-06
-8.52611e-06
-8.5262e-06
-8.5263e-06
-8.5264e-06
-8.52648e-06
-8.52657e-06
-8.52666e-06
-8.52675e-06
-8.52684e-06
-8.52693e-06
-8.52701e-06
-8.52709e-06
-8.52717e-06
-8.52726e-06
-8.52734e-06
-8.52742e-06
-8.5275e-06
-8.52759e-06
-8.52766e-06
-8.52774e-06
-8.52782e-06
-8.5279e-06
-8.52797e-06
-8.52804e-06
-8.52811e-06
-8.52818e-06
-8.52825e-06
-8.52834e-06
-8.52842e-06
-8.52848e-06
-8.52854e-06
-8.52862e-06
-8.52868e-06
-8.52875e-06
-8.52882e-06
-8.52889e-06
-8.52895e-06
-8.52902e-06
-8.52908e-06
-8.52914e-06
-8.5292e-06
-8.52926e-06
-8.52933e-06
-8.5294e-06
-8.52946e-06
-8.52952e-06
-8.52957e-06
-8.52963e-06
-8.52969e-06
-8.52975e-06
-8.52981e-06
-8.52988e-06
-8.52994e-06
-8.52998e-06
-8.53004e-06
-8.5301e-06
-8.53015e-06
-8.5302e-06
-8.53026e-06
-8.53031e-06
-8.53037e-06
-8.53042e-06
-8.53047e-06
-8.53053e-06
-8.53059e-06
-8.53063e-06
-8.53067e-06
-8.53073e-06
-8.53078e-06
-8.53083e-06
-8.53088e-06
-8.53093e-06
-8.53097e-06
-8.53101e-06
-8.53105e-06
-8.53109e-06
-8.53112e-06
-8.53116e-06
-8.53119e-06
-8.53122e-06
-8.53124e-06
-8.53125e-06
-8.53125e-06
-8.53123e-06
-8.53121e-06
-8.53116e-06
-8.53108e-06
-8.53098e-06
-8.53084e-06
-8.53065e-06
-8.53039e-06
-8.53003e-06
-8.52959e-06
-8.52898e-06
-8.52825e-06
-8.52721e-06
-8.52604e-06
-8.52425e-06
-8.52237e-06
-8.51918e-06
-8.51632e-06
-8.51019e-06
-8.50638e-06
-8.49263e-06
-8.4918e-06
-8.44992e-06
-8.52188e-06
-6.02505e-06
-6.02505e-06
0
0
0.0966101
0.0320527
0.0130062
0.00682637
0.00423607
0.00291413
0.0021425
0.00164842
0.00131055
0.00106807
0.000887567
0.000749319
0.000641015
0.000554593
0.000484568
0.000427089
0.000379374
0.000339372
0.000305535
0.000276683
0.000251896
0.000230454
0.000211784
0.000195427
0.000181014
0.000168242
0.000156866
0.000146682
0.000137522
0.000129245
0.000121736
0.000114896
0.000108641
0.000102902
9.76184e-05
9.27392e-05
8.82205e-05
8.40243e-05
8.01179e-05
7.64727e-05
7.30639e-05
6.98696e-05
6.68707e-05
6.40502e-05
6.13931e-05
5.8886e-05
5.6517e-05
5.42754e-05
5.21517e-05
5.01372e-05
4.8224e-05
4.64052e-05
4.46741e-05
4.30251e-05
4.14526e-05
3.99519e-05
3.85184e-05
3.7148e-05
3.58368e-05
3.45814e-05
3.33785e-05
3.22251e-05
3.11185e-05
3.00559e-05
2.90351e-05
2.80538e-05
2.71099e-05
2.62014e-05
2.53265e-05
2.44836e-05
2.3671e-05
2.28873e-05
2.2131e-05
2.14009e-05
2.06956e-05
2.00141e-05
1.93552e-05
1.87179e-05
1.81013e-05
1.75044e-05
1.69264e-05
1.63664e-05
1.58236e-05
1.52974e-05
1.47871e-05
1.4292e-05
1.38114e-05
1.33448e-05
1.28916e-05
1.24513e-05
1.20234e-05
1.16074e-05
1.12029e-05
1.08093e-05
1.04264e-05
1.00536e-05
9.69069e-06
9.33724e-06
8.99291e-06
8.65739e-06
8.33035e-06
8.0115e-06
7.70055e-06
7.39723e-06
7.10127e-06
6.81243e-06
6.53049e-06
6.2552e-06
5.98633e-06
5.72368e-06
5.46704e-06
5.21625e-06
4.9711e-06
4.73141e-06
4.497e-06
4.26772e-06
4.04341e-06
3.82391e-06
3.60909e-06
3.3988e-06
3.1929e-06
2.99127e-06
2.79379e-06
2.60031e-06
2.41073e-06
2.22495e-06
2.04285e-06
1.86432e-06
1.68928e-06
1.51762e-06
1.34925e-06
1.18407e-06
1.02201e-06
8.62958e-07
7.06855e-07
5.53631e-07
4.03206e-07
2.55492e-07
1.10424e-07
-3.20619e-08
-1.72044e-07
-3.09576e-07
-4.44708e-07
-5.7751e-07
-7.08056e-07
-8.36394e-07
-9.62562e-07
-1.08662e-06
-1.20862e-06
-1.32861e-06
-1.44666e-06
-1.56278e-06
-1.67703e-06
-1.78946e-06
-1.90011e-06
-2.00903e-06
-2.11622e-06
-2.22176e-06
-2.32567e-06
-2.428e-06
-2.52877e-06
-2.62802e-06
-2.72578e-06
-2.82209e-06
-2.91696e-06
-3.01044e-06
-3.10255e-06
-3.19334e-06
-3.28281e-06
-3.371e-06
-3.45794e-06
-3.54365e-06
-3.62815e-06
-3.71147e-06
-3.79364e-06
-3.87467e-06
-3.95458e-06
-4.03341e-06
-4.11116e-06
-4.18786e-06
-4.26354e-06
-4.3382e-06
-4.41188e-06
-4.48458e-06
-4.55633e-06
-4.62715e-06
-4.69703e-06
-4.76601e-06
-4.83412e-06
-4.90134e-06
-4.96771e-06
-5.03324e-06
-5.09794e-06
-5.16183e-06
-5.22492e-06
-5.28722e-06
-5.34876e-06
-5.40954e-06
-5.46957e-06
-5.52885e-06
-5.58741e-06
-5.64529e-06
-5.70246e-06
-5.75893e-06
-5.81472e-06
-5.86985e-06
-5.92432e-06
-5.97816e-06
-6.03136e-06
-6.08393e-06
-6.13588e-06
-6.18722e-06
-6.23797e-06
-6.28813e-06
-6.33772e-06
-6.38672e-06
-6.43517e-06
-6.48306e-06
-6.5304e-06
-6.57721e-06
-6.62349e-06
-6.66925e-06
-6.71448e-06
-6.75921e-06
-6.80343e-06
-6.84716e-06
-6.8904e-06
-6.93316e-06
-6.97545e-06
-7.01727e-06
-7.05862e-06
-7.09952e-06
-7.13997e-06
-7.17997e-06
-7.21954e-06
-7.25868e-06
-7.29739e-06
-7.33567e-06
-7.37354e-06
-7.411e-06
-7.44806e-06
-7.48473e-06
-7.52099e-06
-7.55686e-06
-7.59235e-06
-7.62745e-06
-7.66218e-06
-7.69654e-06
-7.73053e-06
-7.76416e-06
-7.79744e-06
-7.83036e-06
-7.86293e-06
-7.89516e-06
-7.92705e-06
-7.9586e-06
-7.98982e-06
-8.02071e-06
-8.05128e-06
-8.08152e-06
-8.11145e-06
-8.14106e-06
-8.17037e-06
-8.19937e-06
-8.22807e-06
-8.25647e-06
-8.28457e-06
-8.31237e-06
-8.33988e-06
-8.36711e-06
-8.39407e-06
-8.42075e-06
-8.44714e-06
-8.47327e-06
-8.49911e-06
-8.5247e-06
-8.55003e-06
-8.57509e-06
-8.5999e-06
-8.62445e-06
-8.64874e-06
-8.67278e-06
-8.69658e-06
-8.72013e-06
-8.74344e-06
-8.76652e-06
-8.78935e-06
-8.81195e-06
-8.83433e-06
-8.85648e-06
-8.8784e-06
-8.90008e-06
-8.92155e-06
-8.94281e-06
-8.96385e-06
-8.98466e-06
-9.00526e-06
-9.02567e-06
-9.04586e-06
-9.06584e-06
-9.08562e-06
-9.1052e-06
-9.12459e-06
-9.14378e-06
-9.16277e-06
-9.18156e-06
-9.20015e-06
-9.21857e-06
-9.23681e-06
-9.25486e-06
-9.27272e-06
-9.29039e-06
-9.30788e-06
-9.32521e-06
-9.34237e-06
-9.35935e-06
-9.37616e-06
-9.3928e-06
-9.40926e-06
-9.42556e-06
-9.44168e-06
-9.45764e-06
-9.47346e-06
-9.48912e-06
-9.5046e-06
-9.51993e-06
-9.5351e-06
-9.55013e-06
-9.56501e-06
-9.57974e-06
-9.59431e-06
-9.60872e-06
-9.62301e-06
-9.63715e-06
-9.65115e-06
-9.66499e-06
-9.67871e-06
-9.69228e-06
-9.70572e-06
-9.71902e-06
-9.73219e-06
-9.74522e-06
-9.75812e-06
-9.7709e-06
-9.78355e-06
-9.79607e-06
-9.80846e-06
-9.82072e-06
-9.83285e-06
-9.84488e-06
-9.85678e-06
-9.86855e-06
-9.88021e-06
-9.89175e-06
-9.90317e-06
-9.91448e-06
-9.92568e-06
-9.93676e-06
-9.94774e-06
-9.95859e-06
-9.96933e-06
-9.97997e-06
-9.99052e-06
-1.0001e-05
-1.00113e-05
-1.00215e-05
-1.00316e-05
-1.00416e-05
-1.00515e-05
-1.00613e-05
-1.00711e-05
-1.00807e-05
-1.00902e-05
-1.00996e-05
-1.01089e-05
-1.01182e-05
-1.01273e-05
-1.01364e-05
-1.01453e-05
-1.01542e-05
-1.0163e-05
-1.01717e-05
-1.01803e-05
-1.01888e-05
-1.01972e-05
-1.02055e-05
-1.02138e-05
-1.0222e-05
-1.02301e-05
-1.02381e-05
-1.0246e-05
-1.02538e-05
-1.02616e-05
-1.02693e-05
-1.02769e-05
-1.02845e-05
-1.02919e-05
-1.02993e-05
-1.03066e-05
-1.03139e-05
-1.0321e-05
-1.03281e-05
-1.03351e-05
-1.03421e-05
-1.0349e-05
-1.03558e-05
-1.03625e-05
-1.03692e-05
-1.03758e-05
-1.03823e-05
-1.03888e-05
-1.03952e-05
-1.04016e-05
-1.04078e-05
-1.04141e-05
-1.04202e-05
-1.04263e-05
-1.04323e-05
-1.04383e-05
-1.04442e-05
-1.045e-05
-1.04558e-05
-1.04616e-05
-1.04672e-05
-1.04729e-05
-1.04784e-05
-1.04839e-05
-1.04893e-05
-1.04947e-05
-1.05001e-05
-1.05054e-05
-1.05106e-05
-1.05158e-05
-1.05209e-05
-1.0526e-05
-1.0531e-05
-1.0536e-05
-1.05409e-05
-1.05457e-05
-1.05506e-05
-1.05553e-05
-1.05601e-05
-1.05647e-05
-1.05694e-05
-1.05739e-05
-1.05785e-05
-1.0583e-05
-1.05874e-05
-1.05918e-05
-1.05961e-05
-1.06004e-05
-1.06047e-05
-1.06089e-05
-1.06131e-05
-1.06173e-05
-1.06214e-05
-1.06254e-05
-1.06294e-05
-1.06334e-05
-1.06373e-05
-1.06412e-05
-1.06451e-05
-1.06489e-05
-1.06526e-05
-1.06564e-05
-1.06601e-05
-1.06637e-05
-1.06673e-05
-1.06709e-05
-1.06745e-05
-1.0678e-05
-1.06815e-05
-1.06849e-05
-1.06884e-05
-1.06917e-05
-1.06951e-05
-1.06984e-05
-1.07016e-05
-1.07049e-05
-1.07081e-05
-1.07112e-05
-1.07144e-05
-1.07175e-05
-1.07206e-05
-1.07236e-05
-1.07266e-05
-1.07296e-05
-1.07326e-05
-1.07355e-05
-1.07384e-05
-1.07413e-05
-1.07441e-05
-1.07469e-05
-1.07497e-05
-1.07524e-05
-1.07552e-05
-1.07578e-05
-1.07605e-05
-1.07632e-05
-1.07658e-05
-1.07684e-05
-1.07709e-05
-1.07735e-05
-1.0776e-05
-1.07784e-05
-1.07809e-05
-1.07833e-05
-1.07857e-05
-1.07881e-05
-1.07905e-05
-1.07928e-05
-1.07951e-05
-1.07974e-05
-1.07997e-05
-1.08019e-05
-1.08041e-05
-1.08063e-05
-1.08085e-05
-1.08107e-05
-1.08128e-05
-1.08149e-05
-1.0817e-05
-1.08191e-05
-1.08211e-05
-1.08231e-05
-1.08251e-05
-1.08271e-05
-1.08291e-05
-1.0831e-05
-1.0833e-05
-1.08349e-05
-1.08367e-05
-1.08386e-05
-1.08404e-05
-1.08423e-05
-1.08441e-05
-1.08459e-05
-1.08476e-05
-1.08494e-05
-1.08511e-05
-1.08529e-05
-1.08546e-05
-1.08562e-05
-1.08579e-05
-1.08596e-05
-1.08612e-05
-1.08628e-05
-1.08644e-05
-1.0866e-05
-1.08676e-05
-1.08691e-05
-1.08706e-05
-1.08722e-05
-1.08737e-05
-1.08752e-05
-1.08766e-05
-1.08781e-05
-1.08795e-05
-1.0881e-05
-1.08824e-05
-1.08838e-05
-1.08852e-05
-1.08865e-05
-1.08879e-05
-1.08892e-05
-1.08906e-05
-1.08919e-05
-1.08932e-05
-1.08945e-05
-1.08958e-05
-1.0897e-05
-1.08983e-05
-1.08995e-05
-1.09007e-05
-1.09019e-05
-1.09031e-05
-1.09043e-05
-1.09055e-05
-1.09067e-05
-1.09078e-05
-1.0909e-05
-1.09101e-05
-1.09112e-05
-1.09123e-05
-1.09134e-05
-1.09145e-05
-1.09156e-05
-1.09166e-05
-1.09177e-05
-1.09187e-05
-1.09198e-05
-1.09208e-05
-1.09218e-05
-1.09228e-05
-1.09238e-05
-1.09248e-05
-1.09257e-05
-1.09267e-05
-1.09276e-05
-1.09286e-05
-1.09295e-05
-1.09304e-05
-1.09313e-05
-1.09322e-05
-1.09331e-05
-1.0934e-05
-1.09349e-05
-1.09357e-05
-1.09366e-05
-1.09374e-05
-1.09383e-05
-1.09391e-05
-1.09399e-05
-1.09407e-05
-1.09415e-05
-1.09423e-05
-1.09431e-05
-1.09439e-05
-1.09447e-05
-1.09455e-05
-1.09462e-05
-1.0947e-05
-1.09477e-05
-1.09484e-05
-1.09492e-05
-1.09499e-05
-1.09506e-05
-1.09513e-05
-1.0952e-05
-1.09527e-05
-1.09534e-05
-1.0954e-05
-1.09547e-05
-1.09554e-05
-1.0956e-05
-1.09567e-05
-1.09573e-05
-1.09579e-05
-1.09586e-05
-1.09592e-05
-1.09598e-05