# vtk DataFile Version 2.0
FlowField
ASCII
DATASET STRUCTURED_GRID
DIMENSIONS 800 1 200
POINTS 160000 float
0 0 0
0.04 0 0
0.08 0 0
0.12 0 0
0.16 0 0
0.2 0 0
0.24 0 0
0.28 0 0
0.32 0 0
0.36 0 0
0.4 0 0
0.44 0 0
0.48 0 0
0.52 0 0
0.56 0 0
0.6 0 0
0.64 0 0
0.68 0 0
0.72 0 0
0.76 0 0
0.8 0 0
0.84 0 0
0.88 0 0
0.92 0 0
0.96 0 0
1 0 0
1.04 0 0
1.08 0 0
1.12 0 0
1.16 0 0
1.2 0 0
1.24 0 0
1.28 0 0
1.32 0 0
1.36 0 0
1.4 0 0
1.44 0 0
1.48 0 0
1.52 0 0
1.56 0 0
1.6 0 0
1.64 0 0
1.68 0 0
1.72 0 0
1.76 0 0
1.8 0 0
1.84 0 0
1.88 0 0
1.92 0 0
1.96 0 0
2 0 0
2.04 0 0
2.08 0 0
2.12 0 0
2.16 0 0
2.2 0 0
2.24 0 0
2.28 0 0
2.32 0 0
2.36 0 0
2.4 0 0
2.44 0 0
2.48 0 0
2.52 0 0
2.56 0 0
2.6 0 0
2.64 0 0
2.68 0 0
2.72 0 0
2.76 0 0
2.8 0 0
2.84 0 0
2.88 0 0
2.92 0 0
2.96 0 0
3 0 0
3.04 0 0
3.08 0 0
3.12 0 0
3.16 0 0
3.2 0 0
3.24 0 0
3.28 0 0
3.32 0 0
3.36 0 0
3.4 0 0
3.44 0 0
3.48 0 0
3.52 0 0
3.56 0 0
3.6 0 0
3.64 0 0
3.68 0 0
3.72 0 0
3.76 0 0
3.8 0 0
3.84 0 0
3.88 0 0
3.92 0 0
3.96 0 0
4 0 0
4.04 0 0
4.08 0 0
4.12 0 0
4.16 0 0
4.2 0 0
4.24 0 0
4.28 0 0
4.32 0 0
4.36 0 0
4.4 0 0
4.44 0 0
4.48 0 0
4.52 0 0
4.56 0 0
4.6 0 0
4.64 0 0
4.68 0 0
4.72 0 0
4.76 0 0
4.8 0 0
4.84 0 0
4.88 0 0
4.92 0 0
4.96 0 0
5 0 0
5.04 0 0
5.08 0 0
5.12 0 0
5.16 0 0
5.2 0 0
5.24 0 0
5.28 0 0
5.32 0 0
5.36 0 0
5.4 0 0
5.44 0 0
5.48 0 0
5.52 0 0
5.56 0 0
5.6 0 0
5.64 0 0
5.68 0 0
5.72 0 0
5.76 0 0
5.8 0 0
5.84 0 0
5.88 0 0
5.92 0 0
5.96 0 0
6 0 0
6.04 0 0
6.08 0 0
6.12 0 0
6.16 0 0
6.2 0 0
6.24 0 0
6.28 0 0
6.32 0 0
6.36 0 0
6.4 0 0
6.44 0 0
6.48 0 0
6.52 0 0
6.56 0 0
6.6 0 0
6.64 0 0
6.68 0 0
6.72 0 0
6.76 0 0
6.8 0 0
6.84 0 0
6.88 0 0
6.92 0 0
6.96 0 0
7 0 0
7.04 0 0
7.08 0 0
7.12 0 0
7.16 0 0
7.2 0 0
7.24 0 0
7.28 0 0
7.32 0 0
7.36 0 0
7.4 0 0
7.44 0 0
7.48 0 0
7.52 0 0
7.56 0 0
7.6 0 0
7.64 0 0
7.68 0 0
7.72 0 0
7.76 0 0
7.8 0 0
7.84 0 0
7.88 0 0
7.92 0 0
7.96 0 0
8 0 0
8.04 0 0
8.08 0 0
8.12 0 0
8.16 0 0
8.2 0 0
8.24 0 0
8.28 0 0
8.32 0 0
8.36 0 0
8.4 0 0
8.44 0 0
8.48 0 0
8.52 0 0
8.56 0 0
8.6 0 0
8.64 0 0
8.68 0 0
8.72 0 0
8.76 0 0
8.8 0 0
8.84 0 0
8.88 0 0
8.92 0 0
8.96 0 0
9 0 0
9.04 0 0
9.08 0 0
9.12 0 0
9.16 0 0
9.2 0 0
9.24 0 0
9.28 0 0
9.32 0 0
9.36 0 0
9.4 0 0
9.44 0 0
9.48 0 0
9.52 0 0
9.56 0 0
9.6 0 0
9.64 0 0
9.68 0 0
9.72 0 0
9.76 0 0
9.8 0 0
9.84 0 0
9.88 0 0
9.92 0 0
9.96 0 0
10 0 0
10.04 0 0
10.08 0 0
10.12 0 0
10.16 0 0
10.2 0 0
10.24 0 0
10.28 0 0
10.32 0 0
10.36 0 0
10.4 0 0
10.44 0 0
10.48 0 0
10.52 0 0
10.56 0 0
10.6 0 0
10.64 0 0
10.68 0 0
10.72 0 0
10.76 0 0
10.8 0 0
10.84 0 0
10.88 0 0
10.92 0 0
10.96 0 0
11 0 0
11.04 0 0
11.08 0 0
11.12 0 0
11.16 0 0
11.2 0 0
11.24 0 0
11.28 0 0
11.32 0 0
11.36 0 0
11.4 0 0
11.44 0 0
11.48 0 0
11.52 0 0
11.56 0 0
11.6 0 0
11.64 0 0
11.68 0 0
11.72 0 0
11.76 0 0
11.8 0 0
11.84 0 0
11.88 0 0
11.92 0 0
11.96 0 0
12 0 0
12.04 0 0
12.08 0 0
12.12 0 0
12.16 0 0
12.2 0 0
12.24 0 0
12.28 0 0
12.32 0 0
12.36 0 0
12.4 0 0
12.44 0 0
12.48 0 0
12.52 0 0
12.56 0 0
12.6 0 0
12.64 0 0
12.68 0 0
12.72 0 0
12.76 0 0
12.8 0 0
12.84 0 0
12.88 0 0
12.92 0 0
12.96 0 0
13 0 0
13.04 0 0
13.08 0 0
13.12 0 0
13.16 0 0
13.2 0 0
13.24 0 0
13.28 0 0
13.32 0 0
13.36 0 0
13.4 0 0
13.44 0 0
13.48 0 0
13.52 0 0
13.56 0 0
13.6 0 0
13.64 0 0
13.68 0 0
13.72 0 0
13.76 0 0
13.8 0 0
13.84 0 0
13.88 0 0
13.92 0 0
13.96 0 0
14 0 0
14.04 0 0
14.08 0 0
14.12 0 0
14.16 0 0
14.2 0 0
14.24 0 0
14.28 0 0
14.32 0 0
14.36 0 0
14.4 0 0
14.44 0 0
14.48 0 0
14.52 0 0
14.56 0 0
14.6 0 0
14.64 0 0
14.68 0 0
14.72 0 0
14.76 0 0
14.8 0 0
14.84 0 0
14.88 0 0
14.92 0 0
14.96 0 0
15 0 0
15.04 0 0
15.08 0 0
15.12 0 0
15.16 0 0
15.2 0 0
15.24 0 0
15.28 0 0
15.32 0 0
15.36 0 0
15.4 0 0
15.44 0 0
15.48 0 0
15.52 0 0
15.56 0 0
15.6 0 0
15.64 0 0
15.68 0 0
15.72 0 0
15.76 0 0
15.8 0 0
15.84 0 0
15.88 0 0
15.92 0 0
15.96 0 0
16 0 0
16.04 0 0
16.08 0 0
16.12 0 0
16.16 0 0
16.2 0 0
16.24 0 0
16.28 0 0
16.32 0 0
16.36 0 0
16.4 0 0
16.44 0 0
16.48 0 0
16.52 0 0
16.56 0 0
16.6 0 0
16.64 0 0
16.68 0 0
16.72 0 0
16.76 0 0
16.8 0 0
16.84 0 0
16.88 0 0
16.92 0 0
16.96 0 0
17 0 0
17.04 0 0
17.08 0 0
17.12 0 0
17.16 0 0
17.2 0 0
17.24 0 0
17.28 0 0
17.32 0 0
17.36 0 0
17.4 0 0
17.44 0 0
17.48 0 0
17.52 0 0
17.56 0 0
17.6 0 0
17.64 0 0
17.68 0 0
17.72 0 0
17.76 0 0
17.8 0 0
17.84 0 0
17.88 0 0
17.92 0 0
17.96 0 0
18 0 0
18.04 0 0
18.08 0 0
18.12 0 0
18.16 0 0
18.2 0 0
18.24 0 0
18.28 0 0
18.32 0 0
18.36 0 0
18.4 0 0
18.44 0 0
18.48 0 0
18.52 0 0
18.56 0 0
18.6 0 0
18.64 0 0
18.68 0 0
18.72 0 0
18.76 0 0
18.8 0 0
18.84 0 0
18.88 0 0
18.92 0 0
18.96 0 0
19 0 0
19.04 0 0
19.08 0 0
19.12 0 0
19.16 0 0
19.2 0 0
19.24 0 0
19.28 0 0
19.32 0 0
19.36 0 0
19.4 0 0
19.44 0 0
19.48 0 0
19.52 0 0
19.56 0 0
19.6 0 0
19.64 0 0
19.68 0 0
19.72 0 0
19.76 0 0
19.8 0 0
19.84 0 0
19.88 0 0
19.92 0 0
19.96 0 0
20 0 0
20.04 0 0
20.08 0 0
20.12 0 0
20.16 0 0
20.2 0 0
20.24 0 0
20.28 0 0
20.32 0 0
20.36 0 0
20.4 0 0
20.44 0 0
20.48 0 0
20.52 0 0
20.56 0 0
20.6 0 0
20.64 0 0
20.68 0 0
20.72 0 0
20.76 0 0
20.8 0 0
20.84 0 0
20.88 0 0
20.92 0 0
20.96 0 0
21 0 0
21.04 0 0
21.08 0 0
21.12 0 0
21.16 0 0
21.2 0 0
21.24 0 0
21.28 0 0
21.32 0 0
21.36 0 0
21.4 0 0
21.44 0 0
21.48 0 0
21.52 0 0
21.56 0 0
21.6 0 0
21.64 0 0
21.68 0 0
21.72 0 0
21.76 0 0
21.8 0 0
21.84 0 0
21.88 0 0
21.92 0 0
21.96 0 0
22 0 0
22.04 0 0
22.08 0 0
22.12 0 0
22.16 0 0
22.2 0 0
22.24 0 0
22.28 0 0
22.32 0 0
22.36 0 0
22.4 0 0
22.44 0 0
22.48 0 0
22.52 0 0
22.56 0 0
22.6 0 0
22.64 0 0
22.68 0 0
22.72 0 0
22.76 0 0
22.8 0 0
22.84 0 0
22.88 0 0
22.92 0 0
22.96 0 0
23 0 0
23.04 0 0
23.08 0 0
23.12 0 0
23.16 0 0
23.2 0 0
23.24 0 0
23.28 0 0
23.32 0 0
23.36 0 0
23.4 0 0
23.44 0 0
23.48 0 0
23.52 0 0
23.56 0 0
23.6 0 0
23.64 0 0
23.68 0 0
23.72 0 0
23.76 0 0
23.8 0 0
23.84 0 0
23.88 0 0
23.92 0 0
23.96 0 0
24 0 0
24.04 0 0
24.08 0 0
24.12 0 0
24.16 0 0
24.2 0 0
24.24 0 0
24.28 0 0
24.32 0 0
24.36 0 0
24.4 0 0
24.44 0 0
24.48 0 0
24.52 0 0
24.56 0 0
24.6 0 0
24.64 0 0
24.68 0 0
24.72 0 0
24.76 0 0
24.8 0 0
24.84 0 0
24.88 0 0
24.92 0 0
24.96 0 0
25 0 0
25.04 0 0
25.08 0 0
25.12 0 0
25.16 0 0
25.2 0 0
25.24 0 0
25.28 0 0
25.32 0 0
25.36 0 0
25.4 0 0
25.44 0 0
25.48 0 0
25.52 0 0
25.56 0 0
25.6 0 0
25.64 0 0
25.68 0 0
25.72 0 0
25.76 0 0
25.8 0 0
25.84 0 0
25.88 0 0
25.92 0 0
25.96 0 0
26 0 0
26.04 0 0
26.08 0 0
26.12 0 0
26.16 0 0
26.2 0 0
26.24 0 0
26.28 0 0
26.32 0 0
26.36 0 0
26.4 0 0
26.44 0 0
26.48 0 0
26.52 0 0
26.56 0 0
26.6 0 0
26.64 0 0
26.68 0 0
26.72 0 0
26.76 0 0
26.8 0 0
26.84 0 0
26.88 0 0
26.92 0 0
26.96 0 0
27 0 0
27.04 0 0
27.08 0 0
27.12 0 0
27.16 0 0
27.2 0 0
27.24 0 0
27.28 0 0
27.32 0 0
27.36 0 0
27.4 0 0
27.44 0 0
27.48 0 0
27.52 0 0
27.56 0 0
27.6 0 0
27.64 0 0
27.68 0 0
27.72 0 0
27.76 0 0
27.8 0 0
27.84 0 0
27.88 0 0
27.92 0 0
27.96 0 0
28 0 0
28.04 0 0
28.08 0 0
28.12 0 0
28.16 0 0
28.2 0 0
28.24 0 0
28.28 0 0
28.32 0 0
28.36 0 0
28.4 0 0
28.44 0 0
28.48 0 0
28.52 0 0
28.56 0 0
28.6 0 0
28.64 0 0
28.68 0 0
28.72 0 0
28.76 0 0
28.8 0 0
28.84 0 0
28.88 0 0
28.92 0 0
28.96 0 0
29 0 0
29.04 0 0
29.08 0 0
29.12 0 0
29.16 0 0
29.2 0 0
29.24 0 0
29.28 0 0
29.32 0 0
29.36 0 0
29.4 0 0
29.44 0 0
29.48 0 0
29.52 0 0
29.56 0 0
29.6 0 0
29.64 0 0
29.68 0 0
29.72 0 0
29.76 0 0
29.8 0 0
29.84 0 0
29.88 0 0
29.92 0 0
29.96 0 0
30 0 0
30.04 0 0
30.08 0 0
30.12 0 0
30.16 0 0
30.2 0 0
30.24 0 0
30.28 0 0
30.32 0 0
30.36 0 0
30.4 0 0
30.44 0 0
30.48 0 0
30.52 0 0
30.56 0 0
30.6 0 0
30.64 0 0
30.68 0 0
30.72 0 0
30.76 0 0
30.8 0 0
30.84 0 0
30.88 0 0
30.92 0 0
30.96 0 0
31 0 0
31.04 0 0
31.08 0 0
31.12 0 0
31.16 0 0
31.2 0 0
31.24 0 0
31.28 0 0
31.32 0 0
31.36 0 0
31.4 0 0
31.44 0 0
31.48 0 0
31.52 0 0
31.56 0 0
31.6 0 0
31.64 0 0
31.68 0 0
31.72 0 0
31.76 0 0
31.8 0 0
31.84 0 0
31.88 0 0
31.92 0 0
31.96 0 0
0 0.005 0
0.04 0.005 0
0.08 0.005 0
0.12 0.005 0
0.16 0.005 0
0.2 0.005 0
0.24 0.005 0
0.28 0.005 0
0.32 0.005 0
0.36 0.005 0
0.4 0.005 0
0.44 0.005 0
0.48 0.005 0
0.52 0.005 0
0.56 0.005 0
0.6 0.005 0
0.64 0.005 0
0.68 0.005 0
0.72 0.005 0
0.76 0.005 0
0.8 0.005 0
0.84 0.005 0
0.88 0.005 0
0.92 0.005 0
0.96 0.005 0
1 0.005 0
1.04 0.005 0
1.08 0.005 0
1.12 0.005 0
1.16 0.005 0
1.2 0.005 0
1.24 0.005 0
1.28 0.005 0
1.32 0.005 0
1.36 0.005 0
1.4 0.005 0
1.44 0.005 0
1.48 0.005 0
1.52 0.005 0
1.56 0.005 0
1.6 0.005 0
1.64 0.005 0
1.68 0.005 0
1.72 0.005 0
1.76 0.005 0
1.8 0.005 0
1.84 0.005 0
1.88 0.005 0
1.92 0.005 0
1.96 0.005 0
2 0.005 0
2.04 0.005 0
2.08 0.005 0
2.12 0.005 0
2.16 0.005 0
2.2 0.005 0
2.24 0.005 0
2.28 0.005 0
2.32 0.005 0
2.36 0.005 0
2.4 0.005 0
2.44 0.005 0
2.48 0.005 0
2.52 0.005 0
2.56 0.005 0
2.6 0.005 0
2.64 0.005 0
2.68 0.005 0
2.72 0.005 0
2.76 0.005 0
2.8 0.005 0
2.84 0.005 0
2.88 0.005 0
2.92 0.005 0
2.96 0.005 0
3 0.005 0
3.04 0.005 0
3.08 0.005 0
3.12 0.005 0
3.16 0.005 0
3.2 0.005 0
3.24 0.005 0
3.28 0.005 0
3.32 0.005 0
3.36 0.005 0
3.4 0.005 0
3.44 0.005 0
3.48 0.005 0
3.52 0.005 0
3.56 0.005 0
3.6 0.005 0
3.64 0.005 0
3.68 0.005 0
3.72 0.005 0
3.76 0.005 0
3.8 0.005 0
3.84 0.005 0
3.88 0.005 0
3.92 0.005 0
3.96 0.005 0
4 0.005 0
4.04 0.005 0
4.08 0.005 0
4.12 0.005 0
4.16 0.005 0
4.2 0.005 0
4.24 0.005 0
4.28 0.005 0
4.32 0.005 0
4.36 0.005 0
4.4 0.005 0
4.44 0.005 0
4.48 0.005 0
4.52 0.005 0
4.56 0.005 0
4.6 0.005 0
4.64 0.005 0
4.68 0.005 0
4.72 0.005 0
4.76 0.005 0
4.8 0.005 0
4.84 0.005 0
4.88 0.005 0
4.92 0.005 0
4.96 0.005 0
5 0.005 0
5.04 0.005 0
5.08 0.005 0
5.12 0.005 0
5.16 0.005 0
5.2 0.005 0
5.24 0.005 0
5.28 0.005 0
5.32 0.005 0
5.36 0.005 0
5.4 0.005 0
5.44 0.005 0
5.48 0.005 0
5.52 0.005 0
5.56 0.005 0
5.6 0.005 0
5.64 0.005 0
5.68 0.005 0
5.72 0.005 0
5.76 0.005 0
5.8 0.005 0
5.84 0.005 0
5.88 0.005 0
5.92 0.005 0
5.96 0.005 0
6 0.005 0
6.04 0.005 0
6.08 0.005 0
6.12 0.005 0
6.16 0.005 0
6.2 0.005 0
6.24 0.005 0
6.28 0.005 0
6.32 0.005 0
6.36 0.005 0
6.4 0.005 0
6.44 0.005 0
6.48 0.005 0
6.52 0.005 0
6.56 0.005 0
6.6 0.005 0
6.64 0.005 0
6.68 0.005 0
6.72 0.005 0
6.76 0.005 0
6.8 0.005 0
6.84 0.005 0
6.88 0.005 0
6.92 0.005 0
6.96 0.005 0
7 0.005 0
7.04 0.005 0
7.08 0.005 0
7.12 0.005 0
7.16 0.005 0
7.2 0.005 0
7.24 0.005 0
7.28 0.005 0
7.32 0.005 0
7.36 0.005 0
7.4 0.005 0
[...]
POINT_DATA 160000

SCALARS v float 1
LOOKUP_TABLE default
0
0
0
0
0
0
0
0
0
0
0
0
0
0
0
0
0
0
0
0
0
0
0
0
0
0
0
0
0
0
0
0
0
0
0
0
0
0
0
0
0
0
0
0
0
0
0
0
0
0
0
0
0
0
0
0
0
0
0
0
0
0
0
0
0
0
0
0
0
0
0
0
0
0
0
0
0
0
0
0
0
0
0
0
0
0
0
0
0
0
0
0
0
0
0
0
0
0
0
0
0
0
0
0
0
0
0
0
0
0
0
0
0
0
0
0
0
0
0
0
0
0
0
0
0
0
0
0
0
0
0
0
0
0
0
0
0
0
0
0
0
0
0
0
0
0
0
0
0
0
0
0
0
0
0
0
0
0
0
0
0
0
0
0
0
0
0
0
0
0
0
0
0
0
0
0
0
0
0
0
0
0
0
0
0
0
0
0
0
0
0
0
0
0
0
0
0
0
0
0
0
0
0
0
0
0
0
0
0
0
0
0
0
0
0
0
0
0
0
0
0
0
0
0
0
0
0
0
0
0
0
0
0
0
0
0
0
0
0
0
0
0
0
0
0
0
0
0
0
0
0
0
0
0
0
0
0
0
0
0
0
0
0
0
0
0
0
0
0
0
0
0
0
0
0
0
0
0
0
0
0
0
0
0
0
0
0
0
0
0
0
0
0
0
0
0
0
0
0
0
0
0
0
0
0
0
0
0
0
0
0
0
0
0
0
0
0
0
0
0
0
0
0
0
0
0
0
0
0
0
0
0
0
0
0
0
0
0
0
0
0
0
0
0
0
0
0
0
0
0
0
0
0
0
0
0
0
0
0
0
0
0
0
0
0
0
0
0
0
0
0
0
0
0
0
0
0
0
0
0
0
0
0
0
0
0
0
0
0
0
0
0
0
0
0
0
0
0
0
0
0
0
0
0
0
0
0
0
0
0
0
0
0
0
0
0
0
0
0
0
0
0
0
0
0
0
0
0
0
0
0
0
0
0
0
0
0
0
0
0
0
0
0
0
0
0
0
0
0
0
0
0
0
0
0
0
0
0
0
0
0
0
0
0
0
0
0
0
0
0
0
0
0
0
0
0
0
0
0
0
0
0
0
0
0
0
0
0
0
0
0
0
0
0
0
0
0
0
0
0
0
0
0
0
0
0
0
0
0
0
0
0
0
0
0
0
0
0
0
0
0
0
0
0
0
0
0
0
0
0
0
0
0
0
0
0
0
0
0
0
0
0
0
0
0
0
0
0
0
0
0
0
0
0
0
0
0
0
0
0
0
0
0
0
0
0
0
0
0
0
0
0
0
0
0
0
0
0
0
0
0
0
0
0
0
0
0
0
0
0
0
0
0
0
0
0
0
0
0
0
0
0
0
0
0
0
0
0
0
0
0
0
0
0
0
0
0
0
0
0
0
0
0
0
0
0
0
0
0
0
0
0
0
0
0
0
0
0
0
0
0
0
0
0
0
0
0
0
0
0
0
0
0
0
0
0
0
0
0
0
0
0
0
0
0
0
0
0
0
0
0
0
0
0
0
0
0
0
0
0
0
0
0
0
0
0
0
0
0
0
0
0
0
0
0
0
0
0
0
0
0
0
0
0
0
0
0
0
0
0
0
0
0
0
0
0
0
0
0
0
0
0
0
0
0
0
0
0
0
0
0
0
0
0
0
0
0
0
0
0
0
0
0
0
0
0
0
0
0
0
0
0
0
0
0
0
0
0
0
0
0
0
0
0
0
0
0
0
0
0
0
0
0
0
0
0
0
0
0
0
0
0
0
0
0
0
0
0
0
0
0
0
0
0
0
0
0
0
0
0
0
0
0.0374145
0.00938003
0.00346688
0.00176527
0.00107979
0.000736026
0.000537247
0.0004107
0.0003245
0.000262811
0.000216989
0.000181957
0.000154555
0.000132718
0.000115045
0.000100553
8.85335e-05
7.84652e-05
6.99549e-05
6.27026e-05
5.64754e-05
5.10909e-05
4.64041e-05
4.22992e-05
3.86825e-05
3.54782e-05
3.2624e-05
3.00689e-05
2.77705e-05
2.56937e-05
2.38091e-05
2.2092e-05
2.05216e-05
1.90803e-05
1.77531e-05
1.65271e-05
1.53914e-05
1.43365e-05
1.33542e-05
1.24374e-05
1.15798e-05
1.0776e-05
1.00211e-05
9.31104e-06
8.64193e-06
8.01047e-06
7.41368e-06
6.84889e-06
6.31369e-06
5.80591e-06
5.32361e-06
4.86499e-06
4.42846e-06
4.01254e-06
3.61587e-06
3.23723e-06
2.87549e-06
2.52961e-06
2.19864e-06
1.88169e-06
1.57793e-06
1.28662e-06
1.00705e-06
7.38561e-07
4.8055e-07
2.32451e-07
-6.26917e-09
-2.36107e-07
-4.57521e-07
-6.70946e-07
-8.76789e-07
-1.07543e-06
-1.26723e-06
-1.45253e-06
-1.63164e-06
-1.80487e-06
-1.97251e-06
-2.13482e-06
-2.29206e-06
-2.44448e-06
-2.5923e-06
-2.73574e-06
-2.87503e-06
-3.01037e-06
-3.14195e-06
-3.26995e-06
-3.39456e-06
-3.51595e-06
-3.6343e-06
-3.74975e-06
-3.86249e-06
-3.97268e-06
-4.08047e-06
-4.18603e-06
-4.28952e-06
-4.39112e-06
-4.49099e-06
-4.58933e-06
-4.68632e-06
-4.78216e-06
-4.87707e-06
-4.97125e-06
-5.06493e-06
-5.15833e-06
-5.25166e-06
-5.34514e-06
-5.43895e-06
-5.53326e-06
-5.62821e-06
-5.7239e-06
-5.82039e-06
-5.91767e-06
-6.01572e-06
-6.11443e-06
-6.21365e-06
-6.31319e-06
-6.41281e-06
-6.51224e-06
-6.61118e-06
-6.70931e-06
-6.80632e-06
-6.90189e-06
-6.99571e-06
-7.08752e-06
-7.17706e-06
-7.26414e-06
-7.34859e-06
-7.4303e-06
-7.50918e-06
-7.58519e-06
-7.65835e-06
-7.72869e-06
-7.79628e-06
-7.86122e-06
-7.92362e-06
-7.98363e-06
-8.04139e-06
-8.09705e-06
-8.15074e-06
-8.2026e-06
-8.25278e-06
-8.30138e-06
-8.34851e-06
-8.39431e-06
-8.43885e-06
-8.48223e-06
-8.5245e-06
-8.56571e-06
-8.60587e-06
-8.64498e-06
-8.68303e-06
-8.72001e-06
-8.75591e-06
-8.79079e-06
-8.82467e-06
-8.85763e-06
-8.88973e-06
-8.92101e-06
-8.95146e-06
-8.98104e-06
-9.00963e-06
-9.03709e-06
-9.06327e-06
-9.08802e-06
-9.11126e-06
-9.133e-06
-9.15336e-06
-9.17256e-06
-9.19095e-06
-9.20892e-06
-9.22693e-06
-9.24538e-06
-9.26464e-06
-9.28497e-06
-9.30648e-06
-9.32915e-06
-9.3528e-06
-9.37714e-06
-9.40179e-06
-9.42629e-06
-9.45019e-06
-9.47304e-06
-9.49446e-06
-9.51412e-06
-9.53183e-06
-9.54745e-06
-9.56096e-06
-9.57242e-06
-9.58194e-06
-9.58971e-06
-9.59592e-06
-9.6008e-06
-9.60457e-06
-9.60742e-06
-9.60956e-06
-9.61115e-06
-9.61234e-06
-9.61323e-06
-9.61391e-06
-9.61446e-06
-9.61492e-06
-9.61533e-06
-9.61571e-06
-9.61608e-06
-9.61645e-06
-9.61682e-06
-9.61718e-06
-9.61756e-06
-9.61794e-06
-9.61833e-06
-9.61871e-06
-9.61909e-06
-9.61948e-06
-9.61987e-06
-9.62026e-06
-9.62065e-06
-9.62104e-06
-9.62143e-06
-9.62182e-06
-9.62221e-06
-9.6226e-06
-9.62299e-06
-9.62339e-06
-9.62378e-06
-9.62417e-06
-9.62457e-06
-9.62496e-06
-9.62536e-06
-9.62575e-06
-9.62615e-06
-9.62655e-06
-9.62694e-06
-9.62734e-06
-9.62774e-06
-9.62813e-06
-9.62852e-06
-9.62892e-06
-9.62932e-06
-9.62972e-06
-9.63012e-06
-9.63051e-06
-9.63091e-06
-9.6313e-06
-9.6317e-06
-9.6321e-06
-9.6325e-06
-9.63289e-06
-9.63329e-06
-9.63369e-06
-9.63409e-06
-9.63448e-06
-9.63488e-06
-9.63528e-06
-9.63568e-06
-9.63607e-06
-9.63647e-06
-9.63687e-06
-9.63727e-06
-9.63766e-06
-9.63806e-06
-9.63846e-06
-9.63886e-06
-9.63926e-06
-9.63966e-06
-9.64005e-06
-9.64045e-06
-9.64085e-06
-9.64125e-06
-9.64165e-06
-9.64205e-06
-9.64245e-06
-9.64285e-06
-9.64324e-06
-9.64364e-06
-9.64404e-06
-9.64444e-06
-9.64484e-06
-9.64524e-06
-9.64564e-06
-9.64604e-06
-9.64644e-06
-9.64684e-06
-9.64723e-06
-9.64763e-06
-9.64803e-06
-9.64843e-06
-9.64883e-06
-9.64923e-06
-9.64963e-06
-9.65003e-06
-9.65043e-06
-9.65083e-06
-9.65123e-06
-9.65163e-06
-9.65203e-06
-9.65243e-06
-9.65283e-06
-9.65323e-06
-9.65363e-06
-9.65403e-06
-9.65443e-06
-9.65483e-06
-9.65523e-06
-9.65563e-06
-9.65603e-06
-9.65643e-06
-9.65683e-06
-9.65723e-06
-9.65763e-06
-9.65803e-06
-9.65843e-06
-9.65883e-06
-9.65923e-06
-9.65963e-06
-9.66003e-06
-9.66043e-06
-9.66083e-06
-9.66123e-06
-9.66163e-06
-9.66203e-06
-9.66243e-06
-9.66284e-06
-9.66324e-06
-9.66363e-06
-9.66404e-06
-9.66444e-06
-9.66484e-06
-9.66524e-06
-9.66564e-06
-9.66604e-06
-9.66644e-06
-9.66684e-06
-9.66724e-06
-9.66764e-06
-9.66804e-06
-9.66845e-06
-9.66885e-06
-9.66925e-06
-9.66965e-06
-9.67005e-06
-9.67045e-06
-9.67086e-06
-9.67126e-06
-9.67166e-06
-9.67206e-06
-9.67246e-06
-9.67286e-06
-9.67326e-06
-9.67366e-06
-9.67407e-06
-9.67447e-06
-9.67487e-06
-9.67527e-06
-9.67567e-06
-9.67608e-06
-9.67648e-06
-9.67688e-06
-9.67728e-06
-9.67768e-06
-9.67808e-06
-9.67849e-06
-9.67889e-06
-9.67929e-06
-9.67969e-06
-9.6801e-06
-9.6805e-06
-9.6809e-06
-9.6813e-06
-9.68171e-06
-9.68211e-06
-9.68251e-06
-9.68291e-06
-9.68331e-06
-9.68371e-06
-9.68412e-06
-9.68452e-06
-9.68492e-06
-9.68532e-06
-9.68573e-06
-9.68613e-06
-9.68653e-06
-9.68694e-06
-9.68734e-06
-9.68774e-06
-9.68814e-06
-9.68855e-06
-9.68895e-06
-9.68935e-06
-9.68976e-06
-9.69016e-06
-9.69056e-06
-9.69097e-06
-9.69137e-06
-9.69177e-06
-9.69217e-06
-9.69258e-06
-9.69298e-06
-9.69339e-06
-9.69379e-06
-9.69419e-06
-9.69459e-06
-9.695e-06
-9.6954e-06
-9.69581e-06
-9.69621e-06
-9.69661e-06
-9.69702e-06
-9.69742e-06
-9.69782e-06
-9.69823e-06
-9.69863e-06
-9.69903e-06
-9.69944e-06
-9.69985e-06
-9.70025e-06
-9.70065e-06
-9.70106e-06
-9.70146e-06
-9.70187e-06
-9.70227e-06
-9.70267e-06
-9.70308e-06
-9.70348e-06
-9.70389e-06
-9.70429e-06
-9.7047e-06
-9.7051e-06
-9.7055e-06
-9.70591e-06
-9.70631e-06
-9.70672e-06
-9.70712e-06
-9.70753e-06
-9.70793e-06
-9.70834e-06
-9.70874e-06
-9.70915e-06
-9.70955e-06
-9.70996e-06
-9.71036e-06
-9.71077e-06
-9.71117e-06
-9.71158e-06
-9.71199e-06
-9.71239e-06
-9.7128e-06
-9.7132e-06
-9.71361e-06
-9.71401e-06
-9.71442e-06
-9.71482e-06
-9.71523e-06
-9.71563e-06
-9.71604e-06
-9.71645e-06
-9.71685e-06
-9.71726e-06
-9.71766e-06
-9.71807e-06
-9.71848e-06
-9.71888e-06
-9.71929e-06
-9.7197e-06
-9.7201e-06
-9.72051e-06
-9.72091e-06
-9.72132e-06
-9.72173e-06
-9.72213e-06
-9.72254e-06
-9.72295e-06
-9.72335e-06
-9.72376e-06
-9.72417e-06
-9.72457e-06
-9.72498e-06
-9.72539e-06
-9.7258e-06
-9.7262e-06
-9.72661e-06
-9.72702e-06
-9.72742e-06
-9.72783e-06
-9.72824e-06
-9.72865e-06
-9.72905e-06
-9.72946e-06
-9.72987e-06
-9.73028e-06
-9.73068e-06
-9.73109e-06
-9.7315e-06
-9.7319e-06
-9.73231e-06
-9.73272e-06
-9.73313e-06
-9.73354e-06
-9.73395e-06
-9.73436e-06
-9.73476e-06
-9.73517e-06
-9.73558e-06
-9.73599e-06
-9.7364e-06
-9.7368e-06
-9.73721e-06
-9.73762e-06
-9.73803e-06
-9.73844e-06
-9.73885e-06
-9.73926e-06
-9.73967e-06
-9.74007e-06
-9.74048e-06
-9.74089e-06
-9.7413e-06
-9.74171e-06
-9.74212e-06
-9.74253e-06
-9.74294e-06
-9.74335e-06
-9.74375e-06
-9.74417e-06
-9.74458e-06
-9.74498e-06
-9.74539e-06
-9.7458e-06
-9.74622e-06
-9.74662e-06
-9.74703e-06
-9.74744e-06
-9.74785e-06
-9.74826e-06
-9.74867e-06
-9.74908e-06
-9.74949e-06
-9.7499e-06
-9.75031e-06
-9.75072e-06
-9.75113e-06
-9.75154e-06
-9.75195e-06
-9.75237e-06
-9.75278e-06
-9.75319e-06
-9.7536e-06
-9.75401e-06
-9.75442e-06
-9.75483e-06
-9.75524e-06
-9.75565e-06
-9.75606e-06
-9.75647e-06
-9.75689e-06
-9.7573e-06
-9.75771e-06
-9.75812e-06
-9.75853e-06
-9.75894e-06
-9.75935e-06
-9.75976e-06
-9.76018e-06
-9.76059e-06
-9.761e-06
-9.76141e-06
-9.76182e-06
-9.76223e-06
-9.76265e-06
-9.76306e-06
-9.76347e-06
-9.76388e-06
-9.7643e-06
-9.76471e-06
-9.76512e-06
-9.76553e-06
-9.76595e-06
-9.76636e-06
-9.76677e-06
-9.76718e-06
-9.7676e-06
-9.76801e-06
-9.76842e-06
-9.76884e-06
-9.76925e-06
-9.76966e-06
-9.77008e-06
-9.77049e-06
-9.7709e-06
-9.77132e-06
-9.77173e-06
-9.77214e-06
-9.77256e-06
-9.77297e-06
-9.77338e-06
-9.7738e-06
-9.77421e-06
-9.77462e-06
-9.77504e-06
-9.77545e-06
-9.77587e-06
-9.77628e-06
-9.77669e-06
-9.77711e-06
-9.77753e-06
-9.77794e-06
-9.77835e-06
-9.77877e-06
-9.77918e-06
-9.7796e-06
-9.78001e-06
-9.78043e-06
-9.78084e-06
-9.78126e-06
-9.78167e-06
-9.78209e-06
-9.7825e-06
-9.78292e-06
-9.78333e-06
-9.78374e-06
-9.78416e-06
-9.78458e-06
-9.78499e-06
-9.78541e-06
-9.78583e-06
-9.78624e-06
-9.78666e-06
-9.78707e-06
-9.78749e-06
-9.78791e-06
-9.78832e-06
-9.78874e-06
-9.78915e-06
-9.78957e-06
-9.78999e-06
-9.7904e-06
-9.79082e-06
-9.79123e-06
-9.79165e-06
-9.79207e-06
-9.79248e-06
-9.7929e-06
-9.79332e-06
-9.79373e-06
-9.79415e-06
-9.79457e-06
-9.79499e-06
-9.7954e-06
-9.79582e-06
-9.79624e-06
-9.79666e-06
-9.79707e-06
-9.79749e-06
-9.79791e-06
-9.79832e-06
-9.79874e-06
-9.79916e-06
-9.79958e-06
-9.8e-06
-9.80042e-06
-9.80083e-06
-9.80125e-06
-9.80167e-06
-9.80209e-06
-9.80251e-06
-9.80292e-06
-9.80334e-06
-9.80376e-06
-9.80418e-06
-9.8046e-06
-9.80502e-06
-9.80544e-06
-9.80586e-06
-9.80628e-06
-9.80669e-06
-9.80711e-06
-9.80753e-06
-9.80795e-06
-9.80837e-06
-9.80879e-06
-9.80921e-06
-9.80963e-06
-9.81005e-06
-9.81047e-06
-9.81089e-06
-9.81131e-06
-9.81173e-06
-9.81215e-06
-9.81257e-06
-9.81299e-06
-9.81341e-06
-9.81383e-06
-9.81425e-06
-9.81467e-06
-9.81509e-06
-9.81551e-06
-9.81593e-06
-9.81635e-06
-9.81677e-06
-9.81719e-06
-9.81761e-06
-9.81804e-06
-9.81846e-06
-9.81888e-06
-9.8193e-06
-9.81972e-06
-9.82014e-06
-9.82056e-06
-9.82099e-06
-9.82141e-06
-9.82183e-06
-9.82225e-06
-9.82267e-06
-9.82309e-06
-9.82352e-06
-9.82394e-06
-9.82436e-06
-9.82478e-06
-9.82521e-06
-9.82563e-06
-9.82605e-06
-9.82648e-06
-9.8269e-06
-9.82732e-06
-9.82774e-06
-9.82816e-06
-9.82858e-06
-9.82901e-06
-9.82944e-06
-9.82986e-06
-9.83028e-06
-9.8307e-06
-9.83113e-06
-9.83155e-06
-9.83197e-06
-9.8324e-06
-9.83282e-06
-9.83324e-06
-9.83367e-06
-9.83409e-06
-9.83452e-06
-9.83494e-06
-9.83536e-06
-9.83579e-06
-9.83621e-06
-9.83664e-06
-9.83706e-06
-9.83749e-06
-9.83791e-06
-9.83833e-06
-9.83876e-06
-9.83918e-06
-9.8396e-06
-9.84003e-06
-9.84045e-06
-9.84088e-06
-9.8413e-06
-9.84172e-06
-9.84214e-06
-9.84257e-06
-9.84299e-06
-9.8434e-06
-9.84382e-06
-9.84423e-06
-9.84465e-06
-9.84506e-06
-9.84547e-06
-9.84587e-06
-9.84626e-06
-9.84664e-06
-9.84702e-06
-9.84738e-06
-9.84773e-06
-9.84805e-06
-9.84836e-06
-9.84862e-06
-9.84886e-06
-9.84903e-06
-9.84915e-06
-9.84917e-06
-9.84912e-06
-9.84891e-06
-9.84858e-06
-9.84799e-06
-9.84725e-06
-9.84601e-06
-9.84464e-06
-9.84229e-06
-9.84003e-06
-9.83564e-06
-9.83227e-06
-9.82365e-06
-9.81982e-06
-9.80033e-06
-9.80325e-06
-9.74342e-06
-9.85992e-06
-6.95445e-06
-6.95445e-06
0
0
0.0966085
0.0320513
0.0130048
0.00682505
0.00423474
0.0029128
0.00214116
0.00164707
0.0013092
0.00106672
0.000886207
0.000747956
0.000639649
0.000553224
0.000483197
0.000425715
0.000377998
0.000337993
0.000304155
0.000275301
0.000250512
0.000229069
0.000210397
0.000194039
0.000179624
0.000166852
0.000155474
0.000145289
0.000136127
0.00012785
0.00012034
0.000113499
0.000107243
0.000101503
9.62187e-05
9.13387e-05
8.68191e-05
8.26222e-05
7.8715e-05
7.50691e-05
7.16596e-05
6.84646e-05
6.54649e-05
6.26437e-05
5.99858e-05
5.7478e-05
5.51083e-05
5.2866e-05
5.07416e-05
4.87263e-05
4.68123e-05
4.49926e-05
4.32607e-05
4.16108e-05
4.00374e-05
3.85357e-05
3.71011e-05
3.57296e-05
3.44172e-05
3.31605e-05
3.19562e-05
3.08013e-05
2.9693e-05
2.86287e-05
2.7606e-05
2.66225e-05
2.56763e-05
2.47653e-05
2.38877e-05
2.30417e-05
2.22258e-05
2.14384e-05
2.06782e-05
1.99436e-05
1.92336e-05
1.85468e-05
1.78821e-05
1.72385e-05
1.66149e-05
1.60104e-05
1.5424e-05
1.48549e-05
1.43021e-05
1.37649e-05
1.32425e-05
1.27341e-05
1.22391e-05
1.17566e-05
1.1286e-05
1.08267e-05
1.0378e-05
9.93919e-06
9.50965e-06
9.0887e-06
8.67568e-06
8.26989e-06
7.87063e-06
7.47714e-06
7.08867e-06
6.70442e-06
6.32356e-06
5.94524e-06
5.5686e-06
5.19279e-06
4.81699e-06
4.44042e-06
4.06236e-06
3.68222e-06
3.29954e-06
2.914e-06
2.52545e-06
2.13396e-06
1.73978e-06
1.34337e-06
9.4539e-07
5.46672e-07
1.48205e-07
-2.48898e-07
-6.43436e-07
-1.03416e-06
-1.41981e-06
-1.79916e-06
-2.17106e-06
-2.53448e-06
-2.88851e-06
-3.23241e-06
-3.56559e-06
-3.88764e-06
-4.19832e-06
-4.49753e-06
-4.78536e-06
-5.06199e-06
-5.32775e-06
-5.58306e-06
-5.82842e-06
-6.06439e-06
-6.29155e-06
-6.51046e-06
-6.72171e-06
-6.92582e-06
-7.1233e-06
-7.31464e-06
-7.50027e-06
-7.68063e-06
-7.85607e-06
-8.02691e-06
-8.19337e-06
-8.35559e-06
-8.51363e-06
-8.66748e-06
-8.81711e-06
-8.96251e-06
-9.10373e-06
-9.24089e-06
-9.3742e-06
-9.50389e-06
-9.63015e-06
-9.7531e-06
-9.8727e-06
-9.9887e-06
-1.01007e-05
-1.02081e-05
-1.03105e-05
-1.04073e-05
-1.04985e-05
-1.0584e-05
-1.06645e-05
-1.0741e-05
-1.08147e-05
-1.08871e-05
-1.096e-05
-1.10347e-05
-1.11125e-05
-1.11942e-05
-1.12801e-05
-1.13698e-05
-1.14626e-05
-1.15572e-05
-1.16522e-05
-1.17459e-05
-1.18365e-05
-1.19225e-05
-1.20024e-05
-1.20753e-05
-1.21404e-05
-1.21974e-05
-1.22462e-05
-1.22873e-05
-1.23211e-05
-1.23484e-05
-1.23699e-05
-1.23865e-05
-1.23991e-05
-1.24083e-05
-1.2415e-05
-1.24197e-05
-1.24229e-05
-1.24252e-05
-1.24266e-05
-1.24277e-05
-1.24284e-05
-1.24289e-05
-1.24294e-05
-1.24298e-05
-1.24302e-05
-1.24306e-05
-1.24311e-05
-1.24315e-05
-1.2432e-05
-1.24324e-05
-1.24329e-05
-1.24334e-05
-1.24339e-05
-1.24344e-05
-1.24349e-05
-1.24353e-05
-1.24358e-05
-1.24363e-05
-1.24368e-05
-1.24373e-05
-1.24378e-05
-1.24383e-05
-1.24388e-05
-1.24393e-05
-1.24398e-05
-1.24404e-05
-1.24409e-05
-1.24414e-05
-1.24419e-05
-1.24424e-05
-1.24429e-05
-1.24434e-05
-1.24439e-05
-1.24444e-05
-1.2445e-05
-1.24455e-05
-1.2446e-05
-1.24465e-05
-1.2447e-05
-1.24475e-05
-1.2448e-05
-1.24486e-05
-1.24491e-05
-1.24496e-05
-1.24501e-05
-1.24506e-05
-1.24511e-05
-1.24516e-05
-1.24521e-05
-1.24527e-05
-1.24532e-05
-1.24537e-05
-1.24542e-05
-1.24547e-05
-1.24552e-05
-1.24557e-05
-1.24563e-05
-1.24568e-05
-1.24573e-05
-1.24578e-05
-1.24583e-05
-1.24588e-05
-1.24593e-05
-1.24599e-05
-1.24604e-05
-1.24609e-05
-1.24614e-05
-1.24619e-05
-1.24624e-05
-1.24629e-05
-1.24635e-05
-1.2464e-05
-1.24645e-05
-1.2465e-05
-1.24655e-05
-1.2466e-05
-1.24666e-05
-1.24671e-05
-1.24676e-05
-1.24681e-05
-1.24686e-05
-1.24691e-05
-1.24697e-05
-1.24702e-05
-1.24707e-05
-1.24712e-05
-1.24717e-05
-1.24722e-05
-1.24728e-05
-1.24733e-05
-1.24738e-05
-1.24743e-05
-1.24748e-05
-1.24753e-05
-1.24759e-05
-1.24764e-05
-1.24769e-05
-1.24774e-05
-1.24779e-05
-1.24785e-05
-1.2479e-05
-1.24795e-05
-1.248e-05
-1.24805e-05
-1.2481e-05
-1.24816e-05
-1.24821e-05
-1.24826e-05
-1.24831e-05
-1.24836e-05
-1.24842e-05
-1.24847e-05
-1.24852e-05
-1.24857e-05
-1.24862e-05
-1.24867e-05
-1.24873e-05
-1.24878e-05
-1.24883e-05
-1.24888e-05
-1.24893e-05
-1.24899e-05
-1.24904e-05
-1.24909e-05
-1.24914e-05
-1.24919e-05
-1.24925e-05
-1.2493e-05
-1.24935e-05
-1.2494e-05
-1.24945e-05
-1.2495e-05
-1.24956e-05
-1.24961e-05
-1.24966e-05
-1.24971e-05
-1.24976e-05
-1.24982e-05
-1.24987e-05
-1.24992e-05
-1.24997e-05
-1.25002e-05
-1.25008e-05
-1.25013e-05
-1.25018e-05
-1.25023e-05
-1.25028e-05
-1.25034e-05
-1.25039e-05
-1.25044e-05
-1.25049e-05
-1.25054e-05
-1.2506e-05
-1.25065e-05
-1.2507e-05
-1.25075e-05
-1.2508e-05
-1.25086e-05
-1.25091e-05
-1.25096e-05
-1.25101e-05
-1.25107e-05
-1.25112e-05
-1.25117e-05
-1.25122e-05
-1.25127e-05
-1.25133e-05
-1.25138e-05
-1.25143e-05
-1.25148e-05
-1.25153e-05
-1.25159e-05
-1.25164e-05
-1.25169e-05
-1.25174e-05
-1.2518e-05
-1.25185e-05
-1.2519e-05
-1.25195e-05
-1.252e-05
-1.25206e-05
-1.25211e-05
-1.25216e-05
-1.25221e-05
-1.25226e-05
-1.25232e-05
-1.25237e-05
-1.25242e-05
-1.25247e-05
-1.25253e-05
-1.25258e-05
-1.25263e-05
-1.25268e-05
-1.25273e-05
-1.25279e-05
-1.25284e-05
-1.25289e-05
-1.25294e-05
-1.253e-05
-1.25305e-05
-1.2531e-05
-1.25315e-05
-1.25321e-05
-1.25326e-05
-1.25331e-05
-1.25336e-05
-1.25341e-05
-1.25347e-05
-1.25352e-05
-1.25357e-05
-1.25362e-05
-1.25368e-05
-1.25373e-05
-1.25378e-05
-1.25383e-05
-1.25389e-05
-1.25394e-05
-1.25399e-05
-1.25404e-05
-1.2541e-05
-1.25415e-05
-1.2542e-05
-1.25425e-05
-1.25431e-05
-1.25436e-05
-1.25441e-05
-1.25446e-05
-1.25451e-05
-1.25457e-05
-1.25462e-05
-1.25467e-05
-1.25472e-05
-1.25478e-05
-1.25483e-05
-1.25488e-05
-1.25493e-05
-1.25499e-05
-1.25504e-05
-1.25509e-05
-1.25514e-05
-1.2552e-05
-1.25525e-05
-1.2553e-05
-1.25536e-05
-1.25541e-05
-1.25546e-05
-1.25551e-05
-1.25557e-05
-1.25562e-05
-1.25567e-05
-1.25572e-05
-1.25578e-05
-1.25583e-05
-1.25588e-05
-1.25593e-05
-1.25599e-05
-1.25604e-05
-1.25609e-05
-1.25614e-05
-1.2562e-05
-1.25625e-05
-1.2563e-05
-1.25635e-05
-1.25641e-05
-1.25646e-05
-1.25651e-05
-1.25657e-05
-1.25662e-05
-1.25667e-05
-1.25672e-05
-1.25678e-05
-1.25683e-05
-1.25688e-05
-1.25693e-05
-1.25699e-05
-1.25704e-05
-1.25709e-05
-1.25715e-05
-1.2572e-05
-1.25725e-05
-1.2573e-05
-1.25736e-05
-1.25741e-05
-1.25746e-05
-1.25752e-05
-1.25757e-05
-1.25762e-05
-1.25767e-05
-1.25773e-05
-1.25778e-05
-1.25783e-05
-1.25789e-05
-1.25794e-05
-1.25799e-05
-1.25804e-05
-1.2581e-05
-1.25815e-05
-1.2582e-05
-1.25826e-05
-1.25831e-05
-1.25836e-05
-1.25841e-05
-1.25847e-05
-1.25852e-05
-1.25857e-05
-1.25863e-05
-1.25868e-05
-1.25873e-05
-1.25879e-05
-1.25884e-05
-1.25889e-05
-1.25894e-05
-1.259e-05
-1.25905e-05
-1.2591e-05
-1.25916e-05
-1.25921e-05
-1.25926e-05
-1.25932e-05
-1.25937e-05
-1.25942e-05
-1.25947e-05
-1.25953e-05
-1.25958e-05
-1.25963e-05
-1.25969e-05
-1.25974e-05
-1.25979e-05
-1.25985e-05
-1.2599e-05
-1.25995e-05
-1.26001e-05
-1.26006e-05
-1.26011e-05
-1.26017e-05
-1.26022e-05
-1.26027e-05
-1.26033e-05
-1.26038e-05
-1.26043e-05
-1.26049e-05
-1.26054e-05
-1.26059e-05
-1.26065e-05
-1.2607e-05
-1.26075e-05
-1.2608e-05
-1.26086e-05
-1.26091e-05
-1.26096e-05
-1.26102e-05
-1.26107e-05
-1.26112e-05
-1.26118e-05
-1.26123e-05
-1.26128e-05
-1.26134e-05
-1.26139e-05
-1.26144e-05
-1.2615e-05
-1.26155e-05
-1.2616e-05
-1.26166e-05
-1.26171e-05
-1.26177e-05
-1.26182e-05
-1.26187e-05
-1.26193e-05
-1.26198e-05
-1.26203e-05
-1.26209e-05
-1.26214e-05
-1.26219e-05
-1.26225e-05
-1.2623e-05
-1.26235e-05
-1.26241e-05
-1.26246e-05
-1.26251e-05
-1.26257e-05
-1.26262e-05
-1.26267e-05
-1.26273e-05
-1.26278e-05
-1.26284e-05
-1.26289e-05
-1.26294e-05
-1.263e-05
-1.26305e-05
-1.2631e-05
-1.26316e-05
-1.26321e-05
-1.26326e-05
-1.26332e-05
-1.26337e-05
-1.26342e-05
-1.26348e-05
-1.26353e-05
-1.26359e-05
-1.26364e-05
-1.26369e-05
-1.26375e-05
-1.2638e-05
-1.26386e-05
-1.26391e-05
-1.26396e-05
-1.26402e-05
-1.26407e-05
-1.26412e-05
-1.26418e-05
-1.26423e-05
-1.26429e-05
-1.26434e-05
-1.26439e-05
-1.26445e-05
-1.2645e-05
-1.26455e-05
-1.26461e-05
-1.26466e-05
-1.26472e-05
-1.26477e-05
-1.26482e-05
-1.26488e-05
-1.26493e-05
-1.26499e-05
-1.26504e-05
-1.26509e-05
-1.26515e-05
-1.2652e-05
-1.26526e-05
-1.26531e-05
-1.26536e-05
-1.26542e-05
-1.26547e-05
-1.26552e-05
-1.26558e-05
-1.26563e-05
-1.26569e-05
-1.26574e-05