# vtk DataFile Version 2.0
FlowField
ASCII
DATASET STRUCTURED_GRID
DIMENSIONS 800 1 200
POINTS 160000 float
0 0 0
0.04 0 0
0.08 0 0
0.12 0 0
0.16 0 0
0.2 0 0
0.24 0 0
0.28 0 0
0.32 0 0
0.36 0 0
0.4 0 0
0.44 0 0
0.48 0 0
0.52 0 0
0.56 0 0
0.6 0 0
0.64 0 0
0.68 0 0
0.72 0 0
0.76 0 0
0.8 0 0
0.84 0 0
0.88 0 0
0.92 0 0
0.96 0 0
1 0 0
1.04 0 0
1.08 0 0
1.12 0 0
1.16 0 0
1.2 0 0
1.24 0 0
1.28 0 0
1.32 0 0
1.36 0 0
1.4 0 0
1.44 0 0
1.48 0 0
1.52 0 0
1.56 0 0
1.6 0 0
1.64 0 0
1.68 0 0
1.72 0 0
1.76 0 0
1.8 0 0
1.84 0 0
1.88 0 0
1.92 0 0
1.96 0 0
2 0 0
2.04 0 0
2.08 0 0
2.12 0 0
2.16 0 0
2.2 0 0
2.24 0 0
2.28 0 0
2.32 0 0
2.36 0 0
2.4 0 0
2.44 0 0
2.48 0 0
2.52 0 0
2.56 0 0
2.6 0 0
2.64 0 0
2.68 0 0
2.72 0 0
2.76 0 0
2.8 0 0
2.84 0 0
2.88 0 0
2.92 0 0
2.96 0 0
3 0 0
3.04 0 0
3.08 0 0
3.12 0 0
3.16 0 0
3.2 0 0
3.24 0 0
3.28 0 0
3.32 0 0
3.36 0 0
3.4 0 0
3.44 0 0
3.48 0 0
3.52 0 0
3.56 0 0
3.6 0 0
3.64 0 0
3.68 0 0
3.72 0 0
3.76 0 0
3.8 0 0
3.84 0 0
3.88 0 0
3.92 0 0
3.96 0 0
4 0 0
4.04 0 0
4.08 0 0
4.12 0 0
4.16 0 0
4.2 0 0
4.24 0 0
4.28 0 0
4.32 0 0
4.36 0 0
4.4 0 0
4.44 0 0
4.48 0 0
4.52 0 0
4.56 0 0
4.6 0 0
4.64 0 0
4.68 0 0
4.72 0 0
4.76 0 0
4.8 0 0
4.84 0 0
4.88 0 0
4.92 0 0
4.96 0 0
5 0 0
5.04 0 0
5.08 0 0
5.12 0 0
5.16 0 0
5.2 0 0
5.24 0 0
5.28 0 0
5.32 0 0
5.36 0 0
5.4 0 0
5.44 0 0
5.48 0 0
5.52 0 0
5.56 0 0
5.6 0 0
5.64 0 0
5.68 0 0
5.72 0 0
5.76 0 0
5.8 0 0
5.84 0 0
5.88 0 0
5.92 0 0
5.96 0 0
6 0 0
6.04 0 0
6.08 0 0
6.12 0 0
6.16 0 0
6.2 0 0
6.24 0 0
6.28 0 0
6.32 0 0
6.36 0 0
6.4 0 0
6.44 0 0
6.48 0 0
6.52 0 0
6.56 0 0
6.6 0 0
6.64 0 0
6.68 0 0
6.72 0 0
6.76 0 0
6.8 0 0
6.84 0 0
6.88 0 0
6.92 0 0
6.96 0 0
7 0 0
7.04 0 0
7.08 0 0
7.12 0 0
7.16 0 0
7.2 0 0
7.24 0 0
7.28 0 0
7.32 0 0
7.36 0 0
7.4 0 0
7.44 0 0
7.48 0 0
7.52 0 0
7.56 0 0
7.6 0 0
7.64 0 0
7.68 0 0
7.72 0 0
7.76 0 0
7.8 0 0
7.84 0 0
7.88 0 0
7.92 0 0
7.96 0 0
8 0 0
8.04 0 0
8.08 0 0
8.12 0 0
8.16 0 0
8.2 0 0
8.24 0 0
8.28 0 0
8.32 0 0
8.36 0 0
8.4 0 0
8.44 0 0
8.48 0 0
8.52 0 0
8.56 0 0
8.6 0 0
8.64 0 0
8.68 0 0
8.72 0 0
8.76 0 0
8.8 0 0
8.84 0 0
8.88 0 0
8.92 0 0
8.96 0 0
9 0 0
9.04 0 0
9.08 0 0
9.12 0 0
9.16 0 0
9.2 0 0
9.24 0 0
9.28 0 0
9.32 0 0
9.36 0 0
9.4 0 0
9.44 0 0
9.48 0 0
9.52 0 0
9.56 0 0
9.6 0 0
9.64 0 0
9.68 0 0
9.72 0 0
9.76 0 0
9.8 0 0
9.84 0 0
9.88 0 0
9.92 0 0
9.96 0 0
10 0 0
10.04 0 0
10.08 0 0
10.12 0 0
10.16 0 0
10.2 0 0
10.24 0 0
10.28 0 0
10.32 0 0
10.36 0 0
10.4 0 0
10.44 0 0
10.48 0 0
10.52 0 0
10.56 0 0
10.6 0 0
10.64 0 0
10.68 0 0
10.72 0 0
10.76 0 0
10.8 0 0
10.84 0 0
10.88 0 0
10.92 0 0
10.96 0 0
11 0 0
11.04 0 0
11.08 0 0
11.12 0 0
11.16 0 0
11.2 0 0
11.24 0 0
11.28 0 0
11.32 0 0
11.36 0 0
11.4 0 0
11.44 0 0
11.48 0 0
11.52 0 0
11.56 0 0
11.6 0 0
11.64 0 0
11.68 0 0
11.72 0 0
11.76 0 0
11.8 0 0
11.84 0 0
11.88 0 0
11.92 0 0
11.96 0 0
12 0 0
12.04 0 0
12.08 0 0
12.12 0 0
12.16 0 0
12.2 0 0
12.24 0 0
12.28 0 0
12.32 0 0
12.36 0 0
12.4 0 0
12.44 0 0
12.48 0 0
12.52 0 0
12.56 0 0
12.6 0 0
12.64 0 0
12.68 0 0
12.72 0 0
12.76 0 0
12.8 0 0
12.84 0 0
12.88 0 0
12.92 0 0
12.96 0 0
13 0 0
13.04 0 0
13.08 0 0
13.12 0 0
13.16 0 0
13.2 0 0
13.24 0 0
13.28 0 0
13.32 0 0
13.36 0 0
13.4 0 0
13.44 0 0
13.48 0 0
13.52 0 0
13.56 0 0
13.6 0 0
13.64 0 0
13.68 0 0
13.72 0 0
13.76 0 0
13.8 0 0
13.84 0 0
13.88 0 0
13.92 0 0
13.96 0 0
14 0 0
14.04 0 0
14.08 0 0
14.12 0 0
14.16 0 0
14.2 0 0
14.24 0 0
14.28 0 0
14.32 0 0
14.36 0 0
14.4 0 0
14.44 0 0
14.48 0 0
14.52 0 0
14.56 0 0
14.6 0 0
14.64 0 0
14.68 0 0
14.72 0 0
14.76 0 0
14.8 0 0
14.84 0 0
14.88 0 0
14.92 0 0
14.96 0 0
15 0 0
15.04 0 0
15.08 0 0
15.12 0 0
15.16 0 0
15.2 0 0
15.24 0 0
15.28 0 0
15.32 0 0
15.36 0 0
15.4 0 0
15.44 0 0
15.48 0 0
15.52 0 0
15.56 0 0
15.6 0 0
15.64 0 0
15.68 0 0
15.72 0 0
15.76 0 0
15.8 0 0
15.84 0 0
15.88 0 0
15.92 0 0
15.96 0 0
16 0 0
16.04 0 0
16.08 0 0
16.12 0 0
16.16 0 0
16.2 0 0
16.24 0 0
16.28 0 0
16.32 0 0
16.36 0 0
16.4 0 0
16.44 0 0
16.48 0 0
16.52 0 0
16.56 0 0
16.6 0 0
16.64 0 0
16.68 0 0
16.72 0 0
16.76 0 0
16.8 0 0
16.84 0 0
16.88 0 0
16.92 0 0
16.96 0 0
17 0 0
17.04 0 0
17.08 0 0
17.12 0 0
17.16 0 0
17.2 0 0
17.24 0 0
17.28 0 0
17.32 0 0
17.36 0 0
17.4 0 0
17.44 0 0
17.48 0 0
17.52 0 0
17.56 0 0
17.6 0 0
17.64 0 0
17.68 0 0
17.72 0 0
17.76 0 0
17.8 0 0
17.84 0 0
17.88 0 0
17.92 0 0
17.96 0 0
18 0 0
18.04 0 0
18.08 0 0
18.12 0 0
18.16 0 0
18.2 0 0
18.24 0 0
18.28 0 0
18.32 0 0
18.36 0 0
18.4 0 0
18.44 0 0
18.48 0 0
18.52 0 0
18.56 0 0
18.6 0 0
18.64 0 0
18.68 0 0
18.72 0 0
18.76 0 0
18.8 0 0
18.84 0 0
18.88 0 0
18.92 0 0
18.96 0 0
19 0 0
19.04 0 0
19.08 0 0
19.12 0 0
19.16 0 0
19.2 0 0
19.24 0 0
19.28 0 0
19.32 0 0
19.36 0 0
19.4 0 0
19.44 0 0
19.48 0 0
19.52 0 0
19.56 0 0
19.6 0 0
19.64 0 0
19.68 0 0
19.72 0 0
19.76 0 0
19.8 0 0
19.84 0 0
19.88 0 0
19.92 0 0
19.96 0 0
20 0 0
20.04 0 0
20.08 0 0
20.12 0 0
20.16 0 0
20.2 0 0
20.24 0 0
20.28 0 0
20.32 0 0
20.36 0 0
20.4 0 0
20.44 0 0
20.48 0 0
20.52 0 0
20.56 0 0
20.6 0 0
20.64 0 0
20.68 0 0
20.72 0 0
20.76 0 0
20.8 0 0
20.84 0 0
20.88 0 0
20.92 0 0
20.96 0 0
21 0 0
21.04 0 0
21.08 0 0
21.12 0 0
21.16 0 0
21.2 0 0
21.24 0 0
21.28 0 0
21.32 0 0
21.36 0 0
21.4 0 0
21.44 0 0
21.48 0 0
21.52 0 0
21.56 0 0
21.6 0 0
21.64 0 0
21.68 0 0
21.72 0 0
21.76 0 0
21.8 0 0
21.84 0 0
21.88 0 0
21.92 0 0
21.96 0 0
22 0 0
22.04 0 0
22.08 0 0
22.12 0 0
22.16 0 0
22.2 0 0
22.24 0 0
22.28 0 0
22.32 0 0
22.36 0 0
22.4 0 0
22.44 0 0
22.48 0 0
22.52 0 0
22.56 0 0
22.6 0 0
22.64 0 0
22.68 0 0
22.72 0 0
22.76 0 0
22.8 0 0
22.84 0 0
22.88 0 0
22.92 0 0
22.96 0 0
23 0 0
23.04 0 0
23.08 0 0
23.12 0 0
23.16 0 0
23.2 0 0
23.24 0 0
23.28 0 0
23.32 0 0
23.36 0 0
23.4 0 0
23.44 0 0
23.48 0 0
23.52 0 0
23.56 0 0
23.6 0 0
23.64 0 0
23.68 0 0
23.72 0 0
23.76 0 0
23.8 0 0
23.84 0 0
23.88 0 0
23.92 0 0
23.96 0 0
24 0 0
24.04 0 0
24.08 0 0
24.12 0 0
24.16 0 0
24.2 0 0
24.24 0 0
24.28 0 0
24.32 0 0
24.36 0 0
24.4 0 0
24.44 0 0
24.48 0 0
24.52 0 0
24.56 0 0
24.6 0 0
24.64 0 0
24.68 0 0
24.72 0 0
24.76 0 0
24.8 0 0
24.84 0 0
24.88 0 0
24.92 0 0
24.96 0 0
25 0 0
25.04 0 0
25.08 0 0
25.12 0 0
25.16 0 0
25.2 0 0
25.24 0 0
25.28 0 0
25.32 0 0
25.36 0 0
25.4 0 0
25.44 0 0
25.48 0 0
25.52 0 0
25.56 0 0
25.6 0 0
25.64 0 0
25.68 0 0
25.72 0 0
25.76 0 0
25.8 0 0
25.84 0 0
25.88 0 0
25.92 0 0
25.96 0 0
26 0 0
26.04 0 0
26.08 0 0
26.12 0 0
26.16 0 0
26.2 0 0
26.24 0 0
26.28 0 0
26.32 0 0
26.36 0 0
26.4 0 0
26.44 0 0
26.48 0 0
26.52 0 0
26.56 0 0
26.6 0 0
26.64 0 0
26.68 0 0
26.72 0 0
26.76 0 0
26.8 0 0
26.84 0 0
26.88 0 0
26.92 0 0
26.96 0 0
27 0 0
27.04 0 0
27.08 0 0
27.12 0 0
27.16 0 0
27.2 0 0
27.24 0 0
27.28 0 0
27.32 0 0
27.36 0 0
27.4 0 0
27.44 0 0
27.48 0 0
27.52 0 0
27.56 0 0
27.6 0 0
27.64 0 0
27.68 0 0
27.72 0 0
27.76 0 0
27.8 0 0
27.84 0 0
27.88 0 0
27.92 0 0
27.96 0 0
28 0 0
28.04 0 0
28.08 0 0
28.12 0 0
28.16 0 0
28.2 0 0
28.24 0 0
28.28 0 0
28.32 0 0
28.36 0 0
28.4 0 0
28.44 0 0
28.48 0 0
28.52 0 0
28.56 0 0
28.6 0 0
28.64 0 0
28.68 0 0
28.72 0 0
28.76 0 0
28.8 0 0
28.84 0 0
28.88 0 0
28.92 0 0
28.96 0 0
29 0 0
29.04 0 0
29.08 0 0
29.12 0 0
29.16 0 0
29.2 0 0
29.24 0 0
29.28 0 0
29.32 0 0
29.36 0 0
29.4 0 0
29.44 0 0
29.48 0 0
29.52 0 0
29.56 0 0
29.6 0 0
29.64 0 0
29.68 0 0
29.72 0 0
29.76 0 0
29.8 0 0
29.84 0 0
29.88 0 0
29.92 0 0
29.96 0 0
30 0 0
30.04 0 0
30.08 0 0
30.12 0 0
30.16 0 0
30.2 0 0
30.24 0 0
30.28 0 0
30.32 0 0
30.36 0 0
30.4 0 0
30.44 0 0
30.48 0 0
30.52 0 0
30.56 0 0
30.6 0 0
30.64 0 0
30.68 0 0
30.72 0 0
30.76 0 0
30.8 0 0
30.84 0 0
30.88 0 0
30.92 0 0
30.96 0 0
31 0 0
31.04 0 0
31.08 0 0
31.12 0 0
31.16 0 0
31.2 0 0
31.24 0 0
31.28 0 0
31.32 0 0
31.36 0 0
31.4 0 0
31.44 0 0
31.48 0 0
31.52 0 0
31.56 0 0
31.6 0 0
31.64 0 0
31.68 0 0
31.72 0 0
31.76 0 0
31.8 0 0
31.84 0 0
31.88 0 0
31.92 0 0
31.96 0 0
0 0.005 0
0.04 0.005 0
0.08 0.005 0
0.12 0.005 0
0.16 0.005 0
0.2 0.005 0
0.24 0.005 0
0.28 0.005 0
0.32 0.005 0
0.36 0.005 0
0.4 0.005 0
0.44 0.005 0
0.48 0.005 0
0.52 0.005 0
0.56 0.005 0
0.6 0.005 0
0.64 0.005 0
0.68 0.005 0
0.72 0.005 0
0.76 0.005 0
0.8 0.005 0
0.84 0.005 0
0.88 0.005 0
0.92 0.005 0
0.96 0.005 0
1 0.005 0
1.04 0.005 0
1.08 0.005 0
1.12 0.005 0
1.16 0.005 0
1.2 0.005 0
1.24 0.005 0
1.28 0.005 0
1.32 0.005 0
1.36 0.005 0
1.4 0.005 0
1.44 0.005 0
1.48 0.005 0
1.52 0.005 0
1.56 0.005 0
1.6 0.005 0
1.64 0.005 0
1.68 0.005 0
1.72 0.005 0
1.76 0.005 0
1.8 0.005 0
1.84 0.005 0
1.88 0.005 0
1.92 0.005 0
1.96 0.005 0
2 0.005 0
2.04 0.005 0
2.08 0.005 0
2.12 0.005 0
2.16 0.005 0
2.2 0.005 0
2.24 0.005 0
2.28 0.005 0
2.32 0.005 0
2.36 0.005 0
2.4 0.005 0
2.44 0.005 0
2.48 0.005 0
2.52 0.005 0
2.56 0.005 0
2.6 0.005 0
2.64 0.005 0
2.68 0.005 0
2.72 0.005 0
2.76 0.005 0
2.8 0.005 0
2.84 0.005 0
2.88 0.005 0
2.92 0.005 0
2.96 0.005 0
3 0.005 0
3.04 0.005 0
3.08 0.005 0
3.12 0.005 0
3.16 0.005 0
3.2 0.005 0
3.24 0.005 0
3.28 0.005 0
3.32 0.005 0
3.36 0.005 0
3.4 0.005 0
3.44 0.005 0
3.48 0.005 0
3.52 0.005 0
3.56 0.005 0
3.6 0.005 0
3.64 0.005 0
3.68 0.005 0
3.72 0.005 0
3.76 0.005 0
3.8 0.005 0
3.84 0.005 0
3.88 0.005 0
3.92 0.005 0
3.96 0.005 0
4 0.005 0
4.04 0.005 0
4.08 0.005 0
4.12 0.005 0
4.16 0.005 0
4.2 0.005 0
4.24 0.005 0
4.28 0.005 0
4.32 0.005 0
4.36 0.005 0
4.4 0.005 0
4.44 0.005 0
4.48 0.005 0
4.52 0.005 0
4.56 0.005 0
4.6 0.005 0
4.64 0.005 0
4.68 0.005 0
4.72 0.005 0
4.76 0.005 0
4.8 0.005 0
4.84 0.005 0
4.88 0.005 0
4.92 0.005 0
4.96 0.005 0
5 0.005 0
5.04 0.005 0
5.08 0.005 0
5.12 0.005 0
5.16 0.005 0
5.2 0.005 0
5.24 0.005 0
5.28 0.005 0
5.32 0.005 0
5.36 0.005 0
5.4 0.005 0
5.44 0.005 0
5.48 0.005 0
5.52 0.005 0
5.56 0.005 0
5.6 0.005 0
5.64 0.005 0
5.68 0.005 0
5.72 0.005 0
5.76 0.005 0
5.8 0.005 0
5.84 0.005 0
5.88 0.005 0
5.92 0.005 0
5.96 0.005 0
6 0.005 0
6.04 0.005 0
6.08 0.005 0
6.12 0.005 0
6.16 0.005 0
6.2 0.005 0
6.24 0.005 0
6.28 0.005 0
6.32 0.005 0
6.36 0.005 0
6.4 0.005 0
6.44 0.005 0
6.48 0.005 0
6.52 0.005 0
6.56 0.005 0
6.6 0.005 0
6.64 0.005 0
6.68 0.005 0
6.72 0.005 0
6.76 0.005 0
6.8 0.005 0
6.84 0.005 0
6.88 0.005 0
6.92 0.005 0
6.96 0.005 0
7 0.005 0
7.04 0.005 0
7.08 0.005 0
7.12 0.005 0
7.16 0.005 0
7.2 0.005 0
7.24 0.005 0
7.28 0.005 0
7.32 0.005 0
7.36 0.005 0
7.4 0.005 0
[...]
POINT_DATA 160000

SCALARS u float 1
LOOKUP_TABLE default
-1
-0.483357
-0.183962
-0.108845
-0.0810323
-0.0668328
-0.0581172
-0.0521517
-0.0477764
-0.0444134
-0.04174
-0.0395602
-0.0377469
-0.0362139
-0.0349001
-0.0337609
-0.0327632
-0.0318814
-0.0310957
-0.0303906
-0.0297536
-0.0291746
-0.0286454
-0.0281592
-0.0277106
-0.0272948
-0.0269079
-0.0265467
-0.0262083
-0.0258903
-0.0255908
-0.0253078
-0.0250399
-0.0247858
-0.0245442
-0.0243141
-0.0240947
-0.0238851
-0.0236845
-0.0234924
-0.0233081
-0.0231312
-0.0229612
-0.0227975
-0.0226399
-0.022488
-0.0223415
-0.0222
-0.0220632
-0.021931
-0.0218031
-0.0216792
-0.0215592
-0.0214428
-0.02133
-0.0212204
-0.0211141
-0.0210107
-0.0209103
-0.0208126
-0.0207176
-0.0206251
-0.020535
-0.0204473
-0.0203618
-0.0202784
-0.0201971
-0.0201178
-0.0200404
-0.0199648
-0.019891
-0.0198189
-0.0197484
-0.0196795
-0.0196122
-0.0195463
-0.0194818
-0.0194188
-0.019357
-0.0192965
-0.0192373
-0.0191793
-0.0191225
-0.0190667
-0.0190121
-0.0189586
-0.0189061
-0.0188545
-0.018804
-0.0187544
-0.0187057
-0.0186579
-0.0186109
-0.0185648
-0.0185196
-0.0184751
-0.0184314
-0.0183884
-0.0183462
-0.0183047
-0.0182639
-0.0182237
-0.0181843
-0.0181454
-0.0181072
-0.0180696
-0.0180326
-0.0179962
-0.0179604
-0.0179251
-0.0178904
-0.0178562
-0.0178225
-0.0177893
-0.0177566
-0.0177244
-0.0176927
-0.0176614
-0.0176306
-0.0176003
-0.0175703
-0.0175408
-0.0175118
-0.0174831
-0.0174548
-0.0174269
-0.0173994
-0.0173723
-0.0173455
-0.0173191
-0.0172931
-0.0172674
-0.017242
-0.017217
-0.0171923
-0.0171679
-0.0171438
-0.0171201
-0.0170966
-0.0170735
-0.0170506
-0.0170281
-0.0170058
-0.0169838
-0.0169621
-0.0169406
-0.0169194
-0.0168985
-0.0168778
-0.0168574
-0.0168372
-0.0168172
-0.0167976
-0.0167781
-0.0167589
-0.0167399
-0.0167211
-0.0167025
-0.0166842
-0.0166661
-0.0166482
-0.0166305
-0.016613
-0.0165957
-0.0165786
-0.0165617
-0.016545
-0.0165286
-0.0165123
-0.0164961
-0.0164802
-0.0164645
-0.0164489
-0.0164336
-0.0164184
-0.0164034
-0.0163886
-0.016374
-0.0163595
-0.0163453
-0.0163312
-0.0163173
-0.0163035
-0.01629
-0.0162767
-0.0162635
-0.0162505
-0.0162377
-0.0162251
-0.0162127
-0.0162004
-0.0161884
-0.0161765
-0.0161648
-0.0161533
-0.0161421
-0.0161309
-0.01612
-0.0161093
-0.0160988
-0.0160884
-0.0160783
-0.0160683
-0.0160585
-0.0160489
-0.0160395
-0.0160303
-0.0160213
-0.0160124
-0.0160038
-0.0159953
-0.0159869
-0.0159788
-0.0159708
-0.0159631
-0.0159554
-0.015948
-0.0159407
-0.0159336
-0.0159267
-0.0159199
-0.0159133
-0.0159068
-0.0159005
-0.0158943
-0.0158883
-0.0158825
-0.0158768
-0.0158712
-0.0158658
-0.0158605
-0.0158554
-0.0158504
-0.0158455
-0.0158408
-0.0158362
-0.0158317
-0.0158274
-0.0158231
-0.015819
-0.0158151
-0.0158112
-0.0158074
-0.0158038
-0.0158003
-0.0157969
-0.0157936
-0.0157904
-0.0157873
-0.0157843
-0.0157814
-0.0157786
-0.0157758
-0.0157732
-0.0157707
-0.0157682
-0.0157659
-0.0157636
-0.0157614
-0.0157593
-0.0157573
-0.0157553
-0.0157534
-0.0157516
-0.0157498
-0.0157482
-0.0157465
-0.015745
-0.0157435
-0.0157421
-0.0157407
-0.0157394
-0.0157381
-0.0157369
-0.0157357
-0.0157346
-0.0157336
-0.0157326
-0.0157316
-0.0157307
-0.0157298
-0.0157289
-0.0157281
-0.0157273
-0.0157266
-0.0157259
-0.0157252
-0.0157246
-0.015724
-0.0157234
-0.0157229
-0.0157223
-0.0157218
-0.0157214
-0.0157209
-0.0157205
-0.0157201
-0.0157197
-0.0157193
-0.0157189
-0.0157186
-0.0157182
-0.0157179
-0.0157176
-0.0157173
-0.0157169
-0.0157166
-0.0157163
-0.015716
-0.0157157
-0.0157154
-0.0157151
-0.0157148
-0.0157145
-0.0157142
-0.0157139
-0.0157136
-0.0157133
-0.015713
-0.0157127
-0.0157124
-0.0157121
-0.0157118
-0.0157115
-0.0157112
-0.0157109
-0.0157106
-0.0157103
-0.01571
-0.0157097
-0.0157094
-0.0157091
-0.0157088
-0.0157085
-0.0157082
-0.0157079
-0.0157076
-0.0157073
-0.015707
-0.0157067
-0.0157064
-0.0157061
-0.0157058
-0.0157055
-0.0157052
-0.0157049
-0.0157045
-0.0157042
-0.0157039
-0.0157036
-0.0157033
-0.015703
-0.0157027
-0.0157024
-0.0157021
-0.0157018
-0.0157015
-0.0157012
-0.0157009
-0.0157006
-0.0157003
-0.0157
-0.0156997
-0.0156994
-0.0156991
-0.0156988
-0.0156985
-0.0156982
-0.0156979
-0.0156976
-0.0156973
-0.015697
-0.0156967
-0.0156964
-0.0156961
-0.0156958
-0.0156955
-0.0156952
-0.0156949
-0.0156946
-0.0156943
-0.015694
-0.0156937
-0.0156934
-0.0156931
-0.0156928
-0.0156925
-0.0156922
-0.0156919
-0.0156916
-0.0156913
-0.015691
-0.0156907
-0.0156904
-0.0156901
-0.0156898
-0.0156895
-0.0156892
-0.0156889
-0.0156886
-0.0156883
-0.015688
-0.0156877
-0.0156874
-0.0156871
-0.0156868
-0.0156865
-0.0156862
-0.0156859
-0.0156856
-0.0156853
-0.015685
-0.0156847
-0.0156844
-0.0156841
-0.0156838
-0.0156835
-0.0156832
-0.0156828
-0.0156825
-0.0156822
-0.0156819
-0.0156816
-0.0156813
-0.015681
-0.0156807
-0.0156804
-0.0156801
-0.0156798
-0.0156795
-0.0156792
-0.0156789
-0.0156786
-0.0156783
-0.015678
-0.0156777
-0.0156774
-0.0156771
-0.0156768
-0.0156765
-0.0156762
-0.0156759
-0.0156756
-0.0156753
-0.015675
-0.0156747
-0.0156744
-0.0156741
-0.0156738
-0.0156735
-0.0156732
-0.0156729
-0.0156726
-0.0156723
-0.015672
-0.0156717
-0.0156714
-0.0156711
-0.0156708
-0.0156705
-0.0156702
-0.0156699
-0.0156696
-0.0156693
-0.015669
-0.0156687
-0.0156684
-0.0156681
-0.0156678
-0.0156675
-0.0156672
-0.0156669
-0.0156666
-0.0156663
-0.015666
-0.0156657
-0.0156654
-0.0156651
-0.0156648
-0.0156645
-0.0156642
-0.0156639
-0.0156636
-0.0156633
-0.015663
-0.0156627
-0.0156624
-0.0156621
-0.0156618
-0.0156615
-0.0156611
-0.0156608
-0.0156605
-0.0156602
-0.0156599
-0.0156596
-0.0156593
-0.015659
-0.0156587
-0.0156584
-0.0156581
-0.0156578
-0.0156575
-0.0156572
-0.0156569
-0.0156566
-0.0156563
-0.015656
-0.0156557
-0.0156554
-0.0156551
-0.0156548
-0.0156545
-0.0156542
-0.0156539
-0.0156536
-0.0156533
-0.015653
-0.0156527
-0.0156524
-0.0156521
-0.0156518
-0.0156515
-0.0156512
-0.0156509
-0.0156506
-0.0156503
-0.01565
-0.0156497
-0.0156494
-0.0156491
-0.0156488
-0.0156485
-0.0156482
-0.0156479
-0.0156476
-0.0156473
-0.015647
-0.0156467
-0.0156464
-0.0156461
-0.0156458
-0.0156455
-0.0156452
-0.0156449
-0.0156446
-0.0156443
-0.015644
-0.0156437
-0.0156434
-0.0156431
-0.0156428
-0.0156425
-0.0156422
-0.0156419
-0.0156416
-0.0156413
-0.015641
-0.0156407
-0.0156404
-0.0156401
-0.0156398
-0.0156395
-0.0156391
-0.0156388
-0.0156385
-0.0156382
-0.0156379
-0.0156376
-0.0156373
-0.015637
-0.0156367
-0.0156364
-0.0156361
-0.0156358
-0.0156355
-0.0156352
-0.0156349
-0.0156346
-0.0156343
-0.015634
-0.0156337
-0.0156334
-0.0156331
-0.0156328
-0.0156325
-0.0156322
-0.0156319
-0.0156316
-0.0156313
-0.015631
-0.0156307
-0.0156304
-0.0156301
-0.0156298
-0.0156295
-0.0156292
-0.0156289
-0.0156286
-0.0156283
-0.015628
-0.0156277
-0.0156274
-0.0156271
-0.0156268
-0.0156265
-0.0156262
-0.0156259
-0.0156256
-0.0156253
-0.015625
-0.0156247
-0.0156244
-0.0156241
-0.0156238
-0.0156235
-0.0156232
-0.0156229
-0.0156226
-0.0156223
-0.015622
-0.0156217
-0.0156214
-0.0156211
-0.0156208
-0.0156205
-0.0156202
-0.0156199
-0.0156196
-0.0156193
-0.015619
-0.0156187
-0.0156184
-0.0156181
-0.0156178
-0.0156175
-0.0156172
-0.0156168
-0.0156165
-0.0156162
-0.0156159
-0.0156156
-0.0156153
-0.015615
-0.0156147
-0.0156144
-0.0156141
-0.0156138
-0.0156135
-0.0156132
-0.0156129
-0.0156126
-0.0156123
-0.015612
-0.0156117
-0.0156114
-0.0156111
-0.0156108
-0.0156105
-0.0156102
-0.0156099
-0.0156096
-0.0156093
-0.015609
-0.0156087
-0.0156084
-0.0156081
-0.0156078
-0.0156075
-0.0156072
-0.0156069
-0.0156066
-0.0156063
-0.015606
-0.0156057
-0.0156054
-0.0156051
-0.0156048
-0.0156045
-0.0156042
-0.0156039
-0.0156036
-0.0156033
-0.015603
-0.0156027
-0.0156024
-0.0156021
-0.0156018
-0.0156015
-0.0156012
-0.0156009
-0.0156006
-0.0156003
-0.0156
-0.0155997
-0.0155994
-0.0155991
-0.0155988
-0.0155985
-0.0155982
-0.0155979
-0.0155976
-0.0155973
-0.015597
-0.0155967
-0.0155964
-0.0155961
-0.0155958
-0.0155955
-0.0155952
-0.0155949
-0.0155945
-0.0155942
-0.0155939
-0.0155936
-0.0155933
-0.015593
-0.0155927
-0.0155924
-0.0155921
-0.0155918
-0.0155915
-0.0155912
-0.0155909
-0.0155906
-0.0155903
-0.01559
-0.0155897
-0.0155894
-0.0155891
-0.0155888
-0.0155885
-0.0155882
-0.0155879
-0.0155876
-0.0155873
-0.015587
-0.0155867
-0.0155864
-0.0155861
-0.0155858
-0.0155855
-0.0155852
-0.0155849
-0.0155846
-0.0155843
-0.015584
-0.0155837
-0.0155834
-0.0155831
-0.0155828
-0.0155825
-0.0155822
-0.0155819
-0.0155816
-0.0155813
-0.015581
-0.0155807
-0.0155804
-0.0155801
-0.0155798
-0.0155795
-0.0155792
-0.0155789
-0.0155786
-0.0155783
-0.015578
-0.0155777
-0.0155774
-0.0155771
-0.0155768
-0.0155765
-0.0155762
-0.0155759
-0.0155756
-0.0155752
-0.0155749
-0.0155746
-0.0155743
-0.015574
-0.0155737
-0.0155734
-0.0155731
-0.0155727
-0.0155724
-0.0155721
-0.0155717
-0.0155713
-0.015571
-0.0155706
-0.0155701
-0.0155697
-0.0155692
-0.0155686
-0.0155679
-0.0155672
-0.0155661
-0.0155658
-0.0155658
-0.0155658
1
0.483357
0.183962
0.108845
0.0810323
0.0668328
0.0581172
0.0521517
0.0477764
0.0444134
0.04174
0.0395602
0.0377469
0.0362139
0.0349001
0.0337609
0.0327632
0.0318814
0.0310957
0.0303906
0.0297536
0.0291746
0.0286454
0.0281592
0.0277106
0.0272948
0.0269079
0.0265467
0.0262083
0.0258903
0.0255908
0.0253078
0.0250399
0.0247858
0.0245442
0.0243141
0.0240947
0.0238851
0.0236845
0.0234924
0.0233081
0.0231312
0.0229612
0.0227975
0.0226399
0.022488
0.0223415
0.0222
0.0220632
0.021931
0.0218031
0.0216792
0.0215592
0.0214428
0.02133
0.0212204
0.0211141
0.0210107
0.0209103
0.0208126
0.0207176
0.0206251
0.020535
0.0204473
0.0203618
0.0202784
0.0201971
0.0201178
0.0200404
0.0199648
0.019891
0.0198189
0.0197484
0.0196795
0.0196122
0.0195463
0.0194818
0.0194188
0.019357
0.0192965
0.0192373
0.0191793
0.0191225
0.0190667
0.0190121
0.0189586
0.0189061
0.0188545
0.018804
0.0187544
0.0187057
0.0186579
0.0186109
0.0185648
0.0185196
0.0184751
0.0184314
0.0183884
0.0183462
0.0183047
0.0182639
0.0182237
0.0181843
0.0181454
0.0181072
0.0180696
0.0180326
0.0179962
0.0179604
0.0179251
0.0178904
0.0178562
0.0178225
0.0177893
0.0177566
0.0177244
0.0176927
0.0176614
0.0176306
0.0176003
0.0175703
0.0175408
0.0175118
0.0174831
0.0174548
0.0174269
0.0173994
0.0173723
0.0173455
0.0173191
0.0172931
0.0172674
0.017242
0.017217
0.0171923
0.0171679
0.0171438
0.0171201
0.0170966
0.0170735
0.0170506
0.0170281
0.0170058
0.0169838
0.0169621
0.0169406
0.0169194
0.0168985
0.0168778
0.0168574
0.0168372
0.0168172
0.0167976
0.0167781
0.0167589
0.0167399
0.0167211
0.0167025
0.0166842
0.0166661
0.0166482
0.0166305
0.016613
0.0165957
0.0165786
0.0165617
0.016545
0.0165286
0.0165123
0.0164961
0.0164802
0.0164645
0.0164489
0.0164336
0.0164184
0.0164034
0.0163886
0.016374
0.0163595
0.0163453
0.0163312
0.0163173
0.0163035
0.01629
0.0162767
0.0162635
0.0162505
0.0162377
0.0162251
0.0162127
0.0162004
0.0161884
0.0161765
0.0161648
0.0161533
0.0161421
0.0161309
0.01612
0.0161093
0.0160988
0.0160884
0.0160783
0.0160683
0.0160585
0.0160489
0.0160395
0.0160303
0.0160213
0.0160124
0.0160038
0.0159953
0.0159869
0.0159788
0.0159708
0.0159631
0.0159554
0.015948
0.0159407
0.0159336
0.0159267
0.0159199
0.0159133
0.0159068
0.0159005
0.0158943
0.0158883
0.0158825
0.0158768
0.0158712
0.0158658
0.0158605
0.0158554
0.0158504
0.0158455
0.0158408
0.0158362
0.0158317
0.0158274
0.0158231
0.015819
0.0158151
0.0158112
0.0158074
0.0158038
0.0158003
0.0157969
0.0157936
0.0157904
0.0157873
0.0157843
0.0157814
0.0157786
0.0157758
0.0157732
0.0157707
0.0157682
0.0157659
0.0157636
0.0157614
0.0157593
0.0157573
0.0157553
0.0157534
0.0157516
0.0157498
0.0157482
0.0157465
0.015745
0.0157435
0.0157421
0.0157407
0.0157394
0.0157381
0.0157369
0.0157357
0.0157346
0.0157336
0.0157326
0.0157316
0.0157307
0.0157298
0.0157289
0.0157281
0.0157273
0.0157266
0.0157259
0.0157252
0.0157246
0.015724
0.0157234
0.0157229
0.0157223
0.0157218
0.0157214
0.0157209
0.0157205
0.0157201
0.0157197
0.0157193
0.0157189
0.0157186
0.0157182
0.0157179
0.0157176
0.0157173
0.0157169
0.0157166
0.0157163
0.015716
0.0157157
0.0157154
0.0157151
0.0157148
0.0157145
0.0157142
0.0157139
0.0157136
0.0157133
0.015713
0.0157127
0.0157124
0.0157121
0.0157118
0.0157115
0.0157112
0.0157109
0.0157106
0.0157103
0.01571
0.0157097
0.0157094
0.0157091
0.0157088
0.0157085
0.0157082
0.0157079
0.0157076
0.0157073
0.015707
0.0157067
0.0157064
0.0157061
0.0157058
0.0157055
0.0157052
0.0157049
0.0157045
0.0157042
0.0157039
0.0157036
0.0157033
0.015703
0.0157027
0.0157024
0.0157021
0.0157018
0.0157015
0.0157012
0.0157009
0.0157006
0.0157003
0.0157
0.0156997
0.0156994
0.0156991
0.0156988
0.0156985
0.0156982
0.0156979
0.0156976
0.0156973
0.015697
0.0156967
0.0156964
0.0156961
0.0156958
0.0156955
0.0156952
0.0156949
0.0156946
0.0156943
0.015694
0.0156937
0.0156934
0.0156931
0.0156928
0.0156925
0.0156922
0.0156919
0.0156916
0.0156913
0.015691
0.0156907
0.0156904
0.0156901
0.0156898
0.0156895
0.0156892
0.0156889
0.0156886
0.0156883
0.015688
0.0156877
0.0156874
0.0156871
0.0156868
0.0156865
0.0156862
0.0156859
0.0156856
0.0156853
0.015685
0.0156847
0.0156844
0.0156841
0.0156838
0.0156835
0.0156832
0.0156828
0.0156825
0.0156822
0.0156819
0.0156816
0.0156813
0.015681
0.0156807
0.0156804
0.0156801
0.0156798
0.0156795
0.0156792
0.0156789
0.0156786
0.0156783
0.015678
0.0156777
0.0156774
0.0156771
0.0156768
0.0156765
0.0156762
0.0156759
0.0156756
0.0156753
0.015675
0.0156747
0.0156744
0.0156741
0.0156738
0.0156735
0.0156732
0.0156729
0.0156726
0.0156723
0.015672
0.0156717
0.0156714
0.0156711
0.0156708
0.0156705
0.0156702
0.0156699
0.0156696
0.0156693
0.015669
0.0156687
0.0156684
0.0156681
0.0156678
0.0156675
0.0156672
0.0156669
0.0156666
0.0156663
0.015666
0.0156657
0.0156654
0.0156651
0.0156648
0.0156645
0.0156642
0.0156639
0.0156636
0.0156633
0.015663
0.0156627
0.0156624
0.0156621
0.0156618
0.0156615
0.0156611
0.0156608
0.0156605
0.0156602
0.0156599
0.0156596
0.0156593
0.015659
0.0156587
0.0156584
0.0156581
0.0156578
0.0156575
0.0156572
0.0156569
0.0156566
0.0156563
0.015656
0.0156557
0.0156554
0.0156551
0.0156548
0.0156545
0.0156542
0.0156539
0.0156536
0.0156533
0.015653
0.0156527
0.0156524
0.0156521
0.0156518
0.0156515
0.0156512
0.0156509
0.0156506
0.0156503
0.01565
0.0156497
0.0156494
0.0156491
0.0156488
0.0156485
0.0156482
0.0156479
0.0156476
0.0156473
0.015647
0.0156467
0.0156464
0.0156461
0.0156458
0.0156455
0.0156452
0.0156449
0.0156446
0.0156443
0.015644
0.0156437
0.0156434
0.0156431
0.0156428
0.0156425
0.0156422
0.0156419
0.0156416
0.0156413
0.015641
0.0156407
0.0156404
0.0156401
0.0156398
0.0156395
0.0156391
0.0156388
0.0156385
0.0156382
0.0156379
0.0156376
0.0156373
0.015637
0.0156367
0.0156364
0.0156361
0.0156358
0.0156355
0.0156352
0.0156349
0.0156346
0.0156343
0.015634
0.0156337
0.0156334
0.0156331
0.0156328
0.0156325
0.0156322
0.0156319
0.0156316
0.0156313
0.015631
0.0156307
0.0156304
0.0156301
0.0156298
0.0156295
0.0156292
0.0156289
0.0156286
0.0156283
0.015628
0.0156277
0.0156274
0.0156271
0.0156268
0.0156265
0.0156262
0.0156259
0.0156256
0.0156253
0.015625
0.0156247
0.0156244
0.0156241
0.0156238
0.0156235
0.0156232
0.0156229
0.0156226
0.0156223
0.015622
0.0156217
0.0156214
0.0156211
0.0156208
0.0156205
0.0156202
0.0156199
0.0156196
0.0156193
0.015619
0.0156187
0.0156184
0.0156181
0.0156178
0.0156175
0.0156172
0.0156168
0.0156165
0.0156162
0.0156159
0.0156156
0.0156153
0.015615
0.0156147
0.0156144
0.0156141
0.0156138
0.0156135
0.0156132
0.0156129
0.0156126
0.0156123
0.015612
0.0156117
0.0156114
0.0156111
0.0156108
0.0156105
0.0156102
0.0156099
0.0156096
0.0156093
0.015609
0.0156087
0.0156084
0.0156081
0.0156078
0.0156075
0.0156072
0.0156069
0.0156066
0.0156063
0.015606
0.0156057
0.0156054
0.0156051
0.0156048
0.0156045
0.0156042
0.0156039
0.0156036
0.0156033
0.015603
0.0156027
0.0156024
0.0156021
0.0156018
0.0156015
0.0156012
0.0156009
0.0156006
0.0156003
0.0156
0.0155997
0.0155994
0.0155991
0.0155988
0.0155985
0.0155982
0.0155979
0.0155976
0.0155973
0.015597
0.0155967
0.0155964
0.0155961
0.0155958
0.0155955
0.0155952
0.0155949
0.0155945
0.0155942
0.0155939
0.0155936
0.0155933
0.015593
0.0155927
0.0155924
0.0155921
0.0155918
0.0155915
0.0155912
0.0155909
0.0155906
0.0155903
0.01559
0.0155897
0.0155894
0.0155891
0.0155888
0.0155885
0.0155882
0.0155879
0.0155876
0.0155873
0.015587
0.0155867
0.0155864
0.0155861
0.0155858
0.0155855
0.0155852
0.0155849
0.0155846
0.0155843
0.015584
0.0155837
0.0155834
0.0155831
0.0155828
0.0155825
0.0155822
0.0155819
0.0155816
0.0155813
0.015581
0.0155807
0.0155804
0.0155801
0.0155798
0.0155795
0.0155792
0.0155789
0.0155786
0.0155783
0.015578
0.0155777
0.0155774
0.0155771
0.0155768
0.0155765
0.0155762
0.0155759
0.0155756
0.0155752
0.0155749
0.0155746
0.0155743
0.015574
0.0155737
0.0155734
0.0155731
0.0155727
0.0155724
0.0155721
0.0155717
0.0155713
0.015571
0.0155706
0.0155701
0.0155697
0.0155692
0.0155686
0.0155679
0.0155672
0.0155661
0.0155658
0.0155658
0.0155658
1
0.96919
0.495615
0.314222
0.237895
0.197394
0.172131
0.154694
0.141839
0.131925
0.124024
0.11757
0.112193
0.107642
0.103738
0.100351
0.0973822
0.0947576
0.0924187
0.0903192
0.0884223
0.0866983
0.0851227
0.0836756
0.0823404
0.0811032
0.0799524
0.0788781
0.077872
0.076927
0.0760368
0.0751962
0.0744007
0.0736461
0.072929
0.0722463
0.0715953
0.0709734
0.0703787
0.0698091
0.0692628
0.0687384
0.0682345
0.0677496
0.0672827
0.0668327
0.0663986
0.0659795
0.0655746
0.0651831
0.0648043
0.0644375
0.0640822
0.0637378
0.0634038
0.0630796
0.0627648
0.0624591
0.0621618
0.0618728
0.0615917
0.061318
0.0610516
0.060792
0.0605391
0.0602925
0.060052
0.0598174
0.0595884
0.0593649
0.0591466
0.0589334
0.058725
0.0585213
0.0583221
0.0581273
0.0579367
0.0577502
0.0575676
0.0573888
0.0572138
0.0570423
0.0568742
0.0567095
0.0565481
0.0563898
0.0562345
0.0560822
0.0559328
0.0557862
0.0556423
0.055501
0.0553623
0.055226
0.0550922
0.0549607
0.0548316
0.0547046
0.0545799
0.0544572
0.0543366
0.054218
0.0541014
0.0539866
0.0538738
0.0537627
0.0536534
0.0535459
0.05344
0.0533358
0.0532331
0.0531321
0.0530326
0.0529346
0.052838
0.0527429
0.0526492
0.0525569
0.0524659
0.0523762
0.0522878
0.0522006
0.0521147
0.05203
0.0519465
0.0518641
0.0517829
0.0517028
0.0516237
0.0515458
0.0514688
0.0513929
0.0513181
0.0512442
0.0511712
0.0510993
0.0510282
0.0509581
0.0508889
0.0508205
0.0507531
0.0506864
0.0506207
0.0505557
0.0504916
0.0504282
0.0503656
0.0503038
0.0502428
0.0501825
0.0501229
0.0500641
0.050006
0.0499485
0.0498918
0.0498357
0.0497803
0.0497256
0.0496715
0.049618
0.0495652
0.049513
0.0494614
0.0494104
0.04936
0.0493102
0.049261
0.0492124
0.0491643
0.0491168
0.0490699
0.0490235
0.0489777
0.0489324
0.0488877
0.0488436
0.0488
0.0487569
0.0487144
0.0486724
0.048631
0.0485901
0.0485497
0.0485099
0.0484707
0.048432
0.0483938
0.0483563
0.0483192
0.0482828
0.0482468
0.0482115
0.0481767
0.0481425
0.0481088
0.0480757
0.0480432
0.0480112
0.0479799
0.047949
0.0479188
0.0478891
0.0478599
0.0478313
0.0478033
0.0477759
0.0477489
0.0477225
0.0476967
0.0476714
0.0476466
0.0476224
0.0475987
0.0475755
0.0475528
0.0475306
0.0475089
0.0474877
0.047467
0.0474468
0.0474271
0.0474078
0.047389
0.0473707
0.0473528
0.0473353
0.0473183
0.0473018
0.0472856
0.0472699
0.0472546
0.0472397
0.0472252
0.0472111
0.0471974
0.0471841
0.0471711
0.0471585
0.0471463
0.0471345
0.047123
0.0471118
0.047101
0.0470905
0.0470803
0.0470704
0.0470609
0.0470516
0.0470427
0.047034
0.0470256
0.0470176
0.0470097
0.0470022
0.0469949
0.0469879
0.0469811
0.0469745
0.0469682
0.0469621
0.0469563
0.0469506
0.0469452
0.04694
0.0469349
0.0469301
0.0469255
0.046921
0.0469167
0.0469126
0.0469087
0.0469049
0.0469013
0.0468979
0.0468945
0.0468914
0.0468883
0.0468854
0.0468826
0.04688
0.0468775
0.046875
0.0468727
0.0468705
0.0468684
0.0468664
0.0468645
0.0468627
0.0468609
0.0468593
0.0468577
0.0468562
0.0468548
0.0468534
0.0468522
0.0468509
0.0468497
0.0468486
0.0468475
0.0468464
0.0468454
0.0468443
0.0468434
0.0468424
0.0468414
0.0468405
0.0468396
0.0468386
0.0468377
0.0468368
0.0468359
0.046835
0.0468341
0.0468332
0.0468323
0.0468314
0.0468305
0.0468296
0.0468287
0.0468278
0.0468269
0.046826
0.0468251
0.0468242
0.0468233
0.0468224
0.0468215
0.0468206
0.0468197
0.0468188
0.0468179
0.046817
0.0468161
0.0468152
0.0468143
0.0468134
0.0468125
0.0468116
0.0468107