# vtk DataFile Version 2.0
FlowField
ASCII
DATASET STRUCTURED_GRID
DIMENSIONS 800 1 200
POINTS 160000 float
0 0 0
0.04 0 0
0.08 0 0
0.12 0 0
0.16 0 0
0.2 0 0
0.24 0 0
0.28 0 0
0.32 0 0
0.36 0 0
0.4 0 0
0.44 0 0
0.48 0 0
0.52 0 0
0.56 0 0
0.6 0 0
0.64 0 0
0.68 0 0
0.72 0 0
0.76 0 0
0.8 0 0
0.84 0 0
0.88 0 0
0.92 0 0
0.96 0 0
1 0 0
1.04 0 0
1.08 0 0
1.12 0 0
1.16 0 0
1.2 0 0
1.24 0 0
1.28 0 0
1.32 0 0
1.36 0 0
1.4 0 0
1.44 0 0
1.48 0 0
1.52 0 0
1.56 0 0
1.6 0 0
1.64 0 0
1.68 0 0
1.72 0 0
1.76 0 0
1.8 0 0
1.84 0 0
1.88 0 0
1.92 0 0
1.96 0 0
2 0 0
2.04 0 0
2.08 0 0
2.12 0 0
2.16 0 0
2.2 0 0
2.24 0 0
2.28 0 0
2.32 0 0
2.36 0 0
2.4 0 0
2.44 0 0
2.48 0 0
2.52 0 0
2.56 0 0
2.6 0 0
2.64 0 0
2.68 0 0
2.72 0 0
2.76 0 0
2.8 0 0
2.84 0 0
2.88 0 0
2.92 0 0
2.96 0 0
3 0 0
3.04 0 0
3.08 0 0
3.12 0 0
3.16 0 0
3.2 0 0
3.24 0 0
3.28 0 0
3.32 0 0
3.36 0 0
3.4 0 0
3.44 0 0
3.48 0 0
3.52 0 0
3.56 0 0
3.6 0 0
3.64 0 0
3.68 0 0
3.72 0 0
3.76 0 0
3.8 0 0
3.84 0 0
3.88 0 0
3.92 0 0
3.96 0 0
4 0 0
4.04 0 0
4.08 0 0
4.12 0 0
4.16 0 0
4.2 0 0
4.24 0 0
4.28 0 0
4.32 0 0
4.36 0 0
4.4 0 0
4.44 0 0
4.48 0 0
4.52 0 0
4.56 0 0
4.6 0 0
4.64 0 0
4.68 0 0
4.72 0 0
4.76 0 0
4.8 0 0
4.84 0 0
4.88 0 0
4.92 0 0
4.96 0 0
5 0 0
5.04 0 0
5.08 0 0
5.12 0 0
5.16 0 0
5.2 0 0
5.24 0 0
5.28 0 0
5.32 0 0
5.36 0 0
5.4 0 0
5.44 0 0
5.48 0 0
5.52 0 0
5.56 0 0
5.6 0 0
5.64 0 0
5.68 0 0
5.72 0 0
5.76 0 0
5.8 0 0
5.84 0 0
5.88 0 0
5.92 0 0
5.96 0 0
6 0 0
6.04 0 0
6.08 0 0
6.12 0 0
6.16 0 0
6.2 0 0
6.24 0 0
6.28 0 0
6.32 0 0
6.36 0 0
6.4 0 0
6.44 0 0
6.48 0 0
6.52 0 0
6.56 0 0
6.6 0 0
6.64 0 0
6.68 0 0
6.72 0 0
6.76 0 0
6.8 0 0
6.84 0 0
6.88 0 0
6.92 0 0
6.96 0 0
7 0 0
7.04 0 0
7.08 0 0
7.12 0 0
7.16 0 0
7.2 0 0
7.24 0 0
7.28 0 0
7.32 0 0
7.36 0 0
7.4 0 0
7.44 0 0
7.48 0 0
7.52 0 0
7.56 0 0
7.6 0 0
7.64 0 0
7.68 0 0
7.72 0 0
7.76 0 0
7.8 0 0
7.84 0 0
7.88 0 0
7.92 0 0
7.96 0 0
8 0 0
8.04 0 0
8.08 0 0
8.12 0 0
8.16 0 0
8.2 0 0
8.24 0 0
8.28 0 0
8.32 0 0
8.36 0 0
8.4 0 0
8.44 0 0
8.48 0 0
8.52 0 0
8.56 0 0
8.6 0 0
8.64 0 0
8.68 0 0
8.72 0 0
8.76 0 0
8.8 0 0
8.84 0 0
8.88 0 0
8.92 0 0
8.96 0 0
9 0 0
9.04 0 0
9.08 0 0
9.12 0 0
9.16 0 0
9.2 0 0
9.24 0 0
9.28 0 0
9.32 0 0
9.36 0 0
9.4 0 0
9.44 0 0
9.48 0 0
9.52 0 0
9.56 0 0
9.6 0 0
9.64 0 0
9.68 0 0
9.72 0 0
9.76 0 0
9.8 0 0
9.84 0 0
9.88 0 0
9.92 0 0
9.96 0 0
10 0 0
10.04 0 0
10.08 0 0
10.12 0 0
10.16 0 0
10.2 0 0
10.24 0 0
10.28 0 0
10.32 0 0
10.36 0 0
10.4 0 0
10.44 0 0
10.48 0 0
10.52 0 0
10.56 0 0
10.6 0 0
10.64 0 0
10.68 0 0
10.72 0 0
10.76 0 0
10.8 0 0
10.84 0 0
10.88 0 0
10.92 0 0
10.96 0 0
11 0 0
11.04 0 0
11.08 0 0
11.12 0 0
11.16 0 0
11.2 0 0
11.24 0 0
11.28 0 0
11.32 0 0
11.36 0 0
11.4 0 0
11.44 0 0
11.48 0 0
11.52 0 0
11.56 0 0
11.6 0 0
11.64 0 0
11.68 0 0
11.72 0 0
11.76 0 0
11.8 0 0
11.84 0 0
11.88 0 0
11.92 0 0
11.96 0 0
12 0 0
12.04 0 0
12.08 0 0
12.12 0 0
12.16 0 0
12.2 0 0
12.24 0 0
12.28 0 0
12.32 0 0
12.36 0 0
12.4 0 0
12.44 0 0
12.48 0 0
12.52 0 0
12.56 0 0
12.6 0 0
12.64 0 0
12.68 0 0
12.72 0 0
12.76 0 0
12.8 0 0
12.84 0 0
12.88 0 0
12.92 0 0
12.96 0 0
13 0 0
13.04 0 0
13.08 0 0
13.12 0 0
13.16 0 0
13.2 0 0
13.24 0 0
13.28 0 0
13.32 0 0
13.36 0 0
13.4 0 0
13.44 0 0
13.48 0 0
13.52 0 0
13.56 0 0
13.6 0 0
13.64 0 0
13.68 0 0
13.72 0 0
13.76 0 0
13.8 0 0
13.84 0 0
13.88 0 0
13.92 0 0
13.96 0 0
14 0 0
14.04 0 0
14.08 0 0
14.12 0 0
14.16 0 0
14.2 0 0
14.24 0 0
14.28 0 0
14.32 0 0
14.36 0 0
14.4 0 0
14.44 0 0
14.48 0 0
14.52 0 0
14.56 0 0
14.6 0 0
14.64 0 0
14.68 0 0
14.72 0 0
14.76 0 0
14.8 0 0
14.84 0 0
14.88 0 0
14.92 0 0
14.96 0 0
15 0 0
15.04 0 0
15.08 0 0
15.12 0 0
15.16 0 0
15.2 0 0
15.24 0 0
15.28 0 0
15.32 0 0
15.36 0 0
15.4 0 0
15.44 0 0
15.48 0 0
15.52 0 0
15.56 0 0
15.6 0 0
15.64 0 0
15.68 0 0
15.72 0 0
15.76 0 0
15.8 0 0
15.84 0 0
15.88 0 0
15.92 0 0
15.96 0 0
16 0 0
16.04 0 0
16.08 0 0
16.12 0 0
16.16 0 0
16.2 0 0
16.24 0 0
16.28 0 0
16.32 0 0
16.36 0 0
16.4 0 0
16.44 0 0
16.48 0 0
16.52 0 0
16.56 0 0
16.6 0 0
16.64 0 0
16.68 0 0
16.72 0 0
16.76 0 0
16.8 0 0
16.84 0 0
16.88 0 0
16.92 0 0
16.96 0 0
17 0 0
17.04 0 0
17.08 0 0
17.12 0 0
17.16 0 0
17.2 0 0
17.24 0 0
17.28 0 0
17.32 0 0
17.36 0 0
17.4 0 0
17.44 0 0
17.48 0 0
17.52 0 0
17.56 0 0
17.6 0 0
17.64 0 0
17.68 0 0
17.72 0 0
17.76 0 0
17.8 0 0
17.84 0 0
17.88 0 0
17.92 0 0
17.96 0 0
18 0 0
18.04 0 0
18.08 0 0
18.12 0 0
18.16 0 0
18.2 0 0
18.24 0 0
18.28 0 0
18.32 0 0
18.36 0 0
18.4 0 0
18.44 0 0
18.48 0 0
18.52 0 0
18.56 0 0
18.6 0 0
18.64 0 0
18.68 0 0
18.72 0 0
18.76 0 0
18.8 0 0
18.84 0 0
18.88 0 0
18.92 0 0
18.96 0 0
19 0 0
19.04 0 0
19.08 0 0
19.12 0 0
19.16 0 0
19.2 0 0
19.24 0 0
19.28 0 0
19.32 0 0
19.36 0 0
19.4 0 0
19.44 0 0
19.48 0 0
19.52 0 0
19.56 0 0
19.6 0 0
19.64 0 0
19.68 0 0
19.72 0 0
19.76 0 0
19.8 0 0
19.84 0 0
19.88 0 0
19.92 0 0
19.96 0 0
20 0 0
20.04 0 0
20.08 0 0
20.12 0 0
20.16 0 0
20.2 0 0
20.24 0 0
20.28 0 0
20.32 0 0
20.36 0 0
20.4 0 0
20.44 0 0
20.48 0 0
20.52 0 0
20.56 0 0
20.6 0 0
20.64 0 0
20.68 0 0
20.72 0 0
20.76 0 0
20.8 0 0
20.84 0 0
20.88 0 0
20.92 0 0
20.96 0 0
21 0 0
21.04 0 0
21.08 0 0
21.12 0 0
21.16 0 0
21.2 0 0
21.24 0 0
21.28 0 0
21.32 0 0
21.36 0 0
21.4 0 0
21.44 0 0
21.48 0 0
21.52 0 0
21.56 0 0
21.6 0 0
21.64 0 0
21.68 0 0
21.72 0 0
21.76 0 0
21.8 0 0
21.84 0 0
21.88 0 0
21.92 0 0
21.96 0 0
22 0 0
22.04 0 0
22.08 0 0
22.12 0 0
22.16 0 0
22.2 0 0
22.24 0 0
22.28 0 0
22.32 0 0
22.36 0 0
22.4 0 0
22.44 0 0
22.48 0 0
22.52 0 0
22.56 0 0
22.6 0 0
22.64 0 0
22.68 0 0
22.72 0 0
22.76 0 0
22.8 0 0
22.84 0 0
22.88 0 0
22.92 0 0
22.96 0 0
23 0 0
23.04 0 0
23.08 0 0
23.12 0 0
23.16 0 0
23.2 0 0
23.24 0 0
23.28 0 0
23.32 0 0
23.36 0 0
23.4 0 0
23.44 0 0
23.48 0 0
23.52 0 0
23.56 0 0
23.6 0 0
23.64 0 0
23.68 0 0
23.72 0 0
23.76 0 0
23.8 0 0
23.84 0 0
23.88 0 0
23.92 0 0
23.96 0 0
24 0 0
24.04 0 0
24.08 0 0
24.12 0 0
24.16 0 0
24.2 0 0
24.24 0 0
24.28 0 0
24.32 0 0
24.36 0 0
24.4 0 0
24.44 0 0
24.48 0 0
24.52 0 0
24.56 0 0
24.6 0 0
24.64 0 0
24.68 0 0
24.72 0 0
24.76 0 0
24.8 0 0
24.84 0 0
24.88 0 0
24.92 0 0
24.96 0 0
25 0 0
25.04 0 0
25.08 0 0
25.12 0 0
25.16 0 0
25.2 0 0
25.24 0 0
25.28 0 0
25.32 0 0
25.36 0 0
25.4 0 0
25.44 0 0
25.48 0 0
25.52 0 0
25.56 0 0
25.6 0 0
25.64 0 0
25.68 0 0
25.72 0 0
25.76 0 0
25.8 0 0
25.84 0 0
25.88 0 0
25.92 0 0
25.96 0 0
26 0 0
26.04 0 0
26.08 0 0
26.12 0 0
26.16 0 0
26.2 0 0
26.24 0 0
26.28 0 0
26.32 0 0
26.36 0 0
26.4 0 0
26.44 0 0
26.48 0 0
26.52 0 0
26.56 0 0
26.6 0 0
26.64 0 0
26.68 0 0
26.72 0 0
26.76 0 0
26.8 0 0
26.84 0 0
26.88 0 0
26.92 0 0
26.96 0 0
27 0 0
27.04 0 0
27.08 0 0
27.12 0 0
27.16 0 0
27.2 0 0
27.24 0 0
27.28 0 0
27.32 0 0
27.36 0 0
27.4 0 0
27.44 0 0
27.48 0 0
27.52 0 0
27.56 0 0
27.6 0 0
27.64 0 0
27.68 0 0
27.72 0 0
27.76 0 0
27.8 0 0
27.84 0 0
27.88 0 0
27.92 0 0
27.96 0 0
28 0 0
28.04 0 0
28.08 0 0
28.12 0 0
28.16 0 0
28.2 0 0
28.24 0 0
28.28 0 0
28.32 0 0
28.36 0 0
28.4 0 0
28.44 0 0
28.48 0 0
28.52 0 0
28.56 0 0
28.6 0 0
28.64 0 0
28.68 0 0
28.72 0 0
28.76 0 0
28.8 0 0
28.84 0 0
28.88 0 0
28.92 0 0
28.96 0 0
29 0 0
29.04 0 0
29.08 0 0
29.12 0 0
29.16 0 0
29.2 0 0
29.24 0 0
29.28 0 0
29.32 0 0
29.36 0 0
29.4 0 0
29.44 0 0
29.48 0 0
29.52 0 0
29.56 0 0
29.6 0 0
29.64 0 0
29.68 0 0
29.72 0 0
29.76 0 0
29.8 0 0
29.84 0 0
29.88 0 0
29.92 0 0
29.96 0 0
30 0 0
30.04 0 0
30.08 0 0
30.12 0 0
30.16 0 0
30.2 0 0
30.24 0 0
30.28 0 0
30.32 0 0
30.36 0 0
30.4 0 0
30.44 0 0
30.48 0 0
30.52 0 0
30.56 0 0
30.6 0 0
30.64 0 0
30.68 0 0
30.72 0 0
30.76 0 0
30.8 0 0
30.84 0 0
30.88 0 0
30.92 0 0
30.96 0 0
31 0 0
31.04 0 0
31.08 0 0
31.12 0 0
31.16 0 0
31.2 0 0
31.24 0 0
31.28 0 0
31.32 0 0
31.36 0 0
31.4 0 0
31.44 0 0
31.48 0 0
31.52 0 0
31.56 0 0
31.6 0 0
31.64 0 0
31.68 0 0
31.72 0 0
31.76 0 0
31.8 0 0
31.84 0 0
31.88 0 0
31.92 0 0
31.96 0 0
0 0.005 0
0.04 0.005 0
0.08 0.005 0
0.12 0.005 0
0.16 0.005 0
0.2 0.005 0
0.24 0.005 0
0.28 0.005 0
0.32 0.005 0
0.36 0.005 0
0.4 0.005 0
0.44 0.005 0
0.48 0.005 0
0.52 0.005 0
0.56 0.005 0
0.6 0.005 0
0.64 0.005 0
0.68 0.005 0
0.72 0.005 0
0.76 0.005 0
0.8 0.005 0
0.84 0.005 0
0.88 0.005 0
0.92 0.005 0
0.96 0.005 0
1 0.005 0
1.04 0.005 0
1.08 0.005 0
1.12 0.005 0
1.16 0.005 0
1.2 0.005 0
1.24 0.005 0
1.28 0.005 0
1.32 0.005 0
1.36 0.005 0
1.4 0.005 0
1.44 0.005 0
1.48 0.005 0
1.52 0.005 0
1.56 0.005 0
1.6 0.005 0
1.64 0.005 0
1.68 0.005 0
1.72 0.005 0
1.76 0.005 0
1.8 0.005 0
1.84 0.005 0
1.88 0.005 0
1.92 0.005 0
1.96 0.005 0
2 0.005 0
2.04 0.005 0
2.08 0.005 0
2.12 0.005 0
2.16 0.005 0
2.2 0.005 0
2.24 0.005 0
2.28 0.005 0
2.32 0.005 0
2.36 0.005 0
2.4 0.005 0
2.44 0.005 0
2.48 0.005 0
2.52 0.005 0
2.56 0.005 0
2.6 0.005 0
2.64 0.005 0
2.68 0.005 0
2.72 0.005 0
2.76 0.005 0
2.8 0.005 0
2.84 0.005 0
2.88 0.005 0
2.92 0.005 0
2.96 0.005 0
3 0.005 0
3.04 0.005 0
3.08 0.005 0
3.12 0.005 0
3.16 0.005 0
3.2 0.005 0
3.24 0.005 0
3.28 0.005 0
3.32 0.005 0
3.36 0.005 0
3.4 0.005 0
3.44 0.005 0
3.48 0.005 0
3.52 0.005 0
3.56 0.005 0
3.6 0.005 0
3.64 0.005 0
3.68 0.005 0
3.72 0.005 0
3.76 0.005 0
3.8 0.005 0
3.84 0.005 0
3.88 0.005 0
3.92 0.005 0
3.96 0.005 0
4 0.005 0
4.04 0.005 0
4.08 0.005 0
4.12 0.005 0
4.16 0.005 0
4.2 0.005 0
4.24 0.005 0
4.28 0.005 0
4.32 0.005 0
4.36 0.005 0
4.4 0.005 0
4.44 0.005 0
4.48 0.005 0
4.52 0.005 0
4.56 0.005 0
4.6 0.005 0
4.64 0.005 0
4.68 0.005 0
4.72 0.005 0
4.76 0.005 0
4.8 0.005 0
4.84 0.005 0
4.88 0.005 0
4.92 0.005 0
4.96 0.005 0
5 0.005 0
5.04 0.005 0
5.08 0.005 0
5.12 0.005 0
5.16 0.005 0
5.2 0.005 0
5.24 0.005 0
5.28 0.005 0
5.32 0.005 0
5.36 0.005 0
5.4 0.005 0
5.44 0.005 0
5.48 0.005 0
5.52 0.005 0
5.56 0.005 0
5.6 0.005 0
5.64 0.005 0
5.68 0.005 0
5.72 0.005 0
5.76 0.005 0
5.8 0.005 0
5.84 0.005 0
5.88 0.005 0
5.92 0.005 0
5.96 0.005 0
6 0.005 0
6.04 0.005 0
6.08 0.005 0
6.12 0.005 0
6.16 0.005 0
6.2 0.005 0
6.24 0.005 0
6.28 0.005 0
6.32 0.005 0
6.36 0.005 0
6.4 0.005 0
6.44 0.005 0
6.48 0.005 0
6.52 0.005 0
6.56 0.005 0
6.6 0.005 0
6.64 0.005 0
6.68 0.005 0
6.72 0.005 0
6.76 0.005 0
6.8 0.005 0
6.84 0.005 0
6.88 0.005 0
6.92 0.005 0
6.96 0.005 0
7 0.005 0
7.04 0.005 0
7.08 0.005 0
7.12 0.005 0
7.16 0.005 0
7.2 0.005 0
7.24 0.005 0
7.28 0.005 0
7.32 0.005 0
7.36 0.005 0
7.4 0.005 0
[...]
POINT_DATA 160000

SCALARS p float 1
LOOKUP_TABLE default
1
10.803
8.5878
8.33302
8.27291
8.24655
8.23053
8.21897
8.20974
8.2019
8.19498
8.18868
8.18284
8.17735
8.17214
8.16716
8.16239
8.15783
8.15352
8.14948
8.14572
8.14223
8.13897
8.13587
8.13289
8.12996
8.12707
8.12419
8.12131
8.11844
8.11556
8.11266
8.10975
8.10682
8.10386
8.10086
8.09784
8.0948
8.09172
8.08863
8.08552
8.0824
8.07927
8.07612
8.07297
8.06982
8.06666
8.06349
8.06032
8.05716
8.05398
8.05081
8.04764
8.04446
8.04129
8.03811
8.03493
8.03175
8.02857
8.02539
8.02221
8.01903
8.01584
8.01266
8.00947
8.00628
8.00309
7.99991
7.99672
7.99353
7.99033
7.98714
7.98395
7.98075
7.97756
7.97436
7.97116
7.96796
7.96476
7.96156
7.95836
7.95516
7.95196
7.94875
7.94555
7.94234
7.93913
7.93593
7.93272
7.92951
7.9263
7.92308
7.91987
7.91666
7.91344
7.91023
7.90701
7.90379
7.90057
7.89735
7.89413
7.89091
7.88769
7.88446
7.88124
7.87801
7.87478
7.87156
7.86833
7.8651
7.86187
7.85863
7.8554
7.85217
7.84893
7.8457
7.84246
7.83922
7.83598
7.83274
7.8295
7.82626
7.82302
7.81977
7.81653
7.81328
7.81003
7.80678
7.80354
7.80029
7.79703
7.79378
7.79053
7.78727
7.78402
7.78076
7.7775
7.77425
7.77099
7.76773
7.76446
7.7612
7.75794
7.75467
7.75141
7.74814
7.74487
7.7416
7.73833
7.73506
7.73179
7.72851
7.72524
7.72196
7.71869
7.71541
7.71213
7.70885
7.70557
7.70229
7.699
7.69572
7.69243
7.68915
7.68586
7.68257
7.67928
7.67599
7.67269
7.6694
7.66611
7.66281
7.65951
7.65621
7.65291
7.64961
7.6463
7.643
7.63969
7.63638
7.63307
7.62976
7.62644
7.62313
7.61981
7.61649
7.61317
7.60984
7.60651
7.60318
7.59985
7.59651
7.59317
7.58983
7.58649
7.58314
7.57978
7.57642
7.57306
7.56969
7.56632
7.56294
7.55956
7.55617
7.55277
7.54937
7.54596
7.54254
7.53912
7.53568
7.53224
7.52878
7.52532
7.52184
7.51835
7.51485
7.51134
7.50781
7.50427
7.50071
7.49714
7.49355
7.48994
7.48632
7.48267
7.47901
7.47532
7.47161
7.46788
7.46412
7.46034
7.45653
7.45269
7.44883
7.44494
7.44102
7.43706
7.43308
7.42906
7.425
7.42092
7.41679
7.41263
7.40843
7.40419
7.39992
7.3956
7.39124
7.38684
7.3824
7.37791
7.37338
7.36881
7.36419
7.35953
7.35482
7.35007
7.34527
7.34043
7.33554
7.3306
7.32562
7.32059
7.31552
7.3104
7.30524
7.30004
7.29479
7.2895
7.28416
7.27879
7.27337
7.26792
7.26242
7.25689
7.25132
7.24572
7.24008
7.23441
7.2287
7.22297
7.2172
7.21141
7.20559
7.19975
7.19388
7.18799
7.18208
7.17616
7.17021
7.16425
7.15827
7.15228
7.14628
7.14026
7.13424
7.12821
7.12218
7.11614
7.11009
7.10404
7.098
7.09195
7.0859
7.07986
7.07382
7.06779
7.06176
7.05573
7.04972
7.04371
7.03771
7.03172
7.02575
7.01978
7.01382
7.00788
7.00195
6.99603
6.99013
6.98424
6.97837
6.97251
6.96666
6.96083
6.95502
6.94922
6.94343
6.93766
6.93191
6.92617
6.92045
6.91475
6.90906
6.90339
6.89773
6.89208
6.88646
6.88084
6.87524
6.86966
6.86409
6.85854
6.853
6.84747
6.84196
6.83646
6.83098
6.82551
6.82005
6.8146
6.80917
6.80375
6.79834
6.79294
6.78756
6.78218
6.77682
6.77146
6.76612
6.76079
6.75547
6.75016
6.74486
6.73957
6.73428
6.72901
6.72375
6.71849
6.71324
6.708
6.70277
6.69755
6.69234
6.68713
6.68193
6.67674
6.67156
6.66638
6.66121
6.65605
6.65089
6.64574
6.6406
6.63546
6.63033
6.62521
6.62009
6.61498
6.60987
6.60477
6.59967
6.59458
6.5895
6.58442
6.57935
6.57428
6.56921
6.56415
6.5591
6.55405
6.549
6.54396
6.53892
6.53389
6.52886
6.52384
6.51882
6.5138
6.50879
6.50378
6.49878
6.49378
6.48878
6.48379
6.4788
6.47382
6.46883
6.46386
6.45888
6.45391
6.44894
6.44397
6.43901
6.43405
6.4291
6.42414
6.41919
6.41424
6.4093
6.40436
6.39942
6.39448
6.38955
6.38462
6.37969
6.37476
6.36984
6.36492
6.36
6.35508
6.35017
6.34526
6.34035
6.33544
6.33053
6.32563
6.32073
6.31583
6.31094
6.30604
6.30115
6.29626
6.29137
6.28648
6.28159
6.27671
6.27183
6.26695
6.26207
6.25719
6.25232
6.24744
6.24257
6.2377
6.23283
6.22796
6.2231
6.21823
6.21337
6.20851
6.20365
6.19879
6.19393
6.18907
6.18422
6.17936
6.17451
6.16966
6.16481
6.15996
6.15511
6.15026
6.14542
6.14057
6.13573
6.13088
6.12604
6.1212
6.11636
6.11152
6.10668
6.10184
6.09701
6.09217
6.08733
6.0825
6.07766
6.07283
6.068
6.06317
6.05833
6.0535
6.04867
6.04384
6.03901
6.03419
6.02936
6.02453
6.0197
6.01488
6.01005
6.00523
6.0004
5.99558
5.99075
5.98593
5.98111
5.97628
5.97146
5.96664
5.96182
5.95699
5.95217
5.94735
5.94253
5.93771
5.93289
5.92807
5.92325
5.91843
5.91361
5.90879
5.90397
5.89915
5.89433
5.88951
5.88469
5.87987
5.87505
5.87023
5.86541
5.86059
5.85577
5.85095
5.84613
5.84131
5.83649
5.83167
5.82685
5.82203
5.81721
5.81239
5.80757
5.80274
5.79792
5.7931
5.78828
5.78346
5.77864
5.77381
5.76899
5.76417
5.75934
5.75452
5.7497
5.74487
5.74005
5.73522
5.7304
5.72557
5.72074
5.71592
5.71109
5.70626
5.70143
5.6966
5.69177
5.68694
5.68211
5.67728
5.67245
5.66762
5.66279
5.65796
5.65312
5.64829
5.64345
5.63862
5.63378
5.62895
5.62411
5.61927
5.61443
5.60959
5.60475
5.59991
5.59507
5.59023
5.58539
5.58054
5.5757
5.57085
5.56601
5.56116
5.55631
5.55146
5.54661
5.54176
5.53691
5.53206
5.52721
5.52236
5.5175
5.51265
5.50779
5.50293
5.49807
5.49322
5.48836
5.48349
5.47863
5.47377
5.46891
5.46404
5.45917
5.45431
5.44944
5.44457
5.4397
5.43483
5.42996
5.42508
5.42021
5.41533
5.41046
5.40558
5.4007
5.39582
5.39094
5.38606
5.38117
5.37629
5.3714
5.36651
5.36163
5.35674
5.35185
5.34695
5.34206
5.33717
5.33227
5.32737
5.32247
5.31757
5.31267
5.30777
5.30287
5.29796
5.29305
5.28815
5.28324
5.27833
5.27341
5.2685
5.26359
5.25867
5.25375
5.24883
5.24391
5.23899
5.23406
5.22914
5.22421
5.21928
5.21436
5.20942
5.20449
5.19956
5.19462
5.18968
5.18474
5.1798
5.17486
5.16992
5.16497
5.16003
5.15508
5.15013
5.14518
5.14022
5.13527
5.13031
5.12535
5.12039
5.11543
5.11046
5.1055
5.10053
5.09556
5.09059
5.08562
5.08065
5.07567
5.07069
5.06571
5.06073
5.05575
5.05076
5.04577
5.04079
5.0358
5.0308
5.02581
5.02081
5.01581
5.01081
5.00581
5.00081
4.9958
4.99079
4.98578
4.98077
4.97576
4.97074
4.96572
4.9607
4.95568
4.95066
4.94563
4.9406
4.93557
4.93054
4.92551
4.92047
4.91543
4.91039
4.90535
4.9003
4.89526
4.89021
4.88516
4.8801
4.87505
4.86999
4.86493
4.85987
4.8548
4.84973
4.84466
4.83959
4.83452
4.82944
4.82437
4.81928
4.8142
4.80912
4.80403
4.79894
4.79385
4.78875
4.78366
4.77856
4.77345
4.76835
4.76324
4.75813
4.75302
4.74791
4.74279
4.73767
4.73255
4.72743
4.7223
4.71717
4.71204
4.70691
4.70177
4.69663
4.69149
4.68635
4.6812
4.67605
4.6709
4.66575
4.66059
4.65543
4.65027
4.6451
4.63994
4.63477
4.6296
4.62442
4.61925
4.61407
4.60889
4.60371
4.59853
4.59333
1
10.803
10.803
8.5878
8.33302
8.27291
8.24655
8.23053
8.21897
8.20974
8.2019
8.19498
8.18868
8.18284
8.17735
8.17214
8.16716
8.16239
8.15783
8.15352
8.14948
8.14572
8.14223
8.13897
8.13587
8.13289
8.12996
8.12707
8.12419
8.12131
8.11844
8.11556
8.11266
8.10975
8.10682
8.10386
8.10086
8.09784
8.0948
8.09172
8.08863
8.08552
8.0824
8.07927
8.07612
8.07297
8.06982
8.06666
8.06349
8.06032
8.05716
8.05398
8.05081
8.04764
8.04446
8.04129
8.03811
8.03493
8.03175
8.02857
8.02539
8.02221
8.01903
8.01584
8.01266
8.00947
8.00628
8.00309
7.99991
7.99672
7.99353
7.99033
7.98714
7.98395
7.98075
7.97756
7.97436
7.97116
7.96796
7.96476
7.96156
7.95836
7.95516
7.95196
7.94875
7.94555
7.94234
7.93913
7.93593
7.93272
7.92951
7.9263
7.92308
7.91987
7.91666
7.91344
7.91023
7.90701
7.90379
7.90057
7.89735
7.89413
7.89091
7.88769
7.88446
7.88124
7.87801
7.87478
7.87156
7.86833
7.8651
7.86187
7.85863
7.8554
7.85217
7.84893
7.8457
7.84246
7.83922
7.83598
7.83274
7.8295
7.82626
7.82302
7.81977
7.81653
7.81328
7.81003
7.80678
7.80354
7.80029
7.79703
7.79378
7.79053
7.78727
7.78402
7.78076
7.7775
7.77425
7.77099
7.76773
7.76446
7.7612
7.75794
7.75467
7.75141
7.74814
7.74487
7.7416
7.73833
7.73506
7.73179
7.72851
7.72524
7.72196
7.71869
7.71541
7.71213
7.70885
7.70557
7.70229
7.699
7.69572
7.69243
7.68915
7.68586
7.68257
7.67928
7.67599
7.67269
7.6694
7.66611
7.66281
7.65951
7.65621
7.65291
7.64961
7.6463
7.643
7.63969
7.63638
7.63307
7.62976
7.62644
7.62313
7.61981
7.61649
7.61317
7.60984
7.60651
7.60318
7.59985
7.59651
7.59317
7.58983
7.58649
7.58314
7.57978
7.57642
7.57306
7.56969
7.56632
7.56294
7.55956
7.55617
7.55277
7.54937
7.54596
7.54254
7.53912
7.53568
7.53224
7.52878
7.52532
7.52184
7.51835
7.51485
7.51134
7.50781
7.50427
7.50071
7.49714
7.49355
7.48994
7.48632
7.48267
7.47901
7.47532
7.47161
7.46788
7.46412
7.46034
7.45653
7.45269
7.44883
7.44494
7.44102
7.43706
7.43308
7.42906
7.425
7.42092
7.41679
7.41263
7.40843
7.40419
7.39992
7.3956
7.39124
7.38684
7.3824
7.37791
7.37338
7.36881
7.36419
7.35953
7.35482
7.35007
7.34527
7.34043
7.33554
7.3306
7.32562
7.32059
7.31552
7.3104
7.30524
7.30004
7.29479
7.2895
7.28416
7.27879
7.27337
7.26792
7.26242
7.25689
7.25132
7.24572
7.24008
7.23441
7.2287
7.22297
7.2172
7.21141
7.20559
7.19975
7.19388
7.18799
7.18208
7.17616
7.17021
7.16425
7.15827
7.15228
7.14628
7.14026
7.13424
7.12821
7.12218
7.11614
7.11009
7.10404
7.098
7.09195
7.0859
7.07986
7.07382
7.06779
7.06176
7.05573
7.04972
7.04371
7.03771
7.03172
7.02575
7.01978
7.01382
7.00788
7.00195
6.99603
6.99013
6.98424
6.97837
6.97251
6.96666
6.96083
6.95502
6.94922
6.94343
6.93766
6.93191
6.92617
6.92045
6.91475
6.90906
6.90339
6.89773
6.89208
6.88646
6.88084
6.87524
6.86966
6.86409
6.85854
6.853
6.84747
6.84196
6.83646
6.83098
6.82551
6.82005
6.8146
6.80917
6.80375
6.79834
6.79294
6.78756
6.78218
6.77682
6.77146
6.76612
6.76079
6.75547
6.75016
6.74486
6.73957
6.73428
6.72901
6.72375
6.71849
6.71324
6.708
6.70277
6.69755
6.69234
6.68713
6.68193
6.67674
6.67156
6.66638
6.66121
6.65605
6.65089
6.64574
6.6406
6.63546
6.63033
6.62521
6.62009
6.61498
6.60987
6.60477
6.59967
6.59458
6.5895
6.58442
6.57935
6.57428
6.56921
6.56415
6.5591
6.55405
6.549
6.54396
6.53892
6.53389
6.52886
6.52384
6.51882
6.5138
6.50879
6.50378
6.49878
6.49378
6.48878
6.48379
6.4788
6.47382
6.46883
6.46386
6.45888
6.45391
6.44894
6.44397
6.43901
6.43405
6.4291
6.42414
6.41919
6.41424
6.4093
6.40436
6.39942
6.39448
6.38955
6.38462
6.37969
6.37476
6.36984
6.36492
6.36
6.35508
6.35017
6.34526
6.34035
6.33544
6.33053
6.32563
6.32073
6.31583
6.31094
6.30604
6.30115
6.29626
6.29137
6.28648
6.28159
6.27671
6.27183
6.26695
6.26207
6.25719
6.25232
6.24744
6.24257
6.2377
6.23283
6.22796
6.2231
6.21823
6.21337
6.20851
6.20365
6.19879
6.19393
6.18907
6.18422
6.17936
6.17451
6.16966
6.16481
6.15996
6.15511
6.15026
6.14542
6.14057
6.13573
6.13088
6.12604
6.1212
6.11636
6.11152
6.10668
6.10184
6.09701
6.09217
6.08733
6.0825
6.07766
6.07283
6.068
6.06317
6.05833
6.0535
6.04867
6.04384
6.03901
6.03419
6.02936
6.02453
6.0197
6.01488
6.01005
6.00523
6.0004
5.99558
5.99075
5.98593
5.98111
5.97628
5.97146
5.96664
5.96182
5.95699
5.95217
5.94735
5.94253
5.93771
5.93289
5.92807
5.92325
5.91843
5.91361
5.90879
5.90397
5.89915
5.89433
5.88951
5.88469
5.87987
5.87505
5.87023
5.86541
5.86059
5.85577
5.85095
5.84613
5.84131
5.83649
5.83167
5.82685
5.82203
5.81721
5.81239
5.80757
5.80274
5.79792
5.7931
5.78828
5.78346
5.77864
5.77381
5.76899
5.76417
5.75934
5.75452
5.7497
5.74487
5.74005
5.73522
5.7304
5.72557
5.72074
5.71592
5.71109
5.70626
5.70143
5.6966
5.69177
5.68694
5.68211
5.67728
5.67245
5.66762
5.66279
5.65796
5.65312
5.64829
5.64345
5.63862
5.63378
5.62895
5.62411
5.61927
5.61443
5.60959
5.60475
5.59991
5.59507
5.59023
5.58539
5.58054
5.5757
5.57085
5.56601
5.56116
5.55631
5.55146
5.54661
5.54176
5.53691
5.53206
5.52721
5.52236
5.5175
5.51265
5.50779
5.50293
5.49807
5.49322
5.48836
5.48349
5.47863
5.47377
5.46891
5.46404
5.45917
5.45431
5.44944
5.44457
5.4397
5.43483
5.42996
5.42508
5.42021
5.41533
5.41046
5.40558
5.4007
5.39582
5.39094
5.38606
5.38117
5.37629
5.3714
5.36651
5.36163
5.35674
5.35185
5.34695
5.34206
5.33717
5.33227
5.32737
5.32247
5.31757
5.31267
5.30777
5.30287
5.29796
5.29305
5.28815
5.28324
5.27833
5.27341
5.2685
5.26359
5.25867
5.25375
5.24883
5.24391
5.23899
5.23406
5.22914
5.22421
5.21928
5.21436
5.20942
5.20449
5.19956
5.19462
5.18968
5.18474
5.1798
5.17486
5.16992
5.16497
5.16003
5.15508
5.15013
5.14518
5.14022
5.13527
5.13031
5.12535
5.12039
5.11543
5.11046
5.1055
5.10053
5.09556
5.09059
5.08562
5.08065
5.07567
5.07069
5.06571
5.06073
5.05575
5.05076
5.04577
5.04079
5.0358
5.0308
5.02581
5.02081
5.01581
5.01081
5.00581
5.00081
4.9958
4.99079
4.98578
4.98077
4.97576
4.97074
4.96572
4.9607
4.95568
4.95066
4.94563
4.9406
4.93557
4.93054
4.92551
4.92047
4.91543
4.91039
4.90535
4.9003
4.89526
4.89021
4.88516
4.8801
4.87505
4.86999
4.86493
4.85987
4.8548
4.84973
4.84466
4.83959
4.83452
4.82944
4.82437
4.81928
4.8142
4.80912
4.80403
4.79894
4.79385
4.78875
4.78366
4.77856
4.77345
4.76835
4.76324
4.75813
4.75302
4.74791
4.74279
4.73767
4.73255
4.72743
4.7223
4.71717
4.71204
4.70691
4.70177
4.69663
4.69149
4.68635
4.6812
4.67605
4.6709
4.66575
4.66059
4.65543
4.65027
4.6451
4.63994
4.63477
4.6296
4.62442
4.61925
4.61407
4.60889
4.60371
4.59853
4.59333
4.59333
10.1561
10.1561
8.59821
8.34254
8.27706
8.24877
8.23193
8.21993
8.21045
8.20246
8.19542
8.18904
8.18314
8.1776
8.17235
8.16734
8.16255
8.15797
8.15364
8.14958
8.1458
8.1423
8.13902
8.13591
8.13291
8.12998
8.12708
8.1242
8.12132
8.11844
8.11556
8.11267
8.10976
8.10683
8.10386
8.10087
8.09785
8.09481
8.09173
8.08864
8.08553
8.08241
8.07928
8.07613
8.07298
8.06983
8.06667
8.0635
8.06034
8.05717
8.054
8.05082
8.04765
8.04447
8.0413
8.03812
8.03494
8.03176
8.02858
8.0254
8.02222
8.01904
8.01585
8.01267
8.00948
8.00629
8.00311
7.99992
7.99673
7.99354
7.99034
7.98715
7.98396
7.98076
7.97757
7.97437
7.97117
7.96798
7.96478
7.96158
7.95837
7.95517
7.95197
7.94876
7.94556
7.94235
7.93915
7.93594
7.93273
7.92952
7.92631
7.92309
7.91988
7.91667
7.91345
7.91024
7.90702
7.9038
7.90058
7.89736
7.89414
7.89092
7.8877
7.88447
7.88125
7.87802
7.87479
7.87157
7.86834
7.86511
7.86188
7.85865
7.85541
7.85218
7.84894
7.84571
7.84247
7.83923
7.83599
7.83275
7.82951
7.82627
7.82303
7.81978
7.81654
7.81329
7.81004
7.8068
7.80355
7.8003
7.79704
7.79379
7.79054
7.78728
7.78403
7.78077
7.77752
7.77426
7.771
7.76774
7.76447
7.76121
7.75795
7.75468
7.75142
7.74815
7.74488
7.74161
7.73834
7.73507
7.7318
7.72853
7.72525
7.72198
7.7187
7.71542
7.71214
7.70886
7.70558
7.7023
7.69902
7.69573
7.69245
7.68916
7.68587
7.68258
7.67929
7.676
7.67271
7.66941
7.66612
7.66282
7.65952
7.65622
7.65292
7.64962
7.64631
7.64301
7.6397
7.63639
7.63308
7.62977
7.62646
7.62314
7.61982
7.6165
7.61318
7.60985
7.60652
7.60319
7.59986
7.59652
7.59319
7.58984
7.5865
7.58315
7.57979
7.57643
7.57307
7.5697
7.56633
7.56295
7.55957
7.55618
7.55278
7.54938
7.54597
7.54255
7.53913
7.53569
7.53225
7.52879
7.52533
7.52185
7.51836
7.51486
7.51135
7.50782
7.50428
7.50072
7.49715
7.49356
7.48995
7.48633
7.48268
7.47902
7.47533
7.47162
7.46789
7.46413
7.46035
7.45654
7.4527
7.44884
7.44495
7.44102
7.43707
7.43308
7.42906
7.42501
7.42092
7.4168
7.41264
7.40844
7.4042
7.39992
7.3956
7.39125
7.38685
7.3824
7.37792
7.37339
7.36881
7.3642
7.35953
7.35483
7.35007
7.34527
7.34043
7.33554
7.3306
7.32562
7.3206
7.31552
7.31041
7.30525
7.30004
7.29479
7.2895
7.28416
7.27879
7.27337
7.26792
7.26242
7.25689
7.25132
7.24572
7.24008
7.23441
7.2287
7.22297
7.2172
7.21141
7.20559
7.19975
7.19388
7.188
7.18209
7.17616
7.17021
7.16425
7.15827
7.15228
7.14628
7.14026
7.13424
7.12821
7.12218
7.11614
7.11009
7.10405
7.098
7.09195
7.08591
7.07986
7.07382
7.06779
7.06176
7.05574
7.04972
7.04371
7.03771
7.03173
7.02575
7.01978
7.01383
7.00788
7.00195
6.99604
6.99013
6.98424
6.97837
6.97251
6.96666
6.96083
6.95502
6.94922
6.94344
6.93767
6.93192
6.92618
6.92046
6.91475
6.90906
6.90339
6.89773
6.89209
6.88646
6.88085
6.87525
6.86967
6.8641
6.85854
6.85301
6.84748
6.84197
6.83647
6.83098
6.82551
6.82005
6.81461
6.80918
6.80375
6.79834
6.79295
6.78756
6.78219
6.77682
6.77147
6.76613
6.7608
6.75548
6.75016
6.74486
6.73957
6.73429
6.72902
6.72375
6.7185
6.71325
6.70801
6.70278
6.69756
6.69235
6.68714
6.68194
6.67675
6.67157
6.66639
6.66122
6.65606
6.6509
6.64575
6.64061
6.63547
6.63034
6.62522
6.6201
6.61499
6.60988
6.60478
6.59968
6.59459
6.58951
6.58443
6.57935
6.57428
6.56922
6.56416
6.5591
6.55405
6.54901
6.54397
6.53893
6.5339
6.52887
6.52385
6.51883
6.51381
6.5088
6.50379
6.49879
6.49379
6.48879
6.4838
6.47881
6.47382
6.46884
6.46386
6.45889
6.45392
6.44895
6.44398
6.43902
6.43406
6.4291
6.42415
6.4192
6.41425
6.40931
6.40437
6.39943
6.39449
6.38956
6.38463
6.3797
6.37477
6.36985
6.36493
6.36001
6.35509
6.35018
6.34527
6.34036
6.33545
6.33054
6.32564
6.32074
6.31584
6.31094
6.30605
6.30116
6.29626
6.29138
6.28649
6.2816
6.27672
6.27184
6.26696
6.26208
6.2572
6.25233
6.24745
6.24258
6.23771
6.23284
6.22797
6.22311
6.21824
6.21338
6.20852
6.20366
6.1988
6.19394
6.18908
6.18423
6.17937
6.17452
6.16967
6.16482
6.15997
6.15512
6.15027
6.14543
6.14058
6.13574
6.13089
6.12605
6.12121
6.11637
6.11153
6.10669
6.10185
6.09701
6.09218
6.08734
6.08251
6.07767
6.07284
6.06801
6.06318
6.05834
6.05351
6.04868
6.04385
6.03902
6.0342
6.02937
6.02454
6.01971
6.01489
6.01006
6.00524
6.00041
5.99559
5.99076
5.98594
5.98112
5.97629
5.97147
5.96665
5.96182
5.957
5.95218
5.94736
5.94254
5.93772
5.9329
5.92808
5.92326
5.91844
5.91362
5.9088
5.90398
5.89916
5.89434
5.88952
5.8847
5.87988
5.87506
5.87024
5.86542
5.8606
5.85578
5.85096
5.84614
5.84132
5.8365
5.83168
5.82686
5.82204
5.81722
5.8124
5.80758
5.80275
5.79793
5.79311
5.78829
5.78347
5.77865
5.77382
5.769
5.76418
5.75935
5.75453
5.74971
5.74488
5.74006
5.73523
5.73041
5.72558
5.72075
5.71593
5.7111
5.70627
5.70144
5.69661
5.69178
5.68696
5.68212
5.67729
5.67246
5.66763
5.6628
5.65797
5.65313
5.6483
5.64346
5.63863
5.63379
5.62896
5.62412
5.61928
5.61444
5.6096
5.60476
5.59992
5.59508
5.59024
5.5854
5.58055
5.57571
5.57086
5.56602
5.56117
5.55632
5.55147
5.54663
5.54178
5.53692
5.53207
5.52722
5.52237
5.51751
5.51266
5.5078
5.50294
5.49809
5.49323
5.48837
5.48351
5.47864
5.47378
5.46892
5.46405
5.45919
5.45432
5.44945
5.44458
5.43971
5.43484
5.42997
5.4251
5.42022
5.41535
5.41047
5.40559
5.40071
5.39583
5.39095
5.38607
5.38118
5.3763
5.37141
5.36653
5.36164
5.35675
5.35186
5.34696
5.34207
5.33718
5.33228
5.32738
5.32248
5.31758
5.31268
5.30778
5.30288
5.29797
5.29307
5.28816
5.28325
5.27834
5.27343
5.26851
5.2636
5.25868
5.25376
5.24884
5.24392
5.239
5.23408
5.22915
5.22422
5.2193
5.21437
5.20944
5.2045
5.19957
5.19463
5.1897
5.18476
5.17982
5.17487
5.16993
5.16498
5.16004
5.15509
5.15014
5.14519
5.14023
5.13528
5.13032
5.12536
5.1204
5.11544
5.11048
5.10551
5.10054
5.09558
5.0906
5.08563
5.08066
5.07568
5.0707
5.06572
5.06074
5.05576
5.05077
5.04579
5.0408
5.03581
5.03081
5.02582
5.02082
5.01583
5.01083
5.00582
5.00082
4.99581
4.99081
4.9858
4.98078
4.97577
4.97075
4.96574
4.96072
4.95569
4.95067
4.94564
4.94062
4.93559
4.93055
4.92552
4.92048
4.91544
4.9104
4.90536
4.90032
4.89527
4.89022
4.88517
4.88011
4.87506
4.87
4.86494
4.85988
4.85481
4.84975
4.84468
4.83961
4.83453
4.82946
4.82438
4.8193
4.81421
4.80913
4.80404
4.79895
4.79386
4.78877
4.78367
4.77857
4.77347
4.76836
4.76326
4.75815
4.75304
4.74792
4.74281
4.73769
4.73257
4.72744
4.72232
4.71719
4.71206
4.70692
4.70179
4.69665
4.6915
4.68636
4.68121
4.67607
4.67091
4.66576
4.6606
4.65544
4.65028
4.64512
4.63995
4.63478
4.62961
4.62444
4.61926
4.61408
4.6089
4.60372
4.59854
4.59334
4.59334
9.46663
9.46663
8.58238
8.34921
8.28071
8.25083
8.23325
8.22086
8.21114
8.20299
8.19584
8.18939
8.18343
8.17784
8.17255
8.16751
8.16269
8.1581
8.15374
8.14966
8.14587
8.14234
8.13905
8.13593
8.13293
8.12999
8.12708
8.1242
8.12132
8.11844
8.11556
8.11267
8.10976
8.10682
8.10386
8.10087
8.09785
8.0948
8.09173
8.08864
8.08553
8.08241
8.07928
8.07613
8.07298
8.06983
8.06667
8.0635
8.06034
8.05717
8.054
8.05082
8.04765
8.04447
8.0413
8.03812
8.03494
8.03176
8.02858
8.0254
8.02222
8.01904
8.01585
8.01267
8.00948
8.00629
8.00311
7.99992
7.99673
7.99354
7.99034
7.98715
7.98396
7.98076
7.97757
7.97437
7.97117
7.96798
7.96478
7.96158
7.95837
7.95517
7.95197
7.94876
7.94556
7.94235
7.93915
7.93594
7.93273
7.92952
7.92631
7.92309
7.91988
7.91667
7.91345
7.91024
7.90702
7.9038
7.90058
7.89736
7.89414
7.89092
7.8877
7.88447
7.88125
7.87802
7.87479
7.87157
7.86834
7.86511
7.86188
7.85865
7.85541
7.85218
7.84894
7.84571
7.84247
7.83923
7.83599
7.83275
7.82951
7.82627
7.82303
7.81978
7.81654
7.81329
7.81004
7.8068