# vtk DataFile Version 2.0
FlowField
ASCII
DATASET STRUCTURED_GRID
DIMENSIONS 800 1 200
POINTS 160000 float
0 0 0
0.04 0 0
0.08 0 0
0.12 0 0
0.16 0 0
0.2 0 0
0.24 0 0
0.28 0 0
0.32 0 0
0.36 0 0
0.4 0 0
0.44 0 0
0.48 0 0
0.52 0 0
0.56 0 0
0.6 0 0
0.64 0 0
0.68 0 0
0.72 0 0
0.76 0 0
0.8 0 0
0.84 0 0
0.88 0 0
0.92 0 0
0.96 0 0
1 0 0
1.04 0 0
1.08 0 0
1.12 0 0
1.16 0 0
1.2 0 0
1.24 0 0
1.28 0 0
1.32 0 0
1.36 0 0
1.4 0 0
1.44 0 0
1.48 0 0
1.52 0 0
1.56 0 0
1.6 0 0
1.64 0 0
1.68 0 0
1.72 0 0
1.76 0 0
1.8 0 0
1.84 0 0
1.88 0 0
1.92 0 0
1.96 0 0
2 0 0
2.04 0 0
2.08 0 0
2.12 0 0
2.16 0 0
2.2 0 0
2.24 0 0
2.28 0 0
2.32 0 0
2.36 0 0
2.4 0 0
2.44 0 0
2.48 0 0
2.52 0 0
2.56 0 0
2.6 0 0
2.64 0 0
2.68 0 0
2.72 0 0
2.76 0 0
2.8 0 0
2.84 0 0
2.88 0 0
2.92 0 0
2.96 0 0
3 0 0
3.04 0 0
3.08 0 0
3.12 0 0
3.16 0 0
3.2 0 0
3.24 0 0
3.28 0 0
3.32 0 0
3.36 0 0
3.4 0 0
3.44 0 0
3.48 0 0
3.52 0 0
3.56 0 0
3.6 0 0
3.64 0 0
3.68 0 0
3.72 0 0
3.76 0 0
3.8 0 0
3.84 0 0
3.88 0 0
3.92 0 0
3.96 0 0
4 0 0
4.04 0 0
4.08 0 0
4.12 0 0
4.16 0 0
4.2 0 0
4.24 0 0
4.28 0 0
4.32 0 0
4.36 0 0
4.4 0 0
4.44 0 0
4.48 0 0
4.52 0 0
4.56 0 0
4.6 0 0
4.64 0 0
4.68 0 0
4.72 0 0
4.76 0 0
4.8 0 0
4.84 0 0
4.88 0 0
4.92 0 0
4.96 0 0
5 0 0
5.04 0 0
5.08 0 0
5.12 0 0
5.16 0 0
5.2 0 0
5.24 0 0
5.28 0 0
5.32 0 0
5.36 0 0
5.4 0 0
5.44 0 0
5.48 0 0
5.52 0 0
5.56 0 0
5.6 0 0
5.64 0 0
5.68 0 0
5.72 0 0
5.76 0 0
5.8 0 0
5.84 0 0
5.88 0 0
5.92 0 0
5.96 0 0
6 0 0
6.04 0 0
6.08 0 0
6.12 0 0
6.16 0 0
6.2 0 0
6.24 0 0
6.28 0 0
6.32 0 0
6.36 0 0
6.4 0 0
6.44 0 0
6.48 0 0
6.52 0 0
6.56 0 0
6.6 0 0
6.64 0 0
6.68 0 0
6.72 0 0
6.76 0 0
6.8 0 0
6.84 0 0
6.88 0 0
6.92 0 0
6.96 0 0
7 0 0
7.04 0 0
7.08 0 0
7.12 0 0
7.16 0 0
7.2 0 0
7.24 0 0
7.28 0 0
7.32 0 0
7.36 0 0
7.4 0 0
7.44 0 0
7.48 0 0
7.52 0 0
7.56 0 0
7.6 0 0
7.64 0 0
7.68 0 0
7.72 0 0
7.76 0 0
7.8 0 0
7.84 0 0
7.88 0 0
7.92 0 0
7.96 0 0
8 0 0
8.04 0 0
8.08 0 0
8.12 0 0
8.16 0 0
8.2 0 0
8.24 0 0
8.28 0 0
8.32 0 0
8.36 0 0
8.4 0 0
8.44 0 0
8.48 0 0
8.52 0 0
8.56 0 0
8.6 0 0
8.64 0 0
8.68 0 0
8.72 0 0
8.76 0 0
8.8 0 0
8.84 0 0
8.88 0 0
8.92 0 0
8.96 0 0
9 0 0
9.04 0 0
9.08 0 0
9.12 0 0
9.16 0 0
9.2 0 0
9.24 0 0
9.28 0 0
9.32 0 0
9.36 0 0
9.4 0 0
9.44 0 0
9.48 0 0
9.52 0 0
9.56 0 0
9.6 0 0
9.64 0 0
9.68 0 0
9.72 0 0
9.76 0 0
9.8 0 0
9.84 0 0
9.88 0 0
9.92 0 0
9.96 0 0
10 0 0
10.04 0 0
10.08 0 0
10.12 0 0
10.16 0 0
10.2 0 0
10.24 0 0
10.28 0 0
10.32 0 0
10.36 0 0
10.4 0 0
10.44 0 0
10.48 0 0
10.52 0 0
10.56 0 0
10.6 0 0
10.64 0 0
10.68 0 0
10.72 0 0
10.76 0 0
10.8 0 0
10.84 0 0
10.88 0 0
10.92 0 0
10.96 0 0
11 0 0
11.04 0 0
11.08 0 0
11.12 0 0
11.16 0 0
11.2 0 0
11.24 0 0
11.28 0 0
11.32 0 0
11.36 0 0
11.4 0 0
11.44 0 0
11.48 0 0
11.52 0 0
11.56 0 0
11.6 0 0
11.64 0 0
11.68 0 0
11.72 0 0
11.76 0 0
11.8 0 0
11.84 0 0
11.88 0 0
11.92 0 0
11.96 0 0
12 0 0
12.04 0 0
12.08 0 0
12.12 0 0
12.16 0 0
12.2 0 0
12.24 0 0
12.28 0 0
12.32 0 0
12.36 0 0
12.4 0 0
12.44 0 0
12.48 0 0
12.52 0 0
12.56 0 0
12.6 0 0
12.64 0 0
12.68 0 0
12.72 0 0
12.76 0 0
12.8 0 0
12.84 0 0
12.88 0 0
12.92 0 0
12.96 0 0
13 0 0
13.04 0 0
13.08 0 0
13.12 0 0
13.16 0 0
13.2 0 0
13.24 0 0
13.28 0 0
13.32 0 0
13.36 0 0
13.4 0 0
13.44 0 0
13.48 0 0
13.52 0 0
13.56 0 0
13.6 0 0
13.64 0 0
13.68 0 0
13.72 0 0
13.76 0 0
13.8 0 0
13.84 0 0
13.88 0 0
13.92 0 0
13.96 0 0
14 0 0
14.04 0 0
14.08 0 0
14.12 0 0
14.16 0 0
14.2 0 0
14.24 0 0
14.28 0 0
14.32 0 0
14.36 0 0
14.4 0 0
14.44 0 0
14.48 0 0
14.52 0 0
14.56 0 0
14.6 0 0
14.64 0 0
14.68 0 0
14.72 0 0
14.76 0 0
14.8 0 0
14.84 0 0
14.88 0 0
14.92 0 0
14.96 0 0
15 0 0
15.04 0 0
15.08 0 0
15.12 0 0
15.16 0 0
15.2 0 0
15.24 0 0
15.28 0 0
15.32 0 0
15.36 0 0
15.4 0 0
15.44 0 0
15.48 0 0
15.52 0 0
15.56 0 0
15.6 0 0
15.64 0 0
15.68 0 0
15.72 0 0
15.76 0 0
15.8 0 0
15.84 0 0
15.88 0 0
15.92 0 0
15.96 0 0
16 0 0
16.04 0 0
16.08 0 0
16.12 0 0
16.16 0 0
16.2 0 0
16.24 0 0
16.28 0 0
16.32 0 0
16.36 0 0
16.4 0 0
16.44 0 0
16.48 0 0
16.52 0 0
16.56 0 0
16.6 0 0
16.64 0 0
16.68 0 0
16.72 0 0
16.76 0 0
16.8 0 0
16.84 0 0
16.88 0 0
16.92 0 0
16.96 0 0
17 0 0
17.04 0 0
17.08 0 0
17.12 0 0
17.16 0 0
17.2 0 0
17.24 0 0
17.28 0 0
17.32 0 0
17.36 0 0
17.4 0 0
17.44 0 0
17.48 0 0
17.52 0 0
17.56 0 0
17.6 0 0
17.64 0 0
17.68 0 0
17.72 0 0
17.76 0 0
17.8 0 0
17.84 0 0
17.88 0 0
17.92 0 0
17.96 0 0
18 0 0
18.04 0 0
18.08 0 0
18.12 0 0
18.16 0 0
18.2 0 0
18.24 0 0
18.28 0 0
18.32 0 0
18.36 0 0
18.4 0 0
18.44 0 0
18.48 0 0
18.52 0 0
18.56 0 0
18.6 0 0
18.64 0 0
18.68 0 0
18.72 0 0
18.76 0 0
18.8 0 0
18.84 0 0
18.88 0 0
18.92 0 0
18.96 0 0
19 0 0
19.04 0 0
19.08 0 0
19.12 0 0
19.16 0 0
19.2 0 0
19.24 0 0
19.28 0 0
19.32 0 0
19.36 0 0
19.4 0 0
19.44 0 0
19.48 0 0
19.52 0 0
19.56 0 0
19.6 0 0
19.64 0 0
19.68 0 0
19.72 0 0
19.76 0 0
19.8 0 0
19.84 0 0
19.88 0 0
19.92 0 0
19.96 0 0
20 0 0
20.04 0 0
20.08 0 0
20.12 0 0
20.16 0 0
20.2 0 0
20.24 0 0
20.28 0 0
20.32 0 0
20.36 0 0
20.4 0 0
20.44 0 0
20.48 0 0
20.52 0 0
20.56 0 0
20.6 0 0
20.64 0 0
20.68 0 0
20.72 0 0
20.76 0 0
20.8 0 0
20.84 0 0
20.88 0 0
20.92 0 0
20.96 0 0
21 0 0
21.04 0 0
21.08 0 0
21.12 0 0
21.16 0 0
21.2 0 0
21.24 0 0
21.28 0 0
21.32 0 0
21.36 0 0
21.4 0 0
21.44 0 0
21.48 0 0
21.52 0 0
21.56 0 0
21.6 0 0
21.64 0 0
21.68 0 0
21.72 0 0
21.76 0 0
21.8 0 0
21.84 0 0
21.88 0 0
21.92 0 0
21.96 0 0
22 0 0
22.04 0 0
22.08 0 0
22.12 0 0
22.16 0 0
22.2 0 0
22.24 0 0
22.28 0 0
22.32 0 0
22.36 0 0
22.4 0 0
22.44 0 0
22.48 0 0
22.52 0 0
22.56 0 0
22.6 0 0
22.64 0 0
22.68 0 0
22.72 0 0
22.76 0 0
22.8 0 0
22.84 0 0
22.88 0 0
22.92 0 0
22.96 0 0
23 0 0
23.04 0 0
23.08 0 0
23.12 0 0
23.16 0 0
23.2 0 0
23.24 0 0
23.28 0 0
23.32 0 0
23.36 0 0
23.4 0 0
23.44 0 0
23.48 0 0
23.52 0 0
23.56 0 0
23.6 0 0
23.64 0 0
23.68 0 0
23.72 0 0
23.76 0 0
23.8 0 0
23.84 0 0
23.88 0 0
23.92 0 0
23.96 0 0
24 0 0
24.04 0 0
24.08 0 0
24.12 0 0
24.16 0 0
24.2 0 0
24.24 0 0
24.28 0 0
24.32 0 0
24.36 0 0
24.4 0 0
24.44 0 0
24.48 0 0
24.52 0 0
24.56 0 0
24.6 0 0
24.64 0 0
24.68 0 0
24.72 0 0
24.76 0 0
24.8 0 0
24.84 0 0
24.88 0 0
24.92 0 0
24.96 0 0
25 0 0
25.04 0 0
25.08 0 0
25.12 0 0
25.16 0 0
25.2 0 0
25.24 0 0
25.28 0 0
25.32 0 0
25.36 0 0
25.4 0 0
25.44 0 0
25.48 0 0
25.52 0 0
25.56 0 0
25.6 0 0
25.64 0 0
25.68 0 0
25.72 0 0
25.76 0 0
25.8 0 0
25.84 0 0
25.88 0 0
25.92 0 0
25.96 0 0
26 0 0
26.04 0 0
26.08 0 0
26.12 0 0
26.16 0 0
26.2 0 0
26.24 0 0
26.28 0 0
26.32 0 0
26.36 0 0
26.4 0 0
26.44 0 0
26.48 0 0
26.52 0 0
26.56 0 0
26.6 0 0
26.64 0 0
26.68 0 0
26.72 0 0
26.76 0 0
26.8 0 0
26.84 0 0
26.88 0 0
26.92 0 0
26.96 0 0
27 0 0
27.04 0 0
27.08 0 0
27.12 0 0
27.16 0 0
27.2 0 0
27.24 0 0
27.28 0 0
27.32 0 0
27.36 0 0
27.4 0 0
27.44 0 0
27.48 0 0
27.52 0 0
27.56 0 0
27.6 0 0
27.64 0 0
27.68 0 0
27.72 0 0
27.76 0 0
27.8 0 0
27.84 0 0
27.88 0 0
27.92 0 0
27.96 0 0
28 0 0
28.04 0 0
28.08 0 0
28.12 0 0
28.16 0 0
28.2 0 0
28.24 0 0
28.28 0 0
28.32 0 0
28.36 0 0
28.4 0 0
28.44 0 0
28.48 0 0
28.52 0 0
28.56 0 0
28.6 0 0
28.64 0 0
28.68 0 0
28.72 0 0
28.76 0 0
28.8 0 0
28.84 0 0
28.88 0 0
28.92 0 0
28.96 0 0
29 0 0
29.04 0 0
29.08 0 0
29.12 0 0
29.16 0 0
29.2 0 0
29.24 0 0
29.28 0 0
29.32 0 0
29.36 0 0
29.4 0 0
29.44 0 0
29.48 0 0
29.52 0 0
29.56 0 0
29.6 0 0
29.64 0 0
29.68 0 0
29.72 0 0
29.76 0 0
29.8 0 0
29.84 0 0
29.88 0 0
29.92 0 0
29.96 0 0
30 0 0
30.04 0 0
30.08 0 0
30.12 0 0
30.16 0 0
30.2 0 0
30.24 0 0
30.28 0 0
30.32 0 0
30.36 0 0
30.4 0 0
30.44 0 0
30.48 0 0
30.52 0 0
30.56 0 0
30.6 0 0
30.64 0 0
30.68 0 0
30.72 0 0
30.76 0 0
30.8 0 0
30.84 0 0
30.88 0 0
30.92 0 0
30.96 0 0
31 0 0
31.04 0 0
31.08 0 0
31.12 0 0
31.16 0 0
31.2 0 0
31.24 0 0
31.28 0 0
31.32 0 0
31.36 0 0
31.4 0 0
31.44 0 0
31.48 0 0
31.52 0 0
31.56 0 0
31.6 0 0
31.64 0 0
31.68 0 0
31.72 0 0
31.76 0 0
31.8 0 0
31.84 0 0
31.88 0 0
31.92 0 0
31.96 0 0
0 0.005 0
0.04 0.005 0
0.08 0.005 0
0.12 0.005 0
0.16 0.005 0
0.2 0.005 0
0.24 0.005 0
0.28 0.005 0
0.32 0.005 0
0.36 0.005 0
0.4 0.005 0
0.44 0.005 0
0.48 0.005 0
0.52 0.005 0
0.56 0.005 0
0.6 0.005 0
0.64 0.005 0
0.68 0.005 0
0.72 0.005 0
0.76 0.005 0
0.8 0.005 0
0.84 0.005 0
0.88 0.005 0
0.92 0.005 0
0.96 0.005 0
1 0.005 0
1.04 0.005 0
1.08 0.005 0
1.12 0.005 0
1.16 0.005 0
1.2 0.005 0
1.24 0.005 0
1.28 0.005 0
1.32 0.005 0
1.36 0.005 0
1.4 0.005 0
1.44 0.005 0
1.48 0.005 0
1.52 0.005 0
1.56 0.005 0
1.6 0.005 0
1.64 0.005 0
1.68 0.005 0
1.72 0.005 0
1.76 0.005 0
1.8 0.005 0
1.84 0.005 0
1.88 0.005 0
1.92 0.005 0
1.96 0.005 0
2 0.005 0
2.04 0.005 0
2.08 0.005 0
2.12 0.005 0
2.16 0.005 0
2.2 0.005 0
2.24 0.005 0
2.28 0.005 0
2.32 0.005 0
2.36 0.005 0
2.4 0.005 0
2.44 0.005 0
2.48 0.005 0
2.52 0.005 0
2.56 0.005 0
2.6 0.005 0
2.64 0.005 0
2.68 0.005 0
2.72 0.005 0
2.76 0.005 0
2.8 0.005 0
2.84 0.005 0
2.88 0.005 0
2.92 0.005 0
2.96 0.005 0
3 0.005 0
3.04 0.005 0
3.08 0.005 0
3.12 0.005 0
3.16 0.005 0
3.2 0.005 0
3.24 0.005 0
3.28 0.005 0
3.32 0.005 0
3.36 0.005 0
3.4 0.005 0
3.44 0.005 0
3.48 0.005 0
3.52 0.005 0
3.56 0.005 0
3.6 0.005 0
3.64 0.005 0
3.68 0.005 0
3.72 0.005 0
3.76 0.005 0
3.8 0.005 0
3.84 0.005 0
3.88 0.005 0
3.92 0.005 0
3.96 0.005 0
4 0.005 0
4.04 0.005 0
4.08 0.005 0
4.12 0.005 0
4.16 0.005 0
4.2 0.005 0
4.24 0.005 0
4.28 0.005 0
4.32 0.005 0
4.36 0.005 0
4.4 0.005 0
4.44 0.005 0
4.48 0.005 0
4.52 0.005 0
4.56 0.005 0
4.6 0.005 0
4.64 0.005 0
4.68 0.005 0
4.72 0.005 0
4.76 0.005 0
4.8 0.005 0
4.84 0.005 0
4.88 0.005 0
4.92 0.005 0
4.96 0.005 0
5 0.005 0
5.04 0.005 0
5.08 0.005 0
5.12 0.005 0
5.16 0.005 0
5.2 0.005 0
5.24 0.005 0
5.28 0.005 0
5.32 0.005 0
5.36 0.005 0
5.4 0.005 0
5.44 0.005 0
5.48 0.005 0
5.52 0.005 0
5.56 0.005 0
5.6 0.005 0
5.64 0.005 0
5.68 0.005 0
5.72 0.005 0
5.76 0.005 0
5.8 0.005 0
5.84 0.005 0
5.88 0.005 0
5.92 0.005 0
5.96 0.005 0
6 0.005 0
6.04 0.005 0
6.08 0.005 0
6.12 0.005 0
6.16 0.005 0
6.2 0.005 0
6.24 0.005 0
6.28 0.005 0
6.32 0.005 0
6.36 0.005 0
6.4 0.005 0
6.44 0.005 0
6.48 0.005 0
6.52 0.005 0
6.56 0.005 0
6.6 0.005 0
6.64 0.005 0
6.68 0.005 0
6.72 0.005 0
6.76 0.005 0
6.8 0.005 0
6.84 0.005 0
6.88 0.005 0
6.92 0.005 0
6.96 0.005 0
7 0.005 0
7.04 0.005 0
7.08 0.005 0
7.12 0.005 0
7.16 0.005 0
7.2 0.005 0
7.24 0.005 0
7.28 0.005 0
7.32 0.005 0
7.36 0.005 0
7.4 0.005 0
[...]
POINT_DATA 160000

SCALARS v float 1
LOOKUP_TABLE default
0
0
0
0
0
0
0
0
0
0
0
0
0
0
0
0
0
0
0
0
0
0
0
0
0
0
0
0
0
0
0
0
0
0
0
0
0
0
0
0
0
0
0
0
0
0
0
0
0
0
0
0
0
0
0
0
0
0
0
0
0
0
0
0
0
0
0
0
0
0
0
0
0
0
0
0
0
0
0
0
0
0
0
0
0
0
0
0
0
0
0
0
0
0
0
0
0
0
0
0
0
0
0
0
0
0
0
0
0
0
0
0
0
0
0
0
0
0
0
0
0
0
0
0
0
0
0
0
0
0
0
0
0
0
0
0
0
0
0
0
0
0
0
0
0
0
0
0
0
0
0
0
0
0
0
0
0
0
0
0
0
0
0
0
0
0
0
0
0
0
0
0
0
0
0
0
0
0
0
0
0
0
0
0
0
0
0
0
0
0
0
0
0
0
0
0
0
0
0
0
0
0
0
0
0
0
0
0
0
0
0
0
0
0
0
0
0
0
0
0
0
0
0
0
0
0
0
0
0
0
0
0
0
0
0
0
0
0
0
0
0
0
0
0
0
0
0
0
0
0
0
0
0
0
0
0
0
0
0
0
0
0
0
0
0
0
0
0
0
0
0
0
0
0
0
0
0
0
0
0
0
0
0
0
0
0
0
0
0
0
0
0
0
0
0
0
0
0
0
0
0
0
0
0
0
0
0
0
0
0
0
0
0
0
0
0
0
0
0
0
0
0
0
0
0
0
0
0
0
0
0
0
0
0
0
0
0
0
0
0
0
0
0
0
0
0
0
0
0
0
0
0
0
0
0
0
0
0
0
0
0
0
0
0
0
0
0
0
0
0
0
0
0
0
0
0
0
0
0
0
0
0
0
0
0
0
0
0
0
0
0
0
0
0
0
0
0
0
0
0
0
0
0
0
0
0
0
0
0
0
0
0
0
0
0
0
0
0
0
0
0
0
0
0
0
0
0
0
0
0
0
0
0
0
0
0
0
0
0
0
0
0
0
0
0
0
0
0
0
0
0
0
0
0
0
0
0
0
0
0
0
0
0
0
0
0
0
0
0
0
0
0
0
0
0
0
0
0
0
0
0
0
0
0
0
0
0
0
0
0
0
0
0
0
0
0
0
0
0
0
0
0
0
0
0
0
0
0
0
0
0
0
0
0
0
0
0
0
0
0
0
0
0
0
0
0
0
0
0
0
0
0
0
0
0
0
0
0
0
0
0
0
0
0
0
0
0
0
0
0
0
0
0
0
0
0
0
0
0
0
0
0
0
0
0
0
0
0
0
0
0
0
0
0
0
0
0
0
0
0
0
0
0
0
0
0
0
0
0
0
0
0
0
0
0
0
0
0
0
0
0
0
0
0
0
0
0
0
0
0
0
0
0
0
0
0
0
0
0
0
0
0
0
0
0
0
0
0
0
0
0
0
0
0
0
0
0
0
0
0
0
0
0
0
0
0
0
0
0
0
0
0
0
0
0
0
0
0
0
0
0
0
0
0
0
0
0
0
0
0
0
0
0
0
0
0
0
0
0
0
0
0
0
0
0
0
0
0
0
0
0
0
0
0
0
0
0
0
0
0
0
0
0
0
0
0
0
0
0
0
0
0
0
0
0
0
0
0
0
0
0
0
0
0
0
0
0
0
0
0
0
0
0
0
0
0
0
0
0
0
0
0
0
0
0
0
0
0
0
0
0
0
0
0
0
0
0
0
0
0
0
0
0
0
0
0
0
0
0
0
0
0
0
0
0
0
0
0
0
0
0
0
0
0
0
0
0
0
0
0
0
0
0
0
0
0
0
0
0
0
0
0
0.0374148
0.00938029
0.00346714
0.00176553
0.00108005
0.000736285
0.000537506
0.00041096
0.00032476
0.000263071
0.000217249
0.000182218
0.000154816
0.000132979
0.000115306
0.000100814
8.87951e-05
7.87269e-05
7.02167e-05
6.29645e-05
5.67374e-05
5.1353e-05
4.66663e-05
4.25614e-05
3.89448e-05
3.57406e-05
3.28865e-05
3.03314e-05
2.80331e-05
2.59564e-05
2.40718e-05
2.23548e-05
2.07844e-05
1.93431e-05
1.80159e-05
1.679e-05
1.56544e-05
1.45996e-05
1.36173e-05
1.27005e-05
1.18429e-05
1.10392e-05
1.02844e-05
9.57432e-06
8.90527e-06
8.27387e-06
7.67714e-06
7.11241e-06
6.57728e-06
6.06958e-06
5.58736e-06
5.12883e-06
4.6924e-06
4.27659e-06
3.88004e-06
3.50154e-06
3.13995e-06
2.79424e-06
2.46345e-06
2.1467e-06
1.84318e-06
1.55212e-06
1.27282e-06
1.00464e-06
7.4698e-07
4.99264e-07
2.60969e-07
3.1606e-08
-1.89281e-07
-4.02122e-07
-6.07318e-07
-8.05247e-07
-9.96259e-07
-1.18068e-06
-1.35884e-06
-1.53101e-06
-1.69749e-06
-1.85852e-06
-2.01435e-06
-2.16521e-06
-2.31134e-06
-2.45292e-06
-2.59015e-06
-2.72324e-06
-2.85234e-06
-2.97763e-06
-3.09927e-06
-3.2174e-06
-3.33217e-06
-3.44372e-06
-3.55217e-06
-3.65766e-06
-3.76029e-06
-3.86019e-06
-3.95745e-06
-4.0522e-06
-4.14452e-06
-4.23451e-06
-4.32227e-06
-4.40788e-06
-4.49144e-06
-4.57301e-06
-4.65269e-06
-4.73055e-06
-4.80667e-06
-4.88112e-06
-4.95398e-06
-5.02531e-06
-5.0952e-06
-5.16371e-06
-5.23091e-06
-5.29688e-06
-5.3617e-06
-5.42543e-06
-5.48817e-06
-5.55e-06
-5.611e-06
-5.67126e-06
-5.73089e-06
-5.78999e-06
-5.84865e-06
-5.90698e-06
-5.96509e-06
-6.02309e-06
-6.08108e-06
-6.13914e-06
-6.19739e-06
-6.25589e-06
-6.31471e-06
-6.37391e-06
-6.43351e-06
-6.49354e-06
-6.55399e-06
-6.61484e-06
-6.67604e-06
-6.73754e-06
-6.79925e-06
-6.86107e-06
-6.92291e-06
-6.98464e-06
-7.04613e-06
-7.10727e-06
-7.16792e-06
-7.22796e-06
-7.28727e-06
-7.34574e-06
-7.40326e-06
-7.45976e-06
-7.51515e-06
-7.56937e-06
-7.62239e-06
-7.67415e-06
-7.72466e-06
-7.77389e-06
-7.82187e-06
-7.86858e-06
-7.91408e-06
-7.95838e-06
-8.00153e-06
-8.04357e-06
-8.08452e-06
-8.12445e-06
-8.16338e-06
-8.20135e-06
-8.23841e-06
-8.27457e-06
-8.30988e-06
-8.34437e-06
-8.37805e-06
-8.41095e-06
-8.44308e-06
-8.47447e-06
-8.50513e-06
-8.53507e-06
-8.56431e-06
-8.59287e-06
-8.62075e-06
-8.64798e-06
-8.67456e-06
-8.70048e-06
-8.72575e-06
-8.75037e-06
-8.77433e-06
-8.79766e-06
-8.82034e-06
-8.8424e-06
-8.86387e-06
-8.88475e-06
-8.90507e-06
-8.92483e-06
-8.94403e-06
-8.96266e-06
-8.98068e-06
-8.99808e-06
-9.01482e-06
-9.0309e-06
-9.04633e-06
-9.06115e-06
-9.07543e-06
-9.08926e-06
-9.10278e-06
-9.11612e-06
-9.1294e-06
-9.14276e-06
-9.15628e-06
-9.17001e-06
-9.18395e-06
-9.19806e-06
-9.21225e-06
-9.22639e-06
-9.24032e-06
-9.25386e-06
-9.26685e-06
-9.27912e-06
-9.29053e-06
-9.30097e-06
-9.31037e-06
-9.3187e-06
-9.32596e-06
-9.33219e-06
-9.33744e-06
-9.3418e-06
-9.34536e-06
-9.34823e-06
-9.35051e-06
-9.35231e-06
-9.35371e-06
-9.3548e-06
-9.35564e-06
-9.35631e-06
-9.35685e-06
-9.35729e-06
-9.35766e-06
-9.35799e-06
-9.3583e-06
-9.35859e-06
-9.35887e-06
-9.35914e-06
-9.35941e-06
-9.35968e-06
-9.35995e-06
-9.36022e-06
-9.36049e-06
-9.36076e-06
-9.36104e-06
-9.36131e-06
-9.36159e-06
-9.36186e-06
-9.36214e-06
-9.36242e-06
-9.3627e-06
-9.36298e-06
-9.36326e-06
-9.36354e-06
-9.36382e-06
-9.3641e-06
-9.36438e-06
-9.36467e-06
-9.36495e-06
-9.36524e-06
-9.36552e-06
-9.3658e-06
-9.36608e-06
-9.36637e-06
-9.36665e-06
-9.36693e-06
-9.36721e-06
-9.3675e-06
-9.36778e-06
-9.36807e-06
-9.36835e-06
-9.36863e-06
-9.36892e-06
-9.3692e-06
-9.36948e-06
-9.36977e-06
-9.37005e-06
-9.37033e-06
-9.37062e-06
-9.3709e-06
-9.37119e-06
-9.37147e-06
-9.37175e-06
-9.37204e-06
-9.37232e-06
-9.3726e-06
-9.37289e-06
-9.37317e-06
-9.37346e-06
-9.37374e-06
-9.37403e-06
-9.37431e-06
-9.37459e-06
-9.37488e-06
-9.37516e-06
-9.37545e-06
-9.37574e-06
-9.37602e-06
-9.3763e-06
-9.37659e-06
-9.37687e-06
-9.37716e-06
-9.37744e-06
-9.37773e-06
-9.37802e-06
-9.3783e-06
-9.37858e-06
-9.37887e-06
-9.37916e-06
-9.37944e-06
-9.37972e-06
-9.38001e-06
-9.3803e-06
-9.38058e-06
-9.38087e-06
-9.38115e-06
-9.38144e-06
-9.38172e-06
-9.38201e-06
-9.3823e-06
-9.38258e-06
-9.38287e-06
-9.38315e-06
-9.38344e-06
-9.38373e-06
-9.38401e-06
-9.3843e-06
-9.38458e-06
-9.38487e-06
-9.38516e-06
-9.38544e-06
-9.38573e-06
-9.38602e-06
-9.3863e-06
-9.38659e-06
-9.38687e-06
-9.38716e-06
-9.38745e-06
-9.38773e-06
-9.38802e-06
-9.3883e-06
-9.38859e-06
-9.38888e-06
-9.38916e-06
-9.38945e-06
-9.38974e-06
-9.39002e-06
-9.39031e-06
-9.3906e-06
-9.39088e-06
-9.39117e-06
-9.39146e-06
-9.39174e-06
-9.39203e-06
-9.39232e-06
-9.3926e-06
-9.39289e-06
-9.39318e-06
-9.39346e-06
-9.39375e-06
-9.39404e-06
-9.39432e-06
-9.39461e-06
-9.39489e-06
-9.39518e-06
-9.39547e-06
-9.39576e-06
-9.39604e-06
-9.39633e-06
-9.39662e-06
-9.3969e-06
-9.39719e-06
-9.39748e-06
-9.39776e-06
-9.39805e-06
-9.39834e-06
-9.39862e-06
-9.39891e-06
-9.3992e-06
-9.39948e-06
-9.39977e-06
-9.40006e-06
-9.40034e-06
-9.40063e-06
-9.40092e-06
-9.4012e-06
-9.40149e-06
-9.40178e-06
-9.40207e-06
-9.40235e-06
-9.40264e-06
-9.40292e-06
-9.40321e-06
-9.4035e-06
-9.40378e-06
-9.40407e-06
-9.40436e-06
-9.40465e-06
-9.40493e-06
-9.40522e-06
-9.4055e-06
-9.40579e-06
-9.40608e-06
-9.40636e-06
-9.40665e-06
-9.40694e-06
-9.40722e-06
-9.40751e-06
-9.4078e-06
-9.40808e-06
-9.40837e-06
-9.40866e-06
-9.40895e-06
-9.40923e-06
-9.40952e-06
-9.4098e-06
-9.41009e-06
-9.41037e-06
-9.41066e-06
-9.41095e-06
-9.41124e-06
-9.41152e-06
-9.41181e-06
-9.4121e-06
-9.41238e-06
-9.41267e-06
-9.41296e-06
-9.41324e-06
-9.41353e-06
-9.41381e-06
-9.4141e-06
-9.41439e-06
-9.41467e-06
-9.41496e-06
-9.41524e-06
-9.41553e-06
-9.41582e-06
-9.41611e-06
-9.41639e-06
-9.41668e-06
-9.41696e-06
-9.41725e-06
-9.41754e-06
-9.41783e-06
-9.41811e-06
-9.4184e-06
-9.41868e-06
-9.41897e-06
-9.41926e-06
-9.41954e-06
-9.41983e-06
-9.42012e-06
-9.42041e-06
-9.42069e-06
-9.42098e-06
-9.42126e-06
-9.42155e-06
-9.42184e-06
-9.42212e-06
-9.42241e-06
-9.4227e-06
-9.42298e-06
-9.42327e-06
-9.42356e-06
-9.42384e-06
-9.42413e-06
-9.42441e-06
-9.4247e-06
-9.42499e-06
-9.42527e-06
-9.42556e-06
-9.42585e-06
-9.42614e-06
-9.42643e-06
-9.42671e-06
-9.427e-06
-9.42728e-06
-9.42757e-06
-9.42786e-06
-9.42814e-06
-9.42843e-06
-9.42872e-06
-9.429e-06
-9.42929e-06
-9.42958e-06
-9.42986e-06
-9.43015e-06
-9.43044e-06
-9.43072e-06
-9.43101e-06
-9.4313e-06
-9.43159e-06
-9.43187e-06
-9.43216e-06
-9.43245e-06
-9.43273e-06
-9.43302e-06
-9.43331e-06
-9.4336e-06
-9.43388e-06
-9.43417e-06
-9.43446e-06
-9.43474e-06
-9.43503e-06
-9.43532e-06
-9.43561e-06
-9.43589e-06
-9.43618e-06
-9.43647e-06
-9.43675e-06
-9.43704e-06
-9.43733e-06
-9.43762e-06
-9.43791e-06
-9.43819e-06
-9.43848e-06
-9.43877e-06
-9.43905e-06
-9.43934e-06
-9.43963e-06
-9.43992e-06
-9.44021e-06
-9.44049e-06
-9.44078e-06
-9.44107e-06
-9.44136e-06
-9.44165e-06
-9.44193e-06
-9.44222e-06
-9.44251e-06
-9.4428e-06
-9.44308e-06
-9.44337e-06
-9.44366e-06
-9.44395e-06
-9.44424e-06
-9.44452e-06
-9.44482e-06
-9.44511e-06
-9.44539e-06
-9.44568e-06
-9.44597e-06
-9.44626e-06
-9.44654e-06
-9.44683e-06
-9.44712e-06
-9.44741e-06
-9.4477e-06
-9.44799e-06
-9.44828e-06
-9.44856e-06
-9.44885e-06
-9.44914e-06
-9.44943e-06
-9.44972e-06
-9.45001e-06
-9.4503e-06
-9.45059e-06
-9.45088e-06
-9.45116e-06
-9.45145e-06
-9.45174e-06
-9.45203e-06
-9.45232e-06
-9.45261e-06
-9.4529e-06
-9.45319e-06
-9.45348e-06
-9.45377e-06
-9.45406e-06
-9.45435e-06
-9.45464e-06
-9.45493e-06
-9.45522e-06
-9.4555e-06
-9.4558e-06
-9.45608e-06
-9.45637e-06
-9.45666e-06
-9.45696e-06
-9.45724e-06
-9.45753e-06
-9.45782e-06
-9.45811e-06
-9.4584e-06
-9.45869e-06
-9.45898e-06
-9.45927e-06
-9.45956e-06
-9.45985e-06
-9.46014e-06
-9.46043e-06
-9.46073e-06
-9.46102e-06
-9.46131e-06
-9.4616e-06
-9.46189e-06
-9.46218e-06
-9.46247e-06
-9.46276e-06
-9.46305e-06
-9.46334e-06
-9.46363e-06
-9.46392e-06
-9.46421e-06
-9.4645e-06
-9.46479e-06
-9.46509e-06
-9.46538e-06
-9.46567e-06
-9.46596e-06
-9.46625e-06
-9.46654e-06
-9.46683e-06
-9.46712e-06
-9.46741e-06
-9.4677e-06
-9.46799e-06
-9.46829e-06
-9.46858e-06
-9.46887e-06
-9.46916e-06
-9.46945e-06
-9.46975e-06
-9.47004e-06
-9.47033e-06
-9.47062e-06
-9.47091e-06
-9.4712e-06
-9.47149e-06
-9.47179e-06
-9.47208e-06
-9.47237e-06
-9.47266e-06
-9.47295e-06
-9.47325e-06
-9.47354e-06
-9.47383e-06
-9.47412e-06
-9.47442e-06
-9.47471e-06
-9.475e-06
-9.47529e-06
-9.47558e-06
-9.47588e-06
-9.47617e-06
-9.47646e-06
-9.47675e-06
-9.47705e-06
-9.47734e-06
-9.47763e-06
-9.47792e-06
-9.47822e-06
-9.47851e-06
-9.4788e-06
-9.47909e-06
-9.47939e-06
-9.47968e-06
-9.47998e-06
-9.48027e-06
-9.48056e-06
-9.48085e-06
-9.48115e-06
-9.48144e-06
-9.48173e-06
-9.48203e-06
-9.48232e-06
-9.48261e-06
-9.48291e-06
-9.4832e-06
-9.4835e-06
-9.48379e-06
-9.48408e-06
-9.48437e-06
-9.48467e-06
-9.48496e-06
-9.48525e-06
-9.48555e-06
-9.48584e-06
-9.48614e-06
-9.48643e-06
-9.48673e-06
-9.48702e-06
-9.48731e-06
-9.48761e-06
-9.4879e-06
-9.4882e-06
-9.48849e-06
-9.48878e-06
-9.48908e-06
-9.48937e-06
-9.48967e-06
-9.48996e-06
-9.49025e-06
-9.49055e-06
-9.49085e-06
-9.49114e-06
-9.49143e-06
-9.49173e-06
-9.49202e-06
-9.49232e-06
-9.49261e-06
-9.49291e-06
-9.4932e-06
-9.49349e-06
-9.49379e-06
-9.49409e-06
-9.49438e-06
-9.49468e-06
-9.49497e-06
-9.49527e-06
-9.49556e-06
-9.49585e-06
-9.49615e-06
-9.49645e-06
-9.49674e-06
-9.49704e-06
-9.49733e-06
-9.49763e-06
-9.49792e-06
-9.49822e-06
-9.49851e-06
-9.49881e-06
-9.49911e-06
-9.4994e-06
-9.4997e-06
-9.49999e-06
-9.50029e-06
-9.50058e-06
-9.50088e-06
-9.50118e-06
-9.50147e-06
-9.50177e-06
-9.50206e-06
-9.50236e-06
-9.50266e-06
-9.50295e-06
-9.50325e-06
-9.50354e-06
-9.50384e-06
-9.50414e-06
-9.50443e-06
-9.50473e-06
-9.50503e-06
-9.50532e-06
-9.50562e-06
-9.50591e-06
-9.50621e-06
-9.50651e-06
-9.5068e-06
-9.5071e-06
-9.50739e-06
-9.50769e-06
-9.50798e-06
-9.50828e-06
-9.50858e-06
-9.50887e-06
-9.50916e-06
-9.50946e-06
-9.50975e-06
-9.51004e-06
-9.51033e-06
-9.51062e-06
-9.5109e-06
-9.51118e-06
-9.51146e-06
-9.51174e-06
-9.51201e-06
-9.51227e-06
-9.51252e-06
-9.51276e-06
-9.51298e-06
-9.51319e-06
-9.51338e-06
-9.51353e-06
-9.51364e-06
-9.51371e-06
-9.51372e-06
-9.51365e-06
-9.5135e-06
-9.51321e-06
-9.51281e-06
-9.51215e-06
-9.51135e-06
-9.51009e-06
-9.5087e-06
-9.5064e-06
-9.50412e-06
-9.49993e-06
-9.49652e-06
-9.4884e-06
-9.48433e-06
-9.46616e-06
-9.46775e-06
-9.41254e-06
-9.5169e-06
-6.717e-06
-6.717e-06
0
0
0.0966088
0.0320516
0.0130052
0.00682537
0.00423506
0.00291312
0.00214148
0.00164739
0.00130953
0.00106704
0.000886533
0.000748283
0.000639976
0.000553552
0.000483525
0.000426044
0.000378328
0.000338324
0.000304486
0.000275632
0.000250844
0.000229401
0.000210729
0.000194372
0.000179957
0.000167185
0.000155808
0.000145623
0.000136462
0.000128185
0.000120675
0.000113834
0.000107578
0.000101839
9.65543e-05
9.16746e-05
8.71553e-05
8.29585e-05
7.90516e-05
7.54059e-05
7.19966e-05
6.88019e-05
6.58025e-05
6.29815e-05
6.0324e-05
5.78164e-05
5.5447e-05
5.32051e-05
5.1081e-05
4.9066e-05
4.71525e-05
4.53333e-05
4.36019e-05
4.19524e-05
4.03797e-05
3.88786e-05
3.74447e-05
3.6074e-05
3.47625e-05
3.35067e-05
3.23035e-05
3.11497e-05
3.00427e-05
2.89798e-05
2.79587e-05
2.6977e-05
2.60327e-05
2.51238e-05
2.42486e-05
2.34052e-05
2.25922e-05
2.18081e-05
2.10513e-05
2.03207e-05
1.96149e-05
1.89328e-05
1.82734e-05
1.76355e-05
1.70182e-05
1.64206e-05
1.58418e-05
1.5281e-05
1.47374e-05
1.42102e-05
1.36989e-05
1.32026e-05
1.27208e-05
1.22528e-05
1.17982e-05
1.13563e-05
1.09266e-05
1.05087e-05
1.01021e-05
9.70628e-06
9.32085e-06
8.94538e-06
8.57949e-06
8.22277e-06
7.87487e-06
7.53542e-06
7.20408e-06
6.88052e-06
6.56441e-06
6.25544e-06
5.95329e-06
5.65767e-06
5.36828e-06
5.08482e-06
4.807e-06
4.53454e-06
4.26713e-06
4.00446e-06
3.74624e-06
3.49214e-06
3.24184e-06
2.995e-06
2.75125e-06
2.51023e-06
2.27154e-06
2.0348e-06
1.79959e-06
1.5655e-06
1.33211e-06
1.09901e-06
8.65822e-07
6.32174e-07
3.9773e-07
1.62201e-07
-7.46472e-08
-3.12982e-07
-5.52907e-07
-7.94451e-07
-1.03757e-06
-1.28212e-06
-1.52792e-06
-1.77468e-06
-2.02206e-06
-2.26968e-06
-2.51707e-06
-2.76378e-06
-3.0093e-06
-3.25314e-06
-3.49478e-06
-3.73374e-06
-3.96956e-06
-4.20183e-06
-4.43016e-06
-4.65423e-06
-4.87376e-06
-5.08853e-06
-5.29837e-06
-5.50318e-06
-5.70291e-06
-5.89755e-06
-6.08713e-06
-6.27173e-06
-6.45145e-06
-6.62645e-06
-6.79686e-06
-6.96284e-06
-7.12455e-06
-7.28217e-06
-7.43585e-06
-7.58574e-06
-7.73197e-06
-7.8747e-06
-8.01402e-06
-8.15006e-06
-8.2829e-06
-8.41262e-06
-8.53931e-06
-8.66303e-06
-8.78383e-06
-8.9018e-06
-9.01698e-06
-9.12944e-06
-9.23923e-06
-9.34639e-06
-9.45093e-06
-9.55288e-06
-9.65223e-06
-9.74899e-06
-9.84317e-06
-9.9348e-06
-1.00239e-05
-1.01106e-05
-1.01949e-05
-1.02769e-05
-1.03566e-05
-1.04342e-05
-1.05095e-05
-1.05825e-05
-1.06531e-05
-1.07212e-05
-1.07867e-05
-1.08497e-05
-1.09102e-05
-1.09684e-05
-1.10246e-05
-1.10792e-05
-1.11326e-05
-1.11854e-05
-1.12379e-05
-1.12907e-05
-1.1344e-05
-1.1398e-05
-1.14525e-05
-1.15074e-05
-1.15623e-05
-1.16166e-05
-1.16698e-05
-1.17211e-05
-1.17701e-05
-1.1816e-05
-1.18584e-05
-1.18969e-05
-1.19313e-05
-1.19616e-05
-1.19878e-05
-1.201e-05
-1.20286e-05
-1.20438e-05
-1.20561e-05
-1.20658e-05
-1.20734e-05
-1.20792e-05
-1.20835e-05
-1.20867e-05
-1.20891e-05
-1.20908e-05
-1.20921e-05
-1.2093e-05
-1.20937e-05
-1.20942e-05
-1.20946e-05
-1.2095e-05
-1.20954e-05
-1.20957e-05
-1.2096e-05
-1.20963e-05
-1.20967e-05
-1.2097e-05
-1.20973e-05
-1.20976e-05
-1.2098e-05
-1.20983e-05
-1.20987e-05
-1.2099e-05
-1.20993e-05
-1.20997e-05
-1.21001e-05
-1.21004e-05
-1.21008e-05
-1.21011e-05
-1.21015e-05
-1.21019e-05
-1.21022e-05
-1.21026e-05
-1.2103e-05
-1.21033e-05
-1.21037e-05
-1.21041e-05
-1.21044e-05
-1.21048e-05
-1.21052e-05
-1.21055e-05
-1.21059e-05
-1.21063e-05
-1.21067e-05
-1.2107e-05
-1.21074e-05
-1.21078e-05
-1.21081e-05
-1.21085e-05
-1.21089e-05
-1.21092e-05
-1.21096e-05
-1.211e-05
-1.21103e-05
-1.21107e-05
-1.21111e-05
-1.21114e-05
-1.21118e-05
-1.21122e-05
-1.21125e-05
-1.21129e-05
-1.21133e-05
-1.21136e-05
-1.2114e-05
-1.21144e-05
-1.21147e-05
-1.21151e-05
-1.21155e-05
-1.21159e-05
-1.21162e-05
-1.21166e-05
-1.2117e-05
-1.21173e-05
-1.21177e-05
-1.21181e-05
-1.21184e-05
-1.21188e-05
-1.21192e-05
-1.21196e-05
-1.21199e-05
-1.21203e-05
-1.21207e-05
-1.2121e-05
-1.21214e-05
-1.21218e-05
-1.21221e-05
-1.21225e-05
-1.21229e-05
-1.21233e-05
-1.21236e-05
-1.2124e-05
-1.21244e-05
-1.21247e-05
-1.21251e-05
-1.21255e-05
-1.21258e-05
-1.21262e-05
-1.21266e-05
-1.2127e-05
-1.21273e-05
-1.21277e-05
-1.21281e-05
-1.21284e-05
-1.21288e-05
-1.21292e-05
-1.21296e-05
-1.21299e-05
-1.21303e-05
-1.21307e-05
-1.2131e-05
-1.21314e-05
-1.21318e-05
-1.21322e-05
-1.21325e-05
-1.21329e-05
-1.21333e-05
-1.21336e-05
-1.2134e-05
-1.21344e-05
-1.21348e-05
-1.21351e-05
-1.21355e-05
-1.21359e-05
-1.21362e-05
-1.21366e-05
-1.2137e-05
-1.21374e-05
-1.21377e-05
-1.21381e-05
-1.21385e-05
-1.21389e-05
-1.21392e-05
-1.21396e-05
-1.214e-05
-1.21403e-05
-1.21407e-05
-1.21411e-05
-1.21415e-05
-1.21418e-05
-1.21422e-05
-1.21426e-05
-1.21429e-05
-1.21433e-05
-1.21437e-05
-1.21441e-05
-1.21444e-05
-1.21448e-05
-1.21452e-05
-1.21455e-05
-1.21459e-05
-1.21463e-05
-1.21467e-05
-1.2147e-05
-1.21474e-05
-1.21478e-05
-1.21482e-05
-1.21485e-05
-1.21489e-05
-1.21493e-05
-1.21496e-05
-1.215e-05
-1.21504e-05
-1.21508e-05
-1.21511e-05
-1.21515e-05
-1.21519e-05
-1.21523e-05
-1.21526e-05
-1.2153e-05
-1.21534e-05
-1.21537e-05
-1.21541e-05
-1.21545e-05
-1.21549e-05
-1.21552e-05
-1.21556e-05
-1.2156e-05
-1.21563e-05
-1.21567e-05
-1.21571e-05
-1.21575e-05
-1.21578e-05
-1.21582e-05
-1.21586e-05
-1.2159e-05
-1.21593e-05
-1.21597e-05
-1.21601e-05
-1.21604e-05
-1.21608e-05
-1.21612e-05
-1.21616e-05
-1.21619e-05
-1.21623e-05
-1.21627e-05
-1.21631e-05
-1.21634e-05
-1.21638e-05
-1.21642e-05
-1.21645e-05
-1.21649e-05
-1.21653e-05
-1.21657e-05
-1.2166e-05
-1.21664e-05
-1.21668e-05
-1.21671e-05
-1.21675e-05
-1.21679e-05
-1.21683e-05
-1.21686e-05
-1.2169e-05
-1.21694e-05
-1.21698e-05
-1.21701e-05
-1.21705e-05
-1.21709e-05
-1.21712e-05
-1.21716e-05
-1.2172e-05
-1.21724e-05
-1.21727e-05
-1.21731e-05
-1.21735e-05
-1.21738e-05
-1.21742e-05
-1.21746e-05
-1.2175e-05
-1.21753e-05
-1.21757e-05
-1.21761e-05
-1.21765e-05
-1.21768e-05
-1.21772e-05
-1.21776e-05
-1.21779e-05
-1.21783e-05
-1.21787e-05
-1.21791e-05
-1.21794e-05
-1.21798e-05
-1.21802e-05
-1.21806e-05
-1.21809e-05
-1.21813e-05
-1.21817e-05
-1.2182e-05
-1.21824e-05
-1.21828e-05
-1.21832e-05
-1.21835e-05
-1.21839e-05
-1.21843e-05
-1.21847e-05
-1.2185e-05
-1.21854e-05
-1.21858e-05
-1.21861e-05
-1.21865e-05
-1.21869e-05
-1.21873e-05
-1.21876e-05
-1.2188e-05
-1.21884e-05
-1.21888e-05
-1.21891e-05
-1.21895e-05
-1.21899e-05
-1.21902e-05
-1.21906e-05
-1.2191e-05
-1.21914e-05
-1.21917e-05
-1.21921e-05
-1.21925e-05
-1.21929e-05
-1.21932e-05
-1.21936e-05
-1.2194e-05
-1.21944e-05
-1.21947e-05
-1.21951e-05
-1.21955e-05
-1.21958e-05
-1.21962e-05
-1.21966e-05
-1.2197e-05
-1.21973e-05
-1.21977e-05
-1.21981e-05
-1.21985e-05
-1.21988e-05
-1.21992e-05
-1.21996e-05
-1.22e-05
-1.22003e-05
-1.22007e-05
-1.22011e-05
-1.22015e-05
-1.22018e-05
-1.22022e-05
-1.22026e-05
-1.22029e-05
-1.22033e-05
-1.22037e-05
-1.22041e-05
-1.22044e-05
-1.22048e-05
-1.22052e-05
-1.22056e-05
-1.22059e-05
-1.22063e-05
-1.22067e-05
-1.22071e-05
-1.22075e-05
-1.22078e-05
-1.22082e-05
-1.22086e-05
-1.22089e-05
-1.22093e-05
-1.22097e-05
-1.22101e-05
-1.22104e-05
-1.22108e-05
-1.22112e-05
-1.22116e-05
-1.22119e-05
-1.22123e-05
-1.22127e-05
-1.22131e-05
-1.22134e-05
-1.22138e-05
-1.22142e-05
-1.22146e-05
-1.22149e-05
-1.22153e-05
-1.22157e-05
-1.22161e-05
-1.22165e-05
-1.22168e-05
-1.22172e-05
-1.22176e-05
-1.2218e-05
-1.22183e-05
-1.22187e-05
-1.22191e-05
-1.22195e-05
-1.22198e-05
-1.22202e-05
-1.22206e-05
-1.2221e-05
-1.22213e-05
-1.22217e-05
-1.22221e-05
-1.22225e-05
-1.22228e-05
-1.22232e-05
-1.22236e-05
-1.2224e-05
-1.22244e-05
-1.22247e-05
-1.22251e-05
-1.22255e-05
-1.22259e-05
-1.22262e-05
-1.22266e-05
-1.2227e-05
-1.22274e-05
-1.22278e-05
-1.22281e-05
-1.22285e-05
-1.22289e-05
-1.22293e-05
-1.22296e-05
-1.223e-05
-1.22304e-05
-1.22308e-05
-1.22312e-05
-1.22315e-05
-1.22319e-05
-1.22323e-05
-1.22327e-05
-1.2233e-05
-1.22334e-05
-1.22338e-05
-1.22342e-05
-1.22346e-05
-1.22349e-05
-1.22353e-05
-1.22357e-05
-1.22361e-05
-1.22364e-05
-1.22368e-05
-1.22372e-05
-1.22376e-05
-1.2238e-05
-1.22383e-05
-1.22387e-05
-1.22391e-05
-1.22395e-05
-1.22399e-05
-1.22402e-05
-1.22406e-05
-1.2241e-05
-1.22414e-05
-1.22418e-05
-1.22421e-05
-1.22425e-05
-1.22429e-05
-1.22433e-05
-1.22436e-05
-1.2244e-05
-1.22444e-05
-1.22448e-05
-1.22452e-05
-1.22455e-05