# vtk DataFile Version 2.0
FlowField
ASCII
DATASET STRUCTURED_GRID
DIMENSIONS 800 1 200
POINTS 160000 float
0 0 0
0.04 0 0
0.08 0 0
0.12 0 0
0.16 0 0
0.2 0 0
0.24 0 0
0.28 0 0
0.32 0 0
0.36 0 0
0.4 0 0
0.44 0 0
0.48 0 0
0.52 0 0
0.56 0 0
0.6 0 0
0.64 0 0
0.68 0 0
0.72 0 0
0.76 0 0
0.8 0 0
0.84 0 0
0.88 0 0
0.92 0 0
0.96 0 0
1 0 0
1.04 0 0
1.08 0 0
1.12 0 0
1.16 0 0
1.2 0 0
1.24 0 0
1.28 0 0
1.32 0 0
1.36 0 0
1.4 0 0
1.44 0 0
1.48 0 0
1.52 0 0
1.56 0 0
1.6 0 0
1.64 0 0
1.68 0 0
1.72 0 0
1.76 0 0
1.8 0 0
1.84 0 0
1.88 0 0
1.92 0 0
1.96 0 0
2 0 0
2.04 0 0
2.08 0 0
2.12 0 0
2.16 0 0
2.2 0 0
2.24 0 0
2.28 0 0
2.32 0 0
2.36 0 0
2.4 0 0
2.44 0 0
2.48 0 0
2.52 0 0
2.56 0 0
2.6 0 0
2.64 0 0
2.68 0 0
2.72 0 0
2.76 0 0
2.8 0 0
2.84 0 0
2.88 0 0
2.92 0 0
2.96 0 0
3 0 0
3.04 0 0
3.08 0 0
3.12 0 0
3.16 0 0
3.2 0 0
3.24 0 0
3.28 0 0
3.32 0 0
3.36 0 0
3.4 0 0
3.44 0 0
3.48 0 0
3.52 0 0
3.56 0 0
3.6 0 0
3.64 0 0
3.68 0 0
3.72 0 0
3.76 0 0
3.8 0 0
3.84 0 0
3.88 0 0
3.92 0 0
3.96 0 0
4 0 0
4.04 0 0
4.08 0 0
4.12 0 0
4.16 0 0
4.2 0 0
4.24 0 0
4.28 0 0
4.32 0 0
4.36 0 0
4.4 0 0
4.44 0 0
4.48 0 0
4.52 0 0
4.56 0 0
4.6 0 0
4.64 0 0
4.68 0 0
4.72 0 0
4.76 0 0
4.8 0 0
4.84 0 0
4.88 0 0
4.92 0 0
4.96 0 0
5 0 0
5.04 0 0
5.08 0 0
5.12 0 0
5.16 0 0
5.2 0 0
5.24 0 0
5.28 0 0
5.32 0 0
5.36 0 0
5.4 0 0
5.44 0 0
5.48 0 0
5.52 0 0
5.56 0 0
5.6 0 0
5.64 0 0
5.68 0 0
5.72 0 0
5.76 0 0
5.8 0 0
5.84 0 0
5.88 0 0
5.92 0 0
5.96 0 0
6 0 0
6.04 0 0
6.08 0 0
6.12 0 0
6.16 0 0
6.2 0 0
6.24 0 0
6.28 0 0
6.32 0 0
6.36 0 0
6.4 0 0
6.44 0 0
6.48 0 0
6.52 0 0
6.56 0 0
6.6 0 0
6.64 0 0
6.68 0 0
6.72 0 0
6.76 0 0
6.8 0 0
6.84 0 0
6.88 0 0
6.92 0 0
6.96 0 0
7 0 0
7.04 0 0
7.08 0 0
7.12 0 0
7.16 0 0
7.2 0 0
7.24 0 0
7.28 0 0
7.32 0 0
7.36 0 0
7.4 0 0
7.44 0 0
7.48 0 0
7.52 0 0
7.56 0 0
7.6 0 0
7.64 0 0
7.68 0 0
7.72 0 0
7.76 0 0
7.8 0 0
7.84 0 0
7.88 0 0
7.92 0 0
7.96 0 0
8 0 0
8.04 0 0
8.08 0 0
8.12 0 0
8.16 0 0
8.2 0 0
8.24 0 0
8.28 0 0
8.32 0 0
8.36 0 0
8.4 0 0
8.44 0 0
8.48 0 0
8.52 0 0
8.56 0 0
8.6 0 0
8.64 0 0
8.68 0 0
8.72 0 0
8.76 0 0
8.8 0 0
8.84 0 0
8.88 0 0
8.92 0 0
8.96 0 0
9 0 0
9.04 0 0
9.08 0 0
9.12 0 0
9.16 0 0
9.2 0 0
9.24 0 0
9.28 0 0
9.32 0 0
9.36 0 0
9.4 0 0
9.44 0 0
9.48 0 0
9.52 0 0
9.56 0 0
9.6 0 0
9.64 0 0
9.68 0 0
9.72 0 0
9.76 0 0
9.8 0 0
9.84 0 0
9.88 0 0
9.92 0 0
9.96 0 0
10 0 0
10.04 0 0
10.08 0 0
10.12 0 0
10.16 0 0
10.2 0 0
10.24 0 0
10.28 0 0
10.32 0 0
10.36 0 0
10.4 0 0
10.44 0 0
10.48 0 0
10.52 0 0
10.56 0 0
10.6 0 0
10.64 0 0
10.68 0 0
10.72 0 0
10.76 0 0
10.8 0 0
10.84 0 0
10.88 0 0
10.92 0 0
10.96 0 0
11 0 0
11.04 0 0
11.08 0 0
11.12 0 0
11.16 0 0
11.2 0 0
11.24 0 0
11.28 0 0
11.32 0 0
11.36 0 0
11.4 0 0
11.44 0 0
11.48 0 0
11.52 0 0
11.56 0 0
11.6 0 0
11.64 0 0
11.68 0 0
11.72 0 0
11.76 0 0
11.8 0 0
11.84 0 0
11.88 0 0
11.92 0 0
11.96 0 0
12 0 0
12.04 0 0
12.08 0 0
12.12 0 0
12.16 0 0
12.2 0 0
12.24 0 0
12.28 0 0
12.32 0 0
12.36 0 0
12.4 0 0
12.44 0 0
12.48 0 0
12.52 0 0
12.56 0 0
12.6 0 0
12.64 0 0
12.68 0 0
12.72 0 0
12.76 0 0
12.8 0 0
12.84 0 0
12.88 0 0
12.92 0 0
12.96 0 0
13 0 0
13.04 0 0
13.08 0 0
13.12 0 0
13.16 0 0
13.2 0 0
13.24 0 0
13.28 0 0
13.32 0 0
13.36 0 0
13.4 0 0
13.44 0 0
13.48 0 0
13.52 0 0
13.56 0 0
13.6 0 0
13.64 0 0
13.68 0 0
13.72 0 0
13.76 0 0
13.8 0 0
13.84 0 0
13.88 0 0
13.92 0 0
13.96 0 0
14 0 0
14.04 0 0
14.08 0 0
14.12 0 0
14.16 0 0
14.2 0 0
14.24 0 0
14.28 0 0
14.32 0 0
14.36 0 0
14.4 0 0
14.44 0 0
14.48 0 0
14.52 0 0
14.56 0 0
14.6 0 0
14.64 0 0
14.68 0 0
14.72 0 0
14.76 0 0
14.8 0 0
14.84 0 0
14.88 0 0
14.92 0 0
14.96 0 0
15 0 0
15.04 0 0
15.08 0 0
15.12 0 0
15.16 0 0
15.2 0 0
15.24 0 0
15.28 0 0
15.32 0 0
15.36 0 0
15.4 0 0
15.44 0 0
15.48 0 0
15.52 0 0
15.56 0 0
15.6 0 0
15.64 0 0
15.68 0 0
15.72 0 0
15.76 0 0
15.8 0 0
15.84 0 0
15.88 0 0
15.92 0 0
15.96 0 0
16 0 0
16.04 0 0
16.08 0 0
16.12 0 0
16.16 0 0
16.2 0 0
16.24 0 0
16.28 0 0
16.32 0 0
16.36 0 0
16.4 0 0
16.44 0 0
16.48 0 0
16.52 0 0
16.56 0 0
16.6 0 0
16.64 0 0
16.68 0 0
16.72 0 0
16.76 0 0
16.8 0 0
16.84 0 0
16.88 0 0
16.92 0 0
16.96 0 0
17 0 0
17.04 0 0
17.08 0 0
17.12 0 0
17.16 0 0
17.2 0 0
17.24 0 0
17.28 0 0
17.32 0 0
17.36 0 0
17.4 0 0
17.44 0 0
17.48 0 0
17.52 0 0
17.56 0 0
17.6 0 0
17.64 0 0
17.68 0 0
17.72 0 0
17.76 0 0
17.8 0 0
17.84 0 0
17.88 0 0
17.92 0 0
17.96 0 0
18 0 0
18.04 0 0
18.08 0 0
18.12 0 0
18.16 0 0
18.2 0 0
18.24 0 0
18.28 0 0
18.32 0 0
18.36 0 0
18.4 0 0
18.44 0 0
18.48 0 0
18.52 0 0
18.56 0 0
18.6 0 0
18.64 0 0
18.68 0 0
18.72 0 0
18.76 0 0
18.8 0 0
18.84 0 0
18.88 0 0
18.92 0 0
18.96 0 0
19 0 0
19.04 0 0
19.08 0 0
19.12 0 0
19.16 0 0
19.2 0 0
19.24 0 0
19.28 0 0
19.32 0 0
19.36 0 0
19.4 0 0
19.44 0 0
19.48 0 0
19.52 0 0
19.56 0 0
19.6 0 0
19.64 0 0
19.68 0 0
19.72 0 0
19.76 0 0
19.8 0 0
19.84 0 0
19.88 0 0
19.92 0 0
19.96 0 0
20 0 0
20.04 0 0
20.08 0 0
20.12 0 0
20.16 0 0
20.2 0 0
20.24 0 0
20.28 0 0
20.32 0 0
20.36 0 0
20.4 0 0
20.44 0 0
20.48 0 0
20.52 0 0
20.56 0 0
20.6 0 0
20.64 0 0
20.68 0 0
20.72 0 0
20.76 0 0
20.8 0 0
20.84 0 0
20.88 0 0
20.92 0 0
20.96 0 0
21 0 0
21.04 0 0
21.08 0 0
21.12 0 0
21.16 0 0
21.2 0 0
21.24 0 0
21.28 0 0
21.32 0 0
21.36 0 0
21.4 0 0
21.44 0 0
21.48 0 0
21.52 0 0
21.56 0 0
21.6 0 0
21.64 0 0
21.68 0 0
21.72 0 0
21.76 0 0
21.8 0 0
21.84 0 0
21.88 0 0
21.92 0 0
21.96 0 0
22 0 0
22.04 0 0
22.08 0 0
22.12 0 0
22.16 0 0
22.2 0 0
22.24 0 0
22.28 0 0
22.32 0 0
22.36 0 0
22.4 0 0
22.44 0 0
22.48 0 0
22.52 0 0
22.56 0 0
22.6 0 0
22.64 0 0
22.68 0 0
22.72 0 0
22.76 0 0
22.8 0 0
22.84 0 0
22.88 0 0
22.92 0 0
22.96 0 0
23 0 0
23.04 0 0
23.08 0 0
23.12 0 0
23.16 0 0
23.2 0 0
23.24 0 0
23.28 0 0
23.32 0 0
23.36 0 0
23.4 0 0
23.44 0 0
23.48 0 0
23.52 0 0
23.56 0 0
23.6 0 0
23.64 0 0
23.68 0 0
23.72 0 0
23.76 0 0
23.8 0 0
23.84 0 0
23.88 0 0
23.92 0 0
23.96 0 0
24 0 0
24.04 0 0
24.08 0 0
24.12 0 0
24.16 0 0
24.2 0 0
24.24 0 0
24.28 0 0
24.32 0 0
24.36 0 0
24.4 0 0
24.44 0 0
24.48 0 0
24.52 0 0
24.56 0 0
24.6 0 0
24.64 0 0
24.68 0 0
24.72 0 0
24.76 0 0
24.8 0 0
24.84 0 0
24.88 0 0
24.92 0 0
24.96 0 0
25 0 0
25.04 0 0
25.08 0 0
25.12 0 0
25.16 0 0
25.2 0 0
25.24 0 0
25.28 0 0
25.32 0 0
25.36 0 0
25.4 0 0
25.44 0 0
25.48 0 0
25.52 0 0
25.56 0 0
25.6 0 0
25.64 0 0
25.68 0 0
25.72 0 0
25.76 0 0
25.8 0 0
25.84 0 0
25.88 0 0
25.92 0 0
25.96 0 0
26 0 0
26.04 0 0
26.08 0 0
26.12 0 0
26.16 0 0
26.2 0 0
26.24 0 0
26.28 0 0
26.32 0 0
26.36 0 0
26.4 0 0
26.44 0 0
26.48 0 0
26.52 0 0
26.56 0 0
26.6 0 0
26.64 0 0
26.68 0 0
26.72 0 0
26.76 0 0
26.8 0 0
26.84 0 0
26.88 0 0
26.92 0 0
26.96 0 0
27 0 0
27.04 0 0
27.08 0 0
27.12 0 0
27.16 0 0
27.2 0 0
27.24 0 0
27.28 0 0
27.32 0 0
27.36 0 0
27.4 0 0
27.44 0 0
27.48 0 0
27.52 0 0
27.56 0 0
27.6 0 0
27.64 0 0
27.68 0 0
27.72 0 0
27.76 0 0
27.8 0 0
27.84 0 0
27.88 0 0
27.92 0 0
27.96 0 0
28 0 0
28.04 0 0
28.08 0 0
28.12 0 0
28.16 0 0
28.2 0 0
28.24 0 0
28.28 0 0
28.32 0 0
28.36 0 0
28.4 0 0
28.44 0 0
28.48 0 0
28.52 0 0
28.56 0 0
28.6 0 0
28.64 0 0
28.68 0 0
28.72 0 0
28.76 0 0
28.8 0 0
28.84 0 0
28.88 0 0
28.92 0 0
28.96 0 0
29 0 0
29.04 0 0
29.08 0 0
29.12 0 0
29.16 0 0
29.2 0 0
29.24 0 0
29.28 0 0
29.32 0 0
29.36 0 0
29.4 0 0
29.44 0 0
29.48 0 0
29.52 0 0
29.56 0 0
29.6 0 0
29.64 0 0
29.68 0 0
29.72 0 0
29.76 0 0
29.8 0 0
29.84 0 0
29.88 0 0
29.92 0 0
29.96 0 0
30 0 0
30.04 0 0
30.08 0 0
30.12 0 0
30.16 0 0
30.2 0 0
30.24 0 0
30.28 0 0
30.32 0 0
30.36 0 0
30.4 0 0
30.44 0 0
30.48 0 0
30.52 0 0
30.56 0 0
30.6 0 0
30.64 0 0
30.68 0 0
30.72 0 0
30.76 0 0
30.8 0 0
30.84 0 0
30.88 0 0
30.92 0 0
30.96 0 0
31 0 0
31.04 0 0
31.08 0 0
31.12 0 0
31.16 0 0
31.2 0 0
31.24 0 0
31.28 0 0
31.32 0 0
31.36 0 0
31.4 0 0
31.44 0 0
31.48 0 0
31.52 0 0
31.56 0 0
31.6 0 0
31.64 0 0
31.68 0 0
31.72 0 0
31.76 0 0
31.8 0 0
31.84 0 0
31.88 0 0
31.92 0 0
31.96 0 0
0 0.005 0
0.04 0.005 0
0.08 0.005 0
0.12 0.005 0
0.16 0.005 0
0.2 0.005 0
0.24 0.005 0
0.28 0.005 0
0.32 0.005 0
0.36 0.005 0
0.4 0.005 0
0.44 0.005 0
0.48 0.005 0
0.52 0.005 0
0.56 0.005 0
0.6 0.005 0
0.64 0.005 0
0.68 0.005 0
0.72 0.005 0
0.76 0.005 0
0.8 0.005 0
0.84 0.005 0
0.88 0.005 0
0.92 0.005 0
0.96 0.005 0
1 0.005 0
1.04 0.005 0
1.08 0.005 0
1.12 0.005 0
1.16 0.005 0
1.2 0.005 0
1.24 0.005 0
1.28 0.005 0
1.32 0.005 0
1.36 0.005 0
1.4 0.005 0
1.44 0.005 0
1.48 0.005 0
1.52 0.005 0
1.56 0.005 0
1.6 0.005 0
1.64 0.005 0
1.68 0.005 0
1.72 0.005 0
1.76 0.005 0
1.8 0.005 0
1.84 0.005 0
1.88 0.005 0
1.92 0.005 0
1.96 0.005 0
2 0.005 0
2.04 0.005 0
2.08 0.005 0
2.12 0.005 0
2.16 0.005 0
2.2 0.005 0
2.24 0.005 0
2.28 0.005 0
2.32 0.005 0
2.36 0.005 0
2.4 0.005 0
2.44 0.005 0
2.48 0.005 0
2.52 0.005 0
2.56 0.005 0
2.6 0.005 0
2.64 0.005 0
2.68 0.005 0
2.72 0.005 0
2.76 0.005 0
2.8 0.005 0
2.84 0.005 0
2.88 0.005 0
2.92 0.005 0
2.96 0.005 0
3 0.005 0
3.04 0.005 0
3.08 0.005 0
3.12 0.005 0
3.16 0.005 0
3.2 0.005 0
3.24 0.005 0
3.28 0.005 0
3.32 0.005 0
3.36 0.005 0
3.4 0.005 0
3.44 0.005 0
3.48 0.005 0
3.52 0.005 0
3.56 0.005 0
3.6 0.005 0
3.64 0.005 0
3.68 0.005 0
3.72 0.005 0
3.76 0.005 0
3.8 0.005 0
3.84 0.005 0
3.88 0.005 0
3.92 0.005 0
3.96 0.005 0
4 0.005 0
4.04 0.005 0
4.08 0.005 0
4.12 0.005 0
4.16 0.005 0
4.2 0.005 0
4.24 0.005 0
4.28 0.005 0
4.32 0.005 0
4.36 0.005 0
4.4 0.005 0
4.44 0.005 0
4.48 0.005 0
4.52 0.005 0
4.56 0.005 0
4.6 0.005 0
4.64 0.005 0
4.68 0.005 0
4.72 0.005 0
4.76 0.005 0
4.8 0.005 0
4.84 0.005 0
4.88 0.005 0
4.92 0.005 0
4.96 0.005 0
5 0.005 0
5.04 0.005 0
5.08 0.005 0
5.12 0.005 0
5.16 0.005 0
5.2 0.005 0
5.24 0.005 0
5.28 0.005 0
5.32 0.005 0
5.36 0.005 0
5.4 0.005 0
5.44 0.005 0
5.48 0.005 0
5.52 0.005 0
5.56 0.005 0
5.6 0.005 0
5.64 0.005 0
5.68 0.005 0
5.72 0.005 0
5.76 0.005 0
5.8 0.005 0
5.84 0.005 0
5.88 0.005 0
5.92 0.005 0
5.96 0.005 0
6 0.005 0
6.04 0.005 0
6.08 0.005 0
6.12 0.005 0
6.16 0.005 0
6.2 0.005 0
6.24 0.005 0
6.28 0.005 0
6.32 0.005 0
6.36 0.005 0
6.4 0.005 0
6.44 0.005 0
6.48 0.005 0
6.52 0.005 0
6.56 0.005 0
6.6 0.005 0
6.64 0.005 0
6.68 0.005 0
6.72 0.005 0
6.76 0.005 0
6.8 0.005 0
6.84 0.005 0
6.88 0.005 0
6.92 0.005 0
6.96 0.005 0
7 0.005 0
7.04 0.005 0
7.08 0.005 0
7.12 0.005 0
7.16 0.005 0
7.2 0.005 0
7.24 0.005 0
7.28 0.005 0
7.32 0.005 0
7.36 0.005 0
7.4 0.005 0
[...]
POINT_DATA 160000

SCALARS u float 1
LOOKUP_TABLE default
-1
-0.483358
-0.183963
-0.108845
-0.0810331
-0.0668337
-0.0581182
-0.0521528
-0.0477775
-0.0444146
-0.0417414
-0.0395616
-0.0377484
-0.0362154
-0.0349017
-0.0337626
-0.0327649
-0.0318832
-0.0310975
-0.0303925
-0.0297555
-0.0291765
-0.0286474
-0.0281613
-0.0277127
-0.027297
-0.0269101
-0.026549
-0.0262106
-0.0258927
-0.0255932
-0.0253102
-0.0250424
-0.0247883
-0.0245467
-0.0243167
-0.0240973
-0.0238877
-0.0236872
-0.0234951
-0.0233109
-0.023134
-0.022964
-0.0228004
-0.0226428
-0.0224909
-0.0223444
-0.0222029
-0.0220662
-0.021934
-0.0218061
-0.0216823
-0.0215623
-0.021446
-0.0213331
-0.0212236
-0.0211173
-0.021014
-0.0209136
-0.0208159
-0.0207209
-0.0206285
-0.0205384
-0.0204507
-0.0203652
-0.0202819
-0.0202006
-0.0201213
-0.0200439
-0.0199684
-0.0198946
-0.0198225
-0.019752
-0.0196832
-0.0196158
-0.01955
-0.0194855
-0.0194225
-0.0193608
-0.0193003
-0.0192411
-0.0191831
-0.0191263
-0.0190706
-0.019016
-0.0189625
-0.01891
-0.0188585
-0.0188079
-0.0187584
-0.0187097
-0.0186619
-0.018615
-0.0185689
-0.0185236
-0.0184792
-0.0184355
-0.0183925
-0.0183503
-0.0183088
-0.018268
-0.0182279
-0.0181885
-0.0181497
-0.0181115
-0.0180739
-0.0180369
-0.0180005
-0.0179647
-0.0179295
-0.0178947
-0.0178606
-0.0178269
-0.0177937
-0.0177611
-0.0177289
-0.0176972
-0.0176659
-0.0176351
-0.0176048
-0.0175749
-0.0175454
-0.0175163
-0.0174876
-0.0174594
-0.0174315
-0.017404
-0.0173769
-0.0173501
-0.0173237
-0.0172977
-0.017272
-0.0172467
-0.0172217
-0.017197
-0.0171726
-0.0171486
-0.0171248
-0.0171014
-0.0170783
-0.0170554
-0.0170329
-0.0170106
-0.0169886
-0.0169669
-0.0169454
-0.0169243
-0.0169033
-0.0168827
-0.0168622
-0.0168421
-0.0168221
-0.0168024
-0.016783
-0.0167638
-0.0167448
-0.016726
-0.0167074
-0.0166891
-0.016671
-0.016653
-0.0166353
-0.0166178
-0.0166005
-0.0165834
-0.0165665
-0.0165498
-0.0165333
-0.0165169
-0.0165008
-0.0164848
-0.016469
-0.0164534
-0.0164379
-0.0164226
-0.0164075
-0.0163926
-0.0163778
-0.0163632
-0.0163487
-0.0163344
-0.0163203
-0.0163063
-0.0162924
-0.0162787
-0.0162652
-0.0162518
-0.0162385
-0.0162254
-0.0162124
-0.0161996
-0.0161869
-0.0161743
-0.0161619
-0.0161496
-0.0161374
-0.0161253
-0.0161134
-0.0161016
-0.0160899
-0.0160784
-0.016067
-0.0160556
-0.0160444
-0.0160334
-0.0160224
-0.0160115
-0.0160008
-0.0159902
-0.0159796
-0.0159692
-0.0159589
-0.0159487
-0.0159386
-0.0159286
-0.0159187
-0.0159089
-0.0158992
-0.0158896
-0.0158801
-0.0158707
-0.0158614
-0.0158522
-0.015843
-0.015834
-0.0158251
-0.0158162
-0.0158074
-0.0157988
-0.0157902
-0.0157817
-0.0157732
-0.0157649
-0.0157567
-0.0157485
-0.0157404
-0.0157324
-0.0157244
-0.0157166
-0.0157088
-0.0157011
-0.0156935
-0.0156859
-0.0156785
-0.0156711
-0.0156637
-0.0156565
-0.0156493
-0.0156422
-0.0156351
-0.0156282
-0.0156212
-0.0156144
-0.0156076
-0.0156009
-0.0155943
-0.0155877
-0.0155812
-0.0155747
-0.0155683
-0.015562
-0.0155558
-0.0155495
-0.0155434
-0.0155373
-0.0155313
-0.0155253
-0.0155194
-0.0155136
-0.0155078
-0.015502
-0.0154963
-0.0154907
-0.0154851
-0.0154796
-0.0154741
-0.0154687
-0.0154633
-0.015458
-0.0154527
-0.0154475
-0.0154424
-0.0154372
-0.0154322
-0.0154272
-0.0154222
-0.0154173
-0.0154124
-0.0154076
-0.0154028
-0.015398
-0.0153933
-0.0153887
-0.0153841
-0.0153795
-0.015375
-0.0153705
-0.0153661
-0.0153617
-0.0153573
-0.015353
-0.0153487
-0.0153445
-0.0153403
-0.0153362
-0.015332
-0.015328
-0.0153239
-0.0153199
-0.015316
-0.015312
-0.0153082
-0.0153043
-0.0153005
-0.0152967
-0.015293
-0.0152893
-0.0152856
-0.0152819
-0.0152783
-0.0152747
-0.0152712
-0.0152677
-0.0152642
-0.0152608
-0.0152574
-0.015254
-0.0152506
-0.0152473
-0.015244
-0.0152408
-0.0152375
-0.0152343
-0.0152311
-0.015228
-0.0152249
-0.0152218
-0.0152187
-0.0152157
-0.0152127
-0.0152097
-0.0152068
-0.0152039
-0.015201
-0.0151981
-0.0151953
-0.0151924
-0.0151897
-0.0151869
-0.0151841
-0.0151814
-0.0151787
-0.0151761
-0.0151734
-0.0151708
-0.0151682
-0.0151656
-0.0151631
-0.0151605
-0.015158
-0.0151556
-0.0151531
-0.0151507
-0.0151482
-0.0151458
-0.0151435
-0.0151411
-0.0151388
-0.0151365
-0.0151342
-0.0151319
-0.0151296
-0.0151274
-0.0151252
-0.015123
-0.0151208
-0.0151187
-0.0151165
-0.0151144
-0.0151123
-0.0151102
-0.0151081
-0.0151061
-0.0151041
-0.015102
-0.0151001
-0.0150981
-0.0150961
-0.0150942
-0.0150922
-0.0150903
-0.0150884
-0.0150865
-0.0150847
-0.0150828
-0.015081
-0.0150792
-0.0150774
-0.0150756
-0.0150738
-0.0150721
-0.0150703
-0.0150686
-0.0150669
-0.0150652
-0.0150635
-0.0150618
-0.0150602
-0.0150585
-0.0150569
-0.0150553
-0.0150537
-0.0150521
-0.0150505
-0.0150489
-0.0150474
-0.0150459
-0.0150443
-0.0150428
-0.0150413
-0.0150398
-0.0150383
-0.0150369
-0.0150354
-0.015034
-0.0150325
-0.0150311
-0.0150297
-0.0150283
-0.0150269
-0.0150256
-0.0150242
-0.0150228
-0.0150215
-0.0150202
-0.0150188
-0.0150175
-0.0150162
-0.0150149
-0.0150137
-0.0150124
-0.0150111
-0.0150099
-0.0150086
-0.0150074
-0.0150062
-0.0150049
-0.0150037
-0.0150025
-0.0150014
-0.0150002
-0.014999
-0.0149978
-0.0149967
-0.0149955
-0.0149944
-0.0149933
-0.0149922
-0.0149911
-0.01499
-0.0149889
-0.0149878
-0.0149867
-0.0149856
-0.0149846
-0.0149835
-0.0149825
-0.0149814
-0.0149804
-0.0149794
-0.0149783
-0.0149773
-0.0149763
-0.0149753
-0.0149743
-0.0149734
-0.0149724
-0.0149714
-0.0149704
-0.0149695
-0.0149685
-0.0149676
-0.0149667
-0.0149657
-0.0149648
-0.0149639
-0.014963
-0.0149621
-0.0149612
-0.0149603
-0.0149594
-0.0149585
-0.0149576
-0.0149568
-0.0149559
-0.014955
-0.0149542
-0.0149533
-0.0149525
-0.0149517
-0.0149508
-0.01495
-0.0149492
-0.0149484
-0.0149476
-0.0149467
-0.0149459
-0.0149452
-0.0149444
-0.0149436
-0.0149428
-0.014942
-0.0149413
-0.0149405
-0.0149397
-0.014939
-0.0149382
-0.0149375
-0.0149367
-0.014936
-0.0149353
-0.0149345
-0.0149338
-0.0149331
-0.0149324
-0.0149317
-0.014931
-0.0149303
-0.0149296
-0.0149289
-0.0149282
-0.0149275
-0.0149268
-0.0149262
-0.0149255
-0.0149248
-0.0149242
-0.0149235
-0.0149228
-0.0149222
-0.0149216
-0.0149209
-0.0149203
-0.0149196
-0.014919
-0.0149184
-0.0149178
-0.0149171
-0.0149165
-0.0149159
-0.0149153
-0.0149147
-0.0149141
-0.0149135
-0.0149129
-0.0149123
-0.0149118
-0.0149112
-0.0149106
-0.01491
-0.0149095
-0.0149089
-0.0149084
-0.0149078
-0.0149072
-0.0149067
-0.0149061
-0.0149056
-0.0149051
-0.0149045
-0.014904
-0.0149035
-0.014903
-0.0149024
-0.0149019
-0.0149014
-0.0149009
-0.0149004
-0.0148999
-0.0148994
-0.0148989
-0.0148984
-0.0148979
-0.0148974
-0.0148969
-0.0148965
-0.014896
-0.0148955
-0.014895
-0.0148946
-0.0148941
-0.0148937
-0.0148932
-0.0148927
-0.0148923
-0.0148919
-0.0148914
-0.014891
-0.0148905
-0.0148901
-0.0148897
-0.0148892
-0.0148888
-0.0148884
-0.014888
-0.0148875
-0.0148871
-0.0148867
-0.0148863
-0.0148859
-0.0148855
-0.0148851
-0.0148847
-0.0148843
-0.0148839
-0.0148835
-0.0148831
-0.0148827
-0.0148823
-0.0148819
-0.0148815
-0.0148812
-0.0148808
-0.0148804
-0.01488
-0.0148796
-0.0148793
-0.0148789
-0.0148785
-0.0148782
-0.0148778
-0.0148774
-0.0148771
-0.0148767
-0.0148764
-0.014876
-0.0148757
-0.0148753
-0.0148749
-0.0148746
-0.0148742
-0.0148739
-0.0148736
-0.0148732
-0.0148729
-0.0148725
-0.0148722
-0.0148718
-0.0148715
-0.0148712
-0.0148708
-0.0148705
-0.0148702
-0.0148698
-0.0148695
-0.0148692
-0.0148688
-0.0148685
-0.0148682
-0.0148678
-0.0148675
-0.0148672
-0.0148669
-0.0148665
-0.0148662
-0.0148659
-0.0148656
-0.0148652
-0.0148649
-0.0148646
-0.0148643
-0.014864
-0.0148636
-0.0148633
-0.014863
-0.0148627
-0.0148624
-0.014862
-0.0148617
-0.0148614
-0.0148611
-0.0148608
-0.0148605
-0.0148601
-0.0148598
-0.0148595
-0.0148592
-0.0148589
-0.0148586
-0.0148583
-0.0148579
-0.0148576
-0.0148573
-0.014857
-0.0148567
-0.0148564
-0.0148561
-0.0148558
-0.0148554
-0.0148551
-0.0148548
-0.0148545
-0.0148542
-0.0148539
-0.0148536
-0.0148533
-0.0148529
-0.0148526
-0.0148523
-0.014852
-0.0148517
-0.0148514
-0.0148511
-0.0148508
-0.0148505
-0.0148501
-0.0148498
-0.0148495
-0.0148492
-0.0148489
-0.0148486
-0.0148483
-0.014848
-0.0148477
-0.0148474
-0.014847
-0.0148467
-0.0148464
-0.0148461
-0.0148458
-0.0148455
-0.0148452
-0.0148449
-0.0148446
-0.0148442
-0.0148439
-0.0148436
-0.0148433
-0.014843
-0.0148427
-0.0148424
-0.0148421
-0.0148418
-0.0148415
-0.0148411
-0.0148408
-0.0148405
-0.0148402
-0.0148399
-0.0148396
-0.0148393
-0.014839
-0.0148387
-0.0148383
-0.014838
-0.0148377
-0.0148374
-0.0148371
-0.0148368
-0.0148365
-0.0148362
-0.0148359
-0.0148356
-0.0148352
-0.0148349
-0.0148346
-0.0148343
-0.014834
-0.0148337
-0.0148334
-0.0148331
-0.0148328
-0.0148324
-0.0148321
-0.0148318
-0.0148315
-0.0148312
-0.0148309
-0.0148306
-0.0148302
-0.0148299
-0.0148296
-0.0148293
-0.0148289
-0.0148286
-0.0148283
-0.0148279
-0.0148275
-0.0148272
-0.0148268
-0.0148263
-0.0148259
-0.0148254
-0.0148249
-0.0148242
-0.0148236
-0.0148226
-0.0148222
-0.0148222
-0.0148222
1
0.483358
0.183963
0.108845
0.0810331
0.0668337
0.0581182
0.0521528
0.0477775
0.0444146
0.0417414
0.0395616
0.0377484
0.0362154
0.0349017
0.0337626
0.0327649
0.0318832
0.0310975
0.0303925
0.0297555
0.0291765
0.0286474
0.0281613
0.0277127
0.027297
0.0269101
0.026549
0.0262106
0.0258927
0.0255932
0.0253102
0.0250424
0.0247883
0.0245467
0.0243167
0.0240973
0.0238877
0.0236872
0.0234951
0.0233109
0.023134
0.022964
0.0228004
0.0226428
0.0224909
0.0223444
0.0222029
0.0220662
0.021934
0.0218061
0.0216823
0.0215623
0.021446
0.0213331
0.0212236
0.0211173
0.021014
0.0209136
0.0208159
0.0207209
0.0206285
0.0205384
0.0204507
0.0203652
0.0202819
0.0202006
0.0201213
0.0200439
0.0199684
0.0198946
0.0198225
0.019752
0.0196832
0.0196158
0.01955
0.0194855
0.0194225
0.0193608
0.0193003
0.0192411
0.0191831
0.0191263
0.0190706
0.019016
0.0189625
0.01891
0.0188585
0.0188079
0.0187584
0.0187097
0.0186619
0.018615
0.0185689
0.0185236
0.0184792
0.0184355
0.0183925
0.0183503
0.0183088
0.018268
0.0182279
0.0181885
0.0181497
0.0181115
0.0180739
0.0180369
0.0180005
0.0179647
0.0179295
0.0178947
0.0178606
0.0178269
0.0177937
0.0177611
0.0177289
0.0176972
0.0176659
0.0176351
0.0176048
0.0175749
0.0175454
0.0175163
0.0174876
0.0174594
0.0174315
0.017404
0.0173769
0.0173501
0.0173237
0.0172977
0.017272
0.0172467
0.0172217
0.017197
0.0171726
0.0171486
0.0171248
0.0171014
0.0170783
0.0170554
0.0170329
0.0170106
0.0169886
0.0169669
0.0169454
0.0169243
0.0169033
0.0168827
0.0168622
0.0168421
0.0168221
0.0168024
0.016783
0.0167638
0.0167448
0.016726
0.0167074
0.0166891
0.016671
0.016653
0.0166353
0.0166178
0.0166005
0.0165834
0.0165665
0.0165498
0.0165333
0.0165169
0.0165008
0.0164848
0.016469
0.0164534
0.0164379
0.0164226
0.0164075
0.0163926
0.0163778
0.0163632
0.0163487
0.0163344
0.0163203
0.0163063
0.0162924
0.0162787
0.0162652
0.0162518
0.0162385
0.0162254
0.0162124
0.0161996
0.0161869
0.0161743
0.0161619
0.0161496
0.0161374
0.0161253
0.0161134
0.0161016
0.0160899
0.0160784
0.016067
0.0160556
0.0160444
0.0160334
0.0160224
0.0160115
0.0160008
0.0159902
0.0159796
0.0159692
0.0159589
0.0159487
0.0159386
0.0159286
0.0159187
0.0159089
0.0158992
0.0158896
0.0158801
0.0158707
0.0158614
0.0158522
0.015843
0.015834
0.0158251
0.0158162
0.0158074
0.0157988
0.0157902
0.0157817
0.0157732
0.0157649
0.0157567
0.0157485
0.0157404
0.0157324
0.0157244
0.0157166
0.0157088
0.0157011
0.0156935
0.0156859
0.0156785
0.0156711
0.0156637
0.0156565
0.0156493
0.0156422
0.0156351
0.0156282
0.0156212
0.0156144
0.0156076
0.0156009
0.0155943
0.0155877
0.0155812
0.0155747
0.0155683
0.015562
0.0155558
0.0155495
0.0155434
0.0155373
0.0155313
0.0155253
0.0155194
0.0155136
0.0155078
0.015502
0.0154963
0.0154907
0.0154851
0.0154796
0.0154741
0.0154687
0.0154633
0.015458
0.0154527
0.0154475
0.0154424
0.0154372
0.0154322
0.0154272
0.0154222
0.0154173
0.0154124
0.0154076
0.0154028
0.015398
0.0153933
0.0153887
0.0153841
0.0153795
0.015375
0.0153705
0.0153661
0.0153617
0.0153573
0.015353
0.0153487
0.0153445
0.0153403
0.0153362
0.015332
0.015328
0.0153239
0.0153199
0.015316
0.015312
0.0153082
0.0153043
0.0153005
0.0152967
0.015293
0.0152893
0.0152856
0.0152819
0.0152783
0.0152747
0.0152712
0.0152677
0.0152642
0.0152608
0.0152574
0.015254
0.0152506
0.0152473
0.015244
0.0152408
0.0152375
0.0152343
0.0152311
0.015228
0.0152249
0.0152218
0.0152187
0.0152157
0.0152127
0.0152097
0.0152068
0.0152039
0.015201
0.0151981
0.0151953
0.0151924
0.0151897
0.0151869
0.0151841
0.0151814
0.0151787
0.0151761
0.0151734
0.0151708
0.0151682
0.0151656
0.0151631
0.0151605
0.015158
0.0151556
0.0151531
0.0151507
0.0151482
0.0151458
0.0151435
0.0151411
0.0151388
0.0151365
0.0151342
0.0151319
0.0151296
0.0151274
0.0151252
0.015123
0.0151208
0.0151187
0.0151165
0.0151144
0.0151123
0.0151102
0.0151081
0.0151061
0.0151041
0.015102
0.0151001
0.0150981
0.0150961
0.0150942
0.0150922
0.0150903
0.0150884
0.0150865
0.0150847
0.0150828
0.015081
0.0150792
0.0150774
0.0150756
0.0150738
0.0150721
0.0150703
0.0150686
0.0150669
0.0150652
0.0150635
0.0150618
0.0150602
0.0150585
0.0150569
0.0150553
0.0150537
0.0150521
0.0150505
0.0150489
0.0150474
0.0150459
0.0150443
0.0150428
0.0150413
0.0150398
0.0150383
0.0150369
0.0150354
0.015034
0.0150325
0.0150311
0.0150297
0.0150283
0.0150269
0.0150256
0.0150242
0.0150228
0.0150215
0.0150202
0.0150188
0.0150175
0.0150162
0.0150149
0.0150137
0.0150124
0.0150111
0.0150099
0.0150086
0.0150074
0.0150062
0.0150049
0.0150037
0.0150025
0.0150014
0.0150002
0.014999
0.0149978
0.0149967
0.0149955
0.0149944
0.0149933
0.0149922
0.0149911
0.01499
0.0149889
0.0149878
0.0149867
0.0149856
0.0149846
0.0149835
0.0149825
0.0149814
0.0149804
0.0149794
0.0149783
0.0149773
0.0149763
0.0149753
0.0149743
0.0149734
0.0149724
0.0149714
0.0149704
0.0149695
0.0149685
0.0149676
0.0149667
0.0149657
0.0149648
0.0149639
0.014963
0.0149621
0.0149612
0.0149603
0.0149594
0.0149585
0.0149576
0.0149568
0.0149559
0.014955
0.0149542
0.0149533
0.0149525
0.0149517
0.0149508
0.01495
0.0149492
0.0149484
0.0149476
0.0149467
0.0149459
0.0149452
0.0149444
0.0149436
0.0149428
0.014942
0.0149413
0.0149405
0.0149397
0.014939
0.0149382
0.0149375
0.0149367
0.014936
0.0149353
0.0149345
0.0149338
0.0149331
0.0149324
0.0149317
0.014931
0.0149303
0.0149296
0.0149289
0.0149282
0.0149275
0.0149268
0.0149262
0.0149255
0.0149248
0.0149242
0.0149235
0.0149228
0.0149222
0.0149216
0.0149209
0.0149203
0.0149196
0.014919
0.0149184
0.0149178
0.0149171
0.0149165
0.0149159
0.0149153
0.0149147
0.0149141
0.0149135
0.0149129
0.0149123
0.0149118
0.0149112
0.0149106
0.01491
0.0149095
0.0149089
0.0149084
0.0149078
0.0149072
0.0149067
0.0149061
0.0149056
0.0149051
0.0149045
0.014904
0.0149035
0.014903
0.0149024
0.0149019
0.0149014
0.0149009
0.0149004
0.0148999
0.0148994
0.0148989
0.0148984
0.0148979
0.0148974
0.0148969
0.0148965
0.014896
0.0148955
0.014895
0.0148946
0.0148941
0.0148937
0.0148932
0.0148927
0.0148923
0.0148919
0.0148914
0.014891
0.0148905
0.0148901
0.0148897
0.0148892
0.0148888
0.0148884
0.014888
0.0148875
0.0148871
0.0148867
0.0148863
0.0148859
0.0148855
0.0148851
0.0148847
0.0148843
0.0148839
0.0148835
0.0148831
0.0148827
0.0148823
0.0148819
0.0148815
0.0148812
0.0148808
0.0148804
0.01488
0.0148796
0.0148793
0.0148789
0.0148785
0.0148782
0.0148778
0.0148774
0.0148771
0.0148767
0.0148764
0.014876
0.0148757
0.0148753
0.0148749
0.0148746
0.0148742
0.0148739
0.0148736
0.0148732
0.0148729
0.0148725
0.0148722
0.0148718
0.0148715
0.0148712
0.0148708
0.0148705
0.0148702
0.0148698
0.0148695
0.0148692
0.0148688
0.0148685
0.0148682
0.0148678
0.0148675
0.0148672
0.0148669
0.0148665
0.0148662
0.0148659
0.0148656
0.0148652
0.0148649
0.0148646
0.0148643
0.014864
0.0148636
0.0148633
0.014863
0.0148627
0.0148624
0.014862
0.0148617
0.0148614
0.0148611
0.0148608
0.0148605
0.0148601
0.0148598
0.0148595
0.0148592
0.0148589
0.0148586
0.0148583
0.0148579
0.0148576
0.0148573
0.014857
0.0148567
0.0148564
0.0148561
0.0148558
0.0148554
0.0148551
0.0148548
0.0148545
0.0148542
0.0148539
0.0148536
0.0148533
0.0148529
0.0148526
0.0148523
0.014852
0.0148517
0.0148514
0.0148511
0.0148508
0.0148505
0.0148501
0.0148498
0.0148495
0.0148492
0.0148489
0.0148486
0.0148483
0.014848
0.0148477
0.0148474
0.014847
0.0148467
0.0148464
0.0148461
0.0148458
0.0148455
0.0148452
0.0148449
0.0148446
0.0148442
0.0148439
0.0148436
0.0148433
0.014843
0.0148427
0.0148424
0.0148421
0.0148418
0.0148415
0.0148411
0.0148408
0.0148405
0.0148402
0.0148399
0.0148396
0.0148393
0.014839
0.0148387
0.0148383
0.014838
0.0148377
0.0148374
0.0148371
0.0148368
0.0148365
0.0148362
0.0148359
0.0148356
0.0148352
0.0148349
0.0148346
0.0148343
0.014834
0.0148337
0.0148334
0.0148331
0.0148328
0.0148324
0.0148321
0.0148318
0.0148315
0.0148312
0.0148309
0.0148306
0.0148302
0.0148299
0.0148296
0.0148293
0.0148289
0.0148286
0.0148283
0.0148279
0.0148275
0.0148272
0.0148268
0.0148263
0.0148259
0.0148254
0.0148249
0.0148242
0.0148236
0.0148226
0.0148222
0.0148222
0.0148222
1
0.969192
0.495617
0.314223
0.237897
0.197396
0.172134
0.154697
0.141842
0.131929
0.124028
0.117574
0.112197
0.107646
0.103742
0.100355
0.0973869
0.0947626
0.0924238
0.0903245
0.0884278
0.0867039
0.0851285
0.0836815
0.0823464
0.0811094
0.0799587
0.0788845
0.0778785
0.0769336
0.0760436
0.0752031
0.0744077
0.0736532
0.0729363
0.0722537
0.0716027
0.070981
0.0703864
0.0698168
0.0692707
0.0687464
0.0682425
0.0677578
0.067291
0.0668411
0.066407
0.065988
0.0655832
0.0651918
0.0648131
0.0644464
0.0640912
0.0637469
0.063413
0.0630889
0.0627742
0.0624685
0.0621714
0.0618824
0.0616013
0.0613278
0.0610614
0.0608019
0.060549
0.0603025
0.0600621
0.0598276
0.0595987
0.0593752
0.059157
0.0589438
0.0587355
0.0585319
0.0583328
0.058138
0.0579475
0.0577611
0.0575786
0.0573999
0.0572248
0.0570534
0.0568854
0.0567208
0.0565594
0.0564012
0.056246
0.0560937
0.0559444
0.0557978
0.055654
0.0555127
0.0553741
0.0552379
0.0551041
0.0549727
0.0548436
0.0547167
0.054592
0.0544694
0.0543489
0.0542303
0.0541137
0.0539991
0.0538862
0.0537752
0.053666
0.0535585
0.0534527
0.0533485
0.0532459
0.0531449
0.0530455
0.0529475
0.052851
0.0527559
0.0526623
0.05257
0.052479
0.0523894
0.052301
0.0522139
0.0521281
0.0520434
0.0519599
0.0518776
0.0517964
0.0517163
0.0516374
0.0515594
0.0514826
0.0514067
0.0513319
0.051258
0.0511851
0.0511132
0.0510422
0.0509721
0.0509029
0.0508346
0.0507672
0.0507006
0.0506348
0.0505699
0.0505058
0.0504424
0.0503799
0.0503181
0.0502571
0.0501968
0.0501373
0.0500784
0.0500203
0.0499629
0.0499061
0.04985
0.0497946
0.0497398
0.0496857
0.0496322
0.0495793
0.0495271
0.0494754
0.0494243
0.0493739
0.049324
0.0492746
0.0492258
0.0491776
0.0491299
0.0490828
0.0490361
0.04899
0.0489444
0.0488993
0.0488547
0.0488106
0.048767
0.0487239
0.0486812
0.048639
0.0485973
0.048556
0.0485151
0.0484747
0.0484347
0.0483952
0.0483561
0.0483174
0.0482791
0.0482412
0.0482037
0.0481666
0.04813
0.0480936
0.0480577
0.0480222
0.047987
0.0479522
0.0479178
0.0478837
0.0478499
0.0478166
0.0477835
0.0477508
0.0477185
0.0476865
0.0476548
0.0476234
0.0475923
0.0475616
0.0475312
0.0475011
0.0474713
0.0474418
0.0474126
0.0473837
0.0473551
0.0473268
0.0472988
0.047271
0.0472436
0.0472164
0.0471895
0.0471628
0.0471364
0.0471103
0.0470845
0.0470589
0.0470335
0.0470085
0.0469836
0.046959
0.0469347
0.0469106
0.0468867
0.0468631
0.0468397
0.0468165
0.0467936
0.0467709
0.0467484
0.0467262
0.0467041
0.0466823
0.0466607
0.0466393
0.0466181
0.0465971
0.0465763
0.0465558
0.0465354
0.0465152
0.0464952
0.0464755
0.0464559
0.0464365
0.0464173
0.0463982
0.0463794
0.0463607
0.0463423
0.046324
0.0463058
0.0462879
0.0462701
0.0462525
0.0462351
0.0462178
0.0462007
0.0461838
0.046167
0.0461504
0.046134
0.0461177
0.0461015
0.0460855
0.0460697
0.046054
0.0460385
0.0460231
0.0460079
0.0459928
0.0459779
0.0459631
0.0459484
0.0459339
0.0459195
0.0459052
0.0458911
0.0458772
0.0458633
0.0458496
0.045836
0.0458225
0.0458092
0.045796
0.0457829
0.04577
0.0457571
0.0457444
0.0457318
0.0457193
0.045707
0.0456947
0.0456826
0.0456706
0.0456587
0.0456469
0.0456352
0.0456236
0.0456122
0.0456008
0.0455896
0.0455784
0.0455674
0.0455564
0.0455456
0.0455348
0.0455242
0.0455136
0.0455032
0.0454928
0.0454826
0.0454724
0.0454624
0.0454524
0.0454425
0.0454327
0.045423
0.0454134
0.0454039
0.0453944
0.0453851
0.0453758
0.0453666
0.0453575
0.0453485