# vtk DataFile Version 2.0
FlowField
ASCII
DATASET STRUCTURED_GRID
DIMENSIONS 800 1 200
POINTS 160000 float
0 0 0
0.04 0 0
0.08 0 0
0.12 0 0
0.16 0 0
0.2 0 0
0.24 0 0
0.28 0 0
0.32 0 0
0.36 0 0
0.4 0 0
0.44 0 0
0.48 0 0
0.52 0 0
0.56 0 0
0.6 0 0
0.64 0 0
0.68 0 0
0.72 0 0
0.76 0 0
0.8 0 0
0.84 0 0
0.88 0 0
0.92 0 0
0.96 0 0
1 0 0
1.04 0 0
1.08 0 0
1.12 0 0
1.16 0 0
1.2 0 0
1.24 0 0
1.28 0 0
1.32 0 0
1.36 0 0
1.4 0 0
1.44 0 0
1.48 0 0
1.52 0 0
1.56 0 0
1.6 0 0
1.64 0 0
1.68 0 0
1.72 0 0
1.76 0 0
1.8 0 0
1.84 0 0
1.88 0 0
1.92 0 0
1.96 0 0
2 0 0
2.04 0 0
2.08 0 0
2.12 0 0
2.16 0 0
2.2 0 0
2.24 0 0
2.28 0 0
2.32 0 0
2.36 0 0
2.4 0 0
2.44 0 0
2.48 0 0
2.52 0 0
2.56 0 0
2.6 0 0
2.64 0 0
2.68 0 0
2.72 0 0
2.76 0 0
2.8 0 0
2.84 0 0
2.88 0 0
2.92 0 0
2.96 0 0
3 0 0
3.04 0 0
3.08 0 0
3.12 0 0
3.16 0 0
3.2 0 0
3.24 0 0
3.28 0 0
3.32 0 0
3.36 0 0
3.4 0 0
3.44 0 0
3.48 0 0
3.52 0 0
3.56 0 0
3.6 0 0
3.64 0 0
3.68 0 0
3.72 0 0
3.76 0 0
3.8 0 0
3.84 0 0
3.88 0 0
3.92 0 0
3.96 0 0
4 0 0
4.04 0 0
4.08 0 0
4.12 0 0
4.16 0 0
4.2 0 0
4.24 0 0
4.28 0 0
4.32 0 0
4.36 0 0
4.4 0 0
4.44 0 0
4.48 0 0
4.52 0 0
4.56 0 0
4.6 0 0
4.64 0 0
4.68 0 0
4.72 0 0
4.76 0 0
4.8 0 0
4.84 0 0
4.88 0 0
4.92 0 0
4.96 0 0
5 0 0
5.04 0 0
5.08 0 0
5.12 0 0
5.16 0 0
5.2 0 0
5.24 0 0
5.28 0 0
5.32 0 0
5.36 0 0
5.4 0 0
5.44 0 0
5.48 0 0
5.52 0 0
5.56 0 0
5.6 0 0
5.64 0 0
5.68 0 0
5.72 0 0
5.76 0 0
5.8 0 0
5.84 0 0
5.88 0 0
5.92 0 0
5.96 0 0
6 0 0
6.04 0 0
6.08 0 0
6.12 0 0
6.16 0 0
6.2 0 0
6.24 0 0
6.28 0 0
6.32 0 0
6.36 0 0
6.4 0 0
6.44 0 0
6.48 0 0
6.52 0 0
6.56 0 0
6.6 0 0
6.64 0 0
6.68 0 0
6.72 0 0
6.76 0 0
6.8 0 0
6.84 0 0
6.88 0 0
6.92 0 0
6.96 0 0
7 0 0
7.04 0 0
7.08 0 0
7.12 0 0
7.16 0 0
7.2 0 0
7.24 0 0
7.28 0 0
7.32 0 0
7.36 0 0
7.4 0 0
7.44 0 0
7.48 0 0
7.52 0 0
7.56 0 0
7.6 0 0
7.64 0 0
7.68 0 0
7.72 0 0
7.76 0 0
7.8 0 0
7.84 0 0
7.88 0 0
7.92 0 0
7.96 0 0
8 0 0
8.04 0 0
8.08 0 0
8.12 0 0
8.16 0 0
8.2 0 0
8.24 0 0
8.28 0 0
8.32 0 0
8.36 0 0
8.4 0 0
8.44 0 0
8.48 0 0
8.52 0 0
8.56 0 0
8.6 0 0
8.64 0 0
8.68 0 0
8.72 0 0
8.76 0 0
8.8 0 0
8.84 0 0
8.88 0 0
8.92 0 0
8.96 0 0
9 0 0
9.04 0 0
9.08 0 0
9.12 0 0
9.16 0 0
9.2 0 0
9.24 0 0
9.28 0 0
9.32 0 0
9.36 0 0
9.4 0 0
9.44 0 0
9.48 0 0
9.52 0 0
9.56 0 0
9.6 0 0
9.64 0 0
9.68 0 0
9.72 0 0
9.76 0 0
9.8 0 0
9.84 0 0
9.88 0 0
9.92 0 0
9.96 0 0
10 0 0
10.04 0 0
10.08 0 0
10.12 0 0
10.16 0 0
10.2 0 0
10.24 0 0
10.28 0 0
10.32 0 0
10.36 0 0
10.4 0 0
10.44 0 0
10.48 0 0
10.52 0 0
10.56 0 0
10.6 0 0
10.64 0 0
10.68 0 0
10.72 0 0
10.76 0 0
10.8 0 0
10.84 0 0
10.88 0 0
10.92 0 0
10.96 0 0
11 0 0
11.04 0 0
11.08 0 0
11.12 0 0
11.16 0 0
11.2 0 0
11.24 0 0
11.28 0 0
11.32 0 0
11.36 0 0
11.4 0 0
11.44 0 0
11.48 0 0
11.52 0 0
11.56 0 0
11.6 0 0
11.64 0 0
11.68 0 0
11.72 0 0
11.76 0 0
11.8 0 0
11.84 0 0
11.88 0 0
11.92 0 0
11.96 0 0
12 0 0
12.04 0 0
12.08 0 0
12.12 0 0
12.16 0 0
12.2 0 0
12.24 0 0
12.28 0 0
12.32 0 0
12.36 0 0
12.4 0 0
12.44 0 0
12.48 0 0
12.52 0 0
12.56 0 0
12.6 0 0
12.64 0 0
12.68 0 0
12.72 0 0
12.76 0 0
12.8 0 0
12.84 0 0
12.88 0 0
12.92 0 0
12.96 0 0
13 0 0
13.04 0 0
13.08 0 0
13.12 0 0
13.16 0 0
13.2 0 0
13.24 0 0
13.28 0 0
13.32 0 0
13.36 0 0
13.4 0 0
13.44 0 0
13.48 0 0
13.52 0 0
13.56 0 0
13.6 0 0
13.64 0 0
13.68 0 0
13.72 0 0
13.76 0 0
13.8 0 0
13.84 0 0
13.88 0 0
13.92 0 0
13.96 0 0
14 0 0
14.04 0 0
14.08 0 0
14.12 0 0
14.16 0 0
14.2 0 0
14.24 0 0
14.28 0 0
14.32 0 0
14.36 0 0
14.4 0 0
14.44 0 0
14.48 0 0
14.52 0 0
14.56 0 0
14.6 0 0
14.64 0 0
14.68 0 0
14.72 0 0
14.76 0 0
14.8 0 0
14.84 0 0
14.88 0 0
14.92 0 0
14.96 0 0
15 0 0
15.04 0 0
15.08 0 0
15.12 0 0
15.16 0 0
15.2 0 0
15.24 0 0
15.28 0 0
15.32 0 0
15.36 0 0
15.4 0 0
15.44 0 0
15.48 0 0
15.52 0 0
15.56 0 0
15.6 0 0
15.64 0 0
15.68 0 0
15.72 0 0
15.76 0 0
15.8 0 0
15.84 0 0
15.88 0 0
15.92 0 0
15.96 0 0
16 0 0
16.04 0 0
16.08 0 0
16.12 0 0
16.16 0 0
16.2 0 0
16.24 0 0
16.28 0 0
16.32 0 0
16.36 0 0
16.4 0 0
16.44 0 0
16.48 0 0
16.52 0 0
16.56 0 0
16.6 0 0
16.64 0 0
16.68 0 0
16.72 0 0
16.76 0 0
16.8 0 0
16.84 0 0
16.88 0 0
16.92 0 0
16.96 0 0
17 0 0
17.04 0 0
17.08 0 0
17.12 0 0
17.16 0 0
17.2 0 0
17.24 0 0
17.28 0 0
17.32 0 0
17.36 0 0
17.4 0 0
17.44 0 0
17.48 0 0
17.52 0 0
17.56 0 0
17.6 0 0
17.64 0 0
17.68 0 0
17.72 0 0
17.76 0 0
17.8 0 0
17.84 0 0
17.88 0 0
17.92 0 0
17.96 0 0
18 0 0
18.04 0 0
18.08 0 0
18.12 0 0
18.16 0 0
18.2 0 0
18.24 0 0
18.28 0 0
18.32 0 0
18.36 0 0
18.4 0 0
18.44 0 0
18.48 0 0
18.52 0 0
18.56 0 0
18.6 0 0
18.64 0 0
18.68 0 0
18.72 0 0
18.76 0 0
18.8 0 0
18.84 0 0
18.88 0 0
18.92 0 0
18.96 0 0
19 0 0
19.04 0 0
19.08 0 0
19.12 0 0
19.16 0 0
19.2 0 0
19.24 0 0
19.28 0 0
19.32 0 0
19.36 0 0
19.4 0 0
19.44 0 0
19.48 0 0
19.52 0 0
19.56 0 0
19.6 0 0
19.64 0 0
19.68 0 0
19.72 0 0
19.76 0 0
19.8 0 0
19.84 0 0
19.88 0 0
19.92 0 0
19.96 0 0
20 0 0
20.04 0 0
20.08 0 0
20.12 0 0
20.16 0 0
20.2 0 0
20.24 0 0
20.28 0 0
20.32 0 0
20.36 0 0
20.4 0 0
20.44 0 0
20.48 0 0
20.52 0 0
20.56 0 0
20.6 0 0
20.64 0 0
20.68 0 0
20.72 0 0
20.76 0 0
20.8 0 0
20.84 0 0
20.88 0 0
20.92 0 0
20.96 0 0
21 0 0
21.04 0 0
21.08 0 0
21.12 0 0
21.16 0 0
21.2 0 0
21.24 0 0
21.28 0 0
21.32 0 0
21.36 0 0
21.4 0 0
21.44 0 0
21.48 0 0
21.52 0 0
21.56 0 0
21.6 0 0
21.64 0 0
21.68 0 0
21.72 0 0
21.76 0 0
21.8 0 0
21.84 0 0
21.88 0 0
21.92 0 0
21.96 0 0
22 0 0
22.04 0 0
22.08 0 0
22.12 0 0
22.16 0 0
22.2 0 0
22.24 0 0
22.28 0 0
22.32 0 0
22.36 0 0
22.4 0 0
22.44 0 0
22.48 0 0
22.52 0 0
22.56 0 0
22.6 0 0
22.64 0 0
22.68 0 0
22.72 0 0
22.76 0 0
22.8 0 0
22.84 0 0
22.88 0 0
22.92 0 0
22.96 0 0
23 0 0
23.04 0 0
23.08 0 0
23.12 0 0
23.16 0 0
23.2 0 0
23.24 0 0
23.28 0 0
23.32 0 0
23.36 0 0
23.4 0 0
23.44 0 0
23.48 0 0
23.52 0 0
23.56 0 0
23.6 0 0
23.64 0 0
23.68 0 0
23.72 0 0
23.76 0 0
23.8 0 0
23.84 0 0
23.88 0 0
23.92 0 0
23.96 0 0
24 0 0
24.04 0 0
24.08 0 0
24.12 0 0
24.16 0 0
24.2 0 0
24.24 0 0
24.28 0 0
24.32 0 0
24.36 0 0
24.4 0 0
24.44 0 0
24.48 0 0
24.52 0 0
24.56 0 0
24.6 0 0
24.64 0 0
24.68 0 0
24.72 0 0
24.76 0 0
24.8 0 0
24.84 0 0
24.88 0 0
24.92 0 0
24.96 0 0
25 0 0
25.04 0 0
25.08 0 0
25.12 0 0
25.16 0 0
25.2 0 0
25.24 0 0
25.28 0 0
25.32 0 0
25.36 0 0
25.4 0 0
25.44 0 0
25.48 0 0
25.52 0 0
25.56 0 0
25.6 0 0
25.64 0 0
25.68 0 0
25.72 0 0
25.76 0 0
25.8 0 0
25.84 0 0
25.88 0 0
25.92 0 0
25.96 0 0
26 0 0
26.04 0 0
26.08 0 0
26.12 0 0
26.16 0 0
26.2 0 0
26.24 0 0
26.28 0 0
26.32 0 0
26.36 0 0
26.4 0 0
26.44 0 0
26.48 0 0
26.52 0 0
26.56 0 0
26.6 0 0
26.64 0 0
26.68 0 0
26.72 0 0
26.76 0 0
26.8 0 0
26.84 0 0
26.88 0 0
26.92 0 0
26.96 0 0
27 0 0
27.04 0 0
27.08 0 0
27.12 0 0
27.16 0 0
27.2 0 0
27.24 0 0
27.28 0 0
27.32 0 0
27.36 0 0
27.4 0 0
27.44 0 0
27.48 0 0
27.52 0 0
27.56 0 0
27.6 0 0
27.64 0 0
27.68 0 0
27.72 0 0
27.76 0 0
27.8 0 0
27.84 0 0
27.88 0 0
27.92 0 0
27.96 0 0
28 0 0
28.04 0 0
28.08 0 0
28.12 0 0
28.16 0 0
28.2 0 0
28.24 0 0
28.28 0 0
28.32 0 0
28.36 0 0
28.4 0 0
28.44 0 0
28.48 0 0
28.52 0 0
28.56 0 0
28.6 0 0
28.64 0 0
28.68 0 0
28.72 0 0
28.76 0 0
28.8 0 0
28.84 0 0
28.88 0 0
28.92 0 0
28.96 0 0
29 0 0
29.04 0 0
29.08 0 0
29.12 0 0
29.16 0 0
29.2 0 0
29.24 0 0
29.28 0 0
29.32 0 0
29.36 0 0
29.4 0 0
29.44 0 0
29.48 0 0
29.52 0 0
29.56 0 0
29.6 0 0
29.64 0 0
29.68 0 0
29.72 0 0
29.76 0 0
29.8 0 0
29.84 0 0
29.88 0 0
29.92 0 0
29.96 0 0
30 0 0
30.04 0 0
30.08 0 0
30.12 0 0
30.16 0 0
30.2 0 0
30.24 0 0
30.28 0 0
30.32 0 0
30.36 0 0
30.4 0 0
30.44 0 0
30.48 0 0
30.52 0 0
30.56 0 0
30.6 0 0
30.64 0 0
30.68 0 0
30.72 0 0
30.76 0 0
30.8 0 0
30.84 0 0
30.88 0 0
30.92 0 0
30.96 0 0
31 0 0
31.04 0 0
31.08 0 0
31.12 0 0
31.16 0 0
31.2 0 0
31.24 0 0
31.28 0 0
31.32 0 0
31.36 0 0
31.4 0 0
31.44 0 0
31.48 0 0
31.52 0 0
31.56 0 0
31.6 0 0
31.64 0 0
31.68 0 0
31.72 0 0
31.76 0 0
31.8 0 0
31.84 0 0
31.88 0 0
31.92 0 0
31.96 0 0
0 0.005 0
0.04 0.005 0
0.08 0.005 0
0.12 0.005 0
0.16 0.005 0
0.2 0.005 0
0.24 0.005 0
0.28 0.005 0
0.32 0.005 0
0.36 0.005 0
0.4 0.005 0
0.44 0.005 0
0.48 0.005 0
0.52 0.005 0
0.56 0.005 0
0.6 0.005 0
0.64 0.005 0
0.68 0.005 0
0.72 0.005 0
0.76 0.005 0
0.8 0.005 0
0.84 0.005 0
0.88 0.005 0
0.92 0.005 0
0.96 0.005 0
1 0.005 0
1.04 0.005 0
1.08 0.005 0
1.12 0.005 0
1.16 0.005 0
1.2 0.005 0
1.24 0.005 0
1.28 0.005 0
1.32 0.005 0
1.36 0.005 0
1.4 0.005 0
1.44 0.005 0
1.48 0.005 0
1.52 0.005 0
1.56 0.005 0
1.6 0.005 0
1.64 0.005 0
1.68 0.005 0
1.72 0.005 0
1.76 0.005 0
1.8 0.005 0
1.84 0.005 0
1.88 0.005 0
1.92 0.005 0
1.96 0.005 0
2 0.005 0
2.04 0.005 0
2.08 0.005 0
2.12 0.005 0
2.16 0.005 0
2.2 0.005 0
2.24 0.005 0
2.28 0.005 0
2.32 0.005 0
2.36 0.005 0
2.4 0.005 0
2.44 0.005 0
2.48 0.005 0
2.52 0.005 0
2.56 0.005 0
2.6 0.005 0
2.64 0.005 0
2.68 0.005 0
2.72 0.005 0
2.76 0.005 0
2.8 0.005 0
2.84 0.005 0
2.88 0.005 0
2.92 0.005 0
2.96 0.005 0
3 0.005 0
3.04 0.005 0
3.08 0.005 0
3.12 0.005 0
3.16 0.005 0
3.2 0.005 0
3.24 0.005 0
3.28 0.005 0
3.32 0.005 0
3.36 0.005 0
3.4 0.005 0
3.44 0.005 0
3.48 0.005 0
3.52 0.005 0
3.56 0.005 0
3.6 0.005 0
3.64 0.005 0
3.68 0.005 0
3.72 0.005 0
3.76 0.005 0
3.8 0.005 0
3.84 0.005 0
3.88 0.005 0
3.92 0.005 0
3.96 0.005 0
4 0.005 0
4.04 0.005 0
4.08 0.005 0
4.12 0.005 0
4.16 0.005 0
4.2 0.005 0
4.24 0.005 0
4.28 0.005 0
4.32 0.005 0
4.36 0.005 0
4.4 0.005 0
4.44 0.005 0
4.48 0.005 0
4.52 0.005 0
4.56 0.005 0
4.6 0.005 0
4.64 0.005 0
4.68 0.005 0
4.72 0.005 0
4.76 0.005 0
4.8 0.005 0
4.84 0.005 0
4.88 0.005 0
4.92 0.005 0
4.96 0.005 0
5 0.005 0
5.04 0.005 0
5.08 0.005 0
5.12 0.005 0
5.16 0.005 0
5.2 0.005 0
5.24 0.005 0
5.28 0.005 0
5.32 0.005 0
5.36 0.005 0
5.4 0.005 0
5.44 0.005 0
5.48 0.005 0
5.52 0.005 0
5.56 0.005 0
5.6 0.005 0
5.64 0.005 0
5.68 0.005 0
5.72 0.005 0
5.76 0.005 0
5.8 0.005 0
5.84 0.005 0
5.88 0.005 0
5.92 0.005 0
5.96 0.005 0
6 0.005 0
6.04 0.005 0
6.08 0.005 0
6.12 0.005 0
6.16 0.005 0
6.2 0.005 0
6.24 0.005 0
6.28 0.005 0
6.32 0.005 0
6.36 0.005 0
6.4 0.005 0
6.44 0.005 0
6.48 0.005 0
6.52 0.005 0
6.56 0.005 0
6.6 0.005 0
6.64 0.005 0
6.68 0.005 0
6.72 0.005 0
6.76 0.005 0
6.8 0.005 0
6.84 0.005 0
6.88 0.005 0
6.92 0.005 0
6.96 0.005 0
7 0.005 0
7.04 0.005 0
7.08 0.005 0
7.12 0.005 0
7.16 0.005 0
7.2 0.005 0
7.24 0.005 0
7.28 0.005 0
7.32 0.005 0
7.36 0.005 0
7.4 0.005 0
[...]
POINT_DATA 160000

SCALARS p float 1
LOOKUP_TABLE default
1
40.5364
38.321
38.0661
38.0059
37.9795
37.9635
37.9519
37.9427
37.9348
37.9279
37.9215
37.9156
37.9101
37.9048
37.8997
37.8947
37.8899
37.8852
37.8805
37.876
37.8715
37.8671
37.8628
37.8585
37.8543
37.8502
37.846
37.842
37.838
37.834
37.8301
37.8262
37.8224
37.8186
37.8148
37.8111
37.8075
37.8038
37.8002
37.7967
37.7931
37.7896
37.7862
37.7828
37.7794
37.776
37.7727
37.7694
37.7661
37.7628
37.7596
37.7564
37.7532
37.7501
37.747
37.7439
37.7408
37.7377
37.7347
37.7317
37.7287
37.7257
37.7228
37.7198
37.7169
37.714
37.7111
37.7083
37.7054
37.7026
37.6998
37.697
37.6943
37.6915
37.6888
37.686
37.6833
37.6806
37.6779
37.6753
37.6726
37.67
37.6673
37.6647
37.6621
37.6595
37.6569
37.6544
37.6518
37.6493
37.6468
37.6442
37.6417
37.6392
37.6367
37.6343
37.6318
37.6293
37.6269
37.6245
37.622
37.6196
37.6172
37.6148
37.6124
37.6101
37.6077
37.6053
37.603
37.6006
37.5983
37.596
37.5936
37.5913
37.589
37.5867
37.5845
37.5822
37.5799
37.5776
37.5754
37.5731
37.5709
37.5687
37.5664
37.5642
37.562
37.5598
37.5576
37.5554
37.5532
37.551
37.5488
37.5467
37.5445
37.5424
37.5402
37.5381
37.5359
37.5338
37.5317
37.5296
37.5274
37.5253
37.5232
37.5211
37.519
37.5169
37.5149
37.5128
37.5107
37.5086
37.5066
37.5045
37.5025
37.5004
37.4984
37.4964
37.4943
37.4923
37.4903
37.4882
37.4862
37.4842
37.4822
37.4802
37.4782
37.4762
37.4742
37.4723
37.4703
37.4683
37.4663
37.4644
37.4624
37.4604
37.4585
37.4565
37.4546
37.4526
37.4507
37.4488
37.4468
37.4449
37.443
37.4411
37.4391
37.4372
37.4353
37.4334
37.4315
37.4296
37.4277
37.4258
37.4239
37.422
37.4201
37.4183
37.4164
37.4145
37.4126
37.4108
37.4089
37.407
37.4052
37.4033
37.4015
37.3996
37.3978
37.3959
37.3941
37.3922
37.3904
37.3886
37.3867
37.3849
37.3831
37.3812
37.3794
37.3776
37.3758
37.374
37.3722
37.3704
37.3685
37.3667
37.3649
37.3631
37.3613
37.3595
37.3578
37.356
37.3542
37.3524
37.3506
37.3488
37.347
37.3453
37.3435
37.3417
37.34
37.3382
37.3364
37.3347
37.3329
37.3311
37.3294
37.3276
37.3259
37.3241
37.3224
37.3206
37.3189
37.3171
37.3154
37.3136
37.3119
37.3101
37.3084
37.3067
37.3049
37.3032
37.3015
37.2998
37.298
37.2963
37.2946
37.2929
37.2911
37.2894
37.2877
37.286
37.2843
37.2826
37.2809
37.2791
37.2774
37.2757
37.274
37.2723
37.2706
37.2689
37.2672
37.2655
37.2638
37.2621
37.2604
37.2588
37.2571
37.2554
37.2537
37.252
37.2503
37.2486
37.2469
37.2453
37.2436
37.2419
37.2402
37.2385
37.2369
37.2352
37.2335
37.2319
37.2302
37.2285
37.2268
37.2252
37.2235
37.2218
37.2202
37.2185
37.2169
37.2152
37.2135
37.2119
37.2102
37.2086
37.2069
37.2052
37.2036
37.2019
37.2003
37.1986
37.197
37.1953
37.1937
37.192
37.1904
37.1887
37.1871
37.1854
37.1838
37.1822
37.1805
37.1789
37.1772
37.1756
37.174
37.1723
37.1707
37.1691
37.1674
37.1658
37.1641
37.1625
37.1609
37.1593
37.1576
37.156
37.1544
37.1527
37.1511
37.1495
37.1479
37.1462
37.1446
37.143
37.1414
37.1397
37.1381
37.1365
37.1349
37.1332
37.1316
37.13
37.1284
37.1268
37.1252
37.1235
37.1219
37.1203
37.1187
37.1171
37.1155
37.1138
37.1122
37.1106
37.109
37.1074
37.1058
37.1042
37.1026
37.101
37.0994
37.0977
37.0961
37.0945
37.0929
37.0913
37.0897
37.0881
37.0865
37.0849
37.0833
37.0817
37.0801
37.0785
37.0769
37.0753
37.0737
37.0721
37.0705
37.0689
37.0673
37.0657
37.0641
37.0625
37.0609
37.0593
37.0577
37.0561
37.0545
37.0529
37.0513
37.0497
37.0481
37.0466
37.045
37.0434
37.0418
37.0402
37.0386
37.037
37.0354
37.0338
37.0322
37.0306
37.0291
37.0275
37.0259
37.0243
37.0227
37.0211
37.0195
37.0179
37.0164
37.0148
37.0132
37.0116
37.01
37.0084
37.0068
37.0053
37.0037
37.0021
37.0005
36.9989
36.9974
36.9958
36.9942
36.9926
36.991
36.9894
36.9879
36.9863
36.9847
36.9831
36.9815
36.98
36.9784
36.9768
36.9752
36.9737
36.9721
36.9705
36.9689
36.9674
36.9658
36.9642
36.9626
36.961
36.9595
36.9579
36.9563
36.9547
36.9532
36.9516
36.95
36.9485
36.9469
36.9453
36.9437
36.9422
36.9406
36.939
36.9375
36.9359
36.9343
36.9327
36.9312
36.9296
36.928
36.9265
36.9249
36.9233
36.9218
36.9202
36.9186
36.917
36.9155
36.9139
36.9123
36.9108
36.9092
36.9076
36.9061
36.9045
36.9029
36.9014
36.8998
36.8982
36.8967
36.8951
36.8936
36.892
36.8904
36.8889
36.8873
36.8857
36.8842
36.8826
36.881
36.8795
36.8779
36.8763
36.8748
36.8732
36.8717
36.8701
36.8685
36.867
36.8654
36.8638
36.8623
36.8607
36.8592
36.8576
36.856
36.8545
36.8529
36.8513
36.8498
36.8482
36.8467
36.8451
36.8435
36.842
36.8404
36.8389
36.8373
36.8357
36.8342
36.8326
36.8311
36.8295
36.8279
36.8264
36.8248
36.8233
36.8217
36.8201
36.8186
36.817
36.8155
36.8139
36.8123
36.8108
36.8092
36.8077
36.8061
36.8046
36.803
36.8014
36.7999
36.7983
36.7968
36.7952
36.7936
36.7921
36.7905
36.789
36.7874
36.7859
36.7843
36.7827
36.7812
36.7796
36.7781
36.7765
36.775
36.7734
36.7718
36.7703
36.7687
36.7672
36.7656
36.764
36.7625
36.7609
36.7594
36.7578
36.7563
36.7547
36.7531
36.7516
36.75
36.7485
36.7469
36.7454
36.7438
36.7422
36.7407
36.7391
36.7376
36.736
36.7345
36.7329
36.7313
36.7298
36.7282
36.7267
36.7251
36.7236
36.722
36.7205
36.7189
36.7173
36.7158
36.7142
36.7127
36.7111
36.7096
36.708
36.7064
36.7049
36.7033
36.7018
36.7002
36.6987
36.6971
36.6956
36.694
36.6924
36.6909
36.6893
36.6878
36.6862
36.6847
36.6831
36.6816
36.68
36.6784
36.6769
36.6753
36.6738
36.6722
36.6707
36.6691
36.6676
36.666
36.6644
36.6629
36.6613
36.6598
36.6582
36.6567
36.6551
36.6536
36.652
36.6504
36.6489
36.6473
36.6458
36.6442
36.6427
36.6411
36.6396
36.638
36.6364
36.6349
36.6333
36.6318
36.6302
36.6287
36.6271
36.6256
36.624
36.6225
36.6209
36.6193
36.6178
36.6162
36.6147
36.6131
36.6116
36.61
36.6085
36.6069
36.6054
36.6038
36.6023
36.6007
36.5991
36.5976
36.596
36.5945
36.5929
36.5914
36.5898
36.5883
36.5867
36.5852
36.5836
36.5821
36.5805
36.5789
36.5774
36.5758
36.5743
36.5727
36.5712
36.5696
36.5681
36.5665
36.565
36.5634
36.5619
36.5603
36.5588
36.5572
36.5556
36.5541
36.5525
36.551
36.5494
36.5479
36.5463
36.5448
36.5432
36.5417
36.5401
36.5386
36.537
36.5355
36.5339
36.5324
36.5308
36.5292
36.5277
36.5261
36.5246
36.523
36.5215
36.5199
36.5184
36.5168
36.5153
36.5137
36.5122
36.5106
36.5091
36.5075
36.506
36.5044
36.5029
36.5013
36.4998
36.4982
36.4966
36.4951
36.4935
36.492
36.4904
36.4889
36.4873
36.4858
36.4842
36.4827
36.4811
36.4796
36.478
36.4765
36.4749
36.4734
36.4718
36.4703
36.4687
36.4672
36.4656
36.4641
36.4625
36.461
36.4594
36.4579
36.4563
36.4548
36.4532
1
40.5364
40.5364
38.321
38.0661
38.0059
37.9795
37.9635
37.9519
37.9427
37.9348
37.9279
37.9215
37.9156
37.9101
37.9048
37.8997
37.8947
37.8899
37.8852
37.8805
37.876
37.8715
37.8671
37.8628
37.8585
37.8543
37.8502
37.846
37.842
37.838
37.834
37.8301
37.8262
37.8224
37.8186
37.8148
37.8111
37.8075
37.8038
37.8002
37.7967
37.7931
37.7896
37.7862
37.7828
37.7794
37.776
37.7727
37.7694
37.7661
37.7628
37.7596
37.7564
37.7532
37.7501
37.747
37.7439
37.7408
37.7377
37.7347
37.7317
37.7287
37.7257
37.7228
37.7198
37.7169
37.714
37.7111
37.7083
37.7054
37.7026
37.6998
37.697
37.6943
37.6915
37.6888
37.686
37.6833
37.6806
37.6779
37.6753
37.6726
37.67
37.6673
37.6647
37.6621
37.6595
37.6569
37.6544
37.6518
37.6493
37.6468
37.6442
37.6417
37.6392
37.6367
37.6343
37.6318
37.6293
37.6269
37.6245
37.622
37.6196
37.6172
37.6148
37.6124
37.6101
37.6077
37.6053
37.603
37.6006
37.5983
37.596
37.5936
37.5913
37.589
37.5867
37.5845
37.5822
37.5799
37.5776
37.5754
37.5731
37.5709
37.5687
37.5664
37.5642
37.562
37.5598
37.5576
37.5554
37.5532
37.551
37.5488
37.5467
37.5445
37.5424
37.5402
37.5381
37.5359
37.5338
37.5317
37.5296
37.5274
37.5253
37.5232
37.5211
37.519
37.5169
37.5149
37.5128
37.5107
37.5086
37.5066
37.5045
37.5025
37.5004
37.4984
37.4964
37.4943
37.4923
37.4903
37.4882
37.4862
37.4842
37.4822
37.4802
37.4782
37.4762
37.4742
37.4723
37.4703
37.4683
37.4663
37.4644
37.4624
37.4604
37.4585
37.4565
37.4546
37.4526
37.4507
37.4488
37.4468
37.4449
37.443
37.4411
37.4391
37.4372
37.4353
37.4334
37.4315
37.4296
37.4277
37.4258
37.4239
37.422
37.4201
37.4183
37.4164
37.4145
37.4126
37.4108
37.4089
37.407
37.4052
37.4033
37.4015
37.3996
37.3978
37.3959
37.3941
37.3922
37.3904
37.3886
37.3867
37.3849
37.3831
37.3812
37.3794
37.3776
37.3758
37.374
37.3722
37.3704
37.3685
37.3667
37.3649
37.3631
37.3613
37.3595
37.3578
37.356
37.3542
37.3524
37.3506
37.3488
37.347
37.3453
37.3435
37.3417
37.34
37.3382
37.3364
37.3347
37.3329
37.3311
37.3294
37.3276
37.3259
37.3241
37.3224
37.3206
37.3189
37.3171
37.3154
37.3136
37.3119
37.3101
37.3084
37.3067
37.3049
37.3032
37.3015
37.2998
37.298
37.2963
37.2946
37.2929
37.2911
37.2894
37.2877
37.286
37.2843
37.2826
37.2809
37.2791
37.2774
37.2757
37.274
37.2723
37.2706
37.2689
37.2672
37.2655
37.2638
37.2621
37.2604
37.2588
37.2571
37.2554
37.2537
37.252
37.2503
37.2486
37.2469
37.2453
37.2436
37.2419
37.2402
37.2385
37.2369
37.2352
37.2335
37.2319
37.2302
37.2285
37.2268
37.2252
37.2235
37.2218
37.2202
37.2185
37.2169
37.2152
37.2135
37.2119
37.2102
37.2086
37.2069
37.2052
37.2036
37.2019
37.2003
37.1986
37.197
37.1953
37.1937
37.192
37.1904
37.1887
37.1871
37.1854
37.1838
37.1822
37.1805
37.1789
37.1772
37.1756
37.174
37.1723
37.1707
37.1691
37.1674
37.1658
37.1641
37.1625
37.1609
37.1593
37.1576
37.156
37.1544
37.1527
37.1511
37.1495
37.1479
37.1462
37.1446
37.143
37.1414
37.1397
37.1381
37.1365
37.1349
37.1332
37.1316
37.13
37.1284
37.1268
37.1252
37.1235
37.1219
37.1203
37.1187
37.1171
37.1155
37.1138
37.1122
37.1106
37.109
37.1074
37.1058
37.1042
37.1026
37.101
37.0994
37.0977
37.0961
37.0945
37.0929
37.0913
37.0897
37.0881
37.0865
37.0849
37.0833
37.0817
37.0801
37.0785
37.0769
37.0753
37.0737
37.0721
37.0705
37.0689
37.0673
37.0657
37.0641
37.0625
37.0609
37.0593
37.0577
37.0561
37.0545
37.0529
37.0513
37.0497
37.0481
37.0466
37.045
37.0434
37.0418
37.0402
37.0386
37.037
37.0354
37.0338
37.0322
37.0306
37.0291
37.0275
37.0259
37.0243
37.0227
37.0211
37.0195
37.0179
37.0164
37.0148
37.0132
37.0116
37.01
37.0084
37.0068
37.0053
37.0037
37.0021
37.0005
36.9989
36.9974
36.9958
36.9942
36.9926
36.991
36.9894
36.9879
36.9863
36.9847
36.9831
36.9815
36.98
36.9784
36.9768
36.9752
36.9737
36.9721
36.9705
36.9689
36.9674
36.9658
36.9642
36.9626
36.961
36.9595
36.9579
36.9563
36.9547
36.9532
36.9516
36.95
36.9485
36.9469
36.9453
36.9437
36.9422
36.9406
36.939
36.9375
36.9359
36.9343
36.9327
36.9312
36.9296
36.928
36.9265
36.9249
36.9233
36.9218
36.9202
36.9186
36.917
36.9155
36.9139
36.9123
36.9108
36.9092
36.9076
36.9061
36.9045
36.9029
36.9014
36.8998
36.8982
36.8967
36.8951
36.8936
36.892
36.8904
36.8889
36.8873
36.8857
36.8842
36.8826
36.881
36.8795
36.8779
36.8763
36.8748
36.8732
36.8717
36.8701
36.8685
36.867
36.8654
36.8638
36.8623
36.8607
36.8592
36.8576
36.856
36.8545
36.8529
36.8513
36.8498
36.8482
36.8467
36.8451
36.8435
36.842
36.8404
36.8389
36.8373
36.8357
36.8342
36.8326
36.8311
36.8295
36.8279
36.8264
36.8248
36.8233
36.8217
36.8201
36.8186
36.817
36.8155
36.8139
36.8123
36.8108
36.8092
36.8077
36.8061
36.8046
36.803
36.8014
36.7999
36.7983
36.7968
36.7952
36.7936
36.7921
36.7905
36.789
36.7874
36.7859
36.7843
36.7827
36.7812
36.7796
36.7781
36.7765
36.775
36.7734
36.7718
36.7703
36.7687
36.7672
36.7656
36.764
36.7625
36.7609
36.7594
36.7578
36.7563
36.7547
36.7531
36.7516
36.75
36.7485
36.7469
36.7454
36.7438
36.7422
36.7407
36.7391
36.7376
36.736
36.7345
36.7329
36.7313
36.7298
36.7282
36.7267
36.7251
36.7236
36.722
36.7205
36.7189
36.7173
36.7158
36.7142
36.7127
36.7111
36.7096
36.708
36.7064
36.7049
36.7033
36.7018
36.7002
36.6987
36.6971
36.6956
36.694
36.6924
36.6909
36.6893
36.6878
36.6862
36.6847
36.6831
36.6816
36.68
36.6784
36.6769
36.6753
36.6738
36.6722
36.6707
36.6691
36.6676
36.666
36.6644
36.6629
36.6613
36.6598
36.6582
36.6567
36.6551
36.6536
36.652
36.6504
36.6489
36.6473
36.6458
36.6442
36.6427
36.6411
36.6396
36.638
36.6364
36.6349
36.6333
36.6318
36.6302
36.6287
36.6271
36.6256
36.624
36.6225
36.6209
36.6193
36.6178
36.6162
36.6147
36.6131
36.6116
36.61
36.6085
36.6069
36.6054
36.6038
36.6023
36.6007
36.5991
36.5976
36.596
36.5945
36.5929
36.5914
36.5898
36.5883
36.5867
36.5852
36.5836
36.5821
36.5805
36.5789
36.5774
36.5758
36.5743
36.5727
36.5712
36.5696
36.5681
36.5665
36.565
36.5634
36.5619
36.5603
36.5588
36.5572
36.5556
36.5541
36.5525
36.551
36.5494
36.5479
36.5463
36.5448
36.5432
36.5417
36.5401
36.5386
36.537
36.5355
36.5339
36.5324
36.5308
36.5292
36.5277
36.5261
36.5246
36.523
36.5215
36.5199
36.5184
36.5168
36.5153
36.5137
36.5122
36.5106
36.5091
36.5075
36.506
36.5044
36.5029
36.5013
36.4998
36.4982
36.4966
36.4951
36.4935
36.492
36.4904
36.4889
36.4873
36.4858
36.4842
36.4827
36.4811
36.4796
36.478
36.4765
36.4749
36.4734
36.4718
36.4703
36.4687
36.4672
36.4656
36.4641
36.4625
36.461
36.4594
36.4579
36.4563
36.4548
36.4532
36.4532
39.8894
39.8894
38.3314
38.0756
38.0101
37.9818
37.9649
37.9529
37.9434
37.9354
37.9283
37.9219
37.9159
37.9103
37.905
37.8999
37.8949
37.89
37.8853
37.8807
37.8761
37.8716
37.8672
37.8629
37.8586
37.8544
37.8502
37.8461
37.842
37.838
37.8341
37.8301
37.8263
37.8224
37.8186
37.8149
37.8112
37.8075
37.8039
37.8003
37.7967
37.7932
37.7897
37.7862
37.7828
37.7794
37.776
37.7727
37.7694
37.7661
37.7628
37.7596
37.7564
37.7532
37.7501
37.747
37.7439
37.7408
37.7377
37.7347
37.7317
37.7287
37.7257
37.7228
37.7198
37.7169
37.714
37.7112
37.7083
37.7055
37.7026
37.6998
37.697
37.6943
37.6915
37.6888
37.686
37.6833
37.6806
37.6779
37.6753
37.6726
37.67
37.6674
37.6647
37.6621
37.6595
37.657
37.6544
37.6518
37.6493
37.6468
37.6442
37.6417
37.6392
37.6368
37.6343
37.6318
37.6294
37.6269
37.6245
37.622
37.6196
37.6172
37.6148
37.6124
37.6101
37.6077
37.6053
37.603
37.6006
37.5983
37.596
37.5937
37.5913
37.589
37.5867
37.5845
37.5822
37.5799
37.5776
37.5754
37.5731
37.5709
37.5687
37.5664
37.5642
37.562
37.5598
37.5576
37.5554
37.5532
37.551
37.5489
37.5467
37.5445
37.5424
37.5402
37.5381
37.5359
37.5338
37.5317
37.5296
37.5274
37.5253
37.5232
37.5211
37.519
37.517
37.5149
37.5128
37.5107
37.5087
37.5066
37.5045
37.5025
37.5004
37.4984
37.4964
37.4943
37.4923
37.4903
37.4883
37.4862
37.4842
37.4822
37.4802
37.4782
37.4762
37.4742
37.4723
37.4703
37.4683
37.4663
37.4644
37.4624
37.4604
37.4585
37.4565
37.4546
37.4526
37.4507
37.4488
37.4468
37.4449
37.443
37.4411
37.4391
37.4372
37.4353
37.4334
37.4315
37.4296
37.4277
37.4258
37.4239
37.422
37.4201
37.4183
37.4164
37.4145
37.4126
37.4108
37.4089
37.407
37.4052
37.4033
37.4015
37.3996
37.3978
37.3959
37.3941
37.3922
37.3904
37.3886
37.3867
37.3849
37.3831
37.3813
37.3794
37.3776
37.3758
37.374
37.3722
37.3704
37.3686
37.3667
37.3649
37.3631
37.3613
37.3596
37.3578
37.356
37.3542
37.3524
37.3506
37.3488
37.3471
37.3453
37.3435
37.3417
37.34
37.3382
37.3364
37.3347
37.3329
37.3311
37.3294
37.3276
37.3259
37.3241
37.3224
37.3206
37.3189
37.3171
37.3154
37.3136
37.3119
37.3102
37.3084
37.3067
37.305
37.3032
37.3015
37.2998
37.298
37.2963
37.2946
37.2929
37.2911
37.2894
37.2877
37.286
37.2843
37.2826
37.2809
37.2792
37.2774
37.2757
37.274
37.2723
37.2706
37.2689
37.2672
37.2655
37.2638
37.2621
37.2604
37.2588
37.2571
37.2554
37.2537
37.252
37.2503
37.2486
37.2469
37.2453
37.2436
37.2419
37.2402
37.2386
37.2369
37.2352
37.2335
37.2319
37.2302
37.2285
37.2268
37.2252
37.2235
37.2218
37.2202
37.2185
37.2169
37.2152
37.2135
37.2119
37.2102
37.2086
37.2069
37.2052
37.2036
37.2019
37.2003
37.1986
37.197
37.1953
37.1937
37.192
37.1904
37.1887
37.1871
37.1855
37.1838
37.1822
37.1805
37.1789
37.1772
37.1756
37.174
37.1723
37.1707
37.1691
37.1674
37.1658
37.1642
37.1625
37.1609
37.1593
37.1576
37.156
37.1544
37.1527
37.1511
37.1495
37.1479
37.1462
37.1446
37.143
37.1414
37.1397
37.1381
37.1365
37.1349
37.1332
37.1316
37.13
37.1284
37.1268
37.1252
37.1235
37.1219
37.1203
37.1187
37.1171
37.1155
37.1139
37.1122
37.1106
37.109
37.1074
37.1058
37.1042
37.1026
37.101
37.0994
37.0978
37.0961
37.0945
37.0929
37.0913
37.0897
37.0881
37.0865
37.0849
37.0833
37.0817
37.0801
37.0785
37.0769
37.0753
37.0737
37.0721
37.0705
37.0689
37.0673
37.0657
37.0641
37.0625
37.0609
37.0593
37.0577
37.0561
37.0545
37.0529
37.0513
37.0497
37.0482
37.0466
37.045
37.0434
37.0418
37.0402
37.0386
37.037
37.0354
37.0338
37.0322
37.0306
37.0291
37.0275
37.0259
37.0243
37.0227
37.0211
37.0195
37.0179
37.0164
37.0148
37.0132
37.0116
37.01
37.0084
37.0069
37.0053
37.0037
37.0021
37.0005
36.9989
36.9974
36.9958
36.9942
36.9926
36.991
36.9894
36.9879
36.9863
36.9847
36.9831
36.9816
36.98
36.9784
36.9768
36.9752
36.9737
36.9721
36.9705
36.9689
36.9674
36.9658
36.9642
36.9626
36.9611
36.9595
36.9579
36.9563
36.9548
36.9532
36.9516
36.95
36.9485
36.9469
36.9453
36.9437
36.9422
36.9406
36.939
36.9375
36.9359
36.9343
36.9327
36.9312
36.9296
36.928
36.9265
36.9249
36.9233
36.9218
36.9202
36.9186
36.9171
36.9155
36.9139
36.9123
36.9108
36.9092
36.9076
36.9061
36.9045
36.9029
36.9014
36.8998
36.8983
36.8967
36.8951
36.8936
36.892
36.8904
36.8889
36.8873
36.8857
36.8842
36.8826
36.881
36.8795
36.8779
36.8763
36.8748
36.8732
36.8717
36.8701
36.8685
36.867
36.8654
36.8638
36.8623
36.8607
36.8592
36.8576
36.856
36.8545
36.8529
36.8514
36.8498
36.8482
36.8467
36.8451
36.8435
36.842
36.8404
36.8389
36.8373
36.8357
36.8342
36.8326
36.8311
36.8295
36.8279
36.8264
36.8248
36.8233
36.8217
36.8201
36.8186
36.817
36.8155
36.8139
36.8124
36.8108
36.8092
36.8077
36.8061
36.8046
36.803
36.8014
36.7999
36.7983
36.7968
36.7952
36.7937
36.7921
36.7905
36.789
36.7874
36.7859
36.7843
36.7827
36.7812
36.7796
36.7781
36.7765
36.775
36.7734
36.7718
36.7703
36.7687
36.7672
36.7656
36.7641
36.7625
36.7609
36.7594
36.7578
36.7563
36.7547
36.7532
36.7516
36.75
36.7485
36.7469
36.7454
36.7438
36.7423
36.7407
36.7391
36.7376
36.736
36.7345
36.7329
36.7314
36.7298
36.7282
36.7267
36.7251
36.7236
36.722
36.7205
36.7189
36.7173
36.7158
36.7142
36.7127
36.7111
36.7096
36.708
36.7064
36.7049
36.7033
36.7018
36.7002
36.6987
36.6971
36.6956
36.694
36.6924
36.6909
36.6893
36.6878
36.6862
36.6847
36.6831
36.6816
36.68
36.6784
36.6769
36.6753
36.6738
36.6722
36.6707
36.6691
36.6676
36.666
36.6644
36.6629
36.6613
36.6598
36.6582
36.6567
36.6551
36.6536
36.652
36.6504
36.6489
36.6473
36.6458
36.6442
36.6427
36.6411
36.6396
36.638
36.6365
36.6349
36.6333
36.6318
36.6302
36.6287
36.6271
36.6256
36.624
36.6225
36.6209
36.6194
36.6178
36.6162
36.6147
36.6131
36.6116
36.61
36.6085
36.6069
36.6054
36.6038
36.6023
36.6007
36.5991
36.5976
36.596
36.5945
36.5929
36.5914
36.5898
36.5883
36.5867
36.5852
36.5836
36.5821
36.5805
36.5789
36.5774
36.5758
36.5743
36.5727
36.5712
36.5696
36.5681
36.5665
36.565
36.5634
36.5619
36.5603
36.5588
36.5572
36.5556
36.5541
36.5525
36.551
36.5494
36.5479
36.5463
36.5448
36.5432
36.5417
36.5401
36.5386
36.537
36.5355
36.5339
36.5324
36.5308
36.5293
36.5277
36.5261
36.5246
36.523
36.5215
36.5199
36.5184
36.5168
36.5153
36.5137
36.5122
36.5106
36.5091
36.5075
36.506
36.5044
36.5029
36.5013
36.4998
36.4982
36.4967
36.4951
36.4935
36.492
36.4904
36.4889
36.4873
36.4858
36.4842
36.4827
36.4811
36.4796
36.478
36.4765
36.4749
36.4734
36.4718
36.4703
36.4687
36.4672
36.4656
36.4641
36.4625
36.461
36.4594
36.4579
36.4563
36.4548
36.4532
36.4532
39.1999
39.1999
38.3155
38.0823
38.0137
37.9838
37.9662
37.9538
37.9441
37.9359
37.9287
37.9222
37.9162
37.9106
37.9052
37.9
37.895
37.8902
37.8854
37.8808
37.8762
37.8717
37.8673
37.863
37.8587
37.8545
37.8503
37.8462
37.8421
37.8381
37.8341
37.8302
37.8263
37.8225
37.8187
37.8149
37.8112
37.8075
37.8039
37.8003
37.7967
37.7932
37.7897
37.7862
37.7828
37.7794
37.776
37.7727
37.7694
37.7661
37.7629
37.7596
37.7564
37.7533
37.7501
37.747
37.7439
37.7408
37.7378
37.7347
37.7317
37.7287
37.7257
37.7228
37.7199
37.7169
37.7141
37.7112
37.7083
37.7055
37.7027
37.6998
37.6971
37.6943
37.6915
37.6888
37.6861
37.6833
37.6806
37.678
37.6753
37.6726
37.67
37.6674
37.6647
37.6621
37.6595
37.657
37.6544
37.6518
37.6493
37.6468
37.6443
37.6417
37.6392
37.6368
37.6343
37.6318
37.6294
37.6269
37.6245
37.6221
37.6196
37.6172
37.6148
37.6124
37.6101
37.6077
37.6053
37.603
37.6006
37.5983
37.596
37.5937
37.5913
37.589
37.5868
37.5845
37.5822
37.5799
37.5777
37.5754
37.5731
37.5709
37.5687
37.5664
37.5642
37.562