# vtk DataFile Version 2.0
FlowField
ASCII
DATASET STRUCTURED_GRID
DIMENSIONS 800 1 200
POINTS 160000 float
0 0 0
0.04 0 0
0.08 0 0
0.12 0 0
0.16 0 0
0.2 0 0
0.24 0 0
0.28 0 0
0.32 0 0
0.36 0 0
0.4 0 0
0.44 0 0
0.48 0 0
0.52 0 0
0.56 0 0
0.6 0 0
0.64 0 0
0.68 0 0
0.72 0 0
0.76 0 0
0.8 0 0
0.84 0 0
0.88 0 0
0.92 0 0
0.96 0 0
1 0 0
1.04 0 0
1.08 0 0
1.12 0 0
1.16 0 0
1.2 0 0
1.24 0 0
1.28 0 0
1.32 0 0
1.36 0 0
1.4 0 0
1.44 0 0
1.48 0 0
1.52 0 0
1.56 0 0
1.6 0 0
1.64 0 0
1.68 0 0
1.72 0 0
1.76 0 0
1.8 0 0
1.84 0 0
1.88 0 0
1.92 0 0
1.96 0 0
2 0 0
2.04 0 0
2.08 0 0
2.12 0 0
2.16 0 0
2.2 0 0
2.24 0 0
2.28 0 0
2.32 0 0
2.36 0 0
2.4 0 0
2.44 0 0
2.48 0 0
2.52 0 0
2.56 0 0
2.6 0 0
2.64 0 0
2.68 0 0
2.72 0 0
2.76 0 0
2.8 0 0
2.84 0 0
2.88 0 0
2.92 0 0
2.96 0 0
3 0 0
3.04 0 0
3.08 0 0
3.12 0 0
3.16 0 0
3.2 0 0
3.24 0 0
3.28 0 0
3.32 0 0
3.36 0 0
3.4 0 0
3.44 0 0
3.48 0 0
3.52 0 0
3.56 0 0
3.6 0 0
3.64 0 0
3.68 0 0
3.72 0 0
3.76 0 0
3.8 0 0
3.84 0 0
3.88 0 0
3.92 0 0
3.96 0 0
4 0 0
4.04 0 0
4.08 0 0
4.12 0 0
4.16 0 0
4.2 0 0
4.24 0 0
4.28 0 0
4.32 0 0
4.36 0 0
4.4 0 0
4.44 0 0
4.48 0 0
4.52 0 0
4.56 0 0
4.6 0 0
4.64 0 0
4.68 0 0
4.72 0 0
4.76 0 0
4.8 0 0
4.84 0 0
4.88 0 0
4.92 0 0
4.96 0 0
5 0 0
5.04 0 0
5.08 0 0
5.12 0 0
5.16 0 0
5.2 0 0
5.24 0 0
5.28 0 0
5.32 0 0
5.36 0 0
5.4 0 0
5.44 0 0
5.48 0 0
5.52 0 0
5.56 0 0
5.6 0 0
5.64 0 0
5.68 0 0
5.72 0 0
5.76 0 0
5.8 0 0
5.84 0 0
5.88 0 0
5.92 0 0
5.96 0 0
6 0 0
6.04 0 0
6.08 0 0
6.12 0 0
6.16 0 0
6.2 0 0
6.24 0 0
6.28 0 0
6.32 0 0
6.36 0 0
6.4 0 0
6.44 0 0
6.48 0 0
6.52 0 0
6.56 0 0
6.6 0 0
6.64 0 0
6.68 0 0
6.72 0 0
6.76 0 0
6.8 0 0
6.84 0 0
6.88 0 0
6.92 0 0
6.96 0 0
7 0 0
7.04 0 0
7.08 0 0
7.12 0 0
7.16 0 0
7.2 0 0
7.24 0 0
7.28 0 0
7.32 0 0
7.36 0 0
7.4 0 0
7.44 0 0
7.48 0 0
7.52 0 0
7.56 0 0
7.6 0 0
7.64 0 0
7.68 0 0
7.72 0 0
7.76 0 0
7.8 0 0
7.84 0 0
7.88 0 0
7.92 0 0
7.96 0 0
8 0 0
8.04 0 0
8.08 0 0
8.12 0 0
8.16 0 0
8.2 0 0
8.24 0 0
8.28 0 0
8.32 0 0
8.36 0 0
8.4 0 0
8.44 0 0
8.48 0 0
8.52 0 0
8.56 0 0
8.6 0 0
8.64 0 0
8.68 0 0
8.72 0 0
8.76 0 0
8.8 0 0
8.84 0 0
8.88 0 0
8.92 0 0
8.96 0 0
9 0 0
9.04 0 0
9.08 0 0
9.12 0 0
9.16 0 0
9.2 0 0
9.24 0 0
9.28 0 0
9.32 0 0
9.36 0 0
9.4 0 0
9.44 0 0
9.48 0 0
9.52 0 0
9.56 0 0
9.6 0 0
9.64 0 0
9.68 0 0
9.72 0 0
9.76 0 0
9.8 0 0
9.84 0 0
9.88 0 0
9.92 0 0
9.96 0 0
10 0 0
10.04 0 0
10.08 0 0
10.12 0 0
10.16 0 0
10.2 0 0
10.24 0 0
10.28 0 0
10.32 0 0
10.36 0 0
10.4 0 0
10.44 0 0
10.48 0 0
10.52 0 0
10.56 0 0
10.6 0 0
10.64 0 0
10.68 0 0
10.72 0 0
10.76 0 0
10.8 0 0
10.84 0 0
10.88 0 0
10.92 0 0
10.96 0 0
11 0 0
11.04 0 0
11.08 0 0
11.12 0 0
11.16 0 0
11.2 0 0
11.24 0 0
11.28 0 0
11.32 0 0
11.36 0 0
11.4 0 0
11.44 0 0
11.48 0 0
11.52 0 0
11.56 0 0
11.6 0 0
11.64 0 0
11.68 0 0
11.72 0 0
11.76 0 0
11.8 0 0
11.84 0 0
11.88 0 0
11.92 0 0
11.96 0 0
12 0 0
12.04 0 0
12.08 0 0
12.12 0 0
12.16 0 0
12.2 0 0
12.24 0 0
12.28 0 0
12.32 0 0
12.36 0 0
12.4 0 0
12.44 0 0
12.48 0 0
12.52 0 0
12.56 0 0
12.6 0 0
12.64 0 0
12.68 0 0
12.72 0 0
12.76 0 0
12.8 0 0
12.84 0 0
12.88 0 0
12.92 0 0
12.96 0 0
13 0 0
13.04 0 0
13.08 0 0
13.12 0 0
13.16 0 0
13.2 0 0
13.24 0 0
13.28 0 0
13.32 0 0
13.36 0 0
13.4 0 0
13.44 0 0
13.48 0 0
13.52 0 0
13.56 0 0
13.6 0 0
13.64 0 0
13.68 0 0
13.72 0 0
13.76 0 0
13.8 0 0
13.84 0 0
13.88 0 0
13.92 0 0
13.96 0 0
14 0 0
14.04 0 0
14.08 0 0
14.12 0 0
14.16 0 0
14.2 0 0
14.24 0 0
14.28 0 0
14.32 0 0
14.36 0 0
14.4 0 0
14.44 0 0
14.48 0 0
14.52 0 0
14.56 0 0
14.6 0 0
14.64 0 0
14.68 0 0
14.72 0 0
14.76 0 0
14.8 0 0
14.84 0 0
14.88 0 0
14.92 0 0
14.96 0 0
15 0 0
15.04 0 0
15.08 0 0
15.12 0 0
15.16 0 0
15.2 0 0
15.24 0 0
15.28 0 0
15.32 0 0
15.36 0 0
15.4 0 0
15.44 0 0
15.48 0 0
15.52 0 0
15.56 0 0
15.6 0 0
15.64 0 0
15.68 0 0
15.72 0 0
15.76 0 0
15.8 0 0
15.84 0 0
15.88 0 0
15.92 0 0
15.96 0 0
16 0 0
16.04 0 0
16.08 0 0
16.12 0 0
16.16 0 0
16.2 0 0
16.24 0 0
16.28 0 0
16.32 0 0
16.36 0 0
16.4 0 0
16.44 0 0
16.48 0 0
16.52 0 0
16.56 0 0
16.6 0 0
16.64 0 0
16.68 0 0
16.72 0 0
16.76 0 0
16.8 0 0
16.84 0 0
16.88 0 0
16.92 0 0
16.96 0 0
17 0 0
17.04 0 0
17.08 0 0
17.12 0 0
17.16 0 0
17.2 0 0
17.24 0 0
17.28 0 0
17.32 0 0
17.36 0 0
17.4 0 0
17.44 0 0
17.48 0 0
17.52 0 0
17.56 0 0
17.6 0 0
17.64 0 0
17.68 0 0
17.72 0 0
17.76 0 0
17.8 0 0
17.84 0 0
17.88 0 0
17.92 0 0
17.96 0 0
18 0 0
18.04 0 0
18.08 0 0
18.12 0 0
18.16 0 0
18.2 0 0
18.24 0 0
18.28 0 0
18.32 0 0
18.36 0 0
18.4 0 0
18.44 0 0
18.48 0 0
18.52 0 0
18.56 0 0
18.6 0 0
18.64 0 0
18.68 0 0
18.72 0 0
18.76 0 0
18.8 0 0
18.84 0 0
18.88 0 0
18.92 0 0
18.96 0 0
19 0 0
19.04 0 0
19.08 0 0
19.12 0 0
19.16 0 0
19.2 0 0
19.24 0 0
19.28 0 0
19.32 0 0
19.36 0 0
19.4 0 0
19.44 0 0
19.48 0 0
19.52 0 0
19.56 0 0
19.6 0 0
19.64 0 0
19.68 0 0
19.72 0 0
19.76 0 0
19.8 0 0
19.84 0 0
19.88 0 0
19.92 0 0
19.96 0 0
20 0 0
20.04 0 0
20.08 0 0
20.12 0 0
20.16 0 0
20.2 0 0
20.24 0 0
20.28 0 0
20.32 0 0
20.36 0 0
20.4 0 0
20.44 0 0
20.48 0 0
20.52 0 0
20.56 0 0
20.6 0 0
20.64 0 0
20.68 0 0
20.72 0 0
20.76 0 0
20.8 0 0
20.84 0 0
20.88 0 0
20.92 0 0
20.96 0 0
21 0 0
21.04 0 0
21.08 0 0
21.12 0 0
21.16 0 0
21.2 0 0
21.24 0 0
21.28 0 0
21.32 0 0
21.36 0 0
21.4 0 0
21.44 0 0
21.48 0 0
21.52 0 0
21.56 0 0
21.6 0 0
21.64 0 0
21.68 0 0
21.72 0 0
21.76 0 0
21.8 0 0
21.84 0 0
21.88 0 0
21.92 0 0
21.96 0 0
22 0 0
22.04 0 0
22.08 0 0
22.12 0 0
22.16 0 0
22.2 0 0
22.24 0 0
22.28 0 0
22.32 0 0
22.36 0 0
22.4 0 0
22.44 0 0
22.48 0 0
22.52 0 0
22.56 0 0
22.6 0 0
22.64 0 0
22.68 0 0
22.72 0 0
22.76 0 0
22.8 0 0
22.84 0 0
22.88 0 0
22.92 0 0
22.96 0 0
23 0 0
23.04 0 0
23.08 0 0
23.12 0 0
23.16 0 0
23.2 0 0
23.24 0 0
23.28 0 0
23.32 0 0
23.36 0 0
23.4 0 0
23.44 0 0
23.48 0 0
23.52 0 0
23.56 0 0
23.6 0 0
23.64 0 0
23.68 0 0
23.72 0 0
23.76 0 0
23.8 0 0
23.84 0 0
23.88 0 0
23.92 0 0
23.96 0 0
24 0 0
24.04 0 0
24.08 0 0
24.12 0 0
24.16 0 0
24.2 0 0
24.24 0 0
24.28 0 0
24.32 0 0
24.36 0 0
24.4 0 0
24.44 0 0
24.48 0 0
24.52 0 0
24.56 0 0
24.6 0 0
24.64 0 0
24.68 0 0
24.72 0 0
24.76 0 0
24.8 0 0
24.84 0 0
24.88 0 0
24.92 0 0
24.96 0 0
25 0 0
25.04 0 0
25.08 0 0
25.12 0 0
25.16 0 0
25.2 0 0
25.24 0 0
25.28 0 0
25.32 0 0
25.36 0 0
25.4 0 0
25.44 0 0
25.48 0 0
25.52 0 0
25.56 0 0
25.6 0 0
25.64 0 0
25.68 0 0
25.72 0 0
25.76 0 0
25.8 0 0
25.84 0 0
25.88 0 0
25.92 0 0
25.96 0 0
26 0 0
26.04 0 0
26.08 0 0
26.12 0 0
26.16 0 0
26.2 0 0
26.24 0 0
26.28 0 0
26.32 0 0
26.36 0 0
26.4 0 0
26.44 0 0
26.48 0 0
26.52 0 0
26.56 0 0
26.6 0 0
26.64 0 0
26.68 0 0
26.72 0 0
26.76 0 0
26.8 0 0
26.84 0 0
26.88 0 0
26.92 0 0
26.96 0 0
27 0 0
27.04 0 0
27.08 0 0
27.12 0 0
27.16 0 0
27.2 0 0
27.24 0 0
27.28 0 0
27.32 0 0
27.36 0 0
27.4 0 0
27.44 0 0
27.48 0 0
27.52 0 0
27.56 0 0
27.6 0 0
27.64 0 0
27.68 0 0
27.72 0 0
27.76 0 0
27.8 0 0
27.84 0 0
27.88 0 0
27.92 0 0
27.96 0 0
28 0 0
28.04 0 0
28.08 0 0
28.12 0 0
28.16 0 0
28.2 0 0
28.24 0 0
28.28 0 0
28.32 0 0
28.36 0 0
28.4 0 0
28.44 0 0
28.48 0 0
28.52 0 0
28.56 0 0
28.6 0 0
28.64 0 0
28.68 0 0
28.72 0 0
28.76 0 0
28.8 0 0
28.84 0 0
28.88 0 0
28.92 0 0
28.96 0 0
29 0 0
29.04 0 0
29.08 0 0
29.12 0 0
29.16 0 0
29.2 0 0
29.24 0 0
29.28 0 0
29.32 0 0
29.36 0 0
29.4 0 0
29.44 0 0
29.48 0 0
29.52 0 0
29.56 0 0
29.6 0 0
29.64 0 0
29.68 0 0
29.72 0 0
29.76 0 0
29.8 0 0
29.84 0 0
29.88 0 0
29.92 0 0
29.96 0 0
30 0 0
30.04 0 0
30.08 0 0
30.12 0 0
30.16 0 0
30.2 0 0
30.24 0 0
30.28 0 0
30.32 0 0
30.36 0 0
30.4 0 0
30.44 0 0
30.48 0 0
30.52 0 0
30.56 0 0
30.6 0 0
30.64 0 0
30.68 0 0
30.72 0 0
30.76 0 0
30.8 0 0
30.84 0 0
30.88 0 0
30.92 0 0
30.96 0 0
31 0 0
31.04 0 0
31.08 0 0
31.12 0 0
31.16 0 0
31.2 0 0
31.24 0 0
31.28 0 0
31.32 0 0
31.36 0 0
31.4 0 0
31.44 0 0
31.48 0 0
31.52 0 0
31.56 0 0
31.6 0 0
31.64 0 0
31.68 0 0
31.72 0 0
31.76 0 0
31.8 0 0
31.84 0 0
31.88 0 0
31.92 0 0
31.96 0 0
0 0.005 0
0.04 0.005 0
0.08 0.005 0
0.12 0.005 0
0.16 0.005 0
0.2 0.005 0
0.24 0.005 0
0.28 0.005 0
0.32 0.005 0
0.36 0.005 0
0.4 0.005 0
0.44 0.005 0
0.48 0.005 0
0.52 0.005 0
0.56 0.005 0
0.6 0.005 0
0.64 0.005 0
0.68 0.005 0
0.72 0.005 0
0.76 0.005 0
0.8 0.005 0
0.84 0.005 0
0.88 0.005 0
0.92 0.005 0
0.96 0.005 0
1 0.005 0
1.04 0.005 0
1.08 0.005 0
1.12 0.005 0
1.16 0.005 0
1.2 0.005 0
1.24 0.005 0
1.28 0.005 0
1.32 0.005 0
1.36 0.005 0
1.4 0.005 0
1.44 0.005 0
1.48 0.005 0
1.52 0.005 0
1.56 0.005 0
1.6 0.005 0
1.64 0.005 0
1.68 0.005 0
1.72 0.005 0
1.76 0.005 0
1.8 0.005 0
1.84 0.005 0
1.88 0.005 0
1.92 0.005 0
1.96 0.005 0
2 0.005 0
2.04 0.005 0
2.08 0.005 0
2.12 0.005 0
2.16 0.005 0
2.2 0.005 0
2.24 0.005 0
2.28 0.005 0
2.32 0.005 0
2.36 0.005 0
2.4 0.005 0
2.44 0.005 0
2.48 0.005 0
2.52 0.005 0
2.56 0.005 0
2.6 0.005 0
2.64 0.005 0
2.68 0.005 0
2.72 0.005 0
2.76 0.005 0
2.8 0.005 0
2.84 0.005 0
2.88 0.005 0
2.92 0.005 0
2.96 0.005 0
3 0.005 0
3.04 0.005 0
3.08 0.005 0
3.12 0.005 0
3.16 0.005 0
3.2 0.005 0
3.24 0.005 0
3.28 0.005 0
3.32 0.005 0
3.36 0.005 0
3.4 0.005 0
3.44 0.005 0
3.48 0.005 0
3.52 0.005 0
3.56 0.005 0
3.6 0.005 0
3.64 0.005 0
3.68 0.005 0
3.72 0.005 0
3.76 0.005 0
3.8 0.005 0
3.84 0.005 0
3.88 0.005 0
3.92 0.005 0
3.96 0.005 0
4 0.005 0
4.04 0.005 0
4.08 0.005 0
4.12 0.005 0
4.16 0.005 0
4.2 0.005 0
4.24 0.005 0
4.28 0.005 0
4.32 0.005 0
4.36 0.005 0
4.4 0.005 0
4.44 0.005 0
4.48 0.005 0
4.52 0.005 0
4.56 0.005 0
4.6 0.005 0
4.64 0.005 0
4.68 0.005 0
4.72 0.005 0
4.76 0.005 0
4.8 0.005 0
4.84 0.005 0
4.88 0.005 0
4.92 0.005 0
4.96 0.005 0
5 0.005 0
5.04 0.005 0
5.08 0.005 0
5.12 0.005 0
5.16 0.005 0
5.2 0.005 0
5.24 0.005 0
5.28 0.005 0
5.32 0.005 0
5.36 0.005 0
5.4 0.005 0
5.44 0.005 0
5.48 0.005 0
5.52 0.005 0
5.56 0.005 0
5.6 0.005 0
5.64 0.005 0
5.68 0.005 0
5.72 0.005 0
5.76 0.005 0
5.8 0.005 0
5.84 0.005 0
5.88 0.005 0
5.92 0.005 0
5.96 0.005 0
6 0.005 0
6.04 0.005 0
6.08 0.005 0
6.12 0.005 0
6.16 0.005 0
6.2 0.005 0
6.24 0.005 0
6.28 0.005 0
6.32 0.005 0
6.36 0.005 0
6.4 0.005 0
6.44 0.005 0
6.48 0.005 0
6.52 0.005 0
6.56 0.005 0
6.6 0.005 0
6.64 0.005 0
6.68 0.005 0
6.72 0.005 0
6.76 0.005 0
6.8 0.005 0
6.84 0.005 0
6.88 0.005 0
6.92 0.005 0
6.96 0.005 0
7 0.005 0
7.04 0.005 0
7.08 0.005 0
7.12 0.005 0
7.16 0.005 0
7.2 0.005 0
7.24 0.005 0
7.28 0.005 0
7.32 0.005 0
7.36 0.005 0
7.4 0.005 0
[...]
POINT_DATA 160000

SCALARS u float 1
LOOKUP_TABLE default
-1
-0.483356
-0.183962
-0.108844
-0.081032
-0.0668326
-0.0581169
-0.0521513
-0.047776
-0.044413
-0.0417396
-0.0395597
-0.0377464
-0.0362134
-0.0348996
-0.0337604
-0.0327627
-0.0318808
-0.0310952
-0.03039
-0.029753
-0.0291739
-0.0286447
-0.0281586
-0.0277099
-0.0272941
-0.0269073
-0.026546
-0.0262076
-0.0258896
-0.02559
-0.0253071
-0.0250392
-0.024785
-0.0245434
-0.0243133
-0.0240939
-0.0238842
-0.0236837
-0.0234916
-0.0233073
-0.0231304
-0.0229603
-0.0227967
-0.0226391
-0.0224871
-0.0223406
-0.022199
-0.0220623
-0.0219301
-0.0218021
-0.0216782
-0.0215582
-0.0214419
-0.021329
-0.0212194
-0.0211131
-0.0210097
-0.0209093
-0.0208116
-0.0207166
-0.0206241
-0.020534
-0.0204462
-0.0203607
-0.0202774
-0.020196
-0.0201167
-0.0200393
-0.0199637
-0.0198899
-0.0198178
-0.0197473
-0.0196784
-0.019611
-0.0195451
-0.0194807
-0.0194176
-0.0193558
-0.0192954
-0.0192361
-0.0191781
-0.0191213
-0.0190655
-0.0190109
-0.0189574
-0.0189048
-0.0188533
-0.0188027
-0.0187531
-0.0187044
-0.0186566
-0.0186097
-0.0185636
-0.0185183
-0.0184738
-0.0184301
-0.0183871
-0.0183449
-0.0183034
-0.0182626
-0.0182224
-0.0181829
-0.0181441
-0.0181059
-0.0180683
-0.0180313
-0.0179949
-0.0179591
-0.0179238
-0.017889
-0.0178548
-0.0178212
-0.017788
-0.0177553
-0.0177231
-0.0176914
-0.0176601
-0.0176293
-0.0175989
-0.017569
-0.0175395
-0.0175104
-0.0174817
-0.0174535
-0.0174256
-0.0173981
-0.017371
-0.0173442
-0.0173178
-0.0172918
-0.0172661
-0.0172408
-0.0172158
-0.0171911
-0.0171667
-0.0171427
-0.017119
-0.0170956
-0.0170725
-0.0170497
-0.0170272
-0.0170049
-0.016983
-0.0169613
-0.01694
-0.0169189
-0.016898
-0.0168775
-0.0168572
-0.0168371
-0.0168174
-0.0167978
-0.0167786
-0.0167596
-0.0167408
-0.0167224
-0.0167041
-0.0166861
-0.0166684
-0.016651
-0.0166338
-0.0166168
-0.0166001
-0.0165837
-0.0165675
-0.0165516
-0.016536
-0.0165206
-0.0165056
-0.0164907
-0.0164762
-0.0164619
-0.0164479
-0.0164341
-0.0164206
-0.0164074
-0.0163945
-0.0163818
-0.0163694
-0.0163573
-0.0163454
-0.0163338
-0.0163225
-0.0163114
-0.0163005
-0.0162899
-0.0162796
-0.0162695
-0.0162596
-0.01625
-0.0162406
-0.0162315
-0.0162225
-0.0162138
-0.0162054
-0.0161971
-0.016189
-0.0161812
-0.0161736
-0.0161661
-0.0161589
-0.0161518
-0.016145
-0.0161383
-0.0161319
-0.0161256
-0.0161195
-0.0161136
-0.0161078
-0.0161022
-0.0160968
-0.0160915
-0.0160864
-0.0160815
-0.0160767
-0.0160721
-0.0160676
-0.0160633
-0.0160591
-0.016055
-0.0160511
-0.0160473
-0.0160436
-0.0160401
-0.0160367
-0.0160334
-0.0160302
-0.0160271
-0.0160242
-0.0160214
-0.0160186
-0.016016
-0.0160135
-0.016011
-0.0160087
-0.0160065
-0.0160043
-0.0160023
-0.0160003
-0.0159984
-0.0159966
-0.0159949
-0.0159932
-0.0159916
-0.0159901
-0.0159887
-0.0159873
-0.015986
-0.0159847
-0.0159835
-0.0159824
-0.0159813
-0.0159803
-0.0159793
-0.0159784
-0.0159776
-0.0159767
-0.015976
-0.0159753
-0.0159746
-0.015974
-0.0159734
-0.0159729
-0.0159724
-0.0159719
-0.0159715
-0.0159711
-0.0159707
-0.0159703
-0.0159699
-0.0159696
-0.0159692
-0.0159689
-0.0159686
-0.0159683
-0.015968
-0.0159676
-0.0159673
-0.015967
-0.0159667
-0.0159664
-0.0159661
-0.0159658
-0.0159655
-0.0159652
-0.0159649
-0.0159646
-0.0159643
-0.015964
-0.0159637
-0.0159634
-0.0159631
-0.0159628
-0.0159625
-0.0159622
-0.0159619
-0.0159616
-0.0159613
-0.015961
-0.0159607
-0.0159604
-0.0159601
-0.0159598
-0.0159595
-0.0159592
-0.0159589
-0.0159586
-0.0159583
-0.015958
-0.0159577
-0.0159574
-0.0159571
-0.0159568
-0.0159565
-0.0159562
-0.0159559
-0.0159556
-0.0159553
-0.015955
-0.0159547
-0.0159544
-0.0159541
-0.0159538
-0.0159535
-0.0159532
-0.0159529
-0.0159526
-0.0159523
-0.015952
-0.0159517
-0.0159514
-0.0159511
-0.0159508
-0.0159505
-0.0159502
-0.0159499
-0.0159495
-0.0159492
-0.0159489
-0.0159486
-0.0159483
-0.015948
-0.0159477
-0.0159474
-0.0159471
-0.0159468
-0.0159465
-0.0159462
-0.0159459
-0.0159456
-0.0159453
-0.015945
-0.0159447
-0.0159444
-0.0159441
-0.0159438
-0.0159435
-0.0159432
-0.0159429
-0.0159426
-0.0159423
-0.015942
-0.0159417
-0.0159414
-0.0159411
-0.0159408
-0.0159405
-0.0159402
-0.0159399
-0.0159396
-0.0159393
-0.015939
-0.0159387
-0.0159384
-0.0159381
-0.0159378
-0.0159375
-0.0159372
-0.0159369
-0.0159366
-0.0159363
-0.015936
-0.0159357
-0.0159354
-0.0159351
-0.0159348
-0.0159345
-0.0159342
-0.0159339
-0.0159336
-0.0159333
-0.015933
-0.0159327
-0.0159324
-0.0159321
-0.0159318
-0.0159315
-0.0159312
-0.0159309
-0.0159306
-0.0159303
-0.01593
-0.0159297
-0.0159293
-0.015929
-0.0159287
-0.0159284
-0.0159281
-0.0159278
-0.0159275
-0.0159272
-0.0159269
-0.0159266
-0.0159263
-0.015926
-0.0159257
-0.0159254
-0.0159251
-0.0159248
-0.0159245
-0.0159242
-0.0159239
-0.0159236
-0.0159233
-0.015923
-0.0159227
-0.0159224
-0.0159221
-0.0159218
-0.0159215
-0.0159212
-0.0159209
-0.0159206
-0.0159203
-0.01592
-0.0159197
-0.0159194
-0.0159191
-0.0159188
-0.0159185
-0.0159182
-0.0159179
-0.0159176
-0.0159173
-0.015917
-0.0159167
-0.0159164
-0.0159161
-0.0159158
-0.0159155
-0.0159152
-0.0159149
-0.0159146
-0.0159143
-0.015914
-0.0159137
-0.0159134
-0.0159131
-0.0159128
-0.0159125
-0.0159122
-0.0159119
-0.0159116
-0.0159113
-0.015911
-0.0159107
-0.0159104
-0.01591
-0.0159097
-0.0159094
-0.0159091
-0.0159088
-0.0159085
-0.0159082
-0.0159079
-0.0159076
-0.0159073
-0.015907
-0.0159067
-0.0159064
-0.0159061
-0.0159058
-0.0159055
-0.0159052
-0.0159049
-0.0159046
-0.0159043
-0.015904
-0.0159037
-0.0159034
-0.0159031
-0.0159028
-0.0159025
-0.0159022
-0.0159019
-0.0159016
-0.0159013
-0.015901
-0.0159007
-0.0159004
-0.0159001
-0.0158998
-0.0158995
-0.0158992
-0.0158989
-0.0158986
-0.0158983
-0.015898
-0.0158977
-0.0158974
-0.0158971
-0.0158968
-0.0158965
-0.0158962
-0.0158959
-0.0158956
-0.0158953
-0.015895
-0.0158947
-0.0158944
-0.0158941
-0.0158938
-0.0158935
-0.0158932
-0.0158929
-0.0158926
-0.0158923
-0.015892
-0.0158917
-0.0158913
-0.015891
-0.0158907
-0.0158904
-0.0158901
-0.0158898
-0.0158895
-0.0158892
-0.0158889
-0.0158886
-0.0158883
-0.015888
-0.0158877
-0.0158874
-0.0158871
-0.0158868
-0.0158865
-0.0158862
-0.0158859
-0.0158856
-0.0158853
-0.015885
-0.0158847
-0.0158844
-0.0158841
-0.0158838
-0.0158835
-0.0158832
-0.0158829
-0.0158826
-0.0158823
-0.015882
-0.0158817
-0.0158814
-0.0158811
-0.0158808
-0.0158805
-0.0158802
-0.0158799
-0.0158796
-0.0158793
-0.015879
-0.0158787
-0.0158784
-0.0158781
-0.0158778
-0.0158775
-0.0158772
-0.0158769
-0.0158766
-0.0158763
-0.015876
-0.0158757
-0.0158754
-0.0158751
-0.0158748
-0.0158745
-0.0158742
-0.0158739
-0.0158736
-0.0158732
-0.0158729
-0.0158726
-0.0158723
-0.015872
-0.0158717
-0.0158714
-0.0158711
-0.0158708
-0.0158705
-0.0158702
-0.0158699
-0.0158696
-0.0158693
-0.015869
-0.0158687
-0.0158684
-0.0158681
-0.0158678
-0.0158675
-0.0158672
-0.0158669
-0.0158666
-0.0158663
-0.015866
-0.0158657
-0.0158654
-0.0158651
-0.0158648
-0.0158645
-0.0158642
-0.0158639
-0.0158636
-0.0158633
-0.015863
-0.0158627
-0.0158624
-0.0158621
-0.0158618
-0.0158615
-0.0158612
-0.0158609
-0.0158606
-0.0158603
-0.01586
-0.0158597
-0.0158594
-0.0158591
-0.0158588
-0.0158585
-0.0158582
-0.0158579
-0.0158576
-0.0158573
-0.015857
-0.0158567
-0.0158564
-0.0158561
-0.0158557
-0.0158554
-0.0158551
-0.0158548
-0.0158545
-0.0158542
-0.0158539
-0.0158536
-0.0158533
-0.015853
-0.0158527
-0.0158524
-0.0158521
-0.0158518
-0.0158515
-0.0158512
-0.0158509
-0.0158506
-0.0158503
-0.01585
-0.0158497
-0.0158494
-0.0158491
-0.0158488
-0.0158485
-0.0158482
-0.0158479
-0.0158476
-0.0158473
-0.015847
-0.0158467
-0.0158464
-0.0158461
-0.0158458
-0.0158455
-0.0158452
-0.0158449
-0.0158446
-0.0158443
-0.015844
-0.0158437
-0.0158434
-0.0158431
-0.0158428
-0.0158425
-0.0158422
-0.0158419
-0.0158416
-0.0158413
-0.015841
-0.0158407
-0.0158404
-0.0158401
-0.0158398
-0.0158395
-0.0158392
-0.0158389
-0.0158385
-0.0158382
-0.0158379
-0.0158376
-0.0158373
-0.015837
-0.0158367
-0.0158364
-0.0158361
-0.0158358
-0.0158355
-0.0158352
-0.0158349
-0.0158346
-0.0158343
-0.015834
-0.0158337
-0.0158334
-0.0158331
-0.0158328
-0.0158325
-0.0158322
-0.0158319
-0.0158316
-0.0158313
-0.015831
-0.0158307
-0.0158304
-0.0158301
-0.0158298
-0.0158295
-0.0158292
-0.0158289
-0.0158286
-0.0158283
-0.015828
-0.0158277
-0.0158274
-0.0158271
-0.0158268
-0.0158265
-0.0158262
-0.0158259
-0.0158256
-0.0158253
-0.015825
-0.0158247
-0.0158244
-0.0158241
-0.0158238
-0.0158235
-0.0158232
-0.0158229
-0.0158226
-0.0158223
-0.0158219
-0.0158216
-0.0158213
-0.015821
-0.0158207
-0.0158204
-0.0158201
-0.0158198
-0.0158195
-0.0158192
-0.0158189
-0.0158186
-0.0158183
-0.015818
-0.0158177
-0.0158174
-0.0158171
-0.0158168
-0.0158165
-0.0158162
-0.0158159
-0.0158155
-0.0158152
-0.0158149
-0.0158145
-0.0158142
-0.0158139
-0.0158135
-0.0158131
-0.0158127
-0.0158123
-0.0158118
-0.0158113
-0.0158107
-0.01581
-0.0158093
-0.0158082
-0.0158078
-0.0158078
-0.0158078
1
0.483356
0.183962
0.108844
0.081032
0.0668326
0.0581169
0.0521513
0.047776
0.044413
0.0417396
0.0395597
0.0377464
0.0362134
0.0348996
0.0337604
0.0327627
0.0318808
0.0310952
0.03039
0.029753
0.0291739
0.0286447
0.0281586
0.0277099
0.0272941
0.0269073
0.026546
0.0262076
0.0258896
0.02559
0.0253071
0.0250392
0.024785
0.0245434
0.0243133
0.0240939
0.0238842
0.0236837
0.0234916
0.0233073
0.0231304
0.0229603
0.0227967
0.0226391
0.0224871
0.0223406
0.022199
0.0220623
0.0219301
0.0218021
0.0216782
0.0215582
0.0214419
0.021329
0.0212194
0.0211131
0.0210097
0.0209093
0.0208116
0.0207166
0.0206241
0.020534
0.0204462
0.0203607
0.0202774
0.020196
0.0201167
0.0200393
0.0199637
0.0198899
0.0198178
0.0197473
0.0196784
0.019611
0.0195451
0.0194807
0.0194176
0.0193558
0.0192954
0.0192361
0.0191781
0.0191213
0.0190655
0.0190109
0.0189574
0.0189048
0.0188533
0.0188027
0.0187531
0.0187044
0.0186566
0.0186097
0.0185636
0.0185183
0.0184738
0.0184301
0.0183871
0.0183449
0.0183034
0.0182626
0.0182224
0.0181829
0.0181441
0.0181059
0.0180683
0.0180313
0.0179949
0.0179591
0.0179238
0.017889
0.0178548
0.0178212
0.017788
0.0177553
0.0177231
0.0176914
0.0176601
0.0176293
0.0175989
0.017569
0.0175395
0.0175104
0.0174817
0.0174535
0.0174256
0.0173981
0.017371
0.0173442
0.0173178
0.0172918
0.0172661
0.0172408
0.0172158
0.0171911
0.0171667
0.0171427
0.017119
0.0170956
0.0170725
0.0170497
0.0170272
0.0170049
0.016983
0.0169613
0.01694
0.0169189
0.016898
0.0168775
0.0168572
0.0168371
0.0168174
0.0167978
0.0167786
0.0167596
0.0167408
0.0167224
0.0167041
0.0166861
0.0166684
0.016651
0.0166338
0.0166168
0.0166001
0.0165837
0.0165675
0.0165516
0.016536
0.0165206
0.0165056
0.0164907
0.0164762
0.0164619
0.0164479
0.0164341
0.0164206
0.0164074
0.0163945
0.0163818
0.0163694
0.0163573
0.0163454
0.0163338
0.0163225
0.0163114
0.0163005
0.0162899
0.0162796
0.0162695
0.0162596
0.01625
0.0162406
0.0162315
0.0162225
0.0162138
0.0162054
0.0161971
0.016189
0.0161812
0.0161736
0.0161661
0.0161589
0.0161518
0.016145
0.0161383
0.0161319
0.0161256
0.0161195
0.0161136
0.0161078
0.0161022
0.0160968
0.0160915
0.0160864
0.0160815
0.0160767
0.0160721
0.0160676
0.0160633
0.0160591
0.016055
0.0160511
0.0160473
0.0160436
0.0160401
0.0160367
0.0160334
0.0160302
0.0160271
0.0160242
0.0160214
0.0160186
0.016016
0.0160135
0.016011
0.0160087
0.0160065
0.0160043
0.0160023
0.0160003
0.0159984
0.0159966
0.0159949
0.0159932
0.0159916
0.0159901
0.0159887
0.0159873
0.015986
0.0159847
0.0159835
0.0159824
0.0159813
0.0159803
0.0159793
0.0159784
0.0159776
0.0159767
0.015976
0.0159753
0.0159746
0.015974
0.0159734
0.0159729
0.0159724
0.0159719
0.0159715
0.0159711
0.0159707
0.0159703
0.0159699
0.0159696
0.0159692
0.0159689
0.0159686
0.0159683
0.015968
0.0159676
0.0159673
0.015967
0.0159667
0.0159664
0.0159661
0.0159658
0.0159655
0.0159652
0.0159649
0.0159646
0.0159643
0.015964
0.0159637
0.0159634
0.0159631
0.0159628
0.0159625
0.0159622
0.0159619
0.0159616
0.0159613
0.015961
0.0159607
0.0159604
0.0159601
0.0159598
0.0159595
0.0159592
0.0159589
0.0159586
0.0159583
0.015958
0.0159577
0.0159574
0.0159571
0.0159568
0.0159565
0.0159562
0.0159559
0.0159556
0.0159553
0.015955
0.0159547
0.0159544
0.0159541
0.0159538
0.0159535
0.0159532
0.0159529
0.0159526
0.0159523
0.015952
0.0159517
0.0159514
0.0159511
0.0159508
0.0159505
0.0159502
0.0159499
0.0159495
0.0159492
0.0159489
0.0159486
0.0159483
0.015948
0.0159477
0.0159474
0.0159471
0.0159468
0.0159465
0.0159462
0.0159459
0.0159456
0.0159453
0.015945
0.0159447
0.0159444
0.0159441
0.0159438
0.0159435
0.0159432
0.0159429
0.0159426
0.0159423
0.015942
0.0159417
0.0159414
0.0159411
0.0159408
0.0159405
0.0159402
0.0159399
0.0159396
0.0159393
0.015939
0.0159387
0.0159384
0.0159381
0.0159378
0.0159375
0.0159372
0.0159369
0.0159366
0.0159363
0.015936
0.0159357
0.0159354
0.0159351
0.0159348
0.0159345
0.0159342
0.0159339
0.0159336
0.0159333
0.015933
0.0159327
0.0159324
0.0159321
0.0159318
0.0159315
0.0159312
0.0159309
0.0159306
0.0159303
0.01593
0.0159297
0.0159293
0.015929
0.0159287
0.0159284
0.0159281
0.0159278
0.0159275
0.0159272
0.0159269
0.0159266
0.0159263
0.015926
0.0159257
0.0159254
0.0159251
0.0159248
0.0159245
0.0159242
0.0159239
0.0159236
0.0159233
0.015923
0.0159227
0.0159224
0.0159221
0.0159218
0.0159215
0.0159212
0.0159209
0.0159206
0.0159203
0.01592
0.0159197
0.0159194
0.0159191
0.0159188
0.0159185
0.0159182
0.0159179
0.0159176
0.0159173
0.015917
0.0159167
0.0159164
0.0159161
0.0159158
0.0159155
0.0159152
0.0159149
0.0159146
0.0159143
0.015914
0.0159137
0.0159134
0.0159131
0.0159128
0.0159125
0.0159122
0.0159119
0.0159116
0.0159113
0.015911
0.0159107
0.0159104
0.01591
0.0159097
0.0159094
0.0159091
0.0159088
0.0159085
0.0159082
0.0159079
0.0159076
0.0159073
0.015907
0.0159067
0.0159064
0.0159061
0.0159058
0.0159055
0.0159052
0.0159049
0.0159046
0.0159043
0.015904
0.0159037
0.0159034
0.0159031
0.0159028
0.0159025
0.0159022
0.0159019
0.0159016
0.0159013
0.015901
0.0159007
0.0159004
0.0159001
0.0158998
0.0158995
0.0158992
0.0158989
0.0158986
0.0158983
0.015898
0.0158977
0.0158974
0.0158971
0.0158968
0.0158965
0.0158962
0.0158959
0.0158956
0.0158953
0.015895
0.0158947
0.0158944
0.0158941
0.0158938
0.0158935
0.0158932
0.0158929
0.0158926
0.0158923
0.015892
0.0158917
0.0158913
0.015891
0.0158907
0.0158904
0.0158901
0.0158898
0.0158895
0.0158892
0.0158889
0.0158886
0.0158883
0.015888
0.0158877
0.0158874
0.0158871
0.0158868
0.0158865
0.0158862
0.0158859
0.0158856
0.0158853
0.015885
0.0158847
0.0158844
0.0158841
0.0158838
0.0158835
0.0158832
0.0158829
0.0158826
0.0158823
0.015882
0.0158817
0.0158814
0.0158811
0.0158808
0.0158805
0.0158802
0.0158799
0.0158796
0.0158793
0.015879
0.0158787
0.0158784
0.0158781
0.0158778
0.0158775
0.0158772
0.0158769
0.0158766
0.0158763
0.015876
0.0158757
0.0158754
0.0158751
0.0158748
0.0158745
0.0158742
0.0158739
0.0158736
0.0158732
0.0158729
0.0158726
0.0158723
0.015872
0.0158717
0.0158714
0.0158711
0.0158708
0.0158705
0.0158702
0.0158699
0.0158696
0.0158693
0.015869
0.0158687
0.0158684
0.0158681
0.0158678
0.0158675
0.0158672
0.0158669
0.0158666
0.0158663
0.015866
0.0158657
0.0158654
0.0158651
0.0158648
0.0158645
0.0158642
0.0158639
0.0158636
0.0158633
0.015863
0.0158627
0.0158624
0.0158621
0.0158618
0.0158615
0.0158612
0.0158609
0.0158606
0.0158603
0.01586
0.0158597
0.0158594
0.0158591
0.0158588
0.0158585
0.0158582
0.0158579
0.0158576
0.0158573
0.015857
0.0158567
0.0158564
0.0158561
0.0158557
0.0158554
0.0158551
0.0158548
0.0158545
0.0158542
0.0158539
0.0158536
0.0158533
0.015853
0.0158527
0.0158524
0.0158521
0.0158518
0.0158515
0.0158512
0.0158509
0.0158506
0.0158503
0.01585
0.0158497
0.0158494
0.0158491
0.0158488
0.0158485
0.0158482
0.0158479
0.0158476
0.0158473
0.015847
0.0158467
0.0158464
0.0158461
0.0158458
0.0158455
0.0158452
0.0158449
0.0158446
0.0158443
0.015844
0.0158437
0.0158434
0.0158431
0.0158428
0.0158425
0.0158422
0.0158419
0.0158416
0.0158413
0.015841
0.0158407
0.0158404
0.0158401
0.0158398
0.0158395
0.0158392
0.0158389
0.0158385
0.0158382
0.0158379
0.0158376
0.0158373
0.015837
0.0158367
0.0158364
0.0158361
0.0158358
0.0158355
0.0158352
0.0158349
0.0158346
0.0158343
0.015834
0.0158337
0.0158334
0.0158331
0.0158328
0.0158325
0.0158322
0.0158319
0.0158316
0.0158313
0.015831
0.0158307
0.0158304
0.0158301
0.0158298
0.0158295
0.0158292
0.0158289
0.0158286
0.0158283
0.015828
0.0158277
0.0158274
0.0158271
0.0158268
0.0158265
0.0158262
0.0158259
0.0158256
0.0158253
0.015825
0.0158247
0.0158244
0.0158241
0.0158238
0.0158235
0.0158232
0.0158229
0.0158226
0.0158223
0.0158219
0.0158216
0.0158213
0.015821
0.0158207
0.0158204
0.0158201
0.0158198
0.0158195
0.0158192
0.0158189
0.0158186
0.0158183
0.015818
0.0158177
0.0158174
0.0158171
0.0158168
0.0158165
0.0158162
0.0158159
0.0158155
0.0158152
0.0158149
0.0158145
0.0158142
0.0158139
0.0158135
0.0158131
0.0158127
0.0158123
0.0158118
0.0158113
0.0158107
0.01581
0.0158093
0.0158082
0.0158078
0.0158078
0.0158078
1
0.969189
0.495614
0.314221
0.237894
0.197393
0.17213
0.154693
0.141838
0.131924
0.124023
0.117569
0.112192
0.10764
0.103736
0.100349
0.0973807
0.0947561
0.0924171
0.0903176
0.0884207
0.0866966
0.085121
0.0836738
0.0823386
0.0811013
0.0799505
0.0788761
0.07787
0.0769249
0.0760347
0.0751941
0.0743985
0.0736439
0.0729268
0.072244
0.0715929
0.0709711
0.0703763
0.0698067
0.0692604
0.068736
0.068232
0.0677471
0.0672801
0.0668301
0.066396
0.0659768
0.0655719
0.0651803
0.0648015
0.0644348
0.0640794
0.063735
0.0634009
0.0630767
0.0627619
0.0624561
0.0621589
0.0618699
0.0615887
0.061315
0.0610485
0.0607889
0.060536
0.0602893
0.0600488
0.0598142
0.0595852
0.0593617
0.0591434
0.0589301
0.0587217
0.058518
0.0583188
0.0581239
0.0579333
0.0577468
0.0575642
0.0573854
0.0572103
0.0570388
0.0568707
0.056706
0.0565445
0.0563862
0.0562309
0.0560786
0.0559292
0.0557825
0.0556386
0.0554973
0.0553586
0.0552223
0.0550885
0.054957
0.0548278
0.0547009
0.0545761
0.0544534
0.0543328
0.0542142
0.0540975
0.0539828
0.0538699
0.0537588
0.0536495
0.053542
0.0534361
0.0533319
0.0532292
0.0531282
0.0530287
0.0529306
0.0528341
0.052739
0.0526453
0.0525529
0.0524619
0.0523722
0.0522839
0.0521967
0.0521108
0.0520261
0.0519426
0.0518603
0.0517791
0.051699
0.05162
0.0515421
0.0514652
0.0513894
0.0513146
0.0512408
0.0511679
0.0510961
0.0510251
0.0509551
0.0508861
0.0508179
0.0507506
0.0506842
0.0506186
0.0505539
0.05049
0.050427
0.0503647
0.0503033
0.0502427
0.0501829
0.0501238
0.0500656
0.0500081
0.0499514
0.0498954
0.0498402
0.0497858
0.0497322
0.0496793
0.0496272
0.0495759
0.0495253
0.0494755
0.0494265
0.0493783
0.0493309
0.0492843
0.0492384
0.0491934
0.0491491
0.0491057
0.0490631
0.0490212
0.0489802
0.04894
0.0489006
0.048862
0.0488242
0.0487872
0.048751
0.0487156
0.0486809
0.0486471
0.048614
0.0485816
0.04855
0.0485192
0.048489
0.0484596
0.0484309
0.0484029
0.0483756
0.048349
0.048323
0.0482977
0.0482731
0.048249
0.0482256
0.0482029
0.0481807
0.0481591
0.0481381
0.0481177
0.0480979
0.0480786
0.0480598
0.0480416
0.0480239
0.0480068
0.0479901
0.0479739
0.0479582
0.047943
0.0479283
0.047914
0.0479002
0.0478868
0.0478739
0.0478613
0.0478492
0.0478375
0.0478262
0.0478153
0.0478047
0.0477945
0.0477847
0.0477752
0.0477661
0.0477573
0.0477488
0.0477407
0.0477328
0.0477253
0.047718
0.0477111
0.0477044
0.047698
0.0476918
0.0476859
0.0476803
0.0476748
0.0476697
0.0476647
0.04766
0.0476555
0.0476511
0.047647
0.0476431
0.0476394
0.0476358
0.0476324
0.0476292
0.0476261
0.0476233
0.0476205
0.047618
0.0476155
0.0476132
0.0476111
0.0476091
0.0476072
0.0476055
0.0476038
0.0476023
0.0476009
0.0475995
0.0475982
0.047597
0.0475959
0.0475948
0.0475937
0.0475927
0.0475917
0.0475907
0.0475898
0.0475888
0.0475879
0.047587
0.0475861
0.0475852
0.0475843
0.0475834
0.0475825
0.0475816
0.0475807
0.0475798
0.0475789
0.047578
0.0475771
0.0475762
0.0475753
0.0475744
0.0475735
0.0475726
0.0475717
0.0475708
0.0475699
0.047569
0.0475681
0.0475672
0.0475663
0.0475654
0.0475645
0.0475636
0.0475627
0.0475618
0.0475609
0.04756
0.0475591
0.0475582
0.0475573
0.0475564
0.0475555
0.0475546
0.0475537
0.0475528
0.0475519
0.047551
0.0475501
0.0475492
0.0475482
0.0475473
0.0475464
0.0475455
0.0475446
0.0475437
0.0475428
0.0475419
0.047541
0.0475401
0.0475392
0.0475383
0.0475374
0.0475365
0.0475356
0.0475347
0.0475338
0.0475329
0.047532
0.0475311
0.0475302
0.0475293