# vtk DataFile Version 2.0
FlowField
ASCII
DATASET STRUCTURED_GRID
DIMENSIONS 800 1 200
POINTS 160000 float
0 0 0
0.04 0 0
0.08 0 0
0.12 0 0
0.16 0 0
0.2 0 0
0.24 0 0
0.28 0 0
0.32 0 0
0.36 0 0
0.4 0 0
0.44 0 0
0.48 0 0
0.52 0 0
0.56 0 0
0.6 0 0
0.64 0 0
0.68 0 0
0.72 0 0
0.76 0 0
0.8 0 0
0.84 0 0
0.88 0 0
0.92 0 0
0.96 0 0
1 0 0
1.04 0 0
1.08 0 0
1.12 0 0
1.16 0 0
1.2 0 0
1.24 0 0
1.28 0 0
1.32 0 0
1.36 0 0
1.4 0 0
1.44 0 0
1.48 0 0
1.52 0 0
1.56 0 0
1.6 0 0
1.64 0 0
1.68 0 0
1.72 0 0
1.76 0 0
1.8 0 0
1.84 0 0
1.88 0 0
1.92 0 0
1.96 0 0
2 0 0
2.04 0 0
2.08 0 0
2.12 0 0
2.16 0 0
2.2 0 0
2.24 0 0
2.28 0 0
2.32 0 0
2.36 0 0
2.4 0 0
2.44 0 0
2.48 0 0
2.52 0 0
2.56 0 0
2.6 0 0
2.64 0 0
2.68 0 0
2.72 0 0
2.76 0 0
2.8 0 0
2.84 0 0
2.88 0 0
2.92 0 0
2.96 0 0
3 0 0
3.04 0 0
3.08 0 0
3.12 0 0
3.16 0 0
3.2 0 0
3.24 0 0
3.28 0 0
3.32 0 0
3.36 0 0
3.4 0 0
3.44 0 0
3.48 0 0
3.52 0 0
3.56 0 0
3.6 0 0
3.64 0 0
3.68 0 0
3.72 0 0
3.76 0 0
3.8 0 0
3.84 0 0
3.88 0 0
3.92 0 0
3.96 0 0
4 0 0
4.04 0 0
4.08 0 0
4.12 0 0
4.16 0 0
4.2 0 0
4.24 0 0
4.28 0 0
4.32 0 0
4.36 0 0
4.4 0 0
4.44 0 0
4.48 0 0
4.52 0 0
4.56 0 0
4.6 0 0
4.64 0 0
4.68 0 0
4.72 0 0
4.76 0 0
4.8 0 0
4.84 0 0
4.88 0 0
4.92 0 0
4.96 0 0
5 0 0
5.04 0 0
5.08 0 0
5.12 0 0
5.16 0 0
5.2 0 0
5.24 0 0
5.28 0 0
5.32 0 0
5.36 0 0
5.4 0 0
5.44 0 0
5.48 0 0
5.52 0 0
5.56 0 0
5.6 0 0
5.64 0 0
5.68 0 0
5.72 0 0
5.76 0 0
5.8 0 0
5.84 0 0
5.88 0 0
5.92 0 0
5.96 0 0
6 0 0
6.04 0 0
6.08 0 0
6.12 0 0
6.16 0 0
6.2 0 0
6.24 0 0
6.28 0 0
6.32 0 0
6.36 0 0
6.4 0 0
6.44 0 0
6.48 0 0
6.52 0 0
6.56 0 0
6.6 0 0
6.64 0 0
6.68 0 0
6.72 0 0
6.76 0 0
6.8 0 0
6.84 0 0
6.88 0 0
6.92 0 0
6.96 0 0
7 0 0
7.04 0 0
7.08 0 0
7.12 0 0
7.16 0 0
7.2 0 0
7.24 0 0
7.28 0 0
7.32 0 0
7.36 0 0
7.4 0 0
7.44 0 0
7.48 0 0
7.52 0 0
7.56 0 0
7.6 0 0
7.64 0 0
7.68 0 0
7.72 0 0
7.76 0 0
7.8 0 0
7.84 0 0
7.88 0 0
7.92 0 0
7.96 0 0
8 0 0
8.04 0 0
8.08 0 0
8.12 0 0
8.16 0 0
8.2 0 0
8.24 0 0
8.28 0 0
8.32 0 0
8.36 0 0
8.4 0 0
8.44 0 0
8.48 0 0
8.52 0 0
8.56 0 0
8.6 0 0
8.64 0 0
8.68 0 0
8.72 0 0
8.76 0 0
8.8 0 0
8.84 0 0
8.88 0 0
8.92 0 0
8.96 0 0
9 0 0
9.04 0 0
9.08 0 0
9.12 0 0
9.16 0 0
9.2 0 0
9.24 0 0
9.28 0 0
9.32 0 0
9.36 0 0
9.4 0 0
9.44 0 0
9.48 0 0
9.52 0 0
9.56 0 0
9.6 0 0
9.64 0 0
9.68 0 0
9.72 0 0
9.76 0 0
9.8 0 0
9.84 0 0
9.88 0 0
9.92 0 0
9.96 0 0
10 0 0
10.04 0 0
10.08 0 0
10.12 0 0
10.16 0 0
10.2 0 0
10.24 0 0
10.28 0 0
10.32 0 0
10.36 0 0
10.4 0 0
10.44 0 0
10.48 0 0
10.52 0 0
10.56 0 0
10.6 0 0
10.64 0 0
10.68 0 0
10.72 0 0
10.76 0 0
10.8 0 0
10.84 0 0
10.88 0 0
10.92 0 0
10.96 0 0
11 0 0
11.04 0 0
11.08 0 0
11.12 0 0
11.16 0 0
11.2 0 0
11.24 0 0
11.28 0 0
11.32 0 0
11.36 0 0
11.4 0 0
11.44 0 0
11.48 0 0
11.52 0 0
11.56 0 0
11.6 0 0
11.64 0 0
11.68 0 0
11.72 0 0
11.76 0 0
11.8 0 0
11.84 0 0
11.88 0 0
11.92 0 0
11.96 0 0
12 0 0
12.04 0 0
12.08 0 0
12.12 0 0
12.16 0 0
12.2 0 0
12.24 0 0
12.28 0 0
12.32 0 0
12.36 0 0
12.4 0 0
12.44 0 0
12.48 0 0
12.52 0 0
12.56 0 0
12.6 0 0
12.64 0 0
12.68 0 0
12.72 0 0
12.76 0 0
12.8 0 0
12.84 0 0
12.88 0 0
12.92 0 0
12.96 0 0
13 0 0
13.04 0 0
13.08 0 0
13.12 0 0
13.16 0 0
13.2 0 0
13.24 0 0
13.28 0 0
13.32 0 0
13.36 0 0
13.4 0 0
13.44 0 0
13.48 0 0
13.52 0 0
13.56 0 0
13.6 0 0
13.64 0 0
13.68 0 0
13.72 0 0
13.76 0 0
13.8 0 0
13.84 0 0
13.88 0 0
13.92 0 0
13.96 0 0
14 0 0
14.04 0 0
14.08 0 0
14.12 0 0
14.16 0 0
14.2 0 0
14.24 0 0
14.28 0 0
14.32 0 0
14.36 0 0
14.4 0 0
14.44 0 0
14.48 0 0
14.52 0 0
14.56 0 0
14.6 0 0
14.64 0 0
14.68 0 0
14.72 0 0
14.76 0 0
14.8 0 0
14.84 0 0
14.88 0 0
14.92 0 0
14.96 0 0
15 0 0
15.04 0 0
15.08 0 0
15.12 0 0
15.16 0 0
15.2 0 0
15.24 0 0
15.28 0 0
15.32 0 0
15.36 0 0
15.4 0 0
15.44 0 0
15.48 0 0
15.52 0 0
15.56 0 0
15.6 0 0
15.64 0 0
15.68 0 0
15.72 0 0
15.76 0 0
15.8 0 0
15.84 0 0
15.88 0 0
15.92 0 0
15.96 0 0
16 0 0
16.04 0 0
16.08 0 0
16.12 0 0
16.16 0 0
16.2 0 0
16.24 0 0
16.28 0 0
16.32 0 0
16.36 0 0
16.4 0 0
16.44 0 0
16.48 0 0
16.52 0 0
16.56 0 0
16.6 0 0
16.64 0 0
16.68 0 0
16.72 0 0
16.76 0 0
16.8 0 0
16.84 0 0
16.88 0 0
16.92 0 0
16.96 0 0
17 0 0
17.04 0 0
17.08 0 0
17.12 0 0
17.16 0 0
17.2 0 0
17.24 0 0
17.28 0 0
17.32 0 0
17.36 0 0
17.4 0 0
17.44 0 0
17.48 0 0
17.52 0 0
17.56 0 0
17.6 0 0
17.64 0 0
17.68 0 0
17.72 0 0
17.76 0 0
17.8 0 0
17.84 0 0
17.88 0 0
17.92 0 0
17.96 0 0
18 0 0
18.04 0 0
18.08 0 0
18.12 0 0
18.16 0 0
18.2 0 0
18.24 0 0
18.28 0 0
18.32 0 0
18.36 0 0
18.4 0 0
18.44 0 0
18.48 0 0
18.52 0 0
18.56 0 0
18.6 0 0
18.64 0 0
18.68 0 0
18.72 0 0
18.76 0 0
18.8 0 0
18.84 0 0
18.88 0 0
18.92 0 0
18.96 0 0
19 0 0
19.04 0 0
19.08 0 0
19.12 0 0
19.16 0 0
19.2 0 0
19.24 0 0
19.28 0 0
19.32 0 0
19.36 0 0
19.4 0 0
19.44 0 0
19.48 0 0
19.52 0 0
19.56 0 0
19.6 0 0
19.64 0 0
19.68 0 0
19.72 0 0
19.76 0 0
19.8 0 0
19.84 0 0
19.88 0 0
19.92 0 0
19.96 0 0
20 0 0
20.04 0 0
20.08 0 0
20.12 0 0
20.16 0 0
20.2 0 0
20.24 0 0
20.28 0 0
20.32 0 0
20.36 0 0
20.4 0 0
20.44 0 0
20.48 0 0
20.52 0 0
20.56 0 0
20.6 0 0
20.64 0 0
20.68 0 0
20.72 0 0
20.76 0 0
20.8 0 0
20.84 0 0
20.88 0 0
20.92 0 0
20.96 0 0
21 0 0
21.04 0 0
21.08 0 0
21.12 0 0
21.16 0 0
21.2 0 0
21.24 0 0
21.28 0 0
21.32 0 0
21.36 0 0
21.4 0 0
21.44 0 0
21.48 0 0
21.52 0 0
21.56 0 0
21.6 0 0
21.64 0 0
21.68 0 0
21.72 0 0
21.76 0 0
21.8 0 0
21.84 0 0
21.88 0 0
21.92 0 0
21.96 0 0
22 0 0
22.04 0 0
22.08 0 0
22.12 0 0
22.16 0 0
22.2 0 0
22.24 0 0
22.28 0 0
22.32 0 0
22.36 0 0
22.4 0 0
22.44 0 0
22.48 0 0
22.52 0 0
22.56 0 0
22.6 0 0
22.64 0 0
22.68 0 0
22.72 0 0
22.76 0 0
22.8 0 0
22.84 0 0
22.88 0 0
22.92 0 0
22.96 0 0
23 0 0
23.04 0 0
23.08 0 0
23.12 0 0
23.16 0 0
23.2 0 0
23.24 0 0
23.28 0 0
23.32 0 0
23.36 0 0
23.4 0 0
23.44 0 0
23.48 0 0
23.52 0 0
23.56 0 0
23.6 0 0
23.64 0 0
23.68 0 0
23.72 0 0
23.76 0 0
23.8 0 0
23.84 0 0
23.88 0 0
23.92 0 0
23.96 0 0
24 0 0
24.04 0 0
24.08 0 0
24.12 0 0
24.16 0 0
24.2 0 0
24.24 0 0
24.28 0 0
24.32 0 0
24.36 0 0
24.4 0 0
24.44 0 0
24.48 0 0
24.52 0 0
24.56 0 0
24.6 0 0
24.64 0 0
24.68 0 0
24.72 0 0
24.76 0 0
24.8 0 0
24.84 0 0
24.88 0 0
24.92 0 0
24.96 0 0
25 0 0
25.04 0 0
25.08 0 0
25.12 0 0
25.16 0 0
25.2 0 0
25.24 0 0
25.28 0 0
25.32 0 0
25.36 0 0
25.4 0 0
25.44 0 0
25.48 0 0
25.52 0 0
25.56 0 0
25.6 0 0
25.64 0 0
25.68 0 0
25.72 0 0
25.76 0 0
25.8 0 0
25.84 0 0
25.88 0 0
25.92 0 0
25.96 0 0
26 0 0
26.04 0 0
26.08 0 0
26.12 0 0
26.16 0 0
26.2 0 0
26.24 0 0
26.28 0 0
26.32 0 0
26.36 0 0
26.4 0 0
26.44 0 0
26.48 0 0
26.52 0 0
26.56 0 0
26.6 0 0
26.64 0 0
26.68 0 0
26.72 0 0
26.76 0 0
26.8 0 0
26.84 0 0
26.88 0 0
26.92 0 0
26.96 0 0
27 0 0
27.04 0 0
27.08 0 0
27.12 0 0
27.16 0 0
27.2 0 0
27.24 0 0
27.28 0 0
27.32 0 0
27.36 0 0
27.4 0 0
27.44 0 0
27.48 0 0
27.52 0 0
27.56 0 0
27.6 0 0
27.64 0 0
27.68 0 0
27.72 0 0
27.76 0 0
27.8 0 0
27.84 0 0
27.88 0 0
27.92 0 0
27.96 0 0
28 0 0
28.04 0 0
28.08 0 0
28.12 0 0
28.16 0 0
28.2 0 0
28.24 0 0
28.28 0 0
28.32 0 0
28.36 0 0
28.4 0 0
28.44 0 0
28.48 0 0
28.52 0 0
28.56 0 0
28.6 0 0
28.64 0 0
28.68 0 0
28.72 0 0
28.76 0 0
28.8 0 0
28.84 0 0
28.88 0 0
28.92 0 0
28.96 0 0
29 0 0
29.04 0 0
29.08 0 0
29.12 0 0
29.16 0 0
29.2 0 0
29.24 0 0
29.28 0 0
29.32 0 0
29.36 0 0
29.4 0 0
29.44 0 0
29.48 0 0
29.52 0 0
29.56 0 0
29.6 0 0
29.64 0 0
29.68 0 0
29.72 0 0
29.76 0 0
29.8 0 0
29.84 0 0
29.88 0 0
29.92 0 0
29.96 0 0
30 0 0
30.04 0 0
30.08 0 0
30.12 0 0
30.16 0 0
30.2 0 0
30.24 0 0
30.28 0 0
30.32 0 0
30.36 0 0
30.4 0 0
30.44 0 0
30.48 0 0
30.52 0 0
30.56 0 0
30.6 0 0
30.64 0 0
30.68 0 0
30.72 0 0
30.76 0 0
30.8 0 0
30.84 0 0
30.88 0 0
30.92 0 0
30.96 0 0
31 0 0
31.04 0 0
31.08 0 0
31.12 0 0
31.16 0 0
31.2 0 0
31.24 0 0
31.28 0 0
31.32 0 0
31.36 0 0
31.4 0 0
31.44 0 0
31.48 0 0
31.52 0 0
31.56 0 0
31.6 0 0
31.64 0 0
31.68 0 0
31.72 0 0
31.76 0 0
31.8 0 0
31.84 0 0
31.88 0 0
31.92 0 0
31.96 0 0
0 0.005 0
0.04 0.005 0
0.08 0.005 0
0.12 0.005 0
0.16 0.005 0
0.2 0.005 0
0.24 0.005 0
0.28 0.005 0
0.32 0.005 0
0.36 0.005 0
0.4 0.005 0
0.44 0.005 0
0.48 0.005 0
0.52 0.005 0
0.56 0.005 0
0.6 0.005 0
0.64 0.005 0
0.68 0.005 0
0.72 0.005 0
0.76 0.005 0
0.8 0.005 0
0.84 0.005 0
0.88 0.005 0
0.92 0.005 0
0.96 0.005 0
1 0.005 0
1.04 0.005 0
1.08 0.005 0
1.12 0.005 0
1.16 0.005 0
1.2 0.005 0
1.24 0.005 0
1.28 0.005 0
1.32 0.005 0
1.36 0.005 0
1.4 0.005 0
1.44 0.005 0
1.48 0.005 0
1.52 0.005 0
1.56 0.005 0
1.6 0.005 0
1.64 0.005 0
1.68 0.005 0
1.72 0.005 0
1.76 0.005 0
1.8 0.005 0
1.84 0.005 0
1.88 0.005 0
1.92 0.005 0
1.96 0.005 0
2 0.005 0
2.04 0.005 0
2.08 0.005 0
2.12 0.005 0
2.16 0.005 0
2.2 0.005 0
2.24 0.005 0
2.28 0.005 0
2.32 0.005 0
2.36 0.005 0
2.4 0.005 0
2.44 0.005 0
2.48 0.005 0
2.52 0.005 0
2.56 0.005 0
2.6 0.005 0
2.64 0.005 0
2.68 0.005 0
2.72 0.005 0
2.76 0.005 0
2.8 0.005 0
2.84 0.005 0
2.88 0.005 0
2.92 0.005 0
2.96 0.005 0
3 0.005 0
3.04 0.005 0
3.08 0.005 0
3.12 0.005 0
3.16 0.005 0
3.2 0.005 0
3.24 0.005 0
3.28 0.005 0
3.32 0.005 0
3.36 0.005 0
3.4 0.005 0
3.44 0.005 0
3.48 0.005 0
3.52 0.005 0
3.56 0.005 0
3.6 0.005 0
3.64 0.005 0
3.68 0.005 0
3.72 0.005 0
3.76 0.005 0
3.8 0.005 0
3.84 0.005 0
3.88 0.005 0
3.92 0.005 0
3.96 0.005 0
4 0.005 0
4.04 0.005 0
4.08 0.005 0
4.12 0.005 0
4.16 0.005 0
4.2 0.005 0
4.24 0.005 0
4.28 0.005 0
4.32 0.005 0
4.36 0.005 0
4.4 0.005 0
4.44 0.005 0
4.48 0.005 0
4.52 0.005 0
4.56 0.005 0
4.6 0.005 0
4.64 0.005 0
4.68 0.005 0
4.72 0.005 0
4.76 0.005 0
4.8 0.005 0
4.84 0.005 0
4.88 0.005 0
4.92 0.005 0
4.96 0.005 0
5 0.005 0
5.04 0.005 0
5.08 0.005 0
5.12 0.005 0
5.16 0.005 0
5.2 0.005 0
5.24 0.005 0
5.28 0.005 0
5.32 0.005 0
5.36 0.005 0
5.4 0.005 0
5.44 0.005 0
5.48 0.005 0
5.52 0.005 0
5.56 0.005 0
5.6 0.005 0
5.64 0.005 0
5.68 0.005 0
5.72 0.005 0
5.76 0.005 0
5.8 0.005 0
5.84 0.005 0
5.88 0.005 0
5.92 0.005 0
5.96 0.005 0
6 0.005 0
6.04 0.005 0
6.08 0.005 0
6.12 0.005 0
6.16 0.005 0
6.2 0.005 0
6.24 0.005 0
6.28 0.005 0
6.32 0.005 0
6.36 0.005 0
6.4 0.005 0
6.44 0.005 0
6.48 0.005 0
6.52 0.005 0
6.56 0.005 0
6.6 0.005 0
6.64 0.005 0
6.68 0.005 0
6.72 0.005 0
6.76 0.005 0
6.8 0.005 0
6.84 0.005 0
6.88 0.005 0
6.92 0.005 0
6.96 0.005 0
7 0.005 0
7.04 0.005 0
7.08 0.005 0
7.12 0.005 0
7.16 0.005 0
7.2 0.005 0
7.24 0.005 0
7.28 0.005 0
7.32 0.005 0
7.36 0.005 0
7.4 0.005 0
[...]
POINT_DATA 160000

SCALARS p float 1
LOOKUP_TABLE default
1
60.1354
57.92
57.6651
57.6049
57.5785
57.5625
57.5509
57.5416
57.5338
57.5268
57.5205
57.5146
57.5091
57.5037
57.4986
57.4937
57.4889
57.4841
57.4795
57.475
57.4705
57.4661
57.4618
57.4575
57.4533
57.4491
57.445
57.441
57.4369
57.433
57.4291
57.4252
57.4214
57.4176
57.4138
57.4101
57.4064
57.4028
57.3992
57.3956
57.3921
57.3886
57.3852
57.3817
57.3783
57.375
57.3716
57.3683
57.365
57.3618
57.3586
57.3554
57.3522
57.349
57.3459
57.3428
57.3397
57.3367
57.3337
57.3306
57.3277
57.3247
57.3217
57.3188
57.3159
57.313
57.3101
57.3073
57.3044
57.3016
57.2988
57.296
57.2932
57.2905
57.2877
57.285
57.2823
57.2796
57.2769
57.2742
57.2716
57.2689
57.2663
57.2637
57.2611
57.2585
57.2559
57.2533
57.2508
57.2483
57.2457
57.2432
57.2407
57.2382
57.2357
57.2332
57.2308
57.2283
57.2259
57.2234
57.221
57.2186
57.2162
57.2138
57.2114
57.209
57.2066
57.2043
57.2019
57.1996
57.1973
57.1949
57.1926
57.1903
57.188
57.1857
57.1834
57.1811
57.1789
57.1766
57.1743
57.1721
57.1699
57.1676
57.1654
57.1632
57.161
57.1588
57.1565
57.1544
57.1522
57.15
57.1478
57.1456
57.1435
57.1413
57.1392
57.137
57.1349
57.1328
57.1306
57.1285
57.1264
57.1243
57.1222
57.1201
57.118
57.1159
57.1138
57.1117
57.1097
57.1076
57.1055
57.1035
57.1014
57.0994
57.0974
57.0953
57.0933
57.0913
57.0892
57.0872
57.0852
57.0832
57.0812
57.0792
57.0772
57.0752
57.0732
57.0712
57.0692
57.0673
57.0653
57.0633
57.0614
57.0594
57.0574
57.0555
57.0535
57.0516
57.0497
57.0477
57.0458
57.0439
57.0419
57.04
57.0381
57.0362
57.0343
57.0324
57.0305
57.0286
57.0267
57.0248
57.0229
57.021
57.0191
57.0172
57.0153
57.0135
57.0116
57.0097
57.0079
57.006
57.0041
57.0023
57.0004
56.9986
56.9967
56.9949
56.993
56.9912
56.9894
56.9875
56.9857
56.9839
56.982
56.9802
56.9784
56.9766
56.9747
56.9729
56.9711
56.9693
56.9675
56.9657
56.9639
56.9621
56.9603
56.9585
56.9567
56.9549
56.9531
56.9514
56.9496
56.9478
56.946
56.9442
56.9425
56.9407
56.9389
56.9371
56.9354
56.9336
56.9318
56.9301
56.9283
56.9266
56.9248
56.9231
56.9213
56.9196
56.9178
56.9161
56.9143
56.9126
56.9108
56.9091
56.9074
56.9056
56.9039
56.9022
56.9004
56.8987
56.897
56.8953
56.8935
56.8918
56.8901
56.8884
56.8867
56.885
56.8832
56.8815
56.8798
56.8781
56.8764
56.8747
56.873
56.8713
56.8696
56.8679
56.8662
56.8645
56.8628
56.8611
56.8594
56.8577
56.856
56.8543
56.8526
56.851
56.8493
56.8476
56.8459
56.8442
56.8425
56.8409
56.8392
56.8375
56.8358
56.8342
56.8325
56.8308
56.8291
56.8275
56.8258
56.8241
56.8225
56.8208
56.8191
56.8175
56.8158
56.8141
56.8125
56.8108
56.8092
56.8075
56.8059
56.8042
56.8025
56.8009
56.7992
56.7976
56.7959
56.7943
56.7926
56.791
56.7893
56.7877
56.7861
56.7844
56.7828
56.7811
56.7795
56.7778
56.7762
56.7746
56.7729
56.7713
56.7696
56.768
56.7664
56.7647
56.7631
56.7615
56.7598
56.7582
56.7566
56.755
56.7533
56.7517
56.7501
56.7484
56.7468
56.7452
56.7436
56.7419
56.7403
56.7387
56.7371
56.7354
56.7338
56.7322
56.7306
56.729
56.7273
56.7257
56.7241
56.7225
56.7209
56.7193
56.7177
56.716
56.7144
56.7128
56.7112
56.7096
56.708
56.7064
56.7048
56.7031
56.7015
56.6999
56.6983
56.6967
56.6951
56.6935
56.6919
56.6903
56.6887
56.6871
56.6855
56.6839
56.6823
56.6807
56.6791
56.6775
56.6759
56.6743
56.6727
56.6711
56.6695
56.6679
56.6663
56.6647
56.6631
56.6615
56.6599
56.6583
56.6567
56.6551
56.6535
56.6519
56.6503
56.6487
56.6471
56.6455
56.6439
56.6423
56.6407
56.6392
56.6376
56.636
56.6344
56.6328
56.6312
56.6296
56.628
56.6264
56.6248
56.6233
56.6217
56.6201
56.6185
56.6169
56.6153
56.6137
56.6121
56.6106
56.609
56.6074
56.6058
56.6042
56.6026
56.6011
56.5995
56.5979
56.5963
56.5947
56.5931
56.5916
56.59
56.5884
56.5868
56.5852
56.5837
56.5821
56.5805
56.5789
56.5773
56.5758
56.5742
56.5726
56.571
56.5694
56.5679
56.5663
56.5647
56.5631
56.5616
56.56
56.5584
56.5568
56.5553
56.5537
56.5521
56.5505
56.549
56.5474
56.5458
56.5442
56.5427
56.5411
56.5395
56.5379
56.5364
56.5348
56.5332
56.5316
56.5301
56.5285
56.5269
56.5254
56.5238
56.5222
56.5206
56.5191
56.5175
56.5159
56.5144
56.5128
56.5112
56.5096
56.5081
56.5065
56.5049
56.5034
56.5018
56.5002
56.4987
56.4971
56.4955
56.494
56.4924
56.4908
56.4892
56.4877
56.4861
56.4845
56.483
56.4814
56.4798
56.4783
56.4767
56.4751
56.4736
56.472
56.4704
56.4689
56.4673
56.4658
56.4642
56.4626
56.4611
56.4595
56.4579
56.4564
56.4548
56.4532
56.4517
56.4501
56.4485
56.447
56.4454
56.4438
56.4423
56.4407
56.4392
56.4376
56.436
56.4345
56.4329
56.4313
56.4298
56.4282
56.4267
56.4251
56.4235
56.422
56.4204
56.4188
56.4173
56.4157
56.4142
56.4126
56.411
56.4095
56.4079
56.4064
56.4048
56.4032
56.4017
56.4001
56.3986
56.397
56.3954
56.3939
56.3923
56.3908
56.3892
56.3876
56.3861
56.3845
56.383
56.3814
56.3798
56.3783
56.3767
56.3752
56.3736
56.3721
56.3705
56.3689
56.3674
56.3658
56.3643
56.3627
56.3611
56.3596
56.358
56.3565
56.3549
56.3534
56.3518
56.3502
56.3487
56.3471
56.3456
56.344
56.3425
56.3409
56.3393
56.3378
56.3362
56.3347
56.3331
56.3316
56.33
56.3284
56.3269
56.3253
56.3238
56.3222
56.3207
56.3191
56.3176
56.316
56.3144
56.3129
56.3113
56.3098
56.3082
56.3067
56.3051
56.3036
56.302
56.3004
56.2989
56.2973
56.2958
56.2942
56.2927
56.2911
56.2896
56.288
56.2865
56.2849
56.2833
56.2818
56.2802
56.2787
56.2771
56.2756
56.274
56.2725
56.2709
56.2694
56.2678
56.2663
56.2647
56.2632
56.2616
56.26
56.2585
56.2569
56.2554
56.2538
56.2523
56.2507
56.2492
56.2476
56.2461
56.2445
56.243
56.2414
56.2399
56.2383
56.2368
56.2352
56.2337
56.2321
56.2305
56.229
56.2274
56.2259
56.2243
56.2228
56.2212
56.2197
56.2181
56.2166
56.215
56.2135
56.2119
56.2104
56.2088
56.2073
56.2057
56.2042
56.2026
56.2011
56.1995
56.198
56.1964
56.1949
56.1933
56.1918
56.1902
56.1887
56.1871
56.1856
56.184
56.1825
56.1809
56.1794
56.1778
56.1763
56.1747
56.1732
56.1716
56.1701
56.1685
56.167
56.1654
56.1639
56.1623
56.1608
56.1592
56.1577
56.1561
56.1546
56.153
56.1515
56.1499
56.1484
56.1468
56.1453
56.1437
56.1422
56.1406
56.1391
56.1375
56.136
56.1344
56.1329
56.1313
56.1298
56.1282
56.1267
56.1251
56.1236
56.122
56.1205
56.1189
56.1174
56.1158
56.1143
56.1127
56.1112
56.1096
56.1081
56.1066
56.105
56.1035
56.1019
56.1004
56.0988
56.0973
56.0957
56.0942
56.0926
56.0911
56.0895
56.088
56.0864
56.0849
56.0833
56.0818
56.0802
56.0787
56.0771
56.0756
56.074
56.0725
56.071
56.0694
56.0679
56.0663
56.0648
56.0632
56.0617
56.0601
56.0586
56.057
56.0555
56.0539
56.0524
1
60.1354
60.1354
57.92
57.6651
57.6049
57.5785
57.5625
57.5509
57.5416
57.5338
57.5268
57.5205
57.5146
57.5091
57.5037
57.4986
57.4937
57.4889
57.4841
57.4795
57.475
57.4705
57.4661
57.4618
57.4575
57.4533
57.4491
57.445
57.441
57.4369
57.433
57.4291
57.4252
57.4214
57.4176
57.4138
57.4101
57.4064
57.4028
57.3992
57.3956
57.3921
57.3886
57.3852
57.3817
57.3783
57.375
57.3716
57.3683
57.365
57.3618
57.3586
57.3554
57.3522
57.349
57.3459
57.3428
57.3397
57.3367
57.3337
57.3306
57.3277
57.3247
57.3217
57.3188
57.3159
57.313
57.3101
57.3073
57.3044
57.3016
57.2988
57.296
57.2932
57.2905
57.2877
57.285
57.2823
57.2796
57.2769
57.2742
57.2716
57.2689
57.2663
57.2637
57.2611
57.2585
57.2559
57.2533
57.2508
57.2483
57.2457
57.2432
57.2407
57.2382
57.2357
57.2332
57.2308
57.2283
57.2259
57.2234
57.221
57.2186
57.2162
57.2138
57.2114
57.209
57.2066
57.2043
57.2019
57.1996
57.1973
57.1949
57.1926
57.1903
57.188
57.1857
57.1834
57.1811
57.1789
57.1766
57.1743
57.1721
57.1699
57.1676
57.1654
57.1632
57.161
57.1588
57.1565
57.1544
57.1522
57.15
57.1478
57.1456
57.1435
57.1413
57.1392
57.137
57.1349
57.1328
57.1306
57.1285
57.1264
57.1243
57.1222
57.1201
57.118
57.1159
57.1138
57.1117
57.1097
57.1076
57.1055
57.1035
57.1014
57.0994
57.0974
57.0953
57.0933
57.0913
57.0892
57.0872
57.0852
57.0832
57.0812
57.0792
57.0772
57.0752
57.0732
57.0712
57.0692
57.0673
57.0653
57.0633
57.0614
57.0594
57.0574
57.0555
57.0535
57.0516
57.0497
57.0477
57.0458
57.0439
57.0419
57.04
57.0381
57.0362
57.0343
57.0324
57.0305
57.0286
57.0267
57.0248
57.0229
57.021
57.0191
57.0172
57.0153
57.0135
57.0116
57.0097
57.0079
57.006
57.0041
57.0023
57.0004
56.9986
56.9967
56.9949
56.993
56.9912
56.9894
56.9875
56.9857
56.9839
56.982
56.9802
56.9784
56.9766
56.9747
56.9729
56.9711
56.9693
56.9675
56.9657
56.9639
56.9621
56.9603
56.9585
56.9567
56.9549
56.9531
56.9514
56.9496
56.9478
56.946
56.9442
56.9425
56.9407
56.9389
56.9371
56.9354
56.9336
56.9318
56.9301
56.9283
56.9266
56.9248
56.9231
56.9213
56.9196
56.9178
56.9161
56.9143
56.9126
56.9108
56.9091
56.9074
56.9056
56.9039
56.9022
56.9004
56.8987
56.897
56.8953
56.8935
56.8918
56.8901
56.8884
56.8867
56.885
56.8832
56.8815
56.8798
56.8781
56.8764
56.8747
56.873
56.8713
56.8696
56.8679
56.8662
56.8645
56.8628
56.8611
56.8594
56.8577
56.856
56.8543
56.8526
56.851
56.8493
56.8476
56.8459
56.8442
56.8425
56.8409
56.8392
56.8375
56.8358
56.8342
56.8325
56.8308
56.8291
56.8275
56.8258
56.8241
56.8225
56.8208
56.8191
56.8175
56.8158
56.8141
56.8125
56.8108
56.8092
56.8075
56.8059
56.8042
56.8025
56.8009
56.7992
56.7976
56.7959
56.7943
56.7926
56.791
56.7893
56.7877
56.7861
56.7844
56.7828
56.7811
56.7795
56.7778
56.7762
56.7746
56.7729
56.7713
56.7696
56.768
56.7664
56.7647
56.7631
56.7615
56.7598
56.7582
56.7566
56.755
56.7533
56.7517
56.7501
56.7484
56.7468
56.7452
56.7436
56.7419
56.7403
56.7387
56.7371
56.7354
56.7338
56.7322
56.7306
56.729
56.7273
56.7257
56.7241
56.7225
56.7209
56.7193
56.7177
56.716
56.7144
56.7128
56.7112
56.7096
56.708
56.7064
56.7048
56.7031
56.7015
56.6999
56.6983
56.6967
56.6951
56.6935
56.6919
56.6903
56.6887
56.6871
56.6855
56.6839
56.6823
56.6807
56.6791
56.6775
56.6759
56.6743
56.6727
56.6711
56.6695
56.6679
56.6663
56.6647
56.6631
56.6615
56.6599
56.6583
56.6567
56.6551
56.6535
56.6519
56.6503
56.6487
56.6471
56.6455
56.6439
56.6423
56.6407
56.6392
56.6376
56.636
56.6344
56.6328
56.6312
56.6296
56.628
56.6264
56.6248
56.6233
56.6217
56.6201
56.6185
56.6169
56.6153
56.6137
56.6121
56.6106
56.609
56.6074
56.6058
56.6042
56.6026
56.6011
56.5995
56.5979
56.5963
56.5947
56.5931
56.5916
56.59
56.5884
56.5868
56.5852
56.5837
56.5821
56.5805
56.5789
56.5773
56.5758
56.5742
56.5726
56.571
56.5694
56.5679
56.5663
56.5647
56.5631
56.5616
56.56
56.5584
56.5568
56.5553
56.5537
56.5521
56.5505
56.549
56.5474
56.5458
56.5442
56.5427
56.5411
56.5395
56.5379
56.5364
56.5348
56.5332
56.5316
56.5301
56.5285
56.5269
56.5254
56.5238
56.5222
56.5206
56.5191
56.5175
56.5159
56.5144
56.5128
56.5112
56.5096
56.5081
56.5065
56.5049
56.5034
56.5018
56.5002
56.4987
56.4971
56.4955
56.494
56.4924
56.4908
56.4892
56.4877
56.4861
56.4845
56.483
56.4814
56.4798
56.4783
56.4767
56.4751
56.4736
56.472
56.4704
56.4689
56.4673
56.4658
56.4642
56.4626
56.4611
56.4595
56.4579
56.4564
56.4548
56.4532
56.4517
56.4501
56.4485
56.447
56.4454
56.4438
56.4423
56.4407
56.4392
56.4376
56.436
56.4345
56.4329
56.4313
56.4298
56.4282
56.4267
56.4251
56.4235
56.422
56.4204
56.4188
56.4173
56.4157
56.4142
56.4126
56.411
56.4095
56.4079
56.4064
56.4048
56.4032
56.4017
56.4001
56.3986
56.397
56.3954
56.3939
56.3923
56.3908
56.3892
56.3876
56.3861
56.3845
56.383
56.3814
56.3798
56.3783
56.3767
56.3752
56.3736
56.3721
56.3705
56.3689
56.3674
56.3658
56.3643
56.3627
56.3611
56.3596
56.358
56.3565
56.3549
56.3534
56.3518
56.3502
56.3487
56.3471
56.3456
56.344
56.3425
56.3409
56.3393
56.3378
56.3362
56.3347
56.3331
56.3316
56.33
56.3284
56.3269
56.3253
56.3238
56.3222
56.3207
56.3191
56.3176
56.316
56.3144
56.3129
56.3113
56.3098
56.3082
56.3067
56.3051
56.3036
56.302
56.3004
56.2989
56.2973
56.2958
56.2942
56.2927
56.2911
56.2896
56.288
56.2865
56.2849
56.2833
56.2818
56.2802
56.2787
56.2771
56.2756
56.274
56.2725
56.2709
56.2694
56.2678
56.2663
56.2647
56.2632
56.2616
56.26
56.2585
56.2569
56.2554
56.2538
56.2523
56.2507
56.2492
56.2476
56.2461
56.2445
56.243
56.2414
56.2399
56.2383
56.2368
56.2352
56.2337
56.2321
56.2305
56.229
56.2274
56.2259
56.2243
56.2228
56.2212
56.2197
56.2181
56.2166
56.215
56.2135
56.2119
56.2104
56.2088
56.2073
56.2057
56.2042
56.2026
56.2011
56.1995
56.198
56.1964
56.1949
56.1933
56.1918
56.1902
56.1887
56.1871
56.1856
56.184
56.1825
56.1809
56.1794
56.1778
56.1763
56.1747
56.1732
56.1716
56.1701
56.1685
56.167
56.1654
56.1639
56.1623
56.1608
56.1592
56.1577
56.1561
56.1546
56.153
56.1515
56.1499
56.1484
56.1468
56.1453
56.1437
56.1422
56.1406
56.1391
56.1375
56.136
56.1344
56.1329
56.1313
56.1298
56.1282
56.1267
56.1251
56.1236
56.122
56.1205
56.1189
56.1174
56.1158
56.1143
56.1127
56.1112
56.1096
56.1081
56.1066
56.105
56.1035
56.1019
56.1004
56.0988
56.0973
56.0957
56.0942
56.0926
56.0911
56.0895
56.088
56.0864
56.0849
56.0833
56.0818
56.0802
56.0787
56.0771
56.0756
56.074
56.0725
56.071
56.0694
56.0679
56.0663
56.0648
56.0632
56.0617
56.0601
56.0586
56.057
56.0555
56.0539
56.0524
56.0524
59.4884
59.4884
57.9303
57.6746
57.6091
57.5807
57.5639
57.5518
57.5424
57.5343
57.5273
57.5209
57.5149
57.5093
57.504
57.4988
57.4938
57.489
57.4843
57.4796
57.4751
57.4706
57.4662
57.4619
57.4576
57.4534
57.4492
57.4451
57.441
57.437
57.433
57.4291
57.4252
57.4214
57.4176
57.4139
57.4101
57.4065
57.4028
57.3992
57.3957
57.3921
57.3887
57.3852
57.3818
57.3784
57.375
57.3717
57.3684
57.3651
57.3618
57.3586
57.3554
57.3522
57.3491
57.3459
57.3428
57.3398
57.3367
57.3337
57.3307
57.3277
57.3247
57.3217
57.3188
57.3159
57.313
57.3101
57.3073
57.3044
57.3016
57.2988
57.296
57.2932
57.2905
57.2877
57.285
57.2823
57.2796
57.2769
57.2742
57.2716
57.2689
57.2663
57.2637
57.2611
57.2585
57.2559
57.2534
57.2508
57.2483
57.2457
57.2432
57.2407
57.2382
57.2357
57.2332
57.2308
57.2283
57.2259
57.2234
57.221
57.2186
57.2162
57.2138
57.2114
57.209
57.2067
57.2043
57.2019
57.1996
57.1973
57.1949
57.1926
57.1903
57.188
57.1857
57.1834
57.1811
57.1789
57.1766
57.1744
57.1721
57.1699
57.1676
57.1654
57.1632
57.161
57.1588
57.1566
57.1544
57.1522
57.15
57.1478
57.1457
57.1435
57.1413
57.1392
57.137
57.1349
57.1328
57.1306
57.1285
57.1264
57.1243
57.1222
57.1201
57.118
57.1159
57.1138
57.1118
57.1097
57.1076
57.1056
57.1035
57.1014
57.0994
57.0974
57.0953
57.0933
57.0913
57.0892
57.0872
57.0852
57.0832
57.0812
57.0792
57.0772
57.0752
57.0732
57.0712
57.0692
57.0673
57.0653
57.0633
57.0614
57.0594
57.0575
57.0555
57.0536
57.0516
57.0497
57.0477
57.0458
57.0439
57.0419
57.04
57.0381
57.0362
57.0343
57.0324
57.0305
57.0286
57.0267
57.0248
57.0229
57.021
57.0191
57.0172
57.0153
57.0135
57.0116
57.0097
57.0079
57.006
57.0041
57.0023
57.0004
56.9986
56.9967
56.9949
56.993
56.9912
56.9894
56.9875
56.9857
56.9839
56.982
56.9802
56.9784
56.9766
56.9748
56.9729
56.9711
56.9693
56.9675
56.9657
56.9639
56.9621
56.9603
56.9585
56.9567
56.9549
56.9531
56.9514
56.9496
56.9478
56.946
56.9442
56.9425
56.9407
56.9389
56.9371
56.9354
56.9336
56.9319
56.9301
56.9283
56.9266
56.9248
56.9231
56.9213
56.9196
56.9178
56.9161
56.9143
56.9126
56.9109
56.9091
56.9074
56.9056
56.9039
56.9022
56.9004
56.8987
56.897
56.8953
56.8935
56.8918
56.8901
56.8884
56.8867
56.885
56.8832
56.8815
56.8798
56.8781
56.8764
56.8747
56.873
56.8713
56.8696
56.8679
56.8662
56.8645
56.8628
56.8611
56.8594
56.8577
56.856
56.8543
56.8526
56.851
56.8493
56.8476
56.8459
56.8442
56.8425
56.8409
56.8392
56.8375
56.8358
56.8342
56.8325
56.8308
56.8291
56.8275
56.8258
56.8241
56.8225
56.8208
56.8191
56.8175
56.8158
56.8142
56.8125
56.8108
56.8092
56.8075
56.8059
56.8042
56.8026
56.8009
56.7992
56.7976
56.7959
56.7943
56.7926
56.791
56.7893
56.7877
56.7861
56.7844
56.7828
56.7811
56.7795
56.7778
56.7762
56.7746
56.7729
56.7713
56.7697
56.768
56.7664
56.7647
56.7631
56.7615
56.7598
56.7582
56.7566
56.755
56.7533
56.7517
56.7501
56.7484
56.7468
56.7452
56.7436
56.7419
56.7403
56.7387
56.7371
56.7355
56.7338
56.7322
56.7306
56.729
56.7274
56.7257
56.7241
56.7225
56.7209
56.7193
56.7177
56.716
56.7144
56.7128
56.7112
56.7096
56.708
56.7064
56.7048
56.7031
56.7015
56.6999
56.6983
56.6967
56.6951
56.6935
56.6919
56.6903
56.6887
56.6871
56.6855
56.6839
56.6823
56.6807
56.6791
56.6775
56.6759
56.6743
56.6727
56.6711
56.6695
56.6679
56.6663
56.6647
56.6631
56.6615
56.6599
56.6583
56.6567
56.6551
56.6535
56.6519
56.6503
56.6487
56.6471
56.6455
56.6439
56.6423
56.6407
56.6392
56.6376
56.636
56.6344
56.6328
56.6312
56.6296
56.628
56.6264
56.6248
56.6233
56.6217
56.6201
56.6185
56.6169
56.6153
56.6137
56.6122
56.6106
56.609
56.6074
56.6058
56.6042
56.6026
56.6011
56.5995
56.5979
56.5963
56.5947
56.5931
56.5916
56.59
56.5884
56.5868
56.5852
56.5837
56.5821
56.5805
56.5789
56.5773
56.5758
56.5742
56.5726
56.571
56.5694
56.5679
56.5663
56.5647
56.5631
56.5616
56.56
56.5584
56.5568
56.5553
56.5537
56.5521
56.5505
56.549
56.5474
56.5458
56.5442
56.5427
56.5411
56.5395
56.5379
56.5364
56.5348
56.5332
56.5316
56.5301
56.5285
56.5269
56.5254
56.5238
56.5222
56.5206
56.5191
56.5175
56.5159
56.5144
56.5128
56.5112
56.5096
56.5081
56.5065
56.5049
56.5034
56.5018
56.5002
56.4987
56.4971
56.4955
56.494
56.4924
56.4908
56.4893
56.4877
56.4861
56.4846
56.483
56.4814
56.4799
56.4783
56.4767
56.4752
56.4736
56.472
56.4705
56.4689
56.4673
56.4658
56.4642
56.4626
56.4611
56.4595
56.4579
56.4564
56.4548
56.4532
56.4517
56.4501
56.4485
56.447
56.4454
56.4439
56.4423
56.4407
56.4392
56.4376
56.436
56.4345
56.4329
56.4313
56.4298
56.4282
56.4267
56.4251
56.4235
56.422
56.4204
56.4189
56.4173
56.4157
56.4142
56.4126
56.411
56.4095
56.4079
56.4064
56.4048
56.4032
56.4017
56.4001
56.3986
56.397
56.3954
56.3939
56.3923
56.3908
56.3892
56.3876
56.3861
56.3845
56.383
56.3814
56.3798
56.3783
56.3767
56.3752
56.3736
56.3721
56.3705
56.3689
56.3674
56.3658
56.3643
56.3627
56.3611
56.3596
56.358
56.3565
56.3549
56.3534
56.3518
56.3502
56.3487
56.3471
56.3456
56.344
56.3425
56.3409
56.3393
56.3378
56.3362
56.3347
56.3331
56.3316
56.33
56.3285
56.3269
56.3253
56.3238
56.3222
56.3207
56.3191
56.3176
56.316
56.3144
56.3129
56.3113
56.3098
56.3082
56.3067
56.3051
56.3036
56.302
56.3005
56.2989
56.2973
56.2958
56.2942
56.2927
56.2911
56.2896
56.288
56.2865
56.2849
56.2834
56.2818
56.2802
56.2787
56.2771
56.2756
56.274
56.2725
56.2709
56.2694
56.2678
56.2663
56.2647
56.2632
56.2616
56.2601
56.2585
56.2569
56.2554
56.2538
56.2523
56.2507
56.2492
56.2476
56.2461
56.2445
56.243
56.2414
56.2399
56.2383
56.2368
56.2352
56.2337
56.2321
56.2306
56.229
56.2274
56.2259
56.2243
56.2228
56.2212
56.2197
56.2181
56.2166
56.215
56.2135
56.2119
56.2104
56.2088
56.2073
56.2057
56.2042
56.2026
56.2011
56.1995
56.198
56.1964
56.1949
56.1933
56.1918
56.1902
56.1887
56.1871
56.1856
56.184
56.1825
56.1809
56.1794
56.1778
56.1763
56.1747
56.1732
56.1716
56.1701
56.1685
56.167
56.1654
56.1639
56.1623
56.1608
56.1592
56.1577
56.1561
56.1546
56.153
56.1515
56.1499
56.1484
56.1468
56.1453
56.1437
56.1422
56.1406
56.1391
56.1375
56.136
56.1344
56.1329
56.1313
56.1298
56.1282
56.1267
56.1251
56.1236
56.122
56.1205
56.1189
56.1174
56.1158
56.1143
56.1127
56.1112
56.1097
56.1081
56.1066
56.105
56.1035
56.1019
56.1004
56.0988
56.0973
56.0957
56.0942
56.0926
56.0911
56.0895
56.088
56.0864
56.0849
56.0833
56.0818
56.0802
56.0787
56.0771
56.0756
56.0741
56.0725
56.071
56.0694
56.0679
56.0663
56.0648
56.0632
56.0617
56.0601
56.0586
56.057
56.0555
56.054
56.0524
56.0524
58.7989
58.7989
57.9145
57.6813
57.6127
57.5828
57.5652
57.5528
57.543
57.5349
57.5277
57.5212
57.5152
57.5096
57.5042
57.499
57.494
57.4891
57.4844
57.4797
57.4752
57.4707
57.4663
57.4619
57.4577
57.4534
57.4493
57.4451
57.4411
57.4371
57.4331
57.4292
57.4253
57.4214
57.4176
57.4139
57.4102
57.4065
57.4029
57.3993
57.3957
57.3922
57.3887
57.3852
57.3818
57.3784
57.375
57.3717
57.3684
57.3651
57.3618
57.3586
57.3554
57.3522
57.3491
57.346
57.3429
57.3398
57.3367
57.3337
57.3307
57.3277
57.3247
57.3218
57.3188
57.3159
57.313
57.3101
57.3073
57.3044
57.3016
57.2988
57.296
57.2933
57.2905
57.2877
57.285
57.2823
57.2796
57.2769
57.2743
57.2716
57.269
57.2663
57.2637
57.2611
57.2585
57.2559
57.2534
57.2508
57.2483
57.2457
57.2432
57.2407
57.2382
57.2357
57.2332
57.2308
57.2283
57.2259
57.2234
57.221
57.2186
57.2162
57.2138
57.2114
57.209
57.2067
57.2043
57.2019
57.1996
57.1973
57.1949
57.1926
57.1903
57.188
57.1857
57.1834
57.1812
57.1789
57.1766
57.1744
57.1721
57.1699
57.1676