# vtk DataFile Version 2.0
FlowField
ASCII
DATASET STRUCTURED_GRID
DIMENSIONS 800 1 200
POINTS 160000 float
0 0 0
0.04 0 0
0.08 0 0
0.12 0 0
0.16 0 0
0.2 0 0
0.24 0 0
0.28 0 0
0.32 0 0
0.36 0 0
0.4 0 0
0.44 0 0
0.48 0 0
0.52 0 0
0.56 0 0
0.6 0 0
0.64 0 0
0.68 0 0
0.72 0 0
0.76 0 0
0.8 0 0
0.84 0 0
0.88 0 0
0.92 0 0
0.96 0 0
1 0 0
1.04 0 0
1.08 0 0
1.12 0 0
1.16 0 0
1.2 0 0
1.24 0 0
1.28 0 0
1.32 0 0
1.36 0 0
1.4 0 0
1.44 0 0
1.48 0 0
1.52 0 0
1.56 0 0
1.6 0 0
1.64 0 0
1.68 0 0
1.72 0 0
1.76 0 0
1.8 0 0
1.84 0 0
1.88 0 0
1.92 0 0
1.96 0 0
2 0 0
2.04 0 0
2.08 0 0
2.12 0 0
2.16 0 0
2.2 0 0
2.24 0 0
2.28 0 0
2.32 0 0
2.36 0 0
2.4 0 0
2.44 0 0
2.48 0 0
2.52 0 0
2.56 0 0
2.6 0 0
2.64 0 0
2.68 0 0
2.72 0 0
2.76 0 0
2.8 0 0
2.84 0 0
2.88 0 0
2.92 0 0
2.96 0 0
3 0 0
3.04 0 0
3.08 0 0
3.12 0 0
3.16 0 0
3.2 0 0
3.24 0 0
3.28 0 0
3.32 0 0
3.36 0 0
3.4 0 0
3.44 0 0
3.48 0 0
3.52 0 0
3.56 0 0
3.6 0 0
3.64 0 0
3.68 0 0
3.72 0 0
3.76 0 0
3.8 0 0
3.84 0 0
3.88 0 0
3.92 0 0
3.96 0 0
4 0 0
4.04 0 0
4.08 0 0
4.12 0 0
4.16 0 0
4.2 0 0
4.24 0 0
4.28 0 0
4.32 0 0
4.36 0 0
4.4 0 0
4.44 0 0
4.48 0 0
4.52 0 0
4.56 0 0
4.6 0 0
4.64 0 0
4.68 0 0
4.72 0 0
4.76 0 0
4.8 0 0
4.84 0 0
4.88 0 0
4.92 0 0
4.96 0 0
5 0 0
5.04 0 0
5.08 0 0
5.12 0 0
5.16 0 0
5.2 0 0
5.24 0 0
5.28 0 0
5.32 0 0
5.36 0 0
5.4 0 0
5.44 0 0
5.48 0 0
5.52 0 0
5.56 0 0
5.6 0 0
5.64 0 0
5.68 0 0
5.72 0 0
5.76 0 0
5.8 0 0
5.84 0 0
5.88 0 0
5.92 0 0
5.96 0 0
6 0 0
6.04 0 0
6.08 0 0
6.12 0 0
6.16 0 0
6.2 0 0
6.24 0 0
6.28 0 0
6.32 0 0
6.36 0 0
6.4 0 0
6.44 0 0
6.48 0 0
6.52 0 0
6.56 0 0
6.6 0 0
6.64 0 0
6.68 0 0
6.72 0 0
6.76 0 0
6.8 0 0
6.84 0 0
6.88 0 0
6.92 0 0
6.96 0 0
7 0 0
7.04 0 0
7.08 0 0
7.12 0 0
7.16 0 0
7.2 0 0
7.24 0 0
7.28 0 0
7.32 0 0
7.36 0 0
7.4 0 0
7.44 0 0
7.48 0 0
7.52 0 0
7.56 0 0
7.6 0 0
7.64 0 0
7.68 0 0
7.72 0 0
7.76 0 0
7.8 0 0
7.84 0 0
7.88 0 0
7.92 0 0
7.96 0 0
8 0 0
8.04 0 0
8.08 0 0
8.12 0 0
8.16 0 0
8.2 0 0
8.24 0 0
8.28 0 0
8.32 0 0
8.36 0 0
8.4 0 0
8.44 0 0
8.48 0 0
8.52 0 0
8.56 0 0
8.6 0 0
8.64 0 0
8.68 0 0
8.72 0 0
8.76 0 0
8.8 0 0
8.84 0 0
8.88 0 0
8.92 0 0
8.96 0 0
9 0 0
9.04 0 0
9.08 0 0
9.12 0 0
9.16 0 0
9.2 0 0
9.24 0 0
9.28 0 0
9.32 0 0
9.36 0 0
9.4 0 0
9.44 0 0
9.48 0 0
9.52 0 0
9.56 0 0
9.6 0 0
9.64 0 0
9.68 0 0
9.72 0 0
9.76 0 0
9.8 0 0
9.84 0 0
9.88 0 0
9.92 0 0
9.96 0 0
10 0 0
10.04 0 0
10.08 0 0
10.12 0 0
10.16 0 0
10.2 0 0
10.24 0 0
10.28 0 0
10.32 0 0
10.36 0 0
10.4 0 0
10.44 0 0
10.48 0 0
10.52 0 0
10.56 0 0
10.6 0 0
10.64 0 0
10.68 0 0
10.72 0 0
10.76 0 0
10.8 0 0
10.84 0 0
10.88 0 0
10.92 0 0
10.96 0 0
11 0 0
11.04 0 0
11.08 0 0
11.12 0 0
11.16 0 0
11.2 0 0
11.24 0 0
11.28 0 0
11.32 0 0
11.36 0 0
11.4 0 0
11.44 0 0
11.48 0 0
11.52 0 0
11.56 0 0
11.6 0 0
11.64 0 0
11.68 0 0
11.72 0 0
11.76 0 0
11.8 0 0
11.84 0 0
11.88 0 0
11.92 0 0
11.96 0 0
12 0 0
12.04 0 0
12.08 0 0
12.12 0 0
12.16 0 0
12.2 0 0
12.24 0 0
12.28 0 0
12.32 0 0
12.36 0 0
12.4 0 0
12.44 0 0
12.48 0 0
12.52 0 0
12.56 0 0
12.6 0 0
12.64 0 0
12.68 0 0
12.72 0 0
12.76 0 0
12.8 0 0
12.84 0 0
12.88 0 0
12.92 0 0
12.96 0 0
13 0 0
13.04 0 0
13.08 0 0
13.12 0 0
13.16 0 0
13.2 0 0
13.24 0 0
13.28 0 0
13.32 0 0
13.36 0 0
13.4 0 0
13.44 0 0
13.48 0 0
13.52 0 0
13.56 0 0
13.6 0 0
13.64 0 0
13.68 0 0
13.72 0 0
13.76 0 0
13.8 0 0
13.84 0 0
13.88 0 0
13.92 0 0
13.96 0 0
14 0 0
14.04 0 0
14.08 0 0
14.12 0 0
14.16 0 0
14.2 0 0
14.24 0 0
14.28 0 0
14.32 0 0
14.36 0 0
14.4 0 0
14.44 0 0
14.48 0 0
14.52 0 0
14.56 0 0
14.6 0 0
14.64 0 0
14.68 0 0
14.72 0 0
14.76 0 0
14.8 0 0
14.84 0 0
14.88 0 0
14.92 0 0
14.96 0 0
15 0 0
15.04 0 0
15.08 0 0
15.12 0 0
15.16 0 0
15.2 0 0
15.24 0 0
15.28 0 0
15.32 0 0
15.36 0 0
15.4 0 0
15.44 0 0
15.48 0 0
15.52 0 0
15.56 0 0
15.6 0 0
15.64 0 0
15.68 0 0
15.72 0 0
15.76 0 0
15.8 0 0
15.84 0 0
15.88 0 0
15.92 0 0
15.96 0 0
16 0 0
16.04 0 0
16.08 0 0
16.12 0 0
16.16 0 0
16.2 0 0
16.24 0 0
16.28 0 0
16.32 0 0
16.36 0 0
16.4 0 0
16.44 0 0
16.48 0 0
16.52 0 0
16.56 0 0
16.6 0 0
16.64 0 0
16.68 0 0
16.72 0 0
16.76 0 0
16.8 0 0
16.84 0 0
16.88 0 0
16.92 0 0
16.96 0 0
17 0 0
17.04 0 0
17.08 0 0
17.12 0 0
17.16 0 0
17.2 0 0
17.24 0 0
17.28 0 0
17.32 0 0
17.36 0 0
17.4 0 0
17.44 0 0
17.48 0 0
17.52 0 0
17.56 0 0
17.6 0 0
17.64 0 0
17.68 0 0
17.72 0 0
17.76 0 0
17.8 0 0
17.84 0 0
17.88 0 0
17.92 0 0
17.96 0 0
18 0 0
18.04 0 0
18.08 0 0
18.12 0 0
18.16 0 0
18.2 0 0
18.24 0 0
18.28 0 0
18.32 0 0
18.36 0 0
18.4 0 0
18.44 0 0
18.48 0 0
18.52 0 0
18.56 0 0
18.6 0 0
18.64 0 0
18.68 0 0
18.72 0 0
18.76 0 0
18.8 0 0
18.84 0 0
18.88 0 0
18.92 0 0
18.96 0 0
19 0 0
19.04 0 0
19.08 0 0
19.12 0 0
19.16 0 0
19.2 0 0
19.24 0 0
19.28 0 0
19.32 0 0
19.36 0 0
19.4 0 0
19.44 0 0
19.48 0 0
19.52 0 0
19.56 0 0
19.6 0 0
19.64 0 0
19.68 0 0
19.72 0 0
19.76 0 0
19.8 0 0
19.84 0 0
19.88 0 0
19.92 0 0
19.96 0 0
20 0 0
20.04 0 0
20.08 0 0
20.12 0 0
20.16 0 0
20.2 0 0
20.24 0 0
20.28 0 0
20.32 0 0
20.36 0 0
20.4 0 0
20.44 0 0
20.48 0 0
20.52 0 0
20.56 0 0
20.6 0 0
20.64 0 0
20.68 0 0
20.72 0 0
20.76 0 0
20.8 0 0
20.84 0 0
20.88 0 0
20.92 0 0
20.96 0 0
21 0 0
21.04 0 0
21.08 0 0
21.12 0 0
21.16 0 0
21.2 0 0
21.24 0 0
21.28 0 0
21.32 0 0
21.36 0 0
21.4 0 0
21.44 0 0
21.48 0 0
21.52 0 0
21.56 0 0
21.6 0 0
21.64 0 0
21.68 0 0
21.72 0 0
21.76 0 0
21.8 0 0
21.84 0 0
21.88 0 0
21.92 0 0
21.96 0 0
22 0 0
22.04 0 0
22.08 0 0
22.12 0 0
22.16 0 0
22.2 0 0
22.24 0 0
22.28 0 0
22.32 0 0
22.36 0 0
22.4 0 0
22.44 0 0
22.48 0 0
22.52 0 0
22.56 0 0
22.6 0 0
22.64 0 0
22.68 0 0
22.72 0 0
22.76 0 0
22.8 0 0
22.84 0 0
22.88 0 0
22.92 0 0
22.96 0 0
23 0 0
23.04 0 0
23.08 0 0
23.12 0 0
23.16 0 0
23.2 0 0
23.24 0 0
23.28 0 0
23.32 0 0
23.36 0 0
23.4 0 0
23.44 0 0
23.48 0 0
23.52 0 0
23.56 0 0
23.6 0 0
23.64 0 0
23.68 0 0
23.72 0 0
23.76 0 0
23.8 0 0
23.84 0 0
23.88 0 0
23.92 0 0
23.96 0 0
24 0 0
24.04 0 0
24.08 0 0
24.12 0 0
24.16 0 0
24.2 0 0
24.24 0 0
24.28 0 0
24.32 0 0
24.36 0 0
24.4 0 0
24.44 0 0
24.48 0 0
24.52 0 0
24.56 0 0
24.6 0 0
24.64 0 0
24.68 0 0
24.72 0 0
24.76 0 0
24.8 0 0
24.84 0 0
24.88 0 0
24.92 0 0
24.96 0 0
25 0 0
25.04 0 0
25.08 0 0
25.12 0 0
25.16 0 0
25.2 0 0
25.24 0 0
25.28 0 0
25.32 0 0
25.36 0 0
25.4 0 0
25.44 0 0
25.48 0 0
25.52 0 0
25.56 0 0
25.6 0 0
25.64 0 0
25.68 0 0
25.72 0 0
25.76 0 0
25.8 0 0
25.84 0 0
25.88 0 0
25.92 0 0
25.96 0 0
26 0 0
26.04 0 0
26.08 0 0
26.12 0 0
26.16 0 0
26.2 0 0
26.24 0 0
26.28 0 0
26.32 0 0
26.36 0 0
26.4 0 0
26.44 0 0
26.48 0 0
26.52 0 0
26.56 0 0
26.6 0 0
26.64 0 0
26.68 0 0
26.72 0 0
26.76 0 0
26.8 0 0
26.84 0 0
26.88 0 0
26.92 0 0
26.96 0 0
27 0 0
27.04 0 0
27.08 0 0
27.12 0 0
27.16 0 0
27.2 0 0
27.24 0 0
27.28 0 0
27.32 0 0
27.36 0 0
27.4 0 0
27.44 0 0
27.48 0 0
27.52 0 0
27.56 0 0
27.6 0 0
27.64 0 0
27.68 0 0
27.72 0 0
27.76 0 0
27.8 0 0
27.84 0 0
27.88 0 0
27.92 0 0
27.96 0 0
28 0 0
28.04 0 0
28.08 0 0
28.12 0 0
28.16 0 0
28.2 0 0
28.24 0 0
28.28 0 0
28.32 0 0
28.36 0 0
28.4 0 0
28.44 0 0
28.48 0 0
28.52 0 0
28.56 0 0
28.6 0 0
28.64 0 0
28.68 0 0
28.72 0 0
28.76 0 0
28.8 0 0
28.84 0 0
28.88 0 0
28.92 0 0
28.96 0 0
29 0 0
29.04 0 0
29.08 0 0
29.12 0 0
29.16 0 0
29.2 0 0
29.24 0 0
29.28 0 0
29.32 0 0
29.36 0 0
29.4 0 0
29.44 0 0
29.48 0 0
29.52 0 0
29.56 0 0
29.6 0 0
29.64 0 0
29.68 0 0
29.72 0 0
29.76 0 0
29.8 0 0
29.84 0 0
29.88 0 0
29.92 0 0
29.96 0 0
30 0 0
30.04 0 0
30.08 0 0
30.12 0 0
30.16 0 0
30.2 0 0
30.24 0 0
30.28 0 0
30.32 0 0
30.36 0 0
30.4 0 0
30.44 0 0
30.48 0 0
30.52 0 0
30.56 0 0
30.6 0 0
30.64 0 0
30.68 0 0
30.72 0 0
30.76 0 0
30.8 0 0
30.84 0 0
30.88 0 0
30.92 0 0
30.96 0 0
31 0 0
31.04 0 0
31.08 0 0
31.12 0 0
31.16 0 0
31.2 0 0
31.24 0 0
31.28 0 0
31.32 0 0
31.36 0 0
31.4 0 0
31.44 0 0
31.48 0 0
31.52 0 0
31.56 0 0
31.6 0 0
31.64 0 0
31.68 0 0
31.72 0 0
31.76 0 0
31.8 0 0
31.84 0 0
31.88 0 0
31.92 0 0
31.96 0 0
0 0.005 0
0.04 0.005 0
0.08 0.005 0
0.12 0.005 0
0.16 0.005 0
0.2 0.005 0
0.24 0.005 0
0.28 0.005 0
0.32 0.005 0
0.36 0.005 0
0.4 0.005 0
0.44 0.005 0
0.48 0.005 0
0.52 0.005 0
0.56 0.005 0
0.6 0.005 0
0.64 0.005 0
0.68 0.005 0
0.72 0.005 0
0.76 0.005 0
0.8 0.005 0
0.84 0.005 0
0.88 0.005 0
0.92 0.005 0
0.96 0.005 0
1 0.005 0
1.04 0.005 0
1.08 0.005 0
1.12 0.005 0
1.16 0.005 0
1.2 0.005 0
1.24 0.005 0
1.28 0.005 0
1.32 0.005 0
1.36 0.005 0
1.4 0.005 0
1.44 0.005 0
1.48 0.005 0
1.52 0.005 0
1.56 0.005 0
1.6 0.005 0
1.64 0.005 0
1.68 0.005 0
1.72 0.005 0
1.76 0.005 0
1.8 0.005 0
1.84 0.005 0
1.88 0.005 0
1.92 0.005 0
1.96 0.005 0
2 0.005 0
2.04 0.005 0
2.08 0.005 0
2.12 0.005 0
2.16 0.005 0
2.2 0.005 0
2.24 0.005 0
2.28 0.005 0
2.32 0.005 0
2.36 0.005 0
2.4 0.005 0
2.44 0.005 0
2.48 0.005 0
2.52 0.005 0
2.56 0.005 0
2.6 0.005 0
2.64 0.005 0
2.68 0.005 0
2.72 0.005 0
2.76 0.005 0
2.8 0.005 0
2.84 0.005 0
2.88 0.005 0
2.92 0.005 0
2.96 0.005 0
3 0.005 0
3.04 0.005 0
3.08 0.005 0
3.12 0.005 0
3.16 0.005 0
3.2 0.005 0
3.24 0.005 0
3.28 0.005 0
3.32 0.005 0
3.36 0.005 0
3.4 0.005 0
3.44 0.005 0
3.48 0.005 0
3.52 0.005 0
3.56 0.005 0
3.6 0.005 0
3.64 0.005 0
3.68 0.005 0
3.72 0.005 0
3.76 0.005 0
3.8 0.005 0
3.84 0.005 0
3.88 0.005 0
3.92 0.005 0
3.96 0.005 0
4 0.005 0
4.04 0.005 0
4.08 0.005 0
4.12 0.005 0
4.16 0.005 0
4.2 0.005 0
4.24 0.005 0
4.28 0.005 0
4.32 0.005 0
4.36 0.005 0
4.4 0.005 0
4.44 0.005 0
4.48 0.005 0
4.52 0.005 0
4.56 0.005 0
4.6 0.005 0
4.64 0.005 0
4.68 0.005 0
4.72 0.005 0
4.76 0.005 0
4.8 0.005 0
4.84 0.005 0
4.88 0.005 0
4.92 0.005 0
4.96 0.005 0
5 0.005 0
5.04 0.005 0
5.08 0.005 0
5.12 0.005 0
5.16 0.005 0
5.2 0.005 0
5.24 0.005 0
5.28 0.005 0
5.32 0.005 0
5.36 0.005 0
5.4 0.005 0
5.44 0.005 0
5.48 0.005 0
5.52 0.005 0
5.56 0.005 0
5.6 0.005 0
5.64 0.005 0
5.68 0.005 0
5.72 0.005 0
5.76 0.005 0
5.8 0.005 0
5.84 0.005 0
5.88 0.005 0
5.92 0.005 0
5.96 0.005 0
6 0.005 0
6.04 0.005 0
6.08 0.005 0
6.12 0.005 0
6.16 0.005 0
6.2 0.005 0
6.24 0.005 0
6.28 0.005 0
6.32 0.005 0
6.36 0.005 0
6.4 0.005 0
6.44 0.005 0
6.48 0.005 0
6.52 0.005 0
6.56 0.005 0
6.6 0.005 0
6.64 0.005 0
6.68 0.005 0
6.72 0.005 0
6.76 0.005 0
6.8 0.005 0
6.84 0.005 0
6.88 0.005 0
6.92 0.005 0
6.96 0.005 0
7 0.005 0
7.04 0.005 0
7.08 0.005 0
7.12 0.005 0
7.16 0.005 0
7.2 0.005 0
7.24 0.005 0
7.28 0.005 0
7.32 0.005 0
7.36 0.005 0
7.4 0.005 0
[...]
POINT_DATA 160000

SCALARS phi float 1
LOOKUP_TABLE default
1
1
1
1
1
1
1
1
1
1
1
1
1
1
1
1
1
1
1
1
1
1
1
1
1
1
1
1
1
1
1
1
1
1
1
0.999999
0.999999
0.999999
0.999999
0.999998
0.999997
0.999997
0.999995
0.999994
0.999992
0.99999
0.999988
0.999985
0.999982
0.999978
0.999973
0.999968
0.999961
0.999954
0.999946
0.999937
0.999926
0.999914
0.999901
0.999886
0.99987
0.999852
0.999832
0.99981
0.999786
0.99976
0.999731
0.9997
0.999667
0.999631
0.999592
0.99955
0.999505
0.999457
0.999406
0.999352
0.999294
0.999232
0.999167
0.999099
0.999026
0.998949
0.998869
0.998784
0.998695
0.998602
0.998504
0.998403
0.998296
0.998185
0.998069
0.997949
0.997824
0.997694
0.997559
0.997419
0.997275
0.997125
0.99697
0.99681
0.996645
0.996475
0.9963
0.996119
0.995933
0.995742
0.995546
0.995344
0.995137
0.994925
0.994707
0.994484
0.994256
0.994022
0.993783
0.993539
0.993289
0.993034
0.992774
0.992509
0.992238
0.991962
0.99168
0.991394
0.991102
0.990805
0.990502
0.990195
0.989883
0.989565
0.989242
0.988915
0.988582
0.988244
0.987901
0.987554
0.987201
0.986844
0.986482
0.986115
0.985743
0.985367
0.984986
0.9846
0.98421
0.983815
0.983416
0.983012
0.982604
0.982192
0.981775
0.981353
0.980928
0.980498
0.980064
0.979626
0.979184
0.978738
0.978288
0.977833
0.977375
0.976913
0.976447
0.975977
0.975504
0.975026
0.974545
0.97406
0.973572
0.97308
0.972584
0.972084
0.971581
0.971075
0.970565
0.970051
0.969534
0.969013
0.968489
0.967961
0.96743
0.966895
0.966357
0.965815
0.96527
0.964721
0.964168
0.963612
0.963052
0.962488
0.961921
0.961349
0.960774
0.960195
0.959612
0.959025
0.958434
0.957838
0.957238
0.956634
0.956026
0.955412
0.954794
0.954171
0.953544
0.952911
0.952273
0.951629
0.95098
0.950326
0.949666
0.948999
0.948327
0.947649
0.946964
0.946272
0.945574
0.944869
0.944157
0.943437
0.94271
0.941976
0.941233
0.940482
0.939724
0.938956
0.93818
0.937396
0.936602
0.935799
0.934986
0.934164
0.933332
0.93249
0.931638
0.930775
0.929901
0.929017
0.928121
0.927215
0.926296
0.925367
0.924425
0.923471
0.922505
0.921527
0.920536
0.919532
0.918515
0.917486
0.916443
0.915386
0.914316
0.913232
0.912135
0.911023
0.909897
0.908757
0.907602
0.906433
0.905249
0.904051
0.902837
0.901608
0.900365
0.899106
0.897831
0.896542
0.895237
0.893916
0.89258
0.891228
0.889861
0.888478
0.887079
0.885664
0.884233
0.882786
0.881324
0.879845
0.878351
0.876841
0.875314
0.873772
0.872214
0.87064
0.86905
0.867444
0.865822
0.864185
0.862532
0.860863
0.859179
0.857479
0.855763
0.854032
0.852285
0.850524
0.848747
0.846954
0.845147
0.843325
0.841488
0.839636
0.837769
0.835888
0.833993
0.832083
0.830158
0.82822
0.826268
0.824301
0.822321
0.820328
0.818321
0.8163
0.814267
0.81222
0.810161
0.808088
0.806003
0.803906
0.801796
0.799674
0.79754
0.795394
0.793237
0.791068
0.788887
0.786696
0.784493
0.78228
0.780055
0.777821
0.775576
0.77332
0.771055
0.76878
0.766495
0.7642
0.761897
0.759584
0.757262
0.754931
0.752592
0.750244
0.747888
0.745524
0.743152
0.740772
0.738384
0.73599
0.733588
0.731178
0.728762
0.72634
0.72391
0.721475
0.719033
0.716585
0.714132
0.711672
0.709207
0.706737
0.704262
0.701782
0.699297
0.696807
0.694313
0.691814
0.689311
0.686805
0.684294
0.68178
0.679262
0.676741
0.674217
0.671689
0.669159
0.666626
0.664091
0.661553
0.659013
0.656471
0.653926
0.65138
0.648833
0.646283
0.643733
0.641181
0.638628
0.636074
0.633519
0.630964
0.628408
0.625851
0.623295
0.620738
0.618181
0.615624
0.613068
0.610512
0.607956
0.605401
0.602847
0.600293
0.597741
0.59519
0.592639
0.590091
0.587543
0.584997
0.582453
0.579911
0.57737
0.574832
0.572296
0.569761
0.567229
0.5647
0.562173
0.559648
0.557127
0.554608
0.552092
0.549579
0.547069
0.544562
0.542058
0.539558
0.537061
0.534568
0.532078
0.529592
0.52711
0.524631
0.522157
0.519686
0.517219
0.514757
0.512299
0.509845
0.507395
0.50495
0.50251
0.500074
0.497642
0.495215
0.492793
0.490376
0.487964
0.485557
0.483154
0.480757
0.478365
0.475978
0.473596
0.471219
0.468848
0.466482
0.464122
0.461767
0.459417
0.457073
0.454735
0.452403
0.450076
0.447755
0.445439
0.44313
0.440826
0.438528
0.436236
0.433951
0.431671
0.429397
0.42713
0.424868
0.422613
0.420363
0.418121
0.415884
0.413653
0.411429
0.409212
0.407
0.404795
0.402597
0.400404
0.398219
0.396039
0.393867
0.391701
0.389541
0.387388
0.385241
0.383101
0.380968
0.378842
0.376722
0.374608
0.372502
0.370402
0.368309
0.366222
0.364142
0.362069
0.360003
0.357944
0.355891
0.353845
0.351806
0.349774
0.347749
0.34573
0.343718
0.341713
0.339715
0.337724
0.33574
0.333762
0.331791
0.329828
0.327871
0.325921
0.323977
0.322041
0.320112
0.318189
0.316273
0.314364
0.312463
0.310567
0.308679
0.306798
0.304923
0.303056
0.301195
0.299341
0.297494
0.295653
0.29382
0.291993
0.290174
0.288361
0.286555
0.284755
0.282963
0.281177
0.279398
0.277626
0.27586
0.274102
0.27235
0.270605
0.268866
0.267135
0.26541
0.263691
0.26198
0.260275
0.258577
0.256885
0.2552
0.253522
0.25185
0.250185
0.248527
0.246875
0.245229
0.243591
0.241959
0.240333
0.238714
0.237101
0.235495
0.233896
0.232302
0.230716
0.229135
0.227562
0.225994
0.224433
0.222879
0.22133
0.219788
0.218253
0.216724
0.215201
0.213684
0.212174
0.21067
0.209172
0.20768
0.206195
0.204715
0.203242
0.201776
0.200315
0.19886
0.197412
0.195969
0.194533
0.193103
0.191679
0.190261
0.188848
0.187442
0.186042
0.184648
0.18326
0.181878
0.180501
0.179131
0.177766
0.176407
0.175055
0.173708
0.172366
0.171031
0.169701
0.168377
0.167059
0.165747
0.16444
0.163139
0.161844
0.160555
0.159271
0.157992
0.15672
0.155453
0.154191
0.152935
0.151685
0.15044
0.149201
0.147967
0.146739
0.145516
0.144298
0.143086
0.14188
0.140679
0.139483
0.138293
0.137108
0.135928
0.134754
0.133585
0.132422
0.131263
0.13011
0.128963
0.12782
0.126683
0.125551
0.124424
0.123302
0.122186
0.121075
0.119968
0.118867
0.117772
0.116681
0.115595
0.114515
0.113439
0.112369
0.111304
0.110243
0.109188
0.108138
0.107093
0.106053
0.105017
0.103987
0.102962
0.101942
0.100926
0.099916
0.0989105
0.09791
0.0969144
0.0959236
0.0949378
0.0939569
0.0929808
0.0920097
0.0910433
0.0900819
0.0891253
0.0881735
0.0872266
0.0862844
0.0853472
0.0844147
0.083487
0.0825642
0.0816461
0.0807328
0.0798244
0.0789207
0.0780218
0.0771277
0.0762383
0.0753537
0.0744739
0.0735989
0.0727286
0.071863
0.0710023
0.0701462
0.069295
0.0684485
0.0676067
0.0667697
0.0659375
0.06511
0.0642873
0.0634693
0.0626561
0.0618476
0.0610439
0.060245
0.0594509
0.0586615
0.0578768
0.057097
0.0563219
0.0555517
0.0547862
0.0540255
0.0532696
0.0525185
0.0517722
0.0510308
0.0502942
0.0495624
0.0488355
0.0481134
0.0473962
0.0466838
0.0459763
0.0452737
0.0445761
0.0438833
0.0431954
0.0425125
0.0418345
0.0411615
0.0404935
0.0398304
0.0391723
0.0385193
0.0378712
0.0372282
0.0365903
0.0359574
0.0353296
0.034707
0.0340894
0.033477
0.0328697
0.0322676
0.0316706
0.0310789
0.0304924
0.0299112
0.0293352
0.0287645
0.028199
0.027639
0.0270842
0.0265348
0.0259908
0.0254522
0.024919
0.0243913
0.0238691
0.0233523
0.022841
0.0223353
0.0218351
0.0213405
0.0208515
0.0203681
0.0198904
0.0194183
0.018952
0.0184912
0.0180364
0.0175869
0.017144
0.0167053
0.0162754
0.0158471
0.0154434
0.0150659
0.0150659
1
1
1
1
1
1
1
1
1
1
1
1
1
1
1
1
1
1
1
1
1
1
1
1
1
1
1
1
1
1
1
1
1
1
1
0.999999
0.999999
0.999999
0.999999
0.999998
0.999997
0.999997
0.999995
0.999994
0.999992
0.99999
0.999988
0.999985
0.999982
0.999978
0.999973
0.999968
0.999961
0.999954
0.999946
0.999937
0.999926
0.999914
0.999901
0.999886
0.99987
0.999852
0.999832
0.99981
0.999786
0.99976
0.999731
0.9997
0.999667
0.999631
0.999592
0.99955
0.999505
0.999457
0.999406
0.999352
0.999294
0.999232
0.999167
0.999099
0.999026
0.998949
0.998869
0.998784
0.998695
0.998602
0.998504
0.998403
0.998296
0.998185
0.998069
0.997949
0.997824
0.997694
0.997559
0.997419
0.997275
0.997125
0.99697
0.99681
0.996645
0.996475
0.9963
0.996119
0.995933
0.995742
0.995546
0.995344
0.995137
0.994925
0.994707
0.994484
0.994256
0.994022
0.993783
0.993539
0.993289
0.993034
0.992774
0.992509
0.992238
0.991962
0.99168
0.991394
0.991102
0.990805
0.990502
0.990195
0.989883
0.989565
0.989242
0.988915
0.988582
0.988244
0.987901
0.987554
0.987201
0.986844
0.986482
0.986115
0.985743
0.985367
0.984986
0.9846
0.98421
0.983815
0.983416
0.983012
0.982604
0.982192
0.981775
0.981353
0.980928
0.980498
0.980064
0.979626
0.979184
0.978738
0.978288
0.977833
0.977375
0.976913
0.976447
0.975977
0.975504
0.975026
0.974545
0.97406
0.973572
0.97308
0.972584
0.972084
0.971581
0.971075
0.970565
0.970051
0.969534
0.969013
0.968489
0.967961
0.96743
0.966895
0.966357
0.965815
0.96527
0.964721
0.964168
0.963612
0.963052
0.962488
0.961921
0.961349
0.960774
0.960195
0.959612
0.959025
0.958434
0.957838
0.957238
0.956634
0.956026
0.955412
0.954794
0.954171
0.953544
0.952911
0.952273
0.951629
0.95098
0.950326
0.949666
0.948999
0.948327
0.947649
0.946964
0.946272
0.945574
0.944869
0.944157
0.943437
0.94271
0.941976
0.941233
0.940482
0.939724
0.938956
0.93818
0.937396
0.936602
0.935799
0.934986
0.934164
0.933332
0.93249
0.931638
0.930775
0.929901
0.929017
0.928121
0.927215
0.926296
0.925367
0.924425
0.923471
0.922505
0.921527
0.920536
0.919532
0.918515
0.917486
0.916443
0.915386
0.914316
0.913232
0.912135
0.911023
0.909897
0.908757
0.907602
0.906433
0.905249
0.904051
0.902837
0.901608
0.900365
0.899106
0.897831
0.896542
0.895237
0.893916
0.89258
0.891228
0.889861
0.888478
0.887079
0.885664
0.884233
0.882786
0.881324
0.879845
0.878351
0.876841
0.875314
0.873772
0.872214
0.87064
0.86905
0.867444
0.865822
0.864185
0.862532
0.860863
0.859179
0.857479
0.855763
0.854032
0.852285
0.850524
0.848747
0.846954
0.845147
0.843325
0.841488
0.839636
0.837769
0.835888
0.833993
0.832083
0.830158
0.82822
0.826268
0.824301
0.822321
0.820328
0.818321
0.8163
0.814267
0.81222
0.810161
0.808088
0.806003
0.803906
0.801796
0.799674
0.79754
0.795394
0.793237
0.791068
0.788887
0.786696
0.784493
0.78228
0.780055
0.777821
0.775576
0.77332
0.771055
0.76878
0.766495
0.7642
0.761897
0.759584
0.757262
0.754931
0.752592
0.750244
0.747888
0.745524
0.743152
0.740772
0.738384
0.73599
0.733588
0.731178
0.728762
0.72634
0.72391
0.721475
0.719033
0.716585
0.714132
0.711672
0.709207
0.706737
0.704262
0.701782
0.699297
0.696807
0.694313
0.691814
0.689311
0.686805
0.684294
0.68178
0.679262
0.676741
0.674217
0.671689
0.669159
0.666626
0.664091
0.661553
0.659013
0.656471
0.653926
0.65138
0.648833
0.646283
0.643733
0.641181
0.638628
0.636074
0.633519
0.630964
0.628408
0.625851
0.623295
0.620738
0.618181
0.615624
0.613068
0.610512
0.607956
0.605401
0.602847
0.600293
0.597741
0.59519
0.592639
0.590091
0.587543
0.584997
0.582453
0.579911
0.57737
0.574832
0.572296
0.569761
0.567229
0.5647
0.562173
0.559648
0.557127
0.554608
0.552092
0.549579
0.547069
0.544562
0.542058
0.539558
0.537061
0.534568
0.532078
0.529592
0.52711
0.524631
0.522157
0.519686
0.517219
0.514757
0.512299
0.509845
0.507395
0.50495
0.50251
0.500074
0.497642
0.495215
0.492793
0.490376
0.487964
0.485557
0.483154
0.480757
0.478365
0.475978
0.473596
0.471219
0.468848
0.466482
0.464122
0.461767
0.459417
0.457073
0.454735
0.452403
0.450076
0.447755
0.445439
0.44313
0.440826
0.438528
0.436236
0.433951
0.431671
0.429397
0.42713
0.424868
0.422613
0.420363
0.418121
0.415884
0.413653
0.411429
0.409212
0.407
0.404795
0.402597
0.400404
0.398219
0.396039
0.393867
0.391701
0.389541
0.387388
0.385241
0.383101
0.380968
0.378842
0.376722
0.374608
0.372502
0.370402
0.368309
0.366222
0.364142
0.362069
0.360003
0.357944
0.355891
0.353845
0.351806
0.349774
0.347749
0.34573
0.343718
0.341713
0.339715
0.337724
0.33574
0.333762
0.331791
0.329828
0.327871
0.325921
0.323977
0.322041
0.320112
0.318189
0.316273
0.314364
0.312463
0.310567
0.308679
0.306798
0.304923
0.303056
0.301195
0.299341
0.297494
0.295653
0.29382
0.291993
0.290174
0.288361
0.286555
0.284755
0.282963
0.281177
0.279398
0.277626
0.27586
0.274102
0.27235
0.270605
0.268866
0.267135
0.26541
0.263691
0.26198
0.260275
0.258577
0.256885
0.2552
0.253522
0.25185
0.250185
0.248527
0.246875
0.245229
0.243591
0.241959
0.240333
0.238714
0.237101
0.235495
0.233896
0.232302
0.230716
0.229135
0.227562
0.225994
0.224433
0.222879
0.22133
0.219788
0.218253
0.216724
0.215201
0.213684
0.212174
0.21067
0.209172
0.20768
0.206195
0.204715
0.203242
0.201776
0.200315
0.19886
0.197412
0.195969
0.194533
0.193103
0.191679
0.190261
0.188848
0.187442
0.186042
0.184648
0.18326
0.181878
0.180501
0.179131
0.177766
0.176407
0.175055
0.173708
0.172366
0.171031
0.169701
0.168377
0.167059
0.165747
0.16444
0.163139
0.161844
0.160555
0.159271
0.157992
0.15672
0.155453
0.154191
0.152935
0.151685
0.15044
0.149201
0.147967
0.146739
0.145516
0.144298
0.143086
0.14188
0.140679
0.139483
0.138293
0.137108
0.135928
0.134754
0.133585
0.132422
0.131263
0.13011
0.128963
0.12782
0.126683
0.125551
0.124424
0.123302
0.122186
0.121075
0.119968
0.118867
0.117772
0.116681
0.115595
0.114515
0.113439
0.112369
0.111304
0.110243
0.109188
0.108138
0.107093
0.106053
0.105017
0.103987
0.102962
0.101942
0.100926
0.099916
0.0989105
0.09791
0.0969144
0.0959236
0.0949378
0.0939569
0.0929808
0.0920097
0.0910433
0.0900819
0.0891253
0.0881735
0.0872266
0.0862844
0.0853472
0.0844147
0.083487
0.0825642
0.0816461
0.0807328
0.0798244
0.0789207
0.0780218
0.0771277
0.0762383
0.0753537
0.0744739
0.0735989
0.0727286
0.071863
0.0710023
0.0701462
0.069295
0.0684485
0.0676067
0.0667697
0.0659375
0.06511
0.0642873
0.0634693
0.0626561
0.0618476
0.0610439
0.060245
0.0594509
0.0586615
0.0578768
0.057097
0.0563219
0.0555517
0.0547862
0.0540255
0.0532696
0.0525185
0.0517722
0.0510308
0.0502942
0.0495624
0.0488355
0.0481134
0.0473962
0.0466838
0.0459763
0.0452737
0.0445761
0.0438833
0.0431954
0.0425125
0.0418345
0.0411615
0.0404935
0.0398304
0.0391723
0.0385193
0.0378712
0.0372282
0.0365903
0.0359574
0.0353296
0.034707
0.0340894
0.033477
0.0328697
0.0322676
0.0316706
0.0310789
0.0304924
0.0299112
0.0293352
0.0287645
0.028199
0.027639
0.0270842
0.0265348
0.0259908
0.0254522
0.024919
0.0243913
0.0238691
0.0233523
0.022841
0.0223353
0.0218351
0.0213405
0.0208515
0.0203681
0.0198904
0.0194183
0.018952
0.0184912
0.0180364
0.0175869
0.017144
0.0167053
0.0162754
0.0158471
0.0154434
0.0150659
0.0150659
1
1
1
1
1
1
1
1
1
1
1
1
1
1
1
1
1
1
1
1
1
1
1
1
1
1
1
1
1
1
1
1
1
1
1
0.999999
0.999999
0.999999
0.999999
0.999998
0.999997
0.999997
0.999995
0.999994
0.999992
0.99999
0.999988
0.999985
0.999982
0.999978
0.999973
0.999968
0.999961
0.999954
0.999946
0.999937
0.999926
0.999914
0.999901
0.999886
0.99987
0.999852
0.999832
0.99981
0.999786
0.99976
0.999731
0.9997
0.999667
0.999631
0.999592
0.99955
0.999505
0.999457
0.999406
0.999352
0.999294
0.999232
0.999167
0.999098
0.999026
0.998949
0.998869
0.998784
0.998695
0.998602
0.998504
0.998402
0.998296
0.998185
0.998069
0.997949
0.997824
0.997694
0.997559
0.997419
0.997274
0.997124
0.99697
0.99681
0.996645
0.996474
0.996299
0.996118
0.995933
0.995742
0.995545
0.995343
0.995136
0.994924
0.994706
0.994483
0.994255
0.994022
0.993783
0.993538
0.993289
0.993034
0.992773
0.992508
0.992237
0.991961
0.991679
0.991393
0.991101
0.990804
0.990501
0.990194
0.989882
0.989564
0.989241
0.988914
0.988581
0.988243
0.9879
0.987553
0.9872
0.986843
0.986481
0.986114
0.985742
0.985366
0.984985
0.984599
0.984209
0.983814
0.983415
0.983011
0.982603
0.98219
0.981773
0.981352
0.980927
0.980497
0.980063
0.979625
0.979183
0.978737
0.978286
0.977832
0.977374
0.976912
0.976446
0.975976
0.975502
0.975025
0.974544
0.974059
0.97357
0.973078
0.972582
0.972083
0.97158
0.971074
0.970563
0.97005
0.969533
0.969012
0.968488
0.96796
0.967429
0.966894
0.966356
0.965814
0.965269
0.96472
0.964167
0.963611
0.963051
0.962487
0.96192
0.961349
0.960774
0.960195
0.959612
0.959025
0.958434
0.957838
0.957239
0.956635
0.956026
0.955413
0.954795
0.954172
0.953545
0.952912
0.952274
0.951631
0.950983
0.950328
0.949668
0.949003
0.948331
0.947653
0.946968
0.946277
0.945579
0.944874
0.944163
0.943444
0.942717
0.941983
0.941241
0.940491
0.939733
0.938966
0.938191
0.937407
0.936614
0.935811
0.934999
0.934178
0.933347
0.932505
0.931654
0.930792
0.929919
0.929036
0.928141
0.927235
0.926318
0.925389
0.924449
0.923496
0.922531
0.921554
0.920564
0.919562
0.918546
0.917518
0.916476
0.915421
0.914352
0.913269
0.912173
0.911063
0.909938
0.908799
0.907646
0.906478
0.905296
0.904099
0.902887
0.90166
0.900418
0.89916
0.897888
0.8966
0.895296
0.893977
0.892643
0.891293
0.889927
0.888546
0.887148
0.885735
0.884306
0.882862
0.881401
0.879924
0.878432
0.876923
0.875399
0.873859
0.872302
0.87073
0.869142
0.867538
0.865919
0.864283
0.862632
0.860965
0.859283
0.857585
0.855871
0.854142
0.852398
0.850638
0.848863
0.847073
0.845268
0.843447
0.841612
0.839763
0.837898
0.836019
0.834125
0.832217
0.830295
0.828359
0.826409
0.824445
0.822467
0.820475
0.81847
0.816452
0.81442
0.812376
0.810318
0.808248
0.806165
0.80407
0.801962
0.799842
0.79771
0.795566
0.793411
0.791244
0.789065
0.786876
0.784675
0.782463
0.780241
0.778008
0.775765
0.773512
0.771248
0.768975
0.766692
0.7644
0.762098
0.759787
0.757467
0.755138
0.7528
0.750454
0.7481
0.745738
0.743367
0.740989
0.738604
0.73621
0.73381
0.731403
0.728988
0.726567
0.72414
0.721706
0.719266
0.716819
0.714367
0.71191
0.709446
0.706978
0.704504
0.702025
0.699542
0.697053
0.694561
0.692064
0.689562
0.687057
0.684548
0.682035
0.679519
0.676999
0.674476
0.67195
0.669421
0.66689
0.664356
0.661819
0.65928
0.656739
0.654196
0.651651
0.649105
0.646556
0.644007
0.641456
0.638904
0.636352
0.633798
0.631244
0.628689
0.626133
0.623578
0.621022
0.618466
0.61591
0.613355
0.610799
0.608245
0.605691
0.603137
0.600585
0.598033
0.595483
0.592933
0.590385
0.587839
0.585294
0.58275
0.580209
0.577669
0.575131
0.572596
0.570062
0.567531
0.565002
0.562475
0.559952
0.557431
0.554912
0.552397
0.549884
0.547375
0.544869
0.542365
0.539866
0.537369
0.534876
0.532387
0.529902
0.52742
0.524942
0.522467
0.519997
0.517531
0.515069
0.512611
0.510158
0.507709
0.505264
0.502823
0.500388
0.497956
0.49553
0.493108
0.490691
0.488279
0.485872
0.48347
0.481073
0.478681
0.476294
0.473912
0.471536
0.469165
0.466799
0.464439
0.462084
0.459734
0.457391
0.455052
0.45272
0.450393
0.448072
0.445757
0.443447
0.441143
0.438846
0.436554
0.434268
0.431988
0.429715
0.427447
0.425185
0.42293
0.420681
0.418438
0.416201
0.41397
0.411746
0.409528
0.407317
0.405111
0.402913
0.40072
0.398534
0.396355
0.394182
0.392016
0.389856
0.387703
0.385556
0.383416
0.381282
0.379155
0.377035
0.374922
0.372815
0.370715
0.368621
0.366534
0.364454
0.362381
0.360315
0.358255
0.356202
0.354156
0.352116
0.350084
0.348058
0.346039
0.344027
0.342022
0.340023
0.338032
0.336047
0.334069
0.332098
0.330134
0.328176
0.326226
0.324282
0.322346
0.320416
0.318493
0.316577
0.314667
0.312765
0.310869
0.308981
0.307099
0.305224
0.303356
0.301494
0.29964
0.297792
0.295952
0.294118
0.292291
0.29047
0.288657
0.28685
0.285051
0.283257
0.281471
0.279692
0.277919
0.276153
0.274394
0.272642
0.270896
0.269157
0.267425
0.265699
0.26398
0.262268
0.260563
0.258864
0.257172
0.255486
0.253807
0.252135
0.25047
0.24881
0.247158
0.245512
0.243873
0.24224
0.240614
0.238994
0.237381
0.235774
0.234174
0.23258
0.230993
0.229412
0.227838
0.22627
0.224708
0.223153
0.221604
0.220062
0.218525
0.216996
0.215472
0.213955
0.212444
0.210939
0.209441
0.207948
0.206462
0.204982
0.203509
0.202041
0.20058
0.199125
0.197675
0.196232
0.194796
0.193365
0.19194
0.190521
0.189108
0.187702
0.186301
0.184906
0.183517
0.182134
0.180757
0.179386
0.178021
0.176661
0.175308
0.17396
0.172618
0.171282
0.169952
0.168628
0.167309
0.165996
0.164688
0.163387
0.162091
0.160801
0.159516
0.158237
0.156964
0.155696
0.154434
0.153177
0.151926
0.150681
0.149441
0.148206
0.146977
0.145754
0.144536
0.143323
0.142116
0.140914
0.139718
0.138527
0.137341
0.136161
0.134986
0.133816
0.132652
0.131493
0.130339
0.129191
0.128048
0.12691
0.125777
0.124649
0.123527
0.12241
0.121298
0.120191
0.11909
0.117993
0.116902
0.115815
0.114734
0.113658
0.112587
0.111521
0.11046
0.109404
0.108353
0.107307
0.106266
0.10523
0.104199
0.103173
0.102152
0.101136
0.100125
0.0991191
0.0981178
0.0971215
0.09613
0.0951435
0.0941618
0.093185
0.0922131
0.0912461
0.0902839
0.0893265
0.088374
0.0874263
0.0864835
0.0855454
0.0846122