# vtk DataFile Version 2.0
FlowField
ASCII
DATASET STRUCTURED_GRID
DIMENSIONS 800 1 200
POINTS 160000 float
0 0 0
0.04 0 0
0.08 0 0
0.12 0 0
0.16 0 0
0.2 0 0
0.24 0 0
0.28 0 0
0.32 0 0
0.36 0 0
0.4 0 0
0.44 0 0
0.48 0 0
0.52 0 0
0.56 0 0
0.6 0 0
0.64 0 0
0.68 0 0
0.72 0 0
0.76 0 0
0.8 0 0
0.84 0 0
0.88 0 0
0.92 0 0
0.96 0 0
1 0 0
1.04 0 0
1.08 0 0
1.12 0 0
1.16 0 0
1.2 0 0
1.24 0 0
1.28 0 0
1.32 0 0
1.36 0 0
1.4 0 0
1.44 0 0
1.48 0 0
1.52 0 0
1.56 0 0
1.6 0 0
1.64 0 0
1.68 0 0
1.72 0 0
1.76 0 0
1.8 0 0
1.84 0 0
1.88 0 0
1.92 0 0
1.96 0 0
2 0 0
2.04 0 0
2.08 0 0
2.12 0 0
2.16 0 0
2.2 0 0
2.24 0 0
2.28 0 0
2.32 0 0
2.36 0 0
2.4 0 0
2.44 0 0
2.48 0 0
2.52 0 0
2.56 0 0
2.6 0 0
2.64 0 0
2.68 0 0
2.72 0 0
2.76 0 0
2.8 0 0
2.84 0 0
2.88 0 0
2.92 0 0
2.96 0 0
3 0 0
3.04 0 0
3.08 0 0
3.12 0 0
3.16 0 0
3.2 0 0
3.24 0 0
3.28 0 0
3.32 0 0
3.36 0 0
3.4 0 0
3.44 0 0
3.48 0 0
3.52 0 0
3.56 0 0
3.6 0 0
3.64 0 0
3.68 0 0
3.72 0 0
3.76 0 0
3.8 0 0
3.84 0 0
3.88 0 0
3.92 0 0
3.96 0 0
4 0 0
4.04 0 0
4.08 0 0
4.12 0 0
4.16 0 0
4.2 0 0
4.24 0 0
4.28 0 0
4.32 0 0
4.36 0 0
4.4 0 0
4.44 0 0
4.48 0 0
4.52 0 0
4.56 0 0
4.6 0 0
4.64 0 0
4.68 0 0
4.72 0 0
4.76 0 0
4.8 0 0
4.84 0 0
4.88 0 0
4.92 0 0
4.96 0 0
5 0 0
5.04 0 0
5.08 0 0
5.12 0 0
5.16 0 0
5.2 0 0
5.24 0 0
5.28 0 0
5.32 0 0
5.36 0 0
5.4 0 0
5.44 0 0
5.48 0 0
5.52 0 0
5.56 0 0
5.6 0 0
5.64 0 0
5.68 0 0
5.72 0 0
5.76 0 0
5.8 0 0
5.84 0 0
5.88 0 0
5.92 0 0
5.96 0 0
6 0 0
6.04 0 0
6.08 0 0
6.12 0 0
6.16 0 0
6.2 0 0
6.24 0 0
6.28 0 0
6.32 0 0
6.36 0 0
6.4 0 0
6.44 0 0
6.48 0 0
6.52 0 0
6.56 0 0
6.6 0 0
6.64 0 0
6.68 0 0
6.72 0 0
6.76 0 0
6.8 0 0
6.84 0 0
6.88 0 0
6.92 0 0
6.96 0 0
7 0 0
7.04 0 0
7.08 0 0
7.12 0 0
7.16 0 0
7.2 0 0
7.24 0 0
7.28 0 0
7.32 0 0
7.36 0 0
7.4 0 0
7.44 0 0
7.48 0 0
7.52 0 0
7.56 0 0
7.6 0 0
7.64 0 0
7.68 0 0
7.72 0 0
7.76 0 0
7.8 0 0
7.84 0 0
7.88 0 0
7.92 0 0
7.96 0 0
8 0 0
8.04 0 0
8.08 0 0
8.12 0 0
8.16 0 0
8.2 0 0
8.24 0 0
8.28 0 0
8.32 0 0
8.36 0 0
8.4 0 0
8.44 0 0
8.48 0 0
8.52 0 0
8.56 0 0
8.6 0 0
8.64 0 0
8.68 0 0
8.72 0 0
8.76 0 0
8.8 0 0
8.84 0 0
8.88 0 0
8.92 0 0
8.96 0 0
9 0 0
9.04 0 0
9.08 0 0
9.12 0 0
9.16 0 0
9.2 0 0
9.24 0 0
9.28 0 0
9.32 0 0
9.36 0 0
9.4 0 0
9.44 0 0
9.48 0 0
9.52 0 0
9.56 0 0
9.6 0 0
9.64 0 0
9.68 0 0
9.72 0 0
9.76 0 0
9.8 0 0
9.84 0 0
9.88 0 0
9.92 0 0
9.96 0 0
10 0 0
10.04 0 0
10.08 0 0
10.12 0 0
10.16 0 0
10.2 0 0
10.24 0 0
10.28 0 0
10.32 0 0
10.36 0 0
10.4 0 0
10.44 0 0
10.48 0 0
10.52 0 0
10.56 0 0
10.6 0 0
10.64 0 0
10.68 0 0
10.72 0 0
10.76 0 0
10.8 0 0
10.84 0 0
10.88 0 0
10.92 0 0
10.96 0 0
11 0 0
11.04 0 0
11.08 0 0
11.12 0 0
11.16 0 0
11.2 0 0
11.24 0 0
11.28 0 0
11.32 0 0
11.36 0 0
11.4 0 0
11.44 0 0
11.48 0 0
11.52 0 0
11.56 0 0
11.6 0 0
11.64 0 0
11.68 0 0
11.72 0 0
11.76 0 0
11.8 0 0
11.84 0 0
11.88 0 0
11.92 0 0
11.96 0 0
12 0 0
12.04 0 0
12.08 0 0
12.12 0 0
12.16 0 0
12.2 0 0
12.24 0 0
12.28 0 0
12.32 0 0
12.36 0 0
12.4 0 0
12.44 0 0
12.48 0 0
12.52 0 0
12.56 0 0
12.6 0 0
12.64 0 0
12.68 0 0
12.72 0 0
12.76 0 0
12.8 0 0
12.84 0 0
12.88 0 0
12.92 0 0
12.96 0 0
13 0 0
13.04 0 0
13.08 0 0
13.12 0 0
13.16 0 0
13.2 0 0
13.24 0 0
13.28 0 0
13.32 0 0
13.36 0 0
13.4 0 0
13.44 0 0
13.48 0 0
13.52 0 0
13.56 0 0
13.6 0 0
13.64 0 0
13.68 0 0
13.72 0 0
13.76 0 0
13.8 0 0
13.84 0 0
13.88 0 0
13.92 0 0
13.96 0 0
14 0 0
14.04 0 0
14.08 0 0
14.12 0 0
14.16 0 0
14.2 0 0
14.24 0 0
14.28 0 0
14.32 0 0
14.36 0 0
14.4 0 0
14.44 0 0
14.48 0 0
14.52 0 0
14.56 0 0
14.6 0 0
14.64 0 0
14.68 0 0
14.72 0 0
14.76 0 0
14.8 0 0
14.84 0 0
14.88 0 0
14.92 0 0
14.96 0 0
15 0 0
15.04 0 0
15.08 0 0
15.12 0 0
15.16 0 0
15.2 0 0
15.24 0 0
15.28 0 0
15.32 0 0
15.36 0 0
15.4 0 0
15.44 0 0
15.48 0 0
15.52 0 0
15.56 0 0
15.6 0 0
15.64 0 0
15.68 0 0
15.72 0 0
15.76 0 0
15.8 0 0
15.84 0 0
15.88 0 0
15.92 0 0
15.96 0 0
16 0 0
16.04 0 0
16.08 0 0
16.12 0 0
16.16 0 0
16.2 0 0
16.24 0 0
16.28 0 0
16.32 0 0
16.36 0 0
16.4 0 0
16.44 0 0
16.48 0 0
16.52 0 0
16.56 0 0
16.6 0 0
16.64 0 0
16.68 0 0
16.72 0 0
16.76 0 0
16.8 0 0
16.84 0 0
16.88 0 0
16.92 0 0
16.96 0 0
17 0 0
17.04 0 0
17.08 0 0
17.12 0 0
17.16 0 0
17.2 0 0
17.24 0 0
17.28 0 0
17.32 0 0
17.36 0 0
17.4 0 0
17.44 0 0
17.48 0 0
17.52 0 0
17.56 0 0
17.6 0 0
17.64 0 0
17.68 0 0
17.72 0 0
17.76 0 0
17.8 0 0
17.84 0 0
17.88 0 0
17.92 0 0
17.96 0 0
18 0 0
18.04 0 0
18.08 0 0
18.12 0 0
18.16 0 0
18.2 0 0
18.24 0 0
18.28 0 0
18.32 0 0
18.36 0 0
18.4 0 0
18.44 0 0
18.48 0 0
18.52 0 0
18.56 0 0
18.6 0 0
18.64 0 0
18.68 0 0
18.72 0 0
18.76 0 0
18.8 0 0
18.84 0 0
18.88 0 0
18.92 0 0
18.96 0 0
19 0 0
19.04 0 0
19.08 0 0
19.12 0 0
19.16 0 0
19.2 0 0
19.24 0 0
19.28 0 0
19.32 0 0
19.36 0 0
19.4 0 0
19.44 0 0
19.48 0 0
19.52 0 0
19.56 0 0
19.6 0 0
19.64 0 0
19.68 0 0
19.72 0 0
19.76 0 0
19.8 0 0
19.84 0 0
19.88 0 0
19.92 0 0
19.96 0 0
20 0 0
20.04 0 0
20.08 0 0
20.12 0 0
20.16 0 0
20.2 0 0
20.24 0 0
20.28 0 0
20.32 0 0
20.36 0 0
20.4 0 0
20.44 0 0
20.48 0 0
20.52 0 0
20.56 0 0
20.6 0 0
20.64 0 0
20.68 0 0
20.72 0 0
20.76 0 0
20.8 0 0
20.84 0 0
20.88 0 0
20.92 0 0
20.96 0 0
21 0 0
21.04 0 0
21.08 0 0
21.12 0 0
21.16 0 0
21.2 0 0
21.24 0 0
21.28 0 0
21.32 0 0
21.36 0 0
21.4 0 0
21.44 0 0
21.48 0 0
21.52 0 0
21.56 0 0
21.6 0 0
21.64 0 0
21.68 0 0
21.72 0 0
21.76 0 0
21.8 0 0
21.84 0 0
21.88 0 0
21.92 0 0
21.96 0 0
22 0 0
22.04 0 0
22.08 0 0
22.12 0 0
22.16 0 0
22.2 0 0
22.24 0 0
22.28 0 0
22.32 0 0
22.36 0 0
22.4 0 0
22.44 0 0
22.48 0 0
22.52 0 0
22.56 0 0
22.6 0 0
22.64 0 0
22.68 0 0
22.72 0 0
22.76 0 0
22.8 0 0
22.84 0 0
22.88 0 0
22.92 0 0
22.96 0 0
23 0 0
23.04 0 0
23.08 0 0
23.12 0 0
23.16 0 0
23.2 0 0
23.24 0 0
23.28 0 0
23.32 0 0
23.36 0 0
23.4 0 0
23.44 0 0
23.48 0 0
23.52 0 0
23.56 0 0
23.6 0 0
23.64 0 0
23.68 0 0
23.72 0 0
23.76 0 0
23.8 0 0
23.84 0 0
23.88 0 0
23.92 0 0
23.96 0 0
24 0 0
24.04 0 0
24.08 0 0
24.12 0 0
24.16 0 0
24.2 0 0
24.24 0 0
24.28 0 0
24.32 0 0
24.36 0 0
24.4 0 0
24.44 0 0
24.48 0 0
24.52 0 0
24.56 0 0
24.6 0 0
24.64 0 0
24.68 0 0
24.72 0 0
24.76 0 0
24.8 0 0
24.84 0 0
24.88 0 0
24.92 0 0
24.96 0 0
25 0 0
25.04 0 0
25.08 0 0
25.12 0 0
25.16 0 0
25.2 0 0
25.24 0 0
25.28 0 0
25.32 0 0
25.36 0 0
25.4 0 0
25.44 0 0
25.48 0 0
25.52 0 0
25.56 0 0
25.6 0 0
25.64 0 0
25.68 0 0
25.72 0 0
25.76 0 0
25.8 0 0
25.84 0 0
25.88 0 0
25.92 0 0
25.96 0 0
26 0 0
26.04 0 0
26.08 0 0
26.12 0 0
26.16 0 0
26.2 0 0
26.24 0 0
26.28 0 0
26.32 0 0
26.36 0 0
26.4 0 0
26.44 0 0
26.48 0 0
26.52 0 0
26.56 0 0
26.6 0 0
26.64 0 0
26.68 0 0
26.72 0 0
26.76 0 0
26.8 0 0
26.84 0 0
26.88 0 0
26.92 0 0
26.96 0 0
27 0 0
27.04 0 0
27.08 0 0
27.12 0 0
27.16 0 0
27.2 0 0
27.24 0 0
27.28 0 0
27.32 0 0
27.36 0 0
27.4 0 0
27.44 0 0
27.48 0 0
27.52 0 0
27.56 0 0
27.6 0 0
27.64 0 0
27.68 0 0
27.72 0 0
27.76 0 0
27.8 0 0
27.84 0 0
27.88 0 0
27.92 0 0
27.96 0 0
28 0 0
28.04 0 0
28.08 0 0
28.12 0 0
28.16 0 0
28.2 0 0
28.24 0 0
28.28 0 0
28.32 0 0
28.36 0 0
28.4 0 0
28.44 0 0
28.48 0 0
28.52 0 0
28.56 0 0
28.6 0 0
28.64 0 0
28.68 0 0
28.72 0 0
28.76 0 0
28.8 0 0
28.84 0 0
28.88 0 0
28.92 0 0
28.96 0 0
29 0 0
29.04 0 0
29.08 0 0
29.12 0 0
29.16 0 0
29.2 0 0
29.24 0 0
29.28 0 0
29.32 0 0
29.36 0 0
29.4 0 0
29.44 0 0
29.48 0 0
29.52 0 0
29.56 0 0
29.6 0 0
29.64 0 0
29.68 0 0
29.72 0 0
29.76 0 0
29.8 0 0
29.84 0 0
29.88 0 0
29.92 0 0
29.96 0 0
30 0 0
30.04 0 0
30.08 0 0
30.12 0 0
30.16 0 0
30.2 0 0
30.24 0 0
30.28 0 0
30.32 0 0
30.36 0 0
30.4 0 0
30.44 0 0
30.48 0 0
30.52 0 0
30.56 0 0
30.6 0 0
30.64 0 0
30.68 0 0
30.72 0 0
30.76 0 0
30.8 0 0
30.84 0 0
30.88 0 0
30.92 0 0
30.96 0 0
31 0 0
31.04 0 0
31.08 0 0
31.12 0 0
31.16 0 0
31.2 0 0
31.24 0 0
31.28 0 0
31.32 0 0
31.36 0 0
31.4 0 0
31.44 0 0
31.48 0 0
31.52 0 0
31.56 0 0
31.6 0 0
31.64 0 0
31.68 0 0
31.72 0 0
31.76 0 0
31.8 0 0
31.84 0 0
31.88 0 0
31.92 0 0
31.96 0 0
0 0.005 0
0.04 0.005 0
0.08 0.005 0
0.12 0.005 0
0.16 0.005 0
0.2 0.005 0
0.24 0.005 0
0.28 0.005 0
0.32 0.005 0
0.36 0.005 0
0.4 0.005 0
0.44 0.005 0
0.48 0.005 0
0.52 0.005 0
0.56 0.005 0
0.6 0.005 0
0.64 0.005 0
0.68 0.005 0
0.72 0.005 0
0.76 0.005 0
0.8 0.005 0
0.84 0.005 0
0.88 0.005 0
0.92 0.005 0
0.96 0.005 0
1 0.005 0
1.04 0.005 0
1.08 0.005 0
1.12 0.005 0
1.16 0.005 0
1.2 0.005 0
1.24 0.005 0
1.28 0.005 0
1.32 0.005 0
1.36 0.005 0
1.4 0.005 0
1.44 0.005 0
1.48 0.005 0
1.52 0.005 0
1.56 0.005 0
1.6 0.005 0
1.64 0.005 0
1.68 0.005 0
1.72 0.005 0
1.76 0.005 0
1.8 0.005 0
1.84 0.005 0
1.88 0.005 0
1.92 0.005 0
1.96 0.005 0
2 0.005 0
2.04 0.005 0
2.08 0.005 0
2.12 0.005 0
2.16 0.005 0
2.2 0.005 0
2.24 0.005 0
2.28 0.005 0
2.32 0.005 0
2.36 0.005 0
2.4 0.005 0
2.44 0.005 0
2.48 0.005 0
2.52 0.005 0
2.56 0.005 0
2.6 0.005 0
2.64 0.005 0
2.68 0.005 0
2.72 0.005 0
2.76 0.005 0
2.8 0.005 0
2.84 0.005 0
2.88 0.005 0
2.92 0.005 0
2.96 0.005 0
3 0.005 0
3.04 0.005 0
3.08 0.005 0
3.12 0.005 0
3.16 0.005 0
3.2 0.005 0
3.24 0.005 0
3.28 0.005 0
3.32 0.005 0
3.36 0.005 0
3.4 0.005 0
3.44 0.005 0
3.48 0.005 0
3.52 0.005 0
3.56 0.005 0
3.6 0.005 0
3.64 0.005 0
3.68 0.005 0
3.72 0.005 0
3.76 0.005 0
3.8 0.005 0
3.84 0.005 0
3.88 0.005 0
3.92 0.005 0
3.96 0.005 0
4 0.005 0
4.04 0.005 0
4.08 0.005 0
4.12 0.005 0
4.16 0.005 0
4.2 0.005 0
4.24 0.005 0
4.28 0.005 0
4.32 0.005 0
4.36 0.005 0
4.4 0.005 0
4.44 0.005 0
4.48 0.005 0
4.52 0.005 0
4.56 0.005 0
4.6 0.005 0
4.64 0.005 0
4.68 0.005 0
4.72 0.005 0
4.76 0.005 0
4.8 0.005 0
4.84 0.005 0
4.88 0.005 0
4.92 0.005 0
4.96 0.005 0
5 0.005 0
5.04 0.005 0
5.08 0.005 0
5.12 0.005 0
5.16 0.005 0
5.2 0.005 0
5.24 0.005 0
5.28 0.005 0
5.32 0.005 0
5.36 0.005 0
5.4 0.005 0
5.44 0.005 0
5.48 0.005 0
5.52 0.005 0
5.56 0.005 0
5.6 0.005 0
5.64 0.005 0
5.68 0.005 0
5.72 0.005 0
5.76 0.005 0
5.8 0.005 0
5.84 0.005 0
5.88 0.005 0
5.92 0.005 0
5.96 0.005 0
6 0.005 0
6.04 0.005 0
6.08 0.005 0
6.12 0.005 0
6.16 0.005 0
6.2 0.005 0
6.24 0.005 0
6.28 0.005 0
6.32 0.005 0
6.36 0.005 0
6.4 0.005 0
6.44 0.005 0
6.48 0.005 0
6.52 0.005 0
6.56 0.005 0
6.6 0.005 0
6.64 0.005 0
6.68 0.005 0
6.72 0.005 0
6.76 0.005 0
6.8 0.005 0
6.84 0.005 0
6.88 0.005 0
6.92 0.005 0
6.96 0.005 0
7 0.005 0
7.04 0.005 0
7.08 0.005 0
7.12 0.005 0
7.16 0.005 0
7.2 0.005 0
7.24 0.005 0
7.28 0.005 0
7.32 0.005 0
7.36 0.005 0
7.4 0.005 0
[...]
POINT_DATA 160000

SCALARS u float 1
LOOKUP_TABLE default
-1
-0.483357
-0.183963
-0.108845
-0.0810327
-0.0668333
-0.0581177
-0.0521522
-0.0477769
-0.044414
-0.0417407
-0.0395609
-0.0377476
-0.0362146
-0.0349008
-0.0337618
-0.032764
-0.0318823
-0.0310966
-0.0303915
-0.0297545
-0.0291755
-0.0286464
-0.0281603
-0.0277117
-0.0272959
-0.026909
-0.0265478
-0.0262094
-0.0258915
-0.025592
-0.025309
-0.0250411
-0.024787
-0.0245454
-0.0243154
-0.024096
-0.0238864
-0.0236858
-0.0234937
-0.0233095
-0.0231326
-0.0229626
-0.0227989
-0.0226414
-0.0224895
-0.0223429
-0.0222014
-0.0220647
-0.0219325
-0.0218046
-0.0216807
-0.0215607
-0.0214444
-0.0213315
-0.021222
-0.0211157
-0.0210124
-0.0209119
-0.0208143
-0.0207192
-0.0206268
-0.0205367
-0.020449
-0.0203635
-0.0202801
-0.0201989
-0.0201195
-0.0200421
-0.0199666
-0.0198928
-0.0198207
-0.0197502
-0.0196813
-0.019614
-0.0195481
-0.0194837
-0.0194206
-0.0193589
-0.0192984
-0.0192392
-0.0191812
-0.0191244
-0.0190687
-0.0190141
-0.0189605
-0.018908
-0.0188565
-0.0188059
-0.0187563
-0.0187077
-0.0186599
-0.0186129
-0.0185669
-0.0185216
-0.0184771
-0.0184334
-0.0183905
-0.0183482
-0.0183067
-0.0182659
-0.0182258
-0.0181864
-0.0181475
-0.0181093
-0.0180718
-0.0180348
-0.0179984
-0.0179626
-0.0179273
-0.0178926
-0.0178584
-0.0178247
-0.0177915
-0.0177588
-0.0177266
-0.0176949
-0.0176637
-0.0176329
-0.0176025
-0.0175726
-0.0175431
-0.017514
-0.0174853
-0.0174571
-0.0174292
-0.0174017
-0.0173746
-0.0173478
-0.0173214
-0.0172954
-0.0172697
-0.0172443
-0.0172193
-0.0171946
-0.0171703
-0.0171462
-0.0171225
-0.017099
-0.0170759
-0.017053
-0.0170305
-0.0170082
-0.0169862
-0.0169645
-0.016943
-0.0169218
-0.0169009
-0.0168802
-0.0168598
-0.0168396
-0.0168197
-0.0168
-0.0167805
-0.0167613
-0.0167423
-0.0167235
-0.0167049
-0.0166866
-0.0166684
-0.0166505
-0.0166328
-0.0166153
-0.016598
-0.0165809
-0.016564
-0.0165472
-0.0165307
-0.0165144
-0.0164982
-0.0164822
-0.0164664
-0.0164508
-0.0164353
-0.01642
-0.0164049
-0.01639
-0.0163752
-0.0163605
-0.0163461
-0.0163318
-0.0163176
-0.0163036
-0.0162898
-0.0162761
-0.0162625
-0.0162491
-0.0162358
-0.0162227
-0.0162097
-0.0161969
-0.0161842
-0.0161716
-0.0161592
-0.0161468
-0.0161347
-0.0161226
-0.0161107
-0.0160989
-0.0160872
-0.0160756
-0.0160642
-0.0160529
-0.0160417
-0.0160306
-0.0160196
-0.0160087
-0.015998
-0.0159874
-0.0159768
-0.0159664
-0.0159561
-0.0159459
-0.0159358
-0.0159258
-0.0159159
-0.0159061
-0.0158964
-0.0158868
-0.0158772
-0.0158678
-0.0158585
-0.0158493
-0.0158402
-0.0158312
-0.0158222
-0.0158134
-0.0158046
-0.015796
-0.0157874
-0.0157789
-0.0157705
-0.0157622
-0.015754
-0.0157459
-0.0157379
-0.0157299
-0.0157221
-0.0157143
-0.0157066
-0.015699
-0.0156915
-0.0156841
-0.0156767
-0.0156695
-0.0156623
-0.0156553
-0.0156483
-0.0156414
-0.0156346
-0.0156279
-0.0156212
-0.0156147
-0.0156082
-0.0156019
-0.0155956
-0.0155894
-0.0155833
-0.0155773
-0.0155713
-0.0155655
-0.0155597
-0.0155541
-0.0155485
-0.015543
-0.0155376
-0.0155323
-0.0155271
-0.0155219
-0.0155169
-0.0155119
-0.015507
-0.0155022
-0.0154975
-0.0154929
-0.0154883
-0.0154839
-0.0154795
-0.0154752
-0.015471
-0.0154668
-0.0154628
-0.0154588
-0.0154549
-0.0154511
-0.0154474
-0.0154437
-0.0154401
-0.0154366
-0.0154332
-0.0154298
-0.0154266
-0.0154233
-0.0154202
-0.0154171
-0.0154141
-0.0154112
-0.0154084
-0.0154056
-0.0154029
-0.0154002
-0.0153976
-0.0153951
-0.0153926
-0.0153902
-0.0153879
-0.0153856
-0.0153834
-0.0153812
-0.0153791
-0.0153771
-0.0153751
-0.0153732
-0.0153713
-0.0153694
-0.0153677
-0.0153659
-0.0153642
-0.0153626
-0.015361
-0.0153595
-0.015358
-0.0153566
-0.0153552
-0.0153538
-0.0153525
-0.0153512
-0.0153499
-0.0153487
-0.0153476
-0.0153464
-0.0153454
-0.0153443
-0.0153433
-0.0153423
-0.0153413
-0.0153404
-0.0153395
-0.0153386
-0.0153378
-0.0153369
-0.0153362
-0.0153354
-0.0153346
-0.0153339
-0.0153332
-0.0153326
-0.0153319
-0.0153313
-0.0153307
-0.0153301
-0.0153295
-0.0153289
-0.0153284
-0.0153279
-0.0153274
-0.0153269
-0.0153264
-0.0153259
-0.0153255
-0.015325
-0.0153246
-0.0153242
-0.0153238
-0.0153234
-0.015323
-0.0153226
-0.0153222
-0.0153218
-0.0153215
-0.0153211
-0.0153208
-0.0153204
-0.0153201
-0.0153197
-0.0153194
-0.0153191
-0.0153188
-0.0153184
-0.0153181
-0.0153178
-0.0153175
-0.0153172
-0.0153169
-0.0153166
-0.0153163
-0.015316
-0.0153157
-0.0153153
-0.015315
-0.0153147
-0.0153144
-0.0153141
-0.0153138
-0.0153135
-0.0153132
-0.0153129
-0.0153126
-0.0153123
-0.015312
-0.0153117
-0.0153114
-0.0153111
-0.0153108
-0.0153105
-0.0153102
-0.0153099
-0.0153096
-0.0153093
-0.015309
-0.0153087
-0.0153084
-0.0153081
-0.0153078
-0.0153075
-0.0153072
-0.0153069
-0.0153066
-0.0153062
-0.0153059
-0.0153056
-0.0153053
-0.015305
-0.0153047
-0.0153044
-0.0153041
-0.0153038
-0.0153035
-0.0153032
-0.0153029
-0.0153026
-0.0153023
-0.015302
-0.0153017
-0.0153014
-0.0153011
-0.0153008
-0.0153005
-0.0153002
-0.0152999
-0.0152996
-0.0152993
-0.015299
-0.0152987
-0.0152984
-0.0152981
-0.0152978
-0.0152975
-0.0152972
-0.0152969
-0.0152965
-0.0152962
-0.0152959
-0.0152956
-0.0152953
-0.015295
-0.0152947
-0.0152944
-0.0152941
-0.0152938
-0.0152935
-0.0152932
-0.0152929
-0.0152926
-0.0152923
-0.015292
-0.0152917
-0.0152914
-0.0152911
-0.0152908
-0.0152905
-0.0152902
-0.0152899
-0.0152896
-0.0152893
-0.015289
-0.0152887
-0.0152884
-0.0152881
-0.0152878
-0.0152875
-0.0152872
-0.0152869
-0.0152865
-0.0152862
-0.0152859
-0.0152856
-0.0152853
-0.015285
-0.0152847
-0.0152844
-0.0152841
-0.0152838
-0.0152835
-0.0152832
-0.0152829
-0.0152826
-0.0152823
-0.015282
-0.0152817
-0.0152814
-0.0152811
-0.0152808
-0.0152805
-0.0152802
-0.0152799
-0.0152796
-0.0152793
-0.015279
-0.0152787
-0.0152784
-0.0152781
-0.0152778
-0.0152775
-0.0152772
-0.0152769
-0.0152765
-0.0152762
-0.0152759
-0.0152756
-0.0152753
-0.015275
-0.0152747
-0.0152744
-0.0152741
-0.0152738
-0.0152735
-0.0152732
-0.0152729
-0.0152726
-0.0152723
-0.015272
-0.0152717
-0.0152714
-0.0152711
-0.0152708
-0.0152705
-0.0152702
-0.0152699
-0.0152696
-0.0152693
-0.015269
-0.0152687
-0.0152684
-0.0152681
-0.0152678
-0.0152675
-0.0152672
-0.0152669
-0.0152665
-0.0152662
-0.0152659
-0.0152656
-0.0152653
-0.015265
-0.0152647
-0.0152644
-0.0152641
-0.0152638
-0.0152635
-0.0152632
-0.0152629
-0.0152626
-0.0152623
-0.015262
-0.0152617
-0.0152614
-0.0152611
-0.0152608
-0.0152605
-0.0152602
-0.0152599
-0.0152596
-0.0152593
-0.015259
-0.0152587
-0.0152584
-0.0152581
-0.0152578
-0.0152575
-0.0152572
-0.0152569
-0.0152566
-0.0152562
-0.0152559
-0.0152556
-0.0152553
-0.015255
-0.0152547
-0.0152544
-0.0152541
-0.0152538
-0.0152535
-0.0152532
-0.0152529
-0.0152526
-0.0152523
-0.015252
-0.0152517
-0.0152514
-0.0152511
-0.0152508
-0.0152505
-0.0152502
-0.0152499
-0.0152496
-0.0152493
-0.015249
-0.0152487
-0.0152484
-0.0152481
-0.0152478
-0.0152475
-0.0152472
-0.0152469
-0.0152466
-0.0152463
-0.0152459
-0.0152456
-0.0152453
-0.015245
-0.0152447
-0.0152444
-0.0152441
-0.0152438
-0.0152435
-0.0152432
-0.0152429
-0.0152426
-0.0152423
-0.015242
-0.0152417
-0.0152414
-0.0152411
-0.0152408
-0.0152405
-0.0152402
-0.0152399
-0.0152396
-0.0152393
-0.015239
-0.0152387
-0.0152384
-0.0152381
-0.0152378
-0.0152375
-0.0152372
-0.0152369
-0.0152366
-0.0152363
-0.015236
-0.0152356
-0.0152353
-0.015235
-0.0152347
-0.0152344
-0.0152341
-0.0152338
-0.0152335
-0.0152332
-0.0152329
-0.0152326
-0.0152323
-0.015232
-0.0152317
-0.0152314
-0.0152311
-0.0152308
-0.0152305
-0.0152302
-0.0152299
-0.0152296
-0.0152293
-0.015229
-0.0152287
-0.0152284
-0.0152281
-0.0152278
-0.0152275
-0.0152272
-0.0152269
-0.0152266
-0.0152263
-0.015226
-0.0152257
-0.0152254
-0.015225
-0.0152247
-0.0152244
-0.0152241
-0.0152238
-0.0152235
-0.0152232
-0.0152229
-0.0152226
-0.0152223
-0.015222
-0.0152217
-0.0152214
-0.0152211
-0.0152208
-0.0152205
-0.0152202
-0.0152199
-0.0152196
-0.0152193
-0.015219
-0.0152187
-0.0152184
-0.0152181
-0.0152178
-0.0152175
-0.0152172
-0.0152169
-0.0152166
-0.0152163
-0.015216
-0.0152157
-0.0152154
-0.0152151
-0.0152148
-0.0152145
-0.0152141
-0.0152138
-0.0152135
-0.0152132
-0.0152129
-0.0152126
-0.0152123
-0.015212
-0.0152117
-0.0152114
-0.0152111
-0.0152108
-0.0152105
-0.0152102
-0.0152099
-0.0152096
-0.0152093
-0.015209
-0.0152087
-0.0152084
-0.0152081
-0.0152078
-0.0152075
-0.0152072
-0.0152069
-0.0152066
-0.0152063
-0.015206
-0.0152057
-0.0152054
-0.0152051
-0.0152048
-0.0152045
-0.0152042
-0.0152039
-0.0152036
-0.0152032
-0.0152029
-0.0152026
-0.0152023
-0.015202
-0.0152017
-0.0152014
-0.0152011
-0.0152008
-0.0152005
-0.0152002
-0.0151999
-0.0151996
-0.0151993
-0.015199
-0.0151987
-0.0151984
-0.0151981
-0.0151978
-0.0151975
-0.0151972
-0.0151968
-0.0151965
-0.0151962
-0.0151959
-0.0151956
-0.0151952
-0.0151949
-0.0151946
-0.0151942
-0.0151938
-0.0151934
-0.015193
-0.0151925
-0.015192
-0.0151915
-0.0151908
-0.0151902
-0.0151891
-0.0151887
-0.0151887
-0.0151887
1
0.483357
0.183963
0.108845
0.0810327
0.0668333
0.0581177
0.0521522
0.0477769
0.044414
0.0417407
0.0395609
0.0377476
0.0362146
0.0349008
0.0337618
0.032764
0.0318823
0.0310966
0.0303915
0.0297545
0.0291755
0.0286464
0.0281603
0.0277117
0.0272959
0.026909
0.0265478
0.0262094
0.0258915
0.025592
0.025309
0.0250411
0.024787
0.0245454
0.0243154
0.024096
0.0238864
0.0236858
0.0234937
0.0233095
0.0231326
0.0229626
0.0227989
0.0226414
0.0224895
0.0223429
0.0222014
0.0220647
0.0219325
0.0218046
0.0216807
0.0215607
0.0214444
0.0213315
0.021222
0.0211157
0.0210124
0.0209119
0.0208143
0.0207192
0.0206268
0.0205367
0.020449
0.0203635
0.0202801
0.0201989
0.0201195
0.0200421
0.0199666
0.0198928
0.0198207
0.0197502
0.0196813
0.019614
0.0195481
0.0194837
0.0194206
0.0193589
0.0192984
0.0192392
0.0191812
0.0191244
0.0190687
0.0190141
0.0189605
0.018908
0.0188565
0.0188059
0.0187563
0.0187077
0.0186599
0.0186129
0.0185669
0.0185216
0.0184771
0.0184334
0.0183905
0.0183482
0.0183067
0.0182659
0.0182258
0.0181864
0.0181475
0.0181093
0.0180718
0.0180348
0.0179984
0.0179626
0.0179273
0.0178926
0.0178584
0.0178247
0.0177915
0.0177588
0.0177266
0.0176949
0.0176637
0.0176329
0.0176025
0.0175726
0.0175431
0.017514
0.0174853
0.0174571
0.0174292
0.0174017
0.0173746
0.0173478
0.0173214
0.0172954
0.0172697
0.0172443
0.0172193
0.0171946
0.0171703
0.0171462
0.0171225
0.017099
0.0170759
0.017053
0.0170305
0.0170082
0.0169862
0.0169645
0.016943
0.0169218
0.0169009
0.0168802
0.0168598
0.0168396
0.0168197
0.0168
0.0167805
0.0167613
0.0167423
0.0167235
0.0167049
0.0166866
0.0166684
0.0166505
0.0166328
0.0166153
0.016598
0.0165809
0.016564
0.0165472
0.0165307
0.0165144
0.0164982
0.0164822
0.0164664
0.0164508
0.0164353
0.01642
0.0164049
0.01639
0.0163752
0.0163605
0.0163461
0.0163318
0.0163176
0.0163036
0.0162898
0.0162761
0.0162625
0.0162491
0.0162358
0.0162227
0.0162097
0.0161969
0.0161842
0.0161716
0.0161592
0.0161468
0.0161347
0.0161226
0.0161107
0.0160989
0.0160872
0.0160756
0.0160642
0.0160529
0.0160417
0.0160306
0.0160196
0.0160087
0.015998
0.0159874
0.0159768
0.0159664
0.0159561
0.0159459
0.0159358
0.0159258
0.0159159
0.0159061
0.0158964
0.0158868
0.0158772
0.0158678
0.0158585
0.0158493
0.0158402
0.0158312
0.0158222
0.0158134
0.0158046
0.015796
0.0157874
0.0157789
0.0157705
0.0157622
0.015754
0.0157459
0.0157379
0.0157299
0.0157221
0.0157143
0.0157066
0.015699
0.0156915
0.0156841
0.0156767
0.0156695
0.0156623
0.0156553
0.0156483
0.0156414
0.0156346
0.0156279
0.0156212
0.0156147
0.0156082
0.0156019
0.0155956
0.0155894
0.0155833
0.0155773
0.0155713
0.0155655
0.0155597
0.0155541
0.0155485
0.015543
0.0155376
0.0155323
0.0155271
0.0155219
0.0155169
0.0155119
0.015507
0.0155022
0.0154975
0.0154929
0.0154883
0.0154839
0.0154795
0.0154752
0.015471
0.0154668
0.0154628
0.0154588
0.0154549
0.0154511
0.0154474
0.0154437
0.0154401
0.0154366
0.0154332
0.0154298
0.0154266
0.0154233
0.0154202
0.0154171
0.0154141
0.0154112
0.0154084
0.0154056
0.0154029
0.0154002
0.0153976
0.0153951
0.0153926
0.0153902
0.0153879
0.0153856
0.0153834
0.0153812
0.0153791
0.0153771
0.0153751
0.0153732
0.0153713
0.0153694
0.0153677
0.0153659
0.0153642
0.0153626
0.015361
0.0153595
0.015358
0.0153566
0.0153552
0.0153538
0.0153525
0.0153512
0.0153499
0.0153487
0.0153476
0.0153464
0.0153454
0.0153443
0.0153433
0.0153423
0.0153413
0.0153404
0.0153395
0.0153386
0.0153378
0.0153369
0.0153362
0.0153354
0.0153346
0.0153339
0.0153332
0.0153326
0.0153319
0.0153313
0.0153307
0.0153301
0.0153295
0.0153289
0.0153284
0.0153279
0.0153274
0.0153269
0.0153264
0.0153259
0.0153255
0.015325
0.0153246
0.0153242
0.0153238
0.0153234
0.015323
0.0153226
0.0153222
0.0153218
0.0153215
0.0153211
0.0153208
0.0153204
0.0153201
0.0153197
0.0153194
0.0153191
0.0153188
0.0153184
0.0153181
0.0153178
0.0153175
0.0153172
0.0153169
0.0153166
0.0153163
0.015316
0.0153157
0.0153153
0.015315
0.0153147
0.0153144
0.0153141
0.0153138
0.0153135
0.0153132
0.0153129
0.0153126
0.0153123
0.015312
0.0153117
0.0153114
0.0153111
0.0153108
0.0153105
0.0153102
0.0153099
0.0153096
0.0153093
0.015309
0.0153087
0.0153084
0.0153081
0.0153078
0.0153075
0.0153072
0.0153069
0.0153066
0.0153062
0.0153059
0.0153056
0.0153053
0.015305
0.0153047
0.0153044
0.0153041
0.0153038
0.0153035
0.0153032
0.0153029
0.0153026
0.0153023
0.015302
0.0153017
0.0153014
0.0153011
0.0153008
0.0153005
0.0153002
0.0152999
0.0152996
0.0152993
0.015299
0.0152987
0.0152984
0.0152981
0.0152978
0.0152975
0.0152972
0.0152969
0.0152965
0.0152962
0.0152959
0.0152956
0.0152953
0.015295
0.0152947
0.0152944
0.0152941
0.0152938
0.0152935
0.0152932
0.0152929
0.0152926
0.0152923
0.015292
0.0152917
0.0152914
0.0152911
0.0152908
0.0152905
0.0152902
0.0152899
0.0152896
0.0152893
0.015289
0.0152887
0.0152884
0.0152881
0.0152878
0.0152875
0.0152872
0.0152869
0.0152865
0.0152862
0.0152859
0.0152856
0.0152853
0.015285
0.0152847
0.0152844
0.0152841
0.0152838
0.0152835
0.0152832
0.0152829
0.0152826
0.0152823
0.015282
0.0152817
0.0152814
0.0152811
0.0152808
0.0152805
0.0152802
0.0152799
0.0152796
0.0152793
0.015279
0.0152787
0.0152784
0.0152781
0.0152778
0.0152775
0.0152772
0.0152769
0.0152765
0.0152762
0.0152759
0.0152756
0.0152753
0.015275
0.0152747
0.0152744
0.0152741
0.0152738
0.0152735
0.0152732
0.0152729
0.0152726
0.0152723
0.015272
0.0152717
0.0152714
0.0152711
0.0152708
0.0152705
0.0152702
0.0152699
0.0152696
0.0152693
0.015269
0.0152687
0.0152684
0.0152681
0.0152678
0.0152675
0.0152672
0.0152669
0.0152665
0.0152662
0.0152659
0.0152656
0.0152653
0.015265
0.0152647
0.0152644
0.0152641
0.0152638
0.0152635
0.0152632
0.0152629
0.0152626
0.0152623
0.015262
0.0152617
0.0152614
0.0152611
0.0152608
0.0152605
0.0152602
0.0152599
0.0152596
0.0152593
0.015259
0.0152587
0.0152584
0.0152581
0.0152578
0.0152575
0.0152572
0.0152569
0.0152566
0.0152562
0.0152559
0.0152556
0.0152553
0.015255
0.0152547
0.0152544
0.0152541
0.0152538
0.0152535
0.0152532
0.0152529
0.0152526
0.0152523
0.015252
0.0152517
0.0152514
0.0152511
0.0152508
0.0152505
0.0152502
0.0152499
0.0152496
0.0152493
0.015249
0.0152487
0.0152484
0.0152481
0.0152478
0.0152475
0.0152472
0.0152469
0.0152466
0.0152463
0.0152459
0.0152456
0.0152453
0.015245
0.0152447
0.0152444
0.0152441
0.0152438
0.0152435
0.0152432
0.0152429
0.0152426
0.0152423
0.015242
0.0152417
0.0152414
0.0152411
0.0152408
0.0152405
0.0152402
0.0152399
0.0152396
0.0152393
0.015239
0.0152387
0.0152384
0.0152381
0.0152378
0.0152375
0.0152372
0.0152369
0.0152366
0.0152363
0.015236
0.0152356
0.0152353
0.015235
0.0152347
0.0152344
0.0152341
0.0152338
0.0152335
0.0152332
0.0152329
0.0152326
0.0152323
0.015232
0.0152317
0.0152314
0.0152311
0.0152308
0.0152305
0.0152302
0.0152299
0.0152296
0.0152293
0.015229
0.0152287
0.0152284
0.0152281
0.0152278
0.0152275
0.0152272
0.0152269
0.0152266
0.0152263
0.015226
0.0152257
0.0152254
0.015225
0.0152247
0.0152244
0.0152241
0.0152238
0.0152235
0.0152232
0.0152229
0.0152226
0.0152223
0.015222
0.0152217
0.0152214
0.0152211
0.0152208
0.0152205
0.0152202
0.0152199
0.0152196
0.0152193
0.015219
0.0152187
0.0152184
0.0152181
0.0152178
0.0152175
0.0152172
0.0152169
0.0152166
0.0152163
0.015216
0.0152157
0.0152154
0.0152151
0.0152148
0.0152145
0.0152141
0.0152138
0.0152135
0.0152132
0.0152129
0.0152126
0.0152123
0.015212
0.0152117
0.0152114
0.0152111
0.0152108
0.0152105
0.0152102
0.0152099
0.0152096
0.0152093
0.015209
0.0152087
0.0152084
0.0152081
0.0152078
0.0152075
0.0152072
0.0152069
0.0152066
0.0152063
0.015206
0.0152057
0.0152054
0.0152051
0.0152048
0.0152045
0.0152042
0.0152039
0.0152036
0.0152032
0.0152029
0.0152026
0.0152023
0.015202
0.0152017
0.0152014
0.0152011
0.0152008
0.0152005
0.0152002
0.0151999
0.0151996
0.0151993
0.015199
0.0151987
0.0151984
0.0151981
0.0151978
0.0151975
0.0151972
0.0151968
0.0151965
0.0151962
0.0151959
0.0151956
0.0151952
0.0151949
0.0151946
0.0151942
0.0151938
0.0151934
0.015193
0.0151925
0.015192
0.0151915
0.0151908
0.0151902
0.0151891
0.0151887
0.0151887
0.0151887
1
0.969191
0.495616
0.314222
0.237896
0.197395
0.172132
0.154695
0.141841
0.131927
0.124026
0.117572
0.112195
0.107644
0.10374
0.100353
0.0973845
0.0947601
0.0924212
0.0903218
0.088425
0.0867011
0.0851256
0.0836785
0.0823434
0.0811063
0.0799555
0.0788813
0.0778753
0.0769303
0.0760402
0.0751997
0.0744042
0.0736496
0.0729326
0.07225
0.071599
0.0709772
0.0703825
0.0698129
0.0692667
0.0687424
0.0682385
0.0677537
0.0672868
0.0668368
0.0664028
0.0659837
0.0655788
0.0651874
0.0648086
0.0644419
0.0640867
0.0637423
0.0634083
0.0630842
0.0627695
0.0624637
0.0621666
0.0618776
0.0615965
0.0613228
0.0610564
0.0607969
0.060544
0.0602974
0.060057
0.0598224
0.0595935
0.05937
0.0591518
0.0589386
0.0587302
0.0585265
0.0583274
0.0581326
0.0579421
0.0577556
0.057573
0.0573943
0.0572193
0.0570478
0.0568798
0.0567151
0.0565537
0.0563954
0.0562402
0.0560879
0.0559385
0.0557919
0.0556481
0.0555068
0.0553681
0.0552319
0.0550981
0.0549667
0.0548375
0.0547106
0.0545859
0.0544633
0.0543427
0.0542241
0.0541075
0.0539928
0.05388
0.0537689
0.0536597
0.0535522
0.0534463
0.0533421
0.0532395
0.0531385
0.053039
0.052941
0.0528445
0.0527494
0.0526557
0.0525634
0.0524724
0.0523828
0.0522944
0.0522073
0.0521214
0.0520367
0.0519532
0.0518709
0.0517896
0.0517095
0.0516305
0.0515526
0.0514757
0.0513998
0.051325
0.0512511
0.0511782
0.0511062
0.0510352
0.0509651
0.0508959
0.0508275
0.0507601
0.0506935
0.0506277
0.0505628
0.0504986
0.0504353
0.0503727
0.0503109
0.0502499
0.0501896
0.05013
0.0500711
0.050013
0.0499555
0.0498988
0.0498427
0.0497872
0.0497324
0.0496783
0.0496248
0.0495719
0.0495196
0.0494679
0.0494168
0.0493663
0.0493164
0.049267
0.0492182
0.04917
0.0491223
0.0490751
0.0490285
0.0489823
0.0489367
0.0488916
0.048847
0.0488029
0.0487593
0.0487161
0.0486734
0.0486312
0.0485894
0.0485481
0.0485073
0.0484668
0.0484268
0.0483873
0.0483481
0.0483094
0.0482711
0.0482332
0.0481957
0.0481586
0.0481219
0.0480856
0.0480496
0.0480141
0.0479789
0.0479441
0.0479096
0.0478755
0.0478418
0.0478084
0.0477753
0.0477426
0.0477102
0.0476782
0.0476465
0.0476151
0.047584
0.0475533
0.0475229
0.0474928
0.047463
0.0474335
0.0474043
0.0473754
0.0473468
0.0473184
0.0472904
0.0472627
0.0472352
0.0472081
0.0471812
0.0471546
0.0471282
0.0471022
0.0470764
0.0470509
0.0470256
0.0470006
0.0469759
0.0469515
0.0469273
0.0469034
0.0468797
0.0468563
0.0468332
0.0468103
0.0467877
0.0467654
0.0467433
0.0467215
0.0466999
0.0466786
0.0466575
0.0466368
0.0466162
0.046596
0.046576
0.0465563
0.0465368
0.0465176
0.0464986
0.0464799
0.0464615
0.0464433
0.0464255
0.0464078
0.0463904
0.0463733
0.0463565
0.0463399
0.0463235
0.0463075
0.0462917
0.0462761
0.0462608
0.0462458
0.046231
0.0462165
0.0462022
0.0461881
0.0461744
0.0461609
0.0461476
0.0461345
0.0461218
0.0461092
0.0460969
0.0460849
0.046073
0.0460615
0.0460501
0.046039
0.0460281
0.0460174
0.046007
0.0459968
0.0459868
0.0459771
0.0459675
0.0459582
0.0459491
0.0459401
0.0459314
0.0459229
0.0459146
0.0459065
0.0458986
0.0458909
0.0458834
0.0458761
0.0458689
0.045862
0.0458552
0.0458486
0.0458421
0.0458359
0.0458298
0.0458239
0.0458181
0.0458125
0.045807
0.0458017
0.0457966
0.0457916
0.0457867
0.045782
0.0457774
0.0457729
0.0457686
0.0457644
0.0457604
0.0457564
0.0457526
0.0457489
0.0457453
0.0457419
0.0457385
0.0457352
0.0457321
0.045729
0.045726
0.0457232
0.0457204
0.0457177