# vtk DataFile Version 2.0
FlowField
ASCII
DATASET STRUCTURED_GRID
DIMENSIONS 800 1 200
POINTS 160000 float
0 0 0
0.04 0 0
0.08 0 0
0.12 0 0
0.16 0 0
0.2 0 0
0.24 0 0
0.28 0 0
0.32 0 0
0.36 0 0
0.4 0 0
0.44 0 0
0.48 0 0
0.52 0 0
0.56 0 0
0.6 0 0
0.64 0 0
0.68 0 0
0.72 0 0
0.76 0 0
0.8 0 0
0.84 0 0
0.88 0 0
0.92 0 0
0.96 0 0
1 0 0
1.04 0 0
1.08 0 0
1.12 0 0
1.16 0 0
1.2 0 0
1.24 0 0
1.28 0 0
1.32 0 0
1.36 0 0
1.4 0 0
1.44 0 0
1.48 0 0
1.52 0 0
1.56 0 0
1.6 0 0
1.64 0 0
1.68 0 0
1.72 0 0
1.76 0 0
1.8 0 0
1.84 0 0
1.88 0 0
1.92 0 0
1.96 0 0
2 0 0
2.04 0 0
2.08 0 0
2.12 0 0
2.16 0 0
2.2 0 0
2.24 0 0
2.28 0 0
2.32 0 0
2.36 0 0
2.4 0 0
2.44 0 0
2.48 0 0
2.52 0 0
2.56 0 0
2.6 0 0
2.64 0 0
2.68 0 0
2.72 0 0
2.76 0 0
2.8 0 0
2.84 0 0
2.88 0 0
2.92 0 0
2.96 0 0
3 0 0
3.04 0 0
3.08 0 0
3.12 0 0
3.16 0 0
3.2 0 0
3.24 0 0
3.28 0 0
3.32 0 0
3.36 0 0
3.4 0 0
3.44 0 0
3.48 0 0
3.52 0 0
3.56 0 0
3.6 0 0
3.64 0 0
3.68 0 0
3.72 0 0
3.76 0 0
3.8 0 0
3.84 0 0
3.88 0 0
3.92 0 0
3.96 0 0
4 0 0
4.04 0 0
4.08 0 0
4.12 0 0
4.16 0 0
4.2 0 0
4.24 0 0
4.28 0 0
4.32 0 0
4.36 0 0
4.4 0 0
4.44 0 0
4.48 0 0
4.52 0 0
4.56 0 0
4.6 0 0
4.64 0 0
4.68 0 0
4.72 0 0
4.76 0 0
4.8 0 0
4.84 0 0
4.88 0 0
4.92 0 0
4.96 0 0
5 0 0
5.04 0 0
5.08 0 0
5.12 0 0
5.16 0 0
5.2 0 0
5.24 0 0
5.28 0 0
5.32 0 0
5.36 0 0
5.4 0 0
5.44 0 0
5.48 0 0
5.52 0 0
5.56 0 0
5.6 0 0
5.64 0 0
5.68 0 0
5.72 0 0
5.76 0 0
5.8 0 0
5.84 0 0
5.88 0 0
5.92 0 0
5.96 0 0
6 0 0
6.04 0 0
6.08 0 0
6.12 0 0
6.16 0 0
6.2 0 0
6.24 0 0
6.28 0 0
6.32 0 0
6.36 0 0
6.4 0 0
6.44 0 0
6.48 0 0
6.52 0 0
6.56 0 0
6.6 0 0
6.64 0 0
6.68 0 0
6.72 0 0
6.76 0 0
6.8 0 0
6.84 0 0
6.88 0 0
6.92 0 0
6.96 0 0
7 0 0
7.04 0 0
7.08 0 0
7.12 0 0
7.16 0 0
7.2 0 0
7.24 0 0
7.28 0 0
7.32 0 0
7.36 0 0
7.4 0 0
7.44 0 0
7.48 0 0
7.52 0 0
7.56 0 0
7.6 0 0
7.64 0 0
7.68 0 0
7.72 0 0
7.76 0 0
7.8 0 0
7.84 0 0
7.88 0 0
7.92 0 0
7.96 0 0
8 0 0
8.04 0 0
8.08 0 0
8.12 0 0
8.16 0 0
8.2 0 0
8.24 0 0
8.28 0 0
8.32 0 0
8.36 0 0
8.4 0 0
8.44 0 0
8.48 0 0
8.52 0 0
8.56 0 0
8.6 0 0
8.64 0 0
8.68 0 0
8.72 0 0
8.76 0 0
8.8 0 0
8.84 0 0
8.88 0 0
8.92 0 0
8.96 0 0
9 0 0
9.04 0 0
9.08 0 0
9.12 0 0
9.16 0 0
9.2 0 0
9.24 0 0
9.28 0 0
9.32 0 0
9.36 0 0
9.4 0 0
9.44 0 0
9.48 0 0
9.52 0 0
9.56 0 0
9.6 0 0
9.64 0 0
9.68 0 0
9.72 0 0
9.76 0 0
9.8 0 0
9.84 0 0
9.88 0 0
9.92 0 0
9.96 0 0
10 0 0
10.04 0 0
10.08 0 0
10.12 0 0
10.16 0 0
10.2 0 0
10.24 0 0
10.28 0 0
10.32 0 0
10.36 0 0
10.4 0 0
10.44 0 0
10.48 0 0
10.52 0 0
10.56 0 0
10.6 0 0
10.64 0 0
10.68 0 0
10.72 0 0
10.76 0 0
10.8 0 0
10.84 0 0
10.88 0 0
10.92 0 0
10.96 0 0
11 0 0
11.04 0 0
11.08 0 0
11.12 0 0
11.16 0 0
11.2 0 0
11.24 0 0
11.28 0 0
11.32 0 0
11.36 0 0
11.4 0 0
11.44 0 0
11.48 0 0
11.52 0 0
11.56 0 0
11.6 0 0
11.64 0 0
11.68 0 0
11.72 0 0
11.76 0 0
11.8 0 0
11.84 0 0
11.88 0 0
11.92 0 0
11.96 0 0
12 0 0
12.04 0 0
12.08 0 0
12.12 0 0
12.16 0 0
12.2 0 0
12.24 0 0
12.28 0 0
12.32 0 0
12.36 0 0
12.4 0 0
12.44 0 0
12.48 0 0
12.52 0 0
12.56 0 0
12.6 0 0
12.64 0 0
12.68 0 0
12.72 0 0
12.76 0 0
12.8 0 0
12.84 0 0
12.88 0 0
12.92 0 0
12.96 0 0
13 0 0
13.04 0 0
13.08 0 0
13.12 0 0
13.16 0 0
13.2 0 0
13.24 0 0
13.28 0 0
13.32 0 0
13.36 0 0
13.4 0 0
13.44 0 0
13.48 0 0
13.52 0 0
13.56 0 0
13.6 0 0
13.64 0 0
13.68 0 0
13.72 0 0
13.76 0 0
13.8 0 0
13.84 0 0
13.88 0 0
13.92 0 0
13.96 0 0
14 0 0
14.04 0 0
14.08 0 0
14.12 0 0
14.16 0 0
14.2 0 0
14.24 0 0
14.28 0 0
14.32 0 0
14.36 0 0
14.4 0 0
14.44 0 0
14.48 0 0
14.52 0 0
14.56 0 0
14.6 0 0
14.64 0 0
14.68 0 0
14.72 0 0
14.76 0 0
14.8 0 0
14.84 0 0
14.88 0 0
14.92 0 0
14.96 0 0
15 0 0
15.04 0 0
15.08 0 0
15.12 0 0
15.16 0 0
15.2 0 0
15.24 0 0
15.28 0 0
15.32 0 0
15.36 0 0
15.4 0 0
15.44 0 0
15.48 0 0
15.52 0 0
15.56 0 0
15.6 0 0
15.64 0 0
15.68 0 0
15.72 0 0
15.76 0 0
15.8 0 0
15.84 0 0
15.88 0 0
15.92 0 0
15.96 0 0
16 0 0
16.04 0 0
16.08 0 0
16.12 0 0
16.16 0 0
16.2 0 0
16.24 0 0
16.28 0 0
16.32 0 0
16.36 0 0
16.4 0 0
16.44 0 0
16.48 0 0
16.52 0 0
16.56 0 0
16.6 0 0
16.64 0 0
16.68 0 0
16.72 0 0
16.76 0 0
16.8 0 0
16.84 0 0
16.88 0 0
16.92 0 0
16.96 0 0
17 0 0
17.04 0 0
17.08 0 0
17.12 0 0
17.16 0 0
17.2 0 0
17.24 0 0
17.28 0 0
17.32 0 0
17.36 0 0
17.4 0 0
17.44 0 0
17.48 0 0
17.52 0 0
17.56 0 0
17.6 0 0
17.64 0 0
17.68 0 0
17.72 0 0
17.76 0 0
17.8 0 0
17.84 0 0
17.88 0 0
17.92 0 0
17.96 0 0
18 0 0
18.04 0 0
18.08 0 0
18.12 0 0
18.16 0 0
18.2 0 0
18.24 0 0
18.28 0 0
18.32 0 0
18.36 0 0
18.4 0 0
18.44 0 0
18.48 0 0
18.52 0 0
18.56 0 0
18.6 0 0
18.64 0 0
18.68 0 0
18.72 0 0
18.76 0 0
18.8 0 0
18.84 0 0
18.88 0 0
18.92 0 0
18.96 0 0
19 0 0
19.04 0 0
19.08 0 0
19.12 0 0
19.16 0 0
19.2 0 0
19.24 0 0
19.28 0 0
19.32 0 0
19.36 0 0
19.4 0 0
19.44 0 0
19.48 0 0
19.52 0 0
19.56 0 0
19.6 0 0
19.64 0 0
19.68 0 0
19.72 0 0
19.76 0 0
19.8 0 0
19.84 0 0
19.88 0 0
19.92 0 0
19.96 0 0
20 0 0
20.04 0 0
20.08 0 0
20.12 0 0
20.16 0 0
20.2 0 0
20.24 0 0
20.28 0 0
20.32 0 0
20.36 0 0
20.4 0 0
20.44 0 0
20.48 0 0
20.52 0 0
20.56 0 0
20.6 0 0
20.64 0 0
20.68 0 0
20.72 0 0
20.76 0 0
20.8 0 0
20.84 0 0
20.88 0 0
20.92 0 0
20.96 0 0
21 0 0
21.04 0 0
21.08 0 0
21.12 0 0
21.16 0 0
21.2 0 0
21.24 0 0
21.28 0 0
21.32 0 0
21.36 0 0
21.4 0 0
21.44 0 0
21.48 0 0
21.52 0 0
21.56 0 0
21.6 0 0
21.64 0 0
21.68 0 0
21.72 0 0
21.76 0 0
21.8 0 0
21.84 0 0
21.88 0 0
21.92 0 0
21.96 0 0
22 0 0
22.04 0 0
22.08 0 0
22.12 0 0
22.16 0 0
22.2 0 0
22.24 0 0
22.28 0 0
22.32 0 0
22.36 0 0
22.4 0 0
22.44 0 0
22.48 0 0
22.52 0 0
22.56 0 0
22.6 0 0
22.64 0 0
22.68 0 0
22.72 0 0
22.76 0 0
22.8 0 0
22.84 0 0
22.88 0 0
22.92 0 0
22.96 0 0
23 0 0
23.04 0 0
23.08 0 0
23.12 0 0
23.16 0 0
23.2 0 0
23.24 0 0
23.28 0 0
23.32 0 0
23.36 0 0
23.4 0 0
23.44 0 0
23.48 0 0
23.52 0 0
23.56 0 0
23.6 0 0
23.64 0 0
23.68 0 0
23.72 0 0
23.76 0 0
23.8 0 0
23.84 0 0
23.88 0 0
23.92 0 0
23.96 0 0
24 0 0
24.04 0 0
24.08 0 0
24.12 0 0
24.16 0 0
24.2 0 0
24.24 0 0
24.28 0 0
24.32 0 0
24.36 0 0
24.4 0 0
24.44 0 0
24.48 0 0
24.52 0 0
24.56 0 0
24.6 0 0
24.64 0 0
24.68 0 0
24.72 0 0
24.76 0 0
24.8 0 0
24.84 0 0
24.88 0 0
24.92 0 0
24.96 0 0
25 0 0
25.04 0 0
25.08 0 0
25.12 0 0
25.16 0 0
25.2 0 0
25.24 0 0
25.28 0 0
25.32 0 0
25.36 0 0
25.4 0 0
25.44 0 0
25.48 0 0
25.52 0 0
25.56 0 0
25.6 0 0
25.64 0 0
25.68 0 0
25.72 0 0
25.76 0 0
25.8 0 0
25.84 0 0
25.88 0 0
25.92 0 0
25.96 0 0
26 0 0
26.04 0 0
26.08 0 0
26.12 0 0
26.16 0 0
26.2 0 0
26.24 0 0
26.28 0 0
26.32 0 0
26.36 0 0
26.4 0 0
26.44 0 0
26.48 0 0
26.52 0 0
26.56 0 0
26.6 0 0
26.64 0 0
26.68 0 0
26.72 0 0
26.76 0 0
26.8 0 0
26.84 0 0
26.88 0 0
26.92 0 0
26.96 0 0
27 0 0
27.04 0 0
27.08 0 0
27.12 0 0
27.16 0 0
27.2 0 0
27.24 0 0
27.28 0 0
27.32 0 0
27.36 0 0
27.4 0 0
27.44 0 0
27.48 0 0
27.52 0 0
27.56 0 0
27.6 0 0
27.64 0 0
27.68 0 0
27.72 0 0
27.76 0 0
27.8 0 0
27.84 0 0
27.88 0 0
27.92 0 0
27.96 0 0
28 0 0
28.04 0 0
28.08 0 0
28.12 0 0
28.16 0 0
28.2 0 0
28.24 0 0
28.28 0 0
28.32 0 0
28.36 0 0
28.4 0 0
28.44 0 0
28.48 0 0
28.52 0 0
28.56 0 0
28.6 0 0
28.64 0 0
28.68 0 0
28.72 0 0
28.76 0 0
28.8 0 0
28.84 0 0
28.88 0 0
28.92 0 0
28.96 0 0
29 0 0
29.04 0 0
29.08 0 0
29.12 0 0
29.16 0 0
29.2 0 0
29.24 0 0
29.28 0 0
29.32 0 0
29.36 0 0
29.4 0 0
29.44 0 0
29.48 0 0
29.52 0 0
29.56 0 0
29.6 0 0
29.64 0 0
29.68 0 0
29.72 0 0
29.76 0 0
29.8 0 0
29.84 0 0
29.88 0 0
29.92 0 0
29.96 0 0
30 0 0
30.04 0 0
30.08 0 0
30.12 0 0
30.16 0 0
30.2 0 0
30.24 0 0
30.28 0 0
30.32 0 0
30.36 0 0
30.4 0 0
30.44 0 0
30.48 0 0
30.52 0 0
30.56 0 0
30.6 0 0
30.64 0 0
30.68 0 0
30.72 0 0
30.76 0 0
30.8 0 0
30.84 0 0
30.88 0 0
30.92 0 0
30.96 0 0
31 0 0
31.04 0 0
31.08 0 0
31.12 0 0
31.16 0 0
31.2 0 0
31.24 0 0
31.28 0 0
31.32 0 0
31.36 0 0
31.4 0 0
31.44 0 0
31.48 0 0
31.52 0 0
31.56 0 0
31.6 0 0
31.64 0 0
31.68 0 0
31.72 0 0
31.76 0 0
31.8 0 0
31.84 0 0
31.88 0 0
31.92 0 0
31.96 0 0
0 0.005 0
0.04 0.005 0
0.08 0.005 0
0.12 0.005 0
0.16 0.005 0
0.2 0.005 0
0.24 0.005 0
0.28 0.005 0
0.32 0.005 0
0.36 0.005 0
0.4 0.005 0
0.44 0.005 0
0.48 0.005 0
0.52 0.005 0
0.56 0.005 0
0.6 0.005 0
0.64 0.005 0
0.68 0.005 0
0.72 0.005 0
0.76 0.005 0
0.8 0.005 0
0.84 0.005 0
0.88 0.005 0
0.92 0.005 0
0.96 0.005 0
1 0.005 0
1.04 0.005 0
1.08 0.005 0
1.12 0.005 0
1.16 0.005 0
1.2 0.005 0
1.24 0.005 0
1.28 0.005 0
1.32 0.005 0
1.36 0.005 0
1.4 0.005 0
1.44 0.005 0
1.48 0.005 0
1.52 0.005 0
1.56 0.005 0
1.6 0.005 0
1.64 0.005 0
1.68 0.005 0
1.72 0.005 0
1.76 0.005 0
1.8 0.005 0
1.84 0.005 0
1.88 0.005 0
1.92 0.005 0
1.96 0.005 0
2 0.005 0
2.04 0.005 0
2.08 0.005 0
2.12 0.005 0
2.16 0.005 0
2.2 0.005 0
2.24 0.005 0
2.28 0.005 0
2.32 0.005 0
2.36 0.005 0
2.4 0.005 0
2.44 0.005 0
2.48 0.005 0
2.52 0.005 0
2.56 0.005 0
2.6 0.005 0
2.64 0.005 0
2.68 0.005 0
2.72 0.005 0
2.76 0.005 0
2.8 0.005 0
2.84 0.005 0
2.88 0.005 0
2.92 0.005 0
2.96 0.005 0
3 0.005 0
3.04 0.005 0
3.08 0.005 0
3.12 0.005 0
3.16 0.005 0
3.2 0.005 0
3.24 0.005 0
3.28 0.005 0
3.32 0.005 0
3.36 0.005 0
3.4 0.005 0
3.44 0.005 0
3.48 0.005 0
3.52 0.005 0
3.56 0.005 0
3.6 0.005 0
3.64 0.005 0
3.68 0.005 0
3.72 0.005 0
3.76 0.005 0
3.8 0.005 0
3.84 0.005 0
3.88 0.005 0
3.92 0.005 0
3.96 0.005 0
4 0.005 0
4.04 0.005 0
4.08 0.005 0
4.12 0.005 0
4.16 0.005 0
4.2 0.005 0
4.24 0.005 0
4.28 0.005 0
4.32 0.005 0
4.36 0.005 0
4.4 0.005 0
4.44 0.005 0
4.48 0.005 0
4.52 0.005 0
4.56 0.005 0
4.6 0.005 0
4.64 0.005 0
4.68 0.005 0
4.72 0.005 0
4.76 0.005 0
4.8 0.005 0
4.84 0.005 0
4.88 0.005 0
4.92 0.005 0
4.96 0.005 0
5 0.005 0
5.04 0.005 0
5.08 0.005 0
5.12 0.005 0
5.16 0.005 0
5.2 0.005 0
5.24 0.005 0
5.28 0.005 0
5.32 0.005 0
5.36 0.005 0
5.4 0.005 0
5.44 0.005 0
5.48 0.005 0
5.52 0.005 0
5.56 0.005 0
5.6 0.005 0
5.64 0.005 0
5.68 0.005 0
5.72 0.005 0
5.76 0.005 0
5.8 0.005 0
5.84 0.005 0
5.88 0.005 0
5.92 0.005 0
5.96 0.005 0
6 0.005 0
6.04 0.005 0
6.08 0.005 0
6.12 0.005 0
6.16 0.005 0
6.2 0.005 0
6.24 0.005 0
6.28 0.005 0
6.32 0.005 0
6.36 0.005 0
6.4 0.005 0
6.44 0.005 0
6.48 0.005 0
6.52 0.005 0
6.56 0.005 0
6.6 0.005 0
6.64 0.005 0
6.68 0.005 0
6.72 0.005 0
6.76 0.005 0
6.8 0.005 0
6.84 0.005 0
6.88 0.005 0
6.92 0.005 0
6.96 0.005 0
7 0.005 0
7.04 0.005 0
7.08 0.005 0
7.12 0.005 0
7.16 0.005 0
7.2 0.005 0
7.24 0.005 0
7.28 0.005 0
7.32 0.005 0
7.36 0.005 0
7.4 0.005 0
[...]
POINT_DATA 160000

SCALARS u float 1
LOOKUP_TABLE default
-1
-0.483358
-0.183963
-0.108845
-0.0810331
-0.0668338
-0.0581182
-0.0521528
-0.0477776
-0.0444147
-0.0417414
-0.0395616
-0.0377484
-0.0362154
-0.0349017
-0.0337626
-0.0327649
-0.0318832
-0.0310976
-0.0303925
-0.0297555
-0.0291766
-0.0286474
-0.0281614
-0.0277128
-0.027297
-0.0269102
-0.026549
-0.0262107
-0.0258927
-0.0255932
-0.0253103
-0.0250424
-0.0247883
-0.0245468
-0.0243168
-0.0240974
-0.0238878
-0.0236872
-0.0234952
-0.0233109
-0.0231341
-0.022964
-0.0228004
-0.0226429
-0.022491
-0.0223445
-0.022203
-0.0220663
-0.0219341
-0.0218062
-0.0216824
-0.0215624
-0.021446
-0.0213332
-0.0212237
-0.0211174
-0.0210141
-0.0209137
-0.020816
-0.020721
-0.0206285
-0.0205385
-0.0204508
-0.0203653
-0.020282
-0.0202007
-0.0201214
-0.020044
-0.0199684
-0.0198947
-0.0198226
-0.0197521
-0.0196833
-0.0196159
-0.0195501
-0.0194856
-0.0194226
-0.0193608
-0.0193004
-0.0192412
-0.0191832
-0.0191264
-0.0190707
-0.0190161
-0.0189626
-0.0189101
-0.0188586
-0.018808
-0.0187584
-0.0187098
-0.018662
-0.0186151
-0.018569
-0.0185237
-0.0184793
-0.0184356
-0.0183926
-0.0183504
-0.0183089
-0.0182681
-0.018228
-0.0181886
-0.0181497
-0.0181116
-0.018074
-0.018037
-0.0180006
-0.0179648
-0.0179295
-0.0178948
-0.0178606
-0.017827
-0.0177938
-0.0177611
-0.017729
-0.0176973
-0.017666
-0.0176352
-0.0176049
-0.017575
-0.0175455
-0.0175164
-0.0174877
-0.0174595
-0.0174316
-0.0174041
-0.017377
-0.0173502
-0.0173238
-0.0172978
-0.0172721
-0.0172468
-0.0172218
-0.0171971
-0.0171727
-0.0171487
-0.0171249
-0.0171015
-0.0170784
-0.0170555
-0.017033
-0.0170107
-0.0169887
-0.016967
-0.0169455
-0.0169244
-0.0169034
-0.0168828
-0.0168623
-0.0168422
-0.0168222
-0.0168025
-0.0167831
-0.0167639
-0.0167449
-0.0167261
-0.0167075
-0.0166892
-0.0166711
-0.0166531
-0.0166354
-0.0166179
-0.0166006
-0.0165835
-0.0165666
-0.0165499
-0.0165334
-0.016517
-0.0165009
-0.0164849
-0.0164691
-0.0164535
-0.016438
-0.0164227
-0.0164076
-0.0163927
-0.0163779
-0.0163633
-0.0163488
-0.0163345
-0.0163204
-0.0163064
-0.0162925
-0.0162788
-0.0162653
-0.0162519
-0.0162386
-0.0162255
-0.0162125
-0.0161997
-0.016187
-0.0161744
-0.016162
-0.0161497
-0.0161375
-0.0161254
-0.0161135
-0.0161017
-0.01609
-0.0160785
-0.016067
-0.0160557
-0.0160445
-0.0160335
-0.0160225
-0.0160116
-0.0160009
-0.0159902
-0.0159797
-0.0159693
-0.015959
-0.0159488
-0.0159387
-0.0159287
-0.0159188
-0.015909
-0.0158993
-0.0158897
-0.0158802
-0.0158708
-0.0158615
-0.0158523
-0.0158431
-0.0158341
-0.0158252
-0.0158163
-0.0158075
-0.0157989
-0.0157903
-0.0157818
-0.0157733
-0.015765
-0.0157567
-0.0157486
-0.0157405
-0.0157325
-0.0157245
-0.0157167
-0.0157089
-0.0157012
-0.0156936
-0.015686
-0.0156786
-0.0156712
-0.0156638
-0.0156566
-0.0156494
-0.0156423
-0.0156352
-0.0156282
-0.0156213
-0.0156145
-0.0156077
-0.015601
-0.0155944
-0.0155878
-0.0155813
-0.0155748
-0.0155684
-0.0155621
-0.0155558
-0.0155496
-0.0155435
-0.0155374
-0.0155314
-0.0155254
-0.0155195
-0.0155136
-0.0155078
-0.0155021
-0.0154964
-0.0154908
-0.0154852
-0.0154797
-0.0154742
-0.0154688
-0.0154634
-0.0154581
-0.0154528
-0.0154476
-0.0154424
-0.0154373
-0.0154323
-0.0154272
-0.0154223
-0.0154173
-0.0154125
-0.0154076
-0.0154028
-0.0153981
-0.0153934
-0.0153888
-0.0153841
-0.0153796
-0.0153751
-0.0153706
-0.0153661
-0.0153618
-0.0153574
-0.0153531
-0.0153488
-0.0153446
-0.0153404
-0.0153362
-0.0153321
-0.015328
-0.015324
-0.01532
-0.015316
-0.0153121
-0.0153082
-0.0153044
-0.0153006
-0.0152968
-0.015293
-0.0152893
-0.0152856
-0.015282
-0.0152784
-0.0152748
-0.0152713
-0.0152678
-0.0152643
-0.0152608
-0.0152574
-0.015254
-0.0152507
-0.0152474
-0.0152441
-0.0152408
-0.0152376
-0.0152344
-0.0152312
-0.0152281
-0.015225
-0.0152219
-0.0152188
-0.0152158
-0.0152128
-0.0152098
-0.0152069
-0.0152039
-0.015201
-0.0151982
-0.0151953
-0.0151925
-0.0151897
-0.015187
-0.0151842
-0.0151815
-0.0151788
-0.0151761
-0.0151735
-0.0151709
-0.0151683
-0.0151657
-0.0151631
-0.0151606
-0.0151581
-0.0151556
-0.0151532
-0.0151507
-0.0151483
-0.0151459
-0.0151435
-0.0151412
-0.0151388
-0.0151365
-0.0151342
-0.015132
-0.0151297
-0.0151275
-0.0151252
-0.0151231
-0.0151209
-0.0151187
-0.0151166
-0.0151145
-0.0151124
-0.0151103
-0.0151082
-0.0151062
-0.0151041
-0.0151021
-0.0151001
-0.0150981
-0.0150962
-0.0150942
-0.0150923
-0.0150904
-0.0150885
-0.0150866
-0.0150848
-0.0150829
-0.0150811
-0.0150793
-0.0150775
-0.0150757
-0.0150739
-0.0150721
-0.0150704
-0.0150687
-0.015067
-0.0150653
-0.0150636
-0.0150619
-0.0150602
-0.0150586
-0.015057
-0.0150553
-0.0150537
-0.0150522
-0.0150506
-0.015049
-0.0150475
-0.0150459
-0.0150444
-0.0150429
-0.0150414
-0.0150399
-0.0150384
-0.0150369
-0.0150355
-0.015034
-0.0150326
-0.0150312
-0.0150298
-0.0150284
-0.015027
-0.0150256
-0.0150243
-0.0150229
-0.0150216
-0.0150202
-0.0150189
-0.0150176
-0.0150163
-0.015015
-0.0150137
-0.0150124
-0.0150112
-0.0150099
-0.0150087
-0.0150075
-0.0150062
-0.015005
-0.0150038
-0.0150026
-0.0150014
-0.0150002
-0.0149991
-0.0149979
-0.0149968
-0.0149956
-0.0149945
-0.0149934
-0.0149922
-0.0149911
-0.01499
-0.0149889
-0.0149878
-0.0149868
-0.0149857
-0.0149846
-0.0149836
-0.0149825
-0.0149815
-0.0149805
-0.0149794
-0.0149784
-0.0149774
-0.0149764
-0.0149754
-0.0149744
-0.0149734
-0.0149724
-0.0149715
-0.0149705
-0.0149696
-0.0149686
-0.0149677
-0.0149667
-0.0149658
-0.0149649
-0.014964
-0.014963
-0.0149621
-0.0149612
-0.0149604
-0.0149595
-0.0149586
-0.0149577
-0.0149568
-0.014956
-0.0149551
-0.0149543
-0.0149534
-0.0149526
-0.0149517
-0.0149509
-0.0149501
-0.0149493
-0.0149484
-0.0149476
-0.0149468
-0.014946
-0.0149452
-0.0149444
-0.0149437
-0.0149429
-0.0149421
-0.0149413
-0.0149406
-0.0149398
-0.014939
-0.0149383
-0.0149375
-0.0149368
-0.0149361
-0.0149353
-0.0149346
-0.0149339
-0.0149331
-0.0149324
-0.0149317
-0.014931
-0.0149303
-0.0149296
-0.0149289
-0.0149282
-0.0149275
-0.0149268
-0.0149261
-0.0149255
-0.0149248
-0.0149241
-0.0149235
-0.0149228
-0.0149221
-0.0149215
-0.0149208
-0.0149202
-0.0149195
-0.0149189
-0.0149182
-0.0149176
-0.014917
-0.0149163
-0.0149157
-0.0149151
-0.0149145
-0.0149139
-0.0149133
-0.0149126
-0.014912
-0.0149114
-0.0149108
-0.0149102
-0.0149096
-0.014909
-0.0149085
-0.0149079
-0.0149073
-0.0149067
-0.0149061
-0.0149055
-0.014905
-0.0149044
-0.0149038
-0.0149033
-0.0149027
-0.0149022
-0.0149016
-0.014901
-0.0149005
-0.0148999
-0.0148994
-0.0148988
-0.0148983
-0.0148978
-0.0148972
-0.0148967
-0.0148962
-0.0148956
-0.0148951
-0.0148946
-0.014894
-0.0148935
-0.014893
-0.0148925
-0.014892
-0.0148915
-0.0148909
-0.0148904
-0.0148899
-0.0148894
-0.0148889
-0.0148884
-0.0148879
-0.0148874
-0.0148869
-0.0148864
-0.0148859
-0.0148854
-0.014885
-0.0148845
-0.014884
-0.0148835
-0.014883
-0.0148825
-0.0148821
-0.0148816
-0.0148811
-0.0148806
-0.0148802
-0.0148797
-0.0148792
-0.0148788
-0.0148783
-0.0148778
-0.0148774
-0.0148769
-0.0148765
-0.014876
-0.0148756
-0.0148751
-0.0148746
-0.0148742
-0.0148737
-0.0148733
-0.0148728
-0.0148724
-0.014872
-0.0148715
-0.0148711
-0.0148706
-0.0148702
-0.0148698
-0.0148693
-0.0148689
-0.0148685
-0.014868
-0.0148676
-0.0148672
-0.0148667
-0.0148663
-0.0148659
-0.0148655
-0.014865
-0.0148646
-0.0148642
-0.0148638
-0.0148633
-0.0148629
-0.0148625
-0.0148621
-0.0148617
-0.0148613
-0.0148609
-0.0148604
-0.01486
-0.0148596
-0.0148592
-0.0148588
-0.0148584
-0.014858
-0.0148576
-0.0148572
-0.0148568
-0.0148564
-0.014856
-0.0148556
-0.0148552
-0.0148548
-0.0148544
-0.014854
-0.0148536
-0.0148532
-0.0148528
-0.0148524
-0.014852
-0.0148516
-0.0148512
-0.0148508
-0.0148504
-0.0148501
-0.0148497
-0.0148493
-0.0148489
-0.0148485
-0.0148481
-0.0148477
-0.0148474
-0.014847
-0.0148466
-0.0148462
-0.0148458
-0.0148455
-0.0148451
-0.0148447
-0.0148443
-0.0148439
-0.0148436
-0.0148432
-0.0148428
-0.0148424
-0.0148421
-0.0148417
-0.0148413
-0.014841
-0.0148406
-0.0148402
-0.0148398
-0.0148395
-0.0148391
-0.0148387
-0.0148384
-0.014838
-0.0148376
-0.0148373
-0.0148369
-0.0148365
-0.0148362
-0.0148358
-0.0148355
-0.0148351
-0.0148347
-0.0148344
-0.014834
-0.0148336
-0.0148333
-0.0148329
-0.0148326
-0.0148322
-0.0148319
-0.0148315
-0.0148311
-0.0148308
-0.0148304
-0.0148301
-0.0148297
-0.0148294
-0.014829
-0.0148287
-0.0148283
-0.0148279
-0.0148276
-0.0148272
-0.0148269
-0.0148265
-0.0148262
-0.0148258
-0.0148255
-0.0148251
-0.0148248
-0.0148244
-0.0148241
-0.0148237
-0.0148234
-0.014823
-0.0148227
-0.0148224
-0.014822
-0.0148217
-0.0148213
-0.014821
-0.0148206
-0.0148203
-0.0148199
-0.0148196
-0.0148192
-0.0148189
-0.0148186
-0.0148182
-0.0148179
-0.0148175
-0.0148172
-0.0148168
-0.0148165
-0.0148161
-0.0148158
-0.0148154
-0.0148151
-0.0148147
-0.0148143
-0.014814
-0.0148136
-0.0148132
-0.0148128
-0.0148123
-0.0148118
-0.0148113
-0.0148108
-0.0148101
-0.0148095
-0.0148085
-0.0148081
-0.0148081
-0.0148081
1
0.483358
0.183963
0.108845
0.0810331
0.0668338
0.0581182
0.0521528
0.0477776
0.0444147
0.0417414
0.0395616
0.0377484
0.0362154
0.0349017
0.0337626
0.0327649
0.0318832
0.0310976
0.0303925
0.0297555
0.0291766
0.0286474
0.0281614
0.0277128
0.027297
0.0269102
0.026549
0.0262107
0.0258927
0.0255932
0.0253103
0.0250424
0.0247883
0.0245468
0.0243168
0.0240974
0.0238878
0.0236872
0.0234952
0.0233109
0.0231341
0.022964
0.0228004
0.0226429
0.022491
0.0223445
0.022203
0.0220663
0.0219341
0.0218062
0.0216824
0.0215624
0.021446
0.0213332
0.0212237
0.0211174
0.0210141
0.0209137
0.020816
0.020721
0.0206285
0.0205385
0.0204508
0.0203653
0.020282
0.0202007
0.0201214
0.020044
0.0199684
0.0198947
0.0198226
0.0197521
0.0196833
0.0196159
0.0195501
0.0194856
0.0194226
0.0193608
0.0193004
0.0192412
0.0191832
0.0191264
0.0190707
0.0190161
0.0189626
0.0189101
0.0188586
0.018808
0.0187584
0.0187098
0.018662
0.0186151
0.018569
0.0185237
0.0184793
0.0184356
0.0183926
0.0183504
0.0183089
0.0182681
0.018228
0.0181886
0.0181497
0.0181116
0.018074
0.018037
0.0180006
0.0179648
0.0179295
0.0178948
0.0178606
0.017827
0.0177938
0.0177611
0.017729
0.0176973
0.017666
0.0176352
0.0176049
0.017575
0.0175455
0.0175164
0.0174877
0.0174595
0.0174316
0.0174041
0.017377
0.0173502
0.0173238
0.0172978
0.0172721
0.0172468
0.0172218
0.0171971
0.0171727
0.0171487
0.0171249
0.0171015
0.0170784
0.0170555
0.017033
0.0170107
0.0169887
0.016967
0.0169455
0.0169244
0.0169034
0.0168828
0.0168623
0.0168422
0.0168222
0.0168025
0.0167831
0.0167639
0.0167449
0.0167261
0.0167075
0.0166892
0.0166711
0.0166531
0.0166354
0.0166179
0.0166006
0.0165835
0.0165666
0.0165499
0.0165334
0.016517
0.0165009
0.0164849
0.0164691
0.0164535
0.016438
0.0164227
0.0164076
0.0163927
0.0163779
0.0163633
0.0163488
0.0163345
0.0163204
0.0163064
0.0162925
0.0162788
0.0162653
0.0162519
0.0162386
0.0162255
0.0162125
0.0161997
0.016187
0.0161744
0.016162
0.0161497
0.0161375
0.0161254
0.0161135
0.0161017
0.01609
0.0160785
0.016067
0.0160557
0.0160445
0.0160335
0.0160225
0.0160116
0.0160009
0.0159902
0.0159797
0.0159693
0.015959
0.0159488
0.0159387
0.0159287
0.0159188
0.015909
0.0158993
0.0158897
0.0158802
0.0158708
0.0158615
0.0158523
0.0158431
0.0158341
0.0158252
0.0158163
0.0158075
0.0157989
0.0157903
0.0157818
0.0157733
0.015765
0.0157567
0.0157486
0.0157405
0.0157325
0.0157245
0.0157167
0.0157089
0.0157012
0.0156936
0.015686
0.0156786
0.0156712
0.0156638
0.0156566
0.0156494
0.0156423
0.0156352
0.0156282
0.0156213
0.0156145
0.0156077
0.015601
0.0155944
0.0155878
0.0155813
0.0155748
0.0155684
0.0155621
0.0155558
0.0155496
0.0155435
0.0155374
0.0155314
0.0155254
0.0155195
0.0155136
0.0155078
0.0155021
0.0154964
0.0154908
0.0154852
0.0154797
0.0154742
0.0154688
0.0154634
0.0154581
0.0154528
0.0154476
0.0154424
0.0154373
0.0154323
0.0154272
0.0154223
0.0154173
0.0154125
0.0154076
0.0154028
0.0153981
0.0153934
0.0153888
0.0153841
0.0153796
0.0153751
0.0153706
0.0153661
0.0153618
0.0153574
0.0153531
0.0153488
0.0153446
0.0153404
0.0153362
0.0153321
0.015328
0.015324
0.01532
0.015316
0.0153121
0.0153082
0.0153044
0.0153006
0.0152968
0.015293
0.0152893
0.0152856
0.015282
0.0152784
0.0152748
0.0152713
0.0152678
0.0152643
0.0152608
0.0152574
0.015254
0.0152507
0.0152474
0.0152441
0.0152408
0.0152376
0.0152344
0.0152312
0.0152281
0.015225
0.0152219
0.0152188
0.0152158
0.0152128
0.0152098
0.0152069
0.0152039
0.015201
0.0151982
0.0151953
0.0151925
0.0151897
0.015187
0.0151842
0.0151815
0.0151788
0.0151761
0.0151735
0.0151709
0.0151683
0.0151657
0.0151631
0.0151606
0.0151581
0.0151556
0.0151532
0.0151507
0.0151483
0.0151459
0.0151435
0.0151412
0.0151388
0.0151365
0.0151342
0.015132
0.0151297
0.0151275
0.0151252
0.0151231
0.0151209
0.0151187
0.0151166
0.0151145
0.0151124
0.0151103
0.0151082
0.0151062
0.0151041
0.0151021
0.0151001
0.0150981
0.0150962
0.0150942
0.0150923
0.0150904
0.0150885
0.0150866
0.0150848
0.0150829
0.0150811
0.0150793
0.0150775
0.0150757
0.0150739
0.0150721
0.0150704
0.0150687
0.015067
0.0150653
0.0150636
0.0150619
0.0150602
0.0150586
0.015057
0.0150553
0.0150537
0.0150522
0.0150506
0.015049
0.0150475
0.0150459
0.0150444
0.0150429
0.0150414
0.0150399
0.0150384
0.0150369
0.0150355
0.015034
0.0150326
0.0150312
0.0150298
0.0150284
0.015027
0.0150256
0.0150243
0.0150229
0.0150216
0.0150202
0.0150189
0.0150176
0.0150163
0.015015
0.0150137
0.0150124
0.0150112
0.0150099
0.0150087
0.0150075
0.0150062
0.015005
0.0150038
0.0150026
0.0150014
0.0150002
0.0149991
0.0149979
0.0149968
0.0149956
0.0149945
0.0149934
0.0149922
0.0149911
0.01499
0.0149889
0.0149878
0.0149868
0.0149857
0.0149846
0.0149836
0.0149825
0.0149815
0.0149805
0.0149794
0.0149784
0.0149774
0.0149764
0.0149754
0.0149744
0.0149734
0.0149724
0.0149715
0.0149705
0.0149696
0.0149686
0.0149677
0.0149667
0.0149658
0.0149649
0.014964
0.014963
0.0149621
0.0149612
0.0149604
0.0149595
0.0149586
0.0149577
0.0149568
0.014956
0.0149551
0.0149543
0.0149534
0.0149526
0.0149517
0.0149509
0.0149501
0.0149493
0.0149484
0.0149476
0.0149468
0.014946
0.0149452
0.0149444
0.0149437
0.0149429
0.0149421
0.0149413
0.0149406
0.0149398
0.014939
0.0149383
0.0149375
0.0149368
0.0149361
0.0149353
0.0149346
0.0149339
0.0149331
0.0149324
0.0149317
0.014931
0.0149303
0.0149296
0.0149289
0.0149282
0.0149275
0.0149268
0.0149261
0.0149255
0.0149248
0.0149241
0.0149235
0.0149228
0.0149221
0.0149215
0.0149208
0.0149202
0.0149195
0.0149189
0.0149182
0.0149176
0.014917
0.0149163
0.0149157
0.0149151
0.0149145
0.0149139
0.0149133
0.0149126
0.014912
0.0149114
0.0149108
0.0149102
0.0149096
0.014909
0.0149085
0.0149079
0.0149073
0.0149067
0.0149061
0.0149055
0.014905
0.0149044
0.0149038
0.0149033
0.0149027
0.0149022
0.0149016
0.014901
0.0149005
0.0148999
0.0148994
0.0148988
0.0148983
0.0148978
0.0148972
0.0148967
0.0148962
0.0148956
0.0148951
0.0148946
0.014894
0.0148935
0.014893
0.0148925
0.014892
0.0148915
0.0148909
0.0148904
0.0148899
0.0148894
0.0148889
0.0148884
0.0148879
0.0148874
0.0148869
0.0148864
0.0148859
0.0148854
0.014885
0.0148845
0.014884
0.0148835
0.014883
0.0148825
0.0148821
0.0148816
0.0148811
0.0148806
0.0148802
0.0148797
0.0148792
0.0148788
0.0148783
0.0148778
0.0148774
0.0148769
0.0148765
0.014876
0.0148756
0.0148751
0.0148746
0.0148742
0.0148737
0.0148733
0.0148728
0.0148724
0.014872
0.0148715
0.0148711
0.0148706
0.0148702
0.0148698
0.0148693
0.0148689
0.0148685
0.014868
0.0148676
0.0148672
0.0148667
0.0148663
0.0148659
0.0148655
0.014865
0.0148646
0.0148642
0.0148638
0.0148633
0.0148629
0.0148625
0.0148621
0.0148617
0.0148613
0.0148609
0.0148604
0.01486
0.0148596
0.0148592
0.0148588
0.0148584
0.014858
0.0148576
0.0148572
0.0148568
0.0148564
0.014856
0.0148556
0.0148552
0.0148548
0.0148544
0.014854
0.0148536
0.0148532
0.0148528
0.0148524
0.014852
0.0148516
0.0148512
0.0148508
0.0148504
0.0148501
0.0148497
0.0148493
0.0148489
0.0148485
0.0148481
0.0148477
0.0148474
0.014847
0.0148466
0.0148462
0.0148458
0.0148455
0.0148451
0.0148447
0.0148443
0.0148439
0.0148436
0.0148432
0.0148428
0.0148424
0.0148421
0.0148417
0.0148413
0.014841
0.0148406
0.0148402
0.0148398
0.0148395
0.0148391
0.0148387
0.0148384
0.014838
0.0148376
0.0148373
0.0148369
0.0148365
0.0148362
0.0148358
0.0148355
0.0148351
0.0148347
0.0148344
0.014834
0.0148336
0.0148333
0.0148329
0.0148326
0.0148322
0.0148319
0.0148315
0.0148311
0.0148308
0.0148304
0.0148301
0.0148297
0.0148294
0.014829
0.0148287
0.0148283
0.0148279
0.0148276
0.0148272
0.0148269
0.0148265
0.0148262
0.0148258
0.0148255
0.0148251
0.0148248
0.0148244
0.0148241
0.0148237
0.0148234
0.014823
0.0148227
0.0148224
0.014822
0.0148217
0.0148213
0.014821
0.0148206
0.0148203
0.0148199
0.0148196
0.0148192
0.0148189
0.0148186
0.0148182
0.0148179
0.0148175
0.0148172
0.0148168
0.0148165
0.0148161
0.0148158
0.0148154
0.0148151
0.0148147
0.0148143
0.014814
0.0148136
0.0148132
0.0148128
0.0148123
0.0148118
0.0148113
0.0148108
0.0148101
0.0148095
0.0148085
0.0148081
0.0148081
0.0148081
1
0.969192
0.495617
0.314223
0.237897
0.197396
0.172134
0.154697
0.141842
0.131929
0.124028
0.117574
0.112197
0.107646
0.103742
0.100355
0.097387
0.0947627
0.0924239
0.0903246
0.0884279
0.086704
0.0851286
0.0836816
0.0823465
0.0811095
0.0799588
0.0788846
0.0778787
0.0769337
0.0760437
0.0752033
0.0744078
0.0736534
0.0729364
0.0722538
0.0716029
0.0709812
0.0703865
0.069817
0.0692709
0.0687466
0.0682427
0.067758
0.0672912
0.0668412
0.0664072
0.0659882
0.0655834
0.065192
0.0648133
0.0644466
0.0640914
0.0637471
0.0634132
0.0630891
0.0627744
0.0624687
0.0621715
0.0618826
0.0616015
0.061328
0.0610616
0.0608021
0.0605492
0.0603027
0.0600623
0.0598278
0.0595989
0.0593755
0.0591572
0.0589441
0.0587357
0.0585321
0.058333
0.0581383
0.0579477
0.0577613
0.0575788
0.0574001
0.0572251
0.0570536
0.0568857
0.056721
0.0565596
0.0564014
0.0562462
0.056094
0.0559446
0.055798
0.0556542
0.055513
0.0553743
0.0552381
0.0551044
0.054973
0.0548439
0.054717
0.0545923
0.0544696
0.0543491
0.0542306
0.054114
0.0539993
0.0538865
0.0537755
0.0536663
0.0535588
0.0534529
0.0533488
0.0532462
0.0531452
0.0530457
0.0529478
0.0528513
0.0527562
0.0526625
0.0525703
0.0524793
0.0523897
0.0523013
0.0522142
0.0521283
0.0520437
0.0519602
0.0518779
0.0517967
0.0517166
0.0516376
0.0515597
0.0514828
0.051407
0.0513321
0.0512583
0.0511854
0.0511135
0.0510424
0.0509724
0.0509032
0.0508349
0.0507674
0.0507008
0.0506351
0.0505702
0.0505061
0.0504427
0.0503802
0.0503184
0.0502574
0.0501971
0.0501375
0.0500787
0.0500206
0.0499631
0.0499064
0.0498503
0.0497949
0.0497401
0.049686
0.0496325
0.0495796
0.0495274
0.0494757
0.0494246
0.0493741
0.0493242
0.0492749
0.0492261
0.0491779
0.0491302
0.049083
0.0490364
0.0489903
0.0489447
0.0488996
0.048855
0.0488109
0.0487673
0.0487242
0.0486815
0.0486393
0.0485976
0.0485563
0.0485154
0.048475
0.048435
0.0483955
0.0483564
0.0483177
0.0482794
0.0482415
0.048204
0.0481669
0.0481302
0.0480939
0.048058
0.0480225
0.0479873
0.0479525
0.047918
0.047884
0.0478502
0.0478168
0.0477838
0.0477511
0.0477188
0.0476867
0.047655
0.0476237
0.0475926
0.0475619
0.0475315
0.0475014
0.0474716
0.0474421
0.0474129
0.047384
0.0473554
0.0473271
0.0472991
0.0472713
0.0472439
0.0472167
0.0471898
0.0471631
0.0471367
0.0471106
0.0470848
0.0470592
0.0470338
0.0470087
0.0469839
0.0469593
0.046935
0.0469109
0.046887
0.0468634
0.04684
0.0468168
0.0467939
0.0467712
0.0467487
0.0467264
0.0467044
0.0466826
0.046661
0.0466396
0.0466184
0.0465974
0.0465766
0.046556
0.0465357
0.0465155
0.0464955
0.0464757
0.0464561
0.0464367
0.0464175
0.0463985
0.0463797
0.046361
0.0463425
0.0463242
0.0463061
0.0462882
0.0462704
0.0462528
0.0462353
0.0462181
0.046201
0.046184
0.0461673
0.0461507
0.0461342
0.0461179
0.0461018
0.0460858
0.04607
0.0460543
0.0460388
0.0460234
0.0460082
0.0459931
0.0459781
0.0459633
0.0459487
0.0459341
0.0459197
0.0459055
0.0458914
0.0458774
0.0458636
0.0458498
0.0458363
0.0458228
0.0458095
0.0457963
0.0457832
0.0457702
0.0457574
0.0457447
0.0457321
0.0457196
0.0457072
0.045695
0.0456828
0.0456708
0.0456589
0.0456471
0.0456354
0.0456239
0.0456124
0.045601
0.0455898
0.0455786
0.0455676
0.0455566
0.0455458
0.0455351
0.0455244
0.0455139
0.0455034
0.0454931
0.0454828
0.0454726
0.0454626
0.0454526
0.0454427
0.0454329
0.0454232
0.0454136
0.0454041
0.0453946
0.0453853
0.045376
0.0453668
0.0453577
0.0453487
0.0453398
0.0453309
0.0453221