# vtk DataFile Version 2.0
FlowField
ASCII
DATASET STRUCTURED_GRID
DIMENSIONS 800 1 200
POINTS 160000 float
0 0 0
0.04 0 0
0.08 0 0
0.12 0 0
0.16 0 0
0.2 0 0
0.24 0 0
0.28 0 0
0.32 0 0
0.36 0 0
0.4 0 0
0.44 0 0
0.48 0 0
0.52 0 0
0.56 0 0
0.6 0 0
0.64 0 0
0.68 0 0
0.72 0 0
0.76 0 0
0.8 0 0
0.84 0 0
0.88 0 0
0.92 0 0
0.96 0 0
1 0 0
1.04 0 0
1.08 0 0
1.12 0 0
1.16 0 0
1.2 0 0
1.24 0 0
1.28 0 0
1.32 0 0
1.36 0 0
1.4 0 0
1.44 0 0
1.48 0 0
1.52 0 0
1.56 0 0
1.6 0 0
1.64 0 0
1.68 0 0
1.72 0 0
1.76 0 0
1.8 0 0
1.84 0 0
1.88 0 0
1.92 0 0
1.96 0 0
2 0 0
2.04 0 0
2.08 0 0
2.12 0 0
2.16 0 0
2.2 0 0
2.24 0 0
2.28 0 0
2.32 0 0
2.36 0 0
2.4 0 0
2.44 0 0
2.48 0 0
2.52 0 0
2.56 0 0
2.6 0 0
2.64 0 0
2.68 0 0
2.72 0 0
2.76 0 0
2.8 0 0
2.84 0 0
2.88 0 0
2.92 0 0
2.96 0 0
3 0 0
3.04 0 0
3.08 0 0
3.12 0 0
3.16 0 0
3.2 0 0
3.24 0 0
3.28 0 0
3.32 0 0
3.36 0 0
3.4 0 0
3.44 0 0
3.48 0 0
3.52 0 0
3.56 0 0
3.6 0 0
3.64 0 0
3.68 0 0
3.72 0 0
3.76 0 0
3.8 0 0
3.84 0 0
3.88 0 0
3.92 0 0
3.96 0 0
4 0 0
4.04 0 0
4.08 0 0
4.12 0 0
4.16 0 0
4.2 0 0
4.24 0 0
4.28 0 0
4.32 0 0
4.36 0 0
4.4 0 0
4.44 0 0
4.48 0 0
4.52 0 0
4.56 0 0
4.6 0 0
4.64 0 0
4.68 0 0
4.72 0 0
4.76 0 0
4.8 0 0
4.84 0 0
4.88 0 0
4.92 0 0
4.96 0 0
5 0 0
5.04 0 0
5.08 0 0
5.12 0 0
5.16 0 0
5.2 0 0
5.24 0 0
5.28 0 0
5.32 0 0
5.36 0 0
5.4 0 0
5.44 0 0
5.48 0 0
5.52 0 0
5.56 0 0
5.6 0 0
5.64 0 0
5.68 0 0
5.72 0 0
5.76 0 0
5.8 0 0
5.84 0 0
5.88 0 0
5.92 0 0
5.96 0 0
6 0 0
6.04 0 0
6.08 0 0
6.12 0 0
6.16 0 0
6.2 0 0
6.24 0 0
6.28 0 0
6.32 0 0
6.36 0 0
6.4 0 0
6.44 0 0
6.48 0 0
6.52 0 0
6.56 0 0
6.6 0 0
6.64 0 0
6.68 0 0
6.72 0 0
6.76 0 0
6.8 0 0
6.84 0 0
6.88 0 0
6.92 0 0
6.96 0 0
7 0 0
7.04 0 0
7.08 0 0
7.12 0 0
7.16 0 0
7.2 0 0
7.24 0 0
7.28 0 0
7.32 0 0
7.36 0 0
7.4 0 0
7.44 0 0
7.48 0 0
7.52 0 0
7.56 0 0
7.6 0 0
7.64 0 0
7.68 0 0
7.72 0 0
7.76 0 0
7.8 0 0
7.84 0 0
7.88 0 0
7.92 0 0
7.96 0 0
8 0 0
8.04 0 0
8.08 0 0
8.12 0 0
8.16 0 0
8.2 0 0
8.24 0 0
8.28 0 0
8.32 0 0
8.36 0 0
8.4 0 0
8.44 0 0
8.48 0 0
8.52 0 0
8.56 0 0
8.6 0 0
8.64 0 0
8.68 0 0
8.72 0 0
8.76 0 0
8.8 0 0
8.84 0 0
8.88 0 0
8.92 0 0
8.96 0 0
9 0 0
9.04 0 0
9.08 0 0
9.12 0 0
9.16 0 0
9.2 0 0
9.24 0 0
9.28 0 0
9.32 0 0
9.36 0 0
9.4 0 0
9.44 0 0
9.48 0 0
9.52 0 0
9.56 0 0
9.6 0 0
9.64 0 0
9.68 0 0
9.72 0 0
9.76 0 0
9.8 0 0
9.84 0 0
9.88 0 0
9.92 0 0
9.96 0 0
10 0 0
10.04 0 0
10.08 0 0
10.12 0 0
10.16 0 0
10.2 0 0
10.24 0 0
10.28 0 0
10.32 0 0
10.36 0 0
10.4 0 0
10.44 0 0
10.48 0 0
10.52 0 0
10.56 0 0
10.6 0 0
10.64 0 0
10.68 0 0
10.72 0 0
10.76 0 0
10.8 0 0
10.84 0 0
10.88 0 0
10.92 0 0
10.96 0 0
11 0 0
11.04 0 0
11.08 0 0
11.12 0 0
11.16 0 0
11.2 0 0
11.24 0 0
11.28 0 0
11.32 0 0
11.36 0 0
11.4 0 0
11.44 0 0
11.48 0 0
11.52 0 0
11.56 0 0
11.6 0 0
11.64 0 0
11.68 0 0
11.72 0 0
11.76 0 0
11.8 0 0
11.84 0 0
11.88 0 0
11.92 0 0
11.96 0 0
12 0 0
12.04 0 0
12.08 0 0
12.12 0 0
12.16 0 0
12.2 0 0
12.24 0 0
12.28 0 0
12.32 0 0
12.36 0 0
12.4 0 0
12.44 0 0
12.48 0 0
12.52 0 0
12.56 0 0
12.6 0 0
12.64 0 0
12.68 0 0
12.72 0 0
12.76 0 0
12.8 0 0
12.84 0 0
12.88 0 0
12.92 0 0
12.96 0 0
13 0 0
13.04 0 0
13.08 0 0
13.12 0 0
13.16 0 0
13.2 0 0
13.24 0 0
13.28 0 0
13.32 0 0
13.36 0 0
13.4 0 0
13.44 0 0
13.48 0 0
13.52 0 0
13.56 0 0
13.6 0 0
13.64 0 0
13.68 0 0
13.72 0 0
13.76 0 0
13.8 0 0
13.84 0 0
13.88 0 0
13.92 0 0
13.96 0 0
14 0 0
14.04 0 0
14.08 0 0
14.12 0 0
14.16 0 0
14.2 0 0
14.24 0 0
14.28 0 0
14.32 0 0
14.36 0 0
14.4 0 0
14.44 0 0
14.48 0 0
14.52 0 0
14.56 0 0
14.6 0 0
14.64 0 0
14.68 0 0
14.72 0 0
14.76 0 0
14.8 0 0
14.84 0 0
14.88 0 0
14.92 0 0
14.96 0 0
15 0 0
15.04 0 0
15.08 0 0
15.12 0 0
15.16 0 0
15.2 0 0
15.24 0 0
15.28 0 0
15.32 0 0
15.36 0 0
15.4 0 0
15.44 0 0
15.48 0 0
15.52 0 0
15.56 0 0
15.6 0 0
15.64 0 0
15.68 0 0
15.72 0 0
15.76 0 0
15.8 0 0
15.84 0 0
15.88 0 0
15.92 0 0
15.96 0 0
16 0 0
16.04 0 0
16.08 0 0
16.12 0 0
16.16 0 0
16.2 0 0
16.24 0 0
16.28 0 0
16.32 0 0
16.36 0 0
16.4 0 0
16.44 0 0
16.48 0 0
16.52 0 0
16.56 0 0
16.6 0 0
16.64 0 0
16.68 0 0
16.72 0 0
16.76 0 0
16.8 0 0
16.84 0 0
16.88 0 0
16.92 0 0
16.96 0 0
17 0 0
17.04 0 0
17.08 0 0
17.12 0 0
17.16 0 0
17.2 0 0
17.24 0 0
17.28 0 0
17.32 0 0
17.36 0 0
17.4 0 0
17.44 0 0
17.48 0 0
17.52 0 0
17.56 0 0
17.6 0 0
17.64 0 0
17.68 0 0
17.72 0 0
17.76 0 0
17.8 0 0
17.84 0 0
17.88 0 0
17.92 0 0
17.96 0 0
18 0 0
18.04 0 0
18.08 0 0
18.12 0 0
18.16 0 0
18.2 0 0
18.24 0 0
18.28 0 0
18.32 0 0
18.36 0 0
18.4 0 0
18.44 0 0
18.48 0 0
18.52 0 0
18.56 0 0
18.6 0 0
18.64 0 0
18.68 0 0
18.72 0 0
18.76 0 0
18.8 0 0
18.84 0 0
18.88 0 0
18.92 0 0
18.96 0 0
19 0 0
19.04 0 0
19.08 0 0
19.12 0 0
19.16 0 0
19.2 0 0
19.24 0 0
19.28 0 0
19.32 0 0
19.36 0 0
19.4 0 0
19.44 0 0
19.48 0 0
19.52 0 0
19.56 0 0
19.6 0 0
19.64 0 0
19.68 0 0
19.72 0 0
19.76 0 0
19.8 0 0
19.84 0 0
19.88 0 0
19.92 0 0
19.96 0 0
20 0 0
20.04 0 0
20.08 0 0
20.12 0 0
20.16 0 0
20.2 0 0
20.24 0 0
20.28 0 0
20.32 0 0
20.36 0 0
20.4 0 0
20.44 0 0
20.48 0 0
20.52 0 0
20.56 0 0
20.6 0 0
20.64 0 0
20.68 0 0
20.72 0 0
20.76 0 0
20.8 0 0
20.84 0 0
20.88 0 0
20.92 0 0
20.96 0 0
21 0 0
21.04 0 0
21.08 0 0
21.12 0 0
21.16 0 0
21.2 0 0
21.24 0 0
21.28 0 0
21.32 0 0
21.36 0 0
21.4 0 0
21.44 0 0
21.48 0 0
21.52 0 0
21.56 0 0
21.6 0 0
21.64 0 0
21.68 0 0
21.72 0 0
21.76 0 0
21.8 0 0
21.84 0 0
21.88 0 0
21.92 0 0
21.96 0 0
22 0 0
22.04 0 0
22.08 0 0
22.12 0 0
22.16 0 0
22.2 0 0
22.24 0 0
22.28 0 0
22.32 0 0
22.36 0 0
22.4 0 0
22.44 0 0
22.48 0 0
22.52 0 0
22.56 0 0
22.6 0 0
22.64 0 0
22.68 0 0
22.72 0 0
22.76 0 0
22.8 0 0
22.84 0 0
22.88 0 0
22.92 0 0
22.96 0 0
23 0 0
23.04 0 0
23.08 0 0
23.12 0 0
23.16 0 0
23.2 0 0
23.24 0 0
23.28 0 0
23.32 0 0
23.36 0 0
23.4 0 0
23.44 0 0
23.48 0 0
23.52 0 0
23.56 0 0
23.6 0 0
23.64 0 0
23.68 0 0
23.72 0 0
23.76 0 0
23.8 0 0
23.84 0 0
23.88 0 0
23.92 0 0
23.96 0 0
24 0 0
24.04 0 0
24.08 0 0
24.12 0 0
24.16 0 0
24.2 0 0
24.24 0 0
24.28 0 0
24.32 0 0
24.36 0 0
24.4 0 0
24.44 0 0
24.48 0 0
24.52 0 0
24.56 0 0
24.6 0 0
24.64 0 0
24.68 0 0
24.72 0 0
24.76 0 0
24.8 0 0
24.84 0 0
24.88 0 0
24.92 0 0
24.96 0 0
25 0 0
25.04 0 0
25.08 0 0
25.12 0 0
25.16 0 0
25.2 0 0
25.24 0 0
25.28 0 0
25.32 0 0
25.36 0 0
25.4 0 0
25.44 0 0
25.48 0 0
25.52 0 0
25.56 0 0
25.6 0 0
25.64 0 0
25.68 0 0
25.72 0 0
25.76 0 0
25.8 0 0
25.84 0 0
25.88 0 0
25.92 0 0
25.96 0 0
26 0 0
26.04 0 0
26.08 0 0
26.12 0 0
26.16 0 0
26.2 0 0
26.24 0 0
26.28 0 0
26.32 0 0
26.36 0 0
26.4 0 0
26.44 0 0
26.48 0 0
26.52 0 0
26.56 0 0
26.6 0 0
26.64 0 0
26.68 0 0
26.72 0 0
26.76 0 0
26.8 0 0
26.84 0 0
26.88 0 0
26.92 0 0
26.96 0 0
27 0 0
27.04 0 0
27.08 0 0
27.12 0 0
27.16 0 0
27.2 0 0
27.24 0 0
27.28 0 0
27.32 0 0
27.36 0 0
27.4 0 0
27.44 0 0
27.48 0 0
27.52 0 0
27.56 0 0
27.6 0 0
27.64 0 0
27.68 0 0
27.72 0 0
27.76 0 0
27.8 0 0
27.84 0 0
27.88 0 0
27.92 0 0
27.96 0 0
28 0 0
28.04 0 0
28.08 0 0
28.12 0 0
28.16 0 0
28.2 0 0
28.24 0 0
28.28 0 0
28.32 0 0
28.36 0 0
28.4 0 0
28.44 0 0
28.48 0 0
28.52 0 0
28.56 0 0
28.6 0 0
28.64 0 0
28.68 0 0
28.72 0 0
28.76 0 0
28.8 0 0
28.84 0 0
28.88 0 0
28.92 0 0
28.96 0 0
29 0 0
29.04 0 0
29.08 0 0
29.12 0 0
29.16 0 0
29.2 0 0
29.24 0 0
29.28 0 0
29.32 0 0
29.36 0 0
29.4 0 0
29.44 0 0
29.48 0 0
29.52 0 0
29.56 0 0
29.6 0 0
29.64 0 0
29.68 0 0
29.72 0 0
29.76 0 0
29.8 0 0
29.84 0 0
29.88 0 0
29.92 0 0
29.96 0 0
30 0 0
30.04 0 0
30.08 0 0
30.12 0 0
30.16 0 0
30.2 0 0
30.24 0 0
30.28 0 0
30.32 0 0
30.36 0 0
30.4 0 0
30.44 0 0
30.48 0 0
30.52 0 0
30.56 0 0
30.6 0 0
30.64 0 0
30.68 0 0
30.72 0 0
30.76 0 0
30.8 0 0
30.84 0 0
30.88 0 0
30.92 0 0
30.96 0 0
31 0 0
31.04 0 0
31.08 0 0
31.12 0 0
31.16 0 0
31.2 0 0
31.24 0 0
31.28 0 0
31.32 0 0
31.36 0 0
31.4 0 0
31.44 0 0
31.48 0 0
31.52 0 0
31.56 0 0
31.6 0 0
31.64 0 0
31.68 0 0
31.72 0 0
31.76 0 0
31.8 0 0
31.84 0 0
31.88 0 0
31.92 0 0
31.96 0 0
0 0.005 0
0.04 0.005 0
0.08 0.005 0
0.12 0.005 0
0.16 0.005 0
0.2 0.005 0
0.24 0.005 0
0.28 0.005 0
0.32 0.005 0
0.36 0.005 0
0.4 0.005 0
0.44 0.005 0
0.48 0.005 0
0.52 0.005 0
0.56 0.005 0
0.6 0.005 0
0.64 0.005 0
0.68 0.005 0
0.72 0.005 0
0.76 0.005 0
0.8 0.005 0
0.84 0.005 0
0.88 0.005 0
0.92 0.005 0
0.96 0.005 0
1 0.005 0
1.04 0.005 0
1.08 0.005 0
1.12 0.005 0
1.16 0.005 0
1.2 0.005 0
1.24 0.005 0
1.28 0.005 0
1.32 0.005 0
1.36 0.005 0
1.4 0.005 0
1.44 0.005 0
1.48 0.005 0
1.52 0.005 0
1.56 0.005 0
1.6 0.005 0
1.64 0.005 0
1.68 0.005 0
1.72 0.005 0
1.76 0.005 0
1.8 0.005 0
1.84 0.005 0
1.88 0.005 0
1.92 0.005 0
1.96 0.005 0
2 0.005 0
2.04 0.005 0
2.08 0.005 0
2.12 0.005 0
2.16 0.005 0
2.2 0.005 0
2.24 0.005 0
2.28 0.005 0
2.32 0.005 0
2.36 0.005 0
2.4 0.005 0
2.44 0.005 0
2.48 0.005 0
2.52 0.005 0
2.56 0.005 0
2.6 0.005 0
2.64 0.005 0
2.68 0.005 0
2.72 0.005 0
2.76 0.005 0
2.8 0.005 0
2.84 0.005 0
2.88 0.005 0
2.92 0.005 0
2.96 0.005 0
3 0.005 0
3.04 0.005 0
3.08 0.005 0
3.12 0.005 0
3.16 0.005 0
3.2 0.005 0
3.24 0.005 0
3.28 0.005 0
3.32 0.005 0
3.36 0.005 0
3.4 0.005 0
3.44 0.005 0
3.48 0.005 0
3.52 0.005 0
3.56 0.005 0
3.6 0.005 0
3.64 0.005 0
3.68 0.005 0
3.72 0.005 0
3.76 0.005 0
3.8 0.005 0
3.84 0.005 0
3.88 0.005 0
3.92 0.005 0
3.96 0.005 0
4 0.005 0
4.04 0.005 0
4.08 0.005 0
4.12 0.005 0
4.16 0.005 0
4.2 0.005 0
4.24 0.005 0
4.28 0.005 0
4.32 0.005 0
4.36 0.005 0
4.4 0.005 0
4.44 0.005 0
4.48 0.005 0
4.52 0.005 0
4.56 0.005 0
4.6 0.005 0
4.64 0.005 0
4.68 0.005 0
4.72 0.005 0
4.76 0.005 0
4.8 0.005 0
4.84 0.005 0
4.88 0.005 0
4.92 0.005 0
4.96 0.005 0
5 0.005 0
5.04 0.005 0
5.08 0.005 0
5.12 0.005 0
5.16 0.005 0
5.2 0.005 0
5.24 0.005 0
5.28 0.005 0
5.32 0.005 0
5.36 0.005 0
5.4 0.005 0
5.44 0.005 0
5.48 0.005 0
5.52 0.005 0
5.56 0.005 0
5.6 0.005 0
5.64 0.005 0
5.68 0.005 0
5.72 0.005 0
5.76 0.005 0
5.8 0.005 0
5.84 0.005 0
5.88 0.005 0
5.92 0.005 0
5.96 0.005 0
6 0.005 0
6.04 0.005 0
6.08 0.005 0
6.12 0.005 0
6.16 0.005 0
6.2 0.005 0
6.24 0.005 0
6.28 0.005 0
6.32 0.005 0
6.36 0.005 0
6.4 0.005 0
6.44 0.005 0
6.48 0.005 0
6.52 0.005 0
6.56 0.005 0
6.6 0.005 0
6.64 0.005 0
6.68 0.005 0
6.72 0.005 0
6.76 0.005 0
6.8 0.005 0
6.84 0.005 0
6.88 0.005 0
6.92 0.005 0
6.96 0.005 0
7 0.005 0
7.04 0.005 0
7.08 0.005 0
7.12 0.005 0
7.16 0.005 0
7.2 0.005 0
7.24 0.005 0
7.28 0.005 0
7.32 0.005 0
7.36 0.005 0
7.4 0.005 0
[...]
POINT_DATA 160000

SCALARS phi float 1
LOOKUP_TABLE default
1
1
1
1
1
1
1
1
1
1
1
1
1
1
1
1
1
1
1
1
1
1
1
1
1
1
1
1
1
1
1
1
1
1
1
0.999999
0.999999
0.999999
0.999999
0.999998
0.999997
0.999997
0.999995
0.999994
0.999992
0.99999
0.999988
0.999985
0.999982
0.999978
0.999973
0.999968
0.999961
0.999954
0.999946
0.999937
0.999926
0.999914
0.999901
0.999886
0.99987
0.999852
0.999832
0.99981
0.999786
0.99976
0.999731
0.9997
0.999667
0.999631
0.999592
0.99955
0.999505
0.999457
0.999405
0.99935
0.999291
0.999229
0.999163
0.999092
0.999017
0.998937
0.998853
0.998763
0.998668
0.998566
0.998458
0.998343
0.998221
0.99809
0.997951
0.997801
0.997641
0.997469
0.997285
0.997086
0.996873
0.996642
0.996394
0.996126
0.995836
0.995523
0.995185
0.99482
0.994426
0.994001
0.993542
0.993047
0.992515
0.991942
0.991326
0.990665
0.989956
0.989198
0.988387
0.987522
0.986599
0.985617
0.984574
0.983467
0.982294
0.981053
0.979742
0.97836
0.976905
0.975375
0.973768
0.972084
0.970321
0.968477
0.966553
0.964546
0.962457
0.960284
0.958027
0.955686
0.95326
0.950749
0.948154
0.945474
0.94271
0.939862
0.93693
0.933915
0.930817
0.927638
0.924377
0.921037
0.917618
0.914121
0.910547
0.906897
0.903173
0.899376
0.895507
0.891568
0.88756
0.883485
0.879345
0.87514
0.870873
0.866545
0.862157
0.857713
0.853212
0.848658
0.844051
0.839393
0.834687
0.829933
0.825134
0.820291
0.815406
0.810481
0.805517
0.800517
0.795481
0.790411
0.78531
0.780179
0.775018
0.769831
0.764618
0.759381
0.754122
0.748842
0.743543
0.738225
0.732891
0.727542
0.722179
0.716803
0.711417
0.706021
0.700616
0.695204
0.689786
0.684363
0.678936
0.673507
0.668077
0.662646
0.657216
0.651788
0.646362
0.64094
0.635523
0.630112
0.624707
0.61931
0.613921
0.608541
0.603171
0.597812
0.592464
0.587129
0.581807
0.576498
0.571203
0.565924
0.56066
0.555412
0.550182
0.544968
0.539773
0.534596
0.529438
0.5243
0.519181
0.514083
0.509006
0.50395
0.498916
0.493904
0.488914
0.483948
0.479004
0.474084
0.469188
0.464316
0.459468
0.454645
0.449847
0.445074
0.440327
0.435605
0.43091
0.42624
0.421597
0.41698
0.412389
0.407826
0.403289
0.39878
0.394298
0.389843
0.385415
0.381015
0.376643
0.372298
0.367981
0.363692
0.359431
0.355198
0.350992
0.346815
0.342666
0.338545
0.334452
0.330388
0.326351
0.322343
0.318362
0.31441
0.310486
0.30659
0.302722
0.298883
0.295071
0.291287
0.287531
0.283803
0.280103
0.27643
0.272785
0.269168
0.265579
0.262017
0.258483
0.254976
0.251496
0.248043
0.244618
0.24122
0.237849
0.234504
0.231187
0.227896
0.224632
0.221395
0.218184
0.214999
0.211841
0.208709
0.205603
0.202523
0.199469
0.196441
0.193439
0.190463
0.187512
0.184586
0.181686
0.178811
0.175962
0.173138
0.170338
0.167564
0.164814
0.16209
0.15939
0.156715
0.154064
0.151438
0.148836
0.146258
0.143705
0.141176
0.138671
0.13619
0.133734
0.131301
0.128892
0.126507
0.124145
0.121808
0.119494
0.117203
0.114936
0.112693
0.110473
0.108277
0.106104
0.103954
0.101828
0.0997244
0.0976446
0.095588
0.0935545
0.0915442
0.0895571
0.0875931
0.0856521
0.0837343
0.0818395
0.0799677
0.078119
0.0762932
0.0744905
0.0727107
0.0709539
0.06922
0.0675091
0.0658211
0.0641561
0.0625139
0.0608947
0.0592983
0.0577248
0.0561742
0.0546465
0.0531416
0.0516595
0.0502003
0.0487639
0.0473503
0.0459595
0.0445915
0.0432462
0.0419237
0.0406239
0.0393468
0.0380924
0.0368606
0.0356515
0.034465
0.033301
0.0321596
0.0310406
0.0299442
0.0288701
0.0278184
0.026789
0.0257819
0.024797
0.0238342
0.0228935
0.0219748
0.0210781
0.0202032
0.0193501
0.0185187
0.0177089
0.0169206
0.0161537
0.015408
0.0146836
0.0139802
0.0132976
0.0126359
0.0119948
0.0113742
0.0107739
0.0101938
0.00963359
0.00909323
0.00857246
0.00807109
0.00758891
0.00712568
0.00668117
0.00625515
0.00584735
0.0054575
0.00508532
0.00473051
0.00439278
0.00407179
0.00376722
0.00347872
0.00320592
0.00294845
0.00270592
0.00247792
0.00226403
0.00206381
0.00187682
0.0017026
0.00154067
0.00139054
0.00125173
0.00112372
0.00100602
0.000898089
0.000799423
0.000709499
0.000627798
0.000553806
0.000487015
0.000426925
0.000373048
0.000324909
0.000282049
0.000244025
0.000210414
0.000180813
0.000154841
0.000132138
0.000112369
9.5219e-05
8.03996e-05
6.76435e-05
5.67063e-05
4.73655e-05
3.94195e-05
3.26868e-05
2.70047e-05
2.22285e-05
1.82296e-05
1.4895e-05
1.21254e-05
9.83421e-06
7.94646e-06
6.39729e-06
5.13105e-06
4.1002e-06
3.26431e-06
2.58922e-06
2.04615e-06
1.61102e-06
1.26374e-06
9.87675e-07
7.6908e-07
5.96669e-07
4.61215e-07
3.5521e-07
2.72573e-07
2.08401e-07
1.5876e-07
1.20507e-07
9.11416e-08
6.86845e-08
5.15757e-08
3.85904e-08
2.87718e-08
2.13754e-08
1.58244e-08
1.16737e-08
8.58155e-09
6.28643e-09
4.58913e-09
3.33848e-09
2.42028e-09
1.74859e-09
1.25898e-09
9.03373e-10
6.46007e-10
4.604e-10
3.27015e-10
2.31494e-10
1.63326e-10
1.14849e-10
8.0492e-11
5.62268e-11
3.91474e-11
2.71668e-11
1.87912e-11
1.29556e-11
8.90339e-12
6.09889e-12
4.16439e-12
2.8344e-12
1.92304e-12
1.30058e-12
8.76823e-13
5.89279e-13
3.94792e-13
2.6367e-13
1.7555e-13
1.1652e-13
7.71005e-14
5.08606e-14
3.34486e-14
2.19306e-14
1.43353e-14
9.34221e-15
6.06997e-15
3.93207e-15
2.53956e-15
1.63533e-15
1.04994e-15
6.72117e-16
4.28991e-16
2.73011e-16
1.73239e-16
1.0961e-16
6.91507e-17
4.35003e-17
2.72861e-17
1.70667e-17
1.06443e-17
6.61997e-18
4.1055e-18
2.53894e-18
1.56574e-18
9.62881e-19
5.90495e-19
3.61122e-19
2.20238e-19
1.33947e-19
8.12424e-20
4.9141e-20
2.9643e-20
1.78329e-20
1.06991e-20
6.40178e-21
3.82022e-21
2.27359e-21
1.34952e-21
7.98901e-22
4.71689e-22
2.77761e-22
1.63135e-22
9.55614e-23
5.58322e-23
3.25354e-23
1.89104e-23
1.09628e-23
6.33909e-24
3.65607e-24
2.10325e-24
1.20687e-24
6.90757e-25
3.94357e-25
2.24573e-25
1.27565e-25
7.22798e-26
4.08522e-26
2.3032e-26
1.2953e-26
7.26659e-27
4.06649e-27
2.27007e-27
1.26414e-27
7.02244e-28
3.89154e-28
2.1513e-28
1.18639e-28
6.52686e-29
3.58209e-29
1.96122e-29
1.07121e-29
5.83701e-30
3.17301e-30
1.72077e-30
9.30994e-31
5.02514e-31
2.706e-31
1.45375e-31
7.79181e-32
4.16653e-32
2.22281e-32
1.18311e-32
6.28267e-33
3.32862e-33
1.75949e-33
9.27929e-34
4.88261e-34
2.56331e-34
1.34265e-34
7.01688e-35
3.65884e-35
1.90356e-35
9.88132e-36
5.1179e-36
2.64484e-36
1.36377e-36
7.01644e-37
3.60191e-37
1.84497e-37
9.42955e-38
4.80882e-38
2.44701e-38
1.24247e-38
6.29489e-39
3.18235e-39
1.60534e-39
8.0807e-40
4.05877e-40
2.03426e-40
1.01739e-40
5.0774e-41
2.52854e-41
1.25653e-41
6.23097e-42
3.08333e-42
1.52253e-42
7.50241e-43
3.68912e-43
1.81023e-43
8.86421e-44
4.33152e-44
2.11222e-44
1.02786e-44
4.99155e-45
2.41902e-45
1.1699e-45
5.64635e-46
2.71955e-46
1.30719e-46
6.27043e-47
3.00173e-47
1.43406e-47
6.83726e-48
3.25328e-48
1.54485e-48
7.32116e-49
3.46261e-49
1.6344e-49
7.69924e-50
3.6197e-50
1.69839e-50
7.95317e-51
3.71695e-51
1.73371e-51
8.07073e-52
3.74971e-52
1.73873e-52
8.04672e-53
3.71672e-53
1.71339e-53
7.88335e-54
3.62014e-54
1.65921e-54
7.58999e-55
3.46535e-55
1.57913e-55
7.18226e-56
3.26042e-56
1.47727e-56
6.68068e-57
3.01549e-57
1.35854e-57
6.10899e-58
2.74187e-58
1.22831e-58
5.49232e-59
2.45126e-59
1.09198e-59
4.85543e-60
2.15494e-60
9.54633e-61
4.22118e-61
1.86307e-61
8.20774e-62
3.60927e-62
1.58423e-62
6.94098e-63
3.0355e-63
1.3251e-63
5.77396e-64
2.51137e-64
1.09034e-64
4.72527e-65
2.04413e-65
8.82687e-66
3.80474e-66
1.63706e-66
7.03113e-67
3.01447e-67
1.29009e-67
5.51137e-68
2.35032e-68
1.00052e-68
4.25161e-69
1.8035e-69
7.63684e-70
3.2281e-70
1.36213e-70
5.73761e-71
2.41259e-71
1.01269e-71
4.24343e-72
1.77501e-72
7.41196e-73
3.08968e-73
1.28571e-73
5.34101e-74
2.21492e-74
9.16949e-75
3.78956e-75
1.56347e-75
6.43945e-76
2.64769e-76
1.0868e-76
4.4534e-77
1.82179e-77
7.43998e-78
3.03327e-78
1.23458e-78
5.01646e-79
2.03491e-79
8.24076e-80
3.33167e-80
1.34472e-80
5.4185e-81
2.17973e-81
8.754e-82
3.50986e-82
1.40493e-82
5.61442e-83
2.23995e-83
8.92188e-84
3.54783e-84
1.4085e-84
5.58265e-85
2.2091e-85
8.72733e-86
3.44224e-86
1.35549e-86
5.32901e-87
2.09168e-87
8.19673e-88
3.20691e-88
1.25266e-88
4.8852e-89
1.90211e-89
7.3942e-90
2.86982e-90
1.11205e-90
4.30231e-91
1.66184e-91
6.40893e-92
2.46771e-92
9.48673e-93
3.64127e-93
1.39541e-93
5.33912e-94
2.03964e-94
7.77955e-95
2.96261e-95
1.12646e-95
4.27636e-96
1.6209e-96
6.13417e-97
2.31787e-97
8.74223e-98
3.3031e-98
1.21161e-98
1.21161e-98
1
1
1
1
1
1
1
1
1
1
1
1
1
1
1
1
1
1
1
1
1
1
1
1
1
1
1
1
1
1
1
1
1
1
1
0.999999
0.999999
0.999999
0.999999
0.999998
0.999997
0.999997
0.999995
0.999994
0.999992
0.99999
0.999988
0.999985
0.999982
0.999978
0.999973
0.999968
0.999961
0.999954
0.999946
0.999937
0.999926
0.999914
0.999901
0.999886
0.99987
0.999852
0.999832
0.99981
0.999786
0.99976
0.999731
0.9997
0.999667
0.999631
0.999592
0.99955
0.999505
0.999457
0.999405
0.99935
0.999291
0.999229
0.999163
0.999092
0.999017
0.998937
0.998853
0.998763
0.998668
0.998566
0.998458
0.998343
0.998221
0.99809
0.997951
0.997801
0.997641
0.997469
0.997285
0.997086
0.996873
0.996642
0.996394
0.996126
0.995836
0.995523
0.995185
0.99482
0.994426
0.994001
0.993542
0.993047
0.992515
0.991942
0.991326
0.990665
0.989956
0.989198
0.988387
0.987522
0.986599
0.985617
0.984574
0.983467
0.982294
0.981053
0.979742
0.97836
0.976905
0.975375
0.973768
0.972084
0.970321
0.968477
0.966553
0.964546
0.962457
0.960284
0.958027
0.955686
0.95326
0.950749
0.948154
0.945474
0.94271
0.939862
0.93693
0.933915
0.930817
0.927638
0.924377
0.921037
0.917618
0.914121
0.910547
0.906897
0.903173
0.899376
0.895507
0.891568
0.88756
0.883485
0.879345
0.87514
0.870873
0.866545
0.862157
0.857713
0.853212
0.848658
0.844051
0.839393
0.834687
0.829933
0.825134
0.820291
0.815406
0.810481
0.805517
0.800517
0.795481
0.790411
0.78531
0.780179
0.775018
0.769831
0.764618
0.759381
0.754122
0.748842
0.743543
0.738225
0.732891
0.727542
0.722179
0.716803
0.711417
0.706021
0.700616
0.695204
0.689786
0.684363
0.678936
0.673507
0.668077
0.662646
0.657216
0.651788
0.646362
0.64094
0.635523
0.630112
0.624707
0.61931
0.613921
0.608541
0.603171
0.597812
0.592464
0.587129
0.581807
0.576498
0.571203
0.565924
0.56066
0.555412
0.550182
0.544968
0.539773
0.534596
0.529438
0.5243
0.519181
0.514083
0.509006
0.50395
0.498916
0.493904
0.488914
0.483948
0.479004
0.474084
0.469188
0.464316
0.459468
0.454645
0.449847
0.445074
0.440327
0.435605
0.43091
0.42624
0.421597
0.41698
0.412389
0.407826
0.403289
0.39878
0.394298
0.389843
0.385415
0.381015
0.376643
0.372298
0.367981
0.363692
0.359431
0.355198
0.350992
0.346815
0.342666
0.338545
0.334452
0.330388
0.326351
0.322343
0.318362
0.31441
0.310486
0.30659
0.302722
0.298883
0.295071
0.291287
0.287531
0.283803
0.280103
0.27643
0.272785
0.269168
0.265579
0.262017
0.258483
0.254976
0.251496
0.248043
0.244618
0.24122
0.237849
0.234504
0.231187
0.227896
0.224632
0.221395
0.218184
0.214999
0.211841
0.208709
0.205603
0.202523
0.199469
0.196441
0.193439
0.190463
0.187512
0.184586
0.181686
0.178811
0.175962
0.173138
0.170338
0.167564
0.164814
0.16209
0.15939
0.156715
0.154064
0.151438
0.148836
0.146258
0.143705
0.141176
0.138671
0.13619
0.133734
0.131301
0.128892
0.126507
0.124145
0.121808
0.119494
0.117203
0.114936
0.112693
0.110473
0.108277
0.106104
0.103954
0.101828
0.0997244
0.0976446
0.095588
0.0935545
0.0915442
0.0895571
0.0875931
0.0856521
0.0837343
0.0818395
0.0799677
0.078119
0.0762932
0.0744905
0.0727107
0.0709539
0.06922
0.0675091
0.0658211
0.0641561
0.0625139
0.0608947
0.0592983
0.0577248
0.0561742
0.0546465
0.0531416
0.0516595
0.0502003
0.0487639
0.0473503
0.0459595
0.0445915
0.0432462
0.0419237
0.0406239
0.0393468
0.0380924
0.0368606
0.0356515
0.034465
0.033301
0.0321596
0.0310406
0.0299442
0.0288701
0.0278184
0.026789
0.0257819
0.024797
0.0238342
0.0228935
0.0219748
0.0210781
0.0202032
0.0193501
0.0185187
0.0177089
0.0169206
0.0161537
0.015408
0.0146836
0.0139802
0.0132976
0.0126359
0.0119948
0.0113742
0.0107739
0.0101938
0.00963359
0.00909323
0.00857246
0.00807109
0.00758891
0.00712568
0.00668117
0.00625515
0.00584735
0.0054575
0.00508532
0.00473051
0.00439278
0.00407179
0.00376722
0.00347872
0.00320592
0.00294845
0.00270592
0.00247792
0.00226403
0.00206381
0.00187682
0.0017026
0.00154067
0.00139054
0.00125173
0.00112372
0.00100602
0.000898089
0.000799423
0.000709499
0.000627798
0.000553806
0.000487015
0.000426925
0.000373048
0.000324909
0.000282049
0.000244025
0.000210414
0.000180813
0.000154841
0.000132138
0.000112369
9.5219e-05
8.03996e-05
6.76435e-05
5.67063e-05
4.73655e-05
3.94195e-05
3.26868e-05
2.70047e-05
2.22285e-05
1.82296e-05
1.4895e-05
1.21254e-05
9.83421e-06
7.94646e-06
6.39729e-06
5.13105e-06
4.1002e-06
3.26431e-06
2.58922e-06
2.04615e-06
1.61102e-06
1.26374e-06
9.87675e-07
7.6908e-07
5.96669e-07
4.61215e-07
3.5521e-07
2.72573e-07
2.08401e-07
1.5876e-07
1.20507e-07
9.11416e-08
6.86845e-08
5.15757e-08
3.85904e-08
2.87718e-08
2.13754e-08
1.58244e-08
1.16737e-08
8.58155e-09
6.28643e-09
4.58913e-09
3.33848e-09
2.42028e-09
1.74859e-09
1.25898e-09
9.03373e-10
6.46007e-10
4.604e-10
3.27015e-10
2.31494e-10
1.63326e-10
1.14849e-10
8.0492e-11
5.62268e-11
3.91474e-11
2.71668e-11
1.87912e-11
1.29556e-11
8.90339e-12
6.09889e-12
4.16439e-12
2.8344e-12
1.92304e-12
1.30058e-12
8.76823e-13
5.89279e-13
3.94792e-13
2.6367e-13
1.7555e-13
1.1652e-13
7.71005e-14
5.08606e-14
3.34486e-14
2.19306e-14
1.43353e-14
9.34221e-15
6.06997e-15
3.93207e-15
2.53956e-15
1.63533e-15
1.04994e-15
6.72117e-16
4.28991e-16
2.73011e-16
1.73239e-16
1.0961e-16
6.91507e-17
4.35003e-17
2.72861e-17
1.70667e-17
1.06443e-17
6.61997e-18
4.1055e-18
2.53894e-18
1.56574e-18
9.62881e-19
5.90495e-19
3.61122e-19
2.20238e-19
1.33947e-19
8.12424e-20
4.9141e-20
2.9643e-20
1.78329e-20
1.06991e-20
6.40178e-21
3.82022e-21
2.27359e-21
1.34952e-21
7.98901e-22
4.71689e-22
2.77761e-22
1.63135e-22
9.55614e-23
5.58322e-23
3.25354e-23
1.89104e-23
1.09628e-23
6.33909e-24
3.65607e-24
2.10325e-24
1.20687e-24
6.90757e-25
3.94357e-25
2.24573e-25
1.27565e-25
7.22798e-26
4.08522e-26
2.3032e-26
1.2953e-26
7.26659e-27
4.06649e-27
2.27007e-27
1.26414e-27
7.02244e-28
3.89154e-28
2.1513e-28
1.18639e-28
6.52686e-29
3.58209e-29
1.96122e-29
1.07121e-29
5.83701e-30
3.17301e-30
1.72077e-30
9.30994e-31
5.02514e-31
2.706e-31
1.45375e-31
7.79181e-32
4.16653e-32
2.22281e-32
1.18311e-32
6.28267e-33
3.32862e-33
1.75949e-33
9.27929e-34
4.88261e-34
2.56331e-34
1.34265e-34
7.01688e-35
3.65884e-35
1.90356e-35
9.88132e-36
5.1179e-36
2.64484e-36
1.36377e-36
7.01644e-37
3.60191e-37
1.84497e-37
9.42955e-38
4.80882e-38
2.44701e-38
1.24247e-38
6.29489e-39
3.18235e-39
1.60534e-39
8.0807e-40
4.05877e-40
2.03426e-40
1.01739e-40
5.0774e-41
2.52854e-41
1.25653e-41
6.23097e-42
3.08333e-42
1.52253e-42
7.50241e-43
3.68912e-43
1.81023e-43
8.86421e-44
4.33152e-44
2.11222e-44
1.02786e-44
4.99155e-45
2.41902e-45
1.1699e-45
5.64635e-46
2.71955e-46
1.30719e-46
6.27043e-47
3.00173e-47
1.43406e-47
6.83726e-48
3.25328e-48
1.54485e-48
7.32116e-49
3.46261e-49
1.6344e-49
7.69924e-50
3.6197e-50
1.69839e-50
7.95317e-51
3.71695e-51
1.73371e-51
8.07073e-52
3.74971e-52
1.73873e-52
8.04672e-53
3.71672e-53
1.71339e-53
7.88335e-54
3.62014e-54
1.65921e-54
7.58999e-55
3.46535e-55
1.57913e-55
7.18226e-56
3.26042e-56
1.47727e-56
6.68068e-57
3.01549e-57
1.35854e-57
6.10899e-58
2.74187e-58
1.22831e-58
5.49232e-59
2.45126e-59
1.09198e-59
4.85543e-60
2.15494e-60
9.54633e-61
4.22118e-61
1.86307e-61
8.20774e-62
3.60927e-62
1.58423e-62
6.94098e-63
3.0355e-63
1.3251e-63
5.77396e-64
2.51137e-64
1.09034e-64
4.72527e-65
2.04413e-65
8.82687e-66
3.80474e-66
1.63706e-66
7.03113e-67
3.01447e-67
1.29009e-67
5.51137e-68
2.35032e-68
1.00052e-68
4.25161e-69
1.8035e-69
7.63684e-70
3.2281e-70
1.36213e-70
5.73761e-71
2.41259e-71
1.01269e-71
4.24343e-72
1.77501e-72
7.41196e-73
3.08968e-73
1.28571e-73
5.34101e-74
2.21492e-74
9.16949e-75
3.78956e-75
1.56347e-75
6.43945e-76
2.64769e-76
1.0868e-76
4.4534e-77
1.82179e-77
7.43998e-78
3.03327e-78
1.23458e-78
5.01646e-79
2.03491e-79
8.24076e-80
3.33167e-80
1.34472e-80
5.4185e-81
2.17973e-81
8.754e-82
3.50986e-82
1.40493e-82
5.61442e-83
2.23995e-83
8.92188e-84
3.54783e-84
1.4085e-84
5.58265e-85
2.2091e-85
8.72733e-86
3.44224e-86
1.35549e-86
5.32901e-87
2.09168e-87
8.19673e-88
3.20691e-88
1.25266e-88
4.8852e-89
1.90211e-89
7.3942e-90
2.86982e-90
1.11205e-90
4.30231e-91
1.66184e-91
6.40893e-92
2.46771e-92
9.48673e-93
3.64127e-93
1.39541e-93
5.33912e-94
2.03964e-94
7.77955e-95
2.96261e-95
1.12646e-95
4.27636e-96
1.6209e-96
6.13417e-97
2.31787e-97
8.74223e-98
3.3031e-98
1.21161e-98
1.21161e-98
1
1
1
1
1
1
1
1
1
1
1
1
1
1
1
1
1
1
1
1
1
1
1
1
1
1
1
1
1
1
1
1
1
1
1
0.999999
0.999999
0.999999
0.999999
0.999998
0.999997
0.999997
0.999995
0.999994
0.999992
0.99999
0.999988
0.999985
0.999982
0.999978
0.999973
0.999968
0.999961
0.999954
0.999946
0.999937
0.999926
0.999914
0.999901
0.999886
0.99987
0.999852
0.999832
0.99981
0.999786
0.99976
0.999731
0.9997
0.999667
0.999631
0.999592
0.99955
0.999505
0.999456
0.999405
0.99935
0.999291
0.999229
0.999163
0.999092
0.999017
0.998937
0.998853
0.998763
0.998668
0.998566
0.998459
0.998344
0.998222
0.998091
0.997952
0.997803
0.997643
0.997471
0.997287
0.99709
0.996877
0.996647
0.996399
0.996132
0.995844
0.995532
0.995196
0.994832
0.99444
0.994016
0.993559
0.993067
0.992537
0.991966
0.991353
0.990695
0.98999
0.989235
0.988428
0.987566
0.986648
0.98567
0.984631
0.983529
0.982361
0.981125
0.97982
0.978444
0.976995
0.97547
0.97387
0.972192
0.970436
0.968599
0.966682
0.964682
0.9626
0.960434
0.958185
0.955852
0.953434
0.950931
0.948344
0.945673
0.942917
0.940077
0.937153
0.934146
0.931057
0.927887
0.924635
0.921303
0.917893
0.914404
0.910839
0.907197
0.903482
0.899693
0.895833
0.891903
0.887903
0.883837
0.879705
0.875508
0.871249
0.866929
0.86255
0.858113
0.853621
0.849074
0.844474
0.839824
0.835125
0.830379
0.825587
0.820751
0.815874
0.810955
0.805998
0.801004
0.795975
0.790912
0.785817
0.780691
0.775537
0.770356
0.765149
0.759917
0.754664
0.749389
0.744094
0.738782
0.733453
0.728108
0.72275
0.717379
0.711997
0.706605
0.701204
0.695796
0.690382
0.684963
0.67954
0.674114
0.668687
0.663259
0.657832
0.652407
0.646984
0.641565
0.636151
0.630742
0.62534
0.619945
0.614558
0.60918
0.603812
0.598455
0.593109
0.587775
0.582454
0.577147
0.571854
0.566575
0.561313
0.556066
0.550836
0.545624
0.540429
0.535253
0.530096
0.524958
0.51984
0.514742
0.509665
0.504609
0.499575
0.494563
0.489574
0.484607
0.479663
0.474743
0.469846
0.464974
0.460126
0.455302
0.450504
0.44573
0.440982
0.43626
0.431563
0.426893
0.422248
0.417631
0.413039
0.408475
0.403937
0.399426
0.394943
0.390486
0.386058
0.381656
0.377282
0.372936
0.368618
0.364327
0.360064
0.35583
0.351623
0.347444
0.343293
0.33917
0.335076
0.331009
0.326971
0.32296
0.318978
0.315024
0.311098
0.3072
0.30333
0.299488
0.295674
0.291888
0.28813
0.2844
0.280698
0.277023
0.273376
0.269757
0.266165
0.262601
0.259064
0.255555
0.252073
0.248618
0.24519
0.24179
0.238416
0.235069
0.231749
0.228456
0.22519
0.22195
0.218736
0.215549
0.212388
0.209254
0.206146
0.203063
0.200007
0.196976
0.193971
0.190992
0.188038
0.18511
0.182207
0.17933
0.176478
0.173651
0.170849
0.168072
0.165319
0.162592
0.159889
0.157211
0.154558
0.151929
0.149324
0.146744
0.144187
0.141656
0.139148
0.136664
0.134204
0.131768
0.129356
0.126968
0.124604
0.122263
0.119946
0.117652
0.115382
0.113136
0.110913
0.108713
0.106537
0.104384
0.102254
0.100148
0.0980649
0.096005
0.0939682
0.0919545
0.089964
0.0879965
0.0860521
0.0841308
0.0822324
0.0803571
0.0785048
0.0766754
0.0748691
0.0730856
0.0713251
0.0695875
0.0678729
0.0661811
0.0645122
0.0628662
0.0612431
0.0596428
0.0580654
0.0565108
0.0549791
0.0534702
0.0519841
0.0505208
0.0490802
0.0476625
0.0462675
0.0448953
0.0435458
0.042219
0.040915
0.0396336
0.0383748
0.0371387
0.0359252
0.0347342
0.0335658
0.0324199
0.0312965
0.0301955
0.0291169
0.0280606
0.0270267
0.026015
0.0250255
0.0240581
0.0231128
0.0221894
0.0212881
0.0204085
0.0195507
0.0187147
0.0179002
0.0171072
0.0163355
0.0155852
0.014856
0.0141479
0.0134607
0.0127943
0.0121486
0.0115233
0.0109184
0.0103336
0.00976885
0.00922391
0.0086986
0.00819271
0.00770603
0.00723836
0.00678944
0.00635904
0.00594692
0.00555279
0.00517639
0.00481742
0.00447559
0.00415057
0.00384203
0.00354964
0.00327302
0.00301182
0.00276565
0.00253409
0.00231674
0.00211317
0.00192293
0.00174557
0.00158061
0.00142758
0.00128597
0.0011553