# vtk DataFile Version 2.0
FlowField
ASCII
DATASET STRUCTURED_GRID
DIMENSIONS 800 1 200
POINTS 160000 float
0 0 0
0.04 0 0
0.08 0 0
0.12 0 0
0.16 0 0
0.2 0 0
0.24 0 0
0.28 0 0
0.32 0 0
0.36 0 0
0.4 0 0
0.44 0 0
0.48 0 0
0.52 0 0
0.56 0 0
0.6 0 0
0.64 0 0
0.68 0 0
0.72 0 0
0.76 0 0
0.8 0 0
0.84 0 0
0.88 0 0
0.92 0 0
0.96 0 0
1 0 0
1.04 0 0
1.08 0 0
1.12 0 0
1.16 0 0
1.2 0 0
1.24 0 0
1.28 0 0
1.32 0 0
1.36 0 0
1.4 0 0
1.44 0 0
1.48 0 0
1.52 0 0
1.56 0 0
1.6 0 0
1.64 0 0
1.68 0 0
1.72 0 0
1.76 0 0
1.8 0 0
1.84 0 0
1.88 0 0
1.92 0 0
1.96 0 0
2 0 0
2.04 0 0
2.08 0 0
2.12 0 0
2.16 0 0
2.2 0 0
2.24 0 0
2.28 0 0
2.32 0 0
2.36 0 0
2.4 0 0
2.44 0 0
2.48 0 0
2.52 0 0
2.56 0 0
2.6 0 0
2.64 0 0
2.68 0 0
2.72 0 0
2.76 0 0
2.8 0 0
2.84 0 0
2.88 0 0
2.92 0 0
2.96 0 0
3 0 0
3.04 0 0
3.08 0 0
3.12 0 0
3.16 0 0
3.2 0 0
3.24 0 0
3.28 0 0
3.32 0 0
3.36 0 0
3.4 0 0
3.44 0 0
3.48 0 0
3.52 0 0
3.56 0 0
3.6 0 0
3.64 0 0
3.68 0 0
3.72 0 0
3.76 0 0
3.8 0 0
3.84 0 0
3.88 0 0
3.92 0 0
3.96 0 0
4 0 0
4.04 0 0
4.08 0 0
4.12 0 0
4.16 0 0
4.2 0 0
4.24 0 0
4.28 0 0
4.32 0 0
4.36 0 0
4.4 0 0
4.44 0 0
4.48 0 0
4.52 0 0
4.56 0 0
4.6 0 0
4.64 0 0
4.68 0 0
4.72 0 0
4.76 0 0
4.8 0 0
4.84 0 0
4.88 0 0
4.92 0 0
4.96 0 0
5 0 0
5.04 0 0
5.08 0 0
5.12 0 0
5.16 0 0
5.2 0 0
5.24 0 0
5.28 0 0
5.32 0 0
5.36 0 0
5.4 0 0
5.44 0 0
5.48 0 0
5.52 0 0
5.56 0 0
5.6 0 0
5.64 0 0
5.68 0 0
5.72 0 0
5.76 0 0
5.8 0 0
5.84 0 0
5.88 0 0
5.92 0 0
5.96 0 0
6 0 0
6.04 0 0
6.08 0 0
6.12 0 0
6.16 0 0
6.2 0 0
6.24 0 0
6.28 0 0
6.32 0 0
6.36 0 0
6.4 0 0
6.44 0 0
6.48 0 0
6.52 0 0
6.56 0 0
6.6 0 0
6.64 0 0
6.68 0 0
6.72 0 0
6.76 0 0
6.8 0 0
6.84 0 0
6.88 0 0
6.92 0 0
6.96 0 0
7 0 0
7.04 0 0
7.08 0 0
7.12 0 0
7.16 0 0
7.2 0 0
7.24 0 0
7.28 0 0
7.32 0 0
7.36 0 0
7.4 0 0
7.44 0 0
7.48 0 0
7.52 0 0
7.56 0 0
7.6 0 0
7.64 0 0
7.68 0 0
7.72 0 0
7.76 0 0
7.8 0 0
7.84 0 0
7.88 0 0
7.92 0 0
7.96 0 0
8 0 0
8.04 0 0
8.08 0 0
8.12 0 0
8.16 0 0
8.2 0 0
8.24 0 0
8.28 0 0
8.32 0 0
8.36 0 0
8.4 0 0
8.44 0 0
8.48 0 0
8.52 0 0
8.56 0 0
8.6 0 0
8.64 0 0
8.68 0 0
8.72 0 0
8.76 0 0
8.8 0 0
8.84 0 0
8.88 0 0
8.92 0 0
8.96 0 0
9 0 0
9.04 0 0
9.08 0 0
9.12 0 0
9.16 0 0
9.2 0 0
9.24 0 0
9.28 0 0
9.32 0 0
9.36 0 0
9.4 0 0
9.44 0 0
9.48 0 0
9.52 0 0
9.56 0 0
9.6 0 0
9.64 0 0
9.68 0 0
9.72 0 0
9.76 0 0
9.8 0 0
9.84 0 0
9.88 0 0
9.92 0 0
9.96 0 0
10 0 0
10.04 0 0
10.08 0 0
10.12 0 0
10.16 0 0
10.2 0 0
10.24 0 0
10.28 0 0
10.32 0 0
10.36 0 0
10.4 0 0
10.44 0 0
10.48 0 0
10.52 0 0
10.56 0 0
10.6 0 0
10.64 0 0
10.68 0 0
10.72 0 0
10.76 0 0
10.8 0 0
10.84 0 0
10.88 0 0
10.92 0 0
10.96 0 0
11 0 0
11.04 0 0
11.08 0 0
11.12 0 0
11.16 0 0
11.2 0 0
11.24 0 0
11.28 0 0
11.32 0 0
11.36 0 0
11.4 0 0
11.44 0 0
11.48 0 0
11.52 0 0
11.56 0 0
11.6 0 0
11.64 0 0
11.68 0 0
11.72 0 0
11.76 0 0
11.8 0 0
11.84 0 0
11.88 0 0
11.92 0 0
11.96 0 0
12 0 0
12.04 0 0
12.08 0 0
12.12 0 0
12.16 0 0
12.2 0 0
12.24 0 0
12.28 0 0
12.32 0 0
12.36 0 0
12.4 0 0
12.44 0 0
12.48 0 0
12.52 0 0
12.56 0 0
12.6 0 0
12.64 0 0
12.68 0 0
12.72 0 0
12.76 0 0
12.8 0 0
12.84 0 0
12.88 0 0
12.92 0 0
12.96 0 0
13 0 0
13.04 0 0
13.08 0 0
13.12 0 0
13.16 0 0
13.2 0 0
13.24 0 0
13.28 0 0
13.32 0 0
13.36 0 0
13.4 0 0
13.44 0 0
13.48 0 0
13.52 0 0
13.56 0 0
13.6 0 0
13.64 0 0
13.68 0 0
13.72 0 0
13.76 0 0
13.8 0 0
13.84 0 0
13.88 0 0
13.92 0 0
13.96 0 0
14 0 0
14.04 0 0
14.08 0 0
14.12 0 0
14.16 0 0
14.2 0 0
14.24 0 0
14.28 0 0
14.32 0 0
14.36 0 0
14.4 0 0
14.44 0 0
14.48 0 0
14.52 0 0
14.56 0 0
14.6 0 0
14.64 0 0
14.68 0 0
14.72 0 0
14.76 0 0
14.8 0 0
14.84 0 0
14.88 0 0
14.92 0 0
14.96 0 0
15 0 0
15.04 0 0
15.08 0 0
15.12 0 0
15.16 0 0
15.2 0 0
15.24 0 0
15.28 0 0
15.32 0 0
15.36 0 0
15.4 0 0
15.44 0 0
15.48 0 0
15.52 0 0
15.56 0 0
15.6 0 0
15.64 0 0
15.68 0 0
15.72 0 0
15.76 0 0
15.8 0 0
15.84 0 0
15.88 0 0
15.92 0 0
15.96 0 0
16 0 0
16.04 0 0
16.08 0 0
16.12 0 0
16.16 0 0
16.2 0 0
16.24 0 0
16.28 0 0
16.32 0 0
16.36 0 0
16.4 0 0
16.44 0 0
16.48 0 0
16.52 0 0
16.56 0 0
16.6 0 0
16.64 0 0
16.68 0 0
16.72 0 0
16.76 0 0
16.8 0 0
16.84 0 0
16.88 0 0
16.92 0 0
16.96 0 0
17 0 0
17.04 0 0
17.08 0 0
17.12 0 0
17.16 0 0
17.2 0 0
17.24 0 0
17.28 0 0
17.32 0 0
17.36 0 0
17.4 0 0
17.44 0 0
17.48 0 0
17.52 0 0
17.56 0 0
17.6 0 0
17.64 0 0
17.68 0 0
17.72 0 0
17.76 0 0
17.8 0 0
17.84 0 0
17.88 0 0
17.92 0 0
17.96 0 0
18 0 0
18.04 0 0
18.08 0 0
18.12 0 0
18.16 0 0
18.2 0 0
18.24 0 0
18.28 0 0
18.32 0 0
18.36 0 0
18.4 0 0
18.44 0 0
18.48 0 0
18.52 0 0
18.56 0 0
18.6 0 0
18.64 0 0
18.68 0 0
18.72 0 0
18.76 0 0
18.8 0 0
18.84 0 0
18.88 0 0
18.92 0 0
18.96 0 0
19 0 0
19.04 0 0
19.08 0 0
19.12 0 0
19.16 0 0
19.2 0 0
19.24 0 0
19.28 0 0
19.32 0 0
19.36 0 0
19.4 0 0
19.44 0 0
19.48 0 0
19.52 0 0
19.56 0 0
19.6 0 0
19.64 0 0
19.68 0 0
19.72 0 0
19.76 0 0
19.8 0 0
19.84 0 0
19.88 0 0
19.92 0 0
19.96 0 0
20 0 0
20.04 0 0
20.08 0 0
20.12 0 0
20.16 0 0
20.2 0 0
20.24 0 0
20.28 0 0
20.32 0 0
20.36 0 0
20.4 0 0
20.44 0 0
20.48 0 0
20.52 0 0
20.56 0 0
20.6 0 0
20.64 0 0
20.68 0 0
20.72 0 0
20.76 0 0
20.8 0 0
20.84 0 0
20.88 0 0
20.92 0 0
20.96 0 0
21 0 0
21.04 0 0
21.08 0 0
21.12 0 0
21.16 0 0
21.2 0 0
21.24 0 0
21.28 0 0
21.32 0 0
21.36 0 0
21.4 0 0
21.44 0 0
21.48 0 0
21.52 0 0
21.56 0 0
21.6 0 0
21.64 0 0
21.68 0 0
21.72 0 0
21.76 0 0
21.8 0 0
21.84 0 0
21.88 0 0
21.92 0 0
21.96 0 0
22 0 0
22.04 0 0
22.08 0 0
22.12 0 0
22.16 0 0
22.2 0 0
22.24 0 0
22.28 0 0
22.32 0 0
22.36 0 0
22.4 0 0
22.44 0 0
22.48 0 0
22.52 0 0
22.56 0 0
22.6 0 0
22.64 0 0
22.68 0 0
22.72 0 0
22.76 0 0
22.8 0 0
22.84 0 0
22.88 0 0
22.92 0 0
22.96 0 0
23 0 0
23.04 0 0
23.08 0 0
23.12 0 0
23.16 0 0
23.2 0 0
23.24 0 0
23.28 0 0
23.32 0 0
23.36 0 0
23.4 0 0
23.44 0 0
23.48 0 0
23.52 0 0
23.56 0 0
23.6 0 0
23.64 0 0
23.68 0 0
23.72 0 0
23.76 0 0
23.8 0 0
23.84 0 0
23.88 0 0
23.92 0 0
23.96 0 0
24 0 0
24.04 0 0
24.08 0 0
24.12 0 0
24.16 0 0
24.2 0 0
24.24 0 0
24.28 0 0
24.32 0 0
24.36 0 0
24.4 0 0
24.44 0 0
24.48 0 0
24.52 0 0
24.56 0 0
24.6 0 0
24.64 0 0
24.68 0 0
24.72 0 0
24.76 0 0
24.8 0 0
24.84 0 0
24.88 0 0
24.92 0 0
24.96 0 0
25 0 0
25.04 0 0
25.08 0 0
25.12 0 0
25.16 0 0
25.2 0 0
25.24 0 0
25.28 0 0
25.32 0 0
25.36 0 0
25.4 0 0
25.44 0 0
25.48 0 0
25.52 0 0
25.56 0 0
25.6 0 0
25.64 0 0
25.68 0 0
25.72 0 0
25.76 0 0
25.8 0 0
25.84 0 0
25.88 0 0
25.92 0 0
25.96 0 0
26 0 0
26.04 0 0
26.08 0 0
26.12 0 0
26.16 0 0
26.2 0 0
26.24 0 0
26.28 0 0
26.32 0 0
26.36 0 0
26.4 0 0
26.44 0 0
26.48 0 0
26.52 0 0
26.56 0 0
26.6 0 0
26.64 0 0
26.68 0 0
26.72 0 0
26.76 0 0
26.8 0 0
26.84 0 0
26.88 0 0
26.92 0 0
26.96 0 0
27 0 0
27.04 0 0
27.08 0 0
27.12 0 0
27.16 0 0
27.2 0 0
27.24 0 0
27.28 0 0
27.32 0 0
27.36 0 0
27.4 0 0
27.44 0 0
27.48 0 0
27.52 0 0
27.56 0 0
27.6 0 0
27.64 0 0
27.68 0 0
27.72 0 0
27.76 0 0
27.8 0 0
27.84 0 0
27.88 0 0
27.92 0 0
27.96 0 0
28 0 0
28.04 0 0
28.08 0 0
28.12 0 0
28.16 0 0
28.2 0 0
28.24 0 0
28.28 0 0
28.32 0 0
28.36 0 0
28.4 0 0
28.44 0 0
28.48 0 0
28.52 0 0
28.56 0 0
28.6 0 0
28.64 0 0
28.68 0 0
28.72 0 0
28.76 0 0
28.8 0 0
28.84 0 0
28.88 0 0
28.92 0 0
28.96 0 0
29 0 0
29.04 0 0
29.08 0 0
29.12 0 0
29.16 0 0
29.2 0 0
29.24 0 0
29.28 0 0
29.32 0 0
29.36 0 0
29.4 0 0
29.44 0 0
29.48 0 0
29.52 0 0
29.56 0 0
29.6 0 0
29.64 0 0
29.68 0 0
29.72 0 0
29.76 0 0
29.8 0 0
29.84 0 0
29.88 0 0
29.92 0 0
29.96 0 0
30 0 0
30.04 0 0
30.08 0 0
30.12 0 0
30.16 0 0
30.2 0 0
30.24 0 0
30.28 0 0
30.32 0 0
30.36 0 0
30.4 0 0
30.44 0 0
30.48 0 0
30.52 0 0
30.56 0 0
30.6 0 0
30.64 0 0
30.68 0 0
30.72 0 0
30.76 0 0
30.8 0 0
30.84 0 0
30.88 0 0
30.92 0 0
30.96 0 0
31 0 0
31.04 0 0
31.08 0 0
31.12 0 0
31.16 0 0
31.2 0 0
31.24 0 0
31.28 0 0
31.32 0 0
31.36 0 0
31.4 0 0
31.44 0 0
31.48 0 0
31.52 0 0
31.56 0 0
31.6 0 0
31.64 0 0
31.68 0 0
31.72 0 0
31.76 0 0
31.8 0 0
31.84 0 0
31.88 0 0
31.92 0 0
31.96 0 0
0 0.005 0
0.04 0.005 0
0.08 0.005 0
0.12 0.005 0
0.16 0.005 0
0.2 0.005 0
0.24 0.005 0
0.28 0.005 0
0.32 0.005 0
0.36 0.005 0
0.4 0.005 0
0.44 0.005 0
0.48 0.005 0
0.52 0.005 0
0.56 0.005 0
0.6 0.005 0
0.64 0.005 0
0.68 0.005 0
0.72 0.005 0
0.76 0.005 0
0.8 0.005 0
0.84 0.005 0
0.88 0.005 0
0.92 0.005 0
0.96 0.005 0
1 0.005 0
1.04 0.005 0
1.08 0.005 0
1.12 0.005 0
1.16 0.005 0
1.2 0.005 0
1.24 0.005 0
1.28 0.005 0
1.32 0.005 0
1.36 0.005 0
1.4 0.005 0
1.44 0.005 0
1.48 0.005 0
1.52 0.005 0
1.56 0.005 0
1.6 0.005 0
1.64 0.005 0
1.68 0.005 0
1.72 0.005 0
1.76 0.005 0
1.8 0.005 0
1.84 0.005 0
1.88 0.005 0
1.92 0.005 0
1.96 0.005 0
2 0.005 0
2.04 0.005 0
2.08 0.005 0
2.12 0.005 0
2.16 0.005 0
2.2 0.005 0
2.24 0.005 0
2.28 0.005 0
2.32 0.005 0
2.36 0.005 0
2.4 0.005 0
2.44 0.005 0
2.48 0.005 0
2.52 0.005 0
2.56 0.005 0
2.6 0.005 0
2.64 0.005 0
2.68 0.005 0
2.72 0.005 0
2.76 0.005 0
2.8 0.005 0
2.84 0.005 0
2.88 0.005 0
2.92 0.005 0
2.96 0.005 0
3 0.005 0
3.04 0.005 0
3.08 0.005 0
3.12 0.005 0
3.16 0.005 0
3.2 0.005 0
3.24 0.005 0
3.28 0.005 0
3.32 0.005 0
3.36 0.005 0
3.4 0.005 0
3.44 0.005 0
3.48 0.005 0
3.52 0.005 0
3.56 0.005 0
3.6 0.005 0
3.64 0.005 0
3.68 0.005 0
3.72 0.005 0
3.76 0.005 0
3.8 0.005 0
3.84 0.005 0
3.88 0.005 0
3.92 0.005 0
3.96 0.005 0
4 0.005 0
4.04 0.005 0
4.08 0.005 0
4.12 0.005 0
4.16 0.005 0
4.2 0.005 0
4.24 0.005 0
4.28 0.005 0
4.32 0.005 0
4.36 0.005 0
4.4 0.005 0
4.44 0.005 0
4.48 0.005 0
4.52 0.005 0
4.56 0.005 0
4.6 0.005 0
4.64 0.005 0
4.68 0.005 0
4.72 0.005 0
4.76 0.005 0
4.8 0.005 0
4.84 0.005 0
4.88 0.005 0
4.92 0.005 0
4.96 0.005 0
5 0.005 0
5.04 0.005 0
5.08 0.005 0
5.12 0.005 0
5.16 0.005 0
5.2 0.005 0
5.24 0.005 0
5.28 0.005 0
5.32 0.005 0
5.36 0.005 0
5.4 0.005 0
5.44 0.005 0
5.48 0.005 0
5.52 0.005 0
5.56 0.005 0
5.6 0.005 0
5.64 0.005 0
5.68 0.005 0
5.72 0.005 0
5.76 0.005 0
5.8 0.005 0
5.84 0.005 0
5.88 0.005 0
5.92 0.005 0
5.96 0.005 0
6 0.005 0
6.04 0.005 0
6.08 0.005 0
6.12 0.005 0
6.16 0.005 0
6.2 0.005 0
6.24 0.005 0
6.28 0.005 0
6.32 0.005 0
6.36 0.005 0
6.4 0.005 0
6.44 0.005 0
6.48 0.005 0
6.52 0.005 0
6.56 0.005 0
6.6 0.005 0
6.64 0.005 0
6.68 0.005 0
6.72 0.005 0
6.76 0.005 0
6.8 0.005 0
6.84 0.005 0
6.88 0.005 0
6.92 0.005 0
6.96 0.005 0
7 0.005 0
7.04 0.005 0
7.08 0.005 0
7.12 0.005 0
7.16 0.005 0
7.2 0.005 0
7.24 0.005 0
7.28 0.005 0
7.32 0.005 0
7.36 0.005 0
7.4 0.005 0
[...]
POINT_DATA 160000

SCALARS v float 1
LOOKUP_TABLE default
0
0
0
0
0
0
0
0
0
0
0
0
0
0
0
0
0
0
0
0
0
0
0
0
0
0
0
0
0
0
0
0
0
0
0
0
0
0
0
0
0
0
0
0
0
0
0
0
0
0
0
0
0
0
0
0
0
0
0
0
0
0
0
0
0
0
0
0
0
0
0
0
0
0
0
0
0
0
0
0
0
0
0
0
0
0
0
0
0
0
0
0
0
0
0
0
0
0
0
0
0
0
0
0
0
0
0
0
0
0
0
0
0
0
0
0
0
0
0
0
0
0
0
0
0
0
0
0
0
0
0
0
0
0
0
0
0
0
0
0
0
0
0
0
0
0
0
0
0
0
0
0
0
0
0
0
0
0
0
0
0
0
0
0
0
0
0
0
0
0
0
0
0
0
0
0
0
0
0
0
0
0
0
0
0
0
0
0
0
0
0
0
0
0
0
0
0
0
0
0
0
0
0
0
0
0
0
0
0
0
0
0
0
0
0
0
0
0
0
0
0
0
0
0
0
0
0
0
0
0
0
0
0
0
0
0
0
0
0
0
0
0
0
0
0
0
0
0
0
0
0
0
0
0
0
0
0
0
0
0
0
0
0
0
0
0
0
0
0
0
0
0
0
0
0
0
0
0
0
0
0
0
0
0
0
0
0
0
0
0
0
0
0
0
0
0
0
0
0
0
0
0
0
0
0
0
0
0
0
0
0
0
0
0
0
0
0
0
0
0
0
0
0
0
0
0
0
0
0
0
0
0
0
0
0
0
0
0
0
0
0
0
0
0
0
0
0
0
0
0
0
0
0
0
0
0
0
0
0
0
0
0
0
0
0
0
0
0
0
0
0
0
0
0
0
0
0
0
0
0
0
0
0
0
0
0
0
0
0
0
0
0
0
0
0
0
0
0
0
0
0
0
0
0
0
0
0
0
0
0
0
0
0
0
0
0
0
0
0
0
0
0
0
0
0
0
0
0
0
0
0
0
0
0
0
0
0
0
0
0
0
0
0
0
0
0
0
0
0
0
0
0
0
0
0
0
0
0
0
0
0
0
0
0
0
0
0
0
0
0
0
0
0
0
0
0
0
0
0
0
0
0
0
0
0
0
0
0
0
0
0
0
0
0
0
0
0
0
0
0
0
0
0
0
0
0
0
0
0
0
0
0
0
0
0
0
0
0
0
0
0
0
0
0
0
0
0
0
0
0
0
0
0
0
0
0
0
0
0
0
0
0
0
0
0
0
0
0
0
0
0
0
0
0
0
0
0
0
0
0
0
0
0
0
0
0
0
0
0
0
0
0
0
0
0
0
0
0
0
0
0
0
0
0
0
0
0
0
0
0
0
0
0
0
0
0
0
0
0
0
0
0
0
0
0
0
0
0
0
0
0
0
0
0
0
0
0
0
0
0
0
0
0
0
0
0
0
0
0
0
0
0
0
0
0
0
0
0
0
0
0
0
0
0
0
0
0
0
0
0
0
0
0
0
0
0
0
0
0
0
0
0
0
0
0
0
0
0
0
0
0
0
0
0
0
0
0
0
0
0
0
0
0
0
0
0
0
0
0
0
0
0
0
0
0
0
0
0
0
0
0
0
0
0
0
0
0
0
0
0
0
0
0
0
0
0
0
0
0
0
0
0
0
0
0
0
0
0
0
0
0
0
0
0
0
0
0
0
0
0
0
0
0
0
0
0
0
0
0
0
0
0
0
0
0
0
0
0
0
0
0
0
0
0
0
0
0
0
0
0
0
0
0
0
0
0
0
0
0
0
0
0
0
0
0
0
0
0
0
0
0
0
0
0
0
0
0
0
0
0
0
0
0.0374157
0.00938103
0.00346787
0.00176625
0.00108077
0.00073701
0.000538233
0.000411688
0.000325489
0.0002638
0.000217979
0.000182948
0.000155547
0.000133711
0.000116038
0.000101546
8.95278e-05
7.94598e-05
7.095e-05
6.36981e-05
5.74713e-05
5.20871e-05
4.74007e-05
4.3296e-05
3.96797e-05
3.64756e-05
3.36217e-05
3.10669e-05
2.87687e-05
2.66921e-05
2.48077e-05
2.30908e-05
2.15206e-05
2.00795e-05
1.87524e-05
1.75266e-05
1.63911e-05
1.53364e-05
1.43543e-05
1.34376e-05
1.25801e-05
1.17764e-05
1.10217e-05
1.03118e-05
9.64283e-06
9.01152e-06
8.41488e-06
7.85023e-06
7.31519e-06
6.80757e-06
6.32543e-06
5.86699e-06
5.43063e-06
5.01489e-06
4.61842e-06
4.23999e-06
3.87848e-06
3.53284e-06
3.20213e-06
2.88546e-06
2.58201e-06
2.29102e-06
2.0118e-06
1.74369e-06
1.4861e-06
1.23846e-06
1.00025e-06
7.70965e-07
5.5016e-07
3.37405e-07
1.32303e-07
-6.5525e-08
-2.56441e-07
-4.40768e-07
-6.18812e-07
-7.90873e-07
-9.57225e-07
-1.11813e-06
-1.27381e-06
-1.42452e-06
-1.57048e-06
-1.71188e-06
-1.84893e-06
-1.9818e-06
-2.11068e-06
-2.23573e-06
-2.35709e-06
-2.47493e-06
-2.58938e-06
-2.70058e-06
-2.80866e-06
-2.91373e-06
-3.01591e-06
-3.11531e-06
-3.21204e-06
-3.30619e-06
-3.39786e-06
-3.48714e-06
-3.57412e-06
-3.65888e-06
-3.74149e-06
-3.82204e-06
-3.9006e-06
-3.97723e-06
-4.052e-06
-4.12496e-06
-4.19619e-06
-4.26575e-06
-4.33368e-06
-4.40003e-06
-4.46487e-06
-4.52824e-06
-4.59019e-06
-4.65075e-06
-4.70998e-06
-4.76791e-06
-4.82459e-06
-4.88005e-06
-4.93433e-06
-4.98747e-06
-5.0395e-06
-5.09046e-06
-5.14037e-06
-5.18926e-06
-5.23716e-06
-5.28411e-06
-5.33014e-06
-5.37526e-06
-5.41949e-06
-5.46288e-06
-5.50543e-06
-5.54718e-06
-5.58814e-06
-5.62833e-06
-5.66779e-06
-5.70652e-06
-5.74454e-06
-5.78187e-06
-5.81854e-06
-5.85456e-06
-5.88995e-06
-5.92471e-06
-5.95887e-06
-5.99244e-06
-6.02544e-06
-6.05788e-06
-6.08977e-06
-6.12114e-06
-6.15198e-06
-6.18231e-06
-6.21215e-06
-6.24151e-06
-6.2704e-06
-6.29882e-06
-6.3268e-06
-6.35433e-06
-6.38144e-06
-6.40812e-06
-6.4344e-06
-6.46027e-06
-6.48574e-06
-6.51084e-06
-6.53556e-06
-6.55991e-06
-6.5839e-06
-6.60754e-06
-6.63083e-06
-6.65379e-06
-6.67642e-06
-6.69872e-06
-6.7207e-06
-6.74238e-06
-6.76375e-06
-6.78481e-06
-6.80559e-06
-6.82609e-06
-6.8463e-06
-6.86623e-06
-6.88589e-06
-6.90529e-06
-6.92443e-06
-6.94332e-06
-6.96196e-06
-6.98034e-06
-6.99849e-06
-7.0164e-06
-7.03408e-06
-7.05153e-06
-7.06875e-06
-7.08576e-06
-7.10254e-06
-7.11912e-06
-7.13548e-06
-7.15165e-06
-7.16761e-06
-7.18337e-06
-7.19894e-06
-7.21431e-06
-7.2295e-06
-7.2445e-06
-7.25932e-06
-7.27395e-06
-7.28841e-06
-7.3027e-06
-7.31682e-06
-7.33077e-06
-7.34455e-06
-7.35816e-06
-7.37162e-06
-7.38492e-06
-7.39807e-06
-7.41106e-06
-7.4239e-06
-7.43659e-06
-7.44914e-06
-7.46154e-06
-7.4738e-06
-7.48592e-06
-7.4979e-06
-7.50974e-06
-7.52145e-06
-7.53302e-06
-7.54447e-06
-7.55579e-06
-7.56698e-06
-7.57805e-06
-7.58899e-06
-7.59981e-06
-7.61051e-06
-7.62109e-06
-7.63156e-06
-7.64191e-06
-7.65215e-06
-7.66227e-06
-7.67229e-06
-7.6822e-06
-7.69199e-06
-7.70168e-06
-7.71127e-06
-7.72075e-06
-7.73012e-06
-7.7394e-06
-7.74858e-06
-7.75766e-06
-7.76664e-06
-7.77553e-06
-7.78432e-06
-7.79301e-06
-7.80162e-06
-7.81013e-06
-7.81855e-06
-7.82688e-06
-7.83512e-06
-7.84328e-06
-7.85135e-06
-7.85934e-06
-7.86724e-06
-7.87505e-06
-7.88278e-06
-7.89044e-06
-7.89801e-06
-7.90551e-06
-7.91292e-06
-7.92025e-06
-7.92751e-06
-7.9347e-06
-7.9418e-06
-7.94884e-06
-7.9558e-06
-7.96268e-06
-7.96949e-06
-7.97623e-06
-7.98291e-06
-7.98951e-06
-7.99605e-06
-8.00253e-06
-8.00893e-06
-8.01527e-06
-8.02155e-06
-8.02776e-06
-8.03392e-06
-8.04001e-06
-8.04604e-06
-8.05201e-06
-8.05793e-06
-8.0638e-06
-8.06961e-06
-8.07537e-06
-8.08107e-06
-8.08673e-06
-8.09234e-06
-8.0979e-06
-8.10342e-06
-8.10889e-06
-8.11432e-06
-8.11971e-06
-8.12506e-06
-8.13038e-06
-8.13567e-06
-8.14092e-06
-8.14613e-06
-8.15132e-06
-8.15647e-06
-8.1616e-06
-8.16671e-06
-8.17179e-06
-8.17684e-06
-8.18187e-06
-8.18688e-06
-8.19187e-06
-8.19686e-06
-8.20181e-06
-8.20676e-06
-8.21169e-06
-8.21661e-06
-8.22151e-06
-8.2264e-06
-8.23128e-06
-8.23615e-06
-8.24101e-06
-8.24586e-06
-8.2507e-06
-8.25553e-06
-8.26036e-06
-8.26518e-06
-8.26998e-06
-8.27478e-06
-8.27958e-06
-8.28436e-06
-8.28914e-06
-8.29391e-06
-8.29867e-06
-8.30343e-06
-8.30817e-06
-8.31291e-06
-8.31763e-06
-8.32235e-06
-8.32705e-06
-8.33175e-06
-8.33643e-06
-8.3411e-06
-8.34576e-06
-8.3504e-06
-8.35503e-06
-8.35964e-06
-8.36424e-06
-8.36882e-06
-8.37338e-06
-8.37792e-06
-8.38245e-06
-8.38695e-06
-8.39142e-06
-8.39588e-06
-8.40032e-06
-8.40473e-06
-8.40911e-06
-8.41347e-06
-8.41781e-06
-8.4221e-06
-8.42637e-06
-8.43061e-06
-8.43482e-06
-8.439e-06
-8.44315e-06
-8.44726e-06
-8.45133e-06
-8.45536e-06
-8.45936e-06
-8.46332e-06
-8.46725e-06
-8.47113e-06
-8.47497e-06
-8.47876e-06
-8.48252e-06
-8.48624e-06
-8.48991e-06
-8.49353e-06
-8.49711e-06
-8.50064e-06
-8.50413e-06
-8.50757e-06
-8.51096e-06
-8.5143e-06
-8.5176e-06
-8.52084e-06
-8.52404e-06
-8.52718e-06
-8.53028e-06
-8.53332e-06
-8.53632e-06
-8.53926e-06
-8.54214e-06
-8.54498e-06
-8.54776e-06
-8.5505e-06
-8.55318e-06
-8.55581e-06
-8.55838e-06
-8.5609e-06
-8.56338e-06
-8.56579e-06
-8.56816e-06
-8.57048e-06
-8.57274e-06
-8.57495e-06
-8.57711e-06
-8.57921e-06
-8.58127e-06
-8.58328e-06
-8.58523e-06
-8.58714e-06
-8.58899e-06
-8.59079e-06
-8.59255e-06
-8.59426e-06
-8.59591e-06
-8.59752e-06
-8.59908e-06
-8.60061e-06
-8.60208e-06
-8.60351e-06
-8.60488e-06
-8.60621e-06
-8.60751e-06
-8.60876e-06
-8.60997e-06
-8.61114e-06
-8.61226e-06
-8.61334e-06
-8.61438e-06
-8.61539e-06
-8.61635e-06
-8.61728e-06
-8.61818e-06
-8.61904e-06
-8.61986e-06
-8.62064e-06
-8.6214e-06
-8.62212e-06
-8.62281e-06
-8.62347e-06
-8.62409e-06
-8.62469e-06
-8.62526e-06
-8.62581e-06
-8.62633e-06
-8.62682e-06
-8.62729e-06
-8.62773e-06
-8.62814e-06
-8.62854e-06
-8.62891e-06
-8.62927e-06
-8.6296e-06
-8.62991e-06
-8.6302e-06
-8.63048e-06
-8.63074e-06
-8.63098e-06
-8.63121e-06
-8.63142e-06
-8.63162e-06
-8.6318e-06
-8.63198e-06
-8.63214e-06
-8.63229e-06
-8.63242e-06
-8.63255e-06
-8.63267e-06
-8.63278e-06
-8.63288e-06
-8.63297e-06
-8.63306e-06
-8.63314e-06
-8.63322e-06
-8.63328e-06
-8.63334e-06
-8.6334e-06
-8.63345e-06
-8.6335e-06
-8.63355e-06
-8.6336e-06
-8.63364e-06
-8.63368e-06
-8.63372e-06
-8.63376e-06
-8.63379e-06
-8.63383e-06
-8.63386e-06
-8.63389e-06
-8.63392e-06
-8.63395e-06
-8.63398e-06
-8.63402e-06
-8.63405e-06
-8.63408e-06
-8.63411e-06
-8.63414e-06
-8.63417e-06
-8.6342e-06
-8.63423e-06
-8.63426e-06
-8.63429e-06
-8.63432e-06
-8.63435e-06
-8.63438e-06
-8.63441e-06
-8.63444e-06
-8.63447e-06
-8.6345e-06
-8.63453e-06
-8.63456e-06
-8.6346e-06
-8.63463e-06
-8.63465e-06
-8.63469e-06
-8.63472e-06
-8.63475e-06
-8.63478e-06
-8.63481e-06
-8.63484e-06
-8.63487e-06
-8.6349e-06
-8.63493e-06
-8.63496e-06
-8.63499e-06
-8.63502e-06
-8.63505e-06
-8.63508e-06
-8.63511e-06
-8.63514e-06
-8.63517e-06
-8.6352e-06
-8.63523e-06
-8.63526e-06
-8.63529e-06
-8.63532e-06
-8.63536e-06
-8.63539e-06
-8.63542e-06
-8.63545e-06
-8.63548e-06
-8.63551e-06
-8.63554e-06
-8.63557e-06
-8.6356e-06
-8.63563e-06
-8.63566e-06
-8.63569e-06
-8.63572e-06
-8.63575e-06
-8.63578e-06
-8.63581e-06
-8.63585e-06
-8.63588e-06
-8.6359e-06
-8.63594e-06
-8.63597e-06
-8.636e-06
-8.63603e-06
-8.63606e-06
-8.63609e-06
-8.63613e-06
-8.63616e-06
-8.63618e-06
-8.63621e-06
-8.63624e-06
-8.63628e-06
-8.63631e-06
-8.63634e-06
-8.63637e-06
-8.6364e-06
-8.63643e-06
-8.63646e-06
-8.63649e-06
-8.63651e-06
-8.63655e-06
-8.63659e-06
-8.63662e-06
-8.63665e-06
-8.63668e-06
-8.6367e-06
-8.63673e-06
-8.63677e-06
-8.6368e-06
-8.63683e-06
-8.63686e-06
-8.63689e-06
-8.63692e-06
-8.63696e-06
-8.63698e-06
-8.63701e-06
-8.63705e-06
-8.63707e-06
-8.6371e-06
-8.63714e-06
-8.63717e-06
-8.6372e-06
-8.63723e-06
-8.63726e-06
-8.63729e-06
-8.63732e-06
-8.63736e-06
-8.63739e-06
-8.63741e-06
-8.63745e-06
-8.63748e-06
-8.63751e-06
-8.63754e-06
-8.63757e-06
-8.6376e-06
-8.63763e-06
-8.63766e-06
-8.63769e-06
-8.63773e-06
-8.63776e-06
-8.63779e-06
-8.63782e-06
-8.63785e-06
-8.63788e-06
-8.63791e-06
-8.63795e-06
-8.63798e-06
-8.63801e-06
-8.63804e-06
-8.63806e-06
-8.63809e-06
-8.63812e-06
-8.63816e-06
-8.63819e-06
-8.63822e-06
-8.63825e-06
-8.63828e-06
-8.63832e-06
-8.63835e-06
-8.63837e-06
-8.63841e-06
-8.63844e-06
-8.63847e-06
-8.6385e-06
-8.63853e-06
-8.63857e-06
-8.6386e-06
-8.63863e-06
-8.63865e-06
-8.63868e-06
-8.63871e-06
-8.63875e-06
-8.63878e-06
-8.63882e-06
-8.63885e-06
-8.63887e-06
-8.6389e-06
-8.63894e-06
-8.63897e-06
-8.639e-06
-8.63903e-06
-8.63906e-06
-8.63909e-06
-8.63912e-06
-8.63915e-06
-8.63919e-06
-8.63922e-06
-8.63925e-06
-8.63928e-06
-8.63931e-06
-8.63934e-06
-8.63937e-06
-8.6394e-06
-8.63943e-06
-8.63947e-06
-8.6395e-06
-8.63953e-06
-8.63956e-06
-8.63959e-06
-8.63962e-06
-8.63965e-06
-8.63969e-06
-8.63971e-06
-8.63974e-06
-8.63978e-06
-8.63981e-06
-8.63984e-06
-8.63987e-06
-8.6399e-06
-8.63994e-06
-8.63997e-06
-8.64e-06
-8.64003e-06
-8.64006e-06
-8.64009e-06
-8.64012e-06
-8.64015e-06
-8.64018e-06
-8.64022e-06
-8.64025e-06
-8.64028e-06
-8.64031e-06
-8.64034e-06
-8.64037e-06
-8.64041e-06
-8.64044e-06
-8.64047e-06
-8.6405e-06
-8.64053e-06
-8.64057e-06
-8.6406e-06
-8.64062e-06
-8.64065e-06
-8.64069e-06
-8.64072e-06
-8.64075e-06
-8.64078e-06
-8.64081e-06
-8.64085e-06
-8.64088e-06
-8.64091e-06
-8.64093e-06
-8.64096e-06
-8.641e-06
-8.64104e-06
-8.64107e-06
-8.6411e-06
-8.64113e-06
-8.64116e-06
-8.64119e-06
-8.64122e-06
-8.64125e-06
-8.64128e-06
-8.64132e-06
-8.64135e-06
-8.64138e-06
-8.64141e-06
-8.64144e-06
-8.64147e-06
-8.6415e-06
-8.64153e-06
-8.64157e-06
-8.6416e-06
-8.64163e-06
-8.64166e-06
-8.6417e-06
-8.64173e-06
-8.64175e-06
-8.64179e-06
-8.64182e-06
-8.64186e-06
-8.64189e-06
-8.64192e-06
-8.64194e-06
-8.64197e-06
-8.642e-06
-8.64204e-06
-8.64207e-06
-8.64211e-06
-8.64213e-06
-8.64216e-06
-8.64219e-06
-8.64222e-06
-8.64225e-06
-8.64228e-06
-8.6423e-06
-8.64233e-06
-8.64236e-06
-8.64238e-06
-8.64239e-06
-8.64241e-06
-8.64242e-06
-8.64243e-06
-8.64243e-06
-8.64242e-06
-8.64239e-06
-8.64236e-06
-8.64231e-06
-8.64224e-06
-8.64214e-06
-8.642e-06
-8.64181e-06
-8.64157e-06
-8.64126e-06
-8.64085e-06
-8.64034e-06
-8.63963e-06
-8.6388e-06
-8.63762e-06
-8.63628e-06
-8.63427e-06
-8.63215e-06
-8.62861e-06
-8.62541e-06
-8.61874e-06
-8.61452e-06
-8.59987e-06
-8.59881e-06
-8.55507e-06
-8.63e-06
-6.10135e-06
-6.10135e-06
0
0
0.0966099
0.0320526
0.013006
0.00682625
0.00423595
0.00291401
0.00214238
0.0016483
0.00131043
0.00106795
0.000887445
0.000749197
0.000640892
0.00055447
0.000484445
0.000426965
0.000379251
0.000339248
0.000305411
0.000276558
0.000251771
0.000230329
0.000211659
0.000195302
0.000180889
0.000168117
0.000156741
0.000146557
0.000137396
0.00012912
0.000121611
0.00011477
0.000108515
0.000102776
9.74925e-05
9.26132e-05
8.80944e-05
8.38982e-05
7.99917e-05
7.63465e-05
7.29376e-05
6.97433e-05
6.67443e-05
6.39237e-05
6.12666e-05
5.87594e-05
5.63904e-05
5.41488e-05
5.2025e-05
5.00105e-05
4.80973e-05
4.62783e-05
4.45473e-05
4.28982e-05
4.13257e-05
3.98249e-05
3.83914e-05
3.70209e-05
3.57097e-05
3.44543e-05
3.32514e-05
3.2098e-05
3.09913e-05
2.99287e-05
2.89078e-05
2.79265e-05
2.69825e-05
2.6074e-05
2.51991e-05
2.43562e-05
2.35436e-05
2.27598e-05
2.20035e-05
2.12733e-05
2.0568e-05
1.98865e-05
1.92276e-05
1.85903e-05
1.79736e-05
1.73767e-05
1.67986e-05
1.62386e-05
1.56959e-05
1.51696e-05
1.46593e-05
1.41641e-05
1.36835e-05
1.32169e-05
1.27637e-05
1.23234e-05
1.18954e-05
1.14794e-05
1.10748e-05
1.06813e-05
1.02983e-05
9.92555e-06
9.56261e-06
9.20914e-06
8.86479e-06
8.52925e-06
8.20219e-06
7.88331e-06
7.57234e-06
7.269e-06
6.97303e-06
6.68418e-06
6.40221e-06
6.12689e-06
5.85801e-06
5.59535e-06
5.3387e-06
5.08788e-06
4.84271e-06
4.603e-06
4.36858e-06
4.13929e-06
3.91496e-06
3.69545e-06
3.48061e-06
3.27031e-06
3.06439e-06
2.86274e-06
2.66523e-06
2.47174e-06
2.28216e-06
2.09636e-06
1.91424e-06
1.7357e-06
1.56065e-06
1.38897e-06
1.22058e-06
1.05539e-06
8.93311e-07
7.34257e-07
5.78145e-07
4.24905e-07
2.7446e-07
1.26732e-07
-1.83526e-08
-1.60859e-07
-3.00849e-07
-4.38386e-07
-5.73533e-07
-7.06356e-07
-8.36909e-07
-9.65246e-07
-1.09143e-06
-1.2155e-06
-1.33751e-06
-1.45752e-06
-1.57557e-06
-1.6917e-06
-1.80597e-06
-1.91841e-06
-2.02907e-06
-2.13799e-06
-2.2452e-06
-2.35075e-06
-2.45468e-06
-2.55701e-06
-2.65778e-06
-2.75704e-06
-2.85481e-06
-2.95112e-06
-3.04601e-06
-3.1395e-06
-3.23162e-06
-3.32242e-06
-3.4119e-06
-3.5001e-06
-3.58704e-06
-3.67276e-06
-3.75726e-06
-3.84059e-06
-3.92276e-06
-4.0038e-06
-4.08372e-06
-4.16255e-06
-4.2403e-06
-4.31701e-06
-4.3927e-06
-4.46737e-06
-4.54105e-06
-4.61376e-06
-4.68551e-06
-4.75632e-06
-4.82622e-06
-4.8952e-06
-4.9633e-06
-5.03053e-06
-5.0969e-06
-5.16243e-06
-5.22714e-06
-5.29103e-06
-5.35413e-06
-5.41643e-06
-5.47797e-06
-5.53874e-06
-5.59878e-06
-5.65807e-06
-5.71664e-06
-5.7745e-06
-5.83166e-06
-5.88813e-06
-5.94393e-06
-5.99907e-06
-6.05354e-06
-6.10737e-06
-6.16056e-06
-6.21313e-06
-6.26509e-06
-6.31643e-06
-6.36718e-06
-6.41733e-06
-6.46691e-06
-6.51592e-06
-6.56437e-06
-6.61226e-06
-6.6596e-06
-6.70641e-06
-6.75268e-06
-6.79842e-06
-6.84366e-06
-6.88838e-06
-6.9326e-06
-6.97633e-06
-7.01957e-06
-7.06232e-06
-7.1046e-06
-7.14642e-06
-7.18777e-06
-7.22867e-06
-7.26912e-06
-7.30912e-06
-7.34868e-06
-7.38782e-06
-7.42652e-06
-7.4648e-06
-7.50268e-06
-7.54013e-06
-7.57718e-06
-7.61383e-06
-7.6501e-06
-7.68596e-06
-7.72144e-06
-7.75655e-06
-7.79127e-06
-7.82563e-06
-7.85961e-06
-7.89324e-06
-7.9265e-06
-7.95941e-06
-7.99198e-06
-8.0242e-06
-8.05608e-06
-8.08762e-06
-8.11883e-06
-8.1497e-06
-8.18025e-06
-8.21048e-06
-8.24039e-06
-8.26999e-06
-8.29927e-06
-8.32825e-06
-8.35692e-06
-8.3853e-06
-8.41338e-06
-8.44116e-06
-8.46865e-06
-8.49586e-06
-8.52278e-06
-8.54942e-06
-8.5758e-06
-8.6019e-06
-8.62774e-06
-8.65332e-06
-8.67863e-06
-8.70369e-06
-8.7285e-06
-8.75307e-06
-8.7774e-06
-8.80149e-06
-8.82535e-06
-8.84898e-06
-8.87239e-06
-8.8956e-06
-8.91859e-06
-8.94138e-06
-8.96396e-06
-8.98636e-06
-9.00858e-06
-9.03062e-06
-9.05247e-06
-9.07416e-06
-9.0957e-06
-9.11707e-06
-9.1383e-06
-9.1594e-06
-9.18036e-06
-9.20119e-06
-9.22189e-06
-9.24248e-06
-9.26296e-06
-9.28334e-06
-9.30362e-06
-9.32381e-06
-9.34391e-06
-9.36392e-06
-9.38386e-06
-9.40373e-06
-9.42354e-06
-9.44328e-06
-9.46297e-06
-9.4826e-06
-9.50218e-06
-9.52171e-06
-9.5412e-06
-9.56065e-06
-9.58006e-06
-9.59943e-06
-9.61877e-06
-9.63807e-06
-9.65735e-06
-9.67659e-06
-9.6958e-06
-9.71498e-06
-9.73413e-06
-9.75325e-06
-9.77234e-06
-9.79141e-06
-9.81044e-06
-9.82943e-06
-9.8484e-06
-9.86733e-06
-9.88622e-06
-9.90507e-06
-9.92388e-06
-9.94265e-06
-9.96137e-06
-9.98005e-06
-9.99867e-06
-1.00172e-05
-1.00358e-05
-1.00542e-05
-1.00726e-05
-1.00909e-05
-1.01092e-05
-1.01273e-05
-1.01454e-05
-1.01635e-05
-1.01814e-05
-1.01992e-05
-1.0217e-05
-1.02346e-05
-1.02522e-05
-1.02696e-05
-1.0287e-05
-1.03042e-05
-1.03213e-05
-1.03383e-05
-1.03552e-05
-1.03719e-05
-1.03885e-05
-1.0405e-05
-1.04213e-05
-1.04374e-05
-1.04535e-05
-1.04693e-05
-1.04851e-05
-1.05006e-05
-1.0516e-05
-1.05312e-05
-1.05463e-05
-1.05612e-05
-1.05759e-05
-1.05904e-05
-1.06048e-05
-1.06189e-05
-1.06329e-05
-1.06467e-05
-1.06603e-05
-1.06737e-05
-1.06869e-05
-1.06999e-05
-1.07128e-05
-1.07254e-05
-1.07378e-05
-1.075e-05
-1.0762e-05
-1.07738e-05
-1.07854e-05
-1.07968e-05
-1.08079e-05
-1.08189e-05
-1.08296e-05
-1.08402e-05
-1.08505e-05
-1.08606e-05
-1.08705e-05
-1.08802e-05
-1.08897e-05
-1.0899e-05
-1.09081e-05
-1.09169e-05
-1.09256e-05
-1.0934e-05
-1.09423e-05
-1.09503e-05
-1.09582e-05
-1.09658e-05
-1.09732e-05
-1.09805e-05
-1.09875e-05
-1.09943e-05
-1.1001e-05
-1.10074e-05
-1.10137e-05
-1.10198e-05
-1.10257e-05
-1.10314e-05
-1.10369e-05
-1.10422e-05
-1.10474e-05
-1.10524e-05
-1.10572e-05
-1.10619e-05
-1.10663e-05
-1.10707e-05
-1.10748e-05
-1.10788e-05
-1.10827e-05
-1.10864e-05
-1.109e-05
-1.10934e-05
-1.10966e-05
-1.10998e-05
-1.11027e-05
-1.11056e-05
-1.11083e-05
-1.11109e-05
-1.11134e-05
-1.11158e-05
-1.1118e-05
-1.11202e-05
-1.11222e-05
-1.11241e-05
-1.1126e-05
-1.11277e-05
-1.11293e-05
-1.11309e-05
-1.11323e-05
-1.11337e-05
-1.1135e-05
-1.11362e-05
-1.11373e-05
-1.11383e-05
-1.11393e-05
-1.11402e-05
-1.11411e-05
-1.11419e-05
-1.11426e-05
-1.11433e-05
-1.11439e-05
-1.11445e-05
-1.11451e-05
-1.11455e-05
-1.1146e-05
-1.11464e-05
-1.11468e-05
-1.11471e-05
-1.11474e-05
-1.11477e-05
-1.11479e-05
-1.11482e-05
-1.11484e-05
-1.11485e-05
-1.11487e-05
-1.11488e-05
-1.1149e-05
-1.11491e-05
-1.11492e-05
-1.11493e-05
-1.11494e-05
-1.11494e-05
-1.11495e-05
-1.11496e-05
-1.11496e-05
-1.11497e-05
-1.11497e-05
-1.11498e-05
-1.11498e-05
-1.11499e-05
-1.11499e-05
-1.115e-05
-1.115e-05
-1.115e-05
-1.11501e-05
-1.11501e-05
-1.11502e-05
-1.11502e-05
-1.11502e-05
-1.11503e-05
-1.11503e-05
-1.11504e-05
-1.11504e-05
-1.11504e-05
-1.11505e-05
-1.11505e-05
-1.11505e-05
-1.11506e-05
-1.11506e-05
-1.11507e-05
-1.11507e-05
-1.11508e-05
-1.11508e-05
-1.11508e-05
-1.11509e-05
-1.11509e-05
-1.1151e-05
-1.1151e-05
-1.1151e-05
-1.11511e-05
-1.11511e-05
-1.11512e-05
-1.11512e-05
-1.11512e-05
-1.11513e-05
-1.11513e-05
-1.11514e-05
-1.11514e-05
-1.11514e-05
-1.11515e-05
-1.11515e-05
-1.11516e-05
-1.11516e-05
-1.11516e-05
-1.11517e-05
-1.11517e-05
-1.11518e-05
-1.11518e-05
-1.11518e-05
-1.11519e-05
-1.11519e-05
-1.1152e-05
-1.1152e-05
-1.1152e-05
-1.11521e-05
-1.11521e-05
-1.11522e-05
-1.11522e-05
-1.11522e-05
-1.11523e-05
-1.11523e-05
-1.11524e-05
-1.11524e-05
-1.11524e-05
-1.11525e-05
-1.11525e-05
-1.11526e-05
-1.11526e-05
-1.11526e-05
-1.11527e-05
-1.11527e-05
-1.11528e-05
-1.11528e-05
-1.11528e-05
-1.11529e-05
-1.11529e-05
-1.1153e-05
-1.1153e-05
-1.1153e-05
-1.11531e-05
-1.11531e-05
-1.11532e-05
-1.11532e-05
-1.11532e-05
-1.11533e-05
-1.11533e-05
-1.11534e-05
-1.11534e-05
-1.11534e-05
-1.11535e-05
-1.11535e-05
-1.11536e-05
-1.11536e-05
-1.11537e-05
-1.11537e-05
-1.11537e-05
-1.11538e-05
-1.11538e-05
-1.11539e-05
-1.11539e-05
-1.11539e-05
-1.1154e-05
-1.1154e-05
-1.11541e-05
-1.11541e-05
-1.11541e-05
-1.11542e-05
-1.11542e-05
-1.11543e-05
-1.11543e-05
-1.11543e-05
-1.11544e-05
-1.11544e-05
-1.11545e-05
-1.11545e-05
-1.11545e-05
-1.11546e-05
-1.11546e-05
-1.11547e-05
-1.11547e-05
-1.11547e-05
-1.11548e-05
-1.11548e-05
-1.11549e-05
-1.11549e-05
-1.1155e-05
-1.1155e-05
-1.1155e-05
-1.11551e-05
-1.11551e-05
-1.11552e-05
-1.11552e-05
-1.11552e-05
-1.11553e-05
-1.11553e-05
-1.11554e-05
-1.11554e-05
-1.11554e-05
-1.11555e-05
-1.11555e-05
-1.11556e-05
-1.11556e-05
-1.11556e-05
-1.11557e-05
-1.11557e-05
-1.11558e-05
-1.11558e-05
-1.11558e-05
-1.11559e-05
-1.11559e-05
-1.1156e-05
-1.1156e-05