# vtk DataFile Version 2.0
FlowField
ASCII
DATASET STRUCTURED_GRID
DIMENSIONS 800 1 200
POINTS 160000 float
0 0 0
0.04 0 0
0.08 0 0
0.12 0 0
0.16 0 0
0.2 0 0
0.24 0 0
0.28 0 0
0.32 0 0
0.36 0 0
0.4 0 0
0.44 0 0
0.48 0 0
0.52 0 0
0.56 0 0
0.6 0 0
0.64 0 0
0.68 0 0
0.72 0 0
0.76 0 0
0.8 0 0
0.84 0 0
0.88 0 0
0.92 0 0
0.96 0 0
1 0 0
1.04 0 0
1.08 0 0
1.12 0 0
1.16 0 0
1.2 0 0
1.24 0 0
1.28 0 0
1.32 0 0
1.36 0 0
1.4 0 0
1.44 0 0
1.48 0 0
1.52 0 0
1.56 0 0
1.6 0 0
1.64 0 0
1.68 0 0
1.72 0 0
1.76 0 0
1.8 0 0
1.84 0 0
1.88 0 0
1.92 0 0
1.96 0 0
2 0 0
2.04 0 0
2.08 0 0
2.12 0 0
2.16 0 0
2.2 0 0
2.24 0 0
2.28 0 0
2.32 0 0
2.36 0 0
2.4 0 0
2.44 0 0
2.48 0 0
2.52 0 0
2.56 0 0
2.6 0 0
2.64 0 0
2.68 0 0
2.72 0 0
2.76 0 0
2.8 0 0
2.84 0 0
2.88 0 0
2.92 0 0
2.96 0 0
3 0 0
3.04 0 0
3.08 0 0
3.12 0 0
3.16 0 0
3.2 0 0
3.24 0 0
3.28 0 0
3.32 0 0
3.36 0 0
3.4 0 0
3.44 0 0
3.48 0 0
3.52 0 0
3.56 0 0
3.6 0 0
3.64 0 0
3.68 0 0
3.72 0 0
3.76 0 0
3.8 0 0
3.84 0 0
3.88 0 0
3.92 0 0
3.96 0 0
4 0 0
4.04 0 0
4.08 0 0
4.12 0 0
4.16 0 0
4.2 0 0
4.24 0 0
4.28 0 0
4.32 0 0
4.36 0 0
4.4 0 0
4.44 0 0
4.48 0 0
4.52 0 0
4.56 0 0
4.6 0 0
4.64 0 0
4.68 0 0
4.72 0 0
4.76 0 0
4.8 0 0
4.84 0 0
4.88 0 0
4.92 0 0
4.96 0 0
5 0 0
5.04 0 0
5.08 0 0
5.12 0 0
5.16 0 0
5.2 0 0
5.24 0 0
5.28 0 0
5.32 0 0
5.36 0 0
5.4 0 0
5.44 0 0
5.48 0 0
5.52 0 0
5.56 0 0
5.6 0 0
5.64 0 0
5.68 0 0
5.72 0 0
5.76 0 0
5.8 0 0
5.84 0 0
5.88 0 0
5.92 0 0
5.96 0 0
6 0 0
6.04 0 0
6.08 0 0
6.12 0 0
6.16 0 0
6.2 0 0
6.24 0 0
6.28 0 0
6.32 0 0
6.36 0 0
6.4 0 0
6.44 0 0
6.48 0 0
6.52 0 0
6.56 0 0
6.6 0 0
6.64 0 0
6.68 0 0
6.72 0 0
6.76 0 0
6.8 0 0
6.84 0 0
6.88 0 0
6.92 0 0
6.96 0 0
7 0 0
7.04 0 0
7.08 0 0
7.12 0 0
7.16 0 0
7.2 0 0
7.24 0 0
7.28 0 0
7.32 0 0
7.36 0 0
7.4 0 0
7.44 0 0
7.48 0 0
7.52 0 0
7.56 0 0
7.6 0 0
7.64 0 0
7.68 0 0
7.72 0 0
7.76 0 0
7.8 0 0
7.84 0 0
7.88 0 0
7.92 0 0
7.96 0 0
8 0 0
8.04 0 0
8.08 0 0
8.12 0 0
8.16 0 0
8.2 0 0
8.24 0 0
8.28 0 0
8.32 0 0
8.36 0 0
8.4 0 0
8.44 0 0
8.48 0 0
8.52 0 0
8.56 0 0
8.6 0 0
8.64 0 0
8.68 0 0
8.72 0 0
8.76 0 0
8.8 0 0
8.84 0 0
8.88 0 0
8.92 0 0
8.96 0 0
9 0 0
9.04 0 0
9.08 0 0
9.12 0 0
9.16 0 0
9.2 0 0
9.24 0 0
9.28 0 0
9.32 0 0
9.36 0 0
9.4 0 0
9.44 0 0
9.48 0 0
9.52 0 0
9.56 0 0
9.6 0 0
9.64 0 0
9.68 0 0
9.72 0 0
9.76 0 0
9.8 0 0
9.84 0 0
9.88 0 0
9.92 0 0
9.96 0 0
10 0 0
10.04 0 0
10.08 0 0
10.12 0 0
10.16 0 0
10.2 0 0
10.24 0 0
10.28 0 0
10.32 0 0
10.36 0 0
10.4 0 0
10.44 0 0
10.48 0 0
10.52 0 0
10.56 0 0
10.6 0 0
10.64 0 0
10.68 0 0
10.72 0 0
10.76 0 0
10.8 0 0
10.84 0 0
10.88 0 0
10.92 0 0
10.96 0 0
11 0 0
11.04 0 0
11.08 0 0
11.12 0 0
11.16 0 0
11.2 0 0
11.24 0 0
11.28 0 0
11.32 0 0
11.36 0 0
11.4 0 0
11.44 0 0
11.48 0 0
11.52 0 0
11.56 0 0
11.6 0 0
11.64 0 0
11.68 0 0
11.72 0 0
11.76 0 0
11.8 0 0
11.84 0 0
11.88 0 0
11.92 0 0
11.96 0 0
12 0 0
12.04 0 0
12.08 0 0
12.12 0 0
12.16 0 0
12.2 0 0
12.24 0 0
12.28 0 0
12.32 0 0
12.36 0 0
12.4 0 0
12.44 0 0
12.48 0 0
12.52 0 0
12.56 0 0
12.6 0 0
12.64 0 0
12.68 0 0
12.72 0 0
12.76 0 0
12.8 0 0
12.84 0 0
12.88 0 0
12.92 0 0
12.96 0 0
13 0 0
13.04 0 0
13.08 0 0
13.12 0 0
13.16 0 0
13.2 0 0
13.24 0 0
13.28 0 0
13.32 0 0
13.36 0 0
13.4 0 0
13.44 0 0
13.48 0 0
13.52 0 0
13.56 0 0
13.6 0 0
13.64 0 0
13.68 0 0
13.72 0 0
13.76 0 0
13.8 0 0
13.84 0 0
13.88 0 0
13.92 0 0
13.96 0 0
14 0 0
14.04 0 0
14.08 0 0
14.12 0 0
14.16 0 0
14.2 0 0
14.24 0 0
14.28 0 0
14.32 0 0
14.36 0 0
14.4 0 0
14.44 0 0
14.48 0 0
14.52 0 0
14.56 0 0
14.6 0 0
14.64 0 0
14.68 0 0
14.72 0 0
14.76 0 0
14.8 0 0
14.84 0 0
14.88 0 0
14.92 0 0
14.96 0 0
15 0 0
15.04 0 0
15.08 0 0
15.12 0 0
15.16 0 0
15.2 0 0
15.24 0 0
15.28 0 0
15.32 0 0
15.36 0 0
15.4 0 0
15.44 0 0
15.48 0 0
15.52 0 0
15.56 0 0
15.6 0 0
15.64 0 0
15.68 0 0
15.72 0 0
15.76 0 0
15.8 0 0
15.84 0 0
15.88 0 0
15.92 0 0
15.96 0 0
16 0 0
16.04 0 0
16.08 0 0
16.12 0 0
16.16 0 0
16.2 0 0
16.24 0 0
16.28 0 0
16.32 0 0
16.36 0 0
16.4 0 0
16.44 0 0
16.48 0 0
16.52 0 0
16.56 0 0
16.6 0 0
16.64 0 0
16.68 0 0
16.72 0 0
16.76 0 0
16.8 0 0
16.84 0 0
16.88 0 0
16.92 0 0
16.96 0 0
17 0 0
17.04 0 0
17.08 0 0
17.12 0 0
17.16 0 0
17.2 0 0
17.24 0 0
17.28 0 0
17.32 0 0
17.36 0 0
17.4 0 0
17.44 0 0
17.48 0 0
17.52 0 0
17.56 0 0
17.6 0 0
17.64 0 0
17.68 0 0
17.72 0 0
17.76 0 0
17.8 0 0
17.84 0 0
17.88 0 0
17.92 0 0
17.96 0 0
18 0 0
18.04 0 0
18.08 0 0
18.12 0 0
18.16 0 0
18.2 0 0
18.24 0 0
18.28 0 0
18.32 0 0
18.36 0 0
18.4 0 0
18.44 0 0
18.48 0 0
18.52 0 0
18.56 0 0
18.6 0 0
18.64 0 0
18.68 0 0
18.72 0 0
18.76 0 0
18.8 0 0
18.84 0 0
18.88 0 0
18.92 0 0
18.96 0 0
19 0 0
19.04 0 0
19.08 0 0
19.12 0 0
19.16 0 0
19.2 0 0
19.24 0 0
19.28 0 0
19.32 0 0
19.36 0 0
19.4 0 0
19.44 0 0
19.48 0 0
19.52 0 0
19.56 0 0
19.6 0 0
19.64 0 0
19.68 0 0
19.72 0 0
19.76 0 0
19.8 0 0
19.84 0 0
19.88 0 0
19.92 0 0
19.96 0 0
20 0 0
20.04 0 0
20.08 0 0
20.12 0 0
20.16 0 0
20.2 0 0
20.24 0 0
20.28 0 0
20.32 0 0
20.36 0 0
20.4 0 0
20.44 0 0
20.48 0 0
20.52 0 0
20.56 0 0
20.6 0 0
20.64 0 0
20.68 0 0
20.72 0 0
20.76 0 0
20.8 0 0
20.84 0 0
20.88 0 0
20.92 0 0
20.96 0 0
21 0 0
21.04 0 0
21.08 0 0
21.12 0 0
21.16 0 0
21.2 0 0
21.24 0 0
21.28 0 0
21.32 0 0
21.36 0 0
21.4 0 0
21.44 0 0
21.48 0 0
21.52 0 0
21.56 0 0
21.6 0 0
21.64 0 0
21.68 0 0
21.72 0 0
21.76 0 0
21.8 0 0
21.84 0 0
21.88 0 0
21.92 0 0
21.96 0 0
22 0 0
22.04 0 0
22.08 0 0
22.12 0 0
22.16 0 0
22.2 0 0
22.24 0 0
22.28 0 0
22.32 0 0
22.36 0 0
22.4 0 0
22.44 0 0
22.48 0 0
22.52 0 0
22.56 0 0
22.6 0 0
22.64 0 0
22.68 0 0
22.72 0 0
22.76 0 0
22.8 0 0
22.84 0 0
22.88 0 0
22.92 0 0
22.96 0 0
23 0 0
23.04 0 0
23.08 0 0
23.12 0 0
23.16 0 0
23.2 0 0
23.24 0 0
23.28 0 0
23.32 0 0
23.36 0 0
23.4 0 0
23.44 0 0
23.48 0 0
23.52 0 0
23.56 0 0
23.6 0 0
23.64 0 0
23.68 0 0
23.72 0 0
23.76 0 0
23.8 0 0
23.84 0 0
23.88 0 0
23.92 0 0
23.96 0 0
24 0 0
24.04 0 0
24.08 0 0
24.12 0 0
24.16 0 0
24.2 0 0
24.24 0 0
24.28 0 0
24.32 0 0
24.36 0 0
24.4 0 0
24.44 0 0
24.48 0 0
24.52 0 0
24.56 0 0
24.6 0 0
24.64 0 0
24.68 0 0
24.72 0 0
24.76 0 0
24.8 0 0
24.84 0 0
24.88 0 0
24.92 0 0
24.96 0 0
25 0 0
25.04 0 0
25.08 0 0
25.12 0 0
25.16 0 0
25.2 0 0
25.24 0 0
25.28 0 0
25.32 0 0
25.36 0 0
25.4 0 0
25.44 0 0
25.48 0 0
25.52 0 0
25.56 0 0
25.6 0 0
25.64 0 0
25.68 0 0
25.72 0 0
25.76 0 0
25.8 0 0
25.84 0 0
25.88 0 0
25.92 0 0
25.96 0 0
26 0 0
26.04 0 0
26.08 0 0
26.12 0 0
26.16 0 0
26.2 0 0
26.24 0 0
26.28 0 0
26.32 0 0
26.36 0 0
26.4 0 0
26.44 0 0
26.48 0 0
26.52 0 0
26.56 0 0
26.6 0 0
26.64 0 0
26.68 0 0
26.72 0 0
26.76 0 0
26.8 0 0
26.84 0 0
26.88 0 0
26.92 0 0
26.96 0 0
27 0 0
27.04 0 0
27.08 0 0
27.12 0 0
27.16 0 0
27.2 0 0
27.24 0 0
27.28 0 0
27.32 0 0
27.36 0 0
27.4 0 0
27.44 0 0
27.48 0 0
27.52 0 0
27.56 0 0
27.6 0 0
27.64 0 0
27.68 0 0
27.72 0 0
27.76 0 0
27.8 0 0
27.84 0 0
27.88 0 0
27.92 0 0
27.96 0 0
28 0 0
28.04 0 0
28.08 0 0
28.12 0 0
28.16 0 0
28.2 0 0
28.24 0 0
28.28 0 0
28.32 0 0
28.36 0 0
28.4 0 0
28.44 0 0
28.48 0 0
28.52 0 0
28.56 0 0
28.6 0 0
28.64 0 0
28.68 0 0
28.72 0 0
28.76 0 0
28.8 0 0
28.84 0 0
28.88 0 0
28.92 0 0
28.96 0 0
29 0 0
29.04 0 0
29.08 0 0
29.12 0 0
29.16 0 0
29.2 0 0
29.24 0 0
29.28 0 0
29.32 0 0
29.36 0 0
29.4 0 0
29.44 0 0
29.48 0 0
29.52 0 0
29.56 0 0
29.6 0 0
29.64 0 0
29.68 0 0
29.72 0 0
29.76 0 0
29.8 0 0
29.84 0 0
29.88 0 0
29.92 0 0
29.96 0 0
30 0 0
30.04 0 0
30.08 0 0
30.12 0 0
30.16 0 0
30.2 0 0
30.24 0 0
30.28 0 0
30.32 0 0
30.36 0 0
30.4 0 0
30.44 0 0
30.48 0 0
30.52 0 0
30.56 0 0
30.6 0 0
30.64 0 0
30.68 0 0
30.72 0 0
30.76 0 0
30.8 0 0
30.84 0 0
30.88 0 0
30.92 0 0
30.96 0 0
31 0 0
31.04 0 0
31.08 0 0
31.12 0 0
31.16 0 0
31.2 0 0
31.24 0 0
31.28 0 0
31.32 0 0
31.36 0 0
31.4 0 0
31.44 0 0
31.48 0 0
31.52 0 0
31.56 0 0
31.6 0 0
31.64 0 0
31.68 0 0
31.72 0 0
31.76 0 0
31.8 0 0
31.84 0 0
31.88 0 0
31.92 0 0
31.96 0 0
0 0.005 0
0.04 0.005 0
0.08 0.005 0
0.12 0.005 0
0.16 0.005 0
0.2 0.005 0
0.24 0.005 0
0.28 0.005 0
0.32 0.005 0
0.36 0.005 0
0.4 0.005 0
0.44 0.005 0
0.48 0.005 0
0.52 0.005 0
0.56 0.005 0
0.6 0.005 0
0.64 0.005 0
0.68 0.005 0
0.72 0.005 0
0.76 0.005 0
0.8 0.005 0
0.84 0.005 0
0.88 0.005 0
0.92 0.005 0
0.96 0.005 0
1 0.005 0
1.04 0.005 0
1.08 0.005 0
1.12 0.005 0
1.16 0.005 0
1.2 0.005 0
1.24 0.005 0
1.28 0.005 0
1.32 0.005 0
1.36 0.005 0
1.4 0.005 0
1.44 0.005 0
1.48 0.005 0
1.52 0.005 0
1.56 0.005 0
1.6 0.005 0
1.64 0.005 0
1.68 0.005 0
1.72 0.005 0
1.76 0.005 0
1.8 0.005 0
1.84 0.005 0
1.88 0.005 0
1.92 0.005 0
1.96 0.005 0
2 0.005 0
2.04 0.005 0
2.08 0.005 0
2.12 0.005 0
2.16 0.005 0
2.2 0.005 0
2.24 0.005 0
2.28 0.005 0
2.32 0.005 0
2.36 0.005 0
2.4 0.005 0
2.44 0.005 0
2.48 0.005 0
2.52 0.005 0
2.56 0.005 0
2.6 0.005 0
2.64 0.005 0
2.68 0.005 0
2.72 0.005 0
2.76 0.005 0
2.8 0.005 0
2.84 0.005 0
2.88 0.005 0
2.92 0.005 0
2.96 0.005 0
3 0.005 0
3.04 0.005 0
3.08 0.005 0
3.12 0.005 0
3.16 0.005 0
3.2 0.005 0
3.24 0.005 0
3.28 0.005 0
3.32 0.005 0
3.36 0.005 0
3.4 0.005 0
3.44 0.005 0
3.48 0.005 0
3.52 0.005 0
3.56 0.005 0
3.6 0.005 0
3.64 0.005 0
3.68 0.005 0
3.72 0.005 0
3.76 0.005 0
3.8 0.005 0
3.84 0.005 0
3.88 0.005 0
3.92 0.005 0
3.96 0.005 0
4 0.005 0
4.04 0.005 0
4.08 0.005 0
4.12 0.005 0
4.16 0.005 0
4.2 0.005 0
4.24 0.005 0
4.28 0.005 0
4.32 0.005 0
4.36 0.005 0
4.4 0.005 0
4.44 0.005 0
4.48 0.005 0
4.52 0.005 0
4.56 0.005 0
4.6 0.005 0
4.64 0.005 0
4.68 0.005 0
4.72 0.005 0
4.76 0.005 0
4.8 0.005 0
4.84 0.005 0
4.88 0.005 0
4.92 0.005 0
4.96 0.005 0
5 0.005 0
5.04 0.005 0
5.08 0.005 0
5.12 0.005 0
5.16 0.005 0
5.2 0.005 0
5.24 0.005 0
5.28 0.005 0
5.32 0.005 0
5.36 0.005 0
5.4 0.005 0
5.44 0.005 0
5.48 0.005 0
5.52 0.005 0
5.56 0.005 0
5.6 0.005 0
5.64 0.005 0
5.68 0.005 0
5.72 0.005 0
5.76 0.005 0
5.8 0.005 0
5.84 0.005 0
5.88 0.005 0
5.92 0.005 0
5.96 0.005 0
6 0.005 0
6.04 0.005 0
6.08 0.005 0
6.12 0.005 0
6.16 0.005 0
6.2 0.005 0
6.24 0.005 0
6.28 0.005 0
6.32 0.005 0
6.36 0.005 0
6.4 0.005 0
6.44 0.005 0
6.48 0.005 0
6.52 0.005 0
6.56 0.005 0
6.6 0.005 0
6.64 0.005 0
6.68 0.005 0
6.72 0.005 0
6.76 0.005 0
6.8 0.005 0
6.84 0.005 0
6.88 0.005 0
6.92 0.005 0
6.96 0.005 0
7 0.005 0
7.04 0.005 0
7.08 0.005 0
7.12 0.005 0
7.16 0.005 0
7.2 0.005 0
7.24 0.005 0
7.28 0.005 0
7.32 0.005 0
7.36 0.005 0
7.4 0.005 0
[...]
POINT_DATA 160000

SCALARS v float 1
LOOKUP_TABLE default
0
0
0
0
0
0
0
0
0
0
0
0
0
0
0
0
0
0
0
0
0
0
0
0
0
0
0
0
0
0
0
0
0
0
0
0
0
0
0
0
0
0
0
0
0
0
0
0
0
0
0
0
0
0
0
0
0
0
0
0
0
0
0
0
0
0
0
0
0
0
0
0
0
0
0
0
0
0
0
0
0
0
0
0
0
0
0
0
0
0
0
0
0
0
0
0
0
0
0
0
0
0
0
0
0
0
0
0
0
0
0
0
0
0
0
0
0
0
0
0
0
0
0
0
0
0
0
0
0
0
0
0
0
0
0
0
0
0
0
0
0
0
0
0
0
0
0
0
0
0
0
0
0
0
0
0
0
0
0
0
0
0
0
0
0
0
0
0
0
0
0
0
0
0
0
0
0
0
0
0
0
0
0
0
0
0
0
0
0
0
0
0
0
0
0
0
0
0
0
0
0
0
0
0
0
0
0
0
0
0
0
0
0
0
0
0
0
0
0
0
0
0
0
0
0
0
0
0
0
0
0
0
0
0
0
0
0
0
0
0
0
0
0
0
0
0
0
0
0
0
0
0
0
0
0
0
0
0
0
0
0
0
0
0
0
0
0
0
0
0
0
0
0
0
0
0
0
0
0
0
0
0
0
0
0
0
0
0
0
0
0
0
0
0
0
0
0
0
0
0
0
0
0
0
0
0
0
0
0
0
0
0
0
0
0
0
0
0
0
0
0
0
0
0
0
0
0
0
0
0
0
0
0
0
0
0
0
0
0
0
0
0
0
0
0
0
0
0
0
0
0
0
0
0
0
0
0
0
0
0
0
0
0
0
0
0
0
0
0
0
0
0
0
0
0
0
0
0
0
0
0
0
0
0
0
0
0
0
0
0
0
0
0
0
0
0
0
0
0
0
0
0
0
0
0
0
0
0
0
0
0
0
0
0
0
0
0
0
0
0
0
0
0
0
0
0
0
0
0
0
0
0
0
0
0
0
0
0
0
0
0
0
0
0
0
0
0
0
0
0
0
0
0
0
0
0
0
0
0
0
0
0
0
0
0
0
0
0
0
0
0
0
0
0
0
0
0
0
0
0
0
0
0
0
0
0
0
0
0
0
0
0
0
0
0
0
0
0
0
0
0
0
0
0
0
0
0
0
0
0
0
0
0
0
0
0
0
0
0
0
0
0
0
0
0
0
0
0
0
0
0
0
0
0
0
0
0
0
0
0
0
0
0
0
0
0
0
0
0
0
0
0
0
0
0
0
0
0
0
0
0
0
0
0
0
0
0
0
0
0
0
0
0
0
0
0
0
0
0
0
0
0
0
0
0
0
0
0
0
0
0
0
0
0
0
0
0
0
0
0
0
0
0
0
0
0
0
0
0
0
0
0
0
0
0
0
0
0
0
0
0
0
0
0
0
0
0
0
0
0
0
0
0
0
0
0
0
0
0
0
0
0
0
0
0
0
0
0
0
0
0
0
0
0
0
0
0
0
0
0
0
0
0
0
0
0
0
0
0
0
0
0
0
0
0
0
0
0
0
0
0
0
0
0
0
0
0
0
0
0
0
0
0
0
0
0
0
0
0
0
0
0
0
0
0
0
0
0
0
0
0
0
0
0
0
0
0
0
0
0
0
0
0
0
0
0
0
0
0
0
0
0
0
0
0
0
0
0
0
0
0
0
0
0
0
0
0
0
0
0
0
0
0
0
0
0
0
0
0
0
0
0
0
0
0
0
0
0
0
0
0
0
0
0
0
0
0
0
0
0
0
0
0
0
0
0
0
0
0
0
0
0
0
0
0
0
0
0
0
0
0
0
0.0374155
0.00938091
0.00346775
0.00176613
0.00108065
0.00073689
0.000538113
0.000411568
0.000325368
0.00026368
0.000217859
0.000182828
0.000155426
0.00013359
0.000115917
0.000101425
8.94068e-05
7.93389e-05
7.0829e-05
6.3577e-05
5.73502e-05
5.19659e-05
4.72794e-05
4.31747e-05
3.95584e-05
3.63543e-05
3.35003e-05
3.09454e-05
2.86473e-05
2.65707e-05
2.46862e-05
2.29693e-05
2.13991e-05
1.99579e-05
1.86308e-05
1.7405e-05
1.62695e-05
1.52148e-05
1.42326e-05
1.33159e-05
1.24584e-05
1.16547e-05
1.09e-05
1.01901e-05
9.52108e-06
8.88975e-06
8.2931e-06
7.72844e-06
7.19338e-06
6.68574e-06
6.20359e-06
5.74513e-06
5.30876e-06
4.89301e-06
4.49653e-06
4.11809e-06
3.75658e-06
3.41093e-06
3.0802e-06
2.76351e-06
2.46005e-06
2.16905e-06
1.88982e-06
1.62171e-06
1.36411e-06
1.11647e-06
8.78243e-07
6.48951e-07
4.28139e-07
2.15377e-07
1.02614e-08
-1.87582e-07
-3.78504e-07
-5.62835e-07
-7.40891e-07
-9.1296e-07
-1.07931e-06
-1.24021e-06
-1.39591e-06
-1.54663e-06
-1.6926e-06
-1.834e-06
-1.97106e-06
-2.10394e-06
-2.23282e-06
-2.35787e-06
-2.47924e-06
-2.59709e-06
-2.71155e-06
-2.82275e-06
-2.93083e-06
-3.03591e-06
-3.13809e-06
-3.2375e-06
-3.33423e-06
-3.42839e-06
-3.52007e-06
-3.60935e-06
-3.69634e-06
-3.7811e-06
-3.86372e-06
-3.94427e-06
-4.02283e-06
-4.09947e-06
-4.17424e-06
-4.24721e-06
-4.31845e-06
-4.38801e-06
-4.45594e-06
-4.5223e-06
-4.58714e-06
-4.65051e-06
-4.71246e-06
-4.77302e-06
-4.83226e-06
-4.89019e-06
-4.94687e-06
-5.00234e-06
-5.05662e-06
-5.10976e-06
-5.1618e-06
-5.21276e-06
-5.26267e-06
-5.31156e-06
-5.35947e-06
-5.40642e-06
-5.45244e-06
-5.49757e-06
-5.5418e-06
-5.58519e-06
-5.62774e-06
-5.66949e-06
-5.71045e-06
-5.75065e-06
-5.79011e-06
-5.82883e-06
-5.86686e-06
-5.9042e-06
-5.94087e-06
-5.97689e-06
-6.01227e-06
-6.04703e-06
-6.08119e-06
-6.11476e-06
-6.14776e-06
-6.1802e-06
-6.21209e-06
-6.24346e-06
-6.2743e-06
-6.30464e-06
-6.33448e-06
-6.36383e-06
-6.39272e-06
-6.42114e-06
-6.44912e-06
-6.47665e-06
-6.50375e-06
-6.53043e-06
-6.55671e-06
-6.58258e-06
-6.60806e-06
-6.63315e-06
-6.65786e-06
-6.68221e-06
-6.7062e-06
-6.72984e-06
-6.75313e-06
-6.77609e-06
-6.79871e-06
-6.82101e-06
-6.84299e-06
-6.86467e-06
-6.88603e-06
-6.9071e-06
-6.92788e-06
-6.94837e-06
-6.96858e-06
-6.98851e-06
-7.00817e-06
-7.02757e-06
-7.04671e-06
-7.06559e-06
-7.08423e-06
-7.10261e-06
-7.12076e-06
-7.13867e-06
-7.15634e-06
-7.17379e-06
-7.19101e-06
-7.20801e-06
-7.2248e-06
-7.24137e-06
-7.25773e-06
-7.27389e-06
-7.28985e-06
-7.30561e-06
-7.32117e-06
-7.33654e-06
-7.35172e-06
-7.36672e-06
-7.38153e-06
-7.39617e-06
-7.41063e-06
-7.42491e-06
-7.43903e-06
-7.45298e-06
-7.46676e-06
-7.48039e-06
-7.49386e-06
-7.50717e-06
-7.52034e-06
-7.53336e-06
-7.54623e-06
-7.55896e-06
-7.57156e-06
-7.58403e-06
-7.59638e-06
-7.6086e-06
-7.6207e-06
-7.63269e-06
-7.64458e-06
-7.65636e-06
-7.66805e-06
-7.67964e-06
-7.69115e-06
-7.70259e-06
-7.71394e-06
-7.72523e-06
-7.73646e-06
-7.74763e-06
-7.75875e-06
-7.76983e-06
-7.78086e-06
-7.79186e-06
-7.80283e-06
-7.81378e-06
-7.82471e-06
-7.83562e-06
-7.84653e-06
-7.85742e-06
-7.86831e-06
-7.87919e-06
-7.89008e-06
-7.90096e-06
-7.91186e-06
-7.92275e-06
-7.93365e-06
-7.94456e-06
-7.95548e-06
-7.9664e-06
-7.97732e-06
-7.98825e-06
-7.99918e-06
-8.01011e-06
-8.02104e-06
-8.03196e-06
-8.04288e-06
-8.0538e-06
-8.0647e-06
-8.07559e-06
-8.08647e-06
-8.09732e-06
-8.10815e-06
-8.11896e-06
-8.12974e-06
-8.14048e-06
-8.1512e-06
-8.16188e-06
-8.17251e-06
-8.1831e-06
-8.19365e-06
-8.20414e-06
-8.21459e-06
-8.22498e-06
-8.2353e-06
-8.24557e-06
-8.25578e-06
-8.26591e-06
-8.27598e-06
-8.28597e-06
-8.29589e-06
-8.30573e-06
-8.31549e-06
-8.32517e-06
-8.33476e-06
-8.34426e-06
-8.35368e-06
-8.36301e-06
-8.37223e-06
-8.38136e-06
-8.39039e-06
-8.39932e-06
-8.40815e-06
-8.41688e-06
-8.4255e-06
-8.43401e-06
-8.44241e-06
-8.4507e-06
-8.45888e-06
-8.46695e-06
-8.47489e-06
-8.48272e-06
-8.49044e-06
-8.49804e-06
-8.50551e-06
-8.51286e-06
-8.5201e-06
-8.52721e-06
-8.5342e-06
-8.54106e-06
-8.5478e-06
-8.55442e-06
-8.56092e-06
-8.56728e-06
-8.57353e-06
-8.57965e-06
-8.58565e-06
-8.59152e-06
-8.59727e-06
-8.60289e-06
-8.60839e-06
-8.61377e-06
-8.61902e-06
-8.62415e-06
-8.62916e-06
-8.63405e-06
-8.63882e-06
-8.64347e-06
-8.648e-06
-8.65241e-06
-8.6567e-06
-8.66088e-06
-8.66494e-06
-8.66889e-06
-8.67272e-06
-8.67644e-06
-8.68005e-06
-8.68355e-06
-8.68694e-06
-8.69022e-06
-8.6934e-06
-8.69647e-06
-8.69944e-06
-8.7023e-06
-8.70507e-06
-8.70774e-06
-8.7103e-06
-8.71277e-06
-8.71515e-06
-8.71744e-06
-8.71963e-06
-8.72173e-06
-8.72375e-06
-8.72568e-06
-8.72752e-06
-8.72929e-06
-8.73097e-06
-8.73257e-06
-8.73409e-06
-8.73555e-06
-8.73693e-06
-8.73823e-06
-8.73947e-06
-8.74065e-06
-8.74175e-06
-8.7428e-06
-8.74378e-06
-8.7447e-06
-8.74557e-06
-8.74637e-06
-8.74712e-06
-8.74781e-06
-8.74845e-06
-8.74904e-06
-8.74957e-06
-8.75006e-06
-8.75051e-06
-8.75091e-06
-8.75127e-06
-8.75159e-06
-8.75188e-06
-8.75213e-06
-8.75236e-06
-8.75256e-06
-8.75273e-06
-8.75289e-06
-8.75303e-06
-8.75316e-06
-8.75327e-06
-8.75338e-06
-8.75347e-06
-8.75356e-06
-8.75365e-06
-8.75373e-06
-8.7538e-06
-8.75388e-06
-8.75395e-06
-8.75402e-06
-8.75409e-06
-8.75415e-06
-8.75422e-06
-8.75429e-06
-8.75435e-06
-8.75442e-06
-8.75448e-06
-8.75455e-06
-8.75462e-06
-8.75469e-06
-8.75475e-06
-8.75482e-06
-8.75489e-06
-8.75496e-06
-8.75503e-06
-8.7551e-06
-8.75517e-06
-8.75524e-06
-8.75531e-06
-8.75537e-06
-8.75544e-06
-8.75551e-06
-8.75558e-06
-8.75565e-06
-8.75572e-06
-8.75578e-06
-8.75585e-06
-8.75592e-06
-8.75599e-06
-8.75606e-06
-8.75613e-06
-8.75619e-06
-8.75626e-06
-8.75633e-06
-8.7564e-06
-8.75647e-06
-8.75654e-06
-8.75661e-06
-8.75668e-06
-8.75674e-06
-8.75681e-06
-8.75688e-06
-8.75695e-06
-8.75702e-06
-8.75709e-06
-8.75715e-06
-8.75722e-06
-8.75729e-06
-8.75736e-06
-8.75743e-06
-8.7575e-06
-8.75756e-06
-8.75763e-06
-8.7577e-06
-8.75777e-06
-8.75784e-06
-8.75791e-06
-8.75798e-06
-8.75805e-06
-8.75812e-06
-8.75818e-06
-8.75825e-06
-8.75832e-06
-8.75839e-06
-8.75846e-06
-8.75853e-06
-8.7586e-06
-8.75867e-06
-8.75873e-06
-8.7588e-06
-8.75887e-06
-8.75894e-06
-8.75901e-06
-8.75908e-06
-8.75914e-06
-8.75921e-06
-8.75929e-06
-8.75936e-06
-8.75943e-06
-8.75949e-06
-8.75956e-06
-8.75963e-06
-8.7597e-06
-8.75977e-06
-8.75984e-06
-8.75991e-06
-8.75998e-06
-8.76004e-06
-8.76011e-06
-8.76018e-06
-8.76025e-06
-8.76032e-06
-8.76039e-06
-8.76046e-06
-8.76053e-06
-8.7606e-06
-8.76067e-06
-8.76073e-06
-8.7608e-06
-8.76088e-06
-8.76095e-06
-8.76101e-06
-8.76108e-06
-8.76115e-06
-8.76122e-06
-8.76129e-06
-8.76136e-06
-8.76143e-06
-8.7615e-06
-8.76157e-06
-8.76164e-06
-8.76171e-06
-8.76177e-06
-8.76184e-06
-8.76191e-06
-8.76198e-06
-8.76205e-06
-8.76212e-06
-8.76219e-06
-8.76226e-06
-8.76233e-06
-8.7624e-06
-8.76247e-06
-8.76254e-06
-8.76261e-06
-8.76268e-06
-8.76274e-06
-8.76281e-06
-8.76288e-06
-8.76295e-06
-8.76302e-06
-8.76309e-06
-8.76316e-06
-8.76323e-06
-8.7633e-06
-8.76337e-06
-8.76344e-06
-8.76351e-06
-8.76358e-06
-8.76365e-06
-8.76372e-06
-8.76379e-06
-8.76386e-06
-8.76393e-06
-8.764e-06
-8.76406e-06
-8.76414e-06
-8.76421e-06
-8.76427e-06
-8.76434e-06
-8.76441e-06
-8.76448e-06
-8.76455e-06
-8.76462e-06
-8.76469e-06
-8.76476e-06
-8.76483e-06
-8.7649e-06
-8.76497e-06
-8.76504e-06
-8.76511e-06
-8.76518e-06
-8.76525e-06
-8.76532e-06
-8.76539e-06
-8.76546e-06
-8.76553e-06
-8.7656e-06
-8.76567e-06
-8.76574e-06
-8.76581e-06
-8.76588e-06
-8.76595e-06
-8.76602e-06
-8.76609e-06
-8.76616e-06
-8.76623e-06
-8.7663e-06
-8.76637e-06
-8.76644e-06
-8.76651e-06
-8.76658e-06
-8.76665e-06
-8.76672e-06
-8.76679e-06
-8.76686e-06
-8.76693e-06
-8.767e-06
-8.76707e-06
-8.76714e-06
-8.76721e-06
-8.76728e-06
-8.76735e-06
-8.76742e-06
-8.76749e-06
-8.76756e-06
-8.76763e-06
-8.7677e-06
-8.76777e-06
-8.76784e-06
-8.76791e-06
-8.76798e-06
-8.76805e-06
-8.76812e-06
-8.76819e-06
-8.76826e-06
-8.76833e-06
-8.7684e-06
-8.76847e-06
-8.76854e-06
-8.76861e-06
-8.76868e-06
-8.76875e-06
-8.76882e-06
-8.76889e-06
-8.76896e-06
-8.76903e-06
-8.7691e-06
-8.76917e-06
-8.76924e-06
-8.76931e-06
-8.76939e-06
-8.76946e-06
-8.76953e-06
-8.7696e-06
-8.76967e-06
-8.76974e-06
-8.7698e-06
-8.76987e-06
-8.76995e-06
-8.77002e-06
-8.77009e-06
-8.77016e-06
-8.77023e-06
-8.7703e-06
-8.77037e-06
-8.77044e-06
-8.77051e-06
-8.77058e-06
-8.77065e-06
-8.77072e-06
-8.77079e-06
-8.77087e-06
-8.77094e-06
-8.77101e-06
-8.77108e-06
-8.77115e-06
-8.77122e-06
-8.77129e-06
-8.77136e-06
-8.77143e-06
-8.7715e-06
-8.77157e-06
-8.77164e-06
-8.77171e-06
-8.77178e-06
-8.77185e-06
-8.77193e-06
-8.772e-06
-8.77207e-06
-8.77214e-06
-8.77221e-06
-8.77228e-06
-8.77235e-06
-8.77242e-06
-8.77249e-06
-8.77256e-06
-8.77263e-06
-8.7727e-06
-8.77278e-06
-8.77285e-06
-8.77292e-06
-8.77299e-06
-8.77306e-06
-8.77313e-06
-8.7732e-06
-8.77327e-06
-8.77334e-06
-8.77341e-06
-8.77348e-06
-8.77355e-06
-8.77363e-06
-8.7737e-06
-8.77377e-06
-8.77384e-06
-8.77391e-06
-8.77398e-06
-8.77405e-06
-8.77412e-06
-8.77419e-06
-8.77427e-06
-8.77433e-06
-8.7744e-06
-8.77448e-06
-8.77455e-06
-8.77462e-06
-8.77469e-06
-8.77476e-06
-8.77483e-06
-8.7749e-06
-8.77497e-06
-8.77504e-06
-8.77512e-06
-8.77519e-06
-8.77526e-06
-8.77533e-06
-8.7754e-06
-8.77548e-06
-8.77555e-06
-8.77562e-06
-8.77569e-06
-8.77576e-06
-8.77583e-06
-8.7759e-06
-8.77597e-06
-8.77604e-06
-8.77611e-06
-8.77618e-06
-8.77626e-06
-8.77633e-06
-8.7764e-06
-8.77647e-06
-8.77654e-06
-8.77661e-06
-8.77669e-06
-8.77676e-06
-8.77683e-06
-8.7769e-06
-8.77697e-06
-8.77705e-06
-8.77712e-06
-8.77719e-06
-8.77726e-06
-8.77733e-06
-8.7774e-06
-8.77747e-06
-8.77754e-06
-8.77761e-06
-8.77769e-06
-8.77776e-06
-8.77783e-06
-8.7779e-06
-8.77797e-06
-8.77804e-06
-8.77812e-06
-8.77819e-06
-8.77826e-06
-8.77833e-06
-8.7784e-06
-8.77848e-06
-8.77855e-06
-8.77862e-06
-8.77869e-06
-8.77876e-06
-8.77883e-06
-8.7789e-06
-8.77897e-06
-8.77904e-06
-8.77911e-06
-8.77918e-06
-8.77925e-06
-8.77932e-06
-8.77939e-06
-8.77945e-06
-8.77952e-06
-8.77958e-06
-8.77964e-06
-8.7797e-06
-8.77976e-06
-8.77981e-06
-8.77985e-06
-8.77989e-06
-8.77992e-06
-8.77993e-06
-8.77994e-06
-8.77992e-06
-8.77988e-06
-8.77981e-06
-8.7797e-06
-8.77954e-06
-8.77932e-06
-8.77904e-06
-8.77863e-06
-8.77813e-06
-8.77743e-06
-8.77659e-06
-8.77539e-06
-8.77403e-06
-8.77196e-06
-8.7698e-06
-8.76614e-06
-8.76287e-06
-8.75594e-06
-8.75168e-06
-8.73645e-06
-8.7357e-06
-8.6902e-06
-8.76951e-06
-6.19844e-06
-6.19844e-06
0
0
0.0966097
0.0320524
0.0130059
0.0068261
0.0042358
0.00291387
0.00214223
0.00164815
0.00131028
0.0010678
0.000887294
0.000749046
0.000640741
0.000554318
0.000484293
0.000426813
0.000379098
0.000339095
0.000305258
0.000276405
0.000251618
0.000230176
0.000211506
0.000195149
0.000180735
0.000167963
0.000156587
0.000146402
0.000137242
0.000128965
0.000121456
0.000114616
0.000108361
0.000102621
9.73376e-05
9.24583e-05
8.79394e-05
8.37431e-05
7.98365e-05
7.61912e-05
7.27823e-05
6.95879e-05
6.65888e-05
6.37682e-05
6.1111e-05
5.86038e-05
5.62347e-05
5.3993e-05
5.18692e-05
4.98546e-05
4.79413e-05
4.61223e-05
4.43912e-05
4.27421e-05
4.11695e-05
3.96687e-05
3.82352e-05
3.68646e-05
3.55534e-05
3.42979e-05
3.3095e-05
3.19415e-05
3.08348e-05
2.97721e-05
2.87513e-05
2.77699e-05
2.68259e-05
2.59173e-05
2.50424e-05
2.41994e-05
2.33868e-05
2.2603e-05
2.18466e-05
2.11164e-05
2.04111e-05
1.97295e-05
1.90706e-05
1.84332e-05
1.78166e-05
1.72196e-05
1.66415e-05
1.60815e-05
1.55387e-05
1.50125e-05
1.45021e-05
1.40069e-05
1.35262e-05
1.30596e-05
1.26064e-05
1.2166e-05
1.17381e-05
1.1322e-05
1.09174e-05
1.05238e-05
1.01409e-05
9.76807e-06
9.40511e-06
9.05161e-06
8.70725e-06
8.37168e-06
8.0446e-06
7.72571e-06
7.41471e-06
7.11135e-06
6.81537e-06
6.5265e-06
6.24451e-06
5.96918e-06
5.70028e-06
5.4376e-06
5.18094e-06
4.93011e-06
4.68492e-06
4.44519e-06
4.21076e-06
3.98145e-06
3.75711e-06
3.53759e-06
3.32274e-06
3.11242e-06
2.90649e-06
2.70483e-06
2.50731e-06
2.31381e-06
2.12421e-06
1.9384e-06
1.75628e-06
1.57773e-06
1.40267e-06
1.23099e-06
1.06259e-06
8.97393e-07
7.35303e-07
5.76242e-07
4.20131e-07
2.66886e-07
1.16431e-07
-3.13036e-08
-1.7639e-07
-3.18896e-07
-4.58887e-07
-5.96426e-07
-7.31577e-07
-8.64404e-07
-9.9496e-07
-1.1233e-06
-1.24947e-06
-1.37355e-06
-1.49556e-06
-1.61557e-06
-1.73362e-06
-1.84975e-06
-1.96402e-06
-2.07646e-06
-2.18711e-06
-2.29603e-06
-2.40324e-06
-2.50879e-06
-2.61271e-06
-2.71504e-06
-2.81582e-06
-2.91507e-06
-3.01283e-06
-3.10913e-06
-3.20402e-06
-3.29751e-06
-3.38963e-06
-3.48042e-06
-3.56989e-06
-3.65809e-06
-3.74503e-06
-3.83074e-06
-3.91524e-06
-3.99856e-06
-4.08073e-06
-4.16176e-06
-4.24168e-06
-4.3205e-06
-4.39826e-06
-4.47497e-06
-4.55065e-06
-4.62532e-06
-4.69899e-06
-4.7717e-06
-4.84345e-06
-4.91426e-06
-4.98415e-06
-5.05314e-06
-5.12125e-06
-5.18848e-06
-5.25485e-06
-5.32039e-06
-5.38509e-06
-5.44899e-06
-5.51209e-06
-5.5744e-06
-5.63595e-06
-5.69673e-06
-5.75677e-06
-5.81609e-06
-5.87468e-06
-5.93257e-06
-5.98976e-06
-6.04628e-06
-6.10212e-06
-6.15732e-06
-6.21186e-06
-6.26578e-06
-6.31909e-06
-6.37179e-06
-6.42391e-06
-6.47546e-06
-6.52644e-06
-6.57689e-06
-6.62681e-06
-6.67623e-06
-6.72516e-06
-6.77362e-06
-6.82162e-06
-6.8692e-06
-6.91637e-06
-6.96315e-06
-7.00956e-06
-7.05562e-06
-7.10137e-06
-7.14682e-06
-7.19199e-06
-7.2369e-06
-7.28159e-06
-7.32607e-06
-7.37036e-06
-7.41449e-06
-7.45848e-06
-7.50235e-06
-7.54612e-06
-7.58981e-06
-7.63343e-06
-7.67699e-06
-7.72053e-06
-7.76404e-06
-7.80754e-06
-7.85104e-06
-7.89454e-06
-7.93806e-06
-7.9816e-06
-8.02516e-06
-8.06875e-06
-8.11237e-06
-8.156e-06
-8.19966e-06
-8.24334e-06
-8.28703e-06
-8.33073e-06
-8.37443e-06
-8.41811e-06
-8.46179e-06
-8.50543e-06
-8.54904e-06
-8.5926e-06
-8.63611e-06
-8.67954e-06
-8.72289e-06
-8.76614e-06
-8.80929e-06
-8.85232e-06
-8.89522e-06
-8.93797e-06
-8.98056e-06
-9.02298e-06
-9.06522e-06
-9.10726e-06
-9.1491e-06
-9.19072e-06
-9.23211e-06
-9.27325e-06
-9.31414e-06
-9.35477e-06
-9.39512e-06
-9.43517e-06
-9.47493e-06
-9.51439e-06
-9.55352e-06
-9.59233e-06
-9.63079e-06
-9.66891e-06
-9.70667e-06
-9.74406e-06
-9.78107e-06
-9.8177e-06
-9.85393e-06
-9.88976e-06
-9.92519e-06
-9.96019e-06
-9.99478e-06
-1.00289e-05
-1.00626e-05
-1.00959e-05
-1.01287e-05
-1.01611e-05
-1.0193e-05
-1.02244e-05
-1.02554e-05
-1.02859e-05
-1.03159e-05
-1.03454e-05
-1.03744e-05
-1.0403e-05
-1.0431e-05
-1.04586e-05
-1.04857e-05
-1.05122e-05
-1.05383e-05
-1.05639e-05
-1.05889e-05
-1.06135e-05
-1.06376e-05
-1.06611e-05
-1.06842e-05
-1.07068e-05
-1.07289e-05
-1.07504e-05
-1.07715e-05
-1.07921e-05
-1.08122e-05
-1.08318e-05
-1.0851e-05
-1.08696e-05
-1.08878e-05
-1.09055e-05
-1.09227e-05
-1.09395e-05
-1.09557e-05
-1.09716e-05
-1.09869e-05
-1.10018e-05
-1.10163e-05
-1.10303e-05
-1.10439e-05
-1.10571e-05
-1.10698e-05
-1.10821e-05
-1.10939e-05
-1.11054e-05
-1.11165e-05
-1.11271e-05
-1.11374e-05
-1.11473e-05
-1.11568e-05
-1.11659e-05
-1.11746e-05
-1.1183e-05
-1.1191e-05
-1.11987e-05
-1.1206e-05
-1.12131e-05
-1.12197e-05
-1.12261e-05
-1.12321e-05
-1.12379e-05
-1.12433e-05
-1.12485e-05
-1.12534e-05
-1.1258e-05
-1.12623e-05
-1.12664e-05
-1.12703e-05
-1.12739e-05
-1.12772e-05
-1.12804e-05
-1.12832e-05
-1.12859e-05
-1.12884e-05
-1.12906e-05
-1.12927e-05
-1.12946e-05
-1.12962e-05
-1.12977e-05
-1.12991e-05
-1.13002e-05
-1.13013e-05
-1.13022e-05
-1.13029e-05
-1.13036e-05
-1.13042e-05
-1.13047e-05
-1.13051e-05
-1.13054e-05
-1.13057e-05
-1.1306e-05
-1.13062e-05
-1.13064e-05
-1.13066e-05
-1.13067e-05
-1.13069e-05
-1.1307e-05
-1.13071e-05
-1.13072e-05
-1.13073e-05
-1.13074e-05
-1.13074e-05
-1.13075e-05
-1.13076e-05
-1.13077e-05
-1.13078e-05
-1.13079e-05
-1.13079e-05
-1.1308e-05
-1.13081e-05
-1.13082e-05
-1.13083e-05
-1.13084e-05
-1.13085e-05
-1.13086e-05
-1.13087e-05
-1.13087e-05
-1.13088e-05
-1.13089e-05
-1.1309e-05
-1.13091e-05
-1.13092e-05
-1.13093e-05
-1.13094e-05
-1.13095e-05
-1.13096e-05
-1.13096e-05
-1.13097e-05
-1.13098e-05
-1.13099e-05
-1.131e-05
-1.13101e-05
-1.13102e-05
-1.13103e-05
-1.13104e-05
-1.13104e-05
-1.13105e-05
-1.13106e-05
-1.13107e-05
-1.13108e-05
-1.13109e-05
-1.1311e-05
-1.13111e-05
-1.13112e-05
-1.13113e-05
-1.13113e-05
-1.13114e-05
-1.13115e-05
-1.13116e-05
-1.13117e-05
-1.13118e-05
-1.13119e-05
-1.1312e-05
-1.13121e-05
-1.13122e-05
-1.13122e-05
-1.13123e-05
-1.13124e-05
-1.13125e-05
-1.13126e-05
-1.13127e-05
-1.13128e-05
-1.13129e-05
-1.1313e-05
-1.1313e-05
-1.13131e-05
-1.13132e-05
-1.13133e-05
-1.13134e-05
-1.13135e-05
-1.13136e-05
-1.13137e-05
-1.13138e-05
-1.13139e-05
-1.13139e-05
-1.1314e-05
-1.13141e-05
-1.13142e-05
-1.13143e-05
-1.13144e-05
-1.13145e-05
-1.13146e-05
-1.13147e-05
-1.13148e-05
-1.13149e-05
-1.13149e-05
-1.1315e-05
-1.13151e-05
-1.13152e-05
-1.13153e-05
-1.13154e-05
-1.13155e-05
-1.13156e-05
-1.13157e-05
-1.13158e-05
-1.13158e-05
-1.13159e-05
-1.1316e-05
-1.13161e-05
-1.13162e-05
-1.13163e-05
-1.13164e-05
-1.13165e-05
-1.13166e-05
-1.13167e-05
-1.13167e-05
-1.13168e-05
-1.13169e-05
-1.1317e-05
-1.13171e-05
-1.13172e-05
-1.13173e-05
-1.13174e-05
-1.13175e-05
-1.13176e-05
-1.13177e-05
-1.13177e-05
-1.13178e-05
-1.13179e-05
-1.1318e-05
-1.13181e-05
-1.13182e-05
-1.13183e-05
-1.13184e-05
-1.13185e-05
-1.13186e-05
-1.13187e-05
-1.13187e-05
-1.13188e-05
-1.13189e-05
-1.1319e-05
-1.13191e-05
-1.13192e-05
-1.13193e-05
-1.13194e-05
-1.13195e-05
-1.13196e-05
-1.13197e-05
-1.13197e-05
-1.13198e-05
-1.13199e-05
-1.132e-05
-1.13201e-05
-1.13202e-05
-1.13203e-05
-1.13204e-05
-1.13205e-05
-1.13206e-05
-1.13207e-05
-1.13207e-05
-1.13208e-05
-1.13209e-05
-1.1321e-05
-1.13211e-05
-1.13212e-05
-1.13213e-05
-1.13214e-05
-1.13215e-05
-1.13216e-05
-1.13217e-05
-1.13217e-05
-1.13218e-05
-1.13219e-05
-1.1322e-05
-1.13221e-05
-1.13222e-05
-1.13223e-05
-1.13224e-05
-1.13225e-05
-1.13226e-05
-1.13227e-05
-1.13227e-05
-1.13228e-05
-1.13229e-05
-1.1323e-05
-1.13231e-05
-1.13232e-05
-1.13233e-05
-1.13234e-05
-1.13235e-05
-1.13236e-05
-1.13237e-05
-1.13238e-05
-1.13239e-05
-1.13239e-05
-1.1324e-05
-1.13241e-05
-1.13242e-05
-1.13243e-05
-1.13244e-05
-1.13245e-05
-1.13246e-05
-1.13247e-05
-1.13248e-05
-1.13249e-05
-1.13249e-05
-1.1325e-05
-1.13251e-05
-1.13252e-05
-1.13253e-05
-1.13254e-05
-1.13255e-05
-1.13256e-05
-1.13257e-05
-1.13258e-05
-1.13259e-05
-1.1326e-05
-1.13261e-05
-1.13261e-05
-1.13262e-05
-1.13263e-05
-1.13264e-05
-1.13265e-05
-1.13266e-05
-1.13267e-05
-1.13268e-05
-1.13269e-05
-1.1327e-05
-1.13271e-05
-1.13272e-05
-1.13272e-05
-1.13273e-05
-1.13274e-05
-1.13275e-05
-1.13276e-05
-1.13277e-05
-1.13278e-05
-1.13279e-05
-1.1328e-05
-1.13281e-05
-1.13282e-05
-1.13283e-05
-1.13283e-05
-1.13284e-05
-1.13285e-05
-1.13286e-05
-1.13287e-05
-1.13288e-05
-1.13289e-05
-1.1329e-05
-1.13291e-05
-1.13292e-05
-1.13293e-05