# vtk DataFile Version 2.0
FlowField
ASCII
DATASET STRUCTURED_GRID
DIMENSIONS 800 1 200
POINTS 160000 float
0 0 0
0.04 0 0
0.08 0 0
0.12 0 0
0.16 0 0
0.2 0 0
0.24 0 0
0.28 0 0
0.32 0 0
0.36 0 0
0.4 0 0
0.44 0 0
0.48 0 0
0.52 0 0
0.56 0 0
0.6 0 0
0.64 0 0
0.68 0 0
0.72 0 0
0.76 0 0
0.8 0 0
0.84 0 0
0.88 0 0
0.92 0 0
0.96 0 0
1 0 0
1.04 0 0
1.08 0 0
1.12 0 0
1.16 0 0
1.2 0 0
1.24 0 0
1.28 0 0
1.32 0 0
1.36 0 0
1.4 0 0
1.44 0 0
1.48 0 0
1.52 0 0
1.56 0 0
1.6 0 0
1.64 0 0
1.68 0 0
1.72 0 0
1.76 0 0
1.8 0 0
1.84 0 0
1.88 0 0
1.92 0 0
1.96 0 0
2 0 0
2.04 0 0
2.08 0 0
2.12 0 0
2.16 0 0
2.2 0 0
2.24 0 0
2.28 0 0
2.32 0 0
2.36 0 0
2.4 0 0
2.44 0 0
2.48 0 0
2.52 0 0
2.56 0 0
2.6 0 0
2.64 0 0
2.68 0 0
2.72 0 0
2.76 0 0
2.8 0 0
2.84 0 0
2.88 0 0
2.92 0 0
2.96 0 0
3 0 0
3.04 0 0
3.08 0 0
3.12 0 0
3.16 0 0
3.2 0 0
3.24 0 0
3.28 0 0
3.32 0 0
3.36 0 0
3.4 0 0
3.44 0 0
3.48 0 0
3.52 0 0
3.56 0 0
3.6 0 0
3.64 0 0
3.68 0 0
3.72 0 0
3.76 0 0
3.8 0 0
3.84 0 0
3.88 0 0
3.92 0 0
3.96 0 0
4 0 0
4.04 0 0
4.08 0 0
4.12 0 0
4.16 0 0
4.2 0 0
4.24 0 0
4.28 0 0
4.32 0 0
4.36 0 0
4.4 0 0
4.44 0 0
4.48 0 0
4.52 0 0
4.56 0 0
4.6 0 0
4.64 0 0
4.68 0 0
4.72 0 0
4.76 0 0
4.8 0 0
4.84 0 0
4.88 0 0
4.92 0 0
4.96 0 0
5 0 0
5.04 0 0
5.08 0 0
5.12 0 0
5.16 0 0
5.2 0 0
5.24 0 0
5.28 0 0
5.32 0 0
5.36 0 0
5.4 0 0
5.44 0 0
5.48 0 0
5.52 0 0
5.56 0 0
5.6 0 0
5.64 0 0
5.68 0 0
5.72 0 0
5.76 0 0
5.8 0 0
5.84 0 0
5.88 0 0
5.92 0 0
5.96 0 0
6 0 0
6.04 0 0
6.08 0 0
6.12 0 0
6.16 0 0
6.2 0 0
6.24 0 0
6.28 0 0
6.32 0 0
6.36 0 0
6.4 0 0
6.44 0 0
6.48 0 0
6.52 0 0
6.56 0 0
6.6 0 0
6.64 0 0
6.68 0 0
6.72 0 0
6.76 0 0
6.8 0 0
6.84 0 0
6.88 0 0
6.92 0 0
6.96 0 0
7 0 0
7.04 0 0
7.08 0 0
7.12 0 0
7.16 0 0
7.2 0 0
7.24 0 0
7.28 0 0
7.32 0 0
7.36 0 0
7.4 0 0
7.44 0 0
7.48 0 0
7.52 0 0
7.56 0 0
7.6 0 0
7.64 0 0
7.68 0 0
7.72 0 0
7.76 0 0
7.8 0 0
7.84 0 0
7.88 0 0
7.92 0 0
7.96 0 0
8 0 0
8.04 0 0
8.08 0 0
8.12 0 0
8.16 0 0
8.2 0 0
8.24 0 0
8.28 0 0
8.32 0 0
8.36 0 0
8.4 0 0
8.44 0 0
8.48 0 0
8.52 0 0
8.56 0 0
8.6 0 0
8.64 0 0
8.68 0 0
8.72 0 0
8.76 0 0
8.8 0 0
8.84 0 0
8.88 0 0
8.92 0 0
8.96 0 0
9 0 0
9.04 0 0
9.08 0 0
9.12 0 0
9.16 0 0
9.2 0 0
9.24 0 0
9.28 0 0
9.32 0 0
9.36 0 0
9.4 0 0
9.44 0 0
9.48 0 0
9.52 0 0
9.56 0 0
9.6 0 0
9.64 0 0
9.68 0 0
9.72 0 0
9.76 0 0
9.8 0 0
9.84 0 0
9.88 0 0
9.92 0 0
9.96 0 0
10 0 0
10.04 0 0
10.08 0 0
10.12 0 0
10.16 0 0
10.2 0 0
10.24 0 0
10.28 0 0
10.32 0 0
10.36 0 0
10.4 0 0
10.44 0 0
10.48 0 0
10.52 0 0
10.56 0 0
10.6 0 0
10.64 0 0
10.68 0 0
10.72 0 0
10.76 0 0
10.8 0 0
10.84 0 0
10.88 0 0
10.92 0 0
10.96 0 0
11 0 0
11.04 0 0
11.08 0 0
11.12 0 0
11.16 0 0
11.2 0 0
11.24 0 0
11.28 0 0
11.32 0 0
11.36 0 0
11.4 0 0
11.44 0 0
11.48 0 0
11.52 0 0
11.56 0 0
11.6 0 0
11.64 0 0
11.68 0 0
11.72 0 0
11.76 0 0
11.8 0 0
11.84 0 0
11.88 0 0
11.92 0 0
11.96 0 0
12 0 0
12.04 0 0
12.08 0 0
12.12 0 0
12.16 0 0
12.2 0 0
12.24 0 0
12.28 0 0
12.32 0 0
12.36 0 0
12.4 0 0
12.44 0 0
12.48 0 0
12.52 0 0
12.56 0 0
12.6 0 0
12.64 0 0
12.68 0 0
12.72 0 0
12.76 0 0
12.8 0 0
12.84 0 0
12.88 0 0
12.92 0 0
12.96 0 0
13 0 0
13.04 0 0
13.08 0 0
13.12 0 0
13.16 0 0
13.2 0 0
13.24 0 0
13.28 0 0
13.32 0 0
13.36 0 0
13.4 0 0
13.44 0 0
13.48 0 0
13.52 0 0
13.56 0 0
13.6 0 0
13.64 0 0
13.68 0 0
13.72 0 0
13.76 0 0
13.8 0 0
13.84 0 0
13.88 0 0
13.92 0 0
13.96 0 0
14 0 0
14.04 0 0
14.08 0 0
14.12 0 0
14.16 0 0
14.2 0 0
14.24 0 0
14.28 0 0
14.32 0 0
14.36 0 0
14.4 0 0
14.44 0 0
14.48 0 0
14.52 0 0
14.56 0 0
14.6 0 0
14.64 0 0
14.68 0 0
14.72 0 0
14.76 0 0
14.8 0 0
14.84 0 0
14.88 0 0
14.92 0 0
14.96 0 0
15 0 0
15.04 0 0
15.08 0 0
15.12 0 0
15.16 0 0
15.2 0 0
15.24 0 0
15.28 0 0
15.32 0 0
15.36 0 0
15.4 0 0
15.44 0 0
15.48 0 0
15.52 0 0
15.56 0 0
15.6 0 0
15.64 0 0
15.68 0 0
15.72 0 0
15.76 0 0
15.8 0 0
15.84 0 0
15.88 0 0
15.92 0 0
15.96 0 0
16 0 0
16.04 0 0
16.08 0 0
16.12 0 0
16.16 0 0
16.2 0 0
16.24 0 0
16.28 0 0
16.32 0 0
16.36 0 0
16.4 0 0
16.44 0 0
16.48 0 0
16.52 0 0
16.56 0 0
16.6 0 0
16.64 0 0
16.68 0 0
16.72 0 0
16.76 0 0
16.8 0 0
16.84 0 0
16.88 0 0
16.92 0 0
16.96 0 0
17 0 0
17.04 0 0
17.08 0 0
17.12 0 0
17.16 0 0
17.2 0 0
17.24 0 0
17.28 0 0
17.32 0 0
17.36 0 0
17.4 0 0
17.44 0 0
17.48 0 0
17.52 0 0
17.56 0 0
17.6 0 0
17.64 0 0
17.68 0 0
17.72 0 0
17.76 0 0
17.8 0 0
17.84 0 0
17.88 0 0
17.92 0 0
17.96 0 0
18 0 0
18.04 0 0
18.08 0 0
18.12 0 0
18.16 0 0
18.2 0 0
18.24 0 0
18.28 0 0
18.32 0 0
18.36 0 0
18.4 0 0
18.44 0 0
18.48 0 0
18.52 0 0
18.56 0 0
18.6 0 0
18.64 0 0
18.68 0 0
18.72 0 0
18.76 0 0
18.8 0 0
18.84 0 0
18.88 0 0
18.92 0 0
18.96 0 0
19 0 0
19.04 0 0
19.08 0 0
19.12 0 0
19.16 0 0
19.2 0 0
19.24 0 0
19.28 0 0
19.32 0 0
19.36 0 0
19.4 0 0
19.44 0 0
19.48 0 0
19.52 0 0
19.56 0 0
19.6 0 0
19.64 0 0
19.68 0 0
19.72 0 0
19.76 0 0
19.8 0 0
19.84 0 0
19.88 0 0
19.92 0 0
19.96 0 0
20 0 0
20.04 0 0
20.08 0 0
20.12 0 0
20.16 0 0
20.2 0 0
20.24 0 0
20.28 0 0
20.32 0 0
20.36 0 0
20.4 0 0
20.44 0 0
20.48 0 0
20.52 0 0
20.56 0 0
20.6 0 0
20.64 0 0
20.68 0 0
20.72 0 0
20.76 0 0
20.8 0 0
20.84 0 0
20.88 0 0
20.92 0 0
20.96 0 0
21 0 0
21.04 0 0
21.08 0 0
21.12 0 0
21.16 0 0
21.2 0 0
21.24 0 0
21.28 0 0
21.32 0 0
21.36 0 0
21.4 0 0
21.44 0 0
21.48 0 0
21.52 0 0
21.56 0 0
21.6 0 0
21.64 0 0
21.68 0 0
21.72 0 0
21.76 0 0
21.8 0 0
21.84 0 0
21.88 0 0
21.92 0 0
21.96 0 0
22 0 0
22.04 0 0
22.08 0 0
22.12 0 0
22.16 0 0
22.2 0 0
22.24 0 0
22.28 0 0
22.32 0 0
22.36 0 0
22.4 0 0
22.44 0 0
22.48 0 0
22.52 0 0
22.56 0 0
22.6 0 0
22.64 0 0
22.68 0 0
22.72 0 0
22.76 0 0
22.8 0 0
22.84 0 0
22.88 0 0
22.92 0 0
22.96 0 0
23 0 0
23.04 0 0
23.08 0 0
23.12 0 0
23.16 0 0
23.2 0 0
23.24 0 0
23.28 0 0
23.32 0 0
23.36 0 0
23.4 0 0
23.44 0 0
23.48 0 0
23.52 0 0
23.56 0 0
23.6 0 0
23.64 0 0
23.68 0 0
23.72 0 0
23.76 0 0
23.8 0 0
23.84 0 0
23.88 0 0
23.92 0 0
23.96 0 0
24 0 0
24.04 0 0
24.08 0 0
24.12 0 0
24.16 0 0
24.2 0 0
24.24 0 0
24.28 0 0
24.32 0 0
24.36 0 0
24.4 0 0
24.44 0 0
24.48 0 0
24.52 0 0
24.56 0 0
24.6 0 0
24.64 0 0
24.68 0 0
24.72 0 0
24.76 0 0
24.8 0 0
24.84 0 0
24.88 0 0
24.92 0 0
24.96 0 0
25 0 0
25.04 0 0
25.08 0 0
25.12 0 0
25.16 0 0
25.2 0 0
25.24 0 0
25.28 0 0
25.32 0 0
25.36 0 0
25.4 0 0
25.44 0 0
25.48 0 0
25.52 0 0
25.56 0 0
25.6 0 0
25.64 0 0
25.68 0 0
25.72 0 0
25.76 0 0
25.8 0 0
25.84 0 0
25.88 0 0
25.92 0 0
25.96 0 0
26 0 0
26.04 0 0
26.08 0 0
26.12 0 0
26.16 0 0
26.2 0 0
26.24 0 0
26.28 0 0
26.32 0 0
26.36 0 0
26.4 0 0
26.44 0 0
26.48 0 0
26.52 0 0
26.56 0 0
26.6 0 0
26.64 0 0
26.68 0 0
26.72 0 0
26.76 0 0
26.8 0 0
26.84 0 0
26.88 0 0
26.92 0 0
26.96 0 0
27 0 0
27.04 0 0
27.08 0 0
27.12 0 0
27.16 0 0
27.2 0 0
27.24 0 0
27.28 0 0
27.32 0 0
27.36 0 0
27.4 0 0
27.44 0 0
27.48 0 0
27.52 0 0
27.56 0 0
27.6 0 0
27.64 0 0
27.68 0 0
27.72 0 0
27.76 0 0
27.8 0 0
27.84 0 0
27.88 0 0
27.92 0 0
27.96 0 0
28 0 0
28.04 0 0
28.08 0 0
28.12 0 0
28.16 0 0
28.2 0 0
28.24 0 0
28.28 0 0
28.32 0 0
28.36 0 0
28.4 0 0
28.44 0 0
28.48 0 0
28.52 0 0
28.56 0 0
28.6 0 0
28.64 0 0
28.68 0 0
28.72 0 0
28.76 0 0
28.8 0 0
28.84 0 0
28.88 0 0
28.92 0 0
28.96 0 0
29 0 0
29.04 0 0
29.08 0 0
29.12 0 0
29.16 0 0
29.2 0 0
29.24 0 0
29.28 0 0
29.32 0 0
29.36 0 0
29.4 0 0
29.44 0 0
29.48 0 0
29.52 0 0
29.56 0 0
29.6 0 0
29.64 0 0
29.68 0 0
29.72 0 0
29.76 0 0
29.8 0 0
29.84 0 0
29.88 0 0
29.92 0 0
29.96 0 0
30 0 0
30.04 0 0
30.08 0 0
30.12 0 0
30.16 0 0
30.2 0 0
30.24 0 0
30.28 0 0
30.32 0 0
30.36 0 0
30.4 0 0
30.44 0 0
30.48 0 0
30.52 0 0
30.56 0 0
30.6 0 0
30.64 0 0
30.68 0 0
30.72 0 0
30.76 0 0
30.8 0 0
30.84 0 0
30.88 0 0
30.92 0 0
30.96 0 0
31 0 0
31.04 0 0
31.08 0 0
31.12 0 0
31.16 0 0
31.2 0 0
31.24 0 0
31.28 0 0
31.32 0 0
31.36 0 0
31.4 0 0
31.44 0 0
31.48 0 0
31.52 0 0
31.56 0 0
31.6 0 0
31.64 0 0
31.68 0 0
31.72 0 0
31.76 0 0
31.8 0 0
31.84 0 0
31.88 0 0
31.92 0 0
31.96 0 0
0 0.005 0
0.04 0.005 0
0.08 0.005 0
0.12 0.005 0
0.16 0.005 0
0.2 0.005 0
0.24 0.005 0
0.28 0.005 0
0.32 0.005 0
0.36 0.005 0
0.4 0.005 0
0.44 0.005 0
0.48 0.005 0
0.52 0.005 0
0.56 0.005 0
0.6 0.005 0
0.64 0.005 0
0.68 0.005 0
0.72 0.005 0
0.76 0.005 0
0.8 0.005 0
0.84 0.005 0
0.88 0.005 0
0.92 0.005 0
0.96 0.005 0
1 0.005 0
1.04 0.005 0
1.08 0.005 0
1.12 0.005 0
1.16 0.005 0
1.2 0.005 0
1.24 0.005 0
1.28 0.005 0
1.32 0.005 0
1.36 0.005 0
1.4 0.005 0
1.44 0.005 0
1.48 0.005 0
1.52 0.005 0
1.56 0.005 0
1.6 0.005 0
1.64 0.005 0
1.68 0.005 0
1.72 0.005 0
1.76 0.005 0
1.8 0.005 0
1.84 0.005 0
1.88 0.005 0
1.92 0.005 0
1.96 0.005 0
2 0.005 0
2.04 0.005 0
2.08 0.005 0
2.12 0.005 0
2.16 0.005 0
2.2 0.005 0
2.24 0.005 0
2.28 0.005 0
2.32 0.005 0
2.36 0.005 0
2.4 0.005 0
2.44 0.005 0
2.48 0.005 0
2.52 0.005 0
2.56 0.005 0
2.6 0.005 0
2.64 0.005 0
2.68 0.005 0
2.72 0.005 0
2.76 0.005 0
2.8 0.005 0
2.84 0.005 0
2.88 0.005 0
2.92 0.005 0
2.96 0.005 0
3 0.005 0
3.04 0.005 0
3.08 0.005 0
3.12 0.005 0
3.16 0.005 0
3.2 0.005 0
3.24 0.005 0
3.28 0.005 0
3.32 0.005 0
3.36 0.005 0
3.4 0.005 0
3.44 0.005 0
3.48 0.005 0
3.52 0.005 0
3.56 0.005 0
3.6 0.005 0
3.64 0.005 0
3.68 0.005 0
3.72 0.005 0
3.76 0.005 0
3.8 0.005 0
3.84 0.005 0
3.88 0.005 0
3.92 0.005 0
3.96 0.005 0
4 0.005 0
4.04 0.005 0
4.08 0.005 0
4.12 0.005 0
4.16 0.005 0
4.2 0.005 0
4.24 0.005 0
4.28 0.005 0
4.32 0.005 0
4.36 0.005 0
4.4 0.005 0
4.44 0.005 0
4.48 0.005 0
4.52 0.005 0
4.56 0.005 0
4.6 0.005 0
4.64 0.005 0
4.68 0.005 0
4.72 0.005 0
4.76 0.005 0
4.8 0.005 0
4.84 0.005 0
4.88 0.005 0
4.92 0.005 0
4.96 0.005 0
5 0.005 0
5.04 0.005 0
5.08 0.005 0
5.12 0.005 0
5.16 0.005 0
5.2 0.005 0
5.24 0.005 0
5.28 0.005 0
5.32 0.005 0
5.36 0.005 0
5.4 0.005 0
5.44 0.005 0
5.48 0.005 0
5.52 0.005 0
5.56 0.005 0
5.6 0.005 0
5.64 0.005 0
5.68 0.005 0
5.72 0.005 0
5.76 0.005 0
5.8 0.005 0
5.84 0.005 0
5.88 0.005 0
5.92 0.005 0
5.96 0.005 0
6 0.005 0
6.04 0.005 0
6.08 0.005 0
6.12 0.005 0
6.16 0.005 0
6.2 0.005 0
6.24 0.005 0
6.28 0.005 0
6.32 0.005 0
6.36 0.005 0
6.4 0.005 0
6.44 0.005 0
6.48 0.005 0
6.52 0.005 0
6.56 0.005 0
6.6 0.005 0
6.64 0.005 0
6.68 0.005 0
6.72 0.005 0
6.76 0.005 0
6.8 0.005 0
6.84 0.005 0
6.88 0.005 0
6.92 0.005 0
6.96 0.005 0
7 0.005 0
7.04 0.005 0
7.08 0.005 0
7.12 0.005 0
7.16 0.005 0
7.2 0.005 0
7.24 0.005 0
7.28 0.005 0
7.32 0.005 0
7.36 0.005 0
7.4 0.005 0
[...]
POINT_DATA 160000

SCALARS phi float 1
LOOKUP_TABLE default
1
1
1
1
1
1
1
1
1
1
1
1
1
1
1
1
1
1
1
1
1
1
1
1
1
1
1
1
1
1
1
1
1
1
1
0.999999
0.999999
0.999999
0.999999
0.999998
0.999997
0.999997
0.999995
0.999994
0.999992
0.99999
0.999988
0.999985
0.999982
0.999978
0.999973
0.999968
0.999961
0.999954
0.999946
0.999937
0.999926
0.999914
0.999901
0.999886
0.99987
0.999852
0.999832
0.99981
0.999786
0.99976
0.999731
0.9997
0.999667
0.999631
0.999592
0.99955
0.999505
0.999457
0.999406
0.999352
0.999294
0.999232
0.999167
0.999099
0.999026
0.998949
0.998869
0.998784
0.998695
0.998602
0.998504
0.998403
0.998296
0.998185
0.998069
0.997949
0.997824
0.997694
0.997559
0.997419
0.997275
0.997125
0.99697
0.99681
0.996645
0.996475
0.9963
0.996119
0.995933
0.995742
0.995546
0.995344
0.995137
0.994924
0.994707
0.994484
0.994255
0.994021
0.993782
0.993537
0.993287
0.993032
0.992771
0.992505
0.992233
0.991956
0.991673
0.991384
0.991091
0.990791
0.990486
0.990175
0.989859
0.989536
0.989208
0.988874
0.988534
0.988187
0.987835
0.987476
0.98711
0.986737
0.986358
0.985972
0.985578
0.985177
0.984767
0.98435
0.983925
0.983491
0.983048
0.982595
0.982133
0.981661
0.981179
0.980686
0.980181
0.979665
0.979137
0.978596
0.978042
0.977474
0.976892
0.976296
0.975684
0.975056
0.974412
0.973752
0.973073
0.972377
0.971662
0.970927
0.970173
0.969398
0.968603
0.967785
0.966945
0.966083
0.965197
0.964287
0.963352
0.962392
0.961407
0.960395
0.959357
0.958291
0.957198
0.956076
0.954925
0.953746
0.952536
0.951297
0.950027
0.948726
0.947394
0.946031
0.944636
0.943208
0.941748
0.940256
0.93873
0.937172
0.93558
0.933954
0.932295
0.930602
0.928875
0.927114
0.925319
0.923489
0.921626
0.919729
0.917797
0.915832
0.913832
0.911798
0.909731
0.90763
0.905495
0.903327
0.901126
0.898891
0.896624
0.894324
0.891992
0.889627
0.887231
0.884803
0.882343
0.879853
0.877332
0.874781
0.872199
0.869588
0.866948
0.864278
0.861581
0.858855
0.856101
0.85332
0.850512
0.847678
0.844817
0.841931
0.83902
0.836084
0.833124
0.83014
0.827133
0.824103
0.82105
0.817975
0.814879
0.811762
0.808625
0.805467
0.80229
0.799094
0.79588
0.792647
0.789397
0.786129
0.782845
0.779545
0.776229
0.772898
0.769552
0.766192
0.762818
0.759431
0.756031
0.752618
0.749194
0.745758
0.742312
0.738855
0.735387
0.73191
0.728424
0.72493
0.721426
0.717916
0.714397
0.710872
0.70734
0.703801
0.700257
0.696708
0.693154
0.689595
0.686032
0.682465
0.678894
0.675321
0.671745
0.668167
0.664587
0.661005
0.657422
0.653838
0.650253
0.646669
0.643084
0.6395
0.635917
0.632335
0.628754
0.625175
0.621598
0.618024
0.614452
0.610882
0.607316
0.603754
0.600195
0.59664
0.59309
0.589544
0.586002
0.582466
0.578935
0.57541
0.57189
0.568376
0.564868
0.561367
0.557872
0.554384
0.550904
0.54743
0.543964
0.540505
0.537054
0.533611
0.530177
0.52675
0.523333
0.519923
0.516523
0.513132
0.50975
0.506377
0.503013
0.499659
0.496315
0.492981
0.489657
0.486343
0.483039
0.479745
0.476462
0.47319
0.469928
0.466677
0.463437
0.460208
0.456991
0.453784
0.450589
0.447405
0.444233
0.441072
0.437923
0.434785
0.43166
0.428546
0.425444
0.422355
0.419277
0.416212
0.413158
0.410117
0.407089
0.404072
0.401068
0.398077
0.395098
0.392131
0.389177
0.386236
0.383307
0.380391
0.377488
0.374598
0.37172
0.368855
0.366003
0.363164
0.360338
0.357524
0.354724
0.351936
0.349161
0.3464
0.343651
0.340915
0.338192
0.335482
0.332786
0.330102
0.327431
0.324773
0.322128
0.319496
0.316877
0.314271
0.311678
0.309097
0.30653
0.303976
0.301435
0.298906
0.296391
0.293888
0.291398
0.288921
0.286457
0.284006
0.281567
0.279141
0.276728
0.274328
0.27194
0.269565
0.267203
0.264853
0.262516
0.260191
0.257879
0.25558
0.253293
0.251018
0.248756
0.246507
0.244269
0.242044
0.239831
0.237631
0.235443
0.233267
0.231103
0.228951
0.226811
0.224684
0.222568
0.220464
0.218373
0.216293
0.214225
0.212169
0.210124
0.208092
0.206071
0.204062
0.202064
0.200078
0.198104
0.196141
0.19419
0.19225
0.190321
0.188404
0.186498
0.184604
0.182721
0.180848
0.178988
0.177138
0.175299
0.173471
0.171654
0.169849
0.168054
0.16627
0.164497
0.162735
0.160983
0.159242
0.157512
0.155793
0.154084
0.152385
0.150698
0.14902
0.147354
0.145697
0.144051
0.142415
0.14079
0.139175
0.13757
0.135975
0.134391
0.132816
0.131252
0.129698
0.128154
0.12662
0.125095
0.123581
0.122077
0.120582
0.119097
0.117622
0.116157
0.114702
0.113256
0.11182
0.110394
0.108977
0.10757
0.106172
0.104784
0.103406
0.102036
0.100677
0.0993268
0.0979861
0.0966548
0.0953328
0.0940202
0.092717
0.091423
0.0901384
0.088863
0.0875968
0.0863399
0.0850922
0.0838537
0.0826244
0.0814042
0.0801932
0.0789913
0.0777985
0.0766149
0.0754403
0.0742748
0.0731183
0.071971
0.0708326
0.0697033
0.068583
0.0674718
0.0663695
0.0652762
0.064192
0.0631167
0.0620504
0.0609931
0.0599448
0.0589054
0.057875
0.0568536
0.0558411
0.0548376
0.0538431
0.0528575
0.0518809
0.0509133
0.0499546
0.0490049
0.0480642
0.0471325
0.0462097
0.045296
0.0443912
0.0434955
0.0426088
0.0417311
0.0408624
0.0400028
0.0391522
0.0383107
0.0374782
0.0366549
0.0358406
0.0350355
0.0342395
0.0334526
0.0326749
0.0319064
0.031147
0.0303969
0.0296559
0.0289242
0.0282018
0.0274886
0.0267847
0.0260901
0.0254049
0.024729
0.0240624
0.0234053
0.0227575
0.0221192
0.0214903
0.0208708
0.0202609
0.0196604
0.0190695
0.018488
0.0179162
0.0173539
0.0168012
0.0162581
0.0157246
0.0152008
0.0146866
0.014182
0.0136872
0.013202
0.0127265
0.0122607
0.0118046
0.0113582
0.0109216
0.0104946
0.0100774
0.00966983
0.00927198
0.00888382
0.00850533
0.0081365
0.0077773
0.00742772
0.00708773
0.00675729
0.00643637
0.00612493
0.00582293
0.00553031
0.00524703
0.00497302
0.00470821
0.00445255
0.00420595
0.00396832
0.00373959
0.00351965
0.0033084
0.00310574
0.00291155
0.0027257
0.00254806
0.00237851
0.00221689
0.00206305
0.00191684
0.00177809
0.00164662
0.00152226
0.00140483
0.00129412
0.00118994
0.00109209
0.00100035
0.000914521
0.000834374
0.00075969
0.000690244
0.000625809
0.000566157
0.000511058
0.000460283
0.000413605
0.000370797
0.000331636
0.0002959
0.000263375
0.000233848
0.000207114
0.000182975
0.000161236
0.000141715
0.000124233
0.000108621
9.47197e-05
8.23766e-05
7.1449e-05
6.18029e-05
5.33131e-05
4.58631e-05
3.93451e-05
3.36596e-05
2.87153e-05
2.44285e-05
2.07232e-05
1.75301e-05
1.4787e-05
1.24377e-05
1.04318e-05
8.72437e-06
7.27552e-06
6.04987e-06
5.01625e-06
4.14727e-06
3.41896e-06
2.81043e-06
2.30356e-06
1.88267e-06
1.53425e-06
1.24671e-06
1.01014e-06
8.16114e-07
6.5746e-07
5.28129e-07
4.23023e-07
3.37865e-07
2.69079e-07
2.13686e-07
1.69213e-07
1.33615e-07
1.05206e-07
8.26032e-08
6.46732e-08
5.04925e-08
3.93102e-08
3.05187e-08
2.3627e-08
1.82406e-08
1.40429e-08
1.07813e-08
8.2543e-09
6.30217e-09
4.79848e-09
3.64355e-09
2.75903e-09
2.08354e-09
1.56916e-09
1.17856e-09
8.82806e-10
6.59488e-10
4.9134e-10
3.65085e-10
2.7055e-10
1.99961e-10
1.47398e-10
1.08366e-10
7.94599e-11
5.81118e-11
4.23882e-11
3.08386e-11
2.23777e-11
1.61962e-11
1.1692e-11
8.4188e-12
6.04643e-12
4.33151e-12
3.0951e-12
2.20602e-12
1.56837e-12
1.11223e-12
7.86771e-13
5.55161e-13
3.90758e-13
2.74359e-13
1.92157e-13
1.34253e-13
9.35671e-14
6.5052e-14
4.51169e-14
3.12149e-14
2.15443e-14
1.48339e-14
1.01891e-14
6.98188e-15
4.77279e-15
3.25491e-15
2.2145e-15
1.50309e-15
1.01782e-15
6.87604e-16
4.63435e-16
3.11621e-16
2.09052e-16
1.39919e-16
9.34323e-17
6.22469e-17
4.13754e-17
2.74394e-17
1.81559e-17
1.1986e-17
7.89491e-18
5.1885e-18
3.4022e-18
2.22589e-18
1.45304e-18
9.46425e-19
6.15077e-19
3.98852e-19
2.5807e-19
1.66612e-19
1.07331e-19
6.89911e-20
4.42501e-20
2.83201e-20
1.80854e-20
1.1525e-20
7.32739e-21
4.65129e-21
2.9396e-21
1.87224e-21
1.15412e-21
1.15412e-21
1
1
1
1
1
1
1
1
1
1
1
1
1
1
1
1
1
1
1
1
1
1
1
1
1
1
1
1
1
1
1
1
1
1
1
0.999999
0.999999
0.999999
0.999999
0.999998
0.999997
0.999997
0.999995
0.999994
0.999992
0.99999
0.999988
0.999985
0.999982
0.999978
0.999973
0.999968
0.999961
0.999954
0.999946
0.999937
0.999926
0.999914
0.999901
0.999886
0.99987
0.999852
0.999832
0.99981
0.999786
0.99976
0.999731
0.9997
0.999667
0.999631
0.999592
0.99955
0.999505
0.999457
0.999406
0.999352
0.999294
0.999232
0.999167
0.999099
0.999026
0.998949
0.998869
0.998784
0.998695
0.998602
0.998504
0.998403
0.998296
0.998185
0.998069
0.997949
0.997824
0.997694
0.997559
0.997419
0.997275
0.997125
0.99697
0.99681
0.996645
0.996475
0.9963
0.996119
0.995933
0.995742
0.995546
0.995344
0.995137
0.994924
0.994707
0.994484
0.994255
0.994021
0.993782
0.993537
0.993287
0.993032
0.992771
0.992505
0.992233
0.991956
0.991673
0.991384
0.991091
0.990791
0.990486
0.990175
0.989859
0.989536
0.989208
0.988874
0.988534
0.988187
0.987835
0.987476
0.98711
0.986737
0.986358
0.985972
0.985578
0.985177
0.984767
0.98435
0.983925
0.983491
0.983048
0.982595
0.982133
0.981661
0.981179
0.980686
0.980181
0.979665
0.979137
0.978596
0.978042
0.977474
0.976892
0.976296
0.975684
0.975056
0.974412
0.973752
0.973073
0.972377
0.971662
0.970927
0.970173
0.969398
0.968603
0.967785
0.966945
0.966083
0.965197
0.964287
0.963352
0.962392
0.961407
0.960395
0.959357
0.958291
0.957198
0.956076
0.954925
0.953746
0.952536
0.951297
0.950027
0.948726
0.947394
0.946031
0.944636
0.943208
0.941748
0.940256
0.93873
0.937172
0.93558
0.933954
0.932295
0.930602
0.928875
0.927114
0.925319
0.923489
0.921626
0.919729
0.917797
0.915832
0.913832
0.911798
0.909731
0.90763
0.905495
0.903327
0.901126
0.898891
0.896624
0.894324
0.891992
0.889627
0.887231
0.884803
0.882343
0.879853
0.877332
0.874781
0.872199
0.869588
0.866948
0.864278
0.861581
0.858855
0.856101
0.85332
0.850512
0.847678
0.844817
0.841931
0.83902
0.836084
0.833124
0.83014
0.827133
0.824103
0.82105
0.817975
0.814879
0.811762
0.808625
0.805467
0.80229
0.799094
0.79588
0.792647
0.789397
0.786129
0.782845
0.779545
0.776229
0.772898
0.769552
0.766192
0.762818
0.759431
0.756031
0.752618
0.749194
0.745758
0.742312
0.738855
0.735387
0.73191
0.728424
0.72493
0.721426
0.717916
0.714397
0.710872
0.70734
0.703801
0.700257
0.696708
0.693154
0.689595
0.686032
0.682465
0.678894
0.675321
0.671745
0.668167
0.664587
0.661005
0.657422
0.653838
0.650253
0.646669
0.643084
0.6395
0.635917
0.632335
0.628754
0.625175
0.621598
0.618024
0.614452
0.610882
0.607316
0.603754
0.600195
0.59664
0.59309
0.589544
0.586002
0.582466
0.578935
0.57541
0.57189
0.568376
0.564868
0.561367
0.557872
0.554384
0.550904
0.54743
0.543964
0.540505
0.537054
0.533611
0.530177
0.52675
0.523333
0.519923
0.516523
0.513132
0.50975
0.506377
0.503013
0.499659
0.496315
0.492981
0.489657
0.486343
0.483039
0.479745
0.476462
0.47319
0.469928
0.466677
0.463437
0.460208
0.456991
0.453784
0.450589
0.447405
0.444233
0.441072
0.437923
0.434785
0.43166
0.428546
0.425444
0.422355
0.419277
0.416212
0.413158
0.410117
0.407089
0.404072
0.401068
0.398077
0.395098
0.392131
0.389177
0.386236
0.383307
0.380391
0.377488
0.374598
0.37172
0.368855
0.366003
0.363164
0.360338
0.357524
0.354724
0.351936
0.349161
0.3464
0.343651
0.340915
0.338192
0.335482
0.332786
0.330102
0.327431
0.324773
0.322128
0.319496
0.316877
0.314271
0.311678
0.309097
0.30653
0.303976
0.301435
0.298906
0.296391
0.293888
0.291398
0.288921
0.286457
0.284006
0.281567
0.279141
0.276728
0.274328
0.27194
0.269565
0.267203
0.264853
0.262516
0.260191
0.257879
0.25558
0.253293
0.251018
0.248756
0.246507
0.244269
0.242044
0.239831
0.237631
0.235443
0.233267
0.231103
0.228951
0.226811
0.224684
0.222568
0.220464
0.218373
0.216293
0.214225
0.212169
0.210124
0.208092
0.206071
0.204062
0.202064
0.200078
0.198104
0.196141
0.19419
0.19225
0.190321
0.188404
0.186498
0.184604
0.182721
0.180848
0.178988
0.177138
0.175299
0.173471
0.171654
0.169849
0.168054
0.16627
0.164497
0.162735
0.160983
0.159242
0.157512
0.155793
0.154084
0.152385
0.150698
0.14902
0.147354
0.145697
0.144051
0.142415
0.14079
0.139175
0.13757
0.135975
0.134391
0.132816
0.131252
0.129698
0.128154
0.12662
0.125095
0.123581
0.122077
0.120582
0.119097
0.117622
0.116157
0.114702
0.113256
0.11182
0.110394
0.108977
0.10757
0.106172
0.104784
0.103406
0.102036
0.100677
0.0993268
0.0979861
0.0966548
0.0953328
0.0940202
0.092717
0.091423
0.0901384
0.088863
0.0875968
0.0863399
0.0850922
0.0838537
0.0826244
0.0814042
0.0801932
0.0789913
0.0777985
0.0766149
0.0754403
0.0742748
0.0731183
0.071971
0.0708326
0.0697033
0.068583
0.0674718
0.0663695
0.0652762
0.064192
0.0631167
0.0620504
0.0609931
0.0599448
0.0589054
0.057875
0.0568536
0.0558411
0.0548376
0.0538431
0.0528575
0.0518809
0.0509133
0.0499546
0.0490049
0.0480642
0.0471325
0.0462097
0.045296
0.0443912
0.0434955
0.0426088
0.0417311
0.0408624
0.0400028
0.0391522
0.0383107
0.0374782
0.0366549
0.0358406
0.0350355
0.0342395
0.0334526
0.0326749
0.0319064
0.031147
0.0303969
0.0296559
0.0289242
0.0282018
0.0274886
0.0267847
0.0260901
0.0254049
0.024729
0.0240624
0.0234053
0.0227575
0.0221192
0.0214903
0.0208708
0.0202609
0.0196604
0.0190695
0.018488
0.0179162
0.0173539
0.0168012
0.0162581
0.0157246
0.0152008
0.0146866
0.014182
0.0136872
0.013202
0.0127265
0.0122607
0.0118046
0.0113582
0.0109216
0.0104946
0.0100774
0.00966983
0.00927198
0.00888382
0.00850533
0.0081365
0.0077773
0.00742772
0.00708773
0.00675729
0.00643637
0.00612493
0.00582293
0.00553031
0.00524703
0.00497302
0.00470821
0.00445255
0.00420595
0.00396832
0.00373959
0.00351965
0.0033084
0.00310574
0.00291155
0.0027257
0.00254806
0.00237851
0.00221689
0.00206305
0.00191684
0.00177809
0.00164662
0.00152226
0.00140483
0.00129412
0.00118994
0.00109209
0.00100035
0.000914521
0.000834374
0.00075969
0.000690244
0.000625809
0.000566157
0.000511058
0.000460283
0.000413605
0.000370797
0.000331636
0.0002959
0.000263375
0.000233848
0.000207114
0.000182975
0.000161236
0.000141715
0.000124233
0.000108621
9.47197e-05
8.23766e-05
7.1449e-05
6.18029e-05
5.33131e-05
4.58631e-05
3.93451e-05
3.36596e-05
2.87153e-05
2.44285e-05
2.07232e-05
1.75301e-05
1.4787e-05
1.24377e-05
1.04318e-05
8.72437e-06
7.27552e-06
6.04987e-06
5.01625e-06
4.14727e-06
3.41896e-06
2.81043e-06
2.30356e-06
1.88267e-06
1.53425e-06
1.24671e-06
1.01014e-06
8.16114e-07
6.5746e-07
5.28129e-07
4.23023e-07
3.37865e-07
2.69079e-07
2.13686e-07
1.69213e-07
1.33615e-07
1.05206e-07
8.26032e-08
6.46732e-08
5.04925e-08
3.93102e-08
3.05187e-08
2.3627e-08
1.82406e-08
1.40429e-08
1.07813e-08
8.2543e-09
6.30217e-09
4.79848e-09
3.64355e-09
2.75903e-09
2.08354e-09
1.56916e-09
1.17856e-09
8.82806e-10
6.59488e-10
4.9134e-10
3.65085e-10
2.7055e-10
1.99961e-10
1.47398e-10
1.08366e-10
7.94599e-11
5.81118e-11
4.23882e-11
3.08386e-11
2.23777e-11
1.61962e-11
1.1692e-11
8.4188e-12
6.04643e-12
4.33151e-12
3.0951e-12
2.20602e-12
1.56837e-12
1.11223e-12
7.86771e-13
5.55161e-13
3.90758e-13
2.74359e-13
1.92157e-13
1.34253e-13
9.35671e-14
6.5052e-14
4.51169e-14
3.12149e-14
2.15443e-14
1.48339e-14
1.01891e-14
6.98188e-15
4.77279e-15
3.25491e-15
2.2145e-15
1.50309e-15
1.01782e-15
6.87604e-16
4.63435e-16
3.11621e-16
2.09052e-16
1.39919e-16
9.34323e-17
6.22469e-17
4.13754e-17
2.74394e-17
1.81559e-17
1.1986e-17
7.89491e-18
5.1885e-18
3.4022e-18
2.22589e-18
1.45304e-18
9.46425e-19
6.15077e-19
3.98852e-19
2.5807e-19
1.66612e-19
1.07331e-19
6.89911e-20
4.42501e-20
2.83201e-20
1.80854e-20
1.1525e-20
7.32739e-21
4.65129e-21
2.9396e-21
1.87224e-21
1.15412e-21
1.15412e-21
1
1
1
1
1
1
1
1
1
1
1
1
1
1
1
1
1
1
1
1
1
1
1
1
1
1
1
1
1
1
1
1
1
1
1
0.999999
0.999999
0.999999
0.999999
0.999998
0.999997
0.999997
0.999995
0.999994
0.999992
0.99999
0.999988
0.999985
0.999982
0.999978
0.999973
0.999968
0.999961
0.999954
0.999946
0.999937
0.999926
0.999914
0.999901
0.999886
0.99987
0.999852
0.999832
0.99981
0.999786
0.99976
0.999731
0.9997
0.999667
0.999631
0.999592
0.99955
0.999505
0.999457
0.999406
0.999352
0.999294
0.999232
0.999167
0.999098
0.999026
0.998949
0.998869
0.998784
0.998695
0.998602
0.998504
0.998402
0.998296
0.998185
0.998069
0.997949
0.997824
0.997694
0.997559
0.997419
0.997274
0.997124
0.99697
0.99681
0.996645
0.996474
0.996299
0.996118
0.995933
0.995741
0.995545
0.995343
0.995136
0.994924
0.994706
0.994483
0.994254
0.994021
0.993781
0.993537
0.993287
0.993031
0.99277
0.992504
0.992232
0.991955
0.991672
0.991384
0.99109
0.99079
0.990485
0.990175
0.989858
0.989536
0.989208
0.988873
0.988533
0.988187
0.987834
0.987475
0.98711
0.986737
0.986358
0.985972
0.985578
0.985177
0.984768
0.984351
0.983926
0.983492
0.983049
0.982597
0.982136
0.981664
0.981182
0.980689
0.980185
0.97967
0.979142
0.978602
0.978048
0.977481
0.9769
0.976305
0.975694
0.975067
0.974424
0.973764
0.973087
0.972392
0.971678
0.970945
0.970192
0.969418
0.968624
0.967808
0.96697
0.966109
0.965225
0.964317
0.963384
0.962426
0.961443
0.960433
0.959397
0.958333
0.957242
0.956122
0.954974
0.953797
0.95259
0.951353
0.950086
0.948788
0.947459
0.946098
0.944706
0.943281
0.941824
0.940335
0.938812
0.937257
0.935668
0.934046
0.93239
0.9307
0.928976
0.927219
0.925427
0.923601
0.921742
0.919848
0.91792
0.915958
0.913962
0.911932
0.909868
0.907771
0.90564
0.903475
0.901278
0.899047
0.896784
0.894487
0.892159
0.889798
0.887406
0.884982
0.882526
0.88004
0.877522
0.874975
0.872397
0.86979
0.867154
0.864488
0.861794
0.859072
0.856322
0.853545
0.850741
0.84791
0.845054
0.842171
0.839264
0.836332
0.833375
0.830395
0.827391
0.824364
0.821315
0.818244
0.815152
0.812038
0.808904
0.80575
0.802577
0.799384
0.796173
0.792943
0.789696
0.786432
0.783151
0.779854
0.776541
0.773213
0.76987
0.766513
0.763142
0.759758
0.756361
0.752951
0.74953
0.746097
0.742653
0.739199
0.735734
0.73226
0.728776
0.725284
0.721784
0.718275
0.714759
0.711236
0.707706
0.70417
0.700629
0.697081
0.693529
0.689973
0.686412
0.682847
0.679278
0.675707
0.672133
0.668557
0.664978
0.661398
0.657817
0.654235
0.650652
0.647069
0.643486
0.639904
0.636322
0.632741
0.629162
0.625585
0.622009
0.618436
0.614865
0.611297
0.607732
0.604171
0.600613
0.59706
0.59351
0.589965
0.586425
0.58289
0.57936
0.575835
0.572316
0.568803
0.565296
0.561796
0.558302
0.554814
0.551334
0.547861
0.544396
0.540938
0.537487
0.534045
0.530611
0.527185
0.523768
0.520359
0.516959
0.513568
0.510186
0.506813
0.50345
0.500097
0.496753
0.493419
0.490094
0.48678
0.483477
0.480183
0.4769
0.473628
0.470366
0.467115
0.463875
0.460646
0.457428
0.454222
0.451026
0.447842
0.44467
0.441509
0.43836
0.435222
0.432096
0.428982
0.42588
0.42279
0.419712
0.416646
0.413592
0.410551
0.407522
0.404505
0.4015
0.398508
0.395529
0.392562
0.389607
0.386666
0.383736
0.38082
0.377916
0.375025
0.372147
0.369281
0.366429
0.363589
0.360762
0.357948
0.355146
0.352358
0.349583
0.34682
0.344071
0.341334
0.33861
0.3359
0.333202
0.330517
0.327845
0.325187
0.322541
0.319908
0.317288
0.314681
0.312087
0.309506
0.306938
0.304383
0.30184
0.299311
0.296794
0.294291
0.2918
0.289322
0.286857
0.284405
0.281965
0.279538
0.277124
0.274723
0.272334
0.269958
0.267595
0.265244
0.262906
0.26058
0.258267
0.255966
0.253678
0.251403
0.249139
0.246889
0.24465
0.242424
0.24021
0.238008
0.235819
0.233642
0.231477
0.229324
0.227183
0.225054
0.222938
0.220833
0.21874
0.216659
0.21459
0.212533
0.210487
0.208453
0.206431
0.204421
0.202422
0.200435
0.19846
0.196496
0.194543
0.192602
0.190672
0.188754
0.186847
0.184951
0.183066
0.181193
0.179331
0.17748
0.17564
0.173811
0.171993
0.170186
0.16839
0.166605
0.16483
0.163067
0.161314
0.159572
0.157841
0.15612
0.15441
0.15271
0.151021
0.149343
0.147674
0.146017
0.144369
0.142732
0.141106
0.139489
0.137883
0.136287
0.134702
0.133126
0.13156
0.130005
0.128459
0.126924
0.125398
0.123883
0.122377
0.120881
0.119395
0.117919
0.116452
0.114995
0.113548
0.112111
0.110683
0.109265
0.107857
0.106458
0.105068
0.103689
0.102318
0.100957
0.0996058
0.0982638
0.0969311
0.0956078
0.0942938
0.0929892
0.0916939
0.0904078
0.089131
0.0878635
0.0866052
0.0853561
0.0841161
0.0828854
0.0816638
0.0804513
0.079248
0.0780538
0.0768687
0.0756926
0.0745257
0.0733678
0.0722189
0.0710791
0.0699483
0.0688265
0.0677138
0.06661
0.0655152
0.0644295
0.0633527
0.0622848
0.061226
0.0601761
0.0591352
0.0581032
0.0570802
0.0560661
0.055061
0.0540649
0.0530777
0.0520995
0.0511302
0.0501699
0.0492186
0.0482762
0.0473428
0.0464184
0.045503
0.0445965
0.0436991
0.0428107
0.0419312
0.0410608
0.0401995
0.0393471
0.0385039
0.0376696
0.0368445
0.0360285
0.0352215
0.0344237
0.033635
0.0328554
0.032085
0.0313238
0.0305717