# vtk DataFile Version 2.0
FlowField
ASCII
DATASET STRUCTURED_GRID
DIMENSIONS 800 1 200
POINTS 160000 float
0 0 0
0.04 0 0
0.08 0 0
0.12 0 0
0.16 0 0
0.2 0 0
0.24 0 0
0.28 0 0
0.32 0 0
0.36 0 0
0.4 0 0
0.44 0 0
0.48 0 0
0.52 0 0
0.56 0 0
0.6 0 0
0.64 0 0
0.68 0 0
0.72 0 0
0.76 0 0
0.8 0 0
0.84 0 0
0.88 0 0
0.92 0 0
0.96 0 0
1 0 0
1.04 0 0
1.08 0 0
1.12 0 0
1.16 0 0
1.2 0 0
1.24 0 0
1.28 0 0
1.32 0 0
1.36 0 0
1.4 0 0
1.44 0 0
1.48 0 0
1.52 0 0
1.56 0 0
1.6 0 0
1.64 0 0
1.68 0 0
1.72 0 0
1.76 0 0
1.8 0 0
1.84 0 0
1.88 0 0
1.92 0 0
1.96 0 0
2 0 0
2.04 0 0
2.08 0 0
2.12 0 0
2.16 0 0
2.2 0 0
2.24 0 0
2.28 0 0
2.32 0 0
2.36 0 0
2.4 0 0
2.44 0 0
2.48 0 0
2.52 0 0
2.56 0 0
2.6 0 0
2.64 0 0
2.68 0 0
2.72 0 0
2.76 0 0
2.8 0 0
2.84 0 0
2.88 0 0
2.92 0 0
2.96 0 0
3 0 0
3.04 0 0
3.08 0 0
3.12 0 0
3.16 0 0
3.2 0 0
3.24 0 0
3.28 0 0
3.32 0 0
3.36 0 0
3.4 0 0
3.44 0 0
3.48 0 0
3.52 0 0
3.56 0 0
3.6 0 0
3.64 0 0
3.68 0 0
3.72 0 0
3.76 0 0
3.8 0 0
3.84 0 0
3.88 0 0
3.92 0 0
3.96 0 0
4 0 0
4.04 0 0
4.08 0 0
4.12 0 0
4.16 0 0
4.2 0 0
4.24 0 0
4.28 0 0
4.32 0 0
4.36 0 0
4.4 0 0
4.44 0 0
4.48 0 0
4.52 0 0
4.56 0 0
4.6 0 0
4.64 0 0
4.68 0 0
4.72 0 0
4.76 0 0
4.8 0 0
4.84 0 0
4.88 0 0
4.92 0 0
4.96 0 0
5 0 0
5.04 0 0
5.08 0 0
5.12 0 0
5.16 0 0
5.2 0 0
5.24 0 0
5.28 0 0
5.32 0 0
5.36 0 0
5.4 0 0
5.44 0 0
5.48 0 0
5.52 0 0
5.56 0 0
5.6 0 0
5.64 0 0
5.68 0 0
5.72 0 0
5.76 0 0
5.8 0 0
5.84 0 0
5.88 0 0
5.92 0 0
5.96 0 0
6 0 0
6.04 0 0
6.08 0 0
6.12 0 0
6.16 0 0
6.2 0 0
6.24 0 0
6.28 0 0
6.32 0 0
6.36 0 0
6.4 0 0
6.44 0 0
6.48 0 0
6.52 0 0
6.56 0 0
6.6 0 0
6.64 0 0
6.68 0 0
6.72 0 0
6.76 0 0
6.8 0 0
6.84 0 0
6.88 0 0
6.92 0 0
6.96 0 0
7 0 0
7.04 0 0
7.08 0 0
7.12 0 0
7.16 0 0
7.2 0 0
7.24 0 0
7.28 0 0
7.32 0 0
7.36 0 0
7.4 0 0
7.44 0 0
7.48 0 0
7.52 0 0
7.56 0 0
7.6 0 0
7.64 0 0
7.68 0 0
7.72 0 0
7.76 0 0
7.8 0 0
7.84 0 0
7.88 0 0
7.92 0 0
7.96 0 0
8 0 0
8.04 0 0
8.08 0 0
8.12 0 0
8.16 0 0
8.2 0 0
8.24 0 0
8.28 0 0
8.32 0 0
8.36 0 0
8.4 0 0
8.44 0 0
8.48 0 0
8.52 0 0
8.56 0 0
8.6 0 0
8.64 0 0
8.68 0 0
8.72 0 0
8.76 0 0
8.8 0 0
8.84 0 0
8.88 0 0
8.92 0 0
8.96 0 0
9 0 0
9.04 0 0
9.08 0 0
9.12 0 0
9.16 0 0
9.2 0 0
9.24 0 0
9.28 0 0
9.32 0 0
9.36 0 0
9.4 0 0
9.44 0 0
9.48 0 0
9.52 0 0
9.56 0 0
9.6 0 0
9.64 0 0
9.68 0 0
9.72 0 0
9.76 0 0
9.8 0 0
9.84 0 0
9.88 0 0
9.92 0 0
9.96 0 0
10 0 0
10.04 0 0
10.08 0 0
10.12 0 0
10.16 0 0
10.2 0 0
10.24 0 0
10.28 0 0
10.32 0 0
10.36 0 0
10.4 0 0
10.44 0 0
10.48 0 0
10.52 0 0
10.56 0 0
10.6 0 0
10.64 0 0
10.68 0 0
10.72 0 0
10.76 0 0
10.8 0 0
10.84 0 0
10.88 0 0
10.92 0 0
10.96 0 0
11 0 0
11.04 0 0
11.08 0 0
11.12 0 0
11.16 0 0
11.2 0 0
11.24 0 0
11.28 0 0
11.32 0 0
11.36 0 0
11.4 0 0
11.44 0 0
11.48 0 0
11.52 0 0
11.56 0 0
11.6 0 0
11.64 0 0
11.68 0 0
11.72 0 0
11.76 0 0
11.8 0 0
11.84 0 0
11.88 0 0
11.92 0 0
11.96 0 0
12 0 0
12.04 0 0
12.08 0 0
12.12 0 0
12.16 0 0
12.2 0 0
12.24 0 0
12.28 0 0
12.32 0 0
12.36 0 0
12.4 0 0
12.44 0 0
12.48 0 0
12.52 0 0
12.56 0 0
12.6 0 0
12.64 0 0
12.68 0 0
12.72 0 0
12.76 0 0
12.8 0 0
12.84 0 0
12.88 0 0
12.92 0 0
12.96 0 0
13 0 0
13.04 0 0
13.08 0 0
13.12 0 0
13.16 0 0
13.2 0 0
13.24 0 0
13.28 0 0
13.32 0 0
13.36 0 0
13.4 0 0
13.44 0 0
13.48 0 0
13.52 0 0
13.56 0 0
13.6 0 0
13.64 0 0
13.68 0 0
13.72 0 0
13.76 0 0
13.8 0 0
13.84 0 0
13.88 0 0
13.92 0 0
13.96 0 0
14 0 0
14.04 0 0
14.08 0 0
14.12 0 0
14.16 0 0
14.2 0 0
14.24 0 0
14.28 0 0
14.32 0 0
14.36 0 0
14.4 0 0
14.44 0 0
14.48 0 0
14.52 0 0
14.56 0 0
14.6 0 0
14.64 0 0
14.68 0 0
14.72 0 0
14.76 0 0
14.8 0 0
14.84 0 0
14.88 0 0
14.92 0 0
14.96 0 0
15 0 0
15.04 0 0
15.08 0 0
15.12 0 0
15.16 0 0
15.2 0 0
15.24 0 0
15.28 0 0
15.32 0 0
15.36 0 0
15.4 0 0
15.44 0 0
15.48 0 0
15.52 0 0
15.56 0 0
15.6 0 0
15.64 0 0
15.68 0 0
15.72 0 0
15.76 0 0
15.8 0 0
15.84 0 0
15.88 0 0
15.92 0 0
15.96 0 0
16 0 0
16.04 0 0
16.08 0 0
16.12 0 0
16.16 0 0
16.2 0 0
16.24 0 0
16.28 0 0
16.32 0 0
16.36 0 0
16.4 0 0
16.44 0 0
16.48 0 0
16.52 0 0
16.56 0 0
16.6 0 0
16.64 0 0
16.68 0 0
16.72 0 0
16.76 0 0
16.8 0 0
16.84 0 0
16.88 0 0
16.92 0 0
16.96 0 0
17 0 0
17.04 0 0
17.08 0 0
17.12 0 0
17.16 0 0
17.2 0 0
17.24 0 0
17.28 0 0
17.32 0 0
17.36 0 0
17.4 0 0
17.44 0 0
17.48 0 0
17.52 0 0
17.56 0 0
17.6 0 0
17.64 0 0
17.68 0 0
17.72 0 0
17.76 0 0
17.8 0 0
17.84 0 0
17.88 0 0
17.92 0 0
17.96 0 0
18 0 0
18.04 0 0
18.08 0 0
18.12 0 0
18.16 0 0
18.2 0 0
18.24 0 0
18.28 0 0
18.32 0 0
18.36 0 0
18.4 0 0
18.44 0 0
18.48 0 0
18.52 0 0
18.56 0 0
18.6 0 0
18.64 0 0
18.68 0 0
18.72 0 0
18.76 0 0
18.8 0 0
18.84 0 0
18.88 0 0
18.92 0 0
18.96 0 0
19 0 0
19.04 0 0
19.08 0 0
19.12 0 0
19.16 0 0
19.2 0 0
19.24 0 0
19.28 0 0
19.32 0 0
19.36 0 0
19.4 0 0
19.44 0 0
19.48 0 0
19.52 0 0
19.56 0 0
19.6 0 0
19.64 0 0
19.68 0 0
19.72 0 0
19.76 0 0
19.8 0 0
19.84 0 0
19.88 0 0
19.92 0 0
19.96 0 0
20 0 0
20.04 0 0
20.08 0 0
20.12 0 0
20.16 0 0
20.2 0 0
20.24 0 0
20.28 0 0
20.32 0 0
20.36 0 0
20.4 0 0
20.44 0 0
20.48 0 0
20.52 0 0
20.56 0 0
20.6 0 0
20.64 0 0
20.68 0 0
20.72 0 0
20.76 0 0
20.8 0 0
20.84 0 0
20.88 0 0
20.92 0 0
20.96 0 0
21 0 0
21.04 0 0
21.08 0 0
21.12 0 0
21.16 0 0
21.2 0 0
21.24 0 0
21.28 0 0
21.32 0 0
21.36 0 0
21.4 0 0
21.44 0 0
21.48 0 0
21.52 0 0
21.56 0 0
21.6 0 0
21.64 0 0
21.68 0 0
21.72 0 0
21.76 0 0
21.8 0 0
21.84 0 0
21.88 0 0
21.92 0 0
21.96 0 0
22 0 0
22.04 0 0
22.08 0 0
22.12 0 0
22.16 0 0
22.2 0 0
22.24 0 0
22.28 0 0
22.32 0 0
22.36 0 0
22.4 0 0
22.44 0 0
22.48 0 0
22.52 0 0
22.56 0 0
22.6 0 0
22.64 0 0
22.68 0 0
22.72 0 0
22.76 0 0
22.8 0 0
22.84 0 0
22.88 0 0
22.92 0 0
22.96 0 0
23 0 0
23.04 0 0
23.08 0 0
23.12 0 0
23.16 0 0
23.2 0 0
23.24 0 0
23.28 0 0
23.32 0 0
23.36 0 0
23.4 0 0
23.44 0 0
23.48 0 0
23.52 0 0
23.56 0 0
23.6 0 0
23.64 0 0
23.68 0 0
23.72 0 0
23.76 0 0
23.8 0 0
23.84 0 0
23.88 0 0
23.92 0 0
23.96 0 0
24 0 0
24.04 0 0
24.08 0 0
24.12 0 0
24.16 0 0
24.2 0 0
24.24 0 0
24.28 0 0
24.32 0 0
24.36 0 0
24.4 0 0
24.44 0 0
24.48 0 0
24.52 0 0
24.56 0 0
24.6 0 0
24.64 0 0
24.68 0 0
24.72 0 0
24.76 0 0
24.8 0 0
24.84 0 0
24.88 0 0
24.92 0 0
24.96 0 0
25 0 0
25.04 0 0
25.08 0 0
25.12 0 0
25.16 0 0
25.2 0 0
25.24 0 0
25.28 0 0
25.32 0 0
25.36 0 0
25.4 0 0
25.44 0 0
25.48 0 0
25.52 0 0
25.56 0 0
25.6 0 0
25.64 0 0
25.68 0 0
25.72 0 0
25.76 0 0
25.8 0 0
25.84 0 0
25.88 0 0
25.92 0 0
25.96 0 0
26 0 0
26.04 0 0
26.08 0 0
26.12 0 0
26.16 0 0
26.2 0 0
26.24 0 0
26.28 0 0
26.32 0 0
26.36 0 0
26.4 0 0
26.44 0 0
26.48 0 0
26.52 0 0
26.56 0 0
26.6 0 0
26.64 0 0
26.68 0 0
26.72 0 0
26.76 0 0
26.8 0 0
26.84 0 0
26.88 0 0
26.92 0 0
26.96 0 0
27 0 0
27.04 0 0
27.08 0 0
27.12 0 0
27.16 0 0
27.2 0 0
27.24 0 0
27.28 0 0
27.32 0 0
27.36 0 0
27.4 0 0
27.44 0 0
27.48 0 0
27.52 0 0
27.56 0 0
27.6 0 0
27.64 0 0
27.68 0 0
27.72 0 0
27.76 0 0
27.8 0 0
27.84 0 0
27.88 0 0
27.92 0 0
27.96 0 0
28 0 0
28.04 0 0
28.08 0 0
28.12 0 0
28.16 0 0
28.2 0 0
28.24 0 0
28.28 0 0
28.32 0 0
28.36 0 0
28.4 0 0
28.44 0 0
28.48 0 0
28.52 0 0
28.56 0 0
28.6 0 0
28.64 0 0
28.68 0 0
28.72 0 0
28.76 0 0
28.8 0 0
28.84 0 0
28.88 0 0
28.92 0 0
28.96 0 0
29 0 0
29.04 0 0
29.08 0 0
29.12 0 0
29.16 0 0
29.2 0 0
29.24 0 0
29.28 0 0
29.32 0 0
29.36 0 0
29.4 0 0
29.44 0 0
29.48 0 0
29.52 0 0
29.56 0 0
29.6 0 0
29.64 0 0
29.68 0 0
29.72 0 0
29.76 0 0
29.8 0 0
29.84 0 0
29.88 0 0
29.92 0 0
29.96 0 0
30 0 0
30.04 0 0
30.08 0 0
30.12 0 0
30.16 0 0
30.2 0 0
30.24 0 0
30.28 0 0
30.32 0 0
30.36 0 0
30.4 0 0
30.44 0 0
30.48 0 0
30.52 0 0
30.56 0 0
30.6 0 0
30.64 0 0
30.68 0 0
30.72 0 0
30.76 0 0
30.8 0 0
30.84 0 0
30.88 0 0
30.92 0 0
30.96 0 0
31 0 0
31.04 0 0
31.08 0 0
31.12 0 0
31.16 0 0
31.2 0 0
31.24 0 0
31.28 0 0
31.32 0 0
31.36 0 0
31.4 0 0
31.44 0 0
31.48 0 0
31.52 0 0
31.56 0 0
31.6 0 0
31.64 0 0
31.68 0 0
31.72 0 0
31.76 0 0
31.8 0 0
31.84 0 0
31.88 0 0
31.92 0 0
31.96 0 0
0 0.005 0
0.04 0.005 0
0.08 0.005 0
0.12 0.005 0
0.16 0.005 0
0.2 0.005 0
0.24 0.005 0
0.28 0.005 0
0.32 0.005 0
0.36 0.005 0
0.4 0.005 0
0.44 0.005 0
0.48 0.005 0
0.52 0.005 0
0.56 0.005 0
0.6 0.005 0
0.64 0.005 0
0.68 0.005 0
0.72 0.005 0
0.76 0.005 0
0.8 0.005 0
0.84 0.005 0
0.88 0.005 0
0.92 0.005 0
0.96 0.005 0
1 0.005 0
1.04 0.005 0
1.08 0.005 0
1.12 0.005 0
1.16 0.005 0
1.2 0.005 0
1.24 0.005 0
1.28 0.005 0
1.32 0.005 0
1.36 0.005 0
1.4 0.005 0
1.44 0.005 0
1.48 0.005 0
1.52 0.005 0
1.56 0.005 0
1.6 0.005 0
1.64 0.005 0
1.68 0.005 0
1.72 0.005 0
1.76 0.005 0
1.8 0.005 0
1.84 0.005 0
1.88 0.005 0
1.92 0.005 0
1.96 0.005 0
2 0.005 0
2.04 0.005 0
2.08 0.005 0
2.12 0.005 0
2.16 0.005 0
2.2 0.005 0
2.24 0.005 0
2.28 0.005 0
2.32 0.005 0
2.36 0.005 0
2.4 0.005 0
2.44 0.005 0
2.48 0.005 0
2.52 0.005 0
2.56 0.005 0
2.6 0.005 0
2.64 0.005 0
2.68 0.005 0
2.72 0.005 0
2.76 0.005 0
2.8 0.005 0
2.84 0.005 0
2.88 0.005 0
2.92 0.005 0
2.96 0.005 0
3 0.005 0
3.04 0.005 0
3.08 0.005 0
3.12 0.005 0
3.16 0.005 0
3.2 0.005 0
3.24 0.005 0
3.28 0.005 0
3.32 0.005 0
3.36 0.005 0
3.4 0.005 0
3.44 0.005 0
3.48 0.005 0
3.52 0.005 0
3.56 0.005 0
3.6 0.005 0
3.64 0.005 0
3.68 0.005 0
3.72 0.005 0
3.76 0.005 0
3.8 0.005 0
3.84 0.005 0
3.88 0.005 0
3.92 0.005 0
3.96 0.005 0
4 0.005 0
4.04 0.005 0
4.08 0.005 0
4.12 0.005 0
4.16 0.005 0
4.2 0.005 0
4.24 0.005 0
4.28 0.005 0
4.32 0.005 0
4.36 0.005 0
4.4 0.005 0
4.44 0.005 0
4.48 0.005 0
4.52 0.005 0
4.56 0.005 0
4.6 0.005 0
4.64 0.005 0
4.68 0.005 0
4.72 0.005 0
4.76 0.005 0
4.8 0.005 0
4.84 0.005 0
4.88 0.005 0
4.92 0.005 0
4.96 0.005 0
5 0.005 0
5.04 0.005 0
5.08 0.005 0
5.12 0.005 0
5.16 0.005 0
5.2 0.005 0
5.24 0.005 0
5.28 0.005 0
5.32 0.005 0
5.36 0.005 0
5.4 0.005 0
5.44 0.005 0
5.48 0.005 0
5.52 0.005 0
5.56 0.005 0
5.6 0.005 0
5.64 0.005 0
5.68 0.005 0
5.72 0.005 0
5.76 0.005 0
5.8 0.005 0
5.84 0.005 0
5.88 0.005 0
5.92 0.005 0
5.96 0.005 0
6 0.005 0
6.04 0.005 0
6.08 0.005 0
6.12 0.005 0
6.16 0.005 0
6.2 0.005 0
6.24 0.005 0
6.28 0.005 0
6.32 0.005 0
6.36 0.005 0
6.4 0.005 0
6.44 0.005 0
6.48 0.005 0
6.52 0.005 0
6.56 0.005 0
6.6 0.005 0
6.64 0.005 0
6.68 0.005 0
6.72 0.005 0
6.76 0.005 0
6.8 0.005 0
6.84 0.005 0
6.88 0.005 0
6.92 0.005 0
6.96 0.005 0
7 0.005 0
7.04 0.005 0
7.08 0.005 0
7.12 0.005 0
7.16 0.005 0
7.2 0.005 0
7.24 0.005 0
7.28 0.005 0
7.32 0.005 0
7.36 0.005 0
7.4 0.005 0
[...]
POINT_DATA 160000

SCALARS u float 1
LOOKUP_TABLE default
-1
-0.483356
-0.183962
-0.108844
-0.0810315
-0.066832
-0.0581162
-0.0521506
-0.0477752
-0.0444122
-0.0417387
-0.0395588
-0.0377455
-0.0362124
-0.0348985
-0.0337593
-0.0327615
-0.0318797
-0.031094
-0.0303888
-0.0297517
-0.0291726
-0.0286434
-0.0281572
-0.0277085
-0.0272927
-0.0269058
-0.0265445
-0.0262061
-0.0258881
-0.0255885
-0.0253055
-0.0250376
-0.0247834
-0.0245417
-0.0243116
-0.0240922
-0.0238825
-0.0236819
-0.0234898
-0.0233055
-0.0231285
-0.0229584
-0.0227948
-0.0226372
-0.0224852
-0.0223386
-0.0221971
-0.0220603
-0.0219281
-0.0218001
-0.0216762
-0.0215562
-0.0214398
-0.0213269
-0.0212173
-0.021111
-0.0210076
-0.0209071
-0.0208094
-0.0207144
-0.0206218
-0.0205318
-0.020444
-0.0203585
-0.0202751
-0.0201938
-0.0201144
-0.020037
-0.0199614
-0.0198876
-0.0198154
-0.0197449
-0.019676
-0.0196087
-0.0195428
-0.0194783
-0.0194152
-0.0193534
-0.0192929
-0.0192337
-0.0191757
-0.0191188
-0.0190631
-0.0190085
-0.0189549
-0.0189024
-0.0188509
-0.0188003
-0.0187507
-0.018702
-0.0186542
-0.0186073
-0.0185612
-0.018516
-0.0184715
-0.0184278
-0.0183849
-0.0183427
-0.0183012
-0.0182605
-0.0182204
-0.018181
-0.0181422
-0.0181041
-0.0180666
-0.0180297
-0.0179934
-0.0179577
-0.0179226
-0.017888
-0.017854
-0.0178205
-0.0177875
-0.0177551
-0.0177231
-0.0176917
-0.0176608
-0.0176303
-0.0176003
-0.0175709
-0.0175419
-0.0175133
-0.0174852
-0.0174576
-0.0174305
-0.0174038
-0.0173776
-0.0173519
-0.0173266
-0.0173018
-0.0172775
-0.0172537
-0.0172303
-0.0172075
-0.0171851
-0.0171632
-0.0171418
-0.0171209
-0.0171005
-0.0170806
-0.0170612
-0.0170423
-0.0170239
-0.017006
-0.0169886
-0.0169716
-0.0169552
-0.0169392
-0.0169236
-0.0169085
-0.0168938
-0.0168796
-0.0168657
-0.0168523
-0.0168393
-0.0168267
-0.0168144
-0.0168025
-0.016791
-0.0167798
-0.016769
-0.0167584
-0.0167483
-0.0167384
-0.0167288
-0.0167195
-0.0167106
-0.0167019
-0.0166935
-0.0166853
-0.0166774
-0.0166698
-0.0166625
-0.0166553
-0.0166485
-0.0166418
-0.0166354
-0.0166292
-0.0166233
-0.0166175
-0.016612
-0.0166066
-0.0166015
-0.0165965
-0.0165918
-0.0165872
-0.0165828
-0.0165786
-0.0165745
-0.0165706
-0.0165669
-0.0165633
-0.0165599
-0.0165566
-0.0165534
-0.0165504
-0.0165475
-0.0165448
-0.0165421
-0.0165396
-0.0165372
-0.0165349
-0.0165327
-0.0165306
-0.0165286
-0.0165267
-0.016525
-0.0165233
-0.0165218
-0.0165203
-0.016519
-0.0165178
-0.0165167
-0.0165157
-0.0165148
-0.016514
-0.0165133
-0.0165126
-0.016512
-0.0165115
-0.016511
-0.0165106
-0.0165102
-0.0165098
-0.0165094
-0.0165091
-0.0165088
-0.0165085
-0.0165081
-0.0165078
-0.0165075
-0.0165072
-0.0165069
-0.0165066
-0.0165063
-0.016506
-0.0165057
-0.0165054
-0.0165051
-0.0165048
-0.0165045
-0.0165042
-0.0165039
-0.0165036
-0.0165033
-0.016503
-0.0165027
-0.0165024
-0.0165021
-0.0165018
-0.0165015
-0.0165012
-0.0165009
-0.0165005
-0.0165002
-0.0164999
-0.0164996
-0.0164993
-0.016499
-0.0164987
-0.0164984
-0.0164981
-0.0164978
-0.0164975
-0.0164972
-0.0164969
-0.0164966
-0.0164963
-0.016496
-0.0164957
-0.0164954
-0.0164951
-0.0164948
-0.0164945
-0.0164942
-0.0164939
-0.0164936
-0.0164933
-0.016493
-0.0164927
-0.0164924
-0.016492
-0.0164917
-0.0164914
-0.0164911
-0.0164908
-0.0164905
-0.0164902
-0.0164899
-0.0164896
-0.0164893
-0.016489
-0.0164887
-0.0164884
-0.0164881
-0.0164878
-0.0164875
-0.0164872
-0.0164869
-0.0164866
-0.0164863
-0.016486
-0.0164857
-0.0164854
-0.0164851
-0.0164848
-0.0164845
-0.0164842
-0.0164838
-0.0164835
-0.0164832
-0.0164829
-0.0164826
-0.0164823
-0.016482
-0.0164817
-0.0164814
-0.0164811
-0.0164808
-0.0164805
-0.0164802
-0.0164799
-0.0164796
-0.0164793
-0.016479
-0.0164787
-0.0164784
-0.0164781
-0.0164778
-0.0164775
-0.0164772
-0.0164769
-0.0164766
-0.0164763
-0.0164759
-0.0164756
-0.0164753
-0.016475
-0.0164747
-0.0164744
-0.0164741
-0.0164738
-0.0164735
-0.0164732
-0.0164729
-0.0164726
-0.0164723
-0.016472
-0.0164717
-0.0164714
-0.0164711
-0.0164708
-0.0164705
-0.0164702
-0.0164699
-0.0164696
-0.0164693
-0.016469
-0.0164687
-0.0164684
-0.016468
-0.0164677
-0.0164674
-0.0164671
-0.0164668
-0.0164665
-0.0164662
-0.0164659
-0.0164656
-0.0164653
-0.016465
-0.0164647
-0.0164644
-0.0164641
-0.0164638
-0.0164635
-0.0164632
-0.0164629
-0.0164626
-0.0164623
-0.016462
-0.0164617
-0.0164614
-0.0164611
-0.0164608
-0.0164604
-0.0164601
-0.0164598
-0.0164595
-0.0164592
-0.0164589
-0.0164586
-0.0164583
-0.016458
-0.0164577
-0.0164574
-0.0164571
-0.0164568
-0.0164565
-0.0164562
-0.0164559
-0.0164556
-0.0164553
-0.016455
-0.0164547
-0.0164544
-0.0164541
-0.0164538
-0.0164535
-0.0164531
-0.0164528
-0.0164525
-0.0164522
-0.0164519
-0.0164516
-0.0164513
-0.016451
-0.0164507
-0.0164504
-0.0164501
-0.0164498
-0.0164495
-0.0164492
-0.0164489
-0.0164486
-0.0164483
-0.016448
-0.0164477
-0.0164474
-0.0164471
-0.0164468
-0.0164465
-0.0164462
-0.0164458
-0.0164455
-0.0164452
-0.0164449
-0.0164446
-0.0164443
-0.016444
-0.0164437
-0.0164434
-0.0164431
-0.0164428
-0.0164425
-0.0164422
-0.0164419
-0.0164416
-0.0164413
-0.016441
-0.0164407
-0.0164404
-0.0164401
-0.0164398
-0.0164395
-0.0164392
-0.0164389
-0.0164385
-0.0164382
-0.0164379
-0.0164376
-0.0164373
-0.016437
-0.0164367
-0.0164364
-0.0164361
-0.0164358
-0.0164355
-0.0164352
-0.0164349
-0.0164346
-0.0164343
-0.016434
-0.0164337
-0.0164334
-0.0164331
-0.0164328
-0.0164325
-0.0164322
-0.0164319
-0.0164316
-0.0164312
-0.0164309
-0.0164306
-0.0164303
-0.01643
-0.0164297
-0.0164294
-0.0164291
-0.0164288
-0.0164285
-0.0164282
-0.0164279
-0.0164276
-0.0164273
-0.016427
-0.0164267
-0.0164264
-0.0164261
-0.0164258
-0.0164255
-0.0164252
-0.0164249
-0.0164246
-0.0164242
-0.0164239
-0.0164236
-0.0164233
-0.016423
-0.0164227
-0.0164224
-0.0164221
-0.0164218
-0.0164215
-0.0164212
-0.0164209
-0.0164206
-0.0164203
-0.01642
-0.0164197
-0.0164194
-0.0164191
-0.0164188
-0.0164185
-0.0164182
-0.0164179
-0.0164176
-0.0164172
-0.0164169
-0.0164166
-0.0164163
-0.016416
-0.0164157
-0.0164154
-0.0164151
-0.0164148
-0.0164145
-0.0164142
-0.0164139
-0.0164136
-0.0164133
-0.016413
-0.0164127
-0.0164124
-0.0164121
-0.0164118
-0.0164115
-0.0164112
-0.0164109
-0.0164106
-0.0164102
-0.0164099
-0.0164096
-0.0164093
-0.016409
-0.0164087
-0.0164084
-0.0164081
-0.0164078
-0.0164075
-0.0164072
-0.0164069
-0.0164066
-0.0164063
-0.016406
-0.0164057
-0.0164054
-0.0164051
-0.0164048
-0.0164045
-0.0164042
-0.0164039
-0.0164035
-0.0164032
-0.0164029
-0.0164026
-0.0164023
-0.016402
-0.0164017
-0.0164014
-0.0164011
-0.0164008
-0.0164005
-0.0164002
-0.0163999
-0.0163996
-0.0163993
-0.016399
-0.0163987
-0.0163984
-0.0163981
-0.0163978
-0.0163975
-0.0163972
-0.0163969
-0.0163965
-0.0163962
-0.0163959
-0.0163956
-0.0163953
-0.016395
-0.0163947
-0.0163944
-0.0163941
-0.0163938
-0.0163935
-0.0163932
-0.0163929
-0.0163926
-0.0163923
-0.016392
-0.0163917
-0.0163914
-0.0163911
-0.0163908
-0.0163905
-0.0163901
-0.0163898
-0.0163895
-0.0163892
-0.0163889
-0.0163886
-0.0163883
-0.016388
-0.0163877
-0.0163874
-0.0163871
-0.0163868
-0.0163865
-0.0163862
-0.0163859
-0.0163856
-0.0163853
-0.016385
-0.0163847
-0.0163844
-0.0163841
-0.0163838
-0.0163834
-0.0163831
-0.0163828
-0.0163825
-0.0163822
-0.0163819
-0.0163816
-0.0163813
-0.016381
-0.0163807
-0.0163804
-0.0163801
-0.0163798
-0.0163795
-0.0163792
-0.0163789
-0.0163786
-0.0163783
-0.016378
-0.0163777
-0.0163774
-0.016377
-0.0163767
-0.0163764
-0.0163761
-0.0163758
-0.0163755
-0.0163752
-0.0163749
-0.0163746
-0.0163743
-0.016374
-0.0163737
-0.0163734
-0.0163731
-0.0163728
-0.0163725
-0.0163722
-0.0163719
-0.0163716
-0.0163713
-0.016371
-0.0163706
-0.0163703
-0.01637
-0.0163697
-0.0163694
-0.0163691
-0.0163688
-0.0163685
-0.0163682
-0.0163679
-0.0163676
-0.0163673
-0.016367
-0.0163667
-0.0163664
-0.0163661
-0.0163658
-0.0163655
-0.0163652
-0.0163649
-0.0163646
-0.0163642
-0.0163639
-0.0163636
-0.0163633
-0.016363
-0.0163627
-0.0163624
-0.0163621
-0.0163618
-0.0163615
-0.0163612
-0.0163609
-0.0163606
-0.0163603
-0.01636
-0.0163597
-0.0163594
-0.0163591
-0.0163588
-0.0163585
-0.0163582
-0.0163578
-0.0163575
-0.0163572
-0.0163569
-0.0163566
-0.0163563
-0.016356
-0.0163557
-0.0163554
-0.0163551
-0.0163548
-0.0163545
-0.0163542
-0.0163539
-0.0163536
-0.0163533
-0.016353
-0.0163527
-0.0163524
-0.0163521
-0.0163517
-0.0163514
-0.0163511
-0.0163508
-0.0163505
-0.0163502
-0.0163499
-0.0163496
-0.0163493
-0.016349
-0.0163487
-0.0163484
-0.0163481
-0.0163478
-0.0163475
-0.0163472
-0.0163469
-0.0163466
-0.0163463
-0.016346
-0.0163456
-0.0163453
-0.016345
-0.0163447
-0.0163444
-0.0163441
-0.0163438
-0.0163435
-0.0163432
-0.0163429
-0.0163426
-0.0163423
-0.016342
-0.0163417
-0.0163413
-0.016341
-0.0163407
-0.0163404
-0.0163401
-0.0163397
-0.0163394
-0.0163391
-0.0163387
-0.0163384
-0.016338
-0.0163376
-0.0163372
-0.0163367
-0.0163362
-0.0163357
-0.0163351
-0.0163344
-0.0163336
-0.0163325
-0.0163321
-0.0163321
-0.0163321
1
0.483356
0.183962
0.108844
0.0810315
0.066832
0.0581162
0.0521506
0.0477752
0.0444122
0.0417387
0.0395588
0.0377455
0.0362124
0.0348985
0.0337593
0.0327615
0.0318797
0.031094
0.0303888
0.0297517
0.0291726
0.0286434
0.0281572
0.0277085
0.0272927
0.0269058
0.0265445
0.0262061
0.0258881
0.0255885
0.0253055
0.0250376
0.0247834
0.0245417
0.0243116
0.0240922
0.0238825
0.0236819
0.0234898
0.0233055
0.0231285
0.0229584
0.0227948
0.0226372
0.0224852
0.0223386
0.0221971
0.0220603
0.0219281
0.0218001
0.0216762
0.0215562
0.0214398
0.0213269
0.0212173
0.021111
0.0210076
0.0209071
0.0208094
0.0207144
0.0206218
0.0205318
0.020444
0.0203585
0.0202751
0.0201938
0.0201144
0.020037
0.0199614
0.0198876
0.0198154
0.0197449
0.019676
0.0196087
0.0195428
0.0194783
0.0194152
0.0193534
0.0192929
0.0192337
0.0191757
0.0191188
0.0190631
0.0190085
0.0189549
0.0189024
0.0188509
0.0188003
0.0187507
0.018702
0.0186542
0.0186073
0.0185612
0.018516
0.0184715
0.0184278
0.0183849
0.0183427
0.0183012
0.0182605
0.0182204
0.018181
0.0181422
0.0181041
0.0180666
0.0180297
0.0179934
0.0179577
0.0179226
0.017888
0.017854
0.0178205
0.0177875
0.0177551
0.0177231
0.0176917
0.0176608
0.0176303
0.0176003
0.0175709
0.0175419
0.0175133
0.0174852
0.0174576
0.0174305
0.0174038
0.0173776
0.0173519
0.0173266
0.0173018
0.0172775
0.0172537
0.0172303
0.0172075
0.0171851
0.0171632
0.0171418
0.0171209
0.0171005
0.0170806
0.0170612
0.0170423
0.0170239
0.017006
0.0169886
0.0169716
0.0169552
0.0169392
0.0169236
0.0169085
0.0168938
0.0168796
0.0168657
0.0168523
0.0168393
0.0168267
0.0168144
0.0168025
0.016791
0.0167798
0.016769
0.0167584
0.0167483
0.0167384
0.0167288
0.0167195
0.0167106
0.0167019
0.0166935
0.0166853
0.0166774
0.0166698
0.0166625
0.0166553
0.0166485
0.0166418
0.0166354
0.0166292
0.0166233
0.0166175
0.016612
0.0166066
0.0166015
0.0165965
0.0165918
0.0165872
0.0165828
0.0165786
0.0165745
0.0165706
0.0165669
0.0165633
0.0165599
0.0165566
0.0165534
0.0165504
0.0165475
0.0165448
0.0165421
0.0165396
0.0165372
0.0165349
0.0165327
0.0165306
0.0165286
0.0165267
0.016525
0.0165233
0.0165218
0.0165203
0.016519
0.0165178
0.0165167
0.0165157
0.0165148
0.016514
0.0165133
0.0165126
0.016512
0.0165115
0.016511
0.0165106
0.0165102
0.0165098
0.0165094
0.0165091
0.0165088
0.0165085
0.0165081
0.0165078
0.0165075
0.0165072
0.0165069
0.0165066
0.0165063
0.016506
0.0165057
0.0165054
0.0165051
0.0165048
0.0165045
0.0165042
0.0165039
0.0165036
0.0165033
0.016503
0.0165027
0.0165024
0.0165021
0.0165018
0.0165015
0.0165012
0.0165009
0.0165005
0.0165002
0.0164999
0.0164996
0.0164993
0.016499
0.0164987
0.0164984
0.0164981
0.0164978
0.0164975
0.0164972
0.0164969
0.0164966
0.0164963
0.016496
0.0164957
0.0164954
0.0164951
0.0164948
0.0164945
0.0164942
0.0164939
0.0164936
0.0164933
0.016493
0.0164927
0.0164924
0.016492
0.0164917
0.0164914
0.0164911
0.0164908
0.0164905
0.0164902
0.0164899
0.0164896
0.0164893
0.016489
0.0164887
0.0164884
0.0164881
0.0164878
0.0164875
0.0164872
0.0164869
0.0164866
0.0164863
0.016486
0.0164857
0.0164854
0.0164851
0.0164848
0.0164845
0.0164842
0.0164838
0.0164835
0.0164832
0.0164829
0.0164826
0.0164823
0.016482
0.0164817
0.0164814
0.0164811
0.0164808
0.0164805
0.0164802
0.0164799
0.0164796
0.0164793
0.016479
0.0164787
0.0164784
0.0164781
0.0164778
0.0164775
0.0164772
0.0164769
0.0164766
0.0164763
0.0164759
0.0164756
0.0164753
0.016475
0.0164747
0.0164744
0.0164741
0.0164738
0.0164735
0.0164732
0.0164729
0.0164726
0.0164723
0.016472
0.0164717
0.0164714
0.0164711
0.0164708
0.0164705
0.0164702
0.0164699
0.0164696
0.0164693
0.016469
0.0164687
0.0164684
0.016468
0.0164677
0.0164674
0.0164671
0.0164668
0.0164665
0.0164662
0.0164659
0.0164656
0.0164653
0.016465
0.0164647
0.0164644
0.0164641
0.0164638
0.0164635
0.0164632
0.0164629
0.0164626
0.0164623
0.016462
0.0164617
0.0164614
0.0164611
0.0164608
0.0164604
0.0164601
0.0164598
0.0164595
0.0164592
0.0164589
0.0164586
0.0164583
0.016458
0.0164577
0.0164574
0.0164571
0.0164568
0.0164565
0.0164562
0.0164559
0.0164556
0.0164553
0.016455
0.0164547
0.0164544
0.0164541
0.0164538
0.0164535
0.0164531
0.0164528
0.0164525
0.0164522
0.0164519
0.0164516
0.0164513
0.016451
0.0164507
0.0164504
0.0164501
0.0164498
0.0164495
0.0164492
0.0164489
0.0164486
0.0164483
0.016448
0.0164477
0.0164474
0.0164471
0.0164468
0.0164465
0.0164462
0.0164458
0.0164455
0.0164452
0.0164449
0.0164446
0.0164443
0.016444
0.0164437
0.0164434
0.0164431
0.0164428
0.0164425
0.0164422
0.0164419
0.0164416
0.0164413
0.016441
0.0164407
0.0164404
0.0164401
0.0164398
0.0164395
0.0164392
0.0164389
0.0164385
0.0164382
0.0164379
0.0164376
0.0164373
0.016437
0.0164367
0.0164364
0.0164361
0.0164358
0.0164355
0.0164352
0.0164349
0.0164346
0.0164343
0.016434
0.0164337
0.0164334
0.0164331
0.0164328
0.0164325
0.0164322
0.0164319
0.0164316
0.0164312
0.0164309
0.0164306
0.0164303
0.01643
0.0164297
0.0164294
0.0164291
0.0164288
0.0164285
0.0164282
0.0164279
0.0164276
0.0164273
0.016427
0.0164267
0.0164264
0.0164261
0.0164258
0.0164255
0.0164252
0.0164249
0.0164246
0.0164242
0.0164239
0.0164236
0.0164233
0.016423
0.0164227
0.0164224
0.0164221
0.0164218
0.0164215
0.0164212
0.0164209
0.0164206
0.0164203
0.01642
0.0164197
0.0164194
0.0164191
0.0164188
0.0164185
0.0164182
0.0164179
0.0164176
0.0164172
0.0164169
0.0164166
0.0164163
0.016416
0.0164157
0.0164154
0.0164151
0.0164148
0.0164145
0.0164142
0.0164139
0.0164136
0.0164133
0.016413
0.0164127
0.0164124
0.0164121
0.0164118
0.0164115
0.0164112
0.0164109
0.0164106
0.0164102
0.0164099
0.0164096
0.0164093
0.016409
0.0164087
0.0164084
0.0164081
0.0164078
0.0164075
0.0164072
0.0164069
0.0164066
0.0164063
0.016406
0.0164057
0.0164054
0.0164051
0.0164048
0.0164045
0.0164042
0.0164039
0.0164035
0.0164032
0.0164029
0.0164026
0.0164023
0.016402
0.0164017
0.0164014
0.0164011
0.0164008
0.0164005
0.0164002
0.0163999
0.0163996
0.0163993
0.016399
0.0163987
0.0163984
0.0163981
0.0163978
0.0163975
0.0163972
0.0163969
0.0163965
0.0163962
0.0163959
0.0163956
0.0163953
0.016395
0.0163947
0.0163944
0.0163941
0.0163938
0.0163935
0.0163932
0.0163929
0.0163926
0.0163923
0.016392
0.0163917
0.0163914
0.0163911
0.0163908
0.0163905
0.0163901
0.0163898
0.0163895
0.0163892
0.0163889
0.0163886
0.0163883
0.016388
0.0163877
0.0163874
0.0163871
0.0163868
0.0163865
0.0163862
0.0163859
0.0163856
0.0163853
0.016385
0.0163847
0.0163844
0.0163841
0.0163838
0.0163834
0.0163831
0.0163828
0.0163825
0.0163822
0.0163819
0.0163816
0.0163813
0.016381
0.0163807
0.0163804
0.0163801
0.0163798
0.0163795
0.0163792
0.0163789
0.0163786
0.0163783
0.016378
0.0163777
0.0163774
0.016377
0.0163767
0.0163764
0.0163761
0.0163758
0.0163755
0.0163752
0.0163749
0.0163746
0.0163743
0.016374
0.0163737
0.0163734
0.0163731
0.0163728
0.0163725
0.0163722
0.0163719
0.0163716
0.0163713
0.016371
0.0163706
0.0163703
0.01637
0.0163697
0.0163694
0.0163691
0.0163688
0.0163685
0.0163682
0.0163679
0.0163676
0.0163673
0.016367
0.0163667
0.0163664
0.0163661
0.0163658
0.0163655
0.0163652
0.0163649
0.0163646
0.0163642
0.0163639
0.0163636
0.0163633
0.016363
0.0163627
0.0163624
0.0163621
0.0163618
0.0163615
0.0163612
0.0163609
0.0163606
0.0163603
0.01636
0.0163597
0.0163594
0.0163591
0.0163588
0.0163585
0.0163582
0.0163578
0.0163575
0.0163572
0.0163569
0.0163566
0.0163563
0.016356
0.0163557
0.0163554
0.0163551
0.0163548
0.0163545
0.0163542
0.0163539
0.0163536
0.0163533
0.016353
0.0163527
0.0163524
0.0163521
0.0163517
0.0163514
0.0163511
0.0163508
0.0163505
0.0163502
0.0163499
0.0163496
0.0163493
0.016349
0.0163487
0.0163484
0.0163481
0.0163478
0.0163475
0.0163472
0.0163469
0.0163466
0.0163463
0.016346
0.0163456
0.0163453
0.016345
0.0163447
0.0163444
0.0163441
0.0163438
0.0163435
0.0163432
0.0163429
0.0163426
0.0163423
0.016342
0.0163417
0.0163413
0.016341
0.0163407
0.0163404
0.0163401
0.0163397
0.0163394
0.0163391
0.0163387
0.0163384
0.016338
0.0163376
0.0163372
0.0163367
0.0163362
0.0163357
0.0163351
0.0163344
0.0163336
0.0163325
0.0163321
0.0163321
0.0163321
1
0.969188
0.495613
0.31422
0.237893
0.197391
0.172128
0.154691
0.141836
0.131922
0.124021
0.117566
0.112189
0.107638
0.103734
0.100346
0.0973775
0.0947528
0.0924137
0.0903141
0.0884171
0.0866929
0.0851172
0.08367
0.0823346
0.0810973
0.0799463
0.0788719
0.0778657
0.0769205
0.0760302
0.0751896
0.0743939
0.0736392
0.072922
0.0722392
0.071588
0.0709661
0.0703713
0.0698015
0.0692552
0.0687307
0.0682266
0.0677417
0.0672747
0.0668246
0.0663904
0.0659712
0.0655662
0.0651746
0.0647957
0.0644289
0.0640735
0.063729
0.0633949
0.0630706
0.0627558
0.0624499
0.0621526
0.0618636
0.0615823
0.0613086
0.061042
0.0607824
0.0605294
0.0602828
0.0600422
0.0598075
0.0595785
0.0593549
0.0591366
0.0589233
0.0587148
0.0585111
0.0583118
0.058117
0.0579263
0.0577398
0.0575572
0.0573784
0.0572032
0.0570317
0.0568636
0.0566989
0.0565374
0.0563791
0.0562239
0.0560716
0.0559222
0.0557755
0.0556317
0.0554904
0.0553517
0.0552155
0.0550818
0.0549504
0.0548213
0.0546945
0.0545699
0.0544474
0.0543269
0.0542085
0.0540921
0.0539777
0.0538651
0.0537543
0.0536454
0.0535382
0.0534328
0.0533291
0.053227
0.0531266
0.0530278
0.0529305
0.0528348
0.0527406
0.0526479
0.0525567
0.052467
0.0523787
0.0522918
0.0522064
0.0521223
0.0520397
0.0519585
0.0518787
0.0518002
0.0517232
0.0516476
0.0515734
0.0515007
0.0514294
0.0513595
0.051291
0.0512241
0.0511586
0.0510946
0.051032
0.050971
0.0509114
0.0508533
0.0507968
0.0507416
0.050688
0.0506358
0.050585
0.0505356
0.0504877
0.0504411
0.0503958
0.0503518
0.0503092
0.0502678
0.0502276
0.0501886
0.0501508
0.0501141
0.0500785
0.050044
0.0500106
0.0499781
0.0499467
0.0499162
0.0498867
0.049858
0.0498303
0.0498035
0.0497775
0.0497523
0.0497279
0.0497044
0.0496816
0.0496596
0.0496383
0.0496177
0.0495979
0.0495787
0.0495602
0.0495424
0.0495252
0.0495086
0.0494926
0.0494772
0.0494624
0.0494482
0.0494345
0.0494214
0.0494087
0.0493966
0.0493849
0.0493737
0.049363
0.0493528
0.0493429
0.0493335
0.0493245
0.0493159
0.0493077
0.0492998
0.0492923
0.0492851
0.0492782
0.0492717
0.0492655
0.0492595
0.0492539
0.0492487
0.0492437
0.0492391
0.0492348
0.0492308
0.0492271
0.0492238
0.0492207
0.049218
0.0492155
0.0492132
0.0492112
0.0492094
0.0492077
0.0492063
0.0492049
0.0492036
0.0492025
0.0492014
0.0492003
0.0491993
0.0491983
0.0491974
0.0491964
0.0491955
0.0491946
0.0491937
0.0491928
0.0491919
0.049191
0.0491901
0.0491892
0.0491883
0.0491873
0.0491864
0.0491855
0.0491846
0.0491837
0.0491828
0.0491819
0.049181
0.0491801
0.0491792
0.0491783
0.0491774
0.0491765
0.0491755
0.0491746
0.0491737
0.0491728
0.0491719
0.049171
0.0491701
0.0491692
0.0491683
0.0491674
0.0491665
0.0491656
0.0491646
0.0491637
0.0491628
0.0491619
0.049161
0.0491601
0.0491592
0.0491583
0.0491574
0.0491565
0.0491556
0.0491547
0.0491537
0.0491528
0.0491519
0.049151
0.0491501
0.0491492
0.0491483
0.0491474
0.0491465
0.0491456
0.0491447
0.0491437
0.0491428
0.0491419
0.049141
0.0491401
0.0491392
0.0491383
0.0491374
0.0491365
0.0491356
0.0491347
0.0491337
0.0491328
0.0491319
0.049131
0.0491301
0.0491292
0.0491283
0.0491274
0.0491265
0.0491256
0.0491247
0.0491237
0.0491228
0.0491219
0.049121
0.0491201
0.0491192
0.0491183
0.0491174
0.0491165
0.0491156
0.0491147
0.0491137
0.0491128
0.0491119
0.049111
0.0491101
0.0491092
0.0491083
0.0491074
0.0491065
0.0491056
0.0491047
0.0491037
0.0491028
0.0491019
0.049101
0.0491001
0.0490992