# vtk DataFile Version 2.0
FlowField
ASCII
DATASET STRUCTURED_GRID
DIMENSIONS 800 1 200
POINTS 160000 float
0 0 0
0.04 0 0
0.08 0 0
0.12 0 0
0.16 0 0
0.2 0 0
0.24 0 0
0.28 0 0
0.32 0 0
0.36 0 0
0.4 0 0
0.44 0 0
0.48 0 0
0.52 0 0
0.56 0 0
0.6 0 0
0.64 0 0
0.68 0 0
0.72 0 0
0.76 0 0
0.8 0 0
0.84 0 0
0.88 0 0
0.92 0 0
0.96 0 0
1 0 0
1.04 0 0
1.08 0 0
1.12 0 0
1.16 0 0
1.2 0 0
1.24 0 0
1.28 0 0
1.32 0 0
1.36 0 0
1.4 0 0
1.44 0 0
1.48 0 0
1.52 0 0
1.56 0 0
1.6 0 0
1.64 0 0
1.68 0 0
1.72 0 0
1.76 0 0
1.8 0 0
1.84 0 0
1.88 0 0
1.92 0 0
1.96 0 0
2 0 0
2.04 0 0
2.08 0 0
2.12 0 0
2.16 0 0
2.2 0 0
2.24 0 0
2.28 0 0
2.32 0 0
2.36 0 0
2.4 0 0
2.44 0 0
2.48 0 0
2.52 0 0
2.56 0 0
2.6 0 0
2.64 0 0
2.68 0 0
2.72 0 0
2.76 0 0
2.8 0 0
2.84 0 0
2.88 0 0
2.92 0 0
2.96 0 0
3 0 0
3.04 0 0
3.08 0 0
3.12 0 0
3.16 0 0
3.2 0 0
3.24 0 0
3.28 0 0
3.32 0 0
3.36 0 0
3.4 0 0
3.44 0 0
3.48 0 0
3.52 0 0
3.56 0 0
3.6 0 0
3.64 0 0
3.68 0 0
3.72 0 0
3.76 0 0
3.8 0 0
3.84 0 0
3.88 0 0
3.92 0 0
3.96 0 0
4 0 0
4.04 0 0
4.08 0 0
4.12 0 0
4.16 0 0
4.2 0 0
4.24 0 0
4.28 0 0
4.32 0 0
4.36 0 0
4.4 0 0
4.44 0 0
4.48 0 0
4.52 0 0
4.56 0 0
4.6 0 0
4.64 0 0
4.68 0 0
4.72 0 0
4.76 0 0
4.8 0 0
4.84 0 0
4.88 0 0
4.92 0 0
4.96 0 0
5 0 0
5.04 0 0
5.08 0 0
5.12 0 0
5.16 0 0
5.2 0 0
5.24 0 0
5.28 0 0
5.32 0 0
5.36 0 0
5.4 0 0
5.44 0 0
5.48 0 0
5.52 0 0
5.56 0 0
5.6 0 0
5.64 0 0
5.68 0 0
5.72 0 0
5.76 0 0
5.8 0 0
5.84 0 0
5.88 0 0
5.92 0 0
5.96 0 0
6 0 0
6.04 0 0
6.08 0 0
6.12 0 0
6.16 0 0
6.2 0 0
6.24 0 0
6.28 0 0
6.32 0 0
6.36 0 0
6.4 0 0
6.44 0 0
6.48 0 0
6.52 0 0
6.56 0 0
6.6 0 0
6.64 0 0
6.68 0 0
6.72 0 0
6.76 0 0
6.8 0 0
6.84 0 0
6.88 0 0
6.92 0 0
6.96 0 0
7 0 0
7.04 0 0
7.08 0 0
7.12 0 0
7.16 0 0
7.2 0 0
7.24 0 0
7.28 0 0
7.32 0 0
7.36 0 0
7.4 0 0
7.44 0 0
7.48 0 0
7.52 0 0
7.56 0 0
7.6 0 0
7.64 0 0
7.68 0 0
7.72 0 0
7.76 0 0
7.8 0 0
7.84 0 0
7.88 0 0
7.92 0 0
7.96 0 0
8 0 0
8.04 0 0
8.08 0 0
8.12 0 0
8.16 0 0
8.2 0 0
8.24 0 0
8.28 0 0
8.32 0 0
8.36 0 0
8.4 0 0
8.44 0 0
8.48 0 0
8.52 0 0
8.56 0 0
8.6 0 0
8.64 0 0
8.68 0 0
8.72 0 0
8.76 0 0
8.8 0 0
8.84 0 0
8.88 0 0
8.92 0 0
8.96 0 0
9 0 0
9.04 0 0
9.08 0 0
9.12 0 0
9.16 0 0
9.2 0 0
9.24 0 0
9.28 0 0
9.32 0 0
9.36 0 0
9.4 0 0
9.44 0 0
9.48 0 0
9.52 0 0
9.56 0 0
9.6 0 0
9.64 0 0
9.68 0 0
9.72 0 0
9.76 0 0
9.8 0 0
9.84 0 0
9.88 0 0
9.92 0 0
9.96 0 0
10 0 0
10.04 0 0
10.08 0 0
10.12 0 0
10.16 0 0
10.2 0 0
10.24 0 0
10.28 0 0
10.32 0 0
10.36 0 0
10.4 0 0
10.44 0 0
10.48 0 0
10.52 0 0
10.56 0 0
10.6 0 0
10.64 0 0
10.68 0 0
10.72 0 0
10.76 0 0
10.8 0 0
10.84 0 0
10.88 0 0
10.92 0 0
10.96 0 0
11 0 0
11.04 0 0
11.08 0 0
11.12 0 0
11.16 0 0
11.2 0 0
11.24 0 0
11.28 0 0
11.32 0 0
11.36 0 0
11.4 0 0
11.44 0 0
11.48 0 0
11.52 0 0
11.56 0 0
11.6 0 0
11.64 0 0
11.68 0 0
11.72 0 0
11.76 0 0
11.8 0 0
11.84 0 0
11.88 0 0
11.92 0 0
11.96 0 0
12 0 0
12.04 0 0
12.08 0 0
12.12 0 0
12.16 0 0
12.2 0 0
12.24 0 0
12.28 0 0
12.32 0 0
12.36 0 0
12.4 0 0
12.44 0 0
12.48 0 0
12.52 0 0
12.56 0 0
12.6 0 0
12.64 0 0
12.68 0 0
12.72 0 0
12.76 0 0
12.8 0 0
12.84 0 0
12.88 0 0
12.92 0 0
12.96 0 0
13 0 0
13.04 0 0
13.08 0 0
13.12 0 0
13.16 0 0
13.2 0 0
13.24 0 0
13.28 0 0
13.32 0 0
13.36 0 0
13.4 0 0
13.44 0 0
13.48 0 0
13.52 0 0
13.56 0 0
13.6 0 0
13.64 0 0
13.68 0 0
13.72 0 0
13.76 0 0
13.8 0 0
13.84 0 0
13.88 0 0
13.92 0 0
13.96 0 0
14 0 0
14.04 0 0
14.08 0 0
14.12 0 0
14.16 0 0
14.2 0 0
14.24 0 0
14.28 0 0
14.32 0 0
14.36 0 0
14.4 0 0
14.44 0 0
14.48 0 0
14.52 0 0
14.56 0 0
14.6 0 0
14.64 0 0
14.68 0 0
14.72 0 0
14.76 0 0
14.8 0 0
14.84 0 0
14.88 0 0
14.92 0 0
14.96 0 0
15 0 0
15.04 0 0
15.08 0 0
15.12 0 0
15.16 0 0
15.2 0 0
15.24 0 0
15.28 0 0
15.32 0 0
15.36 0 0
15.4 0 0
15.44 0 0
15.48 0 0
15.52 0 0
15.56 0 0
15.6 0 0
15.64 0 0
15.68 0 0
15.72 0 0
15.76 0 0
15.8 0 0
15.84 0 0
15.88 0 0
15.92 0 0
15.96 0 0
16 0 0
16.04 0 0
16.08 0 0
16.12 0 0
16.16 0 0
16.2 0 0
16.24 0 0
16.28 0 0
16.32 0 0
16.36 0 0
16.4 0 0
16.44 0 0
16.48 0 0
16.52 0 0
16.56 0 0
16.6 0 0
16.64 0 0
16.68 0 0
16.72 0 0
16.76 0 0
16.8 0 0
16.84 0 0
16.88 0 0
16.92 0 0
16.96 0 0
17 0 0
17.04 0 0
17.08 0 0
17.12 0 0
17.16 0 0
17.2 0 0
17.24 0 0
17.28 0 0
17.32 0 0
17.36 0 0
17.4 0 0
17.44 0 0
17.48 0 0
17.52 0 0
17.56 0 0
17.6 0 0
17.64 0 0
17.68 0 0
17.72 0 0
17.76 0 0
17.8 0 0
17.84 0 0
17.88 0 0
17.92 0 0
17.96 0 0
18 0 0
18.04 0 0
18.08 0 0
18.12 0 0
18.16 0 0
18.2 0 0
18.24 0 0
18.28 0 0
18.32 0 0
18.36 0 0
18.4 0 0
18.44 0 0
18.48 0 0
18.52 0 0
18.56 0 0
18.6 0 0
18.64 0 0
18.68 0 0
18.72 0 0
18.76 0 0
18.8 0 0
18.84 0 0
18.88 0 0
18.92 0 0
18.96 0 0
19 0 0
19.04 0 0
19.08 0 0
19.12 0 0
19.16 0 0
19.2 0 0
19.24 0 0
19.28 0 0
19.32 0 0
19.36 0 0
19.4 0 0
19.44 0 0
19.48 0 0
19.52 0 0
19.56 0 0
19.6 0 0
19.64 0 0
19.68 0 0
19.72 0 0
19.76 0 0
19.8 0 0
19.84 0 0
19.88 0 0
19.92 0 0
19.96 0 0
20 0 0
20.04 0 0
20.08 0 0
20.12 0 0
20.16 0 0
20.2 0 0
20.24 0 0
20.28 0 0
20.32 0 0
20.36 0 0
20.4 0 0
20.44 0 0
20.48 0 0
20.52 0 0
20.56 0 0
20.6 0 0
20.64 0 0
20.68 0 0
20.72 0 0
20.76 0 0
20.8 0 0
20.84 0 0
20.88 0 0
20.92 0 0
20.96 0 0
21 0 0
21.04 0 0
21.08 0 0
21.12 0 0
21.16 0 0
21.2 0 0
21.24 0 0
21.28 0 0
21.32 0 0
21.36 0 0
21.4 0 0
21.44 0 0
21.48 0 0
21.52 0 0
21.56 0 0
21.6 0 0
21.64 0 0
21.68 0 0
21.72 0 0
21.76 0 0
21.8 0 0
21.84 0 0
21.88 0 0
21.92 0 0
21.96 0 0
22 0 0
22.04 0 0
22.08 0 0
22.12 0 0
22.16 0 0
22.2 0 0
22.24 0 0
22.28 0 0
22.32 0 0
22.36 0 0
22.4 0 0
22.44 0 0
22.48 0 0
22.52 0 0
22.56 0 0
22.6 0 0
22.64 0 0
22.68 0 0
22.72 0 0
22.76 0 0
22.8 0 0
22.84 0 0
22.88 0 0
22.92 0 0
22.96 0 0
23 0 0
23.04 0 0
23.08 0 0
23.12 0 0
23.16 0 0
23.2 0 0
23.24 0 0
23.28 0 0
23.32 0 0
23.36 0 0
23.4 0 0
23.44 0 0
23.48 0 0
23.52 0 0
23.56 0 0
23.6 0 0
23.64 0 0
23.68 0 0
23.72 0 0
23.76 0 0
23.8 0 0
23.84 0 0
23.88 0 0
23.92 0 0
23.96 0 0
24 0 0
24.04 0 0
24.08 0 0
24.12 0 0
24.16 0 0
24.2 0 0
24.24 0 0
24.28 0 0
24.32 0 0
24.36 0 0
24.4 0 0
24.44 0 0
24.48 0 0
24.52 0 0
24.56 0 0
24.6 0 0
24.64 0 0
24.68 0 0
24.72 0 0
24.76 0 0
24.8 0 0
24.84 0 0
24.88 0 0
24.92 0 0
24.96 0 0
25 0 0
25.04 0 0
25.08 0 0
25.12 0 0
25.16 0 0
25.2 0 0
25.24 0 0
25.28 0 0
25.32 0 0
25.36 0 0
25.4 0 0
25.44 0 0
25.48 0 0
25.52 0 0
25.56 0 0
25.6 0 0
25.64 0 0
25.68 0 0
25.72 0 0
25.76 0 0
25.8 0 0
25.84 0 0
25.88 0 0
25.92 0 0
25.96 0 0
26 0 0
26.04 0 0
26.08 0 0
26.12 0 0
26.16 0 0
26.2 0 0
26.24 0 0
26.28 0 0
26.32 0 0
26.36 0 0
26.4 0 0
26.44 0 0
26.48 0 0
26.52 0 0
26.56 0 0
26.6 0 0
26.64 0 0
26.68 0 0
26.72 0 0
26.76 0 0
26.8 0 0
26.84 0 0
26.88 0 0
26.92 0 0
26.96 0 0
27 0 0
27.04 0 0
27.08 0 0
27.12 0 0
27.16 0 0
27.2 0 0
27.24 0 0
27.28 0 0
27.32 0 0
27.36 0 0
27.4 0 0
27.44 0 0
27.48 0 0
27.52 0 0
27.56 0 0
27.6 0 0
27.64 0 0
27.68 0 0
27.72 0 0
27.76 0 0
27.8 0 0
27.84 0 0
27.88 0 0
27.92 0 0
27.96 0 0
28 0 0
28.04 0 0
28.08 0 0
28.12 0 0
28.16 0 0
28.2 0 0
28.24 0 0
28.28 0 0
28.32 0 0
28.36 0 0
28.4 0 0
28.44 0 0
28.48 0 0
28.52 0 0
28.56 0 0
28.6 0 0
28.64 0 0
28.68 0 0
28.72 0 0
28.76 0 0
28.8 0 0
28.84 0 0
28.88 0 0
28.92 0 0
28.96 0 0
29 0 0
29.04 0 0
29.08 0 0
29.12 0 0
29.16 0 0
29.2 0 0
29.24 0 0
29.28 0 0
29.32 0 0
29.36 0 0
29.4 0 0
29.44 0 0
29.48 0 0
29.52 0 0
29.56 0 0
29.6 0 0
29.64 0 0
29.68 0 0
29.72 0 0
29.76 0 0
29.8 0 0
29.84 0 0
29.88 0 0
29.92 0 0
29.96 0 0
30 0 0
30.04 0 0
30.08 0 0
30.12 0 0
30.16 0 0
30.2 0 0
30.24 0 0
30.28 0 0
30.32 0 0
30.36 0 0
30.4 0 0
30.44 0 0
30.48 0 0
30.52 0 0
30.56 0 0
30.6 0 0
30.64 0 0
30.68 0 0
30.72 0 0
30.76 0 0
30.8 0 0
30.84 0 0
30.88 0 0
30.92 0 0
30.96 0 0
31 0 0
31.04 0 0
31.08 0 0
31.12 0 0
31.16 0 0
31.2 0 0
31.24 0 0
31.28 0 0
31.32 0 0
31.36 0 0
31.4 0 0
31.44 0 0
31.48 0 0
31.52 0 0
31.56 0 0
31.6 0 0
31.64 0 0
31.68 0 0
31.72 0 0
31.76 0 0
31.8 0 0
31.84 0 0
31.88 0 0
31.92 0 0
31.96 0 0
0 0.005 0
0.04 0.005 0
0.08 0.005 0
0.12 0.005 0
0.16 0.005 0
0.2 0.005 0
0.24 0.005 0
0.28 0.005 0
0.32 0.005 0
0.36 0.005 0
0.4 0.005 0
0.44 0.005 0
0.48 0.005 0
0.52 0.005 0
0.56 0.005 0
0.6 0.005 0
0.64 0.005 0
0.68 0.005 0
0.72 0.005 0
0.76 0.005 0
0.8 0.005 0
0.84 0.005 0
0.88 0.005 0
0.92 0.005 0
0.96 0.005 0
1 0.005 0
1.04 0.005 0
1.08 0.005 0
1.12 0.005 0
1.16 0.005 0
1.2 0.005 0
1.24 0.005 0
1.28 0.005 0
1.32 0.005 0
1.36 0.005 0
1.4 0.005 0
1.44 0.005 0
1.48 0.005 0
1.52 0.005 0
1.56 0.005 0
1.6 0.005 0
1.64 0.005 0
1.68 0.005 0
1.72 0.005 0
1.76 0.005 0
1.8 0.005 0
1.84 0.005 0
1.88 0.005 0
1.92 0.005 0
1.96 0.005 0
2 0.005 0
2.04 0.005 0
2.08 0.005 0
2.12 0.005 0
2.16 0.005 0
2.2 0.005 0
2.24 0.005 0
2.28 0.005 0
2.32 0.005 0
2.36 0.005 0
2.4 0.005 0
2.44 0.005 0
2.48 0.005 0
2.52 0.005 0
2.56 0.005 0
2.6 0.005 0
2.64 0.005 0
2.68 0.005 0
2.72 0.005 0
2.76 0.005 0
2.8 0.005 0
2.84 0.005 0
2.88 0.005 0
2.92 0.005 0
2.96 0.005 0
3 0.005 0
3.04 0.005 0
3.08 0.005 0
3.12 0.005 0
3.16 0.005 0
3.2 0.005 0
3.24 0.005 0
3.28 0.005 0
3.32 0.005 0
3.36 0.005 0
3.4 0.005 0
3.44 0.005 0
3.48 0.005 0
3.52 0.005 0
3.56 0.005 0
3.6 0.005 0
3.64 0.005 0
3.68 0.005 0
3.72 0.005 0
3.76 0.005 0
3.8 0.005 0
3.84 0.005 0
3.88 0.005 0
3.92 0.005 0
3.96 0.005 0
4 0.005 0
4.04 0.005 0
4.08 0.005 0
4.12 0.005 0
4.16 0.005 0
4.2 0.005 0
4.24 0.005 0
4.28 0.005 0
4.32 0.005 0
4.36 0.005 0
4.4 0.005 0
4.44 0.005 0
4.48 0.005 0
4.52 0.005 0
4.56 0.005 0
4.6 0.005 0
4.64 0.005 0
4.68 0.005 0
4.72 0.005 0
4.76 0.005 0
4.8 0.005 0
4.84 0.005 0
4.88 0.005 0
4.92 0.005 0
4.96 0.005 0
5 0.005 0
5.04 0.005 0
5.08 0.005 0
5.12 0.005 0
5.16 0.005 0
5.2 0.005 0
5.24 0.005 0
5.28 0.005 0
5.32 0.005 0
5.36 0.005 0
5.4 0.005 0
5.44 0.005 0
5.48 0.005 0
5.52 0.005 0
5.56 0.005 0
5.6 0.005 0
5.64 0.005 0
5.68 0.005 0
5.72 0.005 0
5.76 0.005 0
5.8 0.005 0
5.84 0.005 0
5.88 0.005 0
5.92 0.005 0
5.96 0.005 0
6 0.005 0
6.04 0.005 0
6.08 0.005 0
6.12 0.005 0
6.16 0.005 0
6.2 0.005 0
6.24 0.005 0
6.28 0.005 0
6.32 0.005 0
6.36 0.005 0
6.4 0.005 0
6.44 0.005 0
6.48 0.005 0
6.52 0.005 0
6.56 0.005 0
6.6 0.005 0
6.64 0.005 0
6.68 0.005 0
6.72 0.005 0
6.76 0.005 0
6.8 0.005 0
6.84 0.005 0
6.88 0.005 0
6.92 0.005 0
6.96 0.005 0
7 0.005 0
7.04 0.005 0
7.08 0.005 0
7.12 0.005 0
7.16 0.005 0
7.2 0.005 0
7.24 0.005 0
7.28 0.005 0
7.32 0.005 0
7.36 0.005 0
7.4 0.005 0
[...]
POINT_DATA 160000

SCALARS u float 1
LOOKUP_TABLE default
-1
-0.483357
-0.183963
-0.108845
-0.0810326
-0.0668331
-0.0581175
-0.052152
-0.0477767
-0.0444138
-0.0417405
-0.0395607
-0.0377474
-0.0362144
-0.0349006
-0.0337615
-0.0327638
-0.031882
-0.0310963
-0.0303912
-0.0297542
-0.0291752
-0.028646
-0.0281599
-0.0277113
-0.0272955
-0.0269087
-0.0265475
-0.0262091
-0.0258911
-0.0255916
-0.0253086
-0.0250408
-0.0247866
-0.024545
-0.024315
-0.0240956
-0.0238859
-0.0236854
-0.0234933
-0.0233091
-0.0231322
-0.0229621
-0.0227985
-0.0226409
-0.022489
-0.0223425
-0.022201
-0.0220642
-0.021932
-0.0218041
-0.0216802
-0.0215602
-0.0214439
-0.021331
-0.0212215
-0.0211152
-0.0210118
-0.0209114
-0.0208137
-0.0207187
-0.0206262
-0.0205362
-0.0204484
-0.0203629
-0.0202796
-0.0201983
-0.020119
-0.0200416
-0.019966
-0.0198922
-0.0198201
-0.0197496
-0.0196808
-0.0196134
-0.0195475
-0.0194831
-0.01942
-0.0193583
-0.0192978
-0.0192386
-0.0191806
-0.0191238
-0.019068
-0.0190134
-0.0189599
-0.0189074
-0.0188559
-0.0188053
-0.0187557
-0.018707
-0.0186592
-0.0186123
-0.0185662
-0.0185209
-0.0184765
-0.0184328
-0.0183898
-0.0183476
-0.0183061
-0.0182653
-0.0182251
-0.0181857
-0.0181469
-0.0181087
-0.0180711
-0.0180341
-0.0179977
-0.0179619
-0.0179266
-0.0178919
-0.0178577
-0.017824
-0.0177908
-0.0177581
-0.0177259
-0.0176942
-0.017663
-0.0176322
-0.0176018
-0.0175719
-0.0175424
-0.0175133
-0.0174846
-0.0174563
-0.0174285
-0.017401
-0.0173738
-0.0173471
-0.0173207
-0.0172946
-0.0172689
-0.0172436
-0.0172186
-0.0171939
-0.0171695
-0.0171454
-0.0171217
-0.0170982
-0.0170751
-0.0170523
-0.0170297
-0.0170074
-0.0169854
-0.0169637
-0.0169422
-0.016921
-0.0169001
-0.0168794
-0.016859
-0.0168388
-0.0168189
-0.0167992
-0.0167797
-0.0167605
-0.0167415
-0.0167227
-0.0167041
-0.0166858
-0.0166676
-0.0166497
-0.016632
-0.0166145
-0.0165972
-0.01658
-0.0165631
-0.0165464
-0.0165299
-0.0165135
-0.0164973
-0.0164814
-0.0164656
-0.0164499
-0.0164345
-0.0164192
-0.0164041
-0.0163891
-0.0163743
-0.0163597
-0.0163452
-0.0163309
-0.0163167
-0.0163027
-0.0162889
-0.0162752
-0.0162616
-0.0162482
-0.016235
-0.0162218
-0.0162089
-0.016196
-0.0161833
-0.0161707
-0.0161583
-0.016146
-0.0161338
-0.0161218
-0.0161098
-0.0160981
-0.0160864
-0.0160748
-0.0160634
-0.0160521
-0.0160409
-0.0160299
-0.0160189
-0.0160081
-0.0159974
-0.0159868
-0.0159764
-0.015966
-0.0159558
-0.0159457
-0.0159357
-0.0159258
-0.015916
-0.0159063
-0.0158968
-0.0158874
-0.0158781
-0.0158689
-0.0158598
-0.0158508
-0.015842
-0.0158333
-0.0158247
-0.0158162
-0.0158078
-0.0157995
-0.0157914
-0.0157834
-0.0157755
-0.0157677
-0.01576
-0.0157525
-0.0157451
-0.0157377
-0.0157306
-0.0157235
-0.0157165
-0.0157097
-0.015703
-0.0156963
-0.0156899
-0.0156835
-0.0156772
-0.0156711
-0.015665
-0.0156591
-0.0156533
-0.0156476
-0.015642
-0.0156365
-0.0156312
-0.0156259
-0.0156208
-0.0156157
-0.0156108
-0.015606
-0.0156012
-0.0155966
-0.0155921
-0.0155877
-0.0155833
-0.0155791
-0.015575
-0.015571
-0.015567
-0.0155632
-0.0155594
-0.0155558
-0.0155522
-0.0155487
-0.0155453
-0.015542
-0.0155388
-0.0155357
-0.0155326
-0.0155297
-0.0155268
-0.015524
-0.0155212
-0.0155186
-0.015516
-0.0155135
-0.0155111
-0.0155087
-0.0155064
-0.0155042
-0.015502
-0.0154999
-0.0154979
-0.0154959
-0.015494
-0.0154922
-0.0154904
-0.0154886
-0.015487
-0.0154854
-0.0154838
-0.0154823
-0.0154808
-0.0154794
-0.015478
-0.0154767
-0.0154754
-0.0154742
-0.015473
-0.0154718
-0.0154707
-0.0154697
-0.0154686
-0.0154676
-0.0154667
-0.0154658
-0.0154649
-0.015464
-0.0154632
-0.0154624
-0.0154616
-0.0154609
-0.0154602
-0.0154595
-0.0154588
-0.0154582
-0.0154576
-0.015457
-0.0154564
-0.0154559
-0.0154553
-0.0154548
-0.0154543
-0.0154538
-0.0154534
-0.0154529
-0.0154525
-0.015452
-0.0154516
-0.0154512
-0.0154508
-0.0154505
-0.0154501
-0.0154497
-0.0154494
-0.015449
-0.0154487
-0.0154484
-0.015448
-0.0154477
-0.0154474
-0.0154471
-0.0154468
-0.0154464
-0.0154461
-0.0154458
-0.0154455
-0.0154452
-0.0154449
-0.0154446
-0.0154443
-0.015444
-0.0154437
-0.0154434
-0.0154431
-0.0154428
-0.0154425
-0.0154422
-0.0154419
-0.0154416
-0.0154413
-0.015441
-0.0154407
-0.0154404
-0.0154401
-0.0154398
-0.0154395
-0.0154392
-0.0154389
-0.0154386
-0.0154383
-0.015438
-0.0154377
-0.0154374
-0.0154371
-0.0154367
-0.0154364
-0.0154361
-0.0154358
-0.0154355
-0.0154352
-0.0154349
-0.0154346
-0.0154343
-0.015434
-0.0154337
-0.0154334
-0.0154331
-0.0154328
-0.0154325
-0.0154322
-0.0154319
-0.0154316
-0.0154313
-0.015431
-0.0154307
-0.0154304
-0.0154301
-0.0154298
-0.0154295
-0.0154292
-0.0154289
-0.0154286
-0.0154283
-0.015428
-0.0154277
-0.0154274
-0.0154271
-0.0154268
-0.0154265
-0.0154262
-0.0154259
-0.0154256
-0.0154253
-0.015425
-0.0154247
-0.0154244
-0.0154241
-0.0154238
-0.0154235
-0.0154231
-0.0154228
-0.0154225
-0.0154222
-0.0154219
-0.0154216
-0.0154213
-0.015421
-0.0154207
-0.0154204
-0.0154201
-0.0154198
-0.0154195
-0.0154192
-0.0154189
-0.0154186
-0.0154183
-0.015418
-0.0154177
-0.0154174
-0.0154171
-0.0154168
-0.0154165
-0.0154162
-0.0154159
-0.0154156
-0.0154153
-0.015415
-0.0154147
-0.0154144
-0.0154141
-0.0154138
-0.0154135
-0.0154132
-0.0154129
-0.0154126
-0.0154123
-0.015412
-0.0154117
-0.0154114
-0.0154111
-0.0154108
-0.0154105
-0.0154102
-0.0154099
-0.0154096
-0.0154092
-0.0154089
-0.0154086
-0.0154083
-0.015408
-0.0154077
-0.0154074
-0.0154071
-0.0154068
-0.0154065
-0.0154062
-0.0154059
-0.0154056
-0.0154053
-0.015405
-0.0154047
-0.0154044
-0.0154041
-0.0154038
-0.0154035
-0.0154032
-0.0154029
-0.0154026
-0.0154023
-0.015402
-0.0154017
-0.0154014
-0.0154011
-0.0154008
-0.0154005
-0.0154002
-0.0153999
-0.0153996
-0.0153993
-0.015399
-0.0153987
-0.0153984
-0.0153981
-0.0153978
-0.0153975
-0.0153972
-0.0153969
-0.0153966
-0.0153963
-0.015396
-0.0153957
-0.0153953
-0.015395
-0.0153947
-0.0153944
-0.0153941
-0.0153938
-0.0153935
-0.0153932
-0.0153929
-0.0153926
-0.0153923
-0.015392
-0.0153917
-0.0153914
-0.0153911
-0.0153908
-0.0153905
-0.0153902
-0.0153899
-0.0153896
-0.0153893
-0.015389
-0.0153887
-0.0153884
-0.0153881
-0.0153878
-0.0153875
-0.0153872
-0.0153869
-0.0153866
-0.0153863
-0.015386
-0.0153857
-0.0153854
-0.0153851
-0.0153848
-0.0153845
-0.0153842
-0.0153839
-0.0153836
-0.0153833
-0.015383
-0.0153827
-0.0153824
-0.0153821
-0.0153818
-0.0153815
-0.0153812
-0.0153808
-0.0153805
-0.0153802
-0.0153799
-0.0153796
-0.0153793
-0.015379
-0.0153787
-0.0153784
-0.0153781
-0.0153778
-0.0153775
-0.0153772
-0.0153769
-0.0153766
-0.0153763
-0.015376
-0.0153757
-0.0153754
-0.0153751
-0.0153748
-0.0153745
-0.0153742
-0.0153739
-0.0153736
-0.0153733
-0.015373
-0.0153727
-0.0153724
-0.0153721
-0.0153718
-0.0153715
-0.0153712
-0.0153709
-0.0153706
-0.0153703
-0.01537
-0.0153697
-0.0153694
-0.0153691
-0.0153688
-0.0153685
-0.0153682
-0.0153679
-0.0153676
-0.0153673
-0.015367
-0.0153667
-0.0153663
-0.015366
-0.0153657
-0.0153654
-0.0153651
-0.0153648
-0.0153645
-0.0153642
-0.0153639
-0.0153636
-0.0153633
-0.015363
-0.0153627
-0.0153624
-0.0153621
-0.0153618
-0.0153615
-0.0153612
-0.0153609
-0.0153606
-0.0153603
-0.01536
-0.0153597
-0.0153594
-0.0153591
-0.0153588
-0.0153585
-0.0153582
-0.0153579
-0.0153576
-0.0153573
-0.015357
-0.0153567
-0.0153564
-0.0153561
-0.0153558
-0.0153555
-0.0153552
-0.0153549
-0.0153546
-0.0153543
-0.015354
-0.0153537
-0.0153534
-0.0153531
-0.0153528
-0.0153525
-0.0153522
-0.0153519
-0.0153516
-0.0153512
-0.0153509
-0.0153506
-0.0153503
-0.01535
-0.0153497
-0.0153494
-0.0153491
-0.0153488
-0.0153485
-0.0153482
-0.0153479
-0.0153476
-0.0153473
-0.015347
-0.0153467
-0.0153464
-0.0153461
-0.0153458
-0.0153455
-0.0153452
-0.0153449
-0.0153446
-0.0153443
-0.015344
-0.0153437
-0.0153434
-0.0153431
-0.0153428
-0.0153425
-0.0153422
-0.0153419
-0.0153416
-0.0153413
-0.015341
-0.0153407
-0.0153404
-0.0153401
-0.0153398
-0.0153395
-0.0153392
-0.0153389
-0.0153386
-0.0153383
-0.015338
-0.0153377
-0.0153374
-0.0153371
-0.0153368
-0.0153365
-0.0153361
-0.0153358
-0.0153355
-0.0153352
-0.0153349
-0.0153346
-0.0153343
-0.015334
-0.0153337
-0.0153334
-0.0153331
-0.0153328
-0.0153325
-0.0153322
-0.0153319
-0.0153316
-0.0153313
-0.015331
-0.0153307
-0.0153304
-0.0153301
-0.0153298
-0.0153295
-0.0153292
-0.0153289
-0.0153286
-0.0153283
-0.015328
-0.0153277
-0.0153274
-0.0153271
-0.0153268
-0.0153265
-0.0153262
-0.0153259
-0.0153256
-0.0153253
-0.015325
-0.0153247
-0.0153244
-0.0153241
-0.0153238
-0.0153235
-0.0153232
-0.0153229
-0.0153226
-0.0153223
-0.015322
-0.0153217
-0.0153214
-0.015321
-0.0153207
-0.0153204
-0.0153201
-0.0153198
-0.0153195
-0.0153192
-0.0153189
-0.0153186
-0.0153183
-0.015318
-0.0153177
-0.0153174
-0.0153171
-0.0153168
-0.0153164
-0.0153161
-0.0153158
-0.0153154
-0.0153151
-0.0153147
-0.0153144
-0.015314
-0.0153135
-0.0153131
-0.0153126
-0.015312
-0.0153113
-0.0153107
-0.0153096
-0.0153092
-0.0153092
-0.0153092
1
0.483357
0.183963
0.108845
0.0810326
0.0668331
0.0581175
0.052152
0.0477767
0.0444138
0.0417405
0.0395607
0.0377474
0.0362144
0.0349006
0.0337615
0.0327638
0.031882
0.0310963
0.0303912
0.0297542
0.0291752
0.028646
0.0281599
0.0277113
0.0272955
0.0269087
0.0265475
0.0262091
0.0258911
0.0255916
0.0253086
0.0250408
0.0247866
0.024545
0.024315
0.0240956
0.0238859
0.0236854
0.0234933
0.0233091
0.0231322
0.0229621
0.0227985
0.0226409
0.022489
0.0223425
0.022201
0.0220642
0.021932
0.0218041
0.0216802
0.0215602
0.0214439
0.021331
0.0212215
0.0211152
0.0210118
0.0209114
0.0208137
0.0207187
0.0206262
0.0205362
0.0204484
0.0203629
0.0202796
0.0201983
0.020119
0.0200416
0.019966
0.0198922
0.0198201
0.0197496
0.0196808
0.0196134
0.0195475
0.0194831
0.01942
0.0193583
0.0192978
0.0192386
0.0191806
0.0191238
0.019068
0.0190134
0.0189599
0.0189074
0.0188559
0.0188053
0.0187557
0.018707
0.0186592
0.0186123
0.0185662
0.0185209
0.0184765
0.0184328
0.0183898
0.0183476
0.0183061
0.0182653
0.0182251
0.0181857
0.0181469
0.0181087
0.0180711
0.0180341
0.0179977
0.0179619
0.0179266
0.0178919
0.0178577
0.017824
0.0177908
0.0177581
0.0177259
0.0176942
0.017663
0.0176322
0.0176018
0.0175719
0.0175424
0.0175133
0.0174846
0.0174563
0.0174285
0.017401
0.0173738
0.0173471
0.0173207
0.0172946
0.0172689
0.0172436
0.0172186
0.0171939
0.0171695
0.0171454
0.0171217
0.0170982
0.0170751
0.0170523
0.0170297
0.0170074
0.0169854
0.0169637
0.0169422
0.016921
0.0169001
0.0168794
0.016859
0.0168388
0.0168189
0.0167992
0.0167797
0.0167605
0.0167415
0.0167227
0.0167041
0.0166858
0.0166676
0.0166497
0.016632
0.0166145
0.0165972
0.01658
0.0165631
0.0165464
0.0165299
0.0165135
0.0164973
0.0164814
0.0164656
0.0164499
0.0164345
0.0164192
0.0164041
0.0163891
0.0163743
0.0163597
0.0163452
0.0163309
0.0163167
0.0163027
0.0162889
0.0162752
0.0162616
0.0162482
0.016235
0.0162218
0.0162089
0.016196
0.0161833
0.0161707
0.0161583
0.016146
0.0161338
0.0161218
0.0161098
0.0160981
0.0160864
0.0160748
0.0160634
0.0160521
0.0160409
0.0160299
0.0160189
0.0160081
0.0159974
0.0159868
0.0159764
0.015966
0.0159558
0.0159457
0.0159357
0.0159258
0.015916
0.0159063
0.0158968
0.0158874
0.0158781
0.0158689
0.0158598
0.0158508
0.015842
0.0158333
0.0158247
0.0158162
0.0158078
0.0157995
0.0157914
0.0157834
0.0157755
0.0157677
0.01576
0.0157525
0.0157451
0.0157377
0.0157306
0.0157235
0.0157165
0.0157097
0.015703
0.0156963
0.0156899
0.0156835
0.0156772
0.0156711
0.015665
0.0156591
0.0156533
0.0156476
0.015642
0.0156365
0.0156312
0.0156259
0.0156208
0.0156157
0.0156108
0.015606
0.0156012
0.0155966
0.0155921
0.0155877
0.0155833
0.0155791
0.015575
0.015571
0.015567
0.0155632
0.0155594
0.0155558
0.0155522
0.0155487
0.0155453
0.015542
0.0155388
0.0155357
0.0155326
0.0155297
0.0155268
0.015524
0.0155212
0.0155186
0.015516
0.0155135
0.0155111
0.0155087
0.0155064
0.0155042
0.015502
0.0154999
0.0154979
0.0154959
0.015494
0.0154922
0.0154904
0.0154886
0.015487
0.0154854
0.0154838
0.0154823
0.0154808
0.0154794
0.015478
0.0154767
0.0154754
0.0154742
0.015473
0.0154718
0.0154707
0.0154697
0.0154686
0.0154676
0.0154667
0.0154658
0.0154649
0.015464
0.0154632
0.0154624
0.0154616
0.0154609
0.0154602
0.0154595
0.0154588
0.0154582
0.0154576
0.015457
0.0154564
0.0154559
0.0154553
0.0154548
0.0154543
0.0154538
0.0154534
0.0154529
0.0154525
0.015452
0.0154516
0.0154512
0.0154508
0.0154505
0.0154501
0.0154497
0.0154494
0.015449
0.0154487
0.0154484
0.015448
0.0154477
0.0154474
0.0154471
0.0154468
0.0154464
0.0154461
0.0154458
0.0154455
0.0154452
0.0154449
0.0154446
0.0154443
0.015444
0.0154437
0.0154434
0.0154431
0.0154428
0.0154425
0.0154422
0.0154419
0.0154416
0.0154413
0.015441
0.0154407
0.0154404
0.0154401
0.0154398
0.0154395
0.0154392
0.0154389
0.0154386
0.0154383
0.015438
0.0154377
0.0154374
0.0154371
0.0154367
0.0154364
0.0154361
0.0154358
0.0154355
0.0154352
0.0154349
0.0154346
0.0154343
0.015434
0.0154337
0.0154334
0.0154331
0.0154328
0.0154325
0.0154322
0.0154319
0.0154316
0.0154313
0.015431
0.0154307
0.0154304
0.0154301
0.0154298
0.0154295
0.0154292
0.0154289
0.0154286
0.0154283
0.015428
0.0154277
0.0154274
0.0154271
0.0154268
0.0154265
0.0154262
0.0154259
0.0154256
0.0154253
0.015425
0.0154247
0.0154244
0.0154241
0.0154238
0.0154235
0.0154231
0.0154228
0.0154225
0.0154222
0.0154219
0.0154216
0.0154213
0.015421
0.0154207
0.0154204
0.0154201
0.0154198
0.0154195
0.0154192
0.0154189
0.0154186
0.0154183
0.015418
0.0154177
0.0154174
0.0154171
0.0154168
0.0154165
0.0154162
0.0154159
0.0154156
0.0154153
0.015415
0.0154147
0.0154144
0.0154141
0.0154138
0.0154135
0.0154132
0.0154129
0.0154126
0.0154123
0.015412
0.0154117
0.0154114
0.0154111
0.0154108
0.0154105
0.0154102
0.0154099
0.0154096
0.0154092
0.0154089
0.0154086
0.0154083
0.015408
0.0154077
0.0154074
0.0154071
0.0154068
0.0154065
0.0154062
0.0154059
0.0154056
0.0154053
0.015405
0.0154047
0.0154044
0.0154041
0.0154038
0.0154035
0.0154032
0.0154029
0.0154026
0.0154023
0.015402
0.0154017
0.0154014
0.0154011
0.0154008
0.0154005
0.0154002
0.0153999
0.0153996
0.0153993
0.015399
0.0153987
0.0153984
0.0153981
0.0153978
0.0153975
0.0153972
0.0153969
0.0153966
0.0153963
0.015396
0.0153957
0.0153953
0.015395
0.0153947
0.0153944
0.0153941
0.0153938
0.0153935
0.0153932
0.0153929
0.0153926
0.0153923
0.015392
0.0153917
0.0153914
0.0153911
0.0153908
0.0153905
0.0153902
0.0153899
0.0153896
0.0153893
0.015389
0.0153887
0.0153884
0.0153881
0.0153878
0.0153875
0.0153872
0.0153869
0.0153866
0.0153863
0.015386
0.0153857
0.0153854
0.0153851
0.0153848
0.0153845
0.0153842
0.0153839
0.0153836
0.0153833
0.015383
0.0153827
0.0153824
0.0153821
0.0153818
0.0153815
0.0153812
0.0153808
0.0153805
0.0153802
0.0153799
0.0153796
0.0153793
0.015379
0.0153787
0.0153784
0.0153781
0.0153778
0.0153775
0.0153772
0.0153769
0.0153766
0.0153763
0.015376
0.0153757
0.0153754
0.0153751
0.0153748
0.0153745
0.0153742
0.0153739
0.0153736
0.0153733
0.015373
0.0153727
0.0153724
0.0153721
0.0153718
0.0153715
0.0153712
0.0153709
0.0153706
0.0153703
0.01537
0.0153697
0.0153694
0.0153691
0.0153688
0.0153685
0.0153682
0.0153679
0.0153676
0.0153673
0.015367
0.0153667
0.0153663
0.015366
0.0153657
0.0153654
0.0153651
0.0153648
0.0153645
0.0153642
0.0153639
0.0153636
0.0153633
0.015363
0.0153627
0.0153624
0.0153621
0.0153618
0.0153615
0.0153612
0.0153609
0.0153606
0.0153603
0.01536
0.0153597
0.0153594
0.0153591
0.0153588
0.0153585
0.0153582
0.0153579
0.0153576
0.0153573
0.015357
0.0153567
0.0153564
0.0153561
0.0153558
0.0153555
0.0153552
0.0153549
0.0153546
0.0153543
0.015354
0.0153537
0.0153534
0.0153531
0.0153528
0.0153525
0.0153522
0.0153519
0.0153516
0.0153512
0.0153509
0.0153506
0.0153503
0.01535
0.0153497
0.0153494
0.0153491
0.0153488
0.0153485
0.0153482
0.0153479
0.0153476
0.0153473
0.015347
0.0153467
0.0153464
0.0153461
0.0153458
0.0153455
0.0153452
0.0153449
0.0153446
0.0153443
0.015344
0.0153437
0.0153434
0.0153431
0.0153428
0.0153425
0.0153422
0.0153419
0.0153416
0.0153413
0.015341
0.0153407
0.0153404
0.0153401
0.0153398
0.0153395
0.0153392
0.0153389
0.0153386
0.0153383
0.015338
0.0153377
0.0153374
0.0153371
0.0153368
0.0153365
0.0153361
0.0153358
0.0153355
0.0153352
0.0153349
0.0153346
0.0153343
0.015334
0.0153337
0.0153334
0.0153331
0.0153328
0.0153325
0.0153322
0.0153319
0.0153316
0.0153313
0.015331
0.0153307
0.0153304
0.0153301
0.0153298
0.0153295
0.0153292
0.0153289
0.0153286
0.0153283
0.015328
0.0153277
0.0153274
0.0153271
0.0153268
0.0153265
0.0153262
0.0153259
0.0153256
0.0153253
0.015325
0.0153247
0.0153244
0.0153241
0.0153238
0.0153235
0.0153232
0.0153229
0.0153226
0.0153223
0.015322
0.0153217
0.0153214
0.015321
0.0153207
0.0153204
0.0153201
0.0153198
0.0153195
0.0153192
0.0153189
0.0153186
0.0153183
0.015318
0.0153177
0.0153174
0.0153171
0.0153168
0.0153164
0.0153161
0.0153158
0.0153154
0.0153151
0.0153147
0.0153144
0.015314
0.0153135
0.0153131
0.0153126
0.015312
0.0153113
0.0153107
0.0153096
0.0153092
0.0153092
0.0153092
1
0.969191
0.495615
0.314222
0.237896
0.197394
0.172132
0.154695
0.14184
0.131926
0.124026
0.117571
0.112194
0.107643
0.103739
0.100352
0.0973838
0.0947593
0.0924204
0.090321
0.0884242
0.0867002
0.0851247
0.0836776
0.0823424
0.0811053
0.0799545
0.0788803
0.0778742
0.0769292
0.0760391
0.0751986
0.074403
0.0736485
0.0729314
0.0722488
0.0715978
0.070976
0.0703813
0.0698117
0.0692655
0.0687411
0.0682372
0.0677524
0.0672855
0.0668355
0.0664014
0.0659824
0.0655775
0.065186
0.0648072
0.0644405
0.0640853
0.0637409
0.0634069
0.0630827
0.062768
0.0624622
0.062165
0.0618761
0.0615949
0.0613213
0.0610548
0.0607953
0.0605424
0.0602958
0.0600554
0.0598208
0.0595919
0.0593684
0.0591501
0.0589369
0.0587285
0.0585248
0.0583257
0.0581309
0.0579403
0.0577538
0.0575713
0.0573925
0.0572175
0.057046
0.056878
0.0567133
0.0565519
0.0563936
0.0562384
0.0560861
0.0559367
0.0557901
0.0556462
0.0555049
0.0553662
0.05523
0.0550962
0.0549648
0.0548356
0.0547087
0.0545839
0.0544613
0.0543407
0.0542222
0.0541055
0.0539908
0.053878
0.0537669
0.0536577
0.0535501
0.0534443
0.0533401
0.0532375
0.0531364
0.0530369
0.0529389
0.0528424
0.0527473
0.0526536
0.0525613
0.0524703
0.0523806
0.0522923
0.0522051
0.0521192
0.0520345
0.051951
0.0518687
0.0517875
0.0517074
0.0516283
0.0515504
0.0514735
0.0513976
0.0513227
0.0512488
0.0511759
0.051104
0.0510329
0.0509628
0.0508936
0.0508253
0.0507578
0.0506912
0.0506254
0.0505605
0.0504963
0.050433
0.0503704
0.0503086
0.0502475
0.0501872
0.0501276
0.0500688
0.0500106
0.0499532
0.0498964
0.0498403
0.0497848
0.04973
0.0496759
0.0496224
0.0495695
0.0495172
0.0494655
0.0494144
0.0493639
0.0493139
0.0492646
0.0492158
0.0491675
0.0491198
0.0490726
0.049026
0.0489798
0.0489342
0.0488891
0.0488445
0.0488004
0.0487567
0.0487136
0.0486709
0.0486287
0.0485869
0.0485456
0.0485047
0.0484643
0.0484243
0.0483848
0.0483456
0.0483069
0.0482686
0.0482307
0.0481933
0.0481562
0.0481195
0.0480832
0.0480473
0.0480117
0.0479766
0.0479418
0.0479074
0.0478734
0.0478397
0.0478064
0.0477735
0.0477409
0.0477087
0.0476768
0.0476452
0.0476141
0.0475832
0.0475528
0.0475226
0.0474928
0.0474634
0.0474343
0.0474056
0.0473772
0.0473491
0.0473214
0.047294
0.047267
0.0472403
0.047214
0.047188
0.0471624
0.0471371
0.0471122
0.0470876
0.0470634
0.0470395
0.047016
0.0469928
0.04697
0.0469476
0.0469254
0.0469037
0.0468823
0.0468612
0.0468405
0.0468201
0.0468001
0.0467804
0.0467611
0.0467421
0.0467235
0.0467052
0.0466872
0.0466696
0.0466523
0.0466354
0.0466187
0.0466025
0.0465865
0.0465708
0.0465555
0.0465405
0.0465258
0.0465114
0.0464973
0.0464836
0.0464701
0.0464569
0.0464441
0.0464315
0.0464192
0.0464072
0.0463955
0.0463841
0.0463729
0.046362
0.0463514
0.0463411
0.046331
0.0463211
0.0463116
0.0463022
0.0462932
0.0462843
0.0462757
0.0462674
0.0462592
0.0462513
0.0462436
0.0462362
0.0462289
0.0462219
0.046215
0.0462084
0.0462019
0.0461957
0.0461896
0.0461838
0.0461781
0.0461726
0.0461672
0.0461621
0.0461571
0.0461522
0.0461476
0.046143
0.0461387
0.0461344
0.0461304
0.0461264
0.0461226
0.0461189
0.0461154
0.0461119
0.0461086
0.0461054
0.0461024
0.0460994
0.0460965
0.0460938
0.0460911
0.0460886
0.0460861
0.0460837
0.0460814
0.0460792
0.0460771
0.046075
0.046073
0.0460711
0.0460693
0.0460675
0.0460658
0.0460641
0.0460625
0.046061
0.0460595
0.0460581
0.0460567
0.0460553
0.046054
0.0460527
0.0460515
0.0460503
0.0460491
0.046048
0.0460469