# vtk DataFile Version 2.0
FlowField
ASCII
DATASET STRUCTURED_GRID
DIMENSIONS 800 1 200
POINTS 160000 float
0 0 0
0.04 0 0
0.08 0 0
0.12 0 0
0.16 0 0
0.2 0 0
0.24 0 0
0.28 0 0
0.32 0 0
0.36 0 0
0.4 0 0
0.44 0 0
0.48 0 0
0.52 0 0
0.56 0 0
0.6 0 0
0.64 0 0
0.68 0 0
0.72 0 0
0.76 0 0
0.8 0 0
0.84 0 0
0.88 0 0
0.92 0 0
0.96 0 0
1 0 0
1.04 0 0
1.08 0 0
1.12 0 0
1.16 0 0
1.2 0 0
1.24 0 0
1.28 0 0
1.32 0 0
1.36 0 0
1.4 0 0
1.44 0 0
1.48 0 0
1.52 0 0
1.56 0 0
1.6 0 0
1.64 0 0
1.68 0 0
1.72 0 0
1.76 0 0
1.8 0 0
1.84 0 0
1.88 0 0
1.92 0 0
1.96 0 0
2 0 0
2.04 0 0
2.08 0 0
2.12 0 0
2.16 0 0
2.2 0 0
2.24 0 0
2.28 0 0
2.32 0 0
2.36 0 0
2.4 0 0
2.44 0 0
2.48 0 0
2.52 0 0
2.56 0 0
2.6 0 0
2.64 0 0
2.68 0 0
2.72 0 0
2.76 0 0
2.8 0 0
2.84 0 0
2.88 0 0
2.92 0 0
2.96 0 0
3 0 0
3.04 0 0
3.08 0 0
3.12 0 0
3.16 0 0
3.2 0 0
3.24 0 0
3.28 0 0
3.32 0 0
3.36 0 0
3.4 0 0
3.44 0 0
3.48 0 0
3.52 0 0
3.56 0 0
3.6 0 0
3.64 0 0
3.68 0 0
3.72 0 0
3.76 0 0
3.8 0 0
3.84 0 0
3.88 0 0
3.92 0 0
3.96 0 0
4 0 0
4.04 0 0
4.08 0 0
4.12 0 0
4.16 0 0
4.2 0 0
4.24 0 0
4.28 0 0
4.32 0 0
4.36 0 0
4.4 0 0
4.44 0 0
4.48 0 0
4.52 0 0
4.56 0 0
4.6 0 0
4.64 0 0
4.68 0 0
4.72 0 0
4.76 0 0
4.8 0 0
4.84 0 0
4.88 0 0
4.92 0 0
4.96 0 0
5 0 0
5.04 0 0
5.08 0 0
5.12 0 0
5.16 0 0
5.2 0 0
5.24 0 0
5.28 0 0
5.32 0 0
5.36 0 0
5.4 0 0
5.44 0 0
5.48 0 0
5.52 0 0
5.56 0 0
5.6 0 0
5.64 0 0
5.68 0 0
5.72 0 0
5.76 0 0
5.8 0 0
5.84 0 0
5.88 0 0
5.92 0 0
5.96 0 0
6 0 0
6.04 0 0
6.08 0 0
6.12 0 0
6.16 0 0
6.2 0 0
6.24 0 0
6.28 0 0
6.32 0 0
6.36 0 0
6.4 0 0
6.44 0 0
6.48 0 0
6.52 0 0
6.56 0 0
6.6 0 0
6.64 0 0
6.68 0 0
6.72 0 0
6.76 0 0
6.8 0 0
6.84 0 0
6.88 0 0
6.92 0 0
6.96 0 0
7 0 0
7.04 0 0
7.08 0 0
7.12 0 0
7.16 0 0
7.2 0 0
7.24 0 0
7.28 0 0
7.32 0 0
7.36 0 0
7.4 0 0
7.44 0 0
7.48 0 0
7.52 0 0
7.56 0 0
7.6 0 0
7.64 0 0
7.68 0 0
7.72 0 0
7.76 0 0
7.8 0 0
7.84 0 0
7.88 0 0
7.92 0 0
7.96 0 0
8 0 0
8.04 0 0
8.08 0 0
8.12 0 0
8.16 0 0
8.2 0 0
8.24 0 0
8.28 0 0
8.32 0 0
8.36 0 0
8.4 0 0
8.44 0 0
8.48 0 0
8.52 0 0
8.56 0 0
8.6 0 0
8.64 0 0
8.68 0 0
8.72 0 0
8.76 0 0
8.8 0 0
8.84 0 0
8.88 0 0
8.92 0 0
8.96 0 0
9 0 0
9.04 0 0
9.08 0 0
9.12 0 0
9.16 0 0
9.2 0 0
9.24 0 0
9.28 0 0
9.32 0 0
9.36 0 0
9.4 0 0
9.44 0 0
9.48 0 0
9.52 0 0
9.56 0 0
9.6 0 0
9.64 0 0
9.68 0 0
9.72 0 0
9.76 0 0
9.8 0 0
9.84 0 0
9.88 0 0
9.92 0 0
9.96 0 0
10 0 0
10.04 0 0
10.08 0 0
10.12 0 0
10.16 0 0
10.2 0 0
10.24 0 0
10.28 0 0
10.32 0 0
10.36 0 0
10.4 0 0
10.44 0 0
10.48 0 0
10.52 0 0
10.56 0 0
10.6 0 0
10.64 0 0
10.68 0 0
10.72 0 0
10.76 0 0
10.8 0 0
10.84 0 0
10.88 0 0
10.92 0 0
10.96 0 0
11 0 0
11.04 0 0
11.08 0 0
11.12 0 0
11.16 0 0
11.2 0 0
11.24 0 0
11.28 0 0
11.32 0 0
11.36 0 0
11.4 0 0
11.44 0 0
11.48 0 0
11.52 0 0
11.56 0 0
11.6 0 0
11.64 0 0
11.68 0 0
11.72 0 0
11.76 0 0
11.8 0 0
11.84 0 0
11.88 0 0
11.92 0 0
11.96 0 0
12 0 0
12.04 0 0
12.08 0 0
12.12 0 0
12.16 0 0
12.2 0 0
12.24 0 0
12.28 0 0
12.32 0 0
12.36 0 0
12.4 0 0
12.44 0 0
12.48 0 0
12.52 0 0
12.56 0 0
12.6 0 0
12.64 0 0
12.68 0 0
12.72 0 0
12.76 0 0
12.8 0 0
12.84 0 0
12.88 0 0
12.92 0 0
12.96 0 0
13 0 0
13.04 0 0
13.08 0 0
13.12 0 0
13.16 0 0
13.2 0 0
13.24 0 0
13.28 0 0
13.32 0 0
13.36 0 0
13.4 0 0
13.44 0 0
13.48 0 0
13.52 0 0
13.56 0 0
13.6 0 0
13.64 0 0
13.68 0 0
13.72 0 0
13.76 0 0
13.8 0 0
13.84 0 0
13.88 0 0
13.92 0 0
13.96 0 0
14 0 0
14.04 0 0
14.08 0 0
14.12 0 0
14.16 0 0
14.2 0 0
14.24 0 0
14.28 0 0
14.32 0 0
14.36 0 0
14.4 0 0
14.44 0 0
14.48 0 0
14.52 0 0
14.56 0 0
14.6 0 0
14.64 0 0
14.68 0 0
14.72 0 0
14.76 0 0
14.8 0 0
14.84 0 0
14.88 0 0
14.92 0 0
14.96 0 0
15 0 0
15.04 0 0
15.08 0 0
15.12 0 0
15.16 0 0
15.2 0 0
15.24 0 0
15.28 0 0
15.32 0 0
15.36 0 0
15.4 0 0
15.44 0 0
15.48 0 0
15.52 0 0
15.56 0 0
15.6 0 0
15.64 0 0
15.68 0 0
15.72 0 0
15.76 0 0
15.8 0 0
15.84 0 0
15.88 0 0
15.92 0 0
15.96 0 0
16 0 0
16.04 0 0
16.08 0 0
16.12 0 0
16.16 0 0
16.2 0 0
16.24 0 0
16.28 0 0
16.32 0 0
16.36 0 0
16.4 0 0
16.44 0 0
16.48 0 0
16.52 0 0
16.56 0 0
16.6 0 0
16.64 0 0
16.68 0 0
16.72 0 0
16.76 0 0
16.8 0 0
16.84 0 0
16.88 0 0
16.92 0 0
16.96 0 0
17 0 0
17.04 0 0
17.08 0 0
17.12 0 0
17.16 0 0
17.2 0 0
17.24 0 0
17.28 0 0
17.32 0 0
17.36 0 0
17.4 0 0
17.44 0 0
17.48 0 0
17.52 0 0
17.56 0 0
17.6 0 0
17.64 0 0
17.68 0 0
17.72 0 0
17.76 0 0
17.8 0 0
17.84 0 0
17.88 0 0
17.92 0 0
17.96 0 0
18 0 0
18.04 0 0
18.08 0 0
18.12 0 0
18.16 0 0
18.2 0 0
18.24 0 0
18.28 0 0
18.32 0 0
18.36 0 0
18.4 0 0
18.44 0 0
18.48 0 0
18.52 0 0
18.56 0 0
18.6 0 0
18.64 0 0
18.68 0 0
18.72 0 0
18.76 0 0
18.8 0 0
18.84 0 0
18.88 0 0
18.92 0 0
18.96 0 0
19 0 0
19.04 0 0
19.08 0 0
19.12 0 0
19.16 0 0
19.2 0 0
19.24 0 0
19.28 0 0
19.32 0 0
19.36 0 0
19.4 0 0
19.44 0 0
19.48 0 0
19.52 0 0
19.56 0 0
19.6 0 0
19.64 0 0
19.68 0 0
19.72 0 0
19.76 0 0
19.8 0 0
19.84 0 0
19.88 0 0
19.92 0 0
19.96 0 0
20 0 0
20.04 0 0
20.08 0 0
20.12 0 0
20.16 0 0
20.2 0 0
20.24 0 0
20.28 0 0
20.32 0 0
20.36 0 0
20.4 0 0
20.44 0 0
20.48 0 0
20.52 0 0
20.56 0 0
20.6 0 0
20.64 0 0
20.68 0 0
20.72 0 0
20.76 0 0
20.8 0 0
20.84 0 0
20.88 0 0
20.92 0 0
20.96 0 0
21 0 0
21.04 0 0
21.08 0 0
21.12 0 0
21.16 0 0
21.2 0 0
21.24 0 0
21.28 0 0
21.32 0 0
21.36 0 0
21.4 0 0
21.44 0 0
21.48 0 0
21.52 0 0
21.56 0 0
21.6 0 0
21.64 0 0
21.68 0 0
21.72 0 0
21.76 0 0
21.8 0 0
21.84 0 0
21.88 0 0
21.92 0 0
21.96 0 0
22 0 0
22.04 0 0
22.08 0 0
22.12 0 0
22.16 0 0
22.2 0 0
22.24 0 0
22.28 0 0
22.32 0 0
22.36 0 0
22.4 0 0
22.44 0 0
22.48 0 0
22.52 0 0
22.56 0 0
22.6 0 0
22.64 0 0
22.68 0 0
22.72 0 0
22.76 0 0
22.8 0 0
22.84 0 0
22.88 0 0
22.92 0 0
22.96 0 0
23 0 0
23.04 0 0
23.08 0 0
23.12 0 0
23.16 0 0
23.2 0 0
23.24 0 0
23.28 0 0
23.32 0 0
23.36 0 0
23.4 0 0
23.44 0 0
23.48 0 0
23.52 0 0
23.56 0 0
23.6 0 0
23.64 0 0
23.68 0 0
23.72 0 0
23.76 0 0
23.8 0 0
23.84 0 0
23.88 0 0
23.92 0 0
23.96 0 0
24 0 0
24.04 0 0
24.08 0 0
24.12 0 0
24.16 0 0
24.2 0 0
24.24 0 0
24.28 0 0
24.32 0 0
24.36 0 0
24.4 0 0
24.44 0 0
24.48 0 0
24.52 0 0
24.56 0 0
24.6 0 0
24.64 0 0
24.68 0 0
24.72 0 0
24.76 0 0
24.8 0 0
24.84 0 0
24.88 0 0
24.92 0 0
24.96 0 0
25 0 0
25.04 0 0
25.08 0 0
25.12 0 0
25.16 0 0
25.2 0 0
25.24 0 0
25.28 0 0
25.32 0 0
25.36 0 0
25.4 0 0
25.44 0 0
25.48 0 0
25.52 0 0
25.56 0 0
25.6 0 0
25.64 0 0
25.68 0 0
25.72 0 0
25.76 0 0
25.8 0 0
25.84 0 0
25.88 0 0
25.92 0 0
25.96 0 0
26 0 0
26.04 0 0
26.08 0 0
26.12 0 0
26.16 0 0
26.2 0 0
26.24 0 0
26.28 0 0
26.32 0 0
26.36 0 0
26.4 0 0
26.44 0 0
26.48 0 0
26.52 0 0
26.56 0 0
26.6 0 0
26.64 0 0
26.68 0 0
26.72 0 0
26.76 0 0
26.8 0 0
26.84 0 0
26.88 0 0
26.92 0 0
26.96 0 0
27 0 0
27.04 0 0
27.08 0 0
27.12 0 0
27.16 0 0
27.2 0 0
27.24 0 0
27.28 0 0
27.32 0 0
27.36 0 0
27.4 0 0
27.44 0 0
27.48 0 0
27.52 0 0
27.56 0 0
27.6 0 0
27.64 0 0
27.68 0 0
27.72 0 0
27.76 0 0
27.8 0 0
27.84 0 0
27.88 0 0
27.92 0 0
27.96 0 0
28 0 0
28.04 0 0
28.08 0 0
28.12 0 0
28.16 0 0
28.2 0 0
28.24 0 0
28.28 0 0
28.32 0 0
28.36 0 0
28.4 0 0
28.44 0 0
28.48 0 0
28.52 0 0
28.56 0 0
28.6 0 0
28.64 0 0
28.68 0 0
28.72 0 0
28.76 0 0
28.8 0 0
28.84 0 0
28.88 0 0
28.92 0 0
28.96 0 0
29 0 0
29.04 0 0
29.08 0 0
29.12 0 0
29.16 0 0
29.2 0 0
29.24 0 0
29.28 0 0
29.32 0 0
29.36 0 0
29.4 0 0
29.44 0 0
29.48 0 0
29.52 0 0
29.56 0 0
29.6 0 0
29.64 0 0
29.68 0 0
29.72 0 0
29.76 0 0
29.8 0 0
29.84 0 0
29.88 0 0
29.92 0 0
29.96 0 0
30 0 0
30.04 0 0
30.08 0 0
30.12 0 0
30.16 0 0
30.2 0 0
30.24 0 0
30.28 0 0
30.32 0 0
30.36 0 0
30.4 0 0
30.44 0 0
30.48 0 0
30.52 0 0
30.56 0 0
30.6 0 0
30.64 0 0
30.68 0 0
30.72 0 0
30.76 0 0
30.8 0 0
30.84 0 0
30.88 0 0
30.92 0 0
30.96 0 0
31 0 0
31.04 0 0
31.08 0 0
31.12 0 0
31.16 0 0
31.2 0 0
31.24 0 0
31.28 0 0
31.32 0 0
31.36 0 0
31.4 0 0
31.44 0 0
31.48 0 0
31.52 0 0
31.56 0 0
31.6 0 0
31.64 0 0
31.68 0 0
31.72 0 0
31.76 0 0
31.8 0 0
31.84 0 0
31.88 0 0
31.92 0 0
31.96 0 0
0 0.005 0
0.04 0.005 0
0.08 0.005 0
0.12 0.005 0
0.16 0.005 0
0.2 0.005 0
0.24 0.005 0
0.28 0.005 0
0.32 0.005 0
0.36 0.005 0
0.4 0.005 0
0.44 0.005 0
0.48 0.005 0
0.52 0.005 0
0.56 0.005 0
0.6 0.005 0
0.64 0.005 0
0.68 0.005 0
0.72 0.005 0
0.76 0.005 0
0.8 0.005 0
0.84 0.005 0
0.88 0.005 0
0.92 0.005 0
0.96 0.005 0
1 0.005 0
1.04 0.005 0
1.08 0.005 0
1.12 0.005 0
1.16 0.005 0
1.2 0.005 0
1.24 0.005 0
1.28 0.005 0
1.32 0.005 0
1.36 0.005 0
1.4 0.005 0
1.44 0.005 0
1.48 0.005 0
1.52 0.005 0
1.56 0.005 0
1.6 0.005 0
1.64 0.005 0
1.68 0.005 0
1.72 0.005 0
1.76 0.005 0
1.8 0.005 0
1.84 0.005 0
1.88 0.005 0
1.92 0.005 0
1.96 0.005 0
2 0.005 0
2.04 0.005 0
2.08 0.005 0
2.12 0.005 0
2.16 0.005 0
2.2 0.005 0
2.24 0.005 0
2.28 0.005 0
2.32 0.005 0
2.36 0.005 0
2.4 0.005 0
2.44 0.005 0
2.48 0.005 0
2.52 0.005 0
2.56 0.005 0
2.6 0.005 0
2.64 0.005 0
2.68 0.005 0
2.72 0.005 0
2.76 0.005 0
2.8 0.005 0
2.84 0.005 0
2.88 0.005 0
2.92 0.005 0
2.96 0.005 0
3 0.005 0
3.04 0.005 0
3.08 0.005 0
3.12 0.005 0
3.16 0.005 0
3.2 0.005 0
3.24 0.005 0
3.28 0.005 0
3.32 0.005 0
3.36 0.005 0
3.4 0.005 0
3.44 0.005 0
3.48 0.005 0
3.52 0.005 0
3.56 0.005 0
3.6 0.005 0
3.64 0.005 0
3.68 0.005 0
3.72 0.005 0
3.76 0.005 0
3.8 0.005 0
3.84 0.005 0
3.88 0.005 0
3.92 0.005 0
3.96 0.005 0
4 0.005 0
4.04 0.005 0
4.08 0.005 0
4.12 0.005 0
4.16 0.005 0
4.2 0.005 0
4.24 0.005 0
4.28 0.005 0
4.32 0.005 0
4.36 0.005 0
4.4 0.005 0
4.44 0.005 0
4.48 0.005 0
4.52 0.005 0
4.56 0.005 0
4.6 0.005 0
4.64 0.005 0
4.68 0.005 0
4.72 0.005 0
4.76 0.005 0
4.8 0.005 0
4.84 0.005 0
4.88 0.005 0
4.92 0.005 0
4.96 0.005 0
5 0.005 0
5.04 0.005 0
5.08 0.005 0
5.12 0.005 0
5.16 0.005 0
5.2 0.005 0
5.24 0.005 0
5.28 0.005 0
5.32 0.005 0
5.36 0.005 0
5.4 0.005 0
5.44 0.005 0
5.48 0.005 0
5.52 0.005 0
5.56 0.005 0
5.6 0.005 0
5.64 0.005 0
5.68 0.005 0
5.72 0.005 0
5.76 0.005 0
5.8 0.005 0
5.84 0.005 0
5.88 0.005 0
5.92 0.005 0
5.96 0.005 0
6 0.005 0
6.04 0.005 0
6.08 0.005 0
6.12 0.005 0
6.16 0.005 0
6.2 0.005 0
6.24 0.005 0
6.28 0.005 0
6.32 0.005 0
6.36 0.005 0
6.4 0.005 0
6.44 0.005 0
6.48 0.005 0
6.52 0.005 0
6.56 0.005 0
6.6 0.005 0
6.64 0.005 0
6.68 0.005 0
6.72 0.005 0
6.76 0.005 0
6.8 0.005 0
6.84 0.005 0
6.88 0.005 0
6.92 0.005 0
6.96 0.005 0
7 0.005 0
7.04 0.005 0
7.08 0.005 0
7.12 0.005 0
7.16 0.005 0
7.2 0.005 0
7.24 0.005 0
7.28 0.005 0
7.32 0.005 0
7.36 0.005 0
7.4 0.005 0
[...]
POINT_DATA 160000

SCALARS u float 1
LOOKUP_TABLE default
-1
-0.483358
-0.183963
-0.108845
-0.081033
-0.0668336
-0.0581181
-0.0521526
-0.0477774
-0.0444145
-0.0417412
-0.0395614
-0.0377482
-0.0362152
-0.0349015
-0.0337624
-0.0327647
-0.0318829
-0.0310973
-0.0303923
-0.0297553
-0.0291763
-0.0286472
-0.0281611
-0.0277125
-0.0272967
-0.0269099
-0.0265487
-0.0262103
-0.0258924
-0.0255929
-0.0253099
-0.0250421
-0.024788
-0.0245464
-0.0243164
-0.024097
-0.0238874
-0.0236869
-0.0234948
-0.0233106
-0.0231337
-0.0229637
-0.0228001
-0.0226425
-0.0224906
-0.0223441
-0.0222026
-0.0220659
-0.0219337
-0.0218058
-0.0216819
-0.0215619
-0.0214456
-0.0213328
-0.0212233
-0.0211169
-0.0210136
-0.0209132
-0.0208156
-0.0207205
-0.0206281
-0.020538
-0.0204503
-0.0203648
-0.0202815
-0.0202002
-0.0201209
-0.0200435
-0.019968
-0.0198942
-0.0198221
-0.0197516
-0.0196828
-0.0196154
-0.0195496
-0.0194851
-0.0194221
-0.0193603
-0.0192999
-0.0192407
-0.0191827
-0.0191259
-0.0190702
-0.0190156
-0.018962
-0.0189095
-0.018858
-0.0188075
-0.0187579
-0.0187092
-0.0186614
-0.0186145
-0.0185684
-0.0185232
-0.0184787
-0.018435
-0.0183921
-0.0183499
-0.0183084
-0.0182676
-0.0182274
-0.018188
-0.0181492
-0.018111
-0.0180734
-0.0180364
-0.018
-0.0179642
-0.017929
-0.0178942
-0.0178601
-0.0178264
-0.0177932
-0.0177605
-0.0177284
-0.0176966
-0.0176654
-0.0176346
-0.0176043
-0.0175743
-0.0175449
-0.0175158
-0.0174871
-0.0174588
-0.017431
-0.0174035
-0.0173764
-0.0173496
-0.0173232
-0.0172972
-0.0172715
-0.0172461
-0.0172211
-0.0171964
-0.0171721
-0.017148
-0.0171243
-0.0171009
-0.0170777
-0.0170549
-0.0170323
-0.0170101
-0.0169881
-0.0169663
-0.0169449
-0.0169237
-0.0169028
-0.0168821
-0.0168617
-0.0168415
-0.0168216
-0.0168019
-0.0167824
-0.0167632
-0.0167442
-0.0167254
-0.0167069
-0.0166885
-0.0166704
-0.0166525
-0.0166348
-0.0166173
-0.0166
-0.0165829
-0.0165659
-0.0165492
-0.0165327
-0.0165163
-0.0165002
-0.0164842
-0.0164684
-0.0164528
-0.0164373
-0.016422
-0.0164069
-0.016392
-0.0163772
-0.0163626
-0.0163481
-0.0163338
-0.0163197
-0.0163057
-0.0162918
-0.0162781
-0.0162646
-0.0162512
-0.0162379
-0.0162248
-0.0162118
-0.016199
-0.0161863
-0.0161737
-0.0161613
-0.016149
-0.0161368
-0.0161247
-0.0161128
-0.016101
-0.0160893
-0.0160778
-0.0160664
-0.016055
-0.0160438
-0.0160328
-0.0160218
-0.0160109
-0.0160002
-0.0159895
-0.015979
-0.0159686
-0.0159583
-0.0159481
-0.015938
-0.015928
-0.0159181
-0.0159083
-0.0158986
-0.015889
-0.0158795
-0.0158701
-0.0158608
-0.0158515
-0.0158424
-0.0158334
-0.0158244
-0.0158156
-0.0158068
-0.0157981
-0.0157896
-0.015781
-0.0157726
-0.0157643
-0.015756
-0.0157479
-0.0157398
-0.0157318
-0.0157238
-0.015716
-0.0157082
-0.0157005
-0.0156929
-0.0156853
-0.0156778
-0.0156704
-0.0156631
-0.0156558
-0.0156487
-0.0156415
-0.0156345
-0.0156275
-0.0156206
-0.0156138
-0.015607
-0.0156003
-0.0155936
-0.0155871
-0.0155805
-0.0155741
-0.0155677
-0.0155614
-0.0155551
-0.0155489
-0.0155428
-0.0155367
-0.0155306
-0.0155247
-0.0155188
-0.0155129
-0.0155071
-0.0155014
-0.0154957
-0.01549
-0.0154845
-0.0154789
-0.0154735
-0.015468
-0.0154627
-0.0154574
-0.0154521
-0.0154469
-0.0154417
-0.0154366
-0.0154315
-0.0154265
-0.0154215
-0.0154166
-0.0154117
-0.0154069
-0.0154021
-0.0153974
-0.0153927
-0.015388
-0.0153834
-0.0153788
-0.0153743
-0.0153698
-0.0153654
-0.015361
-0.0153566
-0.0153523
-0.0153481
-0.0153438
-0.0153396
-0.0153355
-0.0153314
-0.0153273
-0.0153232
-0.0153192
-0.0153153
-0.0153114
-0.0153075
-0.0153036
-0.0152998
-0.015296
-0.0152923
-0.0152886
-0.0152849
-0.0152812
-0.0152776
-0.015274
-0.0152705
-0.015267
-0.0152635
-0.0152601
-0.0152566
-0.0152533
-0.0152499
-0.0152466
-0.0152433
-0.01524
-0.0152368
-0.0152336
-0.0152304
-0.0152273
-0.0152242
-0.0152211
-0.015218
-0.015215
-0.015212
-0.015209
-0.0152061
-0.0152031
-0.0152002
-0.0151974
-0.0151945
-0.0151917
-0.0151889
-0.0151862
-0.0151834
-0.0151807
-0.015178
-0.0151754
-0.0151727
-0.0151701
-0.0151675
-0.015165
-0.0151624
-0.0151599
-0.0151574
-0.015155
-0.0151525
-0.0151501
-0.0151477
-0.0151453
-0.015143
-0.0151407
-0.0151384
-0.0151361
-0.0151338
-0.0151316
-0.0151294
-0.0151272
-0.015125
-0.0151229
-0.0151208
-0.0151187
-0.0151166
-0.0151146
-0.0151126
-0.0151106
-0.0151086
-0.0151066
-0.0151047
-0.0151028
-0.0151009
-0.015099
-0.0150972
-0.0150954
-0.0150936
-0.0150918
-0.01509
-0.0150883
-0.0150866
-0.0150849
-0.0150832
-0.0150816
-0.0150799
-0.0150783
-0.0150767
-0.0150752
-0.0150736
-0.0150721
-0.0150706
-0.0150691
-0.0150677
-0.0150663
-0.0150648
-0.0150634
-0.0150621
-0.0150607
-0.0150594
-0.0150581
-0.0150568
-0.0150555
-0.0150542
-0.015053
-0.0150518
-0.0150506
-0.0150494
-0.0150483
-0.0150471
-0.015046
-0.0150449
-0.0150438
-0.0150427
-0.0150417
-0.0150407
-0.0150396
-0.0150386
-0.0150377
-0.0150367
-0.0150358
-0.0150348
-0.0150339
-0.015033
-0.0150321
-0.0150313
-0.0150304
-0.0150296
-0.0150287
-0.0150279
-0.0150271
-0.0150264
-0.0150256
-0.0150248
-0.0150241
-0.0150234
-0.0150227
-0.015022
-0.0150213
-0.0150206
-0.0150199
-0.0150193
-0.0150187
-0.015018
-0.0150174
-0.0150168
-0.0150162
-0.0150156
-0.015015
-0.0150145
-0.0150139
-0.0150134
-0.0150128
-0.0150123
-0.0150118
-0.0150113
-0.0150108
-0.0150103
-0.0150098
-0.0150093
-0.0150088
-0.0150084
-0.0150079
-0.0150075
-0.015007
-0.0150066
-0.0150061
-0.0150057
-0.0150053
-0.0150049
-0.0150045
-0.0150041
-0.0150037
-0.0150033
-0.0150029
-0.0150025
-0.0150021
-0.0150017
-0.0150014
-0.015001
-0.0150006
-0.0150003
-0.0149999
-0.0149995
-0.0149992
-0.0149988
-0.0149985
-0.0149981
-0.0149978
-0.0149974
-0.0149971
-0.0149968
-0.0149964
-0.0149961
-0.0149958
-0.0149954
-0.0149951
-0.0149948
-0.0149945
-0.0149941
-0.0149938
-0.0149935
-0.0149932
-0.0149929
-0.0149925
-0.0149922
-0.0149919
-0.0149916
-0.0149913
-0.014991
-0.0149906
-0.0149903
-0.01499
-0.0149897
-0.0149894
-0.0149891
-0.0149888
-0.0149885
-0.0149882
-0.0149878
-0.0149875
-0.0149872
-0.0149869
-0.0149866
-0.0149863
-0.014986
-0.0149857
-0.0149854
-0.0149851
-0.0149848
-0.0149845
-0.0149841
-0.0149838
-0.0149835
-0.0149832
-0.0149829
-0.0149826
-0.0149823
-0.014982
-0.0149817
-0.0149814
-0.0149811
-0.0149808
-0.0149805
-0.0149801
-0.0149798
-0.0149795
-0.0149792
-0.0149789
-0.0149786
-0.0149783
-0.014978
-0.0149777
-0.0149774
-0.0149771
-0.0149768
-0.0149765
-0.0149761
-0.0149758
-0.0149755
-0.0149752
-0.0149749
-0.0149746
-0.0149743
-0.014974
-0.0149737
-0.0149734
-0.0149731
-0.0149728
-0.0149725
-0.0149721
-0.0149718
-0.0149715
-0.0149712
-0.0149709
-0.0149706
-0.0149703
-0.01497
-0.0149697
-0.0149694
-0.0149691
-0.0149688
-0.0149685
-0.0149681
-0.0149678
-0.0149675
-0.0149672
-0.0149669
-0.0149666
-0.0149663
-0.014966
-0.0149657
-0.0149654
-0.0149651
-0.0149648
-0.0149645
-0.0149641
-0.0149638
-0.0149635
-0.0149632
-0.0149629
-0.0149626
-0.0149623
-0.014962
-0.0149617
-0.0149614
-0.0149611
-0.0149608
-0.0149605
-0.0149602
-0.0149598
-0.0149595
-0.0149592
-0.0149589
-0.0149586
-0.0149583
-0.014958
-0.0149577
-0.0149574
-0.0149571
-0.0149568
-0.0149565
-0.0149562
-0.0149558
-0.0149555
-0.0149552
-0.0149549
-0.0149546
-0.0149543
-0.014954
-0.0149537
-0.0149534
-0.0149531
-0.0149528
-0.0149525
-0.0149522
-0.0149518
-0.0149515
-0.0149512
-0.0149509
-0.0149506
-0.0149503
-0.01495
-0.0149497
-0.0149494
-0.0149491
-0.0149488
-0.0149485
-0.0149482
-0.0149478
-0.0149475
-0.0149472
-0.0149469
-0.0149466
-0.0149463
-0.014946
-0.0149457
-0.0149454
-0.0149451
-0.0149448
-0.0149445
-0.0149442
-0.0149439
-0.0149435
-0.0149432
-0.0149429
-0.0149426
-0.0149423
-0.014942
-0.0149417
-0.0149414
-0.0149411
-0.0149408
-0.0149405
-0.0149402
-0.0149399
-0.0149395
-0.0149392
-0.0149389
-0.0149386
-0.0149383
-0.014938
-0.0149377
-0.0149374
-0.0149371
-0.0149368
-0.0149365
-0.0149362
-0.0149359
-0.0149355
-0.0149352
-0.0149349
-0.0149346
-0.0149343
-0.014934
-0.0149337
-0.0149334
-0.0149331
-0.0149328
-0.0149325
-0.0149322
-0.0149319
-0.0149316
-0.0149312
-0.0149309
-0.0149306
-0.0149303
-0.01493
-0.0149297
-0.0149294
-0.0149291
-0.0149288
-0.0149285
-0.0149282
-0.0149279
-0.0149276
-0.0149272
-0.0149269
-0.0149266
-0.0149263
-0.014926
-0.0149257
-0.0149254
-0.0149251
-0.0149248
-0.0149245
-0.0149242
-0.0149239
-0.0149236
-0.0149232
-0.0149229
-0.0149226
-0.0149223
-0.014922
-0.0149217
-0.0149214
-0.0149211
-0.0149208
-0.0149205
-0.0149202
-0.0149199
-0.0149196
-0.0149193
-0.0149189
-0.0149186
-0.0149183
-0.014918
-0.0149177
-0.0149174
-0.0149171
-0.0149168
-0.0149165
-0.0149162
-0.0149159
-0.0149156
-0.0149153
-0.0149149
-0.0149146
-0.0149143
-0.014914
-0.0149137
-0.0149134
-0.0149131
-0.0149128
-0.0149125
-0.0149122
-0.0149118
-0.0149115
-0.0149112
-0.0149109
-0.0149106
-0.0149102
-0.0149099
-0.0149096
-0.0149092
-0.0149089
-0.0149085
-0.0149081
-0.0149077
-0.0149072
-0.0149067
-0.0149062
-0.0149055
-0.0149049
-0.0149039
-0.0149035
-0.0149035
-0.0149035
1
0.483358
0.183963
0.108845
0.081033
0.0668336
0.0581181
0.0521526
0.0477774
0.0444145
0.0417412
0.0395614
0.0377482
0.0362152
0.0349015
0.0337624
0.0327647
0.0318829
0.0310973
0.0303923
0.0297553
0.0291763
0.0286472
0.0281611
0.0277125
0.0272967
0.0269099
0.0265487
0.0262103
0.0258924
0.0255929
0.0253099
0.0250421
0.024788
0.0245464
0.0243164
0.024097
0.0238874
0.0236869
0.0234948
0.0233106
0.0231337
0.0229637
0.0228001
0.0226425
0.0224906
0.0223441
0.0222026
0.0220659
0.0219337
0.0218058
0.0216819
0.0215619
0.0214456
0.0213328
0.0212233
0.0211169
0.0210136
0.0209132
0.0208156
0.0207205
0.0206281
0.020538
0.0204503
0.0203648
0.0202815
0.0202002
0.0201209
0.0200435
0.019968
0.0198942
0.0198221
0.0197516
0.0196828
0.0196154
0.0195496
0.0194851
0.0194221
0.0193603
0.0192999
0.0192407
0.0191827
0.0191259
0.0190702
0.0190156
0.018962
0.0189095
0.018858
0.0188075
0.0187579
0.0187092
0.0186614
0.0186145
0.0185684
0.0185232
0.0184787
0.018435
0.0183921
0.0183499
0.0183084
0.0182676
0.0182274
0.018188
0.0181492
0.018111
0.0180734
0.0180364
0.018
0.0179642
0.017929
0.0178942
0.0178601
0.0178264
0.0177932
0.0177605
0.0177284
0.0176966
0.0176654
0.0176346
0.0176043
0.0175743
0.0175449
0.0175158
0.0174871
0.0174588
0.017431
0.0174035
0.0173764
0.0173496
0.0173232
0.0172972
0.0172715
0.0172461
0.0172211
0.0171964
0.0171721
0.017148
0.0171243
0.0171009
0.0170777
0.0170549
0.0170323
0.0170101
0.0169881
0.0169663
0.0169449
0.0169237
0.0169028
0.0168821
0.0168617
0.0168415
0.0168216
0.0168019
0.0167824
0.0167632
0.0167442
0.0167254
0.0167069
0.0166885
0.0166704
0.0166525
0.0166348
0.0166173
0.0166
0.0165829
0.0165659
0.0165492
0.0165327
0.0165163
0.0165002
0.0164842
0.0164684
0.0164528
0.0164373
0.016422
0.0164069
0.016392
0.0163772
0.0163626
0.0163481
0.0163338
0.0163197
0.0163057
0.0162918
0.0162781
0.0162646
0.0162512
0.0162379
0.0162248
0.0162118
0.016199
0.0161863
0.0161737
0.0161613
0.016149
0.0161368
0.0161247
0.0161128
0.016101
0.0160893
0.0160778
0.0160664
0.016055
0.0160438
0.0160328
0.0160218
0.0160109
0.0160002
0.0159895
0.015979
0.0159686
0.0159583
0.0159481
0.015938
0.015928
0.0159181
0.0159083
0.0158986
0.015889
0.0158795
0.0158701
0.0158608
0.0158515
0.0158424
0.0158334
0.0158244
0.0158156
0.0158068
0.0157981
0.0157896
0.015781
0.0157726
0.0157643
0.015756
0.0157479
0.0157398
0.0157318
0.0157238
0.015716
0.0157082
0.0157005
0.0156929
0.0156853
0.0156778
0.0156704
0.0156631
0.0156558
0.0156487
0.0156415
0.0156345
0.0156275
0.0156206
0.0156138
0.015607
0.0156003
0.0155936
0.0155871
0.0155805
0.0155741
0.0155677
0.0155614
0.0155551
0.0155489
0.0155428
0.0155367
0.0155306
0.0155247
0.0155188
0.0155129
0.0155071
0.0155014
0.0154957
0.01549
0.0154845
0.0154789
0.0154735
0.015468
0.0154627
0.0154574
0.0154521
0.0154469
0.0154417
0.0154366
0.0154315
0.0154265
0.0154215
0.0154166
0.0154117
0.0154069
0.0154021
0.0153974
0.0153927
0.015388
0.0153834
0.0153788
0.0153743
0.0153698
0.0153654
0.015361
0.0153566
0.0153523
0.0153481
0.0153438
0.0153396
0.0153355
0.0153314
0.0153273
0.0153232
0.0153192
0.0153153
0.0153114
0.0153075
0.0153036
0.0152998
0.015296
0.0152923
0.0152886
0.0152849
0.0152812
0.0152776
0.015274
0.0152705
0.015267
0.0152635
0.0152601
0.0152566
0.0152533
0.0152499
0.0152466
0.0152433
0.01524
0.0152368
0.0152336
0.0152304
0.0152273
0.0152242
0.0152211
0.015218
0.015215
0.015212
0.015209
0.0152061
0.0152031
0.0152002
0.0151974
0.0151945
0.0151917
0.0151889
0.0151862
0.0151834
0.0151807
0.015178
0.0151754
0.0151727
0.0151701
0.0151675
0.015165
0.0151624
0.0151599
0.0151574
0.015155
0.0151525
0.0151501
0.0151477
0.0151453
0.015143
0.0151407
0.0151384
0.0151361
0.0151338
0.0151316
0.0151294
0.0151272
0.015125
0.0151229
0.0151208
0.0151187
0.0151166
0.0151146
0.0151126
0.0151106
0.0151086
0.0151066
0.0151047
0.0151028
0.0151009
0.015099
0.0150972
0.0150954
0.0150936
0.0150918
0.01509
0.0150883
0.0150866
0.0150849
0.0150832
0.0150816
0.0150799
0.0150783
0.0150767
0.0150752
0.0150736
0.0150721
0.0150706
0.0150691
0.0150677
0.0150663
0.0150648
0.0150634
0.0150621
0.0150607
0.0150594
0.0150581
0.0150568
0.0150555
0.0150542
0.015053
0.0150518
0.0150506
0.0150494
0.0150483
0.0150471
0.015046
0.0150449
0.0150438
0.0150427
0.0150417
0.0150407
0.0150396
0.0150386
0.0150377
0.0150367
0.0150358
0.0150348
0.0150339
0.015033
0.0150321
0.0150313
0.0150304
0.0150296
0.0150287
0.0150279
0.0150271
0.0150264
0.0150256
0.0150248
0.0150241
0.0150234
0.0150227
0.015022
0.0150213
0.0150206
0.0150199
0.0150193
0.0150187
0.015018
0.0150174
0.0150168
0.0150162
0.0150156
0.015015
0.0150145
0.0150139
0.0150134
0.0150128
0.0150123
0.0150118
0.0150113
0.0150108
0.0150103
0.0150098
0.0150093
0.0150088
0.0150084
0.0150079
0.0150075
0.015007
0.0150066
0.0150061
0.0150057
0.0150053
0.0150049
0.0150045
0.0150041
0.0150037
0.0150033
0.0150029
0.0150025
0.0150021
0.0150017
0.0150014
0.015001
0.0150006
0.0150003
0.0149999
0.0149995
0.0149992
0.0149988
0.0149985
0.0149981
0.0149978
0.0149974
0.0149971
0.0149968
0.0149964
0.0149961
0.0149958
0.0149954
0.0149951
0.0149948
0.0149945
0.0149941
0.0149938
0.0149935
0.0149932
0.0149929
0.0149925
0.0149922
0.0149919
0.0149916
0.0149913
0.014991
0.0149906
0.0149903
0.01499
0.0149897
0.0149894
0.0149891
0.0149888
0.0149885
0.0149882
0.0149878
0.0149875
0.0149872
0.0149869
0.0149866
0.0149863
0.014986
0.0149857
0.0149854
0.0149851
0.0149848
0.0149845
0.0149841
0.0149838
0.0149835
0.0149832
0.0149829
0.0149826
0.0149823
0.014982
0.0149817
0.0149814
0.0149811
0.0149808
0.0149805
0.0149801
0.0149798
0.0149795
0.0149792
0.0149789
0.0149786
0.0149783
0.014978
0.0149777
0.0149774
0.0149771
0.0149768
0.0149765
0.0149761
0.0149758
0.0149755
0.0149752
0.0149749
0.0149746
0.0149743
0.014974
0.0149737
0.0149734
0.0149731
0.0149728
0.0149725
0.0149721
0.0149718
0.0149715
0.0149712
0.0149709
0.0149706
0.0149703
0.01497
0.0149697
0.0149694
0.0149691
0.0149688
0.0149685
0.0149681
0.0149678
0.0149675
0.0149672
0.0149669
0.0149666
0.0149663
0.014966
0.0149657
0.0149654
0.0149651
0.0149648
0.0149645
0.0149641
0.0149638
0.0149635
0.0149632
0.0149629
0.0149626
0.0149623
0.014962
0.0149617
0.0149614
0.0149611
0.0149608
0.0149605
0.0149602
0.0149598
0.0149595
0.0149592
0.0149589
0.0149586
0.0149583
0.014958
0.0149577
0.0149574
0.0149571
0.0149568
0.0149565
0.0149562
0.0149558
0.0149555
0.0149552
0.0149549
0.0149546
0.0149543
0.014954
0.0149537
0.0149534
0.0149531
0.0149528
0.0149525
0.0149522
0.0149518
0.0149515
0.0149512
0.0149509
0.0149506
0.0149503
0.01495
0.0149497
0.0149494
0.0149491
0.0149488
0.0149485
0.0149482
0.0149478
0.0149475
0.0149472
0.0149469
0.0149466
0.0149463
0.014946
0.0149457
0.0149454
0.0149451
0.0149448
0.0149445
0.0149442
0.0149439
0.0149435
0.0149432
0.0149429
0.0149426
0.0149423
0.014942
0.0149417
0.0149414
0.0149411
0.0149408
0.0149405
0.0149402
0.0149399
0.0149395
0.0149392
0.0149389
0.0149386
0.0149383
0.014938
0.0149377
0.0149374
0.0149371
0.0149368
0.0149365
0.0149362
0.0149359
0.0149355
0.0149352
0.0149349
0.0149346
0.0149343
0.014934
0.0149337
0.0149334
0.0149331
0.0149328
0.0149325
0.0149322
0.0149319
0.0149316
0.0149312
0.0149309
0.0149306
0.0149303
0.01493
0.0149297
0.0149294
0.0149291
0.0149288
0.0149285
0.0149282
0.0149279
0.0149276
0.0149272
0.0149269
0.0149266
0.0149263
0.014926
0.0149257
0.0149254
0.0149251
0.0149248
0.0149245
0.0149242
0.0149239
0.0149236
0.0149232
0.0149229
0.0149226
0.0149223
0.014922
0.0149217
0.0149214
0.0149211
0.0149208
0.0149205
0.0149202
0.0149199
0.0149196
0.0149193
0.0149189
0.0149186
0.0149183
0.014918
0.0149177
0.0149174
0.0149171
0.0149168
0.0149165
0.0149162
0.0149159
0.0149156
0.0149153
0.0149149
0.0149146
0.0149143
0.014914
0.0149137
0.0149134
0.0149131
0.0149128
0.0149125
0.0149122
0.0149118
0.0149115
0.0149112
0.0149109
0.0149106
0.0149102
0.0149099
0.0149096
0.0149092
0.0149089
0.0149085
0.0149081
0.0149077
0.0149072
0.0149067
0.0149062
0.0149055
0.0149049
0.0149039
0.0149035
0.0149035
0.0149035
1
0.969192
0.495616
0.314223
0.237897
0.197396
0.172133
0.154696
0.141842
0.131928
0.124028
0.117573
0.112197
0.107646
0.103742
0.100355
0.0973864
0.094762
0.0924232
0.0903239
0.0884271
0.0867032
0.0851278
0.0836808
0.0823457
0.0811086
0.0799579
0.0788838
0.0778778
0.0769328
0.0760428
0.0752023
0.0744069
0.0736524
0.0729354
0.0722528
0.0716019
0.0709801
0.0703855
0.0698159
0.0692698
0.0687455
0.0682416
0.0677568
0.06729
0.0668401
0.0664061
0.065987
0.0655822
0.0651908
0.0648121
0.0644454
0.0640902
0.0637459
0.0634119
0.0630878
0.0627731
0.0624674
0.0621703
0.0618813
0.0616002
0.0613266
0.0610602
0.0608007
0.0605479
0.0603013
0.0600609
0.0598264
0.0595975
0.059374
0.0591558
0.0589426
0.0587343
0.0585307
0.0583315
0.0581368
0.0579463
0.0577598
0.0575773
0.0573986
0.0572236
0.0570521
0.0568841
0.0567195
0.0565581
0.0563998
0.0562446
0.0560924
0.055943
0.0557965
0.0556526
0.0555114
0.0553727
0.0552365
0.0551027
0.0549713
0.0548422
0.0547153
0.0545906
0.054468
0.0543474
0.0542289
0.0541123
0.0539976
0.0538848
0.0537738
0.0536646
0.053557
0.0534512
0.053347
0.0532445
0.0531435
0.053044
0.052946
0.0528495
0.0527544
0.0526608
0.0525685
0.0524775
0.0523879
0.0522995
0.0522124
0.0521265
0.0520419
0.0519584
0.0518761
0.0517949
0.0517148
0.0516358
0.0515579
0.051481
0.0514051
0.0513303
0.0512564
0.0511835
0.0511116
0.0510406
0.0509705
0.0509013
0.050833
0.0507655
0.050699
0.0506332
0.0505683
0.0505041
0.0504408
0.0503783
0.0503165
0.0502555
0.0501952
0.0501356
0.0500768
0.0500186
0.0499612
0.0499044
0.0498484
0.0497929
0.0497382
0.049684
0.0496305
0.0495777
0.0495254
0.0494737
0.0494227
0.0493722
0.0493223
0.0492729
0.0492241
0.0491759
0.0491282
0.049081
0.0490344
0.0489883
0.0489427
0.0488976
0.048853
0.0488089
0.0487653
0.0487221
0.0486795
0.0486373
0.0485955
0.0485542
0.0485134
0.048473
0.048433
0.0483935
0.0483543
0.0483156
0.0482773
0.0482395
0.048202
0.0481649
0.0481282
0.0480919
0.048056
0.0480204
0.0479852
0.0479504
0.047916
0.0478819
0.0478482
0.0478148
0.0477817
0.047749
0.0477167
0.0476847
0.047653
0.0476216
0.0475905
0.0475598
0.0475294
0.0474993
0.0474695
0.04744
0.0474108
0.0473819
0.0473533
0.047325
0.047297
0.0472692
0.0472417
0.0472146
0.0471876
0.047161
0.0471346
0.0471085
0.0470826
0.047057
0.0470317
0.0470066
0.0469818
0.0469572
0.0469328
0.0469087
0.0468849
0.0468612
0.0468378
0.0468147
0.0467917
0.046769
0.0467466
0.0467243
0.0467022
0.0466804
0.0466588
0.0466374
0.0466162
0.0465952
0.0465744
0.0465539
0.0465335
0.0465133
0.0464933
0.0464736
0.046454
0.0464346
0.0464153
0.0463963
0.0463775
0.0463588
0.0463403
0.046322
0.0463039
0.046286
0.0462682
0.0462506
0.0462331
0.0462159
0.0461988
0.0461818
0.0461651
0.0461485
0.046132
0.0461157
0.0460996
0.0460836
0.0460678
0.0460521
0.0460365
0.0460212
0.0460059
0.0459908
0.0459759
0.0459611
0.0459464
0.0459319
0.0459175
0.0459033
0.0458891
0.0458752
0.0458613
0.0458476
0.045834
0.0458205
0.0458072
0.045794
0.0457809
0.0457679
0.0457551
0.0457424
0.0457298
0.0457173
0.0457049
0.0456927
0.0456806
0.0456685
0.0456566
0.0456448
0.0456331
0.0456216
0.0456101
0.0455987
0.0455875
0.0455763
0.0455653
0.0455543
0.0455435
0.0455327
0.0455221
0.0455115
0.0455011
0.0454907
0.0454804
0.0454703
0.0454602
0.0454502
0.0454403
0.0454305
0.0454208
0.0454112
0.0454017
0.0453922
0.0453829
0.0453736
0.0453644
0.0453553
0.0453463
0.0453374
0.0453285