# vtk DataFile Version 2.0
FlowField
ASCII
DATASET STRUCTURED_GRID
DIMENSIONS 800 1 200
POINTS 160000 float
0 0 0
0.04 0 0
0.08 0 0
0.12 0 0
0.16 0 0
0.2 0 0
0.24 0 0
0.28 0 0
0.32 0 0
0.36 0 0
0.4 0 0
0.44 0 0
0.48 0 0
0.52 0 0
0.56 0 0
0.6 0 0
0.64 0 0
0.68 0 0
0.72 0 0
0.76 0 0
0.8 0 0
0.84 0 0
0.88 0 0
0.92 0 0
0.96 0 0
1 0 0
1.04 0 0
1.08 0 0
1.12 0 0
1.16 0 0
1.2 0 0
1.24 0 0
1.28 0 0
1.32 0 0
1.36 0 0
1.4 0 0
1.44 0 0
1.48 0 0
1.52 0 0
1.56 0 0
1.6 0 0
1.64 0 0
1.68 0 0
1.72 0 0
1.76 0 0
1.8 0 0
1.84 0 0
1.88 0 0
1.92 0 0
1.96 0 0
2 0 0
2.04 0 0
2.08 0 0
2.12 0 0
2.16 0 0
2.2 0 0
2.24 0 0
2.28 0 0
2.32 0 0
2.36 0 0
2.4 0 0
2.44 0 0
2.48 0 0
2.52 0 0
2.56 0 0
2.6 0 0
2.64 0 0
2.68 0 0
2.72 0 0
2.76 0 0
2.8 0 0
2.84 0 0
2.88 0 0
2.92 0 0
2.96 0 0
3 0 0
3.04 0 0
3.08 0 0
3.12 0 0
3.16 0 0
3.2 0 0
3.24 0 0
3.28 0 0
3.32 0 0
3.36 0 0
3.4 0 0
3.44 0 0
3.48 0 0
3.52 0 0
3.56 0 0
3.6 0 0
3.64 0 0
3.68 0 0
3.72 0 0
3.76 0 0
3.8 0 0
3.84 0 0
3.88 0 0
3.92 0 0
3.96 0 0
4 0 0
4.04 0 0
4.08 0 0
4.12 0 0
4.16 0 0
4.2 0 0
4.24 0 0
4.28 0 0
4.32 0 0
4.36 0 0
4.4 0 0
4.44 0 0
4.48 0 0
4.52 0 0
4.56 0 0
4.6 0 0
4.64 0 0
4.68 0 0
4.72 0 0
4.76 0 0
4.8 0 0
4.84 0 0
4.88 0 0
4.92 0 0
4.96 0 0
5 0 0
5.04 0 0
5.08 0 0
5.12 0 0
5.16 0 0
5.2 0 0
5.24 0 0
5.28 0 0
5.32 0 0
5.36 0 0
5.4 0 0
5.44 0 0
5.48 0 0
5.52 0 0
5.56 0 0
5.6 0 0
5.64 0 0
5.68 0 0
5.72 0 0
5.76 0 0
5.8 0 0
5.84 0 0
5.88 0 0
5.92 0 0
5.96 0 0
6 0 0
6.04 0 0
6.08 0 0
6.12 0 0
6.16 0 0
6.2 0 0
6.24 0 0
6.28 0 0
6.32 0 0
6.36 0 0
6.4 0 0
6.44 0 0
6.48 0 0
6.52 0 0
6.56 0 0
6.6 0 0
6.64 0 0
6.68 0 0
6.72 0 0
6.76 0 0
6.8 0 0
6.84 0 0
6.88 0 0
6.92 0 0
6.96 0 0
7 0 0
7.04 0 0
7.08 0 0
7.12 0 0
7.16 0 0
7.2 0 0
7.24 0 0
7.28 0 0
7.32 0 0
7.36 0 0
7.4 0 0
7.44 0 0
7.48 0 0
7.52 0 0
7.56 0 0
7.6 0 0
7.64 0 0
7.68 0 0
7.72 0 0
7.76 0 0
7.8 0 0
7.84 0 0
7.88 0 0
7.92 0 0
7.96 0 0
8 0 0
8.04 0 0
8.08 0 0
8.12 0 0
8.16 0 0
8.2 0 0
8.24 0 0
8.28 0 0
8.32 0 0
8.36 0 0
8.4 0 0
8.44 0 0
8.48 0 0
8.52 0 0
8.56 0 0
8.6 0 0
8.64 0 0
8.68 0 0
8.72 0 0
8.76 0 0
8.8 0 0
8.84 0 0
8.88 0 0
8.92 0 0
8.96 0 0
9 0 0
9.04 0 0
9.08 0 0
9.12 0 0
9.16 0 0
9.2 0 0
9.24 0 0
9.28 0 0
9.32 0 0
9.36 0 0
9.4 0 0
9.44 0 0
9.48 0 0
9.52 0 0
9.56 0 0
9.6 0 0
9.64 0 0
9.68 0 0
9.72 0 0
9.76 0 0
9.8 0 0
9.84 0 0
9.88 0 0
9.92 0 0
9.96 0 0
10 0 0
10.04 0 0
10.08 0 0
10.12 0 0
10.16 0 0
10.2 0 0
10.24 0 0
10.28 0 0
10.32 0 0
10.36 0 0
10.4 0 0
10.44 0 0
10.48 0 0
10.52 0 0
10.56 0 0
10.6 0 0
10.64 0 0
10.68 0 0
10.72 0 0
10.76 0 0
10.8 0 0
10.84 0 0
10.88 0 0
10.92 0 0
10.96 0 0
11 0 0
11.04 0 0
11.08 0 0
11.12 0 0
11.16 0 0
11.2 0 0
11.24 0 0
11.28 0 0
11.32 0 0
11.36 0 0
11.4 0 0
11.44 0 0
11.48 0 0
11.52 0 0
11.56 0 0
11.6 0 0
11.64 0 0
11.68 0 0
11.72 0 0
11.76 0 0
11.8 0 0
11.84 0 0
11.88 0 0
11.92 0 0
11.96 0 0
12 0 0
12.04 0 0
12.08 0 0
12.12 0 0
12.16 0 0
12.2 0 0
12.24 0 0
12.28 0 0
12.32 0 0
12.36 0 0
12.4 0 0
12.44 0 0
12.48 0 0
12.52 0 0
12.56 0 0
12.6 0 0
12.64 0 0
12.68 0 0
12.72 0 0
12.76 0 0
12.8 0 0
12.84 0 0
12.88 0 0
12.92 0 0
12.96 0 0
13 0 0
13.04 0 0
13.08 0 0
13.12 0 0
13.16 0 0
13.2 0 0
13.24 0 0
13.28 0 0
13.32 0 0
13.36 0 0
13.4 0 0
13.44 0 0
13.48 0 0
13.52 0 0
13.56 0 0
13.6 0 0
13.64 0 0
13.68 0 0
13.72 0 0
13.76 0 0
13.8 0 0
13.84 0 0
13.88 0 0
13.92 0 0
13.96 0 0
14 0 0
14.04 0 0
14.08 0 0
14.12 0 0
14.16 0 0
14.2 0 0
14.24 0 0
14.28 0 0
14.32 0 0
14.36 0 0
14.4 0 0
14.44 0 0
14.48 0 0
14.52 0 0
14.56 0 0
14.6 0 0
14.64 0 0
14.68 0 0
14.72 0 0
14.76 0 0
14.8 0 0
14.84 0 0
14.88 0 0
14.92 0 0
14.96 0 0
15 0 0
15.04 0 0
15.08 0 0
15.12 0 0
15.16 0 0
15.2 0 0
15.24 0 0
15.28 0 0
15.32 0 0
15.36 0 0
15.4 0 0
15.44 0 0
15.48 0 0
15.52 0 0
15.56 0 0
15.6 0 0
15.64 0 0
15.68 0 0
15.72 0 0
15.76 0 0
15.8 0 0
15.84 0 0
15.88 0 0
15.92 0 0
15.96 0 0
16 0 0
16.04 0 0
16.08 0 0
16.12 0 0
16.16 0 0
16.2 0 0
16.24 0 0
16.28 0 0
16.32 0 0
16.36 0 0
16.4 0 0
16.44 0 0
16.48 0 0
16.52 0 0
16.56 0 0
16.6 0 0
16.64 0 0
16.68 0 0
16.72 0 0
16.76 0 0
16.8 0 0
16.84 0 0
16.88 0 0
16.92 0 0
16.96 0 0
17 0 0
17.04 0 0
17.08 0 0
17.12 0 0
17.16 0 0
17.2 0 0
17.24 0 0
17.28 0 0
17.32 0 0
17.36 0 0
17.4 0 0
17.44 0 0
17.48 0 0
17.52 0 0
17.56 0 0
17.6 0 0
17.64 0 0
17.68 0 0
17.72 0 0
17.76 0 0
17.8 0 0
17.84 0 0
17.88 0 0
17.92 0 0
17.96 0 0
18 0 0
18.04 0 0
18.08 0 0
18.12 0 0
18.16 0 0
18.2 0 0
18.24 0 0
18.28 0 0
18.32 0 0
18.36 0 0
18.4 0 0
18.44 0 0
18.48 0 0
18.52 0 0
18.56 0 0
18.6 0 0
18.64 0 0
18.68 0 0
18.72 0 0
18.76 0 0
18.8 0 0
18.84 0 0
18.88 0 0
18.92 0 0
18.96 0 0
19 0 0
19.04 0 0
19.08 0 0
19.12 0 0
19.16 0 0
19.2 0 0
19.24 0 0
19.28 0 0
19.32 0 0
19.36 0 0
19.4 0 0
19.44 0 0
19.48 0 0
19.52 0 0
19.56 0 0
19.6 0 0
19.64 0 0
19.68 0 0
19.72 0 0
19.76 0 0
19.8 0 0
19.84 0 0
19.88 0 0
19.92 0 0
19.96 0 0
20 0 0
20.04 0 0
20.08 0 0
20.12 0 0
20.16 0 0
20.2 0 0
20.24 0 0
20.28 0 0
20.32 0 0
20.36 0 0
20.4 0 0
20.44 0 0
20.48 0 0
20.52 0 0
20.56 0 0
20.6 0 0
20.64 0 0
20.68 0 0
20.72 0 0
20.76 0 0
20.8 0 0
20.84 0 0
20.88 0 0
20.92 0 0
20.96 0 0
21 0 0
21.04 0 0
21.08 0 0
21.12 0 0
21.16 0 0
21.2 0 0
21.24 0 0
21.28 0 0
21.32 0 0
21.36 0 0
21.4 0 0
21.44 0 0
21.48 0 0
21.52 0 0
21.56 0 0
21.6 0 0
21.64 0 0
21.68 0 0
21.72 0 0
21.76 0 0
21.8 0 0
21.84 0 0
21.88 0 0
21.92 0 0
21.96 0 0
22 0 0
22.04 0 0
22.08 0 0
22.12 0 0
22.16 0 0
22.2 0 0
22.24 0 0
22.28 0 0
22.32 0 0
22.36 0 0
22.4 0 0
22.44 0 0
22.48 0 0
22.52 0 0
22.56 0 0
22.6 0 0
22.64 0 0
22.68 0 0
22.72 0 0
22.76 0 0
22.8 0 0
22.84 0 0
22.88 0 0
22.92 0 0
22.96 0 0
23 0 0
23.04 0 0
23.08 0 0
23.12 0 0
23.16 0 0
23.2 0 0
23.24 0 0
23.28 0 0
23.32 0 0
23.36 0 0
23.4 0 0
23.44 0 0
23.48 0 0
23.52 0 0
23.56 0 0
23.6 0 0
23.64 0 0
23.68 0 0
23.72 0 0
23.76 0 0
23.8 0 0
23.84 0 0
23.88 0 0
23.92 0 0
23.96 0 0
24 0 0
24.04 0 0
24.08 0 0
24.12 0 0
24.16 0 0
24.2 0 0
24.24 0 0
24.28 0 0
24.32 0 0
24.36 0 0
24.4 0 0
24.44 0 0
24.48 0 0
24.52 0 0
24.56 0 0
24.6 0 0
24.64 0 0
24.68 0 0
24.72 0 0
24.76 0 0
24.8 0 0
24.84 0 0
24.88 0 0
24.92 0 0
24.96 0 0
25 0 0
25.04 0 0
25.08 0 0
25.12 0 0
25.16 0 0
25.2 0 0
25.24 0 0
25.28 0 0
25.32 0 0
25.36 0 0
25.4 0 0
25.44 0 0
25.48 0 0
25.52 0 0
25.56 0 0
25.6 0 0
25.64 0 0
25.68 0 0
25.72 0 0
25.76 0 0
25.8 0 0
25.84 0 0
25.88 0 0
25.92 0 0
25.96 0 0
26 0 0
26.04 0 0
26.08 0 0
26.12 0 0
26.16 0 0
26.2 0 0
26.24 0 0
26.28 0 0
26.32 0 0
26.36 0 0
26.4 0 0
26.44 0 0
26.48 0 0
26.52 0 0
26.56 0 0
26.6 0 0
26.64 0 0
26.68 0 0
26.72 0 0
26.76 0 0
26.8 0 0
26.84 0 0
26.88 0 0
26.92 0 0
26.96 0 0
27 0 0
27.04 0 0
27.08 0 0
27.12 0 0
27.16 0 0
27.2 0 0
27.24 0 0
27.28 0 0
27.32 0 0
27.36 0 0
27.4 0 0
27.44 0 0
27.48 0 0
27.52 0 0
27.56 0 0
27.6 0 0
27.64 0 0
27.68 0 0
27.72 0 0
27.76 0 0
27.8 0 0
27.84 0 0
27.88 0 0
27.92 0 0
27.96 0 0
28 0 0
28.04 0 0
28.08 0 0
28.12 0 0
28.16 0 0
28.2 0 0
28.24 0 0
28.28 0 0
28.32 0 0
28.36 0 0
28.4 0 0
28.44 0 0
28.48 0 0
28.52 0 0
28.56 0 0
28.6 0 0
28.64 0 0
28.68 0 0
28.72 0 0
28.76 0 0
28.8 0 0
28.84 0 0
28.88 0 0
28.92 0 0
28.96 0 0
29 0 0
29.04 0 0
29.08 0 0
29.12 0 0
29.16 0 0
29.2 0 0
29.24 0 0
29.28 0 0
29.32 0 0
29.36 0 0
29.4 0 0
29.44 0 0
29.48 0 0
29.52 0 0
29.56 0 0
29.6 0 0
29.64 0 0
29.68 0 0
29.72 0 0
29.76 0 0
29.8 0 0
29.84 0 0
29.88 0 0
29.92 0 0
29.96 0 0
30 0 0
30.04 0 0
30.08 0 0
30.12 0 0
30.16 0 0
30.2 0 0
30.24 0 0
30.28 0 0
30.32 0 0
30.36 0 0
30.4 0 0
30.44 0 0
30.48 0 0
30.52 0 0
30.56 0 0
30.6 0 0
30.64 0 0
30.68 0 0
30.72 0 0
30.76 0 0
30.8 0 0
30.84 0 0
30.88 0 0
30.92 0 0
30.96 0 0
31 0 0
31.04 0 0
31.08 0 0
31.12 0 0
31.16 0 0
31.2 0 0
31.24 0 0
31.28 0 0
31.32 0 0
31.36 0 0
31.4 0 0
31.44 0 0
31.48 0 0
31.52 0 0
31.56 0 0
31.6 0 0
31.64 0 0
31.68 0 0
31.72 0 0
31.76 0 0
31.8 0 0
31.84 0 0
31.88 0 0
31.92 0 0
31.96 0 0
0 0.005 0
0.04 0.005 0
0.08 0.005 0
0.12 0.005 0
0.16 0.005 0
0.2 0.005 0
0.24 0.005 0
0.28 0.005 0
0.32 0.005 0
0.36 0.005 0
0.4 0.005 0
0.44 0.005 0
0.48 0.005 0
0.52 0.005 0
0.56 0.005 0
0.6 0.005 0
0.64 0.005 0
0.68 0.005 0
0.72 0.005 0
0.76 0.005 0
0.8 0.005 0
0.84 0.005 0
0.88 0.005 0
0.92 0.005 0
0.96 0.005 0
1 0.005 0
1.04 0.005 0
1.08 0.005 0
1.12 0.005 0
1.16 0.005 0
1.2 0.005 0
1.24 0.005 0
1.28 0.005 0
1.32 0.005 0
1.36 0.005 0
1.4 0.005 0
1.44 0.005 0
1.48 0.005 0
1.52 0.005 0
1.56 0.005 0
1.6 0.005 0
1.64 0.005 0
1.68 0.005 0
1.72 0.005 0
1.76 0.005 0
1.8 0.005 0
1.84 0.005 0
1.88 0.005 0
1.92 0.005 0
1.96 0.005 0
2 0.005 0
2.04 0.005 0
2.08 0.005 0
2.12 0.005 0
2.16 0.005 0
2.2 0.005 0
2.24 0.005 0
2.28 0.005 0
2.32 0.005 0
2.36 0.005 0
2.4 0.005 0
2.44 0.005 0
2.48 0.005 0
2.52 0.005 0
2.56 0.005 0
2.6 0.005 0
2.64 0.005 0
2.68 0.005 0
2.72 0.005 0
2.76 0.005 0
2.8 0.005 0
2.84 0.005 0
2.88 0.005 0
2.92 0.005 0
2.96 0.005 0
3 0.005 0
3.04 0.005 0
3.08 0.005 0
3.12 0.005 0
3.16 0.005 0
3.2 0.005 0
3.24 0.005 0
3.28 0.005 0
3.32 0.005 0
3.36 0.005 0
3.4 0.005 0
3.44 0.005 0
3.48 0.005 0
3.52 0.005 0
3.56 0.005 0
3.6 0.005 0
3.64 0.005 0
3.68 0.005 0
3.72 0.005 0
3.76 0.005 0
3.8 0.005 0
3.84 0.005 0
3.88 0.005 0
3.92 0.005 0
3.96 0.005 0
4 0.005 0
4.04 0.005 0
4.08 0.005 0
4.12 0.005 0
4.16 0.005 0
4.2 0.005 0
4.24 0.005 0
4.28 0.005 0
4.32 0.005 0
4.36 0.005 0
4.4 0.005 0
4.44 0.005 0
4.48 0.005 0
4.52 0.005 0
4.56 0.005 0
4.6 0.005 0
4.64 0.005 0
4.68 0.005 0
4.72 0.005 0
4.76 0.005 0
4.8 0.005 0
4.84 0.005 0
4.88 0.005 0
4.92 0.005 0
4.96 0.005 0
5 0.005 0
5.04 0.005 0
5.08 0.005 0
5.12 0.005 0
5.16 0.005 0
5.2 0.005 0
5.24 0.005 0
5.28 0.005 0
5.32 0.005 0
5.36 0.005 0
5.4 0.005 0
5.44 0.005 0
5.48 0.005 0
5.52 0.005 0
5.56 0.005 0
5.6 0.005 0
5.64 0.005 0
5.68 0.005 0
5.72 0.005 0
5.76 0.005 0
5.8 0.005 0
5.84 0.005 0
5.88 0.005 0
5.92 0.005 0
5.96 0.005 0
6 0.005 0
6.04 0.005 0
6.08 0.005 0
6.12 0.005 0
6.16 0.005 0
6.2 0.005 0
6.24 0.005 0
6.28 0.005 0
6.32 0.005 0
6.36 0.005 0
6.4 0.005 0
6.44 0.005 0
6.48 0.005 0
6.52 0.005 0
6.56 0.005 0
6.6 0.005 0
6.64 0.005 0
6.68 0.005 0
6.72 0.005 0
6.76 0.005 0
6.8 0.005 0
6.84 0.005 0
6.88 0.005 0
6.92 0.005 0
6.96 0.005 0
7 0.005 0
7.04 0.005 0
7.08 0.005 0
7.12 0.005 0
7.16 0.005 0
7.2 0.005 0
7.24 0.005 0
7.28 0.005 0
7.32 0.005 0
7.36 0.005 0
7.4 0.005 0
[...]
POINT_DATA 160000

SCALARS p float 1
LOOKUP_TABLE default
1
61.5862
59.3708
59.1159
59.0557
59.0293
59.0133
59.0017
58.9924
58.9846
58.9776
58.9713
58.9654
58.9599
58.9546
58.9494
58.9445
58.9397
58.9349
58.9303
58.9258
58.9213
58.9169
58.9126
58.9083
58.9041
58.8999
58.8958
58.8918
58.8878
58.8838
58.8799
58.876
58.8722
58.8684
58.8646
58.8609
58.8572
58.8536
58.85
58.8464
58.8429
58.8394
58.836
58.8325
58.8291
58.8258
58.8224
58.8191
58.8159
58.8126
58.8094
58.8062
58.803
58.7999
58.7967
58.7936
58.7906
58.7875
58.7845
58.7815
58.7785
58.7755
58.7725
58.7696
58.7667
58.7638
58.7609
58.7581
58.7552
58.7524
58.7496
58.7468
58.744
58.7413
58.7385
58.7358
58.7331
58.7304
58.7277
58.725
58.7224
58.7197
58.7171
58.7145
58.7119
58.7093
58.7067
58.7042
58.7016
58.6991
58.6965
58.694
58.6915
58.689
58.6865
58.684
58.6816
58.6791
58.6767
58.6742
58.6718
58.6694
58.667
58.6646
58.6622
58.6598
58.6575
58.6551
58.6527
58.6504
58.6481
58.6457
58.6434
58.6411
58.6388
58.6365
58.6342
58.6319
58.6297
58.6274
58.6252
58.6229
58.6207
58.6184
58.6162
58.614
58.6118
58.6096
58.6074
58.6052
58.603
58.6008
58.5986
58.5965
58.5943
58.5921
58.59
58.5878
58.5857
58.5836
58.5814
58.5793
58.5772
58.5751
58.573
58.5709
58.5688
58.5667
58.5646
58.5626
58.5605
58.5584
58.5564
58.5543
58.5522
58.5502
58.5482
58.5461
58.5441
58.5421
58.54
58.538
58.536
58.534
58.532
58.53
58.528
58.526
58.524
58.522
58.52
58.5181
58.5161
58.5141
58.5122
58.5102
58.5083
58.5063
58.5044
58.5024
58.5005
58.4985
58.4966
58.4947
58.4927
58.4908
58.4889
58.487
58.4851
58.4832
58.4813
58.4794
58.4775
58.4756
58.4737
58.4718
58.4699
58.468
58.4662
58.4643
58.4624
58.4605
58.4587
58.4568
58.4549
58.4531
58.4512
58.4494
58.4475
58.4457
58.4438
58.442
58.4402
58.4383
58.4365
58.4347
58.4328
58.431
58.4292
58.4274
58.4256
58.4237
58.4219
58.4201
58.4183
58.4165
58.4147
58.4129
58.4111
58.4093
58.4075
58.4057
58.4039
58.4022
58.4004
58.3986
58.3968
58.395
58.3933
58.3915
58.3897
58.388
58.3862
58.3844
58.3827
58.3809
58.3791
58.3774
58.3756
58.3739
58.3721
58.3704
58.3686
58.3669
58.3651
58.3634
58.3617
58.3599
58.3582
58.3564
58.3547
58.353
58.3513
58.3495
58.3478
58.3461
58.3444
58.3426
58.3409
58.3392
58.3375
58.3358
58.334
58.3323
58.3306
58.3289
58.3272
58.3255
58.3238
58.3221
58.3204
58.3187
58.317
58.3153
58.3136
58.3119
58.3102
58.3085
58.3068
58.3051
58.3035
58.3018
58.3001
58.2984
58.2967
58.295
58.2934
58.2917
58.29
58.2883
58.2866
58.285
58.2833
58.2816
58.2799
58.2783
58.2766
58.2749
58.2733
58.2716
58.2699
58.2683
58.2666
58.265
58.2633
58.2616
58.26
58.2583
58.2567
58.255
58.2534
58.2517
58.25
58.2484
58.2467
58.2451
58.2434
58.2418
58.2402
58.2385
58.2369
58.2352
58.2336
58.2319
58.2303
58.2286
58.227
58.2254
58.2237
58.2221
58.2205
58.2188
58.2172
58.2156
58.2139
58.2123
58.2107
58.209
58.2074
58.2058
58.2041
58.2025
58.2009
58.1992
58.1976
58.196
58.1944
58.1927
58.1911
58.1895
58.1879
58.1863
58.1846
58.183
58.1814
58.1798
58.1782
58.1765
58.1749
58.1733
58.1717
58.1701
58.1685
58.1668
58.1652
58.1636
58.162
58.1604
58.1588
58.1572
58.1556
58.154
58.1523
58.1507
58.1491
58.1475
58.1459
58.1443
58.1427
58.1411
58.1395
58.1379
58.1363
58.1347
58.1331
58.1315
58.1299
58.1283
58.1267
58.1251
58.1235
58.1219
58.1203
58.1187
58.1171
58.1155
58.1139
58.1123
58.1107
58.1091
58.1075
58.1059
58.1043
58.1027
58.1011
58.0995
58.0979
58.0963
58.0947
58.0931
58.0916
58.09
58.0884
58.0868
58.0852
58.0836
58.082
58.0804
58.0788
58.0772
58.0757
58.0741
58.0725
58.0709
58.0693
58.0677
58.0661
58.0645
58.063
58.0614
58.0598
58.0582
58.0566
58.055
58.0534
58.0519
58.0503
58.0487
58.0471
58.0455
58.044
58.0424
58.0408
58.0392
58.0376
58.036
58.0345
58.0329
58.0313
58.0297
58.0281
58.0266
58.025
58.0234
58.0218
58.0203
58.0187
58.0171
58.0155
58.0139
58.0124
58.0108
58.0092
58.0076
58.0061
58.0045
58.0029
58.0013
57.9998
57.9982
57.9966
57.995
57.9935
57.9919
57.9903
57.9887
57.9872
57.9856
57.984
57.9824
57.9809
57.9793
57.9777
57.9762
57.9746
57.973
57.9714
57.9699
57.9683
57.9667
57.9652
57.9636
57.962
57.9605
57.9589
57.9573
57.9557
57.9542
57.9526
57.951
57.9495
57.9479
57.9463
57.9448
57.9432
57.9416
57.9401
57.9385
57.9369
57.9354
57.9338
57.9322
57.9307
57.9291
57.9275
57.926
57.9244
57.9228
57.9213
57.9197
57.9181
57.9166
57.915
57.9134
57.9119
57.9103
57.9087
57.9072
57.9056
57.904
57.9025
57.9009
57.8994
57.8978
57.8962
57.8947
57.8931
57.8915
57.89
57.8884
57.8868
57.8853
57.8837
57.8822
57.8806
57.879
57.8775
57.8759
57.8743
57.8728
57.8712
57.8697
57.8681
57.8665
57.865
57.8634
57.8619
57.8603
57.8587
57.8572
57.8556
57.854
57.8525
57.8509
57.8494
57.8478
57.8462
57.8447
57.8431
57.8416
57.84
57.8384
57.8369
57.8353
57.8338
57.8322
57.8307
57.8291
57.8275
57.826
57.8244
57.8229
57.8213
57.8197
57.8182
57.8166
57.8151
57.8135
57.812
57.8104
57.8088
57.8073
57.8057
57.8042
57.8026
57.801
57.7995
57.7979
57.7964
57.7948
57.7933
57.7917
57.7902
57.7886
57.787
57.7855
57.7839
57.7824
57.7808
57.7793
57.7777
57.7761
57.7746
57.773
57.7715
57.7699
57.7684
57.7668
57.7653
57.7637
57.7621
57.7606
57.759
57.7575
57.7559
57.7544
57.7528
57.7513
57.7497
57.7481
57.7466
57.745
57.7435
57.7419
57.7404
57.7388
57.7373
57.7357
57.7342
57.7326
57.7311
57.7295
57.7279
57.7264
57.7248
57.7233
57.7217
57.7202
57.7186
57.7171
57.7155
57.714
57.7124
57.7109
57.7093
57.7077
57.7062
57.7046
57.7031
57.7015
57.7
57.6984
57.6969
57.6953
57.6938
57.6922
57.6907
57.6891
57.6876
57.686
57.6845
57.6829
57.6814
57.6798
57.6783
57.6767
57.6751
57.6736
57.672
57.6705
57.6689
57.6674
57.6658
57.6643
57.6627
57.6612
57.6596
57.6581
57.6565
57.655
57.6534
57.6519
57.6503
57.6488
57.6472
57.6457
57.6441
57.6426
57.641
57.6395
57.6379
57.6364
57.6348
57.6333
57.6317
57.6302
57.6286
57.6271
57.6255
57.624
57.6224
57.6209
57.6193
57.6178
57.6162
57.6147
57.6131
57.6116
57.61
57.6085
57.6069
57.6054
57.6038
57.6023
57.6007
57.5992
57.5976
57.5961
57.5945
57.593
57.5914
57.5899
57.5883
57.5868
57.5852
57.5837
57.5821
57.5806
57.579
57.5775
57.5759
57.5744
57.5728
57.5713
57.5697
57.5682
57.5666
57.5651
57.5636
57.562
57.5605
57.5589
57.5574
57.5558
57.5543
57.5527
57.5512
57.5496
57.5481
57.5465
57.545
57.5434
57.5419
57.5403
57.5388
57.5372
57.5357
57.5341
57.5326
57.531
57.5295
57.528
57.5264
57.5249
57.5233
57.5218
57.5202
57.5187
57.5171
57.5156
57.514
57.5125
57.5109
57.5094
57.5078
57.5063
57.5048
57.5032
1
61.5862
61.5862
59.3708
59.1159
59.0557
59.0293
59.0133
59.0017
58.9924
58.9846
58.9776
58.9713
58.9654
58.9599
58.9546
58.9494
58.9445
58.9397
58.9349
58.9303
58.9258
58.9213
58.9169
58.9126
58.9083
58.9041
58.8999
58.8958
58.8918
58.8878
58.8838
58.8799
58.876
58.8722
58.8684
58.8646
58.8609
58.8572
58.8536
58.85
58.8464
58.8429
58.8394
58.836
58.8325
58.8291
58.8258
58.8224
58.8191
58.8159
58.8126
58.8094
58.8062
58.803
58.7999
58.7967
58.7936
58.7906
58.7875
58.7845
58.7815
58.7785
58.7755
58.7725
58.7696
58.7667
58.7638
58.7609
58.7581
58.7552
58.7524
58.7496
58.7468
58.744
58.7413
58.7385
58.7358
58.7331
58.7304
58.7277
58.725
58.7224
58.7197
58.7171
58.7145
58.7119
58.7093
58.7067
58.7042
58.7016
58.6991
58.6965
58.694
58.6915
58.689
58.6865
58.684
58.6816
58.6791
58.6767
58.6742
58.6718
58.6694
58.667
58.6646
58.6622
58.6598
58.6575
58.6551
58.6527
58.6504
58.6481
58.6457
58.6434
58.6411
58.6388
58.6365
58.6342
58.6319
58.6297
58.6274
58.6252
58.6229
58.6207
58.6184
58.6162
58.614
58.6118
58.6096
58.6074
58.6052
58.603
58.6008
58.5986
58.5965
58.5943
58.5921
58.59
58.5878
58.5857
58.5836
58.5814
58.5793
58.5772
58.5751
58.573
58.5709
58.5688
58.5667
58.5646
58.5626
58.5605
58.5584
58.5564
58.5543
58.5522
58.5502
58.5482
58.5461
58.5441
58.5421
58.54
58.538
58.536
58.534
58.532
58.53
58.528
58.526
58.524
58.522
58.52
58.5181
58.5161
58.5141
58.5122
58.5102
58.5083
58.5063
58.5044
58.5024
58.5005
58.4985
58.4966
58.4947
58.4927
58.4908
58.4889
58.487
58.4851
58.4832
58.4813
58.4794
58.4775
58.4756
58.4737
58.4718
58.4699
58.468
58.4662
58.4643
58.4624
58.4605
58.4587
58.4568
58.4549
58.4531
58.4512
58.4494
58.4475
58.4457
58.4438
58.442
58.4402
58.4383
58.4365
58.4347
58.4328
58.431
58.4292
58.4274
58.4256
58.4237
58.4219
58.4201
58.4183
58.4165
58.4147
58.4129
58.4111
58.4093
58.4075
58.4057
58.4039
58.4022
58.4004
58.3986
58.3968
58.395
58.3933
58.3915
58.3897
58.388
58.3862
58.3844
58.3827
58.3809
58.3791
58.3774
58.3756
58.3739
58.3721
58.3704
58.3686
58.3669
58.3651
58.3634
58.3617
58.3599
58.3582
58.3564
58.3547
58.353
58.3513
58.3495
58.3478
58.3461
58.3444
58.3426
58.3409
58.3392
58.3375
58.3358
58.334
58.3323
58.3306
58.3289
58.3272
58.3255
58.3238
58.3221
58.3204
58.3187
58.317
58.3153
58.3136
58.3119
58.3102
58.3085
58.3068
58.3051
58.3035
58.3018
58.3001
58.2984
58.2967
58.295
58.2934
58.2917
58.29
58.2883
58.2866
58.285
58.2833
58.2816
58.2799
58.2783
58.2766
58.2749
58.2733
58.2716
58.2699
58.2683
58.2666
58.265
58.2633
58.2616
58.26
58.2583
58.2567
58.255
58.2534
58.2517
58.25
58.2484
58.2467
58.2451
58.2434
58.2418
58.2402
58.2385
58.2369
58.2352
58.2336
58.2319
58.2303
58.2286
58.227
58.2254
58.2237
58.2221
58.2205
58.2188
58.2172
58.2156
58.2139
58.2123
58.2107
58.209
58.2074
58.2058
58.2041
58.2025
58.2009
58.1992
58.1976
58.196
58.1944
58.1927
58.1911
58.1895
58.1879
58.1863
58.1846
58.183
58.1814
58.1798
58.1782
58.1765
58.1749
58.1733
58.1717
58.1701
58.1685
58.1668
58.1652
58.1636
58.162
58.1604
58.1588
58.1572
58.1556
58.154
58.1523
58.1507
58.1491
58.1475
58.1459
58.1443
58.1427
58.1411
58.1395
58.1379
58.1363
58.1347
58.1331
58.1315
58.1299
58.1283
58.1267
58.1251
58.1235
58.1219
58.1203
58.1187
58.1171
58.1155
58.1139
58.1123
58.1107
58.1091
58.1075
58.1059
58.1043
58.1027
58.1011
58.0995
58.0979
58.0963
58.0947
58.0931
58.0916
58.09
58.0884
58.0868
58.0852
58.0836
58.082
58.0804
58.0788
58.0772
58.0757
58.0741
58.0725
58.0709
58.0693
58.0677
58.0661
58.0645
58.063
58.0614
58.0598
58.0582
58.0566
58.055
58.0534
58.0519
58.0503
58.0487
58.0471
58.0455
58.044
58.0424
58.0408
58.0392
58.0376
58.036
58.0345
58.0329
58.0313
58.0297
58.0281
58.0266
58.025
58.0234
58.0218
58.0203
58.0187
58.0171
58.0155
58.0139
58.0124
58.0108
58.0092
58.0076
58.0061
58.0045
58.0029
58.0013
57.9998
57.9982
57.9966
57.995
57.9935
57.9919
57.9903
57.9887
57.9872
57.9856
57.984
57.9824
57.9809
57.9793
57.9777
57.9762
57.9746
57.973
57.9714
57.9699
57.9683
57.9667
57.9652
57.9636
57.962
57.9605
57.9589
57.9573
57.9557
57.9542
57.9526
57.951
57.9495
57.9479
57.9463
57.9448
57.9432
57.9416
57.9401
57.9385
57.9369
57.9354
57.9338
57.9322
57.9307
57.9291
57.9275
57.926
57.9244
57.9228
57.9213
57.9197
57.9181
57.9166
57.915
57.9134
57.9119
57.9103
57.9087
57.9072
57.9056
57.904
57.9025
57.9009
57.8994
57.8978
57.8962
57.8947
57.8931
57.8915
57.89
57.8884
57.8868
57.8853
57.8837
57.8822
57.8806
57.879
57.8775
57.8759
57.8743
57.8728
57.8712
57.8697
57.8681
57.8665
57.865
57.8634
57.8619
57.8603
57.8587
57.8572
57.8556
57.854
57.8525
57.8509
57.8494
57.8478
57.8462
57.8447
57.8431
57.8416
57.84
57.8384
57.8369
57.8353
57.8338
57.8322
57.8307
57.8291
57.8275
57.826
57.8244
57.8229
57.8213
57.8197
57.8182
57.8166
57.8151
57.8135
57.812
57.8104
57.8088
57.8073
57.8057
57.8042
57.8026
57.801
57.7995
57.7979
57.7964
57.7948
57.7933
57.7917
57.7902
57.7886
57.787
57.7855
57.7839
57.7824
57.7808
57.7793
57.7777
57.7761
57.7746
57.773
57.7715
57.7699
57.7684
57.7668
57.7653
57.7637
57.7621
57.7606
57.759
57.7575
57.7559
57.7544
57.7528
57.7513
57.7497
57.7481
57.7466
57.745
57.7435
57.7419
57.7404
57.7388
57.7373
57.7357
57.7342
57.7326
57.7311
57.7295
57.7279
57.7264
57.7248
57.7233
57.7217
57.7202
57.7186
57.7171
57.7155
57.714
57.7124
57.7109
57.7093
57.7077
57.7062
57.7046
57.7031
57.7015
57.7
57.6984
57.6969
57.6953
57.6938
57.6922
57.6907
57.6891
57.6876
57.686
57.6845
57.6829
57.6814
57.6798
57.6783
57.6767
57.6751
57.6736
57.672
57.6705
57.6689
57.6674
57.6658
57.6643
57.6627
57.6612
57.6596
57.6581
57.6565
57.655
57.6534
57.6519
57.6503
57.6488
57.6472
57.6457
57.6441
57.6426
57.641
57.6395
57.6379
57.6364
57.6348
57.6333
57.6317
57.6302
57.6286
57.6271
57.6255
57.624
57.6224
57.6209
57.6193
57.6178
57.6162
57.6147
57.6131
57.6116
57.61
57.6085
57.6069
57.6054
57.6038
57.6023
57.6007
57.5992
57.5976
57.5961
57.5945
57.593
57.5914
57.5899
57.5883
57.5868
57.5852
57.5837
57.5821
57.5806
57.579
57.5775
57.5759
57.5744
57.5728
57.5713
57.5697
57.5682
57.5666
57.5651
57.5636
57.562
57.5605
57.5589
57.5574
57.5558
57.5543
57.5527
57.5512
57.5496
57.5481
57.5465
57.545
57.5434
57.5419
57.5403
57.5388
57.5372
57.5357
57.5341
57.5326
57.531
57.5295
57.528
57.5264
57.5249
57.5233
57.5218
57.5202
57.5187
57.5171
57.5156
57.514
57.5125
57.5109
57.5094
57.5078
57.5063
57.5048
57.5032
57.5032
60.9392
60.9392
59.3812
59.1254
59.0599
59.0315
59.0147
59.0027
58.9932
58.9851
58.9781
58.9717
58.9657
58.9601
58.9548
58.9496
58.9447
58.9398
58.9351
58.9304
58.9259
58.9214
58.917
58.9127
58.9084
58.9042
58.9
58.8959
58.8918
58.8878
58.8838
58.8799
58.876
58.8722
58.8684
58.8647
58.861
58.8573
58.8536
58.85
58.8465
58.843
58.8395
58.836
58.8326
58.8292
58.8258
58.8225
58.8192
58.8159
58.8126
58.8094
58.8062
58.803
58.7999
58.7968
58.7937
58.7906
58.7875
58.7845
58.7815
58.7785
58.7755
58.7726
58.7696
58.7667
58.7638
58.7609
58.7581
58.7552
58.7524
58.7496
58.7468
58.7441
58.7413
58.7385
58.7358
58.7331
58.7304
58.7277
58.7251
58.7224
58.7198
58.7171
58.7145
58.7119
58.7093
58.7067
58.7042
58.7016
58.6991
58.6965
58.694
58.6915
58.689
58.6865
58.6841
58.6816
58.6791
58.6767
58.6742
58.6718
58.6694
58.667
58.6646
58.6622
58.6598
58.6575
58.6551
58.6528
58.6504
58.6481
58.6457
58.6434
58.6411
58.6388
58.6365
58.6342
58.632
58.6297
58.6274
58.6252
58.6229
58.6207
58.6184
58.6162
58.614
58.6118
58.6096
58.6074
58.6052
58.603
58.6008
58.5986
58.5965
58.5943
58.5921
58.59
58.5878
58.5857
58.5836
58.5815
58.5793
58.5772
58.5751
58.573
58.5709
58.5688
58.5667
58.5646
58.5626
58.5605
58.5584
58.5564
58.5543
58.5523
58.5502
58.5482
58.5461
58.5441
58.5421
58.54
58.538
58.536
58.534
58.532
58.53
58.528
58.526
58.524
58.522
58.5201
58.5181
58.5161
58.5141
58.5122
58.5102
58.5083
58.5063
58.5044
58.5024
58.5005
58.4985
58.4966
58.4947
58.4928
58.4908
58.4889
58.487
58.4851
58.4832
58.4813
58.4794
58.4775
58.4756
58.4737
58.4718
58.4699
58.468
58.4662
58.4643
58.4624
58.4605
58.4587
58.4568
58.4549
58.4531
58.4512
58.4494
58.4475
58.4457
58.4438
58.442
58.4402
58.4383
58.4365
58.4347
58.4328
58.431
58.4292
58.4274
58.4256
58.4237
58.4219
58.4201
58.4183
58.4165
58.4147
58.4129
58.4111
58.4093
58.4075
58.4057
58.404
58.4022
58.4004
58.3986
58.3968
58.395
58.3933
58.3915
58.3897
58.388
58.3862
58.3844
58.3827
58.3809
58.3791
58.3774
58.3756
58.3739
58.3721
58.3704
58.3686
58.3669
58.3651
58.3634
58.3617
58.3599
58.3582
58.3565
58.3547
58.353
58.3513
58.3495
58.3478
58.3461
58.3444
58.3426
58.3409
58.3392
58.3375
58.3358
58.3341
58.3323
58.3306
58.3289
58.3272
58.3255
58.3238
58.3221
58.3204
58.3187
58.317
58.3153
58.3136
58.3119
58.3102
58.3085
58.3068
58.3051
58.3035
58.3018
58.3001
58.2984
58.2967
58.295
58.2934
58.2917
58.29
58.2883
58.2866
58.285
58.2833
58.2816
58.28
58.2783
58.2766
58.2749
58.2733
58.2716
58.2699
58.2683
58.2666
58.265
58.2633
58.2616
58.26
58.2583
58.2567
58.255
58.2534
58.2517
58.2501
58.2484
58.2468
58.2451
58.2435
58.2418
58.2402
58.2385
58.2369
58.2352
58.2336
58.2319
58.2303
58.2287
58.227
58.2254
58.2237
58.2221
58.2205
58.2188
58.2172
58.2156
58.2139
58.2123
58.2107
58.209
58.2074
58.2058
58.2041
58.2025
58.2009
58.1993
58.1976
58.196
58.1944
58.1928
58.1911
58.1895
58.1879
58.1863
58.1846
58.183
58.1814
58.1798
58.1782
58.1765
58.1749
58.1733
58.1717
58.1701
58.1685
58.1669
58.1652
58.1636
58.162
58.1604
58.1588
58.1572
58.1556
58.154
58.1523
58.1507
58.1491
58.1475
58.1459
58.1443
58.1427
58.1411
58.1395
58.1379
58.1363
58.1347
58.1331
58.1315
58.1299
58.1283
58.1267
58.1251
58.1235
58.1219
58.1203
58.1187
58.1171
58.1155
58.1139
58.1123
58.1107
58.1091
58.1075
58.1059
58.1043
58.1027
58.1011
58.0995
58.0979
58.0963
58.0947
58.0931
58.0916
58.09
58.0884
58.0868
58.0852
58.0836
58.082
58.0804
58.0788
58.0772
58.0757
58.0741
58.0725
58.0709
58.0693
58.0677
58.0661
58.0645
58.063
58.0614
58.0598
58.0582
58.0566
58.055
58.0535
58.0519
58.0503
58.0487
58.0471
58.0455
58.044
58.0424
58.0408
58.0392
58.0376
58.0361
58.0345
58.0329
58.0313
58.0297
58.0282
58.0266
58.025
58.0234
58.0218
58.0203
58.0187
58.0171
58.0155
58.0139
58.0124
58.0108
58.0092
58.0076
58.0061
58.0045
58.0029
58.0013
57.9998
57.9982
57.9966
57.995
57.9935
57.9919
57.9903
57.9887
57.9872
57.9856
57.984
57.9825
57.9809
57.9793
57.9777
57.9762
57.9746
57.973
57.9715
57.9699
57.9683
57.9667
57.9652
57.9636
57.962
57.9605
57.9589
57.9573
57.9557
57.9542
57.9526
57.951
57.9495
57.9479
57.9463
57.9448
57.9432
57.9416
57.9401
57.9385
57.9369
57.9354
57.9338
57.9322
57.9307
57.9291
57.9275
57.926
57.9244
57.9228
57.9213
57.9197
57.9181
57.9166
57.915
57.9134
57.9119
57.9103
57.9087
57.9072
57.9056
57.904
57.9025
57.9009
57.8994
57.8978
57.8962
57.8947
57.8931
57.8915
57.89
57.8884
57.8868
57.8853
57.8837
57.8822
57.8806
57.879
57.8775
57.8759
57.8743
57.8728
57.8712
57.8697
57.8681
57.8665
57.865
57.8634
57.8619
57.8603
57.8587
57.8572
57.8556
57.8541
57.8525
57.8509
57.8494
57.8478
57.8463
57.8447
57.8431
57.8416
57.84
57.8385
57.8369
57.8353
57.8338
57.8322
57.8307
57.8291
57.8275
57.826
57.8244
57.8229
57.8213
57.8197
57.8182
57.8166
57.8151
57.8135
57.812
57.8104
57.8088
57.8073
57.8057
57.8042
57.8026
57.8011
57.7995
57.7979
57.7964
57.7948
57.7933
57.7917
57.7902
57.7886
57.787
57.7855
57.7839
57.7824
57.7808
57.7793
57.7777
57.7761
57.7746
57.773
57.7715
57.7699
57.7684
57.7668
57.7653
57.7637
57.7621
57.7606
57.759
57.7575
57.7559
57.7544
57.7528
57.7513
57.7497
57.7482
57.7466
57.745
57.7435
57.7419
57.7404
57.7388
57.7373
57.7357
57.7342
57.7326
57.7311
57.7295
57.7279
57.7264
57.7248
57.7233
57.7217
57.7202
57.7186
57.7171
57.7155
57.714
57.7124
57.7109
57.7093
57.7078
57.7062
57.7046
57.7031
57.7015
57.7
57.6984
57.6969
57.6953
57.6938
57.6922
57.6907
57.6891
57.6876
57.686
57.6845
57.6829
57.6814
57.6798
57.6783
57.6767
57.6752
57.6736
57.6721
57.6705
57.6689
57.6674
57.6658
57.6643
57.6627
57.6612
57.6596
57.6581
57.6565
57.655
57.6534
57.6519
57.6503
57.6488
57.6472
57.6457
57.6441
57.6426
57.641
57.6395
57.6379
57.6364
57.6348
57.6333
57.6317
57.6302
57.6286
57.6271
57.6255
57.624
57.6224
57.6209
57.6193
57.6178
57.6162
57.6147
57.6131
57.6116
57.61
57.6085
57.6069
57.6054
57.6038
57.6023
57.6007
57.5992
57.5976
57.5961
57.5945
57.593
57.5914
57.5899
57.5883
57.5868
57.5852
57.5837
57.5821
57.5806
57.579
57.5775
57.5759
57.5744
57.5728
57.5713
57.5697
57.5682
57.5667
57.5651
57.5636
57.562
57.5605
57.5589
57.5574
57.5558
57.5543
57.5527
57.5512
57.5496
57.5481
57.5465
57.545
57.5434
57.5419
57.5403
57.5388
57.5372
57.5357
57.5341
57.5326
57.5311
57.5295
57.528
57.5264
57.5249
57.5233
57.5218
57.5202
57.5187
57.5171
57.5156
57.514
57.5125
57.5109
57.5094
57.5079
57.5063
57.5048
57.5032
57.5032
60.2497
60.2497
59.3653
59.1321
59.0635
59.0336
59.016
59.0036
58.9938
58.9857
58.9785
58.972
58.966
58.9604
58.955
58.9498
58.9448
58.94
58.9352
58.9306
58.926
58.9215
58.9171
58.9128
58.9085
58.9042
58.9001
58.896
58.8919
58.8879
58.8839
58.88
58.8761
58.8722
58.8685
58.8647
58.861
58.8573
58.8537
58.8501
58.8465
58.843
58.8395
58.836
58.8326
58.8292
58.8258
58.8225
58.8192
58.8159
58.8126
58.8094
58.8062
58.803
58.7999
58.7968
58.7937
58.7906
58.7875
58.7845
58.7815
58.7785
58.7755
58.7726
58.7696
58.7667
58.7638
58.761
58.7581
58.7553
58.7524
58.7496
58.7468
58.7441
58.7413
58.7386
58.7358
58.7331
58.7304
58.7277
58.7251
58.7224
58.7198
58.7171
58.7145
58.7119
58.7093
58.7067
58.7042
58.7016
58.6991
58.6966
58.694
58.6915
58.689
58.6865
58.6841
58.6816
58.6791
58.6767
58.6743
58.6718
58.6694
58.667
58.6646
58.6622
58.6598
58.6575
58.6551
58.6528
58.6504
58.6481
58.6458
58.6434
58.6411
58.6388
58.6365
58.6342
58.632
58.6297
58.6274
58.6252
58.6229
58.6207
58.6184
58.6162
58.614
58.6118
58.6096
58.6074
58.6052
58.603
58.6008
58.5986
58.5965