# vtk DataFile Version 2.0
FlowField
ASCII
DATASET STRUCTURED_GRID
DIMENSIONS 800 1 200
POINTS 160000 float
0 0 0
0.04 0 0
0.08 0 0
0.12 0 0
0.16 0 0
0.2 0 0
0.24 0 0
0.28 0 0
0.32 0 0
0.36 0 0
0.4 0 0
0.44 0 0
0.48 0 0
0.52 0 0
0.56 0 0
0.6 0 0
0.64 0 0
0.68 0 0
0.72 0 0
0.76 0 0
0.8 0 0
0.84 0 0
0.88 0 0
0.92 0 0
0.96 0 0
1 0 0
1.04 0 0
1.08 0 0
1.12 0 0
1.16 0 0
1.2 0 0
1.24 0 0
1.28 0 0
1.32 0 0
1.36 0 0
1.4 0 0
1.44 0 0
1.48 0 0
1.52 0 0
1.56 0 0
1.6 0 0
1.64 0 0
1.68 0 0
1.72 0 0
1.76 0 0
1.8 0 0
1.84 0 0
1.88 0 0
1.92 0 0
1.96 0 0
2 0 0
2.04 0 0
2.08 0 0
2.12 0 0
2.16 0 0
2.2 0 0
2.24 0 0
2.28 0 0
2.32 0 0
2.36 0 0
2.4 0 0
2.44 0 0
2.48 0 0
2.52 0 0
2.56 0 0
2.6 0 0
2.64 0 0
2.68 0 0
2.72 0 0
2.76 0 0
2.8 0 0
2.84 0 0
2.88 0 0
2.92 0 0
2.96 0 0
3 0 0
3.04 0 0
3.08 0 0
3.12 0 0
3.16 0 0
3.2 0 0
3.24 0 0
3.28 0 0
3.32 0 0
3.36 0 0
3.4 0 0
3.44 0 0
3.48 0 0
3.52 0 0
3.56 0 0
3.6 0 0
3.64 0 0
3.68 0 0
3.72 0 0
3.76 0 0
3.8 0 0
3.84 0 0
3.88 0 0
3.92 0 0
3.96 0 0
4 0 0
4.04 0 0
4.08 0 0
4.12 0 0
4.16 0 0
4.2 0 0
4.24 0 0
4.28 0 0
4.32 0 0
4.36 0 0
4.4 0 0
4.44 0 0
4.48 0 0
4.52 0 0
4.56 0 0
4.6 0 0
4.64 0 0
4.68 0 0
4.72 0 0
4.76 0 0
4.8 0 0
4.84 0 0
4.88 0 0
4.92 0 0
4.96 0 0
5 0 0
5.04 0 0
5.08 0 0
5.12 0 0
5.16 0 0
5.2 0 0
5.24 0 0
5.28 0 0
5.32 0 0
5.36 0 0
5.4 0 0
5.44 0 0
5.48 0 0
5.52 0 0
5.56 0 0
5.6 0 0
5.64 0 0
5.68 0 0
5.72 0 0
5.76 0 0
5.8 0 0
5.84 0 0
5.88 0 0
5.92 0 0
5.96 0 0
6 0 0
6.04 0 0
6.08 0 0
6.12 0 0
6.16 0 0
6.2 0 0
6.24 0 0
6.28 0 0
6.32 0 0
6.36 0 0
6.4 0 0
6.44 0 0
6.48 0 0
6.52 0 0
6.56 0 0
6.6 0 0
6.64 0 0
6.68 0 0
6.72 0 0
6.76 0 0
6.8 0 0
6.84 0 0
6.88 0 0
6.92 0 0
6.96 0 0
7 0 0
7.04 0 0
7.08 0 0
7.12 0 0
7.16 0 0
7.2 0 0
7.24 0 0
7.28 0 0
7.32 0 0
7.36 0 0
7.4 0 0
7.44 0 0
7.48 0 0
7.52 0 0
7.56 0 0
7.6 0 0
7.64 0 0
7.68 0 0
7.72 0 0
7.76 0 0
7.8 0 0
7.84 0 0
7.88 0 0
7.92 0 0
7.96 0 0
8 0 0
8.04 0 0
8.08 0 0
8.12 0 0
8.16 0 0
8.2 0 0
8.24 0 0
8.28 0 0
8.32 0 0
8.36 0 0
8.4 0 0
8.44 0 0
8.48 0 0
8.52 0 0
8.56 0 0
8.6 0 0
8.64 0 0
8.68 0 0
8.72 0 0
8.76 0 0
8.8 0 0
8.84 0 0
8.88 0 0
8.92 0 0
8.96 0 0
9 0 0
9.04 0 0
9.08 0 0
9.12 0 0
9.16 0 0
9.2 0 0
9.24 0 0
9.28 0 0
9.32 0 0
9.36 0 0
9.4 0 0
9.44 0 0
9.48 0 0
9.52 0 0
9.56 0 0
9.6 0 0
9.64 0 0
9.68 0 0
9.72 0 0
9.76 0 0
9.8 0 0
9.84 0 0
9.88 0 0
9.92 0 0
9.96 0 0
10 0 0
10.04 0 0
10.08 0 0
10.12 0 0
10.16 0 0
10.2 0 0
10.24 0 0
10.28 0 0
10.32 0 0
10.36 0 0
10.4 0 0
10.44 0 0
10.48 0 0
10.52 0 0
10.56 0 0
10.6 0 0
10.64 0 0
10.68 0 0
10.72 0 0
10.76 0 0
10.8 0 0
10.84 0 0
10.88 0 0
10.92 0 0
10.96 0 0
11 0 0
11.04 0 0
11.08 0 0
11.12 0 0
11.16 0 0
11.2 0 0
11.24 0 0
11.28 0 0
11.32 0 0
11.36 0 0
11.4 0 0
11.44 0 0
11.48 0 0
11.52 0 0
11.56 0 0
11.6 0 0
11.64 0 0
11.68 0 0
11.72 0 0
11.76 0 0
11.8 0 0
11.84 0 0
11.88 0 0
11.92 0 0
11.96 0 0
12 0 0
12.04 0 0
12.08 0 0
12.12 0 0
12.16 0 0
12.2 0 0
12.24 0 0
12.28 0 0
12.32 0 0
12.36 0 0
12.4 0 0
12.44 0 0
12.48 0 0
12.52 0 0
12.56 0 0
12.6 0 0
12.64 0 0
12.68 0 0
12.72 0 0
12.76 0 0
12.8 0 0
12.84 0 0
12.88 0 0
12.92 0 0
12.96 0 0
13 0 0
13.04 0 0
13.08 0 0
13.12 0 0
13.16 0 0
13.2 0 0
13.24 0 0
13.28 0 0
13.32 0 0
13.36 0 0
13.4 0 0
13.44 0 0
13.48 0 0
13.52 0 0
13.56 0 0
13.6 0 0
13.64 0 0
13.68 0 0
13.72 0 0
13.76 0 0
13.8 0 0
13.84 0 0
13.88 0 0
13.92 0 0
13.96 0 0
14 0 0
14.04 0 0
14.08 0 0
14.12 0 0
14.16 0 0
14.2 0 0
14.24 0 0
14.28 0 0
14.32 0 0
14.36 0 0
14.4 0 0
14.44 0 0
14.48 0 0
14.52 0 0
14.56 0 0
14.6 0 0
14.64 0 0
14.68 0 0
14.72 0 0
14.76 0 0
14.8 0 0
14.84 0 0
14.88 0 0
14.92 0 0
14.96 0 0
15 0 0
15.04 0 0
15.08 0 0
15.12 0 0
15.16 0 0
15.2 0 0
15.24 0 0
15.28 0 0
15.32 0 0
15.36 0 0
15.4 0 0
15.44 0 0
15.48 0 0
15.52 0 0
15.56 0 0
15.6 0 0
15.64 0 0
15.68 0 0
15.72 0 0
15.76 0 0
15.8 0 0
15.84 0 0
15.88 0 0
15.92 0 0
15.96 0 0
16 0 0
16.04 0 0
16.08 0 0
16.12 0 0
16.16 0 0
16.2 0 0
16.24 0 0
16.28 0 0
16.32 0 0
16.36 0 0
16.4 0 0
16.44 0 0
16.48 0 0
16.52 0 0
16.56 0 0
16.6 0 0
16.64 0 0
16.68 0 0
16.72 0 0
16.76 0 0
16.8 0 0
16.84 0 0
16.88 0 0
16.92 0 0
16.96 0 0
17 0 0
17.04 0 0
17.08 0 0
17.12 0 0
17.16 0 0
17.2 0 0
17.24 0 0
17.28 0 0
17.32 0 0
17.36 0 0
17.4 0 0
17.44 0 0
17.48 0 0
17.52 0 0
17.56 0 0
17.6 0 0
17.64 0 0
17.68 0 0
17.72 0 0
17.76 0 0
17.8 0 0
17.84 0 0
17.88 0 0
17.92 0 0
17.96 0 0
18 0 0
18.04 0 0
18.08 0 0
18.12 0 0
18.16 0 0
18.2 0 0
18.24 0 0
18.28 0 0
18.32 0 0
18.36 0 0
18.4 0 0
18.44 0 0
18.48 0 0
18.52 0 0
18.56 0 0
18.6 0 0
18.64 0 0
18.68 0 0
18.72 0 0
18.76 0 0
18.8 0 0
18.84 0 0
18.88 0 0
18.92 0 0
18.96 0 0
19 0 0
19.04 0 0
19.08 0 0
19.12 0 0
19.16 0 0
19.2 0 0
19.24 0 0
19.28 0 0
19.32 0 0
19.36 0 0
19.4 0 0
19.44 0 0
19.48 0 0
19.52 0 0
19.56 0 0
19.6 0 0
19.64 0 0
19.68 0 0
19.72 0 0
19.76 0 0
19.8 0 0
19.84 0 0
19.88 0 0
19.92 0 0
19.96 0 0
20 0 0
20.04 0 0
20.08 0 0
20.12 0 0
20.16 0 0
20.2 0 0
20.24 0 0
20.28 0 0
20.32 0 0
20.36 0 0
20.4 0 0
20.44 0 0
20.48 0 0
20.52 0 0
20.56 0 0
20.6 0 0
20.64 0 0
20.68 0 0
20.72 0 0
20.76 0 0
20.8 0 0
20.84 0 0
20.88 0 0
20.92 0 0
20.96 0 0
21 0 0
21.04 0 0
21.08 0 0
21.12 0 0
21.16 0 0
21.2 0 0
21.24 0 0
21.28 0 0
21.32 0 0
21.36 0 0
21.4 0 0
21.44 0 0
21.48 0 0
21.52 0 0
21.56 0 0
21.6 0 0
21.64 0 0
21.68 0 0
21.72 0 0
21.76 0 0
21.8 0 0
21.84 0 0
21.88 0 0
21.92 0 0
21.96 0 0
22 0 0
22.04 0 0
22.08 0 0
22.12 0 0
22.16 0 0
22.2 0 0
22.24 0 0
22.28 0 0
22.32 0 0
22.36 0 0
22.4 0 0
22.44 0 0
22.48 0 0
22.52 0 0
22.56 0 0
22.6 0 0
22.64 0 0
22.68 0 0
22.72 0 0
22.76 0 0
22.8 0 0
22.84 0 0
22.88 0 0
22.92 0 0
22.96 0 0
23 0 0
23.04 0 0
23.08 0 0
23.12 0 0
23.16 0 0
23.2 0 0
23.24 0 0
23.28 0 0
23.32 0 0
23.36 0 0
23.4 0 0
23.44 0 0
23.48 0 0
23.52 0 0
23.56 0 0
23.6 0 0
23.64 0 0
23.68 0 0
23.72 0 0
23.76 0 0
23.8 0 0
23.84 0 0
23.88 0 0
23.92 0 0
23.96 0 0
24 0 0
24.04 0 0
24.08 0 0
24.12 0 0
24.16 0 0
24.2 0 0
24.24 0 0
24.28 0 0
24.32 0 0
24.36 0 0
24.4 0 0
24.44 0 0
24.48 0 0
24.52 0 0
24.56 0 0
24.6 0 0
24.64 0 0
24.68 0 0
24.72 0 0
24.76 0 0
24.8 0 0
24.84 0 0
24.88 0 0
24.92 0 0
24.96 0 0
25 0 0
25.04 0 0
25.08 0 0
25.12 0 0
25.16 0 0
25.2 0 0
25.24 0 0
25.28 0 0
25.32 0 0
25.36 0 0
25.4 0 0
25.44 0 0
25.48 0 0
25.52 0 0
25.56 0 0
25.6 0 0
25.64 0 0
25.68 0 0
25.72 0 0
25.76 0 0
25.8 0 0
25.84 0 0
25.88 0 0
25.92 0 0
25.96 0 0
26 0 0
26.04 0 0
26.08 0 0
26.12 0 0
26.16 0 0
26.2 0 0
26.24 0 0
26.28 0 0
26.32 0 0
26.36 0 0
26.4 0 0
26.44 0 0
26.48 0 0
26.52 0 0
26.56 0 0
26.6 0 0
26.64 0 0
26.68 0 0
26.72 0 0
26.76 0 0
26.8 0 0
26.84 0 0
26.88 0 0
26.92 0 0
26.96 0 0
27 0 0
27.04 0 0
27.08 0 0
27.12 0 0
27.16 0 0
27.2 0 0
27.24 0 0
27.28 0 0
27.32 0 0
27.36 0 0
27.4 0 0
27.44 0 0
27.48 0 0
27.52 0 0
27.56 0 0
27.6 0 0
27.64 0 0
27.68 0 0
27.72 0 0
27.76 0 0
27.8 0 0
27.84 0 0
27.88 0 0
27.92 0 0
27.96 0 0
28 0 0
28.04 0 0
28.08 0 0
28.12 0 0
28.16 0 0
28.2 0 0
28.24 0 0
28.28 0 0
28.32 0 0
28.36 0 0
28.4 0 0
28.44 0 0
28.48 0 0
28.52 0 0
28.56 0 0
28.6 0 0
28.64 0 0
28.68 0 0
28.72 0 0
28.76 0 0
28.8 0 0
28.84 0 0
28.88 0 0
28.92 0 0
28.96 0 0
29 0 0
29.04 0 0
29.08 0 0
29.12 0 0
29.16 0 0
29.2 0 0
29.24 0 0
29.28 0 0
29.32 0 0
29.36 0 0
29.4 0 0
29.44 0 0
29.48 0 0
29.52 0 0
29.56 0 0
29.6 0 0
29.64 0 0
29.68 0 0
29.72 0 0
29.76 0 0
29.8 0 0
29.84 0 0
29.88 0 0
29.92 0 0
29.96 0 0
30 0 0
30.04 0 0
30.08 0 0
30.12 0 0
30.16 0 0
30.2 0 0
30.24 0 0
30.28 0 0
30.32 0 0
30.36 0 0
30.4 0 0
30.44 0 0
30.48 0 0
30.52 0 0
30.56 0 0
30.6 0 0
30.64 0 0
30.68 0 0
30.72 0 0
30.76 0 0
30.8 0 0
30.84 0 0
30.88 0 0
30.92 0 0
30.96 0 0
31 0 0
31.04 0 0
31.08 0 0
31.12 0 0
31.16 0 0
31.2 0 0
31.24 0 0
31.28 0 0
31.32 0 0
31.36 0 0
31.4 0 0
31.44 0 0
31.48 0 0
31.52 0 0
31.56 0 0
31.6 0 0
31.64 0 0
31.68 0 0
31.72 0 0
31.76 0 0
31.8 0 0
31.84 0 0
31.88 0 0
31.92 0 0
31.96 0 0
0 0.005 0
0.04 0.005 0
0.08 0.005 0
0.12 0.005 0
0.16 0.005 0
0.2 0.005 0
0.24 0.005 0
0.28 0.005 0
0.32 0.005 0
0.36 0.005 0
0.4 0.005 0
0.44 0.005 0
0.48 0.005 0
0.52 0.005 0
0.56 0.005 0
0.6 0.005 0
0.64 0.005 0
0.68 0.005 0
0.72 0.005 0
0.76 0.005 0
0.8 0.005 0
0.84 0.005 0
0.88 0.005 0
0.92 0.005 0
0.96 0.005 0
1 0.005 0
1.04 0.005 0
1.08 0.005 0
1.12 0.005 0
1.16 0.005 0
1.2 0.005 0
1.24 0.005 0
1.28 0.005 0
1.32 0.005 0
1.36 0.005 0
1.4 0.005 0
1.44 0.005 0
1.48 0.005 0
1.52 0.005 0
1.56 0.005 0
1.6 0.005 0
1.64 0.005 0
1.68 0.005 0
1.72 0.005 0
1.76 0.005 0
1.8 0.005 0
1.84 0.005 0
1.88 0.005 0
1.92 0.005 0
1.96 0.005 0
2 0.005 0
2.04 0.005 0
2.08 0.005 0
2.12 0.005 0
2.16 0.005 0
2.2 0.005 0
2.24 0.005 0
2.28 0.005 0
2.32 0.005 0
2.36 0.005 0
2.4 0.005 0
2.44 0.005 0
2.48 0.005 0
2.52 0.005 0
2.56 0.005 0
2.6 0.005 0
2.64 0.005 0
2.68 0.005 0
2.72 0.005 0
2.76 0.005 0
2.8 0.005 0
2.84 0.005 0
2.88 0.005 0
2.92 0.005 0
2.96 0.005 0
3 0.005 0
3.04 0.005 0
3.08 0.005 0
3.12 0.005 0
3.16 0.005 0
3.2 0.005 0
3.24 0.005 0
3.28 0.005 0
3.32 0.005 0
3.36 0.005 0
3.4 0.005 0
3.44 0.005 0
3.48 0.005 0
3.52 0.005 0
3.56 0.005 0
3.6 0.005 0
3.64 0.005 0
3.68 0.005 0
3.72 0.005 0
3.76 0.005 0
3.8 0.005 0
3.84 0.005 0
3.88 0.005 0
3.92 0.005 0
3.96 0.005 0
4 0.005 0
4.04 0.005 0
4.08 0.005 0
4.12 0.005 0
4.16 0.005 0
4.2 0.005 0
4.24 0.005 0
4.28 0.005 0
4.32 0.005 0
4.36 0.005 0
4.4 0.005 0
4.44 0.005 0
4.48 0.005 0
4.52 0.005 0
4.56 0.005 0
4.6 0.005 0
4.64 0.005 0
4.68 0.005 0
4.72 0.005 0
4.76 0.005 0
4.8 0.005 0
4.84 0.005 0
4.88 0.005 0
4.92 0.005 0
4.96 0.005 0
5 0.005 0
5.04 0.005 0
5.08 0.005 0
5.12 0.005 0
5.16 0.005 0
5.2 0.005 0
5.24 0.005 0
5.28 0.005 0
5.32 0.005 0
5.36 0.005 0
5.4 0.005 0
5.44 0.005 0
5.48 0.005 0
5.52 0.005 0
5.56 0.005 0
5.6 0.005 0
5.64 0.005 0
5.68 0.005 0
5.72 0.005 0
5.76 0.005 0
5.8 0.005 0
5.84 0.005 0
5.88 0.005 0
5.92 0.005 0
5.96 0.005 0
6 0.005 0
6.04 0.005 0
6.08 0.005 0
6.12 0.005 0
6.16 0.005 0
6.2 0.005 0
6.24 0.005 0
6.28 0.005 0
6.32 0.005 0
6.36 0.005 0
6.4 0.005 0
6.44 0.005 0
6.48 0.005 0
6.52 0.005 0
6.56 0.005 0
6.6 0.005 0
6.64 0.005 0
6.68 0.005 0
6.72 0.005 0
6.76 0.005 0
6.8 0.005 0
6.84 0.005 0
6.88 0.005 0
6.92 0.005 0
6.96 0.005 0
7 0.005 0
7.04 0.005 0
7.08 0.005 0
7.12 0.005 0
7.16 0.005 0
7.2 0.005 0
7.24 0.005 0
7.28 0.005 0
7.32 0.005 0
7.36 0.005 0
7.4 0.005 0
[...]
POINT_DATA 160000

SCALARS u float 1
LOOKUP_TABLE default
-1
-0.483357
-0.183963
-0.108845
-0.0810326
-0.0668332
-0.0581176
-0.0521521
-0.0477768
-0.0444139
-0.0417406
-0.0395608
-0.0377475
-0.0362145
-0.0349007
-0.0337616
-0.0327639
-0.0318821
-0.0310965
-0.0303914
-0.0297544
-0.0291754
-0.0286462
-0.0281601
-0.0277115
-0.0272957
-0.0269089
-0.0265477
-0.0262093
-0.0258913
-0.0255918
-0.0253088
-0.025041
-0.0247868
-0.0245453
-0.0243152
-0.0240958
-0.0238862
-0.0236856
-0.0234935
-0.0233093
-0.0231324
-0.0229624
-0.0227987
-0.0226412
-0.0224893
-0.0223427
-0.0222012
-0.0220645
-0.0219323
-0.0218044
-0.0216805
-0.0215605
-0.0214442
-0.0213313
-0.0212218
-0.0211154
-0.0210121
-0.0209117
-0.020814
-0.020719
-0.0206265
-0.0205365
-0.0204487
-0.0203632
-0.0202799
-0.0201986
-0.0201193
-0.0200419
-0.0199663
-0.0198925
-0.0198204
-0.0197499
-0.0196811
-0.0196137
-0.0195478
-0.0194834
-0.0194203
-0.0193586
-0.0192981
-0.0192389
-0.0191809
-0.0191241
-0.0190684
-0.0190138
-0.0189602
-0.0189077
-0.0188562
-0.0188057
-0.0187561
-0.0187074
-0.0186596
-0.0186126
-0.0185666
-0.0185213
-0.0184768
-0.0184331
-0.0183902
-0.0183479
-0.0183064
-0.0182656
-0.0182255
-0.018186
-0.0181472
-0.018109
-0.0180714
-0.0180345
-0.0179981
-0.0179622
-0.017927
-0.0178922
-0.017858
-0.0178244
-0.0177912
-0.0177585
-0.0177263
-0.0176946
-0.0176633
-0.0176325
-0.0176022
-0.0175723
-0.0175428
-0.0175137
-0.017485
-0.0174567
-0.0174288
-0.0174013
-0.0173742
-0.0173475
-0.0173211
-0.017295
-0.0172693
-0.017244
-0.017219
-0.0171943
-0.0171699
-0.0171458
-0.0171221
-0.0170987
-0.0170755
-0.0170527
-0.0170301
-0.0170078
-0.0169858
-0.0169641
-0.0169426
-0.0169215
-0.0169005
-0.0168798
-0.0168594
-0.0168392
-0.0168193
-0.0167996
-0.0167801
-0.0167609
-0.0167419
-0.0167231
-0.0167045
-0.0166862
-0.0166681
-0.0166501
-0.0166324
-0.0166149
-0.0165976
-0.0165805
-0.0165636
-0.0165469
-0.0165303
-0.016514
-0.0164978
-0.0164818
-0.016466
-0.0164504
-0.0164349
-0.0164196
-0.0164045
-0.0163896
-0.0163748
-0.0163601
-0.0163457
-0.0163314
-0.0163172
-0.0163032
-0.0162894
-0.0162757
-0.0162621
-0.0162487
-0.0162354
-0.0162223
-0.0162093
-0.0161965
-0.0161838
-0.0161712
-0.0161587
-0.0161464
-0.0161342
-0.0161222
-0.0161103
-0.0160985
-0.0160868
-0.0160752
-0.0160638
-0.0160525
-0.0160413
-0.0160302
-0.0160192
-0.0160083
-0.0159976
-0.015987
-0.0159764
-0.015966
-0.0159557
-0.0159455
-0.0159354
-0.0159254
-0.0159156
-0.0159058
-0.0158961
-0.0158865
-0.0158771
-0.0158677
-0.0158584
-0.0158493
-0.0158402
-0.0158313
-0.0158224
-0.0158136
-0.015805
-0.0157964
-0.015788
-0.0157796
-0.0157714
-0.0157632
-0.0157552
-0.0157472
-0.0157393
-0.0157316
-0.0157239
-0.0157164
-0.015709
-0.0157016
-0.0156944
-0.0156872
-0.0156802
-0.0156732
-0.0156664
-0.0156597
-0.015653
-0.0156465
-0.0156401
-0.0156337
-0.0156275
-0.0156214
-0.0156154
-0.0156094
-0.0156036
-0.0155979
-0.0155923
-0.0155867
-0.0155813
-0.015576
-0.0155708
-0.0155656
-0.0155606
-0.0155556
-0.0155508
-0.015546
-0.0155414
-0.0155368
-0.0155323
-0.015528
-0.0155237
-0.0155195
-0.0155153
-0.0155113
-0.0155074
-0.0155035
-0.0154998
-0.0154961
-0.0154925
-0.015489
-0.0154856
-0.0154822
-0.0154789
-0.0154758
-0.0154726
-0.0154696
-0.0154666
-0.0154638
-0.015461
-0.0154582
-0.0154555
-0.0154529
-0.0154504
-0.015448
-0.0154456
-0.0154432
-0.015441
-0.0154388
-0.0154366
-0.0154346
-0.0154325
-0.0154306
-0.0154287
-0.0154268
-0.015425
-0.0154233
-0.0154216
-0.01542
-0.0154184
-0.0154169
-0.0154154
-0.0154139
-0.0154125
-0.0154112
-0.0154099
-0.0154086
-0.0154074
-0.0154062
-0.0154051
-0.015404
-0.0154029
-0.0154019
-0.0154009
-0.0153999
-0.015399
-0.0153981
-0.0153972
-0.0153964
-0.0153956
-0.0153948
-0.015394
-0.0153933
-0.0153926
-0.0153919
-0.0153913
-0.0153906
-0.01539
-0.0153894
-0.0153888
-0.0153883
-0.0153877
-0.0153872
-0.0153867
-0.0153862
-0.0153857
-0.0153853
-0.0153848
-0.0153844
-0.015384
-0.0153836
-0.0153832
-0.0153828
-0.0153824
-0.015382
-0.0153816
-0.0153813
-0.0153809
-0.0153806
-0.0153802
-0.0153799
-0.0153796
-0.0153793
-0.0153789
-0.0153786
-0.0153783
-0.015378
-0.0153777
-0.0153774
-0.0153771
-0.0153767
-0.0153764
-0.0153761
-0.0153758
-0.0153755
-0.0153752
-0.0153749
-0.0153746
-0.0153743
-0.015374
-0.0153737
-0.0153734
-0.0153731
-0.0153728
-0.0153725
-0.0153722
-0.0153719
-0.0153716
-0.0153713
-0.015371
-0.0153707
-0.0153704
-0.0153701
-0.0153698
-0.0153695
-0.0153692
-0.0153689
-0.0153686
-0.0153683
-0.015368
-0.0153677
-0.0153674
-0.0153671
-0.0153667
-0.0153664
-0.0153661
-0.0153658
-0.0153655
-0.0153652
-0.0153649
-0.0153646
-0.0153643
-0.015364
-0.0153637
-0.0153634
-0.0153631
-0.0153628
-0.0153625
-0.0153622
-0.0153619
-0.0153616
-0.0153613
-0.015361
-0.0153607
-0.0153604
-0.0153601
-0.0153598
-0.0153595
-0.0153592
-0.0153589
-0.0153586
-0.0153583
-0.015358
-0.0153577
-0.0153574
-0.0153571
-0.0153568
-0.0153565
-0.0153562
-0.0153559
-0.0153556
-0.0153552
-0.0153549
-0.0153546
-0.0153543
-0.015354
-0.0153537
-0.0153534
-0.0153531
-0.0153528
-0.0153525
-0.0153522
-0.0153519
-0.0153516
-0.0153513
-0.015351
-0.0153507
-0.0153504
-0.0153501
-0.0153498
-0.0153495
-0.0153492
-0.0153489
-0.0153486
-0.0153483
-0.015348
-0.0153477
-0.0153474
-0.0153471
-0.0153468
-0.0153465
-0.0153462
-0.0153459
-0.0153456
-0.0153453
-0.015345
-0.0153447
-0.0153444
-0.0153441
-0.0153437
-0.0153434
-0.0153431
-0.0153428
-0.0153425
-0.0153422
-0.0153419
-0.0153416
-0.0153413
-0.015341
-0.0153407
-0.0153404
-0.0153401
-0.0153398
-0.0153395
-0.0153392
-0.0153389
-0.0153386
-0.0153383
-0.015338
-0.0153377
-0.0153374
-0.0153371
-0.0153368
-0.0153365
-0.0153362
-0.0153359
-0.0153356
-0.0153353
-0.015335
-0.0153347
-0.0153344
-0.0153341
-0.0153338
-0.0153335
-0.0153332
-0.0153329
-0.0153326
-0.0153323
-0.0153319
-0.0153316
-0.0153313
-0.015331
-0.0153307
-0.0153304
-0.0153301
-0.0153298
-0.0153295
-0.0153292
-0.0153289
-0.0153286
-0.0153283
-0.015328
-0.0153277
-0.0153274
-0.0153271
-0.0153268
-0.0153265
-0.0153262
-0.0153259
-0.0153256
-0.0153253
-0.015325
-0.0153247
-0.0153244
-0.0153241
-0.0153238
-0.0153235
-0.0153232
-0.0153229
-0.0153226
-0.0153223
-0.015322
-0.0153217
-0.0153214
-0.0153211
-0.0153208
-0.0153205
-0.0153202
-0.0153198
-0.0153195
-0.0153192
-0.0153189
-0.0153186
-0.0153183
-0.015318
-0.0153177
-0.0153174
-0.0153171
-0.0153168
-0.0153165
-0.0153162
-0.0153159
-0.0153156
-0.0153153
-0.015315
-0.0153147
-0.0153144
-0.0153141
-0.0153138
-0.0153135
-0.0153132
-0.0153129
-0.0153126
-0.0153123
-0.015312
-0.0153117
-0.0153114
-0.0153111
-0.0153108
-0.0153105
-0.0153102
-0.0153099
-0.0153096
-0.0153093
-0.015309
-0.0153087
-0.0153084
-0.0153081
-0.0153077
-0.0153074
-0.0153071
-0.0153068
-0.0153065
-0.0153062
-0.0153059
-0.0153056
-0.0153053
-0.015305
-0.0153047
-0.0153044
-0.0153041
-0.0153038
-0.0153035
-0.0153032
-0.0153029
-0.0153026
-0.0153023
-0.015302
-0.0153017
-0.0153014
-0.0153011
-0.0153008
-0.0153005
-0.0153002
-0.0152999
-0.0152996
-0.0152993
-0.015299
-0.0152987
-0.0152984
-0.0152981
-0.0152978
-0.0152975
-0.0152972
-0.0152969
-0.0152966
-0.0152963
-0.015296
-0.0152957
-0.0152953
-0.015295
-0.0152947
-0.0152944
-0.0152941
-0.0152938
-0.0152935
-0.0152932
-0.0152929
-0.0152926
-0.0152923
-0.015292
-0.0152917
-0.0152914
-0.0152911
-0.0152908
-0.0152905
-0.0152902
-0.0152899
-0.0152896
-0.0152893
-0.015289
-0.0152887
-0.0152884
-0.0152881
-0.0152878
-0.0152875
-0.0152872
-0.0152869
-0.0152866
-0.0152863
-0.015286
-0.0152857
-0.0152854
-0.0152851
-0.0152848
-0.0152845
-0.0152842
-0.0152839
-0.0152836
-0.0152833
-0.0152829
-0.0152826
-0.0152823
-0.015282
-0.0152817
-0.0152814
-0.0152811
-0.0152808
-0.0152805
-0.0152802
-0.0152799
-0.0152796
-0.0152793
-0.015279
-0.0152787
-0.0152784
-0.0152781
-0.0152778
-0.0152775
-0.0152772
-0.0152769
-0.0152766
-0.0152763
-0.015276
-0.0152757
-0.0152754
-0.0152751
-0.0152748
-0.0152745
-0.0152742
-0.0152739
-0.0152736
-0.0152733
-0.015273
-0.0152727
-0.0152724
-0.0152721
-0.0152718
-0.0152715
-0.0152712
-0.0152709
-0.0152706
-0.0152702
-0.0152699
-0.0152696
-0.0152693
-0.015269
-0.0152687
-0.0152684
-0.0152681
-0.0152678
-0.0152675
-0.0152672
-0.0152669
-0.0152666
-0.0152663
-0.015266
-0.0152657
-0.0152654
-0.0152651
-0.0152648
-0.0152645
-0.0152642
-0.0152639
-0.0152636
-0.0152633
-0.015263
-0.0152627
-0.0152624
-0.0152621
-0.0152618
-0.0152615
-0.0152612
-0.0152609
-0.0152606
-0.0152603
-0.01526
-0.0152597
-0.0152594
-0.0152591
-0.0152588
-0.0152585
-0.0152582
-0.0152579
-0.0152576
-0.0152572
-0.0152569
-0.0152566
-0.0152563
-0.015256
-0.0152557
-0.0152554
-0.0152551
-0.0152548
-0.0152545
-0.0152542
-0.0152539
-0.0152536
-0.0152533
-0.015253
-0.0152527
-0.0152523
-0.015252
-0.0152517
-0.0152514
-0.015251
-0.0152507
-0.0152503
-0.0152499
-0.0152495
-0.0152491
-0.0152487
-0.0152482
-0.0152476
-0.0152469
-0.0152463
-0.0152452
-0.0152448
-0.0152448
-0.0152448
1
0.483357
0.183963
0.108845
0.0810326
0.0668332
0.0581176
0.0521521
0.0477768
0.0444139
0.0417406
0.0395608
0.0377475
0.0362145
0.0349007
0.0337616
0.0327639
0.0318821
0.0310965
0.0303914
0.0297544
0.0291754
0.0286462
0.0281601
0.0277115
0.0272957
0.0269089
0.0265477
0.0262093
0.0258913
0.0255918
0.0253088
0.025041
0.0247868
0.0245453
0.0243152
0.0240958
0.0238862
0.0236856
0.0234935
0.0233093
0.0231324
0.0229624
0.0227987
0.0226412
0.0224893
0.0223427
0.0222012
0.0220645
0.0219323
0.0218044
0.0216805
0.0215605
0.0214442
0.0213313
0.0212218
0.0211154
0.0210121
0.0209117
0.020814
0.020719
0.0206265
0.0205365
0.0204487
0.0203632
0.0202799
0.0201986
0.0201193
0.0200419
0.0199663
0.0198925
0.0198204
0.0197499
0.0196811
0.0196137
0.0195478
0.0194834
0.0194203
0.0193586
0.0192981
0.0192389
0.0191809
0.0191241
0.0190684
0.0190138
0.0189602
0.0189077
0.0188562
0.0188057
0.0187561
0.0187074
0.0186596
0.0186126
0.0185666
0.0185213
0.0184768
0.0184331
0.0183902
0.0183479
0.0183064
0.0182656
0.0182255
0.018186
0.0181472
0.018109
0.0180714
0.0180345
0.0179981
0.0179622
0.017927
0.0178922
0.017858
0.0178244
0.0177912
0.0177585
0.0177263
0.0176946
0.0176633
0.0176325
0.0176022
0.0175723
0.0175428
0.0175137
0.017485
0.0174567
0.0174288
0.0174013
0.0173742
0.0173475
0.0173211
0.017295
0.0172693
0.017244
0.017219
0.0171943
0.0171699
0.0171458
0.0171221
0.0170987
0.0170755
0.0170527
0.0170301
0.0170078
0.0169858
0.0169641
0.0169426
0.0169215
0.0169005
0.0168798
0.0168594
0.0168392
0.0168193
0.0167996
0.0167801
0.0167609
0.0167419
0.0167231
0.0167045
0.0166862
0.0166681
0.0166501
0.0166324
0.0166149
0.0165976
0.0165805
0.0165636
0.0165469
0.0165303
0.016514
0.0164978
0.0164818
0.016466
0.0164504
0.0164349
0.0164196
0.0164045
0.0163896
0.0163748
0.0163601
0.0163457
0.0163314
0.0163172
0.0163032
0.0162894
0.0162757
0.0162621
0.0162487
0.0162354
0.0162223
0.0162093
0.0161965
0.0161838
0.0161712
0.0161587
0.0161464
0.0161342
0.0161222
0.0161103
0.0160985
0.0160868
0.0160752
0.0160638
0.0160525
0.0160413
0.0160302
0.0160192
0.0160083
0.0159976
0.015987
0.0159764
0.015966
0.0159557
0.0159455
0.0159354
0.0159254
0.0159156
0.0159058
0.0158961
0.0158865
0.0158771
0.0158677
0.0158584
0.0158493
0.0158402
0.0158313
0.0158224
0.0158136
0.015805
0.0157964
0.015788
0.0157796
0.0157714
0.0157632
0.0157552
0.0157472
0.0157393
0.0157316
0.0157239
0.0157164
0.015709
0.0157016
0.0156944
0.0156872
0.0156802
0.0156732
0.0156664
0.0156597
0.015653
0.0156465
0.0156401
0.0156337
0.0156275
0.0156214
0.0156154
0.0156094
0.0156036
0.0155979
0.0155923
0.0155867
0.0155813
0.015576
0.0155708
0.0155656
0.0155606
0.0155556
0.0155508
0.015546
0.0155414
0.0155368
0.0155323
0.015528
0.0155237
0.0155195
0.0155153
0.0155113
0.0155074
0.0155035
0.0154998
0.0154961
0.0154925
0.015489
0.0154856
0.0154822
0.0154789
0.0154758
0.0154726
0.0154696
0.0154666
0.0154638
0.015461
0.0154582
0.0154555
0.0154529
0.0154504
0.015448
0.0154456
0.0154432
0.015441
0.0154388
0.0154366
0.0154346
0.0154325
0.0154306
0.0154287
0.0154268
0.015425
0.0154233
0.0154216
0.01542
0.0154184
0.0154169
0.0154154
0.0154139
0.0154125
0.0154112
0.0154099
0.0154086
0.0154074
0.0154062
0.0154051
0.015404
0.0154029
0.0154019
0.0154009
0.0153999
0.015399
0.0153981
0.0153972
0.0153964
0.0153956
0.0153948
0.015394
0.0153933
0.0153926
0.0153919
0.0153913
0.0153906
0.01539
0.0153894
0.0153888
0.0153883
0.0153877
0.0153872
0.0153867
0.0153862
0.0153857
0.0153853
0.0153848
0.0153844
0.015384
0.0153836
0.0153832
0.0153828
0.0153824
0.015382
0.0153816
0.0153813
0.0153809
0.0153806
0.0153802
0.0153799
0.0153796
0.0153793
0.0153789
0.0153786
0.0153783
0.015378
0.0153777
0.0153774
0.0153771
0.0153767
0.0153764
0.0153761
0.0153758
0.0153755
0.0153752
0.0153749
0.0153746
0.0153743
0.015374
0.0153737
0.0153734
0.0153731
0.0153728
0.0153725
0.0153722
0.0153719
0.0153716
0.0153713
0.015371
0.0153707
0.0153704
0.0153701
0.0153698
0.0153695
0.0153692
0.0153689
0.0153686
0.0153683
0.015368
0.0153677
0.0153674
0.0153671
0.0153667
0.0153664
0.0153661
0.0153658
0.0153655
0.0153652
0.0153649
0.0153646
0.0153643
0.015364
0.0153637
0.0153634
0.0153631
0.0153628
0.0153625
0.0153622
0.0153619
0.0153616
0.0153613
0.015361
0.0153607
0.0153604
0.0153601
0.0153598
0.0153595
0.0153592
0.0153589
0.0153586
0.0153583
0.015358
0.0153577
0.0153574
0.0153571
0.0153568
0.0153565
0.0153562
0.0153559
0.0153556
0.0153552
0.0153549
0.0153546
0.0153543
0.015354
0.0153537
0.0153534
0.0153531
0.0153528
0.0153525
0.0153522
0.0153519
0.0153516
0.0153513
0.015351
0.0153507
0.0153504
0.0153501
0.0153498
0.0153495
0.0153492
0.0153489
0.0153486
0.0153483
0.015348
0.0153477
0.0153474
0.0153471
0.0153468
0.0153465
0.0153462
0.0153459
0.0153456
0.0153453
0.015345
0.0153447
0.0153444
0.0153441
0.0153437
0.0153434
0.0153431
0.0153428
0.0153425
0.0153422
0.0153419
0.0153416
0.0153413
0.015341
0.0153407
0.0153404
0.0153401
0.0153398
0.0153395
0.0153392
0.0153389
0.0153386
0.0153383
0.015338
0.0153377
0.0153374
0.0153371
0.0153368
0.0153365
0.0153362
0.0153359
0.0153356
0.0153353
0.015335
0.0153347
0.0153344
0.0153341
0.0153338
0.0153335
0.0153332
0.0153329
0.0153326
0.0153323
0.0153319
0.0153316
0.0153313
0.015331
0.0153307
0.0153304
0.0153301
0.0153298
0.0153295
0.0153292
0.0153289
0.0153286
0.0153283
0.015328
0.0153277
0.0153274
0.0153271
0.0153268
0.0153265
0.0153262
0.0153259
0.0153256
0.0153253
0.015325
0.0153247
0.0153244
0.0153241
0.0153238
0.0153235
0.0153232
0.0153229
0.0153226
0.0153223
0.015322
0.0153217
0.0153214
0.0153211
0.0153208
0.0153205
0.0153202
0.0153198
0.0153195
0.0153192
0.0153189
0.0153186
0.0153183
0.015318
0.0153177
0.0153174
0.0153171
0.0153168
0.0153165
0.0153162
0.0153159
0.0153156
0.0153153
0.015315
0.0153147
0.0153144
0.0153141
0.0153138
0.0153135
0.0153132
0.0153129
0.0153126
0.0153123
0.015312
0.0153117
0.0153114
0.0153111
0.0153108
0.0153105
0.0153102
0.0153099
0.0153096
0.0153093
0.015309
0.0153087
0.0153084
0.0153081
0.0153077
0.0153074
0.0153071
0.0153068
0.0153065
0.0153062
0.0153059
0.0153056
0.0153053
0.015305
0.0153047
0.0153044
0.0153041
0.0153038
0.0153035
0.0153032
0.0153029
0.0153026
0.0153023
0.015302
0.0153017
0.0153014
0.0153011
0.0153008
0.0153005
0.0153002
0.0152999
0.0152996
0.0152993
0.015299
0.0152987
0.0152984
0.0152981
0.0152978
0.0152975
0.0152972
0.0152969
0.0152966
0.0152963
0.015296
0.0152957
0.0152953
0.015295
0.0152947
0.0152944
0.0152941
0.0152938
0.0152935
0.0152932
0.0152929
0.0152926
0.0152923
0.015292
0.0152917
0.0152914
0.0152911
0.0152908
0.0152905
0.0152902
0.0152899
0.0152896
0.0152893
0.015289
0.0152887
0.0152884
0.0152881
0.0152878
0.0152875
0.0152872
0.0152869
0.0152866
0.0152863
0.015286
0.0152857
0.0152854
0.0152851
0.0152848
0.0152845
0.0152842
0.0152839
0.0152836
0.0152833
0.0152829
0.0152826
0.0152823
0.015282
0.0152817
0.0152814
0.0152811
0.0152808
0.0152805
0.0152802
0.0152799
0.0152796
0.0152793
0.015279
0.0152787
0.0152784
0.0152781
0.0152778
0.0152775
0.0152772
0.0152769
0.0152766
0.0152763
0.015276
0.0152757
0.0152754
0.0152751
0.0152748
0.0152745
0.0152742
0.0152739
0.0152736
0.0152733
0.015273
0.0152727
0.0152724
0.0152721
0.0152718
0.0152715
0.0152712
0.0152709
0.0152706
0.0152702
0.0152699
0.0152696
0.0152693
0.015269
0.0152687
0.0152684
0.0152681
0.0152678
0.0152675
0.0152672
0.0152669
0.0152666
0.0152663
0.015266
0.0152657
0.0152654
0.0152651
0.0152648
0.0152645
0.0152642
0.0152639
0.0152636
0.0152633
0.015263
0.0152627
0.0152624
0.0152621
0.0152618
0.0152615
0.0152612
0.0152609
0.0152606
0.0152603
0.01526
0.0152597
0.0152594
0.0152591
0.0152588
0.0152585
0.0152582
0.0152579
0.0152576
0.0152572
0.0152569
0.0152566
0.0152563
0.015256
0.0152557
0.0152554
0.0152551
0.0152548
0.0152545
0.0152542
0.0152539
0.0152536
0.0152533
0.015253
0.0152527
0.0152523
0.015252
0.0152517
0.0152514
0.015251
0.0152507
0.0152503
0.0152499
0.0152495
0.0152491
0.0152487
0.0152482
0.0152476
0.0152469
0.0152463
0.0152452
0.0152448
0.0152448
0.0152448
1
0.969191
0.495616
0.314222
0.237896
0.197395
0.172132
0.154695
0.141841
0.131927
0.124026
0.117572
0.112195
0.107644
0.10374
0.100353
0.0973842
0.0947597
0.0924208
0.0903214
0.0884246
0.0867006
0.0851251
0.0836781
0.0823429
0.0811058
0.079955
0.0788808
0.0778748
0.0769298
0.0760397
0.0751991
0.0744036
0.0736491
0.0729321
0.0722494
0.0715984
0.0709766
0.0703819
0.0698123
0.0692662
0.0687418
0.0682379
0.067753
0.0672862
0.0668362
0.0664021
0.0659831
0.0655782
0.0651867
0.064808
0.0644413
0.064086
0.0637417
0.0634077
0.0630835
0.0627688
0.062463
0.0621658
0.0618769
0.0615957
0.0613221
0.0610557
0.0607962
0.0605432
0.0602967
0.0600563
0.0598217
0.0595927
0.0593693
0.059151
0.0589378
0.0587294
0.0585257
0.0583266
0.0581318
0.0579412
0.0577548
0.0575722
0.0573935
0.0572184
0.057047
0.0568789
0.0567143
0.0565528
0.0563946
0.0562393
0.0560871
0.0559377
0.0557911
0.0556472
0.0555059
0.0553672
0.055231
0.0550972
0.0549658
0.0548366
0.0547097
0.054585
0.0544623
0.0543418
0.0542232
0.0541066
0.0539919
0.053879
0.053768
0.0536587
0.0535512
0.0534454
0.0533412
0.0532386
0.0531375
0.053038
0.0529401
0.0528435
0.0527484
0.0526547
0.0525624
0.0524714
0.0523818
0.0522934
0.0522063
0.0521204
0.0520357
0.0519522
0.0518698
0.0517886
0.0517085
0.0516295
0.0515516
0.0514747
0.0513988
0.0513239
0.05125
0.0511771
0.0511052
0.0510341
0.050964
0.0508948
0.0508265
0.050759
0.0506924
0.0506266
0.0505617
0.0504975
0.0504342
0.0503716
0.0503098
0.0502488
0.0501885
0.0501289
0.05007
0.0500119
0.0499544
0.0498977
0.0498415
0.0497861
0.0497313
0.0496772
0.0496236
0.0495708
0.0495185
0.0494668
0.0494157
0.0493652
0.0493153
0.0492659
0.0492171
0.0491688
0.0491211
0.0490739
0.0490273
0.0489812
0.0489356
0.0488904
0.0488458
0.0488017
0.0487581
0.0487149
0.0486722
0.04863
0.0485882
0.0485469
0.048506
0.0484656
0.0484256
0.0483861
0.0483469
0.0483082
0.0482699
0.048232
0.0481945
0.0481574
0.0481207
0.0480844
0.0480484
0.0480129
0.0479777
0.0479429
0.0479084
0.0478743
0.0478406
0.0478072
0.0477741
0.0477415
0.0477091
0.0476771
0.0476454
0.047614
0.047583
0.0475523
0.0475219
0.0474919
0.0474621
0.0474327
0.0474036
0.0473748
0.0473463
0.0473181
0.0472902
0.0472626
0.0472353
0.0472084
0.0471817
0.0471553
0.0471293
0.0471035
0.047078
0.0470528
0.047028
0.0470034
0.0469791
0.0469551
0.0469315
0.0469081
0.046885
0.0468623
0.0468398
0.0468176
0.0467958
0.0467742
0.046753
0.046732
0.0467114
0.046691
0.046671
0.0466512
0.0466318
0.0466127
0.0465938
0.0465753
0.0465571
0.0465391
0.0465215
0.0465042
0.0464871
0.0464704
0.046454
0.0464378
0.046422
0.0464064
0.0463911
0.0463761
0.0463614
0.046347
0.0463328
0.046319
0.0463054
0.0462921
0.046279
0.0462663
0.0462538
0.0462415
0.0462295
0.0462178
0.0462064
0.0461952
0.0461842
0.0461735
0.0461631
0.0461529
0.0461429
0.0461332
0.0461237
0.0461144
0.0461054
0.0460966
0.046088
0.0460796
0.0460714
0.0460635
0.0460558
0.0460482
0.0460409
0.0460338
0.0460268
0.0460201
0.0460135
0.0460072
0.046001
0.045995
0.0459891
0.0459835
0.045978
0.0459726
0.0459674
0.0459624
0.0459575
0.0459528
0.0459482
0.0459438
0.0459395
0.0459354
0.0459314
0.0459275
0.0459237
0.04592
0.0459165
0.0459131
0.0459098
0.0459066
0.0459036
0.0459006
0.0458977
0.0458949
0.0458922
0.0458896
0.0458871
0.0458847
0.0458824
0.0458801
0.0458779
0.0458758
0.0458738
0.0458718
0.0458699
0.0458681
0.0458663