# vtk DataFile Version 2.0
FlowField
ASCII
DATASET STRUCTURED_GRID
DIMENSIONS 800 1 200
POINTS 160000 float
0 0 0
0.04 0 0
0.08 0 0
0.12 0 0
0.16 0 0
0.2 0 0
0.24 0 0
0.28 0 0
0.32 0 0
0.36 0 0
0.4 0 0
0.44 0 0
0.48 0 0
0.52 0 0
0.56 0 0
0.6 0 0
0.64 0 0
0.68 0 0
0.72 0 0
0.76 0 0
0.8 0 0
0.84 0 0
0.88 0 0
0.92 0 0
0.96 0 0
1 0 0
1.04 0 0
1.08 0 0
1.12 0 0
1.16 0 0
1.2 0 0
1.24 0 0
1.28 0 0
1.32 0 0
1.36 0 0
1.4 0 0
1.44 0 0
1.48 0 0
1.52 0 0
1.56 0 0
1.6 0 0
1.64 0 0
1.68 0 0
1.72 0 0
1.76 0 0
1.8 0 0
1.84 0 0
1.88 0 0
1.92 0 0
1.96 0 0
2 0 0
2.04 0 0
2.08 0 0
2.12 0 0
2.16 0 0
2.2 0 0
2.24 0 0
2.28 0 0
2.32 0 0
2.36 0 0
2.4 0 0
2.44 0 0
2.48 0 0
2.52 0 0
2.56 0 0
2.6 0 0
2.64 0 0
2.68 0 0
2.72 0 0
2.76 0 0
2.8 0 0
2.84 0 0
2.88 0 0
2.92 0 0
2.96 0 0
3 0 0
3.04 0 0
3.08 0 0
3.12 0 0
3.16 0 0
3.2 0 0
3.24 0 0
3.28 0 0
3.32 0 0
3.36 0 0
3.4 0 0
3.44 0 0
3.48 0 0
3.52 0 0
3.56 0 0
3.6 0 0
3.64 0 0
3.68 0 0
3.72 0 0
3.76 0 0
3.8 0 0
3.84 0 0
3.88 0 0
3.92 0 0
3.96 0 0
4 0 0
4.04 0 0
4.08 0 0
4.12 0 0
4.16 0 0
4.2 0 0
4.24 0 0
4.28 0 0
4.32 0 0
4.36 0 0
4.4 0 0
4.44 0 0
4.48 0 0
4.52 0 0
4.56 0 0
4.6 0 0
4.64 0 0
4.68 0 0
4.72 0 0
4.76 0 0
4.8 0 0
4.84 0 0
4.88 0 0
4.92 0 0
4.96 0 0
5 0 0
5.04 0 0
5.08 0 0
5.12 0 0
5.16 0 0
5.2 0 0
5.24 0 0
5.28 0 0
5.32 0 0
5.36 0 0
5.4 0 0
5.44 0 0
5.48 0 0
5.52 0 0
5.56 0 0
5.6 0 0
5.64 0 0
5.68 0 0
5.72 0 0
5.76 0 0
5.8 0 0
5.84 0 0
5.88 0 0
5.92 0 0
5.96 0 0
6 0 0
6.04 0 0
6.08 0 0
6.12 0 0
6.16 0 0
6.2 0 0
6.24 0 0
6.28 0 0
6.32 0 0
6.36 0 0
6.4 0 0
6.44 0 0
6.48 0 0
6.52 0 0
6.56 0 0
6.6 0 0
6.64 0 0
6.68 0 0
6.72 0 0
6.76 0 0
6.8 0 0
6.84 0 0
6.88 0 0
6.92 0 0
6.96 0 0
7 0 0
7.04 0 0
7.08 0 0
7.12 0 0
7.16 0 0
7.2 0 0
7.24 0 0
7.28 0 0
7.32 0 0
7.36 0 0
7.4 0 0
7.44 0 0
7.48 0 0
7.52 0 0
7.56 0 0
7.6 0 0
7.64 0 0
7.68 0 0
7.72 0 0
7.76 0 0
7.8 0 0
7.84 0 0
7.88 0 0
7.92 0 0
7.96 0 0
8 0 0
8.04 0 0
8.08 0 0
8.12 0 0
8.16 0 0
8.2 0 0
8.24 0 0
8.28 0 0
8.32 0 0
8.36 0 0
8.4 0 0
8.44 0 0
8.48 0 0
8.52 0 0
8.56 0 0
8.6 0 0
8.64 0 0
8.68 0 0
8.72 0 0
8.76 0 0
8.8 0 0
8.84 0 0
8.88 0 0
8.92 0 0
8.96 0 0
9 0 0
9.04 0 0
9.08 0 0
9.12 0 0
9.16 0 0
9.2 0 0
9.24 0 0
9.28 0 0
9.32 0 0
9.36 0 0
9.4 0 0
9.44 0 0
9.48 0 0
9.52 0 0
9.56 0 0
9.6 0 0
9.64 0 0
9.68 0 0
9.72 0 0
9.76 0 0
9.8 0 0
9.84 0 0
9.88 0 0
9.92 0 0
9.96 0 0
10 0 0
10.04 0 0
10.08 0 0
10.12 0 0
10.16 0 0
10.2 0 0
10.24 0 0
10.28 0 0
10.32 0 0
10.36 0 0
10.4 0 0
10.44 0 0
10.48 0 0
10.52 0 0
10.56 0 0
10.6 0 0
10.64 0 0
10.68 0 0
10.72 0 0
10.76 0 0
10.8 0 0
10.84 0 0
10.88 0 0
10.92 0 0
10.96 0 0
11 0 0
11.04 0 0
11.08 0 0
11.12 0 0
11.16 0 0
11.2 0 0
11.24 0 0
11.28 0 0
11.32 0 0
11.36 0 0
11.4 0 0
11.44 0 0
11.48 0 0
11.52 0 0
11.56 0 0
11.6 0 0
11.64 0 0
11.68 0 0
11.72 0 0
11.76 0 0
11.8 0 0
11.84 0 0
11.88 0 0
11.92 0 0
11.96 0 0
12 0 0
12.04 0 0
12.08 0 0
12.12 0 0
12.16 0 0
12.2 0 0
12.24 0 0
12.28 0 0
12.32 0 0
12.36 0 0
12.4 0 0
12.44 0 0
12.48 0 0
12.52 0 0
12.56 0 0
12.6 0 0
12.64 0 0
12.68 0 0
12.72 0 0
12.76 0 0
12.8 0 0
12.84 0 0
12.88 0 0
12.92 0 0
12.96 0 0
13 0 0
13.04 0 0
13.08 0 0
13.12 0 0
13.16 0 0
13.2 0 0
13.24 0 0
13.28 0 0
13.32 0 0
13.36 0 0
13.4 0 0
13.44 0 0
13.48 0 0
13.52 0 0
13.56 0 0
13.6 0 0
13.64 0 0
13.68 0 0
13.72 0 0
13.76 0 0
13.8 0 0
13.84 0 0
13.88 0 0
13.92 0 0
13.96 0 0
14 0 0
14.04 0 0
14.08 0 0
14.12 0 0
14.16 0 0
14.2 0 0
14.24 0 0
14.28 0 0
14.32 0 0
14.36 0 0
14.4 0 0
14.44 0 0
14.48 0 0
14.52 0 0
14.56 0 0
14.6 0 0
14.64 0 0
14.68 0 0
14.72 0 0
14.76 0 0
14.8 0 0
14.84 0 0
14.88 0 0
14.92 0 0
14.96 0 0
15 0 0
15.04 0 0
15.08 0 0
15.12 0 0
15.16 0 0
15.2 0 0
15.24 0 0
15.28 0 0
15.32 0 0
15.36 0 0
15.4 0 0
15.44 0 0
15.48 0 0
15.52 0 0
15.56 0 0
15.6 0 0
15.64 0 0
15.68 0 0
15.72 0 0
15.76 0 0
15.8 0 0
15.84 0 0
15.88 0 0
15.92 0 0
15.96 0 0
16 0 0
16.04 0 0
16.08 0 0
16.12 0 0
16.16 0 0
16.2 0 0
16.24 0 0
16.28 0 0
16.32 0 0
16.36 0 0
16.4 0 0
16.44 0 0
16.48 0 0
16.52 0 0
16.56 0 0
16.6 0 0
16.64 0 0
16.68 0 0
16.72 0 0
16.76 0 0
16.8 0 0
16.84 0 0
16.88 0 0
16.92 0 0
16.96 0 0
17 0 0
17.04 0 0
17.08 0 0
17.12 0 0
17.16 0 0
17.2 0 0
17.24 0 0
17.28 0 0
17.32 0 0
17.36 0 0
17.4 0 0
17.44 0 0
17.48 0 0
17.52 0 0
17.56 0 0
17.6 0 0
17.64 0 0
17.68 0 0
17.72 0 0
17.76 0 0
17.8 0 0
17.84 0 0
17.88 0 0
17.92 0 0
17.96 0 0
18 0 0
18.04 0 0
18.08 0 0
18.12 0 0
18.16 0 0
18.2 0 0
18.24 0 0
18.28 0 0
18.32 0 0
18.36 0 0
18.4 0 0
18.44 0 0
18.48 0 0
18.52 0 0
18.56 0 0
18.6 0 0
18.64 0 0
18.68 0 0
18.72 0 0
18.76 0 0
18.8 0 0
18.84 0 0
18.88 0 0
18.92 0 0
18.96 0 0
19 0 0
19.04 0 0
19.08 0 0
19.12 0 0
19.16 0 0
19.2 0 0
19.24 0 0
19.28 0 0
19.32 0 0
19.36 0 0
19.4 0 0
19.44 0 0
19.48 0 0
19.52 0 0
19.56 0 0
19.6 0 0
19.64 0 0
19.68 0 0
19.72 0 0
19.76 0 0
19.8 0 0
19.84 0 0
19.88 0 0
19.92 0 0
19.96 0 0
20 0 0
20.04 0 0
20.08 0 0
20.12 0 0
20.16 0 0
20.2 0 0
20.24 0 0
20.28 0 0
20.32 0 0
20.36 0 0
20.4 0 0
20.44 0 0
20.48 0 0
20.52 0 0
20.56 0 0
20.6 0 0
20.64 0 0
20.68 0 0
20.72 0 0
20.76 0 0
20.8 0 0
20.84 0 0
20.88 0 0
20.92 0 0
20.96 0 0
21 0 0
21.04 0 0
21.08 0 0
21.12 0 0
21.16 0 0
21.2 0 0
21.24 0 0
21.28 0 0
21.32 0 0
21.36 0 0
21.4 0 0
21.44 0 0
21.48 0 0
21.52 0 0
21.56 0 0
21.6 0 0
21.64 0 0
21.68 0 0
21.72 0 0
21.76 0 0
21.8 0 0
21.84 0 0
21.88 0 0
21.92 0 0
21.96 0 0
22 0 0
22.04 0 0
22.08 0 0
22.12 0 0
22.16 0 0
22.2 0 0
22.24 0 0
22.28 0 0
22.32 0 0
22.36 0 0
22.4 0 0
22.44 0 0
22.48 0 0
22.52 0 0
22.56 0 0
22.6 0 0
22.64 0 0
22.68 0 0
22.72 0 0
22.76 0 0
22.8 0 0
22.84 0 0
22.88 0 0
22.92 0 0
22.96 0 0
23 0 0
23.04 0 0
23.08 0 0
23.12 0 0
23.16 0 0
23.2 0 0
23.24 0 0
23.28 0 0
23.32 0 0
23.36 0 0
23.4 0 0
23.44 0 0
23.48 0 0
23.52 0 0
23.56 0 0
23.6 0 0
23.64 0 0
23.68 0 0
23.72 0 0
23.76 0 0
23.8 0 0
23.84 0 0
23.88 0 0
23.92 0 0
23.96 0 0
24 0 0
24.04 0 0
24.08 0 0
24.12 0 0
24.16 0 0
24.2 0 0
24.24 0 0
24.28 0 0
24.32 0 0
24.36 0 0
24.4 0 0
24.44 0 0
24.48 0 0
24.52 0 0
24.56 0 0
24.6 0 0
24.64 0 0
24.68 0 0
24.72 0 0
24.76 0 0
24.8 0 0
24.84 0 0
24.88 0 0
24.92 0 0
24.96 0 0
25 0 0
25.04 0 0
25.08 0 0
25.12 0 0
25.16 0 0
25.2 0 0
25.24 0 0
25.28 0 0
25.32 0 0
25.36 0 0
25.4 0 0
25.44 0 0
25.48 0 0
25.52 0 0
25.56 0 0
25.6 0 0
25.64 0 0
25.68 0 0
25.72 0 0
25.76 0 0
25.8 0 0
25.84 0 0
25.88 0 0
25.92 0 0
25.96 0 0
26 0 0
26.04 0 0
26.08 0 0
26.12 0 0
26.16 0 0
26.2 0 0
26.24 0 0
26.28 0 0
26.32 0 0
26.36 0 0
26.4 0 0
26.44 0 0
26.48 0 0
26.52 0 0
26.56 0 0
26.6 0 0
26.64 0 0
26.68 0 0
26.72 0 0
26.76 0 0
26.8 0 0
26.84 0 0
26.88 0 0
26.92 0 0
26.96 0 0
27 0 0
27.04 0 0
27.08 0 0
27.12 0 0
27.16 0 0
27.2 0 0
27.24 0 0
27.28 0 0
27.32 0 0
27.36 0 0
27.4 0 0
27.44 0 0
27.48 0 0
27.52 0 0
27.56 0 0
27.6 0 0
27.64 0 0
27.68 0 0
27.72 0 0
27.76 0 0
27.8 0 0
27.84 0 0
27.88 0 0
27.92 0 0
27.96 0 0
28 0 0
28.04 0 0
28.08 0 0
28.12 0 0
28.16 0 0
28.2 0 0
28.24 0 0
28.28 0 0
28.32 0 0
28.36 0 0
28.4 0 0
28.44 0 0
28.48 0 0
28.52 0 0
28.56 0 0
28.6 0 0
28.64 0 0
28.68 0 0
28.72 0 0
28.76 0 0
28.8 0 0
28.84 0 0
28.88 0 0
28.92 0 0
28.96 0 0
29 0 0
29.04 0 0
29.08 0 0
29.12 0 0
29.16 0 0
29.2 0 0
29.24 0 0
29.28 0 0
29.32 0 0
29.36 0 0
29.4 0 0
29.44 0 0
29.48 0 0
29.52 0 0
29.56 0 0
29.6 0 0
29.64 0 0
29.68 0 0
29.72 0 0
29.76 0 0
29.8 0 0
29.84 0 0
29.88 0 0
29.92 0 0
29.96 0 0
30 0 0
30.04 0 0
30.08 0 0
30.12 0 0
30.16 0 0
30.2 0 0
30.24 0 0
30.28 0 0
30.32 0 0
30.36 0 0
30.4 0 0
30.44 0 0
30.48 0 0
30.52 0 0
30.56 0 0
30.6 0 0
30.64 0 0
30.68 0 0
30.72 0 0
30.76 0 0
30.8 0 0
30.84 0 0
30.88 0 0
30.92 0 0
30.96 0 0
31 0 0
31.04 0 0
31.08 0 0
31.12 0 0
31.16 0 0
31.2 0 0
31.24 0 0
31.28 0 0
31.32 0 0
31.36 0 0
31.4 0 0
31.44 0 0
31.48 0 0
31.52 0 0
31.56 0 0
31.6 0 0
31.64 0 0
31.68 0 0
31.72 0 0
31.76 0 0
31.8 0 0
31.84 0 0
31.88 0 0
31.92 0 0
31.96 0 0
0 0.005 0
0.04 0.005 0
0.08 0.005 0
0.12 0.005 0
0.16 0.005 0
0.2 0.005 0
0.24 0.005 0
0.28 0.005 0
0.32 0.005 0
0.36 0.005 0
0.4 0.005 0
0.44 0.005 0
0.48 0.005 0
0.52 0.005 0
0.56 0.005 0
0.6 0.005 0
0.64 0.005 0
0.68 0.005 0
0.72 0.005 0
0.76 0.005 0
0.8 0.005 0
0.84 0.005 0
0.88 0.005 0
0.92 0.005 0
0.96 0.005 0
1 0.005 0
1.04 0.005 0
1.08 0.005 0
1.12 0.005 0
1.16 0.005 0
1.2 0.005 0
1.24 0.005 0
1.28 0.005 0
1.32 0.005 0
1.36 0.005 0
1.4 0.005 0
1.44 0.005 0
1.48 0.005 0
1.52 0.005 0
1.56 0.005 0
1.6 0.005 0
1.64 0.005 0
1.68 0.005 0
1.72 0.005 0
1.76 0.005 0
1.8 0.005 0
1.84 0.005 0
1.88 0.005 0
1.92 0.005 0
1.96 0.005 0
2 0.005 0
2.04 0.005 0
2.08 0.005 0
2.12 0.005 0
2.16 0.005 0
2.2 0.005 0
2.24 0.005 0
2.28 0.005 0
2.32 0.005 0
2.36 0.005 0
2.4 0.005 0
2.44 0.005 0
2.48 0.005 0
2.52 0.005 0
2.56 0.005 0
2.6 0.005 0
2.64 0.005 0
2.68 0.005 0
2.72 0.005 0
2.76 0.005 0
2.8 0.005 0
2.84 0.005 0
2.88 0.005 0
2.92 0.005 0
2.96 0.005 0
3 0.005 0
3.04 0.005 0
3.08 0.005 0
3.12 0.005 0
3.16 0.005 0
3.2 0.005 0
3.24 0.005 0
3.28 0.005 0
3.32 0.005 0
3.36 0.005 0
3.4 0.005 0
3.44 0.005 0
3.48 0.005 0
3.52 0.005 0
3.56 0.005 0
3.6 0.005 0
3.64 0.005 0
3.68 0.005 0
3.72 0.005 0
3.76 0.005 0
3.8 0.005 0
3.84 0.005 0
3.88 0.005 0
3.92 0.005 0
3.96 0.005 0
4 0.005 0
4.04 0.005 0
4.08 0.005 0
4.12 0.005 0
4.16 0.005 0
4.2 0.005 0
4.24 0.005 0
4.28 0.005 0
4.32 0.005 0
4.36 0.005 0
4.4 0.005 0
4.44 0.005 0
4.48 0.005 0
4.52 0.005 0
4.56 0.005 0
4.6 0.005 0
4.64 0.005 0
4.68 0.005 0
4.72 0.005 0
4.76 0.005 0
4.8 0.005 0
4.84 0.005 0
4.88 0.005 0
4.92 0.005 0
4.96 0.005 0
5 0.005 0
5.04 0.005 0
5.08 0.005 0
5.12 0.005 0
5.16 0.005 0
5.2 0.005 0
5.24 0.005 0
5.28 0.005 0
5.32 0.005 0
5.36 0.005 0
5.4 0.005 0
5.44 0.005 0
5.48 0.005 0
5.52 0.005 0
5.56 0.005 0
5.6 0.005 0
5.64 0.005 0
5.68 0.005 0
5.72 0.005 0
5.76 0.005 0
5.8 0.005 0
5.84 0.005 0
5.88 0.005 0
5.92 0.005 0
5.96 0.005 0
6 0.005 0
6.04 0.005 0
6.08 0.005 0
6.12 0.005 0
6.16 0.005 0
6.2 0.005 0
6.24 0.005 0
6.28 0.005 0
6.32 0.005 0
6.36 0.005 0
6.4 0.005 0
6.44 0.005 0
6.48 0.005 0
6.52 0.005 0
6.56 0.005 0
6.6 0.005 0
6.64 0.005 0
6.68 0.005 0
6.72 0.005 0
6.76 0.005 0
6.8 0.005 0
6.84 0.005 0
6.88 0.005 0
6.92 0.005 0
6.96 0.005 0
7 0.005 0
7.04 0.005 0
7.08 0.005 0
7.12 0.005 0
7.16 0.005 0
7.2 0.005 0
7.24 0.005 0
7.28 0.005 0
7.32 0.005 0
7.36 0.005 0
7.4 0.005 0
[...]
POINT_DATA 160000

SCALARS p float 1
LOOKUP_TABLE default
1
56.5084
54.2929
54.0381
53.9779
53.9515
53.9354
53.9239
53.9146
53.9068
53.8998
53.8935
53.8876
53.882
53.8767
53.8716
53.8666
53.8618
53.8571
53.8525
53.8479
53.8435
53.8391
53.8347
53.8305
53.8263
53.8221
53.818
53.8139
53.8099
53.8059
53.802
53.7982
53.7943
53.7905
53.7868
53.7831
53.7794
53.7758
53.7722
53.7686
53.7651
53.7616
53.7581
53.7547
53.7513
53.7479
53.7446
53.7413
53.738
53.7348
53.7315
53.7283
53.7252
53.722
53.7189
53.7158
53.7127
53.7097
53.7066
53.7036
53.7006
53.6976
53.6947
53.6918
53.6889
53.686
53.6831
53.6802
53.6774
53.6746
53.6718
53.669
53.6662
53.6634
53.6607
53.658
53.6553
53.6526
53.6499
53.6472
53.6445
53.6419
53.6393
53.6367
53.6341
53.6315
53.6289
53.6263
53.6238
53.6212
53.6187
53.6162
53.6137
53.6112
53.6087
53.6062
53.6037
53.6013
53.5988
53.5964
53.594
53.5916
53.5891
53.5868
53.5844
53.582
53.5796
53.5773
53.5749
53.5726
53.5702
53.5679
53.5656
53.5633
53.561
53.5587
53.5564
53.5541
53.5518
53.5496
53.5473
53.5451
53.5428
53.5406
53.5384
53.5361
53.5339
53.5317
53.5295
53.5273
53.5251
53.523
53.5208
53.5186
53.5165
53.5143
53.5121
53.51
53.5079
53.5057
53.5036
53.5015
53.4994
53.4973
53.4952
53.4931
53.491
53.4889
53.4868
53.4847
53.4826
53.4806
53.4785
53.4765
53.4744
53.4724
53.4703
53.4683
53.4662
53.4642
53.4622
53.4602
53.4582
53.4562
53.4541
53.4521
53.4502
53.4482
53.4462
53.4442
53.4422
53.4402
53.4383
53.4363
53.4343
53.4324
53.4304
53.4285
53.4265
53.4246
53.4226
53.4207
53.4188
53.4168
53.4149
53.413
53.4111
53.4092
53.4072
53.4053
53.4034
53.4015
53.3996
53.3977
53.3958
53.394
53.3921
53.3902
53.3883
53.3864
53.3846
53.3827
53.3808
53.379
53.3771
53.3752
53.3734
53.3715
53.3697
53.3678
53.366
53.3642
53.3623
53.3605
53.3587
53.3568
53.355
53.3532
53.3514
53.3495
53.3477
53.3459
53.3441
53.3423
53.3405
53.3387
53.3369
53.3351
53.3333
53.3315
53.3297
53.3279
53.3261
53.3243
53.3225
53.3208
53.319
53.3172
53.3154
53.3136
53.3119
53.3101
53.3083
53.3066
53.3048
53.3031
53.3013
53.2995
53.2978
53.296
53.2943
53.2925
53.2908
53.289
53.2873
53.2856
53.2838
53.2821
53.2803
53.2786
53.2769
53.2751
53.2734
53.2717
53.27
53.2682
53.2665
53.2648
53.2631
53.2613
53.2596
53.2579
53.2562
53.2545
53.2528
53.2511
53.2494
53.2477
53.246
53.2443
53.2426
53.2409
53.2392
53.2375
53.2358
53.2341
53.2324
53.2307
53.229
53.2273
53.2256
53.2239
53.2222
53.2206
53.2189
53.2172
53.2155
53.2138
53.2122
53.2105
53.2088
53.2071
53.2054
53.2038
53.2021
53.2004
53.1988
53.1971
53.1954
53.1938
53.1921
53.1904
53.1888
53.1871
53.1855
53.1838
53.1821
53.1805
53.1788
53.1772
53.1755
53.1739
53.1722
53.1706
53.1689
53.1673
53.1656
53.164
53.1623
53.1607
53.159
53.1574
53.1557
53.1541
53.1524
53.1508
53.1492
53.1475
53.1459
53.1443
53.1426
53.141
53.1393
53.1377
53.1361
53.1344
53.1328
53.1312
53.1295
53.1279
53.1263
53.1247
53.123
53.1214
53.1198
53.1182
53.1165
53.1149
53.1133
53.1117
53.11
53.1084
53.1068
53.1052
53.1036
53.1019
53.1003
53.0987
53.0971
53.0955
53.0938
53.0922
53.0906
53.089
53.0874
53.0858
53.0842
53.0826
53.0809
53.0793
53.0777
53.0761
53.0745
53.0729
53.0713
53.0697
53.0681
53.0665
53.0649
53.0633
53.0616
53.06
53.0584
53.0568
53.0552
53.0536
53.052
53.0504
53.0488
53.0472
53.0456
53.044
53.0424
53.0408
53.0392
53.0376
53.036
53.0344
53.0328
53.0312
53.0296
53.0281
53.0265
53.0249
53.0233
53.0217
53.0201
53.0185
53.0169
53.0153
53.0137
53.0121
53.0105
53.0089
53.0073
53.0058
53.0042
53.0026
53.001
52.9994
52.9978
52.9962
52.9946
52.993
52.9915
52.9899
52.9883
52.9867
52.9851
52.9835
52.9819
52.9804
52.9788
52.9772
52.9756
52.974
52.9724
52.9709
52.9693
52.9677
52.9661
52.9645
52.9629
52.9614
52.9598
52.9582
52.9566
52.955
52.9535
52.9519
52.9503
52.9487
52.9471
52.9456
52.944
52.9424
52.9408
52.9393
52.9377
52.9361
52.9345
52.9329
52.9314
52.9298
52.9282
52.9266
52.9251
52.9235
52.9219
52.9203
52.9188
52.9172
52.9156
52.914
52.9125
52.9109
52.9093
52.9078
52.9062
52.9046
52.903
52.9015
52.8999
52.8983
52.8967
52.8952
52.8936
52.892
52.8905
52.8889
52.8873
52.8857
52.8842
52.8826
52.881
52.8795
52.8779
52.8763
52.8748
52.8732
52.8716
52.8701
52.8685
52.8669
52.8654
52.8638
52.8622
52.8606
52.8591
52.8575
52.8559
52.8544
52.8528
52.8512
52.8497
52.8481
52.8465
52.845
52.8434
52.8418
52.8403
52.8387
52.8372
52.8356
52.834
52.8325
52.8309
52.8293
52.8278
52.8262
52.8246
52.8231
52.8215
52.8199
52.8184
52.8168
52.8153
52.8137
52.8121
52.8106
52.809
52.8074
52.8059
52.8043
52.8027
52.8012
52.7996
52.7981
52.7965
52.7949
52.7934
52.7918
52.7903
52.7887
52.7871
52.7856
52.784
52.7824
52.7809
52.7793
52.7778
52.7762
52.7746
52.7731
52.7715
52.77
52.7684
52.7668
52.7653
52.7637
52.7622
52.7606
52.759
52.7575
52.7559
52.7544
52.7528
52.7513
52.7497
52.7481
52.7466
52.745
52.7435
52.7419
52.7403
52.7388
52.7372
52.7357
52.7341
52.7326
52.731
52.7294
52.7279
52.7263
52.7248
52.7232
52.7216
52.7201
52.7185
52.717
52.7154
52.7139
52.7123
52.7108
52.7092
52.7076
52.7061
52.7045
52.703
52.7014
52.6999
52.6983
52.6967
52.6952
52.6936
52.6921
52.6905
52.689
52.6874
52.6859
52.6843
52.6827
52.6812
52.6796
52.6781
52.6765
52.675
52.6734
52.6719
52.6703
52.6687
52.6672
52.6656
52.6641
52.6625
52.661
52.6594
52.6579
52.6563
52.6548
52.6532
52.6517
52.6501
52.6485
52.647
52.6454
52.6439
52.6423
52.6408
52.6392
52.6377
52.6361
52.6346
52.633
52.6315
52.6299
52.6284
52.6268
52.6252
52.6237
52.6221
52.6206
52.619
52.6175
52.6159
52.6144
52.6128
52.6113
52.6097
52.6082
52.6066
52.6051
52.6035
52.602
52.6004
52.5989
52.5973
52.5958
52.5942
52.5926
52.5911
52.5895
52.588
52.5864
52.5849
52.5833
52.5818
52.5802
52.5787
52.5771
52.5756
52.574
52.5725
52.5709
52.5694
52.5678
52.5663
52.5647
52.5632
52.5616
52.5601
52.5585
52.557
52.5554
52.5539
52.5523
52.5508
52.5492
52.5477
52.5461
52.5446
52.543
52.5415
52.5399
52.5384
52.5368
52.5353
52.5337
52.5322
52.5306
52.5291
52.5275
52.526
52.5244
52.5229
52.5213
52.5198
52.5182
52.5167
52.5151
52.5136
52.512
52.5105
52.5089
52.5074
52.5058
52.5043
52.5027
52.5012
52.4996
52.4981
52.4965
52.495
52.4935
52.4919
52.4904
52.4888
52.4873
52.4857
52.4842
52.4826
52.4811
52.4795
52.478
52.4764
52.4749
52.4733
52.4718
52.4702
52.4687
52.4671
52.4656
52.464
52.4625
52.4609
52.4594
52.4578
52.4563
52.4548
52.4532
52.4517
52.4501
52.4486
52.447
52.4455
52.4439
52.4424
52.4408
52.4393
52.4377
52.4362
52.4346
52.4331
52.4316
52.43
52.4285
52.4269
52.4254
1
56.5084
56.5084
54.2929
54.0381
53.9779
53.9515
53.9354
53.9239
53.9146
53.9068
53.8998
53.8935
53.8876
53.882
53.8767
53.8716
53.8666
53.8618
53.8571
53.8525
53.8479
53.8435
53.8391
53.8347
53.8305
53.8263
53.8221
53.818
53.8139
53.8099
53.8059
53.802
53.7982
53.7943
53.7905
53.7868
53.7831
53.7794
53.7758
53.7722
53.7686
53.7651
53.7616
53.7581
53.7547
53.7513
53.7479
53.7446
53.7413
53.738
53.7348
53.7315
53.7283
53.7252
53.722
53.7189
53.7158
53.7127
53.7097
53.7066
53.7036
53.7006
53.6976
53.6947
53.6918
53.6889
53.686
53.6831
53.6802
53.6774
53.6746
53.6718
53.669
53.6662
53.6634
53.6607
53.658
53.6553
53.6526
53.6499
53.6472
53.6445
53.6419
53.6393
53.6367
53.6341
53.6315
53.6289
53.6263
53.6238
53.6212
53.6187
53.6162
53.6137
53.6112
53.6087
53.6062
53.6037
53.6013
53.5988
53.5964
53.594
53.5916
53.5891
53.5868
53.5844
53.582
53.5796
53.5773
53.5749
53.5726
53.5702
53.5679
53.5656
53.5633
53.561
53.5587
53.5564
53.5541
53.5518
53.5496
53.5473
53.5451
53.5428
53.5406
53.5384
53.5361
53.5339
53.5317
53.5295
53.5273
53.5251
53.523
53.5208
53.5186
53.5165
53.5143
53.5121
53.51
53.5079
53.5057
53.5036
53.5015
53.4994
53.4973
53.4952
53.4931
53.491
53.4889
53.4868
53.4847
53.4826
53.4806
53.4785
53.4765
53.4744
53.4724
53.4703
53.4683
53.4662
53.4642
53.4622
53.4602
53.4582
53.4562
53.4541
53.4521
53.4502
53.4482
53.4462
53.4442
53.4422
53.4402
53.4383
53.4363
53.4343
53.4324
53.4304
53.4285
53.4265
53.4246
53.4226
53.4207
53.4188
53.4168
53.4149
53.413
53.4111
53.4092
53.4072
53.4053
53.4034
53.4015
53.3996
53.3977
53.3958
53.394
53.3921
53.3902
53.3883
53.3864
53.3846
53.3827
53.3808
53.379
53.3771
53.3752
53.3734
53.3715
53.3697
53.3678
53.366
53.3642
53.3623
53.3605
53.3587
53.3568
53.355
53.3532
53.3514
53.3495
53.3477
53.3459
53.3441
53.3423
53.3405
53.3387
53.3369
53.3351
53.3333
53.3315
53.3297
53.3279
53.3261
53.3243
53.3225
53.3208
53.319
53.3172
53.3154
53.3136
53.3119
53.3101
53.3083
53.3066
53.3048
53.3031
53.3013
53.2995
53.2978
53.296
53.2943
53.2925
53.2908
53.289
53.2873
53.2856
53.2838
53.2821
53.2803
53.2786
53.2769
53.2751
53.2734
53.2717
53.27
53.2682
53.2665
53.2648
53.2631
53.2613
53.2596
53.2579
53.2562
53.2545
53.2528
53.2511
53.2494
53.2477
53.246
53.2443
53.2426
53.2409
53.2392
53.2375
53.2358
53.2341
53.2324
53.2307
53.229
53.2273
53.2256
53.2239
53.2222
53.2206
53.2189
53.2172
53.2155
53.2138
53.2122
53.2105
53.2088
53.2071
53.2054
53.2038
53.2021
53.2004
53.1988
53.1971
53.1954
53.1938
53.1921
53.1904
53.1888
53.1871
53.1855
53.1838
53.1821
53.1805
53.1788
53.1772
53.1755
53.1739
53.1722
53.1706
53.1689
53.1673
53.1656
53.164
53.1623
53.1607
53.159
53.1574
53.1557
53.1541
53.1524
53.1508
53.1492
53.1475
53.1459
53.1443
53.1426
53.141
53.1393
53.1377
53.1361
53.1344
53.1328
53.1312
53.1295
53.1279
53.1263
53.1247
53.123
53.1214
53.1198
53.1182
53.1165
53.1149
53.1133
53.1117
53.11
53.1084
53.1068
53.1052
53.1036
53.1019
53.1003
53.0987
53.0971
53.0955
53.0938
53.0922
53.0906
53.089
53.0874
53.0858
53.0842
53.0826
53.0809
53.0793
53.0777
53.0761
53.0745
53.0729
53.0713
53.0697
53.0681
53.0665
53.0649
53.0633
53.0616
53.06
53.0584
53.0568
53.0552
53.0536
53.052
53.0504
53.0488
53.0472
53.0456
53.044
53.0424
53.0408
53.0392
53.0376
53.036
53.0344
53.0328
53.0312
53.0296
53.0281
53.0265
53.0249
53.0233
53.0217
53.0201
53.0185
53.0169
53.0153
53.0137
53.0121
53.0105
53.0089
53.0073
53.0058
53.0042
53.0026
53.001
52.9994
52.9978
52.9962
52.9946
52.993
52.9915
52.9899
52.9883
52.9867
52.9851
52.9835
52.9819
52.9804
52.9788
52.9772
52.9756
52.974
52.9724
52.9709
52.9693
52.9677
52.9661
52.9645
52.9629
52.9614
52.9598
52.9582
52.9566
52.955
52.9535
52.9519
52.9503
52.9487
52.9471
52.9456
52.944
52.9424
52.9408
52.9393
52.9377
52.9361
52.9345
52.9329
52.9314
52.9298
52.9282
52.9266
52.9251
52.9235
52.9219
52.9203
52.9188
52.9172
52.9156
52.914
52.9125
52.9109
52.9093
52.9078
52.9062
52.9046
52.903
52.9015
52.8999
52.8983
52.8967
52.8952
52.8936
52.892
52.8905
52.8889
52.8873
52.8857
52.8842
52.8826
52.881
52.8795
52.8779
52.8763
52.8748
52.8732
52.8716
52.8701
52.8685
52.8669
52.8654
52.8638
52.8622
52.8606
52.8591
52.8575
52.8559
52.8544
52.8528
52.8512
52.8497
52.8481
52.8465
52.845
52.8434
52.8418
52.8403
52.8387
52.8372
52.8356
52.834
52.8325
52.8309
52.8293
52.8278
52.8262
52.8246
52.8231
52.8215
52.8199
52.8184
52.8168
52.8153
52.8137
52.8121
52.8106
52.809
52.8074
52.8059
52.8043
52.8027
52.8012
52.7996
52.7981
52.7965
52.7949
52.7934
52.7918
52.7903
52.7887
52.7871
52.7856
52.784
52.7824
52.7809
52.7793
52.7778
52.7762
52.7746
52.7731
52.7715
52.77
52.7684
52.7668
52.7653
52.7637
52.7622
52.7606
52.759
52.7575
52.7559
52.7544
52.7528
52.7513
52.7497
52.7481
52.7466
52.745
52.7435
52.7419
52.7403
52.7388
52.7372
52.7357
52.7341
52.7326
52.731
52.7294
52.7279
52.7263
52.7248
52.7232
52.7216
52.7201
52.7185
52.717
52.7154
52.7139
52.7123
52.7108
52.7092
52.7076
52.7061
52.7045
52.703
52.7014
52.6999
52.6983
52.6967
52.6952
52.6936
52.6921
52.6905
52.689
52.6874
52.6859
52.6843
52.6827
52.6812
52.6796
52.6781
52.6765
52.675
52.6734
52.6719
52.6703
52.6687
52.6672
52.6656
52.6641
52.6625
52.661
52.6594
52.6579
52.6563
52.6548
52.6532
52.6517
52.6501
52.6485
52.647
52.6454
52.6439
52.6423
52.6408
52.6392
52.6377
52.6361
52.6346
52.633
52.6315
52.6299
52.6284
52.6268
52.6252
52.6237
52.6221
52.6206
52.619
52.6175
52.6159
52.6144
52.6128
52.6113
52.6097
52.6082
52.6066
52.6051
52.6035
52.602
52.6004
52.5989
52.5973
52.5958
52.5942
52.5926
52.5911
52.5895
52.588
52.5864
52.5849
52.5833
52.5818
52.5802
52.5787
52.5771
52.5756
52.574
52.5725
52.5709
52.5694
52.5678
52.5663
52.5647
52.5632
52.5616
52.5601
52.5585
52.557
52.5554
52.5539
52.5523
52.5508
52.5492
52.5477
52.5461
52.5446
52.543
52.5415
52.5399
52.5384
52.5368
52.5353
52.5337
52.5322
52.5306
52.5291
52.5275
52.526
52.5244
52.5229
52.5213
52.5198
52.5182
52.5167
52.5151
52.5136
52.512
52.5105
52.5089
52.5074
52.5058
52.5043
52.5027
52.5012
52.4996
52.4981
52.4965
52.495
52.4935
52.4919
52.4904
52.4888
52.4873
52.4857
52.4842
52.4826
52.4811
52.4795
52.478
52.4764
52.4749
52.4733
52.4718
52.4702
52.4687
52.4671
52.4656
52.464
52.4625
52.4609
52.4594
52.4578
52.4563
52.4548
52.4532
52.4517
52.4501
52.4486
52.447
52.4455
52.4439
52.4424
52.4408
52.4393
52.4377
52.4362
52.4346
52.4331
52.4316
52.43
52.4285
52.4269
52.4254
52.4254
55.8614
55.8614
54.3033
54.0476
53.982
53.9537
53.9368
53.9248
53.9153
53.9073
53.9002
53.8938
53.8879
53.8823
53.8769
53.8718
53.8668
53.862
53.8572
53.8526
53.848
53.8436
53.8392
53.8348
53.8306
53.8263
53.8222
53.818
53.814
53.81
53.806
53.8021
53.7982
53.7944
53.7906
53.7868
53.7831
53.7794
53.7758
53.7722
53.7686
53.7651
53.7616
53.7582
53.7547
53.7513
53.748
53.7446
53.7413
53.738
53.7348
53.7316
53.7284
53.7252
53.722
53.7189
53.7158
53.7127
53.7097
53.7066
53.7036
53.7006
53.6977
53.6947
53.6918
53.6889
53.686
53.6831
53.6802
53.6774
53.6746
53.6718
53.669
53.6662
53.6634
53.6607
53.658
53.6553
53.6526
53.6499
53.6472
53.6446
53.6419
53.6393
53.6367
53.6341
53.6315
53.6289
53.6263
53.6238
53.6212
53.6187
53.6162
53.6137
53.6112
53.6087
53.6062
53.6037
53.6013
53.5988
53.5964
53.594
53.5916
53.5892
53.5868
53.5844
53.582
53.5796
53.5773
53.5749
53.5726
53.5702
53.5679
53.5656
53.5633
53.561
53.5587
53.5564
53.5541
53.5518
53.5496
53.5473
53.5451
53.5428
53.5406
53.5384
53.5361
53.5339
53.5317
53.5295
53.5273
53.5251
53.523
53.5208
53.5186
53.5165
53.5143
53.5122
53.51
53.5079
53.5057
53.5036
53.5015
53.4994
53.4973
53.4952
53.4931
53.491
53.4889
53.4868
53.4847
53.4827
53.4806
53.4785
53.4765
53.4744
53.4724
53.4703
53.4683
53.4663
53.4642
53.4622
53.4602
53.4582
53.4562
53.4542
53.4522
53.4502
53.4482
53.4462
53.4442
53.4422
53.4402
53.4383
53.4363
53.4343
53.4324
53.4304
53.4285
53.4265
53.4246
53.4226
53.4207
53.4188
53.4168
53.4149
53.413
53.4111
53.4092
53.4072
53.4053
53.4034
53.4015
53.3996
53.3977
53.3958
53.394
53.3921
53.3902
53.3883
53.3864
53.3846
53.3827
53.3808
53.379
53.3771
53.3752
53.3734
53.3715
53.3697
53.3678
53.366
53.3642
53.3623
53.3605
53.3587
53.3568
53.355
53.3532
53.3514
53.3495
53.3477
53.3459
53.3441
53.3423
53.3405
53.3387
53.3369
53.3351
53.3333
53.3315
53.3297
53.3279
53.3261
53.3243
53.3225
53.3208
53.319
53.3172
53.3154
53.3137
53.3119
53.3101
53.3083
53.3066
53.3048
53.3031
53.3013
53.2995
53.2978
53.296
53.2943
53.2925
53.2908
53.289
53.2873
53.2856
53.2838
53.2821
53.2803
53.2786
53.2769
53.2751
53.2734
53.2717
53.27
53.2682
53.2665
53.2648
53.2631
53.2614
53.2596
53.2579
53.2562
53.2545
53.2528
53.2511
53.2494
53.2477
53.246
53.2443
53.2426
53.2409
53.2392
53.2375
53.2358
53.2341
53.2324
53.2307
53.229
53.2273
53.2256
53.2239
53.2222
53.2206
53.2189
53.2172
53.2155
53.2138
53.2122
53.2105
53.2088
53.2071
53.2055
53.2038
53.2021
53.2004
53.1988
53.1971
53.1954
53.1938
53.1921
53.1904
53.1888
53.1871
53.1855
53.1838
53.1821
53.1805
53.1788
53.1772
53.1755
53.1739
53.1722
53.1706
53.1689
53.1673
53.1656
53.164
53.1623
53.1607
53.159
53.1574
53.1557
53.1541
53.1525
53.1508
53.1492
53.1475
53.1459
53.1443
53.1426
53.141
53.1393
53.1377
53.1361
53.1344
53.1328
53.1312
53.1296
53.1279
53.1263
53.1247
53.123
53.1214
53.1198
53.1182
53.1165
53.1149
53.1133
53.1117
53.11
53.1084
53.1068
53.1052
53.1036
53.1019
53.1003
53.0987
53.0971
53.0955
53.0939
53.0922
53.0906
53.089
53.0874
53.0858
53.0842
53.0826
53.0809
53.0793
53.0777
53.0761
53.0745
53.0729
53.0713
53.0697
53.0681
53.0665
53.0649
53.0633
53.0617
53.06
53.0584
53.0568
53.0552
53.0536
53.052
53.0504
53.0488
53.0472
53.0456
53.044
53.0424
53.0408
53.0392
53.0376
53.036
53.0344
53.0328
53.0312
53.0297
53.0281
53.0265
53.0249
53.0233
53.0217
53.0201
53.0185
53.0169
53.0153
53.0137
53.0121
53.0105
53.0089
53.0073
53.0058
53.0042
53.0026
53.001
52.9994
52.9978
52.9962
52.9946
52.9931
52.9915
52.9899
52.9883
52.9867
52.9851
52.9835
52.9819
52.9804
52.9788
52.9772
52.9756
52.974
52.9724
52.9709
52.9693
52.9677
52.9661
52.9645
52.963
52.9614
52.9598
52.9582
52.9566
52.955
52.9535
52.9519
52.9503
52.9487
52.9471
52.9456
52.944
52.9424
52.9408
52.9393
52.9377
52.9361
52.9345
52.933
52.9314
52.9298
52.9282
52.9266
52.9251
52.9235
52.9219
52.9203
52.9188
52.9172
52.9156
52.914
52.9125
52.9109
52.9093
52.9078
52.9062
52.9046
52.903
52.9015
52.8999
52.8983
52.8968
52.8952
52.8936
52.892
52.8905
52.8889
52.8873
52.8858
52.8842
52.8826
52.881
52.8795
52.8779
52.8763
52.8748
52.8732
52.8716
52.8701
52.8685
52.8669
52.8654
52.8638
52.8622
52.8607
52.8591
52.8575
52.856
52.8544
52.8528
52.8512
52.8497
52.8481
52.8466
52.845
52.8434
52.8419
52.8403
52.8387
52.8372
52.8356
52.834
52.8325
52.8309
52.8293
52.8278
52.8262
52.8246
52.8231
52.8215
52.8199
52.8184
52.8168
52.8153
52.8137
52.8121
52.8106
52.809
52.8074
52.8059
52.8043
52.8028
52.8012
52.7996
52.7981
52.7965
52.7949
52.7934
52.7918
52.7903
52.7887
52.7871
52.7856
52.784
52.7825
52.7809
52.7793
52.7778
52.7762
52.7746
52.7731
52.7715
52.77
52.7684
52.7668
52.7653
52.7637
52.7622
52.7606
52.7591
52.7575
52.7559
52.7544
52.7528
52.7513
52.7497
52.7481
52.7466
52.745
52.7435
52.7419
52.7403
52.7388
52.7372
52.7357
52.7341
52.7326
52.731
52.7294
52.7279
52.7263
52.7248
52.7232
52.7217
52.7201
52.7185
52.717
52.7154
52.7139
52.7123
52.7108
52.7092
52.7076
52.7061
52.7045
52.703
52.7014
52.6999
52.6983
52.6967
52.6952
52.6936
52.6921
52.6905
52.689
52.6874
52.6859
52.6843
52.6827
52.6812
52.6796
52.6781
52.6765
52.675
52.6734
52.6719
52.6703
52.6688
52.6672
52.6656
52.6641
52.6625
52.661
52.6594
52.6579
52.6563
52.6548
52.6532
52.6517
52.6501
52.6485
52.647
52.6454
52.6439
52.6423
52.6408
52.6392
52.6377
52.6361
52.6346
52.633
52.6315
52.6299
52.6284
52.6268
52.6253
52.6237
52.6221
52.6206
52.619
52.6175
52.6159
52.6144
52.6128
52.6113
52.6097
52.6082
52.6066
52.6051
52.6035
52.602
52.6004
52.5989
52.5973
52.5958
52.5942
52.5927
52.5911
52.5896
52.588
52.5864
52.5849
52.5833
52.5818
52.5802
52.5787
52.5771
52.5756
52.574
52.5725
52.5709
52.5694
52.5678
52.5663
52.5647
52.5632
52.5616
52.5601
52.5585
52.557
52.5554
52.5539
52.5523
52.5508
52.5492
52.5477
52.5461
52.5446
52.543
52.5415
52.5399
52.5384
52.5368
52.5353
52.5337
52.5322
52.5306
52.5291
52.5275
52.526
52.5244
52.5229
52.5213
52.5198
52.5182
52.5167
52.5151
52.5136
52.512
52.5105
52.5089
52.5074
52.5058
52.5043
52.5027
52.5012
52.4996
52.4981
52.4966
52.495
52.4935
52.4919
52.4904
52.4888
52.4873
52.4857
52.4842
52.4826
52.4811
52.4795
52.478
52.4764
52.4749
52.4733
52.4718
52.4702
52.4687
52.4671
52.4656
52.464
52.4625
52.4609
52.4594
52.4579
52.4563
52.4548
52.4532
52.4517
52.4501
52.4486
52.447
52.4455
52.4439
52.4424
52.4408
52.4393
52.4377
52.4362
52.4346
52.4331
52.4316
52.43
52.4285
52.4269
52.4254
52.4254
55.1719
55.1719
54.2875
54.0542
53.9857
53.9558
53.9382
53.9257
53.916
53.9078
53.9007
53.8942
53.8882
53.8825
53.8771
53.872
53.867
53.8621
53.8574
53.8527
53.8482
53.8437
53.8393
53.8349
53.8306
53.8264
53.8222
53.8181
53.814
53.81
53.8061
53.8021
53.7982
53.7944
53.7906
53.7869
53.7831
53.7795
53.7758
53.7722
53.7687
53.7651
53.7616
53.7582
53.7548
53.7514
53.748
53.7447
53.7413
53.7381
53.7348
53.7316
53.7284
53.7252
53.7221
53.7189
53.7158
53.7128
53.7097
53.7067
53.7036
53.7007
53.6977
53.6947
53.6918
53.6889
53.686
53.6831
53.6803
53.6774
53.6746
53.6718
53.669
53.6662
53.6635
53.6607
53.658
53.6553
53.6526
53.6499
53.6472
53.6446
53.6419
53.6393
53.6367
53.6341
53.6315
53.6289
53.6263
53.6238
53.6212
53.6187
53.6162
53.6137
53.6112
53.6087
53.6062
53.6038
53.6013
53.5988
53.5964
53.594
53.5916
53.5892
53.5868
53.5844
53.582
53.5796
53.5773
53.5749
53.5726
53.5702
53.5679
53.5656
53.5633
53.561
53.5587
53.5564
53.5541
53.5518
53.5496
53.5473
53.5451
53.5428
53.5406
53.5384