# vtk DataFile Version 2.0
FlowField
ASCII
DATASET STRUCTURED_GRID
DIMENSIONS 800 1 200
POINTS 160000 float
0 0 0
0.04 0 0
0.08 0 0
0.12 0 0
0.16 0 0
0.2 0 0
0.24 0 0
0.28 0 0
0.32 0 0
0.36 0 0
0.4 0 0
0.44 0 0
0.48 0 0
0.52 0 0
0.56 0 0
0.6 0 0
0.64 0 0
0.68 0 0
0.72 0 0
0.76 0 0
0.8 0 0
0.84 0 0
0.88 0 0
0.92 0 0
0.96 0 0
1 0 0
1.04 0 0
1.08 0 0
1.12 0 0
1.16 0 0
1.2 0 0
1.24 0 0
1.28 0 0
1.32 0 0
1.36 0 0
1.4 0 0
1.44 0 0
1.48 0 0
1.52 0 0
1.56 0 0
1.6 0 0
1.64 0 0
1.68 0 0
1.72 0 0
1.76 0 0
1.8 0 0
1.84 0 0
1.88 0 0
1.92 0 0
1.96 0 0
2 0 0
2.04 0 0
2.08 0 0
2.12 0 0
2.16 0 0
2.2 0 0
2.24 0 0
2.28 0 0
2.32 0 0
2.36 0 0
2.4 0 0
2.44 0 0
2.48 0 0
2.52 0 0
2.56 0 0
2.6 0 0
2.64 0 0
2.68 0 0
2.72 0 0
2.76 0 0
2.8 0 0
2.84 0 0
2.88 0 0
2.92 0 0
2.96 0 0
3 0 0
3.04 0 0
3.08 0 0
3.12 0 0
3.16 0 0
3.2 0 0
3.24 0 0
3.28 0 0
3.32 0 0
3.36 0 0
3.4 0 0
3.44 0 0
3.48 0 0
3.52 0 0
3.56 0 0
3.6 0 0
3.64 0 0
3.68 0 0
3.72 0 0
3.76 0 0
3.8 0 0
3.84 0 0
3.88 0 0
3.92 0 0
3.96 0 0
4 0 0
4.04 0 0
4.08 0 0
4.12 0 0
4.16 0 0
4.2 0 0
4.24 0 0
4.28 0 0
4.32 0 0
4.36 0 0
4.4 0 0
4.44 0 0
4.48 0 0
4.52 0 0
4.56 0 0
4.6 0 0
4.64 0 0
4.68 0 0
4.72 0 0
4.76 0 0
4.8 0 0
4.84 0 0
4.88 0 0
4.92 0 0
4.96 0 0
5 0 0
5.04 0 0
5.08 0 0
5.12 0 0
5.16 0 0
5.2 0 0
5.24 0 0
5.28 0 0
5.32 0 0
5.36 0 0
5.4 0 0
5.44 0 0
5.48 0 0
5.52 0 0
5.56 0 0
5.6 0 0
5.64 0 0
5.68 0 0
5.72 0 0
5.76 0 0
5.8 0 0
5.84 0 0
5.88 0 0
5.92 0 0
5.96 0 0
6 0 0
6.04 0 0
6.08 0 0
6.12 0 0
6.16 0 0
6.2 0 0
6.24 0 0
6.28 0 0
6.32 0 0
6.36 0 0
6.4 0 0
6.44 0 0
6.48 0 0
6.52 0 0
6.56 0 0
6.6 0 0
6.64 0 0
6.68 0 0
6.72 0 0
6.76 0 0
6.8 0 0
6.84 0 0
6.88 0 0
6.92 0 0
6.96 0 0
7 0 0
7.04 0 0
7.08 0 0
7.12 0 0
7.16 0 0
7.2 0 0
7.24 0 0
7.28 0 0
7.32 0 0
7.36 0 0
7.4 0 0
7.44 0 0
7.48 0 0
7.52 0 0
7.56 0 0
7.6 0 0
7.64 0 0
7.68 0 0
7.72 0 0
7.76 0 0
7.8 0 0
7.84 0 0
7.88 0 0
7.92 0 0
7.96 0 0
8 0 0
8.04 0 0
8.08 0 0
8.12 0 0
8.16 0 0
8.2 0 0
8.24 0 0
8.28 0 0
8.32 0 0
8.36 0 0
8.4 0 0
8.44 0 0
8.48 0 0
8.52 0 0
8.56 0 0
8.6 0 0
8.64 0 0
8.68 0 0
8.72 0 0
8.76 0 0
8.8 0 0
8.84 0 0
8.88 0 0
8.92 0 0
8.96 0 0
9 0 0
9.04 0 0
9.08 0 0
9.12 0 0
9.16 0 0
9.2 0 0
9.24 0 0
9.28 0 0
9.32 0 0
9.36 0 0
9.4 0 0
9.44 0 0
9.48 0 0
9.52 0 0
9.56 0 0
9.6 0 0
9.64 0 0
9.68 0 0
9.72 0 0
9.76 0 0
9.8 0 0
9.84 0 0
9.88 0 0
9.92 0 0
9.96 0 0
10 0 0
10.04 0 0
10.08 0 0
10.12 0 0
10.16 0 0
10.2 0 0
10.24 0 0
10.28 0 0
10.32 0 0
10.36 0 0
10.4 0 0
10.44 0 0
10.48 0 0
10.52 0 0
10.56 0 0
10.6 0 0
10.64 0 0
10.68 0 0
10.72 0 0
10.76 0 0
10.8 0 0
10.84 0 0
10.88 0 0
10.92 0 0
10.96 0 0
11 0 0
11.04 0 0
11.08 0 0
11.12 0 0
11.16 0 0
11.2 0 0
11.24 0 0
11.28 0 0
11.32 0 0
11.36 0 0
11.4 0 0
11.44 0 0
11.48 0 0
11.52 0 0
11.56 0 0
11.6 0 0
11.64 0 0
11.68 0 0
11.72 0 0
11.76 0 0
11.8 0 0
11.84 0 0
11.88 0 0
11.92 0 0
11.96 0 0
12 0 0
12.04 0 0
12.08 0 0
12.12 0 0
12.16 0 0
12.2 0 0
12.24 0 0
12.28 0 0
12.32 0 0
12.36 0 0
12.4 0 0
12.44 0 0
12.48 0 0
12.52 0 0
12.56 0 0
12.6 0 0
12.64 0 0
12.68 0 0
12.72 0 0
12.76 0 0
12.8 0 0
12.84 0 0
12.88 0 0
12.92 0 0
12.96 0 0
13 0 0
13.04 0 0
13.08 0 0
13.12 0 0
13.16 0 0
13.2 0 0
13.24 0 0
13.28 0 0
13.32 0 0
13.36 0 0
13.4 0 0
13.44 0 0
13.48 0 0
13.52 0 0
13.56 0 0
13.6 0 0
13.64 0 0
13.68 0 0
13.72 0 0
13.76 0 0
13.8 0 0
13.84 0 0
13.88 0 0
13.92 0 0
13.96 0 0
14 0 0
14.04 0 0
14.08 0 0
14.12 0 0
14.16 0 0
14.2 0 0
14.24 0 0
14.28 0 0
14.32 0 0
14.36 0 0
14.4 0 0
14.44 0 0
14.48 0 0
14.52 0 0
14.56 0 0
14.6 0 0
14.64 0 0
14.68 0 0
14.72 0 0
14.76 0 0
14.8 0 0
14.84 0 0
14.88 0 0
14.92 0 0
14.96 0 0
15 0 0
15.04 0 0
15.08 0 0
15.12 0 0
15.16 0 0
15.2 0 0
15.24 0 0
15.28 0 0
15.32 0 0
15.36 0 0
15.4 0 0
15.44 0 0
15.48 0 0
15.52 0 0
15.56 0 0
15.6 0 0
15.64 0 0
15.68 0 0
15.72 0 0
15.76 0 0
15.8 0 0
15.84 0 0
15.88 0 0
15.92 0 0
15.96 0 0
16 0 0
16.04 0 0
16.08 0 0
16.12 0 0
16.16 0 0
16.2 0 0
16.24 0 0
16.28 0 0
16.32 0 0
16.36 0 0
16.4 0 0
16.44 0 0
16.48 0 0
16.52 0 0
16.56 0 0
16.6 0 0
16.64 0 0
16.68 0 0
16.72 0 0
16.76 0 0
16.8 0 0
16.84 0 0
16.88 0 0
16.92 0 0
16.96 0 0
17 0 0
17.04 0 0
17.08 0 0
17.12 0 0
17.16 0 0
17.2 0 0
17.24 0 0
17.28 0 0
17.32 0 0
17.36 0 0
17.4 0 0
17.44 0 0
17.48 0 0
17.52 0 0
17.56 0 0
17.6 0 0
17.64 0 0
17.68 0 0
17.72 0 0
17.76 0 0
17.8 0 0
17.84 0 0
17.88 0 0
17.92 0 0
17.96 0 0
18 0 0
18.04 0 0
18.08 0 0
18.12 0 0
18.16 0 0
18.2 0 0
18.24 0 0
18.28 0 0
18.32 0 0
18.36 0 0
18.4 0 0
18.44 0 0
18.48 0 0
18.52 0 0
18.56 0 0
18.6 0 0
18.64 0 0
18.68 0 0
18.72 0 0
18.76 0 0
18.8 0 0
18.84 0 0
18.88 0 0
18.92 0 0
18.96 0 0
19 0 0
19.04 0 0
19.08 0 0
19.12 0 0
19.16 0 0
19.2 0 0
19.24 0 0
19.28 0 0
19.32 0 0
19.36 0 0
19.4 0 0
19.44 0 0
19.48 0 0
19.52 0 0
19.56 0 0
19.6 0 0
19.64 0 0
19.68 0 0
19.72 0 0
19.76 0 0
19.8 0 0
19.84 0 0
19.88 0 0
19.92 0 0
19.96 0 0
20 0 0
20.04 0 0
20.08 0 0
20.12 0 0
20.16 0 0
20.2 0 0
20.24 0 0
20.28 0 0
20.32 0 0
20.36 0 0
20.4 0 0
20.44 0 0
20.48 0 0
20.52 0 0
20.56 0 0
20.6 0 0
20.64 0 0
20.68 0 0
20.72 0 0
20.76 0 0
20.8 0 0
20.84 0 0
20.88 0 0
20.92 0 0
20.96 0 0
21 0 0
21.04 0 0
21.08 0 0
21.12 0 0
21.16 0 0
21.2 0 0
21.24 0 0
21.28 0 0
21.32 0 0
21.36 0 0
21.4 0 0
21.44 0 0
21.48 0 0
21.52 0 0
21.56 0 0
21.6 0 0
21.64 0 0
21.68 0 0
21.72 0 0
21.76 0 0
21.8 0 0
21.84 0 0
21.88 0 0
21.92 0 0
21.96 0 0
22 0 0
22.04 0 0
22.08 0 0
22.12 0 0
22.16 0 0
22.2 0 0
22.24 0 0
22.28 0 0
22.32 0 0
22.36 0 0
22.4 0 0
22.44 0 0
22.48 0 0
22.52 0 0
22.56 0 0
22.6 0 0
22.64 0 0
22.68 0 0
22.72 0 0
22.76 0 0
22.8 0 0
22.84 0 0
22.88 0 0
22.92 0 0
22.96 0 0
23 0 0
23.04 0 0
23.08 0 0
23.12 0 0
23.16 0 0
23.2 0 0
23.24 0 0
23.28 0 0
23.32 0 0
23.36 0 0
23.4 0 0
23.44 0 0
23.48 0 0
23.52 0 0
23.56 0 0
23.6 0 0
23.64 0 0
23.68 0 0
23.72 0 0
23.76 0 0
23.8 0 0
23.84 0 0
23.88 0 0
23.92 0 0
23.96 0 0
24 0 0
24.04 0 0
24.08 0 0
24.12 0 0
24.16 0 0
24.2 0 0
24.24 0 0
24.28 0 0
24.32 0 0
24.36 0 0
24.4 0 0
24.44 0 0
24.48 0 0
24.52 0 0
24.56 0 0
24.6 0 0
24.64 0 0
24.68 0 0
24.72 0 0
24.76 0 0
24.8 0 0
24.84 0 0
24.88 0 0
24.92 0 0
24.96 0 0
25 0 0
25.04 0 0
25.08 0 0
25.12 0 0
25.16 0 0
25.2 0 0
25.24 0 0
25.28 0 0
25.32 0 0
25.36 0 0
25.4 0 0
25.44 0 0
25.48 0 0
25.52 0 0
25.56 0 0
25.6 0 0
25.64 0 0
25.68 0 0
25.72 0 0
25.76 0 0
25.8 0 0
25.84 0 0
25.88 0 0
25.92 0 0
25.96 0 0
26 0 0
26.04 0 0
26.08 0 0
26.12 0 0
26.16 0 0
26.2 0 0
26.24 0 0
26.28 0 0
26.32 0 0
26.36 0 0
26.4 0 0
26.44 0 0
26.48 0 0
26.52 0 0
26.56 0 0
26.6 0 0
26.64 0 0
26.68 0 0
26.72 0 0
26.76 0 0
26.8 0 0
26.84 0 0
26.88 0 0
26.92 0 0
26.96 0 0
27 0 0
27.04 0 0
27.08 0 0
27.12 0 0
27.16 0 0
27.2 0 0
27.24 0 0
27.28 0 0
27.32 0 0
27.36 0 0
27.4 0 0
27.44 0 0
27.48 0 0
27.52 0 0
27.56 0 0
27.6 0 0
27.64 0 0
27.68 0 0
27.72 0 0
27.76 0 0
27.8 0 0
27.84 0 0
27.88 0 0
27.92 0 0
27.96 0 0
28 0 0
28.04 0 0
28.08 0 0
28.12 0 0
28.16 0 0
28.2 0 0
28.24 0 0
28.28 0 0
28.32 0 0
28.36 0 0
28.4 0 0
28.44 0 0
28.48 0 0
28.52 0 0
28.56 0 0
28.6 0 0
28.64 0 0
28.68 0 0
28.72 0 0
28.76 0 0
28.8 0 0
28.84 0 0
28.88 0 0
28.92 0 0
28.96 0 0
29 0 0
29.04 0 0
29.08 0 0
29.12 0 0
29.16 0 0
29.2 0 0
29.24 0 0
29.28 0 0
29.32 0 0
29.36 0 0
29.4 0 0
29.44 0 0
29.48 0 0
29.52 0 0
29.56 0 0
29.6 0 0
29.64 0 0
29.68 0 0
29.72 0 0
29.76 0 0
29.8 0 0
29.84 0 0
29.88 0 0
29.92 0 0
29.96 0 0
30 0 0
30.04 0 0
30.08 0 0
30.12 0 0
30.16 0 0
30.2 0 0
30.24 0 0
30.28 0 0
30.32 0 0
30.36 0 0
30.4 0 0
30.44 0 0
30.48 0 0
30.52 0 0
30.56 0 0
30.6 0 0
30.64 0 0
30.68 0 0
30.72 0 0
30.76 0 0
30.8 0 0
30.84 0 0
30.88 0 0
30.92 0 0
30.96 0 0
31 0 0
31.04 0 0
31.08 0 0
31.12 0 0
31.16 0 0
31.2 0 0
31.24 0 0
31.28 0 0
31.32 0 0
31.36 0 0
31.4 0 0
31.44 0 0
31.48 0 0
31.52 0 0
31.56 0 0
31.6 0 0
31.64 0 0
31.68 0 0
31.72 0 0
31.76 0 0
31.8 0 0
31.84 0 0
31.88 0 0
31.92 0 0
31.96 0 0
0 0.005 0
0.04 0.005 0
0.08 0.005 0
0.12 0.005 0
0.16 0.005 0
0.2 0.005 0
0.24 0.005 0
0.28 0.005 0
0.32 0.005 0
0.36 0.005 0
0.4 0.005 0
0.44 0.005 0
0.48 0.005 0
0.52 0.005 0
0.56 0.005 0
0.6 0.005 0
0.64 0.005 0
0.68 0.005 0
0.72 0.005 0
0.76 0.005 0
0.8 0.005 0
0.84 0.005 0
0.88 0.005 0
0.92 0.005 0
0.96 0.005 0
1 0.005 0
1.04 0.005 0
1.08 0.005 0
1.12 0.005 0
1.16 0.005 0
1.2 0.005 0
1.24 0.005 0
1.28 0.005 0
1.32 0.005 0
1.36 0.005 0
1.4 0.005 0
1.44 0.005 0
1.48 0.005 0
1.52 0.005 0
1.56 0.005 0
1.6 0.005 0
1.64 0.005 0
1.68 0.005 0
1.72 0.005 0
1.76 0.005 0
1.8 0.005 0
1.84 0.005 0
1.88 0.005 0
1.92 0.005 0
1.96 0.005 0
2 0.005 0
2.04 0.005 0
2.08 0.005 0
2.12 0.005 0
2.16 0.005 0
2.2 0.005 0
2.24 0.005 0
2.28 0.005 0
2.32 0.005 0
2.36 0.005 0
2.4 0.005 0
2.44 0.005 0
2.48 0.005 0
2.52 0.005 0
2.56 0.005 0
2.6 0.005 0
2.64 0.005 0
2.68 0.005 0
2.72 0.005 0
2.76 0.005 0
2.8 0.005 0
2.84 0.005 0
2.88 0.005 0
2.92 0.005 0
2.96 0.005 0
3 0.005 0
3.04 0.005 0
3.08 0.005 0
3.12 0.005 0
3.16 0.005 0
3.2 0.005 0
3.24 0.005 0
3.28 0.005 0
3.32 0.005 0
3.36 0.005 0
3.4 0.005 0
3.44 0.005 0
3.48 0.005 0
3.52 0.005 0
3.56 0.005 0
3.6 0.005 0
3.64 0.005 0
3.68 0.005 0
3.72 0.005 0
3.76 0.005 0
3.8 0.005 0
3.84 0.005 0
3.88 0.005 0
3.92 0.005 0
3.96 0.005 0
4 0.005 0
4.04 0.005 0
4.08 0.005 0
4.12 0.005 0
4.16 0.005 0
4.2 0.005 0
4.24 0.005 0
4.28 0.005 0
4.32 0.005 0
4.36 0.005 0
4.4 0.005 0
4.44 0.005 0
4.48 0.005 0
4.52 0.005 0
4.56 0.005 0
4.6 0.005 0
4.64 0.005 0
4.68 0.005 0
4.72 0.005 0
4.76 0.005 0
4.8 0.005 0
4.84 0.005 0
4.88 0.005 0
4.92 0.005 0
4.96 0.005 0
5 0.005 0
5.04 0.005 0
5.08 0.005 0
5.12 0.005 0
5.16 0.005 0
5.2 0.005 0
5.24 0.005 0
5.28 0.005 0
5.32 0.005 0
5.36 0.005 0
5.4 0.005 0
5.44 0.005 0
5.48 0.005 0
5.52 0.005 0
5.56 0.005 0
5.6 0.005 0
5.64 0.005 0
5.68 0.005 0
5.72 0.005 0
5.76 0.005 0
5.8 0.005 0
5.84 0.005 0
5.88 0.005 0
5.92 0.005 0
5.96 0.005 0
6 0.005 0
6.04 0.005 0
6.08 0.005 0
6.12 0.005 0
6.16 0.005 0
6.2 0.005 0
6.24 0.005 0
6.28 0.005 0
6.32 0.005 0
6.36 0.005 0
6.4 0.005 0
6.44 0.005 0
6.48 0.005 0
6.52 0.005 0
6.56 0.005 0
6.6 0.005 0
6.64 0.005 0
6.68 0.005 0
6.72 0.005 0
6.76 0.005 0
6.8 0.005 0
6.84 0.005 0
6.88 0.005 0
6.92 0.005 0
6.96 0.005 0
7 0.005 0
7.04 0.005 0
7.08 0.005 0
7.12 0.005 0
7.16 0.005 0
7.2 0.005 0
7.24 0.005 0
7.28 0.005 0
7.32 0.005 0
7.36 0.005 0
7.4 0.005 0
[...]
POINT_DATA 160000

SCALARS v float 1
LOOKUP_TABLE default
0
0
0
0
0
0
0
0
0
0
0
0
0
0
0
0
0
0
0
0
0
0
0
0
0
0
0
0
0
0
0
0
0
0
0
0
0
0
0
0
0
0
0
0
0
0
0
0
0
0
0
0
0
0
0
0
0
0
0
0
0
0
0
0
0
0
0
0
0
0
0
0
0
0
0
0
0
0
0
0
0
0
0
0
0
0
0
0
0
0
0
0
0
0
0
0
0
0
0
0
0
0
0
0
0
0
0
0
0
0
0
0
0
0
0
0
0
0
0
0
0
0
0
0
0
0
0
0
0
0
0
0
0
0
0
0
0
0
0
0
0
0
0
0
0
0
0
0
0
0
0
0
0
0
0
0
0
0
0
0
0
0
0
0
0
0
0
0
0
0
0
0
0
0
0
0
0
0
0
0
0
0
0
0
0
0
0
0
0
0
0
0
0
0
0
0
0
0
0
0
0
0
0
0
0
0
0
0
0
0
0
0
0
0
0
0
0
0
0
0
0
0
0
0
0
0
0
0
0
0
0
0
0
0
0
0
0
0
0
0
0
0
0
0
0
0
0
0
0
0
0
0
0
0
0
0
0
0
0
0
0
0
0
0
0
0
0
0
0
0
0
0
0
0
0
0
0
0
0
0
0
0
0
0
0
0
0
0
0
0
0
0
0
0
0
0
0
0
0
0
0
0
0
0
0
0
0
0
0
0
0
0
0
0
0
0
0
0
0
0
0
0
0
0
0
0
0
0
0
0
0
0
0
0
0
0
0
0
0
0
0
0
0
0
0
0
0
0
0
0
0
0
0
0
0
0
0
0
0
0
0
0
0
0
0
0
0
0
0
0
0
0
0
0
0
0
0
0
0
0
0
0
0
0
0
0
0
0
0
0
0
0
0
0
0
0
0
0
0
0
0
0
0
0
0
0
0
0
0
0
0
0
0
0
0
0
0
0
0
0
0
0
0
0
0
0
0
0
0
0
0
0
0
0
0
0
0
0
0
0
0
0
0
0
0
0
0
0
0
0
0
0
0
0
0
0
0
0
0
0
0
0
0
0
0
0
0
0
0
0
0
0
0
0
0
0
0
0
0
0
0
0
0
0
0
0
0
0
0
0
0
0
0
0
0
0
0
0
0
0
0
0
0
0
0
0
0
0
0
0
0
0
0
0
0
0
0
0
0
0
0
0
0
0
0
0
0
0
0
0
0
0
0
0
0
0
0
0
0
0
0
0
0
0
0
0
0
0
0
0
0
0
0
0
0
0
0
0
0
0
0
0
0
0
0
0
0
0
0
0
0
0
0
0
0
0
0
0
0
0
0
0
0
0
0
0
0
0
0
0
0
0
0
0
0
0
0
0
0
0
0
0
0
0
0
0
0
0
0
0
0
0
0
0
0
0
0
0
0
0
0
0
0
0
0
0
0
0
0
0
0
0
0
0
0
0
0
0
0
0
0
0
0
0
0
0
0
0
0
0
0
0
0
0
0
0
0
0
0
0
0
0
0
0
0
0
0
0
0
0
0
0
0
0
0
0
0
0
0
0
0
0
0
0
0
0
0
0
0
0
0
0
0
0
0
0
0
0
0
0
0
0
0
0
0
0
0
0
0
0
0
0
0
0
0
0
0
0
0
0
0
0
0
0
0
0
0
0
0
0
0
0
0
0
0
0
0
0
0
0
0
0
0
0
0
0
0
0
0
0
0
0
0
0
0
0
0
0
0
0
0
0
0
0
0
0
0
0
0
0
0
0
0
0
0
0
0
0
0
0
0
0
0
0
0
0
0
0
0
0
0
0
0
0
0
0
0
0
0
0
0
0
0.0374157
0.00938109
0.00346793
0.00176631
0.00108083
0.000737075
0.000538297
0.000411753
0.000325554
0.000263865
0.000218044
0.000183014
0.000155612
0.000133776
0.000116103
0.000101612
8.95931e-05
7.95252e-05
7.10154e-05
6.37635e-05
5.75368e-05
5.21526e-05
4.74662e-05
4.33615e-05
3.97452e-05
3.65412e-05
3.36873e-05
3.11325e-05
2.88343e-05
2.67578e-05
2.48734e-05
2.31565e-05
2.15863e-05
2.01452e-05
1.88181e-05
1.75924e-05
1.64569e-05
1.54021e-05
1.442e-05
1.35033e-05
1.26459e-05
1.18422e-05
1.10875e-05
1.03776e-05
9.70864e-06
9.07733e-06
8.4807e-06
7.91606e-06
7.38102e-06
6.87341e-06
6.39128e-06
5.93283e-06
5.49649e-06
5.08075e-06
4.68429e-06
4.30588e-06
3.94437e-06
3.59874e-06
3.26803e-06
2.95136e-06
2.64791e-06
2.35693e-06
2.07771e-06
1.80961e-06
1.55203e-06
1.30439e-06
1.06618e-06
8.36902e-07
6.16106e-07
4.03358e-07
1.98256e-07
4.24483e-10
-1.90485e-07
-3.74803e-07
-5.52843e-07
-7.24898e-07
-8.91243e-07
-1.05214e-06
-1.20782e-06
-1.35853e-06
-1.50448e-06
-1.64588e-06
-1.78293e-06
-1.9158e-06
-2.04467e-06
-2.16971e-06
-2.29107e-06
-2.40891e-06
-2.52335e-06
-2.63455e-06
-2.74262e-06
-2.84769e-06
-2.94987e-06
-3.04927e-06
-3.14599e-06
-3.24014e-06
-3.33181e-06
-3.42108e-06
-3.50806e-06
-3.59282e-06
-3.67544e-06
-3.75598e-06
-3.83453e-06
-3.91115e-06
-3.98592e-06
-4.05889e-06
-4.13012e-06
-4.19967e-06
-4.26759e-06
-4.33395e-06
-4.39879e-06
-4.46215e-06
-4.52409e-06
-4.58465e-06
-4.64388e-06
-4.70181e-06
-4.75848e-06
-4.81395e-06
-4.86823e-06
-4.92137e-06
-4.97339e-06
-5.02434e-06
-5.07425e-06
-5.12314e-06
-5.17105e-06
-5.218e-06
-5.26401e-06
-5.30912e-06
-5.35336e-06
-5.39675e-06
-5.4393e-06
-5.48105e-06
-5.522e-06
-5.56219e-06
-5.60165e-06
-5.64038e-06
-5.67839e-06
-5.71573e-06
-5.75239e-06
-5.78841e-06
-5.8238e-06
-5.85856e-06
-5.89272e-06
-5.92628e-06
-5.95928e-06
-5.99172e-06
-6.02361e-06
-6.05497e-06
-6.08581e-06
-6.11615e-06
-6.14599e-06
-6.17535e-06
-6.20423e-06
-6.23265e-06
-6.26062e-06
-6.28816e-06
-6.31527e-06
-6.34195e-06
-6.36822e-06
-6.39409e-06
-6.41957e-06
-6.44466e-06
-6.46938e-06
-6.49373e-06
-6.51772e-06
-6.54136e-06
-6.56465e-06
-6.58761e-06
-6.61023e-06
-6.63253e-06
-6.65452e-06
-6.67619e-06
-6.69756e-06
-6.71863e-06
-6.73941e-06
-6.7599e-06
-6.78012e-06
-6.80005e-06
-6.81971e-06
-6.83911e-06
-6.85825e-06
-6.87714e-06
-6.89577e-06
-6.91416e-06
-6.9323e-06
-6.95022e-06
-6.96789e-06
-6.98534e-06
-7.00257e-06
-7.01958e-06
-7.03636e-06
-7.05294e-06
-7.0693e-06
-7.08546e-06
-7.10143e-06
-7.11719e-06
-7.13276e-06
-7.14813e-06
-7.16331e-06
-7.17832e-06
-7.19314e-06
-7.20778e-06
-7.22224e-06
-7.23652e-06
-7.25064e-06
-7.26459e-06
-7.27838e-06
-7.292e-06
-7.30546e-06
-7.31876e-06
-7.33191e-06
-7.34489e-06
-7.35774e-06
-7.37043e-06
-7.38298e-06
-7.39538e-06
-7.40763e-06
-7.41975e-06
-7.43174e-06
-7.44358e-06
-7.45529e-06
-7.46687e-06
-7.47832e-06
-7.48964e-06
-7.50083e-06
-7.5119e-06
-7.52285e-06
-7.53367e-06
-7.54437e-06
-7.55495e-06
-7.56542e-06
-7.57577e-06
-7.586e-06
-7.59613e-06
-7.60615e-06
-7.61606e-06
-7.62586e-06
-7.63555e-06
-7.64513e-06
-7.65461e-06
-7.66399e-06
-7.67327e-06
-7.68245e-06
-7.69153e-06
-7.70051e-06
-7.7094e-06
-7.71819e-06
-7.72689e-06
-7.7355e-06
-7.74401e-06
-7.75244e-06
-7.76077e-06
-7.76901e-06
-7.77717e-06
-7.78525e-06
-7.79324e-06
-7.80114e-06
-7.80896e-06
-7.81669e-06
-7.82435e-06
-7.83193e-06
-7.83943e-06
-7.84685e-06
-7.85419e-06
-7.86145e-06
-7.86864e-06
-7.87576e-06
-7.88281e-06
-7.88977e-06
-7.89667e-06
-7.90349e-06
-7.91025e-06
-7.91693e-06
-7.92354e-06
-7.93009e-06
-7.93657e-06
-7.94298e-06
-7.94933e-06
-7.95561e-06
-7.96183e-06
-7.96798e-06
-7.97406e-06
-7.98009e-06
-7.98606e-06
-7.99196e-06
-7.9978e-06
-8.00358e-06
-8.0093e-06
-8.01497e-06
-8.02058e-06
-8.02613e-06
-8.03162e-06
-8.03706e-06
-8.04244e-06
-8.04777e-06
-8.05304e-06
-8.05826e-06
-8.06343e-06
-8.06854e-06
-8.0736e-06
-8.07862e-06
-8.08358e-06
-8.08849e-06
-8.09334e-06
-8.09815e-06
-8.10291e-06
-8.10762e-06
-8.11229e-06
-8.1169e-06
-8.12147e-06
-8.126e-06
-8.13047e-06
-8.13491e-06
-8.1393e-06
-8.14364e-06
-8.14794e-06
-8.1522e-06
-8.15642e-06
-8.16059e-06
-8.16471e-06
-8.16879e-06
-8.17283e-06
-8.17684e-06
-8.1808e-06
-8.18473e-06
-8.18862e-06
-8.19246e-06
-8.19626e-06
-8.20004e-06
-8.20377e-06
-8.20746e-06
-8.21111e-06
-8.21473e-06
-8.21831e-06
-8.22186e-06
-8.22537e-06
-8.22884e-06
-8.23228e-06
-8.23568e-06
-8.23905e-06
-8.24239e-06
-8.24569e-06
-8.24896e-06
-8.25219e-06
-8.2554e-06
-8.25857e-06
-8.2617e-06
-8.26481e-06
-8.26789e-06
-8.27093e-06
-8.27394e-06
-8.27692e-06
-8.27988e-06
-8.2828e-06
-8.28569e-06
-8.28855e-06
-8.29139e-06
-8.29419e-06
-8.29697e-06
-8.29971e-06
-8.30244e-06
-8.30513e-06
-8.30779e-06
-8.31043e-06
-8.31305e-06
-8.31563e-06
-8.31819e-06
-8.32072e-06
-8.32323e-06
-8.32572e-06
-8.32818e-06
-8.33061e-06
-8.33302e-06
-8.3354e-06
-8.33776e-06
-8.34011e-06
-8.34242e-06
-8.34472e-06
-8.34699e-06
-8.34923e-06
-8.35147e-06
-8.35368e-06
-8.35587e-06
-8.35803e-06
-8.36019e-06
-8.36232e-06
-8.36443e-06
-8.36652e-06
-8.36858e-06
-8.37064e-06
-8.37268e-06
-8.3747e-06
-8.37671e-06
-8.3787e-06
-8.38067e-06
-8.38262e-06
-8.38457e-06
-8.3865e-06
-8.38841e-06
-8.39031e-06
-8.3922e-06
-8.39407e-06
-8.39593e-06
-8.39779e-06
-8.39963e-06
-8.40146e-06
-8.40328e-06
-8.40508e-06
-8.40688e-06
-8.40866e-06
-8.41044e-06
-8.41221e-06
-8.41397e-06
-8.41572e-06
-8.41746e-06
-8.4192e-06
-8.42093e-06
-8.42265e-06
-8.42437e-06
-8.42608e-06
-8.42777e-06
-8.42946e-06
-8.43115e-06
-8.43284e-06
-8.43451e-06
-8.43618e-06
-8.43784e-06
-8.4395e-06
-8.44115e-06
-8.44279e-06
-8.44444e-06
-8.44608e-06
-8.44771e-06
-8.44933e-06
-8.45095e-06
-8.45257e-06
-8.45419e-06
-8.45579e-06
-8.45739e-06
-8.45899e-06
-8.46058e-06
-8.46216e-06
-8.46374e-06
-8.46532e-06
-8.46688e-06
-8.46844e-06
-8.46999e-06
-8.47154e-06
-8.47309e-06
-8.47462e-06
-8.47615e-06
-8.47768e-06
-8.4792e-06
-8.48071e-06
-8.4822e-06
-8.48369e-06
-8.48518e-06
-8.48666e-06
-8.48814e-06
-8.48959e-06
-8.49104e-06
-8.49248e-06
-8.49392e-06
-8.49534e-06
-8.49675e-06
-8.49815e-06
-8.49954e-06
-8.50092e-06
-8.50229e-06
-8.50365e-06
-8.505e-06
-8.50633e-06
-8.50765e-06
-8.50896e-06
-8.51026e-06
-8.51154e-06
-8.51282e-06
-8.51408e-06
-8.51532e-06
-8.51655e-06
-8.51776e-06
-8.51897e-06
-8.52016e-06
-8.52134e-06
-8.5225e-06
-8.52364e-06
-8.52477e-06
-8.52589e-06
-8.52699e-06
-8.52807e-06
-8.52914e-06
-8.5302e-06
-8.53123e-06
-8.53225e-06
-8.53326e-06
-8.53425e-06
-8.53522e-06
-8.53617e-06
-8.5371e-06
-8.53803e-06
-8.53894e-06
-8.53984e-06
-8.54071e-06
-8.54157e-06
-8.5424e-06
-8.54323e-06
-8.54403e-06
-8.54482e-06
-8.5456e-06
-8.54635e-06
-8.54709e-06
-8.54782e-06
-8.54853e-06
-8.54922e-06
-8.54989e-06
-8.55055e-06
-8.55119e-06
-8.55182e-06
-8.55243e-06
-8.55303e-06
-8.55361e-06
-8.55417e-06
-8.55472e-06
-8.55526e-06
-8.55578e-06
-8.55629e-06
-8.55678e-06
-8.55726e-06
-8.55772e-06
-8.55817e-06
-8.5586e-06
-8.55902e-06
-8.55943e-06
-8.55982e-06
-8.56021e-06
-8.56058e-06
-8.56094e-06
-8.56128e-06
-8.56161e-06
-8.56194e-06
-8.56224e-06
-8.56254e-06
-8.56282e-06
-8.5631e-06
-8.56337e-06
-8.56363e-06
-8.56387e-06
-8.56411e-06
-8.56433e-06
-8.56455e-06
-8.56476e-06
-8.56495e-06
-8.56514e-06
-8.56533e-06
-8.5655e-06
-8.56567e-06
-8.56583e-06
-8.56598e-06
-8.56612e-06
-8.56626e-06
-8.56639e-06
-8.56651e-06
-8.56663e-06
-8.56675e-06
-8.56685e-06
-8.56695e-06
-8.56705e-06
-8.56714e-06
-8.56723e-06
-8.56731e-06
-8.56739e-06
-8.56746e-06
-8.56753e-06
-8.56759e-06
-8.56765e-06
-8.56771e-06
-8.56776e-06
-8.56781e-06
-8.56787e-06
-8.56792e-06
-8.56796e-06
-8.56799e-06
-8.56803e-06
-8.56807e-06
-8.5681e-06
-8.56814e-06
-8.56817e-06
-8.5682e-06
-8.56822e-06
-8.56825e-06
-8.56827e-06
-8.56829e-06
-8.56831e-06
-8.56834e-06
-8.56836e-06
-8.56838e-06
-8.56839e-06
-8.56841e-06
-8.56842e-06
-8.56844e-06
-8.56846e-06
-8.56847e-06
-8.56848e-06
-8.5685e-06
-8.56851e-06
-8.56852e-06
-8.56853e-06
-8.56855e-06
-8.56856e-06
-8.56857e-06
-8.56858e-06
-8.56859e-06
-8.5686e-06
-8.56861e-06
-8.56862e-06
-8.56864e-06
-8.56865e-06
-8.56866e-06
-8.56867e-06
-8.56868e-06
-8.56869e-06
-8.5687e-06
-8.56871e-06
-8.56872e-06
-8.56873e-06
-8.56874e-06
-8.56875e-06
-8.56876e-06
-8.56877e-06
-8.56878e-06
-8.56879e-06
-8.56881e-06
-8.56882e-06
-8.56883e-06
-8.56883e-06
-8.56885e-06
-8.56886e-06
-8.56886e-06
-8.56888e-06
-8.56889e-06
-8.5689e-06
-8.56891e-06
-8.56891e-06
-8.56892e-06
-8.56894e-06
-8.56895e-06
-8.56897e-06
-8.56898e-06
-8.56898e-06
-8.56899e-06
-8.569e-06
-8.56901e-06
-8.56902e-06
-8.56903e-06
-8.56905e-06
-8.56905e-06
-8.56906e-06
-8.56908e-06
-8.56909e-06
-8.5691e-06
-8.5691e-06
-8.56911e-06
-8.56913e-06
-8.56914e-06
-8.56915e-06
-8.56916e-06
-8.56917e-06
-8.56918e-06
-8.56919e-06
-8.5692e-06
-8.56921e-06
-8.56923e-06
-8.56924e-06
-8.56925e-06
-8.56926e-06
-8.56926e-06
-8.56927e-06
-8.56928e-06
-8.56929e-06
-8.5693e-06
-8.56932e-06
-8.56933e-06
-8.56933e-06
-8.56934e-06
-8.56936e-06
-8.56937e-06
-8.56938e-06
-8.56938e-06
-8.5694e-06
-8.56941e-06
-8.56942e-06
-8.56944e-06
-8.56945e-06
-8.56946e-06
-8.56947e-06
-8.56948e-06
-8.56948e-06
-8.56949e-06
-8.5695e-06
-8.56951e-06
-8.56952e-06
-8.56954e-06
-8.56955e-06
-8.56956e-06
-8.56957e-06
-8.56958e-06
-8.56959e-06
-8.56961e-06
-8.56962e-06
-8.56962e-06
-8.56963e-06
-8.56965e-06
-8.56966e-06
-8.56966e-06
-8.56967e-06
-8.56968e-06
-8.5697e-06
-8.56971e-06
-8.56972e-06
-8.56973e-06
-8.56974e-06
-8.56975e-06
-8.56976e-06
-8.56977e-06
-8.56978e-06
-8.56979e-06
-8.56979e-06
-8.56981e-06
-8.56983e-06
-8.56984e-06
-8.56984e-06
-8.56985e-06
-8.56987e-06
-8.56988e-06
-8.56989e-06
-8.5699e-06
-8.56991e-06
-8.56992e-06
-8.56993e-06
-8.56994e-06
-8.56995e-06
-8.56996e-06
-8.56997e-06
-8.56998e-06
-8.56999e-06
-8.57e-06
-8.57001e-06
-8.57003e-06
-8.57004e-06
-8.57005e-06
-8.57006e-06
-8.57007e-06
-8.57007e-06
-8.57009e-06
-8.57009e-06
-8.5701e-06
-8.57011e-06
-8.57012e-06
-8.57013e-06
-8.57014e-06
-8.57015e-06
-8.57015e-06
-8.57016e-06
-8.57016e-06
-8.57016e-06
-8.57016e-06
-8.57015e-06
-8.57014e-06
-8.57013e-06
-8.57011e-06
-8.57009e-06
-8.57005e-06
-8.56999e-06
-8.56992e-06
-8.56983e-06
-8.56972e-06
-8.56956e-06
-8.56937e-06
-8.56911e-06
-8.56879e-06
-8.56837e-06
-8.56785e-06
-8.56715e-06
-8.56632e-06
-8.56516e-06
-8.56384e-06
-8.56187e-06
-8.55979e-06
-8.55633e-06
-8.55318e-06
-8.54666e-06
-8.54248e-06
-8.52814e-06
-8.52695e-06
-8.48415e-06
-8.55685e-06
-6.05035e-06
-6.05035e-06
0
0
0.09661
0.0320526
0.0130061
0.00682633
0.00423603
0.00291409
0.00214246
0.00164838
0.00131051
0.00106803
0.000887526
0.000749278
0.000640974
0.000554552
0.000484527
0.000427048
0.000379333
0.00033933
0.000305494
0.000276641
0.000251854
0.000230412
0.000211742
0.000195385
0.000180972
0.0001682
0.000156824
0.00014664
0.00013748
0.000129203
0.000121694
0.000114854
0.000108599
0.00010286
9.75762e-05
9.2697e-05
8.81782e-05
8.3982e-05
8.00756e-05
7.64304e-05
7.30216e-05
6.98273e-05
6.68283e-05
6.40078e-05
6.13507e-05
5.88436e-05
5.64746e-05
5.4233e-05
5.21093e-05
5.00947e-05
4.81815e-05
4.63626e-05
4.46316e-05
4.29825e-05
4.14101e-05
3.99094e-05
3.84758e-05
3.71054e-05
3.57942e-05
3.45388e-05
3.33359e-05
3.21825e-05
3.10758e-05
3.00133e-05
2.89925e-05
2.80111e-05
2.70672e-05
2.61587e-05
2.52838e-05
2.44409e-05
2.36283e-05
2.28446e-05
2.20883e-05
2.13581e-05
2.06528e-05
1.99713e-05
1.93124e-05
1.86751e-05
1.80585e-05
1.74616e-05
1.68835e-05
1.63235e-05
1.57808e-05
1.52546e-05
1.47443e-05
1.42491e-05
1.37685e-05
1.33019e-05
1.28487e-05
1.24084e-05
1.19805e-05
1.15645e-05
1.11599e-05
1.07664e-05
1.03834e-05
1.00107e-05
9.64776e-06
9.2943e-06
8.94997e-06
8.61443e-06
8.28738e-06
7.96852e-06
7.65756e-06
7.35424e-06
7.05828e-06
6.76944e-06
6.48748e-06
6.21218e-06
5.9433e-06
5.68065e-06
5.42402e-06
5.17321e-06
4.92805e-06
4.68835e-06
4.45394e-06
4.22465e-06
4.00034e-06
3.78084e-06
3.56601e-06
3.35571e-06
3.14981e-06
2.94817e-06
2.75067e-06
2.55719e-06
2.36761e-06
2.18182e-06
1.99972e-06
1.82119e-06
1.64614e-06
1.47447e-06
1.30609e-06
1.14091e-06
9.78841e-07
8.19796e-07
6.63692e-07
5.10462e-07
3.60027e-07
2.12307e-07
6.72324e-08
-7.52678e-08
-2.15254e-07
-3.52785e-07
-4.87926e-07
-6.20738e-07
-7.51283e-07
-8.79618e-07
-1.00579e-06
-1.12985e-06
-1.25186e-06
-1.37186e-06
-1.48991e-06
-1.60604e-06
-1.72029e-06
-1.83273e-06
-1.94338e-06
-2.0523e-06
-2.15951e-06
-2.26505e-06
-2.36897e-06
-2.4713e-06
-2.57207e-06
-2.67133e-06
-2.76909e-06
-2.8654e-06
-2.96028e-06
-3.05377e-06
-3.14589e-06
-3.23668e-06
-3.32616e-06
-3.41436e-06
-3.5013e-06
-3.58701e-06
-3.67151e-06
-3.75484e-06
-3.83701e-06
-3.91804e-06
-3.99796e-06
-4.07679e-06
-4.15455e-06
-4.23126e-06
-4.30694e-06
-4.38161e-06
-4.45529e-06
-4.52799e-06
-4.59975e-06
-4.67056e-06
-4.74045e-06
-4.80945e-06
-4.87755e-06
-4.94478e-06
-5.01115e-06
-5.07669e-06
-5.14139e-06
-5.20528e-06
-5.26838e-06
-5.33069e-06
-5.39222e-06
-5.45299e-06
-5.51303e-06
-5.57233e-06
-5.63091e-06
-5.68877e-06
-5.74593e-06
-5.80241e-06
-5.85821e-06
-5.91335e-06
-5.96783e-06
-6.02166e-06
-6.07486e-06
-6.12743e-06
-6.17939e-06
-6.23073e-06
-6.28149e-06
-6.33165e-06
-6.38123e-06
-6.43024e-06
-6.47869e-06
-6.52659e-06
-6.57393e-06
-6.62074e-06
-6.66702e-06
-6.71278e-06
-6.75802e-06
-6.80274e-06
-6.84697e-06
-6.8907e-06
-6.93395e-06
-6.97671e-06
-7.01899e-06
-7.06081e-06
-7.10216e-06
-7.14306e-06
-7.18351e-06
-7.22352e-06
-7.2631e-06
-7.30223e-06
-7.34094e-06
-7.37923e-06
-7.4171e-06
-7.45456e-06
-7.49161e-06
-7.52827e-06
-7.56454e-06
-7.60041e-06
-7.63589e-06
-7.671e-06
-7.70573e-06
-7.74009e-06
-7.77409e-06
-7.80772e-06
-7.84099e-06
-7.87391e-06
-7.90648e-06
-7.93871e-06
-7.9706e-06
-8.00215e-06
-8.03336e-06
-8.06425e-06
-8.09481e-06
-8.12506e-06
-8.15499e-06
-8.18461e-06
-8.21391e-06
-8.2429e-06
-8.27159e-06
-8.29999e-06
-8.32809e-06
-8.3559e-06
-8.38342e-06
-8.41065e-06
-8.4376e-06
-8.46427e-06
-8.49066e-06
-8.51678e-06
-8.54263e-06
-8.56821e-06
-8.59354e-06
-8.6186e-06
-8.6434e-06
-8.66794e-06
-8.69224e-06
-8.71628e-06
-8.74007e-06
-8.76363e-06
-8.78694e-06
-8.81e-06
-8.83284e-06
-8.85544e-06
-8.87781e-06
-8.89995e-06
-8.92186e-06
-8.94355e-06
-8.96502e-06
-8.98627e-06
-9.0073e-06
-9.02812e-06
-9.04873e-06
-9.06912e-06
-9.08931e-06
-9.1093e-06
-9.12908e-06
-9.14866e-06
-9.16804e-06
-9.18721e-06
-9.2062e-06
-9.22499e-06
-9.2436e-06
-9.26201e-06
-9.28024e-06
-9.29828e-06
-9.31614e-06
-9.33382e-06
-9.35132e-06
-9.36864e-06
-9.38579e-06
-9.40276e-06
-9.41957e-06
-9.4362e-06
-9.45266e-06
-9.46895e-06
-9.48508e-06
-9.50104e-06
-9.51685e-06
-9.5325e-06
-9.54799e-06
-9.56333e-06
-9.5785e-06
-9.59353e-06
-9.6084e-06
-9.62312e-06
-9.63769e-06
-9.65212e-06
-9.6664e-06
-9.68053e-06
-9.69453e-06
-9.70838e-06
-9.72209e-06
-9.73566e-06
-9.74909e-06
-9.76239e-06
-9.77556e-06
-9.78859e-06
-9.80149e-06
-9.81426e-06
-9.8269e-06
-9.83941e-06
-9.85179e-06
-9.86405e-06
-9.87619e-06
-9.8882e-06
-9.90009e-06
-9.91186e-06
-9.92351e-06
-9.93504e-06
-9.94646e-06
-9.95775e-06
-9.96894e-06
-9.98001e-06
-9.99097e-06
-1.00018e-05
-1.00126e-05
-1.00232e-05
-1.00337e-05
-1.00441e-05
-1.00544e-05
-1.00646e-05
-1.00747e-05
-1.00847e-05
-1.00947e-05
-1.01045e-05
-1.01142e-05
-1.01238e-05
-1.01333e-05
-1.01427e-05
-1.0152e-05
-1.01613e-05
-1.01704e-05
-1.01795e-05
-1.01885e-05
-1.01974e-05
-1.02062e-05
-1.02149e-05
-1.02236e-05
-1.02321e-05
-1.02406e-05
-1.0249e-05
-1.02574e-05
-1.02656e-05
-1.02738e-05
-1.0282e-05
-1.029e-05
-1.0298e-05
-1.0306e-05
-1.03138e-05
-1.03216e-05
-1.03294e-05
-1.03371e-05
-1.03447e-05
-1.03523e-05
-1.03599e-05
-1.03673e-05
-1.03748e-05
-1.03822e-05
-1.03895e-05
-1.03968e-05
-1.0404e-05
-1.04113e-05
-1.04184e-05
-1.04256e-05
-1.04327e-05
-1.04397e-05
-1.04467e-05
-1.04537e-05
-1.04607e-05
-1.04676e-05
-1.04745e-05
-1.04814e-05
-1.04882e-05
-1.0495e-05
-1.05018e-05
-1.05086e-05
-1.05153e-05
-1.0522e-05
-1.05287e-05
-1.05354e-05
-1.0542e-05
-1.05486e-05
-1.05552e-05
-1.05618e-05
-1.05684e-05
-1.05749e-05
-1.05814e-05
-1.05879e-05
-1.05944e-05
-1.06009e-05
-1.06073e-05
-1.06137e-05
-1.06201e-05
-1.06265e-05
-1.06329e-05
-1.06392e-05
-1.06455e-05
-1.06518e-05
-1.06581e-05
-1.06643e-05
-1.06705e-05
-1.06767e-05
-1.06829e-05
-1.0689e-05
-1.06951e-05
-1.07012e-05
-1.07073e-05
-1.07133e-05
-1.07193e-05
-1.07253e-05
-1.07312e-05
-1.07372e-05
-1.0743e-05
-1.07489e-05
-1.07547e-05
-1.07604e-05
-1.07662e-05
-1.07719e-05
-1.07775e-05
-1.07831e-05
-1.07887e-05
-1.07942e-05
-1.07997e-05
-1.08051e-05
-1.08105e-05
-1.08159e-05
-1.08212e-05
-1.08264e-05
-1.08316e-05
-1.08368e-05
-1.08419e-05
-1.08469e-05
-1.08519e-05
-1.08568e-05
-1.08617e-05
-1.08665e-05
-1.08713e-05
-1.0876e-05
-1.08807e-05
-1.08853e-05
-1.08898e-05
-1.08943e-05
-1.08987e-05
-1.0903e-05
-1.09073e-05
-1.09115e-05
-1.09157e-05
-1.09197e-05
-1.09238e-05
-1.09277e-05
-1.09316e-05
-1.09355e-05
-1.09392e-05
-1.09429e-05
-1.09466e-05
-1.09501e-05
-1.09536e-05
-1.09571e-05
-1.09604e-05
-1.09637e-05
-1.0967e-05
-1.09701e-05
-1.09732e-05
-1.09763e-05
-1.09792e-05
-1.09821e-05
-1.0985e-05
-1.09877e-05
-1.09904e-05
-1.09931e-05
-1.09957e-05
-1.09982e-05
-1.10006e-05
-1.1003e-05
-1.10053e-05
-1.10076e-05
-1.10098e-05
-1.10119e-05
-1.1014e-05
-1.1016e-05
-1.1018e-05
-1.10199e-05
-1.10218e-05
-1.10236e-05
-1.10253e-05
-1.1027e-05
-1.10286e-05
-1.10302e-05
-1.10317e-05
-1.10332e-05
-1.10346e-05
-1.1036e-05
-1.10373e-05
-1.10386e-05
-1.10398e-05
-1.1041e-05
-1.10421e-05
-1.10432e-05
-1.10443e-05
-1.10453e-05
-1.10463e-05
-1.10472e-05
-1.10481e-05
-1.10489e-05
-1.10498e-05
-1.10505e-05
-1.10513e-05
-1.1052e-05
-1.10527e-05
-1.10533e-05
-1.1054e-05
-1.10546e-05
-1.10551e-05
-1.10556e-05
-1.10562e-05
-1.10566e-05
-1.10571e-05
-1.10575e-05
-1.10579e-05
-1.10583e-05
-1.10587e-05
-1.1059e-05
-1.10594e-05
-1.10597e-05
-1.106e-05
-1.10602e-05
-1.10605e-05
-1.10607e-05
-1.10609e-05
-1.10612e-05
-1.10614e-05
-1.10615e-05
-1.10617e-05
-1.10619e-05
-1.1062e-05
-1.10622e-05
-1.10623e-05
-1.10624e-05
-1.10625e-05
-1.10626e-05
-1.10627e-05
-1.10628e-05
-1.10629e-05
-1.1063e-05
-1.1063e-05
-1.10631e-05
-1.10632e-05
-1.10632e-05
-1.10633e-05
-1.10633e-05
-1.10634e-05
-1.10634e-05
-1.10634e-05
-1.10635e-05
-1.10635e-05
-1.10635e-05
-1.10636e-05
-1.10636e-05
-1.10636e-05
-1.10636e-05
-1.10637e-05
-1.10637e-05
-1.10637e-05
-1.10637e-05
-1.10637e-05
-1.10638e-05
-1.10638e-05
-1.10638e-05
-1.10638e-05
-1.10638e-05
-1.10638e-05
-1.10639e-05
-1.10639e-05
-1.10639e-05
-1.10639e-05
-1.10639e-05
-1.10639e-05
-1.10639e-05
-1.1064e-05
-1.1064e-05
-1.1064e-05
-1.1064e-05
-1.1064e-05
-1.1064e-05
-1.1064e-05
-1.10641e-05
-1.10641e-05
-1.10641e-05
-1.10641e-05
-1.10641e-05
-1.10641e-05
-1.10641e-05
-1.10641e-05
-1.10642e-05
-1.10642e-05
-1.10642e-05