# vtk DataFile Version 2.0
FlowField
ASCII
DATASET STRUCTURED_GRID
DIMENSIONS 800 1 200
POINTS 160000 float
0 0 0
0.04 0 0
0.08 0 0
0.12 0 0
0.16 0 0
0.2 0 0
0.24 0 0
0.28 0 0
0.32 0 0
0.36 0 0
0.4 0 0
0.44 0 0
0.48 0 0
0.52 0 0
0.56 0 0
0.6 0 0
0.64 0 0
0.68 0 0
0.72 0 0
0.76 0 0
0.8 0 0
0.84 0 0
0.88 0 0
0.92 0 0
0.96 0 0
1 0 0
1.04 0 0
1.08 0 0
1.12 0 0
1.16 0 0
1.2 0 0
1.24 0 0
1.28 0 0
1.32 0 0
1.36 0 0
1.4 0 0
1.44 0 0
1.48 0 0
1.52 0 0
1.56 0 0
1.6 0 0
1.64 0 0
1.68 0 0
1.72 0 0
1.76 0 0
1.8 0 0
1.84 0 0
1.88 0 0
1.92 0 0
1.96 0 0
2 0 0
2.04 0 0
2.08 0 0
2.12 0 0
2.16 0 0
2.2 0 0
2.24 0 0
2.28 0 0
2.32 0 0
2.36 0 0
2.4 0 0
2.44 0 0
2.48 0 0
2.52 0 0
2.56 0 0
2.6 0 0
2.64 0 0
2.68 0 0
2.72 0 0
2.76 0 0
2.8 0 0
2.84 0 0
2.88 0 0
2.92 0 0
2.96 0 0
3 0 0
3.04 0 0
3.08 0 0
3.12 0 0
3.16 0 0
3.2 0 0
3.24 0 0
3.28 0 0
3.32 0 0
3.36 0 0
3.4 0 0
3.44 0 0
3.48 0 0
3.52 0 0
3.56 0 0
3.6 0 0
3.64 0 0
3.68 0 0
3.72 0 0
3.76 0 0
3.8 0 0
3.84 0 0
3.88 0 0
3.92 0 0
3.96 0 0
4 0 0
4.04 0 0
4.08 0 0
4.12 0 0
4.16 0 0
4.2 0 0
4.24 0 0
4.28 0 0
4.32 0 0
4.36 0 0
4.4 0 0
4.44 0 0
4.48 0 0
4.52 0 0
4.56 0 0
4.6 0 0
4.64 0 0
4.68 0 0
4.72 0 0
4.76 0 0
4.8 0 0
4.84 0 0
4.88 0 0
4.92 0 0
4.96 0 0
5 0 0
5.04 0 0
5.08 0 0
5.12 0 0
5.16 0 0
5.2 0 0
5.24 0 0
5.28 0 0
5.32 0 0
5.36 0 0
5.4 0 0
5.44 0 0
5.48 0 0
5.52 0 0
5.56 0 0
5.6 0 0
5.64 0 0
5.68 0 0
5.72 0 0
5.76 0 0
5.8 0 0
5.84 0 0
5.88 0 0
5.92 0 0
5.96 0 0
6 0 0
6.04 0 0
6.08 0 0
6.12 0 0
6.16 0 0
6.2 0 0
6.24 0 0
6.28 0 0
6.32 0 0
6.36 0 0
6.4 0 0
6.44 0 0
6.48 0 0
6.52 0 0
6.56 0 0
6.6 0 0
6.64 0 0
6.68 0 0
6.72 0 0
6.76 0 0
6.8 0 0
6.84 0 0
6.88 0 0
6.92 0 0
6.96 0 0
7 0 0
7.04 0 0
7.08 0 0
7.12 0 0
7.16 0 0
7.2 0 0
7.24 0 0
7.28 0 0
7.32 0 0
7.36 0 0
7.4 0 0
7.44 0 0
7.48 0 0
7.52 0 0
7.56 0 0
7.6 0 0
7.64 0 0
7.68 0 0
7.72 0 0
7.76 0 0
7.8 0 0
7.84 0 0
7.88 0 0
7.92 0 0
7.96 0 0
8 0 0
8.04 0 0
8.08 0 0
8.12 0 0
8.16 0 0
8.2 0 0
8.24 0 0
8.28 0 0
8.32 0 0
8.36 0 0
8.4 0 0
8.44 0 0
8.48 0 0
8.52 0 0
8.56 0 0
8.6 0 0
8.64 0 0
8.68 0 0
8.72 0 0
8.76 0 0
8.8 0 0
8.84 0 0
8.88 0 0
8.92 0 0
8.96 0 0
9 0 0
9.04 0 0
9.08 0 0
9.12 0 0
9.16 0 0
9.2 0 0
9.24 0 0
9.28 0 0
9.32 0 0
9.36 0 0
9.4 0 0
9.44 0 0
9.48 0 0
9.52 0 0
9.56 0 0
9.6 0 0
9.64 0 0
9.68 0 0
9.72 0 0
9.76 0 0
9.8 0 0
9.84 0 0
9.88 0 0
9.92 0 0
9.96 0 0
10 0 0
10.04 0 0
10.08 0 0
10.12 0 0
10.16 0 0
10.2 0 0
10.24 0 0
10.28 0 0
10.32 0 0
10.36 0 0
10.4 0 0
10.44 0 0
10.48 0 0
10.52 0 0
10.56 0 0
10.6 0 0
10.64 0 0
10.68 0 0
10.72 0 0
10.76 0 0
10.8 0 0
10.84 0 0
10.88 0 0
10.92 0 0
10.96 0 0
11 0 0
11.04 0 0
11.08 0 0
11.12 0 0
11.16 0 0
11.2 0 0
11.24 0 0
11.28 0 0
11.32 0 0
11.36 0 0
11.4 0 0
11.44 0 0
11.48 0 0
11.52 0 0
11.56 0 0
11.6 0 0
11.64 0 0
11.68 0 0
11.72 0 0
11.76 0 0
11.8 0 0
11.84 0 0
11.88 0 0
11.92 0 0
11.96 0 0
12 0 0
12.04 0 0
12.08 0 0
12.12 0 0
12.16 0 0
12.2 0 0
12.24 0 0
12.28 0 0
12.32 0 0
12.36 0 0
12.4 0 0
12.44 0 0
12.48 0 0
12.52 0 0
12.56 0 0
12.6 0 0
12.64 0 0
12.68 0 0
12.72 0 0
12.76 0 0
12.8 0 0
12.84 0 0
12.88 0 0
12.92 0 0
12.96 0 0
13 0 0
13.04 0 0
13.08 0 0
13.12 0 0
13.16 0 0
13.2 0 0
13.24 0 0
13.28 0 0
13.32 0 0
13.36 0 0
13.4 0 0
13.44 0 0
13.48 0 0
13.52 0 0
13.56 0 0
13.6 0 0
13.64 0 0
13.68 0 0
13.72 0 0
13.76 0 0
13.8 0 0
13.84 0 0
13.88 0 0
13.92 0 0
13.96 0 0
14 0 0
14.04 0 0
14.08 0 0
14.12 0 0
14.16 0 0
14.2 0 0
14.24 0 0
14.28 0 0
14.32 0 0
14.36 0 0
14.4 0 0
14.44 0 0
14.48 0 0
14.52 0 0
14.56 0 0
14.6 0 0
14.64 0 0
14.68 0 0
14.72 0 0
14.76 0 0
14.8 0 0
14.84 0 0
14.88 0 0
14.92 0 0
14.96 0 0
15 0 0
15.04 0 0
15.08 0 0
15.12 0 0
15.16 0 0
15.2 0 0
15.24 0 0
15.28 0 0
15.32 0 0
15.36 0 0
15.4 0 0
15.44 0 0
15.48 0 0
15.52 0 0
15.56 0 0
15.6 0 0
15.64 0 0
15.68 0 0
15.72 0 0
15.76 0 0
15.8 0 0
15.84 0 0
15.88 0 0
15.92 0 0
15.96 0 0
16 0 0
16.04 0 0
16.08 0 0
16.12 0 0
16.16 0 0
16.2 0 0
16.24 0 0
16.28 0 0
16.32 0 0
16.36 0 0
16.4 0 0
16.44 0 0
16.48 0 0
16.52 0 0
16.56 0 0
16.6 0 0
16.64 0 0
16.68 0 0
16.72 0 0
16.76 0 0
16.8 0 0
16.84 0 0
16.88 0 0
16.92 0 0
16.96 0 0
17 0 0
17.04 0 0
17.08 0 0
17.12 0 0
17.16 0 0
17.2 0 0
17.24 0 0
17.28 0 0
17.32 0 0
17.36 0 0
17.4 0 0
17.44 0 0
17.48 0 0
17.52 0 0
17.56 0 0
17.6 0 0
17.64 0 0
17.68 0 0
17.72 0 0
17.76 0 0
17.8 0 0
17.84 0 0
17.88 0 0
17.92 0 0
17.96 0 0
18 0 0
18.04 0 0
18.08 0 0
18.12 0 0
18.16 0 0
18.2 0 0
18.24 0 0
18.28 0 0
18.32 0 0
18.36 0 0
18.4 0 0
18.44 0 0
18.48 0 0
18.52 0 0
18.56 0 0
18.6 0 0
18.64 0 0
18.68 0 0
18.72 0 0
18.76 0 0
18.8 0 0
18.84 0 0
18.88 0 0
18.92 0 0
18.96 0 0
19 0 0
19.04 0 0
19.08 0 0
19.12 0 0
19.16 0 0
19.2 0 0
19.24 0 0
19.28 0 0
19.32 0 0
19.36 0 0
19.4 0 0
19.44 0 0
19.48 0 0
19.52 0 0
19.56 0 0
19.6 0 0
19.64 0 0
19.68 0 0
19.72 0 0
19.76 0 0
19.8 0 0
19.84 0 0
19.88 0 0
19.92 0 0
19.96 0 0
20 0 0
20.04 0 0
20.08 0 0
20.12 0 0
20.16 0 0
20.2 0 0
20.24 0 0
20.28 0 0
20.32 0 0
20.36 0 0
20.4 0 0
20.44 0 0
20.48 0 0
20.52 0 0
20.56 0 0
20.6 0 0
20.64 0 0
20.68 0 0
20.72 0 0
20.76 0 0
20.8 0 0
20.84 0 0
20.88 0 0
20.92 0 0
20.96 0 0
21 0 0
21.04 0 0
21.08 0 0
21.12 0 0
21.16 0 0
21.2 0 0
21.24 0 0
21.28 0 0
21.32 0 0
21.36 0 0
21.4 0 0
21.44 0 0
21.48 0 0
21.52 0 0
21.56 0 0
21.6 0 0
21.64 0 0
21.68 0 0
21.72 0 0
21.76 0 0
21.8 0 0
21.84 0 0
21.88 0 0
21.92 0 0
21.96 0 0
22 0 0
22.04 0 0
22.08 0 0
22.12 0 0
22.16 0 0
22.2 0 0
22.24 0 0
22.28 0 0
22.32 0 0
22.36 0 0
22.4 0 0
22.44 0 0
22.48 0 0
22.52 0 0
22.56 0 0
22.6 0 0
22.64 0 0
22.68 0 0
22.72 0 0
22.76 0 0
22.8 0 0
22.84 0 0
22.88 0 0
22.92 0 0
22.96 0 0
23 0 0
23.04 0 0
23.08 0 0
23.12 0 0
23.16 0 0
23.2 0 0
23.24 0 0
23.28 0 0
23.32 0 0
23.36 0 0
23.4 0 0
23.44 0 0
23.48 0 0
23.52 0 0
23.56 0 0
23.6 0 0
23.64 0 0
23.68 0 0
23.72 0 0
23.76 0 0
23.8 0 0
23.84 0 0
23.88 0 0
23.92 0 0
23.96 0 0
24 0 0
24.04 0 0
24.08 0 0
24.12 0 0
24.16 0 0
24.2 0 0
24.24 0 0
24.28 0 0
24.32 0 0
24.36 0 0
24.4 0 0
24.44 0 0
24.48 0 0
24.52 0 0
24.56 0 0
24.6 0 0
24.64 0 0
24.68 0 0
24.72 0 0
24.76 0 0
24.8 0 0
24.84 0 0
24.88 0 0
24.92 0 0
24.96 0 0
25 0 0
25.04 0 0
25.08 0 0
25.12 0 0
25.16 0 0
25.2 0 0
25.24 0 0
25.28 0 0
25.32 0 0
25.36 0 0
25.4 0 0
25.44 0 0
25.48 0 0
25.52 0 0
25.56 0 0
25.6 0 0
25.64 0 0
25.68 0 0
25.72 0 0
25.76 0 0
25.8 0 0
25.84 0 0
25.88 0 0
25.92 0 0
25.96 0 0
26 0 0
26.04 0 0
26.08 0 0
26.12 0 0
26.16 0 0
26.2 0 0
26.24 0 0
26.28 0 0
26.32 0 0
26.36 0 0
26.4 0 0
26.44 0 0
26.48 0 0
26.52 0 0
26.56 0 0
26.6 0 0
26.64 0 0
26.68 0 0
26.72 0 0
26.76 0 0
26.8 0 0
26.84 0 0
26.88 0 0
26.92 0 0
26.96 0 0
27 0 0
27.04 0 0
27.08 0 0
27.12 0 0
27.16 0 0
27.2 0 0
27.24 0 0
27.28 0 0
27.32 0 0
27.36 0 0
27.4 0 0
27.44 0 0
27.48 0 0
27.52 0 0
27.56 0 0
27.6 0 0
27.64 0 0
27.68 0 0
27.72 0 0
27.76 0 0
27.8 0 0
27.84 0 0
27.88 0 0
27.92 0 0
27.96 0 0
28 0 0
28.04 0 0
28.08 0 0
28.12 0 0
28.16 0 0
28.2 0 0
28.24 0 0
28.28 0 0
28.32 0 0
28.36 0 0
28.4 0 0
28.44 0 0
28.48 0 0
28.52 0 0
28.56 0 0
28.6 0 0
28.64 0 0
28.68 0 0
28.72 0 0
28.76 0 0
28.8 0 0
28.84 0 0
28.88 0 0
28.92 0 0
28.96 0 0
29 0 0
29.04 0 0
29.08 0 0
29.12 0 0
29.16 0 0
29.2 0 0
29.24 0 0
29.28 0 0
29.32 0 0
29.36 0 0
29.4 0 0
29.44 0 0
29.48 0 0
29.52 0 0
29.56 0 0
29.6 0 0
29.64 0 0
29.68 0 0
29.72 0 0
29.76 0 0
29.8 0 0
29.84 0 0
29.88 0 0
29.92 0 0
29.96 0 0
30 0 0
30.04 0 0
30.08 0 0
30.12 0 0
30.16 0 0
30.2 0 0
30.24 0 0
30.28 0 0
30.32 0 0
30.36 0 0
30.4 0 0
30.44 0 0
30.48 0 0
30.52 0 0
30.56 0 0
30.6 0 0
30.64 0 0
30.68 0 0
30.72 0 0
30.76 0 0
30.8 0 0
30.84 0 0
30.88 0 0
30.92 0 0
30.96 0 0
31 0 0
31.04 0 0
31.08 0 0
31.12 0 0
31.16 0 0
31.2 0 0
31.24 0 0
31.28 0 0
31.32 0 0
31.36 0 0
31.4 0 0
31.44 0 0
31.48 0 0
31.52 0 0
31.56 0 0
31.6 0 0
31.64 0 0
31.68 0 0
31.72 0 0
31.76 0 0
31.8 0 0
31.84 0 0
31.88 0 0
31.92 0 0
31.96 0 0
0 0.005 0
0.04 0.005 0
0.08 0.005 0
0.12 0.005 0
0.16 0.005 0
0.2 0.005 0
0.24 0.005 0
0.28 0.005 0
0.32 0.005 0
0.36 0.005 0
0.4 0.005 0
0.44 0.005 0
0.48 0.005 0
0.52 0.005 0
0.56 0.005 0
0.6 0.005 0
0.64 0.005 0
0.68 0.005 0
0.72 0.005 0
0.76 0.005 0
0.8 0.005 0
0.84 0.005 0
0.88 0.005 0
0.92 0.005 0
0.96 0.005 0
1 0.005 0
1.04 0.005 0
1.08 0.005 0
1.12 0.005 0
1.16 0.005 0
1.2 0.005 0
1.24 0.005 0
1.28 0.005 0
1.32 0.005 0
1.36 0.005 0
1.4 0.005 0
1.44 0.005 0
1.48 0.005 0
1.52 0.005 0
1.56 0.005 0
1.6 0.005 0
1.64 0.005 0
1.68 0.005 0
1.72 0.005 0
1.76 0.005 0
1.8 0.005 0
1.84 0.005 0
1.88 0.005 0
1.92 0.005 0
1.96 0.005 0
2 0.005 0
2.04 0.005 0
2.08 0.005 0
2.12 0.005 0
2.16 0.005 0
2.2 0.005 0
2.24 0.005 0
2.28 0.005 0
2.32 0.005 0
2.36 0.005 0
2.4 0.005 0
2.44 0.005 0
2.48 0.005 0
2.52 0.005 0
2.56 0.005 0
2.6 0.005 0
2.64 0.005 0
2.68 0.005 0
2.72 0.005 0
2.76 0.005 0
2.8 0.005 0
2.84 0.005 0
2.88 0.005 0
2.92 0.005 0
2.96 0.005 0
3 0.005 0
3.04 0.005 0
3.08 0.005 0
3.12 0.005 0
3.16 0.005 0
3.2 0.005 0
3.24 0.005 0
3.28 0.005 0
3.32 0.005 0
3.36 0.005 0
3.4 0.005 0
3.44 0.005 0
3.48 0.005 0
3.52 0.005 0
3.56 0.005 0
3.6 0.005 0
3.64 0.005 0
3.68 0.005 0
3.72 0.005 0
3.76 0.005 0
3.8 0.005 0
3.84 0.005 0
3.88 0.005 0
3.92 0.005 0
3.96 0.005 0
4 0.005 0
4.04 0.005 0
4.08 0.005 0
4.12 0.005 0
4.16 0.005 0
4.2 0.005 0
4.24 0.005 0
4.28 0.005 0
4.32 0.005 0
4.36 0.005 0
4.4 0.005 0
4.44 0.005 0
4.48 0.005 0
4.52 0.005 0
4.56 0.005 0
4.6 0.005 0
4.64 0.005 0
4.68 0.005 0
4.72 0.005 0
4.76 0.005 0
4.8 0.005 0
4.84 0.005 0
4.88 0.005 0
4.92 0.005 0
4.96 0.005 0
5 0.005 0
5.04 0.005 0
5.08 0.005 0
5.12 0.005 0
5.16 0.005 0
5.2 0.005 0
5.24 0.005 0
5.28 0.005 0
5.32 0.005 0
5.36 0.005 0
5.4 0.005 0
5.44 0.005 0
5.48 0.005 0
5.52 0.005 0
5.56 0.005 0
5.6 0.005 0
5.64 0.005 0
5.68 0.005 0
5.72 0.005 0
5.76 0.005 0
5.8 0.005 0
5.84 0.005 0
5.88 0.005 0
5.92 0.005 0
5.96 0.005 0
6 0.005 0
6.04 0.005 0
6.08 0.005 0
6.12 0.005 0
6.16 0.005 0
6.2 0.005 0
6.24 0.005 0
6.28 0.005 0
6.32 0.005 0
6.36 0.005 0
6.4 0.005 0
6.44 0.005 0
6.48 0.005 0
6.52 0.005 0
6.56 0.005 0
6.6 0.005 0
6.64 0.005 0
6.68 0.005 0
6.72 0.005 0
6.76 0.005 0
6.8 0.005 0
6.84 0.005 0
6.88 0.005 0
6.92 0.005 0
6.96 0.005 0
7 0.005 0
7.04 0.005 0
7.08 0.005 0
7.12 0.005 0
7.16 0.005 0
7.2 0.005 0
7.24 0.005 0
7.28 0.005 0
7.32 0.005 0
7.36 0.005 0
7.4 0.005 0
[...]
POINT_DATA 160000

SCALARS u float 1
LOOKUP_TABLE default
-1
-0.483355
-0.183961
-0.108844
-0.0810313
-0.0668317
-0.0581159
-0.0521503
-0.0477749
-0.0444118
-0.0417384
-0.0395584
-0.0377451
-0.036212
-0.0348981
-0.0337589
-0.032761
-0.0318792
-0.0310934
-0.0303883
-0.0297512
-0.0291721
-0.0286428
-0.0281566
-0.0277079
-0.0272921
-0.0269052
-0.0265439
-0.0262054
-0.0258874
-0.0255878
-0.0253048
-0.0250368
-0.0247826
-0.024541
-0.0243109
-0.0240914
-0.0238817
-0.0236812
-0.023489
-0.0233047
-0.0231277
-0.0229576
-0.022794
-0.0226363
-0.0224844
-0.0223378
-0.0221962
-0.0220595
-0.0219272
-0.0217992
-0.0216753
-0.0215553
-0.0214389
-0.021326
-0.0212164
-0.02111
-0.0210067
-0.0209062
-0.0208085
-0.0207134
-0.0206209
-0.0205308
-0.0204431
-0.0203575
-0.0202741
-0.0201928
-0.0201135
-0.020036
-0.0199604
-0.0198866
-0.0198145
-0.019744
-0.0196751
-0.0196077
-0.0195418
-0.0194774
-0.0194143
-0.0193525
-0.0192921
-0.0192329
-0.0191749
-0.019118
-0.0190623
-0.0190077
-0.0189542
-0.0189017
-0.0188503
-0.0187998
-0.0187502
-0.0187016
-0.0186539
-0.018607
-0.018561
-0.0185158
-0.0184715
-0.0184279
-0.0183851
-0.0183431
-0.0183018
-0.0182612
-0.0182213
-0.0181821
-0.0181436
-0.0181057
-0.0180685
-0.0180319
-0.017996
-0.0179607
-0.0179259
-0.0178918
-0.0178583
-0.0178254
-0.0177931
-0.0177613
-0.0177302
-0.0176996
-0.0176696
-0.0176402
-0.0176114
-0.0175832
-0.0175556
-0.0175286
-0.0175022
-0.0174765
-0.0174513
-0.0174268
-0.0174029
-0.0173796
-0.0173569
-0.0173349
-0.0173135
-0.0172928
-0.0172726
-0.017253
-0.0172341
-0.0172157
-0.0171979
-0.0171807
-0.017164
-0.0171478
-0.0171322
-0.0171171
-0.0171024
-0.0170882
-0.0170745
-0.0170613
-0.0170484
-0.017036
-0.017024
-0.0170123
-0.0170011
-0.0169902
-0.0169797
-0.0169695
-0.0169596
-0.0169501
-0.0169409
-0.016932
-0.0169235
-0.0169152
-0.0169072
-0.0168995
-0.016892
-0.0168849
-0.016878
-0.0168713
-0.0168649
-0.0168587
-0.0168528
-0.0168471
-0.0168416
-0.0168364
-0.0168313
-0.0168265
-0.0168218
-0.0168174
-0.0168131
-0.016809
-0.0168051
-0.0168013
-0.0167977
-0.0167943
-0.016791
-0.0167878
-0.0167848
-0.0167819
-0.0167791
-0.0167765
-0.0167739
-0.0167715
-0.0167693
-0.0167672
-0.0167652
-0.0167634
-0.0167617
-0.0167601
-0.0167588
-0.0167575
-0.0167564
-0.0167554
-0.0167546
-0.0167538
-0.0167531
-0.0167525
-0.016752
-0.0167515
-0.016751
-0.0167506
-0.0167503
-0.0167499
-0.0167496
-0.0167493
-0.0167489
-0.0167486
-0.0167483
-0.016748
-0.0167477
-0.0167474
-0.0167471
-0.0167468
-0.0167465
-0.0167462
-0.0167459
-0.0167456
-0.0167453
-0.016745
-0.0167447
-0.0167444
-0.0167441
-0.0167438
-0.0167435
-0.0167431
-0.0167428
-0.0167425
-0.0167422
-0.0167419
-0.0167416
-0.0167413
-0.016741
-0.0167407
-0.0167404
-0.0167401
-0.0167398
-0.0167395
-0.0167392
-0.0167389
-0.0167386
-0.0167383
-0.016738
-0.0167377
-0.0167374
-0.0167371
-0.0167368
-0.0167364
-0.0167361
-0.0167358
-0.0167355
-0.0167352
-0.0167349
-0.0167346
-0.0167343
-0.016734
-0.0167337
-0.0167334
-0.0167331
-0.0167328
-0.0167325
-0.0167322
-0.0167319
-0.0167316
-0.0167313
-0.016731
-0.0167307
-0.0167304
-0.01673
-0.0167297
-0.0167294
-0.0167291
-0.0167288
-0.0167285
-0.0167282
-0.0167279
-0.0167276
-0.0167273
-0.016727
-0.0167267
-0.0167264
-0.0167261
-0.0167258
-0.0167255
-0.0167252
-0.0167249
-0.0167246
-0.0167243
-0.016724
-0.0167236
-0.0167233
-0.016723
-0.0167227
-0.0167224
-0.0167221
-0.0167218
-0.0167215
-0.0167212
-0.0167209
-0.0167206
-0.0167203
-0.01672
-0.0167197
-0.0167194
-0.0167191
-0.0167188
-0.0167185
-0.0167182
-0.0167179
-0.0167176
-0.0167172
-0.0167169
-0.0167166
-0.0167163
-0.016716
-0.0167157
-0.0167154
-0.0167151
-0.0167148
-0.0167145
-0.0167142
-0.0167139
-0.0167136
-0.0167133
-0.016713
-0.0167127
-0.0167124
-0.0167121
-0.0167118
-0.0167115
-0.0167111
-0.0167108
-0.0167105
-0.0167102
-0.0167099
-0.0167096
-0.0167093
-0.016709
-0.0167087
-0.0167084
-0.0167081
-0.0167078
-0.0167075
-0.0167072
-0.0167069
-0.0167066
-0.0167063
-0.016706
-0.0167057
-0.0167054
-0.016705
-0.0167047
-0.0167044
-0.0167041
-0.0167038
-0.0167035
-0.0167032
-0.0167029
-0.0167026
-0.0167023
-0.016702
-0.0167017
-0.0167014
-0.0167011
-0.0167008
-0.0167005
-0.0167002
-0.0166999
-0.0166996
-0.0166993
-0.0166989
-0.0166986
-0.0166983
-0.016698
-0.0166977
-0.0166974
-0.0166971
-0.0166968
-0.0166965
-0.0166962
-0.0166959
-0.0166956
-0.0166953
-0.016695
-0.0166947
-0.0166944
-0.0166941
-0.0166938
-0.0166935
-0.0166932
-0.0166928
-0.0166925
-0.0166922
-0.0166919
-0.0166916
-0.0166913
-0.016691
-0.0166907
-0.0166904
-0.0166901
-0.0166898
-0.0166895
-0.0166892
-0.0166889
-0.0166886
-0.0166883
-0.016688
-0.0166877
-0.0166874
-0.016687
-0.0166867
-0.0166864
-0.0166861
-0.0166858
-0.0166855
-0.0166852
-0.0166849
-0.0166846
-0.0166843
-0.016684
-0.0166837
-0.0166834
-0.0166831
-0.0166828
-0.0166825
-0.0166822
-0.0166819
-0.0166816
-0.0166813
-0.0166809
-0.0166806
-0.0166803
-0.01668
-0.0166797
-0.0166794
-0.0166791
-0.0166788
-0.0166785
-0.0166782
-0.0166779
-0.0166776
-0.0166773
-0.016677
-0.0166767
-0.0166764
-0.0166761
-0.0166758
-0.0166755
-0.0166752
-0.0166748
-0.0166745
-0.0166742
-0.0166739
-0.0166736
-0.0166733
-0.016673
-0.0166727
-0.0166724
-0.0166721
-0.0166718
-0.0166715
-0.0166712
-0.0166709
-0.0166706
-0.0166703
-0.01667
-0.0166697
-0.0166694
-0.0166691
-0.0166687
-0.0166684
-0.0166681
-0.0166678
-0.0166675
-0.0166672
-0.0166669
-0.0166666
-0.0166663
-0.016666
-0.0166657
-0.0166654
-0.0166651
-0.0166648
-0.0166645
-0.0166642
-0.0166639
-0.0166636
-0.0166633
-0.016663
-0.0166626
-0.0166623
-0.016662
-0.0166617
-0.0166614
-0.0166611
-0.0166608
-0.0166605
-0.0166602
-0.0166599
-0.0166596
-0.0166593
-0.016659
-0.0166587
-0.0166584
-0.0166581
-0.0166578
-0.0166575
-0.0166572
-0.0166569
-0.0166566
-0.0166562
-0.0166559
-0.0166556
-0.0166553
-0.016655
-0.0166547
-0.0166544
-0.0166541
-0.0166538
-0.0166535
-0.0166532
-0.0166529
-0.0166526
-0.0166523
-0.016652
-0.0166517
-0.0166514
-0.0166511
-0.0166508
-0.0166505
-0.0166501
-0.0166498
-0.0166495
-0.0166492
-0.0166489
-0.0166486
-0.0166483
-0.016648
-0.0166477
-0.0166474
-0.0166471
-0.0166468
-0.0166465
-0.0166462
-0.0166459
-0.0166456
-0.0166453
-0.016645
-0.0166447
-0.0166444
-0.0166441
-0.0166437
-0.0166434
-0.0166431
-0.0166428
-0.0166425
-0.0166422
-0.0166419
-0.0166416
-0.0166413
-0.016641
-0.0166407
-0.0166404
-0.0166401
-0.0166398
-0.0166395
-0.0166392
-0.0166389
-0.0166386
-0.0166383
-0.016638
-0.0166376
-0.0166373
-0.016637
-0.0166367
-0.0166364
-0.0166361
-0.0166358
-0.0166355
-0.0166352
-0.0166349
-0.0166346
-0.0166343
-0.016634
-0.0166337
-0.0166334
-0.0166331
-0.0166328
-0.0166325
-0.0166322
-0.0166318
-0.0166315
-0.0166312
-0.0166309
-0.0166306
-0.0166303
-0.01663
-0.0166297
-0.0166294
-0.0166291
-0.0166288
-0.0166285
-0.0166282
-0.0166279
-0.0166276
-0.0166273
-0.016627
-0.0166267
-0.0166264
-0.016626
-0.0166257
-0.0166254
-0.0166251
-0.0166248
-0.0166245
-0.0166242
-0.0166239
-0.0166236
-0.0166233
-0.016623
-0.0166227
-0.0166224
-0.0166221
-0.0166218
-0.0166215
-0.0166212
-0.0166209
-0.0166206
-0.0166202
-0.0166199
-0.0166196
-0.0166193
-0.016619
-0.0166187
-0.0166184
-0.0166181
-0.0166178
-0.0166175
-0.0166172
-0.0166169
-0.0166166
-0.0166163
-0.016616
-0.0166157
-0.0166154
-0.016615
-0.0166147
-0.0166144
-0.0166141
-0.0166138
-0.0166135
-0.0166132
-0.0166129
-0.0166126
-0.0166123
-0.016612
-0.0166117
-0.0166114
-0.0166111
-0.0166108
-0.0166105
-0.0166102
-0.0166098
-0.0166095
-0.0166092
-0.0166089
-0.0166086
-0.0166083
-0.016608
-0.0166077
-0.0166074
-0.0166071
-0.0166068
-0.0166065
-0.0166062
-0.0166059
-0.0166056
-0.0166053
-0.016605
-0.0166046
-0.0166043
-0.016604
-0.0166037
-0.0166034
-0.0166031
-0.0166028
-0.0166025
-0.0166022
-0.0166019
-0.0166016
-0.0166013
-0.016601
-0.0166007
-0.0166004
-0.0166001
-0.0165997
-0.0165994
-0.0165991
-0.0165988
-0.0165985
-0.0165982
-0.0165979
-0.0165976
-0.0165973
-0.016597
-0.0165967
-0.0165964
-0.0165961
-0.0165958
-0.0165955
-0.0165951
-0.0165948
-0.0165945
-0.0165942
-0.0165939
-0.0165936
-0.0165933
-0.016593
-0.0165927
-0.0165924
-0.0165921
-0.0165918
-0.0165915
-0.0165912
-0.0165909
-0.0165905
-0.0165902
-0.0165899
-0.0165896
-0.0165893
-0.016589
-0.0165887
-0.0165884
-0.0165881
-0.0165878
-0.0165875
-0.0165872
-0.0165869
-0.0165866
-0.0165863
-0.0165859
-0.0165856
-0.0165853
-0.016585
-0.0165847
-0.0165844
-0.0165841
-0.0165838
-0.0165835
-0.0165832
-0.0165829
-0.0165826
-0.0165823
-0.016582
-0.0165816
-0.0165813
-0.016581
-0.0165807
-0.0165804
-0.0165801
-0.0165798
-0.0165795
-0.0165792
-0.0165789
-0.0165786
-0.0165783
-0.0165779
-0.0165776
-0.0165773
-0.016577
-0.0165767
-0.0165764
-0.0165761
-0.0165757
-0.0165754
-0.0165751
-0.0165747
-0.0165744
-0.016574
-0.0165737
-0.0165733
-0.0165729
-0.0165725
-0.016572
-0.0165715
-0.016571
-0.0165704
-0.0165696
-0.0165689
-0.0165677
-0.0165674
-0.0165674
-0.0165674
1
0.483355
0.183961
0.108844
0.0810313
0.0668317
0.0581159
0.0521503
0.0477749
0.0444118
0.0417384
0.0395584
0.0377451
0.036212
0.0348981
0.0337589
0.032761
0.0318792
0.0310934
0.0303883
0.0297512
0.0291721
0.0286428
0.0281566
0.0277079
0.0272921
0.0269052
0.0265439
0.0262054
0.0258874
0.0255878
0.0253048
0.0250368
0.0247826
0.024541
0.0243109
0.0240914
0.0238817
0.0236812
0.023489
0.0233047
0.0231277
0.0229576
0.022794
0.0226363
0.0224844
0.0223378
0.0221962
0.0220595
0.0219272
0.0217992
0.0216753
0.0215553
0.0214389
0.021326
0.0212164
0.02111
0.0210067
0.0209062
0.0208085
0.0207134
0.0206209
0.0205308
0.0204431
0.0203575
0.0202741
0.0201928
0.0201135
0.020036
0.0199604
0.0198866
0.0198145
0.019744
0.0196751
0.0196077
0.0195418
0.0194774
0.0194143
0.0193525
0.0192921
0.0192329
0.0191749
0.019118
0.0190623
0.0190077
0.0189542
0.0189017
0.0188503
0.0187998
0.0187502
0.0187016
0.0186539
0.018607
0.018561
0.0185158
0.0184715
0.0184279
0.0183851
0.0183431
0.0183018
0.0182612
0.0182213
0.0181821
0.0181436
0.0181057
0.0180685
0.0180319
0.017996
0.0179607
0.0179259
0.0178918
0.0178583
0.0178254
0.0177931
0.0177613
0.0177302
0.0176996
0.0176696
0.0176402
0.0176114
0.0175832
0.0175556
0.0175286
0.0175022
0.0174765
0.0174513
0.0174268
0.0174029
0.0173796
0.0173569
0.0173349
0.0173135
0.0172928
0.0172726
0.017253
0.0172341
0.0172157
0.0171979
0.0171807
0.017164
0.0171478
0.0171322
0.0171171
0.0171024
0.0170882
0.0170745
0.0170613
0.0170484
0.017036
0.017024
0.0170123
0.0170011
0.0169902
0.0169797
0.0169695
0.0169596
0.0169501
0.0169409
0.016932
0.0169235
0.0169152
0.0169072
0.0168995
0.016892
0.0168849
0.016878
0.0168713
0.0168649
0.0168587
0.0168528
0.0168471
0.0168416
0.0168364
0.0168313
0.0168265
0.0168218
0.0168174
0.0168131
0.016809
0.0168051
0.0168013
0.0167977
0.0167943
0.016791
0.0167878
0.0167848
0.0167819
0.0167791
0.0167765
0.0167739
0.0167715
0.0167693
0.0167672
0.0167652
0.0167634
0.0167617
0.0167601
0.0167588
0.0167575
0.0167564
0.0167554
0.0167546
0.0167538
0.0167531
0.0167525
0.016752
0.0167515
0.016751
0.0167506
0.0167503
0.0167499
0.0167496
0.0167493
0.0167489
0.0167486
0.0167483
0.016748
0.0167477
0.0167474
0.0167471
0.0167468
0.0167465
0.0167462
0.0167459
0.0167456
0.0167453
0.016745
0.0167447
0.0167444
0.0167441
0.0167438
0.0167435
0.0167431
0.0167428
0.0167425
0.0167422
0.0167419
0.0167416
0.0167413
0.016741
0.0167407
0.0167404
0.0167401
0.0167398
0.0167395
0.0167392
0.0167389
0.0167386
0.0167383
0.016738
0.0167377
0.0167374
0.0167371
0.0167368
0.0167364
0.0167361
0.0167358
0.0167355
0.0167352
0.0167349
0.0167346
0.0167343
0.016734
0.0167337
0.0167334
0.0167331
0.0167328
0.0167325
0.0167322
0.0167319
0.0167316
0.0167313
0.016731
0.0167307
0.0167304
0.01673
0.0167297
0.0167294
0.0167291
0.0167288
0.0167285
0.0167282
0.0167279
0.0167276
0.0167273
0.016727
0.0167267
0.0167264
0.0167261
0.0167258
0.0167255
0.0167252
0.0167249
0.0167246
0.0167243
0.016724
0.0167236
0.0167233
0.016723
0.0167227
0.0167224
0.0167221
0.0167218
0.0167215
0.0167212
0.0167209
0.0167206
0.0167203
0.01672
0.0167197
0.0167194
0.0167191
0.0167188
0.0167185
0.0167182
0.0167179
0.0167176
0.0167172
0.0167169
0.0167166
0.0167163
0.016716
0.0167157
0.0167154
0.0167151
0.0167148
0.0167145
0.0167142
0.0167139
0.0167136
0.0167133
0.016713
0.0167127
0.0167124
0.0167121
0.0167118
0.0167115
0.0167111
0.0167108
0.0167105
0.0167102
0.0167099
0.0167096
0.0167093
0.016709
0.0167087
0.0167084
0.0167081
0.0167078
0.0167075
0.0167072
0.0167069
0.0167066
0.0167063
0.016706
0.0167057
0.0167054
0.016705
0.0167047
0.0167044
0.0167041
0.0167038
0.0167035
0.0167032
0.0167029
0.0167026
0.0167023
0.016702
0.0167017
0.0167014
0.0167011
0.0167008
0.0167005
0.0167002
0.0166999
0.0166996
0.0166993
0.0166989
0.0166986
0.0166983
0.016698
0.0166977
0.0166974
0.0166971
0.0166968
0.0166965
0.0166962
0.0166959
0.0166956
0.0166953
0.016695
0.0166947
0.0166944
0.0166941
0.0166938
0.0166935
0.0166932
0.0166928
0.0166925
0.0166922
0.0166919
0.0166916
0.0166913
0.016691
0.0166907
0.0166904
0.0166901
0.0166898
0.0166895
0.0166892
0.0166889
0.0166886
0.0166883
0.016688
0.0166877
0.0166874
0.016687
0.0166867
0.0166864
0.0166861
0.0166858
0.0166855
0.0166852
0.0166849
0.0166846
0.0166843
0.016684
0.0166837
0.0166834
0.0166831
0.0166828
0.0166825
0.0166822
0.0166819
0.0166816
0.0166813
0.0166809
0.0166806
0.0166803
0.01668
0.0166797
0.0166794
0.0166791
0.0166788
0.0166785
0.0166782
0.0166779
0.0166776
0.0166773
0.016677
0.0166767
0.0166764
0.0166761
0.0166758
0.0166755
0.0166752
0.0166748
0.0166745
0.0166742
0.0166739
0.0166736
0.0166733
0.016673
0.0166727
0.0166724
0.0166721
0.0166718
0.0166715
0.0166712
0.0166709
0.0166706
0.0166703
0.01667
0.0166697
0.0166694
0.0166691
0.0166687
0.0166684
0.0166681
0.0166678
0.0166675
0.0166672
0.0166669
0.0166666
0.0166663
0.016666
0.0166657
0.0166654
0.0166651
0.0166648
0.0166645
0.0166642
0.0166639
0.0166636
0.0166633
0.016663
0.0166626
0.0166623
0.016662
0.0166617
0.0166614
0.0166611
0.0166608
0.0166605
0.0166602
0.0166599
0.0166596
0.0166593
0.016659
0.0166587
0.0166584
0.0166581
0.0166578
0.0166575
0.0166572
0.0166569
0.0166566
0.0166562
0.0166559
0.0166556
0.0166553
0.016655
0.0166547
0.0166544
0.0166541
0.0166538
0.0166535
0.0166532
0.0166529
0.0166526
0.0166523
0.016652
0.0166517
0.0166514
0.0166511
0.0166508
0.0166505
0.0166501
0.0166498
0.0166495
0.0166492
0.0166489
0.0166486
0.0166483
0.016648
0.0166477
0.0166474
0.0166471
0.0166468
0.0166465
0.0166462
0.0166459
0.0166456
0.0166453
0.016645
0.0166447
0.0166444
0.0166441
0.0166437
0.0166434
0.0166431
0.0166428
0.0166425
0.0166422
0.0166419
0.0166416
0.0166413
0.016641
0.0166407
0.0166404
0.0166401
0.0166398
0.0166395
0.0166392
0.0166389
0.0166386
0.0166383
0.016638
0.0166376
0.0166373
0.016637
0.0166367
0.0166364
0.0166361
0.0166358
0.0166355
0.0166352
0.0166349
0.0166346
0.0166343
0.016634
0.0166337
0.0166334
0.0166331
0.0166328
0.0166325
0.0166322
0.0166318
0.0166315
0.0166312
0.0166309
0.0166306
0.0166303
0.01663
0.0166297
0.0166294
0.0166291
0.0166288
0.0166285
0.0166282
0.0166279
0.0166276
0.0166273
0.016627
0.0166267
0.0166264
0.016626
0.0166257
0.0166254
0.0166251
0.0166248
0.0166245
0.0166242
0.0166239
0.0166236
0.0166233
0.016623
0.0166227
0.0166224
0.0166221
0.0166218
0.0166215
0.0166212
0.0166209
0.0166206
0.0166202
0.0166199
0.0166196
0.0166193
0.016619
0.0166187
0.0166184
0.0166181
0.0166178
0.0166175
0.0166172
0.0166169
0.0166166
0.0166163
0.016616
0.0166157
0.0166154
0.016615
0.0166147
0.0166144
0.0166141
0.0166138
0.0166135
0.0166132
0.0166129
0.0166126
0.0166123
0.016612
0.0166117
0.0166114
0.0166111
0.0166108
0.0166105
0.0166102
0.0166098
0.0166095
0.0166092
0.0166089
0.0166086
0.0166083
0.016608
0.0166077
0.0166074
0.0166071
0.0166068
0.0166065
0.0166062
0.0166059
0.0166056
0.0166053
0.016605
0.0166046
0.0166043
0.016604
0.0166037
0.0166034
0.0166031
0.0166028
0.0166025
0.0166022
0.0166019
0.0166016
0.0166013
0.016601
0.0166007
0.0166004
0.0166001
0.0165997
0.0165994
0.0165991
0.0165988
0.0165985
0.0165982
0.0165979
0.0165976
0.0165973
0.016597
0.0165967
0.0165964
0.0165961
0.0165958
0.0165955
0.0165951
0.0165948
0.0165945
0.0165942
0.0165939
0.0165936
0.0165933
0.016593
0.0165927
0.0165924
0.0165921
0.0165918
0.0165915
0.0165912
0.0165909
0.0165905
0.0165902
0.0165899
0.0165896
0.0165893
0.016589
0.0165887
0.0165884
0.0165881
0.0165878
0.0165875
0.0165872
0.0165869
0.0165866
0.0165863
0.0165859
0.0165856
0.0165853
0.016585
0.0165847
0.0165844
0.0165841
0.0165838
0.0165835
0.0165832
0.0165829
0.0165826
0.0165823
0.016582
0.0165816
0.0165813
0.016581
0.0165807
0.0165804
0.0165801
0.0165798
0.0165795
0.0165792
0.0165789
0.0165786
0.0165783
0.0165779
0.0165776
0.0165773
0.016577
0.0165767
0.0165764
0.0165761
0.0165757
0.0165754
0.0165751
0.0165747
0.0165744
0.016574
0.0165737
0.0165733
0.0165729
0.0165725
0.016572
0.0165715
0.016571
0.0165704
0.0165696
0.0165689
0.0165677
0.0165674
0.0165674
0.0165674
1
0.969188
0.495613
0.314219
0.237892
0.197391
0.172128
0.15469
0.141835
0.131921
0.12402
0.117565
0.112188
0.107636
0.103732
0.100345
0.0973762
0.0947514
0.0924123
0.0903126
0.0884155
0.0866913
0.0851156
0.0836683
0.0823329
0.0810955
0.0799445
0.0788701
0.0778638
0.0769186
0.0760283
0.0751876
0.0743919
0.0736372
0.0729199
0.0722371
0.0715859
0.0709639
0.0703691
0.0697993
0.069253
0.0687284
0.0682243
0.0677393
0.0672723
0.0668222
0.066388
0.0659687
0.0655637
0.0651721
0.0647932
0.0644264
0.064071
0.0637265
0.0633923
0.063068
0.0627532
0.0624473
0.06215
0.0618609
0.0615796
0.0613059
0.0610393
0.0607797
0.0605267
0.06028
0.0600395
0.0598048
0.0595758
0.0593522
0.0591339
0.0589206
0.0587121
0.0585084
0.0583092
0.0581144
0.0579238
0.0577372
0.0575547
0.0573759
0.0572009
0.0570294
0.0568614
0.0566968
0.0565354
0.0563772
0.0562221
0.05607
0.0559208
0.0557743
0.0556307
0.0554897
0.0553512
0.0552154
0.0550819
0.0549509
0.0548223
0.0546959
0.0545717
0.0544498
0.0543299
0.0542122
0.0540965
0.0539828
0.0538711
0.0537614
0.0536535
0.0535475
0.0534434
0.0533411
0.0532406
0.0531419
0.053045
0.0529498
0.0528564
0.0527648
0.052675
0.0525869
0.0525006
0.0524161
0.0523334
0.0522525
0.0521734
0.0520961
0.0520207
0.0519472
0.0518755
0.0518057
0.0517378
0.0516717
0.0516075
0.0515452
0.0514846
0.0514259
0.051369
0.0513139
0.0512605
0.0512087
0.0511586
0.0511101
0.0510632
0.0510178
0.0509739
0.0509314
0.0508902
0.0508505
0.050812
0.0507747
0.0507387
0.0507038
0.0506701
0.0506375
0.050606
0.0505755
0.050546
0.0505175
0.05049
0.0504634
0.0504377
0.0504129
0.0503889
0.0503658
0.0503436
0.0503221
0.0503014
0.0502815
0.0502623
0.0502438
0.0502261
0.050209
0.0501926
0.0501768
0.0501617
0.0501472
0.0501332
0.0501199
0.0501071
0.0500948
0.0500831
0.0500719
0.0500612
0.0500509
0.0500411
0.0500316
0.0500226
0.050014
0.0500058
0.0499979
0.0499904
0.0499833
0.0499765
0.0499702
0.0499643
0.0499588
0.0499537
0.0499491
0.0499449
0.049941
0.0499376
0.0499346
0.0499319
0.0499295
0.0499273
0.0499254
0.0499238
0.0499223
0.0499209
0.0499196
0.0499185
0.0499174
0.0499164
0.0499154
0.0499144
0.0499135
0.0499125
0.0499116
0.0499107
0.0499098
0.0499089
0.049908
0.0499071
0.0499062
0.0499053
0.0499043
0.0499034
0.0499025
0.0499016
0.0499007
0.0498998
0.0498989
0.049898
0.0498971
0.0498961
0.0498952
0.0498943
0.0498934
0.0498925
0.0498916
0.0498907
0.0498898
0.0498888
0.0498879
0.049887
0.0498861
0.0498852
0.0498843
0.0498834
0.0498825
0.0498815
0.0498806
0.0498797
0.0498788
0.0498779
0.049877
0.0498761
0.0498752
0.0498742
0.0498733
0.0498724
0.0498715
0.0498706
0.0498697
0.0498688
0.0498679
0.0498669
0.049866
0.0498651
0.0498642
0.0498633
0.0498624
0.0498615
0.0498606
0.0498596
0.0498587
0.0498578
0.0498569
0.049856
0.0498551
0.0498542
0.0498533
0.0498523
0.0498514
0.0498505
0.0498496
0.0498487
0.0498478
0.0498469
0.0498459
0.049845
0.0498441
0.0498432
0.0498423
0.0498414
0.0498405
0.0498396
0.0498386
0.0498377
0.0498368
0.0498359
0.049835
0.0498341
0.0498332
0.0498323
0.0498313
0.0498304
0.0498295
0.0498286
0.0498277
0.0498268
0.0498259
0.0498249
0.049824
0.0498231
0.0498222
0.0498213
0.0498204
0.0498195
0.0498186
0.0498176
0.0498167
0.0498158
0.0498149
0.049814
0.0498131
0.0498122
0.0498112
0.0498103
0.0498094
0.0498085
0.0498076
0.0498067
0.0498058
0.0498049
0.0498039
0.049803
0.0498021
0.0498012
0.0498003
0.0497994
0.0497985