# vtk DataFile Version 2.0
FlowField
ASCII
DATASET STRUCTURED_GRID
DIMENSIONS 800 1 200
POINTS 160000 float
0 0 0
0.04 0 0
0.08 0 0
0.12 0 0
0.16 0 0
0.2 0 0
0.24 0 0
0.28 0 0
0.32 0 0
0.36 0 0
0.4 0 0
0.44 0 0
0.48 0 0
0.52 0 0
0.56 0 0
0.6 0 0
0.64 0 0
0.68 0 0
0.72 0 0
0.76 0 0
0.8 0 0
0.84 0 0
0.88 0 0
0.92 0 0
0.96 0 0
1 0 0
1.04 0 0
1.08 0 0
1.12 0 0
1.16 0 0
1.2 0 0
1.24 0 0
1.28 0 0
1.32 0 0
1.36 0 0
1.4 0 0
1.44 0 0
1.48 0 0
1.52 0 0
1.56 0 0
1.6 0 0
1.64 0 0
1.68 0 0
1.72 0 0
1.76 0 0
1.8 0 0
1.84 0 0
1.88 0 0
1.92 0 0
1.96 0 0
2 0 0
2.04 0 0
2.08 0 0
2.12 0 0
2.16 0 0
2.2 0 0
2.24 0 0
2.28 0 0
2.32 0 0
2.36 0 0
2.4 0 0
2.44 0 0
2.48 0 0
2.52 0 0
2.56 0 0
2.6 0 0
2.64 0 0
2.68 0 0
2.72 0 0
2.76 0 0
2.8 0 0
2.84 0 0
2.88 0 0
2.92 0 0
2.96 0 0
3 0 0
3.04 0 0
3.08 0 0
3.12 0 0
3.16 0 0
3.2 0 0
3.24 0 0
3.28 0 0
3.32 0 0
3.36 0 0
3.4 0 0
3.44 0 0
3.48 0 0
3.52 0 0
3.56 0 0
3.6 0 0
3.64 0 0
3.68 0 0
3.72 0 0
3.76 0 0
3.8 0 0
3.84 0 0
3.88 0 0
3.92 0 0
3.96 0 0
4 0 0
4.04 0 0
4.08 0 0
4.12 0 0
4.16 0 0
4.2 0 0
4.24 0 0
4.28 0 0
4.32 0 0
4.36 0 0
4.4 0 0
4.44 0 0
4.48 0 0
4.52 0 0
4.56 0 0
4.6 0 0
4.64 0 0
4.68 0 0
4.72 0 0
4.76 0 0
4.8 0 0
4.84 0 0
4.88 0 0
4.92 0 0
4.96 0 0
5 0 0
5.04 0 0
5.08 0 0
5.12 0 0
5.16 0 0
5.2 0 0
5.24 0 0
5.28 0 0
5.32 0 0
5.36 0 0
5.4 0 0
5.44 0 0
5.48 0 0
5.52 0 0
5.56 0 0
5.6 0 0
5.64 0 0
5.68 0 0
5.72 0 0
5.76 0 0
5.8 0 0
5.84 0 0
5.88 0 0
5.92 0 0
5.96 0 0
6 0 0
6.04 0 0
6.08 0 0
6.12 0 0
6.16 0 0
6.2 0 0
6.24 0 0
6.28 0 0
6.32 0 0
6.36 0 0
6.4 0 0
6.44 0 0
6.48 0 0
6.52 0 0
6.56 0 0
6.6 0 0
6.64 0 0
6.68 0 0
6.72 0 0
6.76 0 0
6.8 0 0
6.84 0 0
6.88 0 0
6.92 0 0
6.96 0 0
7 0 0
7.04 0 0
7.08 0 0
7.12 0 0
7.16 0 0
7.2 0 0
7.24 0 0
7.28 0 0
7.32 0 0
7.36 0 0
7.4 0 0
7.44 0 0
7.48 0 0
7.52 0 0
7.56 0 0
7.6 0 0
7.64 0 0
7.68 0 0
7.72 0 0
7.76 0 0
7.8 0 0
7.84 0 0
7.88 0 0
7.92 0 0
7.96 0 0
8 0 0
8.04 0 0
8.08 0 0
8.12 0 0
8.16 0 0
8.2 0 0
8.24 0 0
8.28 0 0
8.32 0 0
8.36 0 0
8.4 0 0
8.44 0 0
8.48 0 0
8.52 0 0
8.56 0 0
8.6 0 0
8.64 0 0
8.68 0 0
8.72 0 0
8.76 0 0
8.8 0 0
8.84 0 0
8.88 0 0
8.92 0 0
8.96 0 0
9 0 0
9.04 0 0
9.08 0 0
9.12 0 0
9.16 0 0
9.2 0 0
9.24 0 0
9.28 0 0
9.32 0 0
9.36 0 0
9.4 0 0
9.44 0 0
9.48 0 0
9.52 0 0
9.56 0 0
9.6 0 0
9.64 0 0
9.68 0 0
9.72 0 0
9.76 0 0
9.8 0 0
9.84 0 0
9.88 0 0
9.92 0 0
9.96 0 0
10 0 0
10.04 0 0
10.08 0 0
10.12 0 0
10.16 0 0
10.2 0 0
10.24 0 0
10.28 0 0
10.32 0 0
10.36 0 0
10.4 0 0
10.44 0 0
10.48 0 0
10.52 0 0
10.56 0 0
10.6 0 0
10.64 0 0
10.68 0 0
10.72 0 0
10.76 0 0
10.8 0 0
10.84 0 0
10.88 0 0
10.92 0 0
10.96 0 0
11 0 0
11.04 0 0
11.08 0 0
11.12 0 0
11.16 0 0
11.2 0 0
11.24 0 0
11.28 0 0
11.32 0 0
11.36 0 0
11.4 0 0
11.44 0 0
11.48 0 0
11.52 0 0
11.56 0 0
11.6 0 0
11.64 0 0
11.68 0 0
11.72 0 0
11.76 0 0
11.8 0 0
11.84 0 0
11.88 0 0
11.92 0 0
11.96 0 0
12 0 0
12.04 0 0
12.08 0 0
12.12 0 0
12.16 0 0
12.2 0 0
12.24 0 0
12.28 0 0
12.32 0 0
12.36 0 0
12.4 0 0
12.44 0 0
12.48 0 0
12.52 0 0
12.56 0 0
12.6 0 0
12.64 0 0
12.68 0 0
12.72 0 0
12.76 0 0
12.8 0 0
12.84 0 0
12.88 0 0
12.92 0 0
12.96 0 0
13 0 0
13.04 0 0
13.08 0 0
13.12 0 0
13.16 0 0
13.2 0 0
13.24 0 0
13.28 0 0
13.32 0 0
13.36 0 0
13.4 0 0
13.44 0 0
13.48 0 0
13.52 0 0
13.56 0 0
13.6 0 0
13.64 0 0
13.68 0 0
13.72 0 0
13.76 0 0
13.8 0 0
13.84 0 0
13.88 0 0
13.92 0 0
13.96 0 0
14 0 0
14.04 0 0
14.08 0 0
14.12 0 0
14.16 0 0
14.2 0 0
14.24 0 0
14.28 0 0
14.32 0 0
14.36 0 0
14.4 0 0
14.44 0 0
14.48 0 0
14.52 0 0
14.56 0 0
14.6 0 0
14.64 0 0
14.68 0 0
14.72 0 0
14.76 0 0
14.8 0 0
14.84 0 0
14.88 0 0
14.92 0 0
14.96 0 0
15 0 0
15.04 0 0
15.08 0 0
15.12 0 0
15.16 0 0
15.2 0 0
15.24 0 0
15.28 0 0
15.32 0 0
15.36 0 0
15.4 0 0
15.44 0 0
15.48 0 0
15.52 0 0
15.56 0 0
15.6 0 0
15.64 0 0
15.68 0 0
15.72 0 0
15.76 0 0
15.8 0 0
15.84 0 0
15.88 0 0
15.92 0 0
15.96 0 0
16 0 0
16.04 0 0
16.08 0 0
16.12 0 0
16.16 0 0
16.2 0 0
16.24 0 0
16.28 0 0
16.32 0 0
16.36 0 0
16.4 0 0
16.44 0 0
16.48 0 0
16.52 0 0
16.56 0 0
16.6 0 0
16.64 0 0
16.68 0 0
16.72 0 0
16.76 0 0
16.8 0 0
16.84 0 0
16.88 0 0
16.92 0 0
16.96 0 0
17 0 0
17.04 0 0
17.08 0 0
17.12 0 0
17.16 0 0
17.2 0 0
17.24 0 0
17.28 0 0
17.32 0 0
17.36 0 0
17.4 0 0
17.44 0 0
17.48 0 0
17.52 0 0
17.56 0 0
17.6 0 0
17.64 0 0
17.68 0 0
17.72 0 0
17.76 0 0
17.8 0 0
17.84 0 0
17.88 0 0
17.92 0 0
17.96 0 0
18 0 0
18.04 0 0
18.08 0 0
18.12 0 0
18.16 0 0
18.2 0 0
18.24 0 0
18.28 0 0
18.32 0 0
18.36 0 0
18.4 0 0
18.44 0 0
18.48 0 0
18.52 0 0
18.56 0 0
18.6 0 0
18.64 0 0
18.68 0 0
18.72 0 0
18.76 0 0
18.8 0 0
18.84 0 0
18.88 0 0
18.92 0 0
18.96 0 0
19 0 0
19.04 0 0
19.08 0 0
19.12 0 0
19.16 0 0
19.2 0 0
19.24 0 0
19.28 0 0
19.32 0 0
19.36 0 0
19.4 0 0
19.44 0 0
19.48 0 0
19.52 0 0
19.56 0 0
19.6 0 0
19.64 0 0
19.68 0 0
19.72 0 0
19.76 0 0
19.8 0 0
19.84 0 0
19.88 0 0
19.92 0 0
19.96 0 0
20 0 0
20.04 0 0
20.08 0 0
20.12 0 0
20.16 0 0
20.2 0 0
20.24 0 0
20.28 0 0
20.32 0 0
20.36 0 0
20.4 0 0
20.44 0 0
20.48 0 0
20.52 0 0
20.56 0 0
20.6 0 0
20.64 0 0
20.68 0 0
20.72 0 0
20.76 0 0
20.8 0 0
20.84 0 0
20.88 0 0
20.92 0 0
20.96 0 0
21 0 0
21.04 0 0
21.08 0 0
21.12 0 0
21.16 0 0
21.2 0 0
21.24 0 0
21.28 0 0
21.32 0 0
21.36 0 0
21.4 0 0
21.44 0 0
21.48 0 0
21.52 0 0
21.56 0 0
21.6 0 0
21.64 0 0
21.68 0 0
21.72 0 0
21.76 0 0
21.8 0 0
21.84 0 0
21.88 0 0
21.92 0 0
21.96 0 0
22 0 0
22.04 0 0
22.08 0 0
22.12 0 0
22.16 0 0
22.2 0 0
22.24 0 0
22.28 0 0
22.32 0 0
22.36 0 0
22.4 0 0
22.44 0 0
22.48 0 0
22.52 0 0
22.56 0 0
22.6 0 0
22.64 0 0
22.68 0 0
22.72 0 0
22.76 0 0
22.8 0 0
22.84 0 0
22.88 0 0
22.92 0 0
22.96 0 0
23 0 0
23.04 0 0
23.08 0 0
23.12 0 0
23.16 0 0
23.2 0 0
23.24 0 0
23.28 0 0
23.32 0 0
23.36 0 0
23.4 0 0
23.44 0 0
23.48 0 0
23.52 0 0
23.56 0 0
23.6 0 0
23.64 0 0
23.68 0 0
23.72 0 0
23.76 0 0
23.8 0 0
23.84 0 0
23.88 0 0
23.92 0 0
23.96 0 0
24 0 0
24.04 0 0
24.08 0 0
24.12 0 0
24.16 0 0
24.2 0 0
24.24 0 0
24.28 0 0
24.32 0 0
24.36 0 0
24.4 0 0
24.44 0 0
24.48 0 0
24.52 0 0
24.56 0 0
24.6 0 0
24.64 0 0
24.68 0 0
24.72 0 0
24.76 0 0
24.8 0 0
24.84 0 0
24.88 0 0
24.92 0 0
24.96 0 0
25 0 0
25.04 0 0
25.08 0 0
25.12 0 0
25.16 0 0
25.2 0 0
25.24 0 0
25.28 0 0
25.32 0 0
25.36 0 0
25.4 0 0
25.44 0 0
25.48 0 0
25.52 0 0
25.56 0 0
25.6 0 0
25.64 0 0
25.68 0 0
25.72 0 0
25.76 0 0
25.8 0 0
25.84 0 0
25.88 0 0
25.92 0 0
25.96 0 0
26 0 0
26.04 0 0
26.08 0 0
26.12 0 0
26.16 0 0
26.2 0 0
26.24 0 0
26.28 0 0
26.32 0 0
26.36 0 0
26.4 0 0
26.44 0 0
26.48 0 0
26.52 0 0
26.56 0 0
26.6 0 0
26.64 0 0
26.68 0 0
26.72 0 0
26.76 0 0
26.8 0 0
26.84 0 0
26.88 0 0
26.92 0 0
26.96 0 0
27 0 0
27.04 0 0
27.08 0 0
27.12 0 0
27.16 0 0
27.2 0 0
27.24 0 0
27.28 0 0
27.32 0 0
27.36 0 0
27.4 0 0
27.44 0 0
27.48 0 0
27.52 0 0
27.56 0 0
27.6 0 0
27.64 0 0
27.68 0 0
27.72 0 0
27.76 0 0
27.8 0 0
27.84 0 0
27.88 0 0
27.92 0 0
27.96 0 0
28 0 0
28.04 0 0
28.08 0 0
28.12 0 0
28.16 0 0
28.2 0 0
28.24 0 0
28.28 0 0
28.32 0 0
28.36 0 0
28.4 0 0
28.44 0 0
28.48 0 0
28.52 0 0
28.56 0 0
28.6 0 0
28.64 0 0
28.68 0 0
28.72 0 0
28.76 0 0
28.8 0 0
28.84 0 0
28.88 0 0
28.92 0 0
28.96 0 0
29 0 0
29.04 0 0
29.08 0 0
29.12 0 0
29.16 0 0
29.2 0 0
29.24 0 0
29.28 0 0
29.32 0 0
29.36 0 0
29.4 0 0
29.44 0 0
29.48 0 0
29.52 0 0
29.56 0 0
29.6 0 0
29.64 0 0
29.68 0 0
29.72 0 0
29.76 0 0
29.8 0 0
29.84 0 0
29.88 0 0
29.92 0 0
29.96 0 0
30 0 0
30.04 0 0
30.08 0 0
30.12 0 0
30.16 0 0
30.2 0 0
30.24 0 0
30.28 0 0
30.32 0 0
30.36 0 0
30.4 0 0
30.44 0 0
30.48 0 0
30.52 0 0
30.56 0 0
30.6 0 0
30.64 0 0
30.68 0 0
30.72 0 0
30.76 0 0
30.8 0 0
30.84 0 0
30.88 0 0
30.92 0 0
30.96 0 0
31 0 0
31.04 0 0
31.08 0 0
31.12 0 0
31.16 0 0
31.2 0 0
31.24 0 0
31.28 0 0
31.32 0 0
31.36 0 0
31.4 0 0
31.44 0 0
31.48 0 0
31.52 0 0
31.56 0 0
31.6 0 0
31.64 0 0
31.68 0 0
31.72 0 0
31.76 0 0
31.8 0 0
31.84 0 0
31.88 0 0
31.92 0 0
31.96 0 0
0 0.005 0
0.04 0.005 0
0.08 0.005 0
0.12 0.005 0
0.16 0.005 0
0.2 0.005 0
0.24 0.005 0
0.28 0.005 0
0.32 0.005 0
0.36 0.005 0
0.4 0.005 0
0.44 0.005 0
0.48 0.005 0
0.52 0.005 0
0.56 0.005 0
0.6 0.005 0
0.64 0.005 0
0.68 0.005 0
0.72 0.005 0
0.76 0.005 0
0.8 0.005 0
0.84 0.005 0
0.88 0.005 0
0.92 0.005 0
0.96 0.005 0
1 0.005 0
1.04 0.005 0
1.08 0.005 0
1.12 0.005 0
1.16 0.005 0
1.2 0.005 0
1.24 0.005 0
1.28 0.005 0
1.32 0.005 0
1.36 0.005 0
1.4 0.005 0
1.44 0.005 0
1.48 0.005 0
1.52 0.005 0
1.56 0.005 0
1.6 0.005 0
1.64 0.005 0
1.68 0.005 0
1.72 0.005 0
1.76 0.005 0
1.8 0.005 0
1.84 0.005 0
1.88 0.005 0
1.92 0.005 0
1.96 0.005 0
2 0.005 0
2.04 0.005 0
2.08 0.005 0
2.12 0.005 0
2.16 0.005 0
2.2 0.005 0
2.24 0.005 0
2.28 0.005 0
2.32 0.005 0
2.36 0.005 0
2.4 0.005 0
2.44 0.005 0
2.48 0.005 0
2.52 0.005 0
2.56 0.005 0
2.6 0.005 0
2.64 0.005 0
2.68 0.005 0
2.72 0.005 0
2.76 0.005 0
2.8 0.005 0
2.84 0.005 0
2.88 0.005 0
2.92 0.005 0
2.96 0.005 0
3 0.005 0
3.04 0.005 0
3.08 0.005 0
3.12 0.005 0
3.16 0.005 0
3.2 0.005 0
3.24 0.005 0
3.28 0.005 0
3.32 0.005 0
3.36 0.005 0
3.4 0.005 0
3.44 0.005 0
3.48 0.005 0
3.52 0.005 0
3.56 0.005 0
3.6 0.005 0
3.64 0.005 0
3.68 0.005 0
3.72 0.005 0
3.76 0.005 0
3.8 0.005 0
3.84 0.005 0
3.88 0.005 0
3.92 0.005 0
3.96 0.005 0
4 0.005 0
4.04 0.005 0
4.08 0.005 0
4.12 0.005 0
4.16 0.005 0
4.2 0.005 0
4.24 0.005 0
4.28 0.005 0
4.32 0.005 0
4.36 0.005 0
4.4 0.005 0
4.44 0.005 0
4.48 0.005 0
4.52 0.005 0
4.56 0.005 0
4.6 0.005 0
4.64 0.005 0
4.68 0.005 0
4.72 0.005 0
4.76 0.005 0
4.8 0.005 0
4.84 0.005 0
4.88 0.005 0
4.92 0.005 0
4.96 0.005 0
5 0.005 0
5.04 0.005 0
5.08 0.005 0
5.12 0.005 0
5.16 0.005 0
5.2 0.005 0
5.24 0.005 0
5.28 0.005 0
5.32 0.005 0
5.36 0.005 0
5.4 0.005 0
5.44 0.005 0
5.48 0.005 0
5.52 0.005 0
5.56 0.005 0
5.6 0.005 0
5.64 0.005 0
5.68 0.005 0
5.72 0.005 0
5.76 0.005 0
5.8 0.005 0
5.84 0.005 0
5.88 0.005 0
5.92 0.005 0
5.96 0.005 0
6 0.005 0
6.04 0.005 0
6.08 0.005 0
6.12 0.005 0
6.16 0.005 0
6.2 0.005 0
6.24 0.005 0
6.28 0.005 0
6.32 0.005 0
6.36 0.005 0
6.4 0.005 0
6.44 0.005 0
6.48 0.005 0
6.52 0.005 0
6.56 0.005 0
6.6 0.005 0
6.64 0.005 0
6.68 0.005 0
6.72 0.005 0
6.76 0.005 0
6.8 0.005 0
6.84 0.005 0
6.88 0.005 0
6.92 0.005 0
6.96 0.005 0
7 0.005 0
7.04 0.005 0
7.08 0.005 0
7.12 0.005 0
7.16 0.005 0
7.2 0.005 0
7.24 0.005 0
7.28 0.005 0
7.32 0.005 0
7.36 0.005 0
7.4 0.005 0
[...]
POINT_DATA 160000

SCALARS p float 1
LOOKUP_TABLE default
1
78.2705
76.0551
75.8002
75.74
75.7136
75.6976
75.686
75.6768
75.6689
75.662
75.6556
75.6497
75.6442
75.6389
75.6338
75.6288
75.624
75.6193
75.6146
75.6101
75.6056
75.6012
75.5969
75.5926
75.5884
75.5842
75.5801
75.5761
75.5721
75.5681
75.5642
75.5603
75.5565
75.5527
75.5489
75.5452
75.5415
75.5379
75.5343
75.5308
75.5272
75.5237
75.5203
75.5168
75.5135
75.5101
75.5068
75.5034
75.5002
75.4969
75.4937
75.4905
75.4873
75.4842
75.481
75.4779
75.4749
75.4718
75.4688
75.4658
75.4628
75.4598
75.4568
75.4539
75.451
75.4481
75.4452
75.4424
75.4395
75.4367
75.4339
75.4311
75.4283
75.4256
75.4228
75.4201
75.4174
75.4147
75.412
75.4094
75.4067
75.4041
75.4014
75.3988
75.3962
75.3936
75.391
75.3885
75.3859
75.3834
75.3808
75.3783
75.3758
75.3733
75.3708
75.3683
75.3659
75.3634
75.361
75.3585
75.3561
75.3537
75.3513
75.3489
75.3465
75.3441
75.3418
75.3394
75.3371
75.3347
75.3324
75.33
75.3277
75.3254
75.3231
75.3208
75.3185
75.3163
75.314
75.3117
75.3095
75.3072
75.305
75.3027
75.3005
75.2983
75.2961
75.2939
75.2917
75.2895
75.2873
75.2851
75.2829
75.2808
75.2786
75.2764
75.2743
75.2722
75.27
75.2679
75.2658
75.2636
75.2615
75.2594
75.2573
75.2552
75.2531
75.251
75.2489
75.2469
75.2448
75.2427
75.2407
75.2386
75.2366
75.2345
75.2325
75.2304
75.2284
75.2264
75.2243
75.2223
75.2203
75.2183
75.2163
75.2143
75.2123
75.2103
75.2083
75.2063
75.2044
75.2024
75.2004
75.1984
75.1965
75.1945
75.1926
75.1906
75.1887
75.1867
75.1848
75.1828
75.1809
75.179
75.1771
75.1751
75.1732
75.1713
75.1694
75.1675
75.1656
75.1637
75.1618
75.1599
75.158
75.1561
75.1542
75.1523
75.1505
75.1486
75.1467
75.1448
75.143
75.1411
75.1393
75.1374
75.1355
75.1337
75.1318
75.13
75.1281
75.1263
75.1245
75.1226
75.1208
75.119
75.1171
75.1153
75.1135
75.1117
75.1099
75.1081
75.1062
75.1044
75.1026
75.1008
75.099
75.0972
75.0954
75.0936
75.0918
75.09
75.0883
75.0865
75.0847
75.0829
75.0811
75.0793
75.0776
75.0758
75.074
75.0723
75.0705
75.0687
75.067
75.0652
75.0634
75.0617
75.0599
75.0582
75.0564
75.0547
75.0529
75.0512
75.0494
75.0477
75.046
75.0442
75.0425
75.0408
75.039
75.0373
75.0356
75.0338
75.0321
75.0304
75.0287
75.0269
75.0252
75.0235
75.0218
75.0201
75.0184
75.0166
75.0149
75.0132
75.0115
75.0098
75.0081
75.0064
75.0047
75.003
75.0013
74.9996
74.9979
74.9962
74.9945
74.9928
74.9911
74.9894
74.9878
74.9861
74.9844
74.9827
74.981
74.9793
74.9777
74.976
74.9743
74.9726
74.9709
74.9693
74.9676
74.9659
74.9643
74.9626
74.9609
74.9592
74.9576
74.9559
74.9543
74.9526
74.9509
74.9493
74.9476
74.9459
74.9443
74.9426
74.941
74.9393
74.9377
74.936
74.9344
74.9327
74.9311
74.9294
74.9278
74.9261
74.9245
74.9228
74.9212
74.9195
74.9179
74.9162
74.9146
74.913
74.9113
74.9097
74.908
74.9064
74.9048
74.9031
74.9015
74.8999
74.8982
74.8966
74.895
74.8933
74.8917
74.8901
74.8884
74.8868
74.8852
74.8836
74.8819
74.8803
74.8787
74.8771
74.8754
74.8738
74.8722
74.8706
74.8689
74.8673
74.8657
74.8641
74.8625
74.8608
74.8592
74.8576
74.856
74.8544
74.8528
74.8512
74.8495
74.8479
74.8463
74.8447
74.8431
74.8415
74.8399
74.8383
74.8367
74.835
74.8334
74.8318
74.8302
74.8286
74.827
74.8254
74.8238
74.8222
74.8206
74.819
74.8174
74.8158
74.8142
74.8126
74.811
74.8094
74.8078
74.8062
74.8046
74.803
74.8014
74.7998
74.7982
74.7966
74.795
74.7934
74.7918
74.7902
74.7886
74.787
74.7854
74.7838
74.7822
74.7806
74.779
74.7775
74.7759
74.7743
74.7727
74.7711
74.7695
74.7679
74.7663
74.7647
74.7631
74.7615
74.76
74.7584
74.7568
74.7552
74.7536
74.752
74.7504
74.7489
74.7473
74.7457
74.7441
74.7425
74.7409
74.7393
74.7378
74.7362
74.7346
74.733
74.7314
74.7298
74.7283
74.7267
74.7251
74.7235
74.7219
74.7204
74.7188
74.7172
74.7156
74.714
74.7125
74.7109
74.7093
74.7077
74.7061
74.7046
74.703
74.7014
74.6998
74.6983
74.6967
74.6951
74.6935
74.6919
74.6904
74.6888
74.6872
74.6856
74.6841
74.6825
74.6809
74.6793
74.6778
74.6762
74.6746
74.673
74.6715
74.6699
74.6683
74.6668
74.6652
74.6636
74.662
74.6605
74.6589
74.6573
74.6558
74.6542
74.6526
74.651
74.6495
74.6479
74.6463
74.6448
74.6432
74.6416
74.6401
74.6385
74.6369
74.6353
74.6338
74.6322
74.6306
74.6291
74.6275
74.6259
74.6244
74.6228
74.6212
74.6197
74.6181
74.6165
74.615
74.6134
74.6118
74.6103
74.6087
74.6071
74.6056
74.604
74.6024
74.6009
74.5993
74.5977
74.5962
74.5946
74.593
74.5915
74.5899
74.5884
74.5868
74.5852
74.5837
74.5821
74.5805
74.579
74.5774
74.5758
74.5743
74.5727
74.5712
74.5696
74.568
74.5665
74.5649
74.5633
74.5618
74.5602
74.5587
74.5571
74.5555
74.554
74.5524
74.5508
74.5493
74.5477
74.5462
74.5446
74.543
74.5415
74.5399
74.5384
74.5368
74.5352
74.5337
74.5321
74.5306
74.529
74.5274
74.5259
74.5243
74.5228
74.5212
74.5196
74.5181
74.5165
74.515
74.5134
74.5118
74.5103
74.5087
74.5072
74.5056
74.5041
74.5025
74.5009
74.4994
74.4978
74.4963
74.4947
74.4931
74.4916
74.49
74.4885
74.4869
74.4854
74.4838
74.4822
74.4807
74.4791
74.4776
74.476
74.4745
74.4729
74.4713
74.4698
74.4682
74.4667
74.4651
74.4636
74.462
74.4605
74.4589
74.4573
74.4558
74.4542
74.4527
74.4511
74.4496
74.448
74.4465
74.4449
74.4433
74.4418
74.4402
74.4387
74.4371
74.4356
74.434
74.4325
74.4309
74.4293
74.4278
74.4262
74.4247
74.4231
74.4216
74.42
74.4185
74.4169
74.4154
74.4138
74.4123
74.4107
74.4091
74.4076
74.406
74.4045
74.4029
74.4014
74.3998
74.3983
74.3967
74.3952
74.3936
74.3921
74.3905
74.389
74.3874
74.3858
74.3843
74.3827
74.3812
74.3796
74.3781
74.3765
74.375
74.3734
74.3719
74.3703
74.3688
74.3672
74.3657
74.3641
74.3626
74.361
74.3595
74.3579
74.3564
74.3548
74.3533
74.3517
74.3501
74.3486
74.347
74.3455
74.3439
74.3424
74.3408
74.3393
74.3377
74.3362
74.3346
74.3331
74.3315
74.33
74.3284
74.3269
74.3253
74.3238
74.3222
74.3207
74.3191
74.3176
74.316
74.3145
74.3129
74.3114
74.3098
74.3083
74.3067
74.3052
74.3036
74.3021
74.3005
74.299
74.2974
74.2959
74.2943
74.2928
74.2912
74.2897
74.2881
74.2866
74.285
74.2835
74.2819
74.2804
74.2788
74.2773
74.2757
74.2742
74.2726
74.2711
74.2695
74.268
74.2664
74.2649
74.2633
74.2618
74.2602
74.2587
74.2572
74.2556
74.2541
74.2525
74.251
74.2494
74.2479
74.2463
74.2448
74.2432
74.2417
74.2401
74.2386
74.237
74.2355
74.2339
74.2324
74.2308
74.2293
74.2277
74.2262
74.2246
74.2231
74.2215
74.22
74.2185
74.2169
74.2154
74.2138
74.2123
74.2107
74.2092
74.2076
74.2061
74.2045
74.203
74.2014
74.1999
74.1983
74.1968
74.1952
74.1937
74.1922
74.1906
74.1891
74.1875
1
78.2705
78.2705
76.0551
75.8002
75.74
75.7136
75.6976
75.686
75.6768
75.6689
75.662
75.6556
75.6497
75.6442
75.6389
75.6338
75.6288
75.624
75.6193
75.6146
75.6101
75.6056
75.6012
75.5969
75.5926
75.5884
75.5842
75.5801
75.5761
75.5721
75.5681
75.5642
75.5603
75.5565
75.5527
75.5489
75.5452
75.5415
75.5379
75.5343
75.5308
75.5272
75.5237
75.5203
75.5168
75.5135
75.5101
75.5068
75.5034
75.5002
75.4969
75.4937
75.4905
75.4873
75.4842
75.481
75.4779
75.4749
75.4718
75.4688
75.4658
75.4628
75.4598
75.4568
75.4539
75.451
75.4481
75.4452
75.4424
75.4395
75.4367
75.4339
75.4311
75.4283
75.4256
75.4228
75.4201
75.4174
75.4147
75.412
75.4094
75.4067
75.4041
75.4014
75.3988
75.3962
75.3936
75.391
75.3885
75.3859
75.3834
75.3808
75.3783
75.3758
75.3733
75.3708
75.3683
75.3659
75.3634
75.361
75.3585
75.3561
75.3537
75.3513
75.3489
75.3465
75.3441
75.3418
75.3394
75.3371
75.3347
75.3324
75.33
75.3277
75.3254
75.3231
75.3208
75.3185
75.3163
75.314
75.3117
75.3095
75.3072
75.305
75.3027
75.3005
75.2983
75.2961
75.2939
75.2917
75.2895
75.2873
75.2851
75.2829
75.2808
75.2786
75.2764
75.2743
75.2722
75.27
75.2679
75.2658
75.2636
75.2615
75.2594
75.2573
75.2552
75.2531
75.251
75.2489
75.2469
75.2448
75.2427
75.2407
75.2386
75.2366
75.2345
75.2325
75.2304
75.2284
75.2264
75.2243
75.2223
75.2203
75.2183
75.2163
75.2143
75.2123
75.2103
75.2083
75.2063
75.2044
75.2024
75.2004
75.1984
75.1965
75.1945
75.1926
75.1906
75.1887
75.1867
75.1848
75.1828
75.1809
75.179
75.1771
75.1751
75.1732
75.1713
75.1694
75.1675
75.1656
75.1637
75.1618
75.1599
75.158
75.1561
75.1542
75.1523
75.1505
75.1486
75.1467
75.1448
75.143
75.1411
75.1393
75.1374
75.1355
75.1337
75.1318
75.13
75.1281
75.1263
75.1245
75.1226
75.1208
75.119
75.1171
75.1153
75.1135
75.1117
75.1099
75.1081
75.1062
75.1044
75.1026
75.1008
75.099
75.0972
75.0954
75.0936
75.0918
75.09
75.0883
75.0865
75.0847
75.0829
75.0811
75.0793
75.0776
75.0758
75.074
75.0723
75.0705
75.0687
75.067
75.0652
75.0634
75.0617
75.0599
75.0582
75.0564
75.0547
75.0529
75.0512
75.0494
75.0477
75.046
75.0442
75.0425
75.0408
75.039
75.0373
75.0356
75.0338
75.0321
75.0304
75.0287
75.0269
75.0252
75.0235
75.0218
75.0201
75.0184
75.0166
75.0149
75.0132
75.0115
75.0098
75.0081
75.0064
75.0047
75.003
75.0013
74.9996
74.9979
74.9962
74.9945
74.9928
74.9911
74.9894
74.9878
74.9861
74.9844
74.9827
74.981
74.9793
74.9777
74.976
74.9743
74.9726
74.9709
74.9693
74.9676
74.9659
74.9643
74.9626
74.9609
74.9592
74.9576
74.9559
74.9543
74.9526
74.9509
74.9493
74.9476
74.9459
74.9443
74.9426
74.941
74.9393
74.9377
74.936
74.9344
74.9327
74.9311
74.9294
74.9278
74.9261
74.9245
74.9228
74.9212
74.9195
74.9179
74.9162
74.9146
74.913
74.9113
74.9097
74.908
74.9064
74.9048
74.9031
74.9015
74.8999
74.8982
74.8966
74.895
74.8933
74.8917
74.8901
74.8884
74.8868
74.8852
74.8836
74.8819
74.8803
74.8787
74.8771
74.8754
74.8738
74.8722
74.8706
74.8689
74.8673
74.8657
74.8641
74.8625
74.8608
74.8592
74.8576
74.856
74.8544
74.8528
74.8512
74.8495
74.8479
74.8463
74.8447
74.8431
74.8415
74.8399
74.8383
74.8367
74.835
74.8334
74.8318
74.8302
74.8286
74.827
74.8254
74.8238
74.8222
74.8206
74.819
74.8174
74.8158
74.8142
74.8126
74.811
74.8094
74.8078
74.8062
74.8046
74.803
74.8014
74.7998
74.7982
74.7966
74.795
74.7934
74.7918
74.7902
74.7886
74.787
74.7854
74.7838
74.7822
74.7806
74.779
74.7775
74.7759
74.7743
74.7727
74.7711
74.7695
74.7679
74.7663
74.7647
74.7631
74.7615
74.76
74.7584
74.7568
74.7552
74.7536
74.752
74.7504
74.7489
74.7473
74.7457
74.7441
74.7425
74.7409
74.7393
74.7378
74.7362
74.7346
74.733
74.7314
74.7298
74.7283
74.7267
74.7251
74.7235
74.7219
74.7204
74.7188
74.7172
74.7156
74.714
74.7125
74.7109
74.7093
74.7077
74.7061
74.7046
74.703
74.7014
74.6998
74.6983
74.6967
74.6951
74.6935
74.6919
74.6904
74.6888
74.6872
74.6856
74.6841
74.6825
74.6809
74.6793
74.6778
74.6762
74.6746
74.673
74.6715
74.6699
74.6683
74.6668
74.6652
74.6636
74.662
74.6605
74.6589
74.6573
74.6558
74.6542
74.6526
74.651
74.6495
74.6479
74.6463
74.6448
74.6432
74.6416
74.6401
74.6385
74.6369
74.6353
74.6338
74.6322
74.6306
74.6291
74.6275
74.6259
74.6244
74.6228
74.6212
74.6197
74.6181
74.6165
74.615
74.6134
74.6118
74.6103
74.6087
74.6071
74.6056
74.604
74.6024
74.6009
74.5993
74.5977
74.5962
74.5946
74.593
74.5915
74.5899
74.5884
74.5868
74.5852
74.5837
74.5821
74.5805
74.579
74.5774
74.5758
74.5743
74.5727
74.5712
74.5696
74.568
74.5665
74.5649
74.5633
74.5618
74.5602
74.5587
74.5571
74.5555
74.554
74.5524
74.5508
74.5493
74.5477
74.5462
74.5446
74.543
74.5415
74.5399
74.5384
74.5368
74.5352
74.5337
74.5321
74.5306
74.529
74.5274
74.5259
74.5243
74.5228
74.5212
74.5196
74.5181
74.5165
74.515
74.5134
74.5118
74.5103
74.5087
74.5072
74.5056
74.5041
74.5025
74.5009
74.4994
74.4978
74.4963
74.4947
74.4931
74.4916
74.49
74.4885
74.4869
74.4854
74.4838
74.4822
74.4807
74.4791
74.4776
74.476
74.4745
74.4729
74.4713
74.4698
74.4682
74.4667
74.4651
74.4636
74.462
74.4605
74.4589
74.4573
74.4558
74.4542
74.4527
74.4511
74.4496
74.448
74.4465
74.4449
74.4433
74.4418
74.4402
74.4387
74.4371
74.4356
74.434
74.4325
74.4309
74.4293
74.4278
74.4262
74.4247
74.4231
74.4216
74.42
74.4185
74.4169
74.4154
74.4138
74.4123
74.4107
74.4091
74.4076
74.406
74.4045
74.4029
74.4014
74.3998
74.3983
74.3967
74.3952
74.3936
74.3921
74.3905
74.389
74.3874
74.3858
74.3843
74.3827
74.3812
74.3796
74.3781
74.3765
74.375
74.3734
74.3719
74.3703
74.3688
74.3672
74.3657
74.3641
74.3626
74.361
74.3595
74.3579
74.3564
74.3548
74.3533
74.3517
74.3501
74.3486
74.347
74.3455
74.3439
74.3424
74.3408
74.3393
74.3377
74.3362
74.3346
74.3331
74.3315
74.33
74.3284
74.3269
74.3253
74.3238
74.3222
74.3207
74.3191
74.3176
74.316
74.3145
74.3129
74.3114
74.3098
74.3083
74.3067
74.3052
74.3036
74.3021
74.3005
74.299
74.2974
74.2959
74.2943
74.2928
74.2912
74.2897
74.2881
74.2866
74.285
74.2835
74.2819
74.2804
74.2788
74.2773
74.2757
74.2742
74.2726
74.2711
74.2695
74.268
74.2664
74.2649
74.2633
74.2618
74.2602
74.2587
74.2572
74.2556
74.2541
74.2525
74.251
74.2494
74.2479
74.2463
74.2448
74.2432
74.2417
74.2401
74.2386
74.237
74.2355
74.2339
74.2324
74.2308
74.2293
74.2277
74.2262
74.2246
74.2231
74.2215
74.22
74.2185
74.2169
74.2154
74.2138
74.2123
74.2107
74.2092
74.2076
74.2061
74.2045
74.203
74.2014
74.1999
74.1983
74.1968
74.1952
74.1937
74.1922
74.1906
74.1891
74.1875
74.1875
77.6235
77.6235
76.0655
75.8097
75.7442
75.7159
75.699
75.687
75.6775
75.6695
75.6624
75.656
75.65
75.6444
75.6391
75.6339
75.629
75.6241
75.6194
75.6147
75.6102
75.6057
75.6013
75.597
75.5927
75.5885
75.5843
75.5802
75.5761
75.5721
75.5682
75.5642
75.5604
75.5565
75.5527
75.549
75.5453
75.5416
75.538
75.5344
75.5308
75.5273
75.5238
75.5203
75.5169
75.5135
75.5101
75.5068
75.5035
75.5002
75.4969
75.4937
75.4905
75.4873
75.4842
75.4811
75.478
75.4749
75.4718
75.4688
75.4658
75.4628
75.4598
75.4569
75.4539
75.451
75.4481
75.4453
75.4424
75.4396
75.4367
75.4339
75.4311
75.4284
75.4256
75.4229
75.4201
75.4174
75.4147
75.412
75.4094
75.4067
75.4041
75.4014
75.3988
75.3962
75.3936
75.391
75.3885
75.3859
75.3834
75.3809
75.3783
75.3758
75.3733
75.3708
75.3684
75.3659
75.3634
75.361
75.3586
75.3561
75.3537
75.3513
75.3489
75.3465
75.3441
75.3418
75.3394
75.3371
75.3347
75.3324
75.3301
75.3277
75.3254
75.3231
75.3208
75.3185
75.3163
75.314
75.3117
75.3095
75.3072
75.305
75.3027
75.3005
75.2983
75.2961
75.2939
75.2917
75.2895
75.2873
75.2851
75.2829
75.2808
75.2786
75.2765
75.2743
75.2722
75.27
75.2679
75.2658
75.2636
75.2615
75.2594
75.2573
75.2552
75.2531
75.251
75.249
75.2469
75.2448
75.2427
75.2407
75.2386
75.2366
75.2345
75.2325
75.2304
75.2284
75.2264
75.2244
75.2223
75.2203
75.2183
75.2163
75.2143
75.2123
75.2103
75.2083
75.2063
75.2044
75.2024
75.2004
75.1984
75.1965
75.1945
75.1926
75.1906
75.1887
75.1867
75.1848
75.1829
75.1809
75.179
75.1771
75.1751
75.1732
75.1713
75.1694
75.1675
75.1656
75.1637
75.1618
75.1599
75.158
75.1561
75.1542
75.1523
75.1505
75.1486
75.1467
75.1448
75.143
75.1411
75.1393
75.1374
75.1355
75.1337
75.1318
75.13
75.1282
75.1263
75.1245
75.1226
75.1208
75.119
75.1172
75.1153
75.1135
75.1117
75.1099
75.1081
75.1062
75.1044
75.1026
75.1008
75.099
75.0972
75.0954
75.0936
75.0918
75.09
75.0883
75.0865
75.0847
75.0829
75.0811
75.0794
75.0776
75.0758
75.074
75.0723
75.0705
75.0687
75.067
75.0652
75.0635
75.0617
75.0599
75.0582
75.0564
75.0547
75.0529
75.0512
75.0494
75.0477
75.046
75.0442
75.0425
75.0408
75.039
75.0373
75.0356
75.0338
75.0321
75.0304
75.0287
75.0269
75.0252
75.0235
75.0218
75.0201
75.0184
75.0166
75.0149
75.0132
75.0115
75.0098
75.0081
75.0064
75.0047
75.003
75.0013
74.9996
74.9979
74.9962
74.9945
74.9928
74.9911
74.9895
74.9878
74.9861
74.9844
74.9827
74.981
74.9793
74.9777
74.976
74.9743
74.9726
74.971
74.9693
74.9676
74.9659
74.9643
74.9626
74.9609
74.9593
74.9576
74.9559
74.9543
74.9526
74.9509
74.9493
74.9476
74.9459
74.9443
74.9426
74.941
74.9393
74.9377
74.936
74.9344
74.9327
74.9311
74.9294
74.9278
74.9261
74.9245
74.9228
74.9212
74.9195
74.9179
74.9162
74.9146
74.913
74.9113
74.9097
74.908
74.9064
74.9048
74.9031
74.9015
74.8999
74.8982
74.8966
74.895
74.8933
74.8917
74.8901
74.8884
74.8868
74.8852
74.8836
74.8819
74.8803
74.8787
74.8771
74.8754
74.8738
74.8722
74.8706
74.8689
74.8673
74.8657
74.8641
74.8625
74.8609
74.8592
74.8576
74.856
74.8544
74.8528
74.8512
74.8495
74.8479
74.8463
74.8447
74.8431
74.8415
74.8399
74.8383
74.8367
74.835
74.8334
74.8318
74.8302
74.8286
74.827
74.8254
74.8238
74.8222
74.8206
74.819
74.8174
74.8158
74.8142
74.8126
74.811
74.8094
74.8078
74.8062
74.8046
74.803
74.8014
74.7998
74.7982
74.7966
74.795
74.7934
74.7918
74.7902
74.7886
74.787
74.7854
74.7838
74.7822
74.7806
74.779
74.7775
74.7759
74.7743
74.7727
74.7711
74.7695
74.7679
74.7663
74.7647
74.7631
74.7616
74.76
74.7584
74.7568
74.7552
74.7536
74.752
74.7504
74.7489
74.7473
74.7457
74.7441
74.7425
74.7409
74.7393
74.7378
74.7362
74.7346
74.733
74.7314
74.7298
74.7283
74.7267
74.7251
74.7235
74.7219
74.7204
74.7188
74.7172
74.7156
74.714
74.7125
74.7109
74.7093
74.7077
74.7061
74.7046
74.703
74.7014
74.6998
74.6983
74.6967
74.6951
74.6935
74.692
74.6904
74.6888
74.6872
74.6856
74.6841
74.6825
74.6809
74.6793
74.6778
74.6762
74.6746
74.6731
74.6715
74.6699
74.6683
74.6668
74.6652
74.6636
74.662
74.6605
74.6589
74.6573
74.6558
74.6542
74.6526
74.651
74.6495
74.6479
74.6463
74.6448
74.6432
74.6416
74.6401
74.6385
74.6369
74.6353
74.6338
74.6322
74.6306
74.6291
74.6275
74.6259
74.6244
74.6228
74.6212
74.6197
74.6181
74.6165
74.615
74.6134
74.6118
74.6103
74.6087
74.6071
74.6056
74.604
74.6024
74.6009
74.5993
74.5977
74.5962
74.5946
74.593
74.5915
74.5899
74.5884
74.5868
74.5852
74.5837
74.5821
74.5805
74.579
74.5774
74.5758
74.5743
74.5727
74.5712
74.5696
74.568
74.5665
74.5649
74.5633
74.5618
74.5602
74.5587
74.5571
74.5555
74.554
74.5524
74.5508
74.5493
74.5477
74.5462
74.5446
74.543
74.5415
74.5399
74.5384
74.5368
74.5352
74.5337
74.5321
74.5306
74.529
74.5274
74.5259
74.5243
74.5228
74.5212
74.5196
74.5181
74.5165
74.515
74.5134
74.5118
74.5103
74.5087
74.5072
74.5056
74.5041
74.5025
74.5009
74.4994
74.4978
74.4963
74.4947
74.4931
74.4916
74.49
74.4885
74.4869
74.4854
74.4838
74.4822
74.4807
74.4791
74.4776
74.476
74.4745
74.4729
74.4713
74.4698
74.4682
74.4667
74.4651
74.4636
74.462
74.4605
74.4589
74.4573
74.4558
74.4542
74.4527
74.4511
74.4496
74.448
74.4465
74.4449
74.4433
74.4418
74.4402
74.4387
74.4371
74.4356
74.434
74.4325
74.4309
74.4294
74.4278
74.4262
74.4247
74.4231
74.4216
74.42
74.4185
74.4169
74.4154
74.4138
74.4123
74.4107
74.4091
74.4076
74.406
74.4045
74.4029
74.4014
74.3998
74.3983
74.3967
74.3952
74.3936
74.3921
74.3905
74.389
74.3874
74.3859
74.3843
74.3827
74.3812
74.3796
74.3781
74.3765
74.375
74.3734
74.3719
74.3703
74.3688
74.3672
74.3657
74.3641
74.3626
74.361
74.3595
74.3579
74.3564
74.3548
74.3533
74.3517
74.3502
74.3486
74.347
74.3455
74.3439
74.3424
74.3408
74.3393
74.3377
74.3362
74.3346
74.3331
74.3315
74.33
74.3284
74.3269
74.3253
74.3238
74.3222
74.3207
74.3191
74.3176
74.316
74.3145
74.3129
74.3114
74.3098
74.3083
74.3067
74.3052
74.3036
74.3021
74.3005
74.299
74.2974
74.2959
74.2943
74.2928
74.2912
74.2897
74.2881
74.2866
74.285
74.2835
74.2819
74.2804
74.2788
74.2773
74.2757
74.2742
74.2726
74.2711
74.2695
74.268
74.2664
74.2649
74.2633
74.2618
74.2603
74.2587
74.2572
74.2556
74.2541
74.2525
74.251
74.2494
74.2479
74.2463
74.2448
74.2432
74.2417
74.2401
74.2386
74.237
74.2355
74.2339
74.2324
74.2308
74.2293
74.2277
74.2262
74.2246
74.2231
74.2215
74.22
74.2185
74.2169
74.2154
74.2138
74.2123
74.2107
74.2092
74.2076
74.2061
74.2045
74.203
74.2014
74.1999
74.1983
74.1968
74.1952
74.1937
74.1922
74.1906
74.1891
74.1875
74.1875
76.934
76.934
76.0496
75.8164
75.7478
75.7179
75.7003
75.6879
75.6782
75.67
75.6628
75.6563
75.6503
75.6447
75.6393
75.6341
75.6291
75.6243
75.6195
75.6149
75.6103
75.6058
75.6014
75.5971
75.5928
75.5885
75.5844
75.5803
75.5762
75.5722
75.5682
75.5643
75.5604
75.5566
75.5528
75.549
75.5453
75.5416
75.538
75.5344
75.5308
75.5273
75.5238
75.5203
75.5169
75.5135
75.5101
75.5068
75.5035
75.5002
75.497
75.4937
75.4905
75.4874
75.4842
75.4811
75.478
75.4749
75.4718
75.4688
75.4658
75.4628
75.4598
75.4569
75.4539
75.451
75.4481
75.4453
75.4424
75.4396
75.4367
75.4339
75.4311
75.4284
75.4256
75.4229
75.4201
75.4174
75.4147
75.412
75.4094
75.4067
75.4041
75.4014
75.3988
75.3962
75.3936
75.3911
75.3885
75.3859
75.3834
75.3809
75.3783
75.3758
75.3733
75.3708
75.3684
75.3659
75.3634
75.361
75.3586
75.3561
75.3537
75.3513
75.3489
75.3465
75.3442
75.3418
75.3394
75.3371
75.3347
75.3324
75.3301
75.3277
75.3254
75.3231
75.3208
75.3185
75.3163
75.314
75.3117
75.3095
75.3072
75.305
75.3028
75.3005
75.2983
75.2961
75.2939