# vtk DataFile Version 2.0
FlowField
ASCII
DATASET STRUCTURED_GRID
DIMENSIONS 800 1 200
POINTS 160000 float
0 0 0
0.04 0 0
0.08 0 0
0.12 0 0
0.16 0 0
0.2 0 0
0.24 0 0
0.28 0 0
0.32 0 0
0.36 0 0
0.4 0 0
0.44 0 0
0.48 0 0
0.52 0 0
0.56 0 0
0.6 0 0
0.64 0 0
0.68 0 0
0.72 0 0
0.76 0 0
0.8 0 0
0.84 0 0
0.88 0 0
0.92 0 0
0.96 0 0
1 0 0
1.04 0 0
1.08 0 0
1.12 0 0
1.16 0 0
1.2 0 0
1.24 0 0
1.28 0 0
1.32 0 0
1.36 0 0
1.4 0 0
1.44 0 0
1.48 0 0
1.52 0 0
1.56 0 0
1.6 0 0
1.64 0 0
1.68 0 0
1.72 0 0
1.76 0 0
1.8 0 0
1.84 0 0
1.88 0 0
1.92 0 0
1.96 0 0
2 0 0
2.04 0 0
2.08 0 0
2.12 0 0
2.16 0 0
2.2 0 0
2.24 0 0
2.28 0 0
2.32 0 0
2.36 0 0
2.4 0 0
2.44 0 0
2.48 0 0
2.52 0 0
2.56 0 0
2.6 0 0
2.64 0 0
2.68 0 0
2.72 0 0
2.76 0 0
2.8 0 0
2.84 0 0
2.88 0 0
2.92 0 0
2.96 0 0
3 0 0
3.04 0 0
3.08 0 0
3.12 0 0
3.16 0 0
3.2 0 0
3.24 0 0
3.28 0 0
3.32 0 0
3.36 0 0
3.4 0 0
3.44 0 0
3.48 0 0
3.52 0 0
3.56 0 0
3.6 0 0
3.64 0 0
3.68 0 0
3.72 0 0
3.76 0 0
3.8 0 0
3.84 0 0
3.88 0 0
3.92 0 0
3.96 0 0
4 0 0
4.04 0 0
4.08 0 0
4.12 0 0
4.16 0 0
4.2 0 0
4.24 0 0
4.28 0 0
4.32 0 0
4.36 0 0
4.4 0 0
4.44 0 0
4.48 0 0
4.52 0 0
4.56 0 0
4.6 0 0
4.64 0 0
4.68 0 0
4.72 0 0
4.76 0 0
4.8 0 0
4.84 0 0
4.88 0 0
4.92 0 0
4.96 0 0
5 0 0
5.04 0 0
5.08 0 0
5.12 0 0
5.16 0 0
5.2 0 0
5.24 0 0
5.28 0 0
5.32 0 0
5.36 0 0
5.4 0 0
5.44 0 0
5.48 0 0
5.52 0 0
5.56 0 0
5.6 0 0
5.64 0 0
5.68 0 0
5.72 0 0
5.76 0 0
5.8 0 0
5.84 0 0
5.88 0 0
5.92 0 0
5.96 0 0
6 0 0
6.04 0 0
6.08 0 0
6.12 0 0
6.16 0 0
6.2 0 0
6.24 0 0
6.28 0 0
6.32 0 0
6.36 0 0
6.4 0 0
6.44 0 0
6.48 0 0
6.52 0 0
6.56 0 0
6.6 0 0
6.64 0 0
6.68 0 0
6.72 0 0
6.76 0 0
6.8 0 0
6.84 0 0
6.88 0 0
6.92 0 0
6.96 0 0
7 0 0
7.04 0 0
7.08 0 0
7.12 0 0
7.16 0 0
7.2 0 0
7.24 0 0
7.28 0 0
7.32 0 0
7.36 0 0
7.4 0 0
7.44 0 0
7.48 0 0
7.52 0 0
7.56 0 0
7.6 0 0
7.64 0 0
7.68 0 0
7.72 0 0
7.76 0 0
7.8 0 0
7.84 0 0
7.88 0 0
7.92 0 0
7.96 0 0
8 0 0
8.04 0 0
8.08 0 0
8.12 0 0
8.16 0 0
8.2 0 0
8.24 0 0
8.28 0 0
8.32 0 0
8.36 0 0
8.4 0 0
8.44 0 0
8.48 0 0
8.52 0 0
8.56 0 0
8.6 0 0
8.64 0 0
8.68 0 0
8.72 0 0
8.76 0 0
8.8 0 0
8.84 0 0
8.88 0 0
8.92 0 0
8.96 0 0
9 0 0
9.04 0 0
9.08 0 0
9.12 0 0
9.16 0 0
9.2 0 0
9.24 0 0
9.28 0 0
9.32 0 0
9.36 0 0
9.4 0 0
9.44 0 0
9.48 0 0
9.52 0 0
9.56 0 0
9.6 0 0
9.64 0 0
9.68 0 0
9.72 0 0
9.76 0 0
9.8 0 0
9.84 0 0
9.88 0 0
9.92 0 0
9.96 0 0
10 0 0
10.04 0 0
10.08 0 0
10.12 0 0
10.16 0 0
10.2 0 0
10.24 0 0
10.28 0 0
10.32 0 0
10.36 0 0
10.4 0 0
10.44 0 0
10.48 0 0
10.52 0 0
10.56 0 0
10.6 0 0
10.64 0 0
10.68 0 0
10.72 0 0
10.76 0 0
10.8 0 0
10.84 0 0
10.88 0 0
10.92 0 0
10.96 0 0
11 0 0
11.04 0 0
11.08 0 0
11.12 0 0
11.16 0 0
11.2 0 0
11.24 0 0
11.28 0 0
11.32 0 0
11.36 0 0
11.4 0 0
11.44 0 0
11.48 0 0
11.52 0 0
11.56 0 0
11.6 0 0
11.64 0 0
11.68 0 0
11.72 0 0
11.76 0 0
11.8 0 0
11.84 0 0
11.88 0 0
11.92 0 0
11.96 0 0
12 0 0
12.04 0 0
12.08 0 0
12.12 0 0
12.16 0 0
12.2 0 0
12.24 0 0
12.28 0 0
12.32 0 0
12.36 0 0
12.4 0 0
12.44 0 0
12.48 0 0
12.52 0 0
12.56 0 0
12.6 0 0
12.64 0 0
12.68 0 0
12.72 0 0
12.76 0 0
12.8 0 0
12.84 0 0
12.88 0 0
12.92 0 0
12.96 0 0
13 0 0
13.04 0 0
13.08 0 0
13.12 0 0
13.16 0 0
13.2 0 0
13.24 0 0
13.28 0 0
13.32 0 0
13.36 0 0
13.4 0 0
13.44 0 0
13.48 0 0
13.52 0 0
13.56 0 0
13.6 0 0
13.64 0 0
13.68 0 0
13.72 0 0
13.76 0 0
13.8 0 0
13.84 0 0
13.88 0 0
13.92 0 0
13.96 0 0
14 0 0
14.04 0 0
14.08 0 0
14.12 0 0
14.16 0 0
14.2 0 0
14.24 0 0
14.28 0 0
14.32 0 0
14.36 0 0
14.4 0 0
14.44 0 0
14.48 0 0
14.52 0 0
14.56 0 0
14.6 0 0
14.64 0 0
14.68 0 0
14.72 0 0
14.76 0 0
14.8 0 0
14.84 0 0
14.88 0 0
14.92 0 0
14.96 0 0
15 0 0
15.04 0 0
15.08 0 0
15.12 0 0
15.16 0 0
15.2 0 0
15.24 0 0
15.28 0 0
15.32 0 0
15.36 0 0
15.4 0 0
15.44 0 0
15.48 0 0
15.52 0 0
15.56 0 0
15.6 0 0
15.64 0 0
15.68 0 0
15.72 0 0
15.76 0 0
15.8 0 0
15.84 0 0
15.88 0 0
15.92 0 0
15.96 0 0
16 0 0
16.04 0 0
16.08 0 0
16.12 0 0
16.16 0 0
16.2 0 0
16.24 0 0
16.28 0 0
16.32 0 0
16.36 0 0
16.4 0 0
16.44 0 0
16.48 0 0
16.52 0 0
16.56 0 0
16.6 0 0
16.64 0 0
16.68 0 0
16.72 0 0
16.76 0 0
16.8 0 0
16.84 0 0
16.88 0 0
16.92 0 0
16.96 0 0
17 0 0
17.04 0 0
17.08 0 0
17.12 0 0
17.16 0 0
17.2 0 0
17.24 0 0
17.28 0 0
17.32 0 0
17.36 0 0
17.4 0 0
17.44 0 0
17.48 0 0
17.52 0 0
17.56 0 0
17.6 0 0
17.64 0 0
17.68 0 0
17.72 0 0
17.76 0 0
17.8 0 0
17.84 0 0
17.88 0 0
17.92 0 0
17.96 0 0
18 0 0
18.04 0 0
18.08 0 0
18.12 0 0
18.16 0 0
18.2 0 0
18.24 0 0
18.28 0 0
18.32 0 0
18.36 0 0
18.4 0 0
18.44 0 0
18.48 0 0
18.52 0 0
18.56 0 0
18.6 0 0
18.64 0 0
18.68 0 0
18.72 0 0
18.76 0 0
18.8 0 0
18.84 0 0
18.88 0 0
18.92 0 0
18.96 0 0
19 0 0
19.04 0 0
19.08 0 0
19.12 0 0
19.16 0 0
19.2 0 0
19.24 0 0
19.28 0 0
19.32 0 0
19.36 0 0
19.4 0 0
19.44 0 0
19.48 0 0
19.52 0 0
19.56 0 0
19.6 0 0
19.64 0 0
19.68 0 0
19.72 0 0
19.76 0 0
19.8 0 0
19.84 0 0
19.88 0 0
19.92 0 0
19.96 0 0
20 0 0
20.04 0 0
20.08 0 0
20.12 0 0
20.16 0 0
20.2 0 0
20.24 0 0
20.28 0 0
20.32 0 0
20.36 0 0
20.4 0 0
20.44 0 0
20.48 0 0
20.52 0 0
20.56 0 0
20.6 0 0
20.64 0 0
20.68 0 0
20.72 0 0
20.76 0 0
20.8 0 0
20.84 0 0
20.88 0 0
20.92 0 0
20.96 0 0
21 0 0
21.04 0 0
21.08 0 0
21.12 0 0
21.16 0 0
21.2 0 0
21.24 0 0
21.28 0 0
21.32 0 0
21.36 0 0
21.4 0 0
21.44 0 0
21.48 0 0
21.52 0 0
21.56 0 0
21.6 0 0
21.64 0 0
21.68 0 0
21.72 0 0
21.76 0 0
21.8 0 0
21.84 0 0
21.88 0 0
21.92 0 0
21.96 0 0
22 0 0
22.04 0 0
22.08 0 0
22.12 0 0
22.16 0 0
22.2 0 0
22.24 0 0
22.28 0 0
22.32 0 0
22.36 0 0
22.4 0 0
22.44 0 0
22.48 0 0
22.52 0 0
22.56 0 0
22.6 0 0
22.64 0 0
22.68 0 0
22.72 0 0
22.76 0 0
22.8 0 0
22.84 0 0
22.88 0 0
22.92 0 0
22.96 0 0
23 0 0
23.04 0 0
23.08 0 0
23.12 0 0
23.16 0 0
23.2 0 0
23.24 0 0
23.28 0 0
23.32 0 0
23.36 0 0
23.4 0 0
23.44 0 0
23.48 0 0
23.52 0 0
23.56 0 0
23.6 0 0
23.64 0 0
23.68 0 0
23.72 0 0
23.76 0 0
23.8 0 0
23.84 0 0
23.88 0 0
23.92 0 0
23.96 0 0
24 0 0
24.04 0 0
24.08 0 0
24.12 0 0
24.16 0 0
24.2 0 0
24.24 0 0
24.28 0 0
24.32 0 0
24.36 0 0
24.4 0 0
24.44 0 0
24.48 0 0
24.52 0 0
24.56 0 0
24.6 0 0
24.64 0 0
24.68 0 0
24.72 0 0
24.76 0 0
24.8 0 0
24.84 0 0
24.88 0 0
24.92 0 0
24.96 0 0
25 0 0
25.04 0 0
25.08 0 0
25.12 0 0
25.16 0 0
25.2 0 0
25.24 0 0
25.28 0 0
25.32 0 0
25.36 0 0
25.4 0 0
25.44 0 0
25.48 0 0
25.52 0 0
25.56 0 0
25.6 0 0
25.64 0 0
25.68 0 0
25.72 0 0
25.76 0 0
25.8 0 0
25.84 0 0
25.88 0 0
25.92 0 0
25.96 0 0
26 0 0
26.04 0 0
26.08 0 0
26.12 0 0
26.16 0 0
26.2 0 0
26.24 0 0
26.28 0 0
26.32 0 0
26.36 0 0
26.4 0 0
26.44 0 0
26.48 0 0
26.52 0 0
26.56 0 0
26.6 0 0
26.64 0 0
26.68 0 0
26.72 0 0
26.76 0 0
26.8 0 0
26.84 0 0
26.88 0 0
26.92 0 0
26.96 0 0
27 0 0
27.04 0 0
27.08 0 0
27.12 0 0
27.16 0 0
27.2 0 0
27.24 0 0
27.28 0 0
27.32 0 0
27.36 0 0
27.4 0 0
27.44 0 0
27.48 0 0
27.52 0 0
27.56 0 0
27.6 0 0
27.64 0 0
27.68 0 0
27.72 0 0
27.76 0 0
27.8 0 0
27.84 0 0
27.88 0 0
27.92 0 0
27.96 0 0
28 0 0
28.04 0 0
28.08 0 0
28.12 0 0
28.16 0 0
28.2 0 0
28.24 0 0
28.28 0 0
28.32 0 0
28.36 0 0
28.4 0 0
28.44 0 0
28.48 0 0
28.52 0 0
28.56 0 0
28.6 0 0
28.64 0 0
28.68 0 0
28.72 0 0
28.76 0 0
28.8 0 0
28.84 0 0
28.88 0 0
28.92 0 0
28.96 0 0
29 0 0
29.04 0 0
29.08 0 0
29.12 0 0
29.16 0 0
29.2 0 0
29.24 0 0
29.28 0 0
29.32 0 0
29.36 0 0
29.4 0 0
29.44 0 0
29.48 0 0
29.52 0 0
29.56 0 0
29.6 0 0
29.64 0 0
29.68 0 0
29.72 0 0
29.76 0 0
29.8 0 0
29.84 0 0
29.88 0 0
29.92 0 0
29.96 0 0
30 0 0
30.04 0 0
30.08 0 0
30.12 0 0
30.16 0 0
30.2 0 0
30.24 0 0
30.28 0 0
30.32 0 0
30.36 0 0
30.4 0 0
30.44 0 0
30.48 0 0
30.52 0 0
30.56 0 0
30.6 0 0
30.64 0 0
30.68 0 0
30.72 0 0
30.76 0 0
30.8 0 0
30.84 0 0
30.88 0 0
30.92 0 0
30.96 0 0
31 0 0
31.04 0 0
31.08 0 0
31.12 0 0
31.16 0 0
31.2 0 0
31.24 0 0
31.28 0 0
31.32 0 0
31.36 0 0
31.4 0 0
31.44 0 0
31.48 0 0
31.52 0 0
31.56 0 0
31.6 0 0
31.64 0 0
31.68 0 0
31.72 0 0
31.76 0 0
31.8 0 0
31.84 0 0
31.88 0 0
31.92 0 0
31.96 0 0
0 0.005 0
0.04 0.005 0
0.08 0.005 0
0.12 0.005 0
0.16 0.005 0
0.2 0.005 0
0.24 0.005 0
0.28 0.005 0
0.32 0.005 0
0.36 0.005 0
0.4 0.005 0
0.44 0.005 0
0.48 0.005 0
0.52 0.005 0
0.56 0.005 0
0.6 0.005 0
0.64 0.005 0
0.68 0.005 0
0.72 0.005 0
0.76 0.005 0
0.8 0.005 0
0.84 0.005 0
0.88 0.005 0
0.92 0.005 0
0.96 0.005 0
1 0.005 0
1.04 0.005 0
1.08 0.005 0
1.12 0.005 0
1.16 0.005 0
1.2 0.005 0
1.24 0.005 0
1.28 0.005 0
1.32 0.005 0
1.36 0.005 0
1.4 0.005 0
1.44 0.005 0
1.48 0.005 0
1.52 0.005 0
1.56 0.005 0
1.6 0.005 0
1.64 0.005 0
1.68 0.005 0
1.72 0.005 0
1.76 0.005 0
1.8 0.005 0
1.84 0.005 0
1.88 0.005 0
1.92 0.005 0
1.96 0.005 0
2 0.005 0
2.04 0.005 0
2.08 0.005 0
2.12 0.005 0
2.16 0.005 0
2.2 0.005 0
2.24 0.005 0
2.28 0.005 0
2.32 0.005 0
2.36 0.005 0
2.4 0.005 0
2.44 0.005 0
2.48 0.005 0
2.52 0.005 0
2.56 0.005 0
2.6 0.005 0
2.64 0.005 0
2.68 0.005 0
2.72 0.005 0
2.76 0.005 0
2.8 0.005 0
2.84 0.005 0
2.88 0.005 0
2.92 0.005 0
2.96 0.005 0
3 0.005 0
3.04 0.005 0
3.08 0.005 0
3.12 0.005 0
3.16 0.005 0
3.2 0.005 0
3.24 0.005 0
3.28 0.005 0
3.32 0.005 0
3.36 0.005 0
3.4 0.005 0
3.44 0.005 0
3.48 0.005 0
3.52 0.005 0
3.56 0.005 0
3.6 0.005 0
3.64 0.005 0
3.68 0.005 0
3.72 0.005 0
3.76 0.005 0
3.8 0.005 0
3.84 0.005 0
3.88 0.005 0
3.92 0.005 0
3.96 0.005 0
4 0.005 0
4.04 0.005 0
4.08 0.005 0
4.12 0.005 0
4.16 0.005 0
4.2 0.005 0
4.24 0.005 0
4.28 0.005 0
4.32 0.005 0
4.36 0.005 0
4.4 0.005 0
4.44 0.005 0
4.48 0.005 0
4.52 0.005 0
4.56 0.005 0
4.6 0.005 0
4.64 0.005 0
4.68 0.005 0
4.72 0.005 0
4.76 0.005 0
4.8 0.005 0
4.84 0.005 0
4.88 0.005 0
4.92 0.005 0
4.96 0.005 0
5 0.005 0
5.04 0.005 0
5.08 0.005 0
5.12 0.005 0
5.16 0.005 0
5.2 0.005 0
5.24 0.005 0
5.28 0.005 0
5.32 0.005 0
5.36 0.005 0
5.4 0.005 0
5.44 0.005 0
5.48 0.005 0
5.52 0.005 0
5.56 0.005 0
5.6 0.005 0
5.64 0.005 0
5.68 0.005 0
5.72 0.005 0
5.76 0.005 0
5.8 0.005 0
5.84 0.005 0
5.88 0.005 0
5.92 0.005 0
5.96 0.005 0
6 0.005 0
6.04 0.005 0
6.08 0.005 0
6.12 0.005 0
6.16 0.005 0
6.2 0.005 0
6.24 0.005 0
6.28 0.005 0
6.32 0.005 0
6.36 0.005 0
6.4 0.005 0
6.44 0.005 0
6.48 0.005 0
6.52 0.005 0
6.56 0.005 0
6.6 0.005 0
6.64 0.005 0
6.68 0.005 0
6.72 0.005 0
6.76 0.005 0
6.8 0.005 0
6.84 0.005 0
6.88 0.005 0
6.92 0.005 0
6.96 0.005 0
7 0.005 0
7.04 0.005 0
7.08 0.005 0
7.12 0.005 0
7.16 0.005 0
7.2 0.005 0
7.24 0.005 0
7.28 0.005 0
7.32 0.005 0
7.36 0.005 0
7.4 0.005 0
[...]
POINT_DATA 160000

SCALARS v float 1
LOOKUP_TABLE default
0
0
0
0
0
0
0
0
0
0
0
0
0
0
0
0
0
0
0
0
0
0
0
0
0
0
0
0
0
0
0
0
0
0
0
0
0
0
0
0
0
0
0
0
0
0
0
0
0
0
0
0
0
0
0
0
0
0
0
0
0
0
0
0
0
0
0
0
0
0
0
0
0
0
0
0
0
0
0
0
0
0
0
0
0
0
0
0
0
0
0
0
0
0
0
0
0
0
0
0
0
0
0
0
0
0
0
0
0
0
0
0
0
0
0
0
0
0
0
0
0
0
0
0
0
0
0
0
0
0
0
0
0
0
0
0
0
0
0
0
0
0
0
0
0
0
0
0
0
0
0
0
0
0
0
0
0
0
0
0
0
0
0
0
0
0
0
0
0
0
0
0
0
0
0
0
0
0
0
0
0
0
0
0
0
0
0
0
0
0
0
0
0
0
0
0
0
0
0
0
0
0
0
0
0
0
0
0
0
0
0
0
0
0
0
0
0
0
0
0
0
0
0
0
0
0
0
0
0
0
0
0
0
0
0
0
0
0
0
0
0
0
0
0
0
0
0
0
0
0
0
0
0
0
0
0
0
0
0
0
0
0
0
0
0
0
0
0
0
0
0
0
0
0
0
0
0
0
0
0
0
0
0
0
0
0
0
0
0
0
0
0
0
0
0
0
0
0
0
0
0
0
0
0
0
0
0
0
0
0
0
0
0
0
0
0
0
0
0
0
0
0
0
0
0
0
0
0
0
0
0
0
0
0
0
0
0
0
0
0
0
0
0
0
0
0
0
0
0
0
0
0
0
0
0
0
0
0
0
0
0
0
0
0
0
0
0
0
0
0
0
0
0
0
0
0
0
0
0
0
0
0
0
0
0
0
0
0
0
0
0
0
0
0
0
0
0
0
0
0
0
0
0
0
0
0
0
0
0
0
0
0
0
0
0
0
0
0
0
0
0
0
0
0
0
0
0
0
0
0
0
0
0
0
0
0
0
0
0
0
0
0
0
0
0
0
0
0
0
0
0
0
0
0
0
0
0
0
0
0
0
0
0
0
0
0
0
0
0
0
0
0
0
0
0
0
0
0
0
0
0
0
0
0
0
0
0
0
0
0
0
0
0
0
0
0
0
0
0
0
0
0
0
0
0
0
0
0
0
0
0
0
0
0
0
0
0
0
0
0
0
0
0
0
0
0
0
0
0
0
0
0
0
0
0
0
0
0
0
0
0
0
0
0
0
0
0
0
0
0
0
0
0
0
0
0
0
0
0
0
0
0
0
0
0
0
0
0
0
0
0
0
0
0
0
0
0
0
0
0
0
0
0
0
0
0
0
0
0
0
0
0
0
0
0
0
0
0
0
0
0
0
0
0
0
0
0
0
0
0
0
0
0
0
0
0
0
0
0
0
0
0
0
0
0
0
0
0
0
0
0
0
0
0
0
0
0
0
0
0
0
0
0
0
0
0
0
0
0
0
0
0
0
0
0
0
0
0
0
0
0
0
0
0
0
0
0
0
0
0
0
0
0
0
0
0
0
0
0
0
0
0
0
0
0
0
0
0
0
0
0
0
0
0
0
0
0
0
0
0
0
0
0
0
0
0
0
0
0
0
0
0
0
0
0
0
0
0
0
0
0
0
0
0
0
0
0
0
0
0
0
0
0
0
0
0
0
0
0
0
0
0
0
0
0
0
0
0
0
0
0
0
0
0
0
0
0
0
0
0
0
0
0
0
0
0
0
0
0
0
0
0
0
0
0
0
0
0
0
0
0
0
0
0
0
0
0
0
0
0
0
0
0
0
0
0
0
0
0
0
0
0
0.0374124
0.00937809
0.00346497
0.00176336
0.00107787
0.000734108
0.000535325
0.000408775
0.000322571
0.000260877
0.000215051
0.000180015
0.000152608
0.000130766
0.000113088
9.85905e-05
8.65655e-05
7.64905e-05
6.79729e-05
6.07123e-05
5.4476e-05
4.90811e-05
4.43829e-05
4.02651e-05
3.66341e-05
3.34137e-05
3.05417e-05
2.79666e-05
2.5646e-05
2.35443e-05
2.16319e-05
1.9884e-05
1.82793e-05
1.68e-05
1.54307e-05
1.41582e-05
1.29709e-05
1.18588e-05
1.08131e-05
9.82644e-06
8.89204e-06
8.00398e-06
7.15683e-06
6.34565e-06
5.56595e-06
4.81353e-06
4.08413e-06
3.37297e-06
2.67459e-06
1.98292e-06
1.292e-06
5.96854e-07
-1.0563e-07
-8.16256e-07
-1.53355e-06
-2.25412e-06
-2.97299e-06
-3.68365e-06
-4.3779e-06
-5.04571e-06
-5.67577e-06
-6.25675e-06
-6.77929e-06
-7.2381e-06
-7.63337e-06
-7.97082e-06
-8.2602e-06
-8.51264e-06
-8.73766e-06
-8.94092e-06
-9.12332e-06
-9.28182e-06
-9.41162e-06
-9.50886e-06
-9.57309e-06
-9.60863e-06
-9.62456e-06
-9.63343e-06
-9.64902e-06
-9.68389e-06
-9.74733e-06
-9.84404e-06
-9.97373e-06
-1.01316e-05
-1.03097e-05
-1.04981e-05
-1.06868e-05
-1.08664e-05
-1.10299e-05
-1.11722e-05
-1.12909e-05
-1.13856e-05
-1.14577e-05
-1.15097e-05
-1.15449e-05
-1.15668e-05
-1.15787e-05
-1.15835e-05
-1.15837e-05
-1.15812e-05
-1.15776e-05
-1.15736e-05
-1.157e-05
-1.1567e-05
-1.15648e-05
-1.15634e-05
-1.15627e-05
-1.15627e-05
-1.15631e-05
-1.15639e-05
-1.15649e-05
-1.15662e-05
-1.15676e-05
-1.1569e-05
-1.15705e-05
-1.15721e-05
-1.15736e-05
-1.15751e-05
-1.15767e-05
-1.15782e-05
-1.15797e-05
-1.15812e-05
-1.15828e-05
-1.15843e-05
-1.15858e-05
-1.15873e-05
-1.15888e-05
-1.15903e-05
-1.15918e-05
-1.15933e-05
-1.15948e-05
-1.15963e-05
-1.15979e-05
-1.15994e-05
-1.16009e-05
-1.16024e-05
-1.16039e-05
-1.16055e-05
-1.1607e-05
-1.16085e-05
-1.161e-05
-1.16116e-05
-1.16131e-05
-1.16146e-05
-1.16162e-05
-1.16177e-05
-1.16193e-05
-1.16208e-05
-1.16224e-05
-1.16239e-05
-1.16254e-05
-1.1627e-05
-1.16286e-05
-1.16301e-05
-1.16317e-05
-1.16332e-05
-1.16348e-05
-1.16364e-05
-1.16379e-05
-1.16395e-05
-1.16411e-05
-1.16426e-05
-1.16442e-05
-1.16458e-05
-1.16474e-05
-1.1649e-05
-1.16505e-05
-1.16521e-05
-1.16537e-05
-1.16553e-05
-1.16569e-05
-1.16585e-05
-1.16601e-05
-1.16617e-05
-1.16633e-05
-1.16649e-05
-1.16665e-05
-1.16681e-05
-1.16697e-05
-1.16713e-05
-1.16729e-05
-1.16746e-05
-1.16762e-05
-1.16778e-05
-1.16794e-05
-1.16811e-05
-1.16827e-05
-1.16843e-05
-1.16859e-05
-1.16876e-05
-1.16892e-05
-1.16909e-05
-1.16925e-05
-1.16941e-05
-1.16958e-05
-1.16974e-05
-1.16991e-05
-1.17007e-05
-1.17024e-05
-1.1704e-05
-1.17057e-05
-1.17074e-05
-1.1709e-05
-1.17107e-05
-1.17124e-05
-1.1714e-05
-1.17157e-05
-1.17174e-05
-1.17191e-05
-1.17207e-05
-1.17224e-05
-1.17241e-05
-1.17258e-05
-1.17275e-05
-1.17292e-05
-1.17309e-05
-1.17326e-05
-1.17343e-05
-1.1736e-05
-1.17377e-05
-1.17394e-05
-1.17411e-05
-1.17428e-05
-1.17445e-05
-1.17462e-05
-1.1748e-05
-1.17497e-05
-1.17514e-05
-1.17531e-05
-1.17549e-05
-1.17566e-05
-1.17583e-05
-1.17601e-05
-1.17618e-05
-1.17636e-05
-1.17653e-05
-1.1767e-05
-1.17688e-05
-1.17706e-05
-1.17723e-05
-1.17741e-05
-1.17758e-05
-1.17776e-05
-1.17794e-05
-1.17811e-05
-1.17829e-05
-1.17847e-05
-1.17864e-05
-1.17882e-05
-1.179e-05
-1.17918e-05
-1.17936e-05
-1.17954e-05
-1.17972e-05
-1.1799e-05
-1.18008e-05
-1.18026e-05
-1.18044e-05
-1.18062e-05
-1.1808e-05
-1.18098e-05
-1.18116e-05
-1.18134e-05
-1.18152e-05
-1.18171e-05
-1.18189e-05
-1.18207e-05
-1.18226e-05
-1.18244e-05
-1.18262e-05
-1.18281e-05
-1.18299e-05
-1.18318e-05
-1.18336e-05
-1.18355e-05
-1.18373e-05
-1.18392e-05
-1.1841e-05
-1.18429e-05
-1.18448e-05
-1.18466e-05
-1.18485e-05
-1.18504e-05
-1.18523e-05
-1.18542e-05
-1.1856e-05
-1.18579e-05
-1.18598e-05
-1.18617e-05
-1.18636e-05
-1.18655e-05
-1.18674e-05
-1.18693e-05
-1.18712e-05
-1.18732e-05
-1.18751e-05
-1.1877e-05
-1.18789e-05
-1.18808e-05
-1.18828e-05
-1.18847e-05
-1.18866e-05
-1.18886e-05
-1.18905e-05
-1.18925e-05
-1.18944e-05
-1.18964e-05
-1.18983e-05
-1.19003e-05
-1.19023e-05
-1.19042e-05
-1.19062e-05
-1.19082e-05
-1.19101e-05
-1.19121e-05
-1.19141e-05
-1.19161e-05
-1.19181e-05
-1.19201e-05
-1.19221e-05
-1.19241e-05
-1.19261e-05
-1.19281e-05
-1.19301e-05
-1.19321e-05
-1.19342e-05
-1.19362e-05
-1.19382e-05
-1.19402e-05
-1.19423e-05
-1.19443e-05
-1.19464e-05
-1.19484e-05
-1.19505e-05
-1.19525e-05
-1.19546e-05
-1.19566e-05
-1.19587e-05
-1.19608e-05
-1.19628e-05
-1.19649e-05
-1.1967e-05
-1.19691e-05
-1.19712e-05
-1.19733e-05
-1.19754e-05
-1.19775e-05
-1.19796e-05
-1.19817e-05
-1.19838e-05
-1.19859e-05
-1.1988e-05
-1.19902e-05
-1.19923e-05
-1.19944e-05
-1.19966e-05
-1.19987e-05
-1.20009e-05
-1.2003e-05
-1.20052e-05
-1.20073e-05
-1.20095e-05
-1.20117e-05
-1.20138e-05
-1.2016e-05
-1.20182e-05
-1.20204e-05
-1.20226e-05
-1.20248e-05
-1.2027e-05
-1.20292e-05
-1.20314e-05
-1.20336e-05
-1.20358e-05
-1.2038e-05
-1.20403e-05
-1.20425e-05
-1.20447e-05
-1.2047e-05
-1.20492e-05
-1.20515e-05
-1.20537e-05
-1.2056e-05
-1.20583e-05
-1.20605e-05
-1.20628e-05
-1.20651e-05
-1.20674e-05
-1.20697e-05
-1.2072e-05
-1.20743e-05
-1.20766e-05
-1.20789e-05
-1.20812e-05
-1.20835e-05
-1.20859e-05
-1.20882e-05
-1.20905e-05
-1.20929e-05
-1.20952e-05
-1.20976e-05
-1.21e-05
-1.21023e-05
-1.21047e-05
-1.21071e-05
-1.21094e-05
-1.21118e-05
-1.21142e-05
-1.21166e-05
-1.2119e-05
-1.21214e-05
-1.21239e-05
-1.21263e-05
-1.21287e-05
-1.21311e-05
-1.21336e-05
-1.2136e-05
-1.21385e-05
-1.21409e-05
-1.21434e-05
-1.21459e-05
-1.21484e-05
-1.21508e-05
-1.21533e-05
-1.21558e-05
-1.21583e-05
-1.21608e-05
-1.21633e-05
-1.21659e-05
-1.21684e-05
-1.21709e-05
-1.21735e-05
-1.2176e-05
-1.21786e-05
-1.21811e-05
-1.21837e-05
-1.21863e-05
-1.21888e-05
-1.21914e-05
-1.2194e-05
-1.21966e-05
-1.21992e-05
-1.22018e-05
-1.22045e-05
-1.22071e-05
-1.22097e-05
-1.22124e-05
-1.2215e-05
-1.22177e-05
-1.22204e-05
-1.2223e-05
-1.22257e-05
-1.22284e-05
-1.22311e-05
-1.22338e-05
-1.22365e-05
-1.22392e-05
-1.22419e-05
-1.22447e-05
-1.22474e-05
-1.22502e-05
-1.22529e-05
-1.22557e-05
-1.22585e-05
-1.22613e-05
-1.2264e-05
-1.22668e-05
-1.22697e-05
-1.22725e-05
-1.22753e-05
-1.22781e-05
-1.2281e-05
-1.22838e-05
-1.22867e-05
-1.22896e-05
-1.22924e-05
-1.22953e-05
-1.22982e-05
-1.23011e-05
-1.2304e-05
-1.2307e-05
-1.23099e-05
-1.23128e-05
-1.23158e-05
-1.23187e-05
-1.23217e-05
-1.23247e-05
-1.23277e-05
-1.23307e-05
-1.23337e-05
-1.23367e-05
-1.23397e-05
-1.23428e-05
-1.23458e-05
-1.23489e-05
-1.2352e-05
-1.23551e-05
-1.23581e-05
-1.23612e-05
-1.23644e-05
-1.23675e-05
-1.23706e-05
-1.23738e-05
-1.23769e-05
-1.23801e-05
-1.23833e-05
-1.23865e-05
-1.23897e-05
-1.23929e-05
-1.23961e-05
-1.23994e-05
-1.24026e-05
-1.24059e-05
-1.24092e-05
-1.24124e-05
-1.24157e-05
-1.24191e-05
-1.24224e-05
-1.24257e-05
-1.24291e-05
-1.24324e-05
-1.24358e-05
-1.24392e-05
-1.24426e-05
-1.2446e-05
-1.24495e-05
-1.24529e-05
-1.24564e-05
-1.24598e-05
-1.24633e-05
-1.24668e-05
-1.24703e-05
-1.24739e-05
-1.24774e-05
-1.2481e-05
-1.24845e-05
-1.24881e-05
-1.24917e-05
-1.24954e-05
-1.2499e-05
-1.25026e-05
-1.25063e-05
-1.251e-05
-1.25137e-05
-1.25174e-05
-1.25211e-05
-1.25249e-05
-1.25287e-05
-1.25324e-05
-1.25362e-05
-1.25401e-05
-1.25439e-05
-1.25477e-05
-1.25516e-05
-1.25555e-05
-1.25594e-05
-1.25633e-05
-1.25673e-05
-1.25712e-05
-1.25752e-05
-1.25792e-05
-1.25832e-05
-1.25873e-05
-1.25913e-05
-1.25954e-05
-1.25995e-05
-1.26036e-05
-1.26077e-05
-1.26119e-05
-1.26161e-05
-1.26203e-05
-1.26245e-05
-1.26287e-05
-1.2633e-05
-1.26373e-05
-1.26416e-05
-1.26459e-05
-1.26503e-05
-1.26547e-05
-1.2659e-05
-1.26635e-05
-1.26679e-05
-1.26724e-05
-1.26769e-05
-1.26814e-05
-1.26859e-05
-1.26905e-05
-1.26951e-05
-1.26997e-05
-1.27043e-05
-1.2709e-05
-1.27137e-05
-1.27184e-05
-1.27231e-05
-1.27279e-05
-1.27327e-05
-1.27375e-05
-1.27423e-05
-1.27472e-05
-1.27521e-05
-1.2757e-05
-1.2762e-05
-1.2767e-05
-1.2772e-05
-1.2777e-05
-1.27821e-05
-1.27871e-05
-1.27923e-05
-1.27974e-05
-1.28026e-05
-1.28078e-05
-1.2813e-05
-1.28182e-05
-1.28235e-05
-1.28288e-05
-1.28342e-05
-1.28395e-05
-1.28449e-05
-1.28503e-05
-1.28558e-05
-1.28612e-05
-1.28667e-05
-1.28723e-05
-1.28778e-05
-1.28834e-05
-1.2889e-05
-1.28946e-05
-1.29003e-05
-1.2906e-05
-1.29117e-05
-1.29174e-05
-1.29232e-05
-1.2929e-05
-1.29348e-05
-1.29406e-05
-1.29464e-05
-1.29523e-05
-1.29582e-05
-1.29641e-05
-1.297e-05
-1.29759e-05
-1.29819e-05
-1.29879e-05
-1.29939e-05
-1.29999e-05
-1.30059e-05
-1.30119e-05
-1.3018e-05
-1.3024e-05
-1.30301e-05
-1.30361e-05
-1.30422e-05
-1.30483e-05
-1.30543e-05
-1.30604e-05
-1.30665e-05
-1.30726e-05
-1.30786e-05
-1.30847e-05
-1.30907e-05
-1.30968e-05
-1.31028e-05
-1.31088e-05
-1.31148e-05
-1.31208e-05
-1.31267e-05
-1.31326e-05
-1.31385e-05
-1.31444e-05
-1.31502e-05
-1.3156e-05
-1.31618e-05
-1.31675e-05
-1.31731e-05
-1.31788e-05
-1.31843e-05
-1.31898e-05
-1.31953e-05
-1.32007e-05
-1.3206e-05
-1.32112e-05
-1.32164e-05
-1.32215e-05
-1.32265e-05
-1.32315e-05
-1.32363e-05
-1.32411e-05
-1.32457e-05
-1.32503e-05
-1.32548e-05
-1.32591e-05
-1.32633e-05
-1.32674e-05
-1.32714e-05
-1.32753e-05
-1.3279e-05
-1.32826e-05
-1.3286e-05
-1.32893e-05
-1.32925e-05
-1.32955e-05
-1.32983e-05
-1.3301e-05
-1.33035e-05
-1.33058e-05
-1.3308e-05
-1.33099e-05
-1.33117e-05
-1.33133e-05
-1.33147e-05
-1.33158e-05
-1.33168e-05
-1.33176e-05
-1.33181e-05
-1.33185e-05
-1.33186e-05
-1.33184e-05
-1.33181e-05
-1.33175e-05
-1.33166e-05
-1.33155e-05
-1.33142e-05
-1.33126e-05
-1.33108e-05
-1.33087e-05
-1.33063e-05
-1.33037e-05
-1.33008e-05
-1.32976e-05
-1.32941e-05
-1.32904e-05
-1.32864e-05
-1.32821e-05
-1.32775e-05
-1.32726e-05
-1.32675e-05
-1.3262e-05
-1.32563e-05
-1.32502e-05
-1.32439e-05
-1.32373e-05
-1.32303e-05
-1.32231e-05
-1.32156e-05
-1.32078e-05
-1.31997e-05
-1.31912e-05
-1.31825e-05
-1.31735e-05
-1.31643e-05
-1.31547e-05
-1.31448e-05
-1.31346e-05
-1.31242e-05
-1.31134e-05
-1.31024e-05
-1.30911e-05
-1.30796e-05
-1.30677e-05
-1.30556e-05
-1.30432e-05
-1.30306e-05
-1.30177e-05
-1.30045e-05
-1.29911e-05
-1.29775e-05
-1.29636e-05
-1.29495e-05
-1.29351e-05
-1.29205e-05
-1.29056e-05
-1.28906e-05
-1.28753e-05
-1.28597e-05
-1.2844e-05
-1.2828e-05
-1.28117e-05
-1.27953e-05
-1.27785e-05
-1.27615e-05
-1.27441e-05
-1.27264e-05
-1.27082e-05
-1.26898e-05
-1.26705e-05
-1.26512e-05
-1.26301e-05
-1.26098e-05
-1.25856e-05
-1.25643e-05
-1.25336e-05
-1.25134e-05
-1.2466e-05
-1.24603e-05
-1.23502e-05
-1.25265e-05
-8.83022e-06
-8.83022e-06
0
0
0.0966056
0.0320489
0.0130025
0.0068227
0.00423238
0.00291042
0.00213876
0.00164466
0.00130677
0.00106427
0.000883745
0.000745476
0.00063715
0.000550706
0.000480659
0.000423155
0.000375414
0.000335382
0.000301514
0.000272626
0.0002478
0.000226314
0.000207595
0.000191184
0.000176711
0.000163872
0.00015242
0.000142152
0.000132898
0.000124517
0.000116892
0.000109921
0.000103522
9.76233e-05
9.21624e-05
8.70866e-05
8.23497e-05
7.79115e-05
7.37374e-05
6.97968e-05
6.6063e-05
6.2512e-05
5.91218e-05
5.58726e-05
5.27462e-05
4.97255e-05
4.6793e-05
4.39295e-05
4.11133e-05
3.83214e-05
3.55317e-05
3.27266e-05
2.98963e-05
2.70398e-05
2.41648e-05
2.12868e-05
1.84272e-05
1.56134e-05
1.28793e-05
1.02646e-05
7.81252e-06
5.56444e-06
3.55242e-06
1.79202e-06
2.78123e-07
-1.01417e-06
-2.12315e-06
-3.09049e-06
-3.9507e-06
-4.72358e-06
-5.41211e-06
-6.00627e-06
-6.49122e-06
-6.85711e-06
-7.10716e-06
-7.2617e-06
-7.35714e-06
-7.44044e-06
-7.56087e-06
-7.76133e-06
-8.07137e-06
-8.50312e-06
-9.05075e-06
-9.69297e-06
-1.03978e-05
-1.11278e-05
-1.18461e-05
-1.25201e-05
-1.31252e-05
-1.36454e-05
-1.40737e-05
-1.44108e-05
-1.46634e-05
-1.48421e-05
-1.49598e-05
-1.50296e-05
-1.5064e-05
-1.50739e-05
-1.50681e-05
-1.50535e-05
-1.50352e-05
-1.50164e-05
-1.49993e-05
-1.49849e-05
-1.49734e-05
-1.4965e-05
-1.49592e-05
-1.49557e-05
-1.49539e-05
-1.49534e-05
-1.49539e-05
-1.49551e-05
-1.49567e-05
-1.49586e-05
-1.49606e-05
-1.49627e-05
-1.49649e-05
-1.4967e-05
-1.49691e-05
-1.49711e-05
-1.49732e-05
-1.49752e-05
-1.49772e-05
-1.49792e-05
-1.49811e-05
-1.49831e-05
-1.49851e-05
-1.4987e-05
-1.4989e-05
-1.49909e-05
-1.49928e-05
-1.49948e-05
-1.49967e-05
-1.49987e-05
-1.50006e-05
-1.50026e-05
-1.50046e-05
-1.50065e-05
-1.50085e-05
-1.50105e-05
-1.50124e-05
-1.50144e-05
-1.50164e-05
-1.50184e-05
-1.50204e-05
-1.50223e-05
-1.50243e-05
-1.50263e-05
-1.50283e-05
-1.50303e-05
-1.50323e-05
-1.50343e-05
-1.50363e-05
-1.50383e-05
-1.50403e-05
-1.50423e-05
-1.50444e-05
-1.50464e-05
-1.50484e-05
-1.50504e-05
-1.50525e-05
-1.50545e-05
-1.50565e-05
-1.50585e-05
-1.50606e-05
-1.50626e-05
-1.50647e-05
-1.50667e-05
-1.50688e-05
-1.50708e-05
-1.50729e-05
-1.50749e-05
-1.5077e-05
-1.5079e-05
-1.50811e-05
-1.50832e-05
-1.50852e-05
-1.50873e-05
-1.50894e-05
-1.50915e-05
-1.50935e-05
-1.50956e-05
-1.50977e-05
-1.50998e-05
-1.51019e-05
-1.5104e-05
-1.51061e-05
-1.51082e-05
-1.51103e-05
-1.51124e-05
-1.51145e-05
-1.51166e-05
-1.51187e-05
-1.51209e-05
-1.5123e-05
-1.51251e-05
-1.51272e-05
-1.51294e-05
-1.51315e-05
-1.51336e-05
-1.51358e-05
-1.51379e-05
-1.514e-05
-1.51422e-05
-1.51443e-05
-1.51465e-05
-1.51487e-05
-1.51508e-05
-1.5153e-05
-1.51551e-05
-1.51573e-05
-1.51595e-05
-1.51617e-05
-1.51638e-05
-1.5166e-05
-1.51682e-05
-1.51704e-05
-1.51726e-05
-1.51748e-05
-1.5177e-05
-1.51792e-05
-1.51814e-05
-1.51836e-05
-1.51858e-05
-1.5188e-05
-1.51902e-05
-1.51924e-05
-1.51946e-05
-1.51969e-05
-1.51991e-05
-1.52013e-05
-1.52036e-05
-1.52058e-05
-1.5208e-05
-1.52103e-05
-1.52125e-05
-1.52148e-05
-1.5217e-05
-1.52193e-05
-1.52215e-05
-1.52238e-05
-1.52261e-05
-1.52283e-05
-1.52306e-05
-1.52329e-05
-1.52352e-05
-1.52374e-05
-1.52397e-05
-1.5242e-05
-1.52443e-05
-1.52466e-05
-1.52489e-05
-1.52512e-05
-1.52535e-05
-1.52558e-05
-1.52581e-05
-1.52605e-05
-1.52628e-05
-1.52651e-05
-1.52674e-05
-1.52698e-05
-1.52721e-05
-1.52744e-05
-1.52768e-05
-1.52791e-05
-1.52815e-05
-1.52838e-05
-1.52862e-05
-1.52885e-05
-1.52909e-05
-1.52933e-05
-1.52956e-05
-1.5298e-05
-1.53004e-05
-1.53028e-05
-1.53052e-05
-1.53076e-05
-1.531e-05
-1.53124e-05
-1.53148e-05
-1.53172e-05
-1.53196e-05
-1.5322e-05
-1.53244e-05
-1.53268e-05
-1.53292e-05
-1.53317e-05
-1.53341e-05
-1.53365e-05
-1.5339e-05
-1.53414e-05
-1.53439e-05
-1.53463e-05
-1.53488e-05
-1.53512e-05
-1.53537e-05
-1.53562e-05
-1.53586e-05
-1.53611e-05
-1.53636e-05
-1.53661e-05
-1.53686e-05
-1.53711e-05
-1.53736e-05
-1.53761e-05
-1.53786e-05
-1.53811e-05
-1.53836e-05
-1.53861e-05
-1.53886e-05
-1.53911e-05
-1.53937e-05
-1.53962e-05
-1.53988e-05
-1.54013e-05
-1.54038e-05
-1.54064e-05
-1.5409e-05
-1.54115e-05
-1.54141e-05
-1.54167e-05
-1.54192e-05
-1.54218e-05
-1.54244e-05
-1.5427e-05
-1.54296e-05
-1.54322e-05
-1.54348e-05
-1.54374e-05
-1.544e-05
-1.54426e-05
-1.54452e-05
-1.54479e-05
-1.54505e-05
-1.54531e-05
-1.54558e-05
-1.54584e-05
-1.54611e-05
-1.54637e-05
-1.54664e-05
-1.5469e-05
-1.54717e-05
-1.54744e-05
-1.54771e-05
-1.54797e-05
-1.54824e-05
-1.54851e-05
-1.54878e-05
-1.54905e-05
-1.54932e-05
-1.5496e-05
-1.54987e-05
-1.55014e-05
-1.55041e-05
-1.55069e-05
-1.55096e-05
-1.55124e-05
-1.55151e-05
-1.55179e-05
-1.55206e-05
-1.55234e-05
-1.55262e-05
-1.55289e-05
-1.55317e-05
-1.55345e-05
-1.55373e-05
-1.55401e-05
-1.55429e-05
-1.55457e-05
-1.55485e-05
-1.55514e-05
-1.55542e-05
-1.5557e-05
-1.55599e-05
-1.55627e-05
-1.55656e-05
-1.55684e-05
-1.55713e-05
-1.55742e-05
-1.5577e-05
-1.55799e-05
-1.55828e-05
-1.55857e-05
-1.55886e-05
-1.55915e-05
-1.55944e-05
-1.55973e-05
-1.56003e-05
-1.56032e-05
-1.56061e-05
-1.56091e-05
-1.5612e-05
-1.5615e-05
-1.56179e-05
-1.56209e-05
-1.56239e-05
-1.56269e-05
-1.56299e-05
-1.56329e-05
-1.56359e-05
-1.56389e-05
-1.56419e-05
-1.56449e-05
-1.56479e-05
-1.5651e-05
-1.5654e-05
-1.56571e-05
-1.56601e-05
-1.56632e-05
-1.56663e-05
-1.56693e-05
-1.56724e-05
-1.56755e-05
-1.56786e-05
-1.56817e-05
-1.56848e-05
-1.56879e-05
-1.56911e-05
-1.56942e-05
-1.56974e-05
-1.57005e-05
-1.57037e-05
-1.57068e-05
-1.571e-05
-1.57132e-05
-1.57164e-05
-1.57196e-05
-1.57228e-05
-1.5726e-05
-1.57292e-05
-1.57324e-05
-1.57357e-05
-1.57389e-05
-1.57422e-05
-1.57454e-05
-1.57487e-05
-1.5752e-05
-1.57553e-05
-1.57586e-05
-1.57619e-05
-1.57652e-05
-1.57685e-05
-1.57718e-05
-1.57752e-05
-1.57785e-05
-1.57819e-05
-1.57852e-05
-1.57886e-05
-1.5792e-05
-1.57954e-05
-1.57988e-05
-1.58022e-05
-1.58056e-05
-1.5809e-05
-1.58125e-05
-1.58159e-05
-1.58194e-05
-1.58228e-05
-1.58263e-05
-1.58298e-05
-1.58333e-05
-1.58368e-05
-1.58403e-05
-1.58438e-05
-1.58474e-05
-1.58509e-05
-1.58545e-05
-1.5858e-05
-1.58616e-05
-1.58652e-05
-1.58688e-05
-1.58724e-05
-1.5876e-05
-1.58796e-05
-1.58833e-05
-1.58869e-05
-1.58906e-05
-1.58942e-05
-1.58979e-05
-1.59016e-05
-1.59053e-05
-1.5909e-05
-1.59128e-05
-1.59165e-05
-1.59203e-05
-1.5924e-05
-1.59278e-05
-1.59316e-05
-1.59354e-05
-1.59392e-05
-1.5943e-05
-1.59468e-05
-1.59507e-05
-1.59545e-05
-1.59584e-05
-1.59623e-05
-1.59662e-05
-1.59701e-05
-1.5974e-05
-1.5978e-05
-1.59819e-05
-1.59859e-05
-1.59898e-05
-1.59938e-05
-1.59978e-05
-1.60018e-05
-1.60059e-05
-1.60099e-05
-1.6014e-05
-1.6018e-05
-1.60221e-05
-1.60262e-05
-1.60303e-05
-1.60345e-05
-1.60386e-05
-1.60428e-05
-1.60469e-05
-1.60511e-05
-1.60553e-05
-1.60595e-05
-1.60638e-05
-1.6068e-05
-1.60723e-05
-1.60766e-05
-1.60809e-05
-1.60852e-05
-1.60895e-05
-1.60938e-05
-1.60982e-05
-1.61026e-05
-1.6107e-05
-1.61114e-05
-1.61158e-05
-1.61203e-05
-1.61247e-05
-1.61292e-05
-1.61337e-05
-1.61382e-05
-1.61428e-05
-1.61473e-05
-1.61519e-05
-1.61565e-05
-1.61611e-05
-1.61657e-05
-1.61704e-05
-1.6175e-05
-1.61797e-05
-1.61844e-05
-1.61891e-05
-1.61939e-05
-1.61986e-05
-1.62034e-05
-1.62082e-05
-1.6213e-05
-1.62179e-05
-1.62228e-05
-1.62276e-05
-1.62326e-05
-1.62375e-05
-1.62424e-05
-1.62474e-05
-1.62524e-05
-1.62574e-05
-1.62625e-05
-1.62675e-05
-1.62726e-05
-1.62777e-05
-1.62829e-05
-1.6288e-05
-1.62932e-05
-1.62984e-05
-1.63036e-05
-1.63089e-05
-1.63141e-05
-1.63194e-05
-1.63248e-05
-1.63301e-05
-1.63355e-05
-1.63409e-05
-1.63463e-05
-1.63518e-05
-1.63572e-05
-1.63628e-05
-1.63683e-05
-1.63738e-05
-1.63794e-05
-1.6385e-05
-1.63907e-05
-1.63963e-05
-1.6402e-05
-1.64077e-05
-1.64135e-05
-1.64193e-05
-1.64251e-05
-1.64309e-05
-1.64367e-05
-1.64426e-05
-1.64485e-05
-1.64545e-05
-1.64604e-05
-1.64664e-05
-1.64725e-05
-1.64785e-05
-1.64846e-05
-1.64907e-05
-1.64969e-05
-1.6503e-05
-1.65092e-05
-1.65155e-05
-1.65217e-05
-1.6528e-05
-1.65343e-05
-1.65406e-05
-1.6547e-05
-1.65534e-05
-1.65598e-05
-1.65663e-05
-1.65728e-05
-1.65793e-05
-1.65858e-05
-1.65923e-05
-1.65989e-05
-1.66055e-05
-1.66122e-05
-1.66188e-05
-1.66255e-05
-1.66322e-05
-1.66389e-05
-1.66457e-05
-1.66525e-05
-1.66593e-05
-1.66661e-05
-1.66729e-05
-1.66798e-05