# vtk DataFile Version 2.0
FlowField
ASCII
DATASET STRUCTURED_GRID
DIMENSIONS 800 1 200
POINTS 160000 float
0 0 0
0.04 0 0
0.08 0 0
0.12 0 0
0.16 0 0
0.2 0 0
0.24 0 0
0.28 0 0
0.32 0 0
0.36 0 0
0.4 0 0
0.44 0 0
0.48 0 0
0.52 0 0
0.56 0 0
0.6 0 0
0.64 0 0
0.68 0 0
0.72 0 0
0.76 0 0
0.8 0 0
0.84 0 0
0.88 0 0
0.92 0 0
0.96 0 0
1 0 0
1.04 0 0
1.08 0 0
1.12 0 0
1.16 0 0
1.2 0 0
1.24 0 0
1.28 0 0
1.32 0 0
1.36 0 0
1.4 0 0
1.44 0 0
1.48 0 0
1.52 0 0
1.56 0 0
1.6 0 0
1.64 0 0
1.68 0 0
1.72 0 0
1.76 0 0
1.8 0 0
1.84 0 0
1.88 0 0
1.92 0 0
1.96 0 0
2 0 0
2.04 0 0
2.08 0 0
2.12 0 0
2.16 0 0
2.2 0 0
2.24 0 0
2.28 0 0
2.32 0 0
2.36 0 0
2.4 0 0
2.44 0 0
2.48 0 0
2.52 0 0
2.56 0 0
2.6 0 0
2.64 0 0
2.68 0 0
2.72 0 0
2.76 0 0
2.8 0 0
2.84 0 0
2.88 0 0
2.92 0 0
2.96 0 0
3 0 0
3.04 0 0
3.08 0 0
3.12 0 0
3.16 0 0
3.2 0 0
3.24 0 0
3.28 0 0
3.32 0 0
3.36 0 0
3.4 0 0
3.44 0 0
3.48 0 0
3.52 0 0
3.56 0 0
3.6 0 0
3.64 0 0
3.68 0 0
3.72 0 0
3.76 0 0
3.8 0 0
3.84 0 0
3.88 0 0
3.92 0 0
3.96 0 0
4 0 0
4.04 0 0
4.08 0 0
4.12 0 0
4.16 0 0
4.2 0 0
4.24 0 0
4.28 0 0
4.32 0 0
4.36 0 0
4.4 0 0
4.44 0 0
4.48 0 0
4.52 0 0
4.56 0 0
4.6 0 0
4.64 0 0
4.68 0 0
4.72 0 0
4.76 0 0
4.8 0 0
4.84 0 0
4.88 0 0
4.92 0 0
4.96 0 0
5 0 0
5.04 0 0
5.08 0 0
5.12 0 0
5.16 0 0
5.2 0 0
5.24 0 0
5.28 0 0
5.32 0 0
5.36 0 0
5.4 0 0
5.44 0 0
5.48 0 0
5.52 0 0
5.56 0 0
5.6 0 0
5.64 0 0
5.68 0 0
5.72 0 0
5.76 0 0
5.8 0 0
5.84 0 0
5.88 0 0
5.92 0 0
5.96 0 0
6 0 0
6.04 0 0
6.08 0 0
6.12 0 0
6.16 0 0
6.2 0 0
6.24 0 0
6.28 0 0
6.32 0 0
6.36 0 0
6.4 0 0
6.44 0 0
6.48 0 0
6.52 0 0
6.56 0 0
6.6 0 0
6.64 0 0
6.68 0 0
6.72 0 0
6.76 0 0
6.8 0 0
6.84 0 0
6.88 0 0
6.92 0 0
6.96 0 0
7 0 0
7.04 0 0
7.08 0 0
7.12 0 0
7.16 0 0
7.2 0 0
7.24 0 0
7.28 0 0
7.32 0 0
7.36 0 0
7.4 0 0
7.44 0 0
7.48 0 0
7.52 0 0
7.56 0 0
7.6 0 0
7.64 0 0
7.68 0 0
7.72 0 0
7.76 0 0
7.8 0 0
7.84 0 0
7.88 0 0
7.92 0 0
7.96 0 0
8 0 0
8.04 0 0
8.08 0 0
8.12 0 0
8.16 0 0
8.2 0 0
8.24 0 0
8.28 0 0
8.32 0 0
8.36 0 0
8.4 0 0
8.44 0 0
8.48 0 0
8.52 0 0
8.56 0 0
8.6 0 0
8.64 0 0
8.68 0 0
8.72 0 0
8.76 0 0
8.8 0 0
8.84 0 0
8.88 0 0
8.92 0 0
8.96 0 0
9 0 0
9.04 0 0
9.08 0 0
9.12 0 0
9.16 0 0
9.2 0 0
9.24 0 0
9.28 0 0
9.32 0 0
9.36 0 0
9.4 0 0
9.44 0 0
9.48 0 0
9.52 0 0
9.56 0 0
9.6 0 0
9.64 0 0
9.68 0 0
9.72 0 0
9.76 0 0
9.8 0 0
9.84 0 0
9.88 0 0
9.92 0 0
9.96 0 0
10 0 0
10.04 0 0
10.08 0 0
10.12 0 0
10.16 0 0
10.2 0 0
10.24 0 0
10.28 0 0
10.32 0 0
10.36 0 0
10.4 0 0
10.44 0 0
10.48 0 0
10.52 0 0
10.56 0 0
10.6 0 0
10.64 0 0
10.68 0 0
10.72 0 0
10.76 0 0
10.8 0 0
10.84 0 0
10.88 0 0
10.92 0 0
10.96 0 0
11 0 0
11.04 0 0
11.08 0 0
11.12 0 0
11.16 0 0
11.2 0 0
11.24 0 0
11.28 0 0
11.32 0 0
11.36 0 0
11.4 0 0
11.44 0 0
11.48 0 0
11.52 0 0
11.56 0 0
11.6 0 0
11.64 0 0
11.68 0 0
11.72 0 0
11.76 0 0
11.8 0 0
11.84 0 0
11.88 0 0
11.92 0 0
11.96 0 0
12 0 0
12.04 0 0
12.08 0 0
12.12 0 0
12.16 0 0
12.2 0 0
12.24 0 0
12.28 0 0
12.32 0 0
12.36 0 0
12.4 0 0
12.44 0 0
12.48 0 0
12.52 0 0
12.56 0 0
12.6 0 0
12.64 0 0
12.68 0 0
12.72 0 0
12.76 0 0
12.8 0 0
12.84 0 0
12.88 0 0
12.92 0 0
12.96 0 0
13 0 0
13.04 0 0
13.08 0 0
13.12 0 0
13.16 0 0
13.2 0 0
13.24 0 0
13.28 0 0
13.32 0 0
13.36 0 0
13.4 0 0
13.44 0 0
13.48 0 0
13.52 0 0
13.56 0 0
13.6 0 0
13.64 0 0
13.68 0 0
13.72 0 0
13.76 0 0
13.8 0 0
13.84 0 0
13.88 0 0
13.92 0 0
13.96 0 0
14 0 0
14.04 0 0
14.08 0 0
14.12 0 0
14.16 0 0
14.2 0 0
14.24 0 0
14.28 0 0
14.32 0 0
14.36 0 0
14.4 0 0
14.44 0 0
14.48 0 0
14.52 0 0
14.56 0 0
14.6 0 0
14.64 0 0
14.68 0 0
14.72 0 0
14.76 0 0
14.8 0 0
14.84 0 0
14.88 0 0
14.92 0 0
14.96 0 0
15 0 0
15.04 0 0
15.08 0 0
15.12 0 0
15.16 0 0
15.2 0 0
15.24 0 0
15.28 0 0
15.32 0 0
15.36 0 0
15.4 0 0
15.44 0 0
15.48 0 0
15.52 0 0
15.56 0 0
15.6 0 0
15.64 0 0
15.68 0 0
15.72 0 0
15.76 0 0
15.8 0 0
15.84 0 0
15.88 0 0
15.92 0 0
15.96 0 0
16 0 0
16.04 0 0
16.08 0 0
16.12 0 0
16.16 0 0
16.2 0 0
16.24 0 0
16.28 0 0
16.32 0 0
16.36 0 0
16.4 0 0
16.44 0 0
16.48 0 0
16.52 0 0
16.56 0 0
16.6 0 0
16.64 0 0
16.68 0 0
16.72 0 0
16.76 0 0
16.8 0 0
16.84 0 0
16.88 0 0
16.92 0 0
16.96 0 0
17 0 0
17.04 0 0
17.08 0 0
17.12 0 0
17.16 0 0
17.2 0 0
17.24 0 0
17.28 0 0
17.32 0 0
17.36 0 0
17.4 0 0
17.44 0 0
17.48 0 0
17.52 0 0
17.56 0 0
17.6 0 0
17.64 0 0
17.68 0 0
17.72 0 0
17.76 0 0
17.8 0 0
17.84 0 0
17.88 0 0
17.92 0 0
17.96 0 0
18 0 0
18.04 0 0
18.08 0 0
18.12 0 0
18.16 0 0
18.2 0 0
18.24 0 0
18.28 0 0
18.32 0 0
18.36 0 0
18.4 0 0
18.44 0 0
18.48 0 0
18.52 0 0
18.56 0 0
18.6 0 0
18.64 0 0
18.68 0 0
18.72 0 0
18.76 0 0
18.8 0 0
18.84 0 0
18.88 0 0
18.92 0 0
18.96 0 0
19 0 0
19.04 0 0
19.08 0 0
19.12 0 0
19.16 0 0
19.2 0 0
19.24 0 0
19.28 0 0
19.32 0 0
19.36 0 0
19.4 0 0
19.44 0 0
19.48 0 0
19.52 0 0
19.56 0 0
19.6 0 0
19.64 0 0
19.68 0 0
19.72 0 0
19.76 0 0
19.8 0 0
19.84 0 0
19.88 0 0
19.92 0 0
19.96 0 0
20 0 0
20.04 0 0
20.08 0 0
20.12 0 0
20.16 0 0
20.2 0 0
20.24 0 0
20.28 0 0
20.32 0 0
20.36 0 0
20.4 0 0
20.44 0 0
20.48 0 0
20.52 0 0
20.56 0 0
20.6 0 0
20.64 0 0
20.68 0 0
20.72 0 0
20.76 0 0
20.8 0 0
20.84 0 0
20.88 0 0
20.92 0 0
20.96 0 0
21 0 0
21.04 0 0
21.08 0 0
21.12 0 0
21.16 0 0
21.2 0 0
21.24 0 0
21.28 0 0
21.32 0 0
21.36 0 0
21.4 0 0
21.44 0 0
21.48 0 0
21.52 0 0
21.56 0 0
21.6 0 0
21.64 0 0
21.68 0 0
21.72 0 0
21.76 0 0
21.8 0 0
21.84 0 0
21.88 0 0
21.92 0 0
21.96 0 0
22 0 0
22.04 0 0
22.08 0 0
22.12 0 0
22.16 0 0
22.2 0 0
22.24 0 0
22.28 0 0
22.32 0 0
22.36 0 0
22.4 0 0
22.44 0 0
22.48 0 0
22.52 0 0
22.56 0 0
22.6 0 0
22.64 0 0
22.68 0 0
22.72 0 0
22.76 0 0
22.8 0 0
22.84 0 0
22.88 0 0
22.92 0 0
22.96 0 0
23 0 0
23.04 0 0
23.08 0 0
23.12 0 0
23.16 0 0
23.2 0 0
23.24 0 0
23.28 0 0
23.32 0 0
23.36 0 0
23.4 0 0
23.44 0 0
23.48 0 0
23.52 0 0
23.56 0 0
23.6 0 0
23.64 0 0
23.68 0 0
23.72 0 0
23.76 0 0
23.8 0 0
23.84 0 0
23.88 0 0
23.92 0 0
23.96 0 0
24 0 0
24.04 0 0
24.08 0 0
24.12 0 0
24.16 0 0
24.2 0 0
24.24 0 0
24.28 0 0
24.32 0 0
24.36 0 0
24.4 0 0
24.44 0 0
24.48 0 0
24.52 0 0
24.56 0 0
24.6 0 0
24.64 0 0
24.68 0 0
24.72 0 0
24.76 0 0
24.8 0 0
24.84 0 0
24.88 0 0
24.92 0 0
24.96 0 0
25 0 0
25.04 0 0
25.08 0 0
25.12 0 0
25.16 0 0
25.2 0 0
25.24 0 0
25.28 0 0
25.32 0 0
25.36 0 0
25.4 0 0
25.44 0 0
25.48 0 0
25.52 0 0
25.56 0 0
25.6 0 0
25.64 0 0
25.68 0 0
25.72 0 0
25.76 0 0
25.8 0 0
25.84 0 0
25.88 0 0
25.92 0 0
25.96 0 0
26 0 0
26.04 0 0
26.08 0 0
26.12 0 0
26.16 0 0
26.2 0 0
26.24 0 0
26.28 0 0
26.32 0 0
26.36 0 0
26.4 0 0
26.44 0 0
26.48 0 0
26.52 0 0
26.56 0 0
26.6 0 0
26.64 0 0
26.68 0 0
26.72 0 0
26.76 0 0
26.8 0 0
26.84 0 0
26.88 0 0
26.92 0 0
26.96 0 0
27 0 0
27.04 0 0
27.08 0 0
27.12 0 0
27.16 0 0
27.2 0 0
27.24 0 0
27.28 0 0
27.32 0 0
27.36 0 0
27.4 0 0
27.44 0 0
27.48 0 0
27.52 0 0
27.56 0 0
27.6 0 0
27.64 0 0
27.68 0 0
27.72 0 0
27.76 0 0
27.8 0 0
27.84 0 0
27.88 0 0
27.92 0 0
27.96 0 0
28 0 0
28.04 0 0
28.08 0 0
28.12 0 0
28.16 0 0
28.2 0 0
28.24 0 0
28.28 0 0
28.32 0 0
28.36 0 0
28.4 0 0
28.44 0 0
28.48 0 0
28.52 0 0
28.56 0 0
28.6 0 0
28.64 0 0
28.68 0 0
28.72 0 0
28.76 0 0
28.8 0 0
28.84 0 0
28.88 0 0
28.92 0 0
28.96 0 0
29 0 0
29.04 0 0
29.08 0 0
29.12 0 0
29.16 0 0
29.2 0 0
29.24 0 0
29.28 0 0
29.32 0 0
29.36 0 0
29.4 0 0
29.44 0 0
29.48 0 0
29.52 0 0
29.56 0 0
29.6 0 0
29.64 0 0
29.68 0 0
29.72 0 0
29.76 0 0
29.8 0 0
29.84 0 0
29.88 0 0
29.92 0 0
29.96 0 0
30 0 0
30.04 0 0
30.08 0 0
30.12 0 0
30.16 0 0
30.2 0 0
30.24 0 0
30.28 0 0
30.32 0 0
30.36 0 0
30.4 0 0
30.44 0 0
30.48 0 0
30.52 0 0
30.56 0 0
30.6 0 0
30.64 0 0
30.68 0 0
30.72 0 0
30.76 0 0
30.8 0 0
30.84 0 0
30.88 0 0
30.92 0 0
30.96 0 0
31 0 0
31.04 0 0
31.08 0 0
31.12 0 0
31.16 0 0
31.2 0 0
31.24 0 0
31.28 0 0
31.32 0 0
31.36 0 0
31.4 0 0
31.44 0 0
31.48 0 0
31.52 0 0
31.56 0 0
31.6 0 0
31.64 0 0
31.68 0 0
31.72 0 0
31.76 0 0
31.8 0 0
31.84 0 0
31.88 0 0
31.92 0 0
31.96 0 0
0 0.005 0
0.04 0.005 0
0.08 0.005 0
0.12 0.005 0
0.16 0.005 0
0.2 0.005 0
0.24 0.005 0
0.28 0.005 0
0.32 0.005 0
0.36 0.005 0
0.4 0.005 0
0.44 0.005 0
0.48 0.005 0
0.52 0.005 0
0.56 0.005 0
0.6 0.005 0
0.64 0.005 0
0.68 0.005 0
0.72 0.005 0
0.76 0.005 0
0.8 0.005 0
0.84 0.005 0
0.88 0.005 0
0.92 0.005 0
0.96 0.005 0
1 0.005 0
1.04 0.005 0
1.08 0.005 0
1.12 0.005 0
1.16 0.005 0
1.2 0.005 0
1.24 0.005 0
1.28 0.005 0
1.32 0.005 0
1.36 0.005 0
1.4 0.005 0
1.44 0.005 0
1.48 0.005 0
1.52 0.005 0
1.56 0.005 0
1.6 0.005 0
1.64 0.005 0
1.68 0.005 0
1.72 0.005 0
1.76 0.005 0
1.8 0.005 0
1.84 0.005 0
1.88 0.005 0
1.92 0.005 0
1.96 0.005 0
2 0.005 0
2.04 0.005 0
2.08 0.005 0
2.12 0.005 0
2.16 0.005 0
2.2 0.005 0
2.24 0.005 0
2.28 0.005 0
2.32 0.005 0
2.36 0.005 0
2.4 0.005 0
2.44 0.005 0
2.48 0.005 0
2.52 0.005 0
2.56 0.005 0
2.6 0.005 0
2.64 0.005 0
2.68 0.005 0
2.72 0.005 0
2.76 0.005 0
2.8 0.005 0
2.84 0.005 0
2.88 0.005 0
2.92 0.005 0
2.96 0.005 0
3 0.005 0
3.04 0.005 0
3.08 0.005 0
3.12 0.005 0
3.16 0.005 0
3.2 0.005 0
3.24 0.005 0
3.28 0.005 0
3.32 0.005 0
3.36 0.005 0
3.4 0.005 0
3.44 0.005 0
3.48 0.005 0
3.52 0.005 0
3.56 0.005 0
3.6 0.005 0
3.64 0.005 0
3.68 0.005 0
3.72 0.005 0
3.76 0.005 0
3.8 0.005 0
3.84 0.005 0
3.88 0.005 0
3.92 0.005 0
3.96 0.005 0
4 0.005 0
4.04 0.005 0
4.08 0.005 0
4.12 0.005 0
4.16 0.005 0
4.2 0.005 0
4.24 0.005 0
4.28 0.005 0
4.32 0.005 0
4.36 0.005 0
4.4 0.005 0
4.44 0.005 0
4.48 0.005 0
4.52 0.005 0
4.56 0.005 0
4.6 0.005 0
4.64 0.005 0
4.68 0.005 0
4.72 0.005 0
4.76 0.005 0
4.8 0.005 0
4.84 0.005 0
4.88 0.005 0
4.92 0.005 0
4.96 0.005 0
5 0.005 0
5.04 0.005 0
5.08 0.005 0
5.12 0.005 0
5.16 0.005 0
5.2 0.005 0
5.24 0.005 0
5.28 0.005 0
5.32 0.005 0
5.36 0.005 0
5.4 0.005 0
5.44 0.005 0
5.48 0.005 0
5.52 0.005 0
5.56 0.005 0
5.6 0.005 0
5.64 0.005 0
5.68 0.005 0
5.72 0.005 0
5.76 0.005 0
5.8 0.005 0
5.84 0.005 0
5.88 0.005 0
5.92 0.005 0
5.96 0.005 0
6 0.005 0
6.04 0.005 0
6.08 0.005 0
6.12 0.005 0
6.16 0.005 0
6.2 0.005 0
6.24 0.005 0
6.28 0.005 0
6.32 0.005 0
6.36 0.005 0
6.4 0.005 0
6.44 0.005 0
6.48 0.005 0
6.52 0.005 0
6.56 0.005 0
6.6 0.005 0
6.64 0.005 0
6.68 0.005 0
6.72 0.005 0
6.76 0.005 0
6.8 0.005 0
6.84 0.005 0
6.88 0.005 0
6.92 0.005 0
6.96 0.005 0
7 0.005 0
7.04 0.005 0
7.08 0.005 0
7.12 0.005 0
7.16 0.005 0
7.2 0.005 0
7.24 0.005 0
7.28 0.005 0
7.32 0.005 0
7.36 0.005 0
7.4 0.005 0
[...]
POINT_DATA 160000

SCALARS p float 1
LOOKUP_TABLE default
1
62.3116
60.0962
59.8413
59.7811
59.7547
59.7387
59.7271
59.7179
59.71
59.7031
59.6967
59.6908
59.6853
59.68
59.6748
59.6699
59.6651
59.6603
59.6557
59.6512
59.6467
59.6423
59.638
59.6337
59.6295
59.6253
59.6212
59.6172
59.6132
59.6092
59.6053
59.6014
59.5976
59.5938
59.59
59.5863
59.5826
59.579
59.5754
59.5719
59.5683
59.5648
59.5614
59.5579
59.5545
59.5512
59.5478
59.5445
59.5413
59.538
59.5348
59.5316
59.5284
59.5253
59.5221
59.519
59.516
59.5129
59.5099
59.5069
59.5039
59.5009
59.4979
59.495
59.4921
59.4892
59.4863
59.4835
59.4806
59.4778
59.475
59.4722
59.4694
59.4667
59.4639
59.4612
59.4585
59.4558
59.4531
59.4504
59.4478
59.4451
59.4425
59.4399
59.4373
59.4347
59.4321
59.4296
59.427
59.4245
59.4219
59.4194
59.4169
59.4144
59.4119
59.4094
59.407
59.4045
59.4021
59.3996
59.3972
59.3948
59.3924
59.39
59.3876
59.3852
59.3829
59.3805
59.3781
59.3758
59.3735
59.3711
59.3688
59.3665
59.3642
59.3619
59.3596
59.3574
59.3551
59.3528
59.3506
59.3483
59.3461
59.3438
59.3416
59.3394
59.3372
59.335
59.3328
59.3306
59.3284
59.3262
59.324
59.3219
59.3197
59.3175
59.3154
59.3132
59.3111
59.309
59.3069
59.3047
59.3026
59.3005
59.2984
59.2963
59.2942
59.2921
59.29
59.288
59.2859
59.2838
59.2818
59.2797
59.2777
59.2756
59.2736
59.2715
59.2695
59.2675
59.2654
59.2634
59.2614
59.2594
59.2574
59.2554
59.2534
59.2514
59.2494
59.2474
59.2455
59.2435
59.2415
59.2395
59.2376
59.2356
59.2337
59.2317
59.2298
59.2278
59.2259
59.2239
59.222
59.2201
59.2182
59.2162
59.2143
59.2124
59.2105
59.2086
59.2067
59.2048
59.2029
59.201
59.1991
59.1972
59.1953
59.1934
59.1916
59.1897
59.1878
59.1859
59.1841
59.1822
59.1803
59.1785
59.1766
59.1748
59.1729
59.1711
59.1692
59.1674
59.1656
59.1637
59.1619
59.1601
59.1582
59.1564
59.1546
59.1528
59.151
59.1491
59.1473
59.1455
59.1437
59.1419
59.1401
59.1383
59.1365
59.1347
59.1329
59.1311
59.1294
59.1276
59.1258
59.124
59.1222
59.1204
59.1187
59.1169
59.1151
59.1134
59.1116
59.1098
59.1081
59.1063
59.1045
59.1028
59.101
59.0993
59.0975
59.0958
59.094
59.0923
59.0905
59.0888
59.0871
59.0853
59.0836
59.0819
59.0801
59.0784
59.0767
59.0749
59.0732
59.0715
59.0698
59.068
59.0663
59.0646
59.0629
59.0612
59.0595
59.0577
59.056
59.0543
59.0526
59.0509
59.0492
59.0475
59.0458
59.0441
59.0424
59.0407
59.039
59.0373
59.0356
59.0339
59.0322
59.0305
59.0289
59.0272
59.0255
59.0238
59.0221
59.0204
59.0188
59.0171
59.0154
59.0137
59.012
59.0104
59.0087
59.007
59.0054
59.0037
59.002
59.0003
58.9987
58.997
58.9953
58.9937
58.992
58.9904
58.9887
58.987
58.9854
58.9837
58.9821
58.9804
58.9788
58.9771
58.9755
58.9738
58.9722
58.9705
58.9689
58.9672
58.9656
58.9639
58.9623
58.9606
58.959
58.9573
58.9557
58.9541
58.9524
58.9508
58.9491
58.9475
58.9459
58.9442
58.9426
58.941
58.9393
58.9377
58.9361
58.9344
58.9328
58.9312
58.9295
58.9279
58.9263
58.9247
58.923
58.9214
58.9198
58.9182
58.9165
58.9149
58.9133
58.9117
58.91
58.9084
58.9068
58.9052
58.9036
58.9019
58.9003
58.8987
58.8971
58.8955
58.8939
58.8923
58.8906
58.889
58.8874
58.8858
58.8842
58.8826
58.881
58.8794
58.8777
58.8761
58.8745
58.8729
58.8713
58.8697
58.8681
58.8665
58.8649
58.8633
58.8617
58.8601
58.8585
58.8569
58.8553
58.8537
58.8521
58.8505
58.8489
58.8473
58.8457
58.8441
58.8425
58.8409
58.8393
58.8377
58.8361
58.8345
58.8329
58.8313
58.8297
58.8281
58.8265
58.8249
58.8233
58.8217
58.8201
58.8185
58.817
58.8154
58.8138
58.8122
58.8106
58.809
58.8074
58.8058
58.8042
58.8026
58.8011
58.7995
58.7979
58.7963
58.7947
58.7931
58.7915
58.7899
58.7884
58.7868
58.7852
58.7836
58.782
58.7804
58.7789
58.7773
58.7757
58.7741
58.7725
58.7709
58.7694
58.7678
58.7662
58.7646
58.763
58.7615
58.7599
58.7583
58.7567
58.7551
58.7536
58.752
58.7504
58.7488
58.7472
58.7457
58.7441
58.7425
58.7409
58.7393
58.7378
58.7362
58.7346
58.733
58.7315
58.7299
58.7283
58.7267
58.7252
58.7236
58.722
58.7204
58.7189
58.7173
58.7157
58.7141
58.7126
58.711
58.7094
58.7079
58.7063
58.7047
58.7031
58.7016
58.7
58.6984
58.6969
58.6953
58.6937
58.6921
58.6906
58.689
58.6874
58.6859
58.6843
58.6827
58.6811
58.6796
58.678
58.6764
58.6749
58.6733
58.6717
58.6702
58.6686
58.667
58.6655
58.6639
58.6623
58.6608
58.6592
58.6576
58.6561
58.6545
58.6529
58.6514
58.6498
58.6482
58.6467
58.6451
58.6435
58.642
58.6404
58.6388
58.6373
58.6357
58.6341
58.6326
58.631
58.6294
58.6279
58.6263
58.6248
58.6232
58.6216
58.6201
58.6185
58.6169
58.6154
58.6138
58.6122
58.6107
58.6091
58.6076
58.606
58.6044
58.6029
58.6013
58.5997
58.5982
58.5966
58.5951
58.5935
58.5919
58.5904
58.5888
58.5873
58.5857
58.5841
58.5826
58.581
58.5795
58.5779
58.5763
58.5748
58.5732
58.5717
58.5701
58.5685
58.567
58.5654
58.5639
58.5623
58.5607
58.5592
58.5576
58.5561
58.5545
58.5529
58.5514
58.5498
58.5483
58.5467
58.5451
58.5436
58.542
58.5405
58.5389
58.5374
58.5358
58.5342
58.5327
58.5311
58.5296
58.528
58.5265
58.5249
58.5233
58.5218
58.5202
58.5187
58.5171
58.5156
58.514
58.5124
58.5109
58.5093
58.5078
58.5062
58.5047
58.5031
58.5015
58.5
58.4984
58.4969
58.4953
58.4938
58.4922
58.4907
58.4891
58.4875
58.486
58.4844
58.4829
58.4813
58.4798
58.4782
58.4767
58.4751
58.4736
58.472
58.4704
58.4689
58.4673
58.4658
58.4642
58.4627
58.4611
58.4596
58.458
58.4565
58.4549
58.4533
58.4518
58.4502
58.4487
58.4471
58.4456
58.444
58.4425
58.4409
58.4394
58.4378
58.4363
58.4347
58.4332
58.4316
58.43
58.4285
58.4269
58.4254
58.4238
58.4223
58.4207
58.4192
58.4176
58.4161
58.4145
58.413
58.4114
58.4099
58.4083
58.4068
58.4052
58.4037
58.4021
58.4006
58.399
58.3975
58.3959
58.3943
58.3928
58.3912
58.3897
58.3881
58.3866
58.385
58.3835
58.3819
58.3804
58.3788
58.3773
58.3757
58.3742
58.3726
58.3711
58.3695
58.368
58.3664
58.3649
58.3633
58.3618
58.3602
58.3587
58.3571
58.3556
58.354
58.3525
58.3509
58.3494
58.3478
58.3463
58.3447
58.3432
58.3416
58.3401
58.3385
58.337
58.3354
58.3339
58.3323
58.3308
58.3292
58.3277
58.3261
58.3246
58.323
58.3215
58.3199
58.3184
58.3168
58.3153
58.3137
58.3122
58.3106
58.3091
58.3075
58.306
58.3044
58.3029
58.3013
58.2998
58.2982
58.2967
58.2952
58.2936
58.2921
58.2905
58.289
58.2874
58.2859
58.2843
58.2828
58.2812
58.2797
58.2781
58.2766
58.275
58.2735
58.2719
58.2704
58.2688
58.2673
58.2657
58.2642
58.2626
58.2611
58.2595
58.258
58.2565
58.2549
58.2534
58.2518
58.2503
58.2487
58.2472
58.2456
58.2441
58.2425
58.241
58.2394
58.2379
58.2363
58.2348
58.2333
58.2317
58.2302
58.2286
1
62.3116
62.3116
60.0962
59.8413
59.7811
59.7547
59.7387
59.7271
59.7179
59.71
59.7031
59.6967
59.6908
59.6853
59.68
59.6748
59.6699
59.6651
59.6603
59.6557
59.6512
59.6467
59.6423
59.638
59.6337
59.6295
59.6253
59.6212
59.6172
59.6132
59.6092
59.6053
59.6014
59.5976
59.5938
59.59
59.5863
59.5826
59.579
59.5754
59.5719
59.5683
59.5648
59.5614
59.5579
59.5545
59.5512
59.5478
59.5445
59.5413
59.538
59.5348
59.5316
59.5284
59.5253
59.5221
59.519
59.516
59.5129
59.5099
59.5069
59.5039
59.5009
59.4979
59.495
59.4921
59.4892
59.4863
59.4835
59.4806
59.4778
59.475
59.4722
59.4694
59.4667
59.4639
59.4612
59.4585
59.4558
59.4531
59.4504
59.4478
59.4451
59.4425
59.4399
59.4373
59.4347
59.4321
59.4296
59.427
59.4245
59.4219
59.4194
59.4169
59.4144
59.4119
59.4094
59.407
59.4045
59.4021
59.3996
59.3972
59.3948
59.3924
59.39
59.3876
59.3852
59.3829
59.3805
59.3781
59.3758
59.3735
59.3711
59.3688
59.3665
59.3642
59.3619
59.3596
59.3574
59.3551
59.3528
59.3506
59.3483
59.3461
59.3438
59.3416
59.3394
59.3372
59.335
59.3328
59.3306
59.3284
59.3262
59.324
59.3219
59.3197
59.3175
59.3154
59.3132
59.3111
59.309
59.3069
59.3047
59.3026
59.3005
59.2984
59.2963
59.2942
59.2921
59.29
59.288
59.2859
59.2838
59.2818
59.2797
59.2777
59.2756
59.2736
59.2715
59.2695
59.2675
59.2654
59.2634
59.2614
59.2594
59.2574
59.2554
59.2534
59.2514
59.2494
59.2474
59.2455
59.2435
59.2415
59.2395
59.2376
59.2356
59.2337
59.2317
59.2298
59.2278
59.2259
59.2239
59.222
59.2201
59.2182
59.2162
59.2143
59.2124
59.2105
59.2086
59.2067
59.2048
59.2029
59.201
59.1991
59.1972
59.1953
59.1934
59.1916
59.1897
59.1878
59.1859
59.1841
59.1822
59.1803
59.1785
59.1766
59.1748
59.1729
59.1711
59.1692
59.1674
59.1656
59.1637
59.1619
59.1601
59.1582
59.1564
59.1546
59.1528
59.151
59.1491
59.1473
59.1455
59.1437
59.1419
59.1401
59.1383
59.1365
59.1347
59.1329
59.1311
59.1294
59.1276
59.1258
59.124
59.1222
59.1204
59.1187
59.1169
59.1151
59.1134
59.1116
59.1098
59.1081
59.1063
59.1045
59.1028
59.101
59.0993
59.0975
59.0958
59.094
59.0923
59.0905
59.0888
59.0871
59.0853
59.0836
59.0819
59.0801
59.0784
59.0767
59.0749
59.0732
59.0715
59.0698
59.068
59.0663
59.0646
59.0629
59.0612
59.0595
59.0577
59.056
59.0543
59.0526
59.0509
59.0492
59.0475
59.0458
59.0441
59.0424
59.0407
59.039
59.0373
59.0356
59.0339
59.0322
59.0305
59.0289
59.0272
59.0255
59.0238
59.0221
59.0204
59.0188
59.0171
59.0154
59.0137
59.012
59.0104
59.0087
59.007
59.0054
59.0037
59.002
59.0003
58.9987
58.997
58.9953
58.9937
58.992
58.9904
58.9887
58.987
58.9854
58.9837
58.9821
58.9804
58.9788
58.9771
58.9755
58.9738
58.9722
58.9705
58.9689
58.9672
58.9656
58.9639
58.9623
58.9606
58.959
58.9573
58.9557
58.9541
58.9524
58.9508
58.9491
58.9475
58.9459
58.9442
58.9426
58.941
58.9393
58.9377
58.9361
58.9344
58.9328
58.9312
58.9295
58.9279
58.9263
58.9247
58.923
58.9214
58.9198
58.9182
58.9165
58.9149
58.9133
58.9117
58.91
58.9084
58.9068
58.9052
58.9036
58.9019
58.9003
58.8987
58.8971
58.8955
58.8939
58.8923
58.8906
58.889
58.8874
58.8858
58.8842
58.8826
58.881
58.8794
58.8777
58.8761
58.8745
58.8729
58.8713
58.8697
58.8681
58.8665
58.8649
58.8633
58.8617
58.8601
58.8585
58.8569
58.8553
58.8537
58.8521
58.8505
58.8489
58.8473
58.8457
58.8441
58.8425
58.8409
58.8393
58.8377
58.8361
58.8345
58.8329
58.8313
58.8297
58.8281
58.8265
58.8249
58.8233
58.8217
58.8201
58.8185
58.817
58.8154
58.8138
58.8122
58.8106
58.809
58.8074
58.8058
58.8042
58.8026
58.8011
58.7995
58.7979
58.7963
58.7947
58.7931
58.7915
58.7899
58.7884
58.7868
58.7852
58.7836
58.782
58.7804
58.7789
58.7773
58.7757
58.7741
58.7725
58.7709
58.7694
58.7678
58.7662
58.7646
58.763
58.7615
58.7599
58.7583
58.7567
58.7551
58.7536
58.752
58.7504
58.7488
58.7472
58.7457
58.7441
58.7425
58.7409
58.7393
58.7378
58.7362
58.7346
58.733
58.7315
58.7299
58.7283
58.7267
58.7252
58.7236
58.722
58.7204
58.7189
58.7173
58.7157
58.7141
58.7126
58.711
58.7094
58.7079
58.7063
58.7047
58.7031
58.7016
58.7
58.6984
58.6969
58.6953
58.6937
58.6921
58.6906
58.689
58.6874
58.6859
58.6843
58.6827
58.6811
58.6796
58.678
58.6764
58.6749
58.6733
58.6717
58.6702
58.6686
58.667
58.6655
58.6639
58.6623
58.6608
58.6592
58.6576
58.6561
58.6545
58.6529
58.6514
58.6498
58.6482
58.6467
58.6451
58.6435
58.642
58.6404
58.6388
58.6373
58.6357
58.6341
58.6326
58.631
58.6294
58.6279
58.6263
58.6248
58.6232
58.6216
58.6201
58.6185
58.6169
58.6154
58.6138
58.6122
58.6107
58.6091
58.6076
58.606
58.6044
58.6029
58.6013
58.5997
58.5982
58.5966
58.5951
58.5935
58.5919
58.5904
58.5888
58.5873
58.5857
58.5841
58.5826
58.581
58.5795
58.5779
58.5763
58.5748
58.5732
58.5717
58.5701
58.5685
58.567
58.5654
58.5639
58.5623
58.5607
58.5592
58.5576
58.5561
58.5545
58.5529
58.5514
58.5498
58.5483
58.5467
58.5451
58.5436
58.542
58.5405
58.5389
58.5374
58.5358
58.5342
58.5327
58.5311
58.5296
58.528
58.5265
58.5249
58.5233
58.5218
58.5202
58.5187
58.5171
58.5156
58.514
58.5124
58.5109
58.5093
58.5078
58.5062
58.5047
58.5031
58.5015
58.5
58.4984
58.4969
58.4953
58.4938
58.4922
58.4907
58.4891
58.4875
58.486
58.4844
58.4829
58.4813
58.4798
58.4782
58.4767
58.4751
58.4736
58.472
58.4704
58.4689
58.4673
58.4658
58.4642
58.4627
58.4611
58.4596
58.458
58.4565
58.4549
58.4533
58.4518
58.4502
58.4487
58.4471
58.4456
58.444
58.4425
58.4409
58.4394
58.4378
58.4363
58.4347
58.4332
58.4316
58.43
58.4285
58.4269
58.4254
58.4238
58.4223
58.4207
58.4192
58.4176
58.4161
58.4145
58.413
58.4114
58.4099
58.4083
58.4068
58.4052
58.4037
58.4021
58.4006
58.399
58.3975
58.3959
58.3943
58.3928
58.3912
58.3897
58.3881
58.3866
58.385
58.3835
58.3819
58.3804
58.3788
58.3773
58.3757
58.3742
58.3726
58.3711
58.3695
58.368
58.3664
58.3649
58.3633
58.3618
58.3602
58.3587
58.3571
58.3556
58.354
58.3525
58.3509
58.3494
58.3478
58.3463
58.3447
58.3432
58.3416
58.3401
58.3385
58.337
58.3354
58.3339
58.3323
58.3308
58.3292
58.3277
58.3261
58.3246
58.323
58.3215
58.3199
58.3184
58.3168
58.3153
58.3137
58.3122
58.3106
58.3091
58.3075
58.306
58.3044
58.3029
58.3013
58.2998
58.2982
58.2967
58.2952
58.2936
58.2921
58.2905
58.289
58.2874
58.2859
58.2843
58.2828
58.2812
58.2797
58.2781
58.2766
58.275
58.2735
58.2719
58.2704
58.2688
58.2673
58.2657
58.2642
58.2626
58.2611
58.2595
58.258
58.2565
58.2549
58.2534
58.2518
58.2503
58.2487
58.2472
58.2456
58.2441
58.2425
58.241
58.2394
58.2379
58.2363
58.2348
58.2333
58.2317
58.2302
58.2286
58.2286
61.6646
61.6646
60.1066
59.8508
59.7853
59.757
59.7401
59.7281
59.7186
59.7106
59.7035
59.6971
59.6911
59.6855
59.6802
59.675
59.6701
59.6652
59.6605
59.6558
59.6513
59.6468
59.6424
59.6381
59.6338
59.6296
59.6254
59.6213
59.6172
59.6132
59.6092
59.6053
59.6014
59.5976
59.5938
59.5901
59.5864
59.5827
59.579
59.5754
59.5719
59.5684
59.5649
59.5614
59.558
59.5546
59.5512
59.5479
59.5446
59.5413
59.538
59.5348
59.5316
59.5284
59.5253
59.5222
59.5191
59.516
59.5129
59.5099
59.5069
59.5039
59.5009
59.498
59.495
59.4921
59.4892
59.4863
59.4835
59.4806
59.4778
59.475
59.4722
59.4695
59.4667
59.464
59.4612
59.4585
59.4558
59.4531
59.4505
59.4478
59.4452
59.4425
59.4399
59.4373
59.4347
59.4321
59.4296
59.427
59.4245
59.4219
59.4194
59.4169
59.4144
59.4119
59.4095
59.407
59.4045
59.4021
59.3997
59.3972
59.3948
59.3924
59.39
59.3876
59.3852
59.3829
59.3805
59.3782
59.3758
59.3735
59.3712
59.3688
59.3665
59.3642
59.3619
59.3596
59.3574
59.3551
59.3528
59.3506
59.3483
59.3461
59.3438
59.3416
59.3394
59.3372
59.335
59.3328
59.3306
59.3284
59.3262
59.324
59.3219
59.3197
59.3175
59.3154
59.3133
59.3111
59.309
59.3069
59.3047
59.3026
59.3005
59.2984
59.2963
59.2942
59.2921
59.29
59.288
59.2859
59.2838
59.2818
59.2797
59.2777
59.2756
59.2736
59.2715
59.2695
59.2675
59.2655
59.2634
59.2614
59.2594
59.2574
59.2554
59.2534
59.2514
59.2494
59.2474
59.2455
59.2435
59.2415
59.2395
59.2376
59.2356
59.2337
59.2317
59.2298
59.2278
59.2259
59.2239
59.222
59.2201
59.2182
59.2162
59.2143
59.2124
59.2105
59.2086
59.2067
59.2048
59.2029
59.201
59.1991
59.1972
59.1953
59.1934
59.1916
59.1897
59.1878
59.1859
59.1841
59.1822
59.1804
59.1785
59.1766
59.1748
59.1729
59.1711
59.1693
59.1674
59.1656
59.1637
59.1619
59.1601
59.1582
59.1564
59.1546
59.1528
59.151
59.1492
59.1473
59.1455
59.1437
59.1419
59.1401
59.1383
59.1365
59.1347
59.1329
59.1311
59.1294
59.1276
59.1258
59.124
59.1222
59.1204
59.1187
59.1169
59.1151
59.1134
59.1116
59.1098
59.1081
59.1063
59.1045
59.1028
59.101
59.0993
59.0975
59.0958
59.094
59.0923
59.0905
59.0888
59.0871
59.0853
59.0836
59.0819
59.0801
59.0784
59.0767
59.0749
59.0732
59.0715
59.0698
59.068
59.0663
59.0646
59.0629
59.0612
59.0595
59.0577
59.056
59.0543
59.0526
59.0509
59.0492
59.0475
59.0458
59.0441
59.0424
59.0407
59.039
59.0373
59.0356
59.0339
59.0322
59.0305
59.0289
59.0272
59.0255
59.0238
59.0221
59.0204
59.0188
59.0171
59.0154
59.0137
59.012
59.0104
59.0087
59.007
59.0054
59.0037
59.002
59.0004
58.9987
58.997
58.9954
58.9937
58.992
58.9904
58.9887
58.987
58.9854
58.9837
58.9821
58.9804
58.9788
58.9771
58.9755
58.9738
58.9722
58.9705
58.9689
58.9672
58.9656
58.9639
58.9623
58.9606
58.959
58.9573
58.9557
58.9541
58.9524
58.9508
58.9491
58.9475
58.9459
58.9442
58.9426
58.941
58.9393
58.9377
58.9361
58.9344
58.9328
58.9312
58.9295
58.9279
58.9263
58.9247
58.923
58.9214
58.9198
58.9182
58.9165
58.9149
58.9133
58.9117
58.91
58.9084
58.9068
58.9052
58.9036
58.9019
58.9003
58.8987
58.8971
58.8955
58.8939
58.8923
58.8906
58.889
58.8874
58.8858
58.8842
58.8826
58.881
58.8794
58.8778
58.8761
58.8745
58.8729
58.8713
58.8697
58.8681
58.8665
58.8649
58.8633
58.8617
58.8601
58.8585
58.8569
58.8553
58.8537
58.8521
58.8505
58.8489
58.8473
58.8457
58.8441
58.8425
58.8409
58.8393
58.8377
58.8361
58.8345
58.8329
58.8313
58.8297
58.8281
58.8265
58.8249
58.8233
58.8217
58.8201
58.8186
58.817
58.8154
58.8138
58.8122
58.8106
58.809
58.8074
58.8058
58.8042
58.8026
58.8011
58.7995
58.7979
58.7963
58.7947
58.7931
58.7915
58.79
58.7884
58.7868
58.7852
58.7836
58.782
58.7804
58.7789
58.7773
58.7757
58.7741
58.7725
58.7709
58.7694
58.7678
58.7662
58.7646
58.763
58.7615
58.7599
58.7583
58.7567
58.7551
58.7536
58.752
58.7504
58.7488
58.7472
58.7457
58.7441
58.7425
58.7409
58.7394
58.7378
58.7362
58.7346
58.733
58.7315
58.7299
58.7283
58.7267
58.7252
58.7236
58.722
58.7204
58.7189
58.7173
58.7157
58.7142
58.7126
58.711
58.7094
58.7079
58.7063
58.7047
58.7031
58.7016
58.7
58.6984
58.6969
58.6953
58.6937
58.6921
58.6906
58.689
58.6874
58.6859
58.6843
58.6827
58.6812
58.6796
58.678
58.6764
58.6749
58.6733
58.6717
58.6702
58.6686
58.667
58.6655
58.6639
58.6623
58.6608
58.6592
58.6576
58.6561
58.6545
58.6529
58.6514
58.6498
58.6482
58.6467
58.6451
58.6435
58.642
58.6404
58.6388
58.6373
58.6357
58.6341
58.6326
58.631
58.6295
58.6279
58.6263
58.6248
58.6232
58.6216
58.6201
58.6185
58.6169
58.6154
58.6138
58.6123
58.6107
58.6091
58.6076
58.606
58.6044
58.6029
58.6013
58.5998
58.5982
58.5966
58.5951
58.5935
58.5919
58.5904
58.5888
58.5873
58.5857
58.5841
58.5826
58.581
58.5795
58.5779
58.5763
58.5748
58.5732
58.5717
58.5701
58.5685
58.567
58.5654
58.5639
58.5623
58.5607
58.5592
58.5576
58.5561
58.5545
58.5529
58.5514
58.5498
58.5483
58.5467
58.5452
58.5436
58.542
58.5405
58.5389
58.5374
58.5358
58.5342
58.5327
58.5311
58.5296
58.528
58.5265
58.5249
58.5233
58.5218
58.5202
58.5187
58.5171
58.5156
58.514
58.5124
58.5109
58.5093
58.5078
58.5062
58.5047
58.5031
58.5016
58.5
58.4984
58.4969
58.4953
58.4938
58.4922
58.4907
58.4891
58.4876
58.486
58.4844
58.4829
58.4813
58.4798
58.4782
58.4767
58.4751
58.4736
58.472
58.4704
58.4689
58.4673
58.4658
58.4642
58.4627
58.4611
58.4596
58.458
58.4565
58.4549
58.4534
58.4518
58.4502
58.4487
58.4471
58.4456
58.444
58.4425
58.4409
58.4394
58.4378
58.4363
58.4347
58.4332
58.4316
58.4301
58.4285
58.4269
58.4254
58.4238
58.4223
58.4207
58.4192
58.4176
58.4161
58.4145
58.413
58.4114
58.4099
58.4083
58.4068
58.4052
58.4037
58.4021
58.4006
58.399
58.3975
58.3959
58.3944
58.3928
58.3912
58.3897
58.3881
58.3866
58.385
58.3835
58.3819
58.3804
58.3788
58.3773
58.3757
58.3742
58.3726
58.3711
58.3695
58.368
58.3664
58.3649
58.3633
58.3618
58.3602
58.3587
58.3571
58.3556
58.354
58.3525
58.3509
58.3494
58.3478
58.3463
58.3447
58.3432
58.3416
58.3401
58.3385
58.337
58.3354
58.3339
58.3323
58.3308
58.3292
58.3277
58.3261
58.3246
58.323
58.3215
58.3199
58.3184
58.3168
58.3153
58.3137
58.3122
58.3106
58.3091
58.3075
58.306
58.3044
58.3029
58.3013
58.2998
58.2983
58.2967
58.2952
58.2936
58.2921
58.2905
58.289
58.2874
58.2859
58.2843
58.2828
58.2812
58.2797
58.2781
58.2766
58.275
58.2735
58.2719
58.2704
58.2688
58.2673
58.2657
58.2642
58.2626
58.2611
58.2596
58.258
58.2565
58.2549
58.2534
58.2518
58.2503
58.2487
58.2472
58.2456
58.2441
58.2425
58.241
58.2394
58.2379
58.2363
58.2348
58.2333
58.2317
58.2302
58.2286
58.2286
60.9751
60.9751
60.0907
59.8575
59.7889
59.759
59.7414
59.729
59.7193
59.7111
59.7039
59.6974
59.6914
59.6858
59.6804
59.6752
59.6702
59.6654
59.6606
59.656
59.6514
59.6469
59.6425
59.6382
59.6339
59.6296
59.6255
59.6214
59.6173
59.6133
59.6093
59.6054
59.6015
59.5977
59.5939
59.5901
59.5864
59.5827
59.5791
59.5755
59.5719
59.5684
59.5649
59.5614
59.558
59.5546
59.5512
59.5479
59.5446
59.5413
59.5381
59.5348
59.5316
59.5285
59.5253
59.5222
59.5191
59.516
59.5129
59.5099
59.5069
59.5039
59.5009
59.498
59.495
59.4921
59.4892
59.4864
59.4835
59.4807
59.4778
59.475
59.4722
59.4695
59.4667
59.464
59.4612
59.4585
59.4558
59.4531
59.4505
59.4478
59.4452
59.4425
59.4399
59.4373
59.4347
59.4322
59.4296
59.427
59.4245
59.422
59.4194
59.4169
59.4144
59.4119
59.4095
59.407
59.4045
59.4021
59.3997
59.3972
59.3948
59.3924
59.39
59.3876
59.3852
59.3829
59.3805
59.3782
59.3758
59.3735
59.3712
59.3688
59.3665
59.3642
59.3619
59.3596
59.3574
59.3551
59.3528
59.3506
59.3483
59.3461
59.3438
59.3416
59.3394
59.3372