# vtk DataFile Version 2.0
FlowField
ASCII
DATASET STRUCTURED_GRID
DIMENSIONS 800 1 200
POINTS 160000 float
0 0 0
0.04 0 0
0.08 0 0
0.12 0 0
0.16 0 0
0.2 0 0
0.24 0 0
0.28 0 0
0.32 0 0
0.36 0 0
0.4 0 0
0.44 0 0
0.48 0 0
0.52 0 0
0.56 0 0
0.6 0 0
0.64 0 0
0.68 0 0
0.72 0 0
0.76 0 0
0.8 0 0
0.84 0 0
0.88 0 0
0.92 0 0
0.96 0 0
1 0 0
1.04 0 0
1.08 0 0
1.12 0 0
1.16 0 0
1.2 0 0
1.24 0 0
1.28 0 0
1.32 0 0
1.36 0 0
1.4 0 0
1.44 0 0
1.48 0 0
1.52 0 0
1.56 0 0
1.6 0 0
1.64 0 0
1.68 0 0
1.72 0 0
1.76 0 0
1.8 0 0
1.84 0 0
1.88 0 0
1.92 0 0
1.96 0 0
2 0 0
2.04 0 0
2.08 0 0
2.12 0 0
2.16 0 0
2.2 0 0
2.24 0 0
2.28 0 0
2.32 0 0
2.36 0 0
2.4 0 0
2.44 0 0
2.48 0 0
2.52 0 0
2.56 0 0
2.6 0 0
2.64 0 0
2.68 0 0
2.72 0 0
2.76 0 0
2.8 0 0
2.84 0 0
2.88 0 0
2.92 0 0
2.96 0 0
3 0 0
3.04 0 0
3.08 0 0
3.12 0 0
3.16 0 0
3.2 0 0
3.24 0 0
3.28 0 0
3.32 0 0
3.36 0 0
3.4 0 0
3.44 0 0
3.48 0 0
3.52 0 0
3.56 0 0
3.6 0 0
3.64 0 0
3.68 0 0
3.72 0 0
3.76 0 0
3.8 0 0
3.84 0 0
3.88 0 0
3.92 0 0
3.96 0 0
4 0 0
4.04 0 0
4.08 0 0
4.12 0 0
4.16 0 0
4.2 0 0
4.24 0 0
4.28 0 0
4.32 0 0
4.36 0 0
4.4 0 0
4.44 0 0
4.48 0 0
4.52 0 0
4.56 0 0
4.6 0 0
4.64 0 0
4.68 0 0
4.72 0 0
4.76 0 0
4.8 0 0
4.84 0 0
4.88 0 0
4.92 0 0
4.96 0 0
5 0 0
5.04 0 0
5.08 0 0
5.12 0 0
5.16 0 0
5.2 0 0
5.24 0 0
5.28 0 0
5.32 0 0
5.36 0 0
5.4 0 0
5.44 0 0
5.48 0 0
5.52 0 0
5.56 0 0
5.6 0 0
5.64 0 0
5.68 0 0
5.72 0 0
5.76 0 0
5.8 0 0
5.84 0 0
5.88 0 0
5.92 0 0
5.96 0 0
6 0 0
6.04 0 0
6.08 0 0
6.12 0 0
6.16 0 0
6.2 0 0
6.24 0 0
6.28 0 0
6.32 0 0
6.36 0 0
6.4 0 0
6.44 0 0
6.48 0 0
6.52 0 0
6.56 0 0
6.6 0 0
6.64 0 0
6.68 0 0
6.72 0 0
6.76 0 0
6.8 0 0
6.84 0 0
6.88 0 0
6.92 0 0
6.96 0 0
7 0 0
7.04 0 0
7.08 0 0
7.12 0 0
7.16 0 0
7.2 0 0
7.24 0 0
7.28 0 0
7.32 0 0
7.36 0 0
7.4 0 0
7.44 0 0
7.48 0 0
7.52 0 0
7.56 0 0
7.6 0 0
7.64 0 0
7.68 0 0
7.72 0 0
7.76 0 0
7.8 0 0
7.84 0 0
7.88 0 0
7.92 0 0
7.96 0 0
8 0 0
8.04 0 0
8.08 0 0
8.12 0 0
8.16 0 0
8.2 0 0
8.24 0 0
8.28 0 0
8.32 0 0
8.36 0 0
8.4 0 0
8.44 0 0
8.48 0 0
8.52 0 0
8.56 0 0
8.6 0 0
8.64 0 0
8.68 0 0
8.72 0 0
8.76 0 0
8.8 0 0
8.84 0 0
8.88 0 0
8.92 0 0
8.96 0 0
9 0 0
9.04 0 0
9.08 0 0
9.12 0 0
9.16 0 0
9.2 0 0
9.24 0 0
9.28 0 0
9.32 0 0
9.36 0 0
9.4 0 0
9.44 0 0
9.48 0 0
9.52 0 0
9.56 0 0
9.6 0 0
9.64 0 0
9.68 0 0
9.72 0 0
9.76 0 0
9.8 0 0
9.84 0 0
9.88 0 0
9.92 0 0
9.96 0 0
10 0 0
10.04 0 0
10.08 0 0
10.12 0 0
10.16 0 0
10.2 0 0
10.24 0 0
10.28 0 0
10.32 0 0
10.36 0 0
10.4 0 0
10.44 0 0
10.48 0 0
10.52 0 0
10.56 0 0
10.6 0 0
10.64 0 0
10.68 0 0
10.72 0 0
10.76 0 0
10.8 0 0
10.84 0 0
10.88 0 0
10.92 0 0
10.96 0 0
11 0 0
11.04 0 0
11.08 0 0
11.12 0 0
11.16 0 0
11.2 0 0
11.24 0 0
11.28 0 0
11.32 0 0
11.36 0 0
11.4 0 0
11.44 0 0
11.48 0 0
11.52 0 0
11.56 0 0
11.6 0 0
11.64 0 0
11.68 0 0
11.72 0 0
11.76 0 0
11.8 0 0
11.84 0 0
11.88 0 0
11.92 0 0
11.96 0 0
12 0 0
12.04 0 0
12.08 0 0
12.12 0 0
12.16 0 0
12.2 0 0
12.24 0 0
12.28 0 0
12.32 0 0
12.36 0 0
12.4 0 0
12.44 0 0
12.48 0 0
12.52 0 0
12.56 0 0
12.6 0 0
12.64 0 0
12.68 0 0
12.72 0 0
12.76 0 0
12.8 0 0
12.84 0 0
12.88 0 0
12.92 0 0
12.96 0 0
13 0 0
13.04 0 0
13.08 0 0
13.12 0 0
13.16 0 0
13.2 0 0
13.24 0 0
13.28 0 0
13.32 0 0
13.36 0 0
13.4 0 0
13.44 0 0
13.48 0 0
13.52 0 0
13.56 0 0
13.6 0 0
13.64 0 0
13.68 0 0
13.72 0 0
13.76 0 0
13.8 0 0
13.84 0 0
13.88 0 0
13.92 0 0
13.96 0 0
14 0 0
14.04 0 0
14.08 0 0
14.12 0 0
14.16 0 0
14.2 0 0
14.24 0 0
14.28 0 0
14.32 0 0
14.36 0 0
14.4 0 0
14.44 0 0
14.48 0 0
14.52 0 0
14.56 0 0
14.6 0 0
14.64 0 0
14.68 0 0
14.72 0 0
14.76 0 0
14.8 0 0
14.84 0 0
14.88 0 0
14.92 0 0
14.96 0 0
15 0 0
15.04 0 0
15.08 0 0
15.12 0 0
15.16 0 0
15.2 0 0
15.24 0 0
15.28 0 0
15.32 0 0
15.36 0 0
15.4 0 0
15.44 0 0
15.48 0 0
15.52 0 0
15.56 0 0
15.6 0 0
15.64 0 0
15.68 0 0
15.72 0 0
15.76 0 0
15.8 0 0
15.84 0 0
15.88 0 0
15.92 0 0
15.96 0 0
16 0 0
16.04 0 0
16.08 0 0
16.12 0 0
16.16 0 0
16.2 0 0
16.24 0 0
16.28 0 0
16.32 0 0
16.36 0 0
16.4 0 0
16.44 0 0
16.48 0 0
16.52 0 0
16.56 0 0
16.6 0 0
16.64 0 0
16.68 0 0
16.72 0 0
16.76 0 0
16.8 0 0
16.84 0 0
16.88 0 0
16.92 0 0
16.96 0 0
17 0 0
17.04 0 0
17.08 0 0
17.12 0 0
17.16 0 0
17.2 0 0
17.24 0 0
17.28 0 0
17.32 0 0
17.36 0 0
17.4 0 0
17.44 0 0
17.48 0 0
17.52 0 0
17.56 0 0
17.6 0 0
17.64 0 0
17.68 0 0
17.72 0 0
17.76 0 0
17.8 0 0
17.84 0 0
17.88 0 0
17.92 0 0
17.96 0 0
18 0 0
18.04 0 0
18.08 0 0
18.12 0 0
18.16 0 0
18.2 0 0
18.24 0 0
18.28 0 0
18.32 0 0
18.36 0 0
18.4 0 0
18.44 0 0
18.48 0 0
18.52 0 0
18.56 0 0
18.6 0 0
18.64 0 0
18.68 0 0
18.72 0 0
18.76 0 0
18.8 0 0
18.84 0 0
18.88 0 0
18.92 0 0
18.96 0 0
19 0 0
19.04 0 0
19.08 0 0
19.12 0 0
19.16 0 0
19.2 0 0
19.24 0 0
19.28 0 0
19.32 0 0
19.36 0 0
19.4 0 0
19.44 0 0
19.48 0 0
19.52 0 0
19.56 0 0
19.6 0 0
19.64 0 0
19.68 0 0
19.72 0 0
19.76 0 0
19.8 0 0
19.84 0 0
19.88 0 0
19.92 0 0
19.96 0 0
20 0 0
20.04 0 0
20.08 0 0
20.12 0 0
20.16 0 0
20.2 0 0
20.24 0 0
20.28 0 0
20.32 0 0
20.36 0 0
20.4 0 0
20.44 0 0
20.48 0 0
20.52 0 0
20.56 0 0
20.6 0 0
20.64 0 0
20.68 0 0
20.72 0 0
20.76 0 0
20.8 0 0
20.84 0 0
20.88 0 0
20.92 0 0
20.96 0 0
21 0 0
21.04 0 0
21.08 0 0
21.12 0 0
21.16 0 0
21.2 0 0
21.24 0 0
21.28 0 0
21.32 0 0
21.36 0 0
21.4 0 0
21.44 0 0
21.48 0 0
21.52 0 0
21.56 0 0
21.6 0 0
21.64 0 0
21.68 0 0
21.72 0 0
21.76 0 0
21.8 0 0
21.84 0 0
21.88 0 0
21.92 0 0
21.96 0 0
22 0 0
22.04 0 0
22.08 0 0
22.12 0 0
22.16 0 0
22.2 0 0
22.24 0 0
22.28 0 0
22.32 0 0
22.36 0 0
22.4 0 0
22.44 0 0
22.48 0 0
22.52 0 0
22.56 0 0
22.6 0 0
22.64 0 0
22.68 0 0
22.72 0 0
22.76 0 0
22.8 0 0
22.84 0 0
22.88 0 0
22.92 0 0
22.96 0 0
23 0 0
23.04 0 0
23.08 0 0
23.12 0 0
23.16 0 0
23.2 0 0
23.24 0 0
23.28 0 0
23.32 0 0
23.36 0 0
23.4 0 0
23.44 0 0
23.48 0 0
23.52 0 0
23.56 0 0
23.6 0 0
23.64 0 0
23.68 0 0
23.72 0 0
23.76 0 0
23.8 0 0
23.84 0 0
23.88 0 0
23.92 0 0
23.96 0 0
24 0 0
24.04 0 0
24.08 0 0
24.12 0 0
24.16 0 0
24.2 0 0
24.24 0 0
24.28 0 0
24.32 0 0
24.36 0 0
24.4 0 0
24.44 0 0
24.48 0 0
24.52 0 0
24.56 0 0
24.6 0 0
24.64 0 0
24.68 0 0
24.72 0 0
24.76 0 0
24.8 0 0
24.84 0 0
24.88 0 0
24.92 0 0
24.96 0 0
25 0 0
25.04 0 0
25.08 0 0
25.12 0 0
25.16 0 0
25.2 0 0
25.24 0 0
25.28 0 0
25.32 0 0
25.36 0 0
25.4 0 0
25.44 0 0
25.48 0 0
25.52 0 0
25.56 0 0
25.6 0 0
25.64 0 0
25.68 0 0
25.72 0 0
25.76 0 0
25.8 0 0
25.84 0 0
25.88 0 0
25.92 0 0
25.96 0 0
26 0 0
26.04 0 0
26.08 0 0
26.12 0 0
26.16 0 0
26.2 0 0
26.24 0 0
26.28 0 0
26.32 0 0
26.36 0 0
26.4 0 0
26.44 0 0
26.48 0 0
26.52 0 0
26.56 0 0
26.6 0 0
26.64 0 0
26.68 0 0
26.72 0 0
26.76 0 0
26.8 0 0
26.84 0 0
26.88 0 0
26.92 0 0
26.96 0 0
27 0 0
27.04 0 0
27.08 0 0
27.12 0 0
27.16 0 0
27.2 0 0
27.24 0 0
27.28 0 0
27.32 0 0
27.36 0 0
27.4 0 0
27.44 0 0
27.48 0 0
27.52 0 0
27.56 0 0
27.6 0 0
27.64 0 0
27.68 0 0
27.72 0 0
27.76 0 0
27.8 0 0
27.84 0 0
27.88 0 0
27.92 0 0
27.96 0 0
28 0 0
28.04 0 0
28.08 0 0
28.12 0 0
28.16 0 0
28.2 0 0
28.24 0 0
28.28 0 0
28.32 0 0
28.36 0 0
28.4 0 0
28.44 0 0
28.48 0 0
28.52 0 0
28.56 0 0
28.6 0 0
28.64 0 0
28.68 0 0
28.72 0 0
28.76 0 0
28.8 0 0
28.84 0 0
28.88 0 0
28.92 0 0
28.96 0 0
29 0 0
29.04 0 0
29.08 0 0
29.12 0 0
29.16 0 0
29.2 0 0
29.24 0 0
29.28 0 0
29.32 0 0
29.36 0 0
29.4 0 0
29.44 0 0
29.48 0 0
29.52 0 0
29.56 0 0
29.6 0 0
29.64 0 0
29.68 0 0
29.72 0 0
29.76 0 0
29.8 0 0
29.84 0 0
29.88 0 0
29.92 0 0
29.96 0 0
30 0 0
30.04 0 0
30.08 0 0
30.12 0 0
30.16 0 0
30.2 0 0
30.24 0 0
30.28 0 0
30.32 0 0
30.36 0 0
30.4 0 0
30.44 0 0
30.48 0 0
30.52 0 0
30.56 0 0
30.6 0 0
30.64 0 0
30.68 0 0
30.72 0 0
30.76 0 0
30.8 0 0
30.84 0 0
30.88 0 0
30.92 0 0
30.96 0 0
31 0 0
31.04 0 0
31.08 0 0
31.12 0 0
31.16 0 0
31.2 0 0
31.24 0 0
31.28 0 0
31.32 0 0
31.36 0 0
31.4 0 0
31.44 0 0
31.48 0 0
31.52 0 0
31.56 0 0
31.6 0 0
31.64 0 0
31.68 0 0
31.72 0 0
31.76 0 0
31.8 0 0
31.84 0 0
31.88 0 0
31.92 0 0
31.96 0 0
0 0.005 0
0.04 0.005 0
0.08 0.005 0
0.12 0.005 0
0.16 0.005 0
0.2 0.005 0
0.24 0.005 0
0.28 0.005 0
0.32 0.005 0
0.36 0.005 0
0.4 0.005 0
0.44 0.005 0
0.48 0.005 0
0.52 0.005 0
0.56 0.005 0
0.6 0.005 0
0.64 0.005 0
0.68 0.005 0
0.72 0.005 0
0.76 0.005 0
0.8 0.005 0
0.84 0.005 0
0.88 0.005 0
0.92 0.005 0
0.96 0.005 0
1 0.005 0
1.04 0.005 0
1.08 0.005 0
1.12 0.005 0
1.16 0.005 0
1.2 0.005 0
1.24 0.005 0
1.28 0.005 0
1.32 0.005 0
1.36 0.005 0
1.4 0.005 0
1.44 0.005 0
1.48 0.005 0
1.52 0.005 0
1.56 0.005 0
1.6 0.005 0
1.64 0.005 0
1.68 0.005 0
1.72 0.005 0
1.76 0.005 0
1.8 0.005 0
1.84 0.005 0
1.88 0.005 0
1.92 0.005 0
1.96 0.005 0
2 0.005 0
2.04 0.005 0
2.08 0.005 0
2.12 0.005 0
2.16 0.005 0
2.2 0.005 0
2.24 0.005 0
2.28 0.005 0
2.32 0.005 0
2.36 0.005 0
2.4 0.005 0
2.44 0.005 0
2.48 0.005 0
2.52 0.005 0
2.56 0.005 0
2.6 0.005 0
2.64 0.005 0
2.68 0.005 0
2.72 0.005 0
2.76 0.005 0
2.8 0.005 0
2.84 0.005 0
2.88 0.005 0
2.92 0.005 0
2.96 0.005 0
3 0.005 0
3.04 0.005 0
3.08 0.005 0
3.12 0.005 0
3.16 0.005 0
3.2 0.005 0
3.24 0.005 0
3.28 0.005 0
3.32 0.005 0
3.36 0.005 0
3.4 0.005 0
3.44 0.005 0
3.48 0.005 0
3.52 0.005 0
3.56 0.005 0
3.6 0.005 0
3.64 0.005 0
3.68 0.005 0
3.72 0.005 0
3.76 0.005 0
3.8 0.005 0
3.84 0.005 0
3.88 0.005 0
3.92 0.005 0
3.96 0.005 0
4 0.005 0
4.04 0.005 0
4.08 0.005 0
4.12 0.005 0
4.16 0.005 0
4.2 0.005 0
4.24 0.005 0
4.28 0.005 0
4.32 0.005 0
4.36 0.005 0
4.4 0.005 0
4.44 0.005 0
4.48 0.005 0
4.52 0.005 0
4.56 0.005 0
4.6 0.005 0
4.64 0.005 0
4.68 0.005 0
4.72 0.005 0
4.76 0.005 0
4.8 0.005 0
4.84 0.005 0
4.88 0.005 0
4.92 0.005 0
4.96 0.005 0
5 0.005 0
5.04 0.005 0
5.08 0.005 0
5.12 0.005 0
5.16 0.005 0
5.2 0.005 0
5.24 0.005 0
5.28 0.005 0
5.32 0.005 0
5.36 0.005 0
5.4 0.005 0
5.44 0.005 0
5.48 0.005 0
5.52 0.005 0
5.56 0.005 0
5.6 0.005 0
5.64 0.005 0
5.68 0.005 0
5.72 0.005 0
5.76 0.005 0
5.8 0.005 0
5.84 0.005 0
5.88 0.005 0
5.92 0.005 0
5.96 0.005 0
6 0.005 0
6.04 0.005 0
6.08 0.005 0
6.12 0.005 0
6.16 0.005 0
6.2 0.005 0
6.24 0.005 0
6.28 0.005 0
6.32 0.005 0
6.36 0.005 0
6.4 0.005 0
6.44 0.005 0
6.48 0.005 0
6.52 0.005 0
6.56 0.005 0
6.6 0.005 0
6.64 0.005 0
6.68 0.005 0
6.72 0.005 0
6.76 0.005 0
6.8 0.005 0
6.84 0.005 0
6.88 0.005 0
6.92 0.005 0
6.96 0.005 0
7 0.005 0
7.04 0.005 0
7.08 0.005 0
7.12 0.005 0
7.16 0.005 0
7.2 0.005 0
7.24 0.005 0
7.28 0.005 0
7.32 0.005 0
7.36 0.005 0
7.4 0.005 0
[...]
POINT_DATA 160000

SCALARS u float 1
LOOKUP_TABLE default
-1
-0.483358
-0.183963
-0.108845
-0.0810331
-0.0668337
-0.0581182
-0.0521527
-0.0477775
-0.0444146
-0.0417413
-0.0395615
-0.0377483
-0.0362153
-0.0349016
-0.0337625
-0.0327648
-0.0318831
-0.0310975
-0.0303924
-0.0297554
-0.0291765
-0.0286473
-0.0281612
-0.0277126
-0.0272969
-0.0269101
-0.0265489
-0.0262105
-0.0258926
-0.0255931
-0.0253101
-0.0250423
-0.0247882
-0.0245466
-0.0243166
-0.0240972
-0.0238876
-0.0236871
-0.023495
-0.0233108
-0.0231339
-0.0229639
-0.0228003
-0.0226427
-0.0224908
-0.0223443
-0.0222028
-0.0220661
-0.0219339
-0.021806
-0.0216822
-0.0215622
-0.0214459
-0.021333
-0.0212235
-0.0211172
-0.0210139
-0.0209135
-0.0208158
-0.0207208
-0.0206283
-0.0205383
-0.0204506
-0.0203651
-0.0202818
-0.0202005
-0.0201212
-0.0200438
-0.0199682
-0.0198944
-0.0198224
-0.0197519
-0.019683
-0.0196157
-0.0195498
-0.0194854
-0.0194223
-0.0193606
-0.0193002
-0.019241
-0.019183
-0.0191262
-0.0190705
-0.0190159
-0.0189623
-0.0189098
-0.0188583
-0.0188078
-0.0187582
-0.0187095
-0.0186617
-0.0186148
-0.0185687
-0.0185235
-0.018479
-0.0184353
-0.0183924
-0.0183502
-0.0183087
-0.0182679
-0.0182278
-0.0181883
-0.0181495
-0.0181113
-0.0180737
-0.0180368
-0.0180004
-0.0179646
-0.0179293
-0.0178946
-0.0178604
-0.0178267
-0.0177936
-0.0177609
-0.0177287
-0.017697
-0.0176657
-0.017635
-0.0176046
-0.0175747
-0.0175452
-0.0175161
-0.0174875
-0.0174592
-0.0174313
-0.0174038
-0.0173767
-0.01735
-0.0173236
-0.0172975
-0.0172718
-0.0172465
-0.0172215
-0.0171968
-0.0171724
-0.0171484
-0.0171247
-0.0171012
-0.0170781
-0.0170552
-0.0170327
-0.0170104
-0.0169884
-0.0169667
-0.0169453
-0.0169241
-0.0169031
-0.0168825
-0.0168621
-0.0168419
-0.0168219
-0.0168023
-0.0167828
-0.0167636
-0.0167446
-0.0167258
-0.0167072
-0.0166889
-0.0166708
-0.0166529
-0.0166352
-0.0166176
-0.0166003
-0.0165832
-0.0165663
-0.0165496
-0.0165331
-0.0165167
-0.0165006
-0.0164846
-0.0164688
-0.0164532
-0.0164377
-0.0164224
-0.0164073
-0.0163924
-0.0163776
-0.016363
-0.0163485
-0.0163342
-0.0163201
-0.0163061
-0.0162922
-0.0162785
-0.016265
-0.0162516
-0.0162383
-0.0162252
-0.0162122
-0.0161994
-0.0161867
-0.0161741
-0.0161617
-0.0161494
-0.0161372
-0.0161251
-0.0161132
-0.0161014
-0.0160897
-0.0160782
-0.0160668
-0.0160554
-0.0160442
-0.0160332
-0.0160222
-0.0160113
-0.0160006
-0.01599
-0.0159794
-0.015969
-0.0159587
-0.0159485
-0.0159384
-0.0159284
-0.0159185
-0.0159087
-0.015899
-0.0158894
-0.0158799
-0.0158705
-0.0158612
-0.015852
-0.0158428
-0.0158338
-0.0158249
-0.015816
-0.0158072
-0.0157986
-0.01579
-0.0157815
-0.015773
-0.0157647
-0.0157565
-0.0157483
-0.0157402
-0.0157322
-0.0157242
-0.0157164
-0.0157086
-0.0157009
-0.0156933
-0.0156857
-0.0156783
-0.0156709
-0.0156635
-0.0156563
-0.0156491
-0.015642
-0.0156349
-0.015628
-0.015621
-0.0156142
-0.0156074
-0.0156007
-0.0155941
-0.0155875
-0.015581
-0.0155745
-0.0155681
-0.0155618
-0.0155555
-0.0155493
-0.0155432
-0.0155371
-0.0155311
-0.0155251
-0.0155192
-0.0155133
-0.0155076
-0.0155018
-0.0154961
-0.0154905
-0.0154849
-0.0154794
-0.0154739
-0.0154685
-0.0154631
-0.0154578
-0.0154525
-0.0154473
-0.0154422
-0.015437
-0.015432
-0.015427
-0.015422
-0.0154171
-0.0154122
-0.0154073
-0.0154026
-0.0153978
-0.0153931
-0.0153885
-0.0153839
-0.0153793
-0.0153748
-0.0153703
-0.0153659
-0.0153615
-0.0153571
-0.0153528
-0.0153485
-0.0153443
-0.0153401
-0.015336
-0.0153318
-0.0153278
-0.0153237
-0.0153197
-0.0153158
-0.0153118
-0.0153079
-0.0153041
-0.0153003
-0.0152965
-0.0152927
-0.015289
-0.0152854
-0.0152817
-0.0152781
-0.0152745
-0.015271
-0.0152675
-0.015264
-0.0152606
-0.0152571
-0.0152538
-0.0152504
-0.0152471
-0.0152438
-0.0152405
-0.0152373
-0.0152341
-0.0152309
-0.0152278
-0.0152247
-0.0152216
-0.0152185
-0.0152155
-0.0152125
-0.0152095
-0.0152066
-0.0152037
-0.0152008
-0.0151979
-0.015195
-0.0151922
-0.0151894
-0.0151867
-0.0151839
-0.0151812
-0.0151785
-0.0151758
-0.0151732
-0.0151706
-0.015168
-0.0151654
-0.0151629
-0.0151603
-0.0151578
-0.0151553
-0.0151529
-0.0151504
-0.015148
-0.0151456
-0.0151432
-0.0151409
-0.0151385
-0.0151362
-0.0151339
-0.0151317
-0.0151294
-0.0151272
-0.015125
-0.0151228
-0.0151206
-0.0151184
-0.0151163
-0.0151142
-0.0151121
-0.01511
-0.0151079
-0.0151059
-0.0151038
-0.0151018
-0.0150998
-0.0150978
-0.0150959
-0.0150939
-0.015092
-0.0150901
-0.0150882
-0.0150863
-0.0150844
-0.0150826
-0.0150808
-0.0150789
-0.0150771
-0.0150754
-0.0150736
-0.0150718
-0.0150701
-0.0150684
-0.0150666
-0.0150649
-0.0150633
-0.0150616
-0.0150599
-0.0150583
-0.0150566
-0.015055
-0.0150534
-0.0150518
-0.0150503
-0.0150487
-0.0150471
-0.0150456
-0.0150441
-0.0150426
-0.0150411
-0.0150396
-0.0150381
-0.0150366
-0.0150352
-0.0150337
-0.0150323
-0.0150309
-0.0150295
-0.0150281
-0.0150267
-0.0150253
-0.015024
-0.0150226
-0.0150213
-0.01502
-0.0150187
-0.0150174
-0.0150161
-0.0150148
-0.0150135
-0.0150123
-0.015011
-0.0150098
-0.0150085
-0.0150073
-0.0150061
-0.0150049
-0.0150037
-0.0150026
-0.0150014
-0.0150003
-0.0149991
-0.014998
-0.0149969
-0.0149957
-0.0149946
-0.0149936
-0.0149925
-0.0149914
-0.0149903
-0.0149893
-0.0149882
-0.0149872
-0.0149862
-0.0149852
-0.0149842
-0.0149832
-0.0149822
-0.0149812
-0.0149803
-0.0149793
-0.0149784
-0.0149774
-0.0149765
-0.0149756
-0.0149747
-0.0149738
-0.0149729
-0.014972
-0.0149712
-0.0149703
-0.0149695
-0.0149686
-0.0149678
-0.014967
-0.0149662
-0.0149654
-0.0149646
-0.0149638
-0.014963
-0.0149622
-0.0149615
-0.0149607
-0.01496
-0.0149593
-0.0149585
-0.0149578
-0.0149571
-0.0149564
-0.0149557
-0.014955
-0.0149544
-0.0149537
-0.014953
-0.0149524
-0.0149517
-0.0149511
-0.0149505
-0.0149499
-0.0149492
-0.0149486
-0.014948
-0.0149474
-0.0149469
-0.0149463
-0.0149457
-0.0149451
-0.0149446
-0.014944
-0.0149435
-0.014943
-0.0149424
-0.0149419
-0.0149414
-0.0149409
-0.0149404
-0.0149399
-0.0149394
-0.0149389
-0.0149384
-0.0149379
-0.0149374
-0.014937
-0.0149365
-0.014936
-0.0149356
-0.0149351
-0.0149347
-0.0149342
-0.0149338
-0.0149334
-0.0149329
-0.0149325
-0.0149321
-0.0149317
-0.0149313
-0.0149309
-0.0149305
-0.0149301
-0.0149297
-0.0149293
-0.0149289
-0.0149285
-0.0149281
-0.0149277
-0.0149274
-0.014927
-0.0149266
-0.0149262
-0.0149259
-0.0149255
-0.0149252
-0.0149248
-0.0149244
-0.0149241
-0.0149237
-0.0149234
-0.014923
-0.0149227
-0.0149223
-0.014922
-0.0149217
-0.0149213
-0.014921
-0.0149206
-0.0149203
-0.01492
-0.0149196
-0.0149193
-0.014919
-0.0149186
-0.0149183
-0.014918
-0.0149177
-0.0149173
-0.014917
-0.0149167
-0.0149164
-0.0149161
-0.0149157
-0.0149154
-0.0149151
-0.0149148
-0.0149145
-0.0149141
-0.0149138
-0.0149135
-0.0149132
-0.0149129
-0.0149126
-0.0149122
-0.0149119
-0.0149116
-0.0149113
-0.014911
-0.0149107
-0.0149104
-0.0149101
-0.0149097
-0.0149094
-0.0149091
-0.0149088
-0.0149085
-0.0149082
-0.0149079
-0.0149076
-0.0149073
-0.0149069
-0.0149066
-0.0149063
-0.014906
-0.0149057
-0.0149054
-0.0149051
-0.0149048
-0.0149045
-0.0149042
-0.0149038
-0.0149035
-0.0149032
-0.0149029
-0.0149026
-0.0149023
-0.014902
-0.0149017
-0.0149014
-0.0149011
-0.0149008
-0.0149004
-0.0149001
-0.0148998
-0.0148995
-0.0148992
-0.0148989
-0.0148986
-0.0148983
-0.014898
-0.0148977
-0.0148973
-0.014897
-0.0148967
-0.0148964
-0.0148961
-0.0148958
-0.0148955
-0.0148952
-0.0148949
-0.0148946
-0.0148943
-0.0148939
-0.0148936
-0.0148933
-0.014893
-0.0148927
-0.0148924
-0.0148921
-0.0148918
-0.0148915
-0.0148912
-0.0148909
-0.0148905
-0.0148902
-0.0148899
-0.0148896
-0.0148893
-0.014889
-0.0148887
-0.0148884
-0.0148881
-0.0148878
-0.0148875
-0.0148871
-0.0148868
-0.0148865
-0.0148862
-0.0148859
-0.0148856
-0.0148853
-0.014885
-0.0148847
-0.0148844
-0.014884
-0.0148837
-0.0148834
-0.0148831
-0.0148828
-0.0148825
-0.0148822
-0.0148819
-0.0148816
-0.0148813
-0.014881
-0.0148806
-0.0148803
-0.01488
-0.0148797
-0.0148794
-0.0148791
-0.0148788
-0.0148785
-0.0148782
-0.0148779
-0.0148776
-0.0148772
-0.0148769
-0.0148766
-0.0148763
-0.014876
-0.0148757
-0.0148754
-0.0148751
-0.0148748
-0.0148745
-0.0148742
-0.0148738
-0.0148735
-0.0148732
-0.0148729
-0.0148726
-0.0148723
-0.014872
-0.0148717
-0.0148714
-0.0148711
-0.0148707
-0.0148704
-0.0148701
-0.0148698
-0.0148695
-0.0148692
-0.0148689
-0.0148686
-0.0148683
-0.014868
-0.0148677
-0.0148673
-0.014867
-0.0148667
-0.0148664
-0.0148661
-0.0148658
-0.0148655
-0.0148652
-0.0148649
-0.0148646
-0.0148643
-0.0148639
-0.0148636
-0.0148633
-0.014863
-0.0148627
-0.0148624
-0.0148621
-0.0148618
-0.0148615
-0.0148612
-0.0148609
-0.0148605
-0.0148602
-0.0148599
-0.0148596
-0.0148593
-0.014859
-0.0148587
-0.0148584
-0.0148581
-0.0148577
-0.0148574
-0.0148571
-0.0148568
-0.0148565
-0.0148562
-0.0148558
-0.0148555
-0.0148552
-0.0148548
-0.0148545
-0.0148541
-0.0148537
-0.0148533
-0.0148529
-0.0148525
-0.014852
-0.0148514
-0.0148508
-0.0148501
-0.0148491
-0.0148487
-0.0148487
-0.0148487
1
0.483358
0.183963
0.108845
0.0810331
0.0668337
0.0581182
0.0521527
0.0477775
0.0444146
0.0417413
0.0395615
0.0377483
0.0362153
0.0349016
0.0337625
0.0327648
0.0318831
0.0310975
0.0303924
0.0297554
0.0291765
0.0286473
0.0281612
0.0277126
0.0272969
0.0269101
0.0265489
0.0262105
0.0258926
0.0255931
0.0253101
0.0250423
0.0247882
0.0245466
0.0243166
0.0240972
0.0238876
0.0236871
0.023495
0.0233108
0.0231339
0.0229639
0.0228003
0.0226427
0.0224908
0.0223443
0.0222028
0.0220661
0.0219339
0.021806
0.0216822
0.0215622
0.0214459
0.021333
0.0212235
0.0211172
0.0210139
0.0209135
0.0208158
0.0207208
0.0206283
0.0205383
0.0204506
0.0203651
0.0202818
0.0202005
0.0201212
0.0200438
0.0199682
0.0198944
0.0198224
0.0197519
0.019683
0.0196157
0.0195498
0.0194854
0.0194223
0.0193606
0.0193002
0.019241
0.019183
0.0191262
0.0190705
0.0190159
0.0189623
0.0189098
0.0188583
0.0188078
0.0187582
0.0187095
0.0186617
0.0186148
0.0185687
0.0185235
0.018479
0.0184353
0.0183924
0.0183502
0.0183087
0.0182679
0.0182278
0.0181883
0.0181495
0.0181113
0.0180737
0.0180368
0.0180004
0.0179646
0.0179293
0.0178946
0.0178604
0.0178267
0.0177936
0.0177609
0.0177287
0.017697
0.0176657
0.017635
0.0176046
0.0175747
0.0175452
0.0175161
0.0174875
0.0174592
0.0174313
0.0174038
0.0173767
0.01735
0.0173236
0.0172975
0.0172718
0.0172465
0.0172215
0.0171968
0.0171724
0.0171484
0.0171247
0.0171012
0.0170781
0.0170552
0.0170327
0.0170104
0.0169884
0.0169667
0.0169453
0.0169241
0.0169031
0.0168825
0.0168621
0.0168419
0.0168219
0.0168023
0.0167828
0.0167636
0.0167446
0.0167258
0.0167072
0.0166889
0.0166708
0.0166529
0.0166352
0.0166176
0.0166003
0.0165832
0.0165663
0.0165496
0.0165331
0.0165167
0.0165006
0.0164846
0.0164688
0.0164532
0.0164377
0.0164224
0.0164073
0.0163924
0.0163776
0.016363
0.0163485
0.0163342
0.0163201
0.0163061
0.0162922
0.0162785
0.016265
0.0162516
0.0162383
0.0162252
0.0162122
0.0161994
0.0161867
0.0161741
0.0161617
0.0161494
0.0161372
0.0161251
0.0161132
0.0161014
0.0160897
0.0160782
0.0160668
0.0160554
0.0160442
0.0160332
0.0160222
0.0160113
0.0160006
0.01599
0.0159794
0.015969
0.0159587
0.0159485
0.0159384
0.0159284
0.0159185
0.0159087
0.015899
0.0158894
0.0158799
0.0158705
0.0158612
0.015852
0.0158428
0.0158338
0.0158249
0.015816
0.0158072
0.0157986
0.01579
0.0157815
0.015773
0.0157647
0.0157565
0.0157483
0.0157402
0.0157322
0.0157242
0.0157164
0.0157086
0.0157009
0.0156933
0.0156857
0.0156783
0.0156709
0.0156635
0.0156563
0.0156491
0.015642
0.0156349
0.015628
0.015621
0.0156142
0.0156074
0.0156007
0.0155941
0.0155875
0.015581
0.0155745
0.0155681
0.0155618
0.0155555
0.0155493
0.0155432
0.0155371
0.0155311
0.0155251
0.0155192
0.0155133
0.0155076
0.0155018
0.0154961
0.0154905
0.0154849
0.0154794
0.0154739
0.0154685
0.0154631
0.0154578
0.0154525
0.0154473
0.0154422
0.015437
0.015432
0.015427
0.015422
0.0154171
0.0154122
0.0154073
0.0154026
0.0153978
0.0153931
0.0153885
0.0153839
0.0153793
0.0153748
0.0153703
0.0153659
0.0153615
0.0153571
0.0153528
0.0153485
0.0153443
0.0153401
0.015336
0.0153318
0.0153278
0.0153237
0.0153197
0.0153158
0.0153118
0.0153079
0.0153041
0.0153003
0.0152965
0.0152927
0.015289
0.0152854
0.0152817
0.0152781
0.0152745
0.015271
0.0152675
0.015264
0.0152606
0.0152571
0.0152538
0.0152504
0.0152471
0.0152438
0.0152405
0.0152373
0.0152341
0.0152309
0.0152278
0.0152247
0.0152216
0.0152185
0.0152155
0.0152125
0.0152095
0.0152066
0.0152037
0.0152008
0.0151979
0.015195
0.0151922
0.0151894
0.0151867
0.0151839
0.0151812
0.0151785
0.0151758
0.0151732
0.0151706
0.015168
0.0151654
0.0151629
0.0151603
0.0151578
0.0151553
0.0151529
0.0151504
0.015148
0.0151456
0.0151432
0.0151409
0.0151385
0.0151362
0.0151339
0.0151317
0.0151294
0.0151272
0.015125
0.0151228
0.0151206
0.0151184
0.0151163
0.0151142
0.0151121
0.01511
0.0151079
0.0151059
0.0151038
0.0151018
0.0150998
0.0150978
0.0150959
0.0150939
0.015092
0.0150901
0.0150882
0.0150863
0.0150844
0.0150826
0.0150808
0.0150789
0.0150771
0.0150754
0.0150736
0.0150718
0.0150701
0.0150684
0.0150666
0.0150649
0.0150633
0.0150616
0.0150599
0.0150583
0.0150566
0.015055
0.0150534
0.0150518
0.0150503
0.0150487
0.0150471
0.0150456
0.0150441
0.0150426
0.0150411
0.0150396
0.0150381
0.0150366
0.0150352
0.0150337
0.0150323
0.0150309
0.0150295
0.0150281
0.0150267
0.0150253
0.015024
0.0150226
0.0150213
0.01502
0.0150187
0.0150174
0.0150161
0.0150148
0.0150135
0.0150123
0.015011
0.0150098
0.0150085
0.0150073
0.0150061
0.0150049
0.0150037
0.0150026
0.0150014
0.0150003
0.0149991
0.014998
0.0149969
0.0149957
0.0149946
0.0149936
0.0149925
0.0149914
0.0149903
0.0149893
0.0149882
0.0149872
0.0149862
0.0149852
0.0149842
0.0149832
0.0149822
0.0149812
0.0149803
0.0149793
0.0149784
0.0149774
0.0149765
0.0149756
0.0149747
0.0149738
0.0149729
0.014972
0.0149712
0.0149703
0.0149695
0.0149686
0.0149678
0.014967
0.0149662
0.0149654
0.0149646
0.0149638
0.014963
0.0149622
0.0149615
0.0149607
0.01496
0.0149593
0.0149585
0.0149578
0.0149571
0.0149564
0.0149557
0.014955
0.0149544
0.0149537
0.014953
0.0149524
0.0149517
0.0149511
0.0149505
0.0149499
0.0149492
0.0149486
0.014948
0.0149474
0.0149469
0.0149463
0.0149457
0.0149451
0.0149446
0.014944
0.0149435
0.014943
0.0149424
0.0149419
0.0149414
0.0149409
0.0149404
0.0149399
0.0149394
0.0149389
0.0149384
0.0149379
0.0149374
0.014937
0.0149365
0.014936
0.0149356
0.0149351
0.0149347
0.0149342
0.0149338
0.0149334
0.0149329
0.0149325
0.0149321
0.0149317
0.0149313
0.0149309
0.0149305
0.0149301
0.0149297
0.0149293
0.0149289
0.0149285
0.0149281
0.0149277
0.0149274
0.014927
0.0149266
0.0149262
0.0149259
0.0149255
0.0149252
0.0149248
0.0149244
0.0149241
0.0149237
0.0149234
0.014923
0.0149227
0.0149223
0.014922
0.0149217
0.0149213
0.014921
0.0149206
0.0149203
0.01492
0.0149196
0.0149193
0.014919
0.0149186
0.0149183
0.014918
0.0149177
0.0149173
0.014917
0.0149167
0.0149164
0.0149161
0.0149157
0.0149154
0.0149151
0.0149148
0.0149145
0.0149141
0.0149138
0.0149135
0.0149132
0.0149129
0.0149126
0.0149122
0.0149119
0.0149116
0.0149113
0.014911
0.0149107
0.0149104
0.0149101
0.0149097
0.0149094
0.0149091
0.0149088
0.0149085
0.0149082
0.0149079
0.0149076
0.0149073
0.0149069
0.0149066
0.0149063
0.014906
0.0149057
0.0149054
0.0149051
0.0149048
0.0149045
0.0149042
0.0149038
0.0149035
0.0149032
0.0149029
0.0149026
0.0149023
0.014902
0.0149017
0.0149014
0.0149011
0.0149008
0.0149004
0.0149001
0.0148998
0.0148995
0.0148992
0.0148989
0.0148986
0.0148983
0.014898
0.0148977
0.0148973
0.014897
0.0148967
0.0148964
0.0148961
0.0148958
0.0148955
0.0148952
0.0148949
0.0148946
0.0148943
0.0148939
0.0148936
0.0148933
0.014893
0.0148927
0.0148924
0.0148921
0.0148918
0.0148915
0.0148912
0.0148909
0.0148905
0.0148902
0.0148899
0.0148896
0.0148893
0.014889
0.0148887
0.0148884
0.0148881
0.0148878
0.0148875
0.0148871
0.0148868
0.0148865
0.0148862
0.0148859
0.0148856
0.0148853
0.014885
0.0148847
0.0148844
0.014884
0.0148837
0.0148834
0.0148831
0.0148828
0.0148825
0.0148822
0.0148819
0.0148816
0.0148813
0.014881
0.0148806
0.0148803
0.01488
0.0148797
0.0148794
0.0148791
0.0148788
0.0148785
0.0148782
0.0148779
0.0148776
0.0148772
0.0148769
0.0148766
0.0148763
0.014876
0.0148757
0.0148754
0.0148751
0.0148748
0.0148745
0.0148742
0.0148738
0.0148735
0.0148732
0.0148729
0.0148726
0.0148723
0.014872
0.0148717
0.0148714
0.0148711
0.0148707
0.0148704
0.0148701
0.0148698
0.0148695
0.0148692
0.0148689
0.0148686
0.0148683
0.014868
0.0148677
0.0148673
0.014867
0.0148667
0.0148664
0.0148661
0.0148658
0.0148655
0.0148652
0.0148649
0.0148646
0.0148643
0.0148639
0.0148636
0.0148633
0.014863
0.0148627
0.0148624
0.0148621
0.0148618
0.0148615
0.0148612
0.0148609
0.0148605
0.0148602
0.0148599
0.0148596
0.0148593
0.014859
0.0148587
0.0148584
0.0148581
0.0148577
0.0148574
0.0148571
0.0148568
0.0148565
0.0148562
0.0148558
0.0148555
0.0148552
0.0148548
0.0148545
0.0148541
0.0148537
0.0148533
0.0148529
0.0148525
0.014852
0.0148514
0.0148508
0.0148501
0.0148491
0.0148487
0.0148487
0.0148487
1
0.969192
0.495616
0.314223
0.237897
0.197396
0.172133
0.154696
0.141842
0.131928
0.124028
0.117574
0.112197
0.107646
0.103742
0.100355
0.0973867
0.0947624
0.0924236
0.0903243
0.0884276
0.0867037
0.0851282
0.0836813
0.0823462
0.0811091
0.0799584
0.0788843
0.0778783
0.0769334
0.0760433
0.0752029
0.0744074
0.073653
0.072936
0.0722534
0.0716024
0.0709807
0.0703861
0.0698165
0.0692704
0.0687461
0.0682422
0.0677575
0.0672907
0.0668407
0.0664067
0.0659877
0.0655829
0.0651915
0.0648128
0.0644461
0.0640909
0.0637466
0.0634126
0.0630885
0.0627738
0.0624681
0.062171
0.0618821
0.061601
0.0613274
0.061061
0.0608015
0.0605486
0.0603021
0.0600617
0.0598272
0.0595983
0.0593748
0.0591566
0.0589434
0.0587351
0.0585315
0.0583324
0.0581376
0.0579471
0.0577606
0.0575781
0.0573994
0.0572244
0.057053
0.056885
0.0567204
0.056559
0.0564007
0.0562455
0.0560933
0.0559439
0.0557974
0.0556535
0.0555123
0.0553736
0.0552374
0.0551037
0.0549723
0.0548431
0.0547163
0.0545915
0.0544689
0.0543484
0.0542298
0.0541133
0.0539986
0.0538858
0.0537748
0.0536655
0.053558
0.0534522
0.053348
0.0532454
0.0531444
0.053045
0.052947
0.0528505
0.0527554
0.0526618
0.0525695
0.0524785
0.0523889
0.0523005
0.0522134
0.0521276
0.0520429
0.0519594
0.0518771
0.0517959
0.0517158
0.0516368
0.0515589
0.051482
0.0514062
0.0513313
0.0512575
0.0511846
0.0511127
0.0510416
0.0509716
0.0509024
0.0508341
0.0507666
0.0507
0.0506343
0.0505694
0.0505052
0.0504419
0.0503794
0.0503176
0.0502566
0.0501963
0.0501367
0.0500779
0.0500197
0.0499623
0.0499056
0.0498495
0.0497941
0.0497393
0.0496852
0.0496317
0.0495788
0.0495265
0.0494749
0.0494238
0.0493733
0.0493234
0.049274
0.0492253
0.049177
0.0491293
0.0490822
0.0490356
0.0489894
0.0489439
0.0488988
0.0488542
0.0488101
0.0487664
0.0487233
0.0486806
0.0486384
0.0485967
0.0485554
0.0485145
0.0484741
0.0484342
0.0483946
0.0483555
0.0483168
0.0482785
0.0482406
0.0482031
0.0481661
0.0481294
0.0480931
0.0480571
0.0480216
0.0479864
0.0479516
0.0479172
0.0478831
0.0478494
0.047816
0.0477829
0.0477502
0.0477179
0.0476859
0.0476542
0.0476228
0.0475918
0.047561
0.0475306
0.0475005
0.0474707
0.0474412
0.047412
0.0473831
0.0473545
0.0473262
0.0472982
0.0472704
0.047243
0.0472158
0.0471889
0.0471622
0.0471359
0.0471097
0.0470839
0.0470583
0.047033
0.0470079
0.046983
0.0469584
0.0469341
0.04691
0.0468861
0.0468625
0.0468391
0.0468159
0.046793
0.0467703
0.0467478
0.0467256
0.0467035
0.0466817
0.0466601
0.0466387
0.0466175
0.0465965
0.0465757
0.0465552
0.0465348
0.0465146
0.0464946
0.0464748
0.0464553
0.0464359
0.0464166
0.0463976
0.0463788
0.0463601
0.0463416
0.0463233
0.0463052
0.0462873
0.0462695
0.0462519
0.0462345
0.0462172
0.0462001
0.0461832
0.0461664
0.0461498
0.0461333
0.0461171
0.0461009
0.0460849
0.0460691
0.0460534
0.0460379
0.0460225
0.0460073
0.0459922
0.0459773
0.0459624
0.0459478
0.0459333
0.0459189
0.0459046
0.0458905
0.0458765
0.0458627
0.045849
0.0458354
0.0458219
0.0458086
0.0457954
0.0457823
0.0457693
0.0457565
0.0457438
0.0457312
0.0457187
0.0457064
0.0456941
0.045682
0.04567
0.0456581
0.0456463
0.0456346
0.045623
0.0456115
0.0456002
0.0455889
0.0455778
0.0455667
0.0455558
0.0455449
0.0455342
0.0455235
0.045513
0.0455025
0.0454922
0.0454819
0.0454718
0.0454617
0.0454517
0.0454418
0.045432
0.0454223
0.0454127
0.0454032
0.0453938
0.0453844
0.0453751
0.0453659
0.0453568
0.0453478
0.0453389