# vtk DataFile Version 2.0
FlowField
ASCII
DATASET STRUCTURED_GRID
DIMENSIONS 800 1 200
POINTS 160000 float
0 0 0
0.04 0 0
0.08 0 0
0.12 0 0
0.16 0 0
0.2 0 0
0.24 0 0
0.28 0 0
0.32 0 0
0.36 0 0
0.4 0 0
0.44 0 0
0.48 0 0
0.52 0 0
0.56 0 0
0.6 0 0
0.64 0 0
0.68 0 0
0.72 0 0
0.76 0 0
0.8 0 0
0.84 0 0
0.88 0 0
0.92 0 0
0.96 0 0
1 0 0
1.04 0 0
1.08 0 0
1.12 0 0
1.16 0 0
1.2 0 0
1.24 0 0
1.28 0 0
1.32 0 0
1.36 0 0
1.4 0 0
1.44 0 0
1.48 0 0
1.52 0 0
1.56 0 0
1.6 0 0
1.64 0 0
1.68 0 0
1.72 0 0
1.76 0 0
1.8 0 0
1.84 0 0
1.88 0 0
1.92 0 0
1.96 0 0
2 0 0
2.04 0 0
2.08 0 0
2.12 0 0
2.16 0 0
2.2 0 0
2.24 0 0
2.28 0 0
2.32 0 0
2.36 0 0
2.4 0 0
2.44 0 0
2.48 0 0
2.52 0 0
2.56 0 0
2.6 0 0
2.64 0 0
2.68 0 0
2.72 0 0
2.76 0 0
2.8 0 0
2.84 0 0
2.88 0 0
2.92 0 0
2.96 0 0
3 0 0
3.04 0 0
3.08 0 0
3.12 0 0
3.16 0 0
3.2 0 0
3.24 0 0
3.28 0 0
3.32 0 0
3.36 0 0
3.4 0 0
3.44 0 0
3.48 0 0
3.52 0 0
3.56 0 0
3.6 0 0
3.64 0 0
3.68 0 0
3.72 0 0
3.76 0 0
3.8 0 0
3.84 0 0
3.88 0 0
3.92 0 0
3.96 0 0
4 0 0
4.04 0 0
4.08 0 0
4.12 0 0
4.16 0 0
4.2 0 0
4.24 0 0
4.28 0 0
4.32 0 0
4.36 0 0
4.4 0 0
4.44 0 0
4.48 0 0
4.52 0 0
4.56 0 0
4.6 0 0
4.64 0 0
4.68 0 0
4.72 0 0
4.76 0 0
4.8 0 0
4.84 0 0
4.88 0 0
4.92 0 0
4.96 0 0
5 0 0
5.04 0 0
5.08 0 0
5.12 0 0
5.16 0 0
5.2 0 0
5.24 0 0
5.28 0 0
5.32 0 0
5.36 0 0
5.4 0 0
5.44 0 0
5.48 0 0
5.52 0 0
5.56 0 0
5.6 0 0
5.64 0 0
5.68 0 0
5.72 0 0
5.76 0 0
5.8 0 0
5.84 0 0
5.88 0 0
5.92 0 0
5.96 0 0
6 0 0
6.04 0 0
6.08 0 0
6.12 0 0
6.16 0 0
6.2 0 0
6.24 0 0
6.28 0 0
6.32 0 0
6.36 0 0
6.4 0 0
6.44 0 0
6.48 0 0
6.52 0 0
6.56 0 0
6.6 0 0
6.64 0 0
6.68 0 0
6.72 0 0
6.76 0 0
6.8 0 0
6.84 0 0
6.88 0 0
6.92 0 0
6.96 0 0
7 0 0
7.04 0 0
7.08 0 0
7.12 0 0
7.16 0 0
7.2 0 0
7.24 0 0
7.28 0 0
7.32 0 0
7.36 0 0
7.4 0 0
7.44 0 0
7.48 0 0
7.52 0 0
7.56 0 0
7.6 0 0
7.64 0 0
7.68 0 0
7.72 0 0
7.76 0 0
7.8 0 0
7.84 0 0
7.88 0 0
7.92 0 0
7.96 0 0
8 0 0
8.04 0 0
8.08 0 0
8.12 0 0
8.16 0 0
8.2 0 0
8.24 0 0
8.28 0 0
8.32 0 0
8.36 0 0
8.4 0 0
8.44 0 0
8.48 0 0
8.52 0 0
8.56 0 0
8.6 0 0
8.64 0 0
8.68 0 0
8.72 0 0
8.76 0 0
8.8 0 0
8.84 0 0
8.88 0 0
8.92 0 0
8.96 0 0
9 0 0
9.04 0 0
9.08 0 0
9.12 0 0
9.16 0 0
9.2 0 0
9.24 0 0
9.28 0 0
9.32 0 0
9.36 0 0
9.4 0 0
9.44 0 0
9.48 0 0
9.52 0 0
9.56 0 0
9.6 0 0
9.64 0 0
9.68 0 0
9.72 0 0
9.76 0 0
9.8 0 0
9.84 0 0
9.88 0 0
9.92 0 0
9.96 0 0
10 0 0
10.04 0 0
10.08 0 0
10.12 0 0
10.16 0 0
10.2 0 0
10.24 0 0
10.28 0 0
10.32 0 0
10.36 0 0
10.4 0 0
10.44 0 0
10.48 0 0
10.52 0 0
10.56 0 0
10.6 0 0
10.64 0 0
10.68 0 0
10.72 0 0
10.76 0 0
10.8 0 0
10.84 0 0
10.88 0 0
10.92 0 0
10.96 0 0
11 0 0
11.04 0 0
11.08 0 0
11.12 0 0
11.16 0 0
11.2 0 0
11.24 0 0
11.28 0 0
11.32 0 0
11.36 0 0
11.4 0 0
11.44 0 0
11.48 0 0
11.52 0 0
11.56 0 0
11.6 0 0
11.64 0 0
11.68 0 0
11.72 0 0
11.76 0 0
11.8 0 0
11.84 0 0
11.88 0 0
11.92 0 0
11.96 0 0
12 0 0
12.04 0 0
12.08 0 0
12.12 0 0
12.16 0 0
12.2 0 0
12.24 0 0
12.28 0 0
12.32 0 0
12.36 0 0
12.4 0 0
12.44 0 0
12.48 0 0
12.52 0 0
12.56 0 0
12.6 0 0
12.64 0 0
12.68 0 0
12.72 0 0
12.76 0 0
12.8 0 0
12.84 0 0
12.88 0 0
12.92 0 0
12.96 0 0
13 0 0
13.04 0 0
13.08 0 0
13.12 0 0
13.16 0 0
13.2 0 0
13.24 0 0
13.28 0 0
13.32 0 0
13.36 0 0
13.4 0 0
13.44 0 0
13.48 0 0
13.52 0 0
13.56 0 0
13.6 0 0
13.64 0 0
13.68 0 0
13.72 0 0
13.76 0 0
13.8 0 0
13.84 0 0
13.88 0 0
13.92 0 0
13.96 0 0
14 0 0
14.04 0 0
14.08 0 0
14.12 0 0
14.16 0 0
14.2 0 0
14.24 0 0
14.28 0 0
14.32 0 0
14.36 0 0
14.4 0 0
14.44 0 0
14.48 0 0
14.52 0 0
14.56 0 0
14.6 0 0
14.64 0 0
14.68 0 0
14.72 0 0
14.76 0 0
14.8 0 0
14.84 0 0
14.88 0 0
14.92 0 0
14.96 0 0
15 0 0
15.04 0 0
15.08 0 0
15.12 0 0
15.16 0 0
15.2 0 0
15.24 0 0
15.28 0 0
15.32 0 0
15.36 0 0
15.4 0 0
15.44 0 0
15.48 0 0
15.52 0 0
15.56 0 0
15.6 0 0
15.64 0 0
15.68 0 0
15.72 0 0
15.76 0 0
15.8 0 0
15.84 0 0
15.88 0 0
15.92 0 0
15.96 0 0
16 0 0
16.04 0 0
16.08 0 0
16.12 0 0
16.16 0 0
16.2 0 0
16.24 0 0
16.28 0 0
16.32 0 0
16.36 0 0
16.4 0 0
16.44 0 0
16.48 0 0
16.52 0 0
16.56 0 0
16.6 0 0
16.64 0 0
16.68 0 0
16.72 0 0
16.76 0 0
16.8 0 0
16.84 0 0
16.88 0 0
16.92 0 0
16.96 0 0
17 0 0
17.04 0 0
17.08 0 0
17.12 0 0
17.16 0 0
17.2 0 0
17.24 0 0
17.28 0 0
17.32 0 0
17.36 0 0
17.4 0 0
17.44 0 0
17.48 0 0
17.52 0 0
17.56 0 0
17.6 0 0
17.64 0 0
17.68 0 0
17.72 0 0
17.76 0 0
17.8 0 0
17.84 0 0
17.88 0 0
17.92 0 0
17.96 0 0
18 0 0
18.04 0 0
18.08 0 0
18.12 0 0
18.16 0 0
18.2 0 0
18.24 0 0
18.28 0 0
18.32 0 0
18.36 0 0
18.4 0 0
18.44 0 0
18.48 0 0
18.52 0 0
18.56 0 0
18.6 0 0
18.64 0 0
18.68 0 0
18.72 0 0
18.76 0 0
18.8 0 0
18.84 0 0
18.88 0 0
18.92 0 0
18.96 0 0
19 0 0
19.04 0 0
19.08 0 0
19.12 0 0
19.16 0 0
19.2 0 0
19.24 0 0
19.28 0 0
19.32 0 0
19.36 0 0
19.4 0 0
19.44 0 0
19.48 0 0
19.52 0 0
19.56 0 0
19.6 0 0
19.64 0 0
19.68 0 0
19.72 0 0
19.76 0 0
19.8 0 0
19.84 0 0
19.88 0 0
19.92 0 0
19.96 0 0
20 0 0
20.04 0 0
20.08 0 0
20.12 0 0
20.16 0 0
20.2 0 0
20.24 0 0
20.28 0 0
20.32 0 0
20.36 0 0
20.4 0 0
20.44 0 0
20.48 0 0
20.52 0 0
20.56 0 0
20.6 0 0
20.64 0 0
20.68 0 0
20.72 0 0
20.76 0 0
20.8 0 0
20.84 0 0
20.88 0 0
20.92 0 0
20.96 0 0
21 0 0
21.04 0 0
21.08 0 0
21.12 0 0
21.16 0 0
21.2 0 0
21.24 0 0
21.28 0 0
21.32 0 0
21.36 0 0
21.4 0 0
21.44 0 0
21.48 0 0
21.52 0 0
21.56 0 0
21.6 0 0
21.64 0 0
21.68 0 0
21.72 0 0
21.76 0 0
21.8 0 0
21.84 0 0
21.88 0 0
21.92 0 0
21.96 0 0
22 0 0
22.04 0 0
22.08 0 0
22.12 0 0
22.16 0 0
22.2 0 0
22.24 0 0
22.28 0 0
22.32 0 0
22.36 0 0
22.4 0 0
22.44 0 0
22.48 0 0
22.52 0 0
22.56 0 0
22.6 0 0
22.64 0 0
22.68 0 0
22.72 0 0
22.76 0 0
22.8 0 0
22.84 0 0
22.88 0 0
22.92 0 0
22.96 0 0
23 0 0
23.04 0 0
23.08 0 0
23.12 0 0
23.16 0 0
23.2 0 0
23.24 0 0
23.28 0 0
23.32 0 0
23.36 0 0
23.4 0 0
23.44 0 0
23.48 0 0
23.52 0 0
23.56 0 0
23.6 0 0
23.64 0 0
23.68 0 0
23.72 0 0
23.76 0 0
23.8 0 0
23.84 0 0
23.88 0 0
23.92 0 0
23.96 0 0
24 0 0
24.04 0 0
24.08 0 0
24.12 0 0
24.16 0 0
24.2 0 0
24.24 0 0
24.28 0 0
24.32 0 0
24.36 0 0
24.4 0 0
24.44 0 0
24.48 0 0
24.52 0 0
24.56 0 0
24.6 0 0
24.64 0 0
24.68 0 0
24.72 0 0
24.76 0 0
24.8 0 0
24.84 0 0
24.88 0 0
24.92 0 0
24.96 0 0
25 0 0
25.04 0 0
25.08 0 0
25.12 0 0
25.16 0 0
25.2 0 0
25.24 0 0
25.28 0 0
25.32 0 0
25.36 0 0
25.4 0 0
25.44 0 0
25.48 0 0
25.52 0 0
25.56 0 0
25.6 0 0
25.64 0 0
25.68 0 0
25.72 0 0
25.76 0 0
25.8 0 0
25.84 0 0
25.88 0 0
25.92 0 0
25.96 0 0
26 0 0
26.04 0 0
26.08 0 0
26.12 0 0
26.16 0 0
26.2 0 0
26.24 0 0
26.28 0 0
26.32 0 0
26.36 0 0
26.4 0 0
26.44 0 0
26.48 0 0
26.52 0 0
26.56 0 0
26.6 0 0
26.64 0 0
26.68 0 0
26.72 0 0
26.76 0 0
26.8 0 0
26.84 0 0
26.88 0 0
26.92 0 0
26.96 0 0
27 0 0
27.04 0 0
27.08 0 0
27.12 0 0
27.16 0 0
27.2 0 0
27.24 0 0
27.28 0 0
27.32 0 0
27.36 0 0
27.4 0 0
27.44 0 0
27.48 0 0
27.52 0 0
27.56 0 0
27.6 0 0
27.64 0 0
27.68 0 0
27.72 0 0
27.76 0 0
27.8 0 0
27.84 0 0
27.88 0 0
27.92 0 0
27.96 0 0
28 0 0
28.04 0 0
28.08 0 0
28.12 0 0
28.16 0 0
28.2 0 0
28.24 0 0
28.28 0 0
28.32 0 0
28.36 0 0
28.4 0 0
28.44 0 0
28.48 0 0
28.52 0 0
28.56 0 0
28.6 0 0
28.64 0 0
28.68 0 0
28.72 0 0
28.76 0 0
28.8 0 0
28.84 0 0
28.88 0 0
28.92 0 0
28.96 0 0
29 0 0
29.04 0 0
29.08 0 0
29.12 0 0
29.16 0 0
29.2 0 0
29.24 0 0
29.28 0 0
29.32 0 0
29.36 0 0
29.4 0 0
29.44 0 0
29.48 0 0
29.52 0 0
29.56 0 0
29.6 0 0
29.64 0 0
29.68 0 0
29.72 0 0
29.76 0 0
29.8 0 0
29.84 0 0
29.88 0 0
29.92 0 0
29.96 0 0
30 0 0
30.04 0 0
30.08 0 0
30.12 0 0
30.16 0 0
30.2 0 0
30.24 0 0
30.28 0 0
30.32 0 0
30.36 0 0
30.4 0 0
30.44 0 0
30.48 0 0
30.52 0 0
30.56 0 0
30.6 0 0
30.64 0 0
30.68 0 0
30.72 0 0
30.76 0 0
30.8 0 0
30.84 0 0
30.88 0 0
30.92 0 0
30.96 0 0
31 0 0
31.04 0 0
31.08 0 0
31.12 0 0
31.16 0 0
31.2 0 0
31.24 0 0
31.28 0 0
31.32 0 0
31.36 0 0
31.4 0 0
31.44 0 0
31.48 0 0
31.52 0 0
31.56 0 0
31.6 0 0
31.64 0 0
31.68 0 0
31.72 0 0
31.76 0 0
31.8 0 0
31.84 0 0
31.88 0 0
31.92 0 0
31.96 0 0
0 0.005 0
0.04 0.005 0
0.08 0.005 0
0.12 0.005 0
0.16 0.005 0
0.2 0.005 0
0.24 0.005 0
0.28 0.005 0
0.32 0.005 0
0.36 0.005 0
0.4 0.005 0
0.44 0.005 0
0.48 0.005 0
0.52 0.005 0
0.56 0.005 0
0.6 0.005 0
0.64 0.005 0
0.68 0.005 0
0.72 0.005 0
0.76 0.005 0
0.8 0.005 0
0.84 0.005 0
0.88 0.005 0
0.92 0.005 0
0.96 0.005 0
1 0.005 0
1.04 0.005 0
1.08 0.005 0
1.12 0.005 0
1.16 0.005 0
1.2 0.005 0
1.24 0.005 0
1.28 0.005 0
1.32 0.005 0
1.36 0.005 0
1.4 0.005 0
1.44 0.005 0
1.48 0.005 0
1.52 0.005 0
1.56 0.005 0
1.6 0.005 0
1.64 0.005 0
1.68 0.005 0
1.72 0.005 0
1.76 0.005 0
1.8 0.005 0
1.84 0.005 0
1.88 0.005 0
1.92 0.005 0
1.96 0.005 0
2 0.005 0
2.04 0.005 0
2.08 0.005 0
2.12 0.005 0
2.16 0.005 0
2.2 0.005 0
2.24 0.005 0
2.28 0.005 0
2.32 0.005 0
2.36 0.005 0
2.4 0.005 0
2.44 0.005 0
2.48 0.005 0
2.52 0.005 0
2.56 0.005 0
2.6 0.005 0
2.64 0.005 0
2.68 0.005 0
2.72 0.005 0
2.76 0.005 0
2.8 0.005 0
2.84 0.005 0
2.88 0.005 0
2.92 0.005 0
2.96 0.005 0
3 0.005 0
3.04 0.005 0
3.08 0.005 0
3.12 0.005 0
3.16 0.005 0
3.2 0.005 0
3.24 0.005 0
3.28 0.005 0
3.32 0.005 0
3.36 0.005 0
3.4 0.005 0
3.44 0.005 0
3.48 0.005 0
3.52 0.005 0
3.56 0.005 0
3.6 0.005 0
3.64 0.005 0
3.68 0.005 0
3.72 0.005 0
3.76 0.005 0
3.8 0.005 0
3.84 0.005 0
3.88 0.005 0
3.92 0.005 0
3.96 0.005 0
4 0.005 0
4.04 0.005 0
4.08 0.005 0
4.12 0.005 0
4.16 0.005 0
4.2 0.005 0
4.24 0.005 0
4.28 0.005 0
4.32 0.005 0
4.36 0.005 0
4.4 0.005 0
4.44 0.005 0
4.48 0.005 0
4.52 0.005 0
4.56 0.005 0
4.6 0.005 0
4.64 0.005 0
4.68 0.005 0
4.72 0.005 0
4.76 0.005 0
4.8 0.005 0
4.84 0.005 0
4.88 0.005 0
4.92 0.005 0
4.96 0.005 0
5 0.005 0
5.04 0.005 0
5.08 0.005 0
5.12 0.005 0
5.16 0.005 0
5.2 0.005 0
5.24 0.005 0
5.28 0.005 0
5.32 0.005 0
5.36 0.005 0
5.4 0.005 0
5.44 0.005 0
5.48 0.005 0
5.52 0.005 0
5.56 0.005 0
5.6 0.005 0
5.64 0.005 0
5.68 0.005 0
5.72 0.005 0
5.76 0.005 0
5.8 0.005 0
5.84 0.005 0
5.88 0.005 0
5.92 0.005 0
5.96 0.005 0
6 0.005 0
6.04 0.005 0
6.08 0.005 0
6.12 0.005 0
6.16 0.005 0
6.2 0.005 0
6.24 0.005 0
6.28 0.005 0
6.32 0.005 0
6.36 0.005 0
6.4 0.005 0
6.44 0.005 0
6.48 0.005 0
6.52 0.005 0
6.56 0.005 0
6.6 0.005 0
6.64 0.005 0
6.68 0.005 0
6.72 0.005 0
6.76 0.005 0
6.8 0.005 0
6.84 0.005 0
6.88 0.005 0
6.92 0.005 0
6.96 0.005 0
7 0.005 0
7.04 0.005 0
7.08 0.005 0
7.12 0.005 0
7.16 0.005 0
7.2 0.005 0
7.24 0.005 0
7.28 0.005 0
7.32 0.005 0
7.36 0.005 0
7.4 0.005 0
[...]
POINT_DATA 160000

SCALARS p float 1
LOOKUP_TABLE default
1
18.7163
16.5008
16.246
16.1858
16.1594
16.1434
16.1318
16.1226
16.1147
16.1078
16.1014
16.0956
16.09
16.0847
16.0796
16.0746
16.0698
16.0651
16.0605
16.056
16.0515
16.0471
16.0428
16.0385
16.0343
16.0302
16.0261
16.022
16.018
16.014
16.0101
16.0062
16.0024
15.9986
15.9949
15.9912
15.9875
15.9839
15.9803
15.9768
15.9732
15.9697
15.9663
15.9629
15.9595
15.9561
15.9528
15.9495
15.9462
15.943
15.9397
15.9366
15.9334
15.9302
15.9271
15.924
15.921
15.9179
15.9149
15.9119
15.9089
15.9059
15.903
15.9001
15.8971
15.8943
15.8914
15.8885
15.8857
15.8829
15.8801
15.8773
15.8745
15.8718
15.8691
15.8663
15.8636
15.861
15.8583
15.8556
15.853
15.8504
15.8477
15.8451
15.8426
15.84
15.8374
15.8349
15.8323
15.8298
15.8273
15.8248
15.8224
15.8199
15.8174
15.815
15.8126
15.8102
15.8078
15.8054
15.8031
15.8007
15.7984
15.7961
15.7938
15.7915
15.7892
15.7869
15.7847
15.7825
15.7802
15.778
15.7759
15.7737
15.7715
15.7694
15.7672
15.7651
15.763
15.7609
15.7588
15.7567
15.7546
15.7526
15.7505
15.7485
15.7464
15.7444
15.7424
15.7404
15.7384
15.7364
15.7344
15.7324
15.7304
15.7284
15.7265
15.7245
15.7225
15.7206
15.7186
15.7167
15.7148
15.7128
15.7109
15.709
15.7071
15.7052
15.7032
15.7013
15.6994
15.6975
15.6957
15.6938
15.6919
15.69
15.6881
15.6862
15.6844
15.6825
15.6807
15.6788
15.6769
15.6751
15.6733
15.6714
15.6696
15.6677
15.6659
15.6641
15.6622
15.6604
15.6586
15.6568
15.655
15.6531
15.6513
15.6495
15.6477
15.6458
15.644
15.6422
15.6404
15.6386
15.6367
15.6349
15.6331
15.6313
15.6295
15.6276
15.6258
15.624
15.6222
15.6204
15.6185
15.6167
15.6149
15.6131
15.6113
15.6094
15.6076
15.6058
15.604
15.6021
15.6003
15.5985
15.5967
15.5949
15.593
15.5912
15.5894
15.5876
15.5858
15.5839
15.5821
15.5803
15.5785
15.5767
15.5748
15.573
15.5712
15.5694
15.5676
15.5657
15.5639
15.5621
15.5603
15.5584
15.5566
15.5548
15.553
15.5512
15.5493
15.5475
15.5457
15.5439
15.5421
15.5402
15.5384
15.5366
15.5348
15.533
15.5311
15.5293
15.5275
15.5257
15.5238
15.522
15.5202
15.5184
15.5166
15.5147
15.5129
15.5111
15.5093
15.5075
15.5056
15.5038
15.502
15.5002
15.4984
15.4965
15.4947
15.4929
15.4911
15.4893
15.4874
15.4856
15.4838
15.482
15.4801
15.4783
15.4765
15.4747
15.4729
15.471
15.4692
15.4674
15.4656
15.4638
15.4619
15.4601
15.4583
15.4565
15.4547
15.4528
15.451
15.4492
15.4474
15.4455
15.4437
15.4419
15.4401
15.4383
15.4364
15.4346
15.4328
15.431
15.4292
15.4273
15.4255
15.4237
15.4219
15.42
15.4182
15.4164
15.4146
15.4128
15.4109
15.4091
15.4073
15.4055
15.4037
15.4018
15.4
15.3982
15.3964
15.3946
15.3927
15.3909
15.3891
15.3873
15.3854
15.3836
15.3818
15.38
15.3782
15.3763
15.3745
15.3727
15.3709
15.3691
15.3672
15.3654
15.3636
15.3618
15.3599
15.3581
15.3563
15.3545
15.3527
15.3508
15.349
15.3472
15.3454
15.3436
15.3417
15.3399
15.3381
15.3363
15.3344
15.3326
15.3308
15.329
15.3272
15.3253
15.3235
15.3217
15.3199
15.3181
15.3162
15.3144
15.3126
15.3108
15.3089
15.3071
15.3053
15.3035
15.3017
15.2998
15.298
15.2962
15.2944
15.2926
15.2907
15.2889
15.2871
15.2853
15.2834
15.2816
15.2798
15.278
15.2762
15.2743
15.2725
15.2707
15.2689
15.2671
15.2652
15.2634
15.2616
15.2598
15.2579
15.2561
15.2543
15.2525
15.2507
15.2488
15.247
15.2452
15.2434
15.2416
15.2397
15.2379
15.2361
15.2343
15.2324
15.2306
15.2288
15.227
15.2252
15.2233
15.2215
15.2197
15.2179
15.216
15.2142
15.2124
15.2106
15.2088
15.2069
15.2051
15.2033
15.2015
15.1996
15.1978
15.196
15.1942
15.1924
15.1905
15.1887
15.1869
15.1851
15.1833
15.1814
15.1796
15.1778
15.176
15.1741
15.1723
15.1705
15.1687
15.1669
15.165
15.1632
15.1614
15.1596
15.1577
15.1559
15.1541
15.1523
15.1505
15.1486
15.1468
15.145
15.1432
15.1413
15.1395
15.1377
15.1359
15.1341
15.1322
15.1304
15.1286
15.1268
15.1249
15.1231
15.1213
15.1195
15.1177
15.1158
15.114
15.1122
15.1104
15.1085
15.1067
15.1049
15.1031
15.1013
15.0994
15.0976
15.0958
15.094
15.0921
15.0903
15.0885
15.0867
15.0849
15.083
15.0812
15.0794
15.0776
15.0757
15.0739
15.0721
15.0703
15.0685
15.0666
15.0648
15.063
15.0612
15.0593
15.0575
15.0557
15.0539
15.0521
15.0502
15.0484
15.0466
15.0448
15.0429
15.0411
15.0393
15.0375
15.0356
15.0338
15.032
15.0302
15.0284
15.0265
15.0247
15.0229
15.0211
15.0192
15.0174
15.0156
15.0138
15.012
15.0101
15.0083
15.0065
15.0047
15.0028
15.001
14.9992
14.9974
14.9955
14.9937
14.9919
14.9901
14.9883
14.9864
14.9846
14.9828
14.981
14.9791
14.9773
14.9755
14.9737
14.9719
14.97
14.9682
14.9664
14.9646
14.9627
14.9609
14.9591
14.9573
14.9554
14.9536
14.9518
14.95
14.9482
14.9463
14.9445
14.9427
14.9409
14.939
14.9372
14.9354
14.9336
14.9317
14.9299
14.9281
14.9263
14.9244
14.9226
14.9208
14.919
14.9172
14.9153
14.9135
14.9117
14.9099
14.908
14.9062
14.9044
14.9026
14.9007
14.8989
14.8971
14.8953
14.8935
14.8916
14.8898
14.888
14.8862
14.8843
14.8825
14.8807
14.8789
14.877
14.8752
14.8734
14.8716
14.8697
14.8679
14.8661
14.8643
14.8624
14.8606
14.8588
14.857
14.8552
14.8533
14.8515
14.8497
14.8479
14.846
14.8442
14.8424
14.8406
14.8387
14.8369
14.8351
14.8333
14.8314
14.8296
14.8278
14.826
14.8241
14.8223
14.8205
14.8187
14.8169
14.815
14.8132
14.8114
14.8096
14.8077
14.8059
14.8041
14.8023
14.8004
14.7986
14.7968
14.795
14.7931
14.7913
14.7895
14.7877
14.7858
14.784
14.7822
14.7804
14.7785
14.7767
14.7749
14.7731
14.7712
14.7694
14.7676
14.7658
14.7639
14.7621
14.7603
14.7585
14.7566
14.7548
14.753
14.7512
14.7493
14.7475
14.7457
14.7439
14.742
14.7402
14.7384
14.7366
14.7347
14.7329
14.7311
14.7293
14.7274
14.7256
14.7238
14.722
14.7201
14.7183
14.7165
14.7147
14.7128
14.711
14.7092
14.7074
14.7055
14.7037
14.7019
14.7001
14.6982
14.6964
14.6946
14.6928
14.6909
14.6891
14.6873
14.6855
14.6836
14.6818
14.68
14.6782
14.6763
14.6745
14.6727
14.6709
14.669
14.6672
14.6654
14.6636
14.6617
14.6599
14.6581
14.6563
14.6544
14.6526
14.6508
14.649
14.6471
14.6453
14.6435
14.6416
14.6398
14.638
14.6362
14.6343
14.6325
14.6307
14.6289
14.627
14.6252
14.6234
14.6216
14.6197
14.6179
14.6161
14.6143
14.6124
14.6106
14.6088
14.6069
14.6051
14.6033
14.6015
14.5996
14.5978
14.596
14.5942
14.5923
14.5905
14.5887
14.5869
14.585
14.5832
14.5814
14.5796
14.5777
14.5759
14.5741
14.5722
14.5704
14.5686
14.5668
14.5649
14.5631
14.5613
14.5595
14.5576
14.5558
14.554
14.5522
14.5503
14.5485
14.5467
14.5448
14.543
14.5412
14.5394
14.5375
14.5357
14.5339
14.5321
14.5302
14.5284
14.5266
14.5248
14.5229
14.5211
14.5193
1
18.7163
18.7163
16.5008
16.246
16.1858
16.1594
16.1434
16.1318
16.1226
16.1147
16.1078
16.1014
16.0956
16.09
16.0847
16.0796
16.0746
16.0698
16.0651
16.0605
16.056
16.0515
16.0471
16.0428
16.0385
16.0343
16.0302
16.0261
16.022
16.018
16.014
16.0101
16.0062
16.0024
15.9986
15.9949
15.9912
15.9875
15.9839
15.9803
15.9768
15.9732
15.9697
15.9663
15.9629
15.9595
15.9561
15.9528
15.9495
15.9462
15.943
15.9397
15.9366
15.9334
15.9302
15.9271
15.924
15.921
15.9179
15.9149
15.9119
15.9089
15.9059
15.903
15.9001
15.8971
15.8943
15.8914
15.8885
15.8857
15.8829
15.8801
15.8773
15.8745
15.8718
15.8691
15.8663
15.8636
15.861
15.8583
15.8556
15.853
15.8504
15.8477
15.8451
15.8426
15.84
15.8374
15.8349
15.8323
15.8298
15.8273
15.8248
15.8224
15.8199
15.8174
15.815
15.8126
15.8102
15.8078
15.8054
15.8031
15.8007
15.7984
15.7961
15.7938
15.7915
15.7892
15.7869
15.7847
15.7825
15.7802
15.778
15.7759
15.7737
15.7715
15.7694
15.7672
15.7651
15.763
15.7609
15.7588
15.7567
15.7546
15.7526
15.7505
15.7485
15.7464
15.7444
15.7424
15.7404
15.7384
15.7364
15.7344
15.7324
15.7304
15.7284
15.7265
15.7245
15.7225
15.7206
15.7186
15.7167
15.7148
15.7128
15.7109
15.709
15.7071
15.7052
15.7032
15.7013
15.6994
15.6975
15.6957
15.6938
15.6919
15.69
15.6881
15.6862
15.6844
15.6825
15.6807
15.6788
15.6769
15.6751
15.6733
15.6714
15.6696
15.6677
15.6659
15.6641
15.6622
15.6604
15.6586
15.6568
15.655
15.6531
15.6513
15.6495
15.6477
15.6458
15.644
15.6422
15.6404
15.6386
15.6367
15.6349
15.6331
15.6313
15.6295
15.6276
15.6258
15.624
15.6222
15.6204
15.6185
15.6167
15.6149
15.6131
15.6113
15.6094
15.6076
15.6058
15.604
15.6021
15.6003
15.5985
15.5967
15.5949
15.593
15.5912
15.5894
15.5876
15.5858
15.5839
15.5821
15.5803
15.5785
15.5767
15.5748
15.573
15.5712
15.5694
15.5676
15.5657
15.5639
15.5621
15.5603
15.5584
15.5566
15.5548
15.553
15.5512
15.5493
15.5475
15.5457
15.5439
15.5421
15.5402
15.5384
15.5366
15.5348
15.533
15.5311
15.5293
15.5275
15.5257
15.5238
15.522
15.5202
15.5184
15.5166
15.5147
15.5129
15.5111
15.5093
15.5075
15.5056
15.5038
15.502
15.5002
15.4984
15.4965
15.4947
15.4929
15.4911
15.4893
15.4874
15.4856
15.4838
15.482
15.4801
15.4783
15.4765
15.4747
15.4729
15.471
15.4692
15.4674
15.4656
15.4638
15.4619
15.4601
15.4583
15.4565
15.4547
15.4528
15.451
15.4492
15.4474
15.4455
15.4437
15.4419
15.4401
15.4383
15.4364
15.4346
15.4328
15.431
15.4292
15.4273
15.4255
15.4237
15.4219
15.42
15.4182
15.4164
15.4146
15.4128
15.4109
15.4091
15.4073
15.4055
15.4037
15.4018
15.4
15.3982
15.3964
15.3946
15.3927
15.3909
15.3891
15.3873
15.3854
15.3836
15.3818
15.38
15.3782
15.3763
15.3745
15.3727
15.3709
15.3691
15.3672
15.3654
15.3636
15.3618
15.3599
15.3581
15.3563
15.3545
15.3527
15.3508
15.349
15.3472
15.3454
15.3436
15.3417
15.3399
15.3381
15.3363
15.3344
15.3326
15.3308
15.329
15.3272
15.3253
15.3235
15.3217
15.3199
15.3181
15.3162
15.3144
15.3126
15.3108
15.3089
15.3071
15.3053
15.3035
15.3017
15.2998
15.298
15.2962
15.2944
15.2926
15.2907
15.2889
15.2871
15.2853
15.2834
15.2816
15.2798
15.278
15.2762
15.2743
15.2725
15.2707
15.2689
15.2671
15.2652
15.2634
15.2616
15.2598
15.2579
15.2561
15.2543
15.2525
15.2507
15.2488
15.247
15.2452
15.2434
15.2416
15.2397
15.2379
15.2361
15.2343
15.2324
15.2306
15.2288
15.227
15.2252
15.2233
15.2215
15.2197
15.2179
15.216
15.2142
15.2124
15.2106
15.2088
15.2069
15.2051
15.2033
15.2015
15.1996
15.1978
15.196
15.1942
15.1924
15.1905
15.1887
15.1869
15.1851
15.1833
15.1814
15.1796
15.1778
15.176
15.1741
15.1723
15.1705
15.1687
15.1669
15.165
15.1632
15.1614
15.1596
15.1577
15.1559
15.1541
15.1523
15.1505
15.1486
15.1468
15.145
15.1432
15.1413
15.1395
15.1377
15.1359
15.1341
15.1322
15.1304
15.1286
15.1268
15.1249
15.1231
15.1213
15.1195
15.1177
15.1158
15.114
15.1122
15.1104
15.1085
15.1067
15.1049
15.1031
15.1013
15.0994
15.0976
15.0958
15.094
15.0921
15.0903
15.0885
15.0867
15.0849
15.083
15.0812
15.0794
15.0776
15.0757
15.0739
15.0721
15.0703
15.0685
15.0666
15.0648
15.063
15.0612
15.0593
15.0575
15.0557
15.0539
15.0521
15.0502
15.0484
15.0466
15.0448
15.0429
15.0411
15.0393
15.0375
15.0356
15.0338
15.032
15.0302
15.0284
15.0265
15.0247
15.0229
15.0211
15.0192
15.0174
15.0156
15.0138
15.012
15.0101
15.0083
15.0065
15.0047
15.0028
15.001
14.9992
14.9974
14.9955
14.9937
14.9919
14.9901
14.9883
14.9864
14.9846
14.9828
14.981
14.9791
14.9773
14.9755
14.9737
14.9719
14.97
14.9682
14.9664
14.9646
14.9627
14.9609
14.9591
14.9573
14.9554
14.9536
14.9518
14.95
14.9482
14.9463
14.9445
14.9427
14.9409
14.939
14.9372
14.9354
14.9336
14.9317
14.9299
14.9281
14.9263
14.9244
14.9226
14.9208
14.919
14.9172
14.9153
14.9135
14.9117
14.9099
14.908
14.9062
14.9044
14.9026
14.9007
14.8989
14.8971
14.8953
14.8935
14.8916
14.8898
14.888
14.8862
14.8843
14.8825
14.8807
14.8789
14.877
14.8752
14.8734
14.8716
14.8697
14.8679
14.8661
14.8643
14.8624
14.8606
14.8588
14.857
14.8552
14.8533
14.8515
14.8497
14.8479
14.846
14.8442
14.8424
14.8406
14.8387
14.8369
14.8351
14.8333
14.8314
14.8296
14.8278
14.826
14.8241
14.8223
14.8205
14.8187
14.8169
14.815
14.8132
14.8114
14.8096
14.8077
14.8059
14.8041
14.8023
14.8004
14.7986
14.7968
14.795
14.7931
14.7913
14.7895
14.7877
14.7858
14.784
14.7822
14.7804
14.7785
14.7767
14.7749
14.7731
14.7712
14.7694
14.7676
14.7658
14.7639
14.7621
14.7603
14.7585
14.7566
14.7548
14.753
14.7512
14.7493
14.7475
14.7457
14.7439
14.742
14.7402
14.7384
14.7366
14.7347
14.7329
14.7311
14.7293
14.7274
14.7256
14.7238
14.722
14.7201
14.7183
14.7165
14.7147
14.7128
14.711
14.7092
14.7074
14.7055
14.7037
14.7019
14.7001
14.6982
14.6964
14.6946
14.6928
14.6909
14.6891
14.6873
14.6855
14.6836
14.6818
14.68
14.6782
14.6763
14.6745
14.6727
14.6709
14.669
14.6672
14.6654
14.6636
14.6617
14.6599
14.6581
14.6563
14.6544
14.6526
14.6508
14.649
14.6471
14.6453
14.6435
14.6416
14.6398
14.638
14.6362
14.6343
14.6325
14.6307
14.6289
14.627
14.6252
14.6234
14.6216
14.6197
14.6179
14.6161
14.6143
14.6124
14.6106
14.6088
14.6069
14.6051
14.6033
14.6015
14.5996
14.5978
14.596
14.5942
14.5923
14.5905
14.5887
14.5869
14.585
14.5832
14.5814
14.5796
14.5777
14.5759
14.5741
14.5722
14.5704
14.5686
14.5668
14.5649
14.5631
14.5613
14.5595
14.5576
14.5558
14.554
14.5522
14.5503
14.5485
14.5467
14.5448
14.543
14.5412
14.5394
14.5375
14.5357
14.5339
14.5321
14.5302
14.5284
14.5266
14.5248
14.5229
14.5211
14.5193
14.5193
18.0692
18.0692
16.5112
16.2555
16.19
16.1616
16.1448
16.1328
16.1233
16.1153
16.1082
16.1018
16.0959
16.0903
16.0849
16.0798
16.0748
16.07
16.0652
16.0606
16.0561
16.0516
16.0472
16.0429
16.0386
16.0344
16.0302
16.0261
16.0221
16.018
16.0141
16.0102
16.0063
16.0025
15.9987
15.9949
15.9912
15.9876
15.9839
15.9803
15.9768
15.9733
15.9698
15.9663
15.9629
15.9595
15.9561
15.9528
15.9495
15.9462
15.943
15.9398
15.9366
15.9334
15.9303
15.9271
15.9241
15.921
15.9179
15.9149
15.9119
15.9089
15.9059
15.903
15.9001
15.8972
15.8943
15.8914
15.8886
15.8857
15.8829
15.8801
15.8773
15.8746
15.8718
15.8691
15.8664
15.8637
15.861
15.8583
15.8556
15.853
15.8504
15.8478
15.8452
15.8426
15.84
15.8374
15.8349
15.8324
15.8298
15.8273
15.8248
15.8224
15.8199
15.8175
15.815
15.8126
15.8102
15.8078
15.8054
15.8031
15.8007
15.7984
15.7961
15.7938
15.7915
15.7892
15.7869
15.7847
15.7825
15.7802
15.778
15.7759
15.7737
15.7715
15.7694
15.7672
15.7651
15.763
15.7609
15.7588
15.7567
15.7546
15.7526
15.7505
15.7485
15.7464
15.7444
15.7424
15.7404
15.7384
15.7364
15.7344
15.7324
15.7304
15.7284
15.7265
15.7245
15.7225
15.7206
15.7186
15.7167
15.7148
15.7128
15.7109
15.709
15.7071
15.7052
15.7033
15.7013
15.6994
15.6976
15.6957
15.6938
15.6919
15.69
15.6881
15.6863
15.6844
15.6825
15.6807
15.6788
15.6769
15.6751
15.6733
15.6714
15.6696
15.6677
15.6659
15.6641
15.6623
15.6604
15.6586
15.6568
15.655
15.6531
15.6513
15.6495
15.6477
15.6458
15.644
15.6422
15.6404
15.6386
15.6367
15.6349
15.6331
15.6313
15.6295
15.6276
15.6258
15.624
15.6222
15.6204
15.6185
15.6167
15.6149
15.6131
15.6113
15.6094
15.6076
15.6058
15.604
15.6022
15.6003
15.5985
15.5967
15.5949
15.593
15.5912
15.5894
15.5876
15.5858
15.5839
15.5821
15.5803
15.5785
15.5767
15.5748
15.573
15.5712
15.5694
15.5676
15.5657
15.5639
15.5621
15.5603
15.5585
15.5566
15.5548
15.553
15.5512
15.5493
15.5475
15.5457
15.5439
15.5421
15.5402
15.5384
15.5366
15.5348
15.533
15.5311
15.5293
15.5275
15.5257
15.5239
15.522
15.5202
15.5184
15.5166
15.5147
15.5129
15.5111
15.5093
15.5075
15.5056
15.5038
15.502
15.5002
15.4984
15.4965
15.4947
15.4929
15.4911
15.4893
15.4874
15.4856
15.4838
15.482
15.4802
15.4783
15.4765
15.4747
15.4729
15.471
15.4692
15.4674
15.4656
15.4638
15.4619
15.4601
15.4583
15.4565
15.4547
15.4528
15.451
15.4492
15.4474
15.4456
15.4437
15.4419
15.4401
15.4383
15.4364
15.4346
15.4328
15.431
15.4292
15.4273
15.4255
15.4237
15.4219
15.4201
15.4182
15.4164
15.4146
15.4128
15.4109
15.4091
15.4073
15.4055
15.4037
15.4018
15.4
15.3982
15.3964
15.3946
15.3927
15.3909
15.3891
15.3873
15.3855
15.3836
15.3818
15.38
15.3782
15.3763
15.3745
15.3727
15.3709
15.3691
15.3672
15.3654
15.3636
15.3618
15.36
15.3581
15.3563
15.3545
15.3527
15.3508
15.349
15.3472
15.3454
15.3436
15.3417
15.3399
15.3381
15.3363
15.3345
15.3326
15.3308
15.329
15.3272
15.3253
15.3235
15.3217
15.3199
15.3181
15.3162
15.3144
15.3126
15.3108
15.309
15.3071
15.3053
15.3035
15.3017
15.2998
15.298
15.2962
15.2944
15.2926
15.2907
15.2889
15.2871
15.2853
15.2835
15.2816
15.2798
15.278
15.2762
15.2743
15.2725
15.2707
15.2689
15.2671
15.2652
15.2634
15.2616
15.2598
15.2579
15.2561
15.2543
15.2525
15.2507
15.2488
15.247
15.2452
15.2434
15.2416
15.2397
15.2379
15.2361
15.2343
15.2324
15.2306
15.2288
15.227
15.2252
15.2233
15.2215
15.2197
15.2179
15.2161
15.2142
15.2124
15.2106
15.2088
15.2069
15.2051
15.2033
15.2015
15.1997
15.1978
15.196
15.1942
15.1924
15.1905
15.1887
15.1869
15.1851
15.1833
15.1814
15.1796
15.1778
15.176
15.1741
15.1723
15.1705
15.1687
15.1669
15.165
15.1632
15.1614
15.1596
15.1577
15.1559
15.1541
15.1523
15.1505
15.1486
15.1468
15.145
15.1432
15.1413
15.1395
15.1377
15.1359
15.1341
15.1322
15.1304
15.1286
15.1268
15.125
15.1231
15.1213
15.1195
15.1177
15.1158
15.114
15.1122
15.1104
15.1086
15.1067
15.1049
15.1031
15.1013
15.0994
15.0976
15.0958
15.094
15.0921
15.0903
15.0885
15.0867
15.0849
15.083
15.0812
15.0794
15.0776
15.0757
15.0739
15.0721
15.0703
15.0685
15.0666
15.0648
15.063
15.0612
15.0593
15.0575
15.0557
15.0539
15.0521
15.0502
15.0484
15.0466
15.0448
15.0429
15.0411
15.0393
15.0375
15.0357
15.0338
15.032
15.0302
15.0284
15.0265
15.0247
15.0229
15.0211
15.0192
15.0174
15.0156
15.0138
15.012
15.0101
15.0083
15.0065
15.0047
15.0028
15.001
14.9992
14.9974
14.9956
14.9937
14.9919
14.9901
14.9883
14.9864
14.9846
14.9828
14.981
14.9791
14.9773
14.9755
14.9737
14.9719
14.97
14.9682
14.9664
14.9646
14.9627
14.9609
14.9591
14.9573
14.9554
14.9536
14.9518
14.95
14.9482
14.9463
14.9445
14.9427
14.9409
14.939
14.9372
14.9354
14.9336
14.9317
14.9299
14.9281
14.9263
14.9245
14.9226
14.9208
14.919
14.9172
14.9153
14.9135
14.9117
14.9099
14.908
14.9062
14.9044
14.9026
14.9007
14.8989
14.8971
14.8953
14.8935
14.8916
14.8898
14.888
14.8862
14.8843
14.8825
14.8807
14.8789
14.877
14.8752
14.8734
14.8716
14.8697
14.8679
14.8661
14.8643
14.8625
14.8606
14.8588
14.857
14.8552
14.8533
14.8515
14.8497
14.8479
14.846
14.8442
14.8424
14.8406
14.8387
14.8369
14.8351
14.8333
14.8314
14.8296
14.8278
14.826
14.8242
14.8223
14.8205
14.8187
14.8169
14.815
14.8132
14.8114
14.8096
14.8077
14.8059
14.8041
14.8023
14.8004
14.7986
14.7968
14.795
14.7931
14.7913
14.7895
14.7877
14.7858
14.784
14.7822
14.7804
14.7785
14.7767
14.7749
14.7731
14.7712
14.7694
14.7676
14.7658
14.7639
14.7621
14.7603
14.7585
14.7566
14.7548
14.753
14.7512
14.7494
14.7475
14.7457
14.7439
14.7421
14.7402
14.7384
14.7366
14.7348
14.7329
14.7311
14.7293
14.7275
14.7256
14.7238
14.722
14.7202
14.7183
14.7165
14.7147
14.7129
14.711
14.7092
14.7074
14.7055
14.7037
14.7019
14.7001
14.6982
14.6964
14.6946
14.6928
14.6909
14.6891
14.6873
14.6855
14.6836
14.6818
14.68
14.6782
14.6763
14.6745
14.6727
14.6709
14.669
14.6672
14.6654
14.6636
14.6617
14.6599
14.6581
14.6563
14.6544
14.6526
14.6508
14.649
14.6471
14.6453
14.6435
14.6417
14.6398
14.638
14.6362
14.6343
14.6325
14.6307
14.6289
14.627
14.6252
14.6234
14.6216
14.6197
14.6179
14.6161
14.6143
14.6124
14.6106
14.6088
14.607
14.6051
14.6033
14.6015
14.5996
14.5978
14.596
14.5942
14.5923
14.5905
14.5887
14.5869
14.585
14.5832
14.5814
14.5796
14.5777
14.5759
14.5741
14.5723
14.5704
14.5686
14.5668
14.5649
14.5631
14.5613
14.5595
14.5576
14.5558
14.554
14.5522
14.5503
14.5485
14.5467
14.5449
14.543
14.5412
14.5394
14.5375
14.5357
14.5339
14.5321
14.5302
14.5284
14.5266
14.5248
14.5229
14.5211
14.5193
14.5193
17.3798
17.3798
16.4954
16.2621
16.1936
16.1637
16.1461
16.1337
16.124
16.1158
16.1086
16.1022
16.0962
16.0905
16.0851
16.08
16.075
16.0701
16.0654
16.0607
16.0562
16.0517
16.0473
16.043
16.0387
16.0345
16.0303
16.0262
16.0221
16.0181
16.0141
16.0102
16.0063
16.0025
15.9987
15.995
15.9913
15.9876
15.984
15.9804
15.9768
15.9733
15.9698
15.9663
15.9629
15.9595
15.9562
15.9528
15.9495
15.9463
15.943
15.9398
15.9366
15.9334
15.9303
15.9272
15.9241
15.921
15.9179
15.9149
15.9119
15.9089
15.906
15.903
15.9001
15.8972
15.8943
15.8914
15.8886
15.8857
15.8829
15.8801
15.8773
15.8746
15.8718
15.8691
15.8664
15.8637
15.861
15.8583
15.8556
15.853
15.8504
15.8478
15.8452
15.8426
15.84
15.8374
15.8349
15.8324
15.8298
15.8273
15.8249
15.8224
15.8199
15.8175
15.815
15.8126
15.8102
15.8078
15.8054
15.8031
15.8007
15.7984
15.7961
15.7938
15.7915
15.7892
15.7869
15.7847
15.7825
15.7803
15.7781
15.7759
15.7737
15.7715
15.7694
15.7672
15.7651
15.763
15.7609
15.7588
15.7567
15.7546
15.7526
15.7505
15.7485
15.7464
15.7444