# vtk DataFile Version 2.0
FlowField
ASCII
DATASET STRUCTURED_GRID
DIMENSIONS 800 1 200
POINTS 160000 float
0 0 0
0.04 0 0
0.08 0 0
0.12 0 0
0.16 0 0
0.2 0 0
0.24 0 0
0.28 0 0
0.32 0 0
0.36 0 0
0.4 0 0
0.44 0 0
0.48 0 0
0.52 0 0
0.56 0 0
0.6 0 0
0.64 0 0
0.68 0 0
0.72 0 0
0.76 0 0
0.8 0 0
0.84 0 0
0.88 0 0
0.92 0 0
0.96 0 0
1 0 0
1.04 0 0
1.08 0 0
1.12 0 0
1.16 0 0
1.2 0 0
1.24 0 0
1.28 0 0
1.32 0 0
1.36 0 0
1.4 0 0
1.44 0 0
1.48 0 0
1.52 0 0
1.56 0 0
1.6 0 0
1.64 0 0
1.68 0 0
1.72 0 0
1.76 0 0
1.8 0 0
1.84 0 0
1.88 0 0
1.92 0 0
1.96 0 0
2 0 0
2.04 0 0
2.08 0 0
2.12 0 0
2.16 0 0
2.2 0 0
2.24 0 0
2.28 0 0
2.32 0 0
2.36 0 0
2.4 0 0
2.44 0 0
2.48 0 0
2.52 0 0
2.56 0 0
2.6 0 0
2.64 0 0
2.68 0 0
2.72 0 0
2.76 0 0
2.8 0 0
2.84 0 0
2.88 0 0
2.92 0 0
2.96 0 0
3 0 0
3.04 0 0
3.08 0 0
3.12 0 0
3.16 0 0
3.2 0 0
3.24 0 0
3.28 0 0
3.32 0 0
3.36 0 0
3.4 0 0
3.44 0 0
3.48 0 0
3.52 0 0
3.56 0 0
3.6 0 0
3.64 0 0
3.68 0 0
3.72 0 0
3.76 0 0
3.8 0 0
3.84 0 0
3.88 0 0
3.92 0 0
3.96 0 0
4 0 0
4.04 0 0
4.08 0 0
4.12 0 0
4.16 0 0
4.2 0 0
4.24 0 0
4.28 0 0
4.32 0 0
4.36 0 0
4.4 0 0
4.44 0 0
4.48 0 0
4.52 0 0
4.56 0 0
4.6 0 0
4.64 0 0
4.68 0 0
4.72 0 0
4.76 0 0
4.8 0 0
4.84 0 0
4.88 0 0
4.92 0 0
4.96 0 0
5 0 0
5.04 0 0
5.08 0 0
5.12 0 0
5.16 0 0
5.2 0 0
5.24 0 0
5.28 0 0
5.32 0 0
5.36 0 0
5.4 0 0
5.44 0 0
5.48 0 0
5.52 0 0
5.56 0 0
5.6 0 0
5.64 0 0
5.68 0 0
5.72 0 0
5.76 0 0
5.8 0 0
5.84 0 0
5.88 0 0
5.92 0 0
5.96 0 0
6 0 0
6.04 0 0
6.08 0 0
6.12 0 0
6.16 0 0
6.2 0 0
6.24 0 0
6.28 0 0
6.32 0 0
6.36 0 0
6.4 0 0
6.44 0 0
6.48 0 0
6.52 0 0
6.56 0 0
6.6 0 0
6.64 0 0
6.68 0 0
6.72 0 0
6.76 0 0
6.8 0 0
6.84 0 0
6.88 0 0
6.92 0 0
6.96 0 0
7 0 0
7.04 0 0
7.08 0 0
7.12 0 0
7.16 0 0
7.2 0 0
7.24 0 0
7.28 0 0
7.32 0 0
7.36 0 0
7.4 0 0
7.44 0 0
7.48 0 0
7.52 0 0
7.56 0 0
7.6 0 0
7.64 0 0
7.68 0 0
7.72 0 0
7.76 0 0
7.8 0 0
7.84 0 0
7.88 0 0
7.92 0 0
7.96 0 0
8 0 0
8.04 0 0
8.08 0 0
8.12 0 0
8.16 0 0
8.2 0 0
8.24 0 0
8.28 0 0
8.32 0 0
8.36 0 0
8.4 0 0
8.44 0 0
8.48 0 0
8.52 0 0
8.56 0 0
8.6 0 0
8.64 0 0
8.68 0 0
8.72 0 0
8.76 0 0
8.8 0 0
8.84 0 0
8.88 0 0
8.92 0 0
8.96 0 0
9 0 0
9.04 0 0
9.08 0 0
9.12 0 0
9.16 0 0
9.2 0 0
9.24 0 0
9.28 0 0
9.32 0 0
9.36 0 0
9.4 0 0
9.44 0 0
9.48 0 0
9.52 0 0
9.56 0 0
9.6 0 0
9.64 0 0
9.68 0 0
9.72 0 0
9.76 0 0
9.8 0 0
9.84 0 0
9.88 0 0
9.92 0 0
9.96 0 0
10 0 0
10.04 0 0
10.08 0 0
10.12 0 0
10.16 0 0
10.2 0 0
10.24 0 0
10.28 0 0
10.32 0 0
10.36 0 0
10.4 0 0
10.44 0 0
10.48 0 0
10.52 0 0
10.56 0 0
10.6 0 0
10.64 0 0
10.68 0 0
10.72 0 0
10.76 0 0
10.8 0 0
10.84 0 0
10.88 0 0
10.92 0 0
10.96 0 0
11 0 0
11.04 0 0
11.08 0 0
11.12 0 0
11.16 0 0
11.2 0 0
11.24 0 0
11.28 0 0
11.32 0 0
11.36 0 0
11.4 0 0
11.44 0 0
11.48 0 0
11.52 0 0
11.56 0 0
11.6 0 0
11.64 0 0
11.68 0 0
11.72 0 0
11.76 0 0
11.8 0 0
11.84 0 0
11.88 0 0
11.92 0 0
11.96 0 0
12 0 0
12.04 0 0
12.08 0 0
12.12 0 0
12.16 0 0
12.2 0 0
12.24 0 0
12.28 0 0
12.32 0 0
12.36 0 0
12.4 0 0
12.44 0 0
12.48 0 0
12.52 0 0
12.56 0 0
12.6 0 0
12.64 0 0
12.68 0 0
12.72 0 0
12.76 0 0
12.8 0 0
12.84 0 0
12.88 0 0
12.92 0 0
12.96 0 0
13 0 0
13.04 0 0
13.08 0 0
13.12 0 0
13.16 0 0
13.2 0 0
13.24 0 0
13.28 0 0
13.32 0 0
13.36 0 0
13.4 0 0
13.44 0 0
13.48 0 0
13.52 0 0
13.56 0 0
13.6 0 0
13.64 0 0
13.68 0 0
13.72 0 0
13.76 0 0
13.8 0 0
13.84 0 0
13.88 0 0
13.92 0 0
13.96 0 0
14 0 0
14.04 0 0
14.08 0 0
14.12 0 0
14.16 0 0
14.2 0 0
14.24 0 0
14.28 0 0
14.32 0 0
14.36 0 0
14.4 0 0
14.44 0 0
14.48 0 0
14.52 0 0
14.56 0 0
14.6 0 0
14.64 0 0
14.68 0 0
14.72 0 0
14.76 0 0
14.8 0 0
14.84 0 0
14.88 0 0
14.92 0 0
14.96 0 0
15 0 0
15.04 0 0
15.08 0 0
15.12 0 0
15.16 0 0
15.2 0 0
15.24 0 0
15.28 0 0
15.32 0 0
15.36 0 0
15.4 0 0
15.44 0 0
15.48 0 0
15.52 0 0
15.56 0 0
15.6 0 0
15.64 0 0
15.68 0 0
15.72 0 0
15.76 0 0
15.8 0 0
15.84 0 0
15.88 0 0
15.92 0 0
15.96 0 0
16 0 0
16.04 0 0
16.08 0 0
16.12 0 0
16.16 0 0
16.2 0 0
16.24 0 0
16.28 0 0
16.32 0 0
16.36 0 0
16.4 0 0
16.44 0 0
16.48 0 0
16.52 0 0
16.56 0 0
16.6 0 0
16.64 0 0
16.68 0 0
16.72 0 0
16.76 0 0
16.8 0 0
16.84 0 0
16.88 0 0
16.92 0 0
16.96 0 0
17 0 0
17.04 0 0
17.08 0 0
17.12 0 0
17.16 0 0
17.2 0 0
17.24 0 0
17.28 0 0
17.32 0 0
17.36 0 0
17.4 0 0
17.44 0 0
17.48 0 0
17.52 0 0
17.56 0 0
17.6 0 0
17.64 0 0
17.68 0 0
17.72 0 0
17.76 0 0
17.8 0 0
17.84 0 0
17.88 0 0
17.92 0 0
17.96 0 0
18 0 0
18.04 0 0
18.08 0 0
18.12 0 0
18.16 0 0
18.2 0 0
18.24 0 0
18.28 0 0
18.32 0 0
18.36 0 0
18.4 0 0
18.44 0 0
18.48 0 0
18.52 0 0
18.56 0 0
18.6 0 0
18.64 0 0
18.68 0 0
18.72 0 0
18.76 0 0
18.8 0 0
18.84 0 0
18.88 0 0
18.92 0 0
18.96 0 0
19 0 0
19.04 0 0
19.08 0 0
19.12 0 0
19.16 0 0
19.2 0 0
19.24 0 0
19.28 0 0
19.32 0 0
19.36 0 0
19.4 0 0
19.44 0 0
19.48 0 0
19.52 0 0
19.56 0 0
19.6 0 0
19.64 0 0
19.68 0 0
19.72 0 0
19.76 0 0
19.8 0 0
19.84 0 0
19.88 0 0
19.92 0 0
19.96 0 0
20 0 0
20.04 0 0
20.08 0 0
20.12 0 0
20.16 0 0
20.2 0 0
20.24 0 0
20.28 0 0
20.32 0 0
20.36 0 0
20.4 0 0
20.44 0 0
20.48 0 0
20.52 0 0
20.56 0 0
20.6 0 0
20.64 0 0
20.68 0 0
20.72 0 0
20.76 0 0
20.8 0 0
20.84 0 0
20.88 0 0
20.92 0 0
20.96 0 0
21 0 0
21.04 0 0
21.08 0 0
21.12 0 0
21.16 0 0
21.2 0 0
21.24 0 0
21.28 0 0
21.32 0 0
21.36 0 0
21.4 0 0
21.44 0 0
21.48 0 0
21.52 0 0
21.56 0 0
21.6 0 0
21.64 0 0
21.68 0 0
21.72 0 0
21.76 0 0
21.8 0 0
21.84 0 0
21.88 0 0
21.92 0 0
21.96 0 0
22 0 0
22.04 0 0
22.08 0 0
22.12 0 0
22.16 0 0
22.2 0 0
22.24 0 0
22.28 0 0
22.32 0 0
22.36 0 0
22.4 0 0
22.44 0 0
22.48 0 0
22.52 0 0
22.56 0 0
22.6 0 0
22.64 0 0
22.68 0 0
22.72 0 0
22.76 0 0
22.8 0 0
22.84 0 0
22.88 0 0
22.92 0 0
22.96 0 0
23 0 0
23.04 0 0
23.08 0 0
23.12 0 0
23.16 0 0
23.2 0 0
23.24 0 0
23.28 0 0
23.32 0 0
23.36 0 0
23.4 0 0
23.44 0 0
23.48 0 0
23.52 0 0
23.56 0 0
23.6 0 0
23.64 0 0
23.68 0 0
23.72 0 0
23.76 0 0
23.8 0 0
23.84 0 0
23.88 0 0
23.92 0 0
23.96 0 0
24 0 0
24.04 0 0
24.08 0 0
24.12 0 0
24.16 0 0
24.2 0 0
24.24 0 0
24.28 0 0
24.32 0 0
24.36 0 0
24.4 0 0
24.44 0 0
24.48 0 0
24.52 0 0
24.56 0 0
24.6 0 0
24.64 0 0
24.68 0 0
24.72 0 0
24.76 0 0
24.8 0 0
24.84 0 0
24.88 0 0
24.92 0 0
24.96 0 0
25 0 0
25.04 0 0
25.08 0 0
25.12 0 0
25.16 0 0
25.2 0 0
25.24 0 0
25.28 0 0
25.32 0 0
25.36 0 0
25.4 0 0
25.44 0 0
25.48 0 0
25.52 0 0
25.56 0 0
25.6 0 0
25.64 0 0
25.68 0 0
25.72 0 0
25.76 0 0
25.8 0 0
25.84 0 0
25.88 0 0
25.92 0 0
25.96 0 0
26 0 0
26.04 0 0
26.08 0 0
26.12 0 0
26.16 0 0
26.2 0 0
26.24 0 0
26.28 0 0
26.32 0 0
26.36 0 0
26.4 0 0
26.44 0 0
26.48 0 0
26.52 0 0
26.56 0 0
26.6 0 0
26.64 0 0
26.68 0 0
26.72 0 0
26.76 0 0
26.8 0 0
26.84 0 0
26.88 0 0
26.92 0 0
26.96 0 0
27 0 0
27.04 0 0
27.08 0 0
27.12 0 0
27.16 0 0
27.2 0 0
27.24 0 0
27.28 0 0
27.32 0 0
27.36 0 0
27.4 0 0
27.44 0 0
27.48 0 0
27.52 0 0
27.56 0 0
27.6 0 0
27.64 0 0
27.68 0 0
27.72 0 0
27.76 0 0
27.8 0 0
27.84 0 0
27.88 0 0
27.92 0 0
27.96 0 0
28 0 0
28.04 0 0
28.08 0 0
28.12 0 0
28.16 0 0
28.2 0 0
28.24 0 0
28.28 0 0
28.32 0 0
28.36 0 0
28.4 0 0
28.44 0 0
28.48 0 0
28.52 0 0
28.56 0 0
28.6 0 0
28.64 0 0
28.68 0 0
28.72 0 0
28.76 0 0
28.8 0 0
28.84 0 0
28.88 0 0
28.92 0 0
28.96 0 0
29 0 0
29.04 0 0
29.08 0 0
29.12 0 0
29.16 0 0
29.2 0 0
29.24 0 0
29.28 0 0
29.32 0 0
29.36 0 0
29.4 0 0
29.44 0 0
29.48 0 0
29.52 0 0
29.56 0 0
29.6 0 0
29.64 0 0
29.68 0 0
29.72 0 0
29.76 0 0
29.8 0 0
29.84 0 0
29.88 0 0
29.92 0 0
29.96 0 0
30 0 0
30.04 0 0
30.08 0 0
30.12 0 0
30.16 0 0
30.2 0 0
30.24 0 0
30.28 0 0
30.32 0 0
30.36 0 0
30.4 0 0
30.44 0 0
30.48 0 0
30.52 0 0
30.56 0 0
30.6 0 0
30.64 0 0
30.68 0 0
30.72 0 0
30.76 0 0
30.8 0 0
30.84 0 0
30.88 0 0
30.92 0 0
30.96 0 0
31 0 0
31.04 0 0
31.08 0 0
31.12 0 0
31.16 0 0
31.2 0 0
31.24 0 0
31.28 0 0
31.32 0 0
31.36 0 0
31.4 0 0
31.44 0 0
31.48 0 0
31.52 0 0
31.56 0 0
31.6 0 0
31.64 0 0
31.68 0 0
31.72 0 0
31.76 0 0
31.8 0 0
31.84 0 0
31.88 0 0
31.92 0 0
31.96 0 0
0 0.005 0
0.04 0.005 0
0.08 0.005 0
0.12 0.005 0
0.16 0.005 0
0.2 0.005 0
0.24 0.005 0
0.28 0.005 0
0.32 0.005 0
0.36 0.005 0
0.4 0.005 0
0.44 0.005 0
0.48 0.005 0
0.52 0.005 0
0.56 0.005 0
0.6 0.005 0
0.64 0.005 0
0.68 0.005 0
0.72 0.005 0
0.76 0.005 0
0.8 0.005 0
0.84 0.005 0
0.88 0.005 0
0.92 0.005 0
0.96 0.005 0
1 0.005 0
1.04 0.005 0
1.08 0.005 0
1.12 0.005 0
1.16 0.005 0
1.2 0.005 0
1.24 0.005 0
1.28 0.005 0
1.32 0.005 0
1.36 0.005 0
1.4 0.005 0
1.44 0.005 0
1.48 0.005 0
1.52 0.005 0
1.56 0.005 0
1.6 0.005 0
1.64 0.005 0
1.68 0.005 0
1.72 0.005 0
1.76 0.005 0
1.8 0.005 0
1.84 0.005 0
1.88 0.005 0
1.92 0.005 0
1.96 0.005 0
2 0.005 0
2.04 0.005 0
2.08 0.005 0
2.12 0.005 0
2.16 0.005 0
2.2 0.005 0
2.24 0.005 0
2.28 0.005 0
2.32 0.005 0
2.36 0.005 0
2.4 0.005 0
2.44 0.005 0
2.48 0.005 0
2.52 0.005 0
2.56 0.005 0
2.6 0.005 0
2.64 0.005 0
2.68 0.005 0
2.72 0.005 0
2.76 0.005 0
2.8 0.005 0
2.84 0.005 0
2.88 0.005 0
2.92 0.005 0
2.96 0.005 0
3 0.005 0
3.04 0.005 0
3.08 0.005 0
3.12 0.005 0
3.16 0.005 0
3.2 0.005 0
3.24 0.005 0
3.28 0.005 0
3.32 0.005 0
3.36 0.005 0
3.4 0.005 0
3.44 0.005 0
3.48 0.005 0
3.52 0.005 0
3.56 0.005 0
3.6 0.005 0
3.64 0.005 0
3.68 0.005 0
3.72 0.005 0
3.76 0.005 0
3.8 0.005 0
3.84 0.005 0
3.88 0.005 0
3.92 0.005 0
3.96 0.005 0
4 0.005 0
4.04 0.005 0
4.08 0.005 0
4.12 0.005 0
4.16 0.005 0
4.2 0.005 0
4.24 0.005 0
4.28 0.005 0
4.32 0.005 0
4.36 0.005 0
4.4 0.005 0
4.44 0.005 0
4.48 0.005 0
4.52 0.005 0
4.56 0.005 0
4.6 0.005 0
4.64 0.005 0
4.68 0.005 0
4.72 0.005 0
4.76 0.005 0
4.8 0.005 0
4.84 0.005 0
4.88 0.005 0
4.92 0.005 0
4.96 0.005 0
5 0.005 0
5.04 0.005 0
5.08 0.005 0
5.12 0.005 0
5.16 0.005 0
5.2 0.005 0
5.24 0.005 0
5.28 0.005 0
5.32 0.005 0
5.36 0.005 0
5.4 0.005 0
5.44 0.005 0
5.48 0.005 0
5.52 0.005 0
5.56 0.005 0
5.6 0.005 0
5.64 0.005 0
5.68 0.005 0
5.72 0.005 0
5.76 0.005 0
5.8 0.005 0
5.84 0.005 0
5.88 0.005 0
5.92 0.005 0
5.96 0.005 0
6 0.005 0
6.04 0.005 0
6.08 0.005 0
6.12 0.005 0
6.16 0.005 0
6.2 0.005 0
6.24 0.005 0
6.28 0.005 0
6.32 0.005 0
6.36 0.005 0
6.4 0.005 0
6.44 0.005 0
6.48 0.005 0
6.52 0.005 0
6.56 0.005 0
6.6 0.005 0
6.64 0.005 0
6.68 0.005 0
6.72 0.005 0
6.76 0.005 0
6.8 0.005 0
6.84 0.005 0
6.88 0.005 0
6.92 0.005 0
6.96 0.005 0
7 0.005 0
7.04 0.005 0
7.08 0.005 0
7.12 0.005 0
7.16 0.005 0
7.2 0.005 0
7.24 0.005 0
7.28 0.005 0
7.32 0.005 0
7.36 0.005 0
7.4 0.005 0
[...]
POINT_DATA 160000

SCALARS phi float 1
LOOKUP_TABLE default
1
1
1
1
1
1
1
1
1
1
1
1
1
1
1
1
1
1
1
1
1
1
1
1
1
1
1
1
1
1
1
1
1
1
1
0.999999
0.999999
0.999999
0.999999
0.999998
0.999997
0.999997
0.999995
0.999994
0.999992
0.99999
0.999988
0.999985
0.999982
0.999978
0.999973
0.999968
0.999961
0.999954
0.999946
0.999937
0.999926
0.999914
0.999901
0.999886
0.99987
0.999852
0.999832
0.99981
0.999786
0.99976
0.999731
0.9997
0.999667
0.999631
0.999592
0.99955
0.999505
0.999457
0.999406
0.999352
0.999294
0.999232
0.999167
0.999099
0.999026
0.998949
0.998869
0.998784
0.998695
0.998602
0.998504
0.998403
0.998296
0.998185
0.998069
0.997949
0.997824
0.997694
0.997559
0.997419
0.997275
0.997125
0.99697
0.99681
0.996645
0.996475
0.9963
0.996119
0.995933
0.995742
0.995546
0.995344
0.995137
0.994925
0.994707
0.994484
0.994256
0.994022
0.993783
0.993539
0.993289
0.993034
0.992774
0.992509
0.992238
0.991962
0.99168
0.991394
0.991102
0.990805
0.990502
0.990195
0.989883
0.989565
0.989242
0.988915
0.988582
0.988244
0.987901
0.987554
0.987201
0.986844
0.986482
0.986115
0.985743
0.985367
0.984986
0.984601
0.98421
0.983816
0.983416
0.983013
0.982604
0.982192
0.981775
0.981354
0.980928
0.980499
0.980065
0.979627
0.979185
0.978739
0.978289
0.977835
0.977377
0.976915
0.97645
0.975981
0.975508
0.975031
0.97455
0.974067
0.973579
0.973088
0.972594
0.972096
0.971595
0.97109
0.970582
0.970071
0.969557
0.96904
0.968519
0.967996
0.967469
0.96694
0.966407
0.965872
0.965334
0.964793
0.964249
0.963702
0.963153
0.962601
0.962047
0.96149
0.960931
0.960369
0.959804
0.959237
0.958668
0.958097
0.957523
0.956947
0.956369
0.955789
0.955206
0.954622
0.954035
0.953446
0.952856
0.952263
0.951669
0.951073
0.950474
0.949874
0.949273
0.948669
0.948064
0.947457
0.946849
0.946239
0.945627
0.945014
0.944399
0.943783
0.943165
0.942546
0.941926
0.941304
0.940681
0.940057
0.939431
0.938804
0.938176
0.937547
0.936916
0.936285
0.935652
0.935018
0.934384
0.933748
0.933111
0.932473
0.931834
0.931195
0.930554
0.929913
0.92927
0.928627
0.927983
0.927339
0.926693
0.926047
0.9254
0.924752
0.924103
0.923454
0.922804
0.922154
0.921503
0.920851
0.920199
0.919546
0.918892
0.918238
0.917583
0.916928
0.916272
0.915616
0.914959
0.914302
0.913644
0.912986
0.912327
0.911667
0.911007
0.910347
0.909686
0.909025
0.908363
0.9077
0.907037
0.906374
0.90571
0.905046
0.904381
0.903715
0.903049
0.902382
0.901715
0.901047
0.900379
0.89971
0.89904
0.89837
0.897699
0.897027
0.896355
0.895682
0.895008
0.894334
0.893658
0.892982
0.892305
0.891627
0.890948
0.890269
0.889588
0.888906
0.888224
0.88754
0.886855
0.886169
0.885482
0.884793
0.884104
0.883413
0.88272
0.882027
0.881332
0.880635
0.879937
0.879238
0.878536
0.877834
0.877129
0.876423
0.875715
0.875005
0.874294
0.87358
0.872864
0.872147
0.871427
0.870705
0.869981
0.869255
0.868527
0.867796
0.867062
0.866327
0.865588
0.864848
0.864104
0.863358
0.862609
0.861858
0.861103
0.860346
0.859586
0.858823
0.858056
0.857287
0.856514
0.855739
0.854959
0.854177
0.853391
0.852602
0.851809
0.851013
0.850213
0.849409
0.848602
0.847791
0.846976
0.846158
0.845335
0.844509
0.843678
0.842843
0.842005
0.841162
0.840315
0.839463
0.838608
0.837748
0.836883
0.836015
0.835141
0.834264
0.833381
0.832494
0.831603
0.830706
0.829805
0.8289
0.827989
0.827074
0.826154
0.825228
0.824298
0.823363
0.822423
0.821478
0.820528
0.819573
0.818613
0.817648
0.816677
0.815701
0.81472
0.813734
0.812743
0.811746
0.810744
0.809737
0.808724
0.807706
0.806683
0.805654
0.80462
0.80358
0.802535
0.801485
0.800429
0.799368
0.798301
0.797229
0.796151
0.795068
0.793979
0.792885
0.791786
0.790681
0.78957
0.788454
0.787332
0.786205
0.785073
0.783935
0.782791
0.781642
0.780488
0.779328
0.778163
0.776992
0.775816
0.774634
0.773447
0.772255
0.771057
0.769854
0.768646
0.767432
0.766213
0.764989
0.763759
0.762524
0.761284
0.760039
0.758788
0.757533
0.756272
0.755006
0.753735
0.752459
0.751178
0.749891
0.7486
0.747304
0.746003
0.744697
0.743386
0.74207
0.74075
0.739424
0.738094
0.736759
0.73542
0.734075
0.732727
0.731373
0.730015
0.728653
0.727285
0.725914
0.724538
0.723158
0.721773
0.720384
0.718991
0.717593
0.716191
0.714786
0.713376
0.711962
0.710543
0.709121
0.707695
0.706265
0.704831
0.703394
0.701952
0.700507
0.699058
0.697605
0.696149
0.694689
0.693226
0.691759
0.690288
0.688815
0.687337
0.685857
0.684373
0.682886
0.681396
0.679903
0.678406
0.676907
0.675404
0.673898
0.67239
0.670879
0.669364
0.667847
0.666328
0.664805
0.66328
0.661752
0.660222
0.658689
0.657154
0.655616
0.654076
0.652533
0.650989
0.649442
0.647892
0.646341
0.644787
0.643232
0.641674
0.640114
0.638553
0.636989
0.635424
0.633857
0.632288
0.630717
0.629144
0.62757
0.625995
0.624418
0.622839
0.621259
0.619677
0.618094
0.61651
0.614924
0.613337
0.611749
0.61016
0.60857
0.606978
0.605386
0.603793
0.602198
0.600603
0.599007
0.597409
0.595812
0.594213
0.592614
0.591014
0.589413
0.587812
0.58621
0.584608
0.583005
0.581402
0.579798
0.578194
0.57659
0.574985
0.57338
0.571775
0.57017
0.568565
0.566959
0.565354
0.563748
0.562142
0.560537
0.558932
0.557326
0.555721
0.554116
0.552511
0.550907
0.549302
0.547699
0.546095
0.544492
0.542889
0.541287
0.539685
0.538084
0.536483
0.534883
0.533283
0.531684
0.530086
0.528489
0.526892
0.525296
0.5237
0.522106
0.520512
0.51892
0.517328
0.515737
0.514147
0.512559
0.510971
0.509384
0.507798
0.506214
0.50463
0.503048
0.501467
0.499887
0.498308
0.496731
0.495155
0.49358
0.492007
0.490435
0.488864
0.487295
0.485727
0.484161
0.482596
0.481032
0.47947
0.47791
0.476351
0.474794
0.473239
0.471685
0.470133
0.468582
0.467033
0.465486
0.463941
0.462397
0.460855
0.459315
0.457777
0.456241
0.454706
0.453174
0.451643
0.450114
0.448587
0.447062
0.445539
0.444018
0.442499
0.440982
0.439467
0.437954
0.436443
0.434935
0.433428
0.431923
0.430421
0.428921
0.427422
0.425926
0.424433
0.422941
0.421452
0.419964
0.418479
0.416997
0.415516
0.414038
0.412562
0.411089
0.409617
0.408149
0.406682
0.405218
0.403756
0.402296
0.400839
0.399384
0.397932
0.396482
0.395035
0.39359
0.392147
0.390707
0.389269
0.387834
0.386401
0.384971
0.383543
0.382118
0.380695
0.379274
0.377857
0.376442
0.375029
0.373619
0.372211
0.370806
0.369404
0.368004
0.366607
0.365212
0.36382
0.362431
0.361044
0.35966
0.358278
0.356899
0.355523
0.354149
0.352778
0.351409
0.350044
0.348681
0.34732
0.345962
0.344607
0.343255
0.341905
0.340558
0.339214
0.337872
0.336533
0.335197
0.333863
0.332532
0.331204
0.329878
0.328556
0.327236
0.325918
0.324604
0.323292
0.321983
0.320676
0.319372
0.318071
0.316773
0.315478
0.314185
0.312895
0.311607
0.310323
0.309041
0.307762
0.306485
0.305212
0.303941
0.302673
0.301407
0.300145
0.298885
0.297627
0.296373
0.295121
0.293872
0.292626
0.291383
0.290142
0.288904
0.287669
0.286436
0.285207
0.28398
0.282755
0.281534
0.280315
0.279099
0.277886
0.276675
0.275467
0.274262
0.27306
0.27186
0.270664
0.269469
0.268278
0.267089
0.265903
0.26472
0.263539
0.262362
0.261186
0.260014
0.258844
0.257678
0.256512
0.255354
0.254193
0.253083
0.252059
0.252059
1
1
1
1
1
1
1
1
1
1
1
1
1
1
1
1
1
1
1
1
1
1
1
1
1
1
1
1
1
1
1
1
1
1
1
0.999999
0.999999
0.999999
0.999999
0.999998
0.999997
0.999997
0.999995
0.999994
0.999992
0.99999
0.999988
0.999985
0.999982
0.999978
0.999973
0.999968
0.999961
0.999954
0.999946
0.999937
0.999926
0.999914
0.999901
0.999886
0.99987
0.999852
0.999832
0.99981
0.999786
0.99976
0.999731
0.9997
0.999667
0.999631
0.999592
0.99955
0.999505
0.999457
0.999406
0.999352
0.999294
0.999232
0.999167
0.999099
0.999026
0.998949
0.998869
0.998784
0.998695
0.998602
0.998504
0.998403
0.998296
0.998185
0.998069
0.997949
0.997824
0.997694
0.997559
0.997419
0.997275
0.997125
0.99697
0.99681
0.996645
0.996475
0.9963
0.996119
0.995933
0.995742
0.995546
0.995344
0.995137
0.994925
0.994707
0.994484
0.994256
0.994022
0.993783
0.993539
0.993289
0.993034
0.992774
0.992509
0.992238
0.991962
0.99168
0.991394
0.991102
0.990805
0.990502
0.990195
0.989883
0.989565
0.989242
0.988915
0.988582
0.988244
0.987901
0.987554
0.987201
0.986844
0.986482
0.986115
0.985743
0.985367
0.984986
0.984601
0.98421
0.983816
0.983416
0.983013
0.982604
0.982192
0.981775
0.981354
0.980928
0.980499
0.980065
0.979627
0.979185
0.978739
0.978289
0.977835
0.977377
0.976915
0.97645
0.975981
0.975508
0.975031
0.97455
0.974067
0.973579
0.973088
0.972594
0.972096
0.971595
0.97109
0.970582
0.970071
0.969557
0.96904
0.968519
0.967996
0.967469
0.96694
0.966407
0.965872
0.965334
0.964793
0.964249
0.963702
0.963153
0.962601
0.962047
0.96149
0.960931
0.960369
0.959804
0.959237
0.958668
0.958097
0.957523
0.956947
0.956369
0.955789
0.955206
0.954622
0.954035
0.953446
0.952856
0.952263
0.951669
0.951073
0.950474
0.949874
0.949273
0.948669
0.948064
0.947457
0.946849
0.946239
0.945627
0.945014
0.944399
0.943783
0.943165
0.942546
0.941926
0.941304
0.940681
0.940057
0.939431
0.938804
0.938176
0.937547
0.936916
0.936285
0.935652
0.935018
0.934384
0.933748
0.933111
0.932473
0.931834
0.931195
0.930554
0.929913
0.92927
0.928627
0.927983
0.927339
0.926693
0.926047
0.9254
0.924752
0.924103
0.923454
0.922804
0.922154
0.921503
0.920851
0.920199
0.919546
0.918892
0.918238
0.917583
0.916928
0.916272
0.915616
0.914959
0.914302
0.913644
0.912986
0.912327
0.911667
0.911007
0.910347
0.909686
0.909025
0.908363
0.9077
0.907037
0.906374
0.90571
0.905046
0.904381
0.903715
0.903049
0.902382
0.901715
0.901047
0.900379
0.89971
0.89904
0.89837
0.897699
0.897027
0.896355
0.895682
0.895008
0.894334
0.893658
0.892982
0.892305
0.891627
0.890948
0.890269
0.889588
0.888906
0.888224
0.88754
0.886855
0.886169
0.885482
0.884793
0.884104
0.883413
0.88272
0.882027
0.881332
0.880635
0.879937
0.879238
0.878536
0.877834
0.877129
0.876423
0.875715
0.875005
0.874294
0.87358
0.872864
0.872147
0.871427
0.870705
0.869981
0.869255
0.868527
0.867796
0.867062
0.866327
0.865588
0.864848
0.864104
0.863358
0.862609
0.861858
0.861103
0.860346
0.859586
0.858823
0.858056
0.857287
0.856514
0.855739
0.854959
0.854177
0.853391
0.852602
0.851809
0.851013
0.850213
0.849409
0.848602
0.847791
0.846976
0.846158
0.845335
0.844509
0.843678
0.842843
0.842005
0.841162
0.840315
0.839463
0.838608
0.837748
0.836883
0.836015
0.835141
0.834264
0.833381
0.832494
0.831603
0.830706
0.829805
0.8289
0.827989
0.827074
0.826154
0.825228
0.824298
0.823363
0.822423
0.821478
0.820528
0.819573
0.818613
0.817648
0.816677
0.815701
0.81472
0.813734
0.812743
0.811746
0.810744
0.809737
0.808724
0.807706
0.806683
0.805654
0.80462
0.80358
0.802535
0.801485
0.800429
0.799368
0.798301
0.797229
0.796151
0.795068
0.793979
0.792885
0.791786
0.790681
0.78957
0.788454
0.787332
0.786205
0.785073
0.783935
0.782791
0.781642
0.780488
0.779328
0.778163
0.776992
0.775816
0.774634
0.773447
0.772255
0.771057
0.769854
0.768646
0.767432
0.766213
0.764989
0.763759
0.762524
0.761284
0.760039
0.758788
0.757533
0.756272
0.755006
0.753735
0.752459
0.751178
0.749891
0.7486
0.747304
0.746003
0.744697
0.743386
0.74207
0.74075
0.739424
0.738094
0.736759
0.73542
0.734075
0.732727
0.731373
0.730015
0.728653
0.727285
0.725914
0.724538
0.723158
0.721773
0.720384
0.718991
0.717593
0.716191
0.714786
0.713376
0.711962
0.710543
0.709121
0.707695
0.706265
0.704831
0.703394
0.701952
0.700507
0.699058
0.697605
0.696149
0.694689
0.693226
0.691759
0.690288
0.688815
0.687337
0.685857
0.684373
0.682886
0.681396
0.679903
0.678406
0.676907
0.675404
0.673898
0.67239
0.670879
0.669364
0.667847
0.666328
0.664805
0.66328
0.661752
0.660222
0.658689
0.657154
0.655616
0.654076
0.652533
0.650989
0.649442
0.647892
0.646341
0.644787
0.643232
0.641674
0.640114
0.638553
0.636989
0.635424
0.633857
0.632288
0.630717
0.629144
0.62757
0.625995
0.624418
0.622839
0.621259
0.619677
0.618094
0.61651
0.614924
0.613337
0.611749
0.61016
0.60857
0.606978
0.605386
0.603793
0.602198
0.600603
0.599007
0.597409
0.595812
0.594213
0.592614
0.591014
0.589413
0.587812
0.58621
0.584608
0.583005
0.581402
0.579798
0.578194
0.57659
0.574985
0.57338
0.571775
0.57017
0.568565
0.566959
0.565354
0.563748
0.562142
0.560537
0.558932
0.557326
0.555721
0.554116
0.552511
0.550907
0.549302
0.547699
0.546095
0.544492
0.542889
0.541287
0.539685
0.538084
0.536483
0.534883
0.533283
0.531684
0.530086
0.528489
0.526892
0.525296
0.5237
0.522106
0.520512
0.51892
0.517328
0.515737
0.514147
0.512559
0.510971
0.509384
0.507798
0.506214
0.50463
0.503048
0.501467
0.499887
0.498308
0.496731
0.495155
0.49358
0.492007
0.490435
0.488864
0.487295
0.485727
0.484161
0.482596
0.481032
0.47947
0.47791
0.476351
0.474794
0.473239
0.471685
0.470133
0.468582
0.467033
0.465486
0.463941
0.462397
0.460855
0.459315
0.457777
0.456241
0.454706
0.453174
0.451643
0.450114
0.448587
0.447062
0.445539
0.444018
0.442499
0.440982
0.439467
0.437954
0.436443
0.434935
0.433428
0.431923
0.430421
0.428921
0.427422
0.425926
0.424433
0.422941
0.421452
0.419964
0.418479
0.416997
0.415516
0.414038
0.412562
0.411089
0.409617
0.408149
0.406682
0.405218
0.403756
0.402296
0.400839
0.399384
0.397932
0.396482
0.395035
0.39359
0.392147
0.390707
0.389269
0.387834
0.386401
0.384971
0.383543
0.382118
0.380695
0.379274
0.377857
0.376442
0.375029
0.373619
0.372211
0.370806
0.369404
0.368004
0.366607
0.365212
0.36382
0.362431
0.361044
0.35966
0.358278
0.356899
0.355523
0.354149
0.352778
0.351409
0.350044
0.348681
0.34732
0.345962
0.344607
0.343255
0.341905
0.340558
0.339214
0.337872
0.336533
0.335197
0.333863
0.332532
0.331204
0.329878
0.328556
0.327236
0.325918
0.324604
0.323292
0.321983
0.320676
0.319372
0.318071
0.316773
0.315478
0.314185
0.312895
0.311607
0.310323
0.309041
0.307762
0.306485
0.305212
0.303941
0.302673
0.301407
0.300145
0.298885
0.297627
0.296373
0.295121
0.293872
0.292626
0.291383
0.290142
0.288904
0.287669
0.286436
0.285207
0.28398
0.282755
0.281534
0.280315
0.279099
0.277886
0.276675
0.275467
0.274262
0.27306
0.27186
0.270664
0.269469
0.268278
0.267089
0.265903
0.26472
0.263539
0.262362
0.261186
0.260014
0.258844
0.257678
0.256512
0.255354
0.254193
0.253083
0.252059
0.252059
1
1
1
1
1
1
1
1
1
1
1
1
1
1
1
1
1
1
1
1
1
1
1
1
1
1
1
1
1
1
1
1
1
1
1
0.999999
0.999999
0.999999
0.999999
0.999998
0.999997
0.999997
0.999995
0.999994
0.999992
0.99999
0.999988
0.999985
0.999982
0.999978
0.999973
0.999968
0.999961
0.999954
0.999946
0.999937
0.999926
0.999914
0.999901
0.999886
0.99987
0.999852
0.999832
0.99981
0.999786
0.99976
0.999731
0.9997
0.999667
0.999631
0.999592
0.99955
0.999505
0.999457
0.999406
0.999352
0.999294
0.999232
0.999167
0.999098
0.999026
0.998949
0.998869
0.998784
0.998695
0.998602
0.998504
0.998402
0.998296
0.998185
0.998069
0.997949
0.997824
0.997694
0.997559
0.997419
0.997274
0.997124
0.99697
0.99681
0.996645
0.996474
0.996299
0.996118
0.995933
0.995742
0.995545
0.995343
0.995136
0.994924
0.994706
0.994483
0.994255
0.994022
0.993783
0.993538
0.993289
0.993034
0.992773
0.992508
0.992237
0.991961
0.991679
0.991393
0.991101
0.990804
0.990501
0.990194
0.989882
0.989564
0.989241
0.988914
0.988581
0.988243
0.9879
0.987553
0.9872
0.986843
0.986481
0.986114
0.985742
0.985366
0.984985
0.984599
0.984209
0.983814
0.983415
0.983011
0.982603
0.982191
0.981774
0.981353
0.980927
0.980497
0.980064
0.979626
0.979184
0.978738
0.978288
0.977834
0.977376
0.976914
0.976448
0.975979
0.975506
0.975029
0.974549
0.974065
0.973578
0.973087
0.972592
0.972094
0.971593
0.971089
0.970581
0.97007
0.969555
0.969038
0.968518
0.967994
0.967467
0.966938
0.966405
0.96587
0.965332
0.964791
0.964247
0.963701
0.963152
0.9626
0.962045
0.961488
0.960929
0.960367
0.959803
0.959236
0.958667
0.958095
0.957521
0.956946
0.956367
0.955787
0.955205
0.95462
0.954033
0.953445
0.952854
0.952262
0.951667
0.951071
0.950473
0.949873
0.949271
0.948667
0.948062
0.947455
0.946847
0.946237
0.945625
0.945012
0.944397
0.943781
0.943164
0.942544
0.941924
0.941302
0.940679
0.940055
0.939429
0.938802
0.938174
0.937545
0.936914
0.936283
0.93565
0.935016
0.934382
0.933746
0.933109
0.932471
0.931833
0.931193
0.930552
0.929911
0.929269
0.928625
0.927981
0.927337
0.926691
0.926045
0.925398
0.92475
0.924102
0.923452
0.922803
0.922152
0.921501
0.920849
0.920197
0.919544
0.91889
0.918236
0.917582
0.916926
0.916271
0.915614
0.914958
0.9143
0.913642
0.912984
0.912325
0.911666
0.911006
0.910345
0.909685
0.909023
0.908361
0.907699
0.907036
0.906373
0.905709
0.905044
0.904379
0.903714
0.903048
0.902381
0.901714
0.901046
0.900378
0.899709
0.899039
0.898369
0.897698
0.897027
0.896354
0.895681
0.895008
0.894333
0.893658
0.892982
0.892305
0.891627
0.890948
0.890269
0.889588
0.888907
0.888224
0.88754
0.886855
0.88617
0.885482
0.884794
0.884105
0.883414
0.882722
0.882028
0.881333
0.880637
0.879939
0.87924
0.878539
0.877836
0.877132
0.876426
0.875718
0.875009
0.874297
0.873584
0.872868
0.872151
0.871432
0.87071
0.869986
0.86926
0.868532
0.867801
0.867069
0.866333
0.865595
0.864855
0.864112
0.863366
0.862617
0.861866
0.861112
0.860355
0.859595
0.858832
0.858066
0.857297
0.856525
0.85575
0.854971
0.854189
0.853404
0.852615
0.851822
0.851027
0.850227
0.849424
0.848617
0.847807
0.846992
0.846174
0.845352
0.844526
0.843696
0.842862
0.842024
0.841181
0.840335
0.839484
0.838629
0.83777
0.836906
0.836038
0.835165
0.834288
0.833406
0.83252
0.831629
0.830733
0.829833
0.828927
0.828018
0.827103
0.826183
0.825259
0.82433
0.823395
0.822456
0.821512
0.820562
0.819608
0.818648
0.817684
0.816714
0.815739
0.814759
0.813773
0.812782
0.811787
0.810785
0.809779
0.808767
0.80775
0.806727
0.805699
0.804666
0.803627
0.802583
0.801533
0.800478
0.799418
0.798352
0.79728
0.796204
0.795121
0.794033
0.79294
0.791841
0.790737
0.789627
0.788512
0.787392
0.786265
0.785134
0.783997
0.782854
0.781706
0.780552
0.779394
0.778229
0.777059
0.775884
0.774703
0.773517
0.772326
0.771129
0.769927
0.768719
0.767507
0.766289
0.765065
0.763836
0.762602
0.761363
0.760119
0.758869
0.757615
0.756355
0.75509
0.75382
0.752544
0.751264
0.749979
0.748689
0.747393
0.746093
0.744788
0.743478
0.742163
0.740844
0.739519
0.73819
0.736856
0.735517
0.734174
0.732826
0.731474
0.730116
0.728755
0.727389
0.726018
0.724643
0.723264
0.72188
0.720492
0.719099
0.717703
0.716302
0.714897
0.713488
0.712075
0.710658
0.709236
0.707811
0.706382
0.704949
0.703512
0.702072
0.700627
0.699179
0.697727
0.696272
0.694813
0.69335
0.691884
0.690415
0.688942
0.687466
0.685986
0.684503
0.683017
0.681528
0.680035
0.678539
0.677041
0.675539
0.674034
0.672527
0.671016
0.669503
0.667987
0.666468
0.664946
0.663422
0.661895
0.660365
0.658833
0.657299
0.655762
0.654222
0.652681
0.651137
0.64959
0.648042
0.646491
0.644938
0.643383
0.641826
0.640267
0.638707
0.637144
0.635579
0.634013
0.632444
0.630874
0.629303
0.627729
0.626154
0.624578
0.623
0.62142
0.61984
0.618257
0.616674
0.615089
0.613503
0.611915
0.610327
0.608737
0.607146
0.605554
0.603961
0.602368
0.600773
0.599177
0.597581
0.595984
0.594386
0.592787
0.591187
0.589587
0.587987
0.586386
0.584784
0.583182
0.581579
0.579976
0.578372
0.576769
0.575165
0.57356
0.571956
0.570351
0.568746
0.567141
0.565536
0.563931
0.562326
0.560721
0.559116
0.557511
0.555907
0.554302
0.552698
0.551094
0.54949
0.547886
0.546283
0.544681
0.543078
0.541476
0.539875
0.538274
0.536674
0.535074
0.533475
0.531876
0.530279
0.528681
0.527085
0.525489
0.523895
0.522301
0.520707
0.519115
0.517524
0.515933
0.514344
0.512755
0.511168
0.509581
0.507996
0.506412
0.504829
0.503247
0.501666
0.500086
0.498508
0.496931
0.495355
0.493781
0.492208
0.490636
0.489065
0.487496
0.485929
0.484363
0.482798
0.481235
0.479673
0.478113
0.476555
0.474998
0.473443
0.471889
0.470337
0.468787
0.467238
0.465691
0.464146
0.462603
0.461061
0.459521
0.457983
0.456447
0.454913
0.45338
0.45185
0.450321
0.448794
0.447269
0.445746
0.444226
0.442707
0.44119
0.439675
0.438162
0.436652
0.435143
0.433636
0.432132
0.43063
0.429129
0.427631
0.426135
0.424642
0.42315
0.421661
0.420174
0.418689
0.417206
0.415726
0.414248
0.412772
0.411299
0.409827
0.408359
0.406892
0.405428
0.403966
0.402507
0.40105
0.399595
0.398143
0.396693
0.395245
0.3938
0.392357
0.390917
0.38948
0.388044
0.386612
0.385181
0.383754
0.382328
0.380905
0.379485
0.378067
0.376652
0.37524
0.373829
0.372422
0.371017
0.369614
0.368215
0.366817
0.365423
0.364031
0.362641
0.361254
0.35987
0.358488
0.357109
0.355733
0.354359