# vtk DataFile Version 2.0
FlowField
ASCII
DATASET STRUCTURED_GRID
DIMENSIONS 800 1 200
POINTS 160000 float
0 0 0
0.04 0 0
0.08 0 0
0.12 0 0
0.16 0 0
0.2 0 0
0.24 0 0
0.28 0 0
0.32 0 0
0.36 0 0
0.4 0 0
0.44 0 0
0.48 0 0
0.52 0 0
0.56 0 0
0.6 0 0
0.64 0 0
0.68 0 0
0.72 0 0
0.76 0 0
0.8 0 0
0.84 0 0
0.88 0 0
0.92 0 0
0.96 0 0
1 0 0
1.04 0 0
1.08 0 0
1.12 0 0
1.16 0 0
1.2 0 0
1.24 0 0
1.28 0 0
1.32 0 0
1.36 0 0
1.4 0 0
1.44 0 0
1.48 0 0
1.52 0 0
1.56 0 0
1.6 0 0
1.64 0 0
1.68 0 0
1.72 0 0
1.76 0 0
1.8 0 0
1.84 0 0
1.88 0 0
1.92 0 0
1.96 0 0
2 0 0
2.04 0 0
2.08 0 0
2.12 0 0
2.16 0 0
2.2 0 0
2.24 0 0
2.28 0 0
2.32 0 0
2.36 0 0
2.4 0 0
2.44 0 0
2.48 0 0
2.52 0 0
2.56 0 0
2.6 0 0
2.64 0 0
2.68 0 0
2.72 0 0
2.76 0 0
2.8 0 0
2.84 0 0
2.88 0 0
2.92 0 0
2.96 0 0
3 0 0
3.04 0 0
3.08 0 0
3.12 0 0
3.16 0 0
3.2 0 0
3.24 0 0
3.28 0 0
3.32 0 0
3.36 0 0
3.4 0 0
3.44 0 0
3.48 0 0
3.52 0 0
3.56 0 0
3.6 0 0
3.64 0 0
3.68 0 0
3.72 0 0
3.76 0 0
3.8 0 0
3.84 0 0
3.88 0 0
3.92 0 0
3.96 0 0
4 0 0
4.04 0 0
4.08 0 0
4.12 0 0
4.16 0 0
4.2 0 0
4.24 0 0
4.28 0 0
4.32 0 0
4.36 0 0
4.4 0 0
4.44 0 0
4.48 0 0
4.52 0 0
4.56 0 0
4.6 0 0
4.64 0 0
4.68 0 0
4.72 0 0
4.76 0 0
4.8 0 0
4.84 0 0
4.88 0 0
4.92 0 0
4.96 0 0
5 0 0
5.04 0 0
5.08 0 0
5.12 0 0
5.16 0 0
5.2 0 0
5.24 0 0
5.28 0 0
5.32 0 0
5.36 0 0
5.4 0 0
5.44 0 0
5.48 0 0
5.52 0 0
5.56 0 0
5.6 0 0
5.64 0 0
5.68 0 0
5.72 0 0
5.76 0 0
5.8 0 0
5.84 0 0
5.88 0 0
5.92 0 0
5.96 0 0
6 0 0
6.04 0 0
6.08 0 0
6.12 0 0
6.16 0 0
6.2 0 0
6.24 0 0
6.28 0 0
6.32 0 0
6.36 0 0
6.4 0 0
6.44 0 0
6.48 0 0
6.52 0 0
6.56 0 0
6.6 0 0
6.64 0 0
6.68 0 0
6.72 0 0
6.76 0 0
6.8 0 0
6.84 0 0
6.88 0 0
6.92 0 0
6.96 0 0
7 0 0
7.04 0 0
7.08 0 0
7.12 0 0
7.16 0 0
7.2 0 0
7.24 0 0
7.28 0 0
7.32 0 0
7.36 0 0
7.4 0 0
7.44 0 0
7.48 0 0
7.52 0 0
7.56 0 0
7.6 0 0
7.64 0 0
7.68 0 0
7.72 0 0
7.76 0 0
7.8 0 0
7.84 0 0
7.88 0 0
7.92 0 0
7.96 0 0
8 0 0
8.04 0 0
8.08 0 0
8.12 0 0
8.16 0 0
8.2 0 0
8.24 0 0
8.28 0 0
8.32 0 0
8.36 0 0
8.4 0 0
8.44 0 0
8.48 0 0
8.52 0 0
8.56 0 0
8.6 0 0
8.64 0 0
8.68 0 0
8.72 0 0
8.76 0 0
8.8 0 0
8.84 0 0
8.88 0 0
8.92 0 0
8.96 0 0
9 0 0
9.04 0 0
9.08 0 0
9.12 0 0
9.16 0 0
9.2 0 0
9.24 0 0
9.28 0 0
9.32 0 0
9.36 0 0
9.4 0 0
9.44 0 0
9.48 0 0
9.52 0 0
9.56 0 0
9.6 0 0
9.64 0 0
9.68 0 0
9.72 0 0
9.76 0 0
9.8 0 0
9.84 0 0
9.88 0 0
9.92 0 0
9.96 0 0
10 0 0
10.04 0 0
10.08 0 0
10.12 0 0
10.16 0 0
10.2 0 0
10.24 0 0
10.28 0 0
10.32 0 0
10.36 0 0
10.4 0 0
10.44 0 0
10.48 0 0
10.52 0 0
10.56 0 0
10.6 0 0
10.64 0 0
10.68 0 0
10.72 0 0
10.76 0 0
10.8 0 0
10.84 0 0
10.88 0 0
10.92 0 0
10.96 0 0
11 0 0
11.04 0 0
11.08 0 0
11.12 0 0
11.16 0 0
11.2 0 0
11.24 0 0
11.28 0 0
11.32 0 0
11.36 0 0
11.4 0 0
11.44 0 0
11.48 0 0
11.52 0 0
11.56 0 0
11.6 0 0
11.64 0 0
11.68 0 0
11.72 0 0
11.76 0 0
11.8 0 0
11.84 0 0
11.88 0 0
11.92 0 0
11.96 0 0
12 0 0
12.04 0 0
12.08 0 0
12.12 0 0
12.16 0 0
12.2 0 0
12.24 0 0
12.28 0 0
12.32 0 0
12.36 0 0
12.4 0 0
12.44 0 0
12.48 0 0
12.52 0 0
12.56 0 0
12.6 0 0
12.64 0 0
12.68 0 0
12.72 0 0
12.76 0 0
12.8 0 0
12.84 0 0
12.88 0 0
12.92 0 0
12.96 0 0
13 0 0
13.04 0 0
13.08 0 0
13.12 0 0
13.16 0 0
13.2 0 0
13.24 0 0
13.28 0 0
13.32 0 0
13.36 0 0
13.4 0 0
13.44 0 0
13.48 0 0
13.52 0 0
13.56 0 0
13.6 0 0
13.64 0 0
13.68 0 0
13.72 0 0
13.76 0 0
13.8 0 0
13.84 0 0
13.88 0 0
13.92 0 0
13.96 0 0
14 0 0
14.04 0 0
14.08 0 0
14.12 0 0
14.16 0 0
14.2 0 0
14.24 0 0
14.28 0 0
14.32 0 0
14.36 0 0
14.4 0 0
14.44 0 0
14.48 0 0
14.52 0 0
14.56 0 0
14.6 0 0
14.64 0 0
14.68 0 0
14.72 0 0
14.76 0 0
14.8 0 0
14.84 0 0
14.88 0 0
14.92 0 0
14.96 0 0
15 0 0
15.04 0 0
15.08 0 0
15.12 0 0
15.16 0 0
15.2 0 0
15.24 0 0
15.28 0 0
15.32 0 0
15.36 0 0
15.4 0 0
15.44 0 0
15.48 0 0
15.52 0 0
15.56 0 0
15.6 0 0
15.64 0 0
15.68 0 0
15.72 0 0
15.76 0 0
15.8 0 0
15.84 0 0
15.88 0 0
15.92 0 0
15.96 0 0
16 0 0
16.04 0 0
16.08 0 0
16.12 0 0
16.16 0 0
16.2 0 0
16.24 0 0
16.28 0 0
16.32 0 0
16.36 0 0
16.4 0 0
16.44 0 0
16.48 0 0
16.52 0 0
16.56 0 0
16.6 0 0
16.64 0 0
16.68 0 0
16.72 0 0
16.76 0 0
16.8 0 0
16.84 0 0
16.88 0 0
16.92 0 0
16.96 0 0
17 0 0
17.04 0 0
17.08 0 0
17.12 0 0
17.16 0 0
17.2 0 0
17.24 0 0
17.28 0 0
17.32 0 0
17.36 0 0
17.4 0 0
17.44 0 0
17.48 0 0
17.52 0 0
17.56 0 0
17.6 0 0
17.64 0 0
17.68 0 0
17.72 0 0
17.76 0 0
17.8 0 0
17.84 0 0
17.88 0 0
17.92 0 0
17.96 0 0
18 0 0
18.04 0 0
18.08 0 0
18.12 0 0
18.16 0 0
18.2 0 0
18.24 0 0
18.28 0 0
18.32 0 0
18.36 0 0
18.4 0 0
18.44 0 0
18.48 0 0
18.52 0 0
18.56 0 0
18.6 0 0
18.64 0 0
18.68 0 0
18.72 0 0
18.76 0 0
18.8 0 0
18.84 0 0
18.88 0 0
18.92 0 0
18.96 0 0
19 0 0
19.04 0 0
19.08 0 0
19.12 0 0
19.16 0 0
19.2 0 0
19.24 0 0
19.28 0 0
19.32 0 0
19.36 0 0
19.4 0 0
19.44 0 0
19.48 0 0
19.52 0 0
19.56 0 0
19.6 0 0
19.64 0 0
19.68 0 0
19.72 0 0
19.76 0 0
19.8 0 0
19.84 0 0
19.88 0 0
19.92 0 0
19.96 0 0
20 0 0
20.04 0 0
20.08 0 0
20.12 0 0
20.16 0 0
20.2 0 0
20.24 0 0
20.28 0 0
20.32 0 0
20.36 0 0
20.4 0 0
20.44 0 0
20.48 0 0
20.52 0 0
20.56 0 0
20.6 0 0
20.64 0 0
20.68 0 0
20.72 0 0
20.76 0 0
20.8 0 0
20.84 0 0
20.88 0 0
20.92 0 0
20.96 0 0
21 0 0
21.04 0 0
21.08 0 0
21.12 0 0
21.16 0 0
21.2 0 0
21.24 0 0
21.28 0 0
21.32 0 0
21.36 0 0
21.4 0 0
21.44 0 0
21.48 0 0
21.52 0 0
21.56 0 0
21.6 0 0
21.64 0 0
21.68 0 0
21.72 0 0
21.76 0 0
21.8 0 0
21.84 0 0
21.88 0 0
21.92 0 0
21.96 0 0
22 0 0
22.04 0 0
22.08 0 0
22.12 0 0
22.16 0 0
22.2 0 0
22.24 0 0
22.28 0 0
22.32 0 0
22.36 0 0
22.4 0 0
22.44 0 0
22.48 0 0
22.52 0 0
22.56 0 0
22.6 0 0
22.64 0 0
22.68 0 0
22.72 0 0
22.76 0 0
22.8 0 0
22.84 0 0
22.88 0 0
22.92 0 0
22.96 0 0
23 0 0
23.04 0 0
23.08 0 0
23.12 0 0
23.16 0 0
23.2 0 0
23.24 0 0
23.28 0 0
23.32 0 0
23.36 0 0
23.4 0 0
23.44 0 0
23.48 0 0
23.52 0 0
23.56 0 0
23.6 0 0
23.64 0 0
23.68 0 0
23.72 0 0
23.76 0 0
23.8 0 0
23.84 0 0
23.88 0 0
23.92 0 0
23.96 0 0
24 0 0
24.04 0 0
24.08 0 0
24.12 0 0
24.16 0 0
24.2 0 0
24.24 0 0
24.28 0 0
24.32 0 0
24.36 0 0
24.4 0 0
24.44 0 0
24.48 0 0
24.52 0 0
24.56 0 0
24.6 0 0
24.64 0 0
24.68 0 0
24.72 0 0
24.76 0 0
24.8 0 0
24.84 0 0
24.88 0 0
24.92 0 0
24.96 0 0
25 0 0
25.04 0 0
25.08 0 0
25.12 0 0
25.16 0 0
25.2 0 0
25.24 0 0
25.28 0 0
25.32 0 0
25.36 0 0
25.4 0 0
25.44 0 0
25.48 0 0
25.52 0 0
25.56 0 0
25.6 0 0
25.64 0 0
25.68 0 0
25.72 0 0
25.76 0 0
25.8 0 0
25.84 0 0
25.88 0 0
25.92 0 0
25.96 0 0
26 0 0
26.04 0 0
26.08 0 0
26.12 0 0
26.16 0 0
26.2 0 0
26.24 0 0
26.28 0 0
26.32 0 0
26.36 0 0
26.4 0 0
26.44 0 0
26.48 0 0
26.52 0 0
26.56 0 0
26.6 0 0
26.64 0 0
26.68 0 0
26.72 0 0
26.76 0 0
26.8 0 0
26.84 0 0
26.88 0 0
26.92 0 0
26.96 0 0
27 0 0
27.04 0 0
27.08 0 0
27.12 0 0
27.16 0 0
27.2 0 0
27.24 0 0
27.28 0 0
27.32 0 0
27.36 0 0
27.4 0 0
27.44 0 0
27.48 0 0
27.52 0 0
27.56 0 0
27.6 0 0
27.64 0 0
27.68 0 0
27.72 0 0
27.76 0 0
27.8 0 0
27.84 0 0
27.88 0 0
27.92 0 0
27.96 0 0
28 0 0
28.04 0 0
28.08 0 0
28.12 0 0
28.16 0 0
28.2 0 0
28.24 0 0
28.28 0 0
28.32 0 0
28.36 0 0
28.4 0 0
28.44 0 0
28.48 0 0
28.52 0 0
28.56 0 0
28.6 0 0
28.64 0 0
28.68 0 0
28.72 0 0
28.76 0 0
28.8 0 0
28.84 0 0
28.88 0 0
28.92 0 0
28.96 0 0
29 0 0
29.04 0 0
29.08 0 0
29.12 0 0
29.16 0 0
29.2 0 0
29.24 0 0
29.28 0 0
29.32 0 0
29.36 0 0
29.4 0 0
29.44 0 0
29.48 0 0
29.52 0 0
29.56 0 0
29.6 0 0
29.64 0 0
29.68 0 0
29.72 0 0
29.76 0 0
29.8 0 0
29.84 0 0
29.88 0 0
29.92 0 0
29.96 0 0
30 0 0
30.04 0 0
30.08 0 0
30.12 0 0
30.16 0 0
30.2 0 0
30.24 0 0
30.28 0 0
30.32 0 0
30.36 0 0
30.4 0 0
30.44 0 0
30.48 0 0
30.52 0 0
30.56 0 0
30.6 0 0
30.64 0 0
30.68 0 0
30.72 0 0
30.76 0 0
30.8 0 0
30.84 0 0
30.88 0 0
30.92 0 0
30.96 0 0
31 0 0
31.04 0 0
31.08 0 0
31.12 0 0
31.16 0 0
31.2 0 0
31.24 0 0
31.28 0 0
31.32 0 0
31.36 0 0
31.4 0 0
31.44 0 0
31.48 0 0
31.52 0 0
31.56 0 0
31.6 0 0
31.64 0 0
31.68 0 0
31.72 0 0
31.76 0 0
31.8 0 0
31.84 0 0
31.88 0 0
31.92 0 0
31.96 0 0
0 0.005 0
0.04 0.005 0
0.08 0.005 0
0.12 0.005 0
0.16 0.005 0
0.2 0.005 0
0.24 0.005 0
0.28 0.005 0
0.32 0.005 0
0.36 0.005 0
0.4 0.005 0
0.44 0.005 0
0.48 0.005 0
0.52 0.005 0
0.56 0.005 0
0.6 0.005 0
0.64 0.005 0
0.68 0.005 0
0.72 0.005 0
0.76 0.005 0
0.8 0.005 0
0.84 0.005 0
0.88 0.005 0
0.92 0.005 0
0.96 0.005 0
1 0.005 0
1.04 0.005 0
1.08 0.005 0
1.12 0.005 0
1.16 0.005 0
1.2 0.005 0
1.24 0.005 0
1.28 0.005 0
1.32 0.005 0
1.36 0.005 0
1.4 0.005 0
1.44 0.005 0
1.48 0.005 0
1.52 0.005 0
1.56 0.005 0
1.6 0.005 0
1.64 0.005 0
1.68 0.005 0
1.72 0.005 0
1.76 0.005 0
1.8 0.005 0
1.84 0.005 0
1.88 0.005 0
1.92 0.005 0
1.96 0.005 0
2 0.005 0
2.04 0.005 0
2.08 0.005 0
2.12 0.005 0
2.16 0.005 0
2.2 0.005 0
2.24 0.005 0
2.28 0.005 0
2.32 0.005 0
2.36 0.005 0
2.4 0.005 0
2.44 0.005 0
2.48 0.005 0
2.52 0.005 0
2.56 0.005 0
2.6 0.005 0
2.64 0.005 0
2.68 0.005 0
2.72 0.005 0
2.76 0.005 0
2.8 0.005 0
2.84 0.005 0
2.88 0.005 0
2.92 0.005 0
2.96 0.005 0
3 0.005 0
3.04 0.005 0
3.08 0.005 0
3.12 0.005 0
3.16 0.005 0
3.2 0.005 0
3.24 0.005 0
3.28 0.005 0
3.32 0.005 0
3.36 0.005 0
3.4 0.005 0
3.44 0.005 0
3.48 0.005 0
3.52 0.005 0
3.56 0.005 0
3.6 0.005 0
3.64 0.005 0
3.68 0.005 0
3.72 0.005 0
3.76 0.005 0
3.8 0.005 0
3.84 0.005 0
3.88 0.005 0
3.92 0.005 0
3.96 0.005 0
4 0.005 0
4.04 0.005 0
4.08 0.005 0
4.12 0.005 0
4.16 0.005 0
4.2 0.005 0
4.24 0.005 0
4.28 0.005 0
4.32 0.005 0
4.36 0.005 0
4.4 0.005 0
4.44 0.005 0
4.48 0.005 0
4.52 0.005 0
4.56 0.005 0
4.6 0.005 0
4.64 0.005 0
4.68 0.005 0
4.72 0.005 0
4.76 0.005 0
4.8 0.005 0
4.84 0.005 0
4.88 0.005 0
4.92 0.005 0
4.96 0.005 0
5 0.005 0
5.04 0.005 0
5.08 0.005 0
5.12 0.005 0
5.16 0.005 0
5.2 0.005 0
5.24 0.005 0
5.28 0.005 0
5.32 0.005 0
5.36 0.005 0
5.4 0.005 0
5.44 0.005 0
5.48 0.005 0
5.52 0.005 0
5.56 0.005 0
5.6 0.005 0
5.64 0.005 0
5.68 0.005 0
5.72 0.005 0
5.76 0.005 0
5.8 0.005 0
5.84 0.005 0
5.88 0.005 0
5.92 0.005 0
5.96 0.005 0
6 0.005 0
6.04 0.005 0
6.08 0.005 0
6.12 0.005 0
6.16 0.005 0
6.2 0.005 0
6.24 0.005 0
6.28 0.005 0
6.32 0.005 0
6.36 0.005 0
6.4 0.005 0
6.44 0.005 0
6.48 0.005 0
6.52 0.005 0
6.56 0.005 0
6.6 0.005 0
6.64 0.005 0
6.68 0.005 0
6.72 0.005 0
6.76 0.005 0
6.8 0.005 0
6.84 0.005 0
6.88 0.005 0
6.92 0.005 0
6.96 0.005 0
7 0.005 0
7.04 0.005 0
7.08 0.005 0
7.12 0.005 0
7.16 0.005 0
7.2 0.005 0
7.24 0.005 0
7.28 0.005 0
7.32 0.005 0
7.36 0.005 0
7.4 0.005 0
[...]
POINT_DATA 160000

SCALARS u float 1
LOOKUP_TABLE default
-1
-0.483358
-0.183963
-0.108845
-0.081033
-0.0668336
-0.058118
-0.0521526
-0.0477773
-0.0444144
-0.0417411
-0.0395613
-0.0377481
-0.0362151
-0.0349014
-0.0337623
-0.0327646
-0.0318828
-0.0310972
-0.0303921
-0.0297552
-0.0291762
-0.028647
-0.0281609
-0.0277123
-0.0272966
-0.0269097
-0.0265485
-0.0262102
-0.0258923
-0.0255927
-0.0253098
-0.0250419
-0.0247878
-0.0245463
-0.0243162
-0.0240968
-0.0238872
-0.0236867
-0.0234946
-0.0233104
-0.0231335
-0.0229635
-0.0227999
-0.0226423
-0.0224904
-0.0223439
-0.0222024
-0.0220657
-0.0219335
-0.0218056
-0.0216817
-0.0215617
-0.0214454
-0.0213326
-0.021223
-0.0211167
-0.0210134
-0.020913
-0.0208153
-0.0207203
-0.0206278
-0.0205378
-0.0204501
-0.0203646
-0.0202812
-0.0202
-0.0201207
-0.0200433
-0.0199677
-0.0198939
-0.0198218
-0.0197514
-0.0196825
-0.0196152
-0.0195493
-0.0194849
-0.0194218
-0.0193601
-0.0192996
-0.0192404
-0.0191824
-0.0191256
-0.0190699
-0.0190153
-0.0189618
-0.0189093
-0.0188577
-0.0188072
-0.0187576
-0.0187089
-0.0186612
-0.0186142
-0.0185682
-0.0185229
-0.0184784
-0.0184347
-0.0183918
-0.0183496
-0.0183081
-0.0182673
-0.0182272
-0.0181877
-0.0181489
-0.0181107
-0.0180731
-0.0180361
-0.0179998
-0.0179639
-0.0179287
-0.0178939
-0.0178598
-0.0178261
-0.0177929
-0.0177602
-0.0177281
-0.0176963
-0.0176651
-0.0176343
-0.017604
-0.017574
-0.0175445
-0.0175155
-0.0174868
-0.0174585
-0.0174307
-0.0174032
-0.017376
-0.0173493
-0.0173229
-0.0172969
-0.0172712
-0.0172458
-0.0172208
-0.0171961
-0.0171718
-0.0171477
-0.017124
-0.0171005
-0.0170774
-0.0170546
-0.017032
-0.0170097
-0.0169877
-0.016966
-0.0169446
-0.0169234
-0.0169024
-0.0168818
-0.0168613
-0.0168412
-0.0168212
-0.0168015
-0.0167821
-0.0167629
-0.0167439
-0.0167251
-0.0167065
-0.0166882
-0.0166701
-0.0166521
-0.0166344
-0.0166169
-0.0165996
-0.0165825
-0.0165656
-0.0165489
-0.0165323
-0.016516
-0.0164998
-0.0164839
-0.0164681
-0.0164524
-0.016437
-0.0164217
-0.0164066
-0.0163916
-0.0163769
-0.0163622
-0.0163478
-0.0163335
-0.0163193
-0.0163053
-0.0162915
-0.0162778
-0.0162642
-0.0162508
-0.0162376
-0.0162245
-0.0162115
-0.0161986
-0.0161859
-0.0161734
-0.0161609
-0.0161486
-0.0161364
-0.0161244
-0.0161125
-0.0161007
-0.016089
-0.0160774
-0.016066
-0.0160547
-0.0160435
-0.0160324
-0.0160214
-0.0160106
-0.0159998
-0.0159892
-0.0159787
-0.0159682
-0.0159579
-0.0159477
-0.0159376
-0.0159276
-0.0159177
-0.0159079
-0.0158982
-0.0158886
-0.0158791
-0.0158697
-0.0158604
-0.0158512
-0.015842
-0.015833
-0.0158241
-0.0158152
-0.0158064
-0.0157978
-0.0157892
-0.0157807
-0.0157722
-0.0157639
-0.0157556
-0.0157475
-0.0157394
-0.0157314
-0.0157234
-0.0157156
-0.0157078
-0.0157001
-0.0156925
-0.0156849
-0.0156774
-0.01567
-0.0156627
-0.0156554
-0.0156483
-0.0156411
-0.0156341
-0.0156271
-0.0156202
-0.0156134
-0.0156066
-0.0155999
-0.0155932
-0.0155867
-0.0155801
-0.0155737
-0.0155673
-0.015561
-0.0155547
-0.0155485
-0.0155423
-0.0155363
-0.0155302
-0.0155243
-0.0155183
-0.0155125
-0.0155067
-0.0155009
-0.0154953
-0.0154896
-0.015484
-0.0154785
-0.015473
-0.0154676
-0.0154622
-0.0154569
-0.0154517
-0.0154464
-0.0154413
-0.0154361
-0.0154311
-0.0154261
-0.0154211
-0.0154162
-0.0154113
-0.0154064
-0.0154016
-0.0153969
-0.0153922
-0.0153876
-0.0153829
-0.0153784
-0.0153738
-0.0153694
-0.0153649
-0.0153605
-0.0153562
-0.0153519
-0.0153476
-0.0153434
-0.0153392
-0.015335
-0.0153309
-0.0153268
-0.0153228
-0.0153188
-0.0153148
-0.0153109
-0.015307
-0.0153032
-0.0152994
-0.0152956
-0.0152919
-0.0152882
-0.0152845
-0.0152809
-0.0152773
-0.0152737
-0.0152702
-0.0152667
-0.0152633
-0.0152598
-0.0152565
-0.0152531
-0.0152498
-0.0152465
-0.0152433
-0.0152401
-0.0152369
-0.0152338
-0.0152307
-0.0152276
-0.0152246
-0.0152216
-0.0152186
-0.0152157
-0.0152128
-0.0152099
-0.0152071
-0.0152043
-0.0152015
-0.0151988
-0.0151961
-0.0151934
-0.0151908
-0.0151882
-0.0151857
-0.0151831
-0.0151806
-0.0151782
-0.0151757
-0.0151733
-0.015171
-0.0151687
-0.0151664
-0.0151641
-0.0151619
-0.0151597
-0.0151575
-0.0151553
-0.0151532
-0.0151512
-0.0151491
-0.0151471
-0.0151451
-0.0151432
-0.0151413
-0.0151394
-0.0151375
-0.0151357
-0.0151339
-0.0151322
-0.0151304
-0.0151287
-0.015127
-0.0151254
-0.0151238
-0.0151222
-0.0151206
-0.0151191
-0.0151176
-0.0151161
-0.0151147
-0.0151132
-0.0151118
-0.0151105
-0.0151091
-0.0151078
-0.0151065
-0.0151053
-0.015104
-0.0151028
-0.0151016
-0.0151004
-0.0150993
-0.0150982
-0.0150971
-0.015096
-0.015095
-0.0150939
-0.0150929
-0.0150919
-0.015091
-0.01509
-0.0150891
-0.0150882
-0.0150873
-0.0150864
-0.0150856
-0.0150847
-0.0150839
-0.0150831
-0.0150823
-0.0150816
-0.0150808
-0.0150801
-0.0150794
-0.0150787
-0.015078
-0.0150773
-0.0150767
-0.015076
-0.0150754
-0.0150748
-0.0150742
-0.0150736
-0.015073
-0.0150724
-0.0150719
-0.0150713
-0.0150708
-0.0150703
-0.0150697
-0.0150692
-0.0150687
-0.0150683
-0.0150678
-0.0150673
-0.0150669
-0.0150664
-0.015066
-0.0150655
-0.0150651
-0.0150647
-0.0150642
-0.0150638
-0.0150634
-0.015063
-0.0150626
-0.0150622
-0.0150619
-0.0150615
-0.0150611
-0.0150607
-0.0150604
-0.01506
-0.0150597
-0.0150593
-0.015059
-0.0150586
-0.0150583
-0.0150579
-0.0150576
-0.0150572
-0.0150569
-0.0150566
-0.0150562
-0.0150559
-0.0150556
-0.0150553
-0.0150549
-0.0150546
-0.0150543
-0.015054
-0.0150537
-0.0150534
-0.015053
-0.0150527
-0.0150524
-0.0150521
-0.0150518
-0.0150515
-0.0150512
-0.0150509
-0.0150505
-0.0150502
-0.0150499
-0.0150496
-0.0150493
-0.015049
-0.0150487
-0.0150484
-0.0150481
-0.0150478
-0.0150475
-0.0150472
-0.0150469
-0.0150465
-0.0150462
-0.0150459
-0.0150456
-0.0150453
-0.015045
-0.0150447
-0.0150444
-0.0150441
-0.0150438
-0.0150435
-0.0150432
-0.0150429
-0.0150426
-0.0150423
-0.015042
-0.0150416
-0.0150413
-0.015041
-0.0150407
-0.0150404
-0.0150401
-0.0150398
-0.0150395
-0.0150392
-0.0150389
-0.0150386
-0.0150383
-0.015038
-0.0150377
-0.0150374
-0.015037
-0.0150367
-0.0150364
-0.0150361
-0.0150358
-0.0150355
-0.0150352
-0.0150349
-0.0150346
-0.0150343
-0.015034
-0.0150337
-0.0150334
-0.0150331
-0.0150328
-0.0150325
-0.0150321
-0.0150318
-0.0150315
-0.0150312
-0.0150309
-0.0150306
-0.0150303
-0.01503
-0.0150297
-0.0150294
-0.0150291
-0.0150288
-0.0150285
-0.0150282
-0.0150279
-0.0150275
-0.0150272
-0.0150269
-0.0150266
-0.0150263
-0.015026
-0.0150257
-0.0150254
-0.0150251
-0.0150248
-0.0150245
-0.0150242
-0.0150239
-0.0150236
-0.0150233
-0.015023
-0.0150226
-0.0150223
-0.015022
-0.0150217
-0.0150214
-0.0150211
-0.0150208
-0.0150205
-0.0150202
-0.0150199
-0.0150196
-0.0150193
-0.015019
-0.0150187
-0.0150184
-0.0150181
-0.0150177
-0.0150174
-0.0150171
-0.0150168
-0.0150165
-0.0150162
-0.0150159
-0.0150156
-0.0150153
-0.015015
-0.0150147
-0.0150144
-0.0150141
-0.0150138
-0.0150135
-0.0150132
-0.0150128
-0.0150125
-0.0150122
-0.0150119
-0.0150116
-0.0150113
-0.015011
-0.0150107
-0.0150104
-0.0150101
-0.0150098
-0.0150095
-0.0150092
-0.0150089
-0.0150086
-0.0150082
-0.0150079
-0.0150076
-0.0150073
-0.015007
-0.0150067
-0.0150064
-0.0150061
-0.0150058
-0.0150055
-0.0150052
-0.0150049
-0.0150046
-0.0150043
-0.015004
-0.0150037
-0.0150033
-0.015003
-0.0150027
-0.0150024
-0.0150021
-0.0150018
-0.0150015
-0.0150012
-0.0150009
-0.0150006
-0.0150003
-0.015
-0.0149997
-0.0149994
-0.0149991
-0.0149988
-0.0149984
-0.0149981
-0.0149978
-0.0149975
-0.0149972
-0.0149969
-0.0149966
-0.0149963
-0.014996
-0.0149957
-0.0149954
-0.0149951
-0.0149948
-0.0149945
-0.0149942
-0.0149939
-0.0149935
-0.0149932
-0.0149929
-0.0149926
-0.0149923
-0.014992
-0.0149917
-0.0149914
-0.0149911
-0.0149908
-0.0149905
-0.0149902
-0.0149899
-0.0149896
-0.0149893
-0.014989
-0.0149886
-0.0149883
-0.014988
-0.0149877
-0.0149874
-0.0149871
-0.0149868
-0.0149865
-0.0149862
-0.0149859
-0.0149856
-0.0149853
-0.014985
-0.0149847
-0.0149844
-0.0149841
-0.0149837
-0.0149834
-0.0149831
-0.0149828
-0.0149825
-0.0149822
-0.0149819
-0.0149816
-0.0149813
-0.014981
-0.0149807
-0.0149804
-0.0149801
-0.0149798
-0.0149795
-0.0149792
-0.0149788
-0.0149785
-0.0149782
-0.0149779
-0.0149776
-0.0149773
-0.014977
-0.0149767
-0.0149764
-0.0149761
-0.0149758
-0.0149755
-0.0149752
-0.0149749
-0.0149746
-0.0149743
-0.0149739
-0.0149736
-0.0149733
-0.014973
-0.0149727
-0.0149724
-0.0149721
-0.0149718
-0.0149715
-0.0149712
-0.0149709
-0.0149706
-0.0149703
-0.01497
-0.0149697
-0.0149694
-0.014969
-0.0149687
-0.0149684
-0.0149681
-0.0149678
-0.0149675
-0.0149672
-0.0149669
-0.0149666
-0.0149663
-0.014966
-0.0149657
-0.0149654
-0.0149651
-0.0149648
-0.0149644
-0.0149641
-0.0149638
-0.0149635
-0.0149632
-0.0149629
-0.0149626
-0.0149623
-0.014962
-0.0149617
-0.0149614
-0.014961
-0.0149607
-0.0149604
-0.0149601
-0.0149598
-0.0149594
-0.0149591
-0.0149587
-0.0149584
-0.014958
-0.0149576
-0.0149572
-0.0149567
-0.0149562
-0.0149557
-0.014955
-0.0149544
-0.0149534
-0.014953
-0.014953
-0.014953
1
0.483358
0.183963
0.108845
0.081033
0.0668336
0.058118
0.0521526
0.0477773
0.0444144
0.0417411
0.0395613
0.0377481
0.0362151
0.0349014
0.0337623
0.0327646
0.0318828
0.0310972
0.0303921
0.0297552
0.0291762
0.028647
0.0281609
0.0277123
0.0272966
0.0269097
0.0265485
0.0262102
0.0258923
0.0255927
0.0253098
0.0250419
0.0247878
0.0245463
0.0243162
0.0240968
0.0238872
0.0236867
0.0234946
0.0233104
0.0231335
0.0229635
0.0227999
0.0226423
0.0224904
0.0223439
0.0222024
0.0220657
0.0219335
0.0218056
0.0216817
0.0215617
0.0214454
0.0213326
0.021223
0.0211167
0.0210134
0.020913
0.0208153
0.0207203
0.0206278
0.0205378
0.0204501
0.0203646
0.0202812
0.0202
0.0201207
0.0200433
0.0199677
0.0198939
0.0198218
0.0197514
0.0196825
0.0196152
0.0195493
0.0194849
0.0194218
0.0193601
0.0192996
0.0192404
0.0191824
0.0191256
0.0190699
0.0190153
0.0189618
0.0189093
0.0188577
0.0188072
0.0187576
0.0187089
0.0186612
0.0186142
0.0185682
0.0185229
0.0184784
0.0184347
0.0183918
0.0183496
0.0183081
0.0182673
0.0182272
0.0181877
0.0181489
0.0181107
0.0180731
0.0180361
0.0179998
0.0179639
0.0179287
0.0178939
0.0178598
0.0178261
0.0177929
0.0177602
0.0177281
0.0176963
0.0176651
0.0176343
0.017604
0.017574
0.0175445
0.0175155
0.0174868
0.0174585
0.0174307
0.0174032
0.017376
0.0173493
0.0173229
0.0172969
0.0172712
0.0172458
0.0172208
0.0171961
0.0171718
0.0171477
0.017124
0.0171005
0.0170774
0.0170546
0.017032
0.0170097
0.0169877
0.016966
0.0169446
0.0169234
0.0169024
0.0168818
0.0168613
0.0168412
0.0168212
0.0168015
0.0167821
0.0167629
0.0167439
0.0167251
0.0167065
0.0166882
0.0166701
0.0166521
0.0166344
0.0166169
0.0165996
0.0165825
0.0165656
0.0165489
0.0165323
0.016516
0.0164998
0.0164839
0.0164681
0.0164524
0.016437
0.0164217
0.0164066
0.0163916
0.0163769
0.0163622
0.0163478
0.0163335
0.0163193
0.0163053
0.0162915
0.0162778
0.0162642
0.0162508
0.0162376
0.0162245
0.0162115
0.0161986
0.0161859
0.0161734
0.0161609
0.0161486
0.0161364
0.0161244
0.0161125
0.0161007
0.016089
0.0160774
0.016066
0.0160547
0.0160435
0.0160324
0.0160214
0.0160106
0.0159998
0.0159892
0.0159787
0.0159682
0.0159579
0.0159477
0.0159376
0.0159276
0.0159177
0.0159079
0.0158982
0.0158886
0.0158791
0.0158697
0.0158604
0.0158512
0.015842
0.015833
0.0158241
0.0158152
0.0158064
0.0157978
0.0157892
0.0157807
0.0157722
0.0157639
0.0157556
0.0157475
0.0157394
0.0157314
0.0157234
0.0157156
0.0157078
0.0157001
0.0156925
0.0156849
0.0156774
0.01567
0.0156627
0.0156554
0.0156483
0.0156411
0.0156341
0.0156271
0.0156202
0.0156134
0.0156066
0.0155999
0.0155932
0.0155867
0.0155801
0.0155737
0.0155673
0.015561
0.0155547
0.0155485
0.0155423
0.0155363
0.0155302
0.0155243
0.0155183
0.0155125
0.0155067
0.0155009
0.0154953
0.0154896
0.015484
0.0154785
0.015473
0.0154676
0.0154622
0.0154569
0.0154517
0.0154464
0.0154413
0.0154361
0.0154311
0.0154261
0.0154211
0.0154162
0.0154113
0.0154064
0.0154016
0.0153969
0.0153922
0.0153876
0.0153829
0.0153784
0.0153738
0.0153694
0.0153649
0.0153605
0.0153562
0.0153519
0.0153476
0.0153434
0.0153392
0.015335
0.0153309
0.0153268
0.0153228
0.0153188
0.0153148
0.0153109
0.015307
0.0153032
0.0152994
0.0152956
0.0152919
0.0152882
0.0152845
0.0152809
0.0152773
0.0152737
0.0152702
0.0152667
0.0152633
0.0152598
0.0152565
0.0152531
0.0152498
0.0152465
0.0152433
0.0152401
0.0152369
0.0152338
0.0152307
0.0152276
0.0152246
0.0152216
0.0152186
0.0152157
0.0152128
0.0152099
0.0152071
0.0152043
0.0152015
0.0151988
0.0151961
0.0151934
0.0151908
0.0151882
0.0151857
0.0151831
0.0151806
0.0151782
0.0151757
0.0151733
0.015171
0.0151687
0.0151664
0.0151641
0.0151619
0.0151597
0.0151575
0.0151553
0.0151532
0.0151512
0.0151491
0.0151471
0.0151451
0.0151432
0.0151413
0.0151394
0.0151375
0.0151357
0.0151339
0.0151322
0.0151304
0.0151287
0.015127
0.0151254
0.0151238
0.0151222
0.0151206
0.0151191
0.0151176
0.0151161
0.0151147
0.0151132
0.0151118
0.0151105
0.0151091
0.0151078
0.0151065
0.0151053
0.015104
0.0151028
0.0151016
0.0151004
0.0150993
0.0150982
0.0150971
0.015096
0.015095
0.0150939
0.0150929
0.0150919
0.015091
0.01509
0.0150891
0.0150882
0.0150873
0.0150864
0.0150856
0.0150847
0.0150839
0.0150831
0.0150823
0.0150816
0.0150808
0.0150801
0.0150794
0.0150787
0.015078
0.0150773
0.0150767
0.015076
0.0150754
0.0150748
0.0150742
0.0150736
0.015073
0.0150724
0.0150719
0.0150713
0.0150708
0.0150703
0.0150697
0.0150692
0.0150687
0.0150683
0.0150678
0.0150673
0.0150669
0.0150664
0.015066
0.0150655
0.0150651
0.0150647
0.0150642
0.0150638
0.0150634
0.015063
0.0150626
0.0150622
0.0150619
0.0150615
0.0150611
0.0150607
0.0150604
0.01506
0.0150597
0.0150593
0.015059
0.0150586
0.0150583
0.0150579
0.0150576
0.0150572
0.0150569
0.0150566
0.0150562
0.0150559
0.0150556
0.0150553
0.0150549
0.0150546
0.0150543
0.015054
0.0150537
0.0150534
0.015053
0.0150527
0.0150524
0.0150521
0.0150518
0.0150515
0.0150512
0.0150509
0.0150505
0.0150502
0.0150499
0.0150496
0.0150493
0.015049
0.0150487
0.0150484
0.0150481
0.0150478
0.0150475
0.0150472
0.0150469
0.0150465
0.0150462
0.0150459
0.0150456
0.0150453
0.015045
0.0150447
0.0150444
0.0150441
0.0150438
0.0150435
0.0150432
0.0150429
0.0150426
0.0150423
0.015042
0.0150416
0.0150413
0.015041
0.0150407
0.0150404
0.0150401
0.0150398
0.0150395
0.0150392
0.0150389
0.0150386
0.0150383
0.015038
0.0150377
0.0150374
0.015037
0.0150367
0.0150364
0.0150361
0.0150358
0.0150355
0.0150352
0.0150349
0.0150346
0.0150343
0.015034
0.0150337
0.0150334
0.0150331
0.0150328
0.0150325
0.0150321
0.0150318
0.0150315
0.0150312
0.0150309
0.0150306
0.0150303
0.01503
0.0150297
0.0150294
0.0150291
0.0150288
0.0150285
0.0150282
0.0150279
0.0150275
0.0150272
0.0150269
0.0150266
0.0150263
0.015026
0.0150257
0.0150254
0.0150251
0.0150248
0.0150245
0.0150242
0.0150239
0.0150236
0.0150233
0.015023
0.0150226
0.0150223
0.015022
0.0150217
0.0150214
0.0150211
0.0150208
0.0150205
0.0150202
0.0150199
0.0150196
0.0150193
0.015019
0.0150187
0.0150184
0.0150181
0.0150177
0.0150174
0.0150171
0.0150168
0.0150165
0.0150162
0.0150159
0.0150156
0.0150153
0.015015
0.0150147
0.0150144
0.0150141
0.0150138
0.0150135
0.0150132
0.0150128
0.0150125
0.0150122
0.0150119
0.0150116
0.0150113
0.015011
0.0150107
0.0150104
0.0150101
0.0150098
0.0150095
0.0150092
0.0150089
0.0150086
0.0150082
0.0150079
0.0150076
0.0150073
0.015007
0.0150067
0.0150064
0.0150061
0.0150058
0.0150055
0.0150052
0.0150049
0.0150046
0.0150043
0.015004
0.0150037
0.0150033
0.015003
0.0150027
0.0150024
0.0150021
0.0150018
0.0150015
0.0150012
0.0150009
0.0150006
0.0150003
0.015
0.0149997
0.0149994
0.0149991
0.0149988
0.0149984
0.0149981
0.0149978
0.0149975
0.0149972
0.0149969
0.0149966
0.0149963
0.014996
0.0149957
0.0149954
0.0149951
0.0149948
0.0149945
0.0149942
0.0149939
0.0149935
0.0149932
0.0149929
0.0149926
0.0149923
0.014992
0.0149917
0.0149914
0.0149911
0.0149908
0.0149905
0.0149902
0.0149899
0.0149896
0.0149893
0.014989
0.0149886
0.0149883
0.014988
0.0149877
0.0149874
0.0149871
0.0149868
0.0149865
0.0149862
0.0149859
0.0149856
0.0149853
0.014985
0.0149847
0.0149844
0.0149841
0.0149837
0.0149834
0.0149831
0.0149828
0.0149825
0.0149822
0.0149819
0.0149816
0.0149813
0.014981
0.0149807
0.0149804
0.0149801
0.0149798
0.0149795
0.0149792
0.0149788
0.0149785
0.0149782
0.0149779
0.0149776
0.0149773
0.014977
0.0149767
0.0149764
0.0149761
0.0149758
0.0149755
0.0149752
0.0149749
0.0149746
0.0149743
0.0149739
0.0149736
0.0149733
0.014973
0.0149727
0.0149724
0.0149721
0.0149718
0.0149715
0.0149712
0.0149709
0.0149706
0.0149703
0.01497
0.0149697
0.0149694
0.014969
0.0149687
0.0149684
0.0149681
0.0149678
0.0149675
0.0149672
0.0149669
0.0149666
0.0149663
0.014966
0.0149657
0.0149654
0.0149651
0.0149648
0.0149644
0.0149641
0.0149638
0.0149635
0.0149632
0.0149629
0.0149626
0.0149623
0.014962
0.0149617
0.0149614
0.014961
0.0149607
0.0149604
0.0149601
0.0149598
0.0149594
0.0149591
0.0149587
0.0149584
0.014958
0.0149576
0.0149572
0.0149567
0.0149562
0.0149557
0.014955
0.0149544
0.0149534
0.014953
0.014953
0.014953
1
0.969191
0.495616
0.314223
0.237897
0.197396
0.172133
0.154696
0.141842
0.131928
0.124027
0.117573
0.112196
0.107645
0.103741
0.100354
0.097386
0.0947617
0.0924228
0.0903235
0.0884268
0.0867028
0.0851274
0.0836804
0.0823453
0.0811082
0.0799575
0.0788833
0.0778773
0.0769324
0.0760423
0.0752019
0.0744064
0.0736519
0.0729349
0.0722523
0.0716013
0.0709796
0.0703849
0.0698154
0.0692693
0.0687449
0.068241
0.0677563
0.0672894
0.0668395
0.0664055
0.0659865
0.0655816
0.0651902
0.0648115
0.0644448
0.0640896
0.0637452
0.0634113
0.0630872
0.0627725
0.0624667
0.0621696
0.0618806
0.0615995
0.061326
0.0610596
0.0608001
0.0605472
0.0603007
0.0600602
0.0598257
0.0595968
0.0593733
0.0591551
0.0589419
0.0587336
0.0585299
0.0583308
0.058136
0.0579455
0.0577591
0.0575765
0.0573978
0.0572228
0.0570513
0.0568834
0.0567187
0.0565573
0.0563991
0.0562438
0.0560916
0.0559422
0.0557957
0.0556518
0.0555106
0.0553719
0.0552357
0.0551019
0.0549705
0.0548414
0.0547145
0.0545898
0.0544672
0.0543466
0.0542281
0.0541115
0.0539968
0.0538839
0.0537729
0.0536637
0.0535562
0.0534503
0.0533462
0.0532436
0.0531426
0.0530431
0.0529451
0.0528486
0.0527536
0.0526599
0.0525676
0.0524766
0.052387
0.0522986
0.0522115
0.0521256
0.052041
0.0519575
0.0518751
0.051794
0.0517139
0.0516349
0.0515569
0.0514801
0.0514042
0.0513293
0.0512555
0.0511826
0.0511106
0.0510396
0.0509695
0.0509003
0.050832
0.0507646
0.050698
0.0506322
0.0505673
0.0505032
0.0504398
0.0503773
0.0503155
0.0502545
0.0501942
0.0501346
0.0500758
0.0500177
0.0499602
0.0499035
0.0498474
0.0497919
0.0497372
0.049683
0.0496295
0.0495767
0.0495244
0.0494727
0.0494216
0.0493712
0.0493212
0.0492719
0.0492231
0.0491749
0.0491272
0.04908
0.0490334
0.0489873
0.0489417
0.0488966
0.048852
0.0488079
0.0487642
0.0487211
0.0486784
0.0486362
0.0485945
0.0485532
0.0485123
0.0484719
0.0484319
0.0483924
0.0483533
0.0483146
0.0482763
0.0482384
0.0482009
0.0481638
0.0481271
0.0480908
0.0480549
0.0480193
0.0479841
0.0479493
0.0479149
0.0478808
0.0478471
0.0478137
0.0477806
0.0477479
0.0477156
0.0476836
0.0476519
0.0476205
0.0475894
0.0475587
0.0475283
0.0474982
0.0474684
0.0474389
0.0474097
0.0473808
0.0473522
0.0473239
0.0472958
0.0472681
0.0472406
0.0472134
0.0471865
0.0471599
0.0471335
0.0471074
0.0470815
0.0470559
0.0470306
0.0470055
0.0469806
0.046956
0.0469317
0.0469076
0.0468837
0.0468601
0.0468367
0.0468135
0.0467906
0.0467679
0.0467454
0.0467231
0.0467011
0.0466792
0.0466576
0.0466362
0.046615
0.046594
0.0465732
0.0465527
0.0465323
0.0465121
0.0464921
0.0464723
0.0464527
0.0464333
0.0464141
0.0463951
0.0463762
0.0463576
0.0463391
0.0463208
0.0463027
0.0462847
0.0462669
0.0462493
0.0462319
0.0462146
0.0461975
0.0461806
0.0461638
0.0461472
0.0461307
0.0461144
0.0460983
0.0460823
0.0460665
0.0460508
0.0460353
0.0460199
0.0460046
0.0459895
0.0459746
0.0459598
0.0459451
0.0459306
0.0459162
0.0459019
0.0458878
0.0458738
0.04586
0.0458462
0.0458326
0.0458192
0.0458058
0.0457926
0.0457795
0.0457666
0.0457537
0.045741
0.0457284
0.0457159
0.0457036
0.0456913
0.0456792
0.0456672
0.0456553
0.0456435
0.0456318
0.0456203
0.0456088
0.0455975
0.0455863
0.0455752
0.0455641
0.0455533
0.0455425
0.0455318
0.0455212
0.0455107
0.0455004
0.0454901
0.0454799
0.0454699
0.0454599
0.0454501
0.0454404
0.0454307
0.0454212
0.0454118
0.0454024
0.0453932
0.0453841
0.045375
0.0453661
0.0453573