# vtk DataFile Version 2.0
FlowField
ASCII
DATASET STRUCTURED_GRID
DIMENSIONS 800 1 200
POINTS 160000 float
0 0 0
0.04 0 0
0.08 0 0
0.12 0 0
0.16 0 0
0.2 0 0
0.24 0 0
0.28 0 0
0.32 0 0
0.36 0 0
0.4 0 0
0.44 0 0
0.48 0 0
0.52 0 0
0.56 0 0
0.6 0 0
0.64 0 0
0.68 0 0
0.72 0 0
0.76 0 0
0.8 0 0
0.84 0 0
0.88 0 0
0.92 0 0
0.96 0 0
1 0 0
1.04 0 0
1.08 0 0
1.12 0 0
1.16 0 0
1.2 0 0
1.24 0 0
1.28 0 0
1.32 0 0
1.36 0 0
1.4 0 0
1.44 0 0
1.48 0 0
1.52 0 0
1.56 0 0
1.6 0 0
1.64 0 0
1.68 0 0
1.72 0 0
1.76 0 0
1.8 0 0
1.84 0 0
1.88 0 0
1.92 0 0
1.96 0 0
2 0 0
2.04 0 0
2.08 0 0
2.12 0 0
2.16 0 0
2.2 0 0
2.24 0 0
2.28 0 0
2.32 0 0
2.36 0 0
2.4 0 0
2.44 0 0
2.48 0 0
2.52 0 0
2.56 0 0
2.6 0 0
2.64 0 0
2.68 0 0
2.72 0 0
2.76 0 0
2.8 0 0
2.84 0 0
2.88 0 0
2.92 0 0
2.96 0 0
3 0 0
3.04 0 0
3.08 0 0
3.12 0 0
3.16 0 0
3.2 0 0
3.24 0 0
3.28 0 0
3.32 0 0
3.36 0 0
3.4 0 0
3.44 0 0
3.48 0 0
3.52 0 0
3.56 0 0
3.6 0 0
3.64 0 0
3.68 0 0
3.72 0 0
3.76 0 0
3.8 0 0
3.84 0 0
3.88 0 0
3.92 0 0
3.96 0 0
4 0 0
4.04 0 0
4.08 0 0
4.12 0 0
4.16 0 0
4.2 0 0
4.24 0 0
4.28 0 0
4.32 0 0
4.36 0 0
4.4 0 0
4.44 0 0
4.48 0 0
4.52 0 0
4.56 0 0
4.6 0 0
4.64 0 0
4.68 0 0
4.72 0 0
4.76 0 0
4.8 0 0
4.84 0 0
4.88 0 0
4.92 0 0
4.96 0 0
5 0 0
5.04 0 0
5.08 0 0
5.12 0 0
5.16 0 0
5.2 0 0
5.24 0 0
5.28 0 0
5.32 0 0
5.36 0 0
5.4 0 0
5.44 0 0
5.48 0 0
5.52 0 0
5.56 0 0
5.6 0 0
5.64 0 0
5.68 0 0
5.72 0 0
5.76 0 0
5.8 0 0
5.84 0 0
5.88 0 0
5.92 0 0
5.96 0 0
6 0 0
6.04 0 0
6.08 0 0
6.12 0 0
6.16 0 0
6.2 0 0
6.24 0 0
6.28 0 0
6.32 0 0
6.36 0 0
6.4 0 0
6.44 0 0
6.48 0 0
6.52 0 0
6.56 0 0
6.6 0 0
6.64 0 0
6.68 0 0
6.72 0 0
6.76 0 0
6.8 0 0
6.84 0 0
6.88 0 0
6.92 0 0
6.96 0 0
7 0 0
7.04 0 0
7.08 0 0
7.12 0 0
7.16 0 0
7.2 0 0
7.24 0 0
7.28 0 0
7.32 0 0
7.36 0 0
7.4 0 0
7.44 0 0
7.48 0 0
7.52 0 0
7.56 0 0
7.6 0 0
7.64 0 0
7.68 0 0
7.72 0 0
7.76 0 0
7.8 0 0
7.84 0 0
7.88 0 0
7.92 0 0
7.96 0 0
8 0 0
8.04 0 0
8.08 0 0
8.12 0 0
8.16 0 0
8.2 0 0
8.24 0 0
8.28 0 0
8.32 0 0
8.36 0 0
8.4 0 0
8.44 0 0
8.48 0 0
8.52 0 0
8.56 0 0
8.6 0 0
8.64 0 0
8.68 0 0
8.72 0 0
8.76 0 0
8.8 0 0
8.84 0 0
8.88 0 0
8.92 0 0
8.96 0 0
9 0 0
9.04 0 0
9.08 0 0
9.12 0 0
9.16 0 0
9.2 0 0
9.24 0 0
9.28 0 0
9.32 0 0
9.36 0 0
9.4 0 0
9.44 0 0
9.48 0 0
9.52 0 0
9.56 0 0
9.6 0 0
9.64 0 0
9.68 0 0
9.72 0 0
9.76 0 0
9.8 0 0
9.84 0 0
9.88 0 0
9.92 0 0
9.96 0 0
10 0 0
10.04 0 0
10.08 0 0
10.12 0 0
10.16 0 0
10.2 0 0
10.24 0 0
10.28 0 0
10.32 0 0
10.36 0 0
10.4 0 0
10.44 0 0
10.48 0 0
10.52 0 0
10.56 0 0
10.6 0 0
10.64 0 0
10.68 0 0
10.72 0 0
10.76 0 0
10.8 0 0
10.84 0 0
10.88 0 0
10.92 0 0
10.96 0 0
11 0 0
11.04 0 0
11.08 0 0
11.12 0 0
11.16 0 0
11.2 0 0
11.24 0 0
11.28 0 0
11.32 0 0
11.36 0 0
11.4 0 0
11.44 0 0
11.48 0 0
11.52 0 0
11.56 0 0
11.6 0 0
11.64 0 0
11.68 0 0
11.72 0 0
11.76 0 0
11.8 0 0
11.84 0 0
11.88 0 0
11.92 0 0
11.96 0 0
12 0 0
12.04 0 0
12.08 0 0
12.12 0 0
12.16 0 0
12.2 0 0
12.24 0 0
12.28 0 0
12.32 0 0
12.36 0 0
12.4 0 0
12.44 0 0
12.48 0 0
12.52 0 0
12.56 0 0
12.6 0 0
12.64 0 0
12.68 0 0
12.72 0 0
12.76 0 0
12.8 0 0
12.84 0 0
12.88 0 0
12.92 0 0
12.96 0 0
13 0 0
13.04 0 0
13.08 0 0
13.12 0 0
13.16 0 0
13.2 0 0
13.24 0 0
13.28 0 0
13.32 0 0
13.36 0 0
13.4 0 0
13.44 0 0
13.48 0 0
13.52 0 0
13.56 0 0
13.6 0 0
13.64 0 0
13.68 0 0
13.72 0 0
13.76 0 0
13.8 0 0
13.84 0 0
13.88 0 0
13.92 0 0
13.96 0 0
14 0 0
14.04 0 0
14.08 0 0
14.12 0 0
14.16 0 0
14.2 0 0
14.24 0 0
14.28 0 0
14.32 0 0
14.36 0 0
14.4 0 0
14.44 0 0
14.48 0 0
14.52 0 0
14.56 0 0
14.6 0 0
14.64 0 0
14.68 0 0
14.72 0 0
14.76 0 0
14.8 0 0
14.84 0 0
14.88 0 0
14.92 0 0
14.96 0 0
15 0 0
15.04 0 0
15.08 0 0
15.12 0 0
15.16 0 0
15.2 0 0
15.24 0 0
15.28 0 0
15.32 0 0
15.36 0 0
15.4 0 0
15.44 0 0
15.48 0 0
15.52 0 0
15.56 0 0
15.6 0 0
15.64 0 0
15.68 0 0
15.72 0 0
15.76 0 0
15.8 0 0
15.84 0 0
15.88 0 0
15.92 0 0
15.96 0 0
16 0 0
16.04 0 0
16.08 0 0
16.12 0 0
16.16 0 0
16.2 0 0
16.24 0 0
16.28 0 0
16.32 0 0
16.36 0 0
16.4 0 0
16.44 0 0
16.48 0 0
16.52 0 0
16.56 0 0
16.6 0 0
16.64 0 0
16.68 0 0
16.72 0 0
16.76 0 0
16.8 0 0
16.84 0 0
16.88 0 0
16.92 0 0
16.96 0 0
17 0 0
17.04 0 0
17.08 0 0
17.12 0 0
17.16 0 0
17.2 0 0
17.24 0 0
17.28 0 0
17.32 0 0
17.36 0 0
17.4 0 0
17.44 0 0
17.48 0 0
17.52 0 0
17.56 0 0
17.6 0 0
17.64 0 0
17.68 0 0
17.72 0 0
17.76 0 0
17.8 0 0
17.84 0 0
17.88 0 0
17.92 0 0
17.96 0 0
18 0 0
18.04 0 0
18.08 0 0
18.12 0 0
18.16 0 0
18.2 0 0
18.24 0 0
18.28 0 0
18.32 0 0
18.36 0 0
18.4 0 0
18.44 0 0
18.48 0 0
18.52 0 0
18.56 0 0
18.6 0 0
18.64 0 0
18.68 0 0
18.72 0 0
18.76 0 0
18.8 0 0
18.84 0 0
18.88 0 0
18.92 0 0
18.96 0 0
19 0 0
19.04 0 0
19.08 0 0
19.12 0 0
19.16 0 0
19.2 0 0
19.24 0 0
19.28 0 0
19.32 0 0
19.36 0 0
19.4 0 0
19.44 0 0
19.48 0 0
19.52 0 0
19.56 0 0
19.6 0 0
19.64 0 0
19.68 0 0
19.72 0 0
19.76 0 0
19.8 0 0
19.84 0 0
19.88 0 0
19.92 0 0
19.96 0 0
20 0 0
20.04 0 0
20.08 0 0
20.12 0 0
20.16 0 0
20.2 0 0
20.24 0 0
20.28 0 0
20.32 0 0
20.36 0 0
20.4 0 0
20.44 0 0
20.48 0 0
20.52 0 0
20.56 0 0
20.6 0 0
20.64 0 0
20.68 0 0
20.72 0 0
20.76 0 0
20.8 0 0
20.84 0 0
20.88 0 0
20.92 0 0
20.96 0 0
21 0 0
21.04 0 0
21.08 0 0
21.12 0 0
21.16 0 0
21.2 0 0
21.24 0 0
21.28 0 0
21.32 0 0
21.36 0 0
21.4 0 0
21.44 0 0
21.48 0 0
21.52 0 0
21.56 0 0
21.6 0 0
21.64 0 0
21.68 0 0
21.72 0 0
21.76 0 0
21.8 0 0
21.84 0 0
21.88 0 0
21.92 0 0
21.96 0 0
22 0 0
22.04 0 0
22.08 0 0
22.12 0 0
22.16 0 0
22.2 0 0
22.24 0 0
22.28 0 0
22.32 0 0
22.36 0 0
22.4 0 0
22.44 0 0
22.48 0 0
22.52 0 0
22.56 0 0
22.6 0 0
22.64 0 0
22.68 0 0
22.72 0 0
22.76 0 0
22.8 0 0
22.84 0 0
22.88 0 0
22.92 0 0
22.96 0 0
23 0 0
23.04 0 0
23.08 0 0
23.12 0 0
23.16 0 0
23.2 0 0
23.24 0 0
23.28 0 0
23.32 0 0
23.36 0 0
23.4 0 0
23.44 0 0
23.48 0 0
23.52 0 0
23.56 0 0
23.6 0 0
23.64 0 0
23.68 0 0
23.72 0 0
23.76 0 0
23.8 0 0
23.84 0 0
23.88 0 0
23.92 0 0
23.96 0 0
24 0 0
24.04 0 0
24.08 0 0
24.12 0 0
24.16 0 0
24.2 0 0
24.24 0 0
24.28 0 0
24.32 0 0
24.36 0 0
24.4 0 0
24.44 0 0
24.48 0 0
24.52 0 0
24.56 0 0
24.6 0 0
24.64 0 0
24.68 0 0
24.72 0 0
24.76 0 0
24.8 0 0
24.84 0 0
24.88 0 0
24.92 0 0
24.96 0 0
25 0 0
25.04 0 0
25.08 0 0
25.12 0 0
25.16 0 0
25.2 0 0
25.24 0 0
25.28 0 0
25.32 0 0
25.36 0 0
25.4 0 0
25.44 0 0
25.48 0 0
25.52 0 0
25.56 0 0
25.6 0 0
25.64 0 0
25.68 0 0
25.72 0 0
25.76 0 0
25.8 0 0
25.84 0 0
25.88 0 0
25.92 0 0
25.96 0 0
26 0 0
26.04 0 0
26.08 0 0
26.12 0 0
26.16 0 0
26.2 0 0
26.24 0 0
26.28 0 0
26.32 0 0
26.36 0 0
26.4 0 0
26.44 0 0
26.48 0 0
26.52 0 0
26.56 0 0
26.6 0 0
26.64 0 0
26.68 0 0
26.72 0 0
26.76 0 0
26.8 0 0
26.84 0 0
26.88 0 0
26.92 0 0
26.96 0 0
27 0 0
27.04 0 0
27.08 0 0
27.12 0 0
27.16 0 0
27.2 0 0
27.24 0 0
27.28 0 0
27.32 0 0
27.36 0 0
27.4 0 0
27.44 0 0
27.48 0 0
27.52 0 0
27.56 0 0
27.6 0 0
27.64 0 0
27.68 0 0
27.72 0 0
27.76 0 0
27.8 0 0
27.84 0 0
27.88 0 0
27.92 0 0
27.96 0 0
28 0 0
28.04 0 0
28.08 0 0
28.12 0 0
28.16 0 0
28.2 0 0
28.24 0 0
28.28 0 0
28.32 0 0
28.36 0 0
28.4 0 0
28.44 0 0
28.48 0 0
28.52 0 0
28.56 0 0
28.6 0 0
28.64 0 0
28.68 0 0
28.72 0 0
28.76 0 0
28.8 0 0
28.84 0 0
28.88 0 0
28.92 0 0
28.96 0 0
29 0 0
29.04 0 0
29.08 0 0
29.12 0 0
29.16 0 0
29.2 0 0
29.24 0 0
29.28 0 0
29.32 0 0
29.36 0 0
29.4 0 0
29.44 0 0
29.48 0 0
29.52 0 0
29.56 0 0
29.6 0 0
29.64 0 0
29.68 0 0
29.72 0 0
29.76 0 0
29.8 0 0
29.84 0 0
29.88 0 0
29.92 0 0
29.96 0 0
30 0 0
30.04 0 0
30.08 0 0
30.12 0 0
30.16 0 0
30.2 0 0
30.24 0 0
30.28 0 0
30.32 0 0
30.36 0 0
30.4 0 0
30.44 0 0
30.48 0 0
30.52 0 0
30.56 0 0
30.6 0 0
30.64 0 0
30.68 0 0
30.72 0 0
30.76 0 0
30.8 0 0
30.84 0 0
30.88 0 0
30.92 0 0
30.96 0 0
31 0 0
31.04 0 0
31.08 0 0
31.12 0 0
31.16 0 0
31.2 0 0
31.24 0 0
31.28 0 0
31.32 0 0
31.36 0 0
31.4 0 0
31.44 0 0
31.48 0 0
31.52 0 0
31.56 0 0
31.6 0 0
31.64 0 0
31.68 0 0
31.72 0 0
31.76 0 0
31.8 0 0
31.84 0 0
31.88 0 0
31.92 0 0
31.96 0 0
0 0.005 0
0.04 0.005 0
0.08 0.005 0
0.12 0.005 0
0.16 0.005 0
0.2 0.005 0
0.24 0.005 0
0.28 0.005 0
0.32 0.005 0
0.36 0.005 0
0.4 0.005 0
0.44 0.005 0
0.48 0.005 0
0.52 0.005 0
0.56 0.005 0
0.6 0.005 0
0.64 0.005 0
0.68 0.005 0
0.72 0.005 0
0.76 0.005 0
0.8 0.005 0
0.84 0.005 0
0.88 0.005 0
0.92 0.005 0
0.96 0.005 0
1 0.005 0
1.04 0.005 0
1.08 0.005 0
1.12 0.005 0
1.16 0.005 0
1.2 0.005 0
1.24 0.005 0
1.28 0.005 0
1.32 0.005 0
1.36 0.005 0
1.4 0.005 0
1.44 0.005 0
1.48 0.005 0
1.52 0.005 0
1.56 0.005 0
1.6 0.005 0
1.64 0.005 0
1.68 0.005 0
1.72 0.005 0
1.76 0.005 0
1.8 0.005 0
1.84 0.005 0
1.88 0.005 0
1.92 0.005 0
1.96 0.005 0
2 0.005 0
2.04 0.005 0
2.08 0.005 0
2.12 0.005 0
2.16 0.005 0
2.2 0.005 0
2.24 0.005 0
2.28 0.005 0
2.32 0.005 0
2.36 0.005 0
2.4 0.005 0
2.44 0.005 0
2.48 0.005 0
2.52 0.005 0
2.56 0.005 0
2.6 0.005 0
2.64 0.005 0
2.68 0.005 0
2.72 0.005 0
2.76 0.005 0
2.8 0.005 0
2.84 0.005 0
2.88 0.005 0
2.92 0.005 0
2.96 0.005 0
3 0.005 0
3.04 0.005 0
3.08 0.005 0
3.12 0.005 0
3.16 0.005 0
3.2 0.005 0
3.24 0.005 0
3.28 0.005 0
3.32 0.005 0
3.36 0.005 0
3.4 0.005 0
3.44 0.005 0
3.48 0.005 0
3.52 0.005 0
3.56 0.005 0
3.6 0.005 0
3.64 0.005 0
3.68 0.005 0
3.72 0.005 0
3.76 0.005 0
3.8 0.005 0
3.84 0.005 0
3.88 0.005 0
3.92 0.005 0
3.96 0.005 0
4 0.005 0
4.04 0.005 0
4.08 0.005 0
4.12 0.005 0
4.16 0.005 0
4.2 0.005 0
4.24 0.005 0
4.28 0.005 0
4.32 0.005 0
4.36 0.005 0
4.4 0.005 0
4.44 0.005 0
4.48 0.005 0
4.52 0.005 0
4.56 0.005 0
4.6 0.005 0
4.64 0.005 0
4.68 0.005 0
4.72 0.005 0
4.76 0.005 0
4.8 0.005 0
4.84 0.005 0
4.88 0.005 0
4.92 0.005 0
4.96 0.005 0
5 0.005 0
5.04 0.005 0
5.08 0.005 0
5.12 0.005 0
5.16 0.005 0
5.2 0.005 0
5.24 0.005 0
5.28 0.005 0
5.32 0.005 0
5.36 0.005 0
5.4 0.005 0
5.44 0.005 0
5.48 0.005 0
5.52 0.005 0
5.56 0.005 0
5.6 0.005 0
5.64 0.005 0
5.68 0.005 0
5.72 0.005 0
5.76 0.005 0
5.8 0.005 0
5.84 0.005 0
5.88 0.005 0
5.92 0.005 0
5.96 0.005 0
6 0.005 0
6.04 0.005 0
6.08 0.005 0
6.12 0.005 0
6.16 0.005 0
6.2 0.005 0
6.24 0.005 0
6.28 0.005 0
6.32 0.005 0
6.36 0.005 0
6.4 0.005 0
6.44 0.005 0
6.48 0.005 0
6.52 0.005 0
6.56 0.005 0
6.6 0.005 0
6.64 0.005 0
6.68 0.005 0
6.72 0.005 0
6.76 0.005 0
6.8 0.005 0
6.84 0.005 0
6.88 0.005 0
6.92 0.005 0
6.96 0.005 0
7 0.005 0
7.04 0.005 0
7.08 0.005 0
7.12 0.005 0
7.16 0.005 0
7.2 0.005 0
7.24 0.005 0
7.28 0.005 0
7.32 0.005 0
7.36 0.005 0
7.4 0.005 0
[...]
POINT_DATA 160000

SCALARS u float 1
LOOKUP_TABLE default
-1
-0.483357
-0.183963
-0.108845
-0.0810328
-0.0668333
-0.0581178
-0.0521523
-0.047777
-0.0444141
-0.0417408
-0.039561
-0.0377477
-0.0362147
-0.034901
-0.0337619
-0.0327642
-0.0318824
-0.0310967
-0.0303917
-0.0297547
-0.0291757
-0.0286465
-0.0281604
-0.0277118
-0.027296
-0.0269092
-0.026548
-0.0262096
-0.0258917
-0.0255921
-0.0253092
-0.0250413
-0.0247872
-0.0245456
-0.0243156
-0.0240962
-0.0238865
-0.023686
-0.0234939
-0.0233097
-0.0231328
-0.0229627
-0.0227991
-0.0226416
-0.0224897
-0.0223431
-0.0222016
-0.0220649
-0.0219327
-0.0218048
-0.0216809
-0.0215609
-0.0214446
-0.0213318
-0.0212222
-0.0211159
-0.0210126
-0.0209121
-0.0208145
-0.0207195
-0.020627
-0.0205369
-0.0204492
-0.0203637
-0.0202804
-0.0201991
-0.0201198
-0.0200424
-0.0199668
-0.019893
-0.0198209
-0.0197505
-0.0196816
-0.0196142
-0.0195484
-0.0194839
-0.0194209
-0.0193591
-0.0192987
-0.0192395
-0.0191815
-0.0191246
-0.0190689
-0.0190143
-0.0189608
-0.0189083
-0.0188567
-0.0188062
-0.0187566
-0.0187079
-0.0186601
-0.0186132
-0.0185671
-0.0185219
-0.0184774
-0.0184337
-0.0183907
-0.0183485
-0.018307
-0.0182662
-0.0182261
-0.0181866
-0.0181478
-0.0181096
-0.018072
-0.0180351
-0.0179987
-0.0179628
-0.0179276
-0.0178928
-0.0178586
-0.017825
-0.0177918
-0.0177591
-0.0177269
-0.0176952
-0.017664
-0.0176332
-0.0176028
-0.0175729
-0.0175434
-0.0175143
-0.0174856
-0.0174574
-0.0174295
-0.017402
-0.0173749
-0.0173481
-0.0173217
-0.0172957
-0.01727
-0.0172446
-0.0172196
-0.0171949
-0.0171706
-0.0171465
-0.0171228
-0.0170993
-0.0170762
-0.0170533
-0.0170308
-0.0170085
-0.0169865
-0.0169648
-0.0169433
-0.0169221
-0.0169012
-0.0168805
-0.0168601
-0.0168399
-0.01682
-0.0168003
-0.0167808
-0.0167616
-0.0167426
-0.0167238
-0.0167053
-0.0166869
-0.0166688
-0.0166509
-0.0166332
-0.0166156
-0.0165983
-0.0165812
-0.0165643
-0.0165476
-0.016531
-0.0165147
-0.0164985
-0.0164826
-0.0164667
-0.0164511
-0.0164357
-0.0164204
-0.0164053
-0.0163903
-0.0163755
-0.0163609
-0.0163464
-0.0163321
-0.016318
-0.016304
-0.0162901
-0.0162764
-0.0162629
-0.0162495
-0.0162362
-0.0162231
-0.0162101
-0.0161973
-0.0161845
-0.016172
-0.0161595
-0.0161472
-0.016135
-0.016123
-0.0161111
-0.0160992
-0.0160876
-0.016076
-0.0160646
-0.0160532
-0.016042
-0.016031
-0.01602
-0.0160091
-0.0159984
-0.0159877
-0.0159772
-0.0159668
-0.0159565
-0.0159463
-0.0159361
-0.0159261
-0.0159162
-0.0159064
-0.0158967
-0.0158871
-0.0158776
-0.0158682
-0.0158589
-0.0158497
-0.0158405
-0.0158315
-0.0158225
-0.0158137
-0.0158049
-0.0157962
-0.0157876
-0.0157791
-0.0157707
-0.0157624
-0.0157541
-0.0157459
-0.0157379
-0.0157299
-0.0157219
-0.0157141
-0.0157063
-0.0156986
-0.015691
-0.0156835
-0.0156761
-0.0156687
-0.0156614
-0.0156542
-0.015647
-0.01564
-0.015633
-0.0156261
-0.0156193
-0.0156125
-0.0156058
-0.0155992
-0.0155927
-0.0155863
-0.0155799
-0.0155736
-0.0155674
-0.0155612
-0.0155552
-0.0155492
-0.0155433
-0.0155374
-0.0155317
-0.015526
-0.0155204
-0.0155148
-0.0155094
-0.015504
-0.0154987
-0.0154935
-0.0154883
-0.0154832
-0.0154782
-0.0154733
-0.0154685
-0.0154637
-0.015459
-0.0154544
-0.0154498
-0.0154454
-0.015441
-0.0154367
-0.0154324
-0.0154282
-0.0154241
-0.0154201
-0.0154162
-0.0154123
-0.0154085
-0.0154047
-0.015401
-0.0153974
-0.0153939
-0.0153904
-0.0153871
-0.0153837
-0.0153805
-0.0153773
-0.0153741
-0.0153711
-0.0153681
-0.0153652
-0.0153623
-0.0153595
-0.0153568
-0.0153541
-0.0153515
-0.0153489
-0.0153464
-0.0153439
-0.0153416
-0.0153392
-0.015337
-0.0153348
-0.0153326
-0.0153305
-0.0153284
-0.0153264
-0.0153245
-0.0153226
-0.0153207
-0.0153189
-0.0153172
-0.0153155
-0.0153138
-0.0153122
-0.0153106
-0.0153091
-0.0153076
-0.0153061
-0.0153047
-0.0153034
-0.015302
-0.0153008
-0.0152995
-0.0152983
-0.0152971
-0.015296
-0.0152949
-0.0152938
-0.0152927
-0.0152917
-0.0152907
-0.0152898
-0.0152888
-0.015288
-0.0152871
-0.0152862
-0.0152854
-0.0152846
-0.0152839
-0.0152831
-0.0152824
-0.0152817
-0.015281
-0.0152803
-0.0152797
-0.0152791
-0.0152785
-0.0152779
-0.0152773
-0.0152768
-0.0152762
-0.0152757
-0.0152752
-0.0152747
-0.0152742
-0.0152737
-0.0152733
-0.0152728
-0.0152724
-0.015272
-0.0152715
-0.0152711
-0.0152707
-0.0152703
-0.01527
-0.0152696
-0.0152692
-0.0152688
-0.0152685
-0.0152681
-0.0152678
-0.0152674
-0.0152671
-0.0152668
-0.0152664
-0.0152661
-0.0152658
-0.0152655
-0.0152652
-0.0152648
-0.0152645
-0.0152642
-0.0152639
-0.0152636
-0.0152633
-0.015263
-0.0152627
-0.0152624
-0.0152621
-0.0152618
-0.0152614
-0.0152611
-0.0152608
-0.0152605
-0.0152602
-0.0152599
-0.0152596
-0.0152593
-0.015259
-0.0152587
-0.0152584
-0.0152581
-0.0152578
-0.0152575
-0.0152572
-0.0152569
-0.0152566
-0.0152563
-0.015256
-0.0152557
-0.0152554
-0.0152551
-0.0152548
-0.0152545
-0.0152542
-0.0152539
-0.0152536
-0.0152532
-0.0152529
-0.0152526
-0.0152523
-0.015252
-0.0152517
-0.0152514
-0.0152511
-0.0152508
-0.0152505
-0.0152502
-0.0152499
-0.0152496
-0.0152493
-0.015249
-0.0152487
-0.0152484
-0.0152481
-0.0152478
-0.0152475
-0.0152472
-0.0152469
-0.0152466
-0.0152463
-0.015246
-0.0152457
-0.0152454
-0.0152451
-0.0152447
-0.0152444
-0.0152441
-0.0152438
-0.0152435
-0.0152432
-0.0152429
-0.0152426
-0.0152423
-0.015242
-0.0152417
-0.0152414
-0.0152411
-0.0152408
-0.0152405
-0.0152402
-0.0152399
-0.0152396
-0.0152393
-0.015239
-0.0152387
-0.0152384
-0.0152381
-0.0152378
-0.0152375
-0.0152372
-0.0152369
-0.0152366
-0.0152362
-0.0152359
-0.0152356
-0.0152353
-0.015235
-0.0152347
-0.0152344
-0.0152341
-0.0152338
-0.0152335
-0.0152332
-0.0152329
-0.0152326
-0.0152323
-0.015232
-0.0152317
-0.0152314
-0.0152311
-0.0152308
-0.0152305
-0.0152302
-0.0152299
-0.0152296
-0.0152293
-0.015229
-0.0152287
-0.0152284
-0.0152281
-0.0152277
-0.0152274
-0.0152271
-0.0152268
-0.0152265
-0.0152262
-0.0152259
-0.0152256
-0.0152253
-0.015225
-0.0152247
-0.0152244
-0.0152241
-0.0152238
-0.0152235
-0.0152232
-0.0152229
-0.0152226
-0.0152223
-0.015222
-0.0152217
-0.0152214
-0.0152211
-0.0152208
-0.0152205
-0.0152202
-0.0152199
-0.0152196
-0.0152193
-0.0152189
-0.0152186
-0.0152183
-0.015218
-0.0152177
-0.0152174
-0.0152171
-0.0152168
-0.0152165
-0.0152162
-0.0152159
-0.0152156
-0.0152153
-0.015215
-0.0152147
-0.0152144
-0.0152141
-0.0152138
-0.0152135
-0.0152132
-0.0152129
-0.0152126
-0.0152123
-0.015212
-0.0152117
-0.0152114
-0.0152111
-0.0152108
-0.0152105
-0.0152101
-0.0152098
-0.0152095
-0.0152092
-0.0152089
-0.0152086
-0.0152083
-0.015208
-0.0152077
-0.0152074
-0.0152071
-0.0152068
-0.0152065
-0.0152062
-0.0152059
-0.0152056
-0.0152053
-0.015205
-0.0152047
-0.0152044
-0.0152041
-0.0152038
-0.0152035
-0.0152032
-0.0152029
-0.0152026
-0.0152023
-0.015202
-0.0152017
-0.0152013
-0.015201
-0.0152007
-0.0152004
-0.0152001
-0.0151998
-0.0151995
-0.0151992
-0.0151989
-0.0151986
-0.0151983
-0.015198
-0.0151977
-0.0151974
-0.0151971
-0.0151968
-0.0151965
-0.0151962
-0.0151959
-0.0151956
-0.0151953
-0.015195
-0.0151947
-0.0151944
-0.0151941
-0.0151938
-0.0151935
-0.0151932
-0.0151929
-0.0151925
-0.0151922
-0.0151919
-0.0151916
-0.0151913
-0.015191
-0.0151907
-0.0151904
-0.0151901
-0.0151898
-0.0151895
-0.0151892
-0.0151889
-0.0151886
-0.0151883
-0.015188
-0.0151877
-0.0151874
-0.0151871
-0.0151868
-0.0151865
-0.0151862
-0.0151859
-0.0151856
-0.0151853
-0.015185
-0.0151847
-0.0151844
-0.0151841
-0.0151838
-0.0151834
-0.0151831
-0.0151828
-0.0151825
-0.0151822
-0.0151819
-0.0151816
-0.0151813
-0.015181
-0.0151807
-0.0151804
-0.0151801
-0.0151798
-0.0151795
-0.0151792
-0.0151789
-0.0151786
-0.0151783
-0.015178
-0.0151777
-0.0151774
-0.0151771
-0.0151768
-0.0151765
-0.0151762
-0.0151759
-0.0151756
-0.0151753
-0.015175
-0.0151747
-0.0151743
-0.015174
-0.0151737
-0.0151734
-0.0151731
-0.0151728
-0.0151725
-0.0151722
-0.0151719
-0.0151716
-0.0151713
-0.015171
-0.0151707
-0.0151704
-0.0151701
-0.0151698
-0.0151695
-0.0151692
-0.0151689
-0.0151686
-0.0151683
-0.015168
-0.0151677
-0.0151674
-0.0151671
-0.0151668
-0.0151665
-0.0151662
-0.0151659
-0.0151656
-0.0151652
-0.0151649
-0.0151646
-0.0151643
-0.015164
-0.0151637
-0.0151634
-0.0151631
-0.0151628
-0.0151625
-0.0151622
-0.0151619
-0.0151616
-0.0151613
-0.015161
-0.0151607
-0.0151604
-0.0151601
-0.0151598
-0.0151595
-0.0151592
-0.0151589
-0.0151586
-0.0151583
-0.015158
-0.0151577
-0.0151574
-0.0151571
-0.0151568
-0.0151565
-0.0151562
-0.0151558
-0.0151555
-0.0151552
-0.0151549
-0.0151546
-0.0151543
-0.015154
-0.0151537
-0.0151534
-0.0151531
-0.0151528
-0.0151525
-0.0151522
-0.0151519
-0.0151516
-0.0151513
-0.015151
-0.0151507
-0.0151504
-0.0151501
-0.0151498
-0.0151495
-0.0151492
-0.0151489
-0.0151485
-0.0151482
-0.0151479
-0.0151476
-0.0151473
-0.015147
-0.0151466
-0.0151463
-0.015146
-0.0151456
-0.0151453
-0.0151449
-0.0151445
-0.0151441
-0.0151436
-0.0151431
-0.0151426
-0.0151419
-0.0151412
-0.0151402
-0.0151398
-0.0151398
-0.0151398
1
0.483357
0.183963
0.108845
0.0810328
0.0668333
0.0581178
0.0521523
0.047777
0.0444141
0.0417408
0.039561
0.0377477
0.0362147
0.034901
0.0337619
0.0327642
0.0318824
0.0310967
0.0303917
0.0297547
0.0291757
0.0286465
0.0281604
0.0277118
0.027296
0.0269092
0.026548
0.0262096
0.0258917
0.0255921
0.0253092
0.0250413
0.0247872
0.0245456
0.0243156
0.0240962
0.0238865
0.023686
0.0234939
0.0233097
0.0231328
0.0229627
0.0227991
0.0226416
0.0224897
0.0223431
0.0222016
0.0220649
0.0219327
0.0218048
0.0216809
0.0215609
0.0214446
0.0213318
0.0212222
0.0211159
0.0210126
0.0209121
0.0208145
0.0207195
0.020627
0.0205369
0.0204492
0.0203637
0.0202804
0.0201991
0.0201198
0.0200424
0.0199668
0.019893
0.0198209
0.0197505
0.0196816
0.0196142
0.0195484
0.0194839
0.0194209
0.0193591
0.0192987
0.0192395
0.0191815
0.0191246
0.0190689
0.0190143
0.0189608
0.0189083
0.0188567
0.0188062
0.0187566
0.0187079
0.0186601
0.0186132
0.0185671
0.0185219
0.0184774
0.0184337
0.0183907
0.0183485
0.018307
0.0182662
0.0182261
0.0181866
0.0181478
0.0181096
0.018072
0.0180351
0.0179987
0.0179628
0.0179276
0.0178928
0.0178586
0.017825
0.0177918
0.0177591
0.0177269
0.0176952
0.017664
0.0176332
0.0176028
0.0175729
0.0175434
0.0175143
0.0174856
0.0174574
0.0174295
0.017402
0.0173749
0.0173481
0.0173217
0.0172957
0.01727
0.0172446
0.0172196
0.0171949
0.0171706
0.0171465
0.0171228
0.0170993
0.0170762
0.0170533
0.0170308
0.0170085
0.0169865
0.0169648
0.0169433
0.0169221
0.0169012
0.0168805
0.0168601
0.0168399
0.01682
0.0168003
0.0167808
0.0167616
0.0167426
0.0167238
0.0167053
0.0166869
0.0166688
0.0166509
0.0166332
0.0166156
0.0165983
0.0165812
0.0165643
0.0165476
0.016531
0.0165147
0.0164985
0.0164826
0.0164667
0.0164511
0.0164357
0.0164204
0.0164053
0.0163903
0.0163755
0.0163609
0.0163464
0.0163321
0.016318
0.016304
0.0162901
0.0162764
0.0162629
0.0162495
0.0162362
0.0162231
0.0162101
0.0161973
0.0161845
0.016172
0.0161595
0.0161472
0.016135
0.016123
0.0161111
0.0160992
0.0160876
0.016076
0.0160646
0.0160532
0.016042
0.016031
0.01602
0.0160091
0.0159984
0.0159877
0.0159772
0.0159668
0.0159565
0.0159463
0.0159361
0.0159261
0.0159162
0.0159064
0.0158967
0.0158871
0.0158776
0.0158682
0.0158589
0.0158497
0.0158405
0.0158315
0.0158225
0.0158137
0.0158049
0.0157962
0.0157876
0.0157791
0.0157707
0.0157624
0.0157541
0.0157459
0.0157379
0.0157299
0.0157219
0.0157141
0.0157063
0.0156986
0.015691
0.0156835
0.0156761
0.0156687
0.0156614
0.0156542
0.015647
0.01564
0.015633
0.0156261
0.0156193
0.0156125
0.0156058
0.0155992
0.0155927
0.0155863
0.0155799
0.0155736
0.0155674
0.0155612
0.0155552
0.0155492
0.0155433
0.0155374
0.0155317
0.015526
0.0155204
0.0155148
0.0155094
0.015504
0.0154987
0.0154935
0.0154883
0.0154832
0.0154782
0.0154733
0.0154685
0.0154637
0.015459
0.0154544
0.0154498
0.0154454
0.015441
0.0154367
0.0154324
0.0154282
0.0154241
0.0154201
0.0154162
0.0154123
0.0154085
0.0154047
0.015401
0.0153974
0.0153939
0.0153904
0.0153871
0.0153837
0.0153805
0.0153773
0.0153741
0.0153711
0.0153681
0.0153652
0.0153623
0.0153595
0.0153568
0.0153541
0.0153515
0.0153489
0.0153464
0.0153439
0.0153416
0.0153392
0.015337
0.0153348
0.0153326
0.0153305
0.0153284
0.0153264
0.0153245
0.0153226
0.0153207
0.0153189
0.0153172
0.0153155
0.0153138
0.0153122
0.0153106
0.0153091
0.0153076
0.0153061
0.0153047
0.0153034
0.015302
0.0153008
0.0152995
0.0152983
0.0152971
0.015296
0.0152949
0.0152938
0.0152927
0.0152917
0.0152907
0.0152898
0.0152888
0.015288
0.0152871
0.0152862
0.0152854
0.0152846
0.0152839
0.0152831
0.0152824
0.0152817
0.015281
0.0152803
0.0152797
0.0152791
0.0152785
0.0152779
0.0152773
0.0152768
0.0152762
0.0152757
0.0152752
0.0152747
0.0152742
0.0152737
0.0152733
0.0152728
0.0152724
0.015272
0.0152715
0.0152711
0.0152707
0.0152703
0.01527
0.0152696
0.0152692
0.0152688
0.0152685
0.0152681
0.0152678
0.0152674
0.0152671
0.0152668
0.0152664
0.0152661
0.0152658
0.0152655
0.0152652
0.0152648
0.0152645
0.0152642
0.0152639
0.0152636
0.0152633
0.015263
0.0152627
0.0152624
0.0152621
0.0152618
0.0152614
0.0152611
0.0152608
0.0152605
0.0152602
0.0152599
0.0152596
0.0152593
0.015259
0.0152587
0.0152584
0.0152581
0.0152578
0.0152575
0.0152572
0.0152569
0.0152566
0.0152563
0.015256
0.0152557
0.0152554
0.0152551
0.0152548
0.0152545
0.0152542
0.0152539
0.0152536
0.0152532
0.0152529
0.0152526
0.0152523
0.015252
0.0152517
0.0152514
0.0152511
0.0152508
0.0152505
0.0152502
0.0152499
0.0152496
0.0152493
0.015249
0.0152487
0.0152484
0.0152481
0.0152478
0.0152475
0.0152472
0.0152469
0.0152466
0.0152463
0.015246
0.0152457
0.0152454
0.0152451
0.0152447
0.0152444
0.0152441
0.0152438
0.0152435
0.0152432
0.0152429
0.0152426
0.0152423
0.015242
0.0152417
0.0152414
0.0152411
0.0152408
0.0152405
0.0152402
0.0152399
0.0152396
0.0152393
0.015239
0.0152387
0.0152384
0.0152381
0.0152378
0.0152375
0.0152372
0.0152369
0.0152366
0.0152362
0.0152359
0.0152356
0.0152353
0.015235
0.0152347
0.0152344
0.0152341
0.0152338
0.0152335
0.0152332
0.0152329
0.0152326
0.0152323
0.015232
0.0152317
0.0152314
0.0152311
0.0152308
0.0152305
0.0152302
0.0152299
0.0152296
0.0152293
0.015229
0.0152287
0.0152284
0.0152281
0.0152277
0.0152274
0.0152271
0.0152268
0.0152265
0.0152262
0.0152259
0.0152256
0.0152253
0.015225
0.0152247
0.0152244
0.0152241
0.0152238
0.0152235
0.0152232
0.0152229
0.0152226
0.0152223
0.015222
0.0152217
0.0152214
0.0152211
0.0152208
0.0152205
0.0152202
0.0152199
0.0152196
0.0152193
0.0152189
0.0152186
0.0152183
0.015218
0.0152177
0.0152174
0.0152171
0.0152168
0.0152165
0.0152162
0.0152159
0.0152156
0.0152153
0.015215
0.0152147
0.0152144
0.0152141
0.0152138
0.0152135
0.0152132
0.0152129
0.0152126
0.0152123
0.015212
0.0152117
0.0152114
0.0152111
0.0152108
0.0152105
0.0152101
0.0152098
0.0152095
0.0152092
0.0152089
0.0152086
0.0152083
0.015208
0.0152077
0.0152074
0.0152071
0.0152068
0.0152065
0.0152062
0.0152059
0.0152056
0.0152053
0.015205
0.0152047
0.0152044
0.0152041
0.0152038
0.0152035
0.0152032
0.0152029
0.0152026
0.0152023
0.015202
0.0152017
0.0152013
0.015201
0.0152007
0.0152004
0.0152001
0.0151998
0.0151995
0.0151992
0.0151989
0.0151986
0.0151983
0.015198
0.0151977
0.0151974
0.0151971
0.0151968
0.0151965
0.0151962
0.0151959
0.0151956
0.0151953
0.015195
0.0151947
0.0151944
0.0151941
0.0151938
0.0151935
0.0151932
0.0151929
0.0151925
0.0151922
0.0151919
0.0151916
0.0151913
0.015191
0.0151907
0.0151904
0.0151901
0.0151898
0.0151895
0.0151892
0.0151889
0.0151886
0.0151883
0.015188
0.0151877
0.0151874
0.0151871
0.0151868
0.0151865
0.0151862
0.0151859
0.0151856
0.0151853
0.015185
0.0151847
0.0151844
0.0151841
0.0151838
0.0151834
0.0151831
0.0151828
0.0151825
0.0151822
0.0151819
0.0151816
0.0151813
0.015181
0.0151807
0.0151804
0.0151801
0.0151798
0.0151795
0.0151792
0.0151789
0.0151786
0.0151783
0.015178
0.0151777
0.0151774
0.0151771
0.0151768
0.0151765
0.0151762
0.0151759
0.0151756
0.0151753
0.015175
0.0151747
0.0151743
0.015174
0.0151737
0.0151734
0.0151731
0.0151728
0.0151725
0.0151722
0.0151719
0.0151716
0.0151713
0.015171
0.0151707
0.0151704
0.0151701
0.0151698
0.0151695
0.0151692
0.0151689
0.0151686
0.0151683
0.015168
0.0151677
0.0151674
0.0151671
0.0151668
0.0151665
0.0151662
0.0151659
0.0151656
0.0151652
0.0151649
0.0151646
0.0151643
0.015164
0.0151637
0.0151634
0.0151631
0.0151628
0.0151625
0.0151622
0.0151619
0.0151616
0.0151613
0.015161
0.0151607
0.0151604
0.0151601
0.0151598
0.0151595
0.0151592
0.0151589
0.0151586
0.0151583
0.015158
0.0151577
0.0151574
0.0151571
0.0151568
0.0151565
0.0151562
0.0151558
0.0151555
0.0151552
0.0151549
0.0151546
0.0151543
0.015154
0.0151537
0.0151534
0.0151531
0.0151528
0.0151525
0.0151522
0.0151519
0.0151516
0.0151513
0.015151
0.0151507
0.0151504
0.0151501
0.0151498
0.0151495
0.0151492
0.0151489
0.0151485
0.0151482
0.0151479
0.0151476
0.0151473
0.015147
0.0151466
0.0151463
0.015146
0.0151456
0.0151453
0.0151449
0.0151445
0.0151441
0.0151436
0.0151431
0.0151426
0.0151419
0.0151412
0.0151402
0.0151398
0.0151398
0.0151398
1
0.969191
0.495616
0.314223
0.237896
0.197395
0.172132
0.154695
0.141841
0.131927
0.124026
0.117572
0.112195
0.107644
0.10374
0.100353
0.0973848
0.0947604
0.0924215
0.0903222
0.0884254
0.0867014
0.0851259
0.0836789
0.0823438
0.0811067
0.0799559
0.0788817
0.0778757
0.0769307
0.0760406
0.0752001
0.0744046
0.0736501
0.0729331
0.0722504
0.0715994
0.0709777
0.070383
0.0698134
0.0692673
0.0687429
0.068239
0.0677542
0.0672873
0.0668374
0.0664033
0.0659843
0.0655794
0.065188
0.0648092
0.0644425
0.0640873
0.0637429
0.0634089
0.0630848
0.0627701
0.0624643
0.0621672
0.0618782
0.0615971
0.0613235
0.0610571
0.0607975
0.0605446
0.0602981
0.0600577
0.0598231
0.0595942
0.0593707
0.0591525
0.0589392
0.0587309
0.0585272
0.0583281
0.0581333
0.0579428
0.0577563
0.0575737
0.057395
0.05722
0.0570485
0.0568805
0.0567158
0.0565544
0.0563962
0.0562409
0.0560887
0.0559393
0.0557927
0.0556488
0.0555076
0.0553689
0.0552327
0.0550989
0.0549675
0.0548383
0.0547114
0.0545867
0.0544641
0.0543435
0.0542249
0.0541083
0.0539936
0.0538808
0.0537698
0.0536605
0.053553
0.0534471
0.0533429
0.0532403
0.0531393
0.0530398
0.0529419
0.0528453
0.0527503
0.0526566
0.0525643
0.0524733
0.0523836
0.0522953
0.0522081
0.0521223
0.0520376
0.0519541
0.0518717
0.0517905
0.0517104
0.0516314
0.0515535
0.0514766
0.0514007
0.0513259
0.051252
0.0511791
0.0511071
0.0510361
0.050966
0.0508968
0.0508285
0.050761
0.0506944
0.0506286
0.0505637
0.0504996
0.0504362
0.0503737
0.0503119
0.0502508
0.0501905
0.050131
0.0500721
0.050014
0.0499565
0.0498997
0.0498436
0.0497882
0.0497334
0.0496793
0.0496258
0.0495729
0.0495206
0.0494689
0.0494178
0.0493673
0.0493174
0.0492681
0.0492193
0.049171
0.0491233
0.0490761
0.0490295
0.0489834
0.0489378
0.0488927
0.0488481
0.0488039
0.0487603
0.0487171
0.0486745
0.0486322
0.0485905
0.0485492
0.0485083
0.0484679
0.0484279
0.0483884
0.0483492
0.0483105
0.0482722
0.0482343
0.0481968
0.0481597
0.048123
0.0480867
0.0480507
0.0480152
0.04798
0.0479452
0.0479107
0.0478766
0.0478429
0.0478095
0.0477764
0.0477437
0.0477113
0.0476793
0.0476476
0.0476162
0.0475851
0.0475544
0.047524
0.0474939
0.0474641
0.0474345
0.0474053
0.0473764
0.0473478
0.0473195
0.0472914
0.0472637
0.0472362
0.047209
0.0471821
0.0471554
0.047129
0.0471029
0.047077
0.0470514
0.0470261
0.047001
0.0469762
0.0469516
0.0469273
0.0469032
0.0468794
0.0468558
0.0468324
0.0468093
0.0467864
0.0467638
0.0467414
0.0467192
0.0466972
0.0466755
0.0466541
0.0466328
0.0466118
0.046591
0.0465705
0.0465501
0.0465301
0.0465102
0.0464905
0.0464711
0.0464519
0.046433
0.0464142
0.0463957
0.0463775
0.0463594
0.0463416
0.046324
0.0463066
0.0462895
0.0462726
0.0462559
0.0462394
0.0462232
0.0462072
0.0461914
0.0461759
0.0461606
0.0461455
0.0461306
0.046116
0.0461016
0.0460874
0.0460734
0.0460597
0.0460461
0.0460328
0.0460198
0.0460069
0.0459943
0.0459819
0.0459696
0.0459577
0.0459459
0.0459343
0.045923
0.0459119
0.0459009
0.0458902
0.0458797
0.0458694
0.0458593
0.0458494
0.0458397
0.0458302
0.0458209
0.0458118
0.0458029
0.0457942
0.0457857
0.0457773
0.0457692
0.0457612
0.0457534
0.0457458
0.0457383
0.0457311
0.045724
0.045717
0.0457103
0.0457037
0.0456973
0.045691
0.0456849
0.0456789
0.0456731
0.0456674
0.0456619
0.0456565
0.0456513
0.0456462
0.0456413
0.0456365
0.0456318
0.0456272
0.0456228
0.0456185
0.0456143
0.0456102
0.0456063
0.0456024
0.0455987
0.0455951