# vtk DataFile Version 2.0
FlowField
ASCII
DATASET STRUCTURED_GRID
DIMENSIONS 800 1 200
POINTS 160000 float
0 0 0
0.04 0 0
0.08 0 0
0.12 0 0
0.16 0 0
0.2 0 0
0.24 0 0
0.28 0 0
0.32 0 0
0.36 0 0
0.4 0 0
0.44 0 0
0.48 0 0
0.52 0 0
0.56 0 0
0.6 0 0
0.64 0 0
0.68 0 0
0.72 0 0
0.76 0 0
0.8 0 0
0.84 0 0
0.88 0 0
0.92 0 0
0.96 0 0
1 0 0
1.04 0 0
1.08 0 0
1.12 0 0
1.16 0 0
1.2 0 0
1.24 0 0
1.28 0 0
1.32 0 0
1.36 0 0
1.4 0 0
1.44 0 0
1.48 0 0
1.52 0 0
1.56 0 0
1.6 0 0
1.64 0 0
1.68 0 0
1.72 0 0
1.76 0 0
1.8 0 0
1.84 0 0
1.88 0 0
1.92 0 0
1.96 0 0
2 0 0
2.04 0 0
2.08 0 0
2.12 0 0
2.16 0 0
2.2 0 0
2.24 0 0
2.28 0 0
2.32 0 0
2.36 0 0
2.4 0 0
2.44 0 0
2.48 0 0
2.52 0 0
2.56 0 0
2.6 0 0
2.64 0 0
2.68 0 0
2.72 0 0
2.76 0 0
2.8 0 0
2.84 0 0
2.88 0 0
2.92 0 0
2.96 0 0
3 0 0
3.04 0 0
3.08 0 0
3.12 0 0
3.16 0 0
3.2 0 0
3.24 0 0
3.28 0 0
3.32 0 0
3.36 0 0
3.4 0 0
3.44 0 0
3.48 0 0
3.52 0 0
3.56 0 0
3.6 0 0
3.64 0 0
3.68 0 0
3.72 0 0
3.76 0 0
3.8 0 0
3.84 0 0
3.88 0 0
3.92 0 0
3.96 0 0
4 0 0
4.04 0 0
4.08 0 0
4.12 0 0
4.16 0 0
4.2 0 0
4.24 0 0
4.28 0 0
4.32 0 0
4.36 0 0
4.4 0 0
4.44 0 0
4.48 0 0
4.52 0 0
4.56 0 0
4.6 0 0
4.64 0 0
4.68 0 0
4.72 0 0
4.76 0 0
4.8 0 0
4.84 0 0
4.88 0 0
4.92 0 0
4.96 0 0
5 0 0
5.04 0 0
5.08 0 0
5.12 0 0
5.16 0 0
5.2 0 0
5.24 0 0
5.28 0 0
5.32 0 0
5.36 0 0
5.4 0 0
5.44 0 0
5.48 0 0
5.52 0 0
5.56 0 0
5.6 0 0
5.64 0 0
5.68 0 0
5.72 0 0
5.76 0 0
5.8 0 0
5.84 0 0
5.88 0 0
5.92 0 0
5.96 0 0
6 0 0
6.04 0 0
6.08 0 0
6.12 0 0
6.16 0 0
6.2 0 0
6.24 0 0
6.28 0 0
6.32 0 0
6.36 0 0
6.4 0 0
6.44 0 0
6.48 0 0
6.52 0 0
6.56 0 0
6.6 0 0
6.64 0 0
6.68 0 0
6.72 0 0
6.76 0 0
6.8 0 0
6.84 0 0
6.88 0 0
6.92 0 0
6.96 0 0
7 0 0
7.04 0 0
7.08 0 0
7.12 0 0
7.16 0 0
7.2 0 0
7.24 0 0
7.28 0 0
7.32 0 0
7.36 0 0
7.4 0 0
7.44 0 0
7.48 0 0
7.52 0 0
7.56 0 0
7.6 0 0
7.64 0 0
7.68 0 0
7.72 0 0
7.76 0 0
7.8 0 0
7.84 0 0
7.88 0 0
7.92 0 0
7.96 0 0
8 0 0
8.04 0 0
8.08 0 0
8.12 0 0
8.16 0 0
8.2 0 0
8.24 0 0
8.28 0 0
8.32 0 0
8.36 0 0
8.4 0 0
8.44 0 0
8.48 0 0
8.52 0 0
8.56 0 0
8.6 0 0
8.64 0 0
8.68 0 0
8.72 0 0
8.76 0 0
8.8 0 0
8.84 0 0
8.88 0 0
8.92 0 0
8.96 0 0
9 0 0
9.04 0 0
9.08 0 0
9.12 0 0
9.16 0 0
9.2 0 0
9.24 0 0
9.28 0 0
9.32 0 0
9.36 0 0
9.4 0 0
9.44 0 0
9.48 0 0
9.52 0 0
9.56 0 0
9.6 0 0
9.64 0 0
9.68 0 0
9.72 0 0
9.76 0 0
9.8 0 0
9.84 0 0
9.88 0 0
9.92 0 0
9.96 0 0
10 0 0
10.04 0 0
10.08 0 0
10.12 0 0
10.16 0 0
10.2 0 0
10.24 0 0
10.28 0 0
10.32 0 0
10.36 0 0
10.4 0 0
10.44 0 0
10.48 0 0
10.52 0 0
10.56 0 0
10.6 0 0
10.64 0 0
10.68 0 0
10.72 0 0
10.76 0 0
10.8 0 0
10.84 0 0
10.88 0 0
10.92 0 0
10.96 0 0
11 0 0
11.04 0 0
11.08 0 0
11.12 0 0
11.16 0 0
11.2 0 0
11.24 0 0
11.28 0 0
11.32 0 0
11.36 0 0
11.4 0 0
11.44 0 0
11.48 0 0
11.52 0 0
11.56 0 0
11.6 0 0
11.64 0 0
11.68 0 0
11.72 0 0
11.76 0 0
11.8 0 0
11.84 0 0
11.88 0 0
11.92 0 0
11.96 0 0
12 0 0
12.04 0 0
12.08 0 0
12.12 0 0
12.16 0 0
12.2 0 0
12.24 0 0
12.28 0 0
12.32 0 0
12.36 0 0
12.4 0 0
12.44 0 0
12.48 0 0
12.52 0 0
12.56 0 0
12.6 0 0
12.64 0 0
12.68 0 0
12.72 0 0
12.76 0 0
12.8 0 0
12.84 0 0
12.88 0 0
12.92 0 0
12.96 0 0
13 0 0
13.04 0 0
13.08 0 0
13.12 0 0
13.16 0 0
13.2 0 0
13.24 0 0
13.28 0 0
13.32 0 0
13.36 0 0
13.4 0 0
13.44 0 0
13.48 0 0
13.52 0 0
13.56 0 0
13.6 0 0
13.64 0 0
13.68 0 0
13.72 0 0
13.76 0 0
13.8 0 0
13.84 0 0
13.88 0 0
13.92 0 0
13.96 0 0
14 0 0
14.04 0 0
14.08 0 0
14.12 0 0
14.16 0 0
14.2 0 0
14.24 0 0
14.28 0 0
14.32 0 0
14.36 0 0
14.4 0 0
14.44 0 0
14.48 0 0
14.52 0 0
14.56 0 0
14.6 0 0
14.64 0 0
14.68 0 0
14.72 0 0
14.76 0 0
14.8 0 0
14.84 0 0
14.88 0 0
14.92 0 0
14.96 0 0
15 0 0
15.04 0 0
15.08 0 0
15.12 0 0
15.16 0 0
15.2 0 0
15.24 0 0
15.28 0 0
15.32 0 0
15.36 0 0
15.4 0 0
15.44 0 0
15.48 0 0
15.52 0 0
15.56 0 0
15.6 0 0
15.64 0 0
15.68 0 0
15.72 0 0
15.76 0 0
15.8 0 0
15.84 0 0
15.88 0 0
15.92 0 0
15.96 0 0
16 0 0
16.04 0 0
16.08 0 0
16.12 0 0
16.16 0 0
16.2 0 0
16.24 0 0
16.28 0 0
16.32 0 0
16.36 0 0
16.4 0 0
16.44 0 0
16.48 0 0
16.52 0 0
16.56 0 0
16.6 0 0
16.64 0 0
16.68 0 0
16.72 0 0
16.76 0 0
16.8 0 0
16.84 0 0
16.88 0 0
16.92 0 0
16.96 0 0
17 0 0
17.04 0 0
17.08 0 0
17.12 0 0
17.16 0 0
17.2 0 0
17.24 0 0
17.28 0 0
17.32 0 0
17.36 0 0
17.4 0 0
17.44 0 0
17.48 0 0
17.52 0 0
17.56 0 0
17.6 0 0
17.64 0 0
17.68 0 0
17.72 0 0
17.76 0 0
17.8 0 0
17.84 0 0
17.88 0 0
17.92 0 0
17.96 0 0
18 0 0
18.04 0 0
18.08 0 0
18.12 0 0
18.16 0 0
18.2 0 0
18.24 0 0
18.28 0 0
18.32 0 0
18.36 0 0
18.4 0 0
18.44 0 0
18.48 0 0
18.52 0 0
18.56 0 0
18.6 0 0
18.64 0 0
18.68 0 0
18.72 0 0
18.76 0 0
18.8 0 0
18.84 0 0
18.88 0 0
18.92 0 0
18.96 0 0
19 0 0
19.04 0 0
19.08 0 0
19.12 0 0
19.16 0 0
19.2 0 0
19.24 0 0
19.28 0 0
19.32 0 0
19.36 0 0
19.4 0 0
19.44 0 0
19.48 0 0
19.52 0 0
19.56 0 0
19.6 0 0
19.64 0 0
19.68 0 0
19.72 0 0
19.76 0 0
19.8 0 0
19.84 0 0
19.88 0 0
19.92 0 0
19.96 0 0
20 0 0
20.04 0 0
20.08 0 0
20.12 0 0
20.16 0 0
20.2 0 0
20.24 0 0
20.28 0 0
20.32 0 0
20.36 0 0
20.4 0 0
20.44 0 0
20.48 0 0
20.52 0 0
20.56 0 0
20.6 0 0
20.64 0 0
20.68 0 0
20.72 0 0
20.76 0 0
20.8 0 0
20.84 0 0
20.88 0 0
20.92 0 0
20.96 0 0
21 0 0
21.04 0 0
21.08 0 0
21.12 0 0
21.16 0 0
21.2 0 0
21.24 0 0
21.28 0 0
21.32 0 0
21.36 0 0
21.4 0 0
21.44 0 0
21.48 0 0
21.52 0 0
21.56 0 0
21.6 0 0
21.64 0 0
21.68 0 0
21.72 0 0
21.76 0 0
21.8 0 0
21.84 0 0
21.88 0 0
21.92 0 0
21.96 0 0
22 0 0
22.04 0 0
22.08 0 0
22.12 0 0
22.16 0 0
22.2 0 0
22.24 0 0
22.28 0 0
22.32 0 0
22.36 0 0
22.4 0 0
22.44 0 0
22.48 0 0
22.52 0 0
22.56 0 0
22.6 0 0
22.64 0 0
22.68 0 0
22.72 0 0
22.76 0 0
22.8 0 0
22.84 0 0
22.88 0 0
22.92 0 0
22.96 0 0
23 0 0
23.04 0 0
23.08 0 0
23.12 0 0
23.16 0 0
23.2 0 0
23.24 0 0
23.28 0 0
23.32 0 0
23.36 0 0
23.4 0 0
23.44 0 0
23.48 0 0
23.52 0 0
23.56 0 0
23.6 0 0
23.64 0 0
23.68 0 0
23.72 0 0
23.76 0 0
23.8 0 0
23.84 0 0
23.88 0 0
23.92 0 0
23.96 0 0
24 0 0
24.04 0 0
24.08 0 0
24.12 0 0
24.16 0 0
24.2 0 0
24.24 0 0
24.28 0 0
24.32 0 0
24.36 0 0
24.4 0 0
24.44 0 0
24.48 0 0
24.52 0 0
24.56 0 0
24.6 0 0
24.64 0 0
24.68 0 0
24.72 0 0
24.76 0 0
24.8 0 0
24.84 0 0
24.88 0 0
24.92 0 0
24.96 0 0
25 0 0
25.04 0 0
25.08 0 0
25.12 0 0
25.16 0 0
25.2 0 0
25.24 0 0
25.28 0 0
25.32 0 0
25.36 0 0
25.4 0 0
25.44 0 0
25.48 0 0
25.52 0 0
25.56 0 0
25.6 0 0
25.64 0 0
25.68 0 0
25.72 0 0
25.76 0 0
25.8 0 0
25.84 0 0
25.88 0 0
25.92 0 0
25.96 0 0
26 0 0
26.04 0 0
26.08 0 0
26.12 0 0
26.16 0 0
26.2 0 0
26.24 0 0
26.28 0 0
26.32 0 0
26.36 0 0
26.4 0 0
26.44 0 0
26.48 0 0
26.52 0 0
26.56 0 0
26.6 0 0
26.64 0 0
26.68 0 0
26.72 0 0
26.76 0 0
26.8 0 0
26.84 0 0
26.88 0 0
26.92 0 0
26.96 0 0
27 0 0
27.04 0 0
27.08 0 0
27.12 0 0
27.16 0 0
27.2 0 0
27.24 0 0
27.28 0 0
27.32 0 0
27.36 0 0
27.4 0 0
27.44 0 0
27.48 0 0
27.52 0 0
27.56 0 0
27.6 0 0
27.64 0 0
27.68 0 0
27.72 0 0
27.76 0 0
27.8 0 0
27.84 0 0
27.88 0 0
27.92 0 0
27.96 0 0
28 0 0
28.04 0 0
28.08 0 0
28.12 0 0
28.16 0 0
28.2 0 0
28.24 0 0
28.28 0 0
28.32 0 0
28.36 0 0
28.4 0 0
28.44 0 0
28.48 0 0
28.52 0 0
28.56 0 0
28.6 0 0
28.64 0 0
28.68 0 0
28.72 0 0
28.76 0 0
28.8 0 0
28.84 0 0
28.88 0 0
28.92 0 0
28.96 0 0
29 0 0
29.04 0 0
29.08 0 0
29.12 0 0
29.16 0 0
29.2 0 0
29.24 0 0
29.28 0 0
29.32 0 0
29.36 0 0
29.4 0 0
29.44 0 0
29.48 0 0
29.52 0 0
29.56 0 0
29.6 0 0
29.64 0 0
29.68 0 0
29.72 0 0
29.76 0 0
29.8 0 0
29.84 0 0
29.88 0 0
29.92 0 0
29.96 0 0
30 0 0
30.04 0 0
30.08 0 0
30.12 0 0
30.16 0 0
30.2 0 0
30.24 0 0
30.28 0 0
30.32 0 0
30.36 0 0
30.4 0 0
30.44 0 0
30.48 0 0
30.52 0 0
30.56 0 0
30.6 0 0
30.64 0 0
30.68 0 0
30.72 0 0
30.76 0 0
30.8 0 0
30.84 0 0
30.88 0 0
30.92 0 0
30.96 0 0
31 0 0
31.04 0 0
31.08 0 0
31.12 0 0
31.16 0 0
31.2 0 0
31.24 0 0
31.28 0 0
31.32 0 0
31.36 0 0
31.4 0 0
31.44 0 0
31.48 0 0
31.52 0 0
31.56 0 0
31.6 0 0
31.64 0 0
31.68 0 0
31.72 0 0
31.76 0 0
31.8 0 0
31.84 0 0
31.88 0 0
31.92 0 0
31.96 0 0
0 0.005 0
0.04 0.005 0
0.08 0.005 0
0.12 0.005 0
0.16 0.005 0
0.2 0.005 0
0.24 0.005 0
0.28 0.005 0
0.32 0.005 0
0.36 0.005 0
0.4 0.005 0
0.44 0.005 0
0.48 0.005 0
0.52 0.005 0
0.56 0.005 0
0.6 0.005 0
0.64 0.005 0
0.68 0.005 0
0.72 0.005 0
0.76 0.005 0
0.8 0.005 0
0.84 0.005 0
0.88 0.005 0
0.92 0.005 0
0.96 0.005 0
1 0.005 0
1.04 0.005 0
1.08 0.005 0
1.12 0.005 0
1.16 0.005 0
1.2 0.005 0
1.24 0.005 0
1.28 0.005 0
1.32 0.005 0
1.36 0.005 0
1.4 0.005 0
1.44 0.005 0
1.48 0.005 0
1.52 0.005 0
1.56 0.005 0
1.6 0.005 0
1.64 0.005 0
1.68 0.005 0
1.72 0.005 0
1.76 0.005 0
1.8 0.005 0
1.84 0.005 0
1.88 0.005 0
1.92 0.005 0
1.96 0.005 0
2 0.005 0
2.04 0.005 0
2.08 0.005 0
2.12 0.005 0
2.16 0.005 0
2.2 0.005 0
2.24 0.005 0
2.28 0.005 0
2.32 0.005 0
2.36 0.005 0
2.4 0.005 0
2.44 0.005 0
2.48 0.005 0
2.52 0.005 0
2.56 0.005 0
2.6 0.005 0
2.64 0.005 0
2.68 0.005 0
2.72 0.005 0
2.76 0.005 0
2.8 0.005 0
2.84 0.005 0
2.88 0.005 0
2.92 0.005 0
2.96 0.005 0
3 0.005 0
3.04 0.005 0
3.08 0.005 0
3.12 0.005 0
3.16 0.005 0
3.2 0.005 0
3.24 0.005 0
3.28 0.005 0
3.32 0.005 0
3.36 0.005 0
3.4 0.005 0
3.44 0.005 0
3.48 0.005 0
3.52 0.005 0
3.56 0.005 0
3.6 0.005 0
3.64 0.005 0
3.68 0.005 0
3.72 0.005 0
3.76 0.005 0
3.8 0.005 0
3.84 0.005 0
3.88 0.005 0
3.92 0.005 0
3.96 0.005 0
4 0.005 0
4.04 0.005 0
4.08 0.005 0
4.12 0.005 0
4.16 0.005 0
4.2 0.005 0
4.24 0.005 0
4.28 0.005 0
4.32 0.005 0
4.36 0.005 0
4.4 0.005 0
4.44 0.005 0
4.48 0.005 0
4.52 0.005 0
4.56 0.005 0
4.6 0.005 0
4.64 0.005 0
4.68 0.005 0
4.72 0.005 0
4.76 0.005 0
4.8 0.005 0
4.84 0.005 0
4.88 0.005 0
4.92 0.005 0
4.96 0.005 0
5 0.005 0
5.04 0.005 0
5.08 0.005 0
5.12 0.005 0
5.16 0.005 0
5.2 0.005 0
5.24 0.005 0
5.28 0.005 0
5.32 0.005 0
5.36 0.005 0
5.4 0.005 0
5.44 0.005 0
5.48 0.005 0
5.52 0.005 0
5.56 0.005 0
5.6 0.005 0
5.64 0.005 0
5.68 0.005 0
5.72 0.005 0
5.76 0.005 0
5.8 0.005 0
5.84 0.005 0
5.88 0.005 0
5.92 0.005 0
5.96 0.005 0
6 0.005 0
6.04 0.005 0
6.08 0.005 0
6.12 0.005 0
6.16 0.005 0
6.2 0.005 0
6.24 0.005 0
6.28 0.005 0
6.32 0.005 0
6.36 0.005 0
6.4 0.005 0
6.44 0.005 0
6.48 0.005 0
6.52 0.005 0
6.56 0.005 0
6.6 0.005 0
6.64 0.005 0
6.68 0.005 0
6.72 0.005 0
6.76 0.005 0
6.8 0.005 0
6.84 0.005 0
6.88 0.005 0
6.92 0.005 0
6.96 0.005 0
7 0.005 0
7.04 0.005 0
7.08 0.005 0
7.12 0.005 0
7.16 0.005 0
7.2 0.005 0
7.24 0.005 0
7.28 0.005 0
7.32 0.005 0
7.36 0.005 0
7.4 0.005 0
[...]
POINT_DATA 160000

SCALARS u float 1
LOOKUP_TABLE default
-1
-0.483361
-0.183966
-0.10885
-0.0810398
-0.0668428
-0.0581302
-0.0521681
-0.0477969
-0.0444389
-0.0417716
-0.0395989
-0.0377942
-0.0362712
-0.0349692
-0.033844
-0.0328625
-0.0319997
-0.031236
-0.0305561
-0.0299482
-0.0294025
-0.0289116
-0.028469
-0.0280696
-0.0277093
-0.0273855
-0.0270973
-0.0268451
-0.0266303
-0.0264535
-0.0263137
-0.0262077
-0.02613
-0.0260739
-0.0260324
-0.0259994
-0.0259707
-0.0259441
-0.0259189
-0.0258957
-0.0258755
-0.0258591
-0.0258472
-0.0258397
-0.0258362
-0.0258359
-0.025838
-0.0258416
-0.025846
-0.0258505
-0.0258549
-0.0258588
-0.0258621
-0.0258648
-0.0258669
-0.0258685
-0.0258697
-0.0258705
-0.025871
-0.0258713
-0.0258715
-0.0258715
-0.0258714
-0.0258713
-0.0258711
-0.0258709
-0.0258706
-0.0258704
-0.0258702
-0.0258699
-0.0258696
-0.0258694
-0.0258691
-0.0258689
-0.0258686
-0.0258684
-0.0258681
-0.0258679
-0.0258676
-0.0258674
-0.0258671
-0.0258668
-0.0258666
-0.0258663
-0.0258661
-0.0258659
-0.0258656
-0.0258654
-0.0258651
-0.0258649
-0.0258646
-0.0258644
-0.0258641
-0.0258639
-0.0258636
-0.0258634
-0.0258631
-0.0258629
-0.0258627
-0.0258624
-0.0258622
-0.0258619
-0.0258617
-0.0258614
-0.0258612
-0.025861
-0.0258607
-0.0258605
-0.0258602
-0.02586
-0.0258598
-0.0258595
-0.0258593
-0.0258591
-0.0258588
-0.0258586
-0.0258584
-0.0258581
-0.0258579
-0.0258577
-0.0258574
-0.0258572
-0.025857
-0.0258567
-0.0258565
-0.0258563
-0.0258561
-0.0258558
-0.0258556
-0.0258554
-0.0258552
-0.0258549
-0.0258547
-0.0258545
-0.0258543
-0.0258541
-0.0258538
-0.0258536
-0.0258534
-0.0258532
-0.025853
-0.0258528
-0.0258525
-0.0258523
-0.0258521
-0.0258519
-0.0258517
-0.0258515
-0.0258513
-0.0258511
-0.0258509
-0.0258507
-0.0258505
-0.0258503
-0.0258501
-0.0258498
-0.0258497
-0.0258495
-0.0258493
-0.0258491
-0.0258489
-0.0258487
-0.0258485
-0.0258483
-0.0258481
-0.0258479
-0.0258477
-0.0258475
-0.0258474
-0.0258472
-0.025847
-0.0258468
-0.0258466
-0.0258465
-0.0258463
-0.0258461
-0.0258459
-0.0258458
-0.0258456
-0.0258454
-0.0258453
-0.0258451
-0.0258449
-0.0258448
-0.0258446
-0.0258444
-0.0258443
-0.0258441
-0.025844
-0.0258438
-0.0258437
-0.0258435
-0.0258434
-0.0258433
-0.0258431
-0.025843
-0.0258428
-0.0258427
-0.0258426
-0.0258424
-0.0258423
-0.0258422
-0.0258421
-0.0258419
-0.0258418
-0.0258417
-0.0258416
-0.0258415
-0.0258414
-0.0258413
-0.0258412
-0.0258411
-0.025841
-0.0258409
-0.0258408
-0.0258407
-0.0258406
-0.0258405
-0.0258405
-0.0258404
-0.0258403
-0.0258402
-0.0258402
-0.0258401
-0.0258401
-0.02584
-0.0258399
-0.0258399
-0.0258399
-0.0258398
-0.0258398
-0.0258397
-0.0258397
-0.0258397
-0.0258397
-0.0258397
-0.0258397
-0.0258396
-0.0258396
-0.0258397
-0.0258397
-0.0258397
-0.0258397
-0.0258397
-0.0258398
-0.0258398
-0.0258398
-0.0258399
-0.0258399
-0.02584
-0.0258401
-0.0258401
-0.0258402
-0.0258403
-0.0258404
-0.0258405
-0.0258406
-0.0258407
-0.0258409
-0.025841
-0.0258412
-0.0258413
-0.0258415
-0.0258417
-0.0258418
-0.025842
-0.0258422
-0.0258425
-0.0258427
-0.0258429
-0.0258432
-0.0258435
-0.0258437
-0.025844
-0.0258443
-0.0258447
-0.025845
-0.0258453
-0.0258457
-0.0258461
-0.0258465
-0.0258469
-0.0258474
-0.0258478
-0.0258483
-0.0258488
-0.0258493
-0.0258499
-0.0258505
-0.0258511
-0.0258517
-0.0258523
-0.025853
-0.0258537
-0.0258544
-0.0258552
-0.025856
-0.0258568
-0.0258577
-0.0258586
-0.0258595
-0.0258605
-0.0258615
-0.0258625
-0.0258636
-0.0258648
-0.0258659
-0.0258672
-0.0258684
-0.0258697
-0.0258711
-0.0258725
-0.025874
-0.0258755
-0.0258771
-0.0258787
-0.0258804
-0.0258821
-0.025884
-0.0258858
-0.0258878
-0.0258898
-0.0258918
-0.025894
-0.0258962
-0.0258985
-0.0259008
-0.0259033
-0.0259058
-0.0259084
-0.025911
-0.0259138
-0.0259166
-0.0259195
-0.0259225
-0.0259255
-0.0259287
-0.0259319
-0.0259353
-0.0259387
-0.0259422
-0.0259458
-0.0259495
-0.0259532
-0.0259571
-0.025961
-0.0259651
-0.0259692
-0.0259734
-0.0259777
-0.0259821
-0.0259866
-0.0259911
-0.0259958
-0.0260005
-0.0260053
-0.0260102
-0.0260152
-0.0260203
-0.0260254
-0.0260306
-0.0260359
-0.0260412
-0.0260467
-0.0260522
-0.0260577
-0.0260633
-0.026069
-0.0260747
-0.0260805
-0.0260863
-0.0260922
-0.0260981
-0.0261041
-0.0261101
-0.0261161
-0.0261222
-0.0261283
-0.0261344
-0.0261405
-0.0261466
-0.0261528
-0.0261589
-0.0261651
-0.0261712
-0.0261774
-0.0261835
-0.0261896
-0.0261957
-0.0262018
-0.0262079
-0.0262139
-0.0262199
-0.0262258
-0.0262317
-0.0262376
-0.0262434
-0.0262491
-0.0262548
-0.0262605
-0.026266
-0.0262715
-0.026277
-0.0262823
-0.0262876
-0.0262928
-0.026298
-0.026303
-0.026308
-0.0263128
-0.0263176
-0.0263223
-0.0263269
-0.0263314
-0.0263358
-0.0263401
-0.0263443
-0.0263484
-0.0263524
-0.0263563
-0.0263601
-0.0263638
-0.0263674
-0.0263709
-0.0263743
-0.0263776
-0.0263808
-0.0263839
-0.0263869
-0.0263898
-0.0263925
-0.0263952
-0.0263978
-0.0264003
-0.0264027
-0.026405
-0.0264072
-0.0264093
-0.0264113
-0.0264132
-0.0264151
-0.0264168
-0.0264185
-0.0264201
-0.0264216
-0.026423
-0.0264244
-0.0264257
-0.0264269
-0.026428
-0.0264291
-0.0264301
-0.026431
-0.0264319
-0.0264327
-0.0264334
-0.0264341
-0.0264347
-0.0264353
-0.0264358
-0.0264363
-0.0264367
-0.0264371
-0.0264375
-0.0264378
-0.026438
-0.0264382
-0.0264384
-0.0264386
-0.0264387
-0.0264387
-0.0264388
-0.0264388
-0.0264388
-0.0264387
-0.0264387
-0.0264386
-0.0264385
-0.0264383
-0.0264382
-0.026438
-0.0264378
-0.0264376
-0.0264373
-0.0264371
-0.0264368
-0.0264365
-0.0264362
-0.0264359
-0.0264356
-0.0264353
-0.0264349
-0.0264346
-0.0264342
-0.0264338
-0.0264334
-0.0264331
-0.0264327
-0.0264323
-0.0264319
-0.0264314
-0.026431
-0.0264306
-0.0264302
-0.0264297
-0.0264293
-0.0264288
-0.0264284
-0.0264279
-0.0264275
-0.026427
-0.0264266
-0.0264261
-0.0264256
-0.0264252
-0.0264247
-0.0264242
-0.0264238
-0.0264233
-0.0264228
-0.0264223
-0.0264219
-0.0264214
-0.0264209
-0.0264204
-0.0264199
-0.0264194
-0.026419
-0.0264185
-0.026418
-0.0264175
-0.026417
-0.0264165
-0.026416
-0.0264155
-0.026415
-0.0264146
-0.0264141
-0.0264136
-0.0264131
-0.0264126
-0.0264121
-0.0264116
-0.0264111
-0.0264106
-0.0264101
-0.0264096
-0.0264091
-0.0264086
-0.0264081
-0.0264076
-0.0264071
-0.0264066
-0.0264061
-0.0264056
-0.0264051
-0.0264046
-0.0264041
-0.0264036
-0.0264031
-0.0264026
-0.0264022
-0.0264017
-0.0264012
-0.0264007
-0.0264002
-0.0263996
-0.0263991
-0.0263986
-0.0263981
-0.0263976
-0.0263971
-0.0263966
-0.0263961
-0.0263956
-0.0263951
-0.0263946
-0.0263941
-0.0263936
-0.0263931
-0.0263926
-0.0263921
-0.0263916
-0.0263911
-0.0263906
-0.0263901
-0.0263896
-0.0263891
-0.0263886
-0.0263881
-0.0263876
-0.0263871
-0.0263866
-0.026386
-0.0263855
-0.026385
-0.0263845
-0.026384
-0.0263835
-0.026383
-0.0263825
-0.026382
-0.0263815
-0.026381
-0.0263805
-0.02638
-0.0263794
-0.0263789
-0.0263784
-0.0263779
-0.0263774
-0.0263769
-0.0263764
-0.0263759
-0.0263754
-0.0263748
-0.0263743
-0.0263738
-0.0263733
-0.0263728
-0.0263723
-0.0263718
-0.0263713
-0.0263707
-0.0263702
-0.0263697
-0.0263692
-0.0263687
-0.0263682
-0.0263677
-0.0263671
-0.0263666
-0.0263661
-0.0263656
-0.0263651
-0.0263646
-0.0263641
-0.0263635
-0.026363
-0.0263625
-0.026362
-0.0263615
-0.0263609
-0.0263604
-0.0263599
-0.0263594
-0.0263589
-0.0263584
-0.0263578
-0.0263573
-0.0263568
-0.0263563
-0.0263558
-0.0263552
-0.0263547
-0.0263542
-0.0263537
-0.0263532
-0.0263526
-0.0263521
-0.0263516
-0.0263511
-0.0263505
-0.02635
-0.0263495
-0.026349
-0.0263485
-0.0263479
-0.0263474
-0.0263469
-0.0263464
-0.0263458
-0.0263453
-0.0263448
-0.0263443
-0.0263437
-0.0263432
-0.0263427
-0.0263422
-0.0263416
-0.0263411
-0.0263406
-0.0263401
-0.0263395
-0.026339
-0.0263385
-0.0263379
-0.0263374
-0.0263369
-0.0263364
-0.0263358
-0.0263353
-0.0263348
-0.0263342
-0.0263337
-0.0263332
-0.0263327
-0.0263321
-0.0263316
-0.0263311
-0.0263305
-0.02633
-0.0263295
-0.0263289
-0.0263284
-0.0263279
-0.0263273
-0.0263268
-0.0263263
-0.0263257
-0.0263252
-0.0263247
-0.0263241
-0.0263236
-0.0263231
-0.0263225
-0.026322
-0.0263215
-0.0263209
-0.0263204
-0.0263199
-0.0263193
-0.0263188
-0.0263182
-0.0263177
-0.0263172
-0.0263166
-0.0263161
-0.0263156
-0.026315
-0.0263145
-0.0263139
-0.0263134
-0.0263129
-0.0263123
-0.0263118
-0.0263112
-0.0263107
-0.0263102
-0.0263096
-0.0263091
-0.0263085
-0.026308
-0.0263074
-0.0263069
-0.0263064
-0.0263058
-0.0263053
-0.0263047
-0.0263042
-0.0263036
-0.0263031
-0.0263026
-0.026302
-0.0263015
-0.0263009
-0.0263004
-0.0262998
-0.0262993
-0.0262987
-0.0262982
-0.0262976
-0.0262971
-0.0262966
-0.026296
-0.0262955
-0.0262949
-0.0262944
-0.0262938
-0.0262933
-0.0262927
-0.0262921
-0.0262916
-0.026291
-0.0262905
-0.0262899
-0.0262893
-0.0262888
-0.0262882
-0.0262876
-0.026287
-0.0262864
-0.0262858
-0.0262852
-0.0262845
-0.0262839
-0.0262832
-0.0262824
-0.0262816
-0.0262807
-0.0262799
-0.0262787
-0.0262777
-0.0262761
-0.026275
-0.026272
-0.0262732
-0.0262732
-0.0262732
1
0.483361
0.183966
0.10885
0.0810398
0.0668428
0.0581302
0.0521681
0.0477969
0.0444389
0.0417716
0.0395989
0.0377942
0.0362712
0.0349692
0.033844
0.0328625
0.0319997
0.031236
0.0305561
0.0299482
0.0294025
0.0289116
0.028469
0.0280696
0.0277093
0.0273855
0.0270973
0.0268451
0.0266303
0.0264535
0.0263137
0.0262077
0.02613
0.0260739
0.0260324
0.0259994
0.0259707
0.0259441
0.0259189
0.0258957
0.0258755
0.0258591
0.0258472
0.0258397
0.0258362
0.0258359
0.025838
0.0258416
0.025846
0.0258505
0.0258549
0.0258588
0.0258621
0.0258648
0.0258669
0.0258685
0.0258697
0.0258705
0.025871
0.0258713
0.0258715
0.0258715
0.0258714
0.0258713
0.0258711
0.0258709
0.0258706
0.0258704
0.0258702
0.0258699
0.0258696
0.0258694
0.0258691
0.0258689
0.0258686
0.0258684
0.0258681
0.0258679
0.0258676
0.0258674
0.0258671
0.0258668
0.0258666
0.0258663
0.0258661
0.0258659
0.0258656
0.0258654
0.0258651
0.0258649
0.0258646
0.0258644
0.0258641
0.0258639
0.0258636
0.0258634
0.0258631
0.0258629
0.0258627
0.0258624
0.0258622
0.0258619
0.0258617
0.0258614
0.0258612
0.025861
0.0258607
0.0258605
0.0258602
0.02586
0.0258598
0.0258595
0.0258593
0.0258591
0.0258588
0.0258586
0.0258584
0.0258581
0.0258579
0.0258577
0.0258574
0.0258572
0.025857
0.0258567
0.0258565
0.0258563
0.0258561
0.0258558
0.0258556
0.0258554
0.0258552
0.0258549
0.0258547
0.0258545
0.0258543
0.0258541
0.0258538
0.0258536
0.0258534
0.0258532
0.025853
0.0258528
0.0258525
0.0258523
0.0258521
0.0258519
0.0258517
0.0258515
0.0258513
0.0258511
0.0258509
0.0258507
0.0258505
0.0258503
0.0258501
0.0258498
0.0258497
0.0258495
0.0258493
0.0258491
0.0258489
0.0258487
0.0258485
0.0258483
0.0258481
0.0258479
0.0258477
0.0258475
0.0258474
0.0258472
0.025847
0.0258468
0.0258466
0.0258465
0.0258463
0.0258461
0.0258459
0.0258458
0.0258456
0.0258454
0.0258453
0.0258451
0.0258449
0.0258448
0.0258446
0.0258444
0.0258443
0.0258441
0.025844
0.0258438
0.0258437
0.0258435
0.0258434
0.0258433
0.0258431
0.025843
0.0258428
0.0258427
0.0258426
0.0258424
0.0258423
0.0258422
0.0258421
0.0258419
0.0258418
0.0258417
0.0258416
0.0258415
0.0258414
0.0258413
0.0258412
0.0258411
0.025841
0.0258409
0.0258408
0.0258407
0.0258406
0.0258405
0.0258405
0.0258404
0.0258403
0.0258402
0.0258402
0.0258401
0.0258401
0.02584
0.0258399
0.0258399
0.0258399
0.0258398
0.0258398
0.0258397
0.0258397
0.0258397
0.0258397
0.0258397
0.0258397
0.0258396
0.0258396
0.0258397
0.0258397
0.0258397
0.0258397
0.0258397
0.0258398
0.0258398
0.0258398
0.0258399
0.0258399
0.02584
0.0258401
0.0258401
0.0258402
0.0258403
0.0258404
0.0258405
0.0258406
0.0258407
0.0258409
0.025841
0.0258412
0.0258413
0.0258415
0.0258417
0.0258418
0.025842
0.0258422
0.0258425
0.0258427
0.0258429
0.0258432
0.0258435
0.0258437
0.025844
0.0258443
0.0258447
0.025845
0.0258453
0.0258457
0.0258461
0.0258465
0.0258469
0.0258474
0.0258478
0.0258483
0.0258488
0.0258493
0.0258499
0.0258505
0.0258511
0.0258517
0.0258523
0.025853
0.0258537
0.0258544
0.0258552
0.025856
0.0258568
0.0258577
0.0258586
0.0258595
0.0258605
0.0258615
0.0258625
0.0258636
0.0258648
0.0258659
0.0258672
0.0258684
0.0258697
0.0258711
0.0258725
0.025874
0.0258755
0.0258771
0.0258787
0.0258804
0.0258821
0.025884
0.0258858
0.0258878
0.0258898
0.0258918
0.025894
0.0258962
0.0258985
0.0259008
0.0259033
0.0259058
0.0259084
0.025911
0.0259138
0.0259166
0.0259195
0.0259225
0.0259255
0.0259287
0.0259319
0.0259353
0.0259387
0.0259422
0.0259458
0.0259495
0.0259532
0.0259571
0.025961
0.0259651
0.0259692
0.0259734
0.0259777
0.0259821
0.0259866
0.0259911
0.0259958
0.0260005
0.0260053
0.0260102
0.0260152
0.0260203
0.0260254
0.0260306
0.0260359
0.0260412
0.0260467
0.0260522
0.0260577
0.0260633
0.026069
0.0260747
0.0260805
0.0260863
0.0260922
0.0260981
0.0261041
0.0261101
0.0261161
0.0261222
0.0261283
0.0261344
0.0261405
0.0261466
0.0261528
0.0261589
0.0261651
0.0261712
0.0261774
0.0261835
0.0261896
0.0261957
0.0262018
0.0262079
0.0262139
0.0262199
0.0262258
0.0262317
0.0262376
0.0262434
0.0262491
0.0262548
0.0262605
0.026266
0.0262715
0.026277
0.0262823
0.0262876
0.0262928
0.026298
0.026303
0.026308
0.0263128
0.0263176
0.0263223
0.0263269
0.0263314
0.0263358
0.0263401
0.0263443
0.0263484
0.0263524
0.0263563
0.0263601
0.0263638
0.0263674
0.0263709
0.0263743
0.0263776
0.0263808
0.0263839
0.0263869
0.0263898
0.0263925
0.0263952
0.0263978
0.0264003
0.0264027
0.026405
0.0264072
0.0264093
0.0264113
0.0264132
0.0264151
0.0264168
0.0264185
0.0264201
0.0264216
0.026423
0.0264244
0.0264257
0.0264269
0.026428
0.0264291
0.0264301
0.026431
0.0264319
0.0264327
0.0264334
0.0264341
0.0264347
0.0264353
0.0264358
0.0264363
0.0264367
0.0264371
0.0264375
0.0264378
0.026438
0.0264382
0.0264384
0.0264386
0.0264387
0.0264387
0.0264388
0.0264388
0.0264388
0.0264387
0.0264387
0.0264386
0.0264385
0.0264383
0.0264382
0.026438
0.0264378
0.0264376
0.0264373
0.0264371
0.0264368
0.0264365
0.0264362
0.0264359
0.0264356
0.0264353
0.0264349
0.0264346
0.0264342
0.0264338
0.0264334
0.0264331
0.0264327
0.0264323
0.0264319
0.0264314
0.026431
0.0264306
0.0264302
0.0264297
0.0264293
0.0264288
0.0264284
0.0264279
0.0264275
0.026427
0.0264266
0.0264261
0.0264256
0.0264252
0.0264247
0.0264242
0.0264238
0.0264233
0.0264228
0.0264223
0.0264219
0.0264214
0.0264209
0.0264204
0.0264199
0.0264194
0.026419
0.0264185
0.026418
0.0264175
0.026417
0.0264165
0.026416
0.0264155
0.026415
0.0264146
0.0264141
0.0264136
0.0264131
0.0264126
0.0264121
0.0264116
0.0264111
0.0264106
0.0264101
0.0264096
0.0264091
0.0264086
0.0264081
0.0264076
0.0264071
0.0264066
0.0264061
0.0264056
0.0264051
0.0264046
0.0264041
0.0264036
0.0264031
0.0264026
0.0264022
0.0264017
0.0264012
0.0264007
0.0264002
0.0263996
0.0263991
0.0263986
0.0263981
0.0263976
0.0263971
0.0263966
0.0263961
0.0263956
0.0263951
0.0263946
0.0263941
0.0263936
0.0263931
0.0263926
0.0263921
0.0263916
0.0263911
0.0263906
0.0263901
0.0263896
0.0263891
0.0263886
0.0263881
0.0263876
0.0263871
0.0263866
0.026386
0.0263855
0.026385
0.0263845
0.026384
0.0263835
0.026383
0.0263825
0.026382
0.0263815
0.026381
0.0263805
0.02638
0.0263794
0.0263789
0.0263784
0.0263779
0.0263774
0.0263769
0.0263764
0.0263759
0.0263754
0.0263748
0.0263743
0.0263738
0.0263733
0.0263728
0.0263723
0.0263718
0.0263713
0.0263707
0.0263702
0.0263697
0.0263692
0.0263687
0.0263682
0.0263677
0.0263671
0.0263666
0.0263661
0.0263656
0.0263651
0.0263646
0.0263641
0.0263635
0.026363
0.0263625
0.026362
0.0263615
0.0263609
0.0263604
0.0263599
0.0263594
0.0263589
0.0263584
0.0263578
0.0263573
0.0263568
0.0263563
0.0263558
0.0263552
0.0263547
0.0263542
0.0263537
0.0263532
0.0263526
0.0263521
0.0263516
0.0263511
0.0263505
0.02635
0.0263495
0.026349
0.0263485
0.0263479
0.0263474
0.0263469
0.0263464
0.0263458
0.0263453
0.0263448
0.0263443
0.0263437
0.0263432
0.0263427
0.0263422
0.0263416
0.0263411
0.0263406
0.0263401
0.0263395
0.026339
0.0263385
0.0263379
0.0263374
0.0263369
0.0263364
0.0263358
0.0263353
0.0263348
0.0263342
0.0263337
0.0263332
0.0263327
0.0263321
0.0263316
0.0263311
0.0263305
0.02633
0.0263295
0.0263289
0.0263284
0.0263279
0.0263273
0.0263268
0.0263263
0.0263257
0.0263252
0.0263247
0.0263241
0.0263236
0.0263231
0.0263225
0.026322
0.0263215
0.0263209
0.0263204
0.0263199
0.0263193
0.0263188
0.0263182
0.0263177
0.0263172
0.0263166
0.0263161
0.0263156
0.026315
0.0263145
0.0263139
0.0263134
0.0263129
0.0263123
0.0263118
0.0263112
0.0263107
0.0263102
0.0263096
0.0263091
0.0263085
0.026308
0.0263074
0.0263069
0.0263064
0.0263058
0.0263053
0.0263047
0.0263042
0.0263036
0.0263031
0.0263026
0.026302
0.0263015
0.0263009
0.0263004
0.0262998
0.0262993
0.0262987
0.0262982
0.0262976
0.0262971
0.0262966
0.026296
0.0262955
0.0262949
0.0262944
0.0262938
0.0262933
0.0262927
0.0262921
0.0262916
0.026291
0.0262905
0.0262899
0.0262893
0.0262888
0.0262882
0.0262876
0.026287
0.0262864
0.0262858
0.0262852
0.0262845
0.0262839
0.0262832
0.0262824
0.0262816
0.0262807
0.0262799
0.0262787
0.0262777
0.0262761
0.026275
0.026272
0.0262732
0.0262732
0.0262732
1
0.969197
0.495624
0.314236
0.237915
0.197422
0.172168
0.154741
0.141899
0.132
0.124118
0.117685
0.112334
0.107814
0.103946
0.100602
0.0976833
0.0951173
0.0928464
0.0908254
0.0890191
0.0873995
0.0859438
0.0846335
0.0834534
0.0823919
0.0814419
0.0806008
0.0798699
0.079251
0.0787443
0.0783445
0.0780405
0.0778154
0.0776495
0.0775237
0.0774221
0.077334
0.0772539
0.0771805
0.0771152
0.0770603
0.0770176
0.0769879
0.0769705
0.076964
0.0769658
0.0769737
0.0769851
0.0769982
0.0770115
0.0770238
0.0770348
0.077044
0.0770515
0.0770573
0.0770618
0.0770651
0.0770674
0.077069
0.07707
0.0770706
0.0770709
0.0770709
0.0770707
0.0770705
0.0770702
0.0770698
0.0770694
0.077069
0.0770685
0.0770681
0.0770676
0.0770672
0.0770667
0.0770663
0.0770659
0.0770654
0.077065
0.0770646
0.0770641
0.0770637
0.0770633
0.0770629
0.0770625
0.077062
0.0770616
0.0770612
0.0770608
0.0770604
0.07706
0.0770596
0.0770592
0.0770588
0.0770584
0.077058
0.0770576
0.0770572
0.0770568
0.0770565
0.0770561
0.0770557
0.0770553
0.0770549
0.0770546
0.0770542
0.0770538
0.0770535
0.0770531
0.0770527
0.0770524
0.077052
0.0770517
0.0770513
0.077051
0.0770506
0.0770503
0.07705
0.0770496
0.0770493
0.077049
0.0770487
0.0770483
0.077048
0.0770477
0.0770474
0.0770471
0.0770468
0.0770465
0.0770462
0.0770459
0.0770456
0.0770453
0.077045
0.0770447
0.0770445
0.0770442
0.0770439
0.0770437
0.0770434
0.0770432
0.0770429
0.0770427
0.0770424
0.0770422
0.077042
0.0770417
0.0770415
0.0770413
0.0770411
0.0770409
0.0770407
0.0770405
0.0770403
0.0770401
0.0770399
0.0770397
0.0770396
0.0770394
0.0770392
0.0770391
0.0770389
0.0770388
0.0770387
0.0770385
0.0770384
0.0770383
0.0770382
0.0770381
0.077038
0.0770379
0.0770378
0.0770377
0.0770376
0.0770376
0.0770375
0.0770375
0.0770374
0.0770374
0.0770374
0.0770373
0.0770373
0.0770373
0.0770373
0.0770373
0.0770374
0.0770374
0.0770374
0.0770375
0.0770375
0.0770376
0.0770377
0.0770377
0.0770378
0.0770379
0.077038
0.0770382
0.0770383
0.0770384
0.0770386
0.0770387
0.0770389
0.0770391
0.0770393
0.0770395
0.0770397
0.0770399
0.0770402
0.0770404
0.0770407
0.077041
0.0770413
0.0770416
0.0770419
0.0770422
0.0770425
0.0770429
0.0770433
0.0770436
0.077044
0.0770445
0.0770449
0.0770453
0.0770458
0.0770463
0.0770468
0.0770473
0.0770478
0.0770483
0.0770489
0.0770495
0.0770501
0.0770507
0.0770513
0.077052
0.0770526
0.0770533
0.077054
0.0770548
0.0770555
0.0770563
0.0770571
0.0770579
0.0770588
0.0770597
0.0770606
0.0770615
0.0770624
0.0770634
0.0770644
0.0770655
0.0770665
0.0770676
0.0770687
0.0770699
0.077071
0.0770723
0.0770735
0.0770748
0.0770761
0.0770775
0.0770788
0.0770803
0.0770817
0.0770832
0.0770848
0.0770864
0.077088
0.0770897
0.0770914
0.0770932
0.077095
0.0770968
0.0770987
0.0771007
0.0771027
0.0771048
0.0771069
0.0771091
0.0771114
0.0771137
0.0771161
0.0771185
0.077121
0.0771236
0.0771263
0.077129
0.0771318
0.0771347
0.0771376
0.0771407
0.0771438
0.077147
0.0771503
0.0771537
0.0771572
0.0771608
0.0771645
0.0771682
0.0771721
0.0771761
0.0771802
0.0771845
0.0771888
0.0771933
0.0771978
0.0772025
0.0772074
0.0772123
0.0772174
0.0772227
0.077228
0.0772336
0.0772392
0.077245
0.077251
0.0772571
0.0772634
0.0772698
0.0772764
0.0772831
0.0772901
0.0772971
0.0773044
0.0773119
0.0773195
0.0773273
0.0773353
0.0773434
0.0773518
0.0773603
0.077369
0.0773779
0.077387
0.0773963
0.0774058
0.0774155
0.0774253