# vtk DataFile Version 2.0
FlowField
ASCII
DATASET STRUCTURED_GRID
DIMENSIONS 800 1 200
POINTS 160000 float
0 0 0
0.04 0 0
0.08 0 0
0.12 0 0
0.16 0 0
0.2 0 0
0.24 0 0
0.28 0 0
0.32 0 0
0.36 0 0
0.4 0 0
0.44 0 0
0.48 0 0
0.52 0 0
0.56 0 0
0.6 0 0
0.64 0 0
0.68 0 0
0.72 0 0
0.76 0 0
0.8 0 0
0.84 0 0
0.88 0 0
0.92 0 0
0.96 0 0
1 0 0
1.04 0 0
1.08 0 0
1.12 0 0
1.16 0 0
1.2 0 0
1.24 0 0
1.28 0 0
1.32 0 0
1.36 0 0
1.4 0 0
1.44 0 0
1.48 0 0
1.52 0 0
1.56 0 0
1.6 0 0
1.64 0 0
1.68 0 0
1.72 0 0
1.76 0 0
1.8 0 0
1.84 0 0
1.88 0 0
1.92 0 0
1.96 0 0
2 0 0
2.04 0 0
2.08 0 0
2.12 0 0
2.16 0 0
2.2 0 0
2.24 0 0
2.28 0 0
2.32 0 0
2.36 0 0
2.4 0 0
2.44 0 0
2.48 0 0
2.52 0 0
2.56 0 0
2.6 0 0
2.64 0 0
2.68 0 0
2.72 0 0
2.76 0 0
2.8 0 0
2.84 0 0
2.88 0 0
2.92 0 0
2.96 0 0
3 0 0
3.04 0 0
3.08 0 0
3.12 0 0
3.16 0 0
3.2 0 0
3.24 0 0
3.28 0 0
3.32 0 0
3.36 0 0
3.4 0 0
3.44 0 0
3.48 0 0
3.52 0 0
3.56 0 0
3.6 0 0
3.64 0 0
3.68 0 0
3.72 0 0
3.76 0 0
3.8 0 0
3.84 0 0
3.88 0 0
3.92 0 0
3.96 0 0
4 0 0
4.04 0 0
4.08 0 0
4.12 0 0
4.16 0 0
4.2 0 0
4.24 0 0
4.28 0 0
4.32 0 0
4.36 0 0
4.4 0 0
4.44 0 0
4.48 0 0
4.52 0 0
4.56 0 0
4.6 0 0
4.64 0 0
4.68 0 0
4.72 0 0
4.76 0 0
4.8 0 0
4.84 0 0
4.88 0 0
4.92 0 0
4.96 0 0
5 0 0
5.04 0 0
5.08 0 0
5.12 0 0
5.16 0 0
5.2 0 0
5.24 0 0
5.28 0 0
5.32 0 0
5.36 0 0
5.4 0 0
5.44 0 0
5.48 0 0
5.52 0 0
5.56 0 0
5.6 0 0
5.64 0 0
5.68 0 0
5.72 0 0
5.76 0 0
5.8 0 0
5.84 0 0
5.88 0 0
5.92 0 0
5.96 0 0
6 0 0
6.04 0 0
6.08 0 0
6.12 0 0
6.16 0 0
6.2 0 0
6.24 0 0
6.28 0 0
6.32 0 0
6.36 0 0
6.4 0 0
6.44 0 0
6.48 0 0
6.52 0 0
6.56 0 0
6.6 0 0
6.64 0 0
6.68 0 0
6.72 0 0
6.76 0 0
6.8 0 0
6.84 0 0
6.88 0 0
6.92 0 0
6.96 0 0
7 0 0
7.04 0 0
7.08 0 0
7.12 0 0
7.16 0 0
7.2 0 0
7.24 0 0
7.28 0 0
7.32 0 0
7.36 0 0
7.4 0 0
7.44 0 0
7.48 0 0
7.52 0 0
7.56 0 0
7.6 0 0
7.64 0 0
7.68 0 0
7.72 0 0
7.76 0 0
7.8 0 0
7.84 0 0
7.88 0 0
7.92 0 0
7.96 0 0
8 0 0
8.04 0 0
8.08 0 0
8.12 0 0
8.16 0 0
8.2 0 0
8.24 0 0
8.28 0 0
8.32 0 0
8.36 0 0
8.4 0 0
8.44 0 0
8.48 0 0
8.52 0 0
8.56 0 0
8.6 0 0
8.64 0 0
8.68 0 0
8.72 0 0
8.76 0 0
8.8 0 0
8.84 0 0
8.88 0 0
8.92 0 0
8.96 0 0
9 0 0
9.04 0 0
9.08 0 0
9.12 0 0
9.16 0 0
9.2 0 0
9.24 0 0
9.28 0 0
9.32 0 0
9.36 0 0
9.4 0 0
9.44 0 0
9.48 0 0
9.52 0 0
9.56 0 0
9.6 0 0
9.64 0 0
9.68 0 0
9.72 0 0
9.76 0 0
9.8 0 0
9.84 0 0
9.88 0 0
9.92 0 0
9.96 0 0
10 0 0
10.04 0 0
10.08 0 0
10.12 0 0
10.16 0 0
10.2 0 0
10.24 0 0
10.28 0 0
10.32 0 0
10.36 0 0
10.4 0 0
10.44 0 0
10.48 0 0
10.52 0 0
10.56 0 0
10.6 0 0
10.64 0 0
10.68 0 0
10.72 0 0
10.76 0 0
10.8 0 0
10.84 0 0
10.88 0 0
10.92 0 0
10.96 0 0
11 0 0
11.04 0 0
11.08 0 0
11.12 0 0
11.16 0 0
11.2 0 0
11.24 0 0
11.28 0 0
11.32 0 0
11.36 0 0
11.4 0 0
11.44 0 0
11.48 0 0
11.52 0 0
11.56 0 0
11.6 0 0
11.64 0 0
11.68 0 0
11.72 0 0
11.76 0 0
11.8 0 0
11.84 0 0
11.88 0 0
11.92 0 0
11.96 0 0
12 0 0
12.04 0 0
12.08 0 0
12.12 0 0
12.16 0 0
12.2 0 0
12.24 0 0
12.28 0 0
12.32 0 0
12.36 0 0
12.4 0 0
12.44 0 0
12.48 0 0
12.52 0 0
12.56 0 0
12.6 0 0
12.64 0 0
12.68 0 0
12.72 0 0
12.76 0 0
12.8 0 0
12.84 0 0
12.88 0 0
12.92 0 0
12.96 0 0
13 0 0
13.04 0 0
13.08 0 0
13.12 0 0
13.16 0 0
13.2 0 0
13.24 0 0
13.28 0 0
13.32 0 0
13.36 0 0
13.4 0 0
13.44 0 0
13.48 0 0
13.52 0 0
13.56 0 0
13.6 0 0
13.64 0 0
13.68 0 0
13.72 0 0
13.76 0 0
13.8 0 0
13.84 0 0
13.88 0 0
13.92 0 0
13.96 0 0
14 0 0
14.04 0 0
14.08 0 0
14.12 0 0
14.16 0 0
14.2 0 0
14.24 0 0
14.28 0 0
14.32 0 0
14.36 0 0
14.4 0 0
14.44 0 0
14.48 0 0
14.52 0 0
14.56 0 0
14.6 0 0
14.64 0 0
14.68 0 0
14.72 0 0
14.76 0 0
14.8 0 0
14.84 0 0
14.88 0 0
14.92 0 0
14.96 0 0
15 0 0
15.04 0 0
15.08 0 0
15.12 0 0
15.16 0 0
15.2 0 0
15.24 0 0
15.28 0 0
15.32 0 0
15.36 0 0
15.4 0 0
15.44 0 0
15.48 0 0
15.52 0 0
15.56 0 0
15.6 0 0
15.64 0 0
15.68 0 0
15.72 0 0
15.76 0 0
15.8 0 0
15.84 0 0
15.88 0 0
15.92 0 0
15.96 0 0
16 0 0
16.04 0 0
16.08 0 0
16.12 0 0
16.16 0 0
16.2 0 0
16.24 0 0
16.28 0 0
16.32 0 0
16.36 0 0
16.4 0 0
16.44 0 0
16.48 0 0
16.52 0 0
16.56 0 0
16.6 0 0
16.64 0 0
16.68 0 0
16.72 0 0
16.76 0 0
16.8 0 0
16.84 0 0
16.88 0 0
16.92 0 0
16.96 0 0
17 0 0
17.04 0 0
17.08 0 0
17.12 0 0
17.16 0 0
17.2 0 0
17.24 0 0
17.28 0 0
17.32 0 0
17.36 0 0
17.4 0 0
17.44 0 0
17.48 0 0
17.52 0 0
17.56 0 0
17.6 0 0
17.64 0 0
17.68 0 0
17.72 0 0
17.76 0 0
17.8 0 0
17.84 0 0
17.88 0 0
17.92 0 0
17.96 0 0
18 0 0
18.04 0 0
18.08 0 0
18.12 0 0
18.16 0 0
18.2 0 0
18.24 0 0
18.28 0 0
18.32 0 0
18.36 0 0
18.4 0 0
18.44 0 0
18.48 0 0
18.52 0 0
18.56 0 0
18.6 0 0
18.64 0 0
18.68 0 0
18.72 0 0
18.76 0 0
18.8 0 0
18.84 0 0
18.88 0 0
18.92 0 0
18.96 0 0
19 0 0
19.04 0 0
19.08 0 0
19.12 0 0
19.16 0 0
19.2 0 0
19.24 0 0
19.28 0 0
19.32 0 0
19.36 0 0
19.4 0 0
19.44 0 0
19.48 0 0
19.52 0 0
19.56 0 0
19.6 0 0
19.64 0 0
19.68 0 0
19.72 0 0
19.76 0 0
19.8 0 0
19.84 0 0
19.88 0 0
19.92 0 0
19.96 0 0
20 0 0
20.04 0 0
20.08 0 0
20.12 0 0
20.16 0 0
20.2 0 0
20.24 0 0
20.28 0 0
20.32 0 0
20.36 0 0
20.4 0 0
20.44 0 0
20.48 0 0
20.52 0 0
20.56 0 0
20.6 0 0
20.64 0 0
20.68 0 0
20.72 0 0
20.76 0 0
20.8 0 0
20.84 0 0
20.88 0 0
20.92 0 0
20.96 0 0
21 0 0
21.04 0 0
21.08 0 0
21.12 0 0
21.16 0 0
21.2 0 0
21.24 0 0
21.28 0 0
21.32 0 0
21.36 0 0
21.4 0 0
21.44 0 0
21.48 0 0
21.52 0 0
21.56 0 0
21.6 0 0
21.64 0 0
21.68 0 0
21.72 0 0
21.76 0 0
21.8 0 0
21.84 0 0
21.88 0 0
21.92 0 0
21.96 0 0
22 0 0
22.04 0 0
22.08 0 0
22.12 0 0
22.16 0 0
22.2 0 0
22.24 0 0
22.28 0 0
22.32 0 0
22.36 0 0
22.4 0 0
22.44 0 0
22.48 0 0
22.52 0 0
22.56 0 0
22.6 0 0
22.64 0 0
22.68 0 0
22.72 0 0
22.76 0 0
22.8 0 0
22.84 0 0
22.88 0 0
22.92 0 0
22.96 0 0
23 0 0
23.04 0 0
23.08 0 0
23.12 0 0
23.16 0 0
23.2 0 0
23.24 0 0
23.28 0 0
23.32 0 0
23.36 0 0
23.4 0 0
23.44 0 0
23.48 0 0
23.52 0 0
23.56 0 0
23.6 0 0
23.64 0 0
23.68 0 0
23.72 0 0
23.76 0 0
23.8 0 0
23.84 0 0
23.88 0 0
23.92 0 0
23.96 0 0
24 0 0
24.04 0 0
24.08 0 0
24.12 0 0
24.16 0 0
24.2 0 0
24.24 0 0
24.28 0 0
24.32 0 0
24.36 0 0
24.4 0 0
24.44 0 0
24.48 0 0
24.52 0 0
24.56 0 0
24.6 0 0
24.64 0 0
24.68 0 0
24.72 0 0
24.76 0 0
24.8 0 0
24.84 0 0
24.88 0 0
24.92 0 0
24.96 0 0
25 0 0
25.04 0 0
25.08 0 0
25.12 0 0
25.16 0 0
25.2 0 0
25.24 0 0
25.28 0 0
25.32 0 0
25.36 0 0
25.4 0 0
25.44 0 0
25.48 0 0
25.52 0 0
25.56 0 0
25.6 0 0
25.64 0 0
25.68 0 0
25.72 0 0
25.76 0 0
25.8 0 0
25.84 0 0
25.88 0 0
25.92 0 0
25.96 0 0
26 0 0
26.04 0 0
26.08 0 0
26.12 0 0
26.16 0 0
26.2 0 0
26.24 0 0
26.28 0 0
26.32 0 0
26.36 0 0
26.4 0 0
26.44 0 0
26.48 0 0
26.52 0 0
26.56 0 0
26.6 0 0
26.64 0 0
26.68 0 0
26.72 0 0
26.76 0 0
26.8 0 0
26.84 0 0
26.88 0 0
26.92 0 0
26.96 0 0
27 0 0
27.04 0 0
27.08 0 0
27.12 0 0
27.16 0 0
27.2 0 0
27.24 0 0
27.28 0 0
27.32 0 0
27.36 0 0
27.4 0 0
27.44 0 0
27.48 0 0
27.52 0 0
27.56 0 0
27.6 0 0
27.64 0 0
27.68 0 0
27.72 0 0
27.76 0 0
27.8 0 0
27.84 0 0
27.88 0 0
27.92 0 0
27.96 0 0
28 0 0
28.04 0 0
28.08 0 0
28.12 0 0
28.16 0 0
28.2 0 0
28.24 0 0
28.28 0 0
28.32 0 0
28.36 0 0
28.4 0 0
28.44 0 0
28.48 0 0
28.52 0 0
28.56 0 0
28.6 0 0
28.64 0 0
28.68 0 0
28.72 0 0
28.76 0 0
28.8 0 0
28.84 0 0
28.88 0 0
28.92 0 0
28.96 0 0
29 0 0
29.04 0 0
29.08 0 0
29.12 0 0
29.16 0 0
29.2 0 0
29.24 0 0
29.28 0 0
29.32 0 0
29.36 0 0
29.4 0 0
29.44 0 0
29.48 0 0
29.52 0 0
29.56 0 0
29.6 0 0
29.64 0 0
29.68 0 0
29.72 0 0
29.76 0 0
29.8 0 0
29.84 0 0
29.88 0 0
29.92 0 0
29.96 0 0
30 0 0
30.04 0 0
30.08 0 0
30.12 0 0
30.16 0 0
30.2 0 0
30.24 0 0
30.28 0 0
30.32 0 0
30.36 0 0
30.4 0 0
30.44 0 0
30.48 0 0
30.52 0 0
30.56 0 0
30.6 0 0
30.64 0 0
30.68 0 0
30.72 0 0
30.76 0 0
30.8 0 0
30.84 0 0
30.88 0 0
30.92 0 0
30.96 0 0
31 0 0
31.04 0 0
31.08 0 0
31.12 0 0
31.16 0 0
31.2 0 0
31.24 0 0
31.28 0 0
31.32 0 0
31.36 0 0
31.4 0 0
31.44 0 0
31.48 0 0
31.52 0 0
31.56 0 0
31.6 0 0
31.64 0 0
31.68 0 0
31.72 0 0
31.76 0 0
31.8 0 0
31.84 0 0
31.88 0 0
31.92 0 0
31.96 0 0
0 0.005 0
0.04 0.005 0
0.08 0.005 0
0.12 0.005 0
0.16 0.005 0
0.2 0.005 0
0.24 0.005 0
0.28 0.005 0
0.32 0.005 0
0.36 0.005 0
0.4 0.005 0
0.44 0.005 0
0.48 0.005 0
0.52 0.005 0
0.56 0.005 0
0.6 0.005 0
0.64 0.005 0
0.68 0.005 0
0.72 0.005 0
0.76 0.005 0
0.8 0.005 0
0.84 0.005 0
0.88 0.005 0
0.92 0.005 0
0.96 0.005 0
1 0.005 0
1.04 0.005 0
1.08 0.005 0
1.12 0.005 0
1.16 0.005 0
1.2 0.005 0
1.24 0.005 0
1.28 0.005 0
1.32 0.005 0
1.36 0.005 0
1.4 0.005 0
1.44 0.005 0
1.48 0.005 0
1.52 0.005 0
1.56 0.005 0
1.6 0.005 0
1.64 0.005 0
1.68 0.005 0
1.72 0.005 0
1.76 0.005 0
1.8 0.005 0
1.84 0.005 0
1.88 0.005 0
1.92 0.005 0
1.96 0.005 0
2 0.005 0
2.04 0.005 0
2.08 0.005 0
2.12 0.005 0
2.16 0.005 0
2.2 0.005 0
2.24 0.005 0
2.28 0.005 0
2.32 0.005 0
2.36 0.005 0
2.4 0.005 0
2.44 0.005 0
2.48 0.005 0
2.52 0.005 0
2.56 0.005 0
2.6 0.005 0
2.64 0.005 0
2.68 0.005 0
2.72 0.005 0
2.76 0.005 0
2.8 0.005 0
2.84 0.005 0
2.88 0.005 0
2.92 0.005 0
2.96 0.005 0
3 0.005 0
3.04 0.005 0
3.08 0.005 0
3.12 0.005 0
3.16 0.005 0
3.2 0.005 0
3.24 0.005 0
3.28 0.005 0
3.32 0.005 0
3.36 0.005 0
3.4 0.005 0
3.44 0.005 0
3.48 0.005 0
3.52 0.005 0
3.56 0.005 0
3.6 0.005 0
3.64 0.005 0
3.68 0.005 0
3.72 0.005 0
3.76 0.005 0
3.8 0.005 0
3.84 0.005 0
3.88 0.005 0
3.92 0.005 0
3.96 0.005 0
4 0.005 0
4.04 0.005 0
4.08 0.005 0
4.12 0.005 0
4.16 0.005 0
4.2 0.005 0
4.24 0.005 0
4.28 0.005 0
4.32 0.005 0
4.36 0.005 0
4.4 0.005 0
4.44 0.005 0
4.48 0.005 0
4.52 0.005 0
4.56 0.005 0
4.6 0.005 0
4.64 0.005 0
4.68 0.005 0
4.72 0.005 0
4.76 0.005 0
4.8 0.005 0
4.84 0.005 0
4.88 0.005 0
4.92 0.005 0
4.96 0.005 0
5 0.005 0
5.04 0.005 0
5.08 0.005 0
5.12 0.005 0
5.16 0.005 0
5.2 0.005 0
5.24 0.005 0
5.28 0.005 0
5.32 0.005 0
5.36 0.005 0
5.4 0.005 0
5.44 0.005 0
5.48 0.005 0
5.52 0.005 0
5.56 0.005 0
5.6 0.005 0
5.64 0.005 0
5.68 0.005 0
5.72 0.005 0
5.76 0.005 0
5.8 0.005 0
5.84 0.005 0
5.88 0.005 0
5.92 0.005 0
5.96 0.005 0
6 0.005 0
6.04 0.005 0
6.08 0.005 0
6.12 0.005 0
6.16 0.005 0
6.2 0.005 0
6.24 0.005 0
6.28 0.005 0
6.32 0.005 0
6.36 0.005 0
6.4 0.005 0
6.44 0.005 0
6.48 0.005 0
6.52 0.005 0
6.56 0.005 0
6.6 0.005 0
6.64 0.005 0
6.68 0.005 0
6.72 0.005 0
6.76 0.005 0
6.8 0.005 0
6.84 0.005 0
6.88 0.005 0
6.92 0.005 0
6.96 0.005 0
7 0.005 0
7.04 0.005 0
7.08 0.005 0
7.12 0.005 0
7.16 0.005 0
7.2 0.005 0
7.24 0.005 0
7.28 0.005 0
7.32 0.005 0
7.36 0.005 0
7.4 0.005 0
[...]
POINT_DATA 160000

SCALARS p float 1
LOOKUP_TABLE default
1
16.1405
13.9251
13.6702
13.6101
13.5837
13.5676
13.556
13.5468
13.539
13.532
13.5257
13.5198
13.5143
13.509
13.5039
13.4989
13.4941
13.4894
13.4848
13.4803
13.4758
13.4714
13.4671
13.4628
13.4586
13.4545
13.4504
13.4463
13.4423
13.4384
13.4345
13.4306
13.4268
13.423
13.4192
13.4155
13.4119
13.4083
13.4047
13.4011
13.3976
13.3941
13.3907
13.3873
13.3839
13.3805
13.3772
13.3739
13.3707
13.3674
13.3642
13.361
13.3579
13.3548
13.3517
13.3486
13.3455
13.3425
13.3395
13.3365
13.3336
13.3307
13.3278
13.3249
13.322
13.3192
13.3164
13.3137
13.3109
13.3082
13.3055
13.3028
13.3002
13.2976
13.295
13.2924
13.2899
13.2874
13.2849
13.2825
13.28
13.2776
13.2753
13.2729
13.2706
13.2683
13.266
13.2637
13.2614
13.2592
13.2569
13.2547
13.2525
13.2503
13.2481
13.2459
13.2437
13.2415
13.2394
13.2372
13.2351
13.2329
13.2308
13.2287
13.2265
13.2244
13.2223
13.2202
13.2181
13.216
13.2139
13.2118
13.2098
13.2077
13.2057
13.2036
13.2016
13.1996
13.1976
13.1956
13.1936
13.1916
13.1896
13.1876
13.1856
13.1836
13.1817
13.1797
13.1777
13.1758
13.1738
13.1718
13.1698
13.1679
13.1659
13.1639
13.162
13.16
13.158
13.156
13.1541
13.1521
13.1501
13.1482
13.1462
13.1442
13.1423
13.1403
13.1383
13.1363
13.1344
13.1324
13.1304
13.1285
13.1265
13.1245
13.1225
13.1206
13.1186
13.1166
13.1147
13.1127
13.1107
13.1088
13.1068
13.1048
13.1028
13.1009
13.0989
13.0969
13.095
13.093
13.091
13.0891
13.0871
13.0851
13.0831
13.0812
13.0792
13.0772
13.0753
13.0733
13.0713
13.0694
13.0674
13.0654
13.0634
13.0615
13.0595
13.0575
13.0556
13.0536
13.0516
13.0497
13.0477
13.0457
13.0437
13.0418
13.0398
13.0378
13.0359
13.0339
13.0319
13.03
13.028
13.026
13.024
13.0221
13.0201
13.0181
13.0162
13.0142
13.0122
13.0103
13.0083
13.0063
13.0044
13.0024
13.0004
12.9984
12.9965
12.9945
12.9925
12.9906
12.9886
12.9866
12.9847
12.9827
12.9807
12.9788
12.9768
12.9748
12.9728
12.9709
12.9689
12.9669
12.965
12.963
12.961
12.9591
12.9571
12.9551
12.9532
12.9512
12.9492
12.9472
12.9453
12.9433
12.9413
12.9394
12.9374
12.9354
12.9335
12.9315
12.9295
12.9276
12.9256
12.9236
12.9217
12.9197
12.9177
12.9158
12.9138
12.9118
12.9099
12.9079
12.9059
12.9039
12.902
12.9
12.898
12.8961
12.8941
12.8921
12.8902
12.8882
12.8862
12.8843
12.8823
12.8803
12.8784
12.8764
12.8744
12.8725
12.8705
12.8685
12.8666
12.8646
12.8626
12.8607
12.8587
12.8567
12.8548
12.8528
12.8508
12.8489
12.8469
12.8449
12.843
12.841
12.839
12.8371
12.8351
12.8331
12.8312
12.8292
12.8272
12.8253
12.8233
12.8213
12.8194
12.8174
12.8154
12.8135
12.8115
12.8095
12.8076
12.8056
12.8036
12.8017
12.7997
12.7977
12.7958
12.7938
12.7918
12.7899
12.7879
12.7859
12.784
12.782
12.78
12.7781
12.7761
12.7741
12.7722
12.7702
12.7682
12.7663
12.7643
12.7624
12.7604
12.7584
12.7565
12.7545
12.7525
12.7506
12.7486
12.7466
12.7447
12.7427
12.7407
12.7388
12.7368
12.7348
12.7329
12.7309
12.729
12.727
12.725
12.7231
12.7211
12.7191
12.7172
12.7152
12.7132
12.7113
12.7093
12.7073
12.7054
12.7034
12.7015
12.6995
12.6975
12.6956
12.6936
12.6916
12.6897
12.6877
12.6858
12.6838
12.6818
12.6799
12.6779
12.6759
12.674
12.672
12.67
12.6681
12.6661
12.6642
12.6622
12.6602
12.6583
12.6563
12.6543
12.6524
12.6504
12.6485
12.6465
12.6445
12.6426
12.6406
12.6386
12.6367
12.6347
12.6328
12.6308
12.6288
12.6269
12.6249
12.6229
12.621
12.619
12.6171
12.6151
12.6131
12.6112
12.6092
12.6072
12.6053
12.6033
12.6014
12.5994
12.5974
12.5955
12.5935
12.5915
12.5896
12.5876
12.5856
12.5837
12.5817
12.5798
12.5778
12.5758
12.5739
12.5719
12.5699
12.568
12.566
12.564
12.5621
12.5601
12.5582
12.5562
12.5542
12.5523
12.5503
12.5483
12.5464
12.5444
12.5424
12.5405
12.5385
12.5365
12.5346
12.5326
12.5306
12.5287
12.5267
12.5247
12.5228
12.5208
12.5188
12.5169
12.5149
12.5129
12.511
12.509
12.507
12.5051
12.5031
12.5011
12.4992
12.4972
12.4952
12.4933
12.4913
12.4893
12.4873
12.4854
12.4834
12.4814
12.4795
12.4775
12.4755
12.4735
12.4716
12.4696
12.4676
12.4657
12.4637
12.4617
12.4597
12.4578
12.4558
12.4538
12.4518
12.4499
12.4479
12.4459
12.4439
12.442
12.44
12.438
12.436
12.4341
12.4321
12.4301
12.4281
12.4261
12.4242
12.4222
12.4202
12.4182
12.4163
12.4143
12.4123
12.4103
12.4083
12.4063
12.4044
12.4024
12.4004
12.3984
12.3964
12.3945
12.3925
12.3905
12.3885
12.3865
12.3845
12.3826
12.3806
12.3786
12.3766
12.3746
12.3726
12.3706
12.3687
12.3667
12.3647
12.3627
12.3607
12.3587
12.3567
12.3547
12.3528
12.3508
12.3488
12.3468
12.3448
12.3428
12.3408
12.3388
12.3368
12.3349
12.3329
12.3309
12.3289
12.3269
12.3249
12.3229
12.3209
12.3189
12.3169
12.3149
12.3129
12.3109
12.309
12.307
12.305
12.303
12.301
12.299
12.297
12.295
12.293
12.291
12.289
12.287
12.285
12.283
12.281
12.279
12.277
12.275
12.273
12.271
12.2691
12.2671
12.2651
12.2631
12.2611
12.2591
12.2571
12.2551
12.2531
12.2511
12.2491
12.2471
12.2451
12.2431
12.2411
12.2391
12.2371
12.2351
12.2331
12.2311
12.2291
12.2271
12.2251
12.2231
12.2211
12.2191
12.2171
12.2151
12.2131
12.2111
12.2091
12.2071
12.2051
12.2031
12.2011
12.1991
12.1971
12.1951
12.1931
12.1911
12.1891
12.1871
12.1851
12.1831
12.1811
12.1791
12.1771
12.1751
12.1731
12.1711
12.1691
12.167
12.165
12.163
12.161
12.159
12.157
12.155
12.153
12.151
12.149
12.147
12.145
12.143
12.141
12.139
12.137
12.135
12.133
12.131
12.129
12.127
12.125
12.123
12.121
12.119
12.117
12.115
12.113
12.111
12.109
12.107
12.1049
12.1029
12.1009
12.0989
12.0969
12.0949
12.0929
12.0909
12.0889
12.0869
12.0849
12.0829
12.0809
12.0789
12.0769
12.0749
12.0729
12.0709
12.0689
12.0669
12.0649
12.0628
12.0608
12.0588
12.0568
12.0548
12.0528
12.0508
12.0488
12.0468
12.0448
12.0428
12.0408
12.0388
12.0368
12.0348
12.0328
12.0308
12.0287
12.0267
12.0247
12.0227
12.0207
12.0187
12.0167
12.0147
12.0127
12.0107
12.0087
12.0067
12.0047
12.0027
12.0007
11.9986
11.9966
11.9946
11.9926
11.9906
11.9886
11.9866
11.9846
11.9826
11.9806
11.9786
11.9766
11.9746
11.9726
11.9705
11.9685
11.9665
11.9645
11.9625
11.9605
11.9585
11.9565
11.9545
11.9525
11.9505
11.9485
11.9465
11.9444
11.9424
11.9404
11.9384
11.9364
11.9344
11.9324
11.9304
11.9284
11.9264
11.9244
11.9223
11.9203
11.9183
11.9163
11.9143
11.9123
11.9103
11.9083
11.9063
11.9043
11.9023
11.9002
11.8982
11.8962
11.8942
11.8922
11.8902
11.8882
11.8862
11.8842
11.8822
11.8802
11.8781
11.8761
11.8741
11.8721
11.8701
11.8681
11.8661
11.8641
11.8621
11.8601
11.858
11.856
11.854
11.852
1
16.1405
16.1405
13.9251
13.6702
13.6101
13.5837
13.5676
13.556
13.5468
13.539
13.532
13.5257
13.5198
13.5143
13.509
13.5039
13.4989
13.4941
13.4894
13.4848
13.4803
13.4758
13.4714
13.4671
13.4628
13.4586
13.4545
13.4504
13.4463
13.4423
13.4384
13.4345
13.4306
13.4268
13.423
13.4192
13.4155
13.4119
13.4083
13.4047
13.4011
13.3976
13.3941
13.3907
13.3873
13.3839
13.3805
13.3772
13.3739
13.3707
13.3674
13.3642
13.361
13.3579
13.3548
13.3517
13.3486
13.3455
13.3425
13.3395
13.3365
13.3336
13.3307
13.3278
13.3249
13.322
13.3192
13.3164
13.3137
13.3109
13.3082
13.3055
13.3028
13.3002
13.2976
13.295
13.2924
13.2899
13.2874
13.2849
13.2825
13.28
13.2776
13.2753
13.2729
13.2706
13.2683
13.266
13.2637
13.2614
13.2592
13.2569
13.2547
13.2525
13.2503
13.2481
13.2459
13.2437
13.2415
13.2394
13.2372
13.2351
13.2329
13.2308
13.2287
13.2265
13.2244
13.2223
13.2202
13.2181
13.216
13.2139
13.2118
13.2098
13.2077
13.2057
13.2036
13.2016
13.1996
13.1976
13.1956
13.1936
13.1916
13.1896
13.1876
13.1856
13.1836
13.1817
13.1797
13.1777
13.1758
13.1738
13.1718
13.1698
13.1679
13.1659
13.1639
13.162
13.16
13.158
13.156
13.1541
13.1521
13.1501
13.1482
13.1462
13.1442
13.1423
13.1403
13.1383
13.1363
13.1344
13.1324
13.1304
13.1285
13.1265
13.1245
13.1225
13.1206
13.1186
13.1166
13.1147
13.1127
13.1107
13.1088
13.1068
13.1048
13.1028
13.1009
13.0989
13.0969
13.095
13.093
13.091
13.0891
13.0871
13.0851
13.0831
13.0812
13.0792
13.0772
13.0753
13.0733
13.0713
13.0694
13.0674
13.0654
13.0634
13.0615
13.0595
13.0575
13.0556
13.0536
13.0516
13.0497
13.0477
13.0457
13.0437
13.0418
13.0398
13.0378
13.0359
13.0339
13.0319
13.03
13.028
13.026
13.024
13.0221
13.0201
13.0181
13.0162
13.0142
13.0122
13.0103
13.0083
13.0063
13.0044
13.0024
13.0004
12.9984
12.9965
12.9945
12.9925
12.9906
12.9886
12.9866
12.9847
12.9827
12.9807
12.9788
12.9768
12.9748
12.9728
12.9709
12.9689
12.9669
12.965
12.963
12.961
12.9591
12.9571
12.9551
12.9532
12.9512
12.9492
12.9472
12.9453
12.9433
12.9413
12.9394
12.9374
12.9354
12.9335
12.9315
12.9295
12.9276
12.9256
12.9236
12.9217
12.9197
12.9177
12.9158
12.9138
12.9118
12.9099
12.9079
12.9059
12.9039
12.902
12.9
12.898
12.8961
12.8941
12.8921
12.8902
12.8882
12.8862
12.8843
12.8823
12.8803
12.8784
12.8764
12.8744
12.8725
12.8705
12.8685
12.8666
12.8646
12.8626
12.8607
12.8587
12.8567
12.8548
12.8528
12.8508
12.8489
12.8469
12.8449
12.843
12.841
12.839
12.8371
12.8351
12.8331
12.8312
12.8292
12.8272
12.8253
12.8233
12.8213
12.8194
12.8174
12.8154
12.8135
12.8115
12.8095
12.8076
12.8056
12.8036
12.8017
12.7997
12.7977
12.7958
12.7938
12.7918
12.7899
12.7879
12.7859
12.784
12.782
12.78
12.7781
12.7761
12.7741
12.7722
12.7702
12.7682
12.7663
12.7643
12.7624
12.7604
12.7584
12.7565
12.7545
12.7525
12.7506
12.7486
12.7466
12.7447
12.7427
12.7407
12.7388
12.7368
12.7348
12.7329
12.7309
12.729
12.727
12.725
12.7231
12.7211
12.7191
12.7172
12.7152
12.7132
12.7113
12.7093
12.7073
12.7054
12.7034
12.7015
12.6995
12.6975
12.6956
12.6936
12.6916
12.6897
12.6877
12.6858
12.6838
12.6818
12.6799
12.6779
12.6759
12.674
12.672
12.67
12.6681
12.6661
12.6642
12.6622
12.6602
12.6583
12.6563
12.6543
12.6524
12.6504
12.6485
12.6465
12.6445
12.6426
12.6406
12.6386
12.6367
12.6347
12.6328
12.6308
12.6288
12.6269
12.6249
12.6229
12.621
12.619
12.6171
12.6151
12.6131
12.6112
12.6092
12.6072
12.6053
12.6033
12.6014
12.5994
12.5974
12.5955
12.5935
12.5915
12.5896
12.5876
12.5856
12.5837
12.5817
12.5798
12.5778
12.5758
12.5739
12.5719
12.5699
12.568
12.566
12.564
12.5621
12.5601
12.5582
12.5562
12.5542
12.5523
12.5503
12.5483
12.5464
12.5444
12.5424
12.5405
12.5385
12.5365
12.5346
12.5326
12.5306
12.5287
12.5267
12.5247
12.5228
12.5208
12.5188
12.5169
12.5149
12.5129
12.511
12.509
12.507
12.5051
12.5031
12.5011
12.4992
12.4972
12.4952
12.4933
12.4913
12.4893
12.4873
12.4854
12.4834
12.4814
12.4795
12.4775
12.4755
12.4735
12.4716
12.4696
12.4676
12.4657
12.4637
12.4617
12.4597
12.4578
12.4558
12.4538
12.4518
12.4499
12.4479
12.4459
12.4439
12.442
12.44
12.438
12.436
12.4341
12.4321
12.4301
12.4281
12.4261
12.4242
12.4222
12.4202
12.4182
12.4163
12.4143
12.4123
12.4103
12.4083
12.4063
12.4044
12.4024
12.4004
12.3984
12.3964
12.3945
12.3925
12.3905
12.3885
12.3865
12.3845
12.3826
12.3806
12.3786
12.3766
12.3746
12.3726
12.3706
12.3687
12.3667
12.3647
12.3627
12.3607
12.3587
12.3567
12.3547
12.3528
12.3508
12.3488
12.3468
12.3448
12.3428
12.3408
12.3388
12.3368
12.3349
12.3329
12.3309
12.3289
12.3269
12.3249
12.3229
12.3209
12.3189
12.3169
12.3149
12.3129
12.3109
12.309
12.307
12.305
12.303
12.301
12.299
12.297
12.295
12.293
12.291
12.289
12.287
12.285
12.283
12.281
12.279
12.277
12.275
12.273
12.271
12.2691
12.2671
12.2651
12.2631
12.2611
12.2591
12.2571
12.2551
12.2531
12.2511
12.2491
12.2471
12.2451
12.2431
12.2411
12.2391
12.2371
12.2351
12.2331
12.2311
12.2291
12.2271
12.2251
12.2231
12.2211
12.2191
12.2171
12.2151
12.2131
12.2111
12.2091
12.2071
12.2051
12.2031
12.2011
12.1991
12.1971
12.1951
12.1931
12.1911
12.1891
12.1871
12.1851
12.1831
12.1811
12.1791
12.1771
12.1751
12.1731
12.1711
12.1691
12.167
12.165
12.163
12.161
12.159
12.157
12.155
12.153
12.151
12.149
12.147
12.145
12.143
12.141
12.139
12.137
12.135
12.133
12.131
12.129
12.127
12.125
12.123
12.121
12.119
12.117
12.115
12.113
12.111
12.109
12.107
12.1049
12.1029
12.1009
12.0989
12.0969
12.0949
12.0929
12.0909
12.0889
12.0869
12.0849
12.0829
12.0809
12.0789
12.0769
12.0749
12.0729
12.0709
12.0689
12.0669
12.0649
12.0628
12.0608
12.0588
12.0568
12.0548
12.0528
12.0508
12.0488
12.0468
12.0448
12.0428
12.0408
12.0388
12.0368
12.0348
12.0328
12.0308
12.0287
12.0267
12.0247
12.0227
12.0207
12.0187
12.0167
12.0147
12.0127
12.0107
12.0087
12.0067
12.0047
12.0027
12.0007
11.9986
11.9966
11.9946
11.9926
11.9906
11.9886
11.9866
11.9846
11.9826
11.9806
11.9786
11.9766
11.9746
11.9726
11.9705
11.9685
11.9665
11.9645
11.9625
11.9605
11.9585
11.9565
11.9545
11.9525
11.9505
11.9485
11.9465
11.9444
11.9424
11.9404
11.9384
11.9364
11.9344
11.9324
11.9304
11.9284
11.9264
11.9244
11.9223
11.9203
11.9183
11.9163
11.9143
11.9123
11.9103
11.9083
11.9063
11.9043
11.9023
11.9002
11.8982
11.8962
11.8942
11.8922
11.8902
11.8882
11.8862
11.8842
11.8822
11.8802
11.8781
11.8761
11.8741
11.8721
11.8701
11.8681
11.8661
11.8641
11.8621
11.8601
11.858
11.856
11.854
11.852
11.852
15.4935
15.4935
13.9355
13.6797
13.6142
13.5859
13.569
13.557
13.5475
13.5395
13.5325
13.5261
13.5201
13.5145
13.5092
13.5041
13.4991
13.4943
13.4895
13.4849
13.4804
13.4759
13.4715
13.4672
13.4629
13.4587
13.4545
13.4504
13.4464
13.4424
13.4384
13.4345
13.4306
13.4268
13.423
13.4193
13.4156
13.4119
13.4083
13.4047
13.4012
13.3976
13.3942
13.3907
13.3873
13.3839
13.3806
13.3772
13.3739
13.3707
13.3674
13.3642
13.3611
13.3579
13.3548
13.3517
13.3486
13.3456
13.3425
13.3395
13.3366
13.3336
13.3307
13.3278
13.3249
13.3221
13.3192
13.3164
13.3137
13.3109
13.3082
13.3055
13.3028
13.3002
13.2976
13.295
13.2924
13.2899
13.2874
13.2849
13.2825
13.2801
13.2777
13.2753
13.2729
13.2706
13.2683
13.266
13.2637
13.2614
13.2592
13.2569
13.2547
13.2525
13.2503
13.2481
13.2459
13.2437
13.2415
13.2394
13.2372
13.2351
13.2329
13.2308
13.2287
13.2265
13.2244
13.2223
13.2202
13.2181
13.216
13.2139
13.2118
13.2098
13.2077
13.2057
13.2036
13.2016
13.1996
13.1976
13.1956
13.1936
13.1916
13.1896
13.1876
13.1856
13.1836
13.1817
13.1797
13.1777
13.1758
13.1738
13.1718
13.1698
13.1679
13.1659
13.1639
13.162
13.16
13.158
13.1561
13.1541
13.1521
13.1501
13.1482
13.1462
13.1442
13.1423
13.1403
13.1383
13.1363
13.1344
13.1324
13.1304
13.1285
13.1265
13.1245
13.1226
13.1206
13.1186
13.1166
13.1147
13.1127
13.1107
13.1088
13.1068
13.1048
13.1028
13.1009
13.0989
13.0969
13.095
13.093
13.091
13.0891
13.0871
13.0851
13.0831
13.0812
13.0792
13.0772
13.0753
13.0733
13.0713
13.0694
13.0674
13.0654
13.0634
13.0615
13.0595
13.0575
13.0556
13.0536
13.0516
13.0497
13.0477
13.0457
13.0437
13.0418
13.0398
13.0378
13.0359
13.0339
13.0319
13.03
13.028
13.026
13.024
13.0221
13.0201
13.0181
13.0162
13.0142
13.0122
13.0103
13.0083
13.0063
13.0044
13.0024
13.0004
12.9984
12.9965
12.9945
12.9925
12.9906
12.9886
12.9866
12.9847
12.9827
12.9807
12.9788
12.9768
12.9748
12.9728
12.9709
12.9689
12.9669
12.965
12.963
12.961
12.9591
12.9571
12.9551
12.9532
12.9512
12.9492
12.9473
12.9453
12.9433
12.9413
12.9394
12.9374
12.9354
12.9335
12.9315
12.9295
12.9276
12.9256
12.9236
12.9217
12.9197
12.9177
12.9158
12.9138
12.9118
12.9099
12.9079
12.9059
12.904
12.902
12.9
12.898
12.8961
12.8941
12.8921
12.8902
12.8882
12.8862
12.8843
12.8823
12.8803
12.8784
12.8764
12.8744
12.8725
12.8705
12.8685
12.8666
12.8646
12.8626
12.8607
12.8587
12.8567
12.8548
12.8528
12.8508
12.8489
12.8469
12.8449
12.843
12.841
12.839
12.8371
12.8351
12.8331
12.8312
12.8292
12.8272
12.8253
12.8233
12.8213
12.8194
12.8174
12.8154
12.8135
12.8115
12.8095
12.8076
12.8056
12.8036
12.8017
12.7997
12.7977
12.7958
12.7938
12.7918
12.7899
12.7879
12.7859
12.784
12.782
12.78
12.7781
12.7761
12.7741
12.7722
12.7702
12.7683
12.7663
12.7643
12.7624
12.7604
12.7584
12.7565
12.7545
12.7525
12.7506
12.7486
12.7466
12.7447
12.7427
12.7407
12.7388
12.7368
12.7349
12.7329
12.7309
12.729
12.727
12.725
12.7231
12.7211
12.7191
12.7172
12.7152
12.7132
12.7113
12.7093
12.7074
12.7054
12.7034
12.7015
12.6995
12.6975
12.6956
12.6936
12.6916
12.6897
12.6877
12.6858
12.6838
12.6818
12.6799
12.6779
12.6759
12.674
12.672
12.6701
12.6681
12.6661
12.6642
12.6622
12.6602
12.6583
12.6563
12.6544
12.6524
12.6504
12.6485
12.6465
12.6445
12.6426
12.6406
12.6386
12.6367
12.6347
12.6328
12.6308
12.6288
12.6269
12.6249
12.6229
12.621
12.619
12.6171
12.6151
12.6131
12.6112
12.6092
12.6072
12.6053
12.6033
12.6014
12.5994
12.5974
12.5955
12.5935
12.5915
12.5896
12.5876
12.5857
12.5837
12.5817
12.5798
12.5778
12.5758
12.5739
12.5719
12.5699
12.568
12.566
12.5641
12.5621
12.5601
12.5582
12.5562
12.5542
12.5523
12.5503
12.5483
12.5464
12.5444
12.5424
12.5405
12.5385
12.5365
12.5346
12.5326
12.5306
12.5287
12.5267
12.5247
12.5228
12.5208
12.5188
12.5169
12.5149
12.5129
12.511
12.509
12.507
12.5051
12.5031
12.5011
12.4992
12.4972
12.4952
12.4933
12.4913
12.4893
12.4874
12.4854
12.4834
12.4814
12.4795
12.4775
12.4755
12.4736
12.4716
12.4696
12.4676
12.4657
12.4637
12.4617
12.4597
12.4578
12.4558
12.4538
12.4518
12.4499
12.4479
12.4459
12.4439
12.442
12.44
12.438
12.436
12.4341
12.4321
12.4301
12.4281
12.4262
12.4242
12.4222
12.4202
12.4182
12.4163
12.4143
12.4123
12.4103
12.4083
12.4064
12.4044
12.4024
12.4004
12.3984
12.3964
12.3945
12.3925
12.3905
12.3885
12.3865
12.3845
12.3826
12.3806
12.3786
12.3766
12.3746
12.3726
12.3706
12.3687
12.3667
12.3647
12.3627
12.3607
12.3587
12.3567
12.3548
12.3528
12.3508
12.3488
12.3468
12.3448
12.3428
12.3408
12.3388
12.3368
12.3349
12.3329
12.3309
12.3289
12.3269
12.3249
12.3229
12.3209
12.3189
12.3169
12.3149
12.3129
12.311
12.309
12.307
12.305
12.303
12.301
12.299
12.297
12.295
12.293
12.291
12.289
12.287
12.285
12.283
12.281
12.279
12.277
12.275
12.273
12.2711
12.2691
12.2671
12.2651
12.2631
12.2611
12.2591
12.2571
12.2551
12.2531
12.2511
12.2491
12.2471
12.2451
12.2431
12.2411
12.2391
12.2371
12.2351
12.2331
12.2311
12.2291
12.2271
12.2251
12.2231
12.2211
12.2191
12.2171
12.2151
12.2131
12.2111
12.2091
12.2071
12.2051
12.2031
12.2011
12.1991
12.1971
12.1951
12.1931
12.1911
12.1891
12.1871
12.1851
12.1831
12.1811
12.1791
12.1771
12.1751
12.1731
12.1711
12.1691
12.1671
12.1651
12.1631
12.161
12.159
12.157
12.155
12.153
12.151
12.149
12.147
12.145
12.143
12.141
12.139
12.137
12.135
12.133
12.131
12.129
12.127
12.125
12.123
12.121
12.119
12.117
12.115
12.113
12.111
12.109
12.107
12.105
12.1029
12.1009
12.0989
12.0969
12.0949
12.0929
12.0909
12.0889
12.0869
12.0849
12.0829
12.0809
12.0789
12.0769
12.0749
12.0729
12.0709
12.0689
12.0669
12.0649
12.0629
12.0608
12.0588
12.0568
12.0548
12.0528
12.0508
12.0488
12.0468
12.0448
12.0428
12.0408
12.0388
12.0368
12.0348
12.0328
12.0308
12.0288
12.0267
12.0247
12.0227
12.0207
12.0187
12.0167
12.0147
12.0127
12.0107
12.0087
12.0067
12.0047
12.0027
12.0007
11.9987
11.9966
11.9946
11.9926
11.9906
11.9886
11.9866
11.9846
11.9826
11.9806
11.9786
11.9766
11.9746
11.9726
11.9706
11.9685
11.9665
11.9645
11.9625
11.9605
11.9585
11.9565
11.9545
11.9525
11.9505
11.9485
11.9465
11.9444
11.9424
11.9404
11.9384
11.9364
11.9344
11.9324
11.9304
11.9284
11.9264
11.9244
11.9224
11.9203
11.9183
11.9163
11.9143
11.9123
11.9103
11.9083
11.9063
11.9043
11.9023
11.9003
11.8982
11.8962
11.8942
11.8922
11.8902
11.8882
11.8862
11.8842
11.8822
11.8802
11.8781
11.8761
11.8741
11.8721
11.8701
11.8681
11.8661
11.8641
11.8621
11.8601
11.8581
11.856
11.854
11.852
11.852
14.804
14.804
13.9196
13.6864
13.6178
13.5879
13.5703
13.5579
13.5482
13.5401
13.5329
13.5264
13.5204
13.5148
13.5094
13.5042
13.4993
13.4944
13.4897
13.485
13.4805
13.476
13.4716
13.4673
13.463
13.4588
13.4546
13.4505
13.4464
13.4424
13.4385
13.4346
13.4307
13.4269
13.4231
13.4193
13.4156
13.412
13.4083
13.4047
13.4012
13.3977
13.3942
13.3907
13.3873
13.3839
13.3806
13.3773
13.374
13.3707
13.3675
13.3643
13.3611
13.3579
13.3548
13.3517
13.3486
13.3456
13.3426
13.3396
13.3366
13.3336
13.3307
13.3278
13.3249
13.3221
13.3193
13.3165
13.3137
13.3109
13.3082
13.3055
13.3028
13.3002
13.2976
13.295
13.2924
13.2899
13.2874
13.2849
13.2825
13.2801
13.2777
13.2753
13.2729
13.2706
13.2683
13.266
13.2637
13.2614
13.2592
13.2569
13.2547
13.2525
13.2503
13.2481
13.2459
13.2437
13.2415
13.2394
13.2372
13.2351
13.2329
13.2308
13.2287
13.2265
13.2244
13.2223
13.2202
13.2181
13.216
13.2139
13.2119
13.2098
13.2077
13.2057
13.2036
13.2016
13.1996
13.1976
13.1956
13.1936
13.1916
13.1896
13.1876
13.1856
13.1836
13.1817
13.1797
13.1777
13.1758
13.1738
13.1718
13.1698
13.1679
13.1659
13.1639