# vtk DataFile Version 2.0
FlowField
ASCII
DATASET STRUCTURED_GRID
DIMENSIONS 800 1 200
POINTS 160000 float
0 0 0
0.04 0 0
0.08 0 0
0.12 0 0
0.16 0 0
0.2 0 0
0.24 0 0
0.28 0 0
0.32 0 0
0.36 0 0
0.4 0 0
0.44 0 0
0.48 0 0
0.52 0 0
0.56 0 0
0.6 0 0
0.64 0 0
0.68 0 0
0.72 0 0
0.76 0 0
0.8 0 0
0.84 0 0
0.88 0 0
0.92 0 0
0.96 0 0
1 0 0
1.04 0 0
1.08 0 0
1.12 0 0
1.16 0 0
1.2 0 0
1.24 0 0
1.28 0 0
1.32 0 0
1.36 0 0
1.4 0 0
1.44 0 0
1.48 0 0
1.52 0 0
1.56 0 0
1.6 0 0
1.64 0 0
1.68 0 0
1.72 0 0
1.76 0 0
1.8 0 0
1.84 0 0
1.88 0 0
1.92 0 0
1.96 0 0
2 0 0
2.04 0 0
2.08 0 0
2.12 0 0
2.16 0 0
2.2 0 0
2.24 0 0
2.28 0 0
2.32 0 0
2.36 0 0
2.4 0 0
2.44 0 0
2.48 0 0
2.52 0 0
2.56 0 0
2.6 0 0
2.64 0 0
2.68 0 0
2.72 0 0
2.76 0 0
2.8 0 0
2.84 0 0
2.88 0 0
2.92 0 0
2.96 0 0
3 0 0
3.04 0 0
3.08 0 0
3.12 0 0
3.16 0 0
3.2 0 0
3.24 0 0
3.28 0 0
3.32 0 0
3.36 0 0
3.4 0 0
3.44 0 0
3.48 0 0
3.52 0 0
3.56 0 0
3.6 0 0
3.64 0 0
3.68 0 0
3.72 0 0
3.76 0 0
3.8 0 0
3.84 0 0
3.88 0 0
3.92 0 0
3.96 0 0
4 0 0
4.04 0 0
4.08 0 0
4.12 0 0
4.16 0 0
4.2 0 0
4.24 0 0
4.28 0 0
4.32 0 0
4.36 0 0
4.4 0 0
4.44 0 0
4.48 0 0
4.52 0 0
4.56 0 0
4.6 0 0
4.64 0 0
4.68 0 0
4.72 0 0
4.76 0 0
4.8 0 0
4.84 0 0
4.88 0 0
4.92 0 0
4.96 0 0
5 0 0
5.04 0 0
5.08 0 0
5.12 0 0
5.16 0 0
5.2 0 0
5.24 0 0
5.28 0 0
5.32 0 0
5.36 0 0
5.4 0 0
5.44 0 0
5.48 0 0
5.52 0 0
5.56 0 0
5.6 0 0
5.64 0 0
5.68 0 0
5.72 0 0
5.76 0 0
5.8 0 0
5.84 0 0
5.88 0 0
5.92 0 0
5.96 0 0
6 0 0
6.04 0 0
6.08 0 0
6.12 0 0
6.16 0 0
6.2 0 0
6.24 0 0
6.28 0 0
6.32 0 0
6.36 0 0
6.4 0 0
6.44 0 0
6.48 0 0
6.52 0 0
6.56 0 0
6.6 0 0
6.64 0 0
6.68 0 0
6.72 0 0
6.76 0 0
6.8 0 0
6.84 0 0
6.88 0 0
6.92 0 0
6.96 0 0
7 0 0
7.04 0 0
7.08 0 0
7.12 0 0
7.16 0 0
7.2 0 0
7.24 0 0
7.28 0 0
7.32 0 0
7.36 0 0
7.4 0 0
7.44 0 0
7.48 0 0
7.52 0 0
7.56 0 0
7.6 0 0
7.64 0 0
7.68 0 0
7.72 0 0
7.76 0 0
7.8 0 0
7.84 0 0
7.88 0 0
7.92 0 0
7.96 0 0
8 0 0
8.04 0 0
8.08 0 0
8.12 0 0
8.16 0 0
8.2 0 0
8.24 0 0
8.28 0 0
8.32 0 0
8.36 0 0
8.4 0 0
8.44 0 0
8.48 0 0
8.52 0 0
8.56 0 0
8.6 0 0
8.64 0 0
8.68 0 0
8.72 0 0
8.76 0 0
8.8 0 0
8.84 0 0
8.88 0 0
8.92 0 0
8.96 0 0
9 0 0
9.04 0 0
9.08 0 0
9.12 0 0
9.16 0 0
9.2 0 0
9.24 0 0
9.28 0 0
9.32 0 0
9.36 0 0
9.4 0 0
9.44 0 0
9.48 0 0
9.52 0 0
9.56 0 0
9.6 0 0
9.64 0 0
9.68 0 0
9.72 0 0
9.76 0 0
9.8 0 0
9.84 0 0
9.88 0 0
9.92 0 0
9.96 0 0
10 0 0
10.04 0 0
10.08 0 0
10.12 0 0
10.16 0 0
10.2 0 0
10.24 0 0
10.28 0 0
10.32 0 0
10.36 0 0
10.4 0 0
10.44 0 0
10.48 0 0
10.52 0 0
10.56 0 0
10.6 0 0
10.64 0 0
10.68 0 0
10.72 0 0
10.76 0 0
10.8 0 0
10.84 0 0
10.88 0 0
10.92 0 0
10.96 0 0
11 0 0
11.04 0 0
11.08 0 0
11.12 0 0
11.16 0 0
11.2 0 0
11.24 0 0
11.28 0 0
11.32 0 0
11.36 0 0
11.4 0 0
11.44 0 0
11.48 0 0
11.52 0 0
11.56 0 0
11.6 0 0
11.64 0 0
11.68 0 0
11.72 0 0
11.76 0 0
11.8 0 0
11.84 0 0
11.88 0 0
11.92 0 0
11.96 0 0
12 0 0
12.04 0 0
12.08 0 0
12.12 0 0
12.16 0 0
12.2 0 0
12.24 0 0
12.28 0 0
12.32 0 0
12.36 0 0
12.4 0 0
12.44 0 0
12.48 0 0
12.52 0 0
12.56 0 0
12.6 0 0
12.64 0 0
12.68 0 0
12.72 0 0
12.76 0 0
12.8 0 0
12.84 0 0
12.88 0 0
12.92 0 0
12.96 0 0
13 0 0
13.04 0 0
13.08 0 0
13.12 0 0
13.16 0 0
13.2 0 0
13.24 0 0
13.28 0 0
13.32 0 0
13.36 0 0
13.4 0 0
13.44 0 0
13.48 0 0
13.52 0 0
13.56 0 0
13.6 0 0
13.64 0 0
13.68 0 0
13.72 0 0
13.76 0 0
13.8 0 0
13.84 0 0
13.88 0 0
13.92 0 0
13.96 0 0
14 0 0
14.04 0 0
14.08 0 0
14.12 0 0
14.16 0 0
14.2 0 0
14.24 0 0
14.28 0 0
14.32 0 0
14.36 0 0
14.4 0 0
14.44 0 0
14.48 0 0
14.52 0 0
14.56 0 0
14.6 0 0
14.64 0 0
14.68 0 0
14.72 0 0
14.76 0 0
14.8 0 0
14.84 0 0
14.88 0 0
14.92 0 0
14.96 0 0
15 0 0
15.04 0 0
15.08 0 0
15.12 0 0
15.16 0 0
15.2 0 0
15.24 0 0
15.28 0 0
15.32 0 0
15.36 0 0
15.4 0 0
15.44 0 0
15.48 0 0
15.52 0 0
15.56 0 0
15.6 0 0
15.64 0 0
15.68 0 0
15.72 0 0
15.76 0 0
15.8 0 0
15.84 0 0
15.88 0 0
15.92 0 0
15.96 0 0
16 0 0
16.04 0 0
16.08 0 0
16.12 0 0
16.16 0 0
16.2 0 0
16.24 0 0
16.28 0 0
16.32 0 0
16.36 0 0
16.4 0 0
16.44 0 0
16.48 0 0
16.52 0 0
16.56 0 0
16.6 0 0
16.64 0 0
16.68 0 0
16.72 0 0
16.76 0 0
16.8 0 0
16.84 0 0
16.88 0 0
16.92 0 0
16.96 0 0
17 0 0
17.04 0 0
17.08 0 0
17.12 0 0
17.16 0 0
17.2 0 0
17.24 0 0
17.28 0 0
17.32 0 0
17.36 0 0
17.4 0 0
17.44 0 0
17.48 0 0
17.52 0 0
17.56 0 0
17.6 0 0
17.64 0 0
17.68 0 0
17.72 0 0
17.76 0 0
17.8 0 0
17.84 0 0
17.88 0 0
17.92 0 0
17.96 0 0
18 0 0
18.04 0 0
18.08 0 0
18.12 0 0
18.16 0 0
18.2 0 0
18.24 0 0
18.28 0 0
18.32 0 0
18.36 0 0
18.4 0 0
18.44 0 0
18.48 0 0
18.52 0 0
18.56 0 0
18.6 0 0
18.64 0 0
18.68 0 0
18.72 0 0
18.76 0 0
18.8 0 0
18.84 0 0
18.88 0 0
18.92 0 0
18.96 0 0
19 0 0
19.04 0 0
19.08 0 0
19.12 0 0
19.16 0 0
19.2 0 0
19.24 0 0
19.28 0 0
19.32 0 0
19.36 0 0
19.4 0 0
19.44 0 0
19.48 0 0
19.52 0 0
19.56 0 0
19.6 0 0
19.64 0 0
19.68 0 0
19.72 0 0
19.76 0 0
19.8 0 0
19.84 0 0
19.88 0 0
19.92 0 0
19.96 0 0
20 0 0
20.04 0 0
20.08 0 0
20.12 0 0
20.16 0 0
20.2 0 0
20.24 0 0
20.28 0 0
20.32 0 0
20.36 0 0
20.4 0 0
20.44 0 0
20.48 0 0
20.52 0 0
20.56 0 0
20.6 0 0
20.64 0 0
20.68 0 0
20.72 0 0
20.76 0 0
20.8 0 0
20.84 0 0
20.88 0 0
20.92 0 0
20.96 0 0
21 0 0
21.04 0 0
21.08 0 0
21.12 0 0
21.16 0 0
21.2 0 0
21.24 0 0
21.28 0 0
21.32 0 0
21.36 0 0
21.4 0 0
21.44 0 0
21.48 0 0
21.52 0 0
21.56 0 0
21.6 0 0
21.64 0 0
21.68 0 0
21.72 0 0
21.76 0 0
21.8 0 0
21.84 0 0
21.88 0 0
21.92 0 0
21.96 0 0
22 0 0
22.04 0 0
22.08 0 0
22.12 0 0
22.16 0 0
22.2 0 0
22.24 0 0
22.28 0 0
22.32 0 0
22.36 0 0
22.4 0 0
22.44 0 0
22.48 0 0
22.52 0 0
22.56 0 0
22.6 0 0
22.64 0 0
22.68 0 0
22.72 0 0
22.76 0 0
22.8 0 0
22.84 0 0
22.88 0 0
22.92 0 0
22.96 0 0
23 0 0
23.04 0 0
23.08 0 0
23.12 0 0
23.16 0 0
23.2 0 0
23.24 0 0
23.28 0 0
23.32 0 0
23.36 0 0
23.4 0 0
23.44 0 0
23.48 0 0
23.52 0 0
23.56 0 0
23.6 0 0
23.64 0 0
23.68 0 0
23.72 0 0
23.76 0 0
23.8 0 0
23.84 0 0
23.88 0 0
23.92 0 0
23.96 0 0
24 0 0
24.04 0 0
24.08 0 0
24.12 0 0
24.16 0 0
24.2 0 0
24.24 0 0
24.28 0 0
24.32 0 0
24.36 0 0
24.4 0 0
24.44 0 0
24.48 0 0
24.52 0 0
24.56 0 0
24.6 0 0
24.64 0 0
24.68 0 0
24.72 0 0
24.76 0 0
24.8 0 0
24.84 0 0
24.88 0 0
24.92 0 0
24.96 0 0
25 0 0
25.04 0 0
25.08 0 0
25.12 0 0
25.16 0 0
25.2 0 0
25.24 0 0
25.28 0 0
25.32 0 0
25.36 0 0
25.4 0 0
25.44 0 0
25.48 0 0
25.52 0 0
25.56 0 0
25.6 0 0
25.64 0 0
25.68 0 0
25.72 0 0
25.76 0 0
25.8 0 0
25.84 0 0
25.88 0 0
25.92 0 0
25.96 0 0
26 0 0
26.04 0 0
26.08 0 0
26.12 0 0
26.16 0 0
26.2 0 0
26.24 0 0
26.28 0 0
26.32 0 0
26.36 0 0
26.4 0 0
26.44 0 0
26.48 0 0
26.52 0 0
26.56 0 0
26.6 0 0
26.64 0 0
26.68 0 0
26.72 0 0
26.76 0 0
26.8 0 0
26.84 0 0
26.88 0 0
26.92 0 0
26.96 0 0
27 0 0
27.04 0 0
27.08 0 0
27.12 0 0
27.16 0 0
27.2 0 0
27.24 0 0
27.28 0 0
27.32 0 0
27.36 0 0
27.4 0 0
27.44 0 0
27.48 0 0
27.52 0 0
27.56 0 0
27.6 0 0
27.64 0 0
27.68 0 0
27.72 0 0
27.76 0 0
27.8 0 0
27.84 0 0
27.88 0 0
27.92 0 0
27.96 0 0
28 0 0
28.04 0 0
28.08 0 0
28.12 0 0
28.16 0 0
28.2 0 0
28.24 0 0
28.28 0 0
28.32 0 0
28.36 0 0
28.4 0 0
28.44 0 0
28.48 0 0
28.52 0 0
28.56 0 0
28.6 0 0
28.64 0 0
28.68 0 0
28.72 0 0
28.76 0 0
28.8 0 0
28.84 0 0
28.88 0 0
28.92 0 0
28.96 0 0
29 0 0
29.04 0 0
29.08 0 0
29.12 0 0
29.16 0 0
29.2 0 0
29.24 0 0
29.28 0 0
29.32 0 0
29.36 0 0
29.4 0 0
29.44 0 0
29.48 0 0
29.52 0 0
29.56 0 0
29.6 0 0
29.64 0 0
29.68 0 0
29.72 0 0
29.76 0 0
29.8 0 0
29.84 0 0
29.88 0 0
29.92 0 0
29.96 0 0
30 0 0
30.04 0 0
30.08 0 0
30.12 0 0
30.16 0 0
30.2 0 0
30.24 0 0
30.28 0 0
30.32 0 0
30.36 0 0
30.4 0 0
30.44 0 0
30.48 0 0
30.52 0 0
30.56 0 0
30.6 0 0
30.64 0 0
30.68 0 0
30.72 0 0
30.76 0 0
30.8 0 0
30.84 0 0
30.88 0 0
30.92 0 0
30.96 0 0
31 0 0
31.04 0 0
31.08 0 0
31.12 0 0
31.16 0 0
31.2 0 0
31.24 0 0
31.28 0 0
31.32 0 0
31.36 0 0
31.4 0 0
31.44 0 0
31.48 0 0
31.52 0 0
31.56 0 0
31.6 0 0
31.64 0 0
31.68 0 0
31.72 0 0
31.76 0 0
31.8 0 0
31.84 0 0
31.88 0 0
31.92 0 0
31.96 0 0
0 0.005 0
0.04 0.005 0
0.08 0.005 0
0.12 0.005 0
0.16 0.005 0
0.2 0.005 0
0.24 0.005 0
0.28 0.005 0
0.32 0.005 0
0.36 0.005 0
0.4 0.005 0
0.44 0.005 0
0.48 0.005 0
0.52 0.005 0
0.56 0.005 0
0.6 0.005 0
0.64 0.005 0
0.68 0.005 0
0.72 0.005 0
0.76 0.005 0
0.8 0.005 0
0.84 0.005 0
0.88 0.005 0
0.92 0.005 0
0.96 0.005 0
1 0.005 0
1.04 0.005 0
1.08 0.005 0
1.12 0.005 0
1.16 0.005 0
1.2 0.005 0
1.24 0.005 0
1.28 0.005 0
1.32 0.005 0
1.36 0.005 0
1.4 0.005 0
1.44 0.005 0
1.48 0.005 0
1.52 0.005 0
1.56 0.005 0
1.6 0.005 0
1.64 0.005 0
1.68 0.005 0
1.72 0.005 0
1.76 0.005 0
1.8 0.005 0
1.84 0.005 0
1.88 0.005 0
1.92 0.005 0
1.96 0.005 0
2 0.005 0
2.04 0.005 0
2.08 0.005 0
2.12 0.005 0
2.16 0.005 0
2.2 0.005 0
2.24 0.005 0
2.28 0.005 0
2.32 0.005 0
2.36 0.005 0
2.4 0.005 0
2.44 0.005 0
2.48 0.005 0
2.52 0.005 0
2.56 0.005 0
2.6 0.005 0
2.64 0.005 0
2.68 0.005 0
2.72 0.005 0
2.76 0.005 0
2.8 0.005 0
2.84 0.005 0
2.88 0.005 0
2.92 0.005 0
2.96 0.005 0
3 0.005 0
3.04 0.005 0
3.08 0.005 0
3.12 0.005 0
3.16 0.005 0
3.2 0.005 0
3.24 0.005 0
3.28 0.005 0
3.32 0.005 0
3.36 0.005 0
3.4 0.005 0
3.44 0.005 0
3.48 0.005 0
3.52 0.005 0
3.56 0.005 0
3.6 0.005 0
3.64 0.005 0
3.68 0.005 0
3.72 0.005 0
3.76 0.005 0
3.8 0.005 0
3.84 0.005 0
3.88 0.005 0
3.92 0.005 0
3.96 0.005 0
4 0.005 0
4.04 0.005 0
4.08 0.005 0
4.12 0.005 0
4.16 0.005 0
4.2 0.005 0
4.24 0.005 0
4.28 0.005 0
4.32 0.005 0
4.36 0.005 0
4.4 0.005 0
4.44 0.005 0
4.48 0.005 0
4.52 0.005 0
4.56 0.005 0
4.6 0.005 0
4.64 0.005 0
4.68 0.005 0
4.72 0.005 0
4.76 0.005 0
4.8 0.005 0
4.84 0.005 0
4.88 0.005 0
4.92 0.005 0
4.96 0.005 0
5 0.005 0
5.04 0.005 0
5.08 0.005 0
5.12 0.005 0
5.16 0.005 0
5.2 0.005 0
5.24 0.005 0
5.28 0.005 0
5.32 0.005 0
5.36 0.005 0
5.4 0.005 0
5.44 0.005 0
5.48 0.005 0
5.52 0.005 0
5.56 0.005 0
5.6 0.005 0
5.64 0.005 0
5.68 0.005 0
5.72 0.005 0
5.76 0.005 0
5.8 0.005 0
5.84 0.005 0
5.88 0.005 0
5.92 0.005 0
5.96 0.005 0
6 0.005 0
6.04 0.005 0
6.08 0.005 0
6.12 0.005 0
6.16 0.005 0
6.2 0.005 0
6.24 0.005 0
6.28 0.005 0
6.32 0.005 0
6.36 0.005 0
6.4 0.005 0
6.44 0.005 0
6.48 0.005 0
6.52 0.005 0
6.56 0.005 0
6.6 0.005 0
6.64 0.005 0
6.68 0.005 0
6.72 0.005 0
6.76 0.005 0
6.8 0.005 0
6.84 0.005 0
6.88 0.005 0
6.92 0.005 0
6.96 0.005 0
7 0.005 0
7.04 0.005 0
7.08 0.005 0
7.12 0.005 0
7.16 0.005 0
7.2 0.005 0
7.24 0.005 0
7.28 0.005 0
7.32 0.005 0
7.36 0.005 0
7.4 0.005 0
[...]
POINT_DATA 160000

SCALARS u float 1
LOOKUP_TABLE default
-1
-0.483357
-0.183963
-0.108845
-0.0810329
-0.0668335
-0.0581179
-0.0521524
-0.0477772
-0.0444143
-0.041741
-0.0395612
-0.037748
-0.036215
-0.0349012
-0.0337621
-0.0327644
-0.0318826
-0.031097
-0.0303919
-0.029755
-0.029176
-0.0286468
-0.0281607
-0.0277121
-0.0272963
-0.0269095
-0.0265483
-0.0262099
-0.025892
-0.0255925
-0.0253095
-0.0250417
-0.0247876
-0.024546
-0.024316
-0.0240966
-0.0238869
-0.0236864
-0.0234943
-0.0233101
-0.0231332
-0.0229632
-0.0227996
-0.022642
-0.0224901
-0.0223436
-0.0222021
-0.0220654
-0.0219332
-0.0218053
-0.0216814
-0.0215614
-0.0214451
-0.0213322
-0.0212227
-0.0211164
-0.0210131
-0.0209126
-0.020815
-0.02072
-0.0206275
-0.0205374
-0.0204497
-0.0203642
-0.0202809
-0.0201996
-0.0201203
-0.0200429
-0.0199673
-0.0198936
-0.0198215
-0.019751
-0.0196821
-0.0196148
-0.0195489
-0.0194845
-0.0194214
-0.0193597
-0.0192992
-0.01924
-0.019182
-0.0191252
-0.0190695
-0.0190149
-0.0189614
-0.0189089
-0.0188573
-0.0188068
-0.0187572
-0.0187085
-0.0186607
-0.0186138
-0.0185677
-0.0185225
-0.018478
-0.0184343
-0.0183914
-0.0183491
-0.0183077
-0.0182669
-0.0182267
-0.0181873
-0.0181485
-0.0181103
-0.0180727
-0.0180357
-0.0179993
-0.0179635
-0.0179282
-0.0178935
-0.0178593
-0.0178256
-0.0177925
-0.0177598
-0.0177276
-0.0176959
-0.0176646
-0.0176338
-0.0176035
-0.0175736
-0.0175441
-0.017515
-0.0174863
-0.0174581
-0.0174302
-0.0174027
-0.0173756
-0.0173488
-0.0173224
-0.0172964
-0.0172707
-0.0172454
-0.0172203
-0.0171956
-0.0171713
-0.0171472
-0.0171235
-0.0171001
-0.0170769
-0.0170541
-0.0170315
-0.0170092
-0.0169872
-0.0169655
-0.0169441
-0.0169229
-0.016902
-0.0168813
-0.0168609
-0.0168407
-0.0168207
-0.016801
-0.0167816
-0.0167624
-0.0167434
-0.0167246
-0.016706
-0.0166877
-0.0166695
-0.0166516
-0.0166339
-0.0166164
-0.0165991
-0.016582
-0.0165651
-0.0165484
-0.0165318
-0.0165155
-0.0164993
-0.0164833
-0.0164675
-0.0164519
-0.0164365
-0.0164212
-0.0164061
-0.0163911
-0.0163763
-0.0163617
-0.0163472
-0.0163329
-0.0163188
-0.0163048
-0.0162909
-0.0162772
-0.0162637
-0.0162503
-0.016237
-0.0162239
-0.0162109
-0.0161981
-0.0161854
-0.0161728
-0.0161604
-0.0161481
-0.0161359
-0.0161238
-0.0161119
-0.0161001
-0.0160884
-0.0160769
-0.0160654
-0.0160541
-0.0160429
-0.0160318
-0.0160209
-0.01601
-0.0159992
-0.0159886
-0.0159781
-0.0159677
-0.0159573
-0.0159471
-0.015937
-0.015927
-0.0159171
-0.0159073
-0.0158976
-0.015888
-0.0158785
-0.0158691
-0.0158598
-0.0158506
-0.0158415
-0.0158324
-0.0158235
-0.0158146
-0.0158058
-0.0157972
-0.0157886
-0.0157801
-0.0157716
-0.0157633
-0.015755
-0.0157469
-0.0157388
-0.0157308
-0.0157228
-0.015715
-0.0157072
-0.0156995
-0.0156918
-0.0156843
-0.0156768
-0.0156694
-0.0156621
-0.0156548
-0.0156476
-0.0156405
-0.0156335
-0.0156265
-0.0156196
-0.0156127
-0.0156059
-0.0155992
-0.0155926
-0.015586
-0.0155795
-0.015573
-0.0155666
-0.0155603
-0.015554
-0.0155478
-0.0155417
-0.0155356
-0.0155296
-0.0155236
-0.0155177
-0.0155118
-0.015506
-0.0155003
-0.0154946
-0.015489
-0.0154834
-0.0154779
-0.0154724
-0.015467
-0.0154616
-0.0154563
-0.0154511
-0.0154459
-0.0154407
-0.0154356
-0.0154306
-0.0154256
-0.0154207
-0.0154158
-0.015411
-0.0154062
-0.0154015
-0.0153968
-0.0153922
-0.0153876
-0.0153831
-0.0153786
-0.0153742
-0.0153698
-0.0153655
-0.0153612
-0.015357
-0.0153528
-0.0153487
-0.0153447
-0.0153406
-0.0153367
-0.0153328
-0.0153289
-0.0153251
-0.0153213
-0.0153176
-0.015314
-0.0153104
-0.0153068
-0.0153033
-0.0152998
-0.0152964
-0.015293
-0.0152897
-0.0152865
-0.0152833
-0.0152801
-0.015277
-0.0152739
-0.0152709
-0.0152679
-0.015265
-0.0152621
-0.0152593
-0.0152565
-0.0152538
-0.0152511
-0.0152485
-0.0152459
-0.0152433
-0.0152408
-0.0152384
-0.015236
-0.0152336
-0.0152313
-0.015229
-0.0152268
-0.0152246
-0.0152224
-0.0152203
-0.0152183
-0.0152163
-0.0152143
-0.0152124
-0.0152105
-0.0152086
-0.0152068
-0.015205
-0.0152033
-0.0152016
-0.0151999
-0.0151983
-0.0151967
-0.0151951
-0.0151936
-0.0151921
-0.0151907
-0.0151893
-0.0151879
-0.0151865
-0.0151852
-0.0151839
-0.0151827
-0.0151814
-0.0151802
-0.0151791
-0.0151779
-0.0151768
-0.0151757
-0.0151747
-0.0151736
-0.0151726
-0.0151717
-0.0151707
-0.0151698
-0.0151689
-0.015168
-0.0151671
-0.0151663
-0.0151655
-0.0151647
-0.0151639
-0.0151631
-0.0151624
-0.0151617
-0.015161
-0.0151603
-0.0151596
-0.015159
-0.0151584
-0.0151577
-0.0151571
-0.0151566
-0.015156
-0.0151554
-0.0151549
-0.0151543
-0.0151538
-0.0151533
-0.0151528
-0.0151523
-0.0151518
-0.0151514
-0.0151509
-0.0151505
-0.01515
-0.0151496
-0.0151492
-0.0151488
-0.0151483
-0.0151479
-0.0151476
-0.0151472
-0.0151468
-0.0151464
-0.015146
-0.0151457
-0.0151453
-0.0151449
-0.0151446
-0.0151442
-0.0151439
-0.0151436
-0.0151432
-0.0151429
-0.0151426
-0.0151422
-0.0151419
-0.0151416
-0.0151413
-0.0151409
-0.0151406
-0.0151403
-0.01514
-0.0151397
-0.0151394
-0.015139
-0.0151387
-0.0151384
-0.0151381
-0.0151378
-0.0151375
-0.0151372
-0.0151369
-0.0151366
-0.0151363
-0.015136
-0.0151357
-0.0151354
-0.015135
-0.0151347
-0.0151344
-0.0151341
-0.0151338
-0.0151335
-0.0151332
-0.0151329
-0.0151326
-0.0151323
-0.015132
-0.0151317
-0.0151314
-0.0151311
-0.0151308
-0.0151305
-0.0151302
-0.0151299
-0.0151296
-0.0151293
-0.0151289
-0.0151286
-0.0151283
-0.015128
-0.0151277
-0.0151274
-0.0151271
-0.0151268
-0.0151265
-0.0151262
-0.0151259
-0.0151256
-0.0151253
-0.015125
-0.0151247
-0.0151244
-0.0151241
-0.0151238
-0.0151235
-0.0151231
-0.0151228
-0.0151225
-0.0151222
-0.0151219
-0.0151216
-0.0151213
-0.015121
-0.0151207
-0.0151204
-0.0151201
-0.0151198
-0.0151195
-0.0151192
-0.0151189
-0.0151186
-0.0151183
-0.015118
-0.0151177
-0.0151174
-0.015117
-0.0151167
-0.0151164
-0.0151161
-0.0151158
-0.0151155
-0.0151152
-0.0151149
-0.0151146
-0.0151143
-0.015114
-0.0151137
-0.0151134
-0.0151131
-0.0151128
-0.0151125
-0.0151122
-0.0151119
-0.0151116
-0.0151113
-0.0151109
-0.0151106
-0.0151103
-0.01511
-0.0151097
-0.0151094
-0.0151091
-0.0151088
-0.0151085
-0.0151082
-0.0151079
-0.0151076
-0.0151073
-0.015107
-0.0151067
-0.0151064
-0.0151061
-0.0151058
-0.0151055
-0.0151052
-0.0151048
-0.0151045
-0.0151042
-0.0151039
-0.0151036
-0.0151033
-0.015103
-0.0151027
-0.0151024
-0.0151021
-0.0151018
-0.0151015
-0.0151012
-0.0151009
-0.0151006
-0.0151003
-0.0151
-0.0150997
-0.0150994
-0.0150991
-0.0150987
-0.0150984
-0.0150981
-0.0150978
-0.0150975
-0.0150972
-0.0150969
-0.0150966
-0.0150963
-0.015096
-0.0150957
-0.0150954
-0.0150951
-0.0150948
-0.0150945
-0.0150942
-0.0150939
-0.0150936
-0.0150933
-0.015093
-0.0150926
-0.0150923
-0.015092
-0.0150917
-0.0150914
-0.0150911
-0.0150908
-0.0150905
-0.0150902
-0.0150899
-0.0150896
-0.0150893
-0.015089
-0.0150887
-0.0150884
-0.0150881
-0.0150878
-0.0150875
-0.0150872
-0.0150869
-0.0150866
-0.0150862
-0.0150859
-0.0150856
-0.0150853
-0.015085
-0.0150847
-0.0150844
-0.0150841
-0.0150838
-0.0150835
-0.0150832
-0.0150829
-0.0150826
-0.0150823
-0.015082
-0.0150817
-0.0150814
-0.0150811
-0.0150808
-0.0150805
-0.0150801
-0.0150798
-0.0150795
-0.0150792
-0.0150789
-0.0150786
-0.0150783
-0.015078
-0.0150777
-0.0150774
-0.0150771
-0.0150768
-0.0150765
-0.0150762
-0.0150759
-0.0150756
-0.0150753
-0.015075
-0.0150747
-0.0150744
-0.015074
-0.0150737
-0.0150734
-0.0150731
-0.0150728
-0.0150725
-0.0150722
-0.0150719
-0.0150716
-0.0150713
-0.015071
-0.0150707
-0.0150704
-0.0150701
-0.0150698
-0.0150695
-0.0150692
-0.0150689
-0.0150686
-0.0150683
-0.015068
-0.0150676
-0.0150673
-0.015067
-0.0150667
-0.0150664
-0.0150661
-0.0150658
-0.0150655
-0.0150652
-0.0150649
-0.0150646
-0.0150643
-0.015064
-0.0150637
-0.0150634
-0.0150631
-0.0150628
-0.0150625
-0.0150622
-0.0150619
-0.0150615
-0.0150612
-0.0150609
-0.0150606
-0.0150603
-0.01506
-0.0150597
-0.0150594
-0.0150591
-0.0150588
-0.0150585
-0.0150582
-0.0150579
-0.0150576
-0.0150573
-0.015057
-0.0150567
-0.0150564
-0.0150561
-0.0150558
-0.0150555
-0.0150551
-0.0150548
-0.0150545
-0.0150542
-0.0150539
-0.0150536
-0.0150533
-0.015053
-0.0150527
-0.0150524
-0.0150521
-0.0150518
-0.0150515
-0.0150512
-0.0150509
-0.0150506
-0.0150503
-0.01505
-0.0150497
-0.0150494
-0.0150491
-0.0150487
-0.0150484
-0.0150481
-0.0150478
-0.0150475
-0.0150472
-0.0150469
-0.0150466
-0.0150463
-0.015046
-0.0150457
-0.0150454
-0.0150451
-0.0150448
-0.0150445
-0.0150442
-0.0150439
-0.0150436
-0.0150433
-0.015043
-0.0150427
-0.0150423
-0.015042
-0.0150417
-0.0150414
-0.0150411
-0.0150408
-0.0150405
-0.0150402
-0.0150399
-0.0150396
-0.0150393
-0.015039
-0.0150387
-0.0150384
-0.0150381
-0.0150378
-0.0150375
-0.0150372
-0.0150368
-0.0150365
-0.0150362
-0.0150359
-0.0150356
-0.0150353
-0.015035
-0.0150346
-0.0150343
-0.015034
-0.0150337
-0.0150333
-0.0150329
-0.0150326
-0.0150322
-0.0150317
-0.0150313
-0.0150308
-0.0150303
-0.0150296
-0.0150289
-0.0150279
-0.0150275
-0.0150275
-0.0150275
1
0.483357
0.183963
0.108845
0.0810329
0.0668335
0.0581179
0.0521524
0.0477772
0.0444143
0.041741
0.0395612
0.037748
0.036215
0.0349012
0.0337621
0.0327644
0.0318826
0.031097
0.0303919
0.029755
0.029176
0.0286468
0.0281607
0.0277121
0.0272963
0.0269095
0.0265483
0.0262099
0.025892
0.0255925
0.0253095
0.0250417
0.0247876
0.024546
0.024316
0.0240966
0.0238869
0.0236864
0.0234943
0.0233101
0.0231332
0.0229632
0.0227996
0.022642
0.0224901
0.0223436
0.0222021
0.0220654
0.0219332
0.0218053
0.0216814
0.0215614
0.0214451
0.0213322
0.0212227
0.0211164
0.0210131
0.0209126
0.020815
0.02072
0.0206275
0.0205374
0.0204497
0.0203642
0.0202809
0.0201996
0.0201203
0.0200429
0.0199673
0.0198936
0.0198215
0.019751
0.0196821
0.0196148
0.0195489
0.0194845
0.0194214
0.0193597
0.0192992
0.01924
0.019182
0.0191252
0.0190695
0.0190149
0.0189614
0.0189089
0.0188573
0.0188068
0.0187572
0.0187085
0.0186607
0.0186138
0.0185677
0.0185225
0.018478
0.0184343
0.0183914
0.0183491
0.0183077
0.0182669
0.0182267
0.0181873
0.0181485
0.0181103
0.0180727
0.0180357
0.0179993
0.0179635
0.0179282
0.0178935
0.0178593
0.0178256
0.0177925
0.0177598
0.0177276
0.0176959
0.0176646
0.0176338
0.0176035
0.0175736
0.0175441
0.017515
0.0174863
0.0174581
0.0174302
0.0174027
0.0173756
0.0173488
0.0173224
0.0172964
0.0172707
0.0172454
0.0172203
0.0171956
0.0171713
0.0171472
0.0171235
0.0171001
0.0170769
0.0170541
0.0170315
0.0170092
0.0169872
0.0169655
0.0169441
0.0169229
0.016902
0.0168813
0.0168609
0.0168407
0.0168207
0.016801
0.0167816
0.0167624
0.0167434
0.0167246
0.016706
0.0166877
0.0166695
0.0166516
0.0166339
0.0166164
0.0165991
0.016582
0.0165651
0.0165484
0.0165318
0.0165155
0.0164993
0.0164833
0.0164675
0.0164519
0.0164365
0.0164212
0.0164061
0.0163911
0.0163763
0.0163617
0.0163472
0.0163329
0.0163188
0.0163048
0.0162909
0.0162772
0.0162637
0.0162503
0.016237
0.0162239
0.0162109
0.0161981
0.0161854
0.0161728
0.0161604
0.0161481
0.0161359
0.0161238
0.0161119
0.0161001
0.0160884
0.0160769
0.0160654
0.0160541
0.0160429
0.0160318
0.0160209
0.01601
0.0159992
0.0159886
0.0159781
0.0159677
0.0159573
0.0159471
0.015937
0.015927
0.0159171
0.0159073
0.0158976
0.015888
0.0158785
0.0158691
0.0158598
0.0158506
0.0158415
0.0158324
0.0158235
0.0158146
0.0158058
0.0157972
0.0157886
0.0157801
0.0157716
0.0157633
0.015755
0.0157469
0.0157388
0.0157308
0.0157228
0.015715
0.0157072
0.0156995
0.0156918
0.0156843
0.0156768
0.0156694
0.0156621
0.0156548
0.0156476
0.0156405
0.0156335
0.0156265
0.0156196
0.0156127
0.0156059
0.0155992
0.0155926
0.015586
0.0155795
0.015573
0.0155666
0.0155603
0.015554
0.0155478
0.0155417
0.0155356
0.0155296
0.0155236
0.0155177
0.0155118
0.015506
0.0155003
0.0154946
0.015489
0.0154834
0.0154779
0.0154724
0.015467
0.0154616
0.0154563
0.0154511
0.0154459
0.0154407
0.0154356
0.0154306
0.0154256
0.0154207
0.0154158
0.015411
0.0154062
0.0154015
0.0153968
0.0153922
0.0153876
0.0153831
0.0153786
0.0153742
0.0153698
0.0153655
0.0153612
0.015357
0.0153528
0.0153487
0.0153447
0.0153406
0.0153367
0.0153328
0.0153289
0.0153251
0.0153213
0.0153176
0.015314
0.0153104
0.0153068
0.0153033
0.0152998
0.0152964
0.015293
0.0152897
0.0152865
0.0152833
0.0152801
0.015277
0.0152739
0.0152709
0.0152679
0.015265
0.0152621
0.0152593
0.0152565
0.0152538
0.0152511
0.0152485
0.0152459
0.0152433
0.0152408
0.0152384
0.015236
0.0152336
0.0152313
0.015229
0.0152268
0.0152246
0.0152224
0.0152203
0.0152183
0.0152163
0.0152143
0.0152124
0.0152105
0.0152086
0.0152068
0.015205
0.0152033
0.0152016
0.0151999
0.0151983
0.0151967
0.0151951
0.0151936
0.0151921
0.0151907
0.0151893
0.0151879
0.0151865
0.0151852
0.0151839
0.0151827
0.0151814
0.0151802
0.0151791
0.0151779
0.0151768
0.0151757
0.0151747
0.0151736
0.0151726
0.0151717
0.0151707
0.0151698
0.0151689
0.015168
0.0151671
0.0151663
0.0151655
0.0151647
0.0151639
0.0151631
0.0151624
0.0151617
0.015161
0.0151603
0.0151596
0.015159
0.0151584
0.0151577
0.0151571
0.0151566
0.015156
0.0151554
0.0151549
0.0151543
0.0151538
0.0151533
0.0151528
0.0151523
0.0151518
0.0151514
0.0151509
0.0151505
0.01515
0.0151496
0.0151492
0.0151488
0.0151483
0.0151479
0.0151476
0.0151472
0.0151468
0.0151464
0.015146
0.0151457
0.0151453
0.0151449
0.0151446
0.0151442
0.0151439
0.0151436
0.0151432
0.0151429
0.0151426
0.0151422
0.0151419
0.0151416
0.0151413
0.0151409
0.0151406
0.0151403
0.01514
0.0151397
0.0151394
0.015139
0.0151387
0.0151384
0.0151381
0.0151378
0.0151375
0.0151372
0.0151369
0.0151366
0.0151363
0.015136
0.0151357
0.0151354
0.015135
0.0151347
0.0151344
0.0151341
0.0151338
0.0151335
0.0151332
0.0151329
0.0151326
0.0151323
0.015132
0.0151317
0.0151314
0.0151311
0.0151308
0.0151305
0.0151302
0.0151299
0.0151296
0.0151293
0.0151289
0.0151286
0.0151283
0.015128
0.0151277
0.0151274
0.0151271
0.0151268
0.0151265
0.0151262
0.0151259
0.0151256
0.0151253
0.015125
0.0151247
0.0151244
0.0151241
0.0151238
0.0151235
0.0151231
0.0151228
0.0151225
0.0151222
0.0151219
0.0151216
0.0151213
0.015121
0.0151207
0.0151204
0.0151201
0.0151198
0.0151195
0.0151192
0.0151189
0.0151186
0.0151183
0.015118
0.0151177
0.0151174
0.015117
0.0151167
0.0151164
0.0151161
0.0151158
0.0151155
0.0151152
0.0151149
0.0151146
0.0151143
0.015114
0.0151137
0.0151134
0.0151131
0.0151128
0.0151125
0.0151122
0.0151119
0.0151116
0.0151113
0.0151109
0.0151106
0.0151103
0.01511
0.0151097
0.0151094
0.0151091
0.0151088
0.0151085
0.0151082
0.0151079
0.0151076
0.0151073
0.015107
0.0151067
0.0151064
0.0151061
0.0151058
0.0151055
0.0151052
0.0151048
0.0151045
0.0151042
0.0151039
0.0151036
0.0151033
0.015103
0.0151027
0.0151024
0.0151021
0.0151018
0.0151015
0.0151012
0.0151009
0.0151006
0.0151003
0.0151
0.0150997
0.0150994
0.0150991
0.0150987
0.0150984
0.0150981
0.0150978
0.0150975
0.0150972
0.0150969
0.0150966
0.0150963
0.015096
0.0150957
0.0150954
0.0150951
0.0150948
0.0150945
0.0150942
0.0150939
0.0150936
0.0150933
0.015093
0.0150926
0.0150923
0.015092
0.0150917
0.0150914
0.0150911
0.0150908
0.0150905
0.0150902
0.0150899
0.0150896
0.0150893
0.015089
0.0150887
0.0150884
0.0150881
0.0150878
0.0150875
0.0150872
0.0150869
0.0150866
0.0150862
0.0150859
0.0150856
0.0150853
0.015085
0.0150847
0.0150844
0.0150841
0.0150838
0.0150835
0.0150832
0.0150829
0.0150826
0.0150823
0.015082
0.0150817
0.0150814
0.0150811
0.0150808
0.0150805
0.0150801
0.0150798
0.0150795
0.0150792
0.0150789
0.0150786
0.0150783
0.015078
0.0150777
0.0150774
0.0150771
0.0150768
0.0150765
0.0150762
0.0150759
0.0150756
0.0150753
0.015075
0.0150747
0.0150744
0.015074
0.0150737
0.0150734
0.0150731
0.0150728
0.0150725
0.0150722
0.0150719
0.0150716
0.0150713
0.015071
0.0150707
0.0150704
0.0150701
0.0150698
0.0150695
0.0150692
0.0150689
0.0150686
0.0150683
0.015068
0.0150676
0.0150673
0.015067
0.0150667
0.0150664
0.0150661
0.0150658
0.0150655
0.0150652
0.0150649
0.0150646
0.0150643
0.015064
0.0150637
0.0150634
0.0150631
0.0150628
0.0150625
0.0150622
0.0150619
0.0150615
0.0150612
0.0150609
0.0150606
0.0150603
0.01506
0.0150597
0.0150594
0.0150591
0.0150588
0.0150585
0.0150582
0.0150579
0.0150576
0.0150573
0.015057
0.0150567
0.0150564
0.0150561
0.0150558
0.0150555
0.0150551
0.0150548
0.0150545
0.0150542
0.0150539
0.0150536
0.0150533
0.015053
0.0150527
0.0150524
0.0150521
0.0150518
0.0150515
0.0150512
0.0150509
0.0150506
0.0150503
0.01505
0.0150497
0.0150494
0.0150491
0.0150487
0.0150484
0.0150481
0.0150478
0.0150475
0.0150472
0.0150469
0.0150466
0.0150463
0.015046
0.0150457
0.0150454
0.0150451
0.0150448
0.0150445
0.0150442
0.0150439
0.0150436
0.0150433
0.015043
0.0150427
0.0150423
0.015042
0.0150417
0.0150414
0.0150411
0.0150408
0.0150405
0.0150402
0.0150399
0.0150396
0.0150393
0.015039
0.0150387
0.0150384
0.0150381
0.0150378
0.0150375
0.0150372
0.0150368
0.0150365
0.0150362
0.0150359
0.0150356
0.0150353
0.015035
0.0150346
0.0150343
0.015034
0.0150337
0.0150333
0.0150329
0.0150326
0.0150322
0.0150317
0.0150313
0.0150308
0.0150303
0.0150296
0.0150289
0.0150279
0.0150275
0.0150275
0.0150275
1
0.969191
0.495616
0.314223
0.237896
0.197395
0.172133
0.154696
0.141841
0.131928
0.124027
0.117573
0.112196
0.107645
0.103741
0.100354
0.0973856
0.0947611
0.0924223
0.090323
0.0884262
0.0867023
0.0851268
0.0836798
0.0823447
0.0811076
0.0799569
0.0788827
0.0778767
0.0769317
0.0760416
0.0752012
0.0744057
0.0736512
0.0729342
0.0722516
0.0716006
0.0709788
0.0703842
0.0698146
0.0692685
0.0687441
0.0682402
0.0677554
0.0672886
0.0668387
0.0664046
0.0659856
0.0655807
0.0651893
0.0648106
0.0644439
0.0640887
0.0637443
0.0634103
0.0630862
0.0627715
0.0624658
0.0621686
0.0618797
0.0615986
0.061325
0.0610586
0.060799
0.0605462
0.0602996
0.0600592
0.0598247
0.0595957
0.0593723
0.059154
0.0589408
0.0587325
0.0585288
0.0583297
0.058135
0.0579444
0.0577579
0.0575754
0.0573967
0.0572217
0.0570502
0.0568822
0.0567176
0.0565561
0.0563979
0.0562427
0.0560904
0.0559411
0.0557945
0.0556506
0.0555094
0.0553707
0.0552345
0.0551007
0.0549693
0.0548402
0.0547133
0.0545885
0.0544659
0.0543453
0.0542268
0.0541102
0.0539955
0.0538827
0.0537717
0.0536624
0.0535549
0.0534491
0.0533449
0.0532423
0.0531413
0.0530418
0.0529438
0.0528473
0.0527522
0.0526586
0.0525663
0.0524753
0.0523856
0.0522973
0.0522102
0.0521243
0.0520396
0.0519561
0.0518738
0.0517926
0.0517125
0.0516335
0.0515555
0.0514787
0.0514028
0.0513279
0.0512541
0.0511812
0.0511092
0.0510382
0.0509681
0.0508989
0.0508306
0.0507632
0.0506966
0.0506308
0.0505659
0.0505017
0.0504384
0.0503758
0.0503141
0.050253
0.0501927
0.0501332
0.0500743
0.0500162
0.0499587
0.049902
0.0498459
0.0497905
0.0497357
0.0496815
0.049628
0.0495751
0.0495229
0.0494712
0.0494201
0.0493696
0.0493197
0.0492704
0.0492216
0.0491733
0.0491256
0.0490785
0.0490318
0.0489857
0.0489401
0.048895
0.0488504
0.0488063
0.0487627
0.0487195
0.0486769
0.0486346
0.0485929
0.0485516
0.0485107
0.0484703
0.0484303
0.0483908
0.0483517
0.048313
0.0482747
0.0482368
0.0481993
0.0481622
0.0481255
0.0480892
0.0480532
0.0480177
0.0479825
0.0479477
0.0479132
0.0478791
0.0478454
0.047812
0.047779
0.0477463
0.0477139
0.0476819
0.0476502
0.0476188
0.0475877
0.047557
0.0475266
0.0474965
0.0474667
0.0474372
0.047408
0.0473791
0.0473505
0.0473221
0.0472941
0.0472663
0.0472389
0.0472117
0.0471847
0.0471581
0.0471317
0.0471056
0.0470797
0.0470541
0.0470288
0.0470037
0.0469788
0.0469542
0.0469299
0.0469058
0.0468819
0.0468583
0.0468349
0.0468117
0.0467887
0.046766
0.0467435
0.0467213
0.0466992
0.0466774
0.0466558
0.0466343
0.0466131
0.0465921
0.0465714
0.0465508
0.0465304
0.0465102
0.0464902
0.0464704
0.0464508
0.0464314
0.0464122
0.0463932
0.0463743
0.0463556
0.0463372
0.0463189
0.0463007
0.0462828
0.046265
0.0462474
0.04623
0.0462127
0.0461956
0.0461787
0.0461619
0.0461453
0.0461289
0.0461126
0.0460965
0.0460806
0.0460648
0.0460492
0.0460337
0.0460184
0.0460033
0.0459883
0.0459735
0.0459588
0.0459443
0.0459299
0.0459157
0.0459016
0.0458877
0.0458739
0.0458603
0.0458469
0.0458336
0.0458204
0.0458074
0.0457946
0.0457819
0.0457693
0.0457569
0.0457447
0.0457326
0.0457207
0.0457089
0.0456972
0.0456858
0.0456744
0.0456632
0.0456522
0.0456413
0.0456306
0.04562
0.0456095
0.0455992
0.0455891
0.0455791
0.0455692
0.0455595
0.04555
0.0455406
0.0455313
0.0455222
0.0455132
0.0455044
0.0454957
0.0454871
0.0454787
0.0454705
0.0454623
0.0454544
0.0454465
0.0454388
0.0454312
0.0454238
0.0454165
0.0454093
0.0454023
0.0453954
0.0453886
0.045382