# vtk DataFile Version 2.0
FlowField
ASCII
DATASET STRUCTURED_GRID
DIMENSIONS 800 1 200
POINTS 160000 float
0 0 0
0.04 0 0
0.08 0 0
0.12 0 0
0.16 0 0
0.2 0 0
0.24 0 0
0.28 0 0
0.32 0 0
0.36 0 0
0.4 0 0
0.44 0 0
0.48 0 0
0.52 0 0
0.56 0 0
0.6 0 0
0.64 0 0
0.68 0 0
0.72 0 0
0.76 0 0
0.8 0 0
0.84 0 0
0.88 0 0
0.92 0 0
0.96 0 0
1 0 0
1.04 0 0
1.08 0 0
1.12 0 0
1.16 0 0
1.2 0 0
1.24 0 0
1.28 0 0
1.32 0 0
1.36 0 0
1.4 0 0
1.44 0 0
1.48 0 0
1.52 0 0
1.56 0 0
1.6 0 0
1.64 0 0
1.68 0 0
1.72 0 0
1.76 0 0
1.8 0 0
1.84 0 0
1.88 0 0
1.92 0 0
1.96 0 0
2 0 0
2.04 0 0
2.08 0 0
2.12 0 0
2.16 0 0
2.2 0 0
2.24 0 0
2.28 0 0
2.32 0 0
2.36 0 0
2.4 0 0
2.44 0 0
2.48 0 0
2.52 0 0
2.56 0 0
2.6 0 0
2.64 0 0
2.68 0 0
2.72 0 0
2.76 0 0
2.8 0 0
2.84 0 0
2.88 0 0
2.92 0 0
2.96 0 0
3 0 0
3.04 0 0
3.08 0 0
3.12 0 0
3.16 0 0
3.2 0 0
3.24 0 0
3.28 0 0
3.32 0 0
3.36 0 0
3.4 0 0
3.44 0 0
3.48 0 0
3.52 0 0
3.56 0 0
3.6 0 0
3.64 0 0
3.68 0 0
3.72 0 0
3.76 0 0
3.8 0 0
3.84 0 0
3.88 0 0
3.92 0 0
3.96 0 0
4 0 0
4.04 0 0
4.08 0 0
4.12 0 0
4.16 0 0
4.2 0 0
4.24 0 0
4.28 0 0
4.32 0 0
4.36 0 0
4.4 0 0
4.44 0 0
4.48 0 0
4.52 0 0
4.56 0 0
4.6 0 0
4.64 0 0
4.68 0 0
4.72 0 0
4.76 0 0
4.8 0 0
4.84 0 0
4.88 0 0
4.92 0 0
4.96 0 0
5 0 0
5.04 0 0
5.08 0 0
5.12 0 0
5.16 0 0
5.2 0 0
5.24 0 0
5.28 0 0
5.32 0 0
5.36 0 0
5.4 0 0
5.44 0 0
5.48 0 0
5.52 0 0
5.56 0 0
5.6 0 0
5.64 0 0
5.68 0 0
5.72 0 0
5.76 0 0
5.8 0 0
5.84 0 0
5.88 0 0
5.92 0 0
5.96 0 0
6 0 0
6.04 0 0
6.08 0 0
6.12 0 0
6.16 0 0
6.2 0 0
6.24 0 0
6.28 0 0
6.32 0 0
6.36 0 0
6.4 0 0
6.44 0 0
6.48 0 0
6.52 0 0
6.56 0 0
6.6 0 0
6.64 0 0
6.68 0 0
6.72 0 0
6.76 0 0
6.8 0 0
6.84 0 0
6.88 0 0
6.92 0 0
6.96 0 0
7 0 0
7.04 0 0
7.08 0 0
7.12 0 0
7.16 0 0
7.2 0 0
7.24 0 0
7.28 0 0
7.32 0 0
7.36 0 0
7.4 0 0
7.44 0 0
7.48 0 0
7.52 0 0
7.56 0 0
7.6 0 0
7.64 0 0
7.68 0 0
7.72 0 0
7.76 0 0
7.8 0 0
7.84 0 0
7.88 0 0
7.92 0 0
7.96 0 0
8 0 0
8.04 0 0
8.08 0 0
8.12 0 0
8.16 0 0
8.2 0 0
8.24 0 0
8.28 0 0
8.32 0 0
8.36 0 0
8.4 0 0
8.44 0 0
8.48 0 0
8.52 0 0
8.56 0 0
8.6 0 0
8.64 0 0
8.68 0 0
8.72 0 0
8.76 0 0
8.8 0 0
8.84 0 0
8.88 0 0
8.92 0 0
8.96 0 0
9 0 0
9.04 0 0
9.08 0 0
9.12 0 0
9.16 0 0
9.2 0 0
9.24 0 0
9.28 0 0
9.32 0 0
9.36 0 0
9.4 0 0
9.44 0 0
9.48 0 0
9.52 0 0
9.56 0 0
9.6 0 0
9.64 0 0
9.68 0 0
9.72 0 0
9.76 0 0
9.8 0 0
9.84 0 0
9.88 0 0
9.92 0 0
9.96 0 0
10 0 0
10.04 0 0
10.08 0 0
10.12 0 0
10.16 0 0
10.2 0 0
10.24 0 0
10.28 0 0
10.32 0 0
10.36 0 0
10.4 0 0
10.44 0 0
10.48 0 0
10.52 0 0
10.56 0 0
10.6 0 0
10.64 0 0
10.68 0 0
10.72 0 0
10.76 0 0
10.8 0 0
10.84 0 0
10.88 0 0
10.92 0 0
10.96 0 0
11 0 0
11.04 0 0
11.08 0 0
11.12 0 0
11.16 0 0
11.2 0 0
11.24 0 0
11.28 0 0
11.32 0 0
11.36 0 0
11.4 0 0
11.44 0 0
11.48 0 0
11.52 0 0
11.56 0 0
11.6 0 0
11.64 0 0
11.68 0 0
11.72 0 0
11.76 0 0
11.8 0 0
11.84 0 0
11.88 0 0
11.92 0 0
11.96 0 0
12 0 0
12.04 0 0
12.08 0 0
12.12 0 0
12.16 0 0
12.2 0 0
12.24 0 0
12.28 0 0
12.32 0 0
12.36 0 0
12.4 0 0
12.44 0 0
12.48 0 0
12.52 0 0
12.56 0 0
12.6 0 0
12.64 0 0
12.68 0 0
12.72 0 0
12.76 0 0
12.8 0 0
12.84 0 0
12.88 0 0
12.92 0 0
12.96 0 0
13 0 0
13.04 0 0
13.08 0 0
13.12 0 0
13.16 0 0
13.2 0 0
13.24 0 0
13.28 0 0
13.32 0 0
13.36 0 0
13.4 0 0
13.44 0 0
13.48 0 0
13.52 0 0
13.56 0 0
13.6 0 0
13.64 0 0
13.68 0 0
13.72 0 0
13.76 0 0
13.8 0 0
13.84 0 0
13.88 0 0
13.92 0 0
13.96 0 0
14 0 0
14.04 0 0
14.08 0 0
14.12 0 0
14.16 0 0
14.2 0 0
14.24 0 0
14.28 0 0
14.32 0 0
14.36 0 0
14.4 0 0
14.44 0 0
14.48 0 0
14.52 0 0
14.56 0 0
14.6 0 0
14.64 0 0
14.68 0 0
14.72 0 0
14.76 0 0
14.8 0 0
14.84 0 0
14.88 0 0
14.92 0 0
14.96 0 0
15 0 0
15.04 0 0
15.08 0 0
15.12 0 0
15.16 0 0
15.2 0 0
15.24 0 0
15.28 0 0
15.32 0 0
15.36 0 0
15.4 0 0
15.44 0 0
15.48 0 0
15.52 0 0
15.56 0 0
15.6 0 0
15.64 0 0
15.68 0 0
15.72 0 0
15.76 0 0
15.8 0 0
15.84 0 0
15.88 0 0
15.92 0 0
15.96 0 0
16 0 0
16.04 0 0
16.08 0 0
16.12 0 0
16.16 0 0
16.2 0 0
16.24 0 0
16.28 0 0
16.32 0 0
16.36 0 0
16.4 0 0
16.44 0 0
16.48 0 0
16.52 0 0
16.56 0 0
16.6 0 0
16.64 0 0
16.68 0 0
16.72 0 0
16.76 0 0
16.8 0 0
16.84 0 0
16.88 0 0
16.92 0 0
16.96 0 0
17 0 0
17.04 0 0
17.08 0 0
17.12 0 0
17.16 0 0
17.2 0 0
17.24 0 0
17.28 0 0
17.32 0 0
17.36 0 0
17.4 0 0
17.44 0 0
17.48 0 0
17.52 0 0
17.56 0 0
17.6 0 0
17.64 0 0
17.68 0 0
17.72 0 0
17.76 0 0
17.8 0 0
17.84 0 0
17.88 0 0
17.92 0 0
17.96 0 0
18 0 0
18.04 0 0
18.08 0 0
18.12 0 0
18.16 0 0
18.2 0 0
18.24 0 0
18.28 0 0
18.32 0 0
18.36 0 0
18.4 0 0
18.44 0 0
18.48 0 0
18.52 0 0
18.56 0 0
18.6 0 0
18.64 0 0
18.68 0 0
18.72 0 0
18.76 0 0
18.8 0 0
18.84 0 0
18.88 0 0
18.92 0 0
18.96 0 0
19 0 0
19.04 0 0
19.08 0 0
19.12 0 0
19.16 0 0
19.2 0 0
19.24 0 0
19.28 0 0
19.32 0 0
19.36 0 0
19.4 0 0
19.44 0 0
19.48 0 0
19.52 0 0
19.56 0 0
19.6 0 0
19.64 0 0
19.68 0 0
19.72 0 0
19.76 0 0
19.8 0 0
19.84 0 0
19.88 0 0
19.92 0 0
19.96 0 0
20 0 0
20.04 0 0
20.08 0 0
20.12 0 0
20.16 0 0
20.2 0 0
20.24 0 0
20.28 0 0
20.32 0 0
20.36 0 0
20.4 0 0
20.44 0 0
20.48 0 0
20.52 0 0
20.56 0 0
20.6 0 0
20.64 0 0
20.68 0 0
20.72 0 0
20.76 0 0
20.8 0 0
20.84 0 0
20.88 0 0
20.92 0 0
20.96 0 0
21 0 0
21.04 0 0
21.08 0 0
21.12 0 0
21.16 0 0
21.2 0 0
21.24 0 0
21.28 0 0
21.32 0 0
21.36 0 0
21.4 0 0
21.44 0 0
21.48 0 0
21.52 0 0
21.56 0 0
21.6 0 0
21.64 0 0
21.68 0 0
21.72 0 0
21.76 0 0
21.8 0 0
21.84 0 0
21.88 0 0
21.92 0 0
21.96 0 0
22 0 0
22.04 0 0
22.08 0 0
22.12 0 0
22.16 0 0
22.2 0 0
22.24 0 0
22.28 0 0
22.32 0 0
22.36 0 0
22.4 0 0
22.44 0 0
22.48 0 0
22.52 0 0
22.56 0 0
22.6 0 0
22.64 0 0
22.68 0 0
22.72 0 0
22.76 0 0
22.8 0 0
22.84 0 0
22.88 0 0
22.92 0 0
22.96 0 0
23 0 0
23.04 0 0
23.08 0 0
23.12 0 0
23.16 0 0
23.2 0 0
23.24 0 0
23.28 0 0
23.32 0 0
23.36 0 0
23.4 0 0
23.44 0 0
23.48 0 0
23.52 0 0
23.56 0 0
23.6 0 0
23.64 0 0
23.68 0 0
23.72 0 0
23.76 0 0
23.8 0 0
23.84 0 0
23.88 0 0
23.92 0 0
23.96 0 0
24 0 0
24.04 0 0
24.08 0 0
24.12 0 0
24.16 0 0
24.2 0 0
24.24 0 0
24.28 0 0
24.32 0 0
24.36 0 0
24.4 0 0
24.44 0 0
24.48 0 0
24.52 0 0
24.56 0 0
24.6 0 0
24.64 0 0
24.68 0 0
24.72 0 0
24.76 0 0
24.8 0 0
24.84 0 0
24.88 0 0
24.92 0 0
24.96 0 0
25 0 0
25.04 0 0
25.08 0 0
25.12 0 0
25.16 0 0
25.2 0 0
25.24 0 0
25.28 0 0
25.32 0 0
25.36 0 0
25.4 0 0
25.44 0 0
25.48 0 0
25.52 0 0
25.56 0 0
25.6 0 0
25.64 0 0
25.68 0 0
25.72 0 0
25.76 0 0
25.8 0 0
25.84 0 0
25.88 0 0
25.92 0 0
25.96 0 0
26 0 0
26.04 0 0
26.08 0 0
26.12 0 0
26.16 0 0
26.2 0 0
26.24 0 0
26.28 0 0
26.32 0 0
26.36 0 0
26.4 0 0
26.44 0 0
26.48 0 0
26.52 0 0
26.56 0 0
26.6 0 0
26.64 0 0
26.68 0 0
26.72 0 0
26.76 0 0
26.8 0 0
26.84 0 0
26.88 0 0
26.92 0 0
26.96 0 0
27 0 0
27.04 0 0
27.08 0 0
27.12 0 0
27.16 0 0
27.2 0 0
27.24 0 0
27.28 0 0
27.32 0 0
27.36 0 0
27.4 0 0
27.44 0 0
27.48 0 0
27.52 0 0
27.56 0 0
27.6 0 0
27.64 0 0
27.68 0 0
27.72 0 0
27.76 0 0
27.8 0 0
27.84 0 0
27.88 0 0
27.92 0 0
27.96 0 0
28 0 0
28.04 0 0
28.08 0 0
28.12 0 0
28.16 0 0
28.2 0 0
28.24 0 0
28.28 0 0
28.32 0 0
28.36 0 0
28.4 0 0
28.44 0 0
28.48 0 0
28.52 0 0
28.56 0 0
28.6 0 0
28.64 0 0
28.68 0 0
28.72 0 0
28.76 0 0
28.8 0 0
28.84 0 0
28.88 0 0
28.92 0 0
28.96 0 0
29 0 0
29.04 0 0
29.08 0 0
29.12 0 0
29.16 0 0
29.2 0 0
29.24 0 0
29.28 0 0
29.32 0 0
29.36 0 0
29.4 0 0
29.44 0 0
29.48 0 0
29.52 0 0
29.56 0 0
29.6 0 0
29.64 0 0
29.68 0 0
29.72 0 0
29.76 0 0
29.8 0 0
29.84 0 0
29.88 0 0
29.92 0 0
29.96 0 0
30 0 0
30.04 0 0
30.08 0 0
30.12 0 0
30.16 0 0
30.2 0 0
30.24 0 0
30.28 0 0
30.32 0 0
30.36 0 0
30.4 0 0
30.44 0 0
30.48 0 0
30.52 0 0
30.56 0 0
30.6 0 0
30.64 0 0
30.68 0 0
30.72 0 0
30.76 0 0
30.8 0 0
30.84 0 0
30.88 0 0
30.92 0 0
30.96 0 0
31 0 0
31.04 0 0
31.08 0 0
31.12 0 0
31.16 0 0
31.2 0 0
31.24 0 0
31.28 0 0
31.32 0 0
31.36 0 0
31.4 0 0
31.44 0 0
31.48 0 0
31.52 0 0
31.56 0 0
31.6 0 0
31.64 0 0
31.68 0 0
31.72 0 0
31.76 0 0
31.8 0 0
31.84 0 0
31.88 0 0
31.92 0 0
31.96 0 0
0 0.005 0
0.04 0.005 0
0.08 0.005 0
0.12 0.005 0
0.16 0.005 0
0.2 0.005 0
0.24 0.005 0
0.28 0.005 0
0.32 0.005 0
0.36 0.005 0
0.4 0.005 0
0.44 0.005 0
0.48 0.005 0
0.52 0.005 0
0.56 0.005 0
0.6 0.005 0
0.64 0.005 0
0.68 0.005 0
0.72 0.005 0
0.76 0.005 0
0.8 0.005 0
0.84 0.005 0
0.88 0.005 0
0.92 0.005 0
0.96 0.005 0
1 0.005 0
1.04 0.005 0
1.08 0.005 0
1.12 0.005 0
1.16 0.005 0
1.2 0.005 0
1.24 0.005 0
1.28 0.005 0
1.32 0.005 0
1.36 0.005 0
1.4 0.005 0
1.44 0.005 0
1.48 0.005 0
1.52 0.005 0
1.56 0.005 0
1.6 0.005 0
1.64 0.005 0
1.68 0.005 0
1.72 0.005 0
1.76 0.005 0
1.8 0.005 0
1.84 0.005 0
1.88 0.005 0
1.92 0.005 0
1.96 0.005 0
2 0.005 0
2.04 0.005 0
2.08 0.005 0
2.12 0.005 0
2.16 0.005 0
2.2 0.005 0
2.24 0.005 0
2.28 0.005 0
2.32 0.005 0
2.36 0.005 0
2.4 0.005 0
2.44 0.005 0
2.48 0.005 0
2.52 0.005 0
2.56 0.005 0
2.6 0.005 0
2.64 0.005 0
2.68 0.005 0
2.72 0.005 0
2.76 0.005 0
2.8 0.005 0
2.84 0.005 0
2.88 0.005 0
2.92 0.005 0
2.96 0.005 0
3 0.005 0
3.04 0.005 0
3.08 0.005 0
3.12 0.005 0
3.16 0.005 0
3.2 0.005 0
3.24 0.005 0
3.28 0.005 0
3.32 0.005 0
3.36 0.005 0
3.4 0.005 0
3.44 0.005 0
3.48 0.005 0
3.52 0.005 0
3.56 0.005 0
3.6 0.005 0
3.64 0.005 0
3.68 0.005 0
3.72 0.005 0
3.76 0.005 0
3.8 0.005 0
3.84 0.005 0
3.88 0.005 0
3.92 0.005 0
3.96 0.005 0
4 0.005 0
4.04 0.005 0
4.08 0.005 0
4.12 0.005 0
4.16 0.005 0
4.2 0.005 0
4.24 0.005 0
4.28 0.005 0
4.32 0.005 0
4.36 0.005 0
4.4 0.005 0
4.44 0.005 0
4.48 0.005 0
4.52 0.005 0
4.56 0.005 0
4.6 0.005 0
4.64 0.005 0
4.68 0.005 0
4.72 0.005 0
4.76 0.005 0
4.8 0.005 0
4.84 0.005 0
4.88 0.005 0
4.92 0.005 0
4.96 0.005 0
5 0.005 0
5.04 0.005 0
5.08 0.005 0
5.12 0.005 0
5.16 0.005 0
5.2 0.005 0
5.24 0.005 0
5.28 0.005 0
5.32 0.005 0
5.36 0.005 0
5.4 0.005 0
5.44 0.005 0
5.48 0.005 0
5.52 0.005 0
5.56 0.005 0
5.6 0.005 0
5.64 0.005 0
5.68 0.005 0
5.72 0.005 0
5.76 0.005 0
5.8 0.005 0
5.84 0.005 0
5.88 0.005 0
5.92 0.005 0
5.96 0.005 0
6 0.005 0
6.04 0.005 0
6.08 0.005 0
6.12 0.005 0
6.16 0.005 0
6.2 0.005 0
6.24 0.005 0
6.28 0.005 0
6.32 0.005 0
6.36 0.005 0
6.4 0.005 0
6.44 0.005 0
6.48 0.005 0
6.52 0.005 0
6.56 0.005 0
6.6 0.005 0
6.64 0.005 0
6.68 0.005 0
6.72 0.005 0
6.76 0.005 0
6.8 0.005 0
6.84 0.005 0
6.88 0.005 0
6.92 0.005 0
6.96 0.005 0
7 0.005 0
7.04 0.005 0
7.08 0.005 0
7.12 0.005 0
7.16 0.005 0
7.2 0.005 0
7.24 0.005 0
7.28 0.005 0
7.32 0.005 0
7.36 0.005 0
7.4 0.005 0
[...]
POINT_DATA 160000

SCALARS u float 1
LOOKUP_TABLE default
-1
-0.483356
-0.183962
-0.108844
-0.0810317
-0.0668322
-0.0581165
-0.0521509
-0.0477755
-0.0444125
-0.0417391
-0.0395592
-0.0377458
-0.0362128
-0.0348989
-0.0337597
-0.032762
-0.0318801
-0.0310944
-0.0303893
-0.0297522
-0.0291731
-0.0286439
-0.0281577
-0.0277091
-0.0272932
-0.0269063
-0.0265451
-0.0262067
-0.0258887
-0.0255891
-0.0253061
-0.0250382
-0.024784
-0.0245424
-0.0243123
-0.0240928
-0.0238832
-0.0236826
-0.0234904
-0.0233062
-0.0231292
-0.0229591
-0.0227955
-0.0226379
-0.0224859
-0.0223394
-0.0221978
-0.0220611
-0.0219288
-0.0218009
-0.021677
-0.0215569
-0.0214406
-0.0213277
-0.0212181
-0.0211118
-0.0210084
-0.0209079
-0.0208102
-0.0207152
-0.0206227
-0.0205326
-0.0204448
-0.0203593
-0.0202759
-0.0201946
-0.0201153
-0.0200378
-0.0199623
-0.0198884
-0.0198163
-0.0197458
-0.0196769
-0.0196095
-0.0195436
-0.0194792
-0.0194161
-0.0193543
-0.0192938
-0.0192346
-0.0191766
-0.0191197
-0.019064
-0.0190094
-0.0189558
-0.0189033
-0.0188517
-0.0188012
-0.0187515
-0.0187028
-0.018655
-0.0186081
-0.018562
-0.0185167
-0.0184722
-0.0184285
-0.0183855
-0.0183433
-0.0183018
-0.018261
-0.0182209
-0.0181814
-0.0181426
-0.0181044
-0.0180668
-0.0180298
-0.0179935
-0.0179576
-0.0179224
-0.0178877
-0.0178535
-0.0178199
-0.0177867
-0.0177541
-0.017722
-0.0176903
-0.0176591
-0.0176284
-0.0175982
-0.0175683
-0.0175389
-0.01751
-0.0174815
-0.0174534
-0.0174256
-0.0173983
-0.0173714
-0.0173449
-0.0173188
-0.0172931
-0.0172677
-0.0172428
-0.0172182
-0.017194
-0.0171701
-0.0171467
-0.0171236
-0.0171009
-0.0170785
-0.0170566
-0.017035
-0.0170138
-0.0169931
-0.0169727
-0.0169526
-0.016933
-0.0169138
-0.016895
-0.0168766
-0.0168586
-0.016841
-0.0168238
-0.016807
-0.0167905
-0.0167745
-0.0167589
-0.0167437
-0.0167288
-0.0167144
-0.0167003
-0.0166866
-0.0166732
-0.0166602
-0.0166476
-0.0166353
-0.0166233
-0.0166117
-0.0166003
-0.0165893
-0.0165786
-0.0165683
-0.0165582
-0.0165484
-0.0165388
-0.0165296
-0.0165206
-0.0165119
-0.0165034
-0.0164952
-0.0164873
-0.0164796
-0.0164721
-0.0164649
-0.0164579
-0.0164511
-0.0164445
-0.0164382
-0.016432
-0.0164261
-0.0164203
-0.0164148
-0.0164094
-0.0164042
-0.0163992
-0.0163944
-0.0163898
-0.0163853
-0.016381
-0.0163769
-0.0163729
-0.016369
-0.0163653
-0.0163618
-0.0163584
-0.0163551
-0.016352
-0.0163489
-0.0163461
-0.0163433
-0.0163406
-0.0163381
-0.0163357
-0.0163334
-0.0163311
-0.016329
-0.016327
-0.0163251
-0.0163232
-0.0163215
-0.0163198
-0.0163182
-0.0163168
-0.0163154
-0.016314
-0.0163128
-0.0163117
-0.0163106
-0.0163097
-0.0163088
-0.016308
-0.0163072
-0.0163065
-0.0163059
-0.0163054
-0.0163049
-0.0163044
-0.0163039
-0.0163035
-0.0163032
-0.0163028
-0.0163024
-0.0163021
-0.0163018
-0.0163015
-0.0163012
-0.0163009
-0.0163005
-0.0163002
-0.0162999
-0.0162996
-0.0162993
-0.016299
-0.0162987
-0.0162984
-0.0162981
-0.0162978
-0.0162975
-0.0162972
-0.0162969
-0.0162966
-0.0162963
-0.016296
-0.0162957
-0.0162954
-0.0162951
-0.0162948
-0.0162945
-0.0162942
-0.0162939
-0.0162936
-0.0162933
-0.016293
-0.0162927
-0.0162924
-0.0162921
-0.0162918
-0.0162915
-0.0162912
-0.0162909
-0.0162906
-0.0162903
-0.01629
-0.0162897
-0.0162894
-0.0162891
-0.0162887
-0.0162884
-0.0162881
-0.0162878
-0.0162875
-0.0162872
-0.0162869
-0.0162866
-0.0162863
-0.016286
-0.0162857
-0.0162854
-0.0162851
-0.0162848
-0.0162845
-0.0162842
-0.0162839
-0.0162836
-0.0162833
-0.016283
-0.0162827
-0.0162824
-0.0162821
-0.0162818
-0.0162815
-0.0162812
-0.0162809
-0.0162806
-0.0162803
-0.01628
-0.0162797
-0.0162794
-0.0162791
-0.0162788
-0.0162785
-0.0162782
-0.0162779
-0.0162775
-0.0162772
-0.0162769
-0.0162766
-0.0162763
-0.016276
-0.0162757
-0.0162754
-0.0162751
-0.0162748
-0.0162745
-0.0162742
-0.0162739
-0.0162736
-0.0162733
-0.016273
-0.0162727
-0.0162724
-0.0162721
-0.0162718
-0.0162715
-0.0162712
-0.0162709
-0.0162706
-0.0162703
-0.01627
-0.0162697
-0.0162694
-0.0162691
-0.0162688
-0.0162685
-0.0162682
-0.0162679
-0.0162676
-0.0162673
-0.016267
-0.0162667
-0.0162663
-0.016266
-0.0162657
-0.0162654
-0.0162651
-0.0162648
-0.0162645
-0.0162642
-0.0162639
-0.0162636
-0.0162633
-0.016263
-0.0162627
-0.0162624
-0.0162621
-0.0162618
-0.0162615
-0.0162612
-0.0162609
-0.0162606
-0.0162603
-0.01626
-0.0162597
-0.0162594
-0.0162591
-0.0162588
-0.0162585
-0.0162582
-0.0162579
-0.0162576
-0.0162573
-0.016257
-0.0162567
-0.0162564
-0.0162561
-0.0162558
-0.0162554
-0.0162551
-0.0162548
-0.0162545
-0.0162542
-0.0162539
-0.0162536
-0.0162533
-0.016253
-0.0162527
-0.0162524
-0.0162521
-0.0162518
-0.0162515
-0.0162512
-0.0162509
-0.0162506
-0.0162503
-0.01625
-0.0162497
-0.0162494
-0.0162491
-0.0162488
-0.0162485
-0.0162482
-0.0162479
-0.0162476
-0.0162473
-0.016247
-0.0162467
-0.0162464
-0.0162461
-0.0162458
-0.0162455
-0.0162452
-0.0162448
-0.0162445
-0.0162442
-0.0162439
-0.0162436
-0.0162433
-0.016243
-0.0162427
-0.0162424
-0.0162421
-0.0162418
-0.0162415
-0.0162412
-0.0162409
-0.0162406
-0.0162403
-0.01624
-0.0162397
-0.0162394
-0.0162391
-0.0162388
-0.0162385
-0.0162382
-0.0162379
-0.0162376
-0.0162373
-0.016237
-0.0162367
-0.0162364
-0.0162361
-0.0162358
-0.0162355
-0.0162352
-0.0162349
-0.0162346
-0.0162342
-0.0162339
-0.0162336
-0.0162333
-0.016233
-0.0162327
-0.0162324
-0.0162321
-0.0162318
-0.0162315
-0.0162312
-0.0162309
-0.0162306
-0.0162303
-0.01623
-0.0162297
-0.0162294
-0.0162291
-0.0162288
-0.0162285
-0.0162282
-0.0162279
-0.0162276
-0.0162273
-0.016227
-0.0162267
-0.0162264
-0.0162261
-0.0162258
-0.0162255
-0.0162252
-0.0162249
-0.0162246
-0.0162243
-0.0162239
-0.0162236
-0.0162233
-0.016223
-0.0162227
-0.0162224
-0.0162221
-0.0162218
-0.0162215
-0.0162212
-0.0162209
-0.0162206
-0.0162203
-0.01622
-0.0162197
-0.0162194
-0.0162191
-0.0162188
-0.0162185
-0.0162182
-0.0162179
-0.0162176
-0.0162173
-0.016217
-0.0162167
-0.0162164
-0.0162161
-0.0162158
-0.0162155
-0.0162152
-0.0162149
-0.0162146
-0.0162143
-0.0162139
-0.0162136
-0.0162133
-0.016213
-0.0162127
-0.0162124
-0.0162121
-0.0162118
-0.0162115
-0.0162112
-0.0162109
-0.0162106
-0.0162103
-0.01621
-0.0162097
-0.0162094
-0.0162091
-0.0162088
-0.0162085
-0.0162082
-0.0162079
-0.0162076
-0.0162073
-0.016207
-0.0162067
-0.0162064
-0.0162061
-0.0162058
-0.0162055
-0.0162052
-0.0162049
-0.0162046
-0.0162043
-0.0162039
-0.0162036
-0.0162033
-0.016203
-0.0162027
-0.0162024
-0.0162021
-0.0162018
-0.0162015
-0.0162012
-0.0162009
-0.0162006
-0.0162003
-0.0162
-0.0161997
-0.0161994
-0.0161991
-0.0161988
-0.0161985
-0.0161982
-0.0161979
-0.0161976
-0.0161973
-0.016197
-0.0161967
-0.0161964
-0.0161961
-0.0161958
-0.0161955
-0.0161952
-0.0161949
-0.0161945
-0.0161942
-0.0161939
-0.0161936
-0.0161933
-0.016193
-0.0161927
-0.0161924
-0.0161921
-0.0161918
-0.0161915
-0.0161912
-0.0161909
-0.0161906
-0.0161903
-0.01619
-0.0161897
-0.0161894
-0.0161891
-0.0161888
-0.0161885
-0.0161882
-0.0161879
-0.0161876
-0.0161873
-0.016187
-0.0161867
-0.0161864
-0.0161861
-0.0161858
-0.0161855
-0.0161852
-0.0161848
-0.0161845
-0.0161842
-0.0161839
-0.0161836
-0.0161833
-0.016183
-0.0161827
-0.0161824
-0.0161821
-0.0161818
-0.0161815
-0.0161812
-0.0161809
-0.0161806
-0.0161803
-0.01618
-0.0161797
-0.0161794
-0.0161791
-0.0161788
-0.0161785
-0.0161782
-0.0161779
-0.0161776
-0.0161773
-0.016177
-0.0161767
-0.0161764
-0.0161761
-0.0161757
-0.0161754
-0.0161751
-0.0161748
-0.0161745
-0.0161742
-0.0161739
-0.0161736
-0.0161733
-0.016173
-0.0161727
-0.0161724
-0.0161721
-0.0161718
-0.0161715
-0.0161712
-0.0161709
-0.0161706
-0.0161703
-0.01617
-0.0161697
-0.0161694
-0.0161691
-0.0161688
-0.0161685
-0.0161682
-0.0161679
-0.0161676
-0.0161673
-0.016167
-0.0161666
-0.0161663
-0.016166
-0.0161657
-0.0161654
-0.0161651
-0.0161648
-0.0161645
-0.0161642
-0.0161639
-0.0161636
-0.0161633
-0.016163
-0.0161627
-0.0161624
-0.0161621
-0.0161618
-0.0161615
-0.0161612
-0.0161609
-0.0161606
-0.0161603
-0.01616
-0.0161597
-0.0161594
-0.0161591
-0.0161588
-0.0161585
-0.0161582
-0.0161578
-0.0161575
-0.0161572
-0.0161569
-0.0161566
-0.0161563
-0.016156
-0.0161557
-0.0161554
-0.0161551
-0.0161548
-0.0161545
-0.0161542
-0.0161539
-0.0161536
-0.0161533
-0.016153
-0.0161527
-0.0161524
-0.0161521
-0.0161518
-0.0161515
-0.0161512
-0.0161509
-0.0161506
-0.0161503
-0.01615
-0.0161497
-0.0161494
-0.016149
-0.0161487
-0.0161484
-0.0161481
-0.0161478
-0.0161475
-0.0161472
-0.0161469
-0.0161466
-0.0161463
-0.016146
-0.0161457
-0.0161454
-0.0161451
-0.0161448
-0.0161445
-0.0161442
-0.0161439
-0.0161436
-0.0161433
-0.016143
-0.0161427
-0.0161424
-0.0161421
-0.0161418
-0.0161414
-0.0161411
-0.0161408
-0.0161405
-0.0161402
-0.0161399
-0.0161396
-0.0161393
-0.016139
-0.0161386
-0.0161383
-0.016138
-0.0161376
-0.0161373
-0.0161369
-0.0161366
-0.0161362
-0.0161358
-0.0161353
-0.0161348
-0.0161343
-0.0161337
-0.016133
-0.0161323
-0.0161311
-0.0161308
-0.0161308
-0.0161308
1
0.483356
0.183962
0.108844
0.0810317
0.0668322
0.0581165
0.0521509
0.0477755
0.0444125
0.0417391
0.0395592
0.0377458
0.0362128
0.0348989
0.0337597
0.032762
0.0318801
0.0310944
0.0303893
0.0297522
0.0291731
0.0286439
0.0281577
0.0277091
0.0272932
0.0269063
0.0265451
0.0262067
0.0258887
0.0255891
0.0253061
0.0250382
0.024784
0.0245424
0.0243123
0.0240928
0.0238832
0.0236826
0.0234904
0.0233062
0.0231292
0.0229591
0.0227955
0.0226379
0.0224859
0.0223394
0.0221978
0.0220611
0.0219288
0.0218009
0.021677
0.0215569
0.0214406
0.0213277
0.0212181
0.0211118
0.0210084
0.0209079
0.0208102
0.0207152
0.0206227
0.0205326
0.0204448
0.0203593
0.0202759
0.0201946
0.0201153
0.0200378
0.0199623
0.0198884
0.0198163
0.0197458
0.0196769
0.0196095
0.0195436
0.0194792
0.0194161
0.0193543
0.0192938
0.0192346
0.0191766
0.0191197
0.019064
0.0190094
0.0189558
0.0189033
0.0188517
0.0188012
0.0187515
0.0187028
0.018655
0.0186081
0.018562
0.0185167
0.0184722
0.0184285
0.0183855
0.0183433
0.0183018
0.018261
0.0182209
0.0181814
0.0181426
0.0181044
0.0180668
0.0180298
0.0179935
0.0179576
0.0179224
0.0178877
0.0178535
0.0178199
0.0177867
0.0177541
0.017722
0.0176903
0.0176591
0.0176284
0.0175982
0.0175683
0.0175389
0.01751
0.0174815
0.0174534
0.0174256
0.0173983
0.0173714
0.0173449
0.0173188
0.0172931
0.0172677
0.0172428
0.0172182
0.017194
0.0171701
0.0171467
0.0171236
0.0171009
0.0170785
0.0170566
0.017035
0.0170138
0.0169931
0.0169727
0.0169526
0.016933
0.0169138
0.016895
0.0168766
0.0168586
0.016841
0.0168238
0.016807
0.0167905
0.0167745
0.0167589
0.0167437
0.0167288
0.0167144
0.0167003
0.0166866
0.0166732
0.0166602
0.0166476
0.0166353
0.0166233
0.0166117
0.0166003
0.0165893
0.0165786
0.0165683
0.0165582
0.0165484
0.0165388
0.0165296
0.0165206
0.0165119
0.0165034
0.0164952
0.0164873
0.0164796
0.0164721
0.0164649
0.0164579
0.0164511
0.0164445
0.0164382
0.016432
0.0164261
0.0164203
0.0164148
0.0164094
0.0164042
0.0163992
0.0163944
0.0163898
0.0163853
0.016381
0.0163769
0.0163729
0.016369
0.0163653
0.0163618
0.0163584
0.0163551
0.016352
0.0163489
0.0163461
0.0163433
0.0163406
0.0163381
0.0163357
0.0163334
0.0163311
0.016329
0.016327
0.0163251
0.0163232
0.0163215
0.0163198
0.0163182
0.0163168
0.0163154
0.016314
0.0163128
0.0163117
0.0163106
0.0163097
0.0163088
0.016308
0.0163072
0.0163065
0.0163059
0.0163054
0.0163049
0.0163044
0.0163039
0.0163035
0.0163032
0.0163028
0.0163024
0.0163021
0.0163018
0.0163015
0.0163012
0.0163009
0.0163005
0.0163002
0.0162999
0.0162996
0.0162993
0.016299
0.0162987
0.0162984
0.0162981
0.0162978
0.0162975
0.0162972
0.0162969
0.0162966
0.0162963
0.016296
0.0162957
0.0162954
0.0162951
0.0162948
0.0162945
0.0162942
0.0162939
0.0162936
0.0162933
0.016293
0.0162927
0.0162924
0.0162921
0.0162918
0.0162915
0.0162912
0.0162909
0.0162906
0.0162903
0.01629
0.0162897
0.0162894
0.0162891
0.0162887
0.0162884
0.0162881
0.0162878
0.0162875
0.0162872
0.0162869
0.0162866
0.0162863
0.016286
0.0162857
0.0162854
0.0162851
0.0162848
0.0162845
0.0162842
0.0162839
0.0162836
0.0162833
0.016283
0.0162827
0.0162824
0.0162821
0.0162818
0.0162815
0.0162812
0.0162809
0.0162806
0.0162803
0.01628
0.0162797
0.0162794
0.0162791
0.0162788
0.0162785
0.0162782
0.0162779
0.0162775
0.0162772
0.0162769
0.0162766
0.0162763
0.016276
0.0162757
0.0162754
0.0162751
0.0162748
0.0162745
0.0162742
0.0162739
0.0162736
0.0162733
0.016273
0.0162727
0.0162724
0.0162721
0.0162718
0.0162715
0.0162712
0.0162709
0.0162706
0.0162703
0.01627
0.0162697
0.0162694
0.0162691
0.0162688
0.0162685
0.0162682
0.0162679
0.0162676
0.0162673
0.016267
0.0162667
0.0162663
0.016266
0.0162657
0.0162654
0.0162651
0.0162648
0.0162645
0.0162642
0.0162639
0.0162636
0.0162633
0.016263
0.0162627
0.0162624
0.0162621
0.0162618
0.0162615
0.0162612
0.0162609
0.0162606
0.0162603
0.01626
0.0162597
0.0162594
0.0162591
0.0162588
0.0162585
0.0162582
0.0162579
0.0162576
0.0162573
0.016257
0.0162567
0.0162564
0.0162561
0.0162558
0.0162554
0.0162551
0.0162548
0.0162545
0.0162542
0.0162539
0.0162536
0.0162533
0.016253
0.0162527
0.0162524
0.0162521
0.0162518
0.0162515
0.0162512
0.0162509
0.0162506
0.0162503
0.01625
0.0162497
0.0162494
0.0162491
0.0162488
0.0162485
0.0162482
0.0162479
0.0162476
0.0162473
0.016247
0.0162467
0.0162464
0.0162461
0.0162458
0.0162455
0.0162452
0.0162448
0.0162445
0.0162442
0.0162439
0.0162436
0.0162433
0.016243
0.0162427
0.0162424
0.0162421
0.0162418
0.0162415
0.0162412
0.0162409
0.0162406
0.0162403
0.01624
0.0162397
0.0162394
0.0162391
0.0162388
0.0162385
0.0162382
0.0162379
0.0162376
0.0162373
0.016237
0.0162367
0.0162364
0.0162361
0.0162358
0.0162355
0.0162352
0.0162349
0.0162346
0.0162342
0.0162339
0.0162336
0.0162333
0.016233
0.0162327
0.0162324
0.0162321
0.0162318
0.0162315
0.0162312
0.0162309
0.0162306
0.0162303
0.01623
0.0162297
0.0162294
0.0162291
0.0162288
0.0162285
0.0162282
0.0162279
0.0162276
0.0162273
0.016227
0.0162267
0.0162264
0.0162261
0.0162258
0.0162255
0.0162252
0.0162249
0.0162246
0.0162243
0.0162239
0.0162236
0.0162233
0.016223
0.0162227
0.0162224
0.0162221
0.0162218
0.0162215
0.0162212
0.0162209
0.0162206
0.0162203
0.01622
0.0162197
0.0162194
0.0162191
0.0162188
0.0162185
0.0162182
0.0162179
0.0162176
0.0162173
0.016217
0.0162167
0.0162164
0.0162161
0.0162158
0.0162155
0.0162152
0.0162149
0.0162146
0.0162143
0.0162139
0.0162136
0.0162133
0.016213
0.0162127
0.0162124
0.0162121
0.0162118
0.0162115
0.0162112
0.0162109
0.0162106
0.0162103
0.01621
0.0162097
0.0162094
0.0162091
0.0162088
0.0162085
0.0162082
0.0162079
0.0162076
0.0162073
0.016207
0.0162067
0.0162064
0.0162061
0.0162058
0.0162055
0.0162052
0.0162049
0.0162046
0.0162043
0.0162039
0.0162036
0.0162033
0.016203
0.0162027
0.0162024
0.0162021
0.0162018
0.0162015
0.0162012
0.0162009
0.0162006
0.0162003
0.0162
0.0161997
0.0161994
0.0161991
0.0161988
0.0161985
0.0161982
0.0161979
0.0161976
0.0161973
0.016197
0.0161967
0.0161964
0.0161961
0.0161958
0.0161955
0.0161952
0.0161949
0.0161945
0.0161942
0.0161939
0.0161936
0.0161933
0.016193
0.0161927
0.0161924
0.0161921
0.0161918
0.0161915
0.0161912
0.0161909
0.0161906
0.0161903
0.01619
0.0161897
0.0161894
0.0161891
0.0161888
0.0161885
0.0161882
0.0161879
0.0161876
0.0161873
0.016187
0.0161867
0.0161864
0.0161861
0.0161858
0.0161855
0.0161852
0.0161848
0.0161845
0.0161842
0.0161839
0.0161836
0.0161833
0.016183
0.0161827
0.0161824
0.0161821
0.0161818
0.0161815
0.0161812
0.0161809
0.0161806
0.0161803
0.01618
0.0161797
0.0161794
0.0161791
0.0161788
0.0161785
0.0161782
0.0161779
0.0161776
0.0161773
0.016177
0.0161767
0.0161764
0.0161761
0.0161757
0.0161754
0.0161751
0.0161748
0.0161745
0.0161742
0.0161739
0.0161736
0.0161733
0.016173
0.0161727
0.0161724
0.0161721
0.0161718
0.0161715
0.0161712
0.0161709
0.0161706
0.0161703
0.01617
0.0161697
0.0161694
0.0161691
0.0161688
0.0161685
0.0161682
0.0161679
0.0161676
0.0161673
0.016167
0.0161666
0.0161663
0.016166
0.0161657
0.0161654
0.0161651
0.0161648
0.0161645
0.0161642
0.0161639
0.0161636
0.0161633
0.016163
0.0161627
0.0161624
0.0161621
0.0161618
0.0161615
0.0161612
0.0161609
0.0161606
0.0161603
0.01616
0.0161597
0.0161594
0.0161591
0.0161588
0.0161585
0.0161582
0.0161578
0.0161575
0.0161572
0.0161569
0.0161566
0.0161563
0.016156
0.0161557
0.0161554
0.0161551
0.0161548
0.0161545
0.0161542
0.0161539
0.0161536
0.0161533
0.016153
0.0161527
0.0161524
0.0161521
0.0161518
0.0161515
0.0161512
0.0161509
0.0161506
0.0161503
0.01615
0.0161497
0.0161494
0.016149
0.0161487
0.0161484
0.0161481
0.0161478
0.0161475
0.0161472
0.0161469
0.0161466
0.0161463
0.016146
0.0161457
0.0161454
0.0161451
0.0161448
0.0161445
0.0161442
0.0161439
0.0161436
0.0161433
0.016143
0.0161427
0.0161424
0.0161421
0.0161418
0.0161414
0.0161411
0.0161408
0.0161405
0.0161402
0.0161399
0.0161396
0.0161393
0.016139
0.0161386
0.0161383
0.016138
0.0161376
0.0161373
0.0161369
0.0161366
0.0161362
0.0161358
0.0161353
0.0161348
0.0161343
0.0161337
0.016133
0.0161323
0.0161311
0.0161308
0.0161308
0.0161308
1
0.969189
0.495614
0.31422
0.237893
0.197392
0.172129
0.154691
0.141837
0.131923
0.124022
0.117567
0.11219
0.107639
0.103735
0.100347
0.0973787
0.0947541
0.092415
0.0903154
0.0884184
0.0866943
0.0851186
0.0836714
0.0823361
0.0810988
0.0799479
0.0788735
0.0778673
0.0769222
0.0760319
0.0751913
0.0743956
0.073641
0.0729238
0.072241
0.0715899
0.070968
0.0703732
0.0698035
0.0692572
0.0687327
0.0682286
0.0677437
0.0672767
0.0668267
0.0663925
0.0659733
0.0655683
0.0651768
0.0647979
0.0644311
0.0640757
0.0637313
0.0633972
0.0630729
0.0627581
0.0624523
0.062155
0.0618659
0.0615847
0.061311
0.0610445
0.0607848
0.0605319
0.0602852
0.0600447
0.05981
0.059581
0.0593574
0.0591391
0.0589258
0.0587174
0.0585136
0.0583144
0.0581195
0.0579289
0.0577423
0.0575597
0.0573809
0.0572058
0.0570343
0.0568662
0.0567014
0.0565399
0.0563816
0.0562263
0.056074
0.0559246
0.0557779
0.055634
0.0554927
0.0553539
0.0552177
0.0550838
0.0549524
0.0548232
0.0546963
0.0545715
0.0544488
0.0543283
0.0542097
0.0540931
0.0539784
0.0538656
0.0537546
0.0536454
0.0535379
0.0534321
0.053328
0.0532255
0.0531246
0.0530252
0.0529274
0.052831
0.0527361
0.0526427
0.0525506
0.0524599
0.0523706
0.0522826
0.0521959
0.0521104
0.0520263
0.0519433
0.0518616
0.0517811
0.0517018
0.0516237
0.0515467
0.0514709
0.0513962
0.0513226
0.0512503
0.051179
0.0511088
0.0510398
0.050972
0.0509052
0.0508396
0.0507752
0.0507119
0.0506498
0.0505888
0.050529
0.0504704
0.0504129
0.0503567
0.0503017
0.0502478
0.0501952
0.0501437
0.0500934
0.0500444
0.0499965
0.0499498
0.0499042
0.0498598
0.0498166
0.0497745
0.0497334
0.0496935
0.0496546
0.0496168
0.04958
0.0495442
0.0495094
0.0494756
0.0494427
0.0494108
0.0493797
0.0493496
0.0493203
0.0492918
0.0492642
0.0492374
0.0492113
0.0491861
0.0491616
0.0491379
0.0491148
0.0490925
0.0490709
0.0490499
0.0490297
0.04901
0.0489911
0.0489727
0.0489549
0.0489378
0.0489212
0.0489052
0.0488897
0.0488748
0.0488604
0.0488465
0.0488332
0.0488203
0.0488079
0.048796
0.0487845
0.0487734
0.0487628
0.0487526
0.0487428
0.0487335
0.0487245
0.0487158
0.0487076
0.0486997
0.0486921
0.0486848
0.0486779
0.0486713
0.048665
0.048659
0.0486532
0.0486477
0.0486425
0.0486375
0.0486329
0.0486284
0.0486242
0.0486203
0.0486166
0.0486132
0.04861
0.0486071
0.0486044
0.0486019
0.0485996
0.0485976
0.0485957
0.0485939
0.0485924
0.0485909
0.0485896
0.0485883
0.0485871
0.048586
0.048585
0.0485839
0.048583
0.048582
0.0485811
0.0485801
0.0485792
0.0485783
0.0485774
0.0485765
0.0485756
0.0485747
0.0485738
0.0485729
0.048572
0.0485711
0.0485701
0.0485692
0.0485683
0.0485674
0.0485665
0.0485656
0.0485647
0.0485638
0.0485629
0.048562
0.0485611
0.0485602
0.0485593
0.0485584
0.0485575
0.0485566
0.0485557
0.0485548
0.0485539
0.048553
0.0485521
0.0485511
0.0485502
0.0485493
0.0485484
0.0485475
0.0485466
0.0485457
0.0485448
0.0485439
0.048543
0.0485421
0.0485412
0.0485403
0.0485394
0.0485385
0.0485376
0.0485367
0.0485358
0.0485348
0.0485339
0.048533
0.0485321
0.0485312
0.0485303
0.0485294
0.0485285
0.0485276
0.0485267
0.0485258
0.0485249
0.048524
0.0485231
0.0485222
0.0485213
0.0485204
0.0485195
0.0485186
0.0485176
0.0485167
0.0485158
0.0485149
0.048514
0.0485131
0.0485122
0.0485113
0.0485104
0.0485095
0.0485086
0.0485077
0.0485068
0.0485059
0.048505
0.0485041
0.0485032
0.0485022
0.0485013
0.0485004
0.0484995
0.0484986
0.0484977
0.0484968
0.0484959
0.048495
0.0484941