# vtk DataFile Version 2.0
FlowField
ASCII
DATASET STRUCTURED_GRID
DIMENSIONS 800 1 200
POINTS 160000 float
0 0 0
0.04 0 0
0.08 0 0
0.12 0 0
0.16 0 0
0.2 0 0
0.24 0 0
0.28 0 0
0.32 0 0
0.36 0 0
0.4 0 0
0.44 0 0
0.48 0 0
0.52 0 0
0.56 0 0
0.6 0 0
0.64 0 0
0.68 0 0
0.72 0 0
0.76 0 0
0.8 0 0
0.84 0 0
0.88 0 0
0.92 0 0
0.96 0 0
1 0 0
1.04 0 0
1.08 0 0
1.12 0 0
1.16 0 0
1.2 0 0
1.24 0 0
1.28 0 0
1.32 0 0
1.36 0 0
1.4 0 0
1.44 0 0
1.48 0 0
1.52 0 0
1.56 0 0
1.6 0 0
1.64 0 0
1.68 0 0
1.72 0 0
1.76 0 0
1.8 0 0
1.84 0 0
1.88 0 0
1.92 0 0
1.96 0 0
2 0 0
2.04 0 0
2.08 0 0
2.12 0 0
2.16 0 0
2.2 0 0
2.24 0 0
2.28 0 0
2.32 0 0
2.36 0 0
2.4 0 0
2.44 0 0
2.48 0 0
2.52 0 0
2.56 0 0
2.6 0 0
2.64 0 0
2.68 0 0
2.72 0 0
2.76 0 0
2.8 0 0
2.84 0 0
2.88 0 0
2.92 0 0
2.96 0 0
3 0 0
3.04 0 0
3.08 0 0
3.12 0 0
3.16 0 0
3.2 0 0
3.24 0 0
3.28 0 0
3.32 0 0
3.36 0 0
3.4 0 0
3.44 0 0
3.48 0 0
3.52 0 0
3.56 0 0
3.6 0 0
3.64 0 0
3.68 0 0
3.72 0 0
3.76 0 0
3.8 0 0
3.84 0 0
3.88 0 0
3.92 0 0
3.96 0 0
4 0 0
4.04 0 0
4.08 0 0
4.12 0 0
4.16 0 0
4.2 0 0
4.24 0 0
4.28 0 0
4.32 0 0
4.36 0 0
4.4 0 0
4.44 0 0
4.48 0 0
4.52 0 0
4.56 0 0
4.6 0 0
4.64 0 0
4.68 0 0
4.72 0 0
4.76 0 0
4.8 0 0
4.84 0 0
4.88 0 0
4.92 0 0
4.96 0 0
5 0 0
5.04 0 0
5.08 0 0
5.12 0 0
5.16 0 0
5.2 0 0
5.24 0 0
5.28 0 0
5.32 0 0
5.36 0 0
5.4 0 0
5.44 0 0
5.48 0 0
5.52 0 0
5.56 0 0
5.6 0 0
5.64 0 0
5.68 0 0
5.72 0 0
5.76 0 0
5.8 0 0
5.84 0 0
5.88 0 0
5.92 0 0
5.96 0 0
6 0 0
6.04 0 0
6.08 0 0
6.12 0 0
6.16 0 0
6.2 0 0
6.24 0 0
6.28 0 0
6.32 0 0
6.36 0 0
6.4 0 0
6.44 0 0
6.48 0 0
6.52 0 0
6.56 0 0
6.6 0 0
6.64 0 0
6.68 0 0
6.72 0 0
6.76 0 0
6.8 0 0
6.84 0 0
6.88 0 0
6.92 0 0
6.96 0 0
7 0 0
7.04 0 0
7.08 0 0
7.12 0 0
7.16 0 0
7.2 0 0
7.24 0 0
7.28 0 0
7.32 0 0
7.36 0 0
7.4 0 0
7.44 0 0
7.48 0 0
7.52 0 0
7.56 0 0
7.6 0 0
7.64 0 0
7.68 0 0
7.72 0 0
7.76 0 0
7.8 0 0
7.84 0 0
7.88 0 0
7.92 0 0
7.96 0 0
8 0 0
8.04 0 0
8.08 0 0
8.12 0 0
8.16 0 0
8.2 0 0
8.24 0 0
8.28 0 0
8.32 0 0
8.36 0 0
8.4 0 0
8.44 0 0
8.48 0 0
8.52 0 0
8.56 0 0
8.6 0 0
8.64 0 0
8.68 0 0
8.72 0 0
8.76 0 0
8.8 0 0
8.84 0 0
8.88 0 0
8.92 0 0
8.96 0 0
9 0 0
9.04 0 0
9.08 0 0
9.12 0 0
9.16 0 0
9.2 0 0
9.24 0 0
9.28 0 0
9.32 0 0
9.36 0 0
9.4 0 0
9.44 0 0
9.48 0 0
9.52 0 0
9.56 0 0
9.6 0 0
9.64 0 0
9.68 0 0
9.72 0 0
9.76 0 0
9.8 0 0
9.84 0 0
9.88 0 0
9.92 0 0
9.96 0 0
10 0 0
10.04 0 0
10.08 0 0
10.12 0 0
10.16 0 0
10.2 0 0
10.24 0 0
10.28 0 0
10.32 0 0
10.36 0 0
10.4 0 0
10.44 0 0
10.48 0 0
10.52 0 0
10.56 0 0
10.6 0 0
10.64 0 0
10.68 0 0
10.72 0 0
10.76 0 0
10.8 0 0
10.84 0 0
10.88 0 0
10.92 0 0
10.96 0 0
11 0 0
11.04 0 0
11.08 0 0
11.12 0 0
11.16 0 0
11.2 0 0
11.24 0 0
11.28 0 0
11.32 0 0
11.36 0 0
11.4 0 0
11.44 0 0
11.48 0 0
11.52 0 0
11.56 0 0
11.6 0 0
11.64 0 0
11.68 0 0
11.72 0 0
11.76 0 0
11.8 0 0
11.84 0 0
11.88 0 0
11.92 0 0
11.96 0 0
12 0 0
12.04 0 0
12.08 0 0
12.12 0 0
12.16 0 0
12.2 0 0
12.24 0 0
12.28 0 0
12.32 0 0
12.36 0 0
12.4 0 0
12.44 0 0
12.48 0 0
12.52 0 0
12.56 0 0
12.6 0 0
12.64 0 0
12.68 0 0
12.72 0 0
12.76 0 0
12.8 0 0
12.84 0 0
12.88 0 0
12.92 0 0
12.96 0 0
13 0 0
13.04 0 0
13.08 0 0
13.12 0 0
13.16 0 0
13.2 0 0
13.24 0 0
13.28 0 0
13.32 0 0
13.36 0 0
13.4 0 0
13.44 0 0
13.48 0 0
13.52 0 0
13.56 0 0
13.6 0 0
13.64 0 0
13.68 0 0
13.72 0 0
13.76 0 0
13.8 0 0
13.84 0 0
13.88 0 0
13.92 0 0
13.96 0 0
14 0 0
14.04 0 0
14.08 0 0
14.12 0 0
14.16 0 0
14.2 0 0
14.24 0 0
14.28 0 0
14.32 0 0
14.36 0 0
14.4 0 0
14.44 0 0
14.48 0 0
14.52 0 0
14.56 0 0
14.6 0 0
14.64 0 0
14.68 0 0
14.72 0 0
14.76 0 0
14.8 0 0
14.84 0 0
14.88 0 0
14.92 0 0
14.96 0 0
15 0 0
15.04 0 0
15.08 0 0
15.12 0 0
15.16 0 0
15.2 0 0
15.24 0 0
15.28 0 0
15.32 0 0
15.36 0 0
15.4 0 0
15.44 0 0
15.48 0 0
15.52 0 0
15.56 0 0
15.6 0 0
15.64 0 0
15.68 0 0
15.72 0 0
15.76 0 0
15.8 0 0
15.84 0 0
15.88 0 0
15.92 0 0
15.96 0 0
16 0 0
16.04 0 0
16.08 0 0
16.12 0 0
16.16 0 0
16.2 0 0
16.24 0 0
16.28 0 0
16.32 0 0
16.36 0 0
16.4 0 0
16.44 0 0
16.48 0 0
16.52 0 0
16.56 0 0
16.6 0 0
16.64 0 0
16.68 0 0
16.72 0 0
16.76 0 0
16.8 0 0
16.84 0 0
16.88 0 0
16.92 0 0
16.96 0 0
17 0 0
17.04 0 0
17.08 0 0
17.12 0 0
17.16 0 0
17.2 0 0
17.24 0 0
17.28 0 0
17.32 0 0
17.36 0 0
17.4 0 0
17.44 0 0
17.48 0 0
17.52 0 0
17.56 0 0
17.6 0 0
17.64 0 0
17.68 0 0
17.72 0 0
17.76 0 0
17.8 0 0
17.84 0 0
17.88 0 0
17.92 0 0
17.96 0 0
18 0 0
18.04 0 0
18.08 0 0
18.12 0 0
18.16 0 0
18.2 0 0
18.24 0 0
18.28 0 0
18.32 0 0
18.36 0 0
18.4 0 0
18.44 0 0
18.48 0 0
18.52 0 0
18.56 0 0
18.6 0 0
18.64 0 0
18.68 0 0
18.72 0 0
18.76 0 0
18.8 0 0
18.84 0 0
18.88 0 0
18.92 0 0
18.96 0 0
19 0 0
19.04 0 0
19.08 0 0
19.12 0 0
19.16 0 0
19.2 0 0
19.24 0 0
19.28 0 0
19.32 0 0
19.36 0 0
19.4 0 0
19.44 0 0
19.48 0 0
19.52 0 0
19.56 0 0
19.6 0 0
19.64 0 0
19.68 0 0
19.72 0 0
19.76 0 0
19.8 0 0
19.84 0 0
19.88 0 0
19.92 0 0
19.96 0 0
20 0 0
20.04 0 0
20.08 0 0
20.12 0 0
20.16 0 0
20.2 0 0
20.24 0 0
20.28 0 0
20.32 0 0
20.36 0 0
20.4 0 0
20.44 0 0
20.48 0 0
20.52 0 0
20.56 0 0
20.6 0 0
20.64 0 0
20.68 0 0
20.72 0 0
20.76 0 0
20.8 0 0
20.84 0 0
20.88 0 0
20.92 0 0
20.96 0 0
21 0 0
21.04 0 0
21.08 0 0
21.12 0 0
21.16 0 0
21.2 0 0
21.24 0 0
21.28 0 0
21.32 0 0
21.36 0 0
21.4 0 0
21.44 0 0
21.48 0 0
21.52 0 0
21.56 0 0
21.6 0 0
21.64 0 0
21.68 0 0
21.72 0 0
21.76 0 0
21.8 0 0
21.84 0 0
21.88 0 0
21.92 0 0
21.96 0 0
22 0 0
22.04 0 0
22.08 0 0
22.12 0 0
22.16 0 0
22.2 0 0
22.24 0 0
22.28 0 0
22.32 0 0
22.36 0 0
22.4 0 0
22.44 0 0
22.48 0 0
22.52 0 0
22.56 0 0
22.6 0 0
22.64 0 0
22.68 0 0
22.72 0 0
22.76 0 0
22.8 0 0
22.84 0 0
22.88 0 0
22.92 0 0
22.96 0 0
23 0 0
23.04 0 0
23.08 0 0
23.12 0 0
23.16 0 0
23.2 0 0
23.24 0 0
23.28 0 0
23.32 0 0
23.36 0 0
23.4 0 0
23.44 0 0
23.48 0 0
23.52 0 0
23.56 0 0
23.6 0 0
23.64 0 0
23.68 0 0
23.72 0 0
23.76 0 0
23.8 0 0
23.84 0 0
23.88 0 0
23.92 0 0
23.96 0 0
24 0 0
24.04 0 0
24.08 0 0
24.12 0 0
24.16 0 0
24.2 0 0
24.24 0 0
24.28 0 0
24.32 0 0
24.36 0 0
24.4 0 0
24.44 0 0
24.48 0 0
24.52 0 0
24.56 0 0
24.6 0 0
24.64 0 0
24.68 0 0
24.72 0 0
24.76 0 0
24.8 0 0
24.84 0 0
24.88 0 0
24.92 0 0
24.96 0 0
25 0 0
25.04 0 0
25.08 0 0
25.12 0 0
25.16 0 0
25.2 0 0
25.24 0 0
25.28 0 0
25.32 0 0
25.36 0 0
25.4 0 0
25.44 0 0
25.48 0 0
25.52 0 0
25.56 0 0
25.6 0 0
25.64 0 0
25.68 0 0
25.72 0 0
25.76 0 0
25.8 0 0
25.84 0 0
25.88 0 0
25.92 0 0
25.96 0 0
26 0 0
26.04 0 0
26.08 0 0
26.12 0 0
26.16 0 0
26.2 0 0
26.24 0 0
26.28 0 0
26.32 0 0
26.36 0 0
26.4 0 0
26.44 0 0
26.48 0 0
26.52 0 0
26.56 0 0
26.6 0 0
26.64 0 0
26.68 0 0
26.72 0 0
26.76 0 0
26.8 0 0
26.84 0 0
26.88 0 0
26.92 0 0
26.96 0 0
27 0 0
27.04 0 0
27.08 0 0
27.12 0 0
27.16 0 0
27.2 0 0
27.24 0 0
27.28 0 0
27.32 0 0
27.36 0 0
27.4 0 0
27.44 0 0
27.48 0 0
27.52 0 0
27.56 0 0
27.6 0 0
27.64 0 0
27.68 0 0
27.72 0 0
27.76 0 0
27.8 0 0
27.84 0 0
27.88 0 0
27.92 0 0
27.96 0 0
28 0 0
28.04 0 0
28.08 0 0
28.12 0 0
28.16 0 0
28.2 0 0
28.24 0 0
28.28 0 0
28.32 0 0
28.36 0 0
28.4 0 0
28.44 0 0
28.48 0 0
28.52 0 0
28.56 0 0
28.6 0 0
28.64 0 0
28.68 0 0
28.72 0 0
28.76 0 0
28.8 0 0
28.84 0 0
28.88 0 0
28.92 0 0
28.96 0 0
29 0 0
29.04 0 0
29.08 0 0
29.12 0 0
29.16 0 0
29.2 0 0
29.24 0 0
29.28 0 0
29.32 0 0
29.36 0 0
29.4 0 0
29.44 0 0
29.48 0 0
29.52 0 0
29.56 0 0
29.6 0 0
29.64 0 0
29.68 0 0
29.72 0 0
29.76 0 0
29.8 0 0
29.84 0 0
29.88 0 0
29.92 0 0
29.96 0 0
30 0 0
30.04 0 0
30.08 0 0
30.12 0 0
30.16 0 0
30.2 0 0
30.24 0 0
30.28 0 0
30.32 0 0
30.36 0 0
30.4 0 0
30.44 0 0
30.48 0 0
30.52 0 0
30.56 0 0
30.6 0 0
30.64 0 0
30.68 0 0
30.72 0 0
30.76 0 0
30.8 0 0
30.84 0 0
30.88 0 0
30.92 0 0
30.96 0 0
31 0 0
31.04 0 0
31.08 0 0
31.12 0 0
31.16 0 0
31.2 0 0
31.24 0 0
31.28 0 0
31.32 0 0
31.36 0 0
31.4 0 0
31.44 0 0
31.48 0 0
31.52 0 0
31.56 0 0
31.6 0 0
31.64 0 0
31.68 0 0
31.72 0 0
31.76 0 0
31.8 0 0
31.84 0 0
31.88 0 0
31.92 0 0
31.96 0 0
0 0.005 0
0.04 0.005 0
0.08 0.005 0
0.12 0.005 0
0.16 0.005 0
0.2 0.005 0
0.24 0.005 0
0.28 0.005 0
0.32 0.005 0
0.36 0.005 0
0.4 0.005 0
0.44 0.005 0
0.48 0.005 0
0.52 0.005 0
0.56 0.005 0
0.6 0.005 0
0.64 0.005 0
0.68 0.005 0
0.72 0.005 0
0.76 0.005 0
0.8 0.005 0
0.84 0.005 0
0.88 0.005 0
0.92 0.005 0
0.96 0.005 0
1 0.005 0
1.04 0.005 0
1.08 0.005 0
1.12 0.005 0
1.16 0.005 0
1.2 0.005 0
1.24 0.005 0
1.28 0.005 0
1.32 0.005 0
1.36 0.005 0
1.4 0.005 0
1.44 0.005 0
1.48 0.005 0
1.52 0.005 0
1.56 0.005 0
1.6 0.005 0
1.64 0.005 0
1.68 0.005 0
1.72 0.005 0
1.76 0.005 0
1.8 0.005 0
1.84 0.005 0
1.88 0.005 0
1.92 0.005 0
1.96 0.005 0
2 0.005 0
2.04 0.005 0
2.08 0.005 0
2.12 0.005 0
2.16 0.005 0
2.2 0.005 0
2.24 0.005 0
2.28 0.005 0
2.32 0.005 0
2.36 0.005 0
2.4 0.005 0
2.44 0.005 0
2.48 0.005 0
2.52 0.005 0
2.56 0.005 0
2.6 0.005 0
2.64 0.005 0
2.68 0.005 0
2.72 0.005 0
2.76 0.005 0
2.8 0.005 0
2.84 0.005 0
2.88 0.005 0
2.92 0.005 0
2.96 0.005 0
3 0.005 0
3.04 0.005 0
3.08 0.005 0
3.12 0.005 0
3.16 0.005 0
3.2 0.005 0
3.24 0.005 0
3.28 0.005 0
3.32 0.005 0
3.36 0.005 0
3.4 0.005 0
3.44 0.005 0
3.48 0.005 0
3.52 0.005 0
3.56 0.005 0
3.6 0.005 0
3.64 0.005 0
3.68 0.005 0
3.72 0.005 0
3.76 0.005 0
3.8 0.005 0
3.84 0.005 0
3.88 0.005 0
3.92 0.005 0
3.96 0.005 0
4 0.005 0
4.04 0.005 0
4.08 0.005 0
4.12 0.005 0
4.16 0.005 0
4.2 0.005 0
4.24 0.005 0
4.28 0.005 0
4.32 0.005 0
4.36 0.005 0
4.4 0.005 0
4.44 0.005 0
4.48 0.005 0
4.52 0.005 0
4.56 0.005 0
4.6 0.005 0
4.64 0.005 0
4.68 0.005 0
4.72 0.005 0
4.76 0.005 0
4.8 0.005 0
4.84 0.005 0
4.88 0.005 0
4.92 0.005 0
4.96 0.005 0
5 0.005 0
5.04 0.005 0
5.08 0.005 0
5.12 0.005 0
5.16 0.005 0
5.2 0.005 0
5.24 0.005 0
5.28 0.005 0
5.32 0.005 0
5.36 0.005 0
5.4 0.005 0
5.44 0.005 0
5.48 0.005 0
5.52 0.005 0
5.56 0.005 0
5.6 0.005 0
5.64 0.005 0
5.68 0.005 0
5.72 0.005 0
5.76 0.005 0
5.8 0.005 0
5.84 0.005 0
5.88 0.005 0
5.92 0.005 0
5.96 0.005 0
6 0.005 0
6.04 0.005 0
6.08 0.005 0
6.12 0.005 0
6.16 0.005 0
6.2 0.005 0
6.24 0.005 0
6.28 0.005 0
6.32 0.005 0
6.36 0.005 0
6.4 0.005 0
6.44 0.005 0
6.48 0.005 0
6.52 0.005 0
6.56 0.005 0
6.6 0.005 0
6.64 0.005 0
6.68 0.005 0
6.72 0.005 0
6.76 0.005 0
6.8 0.005 0
6.84 0.005 0
6.88 0.005 0
6.92 0.005 0
6.96 0.005 0
7 0.005 0
7.04 0.005 0
7.08 0.005 0
7.12 0.005 0
7.16 0.005 0
7.2 0.005 0
7.24 0.005 0
7.28 0.005 0
7.32 0.005 0
7.36 0.005 0
7.4 0.005 0
[...]
POINT_DATA 160000

SCALARS phi float 1
LOOKUP_TABLE default
1
1
1
1
1
1
1
1
1
1
1
1
1
1
1
1
1
1
1
1
1
1
1
1
1
1
1
1
1
1
1
1
1
1
1
0.999999
0.999999
0.999999
0.999999
0.999998
0.999997
0.999997
0.999995
0.999994
0.999992
0.99999
0.999988
0.999985
0.999982
0.999978
0.999973
0.999968
0.999961
0.999954
0.999946
0.999937
0.999926
0.999914
0.999901
0.999886
0.99987
0.999852
0.999832
0.99981
0.999786
0.99976
0.999731
0.9997
0.999667
0.999631
0.999592
0.99955
0.999505
0.999457
0.999406
0.999352
0.999294
0.999232
0.999167
0.999099
0.999026
0.998949
0.998869
0.998784
0.998695
0.998602
0.998504
0.998403
0.998296
0.998185
0.998069
0.997949
0.997824
0.997694
0.997559
0.997419
0.997275
0.997125
0.99697
0.99681
0.996645
0.996475
0.9963
0.996119
0.995933
0.995742
0.995546
0.995344
0.995137
0.994925
0.994707
0.994484
0.994256
0.994022
0.993783
0.993539
0.993289
0.993034
0.992774
0.992509
0.992238
0.991962
0.99168
0.991394
0.991102
0.990805
0.990502
0.990195
0.989883
0.989565
0.989242
0.988915
0.988582
0.988244
0.987901
0.987554
0.987201
0.986844
0.986482
0.986115
0.985743
0.985367
0.984986
0.984601
0.98421
0.983816
0.983416
0.983013
0.982604
0.982192
0.981775
0.981354
0.980928
0.980499
0.980065
0.979627
0.979185
0.978739
0.978289
0.977835
0.977377
0.976915
0.97645
0.975981
0.975508
0.975031
0.97455
0.974067
0.973579
0.973088
0.972594
0.972096
0.971595
0.97109
0.970582
0.970071
0.969557
0.96904
0.968519
0.967996
0.967469
0.96694
0.966407
0.965872
0.965334
0.964793
0.964249
0.963702
0.963153
0.962601
0.962047
0.96149
0.960931
0.960369
0.959804
0.959237
0.958668
0.958097
0.957523
0.956947
0.956369
0.955789
0.955206
0.954622
0.954035
0.953446
0.952856
0.952263
0.951669
0.951073
0.950474
0.949874
0.949273
0.948669
0.948064
0.947457
0.946849
0.946239
0.945627
0.945014
0.944399
0.943783
0.943165
0.942546
0.941926
0.941304
0.940681
0.940057
0.939431
0.938805
0.938177
0.937547
0.936917
0.936285
0.935653
0.935019
0.934385
0.933749
0.933112
0.932475
0.931836
0.931197
0.930557
0.929915
0.929273
0.928631
0.927987
0.927343
0.926698
0.926052
0.925405
0.924758
0.924111
0.923462
0.922813
0.922164
0.921514
0.920863
0.920212
0.91956
0.918908
0.918256
0.917603
0.91695
0.916296
0.915642
0.914987
0.914332
0.913677
0.913022
0.912366
0.91171
0.911054
0.910398
0.909741
0.909084
0.908427
0.90777
0.907113
0.906456
0.905798
0.905141
0.904483
0.903825
0.903168
0.90251
0.901852
0.901194
0.900536
0.899879
0.899221
0.898563
0.897905
0.897248
0.89659
0.895933
0.895276
0.894618
0.893961
0.893304
0.892648
0.891991
0.891335
0.890678
0.890022
0.889367
0.888711
0.888055
0.8874
0.886745
0.88609
0.885436
0.884782
0.884128
0.883474
0.882821
0.882167
0.881514
0.880862
0.880209
0.879557
0.878906
0.878254
0.877603
0.876952
0.876302
0.875651
0.875001
0.874352
0.873703
0.873054
0.872405
0.871756
0.871108
0.870461
0.869813
0.869166
0.868519
0.867872
0.867226
0.86658
0.865934
0.865289
0.864644
0.863999
0.863354
0.862709
0.862065
0.861421
0.860777
0.860134
0.859491
0.858847
0.858204
0.857561
0.856919
0.856276
0.855634
0.854992
0.854349
0.853707
0.853065
0.852423
0.851781
0.85114
0.850498
0.849856
0.849214
0.848572
0.84793
0.847288
0.846646
0.846004
0.845361
0.844719
0.844076
0.843433
0.84279
0.842146
0.841503
0.840859
0.840214
0.83957
0.838925
0.838279
0.837634
0.836987
0.836341
0.835694
0.835046
0.834398
0.833749
0.8331
0.83245
0.831799
0.831148
0.830496
0.829843
0.82919
0.828536
0.827881
0.827225
0.826568
0.82591
0.825252
0.824592
0.823931
0.82327
0.822607
0.821943
0.821279
0.820613
0.819945
0.819277
0.818607
0.817937
0.817264
0.816591
0.815916
0.81524
0.814562
0.813883
0.813202
0.81252
0.811837
0.811151
0.810464
0.809776
0.809086
0.808394
0.8077
0.807005
0.806308
0.805609
0.804908
0.804205
0.803501
0.802794
0.802086
0.801375
0.800663
0.799948
0.799231
0.798512
0.797792
0.797068
0.796343
0.795616
0.794886
0.794154
0.79342
0.792683
0.791944
0.791203
0.790459
0.789713
0.788964
0.788213
0.787459
0.786703
0.785944
0.785183
0.784419
0.783652
0.782883
0.782112
0.781337
0.78056
0.77978
0.778997
0.778212
0.777424
0.776633
0.775839
0.775042
0.774243
0.77344
0.772635
0.771827
0.771016
0.770202
0.769385
0.768565
0.767742
0.766916
0.766087
0.765255
0.76442
0.763582
0.762741
0.761897
0.76105
0.7602
0.759346
0.75849
0.75763
0.756768
0.755902
0.755033
0.754161
0.753285
0.752407
0.751525
0.75064
0.749752
0.748861
0.747967
0.747069
0.746168
0.745264
0.744357
0.743447
0.742533
0.741616
0.740696
0.739773
0.738847
0.737917
0.736984
0.736048
0.735109
0.734167
0.733221
0.732272
0.73132
0.730365
0.729406
0.728445
0.72748
0.726512
0.725541
0.724566
0.723589
0.722608
0.721624
0.720637
0.719647
0.718654
0.717657
0.716658
0.715655
0.71465
0.713641
0.712629
0.711614
0.710596
0.709575
0.708551
0.707524
0.706494
0.705461
0.704425
0.703386
0.702344
0.701299
0.700251
0.6992
0.698147
0.69709
0.696031
0.694968
0.693903
0.692835
0.691764
0.69069
0.689614
0.688535
0.687453
0.686368
0.68528
0.68419
0.683097
0.682002
0.680903
0.679803
0.678699
0.677593
0.676484
0.675373
0.674259
0.673143
0.672024
0.670903
0.669779
0.668652
0.667524
0.666393
0.665259
0.664123
0.662985
0.661844
0.660701
0.659556
0.658408
0.657259
0.656106
0.654952
0.653796
0.652637
0.651476
0.650314
0.649148
0.647981
0.646812
0.645641
0.644468
0.643293
0.642115
0.640936
0.639755
0.638572
0.637387
0.6362
0.635012
0.633821
0.632629
0.631435
0.630239
0.629041
0.627842
0.626641
0.625439
0.624234
0.623028
0.621821
0.620612
0.619401
0.618189
0.616975
0.61576
0.614544
0.613325
0.612106
0.610885
0.609663
0.608439
0.607214
0.605988
0.60476
0.603532
0.602302
0.60107
0.599838
0.598604
0.597369
0.596133
0.594896
0.593658
0.592419
0.591179
0.589938
0.588696
0.587452
0.586208
0.584963
0.583717
0.582471
0.581223
0.579974
0.578725
0.577475
0.576224
0.574972
0.57372
0.572467
0.571213
0.569958
0.568703
0.567448
0.566191
0.564934
0.563677
0.562419
0.56116
0.559901
0.558642
0.557382
0.556121
0.554861
0.553599
0.552338
0.551076
0.549814
0.548551
0.547288
0.546025
0.544762
0.543498
0.542234
0.54097
0.539706
0.538441
0.537177
0.535912
0.534647
0.533382
0.532118
0.530853
0.529588
0.528323
0.527058
0.525793
0.524528
0.523263
0.521998
0.520734
0.519469
0.518205
0.51694
0.515676
0.514412
0.513149
0.511885
0.510622
0.509359
0.508096
0.506834
0.505572
0.50431
0.503049
0.501787
0.500527
0.499266
0.498006
0.496747
0.495488
0.494229
0.492971
0.491713
0.490456
0.489199
0.487943
0.486687
0.485432
0.484178
0.482924
0.481671
0.480418
0.479166
0.477914
0.476663
0.475413
0.474164
0.472915
0.471667
0.470419
0.469173
0.467927
0.466682
0.465437
0.464194
0.462951
0.461709
0.460468
0.459227
0.457988
0.456749
0.455511
0.454275
0.453038
0.451803
0.450569
0.449336
0.448104
0.446872
0.445642
0.444412
0.443184
0.441956
0.44073
0.439504
0.43828
0.437056
0.435834
0.434612
0.433392
0.432173
0.430955
0.429738
0.428522
0.427307
0.426093
0.42488
0.423669
0.422459
0.421249
0.420041
0.418834
0.417629
0.416424
0.41522
0.414019
0.412817
0.411618
0.410418
0.409225
0.408026
0.406879
0.405822
0.405822
1
1
1
1
1
1
1
1
1
1
1
1
1
1
1
1
1
1
1
1
1
1
1
1
1
1
1
1
1
1
1
1
1
1
1
0.999999
0.999999
0.999999
0.999999
0.999998
0.999997
0.999997
0.999995
0.999994
0.999992
0.99999
0.999988
0.999985
0.999982
0.999978
0.999973
0.999968
0.999961
0.999954
0.999946
0.999937
0.999926
0.999914
0.999901
0.999886
0.99987
0.999852
0.999832
0.99981
0.999786
0.99976
0.999731
0.9997
0.999667
0.999631
0.999592
0.99955
0.999505
0.999457
0.999406
0.999352
0.999294
0.999232
0.999167
0.999099
0.999026
0.998949
0.998869
0.998784
0.998695
0.998602
0.998504
0.998403
0.998296
0.998185
0.998069
0.997949
0.997824
0.997694
0.997559
0.997419
0.997275
0.997125
0.99697
0.99681
0.996645
0.996475
0.9963
0.996119
0.995933
0.995742
0.995546
0.995344
0.995137
0.994925
0.994707
0.994484
0.994256
0.994022
0.993783
0.993539
0.993289
0.993034
0.992774
0.992509
0.992238
0.991962
0.99168
0.991394
0.991102
0.990805
0.990502
0.990195
0.989883
0.989565
0.989242
0.988915
0.988582
0.988244
0.987901
0.987554
0.987201
0.986844
0.986482
0.986115
0.985743
0.985367
0.984986
0.984601
0.98421
0.983816
0.983416
0.983013
0.982604
0.982192
0.981775
0.981354
0.980928
0.980499
0.980065
0.979627
0.979185
0.978739
0.978289
0.977835
0.977377
0.976915
0.97645
0.975981
0.975508
0.975031
0.97455
0.974067
0.973579
0.973088
0.972594
0.972096
0.971595
0.97109
0.970582
0.970071
0.969557
0.96904
0.968519
0.967996
0.967469
0.96694
0.966407
0.965872
0.965334
0.964793
0.964249
0.963702
0.963153
0.962601
0.962047
0.96149
0.960931
0.960369
0.959804
0.959237
0.958668
0.958097
0.957523
0.956947
0.956369
0.955789
0.955206
0.954622
0.954035
0.953446
0.952856
0.952263
0.951669
0.951073
0.950474
0.949874
0.949273
0.948669
0.948064
0.947457
0.946849
0.946239
0.945627
0.945014
0.944399
0.943783
0.943165
0.942546
0.941926
0.941304
0.940681
0.940057
0.939431
0.938805
0.938177
0.937547
0.936917
0.936285
0.935653
0.935019
0.934385
0.933749
0.933112
0.932475
0.931836
0.931197
0.930557
0.929915
0.929273
0.928631
0.927987
0.927343
0.926698
0.926052
0.925405
0.924758
0.924111
0.923462
0.922813
0.922164
0.921514
0.920863
0.920212
0.91956
0.918908
0.918256
0.917603
0.91695
0.916296
0.915642
0.914987
0.914332
0.913677
0.913022
0.912366
0.91171
0.911054
0.910398
0.909741
0.909084
0.908427
0.90777
0.907113
0.906456
0.905798
0.905141
0.904483
0.903825
0.903168
0.90251
0.901852
0.901194
0.900536
0.899879
0.899221
0.898563
0.897905
0.897248
0.89659
0.895933
0.895276
0.894618
0.893961
0.893304
0.892648
0.891991
0.891335
0.890678
0.890022
0.889367
0.888711
0.888055
0.8874
0.886745
0.88609
0.885436
0.884782
0.884128
0.883474
0.882821
0.882167
0.881514
0.880862
0.880209
0.879557
0.878906
0.878254
0.877603
0.876952
0.876302
0.875651
0.875001
0.874352
0.873703
0.873054
0.872405
0.871756
0.871108
0.870461
0.869813
0.869166
0.868519
0.867872
0.867226
0.86658
0.865934
0.865289
0.864644
0.863999
0.863354
0.862709
0.862065
0.861421
0.860777
0.860134
0.859491
0.858847
0.858204
0.857561
0.856919
0.856276
0.855634
0.854992
0.854349
0.853707
0.853065
0.852423
0.851781
0.85114
0.850498
0.849856
0.849214
0.848572
0.84793
0.847288
0.846646
0.846004
0.845361
0.844719
0.844076
0.843433
0.84279
0.842146
0.841503
0.840859
0.840214
0.83957
0.838925
0.838279
0.837634
0.836987
0.836341
0.835694
0.835046
0.834398
0.833749
0.8331
0.83245
0.831799
0.831148
0.830496
0.829843
0.82919
0.828536
0.827881
0.827225
0.826568
0.82591
0.825252
0.824592
0.823931
0.82327
0.822607
0.821943
0.821279
0.820613
0.819945
0.819277
0.818607
0.817937
0.817264
0.816591
0.815916
0.81524
0.814562
0.813883
0.813202
0.81252
0.811837
0.811151
0.810464
0.809776
0.809086
0.808394
0.8077
0.807005
0.806308
0.805609
0.804908
0.804205
0.803501
0.802794
0.802086
0.801375
0.800663
0.799948
0.799231
0.798512
0.797792
0.797068
0.796343
0.795616
0.794886
0.794154
0.79342
0.792683
0.791944
0.791203
0.790459
0.789713
0.788964
0.788213
0.787459
0.786703
0.785944
0.785183
0.784419
0.783652
0.782883
0.782112
0.781337
0.78056
0.77978
0.778997
0.778212
0.777424
0.776633
0.775839
0.775042
0.774243
0.77344
0.772635
0.771827
0.771016
0.770202
0.769385
0.768565
0.767742
0.766916
0.766087
0.765255
0.76442
0.763582
0.762741
0.761897
0.76105
0.7602
0.759346
0.75849
0.75763
0.756768
0.755902
0.755033
0.754161
0.753285
0.752407
0.751525
0.75064
0.749752
0.748861
0.747967
0.747069
0.746168
0.745264
0.744357
0.743447
0.742533
0.741616
0.740696
0.739773
0.738847
0.737917
0.736984
0.736048
0.735109
0.734167
0.733221
0.732272
0.73132
0.730365
0.729406
0.728445
0.72748
0.726512
0.725541
0.724566
0.723589
0.722608
0.721624
0.720637
0.719647
0.718654
0.717657
0.716658
0.715655
0.71465
0.713641
0.712629
0.711614
0.710596
0.709575
0.708551
0.707524
0.706494
0.705461
0.704425
0.703386
0.702344
0.701299
0.700251
0.6992
0.698147
0.69709
0.696031
0.694968
0.693903
0.692835
0.691764
0.69069
0.689614
0.688535
0.687453
0.686368
0.68528
0.68419
0.683097
0.682002
0.680903
0.679803
0.678699
0.677593
0.676484
0.675373
0.674259
0.673143
0.672024
0.670903
0.669779
0.668652
0.667524
0.666393
0.665259
0.664123
0.662985
0.661844
0.660701
0.659556
0.658408
0.657259
0.656106
0.654952
0.653796
0.652637
0.651476
0.650314
0.649148
0.647981
0.646812
0.645641
0.644468
0.643293
0.642115
0.640936
0.639755
0.638572
0.637387
0.6362
0.635012
0.633821
0.632629
0.631435
0.630239
0.629041
0.627842
0.626641
0.625439
0.624234
0.623028
0.621821
0.620612
0.619401
0.618189
0.616975
0.61576
0.614544
0.613325
0.612106
0.610885
0.609663
0.608439
0.607214
0.605988
0.60476
0.603532
0.602302
0.60107
0.599838
0.598604
0.597369
0.596133
0.594896
0.593658
0.592419
0.591179
0.589938
0.588696
0.587452
0.586208
0.584963
0.583717
0.582471
0.581223
0.579974
0.578725
0.577475
0.576224
0.574972
0.57372
0.572467
0.571213
0.569958
0.568703
0.567448
0.566191
0.564934
0.563677
0.562419
0.56116
0.559901
0.558642
0.557382
0.556121
0.554861
0.553599
0.552338
0.551076
0.549814
0.548551
0.547288
0.546025
0.544762
0.543498
0.542234
0.54097
0.539706
0.538441
0.537177
0.535912
0.534647
0.533382
0.532118
0.530853
0.529588
0.528323
0.527058
0.525793
0.524528
0.523263
0.521998
0.520734
0.519469
0.518205
0.51694
0.515676
0.514412
0.513149
0.511885
0.510622
0.509359
0.508096
0.506834
0.505572
0.50431
0.503049
0.501787
0.500527
0.499266
0.498006
0.496747
0.495488
0.494229
0.492971
0.491713
0.490456
0.489199
0.487943
0.486687
0.485432
0.484178
0.482924
0.481671
0.480418
0.479166
0.477914
0.476663
0.475413
0.474164
0.472915
0.471667
0.470419
0.469173
0.467927
0.466682
0.465437
0.464194
0.462951
0.461709
0.460468
0.459227
0.457988
0.456749
0.455511
0.454275
0.453038
0.451803
0.450569
0.449336
0.448104
0.446872
0.445642
0.444412
0.443184
0.441956
0.44073
0.439504
0.43828
0.437056
0.435834
0.434612
0.433392
0.432173
0.430955
0.429738
0.428522
0.427307
0.426093
0.42488
0.423669
0.422459
0.421249
0.420041
0.418834
0.417629
0.416424
0.41522
0.414019
0.412817
0.411618
0.410418
0.409225
0.408026
0.406879
0.405822
0.405822
1
1
1
1
1
1
1
1
1
1
1
1
1
1
1
1
1
1
1
1
1
1
1
1
1
1
1
1
1
1
1
1
1
1
1
0.999999
0.999999
0.999999
0.999999
0.999998
0.999997
0.999997
0.999995
0.999994
0.999992
0.99999
0.999988
0.999985
0.999982
0.999978
0.999973
0.999968
0.999961
0.999954
0.999946
0.999937
0.999926
0.999914
0.999901
0.999886
0.99987
0.999852
0.999832
0.99981
0.999786
0.99976
0.999731
0.9997
0.999667
0.999631
0.999592
0.99955
0.999505
0.999457
0.999406
0.999352
0.999294
0.999232
0.999167
0.999098
0.999026
0.998949
0.998869
0.998784
0.998695
0.998602
0.998504
0.998402
0.998296
0.998185
0.998069
0.997949
0.997824
0.997694
0.997559
0.997419
0.997274
0.997124
0.99697
0.99681
0.996645
0.996474
0.996299
0.996118
0.995933
0.995742
0.995545
0.995343
0.995136
0.994924
0.994706
0.994483
0.994255
0.994022
0.993783
0.993538
0.993289
0.993034
0.992773
0.992508
0.992237
0.991961
0.991679
0.991393
0.991101
0.990804
0.990501
0.990194
0.989882
0.989564
0.989241
0.988914
0.988581
0.988243
0.9879
0.987553
0.9872
0.986843
0.986481
0.986114
0.985742
0.985366
0.984985
0.984599
0.984209
0.983814
0.983415
0.983011
0.982603
0.982191
0.981774
0.981353
0.980927
0.980497
0.980064
0.979626
0.979184
0.978738
0.978288
0.977834
0.977376
0.976914
0.976448
0.975979
0.975506
0.975029
0.974549
0.974065
0.973578
0.973087
0.972592
0.972094
0.971593
0.971089
0.970581
0.97007
0.969555
0.969038
0.968518
0.967994
0.967467
0.966938
0.966405
0.96587
0.965332
0.964791
0.964247
0.963701
0.963152
0.9626
0.962045
0.961488
0.960929
0.960367
0.959803
0.959236
0.958667
0.958095
0.957521
0.956946
0.956367
0.955787
0.955205
0.95462
0.954033
0.953445
0.952854
0.952262
0.951667
0.951071
0.950473
0.949873
0.949271
0.948667
0.948062
0.947455
0.946847
0.946237
0.945625
0.945012
0.944397
0.943781
0.943164
0.942545
0.941924
0.941303
0.940679
0.940055
0.93943
0.938803
0.938175
0.937545
0.936915
0.936284
0.935651
0.935017
0.934383
0.933747
0.933111
0.932473
0.931834
0.931195
0.930555
0.929914
0.929272
0.928629
0.927985
0.927341
0.926696
0.92605
0.925404
0.924757
0.924109
0.92346
0.922811
0.922162
0.921512
0.920861
0.92021
0.919559
0.918906
0.918254
0.917601
0.916948
0.916294
0.91564
0.914985
0.914331
0.913675
0.91302
0.912364
0.911708
0.911052
0.910396
0.909739
0.909083
0.908426
0.907768
0.907111
0.906454
0.905796
0.905139
0.904481
0.903823
0.903166
0.902508
0.90185
0.901192
0.900534
0.899877
0.899219
0.898561
0.897904
0.897246
0.896588
0.895931
0.895274
0.894617
0.89396
0.893303
0.892646
0.891989
0.891333
0.890677
0.890021
0.889365
0.888709
0.888054
0.887398
0.886743
0.886089
0.885434
0.88478
0.884126
0.883472
0.882819
0.882166
0.881513
0.88086
0.880208
0.879556
0.878904
0.878252
0.877601
0.87695
0.8763
0.87565
0.875
0.87435
0.873701
0.873052
0.872403
0.871755
0.871107
0.870459
0.869812
0.869164
0.868517
0.867871
0.867225
0.866579
0.865933
0.865287
0.864642
0.863997
0.863353
0.862708
0.862064
0.86142
0.860776
0.860133
0.859489
0.858846
0.858203
0.857561
0.856918
0.856275
0.855633
0.854991
0.854349
0.853707
0.853065
0.852423
0.851781
0.851139
0.850497
0.849856
0.849214
0.848572
0.84793
0.847288
0.846646
0.846004
0.845361
0.844719
0.844076
0.843433
0.84279
0.842147
0.841503
0.840859
0.840215
0.839571
0.838926
0.838281
0.837635
0.836989
0.836342
0.835695
0.835048
0.8344
0.833751
0.833102
0.832452
0.831802
0.831151
0.830499
0.829846
0.829193
0.828539
0.827884
0.827228
0.826572
0.825914
0.825256
0.824596
0.823936
0.823275
0.822612
0.821949
0.821284
0.820618
0.819951
0.819283
0.818614
0.817943
0.817271
0.816598
0.815923
0.815247
0.81457
0.813891
0.81321
0.812528
0.811845
0.81116
0.810473
0.809785
0.809095
0.808404
0.80771
0.807015
0.806319
0.80562
0.804919
0.804217
0.803513
0.802806
0.802098
0.801388
0.800676
0.799962
0.799245
0.798527
0.797806
0.797083
0.796359
0.795631
0.794902
0.79417
0.793436
0.7927
0.791961
0.79122
0.790477
0.789731
0.788983
0.788232
0.787479
0.786723
0.785965
0.785204
0.784441
0.783674
0.782906
0.782134
0.78136
0.780584
0.779804
0.779022
0.778237
0.777449
0.776659
0.775865
0.775069
0.77427
0.773468
0.772663
0.771856
0.771045
0.770232
0.769415
0.768596
0.767773
0.766948
0.76612
0.765288
0.764454
0.763616
0.762776
0.761932
0.761086
0.760236
0.759383
0.758527
0.757668
0.756806
0.75594
0.755072
0.7542
0.753326
0.752448
0.751567
0.750682
0.749795
0.748904
0.74801
0.747113
0.746213
0.74531
0.744403
0.743493
0.74258
0.741664
0.740745
0.739822
0.738896
0.737967
0.737035
0.7361
0.735161
0.734219
0.733274
0.732326
0.731374
0.73042
0.729462
0.728501
0.727536
0.726569
0.725598
0.724625
0.723648
0.722668
0.721685
0.720698
0.719709
0.718716
0.71772
0.716722
0.71572
0.714715
0.713706
0.712695
0.711681
0.710664
0.709643
0.70862
0.707593
0.706564
0.705532
0.704496
0.703458
0.702416
0.701372
0.700325
0.699275
0.698222
0.697166
0.696107
0.695045
0.69398
0.692913
0.691843
0.69077
0.689694
0.688615
0.687534
0.68645
0.685363
0.684273
0.683181
0.682086
0.680988
0.679888
0.678785
0.67768
0.676572
0.675461
0.674348
0.673232
0.672114
0.670993
0.66987
0.668744
0.667616
0.666486
0.665353
0.664217
0.66308
0.66194
0.660797
0.659653
0.658506
0.657356
0.656205
0.655051
0.653896
0.652737
0.651577
0.650415
0.649251
0.648084
0.646916
0.645745
0.644572
0.643398
0.642221
0.641042
0.639862
0.638679
0.637495
0.636309
0.635121
0.633931
0.632739
0.631546
0.63035
0.629153
0.627955
0.626754
0.625552
0.624349
0.623143
0.621936
0.620728
0.619518
0.618306
0.617093
0.615878
0.614662
0.613445
0.612226
0.611005
0.609784
0.60856
0.607336
0.60611
0.604883
0.603655
0.602425
0.601195
0.599963
0.59873
0.597495
0.59626
0.595023
0.593786
0.592547
0.591307
0.590067
0.588825
0.587582
0.586339
0.585094
0.583849
0.582602
0.581355
0.580107
0.578858
0.577608
0.576358
0.575107
0.573855
0.572602
0.571349
0.570095
0.56884
0.567585
0.566329
0.565072
0.563815
0.562558
0.5613
0.560041
0.558782
0.557523
0.556263
0.555002
0.553741
0.55248
0.551219
0.549957
0.548695
0.547432
0.546169
0.544906
0.543643
0.54238
0.541116
0.539852
0.538588
0.537324
0.53606
0.534795
0.533531
0.532266
0.531002
0.529737
0.528472
0.527208
0.525943
0.524678
0.523414
0.52215
0.520885
0.519621
0.518357
0.517093
0.515829
0.514566
0.513302
0.512039
0.510776
0.509514
0.508251
0.506989
0.505727
0.504466
0.503205
0.501944
0.500683
0.499423