# vtk DataFile Version 2.0
FlowField
ASCII
DATASET STRUCTURED_GRID
DIMENSIONS 800 1 200
POINTS 160000 float
0 0 0
0.04 0 0
0.08 0 0
0.12 0 0
0.16 0 0
0.2 0 0
0.24 0 0
0.28 0 0
0.32 0 0
0.36 0 0
0.4 0 0
0.44 0 0
0.48 0 0
0.52 0 0
0.56 0 0
0.6 0 0
0.64 0 0
0.68 0 0
0.72 0 0
0.76 0 0
0.8 0 0
0.84 0 0
0.88 0 0
0.92 0 0
0.96 0 0
1 0 0
1.04 0 0
1.08 0 0
1.12 0 0
1.16 0 0
1.2 0 0
1.24 0 0
1.28 0 0
1.32 0 0
1.36 0 0
1.4 0 0
1.44 0 0
1.48 0 0
1.52 0 0
1.56 0 0
1.6 0 0
1.64 0 0
1.68 0 0
1.72 0 0
1.76 0 0
1.8 0 0
1.84 0 0
1.88 0 0
1.92 0 0
1.96 0 0
2 0 0
2.04 0 0
2.08 0 0
2.12 0 0
2.16 0 0
2.2 0 0
2.24 0 0
2.28 0 0
2.32 0 0
2.36 0 0
2.4 0 0
2.44 0 0
2.48 0 0
2.52 0 0
2.56 0 0
2.6 0 0
2.64 0 0
2.68 0 0
2.72 0 0
2.76 0 0
2.8 0 0
2.84 0 0
2.88 0 0
2.92 0 0
2.96 0 0
3 0 0
3.04 0 0
3.08 0 0
3.12 0 0
3.16 0 0
3.2 0 0
3.24 0 0
3.28 0 0
3.32 0 0
3.36 0 0
3.4 0 0
3.44 0 0
3.48 0 0
3.52 0 0
3.56 0 0
3.6 0 0
3.64 0 0
3.68 0 0
3.72 0 0
3.76 0 0
3.8 0 0
3.84 0 0
3.88 0 0
3.92 0 0
3.96 0 0
4 0 0
4.04 0 0
4.08 0 0
4.12 0 0
4.16 0 0
4.2 0 0
4.24 0 0
4.28 0 0
4.32 0 0
4.36 0 0
4.4 0 0
4.44 0 0
4.48 0 0
4.52 0 0
4.56 0 0
4.6 0 0
4.64 0 0
4.68 0 0
4.72 0 0
4.76 0 0
4.8 0 0
4.84 0 0
4.88 0 0
4.92 0 0
4.96 0 0
5 0 0
5.04 0 0
5.08 0 0
5.12 0 0
5.16 0 0
5.2 0 0
5.24 0 0
5.28 0 0
5.32 0 0
5.36 0 0
5.4 0 0
5.44 0 0
5.48 0 0
5.52 0 0
5.56 0 0
5.6 0 0
5.64 0 0
5.68 0 0
5.72 0 0
5.76 0 0
5.8 0 0
5.84 0 0
5.88 0 0
5.92 0 0
5.96 0 0
6 0 0
6.04 0 0
6.08 0 0
6.12 0 0
6.16 0 0
6.2 0 0
6.24 0 0
6.28 0 0
6.32 0 0
6.36 0 0
6.4 0 0
6.44 0 0
6.48 0 0
6.52 0 0
6.56 0 0
6.6 0 0
6.64 0 0
6.68 0 0
6.72 0 0
6.76 0 0
6.8 0 0
6.84 0 0
6.88 0 0
6.92 0 0
6.96 0 0
7 0 0
7.04 0 0
7.08 0 0
7.12 0 0
7.16 0 0
7.2 0 0
7.24 0 0
7.28 0 0
7.32 0 0
7.36 0 0
7.4 0 0
7.44 0 0
7.48 0 0
7.52 0 0
7.56 0 0
7.6 0 0
7.64 0 0
7.68 0 0
7.72 0 0
7.76 0 0
7.8 0 0
7.84 0 0
7.88 0 0
7.92 0 0
7.96 0 0
8 0 0
8.04 0 0
8.08 0 0
8.12 0 0
8.16 0 0
8.2 0 0
8.24 0 0
8.28 0 0
8.32 0 0
8.36 0 0
8.4 0 0
8.44 0 0
8.48 0 0
8.52 0 0
8.56 0 0
8.6 0 0
8.64 0 0
8.68 0 0
8.72 0 0
8.76 0 0
8.8 0 0
8.84 0 0
8.88 0 0
8.92 0 0
8.96 0 0
9 0 0
9.04 0 0
9.08 0 0
9.12 0 0
9.16 0 0
9.2 0 0
9.24 0 0
9.28 0 0
9.32 0 0
9.36 0 0
9.4 0 0
9.44 0 0
9.48 0 0
9.52 0 0
9.56 0 0
9.6 0 0
9.64 0 0
9.68 0 0
9.72 0 0
9.76 0 0
9.8 0 0
9.84 0 0
9.88 0 0
9.92 0 0
9.96 0 0
10 0 0
10.04 0 0
10.08 0 0
10.12 0 0
10.16 0 0
10.2 0 0
10.24 0 0
10.28 0 0
10.32 0 0
10.36 0 0
10.4 0 0
10.44 0 0
10.48 0 0
10.52 0 0
10.56 0 0
10.6 0 0
10.64 0 0
10.68 0 0
10.72 0 0
10.76 0 0
10.8 0 0
10.84 0 0
10.88 0 0
10.92 0 0
10.96 0 0
11 0 0
11.04 0 0
11.08 0 0
11.12 0 0
11.16 0 0
11.2 0 0
11.24 0 0
11.28 0 0
11.32 0 0
11.36 0 0
11.4 0 0
11.44 0 0
11.48 0 0
11.52 0 0
11.56 0 0
11.6 0 0
11.64 0 0
11.68 0 0
11.72 0 0
11.76 0 0
11.8 0 0
11.84 0 0
11.88 0 0
11.92 0 0
11.96 0 0
12 0 0
12.04 0 0
12.08 0 0
12.12 0 0
12.16 0 0
12.2 0 0
12.24 0 0
12.28 0 0
12.32 0 0
12.36 0 0
12.4 0 0
12.44 0 0
12.48 0 0
12.52 0 0
12.56 0 0
12.6 0 0
12.64 0 0
12.68 0 0
12.72 0 0
12.76 0 0
12.8 0 0
12.84 0 0
12.88 0 0
12.92 0 0
12.96 0 0
13 0 0
13.04 0 0
13.08 0 0
13.12 0 0
13.16 0 0
13.2 0 0
13.24 0 0
13.28 0 0
13.32 0 0
13.36 0 0
13.4 0 0
13.44 0 0
13.48 0 0
13.52 0 0
13.56 0 0
13.6 0 0
13.64 0 0
13.68 0 0
13.72 0 0
13.76 0 0
13.8 0 0
13.84 0 0
13.88 0 0
13.92 0 0
13.96 0 0
14 0 0
14.04 0 0
14.08 0 0
14.12 0 0
14.16 0 0
14.2 0 0
14.24 0 0
14.28 0 0
14.32 0 0
14.36 0 0
14.4 0 0
14.44 0 0
14.48 0 0
14.52 0 0
14.56 0 0
14.6 0 0
14.64 0 0
14.68 0 0
14.72 0 0
14.76 0 0
14.8 0 0
14.84 0 0
14.88 0 0
14.92 0 0
14.96 0 0
15 0 0
15.04 0 0
15.08 0 0
15.12 0 0
15.16 0 0
15.2 0 0
15.24 0 0
15.28 0 0
15.32 0 0
15.36 0 0
15.4 0 0
15.44 0 0
15.48 0 0
15.52 0 0
15.56 0 0
15.6 0 0
15.64 0 0
15.68 0 0
15.72 0 0
15.76 0 0
15.8 0 0
15.84 0 0
15.88 0 0
15.92 0 0
15.96 0 0
16 0 0
16.04 0 0
16.08 0 0
16.12 0 0
16.16 0 0
16.2 0 0
16.24 0 0
16.28 0 0
16.32 0 0
16.36 0 0
16.4 0 0
16.44 0 0
16.48 0 0
16.52 0 0
16.56 0 0
16.6 0 0
16.64 0 0
16.68 0 0
16.72 0 0
16.76 0 0
16.8 0 0
16.84 0 0
16.88 0 0
16.92 0 0
16.96 0 0
17 0 0
17.04 0 0
17.08 0 0
17.12 0 0
17.16 0 0
17.2 0 0
17.24 0 0
17.28 0 0
17.32 0 0
17.36 0 0
17.4 0 0
17.44 0 0
17.48 0 0
17.52 0 0
17.56 0 0
17.6 0 0
17.64 0 0
17.68 0 0
17.72 0 0
17.76 0 0
17.8 0 0
17.84 0 0
17.88 0 0
17.92 0 0
17.96 0 0
18 0 0
18.04 0 0
18.08 0 0
18.12 0 0
18.16 0 0
18.2 0 0
18.24 0 0
18.28 0 0
18.32 0 0
18.36 0 0
18.4 0 0
18.44 0 0
18.48 0 0
18.52 0 0
18.56 0 0
18.6 0 0
18.64 0 0
18.68 0 0
18.72 0 0
18.76 0 0
18.8 0 0
18.84 0 0
18.88 0 0
18.92 0 0
18.96 0 0
19 0 0
19.04 0 0
19.08 0 0
19.12 0 0
19.16 0 0
19.2 0 0
19.24 0 0
19.28 0 0
19.32 0 0
19.36 0 0
19.4 0 0
19.44 0 0
19.48 0 0
19.52 0 0
19.56 0 0
19.6 0 0
19.64 0 0
19.68 0 0
19.72 0 0
19.76 0 0
19.8 0 0
19.84 0 0
19.88 0 0
19.92 0 0
19.96 0 0
20 0 0
20.04 0 0
20.08 0 0
20.12 0 0
20.16 0 0
20.2 0 0
20.24 0 0
20.28 0 0
20.32 0 0
20.36 0 0
20.4 0 0
20.44 0 0
20.48 0 0
20.52 0 0
20.56 0 0
20.6 0 0
20.64 0 0
20.68 0 0
20.72 0 0
20.76 0 0
20.8 0 0
20.84 0 0
20.88 0 0
20.92 0 0
20.96 0 0
21 0 0
21.04 0 0
21.08 0 0
21.12 0 0
21.16 0 0
21.2 0 0
21.24 0 0
21.28 0 0
21.32 0 0
21.36 0 0
21.4 0 0
21.44 0 0
21.48 0 0
21.52 0 0
21.56 0 0
21.6 0 0
21.64 0 0
21.68 0 0
21.72 0 0
21.76 0 0
21.8 0 0
21.84 0 0
21.88 0 0
21.92 0 0
21.96 0 0
22 0 0
22.04 0 0
22.08 0 0
22.12 0 0
22.16 0 0
22.2 0 0
22.24 0 0
22.28 0 0
22.32 0 0
22.36 0 0
22.4 0 0
22.44 0 0
22.48 0 0
22.52 0 0
22.56 0 0
22.6 0 0
22.64 0 0
22.68 0 0
22.72 0 0
22.76 0 0
22.8 0 0
22.84 0 0
22.88 0 0
22.92 0 0
22.96 0 0
23 0 0
23.04 0 0
23.08 0 0
23.12 0 0
23.16 0 0
23.2 0 0
23.24 0 0
23.28 0 0
23.32 0 0
23.36 0 0
23.4 0 0
23.44 0 0
23.48 0 0
23.52 0 0
23.56 0 0
23.6 0 0
23.64 0 0
23.68 0 0
23.72 0 0
23.76 0 0
23.8 0 0
23.84 0 0
23.88 0 0
23.92 0 0
23.96 0 0
24 0 0
24.04 0 0
24.08 0 0
24.12 0 0
24.16 0 0
24.2 0 0
24.24 0 0
24.28 0 0
24.32 0 0
24.36 0 0
24.4 0 0
24.44 0 0
24.48 0 0
24.52 0 0
24.56 0 0
24.6 0 0
24.64 0 0
24.68 0 0
24.72 0 0
24.76 0 0
24.8 0 0
24.84 0 0
24.88 0 0
24.92 0 0
24.96 0 0
25 0 0
25.04 0 0
25.08 0 0
25.12 0 0
25.16 0 0
25.2 0 0
25.24 0 0
25.28 0 0
25.32 0 0
25.36 0 0
25.4 0 0
25.44 0 0
25.48 0 0
25.52 0 0
25.56 0 0
25.6 0 0
25.64 0 0
25.68 0 0
25.72 0 0
25.76 0 0
25.8 0 0
25.84 0 0
25.88 0 0
25.92 0 0
25.96 0 0
26 0 0
26.04 0 0
26.08 0 0
26.12 0 0
26.16 0 0
26.2 0 0
26.24 0 0
26.28 0 0
26.32 0 0
26.36 0 0
26.4 0 0
26.44 0 0
26.48 0 0
26.52 0 0
26.56 0 0
26.6 0 0
26.64 0 0
26.68 0 0
26.72 0 0
26.76 0 0
26.8 0 0
26.84 0 0
26.88 0 0
26.92 0 0
26.96 0 0
27 0 0
27.04 0 0
27.08 0 0
27.12 0 0
27.16 0 0
27.2 0 0
27.24 0 0
27.28 0 0
27.32 0 0
27.36 0 0
27.4 0 0
27.44 0 0
27.48 0 0
27.52 0 0
27.56 0 0
27.6 0 0
27.64 0 0
27.68 0 0
27.72 0 0
27.76 0 0
27.8 0 0
27.84 0 0
27.88 0 0
27.92 0 0
27.96 0 0
28 0 0
28.04 0 0
28.08 0 0
28.12 0 0
28.16 0 0
28.2 0 0
28.24 0 0
28.28 0 0
28.32 0 0
28.36 0 0
28.4 0 0
28.44 0 0
28.48 0 0
28.52 0 0
28.56 0 0
28.6 0 0
28.64 0 0
28.68 0 0
28.72 0 0
28.76 0 0
28.8 0 0
28.84 0 0
28.88 0 0
28.92 0 0
28.96 0 0
29 0 0
29.04 0 0
29.08 0 0
29.12 0 0
29.16 0 0
29.2 0 0
29.24 0 0
29.28 0 0
29.32 0 0
29.36 0 0
29.4 0 0
29.44 0 0
29.48 0 0
29.52 0 0
29.56 0 0
29.6 0 0
29.64 0 0
29.68 0 0
29.72 0 0
29.76 0 0
29.8 0 0
29.84 0 0
29.88 0 0
29.92 0 0
29.96 0 0
30 0 0
30.04 0 0
30.08 0 0
30.12 0 0
30.16 0 0
30.2 0 0
30.24 0 0
30.28 0 0
30.32 0 0
30.36 0 0
30.4 0 0
30.44 0 0
30.48 0 0
30.52 0 0
30.56 0 0
30.6 0 0
30.64 0 0
30.68 0 0
30.72 0 0
30.76 0 0
30.8 0 0
30.84 0 0
30.88 0 0
30.92 0 0
30.96 0 0
31 0 0
31.04 0 0
31.08 0 0
31.12 0 0
31.16 0 0
31.2 0 0
31.24 0 0
31.28 0 0
31.32 0 0
31.36 0 0
31.4 0 0
31.44 0 0
31.48 0 0
31.52 0 0
31.56 0 0
31.6 0 0
31.64 0 0
31.68 0 0
31.72 0 0
31.76 0 0
31.8 0 0
31.84 0 0
31.88 0 0
31.92 0 0
31.96 0 0
0 0.005 0
0.04 0.005 0
0.08 0.005 0
0.12 0.005 0
0.16 0.005 0
0.2 0.005 0
0.24 0.005 0
0.28 0.005 0
0.32 0.005 0
0.36 0.005 0
0.4 0.005 0
0.44 0.005 0
0.48 0.005 0
0.52 0.005 0
0.56 0.005 0
0.6 0.005 0
0.64 0.005 0
0.68 0.005 0
0.72 0.005 0
0.76 0.005 0
0.8 0.005 0
0.84 0.005 0
0.88 0.005 0
0.92 0.005 0
0.96 0.005 0
1 0.005 0
1.04 0.005 0
1.08 0.005 0
1.12 0.005 0
1.16 0.005 0
1.2 0.005 0
1.24 0.005 0
1.28 0.005 0
1.32 0.005 0
1.36 0.005 0
1.4 0.005 0
1.44 0.005 0
1.48 0.005 0
1.52 0.005 0
1.56 0.005 0
1.6 0.005 0
1.64 0.005 0
1.68 0.005 0
1.72 0.005 0
1.76 0.005 0
1.8 0.005 0
1.84 0.005 0
1.88 0.005 0
1.92 0.005 0
1.96 0.005 0
2 0.005 0
2.04 0.005 0
2.08 0.005 0
2.12 0.005 0
2.16 0.005 0
2.2 0.005 0
2.24 0.005 0
2.28 0.005 0
2.32 0.005 0
2.36 0.005 0
2.4 0.005 0
2.44 0.005 0
2.48 0.005 0
2.52 0.005 0
2.56 0.005 0
2.6 0.005 0
2.64 0.005 0
2.68 0.005 0
2.72 0.005 0
2.76 0.005 0
2.8 0.005 0
2.84 0.005 0
2.88 0.005 0
2.92 0.005 0
2.96 0.005 0
3 0.005 0
3.04 0.005 0
3.08 0.005 0
3.12 0.005 0
3.16 0.005 0
3.2 0.005 0
3.24 0.005 0
3.28 0.005 0
3.32 0.005 0
3.36 0.005 0
3.4 0.005 0
3.44 0.005 0
3.48 0.005 0
3.52 0.005 0
3.56 0.005 0
3.6 0.005 0
3.64 0.005 0
3.68 0.005 0
3.72 0.005 0
3.76 0.005 0
3.8 0.005 0
3.84 0.005 0
3.88 0.005 0
3.92 0.005 0
3.96 0.005 0
4 0.005 0
4.04 0.005 0
4.08 0.005 0
4.12 0.005 0
4.16 0.005 0
4.2 0.005 0
4.24 0.005 0
4.28 0.005 0
4.32 0.005 0
4.36 0.005 0
4.4 0.005 0
4.44 0.005 0
4.48 0.005 0
4.52 0.005 0
4.56 0.005 0
4.6 0.005 0
4.64 0.005 0
4.68 0.005 0
4.72 0.005 0
4.76 0.005 0
4.8 0.005 0
4.84 0.005 0
4.88 0.005 0
4.92 0.005 0
4.96 0.005 0
5 0.005 0
5.04 0.005 0
5.08 0.005 0
5.12 0.005 0
5.16 0.005 0
5.2 0.005 0
5.24 0.005 0
5.28 0.005 0
5.32 0.005 0
5.36 0.005 0
5.4 0.005 0
5.44 0.005 0
5.48 0.005 0
5.52 0.005 0
5.56 0.005 0
5.6 0.005 0
5.64 0.005 0
5.68 0.005 0
5.72 0.005 0
5.76 0.005 0
5.8 0.005 0
5.84 0.005 0
5.88 0.005 0
5.92 0.005 0
5.96 0.005 0
6 0.005 0
6.04 0.005 0
6.08 0.005 0
6.12 0.005 0
6.16 0.005 0
6.2 0.005 0
6.24 0.005 0
6.28 0.005 0
6.32 0.005 0
6.36 0.005 0
6.4 0.005 0
6.44 0.005 0
6.48 0.005 0
6.52 0.005 0
6.56 0.005 0
6.6 0.005 0
6.64 0.005 0
6.68 0.005 0
6.72 0.005 0
6.76 0.005 0
6.8 0.005 0
6.84 0.005 0
6.88 0.005 0
6.92 0.005 0
6.96 0.005 0
7 0.005 0
7.04 0.005 0
7.08 0.005 0
7.12 0.005 0
7.16 0.005 0
7.2 0.005 0
7.24 0.005 0
7.28 0.005 0
7.32 0.005 0
7.36 0.005 0
7.4 0.005 0
[...]
POINT_DATA 160000

SCALARS u float 1
LOOKUP_TABLE default
-1
-0.483358
-0.183963
-0.108845
-0.081033
-0.0668337
-0.0581181
-0.0521527
-0.0477774
-0.0444145
-0.0417412
-0.0395614
-0.0377482
-0.0362153
-0.0349015
-0.0337624
-0.0327647
-0.031883
-0.0310974
-0.0303923
-0.0297553
-0.0291763
-0.0286472
-0.0281611
-0.0277125
-0.0272968
-0.0269099
-0.0265487
-0.0262104
-0.0258925
-0.0255929
-0.02531
-0.0250421
-0.024788
-0.0245465
-0.0243165
-0.024097
-0.0238874
-0.0236869
-0.0234948
-0.0233106
-0.0231337
-0.0229637
-0.0228001
-0.0226425
-0.0224907
-0.0223441
-0.0222026
-0.0220659
-0.0219337
-0.0218058
-0.021682
-0.021562
-0.0214457
-0.0213328
-0.0212233
-0.021117
-0.0210137
-0.0209133
-0.0208156
-0.0207206
-0.0206281
-0.0205381
-0.0204504
-0.0203649
-0.0202815
-0.0202003
-0.020121
-0.0200436
-0.019968
-0.0198942
-0.0198221
-0.0197517
-0.0196828
-0.0196155
-0.0195496
-0.0194852
-0.0194221
-0.0193604
-0.0192999
-0.0192407
-0.0191828
-0.0191259
-0.0190702
-0.0190156
-0.0189621
-0.0189096
-0.0188581
-0.0188076
-0.018758
-0.0187093
-0.0186615
-0.0186146
-0.0185685
-0.0185232
-0.0184788
-0.0184351
-0.0183921
-0.0183499
-0.0183084
-0.0182676
-0.0182275
-0.0181881
-0.0181492
-0.0181111
-0.0180735
-0.0180365
-0.0180001
-0.0179643
-0.017929
-0.0178943
-0.0178601
-0.0178265
-0.0177933
-0.0177606
-0.0177284
-0.0176967
-0.0176655
-0.0176347
-0.0176043
-0.0175744
-0.0175449
-0.0175159
-0.0174872
-0.0174589
-0.017431
-0.0174036
-0.0173764
-0.0173497
-0.0173233
-0.0172973
-0.0172716
-0.0172462
-0.0172212
-0.0171965
-0.0171722
-0.0171481
-0.0171244
-0.0171009
-0.0170778
-0.017055
-0.0170324
-0.0170101
-0.0169881
-0.0169664
-0.016945
-0.0169238
-0.0169029
-0.0168822
-0.0168618
-0.0168416
-0.0168217
-0.016802
-0.0167825
-0.0167633
-0.0167443
-0.0167255
-0.0167069
-0.0166886
-0.0166705
-0.0166526
-0.0166349
-0.0166174
-0.0166
-0.0165829
-0.016566
-0.0165493
-0.0165328
-0.0165164
-0.0165003
-0.0164843
-0.0164685
-0.0164529
-0.0164374
-0.0164221
-0.016407
-0.0163921
-0.0163773
-0.0163627
-0.0163482
-0.0163339
-0.0163198
-0.0163058
-0.0162919
-0.0162782
-0.0162647
-0.0162513
-0.016238
-0.0162249
-0.0162119
-0.0161991
-0.0161864
-0.0161738
-0.0161614
-0.0161491
-0.0161369
-0.0161248
-0.0161129
-0.0161011
-0.0160894
-0.0160779
-0.0160664
-0.0160551
-0.0160439
-0.0160328
-0.0160219
-0.016011
-0.0160003
-0.0159896
-0.0159791
-0.0159687
-0.0159584
-0.0159482
-0.0159381
-0.0159281
-0.0159182
-0.0159084
-0.0158987
-0.0158891
-0.0158796
-0.0158702
-0.0158609
-0.0158516
-0.0158425
-0.0158335
-0.0158245
-0.0158157
-0.0158069
-0.0157982
-0.0157896
-0.0157811
-0.0157727
-0.0157644
-0.0157561
-0.015748
-0.0157399
-0.0157318
-0.0157239
-0.0157161
-0.0157083
-0.0157006
-0.015693
-0.0156854
-0.0156779
-0.0156705
-0.0156632
-0.0156559
-0.0156488
-0.0156416
-0.0156346
-0.0156276
-0.0156207
-0.0156139
-0.0156071
-0.0156004
-0.0155937
-0.0155872
-0.0155806
-0.0155742
-0.0155678
-0.0155615
-0.0155552
-0.015549
-0.0155429
-0.0155368
-0.0155307
-0.0155248
-0.0155189
-0.015513
-0.0155072
-0.0155015
-0.0154958
-0.0154901
-0.0154846
-0.015479
-0.0154736
-0.0154681
-0.0154628
-0.0154575
-0.0154522
-0.015447
-0.0154418
-0.0154367
-0.0154316
-0.0154266
-0.0154216
-0.0154167
-0.0154118
-0.015407
-0.0154022
-0.0153975
-0.0153928
-0.0153881
-0.0153835
-0.0153789
-0.0153744
-0.0153699
-0.0153655
-0.0153611
-0.0153568
-0.0153524
-0.0153482
-0.0153439
-0.0153397
-0.0153356
-0.0153315
-0.0153274
-0.0153234
-0.0153194
-0.0153154
-0.0153115
-0.0153076
-0.0153037
-0.0152999
-0.0152961
-0.0152924
-0.0152887
-0.015285
-0.0152813
-0.0152777
-0.0152742
-0.0152706
-0.0152671
-0.0152636
-0.0152602
-0.0152568
-0.0152534
-0.01525
-0.0152467
-0.0152434
-0.0152402
-0.0152369
-0.0152337
-0.0152305
-0.0152274
-0.0152243
-0.0152212
-0.0152181
-0.0152151
-0.0152121
-0.0152091
-0.0152062
-0.0152033
-0.0152004
-0.0151975
-0.0151946
-0.0151918
-0.015189
-0.0151863
-0.0151835
-0.0151808
-0.0151781
-0.0151754
-0.0151728
-0.0151702
-0.0151676
-0.015165
-0.0151624
-0.0151599
-0.0151574
-0.0151549
-0.0151525
-0.01515
-0.0151476
-0.0151452
-0.0151429
-0.0151405
-0.0151382
-0.0151359
-0.0151336
-0.0151313
-0.0151291
-0.0151269
-0.0151247
-0.0151225
-0.0151204
-0.0151182
-0.0151161
-0.015114
-0.0151119
-0.0151099
-0.0151079
-0.0151058
-0.0151039
-0.0151019
-0.0150999
-0.015098
-0.0150961
-0.0150942
-0.0150923
-0.0150905
-0.0150886
-0.0150868
-0.015085
-0.0150833
-0.0150815
-0.0150798
-0.0150781
-0.0150764
-0.0150747
-0.0150731
-0.0150714
-0.0150698
-0.0150682
-0.0150666
-0.0150651
-0.0150635
-0.015062
-0.0150605
-0.015059
-0.0150576
-0.0150561
-0.0150547
-0.0150533
-0.0150519
-0.0150505
-0.0150492
-0.0150478
-0.0150465
-0.0150452
-0.015044
-0.0150427
-0.0150414
-0.0150402
-0.015039
-0.0150378
-0.0150366
-0.0150355
-0.0150344
-0.0150332
-0.0150321
-0.015031
-0.01503
-0.0150289
-0.0150279
-0.0150268
-0.0150258
-0.0150248
-0.0150239
-0.0150229
-0.015022
-0.015021
-0.0150201
-0.0150192
-0.0150183
-0.0150175
-0.0150166
-0.0150158
-0.0150149
-0.0150141
-0.0150133
-0.0150125
-0.0150118
-0.015011
-0.0150102
-0.0150095
-0.0150088
-0.0150081
-0.0150074
-0.0150067
-0.015006
-0.0150053
-0.0150047
-0.015004
-0.0150034
-0.0150028
-0.0150022
-0.0150016
-0.015001
-0.0150004
-0.0149998
-0.0149993
-0.0149987
-0.0149982
-0.0149976
-0.0149971
-0.0149966
-0.014996
-0.0149955
-0.014995
-0.0149946
-0.0149941
-0.0149936
-0.0149931
-0.0149927
-0.0149922
-0.0149918
-0.0149913
-0.0149909
-0.0149904
-0.01499
-0.0149896
-0.0149892
-0.0149888
-0.0149884
-0.014988
-0.0149876
-0.0149872
-0.0149868
-0.0149864
-0.014986
-0.0149857
-0.0149853
-0.0149849
-0.0149845
-0.0149842
-0.0149838
-0.0149835
-0.0149831
-0.0149828
-0.0149824
-0.0149821
-0.0149817
-0.0149814
-0.014981
-0.0149807
-0.0149804
-0.01498
-0.0149797
-0.0149794
-0.014979
-0.0149787
-0.0149784
-0.0149781
-0.0149777
-0.0149774
-0.0149771
-0.0149768
-0.0149765
-0.0149761
-0.0149758
-0.0149755
-0.0149752
-0.0149749
-0.0149746
-0.0149742
-0.0149739
-0.0149736
-0.0149733
-0.014973
-0.0149727
-0.0149724
-0.0149721
-0.0149718
-0.0149714
-0.0149711
-0.0149708
-0.0149705
-0.0149702
-0.0149699
-0.0149696
-0.0149693
-0.014969
-0.0149687
-0.0149684
-0.014968
-0.0149677
-0.0149674
-0.0149671
-0.0149668
-0.0149665
-0.0149662
-0.0149659
-0.0149656
-0.0149653
-0.014965
-0.0149647
-0.0149643
-0.014964
-0.0149637
-0.0149634
-0.0149631
-0.0149628
-0.0149625
-0.0149622
-0.0149619
-0.0149616
-0.0149613
-0.014961
-0.0149607
-0.0149603
-0.01496
-0.0149597
-0.0149594
-0.0149591
-0.0149588
-0.0149585
-0.0149582
-0.0149579
-0.0149576
-0.0149573
-0.014957
-0.0149566
-0.0149563
-0.014956
-0.0149557
-0.0149554
-0.0149551
-0.0149548
-0.0149545
-0.0149542
-0.0149539
-0.0149536
-0.0149533
-0.014953
-0.0149526
-0.0149523
-0.014952
-0.0149517
-0.0149514
-0.0149511
-0.0149508
-0.0149505
-0.0149502
-0.0149499
-0.0149496
-0.0149493
-0.014949
-0.0149486
-0.0149483
-0.014948
-0.0149477
-0.0149474
-0.0149471
-0.0149468
-0.0149465
-0.0149462
-0.0149459
-0.0149456
-0.0149453
-0.0149449
-0.0149446
-0.0149443
-0.014944
-0.0149437
-0.0149434
-0.0149431
-0.0149428
-0.0149425
-0.0149422
-0.0149419
-0.0149416
-0.0149413
-0.0149409
-0.0149406
-0.0149403
-0.01494
-0.0149397
-0.0149394
-0.0149391
-0.0149388
-0.0149385
-0.0149382
-0.0149379
-0.0149376
-0.0149373
-0.0149369
-0.0149366
-0.0149363
-0.014936
-0.0149357
-0.0149354
-0.0149351
-0.0149348
-0.0149345
-0.0149342
-0.0149339
-0.0149336
-0.0149332
-0.0149329
-0.0149326
-0.0149323
-0.014932
-0.0149317
-0.0149314
-0.0149311
-0.0149308
-0.0149305
-0.0149302
-0.0149299
-0.0149296
-0.0149292
-0.0149289
-0.0149286
-0.0149283
-0.014928
-0.0149277
-0.0149274
-0.0149271
-0.0149268
-0.0149265
-0.0149262
-0.0149259
-0.0149256
-0.0149252
-0.0149249
-0.0149246
-0.0149243
-0.014924
-0.0149237
-0.0149234
-0.0149231
-0.0149228
-0.0149225
-0.0149222
-0.0149219
-0.0149215
-0.0149212
-0.0149209
-0.0149206
-0.0149203
-0.01492
-0.0149197
-0.0149194
-0.0149191
-0.0149188
-0.0149185
-0.0149182
-0.0149179
-0.0149175
-0.0149172
-0.0149169
-0.0149166
-0.0149163
-0.014916
-0.0149157
-0.0149154
-0.0149151
-0.0149148
-0.0149145
-0.0149142
-0.0149139
-0.0149135
-0.0149132
-0.0149129
-0.0149126
-0.0149123
-0.014912
-0.0149117
-0.0149114
-0.0149111
-0.0149108
-0.0149105
-0.0149102
-0.0149099
-0.0149095
-0.0149092
-0.0149089
-0.0149086
-0.0149083
-0.014908
-0.0149077
-0.0149074
-0.0149071
-0.0149068
-0.0149065
-0.0149062
-0.0149058
-0.0149055
-0.0149052
-0.0149049
-0.0149046
-0.0149043
-0.014904
-0.0149037
-0.0149034
-0.0149031
-0.0149028
-0.0149025
-0.0149022
-0.0149018
-0.0149015
-0.0149012
-0.0149009
-0.0149006
-0.0149003
-0.0149
-0.0148997
-0.0148994
-0.014899
-0.0148987
-0.0148984
-0.0148981
-0.0148978
-0.0148974
-0.0148971
-0.0148967
-0.0148964
-0.014896
-0.0148956
-0.0148952
-0.0148947
-0.0148942
-0.0148937
-0.014893
-0.0148924
-0.0148914
-0.014891
-0.014891
-0.014891
1
0.483358
0.183963
0.108845
0.081033
0.0668337
0.0581181
0.0521527
0.0477774
0.0444145
0.0417412
0.0395614
0.0377482
0.0362153
0.0349015
0.0337624
0.0327647
0.031883
0.0310974
0.0303923
0.0297553
0.0291763
0.0286472
0.0281611
0.0277125
0.0272968
0.0269099
0.0265487
0.0262104
0.0258925
0.0255929
0.02531
0.0250421
0.024788
0.0245465
0.0243165
0.024097
0.0238874
0.0236869
0.0234948
0.0233106
0.0231337
0.0229637
0.0228001
0.0226425
0.0224907
0.0223441
0.0222026
0.0220659
0.0219337
0.0218058
0.021682
0.021562
0.0214457
0.0213328
0.0212233
0.021117
0.0210137
0.0209133
0.0208156
0.0207206
0.0206281
0.0205381
0.0204504
0.0203649
0.0202815
0.0202003
0.020121
0.0200436
0.019968
0.0198942
0.0198221
0.0197517
0.0196828
0.0196155
0.0195496
0.0194852
0.0194221
0.0193604
0.0192999
0.0192407
0.0191828
0.0191259
0.0190702
0.0190156
0.0189621
0.0189096
0.0188581
0.0188076
0.018758
0.0187093
0.0186615
0.0186146
0.0185685
0.0185232
0.0184788
0.0184351
0.0183921
0.0183499
0.0183084
0.0182676
0.0182275
0.0181881
0.0181492
0.0181111
0.0180735
0.0180365
0.0180001
0.0179643
0.017929
0.0178943
0.0178601
0.0178265
0.0177933
0.0177606
0.0177284
0.0176967
0.0176655
0.0176347
0.0176043
0.0175744
0.0175449
0.0175159
0.0174872
0.0174589
0.017431
0.0174036
0.0173764
0.0173497
0.0173233
0.0172973
0.0172716
0.0172462
0.0172212
0.0171965
0.0171722
0.0171481
0.0171244
0.0171009
0.0170778
0.017055
0.0170324
0.0170101
0.0169881
0.0169664
0.016945
0.0169238
0.0169029
0.0168822
0.0168618
0.0168416
0.0168217
0.016802
0.0167825
0.0167633
0.0167443
0.0167255
0.0167069
0.0166886
0.0166705
0.0166526
0.0166349
0.0166174
0.0166
0.0165829
0.016566
0.0165493
0.0165328
0.0165164
0.0165003
0.0164843
0.0164685
0.0164529
0.0164374
0.0164221
0.016407
0.0163921
0.0163773
0.0163627
0.0163482
0.0163339
0.0163198
0.0163058
0.0162919
0.0162782
0.0162647
0.0162513
0.016238
0.0162249
0.0162119
0.0161991
0.0161864
0.0161738
0.0161614
0.0161491
0.0161369
0.0161248
0.0161129
0.0161011
0.0160894
0.0160779
0.0160664
0.0160551
0.0160439
0.0160328
0.0160219
0.016011
0.0160003
0.0159896
0.0159791
0.0159687
0.0159584
0.0159482
0.0159381
0.0159281
0.0159182
0.0159084
0.0158987
0.0158891
0.0158796
0.0158702
0.0158609
0.0158516
0.0158425
0.0158335
0.0158245
0.0158157
0.0158069
0.0157982
0.0157896
0.0157811
0.0157727
0.0157644
0.0157561
0.015748
0.0157399
0.0157318
0.0157239
0.0157161
0.0157083
0.0157006
0.015693
0.0156854
0.0156779
0.0156705
0.0156632
0.0156559
0.0156488
0.0156416
0.0156346
0.0156276
0.0156207
0.0156139
0.0156071
0.0156004
0.0155937
0.0155872
0.0155806
0.0155742
0.0155678
0.0155615
0.0155552
0.015549
0.0155429
0.0155368
0.0155307
0.0155248
0.0155189
0.015513
0.0155072
0.0155015
0.0154958
0.0154901
0.0154846
0.015479
0.0154736
0.0154681
0.0154628
0.0154575
0.0154522
0.015447
0.0154418
0.0154367
0.0154316
0.0154266
0.0154216
0.0154167
0.0154118
0.015407
0.0154022
0.0153975
0.0153928
0.0153881
0.0153835
0.0153789
0.0153744
0.0153699
0.0153655
0.0153611
0.0153568
0.0153524
0.0153482
0.0153439
0.0153397
0.0153356
0.0153315
0.0153274
0.0153234
0.0153194
0.0153154
0.0153115
0.0153076
0.0153037
0.0152999
0.0152961
0.0152924
0.0152887
0.015285
0.0152813
0.0152777
0.0152742
0.0152706
0.0152671
0.0152636
0.0152602
0.0152568
0.0152534
0.01525
0.0152467
0.0152434
0.0152402
0.0152369
0.0152337
0.0152305
0.0152274
0.0152243
0.0152212
0.0152181
0.0152151
0.0152121
0.0152091
0.0152062
0.0152033
0.0152004
0.0151975
0.0151946
0.0151918
0.015189
0.0151863
0.0151835
0.0151808
0.0151781
0.0151754
0.0151728
0.0151702
0.0151676
0.015165
0.0151624
0.0151599
0.0151574
0.0151549
0.0151525
0.01515
0.0151476
0.0151452
0.0151429
0.0151405
0.0151382
0.0151359
0.0151336
0.0151313
0.0151291
0.0151269
0.0151247
0.0151225
0.0151204
0.0151182
0.0151161
0.015114
0.0151119
0.0151099
0.0151079
0.0151058
0.0151039
0.0151019
0.0150999
0.015098
0.0150961
0.0150942
0.0150923
0.0150905
0.0150886
0.0150868
0.015085
0.0150833
0.0150815
0.0150798
0.0150781
0.0150764
0.0150747
0.0150731
0.0150714
0.0150698
0.0150682
0.0150666
0.0150651
0.0150635
0.015062
0.0150605
0.015059
0.0150576
0.0150561
0.0150547
0.0150533
0.0150519
0.0150505
0.0150492
0.0150478
0.0150465
0.0150452
0.015044
0.0150427
0.0150414
0.0150402
0.015039
0.0150378
0.0150366
0.0150355
0.0150344
0.0150332
0.0150321
0.015031
0.01503
0.0150289
0.0150279
0.0150268
0.0150258
0.0150248
0.0150239
0.0150229
0.015022
0.015021
0.0150201
0.0150192
0.0150183
0.0150175
0.0150166
0.0150158
0.0150149
0.0150141
0.0150133
0.0150125
0.0150118
0.015011
0.0150102
0.0150095
0.0150088
0.0150081
0.0150074
0.0150067
0.015006
0.0150053
0.0150047
0.015004
0.0150034
0.0150028
0.0150022
0.0150016
0.015001
0.0150004
0.0149998
0.0149993
0.0149987
0.0149982
0.0149976
0.0149971
0.0149966
0.014996
0.0149955
0.014995
0.0149946
0.0149941
0.0149936
0.0149931
0.0149927
0.0149922
0.0149918
0.0149913
0.0149909
0.0149904
0.01499
0.0149896
0.0149892
0.0149888
0.0149884
0.014988
0.0149876
0.0149872
0.0149868
0.0149864
0.014986
0.0149857
0.0149853
0.0149849
0.0149845
0.0149842
0.0149838
0.0149835
0.0149831
0.0149828
0.0149824
0.0149821
0.0149817
0.0149814
0.014981
0.0149807
0.0149804
0.01498
0.0149797
0.0149794
0.014979
0.0149787
0.0149784
0.0149781
0.0149777
0.0149774
0.0149771
0.0149768
0.0149765
0.0149761
0.0149758
0.0149755
0.0149752
0.0149749
0.0149746
0.0149742
0.0149739
0.0149736
0.0149733
0.014973
0.0149727
0.0149724
0.0149721
0.0149718
0.0149714
0.0149711
0.0149708
0.0149705
0.0149702
0.0149699
0.0149696
0.0149693
0.014969
0.0149687
0.0149684
0.014968
0.0149677
0.0149674
0.0149671
0.0149668
0.0149665
0.0149662
0.0149659
0.0149656
0.0149653
0.014965
0.0149647
0.0149643
0.014964
0.0149637
0.0149634
0.0149631
0.0149628
0.0149625
0.0149622
0.0149619
0.0149616
0.0149613
0.014961
0.0149607
0.0149603
0.01496
0.0149597
0.0149594
0.0149591
0.0149588
0.0149585
0.0149582
0.0149579
0.0149576
0.0149573
0.014957
0.0149566
0.0149563
0.014956
0.0149557
0.0149554
0.0149551
0.0149548
0.0149545
0.0149542
0.0149539
0.0149536
0.0149533
0.014953
0.0149526
0.0149523
0.014952
0.0149517
0.0149514
0.0149511
0.0149508
0.0149505
0.0149502
0.0149499
0.0149496
0.0149493
0.014949
0.0149486
0.0149483
0.014948
0.0149477
0.0149474
0.0149471
0.0149468
0.0149465
0.0149462
0.0149459
0.0149456
0.0149453
0.0149449
0.0149446
0.0149443
0.014944
0.0149437
0.0149434
0.0149431
0.0149428
0.0149425
0.0149422
0.0149419
0.0149416
0.0149413
0.0149409
0.0149406
0.0149403
0.01494
0.0149397
0.0149394
0.0149391
0.0149388
0.0149385
0.0149382
0.0149379
0.0149376
0.0149373
0.0149369
0.0149366
0.0149363
0.014936
0.0149357
0.0149354
0.0149351
0.0149348
0.0149345
0.0149342
0.0149339
0.0149336
0.0149332
0.0149329
0.0149326
0.0149323
0.014932
0.0149317
0.0149314
0.0149311
0.0149308
0.0149305
0.0149302
0.0149299
0.0149296
0.0149292
0.0149289
0.0149286
0.0149283
0.014928
0.0149277
0.0149274
0.0149271
0.0149268
0.0149265
0.0149262
0.0149259
0.0149256
0.0149252
0.0149249
0.0149246
0.0149243
0.014924
0.0149237
0.0149234
0.0149231
0.0149228
0.0149225
0.0149222
0.0149219
0.0149215
0.0149212
0.0149209
0.0149206
0.0149203
0.01492
0.0149197
0.0149194
0.0149191
0.0149188
0.0149185
0.0149182
0.0149179
0.0149175
0.0149172
0.0149169
0.0149166
0.0149163
0.014916
0.0149157
0.0149154
0.0149151
0.0149148
0.0149145
0.0149142
0.0149139
0.0149135
0.0149132
0.0149129
0.0149126
0.0149123
0.014912
0.0149117
0.0149114
0.0149111
0.0149108
0.0149105
0.0149102
0.0149099
0.0149095
0.0149092
0.0149089
0.0149086
0.0149083
0.014908
0.0149077
0.0149074
0.0149071
0.0149068
0.0149065
0.0149062
0.0149058
0.0149055
0.0149052
0.0149049
0.0149046
0.0149043
0.014904
0.0149037
0.0149034
0.0149031
0.0149028
0.0149025
0.0149022
0.0149018
0.0149015
0.0149012
0.0149009
0.0149006
0.0149003
0.0149
0.0148997
0.0148994
0.014899
0.0148987
0.0148984
0.0148981
0.0148978
0.0148974
0.0148971
0.0148967
0.0148964
0.014896
0.0148956
0.0148952
0.0148947
0.0148942
0.0148937
0.014893
0.0148924
0.0148914
0.014891
0.014891
0.014891
1
0.969192
0.495616
0.314223
0.237897
0.197396
0.172133
0.154696
0.141842
0.131928
0.124028
0.117573
0.112197
0.107646
0.103742
0.100355
0.0973865
0.0947621
0.0924233
0.0903239
0.0884272
0.0867033
0.0851279
0.0836809
0.0823458
0.0811087
0.079958
0.0788839
0.0778779
0.076933
0.0760429
0.0752025
0.074407
0.0736525
0.0729355
0.0722529
0.071602
0.0709803
0.0703856
0.0698161
0.0692699
0.0687456
0.0682417
0.067757
0.0672902
0.0668402
0.0664062
0.0659872
0.0655824
0.0651909
0.0648122
0.0644456
0.0640904
0.063746
0.0634121
0.063088
0.0627733
0.0624676
0.0621704
0.0618815
0.0616004
0.0613268
0.0610604
0.0608009
0.060548
0.0603015
0.0600611
0.0598266
0.0595977
0.0593742
0.059156
0.0589428
0.0587345
0.0585308
0.0583317
0.058137
0.0579464
0.05776
0.0575775
0.0573988
0.0572238
0.0570523
0.0568843
0.0567197
0.0565583
0.0564
0.0562448
0.0560926
0.0559432
0.0557967
0.0556528
0.0555116
0.0553729
0.0552367
0.055103
0.0549715
0.0548424
0.0547155
0.0545908
0.0544682
0.0543477
0.0542291
0.0541125
0.0539978
0.053885
0.053774
0.0536648
0.0535573
0.0534514
0.0533473
0.0532447
0.0531437
0.0530442
0.0529462
0.0528497
0.0527547
0.052661
0.0525687
0.0524778
0.0523881
0.0522998
0.0522126
0.0521268
0.0520421
0.0519586
0.0518763
0.0517951
0.051715
0.051636
0.0515581
0.0514812
0.0514054
0.0513305
0.0512567
0.0511838
0.0511118
0.0510408
0.0509707
0.0509015
0.0508332
0.0507658
0.0506992
0.0506334
0.0505685
0.0505044
0.0504411
0.0503785
0.0503167
0.0502557
0.0501954
0.0501359
0.050077
0.0500189
0.0499615
0.0499047
0.0498486
0.0497932
0.0497384
0.0496843
0.0496308
0.0495779
0.0495256
0.049474
0.0494229
0.0493724
0.0493225
0.0492732
0.0492244
0.0491761
0.0491285
0.0490813
0.0490347
0.0489886
0.048943
0.0488979
0.0488533
0.0488092
0.0487656
0.0487224
0.0486797
0.0486375
0.0485958
0.0485545
0.0485136
0.0484732
0.0484333
0.0483937
0.0483546
0.0483159
0.0482776
0.0482397
0.0482022
0.0481652
0.0481285
0.0480921
0.0480562
0.0480207
0.0479855
0.0479507
0.0479162
0.0478822
0.0478484
0.047815
0.047782
0.0477493
0.047717
0.0476849
0.0476532
0.0476219
0.0475908
0.0475601
0.0475297
0.0474996
0.0474698
0.0474403
0.0474111
0.0473822
0.0473536
0.0473253
0.0472972
0.0472695
0.047242
0.0472148
0.0471879
0.0471613
0.0471349
0.0471088
0.0470829
0.0470573
0.047032
0.0470069
0.0469821
0.0469575
0.0469331
0.046909
0.0468852
0.0468615
0.0468381
0.046815
0.046792
0.0467693
0.0467468
0.0467246
0.0467025
0.0466807
0.0466591
0.0466377
0.0466165
0.0465955
0.0465747
0.0465542
0.0465338
0.0465136
0.0464936
0.0464739
0.0464543
0.0464349
0.0464156
0.0463966
0.0463778
0.0463591
0.0463406
0.0463223
0.0463042
0.0462863
0.0462685
0.0462509
0.0462335
0.0462162
0.0461991
0.0461822
0.0461654
0.0461488
0.0461323
0.046116
0.0460999
0.0460839
0.0460681
0.0460524
0.0460369
0.0460215
0.0460062
0.0459912
0.0459762
0.0459614
0.0459467
0.0459322
0.0459178
0.0459036
0.0458895
0.0458755
0.0458616
0.0458479
0.0458343
0.0458209
0.0458075
0.0457943
0.0457812
0.0457683
0.0457554
0.0457427
0.0457301
0.0457176
0.0457053
0.045693
0.0456809
0.0456689
0.045657
0.0456452
0.0456335
0.0456219
0.0456104
0.0455991
0.0455878
0.0455767
0.0455656
0.0455547
0.0455438
0.0455331
0.0455224
0.0455119
0.0455014
0.0454911
0.0454808
0.0454706
0.0454606
0.0454506
0.0454407
0.0454309
0.0454212
0.0454116
0.045402
0.0453926
0.0453832
0.045374
0.0453648
0.0453557
0.0453467
0.0453377
0.0453289
0.0453201
0.0453114