# vtk DataFile Version 2.0
FlowField
ASCII
DATASET STRUCTURED_GRID
DIMENSIONS 800 1 200
POINTS 160000 float
0 0 0
0.04 0 0
0.08 0 0
0.12 0 0
0.16 0 0
0.2 0 0
0.24 0 0
0.28 0 0
0.32 0 0
0.36 0 0
0.4 0 0
0.44 0 0
0.48 0 0
0.52 0 0
0.56 0 0
0.6 0 0
0.64 0 0
0.68 0 0
0.72 0 0
0.76 0 0
0.8 0 0
0.84 0 0
0.88 0 0
0.92 0 0
0.96 0 0
1 0 0
1.04 0 0
1.08 0 0
1.12 0 0
1.16 0 0
1.2 0 0
1.24 0 0
1.28 0 0
1.32 0 0
1.36 0 0
1.4 0 0
1.44 0 0
1.48 0 0
1.52 0 0
1.56 0 0
1.6 0 0
1.64 0 0
1.68 0 0
1.72 0 0
1.76 0 0
1.8 0 0
1.84 0 0
1.88 0 0
1.92 0 0
1.96 0 0
2 0 0
2.04 0 0
2.08 0 0
2.12 0 0
2.16 0 0
2.2 0 0
2.24 0 0
2.28 0 0
2.32 0 0
2.36 0 0
2.4 0 0
2.44 0 0
2.48 0 0
2.52 0 0
2.56 0 0
2.6 0 0
2.64 0 0
2.68 0 0
2.72 0 0
2.76 0 0
2.8 0 0
2.84 0 0
2.88 0 0
2.92 0 0
2.96 0 0
3 0 0
3.04 0 0
3.08 0 0
3.12 0 0
3.16 0 0
3.2 0 0
3.24 0 0
3.28 0 0
3.32 0 0
3.36 0 0
3.4 0 0
3.44 0 0
3.48 0 0
3.52 0 0
3.56 0 0
3.6 0 0
3.64 0 0
3.68 0 0
3.72 0 0
3.76 0 0
3.8 0 0
3.84 0 0
3.88 0 0
3.92 0 0
3.96 0 0
4 0 0
4.04 0 0
4.08 0 0
4.12 0 0
4.16 0 0
4.2 0 0
4.24 0 0
4.28 0 0
4.32 0 0
4.36 0 0
4.4 0 0
4.44 0 0
4.48 0 0
4.52 0 0
4.56 0 0
4.6 0 0
4.64 0 0
4.68 0 0
4.72 0 0
4.76 0 0
4.8 0 0
4.84 0 0
4.88 0 0
4.92 0 0
4.96 0 0
5 0 0
5.04 0 0
5.08 0 0
5.12 0 0
5.16 0 0
5.2 0 0
5.24 0 0
5.28 0 0
5.32 0 0
5.36 0 0
5.4 0 0
5.44 0 0
5.48 0 0
5.52 0 0
5.56 0 0
5.6 0 0
5.64 0 0
5.68 0 0
5.72 0 0
5.76 0 0
5.8 0 0
5.84 0 0
5.88 0 0
5.92 0 0
5.96 0 0
6 0 0
6.04 0 0
6.08 0 0
6.12 0 0
6.16 0 0
6.2 0 0
6.24 0 0
6.28 0 0
6.32 0 0
6.36 0 0
6.4 0 0
6.44 0 0
6.48 0 0
6.52 0 0
6.56 0 0
6.6 0 0
6.64 0 0
6.68 0 0
6.72 0 0
6.76 0 0
6.8 0 0
6.84 0 0
6.88 0 0
6.92 0 0
6.96 0 0
7 0 0
7.04 0 0
7.08 0 0
7.12 0 0
7.16 0 0
7.2 0 0
7.24 0 0
7.28 0 0
7.32 0 0
7.36 0 0
7.4 0 0
7.44 0 0
7.48 0 0
7.52 0 0
7.56 0 0
7.6 0 0
7.64 0 0
7.68 0 0
7.72 0 0
7.76 0 0
7.8 0 0
7.84 0 0
7.88 0 0
7.92 0 0
7.96 0 0
8 0 0
8.04 0 0
8.08 0 0
8.12 0 0
8.16 0 0
8.2 0 0
8.24 0 0
8.28 0 0
8.32 0 0
8.36 0 0
8.4 0 0
8.44 0 0
8.48 0 0
8.52 0 0
8.56 0 0
8.6 0 0
8.64 0 0
8.68 0 0
8.72 0 0
8.76 0 0
8.8 0 0
8.84 0 0
8.88 0 0
8.92 0 0
8.96 0 0
9 0 0
9.04 0 0
9.08 0 0
9.12 0 0
9.16 0 0
9.2 0 0
9.24 0 0
9.28 0 0
9.32 0 0
9.36 0 0
9.4 0 0
9.44 0 0
9.48 0 0
9.52 0 0
9.56 0 0
9.6 0 0
9.64 0 0
9.68 0 0
9.72 0 0
9.76 0 0
9.8 0 0
9.84 0 0
9.88 0 0
9.92 0 0
9.96 0 0
10 0 0
10.04 0 0
10.08 0 0
10.12 0 0
10.16 0 0
10.2 0 0
10.24 0 0
10.28 0 0
10.32 0 0
10.36 0 0
10.4 0 0
10.44 0 0
10.48 0 0
10.52 0 0
10.56 0 0
10.6 0 0
10.64 0 0
10.68 0 0
10.72 0 0
10.76 0 0
10.8 0 0
10.84 0 0
10.88 0 0
10.92 0 0
10.96 0 0
11 0 0
11.04 0 0
11.08 0 0
11.12 0 0
11.16 0 0
11.2 0 0
11.24 0 0
11.28 0 0
11.32 0 0
11.36 0 0
11.4 0 0
11.44 0 0
11.48 0 0
11.52 0 0
11.56 0 0
11.6 0 0
11.64 0 0
11.68 0 0
11.72 0 0
11.76 0 0
11.8 0 0
11.84 0 0
11.88 0 0
11.92 0 0
11.96 0 0
12 0 0
12.04 0 0
12.08 0 0
12.12 0 0
12.16 0 0
12.2 0 0
12.24 0 0
12.28 0 0
12.32 0 0
12.36 0 0
12.4 0 0
12.44 0 0
12.48 0 0
12.52 0 0
12.56 0 0
12.6 0 0
12.64 0 0
12.68 0 0
12.72 0 0
12.76 0 0
12.8 0 0
12.84 0 0
12.88 0 0
12.92 0 0
12.96 0 0
13 0 0
13.04 0 0
13.08 0 0
13.12 0 0
13.16 0 0
13.2 0 0
13.24 0 0
13.28 0 0
13.32 0 0
13.36 0 0
13.4 0 0
13.44 0 0
13.48 0 0
13.52 0 0
13.56 0 0
13.6 0 0
13.64 0 0
13.68 0 0
13.72 0 0
13.76 0 0
13.8 0 0
13.84 0 0
13.88 0 0
13.92 0 0
13.96 0 0
14 0 0
14.04 0 0
14.08 0 0
14.12 0 0
14.16 0 0
14.2 0 0
14.24 0 0
14.28 0 0
14.32 0 0
14.36 0 0
14.4 0 0
14.44 0 0
14.48 0 0
14.52 0 0
14.56 0 0
14.6 0 0
14.64 0 0
14.68 0 0
14.72 0 0
14.76 0 0
14.8 0 0
14.84 0 0
14.88 0 0
14.92 0 0
14.96 0 0
15 0 0
15.04 0 0
15.08 0 0
15.12 0 0
15.16 0 0
15.2 0 0
15.24 0 0
15.28 0 0
15.32 0 0
15.36 0 0
15.4 0 0
15.44 0 0
15.48 0 0
15.52 0 0
15.56 0 0
15.6 0 0
15.64 0 0
15.68 0 0
15.72 0 0
15.76 0 0
15.8 0 0
15.84 0 0
15.88 0 0
15.92 0 0
15.96 0 0
16 0 0
16.04 0 0
16.08 0 0
16.12 0 0
16.16 0 0
16.2 0 0
16.24 0 0
16.28 0 0
16.32 0 0
16.36 0 0
16.4 0 0
16.44 0 0
16.48 0 0
16.52 0 0
16.56 0 0
16.6 0 0
16.64 0 0
16.68 0 0
16.72 0 0
16.76 0 0
16.8 0 0
16.84 0 0
16.88 0 0
16.92 0 0
16.96 0 0
17 0 0
17.04 0 0
17.08 0 0
17.12 0 0
17.16 0 0
17.2 0 0
17.24 0 0
17.28 0 0
17.32 0 0
17.36 0 0
17.4 0 0
17.44 0 0
17.48 0 0
17.52 0 0
17.56 0 0
17.6 0 0
17.64 0 0
17.68 0 0
17.72 0 0
17.76 0 0
17.8 0 0
17.84 0 0
17.88 0 0
17.92 0 0
17.96 0 0
18 0 0
18.04 0 0
18.08 0 0
18.12 0 0
18.16 0 0
18.2 0 0
18.24 0 0
18.28 0 0
18.32 0 0
18.36 0 0
18.4 0 0
18.44 0 0
18.48 0 0
18.52 0 0
18.56 0 0
18.6 0 0
18.64 0 0
18.68 0 0
18.72 0 0
18.76 0 0
18.8 0 0
18.84 0 0
18.88 0 0
18.92 0 0
18.96 0 0
19 0 0
19.04 0 0
19.08 0 0
19.12 0 0
19.16 0 0
19.2 0 0
19.24 0 0
19.28 0 0
19.32 0 0
19.36 0 0
19.4 0 0
19.44 0 0
19.48 0 0
19.52 0 0
19.56 0 0
19.6 0 0
19.64 0 0
19.68 0 0
19.72 0 0
19.76 0 0
19.8 0 0
19.84 0 0
19.88 0 0
19.92 0 0
19.96 0 0
20 0 0
20.04 0 0
20.08 0 0
20.12 0 0
20.16 0 0
20.2 0 0
20.24 0 0
20.28 0 0
20.32 0 0
20.36 0 0
20.4 0 0
20.44 0 0
20.48 0 0
20.52 0 0
20.56 0 0
20.6 0 0
20.64 0 0
20.68 0 0
20.72 0 0
20.76 0 0
20.8 0 0
20.84 0 0
20.88 0 0
20.92 0 0
20.96 0 0
21 0 0
21.04 0 0
21.08 0 0
21.12 0 0
21.16 0 0
21.2 0 0
21.24 0 0
21.28 0 0
21.32 0 0
21.36 0 0
21.4 0 0
21.44 0 0
21.48 0 0
21.52 0 0
21.56 0 0
21.6 0 0
21.64 0 0
21.68 0 0
21.72 0 0
21.76 0 0
21.8 0 0
21.84 0 0
21.88 0 0
21.92 0 0
21.96 0 0
22 0 0
22.04 0 0
22.08 0 0
22.12 0 0
22.16 0 0
22.2 0 0
22.24 0 0
22.28 0 0
22.32 0 0
22.36 0 0
22.4 0 0
22.44 0 0
22.48 0 0
22.52 0 0
22.56 0 0
22.6 0 0
22.64 0 0
22.68 0 0
22.72 0 0
22.76 0 0
22.8 0 0
22.84 0 0
22.88 0 0
22.92 0 0
22.96 0 0
23 0 0
23.04 0 0
23.08 0 0
23.12 0 0
23.16 0 0
23.2 0 0
23.24 0 0
23.28 0 0
23.32 0 0
23.36 0 0
23.4 0 0
23.44 0 0
23.48 0 0
23.52 0 0
23.56 0 0
23.6 0 0
23.64 0 0
23.68 0 0
23.72 0 0
23.76 0 0
23.8 0 0
23.84 0 0
23.88 0 0
23.92 0 0
23.96 0 0
24 0 0
24.04 0 0
24.08 0 0
24.12 0 0
24.16 0 0
24.2 0 0
24.24 0 0
24.28 0 0
24.32 0 0
24.36 0 0
24.4 0 0
24.44 0 0
24.48 0 0
24.52 0 0
24.56 0 0
24.6 0 0
24.64 0 0
24.68 0 0
24.72 0 0
24.76 0 0
24.8 0 0
24.84 0 0
24.88 0 0
24.92 0 0
24.96 0 0
25 0 0
25.04 0 0
25.08 0 0
25.12 0 0
25.16 0 0
25.2 0 0
25.24 0 0
25.28 0 0
25.32 0 0
25.36 0 0
25.4 0 0
25.44 0 0
25.48 0 0
25.52 0 0
25.56 0 0
25.6 0 0
25.64 0 0
25.68 0 0
25.72 0 0
25.76 0 0
25.8 0 0
25.84 0 0
25.88 0 0
25.92 0 0
25.96 0 0
26 0 0
26.04 0 0
26.08 0 0
26.12 0 0
26.16 0 0
26.2 0 0
26.24 0 0
26.28 0 0
26.32 0 0
26.36 0 0
26.4 0 0
26.44 0 0
26.48 0 0
26.52 0 0
26.56 0 0
26.6 0 0
26.64 0 0
26.68 0 0
26.72 0 0
26.76 0 0
26.8 0 0
26.84 0 0
26.88 0 0
26.92 0 0
26.96 0 0
27 0 0
27.04 0 0
27.08 0 0
27.12 0 0
27.16 0 0
27.2 0 0
27.24 0 0
27.28 0 0
27.32 0 0
27.36 0 0
27.4 0 0
27.44 0 0
27.48 0 0
27.52 0 0
27.56 0 0
27.6 0 0
27.64 0 0
27.68 0 0
27.72 0 0
27.76 0 0
27.8 0 0
27.84 0 0
27.88 0 0
27.92 0 0
27.96 0 0
28 0 0
28.04 0 0
28.08 0 0
28.12 0 0
28.16 0 0
28.2 0 0
28.24 0 0
28.28 0 0
28.32 0 0
28.36 0 0
28.4 0 0
28.44 0 0
28.48 0 0
28.52 0 0
28.56 0 0
28.6 0 0
28.64 0 0
28.68 0 0
28.72 0 0
28.76 0 0
28.8 0 0
28.84 0 0
28.88 0 0
28.92 0 0
28.96 0 0
29 0 0
29.04 0 0
29.08 0 0
29.12 0 0
29.16 0 0
29.2 0 0
29.24 0 0
29.28 0 0
29.32 0 0
29.36 0 0
29.4 0 0
29.44 0 0
29.48 0 0
29.52 0 0
29.56 0 0
29.6 0 0
29.64 0 0
29.68 0 0
29.72 0 0
29.76 0 0
29.8 0 0
29.84 0 0
29.88 0 0
29.92 0 0
29.96 0 0
30 0 0
30.04 0 0
30.08 0 0
30.12 0 0
30.16 0 0
30.2 0 0
30.24 0 0
30.28 0 0
30.32 0 0
30.36 0 0
30.4 0 0
30.44 0 0
30.48 0 0
30.52 0 0
30.56 0 0
30.6 0 0
30.64 0 0
30.68 0 0
30.72 0 0
30.76 0 0
30.8 0 0
30.84 0 0
30.88 0 0
30.92 0 0
30.96 0 0
31 0 0
31.04 0 0
31.08 0 0
31.12 0 0
31.16 0 0
31.2 0 0
31.24 0 0
31.28 0 0
31.32 0 0
31.36 0 0
31.4 0 0
31.44 0 0
31.48 0 0
31.52 0 0
31.56 0 0
31.6 0 0
31.64 0 0
31.68 0 0
31.72 0 0
31.76 0 0
31.8 0 0
31.84 0 0
31.88 0 0
31.92 0 0
31.96 0 0
0 0.005 0
0.04 0.005 0
0.08 0.005 0
0.12 0.005 0
0.16 0.005 0
0.2 0.005 0
0.24 0.005 0
0.28 0.005 0
0.32 0.005 0
0.36 0.005 0
0.4 0.005 0
0.44 0.005 0
0.48 0.005 0
0.52 0.005 0
0.56 0.005 0
0.6 0.005 0
0.64 0.005 0
0.68 0.005 0
0.72 0.005 0
0.76 0.005 0
0.8 0.005 0
0.84 0.005 0
0.88 0.005 0
0.92 0.005 0
0.96 0.005 0
1 0.005 0
1.04 0.005 0
1.08 0.005 0
1.12 0.005 0
1.16 0.005 0
1.2 0.005 0
1.24 0.005 0
1.28 0.005 0
1.32 0.005 0
1.36 0.005 0
1.4 0.005 0
1.44 0.005 0
1.48 0.005 0
1.52 0.005 0
1.56 0.005 0
1.6 0.005 0
1.64 0.005 0
1.68 0.005 0
1.72 0.005 0
1.76 0.005 0
1.8 0.005 0
1.84 0.005 0
1.88 0.005 0
1.92 0.005 0
1.96 0.005 0
2 0.005 0
2.04 0.005 0
2.08 0.005 0
2.12 0.005 0
2.16 0.005 0
2.2 0.005 0
2.24 0.005 0
2.28 0.005 0
2.32 0.005 0
2.36 0.005 0
2.4 0.005 0
2.44 0.005 0
2.48 0.005 0
2.52 0.005 0
2.56 0.005 0
2.6 0.005 0
2.64 0.005 0
2.68 0.005 0
2.72 0.005 0
2.76 0.005 0
2.8 0.005 0
2.84 0.005 0
2.88 0.005 0
2.92 0.005 0
2.96 0.005 0
3 0.005 0
3.04 0.005 0
3.08 0.005 0
3.12 0.005 0
3.16 0.005 0
3.2 0.005 0
3.24 0.005 0
3.28 0.005 0
3.32 0.005 0
3.36 0.005 0
3.4 0.005 0
3.44 0.005 0
3.48 0.005 0
3.52 0.005 0
3.56 0.005 0
3.6 0.005 0
3.64 0.005 0
3.68 0.005 0
3.72 0.005 0
3.76 0.005 0
3.8 0.005 0
3.84 0.005 0
3.88 0.005 0
3.92 0.005 0
3.96 0.005 0
4 0.005 0
4.04 0.005 0
4.08 0.005 0
4.12 0.005 0
4.16 0.005 0
4.2 0.005 0
4.24 0.005 0
4.28 0.005 0
4.32 0.005 0
4.36 0.005 0
4.4 0.005 0
4.44 0.005 0
4.48 0.005 0
4.52 0.005 0
4.56 0.005 0
4.6 0.005 0
4.64 0.005 0
4.68 0.005 0
4.72 0.005 0
4.76 0.005 0
4.8 0.005 0
4.84 0.005 0
4.88 0.005 0
4.92 0.005 0
4.96 0.005 0
5 0.005 0
5.04 0.005 0
5.08 0.005 0
5.12 0.005 0
5.16 0.005 0
5.2 0.005 0
5.24 0.005 0
5.28 0.005 0
5.32 0.005 0
5.36 0.005 0
5.4 0.005 0
5.44 0.005 0
5.48 0.005 0
5.52 0.005 0
5.56 0.005 0
5.6 0.005 0
5.64 0.005 0
5.68 0.005 0
5.72 0.005 0
5.76 0.005 0
5.8 0.005 0
5.84 0.005 0
5.88 0.005 0
5.92 0.005 0
5.96 0.005 0
6 0.005 0
6.04 0.005 0
6.08 0.005 0
6.12 0.005 0
6.16 0.005 0
6.2 0.005 0
6.24 0.005 0
6.28 0.005 0
6.32 0.005 0
6.36 0.005 0
6.4 0.005 0
6.44 0.005 0
6.48 0.005 0
6.52 0.005 0
6.56 0.005 0
6.6 0.005 0
6.64 0.005 0
6.68 0.005 0
6.72 0.005 0
6.76 0.005 0
6.8 0.005 0
6.84 0.005 0
6.88 0.005 0
6.92 0.005 0
6.96 0.005 0
7 0.005 0
7.04 0.005 0
7.08 0.005 0
7.12 0.005 0
7.16 0.005 0
7.2 0.005 0
7.24 0.005 0
7.28 0.005 0
7.32 0.005 0
7.36 0.005 0
7.4 0.005 0
[...]
POINT_DATA 160000

SCALARS p float 1
LOOKUP_TABLE default
1
80.4467
78.2313
77.9764
77.9163
77.8899
77.8738
77.8622
77.853
77.8451
77.8382
77.8318
77.826
77.8204
77.8151
77.81
77.805
77.8002
77.7955
77.7908
77.7863
77.7818
77.7774
77.7731
77.7688
77.7646
77.7605
77.7564
77.7523
77.7483
77.7443
77.7404
77.7365
77.7327
77.7289
77.7251
77.7214
77.7178
77.7141
77.7105
77.707
77.7034
77.7
77.6965
77.6931
77.6897
77.6863
77.683
77.6797
77.6764
77.6731
77.6699
77.6667
77.6635
77.6604
77.6573
77.6542
77.6511
77.648
77.645
77.642
77.639
77.636
77.6331
77.6301
77.6272
77.6243
77.6214
77.6186
77.6157
77.6129
77.6101
77.6073
77.6046
77.6018
77.5991
77.5963
77.5936
77.5909
77.5882
77.5856
77.5829
77.5803
77.5776
77.575
77.5724
77.5698
77.5672
77.5647
77.5621
77.5596
77.5571
77.5545
77.552
77.5495
77.547
77.5446
77.5421
77.5396
77.5372
77.5348
77.5323
77.5299
77.5275
77.5251
77.5227
77.5203
77.518
77.5156
77.5133
77.5109
77.5086
77.5063
77.5039
77.5016
77.4993
77.497
77.4947
77.4925
77.4902
77.4879
77.4857
77.4834
77.4812
77.479
77.4767
77.4745
77.4723
77.4701
77.4679
77.4657
77.4635
77.4613
77.4591
77.457
77.4548
77.4527
77.4505
77.4484
77.4462
77.4441
77.442
77.4398
77.4377
77.4356
77.4335
77.4314
77.4293
77.4272
77.4252
77.4231
77.421
77.4189
77.4169
77.4148
77.4128
77.4107
77.4087
77.4066
77.4046
77.4026
77.4006
77.3985
77.3965
77.3945
77.3925
77.3905
77.3885
77.3865
77.3845
77.3826
77.3806
77.3786
77.3766
77.3747
77.3727
77.3707
77.3688
77.3668
77.3649
77.3629
77.361
77.3591
77.3571
77.3552
77.3533
77.3513
77.3494
77.3475
77.3456
77.3437
77.3418
77.3399
77.338
77.3361
77.3342
77.3323
77.3304
77.3286
77.3267
77.3248
77.3229
77.3211
77.3192
77.3173
77.3155
77.3136
77.3118
77.3099
77.3081
77.3062
77.3044
77.3025
77.3007
77.2989
77.297
77.2952
77.2934
77.2915
77.2897
77.2879
77.2861
77.2843
77.2825
77.2806
77.2788
77.277
77.2752
77.2734
77.2716
77.2698
77.268
77.2663
77.2645
77.2627
77.2609
77.2591
77.2573
77.2556
77.2538
77.252
77.2502
77.2485
77.2467
77.2449
77.2432
77.2414
77.2397
77.2379
77.2361
77.2344
77.2326
77.2309
77.2291
77.2274
77.2257
77.2239
77.2222
77.2204
77.2187
77.217
77.2152
77.2135
77.2118
77.21
77.2083
77.2066
77.2049
77.2032
77.2014
77.1997
77.198
77.1963
77.1946
77.1929
77.1911
77.1894
77.1877
77.186
77.1843
77.1826
77.1809
77.1792
77.1775
77.1758
77.1741
77.1724
77.1707
77.169
77.1674
77.1657
77.164
77.1623
77.1606
77.1589
77.1572
77.1556
77.1539
77.1522
77.1505
77.1488
77.1472
77.1455
77.1438
77.1421
77.1405
77.1388
77.1371
77.1355
77.1338
77.1321
77.1305
77.1288
77.1271
77.1255
77.1238
77.1222
77.1205
77.1188
77.1172
77.1155
77.1139
77.1122
77.1106
77.1089
77.1073
77.1056
77.104
77.1023
77.1007
77.099
77.0974
77.0957
77.0941
77.0925
77.0908
77.0892
77.0875
77.0859
77.0843
77.0826
77.081
77.0793
77.0777
77.0761
77.0744
77.0728
77.0712
77.0695
77.0679
77.0663
77.0647
77.063
77.0614
77.0598
77.0581
77.0565
77.0549
77.0533
77.0516
77.05
77.0484
77.0468
77.0452
77.0435
77.0419
77.0403
77.0387
77.0371
77.0354
77.0338
77.0322
77.0306
77.029
77.0274
77.0258
77.0241
77.0225
77.0209
77.0193
77.0177
77.0161
77.0145
77.0129
77.0113
77.0096
77.008
77.0064
77.0048
77.0032
77.0016
77
76.9984
76.9968
76.9952
76.9936
76.992
76.9904
76.9888
76.9872
76.9856
76.984
76.9824
76.9808
76.9792
76.9776
76.976
76.9744
76.9728
76.9712
76.9696
76.968
76.9664
76.9648
76.9632
76.9616
76.96
76.9584
76.9569
76.9553
76.9537
76.9521
76.9505
76.9489
76.9473
76.9457
76.9441
76.9425
76.9409
76.9394
76.9378
76.9362
76.9346
76.933
76.9314
76.9298
76.9282
76.9267
76.9251
76.9235
76.9219
76.9203
76.9187
76.9171
76.9156
76.914
76.9124
76.9108
76.9092
76.9076
76.9061
76.9045
76.9029
76.9013
76.8997
76.8981
76.8966
76.895
76.8934
76.8918
76.8902
76.8887
76.8871
76.8855
76.8839
76.8824
76.8808
76.8792
76.8776
76.876
76.8745
76.8729
76.8713
76.8697
76.8682
76.8666
76.865
76.8634
76.8619
76.8603
76.8587
76.8571
76.8556
76.854
76.8524
76.8508
76.8493
76.8477
76.8461
76.8445
76.843
76.8414
76.8398
76.8383
76.8367
76.8351
76.8335
76.832
76.8304
76.8288
76.8273
76.8257
76.8241
76.8225
76.821
76.8194
76.8178
76.8163
76.8147
76.8131
76.8116
76.81
76.8084
76.8069
76.8053
76.8037
76.8021
76.8006
76.799
76.7974
76.7959
76.7943
76.7927
76.7912
76.7896
76.788
76.7865
76.7849
76.7833
76.7818
76.7802
76.7786
76.7771
76.7755
76.774
76.7724
76.7708
76.7693
76.7677
76.7661
76.7646
76.763
76.7614
76.7599
76.7583
76.7567
76.7552
76.7536
76.7521
76.7505
76.7489
76.7474
76.7458
76.7442
76.7427
76.7411
76.7396
76.738
76.7364
76.7349
76.7333
76.7317
76.7302
76.7286
76.7271
76.7255
76.7239
76.7224
76.7208
76.7193
76.7177
76.7161
76.7146
76.713
76.7114
76.7099
76.7083
76.7068
76.7052
76.7036
76.7021
76.7005
76.699
76.6974
76.6959
76.6943
76.6927
76.6912
76.6896
76.6881
76.6865
76.6849
76.6834
76.6818
76.6803
76.6787
76.6771
76.6756
76.674
76.6725
76.6709
76.6694
76.6678
76.6662
76.6647
76.6631
76.6616
76.66
76.6585
76.6569
76.6553
76.6538
76.6522
76.6507
76.6491
76.6476
76.646
76.6444
76.6429
76.6413
76.6398
76.6382
76.6367
76.6351
76.6336
76.632
76.6304
76.6289
76.6273
76.6258
76.6242
76.6227
76.6211
76.6196
76.618
76.6164
76.6149
76.6133
76.6118
76.6102
76.6087
76.6071
76.6056
76.604
76.6025
76.6009
76.5993
76.5978
76.5962
76.5947
76.5931
76.5916
76.59
76.5885
76.5869
76.5854
76.5838
76.5823
76.5807
76.5791
76.5776
76.576
76.5745
76.5729
76.5714
76.5698
76.5683
76.5667
76.5652
76.5636
76.5621
76.5605
76.559
76.5574
76.5558
76.5543
76.5527
76.5512
76.5496
76.5481
76.5465
76.545
76.5434
76.5419
76.5403
76.5388
76.5372
76.5357
76.5341
76.5326
76.531
76.5295
76.5279
76.5264
76.5248
76.5233
76.5217
76.5202
76.5186
76.5171
76.5155
76.514
76.5124
76.5108
76.5093
76.5077
76.5062
76.5046
76.5031
76.5015
76.5
76.4984
76.4969
76.4953
76.4938
76.4922
76.4907
76.4891
76.4876
76.486
76.4845
76.4829
76.4814
76.4798
76.4783
76.4767
76.4752
76.4736
76.4721
76.4705
76.469
76.4674
76.4659
76.4643
76.4628
76.4612
76.4597
76.4581
76.4566
76.455
76.4535
76.452
76.4504
76.4489
76.4473
76.4458
76.4442
76.4427
76.4411
76.4396
76.438
76.4365
76.4349
76.4334
76.4318
76.4303
76.4287
76.4272
76.4256
76.4241
76.4225
76.421
76.4194
76.4179
76.4163
76.4148
76.4132
76.4117
76.4101
76.4086
76.407
76.4055
76.404
76.4024
76.4009
76.3993
76.3978
76.3962
76.3947
76.3931
76.3916
76.39
76.3885
76.3869
76.3854
76.3838
76.3823
76.3807
76.3792
76.3776
76.3761
76.3746
76.373
76.3715
76.3699
76.3684
76.3668
76.3653
76.3637
1
80.4467
80.4467
78.2313
77.9764
77.9163
77.8899
77.8738
77.8622
77.853
77.8451
77.8382
77.8318
77.826
77.8204
77.8151
77.81
77.805
77.8002
77.7955
77.7908
77.7863
77.7818
77.7774
77.7731
77.7688
77.7646
77.7605
77.7564
77.7523
77.7483
77.7443
77.7404
77.7365
77.7327
77.7289
77.7251
77.7214
77.7178
77.7141
77.7105
77.707
77.7034
77.7
77.6965
77.6931
77.6897
77.6863
77.683
77.6797
77.6764
77.6731
77.6699
77.6667
77.6635
77.6604
77.6573
77.6542
77.6511
77.648
77.645
77.642
77.639
77.636
77.6331
77.6301
77.6272
77.6243
77.6214
77.6186
77.6157
77.6129
77.6101
77.6073
77.6046
77.6018
77.5991
77.5963
77.5936
77.5909
77.5882
77.5856
77.5829
77.5803
77.5776
77.575
77.5724
77.5698
77.5672
77.5647
77.5621
77.5596
77.5571
77.5545
77.552
77.5495
77.547
77.5446
77.5421
77.5396
77.5372
77.5348
77.5323
77.5299
77.5275
77.5251
77.5227
77.5203
77.518
77.5156
77.5133
77.5109
77.5086
77.5063
77.5039
77.5016
77.4993
77.497
77.4947
77.4925
77.4902
77.4879
77.4857
77.4834
77.4812
77.479
77.4767
77.4745
77.4723
77.4701
77.4679
77.4657
77.4635
77.4613
77.4591
77.457
77.4548
77.4527
77.4505
77.4484
77.4462
77.4441
77.442
77.4398
77.4377
77.4356
77.4335
77.4314
77.4293
77.4272
77.4252
77.4231
77.421
77.4189
77.4169
77.4148
77.4128
77.4107
77.4087
77.4066
77.4046
77.4026
77.4006
77.3985
77.3965
77.3945
77.3925
77.3905
77.3885
77.3865
77.3845
77.3826
77.3806
77.3786
77.3766
77.3747
77.3727
77.3707
77.3688
77.3668
77.3649
77.3629
77.361
77.3591
77.3571
77.3552
77.3533
77.3513
77.3494
77.3475
77.3456
77.3437
77.3418
77.3399
77.338
77.3361
77.3342
77.3323
77.3304
77.3286
77.3267
77.3248
77.3229
77.3211
77.3192
77.3173
77.3155
77.3136
77.3118
77.3099
77.3081
77.3062
77.3044
77.3025
77.3007
77.2989
77.297
77.2952
77.2934
77.2915
77.2897
77.2879
77.2861
77.2843
77.2825
77.2806
77.2788
77.277
77.2752
77.2734
77.2716
77.2698
77.268
77.2663
77.2645
77.2627
77.2609
77.2591
77.2573
77.2556
77.2538
77.252
77.2502
77.2485
77.2467
77.2449
77.2432
77.2414
77.2397
77.2379
77.2361
77.2344
77.2326
77.2309
77.2291
77.2274
77.2257
77.2239
77.2222
77.2204
77.2187
77.217
77.2152
77.2135
77.2118
77.21
77.2083
77.2066
77.2049
77.2032
77.2014
77.1997
77.198
77.1963
77.1946
77.1929
77.1911
77.1894
77.1877
77.186
77.1843
77.1826
77.1809
77.1792
77.1775
77.1758
77.1741
77.1724
77.1707
77.169
77.1674
77.1657
77.164
77.1623
77.1606
77.1589
77.1572
77.1556
77.1539
77.1522
77.1505
77.1488
77.1472
77.1455
77.1438
77.1421
77.1405
77.1388
77.1371
77.1355
77.1338
77.1321
77.1305
77.1288
77.1271
77.1255
77.1238
77.1222
77.1205
77.1188
77.1172
77.1155
77.1139
77.1122
77.1106
77.1089
77.1073
77.1056
77.104
77.1023
77.1007
77.099
77.0974
77.0957
77.0941
77.0925
77.0908
77.0892
77.0875
77.0859
77.0843
77.0826
77.081
77.0793
77.0777
77.0761
77.0744
77.0728
77.0712
77.0695
77.0679
77.0663
77.0647
77.063
77.0614
77.0598
77.0581
77.0565
77.0549
77.0533
77.0516
77.05
77.0484
77.0468
77.0452
77.0435
77.0419
77.0403
77.0387
77.0371
77.0354
77.0338
77.0322
77.0306
77.029
77.0274
77.0258
77.0241
77.0225
77.0209
77.0193
77.0177
77.0161
77.0145
77.0129
77.0113
77.0096
77.008
77.0064
77.0048
77.0032
77.0016
77
76.9984
76.9968
76.9952
76.9936
76.992
76.9904
76.9888
76.9872
76.9856
76.984
76.9824
76.9808
76.9792
76.9776
76.976
76.9744
76.9728
76.9712
76.9696
76.968
76.9664
76.9648
76.9632
76.9616
76.96
76.9584
76.9569
76.9553
76.9537
76.9521
76.9505
76.9489
76.9473
76.9457
76.9441
76.9425
76.9409
76.9394
76.9378
76.9362
76.9346
76.933
76.9314
76.9298
76.9282
76.9267
76.9251
76.9235
76.9219
76.9203
76.9187
76.9171
76.9156
76.914
76.9124
76.9108
76.9092
76.9076
76.9061
76.9045
76.9029
76.9013
76.8997
76.8981
76.8966
76.895
76.8934
76.8918
76.8902
76.8887
76.8871
76.8855
76.8839
76.8824
76.8808
76.8792
76.8776
76.876
76.8745
76.8729
76.8713
76.8697
76.8682
76.8666
76.865
76.8634
76.8619
76.8603
76.8587
76.8571
76.8556
76.854
76.8524
76.8508
76.8493
76.8477
76.8461
76.8445
76.843
76.8414
76.8398
76.8383
76.8367
76.8351
76.8335
76.832
76.8304
76.8288
76.8273
76.8257
76.8241
76.8225
76.821
76.8194
76.8178
76.8163
76.8147
76.8131
76.8116
76.81
76.8084
76.8069
76.8053
76.8037
76.8021
76.8006
76.799
76.7974
76.7959
76.7943
76.7927
76.7912
76.7896
76.788
76.7865
76.7849
76.7833
76.7818
76.7802
76.7786
76.7771
76.7755
76.774
76.7724
76.7708
76.7693
76.7677
76.7661
76.7646
76.763
76.7614
76.7599
76.7583
76.7567
76.7552
76.7536
76.7521
76.7505
76.7489
76.7474
76.7458
76.7442
76.7427
76.7411
76.7396
76.738
76.7364
76.7349
76.7333
76.7317
76.7302
76.7286
76.7271
76.7255
76.7239
76.7224
76.7208
76.7193
76.7177
76.7161
76.7146
76.713
76.7114
76.7099
76.7083
76.7068
76.7052
76.7036
76.7021
76.7005
76.699
76.6974
76.6959
76.6943
76.6927
76.6912
76.6896
76.6881
76.6865
76.6849
76.6834
76.6818
76.6803
76.6787
76.6771
76.6756
76.674
76.6725
76.6709
76.6694
76.6678
76.6662
76.6647
76.6631
76.6616
76.66
76.6585
76.6569
76.6553
76.6538
76.6522
76.6507
76.6491
76.6476
76.646
76.6444
76.6429
76.6413
76.6398
76.6382
76.6367
76.6351
76.6336
76.632
76.6304
76.6289
76.6273
76.6258
76.6242
76.6227
76.6211
76.6196
76.618
76.6164
76.6149
76.6133
76.6118
76.6102
76.6087
76.6071
76.6056
76.604
76.6025
76.6009
76.5993
76.5978
76.5962
76.5947
76.5931
76.5916
76.59
76.5885
76.5869
76.5854
76.5838
76.5823
76.5807
76.5791
76.5776
76.576
76.5745
76.5729
76.5714
76.5698
76.5683
76.5667
76.5652
76.5636
76.5621
76.5605
76.559
76.5574
76.5558
76.5543
76.5527
76.5512
76.5496
76.5481
76.5465
76.545
76.5434
76.5419
76.5403
76.5388
76.5372
76.5357
76.5341
76.5326
76.531
76.5295
76.5279
76.5264
76.5248
76.5233
76.5217
76.5202
76.5186
76.5171
76.5155
76.514
76.5124
76.5108
76.5093
76.5077
76.5062
76.5046
76.5031
76.5015
76.5
76.4984
76.4969
76.4953
76.4938
76.4922
76.4907
76.4891
76.4876
76.486
76.4845
76.4829
76.4814
76.4798
76.4783
76.4767
76.4752
76.4736
76.4721
76.4705
76.469
76.4674
76.4659
76.4643
76.4628
76.4612
76.4597
76.4581
76.4566
76.455
76.4535
76.452
76.4504
76.4489
76.4473
76.4458
76.4442
76.4427
76.4411
76.4396
76.438
76.4365
76.4349
76.4334
76.4318
76.4303
76.4287
76.4272
76.4256
76.4241
76.4225
76.421
76.4194
76.4179
76.4163
76.4148
76.4132
76.4117
76.4101
76.4086
76.407
76.4055
76.404
76.4024
76.4009
76.3993
76.3978
76.3962
76.3947
76.3931
76.3916
76.39
76.3885
76.3869
76.3854
76.3838
76.3823
76.3807
76.3792
76.3776
76.3761
76.3746
76.373
76.3715
76.3699
76.3684
76.3668
76.3653
76.3637
76.3637
79.7997
79.7997
78.2417
77.9859
77.9204
77.8921
77.8752
77.8632
77.8537
77.8457
77.8386
77.8322
77.8263
77.8206
77.8153
77.8102
77.8052
77.8003
77.7956
77.791
77.7864
77.7819
77.7775
77.7732
77.7689
77.7647
77.7605
77.7564
77.7523
77.7483
77.7444
77.7404
77.7366
77.7327
77.7289
77.7252
77.7215
77.7178
77.7142
77.7106
77.707
77.7035
77.7
77.6965
77.6931
77.6897
77.6863
77.683
77.6797
77.6764
77.6732
77.6699
77.6667
77.6636
77.6604
77.6573
77.6542
77.6511
77.648
77.645
77.642
77.639
77.636
77.6331
77.6301
77.6272
77.6243
77.6215
77.6186
77.6158
77.6129
77.6101
77.6073
77.6046
77.6018
77.5991
77.5963
77.5936
77.5909
77.5882
77.5856
77.5829
77.5803
77.5776
77.575
77.5724
77.5698
77.5673
77.5647
77.5621
77.5596
77.5571
77.5545
77.552
77.5495
77.5471
77.5446
77.5421
77.5397
77.5372
77.5348
77.5323
77.5299
77.5275
77.5251
77.5227
77.5204
77.518
77.5156
77.5133
77.5109
77.5086
77.5063
77.504
77.5016
77.4993
77.497
77.4948
77.4925
77.4902
77.4879
77.4857
77.4834
77.4812
77.479
77.4767
77.4745
77.4723
77.4701
77.4679
77.4657
77.4635
77.4613
77.4592
77.457
77.4548
77.4527
77.4505
77.4484
77.4462
77.4441
77.442
77.4399
77.4377
77.4356
77.4335
77.4314
77.4293
77.4272
77.4252
77.4231
77.421
77.4189
77.4169
77.4148
77.4128
77.4107
77.4087
77.4067
77.4046
77.4026
77.4006
77.3985
77.3965
77.3945
77.3925
77.3905
77.3885
77.3865
77.3845
77.3826
77.3806
77.3786
77.3766
77.3747
77.3727
77.3707
77.3688
77.3668
77.3649
77.3629
77.361
77.3591
77.3571
77.3552
77.3533
77.3514
77.3494
77.3475
77.3456
77.3437
77.3418
77.3399
77.338
77.3361
77.3342
77.3323
77.3304
77.3286
77.3267
77.3248
77.3229
77.3211
77.3192
77.3173
77.3155
77.3136
77.3118
77.3099
77.3081
77.3062
77.3044
77.3025
77.3007
77.2989
77.297
77.2952
77.2934
77.2915
77.2897
77.2879
77.2861
77.2843
77.2825
77.2806
77.2788
77.277
77.2752
77.2734
77.2716
77.2698
77.2681
77.2663
77.2645
77.2627
77.2609
77.2591
77.2573
77.2556
77.2538
77.252
77.2502
77.2485
77.2467
77.2449
77.2432
77.2414
77.2397
77.2379
77.2362
77.2344
77.2326
77.2309
77.2292
77.2274
77.2257
77.2239
77.2222
77.2204
77.2187
77.217
77.2152
77.2135
77.2118
77.2101
77.2083
77.2066
77.2049
77.2032
77.2014
77.1997
77.198
77.1963
77.1946
77.1929
77.1912
77.1894
77.1877
77.186
77.1843
77.1826
77.1809
77.1792
77.1775
77.1758
77.1741
77.1724
77.1707
77.169
77.1674
77.1657
77.164
77.1623
77.1606
77.1589
77.1572
77.1556
77.1539
77.1522
77.1505
77.1488
77.1472
77.1455
77.1438
77.1421
77.1405
77.1388
77.1371
77.1355
77.1338
77.1321
77.1305
77.1288
77.1271
77.1255
77.1238
77.1222
77.1205
77.1188
77.1172
77.1155
77.1139
77.1122
77.1106
77.1089
77.1073
77.1056
77.104
77.1023
77.1007
77.099
77.0974
77.0957
77.0941
77.0925
77.0908
77.0892
77.0875
77.0859
77.0843
77.0826
77.081
77.0793
77.0777
77.0761
77.0744
77.0728
77.0712
77.0695
77.0679
77.0663
77.0647
77.063
77.0614
77.0598
77.0581
77.0565
77.0549
77.0533
77.0516
77.05
77.0484
77.0468
77.0452
77.0435
77.0419
77.0403
77.0387
77.0371
77.0354
77.0338
77.0322
77.0306
77.029
77.0274
77.0258
77.0241
77.0225
77.0209
77.0193
77.0177
77.0161
77.0145
77.0129
77.0113
77.0097
77.008
77.0064
77.0048
77.0032
77.0016
77
76.9984
76.9968
76.9952
76.9936
76.992
76.9904
76.9888
76.9872
76.9856
76.984
76.9824
76.9808
76.9792
76.9776
76.976
76.9744
76.9728
76.9712
76.9696
76.968
76.9664
76.9648
76.9632
76.9616
76.96
76.9584
76.9569
76.9553
76.9537
76.9521
76.9505
76.9489
76.9473
76.9457
76.9441
76.9425
76.9409
76.9394
76.9378
76.9362
76.9346
76.933
76.9314
76.9298
76.9282
76.9267
76.9251
76.9235
76.9219
76.9203
76.9187
76.9171
76.9156
76.914
76.9124
76.9108
76.9092
76.9076
76.9061
76.9045
76.9029
76.9013
76.8997
76.8982
76.8966
76.895
76.8934
76.8918
76.8903
76.8887
76.8871
76.8855
76.8839
76.8824
76.8808
76.8792
76.8776
76.876
76.8745
76.8729
76.8713
76.8697
76.8682
76.8666
76.865
76.8634
76.8619
76.8603
76.8587
76.8571
76.8556
76.854
76.8524
76.8508
76.8493
76.8477
76.8461
76.8445
76.843
76.8414
76.8398
76.8383
76.8367
76.8351
76.8335
76.832
76.8304
76.8288
76.8273
76.8257
76.8241
76.8225
76.821
76.8194
76.8178
76.8163
76.8147
76.8131
76.8116
76.81
76.8084
76.8069
76.8053
76.8037
76.8022
76.8006
76.799
76.7974
76.7959
76.7943
76.7927
76.7912
76.7896
76.788
76.7865
76.7849
76.7833
76.7818
76.7802
76.7787
76.7771
76.7755
76.774
76.7724
76.7708
76.7693
76.7677
76.7661
76.7646
76.763
76.7614
76.7599
76.7583
76.7567
76.7552
76.7536
76.7521
76.7505
76.7489
76.7474
76.7458
76.7442
76.7427
76.7411
76.7396
76.738
76.7364
76.7349
76.7333
76.7317
76.7302
76.7286
76.7271
76.7255
76.7239
76.7224
76.7208
76.7193
76.7177
76.7161
76.7146
76.713
76.7115
76.7099
76.7083
76.7068
76.7052
76.7037
76.7021
76.7005
76.699
76.6974
76.6959
76.6943
76.6927
76.6912
76.6896
76.6881
76.6865
76.6849
76.6834
76.6818
76.6803
76.6787
76.6772
76.6756
76.674
76.6725
76.6709
76.6694
76.6678
76.6662
76.6647
76.6631
76.6616
76.66
76.6585
76.6569
76.6553
76.6538
76.6522
76.6507
76.6491
76.6476
76.646
76.6445
76.6429
76.6413
76.6398
76.6382
76.6367
76.6351
76.6336
76.632
76.6304
76.6289
76.6273
76.6258
76.6242
76.6227
76.6211
76.6196
76.618
76.6164
76.6149
76.6133
76.6118
76.6102
76.6087
76.6071
76.6056
76.604
76.6025
76.6009
76.5993
76.5978
76.5962
76.5947
76.5931
76.5916
76.59
76.5885
76.5869
76.5854
76.5838
76.5823
76.5807
76.5791
76.5776
76.576
76.5745
76.5729
76.5714
76.5698
76.5683
76.5667
76.5652
76.5636
76.5621
76.5605
76.559
76.5574
76.5559
76.5543
76.5527
76.5512
76.5496
76.5481
76.5465
76.545
76.5434
76.5419
76.5403
76.5388
76.5372
76.5357
76.5341
76.5326
76.531
76.5295
76.5279
76.5264
76.5248
76.5233
76.5217
76.5202
76.5186
76.5171
76.5155
76.514
76.5124
76.5109
76.5093
76.5078
76.5062
76.5047
76.5031
76.5015
76.5
76.4984
76.4969
76.4953
76.4938
76.4922
76.4907
76.4891
76.4876
76.486
76.4845
76.4829
76.4814
76.4798
76.4783
76.4767
76.4752
76.4736
76.4721
76.4705
76.469
76.4674
76.4659
76.4643
76.4628
76.4612
76.4597
76.4582
76.4566
76.4551
76.4535
76.452
76.4504
76.4489
76.4473
76.4458
76.4442
76.4427
76.4411
76.4396
76.438
76.4365
76.4349
76.4334
76.4318
76.4303
76.4287
76.4272
76.4256
76.4241
76.4225
76.421
76.4194
76.4179
76.4163
76.4148
76.4132
76.4117
76.4101
76.4086
76.407
76.4055
76.404
76.4024
76.4009
76.3993
76.3978
76.3962
76.3947
76.3931
76.3916
76.39
76.3885
76.3869
76.3854
76.3838
76.3823
76.3807
76.3792
76.3776
76.3761
76.3746
76.373
76.3715
76.3699
76.3684
76.3668
76.3653
76.3637
76.3637
79.1102
79.1102
78.2259
77.9926
77.924
77.8941
77.8765
77.8641
77.8544
77.8462
77.839
77.8325
77.8265
77.8209
77.8155
77.8103
77.8053
77.8005
77.7957
77.7911
77.7865
77.782
77.7776
77.7733
77.769
77.7648
77.7606
77.7565
77.7524
77.7484
77.7444
77.7405
77.7366
77.7328
77.729
77.7252
77.7215
77.7178
77.7142
77.7106
77.707
77.7035
77.7
77.6965
77.6931
77.6897
77.6864
77.683
77.6797
77.6764
77.6732
77.6699
77.6667
77.6636
77.6604
77.6573
77.6542
77.6511
77.6481
77.645
77.642
77.639
77.636
77.6331
77.6302
77.6272
77.6244
77.6215
77.6186
77.6158
77.613
77.6101
77.6074
77.6046
77.6018
77.5991
77.5964
77.5936
77.5909
77.5883
77.5856
77.5829
77.5803
77.5777
77.575
77.5724
77.5698
77.5673
77.5647
77.5621
77.5596
77.5571
77.5546
77.552
77.5495
77.5471
77.5446
77.5421
77.5397
77.5372
77.5348
77.5324
77.5299
77.5275
77.5251
77.5227
77.5204
77.518
77.5156
77.5133
77.5109
77.5086
77.5063
77.504
77.5016
77.4993
77.497
77.4948
77.4925
77.4902
77.4879
77.4857
77.4834
77.4812
77.479
77.4767
77.4745
77.4723
77.4701
77.4679
77.4657
77.4635
77.4613
77.4592