# vtk DataFile Version 2.0
FlowField
ASCII
DATASET STRUCTURED_GRID
DIMENSIONS 800 1 200
POINTS 160000 float
0 0 0
0.04 0 0
0.08 0 0
0.12 0 0
0.16 0 0
0.2 0 0
0.24 0 0
0.28 0 0
0.32 0 0
0.36 0 0
0.4 0 0
0.44 0 0
0.48 0 0
0.52 0 0
0.56 0 0
0.6 0 0
0.64 0 0
0.68 0 0
0.72 0 0
0.76 0 0
0.8 0 0
0.84 0 0
0.88 0 0
0.92 0 0
0.96 0 0
1 0 0
1.04 0 0
1.08 0 0
1.12 0 0
1.16 0 0
1.2 0 0
1.24 0 0
1.28 0 0
1.32 0 0
1.36 0 0
1.4 0 0
1.44 0 0
1.48 0 0
1.52 0 0
1.56 0 0
1.6 0 0
1.64 0 0
1.68 0 0
1.72 0 0
1.76 0 0
1.8 0 0
1.84 0 0
1.88 0 0
1.92 0 0
1.96 0 0
2 0 0
2.04 0 0
2.08 0 0
2.12 0 0
2.16 0 0
2.2 0 0
2.24 0 0
2.28 0 0
2.32 0 0
2.36 0 0
2.4 0 0
2.44 0 0
2.48 0 0
2.52 0 0
2.56 0 0
2.6 0 0
2.64 0 0
2.68 0 0
2.72 0 0
2.76 0 0
2.8 0 0
2.84 0 0
2.88 0 0
2.92 0 0
2.96 0 0
3 0 0
3.04 0 0
3.08 0 0
3.12 0 0
3.16 0 0
3.2 0 0
3.24 0 0
3.28 0 0
3.32 0 0
3.36 0 0
3.4 0 0
3.44 0 0
3.48 0 0
3.52 0 0
3.56 0 0
3.6 0 0
3.64 0 0
3.68 0 0
3.72 0 0
3.76 0 0
3.8 0 0
3.84 0 0
3.88 0 0
3.92 0 0
3.96 0 0
4 0 0
4.04 0 0
4.08 0 0
4.12 0 0
4.16 0 0
4.2 0 0
4.24 0 0
4.28 0 0
4.32 0 0
4.36 0 0
4.4 0 0
4.44 0 0
4.48 0 0
4.52 0 0
4.56 0 0
4.6 0 0
4.64 0 0
4.68 0 0
4.72 0 0
4.76 0 0
4.8 0 0
4.84 0 0
4.88 0 0
4.92 0 0
4.96 0 0
5 0 0
5.04 0 0
5.08 0 0
5.12 0 0
5.16 0 0
5.2 0 0
5.24 0 0
5.28 0 0
5.32 0 0
5.36 0 0
5.4 0 0
5.44 0 0
5.48 0 0
5.52 0 0
5.56 0 0
5.6 0 0
5.64 0 0
5.68 0 0
5.72 0 0
5.76 0 0
5.8 0 0
5.84 0 0
5.88 0 0
5.92 0 0
5.96 0 0
6 0 0
6.04 0 0
6.08 0 0
6.12 0 0
6.16 0 0
6.2 0 0
6.24 0 0
6.28 0 0
6.32 0 0
6.36 0 0
6.4 0 0
6.44 0 0
6.48 0 0
6.52 0 0
6.56 0 0
6.6 0 0
6.64 0 0
6.68 0 0
6.72 0 0
6.76 0 0
6.8 0 0
6.84 0 0
6.88 0 0
6.92 0 0
6.96 0 0
7 0 0
7.04 0 0
7.08 0 0
7.12 0 0
7.16 0 0
7.2 0 0
7.24 0 0
7.28 0 0
7.32 0 0
7.36 0 0
7.4 0 0
7.44 0 0
7.48 0 0
7.52 0 0
7.56 0 0
7.6 0 0
7.64 0 0
7.68 0 0
7.72 0 0
7.76 0 0
7.8 0 0
7.84 0 0
7.88 0 0
7.92 0 0
7.96 0 0
8 0 0
8.04 0 0
8.08 0 0
8.12 0 0
8.16 0 0
8.2 0 0
8.24 0 0
8.28 0 0
8.32 0 0
8.36 0 0
8.4 0 0
8.44 0 0
8.48 0 0
8.52 0 0
8.56 0 0
8.6 0 0
8.64 0 0
8.68 0 0
8.72 0 0
8.76 0 0
8.8 0 0
8.84 0 0
8.88 0 0
8.92 0 0
8.96 0 0
9 0 0
9.04 0 0
9.08 0 0
9.12 0 0
9.16 0 0
9.2 0 0
9.24 0 0
9.28 0 0
9.32 0 0
9.36 0 0
9.4 0 0
9.44 0 0
9.48 0 0
9.52 0 0
9.56 0 0
9.6 0 0
9.64 0 0
9.68 0 0
9.72 0 0
9.76 0 0
9.8 0 0
9.84 0 0
9.88 0 0
9.92 0 0
9.96 0 0
10 0 0
10.04 0 0
10.08 0 0
10.12 0 0
10.16 0 0
10.2 0 0
10.24 0 0
10.28 0 0
10.32 0 0
10.36 0 0
10.4 0 0
10.44 0 0
10.48 0 0
10.52 0 0
10.56 0 0
10.6 0 0
10.64 0 0
10.68 0 0
10.72 0 0
10.76 0 0
10.8 0 0
10.84 0 0
10.88 0 0
10.92 0 0
10.96 0 0
11 0 0
11.04 0 0
11.08 0 0
11.12 0 0
11.16 0 0
11.2 0 0
11.24 0 0
11.28 0 0
11.32 0 0
11.36 0 0
11.4 0 0
11.44 0 0
11.48 0 0
11.52 0 0
11.56 0 0
11.6 0 0
11.64 0 0
11.68 0 0
11.72 0 0
11.76 0 0
11.8 0 0
11.84 0 0
11.88 0 0
11.92 0 0
11.96 0 0
12 0 0
12.04 0 0
12.08 0 0
12.12 0 0
12.16 0 0
12.2 0 0
12.24 0 0
12.28 0 0
12.32 0 0
12.36 0 0
12.4 0 0
12.44 0 0
12.48 0 0
12.52 0 0
12.56 0 0
12.6 0 0
12.64 0 0
12.68 0 0
12.72 0 0
12.76 0 0
12.8 0 0
12.84 0 0
12.88 0 0
12.92 0 0
12.96 0 0
13 0 0
13.04 0 0
13.08 0 0
13.12 0 0
13.16 0 0
13.2 0 0
13.24 0 0
13.28 0 0
13.32 0 0
13.36 0 0
13.4 0 0
13.44 0 0
13.48 0 0
13.52 0 0
13.56 0 0
13.6 0 0
13.64 0 0
13.68 0 0
13.72 0 0
13.76 0 0
13.8 0 0
13.84 0 0
13.88 0 0
13.92 0 0
13.96 0 0
14 0 0
14.04 0 0
14.08 0 0
14.12 0 0
14.16 0 0
14.2 0 0
14.24 0 0
14.28 0 0
14.32 0 0
14.36 0 0
14.4 0 0
14.44 0 0
14.48 0 0
14.52 0 0
14.56 0 0
14.6 0 0
14.64 0 0
14.68 0 0
14.72 0 0
14.76 0 0
14.8 0 0
14.84 0 0
14.88 0 0
14.92 0 0
14.96 0 0
15 0 0
15.04 0 0
15.08 0 0
15.12 0 0
15.16 0 0
15.2 0 0
15.24 0 0
15.28 0 0
15.32 0 0
15.36 0 0
15.4 0 0
15.44 0 0
15.48 0 0
15.52 0 0
15.56 0 0
15.6 0 0
15.64 0 0
15.68 0 0
15.72 0 0
15.76 0 0
15.8 0 0
15.84 0 0
15.88 0 0
15.92 0 0
15.96 0 0
16 0 0
16.04 0 0
16.08 0 0
16.12 0 0
16.16 0 0
16.2 0 0
16.24 0 0
16.28 0 0
16.32 0 0
16.36 0 0
16.4 0 0
16.44 0 0
16.48 0 0
16.52 0 0
16.56 0 0
16.6 0 0
16.64 0 0
16.68 0 0
16.72 0 0
16.76 0 0
16.8 0 0
16.84 0 0
16.88 0 0
16.92 0 0
16.96 0 0
17 0 0
17.04 0 0
17.08 0 0
17.12 0 0
17.16 0 0
17.2 0 0
17.24 0 0
17.28 0 0
17.32 0 0
17.36 0 0
17.4 0 0
17.44 0 0
17.48 0 0
17.52 0 0
17.56 0 0
17.6 0 0
17.64 0 0
17.68 0 0
17.72 0 0
17.76 0 0
17.8 0 0
17.84 0 0
17.88 0 0
17.92 0 0
17.96 0 0
18 0 0
18.04 0 0
18.08 0 0
18.12 0 0
18.16 0 0
18.2 0 0
18.24 0 0
18.28 0 0
18.32 0 0
18.36 0 0
18.4 0 0
18.44 0 0
18.48 0 0
18.52 0 0
18.56 0 0
18.6 0 0
18.64 0 0
18.68 0 0
18.72 0 0
18.76 0 0
18.8 0 0
18.84 0 0
18.88 0 0
18.92 0 0
18.96 0 0
19 0 0
19.04 0 0
19.08 0 0
19.12 0 0
19.16 0 0
19.2 0 0
19.24 0 0
19.28 0 0
19.32 0 0
19.36 0 0
19.4 0 0
19.44 0 0
19.48 0 0
19.52 0 0
19.56 0 0
19.6 0 0
19.64 0 0
19.68 0 0
19.72 0 0
19.76 0 0
19.8 0 0
19.84 0 0
19.88 0 0
19.92 0 0
19.96 0 0
20 0 0
20.04 0 0
20.08 0 0
20.12 0 0
20.16 0 0
20.2 0 0
20.24 0 0
20.28 0 0
20.32 0 0
20.36 0 0
20.4 0 0
20.44 0 0
20.48 0 0
20.52 0 0
20.56 0 0
20.6 0 0
20.64 0 0
20.68 0 0
20.72 0 0
20.76 0 0
20.8 0 0
20.84 0 0
20.88 0 0
20.92 0 0
20.96 0 0
21 0 0
21.04 0 0
21.08 0 0
21.12 0 0
21.16 0 0
21.2 0 0
21.24 0 0
21.28 0 0
21.32 0 0
21.36 0 0
21.4 0 0
21.44 0 0
21.48 0 0
21.52 0 0
21.56 0 0
21.6 0 0
21.64 0 0
21.68 0 0
21.72 0 0
21.76 0 0
21.8 0 0
21.84 0 0
21.88 0 0
21.92 0 0
21.96 0 0
22 0 0
22.04 0 0
22.08 0 0
22.12 0 0
22.16 0 0
22.2 0 0
22.24 0 0
22.28 0 0
22.32 0 0
22.36 0 0
22.4 0 0
22.44 0 0
22.48 0 0
22.52 0 0
22.56 0 0
22.6 0 0
22.64 0 0
22.68 0 0
22.72 0 0
22.76 0 0
22.8 0 0
22.84 0 0
22.88 0 0
22.92 0 0
22.96 0 0
23 0 0
23.04 0 0
23.08 0 0
23.12 0 0
23.16 0 0
23.2 0 0
23.24 0 0
23.28 0 0
23.32 0 0
23.36 0 0
23.4 0 0
23.44 0 0
23.48 0 0
23.52 0 0
23.56 0 0
23.6 0 0
23.64 0 0
23.68 0 0
23.72 0 0
23.76 0 0
23.8 0 0
23.84 0 0
23.88 0 0
23.92 0 0
23.96 0 0
24 0 0
24.04 0 0
24.08 0 0
24.12 0 0
24.16 0 0
24.2 0 0
24.24 0 0
24.28 0 0
24.32 0 0
24.36 0 0
24.4 0 0
24.44 0 0
24.48 0 0
24.52 0 0
24.56 0 0
24.6 0 0
24.64 0 0
24.68 0 0
24.72 0 0
24.76 0 0
24.8 0 0
24.84 0 0
24.88 0 0
24.92 0 0
24.96 0 0
25 0 0
25.04 0 0
25.08 0 0
25.12 0 0
25.16 0 0
25.2 0 0
25.24 0 0
25.28 0 0
25.32 0 0
25.36 0 0
25.4 0 0
25.44 0 0
25.48 0 0
25.52 0 0
25.56 0 0
25.6 0 0
25.64 0 0
25.68 0 0
25.72 0 0
25.76 0 0
25.8 0 0
25.84 0 0
25.88 0 0
25.92 0 0
25.96 0 0
26 0 0
26.04 0 0
26.08 0 0
26.12 0 0
26.16 0 0
26.2 0 0
26.24 0 0
26.28 0 0
26.32 0 0
26.36 0 0
26.4 0 0
26.44 0 0
26.48 0 0
26.52 0 0
26.56 0 0
26.6 0 0
26.64 0 0
26.68 0 0
26.72 0 0
26.76 0 0
26.8 0 0
26.84 0 0
26.88 0 0
26.92 0 0
26.96 0 0
27 0 0
27.04 0 0
27.08 0 0
27.12 0 0
27.16 0 0
27.2 0 0
27.24 0 0
27.28 0 0
27.32 0 0
27.36 0 0
27.4 0 0
27.44 0 0
27.48 0 0
27.52 0 0
27.56 0 0
27.6 0 0
27.64 0 0
27.68 0 0
27.72 0 0
27.76 0 0
27.8 0 0
27.84 0 0
27.88 0 0
27.92 0 0
27.96 0 0
28 0 0
28.04 0 0
28.08 0 0
28.12 0 0
28.16 0 0
28.2 0 0
28.24 0 0
28.28 0 0
28.32 0 0
28.36 0 0
28.4 0 0
28.44 0 0
28.48 0 0
28.52 0 0
28.56 0 0
28.6 0 0
28.64 0 0
28.68 0 0
28.72 0 0
28.76 0 0
28.8 0 0
28.84 0 0
28.88 0 0
28.92 0 0
28.96 0 0
29 0 0
29.04 0 0
29.08 0 0
29.12 0 0
29.16 0 0
29.2 0 0
29.24 0 0
29.28 0 0
29.32 0 0
29.36 0 0
29.4 0 0
29.44 0 0
29.48 0 0
29.52 0 0
29.56 0 0
29.6 0 0
29.64 0 0
29.68 0 0
29.72 0 0
29.76 0 0
29.8 0 0
29.84 0 0
29.88 0 0
29.92 0 0
29.96 0 0
30 0 0
30.04 0 0
30.08 0 0
30.12 0 0
30.16 0 0
30.2 0 0
30.24 0 0
30.28 0 0
30.32 0 0
30.36 0 0
30.4 0 0
30.44 0 0
30.48 0 0
30.52 0 0
30.56 0 0
30.6 0 0
30.64 0 0
30.68 0 0
30.72 0 0
30.76 0 0
30.8 0 0
30.84 0 0
30.88 0 0
30.92 0 0
30.96 0 0
31 0 0
31.04 0 0
31.08 0 0
31.12 0 0
31.16 0 0
31.2 0 0
31.24 0 0
31.28 0 0
31.32 0 0
31.36 0 0
31.4 0 0
31.44 0 0
31.48 0 0
31.52 0 0
31.56 0 0
31.6 0 0
31.64 0 0
31.68 0 0
31.72 0 0
31.76 0 0
31.8 0 0
31.84 0 0
31.88 0 0
31.92 0 0
31.96 0 0
0 0.005 0
0.04 0.005 0
0.08 0.005 0
0.12 0.005 0
0.16 0.005 0
0.2 0.005 0
0.24 0.005 0
0.28 0.005 0
0.32 0.005 0
0.36 0.005 0
0.4 0.005 0
0.44 0.005 0
0.48 0.005 0
0.52 0.005 0
0.56 0.005 0
0.6 0.005 0
0.64 0.005 0
0.68 0.005 0
0.72 0.005 0
0.76 0.005 0
0.8 0.005 0
0.84 0.005 0
0.88 0.005 0
0.92 0.005 0
0.96 0.005 0
1 0.005 0
1.04 0.005 0
1.08 0.005 0
1.12 0.005 0
1.16 0.005 0
1.2 0.005 0
1.24 0.005 0
1.28 0.005 0
1.32 0.005 0
1.36 0.005 0
1.4 0.005 0
1.44 0.005 0
1.48 0.005 0
1.52 0.005 0
1.56 0.005 0
1.6 0.005 0
1.64 0.005 0
1.68 0.005 0
1.72 0.005 0
1.76 0.005 0
1.8 0.005 0
1.84 0.005 0
1.88 0.005 0
1.92 0.005 0
1.96 0.005 0
2 0.005 0
2.04 0.005 0
2.08 0.005 0
2.12 0.005 0
2.16 0.005 0
2.2 0.005 0
2.24 0.005 0
2.28 0.005 0
2.32 0.005 0
2.36 0.005 0
2.4 0.005 0
2.44 0.005 0
2.48 0.005 0
2.52 0.005 0
2.56 0.005 0
2.6 0.005 0
2.64 0.005 0
2.68 0.005 0
2.72 0.005 0
2.76 0.005 0
2.8 0.005 0
2.84 0.005 0
2.88 0.005 0
2.92 0.005 0
2.96 0.005 0
3 0.005 0
3.04 0.005 0
3.08 0.005 0
3.12 0.005 0
3.16 0.005 0
3.2 0.005 0
3.24 0.005 0
3.28 0.005 0
3.32 0.005 0
3.36 0.005 0
3.4 0.005 0
3.44 0.005 0
3.48 0.005 0
3.52 0.005 0
3.56 0.005 0
3.6 0.005 0
3.64 0.005 0
3.68 0.005 0
3.72 0.005 0
3.76 0.005 0
3.8 0.005 0
3.84 0.005 0
3.88 0.005 0
3.92 0.005 0
3.96 0.005 0
4 0.005 0
4.04 0.005 0
4.08 0.005 0
4.12 0.005 0
4.16 0.005 0
4.2 0.005 0
4.24 0.005 0
4.28 0.005 0
4.32 0.005 0
4.36 0.005 0
4.4 0.005 0
4.44 0.005 0
4.48 0.005 0
4.52 0.005 0
4.56 0.005 0
4.6 0.005 0
4.64 0.005 0
4.68 0.005 0
4.72 0.005 0
4.76 0.005 0
4.8 0.005 0
4.84 0.005 0
4.88 0.005 0
4.92 0.005 0
4.96 0.005 0
5 0.005 0
5.04 0.005 0
5.08 0.005 0
5.12 0.005 0
5.16 0.005 0
5.2 0.005 0
5.24 0.005 0
5.28 0.005 0
5.32 0.005 0
5.36 0.005 0
5.4 0.005 0
5.44 0.005 0
5.48 0.005 0
5.52 0.005 0
5.56 0.005 0
5.6 0.005 0
5.64 0.005 0
5.68 0.005 0
5.72 0.005 0
5.76 0.005 0
5.8 0.005 0
5.84 0.005 0
5.88 0.005 0
5.92 0.005 0
5.96 0.005 0
6 0.005 0
6.04 0.005 0
6.08 0.005 0
6.12 0.005 0
6.16 0.005 0
6.2 0.005 0
6.24 0.005 0
6.28 0.005 0
6.32 0.005 0
6.36 0.005 0
6.4 0.005 0
6.44 0.005 0
6.48 0.005 0
6.52 0.005 0
6.56 0.005 0
6.6 0.005 0
6.64 0.005 0
6.68 0.005 0
6.72 0.005 0
6.76 0.005 0
6.8 0.005 0
6.84 0.005 0
6.88 0.005 0
6.92 0.005 0
6.96 0.005 0
7 0.005 0
7.04 0.005 0
7.08 0.005 0
7.12 0.005 0
7.16 0.005 0
7.2 0.005 0
7.24 0.005 0
7.28 0.005 0
7.32 0.005 0
7.36 0.005 0
7.4 0.005 0
[...]
POINT_DATA 160000

SCALARS v float 1
LOOKUP_TABLE default
0
0
0
0
0
0
0
0
0
0
0
0
0
0
0
0
0
0
0
0
0
0
0
0
0
0
0
0
0
0
0
0
0
0
0
0
0
0
0
0
0
0
0
0
0
0
0
0
0
0
0
0
0
0
0
0
0
0
0
0
0
0
0
0
0
0
0
0
0
0
0
0
0
0
0
0
0
0
0
0
0
0
0
0
0
0
0
0
0
0
0
0
0
0
0
0
0
0
0
0
0
0
0
0
0
0
0
0
0
0
0
0
0
0
0
0
0
0
0
0
0
0
0
0
0
0
0
0
0
0
0
0
0
0
0
0
0
0
0
0
0
0
0
0
0
0
0
0
0
0
0
0
0
0
0
0
0
0
0
0
0
0
0
0
0
0
0
0
0
0
0
0
0
0
0
0
0
0
0
0
0
0
0
0
0
0
0
0
0
0
0
0
0
0
0
0
0
0
0
0
0
0
0
0
0
0
0
0
0
0
0
0
0
0
0
0
0
0
0
0
0
0
0
0
0
0
0
0
0
0
0
0
0
0
0
0
0
0
0
0
0
0
0
0
0
0
0
0
0
0
0
0
0
0
0
0
0
0
0
0
0
0
0
0
0
0
0
0
0
0
0
0
0
0
0
0
0
0
0
0
0
0
0
0
0
0
0
0
0
0
0
0
0
0
0
0
0
0
0
0
0
0
0
0
0
0
0
0
0
0
0
0
0
0
0
0
0
0
0
0
0
0
0
0
0
0
0
0
0
0
0
0
0
0
0
0
0
0
0
0
0
0
0
0
0
0
0
0
0
0
0
0
0
0
0
0
0
0
0
0
0
0
0
0
0
0
0
0
0
0
0
0
0
0
0
0
0
0
0
0
0
0
0
0
0
0
0
0
0
0
0
0
0
0
0
0
0
0
0
0
0
0
0
0
0
0
0
0
0
0
0
0
0
0
0
0
0
0
0
0
0
0
0
0
0
0
0
0
0
0
0
0
0
0
0
0
0
0
0
0
0
0
0
0
0
0
0
0
0
0
0
0
0
0
0
0
0
0
0
0
0
0
0
0
0
0
0
0
0
0
0
0
0
0
0
0
0
0
0
0
0
0
0
0
0
0
0
0
0
0
0
0
0
0
0
0
0
0
0
0
0
0
0
0
0
0
0
0
0
0
0
0
0
0
0
0
0
0
0
0
0
0
0
0
0
0
0
0
0
0
0
0
0
0
0
0
0
0
0
0
0
0
0
0
0
0
0
0
0
0
0
0
0
0
0
0
0
0
0
0
0
0
0
0
0
0
0
0
0
0
0
0
0
0
0
0
0
0
0
0
0
0
0
0
0
0
0
0
0
0
0
0
0
0
0
0
0
0
0
0
0
0
0
0
0
0
0
0
0
0
0
0
0
0
0
0
0
0
0
0
0
0
0
0
0
0
0
0
0
0
0
0
0
0
0
0
0
0
0
0
0
0
0
0
0
0
0
0
0
0
0
0
0
0
0
0
0
0
0
0
0
0
0
0
0
0
0
0
0
0
0
0
0
0
0
0
0
0
0
0
0
0
0
0
0
0
0
0
0
0
0
0
0
0
0
0
0
0
0
0
0
0
0
0
0
0
0
0
0
0
0
0
0
0
0
0
0
0
0
0
0
0
0
0
0
0
0
0
0
0
0
0
0
0
0
0
0
0
0
0
0
0
0
0
0
0
0
0
0
0
0
0
0
0
0
0
0
0
0
0
0
0
0
0
0
0
0
0
0
0
0
0
0
0
0
0
0
0
0
0
0
0
0
0
0
0
0
0
0
0
0
0
0
0
0
0
0
0
0
0
0
0
0.0374154
0.00938075
0.00346759
0.00176598
0.0010805
0.000736738
0.00053796
0.000411415
0.000325216
0.000263527
0.000217705
0.000182674
0.000155273
0.000133436
0.000115763
0.000101272
8.9253e-05
7.91849e-05
7.0675e-05
6.34229e-05
5.7196e-05
5.18118e-05
4.71252e-05
4.30205e-05
3.9404e-05
3.61999e-05
3.3346e-05
3.0791e-05
2.84928e-05
2.64162e-05
2.45317e-05
2.28147e-05
2.12445e-05
1.98033e-05
1.84762e-05
1.72504e-05
1.61148e-05
1.506e-05
1.40778e-05
1.31611e-05
1.23036e-05
1.14999e-05
1.07452e-05
1.00352e-05
9.36619e-06
8.73485e-06
8.13817e-06
7.5735e-06
7.03842e-06
6.53077e-06
6.0486e-06
5.59013e-06
5.15374e-06
4.73798e-06
4.34148e-06
3.96303e-06
3.60149e-06
3.25584e-06
2.9251e-06
2.6084e-06
2.30492e-06
2.01391e-06
1.73467e-06
1.46655e-06
1.20894e-06
9.61275e-07
7.2304e-07
4.93741e-07
2.72918e-07
6.01444e-08
-1.4498e-07
-3.42831e-07
-5.3376e-07
-7.18101e-07
-8.96163e-07
-1.06824e-06
-1.2346e-06
-1.39552e-06
-1.55122e-06
-1.70195e-06
-1.84792e-06
-1.98934e-06
-2.1264e-06
-2.25929e-06
-2.38817e-06
-2.51323e-06
-2.63461e-06
-2.75246e-06
-2.86692e-06
-2.97813e-06
-3.08622e-06
-3.1913e-06
-3.29349e-06
-3.3929e-06
-3.48964e-06
-3.5838e-06
-3.67549e-06
-3.76478e-06
-3.85176e-06
-3.93653e-06
-4.01915e-06
-4.09971e-06
-4.17827e-06
-4.25491e-06
-4.32968e-06
-4.40266e-06
-4.4739e-06
-4.54346e-06
-4.61139e-06
-4.67776e-06
-4.7426e-06
-4.80598e-06
-4.86792e-06
-4.92849e-06
-4.98773e-06
-5.04566e-06
-5.10235e-06
-5.15782e-06
-5.21211e-06
-5.26525e-06
-5.31729e-06
-5.36824e-06
-5.41815e-06
-5.46705e-06
-5.51496e-06
-5.56192e-06
-5.60794e-06
-5.65306e-06
-5.6973e-06
-5.74069e-06
-5.78325e-06
-5.825e-06
-5.86597e-06
-5.90617e-06
-5.94563e-06
-5.98437e-06
-6.02239e-06
-6.05974e-06
-6.09641e-06
-6.13243e-06
-6.16782e-06
-6.20259e-06
-6.23676e-06
-6.27035e-06
-6.30336e-06
-6.33581e-06
-6.36772e-06
-6.3991e-06
-6.42996e-06
-6.46032e-06
-6.49018e-06
-6.51956e-06
-6.54847e-06
-6.57693e-06
-6.60494e-06
-6.63251e-06
-6.65965e-06
-6.68638e-06
-6.7127e-06
-6.73863e-06
-6.76418e-06
-6.78935e-06
-6.81414e-06
-6.83858e-06
-6.86267e-06
-6.88642e-06
-6.90985e-06
-6.93295e-06
-6.95574e-06
-6.97823e-06
-7.00044e-06
-7.02237e-06
-7.04403e-06
-7.06543e-06
-7.08659e-06
-7.10753e-06
-7.12825e-06
-7.14877e-06
-7.16911e-06
-7.18927e-06
-7.20929e-06
-7.22916e-06
-7.24891e-06
-7.26855e-06
-7.28811e-06
-7.30759e-06
-7.32702e-06
-7.34641e-06
-7.36577e-06
-7.38511e-06
-7.40446e-06
-7.42382e-06
-7.44321e-06
-7.46263e-06
-7.48209e-06
-7.50159e-06
-7.52115e-06
-7.54076e-06
-7.56044e-06
-7.58016e-06
-7.59994e-06
-7.61977e-06
-7.63965e-06
-7.65957e-06
-7.67952e-06
-7.69949e-06
-7.71948e-06
-7.73947e-06
-7.75946e-06
-7.77943e-06
-7.79937e-06
-7.81928e-06
-7.83913e-06
-7.85892e-06
-7.87864e-06
-7.89828e-06
-7.91782e-06
-7.93726e-06
-7.95658e-06
-7.97578e-06
-7.99485e-06
-8.01379e-06
-8.03257e-06
-8.05121e-06
-8.06968e-06
-8.08799e-06
-8.10614e-06
-8.12411e-06
-8.1419e-06
-8.15951e-06
-8.17694e-06
-8.19417e-06
-8.21122e-06
-8.22806e-06
-8.2447e-06
-8.26114e-06
-8.27738e-06
-8.29341e-06
-8.30924e-06
-8.32485e-06
-8.34025e-06
-8.35543e-06
-8.3704e-06
-8.38515e-06
-8.39969e-06
-8.414e-06
-8.42809e-06
-8.44196e-06
-8.4556e-06
-8.46901e-06
-8.4822e-06
-8.49517e-06
-8.5079e-06
-8.52041e-06
-8.53269e-06
-8.54474e-06
-8.55656e-06
-8.56815e-06
-8.57952e-06
-8.59066e-06
-8.60157e-06
-8.61226e-06
-8.62272e-06
-8.63295e-06
-8.64296e-06
-8.65275e-06
-8.66231e-06
-8.67166e-06
-8.68078e-06
-8.68969e-06
-8.69838e-06
-8.70686e-06
-8.71512e-06
-8.72318e-06
-8.73102e-06
-8.73866e-06
-8.7461e-06
-8.75333e-06
-8.76036e-06
-8.76719e-06
-8.77383e-06
-8.78027e-06
-8.78651e-06
-8.79257e-06
-8.79844e-06
-8.80411e-06
-8.8096e-06
-8.81491e-06
-8.82004e-06
-8.82499e-06
-8.82977e-06
-8.83438e-06
-8.83881e-06
-8.84309e-06
-8.8472e-06
-8.85117e-06
-8.85498e-06
-8.85865e-06
-8.86217e-06
-8.86556e-06
-8.86881e-06
-8.87193e-06
-8.87491e-06
-8.87776e-06
-8.88046e-06
-8.88302e-06
-8.88543e-06
-8.88769e-06
-8.88979e-06
-8.89173e-06
-8.89351e-06
-8.89513e-06
-8.89659e-06
-8.8979e-06
-8.89906e-06
-8.90007e-06
-8.90096e-06
-8.90173e-06
-8.90239e-06
-8.90296e-06
-8.90345e-06
-8.90385e-06
-8.9042e-06
-8.9045e-06
-8.90476e-06
-8.90499e-06
-8.90518e-06
-8.90536e-06
-8.90552e-06
-8.90566e-06
-8.9058e-06
-8.90593e-06
-8.90605e-06
-8.90617e-06
-8.90628e-06
-8.9064e-06
-8.90651e-06
-8.90663e-06
-8.90674e-06
-8.90685e-06
-8.90696e-06
-8.90708e-06
-8.90719e-06
-8.90731e-06
-8.90743e-06
-8.90755e-06
-8.90766e-06
-8.90778e-06
-8.9079e-06
-8.90802e-06
-8.90814e-06
-8.90826e-06
-8.90837e-06
-8.90849e-06
-8.90861e-06
-8.90873e-06
-8.90885e-06
-8.90897e-06
-8.90909e-06
-8.9092e-06
-8.90932e-06
-8.90944e-06
-8.90956e-06
-8.90968e-06
-8.9098e-06
-8.90991e-06
-8.91003e-06
-8.91015e-06
-8.91027e-06
-8.91038e-06
-8.9105e-06
-8.91062e-06
-8.91074e-06
-8.91086e-06
-8.91097e-06
-8.9111e-06
-8.91122e-06
-8.91134e-06
-8.91145e-06
-8.91157e-06
-8.91169e-06
-8.91181e-06
-8.91193e-06
-8.91205e-06
-8.91216e-06
-8.91228e-06
-8.9124e-06
-8.91252e-06
-8.91264e-06
-8.91276e-06
-8.91288e-06
-8.91299e-06
-8.91311e-06
-8.91323e-06
-8.91335e-06
-8.91347e-06
-8.91358e-06
-8.9137e-06
-8.91382e-06
-8.91394e-06
-8.91406e-06
-8.91418e-06
-8.9143e-06
-8.91442e-06
-8.91454e-06
-8.91465e-06
-8.91477e-06
-8.91489e-06
-8.91501e-06
-8.91513e-06
-8.91525e-06
-8.91537e-06
-8.91549e-06
-8.91561e-06
-8.91573e-06
-8.91585e-06
-8.91597e-06
-8.91608e-06
-8.9162e-06
-8.91632e-06
-8.91644e-06
-8.91656e-06
-8.91668e-06
-8.9168e-06
-8.91692e-06
-8.91704e-06
-8.91716e-06
-8.91727e-06
-8.91739e-06
-8.91751e-06
-8.91764e-06
-8.91776e-06
-8.91787e-06
-8.91799e-06
-8.91811e-06
-8.91823e-06
-8.91835e-06
-8.91847e-06
-8.91859e-06
-8.91871e-06
-8.91882e-06
-8.91894e-06
-8.91907e-06
-8.91919e-06
-8.91931e-06
-8.91943e-06
-8.91955e-06
-8.91966e-06
-8.91978e-06
-8.91991e-06
-8.92002e-06
-8.92014e-06
-8.92026e-06
-8.92038e-06
-8.9205e-06
-8.92062e-06
-8.92074e-06
-8.92086e-06
-8.92098e-06
-8.9211e-06
-8.92122e-06
-8.92134e-06
-8.92146e-06
-8.92158e-06
-8.9217e-06
-8.92182e-06
-8.92194e-06
-8.92206e-06
-8.92218e-06
-8.9223e-06
-8.92242e-06
-8.92254e-06
-8.92266e-06
-8.92278e-06
-8.9229e-06
-8.92302e-06
-8.92314e-06
-8.92326e-06
-8.92338e-06
-8.9235e-06
-8.92362e-06
-8.92374e-06
-8.92386e-06
-8.92398e-06
-8.9241e-06
-8.92422e-06
-8.92434e-06
-8.92446e-06
-8.92458e-06
-8.9247e-06
-8.92482e-06
-8.92494e-06
-8.92506e-06
-8.92518e-06
-8.9253e-06
-8.92542e-06
-8.92554e-06
-8.92567e-06
-8.92578e-06
-8.9259e-06
-8.92602e-06
-8.92614e-06
-8.92627e-06
-8.92639e-06
-8.92651e-06
-8.92663e-06
-8.92675e-06
-8.92687e-06
-8.92699e-06
-8.92711e-06
-8.92723e-06
-8.92735e-06
-8.92747e-06
-8.92759e-06
-8.92771e-06
-8.92783e-06
-8.92795e-06
-8.92808e-06
-8.9282e-06
-8.92832e-06
-8.92844e-06
-8.92855e-06
-8.92868e-06
-8.9288e-06
-8.92892e-06
-8.92904e-06
-8.92916e-06
-8.92928e-06
-8.92941e-06
-8.92953e-06
-8.92965e-06
-8.92977e-06
-8.92989e-06
-8.93001e-06
-8.93013e-06
-8.93025e-06
-8.93037e-06
-8.9305e-06
-8.93062e-06
-8.93073e-06
-8.93085e-06
-8.93098e-06
-8.9311e-06
-8.93122e-06
-8.93134e-06
-8.93147e-06
-8.93158e-06
-8.9317e-06
-8.93183e-06
-8.93195e-06
-8.93207e-06
-8.93219e-06
-8.93231e-06
-8.93243e-06
-8.93255e-06
-8.93267e-06
-8.9328e-06
-8.93292e-06
-8.93304e-06
-8.93316e-06
-8.93328e-06
-8.93341e-06
-8.93353e-06
-8.93364e-06
-8.93377e-06
-8.93389e-06
-8.93401e-06
-8.93414e-06
-8.93426e-06
-8.93437e-06
-8.9345e-06
-8.93462e-06
-8.93474e-06
-8.93487e-06
-8.93499e-06
-8.93511e-06
-8.93523e-06
-8.93535e-06
-8.93547e-06
-8.9356e-06
-8.93572e-06
-8.93584e-06
-8.93596e-06
-8.93608e-06
-8.9362e-06
-8.93633e-06
-8.93645e-06
-8.93657e-06
-8.93669e-06
-8.93681e-06
-8.93693e-06
-8.93706e-06
-8.93718e-06
-8.9373e-06
-8.93742e-06
-8.93755e-06
-8.93767e-06
-8.93779e-06
-8.93791e-06
-8.93803e-06
-8.93816e-06
-8.93828e-06
-8.9384e-06
-8.93852e-06
-8.93864e-06
-8.93877e-06
-8.93889e-06
-8.93901e-06
-8.93913e-06
-8.93926e-06
-8.93938e-06
-8.9395e-06
-8.93962e-06
-8.93975e-06
-8.93987e-06
-8.93999e-06
-8.94011e-06
-8.94024e-06
-8.94036e-06
-8.94048e-06
-8.9406e-06
-8.94073e-06
-8.94085e-06
-8.94097e-06
-8.94109e-06
-8.94121e-06
-8.94134e-06
-8.94146e-06
-8.94159e-06
-8.94171e-06
-8.94183e-06
-8.94195e-06
-8.94207e-06
-8.94219e-06
-8.94232e-06
-8.94244e-06
-8.94256e-06
-8.94269e-06
-8.94281e-06
-8.94293e-06
-8.94305e-06
-8.94318e-06
-8.9433e-06
-8.94342e-06
-8.94355e-06
-8.94367e-06
-8.9438e-06
-8.94392e-06
-8.94404e-06
-8.94416e-06
-8.94428e-06
-8.94441e-06
-8.94453e-06
-8.94466e-06
-8.94478e-06
-8.9449e-06
-8.94502e-06
-8.94515e-06
-8.94527e-06
-8.94539e-06
-8.94552e-06
-8.94564e-06
-8.94576e-06
-8.94589e-06
-8.94601e-06
-8.94613e-06
-8.94625e-06
-8.94638e-06
-8.9465e-06
-8.94663e-06
-8.94675e-06
-8.94687e-06
-8.947e-06
-8.94712e-06
-8.94724e-06
-8.94737e-06
-8.94749e-06
-8.94761e-06
-8.94774e-06
-8.94786e-06
-8.94798e-06
-8.9481e-06
-8.94823e-06
-8.94835e-06
-8.94848e-06
-8.9486e-06
-8.94873e-06
-8.94885e-06
-8.94897e-06
-8.94909e-06
-8.94922e-06
-8.94934e-06
-8.94947e-06
-8.94959e-06
-8.94972e-06
-8.94984e-06
-8.94996e-06
-8.95009e-06
-8.95021e-06
-8.95034e-06
-8.95046e-06
-8.95058e-06
-8.95071e-06
-8.95083e-06
-8.95095e-06
-8.95108e-06
-8.9512e-06
-8.95133e-06
-8.95145e-06
-8.95158e-06
-8.9517e-06
-8.95182e-06
-8.95195e-06
-8.95207e-06
-8.95219e-06
-8.95232e-06
-8.95244e-06
-8.95257e-06
-8.95269e-06
-8.95281e-06
-8.95294e-06
-8.95306e-06
-8.95319e-06
-8.95331e-06
-8.95344e-06
-8.95356e-06
-8.95368e-06
-8.95381e-06
-8.95393e-06
-8.95406e-06
-8.95418e-06
-8.95431e-06
-8.95443e-06
-8.95456e-06
-8.95468e-06
-8.9548e-06
-8.95493e-06
-8.95505e-06
-8.95518e-06
-8.95531e-06
-8.95543e-06
-8.95555e-06
-8.95568e-06
-8.9558e-06
-8.95593e-06
-8.95605e-06
-8.95617e-06
-8.9563e-06
-8.95642e-06
-8.95654e-06
-8.95667e-06
-8.9568e-06
-8.95692e-06
-8.95704e-06
-8.95717e-06
-8.95729e-06
-8.95741e-06
-8.95754e-06
-8.95766e-06
-8.95778e-06
-8.9579e-06
-8.95802e-06
-8.95813e-06
-8.95825e-06
-8.95837e-06
-8.95848e-06
-8.95858e-06
-8.95868e-06
-8.95878e-06
-8.95886e-06
-8.95894e-06
-8.95901e-06
-8.95906e-06
-8.95909e-06
-8.95909e-06
-8.95907e-06
-8.959e-06
-8.95888e-06
-8.95869e-06
-8.95844e-06
-8.95806e-06
-8.95757e-06
-8.95688e-06
-8.95604e-06
-8.95482e-06
-8.95344e-06
-8.9513e-06
-8.9491e-06
-8.94529e-06
-8.94196e-06
-8.93472e-06
-8.93047e-06
-8.91451e-06
-8.91424e-06
-8.86643e-06
-8.95161e-06
-6.325e-06
-6.325e-06
0
0
0.0966095
0.0320522
0.0130057
0.00682592
0.00423562
0.00291368
0.00214204
0.00164796
0.00131009
0.00106761
0.000887103
0.000748854
0.000640549
0.000554126
0.0004841
0.00042662
0.000378905
0.000338901
0.000305064
0.000276211
0.000251424
0.000229981
0.00021131
0.000194953
0.00018054
0.000167768
0.000156391
0.000146206
0.000137046
0.000128769
0.00012126
0.000114419
0.000108164
0.000102424
9.71406e-05
9.22612e-05
8.77422e-05
8.35458e-05
7.96391e-05
7.59937e-05
7.25847e-05
6.93902e-05
6.63911e-05
6.35703e-05
6.0913e-05
5.84057e-05
5.60366e-05
5.37948e-05
5.1671e-05
4.96563e-05
4.77429e-05
4.59239e-05
4.41927e-05
4.25435e-05
4.09709e-05
3.94701e-05
3.80364e-05
3.66658e-05
3.53546e-05
3.4099e-05
3.2896e-05
3.17425e-05
3.06357e-05
2.9573e-05
2.85521e-05
2.75707e-05
2.66266e-05
2.5718e-05
2.48431e-05
2.4e-05
2.31874e-05
2.24035e-05
2.16471e-05
2.09169e-05
2.02115e-05
1.95299e-05
1.88709e-05
1.82336e-05
1.76168e-05
1.70199e-05
1.64417e-05
1.58817e-05
1.53388e-05
1.48126e-05
1.43022e-05
1.38069e-05
1.33263e-05
1.28596e-05
1.24064e-05
1.1966e-05
1.1538e-05
1.11219e-05
1.07173e-05
1.03237e-05
9.9407e-06
9.56789e-06
9.20491e-06
8.8514e-06
8.50701e-06
8.17143e-06
7.84433e-06
7.52542e-06
7.21441e-06
6.91104e-06
6.61503e-06
6.32615e-06
6.04415e-06
5.7688e-06
5.49989e-06
5.23719e-06
4.98052e-06
4.72968e-06
4.48448e-06
4.24474e-06
4.01029e-06
3.78097e-06
3.55662e-06
3.33709e-06
3.12222e-06
2.91189e-06
2.70595e-06
2.50429e-06
2.30675e-06
2.11324e-06
1.92363e-06
1.73781e-06
1.55567e-06
1.37711e-06
1.20202e-06
1.03032e-06
8.61905e-07
6.96688e-07
5.34578e-07
3.75491e-07
2.19349e-07
6.60747e-08
-8.441e-08
-2.32179e-07
-3.77304e-07
-5.19852e-07
-6.59891e-07
-7.97485e-07
-9.32698e-07
-1.06559e-06
-1.19622e-06
-1.32464e-06
-1.45091e-06
-1.57508e-06
-1.6972e-06
-1.81733e-06
-1.93551e-06
-2.05179e-06
-2.16622e-06
-2.27885e-06
-2.3897e-06
-2.49884e-06
-2.60629e-06
-2.71211e-06
-2.81633e-06
-2.91899e-06
-3.02014e-06
-3.1198e-06
-3.21801e-06
-3.31483e-06
-3.41028e-06
-3.5044e-06
-3.59724e-06
-3.68883e-06
-3.77921e-06
-3.86843e-06
-3.95653e-06
-4.04356e-06
-4.12956e-06
-4.21458e-06
-4.29868e-06
-4.38191e-06
-4.46432e-06
-4.54597e-06
-4.62693e-06
-4.70725e-06
-4.787e-06
-4.86624e-06
-4.94503e-06
-5.02345e-06
-5.10155e-06
-5.1794e-06
-5.25707e-06
-5.3346e-06
-5.41207e-06
-5.48951e-06
-5.56699e-06
-5.64454e-06
-5.72221e-06
-5.80003e-06
-5.87803e-06
-5.95622e-06
-6.03463e-06
-6.11326e-06
-6.19211e-06
-6.27118e-06
-6.35046e-06
-6.42993e-06
-6.50957e-06
-6.58935e-06
-6.66924e-06
-6.7492e-06
-6.8292e-06
-6.9092e-06
-6.98915e-06
-7.06901e-06
-7.14873e-06
-7.22827e-06
-7.30759e-06
-7.38662e-06
-7.46535e-06
-7.54371e-06
-7.62167e-06
-7.69919e-06
-7.77623e-06
-7.85277e-06
-7.92876e-06
-8.00418e-06
-8.07899e-06
-8.15318e-06
-8.22672e-06
-8.29958e-06
-8.37176e-06
-8.44322e-06
-8.51396e-06
-8.58395e-06
-8.65318e-06
-8.72164e-06
-8.78931e-06
-8.85618e-06
-8.92224e-06
-8.98749e-06
-9.0519e-06
-9.11548e-06
-9.17822e-06
-9.24009e-06
-9.30111e-06
-9.36126e-06
-9.42053e-06
-9.47892e-06
-9.53643e-06
-9.59304e-06
-9.64876e-06
-9.70357e-06
-9.75749e-06
-9.81049e-06
-9.86258e-06
-9.91375e-06
-9.96401e-06
-1.00134e-05
-1.00618e-05
-1.01093e-05
-1.01559e-05
-1.02016e-05
-1.02463e-05
-1.02902e-05
-1.03331e-05
-1.03751e-05
-1.04162e-05
-1.04565e-05
-1.04958e-05
-1.05342e-05
-1.05718e-05
-1.06084e-05
-1.06442e-05
-1.06791e-05
-1.07132e-05
-1.07464e-05
-1.07787e-05
-1.08102e-05
-1.08409e-05
-1.08707e-05
-1.08998e-05
-1.0928e-05
-1.09554e-05
-1.0982e-05
-1.10078e-05
-1.10329e-05
-1.10572e-05
-1.10807e-05
-1.11034e-05
-1.11254e-05
-1.11467e-05
-1.11673e-05
-1.11871e-05
-1.12062e-05
-1.12246e-05
-1.12424e-05
-1.12594e-05
-1.12758e-05
-1.12916e-05
-1.13068e-05
-1.13214e-05
-1.13354e-05
-1.13488e-05
-1.13617e-05
-1.1374e-05
-1.13858e-05
-1.1397e-05
-1.14077e-05
-1.14178e-05
-1.14273e-05
-1.14362e-05
-1.14445e-05
-1.14522e-05
-1.14593e-05
-1.14657e-05
-1.14715e-05
-1.14767e-05
-1.14813e-05
-1.14853e-05
-1.14888e-05
-1.14918e-05
-1.14943e-05
-1.14965e-05
-1.14983e-05
-1.14998e-05
-1.1501e-05
-1.1502e-05
-1.15028e-05
-1.15035e-05
-1.1504e-05
-1.15044e-05
-1.15048e-05
-1.15051e-05
-1.15053e-05
-1.15055e-05
-1.15057e-05
-1.15059e-05
-1.1506e-05
-1.15062e-05
-1.15063e-05
-1.15065e-05
-1.15066e-05
-1.15067e-05
-1.15069e-05
-1.1507e-05
-1.15072e-05
-1.15073e-05
-1.15074e-05
-1.15076e-05
-1.15077e-05
-1.15079e-05
-1.15081e-05
-1.15082e-05
-1.15084e-05
-1.15085e-05
-1.15087e-05
-1.15088e-05
-1.1509e-05
-1.15092e-05
-1.15093e-05
-1.15095e-05
-1.15096e-05
-1.15098e-05
-1.15099e-05
-1.15101e-05
-1.15102e-05
-1.15104e-05
-1.15105e-05
-1.15107e-05
-1.15109e-05
-1.1511e-05
-1.15112e-05
-1.15113e-05
-1.15115e-05
-1.15116e-05
-1.15118e-05
-1.15119e-05
-1.15121e-05
-1.15122e-05
-1.15124e-05
-1.15125e-05
-1.15127e-05
-1.15129e-05
-1.1513e-05
-1.15132e-05
-1.15133e-05
-1.15135e-05
-1.15136e-05
-1.15138e-05
-1.15139e-05
-1.15141e-05
-1.15142e-05
-1.15144e-05
-1.15146e-05
-1.15147e-05
-1.15149e-05
-1.1515e-05
-1.15152e-05
-1.15153e-05
-1.15155e-05
-1.15156e-05
-1.15158e-05
-1.15159e-05
-1.15161e-05
-1.15163e-05
-1.15164e-05
-1.15166e-05
-1.15167e-05
-1.15169e-05
-1.1517e-05
-1.15172e-05
-1.15173e-05
-1.15175e-05
-1.15177e-05
-1.15178e-05
-1.1518e-05
-1.15181e-05
-1.15183e-05
-1.15184e-05
-1.15186e-05
-1.15187e-05
-1.15189e-05
-1.15191e-05
-1.15192e-05
-1.15194e-05
-1.15195e-05
-1.15197e-05
-1.15198e-05
-1.152e-05
-1.15201e-05
-1.15203e-05
-1.15204e-05
-1.15206e-05
-1.15208e-05
-1.15209e-05
-1.15211e-05
-1.15212e-05
-1.15214e-05
-1.15215e-05
-1.15217e-05
-1.15218e-05
-1.1522e-05
-1.15222e-05
-1.15223e-05
-1.15225e-05
-1.15226e-05
-1.15228e-05
-1.15229e-05
-1.15231e-05
-1.15233e-05
-1.15234e-05
-1.15236e-05
-1.15237e-05
-1.15239e-05
-1.1524e-05
-1.15242e-05
-1.15243e-05
-1.15245e-05
-1.15247e-05
-1.15248e-05
-1.1525e-05
-1.15251e-05
-1.15253e-05
-1.15254e-05
-1.15256e-05
-1.15257e-05
-1.15259e-05
-1.15261e-05
-1.15262e-05
-1.15264e-05
-1.15265e-05
-1.15267e-05
-1.15268e-05
-1.1527e-05
-1.15272e-05
-1.15273e-05
-1.15275e-05
-1.15276e-05
-1.15278e-05
-1.15279e-05
-1.15281e-05
-1.15282e-05
-1.15284e-05
-1.15286e-05
-1.15287e-05
-1.15289e-05
-1.1529e-05
-1.15292e-05
-1.15293e-05
-1.15295e-05
-1.15297e-05
-1.15298e-05
-1.153e-05
-1.15301e-05
-1.15303e-05
-1.15304e-05
-1.15306e-05
-1.15308e-05
-1.15309e-05
-1.15311e-05
-1.15312e-05
-1.15314e-05
-1.15315e-05
-1.15317e-05
-1.15319e-05
-1.1532e-05
-1.15322e-05
-1.15323e-05
-1.15325e-05
-1.15326e-05
-1.15328e-05
-1.1533e-05
-1.15331e-05
-1.15333e-05
-1.15334e-05
-1.15336e-05
-1.15337e-05
-1.15339e-05
-1.15341e-05
-1.15342e-05
-1.15344e-05
-1.15345e-05
-1.15347e-05
-1.15348e-05
-1.1535e-05
-1.15352e-05
-1.15353e-05
-1.15355e-05
-1.15356e-05
-1.15358e-05
-1.15359e-05
-1.15361e-05
-1.15363e-05
-1.15364e-05
-1.15366e-05
-1.15367e-05
-1.15369e-05
-1.15371e-05
-1.15372e-05
-1.15374e-05
-1.15375e-05
-1.15377e-05
-1.15378e-05
-1.1538e-05
-1.15382e-05
-1.15383e-05
-1.15385e-05
-1.15386e-05
-1.15388e-05
-1.15389e-05
-1.15391e-05
-1.15393e-05
-1.15394e-05
-1.15396e-05
-1.15397e-05
-1.15399e-05
-1.15401e-05
-1.15402e-05
-1.15404e-05
-1.15405e-05
-1.15407e-05
-1.15408e-05
-1.1541e-05
-1.15412e-05
-1.15413e-05
-1.15415e-05
-1.15416e-05
-1.15418e-05
-1.1542e-05
-1.15421e-05
-1.15423e-05
-1.15424e-05
-1.15426e-05
-1.15427e-05
-1.15429e-05
-1.15431e-05
-1.15432e-05
-1.15434e-05
-1.15435e-05
-1.15437e-05
-1.15439e-05
-1.1544e-05
-1.15442e-05
-1.15443e-05
-1.15445e-05
-1.15446e-05
-1.15448e-05
-1.1545e-05
-1.15451e-05
-1.15453e-05
-1.15454e-05
-1.15456e-05
-1.15458e-05
-1.15459e-05
-1.15461e-05
-1.15462e-05
-1.15464e-05
-1.15466e-05
-1.15467e-05
-1.15469e-05
-1.1547e-05
-1.15472e-05
-1.15474e-05
-1.15475e-05
-1.15477e-05
-1.15478e-05
-1.1548e-05
-1.15482e-05
-1.15483e-05
-1.15485e-05
-1.15486e-05
-1.15488e-05
-1.15489e-05
-1.15491e-05
-1.15493e-05
-1.15494e-05
-1.15496e-05
-1.15497e-05
-1.15499e-05
-1.15501e-05
-1.15502e-05
-1.15504e-05
-1.15505e-05
-1.15507e-05
-1.15509e-05
-1.1551e-05
-1.15512e-05
-1.15513e-05
-1.15515e-05
-1.15517e-05
-1.15518e-05
-1.1552e-05
-1.15521e-05
-1.15523e-05
-1.15525e-05
-1.15526e-05
-1.15528e-05
-1.15529e-05
-1.15531e-05
-1.15533e-05
-1.15534e-05
-1.15536e-05
-1.15537e-05
-1.15539e-05
-1.15541e-05
-1.15542e-05