# vtk DataFile Version 2.0
FlowField
ASCII
DATASET STRUCTURED_GRID
DIMENSIONS 800 1 200
POINTS 160000 float
0 0 0
0.04 0 0
0.08 0 0
0.12 0 0
0.16 0 0
0.2 0 0
0.24 0 0
0.28 0 0
0.32 0 0
0.36 0 0
0.4 0 0
0.44 0 0
0.48 0 0
0.52 0 0
0.56 0 0
0.6 0 0
0.64 0 0
0.68 0 0
0.72 0 0
0.76 0 0
0.8 0 0
0.84 0 0
0.88 0 0
0.92 0 0
0.96 0 0
1 0 0
1.04 0 0
1.08 0 0
1.12 0 0
1.16 0 0
1.2 0 0
1.24 0 0
1.28 0 0
1.32 0 0
1.36 0 0
1.4 0 0
1.44 0 0
1.48 0 0
1.52 0 0
1.56 0 0
1.6 0 0
1.64 0 0
1.68 0 0
1.72 0 0
1.76 0 0
1.8 0 0
1.84 0 0
1.88 0 0
1.92 0 0
1.96 0 0
2 0 0
2.04 0 0
2.08 0 0
2.12 0 0
2.16 0 0
2.2 0 0
2.24 0 0
2.28 0 0
2.32 0 0
2.36 0 0
2.4 0 0
2.44 0 0
2.48 0 0
2.52 0 0
2.56 0 0
2.6 0 0
2.64 0 0
2.68 0 0
2.72 0 0
2.76 0 0
2.8 0 0
2.84 0 0
2.88 0 0
2.92 0 0
2.96 0 0
3 0 0
3.04 0 0
3.08 0 0
3.12 0 0
3.16 0 0
3.2 0 0
3.24 0 0
3.28 0 0
3.32 0 0
3.36 0 0
3.4 0 0
3.44 0 0
3.48 0 0
3.52 0 0
3.56 0 0
3.6 0 0
3.64 0 0
3.68 0 0
3.72 0 0
3.76 0 0
3.8 0 0
3.84 0 0
3.88 0 0
3.92 0 0
3.96 0 0
4 0 0
4.04 0 0
4.08 0 0
4.12 0 0
4.16 0 0
4.2 0 0
4.24 0 0
4.28 0 0
4.32 0 0
4.36 0 0
4.4 0 0
4.44 0 0
4.48 0 0
4.52 0 0
4.56 0 0
4.6 0 0
4.64 0 0
4.68 0 0
4.72 0 0
4.76 0 0
4.8 0 0
4.84 0 0
4.88 0 0
4.92 0 0
4.96 0 0
5 0 0
5.04 0 0
5.08 0 0
5.12 0 0
5.16 0 0
5.2 0 0
5.24 0 0
5.28 0 0
5.32 0 0
5.36 0 0
5.4 0 0
5.44 0 0
5.48 0 0
5.52 0 0
5.56 0 0
5.6 0 0
5.64 0 0
5.68 0 0
5.72 0 0
5.76 0 0
5.8 0 0
5.84 0 0
5.88 0 0
5.92 0 0
5.96 0 0
6 0 0
6.04 0 0
6.08 0 0
6.12 0 0
6.16 0 0
6.2 0 0
6.24 0 0
6.28 0 0
6.32 0 0
6.36 0 0
6.4 0 0
6.44 0 0
6.48 0 0
6.52 0 0
6.56 0 0
6.6 0 0
6.64 0 0
6.68 0 0
6.72 0 0
6.76 0 0
6.8 0 0
6.84 0 0
6.88 0 0
6.92 0 0
6.96 0 0
7 0 0
7.04 0 0
7.08 0 0
7.12 0 0
7.16 0 0
7.2 0 0
7.24 0 0
7.28 0 0
7.32 0 0
7.36 0 0
7.4 0 0
7.44 0 0
7.48 0 0
7.52 0 0
7.56 0 0
7.6 0 0
7.64 0 0
7.68 0 0
7.72 0 0
7.76 0 0
7.8 0 0
7.84 0 0
7.88 0 0
7.92 0 0
7.96 0 0
8 0 0
8.04 0 0
8.08 0 0
8.12 0 0
8.16 0 0
8.2 0 0
8.24 0 0
8.28 0 0
8.32 0 0
8.36 0 0
8.4 0 0
8.44 0 0
8.48 0 0
8.52 0 0
8.56 0 0
8.6 0 0
8.64 0 0
8.68 0 0
8.72 0 0
8.76 0 0
8.8 0 0
8.84 0 0
8.88 0 0
8.92 0 0
8.96 0 0
9 0 0
9.04 0 0
9.08 0 0
9.12 0 0
9.16 0 0
9.2 0 0
9.24 0 0
9.28 0 0
9.32 0 0
9.36 0 0
9.4 0 0
9.44 0 0
9.48 0 0
9.52 0 0
9.56 0 0
9.6 0 0
9.64 0 0
9.68 0 0
9.72 0 0
9.76 0 0
9.8 0 0
9.84 0 0
9.88 0 0
9.92 0 0
9.96 0 0
10 0 0
10.04 0 0
10.08 0 0
10.12 0 0
10.16 0 0
10.2 0 0
10.24 0 0
10.28 0 0
10.32 0 0
10.36 0 0
10.4 0 0
10.44 0 0
10.48 0 0
10.52 0 0
10.56 0 0
10.6 0 0
10.64 0 0
10.68 0 0
10.72 0 0
10.76 0 0
10.8 0 0
10.84 0 0
10.88 0 0
10.92 0 0
10.96 0 0
11 0 0
11.04 0 0
11.08 0 0
11.12 0 0
11.16 0 0
11.2 0 0
11.24 0 0
11.28 0 0
11.32 0 0
11.36 0 0
11.4 0 0
11.44 0 0
11.48 0 0
11.52 0 0
11.56 0 0
11.6 0 0
11.64 0 0
11.68 0 0
11.72 0 0
11.76 0 0
11.8 0 0
11.84 0 0
11.88 0 0
11.92 0 0
11.96 0 0
12 0 0
12.04 0 0
12.08 0 0
12.12 0 0
12.16 0 0
12.2 0 0
12.24 0 0
12.28 0 0
12.32 0 0
12.36 0 0
12.4 0 0
12.44 0 0
12.48 0 0
12.52 0 0
12.56 0 0
12.6 0 0
12.64 0 0
12.68 0 0
12.72 0 0
12.76 0 0
12.8 0 0
12.84 0 0
12.88 0 0
12.92 0 0
12.96 0 0
13 0 0
13.04 0 0
13.08 0 0
13.12 0 0
13.16 0 0
13.2 0 0
13.24 0 0
13.28 0 0
13.32 0 0
13.36 0 0
13.4 0 0
13.44 0 0
13.48 0 0
13.52 0 0
13.56 0 0
13.6 0 0
13.64 0 0
13.68 0 0
13.72 0 0
13.76 0 0
13.8 0 0
13.84 0 0
13.88 0 0
13.92 0 0
13.96 0 0
14 0 0
14.04 0 0
14.08 0 0
14.12 0 0
14.16 0 0
14.2 0 0
14.24 0 0
14.28 0 0
14.32 0 0
14.36 0 0
14.4 0 0
14.44 0 0
14.48 0 0
14.52 0 0
14.56 0 0
14.6 0 0
14.64 0 0
14.68 0 0
14.72 0 0
14.76 0 0
14.8 0 0
14.84 0 0
14.88 0 0
14.92 0 0
14.96 0 0
15 0 0
15.04 0 0
15.08 0 0
15.12 0 0
15.16 0 0
15.2 0 0
15.24 0 0
15.28 0 0
15.32 0 0
15.36 0 0
15.4 0 0
15.44 0 0
15.48 0 0
15.52 0 0
15.56 0 0
15.6 0 0
15.64 0 0
15.68 0 0
15.72 0 0
15.76 0 0
15.8 0 0
15.84 0 0
15.88 0 0
15.92 0 0
15.96 0 0
16 0 0
16.04 0 0
16.08 0 0
16.12 0 0
16.16 0 0
16.2 0 0
16.24 0 0
16.28 0 0
16.32 0 0
16.36 0 0
16.4 0 0
16.44 0 0
16.48 0 0
16.52 0 0
16.56 0 0
16.6 0 0
16.64 0 0
16.68 0 0
16.72 0 0
16.76 0 0
16.8 0 0
16.84 0 0
16.88 0 0
16.92 0 0
16.96 0 0
17 0 0
17.04 0 0
17.08 0 0
17.12 0 0
17.16 0 0
17.2 0 0
17.24 0 0
17.28 0 0
17.32 0 0
17.36 0 0
17.4 0 0
17.44 0 0
17.48 0 0
17.52 0 0
17.56 0 0
17.6 0 0
17.64 0 0
17.68 0 0
17.72 0 0
17.76 0 0
17.8 0 0
17.84 0 0
17.88 0 0
17.92 0 0
17.96 0 0
18 0 0
18.04 0 0
18.08 0 0
18.12 0 0
18.16 0 0
18.2 0 0
18.24 0 0
18.28 0 0
18.32 0 0
18.36 0 0
18.4 0 0
18.44 0 0
18.48 0 0
18.52 0 0
18.56 0 0
18.6 0 0
18.64 0 0
18.68 0 0
18.72 0 0
18.76 0 0
18.8 0 0
18.84 0 0
18.88 0 0
18.92 0 0
18.96 0 0
19 0 0
19.04 0 0
19.08 0 0
19.12 0 0
19.16 0 0
19.2 0 0
19.24 0 0
19.28 0 0
19.32 0 0
19.36 0 0
19.4 0 0
19.44 0 0
19.48 0 0
19.52 0 0
19.56 0 0
19.6 0 0
19.64 0 0
19.68 0 0
19.72 0 0
19.76 0 0
19.8 0 0
19.84 0 0
19.88 0 0
19.92 0 0
19.96 0 0
20 0 0
20.04 0 0
20.08 0 0
20.12 0 0
20.16 0 0
20.2 0 0
20.24 0 0
20.28 0 0
20.32 0 0
20.36 0 0
20.4 0 0
20.44 0 0
20.48 0 0
20.52 0 0
20.56 0 0
20.6 0 0
20.64 0 0
20.68 0 0
20.72 0 0
20.76 0 0
20.8 0 0
20.84 0 0
20.88 0 0
20.92 0 0
20.96 0 0
21 0 0
21.04 0 0
21.08 0 0
21.12 0 0
21.16 0 0
21.2 0 0
21.24 0 0
21.28 0 0
21.32 0 0
21.36 0 0
21.4 0 0
21.44 0 0
21.48 0 0
21.52 0 0
21.56 0 0
21.6 0 0
21.64 0 0
21.68 0 0
21.72 0 0
21.76 0 0
21.8 0 0
21.84 0 0
21.88 0 0
21.92 0 0
21.96 0 0
22 0 0
22.04 0 0
22.08 0 0
22.12 0 0
22.16 0 0
22.2 0 0
22.24 0 0
22.28 0 0
22.32 0 0
22.36 0 0
22.4 0 0
22.44 0 0
22.48 0 0
22.52 0 0
22.56 0 0
22.6 0 0
22.64 0 0
22.68 0 0
22.72 0 0
22.76 0 0
22.8 0 0
22.84 0 0
22.88 0 0
22.92 0 0
22.96 0 0
23 0 0
23.04 0 0
23.08 0 0
23.12 0 0
23.16 0 0
23.2 0 0
23.24 0 0
23.28 0 0
23.32 0 0
23.36 0 0
23.4 0 0
23.44 0 0
23.48 0 0
23.52 0 0
23.56 0 0
23.6 0 0
23.64 0 0
23.68 0 0
23.72 0 0
23.76 0 0
23.8 0 0
23.84 0 0
23.88 0 0
23.92 0 0
23.96 0 0
24 0 0
24.04 0 0
24.08 0 0
24.12 0 0
24.16 0 0
24.2 0 0
24.24 0 0
24.28 0 0
24.32 0 0
24.36 0 0
24.4 0 0
24.44 0 0
24.48 0 0
24.52 0 0
24.56 0 0
24.6 0 0
24.64 0 0
24.68 0 0
24.72 0 0
24.76 0 0
24.8 0 0
24.84 0 0
24.88 0 0
24.92 0 0
24.96 0 0
25 0 0
25.04 0 0
25.08 0 0
25.12 0 0
25.16 0 0
25.2 0 0
25.24 0 0
25.28 0 0
25.32 0 0
25.36 0 0
25.4 0 0
25.44 0 0
25.48 0 0
25.52 0 0
25.56 0 0
25.6 0 0
25.64 0 0
25.68 0 0
25.72 0 0
25.76 0 0
25.8 0 0
25.84 0 0
25.88 0 0
25.92 0 0
25.96 0 0
26 0 0
26.04 0 0
26.08 0 0
26.12 0 0
26.16 0 0
26.2 0 0
26.24 0 0
26.28 0 0
26.32 0 0
26.36 0 0
26.4 0 0
26.44 0 0
26.48 0 0
26.52 0 0
26.56 0 0
26.6 0 0
26.64 0 0
26.68 0 0
26.72 0 0
26.76 0 0
26.8 0 0
26.84 0 0
26.88 0 0
26.92 0 0
26.96 0 0
27 0 0
27.04 0 0
27.08 0 0
27.12 0 0
27.16 0 0
27.2 0 0
27.24 0 0
27.28 0 0
27.32 0 0
27.36 0 0
27.4 0 0
27.44 0 0
27.48 0 0
27.52 0 0
27.56 0 0
27.6 0 0
27.64 0 0
27.68 0 0
27.72 0 0
27.76 0 0
27.8 0 0
27.84 0 0
27.88 0 0
27.92 0 0
27.96 0 0
28 0 0
28.04 0 0
28.08 0 0
28.12 0 0
28.16 0 0
28.2 0 0
28.24 0 0
28.28 0 0
28.32 0 0
28.36 0 0
28.4 0 0
28.44 0 0
28.48 0 0
28.52 0 0
28.56 0 0
28.6 0 0
28.64 0 0
28.68 0 0
28.72 0 0
28.76 0 0
28.8 0 0
28.84 0 0
28.88 0 0
28.92 0 0
28.96 0 0
29 0 0
29.04 0 0
29.08 0 0
29.12 0 0
29.16 0 0
29.2 0 0
29.24 0 0
29.28 0 0
29.32 0 0
29.36 0 0
29.4 0 0
29.44 0 0
29.48 0 0
29.52 0 0
29.56 0 0
29.6 0 0
29.64 0 0
29.68 0 0
29.72 0 0
29.76 0 0
29.8 0 0
29.84 0 0
29.88 0 0
29.92 0 0
29.96 0 0
30 0 0
30.04 0 0
30.08 0 0
30.12 0 0
30.16 0 0
30.2 0 0
30.24 0 0
30.28 0 0
30.32 0 0
30.36 0 0
30.4 0 0
30.44 0 0
30.48 0 0
30.52 0 0
30.56 0 0
30.6 0 0
30.64 0 0
30.68 0 0
30.72 0 0
30.76 0 0
30.8 0 0
30.84 0 0
30.88 0 0
30.92 0 0
30.96 0 0
31 0 0
31.04 0 0
31.08 0 0
31.12 0 0
31.16 0 0
31.2 0 0
31.24 0 0
31.28 0 0
31.32 0 0
31.36 0 0
31.4 0 0
31.44 0 0
31.48 0 0
31.52 0 0
31.56 0 0
31.6 0 0
31.64 0 0
31.68 0 0
31.72 0 0
31.76 0 0
31.8 0 0
31.84 0 0
31.88 0 0
31.92 0 0
31.96 0 0
0 0.005 0
0.04 0.005 0
0.08 0.005 0
0.12 0.005 0
0.16 0.005 0
0.2 0.005 0
0.24 0.005 0
0.28 0.005 0
0.32 0.005 0
0.36 0.005 0
0.4 0.005 0
0.44 0.005 0
0.48 0.005 0
0.52 0.005 0
0.56 0.005 0
0.6 0.005 0
0.64 0.005 0
0.68 0.005 0
0.72 0.005 0
0.76 0.005 0
0.8 0.005 0
0.84 0.005 0
0.88 0.005 0
0.92 0.005 0
0.96 0.005 0
1 0.005 0
1.04 0.005 0
1.08 0.005 0
1.12 0.005 0
1.16 0.005 0
1.2 0.005 0
1.24 0.005 0
1.28 0.005 0
1.32 0.005 0
1.36 0.005 0
1.4 0.005 0
1.44 0.005 0
1.48 0.005 0
1.52 0.005 0
1.56 0.005 0
1.6 0.005 0
1.64 0.005 0
1.68 0.005 0
1.72 0.005 0
1.76 0.005 0
1.8 0.005 0
1.84 0.005 0
1.88 0.005 0
1.92 0.005 0
1.96 0.005 0
2 0.005 0
2.04 0.005 0
2.08 0.005 0
2.12 0.005 0
2.16 0.005 0
2.2 0.005 0
2.24 0.005 0
2.28 0.005 0
2.32 0.005 0
2.36 0.005 0
2.4 0.005 0
2.44 0.005 0
2.48 0.005 0
2.52 0.005 0
2.56 0.005 0
2.6 0.005 0
2.64 0.005 0
2.68 0.005 0
2.72 0.005 0
2.76 0.005 0
2.8 0.005 0
2.84 0.005 0
2.88 0.005 0
2.92 0.005 0
2.96 0.005 0
3 0.005 0
3.04 0.005 0
3.08 0.005 0
3.12 0.005 0
3.16 0.005 0
3.2 0.005 0
3.24 0.005 0
3.28 0.005 0
3.32 0.005 0
3.36 0.005 0
3.4 0.005 0
3.44 0.005 0
3.48 0.005 0
3.52 0.005 0
3.56 0.005 0
3.6 0.005 0
3.64 0.005 0
3.68 0.005 0
3.72 0.005 0
3.76 0.005 0
3.8 0.005 0
3.84 0.005 0
3.88 0.005 0
3.92 0.005 0
3.96 0.005 0
4 0.005 0
4.04 0.005 0
4.08 0.005 0
4.12 0.005 0
4.16 0.005 0
4.2 0.005 0
4.24 0.005 0
4.28 0.005 0
4.32 0.005 0
4.36 0.005 0
4.4 0.005 0
4.44 0.005 0
4.48 0.005 0
4.52 0.005 0
4.56 0.005 0
4.6 0.005 0
4.64 0.005 0
4.68 0.005 0
4.72 0.005 0
4.76 0.005 0
4.8 0.005 0
4.84 0.005 0
4.88 0.005 0
4.92 0.005 0
4.96 0.005 0
5 0.005 0
5.04 0.005 0
5.08 0.005 0
5.12 0.005 0
5.16 0.005 0
5.2 0.005 0
5.24 0.005 0
5.28 0.005 0
5.32 0.005 0
5.36 0.005 0
5.4 0.005 0
5.44 0.005 0
5.48 0.005 0
5.52 0.005 0
5.56 0.005 0
5.6 0.005 0
5.64 0.005 0
5.68 0.005 0
5.72 0.005 0
5.76 0.005 0
5.8 0.005 0
5.84 0.005 0
5.88 0.005 0
5.92 0.005 0
5.96 0.005 0
6 0.005 0
6.04 0.005 0
6.08 0.005 0
6.12 0.005 0
6.16 0.005 0
6.2 0.005 0
6.24 0.005 0
6.28 0.005 0
6.32 0.005 0
6.36 0.005 0
6.4 0.005 0
6.44 0.005 0
6.48 0.005 0
6.52 0.005 0
6.56 0.005 0
6.6 0.005 0
6.64 0.005 0
6.68 0.005 0
6.72 0.005 0
6.76 0.005 0
6.8 0.005 0
6.84 0.005 0
6.88 0.005 0
6.92 0.005 0
6.96 0.005 0
7 0.005 0
7.04 0.005 0
7.08 0.005 0
7.12 0.005 0
7.16 0.005 0
7.2 0.005 0
7.24 0.005 0
7.28 0.005 0
7.32 0.005 0
7.36 0.005 0
7.4 0.005 0
[...]
POINT_DATA 160000

SCALARS p float 1
LOOKUP_TABLE default
1
71.7419
69.5264
69.2716
69.2114
69.185
69.169
69.1574
69.1481
69.1403
69.1333
69.127
69.1211
69.1155
69.1102
69.1051
69.1002
69.0953
69.0906
69.086
69.0814
69.077
69.0726
69.0683
69.064
69.0598
69.0556
69.0515
69.0474
69.0434
69.0395
69.0355
69.0317
69.0278
69.024
69.0203
69.0166
69.0129
69.0093
69.0057
69.0021
68.9986
68.9951
68.9916
68.9882
68.9848
68.9814
68.9781
68.9748
68.9715
68.9683
68.965
68.9618
68.9587
68.9555
68.9524
68.9493
68.9462
68.9432
68.9401
68.9371
68.9341
68.9312
68.9282
68.9253
68.9224
68.9195
68.9166
68.9137
68.9109
68.9081
68.9053
68.9025
68.8997
68.8969
68.8942
68.8915
68.8888
68.8861
68.8834
68.8807
68.8781
68.8754
68.8728
68.8702
68.8676
68.865
68.8624
68.8598
68.8573
68.8547
68.8522
68.8497
68.8472
68.8447
68.8422
68.8397
68.8372
68.8348
68.8323
68.8299
68.8275
68.8251
68.8227
68.8203
68.8179
68.8155
68.8131
68.8108
68.8084
68.8061
68.8037
68.8014
68.7991
68.7968
68.7945
68.7922
68.7899
68.7876
68.7853
68.7831
68.7808
68.7786
68.7763
68.7741
68.7719
68.7696
68.7674
68.7652
68.763
68.7608
68.7586
68.7565
68.7543
68.7521
68.75
68.7478
68.7457
68.7435
68.7414
68.7392
68.7371
68.735
68.7329
68.7308
68.7287
68.7266
68.7245
68.7224
68.7203
68.7182
68.7162
68.7141
68.712
68.71
68.7079
68.7059
68.7038
68.7018
68.6998
68.6977
68.6957
68.6937
68.6917
68.6897
68.6877
68.6857
68.6837
68.6817
68.6797
68.6777
68.6757
68.6737
68.6718
68.6698
68.6678
68.6659
68.6639
68.662
68.66
68.6581
68.6561
68.6542
68.6523
68.6503
68.6484
68.6465
68.6446
68.6427
68.6407
68.6388
68.6369
68.635
68.6331
68.6312
68.6294
68.6275
68.6256
68.6237
68.6218
68.6199
68.6181
68.6162
68.6143
68.6125
68.6106
68.6088
68.6069
68.605
68.6032
68.6014
68.5995
68.5977
68.5958
68.594
68.5922
68.5903
68.5885
68.5867
68.5849
68.583
68.5812
68.5794
68.5776
68.5758
68.574
68.5722
68.5704
68.5686
68.5668
68.565
68.5632
68.5614
68.5596
68.5578
68.556
68.5543
68.5525
68.5507
68.5489
68.5472
68.5454
68.5436
68.5419
68.5401
68.5383
68.5366
68.5348
68.533
68.5313
68.5295
68.5278
68.526
68.5243
68.5225
68.5208
68.5191
68.5173
68.5156
68.5138
68.5121
68.5104
68.5086
68.5069
68.5052
68.5035
68.5017
68.5
68.4983
68.4966
68.4949
68.4931
68.4914
68.4897
68.488
68.4863
68.4846
68.4829
68.4812
68.4795
68.4778
68.4761
68.4744
68.4727
68.471
68.4693
68.4676
68.4659
68.4642
68.4625
68.4608
68.4591
68.4574
68.4557
68.4541
68.4524
68.4507
68.449
68.4473
68.4457
68.444
68.4423
68.4406
68.439
68.4373
68.4356
68.4339
68.4323
68.4306
68.4289
68.4273
68.4256
68.4239
68.4223
68.4206
68.419
68.4173
68.4156
68.414
68.4123
68.4107
68.409
68.4074
68.4057
68.4041
68.4024
68.4008
68.3991
68.3975
68.3958
68.3942
68.3925
68.3909
68.3892
68.3876
68.386
68.3843
68.3827
68.381
68.3794
68.3778
68.3761
68.3745
68.3729
68.3712
68.3696
68.368
68.3663
68.3647
68.3631
68.3614
68.3598
68.3582
68.3565
68.3549
68.3533
68.3517
68.35
68.3484
68.3468
68.3452
68.3435
68.3419
68.3403
68.3387
68.3371
68.3354
68.3338
68.3322
68.3306
68.329
68.3274
68.3257
68.3241
68.3225
68.3209
68.3193
68.3177
68.3161
68.3145
68.3128
68.3112
68.3096
68.308
68.3064
68.3048
68.3032
68.3016
68.3
68.2984
68.2968
68.2952
68.2936
68.2919
68.2903
68.2887
68.2871
68.2855
68.2839
68.2823
68.2807
68.2791
68.2775
68.2759
68.2743
68.2727
68.2711
68.2695
68.2679
68.2663
68.2648
68.2632
68.2616
68.26
68.2584
68.2568
68.2552
68.2536
68.252
68.2504
68.2488
68.2472
68.2456
68.244
68.2424
68.2409
68.2393
68.2377
68.2361
68.2345
68.2329
68.2313
68.2297
68.2281
68.2266
68.225
68.2234
68.2218
68.2202
68.2186
68.217
68.2155
68.2139
68.2123
68.2107
68.2091
68.2075
68.2059
68.2044
68.2028
68.2012
68.1996
68.198
68.1965
68.1949
68.1933
68.1917
68.1901
68.1886
68.187
68.1854
68.1838
68.1822
68.1807
68.1791
68.1775
68.1759
68.1743
68.1728
68.1712
68.1696
68.168
68.1665
68.1649
68.1633
68.1617
68.1602
68.1586
68.157
68.1554
68.1539
68.1523
68.1507
68.1491
68.1476
68.146
68.1444
68.1428
68.1413
68.1397
68.1381
68.1365
68.135
68.1334
68.1318
68.1303
68.1287
68.1271
68.1255
68.124
68.1224
68.1208
68.1193
68.1177
68.1161
68.1145
68.113
68.1114
68.1098
68.1083
68.1067
68.1051
68.1036
68.102
68.1004
68.0989
68.0973
68.0957
68.0942
68.0926
68.091
68.0895
68.0879
68.0863
68.0848
68.0832
68.0816
68.0801
68.0785
68.0769
68.0754
68.0738
68.0722
68.0707
68.0691
68.0675
68.066
68.0644
68.0628
68.0613
68.0597
68.0581
68.0566
68.055
68.0535
68.0519
68.0503
68.0488
68.0472
68.0456
68.0441
68.0425
68.0409
68.0394
68.0378
68.0363
68.0347
68.0331
68.0316
68.03
68.0284
68.0269
68.0253
68.0238
68.0222
68.0206
68.0191
68.0175
68.016
68.0144
68.0128
68.0113
68.0097
68.0082
68.0066
68.005
68.0035
68.0019
68.0004
67.9988
67.9972
67.9957
67.9941
67.9926
67.991
67.9894
67.9879
67.9863
67.9848
67.9832
67.9816
67.9801
67.9785
67.977
67.9754
67.9739
67.9723
67.9707
67.9692
67.9676
67.9661
67.9645
67.9629
67.9614
67.9598
67.9583
67.9567
67.9552
67.9536
67.952
67.9505
67.9489
67.9474
67.9458
67.9443
67.9427
67.9411
67.9396
67.938
67.9365
67.9349
67.9334
67.9318
67.9303
67.9287
67.9271
67.9256
67.924
67.9225
67.9209
67.9194
67.9178
67.9163
67.9147
67.9131
67.9116
67.91
67.9085
67.9069
67.9054
67.9038
67.9023
67.9007
67.8992
67.8976
67.896
67.8945
67.8929
67.8914
67.8898
67.8883
67.8867
67.8852
67.8836
67.8821
67.8805
67.8789
67.8774
67.8758
67.8743
67.8727
67.8712
67.8696
67.8681
67.8665
67.865
67.8634
67.8619
67.8603
67.8588
67.8572
67.8557
67.8541
67.8525
67.851
67.8494
67.8479
67.8463
67.8448
67.8432
67.8417
67.8401
67.8386
67.837
67.8355
67.8339
67.8324
67.8308
67.8293
67.8277
67.8262
67.8246
67.8231
67.8215
67.82
67.8184
67.8169
67.8153
67.8138
67.8122
67.8106
67.8091
67.8075
67.806
67.8044
67.8029
67.8013
67.7998
67.7982
67.7967
67.7951
67.7936
67.792
67.7905
67.7889
67.7874
67.7858
67.7843
67.7827
67.7812
67.7796
67.7781
67.7765
67.775
67.7734
67.7719
67.7703
67.7688
67.7672
67.7657
67.7641
67.7626
67.761
67.7595
67.7579
67.7564
67.7548
67.7533
67.7517
67.7502
67.7486
67.7471
67.7455
67.744
67.7424
67.7409
67.7394
67.7378
67.7363
67.7347
67.7332
67.7316
67.7301
67.7285
67.727
67.7254
67.7239
67.7223
67.7208
67.7192
67.7177
67.7161
67.7146
67.713
67.7115
67.7099
67.7084
67.7068
67.7053
67.7037
67.7022
67.7006
67.6991
67.6975
67.696
67.6945
67.6929
67.6914
67.6898
67.6883
67.6867
67.6852
67.6836
67.6821
67.6805
67.679
67.6774
67.6759
67.6743
67.6728
67.6712
67.6697
67.6682
67.6666
67.6651
67.6635
67.662
67.6604
67.6589
1
71.7419
71.7419
69.5264
69.2716
69.2114
69.185
69.169
69.1574
69.1481
69.1403
69.1333
69.127
69.1211
69.1155
69.1102
69.1051
69.1002
69.0953
69.0906
69.086
69.0814
69.077
69.0726
69.0683
69.064
69.0598
69.0556
69.0515
69.0474
69.0434
69.0395
69.0355
69.0317
69.0278
69.024
69.0203
69.0166
69.0129
69.0093
69.0057
69.0021
68.9986
68.9951
68.9916
68.9882
68.9848
68.9814
68.9781
68.9748
68.9715
68.9683
68.965
68.9618
68.9587
68.9555
68.9524
68.9493
68.9462
68.9432
68.9401
68.9371
68.9341
68.9312
68.9282
68.9253
68.9224
68.9195
68.9166
68.9137
68.9109
68.9081
68.9053
68.9025
68.8997
68.8969
68.8942
68.8915
68.8888
68.8861
68.8834
68.8807
68.8781
68.8754
68.8728
68.8702
68.8676
68.865
68.8624
68.8598
68.8573
68.8547
68.8522
68.8497
68.8472
68.8447
68.8422
68.8397
68.8372
68.8348
68.8323
68.8299
68.8275
68.8251
68.8227
68.8203
68.8179
68.8155
68.8131
68.8108
68.8084
68.8061
68.8037
68.8014
68.7991
68.7968
68.7945
68.7922
68.7899
68.7876
68.7853
68.7831
68.7808
68.7786
68.7763
68.7741
68.7719
68.7696
68.7674
68.7652
68.763
68.7608
68.7586
68.7565
68.7543
68.7521
68.75
68.7478
68.7457
68.7435
68.7414
68.7392
68.7371
68.735
68.7329
68.7308
68.7287
68.7266
68.7245
68.7224
68.7203
68.7182
68.7162
68.7141
68.712
68.71
68.7079
68.7059
68.7038
68.7018
68.6998
68.6977
68.6957
68.6937
68.6917
68.6897
68.6877
68.6857
68.6837
68.6817
68.6797
68.6777
68.6757
68.6737
68.6718
68.6698
68.6678
68.6659
68.6639
68.662
68.66
68.6581
68.6561
68.6542
68.6523
68.6503
68.6484
68.6465
68.6446
68.6427
68.6407
68.6388
68.6369
68.635
68.6331
68.6312
68.6294
68.6275
68.6256
68.6237
68.6218
68.6199
68.6181
68.6162
68.6143
68.6125
68.6106
68.6088
68.6069
68.605
68.6032
68.6014
68.5995
68.5977
68.5958
68.594
68.5922
68.5903
68.5885
68.5867
68.5849
68.583
68.5812
68.5794
68.5776
68.5758
68.574
68.5722
68.5704
68.5686
68.5668
68.565
68.5632
68.5614
68.5596
68.5578
68.556
68.5543
68.5525
68.5507
68.5489
68.5472
68.5454
68.5436
68.5419
68.5401
68.5383
68.5366
68.5348
68.533
68.5313
68.5295
68.5278
68.526
68.5243
68.5225
68.5208
68.5191
68.5173
68.5156
68.5138
68.5121
68.5104
68.5086
68.5069
68.5052
68.5035
68.5017
68.5
68.4983
68.4966
68.4949
68.4931
68.4914
68.4897
68.488
68.4863
68.4846
68.4829
68.4812
68.4795
68.4778
68.4761
68.4744
68.4727
68.471
68.4693
68.4676
68.4659
68.4642
68.4625
68.4608
68.4591
68.4574
68.4557
68.4541
68.4524
68.4507
68.449
68.4473
68.4457
68.444
68.4423
68.4406
68.439
68.4373
68.4356
68.4339
68.4323
68.4306
68.4289
68.4273
68.4256
68.4239
68.4223
68.4206
68.419
68.4173
68.4156
68.414
68.4123
68.4107
68.409
68.4074
68.4057
68.4041
68.4024
68.4008
68.3991
68.3975
68.3958
68.3942
68.3925
68.3909
68.3892
68.3876
68.386
68.3843
68.3827
68.381
68.3794
68.3778
68.3761
68.3745
68.3729
68.3712
68.3696
68.368
68.3663
68.3647
68.3631
68.3614
68.3598
68.3582
68.3565
68.3549
68.3533
68.3517
68.35
68.3484
68.3468
68.3452
68.3435
68.3419
68.3403
68.3387
68.3371
68.3354
68.3338
68.3322
68.3306
68.329
68.3274
68.3257
68.3241
68.3225
68.3209
68.3193
68.3177
68.3161
68.3145
68.3128
68.3112
68.3096
68.308
68.3064
68.3048
68.3032
68.3016
68.3
68.2984
68.2968
68.2952
68.2936
68.2919
68.2903
68.2887
68.2871
68.2855
68.2839
68.2823
68.2807
68.2791
68.2775
68.2759
68.2743
68.2727
68.2711
68.2695
68.2679
68.2663
68.2648
68.2632
68.2616
68.26
68.2584
68.2568
68.2552
68.2536
68.252
68.2504
68.2488
68.2472
68.2456
68.244
68.2424
68.2409
68.2393
68.2377
68.2361
68.2345
68.2329
68.2313
68.2297
68.2281
68.2266
68.225
68.2234
68.2218
68.2202
68.2186
68.217
68.2155
68.2139
68.2123
68.2107
68.2091
68.2075
68.2059
68.2044
68.2028
68.2012
68.1996
68.198
68.1965
68.1949
68.1933
68.1917
68.1901
68.1886
68.187
68.1854
68.1838
68.1822
68.1807
68.1791
68.1775
68.1759
68.1743
68.1728
68.1712
68.1696
68.168
68.1665
68.1649
68.1633
68.1617
68.1602
68.1586
68.157
68.1554
68.1539
68.1523
68.1507
68.1491
68.1476
68.146
68.1444
68.1428
68.1413
68.1397
68.1381
68.1365
68.135
68.1334
68.1318
68.1303
68.1287
68.1271
68.1255
68.124
68.1224
68.1208
68.1193
68.1177
68.1161
68.1145
68.113
68.1114
68.1098
68.1083
68.1067
68.1051
68.1036
68.102
68.1004
68.0989
68.0973
68.0957
68.0942
68.0926
68.091
68.0895
68.0879
68.0863
68.0848
68.0832
68.0816
68.0801
68.0785
68.0769
68.0754
68.0738
68.0722
68.0707
68.0691
68.0675
68.066
68.0644
68.0628
68.0613
68.0597
68.0581
68.0566
68.055
68.0535
68.0519
68.0503
68.0488
68.0472
68.0456
68.0441
68.0425
68.0409
68.0394
68.0378
68.0363
68.0347
68.0331
68.0316
68.03
68.0284
68.0269
68.0253
68.0238
68.0222
68.0206
68.0191
68.0175
68.016
68.0144
68.0128
68.0113
68.0097
68.0082
68.0066
68.005
68.0035
68.0019
68.0004
67.9988
67.9972
67.9957
67.9941
67.9926
67.991
67.9894
67.9879
67.9863
67.9848
67.9832
67.9816
67.9801
67.9785
67.977
67.9754
67.9739
67.9723
67.9707
67.9692
67.9676
67.9661
67.9645
67.9629
67.9614
67.9598
67.9583
67.9567
67.9552
67.9536
67.952
67.9505
67.9489
67.9474
67.9458
67.9443
67.9427
67.9411
67.9396
67.938
67.9365
67.9349
67.9334
67.9318
67.9303
67.9287
67.9271
67.9256
67.924
67.9225
67.9209
67.9194
67.9178
67.9163
67.9147
67.9131
67.9116
67.91
67.9085
67.9069
67.9054
67.9038
67.9023
67.9007
67.8992
67.8976
67.896
67.8945
67.8929
67.8914
67.8898
67.8883
67.8867
67.8852
67.8836
67.8821
67.8805
67.8789
67.8774
67.8758
67.8743
67.8727
67.8712
67.8696
67.8681
67.8665
67.865
67.8634
67.8619
67.8603
67.8588
67.8572
67.8557
67.8541
67.8525
67.851
67.8494
67.8479
67.8463
67.8448
67.8432
67.8417
67.8401
67.8386
67.837
67.8355
67.8339
67.8324
67.8308
67.8293
67.8277
67.8262
67.8246
67.8231
67.8215
67.82
67.8184
67.8169
67.8153
67.8138
67.8122
67.8106
67.8091
67.8075
67.806
67.8044
67.8029
67.8013
67.7998
67.7982
67.7967
67.7951
67.7936
67.792
67.7905
67.7889
67.7874
67.7858
67.7843
67.7827
67.7812
67.7796
67.7781
67.7765
67.775
67.7734
67.7719
67.7703
67.7688
67.7672
67.7657
67.7641
67.7626
67.761
67.7595
67.7579
67.7564
67.7548
67.7533
67.7517
67.7502
67.7486
67.7471
67.7455
67.744
67.7424
67.7409
67.7394
67.7378
67.7363
67.7347
67.7332
67.7316
67.7301
67.7285
67.727
67.7254
67.7239
67.7223
67.7208
67.7192
67.7177
67.7161
67.7146
67.713
67.7115
67.7099
67.7084
67.7068
67.7053
67.7037
67.7022
67.7006
67.6991
67.6975
67.696
67.6945
67.6929
67.6914
67.6898
67.6883
67.6867
67.6852
67.6836
67.6821
67.6805
67.679
67.6774
67.6759
67.6743
67.6728
67.6712
67.6697
67.6682
67.6666
67.6651
67.6635
67.662
67.6604
67.6589
67.6589
71.0949
71.0949
69.5368
69.2811
69.2155
69.1872
69.1703
69.1583
69.1488
69.1408
69.1338
69.1273
69.1214
69.1158
69.1104
69.1053
69.1003
69.0955
69.0907
69.0861
69.0816
69.0771
69.0727
69.0683
69.0641
69.0598
69.0557
69.0516
69.0475
69.0435
69.0395
69.0356
69.0317
69.0279
69.0241
69.0203
69.0166
69.0129
69.0093
69.0057
69.0021
68.9986
68.9951
68.9917
68.9882
68.9848
68.9815
68.9781
68.9748
68.9715
68.9683
68.9651
68.9619
68.9587
68.9555
68.9524
68.9493
68.9462
68.9432
68.9402
68.9371
68.9341
68.9312
68.9282
68.9253
68.9224
68.9195
68.9166
68.9138
68.9109
68.9081
68.9053
68.9025
68.8997
68.897
68.8942
68.8915
68.8888
68.8861
68.8834
68.8807
68.8781
68.8754
68.8728
68.8702
68.8676
68.865
68.8624
68.8598
68.8573
68.8547
68.8522
68.8497
68.8472
68.8447
68.8422
68.8397
68.8373
68.8348
68.8324
68.8299
68.8275
68.8251
68.8227
68.8203
68.8179
68.8155
68.8131
68.8108
68.8084
68.8061
68.8037
68.8014
68.7991
68.7968
68.7945
68.7922
68.7899
68.7876
68.7854
68.7831
68.7808
68.7786
68.7763
68.7741
68.7719
68.7697
68.7674
68.7652
68.763
68.7608
68.7587
68.7565
68.7543
68.7521
68.75
68.7478
68.7457
68.7435
68.7414
68.7392
68.7371
68.735
68.7329
68.7308
68.7287
68.7266
68.7245
68.7224
68.7203
68.7182
68.7162
68.7141
68.712
68.71
68.7079
68.7059
68.7038
68.7018
68.6998
68.6977
68.6957
68.6937
68.6917
68.6897
68.6877
68.6857
68.6837
68.6817
68.6797
68.6777
68.6757
68.6737
68.6718
68.6698
68.6678
68.6659
68.6639
68.662
68.66
68.6581
68.6561
68.6542
68.6523
68.6503
68.6484
68.6465
68.6446
68.6427
68.6408
68.6388
68.6369
68.635
68.6331
68.6312
68.6294
68.6275
68.6256
68.6237
68.6218
68.6199
68.6181
68.6162
68.6143
68.6125
68.6106
68.6088
68.6069
68.6051
68.6032
68.6014
68.5995
68.5977
68.5958
68.594
68.5922
68.5903
68.5885
68.5867
68.5849
68.583
68.5812
68.5794
68.5776
68.5758
68.574
68.5722
68.5704
68.5686
68.5668
68.565
68.5632
68.5614
68.5596
68.5578
68.556
68.5543
68.5525
68.5507
68.5489
68.5472
68.5454
68.5436
68.5419
68.5401
68.5383
68.5366
68.5348
68.5331
68.5313
68.5295
68.5278
68.526
68.5243
68.5226
68.5208
68.5191
68.5173
68.5156
68.5139
68.5121
68.5104
68.5087
68.5069
68.5052
68.5035
68.5017
68.5
68.4983
68.4966
68.4949
68.4931
68.4914
68.4897
68.488
68.4863
68.4846
68.4829
68.4812
68.4795
68.4778
68.4761
68.4744
68.4727
68.471
68.4693
68.4676
68.4659
68.4642
68.4625
68.4608
68.4591
68.4574
68.4558
68.4541
68.4524
68.4507
68.449
68.4473
68.4457
68.444
68.4423
68.4406
68.439
68.4373
68.4356
68.4339
68.4323
68.4306
68.4289
68.4273
68.4256
68.424
68.4223
68.4206
68.419
68.4173
68.4157
68.414
68.4123
68.4107
68.409
68.4074
68.4057
68.4041
68.4024
68.4008
68.3991
68.3975
68.3958
68.3942
68.3925
68.3909
68.3892
68.3876
68.386
68.3843
68.3827
68.381
68.3794
68.3778
68.3761
68.3745
68.3729
68.3712
68.3696
68.368
68.3663
68.3647
68.3631
68.3614
68.3598
68.3582
68.3565
68.3549
68.3533
68.3517
68.35
68.3484
68.3468
68.3452
68.3435
68.3419
68.3403
68.3387
68.3371
68.3354
68.3338
68.3322
68.3306
68.329
68.3274
68.3257
68.3241
68.3225
68.3209
68.3193
68.3177
68.3161
68.3145
68.3128
68.3112
68.3096
68.308
68.3064
68.3048
68.3032
68.3016
68.3
68.2984
68.2968
68.2952
68.2936
68.292
68.2903
68.2887
68.2871
68.2855
68.2839
68.2823
68.2807
68.2791
68.2775
68.2759
68.2743
68.2727
68.2711
68.2695
68.2679
68.2664
68.2648
68.2632
68.2616
68.26
68.2584
68.2568
68.2552
68.2536
68.252
68.2504
68.2488
68.2472
68.2456
68.244
68.2424
68.2409
68.2393
68.2377
68.2361
68.2345
68.2329
68.2313
68.2297
68.2281
68.2266
68.225
68.2234
68.2218
68.2202
68.2186
68.217
68.2155
68.2139
68.2123
68.2107
68.2091
68.2075
68.206
68.2044
68.2028
68.2012
68.1996
68.198
68.1965
68.1949
68.1933
68.1917
68.1901
68.1886
68.187
68.1854
68.1838
68.1822
68.1807
68.1791
68.1775
68.1759
68.1743
68.1728
68.1712
68.1696
68.168
68.1665
68.1649
68.1633
68.1617
68.1602
68.1586
68.157
68.1554
68.1539
68.1523
68.1507
68.1491
68.1476
68.146
68.1444
68.1428
68.1413
68.1397
68.1381
68.1365
68.135
68.1334
68.1318
68.1303
68.1287
68.1271
68.1255
68.124
68.1224
68.1208
68.1193
68.1177
68.1161
68.1146
68.113
68.1114
68.1098
68.1083
68.1067
68.1051
68.1036
68.102
68.1004
68.0989
68.0973
68.0957
68.0942
68.0926
68.091
68.0895
68.0879
68.0863
68.0848
68.0832
68.0816
68.0801
68.0785
68.0769
68.0754
68.0738
68.0722
68.0707
68.0691
68.0675
68.066
68.0644
68.0628
68.0613
68.0597
68.0581
68.0566
68.055
68.0535
68.0519
68.0503
68.0488
68.0472
68.0456
68.0441
68.0425
68.041
68.0394
68.0378
68.0363
68.0347
68.0331
68.0316
68.03
68.0285
68.0269
68.0253
68.0238
68.0222
68.0206
68.0191
68.0175
68.016
68.0144
68.0128
68.0113
68.0097
68.0082
68.0066
68.005
68.0035
68.0019
68.0004
67.9988
67.9972
67.9957
67.9941
67.9926
67.991
67.9894
67.9879
67.9863
67.9848
67.9832
67.9816
67.9801
67.9785
67.977
67.9754
67.9739
67.9723
67.9707
67.9692
67.9676
67.9661
67.9645
67.963
67.9614
67.9598
67.9583
67.9567
67.9552
67.9536
67.952
67.9505
67.9489
67.9474
67.9458
67.9443
67.9427
67.9412
67.9396
67.938
67.9365
67.9349
67.9334
67.9318
67.9303
67.9287
67.9271
67.9256
67.924
67.9225
67.9209
67.9194
67.9178
67.9163
67.9147
67.9131
67.9116
67.91
67.9085
67.9069
67.9054
67.9038
67.9023
67.9007
67.8992
67.8976
67.896
67.8945
67.8929
67.8914
67.8898
67.8883
67.8867
67.8852
67.8836
67.8821
67.8805
67.879
67.8774
67.8758
67.8743
67.8727
67.8712
67.8696
67.8681
67.8665
67.865
67.8634
67.8619
67.8603
67.8588
67.8572
67.8557
67.8541
67.8526
67.851
67.8494
67.8479
67.8463
67.8448
67.8432
67.8417
67.8401
67.8386
67.837
67.8355
67.8339
67.8324
67.8308
67.8293
67.8277
67.8262
67.8246
67.8231
67.8215
67.82
67.8184
67.8169
67.8153
67.8138
67.8122
67.8107
67.8091
67.8075
67.806
67.8044
67.8029
67.8013
67.7998
67.7982
67.7967
67.7951
67.7936
67.792
67.7905
67.7889
67.7874
67.7858
67.7843
67.7827
67.7812
67.7796
67.7781
67.7765
67.775
67.7734
67.7719
67.7703
67.7688
67.7672
67.7657
67.7641
67.7626
67.761
67.7595
67.7579
67.7564
67.7548
67.7533
67.7517
67.7502
67.7486
67.7471
67.7456
67.744
67.7425
67.7409
67.7394
67.7378
67.7363
67.7347
67.7332
67.7316
67.7301
67.7285
67.727
67.7254
67.7239
67.7223
67.7208
67.7192
67.7177
67.7161
67.7146
67.713
67.7115
67.7099
67.7084
67.7068
67.7053
67.7037
67.7022
67.7006
67.6991
67.6976
67.696
67.6945
67.6929
67.6914
67.6898
67.6883
67.6867
67.6852
67.6836
67.6821
67.6805
67.679
67.6774
67.6759
67.6743
67.6728
67.6712
67.6697
67.6682
67.6666
67.6651
67.6635
67.662
67.6604
67.6589
67.6589
70.4054
70.4054
69.521
69.2877
69.2192
69.1893
69.1717
69.1593
69.1495
69.1413
69.1342
69.1277
69.1217
69.116
69.1107
69.1055
69.1005
69.0956
69.0909
69.0862
69.0817
69.0772
69.0728
69.0684
69.0641
69.0599
69.0557
69.0516
69.0475
69.0435
69.0396
69.0356
69.0318
69.0279
69.0241
69.0204
69.0167
69.013
69.0093
69.0057
69.0022
68.9986
68.9952
68.9917
68.9883
68.9849
68.9815
68.9782
68.9749
68.9716
68.9683
68.9651
68.9619
68.9587
68.9556
68.9524
68.9493
68.9463
68.9432
68.9402
68.9372
68.9342
68.9312
68.9282
68.9253
68.9224
68.9195
68.9166
68.9138
68.9109
68.9081
68.9053
68.9025
68.8997
68.897
68.8942
68.8915
68.8888
68.8861
68.8834
68.8807
68.8781
68.8754
68.8728
68.8702
68.8676
68.865
68.8624
68.8598
68.8573
68.8547
68.8522
68.8497
68.8472
68.8447
68.8422
68.8397
68.8373
68.8348
68.8324
68.8299
68.8275
68.8251
68.8227
68.8203
68.8179
68.8155
68.8131
68.8108
68.8084
68.8061
68.8037
68.8014
68.7991
68.7968
68.7945
68.7922
68.7899
68.7876
68.7854
68.7831
68.7808
68.7786
68.7763
68.7741
68.7719
68.7697
68.7674
68.7652