# vtk DataFile Version 2.0
FlowField
ASCII
DATASET STRUCTURED_GRID
DIMENSIONS 800 1 200
POINTS 160000 float
0 0 0
0.04 0 0
0.08 0 0
0.12 0 0
0.16 0 0
0.2 0 0
0.24 0 0
0.28 0 0
0.32 0 0
0.36 0 0
0.4 0 0
0.44 0 0
0.48 0 0
0.52 0 0
0.56 0 0
0.6 0 0
0.64 0 0
0.68 0 0
0.72 0 0
0.76 0 0
0.8 0 0
0.84 0 0
0.88 0 0
0.92 0 0
0.96 0 0
1 0 0
1.04 0 0
1.08 0 0
1.12 0 0
1.16 0 0
1.2 0 0
1.24 0 0
1.28 0 0
1.32 0 0
1.36 0 0
1.4 0 0
1.44 0 0
1.48 0 0
1.52 0 0
1.56 0 0
1.6 0 0
1.64 0 0
1.68 0 0
1.72 0 0
1.76 0 0
1.8 0 0
1.84 0 0
1.88 0 0
1.92 0 0
1.96 0 0
2 0 0
2.04 0 0
2.08 0 0
2.12 0 0
2.16 0 0
2.2 0 0
2.24 0 0
2.28 0 0
2.32 0 0
2.36 0 0
2.4 0 0
2.44 0 0
2.48 0 0
2.52 0 0
2.56 0 0
2.6 0 0
2.64 0 0
2.68 0 0
2.72 0 0
2.76 0 0
2.8 0 0
2.84 0 0
2.88 0 0
2.92 0 0
2.96 0 0
3 0 0
3.04 0 0
3.08 0 0
3.12 0 0
3.16 0 0
3.2 0 0
3.24 0 0
3.28 0 0
3.32 0 0
3.36 0 0
3.4 0 0
3.44 0 0
3.48 0 0
3.52 0 0
3.56 0 0
3.6 0 0
3.64 0 0
3.68 0 0
3.72 0 0
3.76 0 0
3.8 0 0
3.84 0 0
3.88 0 0
3.92 0 0
3.96 0 0
4 0 0
4.04 0 0
4.08 0 0
4.12 0 0
4.16 0 0
4.2 0 0
4.24 0 0
4.28 0 0
4.32 0 0
4.36 0 0
4.4 0 0
4.44 0 0
4.48 0 0
4.52 0 0
4.56 0 0
4.6 0 0
4.64 0 0
4.68 0 0
4.72 0 0
4.76 0 0
4.8 0 0
4.84 0 0
4.88 0 0
4.92 0 0
4.96 0 0
5 0 0
5.04 0 0
5.08 0 0
5.12 0 0
5.16 0 0
5.2 0 0
5.24 0 0
5.28 0 0
5.32 0 0
5.36 0 0
5.4 0 0
5.44 0 0
5.48 0 0
5.52 0 0
5.56 0 0
5.6 0 0
5.64 0 0
5.68 0 0
5.72 0 0
5.76 0 0
5.8 0 0
5.84 0 0
5.88 0 0
5.92 0 0
5.96 0 0
6 0 0
6.04 0 0
6.08 0 0
6.12 0 0
6.16 0 0
6.2 0 0
6.24 0 0
6.28 0 0
6.32 0 0
6.36 0 0
6.4 0 0
6.44 0 0
6.48 0 0
6.52 0 0
6.56 0 0
6.6 0 0
6.64 0 0
6.68 0 0
6.72 0 0
6.76 0 0
6.8 0 0
6.84 0 0
6.88 0 0
6.92 0 0
6.96 0 0
7 0 0
7.04 0 0
7.08 0 0
7.12 0 0
7.16 0 0
7.2 0 0
7.24 0 0
7.28 0 0
7.32 0 0
7.36 0 0
7.4 0 0
7.44 0 0
7.48 0 0
7.52 0 0
7.56 0 0
7.6 0 0
7.64 0 0
7.68 0 0
7.72 0 0
7.76 0 0
7.8 0 0
7.84 0 0
7.88 0 0
7.92 0 0
7.96 0 0
8 0 0
8.04 0 0
8.08 0 0
8.12 0 0
8.16 0 0
8.2 0 0
8.24 0 0
8.28 0 0
8.32 0 0
8.36 0 0
8.4 0 0
8.44 0 0
8.48 0 0
8.52 0 0
8.56 0 0
8.6 0 0
8.64 0 0
8.68 0 0
8.72 0 0
8.76 0 0
8.8 0 0
8.84 0 0
8.88 0 0
8.92 0 0
8.96 0 0
9 0 0
9.04 0 0
9.08 0 0
9.12 0 0
9.16 0 0
9.2 0 0
9.24 0 0
9.28 0 0
9.32 0 0
9.36 0 0
9.4 0 0
9.44 0 0
9.48 0 0
9.52 0 0
9.56 0 0
9.6 0 0
9.64 0 0
9.68 0 0
9.72 0 0
9.76 0 0
9.8 0 0
9.84 0 0
9.88 0 0
9.92 0 0
9.96 0 0
10 0 0
10.04 0 0
10.08 0 0
10.12 0 0
10.16 0 0
10.2 0 0
10.24 0 0
10.28 0 0
10.32 0 0
10.36 0 0
10.4 0 0
10.44 0 0
10.48 0 0
10.52 0 0
10.56 0 0
10.6 0 0
10.64 0 0
10.68 0 0
10.72 0 0
10.76 0 0
10.8 0 0
10.84 0 0
10.88 0 0
10.92 0 0
10.96 0 0
11 0 0
11.04 0 0
11.08 0 0
11.12 0 0
11.16 0 0
11.2 0 0
11.24 0 0
11.28 0 0
11.32 0 0
11.36 0 0
11.4 0 0
11.44 0 0
11.48 0 0
11.52 0 0
11.56 0 0
11.6 0 0
11.64 0 0
11.68 0 0
11.72 0 0
11.76 0 0
11.8 0 0
11.84 0 0
11.88 0 0
11.92 0 0
11.96 0 0
12 0 0
12.04 0 0
12.08 0 0
12.12 0 0
12.16 0 0
12.2 0 0
12.24 0 0
12.28 0 0
12.32 0 0
12.36 0 0
12.4 0 0
12.44 0 0
12.48 0 0
12.52 0 0
12.56 0 0
12.6 0 0
12.64 0 0
12.68 0 0
12.72 0 0
12.76 0 0
12.8 0 0
12.84 0 0
12.88 0 0
12.92 0 0
12.96 0 0
13 0 0
13.04 0 0
13.08 0 0
13.12 0 0
13.16 0 0
13.2 0 0
13.24 0 0
13.28 0 0
13.32 0 0
13.36 0 0
13.4 0 0
13.44 0 0
13.48 0 0
13.52 0 0
13.56 0 0
13.6 0 0
13.64 0 0
13.68 0 0
13.72 0 0
13.76 0 0
13.8 0 0
13.84 0 0
13.88 0 0
13.92 0 0
13.96 0 0
14 0 0
14.04 0 0
14.08 0 0
14.12 0 0
14.16 0 0
14.2 0 0
14.24 0 0
14.28 0 0
14.32 0 0
14.36 0 0
14.4 0 0
14.44 0 0
14.48 0 0
14.52 0 0
14.56 0 0
14.6 0 0
14.64 0 0
14.68 0 0
14.72 0 0
14.76 0 0
14.8 0 0
14.84 0 0
14.88 0 0
14.92 0 0
14.96 0 0
15 0 0
15.04 0 0
15.08 0 0
15.12 0 0
15.16 0 0
15.2 0 0
15.24 0 0
15.28 0 0
15.32 0 0
15.36 0 0
15.4 0 0
15.44 0 0
15.48 0 0
15.52 0 0
15.56 0 0
15.6 0 0
15.64 0 0
15.68 0 0
15.72 0 0
15.76 0 0
15.8 0 0
15.84 0 0
15.88 0 0
15.92 0 0
15.96 0 0
16 0 0
16.04 0 0
16.08 0 0
16.12 0 0
16.16 0 0
16.2 0 0
16.24 0 0
16.28 0 0
16.32 0 0
16.36 0 0
16.4 0 0
16.44 0 0
16.48 0 0
16.52 0 0
16.56 0 0
16.6 0 0
16.64 0 0
16.68 0 0
16.72 0 0
16.76 0 0
16.8 0 0
16.84 0 0
16.88 0 0
16.92 0 0
16.96 0 0
17 0 0
17.04 0 0
17.08 0 0
17.12 0 0
17.16 0 0
17.2 0 0
17.24 0 0
17.28 0 0
17.32 0 0
17.36 0 0
17.4 0 0
17.44 0 0
17.48 0 0
17.52 0 0
17.56 0 0
17.6 0 0
17.64 0 0
17.68 0 0
17.72 0 0
17.76 0 0
17.8 0 0
17.84 0 0
17.88 0 0
17.92 0 0
17.96 0 0
18 0 0
18.04 0 0
18.08 0 0
18.12 0 0
18.16 0 0
18.2 0 0
18.24 0 0
18.28 0 0
18.32 0 0
18.36 0 0
18.4 0 0
18.44 0 0
18.48 0 0
18.52 0 0
18.56 0 0
18.6 0 0
18.64 0 0
18.68 0 0
18.72 0 0
18.76 0 0
18.8 0 0
18.84 0 0
18.88 0 0
18.92 0 0
18.96 0 0
19 0 0
19.04 0 0
19.08 0 0
19.12 0 0
19.16 0 0
19.2 0 0
19.24 0 0
19.28 0 0
19.32 0 0
19.36 0 0
19.4 0 0
19.44 0 0
19.48 0 0
19.52 0 0
19.56 0 0
19.6 0 0
19.64 0 0
19.68 0 0
19.72 0 0
19.76 0 0
19.8 0 0
19.84 0 0
19.88 0 0
19.92 0 0
19.96 0 0
20 0 0
20.04 0 0
20.08 0 0
20.12 0 0
20.16 0 0
20.2 0 0
20.24 0 0
20.28 0 0
20.32 0 0
20.36 0 0
20.4 0 0
20.44 0 0
20.48 0 0
20.52 0 0
20.56 0 0
20.6 0 0
20.64 0 0
20.68 0 0
20.72 0 0
20.76 0 0
20.8 0 0
20.84 0 0
20.88 0 0
20.92 0 0
20.96 0 0
21 0 0
21.04 0 0
21.08 0 0
21.12 0 0
21.16 0 0
21.2 0 0
21.24 0 0
21.28 0 0
21.32 0 0
21.36 0 0
21.4 0 0
21.44 0 0
21.48 0 0
21.52 0 0
21.56 0 0
21.6 0 0
21.64 0 0
21.68 0 0
21.72 0 0
21.76 0 0
21.8 0 0
21.84 0 0
21.88 0 0
21.92 0 0
21.96 0 0
22 0 0
22.04 0 0
22.08 0 0
22.12 0 0
22.16 0 0
22.2 0 0
22.24 0 0
22.28 0 0
22.32 0 0
22.36 0 0
22.4 0 0
22.44 0 0
22.48 0 0
22.52 0 0
22.56 0 0
22.6 0 0
22.64 0 0
22.68 0 0
22.72 0 0
22.76 0 0
22.8 0 0
22.84 0 0
22.88 0 0
22.92 0 0
22.96 0 0
23 0 0
23.04 0 0
23.08 0 0
23.12 0 0
23.16 0 0
23.2 0 0
23.24 0 0
23.28 0 0
23.32 0 0
23.36 0 0
23.4 0 0
23.44 0 0
23.48 0 0
23.52 0 0
23.56 0 0
23.6 0 0
23.64 0 0
23.68 0 0
23.72 0 0
23.76 0 0
23.8 0 0
23.84 0 0
23.88 0 0
23.92 0 0
23.96 0 0
24 0 0
24.04 0 0
24.08 0 0
24.12 0 0
24.16 0 0
24.2 0 0
24.24 0 0
24.28 0 0
24.32 0 0
24.36 0 0
24.4 0 0
24.44 0 0
24.48 0 0
24.52 0 0
24.56 0 0
24.6 0 0
24.64 0 0
24.68 0 0
24.72 0 0
24.76 0 0
24.8 0 0
24.84 0 0
24.88 0 0
24.92 0 0
24.96 0 0
25 0 0
25.04 0 0
25.08 0 0
25.12 0 0
25.16 0 0
25.2 0 0
25.24 0 0
25.28 0 0
25.32 0 0
25.36 0 0
25.4 0 0
25.44 0 0
25.48 0 0
25.52 0 0
25.56 0 0
25.6 0 0
25.64 0 0
25.68 0 0
25.72 0 0
25.76 0 0
25.8 0 0
25.84 0 0
25.88 0 0
25.92 0 0
25.96 0 0
26 0 0
26.04 0 0
26.08 0 0
26.12 0 0
26.16 0 0
26.2 0 0
26.24 0 0
26.28 0 0
26.32 0 0
26.36 0 0
26.4 0 0
26.44 0 0
26.48 0 0
26.52 0 0
26.56 0 0
26.6 0 0
26.64 0 0
26.68 0 0
26.72 0 0
26.76 0 0
26.8 0 0
26.84 0 0
26.88 0 0
26.92 0 0
26.96 0 0
27 0 0
27.04 0 0
27.08 0 0
27.12 0 0
27.16 0 0
27.2 0 0
27.24 0 0
27.28 0 0
27.32 0 0
27.36 0 0
27.4 0 0
27.44 0 0
27.48 0 0
27.52 0 0
27.56 0 0
27.6 0 0
27.64 0 0
27.68 0 0
27.72 0 0
27.76 0 0
27.8 0 0
27.84 0 0
27.88 0 0
27.92 0 0
27.96 0 0
28 0 0
28.04 0 0
28.08 0 0
28.12 0 0
28.16 0 0
28.2 0 0
28.24 0 0
28.28 0 0
28.32 0 0
28.36 0 0
28.4 0 0
28.44 0 0
28.48 0 0
28.52 0 0
28.56 0 0
28.6 0 0
28.64 0 0
28.68 0 0
28.72 0 0
28.76 0 0
28.8 0 0
28.84 0 0
28.88 0 0
28.92 0 0
28.96 0 0
29 0 0
29.04 0 0
29.08 0 0
29.12 0 0
29.16 0 0
29.2 0 0
29.24 0 0
29.28 0 0
29.32 0 0
29.36 0 0
29.4 0 0
29.44 0 0
29.48 0 0
29.52 0 0
29.56 0 0
29.6 0 0
29.64 0 0
29.68 0 0
29.72 0 0
29.76 0 0
29.8 0 0
29.84 0 0
29.88 0 0
29.92 0 0
29.96 0 0
30 0 0
30.04 0 0
30.08 0 0
30.12 0 0
30.16 0 0
30.2 0 0
30.24 0 0
30.28 0 0
30.32 0 0
30.36 0 0
30.4 0 0
30.44 0 0
30.48 0 0
30.52 0 0
30.56 0 0
30.6 0 0
30.64 0 0
30.68 0 0
30.72 0 0
30.76 0 0
30.8 0 0
30.84 0 0
30.88 0 0
30.92 0 0
30.96 0 0
31 0 0
31.04 0 0
31.08 0 0
31.12 0 0
31.16 0 0
31.2 0 0
31.24 0 0
31.28 0 0
31.32 0 0
31.36 0 0
31.4 0 0
31.44 0 0
31.48 0 0
31.52 0 0
31.56 0 0
31.6 0 0
31.64 0 0
31.68 0 0
31.72 0 0
31.76 0 0
31.8 0 0
31.84 0 0
31.88 0 0
31.92 0 0
31.96 0 0
0 0.005 0
0.04 0.005 0
0.08 0.005 0
0.12 0.005 0
0.16 0.005 0
0.2 0.005 0
0.24 0.005 0
0.28 0.005 0
0.32 0.005 0
0.36 0.005 0
0.4 0.005 0
0.44 0.005 0
0.48 0.005 0
0.52 0.005 0
0.56 0.005 0
0.6 0.005 0
0.64 0.005 0
0.68 0.005 0
0.72 0.005 0
0.76 0.005 0
0.8 0.005 0
0.84 0.005 0
0.88 0.005 0
0.92 0.005 0
0.96 0.005 0
1 0.005 0
1.04 0.005 0
1.08 0.005 0
1.12 0.005 0
1.16 0.005 0
1.2 0.005 0
1.24 0.005 0
1.28 0.005 0
1.32 0.005 0
1.36 0.005 0
1.4 0.005 0
1.44 0.005 0
1.48 0.005 0
1.52 0.005 0
1.56 0.005 0
1.6 0.005 0
1.64 0.005 0
1.68 0.005 0
1.72 0.005 0
1.76 0.005 0
1.8 0.005 0
1.84 0.005 0
1.88 0.005 0
1.92 0.005 0
1.96 0.005 0
2 0.005 0
2.04 0.005 0
2.08 0.005 0
2.12 0.005 0
2.16 0.005 0
2.2 0.005 0
2.24 0.005 0
2.28 0.005 0
2.32 0.005 0
2.36 0.005 0
2.4 0.005 0
2.44 0.005 0
2.48 0.005 0
2.52 0.005 0
2.56 0.005 0
2.6 0.005 0
2.64 0.005 0
2.68 0.005 0
2.72 0.005 0
2.76 0.005 0
2.8 0.005 0
2.84 0.005 0
2.88 0.005 0
2.92 0.005 0
2.96 0.005 0
3 0.005 0
3.04 0.005 0
3.08 0.005 0
3.12 0.005 0
3.16 0.005 0
3.2 0.005 0
3.24 0.005 0
3.28 0.005 0
3.32 0.005 0
3.36 0.005 0
3.4 0.005 0
3.44 0.005 0
3.48 0.005 0
3.52 0.005 0
3.56 0.005 0
3.6 0.005 0
3.64 0.005 0
3.68 0.005 0
3.72 0.005 0
3.76 0.005 0
3.8 0.005 0
3.84 0.005 0
3.88 0.005 0
3.92 0.005 0
3.96 0.005 0
4 0.005 0
4.04 0.005 0
4.08 0.005 0
4.12 0.005 0
4.16 0.005 0
4.2 0.005 0
4.24 0.005 0
4.28 0.005 0
4.32 0.005 0
4.36 0.005 0
4.4 0.005 0
4.44 0.005 0
4.48 0.005 0
4.52 0.005 0
4.56 0.005 0
4.6 0.005 0
4.64 0.005 0
4.68 0.005 0
4.72 0.005 0
4.76 0.005 0
4.8 0.005 0
4.84 0.005 0
4.88 0.005 0
4.92 0.005 0
4.96 0.005 0
5 0.005 0
5.04 0.005 0
5.08 0.005 0
5.12 0.005 0
5.16 0.005 0
5.2 0.005 0
5.24 0.005 0
5.28 0.005 0
5.32 0.005 0
5.36 0.005 0
5.4 0.005 0
5.44 0.005 0
5.48 0.005 0
5.52 0.005 0
5.56 0.005 0
5.6 0.005 0
5.64 0.005 0
5.68 0.005 0
5.72 0.005 0
5.76 0.005 0
5.8 0.005 0
5.84 0.005 0
5.88 0.005 0
5.92 0.005 0
5.96 0.005 0
6 0.005 0
6.04 0.005 0
6.08 0.005 0
6.12 0.005 0
6.16 0.005 0
6.2 0.005 0
6.24 0.005 0
6.28 0.005 0
6.32 0.005 0
6.36 0.005 0
6.4 0.005 0
6.44 0.005 0
6.48 0.005 0
6.52 0.005 0
6.56 0.005 0
6.6 0.005 0
6.64 0.005 0
6.68 0.005 0
6.72 0.005 0
6.76 0.005 0
6.8 0.005 0
6.84 0.005 0
6.88 0.005 0
6.92 0.005 0
6.96 0.005 0
7 0.005 0
7.04 0.005 0
7.08 0.005 0
7.12 0.005 0
7.16 0.005 0
7.2 0.005 0
7.24 0.005 0
7.28 0.005 0
7.32 0.005 0
7.36 0.005 0
7.4 0.005 0
[...]
POINT_DATA 160000

SCALARS v float 1
LOOKUP_TABLE default
0
0
0
0
0
0
0
0
0
0
0
0
0
0
0
0
0
0
0
0
0
0
0
0
0
0
0
0
0
0
0
0
0
0
0
0
0
0
0
0
0
0
0
0
0
0
0
0
0
0
0
0
0
0
0
0
0
0
0
0
0
0
0
0
0
0
0
0
0
0
0
0
0
0
0
0
0
0
0
0
0
0
0
0
0
0
0
0
0
0
0
0
0
0
0
0
0
0
0
0
0
0
0
0
0
0
0
0
0
0
0
0
0
0
0
0
0
0
0
0
0
0
0
0
0
0
0
0
0
0
0
0
0
0
0
0
0
0
0
0
0
0
0
0
0
0
0
0
0
0
0
0
0
0
0
0
0
0
0
0
0
0
0
0
0
0
0
0
0
0
0
0
0
0
0
0
0
0
0
0
0
0
0
0
0
0
0
0
0
0
0
0
0
0
0
0
0
0
0
0
0
0
0
0
0
0
0
0
0
0
0
0
0
0
0
0
0
0
0
0
0
0
0
0
0
0
0
0
0
0
0
0
0
0
0
0
0
0
0
0
0
0
0
0
0
0
0
0
0
0
0
0
0
0
0
0
0
0
0
0
0
0
0
0
0
0
0
0
0
0
0
0
0
0
0
0
0
0
0
0
0
0
0
0
0
0
0
0
0
0
0
0
0
0
0
0
0
0
0
0
0
0
0
0
0
0
0
0
0
0
0
0
0
0
0
0
0
0
0
0
0
0
0
0
0
0
0
0
0
0
0
0
0
0
0
0
0
0
0
0
0
0
0
0
0
0
0
0
0
0
0
0
0
0
0
0
0
0
0
0
0
0
0
0
0
0
0
0
0
0
0
0
0
0
0
0
0
0
0
0
0
0
0
0
0
0
0
0
0
0
0
0
0
0
0
0
0
0
0
0
0
0
0
0
0
0
0
0
0
0
0
0
0
0
0
0
0
0
0
0
0
0
0
0
0
0
0
0
0
0
0
0
0
0
0
0
0
0
0
0
0
0
0
0
0
0
0
0
0
0
0
0
0
0
0
0
0
0
0
0
0
0
0
0
0
0
0
0
0
0
0
0
0
0
0
0
0
0
0
0
0
0
0
0
0
0
0
0
0
0
0
0
0
0
0
0
0
0
0
0
0
0
0
0
0
0
0
0
0
0
0
0
0
0
0
0
0
0
0
0
0
0
0
0
0
0
0
0
0
0
0
0
0
0
0
0
0
0
0
0
0
0
0
0
0
0
0
0
0
0
0
0
0
0
0
0
0
0
0
0
0
0
0
0
0
0
0
0
0
0
0
0
0
0
0
0
0
0
0
0
0
0
0
0
0
0
0
0
0
0
0
0
0
0
0
0
0
0
0
0
0
0
0
0
0
0
0
0
0
0
0
0
0
0
0
0
0
0
0
0
0
0
0
0
0
0
0
0
0
0
0
0
0
0
0
0
0
0
0
0
0
0
0
0
0
0
0
0
0
0
0
0
0
0
0
0
0
0
0
0
0
0
0
0
0
0
0
0
0
0
0
0
0
0
0
0
0
0
0
0
0
0
0
0
0
0
0
0
0
0
0
0
0
0
0
0
0
0
0
0
0
0
0
0
0
0
0
0
0
0
0
0
0
0
0
0
0
0
0
0
0
0
0
0
0
0
0
0
0
0
0
0
0
0
0
0
0
0
0
0
0
0
0
0
0
0
0
0
0
0
0
0
0
0
0
0
0
0
0
0
0
0
0
0
0
0
0
0
0
0
0
0
0
0
0
0
0
0
0
0
0
0
0
0
0
0
0
0
0
0
0
0
0
0
0
0
0
0
0
0
0
0
0.0374157
0.0093811
0.00346794
0.00176632
0.00108084
0.000737083
0.000538305
0.000411761
0.000325562
0.000263873
0.000218052
0.000183022
0.00015562
0.000133784
0.000116111
0.00010162
8.96012e-05
7.95333e-05
7.10235e-05
6.37716e-05
5.75449e-05
5.21607e-05
4.74743e-05
4.33697e-05
3.97533e-05
3.65493e-05
3.36954e-05
3.11406e-05
2.88425e-05
2.67659e-05
2.48815e-05
2.31646e-05
2.15944e-05
2.01533e-05
1.88263e-05
1.76005e-05
1.6465e-05
1.54103e-05
1.44281e-05
1.35115e-05
1.2654e-05
1.18504e-05
1.10957e-05
1.03857e-05
9.71678e-06
9.08548e-06
8.48884e-06
7.9242e-06
7.38916e-06
6.88156e-06
6.39942e-06
5.94099e-06
5.50464e-06
5.0889e-06
4.69244e-06
4.31402e-06
3.95251e-06
3.60689e-06
3.27618e-06
2.95951e-06
2.65606e-06
2.36508e-06
2.08587e-06
1.81777e-06
1.56019e-06
1.31255e-06
1.07434e-06
8.45064e-07
6.24267e-07
4.11522e-07
2.06424e-07
8.59008e-09
-1.82325e-07
-3.66646e-07
-5.44683e-07
-7.16733e-07
-8.83075e-07
-1.04397e-06
-1.19966e-06
-1.35037e-06
-1.49632e-06
-1.63771e-06
-1.77476e-06
-1.90763e-06
-2.03651e-06
-2.16154e-06
-2.2829e-06
-2.40073e-06
-2.51518e-06
-2.62638e-06
-2.73446e-06
-2.83952e-06
-2.94169e-06
-3.0411e-06
-3.13783e-06
-3.23198e-06
-3.32364e-06
-3.41291e-06
-3.49989e-06
-3.58464e-06
-3.66725e-06
-3.7478e-06
-3.82635e-06
-3.90298e-06
-3.97775e-06
-4.05071e-06
-4.12194e-06
-4.19149e-06
-4.25942e-06
-4.32577e-06
-4.39061e-06
-4.45397e-06
-4.51591e-06
-4.57647e-06
-4.6357e-06
-4.69363e-06
-4.75031e-06
-4.80576e-06
-4.86004e-06
-4.91318e-06
-4.96521e-06
-5.01616e-06
-5.06607e-06
-5.11496e-06
-5.16286e-06
-5.20981e-06
-5.25583e-06
-5.30094e-06
-5.34518e-06
-5.38856e-06
-5.43111e-06
-5.47286e-06
-5.51382e-06
-5.55401e-06
-5.59346e-06
-5.63219e-06
-5.67021e-06
-5.70754e-06
-5.74421e-06
-5.78022e-06
-5.8156e-06
-5.85037e-06
-5.88453e-06
-5.9181e-06
-5.95109e-06
-5.98353e-06
-6.01542e-06
-6.04678e-06
-6.07763e-06
-6.10796e-06
-6.1378e-06
-6.16715e-06
-6.19604e-06
-6.22447e-06
-6.25244e-06
-6.27996e-06
-6.30707e-06
-6.33376e-06
-6.36003e-06
-6.3859e-06
-6.41138e-06
-6.43647e-06
-6.46119e-06
-6.48554e-06
-6.50952e-06
-6.53316e-06
-6.55646e-06
-6.57942e-06
-6.60204e-06
-6.62434e-06
-6.64632e-06
-6.668e-06
-6.68937e-06
-6.71044e-06
-6.73121e-06
-6.7517e-06
-6.77191e-06
-6.79185e-06
-6.81152e-06
-6.83092e-06
-6.85006e-06
-6.86894e-06
-6.88758e-06
-6.90596e-06
-6.92411e-06
-6.94202e-06
-6.9597e-06
-6.97714e-06
-6.99437e-06
-7.01138e-06
-7.02817e-06
-7.04474e-06
-7.06111e-06
-7.07728e-06
-7.09323e-06
-7.10899e-06
-7.12456e-06
-7.13993e-06
-7.15512e-06
-7.17012e-06
-7.18494e-06
-7.19958e-06
-7.21405e-06
-7.22833e-06
-7.24245e-06
-7.25639e-06
-7.27017e-06
-7.2838e-06
-7.29726e-06
-7.31056e-06
-7.3237e-06
-7.33669e-06
-7.34954e-06
-7.36224e-06
-7.37478e-06
-7.38718e-06
-7.39944e-06
-7.41156e-06
-7.42354e-06
-7.43538e-06
-7.44709e-06
-7.45867e-06
-7.47012e-06
-7.48144e-06
-7.49263e-06
-7.5037e-06
-7.51465e-06
-7.52547e-06
-7.53617e-06
-7.54676e-06
-7.55722e-06
-7.56757e-06
-7.57781e-06
-7.58794e-06
-7.59795e-06
-7.60786e-06
-7.61766e-06
-7.62735e-06
-7.63694e-06
-7.64642e-06
-7.6558e-06
-7.66508e-06
-7.67426e-06
-7.68334e-06
-7.69232e-06
-7.70121e-06
-7.71e-06
-7.7187e-06
-7.7273e-06
-7.73582e-06
-7.74424e-06
-7.75258e-06
-7.76083e-06
-7.76898e-06
-7.77705e-06
-7.78504e-06
-7.79294e-06
-7.80077e-06
-7.80851e-06
-7.81617e-06
-7.82375e-06
-7.83124e-06
-7.83865e-06
-7.846e-06
-7.85327e-06
-7.86046e-06
-7.86757e-06
-7.87461e-06
-7.88158e-06
-7.88848e-06
-7.8953e-06
-7.90205e-06
-7.90874e-06
-7.91536e-06
-7.9219e-06
-7.92838e-06
-7.93479e-06
-7.94114e-06
-7.94742e-06
-7.95364e-06
-7.95979e-06
-7.96587e-06
-7.9719e-06
-7.97786e-06
-7.98377e-06
-7.98961e-06
-7.9954e-06
-8.00112e-06
-8.00678e-06
-8.01239e-06
-8.01794e-06
-8.02343e-06
-8.02888e-06
-8.03426e-06
-8.03958e-06
-8.04485e-06
-8.05007e-06
-8.05524e-06
-8.06036e-06
-8.06542e-06
-8.07043e-06
-8.07538e-06
-8.08028e-06
-8.08514e-06
-8.08996e-06
-8.09473e-06
-8.09944e-06
-8.1041e-06
-8.10871e-06
-8.11329e-06
-8.11781e-06
-8.12229e-06
-8.12672e-06
-8.13111e-06
-8.13546e-06
-8.13975e-06
-8.14401e-06
-8.14822e-06
-8.15239e-06
-8.15652e-06
-8.16061e-06
-8.16465e-06
-8.16866e-06
-8.17262e-06
-8.17654e-06
-8.18043e-06
-8.18428e-06
-8.18808e-06
-8.19185e-06
-8.19557e-06
-8.19926e-06
-8.20292e-06
-8.20654e-06
-8.21013e-06
-8.21367e-06
-8.21718e-06
-8.22065e-06
-8.22409e-06
-8.22749e-06
-8.23086e-06
-8.2342e-06
-8.2375e-06
-8.24077e-06
-8.24401e-06
-8.24721e-06
-8.25038e-06
-8.25352e-06
-8.25663e-06
-8.2597e-06
-8.26274e-06
-8.26576e-06
-8.26875e-06
-8.2717e-06
-8.27462e-06
-8.27752e-06
-8.28039e-06
-8.28322e-06
-8.28603e-06
-8.28881e-06
-8.29156e-06
-8.29428e-06
-8.29698e-06
-8.29965e-06
-8.30229e-06
-8.3049e-06
-8.30749e-06
-8.31006e-06
-8.31259e-06
-8.3151e-06
-8.31759e-06
-8.32005e-06
-8.32249e-06
-8.3249e-06
-8.32728e-06
-8.32964e-06
-8.33199e-06
-8.3343e-06
-8.33659e-06
-8.33886e-06
-8.3411e-06
-8.34333e-06
-8.34553e-06
-8.3477e-06
-8.34985e-06
-8.35199e-06
-8.3541e-06
-8.3562e-06
-8.35826e-06
-8.36031e-06
-8.36233e-06
-8.36434e-06
-8.36633e-06
-8.3683e-06
-8.37025e-06
-8.37217e-06
-8.37408e-06
-8.37597e-06
-8.37784e-06
-8.37969e-06
-8.38152e-06
-8.38334e-06
-8.38514e-06
-8.38693e-06
-8.38869e-06
-8.39043e-06
-8.39216e-06
-8.39388e-06
-8.39558e-06
-8.39726e-06
-8.39893e-06
-8.40058e-06
-8.40222e-06
-8.40384e-06
-8.40545e-06
-8.40705e-06
-8.40863e-06
-8.4102e-06
-8.41176e-06
-8.4133e-06
-8.41483e-06
-8.41635e-06
-8.41786e-06
-8.41936e-06
-8.42084e-06
-8.42231e-06
-8.42377e-06
-8.42522e-06
-8.42666e-06
-8.4281e-06
-8.42953e-06
-8.43094e-06
-8.43235e-06
-8.43374e-06
-8.43513e-06
-8.43652e-06
-8.43789e-06
-8.43925e-06
-8.44062e-06
-8.44197e-06
-8.44331e-06
-8.44465e-06
-8.44599e-06
-8.44732e-06
-8.44864e-06
-8.44995e-06
-8.45126e-06
-8.45256e-06
-8.45387e-06
-8.45516e-06
-8.45644e-06
-8.45772e-06
-8.45901e-06
-8.46028e-06
-8.46155e-06
-8.46281e-06
-8.46407e-06
-8.46533e-06
-8.46658e-06
-8.46783e-06
-8.46907e-06
-8.47031e-06
-8.47155e-06
-8.47278e-06
-8.474e-06
-8.47522e-06
-8.47644e-06
-8.47765e-06
-8.47886e-06
-8.48006e-06
-8.48126e-06
-8.48246e-06
-8.48365e-06
-8.48484e-06
-8.48602e-06
-8.48719e-06
-8.48836e-06
-8.48952e-06
-8.49068e-06
-8.49183e-06
-8.49298e-06
-8.49412e-06
-8.49526e-06
-8.49639e-06
-8.49751e-06
-8.49863e-06
-8.49974e-06
-8.50084e-06
-8.50194e-06
-8.50302e-06
-8.5041e-06
-8.50518e-06
-8.50624e-06
-8.5073e-06
-8.50835e-06
-8.50939e-06
-8.51042e-06
-8.51145e-06
-8.51246e-06
-8.51347e-06
-8.51446e-06
-8.51545e-06
-8.51642e-06
-8.51739e-06
-8.51835e-06
-8.5193e-06
-8.52023e-06
-8.52116e-06
-8.52208e-06
-8.52298e-06
-8.52388e-06
-8.52476e-06
-8.52563e-06
-8.52649e-06
-8.52734e-06
-8.52818e-06
-8.529e-06
-8.52982e-06
-8.53062e-06
-8.53141e-06
-8.53219e-06
-8.53296e-06
-8.53371e-06
-8.53446e-06
-8.53519e-06
-8.5359e-06
-8.5366e-06
-8.5373e-06
-8.53798e-06
-8.53865e-06
-8.53931e-06
-8.53995e-06
-8.54058e-06
-8.5412e-06
-8.5418e-06
-8.5424e-06
-8.54298e-06
-8.54354e-06
-8.5441e-06
-8.54464e-06
-8.54518e-06
-8.5457e-06
-8.54621e-06
-8.5467e-06
-8.54719e-06
-8.54766e-06
-8.54812e-06
-8.54856e-06
-8.54901e-06
-8.54943e-06
-8.54984e-06
-8.55025e-06
-8.55064e-06
-8.55102e-06
-8.55138e-06
-8.55174e-06
-8.55209e-06
-8.55243e-06
-8.55276e-06
-8.55308e-06
-8.55338e-06
-8.55368e-06
-8.55397e-06
-8.55425e-06
-8.55453e-06
-8.55479e-06
-8.55503e-06
-8.55527e-06
-8.55551e-06
-8.55574e-06
-8.55596e-06
-8.55617e-06
-8.55637e-06
-8.55656e-06
-8.55675e-06
-8.55693e-06
-8.5571e-06
-8.55727e-06
-8.55742e-06
-8.55758e-06
-8.55772e-06
-8.55786e-06
-8.558e-06
-8.55813e-06
-8.55825e-06
-8.55836e-06
-8.55847e-06
-8.55858e-06
-8.55869e-06
-8.55878e-06
-8.55887e-06
-8.55896e-06
-8.55904e-06
-8.55913e-06
-8.5592e-06
-8.55927e-06
-8.55933e-06
-8.5594e-06
-8.55946e-06
-8.55952e-06
-8.55957e-06
-8.55962e-06
-8.55967e-06
-8.55972e-06
-8.55977e-06
-8.55981e-06
-8.55984e-06
-8.55988e-06
-8.55992e-06
-8.55995e-06
-8.55998e-06
-8.56001e-06
-8.56003e-06
-8.56006e-06
-8.56009e-06
-8.56011e-06
-8.56014e-06
-8.56016e-06
-8.56017e-06
-8.56019e-06
-8.56021e-06
-8.56022e-06
-8.56024e-06
-8.56026e-06
-8.56028e-06
-8.56029e-06
-8.5603e-06
-8.56031e-06
-8.56033e-06
-8.56034e-06
-8.56035e-06
-8.56036e-06
-8.56037e-06
-8.56038e-06
-8.56038e-06
-8.56039e-06
-8.56041e-06
-8.56042e-06
-8.56042e-06
-8.56043e-06
-8.56044e-06
-8.56045e-06
-8.56046e-06
-8.56047e-06
-8.56048e-06
-8.56049e-06
-8.5605e-06
-8.5605e-06
-8.56051e-06
-8.56051e-06
-8.56052e-06
-8.56054e-06
-8.56055e-06
-8.56055e-06
-8.56056e-06
-8.56057e-06
-8.56058e-06
-8.56058e-06
-8.56059e-06
-8.5606e-06
-8.56061e-06
-8.56062e-06
-8.56062e-06
-8.56063e-06
-8.56064e-06
-8.56065e-06
-8.56066e-06
-8.56066e-06
-8.56067e-06
-8.56068e-06
-8.56069e-06
-8.5607e-06
-8.5607e-06
-8.5607e-06
-8.56071e-06
-8.56073e-06
-8.56073e-06
-8.56074e-06
-8.56075e-06
-8.56076e-06
-8.56077e-06
-8.56077e-06
-8.56078e-06
-8.56079e-06
-8.5608e-06
-8.56081e-06
-8.56082e-06
-8.56083e-06
-8.56083e-06
-8.56083e-06
-8.56084e-06
-8.56085e-06
-8.56086e-06
-8.56087e-06
-8.56088e-06
-8.56089e-06
-8.56089e-06
-8.5609e-06
-8.56091e-06
-8.56092e-06
-8.56092e-06
-8.56093e-06
-8.56094e-06
-8.56095e-06
-8.56096e-06
-8.56097e-06
-8.56097e-06
-8.56098e-06
-8.56099e-06
-8.56101e-06
-8.56101e-06
-8.56101e-06
-8.56102e-06
-8.56104e-06
-8.56105e-06
-8.56105e-06
-8.56105e-06
-8.56106e-06
-8.56107e-06
-8.56108e-06
-8.56109e-06
-8.5611e-06
-8.56111e-06
-8.56111e-06
-8.56112e-06
-8.56113e-06
-8.56114e-06
-8.56115e-06
-8.56116e-06
-8.56116e-06
-8.56117e-06
-8.56117e-06
-8.56118e-06
-8.56119e-06
-8.5612e-06
-8.56121e-06
-8.56122e-06
-8.56123e-06
-8.56123e-06
-8.56124e-06
-8.56125e-06
-8.56126e-06
-8.56127e-06
-8.56127e-06
-8.56128e-06
-8.56128e-06
-8.5613e-06
-8.56131e-06
-8.56131e-06
-8.56132e-06
-8.56133e-06
-8.56134e-06
-8.56134e-06
-8.56135e-06
-8.56136e-06
-8.56137e-06
-8.56138e-06
-8.56138e-06
-8.56139e-06
-8.5614e-06
-8.5614e-06
-8.5614e-06
-8.56141e-06
-8.56141e-06
-8.56141e-06
-8.56141e-06
-8.56141e-06
-8.5614e-06
-8.56139e-06
-8.56137e-06
-8.56135e-06
-8.56132e-06
-8.56128e-06
-8.56122e-06
-8.56115e-06
-8.56106e-06
-8.56094e-06
-8.56078e-06
-8.56059e-06
-8.56033e-06
-8.56001e-06
-8.55958e-06
-8.55907e-06
-8.55837e-06
-8.55755e-06
-8.55638e-06
-8.55506e-06
-8.5531e-06
-8.55102e-06
-8.54758e-06
-8.54443e-06
-8.53793e-06
-8.53376e-06
-8.51946e-06
-8.51826e-06
-8.47558e-06
-8.54801e-06
-6.04418e-06
-6.04418e-06
0
0
0.09661
0.0320526
0.0130061
0.00682634
0.00423604
0.0029141
0.00214247
0.00164839
0.00131052
0.00106804
0.000887536
0.000749288
0.000640984
0.000554562
0.000484537
0.000427058
0.000379343
0.00033934
0.000305504
0.000276651
0.000251864
0.000230422
0.000211752
0.000195396
0.000180982
0.000168211
0.000156834
0.00014665
0.00013749
0.000129214
0.000121704
0.000114864
0.000108609
0.00010287
9.75865e-05
9.27073e-05
8.81886e-05
8.39924e-05
8.0086e-05
7.64408e-05
7.3032e-05
6.98377e-05
6.68387e-05
6.40182e-05
6.13611e-05
5.8854e-05
5.6485e-05
5.42434e-05
5.21197e-05
5.01051e-05
4.8192e-05
4.63731e-05
4.4642e-05
4.2993e-05
4.14205e-05
3.99198e-05
3.84863e-05
3.71158e-05
3.58047e-05
3.45493e-05
3.33464e-05
3.2193e-05
3.10863e-05
3.00238e-05
2.90029e-05
2.80216e-05
2.70777e-05
2.61692e-05
2.52943e-05
2.44514e-05
2.36388e-05
2.2855e-05
2.20987e-05
2.13686e-05
2.06633e-05
1.99818e-05
1.93229e-05
1.86856e-05
1.8069e-05
1.74721e-05
1.6894e-05
1.6334e-05
1.57913e-05
1.52651e-05
1.47548e-05
1.42596e-05
1.3779e-05
1.33124e-05
1.28592e-05
1.24189e-05
1.1991e-05
1.1575e-05
1.11705e-05
1.07769e-05
1.0394e-05
1.00212e-05
9.65829e-06
9.30484e-06
8.96051e-06
8.62497e-06
8.29793e-06
7.97907e-06
7.66811e-06
7.36478e-06
7.06882e-06
6.77999e-06
6.49804e-06
6.22273e-06
5.95386e-06
5.6912e-06
5.43458e-06
5.18378e-06
4.93862e-06
4.69891e-06
4.4645e-06
4.23522e-06
4.01091e-06
3.79141e-06
3.57659e-06
3.36628e-06
3.16038e-06
2.95875e-06
2.76125e-06
2.56777e-06
2.37819e-06
2.1924e-06
2.01029e-06
1.83177e-06
1.65673e-06
1.48506e-06
1.31668e-06
1.1515e-06
9.89427e-07
8.30384e-07
6.74286e-07
5.21058e-07
3.7062e-07
2.22896e-07
7.78226e-08
-6.46696e-08
-2.0465e-07
-3.42182e-07
-4.77324e-07
-6.10138e-07
-7.4068e-07
-8.69007e-07
-9.95179e-07
-1.11925e-06
-1.24126e-06
-1.36126e-06
-1.4793e-06
-1.59542e-06
-1.70969e-06
-1.82212e-06
-1.93277e-06
-2.04168e-06
-2.14889e-06
-2.25444e-06
-2.35836e-06
-2.46068e-06
-2.56145e-06
-2.66071e-06
-2.75847e-06
-2.85477e-06
-2.94965e-06
-3.04314e-06
-3.13527e-06
-3.22606e-06
-3.31553e-06
-3.40372e-06
-3.49066e-06
-3.57637e-06
-3.66088e-06
-3.74421e-06
-3.82637e-06
-3.9074e-06
-3.98732e-06
-4.06615e-06
-4.14391e-06
-4.22062e-06
-4.2963e-06
-4.37097e-06
-4.44465e-06
-4.51736e-06
-4.58911e-06
-4.65992e-06
-4.72981e-06
-4.7988e-06
-4.8669e-06
-4.93414e-06
-5.00051e-06
-5.06604e-06
-5.13075e-06
-5.19464e-06
-5.25773e-06
-5.32004e-06
-5.38157e-06
-5.44235e-06
-5.50238e-06
-5.56168e-06
-5.62026e-06
-5.67812e-06
-5.73529e-06
-5.79177e-06
-5.84756e-06
-5.90269e-06
-5.95717e-06
-6.01101e-06
-6.06421e-06
-6.11678e-06
-6.16873e-06
-6.22008e-06
-6.27084e-06
-6.32101e-06
-6.37059e-06
-6.4196e-06
-6.46805e-06
-6.51594e-06
-6.56328e-06
-6.61009e-06
-6.65637e-06
-6.70212e-06
-6.74736e-06
-6.79209e-06
-6.83632e-06
-6.88005e-06
-6.9233e-06
-6.96606e-06
-7.00835e-06
-7.05016e-06
-7.09152e-06
-7.13242e-06
-7.17287e-06
-7.21288e-06
-7.25244e-06
-7.29158e-06
-7.33029e-06
-7.36858e-06
-7.40646e-06
-7.44392e-06
-7.48097e-06
-7.51763e-06
-7.55389e-06
-7.58977e-06
-7.62526e-06
-7.66036e-06
-7.6951e-06
-7.72946e-06
-7.76345e-06
-7.79708e-06
-7.83036e-06
-7.86328e-06
-7.89585e-06
-7.92808e-06
-7.95996e-06
-7.99151e-06
-8.02273e-06
-8.05363e-06
-8.0842e-06
-8.11444e-06
-8.14437e-06
-8.17397e-06
-8.20327e-06
-8.23228e-06
-8.26098e-06
-8.28937e-06
-8.31746e-06
-8.34528e-06
-8.3728e-06
-8.40003e-06
-8.42698e-06
-8.45365e-06
-8.48005e-06
-8.50617e-06
-8.53202e-06
-8.55761e-06
-8.58293e-06
-8.60799e-06
-8.63279e-06
-8.65734e-06
-8.68163e-06
-8.70566e-06
-8.72946e-06
-8.75302e-06
-8.77633e-06
-8.7994e-06
-8.82223e-06
-8.84483e-06
-8.8672e-06
-8.88934e-06
-8.91125e-06
-8.93295e-06
-8.95442e-06
-8.97567e-06
-8.9967e-06
-9.01752e-06
-9.03812e-06
-9.05852e-06
-9.07871e-06
-9.0987e-06
-9.11847e-06
-9.13804e-06
-9.15742e-06
-9.17661e-06
-9.1956e-06
-9.2144e-06
-9.233e-06
-9.25141e-06
-9.26963e-06
-9.28768e-06
-9.30554e-06
-9.32321e-06
-9.34072e-06
-9.35804e-06
-9.37518e-06
-9.39215e-06
-9.40896e-06
-9.42559e-06
-9.44205e-06
-9.45834e-06
-9.47447e-06
-9.49044e-06
-9.50625e-06
-9.52189e-06
-9.53738e-06
-9.55272e-06
-9.5679e-06
-9.58292e-06
-9.59778e-06
-9.6125e-06
-9.62707e-06
-9.6415e-06
-9.65579e-06
-9.66992e-06
-9.68391e-06
-9.69776e-06
-9.71148e-06
-9.72505e-06
-9.73848e-06
-9.75178e-06
-9.76494e-06
-9.77798e-06
-9.79088e-06
-9.80366e-06
-9.8163e-06
-9.82881e-06
-9.84121e-06
-9.85347e-06
-9.8656e-06
-9.87762e-06
-9.88952e-06
-9.9013e-06
-9.91295e-06
-9.92449e-06
-9.93592e-06
-9.94723e-06
-9.95842e-06
-9.9695e-06
-9.98047e-06
-9.99133e-06
-1.00021e-05
-1.00127e-05
-1.00232e-05
-1.00337e-05
-1.0044e-05
-1.00542e-05
-1.00643e-05
-1.00743e-05
-1.00842e-05
-1.00941e-05
-1.01038e-05
-1.01134e-05
-1.01229e-05
-1.01323e-05
-1.01416e-05
-1.01509e-05
-1.016e-05
-1.0169e-05
-1.0178e-05
-1.01868e-05
-1.01956e-05
-1.02043e-05
-1.02129e-05
-1.02214e-05
-1.02298e-05
-1.02381e-05
-1.02464e-05
-1.02546e-05
-1.02626e-05
-1.02706e-05
-1.02786e-05
-1.02864e-05
-1.02942e-05
-1.03018e-05
-1.03095e-05
-1.0317e-05
-1.03244e-05
-1.03318e-05
-1.03391e-05
-1.03464e-05
-1.03536e-05
-1.03607e-05
-1.03677e-05
-1.03747e-05
-1.03816e-05
-1.03884e-05
-1.03952e-05
-1.04019e-05
-1.04086e-05
-1.04151e-05
-1.04217e-05
-1.04282e-05
-1.04346e-05
-1.04409e-05
-1.04473e-05
-1.04535e-05
-1.04597e-05
-1.04659e-05
-1.0472e-05
-1.0478e-05
-1.0484e-05
-1.049e-05
-1.04959e-05
-1.05018e-05
-1.05077e-05
-1.05134e-05
-1.05192e-05
-1.05249e-05
-1.05306e-05
-1.05363e-05
-1.05419e-05
-1.05474e-05
-1.0553e-05
-1.05585e-05
-1.0564e-05
-1.05694e-05
-1.05749e-05
-1.05803e-05
-1.05856e-05
-1.0591e-05
-1.05963e-05
-1.06016e-05
-1.06069e-05
-1.06121e-05
-1.06174e-05
-1.06226e-05
-1.06277e-05
-1.06329e-05
-1.0638e-05
-1.06432e-05
-1.06483e-05
-1.06534e-05
-1.06584e-05
-1.06635e-05
-1.06685e-05
-1.06735e-05
-1.06785e-05
-1.06835e-05
-1.06885e-05
-1.06934e-05
-1.06984e-05
-1.07033e-05
-1.07082e-05
-1.07131e-05
-1.07179e-05
-1.07228e-05
-1.07276e-05
-1.07324e-05
-1.07372e-05
-1.0742e-05
-1.07467e-05
-1.07515e-05
-1.07562e-05
-1.07609e-05
-1.07656e-05
-1.07702e-05
-1.07749e-05
-1.07795e-05
-1.07841e-05
-1.07886e-05
-1.07932e-05
-1.07977e-05
-1.08022e-05
-1.08066e-05
-1.08111e-05
-1.08155e-05
-1.08199e-05
-1.08242e-05
-1.08285e-05
-1.08328e-05
-1.08371e-05
-1.08413e-05
-1.08455e-05
-1.08497e-05
-1.08538e-05
-1.08579e-05
-1.0862e-05
-1.0866e-05
-1.087e-05
-1.0874e-05
-1.08779e-05
-1.08818e-05
-1.08856e-05
-1.08894e-05
-1.08931e-05
-1.08968e-05
-1.09005e-05
-1.09041e-05
-1.09077e-05
-1.09113e-05
-1.09148e-05
-1.09182e-05
-1.09216e-05
-1.0925e-05
-1.09283e-05
-1.09315e-05
-1.09348e-05
-1.09379e-05
-1.0941e-05
-1.09441e-05
-1.09471e-05
-1.09501e-05
-1.0953e-05
-1.09559e-05
-1.09587e-05
-1.09615e-05
-1.09642e-05
-1.09669e-05
-1.09696e-05
-1.09721e-05
-1.09747e-05
-1.09771e-05
-1.09796e-05
-1.09819e-05
-1.09843e-05
-1.09865e-05
-1.09888e-05
-1.0991e-05
-1.09931e-05
-1.09952e-05
-1.09972e-05
-1.09992e-05
-1.10011e-05
-1.1003e-05
-1.10049e-05
-1.10066e-05
-1.10084e-05
-1.10101e-05
-1.10118e-05
-1.10134e-05
-1.10149e-05
-1.10165e-05
-1.10179e-05
-1.10194e-05
-1.10208e-05
-1.10221e-05
-1.10234e-05
-1.10247e-05
-1.10259e-05
-1.10271e-05
-1.10283e-05
-1.10294e-05
-1.10305e-05
-1.10315e-05
-1.10325e-05
-1.10335e-05
-1.10344e-05
-1.10353e-05
-1.10362e-05
-1.1037e-05
-1.10378e-05
-1.10386e-05
-1.10393e-05
-1.104e-05
-1.10407e-05
-1.10413e-05
-1.1042e-05
-1.10426e-05
-1.10431e-05
-1.10437e-05
-1.10442e-05
-1.10447e-05
-1.10452e-05
-1.10456e-05
-1.10461e-05
-1.10465e-05
-1.10469e-05
-1.10473e-05
-1.10476e-05
-1.10479e-05
-1.10483e-05
-1.10486e-05
-1.10489e-05
-1.10491e-05
-1.10494e-05
-1.10496e-05
-1.10498e-05
-1.10501e-05
-1.10503e-05
-1.10505e-05
-1.10506e-05
-1.10508e-05
-1.1051e-05
-1.10511e-05
-1.10513e-05
-1.10514e-05
-1.10515e-05
-1.10516e-05
-1.10517e-05
-1.10518e-05
-1.10519e-05
-1.1052e-05
-1.10521e-05
-1.10522e-05
-1.10522e-05
-1.10523e-05
-1.10523e-05
-1.10524e-05
-1.10525e-05
-1.10525e-05
-1.10525e-05
-1.10526e-05
-1.10526e-05
-1.10527e-05
-1.10527e-05
-1.10527e-05
-1.10528e-05
-1.10528e-05
-1.10528e-05
-1.10528e-05
-1.10529e-05
-1.10529e-05
-1.10529e-05
-1.10529e-05
-1.10529e-05
-1.10529e-05
-1.1053e-05
-1.1053e-05
-1.1053e-05
-1.1053e-05
-1.1053e-05
-1.1053e-05
-1.1053e-05
-1.10531e-05