# vtk DataFile Version 2.0
FlowField
ASCII
DATASET STRUCTURED_GRID
DIMENSIONS 800 1 200
POINTS 160000 float
0 0 0
0.04 0 0
0.08 0 0
0.12 0 0
0.16 0 0
0.2 0 0
0.24 0 0
0.28 0 0
0.32 0 0
0.36 0 0
0.4 0 0
0.44 0 0
0.48 0 0
0.52 0 0
0.56 0 0
0.6 0 0
0.64 0 0
0.68 0 0
0.72 0 0
0.76 0 0
0.8 0 0
0.84 0 0
0.88 0 0
0.92 0 0
0.96 0 0
1 0 0
1.04 0 0
1.08 0 0
1.12 0 0
1.16 0 0
1.2 0 0
1.24 0 0
1.28 0 0
1.32 0 0
1.36 0 0
1.4 0 0
1.44 0 0
1.48 0 0
1.52 0 0
1.56 0 0
1.6 0 0
1.64 0 0
1.68 0 0
1.72 0 0
1.76 0 0
1.8 0 0
1.84 0 0
1.88 0 0
1.92 0 0
1.96 0 0
2 0 0
2.04 0 0
2.08 0 0
2.12 0 0
2.16 0 0
2.2 0 0
2.24 0 0
2.28 0 0
2.32 0 0
2.36 0 0
2.4 0 0
2.44 0 0
2.48 0 0
2.52 0 0
2.56 0 0
2.6 0 0
2.64 0 0
2.68 0 0
2.72 0 0
2.76 0 0
2.8 0 0
2.84 0 0
2.88 0 0
2.92 0 0
2.96 0 0
3 0 0
3.04 0 0
3.08 0 0
3.12 0 0
3.16 0 0
3.2 0 0
3.24 0 0
3.28 0 0
3.32 0 0
3.36 0 0
3.4 0 0
3.44 0 0
3.48 0 0
3.52 0 0
3.56 0 0
3.6 0 0
3.64 0 0
3.68 0 0
3.72 0 0
3.76 0 0
3.8 0 0
3.84 0 0
3.88 0 0
3.92 0 0
3.96 0 0
4 0 0
4.04 0 0
4.08 0 0
4.12 0 0
4.16 0 0
4.2 0 0
4.24 0 0
4.28 0 0
4.32 0 0
4.36 0 0
4.4 0 0
4.44 0 0
4.48 0 0
4.52 0 0
4.56 0 0
4.6 0 0
4.64 0 0
4.68 0 0
4.72 0 0
4.76 0 0
4.8 0 0
4.84 0 0
4.88 0 0
4.92 0 0
4.96 0 0
5 0 0
5.04 0 0
5.08 0 0
5.12 0 0
5.16 0 0
5.2 0 0
5.24 0 0
5.28 0 0
5.32 0 0
5.36 0 0
5.4 0 0
5.44 0 0
5.48 0 0
5.52 0 0
5.56 0 0
5.6 0 0
5.64 0 0
5.68 0 0
5.72 0 0
5.76 0 0
5.8 0 0
5.84 0 0
5.88 0 0
5.92 0 0
5.96 0 0
6 0 0
6.04 0 0
6.08 0 0
6.12 0 0
6.16 0 0
6.2 0 0
6.24 0 0
6.28 0 0
6.32 0 0
6.36 0 0
6.4 0 0
6.44 0 0
6.48 0 0
6.52 0 0
6.56 0 0
6.6 0 0
6.64 0 0
6.68 0 0
6.72 0 0
6.76 0 0
6.8 0 0
6.84 0 0
6.88 0 0
6.92 0 0
6.96 0 0
7 0 0
7.04 0 0
7.08 0 0
7.12 0 0
7.16 0 0
7.2 0 0
7.24 0 0
7.28 0 0
7.32 0 0
7.36 0 0
7.4 0 0
7.44 0 0
7.48 0 0
7.52 0 0
7.56 0 0
7.6 0 0
7.64 0 0
7.68 0 0
7.72 0 0
7.76 0 0
7.8 0 0
7.84 0 0
7.88 0 0
7.92 0 0
7.96 0 0
8 0 0
8.04 0 0
8.08 0 0
8.12 0 0
8.16 0 0
8.2 0 0
8.24 0 0
8.28 0 0
8.32 0 0
8.36 0 0
8.4 0 0
8.44 0 0
8.48 0 0
8.52 0 0
8.56 0 0
8.6 0 0
8.64 0 0
8.68 0 0
8.72 0 0
8.76 0 0
8.8 0 0
8.84 0 0
8.88 0 0
8.92 0 0
8.96 0 0
9 0 0
9.04 0 0
9.08 0 0
9.12 0 0
9.16 0 0
9.2 0 0
9.24 0 0
9.28 0 0
9.32 0 0
9.36 0 0
9.4 0 0
9.44 0 0
9.48 0 0
9.52 0 0
9.56 0 0
9.6 0 0
9.64 0 0
9.68 0 0
9.72 0 0
9.76 0 0
9.8 0 0
9.84 0 0
9.88 0 0
9.92 0 0
9.96 0 0
10 0 0
10.04 0 0
10.08 0 0
10.12 0 0
10.16 0 0
10.2 0 0
10.24 0 0
10.28 0 0
10.32 0 0
10.36 0 0
10.4 0 0
10.44 0 0
10.48 0 0
10.52 0 0
10.56 0 0
10.6 0 0
10.64 0 0
10.68 0 0
10.72 0 0
10.76 0 0
10.8 0 0
10.84 0 0
10.88 0 0
10.92 0 0
10.96 0 0
11 0 0
11.04 0 0
11.08 0 0
11.12 0 0
11.16 0 0
11.2 0 0
11.24 0 0
11.28 0 0
11.32 0 0
11.36 0 0
11.4 0 0
11.44 0 0
11.48 0 0
11.52 0 0
11.56 0 0
11.6 0 0
11.64 0 0
11.68 0 0
11.72 0 0
11.76 0 0
11.8 0 0
11.84 0 0
11.88 0 0
11.92 0 0
11.96 0 0
12 0 0
12.04 0 0
12.08 0 0
12.12 0 0
12.16 0 0
12.2 0 0
12.24 0 0
12.28 0 0
12.32 0 0
12.36 0 0
12.4 0 0
12.44 0 0
12.48 0 0
12.52 0 0
12.56 0 0
12.6 0 0
12.64 0 0
12.68 0 0
12.72 0 0
12.76 0 0
12.8 0 0
12.84 0 0
12.88 0 0
12.92 0 0
12.96 0 0
13 0 0
13.04 0 0
13.08 0 0
13.12 0 0
13.16 0 0
13.2 0 0
13.24 0 0
13.28 0 0
13.32 0 0
13.36 0 0
13.4 0 0
13.44 0 0
13.48 0 0
13.52 0 0
13.56 0 0
13.6 0 0
13.64 0 0
13.68 0 0
13.72 0 0
13.76 0 0
13.8 0 0
13.84 0 0
13.88 0 0
13.92 0 0
13.96 0 0
14 0 0
14.04 0 0
14.08 0 0
14.12 0 0
14.16 0 0
14.2 0 0
14.24 0 0
14.28 0 0
14.32 0 0
14.36 0 0
14.4 0 0
14.44 0 0
14.48 0 0
14.52 0 0
14.56 0 0
14.6 0 0
14.64 0 0
14.68 0 0
14.72 0 0
14.76 0 0
14.8 0 0
14.84 0 0
14.88 0 0
14.92 0 0
14.96 0 0
15 0 0
15.04 0 0
15.08 0 0
15.12 0 0
15.16 0 0
15.2 0 0
15.24 0 0
15.28 0 0
15.32 0 0
15.36 0 0
15.4 0 0
15.44 0 0
15.48 0 0
15.52 0 0
15.56 0 0
15.6 0 0
15.64 0 0
15.68 0 0
15.72 0 0
15.76 0 0
15.8 0 0
15.84 0 0
15.88 0 0
15.92 0 0
15.96 0 0
16 0 0
16.04 0 0
16.08 0 0
16.12 0 0
16.16 0 0
16.2 0 0
16.24 0 0
16.28 0 0
16.32 0 0
16.36 0 0
16.4 0 0
16.44 0 0
16.48 0 0
16.52 0 0
16.56 0 0
16.6 0 0
16.64 0 0
16.68 0 0
16.72 0 0
16.76 0 0
16.8 0 0
16.84 0 0
16.88 0 0
16.92 0 0
16.96 0 0
17 0 0
17.04 0 0
17.08 0 0
17.12 0 0
17.16 0 0
17.2 0 0
17.24 0 0
17.28 0 0
17.32 0 0
17.36 0 0
17.4 0 0
17.44 0 0
17.48 0 0
17.52 0 0
17.56 0 0
17.6 0 0
17.64 0 0
17.68 0 0
17.72 0 0
17.76 0 0
17.8 0 0
17.84 0 0
17.88 0 0
17.92 0 0
17.96 0 0
18 0 0
18.04 0 0
18.08 0 0
18.12 0 0
18.16 0 0
18.2 0 0
18.24 0 0
18.28 0 0
18.32 0 0
18.36 0 0
18.4 0 0
18.44 0 0
18.48 0 0
18.52 0 0
18.56 0 0
18.6 0 0
18.64 0 0
18.68 0 0
18.72 0 0
18.76 0 0
18.8 0 0
18.84 0 0
18.88 0 0
18.92 0 0
18.96 0 0
19 0 0
19.04 0 0
19.08 0 0
19.12 0 0
19.16 0 0
19.2 0 0
19.24 0 0
19.28 0 0
19.32 0 0
19.36 0 0
19.4 0 0
19.44 0 0
19.48 0 0
19.52 0 0
19.56 0 0
19.6 0 0
19.64 0 0
19.68 0 0
19.72 0 0
19.76 0 0
19.8 0 0
19.84 0 0
19.88 0 0
19.92 0 0
19.96 0 0
20 0 0
20.04 0 0
20.08 0 0
20.12 0 0
20.16 0 0
20.2 0 0
20.24 0 0
20.28 0 0
20.32 0 0
20.36 0 0
20.4 0 0
20.44 0 0
20.48 0 0
20.52 0 0
20.56 0 0
20.6 0 0
20.64 0 0
20.68 0 0
20.72 0 0
20.76 0 0
20.8 0 0
20.84 0 0
20.88 0 0
20.92 0 0
20.96 0 0
21 0 0
21.04 0 0
21.08 0 0
21.12 0 0
21.16 0 0
21.2 0 0
21.24 0 0
21.28 0 0
21.32 0 0
21.36 0 0
21.4 0 0
21.44 0 0
21.48 0 0
21.52 0 0
21.56 0 0
21.6 0 0
21.64 0 0
21.68 0 0
21.72 0 0
21.76 0 0
21.8 0 0
21.84 0 0
21.88 0 0
21.92 0 0
21.96 0 0
22 0 0
22.04 0 0
22.08 0 0
22.12 0 0
22.16 0 0
22.2 0 0
22.24 0 0
22.28 0 0
22.32 0 0
22.36 0 0
22.4 0 0
22.44 0 0
22.48 0 0
22.52 0 0
22.56 0 0
22.6 0 0
22.64 0 0
22.68 0 0
22.72 0 0
22.76 0 0
22.8 0 0
22.84 0 0
22.88 0 0
22.92 0 0
22.96 0 0
23 0 0
23.04 0 0
23.08 0 0
23.12 0 0
23.16 0 0
23.2 0 0
23.24 0 0
23.28 0 0
23.32 0 0
23.36 0 0
23.4 0 0
23.44 0 0
23.48 0 0
23.52 0 0
23.56 0 0
23.6 0 0
23.64 0 0
23.68 0 0
23.72 0 0
23.76 0 0
23.8 0 0
23.84 0 0
23.88 0 0
23.92 0 0
23.96 0 0
24 0 0
24.04 0 0
24.08 0 0
24.12 0 0
24.16 0 0
24.2 0 0
24.24 0 0
24.28 0 0
24.32 0 0
24.36 0 0
24.4 0 0
24.44 0 0
24.48 0 0
24.52 0 0
24.56 0 0
24.6 0 0
24.64 0 0
24.68 0 0
24.72 0 0
24.76 0 0
24.8 0 0
24.84 0 0
24.88 0 0
24.92 0 0
24.96 0 0
25 0 0
25.04 0 0
25.08 0 0
25.12 0 0
25.16 0 0
25.2 0 0
25.24 0 0
25.28 0 0
25.32 0 0
25.36 0 0
25.4 0 0
25.44 0 0
25.48 0 0
25.52 0 0
25.56 0 0
25.6 0 0
25.64 0 0
25.68 0 0
25.72 0 0
25.76 0 0
25.8 0 0
25.84 0 0
25.88 0 0
25.92 0 0
25.96 0 0
26 0 0
26.04 0 0
26.08 0 0
26.12 0 0
26.16 0 0
26.2 0 0
26.24 0 0
26.28 0 0
26.32 0 0
26.36 0 0
26.4 0 0
26.44 0 0
26.48 0 0
26.52 0 0
26.56 0 0
26.6 0 0
26.64 0 0
26.68 0 0
26.72 0 0
26.76 0 0
26.8 0 0
26.84 0 0
26.88 0 0
26.92 0 0
26.96 0 0
27 0 0
27.04 0 0
27.08 0 0
27.12 0 0
27.16 0 0
27.2 0 0
27.24 0 0
27.28 0 0
27.32 0 0
27.36 0 0
27.4 0 0
27.44 0 0
27.48 0 0
27.52 0 0
27.56 0 0
27.6 0 0
27.64 0 0
27.68 0 0
27.72 0 0
27.76 0 0
27.8 0 0
27.84 0 0
27.88 0 0
27.92 0 0
27.96 0 0
28 0 0
28.04 0 0
28.08 0 0
28.12 0 0
28.16 0 0
28.2 0 0
28.24 0 0
28.28 0 0
28.32 0 0
28.36 0 0
28.4 0 0
28.44 0 0
28.48 0 0
28.52 0 0
28.56 0 0
28.6 0 0
28.64 0 0
28.68 0 0
28.72 0 0
28.76 0 0
28.8 0 0
28.84 0 0
28.88 0 0
28.92 0 0
28.96 0 0
29 0 0
29.04 0 0
29.08 0 0
29.12 0 0
29.16 0 0
29.2 0 0
29.24 0 0
29.28 0 0
29.32 0 0
29.36 0 0
29.4 0 0
29.44 0 0
29.48 0 0
29.52 0 0
29.56 0 0
29.6 0 0
29.64 0 0
29.68 0 0
29.72 0 0
29.76 0 0
29.8 0 0
29.84 0 0
29.88 0 0
29.92 0 0
29.96 0 0
30 0 0
30.04 0 0
30.08 0 0
30.12 0 0
30.16 0 0
30.2 0 0
30.24 0 0
30.28 0 0
30.32 0 0
30.36 0 0
30.4 0 0
30.44 0 0
30.48 0 0
30.52 0 0
30.56 0 0
30.6 0 0
30.64 0 0
30.68 0 0
30.72 0 0
30.76 0 0
30.8 0 0
30.84 0 0
30.88 0 0
30.92 0 0
30.96 0 0
31 0 0
31.04 0 0
31.08 0 0
31.12 0 0
31.16 0 0
31.2 0 0
31.24 0 0
31.28 0 0
31.32 0 0
31.36 0 0
31.4 0 0
31.44 0 0
31.48 0 0
31.52 0 0
31.56 0 0
31.6 0 0
31.64 0 0
31.68 0 0
31.72 0 0
31.76 0 0
31.8 0 0
31.84 0 0
31.88 0 0
31.92 0 0
31.96 0 0
0 0.005 0
0.04 0.005 0
0.08 0.005 0
0.12 0.005 0
0.16 0.005 0
0.2 0.005 0
0.24 0.005 0
0.28 0.005 0
0.32 0.005 0
0.36 0.005 0
0.4 0.005 0
0.44 0.005 0
0.48 0.005 0
0.52 0.005 0
0.56 0.005 0
0.6 0.005 0
0.64 0.005 0
0.68 0.005 0
0.72 0.005 0
0.76 0.005 0
0.8 0.005 0
0.84 0.005 0
0.88 0.005 0
0.92 0.005 0
0.96 0.005 0
1 0.005 0
1.04 0.005 0
1.08 0.005 0
1.12 0.005 0
1.16 0.005 0
1.2 0.005 0
1.24 0.005 0
1.28 0.005 0
1.32 0.005 0
1.36 0.005 0
1.4 0.005 0
1.44 0.005 0
1.48 0.005 0
1.52 0.005 0
1.56 0.005 0
1.6 0.005 0
1.64 0.005 0
1.68 0.005 0
1.72 0.005 0
1.76 0.005 0
1.8 0.005 0
1.84 0.005 0
1.88 0.005 0
1.92 0.005 0
1.96 0.005 0
2 0.005 0
2.04 0.005 0
2.08 0.005 0
2.12 0.005 0
2.16 0.005 0
2.2 0.005 0
2.24 0.005 0
2.28 0.005 0
2.32 0.005 0
2.36 0.005 0
2.4 0.005 0
2.44 0.005 0
2.48 0.005 0
2.52 0.005 0
2.56 0.005 0
2.6 0.005 0
2.64 0.005 0
2.68 0.005 0
2.72 0.005 0
2.76 0.005 0
2.8 0.005 0
2.84 0.005 0
2.88 0.005 0
2.92 0.005 0
2.96 0.005 0
3 0.005 0
3.04 0.005 0
3.08 0.005 0
3.12 0.005 0
3.16 0.005 0
3.2 0.005 0
3.24 0.005 0
3.28 0.005 0
3.32 0.005 0
3.36 0.005 0
3.4 0.005 0
3.44 0.005 0
3.48 0.005 0
3.52 0.005 0
3.56 0.005 0
3.6 0.005 0
3.64 0.005 0
3.68 0.005 0
3.72 0.005 0
3.76 0.005 0
3.8 0.005 0
3.84 0.005 0
3.88 0.005 0
3.92 0.005 0
3.96 0.005 0
4 0.005 0
4.04 0.005 0
4.08 0.005 0
4.12 0.005 0
4.16 0.005 0
4.2 0.005 0
4.24 0.005 0
4.28 0.005 0
4.32 0.005 0
4.36 0.005 0
4.4 0.005 0
4.44 0.005 0
4.48 0.005 0
4.52 0.005 0
4.56 0.005 0
4.6 0.005 0
4.64 0.005 0
4.68 0.005 0
4.72 0.005 0
4.76 0.005 0
4.8 0.005 0
4.84 0.005 0
4.88 0.005 0
4.92 0.005 0
4.96 0.005 0
5 0.005 0
5.04 0.005 0
5.08 0.005 0
5.12 0.005 0
5.16 0.005 0
5.2 0.005 0
5.24 0.005 0
5.28 0.005 0
5.32 0.005 0
5.36 0.005 0
5.4 0.005 0
5.44 0.005 0
5.48 0.005 0
5.52 0.005 0
5.56 0.005 0
5.6 0.005 0
5.64 0.005 0
5.68 0.005 0
5.72 0.005 0
5.76 0.005 0
5.8 0.005 0
5.84 0.005 0
5.88 0.005 0
5.92 0.005 0
5.96 0.005 0
6 0.005 0
6.04 0.005 0
6.08 0.005 0
6.12 0.005 0
6.16 0.005 0
6.2 0.005 0
6.24 0.005 0
6.28 0.005 0
6.32 0.005 0
6.36 0.005 0
6.4 0.005 0
6.44 0.005 0
6.48 0.005 0
6.52 0.005 0
6.56 0.005 0
6.6 0.005 0
6.64 0.005 0
6.68 0.005 0
6.72 0.005 0
6.76 0.005 0
6.8 0.005 0
6.84 0.005 0
6.88 0.005 0
6.92 0.005 0
6.96 0.005 0
7 0.005 0
7.04 0.005 0
7.08 0.005 0
7.12 0.005 0
7.16 0.005 0
7.2 0.005 0
7.24 0.005 0
7.28 0.005 0
7.32 0.005 0
7.36 0.005 0
7.4 0.005 0
[...]
POINT_DATA 160000

SCALARS u float 1
LOOKUP_TABLE default
-1
-0.483357
-0.183963
-0.108845
-0.0810328
-0.0668334
-0.0581179
-0.0521524
-0.0477771
-0.0444142
-0.0417409
-0.0395611
-0.0377479
-0.0362149
-0.0349011
-0.033762
-0.0327643
-0.0318826
-0.0310969
-0.0303919
-0.0297549
-0.0291759
-0.0286467
-0.0281606
-0.027712
-0.0272963
-0.0269094
-0.0265482
-0.0262098
-0.0258919
-0.0255924
-0.0253094
-0.0250416
-0.0247874
-0.0245459
-0.0243159
-0.0240964
-0.0238868
-0.0236863
-0.0234942
-0.02331
-0.0231331
-0.022963
-0.0227994
-0.0226419
-0.02249
-0.0223434
-0.022202
-0.0220652
-0.021933
-0.0218051
-0.0216813
-0.0215613
-0.0214449
-0.0213321
-0.0212226
-0.0211162
-0.0210129
-0.0209125
-0.0208148
-0.0207198
-0.0206273
-0.0205373
-0.0204496
-0.0203641
-0.0202807
-0.0201995
-0.0201202
-0.0200428
-0.0199672
-0.0198934
-0.0198213
-0.0197508
-0.019682
-0.0196146
-0.0195488
-0.0194843
-0.0194213
-0.0193595
-0.0192991
-0.0192399
-0.0191819
-0.019125
-0.0190693
-0.0190147
-0.0189612
-0.0189087
-0.0188572
-0.0188066
-0.018757
-0.0187084
-0.0186606
-0.0186136
-0.0185676
-0.0185223
-0.0184778
-0.0184341
-0.0183912
-0.018349
-0.0183075
-0.0182667
-0.0182265
-0.0181871
-0.0181483
-0.0181101
-0.0180725
-0.0180355
-0.0179991
-0.0179633
-0.017928
-0.0178933
-0.0178591
-0.0178254
-0.0177923
-0.0177596
-0.0177274
-0.0176957
-0.0176644
-0.0176337
-0.0176033
-0.0175734
-0.0175439
-0.0175148
-0.0174861
-0.0174579
-0.01743
-0.0174025
-0.0173754
-0.0173486
-0.0173222
-0.0172962
-0.0172705
-0.0172451
-0.0172201
-0.0171954
-0.0171711
-0.017147
-0.0171233
-0.0170998
-0.0170767
-0.0170539
-0.0170313
-0.017009
-0.016987
-0.0169653
-0.0169439
-0.0169227
-0.0169017
-0.0168811
-0.0168606
-0.0168405
-0.0168205
-0.0168008
-0.0167814
-0.0167621
-0.0167431
-0.0167244
-0.0167058
-0.0166875
-0.0166693
-0.0166514
-0.0166337
-0.0166162
-0.0165989
-0.0165818
-0.0165649
-0.0165481
-0.0165316
-0.0165153
-0.0164991
-0.0164831
-0.0164673
-0.0164517
-0.0164362
-0.0164209
-0.0164058
-0.0163909
-0.0163761
-0.0163615
-0.016347
-0.0163327
-0.0163186
-0.0163046
-0.0162907
-0.016277
-0.0162635
-0.0162501
-0.0162368
-0.0162237
-0.0162107
-0.0161978
-0.0161851
-0.0161726
-0.0161601
-0.0161478
-0.0161356
-0.0161236
-0.0161117
-0.0160999
-0.0160882
-0.0160766
-0.0160652
-0.0160539
-0.0160427
-0.0160316
-0.0160206
-0.0160097
-0.015999
-0.0159884
-0.0159778
-0.0159674
-0.0159571
-0.0159469
-0.0159368
-0.0159268
-0.0159169
-0.0159071
-0.0158974
-0.0158878
-0.0158783
-0.0158689
-0.0158595
-0.0158503
-0.0158412
-0.0158322
-0.0158232
-0.0158143
-0.0158056
-0.0157969
-0.0157883
-0.0157798
-0.0157714
-0.015763
-0.0157548
-0.0157466
-0.0157385
-0.0157305
-0.0157225
-0.0157147
-0.0157069
-0.0156992
-0.0156916
-0.015684
-0.0156765
-0.0156691
-0.0156618
-0.0156545
-0.0156473
-0.0156402
-0.0156332
-0.0156262
-0.0156193
-0.0156124
-0.0156057
-0.0155989
-0.0155923
-0.0155857
-0.0155792
-0.0155728
-0.0155664
-0.01556
-0.0155538
-0.0155476
-0.0155414
-0.0155354
-0.0155294
-0.0155234
-0.0155175
-0.0155117
-0.0155059
-0.0155002
-0.0154945
-0.015489
-0.0154834
-0.0154779
-0.0154725
-0.0154672
-0.0154619
-0.0154566
-0.0154515
-0.0154463
-0.0154413
-0.0154363
-0.0154313
-0.0154264
-0.0154216
-0.0154168
-0.0154121
-0.0154074
-0.0154028
-0.0153983
-0.0153938
-0.0153894
-0.015385
-0.0153807
-0.0153765
-0.0153723
-0.0153681
-0.0153641
-0.01536
-0.0153561
-0.0153522
-0.0153483
-0.0153445
-0.0153408
-0.0153371
-0.0153335
-0.0153299
-0.0153264
-0.015323
-0.0153196
-0.0153162
-0.0153129
-0.0153097
-0.0153065
-0.0153034
-0.0153003
-0.0152973
-0.0152944
-0.0152915
-0.0152886
-0.0152858
-0.015283
-0.0152804
-0.0152777
-0.0152751
-0.0152726
-0.0152701
-0.0152676
-0.0152652
-0.0152629
-0.0152606
-0.0152583
-0.0152561
-0.015254
-0.0152519
-0.0152498
-0.0152478
-0.0152458
-0.0152439
-0.015242
-0.0152402
-0.0152384
-0.0152366
-0.0152349
-0.0152332
-0.0152316
-0.01523
-0.0152284
-0.0152269
-0.0152254
-0.015224
-0.0152225
-0.0152212
-0.0152198
-0.0152185
-0.0152172
-0.015216
-0.0152148
-0.0152136
-0.0152125
-0.0152113
-0.0152103
-0.0152092
-0.0152082
-0.0152072
-0.0152062
-0.0152052
-0.0152043
-0.0152034
-0.0152025
-0.0152017
-0.0152009
-0.0152
-0.0151993
-0.0151985
-0.0151977
-0.015197
-0.0151963
-0.0151956
-0.015195
-0.0151943
-0.0151937
-0.0151931
-0.0151925
-0.0151919
-0.0151913
-0.0151908
-0.0151902
-0.0151897
-0.0151892
-0.0151887
-0.0151882
-0.0151877
-0.0151872
-0.0151868
-0.0151863
-0.0151859
-0.0151854
-0.015185
-0.0151846
-0.0151842
-0.0151838
-0.0151834
-0.015183
-0.0151826
-0.0151823
-0.0151819
-0.0151815
-0.0151812
-0.0151808
-0.0151805
-0.0151801
-0.0151798
-0.0151794
-0.0151791
-0.0151788
-0.0151784
-0.0151781
-0.0151778
-0.0151775
-0.0151772
-0.0151768
-0.0151765
-0.0151762
-0.0151759
-0.0151756
-0.0151753
-0.015175
-0.0151747
-0.0151744
-0.015174
-0.0151737
-0.0151734
-0.0151731
-0.0151728
-0.0151725
-0.0151722
-0.0151719
-0.0151716
-0.0151713
-0.015171
-0.0151707
-0.0151704
-0.0151701
-0.0151698
-0.0151695
-0.0151692
-0.0151689
-0.0151686
-0.0151683
-0.0151679
-0.0151676
-0.0151673
-0.015167
-0.0151667
-0.0151664
-0.0151661
-0.0151658
-0.0151655
-0.0151652
-0.0151649
-0.0151646
-0.0151643
-0.015164
-0.0151637
-0.0151634
-0.0151631
-0.0151628
-0.0151625
-0.0151622
-0.0151619
-0.0151615
-0.0151612
-0.0151609
-0.0151606
-0.0151603
-0.01516
-0.0151597
-0.0151594
-0.0151591
-0.0151588
-0.0151585
-0.0151582
-0.0151579
-0.0151576
-0.0151573
-0.015157
-0.0151567
-0.0151564
-0.0151561
-0.0151558
-0.0151555
-0.0151552
-0.0151548
-0.0151545
-0.0151542
-0.0151539
-0.0151536
-0.0151533
-0.015153
-0.0151527
-0.0151524
-0.0151521
-0.0151518
-0.0151515
-0.0151512
-0.0151509
-0.0151506
-0.0151503
-0.01515
-0.0151497
-0.0151494
-0.0151491
-0.0151488
-0.0151485
-0.0151481
-0.0151478
-0.0151475
-0.0151472
-0.0151469
-0.0151466
-0.0151463
-0.015146
-0.0151457
-0.0151454
-0.0151451
-0.0151448
-0.0151445
-0.0151442
-0.0151439
-0.0151436
-0.0151433
-0.015143
-0.0151427
-0.0151424
-0.0151421
-0.0151418
-0.0151414
-0.0151411
-0.0151408
-0.0151405
-0.0151402
-0.0151399
-0.0151396
-0.0151393
-0.015139
-0.0151387
-0.0151384
-0.0151381
-0.0151378
-0.0151375
-0.0151372
-0.0151369
-0.0151366
-0.0151363
-0.015136
-0.0151357
-0.0151354
-0.0151351
-0.0151348
-0.0151344
-0.0151341
-0.0151338
-0.0151335
-0.0151332
-0.0151329
-0.0151326
-0.0151323
-0.015132
-0.0151317
-0.0151314
-0.0151311
-0.0151308
-0.0151305
-0.0151302
-0.0151299
-0.0151296
-0.0151293
-0.015129
-0.0151287
-0.0151284
-0.0151281
-0.0151277
-0.0151274
-0.0151271
-0.0151268
-0.0151265
-0.0151262
-0.0151259
-0.0151256
-0.0151253
-0.015125
-0.0151247
-0.0151244
-0.0151241
-0.0151238
-0.0151235
-0.0151232
-0.0151229
-0.0151226
-0.0151223
-0.015122
-0.0151217
-0.0151214
-0.0151211
-0.0151207
-0.0151204
-0.0151201
-0.0151198
-0.0151195
-0.0151192
-0.0151189
-0.0151186
-0.0151183
-0.015118
-0.0151177
-0.0151174
-0.0151171
-0.0151168
-0.0151165
-0.0151162
-0.0151159
-0.0151156
-0.0151153
-0.015115
-0.0151147
-0.0151144
-0.015114
-0.0151137
-0.0151134
-0.0151131
-0.0151128
-0.0151125
-0.0151122
-0.0151119
-0.0151116
-0.0151113
-0.015111
-0.0151107
-0.0151104
-0.0151101
-0.0151098
-0.0151095
-0.0151092
-0.0151089
-0.0151086
-0.0151083
-0.015108
-0.0151077
-0.0151074
-0.015107
-0.0151067
-0.0151064
-0.0151061
-0.0151058
-0.0151055
-0.0151052
-0.0151049
-0.0151046
-0.0151043
-0.015104
-0.0151037
-0.0151034
-0.0151031
-0.0151028
-0.0151025
-0.0151022
-0.0151019
-0.0151016
-0.0151013
-0.015101
-0.0151007
-0.0151004
-0.0151
-0.0150997
-0.0150994
-0.0150991
-0.0150988
-0.0150985
-0.0150982
-0.0150979
-0.0150976
-0.0150973
-0.015097
-0.0150967
-0.0150964
-0.0150961
-0.0150958
-0.0150955
-0.0150952
-0.0150949
-0.0150946
-0.0150943
-0.015094
-0.0150937
-0.0150934
-0.015093
-0.0150927
-0.0150924
-0.0150921
-0.0150918
-0.0150915
-0.0150912
-0.0150909
-0.0150906
-0.0150903
-0.01509
-0.0150897
-0.0150894
-0.0150891
-0.0150888
-0.0150885
-0.0150882
-0.0150879
-0.0150876
-0.0150873
-0.015087
-0.0150867
-0.0150864
-0.015086
-0.0150857
-0.0150854
-0.0150851
-0.0150848
-0.0150845
-0.0150842
-0.0150839
-0.0150836
-0.0150833
-0.015083
-0.0150827
-0.0150824
-0.0150821
-0.0150818
-0.0150815
-0.0150812
-0.0150809
-0.0150806
-0.0150803
-0.01508
-0.0150797
-0.0150794
-0.015079
-0.0150787
-0.0150784
-0.0150781
-0.0150778
-0.0150775
-0.0150772
-0.0150769
-0.0150766
-0.0150763
-0.015076
-0.0150757
-0.0150754
-0.0150751
-0.0150748
-0.0150745
-0.0150742
-0.0150739
-0.0150736
-0.0150733
-0.015073
-0.0150727
-0.0150724
-0.015072
-0.0150717
-0.0150714
-0.0150711
-0.0150708
-0.0150705
-0.0150702
-0.0150699
-0.0150696
-0.0150693
-0.015069
-0.0150687
-0.0150684
-0.0150681
-0.0150677
-0.0150674
-0.0150671
-0.0150668
-0.0150664
-0.0150661
-0.0150658
-0.0150654
-0.015065
-0.0150646
-0.0150642
-0.0150638
-0.0150633
-0.0150627
-0.0150621
-0.0150614
-0.0150604
-0.01506
-0.01506
-0.01506
1
0.483357
0.183963
0.108845
0.0810328
0.0668334
0.0581179
0.0521524
0.0477771
0.0444142
0.0417409
0.0395611
0.0377479
0.0362149
0.0349011
0.033762
0.0327643
0.0318826
0.0310969
0.0303919
0.0297549
0.0291759
0.0286467
0.0281606
0.027712
0.0272963
0.0269094
0.0265482
0.0262098
0.0258919
0.0255924
0.0253094
0.0250416
0.0247874
0.0245459
0.0243159
0.0240964
0.0238868
0.0236863
0.0234942
0.02331
0.0231331
0.022963
0.0227994
0.0226419
0.02249
0.0223434
0.022202
0.0220652
0.021933
0.0218051
0.0216813
0.0215613
0.0214449
0.0213321
0.0212226
0.0211162
0.0210129
0.0209125
0.0208148
0.0207198
0.0206273
0.0205373
0.0204496
0.0203641
0.0202807
0.0201995
0.0201202
0.0200428
0.0199672
0.0198934
0.0198213
0.0197508
0.019682
0.0196146
0.0195488
0.0194843
0.0194213
0.0193595
0.0192991
0.0192399
0.0191819
0.019125
0.0190693
0.0190147
0.0189612
0.0189087
0.0188572
0.0188066
0.018757
0.0187084
0.0186606
0.0186136
0.0185676
0.0185223
0.0184778
0.0184341
0.0183912
0.018349
0.0183075
0.0182667
0.0182265
0.0181871
0.0181483
0.0181101
0.0180725
0.0180355
0.0179991
0.0179633
0.017928
0.0178933
0.0178591
0.0178254
0.0177923
0.0177596
0.0177274
0.0176957
0.0176644
0.0176337
0.0176033
0.0175734
0.0175439
0.0175148
0.0174861
0.0174579
0.01743
0.0174025
0.0173754
0.0173486
0.0173222
0.0172962
0.0172705
0.0172451
0.0172201
0.0171954
0.0171711
0.017147
0.0171233
0.0170998
0.0170767
0.0170539
0.0170313
0.017009
0.016987
0.0169653
0.0169439
0.0169227
0.0169017
0.0168811
0.0168606
0.0168405
0.0168205
0.0168008
0.0167814
0.0167621
0.0167431
0.0167244
0.0167058
0.0166875
0.0166693
0.0166514
0.0166337
0.0166162
0.0165989
0.0165818
0.0165649
0.0165481
0.0165316
0.0165153
0.0164991
0.0164831
0.0164673
0.0164517
0.0164362
0.0164209
0.0164058
0.0163909
0.0163761
0.0163615
0.016347
0.0163327
0.0163186
0.0163046
0.0162907
0.016277
0.0162635
0.0162501
0.0162368
0.0162237
0.0162107
0.0161978
0.0161851
0.0161726
0.0161601
0.0161478
0.0161356
0.0161236
0.0161117
0.0160999
0.0160882
0.0160766
0.0160652
0.0160539
0.0160427
0.0160316
0.0160206
0.0160097
0.015999
0.0159884
0.0159778
0.0159674
0.0159571
0.0159469
0.0159368
0.0159268
0.0159169
0.0159071
0.0158974
0.0158878
0.0158783
0.0158689
0.0158595
0.0158503
0.0158412
0.0158322
0.0158232
0.0158143
0.0158056
0.0157969
0.0157883
0.0157798
0.0157714
0.015763
0.0157548
0.0157466
0.0157385
0.0157305
0.0157225
0.0157147
0.0157069
0.0156992
0.0156916
0.015684
0.0156765
0.0156691
0.0156618
0.0156545
0.0156473
0.0156402
0.0156332
0.0156262
0.0156193
0.0156124
0.0156057
0.0155989
0.0155923
0.0155857
0.0155792
0.0155728
0.0155664
0.01556
0.0155538
0.0155476
0.0155414
0.0155354
0.0155294
0.0155234
0.0155175
0.0155117
0.0155059
0.0155002
0.0154945
0.015489
0.0154834
0.0154779
0.0154725
0.0154672
0.0154619
0.0154566
0.0154515
0.0154463
0.0154413
0.0154363
0.0154313
0.0154264
0.0154216
0.0154168
0.0154121
0.0154074
0.0154028
0.0153983
0.0153938
0.0153894
0.015385
0.0153807
0.0153765
0.0153723
0.0153681
0.0153641
0.01536
0.0153561
0.0153522
0.0153483
0.0153445
0.0153408
0.0153371
0.0153335
0.0153299
0.0153264
0.015323
0.0153196
0.0153162
0.0153129
0.0153097
0.0153065
0.0153034
0.0153003
0.0152973
0.0152944
0.0152915
0.0152886
0.0152858
0.015283
0.0152804
0.0152777
0.0152751
0.0152726
0.0152701
0.0152676
0.0152652
0.0152629
0.0152606
0.0152583
0.0152561
0.015254
0.0152519
0.0152498
0.0152478
0.0152458
0.0152439
0.015242
0.0152402
0.0152384
0.0152366
0.0152349
0.0152332
0.0152316
0.01523
0.0152284
0.0152269
0.0152254
0.015224
0.0152225
0.0152212
0.0152198
0.0152185
0.0152172
0.015216
0.0152148
0.0152136
0.0152125
0.0152113
0.0152103
0.0152092
0.0152082
0.0152072
0.0152062
0.0152052
0.0152043
0.0152034
0.0152025
0.0152017
0.0152009
0.0152
0.0151993
0.0151985
0.0151977
0.015197
0.0151963
0.0151956
0.015195
0.0151943
0.0151937
0.0151931
0.0151925
0.0151919
0.0151913
0.0151908
0.0151902
0.0151897
0.0151892
0.0151887
0.0151882
0.0151877
0.0151872
0.0151868
0.0151863
0.0151859
0.0151854
0.015185
0.0151846
0.0151842
0.0151838
0.0151834
0.015183
0.0151826
0.0151823
0.0151819
0.0151815
0.0151812
0.0151808
0.0151805
0.0151801
0.0151798
0.0151794
0.0151791
0.0151788
0.0151784
0.0151781
0.0151778
0.0151775
0.0151772
0.0151768
0.0151765
0.0151762
0.0151759
0.0151756
0.0151753
0.015175
0.0151747
0.0151744
0.015174
0.0151737
0.0151734
0.0151731
0.0151728
0.0151725
0.0151722
0.0151719
0.0151716
0.0151713
0.015171
0.0151707
0.0151704
0.0151701
0.0151698
0.0151695
0.0151692
0.0151689
0.0151686
0.0151683
0.0151679
0.0151676
0.0151673
0.015167
0.0151667
0.0151664
0.0151661
0.0151658
0.0151655
0.0151652
0.0151649
0.0151646
0.0151643
0.015164
0.0151637
0.0151634
0.0151631
0.0151628
0.0151625
0.0151622
0.0151619
0.0151615
0.0151612
0.0151609
0.0151606
0.0151603
0.01516
0.0151597
0.0151594
0.0151591
0.0151588
0.0151585
0.0151582
0.0151579
0.0151576
0.0151573
0.015157
0.0151567
0.0151564
0.0151561
0.0151558
0.0151555
0.0151552
0.0151548
0.0151545
0.0151542
0.0151539
0.0151536
0.0151533
0.015153
0.0151527
0.0151524
0.0151521
0.0151518
0.0151515
0.0151512
0.0151509
0.0151506
0.0151503
0.01515
0.0151497
0.0151494
0.0151491
0.0151488
0.0151485
0.0151481
0.0151478
0.0151475
0.0151472
0.0151469
0.0151466
0.0151463
0.015146
0.0151457
0.0151454
0.0151451
0.0151448
0.0151445
0.0151442
0.0151439
0.0151436
0.0151433
0.015143
0.0151427
0.0151424
0.0151421
0.0151418
0.0151414
0.0151411
0.0151408
0.0151405
0.0151402
0.0151399
0.0151396
0.0151393
0.015139
0.0151387
0.0151384
0.0151381
0.0151378
0.0151375
0.0151372
0.0151369
0.0151366
0.0151363
0.015136
0.0151357
0.0151354
0.0151351
0.0151348
0.0151344
0.0151341
0.0151338
0.0151335
0.0151332
0.0151329
0.0151326
0.0151323
0.015132
0.0151317
0.0151314
0.0151311
0.0151308
0.0151305
0.0151302
0.0151299
0.0151296
0.0151293
0.015129
0.0151287
0.0151284
0.0151281
0.0151277
0.0151274
0.0151271
0.0151268
0.0151265
0.0151262
0.0151259
0.0151256
0.0151253
0.015125
0.0151247
0.0151244
0.0151241
0.0151238
0.0151235
0.0151232
0.0151229
0.0151226
0.0151223
0.015122
0.0151217
0.0151214
0.0151211
0.0151207
0.0151204
0.0151201
0.0151198
0.0151195
0.0151192
0.0151189
0.0151186
0.0151183
0.015118
0.0151177
0.0151174
0.0151171
0.0151168
0.0151165
0.0151162
0.0151159
0.0151156
0.0151153
0.015115
0.0151147
0.0151144
0.015114
0.0151137
0.0151134
0.0151131
0.0151128
0.0151125
0.0151122
0.0151119
0.0151116
0.0151113
0.015111
0.0151107
0.0151104
0.0151101
0.0151098
0.0151095
0.0151092
0.0151089
0.0151086
0.0151083
0.015108
0.0151077
0.0151074
0.015107
0.0151067
0.0151064
0.0151061
0.0151058
0.0151055
0.0151052
0.0151049
0.0151046
0.0151043
0.015104
0.0151037
0.0151034
0.0151031
0.0151028
0.0151025
0.0151022
0.0151019
0.0151016
0.0151013
0.015101
0.0151007
0.0151004
0.0151
0.0150997
0.0150994
0.0150991
0.0150988
0.0150985
0.0150982
0.0150979
0.0150976
0.0150973
0.015097
0.0150967
0.0150964
0.0150961
0.0150958
0.0150955
0.0150952
0.0150949
0.0150946
0.0150943
0.015094
0.0150937
0.0150934
0.015093
0.0150927
0.0150924
0.0150921
0.0150918
0.0150915
0.0150912
0.0150909
0.0150906
0.0150903
0.01509
0.0150897
0.0150894
0.0150891
0.0150888
0.0150885
0.0150882
0.0150879
0.0150876
0.0150873
0.015087
0.0150867
0.0150864
0.015086
0.0150857
0.0150854
0.0150851
0.0150848
0.0150845
0.0150842
0.0150839
0.0150836
0.0150833
0.015083
0.0150827
0.0150824
0.0150821
0.0150818
0.0150815
0.0150812
0.0150809
0.0150806
0.0150803
0.01508
0.0150797
0.0150794
0.015079
0.0150787
0.0150784
0.0150781
0.0150778
0.0150775
0.0150772
0.0150769
0.0150766
0.0150763
0.015076
0.0150757
0.0150754
0.0150751
0.0150748
0.0150745
0.0150742
0.0150739
0.0150736
0.0150733
0.015073
0.0150727
0.0150724
0.015072
0.0150717
0.0150714
0.0150711
0.0150708
0.0150705
0.0150702
0.0150699
0.0150696
0.0150693
0.015069
0.0150687
0.0150684
0.0150681
0.0150677
0.0150674
0.0150671
0.0150668
0.0150664
0.0150661
0.0150658
0.0150654
0.015065
0.0150646
0.0150642
0.0150638
0.0150633
0.0150627
0.0150621
0.0150614
0.0150604
0.01506
0.01506
0.01506
1
0.969191
0.495616
0.314223
0.237896
0.197395
0.172133
0.154696
0.141841
0.131927
0.124027
0.117572
0.112196
0.107645
0.103741
0.100354
0.0973853
0.0947609
0.0924221
0.0903227
0.088426
0.086702
0.0851266
0.0836796
0.0823444
0.0811073
0.0799566
0.0788824
0.0778764
0.0769314
0.0760413
0.0752008
0.0744054
0.0736509
0.0729339
0.0722512
0.0716002
0.0709785
0.0703838
0.0698143
0.0692681
0.0687438
0.0682399
0.0677551
0.0672882
0.0668383
0.0664042
0.0659852
0.0655803
0.0651889
0.0648102
0.0644435
0.0640883
0.0637439
0.0634099
0.0630858
0.0627711
0.0624654
0.0621682
0.0618792
0.0615981
0.0613245
0.0610581
0.0607986
0.0605457
0.0602992
0.0600588
0.0598242
0.0595953
0.0593718
0.0591536
0.0589404
0.058732
0.0585284
0.0583292
0.0581345
0.0579439
0.0577575
0.0575749
0.0573962
0.0572212
0.0570497
0.0568817
0.0567171
0.0565556
0.0563974
0.0562422
0.0560899
0.0559405
0.055794
0.0556501
0.0555088
0.0553702
0.055234
0.0551002
0.0549688
0.0548396
0.0547127
0.054588
0.0544654
0.0543448
0.0542263
0.0541097
0.053995
0.0538821
0.0537711
0.0536619
0.0535543
0.0534485
0.0533443
0.0532417
0.0531407
0.0530412
0.0529433
0.0528467
0.0527517
0.052658
0.0525657
0.0524747
0.0523851
0.0522967
0.0522096
0.0521237
0.052039
0.0519555
0.0518732
0.051792
0.0517119
0.0516329
0.051555
0.0514781
0.0514022
0.0513273
0.0512535
0.0511806
0.0511086
0.0510376
0.0509675
0.0508983
0.05083
0.0507625
0.0506959
0.0506302
0.0505652
0.0505011
0.0504378
0.0503752
0.0503134
0.0502524
0.0501921
0.0501325
0.0500737
0.0500155
0.0499581
0.0499013
0.0498452
0.0497898
0.049735
0.0496809
0.0496274
0.0495745
0.0495222
0.0494705
0.0494195
0.049369
0.0493191
0.0492697
0.0492209
0.0491727
0.049125
0.0490778
0.0490312
0.048985
0.0489394
0.0488943
0.0488497
0.0488056
0.048762
0.0487188
0.0486762
0.048634
0.0485922
0.0485509
0.04851
0.0484696
0.0484296
0.0483901
0.048351
0.0483122
0.048274
0.0482361
0.0481986
0.0481615
0.0481248
0.0480885
0.0480525
0.048017
0.0479818
0.047947
0.0479125
0.0478784
0.0478447
0.0478113
0.0477782
0.0477455
0.0477132
0.0476811
0.0476494
0.0476181
0.047587
0.0475563
0.0475258
0.0474957
0.0474659
0.0474364
0.0474072
0.0473783
0.0473497
0.0473214
0.0472933
0.0472656
0.0472381
0.0472109
0.047184
0.0471573
0.0471309
0.0471048
0.0470789
0.0470533
0.047028
0.0470029
0.046978
0.0469534
0.0469291
0.046905
0.0468811
0.0468575
0.046834
0.0468109
0.0467879
0.0467652
0.0467427
0.0467204
0.0466984
0.0466765
0.0466549
0.0466335
0.0466123
0.0465913
0.0465705
0.04655
0.0465296
0.0465094
0.0464894
0.0464696
0.04645
0.0464306
0.0464114
0.0463924
0.0463736
0.046355
0.0463365
0.0463183
0.0463002
0.0462823
0.0462646
0.046247
0.0462297
0.0462125
0.0461955
0.0461787
0.046162
0.0461456
0.0461293
0.0461132
0.0460972
0.0460815
0.0460659
0.0460505
0.0460352
0.0460201
0.0460053
0.0459905
0.045976
0.0459616
0.0459474
0.0459334
0.0459195
0.0459059
0.0458923
0.045879
0.0458658
0.0458529
0.04584
0.0458274
0.0458149
0.0458026
0.0457905
0.0457785
0.0457667
0.0457551
0.0457437
0.0457324
0.0457213
0.0457103
0.0456996
0.0456889
0.0456785
0.0456682
0.0456581
0.0456482
0.0456384
0.0456288
0.0456194
0.0456101
0.045601
0.045592
0.0455832
0.0455745
0.0455661
0.0455577
0.0455495
0.0455415
0.0455337
0.0455259
0.0455184
0.045511
0.0455037
0.0454966
0.0454896
0.0454828
0.0454761
0.0454695
0.0454631
0.0454568
0.0454507
0.0454447
0.0454388
0.0454331
0.0454274
0.045422
0.0454166