# vtk DataFile Version 2.0
FlowField
ASCII
DATASET STRUCTURED_GRID
DIMENSIONS 800 1 200
POINTS 160000 float
0 0 0
0.04 0 0
0.08 0 0
0.12 0 0
0.16 0 0
0.2 0 0
0.24 0 0
0.28 0 0
0.32 0 0
0.36 0 0
0.4 0 0
0.44 0 0
0.48 0 0
0.52 0 0
0.56 0 0
0.6 0 0
0.64 0 0
0.68 0 0
0.72 0 0
0.76 0 0
0.8 0 0
0.84 0 0
0.88 0 0
0.92 0 0
0.96 0 0
1 0 0
1.04 0 0
1.08 0 0
1.12 0 0
1.16 0 0
1.2 0 0
1.24 0 0
1.28 0 0
1.32 0 0
1.36 0 0
1.4 0 0
1.44 0 0
1.48 0 0
1.52 0 0
1.56 0 0
1.6 0 0
1.64 0 0
1.68 0 0
1.72 0 0
1.76 0 0
1.8 0 0
1.84 0 0
1.88 0 0
1.92 0 0
1.96 0 0
2 0 0
2.04 0 0
2.08 0 0
2.12 0 0
2.16 0 0
2.2 0 0
2.24 0 0
2.28 0 0
2.32 0 0
2.36 0 0
2.4 0 0
2.44 0 0
2.48 0 0
2.52 0 0
2.56 0 0
2.6 0 0
2.64 0 0
2.68 0 0
2.72 0 0
2.76 0 0
2.8 0 0
2.84 0 0
2.88 0 0
2.92 0 0
2.96 0 0
3 0 0
3.04 0 0
3.08 0 0
3.12 0 0
3.16 0 0
3.2 0 0
3.24 0 0
3.28 0 0
3.32 0 0
3.36 0 0
3.4 0 0
3.44 0 0
3.48 0 0
3.52 0 0
3.56 0 0
3.6 0 0
3.64 0 0
3.68 0 0
3.72 0 0
3.76 0 0
3.8 0 0
3.84 0 0
3.88 0 0
3.92 0 0
3.96 0 0
4 0 0
4.04 0 0
4.08 0 0
4.12 0 0
4.16 0 0
4.2 0 0
4.24 0 0
4.28 0 0
4.32 0 0
4.36 0 0
4.4 0 0
4.44 0 0
4.48 0 0
4.52 0 0
4.56 0 0
4.6 0 0
4.64 0 0
4.68 0 0
4.72 0 0
4.76 0 0
4.8 0 0
4.84 0 0
4.88 0 0
4.92 0 0
4.96 0 0
5 0 0
5.04 0 0
5.08 0 0
5.12 0 0
5.16 0 0
5.2 0 0
5.24 0 0
5.28 0 0
5.32 0 0
5.36 0 0
5.4 0 0
5.44 0 0
5.48 0 0
5.52 0 0
5.56 0 0
5.6 0 0
5.64 0 0
5.68 0 0
5.72 0 0
5.76 0 0
5.8 0 0
5.84 0 0
5.88 0 0
5.92 0 0
5.96 0 0
6 0 0
6.04 0 0
6.08 0 0
6.12 0 0
6.16 0 0
6.2 0 0
6.24 0 0
6.28 0 0
6.32 0 0
6.36 0 0
6.4 0 0
6.44 0 0
6.48 0 0
6.52 0 0
6.56 0 0
6.6 0 0
6.64 0 0
6.68 0 0
6.72 0 0
6.76 0 0
6.8 0 0
6.84 0 0
6.88 0 0
6.92 0 0
6.96 0 0
7 0 0
7.04 0 0
7.08 0 0
7.12 0 0
7.16 0 0
7.2 0 0
7.24 0 0
7.28 0 0
7.32 0 0
7.36 0 0
7.4 0 0
7.44 0 0
7.48 0 0
7.52 0 0
7.56 0 0
7.6 0 0
7.64 0 0
7.68 0 0
7.72 0 0
7.76 0 0
7.8 0 0
7.84 0 0
7.88 0 0
7.92 0 0
7.96 0 0
8 0 0
8.04 0 0
8.08 0 0
8.12 0 0
8.16 0 0
8.2 0 0
8.24 0 0
8.28 0 0
8.32 0 0
8.36 0 0
8.4 0 0
8.44 0 0
8.48 0 0
8.52 0 0
8.56 0 0
8.6 0 0
8.64 0 0
8.68 0 0
8.72 0 0
8.76 0 0
8.8 0 0
8.84 0 0
8.88 0 0
8.92 0 0
8.96 0 0
9 0 0
9.04 0 0
9.08 0 0
9.12 0 0
9.16 0 0
9.2 0 0
9.24 0 0
9.28 0 0
9.32 0 0
9.36 0 0
9.4 0 0
9.44 0 0
9.48 0 0
9.52 0 0
9.56 0 0
9.6 0 0
9.64 0 0
9.68 0 0
9.72 0 0
9.76 0 0
9.8 0 0
9.84 0 0
9.88 0 0
9.92 0 0
9.96 0 0
10 0 0
10.04 0 0
10.08 0 0
10.12 0 0
10.16 0 0
10.2 0 0
10.24 0 0
10.28 0 0
10.32 0 0
10.36 0 0
10.4 0 0
10.44 0 0
10.48 0 0
10.52 0 0
10.56 0 0
10.6 0 0
10.64 0 0
10.68 0 0
10.72 0 0
10.76 0 0
10.8 0 0
10.84 0 0
10.88 0 0
10.92 0 0
10.96 0 0
11 0 0
11.04 0 0
11.08 0 0
11.12 0 0
11.16 0 0
11.2 0 0
11.24 0 0
11.28 0 0
11.32 0 0
11.36 0 0
11.4 0 0
11.44 0 0
11.48 0 0
11.52 0 0
11.56 0 0
11.6 0 0
11.64 0 0
11.68 0 0
11.72 0 0
11.76 0 0
11.8 0 0
11.84 0 0
11.88 0 0
11.92 0 0
11.96 0 0
12 0 0
12.04 0 0
12.08 0 0
12.12 0 0
12.16 0 0
12.2 0 0
12.24 0 0
12.28 0 0
12.32 0 0
12.36 0 0
12.4 0 0
12.44 0 0
12.48 0 0
12.52 0 0
12.56 0 0
12.6 0 0
12.64 0 0
12.68 0 0
12.72 0 0
12.76 0 0
12.8 0 0
12.84 0 0
12.88 0 0
12.92 0 0
12.96 0 0
13 0 0
13.04 0 0
13.08 0 0
13.12 0 0
13.16 0 0
13.2 0 0
13.24 0 0
13.28 0 0
13.32 0 0
13.36 0 0
13.4 0 0
13.44 0 0
13.48 0 0
13.52 0 0
13.56 0 0
13.6 0 0
13.64 0 0
13.68 0 0
13.72 0 0
13.76 0 0
13.8 0 0
13.84 0 0
13.88 0 0
13.92 0 0
13.96 0 0
14 0 0
14.04 0 0
14.08 0 0
14.12 0 0
14.16 0 0
14.2 0 0
14.24 0 0
14.28 0 0
14.32 0 0
14.36 0 0
14.4 0 0
14.44 0 0
14.48 0 0
14.52 0 0
14.56 0 0
14.6 0 0
14.64 0 0
14.68 0 0
14.72 0 0
14.76 0 0
14.8 0 0
14.84 0 0
14.88 0 0
14.92 0 0
14.96 0 0
15 0 0
15.04 0 0
15.08 0 0
15.12 0 0
15.16 0 0
15.2 0 0
15.24 0 0
15.28 0 0
15.32 0 0
15.36 0 0
15.4 0 0
15.44 0 0
15.48 0 0
15.52 0 0
15.56 0 0
15.6 0 0
15.64 0 0
15.68 0 0
15.72 0 0
15.76 0 0
15.8 0 0
15.84 0 0
15.88 0 0
15.92 0 0
15.96 0 0
16 0 0
16.04 0 0
16.08 0 0
16.12 0 0
16.16 0 0
16.2 0 0
16.24 0 0
16.28 0 0
16.32 0 0
16.36 0 0
16.4 0 0
16.44 0 0
16.48 0 0
16.52 0 0
16.56 0 0
16.6 0 0
16.64 0 0
16.68 0 0
16.72 0 0
16.76 0 0
16.8 0 0
16.84 0 0
16.88 0 0
16.92 0 0
16.96 0 0
17 0 0
17.04 0 0
17.08 0 0
17.12 0 0
17.16 0 0
17.2 0 0
17.24 0 0
17.28 0 0
17.32 0 0
17.36 0 0
17.4 0 0
17.44 0 0
17.48 0 0
17.52 0 0
17.56 0 0
17.6 0 0
17.64 0 0
17.68 0 0
17.72 0 0
17.76 0 0
17.8 0 0
17.84 0 0
17.88 0 0
17.92 0 0
17.96 0 0
18 0 0
18.04 0 0
18.08 0 0
18.12 0 0
18.16 0 0
18.2 0 0
18.24 0 0
18.28 0 0
18.32 0 0
18.36 0 0
18.4 0 0
18.44 0 0
18.48 0 0
18.52 0 0
18.56 0 0
18.6 0 0
18.64 0 0
18.68 0 0
18.72 0 0
18.76 0 0
18.8 0 0
18.84 0 0
18.88 0 0
18.92 0 0
18.96 0 0
19 0 0
19.04 0 0
19.08 0 0
19.12 0 0
19.16 0 0
19.2 0 0
19.24 0 0
19.28 0 0
19.32 0 0
19.36 0 0
19.4 0 0
19.44 0 0
19.48 0 0
19.52 0 0
19.56 0 0
19.6 0 0
19.64 0 0
19.68 0 0
19.72 0 0
19.76 0 0
19.8 0 0
19.84 0 0
19.88 0 0
19.92 0 0
19.96 0 0
20 0 0
20.04 0 0
20.08 0 0
20.12 0 0
20.16 0 0
20.2 0 0
20.24 0 0
20.28 0 0
20.32 0 0
20.36 0 0
20.4 0 0
20.44 0 0
20.48 0 0
20.52 0 0
20.56 0 0
20.6 0 0
20.64 0 0
20.68 0 0
20.72 0 0
20.76 0 0
20.8 0 0
20.84 0 0
20.88 0 0
20.92 0 0
20.96 0 0
21 0 0
21.04 0 0
21.08 0 0
21.12 0 0
21.16 0 0
21.2 0 0
21.24 0 0
21.28 0 0
21.32 0 0
21.36 0 0
21.4 0 0
21.44 0 0
21.48 0 0
21.52 0 0
21.56 0 0
21.6 0 0
21.64 0 0
21.68 0 0
21.72 0 0
21.76 0 0
21.8 0 0
21.84 0 0
21.88 0 0
21.92 0 0
21.96 0 0
22 0 0
22.04 0 0
22.08 0 0
22.12 0 0
22.16 0 0
22.2 0 0
22.24 0 0
22.28 0 0
22.32 0 0
22.36 0 0
22.4 0 0
22.44 0 0
22.48 0 0
22.52 0 0
22.56 0 0
22.6 0 0
22.64 0 0
22.68 0 0
22.72 0 0
22.76 0 0
22.8 0 0
22.84 0 0
22.88 0 0
22.92 0 0
22.96 0 0
23 0 0
23.04 0 0
23.08 0 0
23.12 0 0
23.16 0 0
23.2 0 0
23.24 0 0
23.28 0 0
23.32 0 0
23.36 0 0
23.4 0 0
23.44 0 0
23.48 0 0
23.52 0 0
23.56 0 0
23.6 0 0
23.64 0 0
23.68 0 0
23.72 0 0
23.76 0 0
23.8 0 0
23.84 0 0
23.88 0 0
23.92 0 0
23.96 0 0
24 0 0
24.04 0 0
24.08 0 0
24.12 0 0
24.16 0 0
24.2 0 0
24.24 0 0
24.28 0 0
24.32 0 0
24.36 0 0
24.4 0 0
24.44 0 0
24.48 0 0
24.52 0 0
24.56 0 0
24.6 0 0
24.64 0 0
24.68 0 0
24.72 0 0
24.76 0 0
24.8 0 0
24.84 0 0
24.88 0 0
24.92 0 0
24.96 0 0
25 0 0
25.04 0 0
25.08 0 0
25.12 0 0
25.16 0 0
25.2 0 0
25.24 0 0
25.28 0 0
25.32 0 0
25.36 0 0
25.4 0 0
25.44 0 0
25.48 0 0
25.52 0 0
25.56 0 0
25.6 0 0
25.64 0 0
25.68 0 0
25.72 0 0
25.76 0 0
25.8 0 0
25.84 0 0
25.88 0 0
25.92 0 0
25.96 0 0
26 0 0
26.04 0 0
26.08 0 0
26.12 0 0
26.16 0 0
26.2 0 0
26.24 0 0
26.28 0 0
26.32 0 0
26.36 0 0
26.4 0 0
26.44 0 0
26.48 0 0
26.52 0 0
26.56 0 0
26.6 0 0
26.64 0 0
26.68 0 0
26.72 0 0
26.76 0 0
26.8 0 0
26.84 0 0
26.88 0 0
26.92 0 0
26.96 0 0
27 0 0
27.04 0 0
27.08 0 0
27.12 0 0
27.16 0 0
27.2 0 0
27.24 0 0
27.28 0 0
27.32 0 0
27.36 0 0
27.4 0 0
27.44 0 0
27.48 0 0
27.52 0 0
27.56 0 0
27.6 0 0
27.64 0 0
27.68 0 0
27.72 0 0
27.76 0 0
27.8 0 0
27.84 0 0
27.88 0 0
27.92 0 0
27.96 0 0
28 0 0
28.04 0 0
28.08 0 0
28.12 0 0
28.16 0 0
28.2 0 0
28.24 0 0
28.28 0 0
28.32 0 0
28.36 0 0
28.4 0 0
28.44 0 0
28.48 0 0
28.52 0 0
28.56 0 0
28.6 0 0
28.64 0 0
28.68 0 0
28.72 0 0
28.76 0 0
28.8 0 0
28.84 0 0
28.88 0 0
28.92 0 0
28.96 0 0
29 0 0
29.04 0 0
29.08 0 0
29.12 0 0
29.16 0 0
29.2 0 0
29.24 0 0
29.28 0 0
29.32 0 0
29.36 0 0
29.4 0 0
29.44 0 0
29.48 0 0
29.52 0 0
29.56 0 0
29.6 0 0
29.64 0 0
29.68 0 0
29.72 0 0
29.76 0 0
29.8 0 0
29.84 0 0
29.88 0 0
29.92 0 0
29.96 0 0
30 0 0
30.04 0 0
30.08 0 0
30.12 0 0
30.16 0 0
30.2 0 0
30.24 0 0
30.28 0 0
30.32 0 0
30.36 0 0
30.4 0 0
30.44 0 0
30.48 0 0
30.52 0 0
30.56 0 0
30.6 0 0
30.64 0 0
30.68 0 0
30.72 0 0
30.76 0 0
30.8 0 0
30.84 0 0
30.88 0 0
30.92 0 0
30.96 0 0
31 0 0
31.04 0 0
31.08 0 0
31.12 0 0
31.16 0 0
31.2 0 0
31.24 0 0
31.28 0 0
31.32 0 0
31.36 0 0
31.4 0 0
31.44 0 0
31.48 0 0
31.52 0 0
31.56 0 0
31.6 0 0
31.64 0 0
31.68 0 0
31.72 0 0
31.76 0 0
31.8 0 0
31.84 0 0
31.88 0 0
31.92 0 0
31.96 0 0
0 0.005 0
0.04 0.005 0
0.08 0.005 0
0.12 0.005 0
0.16 0.005 0
0.2 0.005 0
0.24 0.005 0
0.28 0.005 0
0.32 0.005 0
0.36 0.005 0
0.4 0.005 0
0.44 0.005 0
0.48 0.005 0
0.52 0.005 0
0.56 0.005 0
0.6 0.005 0
0.64 0.005 0
0.68 0.005 0
0.72 0.005 0
0.76 0.005 0
0.8 0.005 0
0.84 0.005 0
0.88 0.005 0
0.92 0.005 0
0.96 0.005 0
1 0.005 0
1.04 0.005 0
1.08 0.005 0
1.12 0.005 0
1.16 0.005 0
1.2 0.005 0
1.24 0.005 0
1.28 0.005 0
1.32 0.005 0
1.36 0.005 0
1.4 0.005 0
1.44 0.005 0
1.48 0.005 0
1.52 0.005 0
1.56 0.005 0
1.6 0.005 0
1.64 0.005 0
1.68 0.005 0
1.72 0.005 0
1.76 0.005 0
1.8 0.005 0
1.84 0.005 0
1.88 0.005 0
1.92 0.005 0
1.96 0.005 0
2 0.005 0
2.04 0.005 0
2.08 0.005 0
2.12 0.005 0
2.16 0.005 0
2.2 0.005 0
2.24 0.005 0
2.28 0.005 0
2.32 0.005 0
2.36 0.005 0
2.4 0.005 0
2.44 0.005 0
2.48 0.005 0
2.52 0.005 0
2.56 0.005 0
2.6 0.005 0
2.64 0.005 0
2.68 0.005 0
2.72 0.005 0
2.76 0.005 0
2.8 0.005 0
2.84 0.005 0
2.88 0.005 0
2.92 0.005 0
2.96 0.005 0
3 0.005 0
3.04 0.005 0
3.08 0.005 0
3.12 0.005 0
3.16 0.005 0
3.2 0.005 0
3.24 0.005 0
3.28 0.005 0
3.32 0.005 0
3.36 0.005 0
3.4 0.005 0
3.44 0.005 0
3.48 0.005 0
3.52 0.005 0
3.56 0.005 0
3.6 0.005 0
3.64 0.005 0
3.68 0.005 0
3.72 0.005 0
3.76 0.005 0
3.8 0.005 0
3.84 0.005 0
3.88 0.005 0
3.92 0.005 0
3.96 0.005 0
4 0.005 0
4.04 0.005 0
4.08 0.005 0
4.12 0.005 0
4.16 0.005 0
4.2 0.005 0
4.24 0.005 0
4.28 0.005 0
4.32 0.005 0
4.36 0.005 0
4.4 0.005 0
4.44 0.005 0
4.48 0.005 0
4.52 0.005 0
4.56 0.005 0
4.6 0.005 0
4.64 0.005 0
4.68 0.005 0
4.72 0.005 0
4.76 0.005 0
4.8 0.005 0
4.84 0.005 0
4.88 0.005 0
4.92 0.005 0
4.96 0.005 0
5 0.005 0
5.04 0.005 0
5.08 0.005 0
5.12 0.005 0
5.16 0.005 0
5.2 0.005 0
5.24 0.005 0
5.28 0.005 0
5.32 0.005 0
5.36 0.005 0
5.4 0.005 0
5.44 0.005 0
5.48 0.005 0
5.52 0.005 0
5.56 0.005 0
5.6 0.005 0
5.64 0.005 0
5.68 0.005 0
5.72 0.005 0
5.76 0.005 0
5.8 0.005 0
5.84 0.005 0
5.88 0.005 0
5.92 0.005 0
5.96 0.005 0
6 0.005 0
6.04 0.005 0
6.08 0.005 0
6.12 0.005 0
6.16 0.005 0
6.2 0.005 0
6.24 0.005 0
6.28 0.005 0
6.32 0.005 0
6.36 0.005 0
6.4 0.005 0
6.44 0.005 0
6.48 0.005 0
6.52 0.005 0
6.56 0.005 0
6.6 0.005 0
6.64 0.005 0
6.68 0.005 0
6.72 0.005 0
6.76 0.005 0
6.8 0.005 0
6.84 0.005 0
6.88 0.005 0
6.92 0.005 0
6.96 0.005 0
7 0.005 0
7.04 0.005 0
7.08 0.005 0
7.12 0.005 0
7.16 0.005 0
7.2 0.005 0
7.24 0.005 0
7.28 0.005 0
7.32 0.005 0
7.36 0.005 0
7.4 0.005 0
[...]
POINT_DATA 160000

SCALARS phi float 1
LOOKUP_TABLE default
1
1
1
1
1
1
1
1
1
1
1
1
1
1
1
1
1
1
1
1
1
1
1
1
1
1
1
1
1
1
1
1
1
1
1
0.999999
0.999999
0.999999
0.999999
0.999998
0.999997
0.999997
0.999995
0.999994
0.999992
0.99999
0.999988
0.999985
0.999982
0.999978
0.999973
0.999968
0.999961
0.999954
0.999946
0.999937
0.999926
0.999914
0.999901
0.999886
0.99987
0.999852
0.999832
0.99981
0.999786
0.99976
0.999731
0.9997
0.999667
0.999631
0.999592
0.99955
0.999505
0.999457
0.999406
0.999352
0.999294
0.999232
0.999167
0.999099
0.999026
0.998949
0.998869
0.998784
0.998695
0.998602
0.998504
0.998403
0.998296
0.998185
0.998069
0.997949
0.997824
0.997694
0.997559
0.997419
0.997275
0.997125
0.99697
0.99681
0.996645
0.996475
0.9963
0.996119
0.995933
0.995742
0.995546
0.995344
0.995137
0.994925
0.994707
0.994484
0.994256
0.994022
0.993783
0.993539
0.993289
0.993034
0.992774
0.992509
0.992238
0.991962
0.99168
0.991394
0.991102
0.990805
0.990502
0.990195
0.989883
0.989565
0.989242
0.988915
0.988582
0.988244
0.987901
0.987554
0.987201
0.986844
0.986482
0.986115
0.985743
0.985367
0.984986
0.984601
0.98421
0.983816
0.983416
0.983013
0.982604
0.982192
0.981775
0.981354
0.980928
0.980499
0.980065
0.979627
0.979185
0.978739
0.978289
0.977835
0.977377
0.976915
0.97645
0.975981
0.975508
0.975031
0.97455
0.974067
0.973579
0.973088
0.972594
0.972096
0.971595
0.97109
0.970582
0.970071
0.969557
0.96904
0.968519
0.967996
0.967469
0.96694
0.966407
0.965872
0.965334
0.964793
0.964249
0.963702
0.963153
0.962601
0.962047
0.96149
0.960931
0.960369
0.959804
0.959237
0.958668
0.958097
0.957523
0.956947
0.956369
0.955789
0.955206
0.954622
0.954035
0.953446
0.952856
0.952263
0.951669
0.951073
0.950474
0.949874
0.949273
0.948669
0.948064
0.947457
0.946849
0.946239
0.945627
0.945014
0.944399
0.943783
0.943165
0.942546
0.941926
0.941304
0.940681
0.940057
0.939431
0.938805
0.938177
0.937547
0.936917
0.936285
0.935653
0.935019
0.934385
0.933749
0.933112
0.932475
0.931836
0.931197
0.930557
0.929915
0.929273
0.928631
0.927987
0.927343
0.926698
0.926052
0.925406
0.924758
0.924111
0.923462
0.922813
0.922164
0.921514
0.920863
0.920212
0.91956
0.918908
0.918256
0.917603
0.91695
0.916296
0.915642
0.914987
0.914333
0.913677
0.913022
0.912366
0.911711
0.911054
0.910398
0.909741
0.909085
0.908428
0.907771
0.907114
0.906456
0.905799
0.905141
0.904484
0.903826
0.903168
0.902511
0.901853
0.901195
0.900538
0.89988
0.899222
0.898565
0.897907
0.89725
0.896593
0.895935
0.895278
0.894622
0.893965
0.893308
0.892652
0.891996
0.89134
0.890684
0.890028
0.889373
0.888718
0.888063
0.887408
0.886754
0.8861
0.885447
0.884793
0.88414
0.883487
0.882835
0.882183
0.881531
0.88088
0.880229
0.879579
0.878929
0.878279
0.87763
0.876981
0.876333
0.875685
0.875037
0.87439
0.873744
0.873097
0.872452
0.871807
0.871162
0.870518
0.869874
0.869231
0.868589
0.867947
0.867305
0.866664
0.866024
0.865384
0.864745
0.864106
0.863468
0.862831
0.862194
0.861557
0.860922
0.860286
0.859652
0.859018
0.858385
0.857752
0.85712
0.856488
0.855858
0.855227
0.854598
0.853969
0.853341
0.852713
0.852086
0.85146
0.850835
0.85021
0.849585
0.848962
0.848339
0.847717
0.847095
0.846474
0.845854
0.845234
0.844615
0.843997
0.84338
0.842763
0.842147
0.841531
0.840917
0.840303
0.839689
0.839076
0.838464
0.837853
0.837242
0.836632
0.836023
0.835414
0.834806
0.834199
0.833592
0.832986
0.832381
0.831776
0.831172
0.830569
0.829966
0.829364
0.828763
0.828162
0.827562
0.826963
0.826364
0.825765
0.825168
0.824571
0.823974
0.823378
0.822783
0.822189
0.821594
0.821001
0.820408
0.819816
0.819224
0.818632
0.818042
0.817451
0.816862
0.816272
0.815684
0.815095
0.814508
0.81392
0.813333
0.812747
0.812161
0.811576
0.81099
0.810406
0.809821
0.809238
0.808654
0.808071
0.807488
0.806906
0.806323
0.805741
0.80516
0.804579
0.803998
0.803417
0.802836
0.802256
0.801676
0.801096
0.800517
0.799937
0.799358
0.798779
0.7982
0.797621
0.797042
0.796463
0.795884
0.795306
0.794727
0.794149
0.79357
0.792992
0.792413
0.791834
0.791256
0.790677
0.790098
0.789519
0.78894
0.788361
0.787781
0.787201
0.786622
0.786042
0.785461
0.784881
0.7843
0.783719
0.783137
0.782556
0.781974
0.781391
0.780808
0.780225
0.779641
0.779057
0.778473
0.777887
0.777302
0.776716
0.776129
0.775542
0.774954
0.774366
0.773777
0.773187
0.772597
0.772006
0.771415
0.770822
0.770229
0.769636
0.769041
0.768446
0.76785
0.767253
0.766655
0.766056
0.765457
0.764857
0.764255
0.763653
0.76305
0.762446
0.761841
0.761234
0.760627
0.760019
0.75941
0.758799
0.758188
0.757575
0.756962
0.756347
0.755731
0.755114
0.754495
0.753876
0.753255
0.752633
0.75201
0.751385
0.750759
0.750132
0.749503
0.748873
0.748242
0.747609
0.746975
0.74634
0.745703
0.745065
0.744425
0.743784
0.743141
0.742497
0.741851
0.741204
0.740555
0.739905
0.739253
0.738599
0.737944
0.737288
0.736629
0.735969
0.735308
0.734644
0.73398
0.733313
0.732645
0.731975
0.731303
0.73063
0.729954
0.729278
0.728599
0.727918
0.727236
0.726552
0.725867
0.725179
0.72449
0.723798
0.723105
0.72241
0.721714
0.721015
0.720314
0.719612
0.718908
0.718202
0.717494
0.716784
0.716072
0.715358
0.714643
0.713925
0.713205
0.712484
0.711761
0.711035
0.710308
0.709579
0.708847
0.708114
0.707379
0.706642
0.705903
0.705161
0.704418
0.703673
0.702926
0.702177
0.701426
0.700673
0.699918
0.699161
0.698401
0.69764
0.696877
0.696112
0.695345
0.694576
0.693805
0.693031
0.692256
0.691479
0.6907
0.689918
0.689135
0.68835
0.687563
0.686773
0.685982
0.685189
0.684393
0.683596
0.682797
0.681995
0.681192
0.680387
0.679579
0.67877
0.677959
0.677146
0.67633
0.675513
0.674694
0.673873
0.67305
0.672225
0.671398
0.670569
0.669738
0.668905
0.66807
0.667233
0.666395
0.665554
0.664712
0.663867
0.663021
0.662173
0.661323
0.660471
0.659617
0.658761
0.657904
0.657044
0.656183
0.65532
0.654455
0.653588
0.65272
0.651849
0.650977
0.650103
0.649227
0.64835
0.64747
0.646589
0.645706
0.644822
0.643935
0.643047
0.642158
0.641266
0.640373
0.639478
0.638581
0.637683
0.636783
0.635882
0.634978
0.634074
0.633167
0.632259
0.631349
0.630438
0.629525
0.628611
0.627695
0.626777
0.625858
0.624937
0.624015
0.623092
0.622166
0.62124
0.620311
0.619382
0.618451
0.617518
0.616584
0.615649
0.614712
0.613774
0.612834
0.611893
0.610951
0.610007
0.609062
0.608116
0.607168
0.606219
0.605269
0.604317
0.603364
0.60241
0.601454
0.600498
0.59954
0.598581
0.59762
0.596659
0.595696
0.594732
0.593767
0.592801
0.591834
0.590866
0.589896
0.588925
0.587954
0.586981
0.586007
0.585032
0.584056
0.583079
0.582101
0.581122
0.580142
0.579161
0.57818
0.577197
0.576213
0.575228
0.574243
0.573256
0.572269
0.57128
0.570291
0.569301
0.56831
0.567319
0.566326
0.565333
0.564339
0.563344
0.562348
0.561352
0.560355
0.559357
0.558358
0.557359
0.556359
0.555358
0.554357
0.553355
0.552352
0.551349
0.550345
0.54934
0.548335
0.547329
0.546323
0.545316
0.544308
0.5433
0.542292
0.541283
0.540273
0.539263
0.538253
0.537242
0.53623
0.535218
0.534206
0.533193
0.53218
0.531166
0.530152
0.529136
0.528125
0.527108
0.526134
0.525236
0.525236
1
1
1
1
1
1
1
1
1
1
1
1
1
1
1
1
1
1
1
1
1
1
1
1
1
1
1
1
1
1
1
1
1
1
1
0.999999
0.999999
0.999999
0.999999
0.999998
0.999997
0.999997
0.999995
0.999994
0.999992
0.99999
0.999988
0.999985
0.999982
0.999978
0.999973
0.999968
0.999961
0.999954
0.999946
0.999937
0.999926
0.999914
0.999901
0.999886
0.99987
0.999852
0.999832
0.99981
0.999786
0.99976
0.999731
0.9997
0.999667
0.999631
0.999592
0.99955
0.999505
0.999457
0.999406
0.999352
0.999294
0.999232
0.999167
0.999099
0.999026
0.998949
0.998869
0.998784
0.998695
0.998602
0.998504
0.998403
0.998296
0.998185
0.998069
0.997949
0.997824
0.997694
0.997559
0.997419
0.997275
0.997125
0.99697
0.99681
0.996645
0.996475
0.9963
0.996119
0.995933
0.995742
0.995546
0.995344
0.995137
0.994925
0.994707
0.994484
0.994256
0.994022
0.993783
0.993539
0.993289
0.993034
0.992774
0.992509
0.992238
0.991962
0.99168
0.991394
0.991102
0.990805
0.990502
0.990195
0.989883
0.989565
0.989242
0.988915
0.988582
0.988244
0.987901
0.987554
0.987201
0.986844
0.986482
0.986115
0.985743
0.985367
0.984986
0.984601
0.98421
0.983816
0.983416
0.983013
0.982604
0.982192
0.981775
0.981354
0.980928
0.980499
0.980065
0.979627
0.979185
0.978739
0.978289
0.977835
0.977377
0.976915
0.97645
0.975981
0.975508
0.975031
0.97455
0.974067
0.973579
0.973088
0.972594
0.972096
0.971595
0.97109
0.970582
0.970071
0.969557
0.96904
0.968519
0.967996
0.967469
0.96694
0.966407
0.965872
0.965334
0.964793
0.964249
0.963702
0.963153
0.962601
0.962047
0.96149
0.960931
0.960369
0.959804
0.959237
0.958668
0.958097
0.957523
0.956947
0.956369
0.955789
0.955206
0.954622
0.954035
0.953446
0.952856
0.952263
0.951669
0.951073
0.950474
0.949874
0.949273
0.948669
0.948064
0.947457
0.946849
0.946239
0.945627
0.945014
0.944399
0.943783
0.943165
0.942546
0.941926
0.941304
0.940681
0.940057
0.939431
0.938805
0.938177
0.937547
0.936917
0.936285
0.935653
0.935019
0.934385
0.933749
0.933112
0.932475
0.931836
0.931197
0.930557
0.929915
0.929273
0.928631
0.927987
0.927343
0.926698
0.926052
0.925406
0.924758
0.924111
0.923462
0.922813
0.922164
0.921514
0.920863
0.920212
0.91956
0.918908
0.918256
0.917603
0.91695
0.916296
0.915642
0.914987
0.914333
0.913677
0.913022
0.912366
0.911711
0.911054
0.910398
0.909741
0.909085
0.908428
0.907771
0.907114
0.906456
0.905799
0.905141
0.904484
0.903826
0.903168
0.902511
0.901853
0.901195
0.900538
0.89988
0.899222
0.898565
0.897907
0.89725
0.896593
0.895935
0.895278
0.894622
0.893965
0.893308
0.892652
0.891996
0.89134
0.890684
0.890028
0.889373
0.888718
0.888063
0.887408
0.886754
0.8861
0.885447
0.884793
0.88414
0.883487
0.882835
0.882183
0.881531
0.88088
0.880229
0.879579
0.878929
0.878279
0.87763
0.876981
0.876333
0.875685
0.875037
0.87439
0.873744
0.873097
0.872452
0.871807
0.871162
0.870518
0.869874
0.869231
0.868589
0.867947
0.867305
0.866664
0.866024
0.865384
0.864745
0.864106
0.863468
0.862831
0.862194
0.861557
0.860922
0.860286
0.859652
0.859018
0.858385
0.857752
0.85712
0.856488
0.855858
0.855227
0.854598
0.853969
0.853341
0.852713
0.852086
0.85146
0.850835
0.85021
0.849585
0.848962
0.848339
0.847717
0.847095
0.846474
0.845854
0.845234
0.844615
0.843997
0.84338
0.842763
0.842147
0.841531
0.840917
0.840303
0.839689
0.839076
0.838464
0.837853
0.837242
0.836632
0.836023
0.835414
0.834806
0.834199
0.833592
0.832986
0.832381
0.831776
0.831172
0.830569
0.829966
0.829364
0.828763
0.828162
0.827562
0.826963
0.826364
0.825765
0.825168
0.824571
0.823974
0.823378
0.822783
0.822189
0.821594
0.821001
0.820408
0.819816
0.819224
0.818632
0.818042
0.817451
0.816862
0.816272
0.815684
0.815095
0.814508
0.81392
0.813333
0.812747
0.812161
0.811576
0.81099
0.810406
0.809821
0.809238
0.808654
0.808071
0.807488
0.806906
0.806323
0.805741
0.80516
0.804579
0.803998
0.803417
0.802836
0.802256
0.801676
0.801096
0.800517
0.799937
0.799358
0.798779
0.7982
0.797621
0.797042
0.796463
0.795884
0.795306
0.794727
0.794149
0.79357
0.792992
0.792413
0.791834
0.791256
0.790677
0.790098
0.789519
0.78894
0.788361
0.787781
0.787201
0.786622
0.786042
0.785461
0.784881
0.7843
0.783719
0.783137
0.782556
0.781974
0.781391
0.780808
0.780225
0.779641
0.779057
0.778473
0.777887
0.777302
0.776716
0.776129
0.775542
0.774954
0.774366
0.773777
0.773187
0.772597
0.772006
0.771415
0.770822
0.770229
0.769636
0.769041
0.768446
0.76785
0.767253
0.766655
0.766056
0.765457
0.764857
0.764255
0.763653
0.76305
0.762446
0.761841
0.761234
0.760627
0.760019
0.75941
0.758799
0.758188
0.757575
0.756962
0.756347
0.755731
0.755114
0.754495
0.753876
0.753255
0.752633
0.75201
0.751385
0.750759
0.750132
0.749503
0.748873
0.748242
0.747609
0.746975
0.74634
0.745703
0.745065
0.744425
0.743784
0.743141
0.742497
0.741851
0.741204
0.740555
0.739905
0.739253
0.738599
0.737944
0.737288
0.736629
0.735969
0.735308
0.734644
0.73398
0.733313
0.732645
0.731975
0.731303
0.73063
0.729954
0.729278
0.728599
0.727918
0.727236
0.726552
0.725867
0.725179
0.72449
0.723798
0.723105
0.72241
0.721714
0.721015
0.720314
0.719612
0.718908
0.718202
0.717494
0.716784
0.716072
0.715358
0.714643
0.713925
0.713205
0.712484
0.711761
0.711035
0.710308
0.709579
0.708847
0.708114
0.707379
0.706642
0.705903
0.705161
0.704418
0.703673
0.702926
0.702177
0.701426
0.700673
0.699918
0.699161
0.698401
0.69764
0.696877
0.696112
0.695345
0.694576
0.693805
0.693031
0.692256
0.691479
0.6907
0.689918
0.689135
0.68835
0.687563
0.686773
0.685982
0.685189
0.684393
0.683596
0.682797
0.681995
0.681192
0.680387
0.679579
0.67877
0.677959
0.677146
0.67633
0.675513
0.674694
0.673873
0.67305
0.672225
0.671398
0.670569
0.669738
0.668905
0.66807
0.667233
0.666395
0.665554
0.664712
0.663867
0.663021
0.662173
0.661323
0.660471
0.659617
0.658761
0.657904
0.657044
0.656183
0.65532
0.654455
0.653588
0.65272
0.651849
0.650977
0.650103
0.649227
0.64835
0.64747
0.646589
0.645706
0.644822
0.643935
0.643047
0.642158
0.641266
0.640373
0.639478
0.638581
0.637683
0.636783
0.635882
0.634978
0.634074
0.633167
0.632259
0.631349
0.630438
0.629525
0.628611
0.627695
0.626777
0.625858
0.624937
0.624015
0.623092
0.622166
0.62124
0.620311
0.619382
0.618451
0.617518
0.616584
0.615649
0.614712
0.613774
0.612834
0.611893
0.610951
0.610007
0.609062
0.608116
0.607168
0.606219
0.605269
0.604317
0.603364
0.60241
0.601454
0.600498
0.59954
0.598581
0.59762
0.596659
0.595696
0.594732
0.593767
0.592801
0.591834
0.590866
0.589896
0.588925
0.587954
0.586981
0.586007
0.585032
0.584056
0.583079
0.582101
0.581122
0.580142
0.579161
0.57818
0.577197
0.576213
0.575228
0.574243
0.573256
0.572269
0.57128
0.570291
0.569301
0.56831
0.567319
0.566326
0.565333
0.564339
0.563344
0.562348
0.561352
0.560355
0.559357
0.558358
0.557359
0.556359
0.555358
0.554357
0.553355
0.552352
0.551349
0.550345
0.54934
0.548335
0.547329
0.546323
0.545316
0.544308
0.5433
0.542292
0.541283
0.540273
0.539263
0.538253
0.537242
0.53623
0.535218
0.534206
0.533193
0.53218
0.531166
0.530152
0.529136
0.528125
0.527108
0.526134
0.525236
0.525236
1
1
1
1
1
1
1
1
1
1
1
1
1
1
1
1
1
1
1
1
1
1
1
1
1
1
1
1
1
1
1
1
1
1
1
0.999999
0.999999
0.999999
0.999999
0.999998
0.999997
0.999997
0.999995
0.999994
0.999992
0.99999
0.999988
0.999985
0.999982
0.999978
0.999973
0.999968
0.999961
0.999954
0.999946
0.999937
0.999926
0.999914
0.999901
0.999886
0.99987
0.999852
0.999832
0.99981
0.999786
0.99976
0.999731
0.9997
0.999667
0.999631
0.999592
0.99955
0.999505
0.999457
0.999406
0.999352
0.999294
0.999232
0.999167
0.999098
0.999026
0.998949
0.998869
0.998784
0.998695
0.998602
0.998504
0.998402
0.998296
0.998185
0.998069
0.997949
0.997824
0.997694
0.997559
0.997419
0.997274
0.997124
0.99697
0.99681
0.996645
0.996474
0.996299
0.996118
0.995933
0.995742
0.995545
0.995343
0.995136
0.994924
0.994706
0.994483
0.994255
0.994022
0.993783
0.993538
0.993289
0.993034
0.992773
0.992508
0.992237
0.991961
0.991679
0.991393
0.991101
0.990804
0.990501
0.990194
0.989882
0.989564
0.989241
0.988914
0.988581
0.988243
0.9879
0.987553
0.9872
0.986843
0.986481
0.986114
0.985742
0.985366
0.984985
0.984599
0.984209
0.983814
0.983415
0.983011
0.982603
0.982191
0.981774
0.981353
0.980927
0.980497
0.980064
0.979626
0.979184
0.978738
0.978288
0.977834
0.977376
0.976914
0.976448
0.975979
0.975506
0.975029
0.974549
0.974065
0.973578
0.973087
0.972592
0.972094
0.971593
0.971089
0.970581
0.97007
0.969555
0.969038
0.968518
0.967994
0.967467
0.966938
0.966405
0.96587
0.965332
0.964791
0.964247
0.963701
0.963152
0.9626
0.962045
0.961488
0.960929
0.960367
0.959803
0.959236
0.958667
0.958095
0.957521
0.956946
0.956367
0.955787
0.955205
0.95462
0.954033
0.953445
0.952854
0.952262
0.951667
0.951071
0.950473
0.949873
0.949271
0.948667
0.948062
0.947455
0.946847
0.946237
0.945625
0.945012
0.944397
0.943781
0.943164
0.942545
0.941924
0.941303
0.940679
0.940055
0.93943
0.938803
0.938175
0.937545
0.936915
0.936284
0.935651
0.935017
0.934383
0.933747
0.933111
0.932473
0.931834
0.931195
0.930555
0.929914
0.929272
0.928629
0.927985
0.927341
0.926696
0.92605
0.925404
0.924757
0.924109
0.92346
0.922811
0.922162
0.921512
0.920861
0.92021
0.919559
0.918906
0.918254
0.917601
0.916948
0.916294
0.91564
0.914985
0.914331
0.913676
0.91302
0.912365
0.911709
0.911053
0.910396
0.90974
0.909083
0.908426
0.907769
0.907112
0.906454
0.905797
0.905139
0.904482
0.903824
0.903167
0.902509
0.901851
0.901193
0.900536
0.899878
0.89922
0.898563
0.897905
0.897248
0.896591
0.895934
0.895277
0.89462
0.893963
0.893306
0.89265
0.891994
0.891338
0.890682
0.890026
0.889371
0.888716
0.888061
0.887407
0.886752
0.886098
0.885445
0.884791
0.884138
0.883486
0.882833
0.882181
0.88153
0.880878
0.880227
0.879577
0.878927
0.878277
0.877628
0.876979
0.876331
0.875683
0.875035
0.874388
0.873742
0.873096
0.87245
0.871805
0.87116
0.870516
0.869873
0.869229
0.868587
0.867945
0.867303
0.866662
0.866022
0.865382
0.864743
0.864104
0.863466
0.862829
0.862192
0.861555
0.86092
0.860285
0.85965
0.859016
0.858383
0.85775
0.857118
0.856487
0.855856
0.855226
0.854596
0.853967
0.853339
0.852712
0.852085
0.851458
0.850833
0.850208
0.849584
0.84896
0.848337
0.847715
0.847093
0.846472
0.845852
0.845233
0.844614
0.843996
0.843378
0.842761
0.842145
0.84153
0.840915
0.840301
0.839687
0.839075
0.838463
0.837851
0.837241
0.836631
0.836021
0.835413
0.834805
0.834197
0.833591
0.832985
0.83238
0.831775
0.831171
0.830568
0.829965
0.829363
0.828762
0.828161
0.827561
0.826961
0.826362
0.825764
0.825166
0.824569
0.823973
0.823377
0.822782
0.822187
0.821593
0.821
0.820407
0.819814
0.819223
0.818631
0.818041
0.81745
0.816861
0.816271
0.815683
0.815095
0.814507
0.81392
0.813333
0.812746
0.812161
0.811575
0.81099
0.810405
0.809821
0.809237
0.808654
0.808071
0.807488
0.806905
0.806323
0.805741
0.80516
0.804579
0.803998
0.803417
0.802837
0.802256
0.801676
0.801097
0.800517
0.799938
0.799358
0.798779
0.7982
0.797622
0.797043
0.796464
0.795886
0.795307
0.794729
0.79415
0.793572
0.792993
0.792415
0.791836
0.791257
0.790679
0.7901
0.789521
0.788942
0.788363
0.787784
0.787204
0.786624
0.786044
0.785464
0.784884
0.784303
0.783722
0.783141
0.782559
0.781977
0.781395
0.780812
0.780229
0.779645
0.779061
0.778477
0.777892
0.777307
0.776721
0.776134
0.775547
0.77496
0.774372
0.773783
0.773193
0.772603
0.772013
0.771421
0.770829
0.770236
0.769643
0.769048
0.768453
0.767857
0.767261
0.766663
0.766065
0.765465
0.764865
0.764264
0.763662
0.763059
0.762455
0.76185
0.761244
0.760637
0.760029
0.75942
0.75881
0.758199
0.757587
0.756973
0.756359
0.755743
0.755126
0.754508
0.753888
0.753268
0.752646
0.752023
0.751399
0.750773
0.750146
0.749518
0.748888
0.748257
0.747625
0.746991
0.746356
0.745719
0.745081
0.744442
0.743801
0.743158
0.742514
0.741869
0.741222
0.740574
0.739924
0.739272
0.738619
0.737964
0.737308
0.73665
0.73599
0.735329
0.734666
0.734001
0.733335
0.732667
0.731997
0.731326
0.730653
0.729978
0.729302
0.728623
0.727943
0.727261
0.726578
0.725892
0.725205
0.724516
0.723825
0.723132
0.722438
0.721742
0.721043
0.720343
0.719641
0.718937
0.718232
0.717524
0.716814
0.716103
0.71539
0.714674
0.713957
0.713238
0.712517
0.711794
0.711069
0.710342
0.709613
0.708882
0.708149
0.707415
0.706678
0.705939
0.705198
0.704456
0.703711
0.702964
0.702216
0.701465
0.700712
0.699957
0.699201
0.698442
0.697681
0.696919
0.696154
0.695387
0.694618
0.693848
0.693075
0.6923
0.691523
0.690745
0.689964
0.689181
0.688396
0.687609
0.68682
0.686029
0.685237
0.684442
0.683645
0.682846
0.682045
0.681242
0.680437
0.67963
0.678822
0.678011
0.677198
0.676383
0.675566
0.674748
0.673927
0.673104
0.67228
0.671453
0.670624
0.669794
0.668962
0.668127
0.667291
0.666453
0.665613
0.664771
0.663927
0.663081
0.662233
0.661384
0.660532
0.659679
0.658823
0.657966
0.657107
0.656247
0.655384
0.654519
0.653653
0.652785
0.651915
0.651043
0.65017
0.649294
0.648417
0.647538
0.646658
0.645775
0.644891
0.644005
0.643118
0.642228
0.641337
0.640445
0.63955
0.638654
0.637756
0.636857
0.635956
0.635053
0.634148
0.633242
0.632335
0.631426
0.630515
0.629602
0.628688
0.627773
0.626856
0.625937
0.625017
0.624095
0.623172
0.622247
0.621321
0.620393
0.619464
0.618533
0.617601
0.616667
0.615732
0.614796
0.613858
0.612919
0.611979
0.611037
0.610093
0.609149
0.608203
0.607255
0.606307
0.605357
0.604406
0.603453
0.602499