# vtk DataFile Version 2.0
FlowField
ASCII
DATASET STRUCTURED_GRID
DIMENSIONS 800 1 200
POINTS 160000 float
0 0 0
0.04 0 0
0.08 0 0
0.12 0 0
0.16 0 0
0.2 0 0
0.24 0 0
0.28 0 0
0.32 0 0
0.36 0 0
0.4 0 0
0.44 0 0
0.48 0 0
0.52 0 0
0.56 0 0
0.6 0 0
0.64 0 0
0.68 0 0
0.72 0 0
0.76 0 0
0.8 0 0
0.84 0 0
0.88 0 0
0.92 0 0
0.96 0 0
1 0 0
1.04 0 0
1.08 0 0
1.12 0 0
1.16 0 0
1.2 0 0
1.24 0 0
1.28 0 0
1.32 0 0
1.36 0 0
1.4 0 0
1.44 0 0
1.48 0 0
1.52 0 0
1.56 0 0
1.6 0 0
1.64 0 0
1.68 0 0
1.72 0 0
1.76 0 0
1.8 0 0
1.84 0 0
1.88 0 0
1.92 0 0
1.96 0 0
2 0 0
2.04 0 0
2.08 0 0
2.12 0 0
2.16 0 0
2.2 0 0
2.24 0 0
2.28 0 0
2.32 0 0
2.36 0 0
2.4 0 0
2.44 0 0
2.48 0 0
2.52 0 0
2.56 0 0
2.6 0 0
2.64 0 0
2.68 0 0
2.72 0 0
2.76 0 0
2.8 0 0
2.84 0 0
2.88 0 0
2.92 0 0
2.96 0 0
3 0 0
3.04 0 0
3.08 0 0
3.12 0 0
3.16 0 0
3.2 0 0
3.24 0 0
3.28 0 0
3.32 0 0
3.36 0 0
3.4 0 0
3.44 0 0
3.48 0 0
3.52 0 0
3.56 0 0
3.6 0 0
3.64 0 0
3.68 0 0
3.72 0 0
3.76 0 0
3.8 0 0
3.84 0 0
3.88 0 0
3.92 0 0
3.96 0 0
4 0 0
4.04 0 0
4.08 0 0
4.12 0 0
4.16 0 0
4.2 0 0
4.24 0 0
4.28 0 0
4.32 0 0
4.36 0 0
4.4 0 0
4.44 0 0
4.48 0 0
4.52 0 0
4.56 0 0
4.6 0 0
4.64 0 0
4.68 0 0
4.72 0 0
4.76 0 0
4.8 0 0
4.84 0 0
4.88 0 0
4.92 0 0
4.96 0 0
5 0 0
5.04 0 0
5.08 0 0
5.12 0 0
5.16 0 0
5.2 0 0
5.24 0 0
5.28 0 0
5.32 0 0
5.36 0 0
5.4 0 0
5.44 0 0
5.48 0 0
5.52 0 0
5.56 0 0
5.6 0 0
5.64 0 0
5.68 0 0
5.72 0 0
5.76 0 0
5.8 0 0
5.84 0 0
5.88 0 0
5.92 0 0
5.96 0 0
6 0 0
6.04 0 0
6.08 0 0
6.12 0 0
6.16 0 0
6.2 0 0
6.24 0 0
6.28 0 0
6.32 0 0
6.36 0 0
6.4 0 0
6.44 0 0
6.48 0 0
6.52 0 0
6.56 0 0
6.6 0 0
6.64 0 0
6.68 0 0
6.72 0 0
6.76 0 0
6.8 0 0
6.84 0 0
6.88 0 0
6.92 0 0
6.96 0 0
7 0 0
7.04 0 0
7.08 0 0
7.12 0 0
7.16 0 0
7.2 0 0
7.24 0 0
7.28 0 0
7.32 0 0
7.36 0 0
7.4 0 0
7.44 0 0
7.48 0 0
7.52 0 0
7.56 0 0
7.6 0 0
7.64 0 0
7.68 0 0
7.72 0 0
7.76 0 0
7.8 0 0
7.84 0 0
7.88 0 0
7.92 0 0
7.96 0 0
8 0 0
8.04 0 0
8.08 0 0
8.12 0 0
8.16 0 0
8.2 0 0
8.24 0 0
8.28 0 0
8.32 0 0
8.36 0 0
8.4 0 0
8.44 0 0
8.48 0 0
8.52 0 0
8.56 0 0
8.6 0 0
8.64 0 0
8.68 0 0
8.72 0 0
8.76 0 0
8.8 0 0
8.84 0 0
8.88 0 0
8.92 0 0
8.96 0 0
9 0 0
9.04 0 0
9.08 0 0
9.12 0 0
9.16 0 0
9.2 0 0
9.24 0 0
9.28 0 0
9.32 0 0
9.36 0 0
9.4 0 0
9.44 0 0
9.48 0 0
9.52 0 0
9.56 0 0
9.6 0 0
9.64 0 0
9.68 0 0
9.72 0 0
9.76 0 0
9.8 0 0
9.84 0 0
9.88 0 0
9.92 0 0
9.96 0 0
10 0 0
10.04 0 0
10.08 0 0
10.12 0 0
10.16 0 0
10.2 0 0
10.24 0 0
10.28 0 0
10.32 0 0
10.36 0 0
10.4 0 0
10.44 0 0
10.48 0 0
10.52 0 0
10.56 0 0
10.6 0 0
10.64 0 0
10.68 0 0
10.72 0 0
10.76 0 0
10.8 0 0
10.84 0 0
10.88 0 0
10.92 0 0
10.96 0 0
11 0 0
11.04 0 0
11.08 0 0
11.12 0 0
11.16 0 0
11.2 0 0
11.24 0 0
11.28 0 0
11.32 0 0
11.36 0 0
11.4 0 0
11.44 0 0
11.48 0 0
11.52 0 0
11.56 0 0
11.6 0 0
11.64 0 0
11.68 0 0
11.72 0 0
11.76 0 0
11.8 0 0
11.84 0 0
11.88 0 0
11.92 0 0
11.96 0 0
12 0 0
12.04 0 0
12.08 0 0
12.12 0 0
12.16 0 0
12.2 0 0
12.24 0 0
12.28 0 0
12.32 0 0
12.36 0 0
12.4 0 0
12.44 0 0
12.48 0 0
12.52 0 0
12.56 0 0
12.6 0 0
12.64 0 0
12.68 0 0
12.72 0 0
12.76 0 0
12.8 0 0
12.84 0 0
12.88 0 0
12.92 0 0
12.96 0 0
13 0 0
13.04 0 0
13.08 0 0
13.12 0 0
13.16 0 0
13.2 0 0
13.24 0 0
13.28 0 0
13.32 0 0
13.36 0 0
13.4 0 0
13.44 0 0
13.48 0 0
13.52 0 0
13.56 0 0
13.6 0 0
13.64 0 0
13.68 0 0
13.72 0 0
13.76 0 0
13.8 0 0
13.84 0 0
13.88 0 0
13.92 0 0
13.96 0 0
14 0 0
14.04 0 0
14.08 0 0
14.12 0 0
14.16 0 0
14.2 0 0
14.24 0 0
14.28 0 0
14.32 0 0
14.36 0 0
14.4 0 0
14.44 0 0
14.48 0 0
14.52 0 0
14.56 0 0
14.6 0 0
14.64 0 0
14.68 0 0
14.72 0 0
14.76 0 0
14.8 0 0
14.84 0 0
14.88 0 0
14.92 0 0
14.96 0 0
15 0 0
15.04 0 0
15.08 0 0
15.12 0 0
15.16 0 0
15.2 0 0
15.24 0 0
15.28 0 0
15.32 0 0
15.36 0 0
15.4 0 0
15.44 0 0
15.48 0 0
15.52 0 0
15.56 0 0
15.6 0 0
15.64 0 0
15.68 0 0
15.72 0 0
15.76 0 0
15.8 0 0
15.84 0 0
15.88 0 0
15.92 0 0
15.96 0 0
16 0 0
16.04 0 0
16.08 0 0
16.12 0 0
16.16 0 0
16.2 0 0
16.24 0 0
16.28 0 0
16.32 0 0
16.36 0 0
16.4 0 0
16.44 0 0
16.48 0 0
16.52 0 0
16.56 0 0
16.6 0 0
16.64 0 0
16.68 0 0
16.72 0 0
16.76 0 0
16.8 0 0
16.84 0 0
16.88 0 0
16.92 0 0
16.96 0 0
17 0 0
17.04 0 0
17.08 0 0
17.12 0 0
17.16 0 0
17.2 0 0
17.24 0 0
17.28 0 0
17.32 0 0
17.36 0 0
17.4 0 0
17.44 0 0
17.48 0 0
17.52 0 0
17.56 0 0
17.6 0 0
17.64 0 0
17.68 0 0
17.72 0 0
17.76 0 0
17.8 0 0
17.84 0 0
17.88 0 0
17.92 0 0
17.96 0 0
18 0 0
18.04 0 0
18.08 0 0
18.12 0 0
18.16 0 0
18.2 0 0
18.24 0 0
18.28 0 0
18.32 0 0
18.36 0 0
18.4 0 0
18.44 0 0
18.48 0 0
18.52 0 0
18.56 0 0
18.6 0 0
18.64 0 0
18.68 0 0
18.72 0 0
18.76 0 0
18.8 0 0
18.84 0 0
18.88 0 0
18.92 0 0
18.96 0 0
19 0 0
19.04 0 0
19.08 0 0
19.12 0 0
19.16 0 0
19.2 0 0
19.24 0 0
19.28 0 0
19.32 0 0
19.36 0 0
19.4 0 0
19.44 0 0
19.48 0 0
19.52 0 0
19.56 0 0
19.6 0 0
19.64 0 0
19.68 0 0
19.72 0 0
19.76 0 0
19.8 0 0
19.84 0 0
19.88 0 0
19.92 0 0
19.96 0 0
20 0 0
20.04 0 0
20.08 0 0
20.12 0 0
20.16 0 0
20.2 0 0
20.24 0 0
20.28 0 0
20.32 0 0
20.36 0 0
20.4 0 0
20.44 0 0
20.48 0 0
20.52 0 0
20.56 0 0
20.6 0 0
20.64 0 0
20.68 0 0
20.72 0 0
20.76 0 0
20.8 0 0
20.84 0 0
20.88 0 0
20.92 0 0
20.96 0 0
21 0 0
21.04 0 0
21.08 0 0
21.12 0 0
21.16 0 0
21.2 0 0
21.24 0 0
21.28 0 0
21.32 0 0
21.36 0 0
21.4 0 0
21.44 0 0
21.48 0 0
21.52 0 0
21.56 0 0
21.6 0 0
21.64 0 0
21.68 0 0
21.72 0 0
21.76 0 0
21.8 0 0
21.84 0 0
21.88 0 0
21.92 0 0
21.96 0 0
22 0 0
22.04 0 0
22.08 0 0
22.12 0 0
22.16 0 0
22.2 0 0
22.24 0 0
22.28 0 0
22.32 0 0
22.36 0 0
22.4 0 0
22.44 0 0
22.48 0 0
22.52 0 0
22.56 0 0
22.6 0 0
22.64 0 0
22.68 0 0
22.72 0 0
22.76 0 0
22.8 0 0
22.84 0 0
22.88 0 0
22.92 0 0
22.96 0 0
23 0 0
23.04 0 0
23.08 0 0
23.12 0 0
23.16 0 0
23.2 0 0
23.24 0 0
23.28 0 0
23.32 0 0
23.36 0 0
23.4 0 0
23.44 0 0
23.48 0 0
23.52 0 0
23.56 0 0
23.6 0 0
23.64 0 0
23.68 0 0
23.72 0 0
23.76 0 0
23.8 0 0
23.84 0 0
23.88 0 0
23.92 0 0
23.96 0 0
24 0 0
24.04 0 0
24.08 0 0
24.12 0 0
24.16 0 0
24.2 0 0
24.24 0 0
24.28 0 0
24.32 0 0
24.36 0 0
24.4 0 0
24.44 0 0
24.48 0 0
24.52 0 0
24.56 0 0
24.6 0 0
24.64 0 0
24.68 0 0
24.72 0 0
24.76 0 0
24.8 0 0
24.84 0 0
24.88 0 0
24.92 0 0
24.96 0 0
25 0 0
25.04 0 0
25.08 0 0
25.12 0 0
25.16 0 0
25.2 0 0
25.24 0 0
25.28 0 0
25.32 0 0
25.36 0 0
25.4 0 0
25.44 0 0
25.48 0 0
25.52 0 0
25.56 0 0
25.6 0 0
25.64 0 0
25.68 0 0
25.72 0 0
25.76 0 0
25.8 0 0
25.84 0 0
25.88 0 0
25.92 0 0
25.96 0 0
26 0 0
26.04 0 0
26.08 0 0
26.12 0 0
26.16 0 0
26.2 0 0
26.24 0 0
26.28 0 0
26.32 0 0
26.36 0 0
26.4 0 0
26.44 0 0
26.48 0 0
26.52 0 0
26.56 0 0
26.6 0 0
26.64 0 0
26.68 0 0
26.72 0 0
26.76 0 0
26.8 0 0
26.84 0 0
26.88 0 0
26.92 0 0
26.96 0 0
27 0 0
27.04 0 0
27.08 0 0
27.12 0 0
27.16 0 0
27.2 0 0
27.24 0 0
27.28 0 0
27.32 0 0
27.36 0 0
27.4 0 0
27.44 0 0
27.48 0 0
27.52 0 0
27.56 0 0
27.6 0 0
27.64 0 0
27.68 0 0
27.72 0 0
27.76 0 0
27.8 0 0
27.84 0 0
27.88 0 0
27.92 0 0
27.96 0 0
28 0 0
28.04 0 0
28.08 0 0
28.12 0 0
28.16 0 0
28.2 0 0
28.24 0 0
28.28 0 0
28.32 0 0
28.36 0 0
28.4 0 0
28.44 0 0
28.48 0 0
28.52 0 0
28.56 0 0
28.6 0 0
28.64 0 0
28.68 0 0
28.72 0 0
28.76 0 0
28.8 0 0
28.84 0 0
28.88 0 0
28.92 0 0
28.96 0 0
29 0 0
29.04 0 0
29.08 0 0
29.12 0 0
29.16 0 0
29.2 0 0
29.24 0 0
29.28 0 0
29.32 0 0
29.36 0 0
29.4 0 0
29.44 0 0
29.48 0 0
29.52 0 0
29.56 0 0
29.6 0 0
29.64 0 0
29.68 0 0
29.72 0 0
29.76 0 0
29.8 0 0
29.84 0 0
29.88 0 0
29.92 0 0
29.96 0 0
30 0 0
30.04 0 0
30.08 0 0
30.12 0 0
30.16 0 0
30.2 0 0
30.24 0 0
30.28 0 0
30.32 0 0
30.36 0 0
30.4 0 0
30.44 0 0
30.48 0 0
30.52 0 0
30.56 0 0
30.6 0 0
30.64 0 0
30.68 0 0
30.72 0 0
30.76 0 0
30.8 0 0
30.84 0 0
30.88 0 0
30.92 0 0
30.96 0 0
31 0 0
31.04 0 0
31.08 0 0
31.12 0 0
31.16 0 0
31.2 0 0
31.24 0 0
31.28 0 0
31.32 0 0
31.36 0 0
31.4 0 0
31.44 0 0
31.48 0 0
31.52 0 0
31.56 0 0
31.6 0 0
31.64 0 0
31.68 0 0
31.72 0 0
31.76 0 0
31.8 0 0
31.84 0 0
31.88 0 0
31.92 0 0
31.96 0 0
0 0.005 0
0.04 0.005 0
0.08 0.005 0
0.12 0.005 0
0.16 0.005 0
0.2 0.005 0
0.24 0.005 0
0.28 0.005 0
0.32 0.005 0
0.36 0.005 0
0.4 0.005 0
0.44 0.005 0
0.48 0.005 0
0.52 0.005 0
0.56 0.005 0
0.6 0.005 0
0.64 0.005 0
0.68 0.005 0
0.72 0.005 0
0.76 0.005 0
0.8 0.005 0
0.84 0.005 0
0.88 0.005 0
0.92 0.005 0
0.96 0.005 0
1 0.005 0
1.04 0.005 0
1.08 0.005 0
1.12 0.005 0
1.16 0.005 0
1.2 0.005 0
1.24 0.005 0
1.28 0.005 0
1.32 0.005 0
1.36 0.005 0
1.4 0.005 0
1.44 0.005 0
1.48 0.005 0
1.52 0.005 0
1.56 0.005 0
1.6 0.005 0
1.64 0.005 0
1.68 0.005 0
1.72 0.005 0
1.76 0.005 0
1.8 0.005 0
1.84 0.005 0
1.88 0.005 0
1.92 0.005 0
1.96 0.005 0
2 0.005 0
2.04 0.005 0
2.08 0.005 0
2.12 0.005 0
2.16 0.005 0
2.2 0.005 0
2.24 0.005 0
2.28 0.005 0
2.32 0.005 0
2.36 0.005 0
2.4 0.005 0
2.44 0.005 0
2.48 0.005 0
2.52 0.005 0
2.56 0.005 0
2.6 0.005 0
2.64 0.005 0
2.68 0.005 0
2.72 0.005 0
2.76 0.005 0
2.8 0.005 0
2.84 0.005 0
2.88 0.005 0
2.92 0.005 0
2.96 0.005 0
3 0.005 0
3.04 0.005 0
3.08 0.005 0
3.12 0.005 0
3.16 0.005 0
3.2 0.005 0
3.24 0.005 0
3.28 0.005 0
3.32 0.005 0
3.36 0.005 0
3.4 0.005 0
3.44 0.005 0
3.48 0.005 0
3.52 0.005 0
3.56 0.005 0
3.6 0.005 0
3.64 0.005 0
3.68 0.005 0
3.72 0.005 0
3.76 0.005 0
3.8 0.005 0
3.84 0.005 0
3.88 0.005 0
3.92 0.005 0
3.96 0.005 0
4 0.005 0
4.04 0.005 0
4.08 0.005 0
4.12 0.005 0
4.16 0.005 0
4.2 0.005 0
4.24 0.005 0
4.28 0.005 0
4.32 0.005 0
4.36 0.005 0
4.4 0.005 0
4.44 0.005 0
4.48 0.005 0
4.52 0.005 0
4.56 0.005 0
4.6 0.005 0
4.64 0.005 0
4.68 0.005 0
4.72 0.005 0
4.76 0.005 0
4.8 0.005 0
4.84 0.005 0
4.88 0.005 0
4.92 0.005 0
4.96 0.005 0
5 0.005 0
5.04 0.005 0
5.08 0.005 0
5.12 0.005 0
5.16 0.005 0
5.2 0.005 0
5.24 0.005 0
5.28 0.005 0
5.32 0.005 0
5.36 0.005 0
5.4 0.005 0
5.44 0.005 0
5.48 0.005 0
5.52 0.005 0
5.56 0.005 0
5.6 0.005 0
5.64 0.005 0
5.68 0.005 0
5.72 0.005 0
5.76 0.005 0
5.8 0.005 0
5.84 0.005 0
5.88 0.005 0
5.92 0.005 0
5.96 0.005 0
6 0.005 0
6.04 0.005 0
6.08 0.005 0
6.12 0.005 0
6.16 0.005 0
6.2 0.005 0
6.24 0.005 0
6.28 0.005 0
6.32 0.005 0
6.36 0.005 0
6.4 0.005 0
6.44 0.005 0
6.48 0.005 0
6.52 0.005 0
6.56 0.005 0
6.6 0.005 0
6.64 0.005 0
6.68 0.005 0
6.72 0.005 0
6.76 0.005 0
6.8 0.005 0
6.84 0.005 0
6.88 0.005 0
6.92 0.005 0
6.96 0.005 0
7 0.005 0
7.04 0.005 0
7.08 0.005 0
7.12 0.005 0
7.16 0.005 0
7.2 0.005 0
7.24 0.005 0
7.28 0.005 0
7.32 0.005 0
7.36 0.005 0
7.4 0.005 0
[...]
POINT_DATA 160000

SCALARS p float 1
LOOKUP_TABLE default
1
47.0757
44.8603
44.6054
44.5452
44.5188
44.5028
44.4912
44.482
44.4741
44.4672
44.4608
44.4549
44.4494
44.4441
44.439
44.434
44.4292
44.4245
44.4198
44.4153
44.4108
44.4064
44.4021
44.3978
44.3936
44.3894
44.3853
44.3813
44.3773
44.3733
44.3694
44.3655
44.3617
44.3579
44.3541
44.3504
44.3468
44.3431
44.3395
44.336
44.3324
44.3289
44.3255
44.3221
44.3187
44.3153
44.312
44.3086
44.3054
44.3021
44.2989
44.2957
44.2925
44.2894
44.2862
44.2831
44.2801
44.277
44.274
44.271
44.268
44.265
44.262
44.2591
44.2562
44.2533
44.2504
44.2476
44.2447
44.2419
44.2391
44.2363
44.2335
44.2308
44.228
44.2253
44.2226
44.2199
44.2172
44.2146
44.2119
44.2093
44.2066
44.204
44.2014
44.1988
44.1962
44.1937
44.1911
44.1886
44.186
44.1835
44.181
44.1785
44.176
44.1736
44.1711
44.1686
44.1662
44.1638
44.1613
44.1589
44.1565
44.1541
44.1517
44.1493
44.147
44.1446
44.1423
44.1399
44.1376
44.1353
44.1329
44.1306
44.1283
44.126
44.1237
44.1215
44.1192
44.1169
44.1147
44.1124
44.1102
44.1079
44.1057
44.1035
44.1013
44.0991
44.0969
44.0947
44.0925
44.0903
44.0881
44.086
44.0838
44.0816
44.0795
44.0774
44.0752
44.0731
44.071
44.0688
44.0667
44.0646
44.0625
44.0604
44.0583
44.0562
44.0541
44.0521
44.05
44.0479
44.0459
44.0438
44.0418
44.0397
44.0377
44.0356
44.0336
44.0316
44.0296
44.0275
44.0255
44.0235
44.0215
44.0195
44.0175
44.0155
44.0135
44.0115
44.0096
44.0076
44.0056
44.0036
44.0017
43.9997
43.9978
43.9958
43.9939
43.9919
43.99
43.988
43.9861
43.9842
43.9823
43.9803
43.9784
43.9765
43.9746
43.9727
43.9708
43.9689
43.967
43.9651
43.9632
43.9613
43.9594
43.9575
43.9557
43.9538
43.9519
43.95
43.9482
43.9463
43.9445
43.9426
43.9407
43.9389
43.937
43.9352
43.9334
43.9315
43.9297
43.9278
43.926
43.9242
43.9224
43.9205
43.9187
43.9169
43.9151
43.9133
43.9114
43.9096
43.9078
43.906
43.9042
43.9024
43.9006
43.8988
43.897
43.8952
43.8935
43.8917
43.8899
43.8881
43.8863
43.8846
43.8828
43.881
43.8792
43.8775
43.8757
43.8739
43.8722
43.8704
43.8686
43.8669
43.8651
43.8634
43.8616
43.8599
43.8581
43.8564
43.8546
43.8529
43.8512
43.8494
43.8477
43.846
43.8442
43.8425
43.8408
43.839
43.8373
43.8356
43.8339
43.8321
43.8304
43.8287
43.827
43.8253
43.8236
43.8218
43.8201
43.8184
43.8167
43.815
43.8133
43.8116
43.8099
43.8082
43.8065
43.8048
43.8031
43.8014
43.7997
43.798
43.7963
43.7947
43.793
43.7913
43.7896
43.7879
43.7862
43.7845
43.7829
43.7812
43.7795
43.7778
43.7762
43.7745
43.7728
43.7711
43.7695
43.7678
43.7661
43.7645
43.7628
43.7611
43.7595
43.7578
43.7561
43.7545
43.7528
43.7511
43.7495
43.7478
43.7462
43.7445
43.7429
43.7412
43.7396
43.7379
43.7363
43.7346
43.733
43.7313
43.7297
43.728
43.7264
43.7247
43.7231
43.7214
43.7198
43.7182
43.7165
43.7149
43.7132
43.7116
43.71
43.7083
43.7067
43.7051
43.7034
43.7018
43.7002
43.6985
43.6969
43.6953
43.6936
43.692
43.6904
43.6888
43.6871
43.6855
43.6839
43.6823
43.6806
43.679
43.6774
43.6758
43.6741
43.6725
43.6709
43.6693
43.6677
43.6661
43.6644
43.6628
43.6612
43.6596
43.658
43.6564
43.6547
43.6531
43.6515
43.6499
43.6483
43.6467
43.6451
43.6435
43.6419
43.6402
43.6386
43.637
43.6354
43.6338
43.6322
43.6306
43.629
43.6274
43.6258
43.6242
43.6226
43.621
43.6194
43.6178
43.6162
43.6146
43.613
43.6114
43.6098
43.6082
43.6066
43.605
43.6034
43.6018
43.6002
43.5986
43.597
43.5954
43.5938
43.5922
43.5906
43.589
43.5874
43.5858
43.5842
43.5827
43.5811
43.5795
43.5779
43.5763
43.5747
43.5731
43.5715
43.5699
43.5683
43.5667
43.5652
43.5636
43.562
43.5604
43.5588
43.5572
43.5556
43.5541
43.5525
43.5509
43.5493
43.5477
43.5461
43.5445
43.543
43.5414
43.5398
43.5382
43.5366
43.535
43.5335
43.5319
43.5303
43.5287
43.5271
43.5256
43.524
43.5224
43.5208
43.5192
43.5177
43.5161
43.5145
43.5129
43.5113
43.5098
43.5082
43.5066
43.505
43.5035
43.5019
43.5003
43.4987
43.4971
43.4956
43.494
43.4924
43.4908
43.4893
43.4877
43.4861
43.4845
43.483
43.4814
43.4798
43.4782
43.4767
43.4751
43.4735
43.472
43.4704
43.4688
43.4672
43.4657
43.4641
43.4625
43.461
43.4594
43.4578
43.4562
43.4547
43.4531
43.4515
43.45
43.4484
43.4468
43.4452
43.4437
43.4421
43.4405
43.439
43.4374
43.4358
43.4343
43.4327
43.4311
43.4296
43.428
43.4264
43.4249
43.4233
43.4217
43.4202
43.4186
43.417
43.4155
43.4139
43.4123
43.4108
43.4092
43.4076
43.4061
43.4045
43.4029
43.4014
43.3998
43.3982
43.3967
43.3951
43.3935
43.392
43.3904
43.3889
43.3873
43.3857
43.3842
43.3826
43.381
43.3795
43.3779
43.3763
43.3748
43.3732
43.3717
43.3701
43.3685
43.367
43.3654
43.3638
43.3623
43.3607
43.3592
43.3576
43.356
43.3545
43.3529
43.3514
43.3498
43.3482
43.3467
43.3451
43.3436
43.342
43.3404
43.3389
43.3373
43.3358
43.3342
43.3326
43.3311
43.3295
43.328
43.3264
43.3248
43.3233
43.3217
43.3202
43.3186
43.317
43.3155
43.3139
43.3124
43.3108
43.3093
43.3077
43.3061
43.3046
43.303
43.3015
43.2999
43.2984
43.2968
43.2952
43.2937
43.2921
43.2906
43.289
43.2875
43.2859
43.2843
43.2828
43.2812
43.2797
43.2781
43.2766
43.275
43.2735
43.2719
43.2703
43.2688
43.2672
43.2657
43.2641
43.2626
43.261
43.2595
43.2579
43.2563
43.2548
43.2532
43.2517
43.2501
43.2486
43.247
43.2455
43.2439
43.2424
43.2408
43.2392
43.2377
43.2361
43.2346
43.233
43.2315
43.2299
43.2284
43.2268
43.2253
43.2237
43.2222
43.2206
43.219
43.2175
43.2159
43.2144
43.2128
43.2113
43.2097
43.2082
43.2066
43.2051
43.2035
43.202
43.2004
43.1989
43.1973
43.1958
43.1942
43.1927
43.1911
43.1896
43.188
43.1864
43.1849
43.1833
43.1818
43.1802
43.1787
43.1771
43.1756
43.174
43.1725
43.1709
43.1694
43.1678
43.1663
43.1647
43.1632
43.1616
43.1601
43.1585
43.157
43.1554
43.1539
43.1523
43.1508
43.1492
43.1477
43.1461
43.1446
43.143
43.1415
43.1399
43.1384
43.1368
43.1353
43.1337
43.1322
43.1306
43.1291
43.1275
43.126
43.1244
43.1229
43.1213
43.1198
43.1182
43.1167
43.1151
43.1136
43.112
43.1105
43.1089
43.1074
43.1058
43.1043
43.1027
43.1012
43.0996
43.0981
43.0965
43.095
43.0934
43.0919
43.0903
43.0888
43.0872
43.0857
43.0841
43.0826
43.081
43.0795
43.0779
43.0764
43.0748
43.0733
43.0717
43.0702
43.0686
43.0671
43.0655
43.064
43.0624
43.0609
43.0593
43.0578
43.0562
43.0547
43.0531
43.0516
43.05
43.0485
43.0469
43.0454
43.0438
43.0423
43.0407
43.0392
43.0376
43.0361
43.0345
43.033
43.0314
43.0299
43.0284
43.0268
43.0253
43.0237
43.0222
43.0206
43.0191
43.0175
43.016
43.0144
43.0129
43.0113
43.0098
43.0082
43.0067
43.0051
43.0036
43.002
43.0005
42.9989
42.9974
42.9959
42.9943
42.9928
1
47.0757
47.0757
44.8603
44.6054
44.5452
44.5188
44.5028
44.4912
44.482
44.4741
44.4672
44.4608
44.4549
44.4494
44.4441
44.439
44.434
44.4292
44.4245
44.4198
44.4153
44.4108
44.4064
44.4021
44.3978
44.3936
44.3894
44.3853
44.3813
44.3773
44.3733
44.3694
44.3655
44.3617
44.3579
44.3541
44.3504
44.3468
44.3431
44.3395
44.336
44.3324
44.3289
44.3255
44.3221
44.3187
44.3153
44.312
44.3086
44.3054
44.3021
44.2989
44.2957
44.2925
44.2894
44.2862
44.2831
44.2801
44.277
44.274
44.271
44.268
44.265
44.262
44.2591
44.2562
44.2533
44.2504
44.2476
44.2447
44.2419
44.2391
44.2363
44.2335
44.2308
44.228
44.2253
44.2226
44.2199
44.2172
44.2146
44.2119
44.2093
44.2066
44.204
44.2014
44.1988
44.1962
44.1937
44.1911
44.1886
44.186
44.1835
44.181
44.1785
44.176
44.1736
44.1711
44.1686
44.1662
44.1638
44.1613
44.1589
44.1565
44.1541
44.1517
44.1493
44.147
44.1446
44.1423
44.1399
44.1376
44.1353
44.1329
44.1306
44.1283
44.126
44.1237
44.1215
44.1192
44.1169
44.1147
44.1124
44.1102
44.1079
44.1057
44.1035
44.1013
44.0991
44.0969
44.0947
44.0925
44.0903
44.0881
44.086
44.0838
44.0816
44.0795
44.0774
44.0752
44.0731
44.071
44.0688
44.0667
44.0646
44.0625
44.0604
44.0583
44.0562
44.0541
44.0521
44.05
44.0479
44.0459
44.0438
44.0418
44.0397
44.0377
44.0356
44.0336
44.0316
44.0296
44.0275
44.0255
44.0235
44.0215
44.0195
44.0175
44.0155
44.0135
44.0115
44.0096
44.0076
44.0056
44.0036
44.0017
43.9997
43.9978
43.9958
43.9939
43.9919
43.99
43.988
43.9861
43.9842
43.9823
43.9803
43.9784
43.9765
43.9746
43.9727
43.9708
43.9689
43.967
43.9651
43.9632
43.9613
43.9594
43.9575
43.9557
43.9538
43.9519
43.95
43.9482
43.9463
43.9445
43.9426
43.9407
43.9389
43.937
43.9352
43.9334
43.9315
43.9297
43.9278
43.926
43.9242
43.9224
43.9205
43.9187
43.9169
43.9151
43.9133
43.9114
43.9096
43.9078
43.906
43.9042
43.9024
43.9006
43.8988
43.897
43.8952
43.8935
43.8917
43.8899
43.8881
43.8863
43.8846
43.8828
43.881
43.8792
43.8775
43.8757
43.8739
43.8722
43.8704
43.8686
43.8669
43.8651
43.8634
43.8616
43.8599
43.8581
43.8564
43.8546
43.8529
43.8512
43.8494
43.8477
43.846
43.8442
43.8425
43.8408
43.839
43.8373
43.8356
43.8339
43.8321
43.8304
43.8287
43.827
43.8253
43.8236
43.8218
43.8201
43.8184
43.8167
43.815
43.8133
43.8116
43.8099
43.8082
43.8065
43.8048
43.8031
43.8014
43.7997
43.798
43.7963
43.7947
43.793
43.7913
43.7896
43.7879
43.7862
43.7845
43.7829
43.7812
43.7795
43.7778
43.7762
43.7745
43.7728
43.7711
43.7695
43.7678
43.7661
43.7645
43.7628
43.7611
43.7595
43.7578
43.7561
43.7545
43.7528
43.7511
43.7495
43.7478
43.7462
43.7445
43.7429
43.7412
43.7396
43.7379
43.7363
43.7346
43.733
43.7313
43.7297
43.728
43.7264
43.7247
43.7231
43.7214
43.7198
43.7182
43.7165
43.7149
43.7132
43.7116
43.71
43.7083
43.7067
43.7051
43.7034
43.7018
43.7002
43.6985
43.6969
43.6953
43.6936
43.692
43.6904
43.6888
43.6871
43.6855
43.6839
43.6823
43.6806
43.679
43.6774
43.6758
43.6741
43.6725
43.6709
43.6693
43.6677
43.6661
43.6644
43.6628
43.6612
43.6596
43.658
43.6564
43.6547
43.6531
43.6515
43.6499
43.6483
43.6467
43.6451
43.6435
43.6419
43.6402
43.6386
43.637
43.6354
43.6338
43.6322
43.6306
43.629
43.6274
43.6258
43.6242
43.6226
43.621
43.6194
43.6178
43.6162
43.6146
43.613
43.6114
43.6098
43.6082
43.6066
43.605
43.6034
43.6018
43.6002
43.5986
43.597
43.5954
43.5938
43.5922
43.5906
43.589
43.5874
43.5858
43.5842
43.5827
43.5811
43.5795
43.5779
43.5763
43.5747
43.5731
43.5715
43.5699
43.5683
43.5667
43.5652
43.5636
43.562
43.5604
43.5588
43.5572
43.5556
43.5541
43.5525
43.5509
43.5493
43.5477
43.5461
43.5445
43.543
43.5414
43.5398
43.5382
43.5366
43.535
43.5335
43.5319
43.5303
43.5287
43.5271
43.5256
43.524
43.5224
43.5208
43.5192
43.5177
43.5161
43.5145
43.5129
43.5113
43.5098
43.5082
43.5066
43.505
43.5035
43.5019
43.5003
43.4987
43.4971
43.4956
43.494
43.4924
43.4908
43.4893
43.4877
43.4861
43.4845
43.483
43.4814
43.4798
43.4782
43.4767
43.4751
43.4735
43.472
43.4704
43.4688
43.4672
43.4657
43.4641
43.4625
43.461
43.4594
43.4578
43.4562
43.4547
43.4531
43.4515
43.45
43.4484
43.4468
43.4452
43.4437
43.4421
43.4405
43.439
43.4374
43.4358
43.4343
43.4327
43.4311
43.4296
43.428
43.4264
43.4249
43.4233
43.4217
43.4202
43.4186
43.417
43.4155
43.4139
43.4123
43.4108
43.4092
43.4076
43.4061
43.4045
43.4029
43.4014
43.3998
43.3982
43.3967
43.3951
43.3935
43.392
43.3904
43.3889
43.3873
43.3857
43.3842
43.3826
43.381
43.3795
43.3779
43.3763
43.3748
43.3732
43.3717
43.3701
43.3685
43.367
43.3654
43.3638
43.3623
43.3607
43.3592
43.3576
43.356
43.3545
43.3529
43.3514
43.3498
43.3482
43.3467
43.3451
43.3436
43.342
43.3404
43.3389
43.3373
43.3358
43.3342
43.3326
43.3311
43.3295
43.328
43.3264
43.3248
43.3233
43.3217
43.3202
43.3186
43.317
43.3155
43.3139
43.3124
43.3108
43.3093
43.3077
43.3061
43.3046
43.303
43.3015
43.2999
43.2984
43.2968
43.2952
43.2937
43.2921
43.2906
43.289
43.2875
43.2859
43.2843
43.2828
43.2812
43.2797
43.2781
43.2766
43.275
43.2735
43.2719
43.2703
43.2688
43.2672
43.2657
43.2641
43.2626
43.261
43.2595
43.2579
43.2563
43.2548
43.2532
43.2517
43.2501
43.2486
43.247
43.2455
43.2439
43.2424
43.2408
43.2392
43.2377
43.2361
43.2346
43.233
43.2315
43.2299
43.2284
43.2268
43.2253
43.2237
43.2222
43.2206
43.219
43.2175
43.2159
43.2144
43.2128
43.2113
43.2097
43.2082
43.2066
43.2051
43.2035
43.202
43.2004
43.1989
43.1973
43.1958
43.1942
43.1927
43.1911
43.1896
43.188
43.1864
43.1849
43.1833
43.1818
43.1802
43.1787
43.1771
43.1756
43.174
43.1725
43.1709
43.1694
43.1678
43.1663
43.1647
43.1632
43.1616
43.1601
43.1585
43.157
43.1554
43.1539
43.1523
43.1508
43.1492
43.1477
43.1461
43.1446
43.143
43.1415
43.1399
43.1384
43.1368
43.1353
43.1337
43.1322
43.1306
43.1291
43.1275
43.126
43.1244
43.1229
43.1213
43.1198
43.1182
43.1167
43.1151
43.1136
43.112
43.1105
43.1089
43.1074
43.1058
43.1043
43.1027
43.1012
43.0996
43.0981
43.0965
43.095
43.0934
43.0919
43.0903
43.0888
43.0872
43.0857
43.0841
43.0826
43.081
43.0795
43.0779
43.0764
43.0748
43.0733
43.0717
43.0702
43.0686
43.0671
43.0655
43.064
43.0624
43.0609
43.0593
43.0578
43.0562
43.0547
43.0531
43.0516
43.05
43.0485
43.0469
43.0454
43.0438
43.0423
43.0407
43.0392
43.0376
43.0361
43.0345
43.033
43.0314
43.0299
43.0284
43.0268
43.0253
43.0237
43.0222
43.0206
43.0191
43.0175
43.016
43.0144
43.0129
43.0113
43.0098
43.0082
43.0067
43.0051
43.0036
43.002
43.0005
42.9989
42.9974
42.9959
42.9943
42.9928
42.9928
46.4287
46.4287
44.8707
44.6149
44.5494
44.5211
44.5042
44.4922
44.4827
44.4747
44.4676
44.4612
44.4552
44.4496
44.4443
44.4391
44.4342
44.4293
44.4246
44.4199
44.4154
44.4109
44.4065
44.4022
44.3979
44.3937
44.3895
44.3854
44.3813
44.3773
44.3734
44.3694
44.3656
44.3617
44.3579
44.3542
44.3505
44.3468
44.3432
44.3396
44.336
44.3325
44.329
44.3255
44.3221
44.3187
44.3153
44.312
44.3087
44.3054
44.3021
44.2989
44.2957
44.2925
44.2894
44.2863
44.2832
44.2801
44.277
44.274
44.271
44.268
44.265
44.2621
44.2591
44.2562
44.2533
44.2505
44.2476
44.2448
44.2419
44.2391
44.2363
44.2336
44.2308
44.2281
44.2253
44.2226
44.2199
44.2172
44.2146
44.2119
44.2093
44.2066
44.204
44.2014
44.1988
44.1962
44.1937
44.1911
44.1886
44.1861
44.1835
44.181
44.1785
44.176
44.1736
44.1711
44.1686
44.1662
44.1638
44.1613
44.1589
44.1565
44.1541
44.1517
44.1493
44.147
44.1446
44.1423
44.1399
44.1376
44.1353
44.1329
44.1306
44.1283
44.126
44.1237
44.1215
44.1192
44.1169
44.1147
44.1124
44.1102
44.108
44.1057
44.1035
44.1013
44.0991
44.0969
44.0947
44.0925
44.0903
44.0881
44.086
44.0838
44.0817
44.0795
44.0774
44.0752
44.0731
44.071
44.0688
44.0667
44.0646
44.0625
44.0604
44.0583
44.0562
44.0542
44.0521
44.05
44.0479
44.0459
44.0438
44.0418
44.0397
44.0377
44.0356
44.0336
44.0316
44.0296
44.0275
44.0255
44.0235
44.0215
44.0195
44.0175
44.0155
44.0135
44.0115
44.0096
44.0076
44.0056
44.0037
44.0017
43.9997
43.9978
43.9958
43.9939
43.9919
43.99
43.9881
43.9861
43.9842
43.9823
43.9803
43.9784
43.9765
43.9746
43.9727
43.9708
43.9689
43.967
43.9651
43.9632
43.9613
43.9594
43.9575
43.9557
43.9538
43.9519
43.9501
43.9482
43.9463
43.9445
43.9426
43.9407
43.9389
43.937
43.9352
43.9334
43.9315
43.9297
43.9278
43.926
43.9242
43.9224
43.9205
43.9187
43.9169
43.9151
43.9133
43.9114
43.9096
43.9078
43.906
43.9042
43.9024
43.9006
43.8988
43.897
43.8953
43.8935
43.8917
43.8899
43.8881
43.8863
43.8846
43.8828
43.881
43.8792
43.8775
43.8757
43.8739
43.8722
43.8704
43.8687
43.8669
43.8651
43.8634
43.8616
43.8599
43.8581
43.8564
43.8547
43.8529
43.8512
43.8494
43.8477
43.846
43.8442
43.8425
43.8408
43.839
43.8373
43.8356
43.8339
43.8321
43.8304
43.8287
43.827
43.8253
43.8236
43.8219
43.8201
43.8184
43.8167
43.815
43.8133
43.8116
43.8099
43.8082
43.8065
43.8048
43.8031
43.8014
43.7997
43.798
43.7963
43.7947
43.793
43.7913
43.7896
43.7879
43.7862
43.7845
43.7829
43.7812
43.7795
43.7778
43.7762
43.7745
43.7728
43.7711
43.7695
43.7678
43.7661
43.7645
43.7628
43.7611
43.7595
43.7578
43.7561
43.7545
43.7528
43.7512
43.7495
43.7478
43.7462
43.7445
43.7429
43.7412
43.7396
43.7379
43.7363
43.7346
43.733
43.7313
43.7297
43.728
43.7264
43.7247
43.7231
43.7214
43.7198
43.7182
43.7165
43.7149
43.7132
43.7116
43.71
43.7083
43.7067
43.7051
43.7034
43.7018
43.7002
43.6985
43.6969
43.6953
43.6936
43.692
43.6904
43.6888
43.6871
43.6855
43.6839
43.6823
43.6806
43.679
43.6774
43.6758
43.6742
43.6725
43.6709
43.6693
43.6677
43.6661
43.6644
43.6628
43.6612
43.6596
43.658
43.6564
43.6547
43.6531
43.6515
43.6499
43.6483
43.6467
43.6451
43.6435
43.6419
43.6403
43.6386
43.637
43.6354
43.6338
43.6322
43.6306
43.629
43.6274
43.6258
43.6242
43.6226
43.621
43.6194
43.6178
43.6162
43.6146
43.613
43.6114
43.6098
43.6082
43.6066
43.605
43.6034
43.6018
43.6002
43.5986
43.597
43.5954
43.5938
43.5922
43.5906
43.589
43.5874
43.5858
43.5842
43.5827
43.5811
43.5795
43.5779
43.5763
43.5747
43.5731
43.5715
43.5699
43.5683
43.5668
43.5652
43.5636
43.562
43.5604
43.5588
43.5572
43.5556
43.5541
43.5525
43.5509
43.5493
43.5477
43.5461
43.5445
43.543
43.5414
43.5398
43.5382
43.5366
43.535
43.5335
43.5319
43.5303
43.5287
43.5271
43.5256
43.524
43.5224
43.5208
43.5192
43.5177
43.5161
43.5145
43.5129
43.5113
43.5098
43.5082
43.5066
43.505
43.5035
43.5019
43.5003
43.4987
43.4971
43.4956
43.494
43.4924
43.4908
43.4893
43.4877
43.4861
43.4845
43.483
43.4814
43.4798
43.4783
43.4767
43.4751
43.4735
43.472
43.4704
43.4688
43.4672
43.4657
43.4641
43.4625
43.461
43.4594
43.4578
43.4562
43.4547
43.4531
43.4515
43.45
43.4484
43.4468
43.4453
43.4437
43.4421
43.4405
43.439
43.4374
43.4358
43.4343
43.4327
43.4311
43.4296
43.428
43.4264
43.4249
43.4233
43.4217
43.4202
43.4186
43.417
43.4155
43.4139
43.4123
43.4108
43.4092
43.4076
43.4061
43.4045
43.4029
43.4014
43.3998
43.3982
43.3967
43.3951
43.3935
43.392
43.3904
43.3889
43.3873
43.3857
43.3842
43.3826
43.381
43.3795
43.3779
43.3764
43.3748
43.3732
43.3717
43.3701
43.3685
43.367
43.3654
43.3639
43.3623
43.3607
43.3592
43.3576
43.356
43.3545
43.3529
43.3514
43.3498
43.3482
43.3467
43.3451
43.3436
43.342
43.3404
43.3389
43.3373
43.3358
43.3342
43.3326
43.3311
43.3295
43.328
43.3264
43.3248
43.3233
43.3217
43.3202
43.3186
43.3171
43.3155
43.3139
43.3124
43.3108
43.3093
43.3077
43.3061
43.3046
43.303
43.3015
43.2999
43.2984
43.2968
43.2952
43.2937
43.2921
43.2906
43.289
43.2875
43.2859
43.2843
43.2828
43.2812
43.2797
43.2781
43.2766
43.275
43.2735
43.2719
43.2703
43.2688
43.2672
43.2657
43.2641
43.2626
43.261
43.2595
43.2579
43.2563
43.2548
43.2532
43.2517
43.2501
43.2486
43.247
43.2455
43.2439
43.2424
43.2408
43.2392
43.2377
43.2361
43.2346
43.233
43.2315
43.2299
43.2284
43.2268
43.2253
43.2237
43.2222
43.2206
43.2191
43.2175
43.2159
43.2144
43.2128
43.2113
43.2097
43.2082
43.2066
43.2051
43.2035
43.202
43.2004
43.1989
43.1973
43.1958
43.1942
43.1927
43.1911
43.1896
43.188
43.1865
43.1849
43.1833
43.1818
43.1802
43.1787
43.1771
43.1756
43.174
43.1725
43.1709
43.1694
43.1678
43.1663
43.1647
43.1632
43.1616
43.1601
43.1585
43.157
43.1554
43.1539
43.1523
43.1508
43.1492
43.1477
43.1461
43.1446
43.143
43.1415
43.1399
43.1384
43.1368
43.1353
43.1337
43.1322
43.1306
43.1291
43.1275
43.126
43.1244
43.1229
43.1213
43.1198
43.1182
43.1167
43.1151
43.1136
43.112
43.1105
43.1089
43.1074
43.1058
43.1043
43.1027
43.1012
43.0996
43.0981
43.0965
43.095
43.0934
43.0919
43.0903
43.0888
43.0872
43.0857
43.0841
43.0826
43.081
43.0795
43.0779
43.0764
43.0748
43.0733
43.0717
43.0702
43.0686
43.0671
43.0655
43.064
43.0624
43.0609
43.0593
43.0578
43.0562
43.0547
43.0531
43.0516
43.05
43.0485
43.0469
43.0454
43.0438
43.0423
43.0407
43.0392
43.0376
43.0361
43.0346
43.033
43.0315
43.0299
43.0284
43.0268
43.0253
43.0237
43.0222
43.0206
43.0191
43.0175
43.016
43.0144
43.0129
43.0113
43.0098
43.0082
43.0067
43.0051
43.0036
43.002
43.0005
42.999
42.9974
42.9959
42.9943
42.9928
42.9928
45.7392
45.7392
44.8548
44.6216
44.553
44.5231
44.5055
44.4931
44.4834
44.4752
44.468
44.4615
44.4555
44.4499
44.4445
44.4393
44.4343
44.4295
44.4247
44.4201
44.4155
44.411
44.4066
44.4023
44.398
44.3938
44.3896
44.3855
44.3814
44.3774
44.3734
44.3695
44.3656
44.3618
44.358
44.3542
44.3505
44.3468
44.3432
44.3396
44.336
44.3325
44.329
44.3255
44.3221
44.3187
44.3153
44.312
44.3087
44.3054
44.3022
44.2989
44.2957
44.2926
44.2894
44.2863
44.2832
44.2801
44.277
44.274
44.271
44.268
44.265
44.2621
44.2591
44.2562
44.2533
44.2505
44.2476
44.2448
44.2419
44.2391
44.2363
44.2336
44.2308
44.2281
44.2253
44.2226
44.2199
44.2172
44.2146
44.2119
44.2093
44.2066
44.204
44.2014
44.1988
44.1963
44.1937
44.1911
44.1886
44.1861
44.1835
44.181
44.1785
44.176
44.1736
44.1711
44.1686
44.1662
44.1638
44.1613
44.1589
44.1565
44.1541
44.1517
44.1494
44.147
44.1446
44.1423
44.1399
44.1376
44.1353
44.1329
44.1306
44.1283
44.126
44.1238
44.1215
44.1192
44.1169
44.1147
44.1124
44.1102
44.108
44.1057
44.1035
44.1013
44.0991
44.0969
44.0947