# vtk DataFile Version 2.0
FlowField
ASCII
DATASET STRUCTURED_GRID
DIMENSIONS 800 1 200
POINTS 160000 float
0 0 0
0.04 0 0
0.08 0 0
0.12 0 0
0.16 0 0
0.2 0 0
0.24 0 0
0.28 0 0
0.32 0 0
0.36 0 0
0.4 0 0
0.44 0 0
0.48 0 0
0.52 0 0
0.56 0 0
0.6 0 0
0.64 0 0
0.68 0 0
0.72 0 0
0.76 0 0
0.8 0 0
0.84 0 0
0.88 0 0
0.92 0 0
0.96 0 0
1 0 0
1.04 0 0
1.08 0 0
1.12 0 0
1.16 0 0
1.2 0 0
1.24 0 0
1.28 0 0
1.32 0 0
1.36 0 0
1.4 0 0
1.44 0 0
1.48 0 0
1.52 0 0
1.56 0 0
1.6 0 0
1.64 0 0
1.68 0 0
1.72 0 0
1.76 0 0
1.8 0 0
1.84 0 0
1.88 0 0
1.92 0 0
1.96 0 0
2 0 0
2.04 0 0
2.08 0 0
2.12 0 0
2.16 0 0
2.2 0 0
2.24 0 0
2.28 0 0
2.32 0 0
2.36 0 0
2.4 0 0
2.44 0 0
2.48 0 0
2.52 0 0
2.56 0 0
2.6 0 0
2.64 0 0
2.68 0 0
2.72 0 0
2.76 0 0
2.8 0 0
2.84 0 0
2.88 0 0
2.92 0 0
2.96 0 0
3 0 0
3.04 0 0
3.08 0 0
3.12 0 0
3.16 0 0
3.2 0 0
3.24 0 0
3.28 0 0
3.32 0 0
3.36 0 0
3.4 0 0
3.44 0 0
3.48 0 0
3.52 0 0
3.56 0 0
3.6 0 0
3.64 0 0
3.68 0 0
3.72 0 0
3.76 0 0
3.8 0 0
3.84 0 0
3.88 0 0
3.92 0 0
3.96 0 0
4 0 0
4.04 0 0
4.08 0 0
4.12 0 0
4.16 0 0
4.2 0 0
4.24 0 0
4.28 0 0
4.32 0 0
4.36 0 0
4.4 0 0
4.44 0 0
4.48 0 0
4.52 0 0
4.56 0 0
4.6 0 0
4.64 0 0
4.68 0 0
4.72 0 0
4.76 0 0
4.8 0 0
4.84 0 0
4.88 0 0
4.92 0 0
4.96 0 0
5 0 0
5.04 0 0
5.08 0 0
5.12 0 0
5.16 0 0
5.2 0 0
5.24 0 0
5.28 0 0
5.32 0 0
5.36 0 0
5.4 0 0
5.44 0 0
5.48 0 0
5.52 0 0
5.56 0 0
5.6 0 0
5.64 0 0
5.68 0 0
5.72 0 0
5.76 0 0
5.8 0 0
5.84 0 0
5.88 0 0
5.92 0 0
5.96 0 0
6 0 0
6.04 0 0
6.08 0 0
6.12 0 0
6.16 0 0
6.2 0 0
6.24 0 0
6.28 0 0
6.32 0 0
6.36 0 0
6.4 0 0
6.44 0 0
6.48 0 0
6.52 0 0
6.56 0 0
6.6 0 0
6.64 0 0
6.68 0 0
6.72 0 0
6.76 0 0
6.8 0 0
6.84 0 0
6.88 0 0
6.92 0 0
6.96 0 0
7 0 0
7.04 0 0
7.08 0 0
7.12 0 0
7.16 0 0
7.2 0 0
7.24 0 0
7.28 0 0
7.32 0 0
7.36 0 0
7.4 0 0
7.44 0 0
7.48 0 0
7.52 0 0
7.56 0 0
7.6 0 0
7.64 0 0
7.68 0 0
7.72 0 0
7.76 0 0
7.8 0 0
7.84 0 0
7.88 0 0
7.92 0 0
7.96 0 0
8 0 0
8.04 0 0
8.08 0 0
8.12 0 0
8.16 0 0
8.2 0 0
8.24 0 0
8.28 0 0
8.32 0 0
8.36 0 0
8.4 0 0
8.44 0 0
8.48 0 0
8.52 0 0
8.56 0 0
8.6 0 0
8.64 0 0
8.68 0 0
8.72 0 0
8.76 0 0
8.8 0 0
8.84 0 0
8.88 0 0
8.92 0 0
8.96 0 0
9 0 0
9.04 0 0
9.08 0 0
9.12 0 0
9.16 0 0
9.2 0 0
9.24 0 0
9.28 0 0
9.32 0 0
9.36 0 0
9.4 0 0
9.44 0 0
9.48 0 0
9.52 0 0
9.56 0 0
9.6 0 0
9.64 0 0
9.68 0 0
9.72 0 0
9.76 0 0
9.8 0 0
9.84 0 0
9.88 0 0
9.92 0 0
9.96 0 0
10 0 0
10.04 0 0
10.08 0 0
10.12 0 0
10.16 0 0
10.2 0 0
10.24 0 0
10.28 0 0
10.32 0 0
10.36 0 0
10.4 0 0
10.44 0 0
10.48 0 0
10.52 0 0
10.56 0 0
10.6 0 0
10.64 0 0
10.68 0 0
10.72 0 0
10.76 0 0
10.8 0 0
10.84 0 0
10.88 0 0
10.92 0 0
10.96 0 0
11 0 0
11.04 0 0
11.08 0 0
11.12 0 0
11.16 0 0
11.2 0 0
11.24 0 0
11.28 0 0
11.32 0 0
11.36 0 0
11.4 0 0
11.44 0 0
11.48 0 0
11.52 0 0
11.56 0 0
11.6 0 0
11.64 0 0
11.68 0 0
11.72 0 0
11.76 0 0
11.8 0 0
11.84 0 0
11.88 0 0
11.92 0 0
11.96 0 0
12 0 0
12.04 0 0
12.08 0 0
12.12 0 0
12.16 0 0
12.2 0 0
12.24 0 0
12.28 0 0
12.32 0 0
12.36 0 0
12.4 0 0
12.44 0 0
12.48 0 0
12.52 0 0
12.56 0 0
12.6 0 0
12.64 0 0
12.68 0 0
12.72 0 0
12.76 0 0
12.8 0 0
12.84 0 0
12.88 0 0
12.92 0 0
12.96 0 0
13 0 0
13.04 0 0
13.08 0 0
13.12 0 0
13.16 0 0
13.2 0 0
13.24 0 0
13.28 0 0
13.32 0 0
13.36 0 0
13.4 0 0
13.44 0 0
13.48 0 0
13.52 0 0
13.56 0 0
13.6 0 0
13.64 0 0
13.68 0 0
13.72 0 0
13.76 0 0
13.8 0 0
13.84 0 0
13.88 0 0
13.92 0 0
13.96 0 0
14 0 0
14.04 0 0
14.08 0 0
14.12 0 0
14.16 0 0
14.2 0 0
14.24 0 0
14.28 0 0
14.32 0 0
14.36 0 0
14.4 0 0
14.44 0 0
14.48 0 0
14.52 0 0
14.56 0 0
14.6 0 0
14.64 0 0
14.68 0 0
14.72 0 0
14.76 0 0
14.8 0 0
14.84 0 0
14.88 0 0
14.92 0 0
14.96 0 0
15 0 0
15.04 0 0
15.08 0 0
15.12 0 0
15.16 0 0
15.2 0 0
15.24 0 0
15.28 0 0
15.32 0 0
15.36 0 0
15.4 0 0
15.44 0 0
15.48 0 0
15.52 0 0
15.56 0 0
15.6 0 0
15.64 0 0
15.68 0 0
15.72 0 0
15.76 0 0
15.8 0 0
15.84 0 0
15.88 0 0
15.92 0 0
15.96 0 0
16 0 0
16.04 0 0
16.08 0 0
16.12 0 0
16.16 0 0
16.2 0 0
16.24 0 0
16.28 0 0
16.32 0 0
16.36 0 0
16.4 0 0
16.44 0 0
16.48 0 0
16.52 0 0
16.56 0 0
16.6 0 0
16.64 0 0
16.68 0 0
16.72 0 0
16.76 0 0
16.8 0 0
16.84 0 0
16.88 0 0
16.92 0 0
16.96 0 0
17 0 0
17.04 0 0
17.08 0 0
17.12 0 0
17.16 0 0
17.2 0 0
17.24 0 0
17.28 0 0
17.32 0 0
17.36 0 0
17.4 0 0
17.44 0 0
17.48 0 0
17.52 0 0
17.56 0 0
17.6 0 0
17.64 0 0
17.68 0 0
17.72 0 0
17.76 0 0
17.8 0 0
17.84 0 0
17.88 0 0
17.92 0 0
17.96 0 0
18 0 0
18.04 0 0
18.08 0 0
18.12 0 0
18.16 0 0
18.2 0 0
18.24 0 0
18.28 0 0
18.32 0 0
18.36 0 0
18.4 0 0
18.44 0 0
18.48 0 0
18.52 0 0
18.56 0 0
18.6 0 0
18.64 0 0
18.68 0 0
18.72 0 0
18.76 0 0
18.8 0 0
18.84 0 0
18.88 0 0
18.92 0 0
18.96 0 0
19 0 0
19.04 0 0
19.08 0 0
19.12 0 0
19.16 0 0
19.2 0 0
19.24 0 0
19.28 0 0
19.32 0 0
19.36 0 0
19.4 0 0
19.44 0 0
19.48 0 0
19.52 0 0
19.56 0 0
19.6 0 0
19.64 0 0
19.68 0 0
19.72 0 0
19.76 0 0
19.8 0 0
19.84 0 0
19.88 0 0
19.92 0 0
19.96 0 0
20 0 0
20.04 0 0
20.08 0 0
20.12 0 0
20.16 0 0
20.2 0 0
20.24 0 0
20.28 0 0
20.32 0 0
20.36 0 0
20.4 0 0
20.44 0 0
20.48 0 0
20.52 0 0
20.56 0 0
20.6 0 0
20.64 0 0
20.68 0 0
20.72 0 0
20.76 0 0
20.8 0 0
20.84 0 0
20.88 0 0
20.92 0 0
20.96 0 0
21 0 0
21.04 0 0
21.08 0 0
21.12 0 0
21.16 0 0
21.2 0 0
21.24 0 0
21.28 0 0
21.32 0 0
21.36 0 0
21.4 0 0
21.44 0 0
21.48 0 0
21.52 0 0
21.56 0 0
21.6 0 0
21.64 0 0
21.68 0 0
21.72 0 0
21.76 0 0
21.8 0 0
21.84 0 0
21.88 0 0
21.92 0 0
21.96 0 0
22 0 0
22.04 0 0
22.08 0 0
22.12 0 0
22.16 0 0
22.2 0 0
22.24 0 0
22.28 0 0
22.32 0 0
22.36 0 0
22.4 0 0
22.44 0 0
22.48 0 0
22.52 0 0
22.56 0 0
22.6 0 0
22.64 0 0
22.68 0 0
22.72 0 0
22.76 0 0
22.8 0 0
22.84 0 0
22.88 0 0
22.92 0 0
22.96 0 0
23 0 0
23.04 0 0
23.08 0 0
23.12 0 0
23.16 0 0
23.2 0 0
23.24 0 0
23.28 0 0
23.32 0 0
23.36 0 0
23.4 0 0
23.44 0 0
23.48 0 0
23.52 0 0
23.56 0 0
23.6 0 0
23.64 0 0
23.68 0 0
23.72 0 0
23.76 0 0
23.8 0 0
23.84 0 0
23.88 0 0
23.92 0 0
23.96 0 0
24 0 0
24.04 0 0
24.08 0 0
24.12 0 0
24.16 0 0
24.2 0 0
24.24 0 0
24.28 0 0
24.32 0 0
24.36 0 0
24.4 0 0
24.44 0 0
24.48 0 0
24.52 0 0
24.56 0 0
24.6 0 0
24.64 0 0
24.68 0 0
24.72 0 0
24.76 0 0
24.8 0 0
24.84 0 0
24.88 0 0
24.92 0 0
24.96 0 0
25 0 0
25.04 0 0
25.08 0 0
25.12 0 0
25.16 0 0
25.2 0 0
25.24 0 0
25.28 0 0
25.32 0 0
25.36 0 0
25.4 0 0
25.44 0 0
25.48 0 0
25.52 0 0
25.56 0 0
25.6 0 0
25.64 0 0
25.68 0 0
25.72 0 0
25.76 0 0
25.8 0 0
25.84 0 0
25.88 0 0
25.92 0 0
25.96 0 0
26 0 0
26.04 0 0
26.08 0 0
26.12 0 0
26.16 0 0
26.2 0 0
26.24 0 0
26.28 0 0
26.32 0 0
26.36 0 0
26.4 0 0
26.44 0 0
26.48 0 0
26.52 0 0
26.56 0 0
26.6 0 0
26.64 0 0
26.68 0 0
26.72 0 0
26.76 0 0
26.8 0 0
26.84 0 0
26.88 0 0
26.92 0 0
26.96 0 0
27 0 0
27.04 0 0
27.08 0 0
27.12 0 0
27.16 0 0
27.2 0 0
27.24 0 0
27.28 0 0
27.32 0 0
27.36 0 0
27.4 0 0
27.44 0 0
27.48 0 0
27.52 0 0
27.56 0 0
27.6 0 0
27.64 0 0
27.68 0 0
27.72 0 0
27.76 0 0
27.8 0 0
27.84 0 0
27.88 0 0
27.92 0 0
27.96 0 0
28 0 0
28.04 0 0
28.08 0 0
28.12 0 0
28.16 0 0
28.2 0 0
28.24 0 0
28.28 0 0
28.32 0 0
28.36 0 0
28.4 0 0
28.44 0 0
28.48 0 0
28.52 0 0
28.56 0 0
28.6 0 0
28.64 0 0
28.68 0 0
28.72 0 0
28.76 0 0
28.8 0 0
28.84 0 0
28.88 0 0
28.92 0 0
28.96 0 0
29 0 0
29.04 0 0
29.08 0 0
29.12 0 0
29.16 0 0
29.2 0 0
29.24 0 0
29.28 0 0
29.32 0 0
29.36 0 0
29.4 0 0
29.44 0 0
29.48 0 0
29.52 0 0
29.56 0 0
29.6 0 0
29.64 0 0
29.68 0 0
29.72 0 0
29.76 0 0
29.8 0 0
29.84 0 0
29.88 0 0
29.92 0 0
29.96 0 0
30 0 0
30.04 0 0
30.08 0 0
30.12 0 0
30.16 0 0
30.2 0 0
30.24 0 0
30.28 0 0
30.32 0 0
30.36 0 0
30.4 0 0
30.44 0 0
30.48 0 0
30.52 0 0
30.56 0 0
30.6 0 0
30.64 0 0
30.68 0 0
30.72 0 0
30.76 0 0
30.8 0 0
30.84 0 0
30.88 0 0
30.92 0 0
30.96 0 0
31 0 0
31.04 0 0
31.08 0 0
31.12 0 0
31.16 0 0
31.2 0 0
31.24 0 0
31.28 0 0
31.32 0 0
31.36 0 0
31.4 0 0
31.44 0 0
31.48 0 0
31.52 0 0
31.56 0 0
31.6 0 0
31.64 0 0
31.68 0 0
31.72 0 0
31.76 0 0
31.8 0 0
31.84 0 0
31.88 0 0
31.92 0 0
31.96 0 0
0 0.005 0
0.04 0.005 0
0.08 0.005 0
0.12 0.005 0
0.16 0.005 0
0.2 0.005 0
0.24 0.005 0
0.28 0.005 0
0.32 0.005 0
0.36 0.005 0
0.4 0.005 0
0.44 0.005 0
0.48 0.005 0
0.52 0.005 0
0.56 0.005 0
0.6 0.005 0
0.64 0.005 0
0.68 0.005 0
0.72 0.005 0
0.76 0.005 0
0.8 0.005 0
0.84 0.005 0
0.88 0.005 0
0.92 0.005 0
0.96 0.005 0
1 0.005 0
1.04 0.005 0
1.08 0.005 0
1.12 0.005 0
1.16 0.005 0
1.2 0.005 0
1.24 0.005 0
1.28 0.005 0
1.32 0.005 0
1.36 0.005 0
1.4 0.005 0
1.44 0.005 0
1.48 0.005 0
1.52 0.005 0
1.56 0.005 0
1.6 0.005 0
1.64 0.005 0
1.68 0.005 0
1.72 0.005 0
1.76 0.005 0
1.8 0.005 0
1.84 0.005 0
1.88 0.005 0
1.92 0.005 0
1.96 0.005 0
2 0.005 0
2.04 0.005 0
2.08 0.005 0
2.12 0.005 0
2.16 0.005 0
2.2 0.005 0
2.24 0.005 0
2.28 0.005 0
2.32 0.005 0
2.36 0.005 0
2.4 0.005 0
2.44 0.005 0
2.48 0.005 0
2.52 0.005 0
2.56 0.005 0
2.6 0.005 0
2.64 0.005 0
2.68 0.005 0
2.72 0.005 0
2.76 0.005 0
2.8 0.005 0
2.84 0.005 0
2.88 0.005 0
2.92 0.005 0
2.96 0.005 0
3 0.005 0
3.04 0.005 0
3.08 0.005 0
3.12 0.005 0
3.16 0.005 0
3.2 0.005 0
3.24 0.005 0
3.28 0.005 0
3.32 0.005 0
3.36 0.005 0
3.4 0.005 0
3.44 0.005 0
3.48 0.005 0
3.52 0.005 0
3.56 0.005 0
3.6 0.005 0
3.64 0.005 0
3.68 0.005 0
3.72 0.005 0
3.76 0.005 0
3.8 0.005 0
3.84 0.005 0
3.88 0.005 0
3.92 0.005 0
3.96 0.005 0
4 0.005 0
4.04 0.005 0
4.08 0.005 0
4.12 0.005 0
4.16 0.005 0
4.2 0.005 0
4.24 0.005 0
4.28 0.005 0
4.32 0.005 0
4.36 0.005 0
4.4 0.005 0
4.44 0.005 0
4.48 0.005 0
4.52 0.005 0
4.56 0.005 0
4.6 0.005 0
4.64 0.005 0
4.68 0.005 0
4.72 0.005 0
4.76 0.005 0
4.8 0.005 0
4.84 0.005 0
4.88 0.005 0
4.92 0.005 0
4.96 0.005 0
5 0.005 0
5.04 0.005 0
5.08 0.005 0
5.12 0.005 0
5.16 0.005 0
5.2 0.005 0
5.24 0.005 0
5.28 0.005 0
5.32 0.005 0
5.36 0.005 0
5.4 0.005 0
5.44 0.005 0
5.48 0.005 0
5.52 0.005 0
5.56 0.005 0
5.6 0.005 0
5.64 0.005 0
5.68 0.005 0
5.72 0.005 0
5.76 0.005 0
5.8 0.005 0
5.84 0.005 0
5.88 0.005 0
5.92 0.005 0
5.96 0.005 0
6 0.005 0
6.04 0.005 0
6.08 0.005 0
6.12 0.005 0
6.16 0.005 0
6.2 0.005 0
6.24 0.005 0
6.28 0.005 0
6.32 0.005 0
6.36 0.005 0
6.4 0.005 0
6.44 0.005 0
6.48 0.005 0
6.52 0.005 0
6.56 0.005 0
6.6 0.005 0
6.64 0.005 0
6.68 0.005 0
6.72 0.005 0
6.76 0.005 0
6.8 0.005 0
6.84 0.005 0
6.88 0.005 0
6.92 0.005 0
6.96 0.005 0
7 0.005 0
7.04 0.005 0
7.08 0.005 0
7.12 0.005 0
7.16 0.005 0
7.2 0.005 0
7.24 0.005 0
7.28 0.005 0
7.32 0.005 0
7.36 0.005 0
7.4 0.005 0
[...]
POINT_DATA 160000

SCALARS p float 1
LOOKUP_TABLE default
1
58.6846
56.4691
56.2143
56.1541
56.1277
56.1117
56.1001
56.0908
56.083
56.076
56.0697
56.0638
56.0582
56.0529
56.0478
56.0429
56.038
56.0333
56.0287
56.0242
56.0197
56.0153
56.011
56.0067
56.0025
55.9983
55.9942
55.9901
55.9861
55.9822
55.9783
55.9744
55.9705
55.9668
55.963
55.9593
55.9556
55.952
55.9484
55.9448
55.9413
55.9378
55.9344
55.9309
55.9275
55.9242
55.9208
55.9175
55.9142
55.911
55.9078
55.9046
55.9014
55.8982
55.8951
55.892
55.8889
55.8859
55.8828
55.8798
55.8768
55.8739
55.8709
55.868
55.8651
55.8622
55.8593
55.8564
55.8536
55.8508
55.848
55.8452
55.8424
55.8397
55.8369
55.8342
55.8315
55.8288
55.8261
55.8234
55.8208
55.8181
55.8155
55.8129
55.8103
55.8077
55.8051
55.8025
55.8
55.7974
55.7949
55.7924
55.7899
55.7874
55.7849
55.7824
55.78
55.7775
55.7751
55.7726
55.7702
55.7678
55.7654
55.763
55.7606
55.7582
55.7558
55.7535
55.7511
55.7488
55.7464
55.7441
55.7418
55.7395
55.7372
55.7349
55.7326
55.7303
55.7281
55.7258
55.7235
55.7213
55.719
55.7168
55.7146
55.7124
55.7101
55.7079
55.7057
55.7035
55.7014
55.6992
55.697
55.6948
55.6927
55.6905
55.6884
55.6862
55.6841
55.682
55.6798
55.6777
55.6756
55.6735
55.6714
55.6693
55.6672
55.6651
55.663
55.6609
55.6589
55.6568
55.6547
55.6527
55.6506
55.6486
55.6465
55.6445
55.6425
55.6404
55.6384
55.6364
55.6344
55.6324
55.6304
55.6284
55.6264
55.6244
55.6224
55.6204
55.6184
55.6165
55.6145
55.6125
55.6106
55.6086
55.6066
55.6047
55.6027
55.6008
55.5989
55.5969
55.595
55.5931
55.5911
55.5892
55.5873
55.5854
55.5835
55.5816
55.5797
55.5777
55.5759
55.574
55.5721
55.5702
55.5683
55.5664
55.5645
55.5627
55.5608
55.5589
55.557
55.5552
55.5533
55.5515
55.5496
55.5478
55.5459
55.5441
55.5422
55.5404
55.5385
55.5367
55.5349
55.533
55.5312
55.5294
55.5276
55.5258
55.5239
55.5221
55.5203
55.5185
55.5167
55.5149
55.5131
55.5113
55.5095
55.5077
55.5059
55.5041
55.5023
55.5005
55.4988
55.497
55.4952
55.4934
55.4916
55.4899
55.4881
55.4863
55.4846
55.4828
55.481
55.4793
55.4775
55.4758
55.474
55.4723
55.4705
55.4688
55.467
55.4653
55.4635
55.4618
55.46
55.4583
55.4566
55.4548
55.4531
55.4514
55.4496
55.4479
55.4462
55.4445
55.4427
55.441
55.4393
55.4376
55.4359
55.4341
55.4324
55.4307
55.429
55.4273
55.4256
55.4239
55.4222
55.4205
55.4188
55.4171
55.4154
55.4137
55.412
55.4103
55.4086
55.4069
55.4052
55.4035
55.4018
55.4001
55.3985
55.3968
55.3951
55.3934
55.3917
55.3901
55.3884
55.3867
55.385
55.3833
55.3817
55.38
55.3783
55.3767
55.375
55.3733
55.3717
55.37
55.3683
55.3667
55.365
55.3633
55.3617
55.36
55.3584
55.3567
55.355
55.3534
55.3517
55.3501
55.3484
55.3468
55.3451
55.3435
55.3418
55.3402
55.3385
55.3369
55.3352
55.3336
55.332
55.3303
55.3287
55.327
55.3254
55.3238
55.3221
55.3205
55.3188
55.3172
55.3156
55.3139
55.3123
55.3107
55.309
55.3074
55.3058
55.3041
55.3025
55.3009
55.2993
55.2976
55.296
55.2944
55.2928
55.2911
55.2895
55.2879
55.2863
55.2846
55.283
55.2814
55.2798
55.2782
55.2765
55.2749
55.2733
55.2717
55.2701
55.2685
55.2668
55.2652
55.2636
55.262
55.2604
55.2588
55.2572
55.2556
55.2539
55.2523
55.2507
55.2491
55.2475
55.2459
55.2443
55.2427
55.2411
55.2395
55.2379
55.2363
55.2347
55.2331
55.2315
55.2299
55.2283
55.2267
55.225
55.2234
55.2218
55.2202
55.2186
55.2171
55.2155
55.2139
55.2123
55.2107
55.2091
55.2075
55.2059
55.2043
55.2027
55.2011
55.1995
55.1979
55.1963
55.1947
55.1931
55.1915
55.1899
55.1883
55.1868
55.1852
55.1836
55.182
55.1804
55.1788
55.1772
55.1756
55.174
55.1724
55.1709
55.1693
55.1677
55.1661
55.1645
55.1629
55.1613
55.1598
55.1582
55.1566
55.155
55.1534
55.1518
55.1502
55.1487
55.1471
55.1455
55.1439
55.1423
55.1408
55.1392
55.1376
55.136
55.1344
55.1328
55.1313
55.1297
55.1281
55.1265
55.1249
55.1234
55.1218
55.1202
55.1186
55.1171
55.1155
55.1139
55.1123
55.1107
55.1092
55.1076
55.106
55.1044
55.1029
55.1013
55.0997
55.0981
55.0966
55.095
55.0934
55.0918
55.0903
55.0887
55.0871
55.0855
55.084
55.0824
55.0808
55.0793
55.0777
55.0761
55.0745
55.073
55.0714
55.0698
55.0683
55.0667
55.0651
55.0635
55.062
55.0604
55.0588
55.0573
55.0557
55.0541
55.0526
55.051
55.0494
55.0478
55.0463
55.0447
55.0431
55.0416
55.04
55.0384
55.0369
55.0353
55.0337
55.0322
55.0306
55.029
55.0275
55.0259
55.0243
55.0228
55.0212
55.0196
55.0181
55.0165
55.0149
55.0134
55.0118
55.0102
55.0087
55.0071
55.0056
55.004
55.0024
55.0009
54.9993
54.9977
54.9962
54.9946
54.993
54.9915
54.9899
54.9884
54.9868
54.9852
54.9837
54.9821
54.9805
54.979
54.9774
54.9758
54.9743
54.9727
54.9712
54.9696
54.968
54.9665
54.9649
54.9634
54.9618
54.9602
54.9587
54.9571
54.9556
54.954
54.9524
54.9509
54.9493
54.9477
54.9462
54.9446
54.9431
54.9415
54.9399
54.9384
54.9368
54.9353
54.9337
54.9322
54.9306
54.929
54.9275
54.9259
54.9244
54.9228
54.9212
54.9197
54.9181
54.9166
54.915
54.9134
54.9119
54.9103
54.9088
54.9072
54.9057
54.9041
54.9025
54.901
54.8994
54.8979
54.8963
54.8948
54.8932
54.8916
54.8901
54.8885
54.887
54.8854
54.8839
54.8823
54.8807
54.8792
54.8776
54.8761
54.8745
54.873
54.8714
54.8699
54.8683
54.8667
54.8652
54.8636
54.8621
54.8605
54.859
54.8574
54.8559
54.8543
54.8527
54.8512
54.8496
54.8481
54.8465
54.845
54.8434
54.8419
54.8403
54.8388
54.8372
54.8356
54.8341
54.8325
54.831
54.8294
54.8279
54.8263
54.8248
54.8232
54.8217
54.8201
54.8186
54.817
54.8154
54.8139
54.8123
54.8108
54.8092
54.8077
54.8061
54.8046
54.803
54.8015
54.7999
54.7984
54.7968
54.7953
54.7937
54.7922
54.7906
54.7891
54.7875
54.7859
54.7844
54.7828
54.7813
54.7797
54.7782
54.7766
54.7751
54.7735
54.772
54.7704
54.7689
54.7673
54.7658
54.7642
54.7627
54.7611
54.7596
54.758
54.7565
54.7549
54.7534
54.7518
54.7503
54.7487
54.7472
54.7456
54.7441
54.7425
54.741
54.7394
54.7379
54.7363
54.7348
54.7332
54.7317
54.7301
54.7286
54.727
54.7255
54.7239
54.7224
54.7208
54.7193
54.7177
54.7162
54.7146
54.7131
54.7115
54.71
54.7084
54.7069
54.7053
54.7038
54.7022
54.7007
54.6991
54.6976
54.696
54.6945
54.6929
54.6914
54.6898
54.6883
54.6867
54.6852
54.6836
54.6821
54.6805
54.679
54.6774
54.6759
54.6743
54.6728
54.6712
54.6697
54.6681
54.6666
54.665
54.6635
54.6619
54.6604
54.6588
54.6573
54.6557
54.6542
54.6526
54.6511
54.6495
54.648
54.6465
54.6449
54.6434
54.6418
54.6403
54.6387
54.6372
54.6356
54.6341
54.6325
54.631
54.6294
54.6279
54.6263
54.6248
54.6232
54.6217
54.6201
54.6186
54.6171
54.6155
54.614
54.6124
54.6109
54.6093
54.6078
54.6062
54.6047
54.6031
54.6016
1
58.6846
58.6846
56.4691
56.2143
56.1541
56.1277
56.1117
56.1001
56.0908
56.083
56.076
56.0697
56.0638
56.0582
56.0529
56.0478
56.0429
56.038
56.0333
56.0287
56.0242
56.0197
56.0153
56.011
56.0067
56.0025
55.9983
55.9942
55.9901
55.9861
55.9822
55.9783
55.9744
55.9705
55.9668
55.963
55.9593
55.9556
55.952
55.9484
55.9448
55.9413
55.9378
55.9344
55.9309
55.9275
55.9242
55.9208
55.9175
55.9142
55.911
55.9078
55.9046
55.9014
55.8982
55.8951
55.892
55.8889
55.8859
55.8828
55.8798
55.8768
55.8739
55.8709
55.868
55.8651
55.8622
55.8593
55.8564
55.8536
55.8508
55.848
55.8452
55.8424
55.8397
55.8369
55.8342
55.8315
55.8288
55.8261
55.8234
55.8208
55.8181
55.8155
55.8129
55.8103
55.8077
55.8051
55.8025
55.8
55.7974
55.7949
55.7924
55.7899
55.7874
55.7849
55.7824
55.78
55.7775
55.7751
55.7726
55.7702
55.7678
55.7654
55.763
55.7606
55.7582
55.7558
55.7535
55.7511
55.7488
55.7464
55.7441
55.7418
55.7395
55.7372
55.7349
55.7326
55.7303
55.7281
55.7258
55.7235
55.7213
55.719
55.7168
55.7146
55.7124
55.7101
55.7079
55.7057
55.7035
55.7014
55.6992
55.697
55.6948
55.6927
55.6905
55.6884
55.6862
55.6841
55.682
55.6798
55.6777
55.6756
55.6735
55.6714
55.6693
55.6672
55.6651
55.663
55.6609
55.6589
55.6568
55.6547
55.6527
55.6506
55.6486
55.6465
55.6445
55.6425
55.6404
55.6384
55.6364
55.6344
55.6324
55.6304
55.6284
55.6264
55.6244
55.6224
55.6204
55.6184
55.6165
55.6145
55.6125
55.6106
55.6086
55.6066
55.6047
55.6027
55.6008
55.5989
55.5969
55.595
55.5931
55.5911
55.5892
55.5873
55.5854
55.5835
55.5816
55.5797
55.5777
55.5759
55.574
55.5721
55.5702
55.5683
55.5664
55.5645
55.5627
55.5608
55.5589
55.557
55.5552
55.5533
55.5515
55.5496
55.5478
55.5459
55.5441
55.5422
55.5404
55.5385
55.5367
55.5349
55.533
55.5312
55.5294
55.5276
55.5258
55.5239
55.5221
55.5203
55.5185
55.5167
55.5149
55.5131
55.5113
55.5095
55.5077
55.5059
55.5041
55.5023
55.5005
55.4988
55.497
55.4952
55.4934
55.4916
55.4899
55.4881
55.4863
55.4846
55.4828
55.481
55.4793
55.4775
55.4758
55.474
55.4723
55.4705
55.4688
55.467
55.4653
55.4635
55.4618
55.46
55.4583
55.4566
55.4548
55.4531
55.4514
55.4496
55.4479
55.4462
55.4445
55.4427
55.441
55.4393
55.4376
55.4359
55.4341
55.4324
55.4307
55.429
55.4273
55.4256
55.4239
55.4222
55.4205
55.4188
55.4171
55.4154
55.4137
55.412
55.4103
55.4086
55.4069
55.4052
55.4035
55.4018
55.4001
55.3985
55.3968
55.3951
55.3934
55.3917
55.3901
55.3884
55.3867
55.385
55.3833
55.3817
55.38
55.3783
55.3767
55.375
55.3733
55.3717
55.37
55.3683
55.3667
55.365
55.3633
55.3617
55.36
55.3584
55.3567
55.355
55.3534
55.3517
55.3501
55.3484
55.3468
55.3451
55.3435
55.3418
55.3402
55.3385
55.3369
55.3352
55.3336
55.332
55.3303
55.3287
55.327
55.3254
55.3238
55.3221
55.3205
55.3188
55.3172
55.3156
55.3139
55.3123
55.3107
55.309
55.3074
55.3058
55.3041
55.3025
55.3009
55.2993
55.2976
55.296
55.2944
55.2928
55.2911
55.2895
55.2879
55.2863
55.2846
55.283
55.2814
55.2798
55.2782
55.2765
55.2749
55.2733
55.2717
55.2701
55.2685
55.2668
55.2652
55.2636
55.262
55.2604
55.2588
55.2572
55.2556
55.2539
55.2523
55.2507
55.2491
55.2475
55.2459
55.2443
55.2427
55.2411
55.2395
55.2379
55.2363
55.2347
55.2331
55.2315
55.2299
55.2283
55.2267
55.225
55.2234
55.2218
55.2202
55.2186
55.2171
55.2155
55.2139
55.2123
55.2107
55.2091
55.2075
55.2059
55.2043
55.2027
55.2011
55.1995
55.1979
55.1963
55.1947
55.1931
55.1915
55.1899
55.1883
55.1868
55.1852
55.1836
55.182
55.1804
55.1788
55.1772
55.1756
55.174
55.1724
55.1709
55.1693
55.1677
55.1661
55.1645
55.1629
55.1613
55.1598
55.1582
55.1566
55.155
55.1534
55.1518
55.1502
55.1487
55.1471
55.1455
55.1439
55.1423
55.1408
55.1392
55.1376
55.136
55.1344
55.1328
55.1313
55.1297
55.1281
55.1265
55.1249
55.1234
55.1218
55.1202
55.1186
55.1171
55.1155
55.1139
55.1123
55.1107
55.1092
55.1076
55.106
55.1044
55.1029
55.1013
55.0997
55.0981
55.0966
55.095
55.0934
55.0918
55.0903
55.0887
55.0871
55.0855
55.084
55.0824
55.0808
55.0793
55.0777
55.0761
55.0745
55.073
55.0714
55.0698
55.0683
55.0667
55.0651
55.0635
55.062
55.0604
55.0588
55.0573
55.0557
55.0541
55.0526
55.051
55.0494
55.0478
55.0463
55.0447
55.0431
55.0416
55.04
55.0384
55.0369
55.0353
55.0337
55.0322
55.0306
55.029
55.0275
55.0259
55.0243
55.0228
55.0212
55.0196
55.0181
55.0165
55.0149
55.0134
55.0118
55.0102
55.0087
55.0071
55.0056
55.004
55.0024
55.0009
54.9993
54.9977
54.9962
54.9946
54.993
54.9915
54.9899
54.9884
54.9868
54.9852
54.9837
54.9821
54.9805
54.979
54.9774
54.9758
54.9743
54.9727
54.9712
54.9696
54.968
54.9665
54.9649
54.9634
54.9618
54.9602
54.9587
54.9571
54.9556
54.954
54.9524
54.9509
54.9493
54.9477
54.9462
54.9446
54.9431
54.9415
54.9399
54.9384
54.9368
54.9353
54.9337
54.9322
54.9306
54.929
54.9275
54.9259
54.9244
54.9228
54.9212
54.9197
54.9181
54.9166
54.915
54.9134
54.9119
54.9103
54.9088
54.9072
54.9057
54.9041
54.9025
54.901
54.8994
54.8979
54.8963
54.8948
54.8932
54.8916
54.8901
54.8885
54.887
54.8854
54.8839
54.8823
54.8807
54.8792
54.8776
54.8761
54.8745
54.873
54.8714
54.8699
54.8683
54.8667
54.8652
54.8636
54.8621
54.8605
54.859
54.8574
54.8559
54.8543
54.8527
54.8512
54.8496
54.8481
54.8465
54.845
54.8434
54.8419
54.8403
54.8388
54.8372
54.8356
54.8341
54.8325
54.831
54.8294
54.8279
54.8263
54.8248
54.8232
54.8217
54.8201
54.8186
54.817
54.8154
54.8139
54.8123
54.8108
54.8092
54.8077
54.8061
54.8046
54.803
54.8015
54.7999
54.7984
54.7968
54.7953
54.7937
54.7922
54.7906
54.7891
54.7875
54.7859
54.7844
54.7828
54.7813
54.7797
54.7782
54.7766
54.7751
54.7735
54.772
54.7704
54.7689
54.7673
54.7658
54.7642
54.7627
54.7611
54.7596
54.758
54.7565
54.7549
54.7534
54.7518
54.7503
54.7487
54.7472
54.7456
54.7441
54.7425
54.741
54.7394
54.7379
54.7363
54.7348
54.7332
54.7317
54.7301
54.7286
54.727
54.7255
54.7239
54.7224
54.7208
54.7193
54.7177
54.7162
54.7146
54.7131
54.7115
54.71
54.7084
54.7069
54.7053
54.7038
54.7022
54.7007
54.6991
54.6976
54.696
54.6945
54.6929
54.6914
54.6898
54.6883
54.6867
54.6852
54.6836
54.6821
54.6805
54.679
54.6774
54.6759
54.6743
54.6728
54.6712
54.6697
54.6681
54.6666
54.665
54.6635
54.6619
54.6604
54.6588
54.6573
54.6557
54.6542
54.6526
54.6511
54.6495
54.648
54.6465
54.6449
54.6434
54.6418
54.6403
54.6387
54.6372
54.6356
54.6341
54.6325
54.631
54.6294
54.6279
54.6263
54.6248
54.6232
54.6217
54.6201
54.6186
54.6171
54.6155
54.614
54.6124
54.6109
54.6093
54.6078
54.6062
54.6047
54.6031
54.6016
54.6016
58.0376
58.0376
56.4795
56.2238
56.1583
56.1299
56.1131
56.101
56.0915
56.0835
56.0765
56.0701
56.0641
56.0585
56.0532
56.048
56.043
56.0382
56.0335
56.0288
56.0243
56.0198
56.0154
56.0111
56.0068
56.0026
55.9984
55.9943
55.9902
55.9862
55.9822
55.9783
55.9744
55.9706
55.9668
55.963
55.9593
55.9557
55.952
55.9484
55.9449
55.9413
55.9378
55.9344
55.931
55.9276
55.9242
55.9209
55.9175
55.9143
55.911
55.9078
55.9046
55.9014
55.8983
55.8951
55.892
55.889
55.8859
55.8829
55.8799
55.8769
55.8739
55.8709
55.868
55.8651
55.8622
55.8593
55.8565
55.8536
55.8508
55.848
55.8452
55.8424
55.8397
55.8369
55.8342
55.8315
55.8288
55.8261
55.8234
55.8208
55.8181
55.8155
55.8129
55.8103
55.8077
55.8051
55.8026
55.8
55.7975
55.7949
55.7924
55.7899
55.7874
55.7849
55.7824
55.78
55.7775
55.7751
55.7726
55.7702
55.7678
55.7654
55.763
55.7606
55.7582
55.7558
55.7535
55.7511
55.7488
55.7465
55.7441
55.7418
55.7395
55.7372
55.7349
55.7326
55.7303
55.7281
55.7258
55.7235
55.7213
55.7191
55.7168
55.7146
55.7124
55.7102
55.7079
55.7057
55.7036
55.7014
55.6992
55.697
55.6948
55.6927
55.6905
55.6884
55.6862
55.6841
55.682
55.6798
55.6777
55.6756
55.6735
55.6714
55.6693
55.6672
55.6651
55.663
55.6609
55.6589
55.6568
55.6547
55.6527
55.6506
55.6486
55.6465
55.6445
55.6425
55.6405
55.6384
55.6364
55.6344
55.6324
55.6304
55.6284
55.6264
55.6244
55.6224
55.6204
55.6184
55.6165
55.6145
55.6125
55.6106
55.6086
55.6066
55.6047
55.6027
55.6008
55.5989
55.5969
55.595
55.5931
55.5911
55.5892
55.5873
55.5854
55.5835
55.5816
55.5797
55.5778
55.5759
55.574
55.5721
55.5702
55.5683
55.5664
55.5645
55.5627
55.5608
55.5589
55.5571
55.5552
55.5533
55.5515
55.5496
55.5478
55.5459
55.5441
55.5422
55.5404
55.5386
55.5367
55.5349
55.5331
55.5312
55.5294
55.5276
55.5258
55.5239
55.5221
55.5203
55.5185
55.5167
55.5149
55.5131
55.5113
55.5095
55.5077
55.5059
55.5041
55.5023
55.5005
55.4988
55.497
55.4952
55.4934
55.4916
55.4899
55.4881
55.4863
55.4846
55.4828
55.481
55.4793
55.4775
55.4758
55.474
55.4723
55.4705
55.4688
55.467
55.4653
55.4635
55.4618
55.46
55.4583
55.4566
55.4548
55.4531
55.4514
55.4496
55.4479
55.4462
55.4445
55.4427
55.441
55.4393
55.4376
55.4359
55.4341
55.4324
55.4307
55.429
55.4273
55.4256
55.4239
55.4222
55.4205
55.4188
55.4171
55.4154
55.4137
55.412
55.4103
55.4086
55.4069
55.4052
55.4035
55.4018
55.4002
55.3985
55.3968
55.3951
55.3934
55.3917
55.3901
55.3884
55.3867
55.385
55.3834
55.3817
55.38
55.3783
55.3767
55.375
55.3733
55.3717
55.37
55.3683
55.3667
55.365
55.3633
55.3617
55.36
55.3584
55.3567
55.3551
55.3534
55.3517
55.3501
55.3484
55.3468
55.3451
55.3435
55.3418
55.3402
55.3385
55.3369
55.3352
55.3336
55.332
55.3303
55.3287
55.327
55.3254
55.3238
55.3221
55.3205
55.3188
55.3172
55.3156
55.3139
55.3123
55.3107
55.309
55.3074
55.3058
55.3041
55.3025
55.3009
55.2993
55.2976
55.296
55.2944
55.2928
55.2911
55.2895
55.2879
55.2863
55.2846
55.283
55.2814
55.2798
55.2782
55.2765
55.2749
55.2733
55.2717
55.2701
55.2685
55.2668
55.2652
55.2636
55.262
55.2604
55.2588
55.2572
55.2556
55.2539
55.2523
55.2507
55.2491
55.2475
55.2459
55.2443
55.2427
55.2411
55.2395
55.2379
55.2363
55.2347
55.2331
55.2315
55.2299
55.2283
55.2267
55.2251
55.2235
55.2219
55.2203
55.2187
55.2171
55.2155
55.2139
55.2123
55.2107
55.2091
55.2075
55.2059
55.2043
55.2027
55.2011
55.1995
55.1979
55.1963
55.1947
55.1931
55.1915
55.1899
55.1883
55.1868
55.1852
55.1836
55.182
55.1804
55.1788
55.1772
55.1756
55.174
55.1724
55.1709
55.1693
55.1677
55.1661
55.1645
55.1629
55.1613
55.1598
55.1582
55.1566
55.155
55.1534
55.1518
55.1503
55.1487
55.1471
55.1455
55.1439
55.1423
55.1408
55.1392
55.1376
55.136
55.1344
55.1329
55.1313
55.1297
55.1281
55.1265
55.125
55.1234
55.1218
55.1202
55.1186
55.1171
55.1155
55.1139
55.1123
55.1108
55.1092
55.1076
55.106
55.1044
55.1029
55.1013
55.0997
55.0981
55.0966
55.095
55.0934
55.0918
55.0903
55.0887
55.0871
55.0856
55.084
55.0824
55.0808
55.0793
55.0777
55.0761
55.0745
55.073
55.0714
55.0698
55.0683
55.0667
55.0651
55.0635
55.062
55.0604
55.0588
55.0573
55.0557
55.0541
55.0526
55.051
55.0494
55.0479
55.0463
55.0447
55.0431
55.0416
55.04
55.0384
55.0369
55.0353
55.0337
55.0322
55.0306
55.029
55.0275
55.0259
55.0243
55.0228
55.0212
55.0196
55.0181
55.0165
55.0149
55.0134
55.0118
55.0103
55.0087
55.0071
55.0056
55.004
55.0024
55.0009
54.9993
54.9977
54.9962
54.9946
54.993
54.9915
54.9899
54.9884
54.9868
54.9852
54.9837
54.9821
54.9805
54.979
54.9774
54.9759
54.9743
54.9727
54.9712
54.9696
54.968
54.9665
54.9649
54.9634
54.9618
54.9602
54.9587
54.9571
54.9556
54.954
54.9524
54.9509
54.9493
54.9478
54.9462
54.9446
54.9431
54.9415
54.94
54.9384
54.9368
54.9353
54.9337
54.9322
54.9306
54.929
54.9275
54.9259
54.9244
54.9228
54.9212
54.9197
54.9181
54.9166
54.915
54.9135
54.9119
54.9103
54.9088
54.9072
54.9057
54.9041
54.9025
54.901
54.8994
54.8979
54.8963
54.8948
54.8932
54.8916
54.8901
54.8885
54.887
54.8854
54.8839
54.8823
54.8808
54.8792
54.8776
54.8761
54.8745
54.873
54.8714
54.8699
54.8683
54.8668
54.8652
54.8636
54.8621
54.8605
54.859
54.8574
54.8559
54.8543
54.8528
54.8512
54.8496
54.8481
54.8465
54.845
54.8434
54.8419
54.8403
54.8388
54.8372
54.8357
54.8341
54.8325
54.831
54.8294
54.8279
54.8263
54.8248
54.8232
54.8217
54.8201
54.8186
54.817
54.8155
54.8139
54.8123
54.8108
54.8092
54.8077
54.8061
54.8046
54.803
54.8015
54.7999
54.7984
54.7968
54.7953
54.7937
54.7922
54.7906
54.7891
54.7875
54.786
54.7844
54.7828
54.7813
54.7797
54.7782
54.7766
54.7751
54.7735
54.772
54.7704
54.7689
54.7673
54.7658
54.7642
54.7627
54.7611
54.7596
54.758
54.7565
54.7549
54.7534
54.7518
54.7503
54.7487
54.7472
54.7456
54.7441
54.7425
54.741
54.7394
54.7379
54.7363
54.7348
54.7332
54.7317
54.7301
54.7286
54.727
54.7255
54.7239
54.7224
54.7208
54.7193
54.7177
54.7162
54.7146
54.7131
54.7115
54.71
54.7084
54.7069
54.7053
54.7038
54.7022
54.7007
54.6991
54.6976
54.696
54.6945
54.6929
54.6914
54.6898
54.6883
54.6867
54.6852
54.6836
54.6821
54.6805
54.679
54.6774
54.6759
54.6743
54.6728
54.6712
54.6697
54.6681
54.6666
54.665
54.6635
54.6619
54.6604
54.6588
54.6573
54.6557
54.6542
54.6526
54.6511
54.6496
54.648
54.6465
54.6449
54.6434
54.6418
54.6403
54.6387
54.6372
54.6356
54.6341
54.6325
54.631
54.6294
54.6279
54.6263
54.6248
54.6232
54.6217
54.6202
54.6186
54.6171
54.6155
54.614
54.6124
54.6109
54.6093
54.6078
54.6062
54.6047
54.6031
54.6016
54.6016
57.3481
57.3481
56.4637
56.2305
56.1619
56.132
56.1144
56.102
56.0922
56.0841
56.0769
56.0704
56.0644
56.0588
56.0534
56.0482
56.0432
56.0383
56.0336
56.0289
56.0244
56.0199
56.0155
56.0111
56.0068
56.0026
55.9985
55.9943
55.9903
55.9862
55.9823
55.9783
55.9745
55.9706
55.9668
55.9631
55.9594
55.9557
55.9521
55.9485
55.9449
55.9414
55.9379
55.9344
55.931
55.9276
55.9242
55.9209
55.9176
55.9143
55.911
55.9078
55.9046
55.9014
55.8983
55.8952
55.8921
55.889
55.8859
55.8829
55.8799
55.8769
55.8739
55.871
55.868
55.8651
55.8622
55.8593
55.8565
55.8536
55.8508
55.848
55.8452
55.8424
55.8397
55.8369
55.8342
55.8315
55.8288
55.8261
55.8234
55.8208
55.8181
55.8155
55.8129
55.8103
55.8077
55.8051
55.8026
55.8
55.7975
55.7949
55.7924
55.7899
55.7874
55.7849
55.7824
55.78
55.7775
55.7751
55.7726
55.7702
55.7678
55.7654
55.763
55.7606
55.7582
55.7559
55.7535
55.7511
55.7488
55.7465
55.7441
55.7418
55.7395
55.7372
55.7349
55.7326
55.7303
55.7281
55.7258
55.7236
55.7213
55.7191
55.7168
55.7146
55.7124
55.7102
55.708