# vtk DataFile Version 2.0
FlowField
ASCII
DATASET STRUCTURED_GRID
DIMENSIONS 800 1 200
POINTS 160000 float
0 0 0
0.04 0 0
0.08 0 0
0.12 0 0
0.16 0 0
0.2 0 0
0.24 0 0
0.28 0 0
0.32 0 0
0.36 0 0
0.4 0 0
0.44 0 0
0.48 0 0
0.52 0 0
0.56 0 0
0.6 0 0
0.64 0 0
0.68 0 0
0.72 0 0
0.76 0 0
0.8 0 0
0.84 0 0
0.88 0 0
0.92 0 0
0.96 0 0
1 0 0
1.04 0 0
1.08 0 0
1.12 0 0
1.16 0 0
1.2 0 0
1.24 0 0
1.28 0 0
1.32 0 0
1.36 0 0
1.4 0 0
1.44 0 0
1.48 0 0
1.52 0 0
1.56 0 0
1.6 0 0
1.64 0 0
1.68 0 0
1.72 0 0
1.76 0 0
1.8 0 0
1.84 0 0
1.88 0 0
1.92 0 0
1.96 0 0
2 0 0
2.04 0 0
2.08 0 0
2.12 0 0
2.16 0 0
2.2 0 0
2.24 0 0
2.28 0 0
2.32 0 0
2.36 0 0
2.4 0 0
2.44 0 0
2.48 0 0
2.52 0 0
2.56 0 0
2.6 0 0
2.64 0 0
2.68 0 0
2.72 0 0
2.76 0 0
2.8 0 0
2.84 0 0
2.88 0 0
2.92 0 0
2.96 0 0
3 0 0
3.04 0 0
3.08 0 0
3.12 0 0
3.16 0 0
3.2 0 0
3.24 0 0
3.28 0 0
3.32 0 0
3.36 0 0
3.4 0 0
3.44 0 0
3.48 0 0
3.52 0 0
3.56 0 0
3.6 0 0
3.64 0 0
3.68 0 0
3.72 0 0
3.76 0 0
3.8 0 0
3.84 0 0
3.88 0 0
3.92 0 0
3.96 0 0
4 0 0
4.04 0 0
4.08 0 0
4.12 0 0
4.16 0 0
4.2 0 0
4.24 0 0
4.28 0 0
4.32 0 0
4.36 0 0
4.4 0 0
4.44 0 0
4.48 0 0
4.52 0 0
4.56 0 0
4.6 0 0
4.64 0 0
4.68 0 0
4.72 0 0
4.76 0 0
4.8 0 0
4.84 0 0
4.88 0 0
4.92 0 0
4.96 0 0
5 0 0
5.04 0 0
5.08 0 0
5.12 0 0
5.16 0 0
5.2 0 0
5.24 0 0
5.28 0 0
5.32 0 0
5.36 0 0
5.4 0 0
5.44 0 0
5.48 0 0
5.52 0 0
5.56 0 0
5.6 0 0
5.64 0 0
5.68 0 0
5.72 0 0
5.76 0 0
5.8 0 0
5.84 0 0
5.88 0 0
5.92 0 0
5.96 0 0
6 0 0
6.04 0 0
6.08 0 0
6.12 0 0
6.16 0 0
6.2 0 0
6.24 0 0
6.28 0 0
6.32 0 0
6.36 0 0
6.4 0 0
6.44 0 0
6.48 0 0
6.52 0 0
6.56 0 0
6.6 0 0
6.64 0 0
6.68 0 0
6.72 0 0
6.76 0 0
6.8 0 0
6.84 0 0
6.88 0 0
6.92 0 0
6.96 0 0
7 0 0
7.04 0 0
7.08 0 0
7.12 0 0
7.16 0 0
7.2 0 0
7.24 0 0
7.28 0 0
7.32 0 0
7.36 0 0
7.4 0 0
7.44 0 0
7.48 0 0
7.52 0 0
7.56 0 0
7.6 0 0
7.64 0 0
7.68 0 0
7.72 0 0
7.76 0 0
7.8 0 0
7.84 0 0
7.88 0 0
7.92 0 0
7.96 0 0
8 0 0
8.04 0 0
8.08 0 0
8.12 0 0
8.16 0 0
8.2 0 0
8.24 0 0
8.28 0 0
8.32 0 0
8.36 0 0
8.4 0 0
8.44 0 0
8.48 0 0
8.52 0 0
8.56 0 0
8.6 0 0
8.64 0 0
8.68 0 0
8.72 0 0
8.76 0 0
8.8 0 0
8.84 0 0
8.88 0 0
8.92 0 0
8.96 0 0
9 0 0
9.04 0 0
9.08 0 0
9.12 0 0
9.16 0 0
9.2 0 0
9.24 0 0
9.28 0 0
9.32 0 0
9.36 0 0
9.4 0 0
9.44 0 0
9.48 0 0
9.52 0 0
9.56 0 0
9.6 0 0
9.64 0 0
9.68 0 0
9.72 0 0
9.76 0 0
9.8 0 0
9.84 0 0
9.88 0 0
9.92 0 0
9.96 0 0
10 0 0
10.04 0 0
10.08 0 0
10.12 0 0
10.16 0 0
10.2 0 0
10.24 0 0
10.28 0 0
10.32 0 0
10.36 0 0
10.4 0 0
10.44 0 0
10.48 0 0
10.52 0 0
10.56 0 0
10.6 0 0
10.64 0 0
10.68 0 0
10.72 0 0
10.76 0 0
10.8 0 0
10.84 0 0
10.88 0 0
10.92 0 0
10.96 0 0
11 0 0
11.04 0 0
11.08 0 0
11.12 0 0
11.16 0 0
11.2 0 0
11.24 0 0
11.28 0 0
11.32 0 0
11.36 0 0
11.4 0 0
11.44 0 0
11.48 0 0
11.52 0 0
11.56 0 0
11.6 0 0
11.64 0 0
11.68 0 0
11.72 0 0
11.76 0 0
11.8 0 0
11.84 0 0
11.88 0 0
11.92 0 0
11.96 0 0
12 0 0
12.04 0 0
12.08 0 0
12.12 0 0
12.16 0 0
12.2 0 0
12.24 0 0
12.28 0 0
12.32 0 0
12.36 0 0
12.4 0 0
12.44 0 0
12.48 0 0
12.52 0 0
12.56 0 0
12.6 0 0
12.64 0 0
12.68 0 0
12.72 0 0
12.76 0 0
12.8 0 0
12.84 0 0
12.88 0 0
12.92 0 0
12.96 0 0
13 0 0
13.04 0 0
13.08 0 0
13.12 0 0
13.16 0 0
13.2 0 0
13.24 0 0
13.28 0 0
13.32 0 0
13.36 0 0
13.4 0 0
13.44 0 0
13.48 0 0
13.52 0 0
13.56 0 0
13.6 0 0
13.64 0 0
13.68 0 0
13.72 0 0
13.76 0 0
13.8 0 0
13.84 0 0
13.88 0 0
13.92 0 0
13.96 0 0
14 0 0
14.04 0 0
14.08 0 0
14.12 0 0
14.16 0 0
14.2 0 0
14.24 0 0
14.28 0 0
14.32 0 0
14.36 0 0
14.4 0 0
14.44 0 0
14.48 0 0
14.52 0 0
14.56 0 0
14.6 0 0
14.64 0 0
14.68 0 0
14.72 0 0
14.76 0 0
14.8 0 0
14.84 0 0
14.88 0 0
14.92 0 0
14.96 0 0
15 0 0
15.04 0 0
15.08 0 0
15.12 0 0
15.16 0 0
15.2 0 0
15.24 0 0
15.28 0 0
15.32 0 0
15.36 0 0
15.4 0 0
15.44 0 0
15.48 0 0
15.52 0 0
15.56 0 0
15.6 0 0
15.64 0 0
15.68 0 0
15.72 0 0
15.76 0 0
15.8 0 0
15.84 0 0
15.88 0 0
15.92 0 0
15.96 0 0
16 0 0
16.04 0 0
16.08 0 0
16.12 0 0
16.16 0 0
16.2 0 0
16.24 0 0
16.28 0 0
16.32 0 0
16.36 0 0
16.4 0 0
16.44 0 0
16.48 0 0
16.52 0 0
16.56 0 0
16.6 0 0
16.64 0 0
16.68 0 0
16.72 0 0
16.76 0 0
16.8 0 0
16.84 0 0
16.88 0 0
16.92 0 0
16.96 0 0
17 0 0
17.04 0 0
17.08 0 0
17.12 0 0
17.16 0 0
17.2 0 0
17.24 0 0
17.28 0 0
17.32 0 0
17.36 0 0
17.4 0 0
17.44 0 0
17.48 0 0
17.52 0 0
17.56 0 0
17.6 0 0
17.64 0 0
17.68 0 0
17.72 0 0
17.76 0 0
17.8 0 0
17.84 0 0
17.88 0 0
17.92 0 0
17.96 0 0
18 0 0
18.04 0 0
18.08 0 0
18.12 0 0
18.16 0 0
18.2 0 0
18.24 0 0
18.28 0 0
18.32 0 0
18.36 0 0
18.4 0 0
18.44 0 0
18.48 0 0
18.52 0 0
18.56 0 0
18.6 0 0
18.64 0 0
18.68 0 0
18.72 0 0
18.76 0 0
18.8 0 0
18.84 0 0
18.88 0 0
18.92 0 0
18.96 0 0
19 0 0
19.04 0 0
19.08 0 0
19.12 0 0
19.16 0 0
19.2 0 0
19.24 0 0
19.28 0 0
19.32 0 0
19.36 0 0
19.4 0 0
19.44 0 0
19.48 0 0
19.52 0 0
19.56 0 0
19.6 0 0
19.64 0 0
19.68 0 0
19.72 0 0
19.76 0 0
19.8 0 0
19.84 0 0
19.88 0 0
19.92 0 0
19.96 0 0
20 0 0
20.04 0 0
20.08 0 0
20.12 0 0
20.16 0 0
20.2 0 0
20.24 0 0
20.28 0 0
20.32 0 0
20.36 0 0
20.4 0 0
20.44 0 0
20.48 0 0
20.52 0 0
20.56 0 0
20.6 0 0
20.64 0 0
20.68 0 0
20.72 0 0
20.76 0 0
20.8 0 0
20.84 0 0
20.88 0 0
20.92 0 0
20.96 0 0
21 0 0
21.04 0 0
21.08 0 0
21.12 0 0
21.16 0 0
21.2 0 0
21.24 0 0
21.28 0 0
21.32 0 0
21.36 0 0
21.4 0 0
21.44 0 0
21.48 0 0
21.52 0 0
21.56 0 0
21.6 0 0
21.64 0 0
21.68 0 0
21.72 0 0
21.76 0 0
21.8 0 0
21.84 0 0
21.88 0 0
21.92 0 0
21.96 0 0
22 0 0
22.04 0 0
22.08 0 0
22.12 0 0
22.16 0 0
22.2 0 0
22.24 0 0
22.28 0 0
22.32 0 0
22.36 0 0
22.4 0 0
22.44 0 0
22.48 0 0
22.52 0 0
22.56 0 0
22.6 0 0
22.64 0 0
22.68 0 0
22.72 0 0
22.76 0 0
22.8 0 0
22.84 0 0
22.88 0 0
22.92 0 0
22.96 0 0
23 0 0
23.04 0 0
23.08 0 0
23.12 0 0
23.16 0 0
23.2 0 0
23.24 0 0
23.28 0 0
23.32 0 0
23.36 0 0
23.4 0 0
23.44 0 0
23.48 0 0
23.52 0 0
23.56 0 0
23.6 0 0
23.64 0 0
23.68 0 0
23.72 0 0
23.76 0 0
23.8 0 0
23.84 0 0
23.88 0 0
23.92 0 0
23.96 0 0
24 0 0
24.04 0 0
24.08 0 0
24.12 0 0
24.16 0 0
24.2 0 0
24.24 0 0
24.28 0 0
24.32 0 0
24.36 0 0
24.4 0 0
24.44 0 0
24.48 0 0
24.52 0 0
24.56 0 0
24.6 0 0
24.64 0 0
24.68 0 0
24.72 0 0
24.76 0 0
24.8 0 0
24.84 0 0
24.88 0 0
24.92 0 0
24.96 0 0
25 0 0
25.04 0 0
25.08 0 0
25.12 0 0
25.16 0 0
25.2 0 0
25.24 0 0
25.28 0 0
25.32 0 0
25.36 0 0
25.4 0 0
25.44 0 0
25.48 0 0
25.52 0 0
25.56 0 0
25.6 0 0
25.64 0 0
25.68 0 0
25.72 0 0
25.76 0 0
25.8 0 0
25.84 0 0
25.88 0 0
25.92 0 0
25.96 0 0
26 0 0
26.04 0 0
26.08 0 0
26.12 0 0
26.16 0 0
26.2 0 0
26.24 0 0
26.28 0 0
26.32 0 0
26.36 0 0
26.4 0 0
26.44 0 0
26.48 0 0
26.52 0 0
26.56 0 0
26.6 0 0
26.64 0 0
26.68 0 0
26.72 0 0
26.76 0 0
26.8 0 0
26.84 0 0
26.88 0 0
26.92 0 0
26.96 0 0
27 0 0
27.04 0 0
27.08 0 0
27.12 0 0
27.16 0 0
27.2 0 0
27.24 0 0
27.28 0 0
27.32 0 0
27.36 0 0
27.4 0 0
27.44 0 0
27.48 0 0
27.52 0 0
27.56 0 0
27.6 0 0
27.64 0 0
27.68 0 0
27.72 0 0
27.76 0 0
27.8 0 0
27.84 0 0
27.88 0 0
27.92 0 0
27.96 0 0
28 0 0
28.04 0 0
28.08 0 0
28.12 0 0
28.16 0 0
28.2 0 0
28.24 0 0
28.28 0 0
28.32 0 0
28.36 0 0
28.4 0 0
28.44 0 0
28.48 0 0
28.52 0 0
28.56 0 0
28.6 0 0
28.64 0 0
28.68 0 0
28.72 0 0
28.76 0 0
28.8 0 0
28.84 0 0
28.88 0 0
28.92 0 0
28.96 0 0
29 0 0
29.04 0 0
29.08 0 0
29.12 0 0
29.16 0 0
29.2 0 0
29.24 0 0
29.28 0 0
29.32 0 0
29.36 0 0
29.4 0 0
29.44 0 0
29.48 0 0
29.52 0 0
29.56 0 0
29.6 0 0
29.64 0 0
29.68 0 0
29.72 0 0
29.76 0 0
29.8 0 0
29.84 0 0
29.88 0 0
29.92 0 0
29.96 0 0
30 0 0
30.04 0 0
30.08 0 0
30.12 0 0
30.16 0 0
30.2 0 0
30.24 0 0
30.28 0 0
30.32 0 0
30.36 0 0
30.4 0 0
30.44 0 0
30.48 0 0
30.52 0 0
30.56 0 0
30.6 0 0
30.64 0 0
30.68 0 0
30.72 0 0
30.76 0 0
30.8 0 0
30.84 0 0
30.88 0 0
30.92 0 0
30.96 0 0
31 0 0
31.04 0 0
31.08 0 0
31.12 0 0
31.16 0 0
31.2 0 0
31.24 0 0
31.28 0 0
31.32 0 0
31.36 0 0
31.4 0 0
31.44 0 0
31.48 0 0
31.52 0 0
31.56 0 0
31.6 0 0
31.64 0 0
31.68 0 0
31.72 0 0
31.76 0 0
31.8 0 0
31.84 0 0
31.88 0 0
31.92 0 0
31.96 0 0
0 0.005 0
0.04 0.005 0
0.08 0.005 0
0.12 0.005 0
0.16 0.005 0
0.2 0.005 0
0.24 0.005 0
0.28 0.005 0
0.32 0.005 0
0.36 0.005 0
0.4 0.005 0
0.44 0.005 0
0.48 0.005 0
0.52 0.005 0
0.56 0.005 0
0.6 0.005 0
0.64 0.005 0
0.68 0.005 0
0.72 0.005 0
0.76 0.005 0
0.8 0.005 0
0.84 0.005 0
0.88 0.005 0
0.92 0.005 0
0.96 0.005 0
1 0.005 0
1.04 0.005 0
1.08 0.005 0
1.12 0.005 0
1.16 0.005 0
1.2 0.005 0
1.24 0.005 0
1.28 0.005 0
1.32 0.005 0
1.36 0.005 0
1.4 0.005 0
1.44 0.005 0
1.48 0.005 0
1.52 0.005 0
1.56 0.005 0
1.6 0.005 0
1.64 0.005 0
1.68 0.005 0
1.72 0.005 0
1.76 0.005 0
1.8 0.005 0
1.84 0.005 0
1.88 0.005 0
1.92 0.005 0
1.96 0.005 0
2 0.005 0
2.04 0.005 0
2.08 0.005 0
2.12 0.005 0
2.16 0.005 0
2.2 0.005 0
2.24 0.005 0
2.28 0.005 0
2.32 0.005 0
2.36 0.005 0
2.4 0.005 0
2.44 0.005 0
2.48 0.005 0
2.52 0.005 0
2.56 0.005 0
2.6 0.005 0
2.64 0.005 0
2.68 0.005 0
2.72 0.005 0
2.76 0.005 0
2.8 0.005 0
2.84 0.005 0
2.88 0.005 0
2.92 0.005 0
2.96 0.005 0
3 0.005 0
3.04 0.005 0
3.08 0.005 0
3.12 0.005 0
3.16 0.005 0
3.2 0.005 0
3.24 0.005 0
3.28 0.005 0
3.32 0.005 0
3.36 0.005 0
3.4 0.005 0
3.44 0.005 0
3.48 0.005 0
3.52 0.005 0
3.56 0.005 0
3.6 0.005 0
3.64 0.005 0
3.68 0.005 0
3.72 0.005 0
3.76 0.005 0
3.8 0.005 0
3.84 0.005 0
3.88 0.005 0
3.92 0.005 0
3.96 0.005 0
4 0.005 0
4.04 0.005 0
4.08 0.005 0
4.12 0.005 0
4.16 0.005 0
4.2 0.005 0
4.24 0.005 0
4.28 0.005 0
4.32 0.005 0
4.36 0.005 0
4.4 0.005 0
4.44 0.005 0
4.48 0.005 0
4.52 0.005 0
4.56 0.005 0
4.6 0.005 0
4.64 0.005 0
4.68 0.005 0
4.72 0.005 0
4.76 0.005 0
4.8 0.005 0
4.84 0.005 0
4.88 0.005 0
4.92 0.005 0
4.96 0.005 0
5 0.005 0
5.04 0.005 0
5.08 0.005 0
5.12 0.005 0
5.16 0.005 0
5.2 0.005 0
5.24 0.005 0
5.28 0.005 0
5.32 0.005 0
5.36 0.005 0
5.4 0.005 0
5.44 0.005 0
5.48 0.005 0
5.52 0.005 0
5.56 0.005 0
5.6 0.005 0
5.64 0.005 0
5.68 0.005 0
5.72 0.005 0
5.76 0.005 0
5.8 0.005 0
5.84 0.005 0
5.88 0.005 0
5.92 0.005 0
5.96 0.005 0
6 0.005 0
6.04 0.005 0
6.08 0.005 0
6.12 0.005 0
6.16 0.005 0
6.2 0.005 0
6.24 0.005 0
6.28 0.005 0
6.32 0.005 0
6.36 0.005 0
6.4 0.005 0
6.44 0.005 0
6.48 0.005 0
6.52 0.005 0
6.56 0.005 0
6.6 0.005 0
6.64 0.005 0
6.68 0.005 0
6.72 0.005 0
6.76 0.005 0
6.8 0.005 0
6.84 0.005 0
6.88 0.005 0
6.92 0.005 0
6.96 0.005 0
7 0.005 0
7.04 0.005 0
7.08 0.005 0
7.12 0.005 0
7.16 0.005 0
7.2 0.005 0
7.24 0.005 0
7.28 0.005 0
7.32 0.005 0
7.36 0.005 0
7.4 0.005 0
[...]
POINT_DATA 160000

SCALARS phi float 1
LOOKUP_TABLE default
1
1
1
1
1
1
1
1
1
1
1
1
1
1
1
1
1
1
1
1
1
1
1
1
1
1
1
1
1
1
1
1
1
1
1
0.999999
0.999999
0.999999
0.999999
0.999998
0.999997
0.999997
0.999995
0.999994
0.999992
0.99999
0.999988
0.999985
0.999982
0.999978
0.999973
0.999968
0.999961
0.999954
0.999946
0.999937
0.999926
0.999914
0.999901
0.999886
0.99987
0.999852
0.999832
0.99981
0.999786
0.99976
0.999731
0.9997
0.999667
0.999631
0.999592
0.99955
0.999505
0.999457
0.999406
0.999352
0.999294
0.999232
0.999167
0.999099
0.999026
0.998949
0.998869
0.998784
0.998695
0.998602
0.998504
0.998403
0.998296
0.998185
0.998069
0.997949
0.997824
0.997694
0.997559
0.997419
0.997275
0.997125
0.99697
0.99681
0.996645
0.996475
0.9963
0.996119
0.995933
0.995742
0.995546
0.995344
0.995137
0.994925
0.994707
0.994484
0.994256
0.994022
0.993783
0.993539
0.993289
0.993034
0.992774
0.992509
0.992238
0.991962
0.99168
0.991394
0.991102
0.990805
0.990502
0.990195
0.989883
0.989565
0.989242
0.988915
0.988582
0.988244
0.987901
0.987554
0.987201
0.986844
0.986482
0.986115
0.985743
0.985367
0.984986
0.984601
0.98421
0.983816
0.983416
0.983013
0.982604
0.982192
0.981775
0.981354
0.980928
0.980499
0.980065
0.979627
0.979185
0.978739
0.978289
0.977835
0.977377
0.976915
0.97645
0.975981
0.975508
0.975031
0.97455
0.974067
0.973579
0.973088
0.972594
0.972096
0.971595
0.97109
0.970582
0.970071
0.969557
0.96904
0.968519
0.967996
0.967469
0.96694
0.966407
0.965872
0.965334
0.964793
0.964249
0.963702
0.963153
0.962601
0.962047
0.96149
0.960931
0.960369
0.959804
0.959237
0.958668
0.958097
0.957523
0.956947
0.956369
0.955789
0.955206
0.954622
0.954035
0.953446
0.952856
0.952263
0.951669
0.951073
0.950474
0.949874
0.949273
0.948669
0.948064
0.947457
0.946849
0.946239
0.945627
0.945014
0.944399
0.943783
0.943165
0.942546
0.941926
0.941304
0.940681
0.940057
0.939431
0.938805
0.938177
0.937547
0.936917
0.936285
0.935653
0.935019
0.934385
0.933749
0.933112
0.932475
0.931836
0.931197
0.930557
0.929915
0.929273
0.928631
0.927987
0.927343
0.926698
0.926052
0.925406
0.924758
0.924111
0.923462
0.922813
0.922164
0.921514
0.920863
0.920212
0.91956
0.918908
0.918256
0.917603
0.91695
0.916296
0.915642
0.914987
0.914333
0.913677
0.913022
0.912366
0.911711
0.911054
0.910398
0.909741
0.909085
0.908428
0.907771
0.907114
0.906456
0.905799
0.905141
0.904484
0.903826
0.903168
0.902511
0.901853
0.901195
0.900538
0.89988
0.899222
0.898565
0.897907
0.89725
0.896593
0.895935
0.895278
0.894621
0.893965
0.893308
0.892652
0.891995
0.891339
0.890684
0.890028
0.889373
0.888718
0.888063
0.887408
0.886754
0.8861
0.885446
0.884793
0.88414
0.883487
0.882835
0.882183
0.881531
0.88088
0.880229
0.879578
0.878928
0.878278
0.877629
0.87698
0.876331
0.875683
0.875036
0.874389
0.873742
0.873096
0.87245
0.871805
0.87116
0.870515
0.869872
0.869228
0.868586
0.867943
0.867301
0.86666
0.86602
0.865379
0.86474
0.864101
0.863462
0.862824
0.862187
0.86155
0.860914
0.860278
0.859643
0.859008
0.858374
0.857741
0.857108
0.856476
0.855844
0.855213
0.854582
0.853952
0.853323
0.852694
0.852066
0.851439
0.850812
0.850185
0.84956
0.848934
0.84831
0.847686
0.847062
0.84644
0.845817
0.845196
0.844575
0.843954
0.843334
0.842715
0.842096
0.841478
0.84086
0.840243
0.839626
0.83901
0.838394
0.837779
0.837165
0.836551
0.835937
0.835324
0.834712
0.8341
0.833489
0.832877
0.832267
0.831657
0.831047
0.830438
0.829829
0.829221
0.828613
0.828005
0.827398
0.826791
0.826185
0.825579
0.824973
0.824367
0.823762
0.823157
0.822553
0.821949
0.821345
0.820741
0.820137
0.819534
0.818931
0.818328
0.817725
0.817123
0.816521
0.815918
0.815316
0.814714
0.814112
0.81351
0.812908
0.812307
0.811705
0.811103
0.810501
0.809899
0.809298
0.808696
0.808093
0.807491
0.806889
0.806286
0.805684
0.805081
0.804478
0.803875
0.803271
0.802667
0.802063
0.801459
0.800854
0.800249
0.799644
0.799038
0.798432
0.797825
0.797218
0.79661
0.796002
0.795393
0.794784
0.794174
0.793564
0.792953
0.792341
0.791729
0.791116
0.790503
0.789888
0.789273
0.788658
0.788041
0.787423
0.786805
0.786186
0.785566
0.784945
0.784323
0.783701
0.783077
0.782452
0.781827
0.7812
0.780572
0.779943
0.779313
0.778682
0.77805
0.777417
0.776782
0.776147
0.77551
0.774871
0.774232
0.773591
0.772949
0.772306
0.771661
0.771015
0.770367
0.769719
0.769068
0.768416
0.767763
0.767108
0.766452
0.765794
0.765135
0.764474
0.763812
0.763148
0.762482
0.761815
0.761146
0.760475
0.759803
0.759129
0.758453
0.757775
0.757096
0.756415
0.755732
0.755047
0.754361
0.753672
0.752982
0.75229
0.751596
0.7509
0.750202
0.749502
0.748801
0.748097
0.747391
0.746684
0.745974
0.745262
0.744549
0.743833
0.743115
0.742395
0.741673
0.740949
0.740223
0.739495
0.738765
0.738032
0.737298
0.736561
0.735822
0.735081
0.734337
0.733592
0.732844
0.732094
0.731342
0.730588
0.729831
0.729073
0.728312
0.727548
0.726783
0.726015
0.725245
0.724473
0.723698
0.722921
0.722142
0.72136
0.720576
0.71979
0.719002
0.718211
0.717418
0.716623
0.715825
0.715025
0.714223
0.713418
0.712611
0.711802
0.71099
0.710176
0.70936
0.708541
0.70772
0.706897
0.706071
0.705243
0.704413
0.70358
0.702745
0.701908
0.701068
0.700226
0.699382
0.698535
0.697686
0.696835
0.695981
0.695125
0.694267
0.693407
0.692544
0.691679
0.690811
0.689942
0.68907
0.688195
0.687319
0.68644
0.685559
0.684676
0.68379
0.682902
0.682012
0.68112
0.680225
0.679329
0.67843
0.677528
0.676625
0.67572
0.674812
0.673902
0.67299
0.672076
0.671159
0.670241
0.66932
0.668397
0.667472
0.666545
0.665616
0.664685
0.663752
0.662817
0.661879
0.66094
0.659998
0.659055
0.658109
0.657162
0.656212
0.655261
0.654308
0.653352
0.652395
0.651435
0.650474
0.649511
0.648546
0.647579
0.64661
0.64564
0.644667
0.643693
0.642717
0.641739
0.640759
0.639777
0.638794
0.637808
0.636822
0.635833
0.634843
0.63385
0.632857
0.631861
0.630864
0.629865
0.628865
0.627863
0.626859
0.625853
0.624847
0.623838
0.622828
0.621816
0.620803
0.619789
0.618772
0.617755
0.616735
0.615715
0.614693
0.613669
0.612644
0.611618
0.61059
0.609561
0.608531
0.607499
0.606466
0.605431
0.604395
0.603358
0.60232
0.60128
0.60024
0.599197
0.598154
0.59711
0.596064
0.595017
0.593969
0.59292
0.59187
0.590818
0.589766
0.588712
0.587657
0.586602
0.585545
0.584487
0.583428
0.582369
0.581308
0.580246
0.579184
0.57812
0.577055
0.57599
0.574924
0.573857
0.572789
0.57172
0.57065
0.569579
0.568508
0.567436
0.566363
0.56529
0.564215
0.56314
0.562064
0.560988
0.559911
0.558833
0.557754
0.556675
0.555595
0.554515
0.553434
0.552352
0.55127
0.550187
0.549104
0.54802
0.546936
0.545851
0.544766
0.54368
0.542594
0.541508
0.540421
0.539333
0.538245
0.537157
0.536068
0.534979
0.53389
0.5328
0.53171
0.53062
0.529529
0.528438
0.527347
0.526256
0.525164
0.524072
0.52298
0.521888
0.520795
0.519703
0.51861
0.517517
0.516424
0.515331
0.514237
0.513144
0.51205
0.510957
0.509863
0.508769
0.507675
0.506581
0.505488
0.504394
0.5033
0.502206
0.501112
0.500018
0.498924
0.497831
0.496737
0.495644
0.494549
0.49346
0.492364
0.491315
0.490349
0.490349
1
1
1
1
1
1
1
1
1
1
1
1
1
1
1
1
1
1
1
1
1
1
1
1
1
1
1
1
1
1
1
1
1
1
1
0.999999
0.999999
0.999999
0.999999
0.999998
0.999997
0.999997
0.999995
0.999994
0.999992
0.99999
0.999988
0.999985
0.999982
0.999978
0.999973
0.999968
0.999961
0.999954
0.999946
0.999937
0.999926
0.999914
0.999901
0.999886
0.99987
0.999852
0.999832
0.99981
0.999786
0.99976
0.999731
0.9997
0.999667
0.999631
0.999592
0.99955
0.999505
0.999457
0.999406
0.999352
0.999294
0.999232
0.999167
0.999099
0.999026
0.998949
0.998869
0.998784
0.998695
0.998602
0.998504
0.998403
0.998296
0.998185
0.998069
0.997949
0.997824
0.997694
0.997559
0.997419
0.997275
0.997125
0.99697
0.99681
0.996645
0.996475
0.9963
0.996119
0.995933
0.995742
0.995546
0.995344
0.995137
0.994925
0.994707
0.994484
0.994256
0.994022
0.993783
0.993539
0.993289
0.993034
0.992774
0.992509
0.992238
0.991962
0.99168
0.991394
0.991102
0.990805
0.990502
0.990195
0.989883
0.989565
0.989242
0.988915
0.988582
0.988244
0.987901
0.987554
0.987201
0.986844
0.986482
0.986115
0.985743
0.985367
0.984986
0.984601
0.98421
0.983816
0.983416
0.983013
0.982604
0.982192
0.981775
0.981354
0.980928
0.980499
0.980065
0.979627
0.979185
0.978739
0.978289
0.977835
0.977377
0.976915
0.97645
0.975981
0.975508
0.975031
0.97455
0.974067
0.973579
0.973088
0.972594
0.972096
0.971595
0.97109
0.970582
0.970071
0.969557
0.96904
0.968519
0.967996
0.967469
0.96694
0.966407
0.965872
0.965334
0.964793
0.964249
0.963702
0.963153
0.962601
0.962047
0.96149
0.960931
0.960369
0.959804
0.959237
0.958668
0.958097
0.957523
0.956947
0.956369
0.955789
0.955206
0.954622
0.954035
0.953446
0.952856
0.952263
0.951669
0.951073
0.950474
0.949874
0.949273
0.948669
0.948064
0.947457
0.946849
0.946239
0.945627
0.945014
0.944399
0.943783
0.943165
0.942546
0.941926
0.941304
0.940681
0.940057
0.939431
0.938805
0.938177
0.937547
0.936917
0.936285
0.935653
0.935019
0.934385
0.933749
0.933112
0.932475
0.931836
0.931197
0.930557
0.929915
0.929273
0.928631
0.927987
0.927343
0.926698
0.926052
0.925406
0.924758
0.924111
0.923462
0.922813
0.922164
0.921514
0.920863
0.920212
0.91956
0.918908
0.918256
0.917603
0.91695
0.916296
0.915642
0.914987
0.914333
0.913677
0.913022
0.912366
0.911711
0.911054
0.910398
0.909741
0.909085
0.908428
0.907771
0.907114
0.906456
0.905799
0.905141
0.904484
0.903826
0.903168
0.902511
0.901853
0.901195
0.900538
0.89988
0.899222
0.898565
0.897907
0.89725
0.896593
0.895935
0.895278
0.894621
0.893965
0.893308
0.892652
0.891995
0.891339
0.890684
0.890028
0.889373
0.888718
0.888063
0.887408
0.886754
0.8861
0.885446
0.884793
0.88414
0.883487
0.882835
0.882183
0.881531
0.88088
0.880229
0.879578
0.878928
0.878278
0.877629
0.87698
0.876331
0.875683
0.875036
0.874389
0.873742
0.873096
0.87245
0.871805
0.87116
0.870515
0.869872
0.869228
0.868586
0.867943
0.867301
0.86666
0.86602
0.865379
0.86474
0.864101
0.863462
0.862824
0.862187
0.86155
0.860914
0.860278
0.859643
0.859008
0.858374
0.857741
0.857108
0.856476
0.855844
0.855213
0.854582
0.853952
0.853323
0.852694
0.852066
0.851439
0.850812
0.850185
0.84956
0.848934
0.84831
0.847686
0.847062
0.84644
0.845817
0.845196
0.844575
0.843954
0.843334
0.842715
0.842096
0.841478
0.84086
0.840243
0.839626
0.83901
0.838394
0.837779
0.837165
0.836551
0.835937
0.835324
0.834712
0.8341
0.833489
0.832877
0.832267
0.831657
0.831047
0.830438
0.829829
0.829221
0.828613
0.828005
0.827398
0.826791
0.826185
0.825579
0.824973
0.824367
0.823762
0.823157
0.822553
0.821949
0.821345
0.820741
0.820137
0.819534
0.818931
0.818328
0.817725
0.817123
0.816521
0.815918
0.815316
0.814714
0.814112
0.81351
0.812908
0.812307
0.811705
0.811103
0.810501
0.809899
0.809298
0.808696
0.808093
0.807491
0.806889
0.806286
0.805684
0.805081
0.804478
0.803875
0.803271
0.802667
0.802063
0.801459
0.800854
0.800249
0.799644
0.799038
0.798432
0.797825
0.797218
0.79661
0.796002
0.795393
0.794784
0.794174
0.793564
0.792953
0.792341
0.791729
0.791116
0.790503
0.789888
0.789273
0.788658
0.788041
0.787423
0.786805
0.786186
0.785566
0.784945
0.784323
0.783701
0.783077
0.782452
0.781827
0.7812
0.780572
0.779943
0.779313
0.778682
0.77805
0.777417
0.776782
0.776147
0.77551
0.774871
0.774232
0.773591
0.772949
0.772306
0.771661
0.771015
0.770367
0.769719
0.769068
0.768416
0.767763
0.767108
0.766452
0.765794
0.765135
0.764474
0.763812
0.763148
0.762482
0.761815
0.761146
0.760475
0.759803
0.759129
0.758453
0.757775
0.757096
0.756415
0.755732
0.755047
0.754361
0.753672
0.752982
0.75229
0.751596
0.7509
0.750202
0.749502
0.748801
0.748097
0.747391
0.746684
0.745974
0.745262
0.744549
0.743833
0.743115
0.742395
0.741673
0.740949
0.740223
0.739495
0.738765
0.738032
0.737298
0.736561
0.735822
0.735081
0.734337
0.733592
0.732844
0.732094
0.731342
0.730588
0.729831
0.729073
0.728312
0.727548
0.726783
0.726015
0.725245
0.724473
0.723698
0.722921
0.722142
0.72136
0.720576
0.71979
0.719002
0.718211
0.717418
0.716623
0.715825
0.715025
0.714223
0.713418
0.712611
0.711802
0.71099
0.710176
0.70936
0.708541
0.70772
0.706897
0.706071
0.705243
0.704413
0.70358
0.702745
0.701908
0.701068
0.700226
0.699382
0.698535
0.697686
0.696835
0.695981
0.695125
0.694267
0.693407
0.692544
0.691679
0.690811
0.689942
0.68907
0.688195
0.687319
0.68644
0.685559
0.684676
0.68379
0.682902
0.682012
0.68112
0.680225
0.679329
0.67843
0.677528
0.676625
0.67572
0.674812
0.673902
0.67299
0.672076
0.671159
0.670241
0.66932
0.668397
0.667472
0.666545
0.665616
0.664685
0.663752
0.662817
0.661879
0.66094
0.659998
0.659055
0.658109
0.657162
0.656212
0.655261
0.654308
0.653352
0.652395
0.651435
0.650474
0.649511
0.648546
0.647579
0.64661
0.64564
0.644667
0.643693
0.642717
0.641739
0.640759
0.639777
0.638794
0.637808
0.636822
0.635833
0.634843
0.63385
0.632857
0.631861
0.630864
0.629865
0.628865
0.627863
0.626859
0.625853
0.624847
0.623838
0.622828
0.621816
0.620803
0.619789
0.618772
0.617755
0.616735
0.615715
0.614693
0.613669
0.612644
0.611618
0.61059
0.609561
0.608531
0.607499
0.606466
0.605431
0.604395
0.603358
0.60232
0.60128
0.60024
0.599197
0.598154
0.59711
0.596064
0.595017
0.593969
0.59292
0.59187
0.590818
0.589766
0.588712
0.587657
0.586602
0.585545
0.584487
0.583428
0.582369
0.581308
0.580246
0.579184
0.57812
0.577055
0.57599
0.574924
0.573857
0.572789
0.57172
0.57065
0.569579
0.568508
0.567436
0.566363
0.56529
0.564215
0.56314
0.562064
0.560988
0.559911
0.558833
0.557754
0.556675
0.555595
0.554515
0.553434
0.552352
0.55127
0.550187
0.549104
0.54802
0.546936
0.545851
0.544766
0.54368
0.542594
0.541508
0.540421
0.539333
0.538245
0.537157
0.536068
0.534979
0.53389
0.5328
0.53171
0.53062
0.529529
0.528438
0.527347
0.526256
0.525164
0.524072
0.52298
0.521888
0.520795
0.519703
0.51861
0.517517
0.516424
0.515331
0.514237
0.513144
0.51205
0.510957
0.509863
0.508769
0.507675
0.506581
0.505488
0.504394
0.5033
0.502206
0.501112
0.500018
0.498924
0.497831
0.496737
0.495644
0.494549
0.49346
0.492364
0.491315
0.490349
0.490349
1
1
1
1
1
1
1
1
1
1
1
1
1
1
1
1
1
1
1
1
1
1
1
1
1
1
1
1
1
1
1
1
1
1
1
0.999999
0.999999
0.999999
0.999999
0.999998
0.999997
0.999997
0.999995
0.999994
0.999992
0.99999
0.999988
0.999985
0.999982
0.999978
0.999973
0.999968
0.999961
0.999954
0.999946
0.999937
0.999926
0.999914
0.999901
0.999886
0.99987
0.999852
0.999832
0.99981
0.999786
0.99976
0.999731
0.9997
0.999667
0.999631
0.999592
0.99955
0.999505
0.999457
0.999406
0.999352
0.999294
0.999232
0.999167
0.999098
0.999026
0.998949
0.998869
0.998784
0.998695
0.998602
0.998504
0.998402
0.998296
0.998185
0.998069
0.997949
0.997824
0.997694
0.997559
0.997419
0.997274
0.997124
0.99697
0.99681
0.996645
0.996474
0.996299
0.996118
0.995933
0.995742
0.995545
0.995343
0.995136
0.994924
0.994706
0.994483
0.994255
0.994022
0.993783
0.993538
0.993289
0.993034
0.992773
0.992508
0.992237
0.991961
0.991679
0.991393
0.991101
0.990804
0.990501
0.990194
0.989882
0.989564
0.989241
0.988914
0.988581
0.988243
0.9879
0.987553
0.9872
0.986843
0.986481
0.986114
0.985742
0.985366
0.984985
0.984599
0.984209
0.983814
0.983415
0.983011
0.982603
0.982191
0.981774
0.981353
0.980927
0.980497
0.980064
0.979626
0.979184
0.978738
0.978288
0.977834
0.977376
0.976914
0.976448
0.975979
0.975506
0.975029
0.974549
0.974065
0.973578
0.973087
0.972592
0.972094
0.971593
0.971089
0.970581
0.97007
0.969555
0.969038
0.968518
0.967994
0.967467
0.966938
0.966405
0.96587
0.965332
0.964791
0.964247
0.963701
0.963152
0.9626
0.962045
0.961488
0.960929
0.960367
0.959803
0.959236
0.958667
0.958095
0.957521
0.956946
0.956367
0.955787
0.955205
0.95462
0.954033
0.953445
0.952854
0.952262
0.951667
0.951071
0.950473
0.949873
0.949271
0.948667
0.948062
0.947455
0.946847
0.946237
0.945625
0.945012
0.944397
0.943781
0.943164
0.942545
0.941924
0.941303
0.940679
0.940055
0.93943
0.938803
0.938175
0.937545
0.936915
0.936284
0.935651
0.935017
0.934383
0.933747
0.933111
0.932473
0.931834
0.931195
0.930555
0.929914
0.929272
0.928629
0.927985
0.927341
0.926696
0.92605
0.925404
0.924757
0.924109
0.92346
0.922811
0.922162
0.921512
0.920861
0.92021
0.919559
0.918906
0.918254
0.917601
0.916948
0.916294
0.91564
0.914985
0.914331
0.913676
0.91302
0.912365
0.911709
0.911053
0.910396
0.90974
0.909083
0.908426
0.907769
0.907112
0.906454
0.905797
0.905139
0.904482
0.903824
0.903166
0.902509
0.901851
0.901193
0.900536
0.899878
0.89922
0.898563
0.897905
0.897248
0.896591
0.895934
0.895276
0.89462
0.893963
0.893306
0.89265
0.891994
0.891338
0.890682
0.890026
0.889371
0.888716
0.888061
0.887406
0.886752
0.886098
0.885444
0.884791
0.884138
0.883485
0.882833
0.882181
0.881529
0.880878
0.880227
0.879576
0.878926
0.878276
0.877627
0.876978
0.87633
0.875682
0.875034
0.874387
0.87374
0.873094
0.872448
0.871803
0.871158
0.870514
0.86987
0.869227
0.868584
0.867941
0.8673
0.866658
0.866018
0.865378
0.864738
0.864099
0.86346
0.862822
0.862185
0.861548
0.860912
0.860276
0.859641
0.859006
0.858372
0.857739
0.857106
0.856474
0.855842
0.855211
0.854581
0.853951
0.853321
0.852693
0.852065
0.851437
0.85081
0.850184
0.849558
0.848933
0.848308
0.847684
0.847061
0.846438
0.845816
0.845194
0.844573
0.843953
0.843333
0.842713
0.842094
0.841476
0.840858
0.840241
0.839625
0.839009
0.838393
0.837778
0.837164
0.83655
0.835936
0.835323
0.834711
0.834099
0.833487
0.832876
0.832266
0.831656
0.831046
0.830437
0.829828
0.82922
0.828612
0.828004
0.827397
0.82679
0.826184
0.825578
0.824972
0.824367
0.823762
0.823157
0.822552
0.821948
0.821344
0.820741
0.820137
0.819534
0.818931
0.818328
0.817726
0.817123
0.816521
0.815919
0.815317
0.814715
0.814113
0.813511
0.812909
0.812307
0.811706
0.811104
0.810502
0.809901
0.809299
0.808697
0.808095
0.807493
0.806891
0.806288
0.805686
0.805083
0.80448
0.803877
0.803273
0.80267
0.802066
0.801462
0.800857
0.800252
0.799647
0.799041
0.798435
0.797828
0.797221
0.796614
0.796006
0.795397
0.794788
0.794179
0.793568
0.792958
0.792346
0.791734
0.791121
0.790508
0.789894
0.789279
0.788663
0.788047
0.78743
0.786812
0.786193
0.785573
0.784952
0.784331
0.783708
0.783085
0.78246
0.781835
0.781208
0.780581
0.779952
0.779322
0.778691
0.778059
0.777426
0.776792
0.776157
0.77552
0.774882
0.774243
0.773602
0.77296
0.772317
0.771673
0.771027
0.77038
0.769731
0.769081
0.76843
0.767777
0.767122
0.766466
0.765809
0.76515
0.764489
0.763827
0.763163
0.762498
0.761831
0.761162
0.760492
0.75982
0.759146
0.75847
0.757793
0.757114
0.756433
0.755751
0.755066
0.75438
0.753692
0.753002
0.752311
0.751617
0.750921
0.750224
0.749524
0.748823
0.74812
0.747415
0.746707
0.745998
0.745287
0.744573
0.743858
0.743141
0.742421
0.7417
0.740976
0.74025
0.739522
0.738792
0.73806
0.737326
0.73659
0.735851
0.735111
0.734368
0.733623
0.732875
0.732126
0.731374
0.73062
0.729864
0.729106
0.728345
0.727582
0.726817
0.72605
0.72528
0.724508
0.723734
0.722958
0.722179
0.721398
0.720614
0.719829
0.719041
0.71825
0.717458
0.716663
0.715866
0.715066
0.714264
0.71346
0.712654
0.711845
0.711034
0.71022
0.709404
0.708586
0.707765
0.706943
0.706117
0.70529
0.70446
0.703628
0.702793
0.701956
0.701117
0.700276
0.699432
0.698586
0.697737
0.696886
0.696033
0.695178
0.69432
0.69346
0.692598
0.691733
0.690866
0.689997
0.689126
0.688252
0.687376
0.686498
0.685617
0.684734
0.683849
0.682962
0.682072
0.68118
0.680286
0.67939
0.678492
0.677591
0.676688
0.675783
0.674876
0.673966
0.673055
0.672141
0.671225
0.670307
0.669387
0.668465
0.667541
0.666614
0.665685
0.664755
0.663822
0.662887
0.66195
0.661011
0.660071
0.659128
0.658183
0.657236
0.656287
0.655336
0.654383
0.653428
0.652471
0.651512
0.650551
0.649589
0.648624
0.647658
0.646689
0.645719
0.644747
0.643773
0.642798
0.64182
0.640841
0.63986
0.638877
0.637892
0.636906
0.635917
0.634928
0.633936
0.632943
0.631948
0.630951
0.629953
0.628953
0.627951
0.626948
0.625943
0.624936
0.623928
0.622919
0.621908
0.620895
0.619881
0.618865
0.617848
0.616829
0.615809
0.614787
0.613764
0.61274
0.611714
0.610687
0.609658
0.608628
0.607597
0.606564
0.60553
0.604495
0.603458
0.60242
0.601381
0.60034
0.599299
0.598256
0.597212
0.596167
0.59512
0.594073
0.593024
0.591974
0.590923
0.589871
0.588818
0.587764
0.586708
0.585652
0.584595
0.583536
0.582477
0.581417
0.580355
0.579293
0.57823
0.577166
0.576101
0.575035
0.573968
0.572901
0.571832
0.570763
0.569693