# vtk DataFile Version 2.0
FlowField
ASCII
DATASET STRUCTURED_GRID
DIMENSIONS 800 1 200
POINTS 160000 float
0 0 0
0.04 0 0
0.08 0 0
0.12 0 0
0.16 0 0
0.2 0 0
0.24 0 0
0.28 0 0
0.32 0 0
0.36 0 0
0.4 0 0
0.44 0 0
0.48 0 0
0.52 0 0
0.56 0 0
0.6 0 0
0.64 0 0
0.68 0 0
0.72 0 0
0.76 0 0
0.8 0 0
0.84 0 0
0.88 0 0
0.92 0 0
0.96 0 0
1 0 0
1.04 0 0
1.08 0 0
1.12 0 0
1.16 0 0
1.2 0 0
1.24 0 0
1.28 0 0
1.32 0 0
1.36 0 0
1.4 0 0
1.44 0 0
1.48 0 0
1.52 0 0
1.56 0 0
1.6 0 0
1.64 0 0
1.68 0 0
1.72 0 0
1.76 0 0
1.8 0 0
1.84 0 0
1.88 0 0
1.92 0 0
1.96 0 0
2 0 0
2.04 0 0
2.08 0 0
2.12 0 0
2.16 0 0
2.2 0 0
2.24 0 0
2.28 0 0
2.32 0 0
2.36 0 0
2.4 0 0
2.44 0 0
2.48 0 0
2.52 0 0
2.56 0 0
2.6 0 0
2.64 0 0
2.68 0 0
2.72 0 0
2.76 0 0
2.8 0 0
2.84 0 0
2.88 0 0
2.92 0 0
2.96 0 0
3 0 0
3.04 0 0
3.08 0 0
3.12 0 0
3.16 0 0
3.2 0 0
3.24 0 0
3.28 0 0
3.32 0 0
3.36 0 0
3.4 0 0
3.44 0 0
3.48 0 0
3.52 0 0
3.56 0 0
3.6 0 0
3.64 0 0
3.68 0 0
3.72 0 0
3.76 0 0
3.8 0 0
3.84 0 0
3.88 0 0
3.92 0 0
3.96 0 0
4 0 0
4.04 0 0
4.08 0 0
4.12 0 0
4.16 0 0
4.2 0 0
4.24 0 0
4.28 0 0
4.32 0 0
4.36 0 0
4.4 0 0
4.44 0 0
4.48 0 0
4.52 0 0
4.56 0 0
4.6 0 0
4.64 0 0
4.68 0 0
4.72 0 0
4.76 0 0
4.8 0 0
4.84 0 0
4.88 0 0
4.92 0 0
4.96 0 0
5 0 0
5.04 0 0
5.08 0 0
5.12 0 0
5.16 0 0
5.2 0 0
5.24 0 0
5.28 0 0
5.32 0 0
5.36 0 0
5.4 0 0
5.44 0 0
5.48 0 0
5.52 0 0
5.56 0 0
5.6 0 0
5.64 0 0
5.68 0 0
5.72 0 0
5.76 0 0
5.8 0 0
5.84 0 0
5.88 0 0
5.92 0 0
5.96 0 0
6 0 0
6.04 0 0
6.08 0 0
6.12 0 0
6.16 0 0
6.2 0 0
6.24 0 0
6.28 0 0
6.32 0 0
6.36 0 0
6.4 0 0
6.44 0 0
6.48 0 0
6.52 0 0
6.56 0 0
6.6 0 0
6.64 0 0
6.68 0 0
6.72 0 0
6.76 0 0
6.8 0 0
6.84 0 0
6.88 0 0
6.92 0 0
6.96 0 0
7 0 0
7.04 0 0
7.08 0 0
7.12 0 0
7.16 0 0
7.2 0 0
7.24 0 0
7.28 0 0
7.32 0 0
7.36 0 0
7.4 0 0
7.44 0 0
7.48 0 0
7.52 0 0
7.56 0 0
7.6 0 0
7.64 0 0
7.68 0 0
7.72 0 0
7.76 0 0
7.8 0 0
7.84 0 0
7.88 0 0
7.92 0 0
7.96 0 0
8 0 0
8.04 0 0
8.08 0 0
8.12 0 0
8.16 0 0
8.2 0 0
8.24 0 0
8.28 0 0
8.32 0 0
8.36 0 0
8.4 0 0
8.44 0 0
8.48 0 0
8.52 0 0
8.56 0 0
8.6 0 0
8.64 0 0
8.68 0 0
8.72 0 0
8.76 0 0
8.8 0 0
8.84 0 0
8.88 0 0
8.92 0 0
8.96 0 0
9 0 0
9.04 0 0
9.08 0 0
9.12 0 0
9.16 0 0
9.2 0 0
9.24 0 0
9.28 0 0
9.32 0 0
9.36 0 0
9.4 0 0
9.44 0 0
9.48 0 0
9.52 0 0
9.56 0 0
9.6 0 0
9.64 0 0
9.68 0 0
9.72 0 0
9.76 0 0
9.8 0 0
9.84 0 0
9.88 0 0
9.92 0 0
9.96 0 0
10 0 0
10.04 0 0
10.08 0 0
10.12 0 0
10.16 0 0
10.2 0 0
10.24 0 0
10.28 0 0
10.32 0 0
10.36 0 0
10.4 0 0
10.44 0 0
10.48 0 0
10.52 0 0
10.56 0 0
10.6 0 0
10.64 0 0
10.68 0 0
10.72 0 0
10.76 0 0
10.8 0 0
10.84 0 0
10.88 0 0
10.92 0 0
10.96 0 0
11 0 0
11.04 0 0
11.08 0 0
11.12 0 0
11.16 0 0
11.2 0 0
11.24 0 0
11.28 0 0
11.32 0 0
11.36 0 0
11.4 0 0
11.44 0 0
11.48 0 0
11.52 0 0
11.56 0 0
11.6 0 0
11.64 0 0
11.68 0 0
11.72 0 0
11.76 0 0
11.8 0 0
11.84 0 0
11.88 0 0
11.92 0 0
11.96 0 0
12 0 0
12.04 0 0
12.08 0 0
12.12 0 0
12.16 0 0
12.2 0 0
12.24 0 0
12.28 0 0
12.32 0 0
12.36 0 0
12.4 0 0
12.44 0 0
12.48 0 0
12.52 0 0
12.56 0 0
12.6 0 0
12.64 0 0
12.68 0 0
12.72 0 0
12.76 0 0
12.8 0 0
12.84 0 0
12.88 0 0
12.92 0 0
12.96 0 0
13 0 0
13.04 0 0
13.08 0 0
13.12 0 0
13.16 0 0
13.2 0 0
13.24 0 0
13.28 0 0
13.32 0 0
13.36 0 0
13.4 0 0
13.44 0 0
13.48 0 0
13.52 0 0
13.56 0 0
13.6 0 0
13.64 0 0
13.68 0 0
13.72 0 0
13.76 0 0
13.8 0 0
13.84 0 0
13.88 0 0
13.92 0 0
13.96 0 0
14 0 0
14.04 0 0
14.08 0 0
14.12 0 0
14.16 0 0
14.2 0 0
14.24 0 0
14.28 0 0
14.32 0 0
14.36 0 0
14.4 0 0
14.44 0 0
14.48 0 0
14.52 0 0
14.56 0 0
14.6 0 0
14.64 0 0
14.68 0 0
14.72 0 0
14.76 0 0
14.8 0 0
14.84 0 0
14.88 0 0
14.92 0 0
14.96 0 0
15 0 0
15.04 0 0
15.08 0 0
15.12 0 0
15.16 0 0
15.2 0 0
15.24 0 0
15.28 0 0
15.32 0 0
15.36 0 0
15.4 0 0
15.44 0 0
15.48 0 0
15.52 0 0
15.56 0 0
15.6 0 0
15.64 0 0
15.68 0 0
15.72 0 0
15.76 0 0
15.8 0 0
15.84 0 0
15.88 0 0
15.92 0 0
15.96 0 0
16 0 0
16.04 0 0
16.08 0 0
16.12 0 0
16.16 0 0
16.2 0 0
16.24 0 0
16.28 0 0
16.32 0 0
16.36 0 0
16.4 0 0
16.44 0 0
16.48 0 0
16.52 0 0
16.56 0 0
16.6 0 0
16.64 0 0
16.68 0 0
16.72 0 0
16.76 0 0
16.8 0 0
16.84 0 0
16.88 0 0
16.92 0 0
16.96 0 0
17 0 0
17.04 0 0
17.08 0 0
17.12 0 0
17.16 0 0
17.2 0 0
17.24 0 0
17.28 0 0
17.32 0 0
17.36 0 0
17.4 0 0
17.44 0 0
17.48 0 0
17.52 0 0
17.56 0 0
17.6 0 0
17.64 0 0
17.68 0 0
17.72 0 0
17.76 0 0
17.8 0 0
17.84 0 0
17.88 0 0
17.92 0 0
17.96 0 0
18 0 0
18.04 0 0
18.08 0 0
18.12 0 0
18.16 0 0
18.2 0 0
18.24 0 0
18.28 0 0
18.32 0 0
18.36 0 0
18.4 0 0
18.44 0 0
18.48 0 0
18.52 0 0
18.56 0 0
18.6 0 0
18.64 0 0
18.68 0 0
18.72 0 0
18.76 0 0
18.8 0 0
18.84 0 0
18.88 0 0
18.92 0 0
18.96 0 0
19 0 0
19.04 0 0
19.08 0 0
19.12 0 0
19.16 0 0
19.2 0 0
19.24 0 0
19.28 0 0
19.32 0 0
19.36 0 0
19.4 0 0
19.44 0 0
19.48 0 0
19.52 0 0
19.56 0 0
19.6 0 0
19.64 0 0
19.68 0 0
19.72 0 0
19.76 0 0
19.8 0 0
19.84 0 0
19.88 0 0
19.92 0 0
19.96 0 0
20 0 0
20.04 0 0
20.08 0 0
20.12 0 0
20.16 0 0
20.2 0 0
20.24 0 0
20.28 0 0
20.32 0 0
20.36 0 0
20.4 0 0
20.44 0 0
20.48 0 0
20.52 0 0
20.56 0 0
20.6 0 0
20.64 0 0
20.68 0 0
20.72 0 0
20.76 0 0
20.8 0 0
20.84 0 0
20.88 0 0
20.92 0 0
20.96 0 0
21 0 0
21.04 0 0
21.08 0 0
21.12 0 0
21.16 0 0
21.2 0 0
21.24 0 0
21.28 0 0
21.32 0 0
21.36 0 0
21.4 0 0
21.44 0 0
21.48 0 0
21.52 0 0
21.56 0 0
21.6 0 0
21.64 0 0
21.68 0 0
21.72 0 0
21.76 0 0
21.8 0 0
21.84 0 0
21.88 0 0
21.92 0 0
21.96 0 0
22 0 0
22.04 0 0
22.08 0 0
22.12 0 0
22.16 0 0
22.2 0 0
22.24 0 0
22.28 0 0
22.32 0 0
22.36 0 0
22.4 0 0
22.44 0 0
22.48 0 0
22.52 0 0
22.56 0 0
22.6 0 0
22.64 0 0
22.68 0 0
22.72 0 0
22.76 0 0
22.8 0 0
22.84 0 0
22.88 0 0
22.92 0 0
22.96 0 0
23 0 0
23.04 0 0
23.08 0 0
23.12 0 0
23.16 0 0
23.2 0 0
23.24 0 0
23.28 0 0
23.32 0 0
23.36 0 0
23.4 0 0
23.44 0 0
23.48 0 0
23.52 0 0
23.56 0 0
23.6 0 0
23.64 0 0
23.68 0 0
23.72 0 0
23.76 0 0
23.8 0 0
23.84 0 0
23.88 0 0
23.92 0 0
23.96 0 0
24 0 0
24.04 0 0
24.08 0 0
24.12 0 0
24.16 0 0
24.2 0 0
24.24 0 0
24.28 0 0
24.32 0 0
24.36 0 0
24.4 0 0
24.44 0 0
24.48 0 0
24.52 0 0
24.56 0 0
24.6 0 0
24.64 0 0
24.68 0 0
24.72 0 0
24.76 0 0
24.8 0 0
24.84 0 0
24.88 0 0
24.92 0 0
24.96 0 0
25 0 0
25.04 0 0
25.08 0 0
25.12 0 0
25.16 0 0
25.2 0 0
25.24 0 0
25.28 0 0
25.32 0 0
25.36 0 0
25.4 0 0
25.44 0 0
25.48 0 0
25.52 0 0
25.56 0 0
25.6 0 0
25.64 0 0
25.68 0 0
25.72 0 0
25.76 0 0
25.8 0 0
25.84 0 0
25.88 0 0
25.92 0 0
25.96 0 0
26 0 0
26.04 0 0
26.08 0 0
26.12 0 0
26.16 0 0
26.2 0 0
26.24 0 0
26.28 0 0
26.32 0 0
26.36 0 0
26.4 0 0
26.44 0 0
26.48 0 0
26.52 0 0
26.56 0 0
26.6 0 0
26.64 0 0
26.68 0 0
26.72 0 0
26.76 0 0
26.8 0 0
26.84 0 0
26.88 0 0
26.92 0 0
26.96 0 0
27 0 0
27.04 0 0
27.08 0 0
27.12 0 0
27.16 0 0
27.2 0 0
27.24 0 0
27.28 0 0
27.32 0 0
27.36 0 0
27.4 0 0
27.44 0 0
27.48 0 0
27.52 0 0
27.56 0 0
27.6 0 0
27.64 0 0
27.68 0 0
27.72 0 0
27.76 0 0
27.8 0 0
27.84 0 0
27.88 0 0
27.92 0 0
27.96 0 0
28 0 0
28.04 0 0
28.08 0 0
28.12 0 0
28.16 0 0
28.2 0 0
28.24 0 0
28.28 0 0
28.32 0 0
28.36 0 0
28.4 0 0
28.44 0 0
28.48 0 0
28.52 0 0
28.56 0 0
28.6 0 0
28.64 0 0
28.68 0 0
28.72 0 0
28.76 0 0
28.8 0 0
28.84 0 0
28.88 0 0
28.92 0 0
28.96 0 0
29 0 0
29.04 0 0
29.08 0 0
29.12 0 0
29.16 0 0
29.2 0 0
29.24 0 0
29.28 0 0
29.32 0 0
29.36 0 0
29.4 0 0
29.44 0 0
29.48 0 0
29.52 0 0
29.56 0 0
29.6 0 0
29.64 0 0
29.68 0 0
29.72 0 0
29.76 0 0
29.8 0 0
29.84 0 0
29.88 0 0
29.92 0 0
29.96 0 0
30 0 0
30.04 0 0
30.08 0 0
30.12 0 0
30.16 0 0
30.2 0 0
30.24 0 0
30.28 0 0
30.32 0 0
30.36 0 0
30.4 0 0
30.44 0 0
30.48 0 0
30.52 0 0
30.56 0 0
30.6 0 0
30.64 0 0
30.68 0 0
30.72 0 0
30.76 0 0
30.8 0 0
30.84 0 0
30.88 0 0
30.92 0 0
30.96 0 0
31 0 0
31.04 0 0
31.08 0 0
31.12 0 0
31.16 0 0
31.2 0 0
31.24 0 0
31.28 0 0
31.32 0 0
31.36 0 0
31.4 0 0
31.44 0 0
31.48 0 0
31.52 0 0
31.56 0 0
31.6 0 0
31.64 0 0
31.68 0 0
31.72 0 0
31.76 0 0
31.8 0 0
31.84 0 0
31.88 0 0
31.92 0 0
31.96 0 0
0 0.005 0
0.04 0.005 0
0.08 0.005 0
0.12 0.005 0
0.16 0.005 0
0.2 0.005 0
0.24 0.005 0
0.28 0.005 0
0.32 0.005 0
0.36 0.005 0
0.4 0.005 0
0.44 0.005 0
0.48 0.005 0
0.52 0.005 0
0.56 0.005 0
0.6 0.005 0
0.64 0.005 0
0.68 0.005 0
0.72 0.005 0
0.76 0.005 0
0.8 0.005 0
0.84 0.005 0
0.88 0.005 0
0.92 0.005 0
0.96 0.005 0
1 0.005 0
1.04 0.005 0
1.08 0.005 0
1.12 0.005 0
1.16 0.005 0
1.2 0.005 0
1.24 0.005 0
1.28 0.005 0
1.32 0.005 0
1.36 0.005 0
1.4 0.005 0
1.44 0.005 0
1.48 0.005 0
1.52 0.005 0
1.56 0.005 0
1.6 0.005 0
1.64 0.005 0
1.68 0.005 0
1.72 0.005 0
1.76 0.005 0
1.8 0.005 0
1.84 0.005 0
1.88 0.005 0
1.92 0.005 0
1.96 0.005 0
2 0.005 0
2.04 0.005 0
2.08 0.005 0
2.12 0.005 0
2.16 0.005 0
2.2 0.005 0
2.24 0.005 0
2.28 0.005 0
2.32 0.005 0
2.36 0.005 0
2.4 0.005 0
2.44 0.005 0
2.48 0.005 0
2.52 0.005 0
2.56 0.005 0
2.6 0.005 0
2.64 0.005 0
2.68 0.005 0
2.72 0.005 0
2.76 0.005 0
2.8 0.005 0
2.84 0.005 0
2.88 0.005 0
2.92 0.005 0
2.96 0.005 0
3 0.005 0
3.04 0.005 0
3.08 0.005 0
3.12 0.005 0
3.16 0.005 0
3.2 0.005 0
3.24 0.005 0
3.28 0.005 0
3.32 0.005 0
3.36 0.005 0
3.4 0.005 0
3.44 0.005 0
3.48 0.005 0
3.52 0.005 0
3.56 0.005 0
3.6 0.005 0
3.64 0.005 0
3.68 0.005 0
3.72 0.005 0
3.76 0.005 0
3.8 0.005 0
3.84 0.005 0
3.88 0.005 0
3.92 0.005 0
3.96 0.005 0
4 0.005 0
4.04 0.005 0
4.08 0.005 0
4.12 0.005 0
4.16 0.005 0
4.2 0.005 0
4.24 0.005 0
4.28 0.005 0
4.32 0.005 0
4.36 0.005 0
4.4 0.005 0
4.44 0.005 0
4.48 0.005 0
4.52 0.005 0
4.56 0.005 0
4.6 0.005 0
4.64 0.005 0
4.68 0.005 0
4.72 0.005 0
4.76 0.005 0
4.8 0.005 0
4.84 0.005 0
4.88 0.005 0
4.92 0.005 0
4.96 0.005 0
5 0.005 0
5.04 0.005 0
5.08 0.005 0
5.12 0.005 0
5.16 0.005 0
5.2 0.005 0
5.24 0.005 0
5.28 0.005 0
5.32 0.005 0
5.36 0.005 0
5.4 0.005 0
5.44 0.005 0
5.48 0.005 0
5.52 0.005 0
5.56 0.005 0
5.6 0.005 0
5.64 0.005 0
5.68 0.005 0
5.72 0.005 0
5.76 0.005 0
5.8 0.005 0
5.84 0.005 0
5.88 0.005 0
5.92 0.005 0
5.96 0.005 0
6 0.005 0
6.04 0.005 0
6.08 0.005 0
6.12 0.005 0
6.16 0.005 0
6.2 0.005 0
6.24 0.005 0
6.28 0.005 0
6.32 0.005 0
6.36 0.005 0
6.4 0.005 0
6.44 0.005 0
6.48 0.005 0
6.52 0.005 0
6.56 0.005 0
6.6 0.005 0
6.64 0.005 0
6.68 0.005 0
6.72 0.005 0
6.76 0.005 0
6.8 0.005 0
6.84 0.005 0
6.88 0.005 0
6.92 0.005 0
6.96 0.005 0
7 0.005 0
7.04 0.005 0
7.08 0.005 0
7.12 0.005 0
7.16 0.005 0
7.2 0.005 0
7.24 0.005 0
7.28 0.005 0
7.32 0.005 0
7.36 0.005 0
7.4 0.005 0
[...]
POINT_DATA 160000

SCALARS v float 1
LOOKUP_TABLE default
0
0
0
0
0
0
0
0
0
0
0
0
0
0
0
0
0
0
0
0
0
0
0
0
0
0
0
0
0
0
0
0
0
0
0
0
0
0
0
0
0
0
0
0
0
0
0
0
0
0
0
0
0
0
0
0
0
0
0
0
0
0
0
0
0
0
0
0
0
0
0
0
0
0
0
0
0
0
0
0
0
0
0
0
0
0
0
0
0
0
0
0
0
0
0
0
0
0
0
0
0
0
0
0
0
0
0
0
0
0
0
0
0
0
0
0
0
0
0
0
0
0
0
0
0
0
0
0
0
0
0
0
0
0
0
0
0
0
0
0
0
0
0
0
0
0
0
0
0
0
0
0
0
0
0
0
0
0
0
0
0
0
0
0
0
0
0
0
0
0
0
0
0
0
0
0
0
0
0
0
0
0
0
0
0
0
0
0
0
0
0
0
0
0
0
0
0
0
0
0
0
0
0
0
0
0
0
0
0
0
0
0
0
0
0
0
0
0
0
0
0
0
0
0
0
0
0
0
0
0
0
0
0
0
0
0
0
0
0
0
0
0
0
0
0
0
0
0
0
0
0
0
0
0
0
0
0
0
0
0
0
0
0
0
0
0
0
0
0
0
0
0
0
0
0
0
0
0
0
0
0
0
0
0
0
0
0
0
0
0
0
0
0
0
0
0
0
0
0
0
0
0
0
0
0
0
0
0
0
0
0
0
0
0
0
0
0
0
0
0
0
0
0
0
0
0
0
0
0
0
0
0
0
0
0
0
0
0
0
0
0
0
0
0
0
0
0
0
0
0
0
0
0
0
0
0
0
0
0
0
0
0
0
0
0
0
0
0
0
0
0
0
0
0
0
0
0
0
0
0
0
0
0
0
0
0
0
0
0
0
0
0
0
0
0
0
0
0
0
0
0
0
0
0
0
0
0
0
0
0
0
0
0
0
0
0
0
0
0
0
0
0
0
0
0
0
0
0
0
0
0
0
0
0
0
0
0
0
0
0
0
0
0
0
0
0
0
0
0
0
0
0
0
0
0
0
0
0
0
0
0
0
0
0
0
0
0
0
0
0
0
0
0
0
0
0
0
0
0
0
0
0
0
0
0
0
0
0
0
0
0
0
0
0
0
0
0
0
0
0
0
0
0
0
0
0
0
0
0
0
0
0
0
0
0
0
0
0
0
0
0
0
0
0
0
0
0
0
0
0
0
0
0
0
0
0
0
0
0
0
0
0
0
0
0
0
0
0
0
0
0
0
0
0
0
0
0
0
0
0
0
0
0
0
0
0
0
0
0
0
0
0
0
0
0
0
0
0
0
0
0
0
0
0
0
0
0
0
0
0
0
0
0
0
0
0
0
0
0
0
0
0
0
0
0
0
0
0
0
0
0
0
0
0
0
0
0
0
0
0
0
0
0
0
0
0
0
0
0
0
0
0
0
0
0
0
0
0
0
0
0
0
0
0
0
0
0
0
0
0
0
0
0
0
0
0
0
0
0
0
0
0
0
0
0
0
0
0
0
0
0
0
0
0
0
0
0
0
0
0
0
0
0
0
0
0
0
0
0
0
0
0
0
0
0
0
0
0
0
0
0
0
0
0
0
0
0
0
0
0
0
0
0
0
0
0
0
0
0
0
0
0
0
0
0
0
0
0
0
0
0
0
0
0
0
0
0
0
0
0
0
0
0
0
0
0
0
0
0
0
0
0
0
0
0
0
0
0
0
0
0
0
0
0
0
0
0
0
0
0
0
0
0
0
0
0
0
0
0
0
0
0
0
0
0
0
0
0
0
0
0
0
0
0
0
0
0
0
0
0
0
0
0.0374147
0.00938017
0.00346702
0.00176541
0.00107993
0.000736166
0.000537388
0.000410842
0.000324642
0.000262952
0.00021713
0.000182099
0.000154697
0.00013286
0.000115187
0.000100695
8.86759e-05
7.86076e-05
7.00973e-05
6.2845e-05
5.6618e-05
5.12335e-05
4.65467e-05
4.24418e-05
3.88252e-05
3.56209e-05
3.27668e-05
3.02117e-05
2.79134e-05
2.58366e-05
2.3952e-05
2.22349e-05
2.06645e-05
1.92232e-05
1.7896e-05
1.66701e-05
1.55344e-05
1.44796e-05
1.34973e-05
1.25805e-05
1.17229e-05
1.09191e-05
1.01643e-05
9.45419e-06
8.78511e-06
8.15368e-06
7.55693e-06
6.99218e-06
6.45702e-06
5.94929e-06
5.46704e-06
5.00849e-06
4.57202e-06
4.15617e-06
3.7596e-06
3.38106e-06
3.01943e-06
2.67368e-06
2.34285e-06
2.02605e-06
1.72247e-06
1.43134e-06
1.15198e-06
8.83734e-07
6.25989e-07
3.78185e-07
1.39794e-07
-8.96767e-08
-3.10684e-07
-5.23655e-07
-7.28994e-07
-9.27078e-07
-1.11827e-06
-1.30289e-06
-1.48125e-06
-1.65366e-06
-1.82039e-06
-1.98169e-06
-2.13783e-06
-2.28904e-06
-2.43554e-06
-2.57753e-06
-2.71523e-06
-2.84881e-06
-2.97846e-06
-3.10435e-06
-3.22665e-06
-3.34551e-06
-3.46108e-06
-3.5735e-06
-3.68292e-06
-3.78946e-06
-3.89325e-06
-3.99441e-06
-4.09307e-06
-4.18933e-06
-4.28332e-06
-4.37514e-06
-4.4649e-06
-4.55271e-06
-4.63868e-06
-4.7229e-06
-4.80549e-06
-4.88656e-06
-4.96622e-06
-5.04459e-06
-5.1218e-06
-5.19796e-06
-5.27322e-06
-5.34772e-06
-5.4216e-06
-5.49503e-06
-5.56814e-06
-5.6411e-06
-5.71405e-06
-5.78712e-06
-5.86045e-06
-5.93416e-06
-6.00833e-06
-6.08303e-06
-6.15829e-06
-6.23414e-06
-6.31055e-06
-6.38747e-06
-6.46481e-06
-6.54248e-06
-6.62031e-06
-6.69817e-06
-6.77587e-06
-6.85321e-06
-6.93e-06
-7.00604e-06
-7.08113e-06
-7.15508e-06
-7.22772e-06
-7.29891e-06
-7.36849e-06
-7.43637e-06
-7.50246e-06
-7.5667e-06
-7.62906e-06
-7.68952e-06
-7.74812e-06
-7.80486e-06
-7.8598e-06
-7.913e-06
-7.96451e-06
-8.01442e-06
-8.06279e-06
-8.1097e-06
-8.15524e-06
-8.19948e-06
-8.24247e-06
-8.28429e-06
-8.325e-06
-8.36465e-06
-8.40327e-06
-8.44092e-06
-8.47765e-06
-8.51347e-06
-8.54843e-06
-8.58255e-06
-8.61585e-06
-8.64832e-06
-8.67998e-06
-8.71081e-06
-8.74081e-06
-8.76998e-06
-8.79832e-06
-8.82587e-06
-8.85264e-06
-8.87869e-06
-8.90403e-06
-8.92868e-06
-8.95265e-06
-8.97588e-06
-8.99834e-06
-9.01995e-06
-9.04065e-06
-9.06038e-06
-9.07914e-06
-9.09697e-06
-9.11397e-06
-9.13029e-06
-9.14615e-06
-9.16178e-06
-9.17743e-06
-9.19333e-06
-9.20965e-06
-9.22651e-06
-9.24396e-06
-9.26195e-06
-9.28034e-06
-9.29893e-06
-9.31747e-06
-9.33569e-06
-9.3533e-06
-9.37003e-06
-9.38565e-06
-9.39996e-06
-9.41285e-06
-9.42424e-06
-9.43413e-06
-9.44257e-06
-9.44963e-06
-9.45545e-06
-9.46015e-06
-9.4639e-06
-9.46683e-06
-9.4691e-06
-9.47084e-06
-9.47215e-06
-9.47316e-06
-9.47393e-06
-9.47453e-06
-9.47502e-06
-9.47543e-06
-9.4758e-06
-9.47613e-06
-9.47646e-06
-9.47677e-06
-9.47707e-06
-9.47738e-06
-9.47769e-06
-9.478e-06
-9.47832e-06
-9.47863e-06
-9.47895e-06
-9.47926e-06
-9.47958e-06
-9.4799e-06
-9.48022e-06
-9.48054e-06
-9.48085e-06
-9.48117e-06
-9.48149e-06
-9.48182e-06
-9.48214e-06
-9.48246e-06
-9.48279e-06
-9.48311e-06
-9.48343e-06
-9.48375e-06
-9.48408e-06
-9.48441e-06
-9.48473e-06
-9.48506e-06
-9.48538e-06
-9.4857e-06
-9.48602e-06
-9.48635e-06
-9.48668e-06
-9.487e-06
-9.48732e-06
-9.48765e-06
-9.48797e-06
-9.4883e-06
-9.48862e-06
-9.48895e-06
-9.48927e-06
-9.48959e-06
-9.48992e-06
-9.49024e-06
-9.49057e-06
-9.49089e-06
-9.49121e-06
-9.49154e-06
-9.49186e-06
-9.49219e-06
-9.49251e-06
-9.49283e-06
-9.49316e-06
-9.49348e-06
-9.49381e-06
-9.49414e-06
-9.49446e-06
-9.49478e-06
-9.49511e-06
-9.49543e-06
-9.49576e-06
-9.49608e-06
-9.49641e-06
-9.49673e-06
-9.49705e-06
-9.49738e-06
-9.49771e-06
-9.49803e-06
-9.49836e-06
-9.49868e-06
-9.499e-06
-9.49933e-06
-9.49966e-06
-9.49998e-06
-9.5003e-06
-9.50063e-06
-9.50096e-06
-9.50128e-06
-9.5016e-06
-9.50193e-06
-9.50225e-06
-9.50258e-06
-9.50291e-06
-9.50323e-06
-9.50356e-06
-9.50388e-06
-9.5042e-06
-9.50453e-06
-9.50486e-06
-9.50518e-06
-9.50551e-06
-9.50583e-06
-9.50616e-06
-9.50648e-06
-9.50681e-06
-9.50713e-06
-9.50746e-06
-9.50779e-06
-9.50811e-06
-9.50844e-06
-9.50876e-06
-9.50909e-06
-9.50941e-06
-9.50974e-06
-9.51006e-06
-9.51039e-06
-9.51071e-06
-9.51104e-06
-9.51137e-06
-9.5117e-06
-9.51202e-06
-9.51235e-06
-9.51267e-06
-9.513e-06
-9.51332e-06
-9.51365e-06
-9.51398e-06
-9.5143e-06
-9.51462e-06
-9.51495e-06
-9.51528e-06
-9.5156e-06
-9.51593e-06
-9.51626e-06
-9.51658e-06
-9.51691e-06
-9.51724e-06
-9.51756e-06
-9.51789e-06
-9.51822e-06
-9.51854e-06
-9.51887e-06
-9.51919e-06
-9.51952e-06
-9.51985e-06
-9.52017e-06
-9.5205e-06
-9.52083e-06
-9.52115e-06
-9.52148e-06
-9.52181e-06
-9.52213e-06
-9.52246e-06
-9.52279e-06
-9.52311e-06
-9.52344e-06
-9.52377e-06
-9.52409e-06
-9.52442e-06
-9.52475e-06
-9.52508e-06
-9.5254e-06
-9.52573e-06
-9.52606e-06
-9.52638e-06
-9.52671e-06
-9.52704e-06
-9.52737e-06
-9.5277e-06
-9.52802e-06
-9.52835e-06
-9.52867e-06
-9.529e-06
-9.52933e-06
-9.52966e-06
-9.52998e-06
-9.53031e-06
-9.53064e-06
-9.53097e-06
-9.5313e-06
-9.53163e-06
-9.53195e-06
-9.53228e-06
-9.53261e-06
-9.53293e-06
-9.53326e-06
-9.53359e-06
-9.53392e-06
-9.53425e-06
-9.53457e-06
-9.5349e-06
-9.53523e-06
-9.53556e-06
-9.53589e-06
-9.53622e-06
-9.53655e-06
-9.53688e-06
-9.53721e-06
-9.53754e-06
-9.53786e-06
-9.53819e-06
-9.53852e-06
-9.53885e-06
-9.53918e-06
-9.53951e-06
-9.53984e-06
-9.54017e-06
-9.5405e-06
-9.54083e-06
-9.54116e-06
-9.54149e-06
-9.54181e-06
-9.54214e-06
-9.54248e-06
-9.54281e-06
-9.54314e-06
-9.54347e-06
-9.5438e-06
-9.54413e-06
-9.54446e-06
-9.54479e-06
-9.54512e-06
-9.54545e-06
-9.54578e-06
-9.54611e-06
-9.54645e-06
-9.54678e-06
-9.54711e-06
-9.54745e-06
-9.54778e-06
-9.54811e-06
-9.54844e-06
-9.54877e-06
-9.5491e-06
-9.54944e-06
-9.54977e-06
-9.5501e-06
-9.55043e-06
-9.55077e-06
-9.5511e-06
-9.55143e-06
-9.55177e-06
-9.5521e-06
-9.55243e-06
-9.55277e-06
-9.5531e-06
-9.55344e-06
-9.55377e-06
-9.55411e-06
-9.55444e-06
-9.55477e-06
-9.55511e-06
-9.55545e-06
-9.55578e-06
-9.55612e-06
-9.55645e-06
-9.55679e-06
-9.55713e-06
-9.55746e-06
-9.5578e-06
-9.55813e-06
-9.55847e-06
-9.55881e-06
-9.55915e-06
-9.55949e-06
-9.55982e-06
-9.56016e-06
-9.5605e-06
-9.56084e-06
-9.56118e-06
-9.56152e-06
-9.56186e-06
-9.5622e-06
-9.56253e-06
-9.56287e-06
-9.56321e-06
-9.56355e-06
-9.56389e-06
-9.56423e-06
-9.56458e-06
-9.56492e-06
-9.56526e-06
-9.5656e-06
-9.56594e-06
-9.56628e-06
-9.56663e-06
-9.56697e-06
-9.56731e-06
-9.56766e-06
-9.568e-06
-9.56834e-06
-9.56869e-06
-9.56903e-06
-9.56938e-06
-9.56972e-06
-9.57006e-06
-9.57041e-06
-9.57076e-06
-9.5711e-06
-9.57145e-06
-9.5718e-06
-9.57214e-06
-9.57249e-06
-9.57284e-06
-9.57319e-06
-9.57354e-06
-9.57388e-06
-9.57423e-06
-9.57458e-06
-9.57493e-06
-9.57528e-06
-9.57563e-06
-9.57598e-06
-9.57633e-06
-9.57668e-06
-9.57703e-06
-9.57739e-06
-9.57774e-06
-9.57809e-06
-9.57844e-06
-9.57879e-06
-9.57915e-06
-9.5795e-06
-9.57985e-06
-9.58021e-06
-9.58056e-06
-9.58092e-06
-9.58127e-06
-9.58162e-06
-9.58198e-06
-9.58234e-06
-9.58269e-06
-9.58305e-06
-9.58341e-06
-9.58376e-06
-9.58412e-06
-9.58448e-06
-9.58484e-06
-9.58519e-06
-9.58555e-06
-9.58591e-06
-9.58627e-06
-9.58663e-06
-9.58699e-06
-9.58735e-06
-9.58771e-06
-9.58807e-06
-9.58843e-06
-9.5888e-06
-9.58916e-06
-9.58952e-06
-9.58988e-06
-9.59024e-06
-9.59061e-06
-9.59097e-06
-9.59133e-06
-9.5917e-06
-9.59206e-06
-9.59242e-06
-9.59279e-06
-9.59316e-06
-9.59352e-06
-9.59389e-06
-9.59425e-06
-9.59461e-06
-9.59498e-06
-9.59535e-06
-9.59571e-06
-9.59608e-06
-9.59644e-06
-9.59681e-06
-9.59718e-06
-9.59755e-06
-9.59792e-06
-9.59828e-06
-9.59865e-06
-9.59902e-06
-9.59939e-06
-9.59976e-06
-9.60013e-06
-9.6005e-06
-9.60087e-06
-9.60124e-06
-9.60161e-06
-9.60198e-06
-9.60235e-06
-9.60271e-06
-9.60309e-06
-9.60346e-06
-9.60383e-06
-9.6042e-06
-9.60457e-06
-9.60494e-06
-9.60531e-06
-9.60568e-06
-9.60605e-06
-9.60643e-06
-9.6068e-06
-9.60717e-06
-9.60754e-06
-9.60791e-06
-9.60829e-06
-9.60866e-06
-9.60903e-06
-9.6094e-06
-9.60978e-06
-9.61015e-06
-9.61052e-06
-9.61089e-06
-9.61127e-06
-9.61164e-06
-9.61201e-06
-9.61239e-06
-9.61276e-06
-9.61313e-06
-9.6135e-06
-9.61388e-06
-9.61425e-06
-9.61462e-06
-9.615e-06
-9.61537e-06
-9.61574e-06
-9.61612e-06
-9.61649e-06
-9.61686e-06
-9.61724e-06
-9.61761e-06
-9.61798e-06
-9.61836e-06
-9.61873e-06
-9.6191e-06
-9.61948e-06
-9.61985e-06
-9.62022e-06
-9.62059e-06
-9.62097e-06
-9.62134e-06
-9.62171e-06
-9.62208e-06
-9.62246e-06
-9.62283e-06
-9.6232e-06
-9.62358e-06
-9.62395e-06
-9.62432e-06
-9.62469e-06
-9.62506e-06
-9.62543e-06
-9.6258e-06
-9.62618e-06
-9.62655e-06
-9.62692e-06
-9.62729e-06
-9.62766e-06
-9.62803e-06
-9.6284e-06
-9.62877e-06
-9.62914e-06
-9.62951e-06
-9.62988e-06
-9.63026e-06
-9.63063e-06
-9.631e-06
-9.63136e-06
-9.63173e-06
-9.6321e-06
-9.63247e-06
-9.63284e-06
-9.63321e-06
-9.63358e-06
-9.63395e-06
-9.63432e-06
-9.63469e-06
-9.63506e-06
-9.63542e-06
-9.63579e-06
-9.63616e-06
-9.63653e-06
-9.6369e-06
-9.63726e-06
-9.63763e-06
-9.638e-06
-9.63837e-06
-9.63873e-06
-9.6391e-06
-9.63947e-06
-9.63983e-06
-9.6402e-06
-9.64057e-06
-9.64094e-06
-9.6413e-06
-9.64167e-06
-9.64203e-06
-9.6424e-06
-9.64276e-06
-9.64313e-06
-9.64349e-06
-9.64385e-06
-9.64422e-06
-9.64459e-06
-9.64496e-06
-9.64532e-06
-9.64568e-06
-9.64604e-06
-9.64641e-06
-9.64677e-06
-9.64714e-06
-9.6475e-06
-9.64786e-06
-9.64823e-06
-9.64859e-06
-9.64895e-06
-9.64932e-06
-9.64968e-06
-9.65004e-06
-9.6504e-06
-9.65077e-06
-9.65113e-06
-9.65149e-06
-9.65185e-06
-9.65221e-06
-9.65258e-06
-9.65294e-06
-9.6533e-06
-9.65366e-06
-9.65402e-06
-9.65439e-06
-9.65475e-06
-9.65511e-06
-9.65547e-06
-9.65583e-06
-9.65619e-06
-9.65655e-06
-9.65691e-06
-9.65728e-06
-9.65763e-06
-9.65799e-06
-9.65836e-06
-9.65872e-06
-9.65907e-06
-9.65943e-06
-9.65979e-06
-9.66015e-06
-9.66051e-06
-9.66087e-06
-9.66123e-06
-9.66158e-06
-9.66194e-06
-9.6623e-06
-9.66266e-06
-9.66301e-06
-9.66337e-06
-9.66372e-06
-9.66407e-06
-9.66441e-06
-9.66476e-06
-9.6651e-06
-9.66544e-06
-9.66576e-06
-9.66608e-06
-9.66639e-06
-9.66669e-06
-9.66698e-06
-9.66724e-06
-9.66748e-06
-9.66769e-06
-9.66786e-06
-9.66797e-06
-9.66804e-06
-9.66801e-06
-9.66791e-06
-9.66766e-06
-9.66729e-06
-9.66666e-06
-9.66589e-06
-9.66464e-06
-9.66326e-06
-9.66094e-06
-9.65867e-06
-9.65439e-06
-9.65099e-06
-9.64264e-06
-9.63867e-06
-9.61991e-06
-9.62209e-06
-9.56478e-06
-9.67467e-06
-6.82625e-06
-6.82625e-06
0
0
0.0966087
0.0320515
0.013005
0.00682522
0.00423492
0.00291297
0.00214133
0.00164725
0.00130938
0.0010669
0.000886385
0.000748134
0.000639827
0.000553403
0.000483376
0.000425894
0.000378178
0.000338173
0.000304335
0.000275481
0.000250693
0.000229249
0.000210578
0.00019422
0.000179806
0.000167033
0.000155656
0.000145471
0.000136309
0.000128032
0.000120522
0.000113681
0.000107426
0.000101686
9.64015e-05
9.15216e-05
8.70022e-05
8.28054e-05
7.88984e-05
7.52526e-05
7.18432e-05
6.86484e-05
6.56489e-05
6.28278e-05
6.01702e-05
5.76625e-05
5.5293e-05
5.3051e-05
5.09268e-05
4.89117e-05
4.69981e-05
4.51787e-05
4.34472e-05
4.17976e-05
4.02247e-05
3.87234e-05
3.72894e-05
3.59185e-05
3.46068e-05
3.33508e-05
3.21473e-05
3.09933e-05
2.9886e-05
2.88228e-05
2.78013e-05
2.68192e-05
2.58745e-05
2.49651e-05
2.40894e-05
2.32455e-05
2.24318e-05
2.1647e-05
2.08894e-05
2.0158e-05
1.94512e-05
1.87682e-05
1.81076e-05
1.74684e-05
1.68498e-05
1.62507e-05
1.56702e-05
1.51075e-05
1.45619e-05
1.40325e-05
1.35187e-05
1.30197e-05
1.25349e-05
1.20637e-05
1.16055e-05
1.11597e-05
1.07257e-05
1.03031e-05
9.8913e-06
9.4898e-06
9.09815e-06
8.71587e-06
8.3425e-06
7.9776e-06
7.62074e-06
7.27146e-06
6.92935e-06
6.59396e-06
6.26486e-06
5.94161e-06
5.62373e-06
5.31075e-06
5.00218e-06
4.69748e-06
4.39611e-06
4.09751e-06
3.80109e-06
3.50627e-06
3.21244e-06
2.91903e-06
2.62547e-06
2.33125e-06
2.03587e-06
1.73896e-06
1.44019e-06
1.13934e-06
8.36308e-07
5.31103e-07
2.23855e-07
-8.51818e-08
-3.95633e-07
-7.07014e-07
-1.01874e-06
-1.33016e-06
-1.64054e-06
-1.94911e-06
-2.25509e-06
-2.55769e-06
-2.85615e-06
-3.14976e-06
-3.43785e-06
-3.71985e-06
-3.99526e-06
-4.26369e-06
-4.52486e-06
-4.77855e-06
-5.02469e-06
-5.26327e-06
-5.49436e-06
-5.7181e-06
-5.93469e-06
-6.14437e-06
-6.3474e-06
-6.54409e-06
-6.73474e-06
-6.91965e-06
-7.09914e-06
-7.27348e-06
-7.44296e-06
-7.60781e-06
-7.76826e-06
-7.92451e-06
-8.07674e-06
-8.22513e-06
-8.36982e-06
-8.51095e-06
-8.64865e-06
-8.78301e-06
-8.91407e-06
-9.04187e-06
-9.16639e-06
-9.28763e-06
-9.40556e-06
-9.52021e-06
-9.63163e-06
-9.7399e-06
-9.84516e-06
-9.94753e-06
-1.00471e-05
-1.01439e-05
-1.0238e-05
-1.03291e-05
-1.04171e-05
-1.05017e-05
-1.05828e-05
-1.06601e-05
-1.07337e-05
-1.08039e-05
-1.0871e-05
-1.09358e-05
-1.09989e-05
-1.10613e-05
-1.11238e-05
-1.11874e-05
-1.12524e-05
-1.13194e-05
-1.13882e-05
-1.14588e-05
-1.15304e-05
-1.16022e-05
-1.16734e-05
-1.17427e-05
-1.18093e-05
-1.18721e-05
-1.19303e-05
-1.19832e-05
-1.20306e-05
-1.20721e-05
-1.21078e-05
-1.21381e-05
-1.21631e-05
-1.21835e-05
-1.21998e-05
-1.22125e-05
-1.22223e-05
-1.22296e-05
-1.2235e-05
-1.2239e-05
-1.22418e-05
-1.22437e-05
-1.22451e-05
-1.22461e-05
-1.22468e-05
-1.22474e-05
-1.22478e-05
-1.22482e-05
-1.22486e-05
-1.22489e-05
-1.22493e-05
-1.22497e-05
-1.22501e-05
-1.22504e-05
-1.22508e-05
-1.22512e-05
-1.22516e-05
-1.2252e-05
-1.22524e-05
-1.22528e-05
-1.22532e-05
-1.22536e-05
-1.2254e-05
-1.22544e-05
-1.22548e-05
-1.22553e-05
-1.22557e-05
-1.22561e-05
-1.22565e-05
-1.22569e-05
-1.22573e-05
-1.22578e-05
-1.22582e-05
-1.22586e-05
-1.2259e-05
-1.22595e-05
-1.22599e-05
-1.22603e-05
-1.22607e-05
-1.22612e-05
-1.22616e-05
-1.2262e-05
-1.22624e-05
-1.22628e-05
-1.22633e-05
-1.22637e-05
-1.22641e-05
-1.22645e-05
-1.22649e-05
-1.22654e-05
-1.22658e-05
-1.22662e-05
-1.22666e-05
-1.2267e-05
-1.22675e-05
-1.22679e-05
-1.22683e-05
-1.22687e-05
-1.22691e-05
-1.22696e-05
-1.227e-05
-1.22704e-05
-1.22708e-05
-1.22713e-05
-1.22717e-05
-1.22721e-05
-1.22725e-05
-1.22729e-05
-1.22734e-05
-1.22738e-05
-1.22742e-05
-1.22746e-05
-1.22751e-05
-1.22755e-05
-1.22759e-05
-1.22763e-05
-1.22767e-05
-1.22772e-05
-1.22776e-05
-1.2278e-05
-1.22784e-05
-1.22789e-05
-1.22793e-05
-1.22797e-05
-1.22801e-05
-1.22805e-05
-1.2281e-05
-1.22814e-05
-1.22818e-05
-1.22822e-05
-1.22827e-05
-1.22831e-05
-1.22835e-05
-1.22839e-05
-1.22843e-05
-1.22848e-05
-1.22852e-05
-1.22856e-05
-1.2286e-05
-1.22865e-05
-1.22869e-05
-1.22873e-05
-1.22877e-05
-1.22882e-05
-1.22886e-05
-1.2289e-05
-1.22894e-05
-1.22898e-05
-1.22903e-05
-1.22907e-05
-1.22911e-05
-1.22915e-05
-1.2292e-05
-1.22924e-05
-1.22928e-05
-1.22932e-05
-1.22937e-05
-1.22941e-05
-1.22945e-05
-1.22949e-05
-1.22953e-05
-1.22958e-05
-1.22962e-05
-1.22966e-05
-1.2297e-05
-1.22975e-05
-1.22979e-05
-1.22983e-05
-1.22987e-05
-1.22992e-05
-1.22996e-05
-1.23e-05
-1.23004e-05
-1.23009e-05
-1.23013e-05
-1.23017e-05
-1.23021e-05
-1.23026e-05
-1.2303e-05
-1.23034e-05
-1.23038e-05
-1.23043e-05
-1.23047e-05
-1.23051e-05
-1.23055e-05
-1.2306e-05
-1.23064e-05
-1.23068e-05
-1.23072e-05
-1.23077e-05
-1.23081e-05
-1.23085e-05
-1.23089e-05
-1.23094e-05
-1.23098e-05
-1.23102e-05
-1.23106e-05
-1.23111e-05
-1.23115e-05
-1.23119e-05
-1.23123e-05
-1.23128e-05
-1.23132e-05
-1.23136e-05
-1.2314e-05
-1.23145e-05
-1.23149e-05
-1.23153e-05
-1.23157e-05
-1.23162e-05
-1.23166e-05
-1.2317e-05
-1.23174e-05
-1.23179e-05
-1.23183e-05
-1.23187e-05
-1.23192e-05
-1.23196e-05
-1.232e-05
-1.23204e-05
-1.23209e-05
-1.23213e-05
-1.23217e-05
-1.23221e-05
-1.23226e-05
-1.2323e-05
-1.23234e-05
-1.23238e-05
-1.23243e-05
-1.23247e-05
-1.23251e-05
-1.23256e-05
-1.2326e-05
-1.23264e-05
-1.23268e-05
-1.23273e-05
-1.23277e-05
-1.23281e-05
-1.23286e-05
-1.2329e-05
-1.23294e-05
-1.23298e-05
-1.23303e-05
-1.23307e-05
-1.23311e-05
-1.23316e-05
-1.2332e-05
-1.23324e-05
-1.23328e-05
-1.23333e-05
-1.23337e-05
-1.23341e-05
-1.23346e-05
-1.2335e-05
-1.23354e-05
-1.23359e-05
-1.23363e-05
-1.23367e-05
-1.23372e-05
-1.23376e-05
-1.2338e-05
-1.23384e-05
-1.23389e-05
-1.23393e-05
-1.23397e-05
-1.23402e-05
-1.23406e-05
-1.2341e-05
-1.23415e-05
-1.23419e-05
-1.23423e-05
-1.23428e-05
-1.23432e-05
-1.23436e-05
-1.23441e-05
-1.23445e-05
-1.23449e-05
-1.23454e-05
-1.23458e-05
-1.23462e-05
-1.23467e-05
-1.23471e-05
-1.23476e-05
-1.2348e-05
-1.23484e-05
-1.23489e-05
-1.23493e-05
-1.23497e-05
-1.23502e-05
-1.23506e-05
-1.2351e-05
-1.23515e-05
-1.23519e-05
-1.23524e-05
-1.23528e-05
-1.23532e-05
-1.23537e-05
-1.23541e-05
-1.23546e-05
-1.2355e-05
-1.23554e-05
-1.23559e-05
-1.23563e-05
-1.23567e-05
-1.23572e-05
-1.23576e-05
-1.23581e-05
-1.23585e-05
-1.2359e-05
-1.23594e-05
-1.23598e-05
-1.23603e-05
-1.23607e-05
-1.23612e-05
-1.23616e-05
-1.23621e-05
-1.23625e-05
-1.2363e-05
-1.23634e-05
-1.23638e-05
-1.23643e-05
-1.23647e-05
-1.23652e-05
-1.23656e-05
-1.23661e-05
-1.23665e-05
-1.2367e-05
-1.23674e-05
-1.23679e-05
-1.23683e-05
-1.23688e-05
-1.23692e-05
-1.23697e-05
-1.23701e-05
-1.23706e-05
-1.2371e-05
-1.23715e-05
-1.23719e-05
-1.23724e-05
-1.23728e-05
-1.23733e-05
-1.23737e-05
-1.23742e-05
-1.23746e-05
-1.23751e-05
-1.23755e-05
-1.2376e-05
-1.23764e-05
-1.23769e-05
-1.23774e-05
-1.23778e-05
-1.23783e-05
-1.23787e-05
-1.23792e-05
-1.23796e-05
-1.23801e-05
-1.23806e-05
-1.2381e-05
-1.23815e-05
-1.23819e-05
-1.23824e-05
-1.23829e-05
-1.23833e-05
-1.23838e-05
-1.23842e-05
-1.23847e-05
-1.23852e-05
-1.23856e-05
-1.23861e-05
-1.23866e-05
-1.2387e-05
-1.23875e-05
-1.23879e-05
-1.23884e-05
-1.23889e-05
-1.23893e-05
-1.23898e-05
-1.23903e-05
-1.23907e-05
-1.23912e-05
-1.23917e-05
-1.23921e-05
-1.23926e-05
-1.23931e-05
-1.23935e-05
-1.2394e-05
-1.23945e-05
-1.2395e-05
-1.23954e-05
-1.23959e-05
-1.23964e-05
-1.23968e-05
-1.23973e-05
-1.23978e-05
-1.23982e-05
-1.23987e-05
-1.23992e-05
-1.23997e-05
-1.24001e-05
-1.24006e-05
-1.24011e-05
-1.24016e-05
-1.2402e-05
-1.24025e-05
-1.2403e-05
-1.24035e-05
-1.24039e-05
-1.24044e-05
-1.24049e-05
-1.24054e-05
-1.24058e-05
-1.24063e-05
-1.24068e-05
-1.24073e-05
-1.24077e-05
-1.24082e-05
-1.24087e-05
-1.24092e-05
-1.24097e-05
-1.24101e-05
-1.24106e-05
-1.24111e-05
-1.24116e-05
-1.24121e-05
-1.24125e-05
-1.2413e-05
-1.24135e-05
-1.2414e-05
-1.24145e-05
-1.24149e-05
-1.24154e-05
-1.24159e-05
-1.24164e-05
-1.24169e-05
-1.24173e-05
-1.24178e-05
-1.24183e-05
-1.24188e-05
-1.24193e-05
-1.24197e-05
-1.24202e-05
-1.24207e-05
-1.24212e-05
-1.24217e-05
-1.24222e-05
-1.24226e-05
-1.24231e-05
-1.24236e-05
-1.24241e-05
-1.24246e-05
-1.2425e-05
-1.24255e-05
-1.2426e-05
-1.24265e-05
-1.2427e-05
-1.24275e-05
-1.24279e-05
-1.24284e-05
-1.24289e-05
-1.24294e-05
-1.24299e-05
-1.24303e-05
-1.24308e-05
-1.24313e-05
-1.24318e-05
-1.24323e-05
-1.24328e-05
-1.24332e-05