# vtk DataFile Version 2.0
FlowField
ASCII
DATASET STRUCTURED_GRID
DIMENSIONS 800 1 200
POINTS 160000 float
0 0 0
0.04 0 0
0.08 0 0
0.12 0 0
0.16 0 0
0.2 0 0
0.24 0 0
0.28 0 0
0.32 0 0
0.36 0 0
0.4 0 0
0.44 0 0
0.48 0 0
0.52 0 0
0.56 0 0
0.6 0 0
0.64 0 0
0.68 0 0
0.72 0 0
0.76 0 0
0.8 0 0
0.84 0 0
0.88 0 0
0.92 0 0
0.96 0 0
1 0 0
1.04 0 0
1.08 0 0
1.12 0 0
1.16 0 0
1.2 0 0
1.24 0 0
1.28 0 0
1.32 0 0
1.36 0 0
1.4 0 0
1.44 0 0
1.48 0 0
1.52 0 0
1.56 0 0
1.6 0 0
1.64 0 0
1.68 0 0
1.72 0 0
1.76 0 0
1.8 0 0
1.84 0 0
1.88 0 0
1.92 0 0
1.96 0 0
2 0 0
2.04 0 0
2.08 0 0
2.12 0 0
2.16 0 0
2.2 0 0
2.24 0 0
2.28 0 0
2.32 0 0
2.36 0 0
2.4 0 0
2.44 0 0
2.48 0 0
2.52 0 0
2.56 0 0
2.6 0 0
2.64 0 0
2.68 0 0
2.72 0 0
2.76 0 0
2.8 0 0
2.84 0 0
2.88 0 0
2.92 0 0
2.96 0 0
3 0 0
3.04 0 0
3.08 0 0
3.12 0 0
3.16 0 0
3.2 0 0
3.24 0 0
3.28 0 0
3.32 0 0
3.36 0 0
3.4 0 0
3.44 0 0
3.48 0 0
3.52 0 0
3.56 0 0
3.6 0 0
3.64 0 0
3.68 0 0
3.72 0 0
3.76 0 0
3.8 0 0
3.84 0 0
3.88 0 0
3.92 0 0
3.96 0 0
4 0 0
4.04 0 0
4.08 0 0
4.12 0 0
4.16 0 0
4.2 0 0
4.24 0 0
4.28 0 0
4.32 0 0
4.36 0 0
4.4 0 0
4.44 0 0
4.48 0 0
4.52 0 0
4.56 0 0
4.6 0 0
4.64 0 0
4.68 0 0
4.72 0 0
4.76 0 0
4.8 0 0
4.84 0 0
4.88 0 0
4.92 0 0
4.96 0 0
5 0 0
5.04 0 0
5.08 0 0
5.12 0 0
5.16 0 0
5.2 0 0
5.24 0 0
5.28 0 0
5.32 0 0
5.36 0 0
5.4 0 0
5.44 0 0
5.48 0 0
5.52 0 0
5.56 0 0
5.6 0 0
5.64 0 0
5.68 0 0
5.72 0 0
5.76 0 0
5.8 0 0
5.84 0 0
5.88 0 0
5.92 0 0
5.96 0 0
6 0 0
6.04 0 0
6.08 0 0
6.12 0 0
6.16 0 0
6.2 0 0
6.24 0 0
6.28 0 0
6.32 0 0
6.36 0 0
6.4 0 0
6.44 0 0
6.48 0 0
6.52 0 0
6.56 0 0
6.6 0 0
6.64 0 0
6.68 0 0
6.72 0 0
6.76 0 0
6.8 0 0
6.84 0 0
6.88 0 0
6.92 0 0
6.96 0 0
7 0 0
7.04 0 0
7.08 0 0
7.12 0 0
7.16 0 0
7.2 0 0
7.24 0 0
7.28 0 0
7.32 0 0
7.36 0 0
7.4 0 0
7.44 0 0
7.48 0 0
7.52 0 0
7.56 0 0
7.6 0 0
7.64 0 0
7.68 0 0
7.72 0 0
7.76 0 0
7.8 0 0
7.84 0 0
7.88 0 0
7.92 0 0
7.96 0 0
8 0 0
8.04 0 0
8.08 0 0
8.12 0 0
8.16 0 0
8.2 0 0
8.24 0 0
8.28 0 0
8.32 0 0
8.36 0 0
8.4 0 0
8.44 0 0
8.48 0 0
8.52 0 0
8.56 0 0
8.6 0 0
8.64 0 0
8.68 0 0
8.72 0 0
8.76 0 0
8.8 0 0
8.84 0 0
8.88 0 0
8.92 0 0
8.96 0 0
9 0 0
9.04 0 0
9.08 0 0
9.12 0 0
9.16 0 0
9.2 0 0
9.24 0 0
9.28 0 0
9.32 0 0
9.36 0 0
9.4 0 0
9.44 0 0
9.48 0 0
9.52 0 0
9.56 0 0
9.6 0 0
9.64 0 0
9.68 0 0
9.72 0 0
9.76 0 0
9.8 0 0
9.84 0 0
9.88 0 0
9.92 0 0
9.96 0 0
10 0 0
10.04 0 0
10.08 0 0
10.12 0 0
10.16 0 0
10.2 0 0
10.24 0 0
10.28 0 0
10.32 0 0
10.36 0 0
10.4 0 0
10.44 0 0
10.48 0 0
10.52 0 0
10.56 0 0
10.6 0 0
10.64 0 0
10.68 0 0
10.72 0 0
10.76 0 0
10.8 0 0
10.84 0 0
10.88 0 0
10.92 0 0
10.96 0 0
11 0 0
11.04 0 0
11.08 0 0
11.12 0 0
11.16 0 0
11.2 0 0
11.24 0 0
11.28 0 0
11.32 0 0
11.36 0 0
11.4 0 0
11.44 0 0
11.48 0 0
11.52 0 0
11.56 0 0
11.6 0 0
11.64 0 0
11.68 0 0
11.72 0 0
11.76 0 0
11.8 0 0
11.84 0 0
11.88 0 0
11.92 0 0
11.96 0 0
12 0 0
12.04 0 0
12.08 0 0
12.12 0 0
12.16 0 0
12.2 0 0
12.24 0 0
12.28 0 0
12.32 0 0
12.36 0 0
12.4 0 0
12.44 0 0
12.48 0 0
12.52 0 0
12.56 0 0
12.6 0 0
12.64 0 0
12.68 0 0
12.72 0 0
12.76 0 0
12.8 0 0
12.84 0 0
12.88 0 0
12.92 0 0
12.96 0 0
13 0 0
13.04 0 0
13.08 0 0
13.12 0 0
13.16 0 0
13.2 0 0
13.24 0 0
13.28 0 0
13.32 0 0
13.36 0 0
13.4 0 0
13.44 0 0
13.48 0 0
13.52 0 0
13.56 0 0
13.6 0 0
13.64 0 0
13.68 0 0
13.72 0 0
13.76 0 0
13.8 0 0
13.84 0 0
13.88 0 0
13.92 0 0
13.96 0 0
14 0 0
14.04 0 0
14.08 0 0
14.12 0 0
14.16 0 0
14.2 0 0
14.24 0 0
14.28 0 0
14.32 0 0
14.36 0 0
14.4 0 0
14.44 0 0
14.48 0 0
14.52 0 0
14.56 0 0
14.6 0 0
14.64 0 0
14.68 0 0
14.72 0 0
14.76 0 0
14.8 0 0
14.84 0 0
14.88 0 0
14.92 0 0
14.96 0 0
15 0 0
15.04 0 0
15.08 0 0
15.12 0 0
15.16 0 0
15.2 0 0
15.24 0 0
15.28 0 0
15.32 0 0
15.36 0 0
15.4 0 0
15.44 0 0
15.48 0 0
15.52 0 0
15.56 0 0
15.6 0 0
15.64 0 0
15.68 0 0
15.72 0 0
15.76 0 0
15.8 0 0
15.84 0 0
15.88 0 0
15.92 0 0
15.96 0 0
16 0 0
16.04 0 0
16.08 0 0
16.12 0 0
16.16 0 0
16.2 0 0
16.24 0 0
16.28 0 0
16.32 0 0
16.36 0 0
16.4 0 0
16.44 0 0
16.48 0 0
16.52 0 0
16.56 0 0
16.6 0 0
16.64 0 0
16.68 0 0
16.72 0 0
16.76 0 0
16.8 0 0
16.84 0 0
16.88 0 0
16.92 0 0
16.96 0 0
17 0 0
17.04 0 0
17.08 0 0
17.12 0 0
17.16 0 0
17.2 0 0
17.24 0 0
17.28 0 0
17.32 0 0
17.36 0 0
17.4 0 0
17.44 0 0
17.48 0 0
17.52 0 0
17.56 0 0
17.6 0 0
17.64 0 0
17.68 0 0
17.72 0 0
17.76 0 0
17.8 0 0
17.84 0 0
17.88 0 0
17.92 0 0
17.96 0 0
18 0 0
18.04 0 0
18.08 0 0
18.12 0 0
18.16 0 0
18.2 0 0
18.24 0 0
18.28 0 0
18.32 0 0
18.36 0 0
18.4 0 0
18.44 0 0
18.48 0 0
18.52 0 0
18.56 0 0
18.6 0 0
18.64 0 0
18.68 0 0
18.72 0 0
18.76 0 0
18.8 0 0
18.84 0 0
18.88 0 0
18.92 0 0
18.96 0 0
19 0 0
19.04 0 0
19.08 0 0
19.12 0 0
19.16 0 0
19.2 0 0
19.24 0 0
19.28 0 0
19.32 0 0
19.36 0 0
19.4 0 0
19.44 0 0
19.48 0 0
19.52 0 0
19.56 0 0
19.6 0 0
19.64 0 0
19.68 0 0
19.72 0 0
19.76 0 0
19.8 0 0
19.84 0 0
19.88 0 0
19.92 0 0
19.96 0 0
20 0 0
20.04 0 0
20.08 0 0
20.12 0 0
20.16 0 0
20.2 0 0
20.24 0 0
20.28 0 0
20.32 0 0
20.36 0 0
20.4 0 0
20.44 0 0
20.48 0 0
20.52 0 0
20.56 0 0
20.6 0 0
20.64 0 0
20.68 0 0
20.72 0 0
20.76 0 0
20.8 0 0
20.84 0 0
20.88 0 0
20.92 0 0
20.96 0 0
21 0 0
21.04 0 0
21.08 0 0
21.12 0 0
21.16 0 0
21.2 0 0
21.24 0 0
21.28 0 0
21.32 0 0
21.36 0 0
21.4 0 0
21.44 0 0
21.48 0 0
21.52 0 0
21.56 0 0
21.6 0 0
21.64 0 0
21.68 0 0
21.72 0 0
21.76 0 0
21.8 0 0
21.84 0 0
21.88 0 0
21.92 0 0
21.96 0 0
22 0 0
22.04 0 0
22.08 0 0
22.12 0 0
22.16 0 0
22.2 0 0
22.24 0 0
22.28 0 0
22.32 0 0
22.36 0 0
22.4 0 0
22.44 0 0
22.48 0 0
22.52 0 0
22.56 0 0
22.6 0 0
22.64 0 0
22.68 0 0
22.72 0 0
22.76 0 0
22.8 0 0
22.84 0 0
22.88 0 0
22.92 0 0
22.96 0 0
23 0 0
23.04 0 0
23.08 0 0
23.12 0 0
23.16 0 0
23.2 0 0
23.24 0 0
23.28 0 0
23.32 0 0
23.36 0 0
23.4 0 0
23.44 0 0
23.48 0 0
23.52 0 0
23.56 0 0
23.6 0 0
23.64 0 0
23.68 0 0
23.72 0 0
23.76 0 0
23.8 0 0
23.84 0 0
23.88 0 0
23.92 0 0
23.96 0 0
24 0 0
24.04 0 0
24.08 0 0
24.12 0 0
24.16 0 0
24.2 0 0
24.24 0 0
24.28 0 0
24.32 0 0
24.36 0 0
24.4 0 0
24.44 0 0
24.48 0 0
24.52 0 0
24.56 0 0
24.6 0 0
24.64 0 0
24.68 0 0
24.72 0 0
24.76 0 0
24.8 0 0
24.84 0 0
24.88 0 0
24.92 0 0
24.96 0 0
25 0 0
25.04 0 0
25.08 0 0
25.12 0 0
25.16 0 0
25.2 0 0
25.24 0 0
25.28 0 0
25.32 0 0
25.36 0 0
25.4 0 0
25.44 0 0
25.48 0 0
25.52 0 0
25.56 0 0
25.6 0 0
25.64 0 0
25.68 0 0
25.72 0 0
25.76 0 0
25.8 0 0
25.84 0 0
25.88 0 0
25.92 0 0
25.96 0 0
26 0 0
26.04 0 0
26.08 0 0
26.12 0 0
26.16 0 0
26.2 0 0
26.24 0 0
26.28 0 0
26.32 0 0
26.36 0 0
26.4 0 0
26.44 0 0
26.48 0 0
26.52 0 0
26.56 0 0
26.6 0 0
26.64 0 0
26.68 0 0
26.72 0 0
26.76 0 0
26.8 0 0
26.84 0 0
26.88 0 0
26.92 0 0
26.96 0 0
27 0 0
27.04 0 0
27.08 0 0
27.12 0 0
27.16 0 0
27.2 0 0
27.24 0 0
27.28 0 0
27.32 0 0
27.36 0 0
27.4 0 0
27.44 0 0
27.48 0 0
27.52 0 0
27.56 0 0
27.6 0 0
27.64 0 0
27.68 0 0
27.72 0 0
27.76 0 0
27.8 0 0
27.84 0 0
27.88 0 0
27.92 0 0
27.96 0 0
28 0 0
28.04 0 0
28.08 0 0
28.12 0 0
28.16 0 0
28.2 0 0
28.24 0 0
28.28 0 0
28.32 0 0
28.36 0 0
28.4 0 0
28.44 0 0
28.48 0 0
28.52 0 0
28.56 0 0
28.6 0 0
28.64 0 0
28.68 0 0
28.72 0 0
28.76 0 0
28.8 0 0
28.84 0 0
28.88 0 0
28.92 0 0
28.96 0 0
29 0 0
29.04 0 0
29.08 0 0
29.12 0 0
29.16 0 0
29.2 0 0
29.24 0 0
29.28 0 0
29.32 0 0
29.36 0 0
29.4 0 0
29.44 0 0
29.48 0 0
29.52 0 0
29.56 0 0
29.6 0 0
29.64 0 0
29.68 0 0
29.72 0 0
29.76 0 0
29.8 0 0
29.84 0 0
29.88 0 0
29.92 0 0
29.96 0 0
30 0 0
30.04 0 0
30.08 0 0
30.12 0 0
30.16 0 0
30.2 0 0
30.24 0 0
30.28 0 0
30.32 0 0
30.36 0 0
30.4 0 0
30.44 0 0
30.48 0 0
30.52 0 0
30.56 0 0
30.6 0 0
30.64 0 0
30.68 0 0
30.72 0 0
30.76 0 0
30.8 0 0
30.84 0 0
30.88 0 0
30.92 0 0
30.96 0 0
31 0 0
31.04 0 0
31.08 0 0
31.12 0 0
31.16 0 0
31.2 0 0
31.24 0 0
31.28 0 0
31.32 0 0
31.36 0 0
31.4 0 0
31.44 0 0
31.48 0 0
31.52 0 0
31.56 0 0
31.6 0 0
31.64 0 0
31.68 0 0
31.72 0 0
31.76 0 0
31.8 0 0
31.84 0 0
31.88 0 0
31.92 0 0
31.96 0 0
0 0.005 0
0.04 0.005 0
0.08 0.005 0
0.12 0.005 0
0.16 0.005 0
0.2 0.005 0
0.24 0.005 0
0.28 0.005 0
0.32 0.005 0
0.36 0.005 0
0.4 0.005 0
0.44 0.005 0
0.48 0.005 0
0.52 0.005 0
0.56 0.005 0
0.6 0.005 0
0.64 0.005 0
0.68 0.005 0
0.72 0.005 0
0.76 0.005 0
0.8 0.005 0
0.84 0.005 0
0.88 0.005 0
0.92 0.005 0
0.96 0.005 0
1 0.005 0
1.04 0.005 0
1.08 0.005 0
1.12 0.005 0
1.16 0.005 0
1.2 0.005 0
1.24 0.005 0
1.28 0.005 0
1.32 0.005 0
1.36 0.005 0
1.4 0.005 0
1.44 0.005 0
1.48 0.005 0
1.52 0.005 0
1.56 0.005 0
1.6 0.005 0
1.64 0.005 0
1.68 0.005 0
1.72 0.005 0
1.76 0.005 0
1.8 0.005 0
1.84 0.005 0
1.88 0.005 0
1.92 0.005 0
1.96 0.005 0
2 0.005 0
2.04 0.005 0
2.08 0.005 0
2.12 0.005 0
2.16 0.005 0
2.2 0.005 0
2.24 0.005 0
2.28 0.005 0
2.32 0.005 0
2.36 0.005 0
2.4 0.005 0
2.44 0.005 0
2.48 0.005 0
2.52 0.005 0
2.56 0.005 0
2.6 0.005 0
2.64 0.005 0
2.68 0.005 0
2.72 0.005 0
2.76 0.005 0
2.8 0.005 0
2.84 0.005 0
2.88 0.005 0
2.92 0.005 0
2.96 0.005 0
3 0.005 0
3.04 0.005 0
3.08 0.005 0
3.12 0.005 0
3.16 0.005 0
3.2 0.005 0
3.24 0.005 0
3.28 0.005 0
3.32 0.005 0
3.36 0.005 0
3.4 0.005 0
3.44 0.005 0
3.48 0.005 0
3.52 0.005 0
3.56 0.005 0
3.6 0.005 0
3.64 0.005 0
3.68 0.005 0
3.72 0.005 0
3.76 0.005 0
3.8 0.005 0
3.84 0.005 0
3.88 0.005 0
3.92 0.005 0
3.96 0.005 0
4 0.005 0
4.04 0.005 0
4.08 0.005 0
4.12 0.005 0
4.16 0.005 0
4.2 0.005 0
4.24 0.005 0
4.28 0.005 0
4.32 0.005 0
4.36 0.005 0
4.4 0.005 0
4.44 0.005 0
4.48 0.005 0
4.52 0.005 0
4.56 0.005 0
4.6 0.005 0
4.64 0.005 0
4.68 0.005 0
4.72 0.005 0
4.76 0.005 0
4.8 0.005 0
4.84 0.005 0
4.88 0.005 0
4.92 0.005 0
4.96 0.005 0
5 0.005 0
5.04 0.005 0
5.08 0.005 0
5.12 0.005 0
5.16 0.005 0
5.2 0.005 0
5.24 0.005 0
5.28 0.005 0
5.32 0.005 0
5.36 0.005 0
5.4 0.005 0
5.44 0.005 0
5.48 0.005 0
5.52 0.005 0
5.56 0.005 0
5.6 0.005 0
5.64 0.005 0
5.68 0.005 0
5.72 0.005 0
5.76 0.005 0
5.8 0.005 0
5.84 0.005 0
5.88 0.005 0
5.92 0.005 0
5.96 0.005 0
6 0.005 0
6.04 0.005 0
6.08 0.005 0
6.12 0.005 0
6.16 0.005 0
6.2 0.005 0
6.24 0.005 0
6.28 0.005 0
6.32 0.005 0
6.36 0.005 0
6.4 0.005 0
6.44 0.005 0
6.48 0.005 0
6.52 0.005 0
6.56 0.005 0
6.6 0.005 0
6.64 0.005 0
6.68 0.005 0
6.72 0.005 0
6.76 0.005 0
6.8 0.005 0
6.84 0.005 0
6.88 0.005 0
6.92 0.005 0
6.96 0.005 0
7 0.005 0
7.04 0.005 0
7.08 0.005 0
7.12 0.005 0
7.16 0.005 0
7.2 0.005 0
7.24 0.005 0
7.28 0.005 0
7.32 0.005 0
7.36 0.005 0
7.4 0.005 0
[...]
POINT_DATA 160000

SCALARS u float 1
LOOKUP_TABLE default
-1
-0.48335
-0.183958
-0.10884
-0.0810273
-0.0668273
-0.0581111
-0.0521451
-0.0477694
-0.044406
-0.0417323
-0.0395521
-0.0377385
-0.0362052
-0.0348912
-0.0337519
-0.0327541
-0.0318722
-0.0310865
-0.0303814
-0.0297445
-0.0291656
-0.0286367
-0.0281508
-0.0277026
-0.0272873
-0.0269011
-0.0265407
-0.0262032
-0.0258863
-0.0255879
-0.0253064
-0.0250402
-0.024788
-0.0245486
-0.0243211
-0.0241045
-0.0238981
-0.0237012
-0.0235131
-0.0233335
-0.0231618
-0.0229975
-0.0228403
-0.02269
-0.0225461
-0.0224085
-0.0222769
-0.0221511
-0.0220311
-0.0219166
-0.0218077
-0.0217043
-0.0216066
-0.0215144
-0.021428
-0.0213474
-0.0212725
-0.0212034
-0.02114
-0.0210822
-0.0210298
-0.0209824
-0.0209397
-0.0209012
-0.0208664
-0.0208348
-0.0208058
-0.0207792
-0.0207546
-0.0207318
-0.0207107
-0.020691
-0.0206726
-0.0206552
-0.0206385
-0.0206224
-0.0206065
-0.0205908
-0.0205751
-0.0205596
-0.0205443
-0.0205295
-0.0205156
-0.0205026
-0.020491
-0.0204808
-0.0204721
-0.0204649
-0.0204592
-0.0204548
-0.0204515
-0.0204492
-0.0204476
-0.0204466
-0.020446
-0.0204457
-0.0204456
-0.0204455
-0.0204455
-0.0204454
-0.0204453
-0.0204452
-0.020445
-0.0204448
-0.0204446
-0.0204443
-0.020444
-0.0204437
-0.0204434
-0.0204431
-0.0204427
-0.0204424
-0.020442
-0.0204417
-0.0204413
-0.020441
-0.0204407
-0.0204403
-0.02044
-0.0204396
-0.0204393
-0.0204389
-0.0204386
-0.0204383
-0.0204379
-0.0204376
-0.0204372
-0.0204369
-0.0204366
-0.0204362
-0.0204359
-0.0204355
-0.0204352
-0.0204348
-0.0204345
-0.0204342
-0.0204338
-0.0204335
-0.0204331
-0.0204328
-0.0204324
-0.0204321
-0.0204318
-0.0204314
-0.0204311
-0.0204307
-0.0204304
-0.02043
-0.0204297
-0.0204294
-0.020429
-0.0204287
-0.0204283
-0.020428
-0.0204276
-0.0204273
-0.020427
-0.0204266
-0.0204263
-0.0204259
-0.0204256
-0.0204252
-0.0204249
-0.0204246
-0.0204242
-0.0204239
-0.0204235
-0.0204232
-0.0204228
-0.0204225
-0.0204221
-0.0204218
-0.0204215
-0.0204211
-0.0204208
-0.0204204
-0.0204201
-0.0204197
-0.0204194
-0.020419
-0.0204187
-0.0204184
-0.020418
-0.0204177
-0.0204173
-0.020417
-0.0204166
-0.0204163
-0.0204159
-0.0204156
-0.0204153
-0.0204149
-0.0204146
-0.0204142
-0.0204139
-0.0204135
-0.0204132
-0.0204128
-0.0204125
-0.0204121
-0.0204118
-0.0204115
-0.0204111
-0.0204108
-0.0204104
-0.0204101
-0.0204097
-0.0204094
-0.020409
-0.0204087
-0.0204083
-0.020408
-0.0204076
-0.0204073
-0.020407
-0.0204066
-0.0204063
-0.0204059
-0.0204056
-0.0204052
-0.0204049
-0.0204045
-0.0204042
-0.0204038
-0.0204035
-0.0204031
-0.0204028
-0.0204024
-0.0204021
-0.0204017
-0.0204014
-0.0204011
-0.0204007
-0.0204004
-0.0204
-0.0203997
-0.0203993
-0.020399
-0.0203986
-0.0203983
-0.0203979
-0.0203976
-0.0203972
-0.0203969
-0.0203965
-0.0203962
-0.0203958
-0.0203955
-0.0203951
-0.0203948
-0.0203944
-0.0203941
-0.0203937
-0.0203934
-0.020393
-0.0203927
-0.0203923
-0.020392
-0.0203916
-0.0203913
-0.0203909
-0.0203906
-0.0203902
-0.0203899
-0.0203895
-0.0203892
-0.0203888
-0.0203885
-0.0203881
-0.0203878
-0.0203874
-0.0203871
-0.0203867
-0.0203864
-0.020386
-0.0203857
-0.0203853
-0.020385
-0.0203846
-0.0203843
-0.0203839
-0.0203836
-0.0203832
-0.0203829
-0.0203825
-0.0203822
-0.0203818
-0.0203815
-0.0203811
-0.0203808
-0.0203804
-0.0203801
-0.0203797
-0.0203794
-0.020379
-0.0203787
-0.0203783
-0.020378
-0.0203776
-0.0203772
-0.0203769
-0.0203765
-0.0203762
-0.0203758
-0.0203755
-0.0203751
-0.0203748
-0.0203744
-0.0203741
-0.0203737
-0.0203734
-0.020373
-0.0203727
-0.0203723
-0.020372
-0.0203716
-0.0203712
-0.0203709
-0.0203705
-0.0203702
-0.0203698
-0.0203695
-0.0203691
-0.0203688
-0.0203684
-0.0203681
-0.0203677
-0.0203673
-0.020367
-0.0203666
-0.0203663
-0.0203659
-0.0203656
-0.0203652
-0.0203649
-0.0203645
-0.0203641
-0.0203638
-0.0203634
-0.0203631
-0.0203627
-0.0203624
-0.020362
-0.0203616
-0.0203613
-0.0203609
-0.0203606
-0.0203602
-0.0203599
-0.0203595
-0.0203592
-0.0203588
-0.0203584
-0.0203581
-0.0203577
-0.0203574
-0.020357
-0.0203566
-0.0203563
-0.0203559
-0.0203556
-0.0203552
-0.0203549
-0.0203545
-0.0203541
-0.0203538
-0.0203534
-0.0203531
-0.0203527
-0.0203523
-0.020352
-0.0203516
-0.0203513
-0.0203509
-0.0203505
-0.0203502
-0.0203498
-0.0203495
-0.0203491
-0.0203487
-0.0203484
-0.020348
-0.0203477
-0.0203473
-0.0203469
-0.0203466
-0.0203462
-0.0203459
-0.0203455
-0.0203451
-0.0203448
-0.0203444
-0.020344
-0.0203437
-0.0203433
-0.020343
-0.0203426
-0.0203422
-0.0203419
-0.0203415
-0.0203411
-0.0203408
-0.0203404
-0.0203401
-0.0203397
-0.0203393
-0.020339
-0.0203386
-0.0203382
-0.0203379
-0.0203375
-0.0203371
-0.0203368
-0.0203364
-0.020336
-0.0203357
-0.0203353
-0.0203349
-0.0203346
-0.0203342
-0.0203338
-0.0203335
-0.0203331
-0.0203328
-0.0203324
-0.020332
-0.0203316
-0.0203313
-0.0203309
-0.0203305
-0.0203302
-0.0203298
-0.0203294
-0.0203291
-0.0203287
-0.0203283
-0.020328
-0.0203276
-0.0203272
-0.0203269
-0.0203265
-0.0203261
-0.0203258
-0.0203254
-0.020325
-0.0203246
-0.0203243
-0.0203239
-0.0203235
-0.0203232
-0.0203228
-0.0203224
-0.020322
-0.0203217
-0.0203213
-0.0203209
-0.0203206
-0.0203202
-0.0203198
-0.0203194
-0.0203191
-0.0203187
-0.0203183
-0.0203179
-0.0203176
-0.0203172
-0.0203168
-0.0203164
-0.0203161
-0.0203157
-0.0203153
-0.0203149
-0.0203146
-0.0203142
-0.0203138
-0.0203134
-0.0203131
-0.0203127
-0.0203123
-0.0203119
-0.0203116
-0.0203112
-0.0203108
-0.0203104
-0.02031
-0.0203097
-0.0203093
-0.0203089
-0.0203085
-0.0203082
-0.0203078
-0.0203074
-0.020307
-0.0203066
-0.0203062
-0.0203059
-0.0203055
-0.0203051
-0.0203047
-0.0203043
-0.020304
-0.0203036
-0.0203032
-0.0203028
-0.0203024
-0.020302
-0.0203017
-0.0203013
-0.0203009
-0.0203005
-0.0203001
-0.0202997
-0.0202993
-0.020299
-0.0202986
-0.0202982
-0.0202978
-0.0202974
-0.020297
-0.0202966
-0.0202962
-0.0202958
-0.0202955
-0.0202951
-0.0202947
-0.0202943
-0.0202939
-0.0202935
-0.0202931
-0.0202927
-0.0202923
-0.0202919
-0.0202915
-0.0202911
-0.0202907
-0.0202904
-0.02029
-0.0202896
-0.0202892
-0.0202888
-0.0202884
-0.020288
-0.0202876
-0.0202872
-0.0202868
-0.0202864
-0.020286
-0.0202856
-0.0202852
-0.0202848
-0.0202844
-0.020284
-0.0202836
-0.0202832
-0.0202828
-0.0202824
-0.020282
-0.0202816
-0.0202812
-0.0202807
-0.0202803
-0.0202799
-0.0202795
-0.0202791
-0.0202787
-0.0202783
-0.0202779
-0.0202775
-0.0202771
-0.0202767
-0.0202762
-0.0202758
-0.0202754
-0.020275
-0.0202746
-0.0202742
-0.0202737
-0.0202733
-0.0202729
-0.0202725
-0.0202721
-0.0202717
-0.0202712
-0.0202708
-0.0202704
-0.02027
-0.0202695
-0.0202691
-0.0202687
-0.0202683
-0.0202678
-0.0202674
-0.020267
-0.0202665
-0.0202661
-0.0202657
-0.0202652
-0.0202648
-0.0202644
-0.0202639
-0.0202635
-0.0202631
-0.0202626
-0.0202622
-0.0202617
-0.0202613
-0.0202609
-0.0202604
-0.02026
-0.0202595
-0.0202591
-0.0202586
-0.0202582
-0.0202577
-0.0202573
-0.0202568
-0.0202564
-0.0202559
-0.0202554
-0.020255
-0.0202545
-0.020254
-0.0202536
-0.0202531
-0.0202526
-0.0202522
-0.0202517
-0.0202512
-0.0202507
-0.0202503
-0.0202498
-0.0202493
-0.0202488
-0.0202483
-0.0202479
-0.0202474
-0.0202469
-0.0202464
-0.0202459
-0.0202454
-0.0202449
-0.0202444
-0.0202439
-0.0202434
-0.0202429
-0.0202423
-0.0202418
-0.0202413
-0.0202408
-0.0202403
-0.0202397
-0.0202392
-0.0202387
-0.0202381
-0.0202376
-0.0202371
-0.0202365
-0.020236
-0.0202354
-0.0202349
-0.0202343
-0.0202338
-0.0202332
-0.0202326
-0.0202321
-0.0202315
-0.0202309
-0.0202303
-0.0202298
-0.0202292
-0.0202286
-0.020228
-0.0202274
-0.0202268
-0.0202262
-0.0202256
-0.020225
-0.0202243
-0.0202237
-0.0202231
-0.0202224
-0.0202218
-0.0202212
-0.0202205
-0.0202199
-0.0202192
-0.0202186
-0.0202179
-0.0202172
-0.0202166
-0.0202159
-0.0202152
-0.0202145
-0.0202138
-0.0202131
-0.0202124
-0.0202117
-0.020211
-0.0202103
-0.0202096
-0.0202088
-0.0202081
-0.0202074
-0.0202066
-0.0202059
-0.0202051
-0.0202044
-0.0202036
-0.0202028
-0.0202021
-0.0202013
-0.0202005
-0.0201997
-0.0201989
-0.0201981
-0.0201973
-0.0201965
-0.0201957
-0.0201949
-0.0201941
-0.0201933
-0.0201924
-0.0201916
-0.0201908
-0.0201899
-0.0201891
-0.0201882
-0.0201873
-0.0201865
-0.0201856
-0.0201848
-0.0201839
-0.020183
-0.0201821
-0.0201812
-0.0201804
-0.0201795
-0.0201786
-0.0201777
-0.0201768
-0.0201759
-0.020175
-0.0201741
-0.0201731
-0.0201722
-0.0201713
-0.0201704
-0.0201695
-0.0201686
-0.0201676
-0.0201667
-0.0201658
-0.0201649
-0.0201639
-0.020163
-0.0201621
-0.0201611
-0.0201602
-0.0201593
-0.0201584
-0.0201574
-0.0201565
-0.0201556
-0.0201546
-0.0201537
-0.0201528
-0.0201519
-0.0201509
-0.02015
-0.0201491
-0.0201482
-0.0201473
-0.0201463
-0.0201454
-0.0201445
-0.0201436
-0.0201427
-0.0201418
-0.0201409
-0.02014
-0.020139
-0.0201381
-0.0201372
-0.0201363
-0.0201353
-0.0201344
-0.0201334
-0.0201324
-0.0201314
-0.0201304
-0.0201293
-0.0201281
-0.0201269
-0.0201255
-0.0201241
-0.0201221
-0.0201216
-0.0201216
-0.0201216
1
0.48335
0.183958
0.10884
0.0810273
0.0668273
0.0581111
0.0521451
0.0477694
0.044406
0.0417323
0.0395521
0.0377385
0.0362052
0.0348912
0.0337519
0.0327541
0.0318722
0.0310865
0.0303814
0.0297445
0.0291656
0.0286367
0.0281508
0.0277026
0.0272873
0.0269011
0.0265407
0.0262032
0.0258863
0.0255879
0.0253064
0.0250402
0.024788
0.0245486
0.0243211
0.0241045
0.0238981
0.0237012
0.0235131
0.0233335
0.0231618
0.0229975
0.0228403
0.02269
0.0225461
0.0224085
0.0222769
0.0221511
0.0220311
0.0219166
0.0218077
0.0217043
0.0216066
0.0215144
0.021428
0.0213474
0.0212725
0.0212034
0.02114
0.0210822
0.0210298
0.0209824
0.0209397
0.0209012
0.0208664
0.0208348
0.0208058
0.0207792
0.0207546
0.0207318
0.0207107
0.020691
0.0206726
0.0206552
0.0206385
0.0206224
0.0206065
0.0205908
0.0205751
0.0205596
0.0205443
0.0205295
0.0205156
0.0205026
0.020491
0.0204808
0.0204721
0.0204649
0.0204592
0.0204548
0.0204515
0.0204492
0.0204476
0.0204466
0.020446
0.0204457
0.0204456
0.0204455
0.0204455
0.0204454
0.0204453
0.0204452
0.020445
0.0204448
0.0204446
0.0204443
0.020444
0.0204437
0.0204434
0.0204431
0.0204427
0.0204424
0.020442
0.0204417
0.0204413
0.020441
0.0204407
0.0204403
0.02044
0.0204396
0.0204393
0.0204389
0.0204386
0.0204383
0.0204379
0.0204376
0.0204372
0.0204369
0.0204366
0.0204362
0.0204359
0.0204355
0.0204352
0.0204348
0.0204345
0.0204342
0.0204338
0.0204335
0.0204331
0.0204328
0.0204324
0.0204321
0.0204318
0.0204314
0.0204311
0.0204307
0.0204304
0.02043
0.0204297
0.0204294
0.020429
0.0204287
0.0204283
0.020428
0.0204276
0.0204273
0.020427
0.0204266
0.0204263
0.0204259
0.0204256
0.0204252
0.0204249
0.0204246
0.0204242
0.0204239
0.0204235
0.0204232
0.0204228
0.0204225
0.0204221
0.0204218
0.0204215
0.0204211
0.0204208
0.0204204
0.0204201
0.0204197
0.0204194
0.020419
0.0204187
0.0204184
0.020418
0.0204177
0.0204173
0.020417
0.0204166
0.0204163
0.0204159
0.0204156
0.0204153
0.0204149
0.0204146
0.0204142
0.0204139
0.0204135
0.0204132
0.0204128
0.0204125
0.0204121
0.0204118
0.0204115
0.0204111
0.0204108
0.0204104
0.0204101
0.0204097
0.0204094
0.020409
0.0204087
0.0204083
0.020408
0.0204076
0.0204073
0.020407
0.0204066
0.0204063
0.0204059
0.0204056
0.0204052
0.0204049
0.0204045
0.0204042
0.0204038
0.0204035
0.0204031
0.0204028
0.0204024
0.0204021
0.0204017
0.0204014
0.0204011
0.0204007
0.0204004
0.0204
0.0203997
0.0203993
0.020399
0.0203986
0.0203983
0.0203979
0.0203976
0.0203972
0.0203969
0.0203965
0.0203962
0.0203958
0.0203955
0.0203951
0.0203948
0.0203944
0.0203941
0.0203937
0.0203934
0.020393
0.0203927
0.0203923
0.020392
0.0203916
0.0203913
0.0203909
0.0203906
0.0203902
0.0203899
0.0203895
0.0203892
0.0203888
0.0203885
0.0203881
0.0203878
0.0203874
0.0203871
0.0203867
0.0203864
0.020386
0.0203857
0.0203853
0.020385
0.0203846
0.0203843
0.0203839
0.0203836
0.0203832
0.0203829
0.0203825
0.0203822
0.0203818
0.0203815
0.0203811
0.0203808
0.0203804
0.0203801
0.0203797
0.0203794
0.020379
0.0203787
0.0203783
0.020378
0.0203776
0.0203772
0.0203769
0.0203765
0.0203762
0.0203758
0.0203755
0.0203751
0.0203748
0.0203744
0.0203741
0.0203737
0.0203734
0.020373
0.0203727
0.0203723
0.020372
0.0203716
0.0203712
0.0203709
0.0203705
0.0203702
0.0203698
0.0203695
0.0203691
0.0203688
0.0203684
0.0203681
0.0203677
0.0203673
0.020367
0.0203666
0.0203663
0.0203659
0.0203656
0.0203652
0.0203649
0.0203645
0.0203641
0.0203638
0.0203634
0.0203631
0.0203627
0.0203624
0.020362
0.0203616
0.0203613
0.0203609
0.0203606
0.0203602
0.0203599
0.0203595
0.0203592
0.0203588
0.0203584
0.0203581
0.0203577
0.0203574
0.020357
0.0203566
0.0203563
0.0203559
0.0203556
0.0203552
0.0203549
0.0203545
0.0203541
0.0203538
0.0203534
0.0203531
0.0203527
0.0203523
0.020352
0.0203516
0.0203513
0.0203509
0.0203505
0.0203502
0.0203498
0.0203495
0.0203491
0.0203487
0.0203484
0.020348
0.0203477
0.0203473
0.0203469
0.0203466
0.0203462
0.0203459
0.0203455
0.0203451
0.0203448
0.0203444
0.020344
0.0203437
0.0203433
0.020343
0.0203426
0.0203422
0.0203419
0.0203415
0.0203411
0.0203408
0.0203404
0.0203401
0.0203397
0.0203393
0.020339
0.0203386
0.0203382
0.0203379
0.0203375
0.0203371
0.0203368
0.0203364
0.020336
0.0203357
0.0203353
0.0203349
0.0203346
0.0203342
0.0203338
0.0203335
0.0203331
0.0203328
0.0203324
0.020332
0.0203316
0.0203313
0.0203309
0.0203305
0.0203302
0.0203298
0.0203294
0.0203291
0.0203287
0.0203283
0.020328
0.0203276
0.0203272
0.0203269
0.0203265
0.0203261
0.0203258
0.0203254
0.020325
0.0203246
0.0203243
0.0203239
0.0203235
0.0203232
0.0203228
0.0203224
0.020322
0.0203217
0.0203213
0.0203209
0.0203206
0.0203202
0.0203198
0.0203194
0.0203191
0.0203187
0.0203183
0.0203179
0.0203176
0.0203172
0.0203168
0.0203164
0.0203161
0.0203157
0.0203153
0.0203149
0.0203146
0.0203142
0.0203138
0.0203134
0.0203131
0.0203127
0.0203123
0.0203119
0.0203116
0.0203112
0.0203108
0.0203104
0.02031
0.0203097
0.0203093
0.0203089
0.0203085
0.0203082
0.0203078
0.0203074
0.020307
0.0203066
0.0203062
0.0203059
0.0203055
0.0203051
0.0203047
0.0203043
0.020304
0.0203036
0.0203032
0.0203028
0.0203024
0.020302
0.0203017
0.0203013
0.0203009
0.0203005
0.0203001
0.0202997
0.0202993
0.020299
0.0202986
0.0202982
0.0202978
0.0202974
0.020297
0.0202966
0.0202962
0.0202958
0.0202955
0.0202951
0.0202947
0.0202943
0.0202939
0.0202935
0.0202931
0.0202927
0.0202923
0.0202919
0.0202915
0.0202911
0.0202907
0.0202904
0.02029
0.0202896
0.0202892
0.0202888
0.0202884
0.020288
0.0202876
0.0202872
0.0202868
0.0202864
0.020286
0.0202856
0.0202852
0.0202848
0.0202844
0.020284
0.0202836
0.0202832
0.0202828
0.0202824
0.020282
0.0202816
0.0202812
0.0202807
0.0202803
0.0202799
0.0202795
0.0202791
0.0202787
0.0202783
0.0202779
0.0202775
0.0202771
0.0202767
0.0202762
0.0202758
0.0202754
0.020275
0.0202746
0.0202742
0.0202737
0.0202733
0.0202729
0.0202725
0.0202721
0.0202717
0.0202712
0.0202708
0.0202704
0.02027
0.0202695
0.0202691
0.0202687
0.0202683
0.0202678
0.0202674
0.020267
0.0202665
0.0202661
0.0202657
0.0202652
0.0202648
0.0202644
0.0202639
0.0202635
0.0202631
0.0202626
0.0202622
0.0202617
0.0202613
0.0202609
0.0202604
0.02026
0.0202595
0.0202591
0.0202586
0.0202582
0.0202577
0.0202573
0.0202568
0.0202564
0.0202559
0.0202554
0.020255
0.0202545
0.020254
0.0202536
0.0202531
0.0202526
0.0202522
0.0202517
0.0202512
0.0202507
0.0202503
0.0202498
0.0202493
0.0202488
0.0202483
0.0202479
0.0202474
0.0202469
0.0202464
0.0202459
0.0202454
0.0202449
0.0202444
0.0202439
0.0202434
0.0202429
0.0202423
0.0202418
0.0202413
0.0202408
0.0202403
0.0202397
0.0202392
0.0202387
0.0202381
0.0202376
0.0202371
0.0202365
0.020236
0.0202354
0.0202349
0.0202343
0.0202338
0.0202332
0.0202326
0.0202321
0.0202315
0.0202309
0.0202303
0.0202298
0.0202292
0.0202286
0.020228
0.0202274
0.0202268
0.0202262
0.0202256
0.020225
0.0202243
0.0202237
0.0202231
0.0202224
0.0202218
0.0202212
0.0202205
0.0202199
0.0202192
0.0202186
0.0202179
0.0202172
0.0202166
0.0202159
0.0202152
0.0202145
0.0202138
0.0202131
0.0202124
0.0202117
0.020211
0.0202103
0.0202096
0.0202088
0.0202081
0.0202074
0.0202066
0.0202059
0.0202051
0.0202044
0.0202036
0.0202028
0.0202021
0.0202013
0.0202005
0.0201997
0.0201989
0.0201981
0.0201973
0.0201965
0.0201957
0.0201949
0.0201941
0.0201933
0.0201924
0.0201916
0.0201908
0.0201899
0.0201891
0.0201882
0.0201873
0.0201865
0.0201856
0.0201848
0.0201839
0.020183
0.0201821
0.0201812
0.0201804
0.0201795
0.0201786
0.0201777
0.0201768
0.0201759
0.020175
0.0201741
0.0201731
0.0201722
0.0201713
0.0201704
0.0201695
0.0201686
0.0201676
0.0201667
0.0201658
0.0201649
0.0201639
0.020163
0.0201621
0.0201611
0.0201602
0.0201593
0.0201584
0.0201574
0.0201565
0.0201556
0.0201546
0.0201537
0.0201528
0.0201519
0.0201509
0.02015
0.0201491
0.0201482
0.0201473
0.0201463
0.0201454
0.0201445
0.0201436
0.0201427
0.0201418
0.0201409
0.02014
0.020139
0.0201381
0.0201372
0.0201363
0.0201353
0.0201344
0.0201334
0.0201324
0.0201314
0.0201304
0.0201293
0.0201281
0.0201269
0.0201255
0.0201241
0.0201221
0.0201216
0.0201216
0.0201216
1
0.969179
0.495605
0.31421
0.237882
0.197379
0.172115
0.154676
0.14182
0.131905
0.124003
0.117548
0.11217
0.107618
0.103713
0.100326
0.0973567
0.094732
0.0923929
0.0902936
0.088397
0.0866734
0.0850986
0.0836525
0.0823185
0.0810829
0.079934
0.0788621
0.0778588
0.0769171
0.0760308
0.0751948
0.0744045
0.0736559
0.0729457
0.0722709
0.0716288
0.0710171
0.0704338
0.0698772
0.0693455
0.0688375
0.0683519
0.0678876
0.0674437
0.0670192
0.0666135
0.066226
0.0658561
0.0655034
0.0651677
0.0648488
0.0645466
0.0642614
0.0639932
0.0637422
0.0635084
0.0632919
0.0630925
0.06291
0.0627438
0.0625931
0.0624571
0.0623344
0.0622236
0.0621233
0.0620319
0.0619481
0.0618709
0.0617994
0.061733
0.0616712
0.0616134
0.061559
0.0615076
0.0614582
0.0614104
0.0613635
0.0613172
0.0612716
0.0612267
0.0611832
0.0611417
0.0611028
0.0610673
0.0610357
0.0610083
0.0609852
0.0609664
0.0609515
0.0609402
0.0609319
0.0609261
0.0609222
0.0609197
0.0609183
0.0609175
0.0609171
0.0609168
0.0609167
0.0609164
0.0609161
0.0609156
0.060915
0.0609143
0.0609135
0.0609127
0.0609117
0.0609108
0.0609097
0.0609087
0.0609077
0.0609066
0.0609056
0.0609045
0.0609035
0.0609024
0.0609013
0.0609003
0.0608992
0.0608982
0.0608971
0.0608961
0.060895
0.060894
0.0608929
0.0608919
0.0608908
0.0608898
0.0608887
0.0608877
0.0608866
0.0608856
0.0608845
0.0608835
0.0608824
0.0608814
0.0608803
0.0608793
0.0608782
0.0608772
0.0608761
0.0608751
0.060874
0.060873
0.0608719
0.0608709
0.0608698
0.0608688
0.0608677
0.0608667
0.0608656
0.0608645
0.0608635
0.0608624
0.0608614
0.0608603
0.0608593
0.0608582
0.0608572
0.0608561
0.060855
0.060854
0.0608529
0.0608519
0.0608508
0.0608498
0.0608487
0.0608477
0.0608466
0.0608455
0.0608445
0.0608434
0.0608424
0.0608413
0.0608402
0.0608392
0.0608381
0.0608371
0.060836
0.0608349
0.0608339
0.0608328
0.0608318
0.0608307
0.0608296
0.0608286
0.0608275
0.0608265
0.0608254
0.0608243
0.0608233
0.0608222
0.0608212
0.0608201
0.060819
0.060818
0.0608169
0.0608158
0.0608148
0.0608137
0.0608127
0.0608116
0.0608105
0.0608095
0.0608084
0.0608073
0.0608063
0.0608052
0.0608041
0.0608031
0.060802
0.0608009
0.0607999
0.0607988
0.0607977
0.0607967
0.0607956
0.0607945
0.0607935
0.0607924
0.0607913
0.0607903
0.0607892
0.0607881
0.060787
0.060786
0.0607849
0.0607838
0.0607828
0.0607817
0.0607806
0.0607796
0.0607785
0.0607774
0.0607763
0.0607753
0.0607742
0.0607731
0.0607721
0.060771
0.0607699
0.0607688
0.0607678
0.0607667
0.0607656
0.0607645
0.0607635
0.0607624
0.0607613
0.0607602
0.0607592
0.0607581
0.060757
0.0607559
0.0607549
0.0607538
0.0607527
0.0607516
0.0607505
0.0607495
0.0607484
0.0607473
0.0607462
0.0607452
0.0607441
0.060743
0.0607419
0.0607408
0.0607398
0.0607387
0.0607376
0.0607365
0.0607354
0.0607343
0.0607333
0.0607322
0.0607311
0.06073
0.0607289
0.0607279
0.0607268
0.0607257
0.0607246
0.0607235
0.0607224
0.0607213
0.0607203
0.0607192
0.0607181
0.060717
0.0607159
0.0607148
0.0607137
0.0607127
0.0607116
0.0607105
0.0607094
0.0607083
0.0607072
0.0607061
0.060705
0.0607039
0.0607029
0.0607018
0.0607007
0.0606996
0.0606985
0.0606974
0.0606963
0.0606952
0.0606941
0.060693
0.0606919
0.0606908
0.0606897
0.0606886
0.0606876
0.0606865
0.0606854
0.0606843
0.0606832
0.0606821
0.060681
0.0606799
0.0606788
0.0606777
0.0606766
0.0606755
0.0606744
0.0606733
0.0606722
0.0606711
0.06067
0.0606689
0.0606678
0.0606667
0.0606656
0.0606645