# vtk DataFile Version 2.0
FlowField
ASCII
DATASET STRUCTURED_GRID
DIMENSIONS 800 1 200
POINTS 160000 float
0 0 0
0.04 0 0
0.08 0 0
0.12 0 0
0.16 0 0
0.2 0 0
0.24 0 0
0.28 0 0
0.32 0 0
0.36 0 0
0.4 0 0
0.44 0 0
0.48 0 0
0.52 0 0
0.56 0 0
0.6 0 0
0.64 0 0
0.68 0 0
0.72 0 0
0.76 0 0
0.8 0 0
0.84 0 0
0.88 0 0
0.92 0 0
0.96 0 0
1 0 0
1.04 0 0
1.08 0 0
1.12 0 0
1.16 0 0
1.2 0 0
1.24 0 0
1.28 0 0
1.32 0 0
1.36 0 0
1.4 0 0
1.44 0 0
1.48 0 0
1.52 0 0
1.56 0 0
1.6 0 0
1.64 0 0
1.68 0 0
1.72 0 0
1.76 0 0
1.8 0 0
1.84 0 0
1.88 0 0
1.92 0 0
1.96 0 0
2 0 0
2.04 0 0
2.08 0 0
2.12 0 0
2.16 0 0
2.2 0 0
2.24 0 0
2.28 0 0
2.32 0 0
2.36 0 0
2.4 0 0
2.44 0 0
2.48 0 0
2.52 0 0
2.56 0 0
2.6 0 0
2.64 0 0
2.68 0 0
2.72 0 0
2.76 0 0
2.8 0 0
2.84 0 0
2.88 0 0
2.92 0 0
2.96 0 0
3 0 0
3.04 0 0
3.08 0 0
3.12 0 0
3.16 0 0
3.2 0 0
3.24 0 0
3.28 0 0
3.32 0 0
3.36 0 0
3.4 0 0
3.44 0 0
3.48 0 0
3.52 0 0
3.56 0 0
3.6 0 0
3.64 0 0
3.68 0 0
3.72 0 0
3.76 0 0
3.8 0 0
3.84 0 0
3.88 0 0
3.92 0 0
3.96 0 0
4 0 0
4.04 0 0
4.08 0 0
4.12 0 0
4.16 0 0
4.2 0 0
4.24 0 0
4.28 0 0
4.32 0 0
4.36 0 0
4.4 0 0
4.44 0 0
4.48 0 0
4.52 0 0
4.56 0 0
4.6 0 0
4.64 0 0
4.68 0 0
4.72 0 0
4.76 0 0
4.8 0 0
4.84 0 0
4.88 0 0
4.92 0 0
4.96 0 0
5 0 0
5.04 0 0
5.08 0 0
5.12 0 0
5.16 0 0
5.2 0 0
5.24 0 0
5.28 0 0
5.32 0 0
5.36 0 0
5.4 0 0
5.44 0 0
5.48 0 0
5.52 0 0
5.56 0 0
5.6 0 0
5.64 0 0
5.68 0 0
5.72 0 0
5.76 0 0
5.8 0 0
5.84 0 0
5.88 0 0
5.92 0 0
5.96 0 0
6 0 0
6.04 0 0
6.08 0 0
6.12 0 0
6.16 0 0
6.2 0 0
6.24 0 0
6.28 0 0
6.32 0 0
6.36 0 0
6.4 0 0
6.44 0 0
6.48 0 0
6.52 0 0
6.56 0 0
6.6 0 0
6.64 0 0
6.68 0 0
6.72 0 0
6.76 0 0
6.8 0 0
6.84 0 0
6.88 0 0
6.92 0 0
6.96 0 0
7 0 0
7.04 0 0
7.08 0 0
7.12 0 0
7.16 0 0
7.2 0 0
7.24 0 0
7.28 0 0
7.32 0 0
7.36 0 0
7.4 0 0
7.44 0 0
7.48 0 0
7.52 0 0
7.56 0 0
7.6 0 0
7.64 0 0
7.68 0 0
7.72 0 0
7.76 0 0
7.8 0 0
7.84 0 0
7.88 0 0
7.92 0 0
7.96 0 0
8 0 0
8.04 0 0
8.08 0 0
8.12 0 0
8.16 0 0
8.2 0 0
8.24 0 0
8.28 0 0
8.32 0 0
8.36 0 0
8.4 0 0
8.44 0 0
8.48 0 0
8.52 0 0
8.56 0 0
8.6 0 0
8.64 0 0
8.68 0 0
8.72 0 0
8.76 0 0
8.8 0 0
8.84 0 0
8.88 0 0
8.92 0 0
8.96 0 0
9 0 0
9.04 0 0
9.08 0 0
9.12 0 0
9.16 0 0
9.2 0 0
9.24 0 0
9.28 0 0
9.32 0 0
9.36 0 0
9.4 0 0
9.44 0 0
9.48 0 0
9.52 0 0
9.56 0 0
9.6 0 0
9.64 0 0
9.68 0 0
9.72 0 0
9.76 0 0
9.8 0 0
9.84 0 0
9.88 0 0
9.92 0 0
9.96 0 0
10 0 0
10.04 0 0
10.08 0 0
10.12 0 0
10.16 0 0
10.2 0 0
10.24 0 0
10.28 0 0
10.32 0 0
10.36 0 0
10.4 0 0
10.44 0 0
10.48 0 0
10.52 0 0
10.56 0 0
10.6 0 0
10.64 0 0
10.68 0 0
10.72 0 0
10.76 0 0
10.8 0 0
10.84 0 0
10.88 0 0
10.92 0 0
10.96 0 0
11 0 0
11.04 0 0
11.08 0 0
11.12 0 0
11.16 0 0
11.2 0 0
11.24 0 0
11.28 0 0
11.32 0 0
11.36 0 0
11.4 0 0
11.44 0 0
11.48 0 0
11.52 0 0
11.56 0 0
11.6 0 0
11.64 0 0
11.68 0 0
11.72 0 0
11.76 0 0
11.8 0 0
11.84 0 0
11.88 0 0
11.92 0 0
11.96 0 0
12 0 0
12.04 0 0
12.08 0 0
12.12 0 0
12.16 0 0
12.2 0 0
12.24 0 0
12.28 0 0
12.32 0 0
12.36 0 0
12.4 0 0
12.44 0 0
12.48 0 0
12.52 0 0
12.56 0 0
12.6 0 0
12.64 0 0
12.68 0 0
12.72 0 0
12.76 0 0
12.8 0 0
12.84 0 0
12.88 0 0
12.92 0 0
12.96 0 0
13 0 0
13.04 0 0
13.08 0 0
13.12 0 0
13.16 0 0
13.2 0 0
13.24 0 0
13.28 0 0
13.32 0 0
13.36 0 0
13.4 0 0
13.44 0 0
13.48 0 0
13.52 0 0
13.56 0 0
13.6 0 0
13.64 0 0
13.68 0 0
13.72 0 0
13.76 0 0
13.8 0 0
13.84 0 0
13.88 0 0
13.92 0 0
13.96 0 0
14 0 0
14.04 0 0
14.08 0 0
14.12 0 0
14.16 0 0
14.2 0 0
14.24 0 0
14.28 0 0
14.32 0 0
14.36 0 0
14.4 0 0
14.44 0 0
14.48 0 0
14.52 0 0
14.56 0 0
14.6 0 0
14.64 0 0
14.68 0 0
14.72 0 0
14.76 0 0
14.8 0 0
14.84 0 0
14.88 0 0
14.92 0 0
14.96 0 0
15 0 0
15.04 0 0
15.08 0 0
15.12 0 0
15.16 0 0
15.2 0 0
15.24 0 0
15.28 0 0
15.32 0 0
15.36 0 0
15.4 0 0
15.44 0 0
15.48 0 0
15.52 0 0
15.56 0 0
15.6 0 0
15.64 0 0
15.68 0 0
15.72 0 0
15.76 0 0
15.8 0 0
15.84 0 0
15.88 0 0
15.92 0 0
15.96 0 0
16 0 0
16.04 0 0
16.08 0 0
16.12 0 0
16.16 0 0
16.2 0 0
16.24 0 0
16.28 0 0
16.32 0 0
16.36 0 0
16.4 0 0
16.44 0 0
16.48 0 0
16.52 0 0
16.56 0 0
16.6 0 0
16.64 0 0
16.68 0 0
16.72 0 0
16.76 0 0
16.8 0 0
16.84 0 0
16.88 0 0
16.92 0 0
16.96 0 0
17 0 0
17.04 0 0
17.08 0 0
17.12 0 0
17.16 0 0
17.2 0 0
17.24 0 0
17.28 0 0
17.32 0 0
17.36 0 0
17.4 0 0
17.44 0 0
17.48 0 0
17.52 0 0
17.56 0 0
17.6 0 0
17.64 0 0
17.68 0 0
17.72 0 0
17.76 0 0
17.8 0 0
17.84 0 0
17.88 0 0
17.92 0 0
17.96 0 0
18 0 0
18.04 0 0
18.08 0 0
18.12 0 0
18.16 0 0
18.2 0 0
18.24 0 0
18.28 0 0
18.32 0 0
18.36 0 0
18.4 0 0
18.44 0 0
18.48 0 0
18.52 0 0
18.56 0 0
18.6 0 0
18.64 0 0
18.68 0 0
18.72 0 0
18.76 0 0
18.8 0 0
18.84 0 0
18.88 0 0
18.92 0 0
18.96 0 0
19 0 0
19.04 0 0
19.08 0 0
19.12 0 0
19.16 0 0
19.2 0 0
19.24 0 0
19.28 0 0
19.32 0 0
19.36 0 0
19.4 0 0
19.44 0 0
19.48 0 0
19.52 0 0
19.56 0 0
19.6 0 0
19.64 0 0
19.68 0 0
19.72 0 0
19.76 0 0
19.8 0 0
19.84 0 0
19.88 0 0
19.92 0 0
19.96 0 0
20 0 0
20.04 0 0
20.08 0 0
20.12 0 0
20.16 0 0
20.2 0 0
20.24 0 0
20.28 0 0
20.32 0 0
20.36 0 0
20.4 0 0
20.44 0 0
20.48 0 0
20.52 0 0
20.56 0 0
20.6 0 0
20.64 0 0
20.68 0 0
20.72 0 0
20.76 0 0
20.8 0 0
20.84 0 0
20.88 0 0
20.92 0 0
20.96 0 0
21 0 0
21.04 0 0
21.08 0 0
21.12 0 0
21.16 0 0
21.2 0 0
21.24 0 0
21.28 0 0
21.32 0 0
21.36 0 0
21.4 0 0
21.44 0 0
21.48 0 0
21.52 0 0
21.56 0 0
21.6 0 0
21.64 0 0
21.68 0 0
21.72 0 0
21.76 0 0
21.8 0 0
21.84 0 0
21.88 0 0
21.92 0 0
21.96 0 0
22 0 0
22.04 0 0
22.08 0 0
22.12 0 0
22.16 0 0
22.2 0 0
22.24 0 0
22.28 0 0
22.32 0 0
22.36 0 0
22.4 0 0
22.44 0 0
22.48 0 0
22.52 0 0
22.56 0 0
22.6 0 0
22.64 0 0
22.68 0 0
22.72 0 0
22.76 0 0
22.8 0 0
22.84 0 0
22.88 0 0
22.92 0 0
22.96 0 0
23 0 0
23.04 0 0
23.08 0 0
23.12 0 0
23.16 0 0
23.2 0 0
23.24 0 0
23.28 0 0
23.32 0 0
23.36 0 0
23.4 0 0
23.44 0 0
23.48 0 0
23.52 0 0
23.56 0 0
23.6 0 0
23.64 0 0
23.68 0 0
23.72 0 0
23.76 0 0
23.8 0 0
23.84 0 0
23.88 0 0
23.92 0 0
23.96 0 0
24 0 0
24.04 0 0
24.08 0 0
24.12 0 0
24.16 0 0
24.2 0 0
24.24 0 0
24.28 0 0
24.32 0 0
24.36 0 0
24.4 0 0
24.44 0 0
24.48 0 0
24.52 0 0
24.56 0 0
24.6 0 0
24.64 0 0
24.68 0 0
24.72 0 0
24.76 0 0
24.8 0 0
24.84 0 0
24.88 0 0
24.92 0 0
24.96 0 0
25 0 0
25.04 0 0
25.08 0 0
25.12 0 0
25.16 0 0
25.2 0 0
25.24 0 0
25.28 0 0
25.32 0 0
25.36 0 0
25.4 0 0
25.44 0 0
25.48 0 0
25.52 0 0
25.56 0 0
25.6 0 0
25.64 0 0
25.68 0 0
25.72 0 0
25.76 0 0
25.8 0 0
25.84 0 0
25.88 0 0
25.92 0 0
25.96 0 0
26 0 0
26.04 0 0
26.08 0 0
26.12 0 0
26.16 0 0
26.2 0 0
26.24 0 0
26.28 0 0
26.32 0 0
26.36 0 0
26.4 0 0
26.44 0 0
26.48 0 0
26.52 0 0
26.56 0 0
26.6 0 0
26.64 0 0
26.68 0 0
26.72 0 0
26.76 0 0
26.8 0 0
26.84 0 0
26.88 0 0
26.92 0 0
26.96 0 0
27 0 0
27.04 0 0
27.08 0 0
27.12 0 0
27.16 0 0
27.2 0 0
27.24 0 0
27.28 0 0
27.32 0 0
27.36 0 0
27.4 0 0
27.44 0 0
27.48 0 0
27.52 0 0
27.56 0 0
27.6 0 0
27.64 0 0
27.68 0 0
27.72 0 0
27.76 0 0
27.8 0 0
27.84 0 0
27.88 0 0
27.92 0 0
27.96 0 0
28 0 0
28.04 0 0
28.08 0 0
28.12 0 0
28.16 0 0
28.2 0 0
28.24 0 0
28.28 0 0
28.32 0 0
28.36 0 0
28.4 0 0
28.44 0 0
28.48 0 0
28.52 0 0
28.56 0 0
28.6 0 0
28.64 0 0
28.68 0 0
28.72 0 0
28.76 0 0
28.8 0 0
28.84 0 0
28.88 0 0
28.92 0 0
28.96 0 0
29 0 0
29.04 0 0
29.08 0 0
29.12 0 0
29.16 0 0
29.2 0 0
29.24 0 0
29.28 0 0
29.32 0 0
29.36 0 0
29.4 0 0
29.44 0 0
29.48 0 0
29.52 0 0
29.56 0 0
29.6 0 0
29.64 0 0
29.68 0 0
29.72 0 0
29.76 0 0
29.8 0 0
29.84 0 0
29.88 0 0
29.92 0 0
29.96 0 0
30 0 0
30.04 0 0
30.08 0 0
30.12 0 0
30.16 0 0
30.2 0 0
30.24 0 0
30.28 0 0
30.32 0 0
30.36 0 0
30.4 0 0
30.44 0 0
30.48 0 0
30.52 0 0
30.56 0 0
30.6 0 0
30.64 0 0
30.68 0 0
30.72 0 0
30.76 0 0
30.8 0 0
30.84 0 0
30.88 0 0
30.92 0 0
30.96 0 0
31 0 0
31.04 0 0
31.08 0 0
31.12 0 0
31.16 0 0
31.2 0 0
31.24 0 0
31.28 0 0
31.32 0 0
31.36 0 0
31.4 0 0
31.44 0 0
31.48 0 0
31.52 0 0
31.56 0 0
31.6 0 0
31.64 0 0
31.68 0 0
31.72 0 0
31.76 0 0
31.8 0 0
31.84 0 0
31.88 0 0
31.92 0 0
31.96 0 0
0 0.005 0
0.04 0.005 0
0.08 0.005 0
0.12 0.005 0
0.16 0.005 0
0.2 0.005 0
0.24 0.005 0
0.28 0.005 0
0.32 0.005 0
0.36 0.005 0
0.4 0.005 0
0.44 0.005 0
0.48 0.005 0
0.52 0.005 0
0.56 0.005 0
0.6 0.005 0
0.64 0.005 0
0.68 0.005 0
0.72 0.005 0
0.76 0.005 0
0.8 0.005 0
0.84 0.005 0
0.88 0.005 0
0.92 0.005 0
0.96 0.005 0
1 0.005 0
1.04 0.005 0
1.08 0.005 0
1.12 0.005 0
1.16 0.005 0
1.2 0.005 0
1.24 0.005 0
1.28 0.005 0
1.32 0.005 0
1.36 0.005 0
1.4 0.005 0
1.44 0.005 0
1.48 0.005 0
1.52 0.005 0
1.56 0.005 0
1.6 0.005 0
1.64 0.005 0
1.68 0.005 0
1.72 0.005 0
1.76 0.005 0
1.8 0.005 0
1.84 0.005 0
1.88 0.005 0
1.92 0.005 0
1.96 0.005 0
2 0.005 0
2.04 0.005 0
2.08 0.005 0
2.12 0.005 0
2.16 0.005 0
2.2 0.005 0
2.24 0.005 0
2.28 0.005 0
2.32 0.005 0
2.36 0.005 0
2.4 0.005 0
2.44 0.005 0
2.48 0.005 0
2.52 0.005 0
2.56 0.005 0
2.6 0.005 0
2.64 0.005 0
2.68 0.005 0
2.72 0.005 0
2.76 0.005 0
2.8 0.005 0
2.84 0.005 0
2.88 0.005 0
2.92 0.005 0
2.96 0.005 0
3 0.005 0
3.04 0.005 0
3.08 0.005 0
3.12 0.005 0
3.16 0.005 0
3.2 0.005 0
3.24 0.005 0
3.28 0.005 0
3.32 0.005 0
3.36 0.005 0
3.4 0.005 0
3.44 0.005 0
3.48 0.005 0
3.52 0.005 0
3.56 0.005 0
3.6 0.005 0
3.64 0.005 0
3.68 0.005 0
3.72 0.005 0
3.76 0.005 0
3.8 0.005 0
3.84 0.005 0
3.88 0.005 0
3.92 0.005 0
3.96 0.005 0
4 0.005 0
4.04 0.005 0
4.08 0.005 0
4.12 0.005 0
4.16 0.005 0
4.2 0.005 0
4.24 0.005 0
4.28 0.005 0
4.32 0.005 0
4.36 0.005 0
4.4 0.005 0
4.44 0.005 0
4.48 0.005 0
4.52 0.005 0
4.56 0.005 0
4.6 0.005 0
4.64 0.005 0
4.68 0.005 0
4.72 0.005 0
4.76 0.005 0
4.8 0.005 0
4.84 0.005 0
4.88 0.005 0
4.92 0.005 0
4.96 0.005 0
5 0.005 0
5.04 0.005 0
5.08 0.005 0
5.12 0.005 0
5.16 0.005 0
5.2 0.005 0
5.24 0.005 0
5.28 0.005 0
5.32 0.005 0
5.36 0.005 0
5.4 0.005 0
5.44 0.005 0
5.48 0.005 0
5.52 0.005 0
5.56 0.005 0
5.6 0.005 0
5.64 0.005 0
5.68 0.005 0
5.72 0.005 0
5.76 0.005 0
5.8 0.005 0
5.84 0.005 0
5.88 0.005 0
5.92 0.005 0
5.96 0.005 0
6 0.005 0
6.04 0.005 0
6.08 0.005 0
6.12 0.005 0
6.16 0.005 0
6.2 0.005 0
6.24 0.005 0
6.28 0.005 0
6.32 0.005 0
6.36 0.005 0
6.4 0.005 0
6.44 0.005 0
6.48 0.005 0
6.52 0.005 0
6.56 0.005 0
6.6 0.005 0
6.64 0.005 0
6.68 0.005 0
6.72 0.005 0
6.76 0.005 0
6.8 0.005 0
6.84 0.005 0
6.88 0.005 0
6.92 0.005 0
6.96 0.005 0
7 0.005 0
7.04 0.005 0
7.08 0.005 0
7.12 0.005 0
7.16 0.005 0
7.2 0.005 0
7.24 0.005 0
7.28 0.005 0
7.32 0.005 0
7.36 0.005 0
7.4 0.005 0
[...]
POINT_DATA 160000

SCALARS u float 1
LOOKUP_TABLE default
-1
-0.483358
-0.183963
-0.108845
-0.081033
-0.0668336
-0.0581181
-0.0521526
-0.0477774
-0.0444145
-0.0417412
-0.0395614
-0.0377482
-0.0362152
-0.0349014
-0.0337624
-0.0327647
-0.0318829
-0.0310973
-0.0303922
-0.0297552
-0.0291763
-0.0286471
-0.028161
-0.0277124
-0.0272967
-0.0269098
-0.0265487
-0.0262103
-0.0258924
-0.0255928
-0.0253099
-0.025042
-0.0247879
-0.0245464
-0.0243164
-0.0240969
-0.0238873
-0.0236868
-0.0234947
-0.0233105
-0.0231336
-0.0229636
-0.0228
-0.0226424
-0.0224905
-0.022344
-0.0222025
-0.0220658
-0.0219336
-0.0218057
-0.0216819
-0.0215619
-0.0214455
-0.0213327
-0.0212232
-0.0211169
-0.0210136
-0.0209131
-0.0208155
-0.0207205
-0.020628
-0.020538
-0.0204502
-0.0203648
-0.0202814
-0.0202001
-0.0201208
-0.0200434
-0.0199679
-0.0198941
-0.019822
-0.0197516
-0.0196827
-0.0196153
-0.0195495
-0.019485
-0.019422
-0.0193602
-0.0192998
-0.0192406
-0.0191826
-0.0191258
-0.0190701
-0.0190155
-0.0189619
-0.0189094
-0.0188579
-0.0188074
-0.0187578
-0.0187091
-0.0186614
-0.0186144
-0.0185683
-0.0185231
-0.0184786
-0.0184349
-0.018392
-0.0183498
-0.0183083
-0.0182675
-0.0182274
-0.0181879
-0.0181491
-0.0181109
-0.0180733
-0.0180364
-0.018
-0.0179641
-0.0179289
-0.0178942
-0.01786
-0.0178263
-0.0177931
-0.0177605
-0.0177283
-0.0176966
-0.0176653
-0.0176345
-0.0176042
-0.0175743
-0.0175448
-0.0175157
-0.017487
-0.0174588
-0.0174309
-0.0174034
-0.0173763
-0.0173495
-0.0173231
-0.0172971
-0.0172714
-0.0172461
-0.017221
-0.0171964
-0.017172
-0.0171479
-0.0171242
-0.0171008
-0.0170776
-0.0170548
-0.0170322
-0.01701
-0.016988
-0.0169662
-0.0169448
-0.0169236
-0.0169027
-0.016882
-0.0168616
-0.0168414
-0.0168215
-0.0168018
-0.0167823
-0.0167631
-0.0167441
-0.0167253
-0.0167068
-0.0166884
-0.0166703
-0.0166524
-0.0166347
-0.0166172
-0.0165999
-0.0165828
-0.0165658
-0.0165491
-0.0165326
-0.0165162
-0.0165001
-0.0164841
-0.0164683
-0.0164527
-0.0164372
-0.0164219
-0.0164068
-0.0163919
-0.0163771
-0.0163625
-0.016348
-0.0163337
-0.0163196
-0.0163056
-0.0162917
-0.016278
-0.0162645
-0.0162511
-0.0162378
-0.0162247
-0.0162117
-0.0161989
-0.0161862
-0.0161736
-0.0161612
-0.0161489
-0.0161367
-0.0161246
-0.0161127
-0.0161009
-0.0160892
-0.0160777
-0.0160662
-0.0160549
-0.0160437
-0.0160326
-0.0160217
-0.0160108
-0.0160001
-0.0159894
-0.0159789
-0.0159685
-0.0159582
-0.015948
-0.0159379
-0.0159279
-0.015918
-0.0159082
-0.0158985
-0.0158889
-0.0158794
-0.01587
-0.0158607
-0.0158514
-0.0158423
-0.0158333
-0.0158243
-0.0158155
-0.0158067
-0.015798
-0.0157894
-0.0157809
-0.0157725
-0.0157642
-0.0157559
-0.0157477
-0.0157397
-0.0157316
-0.0157237
-0.0157159
-0.0157081
-0.0157004
-0.0156927
-0.0156852
-0.0156777
-0.0156703
-0.015663
-0.0156557
-0.0156485
-0.0156414
-0.0156344
-0.0156274
-0.0156205
-0.0156137
-0.0156069
-0.0156002
-0.0155935
-0.0155869
-0.0155804
-0.015574
-0.0155676
-0.0155613
-0.015555
-0.0155488
-0.0155426
-0.0155366
-0.0155305
-0.0155246
-0.0155186
-0.0155128
-0.015507
-0.0155012
-0.0154956
-0.0154899
-0.0154843
-0.0154788
-0.0154733
-0.0154679
-0.0154626
-0.0154572
-0.015452
-0.0154467
-0.0154416
-0.0154365
-0.0154314
-0.0154264
-0.0154214
-0.0154165
-0.0154116
-0.0154068
-0.015402
-0.0153972
-0.0153925
-0.0153879
-0.0153833
-0.0153787
-0.0153742
-0.0153697
-0.0153653
-0.0153609
-0.0153565
-0.0153522
-0.0153479
-0.0153437
-0.0153395
-0.0153353
-0.0153312
-0.0153272
-0.0153231
-0.0153191
-0.0153151
-0.0153112
-0.0153073
-0.0153035
-0.0152997
-0.0152959
-0.0152921
-0.0152884
-0.0152847
-0.0152811
-0.0152775
-0.0152739
-0.0152704
-0.0152668
-0.0152634
-0.0152599
-0.0152565
-0.0152531
-0.0152498
-0.0152464
-0.0152431
-0.0152399
-0.0152367
-0.0152335
-0.0152303
-0.0152271
-0.015224
-0.015221
-0.0152179
-0.0152149
-0.0152119
-0.0152089
-0.015206
-0.0152031
-0.0152002
-0.0151973
-0.0151945
-0.0151917
-0.0151889
-0.0151862
-0.0151835
-0.0151808
-0.0151781
-0.0151755
-0.0151729
-0.0151703
-0.0151677
-0.0151652
-0.0151627
-0.0151602
-0.0151578
-0.0151554
-0.015153
-0.0151506
-0.0151482
-0.0151459
-0.0151436
-0.0151414
-0.0151391
-0.0151369
-0.0151347
-0.0151325
-0.0151304
-0.0151283
-0.0151262
-0.0151241
-0.0151221
-0.0151201
-0.0151181
-0.0151161
-0.0151142
-0.0151123
-0.0151104
-0.0151085
-0.0151067
-0.0151049
-0.0151031
-0.0151013
-0.0150996
-0.0150979
-0.0150962
-0.0150945
-0.0150929
-0.0150913
-0.0150897
-0.0150881
-0.0150866
-0.015085
-0.0150835
-0.0150821
-0.0150806
-0.0150792
-0.0150778
-0.0150764
-0.015075
-0.0150737
-0.0150724
-0.0150711
-0.0150698
-0.0150685
-0.0150673
-0.0150661
-0.0150649
-0.0150637
-0.0150626
-0.0150614
-0.0150603
-0.0150592
-0.0150582
-0.0150571
-0.0150561
-0.0150551
-0.0150541
-0.0150531
-0.0150521
-0.0150512
-0.0150503
-0.0150494
-0.0150485
-0.0150476
-0.0150467
-0.0150459
-0.0150451
-0.0150443
-0.0150435
-0.0150427
-0.0150419
-0.0150412
-0.0150404
-0.0150397
-0.015039
-0.0150383
-0.0150376
-0.015037
-0.0150363
-0.0150357
-0.015035
-0.0150344
-0.0150338
-0.0150332
-0.0150326
-0.015032
-0.0150315
-0.0150309
-0.0150304
-0.0150298
-0.0150293
-0.0150288
-0.0150283
-0.0150278
-0.0150273
-0.0150268
-0.0150263
-0.0150259
-0.0150254
-0.015025
-0.0150245
-0.0150241
-0.0150236
-0.0150232
-0.0150228
-0.0150224
-0.015022
-0.0150216
-0.0150212
-0.0150208
-0.0150204
-0.01502
-0.0150196
-0.0150192
-0.0150189
-0.0150185
-0.0150181
-0.0150178
-0.0150174
-0.0150171
-0.0150167
-0.0150164
-0.015016
-0.0150157
-0.0150153
-0.015015
-0.0150146
-0.0150143
-0.015014
-0.0150136
-0.0150133
-0.015013
-0.0150127
-0.0150123
-0.015012
-0.0150117
-0.0150114
-0.0150111
-0.0150107
-0.0150104
-0.0150101
-0.0150098
-0.0150095
-0.0150092
-0.0150089
-0.0150085
-0.0150082
-0.0150079
-0.0150076
-0.0150073
-0.015007
-0.0150067
-0.0150064
-0.0150061
-0.0150057
-0.0150054
-0.0150051
-0.0150048
-0.0150045
-0.0150042
-0.0150039
-0.0150036
-0.0150033
-0.015003
-0.0150027
-0.0150024
-0.0150021
-0.0150017
-0.0150014
-0.0150011
-0.0150008
-0.0150005
-0.0150002
-0.0149999
-0.0149996
-0.0149993
-0.014999
-0.0149987
-0.0149984
-0.0149981
-0.0149978
-0.0149974
-0.0149971
-0.0149968
-0.0149965
-0.0149962
-0.0149959
-0.0149956
-0.0149953
-0.014995
-0.0149947
-0.0149944
-0.0149941
-0.0149938
-0.0149934
-0.0149931
-0.0149928
-0.0149925
-0.0149922
-0.0149919
-0.0149916
-0.0149913
-0.014991
-0.0149907
-0.0149904
-0.0149901
-0.0149898
-0.0149895
-0.0149891
-0.0149888
-0.0149885
-0.0149882
-0.0149879
-0.0149876
-0.0149873
-0.014987
-0.0149867
-0.0149864
-0.0149861
-0.0149858
-0.0149855
-0.0149852
-0.0149848
-0.0149845
-0.0149842
-0.0149839
-0.0149836
-0.0149833
-0.014983
-0.0149827
-0.0149824
-0.0149821
-0.0149818
-0.0149815
-0.0149812
-0.0149809
-0.0149805
-0.0149802
-0.0149799
-0.0149796
-0.0149793
-0.014979
-0.0149787
-0.0149784
-0.0149781
-0.0149778
-0.0149775
-0.0149772
-0.0149769
-0.0149766
-0.0149762
-0.0149759
-0.0149756
-0.0149753
-0.014975
-0.0149747
-0.0149744
-0.0149741
-0.0149738
-0.0149735
-0.0149732
-0.0149729
-0.0149726
-0.0149723
-0.0149719
-0.0149716
-0.0149713
-0.014971
-0.0149707
-0.0149704
-0.0149701
-0.0149698
-0.0149695
-0.0149692
-0.0149689
-0.0149686
-0.0149683
-0.014968
-0.0149676
-0.0149673
-0.014967
-0.0149667
-0.0149664
-0.0149661
-0.0149658
-0.0149655
-0.0149652
-0.0149649
-0.0149646
-0.0149643
-0.014964
-0.0149637
-0.0149633
-0.014963
-0.0149627
-0.0149624
-0.0149621
-0.0149618
-0.0149615
-0.0149612
-0.0149609
-0.0149606
-0.0149603
-0.01496
-0.0149597
-0.0149594
-0.014959
-0.0149587
-0.0149584
-0.0149581
-0.0149578
-0.0149575
-0.0149572
-0.0149569
-0.0149566
-0.0149563
-0.014956
-0.0149557
-0.0149554
-0.0149551
-0.0149547
-0.0149544
-0.0149541
-0.0149538
-0.0149535
-0.0149532
-0.0149529
-0.0149526
-0.0149523
-0.014952
-0.0149517
-0.0149514
-0.0149511
-0.0149508
-0.0149504
-0.0149501
-0.0149498
-0.0149495
-0.0149492
-0.0149489
-0.0149486
-0.0149483
-0.014948
-0.0149477
-0.0149474
-0.0149471
-0.0149468
-0.0149465
-0.0149461
-0.0149458
-0.0149455
-0.0149452
-0.0149449
-0.0149446
-0.0149443
-0.014944
-0.0149437
-0.0149434
-0.0149431
-0.0149428
-0.0149425
-0.0149422
-0.0149418
-0.0149415
-0.0149412
-0.0149409
-0.0149406
-0.0149403
-0.01494
-0.0149397
-0.0149394
-0.0149391
-0.0149388
-0.0149385
-0.0149382
-0.0149379
-0.0149375
-0.0149372
-0.0149369
-0.0149366
-0.0149363
-0.014936
-0.0149357
-0.0149354
-0.0149351
-0.0149348
-0.0149345
-0.0149342
-0.0149339
-0.0149336
-0.0149332
-0.0149329
-0.0149326
-0.0149323
-0.014932
-0.0149317
-0.0149314
-0.0149311
-0.0149308
-0.0149305
-0.0149302
-0.0149299
-0.0149296
-0.0149293
-0.0149289
-0.0149286
-0.0149283
-0.014928
-0.0149277
-0.0149274
-0.0149271
-0.0149268
-0.0149265
-0.0149262
-0.0149258
-0.0149255
-0.0149252
-0.0149249
-0.0149246
-0.0149242
-0.0149239
-0.0149235
-0.0149232
-0.0149228
-0.0149224
-0.014922
-0.0149215
-0.014921
-0.0149205
-0.0149198
-0.0149192
-0.0149182
-0.0149178
-0.0149178
-0.0149178
1
0.483358
0.183963
0.108845
0.081033
0.0668336
0.0581181
0.0521526
0.0477774
0.0444145
0.0417412
0.0395614
0.0377482
0.0362152
0.0349014
0.0337624
0.0327647
0.0318829
0.0310973
0.0303922
0.0297552
0.0291763
0.0286471
0.028161
0.0277124
0.0272967
0.0269098
0.0265487
0.0262103
0.0258924
0.0255928
0.0253099
0.025042
0.0247879
0.0245464
0.0243164
0.0240969
0.0238873
0.0236868
0.0234947
0.0233105
0.0231336
0.0229636
0.0228
0.0226424
0.0224905
0.022344
0.0222025
0.0220658
0.0219336
0.0218057
0.0216819
0.0215619
0.0214455
0.0213327
0.0212232
0.0211169
0.0210136
0.0209131
0.0208155
0.0207205
0.020628
0.020538
0.0204502
0.0203648
0.0202814
0.0202001
0.0201208
0.0200434
0.0199679
0.0198941
0.019822
0.0197516
0.0196827
0.0196153
0.0195495
0.019485
0.019422
0.0193602
0.0192998
0.0192406
0.0191826
0.0191258
0.0190701
0.0190155
0.0189619
0.0189094
0.0188579
0.0188074
0.0187578
0.0187091
0.0186614
0.0186144
0.0185683
0.0185231
0.0184786
0.0184349
0.018392
0.0183498
0.0183083
0.0182675
0.0182274
0.0181879
0.0181491
0.0181109
0.0180733
0.0180364
0.018
0.0179641
0.0179289
0.0178942
0.01786
0.0178263
0.0177931
0.0177605
0.0177283
0.0176966
0.0176653
0.0176345
0.0176042
0.0175743
0.0175448
0.0175157
0.017487
0.0174588
0.0174309
0.0174034
0.0173763
0.0173495
0.0173231
0.0172971
0.0172714
0.0172461
0.017221
0.0171964
0.017172
0.0171479
0.0171242
0.0171008
0.0170776
0.0170548
0.0170322
0.01701
0.016988
0.0169662
0.0169448
0.0169236
0.0169027
0.016882
0.0168616
0.0168414
0.0168215
0.0168018
0.0167823
0.0167631
0.0167441
0.0167253
0.0167068
0.0166884
0.0166703
0.0166524
0.0166347
0.0166172
0.0165999
0.0165828
0.0165658
0.0165491
0.0165326
0.0165162
0.0165001
0.0164841
0.0164683
0.0164527
0.0164372
0.0164219
0.0164068
0.0163919
0.0163771
0.0163625
0.016348
0.0163337
0.0163196
0.0163056
0.0162917
0.016278
0.0162645
0.0162511
0.0162378
0.0162247
0.0162117
0.0161989
0.0161862
0.0161736
0.0161612
0.0161489
0.0161367
0.0161246
0.0161127
0.0161009
0.0160892
0.0160777
0.0160662
0.0160549
0.0160437
0.0160326
0.0160217
0.0160108
0.0160001
0.0159894
0.0159789
0.0159685
0.0159582
0.015948
0.0159379
0.0159279
0.015918
0.0159082
0.0158985
0.0158889
0.0158794
0.01587
0.0158607
0.0158514
0.0158423
0.0158333
0.0158243
0.0158155
0.0158067
0.015798
0.0157894
0.0157809
0.0157725
0.0157642
0.0157559
0.0157477
0.0157397
0.0157316
0.0157237
0.0157159
0.0157081
0.0157004
0.0156927
0.0156852
0.0156777
0.0156703
0.015663
0.0156557
0.0156485
0.0156414
0.0156344
0.0156274
0.0156205
0.0156137
0.0156069
0.0156002
0.0155935
0.0155869
0.0155804
0.015574
0.0155676
0.0155613
0.015555
0.0155488
0.0155426
0.0155366
0.0155305
0.0155246
0.0155186
0.0155128
0.015507
0.0155012
0.0154956
0.0154899
0.0154843
0.0154788
0.0154733
0.0154679
0.0154626
0.0154572
0.015452
0.0154467
0.0154416
0.0154365
0.0154314
0.0154264
0.0154214
0.0154165
0.0154116
0.0154068
0.015402
0.0153972
0.0153925
0.0153879
0.0153833
0.0153787
0.0153742
0.0153697
0.0153653
0.0153609
0.0153565
0.0153522
0.0153479
0.0153437
0.0153395
0.0153353
0.0153312
0.0153272
0.0153231
0.0153191
0.0153151
0.0153112
0.0153073
0.0153035
0.0152997
0.0152959
0.0152921
0.0152884
0.0152847
0.0152811
0.0152775
0.0152739
0.0152704
0.0152668
0.0152634
0.0152599
0.0152565
0.0152531
0.0152498
0.0152464
0.0152431
0.0152399
0.0152367
0.0152335
0.0152303
0.0152271
0.015224
0.015221
0.0152179
0.0152149
0.0152119
0.0152089
0.015206
0.0152031
0.0152002
0.0151973
0.0151945
0.0151917
0.0151889
0.0151862
0.0151835
0.0151808
0.0151781
0.0151755
0.0151729
0.0151703
0.0151677
0.0151652
0.0151627
0.0151602
0.0151578
0.0151554
0.015153
0.0151506
0.0151482
0.0151459
0.0151436
0.0151414
0.0151391
0.0151369
0.0151347
0.0151325
0.0151304
0.0151283
0.0151262
0.0151241
0.0151221
0.0151201
0.0151181
0.0151161
0.0151142
0.0151123
0.0151104
0.0151085
0.0151067
0.0151049
0.0151031
0.0151013
0.0150996
0.0150979
0.0150962
0.0150945
0.0150929
0.0150913
0.0150897
0.0150881
0.0150866
0.015085
0.0150835
0.0150821
0.0150806
0.0150792
0.0150778
0.0150764
0.015075
0.0150737
0.0150724
0.0150711
0.0150698
0.0150685
0.0150673
0.0150661
0.0150649
0.0150637
0.0150626
0.0150614
0.0150603
0.0150592
0.0150582
0.0150571
0.0150561
0.0150551
0.0150541
0.0150531
0.0150521
0.0150512
0.0150503
0.0150494
0.0150485
0.0150476
0.0150467
0.0150459
0.0150451
0.0150443
0.0150435
0.0150427
0.0150419
0.0150412
0.0150404
0.0150397
0.015039
0.0150383
0.0150376
0.015037
0.0150363
0.0150357
0.015035
0.0150344
0.0150338
0.0150332
0.0150326
0.015032
0.0150315
0.0150309
0.0150304
0.0150298
0.0150293
0.0150288
0.0150283
0.0150278
0.0150273
0.0150268
0.0150263
0.0150259
0.0150254
0.015025
0.0150245
0.0150241
0.0150236
0.0150232
0.0150228
0.0150224
0.015022
0.0150216
0.0150212
0.0150208
0.0150204
0.01502
0.0150196
0.0150192
0.0150189
0.0150185
0.0150181
0.0150178
0.0150174
0.0150171
0.0150167
0.0150164
0.015016
0.0150157
0.0150153
0.015015
0.0150146
0.0150143
0.015014
0.0150136
0.0150133
0.015013
0.0150127
0.0150123
0.015012
0.0150117
0.0150114
0.0150111
0.0150107
0.0150104
0.0150101
0.0150098
0.0150095
0.0150092
0.0150089
0.0150085
0.0150082
0.0150079
0.0150076
0.0150073
0.015007
0.0150067
0.0150064
0.0150061
0.0150057
0.0150054
0.0150051
0.0150048
0.0150045
0.0150042
0.0150039
0.0150036
0.0150033
0.015003
0.0150027
0.0150024
0.0150021
0.0150017
0.0150014
0.0150011
0.0150008
0.0150005
0.0150002
0.0149999
0.0149996
0.0149993
0.014999
0.0149987
0.0149984
0.0149981
0.0149978
0.0149974
0.0149971
0.0149968
0.0149965
0.0149962
0.0149959
0.0149956
0.0149953
0.014995
0.0149947
0.0149944
0.0149941
0.0149938
0.0149934
0.0149931
0.0149928
0.0149925
0.0149922
0.0149919
0.0149916
0.0149913
0.014991
0.0149907
0.0149904
0.0149901
0.0149898
0.0149895
0.0149891
0.0149888
0.0149885
0.0149882
0.0149879
0.0149876
0.0149873
0.014987
0.0149867
0.0149864
0.0149861
0.0149858
0.0149855
0.0149852
0.0149848
0.0149845
0.0149842
0.0149839
0.0149836
0.0149833
0.014983
0.0149827
0.0149824
0.0149821
0.0149818
0.0149815
0.0149812
0.0149809
0.0149805
0.0149802
0.0149799
0.0149796
0.0149793
0.014979
0.0149787
0.0149784
0.0149781
0.0149778
0.0149775
0.0149772
0.0149769
0.0149766
0.0149762
0.0149759
0.0149756
0.0149753
0.014975
0.0149747
0.0149744
0.0149741
0.0149738
0.0149735
0.0149732
0.0149729
0.0149726
0.0149723
0.0149719
0.0149716
0.0149713
0.014971
0.0149707
0.0149704
0.0149701
0.0149698
0.0149695
0.0149692
0.0149689
0.0149686
0.0149683
0.014968
0.0149676
0.0149673
0.014967
0.0149667
0.0149664
0.0149661
0.0149658
0.0149655
0.0149652
0.0149649
0.0149646
0.0149643
0.014964
0.0149637
0.0149633
0.014963
0.0149627
0.0149624
0.0149621
0.0149618
0.0149615
0.0149612
0.0149609
0.0149606
0.0149603
0.01496
0.0149597
0.0149594
0.014959
0.0149587
0.0149584
0.0149581
0.0149578
0.0149575
0.0149572
0.0149569
0.0149566
0.0149563
0.014956
0.0149557
0.0149554
0.0149551
0.0149547
0.0149544
0.0149541
0.0149538
0.0149535
0.0149532
0.0149529
0.0149526
0.0149523
0.014952
0.0149517
0.0149514
0.0149511
0.0149508
0.0149504
0.0149501
0.0149498
0.0149495
0.0149492
0.0149489
0.0149486
0.0149483
0.014948
0.0149477
0.0149474
0.0149471
0.0149468
0.0149465
0.0149461
0.0149458
0.0149455
0.0149452
0.0149449
0.0149446
0.0149443
0.014944
0.0149437
0.0149434
0.0149431
0.0149428
0.0149425
0.0149422
0.0149418
0.0149415
0.0149412
0.0149409
0.0149406
0.0149403
0.01494
0.0149397
0.0149394
0.0149391
0.0149388
0.0149385
0.0149382
0.0149379
0.0149375
0.0149372
0.0149369
0.0149366
0.0149363
0.014936
0.0149357
0.0149354
0.0149351
0.0149348
0.0149345
0.0149342
0.0149339
0.0149336
0.0149332
0.0149329
0.0149326
0.0149323
0.014932
0.0149317
0.0149314
0.0149311
0.0149308
0.0149305
0.0149302
0.0149299
0.0149296
0.0149293
0.0149289
0.0149286
0.0149283
0.014928
0.0149277
0.0149274
0.0149271
0.0149268
0.0149265
0.0149262
0.0149258
0.0149255
0.0149252
0.0149249
0.0149246
0.0149242
0.0149239
0.0149235
0.0149232
0.0149228
0.0149224
0.014922
0.0149215
0.014921
0.0149205
0.0149198
0.0149192
0.0149182
0.0149178
0.0149178
0.0149178
1
0.969191
0.495616
0.314223
0.237897
0.197396
0.172133
0.154696
0.141842
0.131928
0.124027
0.117573
0.112196
0.107645
0.103742
0.100355
0.0973863
0.0947619
0.0924231
0.0903237
0.088427
0.0867031
0.0851277
0.0836807
0.0823456
0.0811085
0.0799578
0.0788836
0.0778777
0.0769327
0.0760426
0.0752022
0.0744067
0.0736523
0.0729353
0.0722527
0.0716017
0.07098
0.0703853
0.0698158
0.0692696
0.0687453
0.0682414
0.0677567
0.0672899
0.0668399
0.0664059
0.0659869
0.065582
0.0651906
0.0648119
0.0644452
0.06409
0.0637457
0.0634117
0.0630876
0.0627729
0.0624672
0.0621701
0.0618811
0.0616
0.0613264
0.06106
0.0608005
0.0605477
0.0603011
0.0600607
0.0598262
0.0595973
0.0593738
0.0591556
0.0589424
0.0587341
0.0585304
0.0583313
0.0581366
0.057946
0.0577596
0.0575771
0.0573984
0.0572233
0.0570519
0.0568839
0.0567193
0.0565579
0.0563996
0.0562444
0.0560922
0.0559428
0.0557962
0.0556524
0.0555111
0.0553725
0.0552363
0.0551025
0.0549711
0.054842
0.0547151
0.0545904
0.0544677
0.0543472
0.0542286
0.0541121
0.0539974
0.0538846
0.0537735
0.0536643
0.0535568
0.053451
0.0533468
0.0532442
0.0531432
0.0530437
0.0529458
0.0528493
0.0527542
0.0526605
0.0525682
0.0524773
0.0523876
0.0522993
0.0522122
0.0521263
0.0520416
0.0519581
0.0518758
0.0517946
0.0517145
0.0516355
0.0515576
0.0514807
0.0514049
0.05133
0.0512561
0.0511833
0.0511113
0.0510403
0.0509702
0.050901
0.0508327
0.0507653
0.0506987
0.0506329
0.050568
0.0505039
0.0504405
0.050378
0.0503162
0.0502552
0.0501949
0.0501353
0.0500765
0.0500184
0.0499609
0.0499042
0.0498481
0.0497926
0.0497379
0.0496837
0.0496302
0.0495774
0.0495251
0.0494734
0.0494224
0.0493719
0.049322
0.0492726
0.0492238
0.0491756
0.0491279
0.0490807
0.0490341
0.048988
0.0489424
0.0488973
0.0488527
0.0488086
0.048765
0.0487218
0.0486792
0.048637
0.0485952
0.0485539
0.0485131
0.0484727
0.0484327
0.0483931
0.048354
0.0483153
0.048277
0.0482391
0.0482017
0.0481646
0.0481279
0.0480916
0.0480556
0.0480201
0.0479849
0.0479501
0.0479157
0.0478816
0.0478478
0.0478145
0.0477814
0.0477487
0.0477164
0.0476843
0.0476526
0.0476213
0.0475902
0.0475595
0.0475291
0.047499
0.0474692
0.0474397
0.0474105
0.0473816
0.047353
0.0473247
0.0472966
0.0472689
0.0472414
0.0472142
0.0471873
0.0471607
0.0471343
0.0471082
0.0470823
0.0470567
0.0470314
0.0470063
0.0469814
0.0469569
0.0469325
0.0469084
0.0468845
0.0468609
0.0468375
0.0468143
0.0467914
0.0467687
0.0467462
0.046724
0.0467019
0.0466801
0.0466585
0.0466371
0.0466159
0.0465949
0.0465741
0.0465535
0.0465331
0.046513
0.046493
0.0464732
0.0464536
0.0464342
0.046415
0.046396
0.0463771
0.0463585
0.04634
0.0463217
0.0463036
0.0462856
0.0462678
0.0462502
0.0462328
0.0462155
0.0461984
0.0461815
0.0461647
0.0461481
0.0461316
0.0461154
0.0460992
0.0460832
0.0460674
0.0460517
0.0460362
0.0460208
0.0460056
0.0459905
0.0459755
0.0459607
0.045946
0.0459315
0.0459171
0.0459029
0.0458888
0.0458748
0.0458609
0.0458472
0.0458336
0.0458202
0.0458068
0.0457936
0.0457805
0.0457676
0.0457547
0.045742
0.0457294
0.0457169
0.0457045
0.0456923
0.0456802
0.0456681
0.0456562
0.0456444
0.0456327
0.0456212
0.0456097
0.0455983
0.0455871
0.0455759
0.0455648
0.0455539
0.045543
0.0455323
0.0455217
0.0455111
0.0455006
0.0454903
0.04548
0.0454699
0.0454598
0.0454498
0.0454399
0.0454301
0.0454204
0.0454108
0.0454013
0.0453919
0.0453825
0.0453733
0.0453641
0.045355
0.045346
0.0453371
0.0453283