# vtk DataFile Version 2.0
FlowField
ASCII
DATASET STRUCTURED_GRID
DIMENSIONS 800 1 200
POINTS 160000 float
0 0 0
0.04 0 0
0.08 0 0
0.12 0 0
0.16 0 0
0.2 0 0
0.24 0 0
0.28 0 0
0.32 0 0
0.36 0 0
0.4 0 0
0.44 0 0
0.48 0 0
0.52 0 0
0.56 0 0
0.6 0 0
0.64 0 0
0.68 0 0
0.72 0 0
0.76 0 0
0.8 0 0
0.84 0 0
0.88 0 0
0.92 0 0
0.96 0 0
1 0 0
1.04 0 0
1.08 0 0
1.12 0 0
1.16 0 0
1.2 0 0
1.24 0 0
1.28 0 0
1.32 0 0
1.36 0 0
1.4 0 0
1.44 0 0
1.48 0 0
1.52 0 0
1.56 0 0
1.6 0 0
1.64 0 0
1.68 0 0
1.72 0 0
1.76 0 0
1.8 0 0
1.84 0 0
1.88 0 0
1.92 0 0
1.96 0 0
2 0 0
2.04 0 0
2.08 0 0
2.12 0 0
2.16 0 0
2.2 0 0
2.24 0 0
2.28 0 0
2.32 0 0
2.36 0 0
2.4 0 0
2.44 0 0
2.48 0 0
2.52 0 0
2.56 0 0
2.6 0 0
2.64 0 0
2.68 0 0
2.72 0 0
2.76 0 0
2.8 0 0
2.84 0 0
2.88 0 0
2.92 0 0
2.96 0 0
3 0 0
3.04 0 0
3.08 0 0
3.12 0 0
3.16 0 0
3.2 0 0
3.24 0 0
3.28 0 0
3.32 0 0
3.36 0 0
3.4 0 0
3.44 0 0
3.48 0 0
3.52 0 0
3.56 0 0
3.6 0 0
3.64 0 0
3.68 0 0
3.72 0 0
3.76 0 0
3.8 0 0
3.84 0 0
3.88 0 0
3.92 0 0
3.96 0 0
4 0 0
4.04 0 0
4.08 0 0
4.12 0 0
4.16 0 0
4.2 0 0
4.24 0 0
4.28 0 0
4.32 0 0
4.36 0 0
4.4 0 0
4.44 0 0
4.48 0 0
4.52 0 0
4.56 0 0
4.6 0 0
4.64 0 0
4.68 0 0
4.72 0 0
4.76 0 0
4.8 0 0
4.84 0 0
4.88 0 0
4.92 0 0
4.96 0 0
5 0 0
5.04 0 0
5.08 0 0
5.12 0 0
5.16 0 0
5.2 0 0
5.24 0 0
5.28 0 0
5.32 0 0
5.36 0 0
5.4 0 0
5.44 0 0
5.48 0 0
5.52 0 0
5.56 0 0
5.6 0 0
5.64 0 0
5.68 0 0
5.72 0 0
5.76 0 0
5.8 0 0
5.84 0 0
5.88 0 0
5.92 0 0
5.96 0 0
6 0 0
6.04 0 0
6.08 0 0
6.12 0 0
6.16 0 0
6.2 0 0
6.24 0 0
6.28 0 0
6.32 0 0
6.36 0 0
6.4 0 0
6.44 0 0
6.48 0 0
6.52 0 0
6.56 0 0
6.6 0 0
6.64 0 0
6.68 0 0
6.72 0 0
6.76 0 0
6.8 0 0
6.84 0 0
6.88 0 0
6.92 0 0
6.96 0 0
7 0 0
7.04 0 0
7.08 0 0
7.12 0 0
7.16 0 0
7.2 0 0
7.24 0 0
7.28 0 0
7.32 0 0
7.36 0 0
7.4 0 0
7.44 0 0
7.48 0 0
7.52 0 0
7.56 0 0
7.6 0 0
7.64 0 0
7.68 0 0
7.72 0 0
7.76 0 0
7.8 0 0
7.84 0 0
7.88 0 0
7.92 0 0
7.96 0 0
8 0 0
8.04 0 0
8.08 0 0
8.12 0 0
8.16 0 0
8.2 0 0
8.24 0 0
8.28 0 0
8.32 0 0
8.36 0 0
8.4 0 0
8.44 0 0
8.48 0 0
8.52 0 0
8.56 0 0
8.6 0 0
8.64 0 0
8.68 0 0
8.72 0 0
8.76 0 0
8.8 0 0
8.84 0 0
8.88 0 0
8.92 0 0
8.96 0 0
9 0 0
9.04 0 0
9.08 0 0
9.12 0 0
9.16 0 0
9.2 0 0
9.24 0 0
9.28 0 0
9.32 0 0
9.36 0 0
9.4 0 0
9.44 0 0
9.48 0 0
9.52 0 0
9.56 0 0
9.6 0 0
9.64 0 0
9.68 0 0
9.72 0 0
9.76 0 0
9.8 0 0
9.84 0 0
9.88 0 0
9.92 0 0
9.96 0 0
10 0 0
10.04 0 0
10.08 0 0
10.12 0 0
10.16 0 0
10.2 0 0
10.24 0 0
10.28 0 0
10.32 0 0
10.36 0 0
10.4 0 0
10.44 0 0
10.48 0 0
10.52 0 0
10.56 0 0
10.6 0 0
10.64 0 0
10.68 0 0
10.72 0 0
10.76 0 0
10.8 0 0
10.84 0 0
10.88 0 0
10.92 0 0
10.96 0 0
11 0 0
11.04 0 0
11.08 0 0
11.12 0 0
11.16 0 0
11.2 0 0
11.24 0 0
11.28 0 0
11.32 0 0
11.36 0 0
11.4 0 0
11.44 0 0
11.48 0 0
11.52 0 0
11.56 0 0
11.6 0 0
11.64 0 0
11.68 0 0
11.72 0 0
11.76 0 0
11.8 0 0
11.84 0 0
11.88 0 0
11.92 0 0
11.96 0 0
12 0 0
12.04 0 0
12.08 0 0
12.12 0 0
12.16 0 0
12.2 0 0
12.24 0 0
12.28 0 0
12.32 0 0
12.36 0 0
12.4 0 0
12.44 0 0
12.48 0 0
12.52 0 0
12.56 0 0
12.6 0 0
12.64 0 0
12.68 0 0
12.72 0 0
12.76 0 0
12.8 0 0
12.84 0 0
12.88 0 0
12.92 0 0
12.96 0 0
13 0 0
13.04 0 0
13.08 0 0
13.12 0 0
13.16 0 0
13.2 0 0
13.24 0 0
13.28 0 0
13.32 0 0
13.36 0 0
13.4 0 0
13.44 0 0
13.48 0 0
13.52 0 0
13.56 0 0
13.6 0 0
13.64 0 0
13.68 0 0
13.72 0 0
13.76 0 0
13.8 0 0
13.84 0 0
13.88 0 0
13.92 0 0
13.96 0 0
14 0 0
14.04 0 0
14.08 0 0
14.12 0 0
14.16 0 0
14.2 0 0
14.24 0 0
14.28 0 0
14.32 0 0
14.36 0 0
14.4 0 0
14.44 0 0
14.48 0 0
14.52 0 0
14.56 0 0
14.6 0 0
14.64 0 0
14.68 0 0
14.72 0 0
14.76 0 0
14.8 0 0
14.84 0 0
14.88 0 0
14.92 0 0
14.96 0 0
15 0 0
15.04 0 0
15.08 0 0
15.12 0 0
15.16 0 0
15.2 0 0
15.24 0 0
15.28 0 0
15.32 0 0
15.36 0 0
15.4 0 0
15.44 0 0
15.48 0 0
15.52 0 0
15.56 0 0
15.6 0 0
15.64 0 0
15.68 0 0
15.72 0 0
15.76 0 0
15.8 0 0
15.84 0 0
15.88 0 0
15.92 0 0
15.96 0 0
16 0 0
16.04 0 0
16.08 0 0
16.12 0 0
16.16 0 0
16.2 0 0
16.24 0 0
16.28 0 0
16.32 0 0
16.36 0 0
16.4 0 0
16.44 0 0
16.48 0 0
16.52 0 0
16.56 0 0
16.6 0 0
16.64 0 0
16.68 0 0
16.72 0 0
16.76 0 0
16.8 0 0
16.84 0 0
16.88 0 0
16.92 0 0
16.96 0 0
17 0 0
17.04 0 0
17.08 0 0
17.12 0 0
17.16 0 0
17.2 0 0
17.24 0 0
17.28 0 0
17.32 0 0
17.36 0 0
17.4 0 0
17.44 0 0
17.48 0 0
17.52 0 0
17.56 0 0
17.6 0 0
17.64 0 0
17.68 0 0
17.72 0 0
17.76 0 0
17.8 0 0
17.84 0 0
17.88 0 0
17.92 0 0
17.96 0 0
18 0 0
18.04 0 0
18.08 0 0
18.12 0 0
18.16 0 0
18.2 0 0
18.24 0 0
18.28 0 0
18.32 0 0
18.36 0 0
18.4 0 0
18.44 0 0
18.48 0 0
18.52 0 0
18.56 0 0
18.6 0 0
18.64 0 0
18.68 0 0
18.72 0 0
18.76 0 0
18.8 0 0
18.84 0 0
18.88 0 0
18.92 0 0
18.96 0 0
19 0 0
19.04 0 0
19.08 0 0
19.12 0 0
19.16 0 0
19.2 0 0
19.24 0 0
19.28 0 0
19.32 0 0
19.36 0 0
19.4 0 0
19.44 0 0
19.48 0 0
19.52 0 0
19.56 0 0
19.6 0 0
19.64 0 0
19.68 0 0
19.72 0 0
19.76 0 0
19.8 0 0
19.84 0 0
19.88 0 0
19.92 0 0
19.96 0 0
20 0 0
20.04 0 0
20.08 0 0
20.12 0 0
20.16 0 0
20.2 0 0
20.24 0 0
20.28 0 0
20.32 0 0
20.36 0 0
20.4 0 0
20.44 0 0
20.48 0 0
20.52 0 0
20.56 0 0
20.6 0 0
20.64 0 0
20.68 0 0
20.72 0 0
20.76 0 0
20.8 0 0
20.84 0 0
20.88 0 0
20.92 0 0
20.96 0 0
21 0 0
21.04 0 0
21.08 0 0
21.12 0 0
21.16 0 0
21.2 0 0
21.24 0 0
21.28 0 0
21.32 0 0
21.36 0 0
21.4 0 0
21.44 0 0
21.48 0 0
21.52 0 0
21.56 0 0
21.6 0 0
21.64 0 0
21.68 0 0
21.72 0 0
21.76 0 0
21.8 0 0
21.84 0 0
21.88 0 0
21.92 0 0
21.96 0 0
22 0 0
22.04 0 0
22.08 0 0
22.12 0 0
22.16 0 0
22.2 0 0
22.24 0 0
22.28 0 0
22.32 0 0
22.36 0 0
22.4 0 0
22.44 0 0
22.48 0 0
22.52 0 0
22.56 0 0
22.6 0 0
22.64 0 0
22.68 0 0
22.72 0 0
22.76 0 0
22.8 0 0
22.84 0 0
22.88 0 0
22.92 0 0
22.96 0 0
23 0 0
23.04 0 0
23.08 0 0
23.12 0 0
23.16 0 0
23.2 0 0
23.24 0 0
23.28 0 0
23.32 0 0
23.36 0 0
23.4 0 0
23.44 0 0
23.48 0 0
23.52 0 0
23.56 0 0
23.6 0 0
23.64 0 0
23.68 0 0
23.72 0 0
23.76 0 0
23.8 0 0
23.84 0 0
23.88 0 0
23.92 0 0
23.96 0 0
24 0 0
24.04 0 0
24.08 0 0
24.12 0 0
24.16 0 0
24.2 0 0
24.24 0 0
24.28 0 0
24.32 0 0
24.36 0 0
24.4 0 0
24.44 0 0
24.48 0 0
24.52 0 0
24.56 0 0
24.6 0 0
24.64 0 0
24.68 0 0
24.72 0 0
24.76 0 0
24.8 0 0
24.84 0 0
24.88 0 0
24.92 0 0
24.96 0 0
25 0 0
25.04 0 0
25.08 0 0
25.12 0 0
25.16 0 0
25.2 0 0
25.24 0 0
25.28 0 0
25.32 0 0
25.36 0 0
25.4 0 0
25.44 0 0
25.48 0 0
25.52 0 0
25.56 0 0
25.6 0 0
25.64 0 0
25.68 0 0
25.72 0 0
25.76 0 0
25.8 0 0
25.84 0 0
25.88 0 0
25.92 0 0
25.96 0 0
26 0 0
26.04 0 0
26.08 0 0
26.12 0 0
26.16 0 0
26.2 0 0
26.24 0 0
26.28 0 0
26.32 0 0
26.36 0 0
26.4 0 0
26.44 0 0
26.48 0 0
26.52 0 0
26.56 0 0
26.6 0 0
26.64 0 0
26.68 0 0
26.72 0 0
26.76 0 0
26.8 0 0
26.84 0 0
26.88 0 0
26.92 0 0
26.96 0 0
27 0 0
27.04 0 0
27.08 0 0
27.12 0 0
27.16 0 0
27.2 0 0
27.24 0 0
27.28 0 0
27.32 0 0
27.36 0 0
27.4 0 0
27.44 0 0
27.48 0 0
27.52 0 0
27.56 0 0
27.6 0 0
27.64 0 0
27.68 0 0
27.72 0 0
27.76 0 0
27.8 0 0
27.84 0 0
27.88 0 0
27.92 0 0
27.96 0 0
28 0 0
28.04 0 0
28.08 0 0
28.12 0 0
28.16 0 0
28.2 0 0
28.24 0 0
28.28 0 0
28.32 0 0
28.36 0 0
28.4 0 0
28.44 0 0
28.48 0 0
28.52 0 0
28.56 0 0
28.6 0 0
28.64 0 0
28.68 0 0
28.72 0 0
28.76 0 0
28.8 0 0
28.84 0 0
28.88 0 0
28.92 0 0
28.96 0 0
29 0 0
29.04 0 0
29.08 0 0
29.12 0 0
29.16 0 0
29.2 0 0
29.24 0 0
29.28 0 0
29.32 0 0
29.36 0 0
29.4 0 0
29.44 0 0
29.48 0 0
29.52 0 0
29.56 0 0
29.6 0 0
29.64 0 0
29.68 0 0
29.72 0 0
29.76 0 0
29.8 0 0
29.84 0 0
29.88 0 0
29.92 0 0
29.96 0 0
30 0 0
30.04 0 0
30.08 0 0
30.12 0 0
30.16 0 0
30.2 0 0
30.24 0 0
30.28 0 0
30.32 0 0
30.36 0 0
30.4 0 0
30.44 0 0
30.48 0 0
30.52 0 0
30.56 0 0
30.6 0 0
30.64 0 0
30.68 0 0
30.72 0 0
30.76 0 0
30.8 0 0
30.84 0 0
30.88 0 0
30.92 0 0
30.96 0 0
31 0 0
31.04 0 0
31.08 0 0
31.12 0 0
31.16 0 0
31.2 0 0
31.24 0 0
31.28 0 0
31.32 0 0
31.36 0 0
31.4 0 0
31.44 0 0
31.48 0 0
31.52 0 0
31.56 0 0
31.6 0 0
31.64 0 0
31.68 0 0
31.72 0 0
31.76 0 0
31.8 0 0
31.84 0 0
31.88 0 0
31.92 0 0
31.96 0 0
0 0.005 0
0.04 0.005 0
0.08 0.005 0
0.12 0.005 0
0.16 0.005 0
0.2 0.005 0
0.24 0.005 0
0.28 0.005 0
0.32 0.005 0
0.36 0.005 0
0.4 0.005 0
0.44 0.005 0
0.48 0.005 0
0.52 0.005 0
0.56 0.005 0
0.6 0.005 0
0.64 0.005 0
0.68 0.005 0
0.72 0.005 0
0.76 0.005 0
0.8 0.005 0
0.84 0.005 0
0.88 0.005 0
0.92 0.005 0
0.96 0.005 0
1 0.005 0
1.04 0.005 0
1.08 0.005 0
1.12 0.005 0
1.16 0.005 0
1.2 0.005 0
1.24 0.005 0
1.28 0.005 0
1.32 0.005 0
1.36 0.005 0
1.4 0.005 0
1.44 0.005 0
1.48 0.005 0
1.52 0.005 0
1.56 0.005 0
1.6 0.005 0
1.64 0.005 0
1.68 0.005 0
1.72 0.005 0
1.76 0.005 0
1.8 0.005 0
1.84 0.005 0
1.88 0.005 0
1.92 0.005 0
1.96 0.005 0
2 0.005 0
2.04 0.005 0
2.08 0.005 0
2.12 0.005 0
2.16 0.005 0
2.2 0.005 0
2.24 0.005 0
2.28 0.005 0
2.32 0.005 0
2.36 0.005 0
2.4 0.005 0
2.44 0.005 0
2.48 0.005 0
2.52 0.005 0
2.56 0.005 0
2.6 0.005 0
2.64 0.005 0
2.68 0.005 0
2.72 0.005 0
2.76 0.005 0
2.8 0.005 0
2.84 0.005 0
2.88 0.005 0
2.92 0.005 0
2.96 0.005 0
3 0.005 0
3.04 0.005 0
3.08 0.005 0
3.12 0.005 0
3.16 0.005 0
3.2 0.005 0
3.24 0.005 0
3.28 0.005 0
3.32 0.005 0
3.36 0.005 0
3.4 0.005 0
3.44 0.005 0
3.48 0.005 0
3.52 0.005 0
3.56 0.005 0
3.6 0.005 0
3.64 0.005 0
3.68 0.005 0
3.72 0.005 0
3.76 0.005 0
3.8 0.005 0
3.84 0.005 0
3.88 0.005 0
3.92 0.005 0
3.96 0.005 0
4 0.005 0
4.04 0.005 0
4.08 0.005 0
4.12 0.005 0
4.16 0.005 0
4.2 0.005 0
4.24 0.005 0
4.28 0.005 0
4.32 0.005 0
4.36 0.005 0
4.4 0.005 0
4.44 0.005 0
4.48 0.005 0
4.52 0.005 0
4.56 0.005 0
4.6 0.005 0
4.64 0.005 0
4.68 0.005 0
4.72 0.005 0
4.76 0.005 0
4.8 0.005 0
4.84 0.005 0
4.88 0.005 0
4.92 0.005 0
4.96 0.005 0
5 0.005 0
5.04 0.005 0
5.08 0.005 0
5.12 0.005 0
5.16 0.005 0
5.2 0.005 0
5.24 0.005 0
5.28 0.005 0
5.32 0.005 0
5.36 0.005 0
5.4 0.005 0
5.44 0.005 0
5.48 0.005 0
5.52 0.005 0
5.56 0.005 0
5.6 0.005 0
5.64 0.005 0
5.68 0.005 0
5.72 0.005 0
5.76 0.005 0
5.8 0.005 0
5.84 0.005 0
5.88 0.005 0
5.92 0.005 0
5.96 0.005 0
6 0.005 0
6.04 0.005 0
6.08 0.005 0
6.12 0.005 0
6.16 0.005 0
6.2 0.005 0
6.24 0.005 0
6.28 0.005 0
6.32 0.005 0
6.36 0.005 0
6.4 0.005 0
6.44 0.005 0
6.48 0.005 0
6.52 0.005 0
6.56 0.005 0
6.6 0.005 0
6.64 0.005 0
6.68 0.005 0
6.72 0.005 0
6.76 0.005 0
6.8 0.005 0
6.84 0.005 0
6.88 0.005 0
6.92 0.005 0
6.96 0.005 0
7 0.005 0
7.04 0.005 0
7.08 0.005 0
7.12 0.005 0
7.16 0.005 0
7.2 0.005 0
7.24 0.005 0
7.28 0.005 0
7.32 0.005 0
7.36 0.005 0
7.4 0.005 0
[...]
POINT_DATA 160000

SCALARS v float 1
LOOKUP_TABLE default
0
0
0
0
0
0
0
0
0
0
0
0
0
0
0
0
0
0
0
0
0
0
0
0
0
0
0
0
0
0
0
0
0
0
0
0
0
0
0
0
0
0
0
0
0
0
0
0
0
0
0
0
0
0
0
0
0
0
0
0
0
0
0
0
0
0
0
0
0
0
0
0
0
0
0
0
0
0
0
0
0
0
0
0
0
0
0
0
0
0
0
0
0
0
0
0
0
0
0
0
0
0
0
0
0
0
0
0
0
0
0
0
0
0
0
0
0
0
0
0
0
0
0
0
0
0
0
0
0
0
0
0
0
0
0
0
0
0
0
0
0
0
0
0
0
0
0
0
0
0
0
0
0
0
0
0
0
0
0
0
0
0
0
0
0
0
0
0
0
0
0
0
0
0
0
0
0
0
0
0
0
0
0
0
0
0
0
0
0
0
0
0
0
0
0
0
0
0
0
0
0
0
0
0
0
0
0
0
0
0
0
0
0
0
0
0
0
0
0
0
0
0
0
0
0
0
0
0
0
0
0
0
0
0
0
0
0
0
0
0
0
0
0
0
0
0
0
0
0
0
0
0
0
0
0
0
0
0
0
0
0
0
0
0
0
0
0
0
0
0
0
0
0
0
0
0
0
0
0
0
0
0
0
0
0
0
0
0
0
0
0
0
0
0
0
0
0
0
0
0
0
0
0
0
0
0
0
0
0
0
0
0
0
0
0
0
0
0
0
0
0
0
0
0
0
0
0
0
0
0
0
0
0
0
0
0
0
0
0
0
0
0
0
0
0
0
0
0
0
0
0
0
0
0
0
0
0
0
0
0
0
0
0
0
0
0
0
0
0
0
0
0
0
0
0
0
0
0
0
0
0
0
0
0
0
0
0
0
0
0
0
0
0
0
0
0
0
0
0
0
0
0
0
0
0
0
0
0
0
0
0
0
0
0
0
0
0
0
0
0
0
0
0
0
0
0
0
0
0
0
0
0
0
0
0
0
0
0
0
0
0
0
0
0
0
0
0
0
0
0
0
0
0
0
0
0
0
0
0
0
0
0
0
0
0
0
0
0
0
0
0
0
0
0
0
0
0
0
0
0
0
0
0
0
0
0
0
0
0
0
0
0
0
0
0
0
0
0
0
0
0
0
0
0
0
0
0
0
0
0
0
0
0
0
0
0
0
0
0
0
0
0
0
0
0
0
0
0
0
0
0
0
0
0
0
0
0
0
0
0
0
0
0
0
0
0
0
0
0
0
0
0
0
0
0
0
0
0
0
0
0
0
0
0
0
0
0
0
0
0
0
0
0
0
0
0
0
0
0
0
0
0
0
0
0
0
0
0
0
0
0
0
0
0
0
0
0
0
0
0
0
0
0
0
0
0
0
0
0
0
0
0
0
0
0
0
0
0
0
0
0
0
0
0
0
0
0
0
0
0
0
0
0
0
0
0
0
0
0
0
0
0
0
0
0
0
0
0
0
0
0
0
0
0
0
0
0
0
0
0
0
0
0
0
0
0
0
0
0
0
0
0
0
0
0
0
0
0
0
0
0
0
0
0
0
0
0
0
0
0
0
0
0
0
0
0
0
0
0
0
0
0
0
0
0
0
0
0
0
0
0
0
0
0
0
0
0
0
0
0
0
0
0
0
0
0
0
0
0
0
0
0
0
0
0
0
0
0
0
0
0
0
0
0
0
0
0
0
0
0
0
0
0
0
0
0
0
0
0
0
0
0
0
0
0
0
0
0
0
0
0
0
0
0
0
0
0
0
0
0
0
0
0
0
0
0
0
0
0
0
0
0
0
0
0
0
0
0
0
0
0
0
0.037415
0.0093804
0.00346724
0.00176563
0.00108015
0.000736387
0.000537609
0.000411063
0.000324863
0.000263174
0.000217352
0.000182321
0.000154919
0.000133082
0.000115409
0.000100918
8.88986e-05
7.88304e-05
7.03203e-05
6.30681e-05
5.68411e-05
5.14567e-05
4.677e-05
4.26652e-05
3.90486e-05
3.58444e-05
3.29903e-05
3.04353e-05
2.8137e-05
2.60603e-05
2.41758e-05
2.24587e-05
2.08884e-05
1.94471e-05
1.812e-05
1.68941e-05
1.57585e-05
1.47036e-05
1.37214e-05
1.28046e-05
1.19471e-05
1.11433e-05
1.03885e-05
9.6785e-06
9.00946e-06
8.37807e-06
7.78136e-06
7.21665e-06
6.68153e-06
6.17384e-06
5.69163e-06
5.23313e-06
4.79671e-06
4.3809e-06
3.98437e-06
3.60589e-06
3.24432e-06
2.89863e-06
2.56786e-06
2.25113e-06
1.94762e-06
1.65658e-06
1.37731e-06
1.10916e-06
8.51522e-07
6.03831e-07
3.65566e-07
1.36236e-07
-8.46157e-08
-2.97423e-07
-5.02583e-07
-7.00466e-07
-8.91426e-07
-1.0758e-06
-1.2539e-06
-1.42601e-06
-1.59242e-06
-1.75337e-06
-1.90911e-06
-2.05989e-06
-2.20591e-06
-2.34738e-06
-2.48449e-06
-2.61743e-06
-2.74639e-06
-2.87151e-06
-2.99296e-06
-3.11089e-06
-3.22544e-06
-3.33674e-06
-3.44493e-06
-3.55012e-06
-3.65243e-06
-3.75198e-06
-3.84887e-06
-3.94319e-06
-4.03504e-06
-4.12452e-06
-4.21172e-06
-4.29672e-06
-4.3796e-06
-4.46043e-06
-4.53929e-06
-4.61626e-06
-4.6914e-06
-4.76478e-06
-4.83646e-06
-4.9065e-06
-4.97496e-06
-5.0419e-06
-5.10738e-06
-5.17145e-06
-5.23416e-06
-5.29558e-06
-5.35573e-06
-5.41469e-06
-5.47249e-06
-5.52919e-06
-5.58483e-06
-5.63946e-06
-5.69315e-06
-5.74593e-06
-5.79787e-06
-5.84901e-06
-5.89941e-06
-5.94915e-06
-5.99827e-06
-6.04685e-06
-6.09496e-06
-6.14267e-06
-6.19005e-06
-6.23719e-06
-6.28414e-06
-6.331e-06
-6.37782e-06
-6.42469e-06
-6.47166e-06
-6.5188e-06
-6.56615e-06
-6.61375e-06
-6.66163e-06
-6.70982e-06
-6.75832e-06
-6.80712e-06
-6.8562e-06
-6.90554e-06
-6.95509e-06
-7.00479e-06
-7.05459e-06
-7.10441e-06
-7.15417e-06
-7.20381e-06
-7.25322e-06
-7.30233e-06
-7.35106e-06
-7.39932e-06
-7.44705e-06
-7.49418e-06
-7.54064e-06
-7.58638e-06
-7.63136e-06
-7.67554e-06
-7.7189e-06
-7.7614e-06
-7.80305e-06
-7.84383e-06
-7.88375e-06
-7.9228e-06
-7.96101e-06
-7.99838e-06
-8.03493e-06
-8.07068e-06
-8.10565e-06
-8.13987e-06
-8.17334e-06
-8.20611e-06
-8.23817e-06
-8.26956e-06
-8.30029e-06
-8.33037e-06
-8.35981e-06
-8.38863e-06
-8.41684e-06
-8.44445e-06
-8.47146e-06
-8.49787e-06
-8.52371e-06
-8.54897e-06
-8.57365e-06
-8.59778e-06
-8.62135e-06
-8.64438e-06
-8.66687e-06
-8.68884e-06
-8.71028e-06
-8.7312e-06
-8.7516e-06
-8.77148e-06
-8.79085e-06
-8.80972e-06
-8.82808e-06
-8.84595e-06
-8.86335e-06
-8.88028e-06
-8.89675e-06
-8.91277e-06
-8.92834e-06
-8.94344e-06
-8.95809e-06
-8.97225e-06
-8.98593e-06
-8.99913e-06
-9.01187e-06
-9.02417e-06
-9.03609e-06
-9.04768e-06
-9.05901e-06
-9.07016e-06
-9.08119e-06
-9.09218e-06
-9.10316e-06
-9.11415e-06
-9.12514e-06
-9.1361e-06
-9.14698e-06
-9.15768e-06
-9.16811e-06
-9.17816e-06
-9.18774e-06
-9.19674e-06
-9.20508e-06
-9.2127e-06
-9.21957e-06
-9.22566e-06
-9.23099e-06
-9.23558e-06
-9.23947e-06
-9.24273e-06
-9.24542e-06
-9.24761e-06
-9.24937e-06
-9.25078e-06
-9.2519e-06
-9.25279e-06
-9.25349e-06
-9.25405e-06
-9.2545e-06
-9.25488e-06
-9.25521e-06
-9.25551e-06
-9.25578e-06
-9.25602e-06
-9.25626e-06
-9.2565e-06
-9.25672e-06
-9.25695e-06
-9.25718e-06
-9.25741e-06
-9.25764e-06
-9.25787e-06
-9.2581e-06
-9.25833e-06
-9.25856e-06
-9.25879e-06
-9.25903e-06
-9.25926e-06
-9.25949e-06
-9.25973e-06
-9.25997e-06
-9.26021e-06
-9.26044e-06
-9.26068e-06
-9.26092e-06
-9.26115e-06
-9.2614e-06
-9.26164e-06
-9.26187e-06
-9.26211e-06
-9.26235e-06
-9.26259e-06
-9.26283e-06
-9.26306e-06
-9.2633e-06
-9.26354e-06
-9.26378e-06
-9.26402e-06
-9.26425e-06
-9.26449e-06
-9.26473e-06
-9.26497e-06
-9.26521e-06
-9.26545e-06
-9.26568e-06
-9.26592e-06
-9.26616e-06
-9.2664e-06
-9.26664e-06
-9.26687e-06
-9.26711e-06
-9.26735e-06
-9.26759e-06
-9.26782e-06
-9.26806e-06
-9.2683e-06
-9.26854e-06
-9.26878e-06
-9.26901e-06
-9.26925e-06
-9.26949e-06
-9.26973e-06
-9.26997e-06
-9.27021e-06
-9.27044e-06
-9.27068e-06
-9.27092e-06
-9.27116e-06
-9.27139e-06
-9.27163e-06
-9.27187e-06
-9.27211e-06
-9.27235e-06
-9.27259e-06
-9.27283e-06
-9.27307e-06
-9.27331e-06
-9.27354e-06
-9.27378e-06
-9.27402e-06
-9.27426e-06
-9.2745e-06
-9.27473e-06
-9.27497e-06
-9.27521e-06
-9.27545e-06
-9.27569e-06
-9.27593e-06
-9.27617e-06
-9.27641e-06
-9.27665e-06
-9.27689e-06
-9.27712e-06
-9.27736e-06
-9.2776e-06
-9.27784e-06
-9.27808e-06
-9.27832e-06
-9.27856e-06
-9.2788e-06
-9.27904e-06
-9.27927e-06
-9.27951e-06
-9.27976e-06
-9.28e-06
-9.28024e-06
-9.28048e-06
-9.28072e-06
-9.28096e-06
-9.2812e-06
-9.28143e-06
-9.28168e-06
-9.28192e-06
-9.28215e-06
-9.28239e-06
-9.28263e-06
-9.28288e-06
-9.28312e-06
-9.28336e-06
-9.2836e-06
-9.28383e-06
-9.28407e-06
-9.28432e-06
-9.28456e-06
-9.2848e-06
-9.28504e-06
-9.28528e-06
-9.28552e-06
-9.28576e-06
-9.286e-06
-9.28624e-06
-9.28648e-06
-9.28672e-06
-9.28696e-06
-9.2872e-06
-9.28744e-06
-9.28768e-06
-9.28793e-06
-9.28817e-06
-9.28841e-06
-9.28865e-06
-9.28889e-06
-9.28913e-06
-9.28937e-06
-9.28961e-06
-9.28986e-06
-9.2901e-06
-9.29034e-06
-9.29058e-06
-9.29083e-06
-9.29106e-06
-9.29131e-06
-9.29155e-06
-9.29179e-06
-9.29204e-06
-9.29228e-06
-9.29252e-06
-9.29276e-06
-9.293e-06
-9.29324e-06
-9.29349e-06
-9.29373e-06
-9.29397e-06
-9.29422e-06
-9.29446e-06
-9.2947e-06
-9.29494e-06
-9.29518e-06
-9.29543e-06
-9.29567e-06
-9.29591e-06
-9.29616e-06
-9.2964e-06
-9.29665e-06
-9.29689e-06
-9.29713e-06
-9.29737e-06
-9.29762e-06
-9.29786e-06
-9.2981e-06
-9.29835e-06
-9.29859e-06
-9.29883e-06
-9.29908e-06
-9.29932e-06
-9.29957e-06
-9.29981e-06
-9.30005e-06
-9.3003e-06
-9.30054e-06
-9.30079e-06
-9.30103e-06
-9.30128e-06
-9.30152e-06
-9.30176e-06
-9.30201e-06
-9.30225e-06
-9.3025e-06
-9.30274e-06
-9.30299e-06
-9.30323e-06
-9.30347e-06
-9.30372e-06
-9.30396e-06
-9.30421e-06
-9.30445e-06
-9.3047e-06
-9.30494e-06
-9.30519e-06
-9.30544e-06
-9.30568e-06
-9.30592e-06
-9.30617e-06
-9.30642e-06
-9.30666e-06
-9.30691e-06
-9.30715e-06
-9.3074e-06
-9.30764e-06
-9.30789e-06
-9.30814e-06
-9.30838e-06
-9.30863e-06
-9.30887e-06
-9.30912e-06
-9.30936e-06
-9.30961e-06
-9.30986e-06
-9.3101e-06
-9.31035e-06
-9.3106e-06
-9.31084e-06
-9.31109e-06
-9.31134e-06
-9.31158e-06
-9.31183e-06
-9.31207e-06
-9.31232e-06
-9.31257e-06
-9.31281e-06
-9.31306e-06
-9.31331e-06
-9.31355e-06
-9.3138e-06
-9.31405e-06
-9.31429e-06
-9.31454e-06
-9.31479e-06
-9.31503e-06
-9.31528e-06
-9.31553e-06
-9.31578e-06
-9.31603e-06
-9.31627e-06
-9.31652e-06
-9.31676e-06
-9.31701e-06
-9.31726e-06
-9.31751e-06
-9.31776e-06
-9.318e-06
-9.31825e-06
-9.3185e-06
-9.31874e-06
-9.31899e-06
-9.31924e-06
-9.31949e-06
-9.31974e-06
-9.31999e-06
-9.32024e-06
-9.32048e-06
-9.32073e-06
-9.32098e-06
-9.32123e-06
-9.32147e-06
-9.32172e-06
-9.32197e-06
-9.32222e-06
-9.32247e-06
-9.32271e-06
-9.32296e-06
-9.32321e-06
-9.32346e-06
-9.32371e-06
-9.32396e-06
-9.32421e-06
-9.32446e-06
-9.3247e-06
-9.32495e-06
-9.3252e-06
-9.32545e-06
-9.3257e-06
-9.32595e-06
-9.3262e-06
-9.32645e-06
-9.32669e-06
-9.32695e-06
-9.3272e-06
-9.32744e-06
-9.32769e-06
-9.32794e-06
-9.32819e-06
-9.32844e-06
-9.32869e-06
-9.32894e-06
-9.32919e-06
-9.32944e-06
-9.32969e-06
-9.32993e-06
-9.33018e-06
-9.33043e-06
-9.33068e-06
-9.33093e-06
-9.33118e-06
-9.33144e-06
-9.33168e-06
-9.33193e-06
-9.33218e-06
-9.33243e-06
-9.33268e-06
-9.33293e-06
-9.33318e-06
-9.33343e-06
-9.33368e-06
-9.33393e-06
-9.33418e-06
-9.33443e-06
-9.33468e-06
-9.33493e-06
-9.33518e-06
-9.33543e-06
-9.33568e-06
-9.33594e-06
-9.33619e-06
-9.33644e-06
-9.33669e-06
-9.33694e-06
-9.33719e-06
-9.33744e-06
-9.33769e-06
-9.33794e-06
-9.33819e-06
-9.33844e-06
-9.33869e-06
-9.33894e-06
-9.33919e-06
-9.33944e-06
-9.3397e-06
-9.33995e-06
-9.3402e-06
-9.34045e-06
-9.3407e-06
-9.34095e-06
-9.34121e-06
-9.34145e-06
-9.3417e-06
-9.34195e-06
-9.34221e-06
-9.34246e-06
-9.34271e-06
-9.34296e-06
-9.34321e-06
-9.34346e-06
-9.34371e-06
-9.34397e-06
-9.34422e-06
-9.34447e-06
-9.34472e-06
-9.34497e-06
-9.34523e-06
-9.34548e-06
-9.34573e-06
-9.34598e-06
-9.34623e-06
-9.34648e-06
-9.34674e-06
-9.34699e-06
-9.34724e-06
-9.34749e-06
-9.34774e-06
-9.348e-06
-9.34825e-06
-9.3485e-06
-9.34875e-06
-9.349e-06
-9.34926e-06
-9.34951e-06
-9.34976e-06
-9.35001e-06
-9.35027e-06
-9.35052e-06
-9.35077e-06
-9.35102e-06
-9.35128e-06
-9.35153e-06
-9.35178e-06
-9.35203e-06
-9.35229e-06
-9.35254e-06
-9.35279e-06
-9.35304e-06
-9.3533e-06
-9.35355e-06
-9.3538e-06
-9.35406e-06
-9.35431e-06
-9.35456e-06
-9.35481e-06
-9.35507e-06
-9.35532e-06
-9.35557e-06
-9.35583e-06
-9.35608e-06
-9.35634e-06
-9.35659e-06
-9.35684e-06
-9.3571e-06
-9.35735e-06
-9.3576e-06
-9.35785e-06
-9.35811e-06
-9.35836e-06
-9.35861e-06
-9.35887e-06
-9.35912e-06
-9.35938e-06
-9.35963e-06
-9.35988e-06
-9.36014e-06
-9.36039e-06
-9.36065e-06
-9.3609e-06
-9.36115e-06
-9.36141e-06
-9.36166e-06
-9.36192e-06
-9.36217e-06
-9.36242e-06
-9.36268e-06
-9.36293e-06
-9.36319e-06
-9.36344e-06
-9.3637e-06
-9.36395e-06
-9.3642e-06
-9.36446e-06
-9.36471e-06
-9.36496e-06
-9.36522e-06
-9.36548e-06
-9.36573e-06
-9.36599e-06
-9.36624e-06
-9.3665e-06
-9.36675e-06
-9.367e-06
-9.36726e-06
-9.36751e-06
-9.36777e-06
-9.36802e-06
-9.36828e-06
-9.36853e-06
-9.36879e-06
-9.36904e-06
-9.3693e-06
-9.36955e-06
-9.36981e-06
-9.37007e-06
-9.37032e-06
-9.37058e-06
-9.37083e-06
-9.37109e-06
-9.37134e-06
-9.3716e-06
-9.37185e-06
-9.37211e-06
-9.37236e-06
-9.37262e-06
-9.37287e-06
-9.37313e-06
-9.37338e-06
-9.37364e-06
-9.3739e-06
-9.37415e-06
-9.37441e-06
-9.37466e-06
-9.37492e-06
-9.37518e-06
-9.37543e-06
-9.37569e-06
-9.37594e-06
-9.3762e-06
-9.37646e-06
-9.37671e-06
-9.37697e-06
-9.37723e-06
-9.37748e-06
-9.37773e-06
-9.37799e-06
-9.37825e-06
-9.37851e-06
-9.37876e-06
-9.37902e-06
-9.37927e-06
-9.37953e-06
-9.37979e-06
-9.38004e-06
-9.38029e-06
-9.38055e-06
-9.3808e-06
-9.38106e-06
-9.38131e-06
-9.38156e-06
-9.38181e-06
-9.38206e-06
-9.3823e-06
-9.38254e-06
-9.38278e-06
-9.38302e-06
-9.38325e-06
-9.38347e-06
-9.38368e-06
-9.38389e-06
-9.38407e-06
-9.38424e-06
-9.38439e-06
-9.38451e-06
-9.38459e-06
-9.38462e-06
-9.38461e-06
-9.38451e-06
-9.38434e-06
-9.38402e-06
-9.3836e-06
-9.38293e-06
-9.38212e-06
-9.38087e-06
-9.37947e-06
-9.37721e-06
-9.37495e-06
-9.37084e-06
-9.36744e-06
-9.35952e-06
-9.35538e-06
-9.33774e-06
-9.33885e-06
-9.28541e-06
-9.38518e-06
-6.62576e-06
-6.62576e-06
0
0
0.096609
0.0320518
0.0130053
0.00682549
0.00423519
0.00291325
0.0021416
0.00164752
0.00130965
0.00106717
0.000886662
0.000748412
0.000640106
0.000553682
0.000483655
0.000426174
0.000378458
0.000338454
0.000304617
0.000275763
0.000250975
0.000229532
0.000210861
0.000194503
0.000180089
0.000167317
0.00015594
0.000145755
0.000136594
0.000128317
0.000120807
0.000113966
0.000107711
0.000101971
9.66868e-05
9.18071e-05
8.72879e-05
8.30913e-05
7.91844e-05
7.55388e-05
7.21295e-05
6.89349e-05
6.59355e-05
6.31146e-05
6.04571e-05
5.79497e-05
5.55803e-05
5.33384e-05
5.12144e-05
4.91995e-05
4.72861e-05
4.54669e-05
4.37355e-05
4.20862e-05
4.05135e-05
3.90125e-05
3.75787e-05
3.6208e-05
3.48966e-05
3.36409e-05
3.24378e-05
3.12841e-05
3.01772e-05
2.91144e-05
2.80934e-05
2.71118e-05
2.61676e-05
2.52589e-05
2.43838e-05
2.35406e-05
2.27278e-05
2.19438e-05
2.11873e-05
2.04569e-05
1.97514e-05
1.90696e-05
1.84104e-05
1.77729e-05
1.7156e-05
1.65588e-05
1.59805e-05
1.54202e-05
1.48771e-05
1.43506e-05
1.38399e-05
1.33443e-05
1.28634e-05
1.23963e-05
1.19427e-05
1.15019e-05
1.10734e-05
1.06569e-05
1.02517e-05
9.85747e-06
9.47378e-06
9.10025e-06
8.73646e-06
8.38207e-06
8.03671e-06
7.70006e-06
7.37179e-06
7.0516e-06
6.73919e-06
6.43427e-06
6.13657e-06
5.84583e-06
5.56179e-06
5.2842e-06
5.01283e-06
4.74745e-06
4.48782e-06
4.23373e-06
3.98497e-06
3.74131e-06
3.50257e-06
3.26853e-06
3.03899e-06
2.81375e-06
2.59261e-06
2.37536e-06
2.16179e-06
1.9517e-06
1.74487e-06
1.54106e-06
1.34004e-06
1.14156e-06
9.45363e-07
7.51179e-07
5.58729e-07
3.67723e-07
1.77871e-07
-1.11218e-08
-1.9955e-07
-3.87701e-07
-5.75854e-07
-7.64271e-07
-9.53189e-07
-1.14282e-06
-1.33334e-06
-1.52488e-06
-1.71756e-06
-1.91141e-06
-2.10644e-06
-2.3026e-06
-2.4998e-06
-2.69789e-06
-2.89667e-06
-3.09594e-06
-3.29541e-06
-3.49481e-06
-3.69381e-06
-3.89211e-06
-4.08936e-06
-4.28523e-06
-4.47941e-06
-4.67159e-06
-4.8615e-06
-5.04886e-06
-5.23345e-06
-5.41507e-06
-5.59357e-06
-5.76881e-06
-5.94068e-06
-6.10913e-06
-6.2741e-06
-6.4356e-06
-6.59362e-06
-6.7482e-06
-6.89938e-06
-7.04722e-06
-7.19179e-06
-7.33318e-06
-7.47146e-06
-7.60673e-06
-7.73907e-06
-7.86855e-06
-7.99526e-06
-8.11926e-06
-8.24062e-06
-8.35939e-06
-8.47563e-06
-8.58939e-06
-8.70069e-06
-8.80958e-06
-8.91608e-06
-9.02023e-06
-9.12205e-06
-9.22156e-06
-9.31881e-06
-9.41382e-06
-9.50663e-06
-9.59727e-06
-9.68578e-06
-9.77217e-06
-9.85648e-06
-9.93871e-06
-1.00189e-05
-1.0097e-05
-1.01731e-05
-1.02471e-05
-1.03192e-05
-1.03894e-05
-1.04576e-05
-1.0524e-05
-1.05886e-05
-1.06514e-05
-1.07124e-05
-1.07715e-05
-1.08288e-05
-1.08842e-05
-1.09377e-05
-1.09893e-05
-1.10392e-05
-1.10874e-05
-1.11341e-05
-1.11796e-05
-1.12241e-05
-1.12678e-05
-1.13111e-05
-1.13542e-05
-1.13971e-05
-1.14399e-05
-1.14826e-05
-1.1525e-05
-1.15668e-05
-1.16077e-05
-1.16473e-05
-1.16853e-05
-1.17212e-05
-1.17548e-05
-1.17857e-05
-1.18138e-05
-1.18389e-05
-1.1861e-05
-1.18801e-05
-1.18965e-05
-1.19102e-05
-1.19215e-05
-1.19307e-05
-1.19381e-05
-1.19439e-05
-1.19485e-05
-1.19519e-05
-1.19545e-05
-1.19565e-05
-1.19579e-05
-1.1959e-05
-1.19598e-05
-1.19604e-05
-1.19609e-05
-1.19613e-05
-1.19616e-05
-1.19619e-05
-1.19622e-05
-1.19625e-05
-1.19628e-05
-1.19631e-05
-1.19633e-05
-1.19636e-05
-1.19639e-05
-1.19642e-05
-1.19644e-05
-1.19647e-05
-1.1965e-05
-1.19653e-05
-1.19656e-05
-1.19659e-05
-1.19662e-05
-1.19665e-05
-1.19668e-05
-1.19671e-05
-1.19674e-05
-1.19677e-05
-1.19681e-05
-1.19684e-05
-1.19687e-05
-1.1969e-05
-1.19693e-05
-1.19696e-05
-1.19699e-05
-1.19702e-05
-1.19705e-05
-1.19709e-05
-1.19712e-05
-1.19715e-05
-1.19718e-05
-1.19721e-05
-1.19724e-05
-1.19727e-05
-1.1973e-05
-1.19733e-05
-1.19736e-05
-1.19739e-05
-1.19743e-05
-1.19746e-05
-1.19749e-05
-1.19752e-05
-1.19755e-05
-1.19758e-05
-1.19761e-05
-1.19764e-05
-1.19767e-05
-1.1977e-05
-1.19774e-05
-1.19777e-05
-1.1978e-05
-1.19783e-05
-1.19786e-05
-1.19789e-05
-1.19792e-05
-1.19795e-05
-1.19798e-05
-1.19801e-05
-1.19804e-05
-1.19808e-05
-1.19811e-05
-1.19814e-05
-1.19817e-05
-1.1982e-05
-1.19823e-05
-1.19826e-05
-1.19829e-05
-1.19832e-05
-1.19835e-05
-1.19839e-05
-1.19842e-05
-1.19845e-05
-1.19848e-05
-1.19851e-05
-1.19854e-05
-1.19857e-05
-1.1986e-05
-1.19863e-05
-1.19866e-05
-1.1987e-05
-1.19873e-05
-1.19876e-05
-1.19879e-05
-1.19882e-05
-1.19885e-05
-1.19888e-05
-1.19891e-05
-1.19894e-05
-1.19898e-05
-1.19901e-05
-1.19904e-05
-1.19907e-05
-1.1991e-05
-1.19913e-05
-1.19916e-05
-1.19919e-05
-1.19923e-05
-1.19926e-05
-1.19929e-05
-1.19932e-05
-1.19935e-05
-1.19938e-05
-1.19941e-05
-1.19944e-05
-1.19947e-05
-1.19951e-05
-1.19954e-05
-1.19957e-05
-1.1996e-05
-1.19963e-05
-1.19966e-05
-1.19969e-05
-1.19972e-05
-1.19975e-05
-1.19979e-05
-1.19982e-05
-1.19985e-05
-1.19988e-05
-1.19991e-05
-1.19994e-05
-1.19997e-05
-1.20001e-05
-1.20004e-05
-1.20007e-05
-1.2001e-05
-1.20013e-05
-1.20016e-05
-1.20019e-05
-1.20022e-05
-1.20026e-05
-1.20029e-05
-1.20032e-05
-1.20035e-05
-1.20038e-05
-1.20041e-05
-1.20044e-05
-1.20048e-05
-1.20051e-05
-1.20054e-05
-1.20057e-05
-1.2006e-05
-1.20063e-05
-1.20066e-05
-1.2007e-05
-1.20073e-05
-1.20076e-05
-1.20079e-05
-1.20082e-05
-1.20085e-05
-1.20088e-05
-1.20092e-05
-1.20095e-05
-1.20098e-05
-1.20101e-05
-1.20104e-05
-1.20107e-05
-1.20111e-05
-1.20114e-05
-1.20117e-05
-1.2012e-05
-1.20123e-05
-1.20126e-05
-1.20129e-05
-1.20133e-05
-1.20136e-05
-1.20139e-05
-1.20142e-05
-1.20145e-05
-1.20148e-05
-1.20152e-05
-1.20155e-05
-1.20158e-05
-1.20161e-05
-1.20164e-05
-1.20167e-05
-1.20171e-05
-1.20174e-05
-1.20177e-05
-1.2018e-05
-1.20183e-05
-1.20186e-05
-1.2019e-05
-1.20193e-05
-1.20196e-05
-1.20199e-05
-1.20202e-05
-1.20206e-05
-1.20209e-05
-1.20212e-05
-1.20215e-05
-1.20218e-05
-1.20221e-05
-1.20225e-05
-1.20228e-05
-1.20231e-05
-1.20234e-05
-1.20237e-05
-1.2024e-05
-1.20244e-05
-1.20247e-05
-1.2025e-05
-1.20253e-05
-1.20256e-05
-1.2026e-05
-1.20263e-05
-1.20266e-05
-1.20269e-05
-1.20272e-05
-1.20276e-05
-1.20279e-05
-1.20282e-05
-1.20285e-05
-1.20288e-05
-1.20292e-05
-1.20295e-05
-1.20298e-05
-1.20301e-05
-1.20304e-05
-1.20307e-05
-1.20311e-05
-1.20314e-05
-1.20317e-05
-1.2032e-05
-1.20323e-05
-1.20327e-05
-1.2033e-05
-1.20333e-05
-1.20336e-05
-1.2034e-05
-1.20343e-05
-1.20346e-05
-1.20349e-05
-1.20352e-05
-1.20356e-05
-1.20359e-05
-1.20362e-05
-1.20365e-05
-1.20368e-05
-1.20372e-05
-1.20375e-05
-1.20378e-05
-1.20381e-05
-1.20384e-05
-1.20388e-05
-1.20391e-05
-1.20394e-05
-1.20397e-05
-1.204e-05
-1.20404e-05
-1.20407e-05
-1.2041e-05
-1.20413e-05
-1.20417e-05
-1.2042e-05
-1.20423e-05
-1.20426e-05
-1.20429e-05
-1.20433e-05
-1.20436e-05
-1.20439e-05
-1.20442e-05
-1.20446e-05
-1.20449e-05
-1.20452e-05
-1.20455e-05
-1.20458e-05
-1.20462e-05
-1.20465e-05
-1.20468e-05
-1.20471e-05
-1.20475e-05
-1.20478e-05
-1.20481e-05
-1.20484e-05
-1.20488e-05
-1.20491e-05
-1.20494e-05
-1.20497e-05
-1.205e-05
-1.20504e-05
-1.20507e-05
-1.2051e-05
-1.20513e-05
-1.20517e-05
-1.2052e-05
-1.20523e-05
-1.20526e-05
-1.2053e-05
-1.20533e-05
-1.20536e-05
-1.20539e-05
-1.20542e-05
-1.20546e-05
-1.20549e-05
-1.20552e-05
-1.20555e-05
-1.20559e-05
-1.20562e-05
-1.20565e-05
-1.20568e-05
-1.20572e-05
-1.20575e-05
-1.20578e-05
-1.20581e-05
-1.20585e-05
-1.20588e-05
-1.20591e-05
-1.20594e-05
-1.20598e-05
-1.20601e-05
-1.20604e-05
-1.20607e-05
-1.20611e-05
-1.20614e-05
-1.20617e-05
-1.2062e-05
-1.20624e-05
-1.20627e-05
-1.2063e-05
-1.20633e-05
-1.20637e-05
-1.2064e-05
-1.20643e-05
-1.20646e-05
-1.2065e-05
-1.20653e-05
-1.20656e-05
-1.20659e-05
-1.20663e-05
-1.20666e-05
-1.20669e-05
-1.20672e-05
-1.20676e-05
-1.20679e-05
-1.20682e-05
-1.20685e-05
-1.20689e-05
-1.20692e-05
-1.20695e-05
-1.20698e-05
-1.20702e-05
-1.20705e-05
-1.20708e-05
-1.20712e-05
-1.20715e-05
-1.20718e-05
-1.20721e-05
-1.20725e-05
-1.20728e-05
-1.20731e-05
-1.20734e-05
-1.20738e-05
-1.20741e-05
-1.20744e-05
-1.20747e-05
-1.20751e-05
-1.20754e-05
-1.20757e-05
-1.20761e-05
-1.20764e-05
-1.20767e-05
-1.2077e-05
-1.20774e-05
-1.20777e-05
-1.2078e-05
-1.20783e-05
-1.20787e-05
-1.2079e-05
-1.20793e-05
-1.20796e-05
-1.208e-05
-1.20803e-05
-1.20806e-05
-1.2081e-05
-1.20813e-05
-1.20816e-05
-1.20819e-05
-1.20823e-05
-1.20826e-05
-1.20829e-05
-1.20833e-05
-1.20836e-05
-1.20839e-05
-1.20842e-05
-1.20846e-05