# vtk DataFile Version 2.0
FlowField
ASCII
DATASET STRUCTURED_GRID
DIMENSIONS 800 1 200
POINTS 160000 float
0 0 0
0.04 0 0
0.08 0 0
0.12 0 0
0.16 0 0
0.2 0 0
0.24 0 0
0.28 0 0
0.32 0 0
0.36 0 0
0.4 0 0
0.44 0 0
0.48 0 0
0.52 0 0
0.56 0 0
0.6 0 0
0.64 0 0
0.68 0 0
0.72 0 0
0.76 0 0
0.8 0 0
0.84 0 0
0.88 0 0
0.92 0 0
0.96 0 0
1 0 0
1.04 0 0
1.08 0 0
1.12 0 0
1.16 0 0
1.2 0 0
1.24 0 0
1.28 0 0
1.32 0 0
1.36 0 0
1.4 0 0
1.44 0 0
1.48 0 0
1.52 0 0
1.56 0 0
1.6 0 0
1.64 0 0
1.68 0 0
1.72 0 0
1.76 0 0
1.8 0 0
1.84 0 0
1.88 0 0
1.92 0 0
1.96 0 0
2 0 0
2.04 0 0
2.08 0 0
2.12 0 0
2.16 0 0
2.2 0 0
2.24 0 0
2.28 0 0
2.32 0 0
2.36 0 0
2.4 0 0
2.44 0 0
2.48 0 0
2.52 0 0
2.56 0 0
2.6 0 0
2.64 0 0
2.68 0 0
2.72 0 0
2.76 0 0
2.8 0 0
2.84 0 0
2.88 0 0
2.92 0 0
2.96 0 0
3 0 0
3.04 0 0
3.08 0 0
3.12 0 0
3.16 0 0
3.2 0 0
3.24 0 0
3.28 0 0
3.32 0 0
3.36 0 0
3.4 0 0
3.44 0 0
3.48 0 0
3.52 0 0
3.56 0 0
3.6 0 0
3.64 0 0
3.68 0 0
3.72 0 0
3.76 0 0
3.8 0 0
3.84 0 0
3.88 0 0
3.92 0 0
3.96 0 0
4 0 0
4.04 0 0
4.08 0 0
4.12 0 0
4.16 0 0
4.2 0 0
4.24 0 0
4.28 0 0
4.32 0 0
4.36 0 0
4.4 0 0
4.44 0 0
4.48 0 0
4.52 0 0
4.56 0 0
4.6 0 0
4.64 0 0
4.68 0 0
4.72 0 0
4.76 0 0
4.8 0 0
4.84 0 0
4.88 0 0
4.92 0 0
4.96 0 0
5 0 0
5.04 0 0
5.08 0 0
5.12 0 0
5.16 0 0
5.2 0 0
5.24 0 0
5.28 0 0
5.32 0 0
5.36 0 0
5.4 0 0
5.44 0 0
5.48 0 0
5.52 0 0
5.56 0 0
5.6 0 0
5.64 0 0
5.68 0 0
5.72 0 0
5.76 0 0
5.8 0 0
5.84 0 0
5.88 0 0
5.92 0 0
5.96 0 0
6 0 0
6.04 0 0
6.08 0 0
6.12 0 0
6.16 0 0
6.2 0 0
6.24 0 0
6.28 0 0
6.32 0 0
6.36 0 0
6.4 0 0
6.44 0 0
6.48 0 0
6.52 0 0
6.56 0 0
6.6 0 0
6.64 0 0
6.68 0 0
6.72 0 0
6.76 0 0
6.8 0 0
6.84 0 0
6.88 0 0
6.92 0 0
6.96 0 0
7 0 0
7.04 0 0
7.08 0 0
7.12 0 0
7.16 0 0
7.2 0 0
7.24 0 0
7.28 0 0
7.32 0 0
7.36 0 0
7.4 0 0
7.44 0 0
7.48 0 0
7.52 0 0
7.56 0 0
7.6 0 0
7.64 0 0
7.68 0 0
7.72 0 0
7.76 0 0
7.8 0 0
7.84 0 0
7.88 0 0
7.92 0 0
7.96 0 0
8 0 0
8.04 0 0
8.08 0 0
8.12 0 0
8.16 0 0
8.2 0 0
8.24 0 0
8.28 0 0
8.32 0 0
8.36 0 0
8.4 0 0
8.44 0 0
8.48 0 0
8.52 0 0
8.56 0 0
8.6 0 0
8.64 0 0
8.68 0 0
8.72 0 0
8.76 0 0
8.8 0 0
8.84 0 0
8.88 0 0
8.92 0 0
8.96 0 0
9 0 0
9.04 0 0
9.08 0 0
9.12 0 0
9.16 0 0
9.2 0 0
9.24 0 0
9.28 0 0
9.32 0 0
9.36 0 0
9.4 0 0
9.44 0 0
9.48 0 0
9.52 0 0
9.56 0 0
9.6 0 0
9.64 0 0
9.68 0 0
9.72 0 0
9.76 0 0
9.8 0 0
9.84 0 0
9.88 0 0
9.92 0 0
9.96 0 0
10 0 0
10.04 0 0
10.08 0 0
10.12 0 0
10.16 0 0
10.2 0 0
10.24 0 0
10.28 0 0
10.32 0 0
10.36 0 0
10.4 0 0
10.44 0 0
10.48 0 0
10.52 0 0
10.56 0 0
10.6 0 0
10.64 0 0
10.68 0 0
10.72 0 0
10.76 0 0
10.8 0 0
10.84 0 0
10.88 0 0
10.92 0 0
10.96 0 0
11 0 0
11.04 0 0
11.08 0 0
11.12 0 0
11.16 0 0
11.2 0 0
11.24 0 0
11.28 0 0
11.32 0 0
11.36 0 0
11.4 0 0
11.44 0 0
11.48 0 0
11.52 0 0
11.56 0 0
11.6 0 0
11.64 0 0
11.68 0 0
11.72 0 0
11.76 0 0
11.8 0 0
11.84 0 0
11.88 0 0
11.92 0 0
11.96 0 0
12 0 0
12.04 0 0
12.08 0 0
12.12 0 0
12.16 0 0
12.2 0 0
12.24 0 0
12.28 0 0
12.32 0 0
12.36 0 0
12.4 0 0
12.44 0 0
12.48 0 0
12.52 0 0
12.56 0 0
12.6 0 0
12.64 0 0
12.68 0 0
12.72 0 0
12.76 0 0
12.8 0 0
12.84 0 0
12.88 0 0
12.92 0 0
12.96 0 0
13 0 0
13.04 0 0
13.08 0 0
13.12 0 0
13.16 0 0
13.2 0 0
13.24 0 0
13.28 0 0
13.32 0 0
13.36 0 0
13.4 0 0
13.44 0 0
13.48 0 0
13.52 0 0
13.56 0 0
13.6 0 0
13.64 0 0
13.68 0 0
13.72 0 0
13.76 0 0
13.8 0 0
13.84 0 0
13.88 0 0
13.92 0 0
13.96 0 0
14 0 0
14.04 0 0
14.08 0 0
14.12 0 0
14.16 0 0
14.2 0 0
14.24 0 0
14.28 0 0
14.32 0 0
14.36 0 0
14.4 0 0
14.44 0 0
14.48 0 0
14.52 0 0
14.56 0 0
14.6 0 0
14.64 0 0
14.68 0 0
14.72 0 0
14.76 0 0
14.8 0 0
14.84 0 0
14.88 0 0
14.92 0 0
14.96 0 0
15 0 0
15.04 0 0
15.08 0 0
15.12 0 0
15.16 0 0
15.2 0 0
15.24 0 0
15.28 0 0
15.32 0 0
15.36 0 0
15.4 0 0
15.44 0 0
15.48 0 0
15.52 0 0
15.56 0 0
15.6 0 0
15.64 0 0
15.68 0 0
15.72 0 0
15.76 0 0
15.8 0 0
15.84 0 0
15.88 0 0
15.92 0 0
15.96 0 0
16 0 0
16.04 0 0
16.08 0 0
16.12 0 0
16.16 0 0
16.2 0 0
16.24 0 0
16.28 0 0
16.32 0 0
16.36 0 0
16.4 0 0
16.44 0 0
16.48 0 0
16.52 0 0
16.56 0 0
16.6 0 0
16.64 0 0
16.68 0 0
16.72 0 0
16.76 0 0
16.8 0 0
16.84 0 0
16.88 0 0
16.92 0 0
16.96 0 0
17 0 0
17.04 0 0
17.08 0 0
17.12 0 0
17.16 0 0
17.2 0 0
17.24 0 0
17.28 0 0
17.32 0 0
17.36 0 0
17.4 0 0
17.44 0 0
17.48 0 0
17.52 0 0
17.56 0 0
17.6 0 0
17.64 0 0
17.68 0 0
17.72 0 0
17.76 0 0
17.8 0 0
17.84 0 0
17.88 0 0
17.92 0 0
17.96 0 0
18 0 0
18.04 0 0
18.08 0 0
18.12 0 0
18.16 0 0
18.2 0 0
18.24 0 0
18.28 0 0
18.32 0 0
18.36 0 0
18.4 0 0
18.44 0 0
18.48 0 0
18.52 0 0
18.56 0 0
18.6 0 0
18.64 0 0
18.68 0 0
18.72 0 0
18.76 0 0
18.8 0 0
18.84 0 0
18.88 0 0
18.92 0 0
18.96 0 0
19 0 0
19.04 0 0
19.08 0 0
19.12 0 0
19.16 0 0
19.2 0 0
19.24 0 0
19.28 0 0
19.32 0 0
19.36 0 0
19.4 0 0
19.44 0 0
19.48 0 0
19.52 0 0
19.56 0 0
19.6 0 0
19.64 0 0
19.68 0 0
19.72 0 0
19.76 0 0
19.8 0 0
19.84 0 0
19.88 0 0
19.92 0 0
19.96 0 0
20 0 0
20.04 0 0
20.08 0 0
20.12 0 0
20.16 0 0
20.2 0 0
20.24 0 0
20.28 0 0
20.32 0 0
20.36 0 0
20.4 0 0
20.44 0 0
20.48 0 0
20.52 0 0
20.56 0 0
20.6 0 0
20.64 0 0
20.68 0 0
20.72 0 0
20.76 0 0
20.8 0 0
20.84 0 0
20.88 0 0
20.92 0 0
20.96 0 0
21 0 0
21.04 0 0
21.08 0 0
21.12 0 0
21.16 0 0
21.2 0 0
21.24 0 0
21.28 0 0
21.32 0 0
21.36 0 0
21.4 0 0
21.44 0 0
21.48 0 0
21.52 0 0
21.56 0 0
21.6 0 0
21.64 0 0
21.68 0 0
21.72 0 0
21.76 0 0
21.8 0 0
21.84 0 0
21.88 0 0
21.92 0 0
21.96 0 0
22 0 0
22.04 0 0
22.08 0 0
22.12 0 0
22.16 0 0
22.2 0 0
22.24 0 0
22.28 0 0
22.32 0 0
22.36 0 0
22.4 0 0
22.44 0 0
22.48 0 0
22.52 0 0
22.56 0 0
22.6 0 0
22.64 0 0
22.68 0 0
22.72 0 0
22.76 0 0
22.8 0 0
22.84 0 0
22.88 0 0
22.92 0 0
22.96 0 0
23 0 0
23.04 0 0
23.08 0 0
23.12 0 0
23.16 0 0
23.2 0 0
23.24 0 0
23.28 0 0
23.32 0 0
23.36 0 0
23.4 0 0
23.44 0 0
23.48 0 0
23.52 0 0
23.56 0 0
23.6 0 0
23.64 0 0
23.68 0 0
23.72 0 0
23.76 0 0
23.8 0 0
23.84 0 0
23.88 0 0
23.92 0 0
23.96 0 0
24 0 0
24.04 0 0
24.08 0 0
24.12 0 0
24.16 0 0
24.2 0 0
24.24 0 0
24.28 0 0
24.32 0 0
24.36 0 0
24.4 0 0
24.44 0 0
24.48 0 0
24.52 0 0
24.56 0 0
24.6 0 0
24.64 0 0
24.68 0 0
24.72 0 0
24.76 0 0
24.8 0 0
24.84 0 0
24.88 0 0
24.92 0 0
24.96 0 0
25 0 0
25.04 0 0
25.08 0 0
25.12 0 0
25.16 0 0
25.2 0 0
25.24 0 0
25.28 0 0
25.32 0 0
25.36 0 0
25.4 0 0
25.44 0 0
25.48 0 0
25.52 0 0
25.56 0 0
25.6 0 0
25.64 0 0
25.68 0 0
25.72 0 0
25.76 0 0
25.8 0 0
25.84 0 0
25.88 0 0
25.92 0 0
25.96 0 0
26 0 0
26.04 0 0
26.08 0 0
26.12 0 0
26.16 0 0
26.2 0 0
26.24 0 0
26.28 0 0
26.32 0 0
26.36 0 0
26.4 0 0
26.44 0 0
26.48 0 0
26.52 0 0
26.56 0 0
26.6 0 0
26.64 0 0
26.68 0 0
26.72 0 0
26.76 0 0
26.8 0 0
26.84 0 0
26.88 0 0
26.92 0 0
26.96 0 0
27 0 0
27.04 0 0
27.08 0 0
27.12 0 0
27.16 0 0
27.2 0 0
27.24 0 0
27.28 0 0
27.32 0 0
27.36 0 0
27.4 0 0
27.44 0 0
27.48 0 0
27.52 0 0
27.56 0 0
27.6 0 0
27.64 0 0
27.68 0 0
27.72 0 0
27.76 0 0
27.8 0 0
27.84 0 0
27.88 0 0
27.92 0 0
27.96 0 0
28 0 0
28.04 0 0
28.08 0 0
28.12 0 0
28.16 0 0
28.2 0 0
28.24 0 0
28.28 0 0
28.32 0 0
28.36 0 0
28.4 0 0
28.44 0 0
28.48 0 0
28.52 0 0
28.56 0 0
28.6 0 0
28.64 0 0
28.68 0 0
28.72 0 0
28.76 0 0
28.8 0 0
28.84 0 0
28.88 0 0
28.92 0 0
28.96 0 0
29 0 0
29.04 0 0
29.08 0 0
29.12 0 0
29.16 0 0
29.2 0 0
29.24 0 0
29.28 0 0
29.32 0 0
29.36 0 0
29.4 0 0
29.44 0 0
29.48 0 0
29.52 0 0
29.56 0 0
29.6 0 0
29.64 0 0
29.68 0 0
29.72 0 0
29.76 0 0
29.8 0 0
29.84 0 0
29.88 0 0
29.92 0 0
29.96 0 0
30 0 0
30.04 0 0
30.08 0 0
30.12 0 0
30.16 0 0
30.2 0 0
30.24 0 0
30.28 0 0
30.32 0 0
30.36 0 0
30.4 0 0
30.44 0 0
30.48 0 0
30.52 0 0
30.56 0 0
30.6 0 0
30.64 0 0
30.68 0 0
30.72 0 0
30.76 0 0
30.8 0 0
30.84 0 0
30.88 0 0
30.92 0 0
30.96 0 0
31 0 0
31.04 0 0
31.08 0 0
31.12 0 0
31.16 0 0
31.2 0 0
31.24 0 0
31.28 0 0
31.32 0 0
31.36 0 0
31.4 0 0
31.44 0 0
31.48 0 0
31.52 0 0
31.56 0 0
31.6 0 0
31.64 0 0
31.68 0 0
31.72 0 0
31.76 0 0
31.8 0 0
31.84 0 0
31.88 0 0
31.92 0 0
31.96 0 0
0 0.005 0
0.04 0.005 0
0.08 0.005 0
0.12 0.005 0
0.16 0.005 0
0.2 0.005 0
0.24 0.005 0
0.28 0.005 0
0.32 0.005 0
0.36 0.005 0
0.4 0.005 0
0.44 0.005 0
0.48 0.005 0
0.52 0.005 0
0.56 0.005 0
0.6 0.005 0
0.64 0.005 0
0.68 0.005 0
0.72 0.005 0
0.76 0.005 0
0.8 0.005 0
0.84 0.005 0
0.88 0.005 0
0.92 0.005 0
0.96 0.005 0
1 0.005 0
1.04 0.005 0
1.08 0.005 0
1.12 0.005 0
1.16 0.005 0
1.2 0.005 0
1.24 0.005 0
1.28 0.005 0
1.32 0.005 0
1.36 0.005 0
1.4 0.005 0
1.44 0.005 0
1.48 0.005 0
1.52 0.005 0
1.56 0.005 0
1.6 0.005 0
1.64 0.005 0
1.68 0.005 0
1.72 0.005 0
1.76 0.005 0
1.8 0.005 0
1.84 0.005 0
1.88 0.005 0
1.92 0.005 0
1.96 0.005 0
2 0.005 0
2.04 0.005 0
2.08 0.005 0
2.12 0.005 0
2.16 0.005 0
2.2 0.005 0
2.24 0.005 0
2.28 0.005 0
2.32 0.005 0
2.36 0.005 0
2.4 0.005 0
2.44 0.005 0
2.48 0.005 0
2.52 0.005 0
2.56 0.005 0
2.6 0.005 0
2.64 0.005 0
2.68 0.005 0
2.72 0.005 0
2.76 0.005 0
2.8 0.005 0
2.84 0.005 0
2.88 0.005 0
2.92 0.005 0
2.96 0.005 0
3 0.005 0
3.04 0.005 0
3.08 0.005 0
3.12 0.005 0
3.16 0.005 0
3.2 0.005 0
3.24 0.005 0
3.28 0.005 0
3.32 0.005 0
3.36 0.005 0
3.4 0.005 0
3.44 0.005 0
3.48 0.005 0
3.52 0.005 0
3.56 0.005 0
3.6 0.005 0
3.64 0.005 0
3.68 0.005 0
3.72 0.005 0
3.76 0.005 0
3.8 0.005 0
3.84 0.005 0
3.88 0.005 0
3.92 0.005 0
3.96 0.005 0
4 0.005 0
4.04 0.005 0
4.08 0.005 0
4.12 0.005 0
4.16 0.005 0
4.2 0.005 0
4.24 0.005 0
4.28 0.005 0
4.32 0.005 0
4.36 0.005 0
4.4 0.005 0
4.44 0.005 0
4.48 0.005 0
4.52 0.005 0
4.56 0.005 0
4.6 0.005 0
4.64 0.005 0
4.68 0.005 0
4.72 0.005 0
4.76 0.005 0
4.8 0.005 0
4.84 0.005 0
4.88 0.005 0
4.92 0.005 0
4.96 0.005 0
5 0.005 0
5.04 0.005 0
5.08 0.005 0
5.12 0.005 0
5.16 0.005 0
5.2 0.005 0
5.24 0.005 0
5.28 0.005 0
5.32 0.005 0
5.36 0.005 0
5.4 0.005 0
5.44 0.005 0
5.48 0.005 0
5.52 0.005 0
5.56 0.005 0
5.6 0.005 0
5.64 0.005 0
5.68 0.005 0
5.72 0.005 0
5.76 0.005 0
5.8 0.005 0
5.84 0.005 0
5.88 0.005 0
5.92 0.005 0
5.96 0.005 0
6 0.005 0
6.04 0.005 0
6.08 0.005 0
6.12 0.005 0
6.16 0.005 0
6.2 0.005 0
6.24 0.005 0
6.28 0.005 0
6.32 0.005 0
6.36 0.005 0
6.4 0.005 0
6.44 0.005 0
6.48 0.005 0
6.52 0.005 0
6.56 0.005 0
6.6 0.005 0
6.64 0.005 0
6.68 0.005 0
6.72 0.005 0
6.76 0.005 0
6.8 0.005 0
6.84 0.005 0
6.88 0.005 0
6.92 0.005 0
6.96 0.005 0
7 0.005 0
7.04 0.005 0
7.08 0.005 0
7.12 0.005 0
7.16 0.005 0
7.2 0.005 0
7.24 0.005 0
7.28 0.005 0
7.32 0.005 0
7.36 0.005 0
7.4 0.005 0
[...]
POINT_DATA 160000

SCALARS v float 1
LOOKUP_TABLE default
0
0
0
0
0
0
0
0
0
0
0
0
0
0
0
0
0
0
0
0
0
0
0
0
0
0
0
0
0
0
0
0
0
0
0
0
0
0
0
0
0
0
0
0
0
0
0
0
0
0
0
0
0
0
0
0
0
0
0
0
0
0
0
0
0
0
0
0
0
0
0
0
0
0
0
0
0
0
0
0
0
0
0
0
0
0
0
0
0
0
0
0
0
0
0
0
0
0
0
0
0
0
0
0
0
0
0
0
0
0
0
0
0
0
0
0
0
0
0
0
0
0
0
0
0
0
0
0
0
0
0
0
0
0
0
0
0
0
0
0
0
0
0
0
0
0
0
0
0
0
0
0
0
0
0
0
0
0
0
0
0
0
0
0
0
0
0
0
0
0
0
0
0
0
0
0
0
0
0
0
0
0
0
0
0
0
0
0
0
0
0
0
0
0
0
0
0
0
0
0
0
0
0
0
0
0
0
0
0
0
0
0
0
0
0
0
0
0
0
0
0
0
0
0
0
0
0
0
0
0
0
0
0
0
0
0
0
0
0
0
0
0
0
0
0
0
0
0
0
0
0
0
0
0
0
0
0
0
0
0
0
0
0
0
0
0
0
0
0
0
0
0
0
0
0
0
0
0
0
0
0
0
0
0
0
0
0
0
0
0
0
0
0
0
0
0
0
0
0
0
0
0
0
0
0
0
0
0
0
0
0
0
0
0
0
0
0
0
0
0
0
0
0
0
0
0
0
0
0
0
0
0
0
0
0
0
0
0
0
0
0
0
0
0
0
0
0
0
0
0
0
0
0
0
0
0
0
0
0
0
0
0
0
0
0
0
0
0
0
0
0
0
0
0
0
0
0
0
0
0
0
0
0
0
0
0
0
0
0
0
0
0
0
0
0
0
0
0
0
0
0
0
0
0
0
0
0
0
0
0
0
0
0
0
0
0
0
0
0
0
0
0
0
0
0
0
0
0
0
0
0
0
0
0
0
0
0
0
0
0
0
0
0
0
0
0
0
0
0
0
0
0
0
0
0
0
0
0
0
0
0
0
0
0
0
0
0
0
0
0
0
0
0
0
0
0
0
0
0
0
0
0
0
0
0
0
0
0
0
0
0
0
0
0
0
0
0
0
0
0
0
0
0
0
0
0
0
0
0
0
0
0
0
0
0
0
0
0
0
0
0
0
0
0
0
0
0
0
0
0
0
0
0
0
0
0
0
0
0
0
0
0
0
0
0
0
0
0
0
0
0
0
0
0
0
0
0
0
0
0
0
0
0
0
0
0
0
0
0
0
0
0
0
0
0
0
0
0
0
0
0
0
0
0
0
0
0
0
0
0
0
0
0
0
0
0
0
0
0
0
0
0
0
0
0
0
0
0
0
0
0
0
0
0
0
0
0
0
0
0
0
0
0
0
0
0
0
0
0
0
0
0
0
0
0
0
0
0
0
0
0
0
0
0
0
0
0
0
0
0
0
0
0
0
0
0
0
0
0
0
0
0
0
0
0
0
0
0
0
0
0
0
0
0
0
0
0
0
0
0
0
0
0
0
0
0
0
0
0
0
0
0
0
0
0
0
0
0
0
0
0
0
0
0
0
0
0
0
0
0
0
0
0
0
0
0
0
0
0
0
0
0
0
0
0
0
0
0
0
0
0
0
0
0
0
0
0
0
0
0
0
0
0
0
0
0
0
0
0
0
0
0
0
0
0
0
0
0
0
0
0
0
0
0
0
0
0
0
0
0
0
0
0
0
0
0
0
0
0
0
0
0
0
0
0
0
0
0
0
0
0
0
0
0
0
0
0
0
0
0
0
0
0.0374158
0.00938112
0.00346796
0.00176634
0.00108086
0.000737103
0.000538326
0.000411781
0.000325582
0.000263894
0.000218073
0.000183042
0.000155641
0.000133804
0.000116132
0.00010164
8.96217e-05
7.95538e-05
7.1044e-05
6.37921e-05
5.75654e-05
5.21812e-05
4.74948e-05
4.33902e-05
3.97739e-05
3.65698e-05
3.3716e-05
3.11611e-05
2.8863e-05
2.67864e-05
2.4902e-05
2.31852e-05
2.1615e-05
2.01739e-05
1.88468e-05
1.76211e-05
1.64856e-05
1.54309e-05
1.44487e-05
1.35321e-05
1.26746e-05
1.18709e-05
1.11163e-05
1.04063e-05
9.73738e-06
9.10608e-06
8.50945e-06
7.94482e-06
7.40978e-06
6.90217e-06
6.42004e-06
5.96161e-06
5.52526e-06
5.10953e-06
4.71307e-06
4.33465e-06
3.97315e-06
3.62753e-06
3.29682e-06
2.98015e-06
2.6767e-06
2.38573e-06
2.10652e-06
1.83842e-06
1.58083e-06
1.3332e-06
1.09499e-06
8.65718e-07
6.44923e-07
4.32171e-07
2.2707e-07
2.92431e-08
-1.61669e-07
-3.45989e-07
-5.24022e-07
-6.96072e-07
-8.62417e-07
-1.02331e-06
-1.17899e-06
-1.3297e-06
-1.47565e-06
-1.61705e-06
-1.75409e-06
-1.88696e-06
-2.01583e-06
-2.14087e-06
-2.26223e-06
-2.38006e-06
-2.49451e-06
-2.60571e-06
-2.71378e-06
-2.81884e-06
-2.92101e-06
-3.02041e-06
-3.11713e-06
-3.21128e-06
-3.30296e-06
-3.39223e-06
-3.4792e-06
-3.56396e-06
-3.64657e-06
-3.72711e-06
-3.80566e-06
-3.88229e-06
-3.95705e-06
-4.03002e-06
-4.10124e-06
-4.17079e-06
-4.23872e-06
-4.30508e-06
-4.36991e-06
-4.43328e-06
-4.49522e-06
-4.55577e-06
-4.61499e-06
-4.67292e-06
-4.7296e-06
-4.78506e-06
-4.83934e-06
-4.89248e-06
-4.94451e-06
-4.99545e-06
-5.04535e-06
-5.09424e-06
-5.14215e-06
-5.1891e-06
-5.23511e-06
-5.28023e-06
-5.32447e-06
-5.36785e-06
-5.41039e-06
-5.45214e-06
-5.4931e-06
-5.5333e-06
-5.57274e-06
-5.61147e-06
-5.64949e-06
-5.68683e-06
-5.72349e-06
-5.75951e-06
-5.79489e-06
-5.82965e-06
-5.8638e-06
-5.89737e-06
-5.93037e-06
-5.96281e-06
-5.9947e-06
-6.02606e-06
-6.0569e-06
-6.08723e-06
-6.11707e-06
-6.14643e-06
-6.17531e-06
-6.20373e-06
-6.2317e-06
-6.25923e-06
-6.28633e-06
-6.31302e-06
-6.3393e-06
-6.36517e-06
-6.39064e-06
-6.41573e-06
-6.44045e-06
-6.4648e-06
-6.48879e-06
-6.51242e-06
-6.53571e-06
-6.55867e-06
-6.5813e-06
-6.6036e-06
-6.62558e-06
-6.64725e-06
-6.66862e-06
-6.68969e-06
-6.71047e-06
-6.73096e-06
-6.75117e-06
-6.7711e-06
-6.79076e-06
-6.81016e-06
-6.8293e-06
-6.84819e-06
-6.86682e-06
-6.88521e-06
-6.90336e-06
-6.92126e-06
-6.93894e-06
-6.95639e-06
-6.97362e-06
-6.99062e-06
-7.00741e-06
-7.02399e-06
-7.04036e-06
-7.05652e-06
-7.07247e-06
-7.08823e-06
-7.1038e-06
-7.11917e-06
-7.13436e-06
-7.14936e-06
-7.16418e-06
-7.17882e-06
-7.19327e-06
-7.20756e-06
-7.22168e-06
-7.23563e-06
-7.24942e-06
-7.26304e-06
-7.27649e-06
-7.28979e-06
-7.30294e-06
-7.31593e-06
-7.32877e-06
-7.34147e-06
-7.35401e-06
-7.36641e-06
-7.37867e-06
-7.39079e-06
-7.40277e-06
-7.41462e-06
-7.42633e-06
-7.43791e-06
-7.44936e-06
-7.46067e-06
-7.47186e-06
-7.48293e-06
-7.49388e-06
-7.5047e-06
-7.5154e-06
-7.52599e-06
-7.53645e-06
-7.5468e-06
-7.55704e-06
-7.56717e-06
-7.57718e-06
-7.58708e-06
-7.59688e-06
-7.60658e-06
-7.61617e-06
-7.62565e-06
-7.63503e-06
-7.6443e-06
-7.65348e-06
-7.66256e-06
-7.67155e-06
-7.68043e-06
-7.68923e-06
-7.69793e-06
-7.70653e-06
-7.71505e-06
-7.72347e-06
-7.7318e-06
-7.74005e-06
-7.74821e-06
-7.75628e-06
-7.76427e-06
-7.77218e-06
-7.78001e-06
-7.78774e-06
-7.79539e-06
-7.80297e-06
-7.81047e-06
-7.81789e-06
-7.82523e-06
-7.8325e-06
-7.83969e-06
-7.84681e-06
-7.85385e-06
-7.86082e-06
-7.86771e-06
-7.87454e-06
-7.88129e-06
-7.88797e-06
-7.89459e-06
-7.90114e-06
-7.90762e-06
-7.91403e-06
-7.92038e-06
-7.92665e-06
-7.93287e-06
-7.93903e-06
-7.94511e-06
-7.95114e-06
-7.95711e-06
-7.96302e-06
-7.96885e-06
-7.97463e-06
-7.98036e-06
-7.98603e-06
-7.99164e-06
-7.99719e-06
-8.00268e-06
-8.00812e-06
-8.0135e-06
-8.01883e-06
-8.02411e-06
-8.02932e-06
-8.03449e-06
-8.03961e-06
-8.04467e-06
-8.04968e-06
-8.05464e-06
-8.05955e-06
-8.06441e-06
-8.06922e-06
-8.07398e-06
-8.07869e-06
-8.08335e-06
-8.08797e-06
-8.09255e-06
-8.09707e-06
-8.10154e-06
-8.10598e-06
-8.11037e-06
-8.11471e-06
-8.11901e-06
-8.12327e-06
-8.12749e-06
-8.13165e-06
-8.13579e-06
-8.13987e-06
-8.14392e-06
-8.14792e-06
-8.15188e-06
-8.15581e-06
-8.15969e-06
-8.16354e-06
-8.16734e-06
-8.17111e-06
-8.17484e-06
-8.17853e-06
-8.18219e-06
-8.18581e-06
-8.18939e-06
-8.19293e-06
-8.19644e-06
-8.19992e-06
-8.20336e-06
-8.20676e-06
-8.21013e-06
-8.21347e-06
-8.21677e-06
-8.22003e-06
-8.22327e-06
-8.22648e-06
-8.22964e-06
-8.23278e-06
-8.2359e-06
-8.23898e-06
-8.24202e-06
-8.24503e-06
-8.24801e-06
-8.25097e-06
-8.25389e-06
-8.25679e-06
-8.25965e-06
-8.26248e-06
-8.26529e-06
-8.26807e-06
-8.27082e-06
-8.27355e-06
-8.27625e-06
-8.27892e-06
-8.28156e-06
-8.28417e-06
-8.28677e-06
-8.28933e-06
-8.29186e-06
-8.29437e-06
-8.29686e-06
-8.29933e-06
-8.30177e-06
-8.30417e-06
-8.30656e-06
-8.30892e-06
-8.31126e-06
-8.31358e-06
-8.31587e-06
-8.31814e-06
-8.32038e-06
-8.3226e-06
-8.32481e-06
-8.327e-06
-8.32915e-06
-8.33129e-06
-8.3334e-06
-8.33549e-06
-8.33756e-06
-8.33961e-06
-8.34164e-06
-8.34365e-06
-8.34564e-06
-8.34761e-06
-8.34956e-06
-8.35149e-06
-8.3534e-06
-8.35529e-06
-8.35717e-06
-8.35901e-06
-8.36084e-06
-8.36266e-06
-8.36446e-06
-8.36624e-06
-8.368e-06
-8.36974e-06
-8.37147e-06
-8.37318e-06
-8.37487e-06
-8.37654e-06
-8.3782e-06
-8.37984e-06
-8.38147e-06
-8.38308e-06
-8.38466e-06
-8.38623e-06
-8.38779e-06
-8.38934e-06
-8.39087e-06
-8.39238e-06
-8.39388e-06
-8.39536e-06
-8.39682e-06
-8.39827e-06
-8.39971e-06
-8.40114e-06
-8.40255e-06
-8.40394e-06
-8.40532e-06
-8.40668e-06
-8.40804e-06
-8.40937e-06
-8.4107e-06
-8.41201e-06
-8.41331e-06
-8.4146e-06
-8.41587e-06
-8.41713e-06
-8.41838e-06
-8.41961e-06
-8.42082e-06
-8.42203e-06
-8.42323e-06
-8.42442e-06
-8.4256e-06
-8.42675e-06
-8.4279e-06
-8.42904e-06
-8.43017e-06
-8.43128e-06
-8.43238e-06
-8.43347e-06
-8.43455e-06
-8.43563e-06
-8.43668e-06
-8.43773e-06
-8.43877e-06
-8.4398e-06
-8.44081e-06
-8.44182e-06
-8.44282e-06
-8.4438e-06
-8.44477e-06
-8.44574e-06
-8.44671e-06
-8.44765e-06
-8.44859e-06
-8.44952e-06
-8.45044e-06
-8.45134e-06
-8.45224e-06
-8.45314e-06
-8.45402e-06
-8.45489e-06
-8.45575e-06
-8.45661e-06
-8.45745e-06
-8.45829e-06
-8.45912e-06
-8.45994e-06
-8.46075e-06
-8.46156e-06
-8.46236e-06
-8.46315e-06
-8.46393e-06
-8.4647e-06
-8.46547e-06
-8.46622e-06
-8.46696e-06
-8.46771e-06
-8.46844e-06
-8.46917e-06
-8.46989e-06
-8.4706e-06
-8.4713e-06
-8.472e-06
-8.47269e-06
-8.47338e-06
-8.47405e-06
-8.47472e-06
-8.47538e-06
-8.47604e-06
-8.47669e-06
-8.47733e-06
-8.47797e-06
-8.4786e-06
-8.47922e-06
-8.47983e-06
-8.48045e-06
-8.48106e-06
-8.48165e-06
-8.48224e-06
-8.48282e-06
-8.4834e-06
-8.48398e-06
-8.48455e-06
-8.48512e-06
-8.48567e-06
-8.48622e-06
-8.48676e-06
-8.4873e-06
-8.48784e-06
-8.48837e-06
-8.48889e-06
-8.48941e-06
-8.48992e-06
-8.49043e-06
-8.49093e-06
-8.49143e-06
-8.49192e-06
-8.49241e-06
-8.49289e-06
-8.49337e-06
-8.49384e-06
-8.49431e-06
-8.49477e-06
-8.49523e-06
-8.49569e-06
-8.49614e-06
-8.49659e-06
-8.49703e-06
-8.49746e-06
-8.4979e-06
-8.49833e-06
-8.49875e-06
-8.49917e-06
-8.49959e-06
-8.5e-06
-8.50041e-06
-8.50081e-06
-8.50122e-06
-8.50161e-06
-8.50201e-06
-8.5024e-06
-8.50279e-06
-8.50317e-06
-8.50355e-06
-8.50393e-06
-8.50431e-06
-8.50468e-06
-8.50505e-06
-8.50541e-06
-8.50577e-06
-8.50613e-06
-8.50649e-06
-8.50684e-06
-8.50719e-06
-8.50754e-06
-8.50788e-06
-8.50823e-06
-8.50857e-06
-8.50891e-06
-8.50924e-06
-8.50958e-06
-8.50991e-06
-8.51024e-06
-8.51056e-06
-8.51089e-06
-8.51121e-06
-8.51154e-06
-8.51185e-06
-8.51216e-06
-8.51248e-06
-8.51279e-06
-8.51311e-06
-8.51342e-06
-8.51373e-06
-8.51403e-06
-8.51434e-06
-8.51464e-06
-8.51494e-06
-8.51524e-06
-8.51553e-06
-8.51583e-06
-8.51612e-06
-8.51642e-06
-8.51671e-06
-8.517e-06
-8.51729e-06
-8.51758e-06
-8.51787e-06
-8.51815e-06
-8.51844e-06
-8.51872e-06
-8.519e-06
-8.51928e-06
-8.51956e-06
-8.51983e-06
-8.52011e-06
-8.52039e-06
-8.52066e-06
-8.52093e-06
-8.5212e-06
-8.52147e-06
-8.52174e-06
-8.52201e-06
-8.52227e-06
-8.52253e-06
-8.5228e-06
-8.52306e-06
-8.52333e-06
-8.52359e-06
-8.52384e-06
-8.52409e-06
-8.52434e-06
-8.52459e-06
-8.52484e-06
-8.5251e-06
-8.52535e-06
-8.52559e-06
-8.52584e-06
-8.52608e-06
-8.52632e-06
-8.52655e-06
-8.52679e-06
-8.52703e-06
-8.52727e-06
-8.5275e-06
-8.52773e-06
-8.52796e-06
-8.52818e-06
-8.52841e-06
-8.52863e-06
-8.52885e-06
-8.52907e-06
-8.52929e-06
-8.5295e-06
-8.52971e-06
-8.52992e-06
-8.53013e-06
-8.53034e-06
-8.53054e-06
-8.53075e-06
-8.53094e-06
-8.53114e-06
-8.53133e-06
-8.53152e-06
-8.53171e-06
-8.5319e-06
-8.53209e-06
-8.53227e-06
-8.53245e-06
-8.53262e-06
-8.5328e-06
-8.53297e-06
-8.53314e-06
-8.53331e-06
-8.53348e-06
-8.53364e-06
-8.5338e-06
-8.53395e-06
-8.53411e-06
-8.53426e-06
-8.53441e-06
-8.53455e-06
-8.5347e-06
-8.53484e-06
-8.53498e-06
-8.53511e-06
-8.53525e-06
-8.53538e-06
-8.53551e-06
-8.53564e-06
-8.53576e-06
-8.53588e-06
-8.536e-06
-8.53612e-06
-8.53623e-06
-8.53634e-06
-8.53645e-06
-8.53655e-06
-8.53666e-06
-8.53676e-06
-8.53686e-06
-8.53696e-06
-8.53705e-06
-8.53714e-06
-8.53723e-06
-8.53731e-06
-8.5374e-06
-8.53748e-06
-8.53756e-06
-8.53765e-06
-8.53772e-06
-8.5378e-06
-8.53787e-06
-8.53794e-06
-8.538e-06
-8.53807e-06
-8.53813e-06
-8.5382e-06
-8.53825e-06
-8.53831e-06
-8.53837e-06
-8.53843e-06
-8.53848e-06
-8.53853e-06
-8.53858e-06
-8.53863e-06
-8.53868e-06
-8.53872e-06
-8.53876e-06
-8.53881e-06
-8.53885e-06
-8.53888e-06
-8.53892e-06
-8.53896e-06
-8.539e-06
-8.53903e-06
-8.53906e-06
-8.53908e-06
-8.53911e-06
-8.53915e-06
-8.53918e-06
-8.53921e-06
-8.53923e-06
-8.53925e-06
-8.53928e-06
-8.5393e-06
-8.53932e-06
-8.53935e-06
-8.53937e-06
-8.53938e-06
-8.53939e-06
-8.53941e-06
-8.53943e-06
-8.53944e-06
-8.53945e-06
-8.53947e-06
-8.53949e-06
-8.5395e-06
-8.53952e-06
-8.53952e-06
-8.53953e-06
-8.53954e-06
-8.53956e-06
-8.53957e-06
-8.53957e-06
-8.53958e-06
-8.53958e-06
-8.53959e-06
-8.53959e-06
-8.5396e-06
-8.5396e-06
-8.5396e-06
-8.5396e-06
-8.53959e-06
-8.53958e-06
-8.53956e-06
-8.53955e-06
-8.53952e-06
-8.53949e-06
-8.53945e-06
-8.53939e-06
-8.53932e-06
-8.53922e-06
-8.53909e-06
-8.53894e-06
-8.53874e-06
-8.53848e-06
-8.53816e-06
-8.53773e-06
-8.53723e-06
-8.53653e-06
-8.5357e-06
-8.53455e-06
-8.53324e-06
-8.53129e-06
-8.52923e-06
-8.52581e-06
-8.52269e-06
-8.51625e-06
-8.5121e-06
-8.49791e-06
-8.49668e-06
-8.45429e-06
-8.52607e-06
-6.02885e-06
-6.02885e-06
0
0
0.0966101
0.0320527
0.0130062
0.00682636
0.00423607
0.00291413
0.00214249
0.00164841
0.00131055
0.00106807
0.000887561
0.000749314
0.00064101
0.000554587
0.000484563
0.000427083
0.000379369
0.000339366
0.00030553
0.000276677
0.00025189
0.000230448
0.000211778
0.000195422
0.000181008
0.000168237
0.00015686
0.000146676
0.000137516
0.00012924
0.000121731
0.00011489
0.000108636
0.000102896
9.76128e-05
9.27336e-05
8.82148e-05
8.40187e-05
8.01122e-05
7.64671e-05
7.30583e-05
6.9864e-05
6.6865e-05
6.40445e-05
6.13874e-05
5.88803e-05
5.65113e-05
5.42698e-05
5.2146e-05
5.01315e-05
4.82184e-05
4.63995e-05
4.46684e-05
4.30194e-05
4.14469e-05
3.99462e-05
3.85127e-05
3.71423e-05
3.58311e-05
3.45757e-05
3.33729e-05
3.22195e-05
3.11128e-05
3.00503e-05
2.90294e-05
2.80481e-05
2.71042e-05
2.61957e-05
2.53208e-05
2.44779e-05
2.36653e-05
2.28816e-05
2.21253e-05
2.13951e-05
2.06899e-05
2.00084e-05
1.93495e-05
1.87122e-05
1.80956e-05
1.74987e-05
1.69206e-05
1.63606e-05
1.58179e-05
1.52917e-05
1.47814e-05
1.42862e-05
1.38057e-05
1.33391e-05
1.28859e-05
1.24456e-05
1.20177e-05
1.16017e-05
1.11971e-05
1.08036e-05
1.04206e-05
1.00479e-05
9.68496e-06
9.33151e-06
8.98718e-06
8.65165e-06
8.3246e-06
8.00575e-06
7.6948e-06
7.39148e-06
7.09553e-06
6.8067e-06
6.52474e-06
6.24944e-06
5.98057e-06
5.71793e-06
5.4613e-06
5.2105e-06
4.96534e-06
4.72565e-06
4.49125e-06
4.26197e-06
4.03765e-06
3.81816e-06
3.60334e-06
3.39304e-06
3.18714e-06
2.98551e-06
2.78802e-06
2.59454e-06
2.40497e-06
2.21918e-06
2.03708e-06
1.85855e-06
1.68351e-06
1.51185e-06
1.34348e-06
1.17829e-06
1.01622e-06
8.57186e-07
7.01094e-07
5.47867e-07
3.97429e-07
2.49712e-07
1.04642e-07
-3.78485e-08
-1.77825e-07
-3.15349e-07
-4.50485e-07
-5.83295e-07
-7.13841e-07
-8.42175e-07
-9.6834e-07
-1.0924e-06
-1.2144e-06
-1.3344e-06
-1.45244e-06
-1.56856e-06
-1.68282e-06
-1.79525e-06
-1.9059e-06
-2.0148e-06
-2.12201e-06
-2.22756e-06
-2.33148e-06
-2.43379e-06
-2.53456e-06
-2.63381e-06
-2.73157e-06
-2.82788e-06
-2.92275e-06
-3.01623e-06
-3.10835e-06
-3.19914e-06
-3.28862e-06
-3.37681e-06
-3.46375e-06
-3.54945e-06
-3.63395e-06
-3.71728e-06
-3.79944e-06
-3.88048e-06
-3.96039e-06
-4.03921e-06
-4.11696e-06
-4.19367e-06
-4.26935e-06
-4.34402e-06
-4.4177e-06
-4.4904e-06
-4.56215e-06
-4.63295e-06
-4.70284e-06
-4.77184e-06
-4.83994e-06
-4.90717e-06
-4.97354e-06
-5.03907e-06
-5.10377e-06
-5.16766e-06
-5.23075e-06
-5.29305e-06
-5.35458e-06
-5.41536e-06
-5.47539e-06
-5.53469e-06
-5.59326e-06
-5.65111e-06
-5.70827e-06
-5.76475e-06
-5.82055e-06
-5.87569e-06
-5.93017e-06
-5.984e-06
-6.03719e-06
-6.08976e-06
-6.14172e-06
-6.19306e-06
-6.24382e-06
-6.29398e-06
-6.34356e-06
-6.39256e-06
-6.44101e-06
-6.48891e-06
-6.53625e-06
-6.58306e-06
-6.62934e-06
-6.6751e-06
-6.72033e-06
-6.76505e-06
-6.80928e-06
-6.85301e-06
-6.89625e-06
-6.93901e-06
-6.9813e-06
-7.02312e-06
-7.06448e-06
-7.10538e-06
-7.14583e-06
-7.18583e-06
-7.22539e-06
-7.26453e-06
-7.30325e-06
-7.34154e-06
-7.37941e-06
-7.41687e-06
-7.45392e-06
-7.49058e-06
-7.52684e-06
-7.56272e-06
-7.59821e-06
-7.63332e-06
-7.66806e-06
-7.70242e-06
-7.7364e-06
-7.77003e-06
-7.80331e-06
-7.83623e-06
-7.86881e-06
-7.90103e-06
-7.93292e-06
-7.96447e-06
-7.9957e-06
-8.02659e-06
-8.05715e-06
-8.0874e-06
-8.11733e-06
-8.14694e-06
-8.17625e-06
-8.20524e-06
-8.23394e-06
-8.26234e-06
-8.29045e-06
-8.31825e-06
-8.34577e-06
-8.37301e-06
-8.39996e-06
-8.42663e-06
-8.45303e-06
-8.47916e-06
-8.50501e-06
-8.53059e-06
-8.55592e-06
-8.58098e-06
-8.60578e-06
-8.63033e-06
-8.65462e-06
-8.67867e-06
-8.70247e-06
-8.72603e-06
-8.74934e-06
-8.77241e-06
-8.79524e-06
-8.81785e-06
-8.84023e-06
-8.86237e-06
-8.88428e-06
-8.90598e-06
-8.92745e-06
-8.9487e-06
-8.96974e-06
-8.99056e-06
-9.01116e-06
-9.03156e-06
-9.05176e-06
-9.07174e-06
-9.09152e-06
-9.1111e-06
-9.13049e-06
-9.14967e-06
-9.16866e-06
-9.18745e-06
-9.20606e-06
-9.22447e-06
-9.2427e-06
-9.26075e-06
-9.27861e-06
-9.29629e-06
-9.31379e-06
-9.33112e-06
-9.34826e-06
-9.36524e-06
-9.38205e-06
-9.39867e-06
-9.41514e-06
-9.43144e-06
-9.44757e-06
-9.46353e-06
-9.47934e-06
-9.49499e-06
-9.51048e-06
-9.52582e-06
-9.54099e-06
-9.55602e-06
-9.57089e-06
-9.58561e-06
-9.60018e-06
-9.61461e-06
-9.62889e-06
-9.64303e-06
-9.65702e-06
-9.67088e-06
-9.68459e-06
-9.69816e-06
-9.71159e-06
-9.7249e-06
-9.73806e-06
-9.75109e-06
-9.76399e-06
-9.77677e-06
-9.78941e-06
-9.80193e-06
-9.81432e-06
-9.82659e-06
-9.83873e-06
-9.85074e-06
-9.86264e-06
-9.87441e-06
-9.88607e-06
-9.89761e-06
-9.90903e-06
-9.92034e-06
-9.93153e-06
-9.94261e-06
-9.95358e-06
-9.96444e-06
-9.9752e-06
-9.98584e-06
-9.99637e-06
-1.00068e-05
-1.00171e-05
-1.00273e-05
-1.00374e-05
-1.00475e-05
-1.00574e-05
-1.00672e-05
-1.00769e-05
-1.00865e-05
-1.0096e-05
-1.01055e-05
-1.01148e-05
-1.0124e-05
-1.01332e-05
-1.01422e-05
-1.01512e-05
-1.016e-05
-1.01688e-05
-1.01775e-05
-1.01861e-05
-1.01946e-05
-1.0203e-05
-1.02114e-05
-1.02196e-05
-1.02278e-05
-1.02359e-05
-1.02439e-05
-1.02518e-05
-1.02597e-05
-1.02674e-05
-1.02751e-05
-1.02827e-05
-1.02903e-05
-1.02977e-05
-1.03051e-05
-1.03124e-05
-1.03197e-05
-1.03268e-05
-1.03339e-05
-1.03409e-05
-1.03479e-05
-1.03548e-05
-1.03616e-05
-1.03683e-05
-1.0375e-05
-1.03816e-05
-1.03881e-05
-1.03946e-05
-1.0401e-05
-1.04074e-05
-1.04136e-05
-1.04198e-05
-1.0426e-05
-1.04321e-05
-1.04381e-05
-1.04441e-05
-1.045e-05
-1.04558e-05
-1.04616e-05
-1.04673e-05
-1.0473e-05
-1.04786e-05
-1.04842e-05
-1.04897e-05
-1.04951e-05
-1.05005e-05
-1.05059e-05
-1.05111e-05
-1.05164e-05
-1.05215e-05
-1.05267e-05
-1.05317e-05
-1.05368e-05
-1.05417e-05
-1.05466e-05
-1.05515e-05
-1.05563e-05
-1.05611e-05
-1.05658e-05
-1.05705e-05
-1.05751e-05
-1.05797e-05
-1.05842e-05
-1.05887e-05
-1.05932e-05
-1.05976e-05
-1.06019e-05
-1.06062e-05
-1.06105e-05
-1.06147e-05
-1.06189e-05
-1.0623e-05
-1.06271e-05
-1.06312e-05
-1.06352e-05
-1.06391e-05
-1.06431e-05
-1.0647e-05
-1.06508e-05
-1.06546e-05
-1.06584e-05
-1.06621e-05
-1.06658e-05
-1.06695e-05
-1.06731e-05
-1.06767e-05
-1.06803e-05
-1.06838e-05
-1.06873e-05
-1.06907e-05
-1.06941e-05
-1.06975e-05
-1.07008e-05
-1.07041e-05
-1.07074e-05
-1.07106e-05
-1.07138e-05
-1.0717e-05
-1.07202e-05
-1.07233e-05
-1.07264e-05
-1.07294e-05
-1.07324e-05
-1.07354e-05
-1.07383e-05
-1.07413e-05
-1.07442e-05
-1.0747e-05
-1.07499e-05
-1.07527e-05
-1.07555e-05
-1.07582e-05
-1.07609e-05
-1.07636e-05
-1.07663e-05
-1.07689e-05
-1.07715e-05
-1.07741e-05
-1.07767e-05
-1.07792e-05
-1.07817e-05
-1.07842e-05
-1.07867e-05
-1.07891e-05
-1.07915e-05
-1.07939e-05
-1.07963e-05
-1.07986e-05
-1.08009e-05
-1.08032e-05
-1.08055e-05
-1.08077e-05
-1.08099e-05
-1.08121e-05
-1.08143e-05
-1.08164e-05
-1.08186e-05
-1.08207e-05
-1.08228e-05
-1.08248e-05
-1.08269e-05
-1.08289e-05
-1.08309e-05
-1.08329e-05
-1.08348e-05
-1.08368e-05
-1.08387e-05
-1.08406e-05
-1.08425e-05
-1.08444e-05
-1.08462e-05
-1.08481e-05
-1.08499e-05
-1.08517e-05
-1.08534e-05
-1.08552e-05
-1.08569e-05
-1.08587e-05
-1.08604e-05
-1.08621e-05
-1.08638e-05
-1.08654e-05
-1.08671e-05
-1.08687e-05
-1.08703e-05
-1.08719e-05
-1.08735e-05
-1.08751e-05
-1.08766e-05
-1.08782e-05
-1.08797e-05
-1.08812e-05
-1.08827e-05
-1.08842e-05
-1.08857e-05
-1.08872e-05
-1.08886e-05
-1.08901e-05
-1.08915e-05
-1.08929e-05
-1.08943e-05
-1.08957e-05
-1.08971e-05
-1.08985e-05
-1.08999e-05
-1.09012e-05
-1.09026e-05
-1.09039e-05
-1.09052e-05
-1.09066e-05
-1.09079e-05
-1.09092e-05
-1.09105e-05
-1.09118e-05
-1.0913e-05
-1.09143e-05
-1.09156e-05
-1.09168e-05
-1.09181e-05
-1.09193e-05
-1.09206e-05
-1.09218e-05
-1.0923e-05
-1.09242e-05
-1.09254e-05
-1.09266e-05
-1.09278e-05
-1.0929e-05
-1.09302e-05
-1.09314e-05
-1.09325e-05
-1.09337e-05
-1.09349e-05
-1.0936e-05
-1.09372e-05
-1.09383e-05
-1.09395e-05
-1.09406e-05
-1.09417e-05
-1.09429e-05
-1.0944e-05
-1.09451e-05
-1.09462e-05
-1.09473e-05
-1.09484e-05
-1.09495e-05
-1.09506e-05
-1.09517e-05
-1.09527e-05
-1.09538e-05
-1.09549e-05
-1.09559e-05
-1.0957e-05
-1.0958e-05
-1.09591e-05
-1.09601e-05
-1.09612e-05
-1.09622e-05
-1.09632e-05
-1.09642e-05
-1.09652e-05
-1.09662e-05
-1.09672e-05
-1.09682e-05
-1.09692e-05
-1.09702e-05
-1.09712e-05
-1.09721e-05
-1.09731e-05
-1.0974e-05
-1.0975e-05
-1.09759e-05
-1.09768e-05
-1.09778e-05
-1.09787e-05
-1.09796e-05
-1.09805e-05
-1.09814e-05