# vtk DataFile Version 2.0
FlowField
ASCII
DATASET STRUCTURED_GRID
DIMENSIONS 800 1 200
POINTS 160000 float
0 0 0
0.04 0 0
0.08 0 0
0.12 0 0
0.16 0 0
0.2 0 0
0.24 0 0
0.28 0 0
0.32 0 0
0.36 0 0
0.4 0 0
0.44 0 0
0.48 0 0
0.52 0 0
0.56 0 0
0.6 0 0
0.64 0 0
0.68 0 0
0.72 0 0
0.76 0 0
0.8 0 0
0.84 0 0
0.88 0 0
0.92 0 0
0.96 0 0
1 0 0
1.04 0 0
1.08 0 0
1.12 0 0
1.16 0 0
1.2 0 0
1.24 0 0
1.28 0 0
1.32 0 0
1.36 0 0
1.4 0 0
1.44 0 0
1.48 0 0
1.52 0 0
1.56 0 0
1.6 0 0
1.64 0 0
1.68 0 0
1.72 0 0
1.76 0 0
1.8 0 0
1.84 0 0
1.88 0 0
1.92 0 0
1.96 0 0
2 0 0
2.04 0 0
2.08 0 0
2.12 0 0
2.16 0 0
2.2 0 0
2.24 0 0
2.28 0 0
2.32 0 0
2.36 0 0
2.4 0 0
2.44 0 0
2.48 0 0
2.52 0 0
2.56 0 0
2.6 0 0
2.64 0 0
2.68 0 0
2.72 0 0
2.76 0 0
2.8 0 0
2.84 0 0
2.88 0 0
2.92 0 0
2.96 0 0
3 0 0
3.04 0 0
3.08 0 0
3.12 0 0
3.16 0 0
3.2 0 0
3.24 0 0
3.28 0 0
3.32 0 0
3.36 0 0
3.4 0 0
3.44 0 0
3.48 0 0
3.52 0 0
3.56 0 0
3.6 0 0
3.64 0 0
3.68 0 0
3.72 0 0
3.76 0 0
3.8 0 0
3.84 0 0
3.88 0 0
3.92 0 0
3.96 0 0
4 0 0
4.04 0 0
4.08 0 0
4.12 0 0
4.16 0 0
4.2 0 0
4.24 0 0
4.28 0 0
4.32 0 0
4.36 0 0
4.4 0 0
4.44 0 0
4.48 0 0
4.52 0 0
4.56 0 0
4.6 0 0
4.64 0 0
4.68 0 0
4.72 0 0
4.76 0 0
4.8 0 0
4.84 0 0
4.88 0 0
4.92 0 0
4.96 0 0
5 0 0
5.04 0 0
5.08 0 0
5.12 0 0
5.16 0 0
5.2 0 0
5.24 0 0
5.28 0 0
5.32 0 0
5.36 0 0
5.4 0 0
5.44 0 0
5.48 0 0
5.52 0 0
5.56 0 0
5.6 0 0
5.64 0 0
5.68 0 0
5.72 0 0
5.76 0 0
5.8 0 0
5.84 0 0
5.88 0 0
5.92 0 0
5.96 0 0
6 0 0
6.04 0 0
6.08 0 0
6.12 0 0
6.16 0 0
6.2 0 0
6.24 0 0
6.28 0 0
6.32 0 0
6.36 0 0
6.4 0 0
6.44 0 0
6.48 0 0
6.52 0 0
6.56 0 0
6.6 0 0
6.64 0 0
6.68 0 0
6.72 0 0
6.76 0 0
6.8 0 0
6.84 0 0
6.88 0 0
6.92 0 0
6.96 0 0
7 0 0
7.04 0 0
7.08 0 0
7.12 0 0
7.16 0 0
7.2 0 0
7.24 0 0
7.28 0 0
7.32 0 0
7.36 0 0
7.4 0 0
7.44 0 0
7.48 0 0
7.52 0 0
7.56 0 0
7.6 0 0
7.64 0 0
7.68 0 0
7.72 0 0
7.76 0 0
7.8 0 0
7.84 0 0
7.88 0 0
7.92 0 0
7.96 0 0
8 0 0
8.04 0 0
8.08 0 0
8.12 0 0
8.16 0 0
8.2 0 0
8.24 0 0
8.28 0 0
8.32 0 0
8.36 0 0
8.4 0 0
8.44 0 0
8.48 0 0
8.52 0 0
8.56 0 0
8.6 0 0
8.64 0 0
8.68 0 0
8.72 0 0
8.76 0 0
8.8 0 0
8.84 0 0
8.88 0 0
8.92 0 0
8.96 0 0
9 0 0
9.04 0 0
9.08 0 0
9.12 0 0
9.16 0 0
9.2 0 0
9.24 0 0
9.28 0 0
9.32 0 0
9.36 0 0
9.4 0 0
9.44 0 0
9.48 0 0
9.52 0 0
9.56 0 0
9.6 0 0
9.64 0 0
9.68 0 0
9.72 0 0
9.76 0 0
9.8 0 0
9.84 0 0
9.88 0 0
9.92 0 0
9.96 0 0
10 0 0
10.04 0 0
10.08 0 0
10.12 0 0
10.16 0 0
10.2 0 0
10.24 0 0
10.28 0 0
10.32 0 0
10.36 0 0
10.4 0 0
10.44 0 0
10.48 0 0
10.52 0 0
10.56 0 0
10.6 0 0
10.64 0 0
10.68 0 0
10.72 0 0
10.76 0 0
10.8 0 0
10.84 0 0
10.88 0 0
10.92 0 0
10.96 0 0
11 0 0
11.04 0 0
11.08 0 0
11.12 0 0
11.16 0 0
11.2 0 0
11.24 0 0
11.28 0 0
11.32 0 0
11.36 0 0
11.4 0 0
11.44 0 0
11.48 0 0
11.52 0 0
11.56 0 0
11.6 0 0
11.64 0 0
11.68 0 0
11.72 0 0
11.76 0 0
11.8 0 0
11.84 0 0
11.88 0 0
11.92 0 0
11.96 0 0
12 0 0
12.04 0 0
12.08 0 0
12.12 0 0
12.16 0 0
12.2 0 0
12.24 0 0
12.28 0 0
12.32 0 0
12.36 0 0
12.4 0 0
12.44 0 0
12.48 0 0
12.52 0 0
12.56 0 0
12.6 0 0
12.64 0 0
12.68 0 0
12.72 0 0
12.76 0 0
12.8 0 0
12.84 0 0
12.88 0 0
12.92 0 0
12.96 0 0
13 0 0
13.04 0 0
13.08 0 0
13.12 0 0
13.16 0 0
13.2 0 0
13.24 0 0
13.28 0 0
13.32 0 0
13.36 0 0
13.4 0 0
13.44 0 0
13.48 0 0
13.52 0 0
13.56 0 0
13.6 0 0
13.64 0 0
13.68 0 0
13.72 0 0
13.76 0 0
13.8 0 0
13.84 0 0
13.88 0 0
13.92 0 0
13.96 0 0
14 0 0
14.04 0 0
14.08 0 0
14.12 0 0
14.16 0 0
14.2 0 0
14.24 0 0
14.28 0 0
14.32 0 0
14.36 0 0
14.4 0 0
14.44 0 0
14.48 0 0
14.52 0 0
14.56 0 0
14.6 0 0
14.64 0 0
14.68 0 0
14.72 0 0
14.76 0 0
14.8 0 0
14.84 0 0
14.88 0 0
14.92 0 0
14.96 0 0
15 0 0
15.04 0 0
15.08 0 0
15.12 0 0
15.16 0 0
15.2 0 0
15.24 0 0
15.28 0 0
15.32 0 0
15.36 0 0
15.4 0 0
15.44 0 0
15.48 0 0
15.52 0 0
15.56 0 0
15.6 0 0
15.64 0 0
15.68 0 0
15.72 0 0
15.76 0 0
15.8 0 0
15.84 0 0
15.88 0 0
15.92 0 0
15.96 0 0
16 0 0
16.04 0 0
16.08 0 0
16.12 0 0
16.16 0 0
16.2 0 0
16.24 0 0
16.28 0 0
16.32 0 0
16.36 0 0
16.4 0 0
16.44 0 0
16.48 0 0
16.52 0 0
16.56 0 0
16.6 0 0
16.64 0 0
16.68 0 0
16.72 0 0
16.76 0 0
16.8 0 0
16.84 0 0
16.88 0 0
16.92 0 0
16.96 0 0
17 0 0
17.04 0 0
17.08 0 0
17.12 0 0
17.16 0 0
17.2 0 0
17.24 0 0
17.28 0 0
17.32 0 0
17.36 0 0
17.4 0 0
17.44 0 0
17.48 0 0
17.52 0 0
17.56 0 0
17.6 0 0
17.64 0 0
17.68 0 0
17.72 0 0
17.76 0 0
17.8 0 0
17.84 0 0
17.88 0 0
17.92 0 0
17.96 0 0
18 0 0
18.04 0 0
18.08 0 0
18.12 0 0
18.16 0 0
18.2 0 0
18.24 0 0
18.28 0 0
18.32 0 0
18.36 0 0
18.4 0 0
18.44 0 0
18.48 0 0
18.52 0 0
18.56 0 0
18.6 0 0
18.64 0 0
18.68 0 0
18.72 0 0
18.76 0 0
18.8 0 0
18.84 0 0
18.88 0 0
18.92 0 0
18.96 0 0
19 0 0
19.04 0 0
19.08 0 0
19.12 0 0
19.16 0 0
19.2 0 0
19.24 0 0
19.28 0 0
19.32 0 0
19.36 0 0
19.4 0 0
19.44 0 0
19.48 0 0
19.52 0 0
19.56 0 0
19.6 0 0
19.64 0 0
19.68 0 0
19.72 0 0
19.76 0 0
19.8 0 0
19.84 0 0
19.88 0 0
19.92 0 0
19.96 0 0
20 0 0
20.04 0 0
20.08 0 0
20.12 0 0
20.16 0 0
20.2 0 0
20.24 0 0
20.28 0 0
20.32 0 0
20.36 0 0
20.4 0 0
20.44 0 0
20.48 0 0
20.52 0 0
20.56 0 0
20.6 0 0
20.64 0 0
20.68 0 0
20.72 0 0
20.76 0 0
20.8 0 0
20.84 0 0
20.88 0 0
20.92 0 0
20.96 0 0
21 0 0
21.04 0 0
21.08 0 0
21.12 0 0
21.16 0 0
21.2 0 0
21.24 0 0
21.28 0 0
21.32 0 0
21.36 0 0
21.4 0 0
21.44 0 0
21.48 0 0
21.52 0 0
21.56 0 0
21.6 0 0
21.64 0 0
21.68 0 0
21.72 0 0
21.76 0 0
21.8 0 0
21.84 0 0
21.88 0 0
21.92 0 0
21.96 0 0
22 0 0
22.04 0 0
22.08 0 0
22.12 0 0
22.16 0 0
22.2 0 0
22.24 0 0
22.28 0 0
22.32 0 0
22.36 0 0
22.4 0 0
22.44 0 0
22.48 0 0
22.52 0 0
22.56 0 0
22.6 0 0
22.64 0 0
22.68 0 0
22.72 0 0
22.76 0 0
22.8 0 0
22.84 0 0
22.88 0 0
22.92 0 0
22.96 0 0
23 0 0
23.04 0 0
23.08 0 0
23.12 0 0
23.16 0 0
23.2 0 0
23.24 0 0
23.28 0 0
23.32 0 0
23.36 0 0
23.4 0 0
23.44 0 0
23.48 0 0
23.52 0 0
23.56 0 0
23.6 0 0
23.64 0 0
23.68 0 0
23.72 0 0
23.76 0 0
23.8 0 0
23.84 0 0
23.88 0 0
23.92 0 0
23.96 0 0
24 0 0
24.04 0 0
24.08 0 0
24.12 0 0
24.16 0 0
24.2 0 0
24.24 0 0
24.28 0 0
24.32 0 0
24.36 0 0
24.4 0 0
24.44 0 0
24.48 0 0
24.52 0 0
24.56 0 0
24.6 0 0
24.64 0 0
24.68 0 0
24.72 0 0
24.76 0 0
24.8 0 0
24.84 0 0
24.88 0 0
24.92 0 0
24.96 0 0
25 0 0
25.04 0 0
25.08 0 0
25.12 0 0
25.16 0 0
25.2 0 0
25.24 0 0
25.28 0 0
25.32 0 0
25.36 0 0
25.4 0 0
25.44 0 0
25.48 0 0
25.52 0 0
25.56 0 0
25.6 0 0
25.64 0 0
25.68 0 0
25.72 0 0
25.76 0 0
25.8 0 0
25.84 0 0
25.88 0 0
25.92 0 0
25.96 0 0
26 0 0
26.04 0 0
26.08 0 0
26.12 0 0
26.16 0 0
26.2 0 0
26.24 0 0
26.28 0 0
26.32 0 0
26.36 0 0
26.4 0 0
26.44 0 0
26.48 0 0
26.52 0 0
26.56 0 0
26.6 0 0
26.64 0 0
26.68 0 0
26.72 0 0
26.76 0 0
26.8 0 0
26.84 0 0
26.88 0 0
26.92 0 0
26.96 0 0
27 0 0
27.04 0 0
27.08 0 0
27.12 0 0
27.16 0 0
27.2 0 0
27.24 0 0
27.28 0 0
27.32 0 0
27.36 0 0
27.4 0 0
27.44 0 0
27.48 0 0
27.52 0 0
27.56 0 0
27.6 0 0
27.64 0 0
27.68 0 0
27.72 0 0
27.76 0 0
27.8 0 0
27.84 0 0
27.88 0 0
27.92 0 0
27.96 0 0
28 0 0
28.04 0 0
28.08 0 0
28.12 0 0
28.16 0 0
28.2 0 0
28.24 0 0
28.28 0 0
28.32 0 0
28.36 0 0
28.4 0 0
28.44 0 0
28.48 0 0
28.52 0 0
28.56 0 0
28.6 0 0
28.64 0 0
28.68 0 0
28.72 0 0
28.76 0 0
28.8 0 0
28.84 0 0
28.88 0 0
28.92 0 0
28.96 0 0
29 0 0
29.04 0 0
29.08 0 0
29.12 0 0
29.16 0 0
29.2 0 0
29.24 0 0
29.28 0 0
29.32 0 0
29.36 0 0
29.4 0 0
29.44 0 0
29.48 0 0
29.52 0 0
29.56 0 0
29.6 0 0
29.64 0 0
29.68 0 0
29.72 0 0
29.76 0 0
29.8 0 0
29.84 0 0
29.88 0 0
29.92 0 0
29.96 0 0
30 0 0
30.04 0 0
30.08 0 0
30.12 0 0
30.16 0 0
30.2 0 0
30.24 0 0
30.28 0 0
30.32 0 0
30.36 0 0
30.4 0 0
30.44 0 0
30.48 0 0
30.52 0 0
30.56 0 0
30.6 0 0
30.64 0 0
30.68 0 0
30.72 0 0
30.76 0 0
30.8 0 0
30.84 0 0
30.88 0 0
30.92 0 0
30.96 0 0
31 0 0
31.04 0 0
31.08 0 0
31.12 0 0
31.16 0 0
31.2 0 0
31.24 0 0
31.28 0 0
31.32 0 0
31.36 0 0
31.4 0 0
31.44 0 0
31.48 0 0
31.52 0 0
31.56 0 0
31.6 0 0
31.64 0 0
31.68 0 0
31.72 0 0
31.76 0 0
31.8 0 0
31.84 0 0
31.88 0 0
31.92 0 0
31.96 0 0
0 0.005 0
0.04 0.005 0
0.08 0.005 0
0.12 0.005 0
0.16 0.005 0
0.2 0.005 0
0.24 0.005 0
0.28 0.005 0
0.32 0.005 0
0.36 0.005 0
0.4 0.005 0
0.44 0.005 0
0.48 0.005 0
0.52 0.005 0
0.56 0.005 0
0.6 0.005 0
0.64 0.005 0
0.68 0.005 0
0.72 0.005 0
0.76 0.005 0
0.8 0.005 0
0.84 0.005 0
0.88 0.005 0
0.92 0.005 0
0.96 0.005 0
1 0.005 0
1.04 0.005 0
1.08 0.005 0
1.12 0.005 0
1.16 0.005 0
1.2 0.005 0
1.24 0.005 0
1.28 0.005 0
1.32 0.005 0
1.36 0.005 0
1.4 0.005 0
1.44 0.005 0
1.48 0.005 0
1.52 0.005 0
1.56 0.005 0
1.6 0.005 0
1.64 0.005 0
1.68 0.005 0
1.72 0.005 0
1.76 0.005 0
1.8 0.005 0
1.84 0.005 0
1.88 0.005 0
1.92 0.005 0
1.96 0.005 0
2 0.005 0
2.04 0.005 0
2.08 0.005 0
2.12 0.005 0
2.16 0.005 0
2.2 0.005 0
2.24 0.005 0
2.28 0.005 0
2.32 0.005 0
2.36 0.005 0
2.4 0.005 0
2.44 0.005 0
2.48 0.005 0
2.52 0.005 0
2.56 0.005 0
2.6 0.005 0
2.64 0.005 0
2.68 0.005 0
2.72 0.005 0
2.76 0.005 0
2.8 0.005 0
2.84 0.005 0
2.88 0.005 0
2.92 0.005 0
2.96 0.005 0
3 0.005 0
3.04 0.005 0
3.08 0.005 0
3.12 0.005 0
3.16 0.005 0
3.2 0.005 0
3.24 0.005 0
3.28 0.005 0
3.32 0.005 0
3.36 0.005 0
3.4 0.005 0
3.44 0.005 0
3.48 0.005 0
3.52 0.005 0
3.56 0.005 0
3.6 0.005 0
3.64 0.005 0
3.68 0.005 0
3.72 0.005 0
3.76 0.005 0
3.8 0.005 0
3.84 0.005 0
3.88 0.005 0
3.92 0.005 0
3.96 0.005 0
4 0.005 0
4.04 0.005 0
4.08 0.005 0
4.12 0.005 0
4.16 0.005 0
4.2 0.005 0
4.24 0.005 0
4.28 0.005 0
4.32 0.005 0
4.36 0.005 0
4.4 0.005 0
4.44 0.005 0
4.48 0.005 0
4.52 0.005 0
4.56 0.005 0
4.6 0.005 0
4.64 0.005 0
4.68 0.005 0
4.72 0.005 0
4.76 0.005 0
4.8 0.005 0
4.84 0.005 0
4.88 0.005 0
4.92 0.005 0
4.96 0.005 0
5 0.005 0
5.04 0.005 0
5.08 0.005 0
5.12 0.005 0
5.16 0.005 0
5.2 0.005 0
5.24 0.005 0
5.28 0.005 0
5.32 0.005 0
5.36 0.005 0
5.4 0.005 0
5.44 0.005 0
5.48 0.005 0
5.52 0.005 0
5.56 0.005 0
5.6 0.005 0
5.64 0.005 0
5.68 0.005 0
5.72 0.005 0
5.76 0.005 0
5.8 0.005 0
5.84 0.005 0
5.88 0.005 0
5.92 0.005 0
5.96 0.005 0
6 0.005 0
6.04 0.005 0
6.08 0.005 0
6.12 0.005 0
6.16 0.005 0
6.2 0.005 0
6.24 0.005 0
6.28 0.005 0
6.32 0.005 0
6.36 0.005 0
6.4 0.005 0
6.44 0.005 0
6.48 0.005 0
6.52 0.005 0
6.56 0.005 0
6.6 0.005 0
6.64 0.005 0
6.68 0.005 0
6.72 0.005 0
6.76 0.005 0
6.8 0.005 0
6.84 0.005 0
6.88 0.005 0
6.92 0.005 0
6.96 0.005 0
7 0.005 0
7.04 0.005 0
7.08 0.005 0
7.12 0.005 0
7.16 0.005 0
7.2 0.005 0
7.24 0.005 0
7.28 0.005 0
7.32 0.005 0
7.36 0.005 0
7.4 0.005 0
[...]
POINT_DATA 160000

SCALARS v float 1
LOOKUP_TABLE default
0
0
0
0
0
0
0
0
0
0
0
0
0
0
0
0
0
0
0
0
0
0
0
0
0
0
0
0
0
0
0
0
0
0
0
0
0
0
0
0
0
0
0
0
0
0
0
0
0
0
0
0
0
0
0
0
0
0
0
0
0
0
0
0
0
0
0
0
0
0
0
0
0
0
0
0
0
0
0
0
0
0
0
0
0
0
0
0
0
0
0
0
0
0
0
0
0
0
0
0
0
0
0
0
0
0
0
0
0
0
0
0
0
0
0
0
0
0
0
0
0
0
0
0
0
0
0
0
0
0
0
0
0
0
0
0
0
0
0
0
0
0
0
0
0
0
0
0
0
0
0
0
0
0
0
0
0
0
0
0
0
0
0
0
0
0
0
0
0
0
0
0
0
0
0
0
0
0
0
0
0
0
0
0
0
0
0
0
0
0
0
0
0
0
0
0
0
0
0
0
0
0
0
0
0
0
0
0
0
0
0
0
0
0
0
0
0
0
0
0
0
0
0
0
0
0
0
0
0
0
0
0
0
0
0
0
0
0
0
0
0
0
0
0
0
0
0
0
0
0
0
0
0
0
0
0
0
0
0
0
0
0
0
0
0
0
0
0
0
0
0
0
0
0
0
0
0
0
0
0
0
0
0
0
0
0
0
0
0
0
0
0
0
0
0
0
0
0
0
0
0
0
0
0
0
0
0
0
0
0
0
0
0
0
0
0
0
0
0
0
0
0
0
0
0
0
0
0
0
0
0
0
0
0
0
0
0
0
0
0
0
0
0
0
0
0
0
0
0
0
0
0
0
0
0
0
0
0
0
0
0
0
0
0
0
0
0
0
0
0
0
0
0
0
0
0
0
0
0
0
0
0
0
0
0
0
0
0
0
0
0
0
0
0
0
0
0
0
0
0
0
0
0
0
0
0
0
0
0
0
0
0
0
0
0
0
0
0
0
0
0
0
0
0
0
0
0
0
0
0
0
0
0
0
0
0
0
0
0
0
0
0
0
0
0
0
0
0
0
0
0
0
0
0
0
0
0
0
0
0
0
0
0
0
0
0
0
0
0
0
0
0
0
0
0
0
0
0
0
0
0
0
0
0
0
0
0
0
0
0
0
0
0
0
0
0
0
0
0
0
0
0
0
0
0
0
0
0
0
0
0
0
0
0
0
0
0
0
0
0
0
0
0
0
0
0
0
0
0
0
0
0
0
0
0
0
0
0
0
0
0
0
0
0
0
0
0
0
0
0
0
0
0
0
0
0
0
0
0
0
0
0
0
0
0
0
0
0
0
0
0
0
0
0
0
0
0
0
0
0
0
0
0
0
0
0
0
0
0
0
0
0
0
0
0
0
0
0
0
0
0
0
0
0
0
0
0
0
0
0
0
0
0
0
0
0
0
0
0
0
0
0
0
0
0
0
0
0
0
0
0
0
0
0
0
0
0
0
0
0
0
0
0
0
0
0
0
0
0
0
0
0
0
0
0
0
0
0
0
0
0
0
0
0
0
0
0
0
0
0
0
0
0
0
0
0
0
0
0
0
0
0
0
0
0
0
0
0
0
0
0
0
0
0
0
0
0
0
0
0
0
0
0
0
0
0
0
0
0
0
0
0
0
0
0
0
0
0
0
0
0
0
0
0
0
0
0
0
0
0
0
0
0
0
0
0
0
0
0
0
0
0
0
0
0
0
0
0
0
0
0
0
0
0
0
0
0
0
0
0
0
0
0
0
0
0
0
0
0
0
0
0
0
0
0
0
0
0
0
0
0
0
0
0
0
0
0
0
0
0
0
0
0
0
0
0
0
0
0
0
0
0
0.0374156
0.00938093
0.00346777
0.00176616
0.00108068
0.000736917
0.00053814
0.000411595
0.000325396
0.000263707
0.000217886
0.000182855
0.000155454
0.000133617
0.000115944
0.000101453
8.94342e-05
7.93662e-05
7.08563e-05
6.36043e-05
5.73775e-05
5.19933e-05
4.73068e-05
4.32021e-05
3.95858e-05
3.63817e-05
3.35278e-05
3.09729e-05
2.86747e-05
2.65981e-05
2.47137e-05
2.29968e-05
2.14265e-05
1.99854e-05
1.86583e-05
1.74325e-05
1.6297e-05
1.52422e-05
1.42601e-05
1.33434e-05
1.24859e-05
1.16822e-05
1.09275e-05
1.02176e-05
9.54859e-06
8.91727e-06
8.32062e-06
7.75596e-06
7.2209e-06
6.71328e-06
6.23112e-06
5.77267e-06
5.3363e-06
4.92055e-06
4.52407e-06
4.14564e-06
3.78412e-06
3.43848e-06
3.10775e-06
2.79107e-06
2.48761e-06
2.19661e-06
1.91739e-06
1.64928e-06
1.39168e-06
1.14403e-06
9.05809e-07
6.76519e-07
4.55708e-07
2.4295e-07
3.784e-08
-1.6e-07
-3.50921e-07
-5.35251e-07
-7.13301e-07
-8.85364e-07
-1.05172e-06
-1.21262e-06
-1.36832e-06
-1.51904e-06
-1.665e-06
-1.80641e-06
-1.94346e-06
-2.07634e-06
-2.20522e-06
-2.33027e-06
-2.45163e-06
-2.56948e-06
-2.68394e-06
-2.79514e-06
-2.90322e-06
-3.0083e-06
-3.11048e-06
-3.20989e-06
-3.30662e-06
-3.40078e-06
-3.49245e-06
-3.58174e-06
-3.66872e-06
-3.75348e-06
-3.8361e-06
-3.91666e-06
-3.99521e-06
-4.07184e-06
-4.14662e-06
-4.21959e-06
-4.29082e-06
-4.36038e-06
-4.42831e-06
-4.49467e-06
-4.55951e-06
-4.62289e-06
-4.68483e-06
-4.7454e-06
-4.80463e-06
-4.86256e-06
-4.91925e-06
-4.97471e-06
-5.029e-06
-5.08214e-06
-5.13417e-06
-5.18513e-06
-5.23503e-06
-5.28393e-06
-5.33184e-06
-5.37879e-06
-5.42481e-06
-5.46993e-06
-5.51417e-06
-5.55755e-06
-5.60011e-06
-5.64186e-06
-5.68282e-06
-5.72302e-06
-5.76248e-06
-5.8012e-06
-5.83923e-06
-5.87657e-06
-5.91324e-06
-5.94925e-06
-5.98463e-06
-6.0194e-06
-6.05356e-06
-6.08713e-06
-6.12013e-06
-6.15257e-06
-6.18447e-06
-6.21583e-06
-6.24667e-06
-6.27701e-06
-6.30685e-06
-6.3362e-06
-6.36509e-06
-6.39351e-06
-6.42149e-06
-6.44902e-06
-6.47613e-06
-6.50281e-06
-6.52908e-06
-6.55496e-06
-6.58043e-06
-6.60552e-06
-6.63024e-06
-6.65459e-06
-6.67858e-06
-6.70222e-06
-6.72551e-06
-6.74846e-06
-6.77109e-06
-6.79339e-06
-6.81537e-06
-6.83704e-06
-6.85841e-06
-6.87948e-06
-6.90026e-06
-6.92075e-06
-6.94096e-06
-6.9609e-06
-6.98056e-06
-6.99996e-06
-7.0191e-06
-7.03798e-06
-7.05661e-06
-7.075e-06
-7.09314e-06
-7.11105e-06
-7.12872e-06
-7.14617e-06
-7.16339e-06
-7.1804e-06
-7.19718e-06
-7.21376e-06
-7.23013e-06
-7.24628e-06
-7.26224e-06
-7.27799e-06
-7.29356e-06
-7.30893e-06
-7.32411e-06
-7.33911e-06
-7.35392e-06
-7.36856e-06
-7.38302e-06
-7.3973e-06
-7.41141e-06
-7.42536e-06
-7.43913e-06
-7.45275e-06
-7.4662e-06
-7.47949e-06
-7.49263e-06
-7.50562e-06
-7.51845e-06
-7.53114e-06
-7.54368e-06
-7.55607e-06
-7.56833e-06
-7.58044e-06
-7.59242e-06
-7.60427e-06
-7.61598e-06
-7.62757e-06
-7.63903e-06
-7.65037e-06
-7.66159e-06
-7.6727e-06
-7.68369e-06
-7.69457e-06
-7.70535e-06
-7.71602e-06
-7.72659e-06
-7.73707e-06
-7.74747e-06
-7.75777e-06
-7.768e-06
-7.77815e-06
-7.78823e-06
-7.79824e-06
-7.80819e-06
-7.81808e-06
-7.82791e-06
-7.83769e-06
-7.84743e-06
-7.85713e-06
-7.86679e-06
-7.87643e-06
-7.88603e-06
-7.89561e-06
-7.90517e-06
-7.91471e-06
-7.92424e-06
-7.93375e-06
-7.94326e-06
-7.95276e-06
-7.96226e-06
-7.97175e-06
-7.98124e-06
-7.99073e-06
-8.00021e-06
-8.0097e-06
-8.01919e-06
-8.02868e-06
-8.03818e-06
-8.04767e-06
-8.05716e-06
-8.06664e-06
-8.07612e-06
-8.08561e-06
-8.09509e-06
-8.10456e-06
-8.11401e-06
-8.12346e-06
-8.13289e-06
-8.14231e-06
-8.15171e-06
-8.16109e-06
-8.17045e-06
-8.17978e-06
-8.18909e-06
-8.19837e-06
-8.20761e-06
-8.21682e-06
-8.22599e-06
-8.23513e-06
-8.24423e-06
-8.25328e-06
-8.26229e-06
-8.27124e-06
-8.28014e-06
-8.289e-06
-8.29779e-06
-8.30653e-06
-8.31521e-06
-8.32382e-06
-8.33236e-06
-8.34085e-06
-8.34926e-06
-8.3576e-06
-8.36587e-06
-8.37406e-06
-8.38217e-06
-8.39021e-06
-8.39816e-06
-8.40603e-06
-8.41382e-06
-8.42151e-06
-8.42911e-06
-8.43663e-06
-8.44406e-06
-8.45139e-06
-8.45863e-06
-8.46577e-06
-8.47281e-06
-8.47976e-06
-8.4866e-06
-8.49336e-06
-8.5e-06
-8.50654e-06
-8.51298e-06
-8.51931e-06
-8.52554e-06
-8.53166e-06
-8.53768e-06
-8.54359e-06
-8.5494e-06
-8.55509e-06
-8.56068e-06
-8.56616e-06
-8.57154e-06
-8.5768e-06
-8.58196e-06
-8.58702e-06
-8.59196e-06
-8.5968e-06
-8.60153e-06
-8.60615e-06
-8.61067e-06
-8.61508e-06
-8.61939e-06
-8.62359e-06
-8.62769e-06
-8.63168e-06
-8.63557e-06
-8.63935e-06
-8.64304e-06
-8.64663e-06
-8.65011e-06
-8.6535e-06
-8.65679e-06
-8.65998e-06
-8.66308e-06
-8.66608e-06
-8.66898e-06
-8.67179e-06
-8.67451e-06
-8.67714e-06
-8.67969e-06
-8.68214e-06
-8.68451e-06
-8.68678e-06
-8.68898e-06
-8.6911e-06
-8.69313e-06
-8.69508e-06
-8.69696e-06
-8.69875e-06
-8.70048e-06
-8.70213e-06
-8.7037e-06
-8.70521e-06
-8.70665e-06
-8.70802e-06
-8.70932e-06
-8.71056e-06
-8.71174e-06
-8.71286e-06
-8.71391e-06
-8.71491e-06
-8.71587e-06
-8.71676e-06
-8.7176e-06
-8.71839e-06
-8.71914e-06
-8.71983e-06
-8.72047e-06
-8.72108e-06
-8.72164e-06
-8.72216e-06
-8.72264e-06
-8.72307e-06
-8.72348e-06
-8.72384e-06
-8.72418e-06
-8.72448e-06
-8.72475e-06
-8.72499e-06
-8.72521e-06
-8.72541e-06
-8.72558e-06
-8.72573e-06
-8.72587e-06
-8.726e-06
-8.72612e-06
-8.72622e-06
-8.72631e-06
-8.7264e-06
-8.72648e-06
-8.72656e-06
-8.72663e-06
-8.7267e-06
-8.72676e-06
-8.72682e-06
-8.72689e-06
-8.72695e-06
-8.72701e-06
-8.72707e-06
-8.72713e-06
-8.72718e-06
-8.72724e-06
-8.7273e-06
-8.72736e-06
-8.72742e-06
-8.72748e-06
-8.72754e-06
-8.7276e-06
-8.72766e-06
-8.72772e-06
-8.72777e-06
-8.72783e-06
-8.72789e-06
-8.72795e-06
-8.72801e-06
-8.72807e-06
-8.72813e-06
-8.7282e-06
-8.72826e-06
-8.72831e-06
-8.72837e-06
-8.72843e-06
-8.7285e-06
-8.72856e-06
-8.72861e-06
-8.72867e-06
-8.72873e-06
-8.72879e-06
-8.72885e-06
-8.72891e-06
-8.72897e-06
-8.72903e-06
-8.72909e-06
-8.72915e-06
-8.72921e-06
-8.72927e-06
-8.72933e-06
-8.72939e-06
-8.72945e-06
-8.72951e-06
-8.72957e-06
-8.72963e-06
-8.72969e-06
-8.72975e-06
-8.72981e-06
-8.72987e-06
-8.72993e-06
-8.72999e-06
-8.73005e-06
-8.73011e-06
-8.73017e-06
-8.73023e-06
-8.73029e-06
-8.73035e-06
-8.73041e-06
-8.73047e-06
-8.73053e-06
-8.73059e-06
-8.73065e-06
-8.73071e-06
-8.73077e-06
-8.73083e-06
-8.73089e-06
-8.73095e-06
-8.73101e-06
-8.73107e-06
-8.73113e-06
-8.73119e-06
-8.73126e-06
-8.73131e-06
-8.73137e-06
-8.73143e-06
-8.73149e-06
-8.73155e-06
-8.73161e-06
-8.73168e-06
-8.73173e-06
-8.73179e-06
-8.73185e-06
-8.73191e-06
-8.73198e-06
-8.73204e-06
-8.7321e-06
-8.73215e-06
-8.73222e-06
-8.73228e-06
-8.73234e-06
-8.7324e-06
-8.73246e-06
-8.73251e-06
-8.73258e-06
-8.73264e-06
-8.7327e-06
-8.73276e-06
-8.73282e-06
-8.73288e-06
-8.73294e-06
-8.733e-06
-8.73306e-06
-8.73312e-06
-8.73318e-06
-8.73324e-06
-8.7333e-06
-8.73336e-06
-8.73342e-06
-8.73348e-06
-8.73355e-06
-8.73361e-06
-8.73366e-06
-8.73372e-06
-8.73378e-06
-8.73385e-06
-8.7339e-06
-8.73396e-06
-8.73402e-06
-8.73409e-06
-8.73415e-06
-8.73421e-06
-8.73427e-06
-8.73433e-06
-8.73439e-06
-8.73445e-06
-8.73451e-06
-8.73457e-06
-8.73463e-06
-8.73469e-06
-8.73475e-06
-8.73481e-06
-8.73488e-06
-8.73494e-06
-8.735e-06
-8.73506e-06
-8.73512e-06
-8.73518e-06
-8.73524e-06
-8.7353e-06
-8.73536e-06
-8.73542e-06
-8.73548e-06
-8.73555e-06
-8.73561e-06
-8.73567e-06
-8.73573e-06
-8.73579e-06
-8.73585e-06
-8.73591e-06
-8.73597e-06
-8.73603e-06
-8.73609e-06
-8.73615e-06
-8.73621e-06
-8.73627e-06
-8.73634e-06
-8.7364e-06
-8.73646e-06
-8.73652e-06
-8.73658e-06
-8.73664e-06
-8.7367e-06
-8.73676e-06
-8.73682e-06
-8.73688e-06
-8.73694e-06
-8.73701e-06
-8.73707e-06
-8.73713e-06
-8.73719e-06
-8.73725e-06
-8.73731e-06
-8.73737e-06
-8.73744e-06
-8.73749e-06
-8.73755e-06
-8.73762e-06
-8.73768e-06
-8.73774e-06
-8.7378e-06
-8.73786e-06
-8.73793e-06
-8.73799e-06
-8.73805e-06
-8.73811e-06
-8.73817e-06
-8.73823e-06
-8.73829e-06
-8.73835e-06
-8.73841e-06
-8.73847e-06
-8.73853e-06
-8.7386e-06
-8.73866e-06
-8.73872e-06
-8.73878e-06
-8.73884e-06
-8.7389e-06
-8.73896e-06
-8.73902e-06
-8.73909e-06
-8.73915e-06
-8.73921e-06
-8.73927e-06
-8.73933e-06
-8.73939e-06
-8.73946e-06
-8.73952e-06
-8.73958e-06
-8.73964e-06
-8.7397e-06
-8.73976e-06
-8.73982e-06
-8.73988e-06
-8.73994e-06
-8.74e-06
-8.74007e-06
-8.74013e-06
-8.74019e-06
-8.74025e-06
-8.74031e-06
-8.74038e-06
-8.74044e-06
-8.7405e-06
-8.74056e-06
-8.74062e-06
-8.74068e-06
-8.74074e-06
-8.7408e-06
-8.74086e-06
-8.74093e-06
-8.74099e-06
-8.74105e-06
-8.74111e-06
-8.74117e-06
-8.74124e-06
-8.7413e-06
-8.74136e-06
-8.74142e-06
-8.74148e-06
-8.74154e-06
-8.74161e-06
-8.74167e-06
-8.74173e-06
-8.74179e-06
-8.74185e-06
-8.74191e-06
-8.74198e-06
-8.74204e-06
-8.7421e-06
-8.74216e-06
-8.74222e-06
-8.74228e-06
-8.74235e-06
-8.74241e-06
-8.74247e-06
-8.74253e-06
-8.74259e-06
-8.74265e-06
-8.74272e-06
-8.74278e-06
-8.74284e-06
-8.7429e-06
-8.74297e-06
-8.74303e-06
-8.74309e-06
-8.74315e-06
-8.74321e-06
-8.74327e-06
-8.74333e-06
-8.7434e-06
-8.74346e-06
-8.74352e-06
-8.74358e-06
-8.74365e-06
-8.74371e-06
-8.74377e-06
-8.74383e-06
-8.74389e-06
-8.74395e-06
-8.74402e-06
-8.74408e-06
-8.74414e-06
-8.7442e-06
-8.74427e-06
-8.74433e-06
-8.74439e-06
-8.74445e-06
-8.74451e-06
-8.74458e-06
-8.74464e-06
-8.7447e-06
-8.74476e-06
-8.74482e-06
-8.74488e-06
-8.74495e-06
-8.74501e-06
-8.74507e-06
-8.74513e-06
-8.74519e-06
-8.74526e-06
-8.74532e-06
-8.74539e-06
-8.74545e-06
-8.74551e-06
-8.74557e-06
-8.74563e-06
-8.7457e-06
-8.74576e-06
-8.74582e-06
-8.74588e-06
-8.74594e-06
-8.74601e-06
-8.74607e-06
-8.74613e-06
-8.74619e-06
-8.74626e-06
-8.74632e-06
-8.74638e-06
-8.74644e-06
-8.7465e-06
-8.74657e-06
-8.74663e-06
-8.74669e-06
-8.74675e-06
-8.74682e-06
-8.74688e-06
-8.74694e-06
-8.747e-06
-8.74707e-06
-8.74713e-06
-8.74719e-06
-8.74725e-06
-8.74732e-06
-8.74738e-06
-8.74744e-06
-8.7475e-06
-8.74756e-06
-8.74763e-06
-8.74769e-06
-8.74775e-06
-8.74781e-06
-8.74787e-06
-8.74793e-06
-8.74799e-06
-8.74805e-06
-8.74811e-06
-8.74817e-06
-8.74822e-06
-8.74828e-06
-8.74833e-06
-8.74838e-06
-8.74842e-06
-8.74847e-06
-8.7485e-06
-8.74853e-06
-8.74855e-06
-8.74856e-06
-8.74855e-06
-8.74853e-06
-8.74848e-06
-8.74841e-06
-8.74829e-06
-8.74813e-06
-8.7479e-06
-8.7476e-06
-8.7472e-06
-8.7467e-06
-8.74599e-06
-8.74515e-06
-8.74395e-06
-8.7426e-06
-8.74054e-06
-8.73839e-06
-8.73476e-06
-8.7315e-06
-8.72463e-06
-8.72038e-06
-8.70527e-06
-8.70445e-06
-8.65934e-06
-8.73765e-06
-6.17628e-06
-6.17628e-06
0
0
0.0966098
0.0320524
0.0130059
0.00682614
0.00423584
0.0029139
0.00214226
0.00164818
0.00131032
0.00106784
0.000887328
0.00074908
0.000640775
0.000554352
0.000484327
0.000426848
0.000379133
0.00033913
0.000305293
0.00027644
0.000251653
0.000230211
0.00021154
0.000195184
0.00018077
0.000167998
0.000156622
0.000146437
0.000137277
0.000129
0.000121491
0.00011465
0.000108396
0.000102656
9.73726e-05
9.24933e-05
8.79744e-05
8.37781e-05
7.98716e-05
7.62263e-05
7.28174e-05
6.9623e-05
6.6624e-05
6.38034e-05
6.11461e-05
5.86389e-05
5.62699e-05
5.40282e-05
5.19044e-05
4.98898e-05
4.79765e-05
4.61576e-05
4.44265e-05
4.27773e-05
4.12048e-05
3.9704e-05
3.82705e-05
3.69e-05
3.55887e-05
3.43333e-05
3.31303e-05
3.19769e-05
3.08701e-05
2.98075e-05
2.87867e-05
2.78053e-05
2.68613e-05
2.59527e-05
2.50778e-05
2.42348e-05
2.34222e-05
2.26384e-05
2.18821e-05
2.11519e-05
2.04466e-05
1.9765e-05
1.9106e-05
1.84687e-05
1.78521e-05
1.72551e-05
1.6677e-05
1.6117e-05
1.55742e-05
1.5048e-05
1.45376e-05
1.40424e-05
1.35618e-05
1.30951e-05
1.26419e-05
1.22016e-05
1.17736e-05
1.13576e-05
1.0953e-05
1.05594e-05
1.01764e-05
9.80364e-06
9.44069e-06
9.0872e-06
8.74284e-06
8.40727e-06
8.0802e-06
7.76131e-06
7.45032e-06
7.14697e-06
6.85098e-06
6.56212e-06
6.28014e-06
6.0048e-06
5.73591e-06
5.47324e-06
5.21658e-06
4.96574e-06
4.72056e-06
4.48084e-06
4.2464e-06
4.01709e-06
3.79276e-06
3.57324e-06
3.35839e-06
3.14807e-06
2.94214e-06
2.74049e-06
2.54297e-06
2.34947e-06
2.15988e-06
1.97407e-06
1.79195e-06
1.61341e-06
1.43834e-06
1.26666e-06
1.09826e-06
9.33064e-07
7.70975e-07
6.11914e-07
4.55802e-07
3.02559e-07
1.52107e-07
4.3697e-09
-1.40717e-07
-2.8322e-07
-4.23211e-07
-5.60755e-07
-6.95909e-07
-8.28731e-07
-9.59285e-07
-1.08763e-06
-1.21381e-06
-1.33788e-06
-1.4599e-06
-1.5799e-06
-1.69795e-06
-1.81409e-06
-1.92835e-06
-2.04079e-06
-2.15145e-06
-2.26037e-06
-2.36758e-06
-2.47313e-06
-2.57705e-06
-2.67938e-06
-2.78015e-06
-2.8794e-06
-2.97717e-06
-3.07349e-06
-3.16837e-06
-3.26186e-06
-3.35398e-06
-3.44476e-06
-3.53424e-06
-3.62244e-06
-3.70937e-06
-3.79508e-06
-3.87959e-06
-3.96291e-06
-4.04507e-06
-4.12611e-06
-4.20603e-06
-4.28485e-06
-4.36261e-06
-4.43931e-06
-4.51499e-06
-4.58965e-06
-4.66333e-06
-4.73603e-06
-4.80777e-06
-4.87858e-06
-4.94847e-06
-5.01745e-06
-5.08555e-06
-5.15278e-06
-5.21915e-06
-5.28468e-06
-5.34938e-06
-5.41326e-06
-5.47635e-06
-5.53865e-06
-5.60018e-06
-5.66095e-06
-5.72098e-06
-5.78027e-06
-5.83883e-06
-5.89669e-06
-5.95385e-06
-6.01033e-06
-6.06612e-06
-6.12125e-06
-6.17572e-06
-6.22954e-06
-6.28274e-06
-6.3353e-06
-6.38725e-06
-6.4386e-06
-6.48936e-06
-6.53952e-06
-6.58912e-06
-6.63814e-06
-6.68662e-06
-6.73455e-06
-6.78194e-06
-6.82881e-06
-6.87517e-06
-6.92102e-06
-6.96639e-06
-7.01128e-06
-7.05571e-06
-7.09969e-06
-7.14323e-06
-7.18634e-06
-7.22906e-06
-7.27137e-06
-7.3133e-06
-7.35488e-06
-7.39612e-06
-7.43703e-06
-7.47763e-06
-7.51794e-06
-7.55797e-06
-7.59775e-06
-7.6373e-06
-7.67663e-06
-7.71575e-06
-7.75469e-06
-7.79347e-06
-7.8321e-06
-7.8706e-06
-7.90899e-06
-7.94727e-06
-7.98547e-06
-8.0236e-06
-8.06167e-06
-8.09969e-06
-8.13767e-06
-8.17562e-06
-8.21356e-06
-8.25149e-06
-8.2894e-06
-8.32731e-06
-8.36523e-06
-8.40314e-06
-8.44106e-06
-8.47899e-06
-8.51692e-06
-8.55485e-06
-8.59278e-06
-8.6307e-06
-8.66861e-06
-8.70652e-06
-8.7444e-06
-8.78226e-06
-8.82009e-06
-8.85787e-06
-8.8956e-06
-8.93327e-06
-8.97088e-06
-9.00841e-06
-9.04586e-06
-9.08321e-06
-9.12047e-06
-9.1576e-06
-9.19462e-06
-9.2315e-06
-9.26823e-06
-9.30482e-06
-9.34124e-06
-9.37749e-06
-9.41356e-06
-9.44944e-06
-9.48511e-06
-9.52057e-06
-9.55581e-06
-9.59083e-06
-9.6256e-06
-9.66011e-06
-9.69437e-06
-9.72837e-06
-9.7621e-06
-9.79553e-06
-9.82868e-06
-9.86152e-06
-9.89405e-06
-9.92627e-06
-9.95816e-06
-9.98972e-06
-1.00209e-05
-1.00518e-05
-1.00823e-05
-1.01125e-05
-1.01423e-05
-1.01717e-05
-1.02007e-05
-1.02294e-05
-1.02576e-05
-1.02855e-05
-1.0313e-05
-1.03401e-05
-1.03667e-05
-1.0393e-05
-1.04188e-05
-1.04442e-05
-1.04692e-05
-1.04938e-05
-1.0518e-05
-1.05417e-05
-1.0565e-05
-1.05878e-05
-1.06103e-05
-1.06323e-05
-1.06539e-05
-1.0675e-05
-1.06957e-05
-1.0716e-05
-1.07358e-05
-1.07552e-05
-1.07742e-05
-1.07928e-05
-1.08109e-05
-1.08286e-05
-1.08459e-05
-1.08627e-05
-1.08792e-05
-1.08952e-05
-1.09108e-05
-1.0926e-05
-1.09407e-05
-1.09551e-05
-1.09691e-05
-1.09827e-05
-1.09958e-05
-1.10086e-05
-1.1021e-05
-1.10331e-05
-1.10447e-05
-1.10559e-05
-1.10668e-05
-1.10774e-05
-1.10875e-05
-1.10973e-05
-1.11068e-05
-1.11159e-05
-1.11247e-05
-1.11331e-05
-1.11413e-05
-1.11491e-05
-1.11565e-05
-1.11637e-05
-1.11705e-05
-1.11771e-05
-1.11834e-05
-1.11894e-05
-1.11951e-05
-1.12005e-05
-1.12057e-05
-1.12106e-05
-1.12152e-05
-1.12196e-05
-1.12238e-05
-1.12277e-05
-1.12315e-05
-1.1235e-05
-1.12382e-05
-1.12413e-05
-1.12442e-05
-1.12469e-05
-1.12494e-05
-1.12517e-05
-1.12539e-05
-1.12559e-05
-1.12577e-05
-1.12594e-05
-1.12609e-05
-1.12622e-05
-1.12635e-05
-1.12646e-05
-1.12656e-05
-1.12664e-05
-1.12672e-05
-1.12679e-05
-1.12684e-05
-1.12689e-05
-1.12694e-05
-1.12697e-05
-1.12701e-05
-1.12703e-05
-1.12706e-05
-1.12708e-05
-1.1271e-05
-1.12711e-05
-1.12712e-05
-1.12714e-05
-1.12715e-05
-1.12716e-05
-1.12717e-05
-1.12718e-05
-1.12718e-05
-1.12719e-05
-1.1272e-05
-1.12721e-05
-1.12721e-05
-1.12722e-05
-1.12723e-05
-1.12724e-05
-1.12724e-05
-1.12725e-05
-1.12726e-05
-1.12727e-05
-1.12727e-05
-1.12728e-05
-1.12729e-05
-1.1273e-05
-1.12731e-05
-1.12731e-05
-1.12732e-05
-1.12733e-05
-1.12734e-05
-1.12735e-05
-1.12735e-05
-1.12736e-05
-1.12737e-05
-1.12738e-05
-1.12738e-05
-1.12739e-05
-1.1274e-05
-1.12741e-05
-1.12742e-05
-1.12742e-05
-1.12743e-05
-1.12744e-05
-1.12745e-05
-1.12745e-05
-1.12746e-05
-1.12747e-05
-1.12748e-05
-1.12749e-05
-1.12749e-05
-1.1275e-05
-1.12751e-05
-1.12752e-05
-1.12752e-05
-1.12753e-05
-1.12754e-05
-1.12755e-05
-1.12756e-05
-1.12756e-05
-1.12757e-05
-1.12758e-05
-1.12759e-05
-1.1276e-05
-1.1276e-05
-1.12761e-05
-1.12762e-05
-1.12763e-05
-1.12763e-05
-1.12764e-05
-1.12765e-05
-1.12766e-05
-1.12767e-05
-1.12767e-05
-1.12768e-05
-1.12769e-05
-1.1277e-05
-1.12771e-05
-1.12771e-05
-1.12772e-05
-1.12773e-05
-1.12774e-05
-1.12775e-05
-1.12775e-05
-1.12776e-05
-1.12777e-05
-1.12778e-05
-1.12778e-05
-1.12779e-05
-1.1278e-05
-1.12781e-05
-1.12782e-05
-1.12782e-05
-1.12783e-05
-1.12784e-05
-1.12785e-05
-1.12786e-05
-1.12786e-05
-1.12787e-05
-1.12788e-05
-1.12789e-05
-1.12789e-05
-1.1279e-05
-1.12791e-05
-1.12792e-05
-1.12793e-05
-1.12793e-05
-1.12794e-05
-1.12795e-05
-1.12796e-05
-1.12797e-05
-1.12797e-05
-1.12798e-05
-1.12799e-05
-1.128e-05
-1.12801e-05
-1.12801e-05
-1.12802e-05
-1.12803e-05
-1.12804e-05
-1.12805e-05
-1.12805e-05
-1.12806e-05
-1.12807e-05
-1.12808e-05
-1.12808e-05
-1.12809e-05
-1.1281e-05
-1.12811e-05
-1.12812e-05
-1.12812e-05
-1.12813e-05
-1.12814e-05
-1.12815e-05
-1.12816e-05
-1.12816e-05
-1.12817e-05
-1.12818e-05
-1.12819e-05
-1.1282e-05
-1.1282e-05
-1.12821e-05
-1.12822e-05
-1.12823e-05
-1.12824e-05
-1.12824e-05
-1.12825e-05
-1.12826e-05
-1.12827e-05
-1.12828e-05
-1.12828e-05
-1.12829e-05
-1.1283e-05
-1.12831e-05
-1.12831e-05
-1.12832e-05
-1.12833e-05
-1.12834e-05
-1.12835e-05
-1.12835e-05
-1.12836e-05
-1.12837e-05
-1.12838e-05
-1.12839e-05
-1.12839e-05
-1.1284e-05
-1.12841e-05
-1.12842e-05
-1.12843e-05
-1.12843e-05
-1.12844e-05
-1.12845e-05
-1.12846e-05
-1.12847e-05
-1.12847e-05
-1.12848e-05
-1.12849e-05
-1.1285e-05
-1.12851e-05
-1.12851e-05
-1.12852e-05
-1.12853e-05
-1.12854e-05
-1.12855e-05
-1.12855e-05
-1.12856e-05
-1.12857e-05
-1.12858e-05
-1.12859e-05
-1.12859e-05
-1.1286e-05
-1.12861e-05
-1.12862e-05
-1.12863e-05
-1.12863e-05
-1.12864e-05
-1.12865e-05
-1.12866e-05
-1.12867e-05
-1.12867e-05
-1.12868e-05
-1.12869e-05
-1.1287e-05
-1.12871e-05
-1.12871e-05
-1.12872e-05
-1.12873e-05
-1.12874e-05
-1.12875e-05
-1.12875e-05
-1.12876e-05
-1.12877e-05
-1.12878e-05
-1.12879e-05
-1.12879e-05
-1.1288e-05
-1.12881e-05
-1.12882e-05
-1.12883e-05
-1.12883e-05
-1.12884e-05
-1.12885e-05
-1.12886e-05
-1.12887e-05
-1.12887e-05
-1.12888e-05
-1.12889e-05
-1.1289e-05
-1.12891e-05
-1.12891e-05
-1.12892e-05
-1.12893e-05
-1.12894e-05
-1.12895e-05
-1.12895e-05
-1.12896e-05
-1.12897e-05
-1.12898e-05
-1.12899e-05
-1.12899e-05