# vtk DataFile Version 2.0
FlowField
ASCII
DATASET STRUCTURED_GRID
DIMENSIONS 800 1 200
POINTS 160000 float
0 0 0
0.04 0 0
0.08 0 0
0.12 0 0
0.16 0 0
0.2 0 0
0.24 0 0
0.28 0 0
0.32 0 0
0.36 0 0
0.4 0 0
0.44 0 0
0.48 0 0
0.52 0 0
0.56 0 0
0.6 0 0
0.64 0 0
0.68 0 0
0.72 0 0
0.76 0 0
0.8 0 0
0.84 0 0
0.88 0 0
0.92 0 0
0.96 0 0
1 0 0
1.04 0 0
1.08 0 0
1.12 0 0
1.16 0 0
1.2 0 0
1.24 0 0
1.28 0 0
1.32 0 0
1.36 0 0
1.4 0 0
1.44 0 0
1.48 0 0
1.52 0 0
1.56 0 0
1.6 0 0
1.64 0 0
1.68 0 0
1.72 0 0
1.76 0 0
1.8 0 0
1.84 0 0
1.88 0 0
1.92 0 0
1.96 0 0
2 0 0
2.04 0 0
2.08 0 0
2.12 0 0
2.16 0 0
2.2 0 0
2.24 0 0
2.28 0 0
2.32 0 0
2.36 0 0
2.4 0 0
2.44 0 0
2.48 0 0
2.52 0 0
2.56 0 0
2.6 0 0
2.64 0 0
2.68 0 0
2.72 0 0
2.76 0 0
2.8 0 0
2.84 0 0
2.88 0 0
2.92 0 0
2.96 0 0
3 0 0
3.04 0 0
3.08 0 0
3.12 0 0
3.16 0 0
3.2 0 0
3.24 0 0
3.28 0 0
3.32 0 0
3.36 0 0
3.4 0 0
3.44 0 0
3.48 0 0
3.52 0 0
3.56 0 0
3.6 0 0
3.64 0 0
3.68 0 0
3.72 0 0
3.76 0 0
3.8 0 0
3.84 0 0
3.88 0 0
3.92 0 0
3.96 0 0
4 0 0
4.04 0 0
4.08 0 0
4.12 0 0
4.16 0 0
4.2 0 0
4.24 0 0
4.28 0 0
4.32 0 0
4.36 0 0
4.4 0 0
4.44 0 0
4.48 0 0
4.52 0 0
4.56 0 0
4.6 0 0
4.64 0 0
4.68 0 0
4.72 0 0
4.76 0 0
4.8 0 0
4.84 0 0
4.88 0 0
4.92 0 0
4.96 0 0
5 0 0
5.04 0 0
5.08 0 0
5.12 0 0
5.16 0 0
5.2 0 0
5.24 0 0
5.28 0 0
5.32 0 0
5.36 0 0
5.4 0 0
5.44 0 0
5.48 0 0
5.52 0 0
5.56 0 0
5.6 0 0
5.64 0 0
5.68 0 0
5.72 0 0
5.76 0 0
5.8 0 0
5.84 0 0
5.88 0 0
5.92 0 0
5.96 0 0
6 0 0
6.04 0 0
6.08 0 0
6.12 0 0
6.16 0 0
6.2 0 0
6.24 0 0
6.28 0 0
6.32 0 0
6.36 0 0
6.4 0 0
6.44 0 0
6.48 0 0
6.52 0 0
6.56 0 0
6.6 0 0
6.64 0 0
6.68 0 0
6.72 0 0
6.76 0 0
6.8 0 0
6.84 0 0
6.88 0 0
6.92 0 0
6.96 0 0
7 0 0
7.04 0 0
7.08 0 0
7.12 0 0
7.16 0 0
7.2 0 0
7.24 0 0
7.28 0 0
7.32 0 0
7.36 0 0
7.4 0 0
7.44 0 0
7.48 0 0
7.52 0 0
7.56 0 0
7.6 0 0
7.64 0 0
7.68 0 0
7.72 0 0
7.76 0 0
7.8 0 0
7.84 0 0
7.88 0 0
7.92 0 0
7.96 0 0
8 0 0
8.04 0 0
8.08 0 0
8.12 0 0
8.16 0 0
8.2 0 0
8.24 0 0
8.28 0 0
8.32 0 0
8.36 0 0
8.4 0 0
8.44 0 0
8.48 0 0
8.52 0 0
8.56 0 0
8.6 0 0
8.64 0 0
8.68 0 0
8.72 0 0
8.76 0 0
8.8 0 0
8.84 0 0
8.88 0 0
8.92 0 0
8.96 0 0
9 0 0
9.04 0 0
9.08 0 0
9.12 0 0
9.16 0 0
9.2 0 0
9.24 0 0
9.28 0 0
9.32 0 0
9.36 0 0
9.4 0 0
9.44 0 0
9.48 0 0
9.52 0 0
9.56 0 0
9.6 0 0
9.64 0 0
9.68 0 0
9.72 0 0
9.76 0 0
9.8 0 0
9.84 0 0
9.88 0 0
9.92 0 0
9.96 0 0
10 0 0
10.04 0 0
10.08 0 0
10.12 0 0
10.16 0 0
10.2 0 0
10.24 0 0
10.28 0 0
10.32 0 0
10.36 0 0
10.4 0 0
10.44 0 0
10.48 0 0
10.52 0 0
10.56 0 0
10.6 0 0
10.64 0 0
10.68 0 0
10.72 0 0
10.76 0 0
10.8 0 0
10.84 0 0
10.88 0 0
10.92 0 0
10.96 0 0
11 0 0
11.04 0 0
11.08 0 0
11.12 0 0
11.16 0 0
11.2 0 0
11.24 0 0
11.28 0 0
11.32 0 0
11.36 0 0
11.4 0 0
11.44 0 0
11.48 0 0
11.52 0 0
11.56 0 0
11.6 0 0
11.64 0 0
11.68 0 0
11.72 0 0
11.76 0 0
11.8 0 0
11.84 0 0
11.88 0 0
11.92 0 0
11.96 0 0
12 0 0
12.04 0 0
12.08 0 0
12.12 0 0
12.16 0 0
12.2 0 0
12.24 0 0
12.28 0 0
12.32 0 0
12.36 0 0
12.4 0 0
12.44 0 0
12.48 0 0
12.52 0 0
12.56 0 0
12.6 0 0
12.64 0 0
12.68 0 0
12.72 0 0
12.76 0 0
12.8 0 0
12.84 0 0
12.88 0 0
12.92 0 0
12.96 0 0
13 0 0
13.04 0 0
13.08 0 0
13.12 0 0
13.16 0 0
13.2 0 0
13.24 0 0
13.28 0 0
13.32 0 0
13.36 0 0
13.4 0 0
13.44 0 0
13.48 0 0
13.52 0 0
13.56 0 0
13.6 0 0
13.64 0 0
13.68 0 0
13.72 0 0
13.76 0 0
13.8 0 0
13.84 0 0
13.88 0 0
13.92 0 0
13.96 0 0
14 0 0
14.04 0 0
14.08 0 0
14.12 0 0
14.16 0 0
14.2 0 0
14.24 0 0
14.28 0 0
14.32 0 0
14.36 0 0
14.4 0 0
14.44 0 0
14.48 0 0
14.52 0 0
14.56 0 0
14.6 0 0
14.64 0 0
14.68 0 0
14.72 0 0
14.76 0 0
14.8 0 0
14.84 0 0
14.88 0 0
14.92 0 0
14.96 0 0
15 0 0
15.04 0 0
15.08 0 0
15.12 0 0
15.16 0 0
15.2 0 0
15.24 0 0
15.28 0 0
15.32 0 0
15.36 0 0
15.4 0 0
15.44 0 0
15.48 0 0
15.52 0 0
15.56 0 0
15.6 0 0
15.64 0 0
15.68 0 0
15.72 0 0
15.76 0 0
15.8 0 0
15.84 0 0
15.88 0 0
15.92 0 0
15.96 0 0
16 0 0
16.04 0 0
16.08 0 0
16.12 0 0
16.16 0 0
16.2 0 0
16.24 0 0
16.28 0 0
16.32 0 0
16.36 0 0
16.4 0 0
16.44 0 0
16.48 0 0
16.52 0 0
16.56 0 0
16.6 0 0
16.64 0 0
16.68 0 0
16.72 0 0
16.76 0 0
16.8 0 0
16.84 0 0
16.88 0 0
16.92 0 0
16.96 0 0
17 0 0
17.04 0 0
17.08 0 0
17.12 0 0
17.16 0 0
17.2 0 0
17.24 0 0
17.28 0 0
17.32 0 0
17.36 0 0
17.4 0 0
17.44 0 0
17.48 0 0
17.52 0 0
17.56 0 0
17.6 0 0
17.64 0 0
17.68 0 0
17.72 0 0
17.76 0 0
17.8 0 0
17.84 0 0
17.88 0 0
17.92 0 0
17.96 0 0
18 0 0
18.04 0 0
18.08 0 0
18.12 0 0
18.16 0 0
18.2 0 0
18.24 0 0
18.28 0 0
18.32 0 0
18.36 0 0
18.4 0 0
18.44 0 0
18.48 0 0
18.52 0 0
18.56 0 0
18.6 0 0
18.64 0 0
18.68 0 0
18.72 0 0
18.76 0 0
18.8 0 0
18.84 0 0
18.88 0 0
18.92 0 0
18.96 0 0
19 0 0
19.04 0 0
19.08 0 0
19.12 0 0
19.16 0 0
19.2 0 0
19.24 0 0
19.28 0 0
19.32 0 0
19.36 0 0
19.4 0 0
19.44 0 0
19.48 0 0
19.52 0 0
19.56 0 0
19.6 0 0
19.64 0 0
19.68 0 0
19.72 0 0
19.76 0 0
19.8 0 0
19.84 0 0
19.88 0 0
19.92 0 0
19.96 0 0
20 0 0
20.04 0 0
20.08 0 0
20.12 0 0
20.16 0 0
20.2 0 0
20.24 0 0
20.28 0 0
20.32 0 0
20.36 0 0
20.4 0 0
20.44 0 0
20.48 0 0
20.52 0 0
20.56 0 0
20.6 0 0
20.64 0 0
20.68 0 0
20.72 0 0
20.76 0 0
20.8 0 0
20.84 0 0
20.88 0 0
20.92 0 0
20.96 0 0
21 0 0
21.04 0 0
21.08 0 0
21.12 0 0
21.16 0 0
21.2 0 0
21.24 0 0
21.28 0 0
21.32 0 0
21.36 0 0
21.4 0 0
21.44 0 0
21.48 0 0
21.52 0 0
21.56 0 0
21.6 0 0
21.64 0 0
21.68 0 0
21.72 0 0
21.76 0 0
21.8 0 0
21.84 0 0
21.88 0 0
21.92 0 0
21.96 0 0
22 0 0
22.04 0 0
22.08 0 0
22.12 0 0
22.16 0 0
22.2 0 0
22.24 0 0
22.28 0 0
22.32 0 0
22.36 0 0
22.4 0 0
22.44 0 0
22.48 0 0
22.52 0 0
22.56 0 0
22.6 0 0
22.64 0 0
22.68 0 0
22.72 0 0
22.76 0 0
22.8 0 0
22.84 0 0
22.88 0 0
22.92 0 0
22.96 0 0
23 0 0
23.04 0 0
23.08 0 0
23.12 0 0
23.16 0 0
23.2 0 0
23.24 0 0
23.28 0 0
23.32 0 0
23.36 0 0
23.4 0 0
23.44 0 0
23.48 0 0
23.52 0 0
23.56 0 0
23.6 0 0
23.64 0 0
23.68 0 0
23.72 0 0
23.76 0 0
23.8 0 0
23.84 0 0
23.88 0 0
23.92 0 0
23.96 0 0
24 0 0
24.04 0 0
24.08 0 0
24.12 0 0
24.16 0 0
24.2 0 0
24.24 0 0
24.28 0 0
24.32 0 0
24.36 0 0
24.4 0 0
24.44 0 0
24.48 0 0
24.52 0 0
24.56 0 0
24.6 0 0
24.64 0 0
24.68 0 0
24.72 0 0
24.76 0 0
24.8 0 0
24.84 0 0
24.88 0 0
24.92 0 0
24.96 0 0
25 0 0
25.04 0 0
25.08 0 0
25.12 0 0
25.16 0 0
25.2 0 0
25.24 0 0
25.28 0 0
25.32 0 0
25.36 0 0
25.4 0 0
25.44 0 0
25.48 0 0
25.52 0 0
25.56 0 0
25.6 0 0
25.64 0 0
25.68 0 0
25.72 0 0
25.76 0 0
25.8 0 0
25.84 0 0
25.88 0 0
25.92 0 0
25.96 0 0
26 0 0
26.04 0 0
26.08 0 0
26.12 0 0
26.16 0 0
26.2 0 0
26.24 0 0
26.28 0 0
26.32 0 0
26.36 0 0
26.4 0 0
26.44 0 0
26.48 0 0
26.52 0 0
26.56 0 0
26.6 0 0
26.64 0 0
26.68 0 0
26.72 0 0
26.76 0 0
26.8 0 0
26.84 0 0
26.88 0 0
26.92 0 0
26.96 0 0
27 0 0
27.04 0 0
27.08 0 0
27.12 0 0
27.16 0 0
27.2 0 0
27.24 0 0
27.28 0 0
27.32 0 0
27.36 0 0
27.4 0 0
27.44 0 0
27.48 0 0
27.52 0 0
27.56 0 0
27.6 0 0
27.64 0 0
27.68 0 0
27.72 0 0
27.76 0 0
27.8 0 0
27.84 0 0
27.88 0 0
27.92 0 0
27.96 0 0
28 0 0
28.04 0 0
28.08 0 0
28.12 0 0
28.16 0 0
28.2 0 0
28.24 0 0
28.28 0 0
28.32 0 0
28.36 0 0
28.4 0 0
28.44 0 0
28.48 0 0
28.52 0 0
28.56 0 0
28.6 0 0
28.64 0 0
28.68 0 0
28.72 0 0
28.76 0 0
28.8 0 0
28.84 0 0
28.88 0 0
28.92 0 0
28.96 0 0
29 0 0
29.04 0 0
29.08 0 0
29.12 0 0
29.16 0 0
29.2 0 0
29.24 0 0
29.28 0 0
29.32 0 0
29.36 0 0
29.4 0 0
29.44 0 0
29.48 0 0
29.52 0 0
29.56 0 0
29.6 0 0
29.64 0 0
29.68 0 0
29.72 0 0
29.76 0 0
29.8 0 0
29.84 0 0
29.88 0 0
29.92 0 0
29.96 0 0
30 0 0
30.04 0 0
30.08 0 0
30.12 0 0
30.16 0 0
30.2 0 0
30.24 0 0
30.28 0 0
30.32 0 0
30.36 0 0
30.4 0 0
30.44 0 0
30.48 0 0
30.52 0 0
30.56 0 0
30.6 0 0
30.64 0 0
30.68 0 0
30.72 0 0
30.76 0 0
30.8 0 0
30.84 0 0
30.88 0 0
30.92 0 0
30.96 0 0
31 0 0
31.04 0 0
31.08 0 0
31.12 0 0
31.16 0 0
31.2 0 0
31.24 0 0
31.28 0 0
31.32 0 0
31.36 0 0
31.4 0 0
31.44 0 0
31.48 0 0
31.52 0 0
31.56 0 0
31.6 0 0
31.64 0 0
31.68 0 0
31.72 0 0
31.76 0 0
31.8 0 0
31.84 0 0
31.88 0 0
31.92 0 0
31.96 0 0
0 0.005 0
0.04 0.005 0
0.08 0.005 0
0.12 0.005 0
0.16 0.005 0
0.2 0.005 0
0.24 0.005 0
0.28 0.005 0
0.32 0.005 0
0.36 0.005 0
0.4 0.005 0
0.44 0.005 0
0.48 0.005 0
0.52 0.005 0
0.56 0.005 0
0.6 0.005 0
0.64 0.005 0
0.68 0.005 0
0.72 0.005 0
0.76 0.005 0
0.8 0.005 0
0.84 0.005 0
0.88 0.005 0
0.92 0.005 0
0.96 0.005 0
1 0.005 0
1.04 0.005 0
1.08 0.005 0
1.12 0.005 0
1.16 0.005 0
1.2 0.005 0
1.24 0.005 0
1.28 0.005 0
1.32 0.005 0
1.36 0.005 0
1.4 0.005 0
1.44 0.005 0
1.48 0.005 0
1.52 0.005 0
1.56 0.005 0
1.6 0.005 0
1.64 0.005 0
1.68 0.005 0
1.72 0.005 0
1.76 0.005 0
1.8 0.005 0
1.84 0.005 0
1.88 0.005 0
1.92 0.005 0
1.96 0.005 0
2 0.005 0
2.04 0.005 0
2.08 0.005 0
2.12 0.005 0
2.16 0.005 0
2.2 0.005 0
2.24 0.005 0
2.28 0.005 0
2.32 0.005 0
2.36 0.005 0
2.4 0.005 0
2.44 0.005 0
2.48 0.005 0
2.52 0.005 0
2.56 0.005 0
2.6 0.005 0
2.64 0.005 0
2.68 0.005 0
2.72 0.005 0
2.76 0.005 0
2.8 0.005 0
2.84 0.005 0
2.88 0.005 0
2.92 0.005 0
2.96 0.005 0
3 0.005 0
3.04 0.005 0
3.08 0.005 0
3.12 0.005 0
3.16 0.005 0
3.2 0.005 0
3.24 0.005 0
3.28 0.005 0
3.32 0.005 0
3.36 0.005 0
3.4 0.005 0
3.44 0.005 0
3.48 0.005 0
3.52 0.005 0
3.56 0.005 0
3.6 0.005 0
3.64 0.005 0
3.68 0.005 0
3.72 0.005 0
3.76 0.005 0
3.8 0.005 0
3.84 0.005 0
3.88 0.005 0
3.92 0.005 0
3.96 0.005 0
4 0.005 0
4.04 0.005 0
4.08 0.005 0
4.12 0.005 0
4.16 0.005 0
4.2 0.005 0
4.24 0.005 0
4.28 0.005 0
4.32 0.005 0
4.36 0.005 0
4.4 0.005 0
4.44 0.005 0
4.48 0.005 0
4.52 0.005 0
4.56 0.005 0
4.6 0.005 0
4.64 0.005 0
4.68 0.005 0
4.72 0.005 0
4.76 0.005 0
4.8 0.005 0
4.84 0.005 0
4.88 0.005 0
4.92 0.005 0
4.96 0.005 0
5 0.005 0
5.04 0.005 0
5.08 0.005 0
5.12 0.005 0
5.16 0.005 0
5.2 0.005 0
5.24 0.005 0
5.28 0.005 0
5.32 0.005 0
5.36 0.005 0
5.4 0.005 0
5.44 0.005 0
5.48 0.005 0
5.52 0.005 0
5.56 0.005 0
5.6 0.005 0
5.64 0.005 0
5.68 0.005 0
5.72 0.005 0
5.76 0.005 0
5.8 0.005 0
5.84 0.005 0
5.88 0.005 0
5.92 0.005 0
5.96 0.005 0
6 0.005 0
6.04 0.005 0
6.08 0.005 0
6.12 0.005 0
6.16 0.005 0
6.2 0.005 0
6.24 0.005 0
6.28 0.005 0
6.32 0.005 0
6.36 0.005 0
6.4 0.005 0
6.44 0.005 0
6.48 0.005 0
6.52 0.005 0
6.56 0.005 0
6.6 0.005 0
6.64 0.005 0
6.68 0.005 0
6.72 0.005 0
6.76 0.005 0
6.8 0.005 0
6.84 0.005 0
6.88 0.005 0
6.92 0.005 0
6.96 0.005 0
7 0.005 0
7.04 0.005 0
7.08 0.005 0
7.12 0.005 0
7.16 0.005 0
7.2 0.005 0
7.24 0.005 0
7.28 0.005 0
7.32 0.005 0
7.36 0.005 0
7.4 0.005 0
[...]
POINT_DATA 160000

SCALARS phi float 1
LOOKUP_TABLE default
1
1
1
1
1
1
1
1
1
1
1
1
1
1
1
1
1
1
1
1
1
1
1
1
1
1
1
1
1
1
1
1
1
1
1
0.999999
0.999999
0.999999
0.999999
0.999998
0.999997
0.999997
0.999995
0.999994
0.999992
0.99999
0.999988
0.999985
0.999982
0.999978
0.999973
0.999968
0.999961
0.999954
0.999946
0.999937
0.999926
0.999914
0.999901
0.999886
0.99987
0.999852
0.999832
0.99981
0.999786
0.99976
0.999731
0.9997
0.999667
0.999631
0.999592
0.99955
0.999505
0.999457
0.999406
0.999352
0.999294
0.999232
0.999167
0.999099
0.999026
0.998949
0.998869
0.998784
0.998695
0.998601
0.998504
0.998401
0.998294
0.998183
0.998066
0.997945
0.997819
0.997687
0.99755
0.997408
0.997259
0.997105
0.996946
0.996779
0.996606
0.996427
0.99624
0.996046
0.995843
0.995633
0.995413
0.995185
0.994946
0.994697
0.994436
0.994164
0.993878
0.99358
0.993266
0.992938
0.992593
0.99223
0.991849
0.991449
0.991027
0.990583
0.990116
0.989624
0.989106
0.988561
0.987987
0.987383
0.986747
0.986077
0.985374
0.984634
0.983857
0.98304
0.982184
0.981286
0.980345
0.979359
0.978327
0.977249
0.976122
0.974946
0.973719
0.97244
0.971108
0.969723
0.968283
0.966787
0.965235
0.963626
0.961959
0.960233
0.958449
0.956605
0.954701
0.952736
0.950711
0.948625
0.946479
0.944271
0.942002
0.939672
0.937281
0.934829
0.932317
0.929744
0.927111
0.924418
0.921666
0.918856
0.915987
0.91306
0.910077
0.907037
0.903941
0.90079
0.897585
0.894326
0.891015
0.887652
0.884238
0.880774
0.877261
0.8737
0.870092
0.866437
0.862737
0.858994
0.855207
0.851378
0.847508
0.843598
0.839649
0.835662
0.831639
0.82758
0.823486
0.819359
0.815199
0.811008
0.806787
0.802537
0.798258
0.793953
0.789621
0.785265
0.780885
0.776481
0.772056
0.767611
0.763145
0.758661
0.754158
0.749639
0.745105
0.740555
0.735991
0.731414
0.726825
0.722225
0.717615
0.712995
0.708366
0.70373
0.699087
0.694438
0.689783
0.685124
0.680461
0.675795
0.671127
0.666458
0.661788
0.657117
0.652448
0.647779
0.643113
0.638449
0.633788
0.629132
0.62448
0.619832
0.615191
0.610556
0.605927
0.601306
0.596692
0.592087
0.587491
0.582904
0.578327
0.57376
0.569203
0.564658
0.560125
0.555603
0.551094
0.546597
0.542114
0.537644
0.533188
0.528746
0.524318
0.519906
0.515509
0.511127
0.506761
0.502411
0.498077
0.49376
0.489459
0.485176
0.48091
0.476662
0.472432
0.468219
0.464025
0.459849
0.455691
0.451553
0.447433
0.443332
0.439251
0.435189
0.431147
0.427124
0.423121
0.419138
0.415175
0.411232
0.40731
0.403407
0.399526
0.395665
0.391824
0.388004
0.384205
0.380427
0.37667
0.372934
0.369218
0.365524
0.361851
0.358199
0.354568
0.350958
0.34737
0.343803
0.340257
0.336732
0.333228
0.329746
0.326285
0.322846
0.319427
0.31603
0.312655
0.3093
0.305967
0.302655
0.299364
0.296094
0.292845
0.289618
0.286411
0.283226
0.280061
0.276918
0.273795
0.270693
0.267612
0.264552
0.261512
0.258494
0.255495
0.252518
0.249561
0.246624
0.243708
0.240812
0.237936
0.23508
0.232245
0.22943
0.226635
0.223859
0.221104
0.218368
0.215652
0.212956
0.21028
0.207623
0.204985
0.202367
0.199768
0.197189
0.194628
0.192087
0.189565
0.187062
0.184577
0.182112
0.179665
0.177237
0.174828
0.172437
0.170065
0.167711
0.165375
0.163058
0.160759
0.158478
0.156215
0.153971
0.151744
0.149535
0.147344
0.145171
0.143015
0.140877
0.138757
0.136654
0.134569
0.132501
0.130451
0.128418
0.126402
0.124403
0.122422
0.120457
0.11851
0.11658
0.114666
0.11277
0.11089
0.109028
0.107182
0.105353
0.10354
0.101745
0.0999655
0.0982031
0.0964573
0.094728
0.0930152
0.0913189
0.0896391
0.0879757
0.0863287
0.0846981
0.0830838
0.0814859
0.0799043
0.0783389
0.0767899
0.075257
0.0737404
0.0722401
0.0707559
0.0692879
0.067836
0.0664003
0.0649808
0.0635774
0.06219
0.0608188
0.0594637
0.0581246
0.0568017
0.0554948
0.0542039
0.0529291
0.0516703
0.0504276
0.0492008
0.0479902
0.0467955
0.0456168
0.0444541
0.0433074
0.0421767
0.041062
0.0399633
0.0388805
0.0378138
0.0367629
0.0357281
0.0347091
0.0337062
0.0327191
0.031748
0.0307928
0.0298535
0.0289301
0.0280226
0.027131
0.0262552
0.0253953
0.0245513
0.023723
0.0229106
0.022114
0.0213331
0.020568
0.0198186
0.0190849
0.0183669
0.0176646
0.0169778
0.0163067
0.0156511
0.015011
0.0143864
0.0137772
0.0131834
0.0126049
0.0120417
0.0114937
0.0109609
0.0104432
0.00994044
0.00945265
0.00897971
0.00852154
0.00807805
0.00764913
0.00723468
0.00683458
0.00644872
0.00607696
0.00571916
0.00537519
0.00504489
0.00472809
0.00442462
0.00413431
0.00385695
0.00359234
0.00334028
0.00310053
0.00287285
0.00265701
0.00245273
0.00225975
0.00207779
0.00190654
0.00174571
0.00159497
0.00145401
0.00132247
0.00120002
0.0010863
0.000980944
0.00088359
0.000793863
0.000711388
0.000635787
0.000566682
0.000503696
0.000446458
0.000394598
0.000347755
0.000305575
0.000267715
0.000233841
0.000203632
0.000176781
0.000152994
0.000131993
0.000113515
9.73131e-05
8.31556e-05
7.08281e-05
6.0132e-05
5.08842e-05
4.29171e-05
3.6078e-05
3.02281e-05
2.52425e-05
2.10088e-05
1.74267e-05
1.44068e-05
1.18702e-05
9.74731e-06
7.97709e-06
6.50634e-06
5.28883e-06
4.28464e-06
3.45939e-06
2.78365e-06
2.23236e-06
1.7842e-06
1.42122e-06
1.12827e-06
8.92693e-07
7.03935e-07
5.5323e-07
4.33336e-07
3.38292e-07
2.63216e-07
2.0412e-07
1.57768e-07
1.21539e-07
9.33206e-08
7.14183e-08
5.44773e-08
4.14191e-08
3.13883e-08
2.37096e-08
1.78513e-08
1.33972e-08
1.00221e-08
7.47322e-09
5.5548e-09
4.11571e-09
3.03977e-09
2.23801e-09
1.64253e-09
1.20171e-09
8.76452e-10
6.37237e-10
4.61874e-10
3.33735e-10
2.40403e-10
1.72641e-10
1.236e-10
8.82206e-11
6.27771e-11
4.45367e-11
3.15012e-11
2.22142e-11
1.56184e-11
1.09483e-11
7.65193e-12
5.33225e-12
3.70485e-12
2.56659e-12
1.77286e-12
1.22104e-12
8.38539e-13
5.74201e-13
3.92063e-13
2.66933e-13
1.81222e-13
1.22683e-13
8.28181e-14
5.57497e-14
3.74231e-14
2.50507e-14
1.67221e-14
1.11315e-14
7.38947e-15
4.89189e-15
3.22959e-15
2.12632e-15
1.39613e-15
9.14208e-16
5.97019e-16
3.88831e-16
2.52561e-16
1.6361e-16
1.05705e-16
6.81127e-17
4.37734e-17
2.80575e-17
1.79368e-17
1.14368e-17
7.2733e-18
4.61349e-18
2.91879e-18
1.84186e-18
1.15929e-18
7.27805e-19
4.55753e-19
2.84668e-19
1.77357e-19
1.1022e-19
6.83245e-20
4.22478e-20
2.60583e-20
1.60327e-20
9.83983e-21
6.02413e-21
3.679e-21
2.24129e-21
1.36207e-21
8.25741e-22
4.99379e-22
3.01275e-22
1.8132e-22
1.08863e-22
6.52042e-23
3.89609e-23
2.32245e-23
1.38112e-23
8.19379e-24
4.84968e-24
2.86364e-24
1.68695e-24
9.91452e-25
5.81336e-25
3.40073e-25
1.98477e-25
1.1557e-25
6.71394e-26
3.89146e-26
2.25037e-26
1.29838e-26
7.47418e-27
4.29278e-27
2.45998e-27
1.40651e-27
8.02379e-28
4.56711e-28
2.59378e-28
1.46979e-28
8.31026e-29
4.68825e-29
2.63904e-29
1.48227e-29
8.30714e-30
4.64543e-30
2.5921e-30
1.44322e-30
8.01806e-31
4.44494e-31
2.45881e-31
1.35722e-31
7.47551e-32
4.10868e-32
2.2534e-32
1.23324e-32
6.73497e-33
3.67032e-33
1.99598e-33
1.08316e-33
5.86566e-34
3.16981e-34
1.70939e-34
9.19909e-35
4.94022e-35
2.64758e-35
1.41597e-35
7.55722e-36
4.02512e-36
2.13947e-36
1.13486e-36
6.00755e-37
3.17371e-37
1.67323e-37
8.8037e-38
4.62273e-38
2.42247e-38
1.26691e-38
6.61246e-39
3.44439e-39
1.7906e-39
9.29007e-40
4.81038e-40
2.48588e-40
1.28211e-40
6.59957e-41
3.39042e-41
1.73837e-41
8.8957e-42
4.54332e-42
2.31591e-42
1.17823e-42
5.98268e-43
3.03197e-43
1.53362e-43
7.74241e-44
3.90124e-44
1.962e-44
9.84847e-45
4.93414e-45
2.46735e-45
1.23148e-45
6.13484e-46
3.05043e-46
1.51392e-46
7.49946e-47
3.70804e-47
1.82999e-47
9.01452e-48
4.43231e-48
2.17527e-48
1.0656e-48
5.21039e-49
2.54301e-49
1.23888e-49
6.02437e-50
2.92416e-50
1.41677e-50
6.8518e-51
3.30767e-51
1.59387e-51
7.66648e-52
3.68092e-52
1.76415e-52
8.43981e-53
4.03044e-53
1.9213e-53
9.14242e-54
4.34264e-54
2.05909e-54
9.74599e-55
4.60477e-55
2.17182e-55
1.02252e-55
4.80572e-56
2.25467e-56
1.05595e-56
4.93684e-57
2.30407e-57
1.07346e-57
4.99256e-58
2.31797e-58
1.07433e-58
4.97076e-59
2.29592e-59
1.05863e-59
4.87291e-60
2.23917e-60
1.02718e-60
4.70393e-61
2.15049e-61
9.8147e-62
4.47177e-62
2.03398e-62
9.23588e-63
4.18676e-63
1.89472e-63
8.56014e-64
3.86083e-64
1.73855e-64
7.81082e-65
3.52147e-65
1.53539e-65
1.53539e-65
1
1
1
1
1
1
1
1
1
1
1
1
1
1
1
1
1
1
1
1
1
1
1
1
1
1
1
1
1
1
1
1
1
1
1
0.999999
0.999999
0.999999
0.999999
0.999998
0.999997
0.999997
0.999995
0.999994
0.999992
0.99999
0.999988
0.999985
0.999982
0.999978
0.999973
0.999968
0.999961
0.999954
0.999946
0.999937
0.999926
0.999914
0.999901
0.999886
0.99987
0.999852
0.999832
0.99981
0.999786
0.99976
0.999731
0.9997
0.999667
0.999631
0.999592
0.99955
0.999505
0.999457
0.999406
0.999352
0.999294
0.999232
0.999167
0.999099
0.999026
0.998949
0.998869
0.998784
0.998695
0.998601
0.998504
0.998401
0.998294
0.998183
0.998066
0.997945
0.997819
0.997687
0.99755
0.997408
0.997259
0.997105
0.996946
0.996779
0.996606
0.996427
0.99624
0.996046
0.995843
0.995633
0.995413
0.995185
0.994946
0.994697
0.994436
0.994164
0.993878
0.99358
0.993266
0.992938
0.992593
0.99223
0.991849
0.991449
0.991027
0.990583
0.990116
0.989624
0.989106
0.988561
0.987987
0.987383
0.986747
0.986077
0.985374
0.984634
0.983857
0.98304
0.982184
0.981286
0.980345
0.979359
0.978327
0.977249
0.976122
0.974946
0.973719
0.97244
0.971108
0.969723
0.968283
0.966787
0.965235
0.963626
0.961959
0.960233
0.958449
0.956605
0.954701
0.952736
0.950711
0.948625
0.946479
0.944271
0.942002
0.939672
0.937281
0.934829
0.932317
0.929744
0.927111
0.924418
0.921666
0.918856
0.915987
0.91306
0.910077
0.907037
0.903941
0.90079
0.897585
0.894326
0.891015
0.887652
0.884238
0.880774
0.877261
0.8737
0.870092
0.866437
0.862737
0.858994
0.855207
0.851378
0.847508
0.843598
0.839649
0.835662
0.831639
0.82758
0.823486
0.819359
0.815199
0.811008
0.806787
0.802537
0.798258
0.793953
0.789621
0.785265
0.780885
0.776481
0.772056
0.767611
0.763145
0.758661
0.754158
0.749639
0.745105
0.740555
0.735991
0.731414
0.726825
0.722225
0.717615
0.712995
0.708366
0.70373
0.699087
0.694438
0.689783
0.685124
0.680461
0.675795
0.671127
0.666458
0.661788
0.657117
0.652448
0.647779
0.643113
0.638449
0.633788
0.629132
0.62448
0.619832
0.615191
0.610556
0.605927
0.601306
0.596692
0.592087
0.587491
0.582904
0.578327
0.57376
0.569203
0.564658
0.560125
0.555603
0.551094
0.546597
0.542114
0.537644
0.533188
0.528746
0.524318
0.519906
0.515509
0.511127
0.506761
0.502411
0.498077
0.49376
0.489459
0.485176
0.48091
0.476662
0.472432
0.468219
0.464025
0.459849
0.455691
0.451553
0.447433
0.443332
0.439251
0.435189
0.431147
0.427124
0.423121
0.419138
0.415175
0.411232
0.40731
0.403407
0.399526
0.395665
0.391824
0.388004
0.384205
0.380427
0.37667
0.372934
0.369218
0.365524
0.361851
0.358199
0.354568
0.350958
0.34737
0.343803
0.340257
0.336732
0.333228
0.329746
0.326285
0.322846
0.319427
0.31603
0.312655
0.3093
0.305967
0.302655
0.299364
0.296094
0.292845
0.289618
0.286411
0.283226
0.280061
0.276918
0.273795
0.270693
0.267612
0.264552
0.261512
0.258494
0.255495
0.252518
0.249561
0.246624
0.243708
0.240812
0.237936
0.23508
0.232245
0.22943
0.226635
0.223859
0.221104
0.218368
0.215652
0.212956
0.21028
0.207623
0.204985
0.202367
0.199768
0.197189
0.194628
0.192087
0.189565
0.187062
0.184577
0.182112
0.179665
0.177237
0.174828
0.172437
0.170065
0.167711
0.165375
0.163058
0.160759
0.158478
0.156215
0.153971
0.151744
0.149535
0.147344
0.145171
0.143015
0.140877
0.138757
0.136654
0.134569
0.132501
0.130451
0.128418
0.126402
0.124403
0.122422
0.120457
0.11851
0.11658
0.114666
0.11277
0.11089
0.109028
0.107182
0.105353
0.10354
0.101745
0.0999655
0.0982031
0.0964573
0.094728
0.0930152
0.0913189
0.0896391
0.0879757
0.0863287
0.0846981
0.0830838
0.0814859
0.0799043
0.0783389
0.0767899
0.075257
0.0737404
0.0722401
0.0707559
0.0692879
0.067836
0.0664003
0.0649808
0.0635774
0.06219
0.0608188
0.0594637
0.0581246
0.0568017
0.0554948
0.0542039
0.0529291
0.0516703
0.0504276
0.0492008
0.0479902
0.0467955
0.0456168
0.0444541
0.0433074
0.0421767
0.041062
0.0399633
0.0388805
0.0378138
0.0367629
0.0357281
0.0347091
0.0337062
0.0327191
0.031748
0.0307928
0.0298535
0.0289301
0.0280226
0.027131
0.0262552
0.0253953
0.0245513
0.023723
0.0229106
0.022114
0.0213331
0.020568
0.0198186
0.0190849
0.0183669
0.0176646
0.0169778
0.0163067
0.0156511
0.015011
0.0143864
0.0137772
0.0131834
0.0126049
0.0120417
0.0114937
0.0109609
0.0104432
0.00994044
0.00945265
0.00897971
0.00852154
0.00807805
0.00764913
0.00723468
0.00683458
0.00644872
0.00607696
0.00571916
0.00537519
0.00504489
0.00472809
0.00442462
0.00413431
0.00385695
0.00359234
0.00334028
0.00310053
0.00287285
0.00265701
0.00245273
0.00225975
0.00207779
0.00190654
0.00174571
0.00159497
0.00145401
0.00132247
0.00120002
0.0010863
0.000980944
0.00088359
0.000793863
0.000711388
0.000635787
0.000566682
0.000503696
0.000446458
0.000394598
0.000347755
0.000305575
0.000267715
0.000233841
0.000203632
0.000176781
0.000152994
0.000131993
0.000113515
9.73131e-05
8.31556e-05
7.08281e-05
6.0132e-05
5.08842e-05
4.29171e-05
3.6078e-05
3.02281e-05
2.52425e-05
2.10088e-05
1.74267e-05
1.44068e-05
1.18702e-05
9.74731e-06
7.97709e-06
6.50634e-06
5.28883e-06
4.28464e-06
3.45939e-06
2.78365e-06
2.23236e-06
1.7842e-06
1.42122e-06
1.12827e-06
8.92693e-07
7.03935e-07
5.5323e-07
4.33336e-07
3.38292e-07
2.63216e-07
2.0412e-07
1.57768e-07
1.21539e-07
9.33206e-08
7.14183e-08
5.44773e-08
4.14191e-08
3.13883e-08
2.37096e-08
1.78513e-08
1.33972e-08
1.00221e-08
7.47322e-09
5.5548e-09
4.11571e-09
3.03977e-09
2.23801e-09
1.64253e-09
1.20171e-09
8.76452e-10
6.37237e-10
4.61874e-10
3.33735e-10
2.40403e-10
1.72641e-10
1.236e-10
8.82206e-11
6.27771e-11
4.45367e-11
3.15012e-11
2.22142e-11
1.56184e-11
1.09483e-11
7.65193e-12
5.33225e-12
3.70485e-12
2.56659e-12
1.77286e-12
1.22104e-12
8.38539e-13
5.74201e-13
3.92063e-13
2.66933e-13
1.81222e-13
1.22683e-13
8.28181e-14
5.57497e-14
3.74231e-14
2.50507e-14
1.67221e-14
1.11315e-14
7.38947e-15
4.89189e-15
3.22959e-15
2.12632e-15
1.39613e-15
9.14208e-16
5.97019e-16
3.88831e-16
2.52561e-16
1.6361e-16
1.05705e-16
6.81127e-17
4.37734e-17
2.80575e-17
1.79368e-17
1.14368e-17
7.2733e-18
4.61349e-18
2.91879e-18
1.84186e-18
1.15929e-18
7.27805e-19
4.55753e-19
2.84668e-19
1.77357e-19
1.1022e-19
6.83245e-20
4.22478e-20
2.60583e-20
1.60327e-20
9.83983e-21
6.02413e-21
3.679e-21
2.24129e-21
1.36207e-21
8.25741e-22
4.99379e-22
3.01275e-22
1.8132e-22
1.08863e-22
6.52042e-23
3.89609e-23
2.32245e-23
1.38112e-23
8.19379e-24
4.84968e-24
2.86364e-24
1.68695e-24
9.91452e-25
5.81336e-25
3.40073e-25
1.98477e-25
1.1557e-25
6.71394e-26
3.89146e-26
2.25037e-26
1.29838e-26
7.47418e-27
4.29278e-27
2.45998e-27
1.40651e-27
8.02379e-28
4.56711e-28
2.59378e-28
1.46979e-28
8.31026e-29
4.68825e-29
2.63904e-29
1.48227e-29
8.30714e-30
4.64543e-30
2.5921e-30
1.44322e-30
8.01806e-31
4.44494e-31
2.45881e-31
1.35722e-31
7.47551e-32
4.10868e-32
2.2534e-32
1.23324e-32
6.73497e-33
3.67032e-33
1.99598e-33
1.08316e-33
5.86566e-34
3.16981e-34
1.70939e-34
9.19909e-35
4.94022e-35
2.64758e-35
1.41597e-35
7.55722e-36
4.02512e-36
2.13947e-36
1.13486e-36
6.00755e-37
3.17371e-37
1.67323e-37
8.8037e-38
4.62273e-38
2.42247e-38
1.26691e-38
6.61246e-39
3.44439e-39
1.7906e-39
9.29007e-40
4.81038e-40
2.48588e-40
1.28211e-40
6.59957e-41
3.39042e-41
1.73837e-41
8.8957e-42
4.54332e-42
2.31591e-42
1.17823e-42
5.98268e-43
3.03197e-43
1.53362e-43
7.74241e-44
3.90124e-44
1.962e-44
9.84847e-45
4.93414e-45
2.46735e-45
1.23148e-45
6.13484e-46
3.05043e-46
1.51392e-46
7.49946e-47
3.70804e-47
1.82999e-47
9.01452e-48
4.43231e-48
2.17527e-48
1.0656e-48
5.21039e-49
2.54301e-49
1.23888e-49
6.02437e-50
2.92416e-50
1.41677e-50
6.8518e-51
3.30767e-51
1.59387e-51
7.66648e-52
3.68092e-52
1.76415e-52
8.43981e-53
4.03044e-53
1.9213e-53
9.14242e-54
4.34264e-54
2.05909e-54
9.74599e-55
4.60477e-55
2.17182e-55
1.02252e-55
4.80572e-56
2.25467e-56
1.05595e-56
4.93684e-57
2.30407e-57
1.07346e-57
4.99256e-58
2.31797e-58
1.07433e-58
4.97076e-59
2.29592e-59
1.05863e-59
4.87291e-60
2.23917e-60
1.02718e-60
4.70393e-61
2.15049e-61
9.8147e-62
4.47177e-62
2.03398e-62
9.23588e-63
4.18676e-63
1.89472e-63
8.56014e-64
3.86083e-64
1.73855e-64
7.81082e-65
3.52147e-65
1.53539e-65
1.53539e-65
1
1
1
1
1
1
1
1
1
1
1
1
1
1
1
1
1
1
1
1
1
1
1
1
1
1
1
1
1
1
1
1
1
1
1
0.999999
0.999999
0.999999
0.999999
0.999998
0.999997
0.999997
0.999995
0.999994
0.999992
0.99999
0.999988
0.999985
0.999982
0.999978
0.999973
0.999968
0.999961
0.999954
0.999946
0.999937
0.999926
0.999914
0.999901
0.999886
0.99987
0.999852
0.999832
0.99981
0.999786
0.99976
0.999731
0.9997
0.999667
0.999631
0.999592
0.99955
0.999505
0.999457
0.999406
0.999352
0.999294
0.999232
0.999167
0.999098
0.999026
0.998949
0.998868
0.998784
0.998694
0.998601
0.998503
0.998401
0.998294
0.998182
0.998066
0.997945
0.997818
0.997687
0.99755
0.997407
0.997259
0.997105
0.996945
0.996779
0.996606
0.996427
0.99624
0.996046
0.995844
0.995633
0.995414
0.995186
0.994947
0.994698
0.994438
0.994166
0.993881
0.993583
0.993271
0.992943
0.992598
0.992237
0.991857
0.991457
0.991037
0.990594
0.990128
0.989638
0.989121
0.988578
0.988005
0.987403
0.986769
0.986102
0.9854
0.984663
0.983888
0.983075
0.982221
0.981326
0.980388
0.979406
0.978377
0.977302
0.976179
0.975007
0.973784
0.972509
0.971182
0.969801
0.968366
0.966875
0.965327
0.963723
0.962061
0.96034
0.958561
0.956722
0.954824
0.952865
0.950845
0.948765
0.946624
0.944422
0.942159
0.939835
0.937451
0.935005
0.932498
0.929932
0.927305
0.924619
0.921874
0.919069
0.916207
0.913287
0.910309
0.907276
0.904186
0.901042
0.897843
0.894591
0.891286
0.887929
0.884522
0.881064
0.877557
0.874002
0.8704
0.866752
0.863058
0.859321
0.85554
0.851717
0.847853
0.843948
0.840005
0.836024
0.832007
0.827953
0.823865
0.819743
0.815589
0.811403
0.807188
0.802942
0.798669
0.794368
0.790042
0.78569
0.781315
0.776916
0.772496
0.768055
0.763593
0.759113
0.754615
0.750101
0.74557
0.741024
0.736464
0.731891
0.727306
0.72271
0.718103
0.713486
0.708861
0.704228
0.699588
0.694942
0.690291
0.685634
0.680975
0.676312
0.671646
0.666979
0.662312
0.657644
0.652977
0.648311
0.643646
0.638985
0.634326
0.629672
0.625021
0.620376
0.615736
0.611103
0.606476
0.601856
0.597244
0.59264
0.588045
0.58346
0.578884
0.574318
0.569762
0.565218
0.560686
0.556165
0.551656
0.547161
0.542678
0.538209
0.533753
0.529312
0.524885
0.520473
0.516076
0.511694
0.507328
0.502979
0.498645
0.494328
0.490028
0.485744
0.481478
0.47723
0.472999
0.468787
0.464592
0.460416
0.456258
0.452119
0.447999
0.443898
0.439816
0.435753
0.43171
0.427687
0.423683
0.4197
0.415736
0.411792
0.407869
0.403966
0.400084
0.396221
0.39238
0.388559
0.384759
0.38098
0.377222
0.373484
0.369768
0.366072
0.362398
0.358745
0.355113
0.351502
0.347912
0.344344
0.340796
0.33727
0.333765
0.330282
0.32682
0.323379
0.319959
0.31656
0.313183
0.309827
0.306492
0.303178
0.299886
0.296614
0.293364
0.290135
0.286927
0.28374
0.280574
0.277428
0.274304
0.2712
0.268118
0.265056
0.262015
0.258994
0.255994
0.253015
0.250056
0.247117
0.244199
0.241301
0.238424
0.235566
0.232729
0.229912
0.227115
0.224338
0.22158
0.218843
0.216125
0.213427
0.210749
0.20809
0.20545
0.20283
0.200229
0.197648
0.195085
0.192542
0.190018
0.187513
0.185027
0.182559
0.18011
0.17768
0.175269
0.172876
0.170502
0.168146
0.165808
0.163489
0.161188
0.158905
0.15664
0.154393
0.152164
0.149953
0.14776
0.145585
0.143427
0.141287
0.139165
0.13706
0.134972
0.132902
0.13085
0.128814
0.126796
0.124795
0.122812
0.120845
0.118896
0.116963
0.115047
0.113149
0.111267
0.109402
0.107554
0.105722
0.103908
0.102109
0.100328
0.0985633
0.0968151
0.0950834
0.0933682
0.0916694
0.0899872
0.0883213
0.0866719
0.0850388
0.083422
0.0818216
0.0802374
0.0786695
0.0771179
0.0755825
0.0740633
0.0725603
0.0710735
0.0696029
0.0681484
0.06671
0.0652878
0.0638816
0.0624916
0.0611176
0.0597597
0.0584179
0.0570921
0.0557824
0.0544887
0.053211
0.0519494
0.0507037
0.0494741
0.0482605
0.0470628
0.0458812
0.0447155
0.0435659
0.0424321
0.0413144
0.0402126
0.0391268
0.0380569
0.037003
0.035965
0.0349429
0.0339367
0.0329465
0.0319722
0.0310138
0.0300713
0.0291446
0.0282338
0.0273389
0.0264599
0.0255967
0.0247493
0.0239177
0.0231019
0.0223019
0.0215177
0.0207492
0.0199964
0.0192593
0.0185378
0.017832
0.0171419
0.0164673
0.0158082
0.0151646
0.0145365
0.0139239
0.0133266
0.0127446
0.0121779
0.0116264
0.0110901
0.0105689
0.0100627
0.0095714
0.009095
0.00863336
0.00818642
0.00775406