# vtk DataFile Version 2.0
FlowField
ASCII
DATASET STRUCTURED_GRID
DIMENSIONS 800 1 200
POINTS 160000 float
0 0 0
0.04 0 0
0.08 0 0
0.12 0 0
0.16 0 0
0.2 0 0
0.24 0 0
0.28 0 0
0.32 0 0
0.36 0 0
0.4 0 0
0.44 0 0
0.48 0 0
0.52 0 0
0.56 0 0
0.6 0 0
0.64 0 0
0.68 0 0
0.72 0 0
0.76 0 0
0.8 0 0
0.84 0 0
0.88 0 0
0.92 0 0
0.96 0 0
1 0 0
1.04 0 0
1.08 0 0
1.12 0 0
1.16 0 0
1.2 0 0
1.24 0 0
1.28 0 0
1.32 0 0
1.36 0 0
1.4 0 0
1.44 0 0
1.48 0 0
1.52 0 0
1.56 0 0
1.6 0 0
1.64 0 0
1.68 0 0
1.72 0 0
1.76 0 0
1.8 0 0
1.84 0 0
1.88 0 0
1.92 0 0
1.96 0 0
2 0 0
2.04 0 0
2.08 0 0
2.12 0 0
2.16 0 0
2.2 0 0
2.24 0 0
2.28 0 0
2.32 0 0
2.36 0 0
2.4 0 0
2.44 0 0
2.48 0 0
2.52 0 0
2.56 0 0
2.6 0 0
2.64 0 0
2.68 0 0
2.72 0 0
2.76 0 0
2.8 0 0
2.84 0 0
2.88 0 0
2.92 0 0
2.96 0 0
3 0 0
3.04 0 0
3.08 0 0
3.12 0 0
3.16 0 0
3.2 0 0
3.24 0 0
3.28 0 0
3.32 0 0
3.36 0 0
3.4 0 0
3.44 0 0
3.48 0 0
3.52 0 0
3.56 0 0
3.6 0 0
3.64 0 0
3.68 0 0
3.72 0 0
3.76 0 0
3.8 0 0
3.84 0 0
3.88 0 0
3.92 0 0
3.96 0 0
4 0 0
4.04 0 0
4.08 0 0
4.12 0 0
4.16 0 0
4.2 0 0
4.24 0 0
4.28 0 0
4.32 0 0
4.36 0 0
4.4 0 0
4.44 0 0
4.48 0 0
4.52 0 0
4.56 0 0
4.6 0 0
4.64 0 0
4.68 0 0
4.72 0 0
4.76 0 0
4.8 0 0
4.84 0 0
4.88 0 0
4.92 0 0
4.96 0 0
5 0 0
5.04 0 0
5.08 0 0
5.12 0 0
5.16 0 0
5.2 0 0
5.24 0 0
5.28 0 0
5.32 0 0
5.36 0 0
5.4 0 0
5.44 0 0
5.48 0 0
5.52 0 0
5.56 0 0
5.6 0 0
5.64 0 0
5.68 0 0
5.72 0 0
5.76 0 0
5.8 0 0
5.84 0 0
5.88 0 0
5.92 0 0
5.96 0 0
6 0 0
6.04 0 0
6.08 0 0
6.12 0 0
6.16 0 0
6.2 0 0
6.24 0 0
6.28 0 0
6.32 0 0
6.36 0 0
6.4 0 0
6.44 0 0
6.48 0 0
6.52 0 0
6.56 0 0
6.6 0 0
6.64 0 0
6.68 0 0
6.72 0 0
6.76 0 0
6.8 0 0
6.84 0 0
6.88 0 0
6.92 0 0
6.96 0 0
7 0 0
7.04 0 0
7.08 0 0
7.12 0 0
7.16 0 0
7.2 0 0
7.24 0 0
7.28 0 0
7.32 0 0
7.36 0 0
7.4 0 0
7.44 0 0
7.48 0 0
7.52 0 0
7.56 0 0
7.6 0 0
7.64 0 0
7.68 0 0
7.72 0 0
7.76 0 0
7.8 0 0
7.84 0 0
7.88 0 0
7.92 0 0
7.96 0 0
8 0 0
8.04 0 0
8.08 0 0
8.12 0 0
8.16 0 0
8.2 0 0
8.24 0 0
8.28 0 0
8.32 0 0
8.36 0 0
8.4 0 0
8.44 0 0
8.48 0 0
8.52 0 0
8.56 0 0
8.6 0 0
8.64 0 0
8.68 0 0
8.72 0 0
8.76 0 0
8.8 0 0
8.84 0 0
8.88 0 0
8.92 0 0
8.96 0 0
9 0 0
9.04 0 0
9.08 0 0
9.12 0 0
9.16 0 0
9.2 0 0
9.24 0 0
9.28 0 0
9.32 0 0
9.36 0 0
9.4 0 0
9.44 0 0
9.48 0 0
9.52 0 0
9.56 0 0
9.6 0 0
9.64 0 0
9.68 0 0
9.72 0 0
9.76 0 0
9.8 0 0
9.84 0 0
9.88 0 0
9.92 0 0
9.96 0 0
10 0 0
10.04 0 0
10.08 0 0
10.12 0 0
10.16 0 0
10.2 0 0
10.24 0 0
10.28 0 0
10.32 0 0
10.36 0 0
10.4 0 0
10.44 0 0
10.48 0 0
10.52 0 0
10.56 0 0
10.6 0 0
10.64 0 0
10.68 0 0
10.72 0 0
10.76 0 0
10.8 0 0
10.84 0 0
10.88 0 0
10.92 0 0
10.96 0 0
11 0 0
11.04 0 0
11.08 0 0
11.12 0 0
11.16 0 0
11.2 0 0
11.24 0 0
11.28 0 0
11.32 0 0
11.36 0 0
11.4 0 0
11.44 0 0
11.48 0 0
11.52 0 0
11.56 0 0
11.6 0 0
11.64 0 0
11.68 0 0
11.72 0 0
11.76 0 0
11.8 0 0
11.84 0 0
11.88 0 0
11.92 0 0
11.96 0 0
12 0 0
12.04 0 0
12.08 0 0
12.12 0 0
12.16 0 0
12.2 0 0
12.24 0 0
12.28 0 0
12.32 0 0
12.36 0 0
12.4 0 0
12.44 0 0
12.48 0 0
12.52 0 0
12.56 0 0
12.6 0 0
12.64 0 0
12.68 0 0
12.72 0 0
12.76 0 0
12.8 0 0
12.84 0 0
12.88 0 0
12.92 0 0
12.96 0 0
13 0 0
13.04 0 0
13.08 0 0
13.12 0 0
13.16 0 0
13.2 0 0
13.24 0 0
13.28 0 0
13.32 0 0
13.36 0 0
13.4 0 0
13.44 0 0
13.48 0 0
13.52 0 0
13.56 0 0
13.6 0 0
13.64 0 0
13.68 0 0
13.72 0 0
13.76 0 0
13.8 0 0
13.84 0 0
13.88 0 0
13.92 0 0
13.96 0 0
14 0 0
14.04 0 0
14.08 0 0
14.12 0 0
14.16 0 0
14.2 0 0
14.24 0 0
14.28 0 0
14.32 0 0
14.36 0 0
14.4 0 0
14.44 0 0
14.48 0 0
14.52 0 0
14.56 0 0
14.6 0 0
14.64 0 0
14.68 0 0
14.72 0 0
14.76 0 0
14.8 0 0
14.84 0 0
14.88 0 0
14.92 0 0
14.96 0 0
15 0 0
15.04 0 0
15.08 0 0
15.12 0 0
15.16 0 0
15.2 0 0
15.24 0 0
15.28 0 0
15.32 0 0
15.36 0 0
15.4 0 0
15.44 0 0
15.48 0 0
15.52 0 0
15.56 0 0
15.6 0 0
15.64 0 0
15.68 0 0
15.72 0 0
15.76 0 0
15.8 0 0
15.84 0 0
15.88 0 0
15.92 0 0
15.96 0 0
16 0 0
16.04 0 0
16.08 0 0
16.12 0 0
16.16 0 0
16.2 0 0
16.24 0 0
16.28 0 0
16.32 0 0
16.36 0 0
16.4 0 0
16.44 0 0
16.48 0 0
16.52 0 0
16.56 0 0
16.6 0 0
16.64 0 0
16.68 0 0
16.72 0 0
16.76 0 0
16.8 0 0
16.84 0 0
16.88 0 0
16.92 0 0
16.96 0 0
17 0 0
17.04 0 0
17.08 0 0
17.12 0 0
17.16 0 0
17.2 0 0
17.24 0 0
17.28 0 0
17.32 0 0
17.36 0 0
17.4 0 0
17.44 0 0
17.48 0 0
17.52 0 0
17.56 0 0
17.6 0 0
17.64 0 0
17.68 0 0
17.72 0 0
17.76 0 0
17.8 0 0
17.84 0 0
17.88 0 0
17.92 0 0
17.96 0 0
18 0 0
18.04 0 0
18.08 0 0
18.12 0 0
18.16 0 0
18.2 0 0
18.24 0 0
18.28 0 0
18.32 0 0
18.36 0 0
18.4 0 0
18.44 0 0
18.48 0 0
18.52 0 0
18.56 0 0
18.6 0 0
18.64 0 0
18.68 0 0
18.72 0 0
18.76 0 0
18.8 0 0
18.84 0 0
18.88 0 0
18.92 0 0
18.96 0 0
19 0 0
19.04 0 0
19.08 0 0
19.12 0 0
19.16 0 0
19.2 0 0
19.24 0 0
19.28 0 0
19.32 0 0
19.36 0 0
19.4 0 0
19.44 0 0
19.48 0 0
19.52 0 0
19.56 0 0
19.6 0 0
19.64 0 0
19.68 0 0
19.72 0 0
19.76 0 0
19.8 0 0
19.84 0 0
19.88 0 0
19.92 0 0
19.96 0 0
20 0 0
20.04 0 0
20.08 0 0
20.12 0 0
20.16 0 0
20.2 0 0
20.24 0 0
20.28 0 0
20.32 0 0
20.36 0 0
20.4 0 0
20.44 0 0
20.48 0 0
20.52 0 0
20.56 0 0
20.6 0 0
20.64 0 0
20.68 0 0
20.72 0 0
20.76 0 0
20.8 0 0
20.84 0 0
20.88 0 0
20.92 0 0
20.96 0 0
21 0 0
21.04 0 0
21.08 0 0
21.12 0 0
21.16 0 0
21.2 0 0
21.24 0 0
21.28 0 0
21.32 0 0
21.36 0 0
21.4 0 0
21.44 0 0
21.48 0 0
21.52 0 0
21.56 0 0
21.6 0 0
21.64 0 0
21.68 0 0
21.72 0 0
21.76 0 0
21.8 0 0
21.84 0 0
21.88 0 0
21.92 0 0
21.96 0 0
22 0 0
22.04 0 0
22.08 0 0
22.12 0 0
22.16 0 0
22.2 0 0
22.24 0 0
22.28 0 0
22.32 0 0
22.36 0 0
22.4 0 0
22.44 0 0
22.48 0 0
22.52 0 0
22.56 0 0
22.6 0 0
22.64 0 0
22.68 0 0
22.72 0 0
22.76 0 0
22.8 0 0
22.84 0 0
22.88 0 0
22.92 0 0
22.96 0 0
23 0 0
23.04 0 0
23.08 0 0
23.12 0 0
23.16 0 0
23.2 0 0
23.24 0 0
23.28 0 0
23.32 0 0
23.36 0 0
23.4 0 0
23.44 0 0
23.48 0 0
23.52 0 0
23.56 0 0
23.6 0 0
23.64 0 0
23.68 0 0
23.72 0 0
23.76 0 0
23.8 0 0
23.84 0 0
23.88 0 0
23.92 0 0
23.96 0 0
24 0 0
24.04 0 0
24.08 0 0
24.12 0 0
24.16 0 0
24.2 0 0
24.24 0 0
24.28 0 0
24.32 0 0
24.36 0 0
24.4 0 0
24.44 0 0
24.48 0 0
24.52 0 0
24.56 0 0
24.6 0 0
24.64 0 0
24.68 0 0
24.72 0 0
24.76 0 0
24.8 0 0
24.84 0 0
24.88 0 0
24.92 0 0
24.96 0 0
25 0 0
25.04 0 0
25.08 0 0
25.12 0 0
25.16 0 0
25.2 0 0
25.24 0 0
25.28 0 0
25.32 0 0
25.36 0 0
25.4 0 0
25.44 0 0
25.48 0 0
25.52 0 0
25.56 0 0
25.6 0 0
25.64 0 0
25.68 0 0
25.72 0 0
25.76 0 0
25.8 0 0
25.84 0 0
25.88 0 0
25.92 0 0
25.96 0 0
26 0 0
26.04 0 0
26.08 0 0
26.12 0 0
26.16 0 0
26.2 0 0
26.24 0 0
26.28 0 0
26.32 0 0
26.36 0 0
26.4 0 0
26.44 0 0
26.48 0 0
26.52 0 0
26.56 0 0
26.6 0 0
26.64 0 0
26.68 0 0
26.72 0 0
26.76 0 0
26.8 0 0
26.84 0 0
26.88 0 0
26.92 0 0
26.96 0 0
27 0 0
27.04 0 0
27.08 0 0
27.12 0 0
27.16 0 0
27.2 0 0
27.24 0 0
27.28 0 0
27.32 0 0
27.36 0 0
27.4 0 0
27.44 0 0
27.48 0 0
27.52 0 0
27.56 0 0
27.6 0 0
27.64 0 0
27.68 0 0
27.72 0 0
27.76 0 0
27.8 0 0
27.84 0 0
27.88 0 0
27.92 0 0
27.96 0 0
28 0 0
28.04 0 0
28.08 0 0
28.12 0 0
28.16 0 0
28.2 0 0
28.24 0 0
28.28 0 0
28.32 0 0
28.36 0 0
28.4 0 0
28.44 0 0
28.48 0 0
28.52 0 0
28.56 0 0
28.6 0 0
28.64 0 0
28.68 0 0
28.72 0 0
28.76 0 0
28.8 0 0
28.84 0 0
28.88 0 0
28.92 0 0
28.96 0 0
29 0 0
29.04 0 0
29.08 0 0
29.12 0 0
29.16 0 0
29.2 0 0
29.24 0 0
29.28 0 0
29.32 0 0
29.36 0 0
29.4 0 0
29.44 0 0
29.48 0 0
29.52 0 0
29.56 0 0
29.6 0 0
29.64 0 0
29.68 0 0
29.72 0 0
29.76 0 0
29.8 0 0
29.84 0 0
29.88 0 0
29.92 0 0
29.96 0 0
30 0 0
30.04 0 0
30.08 0 0
30.12 0 0
30.16 0 0
30.2 0 0
30.24 0 0
30.28 0 0
30.32 0 0
30.36 0 0
30.4 0 0
30.44 0 0
30.48 0 0
30.52 0 0
30.56 0 0
30.6 0 0
30.64 0 0
30.68 0 0
30.72 0 0
30.76 0 0
30.8 0 0
30.84 0 0
30.88 0 0
30.92 0 0
30.96 0 0
31 0 0
31.04 0 0
31.08 0 0
31.12 0 0
31.16 0 0
31.2 0 0
31.24 0 0
31.28 0 0
31.32 0 0
31.36 0 0
31.4 0 0
31.44 0 0
31.48 0 0
31.52 0 0
31.56 0 0
31.6 0 0
31.64 0 0
31.68 0 0
31.72 0 0
31.76 0 0
31.8 0 0
31.84 0 0
31.88 0 0
31.92 0 0
31.96 0 0
0 0.005 0
0.04 0.005 0
0.08 0.005 0
0.12 0.005 0
0.16 0.005 0
0.2 0.005 0
0.24 0.005 0
0.28 0.005 0
0.32 0.005 0
0.36 0.005 0
0.4 0.005 0
0.44 0.005 0
0.48 0.005 0
0.52 0.005 0
0.56 0.005 0
0.6 0.005 0
0.64 0.005 0
0.68 0.005 0
0.72 0.005 0
0.76 0.005 0
0.8 0.005 0
0.84 0.005 0
0.88 0.005 0
0.92 0.005 0
0.96 0.005 0
1 0.005 0
1.04 0.005 0
1.08 0.005 0
1.12 0.005 0
1.16 0.005 0
1.2 0.005 0
1.24 0.005 0
1.28 0.005 0
1.32 0.005 0
1.36 0.005 0
1.4 0.005 0
1.44 0.005 0
1.48 0.005 0
1.52 0.005 0
1.56 0.005 0
1.6 0.005 0
1.64 0.005 0
1.68 0.005 0
1.72 0.005 0
1.76 0.005 0
1.8 0.005 0
1.84 0.005 0
1.88 0.005 0
1.92 0.005 0
1.96 0.005 0
2 0.005 0
2.04 0.005 0
2.08 0.005 0
2.12 0.005 0
2.16 0.005 0
2.2 0.005 0
2.24 0.005 0
2.28 0.005 0
2.32 0.005 0
2.36 0.005 0
2.4 0.005 0
2.44 0.005 0
2.48 0.005 0
2.52 0.005 0
2.56 0.005 0
2.6 0.005 0
2.64 0.005 0
2.68 0.005 0
2.72 0.005 0
2.76 0.005 0
2.8 0.005 0
2.84 0.005 0
2.88 0.005 0
2.92 0.005 0
2.96 0.005 0
3 0.005 0
3.04 0.005 0
3.08 0.005 0
3.12 0.005 0
3.16 0.005 0
3.2 0.005 0
3.24 0.005 0
3.28 0.005 0
3.32 0.005 0
3.36 0.005 0
3.4 0.005 0
3.44 0.005 0
3.48 0.005 0
3.52 0.005 0
3.56 0.005 0
3.6 0.005 0
3.64 0.005 0
3.68 0.005 0
3.72 0.005 0
3.76 0.005 0
3.8 0.005 0
3.84 0.005 0
3.88 0.005 0
3.92 0.005 0
3.96 0.005 0
4 0.005 0
4.04 0.005 0
4.08 0.005 0
4.12 0.005 0
4.16 0.005 0
4.2 0.005 0
4.24 0.005 0
4.28 0.005 0
4.32 0.005 0
4.36 0.005 0
4.4 0.005 0
4.44 0.005 0
4.48 0.005 0
4.52 0.005 0
4.56 0.005 0
4.6 0.005 0
4.64 0.005 0
4.68 0.005 0
4.72 0.005 0
4.76 0.005 0
4.8 0.005 0
4.84 0.005 0
4.88 0.005 0
4.92 0.005 0
4.96 0.005 0
5 0.005 0
5.04 0.005 0
5.08 0.005 0
5.12 0.005 0
5.16 0.005 0
5.2 0.005 0
5.24 0.005 0
5.28 0.005 0
5.32 0.005 0
5.36 0.005 0
5.4 0.005 0
5.44 0.005 0
5.48 0.005 0
5.52 0.005 0
5.56 0.005 0
5.6 0.005 0
5.64 0.005 0
5.68 0.005 0
5.72 0.005 0
5.76 0.005 0
5.8 0.005 0
5.84 0.005 0
5.88 0.005 0
5.92 0.005 0
5.96 0.005 0
6 0.005 0
6.04 0.005 0
6.08 0.005 0
6.12 0.005 0
6.16 0.005 0
6.2 0.005 0
6.24 0.005 0
6.28 0.005 0
6.32 0.005 0
6.36 0.005 0
6.4 0.005 0
6.44 0.005 0
6.48 0.005 0
6.52 0.005 0
6.56 0.005 0
6.6 0.005 0
6.64 0.005 0
6.68 0.005 0
6.72 0.005 0
6.76 0.005 0
6.8 0.005 0
6.84 0.005 0
6.88 0.005 0
6.92 0.005 0
6.96 0.005 0
7 0.005 0
7.04 0.005 0
7.08 0.005 0
7.12 0.005 0
7.16 0.005 0
7.2 0.005 0
7.24 0.005 0
7.28 0.005 0
7.32 0.005 0
7.36 0.005 0
7.4 0.005 0
[...]
POINT_DATA 160000

SCALARS p float 1
LOOKUP_TABLE default
1
52.1556
49.9402
49.6853
49.6252
49.5988
49.5827
49.5711
49.5619
49.554
49.5471
49.5407
49.5349
49.5293
49.524
49.5189
49.5139
49.5091
49.5044
49.4997
49.4952
49.4907
49.4863
49.482
49.4777
49.4735
49.4694
49.4653
49.4612
49.4572
49.4532
49.4493
49.4454
49.4416
49.4378
49.434
49.4303
49.4267
49.423
49.4194
49.4159
49.4123
49.4089
49.4054
49.402
49.3986
49.3952
49.3919
49.3886
49.3853
49.382
49.3788
49.3756
49.3724
49.3693
49.3662
49.3631
49.36
49.3569
49.3539
49.3509
49.3479
49.3449
49.342
49.339
49.3361
49.3332
49.3304
49.3275
49.3247
49.3218
49.319
49.3162
49.3135
49.3107
49.308
49.3052
49.3025
49.2998
49.2971
49.2945
49.2918
49.2892
49.2865
49.2839
49.2813
49.2787
49.2762
49.2736
49.271
49.2685
49.266
49.2634
49.2609
49.2584
49.2559
49.2535
49.251
49.2485
49.2461
49.2437
49.2412
49.2388
49.2364
49.234
49.2316
49.2293
49.2269
49.2245
49.2222
49.2198
49.2175
49.2152
49.2128
49.2105
49.2082
49.2059
49.2037
49.2014
49.1991
49.1968
49.1946
49.1923
49.1901
49.1879
49.1856
49.1834
49.1812
49.179
49.1768
49.1746
49.1724
49.1702
49.168
49.1659
49.1637
49.1616
49.1594
49.1573
49.1551
49.153
49.1509
49.1488
49.1466
49.1445
49.1424
49.1403
49.1382
49.1361
49.1341
49.132
49.1299
49.1278
49.1258
49.1237
49.1217
49.1196
49.1176
49.1155
49.1135
49.1115
49.1095
49.1074
49.1054
49.1034
49.1014
49.0994
49.0974
49.0954
49.0934
49.0915
49.0895
49.0875
49.0855
49.0836
49.0816
49.0796
49.0777
49.0757
49.0738
49.0718
49.0699
49.068
49.066
49.0641
49.0622
49.0603
49.0583
49.0564
49.0545
49.0526
49.0507
49.0488
49.0469
49.045
49.0431
49.0412
49.0393
49.0375
49.0356
49.0337
49.0318
49.03
49.0281
49.0262
49.0244
49.0225
49.0207
49.0188
49.017
49.0151
49.0133
49.0114
49.0096
49.0078
49.0059
49.0041
49.0023
49.0004
48.9986
48.9968
48.995
48.9932
48.9914
48.9895
48.9877
48.9859
48.9841
48.9823
48.9805
48.9787
48.9769
48.9752
48.9734
48.9716
48.9698
48.968
48.9662
48.9645
48.9627
48.9609
48.9591
48.9574
48.9556
48.9538
48.9521
48.9503
48.9486
48.9468
48.9451
48.9433
48.9415
48.9398
48.9381
48.9363
48.9346
48.9328
48.9311
48.9293
48.9276
48.9259
48.9241
48.9224
48.9207
48.9189
48.9172
48.9155
48.9138
48.9121
48.9103
48.9086
48.9069
48.9052
48.9035
48.9018
48.9
48.8983
48.8966
48.8949
48.8932
48.8915
48.8898
48.8881
48.8864
48.8847
48.883
48.8813
48.8796
48.8779
48.8763
48.8746
48.8729
48.8712
48.8695
48.8678
48.8661
48.8645
48.8628
48.8611
48.8594
48.8577
48.8561
48.8544
48.8527
48.851
48.8494
48.8477
48.846
48.8444
48.8427
48.841
48.8394
48.8377
48.836
48.8344
48.8327
48.8311
48.8294
48.8277
48.8261
48.8244
48.8228
48.8211
48.8195
48.8178
48.8162
48.8145
48.8129
48.8112
48.8096
48.8079
48.8063
48.8046
48.803
48.8014
48.7997
48.7981
48.7964
48.7948
48.7932
48.7915
48.7899
48.7882
48.7866
48.785
48.7833
48.7817
48.7801
48.7784
48.7768
48.7752
48.7736
48.7719
48.7703
48.7687
48.767
48.7654
48.7638
48.7622
48.7605
48.7589
48.7573
48.7557
48.7541
48.7524
48.7508
48.7492
48.7476
48.746
48.7443
48.7427
48.7411
48.7395
48.7379
48.7363
48.7347
48.733
48.7314
48.7298
48.7282
48.7266
48.725
48.7234
48.7218
48.7202
48.7186
48.7169
48.7153
48.7137
48.7121
48.7105
48.7089
48.7073
48.7057
48.7041
48.7025
48.7009
48.6993
48.6977
48.6961
48.6945
48.6929
48.6913
48.6897
48.6881
48.6865
48.6849
48.6833
48.6817
48.6801
48.6785
48.6769
48.6753
48.6737
48.6721
48.6705
48.6689
48.6673
48.6658
48.6642
48.6626
48.661
48.6594
48.6578
48.6562
48.6546
48.653
48.6514
48.6498
48.6483
48.6467
48.6451
48.6435
48.6419
48.6403
48.6387
48.6371
48.6356
48.634
48.6324
48.6308
48.6292
48.6276
48.626
48.6245
48.6229
48.6213
48.6197
48.6181
48.6165
48.615
48.6134
48.6118
48.6102
48.6086
48.607
48.6055
48.6039
48.6023
48.6007
48.5991
48.5976
48.596
48.5944
48.5928
48.5913
48.5897
48.5881
48.5865
48.5849
48.5834
48.5818
48.5802
48.5786
48.5771
48.5755
48.5739
48.5723
48.5708
48.5692
48.5676
48.566
48.5645
48.5629
48.5613
48.5597
48.5582
48.5566
48.555
48.5534
48.5519
48.5503
48.5487
48.5472
48.5456
48.544
48.5424
48.5409
48.5393
48.5377
48.5362
48.5346
48.533
48.5314
48.5299
48.5283
48.5267
48.5252
48.5236
48.522
48.5205
48.5189
48.5173
48.5158
48.5142
48.5126
48.511
48.5095
48.5079
48.5063
48.5048
48.5032
48.5016
48.5001
48.4985
48.4969
48.4954
48.4938
48.4922
48.4907
48.4891
48.4875
48.486
48.4844
48.4829
48.4813
48.4797
48.4782
48.4766
48.475
48.4735
48.4719
48.4703
48.4688
48.4672
48.4656
48.4641
48.4625
48.461
48.4594
48.4578
48.4563
48.4547
48.4531
48.4516
48.45
48.4484
48.4469
48.4453
48.4438
48.4422
48.4406
48.4391
48.4375
48.436
48.4344
48.4328
48.4313
48.4297
48.4281
48.4266
48.425
48.4235
48.4219
48.4203
48.4188
48.4172
48.4157
48.4141
48.4125
48.411
48.4094
48.4079
48.4063
48.4047
48.4032
48.4016
48.4001
48.3985
48.397
48.3954
48.3938
48.3923
48.3907
48.3892
48.3876
48.386
48.3845
48.3829
48.3814
48.3798
48.3783
48.3767
48.3751
48.3736
48.372
48.3705
48.3689
48.3674
48.3658
48.3642
48.3627
48.3611
48.3596
48.358
48.3565
48.3549
48.3533
48.3518
48.3502
48.3487
48.3471
48.3456
48.344
48.3424
48.3409
48.3393
48.3378
48.3362
48.3347
48.3331
48.3316
48.33
48.3284
48.3269
48.3253
48.3238
48.3222
48.3207
48.3191
48.3176
48.316
48.3145
48.3129
48.3113
48.3098
48.3082
48.3067
48.3051
48.3036
48.302
48.3005
48.2989
48.2974
48.2958
48.2943
48.2927
48.2911
48.2896
48.288
48.2865
48.2849
48.2834
48.2818
48.2803
48.2787
48.2772
48.2756
48.2741
48.2725
48.271
48.2694
48.2679
48.2663
48.2647
48.2632
48.2616
48.2601
48.2585
48.257
48.2554
48.2539
48.2523
48.2508
48.2492
48.2477
48.2461
48.2446
48.243
48.2415
48.2399
48.2384
48.2368
48.2353
48.2337
48.2322
48.2306
48.2291
48.2275
48.226
48.2244
48.2229
48.2213
48.2198
48.2182
48.2166
48.2151
48.2135
48.212
48.2104
48.2089
48.2073
48.2058
48.2042
48.2027
48.2011
48.1996
48.198
48.1965
48.1949
48.1934
48.1918
48.1903
48.1887
48.1872
48.1856
48.1841
48.1825
48.181
48.1794
48.1779
48.1764
48.1748
48.1733
48.1717
48.1702
48.1686
48.1671
48.1655
48.164
48.1624
48.1609
48.1593
48.1578
48.1562
48.1547
48.1531
48.1516
48.15
48.1485
48.1469
48.1454
48.1438
48.1423
48.1407
48.1392
48.1376
48.1361
48.1345
48.133
48.1314
48.1299
48.1283
48.1268
48.1252
48.1237
48.1222
48.1206
48.1191
48.1175
48.116
48.1144
48.1129
48.1113
48.1098
48.1082
48.1067
48.1051
48.1036
48.102
48.1005
48.0989
48.0974
48.0958
48.0943
48.0928
48.0912
48.0897
48.0881
48.0866
48.085
48.0835
48.0819
48.0804
48.0788
48.0773
48.0757
48.0742
48.0727
1
52.1556
52.1556
49.9402
49.6853
49.6252
49.5988
49.5827
49.5711
49.5619
49.554
49.5471
49.5407
49.5349
49.5293
49.524
49.5189
49.5139
49.5091
49.5044
49.4997
49.4952
49.4907
49.4863
49.482
49.4777
49.4735
49.4694
49.4653
49.4612
49.4572
49.4532
49.4493
49.4454
49.4416
49.4378
49.434
49.4303
49.4267
49.423
49.4194
49.4159
49.4123
49.4089
49.4054
49.402
49.3986
49.3952
49.3919
49.3886
49.3853
49.382
49.3788
49.3756
49.3724
49.3693
49.3662
49.3631
49.36
49.3569
49.3539
49.3509
49.3479
49.3449
49.342
49.339
49.3361
49.3332
49.3304
49.3275
49.3247
49.3218
49.319
49.3162
49.3135
49.3107
49.308
49.3052
49.3025
49.2998
49.2971
49.2945
49.2918
49.2892
49.2865
49.2839
49.2813
49.2787
49.2762
49.2736
49.271
49.2685
49.266
49.2634
49.2609
49.2584
49.2559
49.2535
49.251
49.2485
49.2461
49.2437
49.2412
49.2388
49.2364
49.234
49.2316
49.2293
49.2269
49.2245
49.2222
49.2198
49.2175
49.2152
49.2128
49.2105
49.2082
49.2059
49.2037
49.2014
49.1991
49.1968
49.1946
49.1923
49.1901
49.1879
49.1856
49.1834
49.1812
49.179
49.1768
49.1746
49.1724
49.1702
49.168
49.1659
49.1637
49.1616
49.1594
49.1573
49.1551
49.153
49.1509
49.1488
49.1466
49.1445
49.1424
49.1403
49.1382
49.1361
49.1341
49.132
49.1299
49.1278
49.1258
49.1237
49.1217
49.1196
49.1176
49.1155
49.1135
49.1115
49.1095
49.1074
49.1054
49.1034
49.1014
49.0994
49.0974
49.0954
49.0934
49.0915
49.0895
49.0875
49.0855
49.0836
49.0816
49.0796
49.0777
49.0757
49.0738
49.0718
49.0699
49.068
49.066
49.0641
49.0622
49.0603
49.0583
49.0564
49.0545
49.0526
49.0507
49.0488
49.0469
49.045
49.0431
49.0412
49.0393
49.0375
49.0356
49.0337
49.0318
49.03
49.0281
49.0262
49.0244
49.0225
49.0207
49.0188
49.017
49.0151
49.0133
49.0114
49.0096
49.0078
49.0059
49.0041
49.0023
49.0004
48.9986
48.9968
48.995
48.9932
48.9914
48.9895
48.9877
48.9859
48.9841
48.9823
48.9805
48.9787
48.9769
48.9752
48.9734
48.9716
48.9698
48.968
48.9662
48.9645
48.9627
48.9609
48.9591
48.9574
48.9556
48.9538
48.9521
48.9503
48.9486
48.9468
48.9451
48.9433
48.9415
48.9398
48.9381
48.9363
48.9346
48.9328
48.9311
48.9293
48.9276
48.9259
48.9241
48.9224
48.9207
48.9189
48.9172
48.9155
48.9138
48.9121
48.9103
48.9086
48.9069
48.9052
48.9035
48.9018
48.9
48.8983
48.8966
48.8949
48.8932
48.8915
48.8898
48.8881
48.8864
48.8847
48.883
48.8813
48.8796
48.8779
48.8763
48.8746
48.8729
48.8712
48.8695
48.8678
48.8661
48.8645
48.8628
48.8611
48.8594
48.8577
48.8561
48.8544
48.8527
48.851
48.8494
48.8477
48.846
48.8444
48.8427
48.841
48.8394
48.8377
48.836
48.8344
48.8327
48.8311
48.8294
48.8277
48.8261
48.8244
48.8228
48.8211
48.8195
48.8178
48.8162
48.8145
48.8129
48.8112
48.8096
48.8079
48.8063
48.8046
48.803
48.8014
48.7997
48.7981
48.7964
48.7948
48.7932
48.7915
48.7899
48.7882
48.7866
48.785
48.7833
48.7817
48.7801
48.7784
48.7768
48.7752
48.7736
48.7719
48.7703
48.7687
48.767
48.7654
48.7638
48.7622
48.7605
48.7589
48.7573
48.7557
48.7541
48.7524
48.7508
48.7492
48.7476
48.746
48.7443
48.7427
48.7411
48.7395
48.7379
48.7363
48.7347
48.733
48.7314
48.7298
48.7282
48.7266
48.725
48.7234
48.7218
48.7202
48.7186
48.7169
48.7153
48.7137
48.7121
48.7105
48.7089
48.7073
48.7057
48.7041
48.7025
48.7009
48.6993
48.6977
48.6961
48.6945
48.6929
48.6913
48.6897
48.6881
48.6865
48.6849
48.6833
48.6817
48.6801
48.6785
48.6769
48.6753
48.6737
48.6721
48.6705
48.6689
48.6673
48.6658
48.6642
48.6626
48.661
48.6594
48.6578
48.6562
48.6546
48.653
48.6514
48.6498
48.6483
48.6467
48.6451
48.6435
48.6419
48.6403
48.6387
48.6371
48.6356
48.634
48.6324
48.6308
48.6292
48.6276
48.626
48.6245
48.6229
48.6213
48.6197
48.6181
48.6165
48.615
48.6134
48.6118
48.6102
48.6086
48.607
48.6055
48.6039
48.6023
48.6007
48.5991
48.5976
48.596
48.5944
48.5928
48.5913
48.5897
48.5881
48.5865
48.5849
48.5834
48.5818
48.5802
48.5786
48.5771
48.5755
48.5739
48.5723
48.5708
48.5692
48.5676
48.566
48.5645
48.5629
48.5613
48.5597
48.5582
48.5566
48.555
48.5534
48.5519
48.5503
48.5487
48.5472
48.5456
48.544
48.5424
48.5409
48.5393
48.5377
48.5362
48.5346
48.533
48.5314
48.5299
48.5283
48.5267
48.5252
48.5236
48.522
48.5205
48.5189
48.5173
48.5158
48.5142
48.5126
48.511
48.5095
48.5079
48.5063
48.5048
48.5032
48.5016
48.5001
48.4985
48.4969
48.4954
48.4938
48.4922
48.4907
48.4891
48.4875
48.486
48.4844
48.4829
48.4813
48.4797
48.4782
48.4766
48.475
48.4735
48.4719
48.4703
48.4688
48.4672
48.4656
48.4641
48.4625
48.461
48.4594
48.4578
48.4563
48.4547
48.4531
48.4516
48.45
48.4484
48.4469
48.4453
48.4438
48.4422
48.4406
48.4391
48.4375
48.436
48.4344
48.4328
48.4313
48.4297
48.4281
48.4266
48.425
48.4235
48.4219
48.4203
48.4188
48.4172
48.4157
48.4141
48.4125
48.411
48.4094
48.4079
48.4063
48.4047
48.4032
48.4016
48.4001
48.3985
48.397
48.3954
48.3938
48.3923
48.3907
48.3892
48.3876
48.386
48.3845
48.3829
48.3814
48.3798
48.3783
48.3767
48.3751
48.3736
48.372
48.3705
48.3689
48.3674
48.3658
48.3642
48.3627
48.3611
48.3596
48.358
48.3565
48.3549
48.3533
48.3518
48.3502
48.3487
48.3471
48.3456
48.344
48.3424
48.3409
48.3393
48.3378
48.3362
48.3347
48.3331
48.3316
48.33
48.3284
48.3269
48.3253
48.3238
48.3222
48.3207
48.3191
48.3176
48.316
48.3145
48.3129
48.3113
48.3098
48.3082
48.3067
48.3051
48.3036
48.302
48.3005
48.2989
48.2974
48.2958
48.2943
48.2927
48.2911
48.2896
48.288
48.2865
48.2849
48.2834
48.2818
48.2803
48.2787
48.2772
48.2756
48.2741
48.2725
48.271
48.2694
48.2679
48.2663
48.2647
48.2632
48.2616
48.2601
48.2585
48.257
48.2554
48.2539
48.2523
48.2508
48.2492
48.2477
48.2461
48.2446
48.243
48.2415
48.2399
48.2384
48.2368
48.2353
48.2337
48.2322
48.2306
48.2291
48.2275
48.226
48.2244
48.2229
48.2213
48.2198
48.2182
48.2166
48.2151
48.2135
48.212
48.2104
48.2089
48.2073
48.2058
48.2042
48.2027
48.2011
48.1996
48.198
48.1965
48.1949
48.1934
48.1918
48.1903
48.1887
48.1872
48.1856
48.1841
48.1825
48.181
48.1794
48.1779
48.1764
48.1748
48.1733
48.1717
48.1702
48.1686
48.1671
48.1655
48.164
48.1624
48.1609
48.1593
48.1578
48.1562
48.1547
48.1531
48.1516
48.15
48.1485
48.1469
48.1454
48.1438
48.1423
48.1407
48.1392
48.1376
48.1361
48.1345
48.133
48.1314
48.1299
48.1283
48.1268
48.1252
48.1237
48.1222
48.1206
48.1191
48.1175
48.116
48.1144
48.1129
48.1113
48.1098
48.1082
48.1067
48.1051
48.1036
48.102
48.1005
48.0989
48.0974
48.0958
48.0943
48.0928
48.0912
48.0897
48.0881
48.0866
48.085
48.0835
48.0819
48.0804
48.0788
48.0773
48.0757
48.0742
48.0727
48.0727
51.5086
51.5086
49.9506
49.6948
49.6293
49.601
49.5841
49.5721
49.5626
49.5546
49.5475
49.5411
49.5352
49.5295
49.5242
49.5191
49.5141
49.5092
49.5045
49.4999
49.4953
49.4908
49.4864
49.4821
49.4778
49.4736
49.4694
49.4653
49.4613
49.4572
49.4533
49.4493
49.4455
49.4416
49.4378
49.4341
49.4304
49.4267
49.4231
49.4195
49.4159
49.4124
49.4089
49.4054
49.402
49.3986
49.3952
49.3919
49.3886
49.3853
49.3821
49.3788
49.3756
49.3725
49.3693
49.3662
49.3631
49.36
49.3569
49.3539
49.3509
49.3479
49.3449
49.342
49.3391
49.3361
49.3332
49.3304
49.3275
49.3247
49.3218
49.319
49.3162
49.3135
49.3107
49.308
49.3052
49.3025
49.2998
49.2972
49.2945
49.2918
49.2892
49.2866
49.2839
49.2813
49.2787
49.2762
49.2736
49.271
49.2685
49.266
49.2634
49.2609
49.2584
49.256
49.2535
49.251
49.2486
49.2461
49.2437
49.2412
49.2388
49.2364
49.234
49.2316
49.2293
49.2269
49.2245
49.2222
49.2198
49.2175
49.2152
49.2129
49.2105
49.2082
49.2059
49.2037
49.2014
49.1991
49.1968
49.1946
49.1923
49.1901
49.1879
49.1856
49.1834
49.1812
49.179
49.1768
49.1746
49.1724
49.1702
49.1681
49.1659
49.1637
49.1616
49.1594
49.1573
49.1551
49.153
49.1509
49.1488
49.1466
49.1445
49.1424
49.1403
49.1382
49.1362
49.1341
49.132
49.1299
49.1279
49.1258
49.1237
49.1217
49.1196
49.1176
49.1156
49.1135
49.1115
49.1095
49.1075
49.1054
49.1034
49.1014
49.0994
49.0974
49.0954
49.0934
49.0915
49.0895
49.0875
49.0855
49.0836
49.0816
49.0796
49.0777
49.0757
49.0738
49.0718
49.0699
49.068
49.066
49.0641
49.0622
49.0603
49.0583
49.0564
49.0545
49.0526
49.0507
49.0488
49.0469
49.045
49.0431
49.0412
49.0393
49.0375
49.0356
49.0337
49.0318
49.03
49.0281
49.0262
49.0244
49.0225
49.0207
49.0188
49.017
49.0151
49.0133
49.0114
49.0096
49.0078
49.0059
49.0041
49.0023
49.0004
48.9986
48.9968
48.995
48.9932
48.9914
48.9896
48.9877
48.9859
48.9841
48.9823
48.9805
48.9787
48.977
48.9752
48.9734
48.9716
48.9698
48.968
48.9662
48.9645
48.9627
48.9609
48.9591
48.9574
48.9556
48.9538
48.9521
48.9503
48.9486
48.9468
48.9451
48.9433
48.9416
48.9398
48.9381
48.9363
48.9346
48.9328
48.9311
48.9293
48.9276
48.9259
48.9241
48.9224
48.9207
48.919
48.9172
48.9155
48.9138
48.9121
48.9103
48.9086
48.9069
48.9052
48.9035
48.9018
48.9001
48.8983
48.8966
48.8949
48.8932
48.8915
48.8898
48.8881
48.8864
48.8847
48.883
48.8813
48.8796
48.878
48.8763
48.8746
48.8729
48.8712
48.8695
48.8678
48.8661
48.8645
48.8628
48.8611
48.8594
48.8577
48.8561
48.8544
48.8527
48.851
48.8494
48.8477
48.846
48.8444
48.8427
48.841
48.8394
48.8377
48.836
48.8344
48.8327
48.8311
48.8294
48.8278
48.8261
48.8244
48.8228
48.8211
48.8195
48.8178
48.8162
48.8145
48.8129
48.8112
48.8096
48.8079
48.8063
48.8046
48.803
48.8014
48.7997
48.7981
48.7964
48.7948
48.7932
48.7915
48.7899
48.7882
48.7866
48.785
48.7833
48.7817
48.7801
48.7784
48.7768
48.7752
48.7736
48.7719
48.7703
48.7687
48.767
48.7654
48.7638
48.7622
48.7606
48.7589
48.7573
48.7557
48.7541
48.7524
48.7508
48.7492
48.7476
48.746
48.7444
48.7427
48.7411
48.7395
48.7379
48.7363
48.7347
48.733
48.7314
48.7298
48.7282
48.7266
48.725
48.7234
48.7218
48.7202
48.7186
48.7169
48.7153
48.7137
48.7121
48.7105
48.7089
48.7073
48.7057
48.7041
48.7025
48.7009
48.6993
48.6977
48.6961
48.6945
48.6929
48.6913
48.6897
48.6881
48.6865
48.6849
48.6833
48.6817
48.6801
48.6785
48.6769
48.6753
48.6737
48.6721
48.6705
48.6689
48.6673
48.6658
48.6642
48.6626
48.661
48.6594
48.6578
48.6562
48.6546
48.653
48.6514
48.6498
48.6483
48.6467
48.6451
48.6435
48.6419
48.6403
48.6387
48.6371
48.6356
48.634
48.6324
48.6308
48.6292
48.6276
48.626
48.6245
48.6229
48.6213
48.6197
48.6181
48.6165
48.615
48.6134
48.6118
48.6102
48.6086
48.6071
48.6055
48.6039
48.6023
48.6007
48.5992
48.5976
48.596
48.5944
48.5928
48.5913
48.5897
48.5881
48.5865
48.5849
48.5834
48.5818
48.5802
48.5786
48.5771
48.5755
48.5739
48.5723
48.5708
48.5692
48.5676
48.566
48.5645
48.5629
48.5613
48.5597
48.5582
48.5566
48.555
48.5534
48.5519
48.5503
48.5487
48.5472
48.5456
48.544
48.5424
48.5409
48.5393
48.5377
48.5362
48.5346
48.533
48.5314
48.5299
48.5283
48.5267
48.5252
48.5236
48.522
48.5205
48.5189
48.5173
48.5158
48.5142
48.5126
48.5111
48.5095
48.5079
48.5063
48.5048
48.5032
48.5016
48.5001
48.4985
48.4969
48.4954
48.4938
48.4922
48.4907
48.4891
48.4876
48.486
48.4844
48.4829
48.4813
48.4797
48.4782
48.4766
48.475
48.4735
48.4719
48.4703
48.4688
48.4672
48.4656
48.4641
48.4625
48.461
48.4594
48.4578
48.4563
48.4547
48.4531
48.4516
48.45
48.4485
48.4469
48.4453
48.4438
48.4422
48.4406
48.4391
48.4375
48.436
48.4344
48.4328
48.4313
48.4297
48.4282
48.4266
48.425
48.4235
48.4219
48.4204
48.4188
48.4172
48.4157
48.4141
48.4125
48.411
48.4094
48.4079
48.4063
48.4048
48.4032
48.4016
48.4001
48.3985
48.397
48.3954
48.3938
48.3923
48.3907
48.3892
48.3876
48.386
48.3845
48.3829
48.3814
48.3798
48.3783
48.3767
48.3751
48.3736
48.372
48.3705
48.3689
48.3674
48.3658
48.3642
48.3627
48.3611
48.3596
48.358
48.3565
48.3549
48.3533
48.3518
48.3502
48.3487
48.3471
48.3456
48.344
48.3425
48.3409
48.3393
48.3378
48.3362
48.3347
48.3331
48.3316
48.33
48.3285
48.3269
48.3253
48.3238
48.3222
48.3207
48.3191
48.3176
48.316
48.3145
48.3129
48.3114
48.3098
48.3082
48.3067
48.3051
48.3036
48.302
48.3005
48.2989
48.2974
48.2958
48.2943
48.2927
48.2911
48.2896
48.288
48.2865
48.2849
48.2834
48.2818
48.2803
48.2787
48.2772
48.2756
48.2741
48.2725
48.271
48.2694
48.2679
48.2663
48.2647
48.2632
48.2616
48.2601
48.2585
48.257
48.2554
48.2539
48.2523
48.2508
48.2492
48.2477
48.2461
48.2446
48.243
48.2415
48.2399
48.2384
48.2368
48.2353
48.2337
48.2322
48.2306
48.2291
48.2275
48.226
48.2244
48.2229
48.2213
48.2198
48.2182
48.2167
48.2151
48.2136
48.212
48.2105
48.2089
48.2074
48.2058
48.2043
48.2027
48.2011
48.1996
48.198
48.1965
48.1949
48.1934
48.1919
48.1903
48.1888
48.1872
48.1857
48.1841
48.1826
48.181
48.1795
48.1779
48.1764
48.1748
48.1733
48.1717
48.1702
48.1686
48.1671
48.1655
48.164
48.1624
48.1609
48.1593
48.1578
48.1562
48.1547
48.1531
48.1516
48.15
48.1485
48.1469
48.1454
48.1438
48.1423
48.1407
48.1392
48.1376
48.1361
48.1345
48.133
48.1314
48.1299
48.1283
48.1268
48.1253
48.1237
48.1222
48.1206
48.1191
48.1175
48.116
48.1144
48.1129
48.1113
48.1098
48.1082
48.1067
48.1051
48.1036
48.102
48.1005
48.0989
48.0974
48.0959
48.0943
48.0928
48.0912
48.0897
48.0881
48.0866
48.085
48.0835
48.0819
48.0804
48.0788
48.0773
48.0757
48.0742
48.0727
48.0727
50.8191
50.8191
49.9348
49.7015
49.633
49.603
49.5854
49.573
49.5633
49.5551
49.5479
49.5415
49.5354
49.5298
49.5244
49.5192
49.5142
49.5094
49.5046
49.5
49.4954
49.4909
49.4865
49.4822
49.4779
49.4737
49.4695
49.4654
49.4613
49.4573
49.4533
49.4494
49.4455
49.4417
49.4379
49.4341
49.4304
49.4267
49.4231
49.4195
49.4159
49.4124
49.4089
49.4055
49.402
49.3986
49.3953
49.3919
49.3886
49.3853
49.3821
49.3788
49.3756
49.3725
49.3693
49.3662
49.3631
49.36
49.357
49.3539
49.3509
49.3479
49.3449
49.342
49.3391
49.3362
49.3333
49.3304
49.3275
49.3247
49.3219
49.3191
49.3163
49.3135
49.3107
49.308
49.3053
49.3025
49.2998
49.2972
49.2945
49.2918
49.2892
49.2866
49.2839
49.2813
49.2788
49.2762
49.2736
49.2711
49.2685
49.266
49.2635
49.2609
49.2584
49.256
49.2535
49.251
49.2486
49.2461
49.2437
49.2413
49.2388
49.2364
49.234
49.2316
49.2293
49.2269
49.2245
49.2222
49.2198
49.2175
49.2152
49.2129
49.2105
49.2082
49.206
49.2037
49.2014
49.1991
49.1969
49.1946
49.1923
49.1901
49.1879
49.1856
49.1834
49.1812