# vtk DataFile Version 2.0
FlowField
ASCII
DATASET STRUCTURED_GRID
DIMENSIONS 800 1 200
POINTS 160000 float
0 0 0
0.04 0 0
0.08 0 0
0.12 0 0
0.16 0 0
0.2 0 0
0.24 0 0
0.28 0 0
0.32 0 0
0.36 0 0
0.4 0 0
0.44 0 0
0.48 0 0
0.52 0 0
0.56 0 0
0.6 0 0
0.64 0 0
0.68 0 0
0.72 0 0
0.76 0 0
0.8 0 0
0.84 0 0
0.88 0 0
0.92 0 0
0.96 0 0
1 0 0
1.04 0 0
1.08 0 0
1.12 0 0
1.16 0 0
1.2 0 0
1.24 0 0
1.28 0 0
1.32 0 0
1.36 0 0
1.4 0 0
1.44 0 0
1.48 0 0
1.52 0 0
1.56 0 0
1.6 0 0
1.64 0 0
1.68 0 0
1.72 0 0
1.76 0 0
1.8 0 0
1.84 0 0
1.88 0 0
1.92 0 0
1.96 0 0
2 0 0
2.04 0 0
2.08 0 0
2.12 0 0
2.16 0 0
2.2 0 0
2.24 0 0
2.28 0 0
2.32 0 0
2.36 0 0
2.4 0 0
2.44 0 0
2.48 0 0
2.52 0 0
2.56 0 0
2.6 0 0
2.64 0 0
2.68 0 0
2.72 0 0
2.76 0 0
2.8 0 0
2.84 0 0
2.88 0 0
2.92 0 0
2.96 0 0
3 0 0
3.04 0 0
3.08 0 0
3.12 0 0
3.16 0 0
3.2 0 0
3.24 0 0
3.28 0 0
3.32 0 0
3.36 0 0
3.4 0 0
3.44 0 0
3.48 0 0
3.52 0 0
3.56 0 0
3.6 0 0
3.64 0 0
3.68 0 0
3.72 0 0
3.76 0 0
3.8 0 0
3.84 0 0
3.88 0 0
3.92 0 0
3.96 0 0
4 0 0
4.04 0 0
4.08 0 0
4.12 0 0
4.16 0 0
4.2 0 0
4.24 0 0
4.28 0 0
4.32 0 0
4.36 0 0
4.4 0 0
4.44 0 0
4.48 0 0
4.52 0 0
4.56 0 0
4.6 0 0
4.64 0 0
4.68 0 0
4.72 0 0
4.76 0 0
4.8 0 0
4.84 0 0
4.88 0 0
4.92 0 0
4.96 0 0
5 0 0
5.04 0 0
5.08 0 0
5.12 0 0
5.16 0 0
5.2 0 0
5.24 0 0
5.28 0 0
5.32 0 0
5.36 0 0
5.4 0 0
5.44 0 0
5.48 0 0
5.52 0 0
5.56 0 0
5.6 0 0
5.64 0 0
5.68 0 0
5.72 0 0
5.76 0 0
5.8 0 0
5.84 0 0
5.88 0 0
5.92 0 0
5.96 0 0
6 0 0
6.04 0 0
6.08 0 0
6.12 0 0
6.16 0 0
6.2 0 0
6.24 0 0
6.28 0 0
6.32 0 0
6.36 0 0
6.4 0 0
6.44 0 0
6.48 0 0
6.52 0 0
6.56 0 0
6.6 0 0
6.64 0 0
6.68 0 0
6.72 0 0
6.76 0 0
6.8 0 0
6.84 0 0
6.88 0 0
6.92 0 0
6.96 0 0
7 0 0
7.04 0 0
7.08 0 0
7.12 0 0
7.16 0 0
7.2 0 0
7.24 0 0
7.28 0 0
7.32 0 0
7.36 0 0
7.4 0 0
7.44 0 0
7.48 0 0
7.52 0 0
7.56 0 0
7.6 0 0
7.64 0 0
7.68 0 0
7.72 0 0
7.76 0 0
7.8 0 0
7.84 0 0
7.88 0 0
7.92 0 0
7.96 0 0
8 0 0
8.04 0 0
8.08 0 0
8.12 0 0
8.16 0 0
8.2 0 0
8.24 0 0
8.28 0 0
8.32 0 0
8.36 0 0
8.4 0 0
8.44 0 0
8.48 0 0
8.52 0 0
8.56 0 0
8.6 0 0
8.64 0 0
8.68 0 0
8.72 0 0
8.76 0 0
8.8 0 0
8.84 0 0
8.88 0 0
8.92 0 0
8.96 0 0
9 0 0
9.04 0 0
9.08 0 0
9.12 0 0
9.16 0 0
9.2 0 0
9.24 0 0
9.28 0 0
9.32 0 0
9.36 0 0
9.4 0 0
9.44 0 0
9.48 0 0
9.52 0 0
9.56 0 0
9.6 0 0
9.64 0 0
9.68 0 0
9.72 0 0
9.76 0 0
9.8 0 0
9.84 0 0
9.88 0 0
9.92 0 0
9.96 0 0
10 0 0
10.04 0 0
10.08 0 0
10.12 0 0
10.16 0 0
10.2 0 0
10.24 0 0
10.28 0 0
10.32 0 0
10.36 0 0
10.4 0 0
10.44 0 0
10.48 0 0
10.52 0 0
10.56 0 0
10.6 0 0
10.64 0 0
10.68 0 0
10.72 0 0
10.76 0 0
10.8 0 0
10.84 0 0
10.88 0 0
10.92 0 0
10.96 0 0
11 0 0
11.04 0 0
11.08 0 0
11.12 0 0
11.16 0 0
11.2 0 0
11.24 0 0
11.28 0 0
11.32 0 0
11.36 0 0
11.4 0 0
11.44 0 0
11.48 0 0
11.52 0 0
11.56 0 0
11.6 0 0
11.64 0 0
11.68 0 0
11.72 0 0
11.76 0 0
11.8 0 0
11.84 0 0
11.88 0 0
11.92 0 0
11.96 0 0
12 0 0
12.04 0 0
12.08 0 0
12.12 0 0
12.16 0 0
12.2 0 0
12.24 0 0
12.28 0 0
12.32 0 0
12.36 0 0
12.4 0 0
12.44 0 0
12.48 0 0
12.52 0 0
12.56 0 0
12.6 0 0
12.64 0 0
12.68 0 0
12.72 0 0
12.76 0 0
12.8 0 0
12.84 0 0
12.88 0 0
12.92 0 0
12.96 0 0
13 0 0
13.04 0 0
13.08 0 0
13.12 0 0
13.16 0 0
13.2 0 0
13.24 0 0
13.28 0 0
13.32 0 0
13.36 0 0
13.4 0 0
13.44 0 0
13.48 0 0
13.52 0 0
13.56 0 0
13.6 0 0
13.64 0 0
13.68 0 0
13.72 0 0
13.76 0 0
13.8 0 0
13.84 0 0
13.88 0 0
13.92 0 0
13.96 0 0
14 0 0
14.04 0 0
14.08 0 0
14.12 0 0
14.16 0 0
14.2 0 0
14.24 0 0
14.28 0 0
14.32 0 0
14.36 0 0
14.4 0 0
14.44 0 0
14.48 0 0
14.52 0 0
14.56 0 0
14.6 0 0
14.64 0 0
14.68 0 0
14.72 0 0
14.76 0 0
14.8 0 0
14.84 0 0
14.88 0 0
14.92 0 0
14.96 0 0
15 0 0
15.04 0 0
15.08 0 0
15.12 0 0
15.16 0 0
15.2 0 0
15.24 0 0
15.28 0 0
15.32 0 0
15.36 0 0
15.4 0 0
15.44 0 0
15.48 0 0
15.52 0 0
15.56 0 0
15.6 0 0
15.64 0 0
15.68 0 0
15.72 0 0
15.76 0 0
15.8 0 0
15.84 0 0
15.88 0 0
15.92 0 0
15.96 0 0
16 0 0
16.04 0 0
16.08 0 0
16.12 0 0
16.16 0 0
16.2 0 0
16.24 0 0
16.28 0 0
16.32 0 0
16.36 0 0
16.4 0 0
16.44 0 0
16.48 0 0
16.52 0 0
16.56 0 0
16.6 0 0
16.64 0 0
16.68 0 0
16.72 0 0
16.76 0 0
16.8 0 0
16.84 0 0
16.88 0 0
16.92 0 0
16.96 0 0
17 0 0
17.04 0 0
17.08 0 0
17.12 0 0
17.16 0 0
17.2 0 0
17.24 0 0
17.28 0 0
17.32 0 0
17.36 0 0
17.4 0 0
17.44 0 0
17.48 0 0
17.52 0 0
17.56 0 0
17.6 0 0
17.64 0 0
17.68 0 0
17.72 0 0
17.76 0 0
17.8 0 0
17.84 0 0
17.88 0 0
17.92 0 0
17.96 0 0
18 0 0
18.04 0 0
18.08 0 0
18.12 0 0
18.16 0 0
18.2 0 0
18.24 0 0
18.28 0 0
18.32 0 0
18.36 0 0
18.4 0 0
18.44 0 0
18.48 0 0
18.52 0 0
18.56 0 0
18.6 0 0
18.64 0 0
18.68 0 0
18.72 0 0
18.76 0 0
18.8 0 0
18.84 0 0
18.88 0 0
18.92 0 0
18.96 0 0
19 0 0
19.04 0 0
19.08 0 0
19.12 0 0
19.16 0 0
19.2 0 0
19.24 0 0
19.28 0 0
19.32 0 0
19.36 0 0
19.4 0 0
19.44 0 0
19.48 0 0
19.52 0 0
19.56 0 0
19.6 0 0
19.64 0 0
19.68 0 0
19.72 0 0
19.76 0 0
19.8 0 0
19.84 0 0
19.88 0 0
19.92 0 0
19.96 0 0
20 0 0
20.04 0 0
20.08 0 0
20.12 0 0
20.16 0 0
20.2 0 0
20.24 0 0
20.28 0 0
20.32 0 0
20.36 0 0
20.4 0 0
20.44 0 0
20.48 0 0
20.52 0 0
20.56 0 0
20.6 0 0
20.64 0 0
20.68 0 0
20.72 0 0
20.76 0 0
20.8 0 0
20.84 0 0
20.88 0 0
20.92 0 0
20.96 0 0
21 0 0
21.04 0 0
21.08 0 0
21.12 0 0
21.16 0 0
21.2 0 0
21.24 0 0
21.28 0 0
21.32 0 0
21.36 0 0
21.4 0 0
21.44 0 0
21.48 0 0
21.52 0 0
21.56 0 0
21.6 0 0
21.64 0 0
21.68 0 0
21.72 0 0
21.76 0 0
21.8 0 0
21.84 0 0
21.88 0 0
21.92 0 0
21.96 0 0
22 0 0
22.04 0 0
22.08 0 0
22.12 0 0
22.16 0 0
22.2 0 0
22.24 0 0
22.28 0 0
22.32 0 0
22.36 0 0
22.4 0 0
22.44 0 0
22.48 0 0
22.52 0 0
22.56 0 0
22.6 0 0
22.64 0 0
22.68 0 0
22.72 0 0
22.76 0 0
22.8 0 0
22.84 0 0
22.88 0 0
22.92 0 0
22.96 0 0
23 0 0
23.04 0 0
23.08 0 0
23.12 0 0
23.16 0 0
23.2 0 0
23.24 0 0
23.28 0 0
23.32 0 0
23.36 0 0
23.4 0 0
23.44 0 0
23.48 0 0
23.52 0 0
23.56 0 0
23.6 0 0
23.64 0 0
23.68 0 0
23.72 0 0
23.76 0 0
23.8 0 0
23.84 0 0
23.88 0 0
23.92 0 0
23.96 0 0
24 0 0
24.04 0 0
24.08 0 0
24.12 0 0
24.16 0 0
24.2 0 0
24.24 0 0
24.28 0 0
24.32 0 0
24.36 0 0
24.4 0 0
24.44 0 0
24.48 0 0
24.52 0 0
24.56 0 0
24.6 0 0
24.64 0 0
24.68 0 0
24.72 0 0
24.76 0 0
24.8 0 0
24.84 0 0
24.88 0 0
24.92 0 0
24.96 0 0
25 0 0
25.04 0 0
25.08 0 0
25.12 0 0
25.16 0 0
25.2 0 0
25.24 0 0
25.28 0 0
25.32 0 0
25.36 0 0
25.4 0 0
25.44 0 0
25.48 0 0
25.52 0 0
25.56 0 0
25.6 0 0
25.64 0 0
25.68 0 0
25.72 0 0
25.76 0 0
25.8 0 0
25.84 0 0
25.88 0 0
25.92 0 0
25.96 0 0
26 0 0
26.04 0 0
26.08 0 0
26.12 0 0
26.16 0 0
26.2 0 0
26.24 0 0
26.28 0 0
26.32 0 0
26.36 0 0
26.4 0 0
26.44 0 0
26.48 0 0
26.52 0 0
26.56 0 0
26.6 0 0
26.64 0 0
26.68 0 0
26.72 0 0
26.76 0 0
26.8 0 0
26.84 0 0
26.88 0 0
26.92 0 0
26.96 0 0
27 0 0
27.04 0 0
27.08 0 0
27.12 0 0
27.16 0 0
27.2 0 0
27.24 0 0
27.28 0 0
27.32 0 0
27.36 0 0
27.4 0 0
27.44 0 0
27.48 0 0
27.52 0 0
27.56 0 0
27.6 0 0
27.64 0 0
27.68 0 0
27.72 0 0
27.76 0 0
27.8 0 0
27.84 0 0
27.88 0 0
27.92 0 0
27.96 0 0
28 0 0
28.04 0 0
28.08 0 0
28.12 0 0
28.16 0 0
28.2 0 0
28.24 0 0
28.28 0 0
28.32 0 0
28.36 0 0
28.4 0 0
28.44 0 0
28.48 0 0
28.52 0 0
28.56 0 0
28.6 0 0
28.64 0 0
28.68 0 0
28.72 0 0
28.76 0 0
28.8 0 0
28.84 0 0
28.88 0 0
28.92 0 0
28.96 0 0
29 0 0
29.04 0 0
29.08 0 0
29.12 0 0
29.16 0 0
29.2 0 0
29.24 0 0
29.28 0 0
29.32 0 0
29.36 0 0
29.4 0 0
29.44 0 0
29.48 0 0
29.52 0 0
29.56 0 0
29.6 0 0
29.64 0 0
29.68 0 0
29.72 0 0
29.76 0 0
29.8 0 0
29.84 0 0
29.88 0 0
29.92 0 0
29.96 0 0
30 0 0
30.04 0 0
30.08 0 0
30.12 0 0
30.16 0 0
30.2 0 0
30.24 0 0
30.28 0 0
30.32 0 0
30.36 0 0
30.4 0 0
30.44 0 0
30.48 0 0
30.52 0 0
30.56 0 0
30.6 0 0
30.64 0 0
30.68 0 0
30.72 0 0
30.76 0 0
30.8 0 0
30.84 0 0
30.88 0 0
30.92 0 0
30.96 0 0
31 0 0
31.04 0 0
31.08 0 0
31.12 0 0
31.16 0 0
31.2 0 0
31.24 0 0
31.28 0 0
31.32 0 0
31.36 0 0
31.4 0 0
31.44 0 0
31.48 0 0
31.52 0 0
31.56 0 0
31.6 0 0
31.64 0 0
31.68 0 0
31.72 0 0
31.76 0 0
31.8 0 0
31.84 0 0
31.88 0 0
31.92 0 0
31.96 0 0
0 0.005 0
0.04 0.005 0
0.08 0.005 0
0.12 0.005 0
0.16 0.005 0
0.2 0.005 0
0.24 0.005 0
0.28 0.005 0
0.32 0.005 0
0.36 0.005 0
0.4 0.005 0
0.44 0.005 0
0.48 0.005 0
0.52 0.005 0
0.56 0.005 0
0.6 0.005 0
0.64 0.005 0
0.68 0.005 0
0.72 0.005 0
0.76 0.005 0
0.8 0.005 0
0.84 0.005 0
0.88 0.005 0
0.92 0.005 0
0.96 0.005 0
1 0.005 0
1.04 0.005 0
1.08 0.005 0
1.12 0.005 0
1.16 0.005 0
1.2 0.005 0
1.24 0.005 0
1.28 0.005 0
1.32 0.005 0
1.36 0.005 0
1.4 0.005 0
1.44 0.005 0
1.48 0.005 0
1.52 0.005 0
1.56 0.005 0
1.6 0.005 0
1.64 0.005 0
1.68 0.005 0
1.72 0.005 0
1.76 0.005 0
1.8 0.005 0
1.84 0.005 0
1.88 0.005 0
1.92 0.005 0
1.96 0.005 0
2 0.005 0
2.04 0.005 0
2.08 0.005 0
2.12 0.005 0
2.16 0.005 0
2.2 0.005 0
2.24 0.005 0
2.28 0.005 0
2.32 0.005 0
2.36 0.005 0
2.4 0.005 0
2.44 0.005 0
2.48 0.005 0
2.52 0.005 0
2.56 0.005 0
2.6 0.005 0
2.64 0.005 0
2.68 0.005 0
2.72 0.005 0
2.76 0.005 0
2.8 0.005 0
2.84 0.005 0
2.88 0.005 0
2.92 0.005 0
2.96 0.005 0
3 0.005 0
3.04 0.005 0
3.08 0.005 0
3.12 0.005 0
3.16 0.005 0
3.2 0.005 0
3.24 0.005 0
3.28 0.005 0
3.32 0.005 0
3.36 0.005 0
3.4 0.005 0
3.44 0.005 0
3.48 0.005 0
3.52 0.005 0
3.56 0.005 0
3.6 0.005 0
3.64 0.005 0
3.68 0.005 0
3.72 0.005 0
3.76 0.005 0
3.8 0.005 0
3.84 0.005 0
3.88 0.005 0
3.92 0.005 0
3.96 0.005 0
4 0.005 0
4.04 0.005 0
4.08 0.005 0
4.12 0.005 0
4.16 0.005 0
4.2 0.005 0
4.24 0.005 0
4.28 0.005 0
4.32 0.005 0
4.36 0.005 0
4.4 0.005 0
4.44 0.005 0
4.48 0.005 0
4.52 0.005 0
4.56 0.005 0
4.6 0.005 0
4.64 0.005 0
4.68 0.005 0
4.72 0.005 0
4.76 0.005 0
4.8 0.005 0
4.84 0.005 0
4.88 0.005 0
4.92 0.005 0
4.96 0.005 0
5 0.005 0
5.04 0.005 0
5.08 0.005 0
5.12 0.005 0
5.16 0.005 0
5.2 0.005 0
5.24 0.005 0
5.28 0.005 0
5.32 0.005 0
5.36 0.005 0
5.4 0.005 0
5.44 0.005 0
5.48 0.005 0
5.52 0.005 0
5.56 0.005 0
5.6 0.005 0
5.64 0.005 0
5.68 0.005 0
5.72 0.005 0
5.76 0.005 0
5.8 0.005 0
5.84 0.005 0
5.88 0.005 0
5.92 0.005 0
5.96 0.005 0
6 0.005 0
6.04 0.005 0
6.08 0.005 0
6.12 0.005 0
6.16 0.005 0
6.2 0.005 0
6.24 0.005 0
6.28 0.005 0
6.32 0.005 0
6.36 0.005 0
6.4 0.005 0
6.44 0.005 0
6.48 0.005 0
6.52 0.005 0
6.56 0.005 0
6.6 0.005 0
6.64 0.005 0
6.68 0.005 0
6.72 0.005 0
6.76 0.005 0
6.8 0.005 0
6.84 0.005 0
6.88 0.005 0
6.92 0.005 0
6.96 0.005 0
7 0.005 0
7.04 0.005 0
7.08 0.005 0
7.12 0.005 0
7.16 0.005 0
7.2 0.005 0
7.24 0.005 0
7.28 0.005 0
7.32 0.005 0
7.36 0.005 0
7.4 0.005 0
[...]
POINT_DATA 160000

SCALARS phi float 1
LOOKUP_TABLE default
1
1
1
1
1
1
1
1
1
1
1
1
1
1
1
1
1
1
1
1
1
1
1
1
1
1
1
1
1
1
1
1
1
1
1
0.999999
0.999999
0.999998
0.999997
0.999996
0.999993
0.999989
0.999983
0.999973
0.999958
0.999937
0.999905
0.999861
0.999798
0.999713
0.999597
0.999443
0.999242
0.998983
0.998654
0.998243
0.997734
0.997112
0.996362
0.995467
0.99441
0.993174
0.991742
0.990099
0.988228
0.986114
0.983746
0.981109
0.978195
0.974992
0.971494
0.967696
0.963592
0.959181
0.954462
0.949435
0.944103
0.93847
0.932541
0.926322
0.91982
0.913045
0.906004
0.898709
0.891169
0.883396
0.875401
0.867196
0.858793
0.850203
0.84144
0.832515
0.823441
0.814229
0.80489
0.795437
0.78588
0.77623
0.766499
0.756696
0.74683
0.736912
0.726951
0.716955
0.706933
0.696892
0.686841
0.676786
0.666734
0.656692
0.646666
0.636661
0.626683
0.616737
0.606828
0.596961
0.587139
0.577366
0.567647
0.557984
0.548381
0.53884
0.529365
0.519957
0.51062
0.501354
0.492163
0.483047
0.47401
0.46505
0.456171
0.447374
0.438659
0.430027
0.421479
0.413016
0.404639
0.396347
0.388142
0.380024
0.371993
0.364049
0.356192
0.348423
0.340741
0.333147
0.32564
0.318221
0.310889
0.303644
0.296485
0.289414
0.282429
0.27553
0.268717
0.261989
0.255347
0.24879
0.242318
0.23593
0.229627
0.223408
0.217272
0.211221
0.205253
0.199368
0.193566
0.187847
0.182211
0.176659
0.171189
0.165802
0.160498
0.155277
0.150139
0.145085
0.140114
0.135227
0.130425
0.125706
0.121073
0.116524
0.112061
0.107685
0.103394
0.0991905
0.0950744
0.0910462
0.0871064
0.0832557
0.0794944
0.0758233
0.0722427
0.0687533
0.0653554
0.0620497
0.0588365
0.0557162
0.0526893
0.0497561
0.0469167
0.0441715
0.0415206
0.0389641
0.0365019
0.0341339
0.0318601
0.0296799
0.0275931
0.0255992
0.0236974
0.021887
0.020167
0.0185365
0.0169942
0.0155387
0.0141686
0.0128821
0.0116775
0.0105527
0.00950558
0.00853387
0.00763509
0.00680661
0.00604568
0.00534941
0.0047148
0.00413873
0.003618
0.00314935
0.00272947
0.00235503
0.00202271
0.00172921
0.00147131
0.00124585
0.00104978
0.000880176
0.000734265
0.000609427
0.000503212
0.000413351
0.000337759
0.000274535
0.00022196
0.000178495
0.000142771
0.000113581
8.98705e-05
7.07242e-05
5.53545e-05
4.30893e-05
3.33592e-05
2.56857e-05
1.96697e-05
1.49808e-05
1.13477e-05
8.54901e-06
6.40572e-06
4.77384e-06
3.53852e-06
2.60877e-06
1.91301e-06
1.39533e-06
1.01232e-06
7.30551e-07
5.24427e-07
3.74481e-07
2.66009e-07
1.87971e-07
1.32138e-07
9.24093e-08
6.42931e-08
4.45026e-08
3.06471e-08
2.09984e-08
1.43149e-08
9.70975e-09
6.55321e-09
4.40087e-09
2.94085e-09
1.95554e-09
1.294e-09
8.52086e-10
5.58378e-10
3.64148e-10
2.36344e-10
1.52665e-10
9.8146e-11
6.27994e-11
3.99944e-11
2.53522e-11
1.5996e-11
1.00462e-11
6.28055e-12
3.90847e-12
2.42125e-12
1.49317e-12
9.16688e-13
5.60261e-13
3.40899e-13
2.06508e-13
1.24547e-13
7.47867e-14
4.47117e-14
2.66154e-14
1.5775e-14
9.3098e-15
5.47084e-15
3.20126e-15
1.8653e-15
1.0823e-15
6.25358e-16
3.5983e-16
2.06188e-16
1.17662e-16
6.68692e-17
3.78476e-17
2.13346e-17
1.19776e-17
6.69737e-18
3.7299e-18
2.06897e-18
1.14311e-18
6.29071e-19
3.44828e-19
1.8828e-19
1.02402e-19
5.54789e-20
2.9941e-20
1.60966e-20
8.62058e-21
4.5992e-21
2.44443e-21
1.29429e-21
6.82729e-22
3.58788e-22
1.87848e-22
9.7985e-23
5.09221e-23
2.63665e-23
1.3602e-23
6.99147e-24
3.58058e-24
1.8271e-24
9.28979e-25
4.70639e-25
2.37583e-25
1.19507e-25
5.99005e-26
2.99179e-26
1.48903e-26
7.38499e-27
3.64989e-27
1.79762e-27
8.82289e-28
4.31542e-28
2.1035e-28
1.02182e-28
4.94676e-29
2.38667e-29
1.1476e-29
5.49953e-30
2.62663e-30
1.25031e-30
5.93183e-31
2.80488e-31
1.32191e-31
6.20949e-32
2.90724e-32
1.3567e-32
6.31059e-33
2.92578e-33
1.35209e-33
6.22829e-34
2.85979e-34
1.3089e-34
5.97158e-35
2.71575e-35
1.23116e-35
5.56369e-36
2.50636e-36
1.12554e-36
5.0387e-37
2.24865e-37
1.0004e-37
4.43692e-38
1.96177e-38
8.64725e-39
3.79993e-39
1.66474e-39
7.27098e-40
3.16607e-40
1.37447e-40
5.9489e-41
2.56704e-41
1.1044e-41
4.73724e-42
2.02595e-42
8.63858e-43
3.67258e-43
1.55675e-43
6.57943e-44
2.77259e-44
1.16496e-44
4.88061e-45
2.0388e-45
8.49215e-46
3.52701e-46
1.46065e-46
6.03169e-47
2.48365e-47
1.01977e-47
4.17523e-48
1.70462e-48
6.93977e-49
2.81735e-49
1.14055e-49
4.6044e-50
1.85361e-50
7.44139e-51
2.97909e-51
1.18935e-51
4.73522e-52
1.88006e-52
7.44412e-53
2.93945e-53
1.15753e-53
4.54587e-54
1.78042e-54
6.95432e-55
2.70903e-55
1.05246e-55
4.07783e-56
1.57577e-56
6.0729e-57
2.33424e-57
8.94829e-58
3.42126e-58
1.30463e-58
4.96185e-59
1.88217e-59
7.12098e-60
2.68711e-60
1.01135e-60
3.79654e-61
1.42151e-61
5.30873e-62
1.97748e-62
7.34713e-63
2.72276e-63
1.00645e-63
3.7108e-64
1.36471e-64
5.0062e-65
1.83181e-65
6.68582e-66
2.43409e-66
8.83953e-67
3.20209e-67
1.15706e-67
4.17054e-68
1.49952e-68
5.37817e-69
1.92417e-69
6.86723e-70
2.44485e-70
8.68272e-71
3.07608e-71
1.08712e-71
3.83267e-72
1.34794e-72
4.72916e-73
1.6552e-73
5.7792e-74
2.01298e-74
6.99473e-75
2.42472e-75
8.38523e-76
2.8929e-76
9.9568e-77
3.41882e-77
1.17113e-77
4.00229e-78
1.36455e-78
4.64142e-79
1.57505e-79
5.33238e-80
1.80109e-80
6.06932e-81
2.0405e-81
6.84424e-82
2.2904e-82
7.64708e-83
2.54731e-83
8.46584e-84
2.80714e-84
9.28681e-85
3.06534e-85
1.00949e-85
3.31698e-86
1.08742e-86
3.55691e-87
1.16083e-87
3.77996e-88
1.2281e-88
3.98112e-89
1.28768e-89
4.15567e-90
1.33816e-90
4.29946e-91
1.37834e-91
4.409e-92
1.40723e-92
4.48164e-93
1.42414e-93
4.51565e-94
1.42869e-94
4.51031e-95
1.4208e-95
4.46594e-96
1.40073e-96
4.38385e-97
1.36905e-97
4.26628e-98
1.32662e-98
4.11634e-99
1.27452e-99
3.93783e-100
1.21406e-100
3.73509e-101
1.14667e-101
3.51285e-102
1.07389e-102
3.27603e-103
9.97288e-104
3.02957e-104
9.184e-105
2.77827e-105
8.38708e-106
2.52664e-106
7.59577e-107
2.27877e-107
6.82228e-108
2.03827e-108
6.07713e-109
1.80818e-109
5.36901e-110
1.59095e-110
4.70467e-111
1.38841e-111
4.08902e-112
1.20182e-112
3.52514e-113
1.0319e-113
3.01451e-114
8.78866e-115
2.55714e-115
7.42527e-116
2.15179e-116
6.22327e-117
1.79626e-117
5.17434e-118
1.48757e-118
4.26811e-119
1.22217e-119
3.49279e-120
9.96216e-121
2.83582e-121
8.05657e-122
2.28438e-122
6.46453e-123
1.82581e-123
5.14667e-124
1.44794e-124
4.06565e-125
1.13938e-125
3.18686e-126
8.89649e-127
2.47877e-127
6.89314e-128
1.91321e-128
5.29998e-129
1.46539e-129
4.04393e-130
1.11384e-130
3.06208e-131
8.40203e-132
2.30105e-132
6.28993e-133
1.71611e-133
4.67328e-134
1.27023e-134
3.44607e-135
9.3315e-136
2.52211e-136
6.80401e-137
1.83212e-137
4.92418e-138
1.32101e-138
3.53729e-139
9.45431e-140
2.52223e-140
6.71642e-141
1.78521e-141
4.73633e-142
1.25428e-142
3.31553e-143
8.74811e-144
2.304e-144
6.05699e-145
1.58943e-145
4.16326e-146
1.08853e-146
2.84091e-147
7.40097e-148
1.92458e-148
4.99575e-149
1.29444e-149
3.348e-150
8.64388e-151
2.22769e-151
5.73091e-152
1.47169e-152
3.77257e-153
9.6535e-154
2.46582e-154
6.28735e-155
1.60032e-155
4.06608e-156
1.03129e-156
2.61108e-157
6.59929e-158
1.66499e-158
4.19339e-159
1.05429e-159
2.64603e-160
6.62937e-161
1.65804e-161
4.13964e-162
1.03176e-162
2.56708e-163
6.37604e-164
1.58093e-164
3.91315e-165
9.66923e-166
2.38513e-166
5.87337e-167
1.44384e-167
3.5433e-168
8.68073e-169
2.12307e-169
5.18363e-170
1.26347e-170
3.0744e-171
7.46828e-172
1.81112e-172
4.38469e-173
1.05974e-173
2.557e-174
6.15932e-175
1.48117e-175
3.55591e-176
8.52258e-177
2.03923e-177
4.87122e-178
1.16168e-178
2.76576e-179
6.57387e-180
1.55994e-180
3.69555e-181
8.74041e-182
2.06381e-182
4.86509e-183
1.14499e-183
2.69027e-184
6.31075e-185
1.47794e-185
3.45558e-186
8.06637e-187
1.87987e-187
4.37394e-188
1.01604e-188
2.35639e-189
5.45607e-190
1.26128e-190
2.91099e-191
6.70767e-192
1.54314e-192
3.54437e-193
8.12788e-194
1.86089e-194
4.25372e-195
9.70788e-196
2.21201e-196
5.03222e-197
1.14299e-197
2.59199e-198
5.86865e-199
1.32665e-199
2.99424e-200
6.74734e-201
1.51808e-201
3.41015e-202
7.64839e-203
1.71272e-203
3.82931e-204
8.54826e-205
1.90527e-205
4.23991e-206
9.42068e-207
2.08993e-207
4.62922e-208
1.02379e-208
2.26069e-209
4.98424e-210
1.09721e-210
2.41161e-211
5.29247e-212
1.15969e-212
2.53722e-213
5.54256e-214
1.20892e-214
2.63281e-215
5.72507e-216
1.24302e-216
2.69474e-217
5.83305e-218
1.26071e-218
2.72067e-219
5.86246e-220
1.26133e-220
2.70969e-221
5.81244e-222
1.24493e-222
2.66241e-223
5.68534e-224
1.21223e-224
2.58087e-225
5.48652e-226
1.16461e-226
2.46841e-227
5.22404e-228
1.10395e-228
2.32944e-229
4.90803e-230
1.03257e-230
2.16917e-231
4.55013e-232
9.53048e-233
1.99327e-233
4.16275e-234
8.68073e-235
1.80757e-235
3.75837e-236
7.80311e-237
1.61772e-237
3.34891e-238
6.92266e-239
1.42893e-239
2.94522e-240
6.06171e-241
1.24579e-241
2.55661e-242
5.23911e-243
1.07207e-243
2.19061e-244
4.46973e-245
9.10696e-246
1.85286e-246
3.76434e-247
7.63685e-248
1.5471e-248
3.12971e-249
6.32222e-250
1.27531e-250
2.5689e-251
5.16726e-252
1.0379e-252
2.0818e-253
4.16972e-254
8.33992e-255
1.66572e-255
3.32225e-256
6.61684e-257
1.31601e-257
2.6137e-258
5.18374e-259
1.02665e-259
2.03046e-260
4.01012e-261
7.90886e-262
1.55762e-262
3.06341e-263
6.01645e-264
1.17996e-264
2.3109e-265
4.52171e-266
8.73963e-267
8.73963e-267
1
1
1
1
1
1
1
1
1
1
1
1
1
1
1
1
1
1
1
1
1
1
1
1
1
1
1
1
1
1
1
1
1
1
1
0.999999
0.999999
0.999998
0.999997
0.999996
0.999993
0.999989
0.999983
0.999973
0.999958
0.999937
0.999905
0.999861
0.999798
0.999713
0.999597
0.999443
0.999242
0.998983
0.998654
0.998243
0.997734
0.997112
0.996362
0.995467
0.99441
0.993174
0.991742
0.990099
0.988228
0.986114
0.983746
0.981109
0.978195
0.974992
0.971494
0.967696
0.963592
0.959181
0.954462
0.949435
0.944103
0.93847
0.932541
0.926322
0.91982
0.913045
0.906004
0.898709
0.891169
0.883396
0.875401
0.867196
0.858793
0.850203
0.84144
0.832515
0.823441
0.814229
0.80489
0.795437
0.78588
0.77623
0.766499
0.756696
0.74683
0.736912
0.726951
0.716955
0.706933
0.696892
0.686841
0.676786
0.666734
0.656692
0.646666
0.636661
0.626683
0.616737
0.606828
0.596961
0.587139
0.577366
0.567647
0.557984
0.548381
0.53884
0.529365
0.519957
0.51062
0.501354
0.492163
0.483047
0.47401
0.46505
0.456171
0.447374
0.438659
0.430027
0.421479
0.413016
0.404639
0.396347
0.388142
0.380024
0.371993
0.364049
0.356192
0.348423
0.340741
0.333147
0.32564
0.318221
0.310889
0.303644
0.296485
0.289414
0.282429
0.27553
0.268717
0.261989
0.255347
0.24879
0.242318
0.23593
0.229627
0.223408
0.217272
0.211221
0.205253
0.199368
0.193566
0.187847
0.182211
0.176659
0.171189
0.165802
0.160498
0.155277
0.150139
0.145085
0.140114
0.135227
0.130425
0.125706
0.121073
0.116524
0.112061
0.107685
0.103394
0.0991905
0.0950744
0.0910462
0.0871064
0.0832557
0.0794944
0.0758233
0.0722427
0.0687533
0.0653554
0.0620497
0.0588365
0.0557162
0.0526893
0.0497561
0.0469167
0.0441715
0.0415206
0.0389641
0.0365019
0.0341339
0.0318601
0.0296799
0.0275931
0.0255992
0.0236974
0.021887
0.020167
0.0185365
0.0169942
0.0155387
0.0141686
0.0128821
0.0116775
0.0105527
0.00950558
0.00853387
0.00763509
0.00680661
0.00604568
0.00534941
0.0047148
0.00413873
0.003618
0.00314935
0.00272947
0.00235503
0.00202271
0.00172921
0.00147131
0.00124585
0.00104978
0.000880176
0.000734265
0.000609427
0.000503212
0.000413351
0.000337759
0.000274535
0.00022196
0.000178495
0.000142771
0.000113581
8.98705e-05
7.07242e-05
5.53545e-05
4.30893e-05
3.33592e-05
2.56857e-05
1.96697e-05
1.49808e-05
1.13477e-05
8.54901e-06
6.40572e-06
4.77384e-06
3.53852e-06
2.60877e-06
1.91301e-06
1.39533e-06
1.01232e-06
7.30551e-07
5.24427e-07
3.74481e-07
2.66009e-07
1.87971e-07
1.32138e-07
9.24093e-08
6.42931e-08
4.45026e-08
3.06471e-08
2.09984e-08
1.43149e-08
9.70975e-09
6.55321e-09
4.40087e-09
2.94085e-09
1.95554e-09
1.294e-09
8.52086e-10
5.58378e-10
3.64148e-10
2.36344e-10
1.52665e-10
9.8146e-11
6.27994e-11
3.99944e-11
2.53522e-11
1.5996e-11
1.00462e-11
6.28055e-12
3.90847e-12
2.42125e-12
1.49317e-12
9.16688e-13
5.60261e-13
3.40899e-13
2.06508e-13
1.24547e-13
7.47867e-14
4.47117e-14
2.66154e-14
1.5775e-14
9.3098e-15
5.47084e-15
3.20126e-15
1.8653e-15
1.0823e-15
6.25358e-16
3.5983e-16
2.06188e-16
1.17662e-16
6.68692e-17
3.78476e-17
2.13346e-17
1.19776e-17
6.69737e-18
3.7299e-18
2.06897e-18
1.14311e-18
6.29071e-19
3.44828e-19
1.8828e-19
1.02402e-19
5.54789e-20
2.9941e-20
1.60966e-20
8.62058e-21
4.5992e-21
2.44443e-21
1.29429e-21
6.82729e-22
3.58788e-22
1.87848e-22
9.7985e-23
5.09221e-23
2.63665e-23
1.3602e-23
6.99147e-24
3.58058e-24
1.8271e-24
9.28979e-25
4.70639e-25
2.37583e-25
1.19507e-25
5.99005e-26
2.99179e-26
1.48903e-26
7.38499e-27
3.64989e-27
1.79762e-27
8.82289e-28
4.31542e-28
2.1035e-28
1.02182e-28
4.94676e-29
2.38667e-29
1.1476e-29
5.49953e-30
2.62663e-30
1.25031e-30
5.93183e-31
2.80488e-31
1.32191e-31
6.20949e-32
2.90724e-32
1.3567e-32
6.31059e-33
2.92578e-33
1.35209e-33
6.22829e-34
2.85979e-34
1.3089e-34
5.97158e-35
2.71575e-35
1.23116e-35
5.56369e-36
2.50636e-36
1.12554e-36
5.0387e-37
2.24865e-37
1.0004e-37
4.43692e-38
1.96177e-38
8.64725e-39
3.79993e-39
1.66474e-39
7.27098e-40
3.16607e-40
1.37447e-40
5.9489e-41
2.56704e-41
1.1044e-41
4.73724e-42
2.02595e-42
8.63858e-43
3.67258e-43
1.55675e-43
6.57943e-44
2.77259e-44
1.16496e-44
4.88061e-45
2.0388e-45
8.49215e-46
3.52701e-46
1.46065e-46
6.03169e-47
2.48365e-47
1.01977e-47
4.17523e-48
1.70462e-48
6.93977e-49
2.81735e-49
1.14055e-49
4.6044e-50
1.85361e-50
7.44139e-51
2.97909e-51
1.18935e-51
4.73522e-52
1.88006e-52
7.44412e-53
2.93945e-53
1.15753e-53
4.54587e-54
1.78042e-54
6.95432e-55
2.70903e-55
1.05246e-55
4.07783e-56
1.57577e-56
6.0729e-57
2.33424e-57
8.94829e-58
3.42126e-58
1.30463e-58
4.96185e-59
1.88217e-59
7.12098e-60
2.68711e-60
1.01135e-60
3.79654e-61
1.42151e-61
5.30873e-62
1.97748e-62
7.34713e-63
2.72276e-63
1.00645e-63
3.7108e-64
1.36471e-64
5.0062e-65
1.83181e-65
6.68582e-66
2.43409e-66
8.83953e-67
3.20209e-67
1.15706e-67
4.17054e-68
1.49952e-68
5.37817e-69
1.92417e-69
6.86723e-70
2.44485e-70
8.68272e-71
3.07608e-71
1.08712e-71
3.83267e-72
1.34794e-72
4.72916e-73
1.6552e-73
5.7792e-74
2.01298e-74
6.99473e-75
2.42472e-75
8.38523e-76
2.8929e-76
9.9568e-77
3.41882e-77
1.17113e-77
4.00229e-78
1.36455e-78
4.64142e-79
1.57505e-79
5.33238e-80
1.80109e-80
6.06932e-81
2.0405e-81
6.84424e-82
2.2904e-82
7.64708e-83
2.54731e-83
8.46584e-84
2.80714e-84
9.28681e-85
3.06534e-85
1.00949e-85
3.31698e-86
1.08742e-86
3.55691e-87
1.16083e-87
3.77996e-88
1.2281e-88
3.98112e-89
1.28768e-89
4.15567e-90
1.33816e-90
4.29946e-91
1.37834e-91
4.409e-92
1.40723e-92
4.48164e-93
1.42414e-93
4.51565e-94
1.42869e-94
4.51031e-95
1.4208e-95
4.46594e-96
1.40073e-96
4.38385e-97
1.36905e-97
4.26628e-98
1.32662e-98
4.11634e-99
1.27452e-99
3.93783e-100
1.21406e-100
3.73509e-101
1.14667e-101
3.51285e-102
1.07389e-102
3.27603e-103
9.97288e-104
3.02957e-104
9.184e-105
2.77827e-105
8.38708e-106
2.52664e-106
7.59577e-107
2.27877e-107
6.82228e-108
2.03827e-108
6.07713e-109
1.80818e-109
5.36901e-110
1.59095e-110
4.70467e-111
1.38841e-111
4.08902e-112
1.20182e-112
3.52514e-113
1.0319e-113
3.01451e-114
8.78866e-115
2.55714e-115
7.42527e-116
2.15179e-116
6.22327e-117
1.79626e-117
5.17434e-118
1.48757e-118
4.26811e-119
1.22217e-119
3.49279e-120
9.96216e-121
2.83582e-121
8.05657e-122
2.28438e-122
6.46453e-123
1.82581e-123
5.14667e-124
1.44794e-124
4.06565e-125
1.13938e-125
3.18686e-126
8.89649e-127
2.47877e-127
6.89314e-128
1.91321e-128
5.29998e-129
1.46539e-129
4.04393e-130
1.11384e-130
3.06208e-131
8.40203e-132
2.30105e-132
6.28993e-133
1.71611e-133
4.67328e-134
1.27023e-134
3.44607e-135
9.3315e-136
2.52211e-136
6.80401e-137
1.83212e-137
4.92418e-138
1.32101e-138
3.53729e-139
9.45431e-140
2.52223e-140
6.71642e-141
1.78521e-141
4.73633e-142
1.25428e-142
3.31553e-143
8.74811e-144
2.304e-144
6.05699e-145
1.58943e-145
4.16326e-146
1.08853e-146
2.84091e-147
7.40097e-148
1.92458e-148
4.99575e-149
1.29444e-149
3.348e-150
8.64388e-151
2.22769e-151
5.73091e-152
1.47169e-152
3.77257e-153
9.6535e-154
2.46582e-154
6.28735e-155
1.60032e-155
4.06608e-156
1.03129e-156
2.61108e-157
6.59929e-158
1.66499e-158
4.19339e-159
1.05429e-159
2.64603e-160
6.62937e-161
1.65804e-161
4.13964e-162
1.03176e-162
2.56708e-163
6.37604e-164
1.58093e-164
3.91315e-165
9.66923e-166
2.38513e-166
5.87337e-167
1.44384e-167
3.5433e-168
8.68073e-169
2.12307e-169
5.18363e-170
1.26347e-170
3.0744e-171
7.46828e-172
1.81112e-172
4.38469e-173
1.05974e-173
2.557e-174
6.15932e-175
1.48117e-175
3.55591e-176
8.52258e-177
2.03923e-177
4.87122e-178
1.16168e-178
2.76576e-179
6.57387e-180
1.55994e-180
3.69555e-181
8.74041e-182
2.06381e-182
4.86509e-183
1.14499e-183
2.69027e-184
6.31075e-185
1.47794e-185
3.45558e-186
8.06637e-187
1.87987e-187
4.37394e-188
1.01604e-188
2.35639e-189
5.45607e-190
1.26128e-190
2.91099e-191
6.70767e-192
1.54314e-192
3.54437e-193
8.12788e-194
1.86089e-194
4.25372e-195
9.70788e-196
2.21201e-196
5.03222e-197
1.14299e-197
2.59199e-198
5.86865e-199
1.32665e-199
2.99424e-200
6.74734e-201
1.51808e-201
3.41015e-202
7.64839e-203
1.71272e-203
3.82931e-204
8.54826e-205
1.90527e-205
4.23991e-206
9.42068e-207
2.08993e-207
4.62922e-208
1.02379e-208
2.26069e-209
4.98424e-210
1.09721e-210
2.41161e-211
5.29247e-212
1.15969e-212
2.53722e-213
5.54256e-214
1.20892e-214
2.63281e-215
5.72507e-216
1.24302e-216
2.69474e-217
5.83305e-218
1.26071e-218
2.72067e-219
5.86246e-220
1.26133e-220
2.70969e-221
5.81244e-222
1.24493e-222
2.66241e-223
5.68534e-224
1.21223e-224
2.58087e-225
5.48652e-226
1.16461e-226
2.46841e-227
5.22404e-228
1.10395e-228
2.32944e-229
4.90803e-230
1.03257e-230
2.16917e-231
4.55013e-232
9.53048e-233
1.99327e-233
4.16275e-234
8.68073e-235
1.80757e-235
3.75837e-236
7.80311e-237
1.61772e-237
3.34891e-238
6.92266e-239
1.42893e-239
2.94522e-240
6.06171e-241
1.24579e-241
2.55661e-242
5.23911e-243
1.07207e-243
2.19061e-244
4.46973e-245
9.10696e-246
1.85286e-246
3.76434e-247
7.63685e-248
1.5471e-248
3.12971e-249
6.32222e-250
1.27531e-250
2.5689e-251
5.16726e-252
1.0379e-252
2.0818e-253
4.16972e-254
8.33992e-255
1.66572e-255
3.32225e-256
6.61684e-257
1.31601e-257
2.6137e-258
5.18374e-259
1.02665e-259
2.03046e-260
4.01012e-261
7.90886e-262
1.55762e-262
3.06341e-263
6.01645e-264
1.17996e-264
2.3109e-265
4.52171e-266
8.73963e-267
8.73963e-267
1
1
1
1
1
1
1
1
1
1
1
1
1
1
1
1
1
1
1
1
1
1
1
1
1
1
1
1
1
1
1
1
1
1
1
0.999999
0.999999
0.999998
0.999997
0.999996
0.999993
0.999989
0.999983
0.999973
0.999959
0.999938
0.999907
0.999863
0.999802
0.999718
0.999604
0.999452
0.999254
0.998999
0.998675
0.998268
0.997766
0.997152
0.996411
0.995525
0.99448
0.993256
0.991839
0.990211
0.988356
0.986262
0.983912
0.981297
0.978404
0.975225
0.971752
0.967978
0.963901
0.959517
0.954825
0.949826
0.944523
0.938918
0.933018
0.926828
0.920355
0.913609
0.906597
0.899329
0.891818
0.884072
0.876104
0.867925
0.859548
0.850984
0.842245
0.833344
0.824292
0.815101
0.805784
0.796351
0.786814
0.777183
0.767469
0.757683
0.747834
0.737931
0.727984
0.718002
0.707993
0.697964
0.687924
0.677879
0.667837
0.657804
0.647786
0.637789
0.627818
0.617879
0.607976
0.598113
0.588296
0.578527
0.568812
0.559152
0.549551
0.540012
0.530538
0.521132
0.511795
0.50253
0.493338
0.484222
0.475183
0.466223
0.457342
0.448543
0.439826
0.431191
0.422641
0.414175
0.405794
0.397499
0.38929
0.381168
0.373132
0.365184
0.357323
0.349549
0.341862
0.334263
0.326751
0.319326
0.311988
0.304737
0.297573
0.290496
0.283504
0.276599
0.269779
0.263045
0.256397
0.249833
0.243354
0.236959
0.230649
0.224422
0.21828
0.21222
0.206245
0.200352
0.194542
0.188815
0.183171
0.17761
0.172132
0.166736
0.161423
0.156193
0.151046
0.145982
0.141002
0.136105
0.131292
0.126564
0.12192
0.11736
0.112886
0.108498
0.104196
0.0999805
0.0958522
0.0918115
0.087859
0.0839952
0.0802206
0.0765358
0.0729413
0.0694376
0.0660252
0.0627046
0.0594763
0.0563406
0.053298
0.0503488
0.0474932
0.0447316
0.042064
0.0394905
0.0370112
0.034626
0.0323346
0.0301369
0.0280324
0.0260207
0.024101
0.0222728
0.020535
0.0188867
0.0173266
0.0158536
0.014466
0.0131623
0.0119407
0.0107992
0.00973579
0.00874812
0.00783378
0.00699022
0.00621472
0.00550443
0.00485638
0.00426749
0.0037346
0.00325445
0.00282377
0.00243923
0.00209752
0.00179534
0.00152947
0.00129672
0.00109404
0.000918482
0.00076723
0.000637635
0.000527213
0.000433655
0.000354836
0.000288814
0.00023383
0.000188304
0.000150829
0.000120161
9.5212e-05
7.50344e-05
5.88119e-05
4.58461e-05
3.55443e-05