# vtk DataFile Version 2.0
FlowField
ASCII
DATASET STRUCTURED_GRID
DIMENSIONS 800 1 200
POINTS 160000 float
0 0 0
0.04 0 0
0.08 0 0
0.12 0 0
0.16 0 0
0.2 0 0
0.24 0 0
0.28 0 0
0.32 0 0
0.36 0 0
0.4 0 0
0.44 0 0
0.48 0 0
0.52 0 0
0.56 0 0
0.6 0 0
0.64 0 0
0.68 0 0
0.72 0 0
0.76 0 0
0.8 0 0
0.84 0 0
0.88 0 0
0.92 0 0
0.96 0 0
1 0 0
1.04 0 0
1.08 0 0
1.12 0 0
1.16 0 0
1.2 0 0
1.24 0 0
1.28 0 0
1.32 0 0
1.36 0 0
1.4 0 0
1.44 0 0
1.48 0 0
1.52 0 0
1.56 0 0
1.6 0 0
1.64 0 0
1.68 0 0
1.72 0 0
1.76 0 0
1.8 0 0
1.84 0 0
1.88 0 0
1.92 0 0
1.96 0 0
2 0 0
2.04 0 0
2.08 0 0
2.12 0 0
2.16 0 0
2.2 0 0
2.24 0 0
2.28 0 0
2.32 0 0
2.36 0 0
2.4 0 0
2.44 0 0
2.48 0 0
2.52 0 0
2.56 0 0
2.6 0 0
2.64 0 0
2.68 0 0
2.72 0 0
2.76 0 0
2.8 0 0
2.84 0 0
2.88 0 0
2.92 0 0
2.96 0 0
3 0 0
3.04 0 0
3.08 0 0
3.12 0 0
3.16 0 0
3.2 0 0
3.24 0 0
3.28 0 0
3.32 0 0
3.36 0 0
3.4 0 0
3.44 0 0
3.48 0 0
3.52 0 0
3.56 0 0
3.6 0 0
3.64 0 0
3.68 0 0
3.72 0 0
3.76 0 0
3.8 0 0
3.84 0 0
3.88 0 0
3.92 0 0
3.96 0 0
4 0 0
4.04 0 0
4.08 0 0
4.12 0 0
4.16 0 0
4.2 0 0
4.24 0 0
4.28 0 0
4.32 0 0
4.36 0 0
4.4 0 0
4.44 0 0
4.48 0 0
4.52 0 0
4.56 0 0
4.6 0 0
4.64 0 0
4.68 0 0
4.72 0 0
4.76 0 0
4.8 0 0
4.84 0 0
4.88 0 0
4.92 0 0
4.96 0 0
5 0 0
5.04 0 0
5.08 0 0
5.12 0 0
5.16 0 0
5.2 0 0
5.24 0 0
5.28 0 0
5.32 0 0
5.36 0 0
5.4 0 0
5.44 0 0
5.48 0 0
5.52 0 0
5.56 0 0
5.6 0 0
5.64 0 0
5.68 0 0
5.72 0 0
5.76 0 0
5.8 0 0
5.84 0 0
5.88 0 0
5.92 0 0
5.96 0 0
6 0 0
6.04 0 0
6.08 0 0
6.12 0 0
6.16 0 0
6.2 0 0
6.24 0 0
6.28 0 0
6.32 0 0
6.36 0 0
6.4 0 0
6.44 0 0
6.48 0 0
6.52 0 0
6.56 0 0
6.6 0 0
6.64 0 0
6.68 0 0
6.72 0 0
6.76 0 0
6.8 0 0
6.84 0 0
6.88 0 0
6.92 0 0
6.96 0 0
7 0 0
7.04 0 0
7.08 0 0
7.12 0 0
7.16 0 0
7.2 0 0
7.24 0 0
7.28 0 0
7.32 0 0
7.36 0 0
7.4 0 0
7.44 0 0
7.48 0 0
7.52 0 0
7.56 0 0
7.6 0 0
7.64 0 0
7.68 0 0
7.72 0 0
7.76 0 0
7.8 0 0
7.84 0 0
7.88 0 0
7.92 0 0
7.96 0 0
8 0 0
8.04 0 0
8.08 0 0
8.12 0 0
8.16 0 0
8.2 0 0
8.24 0 0
8.28 0 0
8.32 0 0
8.36 0 0
8.4 0 0
8.44 0 0
8.48 0 0
8.52 0 0
8.56 0 0
8.6 0 0
8.64 0 0
8.68 0 0
8.72 0 0
8.76 0 0
8.8 0 0
8.84 0 0
8.88 0 0
8.92 0 0
8.96 0 0
9 0 0
9.04 0 0
9.08 0 0
9.12 0 0
9.16 0 0
9.2 0 0
9.24 0 0
9.28 0 0
9.32 0 0
9.36 0 0
9.4 0 0
9.44 0 0
9.48 0 0
9.52 0 0
9.56 0 0
9.6 0 0
9.64 0 0
9.68 0 0
9.72 0 0
9.76 0 0
9.8 0 0
9.84 0 0
9.88 0 0
9.92 0 0
9.96 0 0
10 0 0
10.04 0 0
10.08 0 0
10.12 0 0
10.16 0 0
10.2 0 0
10.24 0 0
10.28 0 0
10.32 0 0
10.36 0 0
10.4 0 0
10.44 0 0
10.48 0 0
10.52 0 0
10.56 0 0
10.6 0 0
10.64 0 0
10.68 0 0
10.72 0 0
10.76 0 0
10.8 0 0
10.84 0 0
10.88 0 0
10.92 0 0
10.96 0 0
11 0 0
11.04 0 0
11.08 0 0
11.12 0 0
11.16 0 0
11.2 0 0
11.24 0 0
11.28 0 0
11.32 0 0
11.36 0 0
11.4 0 0
11.44 0 0
11.48 0 0
11.52 0 0
11.56 0 0
11.6 0 0
11.64 0 0
11.68 0 0
11.72 0 0
11.76 0 0
11.8 0 0
11.84 0 0
11.88 0 0
11.92 0 0
11.96 0 0
12 0 0
12.04 0 0
12.08 0 0
12.12 0 0
12.16 0 0
12.2 0 0
12.24 0 0
12.28 0 0
12.32 0 0
12.36 0 0
12.4 0 0
12.44 0 0
12.48 0 0
12.52 0 0
12.56 0 0
12.6 0 0
12.64 0 0
12.68 0 0
12.72 0 0
12.76 0 0
12.8 0 0
12.84 0 0
12.88 0 0
12.92 0 0
12.96 0 0
13 0 0
13.04 0 0
13.08 0 0
13.12 0 0
13.16 0 0
13.2 0 0
13.24 0 0
13.28 0 0
13.32 0 0
13.36 0 0
13.4 0 0
13.44 0 0
13.48 0 0
13.52 0 0
13.56 0 0
13.6 0 0
13.64 0 0
13.68 0 0
13.72 0 0
13.76 0 0
13.8 0 0
13.84 0 0
13.88 0 0
13.92 0 0
13.96 0 0
14 0 0
14.04 0 0
14.08 0 0
14.12 0 0
14.16 0 0
14.2 0 0
14.24 0 0
14.28 0 0
14.32 0 0
14.36 0 0
14.4 0 0
14.44 0 0
14.48 0 0
14.52 0 0
14.56 0 0
14.6 0 0
14.64 0 0
14.68 0 0
14.72 0 0
14.76 0 0
14.8 0 0
14.84 0 0
14.88 0 0
14.92 0 0
14.96 0 0
15 0 0
15.04 0 0
15.08 0 0
15.12 0 0
15.16 0 0
15.2 0 0
15.24 0 0
15.28 0 0
15.32 0 0
15.36 0 0
15.4 0 0
15.44 0 0
15.48 0 0
15.52 0 0
15.56 0 0
15.6 0 0
15.64 0 0
15.68 0 0
15.72 0 0
15.76 0 0
15.8 0 0
15.84 0 0
15.88 0 0
15.92 0 0
15.96 0 0
16 0 0
16.04 0 0
16.08 0 0
16.12 0 0
16.16 0 0
16.2 0 0
16.24 0 0
16.28 0 0
16.32 0 0
16.36 0 0
16.4 0 0
16.44 0 0
16.48 0 0
16.52 0 0
16.56 0 0
16.6 0 0
16.64 0 0
16.68 0 0
16.72 0 0
16.76 0 0
16.8 0 0
16.84 0 0
16.88 0 0
16.92 0 0
16.96 0 0
17 0 0
17.04 0 0
17.08 0 0
17.12 0 0
17.16 0 0
17.2 0 0
17.24 0 0
17.28 0 0
17.32 0 0
17.36 0 0
17.4 0 0
17.44 0 0
17.48 0 0
17.52 0 0
17.56 0 0
17.6 0 0
17.64 0 0
17.68 0 0
17.72 0 0
17.76 0 0
17.8 0 0
17.84 0 0
17.88 0 0
17.92 0 0
17.96 0 0
18 0 0
18.04 0 0
18.08 0 0
18.12 0 0
18.16 0 0
18.2 0 0
18.24 0 0
18.28 0 0
18.32 0 0
18.36 0 0
18.4 0 0
18.44 0 0
18.48 0 0
18.52 0 0
18.56 0 0
18.6 0 0
18.64 0 0
18.68 0 0
18.72 0 0
18.76 0 0
18.8 0 0
18.84 0 0
18.88 0 0
18.92 0 0
18.96 0 0
19 0 0
19.04 0 0
19.08 0 0
19.12 0 0
19.16 0 0
19.2 0 0
19.24 0 0
19.28 0 0
19.32 0 0
19.36 0 0
19.4 0 0
19.44 0 0
19.48 0 0
19.52 0 0
19.56 0 0
19.6 0 0
19.64 0 0
19.68 0 0
19.72 0 0
19.76 0 0
19.8 0 0
19.84 0 0
19.88 0 0
19.92 0 0
19.96 0 0
20 0 0
20.04 0 0
20.08 0 0
20.12 0 0
20.16 0 0
20.2 0 0
20.24 0 0
20.28 0 0
20.32 0 0
20.36 0 0
20.4 0 0
20.44 0 0
20.48 0 0
20.52 0 0
20.56 0 0
20.6 0 0
20.64 0 0
20.68 0 0
20.72 0 0
20.76 0 0
20.8 0 0
20.84 0 0
20.88 0 0
20.92 0 0
20.96 0 0
21 0 0
21.04 0 0
21.08 0 0
21.12 0 0
21.16 0 0
21.2 0 0
21.24 0 0
21.28 0 0
21.32 0 0
21.36 0 0
21.4 0 0
21.44 0 0
21.48 0 0
21.52 0 0
21.56 0 0
21.6 0 0
21.64 0 0
21.68 0 0
21.72 0 0
21.76 0 0
21.8 0 0
21.84 0 0
21.88 0 0
21.92 0 0
21.96 0 0
22 0 0
22.04 0 0
22.08 0 0
22.12 0 0
22.16 0 0
22.2 0 0
22.24 0 0
22.28 0 0
22.32 0 0
22.36 0 0
22.4 0 0
22.44 0 0
22.48 0 0
22.52 0 0
22.56 0 0
22.6 0 0
22.64 0 0
22.68 0 0
22.72 0 0
22.76 0 0
22.8 0 0
22.84 0 0
22.88 0 0
22.92 0 0
22.96 0 0
23 0 0
23.04 0 0
23.08 0 0
23.12 0 0
23.16 0 0
23.2 0 0
23.24 0 0
23.28 0 0
23.32 0 0
23.36 0 0
23.4 0 0
23.44 0 0
23.48 0 0
23.52 0 0
23.56 0 0
23.6 0 0
23.64 0 0
23.68 0 0
23.72 0 0
23.76 0 0
23.8 0 0
23.84 0 0
23.88 0 0
23.92 0 0
23.96 0 0
24 0 0
24.04 0 0
24.08 0 0
24.12 0 0
24.16 0 0
24.2 0 0
24.24 0 0
24.28 0 0
24.32 0 0
24.36 0 0
24.4 0 0
24.44 0 0
24.48 0 0
24.52 0 0
24.56 0 0
24.6 0 0
24.64 0 0
24.68 0 0
24.72 0 0
24.76 0 0
24.8 0 0
24.84 0 0
24.88 0 0
24.92 0 0
24.96 0 0
25 0 0
25.04 0 0
25.08 0 0
25.12 0 0
25.16 0 0
25.2 0 0
25.24 0 0
25.28 0 0
25.32 0 0
25.36 0 0
25.4 0 0
25.44 0 0
25.48 0 0
25.52 0 0
25.56 0 0
25.6 0 0
25.64 0 0
25.68 0 0
25.72 0 0
25.76 0 0
25.8 0 0
25.84 0 0
25.88 0 0
25.92 0 0
25.96 0 0
26 0 0
26.04 0 0
26.08 0 0
26.12 0 0
26.16 0 0
26.2 0 0
26.24 0 0
26.28 0 0
26.32 0 0
26.36 0 0
26.4 0 0
26.44 0 0
26.48 0 0
26.52 0 0
26.56 0 0
26.6 0 0
26.64 0 0
26.68 0 0
26.72 0 0
26.76 0 0
26.8 0 0
26.84 0 0
26.88 0 0
26.92 0 0
26.96 0 0
27 0 0
27.04 0 0
27.08 0 0
27.12 0 0
27.16 0 0
27.2 0 0
27.24 0 0
27.28 0 0
27.32 0 0
27.36 0 0
27.4 0 0
27.44 0 0
27.48 0 0
27.52 0 0
27.56 0 0
27.6 0 0
27.64 0 0
27.68 0 0
27.72 0 0
27.76 0 0
27.8 0 0
27.84 0 0
27.88 0 0
27.92 0 0
27.96 0 0
28 0 0
28.04 0 0
28.08 0 0
28.12 0 0
28.16 0 0
28.2 0 0
28.24 0 0
28.28 0 0
28.32 0 0
28.36 0 0
28.4 0 0
28.44 0 0
28.48 0 0
28.52 0 0
28.56 0 0
28.6 0 0
28.64 0 0
28.68 0 0
28.72 0 0
28.76 0 0
28.8 0 0
28.84 0 0
28.88 0 0
28.92 0 0
28.96 0 0
29 0 0
29.04 0 0
29.08 0 0
29.12 0 0
29.16 0 0
29.2 0 0
29.24 0 0
29.28 0 0
29.32 0 0
29.36 0 0
29.4 0 0
29.44 0 0
29.48 0 0
29.52 0 0
29.56 0 0
29.6 0 0
29.64 0 0
29.68 0 0
29.72 0 0
29.76 0 0
29.8 0 0
29.84 0 0
29.88 0 0
29.92 0 0
29.96 0 0
30 0 0
30.04 0 0
30.08 0 0
30.12 0 0
30.16 0 0
30.2 0 0
30.24 0 0
30.28 0 0
30.32 0 0
30.36 0 0
30.4 0 0
30.44 0 0
30.48 0 0
30.52 0 0
30.56 0 0
30.6 0 0
30.64 0 0
30.68 0 0
30.72 0 0
30.76 0 0
30.8 0 0
30.84 0 0
30.88 0 0
30.92 0 0
30.96 0 0
31 0 0
31.04 0 0
31.08 0 0
31.12 0 0
31.16 0 0
31.2 0 0
31.24 0 0
31.28 0 0
31.32 0 0
31.36 0 0
31.4 0 0
31.44 0 0
31.48 0 0
31.52 0 0
31.56 0 0
31.6 0 0
31.64 0 0
31.68 0 0
31.72 0 0
31.76 0 0
31.8 0 0
31.84 0 0
31.88 0 0
31.92 0 0
31.96 0 0
0 0.005 0
0.04 0.005 0
0.08 0.005 0
0.12 0.005 0
0.16 0.005 0
0.2 0.005 0
0.24 0.005 0
0.28 0.005 0
0.32 0.005 0
0.36 0.005 0
0.4 0.005 0
0.44 0.005 0
0.48 0.005 0
0.52 0.005 0
0.56 0.005 0
0.6 0.005 0
0.64 0.005 0
0.68 0.005 0
0.72 0.005 0
0.76 0.005 0
0.8 0.005 0
0.84 0.005 0
0.88 0.005 0
0.92 0.005 0
0.96 0.005 0
1 0.005 0
1.04 0.005 0
1.08 0.005 0
1.12 0.005 0
1.16 0.005 0
1.2 0.005 0
1.24 0.005 0
1.28 0.005 0
1.32 0.005 0
1.36 0.005 0
1.4 0.005 0
1.44 0.005 0
1.48 0.005 0
1.52 0.005 0
1.56 0.005 0
1.6 0.005 0
1.64 0.005 0
1.68 0.005 0
1.72 0.005 0
1.76 0.005 0
1.8 0.005 0
1.84 0.005 0
1.88 0.005 0
1.92 0.005 0
1.96 0.005 0
2 0.005 0
2.04 0.005 0
2.08 0.005 0
2.12 0.005 0
2.16 0.005 0
2.2 0.005 0
2.24 0.005 0
2.28 0.005 0
2.32 0.005 0
2.36 0.005 0
2.4 0.005 0
2.44 0.005 0
2.48 0.005 0
2.52 0.005 0
2.56 0.005 0
2.6 0.005 0
2.64 0.005 0
2.68 0.005 0
2.72 0.005 0
2.76 0.005 0
2.8 0.005 0
2.84 0.005 0
2.88 0.005 0
2.92 0.005 0
2.96 0.005 0
3 0.005 0
3.04 0.005 0
3.08 0.005 0
3.12 0.005 0
3.16 0.005 0
3.2 0.005 0
3.24 0.005 0
3.28 0.005 0
3.32 0.005 0
3.36 0.005 0
3.4 0.005 0
3.44 0.005 0
3.48 0.005 0
3.52 0.005 0
3.56 0.005 0
3.6 0.005 0
3.64 0.005 0
3.68 0.005 0
3.72 0.005 0
3.76 0.005 0
3.8 0.005 0
3.84 0.005 0
3.88 0.005 0
3.92 0.005 0
3.96 0.005 0
4 0.005 0
4.04 0.005 0
4.08 0.005 0
4.12 0.005 0
4.16 0.005 0
4.2 0.005 0
4.24 0.005 0
4.28 0.005 0
4.32 0.005 0
4.36 0.005 0
4.4 0.005 0
4.44 0.005 0
4.48 0.005 0
4.52 0.005 0
4.56 0.005 0
4.6 0.005 0
4.64 0.005 0
4.68 0.005 0
4.72 0.005 0
4.76 0.005 0
4.8 0.005 0
4.84 0.005 0
4.88 0.005 0
4.92 0.005 0
4.96 0.005 0
5 0.005 0
5.04 0.005 0
5.08 0.005 0
5.12 0.005 0
5.16 0.005 0
5.2 0.005 0
5.24 0.005 0
5.28 0.005 0
5.32 0.005 0
5.36 0.005 0
5.4 0.005 0
5.44 0.005 0
5.48 0.005 0
5.52 0.005 0
5.56 0.005 0
5.6 0.005 0
5.64 0.005 0
5.68 0.005 0
5.72 0.005 0
5.76 0.005 0
5.8 0.005 0
5.84 0.005 0
5.88 0.005 0
5.92 0.005 0
5.96 0.005 0
6 0.005 0
6.04 0.005 0
6.08 0.005 0
6.12 0.005 0
6.16 0.005 0
6.2 0.005 0
6.24 0.005 0
6.28 0.005 0
6.32 0.005 0
6.36 0.005 0
6.4 0.005 0
6.44 0.005 0
6.48 0.005 0
6.52 0.005 0
6.56 0.005 0
6.6 0.005 0
6.64 0.005 0
6.68 0.005 0
6.72 0.005 0
6.76 0.005 0
6.8 0.005 0
6.84 0.005 0
6.88 0.005 0
6.92 0.005 0
6.96 0.005 0
7 0.005 0
7.04 0.005 0
7.08 0.005 0
7.12 0.005 0
7.16 0.005 0
7.2 0.005 0
7.24 0.005 0
7.28 0.005 0
7.32 0.005 0
7.36 0.005 0
7.4 0.005 0
[...]
POINT_DATA 160000

SCALARS u float 1
LOOKUP_TABLE default
-1
-0.483358
-0.183963
-0.108845
-0.0810329
-0.0668336
-0.058118
-0.0521525
-0.0477773
-0.0444144
-0.0417411
-0.0395613
-0.0377481
-0.0362151
-0.0349013
-0.0337622
-0.0327645
-0.0318828
-0.0310972
-0.0303921
-0.0297551
-0.0291761
-0.028647
-0.0281609
-0.0277123
-0.0272965
-0.0269097
-0.0265485
-0.0262101
-0.0258922
-0.0255926
-0.0253097
-0.0250419
-0.0247877
-0.0245462
-0.0243162
-0.0240967
-0.0238871
-0.0236866
-0.0234945
-0.0233103
-0.0231334
-0.0229634
-0.0227998
-0.0226422
-0.0224903
-0.0223438
-0.0222023
-0.0220656
-0.0219334
-0.0218055
-0.0216816
-0.0215616
-0.0214453
-0.0213325
-0.021223
-0.0211166
-0.0210133
-0.0209129
-0.0208152
-0.0207202
-0.0206277
-0.0205377
-0.02045
-0.0203645
-0.0202811
-0.0201999
-0.0201206
-0.0200432
-0.0199676
-0.0198938
-0.0198217
-0.0197513
-0.0196824
-0.0196151
-0.0195492
-0.0194848
-0.0194217
-0.01936
-0.0192995
-0.0192403
-0.0191823
-0.0191255
-0.0190698
-0.0190152
-0.0189616
-0.0189091
-0.0188576
-0.0188071
-0.0187575
-0.0187088
-0.018661
-0.0186141
-0.018568
-0.0185228
-0.0184783
-0.0184346
-0.0183917
-0.0183494
-0.018308
-0.0182672
-0.018227
-0.0181876
-0.0181488
-0.0181106
-0.018073
-0.018036
-0.0179996
-0.0179638
-0.0179285
-0.0178938
-0.0178596
-0.0178259
-0.0177928
-0.0177601
-0.0177279
-0.0176962
-0.017665
-0.0176342
-0.0176038
-0.0175739
-0.0175444
-0.0175153
-0.0174867
-0.0174584
-0.0174305
-0.017403
-0.0173759
-0.0173492
-0.0173228
-0.0172967
-0.017271
-0.0172457
-0.0172207
-0.017196
-0.0171716
-0.0171476
-0.0171238
-0.0171004
-0.0170773
-0.0170544
-0.0170319
-0.0170096
-0.0169876
-0.0169659
-0.0169444
-0.0169232
-0.0169023
-0.0168816
-0.0168612
-0.016841
-0.0168211
-0.0168014
-0.0167819
-0.0167627
-0.0167437
-0.0167249
-0.0167064
-0.016688
-0.0166699
-0.016652
-0.0166343
-0.0166168
-0.0165995
-0.0165824
-0.0165655
-0.0165487
-0.0165322
-0.0165159
-0.0164997
-0.0164837
-0.0164679
-0.0164523
-0.0164368
-0.0164215
-0.0164064
-0.0163915
-0.0163767
-0.0163621
-0.0163476
-0.0163333
-0.0163192
-0.0163052
-0.0162913
-0.0162776
-0.0162641
-0.0162507
-0.0162374
-0.0162243
-0.0162113
-0.0161985
-0.0161858
-0.0161732
-0.0161608
-0.0161484
-0.0161363
-0.0161242
-0.0161123
-0.0161005
-0.0160888
-0.0160773
-0.0160658
-0.0160545
-0.0160433
-0.0160322
-0.0160213
-0.0160104
-0.0159996
-0.015989
-0.0159785
-0.0159681
-0.0159578
-0.0159475
-0.0159374
-0.0159274
-0.0159175
-0.0159077
-0.015898
-0.0158884
-0.0158789
-0.0158695
-0.0158602
-0.015851
-0.0158419
-0.0158328
-0.0158239
-0.015815
-0.0158063
-0.0157976
-0.015789
-0.0157805
-0.0157721
-0.0157637
-0.0157555
-0.0157473
-0.0157392
-0.0157312
-0.0157233
-0.0157154
-0.0157076
-0.0156999
-0.0156923
-0.0156847
-0.0156773
-0.0156699
-0.0156625
-0.0156553
-0.0156481
-0.015641
-0.0156339
-0.0156269
-0.01562
-0.0156132
-0.0156064
-0.0155997
-0.0155931
-0.0155865
-0.01558
-0.0155735
-0.0155671
-0.0155608
-0.0155545
-0.0155483
-0.0155422
-0.0155361
-0.01553
-0.0155241
-0.0155182
-0.0155123
-0.0155065
-0.0155007
-0.0154951
-0.0154894
-0.0154838
-0.0154783
-0.0154728
-0.0154674
-0.015462
-0.0154567
-0.0154515
-0.0154462
-0.0154411
-0.0154359
-0.0154309
-0.0154258
-0.0154209
-0.0154159
-0.0154111
-0.0154062
-0.0154014
-0.0153967
-0.015392
-0.0153873
-0.0153827
-0.0153782
-0.0153737
-0.0153692
-0.0153647
-0.0153604
-0.015356
-0.0153517
-0.0153474
-0.0153432
-0.015339
-0.0153349
-0.0153308
-0.0153267
-0.0153227
-0.0153188
-0.0153148
-0.0153109
-0.0153071
-0.0153033
-0.0152995
-0.0152957
-0.015292
-0.0152884
-0.0152848
-0.0152812
-0.0152777
-0.0152742
-0.0152707
-0.0152673
-0.0152639
-0.0152606
-0.0152572
-0.015254
-0.0152508
-0.0152476
-0.0152444
-0.0152413
-0.0152382
-0.0152352
-0.0152322
-0.0152292
-0.0152263
-0.0152234
-0.0152206
-0.0152178
-0.015215
-0.0152123
-0.0152096
-0.015207
-0.0152043
-0.0152018
-0.0151992
-0.0151967
-0.0151942
-0.0151918
-0.0151894
-0.0151871
-0.0151847
-0.0151825
-0.0151802
-0.015178
-0.0151758
-0.0151737
-0.0151716
-0.0151695
-0.0151675
-0.0151655
-0.0151635
-0.0151616
-0.0151597
-0.0151578
-0.015156
-0.0151542
-0.0151524
-0.0151507
-0.015149
-0.0151473
-0.0151457
-0.0151441
-0.0151425
-0.015141
-0.0151395
-0.015138
-0.0151365
-0.0151351
-0.0151337
-0.0151324
-0.015131
-0.0151297
-0.0151284
-0.0151272
-0.0151259
-0.0151247
-0.0151236
-0.0151224
-0.0151213
-0.0151202
-0.0151191
-0.0151181
-0.015117
-0.015116
-0.015115
-0.0151141
-0.0151131
-0.0151122
-0.0151113
-0.0151104
-0.0151096
-0.0151087
-0.0151079
-0.0151071
-0.0151063
-0.0151056
-0.0151048
-0.0151041
-0.0151034
-0.0151027
-0.015102
-0.0151013
-0.0151007
-0.0151
-0.0150994
-0.0150988
-0.0150982
-0.0150976
-0.015097
-0.0150965
-0.0150959
-0.0150954
-0.0150949
-0.0150943
-0.0150938
-0.0150933
-0.0150929
-0.0150924
-0.0150919
-0.0150915
-0.015091
-0.0150906
-0.0150901
-0.0150897
-0.0150893
-0.0150889
-0.0150885
-0.0150881
-0.0150877
-0.0150873
-0.0150869
-0.0150865
-0.0150861
-0.0150858
-0.0150854
-0.015085
-0.0150847
-0.0150843
-0.015084
-0.0150836
-0.0150833
-0.015083
-0.0150826
-0.0150823
-0.015082
-0.0150816
-0.0150813
-0.015081
-0.0150806
-0.0150803
-0.01508
-0.0150797
-0.0150794
-0.0150791
-0.0150787
-0.0150784
-0.0150781
-0.0150778
-0.0150775
-0.0150772
-0.0150769
-0.0150766
-0.0150762
-0.0150759
-0.0150756
-0.0150753
-0.015075
-0.0150747
-0.0150744
-0.0150741
-0.0150738
-0.0150735
-0.0150732
-0.0150729
-0.0150726
-0.0150723
-0.0150719
-0.0150716
-0.0150713
-0.015071
-0.0150707
-0.0150704
-0.0150701
-0.0150698
-0.0150695
-0.0150692
-0.0150689
-0.0150686
-0.0150683
-0.015068
-0.0150677
-0.0150674
-0.0150671
-0.0150667
-0.0150664
-0.0150661
-0.0150658
-0.0150655
-0.0150652
-0.0150649
-0.0150646
-0.0150643
-0.015064
-0.0150637
-0.0150634
-0.0150631
-0.0150628
-0.0150625
-0.0150622
-0.0150619
-0.0150615
-0.0150612
-0.0150609
-0.0150606
-0.0150603
-0.01506
-0.0150597
-0.0150594
-0.0150591
-0.0150588
-0.0150585
-0.0150582
-0.0150579
-0.0150576
-0.0150573
-0.015057
-0.0150566
-0.0150563
-0.015056
-0.0150557
-0.0150554
-0.0150551
-0.0150548
-0.0150545
-0.0150542
-0.0150539
-0.0150536
-0.0150533
-0.015053
-0.0150527
-0.0150524
-0.0150521
-0.0150518
-0.0150514
-0.0150511
-0.0150508
-0.0150505
-0.0150502
-0.0150499
-0.0150496
-0.0150493
-0.015049
-0.0150487
-0.0150484
-0.0150481
-0.0150478
-0.0150475
-0.0150472
-0.0150469
-0.0150466
-0.0150462
-0.0150459
-0.0150456
-0.0150453
-0.015045
-0.0150447
-0.0150444
-0.0150441
-0.0150438
-0.0150435
-0.0150432
-0.0150429
-0.0150426
-0.0150423
-0.015042
-0.0150417
-0.0150414
-0.015041
-0.0150407
-0.0150404
-0.0150401
-0.0150398
-0.0150395
-0.0150392
-0.0150389
-0.0150386
-0.0150383
-0.015038
-0.0150377
-0.0150374
-0.0150371
-0.0150368
-0.0150365
-0.0150362
-0.0150358
-0.0150355
-0.0150352
-0.0150349
-0.0150346
-0.0150343
-0.015034
-0.0150337
-0.0150334
-0.0150331
-0.0150328
-0.0150325
-0.0150322
-0.0150319
-0.0150316
-0.0150313
-0.015031
-0.0150306
-0.0150303
-0.01503
-0.0150297
-0.0150294
-0.0150291
-0.0150288
-0.0150285
-0.0150282
-0.0150279
-0.0150276
-0.0150273
-0.015027
-0.0150267
-0.0150264
-0.0150261
-0.0150258
-0.0150254
-0.0150251
-0.0150248
-0.0150245
-0.0150242
-0.0150239
-0.0150236
-0.0150233
-0.015023
-0.0150227
-0.0150224
-0.0150221
-0.0150218
-0.0150215
-0.0150212
-0.0150209
-0.0150206
-0.0150202
-0.0150199
-0.0150196
-0.0150193
-0.015019
-0.0150187
-0.0150184
-0.0150181
-0.0150178
-0.0150175
-0.0150172
-0.0150169
-0.0150166
-0.0150163
-0.015016
-0.0150157
-0.0150154
-0.015015
-0.0150147
-0.0150144
-0.0150141
-0.0150138
-0.0150135
-0.0150132
-0.0150129
-0.0150126
-0.0150123
-0.015012
-0.0150117
-0.0150114
-0.0150111
-0.0150108
-0.0150105
-0.0150102
-0.0150098
-0.0150095
-0.0150092
-0.0150089
-0.0150086
-0.0150083
-0.015008
-0.0150077
-0.0150074
-0.0150071
-0.0150068
-0.0150065
-0.0150062
-0.0150059
-0.0150056
-0.0150053
-0.015005
-0.0150046
-0.0150043
-0.015004
-0.0150037
-0.0150034
-0.0150031
-0.0150028
-0.0150025
-0.0150022
-0.0150019
-0.0150016
-0.0150013
-0.015001
-0.0150007
-0.0150004
-0.0150001
-0.0149998
-0.0149994
-0.0149991
-0.0149988
-0.0149985
-0.0149982
-0.0149979
-0.0149976
-0.0149973
-0.014997
-0.0149967
-0.0149964
-0.0149961
-0.0149958
-0.0149955
-0.0149952
-0.0149949
-0.0149946
-0.0149943
-0.0149939
-0.0149936
-0.0149933
-0.014993
-0.0149927
-0.0149924
-0.0149921
-0.0149918
-0.0149915
-0.0149912
-0.0149909
-0.0149906
-0.0149903
-0.01499
-0.0149897
-0.0149894
-0.0149891
-0.0149887
-0.0149884
-0.0149881
-0.0149878
-0.0149875
-0.0149872
-0.0149869
-0.0149866
-0.0149863
-0.014986
-0.0149857
-0.0149854
-0.0149851
-0.0149848
-0.0149845
-0.0149842
-0.0149838
-0.0149835
-0.0149832
-0.0149829
-0.0149826
-0.0149823
-0.014982
-0.0149816
-0.0149813
-0.014981
-0.0149806
-0.0149803
-0.0149799
-0.0149796
-0.0149792
-0.0149787
-0.0149783
-0.0149778
-0.0149773
-0.0149766
-0.0149759
-0.0149749
-0.0149745
-0.0149745
-0.0149745
1
0.483358
0.183963
0.108845
0.0810329
0.0668336
0.058118
0.0521525
0.0477773
0.0444144
0.0417411
0.0395613
0.0377481
0.0362151
0.0349013
0.0337622
0.0327645
0.0318828
0.0310972
0.0303921
0.0297551
0.0291761
0.028647
0.0281609
0.0277123
0.0272965
0.0269097
0.0265485
0.0262101
0.0258922
0.0255926
0.0253097
0.0250419
0.0247877
0.0245462
0.0243162
0.0240967
0.0238871
0.0236866
0.0234945
0.0233103
0.0231334
0.0229634
0.0227998
0.0226422
0.0224903
0.0223438
0.0222023
0.0220656
0.0219334
0.0218055
0.0216816
0.0215616
0.0214453
0.0213325
0.021223
0.0211166
0.0210133
0.0209129
0.0208152
0.0207202
0.0206277
0.0205377
0.02045
0.0203645
0.0202811
0.0201999
0.0201206
0.0200432
0.0199676
0.0198938
0.0198217
0.0197513
0.0196824
0.0196151
0.0195492
0.0194848
0.0194217
0.01936
0.0192995
0.0192403
0.0191823
0.0191255
0.0190698
0.0190152
0.0189616
0.0189091
0.0188576
0.0188071
0.0187575
0.0187088
0.018661
0.0186141
0.018568
0.0185228
0.0184783
0.0184346
0.0183917
0.0183494
0.018308
0.0182672
0.018227
0.0181876
0.0181488
0.0181106
0.018073
0.018036
0.0179996
0.0179638
0.0179285
0.0178938
0.0178596
0.0178259
0.0177928
0.0177601
0.0177279
0.0176962
0.017665
0.0176342
0.0176038
0.0175739
0.0175444
0.0175153
0.0174867
0.0174584
0.0174305
0.017403
0.0173759
0.0173492
0.0173228
0.0172967
0.017271
0.0172457
0.0172207
0.017196
0.0171716
0.0171476
0.0171238
0.0171004
0.0170773
0.0170544
0.0170319
0.0170096
0.0169876
0.0169659
0.0169444
0.0169232
0.0169023
0.0168816
0.0168612
0.016841
0.0168211
0.0168014
0.0167819
0.0167627
0.0167437
0.0167249
0.0167064
0.016688
0.0166699
0.016652
0.0166343
0.0166168
0.0165995
0.0165824
0.0165655
0.0165487
0.0165322
0.0165159
0.0164997
0.0164837
0.0164679
0.0164523
0.0164368
0.0164215
0.0164064
0.0163915
0.0163767
0.0163621
0.0163476
0.0163333
0.0163192
0.0163052
0.0162913
0.0162776
0.0162641
0.0162507
0.0162374
0.0162243
0.0162113
0.0161985
0.0161858
0.0161732
0.0161608
0.0161484
0.0161363
0.0161242
0.0161123
0.0161005
0.0160888
0.0160773
0.0160658
0.0160545
0.0160433
0.0160322
0.0160213
0.0160104
0.0159996
0.015989
0.0159785
0.0159681
0.0159578
0.0159475
0.0159374
0.0159274
0.0159175
0.0159077
0.015898
0.0158884
0.0158789
0.0158695
0.0158602
0.015851
0.0158419
0.0158328
0.0158239
0.015815
0.0158063
0.0157976
0.015789
0.0157805
0.0157721
0.0157637
0.0157555
0.0157473
0.0157392
0.0157312
0.0157233
0.0157154
0.0157076
0.0156999
0.0156923
0.0156847
0.0156773
0.0156699
0.0156625
0.0156553
0.0156481
0.015641
0.0156339
0.0156269
0.01562
0.0156132
0.0156064
0.0155997
0.0155931
0.0155865
0.01558
0.0155735
0.0155671
0.0155608
0.0155545
0.0155483
0.0155422
0.0155361
0.01553
0.0155241
0.0155182
0.0155123
0.0155065
0.0155007
0.0154951
0.0154894
0.0154838
0.0154783
0.0154728
0.0154674
0.015462
0.0154567
0.0154515
0.0154462
0.0154411
0.0154359
0.0154309
0.0154258
0.0154209
0.0154159
0.0154111
0.0154062
0.0154014
0.0153967
0.015392
0.0153873
0.0153827
0.0153782
0.0153737
0.0153692
0.0153647
0.0153604
0.015356
0.0153517
0.0153474
0.0153432
0.015339
0.0153349
0.0153308
0.0153267
0.0153227
0.0153188
0.0153148
0.0153109
0.0153071
0.0153033
0.0152995
0.0152957
0.015292
0.0152884
0.0152848
0.0152812
0.0152777
0.0152742
0.0152707
0.0152673
0.0152639
0.0152606
0.0152572
0.015254
0.0152508
0.0152476
0.0152444
0.0152413
0.0152382
0.0152352
0.0152322
0.0152292
0.0152263
0.0152234
0.0152206
0.0152178
0.015215
0.0152123
0.0152096
0.015207
0.0152043
0.0152018
0.0151992
0.0151967
0.0151942
0.0151918
0.0151894
0.0151871
0.0151847
0.0151825
0.0151802
0.015178
0.0151758
0.0151737
0.0151716
0.0151695
0.0151675
0.0151655
0.0151635
0.0151616
0.0151597
0.0151578
0.015156
0.0151542
0.0151524
0.0151507
0.015149
0.0151473
0.0151457
0.0151441
0.0151425
0.015141
0.0151395
0.015138
0.0151365
0.0151351
0.0151337
0.0151324
0.015131
0.0151297
0.0151284
0.0151272
0.0151259
0.0151247
0.0151236
0.0151224
0.0151213
0.0151202
0.0151191
0.0151181
0.015117
0.015116
0.015115
0.0151141
0.0151131
0.0151122
0.0151113
0.0151104
0.0151096
0.0151087
0.0151079
0.0151071
0.0151063
0.0151056
0.0151048
0.0151041
0.0151034
0.0151027
0.015102
0.0151013
0.0151007
0.0151
0.0150994
0.0150988
0.0150982
0.0150976
0.015097
0.0150965
0.0150959
0.0150954
0.0150949
0.0150943
0.0150938
0.0150933
0.0150929
0.0150924
0.0150919
0.0150915
0.015091
0.0150906
0.0150901
0.0150897
0.0150893
0.0150889
0.0150885
0.0150881
0.0150877
0.0150873
0.0150869
0.0150865
0.0150861
0.0150858
0.0150854
0.015085
0.0150847
0.0150843
0.015084
0.0150836
0.0150833
0.015083
0.0150826
0.0150823
0.015082
0.0150816
0.0150813
0.015081
0.0150806
0.0150803
0.01508
0.0150797
0.0150794
0.0150791
0.0150787
0.0150784
0.0150781
0.0150778
0.0150775
0.0150772
0.0150769
0.0150766
0.0150762
0.0150759
0.0150756
0.0150753
0.015075
0.0150747
0.0150744
0.0150741
0.0150738
0.0150735
0.0150732
0.0150729
0.0150726
0.0150723
0.0150719
0.0150716
0.0150713
0.015071
0.0150707
0.0150704
0.0150701
0.0150698
0.0150695
0.0150692
0.0150689
0.0150686
0.0150683
0.015068
0.0150677
0.0150674
0.0150671
0.0150667
0.0150664
0.0150661
0.0150658
0.0150655
0.0150652
0.0150649
0.0150646
0.0150643
0.015064
0.0150637
0.0150634
0.0150631
0.0150628
0.0150625
0.0150622
0.0150619
0.0150615
0.0150612
0.0150609
0.0150606
0.0150603
0.01506
0.0150597
0.0150594
0.0150591
0.0150588
0.0150585
0.0150582
0.0150579
0.0150576
0.0150573
0.015057
0.0150566
0.0150563
0.015056
0.0150557
0.0150554
0.0150551
0.0150548
0.0150545
0.0150542
0.0150539
0.0150536
0.0150533
0.015053
0.0150527
0.0150524
0.0150521
0.0150518
0.0150514
0.0150511
0.0150508
0.0150505
0.0150502
0.0150499
0.0150496
0.0150493
0.015049
0.0150487
0.0150484
0.0150481
0.0150478
0.0150475
0.0150472
0.0150469
0.0150466
0.0150462
0.0150459
0.0150456
0.0150453
0.015045
0.0150447
0.0150444
0.0150441
0.0150438
0.0150435
0.0150432
0.0150429
0.0150426
0.0150423
0.015042
0.0150417
0.0150414
0.015041
0.0150407
0.0150404
0.0150401
0.0150398
0.0150395
0.0150392
0.0150389
0.0150386
0.0150383
0.015038
0.0150377
0.0150374
0.0150371
0.0150368
0.0150365
0.0150362
0.0150358
0.0150355
0.0150352
0.0150349
0.0150346
0.0150343
0.015034
0.0150337
0.0150334
0.0150331
0.0150328
0.0150325
0.0150322
0.0150319
0.0150316
0.0150313
0.015031
0.0150306
0.0150303
0.01503
0.0150297
0.0150294
0.0150291
0.0150288
0.0150285
0.0150282
0.0150279
0.0150276
0.0150273
0.015027
0.0150267
0.0150264
0.0150261
0.0150258
0.0150254
0.0150251
0.0150248
0.0150245
0.0150242
0.0150239
0.0150236
0.0150233
0.015023
0.0150227
0.0150224
0.0150221
0.0150218
0.0150215
0.0150212
0.0150209
0.0150206
0.0150202
0.0150199
0.0150196
0.0150193
0.015019
0.0150187
0.0150184
0.0150181
0.0150178
0.0150175
0.0150172
0.0150169
0.0150166
0.0150163
0.015016
0.0150157
0.0150154
0.015015
0.0150147
0.0150144
0.0150141
0.0150138
0.0150135
0.0150132
0.0150129
0.0150126
0.0150123
0.015012
0.0150117
0.0150114
0.0150111
0.0150108
0.0150105
0.0150102
0.0150098
0.0150095
0.0150092
0.0150089
0.0150086
0.0150083
0.015008
0.0150077
0.0150074
0.0150071
0.0150068
0.0150065
0.0150062
0.0150059
0.0150056
0.0150053
0.015005
0.0150046
0.0150043
0.015004
0.0150037
0.0150034
0.0150031
0.0150028
0.0150025
0.0150022
0.0150019
0.0150016
0.0150013
0.015001
0.0150007
0.0150004
0.0150001
0.0149998
0.0149994
0.0149991
0.0149988
0.0149985
0.0149982
0.0149979
0.0149976
0.0149973
0.014997
0.0149967
0.0149964
0.0149961
0.0149958
0.0149955
0.0149952
0.0149949
0.0149946
0.0149943
0.0149939
0.0149936
0.0149933
0.014993
0.0149927
0.0149924
0.0149921
0.0149918
0.0149915
0.0149912
0.0149909
0.0149906
0.0149903
0.01499
0.0149897
0.0149894
0.0149891
0.0149887
0.0149884
0.0149881
0.0149878
0.0149875
0.0149872
0.0149869
0.0149866
0.0149863
0.014986
0.0149857
0.0149854
0.0149851
0.0149848
0.0149845
0.0149842
0.0149838
0.0149835
0.0149832
0.0149829
0.0149826
0.0149823
0.014982
0.0149816
0.0149813
0.014981
0.0149806
0.0149803
0.0149799
0.0149796
0.0149792
0.0149787
0.0149783
0.0149778
0.0149773
0.0149766
0.0149759
0.0149749
0.0149745
0.0149745
0.0149745
1
0.969191
0.495616
0.314223
0.237897
0.197395
0.172133
0.154696
0.141842
0.131928
0.124027
0.117573
0.112196
0.107645
0.103741
0.100354
0.0973859
0.0947615
0.0924227
0.0903233
0.0884266
0.0867027
0.0851272
0.0836802
0.0823451
0.081108
0.0799573
0.0788831
0.0778771
0.0769322
0.0760421
0.0752017
0.0744062
0.0736517
0.0729347
0.0722521
0.0716011
0.0709794
0.0703847
0.0698152
0.069269
0.0687447
0.0682408
0.067756
0.0672892
0.0668393
0.0664052
0.0659862
0.0655814
0.0651899
0.0648112
0.0644445
0.0640893
0.063745
0.063411
0.0630869
0.0627722
0.0624665
0.0621693
0.0618804
0.0615993
0.0613257
0.0610593
0.0607998
0.0605469
0.0603004
0.0600599
0.0598254
0.0595965
0.059373
0.0591548
0.0589416
0.0587333
0.0585296
0.0583305
0.0581357
0.0579452
0.0577587
0.0575762
0.0573975
0.0572225
0.057051
0.056883
0.0567184
0.056557
0.0563987
0.0562435
0.0560913
0.0559419
0.0557953
0.0556514
0.0555102
0.0553715
0.0552353
0.0551016
0.0549702
0.054841
0.0547141
0.0545894
0.0544668
0.0543462
0.0542277
0.0541111
0.0539964
0.0538836
0.0537726
0.0536633
0.0535558
0.05345
0.0533458
0.0532432
0.0531422
0.0530427
0.0529448
0.0528482
0.0527532
0.0526595
0.0525672
0.0524762
0.0523866
0.0522982
0.0522111
0.0521252
0.0520406
0.0519571
0.0518748
0.0517936
0.0517135
0.0516345
0.0515565
0.0514796
0.0514038
0.0513289
0.0512551
0.0511822
0.0511102
0.0510392
0.0509691
0.0508999
0.0508316
0.0507642
0.0506976
0.0506318
0.0505669
0.0505028
0.0504394
0.0503769
0.0503151
0.0502541
0.0501938
0.0501342
0.0500754
0.0500172
0.0499598
0.049903
0.0498469
0.0497915
0.0497367
0.0496826
0.0496291
0.0495762
0.0495239
0.0494723
0.0494212
0.0493707
0.0493208
0.0492715
0.0492227
0.0491744
0.0491267
0.0490796
0.0490329
0.0489868
0.0489412
0.0488961
0.0488515
0.0488074
0.0487638
0.0487207
0.048678
0.0486358
0.048594
0.0485527
0.0485119
0.0484715
0.0484315
0.0483919
0.0483528
0.0483141
0.0482758
0.0482379
0.0482004
0.0481633
0.0481266
0.0480903
0.0480544
0.0480189
0.0479837
0.0479489
0.0479144
0.0478803
0.0478466
0.0478132
0.0477802
0.0477475
0.0477151
0.0476831
0.0476514
0.04762
0.047589
0.0475582
0.0475278
0.0474977
0.0474679
0.0474384
0.0474092
0.0473803
0.0473517
0.0473234
0.0472953
0.0472676
0.0472401
0.0472129
0.047186
0.0471593
0.047133
0.0471068
0.047081
0.0470554
0.04703
0.047005
0.0469801
0.0469555
0.0469312
0.0469071
0.0468832
0.0468596
0.0468362
0.046813
0.04679
0.0467673
0.0467448
0.0467226
0.0467005
0.0466787
0.0466571
0.0466357
0.0466145
0.0465935
0.0465727
0.0465521
0.0465317
0.0465116
0.0464916
0.0464718
0.0464522
0.0464328
0.0464136
0.0463945
0.0463757
0.046357
0.0463385
0.0463202
0.0463021
0.0462842
0.0462664
0.0462488
0.0462313
0.0462141
0.046197
0.04618
0.0461632
0.0461466
0.0461302
0.0461139
0.0460977
0.0460817
0.0460659
0.0460502
0.0460347
0.0460193
0.046004
0.0459889
0.045974
0.0459592
0.0459445
0.04593
0.0459156
0.0459013
0.0458872
0.0458732
0.0458594
0.0458457
0.0458321
0.0458186
0.0458053
0.0457921
0.0457791
0.0457661
0.0457533
0.0457406
0.0457281
0.0457156
0.0457033
0.0456911
0.045679
0.0456671
0.0456553
0.0456436
0.045632
0.0456205
0.0456092
0.0455979
0.0455868
0.0455758
0.045565
0.0455542
0.0455436
0.045533
0.0455226
0.0455123
0.0455022
0.0454921
0.0454821
0.0454723
0.0454626
0.045453
0.0454435
0.0454342
0.0454249
0.0454158
0.0454067
0.0453978
0.045389
0.0453804
0.0453718
0.0453633
0.045355
0.0453468
0.0453386
0.0453306
0.0453227