# vtk DataFile Version 2.0
FlowField
ASCII
DATASET STRUCTURED_GRID
DIMENSIONS 800 1 200
POINTS 160000 float
0 0 0
0.04 0 0
0.08 0 0
0.12 0 0
0.16 0 0
0.2 0 0
0.24 0 0
0.28 0 0
0.32 0 0
0.36 0 0
0.4 0 0
0.44 0 0
0.48 0 0
0.52 0 0
0.56 0 0
0.6 0 0
0.64 0 0
0.68 0 0
0.72 0 0
0.76 0 0
0.8 0 0
0.84 0 0
0.88 0 0
0.92 0 0
0.96 0 0
1 0 0
1.04 0 0
1.08 0 0
1.12 0 0
1.16 0 0
1.2 0 0
1.24 0 0
1.28 0 0
1.32 0 0
1.36 0 0
1.4 0 0
1.44 0 0
1.48 0 0
1.52 0 0
1.56 0 0
1.6 0 0
1.64 0 0
1.68 0 0
1.72 0 0
1.76 0 0
1.8 0 0
1.84 0 0
1.88 0 0
1.92 0 0
1.96 0 0
2 0 0
2.04 0 0
2.08 0 0
2.12 0 0
2.16 0 0
2.2 0 0
2.24 0 0
2.28 0 0
2.32 0 0
2.36 0 0
2.4 0 0
2.44 0 0
2.48 0 0
2.52 0 0
2.56 0 0
2.6 0 0
2.64 0 0
2.68 0 0
2.72 0 0
2.76 0 0
2.8 0 0
2.84 0 0
2.88 0 0
2.92 0 0
2.96 0 0
3 0 0
3.04 0 0
3.08 0 0
3.12 0 0
3.16 0 0
3.2 0 0
3.24 0 0
3.28 0 0
3.32 0 0
3.36 0 0
3.4 0 0
3.44 0 0
3.48 0 0
3.52 0 0
3.56 0 0
3.6 0 0
3.64 0 0
3.68 0 0
3.72 0 0
3.76 0 0
3.8 0 0
3.84 0 0
3.88 0 0
3.92 0 0
3.96 0 0
4 0 0
4.04 0 0
4.08 0 0
4.12 0 0
4.16 0 0
4.2 0 0
4.24 0 0
4.28 0 0
4.32 0 0
4.36 0 0
4.4 0 0
4.44 0 0
4.48 0 0
4.52 0 0
4.56 0 0
4.6 0 0
4.64 0 0
4.68 0 0
4.72 0 0
4.76 0 0
4.8 0 0
4.84 0 0
4.88 0 0
4.92 0 0
4.96 0 0
5 0 0
5.04 0 0
5.08 0 0
5.12 0 0
5.16 0 0
5.2 0 0
5.24 0 0
5.28 0 0
5.32 0 0
5.36 0 0
5.4 0 0
5.44 0 0
5.48 0 0
5.52 0 0
5.56 0 0
5.6 0 0
5.64 0 0
5.68 0 0
5.72 0 0
5.76 0 0
5.8 0 0
5.84 0 0
5.88 0 0
5.92 0 0
5.96 0 0
6 0 0
6.04 0 0
6.08 0 0
6.12 0 0
6.16 0 0
6.2 0 0
6.24 0 0
6.28 0 0
6.32 0 0
6.36 0 0
6.4 0 0
6.44 0 0
6.48 0 0
6.52 0 0
6.56 0 0
6.6 0 0
6.64 0 0
6.68 0 0
6.72 0 0
6.76 0 0
6.8 0 0
6.84 0 0
6.88 0 0
6.92 0 0
6.96 0 0
7 0 0
7.04 0 0
7.08 0 0
7.12 0 0
7.16 0 0
7.2 0 0
7.24 0 0
7.28 0 0
7.32 0 0
7.36 0 0
7.4 0 0
7.44 0 0
7.48 0 0
7.52 0 0
7.56 0 0
7.6 0 0
7.64 0 0
7.68 0 0
7.72 0 0
7.76 0 0
7.8 0 0
7.84 0 0
7.88 0 0
7.92 0 0
7.96 0 0
8 0 0
8.04 0 0
8.08 0 0
8.12 0 0
8.16 0 0
8.2 0 0
8.24 0 0
8.28 0 0
8.32 0 0
8.36 0 0
8.4 0 0
8.44 0 0
8.48 0 0
8.52 0 0
8.56 0 0
8.6 0 0
8.64 0 0
8.68 0 0
8.72 0 0
8.76 0 0
8.8 0 0
8.84 0 0
8.88 0 0
8.92 0 0
8.96 0 0
9 0 0
9.04 0 0
9.08 0 0
9.12 0 0
9.16 0 0
9.2 0 0
9.24 0 0
9.28 0 0
9.32 0 0
9.36 0 0
9.4 0 0
9.44 0 0
9.48 0 0
9.52 0 0
9.56 0 0
9.6 0 0
9.64 0 0
9.68 0 0
9.72 0 0
9.76 0 0
9.8 0 0
9.84 0 0
9.88 0 0
9.92 0 0
9.96 0 0
10 0 0
10.04 0 0
10.08 0 0
10.12 0 0
10.16 0 0
10.2 0 0
10.24 0 0
10.28 0 0
10.32 0 0
10.36 0 0
10.4 0 0
10.44 0 0
10.48 0 0
10.52 0 0
10.56 0 0
10.6 0 0
10.64 0 0
10.68 0 0
10.72 0 0
10.76 0 0
10.8 0 0
10.84 0 0
10.88 0 0
10.92 0 0
10.96 0 0
11 0 0
11.04 0 0
11.08 0 0
11.12 0 0
11.16 0 0
11.2 0 0
11.24 0 0
11.28 0 0
11.32 0 0
11.36 0 0
11.4 0 0
11.44 0 0
11.48 0 0
11.52 0 0
11.56 0 0
11.6 0 0
11.64 0 0
11.68 0 0
11.72 0 0
11.76 0 0
11.8 0 0
11.84 0 0
11.88 0 0
11.92 0 0
11.96 0 0
12 0 0
12.04 0 0
12.08 0 0
12.12 0 0
12.16 0 0
12.2 0 0
12.24 0 0
12.28 0 0
12.32 0 0
12.36 0 0
12.4 0 0
12.44 0 0
12.48 0 0
12.52 0 0
12.56 0 0
12.6 0 0
12.64 0 0
12.68 0 0
12.72 0 0
12.76 0 0
12.8 0 0
12.84 0 0
12.88 0 0
12.92 0 0
12.96 0 0
13 0 0
13.04 0 0
13.08 0 0
13.12 0 0
13.16 0 0
13.2 0 0
13.24 0 0
13.28 0 0
13.32 0 0
13.36 0 0
13.4 0 0
13.44 0 0
13.48 0 0
13.52 0 0
13.56 0 0
13.6 0 0
13.64 0 0
13.68 0 0
13.72 0 0
13.76 0 0
13.8 0 0
13.84 0 0
13.88 0 0
13.92 0 0
13.96 0 0
14 0 0
14.04 0 0
14.08 0 0
14.12 0 0
14.16 0 0
14.2 0 0
14.24 0 0
14.28 0 0
14.32 0 0
14.36 0 0
14.4 0 0
14.44 0 0
14.48 0 0
14.52 0 0
14.56 0 0
14.6 0 0
14.64 0 0
14.68 0 0
14.72 0 0
14.76 0 0
14.8 0 0
14.84 0 0
14.88 0 0
14.92 0 0
14.96 0 0
15 0 0
15.04 0 0
15.08 0 0
15.12 0 0
15.16 0 0
15.2 0 0
15.24 0 0
15.28 0 0
15.32 0 0
15.36 0 0
15.4 0 0
15.44 0 0
15.48 0 0
15.52 0 0
15.56 0 0
15.6 0 0
15.64 0 0
15.68 0 0
15.72 0 0
15.76 0 0
15.8 0 0
15.84 0 0
15.88 0 0
15.92 0 0
15.96 0 0
16 0 0
16.04 0 0
16.08 0 0
16.12 0 0
16.16 0 0
16.2 0 0
16.24 0 0
16.28 0 0
16.32 0 0
16.36 0 0
16.4 0 0
16.44 0 0
16.48 0 0
16.52 0 0
16.56 0 0
16.6 0 0
16.64 0 0
16.68 0 0
16.72 0 0
16.76 0 0
16.8 0 0
16.84 0 0
16.88 0 0
16.92 0 0
16.96 0 0
17 0 0
17.04 0 0
17.08 0 0
17.12 0 0
17.16 0 0
17.2 0 0
17.24 0 0
17.28 0 0
17.32 0 0
17.36 0 0
17.4 0 0
17.44 0 0
17.48 0 0
17.52 0 0
17.56 0 0
17.6 0 0
17.64 0 0
17.68 0 0
17.72 0 0
17.76 0 0
17.8 0 0
17.84 0 0
17.88 0 0
17.92 0 0
17.96 0 0
18 0 0
18.04 0 0
18.08 0 0
18.12 0 0
18.16 0 0
18.2 0 0
18.24 0 0
18.28 0 0
18.32 0 0
18.36 0 0
18.4 0 0
18.44 0 0
18.48 0 0
18.52 0 0
18.56 0 0
18.6 0 0
18.64 0 0
18.68 0 0
18.72 0 0
18.76 0 0
18.8 0 0
18.84 0 0
18.88 0 0
18.92 0 0
18.96 0 0
19 0 0
19.04 0 0
19.08 0 0
19.12 0 0
19.16 0 0
19.2 0 0
19.24 0 0
19.28 0 0
19.32 0 0
19.36 0 0
19.4 0 0
19.44 0 0
19.48 0 0
19.52 0 0
19.56 0 0
19.6 0 0
19.64 0 0
19.68 0 0
19.72 0 0
19.76 0 0
19.8 0 0
19.84 0 0
19.88 0 0
19.92 0 0
19.96 0 0
20 0 0
20.04 0 0
20.08 0 0
20.12 0 0
20.16 0 0
20.2 0 0
20.24 0 0
20.28 0 0
20.32 0 0
20.36 0 0
20.4 0 0
20.44 0 0
20.48 0 0
20.52 0 0
20.56 0 0
20.6 0 0
20.64 0 0
20.68 0 0
20.72 0 0
20.76 0 0
20.8 0 0
20.84 0 0
20.88 0 0
20.92 0 0
20.96 0 0
21 0 0
21.04 0 0
21.08 0 0
21.12 0 0
21.16 0 0
21.2 0 0
21.24 0 0
21.28 0 0
21.32 0 0
21.36 0 0
21.4 0 0
21.44 0 0
21.48 0 0
21.52 0 0
21.56 0 0
21.6 0 0
21.64 0 0
21.68 0 0
21.72 0 0
21.76 0 0
21.8 0 0
21.84 0 0
21.88 0 0
21.92 0 0
21.96 0 0
22 0 0
22.04 0 0
22.08 0 0
22.12 0 0
22.16 0 0
22.2 0 0
22.24 0 0
22.28 0 0
22.32 0 0
22.36 0 0
22.4 0 0
22.44 0 0
22.48 0 0
22.52 0 0
22.56 0 0
22.6 0 0
22.64 0 0
22.68 0 0
22.72 0 0
22.76 0 0
22.8 0 0
22.84 0 0
22.88 0 0
22.92 0 0
22.96 0 0
23 0 0
23.04 0 0
23.08 0 0
23.12 0 0
23.16 0 0
23.2 0 0
23.24 0 0
23.28 0 0
23.32 0 0
23.36 0 0
23.4 0 0
23.44 0 0
23.48 0 0
23.52 0 0
23.56 0 0
23.6 0 0
23.64 0 0
23.68 0 0
23.72 0 0
23.76 0 0
23.8 0 0
23.84 0 0
23.88 0 0
23.92 0 0
23.96 0 0
24 0 0
24.04 0 0
24.08 0 0
24.12 0 0
24.16 0 0
24.2 0 0
24.24 0 0
24.28 0 0
24.32 0 0
24.36 0 0
24.4 0 0
24.44 0 0
24.48 0 0
24.52 0 0
24.56 0 0
24.6 0 0
24.64 0 0
24.68 0 0
24.72 0 0
24.76 0 0
24.8 0 0
24.84 0 0
24.88 0 0
24.92 0 0
24.96 0 0
25 0 0
25.04 0 0
25.08 0 0
25.12 0 0
25.16 0 0
25.2 0 0
25.24 0 0
25.28 0 0
25.32 0 0
25.36 0 0
25.4 0 0
25.44 0 0
25.48 0 0
25.52 0 0
25.56 0 0
25.6 0 0
25.64 0 0
25.68 0 0
25.72 0 0
25.76 0 0
25.8 0 0
25.84 0 0
25.88 0 0
25.92 0 0
25.96 0 0
26 0 0
26.04 0 0
26.08 0 0
26.12 0 0
26.16 0 0
26.2 0 0
26.24 0 0
26.28 0 0
26.32 0 0
26.36 0 0
26.4 0 0
26.44 0 0
26.48 0 0
26.52 0 0
26.56 0 0
26.6 0 0
26.64 0 0
26.68 0 0
26.72 0 0
26.76 0 0
26.8 0 0
26.84 0 0
26.88 0 0
26.92 0 0
26.96 0 0
27 0 0
27.04 0 0
27.08 0 0
27.12 0 0
27.16 0 0
27.2 0 0
27.24 0 0
27.28 0 0
27.32 0 0
27.36 0 0
27.4 0 0
27.44 0 0
27.48 0 0
27.52 0 0
27.56 0 0
27.6 0 0
27.64 0 0
27.68 0 0
27.72 0 0
27.76 0 0
27.8 0 0
27.84 0 0
27.88 0 0
27.92 0 0
27.96 0 0
28 0 0
28.04 0 0
28.08 0 0
28.12 0 0
28.16 0 0
28.2 0 0
28.24 0 0
28.28 0 0
28.32 0 0
28.36 0 0
28.4 0 0
28.44 0 0
28.48 0 0
28.52 0 0
28.56 0 0
28.6 0 0
28.64 0 0
28.68 0 0
28.72 0 0
28.76 0 0
28.8 0 0
28.84 0 0
28.88 0 0
28.92 0 0
28.96 0 0
29 0 0
29.04 0 0
29.08 0 0
29.12 0 0
29.16 0 0
29.2 0 0
29.24 0 0
29.28 0 0
29.32 0 0
29.36 0 0
29.4 0 0
29.44 0 0
29.48 0 0
29.52 0 0
29.56 0 0
29.6 0 0
29.64 0 0
29.68 0 0
29.72 0 0
29.76 0 0
29.8 0 0
29.84 0 0
29.88 0 0
29.92 0 0
29.96 0 0
30 0 0
30.04 0 0
30.08 0 0
30.12 0 0
30.16 0 0
30.2 0 0
30.24 0 0
30.28 0 0
30.32 0 0
30.36 0 0
30.4 0 0
30.44 0 0
30.48 0 0
30.52 0 0
30.56 0 0
30.6 0 0
30.64 0 0
30.68 0 0
30.72 0 0
30.76 0 0
30.8 0 0
30.84 0 0
30.88 0 0
30.92 0 0
30.96 0 0
31 0 0
31.04 0 0
31.08 0 0
31.12 0 0
31.16 0 0
31.2 0 0
31.24 0 0
31.28 0 0
31.32 0 0
31.36 0 0
31.4 0 0
31.44 0 0
31.48 0 0
31.52 0 0
31.56 0 0
31.6 0 0
31.64 0 0
31.68 0 0
31.72 0 0
31.76 0 0
31.8 0 0
31.84 0 0
31.88 0 0
31.92 0 0
31.96 0 0
0 0.005 0
0.04 0.005 0
0.08 0.005 0
0.12 0.005 0
0.16 0.005 0
0.2 0.005 0
0.24 0.005 0
0.28 0.005 0
0.32 0.005 0
0.36 0.005 0
0.4 0.005 0
0.44 0.005 0
0.48 0.005 0
0.52 0.005 0
0.56 0.005 0
0.6 0.005 0
0.64 0.005 0
0.68 0.005 0
0.72 0.005 0
0.76 0.005 0
0.8 0.005 0
0.84 0.005 0
0.88 0.005 0
0.92 0.005 0
0.96 0.005 0
1 0.005 0
1.04 0.005 0
1.08 0.005 0
1.12 0.005 0
1.16 0.005 0
1.2 0.005 0
1.24 0.005 0
1.28 0.005 0
1.32 0.005 0
1.36 0.005 0
1.4 0.005 0
1.44 0.005 0
1.48 0.005 0
1.52 0.005 0
1.56 0.005 0
1.6 0.005 0
1.64 0.005 0
1.68 0.005 0
1.72 0.005 0
1.76 0.005 0
1.8 0.005 0
1.84 0.005 0
1.88 0.005 0
1.92 0.005 0
1.96 0.005 0
2 0.005 0
2.04 0.005 0
2.08 0.005 0
2.12 0.005 0
2.16 0.005 0
2.2 0.005 0
2.24 0.005 0
2.28 0.005 0
2.32 0.005 0
2.36 0.005 0
2.4 0.005 0
2.44 0.005 0
2.48 0.005 0
2.52 0.005 0
2.56 0.005 0
2.6 0.005 0
2.64 0.005 0
2.68 0.005 0
2.72 0.005 0
2.76 0.005 0
2.8 0.005 0
2.84 0.005 0
2.88 0.005 0
2.92 0.005 0
2.96 0.005 0
3 0.005 0
3.04 0.005 0
3.08 0.005 0
3.12 0.005 0
3.16 0.005 0
3.2 0.005 0
3.24 0.005 0
3.28 0.005 0
3.32 0.005 0
3.36 0.005 0
3.4 0.005 0
3.44 0.005 0
3.48 0.005 0
3.52 0.005 0
3.56 0.005 0
3.6 0.005 0
3.64 0.005 0
3.68 0.005 0
3.72 0.005 0
3.76 0.005 0
3.8 0.005 0
3.84 0.005 0
3.88 0.005 0
3.92 0.005 0
3.96 0.005 0
4 0.005 0
4.04 0.005 0
4.08 0.005 0
4.12 0.005 0
4.16 0.005 0
4.2 0.005 0
4.24 0.005 0
4.28 0.005 0
4.32 0.005 0
4.36 0.005 0
4.4 0.005 0
4.44 0.005 0
4.48 0.005 0
4.52 0.005 0
4.56 0.005 0
4.6 0.005 0
4.64 0.005 0
4.68 0.005 0
4.72 0.005 0
4.76 0.005 0
4.8 0.005 0
4.84 0.005 0
4.88 0.005 0
4.92 0.005 0
4.96 0.005 0
5 0.005 0
5.04 0.005 0
5.08 0.005 0
5.12 0.005 0
5.16 0.005 0
5.2 0.005 0
5.24 0.005 0
5.28 0.005 0
5.32 0.005 0
5.36 0.005 0
5.4 0.005 0
5.44 0.005 0
5.48 0.005 0
5.52 0.005 0
5.56 0.005 0
5.6 0.005 0
5.64 0.005 0
5.68 0.005 0
5.72 0.005 0
5.76 0.005 0
5.8 0.005 0
5.84 0.005 0
5.88 0.005 0
5.92 0.005 0
5.96 0.005 0
6 0.005 0
6.04 0.005 0
6.08 0.005 0
6.12 0.005 0
6.16 0.005 0
6.2 0.005 0
6.24 0.005 0
6.28 0.005 0
6.32 0.005 0
6.36 0.005 0
6.4 0.005 0
6.44 0.005 0
6.48 0.005 0
6.52 0.005 0
6.56 0.005 0
6.6 0.005 0
6.64 0.005 0
6.68 0.005 0
6.72 0.005 0
6.76 0.005 0
6.8 0.005 0
6.84 0.005 0
6.88 0.005 0
6.92 0.005 0
6.96 0.005 0
7 0.005 0
7.04 0.005 0
7.08 0.005 0
7.12 0.005 0
7.16 0.005 0
7.2 0.005 0
7.24 0.005 0
7.28 0.005 0
7.32 0.005 0
7.36 0.005 0
7.4 0.005 0
[...]
POINT_DATA 160000

SCALARS p float 1
LOOKUP_TABLE default
1
47.8016
45.5862
45.3313
45.2711
45.2447
45.2287
45.2171
45.2079
45.2
45.1931
45.1867
45.1808
45.1753
45.17
45.1649
45.1599
45.1551
45.1504
45.1457
45.1412
45.1367
45.1323
45.128
45.1237
45.1195
45.1153
45.1112
45.1072
45.1032
45.0992
45.0953
45.0914
45.0876
45.0838
45.08
45.0763
45.0727
45.069
45.0654
45.0619
45.0583
45.0548
45.0514
45.048
45.0446
45.0412
45.0379
45.0345
45.0313
45.028
45.0248
45.0216
45.0184
45.0153
45.0121
45.009
45.006
45.0029
44.9999
44.9969
44.9939
44.9909
44.9879
44.985
44.9821
44.9792
44.9763
44.9735
44.9706
44.9678
44.965
44.9622
44.9594
44.9567
44.9539
44.9512
44.9485
44.9458
44.9431
44.9405
44.9378
44.9352
44.9325
44.9299
44.9273
44.9247
44.9221
44.9196
44.917
44.9145
44.9119
44.9094
44.9069
44.9044
44.9019
44.8995
44.897
44.8945
44.8921
44.8896
44.8872
44.8848
44.8824
44.88
44.8776
44.8752
44.8729
44.8705
44.8682
44.8658
44.8635
44.8611
44.8588
44.8565
44.8542
44.8519
44.8496
44.8474
44.8451
44.8428
44.8406
44.8383
44.8361
44.8338
44.8316
44.8294
44.8272
44.825
44.8228
44.8206
44.8184
44.8162
44.814
44.8119
44.8097
44.8075
44.8054
44.8033
44.8011
44.799
44.7969
44.7947
44.7926
44.7905
44.7884
44.7863
44.7842
44.7821
44.78
44.778
44.7759
44.7738
44.7718
44.7697
44.7677
44.7656
44.7636
44.7615
44.7595
44.7575
44.7555
44.7534
44.7514
44.7494
44.7474
44.7454
44.7434
44.7414
44.7394
44.7374
44.7355
44.7335
44.7315
44.7295
44.7276
44.7256
44.7237
44.7217
44.7198
44.7178
44.7159
44.7139
44.712
44.7101
44.7082
44.7062
44.7043
44.7024
44.7005
44.6986
44.6967
44.6948
44.6929
44.691
44.6891
44.6872
44.6853
44.6834
44.6816
44.6797
44.6778
44.6759
44.6741
44.6722
44.6704
44.6685
44.6666
44.6648
44.6629
44.6611
44.6593
44.6574
44.6556
44.6537
44.6519
44.6501
44.6483
44.6464
44.6446
44.6428
44.641
44.6392
44.6373
44.6355
44.6337
44.6319
44.6301
44.6283
44.6265
44.6247
44.6229
44.6211
44.6194
44.6176
44.6158
44.614
44.6122
44.6105
44.6087
44.6069
44.6051
44.6034
44.6016
44.5998
44.5981
44.5963
44.5945
44.5928
44.591
44.5893
44.5875
44.5858
44.584
44.5823
44.5805
44.5788
44.5771
44.5753
44.5736
44.5719
44.5701
44.5684
44.5667
44.5649
44.5632
44.5615
44.5598
44.558
44.5563
44.5546
44.5529
44.5512
44.5495
44.5477
44.546
44.5443
44.5426
44.5409
44.5392
44.5375
44.5358
44.5341
44.5324
44.5307
44.529
44.5273
44.5256
44.5239
44.5222
44.5206
44.5189
44.5172
44.5155
44.5138
44.5121
44.5104
44.5088
44.5071
44.5054
44.5037
44.5021
44.5004
44.4987
44.497
44.4954
44.4937
44.492
44.4904
44.4887
44.487
44.4854
44.4837
44.482
44.4804
44.4787
44.477
44.4754
44.4737
44.4721
44.4704
44.4688
44.4671
44.4655
44.4638
44.4622
44.4605
44.4589
44.4572
44.4556
44.4539
44.4523
44.4506
44.449
44.4473
44.4457
44.4441
44.4424
44.4408
44.4391
44.4375
44.4359
44.4342
44.4326
44.431
44.4293
44.4277
44.4261
44.4244
44.4228
44.4212
44.4195
44.4179
44.4163
44.4147
44.413
44.4114
44.4098
44.4082
44.4065
44.4049
44.4033
44.4017
44.4
44.3984
44.3968
44.3952
44.3936
44.392
44.3903
44.3887
44.3871
44.3855
44.3839
44.3823
44.3806
44.379
44.3774
44.3758
44.3742
44.3726
44.371
44.3694
44.3678
44.3661
44.3645
44.3629
44.3613
44.3597
44.3581
44.3565
44.3549
44.3533
44.3517
44.3501
44.3485
44.3469
44.3453
44.3437
44.3421
44.3405
44.3389
44.3373
44.3357
44.3341
44.3325
44.3309
44.3293
44.3277
44.3261
44.3245
44.3229
44.3213
44.3197
44.3181
44.3165
44.3149
44.3133
44.3117
44.3101
44.3086
44.307
44.3054
44.3038
44.3022
44.3006
44.299
44.2974
44.2958
44.2942
44.2926
44.2911
44.2895
44.2879
44.2863
44.2847
44.2831
44.2815
44.28
44.2784
44.2768
44.2752
44.2736
44.272
44.2704
44.2689
44.2673
44.2657
44.2641
44.2625
44.2609
44.2594
44.2578
44.2562
44.2546
44.253
44.2515
44.2499
44.2483
44.2467
44.2451
44.2436
44.242
44.2404
44.2388
44.2372
44.2357
44.2341
44.2325
44.2309
44.2294
44.2278
44.2262
44.2246
44.223
44.2215
44.2199
44.2183
44.2167
44.2152
44.2136
44.212
44.2104
44.2089
44.2073
44.2057
44.2041
44.2026
44.201
44.1994
44.1979
44.1963
44.1947
44.1931
44.1916
44.19
44.1884
44.1869
44.1853
44.1837
44.1821
44.1806
44.179
44.1774
44.1759
44.1743
44.1727
44.1711
44.1696
44.168
44.1664
44.1649
44.1633
44.1617
44.1602
44.1586
44.157
44.1555
44.1539
44.1523
44.1508
44.1492
44.1476
44.1461
44.1445
44.1429
44.1414
44.1398
44.1382
44.1367
44.1351
44.1335
44.132
44.1304
44.1288
44.1273
44.1257
44.1241
44.1226
44.121
44.1194
44.1179
44.1163
44.1148
44.1132
44.1116
44.1101
44.1085
44.1069
44.1054
44.1038
44.1022
44.1007
44.0991
44.0976
44.096
44.0944
44.0929
44.0913
44.0897
44.0882
44.0866
44.0851
44.0835
44.0819
44.0804
44.0788
44.0773
44.0757
44.0741
44.0726
44.071
44.0695
44.0679
44.0663
44.0648
44.0632
44.0617
44.0601
44.0585
44.057
44.0554
44.0539
44.0523
44.0507
44.0492
44.0476
44.0461
44.0445
44.0429
44.0414
44.0398
44.0383
44.0367
44.0351
44.0336
44.032
44.0305
44.0289
44.0274
44.0258
44.0242
44.0227
44.0211
44.0196
44.018
44.0165
44.0149
44.0133
44.0118
44.0102
44.0087
44.0071
44.0056
44.004
44.0025
44.0009
43.9993
43.9978
43.9962
43.9947
43.9931
43.9916
43.99
43.9885
43.9869
43.9853
43.9838
43.9822
43.9807
43.9791
43.9776
43.976
43.9745
43.9729
43.9713
43.9698
43.9682
43.9667
43.9651
43.9636
43.962
43.9605
43.9589
43.9574
43.9558
43.9543
43.9527
43.9511
43.9496
43.948
43.9465
43.9449
43.9434
43.9418
43.9403
43.9387
43.9372
43.9356
43.9341
43.9325
43.931
43.9294
43.9279
43.9263
43.9247
43.9232
43.9216
43.9201
43.9185
43.917
43.9154
43.9139
43.9123
43.9108
43.9092
43.9077
43.9061
43.9046
43.903
43.9015
43.8999
43.8984
43.8968
43.8953
43.8937
43.8922
43.8906
43.8891
43.8875
43.886
43.8844
43.8829
43.8813
43.8798
43.8782
43.8766
43.8751
43.8735
43.872
43.8704
43.8689
43.8673
43.8658
43.8642
43.8627
43.8611
43.8596
43.858
43.8565
43.8549
43.8534
43.8518
43.8503
43.8487
43.8472
43.8456
43.8441
43.8425
43.841
43.8394
43.8379
43.8363
43.8348
43.8332
43.8317
43.8301
43.8286
43.827
43.8255
43.8239
43.8224
43.8208
43.8193
43.8177
43.8162
43.8146
43.8131
43.8115
43.81
43.8085
43.8069
43.8054
43.8038
43.8023
43.8007
43.7992
43.7976
43.7961
43.7945
43.793
43.7914
43.7899
43.7883
43.7868
43.7852
43.7837
43.7821
43.7806
43.779
43.7775
43.7759
43.7744
43.7728
43.7713
43.7697
43.7682
43.7666
43.7651
43.7635
43.762
43.7604
43.7589
43.7573
43.7558
43.7542
43.7527
43.7512
43.7496
43.7481
43.7465
43.745
43.7434
43.7419
43.7403
43.7388
43.7372
43.7357
43.7341
43.7326
43.731
43.7295
43.7279
43.7264
43.7248
43.7233
43.7218
43.7202
43.7187
1
47.8016
47.8016
45.5862
45.3313
45.2711
45.2447
45.2287
45.2171
45.2079
45.2
45.1931
45.1867
45.1808
45.1753
45.17
45.1649
45.1599
45.1551
45.1504
45.1457
45.1412
45.1367
45.1323
45.128
45.1237
45.1195
45.1153
45.1112
45.1072
45.1032
45.0992
45.0953
45.0914
45.0876
45.0838
45.08
45.0763
45.0727
45.069
45.0654
45.0619
45.0583
45.0548
45.0514
45.048
45.0446
45.0412
45.0379
45.0345
45.0313
45.028
45.0248
45.0216
45.0184
45.0153
45.0121
45.009
45.006
45.0029
44.9999
44.9969
44.9939
44.9909
44.9879
44.985
44.9821
44.9792
44.9763
44.9735
44.9706
44.9678
44.965
44.9622
44.9594
44.9567
44.9539
44.9512
44.9485
44.9458
44.9431
44.9405
44.9378
44.9352
44.9325
44.9299
44.9273
44.9247
44.9221
44.9196
44.917
44.9145
44.9119
44.9094
44.9069
44.9044
44.9019
44.8995
44.897
44.8945
44.8921
44.8896
44.8872
44.8848
44.8824
44.88
44.8776
44.8752
44.8729
44.8705
44.8682
44.8658
44.8635
44.8611
44.8588
44.8565
44.8542
44.8519
44.8496
44.8474
44.8451
44.8428
44.8406
44.8383
44.8361
44.8338
44.8316
44.8294
44.8272
44.825
44.8228
44.8206
44.8184
44.8162
44.814
44.8119
44.8097
44.8075
44.8054
44.8033
44.8011
44.799
44.7969
44.7947
44.7926
44.7905
44.7884
44.7863
44.7842
44.7821
44.78
44.778
44.7759
44.7738
44.7718
44.7697
44.7677
44.7656
44.7636
44.7615
44.7595
44.7575
44.7555
44.7534
44.7514
44.7494
44.7474
44.7454
44.7434
44.7414
44.7394
44.7374
44.7355
44.7335
44.7315
44.7295
44.7276
44.7256
44.7237
44.7217
44.7198
44.7178
44.7159
44.7139
44.712
44.7101
44.7082
44.7062
44.7043
44.7024
44.7005
44.6986
44.6967
44.6948
44.6929
44.691
44.6891
44.6872
44.6853
44.6834
44.6816
44.6797
44.6778
44.6759
44.6741
44.6722
44.6704
44.6685
44.6666
44.6648
44.6629
44.6611
44.6593
44.6574
44.6556
44.6537
44.6519
44.6501
44.6483
44.6464
44.6446
44.6428
44.641
44.6392
44.6373
44.6355
44.6337
44.6319
44.6301
44.6283
44.6265
44.6247
44.6229
44.6211
44.6194
44.6176
44.6158
44.614
44.6122
44.6105
44.6087
44.6069
44.6051
44.6034
44.6016
44.5998
44.5981
44.5963
44.5945
44.5928
44.591
44.5893
44.5875
44.5858
44.584
44.5823
44.5805
44.5788
44.5771
44.5753
44.5736
44.5719
44.5701
44.5684
44.5667
44.5649
44.5632
44.5615
44.5598
44.558
44.5563
44.5546
44.5529
44.5512
44.5495
44.5477
44.546
44.5443
44.5426
44.5409
44.5392
44.5375
44.5358
44.5341
44.5324
44.5307
44.529
44.5273
44.5256
44.5239
44.5222
44.5206
44.5189
44.5172
44.5155
44.5138
44.5121
44.5104
44.5088
44.5071
44.5054
44.5037
44.5021
44.5004
44.4987
44.497
44.4954
44.4937
44.492
44.4904
44.4887
44.487
44.4854
44.4837
44.482
44.4804
44.4787
44.477
44.4754
44.4737
44.4721
44.4704
44.4688
44.4671
44.4655
44.4638
44.4622
44.4605
44.4589
44.4572
44.4556
44.4539
44.4523
44.4506
44.449
44.4473
44.4457
44.4441
44.4424
44.4408
44.4391
44.4375
44.4359
44.4342
44.4326
44.431
44.4293
44.4277
44.4261
44.4244
44.4228
44.4212
44.4195
44.4179
44.4163
44.4147
44.413
44.4114
44.4098
44.4082
44.4065
44.4049
44.4033
44.4017
44.4
44.3984
44.3968
44.3952
44.3936
44.392
44.3903
44.3887
44.3871
44.3855
44.3839
44.3823
44.3806
44.379
44.3774
44.3758
44.3742
44.3726
44.371
44.3694
44.3678
44.3661
44.3645
44.3629
44.3613
44.3597
44.3581
44.3565
44.3549
44.3533
44.3517
44.3501
44.3485
44.3469
44.3453
44.3437
44.3421
44.3405
44.3389
44.3373
44.3357
44.3341
44.3325
44.3309
44.3293
44.3277
44.3261
44.3245
44.3229
44.3213
44.3197
44.3181
44.3165
44.3149
44.3133
44.3117
44.3101
44.3086
44.307
44.3054
44.3038
44.3022
44.3006
44.299
44.2974
44.2958
44.2942
44.2926
44.2911
44.2895
44.2879
44.2863
44.2847
44.2831
44.2815
44.28
44.2784
44.2768
44.2752
44.2736
44.272
44.2704
44.2689
44.2673
44.2657
44.2641
44.2625
44.2609
44.2594
44.2578
44.2562
44.2546
44.253
44.2515
44.2499
44.2483
44.2467
44.2451
44.2436
44.242
44.2404
44.2388
44.2372
44.2357
44.2341
44.2325
44.2309
44.2294
44.2278
44.2262
44.2246
44.223
44.2215
44.2199
44.2183
44.2167
44.2152
44.2136
44.212
44.2104
44.2089
44.2073
44.2057
44.2041
44.2026
44.201
44.1994
44.1979
44.1963
44.1947
44.1931
44.1916
44.19
44.1884
44.1869
44.1853
44.1837
44.1821
44.1806
44.179
44.1774
44.1759
44.1743
44.1727
44.1711
44.1696
44.168
44.1664
44.1649
44.1633
44.1617
44.1602
44.1586
44.157
44.1555
44.1539
44.1523
44.1508
44.1492
44.1476
44.1461
44.1445
44.1429
44.1414
44.1398
44.1382
44.1367
44.1351
44.1335
44.132
44.1304
44.1288
44.1273
44.1257
44.1241
44.1226
44.121
44.1194
44.1179
44.1163
44.1148
44.1132
44.1116
44.1101
44.1085
44.1069
44.1054
44.1038
44.1022
44.1007
44.0991
44.0976
44.096
44.0944
44.0929
44.0913
44.0897
44.0882
44.0866
44.0851
44.0835
44.0819
44.0804
44.0788
44.0773
44.0757
44.0741
44.0726
44.071
44.0695
44.0679
44.0663
44.0648
44.0632
44.0617
44.0601
44.0585
44.057
44.0554
44.0539
44.0523
44.0507
44.0492
44.0476
44.0461
44.0445
44.0429
44.0414
44.0398
44.0383
44.0367
44.0351
44.0336
44.032
44.0305
44.0289
44.0274
44.0258
44.0242
44.0227
44.0211
44.0196
44.018
44.0165
44.0149
44.0133
44.0118
44.0102
44.0087
44.0071
44.0056
44.004
44.0025
44.0009
43.9993
43.9978
43.9962
43.9947
43.9931
43.9916
43.99
43.9885
43.9869
43.9853
43.9838
43.9822
43.9807
43.9791
43.9776
43.976
43.9745
43.9729
43.9713
43.9698
43.9682
43.9667
43.9651
43.9636
43.962
43.9605
43.9589
43.9574
43.9558
43.9543
43.9527
43.9511
43.9496
43.948
43.9465
43.9449
43.9434
43.9418
43.9403
43.9387
43.9372
43.9356
43.9341
43.9325
43.931
43.9294
43.9279
43.9263
43.9247
43.9232
43.9216
43.9201
43.9185
43.917
43.9154
43.9139
43.9123
43.9108
43.9092
43.9077
43.9061
43.9046
43.903
43.9015
43.8999
43.8984
43.8968
43.8953
43.8937
43.8922
43.8906
43.8891
43.8875
43.886
43.8844
43.8829
43.8813
43.8798
43.8782
43.8766
43.8751
43.8735
43.872
43.8704
43.8689
43.8673
43.8658
43.8642
43.8627
43.8611
43.8596
43.858
43.8565
43.8549
43.8534
43.8518
43.8503
43.8487
43.8472
43.8456
43.8441
43.8425
43.841
43.8394
43.8379
43.8363
43.8348
43.8332
43.8317
43.8301
43.8286
43.827
43.8255
43.8239
43.8224
43.8208
43.8193
43.8177
43.8162
43.8146
43.8131
43.8115
43.81
43.8085
43.8069
43.8054
43.8038
43.8023
43.8007
43.7992
43.7976
43.7961
43.7945
43.793
43.7914
43.7899
43.7883
43.7868
43.7852
43.7837
43.7821
43.7806
43.779
43.7775
43.7759
43.7744
43.7728
43.7713
43.7697
43.7682
43.7666
43.7651
43.7635
43.762
43.7604
43.7589
43.7573
43.7558
43.7542
43.7527
43.7512
43.7496
43.7481
43.7465
43.745
43.7434
43.7419
43.7403
43.7388
43.7372
43.7357
43.7341
43.7326
43.731
43.7295
43.7279
43.7264
43.7248
43.7233
43.7218
43.7202
43.7187
43.7187
47.1546
47.1546
45.5966
45.3408
45.2753
45.247
45.2301
45.2181
45.2086
45.2006
45.1935
45.1871
45.1811
45.1755
45.1702
45.165
45.1601
45.1552
45.1505
45.1458
45.1413
45.1368
45.1324
45.1281
45.1238
45.1196
45.1154
45.1113
45.1072
45.1032
45.0993
45.0953
45.0915
45.0876
45.0838
45.0801
45.0764
45.0727
45.0691
45.0655
45.0619
45.0584
45.0549
45.0514
45.048
45.0446
45.0412
45.0379
45.0346
45.0313
45.028
45.0248
45.0216
45.0184
45.0153
45.0122
45.0091
45.006
45.0029
44.9999
44.9969
44.9939
44.9909
44.988
44.985
44.9821
44.9792
44.9764
44.9735
44.9707
44.9678
44.965
44.9622
44.9595
44.9567
44.954
44.9512
44.9485
44.9458
44.9431
44.9405
44.9378
44.9352
44.9325
44.9299
44.9273
44.9247
44.9221
44.9196
44.917
44.9145
44.912
44.9094
44.9069
44.9044
44.9019
44.8995
44.897
44.8945
44.8921
44.8897
44.8872
44.8848
44.8824
44.88
44.8776
44.8752
44.8729
44.8705
44.8682
44.8658
44.8635
44.8612
44.8588
44.8565
44.8542
44.8519
44.8496
44.8474
44.8451
44.8428
44.8406
44.8383
44.8361
44.8338
44.8316
44.8294
44.8272
44.825
44.8228
44.8206
44.8184
44.8162
44.814
44.8119
44.8097
44.8076
44.8054
44.8033
44.8011
44.799
44.7969
44.7947
44.7926
44.7905
44.7884
44.7863
44.7842
44.7821
44.7801
44.778
44.7759
44.7738
44.7718
44.7697
44.7677
44.7656
44.7636
44.7615
44.7595
44.7575
44.7555
44.7534
44.7514
44.7494
44.7474
44.7454
44.7434
44.7414
44.7394
44.7374
44.7355
44.7335
44.7315
44.7296
44.7276
44.7256
44.7237
44.7217
44.7198
44.7178
44.7159
44.714
44.712
44.7101
44.7082
44.7062
44.7043
44.7024
44.7005
44.6986
44.6967
44.6948
44.6929
44.691
44.6891
44.6872
44.6853
44.6834
44.6816
44.6797
44.6778
44.676
44.6741
44.6722
44.6704
44.6685
44.6666
44.6648
44.6629
44.6611
44.6593
44.6574
44.6556
44.6537
44.6519
44.6501
44.6483
44.6464
44.6446
44.6428
44.641
44.6392
44.6373
44.6355
44.6337
44.6319
44.6301
44.6283
44.6265
44.6247
44.6229
44.6212
44.6194
44.6176
44.6158
44.614
44.6122
44.6105
44.6087
44.6069
44.6051
44.6034
44.6016
44.5998
44.5981
44.5963
44.5946
44.5928
44.591
44.5893
44.5875
44.5858
44.584
44.5823
44.5806
44.5788
44.5771
44.5753
44.5736
44.5719
44.5701
44.5684
44.5667
44.5649
44.5632
44.5615
44.5598
44.558
44.5563
44.5546
44.5529
44.5512
44.5495
44.5478
44.546
44.5443
44.5426
44.5409
44.5392
44.5375
44.5358
44.5341
44.5324
44.5307
44.529
44.5273
44.5256
44.5239
44.5222
44.5206
44.5189
44.5172
44.5155
44.5138
44.5121
44.5104
44.5088
44.5071
44.5054
44.5037
44.5021
44.5004
44.4987
44.497
44.4954
44.4937
44.492
44.4904
44.4887
44.487
44.4854
44.4837
44.482
44.4804
44.4787
44.4771
44.4754
44.4737
44.4721
44.4704
44.4688
44.4671
44.4655
44.4638
44.4622
44.4605
44.4589
44.4572
44.4556
44.4539
44.4523
44.4506
44.449
44.4473
44.4457
44.4441
44.4424
44.4408
44.4391
44.4375
44.4359
44.4342
44.4326
44.431
44.4293
44.4277
44.4261
44.4244
44.4228
44.4212
44.4195
44.4179
44.4163
44.4147
44.413
44.4114
44.4098
44.4082
44.4065
44.4049
44.4033
44.4017
44.4001
44.3984
44.3968
44.3952
44.3936
44.392
44.3903
44.3887
44.3871
44.3855
44.3839
44.3823
44.3806
44.379
44.3774
44.3758
44.3742
44.3726
44.371
44.3694
44.3678
44.3661
44.3645
44.3629
44.3613
44.3597
44.3581
44.3565
44.3549
44.3533
44.3517
44.3501
44.3485
44.3469
44.3453
44.3437
44.3421
44.3405
44.3389
44.3373
44.3357
44.3341
44.3325
44.3309
44.3293
44.3277
44.3261
44.3245
44.3229
44.3213
44.3197
44.3181
44.3165
44.3149
44.3133
44.3117
44.3101
44.3086
44.307
44.3054
44.3038
44.3022
44.3006
44.299
44.2974
44.2958
44.2942
44.2927
44.2911
44.2895
44.2879
44.2863
44.2847
44.2831
44.2815
44.28
44.2784
44.2768
44.2752
44.2736
44.272
44.2704
44.2689
44.2673
44.2657
44.2641
44.2625
44.2609
44.2594
44.2578
44.2562
44.2546
44.253
44.2515
44.2499
44.2483
44.2467
44.2451
44.2436
44.242
44.2404
44.2388
44.2372
44.2357
44.2341
44.2325
44.2309
44.2294
44.2278
44.2262
44.2246
44.223
44.2215
44.2199
44.2183
44.2167
44.2152
44.2136
44.212
44.2104
44.2089
44.2073
44.2057
44.2042
44.2026
44.201
44.1994
44.1979
44.1963
44.1947
44.1931
44.1916
44.19
44.1884
44.1869
44.1853
44.1837
44.1821
44.1806
44.179
44.1774
44.1759
44.1743
44.1727
44.1712
44.1696
44.168
44.1664
44.1649
44.1633
44.1617
44.1602
44.1586
44.157
44.1555
44.1539
44.1523
44.1508
44.1492
44.1476
44.1461
44.1445
44.1429
44.1414
44.1398
44.1382
44.1367
44.1351
44.1335
44.132
44.1304
44.1288
44.1273
44.1257
44.1241
44.1226
44.121
44.1194
44.1179
44.1163
44.1148
44.1132
44.1116
44.1101
44.1085
44.1069
44.1054
44.1038
44.1022
44.1007
44.0991
44.0976
44.096
44.0944
44.0929
44.0913
44.0898
44.0882
44.0866
44.0851
44.0835
44.0819
44.0804
44.0788
44.0773
44.0757
44.0741
44.0726
44.071
44.0695
44.0679
44.0663
44.0648
44.0632
44.0617
44.0601
44.0585
44.057
44.0554
44.0539
44.0523
44.0507
44.0492
44.0476
44.0461
44.0445
44.0429
44.0414
44.0398
44.0383
44.0367
44.0352
44.0336
44.032
44.0305
44.0289
44.0274
44.0258
44.0242
44.0227
44.0211
44.0196
44.018
44.0165
44.0149
44.0134
44.0118
44.0102
44.0087
44.0071
44.0056
44.004
44.0025
44.0009
43.9993
43.9978
43.9962
43.9947
43.9931
43.9916
43.99
43.9885
43.9869
43.9853
43.9838
43.9822
43.9807
43.9791
43.9776
43.976
43.9745
43.9729
43.9714
43.9698
43.9682
43.9667
43.9651
43.9636
43.962
43.9605
43.9589
43.9574
43.9558
43.9543
43.9527
43.9512
43.9496
43.948
43.9465
43.9449
43.9434
43.9418
43.9403
43.9387
43.9372
43.9356
43.9341
43.9325
43.931
43.9294
43.9279
43.9263
43.9248
43.9232
43.9216
43.9201
43.9185
43.917
43.9154
43.9139
43.9123
43.9108
43.9092
43.9077
43.9061
43.9046
43.903
43.9015
43.8999
43.8984
43.8968
43.8953
43.8937
43.8922
43.8906
43.8891
43.8875
43.886
43.8844
43.8829
43.8813
43.8798
43.8782
43.8767
43.8751
43.8736
43.872
43.8704
43.8689
43.8673
43.8658
43.8642
43.8627
43.8611
43.8596
43.858
43.8565
43.8549
43.8534
43.8518
43.8503
43.8487
43.8472
43.8456
43.8441
43.8425
43.841
43.8394
43.8379
43.8363
43.8348
43.8332
43.8317
43.8301
43.8286
43.827
43.8255
43.8239
43.8224
43.8208
43.8193
43.8177
43.8162
43.8147
43.8131
43.8116
43.81
43.8085
43.8069
43.8054
43.8038
43.8023
43.8007
43.7992
43.7976
43.7961
43.7945
43.793
43.7914
43.7899
43.7883
43.7868
43.7852
43.7837
43.7821
43.7806
43.779
43.7775
43.7759
43.7744
43.7728
43.7713
43.7697
43.7682
43.7666
43.7651
43.7635
43.762
43.7604
43.7589
43.7573
43.7558
43.7543
43.7527
43.7512
43.7496
43.7481
43.7465
43.745
43.7434
43.7419
43.7403
43.7388
43.7372
43.7357
43.7341
43.7326
43.731
43.7295
43.7279
43.7264
43.7249
43.7233
43.7218
43.7202
43.7187
43.7187
46.4651
46.4651
45.5807
45.3475
45.2789
45.249
45.2314
45.219
45.2093
45.2011
45.1939
45.1874
45.1814
45.1758
45.1704
45.1652
45.1602
45.1554
45.1506
45.146
45.1414
45.1369
45.1325
45.1282
45.1239
45.1197
45.1155
45.1114
45.1073
45.1033
45.0993
45.0954
45.0915
45.0877
45.0839
45.0801
45.0764
45.0727
45.0691
45.0655
45.0619
45.0584
45.0549
45.0514
45.048
45.0446
45.0412
45.0379
45.0346
45.0313
45.0281
45.0248
45.0216
45.0185
45.0153
45.0122
45.0091
45.006
45.0029
44.9999
44.9969
44.9939
44.9909
44.988
44.985
44.9821
44.9792
44.9764
44.9735
44.9707
44.9678
44.965
44.9622
44.9595
44.9567
44.954
44.9512
44.9485
44.9458
44.9431
44.9405
44.9378
44.9352
44.9325
44.9299
44.9273
44.9247
44.9222
44.9196
44.917
44.9145
44.912
44.9094
44.9069
44.9044
44.9019
44.8995
44.897
44.8945
44.8921
44.8897
44.8872
44.8848
44.8824
44.88
44.8776
44.8753
44.8729
44.8705
44.8682
44.8658
44.8635
44.8612
44.8588
44.8565
44.8542
44.8519
44.8497
44.8474
44.8451
44.8428
44.8406
44.8383
44.8361
44.8339
44.8316
44.8294
44.8272
44.825