# vtk DataFile Version 2.0
FlowField
ASCII
DATASET STRUCTURED_GRID
DIMENSIONS 800 1 200
POINTS 160000 float
0 0 0
0.04 0 0
0.08 0 0
0.12 0 0
0.16 0 0
0.2 0 0
0.24 0 0
0.28 0 0
0.32 0 0
0.36 0 0
0.4 0 0
0.44 0 0
0.48 0 0
0.52 0 0
0.56 0 0
0.6 0 0
0.64 0 0
0.68 0 0
0.72 0 0
0.76 0 0
0.8 0 0
0.84 0 0
0.88 0 0
0.92 0 0
0.96 0 0
1 0 0
1.04 0 0
1.08 0 0
1.12 0 0
1.16 0 0
1.2 0 0
1.24 0 0
1.28 0 0
1.32 0 0
1.36 0 0
1.4 0 0
1.44 0 0
1.48 0 0
1.52 0 0
1.56 0 0
1.6 0 0
1.64 0 0
1.68 0 0
1.72 0 0
1.76 0 0
1.8 0 0
1.84 0 0
1.88 0 0
1.92 0 0
1.96 0 0
2 0 0
2.04 0 0
2.08 0 0
2.12 0 0
2.16 0 0
2.2 0 0
2.24 0 0
2.28 0 0
2.32 0 0
2.36 0 0
2.4 0 0
2.44 0 0
2.48 0 0
2.52 0 0
2.56 0 0
2.6 0 0
2.64 0 0
2.68 0 0
2.72 0 0
2.76 0 0
2.8 0 0
2.84 0 0
2.88 0 0
2.92 0 0
2.96 0 0
3 0 0
3.04 0 0
3.08 0 0
3.12 0 0
3.16 0 0
3.2 0 0
3.24 0 0
3.28 0 0
3.32 0 0
3.36 0 0
3.4 0 0
3.44 0 0
3.48 0 0
3.52 0 0
3.56 0 0
3.6 0 0
3.64 0 0
3.68 0 0
3.72 0 0
3.76 0 0
3.8 0 0
3.84 0 0
3.88 0 0
3.92 0 0
3.96 0 0
4 0 0
4.04 0 0
4.08 0 0
4.12 0 0
4.16 0 0
4.2 0 0
4.24 0 0
4.28 0 0
4.32 0 0
4.36 0 0
4.4 0 0
4.44 0 0
4.48 0 0
4.52 0 0
4.56 0 0
4.6 0 0
4.64 0 0
4.68 0 0
4.72 0 0
4.76 0 0
4.8 0 0
4.84 0 0
4.88 0 0
4.92 0 0
4.96 0 0
5 0 0
5.04 0 0
5.08 0 0
5.12 0 0
5.16 0 0
5.2 0 0
5.24 0 0
5.28 0 0
5.32 0 0
5.36 0 0
5.4 0 0
5.44 0 0
5.48 0 0
5.52 0 0
5.56 0 0
5.6 0 0
5.64 0 0
5.68 0 0
5.72 0 0
5.76 0 0
5.8 0 0
5.84 0 0
5.88 0 0
5.92 0 0
5.96 0 0
6 0 0
6.04 0 0
6.08 0 0
6.12 0 0
6.16 0 0
6.2 0 0
6.24 0 0
6.28 0 0
6.32 0 0
6.36 0 0
6.4 0 0
6.44 0 0
6.48 0 0
6.52 0 0
6.56 0 0
6.6 0 0
6.64 0 0
6.68 0 0
6.72 0 0
6.76 0 0
6.8 0 0
6.84 0 0
6.88 0 0
6.92 0 0
6.96 0 0
7 0 0
7.04 0 0
7.08 0 0
7.12 0 0
7.16 0 0
7.2 0 0
7.24 0 0
7.28 0 0
7.32 0 0
7.36 0 0
7.4 0 0
7.44 0 0
7.48 0 0
7.52 0 0
7.56 0 0
7.6 0 0
7.64 0 0
7.68 0 0
7.72 0 0
7.76 0 0
7.8 0 0
7.84 0 0
7.88 0 0
7.92 0 0
7.96 0 0
8 0 0
8.04 0 0
8.08 0 0
8.12 0 0
8.16 0 0
8.2 0 0
8.24 0 0
8.28 0 0
8.32 0 0
8.36 0 0
8.4 0 0
8.44 0 0
8.48 0 0
8.52 0 0
8.56 0 0
8.6 0 0
8.64 0 0
8.68 0 0
8.72 0 0
8.76 0 0
8.8 0 0
8.84 0 0
8.88 0 0
8.92 0 0
8.96 0 0
9 0 0
9.04 0 0
9.08 0 0
9.12 0 0
9.16 0 0
9.2 0 0
9.24 0 0
9.28 0 0
9.32 0 0
9.36 0 0
9.4 0 0
9.44 0 0
9.48 0 0
9.52 0 0
9.56 0 0
9.6 0 0
9.64 0 0
9.68 0 0
9.72 0 0
9.76 0 0
9.8 0 0
9.84 0 0
9.88 0 0
9.92 0 0
9.96 0 0
10 0 0
10.04 0 0
10.08 0 0
10.12 0 0
10.16 0 0
10.2 0 0
10.24 0 0
10.28 0 0
10.32 0 0
10.36 0 0
10.4 0 0
10.44 0 0
10.48 0 0
10.52 0 0
10.56 0 0
10.6 0 0
10.64 0 0
10.68 0 0
10.72 0 0
10.76 0 0
10.8 0 0
10.84 0 0
10.88 0 0
10.92 0 0
10.96 0 0
11 0 0
11.04 0 0
11.08 0 0
11.12 0 0
11.16 0 0
11.2 0 0
11.24 0 0
11.28 0 0
11.32 0 0
11.36 0 0
11.4 0 0
11.44 0 0
11.48 0 0
11.52 0 0
11.56 0 0
11.6 0 0
11.64 0 0
11.68 0 0
11.72 0 0
11.76 0 0
11.8 0 0
11.84 0 0
11.88 0 0
11.92 0 0
11.96 0 0
12 0 0
12.04 0 0
12.08 0 0
12.12 0 0
12.16 0 0
12.2 0 0
12.24 0 0
12.28 0 0
12.32 0 0
12.36 0 0
12.4 0 0
12.44 0 0
12.48 0 0
12.52 0 0
12.56 0 0
12.6 0 0
12.64 0 0
12.68 0 0
12.72 0 0
12.76 0 0
12.8 0 0
12.84 0 0
12.88 0 0
12.92 0 0
12.96 0 0
13 0 0
13.04 0 0
13.08 0 0
13.12 0 0
13.16 0 0
13.2 0 0
13.24 0 0
13.28 0 0
13.32 0 0
13.36 0 0
13.4 0 0
13.44 0 0
13.48 0 0
13.52 0 0
13.56 0 0
13.6 0 0
13.64 0 0
13.68 0 0
13.72 0 0
13.76 0 0
13.8 0 0
13.84 0 0
13.88 0 0
13.92 0 0
13.96 0 0
14 0 0
14.04 0 0
14.08 0 0
14.12 0 0
14.16 0 0
14.2 0 0
14.24 0 0
14.28 0 0
14.32 0 0
14.36 0 0
14.4 0 0
14.44 0 0
14.48 0 0
14.52 0 0
14.56 0 0
14.6 0 0
14.64 0 0
14.68 0 0
14.72 0 0
14.76 0 0
14.8 0 0
14.84 0 0
14.88 0 0
14.92 0 0
14.96 0 0
15 0 0
15.04 0 0
15.08 0 0
15.12 0 0
15.16 0 0
15.2 0 0
15.24 0 0
15.28 0 0
15.32 0 0
15.36 0 0
15.4 0 0
15.44 0 0
15.48 0 0
15.52 0 0
15.56 0 0
15.6 0 0
15.64 0 0
15.68 0 0
15.72 0 0
15.76 0 0
15.8 0 0
15.84 0 0
15.88 0 0
15.92 0 0
15.96 0 0
16 0 0
16.04 0 0
16.08 0 0
16.12 0 0
16.16 0 0
16.2 0 0
16.24 0 0
16.28 0 0
16.32 0 0
16.36 0 0
16.4 0 0
16.44 0 0
16.48 0 0
16.52 0 0
16.56 0 0
16.6 0 0
16.64 0 0
16.68 0 0
16.72 0 0
16.76 0 0
16.8 0 0
16.84 0 0
16.88 0 0
16.92 0 0
16.96 0 0
17 0 0
17.04 0 0
17.08 0 0
17.12 0 0
17.16 0 0
17.2 0 0
17.24 0 0
17.28 0 0
17.32 0 0
17.36 0 0
17.4 0 0
17.44 0 0
17.48 0 0
17.52 0 0
17.56 0 0
17.6 0 0
17.64 0 0
17.68 0 0
17.72 0 0
17.76 0 0
17.8 0 0
17.84 0 0
17.88 0 0
17.92 0 0
17.96 0 0
18 0 0
18.04 0 0
18.08 0 0
18.12 0 0
18.16 0 0
18.2 0 0
18.24 0 0
18.28 0 0
18.32 0 0
18.36 0 0
18.4 0 0
18.44 0 0
18.48 0 0
18.52 0 0
18.56 0 0
18.6 0 0
18.64 0 0
18.68 0 0
18.72 0 0
18.76 0 0
18.8 0 0
18.84 0 0
18.88 0 0
18.92 0 0
18.96 0 0
19 0 0
19.04 0 0
19.08 0 0
19.12 0 0
19.16 0 0
19.2 0 0
19.24 0 0
19.28 0 0
19.32 0 0
19.36 0 0
19.4 0 0
19.44 0 0
19.48 0 0
19.52 0 0
19.56 0 0
19.6 0 0
19.64 0 0
19.68 0 0
19.72 0 0
19.76 0 0
19.8 0 0
19.84 0 0
19.88 0 0
19.92 0 0
19.96 0 0
20 0 0
20.04 0 0
20.08 0 0
20.12 0 0
20.16 0 0
20.2 0 0
20.24 0 0
20.28 0 0
20.32 0 0
20.36 0 0
20.4 0 0
20.44 0 0
20.48 0 0
20.52 0 0
20.56 0 0
20.6 0 0
20.64 0 0
20.68 0 0
20.72 0 0
20.76 0 0
20.8 0 0
20.84 0 0
20.88 0 0
20.92 0 0
20.96 0 0
21 0 0
21.04 0 0
21.08 0 0
21.12 0 0
21.16 0 0
21.2 0 0
21.24 0 0
21.28 0 0
21.32 0 0
21.36 0 0
21.4 0 0
21.44 0 0
21.48 0 0
21.52 0 0
21.56 0 0
21.6 0 0
21.64 0 0
21.68 0 0
21.72 0 0
21.76 0 0
21.8 0 0
21.84 0 0
21.88 0 0
21.92 0 0
21.96 0 0
22 0 0
22.04 0 0
22.08 0 0
22.12 0 0
22.16 0 0
22.2 0 0
22.24 0 0
22.28 0 0
22.32 0 0
22.36 0 0
22.4 0 0
22.44 0 0
22.48 0 0
22.52 0 0
22.56 0 0
22.6 0 0
22.64 0 0
22.68 0 0
22.72 0 0
22.76 0 0
22.8 0 0
22.84 0 0
22.88 0 0
22.92 0 0
22.96 0 0
23 0 0
23.04 0 0
23.08 0 0
23.12 0 0
23.16 0 0
23.2 0 0
23.24 0 0
23.28 0 0
23.32 0 0
23.36 0 0
23.4 0 0
23.44 0 0
23.48 0 0
23.52 0 0
23.56 0 0
23.6 0 0
23.64 0 0
23.68 0 0
23.72 0 0
23.76 0 0
23.8 0 0
23.84 0 0
23.88 0 0
23.92 0 0
23.96 0 0
24 0 0
24.04 0 0
24.08 0 0
24.12 0 0
24.16 0 0
24.2 0 0
24.24 0 0
24.28 0 0
24.32 0 0
24.36 0 0
24.4 0 0
24.44 0 0
24.48 0 0
24.52 0 0
24.56 0 0
24.6 0 0
24.64 0 0
24.68 0 0
24.72 0 0
24.76 0 0
24.8 0 0
24.84 0 0
24.88 0 0
24.92 0 0
24.96 0 0
25 0 0
25.04 0 0
25.08 0 0
25.12 0 0
25.16 0 0
25.2 0 0
25.24 0 0
25.28 0 0
25.32 0 0
25.36 0 0
25.4 0 0
25.44 0 0
25.48 0 0
25.52 0 0
25.56 0 0
25.6 0 0
25.64 0 0
25.68 0 0
25.72 0 0
25.76 0 0
25.8 0 0
25.84 0 0
25.88 0 0
25.92 0 0
25.96 0 0
26 0 0
26.04 0 0
26.08 0 0
26.12 0 0
26.16 0 0
26.2 0 0
26.24 0 0
26.28 0 0
26.32 0 0
26.36 0 0
26.4 0 0
26.44 0 0
26.48 0 0
26.52 0 0
26.56 0 0
26.6 0 0
26.64 0 0
26.68 0 0
26.72 0 0
26.76 0 0
26.8 0 0
26.84 0 0
26.88 0 0
26.92 0 0
26.96 0 0
27 0 0
27.04 0 0
27.08 0 0
27.12 0 0
27.16 0 0
27.2 0 0
27.24 0 0
27.28 0 0
27.32 0 0
27.36 0 0
27.4 0 0
27.44 0 0
27.48 0 0
27.52 0 0
27.56 0 0
27.6 0 0
27.64 0 0
27.68 0 0
27.72 0 0
27.76 0 0
27.8 0 0
27.84 0 0
27.88 0 0
27.92 0 0
27.96 0 0
28 0 0
28.04 0 0
28.08 0 0
28.12 0 0
28.16 0 0
28.2 0 0
28.24 0 0
28.28 0 0
28.32 0 0
28.36 0 0
28.4 0 0
28.44 0 0
28.48 0 0
28.52 0 0
28.56 0 0
28.6 0 0
28.64 0 0
28.68 0 0
28.72 0 0
28.76 0 0
28.8 0 0
28.84 0 0
28.88 0 0
28.92 0 0
28.96 0 0
29 0 0
29.04 0 0
29.08 0 0
29.12 0 0
29.16 0 0
29.2 0 0
29.24 0 0
29.28 0 0
29.32 0 0
29.36 0 0
29.4 0 0
29.44 0 0
29.48 0 0
29.52 0 0
29.56 0 0
29.6 0 0
29.64 0 0
29.68 0 0
29.72 0 0
29.76 0 0
29.8 0 0
29.84 0 0
29.88 0 0
29.92 0 0
29.96 0 0
30 0 0
30.04 0 0
30.08 0 0
30.12 0 0
30.16 0 0
30.2 0 0
30.24 0 0
30.28 0 0
30.32 0 0
30.36 0 0
30.4 0 0
30.44 0 0
30.48 0 0
30.52 0 0
30.56 0 0
30.6 0 0
30.64 0 0
30.68 0 0
30.72 0 0
30.76 0 0
30.8 0 0
30.84 0 0
30.88 0 0
30.92 0 0
30.96 0 0
31 0 0
31.04 0 0
31.08 0 0
31.12 0 0
31.16 0 0
31.2 0 0
31.24 0 0
31.28 0 0
31.32 0 0
31.36 0 0
31.4 0 0
31.44 0 0
31.48 0 0
31.52 0 0
31.56 0 0
31.6 0 0
31.64 0 0
31.68 0 0
31.72 0 0
31.76 0 0
31.8 0 0
31.84 0 0
31.88 0 0
31.92 0 0
31.96 0 0
0 0.005 0
0.04 0.005 0
0.08 0.005 0
0.12 0.005 0
0.16 0.005 0
0.2 0.005 0
0.24 0.005 0
0.28 0.005 0
0.32 0.005 0
0.36 0.005 0
0.4 0.005 0
0.44 0.005 0
0.48 0.005 0
0.52 0.005 0
0.56 0.005 0
0.6 0.005 0
0.64 0.005 0
0.68 0.005 0
0.72 0.005 0
0.76 0.005 0
0.8 0.005 0
0.84 0.005 0
0.88 0.005 0
0.92 0.005 0
0.96 0.005 0
1 0.005 0
1.04 0.005 0
1.08 0.005 0
1.12 0.005 0
1.16 0.005 0
1.2 0.005 0
1.24 0.005 0
1.28 0.005 0
1.32 0.005 0
1.36 0.005 0
1.4 0.005 0
1.44 0.005 0
1.48 0.005 0
1.52 0.005 0
1.56 0.005 0
1.6 0.005 0
1.64 0.005 0
1.68 0.005 0
1.72 0.005 0
1.76 0.005 0
1.8 0.005 0
1.84 0.005 0
1.88 0.005 0
1.92 0.005 0
1.96 0.005 0
2 0.005 0
2.04 0.005 0
2.08 0.005 0
2.12 0.005 0
2.16 0.005 0
2.2 0.005 0
2.24 0.005 0
2.28 0.005 0
2.32 0.005 0
2.36 0.005 0
2.4 0.005 0
2.44 0.005 0
2.48 0.005 0
2.52 0.005 0
2.56 0.005 0
2.6 0.005 0
2.64 0.005 0
2.68 0.005 0
2.72 0.005 0
2.76 0.005 0
2.8 0.005 0
2.84 0.005 0
2.88 0.005 0
2.92 0.005 0
2.96 0.005 0
3 0.005 0
3.04 0.005 0
3.08 0.005 0
3.12 0.005 0
3.16 0.005 0
3.2 0.005 0
3.24 0.005 0
3.28 0.005 0
3.32 0.005 0
3.36 0.005 0
3.4 0.005 0
3.44 0.005 0
3.48 0.005 0
3.52 0.005 0
3.56 0.005 0
3.6 0.005 0
3.64 0.005 0
3.68 0.005 0
3.72 0.005 0
3.76 0.005 0
3.8 0.005 0
3.84 0.005 0
3.88 0.005 0
3.92 0.005 0
3.96 0.005 0
4 0.005 0
4.04 0.005 0
4.08 0.005 0
4.12 0.005 0
4.16 0.005 0
4.2 0.005 0
4.24 0.005 0
4.28 0.005 0
4.32 0.005 0
4.36 0.005 0
4.4 0.005 0
4.44 0.005 0
4.48 0.005 0
4.52 0.005 0
4.56 0.005 0
4.6 0.005 0
4.64 0.005 0
4.68 0.005 0
4.72 0.005 0
4.76 0.005 0
4.8 0.005 0
4.84 0.005 0
4.88 0.005 0
4.92 0.005 0
4.96 0.005 0
5 0.005 0
5.04 0.005 0
5.08 0.005 0
5.12 0.005 0
5.16 0.005 0
5.2 0.005 0
5.24 0.005 0
5.28 0.005 0
5.32 0.005 0
5.36 0.005 0
5.4 0.005 0
5.44 0.005 0
5.48 0.005 0
5.52 0.005 0
5.56 0.005 0
5.6 0.005 0
5.64 0.005 0
5.68 0.005 0
5.72 0.005 0
5.76 0.005 0
5.8 0.005 0
5.84 0.005 0
5.88 0.005 0
5.92 0.005 0
5.96 0.005 0
6 0.005 0
6.04 0.005 0
6.08 0.005 0
6.12 0.005 0
6.16 0.005 0
6.2 0.005 0
6.24 0.005 0
6.28 0.005 0
6.32 0.005 0
6.36 0.005 0
6.4 0.005 0
6.44 0.005 0
6.48 0.005 0
6.52 0.005 0
6.56 0.005 0
6.6 0.005 0
6.64 0.005 0
6.68 0.005 0
6.72 0.005 0
6.76 0.005 0
6.8 0.005 0
6.84 0.005 0
6.88 0.005 0
6.92 0.005 0
6.96 0.005 0
7 0.005 0
7.04 0.005 0
7.08 0.005 0
7.12 0.005 0
7.16 0.005 0
7.2 0.005 0
7.24 0.005 0
7.28 0.005 0
7.32 0.005 0
7.36 0.005 0
7.4 0.005 0
[...]
POINT_DATA 160000

SCALARS u float 1
LOOKUP_TABLE default
-1
-0.483358
-0.183963
-0.108845
-0.0810331
-0.0668337
-0.0581182
-0.0521528
-0.0477775
-0.0444146
-0.0417414
-0.0395616
-0.0377484
-0.0362154
-0.0349016
-0.0337626
-0.0327649
-0.0318831
-0.0310975
-0.0303925
-0.0297555
-0.0291765
-0.0286474
-0.0281613
-0.0277127
-0.027297
-0.0269101
-0.0265489
-0.0262106
-0.0258927
-0.0255931
-0.0253102
-0.0250424
-0.0247883
-0.0245467
-0.0243167
-0.0240973
-0.0238877
-0.0236872
-0.0234951
-0.0233109
-0.023134
-0.022964
-0.0228004
-0.0226428
-0.0224909
-0.0223444
-0.0222029
-0.0220662
-0.021934
-0.0218061
-0.0216823
-0.0215623
-0.021446
-0.0213331
-0.0212236
-0.0211173
-0.021014
-0.0209136
-0.0208159
-0.0207209
-0.0206284
-0.0205384
-0.0204507
-0.0203652
-0.0202819
-0.0202006
-0.0201213
-0.0200439
-0.0199683
-0.0198946
-0.0198225
-0.019752
-0.0196832
-0.0196158
-0.01955
-0.0194855
-0.0194225
-0.0193607
-0.0193003
-0.0192411
-0.0191831
-0.0191263
-0.0190706
-0.019016
-0.0189624
-0.0189099
-0.0188584
-0.0188079
-0.0187583
-0.0187097
-0.0186619
-0.0186149
-0.0185689
-0.0185236
-0.0184791
-0.0184354
-0.0183925
-0.0183503
-0.0183088
-0.018268
-0.0182279
-0.0181884
-0.0181496
-0.0181114
-0.0180739
-0.0180369
-0.0180005
-0.0179647
-0.0179294
-0.0178947
-0.0178605
-0.0178269
-0.0177937
-0.017761
-0.0177288
-0.0176971
-0.0176659
-0.0176351
-0.0176047
-0.0175748
-0.0175453
-0.0175163
-0.0174876
-0.0174593
-0.0174315
-0.017404
-0.0173768
-0.0173501
-0.0173237
-0.0172977
-0.017272
-0.0172466
-0.0172216
-0.0171969
-0.0171726
-0.0171485
-0.0171248
-0.0171014
-0.0170782
-0.0170554
-0.0170328
-0.0170106
-0.0169886
-0.0169669
-0.0169454
-0.0169242
-0.0169033
-0.0168826
-0.0168622
-0.016842
-0.0168221
-0.0168024
-0.0167829
-0.0167637
-0.0167447
-0.0167259
-0.0167074
-0.016689
-0.0166709
-0.016653
-0.0166353
-0.0166178
-0.0166005
-0.0165834
-0.0165665
-0.0165498
-0.0165332
-0.0165169
-0.0165007
-0.0164847
-0.0164689
-0.0164533
-0.0164379
-0.0164226
-0.0164075
-0.0163925
-0.0163778
-0.0163631
-0.0163487
-0.0163344
-0.0163202
-0.0163062
-0.0162924
-0.0162787
-0.0162651
-0.0162517
-0.0162385
-0.0162254
-0.0162124
-0.0161995
-0.0161868
-0.0161743
-0.0161618
-0.0161495
-0.0161373
-0.0161253
-0.0161134
-0.0161016
-0.0160899
-0.0160783
-0.0160669
-0.0160556
-0.0160444
-0.0160333
-0.0160223
-0.0160115
-0.0160007
-0.0159901
-0.0159796
-0.0159692
-0.0159589
-0.0159487
-0.0159386
-0.0159286
-0.0159187
-0.0159089
-0.0158992
-0.0158896
-0.0158801
-0.0158707
-0.0158613
-0.0158521
-0.015843
-0.015834
-0.015825
-0.0158162
-0.0158074
-0.0157987
-0.0157901
-0.0157816
-0.0157732
-0.0157649
-0.0157566
-0.0157484
-0.0157403
-0.0157323
-0.0157244
-0.0157165
-0.0157088
-0.0157011
-0.0156934
-0.0156859
-0.0156784
-0.015671
-0.0156637
-0.0156564
-0.0156493
-0.0156421
-0.0156351
-0.0156281
-0.0156212
-0.0156144
-0.0156076
-0.0156009
-0.0155942
-0.0155877
-0.0155811
-0.0155747
-0.0155683
-0.015562
-0.0155557
-0.0155495
-0.0155434
-0.0155373
-0.0155312
-0.0155253
-0.0155194
-0.0155135
-0.0155077
-0.015502
-0.0154963
-0.0154907
-0.0154851
-0.0154795
-0.0154741
-0.0154687
-0.0154633
-0.015458
-0.0154527
-0.0154475
-0.0154423
-0.0154372
-0.0154321
-0.0154271
-0.0154221
-0.0154172
-0.0154123
-0.0154075
-0.0154027
-0.015398
-0.0153933
-0.0153886
-0.015384
-0.0153795
-0.0153749
-0.0153705
-0.015366
-0.0153616
-0.0153573
-0.015353
-0.0153487
-0.0153445
-0.0153403
-0.0153361
-0.015332
-0.0153279
-0.0153239
-0.0153199
-0.0153159
-0.015312
-0.0153081
-0.0153043
-0.0153005
-0.0152967
-0.0152929
-0.0152892
-0.0152855
-0.0152819
-0.0152783
-0.0152747
-0.0152712
-0.0152677
-0.0152642
-0.0152607
-0.0152573
-0.0152539
-0.0152506
-0.0152473
-0.015244
-0.0152407
-0.0152375
-0.0152343
-0.0152311
-0.015228
-0.0152249
-0.0152218
-0.0152187
-0.0152157
-0.0152127
-0.0152097
-0.0152068
-0.0152038
-0.0152009
-0.0151981
-0.0151952
-0.0151924
-0.0151896
-0.0151868
-0.0151841
-0.0151814
-0.0151787
-0.015176
-0.0151734
-0.0151708
-0.0151682
-0.0151656
-0.015163
-0.0151605
-0.015158
-0.0151555
-0.0151531
-0.0151506
-0.0151482
-0.0151458
-0.0151434
-0.0151411
-0.0151387
-0.0151364
-0.0151341
-0.0151318
-0.0151296
-0.0151274
-0.0151251
-0.0151229
-0.0151208
-0.0151186
-0.0151165
-0.0151143
-0.0151122
-0.0151102
-0.0151081
-0.015106
-0.015104
-0.015102
-0.0151
-0.015098
-0.0150961
-0.0150941
-0.0150922
-0.0150903
-0.0150884
-0.0150865
-0.0150846
-0.0150828
-0.015081
-0.0150791
-0.0150773
-0.0150756
-0.0150738
-0.015072
-0.0150703
-0.0150686
-0.0150668
-0.0150651
-0.0150635
-0.0150618
-0.0150601
-0.0150585
-0.0150569
-0.0150552
-0.0150536
-0.015052
-0.0150505
-0.0150489
-0.0150473
-0.0150458
-0.0150443
-0.0150428
-0.0150413
-0.0150398
-0.0150383
-0.0150368
-0.0150354
-0.0150339
-0.0150325
-0.0150311
-0.0150297
-0.0150283
-0.0150269
-0.0150255
-0.0150241
-0.0150228
-0.0150214
-0.0150201
-0.0150188
-0.0150175
-0.0150162
-0.0150149
-0.0150136
-0.0150123
-0.0150111
-0.0150098
-0.0150086
-0.0150073
-0.0150061
-0.0150049
-0.0150037
-0.0150025
-0.0150013
-0.0150001
-0.014999
-0.0149978
-0.0149966
-0.0149955
-0.0149944
-0.0149932
-0.0149921
-0.014991
-0.0149899
-0.0149888
-0.0149877
-0.0149866
-0.0149856
-0.0149845
-0.0149835
-0.0149824
-0.0149814
-0.0149803
-0.0149793
-0.0149783
-0.0149773
-0.0149763
-0.0149753
-0.0149743
-0.0149733
-0.0149723
-0.0149714
-0.0149704
-0.0149694
-0.0149685
-0.0149675
-0.0149666
-0.0149657
-0.0149648
-0.0149638
-0.0149629
-0.014962
-0.0149611
-0.0149602
-0.0149594
-0.0149585
-0.0149576
-0.0149567
-0.0149559
-0.014955
-0.0149542
-0.0149533
-0.0149525
-0.0149517
-0.0149508
-0.01495
-0.0149492
-0.0149484
-0.0149476
-0.0149468
-0.014946
-0.0149452
-0.0149444
-0.0149437
-0.0149429
-0.0149421
-0.0149414
-0.0149406
-0.0149399
-0.0149391
-0.0149384
-0.0149376
-0.0149369
-0.0149362
-0.0149355
-0.0149348
-0.0149341
-0.0149334
-0.0149327
-0.014932
-0.0149313
-0.0149306
-0.0149299
-0.0149293
-0.0149286
-0.0149279
-0.0149273
-0.0149266
-0.014926
-0.0149253
-0.0149247
-0.0149241
-0.0149235
-0.0149228
-0.0149222
-0.0149216
-0.014921
-0.0149204
-0.0149198
-0.0149192
-0.0149186
-0.014918
-0.0149175
-0.0149169
-0.0149163
-0.0149158
-0.0149152
-0.0149146
-0.0149141
-0.0149135
-0.014913
-0.0149125
-0.0149119
-0.0149114
-0.0149109
-0.0149103
-0.0149098
-0.0149093
-0.0149088
-0.0149083
-0.0149078
-0.0149073
-0.0149068
-0.0149063
-0.0149058
-0.0149054
-0.0149049
-0.0149044
-0.0149039
-0.0149035
-0.014903
-0.0149026
-0.0149021
-0.0149016
-0.0149012
-0.0149008
-0.0149003
-0.0148999
-0.0148994
-0.014899
-0.0148986
-0.0148982
-0.0148977
-0.0148973
-0.0148969
-0.0148965
-0.0148961
-0.0148957
-0.0148953
-0.0148949
-0.0148945
-0.0148941
-0.0148937
-0.0148933
-0.0148929
-0.0148925
-0.0148921
-0.0148917
-0.0148914
-0.014891
-0.0148906
-0.0148902
-0.0148899
-0.0148895
-0.0148891
-0.0148888
-0.0148884
-0.014888
-0.0148877
-0.0148873
-0.014887
-0.0148866
-0.0148863
-0.0148859
-0.0148856
-0.0148852
-0.0148849
-0.0148845
-0.0148842
-0.0148838
-0.0148835
-0.0148832
-0.0148828
-0.0148825
-0.0148822
-0.0148818
-0.0148815
-0.0148812
-0.0148808
-0.0148805
-0.0148802
-0.0148798
-0.0148795
-0.0148792
-0.0148789
-0.0148785
-0.0148782
-0.0148779
-0.0148776
-0.0148772
-0.0148769
-0.0148766
-0.0148763
-0.0148759
-0.0148756
-0.0148753
-0.014875
-0.0148747
-0.0148744
-0.014874
-0.0148737
-0.0148734
-0.0148731
-0.0148728
-0.0148725
-0.0148721
-0.0148718
-0.0148715
-0.0148712
-0.0148709
-0.0148706
-0.0148703
-0.0148699
-0.0148696
-0.0148693
-0.014869
-0.0148687
-0.0148684
-0.0148681
-0.0148678
-0.0148674
-0.0148671
-0.0148668
-0.0148665
-0.0148662
-0.0148659
-0.0148656
-0.0148653
-0.014865
-0.0148646
-0.0148643
-0.014864
-0.0148637
-0.0148634
-0.0148631
-0.0148628
-0.0148625
-0.0148622
-0.0148619
-0.0148615
-0.0148612
-0.0148609
-0.0148606
-0.0148603
-0.01486
-0.0148597
-0.0148594
-0.0148591
-0.0148587
-0.0148584
-0.0148581
-0.0148578
-0.0148575
-0.0148572
-0.0148569
-0.0148566
-0.0148563
-0.014856
-0.0148556
-0.0148553
-0.014855
-0.0148547
-0.0148544
-0.0148541
-0.0148538
-0.0148535
-0.0148532
-0.0148529
-0.0148525
-0.0148522
-0.0148519
-0.0148516
-0.0148513
-0.014851
-0.0148507
-0.0148504
-0.0148501
-0.0148498
-0.0148494
-0.0148491
-0.0148488
-0.0148485
-0.0148482
-0.0148479
-0.0148476
-0.0148473
-0.014847
-0.0148466
-0.0148463
-0.014846
-0.0148457
-0.0148454
-0.0148451
-0.0148448
-0.0148445
-0.0148442
-0.0148439
-0.0148435
-0.0148432
-0.0148429
-0.0148426
-0.0148423
-0.014842
-0.0148417
-0.0148414
-0.0148411
-0.0148408
-0.0148404
-0.0148401
-0.0148398
-0.0148395
-0.0148392
-0.0148389
-0.0148386
-0.0148383
-0.014838
-0.0148376
-0.0148373
-0.014837
-0.0148367
-0.0148364
-0.0148361
-0.0148358
-0.0148354
-0.0148351
-0.0148348
-0.0148345
-0.0148341
-0.0148338
-0.0148335
-0.0148331
-0.0148328
-0.0148324
-0.014832
-0.0148316
-0.0148311
-0.0148306
-0.0148301
-0.0148294
-0.0148288
-0.0148278
-0.0148274
-0.0148274
-0.0148274
1
0.483358
0.183963
0.108845
0.0810331
0.0668337
0.0581182
0.0521528
0.0477775
0.0444146
0.0417414
0.0395616
0.0377484
0.0362154
0.0349016
0.0337626
0.0327649
0.0318831
0.0310975
0.0303925
0.0297555
0.0291765
0.0286474
0.0281613
0.0277127
0.027297
0.0269101
0.0265489
0.0262106
0.0258927
0.0255931
0.0253102
0.0250424
0.0247883
0.0245467
0.0243167
0.0240973
0.0238877
0.0236872
0.0234951
0.0233109
0.023134
0.022964
0.0228004
0.0226428
0.0224909
0.0223444
0.0222029
0.0220662
0.021934
0.0218061
0.0216823
0.0215623
0.021446
0.0213331
0.0212236
0.0211173
0.021014
0.0209136
0.0208159
0.0207209
0.0206284
0.0205384
0.0204507
0.0203652
0.0202819
0.0202006
0.0201213
0.0200439
0.0199683
0.0198946
0.0198225
0.019752
0.0196832
0.0196158
0.01955
0.0194855
0.0194225
0.0193607
0.0193003
0.0192411
0.0191831
0.0191263
0.0190706
0.019016
0.0189624
0.0189099
0.0188584
0.0188079
0.0187583
0.0187097
0.0186619
0.0186149
0.0185689
0.0185236
0.0184791
0.0184354
0.0183925
0.0183503
0.0183088
0.018268
0.0182279
0.0181884
0.0181496
0.0181114
0.0180739
0.0180369
0.0180005
0.0179647
0.0179294
0.0178947
0.0178605
0.0178269
0.0177937
0.017761
0.0177288
0.0176971
0.0176659
0.0176351
0.0176047
0.0175748
0.0175453
0.0175163
0.0174876
0.0174593
0.0174315
0.017404
0.0173768
0.0173501
0.0173237
0.0172977
0.017272
0.0172466
0.0172216
0.0171969
0.0171726
0.0171485
0.0171248
0.0171014
0.0170782
0.0170554
0.0170328
0.0170106
0.0169886
0.0169669
0.0169454
0.0169242
0.0169033
0.0168826
0.0168622
0.016842
0.0168221
0.0168024
0.0167829
0.0167637
0.0167447
0.0167259
0.0167074
0.016689
0.0166709
0.016653
0.0166353
0.0166178
0.0166005
0.0165834
0.0165665
0.0165498
0.0165332
0.0165169
0.0165007
0.0164847
0.0164689
0.0164533
0.0164379
0.0164226
0.0164075
0.0163925
0.0163778
0.0163631
0.0163487
0.0163344
0.0163202
0.0163062
0.0162924
0.0162787
0.0162651
0.0162517
0.0162385
0.0162254
0.0162124
0.0161995
0.0161868
0.0161743
0.0161618
0.0161495
0.0161373
0.0161253
0.0161134
0.0161016
0.0160899
0.0160783
0.0160669
0.0160556
0.0160444
0.0160333
0.0160223
0.0160115
0.0160007
0.0159901
0.0159796
0.0159692
0.0159589
0.0159487
0.0159386
0.0159286
0.0159187
0.0159089
0.0158992
0.0158896
0.0158801
0.0158707
0.0158613
0.0158521
0.015843
0.015834
0.015825
0.0158162
0.0158074
0.0157987
0.0157901
0.0157816
0.0157732
0.0157649
0.0157566
0.0157484
0.0157403
0.0157323
0.0157244
0.0157165
0.0157088
0.0157011
0.0156934
0.0156859
0.0156784
0.015671
0.0156637
0.0156564
0.0156493
0.0156421
0.0156351
0.0156281
0.0156212
0.0156144
0.0156076
0.0156009
0.0155942
0.0155877
0.0155811
0.0155747
0.0155683
0.015562
0.0155557
0.0155495
0.0155434
0.0155373
0.0155312
0.0155253
0.0155194
0.0155135
0.0155077
0.015502
0.0154963
0.0154907
0.0154851
0.0154795
0.0154741
0.0154687
0.0154633
0.015458
0.0154527
0.0154475
0.0154423
0.0154372
0.0154321
0.0154271
0.0154221
0.0154172
0.0154123
0.0154075
0.0154027
0.015398
0.0153933
0.0153886
0.015384
0.0153795
0.0153749
0.0153705
0.015366
0.0153616
0.0153573
0.015353
0.0153487
0.0153445
0.0153403
0.0153361
0.015332
0.0153279
0.0153239
0.0153199
0.0153159
0.015312
0.0153081
0.0153043
0.0153005
0.0152967
0.0152929
0.0152892
0.0152855
0.0152819
0.0152783
0.0152747
0.0152712
0.0152677
0.0152642
0.0152607
0.0152573
0.0152539
0.0152506
0.0152473
0.015244
0.0152407
0.0152375
0.0152343
0.0152311
0.015228
0.0152249
0.0152218
0.0152187
0.0152157
0.0152127
0.0152097
0.0152068
0.0152038
0.0152009
0.0151981
0.0151952
0.0151924
0.0151896
0.0151868
0.0151841
0.0151814
0.0151787
0.015176
0.0151734
0.0151708
0.0151682
0.0151656
0.015163
0.0151605
0.015158
0.0151555
0.0151531
0.0151506
0.0151482
0.0151458
0.0151434
0.0151411
0.0151387
0.0151364
0.0151341
0.0151318
0.0151296
0.0151274
0.0151251
0.0151229
0.0151208
0.0151186
0.0151165
0.0151143
0.0151122
0.0151102
0.0151081
0.015106
0.015104
0.015102
0.0151
0.015098
0.0150961
0.0150941
0.0150922
0.0150903
0.0150884
0.0150865
0.0150846
0.0150828
0.015081
0.0150791
0.0150773
0.0150756
0.0150738
0.015072
0.0150703
0.0150686
0.0150668
0.0150651
0.0150635
0.0150618
0.0150601
0.0150585
0.0150569
0.0150552
0.0150536
0.015052
0.0150505
0.0150489
0.0150473
0.0150458
0.0150443
0.0150428
0.0150413
0.0150398
0.0150383
0.0150368
0.0150354
0.0150339
0.0150325
0.0150311
0.0150297
0.0150283
0.0150269
0.0150255
0.0150241
0.0150228
0.0150214
0.0150201
0.0150188
0.0150175
0.0150162
0.0150149
0.0150136
0.0150123
0.0150111
0.0150098
0.0150086
0.0150073
0.0150061
0.0150049
0.0150037
0.0150025
0.0150013
0.0150001
0.014999
0.0149978
0.0149966
0.0149955
0.0149944
0.0149932
0.0149921
0.014991
0.0149899
0.0149888
0.0149877
0.0149866
0.0149856
0.0149845
0.0149835
0.0149824
0.0149814
0.0149803
0.0149793
0.0149783
0.0149773
0.0149763
0.0149753
0.0149743
0.0149733
0.0149723
0.0149714
0.0149704
0.0149694
0.0149685
0.0149675
0.0149666
0.0149657
0.0149648
0.0149638
0.0149629
0.014962
0.0149611
0.0149602
0.0149594
0.0149585
0.0149576
0.0149567
0.0149559
0.014955
0.0149542
0.0149533
0.0149525
0.0149517
0.0149508
0.01495
0.0149492
0.0149484
0.0149476
0.0149468
0.014946
0.0149452
0.0149444
0.0149437
0.0149429
0.0149421
0.0149414
0.0149406
0.0149399
0.0149391
0.0149384
0.0149376
0.0149369
0.0149362
0.0149355
0.0149348
0.0149341
0.0149334
0.0149327
0.014932
0.0149313
0.0149306
0.0149299
0.0149293
0.0149286
0.0149279
0.0149273
0.0149266
0.014926
0.0149253
0.0149247
0.0149241
0.0149235
0.0149228
0.0149222
0.0149216
0.014921
0.0149204
0.0149198
0.0149192
0.0149186
0.014918
0.0149175
0.0149169
0.0149163
0.0149158
0.0149152
0.0149146
0.0149141
0.0149135
0.014913
0.0149125
0.0149119
0.0149114
0.0149109
0.0149103
0.0149098
0.0149093
0.0149088
0.0149083
0.0149078
0.0149073
0.0149068
0.0149063
0.0149058
0.0149054
0.0149049
0.0149044
0.0149039
0.0149035
0.014903
0.0149026
0.0149021
0.0149016
0.0149012
0.0149008
0.0149003
0.0148999
0.0148994
0.014899
0.0148986
0.0148982
0.0148977
0.0148973
0.0148969
0.0148965
0.0148961
0.0148957
0.0148953
0.0148949
0.0148945
0.0148941
0.0148937
0.0148933
0.0148929
0.0148925
0.0148921
0.0148917
0.0148914
0.014891
0.0148906
0.0148902
0.0148899
0.0148895
0.0148891
0.0148888
0.0148884
0.014888
0.0148877
0.0148873
0.014887
0.0148866
0.0148863
0.0148859
0.0148856
0.0148852
0.0148849
0.0148845
0.0148842
0.0148838
0.0148835
0.0148832
0.0148828
0.0148825
0.0148822
0.0148818
0.0148815
0.0148812
0.0148808
0.0148805
0.0148802
0.0148798
0.0148795
0.0148792
0.0148789
0.0148785
0.0148782
0.0148779
0.0148776
0.0148772
0.0148769
0.0148766
0.0148763
0.0148759
0.0148756
0.0148753
0.014875
0.0148747
0.0148744
0.014874
0.0148737
0.0148734
0.0148731
0.0148728
0.0148725
0.0148721
0.0148718
0.0148715
0.0148712
0.0148709
0.0148706
0.0148703
0.0148699
0.0148696
0.0148693
0.014869
0.0148687
0.0148684
0.0148681
0.0148678
0.0148674
0.0148671
0.0148668
0.0148665
0.0148662
0.0148659
0.0148656
0.0148653
0.014865
0.0148646
0.0148643
0.014864
0.0148637
0.0148634
0.0148631
0.0148628
0.0148625
0.0148622
0.0148619
0.0148615
0.0148612
0.0148609
0.0148606
0.0148603
0.01486
0.0148597
0.0148594
0.0148591
0.0148587
0.0148584
0.0148581
0.0148578
0.0148575
0.0148572
0.0148569
0.0148566
0.0148563
0.014856
0.0148556
0.0148553
0.014855
0.0148547
0.0148544
0.0148541
0.0148538
0.0148535
0.0148532
0.0148529
0.0148525
0.0148522
0.0148519
0.0148516
0.0148513
0.014851
0.0148507
0.0148504
0.0148501
0.0148498
0.0148494
0.0148491
0.0148488
0.0148485
0.0148482
0.0148479
0.0148476
0.0148473
0.014847
0.0148466
0.0148463
0.014846
0.0148457
0.0148454
0.0148451
0.0148448
0.0148445
0.0148442
0.0148439
0.0148435
0.0148432
0.0148429
0.0148426
0.0148423
0.014842
0.0148417
0.0148414
0.0148411
0.0148408
0.0148404
0.0148401
0.0148398
0.0148395
0.0148392
0.0148389
0.0148386
0.0148383
0.014838
0.0148376
0.0148373
0.014837
0.0148367
0.0148364
0.0148361
0.0148358
0.0148354
0.0148351
0.0148348
0.0148345
0.0148341
0.0148338
0.0148335
0.0148331
0.0148328
0.0148324
0.014832
0.0148316
0.0148311
0.0148306
0.0148301
0.0148294
0.0148288
0.0148278
0.0148274
0.0148274
0.0148274
1
0.969192
0.495617
0.314223
0.237897
0.197396
0.172134
0.154697
0.141842
0.131928
0.124028
0.117574
0.112197
0.107646
0.103742
0.100355
0.0973869
0.0947625
0.0924237
0.0903244
0.0884277
0.0867038
0.0851284
0.0836815
0.0823464
0.0811093
0.0799586
0.0788845
0.0778785
0.0769336
0.0760435
0.0752031
0.0744076
0.0736532
0.0729362
0.0722536
0.0716027
0.0709809
0.0703863
0.0698168
0.0692707
0.0687464
0.0682425
0.0677577
0.0672909
0.066841
0.066407
0.065988
0.0655831
0.0651917
0.064813
0.0644464
0.0640912
0.0637469
0.0634129
0.0630888
0.0627741
0.0624684
0.0621713
0.0618823
0.0616013
0.0613277
0.0610613
0.0608018
0.0605489
0.0603024
0.060062
0.0598275
0.0595986
0.0593752
0.0591569
0.0589438
0.0587354
0.0585318
0.0583327
0.058138
0.0579474
0.057761
0.0575785
0.0573998
0.0572248
0.0570533
0.0568853
0.0567207
0.0565593
0.0564011
0.0562459
0.0560936
0.0559443
0.0557977
0.0556539
0.0555126
0.055374
0.0552378
0.055104
0.0549726
0.0548435
0.0547166
0.0545919
0.0544693
0.0543488
0.0542302
0.0541136
0.053999
0.0538861
0.0537751
0.0536659
0.0535584
0.0534526
0.0533484
0.0532458
0.0531448
0.0530454
0.0529474
0.0528509
0.0527558
0.0526622
0.0525699
0.0524789
0.0523893
0.0523009
0.0522138
0.052128
0.0520433
0.0519598
0.0518775
0.0517963
0.0517162
0.0516373
0.0515593
0.0514825
0.0514066
0.0513318
0.0512579
0.051185
0.0511131
0.0510421
0.050972
0.0509028
0.0508345
0.050767
0.0507005
0.0506347
0.0505698
0.0505057
0.0504423
0.0503798
0.050318
0.050257
0.0501967
0.0501372
0.0500783
0.0500202
0.0499628
0.049906
0.0498499
0.0497945
0.0497397
0.0496856
0.0496321
0.0495792
0.049527
0.0494753
0.0494242
0.0493737
0.0493238
0.0492745
0.0492257
0.0491775
0.0491298
0.0490826
0.049036
0.0489899
0.0489443
0.0488992
0.0488546
0.0488105
0.0487669
0.0487238
0.0486811
0.0486389
0.0485972
0.0485559
0.048515
0.0484746
0.0484346
0.0483951
0.048356
0.0483173
0.048279
0.0482411
0.0482036
0.0481665
0.0481298
0.0480935
0.0480576
0.0480221
0.0479869
0.0479521
0.0479176
0.0478836
0.0478498
0.0478164
0.0477834
0.0477507
0.0477184
0.0476863
0.0476546
0.0476233
0.0475922
0.0475615
0.0475311
0.047501
0.0474712
0.0474417
0.0474125
0.0473836
0.047355
0.0473267
0.0472987
0.0472709
0.0472435
0.0472163
0.0471894
0.0471627
0.0471363
0.0471102
0.0470844
0.0470588
0.0470334
0.0470083
0.0469835
0.0469589
0.0469346
0.0469105
0.0468866
0.046863
0.0468396
0.0468164
0.0467935
0.0467708
0.0467483
0.046726
0.046704
0.0466822
0.0466606
0.0466392
0.046618
0.046597
0.0465762
0.0465556
0.0465353
0.0465151
0.0464951
0.0464753
0.0464557
0.0464363
0.0464171
0.0463981
0.0463793
0.0463606
0.0463421
0.0463238
0.0463057
0.0462878
0.04627
0.0462524
0.046235
0.0462177
0.0462006
0.0461837
0.0461669
0.0461503
0.0461338
0.0461175
0.0461014
0.0460854
0.0460696
0.0460539
0.0460384
0.046023
0.0460078
0.0459927
0.0459777
0.0459629
0.0459483
0.0459338
0.0459194
0.0459051
0.045891
0.045877
0.0458632
0.0458495
0.0458359
0.0458224
0.0458091
0.0457959
0.0457828
0.0457699
0.045757
0.0457443
0.0457317
0.0457192
0.0457069
0.0456946
0.0456825
0.0456705
0.0456586
0.0456468
0.0456351
0.0456235
0.045612
0.0456007
0.0455894
0.0455783
0.0455672
0.0455563
0.0455454
0.0455347
0.0455241
0.0455135
0.0455031
0.0454927
0.0454825
0.0454723
0.0454622
0.0454523
0.0454424
0.0454326
0.0454229
0.0454133
0.0454037
0.0453943
0.0453849
0.0453757
0.0453665
0.0453574
0.0453484