# vtk DataFile Version 2.0
FlowField
ASCII
DATASET STRUCTURED_GRID
DIMENSIONS 800 1 200
POINTS 160000 float
0 0 0
0.04 0 0
0.08 0 0
0.12 0 0
0.16 0 0
0.2 0 0
0.24 0 0
0.28 0 0
0.32 0 0
0.36 0 0
0.4 0 0
0.44 0 0
0.48 0 0
0.52 0 0
0.56 0 0
0.6 0 0
0.64 0 0
0.68 0 0
0.72 0 0
0.76 0 0
0.8 0 0
0.84 0 0
0.88 0 0
0.92 0 0
0.96 0 0
1 0 0
1.04 0 0
1.08 0 0
1.12 0 0
1.16 0 0
1.2 0 0
1.24 0 0
1.28 0 0
1.32 0 0
1.36 0 0
1.4 0 0
1.44 0 0
1.48 0 0
1.52 0 0
1.56 0 0
1.6 0 0
1.64 0 0
1.68 0 0
1.72 0 0
1.76 0 0
1.8 0 0
1.84 0 0
1.88 0 0
1.92 0 0
1.96 0 0
2 0 0
2.04 0 0
2.08 0 0
2.12 0 0
2.16 0 0
2.2 0 0
2.24 0 0
2.28 0 0
2.32 0 0
2.36 0 0
2.4 0 0
2.44 0 0
2.48 0 0
2.52 0 0
2.56 0 0
2.6 0 0
2.64 0 0
2.68 0 0
2.72 0 0
2.76 0 0
2.8 0 0
2.84 0 0
2.88 0 0
2.92 0 0
2.96 0 0
3 0 0
3.04 0 0
3.08 0 0
3.12 0 0
3.16 0 0
3.2 0 0
3.24 0 0
3.28 0 0
3.32 0 0
3.36 0 0
3.4 0 0
3.44 0 0
3.48 0 0
3.52 0 0
3.56 0 0
3.6 0 0
3.64 0 0
3.68 0 0
3.72 0 0
3.76 0 0
3.8 0 0
3.84 0 0
3.88 0 0
3.92 0 0
3.96 0 0
4 0 0
4.04 0 0
4.08 0 0
4.12 0 0
4.16 0 0
4.2 0 0
4.24 0 0
4.28 0 0
4.32 0 0
4.36 0 0
4.4 0 0
4.44 0 0
4.48 0 0
4.52 0 0
4.56 0 0
4.6 0 0
4.64 0 0
4.68 0 0
4.72 0 0
4.76 0 0
4.8 0 0
4.84 0 0
4.88 0 0
4.92 0 0
4.96 0 0
5 0 0
5.04 0 0
5.08 0 0
5.12 0 0
5.16 0 0
5.2 0 0
5.24 0 0
5.28 0 0
5.32 0 0
5.36 0 0
5.4 0 0
5.44 0 0
5.48 0 0
5.52 0 0
5.56 0 0
5.6 0 0
5.64 0 0
5.68 0 0
5.72 0 0
5.76 0 0
5.8 0 0
5.84 0 0
5.88 0 0
5.92 0 0
5.96 0 0
6 0 0
6.04 0 0
6.08 0 0
6.12 0 0
6.16 0 0
6.2 0 0
6.24 0 0
6.28 0 0
6.32 0 0
6.36 0 0
6.4 0 0
6.44 0 0
6.48 0 0
6.52 0 0
6.56 0 0
6.6 0 0
6.64 0 0
6.68 0 0
6.72 0 0
6.76 0 0
6.8 0 0
6.84 0 0
6.88 0 0
6.92 0 0
6.96 0 0
7 0 0
7.04 0 0
7.08 0 0
7.12 0 0
7.16 0 0
7.2 0 0
7.24 0 0
7.28 0 0
7.32 0 0
7.36 0 0
7.4 0 0
7.44 0 0
7.48 0 0
7.52 0 0
7.56 0 0
7.6 0 0
7.64 0 0
7.68 0 0
7.72 0 0
7.76 0 0
7.8 0 0
7.84 0 0
7.88 0 0
7.92 0 0
7.96 0 0
8 0 0
8.04 0 0
8.08 0 0
8.12 0 0
8.16 0 0
8.2 0 0
8.24 0 0
8.28 0 0
8.32 0 0
8.36 0 0
8.4 0 0
8.44 0 0
8.48 0 0
8.52 0 0
8.56 0 0
8.6 0 0
8.64 0 0
8.68 0 0
8.72 0 0
8.76 0 0
8.8 0 0
8.84 0 0
8.88 0 0
8.92 0 0
8.96 0 0
9 0 0
9.04 0 0
9.08 0 0
9.12 0 0
9.16 0 0
9.2 0 0
9.24 0 0
9.28 0 0
9.32 0 0
9.36 0 0
9.4 0 0
9.44 0 0
9.48 0 0
9.52 0 0
9.56 0 0
9.6 0 0
9.64 0 0
9.68 0 0
9.72 0 0
9.76 0 0
9.8 0 0
9.84 0 0
9.88 0 0
9.92 0 0
9.96 0 0
10 0 0
10.04 0 0
10.08 0 0
10.12 0 0
10.16 0 0
10.2 0 0
10.24 0 0
10.28 0 0
10.32 0 0
10.36 0 0
10.4 0 0
10.44 0 0
10.48 0 0
10.52 0 0
10.56 0 0
10.6 0 0
10.64 0 0
10.68 0 0
10.72 0 0
10.76 0 0
10.8 0 0
10.84 0 0
10.88 0 0
10.92 0 0
10.96 0 0
11 0 0
11.04 0 0
11.08 0 0
11.12 0 0
11.16 0 0
11.2 0 0
11.24 0 0
11.28 0 0
11.32 0 0
11.36 0 0
11.4 0 0
11.44 0 0
11.48 0 0
11.52 0 0
11.56 0 0
11.6 0 0
11.64 0 0
11.68 0 0
11.72 0 0
11.76 0 0
11.8 0 0
11.84 0 0
11.88 0 0
11.92 0 0
11.96 0 0
12 0 0
12.04 0 0
12.08 0 0
12.12 0 0
12.16 0 0
12.2 0 0
12.24 0 0
12.28 0 0
12.32 0 0
12.36 0 0
12.4 0 0
12.44 0 0
12.48 0 0
12.52 0 0
12.56 0 0
12.6 0 0
12.64 0 0
12.68 0 0
12.72 0 0
12.76 0 0
12.8 0 0
12.84 0 0
12.88 0 0
12.92 0 0
12.96 0 0
13 0 0
13.04 0 0
13.08 0 0
13.12 0 0
13.16 0 0
13.2 0 0
13.24 0 0
13.28 0 0
13.32 0 0
13.36 0 0
13.4 0 0
13.44 0 0
13.48 0 0
13.52 0 0
13.56 0 0
13.6 0 0
13.64 0 0
13.68 0 0
13.72 0 0
13.76 0 0
13.8 0 0
13.84 0 0
13.88 0 0
13.92 0 0
13.96 0 0
14 0 0
14.04 0 0
14.08 0 0
14.12 0 0
14.16 0 0
14.2 0 0
14.24 0 0
14.28 0 0
14.32 0 0
14.36 0 0
14.4 0 0
14.44 0 0
14.48 0 0
14.52 0 0
14.56 0 0
14.6 0 0
14.64 0 0
14.68 0 0
14.72 0 0
14.76 0 0
14.8 0 0
14.84 0 0
14.88 0 0
14.92 0 0
14.96 0 0
15 0 0
15.04 0 0
15.08 0 0
15.12 0 0
15.16 0 0
15.2 0 0
15.24 0 0
15.28 0 0
15.32 0 0
15.36 0 0
15.4 0 0
15.44 0 0
15.48 0 0
15.52 0 0
15.56 0 0
15.6 0 0
15.64 0 0
15.68 0 0
15.72 0 0
15.76 0 0
15.8 0 0
15.84 0 0
15.88 0 0
15.92 0 0
15.96 0 0
16 0 0
16.04 0 0
16.08 0 0
16.12 0 0
16.16 0 0
16.2 0 0
16.24 0 0
16.28 0 0
16.32 0 0
16.36 0 0
16.4 0 0
16.44 0 0
16.48 0 0
16.52 0 0
16.56 0 0
16.6 0 0
16.64 0 0
16.68 0 0
16.72 0 0
16.76 0 0
16.8 0 0
16.84 0 0
16.88 0 0
16.92 0 0
16.96 0 0
17 0 0
17.04 0 0
17.08 0 0
17.12 0 0
17.16 0 0
17.2 0 0
17.24 0 0
17.28 0 0
17.32 0 0
17.36 0 0
17.4 0 0
17.44 0 0
17.48 0 0
17.52 0 0
17.56 0 0
17.6 0 0
17.64 0 0
17.68 0 0
17.72 0 0
17.76 0 0
17.8 0 0
17.84 0 0
17.88 0 0
17.92 0 0
17.96 0 0
18 0 0
18.04 0 0
18.08 0 0
18.12 0 0
18.16 0 0
18.2 0 0
18.24 0 0
18.28 0 0
18.32 0 0
18.36 0 0
18.4 0 0
18.44 0 0
18.48 0 0
18.52 0 0
18.56 0 0
18.6 0 0
18.64 0 0
18.68 0 0
18.72 0 0
18.76 0 0
18.8 0 0
18.84 0 0
18.88 0 0
18.92 0 0
18.96 0 0
19 0 0
19.04 0 0
19.08 0 0
19.12 0 0
19.16 0 0
19.2 0 0
19.24 0 0
19.28 0 0
19.32 0 0
19.36 0 0
19.4 0 0
19.44 0 0
19.48 0 0
19.52 0 0
19.56 0 0
19.6 0 0
19.64 0 0
19.68 0 0
19.72 0 0
19.76 0 0
19.8 0 0
19.84 0 0
19.88 0 0
19.92 0 0
19.96 0 0
20 0 0
20.04 0 0
20.08 0 0
20.12 0 0
20.16 0 0
20.2 0 0
20.24 0 0
20.28 0 0
20.32 0 0
20.36 0 0
20.4 0 0
20.44 0 0
20.48 0 0
20.52 0 0
20.56 0 0
20.6 0 0
20.64 0 0
20.68 0 0
20.72 0 0
20.76 0 0
20.8 0 0
20.84 0 0
20.88 0 0
20.92 0 0
20.96 0 0
21 0 0
21.04 0 0
21.08 0 0
21.12 0 0
21.16 0 0
21.2 0 0
21.24 0 0
21.28 0 0
21.32 0 0
21.36 0 0
21.4 0 0
21.44 0 0
21.48 0 0
21.52 0 0
21.56 0 0
21.6 0 0
21.64 0 0
21.68 0 0
21.72 0 0
21.76 0 0
21.8 0 0
21.84 0 0
21.88 0 0
21.92 0 0
21.96 0 0
22 0 0
22.04 0 0
22.08 0 0
22.12 0 0
22.16 0 0
22.2 0 0
22.24 0 0
22.28 0 0
22.32 0 0
22.36 0 0
22.4 0 0
22.44 0 0
22.48 0 0
22.52 0 0
22.56 0 0
22.6 0 0
22.64 0 0
22.68 0 0
22.72 0 0
22.76 0 0
22.8 0 0
22.84 0 0
22.88 0 0
22.92 0 0
22.96 0 0
23 0 0
23.04 0 0
23.08 0 0
23.12 0 0
23.16 0 0
23.2 0 0
23.24 0 0
23.28 0 0
23.32 0 0
23.36 0 0
23.4 0 0
23.44 0 0
23.48 0 0
23.52 0 0
23.56 0 0
23.6 0 0
23.64 0 0
23.68 0 0
23.72 0 0
23.76 0 0
23.8 0 0
23.84 0 0
23.88 0 0
23.92 0 0
23.96 0 0
24 0 0
24.04 0 0
24.08 0 0
24.12 0 0
24.16 0 0
24.2 0 0
24.24 0 0
24.28 0 0
24.32 0 0
24.36 0 0
24.4 0 0
24.44 0 0
24.48 0 0
24.52 0 0
24.56 0 0
24.6 0 0
24.64 0 0
24.68 0 0
24.72 0 0
24.76 0 0
24.8 0 0
24.84 0 0
24.88 0 0
24.92 0 0
24.96 0 0
25 0 0
25.04 0 0
25.08 0 0
25.12 0 0
25.16 0 0
25.2 0 0
25.24 0 0
25.28 0 0
25.32 0 0
25.36 0 0
25.4 0 0
25.44 0 0
25.48 0 0
25.52 0 0
25.56 0 0
25.6 0 0
25.64 0 0
25.68 0 0
25.72 0 0
25.76 0 0
25.8 0 0
25.84 0 0
25.88 0 0
25.92 0 0
25.96 0 0
26 0 0
26.04 0 0
26.08 0 0
26.12 0 0
26.16 0 0
26.2 0 0
26.24 0 0
26.28 0 0
26.32 0 0
26.36 0 0
26.4 0 0
26.44 0 0
26.48 0 0
26.52 0 0
26.56 0 0
26.6 0 0
26.64 0 0
26.68 0 0
26.72 0 0
26.76 0 0
26.8 0 0
26.84 0 0
26.88 0 0
26.92 0 0
26.96 0 0
27 0 0
27.04 0 0
27.08 0 0
27.12 0 0
27.16 0 0
27.2 0 0
27.24 0 0
27.28 0 0
27.32 0 0
27.36 0 0
27.4 0 0
27.44 0 0
27.48 0 0
27.52 0 0
27.56 0 0
27.6 0 0
27.64 0 0
27.68 0 0
27.72 0 0
27.76 0 0
27.8 0 0
27.84 0 0
27.88 0 0
27.92 0 0
27.96 0 0
28 0 0
28.04 0 0
28.08 0 0
28.12 0 0
28.16 0 0
28.2 0 0
28.24 0 0
28.28 0 0
28.32 0 0
28.36 0 0
28.4 0 0
28.44 0 0
28.48 0 0
28.52 0 0
28.56 0 0
28.6 0 0
28.64 0 0
28.68 0 0
28.72 0 0
28.76 0 0
28.8 0 0
28.84 0 0
28.88 0 0
28.92 0 0
28.96 0 0
29 0 0
29.04 0 0
29.08 0 0
29.12 0 0
29.16 0 0
29.2 0 0
29.24 0 0
29.28 0 0
29.32 0 0
29.36 0 0
29.4 0 0
29.44 0 0
29.48 0 0
29.52 0 0
29.56 0 0
29.6 0 0
29.64 0 0
29.68 0 0
29.72 0 0
29.76 0 0
29.8 0 0
29.84 0 0
29.88 0 0
29.92 0 0
29.96 0 0
30 0 0
30.04 0 0
30.08 0 0
30.12 0 0
30.16 0 0
30.2 0 0
30.24 0 0
30.28 0 0
30.32 0 0
30.36 0 0
30.4 0 0
30.44 0 0
30.48 0 0
30.52 0 0
30.56 0 0
30.6 0 0
30.64 0 0
30.68 0 0
30.72 0 0
30.76 0 0
30.8 0 0
30.84 0 0
30.88 0 0
30.92 0 0
30.96 0 0
31 0 0
31.04 0 0
31.08 0 0
31.12 0 0
31.16 0 0
31.2 0 0
31.24 0 0
31.28 0 0
31.32 0 0
31.36 0 0
31.4 0 0
31.44 0 0
31.48 0 0
31.52 0 0
31.56 0 0
31.6 0 0
31.64 0 0
31.68 0 0
31.72 0 0
31.76 0 0
31.8 0 0
31.84 0 0
31.88 0 0
31.92 0 0
31.96 0 0
0 0.005 0
0.04 0.005 0
0.08 0.005 0
0.12 0.005 0
0.16 0.005 0
0.2 0.005 0
0.24 0.005 0
0.28 0.005 0
0.32 0.005 0
0.36 0.005 0
0.4 0.005 0
0.44 0.005 0
0.48 0.005 0
0.52 0.005 0
0.56 0.005 0
0.6 0.005 0
0.64 0.005 0
0.68 0.005 0
0.72 0.005 0
0.76 0.005 0
0.8 0.005 0
0.84 0.005 0
0.88 0.005 0
0.92 0.005 0
0.96 0.005 0
1 0.005 0
1.04 0.005 0
1.08 0.005 0
1.12 0.005 0
1.16 0.005 0
1.2 0.005 0
1.24 0.005 0
1.28 0.005 0
1.32 0.005 0
1.36 0.005 0
1.4 0.005 0
1.44 0.005 0
1.48 0.005 0
1.52 0.005 0
1.56 0.005 0
1.6 0.005 0
1.64 0.005 0
1.68 0.005 0
1.72 0.005 0
1.76 0.005 0
1.8 0.005 0
1.84 0.005 0
1.88 0.005 0
1.92 0.005 0
1.96 0.005 0
2 0.005 0
2.04 0.005 0
2.08 0.005 0
2.12 0.005 0
2.16 0.005 0
2.2 0.005 0
2.24 0.005 0
2.28 0.005 0
2.32 0.005 0
2.36 0.005 0
2.4 0.005 0
2.44 0.005 0
2.48 0.005 0
2.52 0.005 0
2.56 0.005 0
2.6 0.005 0
2.64 0.005 0
2.68 0.005 0
2.72 0.005 0
2.76 0.005 0
2.8 0.005 0
2.84 0.005 0
2.88 0.005 0
2.92 0.005 0
2.96 0.005 0
3 0.005 0
3.04 0.005 0
3.08 0.005 0
3.12 0.005 0
3.16 0.005 0
3.2 0.005 0
3.24 0.005 0
3.28 0.005 0
3.32 0.005 0
3.36 0.005 0
3.4 0.005 0
3.44 0.005 0
3.48 0.005 0
3.52 0.005 0
3.56 0.005 0
3.6 0.005 0
3.64 0.005 0
3.68 0.005 0
3.72 0.005 0
3.76 0.005 0
3.8 0.005 0
3.84 0.005 0
3.88 0.005 0
3.92 0.005 0
3.96 0.005 0
4 0.005 0
4.04 0.005 0
4.08 0.005 0
4.12 0.005 0
4.16 0.005 0
4.2 0.005 0
4.24 0.005 0
4.28 0.005 0
4.32 0.005 0
4.36 0.005 0
4.4 0.005 0
4.44 0.005 0
4.48 0.005 0
4.52 0.005 0
4.56 0.005 0
4.6 0.005 0
4.64 0.005 0
4.68 0.005 0
4.72 0.005 0
4.76 0.005 0
4.8 0.005 0
4.84 0.005 0
4.88 0.005 0
4.92 0.005 0
4.96 0.005 0
5 0.005 0
5.04 0.005 0
5.08 0.005 0
5.12 0.005 0
5.16 0.005 0
5.2 0.005 0
5.24 0.005 0
5.28 0.005 0
5.32 0.005 0
5.36 0.005 0
5.4 0.005 0
5.44 0.005 0
5.48 0.005 0
5.52 0.005 0
5.56 0.005 0
5.6 0.005 0
5.64 0.005 0
5.68 0.005 0
5.72 0.005 0
5.76 0.005 0
5.8 0.005 0
5.84 0.005 0
5.88 0.005 0
5.92 0.005 0
5.96 0.005 0
6 0.005 0
6.04 0.005 0
6.08 0.005 0
6.12 0.005 0
6.16 0.005 0
6.2 0.005 0
6.24 0.005 0
6.28 0.005 0
6.32 0.005 0
6.36 0.005 0
6.4 0.005 0
6.44 0.005 0
6.48 0.005 0
6.52 0.005 0
6.56 0.005 0
6.6 0.005 0
6.64 0.005 0
6.68 0.005 0
6.72 0.005 0
6.76 0.005 0
6.8 0.005 0
6.84 0.005 0
6.88 0.005 0
6.92 0.005 0
6.96 0.005 0
7 0.005 0
7.04 0.005 0
7.08 0.005 0
7.12 0.005 0
7.16 0.005 0
7.2 0.005 0
7.24 0.005 0
7.28 0.005 0
7.32 0.005 0
7.36 0.005 0
7.4 0.005 0
[...]
POINT_DATA 160000

SCALARS p float 1
LOOKUP_TABLE default
1
57.9592
55.7437
55.4889
55.4287
55.4023
55.3863
55.3747
55.3654
55.3576
55.3506
55.3443
55.3384
55.3328
55.3275
55.3224
55.3175
55.3126
55.3079
55.3033
55.2988
55.2943
55.2899
55.2856
55.2813
55.2771
55.2729
55.2688
55.2647
55.2607
55.2568
55.2528
55.249
55.2451
55.2413
55.2376
55.2339
55.2302
55.2266
55.223
55.2194
55.2159
55.2124
55.2089
55.2055
55.2021
55.1988
55.1954
55.1921
55.1888
55.1856
55.1824
55.1792
55.176
55.1728
55.1697
55.1666
55.1635
55.1605
55.1574
55.1544
55.1514
55.1485
55.1455
55.1426
55.1397
55.1368
55.1339
55.131
55.1282
55.1254
55.1226
55.1198
55.117
55.1143
55.1115
55.1088
55.1061
55.1034
55.1007
55.098
55.0954
55.0927
55.0901
55.0875
55.0849
55.0823
55.0797
55.0771
55.0746
55.072
55.0695
55.067
55.0645
55.062
55.0595
55.057
55.0546
55.0521
55.0497
55.0472
55.0448
55.0424
55.04
55.0376
55.0352
55.0328
55.0304
55.0281
55.0257
55.0234
55.021
55.0187
55.0164
55.0141
55.0118
55.0095
55.0072
55.0049
55.0027
55.0004
54.9981
54.9959
54.9936
54.9914
54.9892
54.987
54.9847
54.9825
54.9803
54.9781
54.976
54.9738
54.9716
54.9694
54.9673
54.9651
54.963
54.9608
54.9587
54.9565
54.9544
54.9523
54.9502
54.9481
54.946
54.9439
54.9418
54.9397
54.9376
54.9355
54.9335
54.9314
54.9293
54.9273
54.9252
54.9232
54.9211
54.9191
54.9171
54.915
54.913
54.911
54.909
54.907
54.905
54.903
54.901
54.899
54.897
54.895
54.893
54.891
54.8891
54.8871
54.8851
54.8832
54.8812
54.8793
54.8773
54.8754
54.8734
54.8715
54.8696
54.8677
54.8657
54.8638
54.8619
54.86
54.8581
54.8561
54.8542
54.8523
54.8504
54.8486
54.8467
54.8448
54.8429
54.841
54.8391
54.8373
54.8354
54.8335
54.8316
54.8298
54.8279
54.8261
54.8242
54.8224
54.8205
54.8187
54.8168
54.815
54.8131
54.8113
54.8095
54.8076
54.8058
54.804
54.8022
54.8003
54.7985
54.7967
54.7949
54.7931
54.7913
54.7895
54.7877
54.7859
54.7841
54.7823
54.7805
54.7787
54.7769
54.7751
54.7734
54.7716
54.7698
54.768
54.7662
54.7645
54.7627
54.7609
54.7592
54.7574
54.7556
54.7539
54.7521
54.7504
54.7486
54.7468
54.7451
54.7433
54.7416
54.7399
54.7381
54.7364
54.7346
54.7329
54.7312
54.7294
54.7277
54.726
54.7242
54.7225
54.7208
54.719
54.7173
54.7156
54.7139
54.7122
54.7105
54.7087
54.707
54.7053
54.7036
54.7019
54.7002
54.6985
54.6968
54.6951
54.6934
54.6917
54.69
54.6883
54.6866
54.6849
54.6832
54.6815
54.6798
54.6781
54.6764
54.6747
54.6731
54.6714
54.6697
54.668
54.6663
54.6646
54.663
54.6613
54.6596
54.6579
54.6563
54.6546
54.6529
54.6513
54.6496
54.6479
54.6463
54.6446
54.6429
54.6413
54.6396
54.6379
54.6363
54.6346
54.633
54.6313
54.6296
54.628
54.6263
54.6247
54.623
54.6214
54.6197
54.6181
54.6164
54.6148
54.6131
54.6115
54.6098
54.6082
54.6066
54.6049
54.6033
54.6016
54.6
54.5983
54.5967
54.5951
54.5934
54.5918
54.5902
54.5885
54.5869
54.5853
54.5836
54.582
54.5804
54.5787
54.5771
54.5755
54.5739
54.5722
54.5706
54.569
54.5673
54.5657
54.5641
54.5625
54.5609
54.5592
54.5576
54.556
54.5544
54.5528
54.5511
54.5495
54.5479
54.5463
54.5447
54.5431
54.5414
54.5398
54.5382
54.5366
54.535
54.5334
54.5318
54.5301
54.5285
54.5269
54.5253
54.5237
54.5221
54.5205
54.5189
54.5173
54.5157
54.5141
54.5125
54.5109
54.5093
54.5077
54.5061
54.5044
54.5028
54.5012
54.4996
54.498
54.4964
54.4948
54.4932
54.4916
54.49
54.4884
54.4869
54.4853
54.4837
54.4821
54.4805
54.4789
54.4773
54.4757
54.4741
54.4725
54.4709
54.4693
54.4677
54.4661
54.4645
54.4629
54.4613
54.4598
54.4582
54.4566
54.455
54.4534
54.4518
54.4502
54.4486
54.447
54.4455
54.4439
54.4423
54.4407
54.4391
54.4375
54.4359
54.4343
54.4328
54.4312
54.4296
54.428
54.4264
54.4248
54.4233
54.4217
54.4201
54.4185
54.4169
54.4153
54.4138
54.4122
54.4106
54.409
54.4074
54.4059
54.4043
54.4027
54.4011
54.3995
54.398
54.3964
54.3948
54.3932
54.3917
54.3901
54.3885
54.3869
54.3853
54.3838
54.3822
54.3806
54.379
54.3775
54.3759
54.3743
54.3727
54.3712
54.3696
54.368
54.3664
54.3649
54.3633
54.3617
54.3601
54.3586
54.357
54.3554
54.3539
54.3523
54.3507
54.3491
54.3476
54.346
54.3444
54.3429
54.3413
54.3397
54.3381
54.3366
54.335
54.3334
54.3319
54.3303
54.3287
54.3272
54.3256
54.324
54.3224
54.3209
54.3193
54.3177
54.3162
54.3146
54.313
54.3115
54.3099
54.3083
54.3068
54.3052
54.3036
54.3021
54.3005
54.2989
54.2974
54.2958
54.2942
54.2927
54.2911
54.2895
54.288
54.2864
54.2848
54.2833
54.2817
54.2801
54.2786
54.277
54.2755
54.2739
54.2723
54.2708
54.2692
54.2676
54.2661
54.2645
54.2629
54.2614
54.2598
54.2583
54.2567
54.2551
54.2536
54.252
54.2504
54.2489
54.2473
54.2458
54.2442
54.2426
54.2411
54.2395
54.238
54.2364
54.2348
54.2333
54.2317
54.2301
54.2286
54.227
54.2255
54.2239
54.2223
54.2208
54.2192
54.2177
54.2161
54.2145
54.213
54.2114
54.2099
54.2083
54.2067
54.2052
54.2036
54.2021
54.2005
54.199
54.1974
54.1958
54.1943
54.1927
54.1912
54.1896
54.188
54.1865
54.1849
54.1834
54.1818
54.1803
54.1787
54.1771
54.1756
54.174
54.1725
54.1709
54.1694
54.1678
54.1662
54.1647
54.1631
54.1616
54.16
54.1585
54.1569
54.1553
54.1538
54.1522
54.1507
54.1491
54.1476
54.146
54.1445
54.1429
54.1413
54.1398
54.1382
54.1367
54.1351
54.1336
54.132
54.1305
54.1289
54.1273
54.1258
54.1242
54.1227
54.1211
54.1196
54.118
54.1165
54.1149
54.1134
54.1118
54.1102
54.1087
54.1071
54.1056
54.104
54.1025
54.1009
54.0994
54.0978
54.0963
54.0947
54.0932
54.0916
54.09
54.0885
54.0869
54.0854
54.0838
54.0823
54.0807
54.0792
54.0776
54.0761
54.0745
54.073
54.0714
54.0699
54.0683
54.0668
54.0652
54.0636
54.0621
54.0605
54.059
54.0574
54.0559
54.0543
54.0528
54.0512
54.0497
54.0481
54.0466
54.045
54.0435
54.0419
54.0404
54.0388
54.0373
54.0357
54.0342
54.0326
54.0311
54.0295
54.028
54.0264
54.0249
54.0233
54.0218
54.0202
54.0187
54.0171
54.0155
54.014
54.0124
54.0109
54.0093
54.0078
54.0062
54.0047
54.0031
54.0016
54
53.9985
53.9969
53.9954
53.9938
53.9923
53.9907
53.9892
53.9876
53.9861
53.9845
53.983
53.9814
53.9799
53.9783
53.9768
53.9752
53.9737
53.9721
53.9706
53.9691
53.9675
53.966
53.9644
53.9629
53.9613
53.9598
53.9582
53.9567
53.9551
53.9536
53.952
53.9505
53.9489
53.9474
53.9458
53.9443
53.9427
53.9412
53.9396
53.9381
53.9365
53.935
53.9334
53.9319
53.9303
53.9288
53.9272
53.9257
53.9241
53.9226
53.921
53.9195
53.918
53.9164
53.9149
53.9133
53.9118
53.9102
53.9087
53.9071
53.9056
53.904
53.9025
53.9009
53.8994
53.8978
53.8963
53.8947
53.8932
53.8916
53.8901
53.8886
53.887
53.8855
53.8839
53.8824
53.8808
53.8793
53.8777
53.8762
1
57.9592
57.9592
55.7437
55.4889
55.4287
55.4023
55.3863
55.3747
55.3654
55.3576
55.3506
55.3443
55.3384
55.3328
55.3275
55.3224
55.3175
55.3126
55.3079
55.3033
55.2988
55.2943
55.2899
55.2856
55.2813
55.2771
55.2729
55.2688
55.2647
55.2607
55.2568
55.2528
55.249
55.2451
55.2413
55.2376
55.2339
55.2302
55.2266
55.223
55.2194
55.2159
55.2124
55.2089
55.2055
55.2021
55.1988
55.1954
55.1921
55.1888
55.1856
55.1824
55.1792
55.176
55.1728
55.1697
55.1666
55.1635
55.1605
55.1574
55.1544
55.1514
55.1485
55.1455
55.1426
55.1397
55.1368
55.1339
55.131
55.1282
55.1254
55.1226
55.1198
55.117
55.1143
55.1115
55.1088
55.1061
55.1034
55.1007
55.098
55.0954
55.0927
55.0901
55.0875
55.0849
55.0823
55.0797
55.0771
55.0746
55.072
55.0695
55.067
55.0645
55.062
55.0595
55.057
55.0546
55.0521
55.0497
55.0472
55.0448
55.0424
55.04
55.0376
55.0352
55.0328
55.0304
55.0281
55.0257
55.0234
55.021
55.0187
55.0164
55.0141
55.0118
55.0095
55.0072
55.0049
55.0027
55.0004
54.9981
54.9959
54.9936
54.9914
54.9892
54.987
54.9847
54.9825
54.9803
54.9781
54.976
54.9738
54.9716
54.9694
54.9673
54.9651
54.963
54.9608
54.9587
54.9565
54.9544
54.9523
54.9502
54.9481
54.946
54.9439
54.9418
54.9397
54.9376
54.9355
54.9335
54.9314
54.9293
54.9273
54.9252
54.9232
54.9211
54.9191
54.9171
54.915
54.913
54.911
54.909
54.907
54.905
54.903
54.901
54.899
54.897
54.895
54.893
54.891
54.8891
54.8871
54.8851
54.8832
54.8812
54.8793
54.8773
54.8754
54.8734
54.8715
54.8696
54.8677
54.8657
54.8638
54.8619
54.86
54.8581
54.8561
54.8542
54.8523
54.8504
54.8486
54.8467
54.8448
54.8429
54.841
54.8391
54.8373
54.8354
54.8335
54.8316
54.8298
54.8279
54.8261
54.8242
54.8224
54.8205
54.8187
54.8168
54.815
54.8131
54.8113
54.8095
54.8076
54.8058
54.804
54.8022
54.8003
54.7985
54.7967
54.7949
54.7931
54.7913
54.7895
54.7877
54.7859
54.7841
54.7823
54.7805
54.7787
54.7769
54.7751
54.7734
54.7716
54.7698
54.768
54.7662
54.7645
54.7627
54.7609
54.7592
54.7574
54.7556
54.7539
54.7521
54.7504
54.7486
54.7468
54.7451
54.7433
54.7416
54.7399
54.7381
54.7364
54.7346
54.7329
54.7312
54.7294
54.7277
54.726
54.7242
54.7225
54.7208
54.719
54.7173
54.7156
54.7139
54.7122
54.7105
54.7087
54.707
54.7053
54.7036
54.7019
54.7002
54.6985
54.6968
54.6951
54.6934
54.6917
54.69
54.6883
54.6866
54.6849
54.6832
54.6815
54.6798
54.6781
54.6764
54.6747
54.6731
54.6714
54.6697
54.668
54.6663
54.6646
54.663
54.6613
54.6596
54.6579
54.6563
54.6546
54.6529
54.6513
54.6496
54.6479
54.6463
54.6446
54.6429
54.6413
54.6396
54.6379
54.6363
54.6346
54.633
54.6313
54.6296
54.628
54.6263
54.6247
54.623
54.6214
54.6197
54.6181
54.6164
54.6148
54.6131
54.6115
54.6098
54.6082
54.6066
54.6049
54.6033
54.6016
54.6
54.5983
54.5967
54.5951
54.5934
54.5918
54.5902
54.5885
54.5869
54.5853
54.5836
54.582
54.5804
54.5787
54.5771
54.5755
54.5739
54.5722
54.5706
54.569
54.5673
54.5657
54.5641
54.5625
54.5609
54.5592
54.5576
54.556
54.5544
54.5528
54.5511
54.5495
54.5479
54.5463
54.5447
54.5431
54.5414
54.5398
54.5382
54.5366
54.535
54.5334
54.5318
54.5301
54.5285
54.5269
54.5253
54.5237
54.5221
54.5205
54.5189
54.5173
54.5157
54.5141
54.5125
54.5109
54.5093
54.5077
54.5061
54.5044
54.5028
54.5012
54.4996
54.498
54.4964
54.4948
54.4932
54.4916
54.49
54.4884
54.4869
54.4853
54.4837
54.4821
54.4805
54.4789
54.4773
54.4757
54.4741
54.4725
54.4709
54.4693
54.4677
54.4661
54.4645
54.4629
54.4613
54.4598
54.4582
54.4566
54.455
54.4534
54.4518
54.4502
54.4486
54.447
54.4455
54.4439
54.4423
54.4407
54.4391
54.4375
54.4359
54.4343
54.4328
54.4312
54.4296
54.428
54.4264
54.4248
54.4233
54.4217
54.4201
54.4185
54.4169
54.4153
54.4138
54.4122
54.4106
54.409
54.4074
54.4059
54.4043
54.4027
54.4011
54.3995
54.398
54.3964
54.3948
54.3932
54.3917
54.3901
54.3885
54.3869
54.3853
54.3838
54.3822
54.3806
54.379
54.3775
54.3759
54.3743
54.3727
54.3712
54.3696
54.368
54.3664
54.3649
54.3633
54.3617
54.3601
54.3586
54.357
54.3554
54.3539
54.3523
54.3507
54.3491
54.3476
54.346
54.3444
54.3429
54.3413
54.3397
54.3381
54.3366
54.335
54.3334
54.3319
54.3303
54.3287
54.3272
54.3256
54.324
54.3224
54.3209
54.3193
54.3177
54.3162
54.3146
54.313
54.3115
54.3099
54.3083
54.3068
54.3052
54.3036
54.3021
54.3005
54.2989
54.2974
54.2958
54.2942
54.2927
54.2911
54.2895
54.288
54.2864
54.2848
54.2833
54.2817
54.2801
54.2786
54.277
54.2755
54.2739
54.2723
54.2708
54.2692
54.2676
54.2661
54.2645
54.2629
54.2614
54.2598
54.2583
54.2567
54.2551
54.2536
54.252
54.2504
54.2489
54.2473
54.2458
54.2442
54.2426
54.2411
54.2395
54.238
54.2364
54.2348
54.2333
54.2317
54.2301
54.2286
54.227
54.2255
54.2239
54.2223
54.2208
54.2192
54.2177
54.2161
54.2145
54.213
54.2114
54.2099
54.2083
54.2067
54.2052
54.2036
54.2021
54.2005
54.199
54.1974
54.1958
54.1943
54.1927
54.1912
54.1896
54.188
54.1865
54.1849
54.1834
54.1818
54.1803
54.1787
54.1771
54.1756
54.174
54.1725
54.1709
54.1694
54.1678
54.1662
54.1647
54.1631
54.1616
54.16
54.1585
54.1569
54.1553
54.1538
54.1522
54.1507
54.1491
54.1476
54.146
54.1445
54.1429
54.1413
54.1398
54.1382
54.1367
54.1351
54.1336
54.132
54.1305
54.1289
54.1273
54.1258
54.1242
54.1227
54.1211
54.1196
54.118
54.1165
54.1149
54.1134
54.1118
54.1102
54.1087
54.1071
54.1056
54.104
54.1025
54.1009
54.0994
54.0978
54.0963
54.0947
54.0932
54.0916
54.09
54.0885
54.0869
54.0854
54.0838
54.0823
54.0807
54.0792
54.0776
54.0761
54.0745
54.073
54.0714
54.0699
54.0683
54.0668
54.0652
54.0636
54.0621
54.0605
54.059
54.0574
54.0559
54.0543
54.0528
54.0512
54.0497
54.0481
54.0466
54.045
54.0435
54.0419
54.0404
54.0388
54.0373
54.0357
54.0342
54.0326
54.0311
54.0295
54.028
54.0264
54.0249
54.0233
54.0218
54.0202
54.0187
54.0171
54.0155
54.014
54.0124
54.0109
54.0093
54.0078
54.0062
54.0047
54.0031
54.0016
54
53.9985
53.9969
53.9954
53.9938
53.9923
53.9907
53.9892
53.9876
53.9861
53.9845
53.983
53.9814
53.9799
53.9783
53.9768
53.9752
53.9737
53.9721
53.9706
53.9691
53.9675
53.966
53.9644
53.9629
53.9613
53.9598
53.9582
53.9567
53.9551
53.9536
53.952
53.9505
53.9489
53.9474
53.9458
53.9443
53.9427
53.9412
53.9396
53.9381
53.9365
53.935
53.9334
53.9319
53.9303
53.9288
53.9272
53.9257
53.9241
53.9226
53.921
53.9195
53.918
53.9164
53.9149
53.9133
53.9118
53.9102
53.9087
53.9071
53.9056
53.904
53.9025
53.9009
53.8994
53.8978
53.8963
53.8947
53.8932
53.8916
53.8901
53.8886
53.887
53.8855
53.8839
53.8824
53.8808
53.8793
53.8777
53.8762
53.8762
57.3122
57.3122
55.7541
55.4984
55.4329
55.4045
55.3877
55.3756
55.3661
55.3581
55.3511
55.3447
55.3387
55.3331
55.3278
55.3226
55.3176
55.3128
55.3081
55.3034
55.2989
55.2944
55.29
55.2856
55.2814
55.2771
55.273
55.2689
55.2648
55.2608
55.2568
55.2529
55.249
55.2452
55.2414
55.2376
55.2339
55.2303
55.2266
55.223
55.2195
55.2159
55.2124
55.209
55.2055
55.2022
55.1988
55.1954
55.1921
55.1889
55.1856
55.1824
55.1792
55.176
55.1729
55.1697
55.1666
55.1636
55.1605
55.1575
55.1544
55.1515
55.1485
55.1455
55.1426
55.1397
55.1368
55.1339
55.1311
55.1282
55.1254
55.1226
55.1198
55.117
55.1143
55.1115
55.1088
55.1061
55.1034
55.1007
55.098
55.0954
55.0927
55.0901
55.0875
55.0849
55.0823
55.0797
55.0771
55.0746
55.0721
55.0695
55.067
55.0645
55.062
55.0595
55.057
55.0546
55.0521
55.0497
55.0472
55.0448
55.0424
55.04
55.0376
55.0352
55.0328
55.0304
55.0281
55.0257
55.0234
55.0211
55.0187
55.0164
55.0141
55.0118
55.0095
55.0072
55.0049
55.0027
55.0004
54.9981
54.9959
54.9936
54.9914
54.9892
54.987
54.9848
54.9825
54.9803
54.9781
54.976
54.9738
54.9716
54.9694
54.9673
54.9651
54.963
54.9608
54.9587
54.9566
54.9544
54.9523
54.9502
54.9481
54.946
54.9439
54.9418
54.9397
54.9376
54.9355
54.9335
54.9314
54.9293
54.9273
54.9252
54.9232
54.9211
54.9191
54.9171
54.915
54.913
54.911
54.909
54.907
54.905
54.903
54.901
54.899
54.897
54.895
54.893
54.8911
54.8891
54.8871
54.8852
54.8832
54.8812
54.8793
54.8773
54.8754
54.8735
54.8715
54.8696
54.8677
54.8657
54.8638
54.8619
54.86
54.8581
54.8562
54.8543
54.8524
54.8505
54.8486
54.8467
54.8448
54.8429
54.841
54.8391
54.8373
54.8354
54.8335
54.8316
54.8298
54.8279
54.8261
54.8242
54.8224
54.8205
54.8187
54.8168
54.815
54.8131
54.8113
54.8095
54.8076
54.8058
54.804
54.8022
54.8004
54.7985
54.7967
54.7949
54.7931
54.7913
54.7895
54.7877
54.7859
54.7841
54.7823
54.7805
54.7787
54.7769
54.7751
54.7734
54.7716
54.7698
54.768
54.7662
54.7645
54.7627
54.7609
54.7592
54.7574
54.7556
54.7539
54.7521
54.7504
54.7486
54.7469
54.7451
54.7434
54.7416
54.7399
54.7381
54.7364
54.7346
54.7329
54.7312
54.7294
54.7277
54.726
54.7242
54.7225
54.7208
54.7191
54.7173
54.7156
54.7139
54.7122
54.7105
54.7087
54.707
54.7053
54.7036
54.7019
54.7002
54.6985
54.6968
54.6951
54.6934
54.6917
54.69
54.6883
54.6866
54.6849
54.6832
54.6815
54.6798
54.6781
54.6764
54.6747
54.6731
54.6714
54.6697
54.668
54.6663
54.6647
54.663
54.6613
54.6596
54.6579
54.6563
54.6546
54.6529
54.6513
54.6496
54.6479
54.6463
54.6446
54.6429
54.6413
54.6396
54.6379
54.6363
54.6346
54.633
54.6313
54.6296
54.628
54.6263
54.6247
54.623
54.6214
54.6197
54.6181
54.6164
54.6148
54.6131
54.6115
54.6098
54.6082
54.6066
54.6049
54.6033
54.6016
54.6
54.5984
54.5967
54.5951
54.5934
54.5918
54.5902
54.5885
54.5869
54.5853
54.5836
54.582
54.5804
54.5787
54.5771
54.5755
54.5739
54.5722
54.5706
54.569
54.5674
54.5657
54.5641
54.5625
54.5609
54.5592
54.5576
54.556
54.5544
54.5528
54.5511
54.5495
54.5479
54.5463
54.5447
54.5431
54.5414
54.5398
54.5382
54.5366
54.535
54.5334
54.5318
54.5302
54.5285
54.5269
54.5253
54.5237
54.5221
54.5205
54.5189
54.5173
54.5157
54.5141
54.5125
54.5109
54.5093
54.5077
54.5061
54.5045
54.5029
54.5012
54.4996
54.498
54.4964
54.4948
54.4932
54.4916
54.4901
54.4885
54.4869
54.4853
54.4837
54.4821
54.4805
54.4789
54.4773
54.4757
54.4741
54.4725
54.4709
54.4693
54.4677
54.4661
54.4645
54.4629
54.4613
54.4598
54.4582
54.4566
54.455
54.4534
54.4518
54.4502
54.4486
54.447
54.4455
54.4439
54.4423
54.4407
54.4391
54.4375
54.4359
54.4344
54.4328
54.4312
54.4296
54.428
54.4264
54.4248
54.4233
54.4217
54.4201
54.4185
54.4169
54.4154
54.4138
54.4122
54.4106
54.409
54.4074
54.4059
54.4043
54.4027
54.4011
54.3995
54.398
54.3964
54.3948
54.3932
54.3917
54.3901
54.3885
54.3869
54.3853
54.3838
54.3822
54.3806
54.379
54.3775
54.3759
54.3743
54.3727
54.3712
54.3696
54.368
54.3664
54.3649
54.3633
54.3617
54.3601
54.3586
54.357
54.3554
54.3539
54.3523
54.3507
54.3491
54.3476
54.346
54.3444
54.3429
54.3413
54.3397
54.3381
54.3366
54.335
54.3334
54.3319
54.3303
54.3287
54.3272
54.3256
54.324
54.3224
54.3209
54.3193
54.3177
54.3162
54.3146
54.313
54.3115
54.3099
54.3083
54.3068
54.3052
54.3036
54.3021
54.3005
54.2989
54.2974
54.2958
54.2942
54.2927
54.2911
54.2895
54.288
54.2864
54.2848
54.2833
54.2817
54.2802
54.2786
54.277
54.2755
54.2739
54.2723
54.2708
54.2692
54.2676
54.2661
54.2645
54.2629
54.2614
54.2598
54.2583
54.2567
54.2551
54.2536
54.252
54.2504
54.2489
54.2473
54.2458
54.2442
54.2426
54.2411
54.2395
54.238
54.2364
54.2348
54.2333
54.2317
54.2301
54.2286
54.227
54.2255
54.2239
54.2223
54.2208
54.2192
54.2177
54.2161
54.2145
54.213
54.2114
54.2099
54.2083
54.2068
54.2052
54.2036
54.2021
54.2005
54.199
54.1974
54.1958
54.1943
54.1927
54.1912
54.1896
54.188
54.1865
54.1849
54.1834
54.1818
54.1803
54.1787
54.1771
54.1756
54.174
54.1725
54.1709
54.1694
54.1678
54.1662
54.1647
54.1631
54.1616
54.16
54.1585
54.1569
54.1553
54.1538
54.1522
54.1507
54.1491
54.1476
54.146
54.1445
54.1429
54.1413
54.1398
54.1382
54.1367
54.1351
54.1336
54.132
54.1305
54.1289
54.1273
54.1258
54.1242
54.1227
54.1211
54.1196
54.118
54.1165
54.1149
54.1134
54.1118
54.1102
54.1087
54.1071
54.1056
54.104
54.1025
54.1009
54.0994
54.0978
54.0963
54.0947
54.0932
54.0916
54.09
54.0885
54.0869
54.0854
54.0838
54.0823
54.0807
54.0792
54.0776
54.0761
54.0745
54.073
54.0714
54.0699
54.0683
54.0668
54.0652
54.0636
54.0621
54.0605
54.059
54.0574
54.0559
54.0543
54.0528
54.0512
54.0497
54.0481
54.0466
54.045
54.0435
54.0419
54.0404
54.0388
54.0373
54.0357
54.0342
54.0326
54.0311
54.0295
54.028
54.0264
54.0249
54.0233
54.0218
54.0202
54.0187
54.0171
54.0156
54.014
54.0125
54.0109
54.0094
54.0078
54.0063
54.0047
54.0031
54.0016
54
53.9985
53.9969
53.9954
53.9938
53.9923
53.9907
53.9892
53.9876
53.9861
53.9845
53.983
53.9815
53.9799
53.9784
53.9768
53.9753
53.9737
53.9722
53.9706
53.9691
53.9675
53.966
53.9644
53.9629
53.9613
53.9598
53.9582
53.9567
53.9551
53.9536
53.952
53.9505
53.9489
53.9474
53.9458
53.9443
53.9427
53.9412
53.9396
53.9381
53.9365
53.935
53.9334
53.9319
53.9303
53.9288
53.9272
53.9257
53.9241
53.9226
53.9211
53.9195
53.918
53.9164
53.9149
53.9133
53.9118
53.9102
53.9087
53.9071
53.9056
53.904
53.9025
53.9009
53.8994
53.8978
53.8963
53.8947
53.8932
53.8917
53.8901
53.8886
53.887
53.8855
53.8839
53.8824
53.8808
53.8793
53.8777
53.8762
53.8762
56.6227
56.6227
55.7383
55.5051
55.4365
55.4066
55.389
55.3766
55.3668
55.3587
55.3515
55.345
55.339
55.3333
55.328
55.3228
55.3178
55.3129
55.3082
55.3035
55.299
55.2945
55.2901
55.2857
55.2814
55.2772
55.273
55.2689
55.2649
55.2608
55.2569
55.2529
55.2491
55.2452
55.2414
55.2377
55.234
55.2303
55.2267
55.2231
55.2195
55.216
55.2125
55.209
55.2056
55.2022
55.1988
55.1955
55.1922
55.1889
55.1856
55.1824
55.1792
55.176
55.1729
55.1697
55.1666
55.1636
55.1605
55.1575
55.1545
55.1515
55.1485
55.1455
55.1426
55.1397
55.1368
55.1339
55.1311
55.1282
55.1254
55.1226
55.1198
55.117
55.1143
55.1115
55.1088
55.1061
55.1034
55.1007
55.098
55.0954
55.0927
55.0901
55.0875
55.0849
55.0823
55.0797
55.0772
55.0746
55.0721
55.0695
55.067
55.0645
55.062
55.0595
55.057
55.0546
55.0521
55.0497
55.0472
55.0448
55.0424
55.04
55.0376
55.0352
55.0328
55.0304
55.0281
55.0257
55.0234
55.0211
55.0187
55.0164
55.0141
55.0118
55.0095
55.0072
55.0049
55.0027
55.0004
54.9981
54.9959
54.9937
54.9914
54.9892
54.987
54.9848
54.9825
54.9803
54.9782
54.976
54.9738
54.9716