# vtk DataFile Version 2.0
FlowField
ASCII
DATASET STRUCTURED_GRID
DIMENSIONS 800 1 200
POINTS 160000 float
0 0 0
0.04 0 0
0.08 0 0
0.12 0 0
0.16 0 0
0.2 0 0
0.24 0 0
0.28 0 0
0.32 0 0
0.36 0 0
0.4 0 0
0.44 0 0
0.48 0 0
0.52 0 0
0.56 0 0
0.6 0 0
0.64 0 0
0.68 0 0
0.72 0 0
0.76 0 0
0.8 0 0
0.84 0 0
0.88 0 0
0.92 0 0
0.96 0 0
1 0 0
1.04 0 0
1.08 0 0
1.12 0 0
1.16 0 0
1.2 0 0
1.24 0 0
1.28 0 0
1.32 0 0
1.36 0 0
1.4 0 0
1.44 0 0
1.48 0 0
1.52 0 0
1.56 0 0
1.6 0 0
1.64 0 0
1.68 0 0
1.72 0 0
1.76 0 0
1.8 0 0
1.84 0 0
1.88 0 0
1.92 0 0
1.96 0 0
2 0 0
2.04 0 0
2.08 0 0
2.12 0 0
2.16 0 0
2.2 0 0
2.24 0 0
2.28 0 0
2.32 0 0
2.36 0 0
2.4 0 0
2.44 0 0
2.48 0 0
2.52 0 0
2.56 0 0
2.6 0 0
2.64 0 0
2.68 0 0
2.72 0 0
2.76 0 0
2.8 0 0
2.84 0 0
2.88 0 0
2.92 0 0
2.96 0 0
3 0 0
3.04 0 0
3.08 0 0
3.12 0 0
3.16 0 0
3.2 0 0
3.24 0 0
3.28 0 0
3.32 0 0
3.36 0 0
3.4 0 0
3.44 0 0
3.48 0 0
3.52 0 0
3.56 0 0
3.6 0 0
3.64 0 0
3.68 0 0
3.72 0 0
3.76 0 0
3.8 0 0
3.84 0 0
3.88 0 0
3.92 0 0
3.96 0 0
4 0 0
4.04 0 0
4.08 0 0
4.12 0 0
4.16 0 0
4.2 0 0
4.24 0 0
4.28 0 0
4.32 0 0
4.36 0 0
4.4 0 0
4.44 0 0
4.48 0 0
4.52 0 0
4.56 0 0
4.6 0 0
4.64 0 0
4.68 0 0
4.72 0 0
4.76 0 0
4.8 0 0
4.84 0 0
4.88 0 0
4.92 0 0
4.96 0 0
5 0 0
5.04 0 0
5.08 0 0
5.12 0 0
5.16 0 0
5.2 0 0
5.24 0 0
5.28 0 0
5.32 0 0
5.36 0 0
5.4 0 0
5.44 0 0
5.48 0 0
5.52 0 0
5.56 0 0
5.6 0 0
5.64 0 0
5.68 0 0
5.72 0 0
5.76 0 0
5.8 0 0
5.84 0 0
5.88 0 0
5.92 0 0
5.96 0 0
6 0 0
6.04 0 0
6.08 0 0
6.12 0 0
6.16 0 0
6.2 0 0
6.24 0 0
6.28 0 0
6.32 0 0
6.36 0 0
6.4 0 0
6.44 0 0
6.48 0 0
6.52 0 0
6.56 0 0
6.6 0 0
6.64 0 0
6.68 0 0
6.72 0 0
6.76 0 0
6.8 0 0
6.84 0 0
6.88 0 0
6.92 0 0
6.96 0 0
7 0 0
7.04 0 0
7.08 0 0
7.12 0 0
7.16 0 0
7.2 0 0
7.24 0 0
7.28 0 0
7.32 0 0
7.36 0 0
7.4 0 0
7.44 0 0
7.48 0 0
7.52 0 0
7.56 0 0
7.6 0 0
7.64 0 0
7.68 0 0
7.72 0 0
7.76 0 0
7.8 0 0
7.84 0 0
7.88 0 0
7.92 0 0
7.96 0 0
8 0 0
8.04 0 0
8.08 0 0
8.12 0 0
8.16 0 0
8.2 0 0
8.24 0 0
8.28 0 0
8.32 0 0
8.36 0 0
8.4 0 0
8.44 0 0
8.48 0 0
8.52 0 0
8.56 0 0
8.6 0 0
8.64 0 0
8.68 0 0
8.72 0 0
8.76 0 0
8.8 0 0
8.84 0 0
8.88 0 0
8.92 0 0
8.96 0 0
9 0 0
9.04 0 0
9.08 0 0
9.12 0 0
9.16 0 0
9.2 0 0
9.24 0 0
9.28 0 0
9.32 0 0
9.36 0 0
9.4 0 0
9.44 0 0
9.48 0 0
9.52 0 0
9.56 0 0
9.6 0 0
9.64 0 0
9.68 0 0
9.72 0 0
9.76 0 0
9.8 0 0
9.84 0 0
9.88 0 0
9.92 0 0
9.96 0 0
10 0 0
10.04 0 0
10.08 0 0
10.12 0 0
10.16 0 0
10.2 0 0
10.24 0 0
10.28 0 0
10.32 0 0
10.36 0 0
10.4 0 0
10.44 0 0
10.48 0 0
10.52 0 0
10.56 0 0
10.6 0 0
10.64 0 0
10.68 0 0
10.72 0 0
10.76 0 0
10.8 0 0
10.84 0 0
10.88 0 0
10.92 0 0
10.96 0 0
11 0 0
11.04 0 0
11.08 0 0
11.12 0 0
11.16 0 0
11.2 0 0
11.24 0 0
11.28 0 0
11.32 0 0
11.36 0 0
11.4 0 0
11.44 0 0
11.48 0 0
11.52 0 0
11.56 0 0
11.6 0 0
11.64 0 0
11.68 0 0
11.72 0 0
11.76 0 0
11.8 0 0
11.84 0 0
11.88 0 0
11.92 0 0
11.96 0 0
12 0 0
12.04 0 0
12.08 0 0
12.12 0 0
12.16 0 0
12.2 0 0
12.24 0 0
12.28 0 0
12.32 0 0
12.36 0 0
12.4 0 0
12.44 0 0
12.48 0 0
12.52 0 0
12.56 0 0
12.6 0 0
12.64 0 0
12.68 0 0
12.72 0 0
12.76 0 0
12.8 0 0
12.84 0 0
12.88 0 0
12.92 0 0
12.96 0 0
13 0 0
13.04 0 0
13.08 0 0
13.12 0 0
13.16 0 0
13.2 0 0
13.24 0 0
13.28 0 0
13.32 0 0
13.36 0 0
13.4 0 0
13.44 0 0
13.48 0 0
13.52 0 0
13.56 0 0
13.6 0 0
13.64 0 0
13.68 0 0
13.72 0 0
13.76 0 0
13.8 0 0
13.84 0 0
13.88 0 0
13.92 0 0
13.96 0 0
14 0 0
14.04 0 0
14.08 0 0
14.12 0 0
14.16 0 0
14.2 0 0
14.24 0 0
14.28 0 0
14.32 0 0
14.36 0 0
14.4 0 0
14.44 0 0
14.48 0 0
14.52 0 0
14.56 0 0
14.6 0 0
14.64 0 0
14.68 0 0
14.72 0 0
14.76 0 0
14.8 0 0
14.84 0 0
14.88 0 0
14.92 0 0
14.96 0 0
15 0 0
15.04 0 0
15.08 0 0
15.12 0 0
15.16 0 0
15.2 0 0
15.24 0 0
15.28 0 0
15.32 0 0
15.36 0 0
15.4 0 0
15.44 0 0
15.48 0 0
15.52 0 0
15.56 0 0
15.6 0 0
15.64 0 0
15.68 0 0
15.72 0 0
15.76 0 0
15.8 0 0
15.84 0 0
15.88 0 0
15.92 0 0
15.96 0 0
16 0 0
16.04 0 0
16.08 0 0
16.12 0 0
16.16 0 0
16.2 0 0
16.24 0 0
16.28 0 0
16.32 0 0
16.36 0 0
16.4 0 0
16.44 0 0
16.48 0 0
16.52 0 0
16.56 0 0
16.6 0 0
16.64 0 0
16.68 0 0
16.72 0 0
16.76 0 0
16.8 0 0
16.84 0 0
16.88 0 0
16.92 0 0
16.96 0 0
17 0 0
17.04 0 0
17.08 0 0
17.12 0 0
17.16 0 0
17.2 0 0
17.24 0 0
17.28 0 0
17.32 0 0
17.36 0 0
17.4 0 0
17.44 0 0
17.48 0 0
17.52 0 0
17.56 0 0
17.6 0 0
17.64 0 0
17.68 0 0
17.72 0 0
17.76 0 0
17.8 0 0
17.84 0 0
17.88 0 0
17.92 0 0
17.96 0 0
18 0 0
18.04 0 0
18.08 0 0
18.12 0 0
18.16 0 0
18.2 0 0
18.24 0 0
18.28 0 0
18.32 0 0
18.36 0 0
18.4 0 0
18.44 0 0
18.48 0 0
18.52 0 0
18.56 0 0
18.6 0 0
18.64 0 0
18.68 0 0
18.72 0 0
18.76 0 0
18.8 0 0
18.84 0 0
18.88 0 0
18.92 0 0
18.96 0 0
19 0 0
19.04 0 0
19.08 0 0
19.12 0 0
19.16 0 0
19.2 0 0
19.24 0 0
19.28 0 0
19.32 0 0
19.36 0 0
19.4 0 0
19.44 0 0
19.48 0 0
19.52 0 0
19.56 0 0
19.6 0 0
19.64 0 0
19.68 0 0
19.72 0 0
19.76 0 0
19.8 0 0
19.84 0 0
19.88 0 0
19.92 0 0
19.96 0 0
20 0 0
20.04 0 0
20.08 0 0
20.12 0 0
20.16 0 0
20.2 0 0
20.24 0 0
20.28 0 0
20.32 0 0
20.36 0 0
20.4 0 0
20.44 0 0
20.48 0 0
20.52 0 0
20.56 0 0
20.6 0 0
20.64 0 0
20.68 0 0
20.72 0 0
20.76 0 0
20.8 0 0
20.84 0 0
20.88 0 0
20.92 0 0
20.96 0 0
21 0 0
21.04 0 0
21.08 0 0
21.12 0 0
21.16 0 0
21.2 0 0
21.24 0 0
21.28 0 0
21.32 0 0
21.36 0 0
21.4 0 0
21.44 0 0
21.48 0 0
21.52 0 0
21.56 0 0
21.6 0 0
21.64 0 0
21.68 0 0
21.72 0 0
21.76 0 0
21.8 0 0
21.84 0 0
21.88 0 0
21.92 0 0
21.96 0 0
22 0 0
22.04 0 0
22.08 0 0
22.12 0 0
22.16 0 0
22.2 0 0
22.24 0 0
22.28 0 0
22.32 0 0
22.36 0 0
22.4 0 0
22.44 0 0
22.48 0 0
22.52 0 0
22.56 0 0
22.6 0 0
22.64 0 0
22.68 0 0
22.72 0 0
22.76 0 0
22.8 0 0
22.84 0 0
22.88 0 0
22.92 0 0
22.96 0 0
23 0 0
23.04 0 0
23.08 0 0
23.12 0 0
23.16 0 0
23.2 0 0
23.24 0 0
23.28 0 0
23.32 0 0
23.36 0 0
23.4 0 0
23.44 0 0
23.48 0 0
23.52 0 0
23.56 0 0
23.6 0 0
23.64 0 0
23.68 0 0
23.72 0 0
23.76 0 0
23.8 0 0
23.84 0 0
23.88 0 0
23.92 0 0
23.96 0 0
24 0 0
24.04 0 0
24.08 0 0
24.12 0 0
24.16 0 0
24.2 0 0
24.24 0 0
24.28 0 0
24.32 0 0
24.36 0 0
24.4 0 0
24.44 0 0
24.48 0 0
24.52 0 0
24.56 0 0
24.6 0 0
24.64 0 0
24.68 0 0
24.72 0 0
24.76 0 0
24.8 0 0
24.84 0 0
24.88 0 0
24.92 0 0
24.96 0 0
25 0 0
25.04 0 0
25.08 0 0
25.12 0 0
25.16 0 0
25.2 0 0
25.24 0 0
25.28 0 0
25.32 0 0
25.36 0 0
25.4 0 0
25.44 0 0
25.48 0 0
25.52 0 0
25.56 0 0
25.6 0 0
25.64 0 0
25.68 0 0
25.72 0 0
25.76 0 0
25.8 0 0
25.84 0 0
25.88 0 0
25.92 0 0
25.96 0 0
26 0 0
26.04 0 0
26.08 0 0
26.12 0 0
26.16 0 0
26.2 0 0
26.24 0 0
26.28 0 0
26.32 0 0
26.36 0 0
26.4 0 0
26.44 0 0
26.48 0 0
26.52 0 0
26.56 0 0
26.6 0 0
26.64 0 0
26.68 0 0
26.72 0 0
26.76 0 0
26.8 0 0
26.84 0 0
26.88 0 0
26.92 0 0
26.96 0 0
27 0 0
27.04 0 0
27.08 0 0
27.12 0 0
27.16 0 0
27.2 0 0
27.24 0 0
27.28 0 0
27.32 0 0
27.36 0 0
27.4 0 0
27.44 0 0
27.48 0 0
27.52 0 0
27.56 0 0
27.6 0 0
27.64 0 0
27.68 0 0
27.72 0 0
27.76 0 0
27.8 0 0
27.84 0 0
27.88 0 0
27.92 0 0
27.96 0 0
28 0 0
28.04 0 0
28.08 0 0
28.12 0 0
28.16 0 0
28.2 0 0
28.24 0 0
28.28 0 0
28.32 0 0
28.36 0 0
28.4 0 0
28.44 0 0
28.48 0 0
28.52 0 0
28.56 0 0
28.6 0 0
28.64 0 0
28.68 0 0
28.72 0 0
28.76 0 0
28.8 0 0
28.84 0 0
28.88 0 0
28.92 0 0
28.96 0 0
29 0 0
29.04 0 0
29.08 0 0
29.12 0 0
29.16 0 0
29.2 0 0
29.24 0 0
29.28 0 0
29.32 0 0
29.36 0 0
29.4 0 0
29.44 0 0
29.48 0 0
29.52 0 0
29.56 0 0
29.6 0 0
29.64 0 0
29.68 0 0
29.72 0 0
29.76 0 0
29.8 0 0
29.84 0 0
29.88 0 0
29.92 0 0
29.96 0 0
30 0 0
30.04 0 0
30.08 0 0
30.12 0 0
30.16 0 0
30.2 0 0
30.24 0 0
30.28 0 0
30.32 0 0
30.36 0 0
30.4 0 0
30.44 0 0
30.48 0 0
30.52 0 0
30.56 0 0
30.6 0 0
30.64 0 0
30.68 0 0
30.72 0 0
30.76 0 0
30.8 0 0
30.84 0 0
30.88 0 0
30.92 0 0
30.96 0 0
31 0 0
31.04 0 0
31.08 0 0
31.12 0 0
31.16 0 0
31.2 0 0
31.24 0 0
31.28 0 0
31.32 0 0
31.36 0 0
31.4 0 0
31.44 0 0
31.48 0 0
31.52 0 0
31.56 0 0
31.6 0 0
31.64 0 0
31.68 0 0
31.72 0 0
31.76 0 0
31.8 0 0
31.84 0 0
31.88 0 0
31.92 0 0
31.96 0 0
0 0.005 0
0.04 0.005 0
0.08 0.005 0
0.12 0.005 0
0.16 0.005 0
0.2 0.005 0
0.24 0.005 0
0.28 0.005 0
0.32 0.005 0
0.36 0.005 0
0.4 0.005 0
0.44 0.005 0
0.48 0.005 0
0.52 0.005 0
0.56 0.005 0
0.6 0.005 0
0.64 0.005 0
0.68 0.005 0
0.72 0.005 0
0.76 0.005 0
0.8 0.005 0
0.84 0.005 0
0.88 0.005 0
0.92 0.005 0
0.96 0.005 0
1 0.005 0
1.04 0.005 0
1.08 0.005 0
1.12 0.005 0
1.16 0.005 0
1.2 0.005 0
1.24 0.005 0
1.28 0.005 0
1.32 0.005 0
1.36 0.005 0
1.4 0.005 0
1.44 0.005 0
1.48 0.005 0
1.52 0.005 0
1.56 0.005 0
1.6 0.005 0
1.64 0.005 0
1.68 0.005 0
1.72 0.005 0
1.76 0.005 0
1.8 0.005 0
1.84 0.005 0
1.88 0.005 0
1.92 0.005 0
1.96 0.005 0
2 0.005 0
2.04 0.005 0
2.08 0.005 0
2.12 0.005 0
2.16 0.005 0
2.2 0.005 0
2.24 0.005 0
2.28 0.005 0
2.32 0.005 0
2.36 0.005 0
2.4 0.005 0
2.44 0.005 0
2.48 0.005 0
2.52 0.005 0
2.56 0.005 0
2.6 0.005 0
2.64 0.005 0
2.68 0.005 0
2.72 0.005 0
2.76 0.005 0
2.8 0.005 0
2.84 0.005 0
2.88 0.005 0
2.92 0.005 0
2.96 0.005 0
3 0.005 0
3.04 0.005 0
3.08 0.005 0
3.12 0.005 0
3.16 0.005 0
3.2 0.005 0
3.24 0.005 0
3.28 0.005 0
3.32 0.005 0
3.36 0.005 0
3.4 0.005 0
3.44 0.005 0
3.48 0.005 0
3.52 0.005 0
3.56 0.005 0
3.6 0.005 0
3.64 0.005 0
3.68 0.005 0
3.72 0.005 0
3.76 0.005 0
3.8 0.005 0
3.84 0.005 0
3.88 0.005 0
3.92 0.005 0
3.96 0.005 0
4 0.005 0
4.04 0.005 0
4.08 0.005 0
4.12 0.005 0
4.16 0.005 0
4.2 0.005 0
4.24 0.005 0
4.28 0.005 0
4.32 0.005 0
4.36 0.005 0
4.4 0.005 0
4.44 0.005 0
4.48 0.005 0
4.52 0.005 0
4.56 0.005 0
4.6 0.005 0
4.64 0.005 0
4.68 0.005 0
4.72 0.005 0
4.76 0.005 0
4.8 0.005 0
4.84 0.005 0
4.88 0.005 0
4.92 0.005 0
4.96 0.005 0
5 0.005 0
5.04 0.005 0
5.08 0.005 0
5.12 0.005 0
5.16 0.005 0
5.2 0.005 0
5.24 0.005 0
5.28 0.005 0
5.32 0.005 0
5.36 0.005 0
5.4 0.005 0
5.44 0.005 0
5.48 0.005 0
5.52 0.005 0
5.56 0.005 0
5.6 0.005 0
5.64 0.005 0
5.68 0.005 0
5.72 0.005 0
5.76 0.005 0
5.8 0.005 0
5.84 0.005 0
5.88 0.005 0
5.92 0.005 0
5.96 0.005 0
6 0.005 0
6.04 0.005 0
6.08 0.005 0
6.12 0.005 0
6.16 0.005 0
6.2 0.005 0
6.24 0.005 0
6.28 0.005 0
6.32 0.005 0
6.36 0.005 0
6.4 0.005 0
6.44 0.005 0
6.48 0.005 0
6.52 0.005 0
6.56 0.005 0
6.6 0.005 0
6.64 0.005 0
6.68 0.005 0
6.72 0.005 0
6.76 0.005 0
6.8 0.005 0
6.84 0.005 0
6.88 0.005 0
6.92 0.005 0
6.96 0.005 0
7 0.005 0
7.04 0.005 0
7.08 0.005 0
7.12 0.005 0
7.16 0.005 0
7.2 0.005 0
7.24 0.005 0
7.28 0.005 0
7.32 0.005 0
7.36 0.005 0
7.4 0.005 0
[...]
POINT_DATA 160000

SCALARS p float 1
LOOKUP_TABLE default
1
48.5274
46.312
46.0571
45.997
45.9706
45.9545
45.9429
45.9337
45.9258
45.9189
45.9125
45.9067
45.9011
45.8958
45.8907
45.8857
45.8809
45.8762
45.8715
45.867
45.8625
45.8581
45.8538
45.8495
45.8453
45.8412
45.8371
45.833
45.829
45.825
45.8211
45.8172
45.8134
45.8096
45.8059
45.8021
45.7985
45.7948
45.7912
45.7877
45.7842
45.7807
45.7772
45.7738
45.7704
45.767
45.7637
45.7604
45.7571
45.7538
45.7506
45.7474
45.7442
45.7411
45.738
45.7349
45.7318
45.7287
45.7257
45.7227
45.7197
45.7167
45.7138
45.7108
45.7079
45.705
45.7022
45.6993
45.6965
45.6936
45.6908
45.688
45.6853
45.6825
45.6798
45.677
45.6743
45.6716
45.6689
45.6663
45.6636
45.661
45.6583
45.6557
45.6531
45.6505
45.648
45.6454
45.6428
45.6403
45.6378
45.6352
45.6327
45.6302
45.6277
45.6253
45.6228
45.6203
45.6179
45.6155
45.613
45.6106
45.6082
45.6058
45.6034
45.6011
45.5987
45.5963
45.594
45.5916
45.5893
45.587
45.5847
45.5823
45.58
45.5777
45.5755
45.5732
45.5709
45.5686
45.5664
45.5641
45.5619
45.5597
45.5574
45.5552
45.553
45.5508
45.5486
45.5464
45.5442
45.542
45.5399
45.5377
45.5355
45.5334
45.5312
45.5291
45.5269
45.5248
45.5227
45.5206
45.5184
45.5163
45.5142
45.5121
45.51
45.5079
45.5059
45.5038
45.5017
45.4997
45.4976
45.4955
45.4935
45.4914
45.4894
45.4874
45.4853
45.4833
45.4813
45.4793
45.4772
45.4752
45.4732
45.4712
45.4692
45.4672
45.4652
45.4633
45.4613
45.4593
45.4573
45.4554
45.4534
45.4514
45.4495
45.4475
45.4456
45.4436
45.4417
45.4398
45.4378
45.4359
45.434
45.4321
45.4301
45.4282
45.4263
45.4244
45.4225
45.4206
45.4187
45.4168
45.4149
45.413
45.4111
45.4093
45.4074
45.4055
45.4036
45.4018
45.3999
45.398
45.3962
45.3943
45.3925
45.3906
45.3888
45.3869
45.3851
45.3832
45.3814
45.3796
45.3777
45.3759
45.3741
45.3722
45.3704
45.3686
45.3668
45.365
45.3632
45.3614
45.3595
45.3577
45.3559
45.3541
45.3523
45.3505
45.3488
45.347
45.3452
45.3434
45.3416
45.3398
45.338
45.3363
45.3345
45.3327
45.3309
45.3292
45.3274
45.3256
45.3239
45.3221
45.3204
45.3186
45.3169
45.3151
45.3134
45.3116
45.3099
45.3081
45.3064
45.3046
45.3029
45.3011
45.2994
45.2977
45.2959
45.2942
45.2925
45.2908
45.289
45.2873
45.2856
45.2839
45.2821
45.2804
45.2787
45.277
45.2753
45.2736
45.2719
45.2701
45.2684
45.2667
45.265
45.2633
45.2616
45.2599
45.2582
45.2565
45.2548
45.2531
45.2514
45.2498
45.2481
45.2464
45.2447
45.243
45.2413
45.2396
45.2379
45.2363
45.2346
45.2329
45.2312
45.2295
45.2279
45.2262
45.2245
45.2228
45.2212
45.2195
45.2178
45.2162
45.2145
45.2128
45.2112
45.2095
45.2078
45.2062
45.2045
45.2029
45.2012
45.1996
45.1979
45.1962
45.1946
45.1929
45.1913
45.1896
45.188
45.1863
45.1847
45.183
45.1814
45.1797
45.1781
45.1764
45.1748
45.1732
45.1715
45.1699
45.1682
45.1666
45.165
45.1633
45.1617
45.1601
45.1584
45.1568
45.1551
45.1535
45.1519
45.1503
45.1486
45.147
45.1454
45.1437
45.1421
45.1405
45.1389
45.1372
45.1356
45.134
45.1324
45.1307
45.1291
45.1275
45.1259
45.1242
45.1226
45.121
45.1194
45.1178
45.1162
45.1145
45.1129
45.1113
45.1097
45.1081
45.1065
45.1048
45.1032
45.1016
45.1
45.0984
45.0968
45.0952
45.0936
45.092
45.0904
45.0887
45.0871
45.0855
45.0839
45.0823
45.0807
45.0791
45.0775
45.0759
45.0743
45.0727
45.0711
45.0695
45.0679
45.0663
45.0647
45.0631
45.0615
45.0599
45.0583
45.0567
45.0551
45.0535
45.0519
45.0503
45.0487
45.0471
45.0455
45.0439
45.0423
45.0407
45.0391
45.0376
45.036
45.0344
45.0328
45.0312
45.0296
45.028
45.0264
45.0248
45.0232
45.0216
45.0201
45.0185
45.0169
45.0153
45.0137
45.0121
45.0105
45.0089
45.0074
45.0058
45.0042
45.0026
45.001
44.9994
44.9978
44.9963
44.9947
44.9931
44.9915
44.9899
44.9883
44.9868
44.9852
44.9836
44.982
44.9804
44.9789
44.9773
44.9757
44.9741
44.9725
44.971
44.9694
44.9678
44.9662
44.9646
44.9631
44.9615
44.9599
44.9583
44.9567
44.9552
44.9536
44.952
44.9504
44.9489
44.9473
44.9457
44.9441
44.9426
44.941
44.9394
44.9378
44.9363
44.9347
44.9331
44.9315
44.93
44.9284
44.9268
44.9252
44.9237
44.9221
44.9205
44.919
44.9174
44.9158
44.9142
44.9127
44.9111
44.9095
44.908
44.9064
44.9048
44.9032
44.9017
44.9001
44.8985
44.897
44.8954
44.8938
44.8923
44.8907
44.8891
44.8876
44.886
44.8844
44.8828
44.8813
44.8797
44.8781
44.8766
44.875
44.8734
44.8719
44.8703
44.8687
44.8672
44.8656
44.864
44.8625
44.8609
44.8593
44.8578
44.8562
44.8547
44.8531
44.8515
44.85
44.8484
44.8468
44.8453
44.8437
44.8421
44.8406
44.839
44.8374
44.8359
44.8343
44.8328
44.8312
44.8296
44.8281
44.8265
44.8249
44.8234
44.8218
44.8203
44.8187
44.8171
44.8156
44.814
44.8124
44.8109
44.8093
44.8078
44.8062
44.8046
44.8031
44.8015
44.8
44.7984
44.7968
44.7953
44.7937
44.7921
44.7906
44.789
44.7875
44.7859
44.7843
44.7828
44.7812
44.7797
44.7781
44.7766
44.775
44.7734
44.7719
44.7703
44.7688
44.7672
44.7656
44.7641
44.7625
44.761
44.7594
44.7578
44.7563
44.7547
44.7532
44.7516
44.7501
44.7485
44.7469
44.7454
44.7438
44.7423
44.7407
44.7392
44.7376
44.736
44.7345
44.7329
44.7314
44.7298
44.7283
44.7267
44.7252
44.7236
44.722
44.7205
44.7189
44.7174
44.7158
44.7143
44.7127
44.7112
44.7096
44.708
44.7065
44.7049
44.7034
44.7018
44.7003
44.6987
44.6972
44.6956
44.694
44.6925
44.6909
44.6894
44.6878
44.6863
44.6847
44.6832
44.6816
44.6801
44.6785
44.677
44.6754
44.6738
44.6723
44.6707
44.6692
44.6676
44.6661
44.6645
44.663
44.6614
44.6599
44.6583
44.6568
44.6552
44.6537
44.6521
44.6506
44.649
44.6474
44.6459
44.6443
44.6428
44.6412
44.6397
44.6381
44.6366
44.635
44.6335
44.6319
44.6304
44.6288
44.6273
44.6257
44.6242
44.6226
44.6211
44.6195
44.618
44.6164
44.6149
44.6133
44.6118
44.6102
44.6087
44.6071
44.6056
44.604
44.6025
44.6009
44.5994
44.5978
44.5962
44.5947
44.5931
44.5916
44.59
44.5885
44.5869
44.5854
44.5838
44.5823
44.5807
44.5792
44.5776
44.5761
44.5745
44.573
44.5714
44.5699
44.5683
44.5668
44.5652
44.5637
44.5621
44.5606
44.559
44.5575
44.5559
44.5544
44.5528
44.5513
44.5498
44.5482
44.5467
44.5451
44.5436
44.542
44.5405
44.5389
44.5374
44.5358
44.5343
44.5327
44.5312
44.5296
44.5281
44.5265
44.525
44.5234
44.5219
44.5203
44.5188
44.5172
44.5157
44.5141
44.5126
44.511
44.5095
44.5079
44.5064
44.5048
44.5033
44.5017
44.5002
44.4986
44.4971
44.4955
44.494
44.4924
44.4909
44.4894
44.4878
44.4863
44.4847
44.4832
44.4816
44.4801
44.4785
44.477
44.4754
44.4739
44.4723
44.4708
44.4692
44.4677
44.4661
44.4646
44.463
44.4615
44.4599
44.4584
44.4568
44.4553
44.4538
44.4522
44.4507
44.4491
44.4476
44.446
44.4445
1
48.5274
48.5274
46.312
46.0571
45.997
45.9706
45.9545
45.9429
45.9337
45.9258
45.9189
45.9125
45.9067
45.9011
45.8958
45.8907
45.8857
45.8809
45.8762
45.8715
45.867
45.8625
45.8581
45.8538
45.8495
45.8453
45.8412
45.8371
45.833
45.829
45.825
45.8211
45.8172
45.8134
45.8096
45.8059
45.8021
45.7985
45.7948
45.7912
45.7877
45.7842
45.7807
45.7772
45.7738
45.7704
45.767
45.7637
45.7604
45.7571
45.7538
45.7506
45.7474
45.7442
45.7411
45.738
45.7349
45.7318
45.7287
45.7257
45.7227
45.7197
45.7167
45.7138
45.7108
45.7079
45.705
45.7022
45.6993
45.6965
45.6936
45.6908
45.688
45.6853
45.6825
45.6798
45.677
45.6743
45.6716
45.6689
45.6663
45.6636
45.661
45.6583
45.6557
45.6531
45.6505
45.648
45.6454
45.6428
45.6403
45.6378
45.6352
45.6327
45.6302
45.6277
45.6253
45.6228
45.6203
45.6179
45.6155
45.613
45.6106
45.6082
45.6058
45.6034
45.6011
45.5987
45.5963
45.594
45.5916
45.5893
45.587
45.5847
45.5823
45.58
45.5777
45.5755
45.5732
45.5709
45.5686
45.5664
45.5641
45.5619
45.5597
45.5574
45.5552
45.553
45.5508
45.5486
45.5464
45.5442
45.542
45.5399
45.5377
45.5355
45.5334
45.5312
45.5291
45.5269
45.5248
45.5227
45.5206
45.5184
45.5163
45.5142
45.5121
45.51
45.5079
45.5059
45.5038
45.5017
45.4997
45.4976
45.4955
45.4935
45.4914
45.4894
45.4874
45.4853
45.4833
45.4813
45.4793
45.4772
45.4752
45.4732
45.4712
45.4692
45.4672
45.4652
45.4633
45.4613
45.4593
45.4573
45.4554
45.4534
45.4514
45.4495
45.4475
45.4456
45.4436
45.4417
45.4398
45.4378
45.4359
45.434
45.4321
45.4301
45.4282
45.4263
45.4244
45.4225
45.4206
45.4187
45.4168
45.4149
45.413
45.4111
45.4093
45.4074
45.4055
45.4036
45.4018
45.3999
45.398
45.3962
45.3943
45.3925
45.3906
45.3888
45.3869
45.3851
45.3832
45.3814
45.3796
45.3777
45.3759
45.3741
45.3722
45.3704
45.3686
45.3668
45.365
45.3632
45.3614
45.3595
45.3577
45.3559
45.3541
45.3523
45.3505
45.3488
45.347
45.3452
45.3434
45.3416
45.3398
45.338
45.3363
45.3345
45.3327
45.3309
45.3292
45.3274
45.3256
45.3239
45.3221
45.3204
45.3186
45.3169
45.3151
45.3134
45.3116
45.3099
45.3081
45.3064
45.3046
45.3029
45.3011
45.2994
45.2977
45.2959
45.2942
45.2925
45.2908
45.289
45.2873
45.2856
45.2839
45.2821
45.2804
45.2787
45.277
45.2753
45.2736
45.2719
45.2701
45.2684
45.2667
45.265
45.2633
45.2616
45.2599
45.2582
45.2565
45.2548
45.2531
45.2514
45.2498
45.2481
45.2464
45.2447
45.243
45.2413
45.2396
45.2379
45.2363
45.2346
45.2329
45.2312
45.2295
45.2279
45.2262
45.2245
45.2228
45.2212
45.2195
45.2178
45.2162
45.2145
45.2128
45.2112
45.2095
45.2078
45.2062
45.2045
45.2029
45.2012
45.1996
45.1979
45.1962
45.1946
45.1929
45.1913
45.1896
45.188
45.1863
45.1847
45.183
45.1814
45.1797
45.1781
45.1764
45.1748
45.1732
45.1715
45.1699
45.1682
45.1666
45.165
45.1633
45.1617
45.1601
45.1584
45.1568
45.1551
45.1535
45.1519
45.1503
45.1486
45.147
45.1454
45.1437
45.1421
45.1405
45.1389
45.1372
45.1356
45.134
45.1324
45.1307
45.1291
45.1275
45.1259
45.1242
45.1226
45.121
45.1194
45.1178
45.1162
45.1145
45.1129
45.1113
45.1097
45.1081
45.1065
45.1048
45.1032
45.1016
45.1
45.0984
45.0968
45.0952
45.0936
45.092
45.0904
45.0887
45.0871
45.0855
45.0839
45.0823
45.0807
45.0791
45.0775
45.0759
45.0743
45.0727
45.0711
45.0695
45.0679
45.0663
45.0647
45.0631
45.0615
45.0599
45.0583
45.0567
45.0551
45.0535
45.0519
45.0503
45.0487
45.0471
45.0455
45.0439
45.0423
45.0407
45.0391
45.0376
45.036
45.0344
45.0328
45.0312
45.0296
45.028
45.0264
45.0248
45.0232
45.0216
45.0201
45.0185
45.0169
45.0153
45.0137
45.0121
45.0105
45.0089
45.0074
45.0058
45.0042
45.0026
45.001
44.9994
44.9978
44.9963
44.9947
44.9931
44.9915
44.9899
44.9883
44.9868
44.9852
44.9836
44.982
44.9804
44.9789
44.9773
44.9757
44.9741
44.9725
44.971
44.9694
44.9678
44.9662
44.9646
44.9631
44.9615
44.9599
44.9583
44.9567
44.9552
44.9536
44.952
44.9504
44.9489
44.9473
44.9457
44.9441
44.9426
44.941
44.9394
44.9378
44.9363
44.9347
44.9331
44.9315
44.93
44.9284
44.9268
44.9252
44.9237
44.9221
44.9205
44.919
44.9174
44.9158
44.9142
44.9127
44.9111
44.9095
44.908
44.9064
44.9048
44.9032
44.9017
44.9001
44.8985
44.897
44.8954
44.8938
44.8923
44.8907
44.8891
44.8876
44.886
44.8844
44.8828
44.8813
44.8797
44.8781
44.8766
44.875
44.8734
44.8719
44.8703
44.8687
44.8672
44.8656
44.864
44.8625
44.8609
44.8593
44.8578
44.8562
44.8547
44.8531
44.8515
44.85
44.8484
44.8468
44.8453
44.8437
44.8421
44.8406
44.839
44.8374
44.8359
44.8343
44.8328
44.8312
44.8296
44.8281
44.8265
44.8249
44.8234
44.8218
44.8203
44.8187
44.8171
44.8156
44.814
44.8124
44.8109
44.8093
44.8078
44.8062
44.8046
44.8031
44.8015
44.8
44.7984
44.7968
44.7953
44.7937
44.7921
44.7906
44.789
44.7875
44.7859
44.7843
44.7828
44.7812
44.7797
44.7781
44.7766
44.775
44.7734
44.7719
44.7703
44.7688
44.7672
44.7656
44.7641
44.7625
44.761
44.7594
44.7578
44.7563
44.7547
44.7532
44.7516
44.7501
44.7485
44.7469
44.7454
44.7438
44.7423
44.7407
44.7392
44.7376
44.736
44.7345
44.7329
44.7314
44.7298
44.7283
44.7267
44.7252
44.7236
44.722
44.7205
44.7189
44.7174
44.7158
44.7143
44.7127
44.7112
44.7096
44.708
44.7065
44.7049
44.7034
44.7018
44.7003
44.6987
44.6972
44.6956
44.694
44.6925
44.6909
44.6894
44.6878
44.6863
44.6847
44.6832
44.6816
44.6801
44.6785
44.677
44.6754
44.6738
44.6723
44.6707
44.6692
44.6676
44.6661
44.6645
44.663
44.6614
44.6599
44.6583
44.6568
44.6552
44.6537
44.6521
44.6506
44.649
44.6474
44.6459
44.6443
44.6428
44.6412
44.6397
44.6381
44.6366
44.635
44.6335
44.6319
44.6304
44.6288
44.6273
44.6257
44.6242
44.6226
44.6211
44.6195
44.618
44.6164
44.6149
44.6133
44.6118
44.6102
44.6087
44.6071
44.6056
44.604
44.6025
44.6009
44.5994
44.5978
44.5962
44.5947
44.5931
44.5916
44.59
44.5885
44.5869
44.5854
44.5838
44.5823
44.5807
44.5792
44.5776
44.5761
44.5745
44.573
44.5714
44.5699
44.5683
44.5668
44.5652
44.5637
44.5621
44.5606
44.559
44.5575
44.5559
44.5544
44.5528
44.5513
44.5498
44.5482
44.5467
44.5451
44.5436
44.542
44.5405
44.5389
44.5374
44.5358
44.5343
44.5327
44.5312
44.5296
44.5281
44.5265
44.525
44.5234
44.5219
44.5203
44.5188
44.5172
44.5157
44.5141
44.5126
44.511
44.5095
44.5079
44.5064
44.5048
44.5033
44.5017
44.5002
44.4986
44.4971
44.4955
44.494
44.4924
44.4909
44.4894
44.4878
44.4863
44.4847
44.4832
44.4816
44.4801
44.4785
44.477
44.4754
44.4739
44.4723
44.4708
44.4692
44.4677
44.4661
44.4646
44.463
44.4615
44.4599
44.4584
44.4568
44.4553
44.4538
44.4522
44.4507
44.4491
44.4476
44.446
44.4445
44.4445
47.8804
47.8804
46.3224
46.0666
46.0011
45.9728
45.9559
45.9439
45.9344
45.9264
45.9193
45.9129
45.907
45.9014
45.896
45.8909
45.8859
45.881
45.8763
45.8717
45.8671
45.8626
45.8582
45.8539
45.8496
45.8454
45.8412
45.8371
45.8331
45.829
45.8251
45.8212
45.8173
45.8134
45.8096
45.8059
45.8022
45.7985
45.7949
45.7913
45.7877
45.7842
45.7807
45.7772
45.7738
45.7704
45.767
45.7637
45.7604
45.7571
45.7539
45.7506
45.7474
45.7443
45.7411
45.738
45.7349
45.7318
45.7287
45.7257
45.7227
45.7197
45.7167
45.7138
45.7109
45.7079
45.705
45.7022
45.6993
45.6965
45.6937
45.6908
45.6881
45.6853
45.6825
45.6798
45.6771
45.6743
45.6716
45.669
45.6663
45.6636
45.661
45.6584
45.6557
45.6531
45.6505
45.648
45.6454
45.6428
45.6403
45.6378
45.6353
45.6327
45.6302
45.6278
45.6253
45.6228
45.6204
45.6179
45.6155
45.6131
45.6106
45.6082
45.6058
45.6034
45.6011
45.5987
45.5963
45.594
45.5916
45.5893
45.587
45.5847
45.5823
45.58
45.5778
45.5755
45.5732
45.5709
45.5687
45.5664
45.5641
45.5619
45.5597
45.5574
45.5552
45.553
45.5508
45.5486
45.5464
45.5442
45.542
45.5399
45.5377
45.5355
45.5334
45.5312
45.5291
45.5269
45.5248
45.5227
45.5206
45.5184
45.5163
45.5142
45.5121
45.51
45.508
45.5059
45.5038
45.5017
45.4997
45.4976
45.4955
45.4935
45.4914
45.4894
45.4874
45.4853
45.4833
45.4813
45.4793
45.4772
45.4752
45.4732
45.4712
45.4692
45.4672
45.4652
45.4633
45.4613
45.4593
45.4573
45.4554
45.4534
45.4514
45.4495
45.4475
45.4456
45.4437
45.4417
45.4398
45.4378
45.4359
45.434
45.4321
45.4301
45.4282
45.4263
45.4244
45.4225
45.4206
45.4187
45.4168
45.4149
45.413
45.4111
45.4093
45.4074
45.4055
45.4036
45.4018
45.3999
45.398
45.3962
45.3943
45.3925
45.3906
45.3888
45.3869
45.3851
45.3832
45.3814
45.3796
45.3777
45.3759
45.3741
45.3723
45.3704
45.3686
45.3668
45.365
45.3632
45.3614
45.3596
45.3577
45.3559
45.3541
45.3523
45.3506
45.3488
45.347
45.3452
45.3434
45.3416
45.3398
45.3381
45.3363
45.3345
45.3327
45.331
45.3292
45.3274
45.3257
45.3239
45.3221
45.3204
45.3186
45.3169
45.3151
45.3134
45.3116
45.3099
45.3081
45.3064
45.3046
45.3029
45.3012
45.2994
45.2977
45.2959
45.2942
45.2925
45.2908
45.289
45.2873
45.2856
45.2839
45.2821
45.2804
45.2787
45.277
45.2753
45.2736
45.2719
45.2702
45.2684
45.2667
45.265
45.2633
45.2616
45.2599
45.2582
45.2565
45.2548
45.2531
45.2514
45.2498
45.2481
45.2464
45.2447
45.243
45.2413
45.2396
45.2379
45.2363
45.2346
45.2329
45.2312
45.2296
45.2279
45.2262
45.2245
45.2229
45.2212
45.2195
45.2178
45.2162
45.2145
45.2128
45.2112
45.2095
45.2079
45.2062
45.2045
45.2029
45.2012
45.1996
45.1979
45.1962
45.1946
45.1929
45.1913
45.1896
45.188
45.1863
45.1847
45.183
45.1814
45.1797
45.1781
45.1765
45.1748
45.1732
45.1715
45.1699
45.1682
45.1666
45.165
45.1633
45.1617
45.1601
45.1584
45.1568
45.1552
45.1535
45.1519
45.1503
45.1486
45.147
45.1454
45.1437
45.1421
45.1405
45.1389
45.1372
45.1356
45.134
45.1324
45.1307
45.1291
45.1275
45.1259
45.1242
45.1226
45.121
45.1194
45.1178
45.1162
45.1145
45.1129
45.1113
45.1097
45.1081
45.1065
45.1049
45.1032
45.1016
45.1
45.0984
45.0968
45.0952
45.0936
45.092
45.0904
45.0888
45.0871
45.0855
45.0839
45.0823
45.0807
45.0791
45.0775
45.0759
45.0743
45.0727
45.0711
45.0695
45.0679
45.0663
45.0647
45.0631
45.0615
45.0599
45.0583
45.0567
45.0551
45.0535
45.0519
45.0503
45.0487
45.0471
45.0455
45.0439
45.0423
45.0407
45.0392
45.0376
45.036
45.0344
45.0328
45.0312
45.0296
45.028
45.0264
45.0248
45.0232
45.0216
45.0201
45.0185
45.0169
45.0153
45.0137
45.0121
45.0105
45.0089
45.0074
45.0058
45.0042
45.0026
45.001
44.9994
44.9978
44.9963
44.9947
44.9931
44.9915
44.9899
44.9883
44.9868
44.9852
44.9836
44.982
44.9804
44.9789
44.9773
44.9757
44.9741
44.9725
44.971
44.9694
44.9678
44.9662
44.9646
44.9631
44.9615
44.9599
44.9583
44.9568
44.9552
44.9536
44.952
44.9504
44.9489
44.9473
44.9457
44.9441
44.9426
44.941
44.9394
44.9378
44.9363
44.9347
44.9331
44.9315
44.93
44.9284
44.9268
44.9253
44.9237
44.9221
44.9205
44.919
44.9174
44.9158
44.9142
44.9127
44.9111
44.9095
44.908
44.9064
44.9048
44.9033
44.9017
44.9001
44.8985
44.897
44.8954
44.8938
44.8923
44.8907
44.8891
44.8876
44.886
44.8844
44.8829
44.8813
44.8797
44.8782
44.8766
44.875
44.8734
44.8719
44.8703
44.8687
44.8672
44.8656
44.8641
44.8625
44.8609
44.8594
44.8578
44.8562
44.8547
44.8531
44.8515
44.85
44.8484
44.8468
44.8453
44.8437
44.8421
44.8406
44.839
44.8374
44.8359
44.8343
44.8328
44.8312
44.8296
44.8281
44.8265
44.8249
44.8234
44.8218
44.8203
44.8187
44.8171
44.8156
44.814
44.8124
44.8109
44.8093
44.8078
44.8062
44.8046
44.8031
44.8015
44.8
44.7984
44.7968
44.7953
44.7937
44.7922
44.7906
44.789
44.7875
44.7859
44.7844
44.7828
44.7812
44.7797
44.7781
44.7766
44.775
44.7734
44.7719
44.7703
44.7688
44.7672
44.7656
44.7641
44.7625
44.761
44.7594
44.7579
44.7563
44.7547
44.7532
44.7516
44.7501
44.7485
44.7469
44.7454
44.7438
44.7423
44.7407
44.7392
44.7376
44.7361
44.7345
44.7329
44.7314
44.7298
44.7283
44.7267
44.7252
44.7236
44.722
44.7205
44.7189
44.7174
44.7158
44.7143
44.7127
44.7112
44.7096
44.708
44.7065
44.7049
44.7034
44.7018
44.7003
44.6987
44.6972
44.6956
44.6941
44.6925
44.6909
44.6894
44.6878
44.6863
44.6847
44.6832
44.6816
44.6801
44.6785
44.677
44.6754
44.6739
44.6723
44.6707
44.6692
44.6676
44.6661
44.6645
44.663
44.6614
44.6599
44.6583
44.6568
44.6552
44.6537
44.6521
44.6506
44.649
44.6475
44.6459
44.6443
44.6428
44.6412
44.6397
44.6381
44.6366
44.635
44.6335
44.6319
44.6304
44.6288
44.6273
44.6257
44.6242
44.6226
44.6211
44.6195
44.618
44.6164
44.6149
44.6133
44.6118
44.6102
44.6087
44.6071
44.6056
44.604
44.6025
44.6009
44.5994
44.5978
44.5963
44.5947
44.5932
44.5916
44.5901
44.5885
44.587
44.5854
44.5839
44.5823
44.5807
44.5792
44.5776
44.5761
44.5745
44.573
44.5714
44.5699
44.5683
44.5668
44.5653
44.5637
44.5622
44.5606
44.5591
44.5575
44.556
44.5544
44.5529
44.5513
44.5498
44.5482
44.5467
44.5451
44.5436
44.542
44.5405
44.5389
44.5374
44.5358
44.5343
44.5327
44.5312
44.5296
44.5281
44.5265
44.525
44.5234
44.5219
44.5203
44.5188
44.5172
44.5157
44.5141
44.5126
44.511
44.5095
44.5079
44.5064
44.5048
44.5033
44.5017
44.5002
44.4986
44.4971
44.4955
44.494
44.4925
44.4909
44.4894
44.4878
44.4863
44.4847
44.4832
44.4816
44.4801
44.4785
44.477
44.4754
44.4739
44.4723
44.4708
44.4692
44.4677
44.4661
44.4646
44.463
44.4615
44.4599
44.4584
44.4569
44.4553
44.4538
44.4522
44.4507
44.4491
44.4476
44.446
44.4445
44.4445
47.1909
47.1909
46.3066
46.0733
46.0048
45.9748
45.9572
45.9448
45.9351
45.9269
45.9197
45.9133
45.9073
45.9016
45.8962
45.891
45.886
45.8812
45.8764
45.8718
45.8672
45.8627
45.8583
45.854
45.8497
45.8455
45.8413
45.8372
45.8331
45.8291
45.8251
45.8212
45.8173
45.8135
45.8097
45.8059
45.8022
45.7985
45.7949
45.7913
45.7877
45.7842
45.7807
45.7773
45.7738
45.7704
45.7671
45.7637
45.7604
45.7571
45.7539
45.7507
45.7475
45.7443
45.7411
45.738
45.7349
45.7318
45.7288
45.7257
45.7227
45.7197
45.7168
45.7138
45.7109
45.708
45.7051
45.7022
45.6993
45.6965
45.6937
45.6909
45.6881
45.6853
45.6825
45.6798
45.6771
45.6743
45.6716
45.669
45.6663
45.6636
45.661
45.6584
45.6558
45.6531
45.6506
45.648
45.6454
45.6429
45.6403
45.6378
45.6353
45.6328
45.6303
45.6278
45.6253
45.6228
45.6204
45.6179
45.6155
45.6131
45.6106
45.6082
45.6058
45.6035
45.6011
45.5987
45.5963
45.594
45.5916
45.5893
45.587
45.5847
45.5824
45.5801
45.5778
45.5755
45.5732
45.5709
45.5687
45.5664
45.5642
45.5619
45.5597
45.5574
45.5552