# vtk DataFile Version 2.0
FlowField
ASCII
DATASET STRUCTURED_GRID
DIMENSIONS 800 1 200
POINTS 160000 float
0 0 0
0.04 0 0
0.08 0 0
0.12 0 0
0.16 0 0
0.2 0 0
0.24 0 0
0.28 0 0
0.32 0 0
0.36 0 0
0.4 0 0
0.44 0 0
0.48 0 0
0.52 0 0
0.56 0 0
0.6 0 0
0.64 0 0
0.68 0 0
0.72 0 0
0.76 0 0
0.8 0 0
0.84 0 0
0.88 0 0
0.92 0 0
0.96 0 0
1 0 0
1.04 0 0
1.08 0 0
1.12 0 0
1.16 0 0
1.2 0 0
1.24 0 0
1.28 0 0
1.32 0 0
1.36 0 0
1.4 0 0
1.44 0 0
1.48 0 0
1.52 0 0
1.56 0 0
1.6 0 0
1.64 0 0
1.68 0 0
1.72 0 0
1.76 0 0
1.8 0 0
1.84 0 0
1.88 0 0
1.92 0 0
1.96 0 0
2 0 0
2.04 0 0
2.08 0 0
2.12 0 0
2.16 0 0
2.2 0 0
2.24 0 0
2.28 0 0
2.32 0 0
2.36 0 0
2.4 0 0
2.44 0 0
2.48 0 0
2.52 0 0
2.56 0 0
2.6 0 0
2.64 0 0
2.68 0 0
2.72 0 0
2.76 0 0
2.8 0 0
2.84 0 0
2.88 0 0
2.92 0 0
2.96 0 0
3 0 0
3.04 0 0
3.08 0 0
3.12 0 0
3.16 0 0
3.2 0 0
3.24 0 0
3.28 0 0
3.32 0 0
3.36 0 0
3.4 0 0
3.44 0 0
3.48 0 0
3.52 0 0
3.56 0 0
3.6 0 0
3.64 0 0
3.68 0 0
3.72 0 0
3.76 0 0
3.8 0 0
3.84 0 0
3.88 0 0
3.92 0 0
3.96 0 0
4 0 0
4.04 0 0
4.08 0 0
4.12 0 0
4.16 0 0
4.2 0 0
4.24 0 0
4.28 0 0
4.32 0 0
4.36 0 0
4.4 0 0
4.44 0 0
4.48 0 0
4.52 0 0
4.56 0 0
4.6 0 0
4.64 0 0
4.68 0 0
4.72 0 0
4.76 0 0
4.8 0 0
4.84 0 0
4.88 0 0
4.92 0 0
4.96 0 0
5 0 0
5.04 0 0
5.08 0 0
5.12 0 0
5.16 0 0
5.2 0 0
5.24 0 0
5.28 0 0
5.32 0 0
5.36 0 0
5.4 0 0
5.44 0 0
5.48 0 0
5.52 0 0
5.56 0 0
5.6 0 0
5.64 0 0
5.68 0 0
5.72 0 0
5.76 0 0
5.8 0 0
5.84 0 0
5.88 0 0
5.92 0 0
5.96 0 0
6 0 0
6.04 0 0
6.08 0 0
6.12 0 0
6.16 0 0
6.2 0 0
6.24 0 0
6.28 0 0
6.32 0 0
6.36 0 0
6.4 0 0
6.44 0 0
6.48 0 0
6.52 0 0
6.56 0 0
6.6 0 0
6.64 0 0
6.68 0 0
6.72 0 0
6.76 0 0
6.8 0 0
6.84 0 0
6.88 0 0
6.92 0 0
6.96 0 0
7 0 0
7.04 0 0
7.08 0 0
7.12 0 0
7.16 0 0
7.2 0 0
7.24 0 0
7.28 0 0
7.32 0 0
7.36 0 0
7.4 0 0
7.44 0 0
7.48 0 0
7.52 0 0
7.56 0 0
7.6 0 0
7.64 0 0
7.68 0 0
7.72 0 0
7.76 0 0
7.8 0 0
7.84 0 0
7.88 0 0
7.92 0 0
7.96 0 0
8 0 0
8.04 0 0
8.08 0 0
8.12 0 0
8.16 0 0
8.2 0 0
8.24 0 0
8.28 0 0
8.32 0 0
8.36 0 0
8.4 0 0
8.44 0 0
8.48 0 0
8.52 0 0
8.56 0 0
8.6 0 0
8.64 0 0
8.68 0 0
8.72 0 0
8.76 0 0
8.8 0 0
8.84 0 0
8.88 0 0
8.92 0 0
8.96 0 0
9 0 0
9.04 0 0
9.08 0 0
9.12 0 0
9.16 0 0
9.2 0 0
9.24 0 0
9.28 0 0
9.32 0 0
9.36 0 0
9.4 0 0
9.44 0 0
9.48 0 0
9.52 0 0
9.56 0 0
9.6 0 0
9.64 0 0
9.68 0 0
9.72 0 0
9.76 0 0
9.8 0 0
9.84 0 0
9.88 0 0
9.92 0 0
9.96 0 0
10 0 0
10.04 0 0
10.08 0 0
10.12 0 0
10.16 0 0
10.2 0 0
10.24 0 0
10.28 0 0
10.32 0 0
10.36 0 0
10.4 0 0
10.44 0 0
10.48 0 0
10.52 0 0
10.56 0 0
10.6 0 0
10.64 0 0
10.68 0 0
10.72 0 0
10.76 0 0
10.8 0 0
10.84 0 0
10.88 0 0
10.92 0 0
10.96 0 0
11 0 0
11.04 0 0
11.08 0 0
11.12 0 0
11.16 0 0
11.2 0 0
11.24 0 0
11.28 0 0
11.32 0 0
11.36 0 0
11.4 0 0
11.44 0 0
11.48 0 0
11.52 0 0
11.56 0 0
11.6 0 0
11.64 0 0
11.68 0 0
11.72 0 0
11.76 0 0
11.8 0 0
11.84 0 0
11.88 0 0
11.92 0 0
11.96 0 0
12 0 0
12.04 0 0
12.08 0 0
12.12 0 0
12.16 0 0
12.2 0 0
12.24 0 0
12.28 0 0
12.32 0 0
12.36 0 0
12.4 0 0
12.44 0 0
12.48 0 0
12.52 0 0
12.56 0 0
12.6 0 0
12.64 0 0
12.68 0 0
12.72 0 0
12.76 0 0
12.8 0 0
12.84 0 0
12.88 0 0
12.92 0 0
12.96 0 0
13 0 0
13.04 0 0
13.08 0 0
13.12 0 0
13.16 0 0
13.2 0 0
13.24 0 0
13.28 0 0
13.32 0 0
13.36 0 0
13.4 0 0
13.44 0 0
13.48 0 0
13.52 0 0
13.56 0 0
13.6 0 0
13.64 0 0
13.68 0 0
13.72 0 0
13.76 0 0
13.8 0 0
13.84 0 0
13.88 0 0
13.92 0 0
13.96 0 0
14 0 0
14.04 0 0
14.08 0 0
14.12 0 0
14.16 0 0
14.2 0 0
14.24 0 0
14.28 0 0
14.32 0 0
14.36 0 0
14.4 0 0
14.44 0 0
14.48 0 0
14.52 0 0
14.56 0 0
14.6 0 0
14.64 0 0
14.68 0 0
14.72 0 0
14.76 0 0
14.8 0 0
14.84 0 0
14.88 0 0
14.92 0 0
14.96 0 0
15 0 0
15.04 0 0
15.08 0 0
15.12 0 0
15.16 0 0
15.2 0 0
15.24 0 0
15.28 0 0
15.32 0 0
15.36 0 0
15.4 0 0
15.44 0 0
15.48 0 0
15.52 0 0
15.56 0 0
15.6 0 0
15.64 0 0
15.68 0 0
15.72 0 0
15.76 0 0
15.8 0 0
15.84 0 0
15.88 0 0
15.92 0 0
15.96 0 0
16 0 0
16.04 0 0
16.08 0 0
16.12 0 0
16.16 0 0
16.2 0 0
16.24 0 0
16.28 0 0
16.32 0 0
16.36 0 0
16.4 0 0
16.44 0 0
16.48 0 0
16.52 0 0
16.56 0 0
16.6 0 0
16.64 0 0
16.68 0 0
16.72 0 0
16.76 0 0
16.8 0 0
16.84 0 0
16.88 0 0
16.92 0 0
16.96 0 0
17 0 0
17.04 0 0
17.08 0 0
17.12 0 0
17.16 0 0
17.2 0 0
17.24 0 0
17.28 0 0
17.32 0 0
17.36 0 0
17.4 0 0
17.44 0 0
17.48 0 0
17.52 0 0
17.56 0 0
17.6 0 0
17.64 0 0
17.68 0 0
17.72 0 0
17.76 0 0
17.8 0 0
17.84 0 0
17.88 0 0
17.92 0 0
17.96 0 0
18 0 0
18.04 0 0
18.08 0 0
18.12 0 0
18.16 0 0
18.2 0 0
18.24 0 0
18.28 0 0
18.32 0 0
18.36 0 0
18.4 0 0
18.44 0 0
18.48 0 0
18.52 0 0
18.56 0 0
18.6 0 0
18.64 0 0
18.68 0 0
18.72 0 0
18.76 0 0
18.8 0 0
18.84 0 0
18.88 0 0
18.92 0 0
18.96 0 0
19 0 0
19.04 0 0
19.08 0 0
19.12 0 0
19.16 0 0
19.2 0 0
19.24 0 0
19.28 0 0
19.32 0 0
19.36 0 0
19.4 0 0
19.44 0 0
19.48 0 0
19.52 0 0
19.56 0 0
19.6 0 0
19.64 0 0
19.68 0 0
19.72 0 0
19.76 0 0
19.8 0 0
19.84 0 0
19.88 0 0
19.92 0 0
19.96 0 0
20 0 0
20.04 0 0
20.08 0 0
20.12 0 0
20.16 0 0
20.2 0 0
20.24 0 0
20.28 0 0
20.32 0 0
20.36 0 0
20.4 0 0
20.44 0 0
20.48 0 0
20.52 0 0
20.56 0 0
20.6 0 0
20.64 0 0
20.68 0 0
20.72 0 0
20.76 0 0
20.8 0 0
20.84 0 0
20.88 0 0
20.92 0 0
20.96 0 0
21 0 0
21.04 0 0
21.08 0 0
21.12 0 0
21.16 0 0
21.2 0 0
21.24 0 0
21.28 0 0
21.32 0 0
21.36 0 0
21.4 0 0
21.44 0 0
21.48 0 0
21.52 0 0
21.56 0 0
21.6 0 0
21.64 0 0
21.68 0 0
21.72 0 0
21.76 0 0
21.8 0 0
21.84 0 0
21.88 0 0
21.92 0 0
21.96 0 0
22 0 0
22.04 0 0
22.08 0 0
22.12 0 0
22.16 0 0
22.2 0 0
22.24 0 0
22.28 0 0
22.32 0 0
22.36 0 0
22.4 0 0
22.44 0 0
22.48 0 0
22.52 0 0
22.56 0 0
22.6 0 0
22.64 0 0
22.68 0 0
22.72 0 0
22.76 0 0
22.8 0 0
22.84 0 0
22.88 0 0
22.92 0 0
22.96 0 0
23 0 0
23.04 0 0
23.08 0 0
23.12 0 0
23.16 0 0
23.2 0 0
23.24 0 0
23.28 0 0
23.32 0 0
23.36 0 0
23.4 0 0
23.44 0 0
23.48 0 0
23.52 0 0
23.56 0 0
23.6 0 0
23.64 0 0
23.68 0 0
23.72 0 0
23.76 0 0
23.8 0 0
23.84 0 0
23.88 0 0
23.92 0 0
23.96 0 0
24 0 0
24.04 0 0
24.08 0 0
24.12 0 0
24.16 0 0
24.2 0 0
24.24 0 0
24.28 0 0
24.32 0 0
24.36 0 0
24.4 0 0
24.44 0 0
24.48 0 0
24.52 0 0
24.56 0 0
24.6 0 0
24.64 0 0
24.68 0 0
24.72 0 0
24.76 0 0
24.8 0 0
24.84 0 0
24.88 0 0
24.92 0 0
24.96 0 0
25 0 0
25.04 0 0
25.08 0 0
25.12 0 0
25.16 0 0
25.2 0 0
25.24 0 0
25.28 0 0
25.32 0 0
25.36 0 0
25.4 0 0
25.44 0 0
25.48 0 0
25.52 0 0
25.56 0 0
25.6 0 0
25.64 0 0
25.68 0 0
25.72 0 0
25.76 0 0
25.8 0 0
25.84 0 0
25.88 0 0
25.92 0 0
25.96 0 0
26 0 0
26.04 0 0
26.08 0 0
26.12 0 0
26.16 0 0
26.2 0 0
26.24 0 0
26.28 0 0
26.32 0 0
26.36 0 0
26.4 0 0
26.44 0 0
26.48 0 0
26.52 0 0
26.56 0 0
26.6 0 0
26.64 0 0
26.68 0 0
26.72 0 0
26.76 0 0
26.8 0 0
26.84 0 0
26.88 0 0
26.92 0 0
26.96 0 0
27 0 0
27.04 0 0
27.08 0 0
27.12 0 0
27.16 0 0
27.2 0 0
27.24 0 0
27.28 0 0
27.32 0 0
27.36 0 0
27.4 0 0
27.44 0 0
27.48 0 0
27.52 0 0
27.56 0 0
27.6 0 0
27.64 0 0
27.68 0 0
27.72 0 0
27.76 0 0
27.8 0 0
27.84 0 0
27.88 0 0
27.92 0 0
27.96 0 0
28 0 0
28.04 0 0
28.08 0 0
28.12 0 0
28.16 0 0
28.2 0 0
28.24 0 0
28.28 0 0
28.32 0 0
28.36 0 0
28.4 0 0
28.44 0 0
28.48 0 0
28.52 0 0
28.56 0 0
28.6 0 0
28.64 0 0
28.68 0 0
28.72 0 0
28.76 0 0
28.8 0 0
28.84 0 0
28.88 0 0
28.92 0 0
28.96 0 0
29 0 0
29.04 0 0
29.08 0 0
29.12 0 0
29.16 0 0
29.2 0 0
29.24 0 0
29.28 0 0
29.32 0 0
29.36 0 0
29.4 0 0
29.44 0 0
29.48 0 0
29.52 0 0
29.56 0 0
29.6 0 0
29.64 0 0
29.68 0 0
29.72 0 0
29.76 0 0
29.8 0 0
29.84 0 0
29.88 0 0
29.92 0 0
29.96 0 0
30 0 0
30.04 0 0
30.08 0 0
30.12 0 0
30.16 0 0
30.2 0 0
30.24 0 0
30.28 0 0
30.32 0 0
30.36 0 0
30.4 0 0
30.44 0 0
30.48 0 0
30.52 0 0
30.56 0 0
30.6 0 0
30.64 0 0
30.68 0 0
30.72 0 0
30.76 0 0
30.8 0 0
30.84 0 0
30.88 0 0
30.92 0 0
30.96 0 0
31 0 0
31.04 0 0
31.08 0 0
31.12 0 0
31.16 0 0
31.2 0 0
31.24 0 0
31.28 0 0
31.32 0 0
31.36 0 0
31.4 0 0
31.44 0 0
31.48 0 0
31.52 0 0
31.56 0 0
31.6 0 0
31.64 0 0
31.68 0 0
31.72 0 0
31.76 0 0
31.8 0 0
31.84 0 0
31.88 0 0
31.92 0 0
31.96 0 0
0 0.005 0
0.04 0.005 0
0.08 0.005 0
0.12 0.005 0
0.16 0.005 0
0.2 0.005 0
0.24 0.005 0
0.28 0.005 0
0.32 0.005 0
0.36 0.005 0
0.4 0.005 0
0.44 0.005 0
0.48 0.005 0
0.52 0.005 0
0.56 0.005 0
0.6 0.005 0
0.64 0.005 0
0.68 0.005 0
0.72 0.005 0
0.76 0.005 0
0.8 0.005 0
0.84 0.005 0
0.88 0.005 0
0.92 0.005 0
0.96 0.005 0
1 0.005 0
1.04 0.005 0
1.08 0.005 0
1.12 0.005 0
1.16 0.005 0
1.2 0.005 0
1.24 0.005 0
1.28 0.005 0
1.32 0.005 0
1.36 0.005 0
1.4 0.005 0
1.44 0.005 0
1.48 0.005 0
1.52 0.005 0
1.56 0.005 0
1.6 0.005 0
1.64 0.005 0
1.68 0.005 0
1.72 0.005 0
1.76 0.005 0
1.8 0.005 0
1.84 0.005 0
1.88 0.005 0
1.92 0.005 0
1.96 0.005 0
2 0.005 0
2.04 0.005 0
2.08 0.005 0
2.12 0.005 0
2.16 0.005 0
2.2 0.005 0
2.24 0.005 0
2.28 0.005 0
2.32 0.005 0
2.36 0.005 0
2.4 0.005 0
2.44 0.005 0
2.48 0.005 0
2.52 0.005 0
2.56 0.005 0
2.6 0.005 0
2.64 0.005 0
2.68 0.005 0
2.72 0.005 0
2.76 0.005 0
2.8 0.005 0
2.84 0.005 0
2.88 0.005 0
2.92 0.005 0
2.96 0.005 0
3 0.005 0
3.04 0.005 0
3.08 0.005 0
3.12 0.005 0
3.16 0.005 0
3.2 0.005 0
3.24 0.005 0
3.28 0.005 0
3.32 0.005 0
3.36 0.005 0
3.4 0.005 0
3.44 0.005 0
3.48 0.005 0
3.52 0.005 0
3.56 0.005 0
3.6 0.005 0
3.64 0.005 0
3.68 0.005 0
3.72 0.005 0
3.76 0.005 0
3.8 0.005 0
3.84 0.005 0
3.88 0.005 0
3.92 0.005 0
3.96 0.005 0
4 0.005 0
4.04 0.005 0
4.08 0.005 0
4.12 0.005 0
4.16 0.005 0
4.2 0.005 0
4.24 0.005 0
4.28 0.005 0
4.32 0.005 0
4.36 0.005 0
4.4 0.005 0
4.44 0.005 0
4.48 0.005 0
4.52 0.005 0
4.56 0.005 0
4.6 0.005 0
4.64 0.005 0
4.68 0.005 0
4.72 0.005 0
4.76 0.005 0
4.8 0.005 0
4.84 0.005 0
4.88 0.005 0
4.92 0.005 0
4.96 0.005 0
5 0.005 0
5.04 0.005 0
5.08 0.005 0
5.12 0.005 0
5.16 0.005 0
5.2 0.005 0
5.24 0.005 0
5.28 0.005 0
5.32 0.005 0
5.36 0.005 0
5.4 0.005 0
5.44 0.005 0
5.48 0.005 0
5.52 0.005 0
5.56 0.005 0
5.6 0.005 0
5.64 0.005 0
5.68 0.005 0
5.72 0.005 0
5.76 0.005 0
5.8 0.005 0
5.84 0.005 0
5.88 0.005 0
5.92 0.005 0
5.96 0.005 0
6 0.005 0
6.04 0.005 0
6.08 0.005 0
6.12 0.005 0
6.16 0.005 0
6.2 0.005 0
6.24 0.005 0
6.28 0.005 0
6.32 0.005 0
6.36 0.005 0
6.4 0.005 0
6.44 0.005 0
6.48 0.005 0
6.52 0.005 0
6.56 0.005 0
6.6 0.005 0
6.64 0.005 0
6.68 0.005 0
6.72 0.005 0
6.76 0.005 0
6.8 0.005 0
6.84 0.005 0
6.88 0.005 0
6.92 0.005 0
6.96 0.005 0
7 0.005 0
7.04 0.005 0
7.08 0.005 0
7.12 0.005 0
7.16 0.005 0
7.2 0.005 0
7.24 0.005 0
7.28 0.005 0
7.32 0.005 0
7.36 0.005 0
7.4 0.005 0
[...]
POINT_DATA 160000

SCALARS u float 1
LOOKUP_TABLE default
-1
-0.483353
-0.18396
-0.108842
-0.0810296
-0.0668298
-0.0581138
-0.052148
-0.0477724
-0.0444092
-0.0417356
-0.0395555
-0.037742
-0.0362087
-0.0348947
-0.0337554
-0.0327574
-0.0318754
-0.0310896
-0.0303843
-0.0297471
-0.029168
-0.0286386
-0.0281524
-0.0277036
-0.0272877
-0.0269007
-0.0265394
-0.0262009
-0.0258829
-0.0255832
-0.0253002
-0.0250323
-0.0247782
-0.0245366
-0.0243066
-0.0240873
-0.0238777
-0.0236773
-0.0234854
-0.0233013
-0.0231247
-0.0229549
-0.0227916
-0.0226345
-0.022483
-0.022337
-0.0221962
-0.0220602
-0.0219288
-0.0218018
-0.021679
-0.0215601
-0.0214451
-0.0213337
-0.0212259
-0.0211214
-0.0210201
-0.020922
-0.0208269
-0.0207347
-0.0206454
-0.0205588
-0.0204749
-0.0203936
-0.020315
-0.0202388
-0.0201652
-0.0200941
-0.0200256
-0.0199595
-0.0198959
-0.0198349
-0.0197765
-0.0197206
-0.0196674
-0.0196168
-0.0195689
-0.0195236
-0.0194808
-0.0194406
-0.0194029
-0.0193676
-0.0193345
-0.0193035
-0.0192745
-0.0192473
-0.0192218
-0.0191978
-0.0191752
-0.0191539
-0.0191338
-0.0191146
-0.0190964
-0.019079
-0.0190624
-0.0190465
-0.0190313
-0.0190168
-0.0190029
-0.0189898
-0.0189773
-0.0189655
-0.0189542
-0.0189436
-0.0189334
-0.0189235
-0.018914
-0.0189047
-0.0188957
-0.0188869
-0.0188783
-0.0188701
-0.0188622
-0.0188549
-0.0188481
-0.0188419
-0.0188364
-0.0188316
-0.0188275
-0.018824
-0.0188212
-0.0188189
-0.018817
-0.0188156
-0.0188145
-0.0188136
-0.018813
-0.0188125
-0.0188121
-0.0188117
-0.0188114
-0.0188111
-0.0188108
-0.0188105
-0.0188103
-0.01881
-0.0188097
-0.0188094
-0.0188091
-0.0188087
-0.0188084
-0.0188081
-0.0188078
-0.0188075
-0.0188072
-0.0188068
-0.0188065
-0.0188062
-0.0188059
-0.0188056
-0.0188053
-0.0188049
-0.0188046
-0.0188043
-0.018804
-0.0188037
-0.0188033
-0.018803
-0.0188027
-0.0188024
-0.0188021
-0.0188018
-0.0188014
-0.0188011
-0.0188008
-0.0188005
-0.0188002
-0.0187998
-0.0187995
-0.0187992
-0.0187989
-0.0187986
-0.0187983
-0.0187979
-0.0187976
-0.0187973
-0.018797
-0.0187967
-0.0187964
-0.018796
-0.0187957
-0.0187954
-0.0187951
-0.0187948
-0.0187944
-0.0187941
-0.0187938
-0.0187935
-0.0187932
-0.0187929
-0.0187925
-0.0187922
-0.0187919
-0.0187916
-0.0187913
-0.018791
-0.0187906
-0.0187903
-0.01879
-0.0187897
-0.0187894
-0.018789
-0.0187887
-0.0187884
-0.0187881
-0.0187878
-0.0187875
-0.0187871
-0.0187868
-0.0187865
-0.0187862
-0.0187859
-0.0187856
-0.0187852
-0.0187849
-0.0187846
-0.0187843
-0.018784
-0.0187837
-0.0187833
-0.018783
-0.0187827
-0.0187824
-0.0187821
-0.0187818
-0.0187814
-0.0187811
-0.0187808
-0.0187805
-0.0187802
-0.0187799
-0.0187795
-0.0187792
-0.0187789
-0.0187786
-0.0187783
-0.018778
-0.0187776
-0.0187773
-0.018777
-0.0187767
-0.0187764
-0.0187761
-0.0187757
-0.0187754
-0.0187751
-0.0187748
-0.0187745
-0.0187742
-0.0187738
-0.0187735
-0.0187732
-0.0187729
-0.0187726
-0.0187723
-0.018772
-0.0187716
-0.0187713
-0.018771
-0.0187707
-0.0187704
-0.0187701
-0.0187697
-0.0187694
-0.0187691
-0.0187688
-0.0187685
-0.0187682
-0.0187679
-0.0187675
-0.0187672
-0.0187669
-0.0187666
-0.0187663
-0.018766
-0.0187657
-0.0187653
-0.018765
-0.0187647
-0.0187644
-0.0187641
-0.0187638
-0.0187635
-0.0187632
-0.0187628
-0.0187625
-0.0187622
-0.0187619
-0.0187616
-0.0187613
-0.018761
-0.0187607
-0.0187603
-0.01876
-0.0187597
-0.0187594
-0.0187591
-0.0187588
-0.0187585
-0.0187582
-0.0187578
-0.0187575
-0.0187572
-0.0187569
-0.0187566
-0.0187563
-0.018756
-0.0187557
-0.0187554
-0.0187551
-0.0187547
-0.0187544
-0.0187541
-0.0187538
-0.0187535
-0.0187532
-0.0187529
-0.0187526
-0.0187523
-0.018752
-0.0187517
-0.0187514
-0.018751
-0.0187507
-0.0187504
-0.0187501
-0.0187498
-0.0187495
-0.0187492
-0.0187489
-0.0187486
-0.0187483
-0.018748
-0.0187477
-0.0187474
-0.0187471
-0.0187468
-0.0187465
-0.0187462
-0.0187458
-0.0187455
-0.0187452
-0.0187449
-0.0187446
-0.0187443
-0.018744
-0.0187437
-0.0187434
-0.0187431
-0.0187428
-0.0187425
-0.0187422
-0.0187419
-0.0187416
-0.0187413
-0.018741
-0.0187407
-0.0187404
-0.0187401
-0.0187398
-0.0187395
-0.0187392
-0.018739
-0.0187387
-0.0187384
-0.0187381
-0.0187378
-0.0187375
-0.0187372
-0.0187369
-0.0187366
-0.0187363
-0.018736
-0.0187357
-0.0187354
-0.0187351
-0.0187348
-0.0187346
-0.0187343
-0.018734
-0.0187337
-0.0187334
-0.0187331
-0.0187328
-0.0187325
-0.0187323
-0.018732
-0.0187317
-0.0187314
-0.0187311
-0.0187308
-0.0187305
-0.0187303
-0.01873
-0.0187297
-0.0187294
-0.0187291
-0.0187289
-0.0187286
-0.0187283
-0.018728
-0.0187277
-0.0187275
-0.0187272
-0.0187269
-0.0187266
-0.0187264
-0.0187261
-0.0187258
-0.0187255
-0.0187253
-0.018725
-0.0187247
-0.0187245
-0.0187242
-0.0187239
-0.0187236
-0.0187234
-0.0187231
-0.0187228
-0.0187226
-0.0187223
-0.018722
-0.0187218
-0.0187215
-0.0187212
-0.018721
-0.0187207
-0.0187204
-0.0187202
-0.0187199
-0.0187197
-0.0187194
-0.0187191
-0.0187189
-0.0187186
-0.0187184
-0.0187181
-0.0187178
-0.0187176
-0.0187173
-0.0187171
-0.0187168
-0.0187166
-0.0187163
-0.0187161
-0.0187158
-0.0187155
-0.0187153
-0.018715
-0.0187148
-0.0187145
-0.0187143
-0.018714
-0.0187138
-0.0187135
-0.0187133
-0.018713
-0.0187128
-0.0187125
-0.0187123
-0.018712
-0.0187118
-0.0187115
-0.0187113
-0.018711
-0.0187108
-0.0187105
-0.0187103
-0.01871
-0.0187098
-0.0187095
-0.0187093
-0.018709
-0.0187088
-0.0187085
-0.0187083
-0.018708
-0.0187078
-0.0187075
-0.0187073
-0.018707
-0.0187068
-0.0187065
-0.0187063
-0.018706
-0.0187058
-0.0187055
-0.0187053
-0.018705
-0.0187048
-0.0187045
-0.0187043
-0.018704
-0.0187038
-0.0187035
-0.0187033
-0.018703
-0.0187028
-0.0187025
-0.0187023
-0.018702
-0.0187018
-0.0187015
-0.0187013
-0.018701
-0.0187008
-0.0187005
-0.0187002
-0.0187
-0.0186997
-0.0186995
-0.0186992
-0.018699
-0.0186987
-0.0186984
-0.0186982
-0.0186979
-0.0186976
-0.0186974
-0.0186971
-0.0186969
-0.0186966
-0.0186963
-0.0186961
-0.0186958
-0.0186955
-0.0186953
-0.018695
-0.0186947
-0.0186945
-0.0186942
-0.0186939
-0.0186936
-0.0186934
-0.0186931
-0.0186928
-0.0186925
-0.0186923
-0.018692
-0.0186917
-0.0186914
-0.0186912
-0.0186909
-0.0186906
-0.0186903
-0.01869
-0.0186898
-0.0186895
-0.0186892
-0.0186889
-0.0186886
-0.0186883
-0.018688
-0.0186878
-0.0186875
-0.0186872
-0.0186869
-0.0186866
-0.0186863
-0.018686
-0.0186857
-0.0186854
-0.0186851
-0.0186848
-0.0186845
-0.0186843
-0.018684
-0.0186837
-0.0186834
-0.0186831
-0.0186828
-0.0186825
-0.0186822
-0.0186819
-0.0186816
-0.0186813
-0.0186809
-0.0186806
-0.0186803
-0.01868
-0.0186797
-0.0186794
-0.0186791
-0.0186788
-0.0186785
-0.0186782
-0.0186779
-0.0186776
-0.0186773
-0.018677
-0.0186766
-0.0186763
-0.018676
-0.0186757
-0.0186754
-0.0186751
-0.0186748
-0.0186745
-0.0186741
-0.0186738
-0.0186735
-0.0186732
-0.0186729
-0.0186726
-0.0186722
-0.0186719
-0.0186716
-0.0186713
-0.018671
-0.0186706
-0.0186703
-0.01867
-0.0186697
-0.0186694
-0.018669
-0.0186687
-0.0186684
-0.0186681
-0.0186678
-0.0186674
-0.0186671
-0.0186668
-0.0186665
-0.0186661
-0.0186658
-0.0186655
-0.0186652
-0.0186648
-0.0186645
-0.0186642
-0.0186639
-0.0186635
-0.0186632
-0.0186629
-0.0186626
-0.0186622
-0.0186619
-0.0186616
-0.0186613
-0.0186609
-0.0186606
-0.0186603
-0.01866
-0.0186596
-0.0186593
-0.018659
-0.0186586
-0.0186583
-0.018658
-0.0186577
-0.0186573
-0.018657
-0.0186567
-0.0186563
-0.018656
-0.0186557
-0.0186554
-0.018655
-0.0186547
-0.0186544
-0.018654
-0.0186537
-0.0186534
-0.0186531
-0.0186527
-0.0186524
-0.0186521
-0.0186517
-0.0186514
-0.0186511
-0.0186507
-0.0186504
-0.0186501
-0.0186498
-0.0186494
-0.0186491
-0.0186488
-0.0186484
-0.0186481
-0.0186478
-0.0186474
-0.0186471
-0.0186468
-0.0186464
-0.0186461
-0.0186458
-0.0186455
-0.0186451
-0.0186448
-0.0186445
-0.0186441
-0.0186438
-0.0186435
-0.0186431
-0.0186428
-0.0186425
-0.0186421
-0.0186418
-0.0186415
-0.0186411
-0.0186408
-0.0186405
-0.0186401
-0.0186398
-0.0186395
-0.0186392
-0.0186388
-0.0186385
-0.0186382
-0.0186378
-0.0186375
-0.0186372
-0.0186368
-0.0186365
-0.0186362
-0.0186358
-0.0186355
-0.0186352
-0.0186348
-0.0186345
-0.0186342
-0.0186338
-0.0186335
-0.0186332
-0.0186328
-0.0186325
-0.0186322
-0.0186318
-0.0186315
-0.0186312
-0.0186309
-0.0186305
-0.0186302
-0.0186299
-0.0186295
-0.0186292
-0.0186289
-0.0186285
-0.0186282
-0.0186279
-0.0186275
-0.0186272
-0.0186269
-0.0186265
-0.0186262
-0.0186259
-0.0186255
-0.0186252
-0.0186249
-0.0186245
-0.0186242
-0.0186239
-0.0186235
-0.0186232
-0.0186229
-0.0186225
-0.0186222
-0.0186219
-0.0186215
-0.0186212
-0.0186209
-0.0186205
-0.0186202
-0.0186199
-0.0186195
-0.0186192
-0.0186189
-0.0186185
-0.0186182
-0.0186179
-0.0186175
-0.0186172
-0.0186168
-0.0186165
-0.0186162
-0.0186158
-0.0186155
-0.0186151
-0.0186148
-0.0186144
-0.018614
-0.0186137
-0.0186133
-0.0186129
-0.0186125
-0.0186121
-0.0186116
-0.0186111
-0.0186106
-0.0186101
-0.0186094
-0.0186087
-0.0186079
-0.018607
-0.0186056
-0.0186054
-0.0186054
-0.0186054
1
0.483353
0.18396
0.108842
0.0810296
0.0668298
0.0581138
0.052148
0.0477724
0.0444092
0.0417356
0.0395555
0.037742
0.0362087
0.0348947
0.0337554
0.0327574
0.0318754
0.0310896
0.0303843
0.0297471
0.029168
0.0286386
0.0281524
0.0277036
0.0272877
0.0269007
0.0265394
0.0262009
0.0258829
0.0255832
0.0253002
0.0250323
0.0247782
0.0245366
0.0243066
0.0240873
0.0238777
0.0236773
0.0234854
0.0233013
0.0231247
0.0229549
0.0227916
0.0226345
0.022483
0.022337
0.0221962
0.0220602
0.0219288
0.0218018
0.021679
0.0215601
0.0214451
0.0213337
0.0212259
0.0211214
0.0210201
0.020922
0.0208269
0.0207347
0.0206454
0.0205588
0.0204749
0.0203936
0.020315
0.0202388
0.0201652
0.0200941
0.0200256
0.0199595
0.0198959
0.0198349
0.0197765
0.0197206
0.0196674
0.0196168
0.0195689
0.0195236
0.0194808
0.0194406
0.0194029
0.0193676
0.0193345
0.0193035
0.0192745
0.0192473
0.0192218
0.0191978
0.0191752
0.0191539
0.0191338
0.0191146
0.0190964
0.019079
0.0190624
0.0190465
0.0190313
0.0190168
0.0190029
0.0189898
0.0189773
0.0189655
0.0189542
0.0189436
0.0189334
0.0189235
0.018914
0.0189047
0.0188957
0.0188869
0.0188783
0.0188701
0.0188622
0.0188549
0.0188481
0.0188419
0.0188364
0.0188316
0.0188275
0.018824
0.0188212
0.0188189
0.018817
0.0188156
0.0188145
0.0188136
0.018813
0.0188125
0.0188121
0.0188117
0.0188114
0.0188111
0.0188108
0.0188105
0.0188103
0.01881
0.0188097
0.0188094
0.0188091
0.0188087
0.0188084
0.0188081
0.0188078
0.0188075
0.0188072
0.0188068
0.0188065
0.0188062
0.0188059
0.0188056
0.0188053
0.0188049
0.0188046
0.0188043
0.018804
0.0188037
0.0188033
0.018803
0.0188027
0.0188024
0.0188021
0.0188018
0.0188014
0.0188011
0.0188008
0.0188005
0.0188002
0.0187998
0.0187995
0.0187992
0.0187989
0.0187986
0.0187983
0.0187979
0.0187976
0.0187973
0.018797
0.0187967
0.0187964
0.018796
0.0187957
0.0187954
0.0187951
0.0187948
0.0187944
0.0187941
0.0187938
0.0187935
0.0187932
0.0187929
0.0187925
0.0187922
0.0187919
0.0187916
0.0187913
0.018791
0.0187906
0.0187903
0.01879
0.0187897
0.0187894
0.018789
0.0187887
0.0187884
0.0187881
0.0187878
0.0187875
0.0187871
0.0187868
0.0187865
0.0187862
0.0187859
0.0187856
0.0187852
0.0187849
0.0187846
0.0187843
0.018784
0.0187837
0.0187833
0.018783
0.0187827
0.0187824
0.0187821
0.0187818
0.0187814
0.0187811
0.0187808
0.0187805
0.0187802
0.0187799
0.0187795
0.0187792
0.0187789
0.0187786
0.0187783
0.018778
0.0187776
0.0187773
0.018777
0.0187767
0.0187764
0.0187761
0.0187757
0.0187754
0.0187751
0.0187748
0.0187745
0.0187742
0.0187738
0.0187735
0.0187732
0.0187729
0.0187726
0.0187723
0.018772
0.0187716
0.0187713
0.018771
0.0187707
0.0187704
0.0187701
0.0187697
0.0187694
0.0187691
0.0187688
0.0187685
0.0187682
0.0187679
0.0187675
0.0187672
0.0187669
0.0187666
0.0187663
0.018766
0.0187657
0.0187653
0.018765
0.0187647
0.0187644
0.0187641
0.0187638
0.0187635
0.0187632
0.0187628
0.0187625
0.0187622
0.0187619
0.0187616
0.0187613
0.018761
0.0187607
0.0187603
0.01876
0.0187597
0.0187594
0.0187591
0.0187588
0.0187585
0.0187582
0.0187578
0.0187575
0.0187572
0.0187569
0.0187566
0.0187563
0.018756
0.0187557
0.0187554
0.0187551
0.0187547
0.0187544
0.0187541
0.0187538
0.0187535
0.0187532
0.0187529
0.0187526
0.0187523
0.018752
0.0187517
0.0187514
0.018751
0.0187507
0.0187504
0.0187501
0.0187498
0.0187495
0.0187492
0.0187489
0.0187486
0.0187483
0.018748
0.0187477
0.0187474
0.0187471
0.0187468
0.0187465
0.0187462
0.0187458
0.0187455
0.0187452
0.0187449
0.0187446
0.0187443
0.018744
0.0187437
0.0187434
0.0187431
0.0187428
0.0187425
0.0187422
0.0187419
0.0187416
0.0187413
0.018741
0.0187407
0.0187404
0.0187401
0.0187398
0.0187395
0.0187392
0.018739
0.0187387
0.0187384
0.0187381
0.0187378
0.0187375
0.0187372
0.0187369
0.0187366
0.0187363
0.018736
0.0187357
0.0187354
0.0187351
0.0187348
0.0187346
0.0187343
0.018734
0.0187337
0.0187334
0.0187331
0.0187328
0.0187325
0.0187323
0.018732
0.0187317
0.0187314
0.0187311
0.0187308
0.0187305
0.0187303
0.01873
0.0187297
0.0187294
0.0187291
0.0187289
0.0187286
0.0187283
0.018728
0.0187277
0.0187275
0.0187272
0.0187269
0.0187266
0.0187264
0.0187261
0.0187258
0.0187255
0.0187253
0.018725
0.0187247
0.0187245
0.0187242
0.0187239
0.0187236
0.0187234
0.0187231
0.0187228
0.0187226
0.0187223
0.018722
0.0187218
0.0187215
0.0187212
0.018721
0.0187207
0.0187204
0.0187202
0.0187199
0.0187197
0.0187194
0.0187191
0.0187189
0.0187186
0.0187184
0.0187181
0.0187178
0.0187176
0.0187173
0.0187171
0.0187168
0.0187166
0.0187163
0.0187161
0.0187158
0.0187155
0.0187153
0.018715
0.0187148
0.0187145
0.0187143
0.018714
0.0187138
0.0187135
0.0187133
0.018713
0.0187128
0.0187125
0.0187123
0.018712
0.0187118
0.0187115
0.0187113
0.018711
0.0187108
0.0187105
0.0187103
0.01871
0.0187098
0.0187095
0.0187093
0.018709
0.0187088
0.0187085
0.0187083
0.018708
0.0187078
0.0187075
0.0187073
0.018707
0.0187068
0.0187065
0.0187063
0.018706
0.0187058
0.0187055
0.0187053
0.018705
0.0187048
0.0187045
0.0187043
0.018704
0.0187038
0.0187035
0.0187033
0.018703
0.0187028
0.0187025
0.0187023
0.018702
0.0187018
0.0187015
0.0187013
0.018701
0.0187008
0.0187005
0.0187002
0.0187
0.0186997
0.0186995
0.0186992
0.018699
0.0186987
0.0186984
0.0186982
0.0186979
0.0186976
0.0186974
0.0186971
0.0186969
0.0186966
0.0186963
0.0186961
0.0186958
0.0186955
0.0186953
0.018695
0.0186947
0.0186945
0.0186942
0.0186939
0.0186936
0.0186934
0.0186931
0.0186928
0.0186925
0.0186923
0.018692
0.0186917
0.0186914
0.0186912
0.0186909
0.0186906
0.0186903
0.01869
0.0186898
0.0186895
0.0186892
0.0186889
0.0186886
0.0186883
0.018688
0.0186878
0.0186875
0.0186872
0.0186869
0.0186866
0.0186863
0.018686
0.0186857
0.0186854
0.0186851
0.0186848
0.0186845
0.0186843
0.018684
0.0186837
0.0186834
0.0186831
0.0186828
0.0186825
0.0186822
0.0186819
0.0186816
0.0186813
0.0186809
0.0186806
0.0186803
0.01868
0.0186797
0.0186794
0.0186791
0.0186788
0.0186785
0.0186782
0.0186779
0.0186776
0.0186773
0.018677
0.0186766
0.0186763
0.018676
0.0186757
0.0186754
0.0186751
0.0186748
0.0186745
0.0186741
0.0186738
0.0186735
0.0186732
0.0186729
0.0186726
0.0186722
0.0186719
0.0186716
0.0186713
0.018671
0.0186706
0.0186703
0.01867
0.0186697
0.0186694
0.018669
0.0186687
0.0186684
0.0186681
0.0186678
0.0186674
0.0186671
0.0186668
0.0186665
0.0186661
0.0186658
0.0186655
0.0186652
0.0186648
0.0186645
0.0186642
0.0186639
0.0186635
0.0186632
0.0186629
0.0186626
0.0186622
0.0186619
0.0186616
0.0186613
0.0186609
0.0186606
0.0186603
0.01866
0.0186596
0.0186593
0.018659
0.0186586
0.0186583
0.018658
0.0186577
0.0186573
0.018657
0.0186567
0.0186563
0.018656
0.0186557
0.0186554
0.018655
0.0186547
0.0186544
0.018654
0.0186537
0.0186534
0.0186531
0.0186527
0.0186524
0.0186521
0.0186517
0.0186514
0.0186511
0.0186507
0.0186504
0.0186501
0.0186498
0.0186494
0.0186491
0.0186488
0.0186484
0.0186481
0.0186478
0.0186474
0.0186471
0.0186468
0.0186464
0.0186461
0.0186458
0.0186455
0.0186451
0.0186448
0.0186445
0.0186441
0.0186438
0.0186435
0.0186431
0.0186428
0.0186425
0.0186421
0.0186418
0.0186415
0.0186411
0.0186408
0.0186405
0.0186401
0.0186398
0.0186395
0.0186392
0.0186388
0.0186385
0.0186382
0.0186378
0.0186375
0.0186372
0.0186368
0.0186365
0.0186362
0.0186358
0.0186355
0.0186352
0.0186348
0.0186345
0.0186342
0.0186338
0.0186335
0.0186332
0.0186328
0.0186325
0.0186322
0.0186318
0.0186315
0.0186312
0.0186309
0.0186305
0.0186302
0.0186299
0.0186295
0.0186292
0.0186289
0.0186285
0.0186282
0.0186279
0.0186275
0.0186272
0.0186269
0.0186265
0.0186262
0.0186259
0.0186255
0.0186252
0.0186249
0.0186245
0.0186242
0.0186239
0.0186235
0.0186232
0.0186229
0.0186225
0.0186222
0.0186219
0.0186215
0.0186212
0.0186209
0.0186205
0.0186202
0.0186199
0.0186195
0.0186192
0.0186189
0.0186185
0.0186182
0.0186179
0.0186175
0.0186172
0.0186168
0.0186165
0.0186162
0.0186158
0.0186155
0.0186151
0.0186148
0.0186144
0.018614
0.0186137
0.0186133
0.0186129
0.0186125
0.0186121
0.0186116
0.0186111
0.0186106
0.0186101
0.0186094
0.0186087
0.0186079
0.018607
0.0186056
0.0186054
0.0186054
0.0186054
1
0.969184
0.49561
0.314216
0.237888
0.197386
0.172122
0.154684
0.141829
0.131914
0.124012
0.117557
0.112179
0.107628
0.103723
0.100335
0.0973661
0.0947411
0.0924016
0.0903016
0.0884043
0.0866798
0.0851038
0.0836563
0.0823207
0.0810832
0.079932
0.0788575
0.0778511
0.0769059
0.0760156
0.0751749
0.0743793
0.0736248
0.0729078
0.0722252
0.0715744
0.0709529
0.0703586
0.0697895
0.069244
0.0687204
0.0682174
0.0677337
0.0672682
0.0668197
0.0663874
0.0659704
0.0655678
0.065179
0.0648032
0.0644399
0.0640884
0.0637483
0.0634191
0.0631003
0.0627916
0.0624925
0.0622027
0.061922
0.0616501
0.0613866
0.0611314
0.0608843
0.0606451
0.0604137
0.06019
0.0599739
0.0597654
0.0595644
0.059371
0.0591852
0.0590071
0.0588368
0.0586742
0.0585196
0.0583728
0.0582338
0.0581026
0.057979
0.0578629
0.057754
0.057652
0.0575565
0.0574671
0.0573834
0.0573049
0.0572312
0.0571619
0.0570966
0.0570349
0.0569764
0.0569209
0.056868
0.0568175
0.0567692
0.056723
0.0566789
0.0566367
0.0565966
0.0565585
0.0565223
0.056488
0.0564554
0.0564244
0.0563948
0.0563663
0.0563388
0.056312
0.0562861
0.0562609
0.0562367
0.0562135
0.0561917
0.0561713
0.0561527
0.0561359
0.0561211
0.0561082
0.0560972
0.056088
0.0560805
0.0560745
0.0560697
0.0560659
0.056063
0.0560608
0.056059
0.0560576
0.0560565
0.0560555
0.0560546
0.0560537
0.0560528
0.056052
0.0560511
0.0560503
0.0560494
0.0560484
0.0560475
0.0560466
0.0560456
0.0560447
0.0560437
0.0560428
0.0560418
0.0560409
0.0560399
0.056039
0.056038
0.0560371
0.0560361
0.0560352
0.0560342
0.0560333
0.0560323
0.0560314
0.0560304
0.0560295
0.0560285
0.0560276
0.0560266
0.0560257
0.0560247
0.0560238
0.0560228
0.0560219
0.0560209
0.05602
0.056019
0.0560181
0.0560171
0.0560162
0.0560152
0.0560143
0.0560133
0.0560124
0.0560114
0.0560105
0.0560095
0.0560086
0.0560076
0.0560067
0.0560057
0.0560048
0.0560038
0.0560029
0.0560019
0.056001
0.056
0.0559991
0.0559981
0.0559972
0.0559962
0.0559953
0.0559943
0.0559934
0.0559924
0.0559915
0.0559905
0.0559896
0.0559886
0.0559877
0.0559867
0.0559858
0.0559848
0.0559839
0.0559829
0.055982
0.055981
0.0559801
0.0559791
0.0559782
0.0559772
0.0559763
0.0559753
0.0559744
0.0559734
0.0559725
0.0559715
0.0559706
0.0559696
0.0559687
0.0559678
0.0559668
0.0559659
0.0559649
0.055964
0.055963
0.0559621
0.0559611
0.0559602
0.0559592
0.0559583
0.0559574
0.0559564
0.0559555
0.0559545
0.0559536
0.0559526
0.0559517
0.0559507
0.0559498
0.0559489
0.0559479
0.055947
0.055946
0.0559451
0.0559441
0.0559432
0.0559422
0.0559413
0.0559404
0.0559394
0.0559385
0.0559375
0.0559366
0.0559357
0.0559347
0.0559338
0.0559328
0.0559319
0.055931
0.05593
0.0559291
0.0559281
0.0559272
0.0559263
0.0559253
0.0559244
0.0559234
0.0559225
0.0559216
0.0559206
0.0559197
0.0559188
0.0559178
0.0559169
0.055916
0.055915
0.0559141
0.0559131
0.0559122
0.0559113
0.0559103
0.0559094
0.0559085
0.0559075
0.0559066
0.0559057
0.0559047
0.0559038
0.0559029
0.055902
0.055901
0.0559001
0.0558992
0.0558982
0.0558973
0.0558964
0.0558955
0.0558945
0.0558936
0.0558927
0.0558917
0.0558908
0.0558899
0.055889
0.055888
0.0558871
0.0558862
0.0558853
0.0558844
0.0558834
0.0558825
0.0558816
0.0558807
0.0558798
0.0558788
0.0558779
0.055877
0.0558761
0.0558752
0.0558743
0.0558733
0.0558724
0.0558715
0.0558706
0.0558697
0.0558688
0.0558679
0.0558669
0.055866
0.0558651
0.0558642
0.0558633
0.0558624
0.0558615
0.0558606
0.0558597
0.0558588
0.0558579