# vtk DataFile Version 2.0
FlowField
ASCII
DATASET STRUCTURED_GRID
DIMENSIONS 800 1 200
POINTS 160000 float
0 0 0
0.04 0 0
0.08 0 0
0.12 0 0
0.16 0 0
0.2 0 0
0.24 0 0
0.28 0 0
0.32 0 0
0.36 0 0
0.4 0 0
0.44 0 0
0.48 0 0
0.52 0 0
0.56 0 0
0.6 0 0
0.64 0 0
0.68 0 0
0.72 0 0
0.76 0 0
0.8 0 0
0.84 0 0
0.88 0 0
0.92 0 0
0.96 0 0
1 0 0
1.04 0 0
1.08 0 0
1.12 0 0
1.16 0 0
1.2 0 0
1.24 0 0
1.28 0 0
1.32 0 0
1.36 0 0
1.4 0 0
1.44 0 0
1.48 0 0
1.52 0 0
1.56 0 0
1.6 0 0
1.64 0 0
1.68 0 0
1.72 0 0
1.76 0 0
1.8 0 0
1.84 0 0
1.88 0 0
1.92 0 0
1.96 0 0
2 0 0
2.04 0 0
2.08 0 0
2.12 0 0
2.16 0 0
2.2 0 0
2.24 0 0
2.28 0 0
2.32 0 0
2.36 0 0
2.4 0 0
2.44 0 0
2.48 0 0
2.52 0 0
2.56 0 0
2.6 0 0
2.64 0 0
2.68 0 0
2.72 0 0
2.76 0 0
2.8 0 0
2.84 0 0
2.88 0 0
2.92 0 0
2.96 0 0
3 0 0
3.04 0 0
3.08 0 0
3.12 0 0
3.16 0 0
3.2 0 0
3.24 0 0
3.28 0 0
3.32 0 0
3.36 0 0
3.4 0 0
3.44 0 0
3.48 0 0
3.52 0 0
3.56 0 0
3.6 0 0
3.64 0 0
3.68 0 0
3.72 0 0
3.76 0 0
3.8 0 0
3.84 0 0
3.88 0 0
3.92 0 0
3.96 0 0
4 0 0
4.04 0 0
4.08 0 0
4.12 0 0
4.16 0 0
4.2 0 0
4.24 0 0
4.28 0 0
4.32 0 0
4.36 0 0
4.4 0 0
4.44 0 0
4.48 0 0
4.52 0 0
4.56 0 0
4.6 0 0
4.64 0 0
4.68 0 0
4.72 0 0
4.76 0 0
4.8 0 0
4.84 0 0
4.88 0 0
4.92 0 0
4.96 0 0
5 0 0
5.04 0 0
5.08 0 0
5.12 0 0
5.16 0 0
5.2 0 0
5.24 0 0
5.28 0 0
5.32 0 0
5.36 0 0
5.4 0 0
5.44 0 0
5.48 0 0
5.52 0 0
5.56 0 0
5.6 0 0
5.64 0 0
5.68 0 0
5.72 0 0
5.76 0 0
5.8 0 0
5.84 0 0
5.88 0 0
5.92 0 0
5.96 0 0
6 0 0
6.04 0 0
6.08 0 0
6.12 0 0
6.16 0 0
6.2 0 0
6.24 0 0
6.28 0 0
6.32 0 0
6.36 0 0
6.4 0 0
6.44 0 0
6.48 0 0
6.52 0 0
6.56 0 0
6.6 0 0
6.64 0 0
6.68 0 0
6.72 0 0
6.76 0 0
6.8 0 0
6.84 0 0
6.88 0 0
6.92 0 0
6.96 0 0
7 0 0
7.04 0 0
7.08 0 0
7.12 0 0
7.16 0 0
7.2 0 0
7.24 0 0
7.28 0 0
7.32 0 0
7.36 0 0
7.4 0 0
7.44 0 0
7.48 0 0
7.52 0 0
7.56 0 0
7.6 0 0
7.64 0 0
7.68 0 0
7.72 0 0
7.76 0 0
7.8 0 0
7.84 0 0
7.88 0 0
7.92 0 0
7.96 0 0
8 0 0
8.04 0 0
8.08 0 0
8.12 0 0
8.16 0 0
8.2 0 0
8.24 0 0
8.28 0 0
8.32 0 0
8.36 0 0
8.4 0 0
8.44 0 0
8.48 0 0
8.52 0 0
8.56 0 0
8.6 0 0
8.64 0 0
8.68 0 0
8.72 0 0
8.76 0 0
8.8 0 0
8.84 0 0
8.88 0 0
8.92 0 0
8.96 0 0
9 0 0
9.04 0 0
9.08 0 0
9.12 0 0
9.16 0 0
9.2 0 0
9.24 0 0
9.28 0 0
9.32 0 0
9.36 0 0
9.4 0 0
9.44 0 0
9.48 0 0
9.52 0 0
9.56 0 0
9.6 0 0
9.64 0 0
9.68 0 0
9.72 0 0
9.76 0 0
9.8 0 0
9.84 0 0
9.88 0 0
9.92 0 0
9.96 0 0
10 0 0
10.04 0 0
10.08 0 0
10.12 0 0
10.16 0 0
10.2 0 0
10.24 0 0
10.28 0 0
10.32 0 0
10.36 0 0
10.4 0 0
10.44 0 0
10.48 0 0
10.52 0 0
10.56 0 0
10.6 0 0
10.64 0 0
10.68 0 0
10.72 0 0
10.76 0 0
10.8 0 0
10.84 0 0
10.88 0 0
10.92 0 0
10.96 0 0
11 0 0
11.04 0 0
11.08 0 0
11.12 0 0
11.16 0 0
11.2 0 0
11.24 0 0
11.28 0 0
11.32 0 0
11.36 0 0
11.4 0 0
11.44 0 0
11.48 0 0
11.52 0 0
11.56 0 0
11.6 0 0
11.64 0 0
11.68 0 0
11.72 0 0
11.76 0 0
11.8 0 0
11.84 0 0
11.88 0 0
11.92 0 0
11.96 0 0
12 0 0
12.04 0 0
12.08 0 0
12.12 0 0
12.16 0 0
12.2 0 0
12.24 0 0
12.28 0 0
12.32 0 0
12.36 0 0
12.4 0 0
12.44 0 0
12.48 0 0
12.52 0 0
12.56 0 0
12.6 0 0
12.64 0 0
12.68 0 0
12.72 0 0
12.76 0 0
12.8 0 0
12.84 0 0
12.88 0 0
12.92 0 0
12.96 0 0
13 0 0
13.04 0 0
13.08 0 0
13.12 0 0
13.16 0 0
13.2 0 0
13.24 0 0
13.28 0 0
13.32 0 0
13.36 0 0
13.4 0 0
13.44 0 0
13.48 0 0
13.52 0 0
13.56 0 0
13.6 0 0
13.64 0 0
13.68 0 0
13.72 0 0
13.76 0 0
13.8 0 0
13.84 0 0
13.88 0 0
13.92 0 0
13.96 0 0
14 0 0
14.04 0 0
14.08 0 0
14.12 0 0
14.16 0 0
14.2 0 0
14.24 0 0
14.28 0 0
14.32 0 0
14.36 0 0
14.4 0 0
14.44 0 0
14.48 0 0
14.52 0 0
14.56 0 0
14.6 0 0
14.64 0 0
14.68 0 0
14.72 0 0
14.76 0 0
14.8 0 0
14.84 0 0
14.88 0 0
14.92 0 0
14.96 0 0
15 0 0
15.04 0 0
15.08 0 0
15.12 0 0
15.16 0 0
15.2 0 0
15.24 0 0
15.28 0 0
15.32 0 0
15.36 0 0
15.4 0 0
15.44 0 0
15.48 0 0
15.52 0 0
15.56 0 0
15.6 0 0
15.64 0 0
15.68 0 0
15.72 0 0
15.76 0 0
15.8 0 0
15.84 0 0
15.88 0 0
15.92 0 0
15.96 0 0
16 0 0
16.04 0 0
16.08 0 0
16.12 0 0
16.16 0 0
16.2 0 0
16.24 0 0
16.28 0 0
16.32 0 0
16.36 0 0
16.4 0 0
16.44 0 0
16.48 0 0
16.52 0 0
16.56 0 0
16.6 0 0
16.64 0 0
16.68 0 0
16.72 0 0
16.76 0 0
16.8 0 0
16.84 0 0
16.88 0 0
16.92 0 0
16.96 0 0
17 0 0
17.04 0 0
17.08 0 0
17.12 0 0
17.16 0 0
17.2 0 0
17.24 0 0
17.28 0 0
17.32 0 0
17.36 0 0
17.4 0 0
17.44 0 0
17.48 0 0
17.52 0 0
17.56 0 0
17.6 0 0
17.64 0 0
17.68 0 0
17.72 0 0
17.76 0 0
17.8 0 0
17.84 0 0
17.88 0 0
17.92 0 0
17.96 0 0
18 0 0
18.04 0 0
18.08 0 0
18.12 0 0
18.16 0 0
18.2 0 0
18.24 0 0
18.28 0 0
18.32 0 0
18.36 0 0
18.4 0 0
18.44 0 0
18.48 0 0
18.52 0 0
18.56 0 0
18.6 0 0
18.64 0 0
18.68 0 0
18.72 0 0
18.76 0 0
18.8 0 0
18.84 0 0
18.88 0 0
18.92 0 0
18.96 0 0
19 0 0
19.04 0 0
19.08 0 0
19.12 0 0
19.16 0 0
19.2 0 0
19.24 0 0
19.28 0 0
19.32 0 0
19.36 0 0
19.4 0 0
19.44 0 0
19.48 0 0
19.52 0 0
19.56 0 0
19.6 0 0
19.64 0 0
19.68 0 0
19.72 0 0
19.76 0 0
19.8 0 0
19.84 0 0
19.88 0 0
19.92 0 0
19.96 0 0
20 0 0
20.04 0 0
20.08 0 0
20.12 0 0
20.16 0 0
20.2 0 0
20.24 0 0
20.28 0 0
20.32 0 0
20.36 0 0
20.4 0 0
20.44 0 0
20.48 0 0
20.52 0 0
20.56 0 0
20.6 0 0
20.64 0 0
20.68 0 0
20.72 0 0
20.76 0 0
20.8 0 0
20.84 0 0
20.88 0 0
20.92 0 0
20.96 0 0
21 0 0
21.04 0 0
21.08 0 0
21.12 0 0
21.16 0 0
21.2 0 0
21.24 0 0
21.28 0 0
21.32 0 0
21.36 0 0
21.4 0 0
21.44 0 0
21.48 0 0
21.52 0 0
21.56 0 0
21.6 0 0
21.64 0 0
21.68 0 0
21.72 0 0
21.76 0 0
21.8 0 0
21.84 0 0
21.88 0 0
21.92 0 0
21.96 0 0
22 0 0
22.04 0 0
22.08 0 0
22.12 0 0
22.16 0 0
22.2 0 0
22.24 0 0
22.28 0 0
22.32 0 0
22.36 0 0
22.4 0 0
22.44 0 0
22.48 0 0
22.52 0 0
22.56 0 0
22.6 0 0
22.64 0 0
22.68 0 0
22.72 0 0
22.76 0 0
22.8 0 0
22.84 0 0
22.88 0 0
22.92 0 0
22.96 0 0
23 0 0
23.04 0 0
23.08 0 0
23.12 0 0
23.16 0 0
23.2 0 0
23.24 0 0
23.28 0 0
23.32 0 0
23.36 0 0
23.4 0 0
23.44 0 0
23.48 0 0
23.52 0 0
23.56 0 0
23.6 0 0
23.64 0 0
23.68 0 0
23.72 0 0
23.76 0 0
23.8 0 0
23.84 0 0
23.88 0 0
23.92 0 0
23.96 0 0
24 0 0
24.04 0 0
24.08 0 0
24.12 0 0
24.16 0 0
24.2 0 0
24.24 0 0
24.28 0 0
24.32 0 0
24.36 0 0
24.4 0 0
24.44 0 0
24.48 0 0
24.52 0 0
24.56 0 0
24.6 0 0
24.64 0 0
24.68 0 0
24.72 0 0
24.76 0 0
24.8 0 0
24.84 0 0
24.88 0 0
24.92 0 0
24.96 0 0
25 0 0
25.04 0 0
25.08 0 0
25.12 0 0
25.16 0 0
25.2 0 0
25.24 0 0
25.28 0 0
25.32 0 0
25.36 0 0
25.4 0 0
25.44 0 0
25.48 0 0
25.52 0 0
25.56 0 0
25.6 0 0
25.64 0 0
25.68 0 0
25.72 0 0
25.76 0 0
25.8 0 0
25.84 0 0
25.88 0 0
25.92 0 0
25.96 0 0
26 0 0
26.04 0 0
26.08 0 0
26.12 0 0
26.16 0 0
26.2 0 0
26.24 0 0
26.28 0 0
26.32 0 0
26.36 0 0
26.4 0 0
26.44 0 0
26.48 0 0
26.52 0 0
26.56 0 0
26.6 0 0
26.64 0 0
26.68 0 0
26.72 0 0
26.76 0 0
26.8 0 0
26.84 0 0
26.88 0 0
26.92 0 0
26.96 0 0
27 0 0
27.04 0 0
27.08 0 0
27.12 0 0
27.16 0 0
27.2 0 0
27.24 0 0
27.28 0 0
27.32 0 0
27.36 0 0
27.4 0 0
27.44 0 0
27.48 0 0
27.52 0 0
27.56 0 0
27.6 0 0
27.64 0 0
27.68 0 0
27.72 0 0
27.76 0 0
27.8 0 0
27.84 0 0
27.88 0 0
27.92 0 0
27.96 0 0
28 0 0
28.04 0 0
28.08 0 0
28.12 0 0
28.16 0 0
28.2 0 0
28.24 0 0
28.28 0 0
28.32 0 0
28.36 0 0
28.4 0 0
28.44 0 0
28.48 0 0
28.52 0 0
28.56 0 0
28.6 0 0
28.64 0 0
28.68 0 0
28.72 0 0
28.76 0 0
28.8 0 0
28.84 0 0
28.88 0 0
28.92 0 0
28.96 0 0
29 0 0
29.04 0 0
29.08 0 0
29.12 0 0
29.16 0 0
29.2 0 0
29.24 0 0
29.28 0 0
29.32 0 0
29.36 0 0
29.4 0 0
29.44 0 0
29.48 0 0
29.52 0 0
29.56 0 0
29.6 0 0
29.64 0 0
29.68 0 0
29.72 0 0
29.76 0 0
29.8 0 0
29.84 0 0
29.88 0 0
29.92 0 0
29.96 0 0
30 0 0
30.04 0 0
30.08 0 0
30.12 0 0
30.16 0 0
30.2 0 0
30.24 0 0
30.28 0 0
30.32 0 0
30.36 0 0
30.4 0 0
30.44 0 0
30.48 0 0
30.52 0 0
30.56 0 0
30.6 0 0
30.64 0 0
30.68 0 0
30.72 0 0
30.76 0 0
30.8 0 0
30.84 0 0
30.88 0 0
30.92 0 0
30.96 0 0
31 0 0
31.04 0 0
31.08 0 0
31.12 0 0
31.16 0 0
31.2 0 0
31.24 0 0
31.28 0 0
31.32 0 0
31.36 0 0
31.4 0 0
31.44 0 0
31.48 0 0
31.52 0 0
31.56 0 0
31.6 0 0
31.64 0 0
31.68 0 0
31.72 0 0
31.76 0 0
31.8 0 0
31.84 0 0
31.88 0 0
31.92 0 0
31.96 0 0
0 0.005 0
0.04 0.005 0
0.08 0.005 0
0.12 0.005 0
0.16 0.005 0
0.2 0.005 0
0.24 0.005 0
0.28 0.005 0
0.32 0.005 0
0.36 0.005 0
0.4 0.005 0
0.44 0.005 0
0.48 0.005 0
0.52 0.005 0
0.56 0.005 0
0.6 0.005 0
0.64 0.005 0
0.68 0.005 0
0.72 0.005 0
0.76 0.005 0
0.8 0.005 0
0.84 0.005 0
0.88 0.005 0
0.92 0.005 0
0.96 0.005 0
1 0.005 0
1.04 0.005 0
1.08 0.005 0
1.12 0.005 0
1.16 0.005 0
1.2 0.005 0
1.24 0.005 0
1.28 0.005 0
1.32 0.005 0
1.36 0.005 0
1.4 0.005 0
1.44 0.005 0
1.48 0.005 0
1.52 0.005 0
1.56 0.005 0
1.6 0.005 0
1.64 0.005 0
1.68 0.005 0
1.72 0.005 0
1.76 0.005 0
1.8 0.005 0
1.84 0.005 0
1.88 0.005 0
1.92 0.005 0
1.96 0.005 0
2 0.005 0
2.04 0.005 0
2.08 0.005 0
2.12 0.005 0
2.16 0.005 0
2.2 0.005 0
2.24 0.005 0
2.28 0.005 0
2.32 0.005 0
2.36 0.005 0
2.4 0.005 0
2.44 0.005 0
2.48 0.005 0
2.52 0.005 0
2.56 0.005 0
2.6 0.005 0
2.64 0.005 0
2.68 0.005 0
2.72 0.005 0
2.76 0.005 0
2.8 0.005 0
2.84 0.005 0
2.88 0.005 0
2.92 0.005 0
2.96 0.005 0
3 0.005 0
3.04 0.005 0
3.08 0.005 0
3.12 0.005 0
3.16 0.005 0
3.2 0.005 0
3.24 0.005 0
3.28 0.005 0
3.32 0.005 0
3.36 0.005 0
3.4 0.005 0
3.44 0.005 0
3.48 0.005 0
3.52 0.005 0
3.56 0.005 0
3.6 0.005 0
3.64 0.005 0
3.68 0.005 0
3.72 0.005 0
3.76 0.005 0
3.8 0.005 0
3.84 0.005 0
3.88 0.005 0
3.92 0.005 0
3.96 0.005 0
4 0.005 0
4.04 0.005 0
4.08 0.005 0
4.12 0.005 0
4.16 0.005 0
4.2 0.005 0
4.24 0.005 0
4.28 0.005 0
4.32 0.005 0
4.36 0.005 0
4.4 0.005 0
4.44 0.005 0
4.48 0.005 0
4.52 0.005 0
4.56 0.005 0
4.6 0.005 0
4.64 0.005 0
4.68 0.005 0
4.72 0.005 0
4.76 0.005 0
4.8 0.005 0
4.84 0.005 0
4.88 0.005 0
4.92 0.005 0
4.96 0.005 0
5 0.005 0
5.04 0.005 0
5.08 0.005 0
5.12 0.005 0
5.16 0.005 0
5.2 0.005 0
5.24 0.005 0
5.28 0.005 0
5.32 0.005 0
5.36 0.005 0
5.4 0.005 0
5.44 0.005 0
5.48 0.005 0
5.52 0.005 0
5.56 0.005 0
5.6 0.005 0
5.64 0.005 0
5.68 0.005 0
5.72 0.005 0
5.76 0.005 0
5.8 0.005 0
5.84 0.005 0
5.88 0.005 0
5.92 0.005 0
5.96 0.005 0
6 0.005 0
6.04 0.005 0
6.08 0.005 0
6.12 0.005 0
6.16 0.005 0
6.2 0.005 0
6.24 0.005 0
6.28 0.005 0
6.32 0.005 0
6.36 0.005 0
6.4 0.005 0
6.44 0.005 0
6.48 0.005 0
6.52 0.005 0
6.56 0.005 0
6.6 0.005 0
6.64 0.005 0
6.68 0.005 0
6.72 0.005 0
6.76 0.005 0
6.8 0.005 0
6.84 0.005 0
6.88 0.005 0
6.92 0.005 0
6.96 0.005 0
7 0.005 0
7.04 0.005 0
7.08 0.005 0
7.12 0.005 0
7.16 0.005 0
7.2 0.005 0
7.24 0.005 0
7.28 0.005 0
7.32 0.005 0
7.36 0.005 0
7.4 0.005 0
[...]
POINT_DATA 160000

SCALARS v float 1
LOOKUP_TABLE default
0
0
0
0
0
0
0
0
0
0
0
0
0
0
0
0
0
0
0
0
0
0
0
0
0
0
0
0
0
0
0
0
0
0
0
0
0
0
0
0
0
0
0
0
0
0
0
0
0
0
0
0
0
0
0
0
0
0
0
0
0
0
0
0
0
0
0
0
0
0
0
0
0
0
0
0
0
0
0
0
0
0
0
0
0
0
0
0
0
0
0
0
0
0
0
0
0
0
0
0
0
0
0
0
0
0
0
0
0
0
0
0
0
0
0
0
0
0
0
0
0
0
0
0
0
0
0
0
0
0
0
0
0
0
0
0
0
0
0
0
0
0
0
0
0
0
0
0
0
0
0
0
0
0
0
0
0
0
0
0
0
0
0
0
0
0
0
0
0
0
0
0
0
0
0
0
0
0
0
0
0
0
0
0
0
0
0
0
0
0
0
0
0
0
0
0
0
0
0
0
0
0
0
0
0
0
0
0
0
0
0
0
0
0
0
0
0
0
0
0
0
0
0
0
0
0
0
0
0
0
0
0
0
0
0
0
0
0
0
0
0
0
0
0
0
0
0
0
0
0
0
0
0
0
0
0
0
0
0
0
0
0
0
0
0
0
0
0
0
0
0
0
0
0
0
0
0
0
0
0
0
0
0
0
0
0
0
0
0
0
0
0
0
0
0
0
0
0
0
0
0
0
0
0
0
0
0
0
0
0
0
0
0
0
0
0
0
0
0
0
0
0
0
0
0
0
0
0
0
0
0
0
0
0
0
0
0
0
0
0
0
0
0
0
0
0
0
0
0
0
0
0
0
0
0
0
0
0
0
0
0
0
0
0
0
0
0
0
0
0
0
0
0
0
0
0
0
0
0
0
0
0
0
0
0
0
0
0
0
0
0
0
0
0
0
0
0
0
0
0
0
0
0
0
0
0
0
0
0
0
0
0
0
0
0
0
0
0
0
0
0
0
0
0
0
0
0
0
0
0
0
0
0
0
0
0
0
0
0
0
0
0
0
0
0
0
0
0
0
0
0
0
0
0
0
0
0
0
0
0
0
0
0
0
0
0
0
0
0
0
0
0
0
0
0
0
0
0
0
0
0
0
0
0
0
0
0
0
0
0
0
0
0
0
0
0
0
0
0
0
0
0
0
0
0
0
0
0
0
0
0
0
0
0
0
0
0
0
0
0
0
0
0
0
0
0
0
0
0
0
0
0
0
0
0
0
0
0
0
0
0
0
0
0
0
0
0
0
0
0
0
0
0
0
0
0
0
0
0
0
0
0
0
0
0
0
0
0
0
0
0
0
0
0
0
0
0
0
0
0
0
0
0
0
0
0
0
0
0
0
0
0
0
0
0
0
0
0
0
0
0
0
0
0
0
0
0
0
0
0
0
0
0
0
0
0
0
0
0
0
0
0
0
0
0
0
0
0
0
0
0
0
0
0
0
0
0
0
0
0
0
0
0
0
0
0
0
0
0
0
0
0
0
0
0
0
0
0
0
0
0
0
0
0
0
0
0
0
0
0
0
0
0
0
0
0
0
0
0
0
0
0
0
0
0
0
0
0
0
0
0
0
0
0
0
0
0
0
0
0
0
0
0
0
0
0
0
0
0
0
0
0
0
0
0
0
0
0
0
0
0
0
0
0
0
0
0
0
0
0
0
0
0
0
0
0
0
0
0
0
0
0
0
0
0
0
0
0
0
0
0
0
0
0
0
0
0
0
0
0
0
0
0
0
0
0
0
0
0
0
0
0
0
0
0
0
0
0
0
0
0
0
0
0
0
0
0
0
0
0
0
0
0
0
0
0
0
0
0
0
0
0
0.0374154
0.0093808
0.00346764
0.00176602
0.00108054
0.000736784
0.000538006
0.000411461
0.000325262
0.000263573
0.000217752
0.000182721
0.000155319
0.000133483
0.00011581
0.000101318
8.92994e-05
7.92314e-05
7.07214e-05
6.34694e-05
5.72425e-05
5.18583e-05
4.71717e-05
4.3067e-05
3.94506e-05
3.62465e-05
3.33925e-05
3.08376e-05
2.85394e-05
2.64628e-05
2.45783e-05
2.28614e-05
2.12911e-05
1.98499e-05
1.85228e-05
1.7297e-05
1.61615e-05
1.51067e-05
1.41245e-05
1.32078e-05
1.23503e-05
1.15466e-05
1.07919e-05
1.00819e-05
9.41292e-06
8.78159e-06
8.18492e-06
7.62025e-06
7.08517e-06
6.57753e-06
6.09536e-06
5.6369e-06
5.20052e-06
4.78475e-06
4.38826e-06
4.00982e-06
3.64828e-06
3.30263e-06
2.97189e-06
2.6552e-06
2.35173e-06
2.06072e-06
1.78149e-06
1.51336e-06
1.25576e-06
1.0081e-06
7.69867e-07
5.4057e-07
3.19751e-07
1.06981e-07
-9.81394e-08
-2.95989e-07
-4.86917e-07
-6.71254e-07
-8.49313e-07
-1.02139e-06
-1.18775e-06
-1.34866e-06
-1.50436e-06
-1.65509e-06
-1.80106e-06
-1.94247e-06
-2.07953e-06
-2.21242e-06
-2.3413e-06
-2.46636e-06
-2.58773e-06
-2.70558e-06
-2.82004e-06
-2.93125e-06
-3.03934e-06
-3.14441e-06
-3.2466e-06
-3.34602e-06
-3.44276e-06
-3.53692e-06
-3.6286e-06
-3.71789e-06
-3.80487e-06
-3.88964e-06
-3.97226e-06
-4.05282e-06
-4.13137e-06
-4.20801e-06
-4.28279e-06
-4.35576e-06
-4.427e-06
-4.49656e-06
-4.56449e-06
-4.63086e-06
-4.6957e-06
-4.75907e-06
-4.82102e-06
-4.88159e-06
-4.94082e-06
-4.99876e-06
-5.05544e-06
-5.11091e-06
-5.1652e-06
-5.21834e-06
-5.27037e-06
-5.32133e-06
-5.37124e-06
-5.42014e-06
-5.46805e-06
-5.515e-06
-5.56102e-06
-5.60614e-06
-5.65038e-06
-5.69377e-06
-5.73632e-06
-5.77807e-06
-5.81903e-06
-5.85923e-06
-5.89868e-06
-5.93741e-06
-5.97544e-06
-6.01278e-06
-6.04945e-06
-6.08547e-06
-6.12085e-06
-6.15561e-06
-6.18977e-06
-6.22335e-06
-6.25635e-06
-6.28879e-06
-6.32069e-06
-6.35206e-06
-6.3829e-06
-6.41324e-06
-6.44308e-06
-6.47244e-06
-6.50133e-06
-6.52976e-06
-6.55774e-06
-6.58528e-06
-6.61239e-06
-6.63908e-06
-6.66536e-06
-6.69124e-06
-6.71673e-06
-6.74184e-06
-6.76657e-06
-6.79094e-06
-6.81494e-06
-6.8386e-06
-6.86191e-06
-6.88489e-06
-6.90754e-06
-6.92987e-06
-6.95189e-06
-6.9736e-06
-6.99502e-06
-7.01613e-06
-7.03697e-06
-7.05752e-06
-7.07781e-06
-7.09783e-06
-7.11759e-06
-7.13711e-06
-7.15639e-06
-7.17543e-06
-7.19425e-06
-7.21285e-06
-7.23125e-06
-7.24946e-06
-7.26747e-06
-7.28532e-06
-7.303e-06
-7.32052e-06
-7.33791e-06
-7.35517e-06
-7.37231e-06
-7.38935e-06
-7.4063e-06
-7.42317e-06
-7.43997e-06
-7.45672e-06
-7.47343e-06
-7.49011e-06
-7.50677e-06
-7.52341e-06
-7.54006e-06
-7.55671e-06
-7.57338e-06
-7.59008e-06
-7.6068e-06
-7.62355e-06
-7.64033e-06
-7.65715e-06
-7.67401e-06
-7.69091e-06
-7.70784e-06
-7.72481e-06
-7.7418e-06
-7.75882e-06
-7.77587e-06
-7.79293e-06
-7.80999e-06
-7.82706e-06
-7.84413e-06
-7.86118e-06
-7.8782e-06
-7.89521e-06
-7.91217e-06
-7.92909e-06
-7.94596e-06
-7.96277e-06
-7.97951e-06
-7.99618e-06
-8.01277e-06
-8.02926e-06
-8.04567e-06
-8.06197e-06
-8.07816e-06
-8.09424e-06
-8.1102e-06
-8.12604e-06
-8.14175e-06
-8.15733e-06
-8.17278e-06
-8.18808e-06
-8.20325e-06
-8.21826e-06
-8.23312e-06
-8.24783e-06
-8.26238e-06
-8.27678e-06
-8.29101e-06
-8.30507e-06
-8.31897e-06
-8.3327e-06
-8.34625e-06
-8.35963e-06
-8.37283e-06
-8.38585e-06
-8.39869e-06
-8.41135e-06
-8.42382e-06
-8.43611e-06
-8.44821e-06
-8.46012e-06
-8.47184e-06
-8.48337e-06
-8.49471e-06
-8.50586e-06
-8.51681e-06
-8.52757e-06
-8.53813e-06
-8.5485e-06
-8.55868e-06
-8.56866e-06
-8.57844e-06
-8.58803e-06
-8.59743e-06
-8.60663e-06
-8.61564e-06
-8.62445e-06
-8.63307e-06
-8.64151e-06
-8.64975e-06
-8.6578e-06
-8.66566e-06
-8.67333e-06
-8.68082e-06
-8.68812e-06
-8.69524e-06
-8.70218e-06
-8.70893e-06
-8.71551e-06
-8.72191e-06
-8.72813e-06
-8.73417e-06
-8.74005e-06
-8.74576e-06
-8.7513e-06
-8.75666e-06
-8.76187e-06
-8.7669e-06
-8.77178e-06
-8.77649e-06
-8.78105e-06
-8.78545e-06
-8.78969e-06
-8.79379e-06
-8.79773e-06
-8.80153e-06
-8.80518e-06
-8.8087e-06
-8.81207e-06
-8.81531e-06
-8.81842e-06
-8.8214e-06
-8.82426e-06
-8.82699e-06
-8.8296e-06
-8.8321e-06
-8.83448e-06
-8.83674e-06
-8.83889e-06
-8.84093e-06
-8.84284e-06
-8.84464e-06
-8.84632e-06
-8.84787e-06
-8.84931e-06
-8.85062e-06
-8.85182e-06
-8.8529e-06
-8.85386e-06
-8.85472e-06
-8.85548e-06
-8.85615e-06
-8.85673e-06
-8.85723e-06
-8.85766e-06
-8.85804e-06
-8.85836e-06
-8.85863e-06
-8.85888e-06
-8.85909e-06
-8.85927e-06
-8.85943e-06
-8.85959e-06
-8.85972e-06
-8.85984e-06
-8.85996e-06
-8.86007e-06
-8.86018e-06
-8.86029e-06
-8.86039e-06
-8.86049e-06
-8.86059e-06
-8.86069e-06
-8.86078e-06
-8.86088e-06
-8.86098e-06
-8.86108e-06
-8.86118e-06
-8.86128e-06
-8.86139e-06
-8.86149e-06
-8.86159e-06
-8.86169e-06
-8.8618e-06
-8.8619e-06
-8.862e-06
-8.86211e-06
-8.86221e-06
-8.86231e-06
-8.86242e-06
-8.86252e-06
-8.86262e-06
-8.86273e-06
-8.86283e-06
-8.86294e-06
-8.86304e-06
-8.86314e-06
-8.86324e-06
-8.86335e-06
-8.86345e-06
-8.86355e-06
-8.86365e-06
-8.86376e-06
-8.86386e-06
-8.86396e-06
-8.86407e-06
-8.86417e-06
-8.86428e-06
-8.86438e-06
-8.86448e-06
-8.86458e-06
-8.86469e-06
-8.86479e-06
-8.86489e-06
-8.865e-06
-8.8651e-06
-8.8652e-06
-8.86531e-06
-8.86541e-06
-8.86551e-06
-8.86562e-06
-8.86572e-06
-8.86582e-06
-8.86593e-06
-8.86603e-06
-8.86613e-06
-8.86624e-06
-8.86634e-06
-8.86645e-06
-8.86655e-06
-8.86665e-06
-8.86675e-06
-8.86686e-06
-8.86696e-06
-8.86706e-06
-8.86717e-06
-8.86727e-06
-8.86738e-06
-8.86748e-06
-8.86758e-06
-8.86769e-06
-8.86779e-06
-8.86789e-06
-8.868e-06
-8.8681e-06
-8.86821e-06
-8.86831e-06
-8.86841e-06
-8.86852e-06
-8.86862e-06
-8.86872e-06
-8.86883e-06
-8.86893e-06
-8.86904e-06
-8.86914e-06
-8.86924e-06
-8.86935e-06
-8.86945e-06
-8.86955e-06
-8.86966e-06
-8.86976e-06
-8.86987e-06
-8.86997e-06
-8.87008e-06
-8.87018e-06
-8.87028e-06
-8.87038e-06
-8.87049e-06
-8.8706e-06
-8.8707e-06
-8.8708e-06
-8.87091e-06
-8.87101e-06
-8.87112e-06
-8.87122e-06
-8.87132e-06
-8.87143e-06
-8.87153e-06
-8.87164e-06
-8.87174e-06
-8.87184e-06
-8.87195e-06
-8.87205e-06
-8.87215e-06
-8.87226e-06
-8.87237e-06
-8.87247e-06
-8.87257e-06
-8.87268e-06
-8.87278e-06
-8.87289e-06
-8.873e-06
-8.8731e-06
-8.8732e-06
-8.87331e-06
-8.87341e-06
-8.87352e-06
-8.87362e-06
-8.87372e-06
-8.87383e-06
-8.87393e-06
-8.87404e-06
-8.87414e-06
-8.87424e-06
-8.87435e-06
-8.87446e-06
-8.87456e-06
-8.87467e-06
-8.87477e-06
-8.87487e-06
-8.87498e-06
-8.87508e-06
-8.87519e-06
-8.87529e-06
-8.8754e-06
-8.8755e-06
-8.87561e-06
-8.87571e-06
-8.87582e-06
-8.87592e-06
-8.87602e-06
-8.87613e-06
-8.87624e-06
-8.87634e-06
-8.87645e-06
-8.87655e-06
-8.87666e-06
-8.87676e-06
-8.87686e-06
-8.87697e-06
-8.87707e-06
-8.87718e-06
-8.87728e-06
-8.87739e-06
-8.8775e-06
-8.8776e-06
-8.87771e-06
-8.87781e-06
-8.87791e-06
-8.87802e-06
-8.87813e-06
-8.87823e-06
-8.87833e-06
-8.87844e-06
-8.87855e-06
-8.87865e-06
-8.87876e-06
-8.87886e-06
-8.87897e-06
-8.87907e-06
-8.87918e-06
-8.87928e-06
-8.87939e-06
-8.87949e-06
-8.8796e-06
-8.8797e-06
-8.87981e-06
-8.87991e-06
-8.88002e-06
-8.88012e-06
-8.88023e-06
-8.88034e-06
-8.88044e-06
-8.88054e-06
-8.88065e-06
-8.88076e-06
-8.88086e-06
-8.88097e-06
-8.88107e-06
-8.88118e-06
-8.88129e-06
-8.88139e-06
-8.8815e-06
-8.8816e-06
-8.88171e-06
-8.88181e-06
-8.88192e-06
-8.88202e-06
-8.88213e-06
-8.88224e-06
-8.88234e-06
-8.88245e-06
-8.88255e-06
-8.88266e-06
-8.88276e-06
-8.88287e-06
-8.88297e-06
-8.88308e-06
-8.88319e-06
-8.88329e-06
-8.8834e-06
-8.8835e-06
-8.88361e-06
-8.88372e-06
-8.88382e-06
-8.88392e-06
-8.88403e-06
-8.88414e-06
-8.88425e-06
-8.88435e-06
-8.88446e-06
-8.88456e-06
-8.88467e-06
-8.88477e-06
-8.88488e-06
-8.88499e-06
-8.88509e-06
-8.8852e-06
-8.88531e-06
-8.88541e-06
-8.88552e-06
-8.88562e-06
-8.88573e-06
-8.88584e-06
-8.88594e-06
-8.88605e-06
-8.88615e-06
-8.88626e-06
-8.88637e-06
-8.88647e-06
-8.88658e-06
-8.88668e-06
-8.88679e-06
-8.8869e-06
-8.88701e-06
-8.88711e-06
-8.88722e-06
-8.88733e-06
-8.88743e-06
-8.88754e-06
-8.88764e-06
-8.88775e-06
-8.88786e-06
-8.88797e-06
-8.88807e-06
-8.88817e-06
-8.88828e-06
-8.88839e-06
-8.88849e-06
-8.8886e-06
-8.88871e-06
-8.88881e-06
-8.88892e-06
-8.88903e-06
-8.88913e-06
-8.88924e-06
-8.88935e-06
-8.88946e-06
-8.88956e-06
-8.88967e-06
-8.88977e-06
-8.88988e-06
-8.88999e-06
-8.89009e-06
-8.8902e-06
-8.89031e-06
-8.89041e-06
-8.89052e-06
-8.89063e-06
-8.89074e-06
-8.89084e-06
-8.89095e-06
-8.89106e-06
-8.89116e-06
-8.89127e-06
-8.89138e-06
-8.89148e-06
-8.89159e-06
-8.8917e-06
-8.8918e-06
-8.89191e-06
-8.89202e-06
-8.89213e-06
-8.89223e-06
-8.89234e-06
-8.89245e-06
-8.89255e-06
-8.89266e-06
-8.89277e-06
-8.89288e-06
-8.89298e-06
-8.89309e-06
-8.8932e-06
-8.89331e-06
-8.89341e-06
-8.89352e-06
-8.89363e-06
-8.89373e-06
-8.89384e-06
-8.89395e-06
-8.89406e-06
-8.89416e-06
-8.89427e-06
-8.89438e-06
-8.89449e-06
-8.89459e-06
-8.8947e-06
-8.8948e-06
-8.89491e-06
-8.89502e-06
-8.89513e-06
-8.89524e-06
-8.89534e-06
-8.89545e-06
-8.89556e-06
-8.89567e-06
-8.89578e-06
-8.89588e-06
-8.89599e-06
-8.8961e-06
-8.8962e-06
-8.89631e-06
-8.89642e-06
-8.89653e-06
-8.89663e-06
-8.89674e-06
-8.89685e-06
-8.89696e-06
-8.89707e-06
-8.89718e-06
-8.89728e-06
-8.89739e-06
-8.8975e-06
-8.89761e-06
-8.89771e-06
-8.89782e-06
-8.89793e-06
-8.89803e-06
-8.89814e-06
-8.89826e-06
-8.89836e-06
-8.89847e-06
-8.89857e-06
-8.89868e-06
-8.89879e-06
-8.8989e-06
-8.89901e-06
-8.89912e-06
-8.89923e-06
-8.89933e-06
-8.89944e-06
-8.89955e-06
-8.89966e-06
-8.89977e-06
-8.89987e-06
-8.89998e-06
-8.90009e-06
-8.9002e-06
-8.90031e-06
-8.90041e-06
-8.90052e-06
-8.90063e-06
-8.90074e-06
-8.90085e-06
-8.90096e-06
-8.90107e-06
-8.90117e-06
-8.90128e-06
-8.90139e-06
-8.9015e-06
-8.90161e-06
-8.90172e-06
-8.90182e-06
-8.90193e-06
-8.90204e-06
-8.90214e-06
-8.90225e-06
-8.90236e-06
-8.90247e-06
-8.90258e-06
-8.90269e-06
-8.9028e-06
-8.90291e-06
-8.90301e-06
-8.90312e-06
-8.90323e-06
-8.90333e-06
-8.90344e-06
-8.90354e-06
-8.90364e-06
-8.90375e-06
-8.90385e-06
-8.90395e-06
-8.90405e-06
-8.90414e-06
-8.90423e-06
-8.90432e-06
-8.9044e-06
-8.90447e-06
-8.90453e-06
-8.90458e-06
-8.90462e-06
-8.90463e-06
-8.90462e-06
-8.90459e-06
-8.90451e-06
-8.90438e-06
-8.90418e-06
-8.90391e-06
-8.90352e-06
-8.90303e-06
-8.90233e-06
-8.9015e-06
-8.90028e-06
-8.89891e-06
-8.89679e-06
-8.89459e-06
-8.89083e-06
-8.88752e-06
-8.88037e-06
-8.87611e-06
-8.86037e-06
-8.85995e-06
-8.81284e-06
-8.89622e-06
-6.28652e-06
-6.28652e-06
0
0
0.0966096
0.0320523
0.0130058
0.00682597
0.00423567
0.00291373
0.0021421
0.00164802
0.00131015
0.00106767
0.000887161
0.000748912
0.000640607
0.000554184
0.000484158
0.000426678
0.000378963
0.00033896
0.000305123
0.00027627
0.000251482
0.00023004
0.000211369
0.000195012
0.000180599
0.000167827
0.00015645
0.000146265
0.000137105
0.000128828
0.000121319
0.000114478
0.000108223
0.000102484
9.72001e-05
9.23206e-05
8.78017e-05
8.36053e-05
7.96987e-05
7.60533e-05
7.26443e-05
6.94498e-05
6.64507e-05
6.363e-05
6.09727e-05
5.84655e-05
5.60963e-05
5.38546e-05
5.17308e-05
4.97161e-05
4.78028e-05
4.59838e-05
4.42526e-05
4.26034e-05
4.10308e-05
3.953e-05
3.80964e-05
3.67258e-05
3.54146e-05
3.4159e-05
3.2956e-05
3.18025e-05
3.06958e-05
2.96331e-05
2.86122e-05
2.76308e-05
2.66867e-05
2.57782e-05
2.49032e-05
2.40602e-05
2.32475e-05
2.24637e-05
2.17073e-05
2.09771e-05
2.02717e-05
1.95901e-05
1.89312e-05
1.82938e-05
1.76771e-05
1.70801e-05
1.6502e-05
1.59419e-05
1.53991e-05
1.48729e-05
1.43625e-05
1.38672e-05
1.33866e-05
1.29199e-05
1.24667e-05
1.20263e-05
1.15984e-05
1.11823e-05
1.07777e-05
1.03841e-05
1.00011e-05
9.62826e-06
9.26529e-06
8.91178e-06
8.5674e-06
8.23182e-06
7.90473e-06
7.58583e-06
7.27483e-06
6.97145e-06
6.67545e-06
6.38658e-06
6.10458e-06
5.82924e-06
5.56033e-06
5.29764e-06
5.04097e-06
4.79013e-06
4.54493e-06
4.3052e-06
4.07076e-06
3.84144e-06
3.6171e-06
3.39757e-06
3.18271e-06
2.97239e-06
2.76646e-06
2.56479e-06
2.36727e-06
2.17376e-06
1.98416e-06
1.79835e-06
1.61622e-06
1.43767e-06
1.2626e-06
1.09091e-06
9.22513e-07
7.5731e-07
5.95218e-07
4.36156e-07
2.80038e-07
1.26787e-07
-2.36727e-08
-1.71415e-07
-3.1651e-07
-4.59024e-07
-5.99024e-07
-7.36573e-07
-8.71736e-07
-1.00457e-06
-1.13514e-06
-1.2635e-06
-1.3897e-06
-1.51379e-06
-1.63583e-06
-1.75586e-06
-1.87393e-06
-1.9901e-06
-2.10439e-06
-2.21687e-06
-2.32757e-06
-2.43653e-06
-2.54379e-06
-2.64939e-06
-2.75338e-06
-2.85578e-06
-2.95663e-06
-3.05597e-06
-3.15383e-06
-3.25025e-06
-3.34525e-06
-3.43886e-06
-3.53113e-06
-3.62207e-06
-3.71173e-06
-3.80012e-06
-3.88728e-06
-3.97324e-06
-4.05801e-06
-4.14165e-06
-4.22416e-06
-4.30558e-06
-4.38595e-06
-4.46528e-06
-4.54361e-06
-4.62098e-06
-4.69742e-06
-4.77295e-06
-4.84762e-06
-4.92146e-06
-4.99451e-06
-5.06682e-06
-5.13841e-06
-5.20934e-06
-5.27965e-06
-5.34939e-06
-5.4186e-06
-5.48733e-06
-5.55563e-06
-5.62356e-06
-5.69116e-06
-5.75848e-06
-5.82557e-06
-5.89247e-06
-5.95923e-06
-6.0259e-06
-6.09251e-06
-6.15911e-06
-6.22573e-06
-6.29239e-06
-6.35913e-06
-6.42598e-06
-6.49294e-06
-6.56003e-06
-6.62727e-06
-6.69466e-06
-6.76219e-06
-6.82987e-06
-6.89769e-06
-6.96564e-06
-7.03369e-06
-7.10184e-06
-7.17007e-06
-7.23834e-06
-7.30662e-06
-7.3749e-06
-7.44315e-06
-7.51132e-06
-7.57939e-06
-7.64733e-06
-7.71511e-06
-7.78269e-06
-7.85005e-06
-7.91714e-06
-7.98395e-06
-8.05045e-06
-8.11659e-06
-8.18237e-06
-8.24775e-06
-8.31271e-06
-8.37722e-06
-8.44126e-06
-8.50483e-06
-8.56788e-06
-8.63042e-06
-8.6924e-06
-8.75384e-06
-8.8147e-06
-8.87497e-06
-8.93464e-06
-8.9937e-06
-9.05213e-06
-9.10992e-06
-9.16706e-06
-9.22354e-06
-9.27934e-06
-9.33447e-06
-9.3889e-06
-9.44263e-06
-9.49564e-06
-9.54794e-06
-9.59951e-06
-9.65035e-06
-9.70045e-06
-9.7498e-06
-9.7984e-06
-9.84625e-06
-9.89333e-06
-9.93965e-06
-9.9852e-06
-1.003e-05
-1.0074e-05
-1.01172e-05
-1.01596e-05
-1.02013e-05
-1.02422e-05
-1.02822e-05
-1.03215e-05
-1.03601e-05
-1.03978e-05
-1.04348e-05
-1.0471e-05
-1.05064e-05
-1.0541e-05
-1.05749e-05
-1.0608e-05
-1.06403e-05
-1.06719e-05
-1.07027e-05
-1.07328e-05
-1.07621e-05
-1.07906e-05
-1.08185e-05
-1.08456e-05
-1.0872e-05
-1.08977e-05
-1.09226e-05
-1.09469e-05
-1.09705e-05
-1.09934e-05
-1.10156e-05
-1.10371e-05
-1.10579e-05
-1.10781e-05
-1.10977e-05
-1.11165e-05
-1.11348e-05
-1.11524e-05
-1.11694e-05
-1.11858e-05
-1.12015e-05
-1.12167e-05
-1.12313e-05
-1.12453e-05
-1.12588e-05
-1.12717e-05
-1.12841e-05
-1.12959e-05
-1.13072e-05
-1.13181e-05
-1.13284e-05
-1.13383e-05
-1.13477e-05
-1.13567e-05
-1.13651e-05
-1.13731e-05
-1.13807e-05
-1.13878e-05
-1.13944e-05
-1.14005e-05
-1.14061e-05
-1.14113e-05
-1.1416e-05
-1.14203e-05
-1.14241e-05
-1.14274e-05
-1.14304e-05
-1.14329e-05
-1.14352e-05
-1.14371e-05
-1.14387e-05
-1.144e-05
-1.14411e-05
-1.14421e-05
-1.14428e-05
-1.14435e-05
-1.1444e-05
-1.14444e-05
-1.14448e-05
-1.14451e-05
-1.14453e-05
-1.14455e-05
-1.14457e-05
-1.14459e-05
-1.1446e-05
-1.14462e-05
-1.14463e-05
-1.14464e-05
-1.14465e-05
-1.14467e-05
-1.14468e-05
-1.14469e-05
-1.1447e-05
-1.14471e-05
-1.14473e-05
-1.14474e-05
-1.14475e-05
-1.14477e-05
-1.14478e-05
-1.14479e-05
-1.14481e-05
-1.14482e-05
-1.14483e-05
-1.14485e-05
-1.14486e-05
-1.14487e-05
-1.14489e-05
-1.1449e-05
-1.14492e-05
-1.14493e-05
-1.14494e-05
-1.14496e-05
-1.14497e-05
-1.14498e-05
-1.145e-05
-1.14501e-05
-1.14502e-05
-1.14504e-05
-1.14505e-05
-1.14506e-05
-1.14508e-05
-1.14509e-05
-1.1451e-05
-1.14512e-05
-1.14513e-05
-1.14514e-05
-1.14516e-05
-1.14517e-05
-1.14518e-05
-1.1452e-05
-1.14521e-05
-1.14522e-05
-1.14524e-05
-1.14525e-05
-1.14526e-05
-1.14528e-05
-1.14529e-05
-1.14531e-05
-1.14532e-05
-1.14533e-05
-1.14535e-05
-1.14536e-05
-1.14537e-05
-1.14539e-05
-1.1454e-05
-1.14541e-05
-1.14543e-05
-1.14544e-05
-1.14545e-05
-1.14547e-05
-1.14548e-05
-1.14549e-05
-1.14551e-05
-1.14552e-05
-1.14554e-05
-1.14555e-05
-1.14556e-05
-1.14558e-05
-1.14559e-05
-1.1456e-05
-1.14562e-05
-1.14563e-05
-1.14564e-05
-1.14566e-05
-1.14567e-05
-1.14568e-05
-1.1457e-05
-1.14571e-05
-1.14572e-05
-1.14574e-05
-1.14575e-05
-1.14577e-05
-1.14578e-05
-1.14579e-05
-1.14581e-05
-1.14582e-05
-1.14583e-05
-1.14585e-05
-1.14586e-05
-1.14587e-05
-1.14589e-05
-1.1459e-05
-1.14591e-05
-1.14593e-05
-1.14594e-05
-1.14596e-05
-1.14597e-05
-1.14598e-05
-1.146e-05
-1.14601e-05
-1.14602e-05
-1.14604e-05
-1.14605e-05
-1.14606e-05
-1.14608e-05
-1.14609e-05
-1.1461e-05
-1.14612e-05
-1.14613e-05
-1.14614e-05
-1.14616e-05
-1.14617e-05
-1.14619e-05
-1.1462e-05
-1.14621e-05
-1.14623e-05
-1.14624e-05
-1.14625e-05
-1.14627e-05
-1.14628e-05
-1.14629e-05
-1.14631e-05
-1.14632e-05
-1.14634e-05
-1.14635e-05
-1.14636e-05
-1.14638e-05
-1.14639e-05
-1.1464e-05
-1.14642e-05
-1.14643e-05
-1.14644e-05
-1.14646e-05
-1.14647e-05
-1.14649e-05
-1.1465e-05
-1.14651e-05
-1.14653e-05
-1.14654e-05
-1.14655e-05
-1.14657e-05
-1.14658e-05
-1.14659e-05
-1.14661e-05
-1.14662e-05
-1.14664e-05
-1.14665e-05
-1.14666e-05
-1.14668e-05
-1.14669e-05
-1.1467e-05
-1.14672e-05
-1.14673e-05
-1.14675e-05
-1.14676e-05
-1.14677e-05
-1.14679e-05
-1.1468e-05
-1.14681e-05
-1.14683e-05
-1.14684e-05
-1.14686e-05
-1.14687e-05
-1.14688e-05
-1.1469e-05
-1.14691e-05
-1.14692e-05
-1.14694e-05
-1.14695e-05
-1.14696e-05
-1.14698e-05
-1.14699e-05
-1.14701e-05
-1.14702e-05
-1.14703e-05
-1.14705e-05
-1.14706e-05
-1.14707e-05
-1.14709e-05
-1.1471e-05
-1.14712e-05
-1.14713e-05
-1.14714e-05
-1.14716e-05
-1.14717e-05
-1.14718e-05
-1.1472e-05
-1.14721e-05
-1.14723e-05
-1.14724e-05
-1.14725e-05
-1.14727e-05
-1.14728e-05
-1.14729e-05
-1.14731e-05
-1.14732e-05
-1.14734e-05
-1.14735e-05
-1.14736e-05
-1.14738e-05
-1.14739e-05
-1.1474e-05
-1.14742e-05
-1.14743e-05
-1.14745e-05
-1.14746e-05
-1.14747e-05
-1.14749e-05
-1.1475e-05
-1.14752e-05
-1.14753e-05
-1.14754e-05
-1.14756e-05
-1.14757e-05
-1.14758e-05
-1.1476e-05
-1.14761e-05
-1.14763e-05
-1.14764e-05
-1.14765e-05
-1.14767e-05
-1.14768e-05
-1.14769e-05
-1.14771e-05
-1.14772e-05
-1.14774e-05
-1.14775e-05
-1.14776e-05
-1.14778e-05
-1.14779e-05
-1.14781e-05
-1.14782e-05
-1.14783e-05
-1.14785e-05
-1.14786e-05
-1.14787e-05
-1.14789e-05
-1.1479e-05
-1.14792e-05
-1.14793e-05
-1.14794e-05
-1.14796e-05
-1.14797e-05
-1.14799e-05
-1.148e-05
-1.14801e-05
-1.14803e-05
-1.14804e-05
-1.14805e-05
-1.14807e-05
-1.14808e-05
-1.1481e-05
-1.14811e-05
-1.14812e-05
-1.14814e-05
-1.14815e-05
-1.14817e-05
-1.14818e-05
-1.14819e-05
-1.14821e-05
-1.14822e-05
-1.14823e-05
-1.14825e-05
-1.14826e-05
-1.14828e-05
-1.14829e-05
-1.1483e-05
-1.14832e-05
-1.14833e-05
-1.14835e-05
-1.14836e-05
-1.14837e-05
-1.14839e-05
-1.1484e-05
-1.14842e-05
-1.14843e-05
-1.14844e-05
-1.14846e-05
-1.14847e-05
-1.14849e-05
-1.1485e-05
-1.14851e-05
-1.14853e-05
-1.14854e-05
-1.14855e-05
-1.14857e-05
-1.14858e-05