# vtk DataFile Version 2.0
FlowField
ASCII
DATASET STRUCTURED_GRID
DIMENSIONS 800 1 200
POINTS 160000 float
0 0 0
0.04 0 0
0.08 0 0
0.12 0 0
0.16 0 0
0.2 0 0
0.24 0 0
0.28 0 0
0.32 0 0
0.36 0 0
0.4 0 0
0.44 0 0
0.48 0 0
0.52 0 0
0.56 0 0
0.6 0 0
0.64 0 0
0.68 0 0
0.72 0 0
0.76 0 0
0.8 0 0
0.84 0 0
0.88 0 0
0.92 0 0
0.96 0 0
1 0 0
1.04 0 0
1.08 0 0
1.12 0 0
1.16 0 0
1.2 0 0
1.24 0 0
1.28 0 0
1.32 0 0
1.36 0 0
1.4 0 0
1.44 0 0
1.48 0 0
1.52 0 0
1.56 0 0
1.6 0 0
1.64 0 0
1.68 0 0
1.72 0 0
1.76 0 0
1.8 0 0
1.84 0 0
1.88 0 0
1.92 0 0
1.96 0 0
2 0 0
2.04 0 0
2.08 0 0
2.12 0 0
2.16 0 0
2.2 0 0
2.24 0 0
2.28 0 0
2.32 0 0
2.36 0 0
2.4 0 0
2.44 0 0
2.48 0 0
2.52 0 0
2.56 0 0
2.6 0 0
2.64 0 0
2.68 0 0
2.72 0 0
2.76 0 0
2.8 0 0
2.84 0 0
2.88 0 0
2.92 0 0
2.96 0 0
3 0 0
3.04 0 0
3.08 0 0
3.12 0 0
3.16 0 0
3.2 0 0
3.24 0 0
3.28 0 0
3.32 0 0
3.36 0 0
3.4 0 0
3.44 0 0
3.48 0 0
3.52 0 0
3.56 0 0
3.6 0 0
3.64 0 0
3.68 0 0
3.72 0 0
3.76 0 0
3.8 0 0
3.84 0 0
3.88 0 0
3.92 0 0
3.96 0 0
4 0 0
4.04 0 0
4.08 0 0
4.12 0 0
4.16 0 0
4.2 0 0
4.24 0 0
4.28 0 0
4.32 0 0
4.36 0 0
4.4 0 0
4.44 0 0
4.48 0 0
4.52 0 0
4.56 0 0
4.6 0 0
4.64 0 0
4.68 0 0
4.72 0 0
4.76 0 0
4.8 0 0
4.84 0 0
4.88 0 0
4.92 0 0
4.96 0 0
5 0 0
5.04 0 0
5.08 0 0
5.12 0 0
5.16 0 0
5.2 0 0
5.24 0 0
5.28 0 0
5.32 0 0
5.36 0 0
5.4 0 0
5.44 0 0
5.48 0 0
5.52 0 0
5.56 0 0
5.6 0 0
5.64 0 0
5.68 0 0
5.72 0 0
5.76 0 0
5.8 0 0
5.84 0 0
5.88 0 0
5.92 0 0
5.96 0 0
6 0 0
6.04 0 0
6.08 0 0
6.12 0 0
6.16 0 0
6.2 0 0
6.24 0 0
6.28 0 0
6.32 0 0
6.36 0 0
6.4 0 0
6.44 0 0
6.48 0 0
6.52 0 0
6.56 0 0
6.6 0 0
6.64 0 0
6.68 0 0
6.72 0 0
6.76 0 0
6.8 0 0
6.84 0 0
6.88 0 0
6.92 0 0
6.96 0 0
7 0 0
7.04 0 0
7.08 0 0
7.12 0 0
7.16 0 0
7.2 0 0
7.24 0 0
7.28 0 0
7.32 0 0
7.36 0 0
7.4 0 0
7.44 0 0
7.48 0 0
7.52 0 0
7.56 0 0
7.6 0 0
7.64 0 0
7.68 0 0
7.72 0 0
7.76 0 0
7.8 0 0
7.84 0 0
7.88 0 0
7.92 0 0
7.96 0 0
8 0 0
8.04 0 0
8.08 0 0
8.12 0 0
8.16 0 0
8.2 0 0
8.24 0 0
8.28 0 0
8.32 0 0
8.36 0 0
8.4 0 0
8.44 0 0
8.48 0 0
8.52 0 0
8.56 0 0
8.6 0 0
8.64 0 0
8.68 0 0
8.72 0 0
8.76 0 0
8.8 0 0
8.84 0 0
8.88 0 0
8.92 0 0
8.96 0 0
9 0 0
9.04 0 0
9.08 0 0
9.12 0 0
9.16 0 0
9.2 0 0
9.24 0 0
9.28 0 0
9.32 0 0
9.36 0 0
9.4 0 0
9.44 0 0
9.48 0 0
9.52 0 0
9.56 0 0
9.6 0 0
9.64 0 0
9.68 0 0
9.72 0 0
9.76 0 0
9.8 0 0
9.84 0 0
9.88 0 0
9.92 0 0
9.96 0 0
10 0 0
10.04 0 0
10.08 0 0
10.12 0 0
10.16 0 0
10.2 0 0
10.24 0 0
10.28 0 0
10.32 0 0
10.36 0 0
10.4 0 0
10.44 0 0
10.48 0 0
10.52 0 0
10.56 0 0
10.6 0 0
10.64 0 0
10.68 0 0
10.72 0 0
10.76 0 0
10.8 0 0
10.84 0 0
10.88 0 0
10.92 0 0
10.96 0 0
11 0 0
11.04 0 0
11.08 0 0
11.12 0 0
11.16 0 0
11.2 0 0
11.24 0 0
11.28 0 0
11.32 0 0
11.36 0 0
11.4 0 0
11.44 0 0
11.48 0 0
11.52 0 0
11.56 0 0
11.6 0 0
11.64 0 0
11.68 0 0
11.72 0 0
11.76 0 0
11.8 0 0
11.84 0 0
11.88 0 0
11.92 0 0
11.96 0 0
12 0 0
12.04 0 0
12.08 0 0
12.12 0 0
12.16 0 0
12.2 0 0
12.24 0 0
12.28 0 0
12.32 0 0
12.36 0 0
12.4 0 0
12.44 0 0
12.48 0 0
12.52 0 0
12.56 0 0
12.6 0 0
12.64 0 0
12.68 0 0
12.72 0 0
12.76 0 0
12.8 0 0
12.84 0 0
12.88 0 0
12.92 0 0
12.96 0 0
13 0 0
13.04 0 0
13.08 0 0
13.12 0 0
13.16 0 0
13.2 0 0
13.24 0 0
13.28 0 0
13.32 0 0
13.36 0 0
13.4 0 0
13.44 0 0
13.48 0 0
13.52 0 0
13.56 0 0
13.6 0 0
13.64 0 0
13.68 0 0
13.72 0 0
13.76 0 0
13.8 0 0
13.84 0 0
13.88 0 0
13.92 0 0
13.96 0 0
14 0 0
14.04 0 0
14.08 0 0
14.12 0 0
14.16 0 0
14.2 0 0
14.24 0 0
14.28 0 0
14.32 0 0
14.36 0 0
14.4 0 0
14.44 0 0
14.48 0 0
14.52 0 0
14.56 0 0
14.6 0 0
14.64 0 0
14.68 0 0
14.72 0 0
14.76 0 0
14.8 0 0
14.84 0 0
14.88 0 0
14.92 0 0
14.96 0 0
15 0 0
15.04 0 0
15.08 0 0
15.12 0 0
15.16 0 0
15.2 0 0
15.24 0 0
15.28 0 0
15.32 0 0
15.36 0 0
15.4 0 0
15.44 0 0
15.48 0 0
15.52 0 0
15.56 0 0
15.6 0 0
15.64 0 0
15.68 0 0
15.72 0 0
15.76 0 0
15.8 0 0
15.84 0 0
15.88 0 0
15.92 0 0
15.96 0 0
16 0 0
16.04 0 0
16.08 0 0
16.12 0 0
16.16 0 0
16.2 0 0
16.24 0 0
16.28 0 0
16.32 0 0
16.36 0 0
16.4 0 0
16.44 0 0
16.48 0 0
16.52 0 0
16.56 0 0
16.6 0 0
16.64 0 0
16.68 0 0
16.72 0 0
16.76 0 0
16.8 0 0
16.84 0 0
16.88 0 0
16.92 0 0
16.96 0 0
17 0 0
17.04 0 0
17.08 0 0
17.12 0 0
17.16 0 0
17.2 0 0
17.24 0 0
17.28 0 0
17.32 0 0
17.36 0 0
17.4 0 0
17.44 0 0
17.48 0 0
17.52 0 0
17.56 0 0
17.6 0 0
17.64 0 0
17.68 0 0
17.72 0 0
17.76 0 0
17.8 0 0
17.84 0 0
17.88 0 0
17.92 0 0
17.96 0 0
18 0 0
18.04 0 0
18.08 0 0
18.12 0 0
18.16 0 0
18.2 0 0
18.24 0 0
18.28 0 0
18.32 0 0
18.36 0 0
18.4 0 0
18.44 0 0
18.48 0 0
18.52 0 0
18.56 0 0
18.6 0 0
18.64 0 0
18.68 0 0
18.72 0 0
18.76 0 0
18.8 0 0
18.84 0 0
18.88 0 0
18.92 0 0
18.96 0 0
19 0 0
19.04 0 0
19.08 0 0
19.12 0 0
19.16 0 0
19.2 0 0
19.24 0 0
19.28 0 0
19.32 0 0
19.36 0 0
19.4 0 0
19.44 0 0
19.48 0 0
19.52 0 0
19.56 0 0
19.6 0 0
19.64 0 0
19.68 0 0
19.72 0 0
19.76 0 0
19.8 0 0
19.84 0 0
19.88 0 0
19.92 0 0
19.96 0 0
20 0 0
20.04 0 0
20.08 0 0
20.12 0 0
20.16 0 0
20.2 0 0
20.24 0 0
20.28 0 0
20.32 0 0
20.36 0 0
20.4 0 0
20.44 0 0
20.48 0 0
20.52 0 0
20.56 0 0
20.6 0 0
20.64 0 0
20.68 0 0
20.72 0 0
20.76 0 0
20.8 0 0
20.84 0 0
20.88 0 0
20.92 0 0
20.96 0 0
21 0 0
21.04 0 0
21.08 0 0
21.12 0 0
21.16 0 0
21.2 0 0
21.24 0 0
21.28 0 0
21.32 0 0
21.36 0 0
21.4 0 0
21.44 0 0
21.48 0 0
21.52 0 0
21.56 0 0
21.6 0 0
21.64 0 0
21.68 0 0
21.72 0 0
21.76 0 0
21.8 0 0
21.84 0 0
21.88 0 0
21.92 0 0
21.96 0 0
22 0 0
22.04 0 0
22.08 0 0
22.12 0 0
22.16 0 0
22.2 0 0
22.24 0 0
22.28 0 0
22.32 0 0
22.36 0 0
22.4 0 0
22.44 0 0
22.48 0 0
22.52 0 0
22.56 0 0
22.6 0 0
22.64 0 0
22.68 0 0
22.72 0 0
22.76 0 0
22.8 0 0
22.84 0 0
22.88 0 0
22.92 0 0
22.96 0 0
23 0 0
23.04 0 0
23.08 0 0
23.12 0 0
23.16 0 0
23.2 0 0
23.24 0 0
23.28 0 0
23.32 0 0
23.36 0 0
23.4 0 0
23.44 0 0
23.48 0 0
23.52 0 0
23.56 0 0
23.6 0 0
23.64 0 0
23.68 0 0
23.72 0 0
23.76 0 0
23.8 0 0
23.84 0 0
23.88 0 0
23.92 0 0
23.96 0 0
24 0 0
24.04 0 0
24.08 0 0
24.12 0 0
24.16 0 0
24.2 0 0
24.24 0 0
24.28 0 0
24.32 0 0
24.36 0 0
24.4 0 0
24.44 0 0
24.48 0 0
24.52 0 0
24.56 0 0
24.6 0 0
24.64 0 0
24.68 0 0
24.72 0 0
24.76 0 0
24.8 0 0
24.84 0 0
24.88 0 0
24.92 0 0
24.96 0 0
25 0 0
25.04 0 0
25.08 0 0
25.12 0 0
25.16 0 0
25.2 0 0
25.24 0 0
25.28 0 0
25.32 0 0
25.36 0 0
25.4 0 0
25.44 0 0
25.48 0 0
25.52 0 0
25.56 0 0
25.6 0 0
25.64 0 0
25.68 0 0
25.72 0 0
25.76 0 0
25.8 0 0
25.84 0 0
25.88 0 0
25.92 0 0
25.96 0 0
26 0 0
26.04 0 0
26.08 0 0
26.12 0 0
26.16 0 0
26.2 0 0
26.24 0 0
26.28 0 0
26.32 0 0
26.36 0 0
26.4 0 0
26.44 0 0
26.48 0 0
26.52 0 0
26.56 0 0
26.6 0 0
26.64 0 0
26.68 0 0
26.72 0 0
26.76 0 0
26.8 0 0
26.84 0 0
26.88 0 0
26.92 0 0
26.96 0 0
27 0 0
27.04 0 0
27.08 0 0
27.12 0 0
27.16 0 0
27.2 0 0
27.24 0 0
27.28 0 0
27.32 0 0
27.36 0 0
27.4 0 0
27.44 0 0
27.48 0 0
27.52 0 0
27.56 0 0
27.6 0 0
27.64 0 0
27.68 0 0
27.72 0 0
27.76 0 0
27.8 0 0
27.84 0 0
27.88 0 0
27.92 0 0
27.96 0 0
28 0 0
28.04 0 0
28.08 0 0
28.12 0 0
28.16 0 0
28.2 0 0
28.24 0 0
28.28 0 0
28.32 0 0
28.36 0 0
28.4 0 0
28.44 0 0
28.48 0 0
28.52 0 0
28.56 0 0
28.6 0 0
28.64 0 0
28.68 0 0
28.72 0 0
28.76 0 0
28.8 0 0
28.84 0 0
28.88 0 0
28.92 0 0
28.96 0 0
29 0 0
29.04 0 0
29.08 0 0
29.12 0 0
29.16 0 0
29.2 0 0
29.24 0 0
29.28 0 0
29.32 0 0
29.36 0 0
29.4 0 0
29.44 0 0
29.48 0 0
29.52 0 0
29.56 0 0
29.6 0 0
29.64 0 0
29.68 0 0
29.72 0 0
29.76 0 0
29.8 0 0
29.84 0 0
29.88 0 0
29.92 0 0
29.96 0 0
30 0 0
30.04 0 0
30.08 0 0
30.12 0 0
30.16 0 0
30.2 0 0
30.24 0 0
30.28 0 0
30.32 0 0
30.36 0 0
30.4 0 0
30.44 0 0
30.48 0 0
30.52 0 0
30.56 0 0
30.6 0 0
30.64 0 0
30.68 0 0
30.72 0 0
30.76 0 0
30.8 0 0
30.84 0 0
30.88 0 0
30.92 0 0
30.96 0 0
31 0 0
31.04 0 0
31.08 0 0
31.12 0 0
31.16 0 0
31.2 0 0
31.24 0 0
31.28 0 0
31.32 0 0
31.36 0 0
31.4 0 0
31.44 0 0
31.48 0 0
31.52 0 0
31.56 0 0
31.6 0 0
31.64 0 0
31.68 0 0
31.72 0 0
31.76 0 0
31.8 0 0
31.84 0 0
31.88 0 0
31.92 0 0
31.96 0 0
0 0.005 0
0.04 0.005 0
0.08 0.005 0
0.12 0.005 0
0.16 0.005 0
0.2 0.005 0
0.24 0.005 0
0.28 0.005 0
0.32 0.005 0
0.36 0.005 0
0.4 0.005 0
0.44 0.005 0
0.48 0.005 0
0.52 0.005 0
0.56 0.005 0
0.6 0.005 0
0.64 0.005 0
0.68 0.005 0
0.72 0.005 0
0.76 0.005 0
0.8 0.005 0
0.84 0.005 0
0.88 0.005 0
0.92 0.005 0
0.96 0.005 0
1 0.005 0
1.04 0.005 0
1.08 0.005 0
1.12 0.005 0
1.16 0.005 0
1.2 0.005 0
1.24 0.005 0
1.28 0.005 0
1.32 0.005 0
1.36 0.005 0
1.4 0.005 0
1.44 0.005 0
1.48 0.005 0
1.52 0.005 0
1.56 0.005 0
1.6 0.005 0
1.64 0.005 0
1.68 0.005 0
1.72 0.005 0
1.76 0.005 0
1.8 0.005 0
1.84 0.005 0
1.88 0.005 0
1.92 0.005 0
1.96 0.005 0
2 0.005 0
2.04 0.005 0
2.08 0.005 0
2.12 0.005 0
2.16 0.005 0
2.2 0.005 0
2.24 0.005 0
2.28 0.005 0
2.32 0.005 0
2.36 0.005 0
2.4 0.005 0
2.44 0.005 0
2.48 0.005 0
2.52 0.005 0
2.56 0.005 0
2.6 0.005 0
2.64 0.005 0
2.68 0.005 0
2.72 0.005 0
2.76 0.005 0
2.8 0.005 0
2.84 0.005 0
2.88 0.005 0
2.92 0.005 0
2.96 0.005 0
3 0.005 0
3.04 0.005 0
3.08 0.005 0
3.12 0.005 0
3.16 0.005 0
3.2 0.005 0
3.24 0.005 0
3.28 0.005 0
3.32 0.005 0
3.36 0.005 0
3.4 0.005 0
3.44 0.005 0
3.48 0.005 0
3.52 0.005 0
3.56 0.005 0
3.6 0.005 0
3.64 0.005 0
3.68 0.005 0
3.72 0.005 0
3.76 0.005 0
3.8 0.005 0
3.84 0.005 0
3.88 0.005 0
3.92 0.005 0
3.96 0.005 0
4 0.005 0
4.04 0.005 0
4.08 0.005 0
4.12 0.005 0
4.16 0.005 0
4.2 0.005 0
4.24 0.005 0
4.28 0.005 0
4.32 0.005 0
4.36 0.005 0
4.4 0.005 0
4.44 0.005 0
4.48 0.005 0
4.52 0.005 0
4.56 0.005 0
4.6 0.005 0
4.64 0.005 0
4.68 0.005 0
4.72 0.005 0
4.76 0.005 0
4.8 0.005 0
4.84 0.005 0
4.88 0.005 0
4.92 0.005 0
4.96 0.005 0
5 0.005 0
5.04 0.005 0
5.08 0.005 0
5.12 0.005 0
5.16 0.005 0
5.2 0.005 0
5.24 0.005 0
5.28 0.005 0
5.32 0.005 0
5.36 0.005 0
5.4 0.005 0
5.44 0.005 0
5.48 0.005 0
5.52 0.005 0
5.56 0.005 0
5.6 0.005 0
5.64 0.005 0
5.68 0.005 0
5.72 0.005 0
5.76 0.005 0
5.8 0.005 0
5.84 0.005 0
5.88 0.005 0
5.92 0.005 0
5.96 0.005 0
6 0.005 0
6.04 0.005 0
6.08 0.005 0
6.12 0.005 0
6.16 0.005 0
6.2 0.005 0
6.24 0.005 0
6.28 0.005 0
6.32 0.005 0
6.36 0.005 0
6.4 0.005 0
6.44 0.005 0
6.48 0.005 0
6.52 0.005 0
6.56 0.005 0
6.6 0.005 0
6.64 0.005 0
6.68 0.005 0
6.72 0.005 0
6.76 0.005 0
6.8 0.005 0
6.84 0.005 0
6.88 0.005 0
6.92 0.005 0
6.96 0.005 0
7 0.005 0
7.04 0.005 0
7.08 0.005 0
7.12 0.005 0
7.16 0.005 0
7.2 0.005 0
7.24 0.005 0
7.28 0.005 0
7.32 0.005 0
7.36 0.005 0
7.4 0.005 0
[...]
POINT_DATA 160000

SCALARS p float 1
LOOKUP_TABLE default
1
77.5451
75.3297
75.0748
75.0146
74.9882
74.9722
74.9606
74.9514
74.9435
74.9366
74.9302
74.9243
74.9188
74.9135
74.9083
74.9034
74.8986
74.8938
74.8892
74.8847
74.8802
74.8758
74.8715
74.8672
74.863
74.8588
74.8547
74.8507
74.8467
74.8427
74.8388
74.8349
74.8311
74.8273
74.8235
74.8198
74.8161
74.8125
74.8089
74.8054
74.8018
74.7983
74.7949
74.7914
74.788
74.7847
74.7813
74.778
74.7748
74.7715
74.7683
74.7651
74.7619
74.7588
74.7556
74.7525
74.7495
74.7464
74.7434
74.7404
74.7374
74.7344
74.7314
74.7285
74.7256
74.7227
74.7198
74.717
74.7141
74.7113
74.7085
74.7057
74.7029
74.7002
74.6974
74.6947
74.692
74.6893
74.6866
74.6839
74.6813
74.6786
74.676
74.6734
74.6708
74.6682
74.6656
74.6631
74.6605
74.658
74.6554
74.6529
74.6504
74.6479
74.6454
74.6429
74.6405
74.638
74.6356
74.6331
74.6307
74.6283
74.6259
74.6235
74.6211
74.6187
74.6164
74.614
74.6116
74.6093
74.607
74.6046
74.6023
74.6
74.5977
74.5954
74.5931
74.5909
74.5886
74.5863
74.5841
74.5818
74.5796
74.5773
74.5751
74.5729
74.5707
74.5685
74.5663
74.5641
74.5619
74.5597
74.5575
74.5554
74.5532
74.551
74.5489
74.5467
74.5446
74.5425
74.5403
74.5382
74.5361
74.534
74.5319
74.5298
74.5277
74.5256
74.5235
74.5215
74.5194
74.5173
74.5153
74.5132
74.5112
74.5091
74.5071
74.505
74.503
74.501
74.4989
74.4969
74.4949
74.4929
74.4909
74.4889
74.4869
74.4849
74.4829
74.4809
74.479
74.477
74.475
74.473
74.4711
74.4691
74.4672
74.4652
74.4633
74.4613
74.4594
74.4574
74.4555
74.4536
74.4517
74.4497
74.4478
74.4459
74.444
74.4421
74.4402
74.4383
74.4364
74.4345
74.4326
74.4307
74.4288
74.4269
74.4251
74.4232
74.4213
74.4194
74.4176
74.4157
74.4138
74.412
74.4101
74.4083
74.4064
74.4046
74.4027
74.4009
74.3991
74.3972
74.3954
74.3936
74.3917
74.3899
74.3881
74.3863
74.3845
74.3826
74.3808
74.379
74.3772
74.3754
74.3736
74.3718
74.37
74.3682
74.3664
74.3646
74.3628
74.3611
74.3593
74.3575
74.3557
74.3539
74.3522
74.3504
74.3486
74.3469
74.3451
74.3433
74.3416
74.3398
74.338
74.3363
74.3345
74.3328
74.331
74.3293
74.3275
74.3258
74.324
74.3223
74.3206
74.3188
74.3171
74.3153
74.3136
74.3119
74.3102
74.3084
74.3067
74.305
74.3033
74.3015
74.2998
74.2981
74.2964
74.2947
74.293
74.2912
74.2895
74.2878
74.2861
74.2844
74.2827
74.281
74.2793
74.2776
74.2759
74.2742
74.2725
74.2708
74.2691
74.2674
74.2657
74.264
74.2624
74.2607
74.259
74.2573
74.2556
74.2539
74.2523
74.2506
74.2489
74.2472
74.2455
74.2439
74.2422
74.2405
74.2389
74.2372
74.2355
74.2338
74.2322
74.2305
74.2288
74.2272
74.2255
74.2239
74.2222
74.2205
74.2189
74.2172
74.2156
74.2139
74.2123
74.2106
74.209
74.2073
74.2057
74.204
74.2024
74.2007
74.1991
74.1974
74.1958
74.1941
74.1925
74.1908
74.1892
74.1876
74.1859
74.1843
74.1826
74.181
74.1794
74.1777
74.1761
74.1745
74.1728
74.1712
74.1696
74.1679
74.1663
74.1647
74.163
74.1614
74.1598
74.1582
74.1565
74.1549
74.1533
74.1517
74.15
74.1484
74.1468
74.1452
74.1435
74.1419
74.1403
74.1387
74.1371
74.1354
74.1338
74.1322
74.1306
74.129
74.1274
74.1258
74.1241
74.1225
74.1209
74.1193
74.1177
74.1161
74.1145
74.1129
74.1112
74.1096
74.108
74.1064
74.1048
74.1032
74.1016
74.1
74.0984
74.0968
74.0952
74.0936
74.092
74.0904
74.0888
74.0872
74.0856
74.084
74.0824
74.0808
74.0792
74.0776
74.076
74.0744
74.0728
74.0712
74.0696
74.068
74.0664
74.0648
74.0632
74.0616
74.06
74.0584
74.0568
74.0552
74.0536
74.052
74.0505
74.0489
74.0473
74.0457
74.0441
74.0425
74.0409
74.0393
74.0377
74.0361
74.0346
74.033
74.0314
74.0298
74.0282
74.0266
74.025
74.0234
74.0219
74.0203
74.0187
74.0171
74.0155
74.0139
74.0124
74.0108
74.0092
74.0076
74.006
74.0044
74.0029
74.0013
73.9997
73.9981
73.9965
73.9949
73.9934
73.9918
73.9902
73.9886
73.9871
73.9855
73.9839
73.9823
73.9807
73.9792
73.9776
73.976
73.9744
73.9728
73.9713
73.9697
73.9681
73.9665
73.965
73.9634
73.9618
73.9602
73.9587
73.9571
73.9555
73.9539
73.9524
73.9508
73.9492
73.9476
73.9461
73.9445
73.9429
73.9414
73.9398
73.9382
73.9366
73.9351
73.9335
73.9319
73.9304
73.9288
73.9272
73.9256
73.9241
73.9225
73.9209
73.9194
73.9178
73.9162
73.9146
73.9131
73.9115
73.9099
73.9084
73.9068
73.9052
73.9037
73.9021
73.9005
73.899
73.8974
73.8958
73.8943
73.8927
73.8911
73.8896
73.888
73.8864
73.8849
73.8833
73.8817
73.8802
73.8786
73.877
73.8755
73.8739
73.8723
73.8708
73.8692
73.8676
73.8661
73.8645
73.8629
73.8614
73.8598
73.8583
73.8567
73.8551
73.8536
73.852
73.8504
73.8489
73.8473
73.8457
73.8442
73.8426
73.8411
73.8395
73.8379
73.8364
73.8348
73.8332
73.8317
73.8301
73.8286
73.827
73.8254
73.8239
73.8223
73.8208
73.8192
73.8176
73.8161
73.8145
73.813
73.8114
73.8098
73.8083
73.8067
73.8052
73.8036
73.802
73.8005
73.7989
73.7974
73.7958
73.7942
73.7927
73.7911
73.7896
73.788
73.7864
73.7849
73.7833
73.7818
73.7802
73.7786
73.7771
73.7755
73.774
73.7724
73.7709
73.7693
73.7677
73.7662
73.7646
73.7631
73.7615
73.76
73.7584
73.7568
73.7553
73.7537
73.7522
73.7506
73.7491
73.7475
73.7459
73.7444
73.7428
73.7413
73.7397
73.7382
73.7366
73.735
73.7335
73.7319
73.7304
73.7288
73.7273
73.7257
73.7242
73.7226
73.721
73.7195
73.7179
73.7164
73.7148
73.7133
73.7117
73.7102
73.7086
73.7071
73.7055
73.7039
73.7024
73.7008
73.6993
73.6977
73.6962
73.6946
73.6931
73.6915
73.69
73.6884
73.6868
73.6853
73.6837
73.6822
73.6806
73.6791
73.6775
73.676
73.6744
73.6729
73.6713
73.6698
73.6682
73.6667
73.6651
73.6635
73.662
73.6604
73.6589
73.6573
73.6558
73.6542
73.6527
73.6511
73.6496
73.648
73.6465
73.6449
73.6434
73.6418
73.6403
73.6387
73.6372
73.6356
73.6341
73.6325
73.6309
73.6294
73.6278
73.6263
73.6247
73.6232
73.6216
73.6201
73.6185
73.617
73.6154
73.6139
73.6123
73.6108
73.6092
73.6077
73.6061
73.6046
73.603
73.6015
73.5999
73.5984
73.5968
73.5953
73.5937
73.5922
73.5906
73.5891
73.5875
73.586
73.5844
73.5829
73.5813
73.5798
73.5782
73.5767
73.5751
73.5736
73.572
73.5705
73.5689
73.5674
73.5658
73.5643
73.5627
73.5612
73.5596
73.5581
73.5565
73.555
73.5534
73.5519
73.5503
73.5488
73.5472
73.5457
73.5441
73.5426
73.541
73.5395
73.5379
73.5364
73.5348
73.5333
73.5317
73.5302
73.5286
73.5271
73.5256
73.524
73.5225
73.5209
73.5194
73.5178
73.5163
73.5147
73.5132
73.5116
73.5101
73.5085
73.507
73.5054
73.5039
73.5023
73.5008
73.4992
73.4977
73.4961
73.4946
73.493
73.4915
73.49
73.4884
73.4869
73.4853
73.4838
73.4822
73.4807
73.4791
73.4776
73.476
73.4745
73.4729
73.4714
73.4698
73.4683
73.4667
73.4652
73.4637
73.4621
1
77.5451
77.5451
75.3297
75.0748
75.0146
74.9882
74.9722
74.9606
74.9514
74.9435
74.9366
74.9302
74.9243
74.9188
74.9135
74.9083
74.9034
74.8986
74.8938
74.8892
74.8847
74.8802
74.8758
74.8715
74.8672
74.863
74.8588
74.8547
74.8507
74.8467
74.8427
74.8388
74.8349
74.8311
74.8273
74.8235
74.8198
74.8161
74.8125
74.8089
74.8054
74.8018
74.7983
74.7949
74.7914
74.788
74.7847
74.7813
74.778
74.7748
74.7715
74.7683
74.7651
74.7619
74.7588
74.7556
74.7525
74.7495
74.7464
74.7434
74.7404
74.7374
74.7344
74.7314
74.7285
74.7256
74.7227
74.7198
74.717
74.7141
74.7113
74.7085
74.7057
74.7029
74.7002
74.6974
74.6947
74.692
74.6893
74.6866
74.6839
74.6813
74.6786
74.676
74.6734
74.6708
74.6682
74.6656
74.6631
74.6605
74.658
74.6554
74.6529
74.6504
74.6479
74.6454
74.6429
74.6405
74.638
74.6356
74.6331
74.6307
74.6283
74.6259
74.6235
74.6211
74.6187
74.6164
74.614
74.6116
74.6093
74.607
74.6046
74.6023
74.6
74.5977
74.5954
74.5931
74.5909
74.5886
74.5863
74.5841
74.5818
74.5796
74.5773
74.5751
74.5729
74.5707
74.5685
74.5663
74.5641
74.5619
74.5597
74.5575
74.5554
74.5532
74.551
74.5489
74.5467
74.5446
74.5425
74.5403
74.5382
74.5361
74.534
74.5319
74.5298
74.5277
74.5256
74.5235
74.5215
74.5194
74.5173
74.5153
74.5132
74.5112
74.5091
74.5071
74.505
74.503
74.501
74.4989
74.4969
74.4949
74.4929
74.4909
74.4889
74.4869
74.4849
74.4829
74.4809
74.479
74.477
74.475
74.473
74.4711
74.4691
74.4672
74.4652
74.4633
74.4613
74.4594
74.4574
74.4555
74.4536
74.4517
74.4497
74.4478
74.4459
74.444
74.4421
74.4402
74.4383
74.4364
74.4345
74.4326
74.4307
74.4288
74.4269
74.4251
74.4232
74.4213
74.4194
74.4176
74.4157
74.4138
74.412
74.4101
74.4083
74.4064
74.4046
74.4027
74.4009
74.3991
74.3972
74.3954
74.3936
74.3917
74.3899
74.3881
74.3863
74.3845
74.3826
74.3808
74.379
74.3772
74.3754
74.3736
74.3718
74.37
74.3682
74.3664
74.3646
74.3628
74.3611
74.3593
74.3575
74.3557
74.3539
74.3522
74.3504
74.3486
74.3469
74.3451
74.3433
74.3416
74.3398
74.338
74.3363
74.3345
74.3328
74.331
74.3293
74.3275
74.3258
74.324
74.3223
74.3206
74.3188
74.3171
74.3153
74.3136
74.3119
74.3102
74.3084
74.3067
74.305
74.3033
74.3015
74.2998
74.2981
74.2964
74.2947
74.293
74.2912
74.2895
74.2878
74.2861
74.2844
74.2827
74.281
74.2793
74.2776
74.2759
74.2742
74.2725
74.2708
74.2691
74.2674
74.2657
74.264
74.2624
74.2607
74.259
74.2573
74.2556
74.2539
74.2523
74.2506
74.2489
74.2472
74.2455
74.2439
74.2422
74.2405
74.2389
74.2372
74.2355
74.2338
74.2322
74.2305
74.2288
74.2272
74.2255
74.2239
74.2222
74.2205
74.2189
74.2172
74.2156
74.2139
74.2123
74.2106
74.209
74.2073
74.2057
74.204
74.2024
74.2007
74.1991
74.1974
74.1958
74.1941
74.1925
74.1908
74.1892
74.1876
74.1859
74.1843
74.1826
74.181
74.1794
74.1777
74.1761
74.1745
74.1728
74.1712
74.1696
74.1679
74.1663
74.1647
74.163
74.1614
74.1598
74.1582
74.1565
74.1549
74.1533
74.1517
74.15
74.1484
74.1468
74.1452
74.1435
74.1419
74.1403
74.1387
74.1371
74.1354
74.1338
74.1322
74.1306
74.129
74.1274
74.1258
74.1241
74.1225
74.1209
74.1193
74.1177
74.1161
74.1145
74.1129
74.1112
74.1096
74.108
74.1064
74.1048
74.1032
74.1016
74.1
74.0984
74.0968
74.0952
74.0936
74.092
74.0904
74.0888
74.0872
74.0856
74.084
74.0824
74.0808
74.0792
74.0776
74.076
74.0744
74.0728
74.0712
74.0696
74.068
74.0664
74.0648
74.0632
74.0616
74.06
74.0584
74.0568
74.0552
74.0536
74.052
74.0505
74.0489
74.0473
74.0457
74.0441
74.0425
74.0409
74.0393
74.0377
74.0361
74.0346
74.033
74.0314
74.0298
74.0282
74.0266
74.025
74.0234
74.0219
74.0203
74.0187
74.0171
74.0155
74.0139
74.0124
74.0108
74.0092
74.0076
74.006
74.0044
74.0029
74.0013
73.9997
73.9981
73.9965
73.9949
73.9934
73.9918
73.9902
73.9886
73.9871
73.9855
73.9839
73.9823
73.9807
73.9792
73.9776
73.976
73.9744
73.9728
73.9713
73.9697
73.9681
73.9665
73.965
73.9634
73.9618
73.9602
73.9587
73.9571
73.9555
73.9539
73.9524
73.9508
73.9492
73.9476
73.9461
73.9445
73.9429
73.9414
73.9398
73.9382
73.9366
73.9351
73.9335
73.9319
73.9304
73.9288
73.9272
73.9256
73.9241
73.9225
73.9209
73.9194
73.9178
73.9162
73.9146
73.9131
73.9115
73.9099
73.9084
73.9068
73.9052
73.9037
73.9021
73.9005
73.899
73.8974
73.8958
73.8943
73.8927
73.8911
73.8896
73.888
73.8864
73.8849
73.8833
73.8817
73.8802
73.8786
73.877
73.8755
73.8739
73.8723
73.8708
73.8692
73.8676
73.8661
73.8645
73.8629
73.8614
73.8598
73.8583
73.8567
73.8551
73.8536
73.852
73.8504
73.8489
73.8473
73.8457
73.8442
73.8426
73.8411
73.8395
73.8379
73.8364
73.8348
73.8332
73.8317
73.8301
73.8286
73.827
73.8254
73.8239
73.8223
73.8208
73.8192
73.8176
73.8161
73.8145
73.813
73.8114
73.8098
73.8083
73.8067
73.8052
73.8036
73.802
73.8005
73.7989
73.7974
73.7958
73.7942
73.7927
73.7911
73.7896
73.788
73.7864
73.7849
73.7833
73.7818
73.7802
73.7786
73.7771
73.7755
73.774
73.7724
73.7709
73.7693
73.7677
73.7662
73.7646
73.7631
73.7615
73.76
73.7584
73.7568
73.7553
73.7537
73.7522
73.7506
73.7491
73.7475
73.7459
73.7444
73.7428
73.7413
73.7397
73.7382
73.7366
73.735
73.7335
73.7319
73.7304
73.7288
73.7273
73.7257
73.7242
73.7226
73.721
73.7195
73.7179
73.7164
73.7148
73.7133
73.7117
73.7102
73.7086
73.7071
73.7055
73.7039
73.7024
73.7008
73.6993
73.6977
73.6962
73.6946
73.6931
73.6915
73.69
73.6884
73.6868
73.6853
73.6837
73.6822
73.6806
73.6791
73.6775
73.676
73.6744
73.6729
73.6713
73.6698
73.6682
73.6667
73.6651
73.6635
73.662
73.6604
73.6589
73.6573
73.6558
73.6542
73.6527
73.6511
73.6496
73.648
73.6465
73.6449
73.6434
73.6418
73.6403
73.6387
73.6372
73.6356
73.6341
73.6325
73.6309
73.6294
73.6278
73.6263
73.6247
73.6232
73.6216
73.6201
73.6185
73.617
73.6154
73.6139
73.6123
73.6108
73.6092
73.6077
73.6061
73.6046
73.603
73.6015
73.5999
73.5984
73.5968
73.5953
73.5937
73.5922
73.5906
73.5891
73.5875
73.586
73.5844
73.5829
73.5813
73.5798
73.5782
73.5767
73.5751
73.5736
73.572
73.5705
73.5689
73.5674
73.5658
73.5643
73.5627
73.5612
73.5596
73.5581
73.5565
73.555
73.5534
73.5519
73.5503
73.5488
73.5472
73.5457
73.5441
73.5426
73.541
73.5395
73.5379
73.5364
73.5348
73.5333
73.5317
73.5302
73.5286
73.5271
73.5256
73.524
73.5225
73.5209
73.5194
73.5178
73.5163
73.5147
73.5132
73.5116
73.5101
73.5085
73.507
73.5054
73.5039
73.5023
73.5008
73.4992
73.4977
73.4961
73.4946
73.493
73.4915
73.49
73.4884
73.4869
73.4853
73.4838
73.4822
73.4807
73.4791
73.4776
73.476
73.4745
73.4729
73.4714
73.4698
73.4683
73.4667
73.4652
73.4637
73.4621
73.4621
76.8981
76.8981
75.3401
75.0843
75.0188
74.9905
74.9736
74.9616
74.9521
74.9441
74.937
74.9306
74.9246
74.919
74.9137
74.9085
74.9036
74.8987
74.894
74.8893
74.8848
74.8803
74.8759
74.8716
74.8673
74.8631
74.8589
74.8548
74.8507
74.8467
74.8427
74.8388
74.8349
74.8311
74.8273
74.8236
74.8199
74.8162
74.8125
74.8089
74.8054
74.8019
74.7984
74.7949
74.7915
74.7881
74.7847
74.7814
74.7781
74.7748
74.7715
74.7683
74.7651
74.7619
74.7588
74.7557
74.7526
74.7495
74.7464
74.7434
74.7404
74.7374
74.7344
74.7315
74.7285
74.7256
74.7227
74.7198
74.717
74.7141
74.7113
74.7085
74.7057
74.703
74.7002
74.6975
74.6947
74.692
74.6893
74.6866
74.684
74.6813
74.6787
74.676
74.6734
74.6708
74.6682
74.6656
74.6631
74.6605
74.658
74.6554
74.6529
74.6504
74.6479
74.6454
74.643
74.6405
74.638
74.6356
74.6332
74.6307
74.6283
74.6259
74.6235
74.6211
74.6187
74.6164
74.614
74.6117
74.6093
74.607
74.6047
74.6023
74.6
74.5977
74.5954
74.5931
74.5909
74.5886
74.5863
74.5841
74.5818
74.5796
74.5773
74.5751
74.5729
74.5707
74.5685
74.5663
74.5641
74.5619
74.5597
74.5575
74.5554
74.5532
74.551
74.5489
74.5468
74.5446
74.5425
74.5404
74.5382
74.5361
74.534
74.5319
74.5298
74.5277
74.5256
74.5235
74.5215
74.5194
74.5173
74.5153
74.5132
74.5112
74.5091
74.5071
74.505
74.503
74.501
74.4989
74.4969
74.4949
74.4929
74.4909
74.4889
74.4869
74.4849
74.4829
74.4809
74.479
74.477
74.475
74.473
74.4711
74.4691
74.4672
74.4652
74.4633
74.4613
74.4594
74.4574
74.4555
74.4536
74.4517
74.4497
74.4478
74.4459
74.444
74.4421
74.4402
74.4383
74.4364
74.4345
74.4326
74.4307
74.4288
74.4269
74.4251
74.4232
74.4213
74.4194
74.4176
74.4157
74.4139
74.412
74.4101
74.4083
74.4064
74.4046
74.4028
74.4009
74.3991
74.3972
74.3954
74.3936
74.3917
74.3899
74.3881
74.3863
74.3845
74.3827
74.3808
74.379
74.3772
74.3754
74.3736
74.3718
74.37
74.3682
74.3664
74.3646
74.3629
74.3611
74.3593
74.3575
74.3557
74.3539
74.3522
74.3504
74.3486
74.3469
74.3451
74.3433
74.3416
74.3398
74.338
74.3363
74.3345
74.3328
74.331
74.3293
74.3275
74.3258
74.324
74.3223
74.3206
74.3188
74.3171
74.3154
74.3136
74.3119
74.3102
74.3084
74.3067
74.305
74.3033
74.3015
74.2998
74.2981
74.2964
74.2947
74.293
74.2912
74.2895
74.2878
74.2861
74.2844
74.2827
74.281
74.2793
74.2776
74.2759
74.2742
74.2725
74.2708
74.2691
74.2674
74.2657
74.264
74.2624
74.2607
74.259
74.2573
74.2556
74.2539
74.2523
74.2506
74.2489
74.2472
74.2455
74.2439
74.2422
74.2405
74.2389
74.2372
74.2355
74.2338
74.2322
74.2305
74.2289
74.2272
74.2255
74.2239
74.2222
74.2205
74.2189
74.2172
74.2156
74.2139
74.2123
74.2106
74.209
74.2073
74.2057
74.204
74.2024
74.2007
74.1991
74.1974
74.1958
74.1941
74.1925
74.1908
74.1892
74.1876
74.1859
74.1843
74.1826
74.181
74.1794
74.1777
74.1761
74.1745
74.1728
74.1712
74.1696
74.1679
74.1663
74.1647
74.163
74.1614
74.1598
74.1582
74.1565
74.1549
74.1533
74.1517
74.15
74.1484
74.1468
74.1452
74.1435
74.1419
74.1403
74.1387
74.1371
74.1354
74.1338
74.1322
74.1306
74.129
74.1274
74.1258
74.1241
74.1225
74.1209
74.1193
74.1177
74.1161
74.1145
74.1129
74.1113
74.1096
74.108
74.1064
74.1048
74.1032
74.1016
74.1
74.0984
74.0968
74.0952
74.0936
74.092
74.0904
74.0888
74.0872
74.0856
74.084
74.0824
74.0808
74.0792
74.0776
74.076
74.0744
74.0728
74.0712
74.0696
74.068
74.0664
74.0648
74.0632
74.0616
74.06
74.0584
74.0568
74.0552
74.0536
74.0521
74.0505
74.0489
74.0473
74.0457
74.0441
74.0425
74.0409
74.0393
74.0377
74.0361
74.0346
74.033
74.0314
74.0298
74.0282
74.0266
74.025
74.0235
74.0219
74.0203
74.0187
74.0171
74.0155
74.0139
74.0124
74.0108
74.0092
74.0076
74.006
74.0044
74.0029
74.0013
73.9997
73.9981
73.9965
73.995
73.9934
73.9918
73.9902
73.9886
73.9871
73.9855
73.9839
73.9823
73.9807
73.9792
73.9776
73.976
73.9744
73.9729
73.9713
73.9697
73.9681
73.9665
73.965
73.9634
73.9618
73.9602
73.9587
73.9571
73.9555
73.9539
73.9524
73.9508
73.9492
73.9476
73.9461
73.9445
73.9429
73.9414
73.9398
73.9382
73.9366
73.9351
73.9335
73.9319
73.9304
73.9288
73.9272
73.9256
73.9241
73.9225
73.9209
73.9194
73.9178
73.9162
73.9147
73.9131
73.9115
73.9099
73.9084
73.9068
73.9052
73.9037
73.9021
73.9005
73.899
73.8974
73.8958
73.8943
73.8927
73.8911
73.8896
73.888
73.8864
73.8849
73.8833
73.8817
73.8802
73.8786
73.877
73.8755
73.8739
73.8723
73.8708
73.8692
73.8676
73.8661
73.8645
73.863
73.8614
73.8598
73.8583
73.8567
73.8551
73.8536
73.852
73.8504
73.8489
73.8473
73.8458
73.8442
73.8426
73.8411
73.8395
73.8379
73.8364
73.8348
73.8333
73.8317
73.8301
73.8286
73.827
73.8254
73.8239
73.8223
73.8208
73.8192
73.8176
73.8161
73.8145
73.813
73.8114
73.8098
73.8083
73.8067
73.8052
73.8036
73.802
73.8005
73.7989
73.7974
73.7958
73.7942
73.7927
73.7911
73.7896
73.788
73.7864
73.7849
73.7833
73.7818
73.7802
73.7787
73.7771
73.7755
73.774
73.7724
73.7709
73.7693
73.7677
73.7662
73.7646
73.7631
73.7615
73.76
73.7584
73.7568
73.7553
73.7537
73.7522
73.7506
73.7491
73.7475
73.7459
73.7444
73.7428
73.7413
73.7397
73.7382
73.7366
73.7351
73.7335
73.7319
73.7304
73.7288
73.7273
73.7257
73.7242
73.7226
73.7211
73.7195
73.7179
73.7164
73.7148
73.7133
73.7117
73.7102
73.7086
73.7071
73.7055
73.7039
73.7024
73.7008
73.6993
73.6977
73.6962
73.6946
73.6931
73.6915
73.69
73.6884
73.6869
73.6853
73.6837
73.6822
73.6806
73.6791
73.6775
73.676
73.6744
73.6729
73.6713
73.6698
73.6682
73.6667
73.6651
73.6636
73.662
73.6604
73.6589
73.6573
73.6558
73.6542
73.6527
73.6511
73.6496
73.648
73.6465
73.6449
73.6434
73.6418
73.6403
73.6387
73.6372
73.6356
73.6341
73.6325
73.631
73.6294
73.6279
73.6263
73.6247
73.6232
73.6216
73.6201
73.6185
73.617
73.6154
73.6139
73.6123
73.6108
73.6092
73.6077
73.6061
73.6046
73.603
73.6015
73.5999
73.5984
73.5968
73.5953
73.5937
73.5922
73.5906
73.5891
73.5875
73.586
73.5844
73.5829
73.5813
73.5798
73.5782
73.5767
73.5751
73.5736
73.572
73.5705
73.5689
73.5674
73.5658
73.5643
73.5627
73.5612
73.5596
73.5581
73.5565
73.555
73.5534
73.5519
73.5503
73.5488
73.5472
73.5457
73.5441
73.5426
73.541
73.5395
73.5379
73.5364
73.5348
73.5333
73.5318
73.5302
73.5287
73.5271
73.5256
73.524
73.5225
73.5209
73.5194
73.5178
73.5163
73.5147
73.5132
73.5116
73.5101
73.5085
73.507
73.5054
73.5039
73.5023
73.5008
73.4992
73.4977
73.4961
73.4946
73.4931
73.4915
73.49
73.4884
73.4869
73.4853
73.4838
73.4822
73.4807
73.4791
73.4776
73.476
73.4745
73.4729
73.4714
73.4698
73.4683
73.4668
73.4652
73.4637
73.4621
73.4621
76.2086
76.2086
75.3242
75.091
75.0224
74.9925
74.9749
74.9625
74.9528
74.9446
74.9374
74.9309
74.9249
74.9193
74.9139
74.9087
74.9037
74.8989
74.8941
74.8895
74.8849
74.8804
74.876
74.8717
74.8674
74.8631
74.859
74.8549
74.8508
74.8468
74.8428
74.8389
74.835
74.8312
74.8274
74.8236
74.8199
74.8162
74.8126
74.809
74.8054
74.8019
74.7984
74.7949
74.7915
74.7881
74.7847
74.7814
74.7781
74.7748
74.7716
74.7683
74.7651
74.762
74.7588
74.7557
74.7526
74.7495
74.7464
74.7434
74.7404
74.7374
74.7344
74.7315
74.7285
74.7256
74.7227
74.7199
74.717
74.7142
74.7113
74.7085
74.7057
74.703
74.7002
74.6975
74.6947
74.692
74.6893
74.6866
74.684
74.6813
74.6787
74.676
74.6734
74.6708
74.6682
74.6656
74.6631
74.6605
74.658
74.6555
74.6529
74.6504
74.6479
74.6454
74.643
74.6405
74.638
74.6356
74.6332
74.6307
74.6283
74.6259
74.6235
74.6211
74.6187
74.6164
74.614
74.6117
74.6093
74.607
74.6047
74.6023
74.6
74.5977
74.5954
74.5931
74.5909
74.5886
74.5863
74.5841
74.5818
74.5796
74.5773
74.5751
74.5729
74.5707
74.5685