# vtk DataFile Version 2.0
FlowField
ASCII
DATASET STRUCTURED_GRID
DIMENSIONS 800 1 200
POINTS 160000 float
0 0 0
0.04 0 0
0.08 0 0
0.12 0 0
0.16 0 0
0.2 0 0
0.24 0 0
0.28 0 0
0.32 0 0
0.36 0 0
0.4 0 0
0.44 0 0
0.48 0 0
0.52 0 0
0.56 0 0
0.6 0 0
0.64 0 0
0.68 0 0
0.72 0 0
0.76 0 0
0.8 0 0
0.84 0 0
0.88 0 0
0.92 0 0
0.96 0 0
1 0 0
1.04 0 0
1.08 0 0
1.12 0 0
1.16 0 0
1.2 0 0
1.24 0 0
1.28 0 0
1.32 0 0
1.36 0 0
1.4 0 0
1.44 0 0
1.48 0 0
1.52 0 0
1.56 0 0
1.6 0 0
1.64 0 0
1.68 0 0
1.72 0 0
1.76 0 0
1.8 0 0
1.84 0 0
1.88 0 0
1.92 0 0
1.96 0 0
2 0 0
2.04 0 0
2.08 0 0
2.12 0 0
2.16 0 0
2.2 0 0
2.24 0 0
2.28 0 0
2.32 0 0
2.36 0 0
2.4 0 0
2.44 0 0
2.48 0 0
2.52 0 0
2.56 0 0
2.6 0 0
2.64 0 0
2.68 0 0
2.72 0 0
2.76 0 0
2.8 0 0
2.84 0 0
2.88 0 0
2.92 0 0
2.96 0 0
3 0 0
3.04 0 0
3.08 0 0
3.12 0 0
3.16 0 0
3.2 0 0
3.24 0 0
3.28 0 0
3.32 0 0
3.36 0 0
3.4 0 0
3.44 0 0
3.48 0 0
3.52 0 0
3.56 0 0
3.6 0 0
3.64 0 0
3.68 0 0
3.72 0 0
3.76 0 0
3.8 0 0
3.84 0 0
3.88 0 0
3.92 0 0
3.96 0 0
4 0 0
4.04 0 0
4.08 0 0
4.12 0 0
4.16 0 0
4.2 0 0
4.24 0 0
4.28 0 0
4.32 0 0
4.36 0 0
4.4 0 0
4.44 0 0
4.48 0 0
4.52 0 0
4.56 0 0
4.6 0 0
4.64 0 0
4.68 0 0
4.72 0 0
4.76 0 0
4.8 0 0
4.84 0 0
4.88 0 0
4.92 0 0
4.96 0 0
5 0 0
5.04 0 0
5.08 0 0
5.12 0 0
5.16 0 0
5.2 0 0
5.24 0 0
5.28 0 0
5.32 0 0
5.36 0 0
5.4 0 0
5.44 0 0
5.48 0 0
5.52 0 0
5.56 0 0
5.6 0 0
5.64 0 0
5.68 0 0
5.72 0 0
5.76 0 0
5.8 0 0
5.84 0 0
5.88 0 0
5.92 0 0
5.96 0 0
6 0 0
6.04 0 0
6.08 0 0
6.12 0 0
6.16 0 0
6.2 0 0
6.24 0 0
6.28 0 0
6.32 0 0
6.36 0 0
6.4 0 0
6.44 0 0
6.48 0 0
6.52 0 0
6.56 0 0
6.6 0 0
6.64 0 0
6.68 0 0
6.72 0 0
6.76 0 0
6.8 0 0
6.84 0 0
6.88 0 0
6.92 0 0
6.96 0 0
7 0 0
7.04 0 0
7.08 0 0
7.12 0 0
7.16 0 0
7.2 0 0
7.24 0 0
7.28 0 0
7.32 0 0
7.36 0 0
7.4 0 0
7.44 0 0
7.48 0 0
7.52 0 0
7.56 0 0
7.6 0 0
7.64 0 0
7.68 0 0
7.72 0 0
7.76 0 0
7.8 0 0
7.84 0 0
7.88 0 0
7.92 0 0
7.96 0 0
8 0 0
8.04 0 0
8.08 0 0
8.12 0 0
8.16 0 0
8.2 0 0
8.24 0 0
8.28 0 0
8.32 0 0
8.36 0 0
8.4 0 0
8.44 0 0
8.48 0 0
8.52 0 0
8.56 0 0
8.6 0 0
8.64 0 0
8.68 0 0
8.72 0 0
8.76 0 0
8.8 0 0
8.84 0 0
8.88 0 0
8.92 0 0
8.96 0 0
9 0 0
9.04 0 0
9.08 0 0
9.12 0 0
9.16 0 0
9.2 0 0
9.24 0 0
9.28 0 0
9.32 0 0
9.36 0 0
9.4 0 0
9.44 0 0
9.48 0 0
9.52 0 0
9.56 0 0
9.6 0 0
9.64 0 0
9.68 0 0
9.72 0 0
9.76 0 0
9.8 0 0
9.84 0 0
9.88 0 0
9.92 0 0
9.96 0 0
10 0 0
10.04 0 0
10.08 0 0
10.12 0 0
10.16 0 0
10.2 0 0
10.24 0 0
10.28 0 0
10.32 0 0
10.36 0 0
10.4 0 0
10.44 0 0
10.48 0 0
10.52 0 0
10.56 0 0
10.6 0 0
10.64 0 0
10.68 0 0
10.72 0 0
10.76 0 0
10.8 0 0
10.84 0 0
10.88 0 0
10.92 0 0
10.96 0 0
11 0 0
11.04 0 0
11.08 0 0
11.12 0 0
11.16 0 0
11.2 0 0
11.24 0 0
11.28 0 0
11.32 0 0
11.36 0 0
11.4 0 0
11.44 0 0
11.48 0 0
11.52 0 0
11.56 0 0
11.6 0 0
11.64 0 0
11.68 0 0
11.72 0 0
11.76 0 0
11.8 0 0
11.84 0 0
11.88 0 0
11.92 0 0
11.96 0 0
12 0 0
12.04 0 0
12.08 0 0
12.12 0 0
12.16 0 0
12.2 0 0
12.24 0 0
12.28 0 0
12.32 0 0
12.36 0 0
12.4 0 0
12.44 0 0
12.48 0 0
12.52 0 0
12.56 0 0
12.6 0 0
12.64 0 0
12.68 0 0
12.72 0 0
12.76 0 0
12.8 0 0
12.84 0 0
12.88 0 0
12.92 0 0
12.96 0 0
13 0 0
13.04 0 0
13.08 0 0
13.12 0 0
13.16 0 0
13.2 0 0
13.24 0 0
13.28 0 0
13.32 0 0
13.36 0 0
13.4 0 0
13.44 0 0
13.48 0 0
13.52 0 0
13.56 0 0
13.6 0 0
13.64 0 0
13.68 0 0
13.72 0 0
13.76 0 0
13.8 0 0
13.84 0 0
13.88 0 0
13.92 0 0
13.96 0 0
14 0 0
14.04 0 0
14.08 0 0
14.12 0 0
14.16 0 0
14.2 0 0
14.24 0 0
14.28 0 0
14.32 0 0
14.36 0 0
14.4 0 0
14.44 0 0
14.48 0 0
14.52 0 0
14.56 0 0
14.6 0 0
14.64 0 0
14.68 0 0
14.72 0 0
14.76 0 0
14.8 0 0
14.84 0 0
14.88 0 0
14.92 0 0
14.96 0 0
15 0 0
15.04 0 0
15.08 0 0
15.12 0 0
15.16 0 0
15.2 0 0
15.24 0 0
15.28 0 0
15.32 0 0
15.36 0 0
15.4 0 0
15.44 0 0
15.48 0 0
15.52 0 0
15.56 0 0
15.6 0 0
15.64 0 0
15.68 0 0
15.72 0 0
15.76 0 0
15.8 0 0
15.84 0 0
15.88 0 0
15.92 0 0
15.96 0 0
16 0 0
16.04 0 0
16.08 0 0
16.12 0 0
16.16 0 0
16.2 0 0
16.24 0 0
16.28 0 0
16.32 0 0
16.36 0 0
16.4 0 0
16.44 0 0
16.48 0 0
16.52 0 0
16.56 0 0
16.6 0 0
16.64 0 0
16.68 0 0
16.72 0 0
16.76 0 0
16.8 0 0
16.84 0 0
16.88 0 0
16.92 0 0
16.96 0 0
17 0 0
17.04 0 0
17.08 0 0
17.12 0 0
17.16 0 0
17.2 0 0
17.24 0 0
17.28 0 0
17.32 0 0
17.36 0 0
17.4 0 0
17.44 0 0
17.48 0 0
17.52 0 0
17.56 0 0
17.6 0 0
17.64 0 0
17.68 0 0
17.72 0 0
17.76 0 0
17.8 0 0
17.84 0 0
17.88 0 0
17.92 0 0
17.96 0 0
18 0 0
18.04 0 0
18.08 0 0
18.12 0 0
18.16 0 0
18.2 0 0
18.24 0 0
18.28 0 0
18.32 0 0
18.36 0 0
18.4 0 0
18.44 0 0
18.48 0 0
18.52 0 0
18.56 0 0
18.6 0 0
18.64 0 0
18.68 0 0
18.72 0 0
18.76 0 0
18.8 0 0
18.84 0 0
18.88 0 0
18.92 0 0
18.96 0 0
19 0 0
19.04 0 0
19.08 0 0
19.12 0 0
19.16 0 0
19.2 0 0
19.24 0 0
19.28 0 0
19.32 0 0
19.36 0 0
19.4 0 0
19.44 0 0
19.48 0 0
19.52 0 0
19.56 0 0
19.6 0 0
19.64 0 0
19.68 0 0
19.72 0 0
19.76 0 0
19.8 0 0
19.84 0 0
19.88 0 0
19.92 0 0
19.96 0 0
20 0 0
20.04 0 0
20.08 0 0
20.12 0 0
20.16 0 0
20.2 0 0
20.24 0 0
20.28 0 0
20.32 0 0
20.36 0 0
20.4 0 0
20.44 0 0
20.48 0 0
20.52 0 0
20.56 0 0
20.6 0 0
20.64 0 0
20.68 0 0
20.72 0 0
20.76 0 0
20.8 0 0
20.84 0 0
20.88 0 0
20.92 0 0
20.96 0 0
21 0 0
21.04 0 0
21.08 0 0
21.12 0 0
21.16 0 0
21.2 0 0
21.24 0 0
21.28 0 0
21.32 0 0
21.36 0 0
21.4 0 0
21.44 0 0
21.48 0 0
21.52 0 0
21.56 0 0
21.6 0 0
21.64 0 0
21.68 0 0
21.72 0 0
21.76 0 0
21.8 0 0
21.84 0 0
21.88 0 0
21.92 0 0
21.96 0 0
22 0 0
22.04 0 0
22.08 0 0
22.12 0 0
22.16 0 0
22.2 0 0
22.24 0 0
22.28 0 0
22.32 0 0
22.36 0 0
22.4 0 0
22.44 0 0
22.48 0 0
22.52 0 0
22.56 0 0
22.6 0 0
22.64 0 0
22.68 0 0
22.72 0 0
22.76 0 0
22.8 0 0
22.84 0 0
22.88 0 0
22.92 0 0
22.96 0 0
23 0 0
23.04 0 0
23.08 0 0
23.12 0 0
23.16 0 0
23.2 0 0
23.24 0 0
23.28 0 0
23.32 0 0
23.36 0 0
23.4 0 0
23.44 0 0
23.48 0 0
23.52 0 0
23.56 0 0
23.6 0 0
23.64 0 0
23.68 0 0
23.72 0 0
23.76 0 0
23.8 0 0
23.84 0 0
23.88 0 0
23.92 0 0
23.96 0 0
24 0 0
24.04 0 0
24.08 0 0
24.12 0 0
24.16 0 0
24.2 0 0
24.24 0 0
24.28 0 0
24.32 0 0
24.36 0 0
24.4 0 0
24.44 0 0
24.48 0 0
24.52 0 0
24.56 0 0
24.6 0 0
24.64 0 0
24.68 0 0
24.72 0 0
24.76 0 0
24.8 0 0
24.84 0 0
24.88 0 0
24.92 0 0
24.96 0 0
25 0 0
25.04 0 0
25.08 0 0
25.12 0 0
25.16 0 0
25.2 0 0
25.24 0 0
25.28 0 0
25.32 0 0
25.36 0 0
25.4 0 0
25.44 0 0
25.48 0 0
25.52 0 0
25.56 0 0
25.6 0 0
25.64 0 0
25.68 0 0
25.72 0 0
25.76 0 0
25.8 0 0
25.84 0 0
25.88 0 0
25.92 0 0
25.96 0 0
26 0 0
26.04 0 0
26.08 0 0
26.12 0 0
26.16 0 0
26.2 0 0
26.24 0 0
26.28 0 0
26.32 0 0
26.36 0 0
26.4 0 0
26.44 0 0
26.48 0 0
26.52 0 0
26.56 0 0
26.6 0 0
26.64 0 0
26.68 0 0
26.72 0 0
26.76 0 0
26.8 0 0
26.84 0 0
26.88 0 0
26.92 0 0
26.96 0 0
27 0 0
27.04 0 0
27.08 0 0
27.12 0 0
27.16 0 0
27.2 0 0
27.24 0 0
27.28 0 0
27.32 0 0
27.36 0 0
27.4 0 0
27.44 0 0
27.48 0 0
27.52 0 0
27.56 0 0
27.6 0 0
27.64 0 0
27.68 0 0
27.72 0 0
27.76 0 0
27.8 0 0
27.84 0 0
27.88 0 0
27.92 0 0
27.96 0 0
28 0 0
28.04 0 0
28.08 0 0
28.12 0 0
28.16 0 0
28.2 0 0
28.24 0 0
28.28 0 0
28.32 0 0
28.36 0 0
28.4 0 0
28.44 0 0
28.48 0 0
28.52 0 0
28.56 0 0
28.6 0 0
28.64 0 0
28.68 0 0
28.72 0 0
28.76 0 0
28.8 0 0
28.84 0 0
28.88 0 0
28.92 0 0
28.96 0 0
29 0 0
29.04 0 0
29.08 0 0
29.12 0 0
29.16 0 0
29.2 0 0
29.24 0 0
29.28 0 0
29.32 0 0
29.36 0 0
29.4 0 0
29.44 0 0
29.48 0 0
29.52 0 0
29.56 0 0
29.6 0 0
29.64 0 0
29.68 0 0
29.72 0 0
29.76 0 0
29.8 0 0
29.84 0 0
29.88 0 0
29.92 0 0
29.96 0 0
30 0 0
30.04 0 0
30.08 0 0
30.12 0 0
30.16 0 0
30.2 0 0
30.24 0 0
30.28 0 0
30.32 0 0
30.36 0 0
30.4 0 0
30.44 0 0
30.48 0 0
30.52 0 0
30.56 0 0
30.6 0 0
30.64 0 0
30.68 0 0
30.72 0 0
30.76 0 0
30.8 0 0
30.84 0 0
30.88 0 0
30.92 0 0
30.96 0 0
31 0 0
31.04 0 0
31.08 0 0
31.12 0 0
31.16 0 0
31.2 0 0
31.24 0 0
31.28 0 0
31.32 0 0
31.36 0 0
31.4 0 0
31.44 0 0
31.48 0 0
31.52 0 0
31.56 0 0
31.6 0 0
31.64 0 0
31.68 0 0
31.72 0 0
31.76 0 0
31.8 0 0
31.84 0 0
31.88 0 0
31.92 0 0
31.96 0 0
0 0.005 0
0.04 0.005 0
0.08 0.005 0
0.12 0.005 0
0.16 0.005 0
0.2 0.005 0
0.24 0.005 0
0.28 0.005 0
0.32 0.005 0
0.36 0.005 0
0.4 0.005 0
0.44 0.005 0
0.48 0.005 0
0.52 0.005 0
0.56 0.005 0
0.6 0.005 0
0.64 0.005 0
0.68 0.005 0
0.72 0.005 0
0.76 0.005 0
0.8 0.005 0
0.84 0.005 0
0.88 0.005 0
0.92 0.005 0
0.96 0.005 0
1 0.005 0
1.04 0.005 0
1.08 0.005 0
1.12 0.005 0
1.16 0.005 0
1.2 0.005 0
1.24 0.005 0
1.28 0.005 0
1.32 0.005 0
1.36 0.005 0
1.4 0.005 0
1.44 0.005 0
1.48 0.005 0
1.52 0.005 0
1.56 0.005 0
1.6 0.005 0
1.64 0.005 0
1.68 0.005 0
1.72 0.005 0
1.76 0.005 0
1.8 0.005 0
1.84 0.005 0
1.88 0.005 0
1.92 0.005 0
1.96 0.005 0
2 0.005 0
2.04 0.005 0
2.08 0.005 0
2.12 0.005 0
2.16 0.005 0
2.2 0.005 0
2.24 0.005 0
2.28 0.005 0
2.32 0.005 0
2.36 0.005 0
2.4 0.005 0
2.44 0.005 0
2.48 0.005 0
2.52 0.005 0
2.56 0.005 0
2.6 0.005 0
2.64 0.005 0
2.68 0.005 0
2.72 0.005 0
2.76 0.005 0
2.8 0.005 0
2.84 0.005 0
2.88 0.005 0
2.92 0.005 0
2.96 0.005 0
3 0.005 0
3.04 0.005 0
3.08 0.005 0
3.12 0.005 0
3.16 0.005 0
3.2 0.005 0
3.24 0.005 0
3.28 0.005 0
3.32 0.005 0
3.36 0.005 0
3.4 0.005 0
3.44 0.005 0
3.48 0.005 0
3.52 0.005 0
3.56 0.005 0
3.6 0.005 0
3.64 0.005 0
3.68 0.005 0
3.72 0.005 0
3.76 0.005 0
3.8 0.005 0
3.84 0.005 0
3.88 0.005 0
3.92 0.005 0
3.96 0.005 0
4 0.005 0
4.04 0.005 0
4.08 0.005 0
4.12 0.005 0
4.16 0.005 0
4.2 0.005 0
4.24 0.005 0
4.28 0.005 0
4.32 0.005 0
4.36 0.005 0
4.4 0.005 0
4.44 0.005 0
4.48 0.005 0
4.52 0.005 0
4.56 0.005 0
4.6 0.005 0
4.64 0.005 0
4.68 0.005 0
4.72 0.005 0
4.76 0.005 0
4.8 0.005 0
4.84 0.005 0
4.88 0.005 0
4.92 0.005 0
4.96 0.005 0
5 0.005 0
5.04 0.005 0
5.08 0.005 0
5.12 0.005 0
5.16 0.005 0
5.2 0.005 0
5.24 0.005 0
5.28 0.005 0
5.32 0.005 0
5.36 0.005 0
5.4 0.005 0
5.44 0.005 0
5.48 0.005 0
5.52 0.005 0
5.56 0.005 0
5.6 0.005 0
5.64 0.005 0
5.68 0.005 0
5.72 0.005 0
5.76 0.005 0
5.8 0.005 0
5.84 0.005 0
5.88 0.005 0
5.92 0.005 0
5.96 0.005 0
6 0.005 0
6.04 0.005 0
6.08 0.005 0
6.12 0.005 0
6.16 0.005 0
6.2 0.005 0
6.24 0.005 0
6.28 0.005 0
6.32 0.005 0
6.36 0.005 0
6.4 0.005 0
6.44 0.005 0
6.48 0.005 0
6.52 0.005 0
6.56 0.005 0
6.6 0.005 0
6.64 0.005 0
6.68 0.005 0
6.72 0.005 0
6.76 0.005 0
6.8 0.005 0
6.84 0.005 0
6.88 0.005 0
6.92 0.005 0
6.96 0.005 0
7 0.005 0
7.04 0.005 0
7.08 0.005 0
7.12 0.005 0
7.16 0.005 0
7.2 0.005 0
7.24 0.005 0
7.28 0.005 0
7.32 0.005 0
7.36 0.005 0
7.4 0.005 0
[...]
POINT_DATA 160000

SCALARS v float 1
LOOKUP_TABLE default
0
0
0
0
0
0
0
0
0
0
0
0
0
0
0
0
0
0
0
0
0
0
0
0
0
0
0
0
0
0
0
0
0
0
0
0
0
0
0
0
0
0
0
0
0
0
0
0
0
0
0
0
0
0
0
0
0
0
0
0
0
0
0
0
0
0
0
0
0
0
0
0
0
0
0
0
0
0
0
0
0
0
0
0
0
0
0
0
0
0
0
0
0
0
0
0
0
0
0
0
0
0
0
0
0
0
0
0
0
0
0
0
0
0
0
0
0
0
0
0
0
0
0
0
0
0
0
0
0
0
0
0
0
0
0
0
0
0
0
0
0
0
0
0
0
0
0
0
0
0
0
0
0
0
0
0
0
0
0
0
0
0
0
0
0
0
0
0
0
0
0
0
0
0
0
0
0
0
0
0
0
0
0
0
0
0
0
0
0
0
0
0
0
0
0
0
0
0
0
0
0
0
0
0
0
0
0
0
0
0
0
0
0
0
0
0
0
0
0
0
0
0
0
0
0
0
0
0
0
0
0
0
0
0
0
0
0
0
0
0
0
0
0
0
0
0
0
0
0
0
0
0
0
0
0
0
0
0
0
0
0
0
0
0
0
0
0
0
0
0
0
0
0
0
0
0
0
0
0
0
0
0
0
0
0
0
0
0
0
0
0
0
0
0
0
0
0
0
0
0
0
0
0
0
0
0
0
0
0
0
0
0
0
0
0
0
0
0
0
0
0
0
0
0
0
0
0
0
0
0
0
0
0
0
0
0
0
0
0
0
0
0
0
0
0
0
0
0
0
0
0
0
0
0
0
0
0
0
0
0
0
0
0
0
0
0
0
0
0
0
0
0
0
0
0
0
0
0
0
0
0
0
0
0
0
0
0
0
0
0
0
0
0
0
0
0
0
0
0
0
0
0
0
0
0
0
0
0
0
0
0
0
0
0
0
0
0
0
0
0
0
0
0
0
0
0
0
0
0
0
0
0
0
0
0
0
0
0
0
0
0
0
0
0
0
0
0
0
0
0
0
0
0
0
0
0
0
0
0
0
0
0
0
0
0
0
0
0
0
0
0
0
0
0
0
0
0
0
0
0
0
0
0
0
0
0
0
0
0
0
0
0
0
0
0
0
0
0
0
0
0
0
0
0
0
0
0
0
0
0
0
0
0
0
0
0
0
0
0
0
0
0
0
0
0
0
0
0
0
0
0
0
0
0
0
0
0
0
0
0
0
0
0
0
0
0
0
0
0
0
0
0
0
0
0
0
0
0
0
0
0
0
0
0
0
0
0
0
0
0
0
0
0
0
0
0
0
0
0
0
0
0
0
0
0
0
0
0
0
0
0
0
0
0
0
0
0
0
0
0
0
0
0
0
0
0
0
0
0
0
0
0
0
0
0
0
0
0
0
0
0
0
0
0
0
0
0
0
0
0
0
0
0
0
0
0
0
0
0
0
0
0
0
0
0
0
0
0
0
0
0
0
0
0
0
0
0
0
0
0
0
0
0
0
0
0
0
0
0
0
0
0
0
0
0
0
0
0
0
0
0
0
0
0
0
0
0
0
0
0
0
0
0
0
0
0
0
0
0
0
0
0
0
0
0
0
0
0
0
0
0
0
0
0
0
0
0
0
0
0
0
0
0
0
0
0
0
0
0
0
0
0
0
0
0
0
0
0
0
0
0
0
0
0
0
0
0
0
0
0
0
0
0
0
0
0
0
0
0
0
0
0
0
0
0
0
0
0
0
0
0
0
0
0
0
0
0
0
0
0
0
0
0
0
0
0
0
0
0
0
0
0
0
0
0
0
0
0
0
0
0
0
0.0374157
0.00938105
0.00346789
0.00176627
0.00108079
0.000737033
0.000538256
0.000411711
0.000325512
0.000263823
0.000218002
0.000182972
0.00015557
0.000133734
0.000116061
0.00010157
8.9551e-05
7.94831e-05
7.09733e-05
6.37213e-05
5.74946e-05
5.21104e-05
4.7424e-05
4.33193e-05
3.9703e-05
3.64989e-05
3.36451e-05
3.10902e-05
2.87921e-05
2.67155e-05
2.48311e-05
2.31142e-05
2.1544e-05
2.01028e-05
1.87758e-05
1.755e-05
1.64145e-05
1.53598e-05
1.43776e-05
1.3461e-05
1.26035e-05
1.17998e-05
1.10451e-05
1.03352e-05
9.66624e-06
9.03493e-06
8.4383e-06
7.87366e-06
7.33861e-06
6.83099e-06
6.34885e-06
5.89041e-06
5.45406e-06
5.03832e-06
4.64185e-06
4.26343e-06
3.90192e-06
3.55629e-06
3.22557e-06
2.9089e-06
2.60544e-06
2.31446e-06
2.03524e-06
1.76714e-06
1.50956e-06
1.26192e-06
1.0237e-06
7.94417e-07
5.73617e-07
3.60868e-07
1.55765e-07
-4.20672e-08
-2.3298e-07
-4.17303e-07
-5.95346e-07
-7.67403e-07
-9.3375e-07
-1.09465e-06
-1.25034e-06
-1.40105e-06
-1.547e-06
-1.68841e-06
-1.82545e-06
-1.95832e-06
-2.0872e-06
-2.21225e-06
-2.33361e-06
-2.45145e-06
-2.5659e-06
-2.6771e-06
-2.78517e-06
-2.89023e-06
-2.99241e-06
-3.09181e-06
-3.18854e-06
-3.28269e-06
-3.37436e-06
-3.46365e-06
-3.55062e-06
-3.63538e-06
-3.718e-06
-3.79855e-06
-3.8771e-06
-3.95372e-06
-4.02849e-06
-4.10146e-06
-4.17269e-06
-4.24224e-06
-4.31017e-06
-4.37653e-06
-4.44136e-06
-4.50473e-06
-4.56668e-06
-4.62724e-06
-4.68647e-06
-4.7444e-06
-4.80107e-06
-4.85654e-06
-4.91082e-06
-4.96396e-06
-5.01599e-06
-5.06695e-06
-5.11685e-06
-5.16574e-06
-5.21364e-06
-5.26059e-06
-5.30662e-06
-5.35173e-06
-5.39597e-06
-5.43935e-06
-5.48191e-06
-5.52365e-06
-5.56461e-06
-5.60481e-06
-5.64426e-06
-5.68299e-06
-5.72102e-06
-5.75835e-06
-5.79502e-06
-5.83103e-06
-5.86641e-06
-5.90118e-06
-5.93534e-06
-5.96891e-06
-6.00191e-06
-6.03435e-06
-6.06624e-06
-6.0976e-06
-6.12845e-06
-6.15878e-06
-6.18862e-06
-6.21797e-06
-6.24687e-06
-6.27529e-06
-6.30326e-06
-6.3308e-06
-6.3579e-06
-6.38459e-06
-6.41086e-06
-6.43673e-06
-6.46221e-06
-6.4873e-06
-6.51202e-06
-6.53637e-06
-6.56037e-06
-6.584e-06
-6.6073e-06
-6.63025e-06
-6.65288e-06
-6.67518e-06
-6.69717e-06
-6.71884e-06
-6.74021e-06
-6.76128e-06
-6.78206e-06
-6.80255e-06
-6.82276e-06
-6.8427e-06
-6.86236e-06
-6.88176e-06
-6.9009e-06
-6.91979e-06
-6.93842e-06
-6.95681e-06
-6.97496e-06
-6.99287e-06
-7.01055e-06
-7.028e-06
-7.04522e-06
-7.06223e-06
-7.07902e-06
-7.09559e-06
-7.11196e-06
-7.12812e-06
-7.14408e-06
-7.15984e-06
-7.17541e-06
-7.19078e-06
-7.20597e-06
-7.22097e-06
-7.23579e-06
-7.25043e-06
-7.26489e-06
-7.27918e-06
-7.29329e-06
-7.30724e-06
-7.32102e-06
-7.33464e-06
-7.34811e-06
-7.3614e-06
-7.37455e-06
-7.38754e-06
-7.40038e-06
-7.41307e-06
-7.42562e-06
-7.43802e-06
-7.45028e-06
-7.46239e-06
-7.47438e-06
-7.48622e-06
-7.49794e-06
-7.50951e-06
-7.52096e-06
-7.53228e-06
-7.54347e-06
-7.55453e-06
-7.56547e-06
-7.5763e-06
-7.587e-06
-7.59758e-06
-7.60805e-06
-7.6184e-06
-7.62863e-06
-7.63876e-06
-7.64878e-06
-7.65868e-06
-7.66847e-06
-7.67816e-06
-7.68775e-06
-7.69724e-06
-7.70662e-06
-7.71589e-06
-7.72507e-06
-7.73415e-06
-7.74314e-06
-7.75202e-06
-7.76081e-06
-7.76951e-06
-7.77811e-06
-7.78663e-06
-7.79505e-06
-7.80338e-06
-7.81162e-06
-7.81978e-06
-7.82786e-06
-7.83584e-06
-7.84375e-06
-7.85157e-06
-7.85931e-06
-7.86696e-06
-7.87454e-06
-7.88203e-06
-7.88945e-06
-7.89679e-06
-7.90406e-06
-7.91125e-06
-7.91837e-06
-7.92541e-06
-7.93237e-06
-7.93927e-06
-7.9461e-06
-7.95284e-06
-7.95952e-06
-7.96614e-06
-7.97269e-06
-7.97916e-06
-7.98557e-06
-7.99192e-06
-7.99819e-06
-8.0044e-06
-8.01055e-06
-8.01664e-06
-8.02267e-06
-8.02862e-06
-8.03452e-06
-8.04036e-06
-8.04614e-06
-8.05186e-06
-8.05752e-06
-8.06312e-06
-8.06866e-06
-8.07415e-06
-8.07957e-06
-8.08495e-06
-8.09027e-06
-8.09554e-06
-8.10075e-06
-8.10591e-06
-8.11101e-06
-8.11607e-06
-8.12108e-06
-8.12603e-06
-8.13094e-06
-8.1358e-06
-8.14061e-06
-8.14537e-06
-8.15009e-06
-8.15476e-06
-8.15939e-06
-8.16397e-06
-8.16852e-06
-8.17302e-06
-8.17749e-06
-8.18191e-06
-8.1863e-06
-8.19065e-06
-8.19497e-06
-8.19925e-06
-8.20349e-06
-8.20771e-06
-8.21189e-06
-8.21604e-06
-8.22017e-06
-8.22426e-06
-8.22834e-06
-8.23238e-06
-8.2364e-06
-8.2404e-06
-8.24438e-06
-8.24833e-06
-8.25226e-06
-8.25618e-06
-8.26007e-06
-8.26395e-06
-8.26781e-06
-8.27166e-06
-8.27549e-06
-8.2793e-06
-8.28311e-06
-8.2869e-06
-8.29068e-06
-8.29444e-06
-8.2982e-06
-8.30195e-06
-8.30568e-06
-8.30941e-06
-8.31312e-06
-8.31683e-06
-8.32054e-06
-8.32423e-06
-8.32792e-06
-8.33159e-06
-8.33526e-06
-8.33892e-06
-8.34258e-06
-8.34622e-06
-8.34986e-06
-8.35349e-06
-8.35712e-06
-8.36073e-06
-8.36434e-06
-8.36794e-06
-8.37153e-06
-8.37511e-06
-8.37868e-06
-8.38224e-06
-8.38579e-06
-8.38933e-06
-8.39286e-06
-8.39638e-06
-8.39988e-06
-8.40337e-06
-8.40685e-06
-8.41031e-06
-8.41376e-06
-8.4172e-06
-8.42062e-06
-8.42402e-06
-8.4274e-06
-8.43077e-06
-8.43411e-06
-8.43744e-06
-8.44075e-06
-8.44403e-06
-8.4473e-06
-8.45054e-06
-8.45377e-06
-8.45697e-06
-8.46013e-06
-8.46328e-06
-8.4664e-06
-8.46949e-06
-8.47256e-06
-8.4756e-06
-8.47861e-06
-8.48159e-06
-8.48455e-06
-8.48747e-06
-8.49036e-06
-8.49322e-06
-8.49605e-06
-8.49884e-06
-8.5016e-06
-8.50433e-06
-8.50703e-06
-8.50969e-06
-8.51231e-06
-8.5149e-06
-8.51745e-06
-8.51996e-06
-8.52244e-06
-8.52488e-06
-8.52728e-06
-8.52964e-06
-8.53197e-06
-8.53427e-06
-8.53652e-06
-8.53873e-06
-8.54091e-06
-8.54304e-06
-8.54513e-06
-8.54719e-06
-8.54921e-06
-8.55119e-06
-8.55313e-06
-8.55503e-06
-8.55688e-06
-8.55871e-06
-8.56049e-06
-8.56223e-06
-8.56393e-06
-8.5656e-06
-8.56723e-06
-8.56882e-06
-8.57036e-06
-8.57187e-06
-8.57334e-06
-8.57478e-06
-8.57618e-06
-8.57754e-06
-8.57886e-06
-8.58015e-06
-8.5814e-06
-8.58262e-06
-8.5838e-06
-8.58494e-06
-8.58605e-06
-8.58713e-06
-8.58818e-06
-8.58919e-06
-8.59016e-06
-8.59111e-06
-8.59203e-06
-8.59291e-06
-8.59376e-06
-8.59458e-06
-8.59537e-06
-8.59614e-06
-8.59687e-06
-8.59758e-06
-8.59826e-06
-8.59891e-06
-8.59953e-06
-8.60014e-06
-8.60072e-06
-8.60127e-06
-8.6018e-06
-8.6023e-06
-8.60278e-06
-8.60324e-06
-8.60369e-06
-8.60411e-06
-8.6045e-06
-8.60489e-06
-8.60525e-06
-8.60559e-06
-8.60591e-06
-8.60622e-06
-8.60651e-06
-8.60679e-06
-8.60706e-06
-8.6073e-06
-8.60754e-06
-8.60776e-06
-8.60796e-06
-8.60815e-06
-8.60834e-06
-8.60851e-06
-8.60867e-06
-8.60882e-06
-8.60896e-06
-8.6091e-06
-8.60922e-06
-8.60934e-06
-8.60945e-06
-8.60955e-06
-8.60964e-06
-8.60973e-06
-8.60981e-06
-8.60988e-06
-8.60995e-06
-8.61002e-06
-8.61008e-06
-8.61014e-06
-8.61019e-06
-8.61024e-06
-8.61029e-06
-8.61033e-06
-8.61036e-06
-8.6104e-06
-8.61044e-06
-8.61048e-06
-8.61051e-06
-8.61054e-06
-8.61057e-06
-8.61059e-06
-8.61062e-06
-8.61065e-06
-8.61068e-06
-8.6107e-06
-8.61072e-06
-8.61075e-06
-8.61078e-06
-8.6108e-06
-8.61082e-06
-8.61084e-06
-8.61087e-06
-8.61089e-06
-8.61092e-06
-8.61094e-06
-8.61097e-06
-8.61098e-06
-8.61101e-06
-8.61103e-06
-8.61106e-06
-8.61108e-06
-8.6111e-06
-8.61112e-06
-8.61115e-06
-8.61117e-06
-8.6112e-06
-8.61122e-06
-8.61124e-06
-8.61127e-06
-8.61129e-06
-8.61131e-06
-8.61134e-06
-8.61136e-06
-8.61138e-06
-8.6114e-06
-8.61143e-06
-8.61145e-06
-8.61148e-06
-8.6115e-06
-8.61152e-06
-8.61154e-06
-8.61157e-06
-8.61159e-06
-8.61161e-06
-8.61164e-06
-8.61166e-06
-8.61168e-06
-8.61171e-06
-8.61173e-06
-8.61176e-06
-8.61178e-06
-8.6118e-06
-8.61183e-06
-8.61185e-06
-8.61187e-06
-8.6119e-06
-8.61192e-06
-8.61194e-06
-8.61196e-06
-8.61199e-06
-8.61201e-06
-8.61204e-06
-8.61206e-06
-8.61208e-06
-8.6121e-06
-8.61213e-06
-8.61215e-06
-8.61217e-06
-8.61219e-06
-8.61222e-06
-8.61225e-06
-8.61227e-06
-8.6123e-06
-8.61232e-06
-8.61234e-06
-8.61237e-06
-8.61239e-06
-8.61241e-06
-8.61243e-06
-8.61246e-06
-8.61249e-06
-8.61251e-06
-8.61253e-06
-8.61256e-06
-8.61258e-06
-8.61259e-06
-8.61262e-06
-8.61265e-06
-8.61267e-06
-8.61269e-06
-8.61271e-06
-8.61274e-06
-8.61276e-06
-8.61279e-06
-8.61281e-06
-8.61283e-06
-8.61286e-06
-8.61288e-06
-8.6129e-06
-8.61293e-06
-8.61295e-06
-8.61298e-06
-8.613e-06
-8.61302e-06
-8.61305e-06
-8.61307e-06
-8.61309e-06
-8.61311e-06
-8.61314e-06
-8.61316e-06
-8.61319e-06
-8.61322e-06
-8.61324e-06
-8.61326e-06
-8.61328e-06
-8.6133e-06
-8.61333e-06
-8.61335e-06
-8.61337e-06
-8.6134e-06
-8.61342e-06
-8.61345e-06
-8.61347e-06
-8.61349e-06
-8.61352e-06
-8.61354e-06
-8.61357e-06
-8.61359e-06
-8.61361e-06
-8.61364e-06
-8.61366e-06
-8.61368e-06
-8.61371e-06
-8.61373e-06
-8.61375e-06
-8.61378e-06
-8.61381e-06
-8.61383e-06
-8.61385e-06
-8.61387e-06
-8.61389e-06
-8.61392e-06
-8.61394e-06
-8.61396e-06
-8.61399e-06
-8.61402e-06
-8.61404e-06
-8.61406e-06
-8.61409e-06
-8.61411e-06
-8.61413e-06
-8.61416e-06
-8.61419e-06
-8.61421e-06
-8.61423e-06
-8.61426e-06
-8.61428e-06
-8.6143e-06
-8.61432e-06
-8.61435e-06
-8.61438e-06
-8.6144e-06
-8.61442e-06
-8.61444e-06
-8.61446e-06
-8.61449e-06
-8.61451e-06
-8.61454e-06
-8.61456e-06
-8.61459e-06
-8.61461e-06
-8.61464e-06
-8.61466e-06
-8.61468e-06
-8.61471e-06
-8.61473e-06
-8.61475e-06
-8.61478e-06
-8.6148e-06
-8.61483e-06
-8.61485e-06
-8.61487e-06
-8.6149e-06
-8.61492e-06
-8.61495e-06
-8.61497e-06
-8.61499e-06
-8.61501e-06
-8.61504e-06
-8.61507e-06
-8.61509e-06
-8.61511e-06
-8.61513e-06
-8.61516e-06
-8.61519e-06
-8.61521e-06
-8.61523e-06
-8.61525e-06
-8.61528e-06
-8.61531e-06
-8.61533e-06
-8.61535e-06
-8.61537e-06
-8.6154e-06
-8.61542e-06
-8.61545e-06
-8.61547e-06
-8.61549e-06
-8.61551e-06
-8.61554e-06
-8.61557e-06
-8.61559e-06
-8.61562e-06
-8.61564e-06
-8.61566e-06
-8.61569e-06
-8.61571e-06
-8.61573e-06
-8.61576e-06
-8.61578e-06
-8.6158e-06
-8.61583e-06
-8.61586e-06
-8.61588e-06
-8.61591e-06
-8.61593e-06
-8.61595e-06
-8.61597e-06
-8.61599e-06
-8.61602e-06
-8.61605e-06
-8.61607e-06
-8.61609e-06
-8.61612e-06
-8.61614e-06
-8.61616e-06
-8.61619e-06
-8.61621e-06
-8.61624e-06
-8.61626e-06
-8.61628e-06
-8.6163e-06
-8.61633e-06
-8.61635e-06
-8.61637e-06
-8.61639e-06
-8.61641e-06
-8.61643e-06
-8.61644e-06
-8.61646e-06
-8.61647e-06
-8.61648e-06
-8.61648e-06
-8.61648e-06
-8.61647e-06
-8.61646e-06
-8.61643e-06
-8.61639e-06
-8.61633e-06
-8.61625e-06
-8.61614e-06
-8.616e-06
-8.61582e-06
-8.61556e-06
-8.61525e-06
-8.61483e-06
-8.61432e-06
-8.61362e-06
-8.61279e-06
-8.61161e-06
-8.61027e-06
-8.60827e-06
-8.60617e-06
-8.60267e-06
-8.59949e-06
-8.59287e-06
-8.58866e-06
-8.57411e-06
-8.573e-06
-8.52959e-06
-8.60372e-06
-6.08303e-06
-6.08303e-06
0
0
0.09661
0.0320526
0.0130061
0.00682628
0.00423598
0.00291404
0.0021424
0.00164833
0.00131046
0.00106798
0.000887474
0.000749226
0.000640921
0.000554499
0.000484474
0.000426995
0.00037928
0.000339277
0.000305441
0.000276588
0.000251801
0.000230359
0.000211689
0.000195332
0.000180919
0.000168147
0.00015677
0.000146586
0.000137426
0.00012915
0.00012164
0.0001148
0.000108545
0.000102806
9.75223e-05
9.2643e-05
8.81242e-05
8.3928e-05
8.00216e-05
7.63763e-05
7.29675e-05
6.97732e-05
6.67742e-05
6.39537e-05
6.12965e-05
5.87894e-05
5.64203e-05
5.41787e-05
5.2055e-05
5.00404e-05
4.81272e-05
4.63083e-05
4.45773e-05
4.29282e-05
4.13557e-05
3.9855e-05
3.84214e-05
3.7051e-05
3.57398e-05
3.44844e-05
3.32815e-05
3.2128e-05
3.10214e-05
2.99588e-05
2.89379e-05
2.79566e-05
2.70126e-05
2.61041e-05
2.52293e-05
2.43863e-05
2.35737e-05
2.279e-05
2.20336e-05
2.13035e-05
2.05982e-05
1.99166e-05
1.92577e-05
1.86205e-05
1.80038e-05
1.74069e-05
1.68288e-05
1.62688e-05
1.57261e-05
1.51999e-05
1.46895e-05
1.41943e-05
1.37137e-05
1.32471e-05
1.27939e-05
1.23536e-05
1.19257e-05
1.15097e-05
1.11051e-05
1.07116e-05
1.03286e-05
9.95583e-06
9.59289e-06
9.23943e-06
8.89509e-06
8.55954e-06
8.23248e-06
7.91362e-06
7.60265e-06
7.29932e-06
7.00335e-06
6.71451e-06
6.43254e-06
6.15723e-06
5.88835e-06
5.62569e-06
5.36905e-06
5.11824e-06
4.87306e-06
4.63335e-06
4.39894e-06
4.16965e-06
3.94533e-06
3.72582e-06
3.51098e-06
3.30067e-06
3.09476e-06
2.89312e-06
2.69562e-06
2.50214e-06
2.31255e-06
2.12675e-06
1.94464e-06
1.76611e-06
1.59105e-06
1.41938e-06
1.25099e-06
1.0858e-06
9.23725e-07
7.64674e-07
6.08567e-07
4.55328e-07
3.04882e-07
1.57157e-07
1.20803e-08
-1.30418e-07
-2.70406e-07
-4.07944e-07
-5.43093e-07
-6.75914e-07
-8.06464e-07
-9.348e-07
-1.06098e-06
-1.18505e-06
-1.30706e-06
-1.42707e-06
-1.54511e-06
-1.66124e-06
-1.77552e-06
-1.88796e-06
-1.99861e-06
-2.10753e-06
-2.21474e-06
-2.32029e-06
-2.42421e-06
-2.52654e-06
-2.62732e-06
-2.72657e-06
-2.82434e-06
-2.92066e-06
-3.01554e-06
-3.10903e-06
-3.20116e-06
-3.29195e-06
-3.38143e-06
-3.46963e-06
-3.55658e-06
-3.64229e-06
-3.72679e-06
-3.81012e-06
-3.89229e-06
-3.97333e-06
-4.05325e-06
-4.13208e-06
-4.20984e-06
-4.28655e-06
-4.36223e-06
-4.43691e-06
-4.51059e-06
-4.58329e-06
-4.65505e-06
-4.72587e-06
-4.79576e-06
-4.86475e-06
-4.93285e-06
-5.00008e-06
-5.06645e-06
-5.13199e-06
-5.19669e-06
-5.26058e-06
-5.32368e-06
-5.38598e-06
-5.44752e-06
-5.5083e-06
-5.56833e-06
-5.62763e-06
-5.6862e-06
-5.74406e-06
-5.80123e-06
-5.8577e-06
-5.9135e-06
-5.96863e-06
-6.02311e-06
-6.07695e-06
-6.13014e-06
-6.18271e-06
-6.23466e-06
-6.28601e-06
-6.33676e-06
-6.38692e-06
-6.4365e-06
-6.48551e-06
-6.53395e-06
-6.58184e-06
-6.62919e-06
-6.676e-06
-6.72228e-06
-6.76802e-06
-6.81326e-06
-6.85798e-06
-6.9022e-06
-6.94593e-06
-6.98917e-06
-7.03193e-06
-7.07422e-06
-7.11603e-06
-7.15738e-06
-7.19827e-06
-7.23872e-06
-7.27873e-06
-7.3183e-06
-7.35743e-06
-7.39613e-06
-7.43442e-06
-7.47229e-06
-7.50975e-06
-7.5468e-06
-7.58346e-06
-7.61971e-06
-7.65558e-06
-7.69107e-06
-7.72617e-06
-7.7609e-06
-7.79525e-06
-7.82925e-06
-7.86288e-06
-7.89615e-06
-7.92906e-06
-7.96163e-06
-7.99386e-06
-8.02574e-06
-8.05729e-06
-8.08851e-06
-8.1194e-06
-8.14996e-06
-8.1802e-06
-8.21012e-06
-8.23973e-06
-8.26903e-06
-8.29803e-06
-8.32673e-06
-8.35512e-06
-8.38322e-06
-8.41102e-06
-8.43854e-06
-8.46577e-06
-8.49272e-06
-8.51938e-06
-8.54576e-06
-8.57188e-06
-8.59773e-06
-8.62331e-06
-8.64862e-06
-8.67368e-06
-8.69847e-06
-8.723e-06
-8.74728e-06
-8.77132e-06
-8.79511e-06
-8.81864e-06
-8.84194e-06
-8.865e-06
-8.88782e-06
-8.9104e-06
-8.93274e-06
-8.95486e-06
-8.97676e-06
-8.99842e-06
-9.01987e-06
-9.0411e-06
-9.06211e-06
-9.08291e-06
-9.1035e-06
-9.12388e-06
-9.14405e-06
-9.16403e-06
-9.1838e-06
-9.20338e-06
-9.22277e-06
-9.24197e-06
-9.26098e-06
-9.27981e-06
-9.29846e-06
-9.31694e-06
-9.33525e-06
-9.35339e-06
-9.37137e-06
-9.38919e-06
-9.40685e-06
-9.42437e-06
-9.44174e-06
-9.45896e-06
-9.47605e-06
-9.49301e-06
-9.50984e-06
-9.52654e-06
-9.54312e-06
-9.55958e-06
-9.57594e-06
-9.59219e-06
-9.60834e-06
-9.62439e-06
-9.64034e-06
-9.65621e-06
-9.672e-06
-9.6877e-06
-9.70333e-06
-9.71888e-06
-9.73436e-06
-9.74977e-06
-9.76513e-06
-9.78042e-06
-9.79566e-06
-9.81085e-06
-9.82598e-06
-9.84107e-06
-9.85611e-06
-9.87111e-06
-9.88607e-06
-9.90099e-06
-9.91587e-06
-9.93072e-06
-9.94553e-06
-9.96032e-06
-9.97507e-06
-9.98979e-06
-1.00045e-05
-1.00191e-05
-1.00338e-05
-1.00484e-05
-1.00629e-05
-1.00775e-05
-1.0092e-05
-1.01065e-05
-1.01209e-05
-1.01353e-05
-1.01497e-05
-1.01641e-05
-1.01784e-05
-1.01926e-05
-1.02069e-05
-1.02211e-05
-1.02352e-05
-1.02493e-05
-1.02634e-05
-1.02774e-05
-1.02914e-05
-1.03053e-05
-1.03192e-05
-1.0333e-05
-1.03467e-05
-1.03604e-05
-1.0374e-05
-1.03875e-05
-1.0401e-05
-1.04144e-05
-1.04277e-05
-1.0441e-05
-1.04541e-05
-1.04672e-05
-1.04802e-05
-1.04931e-05
-1.05059e-05
-1.05186e-05
-1.05312e-05
-1.05437e-05
-1.05561e-05
-1.05684e-05
-1.05805e-05
-1.05926e-05
-1.06045e-05
-1.06164e-05
-1.06281e-05
-1.06397e-05
-1.06511e-05
-1.06625e-05
-1.06737e-05
-1.06847e-05
-1.06957e-05
-1.07065e-05
-1.07171e-05
-1.07276e-05
-1.0738e-05
-1.07483e-05
-1.07583e-05
-1.07683e-05
-1.07781e-05
-1.07877e-05
-1.07972e-05
-1.08065e-05
-1.08157e-05
-1.08247e-05
-1.08336e-05
-1.08423e-05
-1.08509e-05
-1.08593e-05
-1.08675e-05
-1.08756e-05
-1.08836e-05
-1.08913e-05
-1.0899e-05
-1.09064e-05
-1.09137e-05
-1.09209e-05
-1.09279e-05
-1.09347e-05
-1.09413e-05
-1.09479e-05
-1.09542e-05
-1.09604e-05
-1.09665e-05
-1.09724e-05
-1.09781e-05
-1.09837e-05
-1.09892e-05
-1.09945e-05
-1.09997e-05
-1.10047e-05
-1.10095e-05
-1.10143e-05
-1.10188e-05
-1.10233e-05
-1.10276e-05
-1.10318e-05
-1.10358e-05
-1.10397e-05
-1.10435e-05
-1.10472e-05
-1.10507e-05
-1.10541e-05
-1.10574e-05
-1.10605e-05
-1.10636e-05
-1.10665e-05
-1.10693e-05
-1.1072e-05
-1.10746e-05
-1.10771e-05
-1.10795e-05
-1.10818e-05
-1.1084e-05
-1.1086e-05
-1.1088e-05
-1.10899e-05
-1.10918e-05
-1.10935e-05
-1.10952e-05
-1.10967e-05
-1.10982e-05
-1.10996e-05
-1.1101e-05
-1.11022e-05
-1.11034e-05
-1.11046e-05
-1.11057e-05
-1.11067e-05
-1.11076e-05
-1.11085e-05
-1.11094e-05
-1.11101e-05
-1.11109e-05
-1.11116e-05
-1.11122e-05
-1.11128e-05
-1.11134e-05
-1.11139e-05
-1.11144e-05
-1.11148e-05
-1.11152e-05
-1.11156e-05
-1.1116e-05
-1.11163e-05
-1.11166e-05
-1.11169e-05
-1.11171e-05
-1.11174e-05
-1.11176e-05
-1.11178e-05
-1.11179e-05
-1.11181e-05
-1.11182e-05
-1.11184e-05
-1.11185e-05
-1.11186e-05
-1.11187e-05
-1.11187e-05
-1.11188e-05
-1.11189e-05
-1.1119e-05
-1.1119e-05
-1.11191e-05
-1.11191e-05
-1.11192e-05
-1.11192e-05
-1.11192e-05
-1.11193e-05
-1.11193e-05
-1.11194e-05
-1.11194e-05
-1.11194e-05
-1.11195e-05
-1.11195e-05
-1.11195e-05
-1.11196e-05
-1.11196e-05
-1.11196e-05
-1.11196e-05
-1.11197e-05
-1.11197e-05
-1.11197e-05
-1.11198e-05
-1.11198e-05
-1.11198e-05
-1.11199e-05
-1.11199e-05
-1.11199e-05
-1.112e-05
-1.112e-05
-1.112e-05
-1.112e-05
-1.11201e-05
-1.11201e-05
-1.11201e-05
-1.11202e-05
-1.11202e-05
-1.11202e-05
-1.11203e-05
-1.11203e-05
-1.11203e-05
-1.11204e-05
-1.11204e-05
-1.11204e-05
-1.11204e-05
-1.11205e-05
-1.11205e-05
-1.11205e-05
-1.11206e-05
-1.11206e-05
-1.11206e-05
-1.11207e-05
-1.11207e-05
-1.11207e-05
-1.11207e-05
-1.11208e-05
-1.11208e-05
-1.11208e-05
-1.11209e-05
-1.11209e-05
-1.11209e-05
-1.1121e-05
-1.1121e-05
-1.1121e-05
-1.11211e-05
-1.11211e-05
-1.11211e-05
-1.11211e-05
-1.11212e-05
-1.11212e-05
-1.11212e-05
-1.11213e-05
-1.11213e-05
-1.11213e-05
-1.11214e-05
-1.11214e-05
-1.11214e-05
-1.11215e-05
-1.11215e-05
-1.11215e-05
-1.11215e-05
-1.11216e-05
-1.11216e-05
-1.11216e-05
-1.11217e-05
-1.11217e-05
-1.11217e-05
-1.11218e-05
-1.11218e-05
-1.11218e-05
-1.11219e-05
-1.11219e-05
-1.11219e-05
-1.11219e-05
-1.1122e-05
-1.1122e-05
-1.1122e-05
-1.11221e-05
-1.11221e-05
-1.11221e-05
-1.11222e-05
-1.11222e-05
-1.11222e-05
-1.11223e-05
-1.11223e-05
-1.11223e-05
-1.11224e-05
-1.11224e-05
-1.11224e-05
-1.11224e-05
-1.11225e-05
-1.11225e-05
-1.11225e-05
-1.11226e-05
-1.11226e-05
-1.11226e-05
-1.11227e-05
-1.11227e-05
-1.11227e-05
-1.11228e-05
-1.11228e-05
-1.11228e-05
-1.11229e-05
-1.11229e-05
-1.11229e-05
-1.11229e-05
-1.1123e-05
-1.1123e-05
-1.1123e-05
-1.11231e-05