# vtk DataFile Version 2.0
FlowField
ASCII
DATASET STRUCTURED_GRID
DIMENSIONS 800 1 200
POINTS 160000 float
0 0 0
0.04 0 0
0.08 0 0
0.12 0 0
0.16 0 0
0.2 0 0
0.24 0 0
0.28 0 0
0.32 0 0
0.36 0 0
0.4 0 0
0.44 0 0
0.48 0 0
0.52 0 0
0.56 0 0
0.6 0 0
0.64 0 0
0.68 0 0
0.72 0 0
0.76 0 0
0.8 0 0
0.84 0 0
0.88 0 0
0.92 0 0
0.96 0 0
1 0 0
1.04 0 0
1.08 0 0
1.12 0 0
1.16 0 0
1.2 0 0
1.24 0 0
1.28 0 0
1.32 0 0
1.36 0 0
1.4 0 0
1.44 0 0
1.48 0 0
1.52 0 0
1.56 0 0
1.6 0 0
1.64 0 0
1.68 0 0
1.72 0 0
1.76 0 0
1.8 0 0
1.84 0 0
1.88 0 0
1.92 0 0
1.96 0 0
2 0 0
2.04 0 0
2.08 0 0
2.12 0 0
2.16 0 0
2.2 0 0
2.24 0 0
2.28 0 0
2.32 0 0
2.36 0 0
2.4 0 0
2.44 0 0
2.48 0 0
2.52 0 0
2.56 0 0
2.6 0 0
2.64 0 0
2.68 0 0
2.72 0 0
2.76 0 0
2.8 0 0
2.84 0 0
2.88 0 0
2.92 0 0
2.96 0 0
3 0 0
3.04 0 0
3.08 0 0
3.12 0 0
3.16 0 0
3.2 0 0
3.24 0 0
3.28 0 0
3.32 0 0
3.36 0 0
3.4 0 0
3.44 0 0
3.48 0 0
3.52 0 0
3.56 0 0
3.6 0 0
3.64 0 0
3.68 0 0
3.72 0 0
3.76 0 0
3.8 0 0
3.84 0 0
3.88 0 0
3.92 0 0
3.96 0 0
4 0 0
4.04 0 0
4.08 0 0
4.12 0 0
4.16 0 0
4.2 0 0
4.24 0 0
4.28 0 0
4.32 0 0
4.36 0 0
4.4 0 0
4.44 0 0
4.48 0 0
4.52 0 0
4.56 0 0
4.6 0 0
4.64 0 0
4.68 0 0
4.72 0 0
4.76 0 0
4.8 0 0
4.84 0 0
4.88 0 0
4.92 0 0
4.96 0 0
5 0 0
5.04 0 0
5.08 0 0
5.12 0 0
5.16 0 0
5.2 0 0
5.24 0 0
5.28 0 0
5.32 0 0
5.36 0 0
5.4 0 0
5.44 0 0
5.48 0 0
5.52 0 0
5.56 0 0
5.6 0 0
5.64 0 0
5.68 0 0
5.72 0 0
5.76 0 0
5.8 0 0
5.84 0 0
5.88 0 0
5.92 0 0
5.96 0 0
6 0 0
6.04 0 0
6.08 0 0
6.12 0 0
6.16 0 0
6.2 0 0
6.24 0 0
6.28 0 0
6.32 0 0
6.36 0 0
6.4 0 0
6.44 0 0
6.48 0 0
6.52 0 0
6.56 0 0
6.6 0 0
6.64 0 0
6.68 0 0
6.72 0 0
6.76 0 0
6.8 0 0
6.84 0 0
6.88 0 0
6.92 0 0
6.96 0 0
7 0 0
7.04 0 0
7.08 0 0
7.12 0 0
7.16 0 0
7.2 0 0
7.24 0 0
7.28 0 0
7.32 0 0
7.36 0 0
7.4 0 0
7.44 0 0
7.48 0 0
7.52 0 0
7.56 0 0
7.6 0 0
7.64 0 0
7.68 0 0
7.72 0 0
7.76 0 0
7.8 0 0
7.84 0 0
7.88 0 0
7.92 0 0
7.96 0 0
8 0 0
8.04 0 0
8.08 0 0
8.12 0 0
8.16 0 0
8.2 0 0
8.24 0 0
8.28 0 0
8.32 0 0
8.36 0 0
8.4 0 0
8.44 0 0
8.48 0 0
8.52 0 0
8.56 0 0
8.6 0 0
8.64 0 0
8.68 0 0
8.72 0 0
8.76 0 0
8.8 0 0
8.84 0 0
8.88 0 0
8.92 0 0
8.96 0 0
9 0 0
9.04 0 0
9.08 0 0
9.12 0 0
9.16 0 0
9.2 0 0
9.24 0 0
9.28 0 0
9.32 0 0
9.36 0 0
9.4 0 0
9.44 0 0
9.48 0 0
9.52 0 0
9.56 0 0
9.6 0 0
9.64 0 0
9.68 0 0
9.72 0 0
9.76 0 0
9.8 0 0
9.84 0 0
9.88 0 0
9.92 0 0
9.96 0 0
10 0 0
10.04 0 0
10.08 0 0
10.12 0 0
10.16 0 0
10.2 0 0
10.24 0 0
10.28 0 0
10.32 0 0
10.36 0 0
10.4 0 0
10.44 0 0
10.48 0 0
10.52 0 0
10.56 0 0
10.6 0 0
10.64 0 0
10.68 0 0
10.72 0 0
10.76 0 0
10.8 0 0
10.84 0 0
10.88 0 0
10.92 0 0
10.96 0 0
11 0 0
11.04 0 0
11.08 0 0
11.12 0 0
11.16 0 0
11.2 0 0
11.24 0 0
11.28 0 0
11.32 0 0
11.36 0 0
11.4 0 0
11.44 0 0
11.48 0 0
11.52 0 0
11.56 0 0
11.6 0 0
11.64 0 0
11.68 0 0
11.72 0 0
11.76 0 0
11.8 0 0
11.84 0 0
11.88 0 0
11.92 0 0
11.96 0 0
12 0 0
12.04 0 0
12.08 0 0
12.12 0 0
12.16 0 0
12.2 0 0
12.24 0 0
12.28 0 0
12.32 0 0
12.36 0 0
12.4 0 0
12.44 0 0
12.48 0 0
12.52 0 0
12.56 0 0
12.6 0 0
12.64 0 0
12.68 0 0
12.72 0 0
12.76 0 0
12.8 0 0
12.84 0 0
12.88 0 0
12.92 0 0
12.96 0 0
13 0 0
13.04 0 0
13.08 0 0
13.12 0 0
13.16 0 0
13.2 0 0
13.24 0 0
13.28 0 0
13.32 0 0
13.36 0 0
13.4 0 0
13.44 0 0
13.48 0 0
13.52 0 0
13.56 0 0
13.6 0 0
13.64 0 0
13.68 0 0
13.72 0 0
13.76 0 0
13.8 0 0
13.84 0 0
13.88 0 0
13.92 0 0
13.96 0 0
14 0 0
14.04 0 0
14.08 0 0
14.12 0 0
14.16 0 0
14.2 0 0
14.24 0 0
14.28 0 0
14.32 0 0
14.36 0 0
14.4 0 0
14.44 0 0
14.48 0 0
14.52 0 0
14.56 0 0
14.6 0 0
14.64 0 0
14.68 0 0
14.72 0 0
14.76 0 0
14.8 0 0
14.84 0 0
14.88 0 0
14.92 0 0
14.96 0 0
15 0 0
15.04 0 0
15.08 0 0
15.12 0 0
15.16 0 0
15.2 0 0
15.24 0 0
15.28 0 0
15.32 0 0
15.36 0 0
15.4 0 0
15.44 0 0
15.48 0 0
15.52 0 0
15.56 0 0
15.6 0 0
15.64 0 0
15.68 0 0
15.72 0 0
15.76 0 0
15.8 0 0
15.84 0 0
15.88 0 0
15.92 0 0
15.96 0 0
16 0 0
16.04 0 0
16.08 0 0
16.12 0 0
16.16 0 0
16.2 0 0
16.24 0 0
16.28 0 0
16.32 0 0
16.36 0 0
16.4 0 0
16.44 0 0
16.48 0 0
16.52 0 0
16.56 0 0
16.6 0 0
16.64 0 0
16.68 0 0
16.72 0 0
16.76 0 0
16.8 0 0
16.84 0 0
16.88 0 0
16.92 0 0
16.96 0 0
17 0 0
17.04 0 0
17.08 0 0
17.12 0 0
17.16 0 0
17.2 0 0
17.24 0 0
17.28 0 0
17.32 0 0
17.36 0 0
17.4 0 0
17.44 0 0
17.48 0 0
17.52 0 0
17.56 0 0
17.6 0 0
17.64 0 0
17.68 0 0
17.72 0 0
17.76 0 0
17.8 0 0
17.84 0 0
17.88 0 0
17.92 0 0
17.96 0 0
18 0 0
18.04 0 0
18.08 0 0
18.12 0 0
18.16 0 0
18.2 0 0
18.24 0 0
18.28 0 0
18.32 0 0
18.36 0 0
18.4 0 0
18.44 0 0
18.48 0 0
18.52 0 0
18.56 0 0
18.6 0 0
18.64 0 0
18.68 0 0
18.72 0 0
18.76 0 0
18.8 0 0
18.84 0 0
18.88 0 0
18.92 0 0
18.96 0 0
19 0 0
19.04 0 0
19.08 0 0
19.12 0 0
19.16 0 0
19.2 0 0
19.24 0 0
19.28 0 0
19.32 0 0
19.36 0 0
19.4 0 0
19.44 0 0
19.48 0 0
19.52 0 0
19.56 0 0
19.6 0 0
19.64 0 0
19.68 0 0
19.72 0 0
19.76 0 0
19.8 0 0
19.84 0 0
19.88 0 0
19.92 0 0
19.96 0 0
20 0 0
20.04 0 0
20.08 0 0
20.12 0 0
20.16 0 0
20.2 0 0
20.24 0 0
20.28 0 0
20.32 0 0
20.36 0 0
20.4 0 0
20.44 0 0
20.48 0 0
20.52 0 0
20.56 0 0
20.6 0 0
20.64 0 0
20.68 0 0
20.72 0 0
20.76 0 0
20.8 0 0
20.84 0 0
20.88 0 0
20.92 0 0
20.96 0 0
21 0 0
21.04 0 0
21.08 0 0
21.12 0 0
21.16 0 0
21.2 0 0
21.24 0 0
21.28 0 0
21.32 0 0
21.36 0 0
21.4 0 0
21.44 0 0
21.48 0 0
21.52 0 0
21.56 0 0
21.6 0 0
21.64 0 0
21.68 0 0
21.72 0 0
21.76 0 0
21.8 0 0
21.84 0 0
21.88 0 0
21.92 0 0
21.96 0 0
22 0 0
22.04 0 0
22.08 0 0
22.12 0 0
22.16 0 0
22.2 0 0
22.24 0 0
22.28 0 0
22.32 0 0
22.36 0 0
22.4 0 0
22.44 0 0
22.48 0 0
22.52 0 0
22.56 0 0
22.6 0 0
22.64 0 0
22.68 0 0
22.72 0 0
22.76 0 0
22.8 0 0
22.84 0 0
22.88 0 0
22.92 0 0
22.96 0 0
23 0 0
23.04 0 0
23.08 0 0
23.12 0 0
23.16 0 0
23.2 0 0
23.24 0 0
23.28 0 0
23.32 0 0
23.36 0 0
23.4 0 0
23.44 0 0
23.48 0 0
23.52 0 0
23.56 0 0
23.6 0 0
23.64 0 0
23.68 0 0
23.72 0 0
23.76 0 0
23.8 0 0
23.84 0 0
23.88 0 0
23.92 0 0
23.96 0 0
24 0 0
24.04 0 0
24.08 0 0
24.12 0 0
24.16 0 0
24.2 0 0
24.24 0 0
24.28 0 0
24.32 0 0
24.36 0 0
24.4 0 0
24.44 0 0
24.48 0 0
24.52 0 0
24.56 0 0
24.6 0 0
24.64 0 0
24.68 0 0
24.72 0 0
24.76 0 0
24.8 0 0
24.84 0 0
24.88 0 0
24.92 0 0
24.96 0 0
25 0 0
25.04 0 0
25.08 0 0
25.12 0 0
25.16 0 0
25.2 0 0
25.24 0 0
25.28 0 0
25.32 0 0
25.36 0 0
25.4 0 0
25.44 0 0
25.48 0 0
25.52 0 0
25.56 0 0
25.6 0 0
25.64 0 0
25.68 0 0
25.72 0 0
25.76 0 0
25.8 0 0
25.84 0 0
25.88 0 0
25.92 0 0
25.96 0 0
26 0 0
26.04 0 0
26.08 0 0
26.12 0 0
26.16 0 0
26.2 0 0
26.24 0 0
26.28 0 0
26.32 0 0
26.36 0 0
26.4 0 0
26.44 0 0
26.48 0 0
26.52 0 0
26.56 0 0
26.6 0 0
26.64 0 0
26.68 0 0
26.72 0 0
26.76 0 0
26.8 0 0
26.84 0 0
26.88 0 0
26.92 0 0
26.96 0 0
27 0 0
27.04 0 0
27.08 0 0
27.12 0 0
27.16 0 0
27.2 0 0
27.24 0 0
27.28 0 0
27.32 0 0
27.36 0 0
27.4 0 0
27.44 0 0
27.48 0 0
27.52 0 0
27.56 0 0
27.6 0 0
27.64 0 0
27.68 0 0
27.72 0 0
27.76 0 0
27.8 0 0
27.84 0 0
27.88 0 0
27.92 0 0
27.96 0 0
28 0 0
28.04 0 0
28.08 0 0
28.12 0 0
28.16 0 0
28.2 0 0
28.24 0 0
28.28 0 0
28.32 0 0
28.36 0 0
28.4 0 0
28.44 0 0
28.48 0 0
28.52 0 0
28.56 0 0
28.6 0 0
28.64 0 0
28.68 0 0
28.72 0 0
28.76 0 0
28.8 0 0
28.84 0 0
28.88 0 0
28.92 0 0
28.96 0 0
29 0 0
29.04 0 0
29.08 0 0
29.12 0 0
29.16 0 0
29.2 0 0
29.24 0 0
29.28 0 0
29.32 0 0
29.36 0 0
29.4 0 0
29.44 0 0
29.48 0 0
29.52 0 0
29.56 0 0
29.6 0 0
29.64 0 0
29.68 0 0
29.72 0 0
29.76 0 0
29.8 0 0
29.84 0 0
29.88 0 0
29.92 0 0
29.96 0 0
30 0 0
30.04 0 0
30.08 0 0
30.12 0 0
30.16 0 0
30.2 0 0
30.24 0 0
30.28 0 0
30.32 0 0
30.36 0 0
30.4 0 0
30.44 0 0
30.48 0 0
30.52 0 0
30.56 0 0
30.6 0 0
30.64 0 0
30.68 0 0
30.72 0 0
30.76 0 0
30.8 0 0
30.84 0 0
30.88 0 0
30.92 0 0
30.96 0 0
31 0 0
31.04 0 0
31.08 0 0
31.12 0 0
31.16 0 0
31.2 0 0
31.24 0 0
31.28 0 0
31.32 0 0
31.36 0 0
31.4 0 0
31.44 0 0
31.48 0 0
31.52 0 0
31.56 0 0
31.6 0 0
31.64 0 0
31.68 0 0
31.72 0 0
31.76 0 0
31.8 0 0
31.84 0 0
31.88 0 0
31.92 0 0
31.96 0 0
0 0.005 0
0.04 0.005 0
0.08 0.005 0
0.12 0.005 0
0.16 0.005 0
0.2 0.005 0
0.24 0.005 0
0.28 0.005 0
0.32 0.005 0
0.36 0.005 0
0.4 0.005 0
0.44 0.005 0
0.48 0.005 0
0.52 0.005 0
0.56 0.005 0
0.6 0.005 0
0.64 0.005 0
0.68 0.005 0
0.72 0.005 0
0.76 0.005 0
0.8 0.005 0
0.84 0.005 0
0.88 0.005 0
0.92 0.005 0
0.96 0.005 0
1 0.005 0
1.04 0.005 0
1.08 0.005 0
1.12 0.005 0
1.16 0.005 0
1.2 0.005 0
1.24 0.005 0
1.28 0.005 0
1.32 0.005 0
1.36 0.005 0
1.4 0.005 0
1.44 0.005 0
1.48 0.005 0
1.52 0.005 0
1.56 0.005 0
1.6 0.005 0
1.64 0.005 0
1.68 0.005 0
1.72 0.005 0
1.76 0.005 0
1.8 0.005 0
1.84 0.005 0
1.88 0.005 0
1.92 0.005 0
1.96 0.005 0
2 0.005 0
2.04 0.005 0
2.08 0.005 0
2.12 0.005 0
2.16 0.005 0
2.2 0.005 0
2.24 0.005 0
2.28 0.005 0
2.32 0.005 0
2.36 0.005 0
2.4 0.005 0
2.44 0.005 0
2.48 0.005 0
2.52 0.005 0
2.56 0.005 0
2.6 0.005 0
2.64 0.005 0
2.68 0.005 0
2.72 0.005 0
2.76 0.005 0
2.8 0.005 0
2.84 0.005 0
2.88 0.005 0
2.92 0.005 0
2.96 0.005 0
3 0.005 0
3.04 0.005 0
3.08 0.005 0
3.12 0.005 0
3.16 0.005 0
3.2 0.005 0
3.24 0.005 0
3.28 0.005 0
3.32 0.005 0
3.36 0.005 0
3.4 0.005 0
3.44 0.005 0
3.48 0.005 0
3.52 0.005 0
3.56 0.005 0
3.6 0.005 0
3.64 0.005 0
3.68 0.005 0
3.72 0.005 0
3.76 0.005 0
3.8 0.005 0
3.84 0.005 0
3.88 0.005 0
3.92 0.005 0
3.96 0.005 0
4 0.005 0
4.04 0.005 0
4.08 0.005 0
4.12 0.005 0
4.16 0.005 0
4.2 0.005 0
4.24 0.005 0
4.28 0.005 0
4.32 0.005 0
4.36 0.005 0
4.4 0.005 0
4.44 0.005 0
4.48 0.005 0
4.52 0.005 0
4.56 0.005 0
4.6 0.005 0
4.64 0.005 0
4.68 0.005 0
4.72 0.005 0
4.76 0.005 0
4.8 0.005 0
4.84 0.005 0
4.88 0.005 0
4.92 0.005 0
4.96 0.005 0
5 0.005 0
5.04 0.005 0
5.08 0.005 0
5.12 0.005 0
5.16 0.005 0
5.2 0.005 0
5.24 0.005 0
5.28 0.005 0
5.32 0.005 0
5.36 0.005 0
5.4 0.005 0
5.44 0.005 0
5.48 0.005 0
5.52 0.005 0
5.56 0.005 0
5.6 0.005 0
5.64 0.005 0
5.68 0.005 0
5.72 0.005 0
5.76 0.005 0
5.8 0.005 0
5.84 0.005 0
5.88 0.005 0
5.92 0.005 0
5.96 0.005 0
6 0.005 0
6.04 0.005 0
6.08 0.005 0
6.12 0.005 0
6.16 0.005 0
6.2 0.005 0
6.24 0.005 0
6.28 0.005 0
6.32 0.005 0
6.36 0.005 0
6.4 0.005 0
6.44 0.005 0
6.48 0.005 0
6.52 0.005 0
6.56 0.005 0
6.6 0.005 0
6.64 0.005 0
6.68 0.005 0
6.72 0.005 0
6.76 0.005 0
6.8 0.005 0
6.84 0.005 0
6.88 0.005 0
6.92 0.005 0
6.96 0.005 0
7 0.005 0
7.04 0.005 0
7.08 0.005 0
7.12 0.005 0
7.16 0.005 0
7.2 0.005 0
7.24 0.005 0
7.28 0.005 0
7.32 0.005 0
7.36 0.005 0
7.4 0.005 0
[...]
POINT_DATA 160000

SCALARS v float 1
LOOKUP_TABLE default
0
0
0
0
0
0
0
0
0
0
0
0
0
0
0
0
0
0
0
0
0
0
0
0
0
0
0
0
0
0
0
0
0
0
0
0
0
0
0
0
0
0
0
0
0
0
0
0
0
0
0
0
0
0
0
0
0
0
0
0
0
0
0
0
0
0
0
0
0
0
0
0
0
0
0
0
0
0
0
0
0
0
0
0
0
0
0
0
0
0
0
0
0
0
0
0
0
0
0
0
0
0
0
0
0
0
0
0
0
0
0
0
0
0
0
0
0
0
0
0
0
0
0
0
0
0
0
0
0
0
0
0
0
0
0
0
0
0
0
0
0
0
0
0
0
0
0
0
0
0
0
0
0
0
0
0
0
0
0
0
0
0
0
0
0
0
0
0
0
0
0
0
0
0
0
0
0
0
0
0
0
0
0
0
0
0
0
0
0
0
0
0
0
0
0
0
0
0
0
0
0
0
0
0
0
0
0
0
0
0
0
0
0
0
0
0
0
0
0
0
0
0
0
0
0
0
0
0
0
0
0
0
0
0
0
0
0
0
0
0
0
0
0
0
0
0
0
0
0
0
0
0
0
0
0
0
0
0
0
0
0
0
0
0
0
0
0
0
0
0
0
0
0
0
0
0
0
0
0
0
0
0
0
0
0
0
0
0
0
0
0
0
0
0
0
0
0
0
0
0
0
0
0
0
0
0
0
0
0
0
0
0
0
0
0
0
0
0
0
0
0
0
0
0
0
0
0
0
0
0
0
0
0
0
0
0
0
0
0
0
0
0
0
0
0
0
0
0
0
0
0
0
0
0
0
0
0
0
0
0
0
0
0
0
0
0
0
0
0
0
0
0
0
0
0
0
0
0
0
0
0
0
0
0
0
0
0
0
0
0
0
0
0
0
0
0
0
0
0
0
0
0
0
0
0
0
0
0
0
0
0
0
0
0
0
0
0
0
0
0
0
0
0
0
0
0
0
0
0
0
0
0
0
0
0
0
0
0
0
0
0
0
0
0
0
0
0
0
0
0
0
0
0
0
0
0
0
0
0
0
0
0
0
0
0
0
0
0
0
0
0
0
0
0
0
0
0
0
0
0
0
0
0
0
0
0
0
0
0
0
0
0
0
0
0
0
0
0
0
0
0
0
0
0
0
0
0
0
0
0
0
0
0
0
0
0
0
0
0
0
0
0
0
0
0
0
0
0
0
0
0
0
0
0
0
0
0
0
0
0
0
0
0
0
0
0
0
0
0
0
0
0
0
0
0
0
0
0
0
0
0
0
0
0
0
0
0
0
0
0
0
0
0
0
0
0
0
0
0
0
0
0
0
0
0
0
0
0
0
0
0
0
0
0
0
0
0
0
0
0
0
0
0
0
0
0
0
0
0
0
0
0
0
0
0
0
0
0
0
0
0
0
0
0
0
0
0
0
0
0
0
0
0
0
0
0
0
0
0
0
0
0
0
0
0
0
0
0
0
0
0
0
0
0
0
0
0
0
0
0
0
0
0
0
0
0
0
0
0
0
0
0
0
0
0
0
0
0
0
0
0
0
0
0
0
0
0
0
0
0
0
0
0
0
0
0
0
0
0
0
0
0
0
0
0
0
0
0
0
0
0
0
0
0
0
0
0
0
0
0
0
0
0
0
0
0
0
0
0
0
0
0
0
0
0
0
0
0
0
0
0
0
0
0
0
0
0
0
0
0
0
0
0
0
0
0
0
0
0
0
0
0
0
0
0
0
0
0
0
0
0
0
0
0
0
0
0
0
0
0
0
0
0
0
0
0
0
0
0
0
0
0
0
0
0
0
0
0
0
0
0
0
0.0374158
0.00938112
0.00346796
0.00176634
0.00108086
0.000737105
0.000538328
0.000411783
0.000325584
0.000263896
0.000218075
0.000183044
0.000155643
0.000133806
0.000116134
0.000101642
8.96237e-05
7.95558e-05
7.1046e-05
6.37941e-05
5.75674e-05
5.21833e-05
4.74968e-05
4.33922e-05
3.97759e-05
3.65719e-05
3.3718e-05
3.11632e-05
2.8865e-05
2.67885e-05
2.49041e-05
2.31872e-05
2.1617e-05
2.01759e-05
1.88489e-05
1.76231e-05
1.64876e-05
1.54329e-05
1.44508e-05
1.35341e-05
1.26767e-05
1.1873e-05
1.11183e-05
1.04084e-05
9.73942e-06
9.10813e-06
8.5115e-06
7.94687e-06
7.41183e-06
6.90422e-06
6.42209e-06
5.96366e-06
5.52731e-06
5.11158e-06
4.71512e-06
4.3367e-06
3.9752e-06
3.62957e-06
3.29886e-06
2.98219e-06
2.67875e-06
2.38778e-06
2.10857e-06
1.84047e-06
1.58288e-06
1.33524e-06
1.09704e-06
8.67765e-07
6.46965e-07
4.34214e-07
2.29119e-07
3.12978e-08
-1.59609e-07
-3.43929e-07
-5.21966e-07
-6.94017e-07
-8.60361e-07
-1.02126e-06
-1.17694e-06
-1.32765e-06
-1.4736e-06
-1.61499e-06
-1.75204e-06
-1.88492e-06
-2.01378e-06
-2.13881e-06
-2.26017e-06
-2.37801e-06
-2.49246e-06
-2.60365e-06
-2.71172e-06
-2.81678e-06
-2.91896e-06
-3.01836e-06
-3.11508e-06
-3.20923e-06
-3.3009e-06
-3.39017e-06
-3.47715e-06
-3.56191e-06
-3.64452e-06
-3.72506e-06
-3.8036e-06
-3.88023e-06
-3.955e-06
-4.02797e-06
-4.09919e-06
-4.16875e-06
-4.23666e-06
-4.30301e-06
-4.36785e-06
-4.43122e-06
-4.49315e-06
-4.55372e-06
-4.61295e-06
-4.67088e-06
-4.72755e-06
-4.78301e-06
-4.83729e-06
-4.89042e-06
-4.94245e-06
-4.9934e-06
-5.0433e-06
-5.09219e-06
-5.1401e-06
-5.18705e-06
-5.23306e-06
-5.27818e-06
-5.32241e-06
-5.36579e-06
-5.40834e-06
-5.45009e-06
-5.49105e-06
-5.53124e-06
-5.57069e-06
-5.60941e-06
-5.64743e-06
-5.68476e-06
-5.72143e-06
-5.75745e-06
-5.79283e-06
-5.82759e-06
-5.86174e-06
-5.89532e-06
-5.92831e-06
-5.96074e-06
-5.99264e-06
-6.024e-06
-6.05484e-06
-6.08517e-06
-6.11501e-06
-6.14437e-06
-6.17325e-06
-6.20167e-06
-6.22964e-06
-6.25717e-06
-6.28428e-06
-6.31096e-06
-6.33724e-06
-6.3631e-06
-6.38858e-06
-6.41367e-06
-6.43839e-06
-6.46274e-06
-6.48673e-06
-6.51037e-06
-6.53366e-06
-6.55661e-06
-6.57924e-06
-6.60154e-06
-6.62352e-06
-6.64519e-06
-6.66656e-06
-6.68763e-06
-6.70841e-06
-6.7289e-06
-6.7491e-06
-6.76904e-06
-6.78871e-06
-6.80811e-06
-6.82724e-06
-6.84613e-06
-6.86476e-06
-6.88315e-06
-6.9013e-06
-6.91921e-06
-6.93689e-06
-6.95433e-06
-6.97156e-06
-6.98856e-06
-7.00535e-06
-7.02193e-06
-7.0383e-06
-7.05446e-06
-7.07041e-06
-7.08617e-06
-7.10174e-06
-7.11711e-06
-7.1323e-06
-7.1473e-06
-7.16212e-06
-7.17676e-06
-7.19122e-06
-7.20551e-06
-7.21962e-06
-7.23357e-06
-7.24735e-06
-7.26097e-06
-7.27443e-06
-7.28773e-06
-7.30088e-06
-7.31387e-06
-7.32671e-06
-7.3394e-06
-7.35195e-06
-7.36435e-06
-7.37661e-06
-7.38873e-06
-7.40071e-06
-7.41255e-06
-7.42427e-06
-7.43585e-06
-7.44729e-06
-7.45861e-06
-7.4698e-06
-7.48087e-06
-7.49181e-06
-7.50263e-06
-7.51333e-06
-7.52391e-06
-7.53438e-06
-7.54473e-06
-7.55498e-06
-7.5651e-06
-7.57511e-06
-7.58502e-06
-7.59482e-06
-7.60451e-06
-7.6141e-06
-7.62358e-06
-7.63297e-06
-7.64224e-06
-7.65142e-06
-7.6605e-06
-7.66948e-06
-7.67837e-06
-7.68716e-06
-7.69586e-06
-7.70447e-06
-7.71298e-06
-7.7214e-06
-7.72973e-06
-7.73798e-06
-7.74615e-06
-7.75422e-06
-7.76221e-06
-7.77011e-06
-7.77793e-06
-7.78567e-06
-7.79333e-06
-7.8009e-06
-7.8084e-06
-7.81582e-06
-7.82317e-06
-7.83044e-06
-7.83763e-06
-7.84474e-06
-7.85178e-06
-7.85874e-06
-7.86564e-06
-7.87247e-06
-7.87922e-06
-7.88591e-06
-7.89252e-06
-7.89907e-06
-7.90555e-06
-7.91196e-06
-7.91831e-06
-7.92459e-06
-7.9308e-06
-7.93695e-06
-7.94304e-06
-7.94907e-06
-7.95505e-06
-7.96095e-06
-7.96679e-06
-7.97258e-06
-7.9783e-06
-7.98396e-06
-7.98958e-06
-7.99513e-06
-8.00062e-06
-8.00605e-06
-8.01144e-06
-8.01677e-06
-8.02204e-06
-8.02726e-06
-8.03242e-06
-8.03754e-06
-8.0426e-06
-8.04761e-06
-8.05257e-06
-8.05748e-06
-8.06234e-06
-8.06715e-06
-8.07191e-06
-8.07662e-06
-8.08129e-06
-8.08591e-06
-8.09048e-06
-8.09501e-06
-8.09949e-06
-8.10392e-06
-8.1083e-06
-8.11264e-06
-8.11694e-06
-8.1212e-06
-8.12542e-06
-8.1296e-06
-8.13373e-06
-8.1378e-06
-8.14185e-06
-8.14586e-06
-8.14982e-06
-8.15374e-06
-8.15763e-06
-8.16148e-06
-8.16528e-06
-8.16905e-06
-8.17278e-06
-8.17647e-06
-8.18013e-06
-8.18374e-06
-8.18733e-06
-8.19087e-06
-8.19438e-06
-8.19785e-06
-8.2013e-06
-8.20471e-06
-8.20807e-06
-8.2114e-06
-8.2147e-06
-8.21797e-06
-8.22121e-06
-8.22441e-06
-8.22758e-06
-8.23073e-06
-8.23383e-06
-8.23691e-06
-8.23995e-06
-8.24297e-06
-8.24596e-06
-8.24891e-06
-8.25183e-06
-8.25472e-06
-8.25759e-06
-8.26043e-06
-8.26324e-06
-8.26602e-06
-8.26876e-06
-8.27149e-06
-8.27418e-06
-8.27685e-06
-8.2795e-06
-8.28212e-06
-8.2847e-06
-8.28726e-06
-8.2898e-06
-8.29232e-06
-8.29481e-06
-8.29727e-06
-8.2997e-06
-8.30211e-06
-8.3045e-06
-8.30687e-06
-8.30921e-06
-8.31152e-06
-8.31381e-06
-8.31608e-06
-8.31832e-06
-8.32055e-06
-8.32276e-06
-8.32493e-06
-8.32709e-06
-8.32922e-06
-8.33134e-06
-8.33343e-06
-8.33551e-06
-8.33756e-06
-8.33958e-06
-8.34159e-06
-8.34358e-06
-8.34555e-06
-8.3475e-06
-8.34943e-06
-8.35134e-06
-8.35324e-06
-8.35511e-06
-8.35695e-06
-8.35879e-06
-8.36061e-06
-8.3624e-06
-8.36418e-06
-8.36594e-06
-8.36768e-06
-8.36941e-06
-8.37112e-06
-8.37281e-06
-8.37449e-06
-8.37614e-06
-8.37778e-06
-8.3794e-06
-8.38101e-06
-8.38261e-06
-8.38418e-06
-8.38574e-06
-8.38728e-06
-8.38881e-06
-8.39032e-06
-8.39182e-06
-8.3933e-06
-8.39477e-06
-8.39622e-06
-8.39766e-06
-8.39908e-06
-8.40048e-06
-8.40188e-06
-8.40326e-06
-8.40463e-06
-8.40598e-06
-8.40733e-06
-8.40865e-06
-8.40995e-06
-8.41125e-06
-8.41254e-06
-8.41382e-06
-8.41507e-06
-8.41631e-06
-8.41755e-06
-8.41877e-06
-8.41998e-06
-8.42118e-06
-8.42236e-06
-8.42354e-06
-8.4247e-06
-8.42585e-06
-8.42698e-06
-8.42811e-06
-8.42922e-06
-8.43033e-06
-8.43142e-06
-8.43249e-06
-8.43357e-06
-8.43463e-06
-8.43568e-06
-8.43672e-06
-8.43774e-06
-8.43875e-06
-8.43976e-06
-8.44076e-06
-8.44175e-06
-8.44272e-06
-8.44369e-06
-8.44464e-06
-8.44559e-06
-8.44653e-06
-8.44746e-06
-8.44838e-06
-8.44929e-06
-8.45018e-06
-8.45107e-06
-8.45196e-06
-8.45283e-06
-8.45369e-06
-8.45455e-06
-8.45539e-06
-8.45623e-06
-8.45706e-06
-8.45788e-06
-8.45869e-06
-8.4595e-06
-8.4603e-06
-8.46109e-06
-8.46187e-06
-8.46264e-06
-8.4634e-06
-8.46416e-06
-8.46491e-06
-8.46565e-06
-8.46638e-06
-8.46711e-06
-8.46783e-06
-8.46854e-06
-8.46924e-06
-8.46994e-06
-8.47063e-06
-8.47132e-06
-8.47199e-06
-8.47266e-06
-8.47332e-06
-8.47398e-06
-8.47463e-06
-8.47527e-06
-8.47591e-06
-8.47654e-06
-8.47716e-06
-8.47777e-06
-8.47838e-06
-8.479e-06
-8.4796e-06
-8.48018e-06
-8.48076e-06
-8.48134e-06
-8.48192e-06
-8.48249e-06
-8.48306e-06
-8.48361e-06
-8.48416e-06
-8.48471e-06
-8.48525e-06
-8.48579e-06
-8.48631e-06
-8.48683e-06
-8.48735e-06
-8.48787e-06
-8.48838e-06
-8.48888e-06
-8.48937e-06
-8.48987e-06
-8.49036e-06
-8.49084e-06
-8.49132e-06
-8.4918e-06
-8.49226e-06
-8.49272e-06
-8.49318e-06
-8.49363e-06
-8.49409e-06
-8.49453e-06
-8.49497e-06
-8.4954e-06
-8.49584e-06
-8.49627e-06
-8.49669e-06
-8.4971e-06
-8.49751e-06
-8.49792e-06
-8.49833e-06
-8.49874e-06
-8.49913e-06
-8.49953e-06
-8.49992e-06
-8.5003e-06
-8.50068e-06
-8.50106e-06
-8.50143e-06
-8.5018e-06
-8.50216e-06
-8.50253e-06
-8.50289e-06
-8.50324e-06
-8.50359e-06
-8.50394e-06
-8.50429e-06
-8.50463e-06
-8.50497e-06
-8.5053e-06
-8.50563e-06
-8.50596e-06
-8.50628e-06
-8.5066e-06
-8.50692e-06
-8.50723e-06
-8.50754e-06
-8.50785e-06
-8.50816e-06
-8.50847e-06
-8.50876e-06
-8.50905e-06
-8.50935e-06
-8.50964e-06
-8.50993e-06
-8.51021e-06
-8.5105e-06
-8.51078e-06
-8.51105e-06
-8.51132e-06
-8.5116e-06
-8.51187e-06
-8.51214e-06
-8.51241e-06
-8.51267e-06
-8.51292e-06
-8.51318e-06
-8.51344e-06
-8.51369e-06
-8.51394e-06
-8.5142e-06
-8.51445e-06
-8.51469e-06
-8.51493e-06
-8.51517e-06
-8.51541e-06
-8.51565e-06
-8.51589e-06
-8.51612e-06
-8.51635e-06
-8.51658e-06
-8.51681e-06
-8.51704e-06
-8.51726e-06
-8.51748e-06
-8.51771e-06
-8.51793e-06
-8.51814e-06
-8.51836e-06
-8.51858e-06
-8.5188e-06
-8.51902e-06
-8.51923e-06
-8.51944e-06
-8.51965e-06
-8.51985e-06
-8.52005e-06
-8.52026e-06
-8.52047e-06
-8.52067e-06
-8.52088e-06
-8.52108e-06
-8.52128e-06
-8.52148e-06
-8.52168e-06
-8.52188e-06
-8.52207e-06
-8.52227e-06
-8.52247e-06
-8.52266e-06
-8.52285e-06
-8.52304e-06
-8.52323e-06
-8.52342e-06
-8.52361e-06
-8.5238e-06
-8.52399e-06
-8.52417e-06
-8.52435e-06
-8.52453e-06
-8.52472e-06
-8.5249e-06
-8.52509e-06
-8.52527e-06
-8.52544e-06
-8.52563e-06
-8.5258e-06
-8.52598e-06
-8.52615e-06
-8.52632e-06
-8.5265e-06
-8.52667e-06
-8.52685e-06
-8.52702e-06
-8.52718e-06
-8.52735e-06
-8.52752e-06
-8.52769e-06
-8.52785e-06
-8.52802e-06
-8.52818e-06
-8.52835e-06
-8.52851e-06
-8.52867e-06
-8.52883e-06
-8.52898e-06
-8.52914e-06
-8.52929e-06
-8.52945e-06
-8.5296e-06
-8.52975e-06
-8.5299e-06
-8.53005e-06
-8.53019e-06
-8.53034e-06
-8.53048e-06
-8.53063e-06
-8.53077e-06
-8.53092e-06
-8.53106e-06
-8.53119e-06
-8.53132e-06
-8.53146e-06
-8.5316e-06
-8.53173e-06
-8.53186e-06
-8.53199e-06
-8.53212e-06
-8.53224e-06
-8.53236e-06
-8.53248e-06
-8.53261e-06
-8.53273e-06
-8.53284e-06
-8.53296e-06
-8.53308e-06
-8.53319e-06
-8.5333e-06
-8.53341e-06
-8.53351e-06
-8.53362e-06
-8.53373e-06
-8.53383e-06
-8.53393e-06
-8.53403e-06
-8.53413e-06
-8.53423e-06
-8.53432e-06
-8.53442e-06
-8.53451e-06
-8.53459e-06
-8.53468e-06
-8.53477e-06
-8.53485e-06
-8.53493e-06
-8.53502e-06
-8.5351e-06
-8.53518e-06
-8.53525e-06
-8.53532e-06
-8.5354e-06
-8.53547e-06
-8.53554e-06
-8.53561e-06
-8.53567e-06
-8.53573e-06
-8.5358e-06
-8.53586e-06
-8.53593e-06
-8.53598e-06
-8.53603e-06
-8.53609e-06
-8.53615e-06
-8.53621e-06
-8.53626e-06
-8.53631e-06
-8.53635e-06
-8.5364e-06
-8.53645e-06
-8.5365e-06
-8.53654e-06
-8.53658e-06
-8.53663e-06
-8.53667e-06
-8.53671e-06
-8.53674e-06
-8.53678e-06
-8.53681e-06
-8.53684e-06
-8.53687e-06
-8.5369e-06
-8.53693e-06
-8.53696e-06
-8.53698e-06
-8.537e-06
-8.53703e-06
-8.53706e-06
-8.53707e-06
-8.53708e-06
-8.53708e-06
-8.53709e-06
-8.53709e-06
-8.53708e-06
-8.53706e-06
-8.53703e-06
-8.53698e-06
-8.53693e-06
-8.53685e-06
-8.53674e-06
-8.5366e-06
-8.53641e-06
-8.53616e-06
-8.53585e-06
-8.53544e-06
-8.53494e-06
-8.53425e-06
-8.53344e-06
-8.5323e-06
-8.531e-06
-8.52906e-06
-8.52702e-06
-8.52362e-06
-8.52051e-06
-8.51409e-06
-8.50995e-06
-8.4958e-06
-8.49458e-06
-8.45223e-06
-8.52396e-06
-6.02736e-06
-6.02736e-06
0
0
0.0966101
0.0320527
0.0130062
0.00682637
0.00423607
0.00291413
0.00214249
0.00164842
0.00131055
0.00106807
0.000887564
0.000749316
0.000641012
0.00055459
0.000484565
0.000427086
0.000379371
0.000339369
0.000305532
0.00027668
0.000251893
0.000230451
0.000211781
0.000195424
0.000181011
0.000168239
0.000156863
0.000146679
0.000137519
0.000129242
0.000121733
0.000114893
0.000108638
0.000102899
9.76154e-05
9.27362e-05
8.82174e-05
8.40213e-05
8.01148e-05
7.64697e-05
7.30609e-05
6.98666e-05
6.68677e-05
6.40471e-05
6.139e-05
5.88829e-05
5.65139e-05
5.42724e-05
5.21487e-05
5.01341e-05
4.8221e-05
4.64021e-05
4.46711e-05
4.3022e-05
4.14496e-05
3.99489e-05
3.85153e-05
3.71449e-05
3.58338e-05
3.45784e-05
3.33755e-05
3.22221e-05
3.11154e-05
3.00529e-05
2.90321e-05
2.80507e-05
2.71068e-05
2.61983e-05
2.53235e-05
2.44805e-05
2.3668e-05
2.28842e-05
2.21279e-05
2.13978e-05
2.06925e-05
2.0011e-05
1.93521e-05
1.87148e-05
1.80982e-05
1.75013e-05
1.69233e-05
1.63633e-05
1.58206e-05
1.52944e-05
1.4784e-05
1.42889e-05
1.38083e-05
1.33417e-05
1.28885e-05
1.24482e-05
1.20203e-05
1.16043e-05
1.11998e-05
1.08062e-05
1.04233e-05
1.00505e-05
9.68761e-06
9.33416e-06
8.98983e-06
8.65429e-06
8.32726e-06
8.00841e-06
7.69746e-06
7.39413e-06
7.09817e-06
6.80934e-06
6.52739e-06
6.25209e-06
5.98323e-06
5.72059e-06
5.46396e-06
5.21316e-06
4.968e-06
4.7283e-06
4.49389e-06
4.26461e-06
4.04031e-06
3.82081e-06
3.60599e-06
3.3957e-06
3.1898e-06
2.98817e-06
2.79068e-06
2.5972e-06
2.40762e-06
2.22184e-06
2.03974e-06
1.86122e-06
1.68617e-06
1.51451e-06
1.34614e-06
1.18095e-06
1.01889e-06
8.59851e-07
7.03757e-07
5.50533e-07
4.00102e-07
2.52383e-07
1.07311e-07
-3.5184e-08
-1.7516e-07
-3.12684e-07
-4.47825e-07
-5.80638e-07
-7.11171e-07
-8.39498e-07
-9.65672e-07
-1.08973e-06
-1.21173e-06
-1.33173e-06
-1.44978e-06
-1.5659e-06
-1.68015e-06
-1.79258e-06
-1.90322e-06
-2.01213e-06
-2.11934e-06
-2.22489e-06
-2.3288e-06
-2.43112e-06
-2.53189e-06
-2.63114e-06
-2.7289e-06
-2.8252e-06
-2.92008e-06
-3.01357e-06
-3.10569e-06
-3.19647e-06
-3.28594e-06
-3.37413e-06
-3.46107e-06
-3.54677e-06
-3.63128e-06
-3.71461e-06
-3.79677e-06
-3.87779e-06
-3.95771e-06
-4.03654e-06
-4.11429e-06
-4.191e-06
-4.26668e-06
-4.34134e-06
-4.41502e-06
-4.48772e-06
-4.55947e-06
-4.63028e-06
-4.70017e-06
-4.76916e-06
-4.83726e-06
-4.90448e-06
-4.97086e-06
-5.03639e-06
-5.10109e-06
-5.16497e-06
-5.22806e-06
-5.29037e-06
-5.3519e-06
-5.41268e-06
-5.47271e-06
-5.532e-06
-5.59058e-06
-5.64844e-06
-5.7056e-06
-5.76207e-06
-5.81787e-06
-5.873e-06
-5.92748e-06
-5.98131e-06
-6.03451e-06
-6.08708e-06
-6.13903e-06
-6.19038e-06
-6.24113e-06
-6.29129e-06
-6.34087e-06
-6.38988e-06
-6.43833e-06
-6.48622e-06
-6.53357e-06
-6.58037e-06
-6.62665e-06
-6.67241e-06
-6.71764e-06
-6.76236e-06
-6.80659e-06
-6.85032e-06
-6.89356e-06
-6.93632e-06
-6.9786e-06
-7.02042e-06
-7.06177e-06
-7.10268e-06
-7.14313e-06
-7.18314e-06
-7.2227e-06
-7.26184e-06
-7.30055e-06
-7.33884e-06
-7.37671e-06
-7.41418e-06
-7.45124e-06
-7.48789e-06
-7.52415e-06
-7.56002e-06
-7.59551e-06
-7.63062e-06
-7.66535e-06
-7.69971e-06
-7.7337e-06
-7.76733e-06
-7.8006e-06
-7.83353e-06
-7.86611e-06
-7.89834e-06
-7.93023e-06
-7.96178e-06
-7.993e-06
-8.02389e-06
-8.05445e-06
-8.0847e-06
-8.11462e-06
-8.14424e-06
-8.17354e-06
-8.20255e-06
-8.23125e-06
-8.25964e-06
-8.28774e-06
-8.31554e-06
-8.34307e-06
-8.3703e-06
-8.39725e-06
-8.42393e-06
-8.45032e-06
-8.47645e-06
-8.5023e-06
-8.52789e-06
-8.55322e-06
-8.57828e-06
-8.60308e-06
-8.62762e-06
-8.65191e-06
-8.67596e-06
-8.69977e-06
-8.72333e-06
-8.74664e-06
-8.76971e-06
-8.79255e-06
-8.81515e-06
-8.83752e-06
-8.85967e-06
-8.88159e-06
-8.90327e-06
-8.92474e-06
-8.946e-06
-8.96704e-06
-8.98786e-06
-9.00846e-06
-9.02886e-06
-9.04905e-06
-9.06904e-06
-9.08882e-06
-9.1084e-06
-9.12778e-06
-9.14697e-06
-9.16596e-06
-9.18475e-06
-9.20336e-06
-9.22178e-06
-9.24001e-06
-9.25805e-06
-9.27591e-06
-9.29359e-06
-9.31109e-06
-9.32841e-06
-9.34556e-06
-9.36254e-06
-9.37934e-06
-9.39598e-06
-9.41245e-06
-9.42874e-06
-9.44487e-06
-9.46084e-06
-9.47665e-06
-9.4923e-06
-9.50779e-06
-9.52313e-06
-9.5383e-06
-9.55332e-06
-9.5682e-06
-9.58292e-06
-9.59749e-06
-9.61192e-06
-9.6262e-06
-9.64034e-06
-9.65433e-06
-9.66818e-06
-9.68189e-06
-9.69548e-06
-9.70892e-06
-9.72221e-06
-9.73537e-06
-9.74841e-06
-9.76131e-06
-9.77408e-06
-9.78673e-06
-9.79925e-06
-9.81164e-06
-9.8239e-06
-9.83604e-06
-9.84806e-06
-9.85995e-06
-9.87173e-06
-9.88339e-06
-9.89493e-06
-9.90635e-06
-9.91766e-06
-9.92886e-06
-9.93994e-06
-9.95091e-06
-9.96176e-06
-9.97251e-06
-9.98315e-06
-9.99369e-06
-1.00041e-05
-1.00144e-05
-1.00247e-05
-1.00348e-05
-1.00448e-05
-1.00547e-05
-1.00645e-05
-1.00742e-05
-1.00838e-05
-1.00934e-05
-1.01028e-05
-1.01121e-05
-1.01213e-05
-1.01305e-05
-1.01395e-05
-1.01485e-05
-1.01573e-05
-1.01661e-05
-1.01748e-05
-1.01834e-05
-1.01919e-05
-1.02003e-05
-1.02087e-05
-1.02169e-05
-1.02251e-05
-1.02332e-05
-1.02412e-05
-1.02491e-05
-1.0257e-05
-1.02648e-05
-1.02725e-05
-1.02801e-05
-1.02876e-05
-1.02951e-05
-1.03025e-05
-1.03098e-05
-1.0317e-05
-1.03242e-05
-1.03313e-05
-1.03383e-05
-1.03452e-05
-1.03521e-05
-1.03589e-05
-1.03657e-05
-1.03723e-05
-1.03789e-05
-1.03855e-05
-1.03919e-05
-1.03983e-05
-1.04047e-05
-1.0411e-05
-1.04172e-05
-1.04233e-05
-1.04294e-05
-1.04354e-05
-1.04414e-05
-1.04473e-05
-1.04532e-05
-1.0459e-05
-1.04647e-05
-1.04704e-05
-1.0476e-05
-1.04815e-05
-1.0487e-05
-1.04925e-05
-1.04979e-05
-1.05032e-05
-1.05085e-05
-1.05137e-05
-1.05189e-05
-1.0524e-05
-1.05291e-05
-1.05341e-05
-1.05391e-05
-1.0544e-05
-1.05488e-05
-1.05537e-05
-1.05584e-05
-1.05631e-05
-1.05678e-05
-1.05725e-05
-1.0577e-05
-1.05816e-05
-1.05861e-05
-1.05905e-05
-1.05949e-05
-1.05992e-05
-1.06035e-05
-1.06078e-05
-1.0612e-05
-1.06162e-05
-1.06204e-05
-1.06244e-05
-1.06285e-05
-1.06325e-05
-1.06365e-05
-1.06404e-05
-1.06443e-05
-1.06482e-05
-1.0652e-05
-1.06557e-05
-1.06595e-05
-1.06632e-05
-1.06668e-05
-1.06705e-05
-1.0674e-05
-1.06776e-05
-1.06811e-05
-1.06846e-05
-1.0688e-05
-1.06914e-05
-1.06948e-05
-1.06981e-05
-1.07015e-05
-1.07047e-05
-1.0708e-05
-1.07112e-05
-1.07143e-05
-1.07175e-05
-1.07206e-05
-1.07237e-05
-1.07267e-05
-1.07297e-05
-1.07327e-05
-1.07357e-05
-1.07386e-05
-1.07415e-05
-1.07444e-05
-1.07472e-05
-1.075e-05
-1.07528e-05
-1.07555e-05
-1.07583e-05
-1.0761e-05
-1.07636e-05
-1.07663e-05
-1.07689e-05
-1.07715e-05
-1.0774e-05
-1.07766e-05
-1.07791e-05
-1.07816e-05
-1.0784e-05
-1.07864e-05
-1.07888e-05
-1.07912e-05
-1.07936e-05
-1.07959e-05
-1.07982e-05
-1.08005e-05
-1.08028e-05
-1.0805e-05
-1.08073e-05
-1.08095e-05
-1.08116e-05
-1.08138e-05
-1.08159e-05
-1.0818e-05
-1.08201e-05
-1.08222e-05
-1.08242e-05
-1.08263e-05
-1.08283e-05
-1.08302e-05
-1.08322e-05
-1.08341e-05
-1.08361e-05
-1.0838e-05
-1.08399e-05
-1.08417e-05
-1.08436e-05
-1.08454e-05
-1.08472e-05
-1.0849e-05
-1.08508e-05
-1.08525e-05
-1.08543e-05
-1.0856e-05
-1.08577e-05
-1.08594e-05
-1.0861e-05
-1.08627e-05
-1.08643e-05
-1.08659e-05
-1.08675e-05
-1.08691e-05
-1.08707e-05
-1.08722e-05
-1.08738e-05
-1.08753e-05
-1.08768e-05
-1.08783e-05
-1.08797e-05
-1.08812e-05
-1.08826e-05
-1.08841e-05
-1.08855e-05
-1.08869e-05
-1.08883e-05
-1.08896e-05
-1.0891e-05
-1.08924e-05
-1.08937e-05
-1.0895e-05
-1.08963e-05
-1.08976e-05
-1.08989e-05
-1.09001e-05
-1.09014e-05
-1.09026e-05
-1.09039e-05
-1.09051e-05
-1.09063e-05
-1.09075e-05
-1.09087e-05
-1.09098e-05
-1.0911e-05
-1.09121e-05
-1.09133e-05
-1.09144e-05
-1.09155e-05
-1.09166e-05
-1.09177e-05
-1.09188e-05
-1.09199e-05
-1.09209e-05
-1.0922e-05
-1.09231e-05
-1.09241e-05
-1.09251e-05
-1.09261e-05
-1.09271e-05
-1.09281e-05
-1.09291e-05
-1.09301e-05
-1.09311e-05
-1.09321e-05
-1.0933e-05
-1.0934e-05
-1.09349e-05
-1.09359e-05
-1.09368e-05
-1.09377e-05
-1.09387e-05
-1.09396e-05
-1.09405e-05
-1.09414e-05
-1.09423e-05
-1.09432e-05
-1.0944e-05
-1.09449e-05
-1.09458e-05
-1.09466e-05
-1.09475e-05
-1.09484e-05
-1.09492e-05
-1.09501e-05
-1.09509e-05
-1.09517e-05
-1.09525e-05
-1.09534e-05
-1.09542e-05
-1.0955e-05
-1.09558e-05
-1.09566e-05
-1.09574e-05
-1.09582e-05
-1.0959e-05
-1.09598e-05
-1.09606e-05
-1.09614e-05
-1.09621e-05
-1.09629e-05
-1.09637e-05
-1.09644e-05
-1.09652e-05
-1.0966e-05
-1.09667e-05
-1.09675e-05
-1.09682e-05