# vtk DataFile Version 2.0
FlowField
ASCII
DATASET STRUCTURED_GRID
DIMENSIONS 800 1 200
POINTS 160000 float
0 0 0
0.04 0 0
0.08 0 0
0.12 0 0
0.16 0 0
0.2 0 0
0.24 0 0
0.28 0 0
0.32 0 0
0.36 0 0
0.4 0 0
0.44 0 0
0.48 0 0
0.52 0 0
0.56 0 0
0.6 0 0
0.64 0 0
0.68 0 0
0.72 0 0
0.76 0 0
0.8 0 0
0.84 0 0
0.88 0 0
0.92 0 0
0.96 0 0
1 0 0
1.04 0 0
1.08 0 0
1.12 0 0
1.16 0 0
1.2 0 0
1.24 0 0
1.28 0 0
1.32 0 0
1.36 0 0
1.4 0 0
1.44 0 0
1.48 0 0
1.52 0 0
1.56 0 0
1.6 0 0
1.64 0 0
1.68 0 0
1.72 0 0
1.76 0 0
1.8 0 0
1.84 0 0
1.88 0 0
1.92 0 0
1.96 0 0
2 0 0
2.04 0 0
2.08 0 0
2.12 0 0
2.16 0 0
2.2 0 0
2.24 0 0
2.28 0 0
2.32 0 0
2.36 0 0
2.4 0 0
2.44 0 0
2.48 0 0
2.52 0 0
2.56 0 0
2.6 0 0
2.64 0 0
2.68 0 0
2.72 0 0
2.76 0 0
2.8 0 0
2.84 0 0
2.88 0 0
2.92 0 0
2.96 0 0
3 0 0
3.04 0 0
3.08 0 0
3.12 0 0
3.16 0 0
3.2 0 0
3.24 0 0
3.28 0 0
3.32 0 0
3.36 0 0
3.4 0 0
3.44 0 0
3.48 0 0
3.52 0 0
3.56 0 0
3.6 0 0
3.64 0 0
3.68 0 0
3.72 0 0
3.76 0 0
3.8 0 0
3.84 0 0
3.88 0 0
3.92 0 0
3.96 0 0
4 0 0
4.04 0 0
4.08 0 0
4.12 0 0
4.16 0 0
4.2 0 0
4.24 0 0
4.28 0 0
4.32 0 0
4.36 0 0
4.4 0 0
4.44 0 0
4.48 0 0
4.52 0 0
4.56 0 0
4.6 0 0
4.64 0 0
4.68 0 0
4.72 0 0
4.76 0 0
4.8 0 0
4.84 0 0
4.88 0 0
4.92 0 0
4.96 0 0
5 0 0
5.04 0 0
5.08 0 0
5.12 0 0
5.16 0 0
5.2 0 0
5.24 0 0
5.28 0 0
5.32 0 0
5.36 0 0
5.4 0 0
5.44 0 0
5.48 0 0
5.52 0 0
5.56 0 0
5.6 0 0
5.64 0 0
5.68 0 0
5.72 0 0
5.76 0 0
5.8 0 0
5.84 0 0
5.88 0 0
5.92 0 0
5.96 0 0
6 0 0
6.04 0 0
6.08 0 0
6.12 0 0
6.16 0 0
6.2 0 0
6.24 0 0
6.28 0 0
6.32 0 0
6.36 0 0
6.4 0 0
6.44 0 0
6.48 0 0
6.52 0 0
6.56 0 0
6.6 0 0
6.64 0 0
6.68 0 0
6.72 0 0
6.76 0 0
6.8 0 0
6.84 0 0
6.88 0 0
6.92 0 0
6.96 0 0
7 0 0
7.04 0 0
7.08 0 0
7.12 0 0
7.16 0 0
7.2 0 0
7.24 0 0
7.28 0 0
7.32 0 0
7.36 0 0
7.4 0 0
7.44 0 0
7.48 0 0
7.52 0 0
7.56 0 0
7.6 0 0
7.64 0 0
7.68 0 0
7.72 0 0
7.76 0 0
7.8 0 0
7.84 0 0
7.88 0 0
7.92 0 0
7.96 0 0
8 0 0
8.04 0 0
8.08 0 0
8.12 0 0
8.16 0 0
8.2 0 0
8.24 0 0
8.28 0 0
8.32 0 0
8.36 0 0
8.4 0 0
8.44 0 0
8.48 0 0
8.52 0 0
8.56 0 0
8.6 0 0
8.64 0 0
8.68 0 0
8.72 0 0
8.76 0 0
8.8 0 0
8.84 0 0
8.88 0 0
8.92 0 0
8.96 0 0
9 0 0
9.04 0 0
9.08 0 0
9.12 0 0
9.16 0 0
9.2 0 0
9.24 0 0
9.28 0 0
9.32 0 0
9.36 0 0
9.4 0 0
9.44 0 0
9.48 0 0
9.52 0 0
9.56 0 0
9.6 0 0
9.64 0 0
9.68 0 0
9.72 0 0
9.76 0 0
9.8 0 0
9.84 0 0
9.88 0 0
9.92 0 0
9.96 0 0
10 0 0
10.04 0 0
10.08 0 0
10.12 0 0
10.16 0 0
10.2 0 0
10.24 0 0
10.28 0 0
10.32 0 0
10.36 0 0
10.4 0 0
10.44 0 0
10.48 0 0
10.52 0 0
10.56 0 0
10.6 0 0
10.64 0 0
10.68 0 0
10.72 0 0
10.76 0 0
10.8 0 0
10.84 0 0
10.88 0 0
10.92 0 0
10.96 0 0
11 0 0
11.04 0 0
11.08 0 0
11.12 0 0
11.16 0 0
11.2 0 0
11.24 0 0
11.28 0 0
11.32 0 0
11.36 0 0
11.4 0 0
11.44 0 0
11.48 0 0
11.52 0 0
11.56 0 0
11.6 0 0
11.64 0 0
11.68 0 0
11.72 0 0
11.76 0 0
11.8 0 0
11.84 0 0
11.88 0 0
11.92 0 0
11.96 0 0
12 0 0
12.04 0 0
12.08 0 0
12.12 0 0
12.16 0 0
12.2 0 0
12.24 0 0
12.28 0 0
12.32 0 0
12.36 0 0
12.4 0 0
12.44 0 0
12.48 0 0
12.52 0 0
12.56 0 0
12.6 0 0
12.64 0 0
12.68 0 0
12.72 0 0
12.76 0 0
12.8 0 0
12.84 0 0
12.88 0 0
12.92 0 0
12.96 0 0
13 0 0
13.04 0 0
13.08 0 0
13.12 0 0
13.16 0 0
13.2 0 0
13.24 0 0
13.28 0 0
13.32 0 0
13.36 0 0
13.4 0 0
13.44 0 0
13.48 0 0
13.52 0 0
13.56 0 0
13.6 0 0
13.64 0 0
13.68 0 0
13.72 0 0
13.76 0 0
13.8 0 0
13.84 0 0
13.88 0 0
13.92 0 0
13.96 0 0
14 0 0
14.04 0 0
14.08 0 0
14.12 0 0
14.16 0 0
14.2 0 0
14.24 0 0
14.28 0 0
14.32 0 0
14.36 0 0
14.4 0 0
14.44 0 0
14.48 0 0
14.52 0 0
14.56 0 0
14.6 0 0
14.64 0 0
14.68 0 0
14.72 0 0
14.76 0 0
14.8 0 0
14.84 0 0
14.88 0 0
14.92 0 0
14.96 0 0
15 0 0
15.04 0 0
15.08 0 0
15.12 0 0
15.16 0 0
15.2 0 0
15.24 0 0
15.28 0 0
15.32 0 0
15.36 0 0
15.4 0 0
15.44 0 0
15.48 0 0
15.52 0 0
15.56 0 0
15.6 0 0
15.64 0 0
15.68 0 0
15.72 0 0
15.76 0 0
15.8 0 0
15.84 0 0
15.88 0 0
15.92 0 0
15.96 0 0
16 0 0
16.04 0 0
16.08 0 0
16.12 0 0
16.16 0 0
16.2 0 0
16.24 0 0
16.28 0 0
16.32 0 0
16.36 0 0
16.4 0 0
16.44 0 0
16.48 0 0
16.52 0 0
16.56 0 0
16.6 0 0
16.64 0 0
16.68 0 0
16.72 0 0
16.76 0 0
16.8 0 0
16.84 0 0
16.88 0 0
16.92 0 0
16.96 0 0
17 0 0
17.04 0 0
17.08 0 0
17.12 0 0
17.16 0 0
17.2 0 0
17.24 0 0
17.28 0 0
17.32 0 0
17.36 0 0
17.4 0 0
17.44 0 0
17.48 0 0
17.52 0 0
17.56 0 0
17.6 0 0
17.64 0 0
17.68 0 0
17.72 0 0
17.76 0 0
17.8 0 0
17.84 0 0
17.88 0 0
17.92 0 0
17.96 0 0
18 0 0
18.04 0 0
18.08 0 0
18.12 0 0
18.16 0 0
18.2 0 0
18.24 0 0
18.28 0 0
18.32 0 0
18.36 0 0
18.4 0 0
18.44 0 0
18.48 0 0
18.52 0 0
18.56 0 0
18.6 0 0
18.64 0 0
18.68 0 0
18.72 0 0
18.76 0 0
18.8 0 0
18.84 0 0
18.88 0 0
18.92 0 0
18.96 0 0
19 0 0
19.04 0 0
19.08 0 0
19.12 0 0
19.16 0 0
19.2 0 0
19.24 0 0
19.28 0 0
19.32 0 0
19.36 0 0
19.4 0 0
19.44 0 0
19.48 0 0
19.52 0 0
19.56 0 0
19.6 0 0
19.64 0 0
19.68 0 0
19.72 0 0
19.76 0 0
19.8 0 0
19.84 0 0
19.88 0 0
19.92 0 0
19.96 0 0
20 0 0
20.04 0 0
20.08 0 0
20.12 0 0
20.16 0 0
20.2 0 0
20.24 0 0
20.28 0 0
20.32 0 0
20.36 0 0
20.4 0 0
20.44 0 0
20.48 0 0
20.52 0 0
20.56 0 0
20.6 0 0
20.64 0 0
20.68 0 0
20.72 0 0
20.76 0 0
20.8 0 0
20.84 0 0
20.88 0 0
20.92 0 0
20.96 0 0
21 0 0
21.04 0 0
21.08 0 0
21.12 0 0
21.16 0 0
21.2 0 0
21.24 0 0
21.28 0 0
21.32 0 0
21.36 0 0
21.4 0 0
21.44 0 0
21.48 0 0
21.52 0 0
21.56 0 0
21.6 0 0
21.64 0 0
21.68 0 0
21.72 0 0
21.76 0 0
21.8 0 0
21.84 0 0
21.88 0 0
21.92 0 0
21.96 0 0
22 0 0
22.04 0 0
22.08 0 0
22.12 0 0
22.16 0 0
22.2 0 0
22.24 0 0
22.28 0 0
22.32 0 0
22.36 0 0
22.4 0 0
22.44 0 0
22.48 0 0
22.52 0 0
22.56 0 0
22.6 0 0
22.64 0 0
22.68 0 0
22.72 0 0
22.76 0 0
22.8 0 0
22.84 0 0
22.88 0 0
22.92 0 0
22.96 0 0
23 0 0
23.04 0 0
23.08 0 0
23.12 0 0
23.16 0 0
23.2 0 0
23.24 0 0
23.28 0 0
23.32 0 0
23.36 0 0
23.4 0 0
23.44 0 0
23.48 0 0
23.52 0 0
23.56 0 0
23.6 0 0
23.64 0 0
23.68 0 0
23.72 0 0
23.76 0 0
23.8 0 0
23.84 0 0
23.88 0 0
23.92 0 0
23.96 0 0
24 0 0
24.04 0 0
24.08 0 0
24.12 0 0
24.16 0 0
24.2 0 0
24.24 0 0
24.28 0 0
24.32 0 0
24.36 0 0
24.4 0 0
24.44 0 0
24.48 0 0
24.52 0 0
24.56 0 0
24.6 0 0
24.64 0 0
24.68 0 0
24.72 0 0
24.76 0 0
24.8 0 0
24.84 0 0
24.88 0 0
24.92 0 0
24.96 0 0
25 0 0
25.04 0 0
25.08 0 0
25.12 0 0
25.16 0 0
25.2 0 0
25.24 0 0
25.28 0 0
25.32 0 0
25.36 0 0
25.4 0 0
25.44 0 0
25.48 0 0
25.52 0 0
25.56 0 0
25.6 0 0
25.64 0 0
25.68 0 0
25.72 0 0
25.76 0 0
25.8 0 0
25.84 0 0
25.88 0 0
25.92 0 0
25.96 0 0
26 0 0
26.04 0 0
26.08 0 0
26.12 0 0
26.16 0 0
26.2 0 0
26.24 0 0
26.28 0 0
26.32 0 0
26.36 0 0
26.4 0 0
26.44 0 0
26.48 0 0
26.52 0 0
26.56 0 0
26.6 0 0
26.64 0 0
26.68 0 0
26.72 0 0
26.76 0 0
26.8 0 0
26.84 0 0
26.88 0 0
26.92 0 0
26.96 0 0
27 0 0
27.04 0 0
27.08 0 0
27.12 0 0
27.16 0 0
27.2 0 0
27.24 0 0
27.28 0 0
27.32 0 0
27.36 0 0
27.4 0 0
27.44 0 0
27.48 0 0
27.52 0 0
27.56 0 0
27.6 0 0
27.64 0 0
27.68 0 0
27.72 0 0
27.76 0 0
27.8 0 0
27.84 0 0
27.88 0 0
27.92 0 0
27.96 0 0
28 0 0
28.04 0 0
28.08 0 0
28.12 0 0
28.16 0 0
28.2 0 0
28.24 0 0
28.28 0 0
28.32 0 0
28.36 0 0
28.4 0 0
28.44 0 0
28.48 0 0
28.52 0 0
28.56 0 0
28.6 0 0
28.64 0 0
28.68 0 0
28.72 0 0
28.76 0 0
28.8 0 0
28.84 0 0
28.88 0 0
28.92 0 0
28.96 0 0
29 0 0
29.04 0 0
29.08 0 0
29.12 0 0
29.16 0 0
29.2 0 0
29.24 0 0
29.28 0 0
29.32 0 0
29.36 0 0
29.4 0 0
29.44 0 0
29.48 0 0
29.52 0 0
29.56 0 0
29.6 0 0
29.64 0 0
29.68 0 0
29.72 0 0
29.76 0 0
29.8 0 0
29.84 0 0
29.88 0 0
29.92 0 0
29.96 0 0
30 0 0
30.04 0 0
30.08 0 0
30.12 0 0
30.16 0 0
30.2 0 0
30.24 0 0
30.28 0 0
30.32 0 0
30.36 0 0
30.4 0 0
30.44 0 0
30.48 0 0
30.52 0 0
30.56 0 0
30.6 0 0
30.64 0 0
30.68 0 0
30.72 0 0
30.76 0 0
30.8 0 0
30.84 0 0
30.88 0 0
30.92 0 0
30.96 0 0
31 0 0
31.04 0 0
31.08 0 0
31.12 0 0
31.16 0 0
31.2 0 0
31.24 0 0
31.28 0 0
31.32 0 0
31.36 0 0
31.4 0 0
31.44 0 0
31.48 0 0
31.52 0 0
31.56 0 0
31.6 0 0
31.64 0 0
31.68 0 0
31.72 0 0
31.76 0 0
31.8 0 0
31.84 0 0
31.88 0 0
31.92 0 0
31.96 0 0
0 0.005 0
0.04 0.005 0
0.08 0.005 0
0.12 0.005 0
0.16 0.005 0
0.2 0.005 0
0.24 0.005 0
0.28 0.005 0
0.32 0.005 0
0.36 0.005 0
0.4 0.005 0
0.44 0.005 0
0.48 0.005 0
0.52 0.005 0
0.56 0.005 0
0.6 0.005 0
0.64 0.005 0
0.68 0.005 0
0.72 0.005 0
0.76 0.005 0
0.8 0.005 0
0.84 0.005 0
0.88 0.005 0
0.92 0.005 0
0.96 0.005 0
1 0.005 0
1.04 0.005 0
1.08 0.005 0
1.12 0.005 0
1.16 0.005 0
1.2 0.005 0
1.24 0.005 0
1.28 0.005 0
1.32 0.005 0
1.36 0.005 0
1.4 0.005 0
1.44 0.005 0
1.48 0.005 0
1.52 0.005 0
1.56 0.005 0
1.6 0.005 0
1.64 0.005 0
1.68 0.005 0
1.72 0.005 0
1.76 0.005 0
1.8 0.005 0
1.84 0.005 0
1.88 0.005 0
1.92 0.005 0
1.96 0.005 0
2 0.005 0
2.04 0.005 0
2.08 0.005 0
2.12 0.005 0
2.16 0.005 0
2.2 0.005 0
2.24 0.005 0
2.28 0.005 0
2.32 0.005 0
2.36 0.005 0
2.4 0.005 0
2.44 0.005 0
2.48 0.005 0
2.52 0.005 0
2.56 0.005 0
2.6 0.005 0
2.64 0.005 0
2.68 0.005 0
2.72 0.005 0
2.76 0.005 0
2.8 0.005 0
2.84 0.005 0
2.88 0.005 0
2.92 0.005 0
2.96 0.005 0
3 0.005 0
3.04 0.005 0
3.08 0.005 0
3.12 0.005 0
3.16 0.005 0
3.2 0.005 0
3.24 0.005 0
3.28 0.005 0
3.32 0.005 0
3.36 0.005 0
3.4 0.005 0
3.44 0.005 0
3.48 0.005 0
3.52 0.005 0
3.56 0.005 0
3.6 0.005 0
3.64 0.005 0
3.68 0.005 0
3.72 0.005 0
3.76 0.005 0
3.8 0.005 0
3.84 0.005 0
3.88 0.005 0
3.92 0.005 0
3.96 0.005 0
4 0.005 0
4.04 0.005 0
4.08 0.005 0
4.12 0.005 0
4.16 0.005 0
4.2 0.005 0
4.24 0.005 0
4.28 0.005 0
4.32 0.005 0
4.36 0.005 0
4.4 0.005 0
4.44 0.005 0
4.48 0.005 0
4.52 0.005 0
4.56 0.005 0
4.6 0.005 0
4.64 0.005 0
4.68 0.005 0
4.72 0.005 0
4.76 0.005 0
4.8 0.005 0
4.84 0.005 0
4.88 0.005 0
4.92 0.005 0
4.96 0.005 0
5 0.005 0
5.04 0.005 0
5.08 0.005 0
5.12 0.005 0
5.16 0.005 0
5.2 0.005 0
5.24 0.005 0
5.28 0.005 0
5.32 0.005 0
5.36 0.005 0
5.4 0.005 0
5.44 0.005 0
5.48 0.005 0
5.52 0.005 0
5.56 0.005 0
5.6 0.005 0
5.64 0.005 0
5.68 0.005 0
5.72 0.005 0
5.76 0.005 0
5.8 0.005 0
5.84 0.005 0
5.88 0.005 0
5.92 0.005 0
5.96 0.005 0
6 0.005 0
6.04 0.005 0
6.08 0.005 0
6.12 0.005 0
6.16 0.005 0
6.2 0.005 0
6.24 0.005 0
6.28 0.005 0
6.32 0.005 0
6.36 0.005 0
6.4 0.005 0
6.44 0.005 0
6.48 0.005 0
6.52 0.005 0
6.56 0.005 0
6.6 0.005 0
6.64 0.005 0
6.68 0.005 0
6.72 0.005 0
6.76 0.005 0
6.8 0.005 0
6.84 0.005 0
6.88 0.005 0
6.92 0.005 0
6.96 0.005 0
7 0.005 0
7.04 0.005 0
7.08 0.005 0
7.12 0.005 0
7.16 0.005 0
7.2 0.005 0
7.24 0.005 0
7.28 0.005 0
7.32 0.005 0
7.36 0.005 0
7.4 0.005 0
[...]
POINT_DATA 160000

SCALARS u float 1
LOOKUP_TABLE default
-1
-0.483323
-0.183948
-0.108838
-0.0810333
-0.0668444
-0.0581428
-0.0521948
-0.047841
-0.0445048
-0.0418642
-0.039724
-0.0379581
-0.0364817
-0.0352344
-0.0341708
-0.0332578
-0.0324742
-0.03181
-0.0312621
-0.0308281
-0.0305013
-0.0302688
-0.0301132
-0.0300159
-0.0299599
-0.0299322
-0.0299234
-0.0299273
-0.0299397
-0.0299574
-0.0299781
-0.0299998
-0.0300211
-0.0300408
-0.0300583
-0.0300733
-0.0300858
-0.0300959
-0.0301038
-0.03011
-0.0301146
-0.0301181
-0.0301206
-0.0301224
-0.0301235
-0.0301243
-0.0301247
-0.0301249
-0.0301248
-0.0301247
-0.0301244
-0.0301241
-0.0301237
-0.0301233
-0.0301228
-0.0301224
-0.0301219
-0.0301214
-0.0301209
-0.0301204
-0.0301199
-0.0301194
-0.0301188
-0.0301183
-0.0301178
-0.0301173
-0.0301168
-0.0301163
-0.0301158
-0.0301153
-0.0301147
-0.0301142
-0.0301137
-0.0301132
-0.0301127
-0.0301122
-0.0301117
-0.0301112
-0.0301106
-0.0301101
-0.0301096
-0.0301091
-0.0301086
-0.0301081
-0.0301076
-0.030107
-0.0301065
-0.030106
-0.0301055
-0.030105
-0.0301045
-0.0301039
-0.0301034
-0.0301029
-0.0301024
-0.0301019
-0.0301014
-0.0301008
-0.0301003
-0.0300998
-0.0300993
-0.0300988
-0.0300982
-0.0300977
-0.0300972
-0.0300967
-0.0300962
-0.0300956
-0.0300951
-0.0300946
-0.0300941
-0.0300936
-0.030093
-0.0300925
-0.030092
-0.0300915
-0.030091
-0.0300904
-0.0300899
-0.0300894
-0.0300889
-0.0300883
-0.0300878
-0.0300873
-0.0300868
-0.0300862
-0.0300857
-0.0300852
-0.0300847
-0.0300841
-0.0300836
-0.0300831
-0.0300826
-0.030082
-0.0300815
-0.030081
-0.0300804
-0.0300799
-0.0300794
-0.0300789
-0.0300783
-0.0300778
-0.0300773
-0.0300767
-0.0300762
-0.0300757
-0.0300752
-0.0300746
-0.0300741
-0.0300736
-0.030073
-0.0300725
-0.030072
-0.0300714
-0.0300709
-0.0300704
-0.0300699
-0.0300693
-0.0300688
-0.0300683
-0.0300677
-0.0300672
-0.0300667
-0.0300662
-0.0300656
-0.0300651
-0.0300646
-0.0300641
-0.0300636
-0.030063
-0.0300625
-0.030062
-0.0300615
-0.030061
-0.0300605
-0.03006
-0.0300595
-0.030059
-0.0300585
-0.030058
-0.0300576
-0.0300571
-0.0300566
-0.0300562
-0.0300557
-0.0300553
-0.0300549
-0.0300545
-0.0300541
-0.0300537
-0.0300534
-0.030053
-0.0300527
-0.0300524
-0.0300521
-0.0300518
-0.0300516
-0.0300514
-0.0300512
-0.0300511
-0.030051
-0.0300509
-0.0300509
-0.0300509
-0.030051
-0.0300511
-0.0300513
-0.0300515
-0.0300518
-0.0300521
-0.0300525
-0.030053
-0.0300536
-0.0300542
-0.030055
-0.0300558
-0.0300567
-0.0300577
-0.0300588
-0.03006
-0.0300613
-0.0300627
-0.0300643
-0.030066
-0.0300678
-0.0300697
-0.0300718
-0.030074
-0.0300764
-0.0300789
-0.0300816
-0.0300845
-0.0300875
-0.0300907
-0.030094
-0.0300976
-0.0301013
-0.0301052
-0.0301093
-0.0301135
-0.030118
-0.0301227
-0.0301275
-0.0301326
-0.0301378
-0.0301432
-0.0301489
-0.0301547
-0.0301607
-0.0301669
-0.0301733
-0.0301799
-0.0301866
-0.0301936
-0.0302007
-0.030208
-0.0302154
-0.030223
-0.0302308
-0.0302387
-0.0302468
-0.030255
-0.0302633
-0.0302717
-0.0302803
-0.0302889
-0.0302976
-0.0303065
-0.0303154
-0.0303243
-0.0303334
-0.0303424
-0.0303515
-0.0303606
-0.0303698
-0.0303789
-0.0303881
-0.0303972
-0.0304063
-0.0304154
-0.0304244
-0.0304334
-0.0304423
-0.0304511
-0.0304599
-0.0304685
-0.0304771
-0.0304855
-0.0304939
-0.0305021
-0.0305102
-0.0305182
-0.030526
-0.0305337
-0.0305412
-0.0305486
-0.0305558
-0.0305628
-0.0305697
-0.0305765
-0.030583
-0.0305894
-0.0305956
-0.0306016
-0.0306075
-0.0306131
-0.0306186
-0.030624
-0.0306291
-0.0306341
-0.0306389
-0.0306435
-0.030648
-0.0306522
-0.0306564
-0.0306603
-0.0306641
-0.0306678
-0.0306713
-0.0306746
-0.0306778
-0.0306809
-0.0306838
-0.0306866
-0.0306893
-0.0306918
-0.0306942
-0.0306965
-0.0306987
-0.0307008
-0.0307027
-0.0307046
-0.0307063
-0.030708
-0.0307096
-0.030711
-0.0307124
-0.0307137
-0.030715
-0.0307162
-0.0307172
-0.0307183
-0.0307192
-0.0307201
-0.030721
-0.0307218
-0.0307225
-0.0307232
-0.0307238
-0.0307244
-0.030725
-0.0307255
-0.0307259
-0.0307264
-0.0307267
-0.0307271
-0.0307274
-0.0307277
-0.030728
-0.0307282
-0.0307284
-0.0307286
-0.0307288
-0.0307289
-0.030729
-0.0307291
-0.0307292
-0.0307293
-0.0307293
-0.0307293
-0.0307294
-0.0307294
-0.0307293
-0.0307293
-0.0307292
-0.0307292
-0.0307291
-0.030729
-0.0307289
-0.0307288
-0.0307287
-0.0307286
-0.0307284
-0.0307283
-0.0307281
-0.030728
-0.0307278
-0.0307276
-0.0307274
-0.0307272
-0.030727
-0.0307268
-0.0307266
-0.0307264
-0.0307261
-0.0307259
-0.0307256
-0.0307254
-0.0307251
-0.0307249
-0.0307246
-0.0307243
-0.030724
-0.0307238
-0.0307235
-0.0307232
-0.0307229
-0.0307226
-0.0307223
-0.0307219
-0.0307216
-0.0307213
-0.030721
-0.0307206
-0.0307203
-0.03072
-0.0307196
-0.0307193
-0.0307189
-0.0307186
-0.0307182
-0.0307179
-0.0307175
-0.0307171
-0.0307167
-0.0307164
-0.030716
-0.0307156
-0.0307152
-0.0307148
-0.0307144
-0.030714
-0.0307137
-0.0307133
-0.0307128
-0.0307124
-0.030712
-0.0307116
-0.0307112
-0.0307108
-0.0307104
-0.0307099
-0.0307095
-0.0307091
-0.0307087
-0.0307082
-0.0307078
-0.0307074
-0.0307069
-0.0307065
-0.030706
-0.0307056
-0.0307051
-0.0307047
-0.0307042
-0.0307038
-0.0307033
-0.0307028
-0.0307024
-0.0307019
-0.0307015
-0.030701
-0.0307005
-0.0307
-0.0306996
-0.0306991
-0.0306986
-0.0306981
-0.0306977
-0.0306972
-0.0306967
-0.0306962
-0.0306957
-0.0306952
-0.0306947
-0.0306942
-0.0306937
-0.0306932
-0.0306927
-0.0306922
-0.0306917
-0.0306912
-0.0306907
-0.0306902
-0.0306897
-0.0306892
-0.0306887
-0.0306882
-0.0306876
-0.0306871
-0.0306866
-0.0306861
-0.0306856
-0.030685
-0.0306845
-0.030684
-0.0306834
-0.0306829
-0.0306824
-0.0306819
-0.0306813
-0.0306808
-0.0306802
-0.0306797
-0.0306792
-0.0306786
-0.0306781
-0.0306775
-0.030677
-0.0306764
-0.0306759
-0.0306754
-0.0306748
-0.0306742
-0.0306737
-0.0306731
-0.0306726
-0.030672
-0.0306715
-0.0306709
-0.0306703
-0.0306698
-0.0306692
-0.0306687
-0.0306681
-0.0306675
-0.030667
-0.0306664
-0.0306658
-0.0306652
-0.0306647
-0.0306641
-0.0306635
-0.0306629
-0.0306624
-0.0306618
-0.0306612
-0.0306606
-0.03066
-0.0306595
-0.0306589
-0.0306583
-0.0306577
-0.0306571
-0.0306565
-0.0306559
-0.0306553
-0.0306547
-0.0306542
-0.0306536
-0.030653
-0.0306524
-0.0306518
-0.0306512
-0.0306506
-0.03065
-0.0306494
-0.0306488
-0.0306482
-0.0306476
-0.0306469
-0.0306463
-0.0306457
-0.0306451
-0.0306445
-0.0306439
-0.0306433
-0.0306427
-0.0306421
-0.0306414
-0.0306408
-0.0306402
-0.0306396
-0.030639
-0.0306383
-0.0306377
-0.0306371
-0.0306365
-0.0306359
-0.0306352
-0.0306346
-0.030634
-0.0306333
-0.0306327
-0.0306321
-0.0306315
-0.0306308
-0.0306302
-0.0306296
-0.0306289
-0.0306283
-0.0306276
-0.030627
-0.0306264
-0.0306257
-0.0306251
-0.0306244
-0.0306238
-0.0306232
-0.0306225
-0.0306219
-0.0306212
-0.0306206
-0.0306199
-0.0306193
-0.0306186
-0.030618
-0.0306173
-0.0306167
-0.030616
-0.0306154
-0.0306147
-0.030614
-0.0306134
-0.0306127
-0.0306121
-0.0306114
-0.0306107
-0.0306101
-0.0306094
-0.0306088
-0.0306081
-0.0306074
-0.0306068
-0.0306061
-0.0306054
-0.0306047
-0.0306041
-0.0306034
-0.0306027
-0.0306021
-0.0306014
-0.0306007
-0.0306
-0.0305994
-0.0305987
-0.030598
-0.0305973
-0.0305966
-0.030596
-0.0305953
-0.0305946
-0.0305939
-0.0305932
-0.0305925
-0.0305918
-0.0305912
-0.0305905
-0.0305898
-0.0305891
-0.0305884
-0.0305877
-0.030587
-0.0305863
-0.0305856
-0.0305849
-0.0305842
-0.0305835
-0.0305828
-0.0305821
-0.0305814
-0.0305807
-0.03058
-0.0305793
-0.0305786
-0.0305779
-0.0305772
-0.0305765
-0.0305758
-0.0305751
-0.0305744
-0.0305737
-0.0305729
-0.0305722
-0.0305715
-0.0305708
-0.0305701
-0.0305694
-0.0305686
-0.0305679
-0.0305672
-0.0305665
-0.0305658
-0.030565
-0.0305643
-0.0305636
-0.0305629
-0.0305622
-0.0305614
-0.0305607
-0.03056
-0.0305592
-0.0305585
-0.0305578
-0.030557
-0.0305563
-0.0305556
-0.0305548
-0.0305541
-0.0305534
-0.0305526
-0.0305519
-0.0305512
-0.0305504
-0.0305497
-0.0305489
-0.0305482
-0.0305474
-0.0305467
-0.0305459
-0.0305452
-0.0305444
-0.0305437
-0.0305429
-0.0305422
-0.0305414
-0.0305407
-0.0305399
-0.0305392
-0.0305384
-0.0305377
-0.0305369
-0.0305362
-0.0305354
-0.0305346
-0.0305339
-0.0305331
-0.0305323
-0.0305316
-0.0305308
-0.03053
-0.0305293
-0.0305285
-0.0305277
-0.030527
-0.0305262
-0.0305254
-0.0305246
-0.0305239
-0.0305231
-0.0305223
-0.0305215
-0.0305208
-0.03052
-0.0305192
-0.0305184
-0.0305176
-0.0305168
-0.0305161
-0.0305153
-0.0305145
-0.0305137
-0.0305129
-0.0305121
-0.0305113
-0.0305105
-0.0305097
-0.0305089
-0.0305082
-0.0305074
-0.0305066
-0.0305058
-0.030505
-0.0305042
-0.0305034
-0.0305025
-0.0305017
-0.0305009
-0.0305001
-0.0304993
-0.0304985
-0.0304977
-0.0304969
-0.0304961
-0.0304952
-0.0304944
-0.0304936
-0.0304927
-0.0304919
-0.0304911
-0.0304902
-0.0304893
-0.0304884
-0.0304876
-0.0304866
-0.0304857
-0.0304847
-0.0304837
-0.0304826
-0.0304815
-0.0304803
-0.0304788
-0.0304776
-0.0304753
-0.0304743
-0.03047
-0.0304729
-0.0304729
-0.0304729
1
0.483323
0.183948
0.108838
0.0810333
0.0668444
0.0581428
0.0521948
0.047841
0.0445048
0.0418642
0.039724
0.0379581
0.0364817
0.0352344
0.0341708
0.0332578
0.0324742
0.03181
0.0312621
0.0308281
0.0305013
0.0302688
0.0301132
0.0300159
0.0299599
0.0299322
0.0299234
0.0299273
0.0299397
0.0299574
0.0299781
0.0299998
0.0300211
0.0300408
0.0300583
0.0300733
0.0300858
0.0300959
0.0301038
0.03011
0.0301146
0.0301181
0.0301206
0.0301224
0.0301235
0.0301243
0.0301247
0.0301249
0.0301248
0.0301247
0.0301244
0.0301241
0.0301237
0.0301233
0.0301228
0.0301224
0.0301219
0.0301214
0.0301209
0.0301204
0.0301199
0.0301194
0.0301188
0.0301183
0.0301178
0.0301173
0.0301168
0.0301163
0.0301158
0.0301153
0.0301147
0.0301142
0.0301137
0.0301132
0.0301127
0.0301122
0.0301117
0.0301112
0.0301106
0.0301101
0.0301096
0.0301091
0.0301086
0.0301081
0.0301076
0.030107
0.0301065
0.030106
0.0301055
0.030105
0.0301045
0.0301039
0.0301034
0.0301029
0.0301024
0.0301019
0.0301014
0.0301008
0.0301003
0.0300998
0.0300993
0.0300988
0.0300982
0.0300977
0.0300972
0.0300967
0.0300962
0.0300956
0.0300951
0.0300946
0.0300941
0.0300936
0.030093
0.0300925
0.030092
0.0300915
0.030091
0.0300904
0.0300899
0.0300894
0.0300889
0.0300883
0.0300878
0.0300873
0.0300868
0.0300862
0.0300857
0.0300852
0.0300847
0.0300841
0.0300836
0.0300831
0.0300826
0.030082
0.0300815
0.030081
0.0300804
0.0300799
0.0300794
0.0300789
0.0300783
0.0300778
0.0300773
0.0300767
0.0300762
0.0300757
0.0300752
0.0300746
0.0300741
0.0300736
0.030073
0.0300725
0.030072
0.0300714
0.0300709
0.0300704
0.0300699
0.0300693
0.0300688
0.0300683
0.0300677
0.0300672
0.0300667
0.0300662
0.0300656
0.0300651
0.0300646
0.0300641
0.0300636
0.030063
0.0300625
0.030062
0.0300615
0.030061
0.0300605
0.03006
0.0300595
0.030059
0.0300585
0.030058
0.0300576
0.0300571
0.0300566
0.0300562
0.0300557
0.0300553
0.0300549
0.0300545
0.0300541
0.0300537
0.0300534
0.030053
0.0300527
0.0300524
0.0300521
0.0300518
0.0300516
0.0300514
0.0300512
0.0300511
0.030051
0.0300509
0.0300509
0.0300509
0.030051
0.0300511
0.0300513
0.0300515
0.0300518
0.0300521
0.0300525
0.030053
0.0300536
0.0300542
0.030055
0.0300558
0.0300567
0.0300577
0.0300588
0.03006
0.0300613
0.0300627
0.0300643
0.030066
0.0300678
0.0300697
0.0300718
0.030074
0.0300764
0.0300789
0.0300816
0.0300845
0.0300875
0.0300907
0.030094
0.0300976
0.0301013
0.0301052
0.0301093
0.0301135
0.030118
0.0301227
0.0301275
0.0301326
0.0301378
0.0301432
0.0301489
0.0301547
0.0301607
0.0301669
0.0301733
0.0301799
0.0301866
0.0301936
0.0302007
0.030208
0.0302154
0.030223
0.0302308
0.0302387
0.0302468
0.030255
0.0302633
0.0302717
0.0302803
0.0302889
0.0302976
0.0303065
0.0303154
0.0303243
0.0303334
0.0303424
0.0303515
0.0303606
0.0303698
0.0303789
0.0303881
0.0303972
0.0304063
0.0304154
0.0304244
0.0304334
0.0304423
0.0304511
0.0304599
0.0304685
0.0304771
0.0304855
0.0304939
0.0305021
0.0305102
0.0305182
0.030526
0.0305337
0.0305412
0.0305486
0.0305558
0.0305628
0.0305697
0.0305765
0.030583
0.0305894
0.0305956
0.0306016
0.0306075
0.0306131
0.0306186
0.030624
0.0306291
0.0306341
0.0306389
0.0306435
0.030648
0.0306522
0.0306564
0.0306603
0.0306641
0.0306678
0.0306713
0.0306746
0.0306778
0.0306809
0.0306838
0.0306866
0.0306893
0.0306918
0.0306942
0.0306965
0.0306987
0.0307008
0.0307027
0.0307046
0.0307063
0.030708
0.0307096
0.030711
0.0307124
0.0307137
0.030715
0.0307162
0.0307172
0.0307183
0.0307192
0.0307201
0.030721
0.0307218
0.0307225
0.0307232
0.0307238
0.0307244
0.030725
0.0307255
0.0307259
0.0307264
0.0307267
0.0307271
0.0307274
0.0307277
0.030728
0.0307282
0.0307284
0.0307286
0.0307288
0.0307289
0.030729
0.0307291
0.0307292
0.0307293
0.0307293
0.0307293
0.0307294
0.0307294
0.0307293
0.0307293
0.0307292
0.0307292
0.0307291
0.030729
0.0307289
0.0307288
0.0307287
0.0307286
0.0307284
0.0307283
0.0307281
0.030728
0.0307278
0.0307276
0.0307274
0.0307272
0.030727
0.0307268
0.0307266
0.0307264
0.0307261
0.0307259
0.0307256
0.0307254
0.0307251
0.0307249
0.0307246
0.0307243
0.030724
0.0307238
0.0307235
0.0307232
0.0307229
0.0307226
0.0307223
0.0307219
0.0307216
0.0307213
0.030721
0.0307206
0.0307203
0.03072
0.0307196
0.0307193
0.0307189
0.0307186
0.0307182
0.0307179
0.0307175
0.0307171
0.0307167
0.0307164
0.030716
0.0307156
0.0307152
0.0307148
0.0307144
0.030714
0.0307137
0.0307133
0.0307128
0.0307124
0.030712
0.0307116
0.0307112
0.0307108
0.0307104
0.0307099
0.0307095
0.0307091
0.0307087
0.0307082
0.0307078
0.0307074
0.0307069
0.0307065
0.030706
0.0307056
0.0307051
0.0307047
0.0307042
0.0307038
0.0307033
0.0307028
0.0307024
0.0307019
0.0307015
0.030701
0.0307005
0.0307
0.0306996
0.0306991
0.0306986
0.0306981
0.0306977
0.0306972
0.0306967
0.0306962
0.0306957
0.0306952
0.0306947
0.0306942
0.0306937
0.0306932
0.0306927
0.0306922
0.0306917
0.0306912
0.0306907
0.0306902
0.0306897
0.0306892
0.0306887
0.0306882
0.0306876
0.0306871
0.0306866
0.0306861
0.0306856
0.030685
0.0306845
0.030684
0.0306834
0.0306829
0.0306824
0.0306819
0.0306813
0.0306808
0.0306802
0.0306797
0.0306792
0.0306786
0.0306781
0.0306775
0.030677
0.0306764
0.0306759
0.0306754
0.0306748
0.0306742
0.0306737
0.0306731
0.0306726
0.030672
0.0306715
0.0306709
0.0306703
0.0306698
0.0306692
0.0306687
0.0306681
0.0306675
0.030667
0.0306664
0.0306658
0.0306652
0.0306647
0.0306641
0.0306635
0.0306629
0.0306624
0.0306618
0.0306612
0.0306606
0.03066
0.0306595
0.0306589
0.0306583
0.0306577
0.0306571
0.0306565
0.0306559
0.0306553
0.0306547
0.0306542
0.0306536
0.030653
0.0306524
0.0306518
0.0306512
0.0306506
0.03065
0.0306494
0.0306488
0.0306482
0.0306476
0.0306469
0.0306463
0.0306457
0.0306451
0.0306445
0.0306439
0.0306433
0.0306427
0.0306421
0.0306414
0.0306408
0.0306402
0.0306396
0.030639
0.0306383
0.0306377
0.0306371
0.0306365
0.0306359
0.0306352
0.0306346
0.030634
0.0306333
0.0306327
0.0306321
0.0306315
0.0306308
0.0306302
0.0306296
0.0306289
0.0306283
0.0306276
0.030627
0.0306264
0.0306257
0.0306251
0.0306244
0.0306238
0.0306232
0.0306225
0.0306219
0.0306212
0.0306206
0.0306199
0.0306193
0.0306186
0.030618
0.0306173
0.0306167
0.030616
0.0306154
0.0306147
0.030614
0.0306134
0.0306127
0.0306121
0.0306114
0.0306107
0.0306101
0.0306094
0.0306088
0.0306081
0.0306074
0.0306068
0.0306061
0.0306054
0.0306047
0.0306041
0.0306034
0.0306027
0.0306021
0.0306014
0.0306007
0.0306
0.0305994
0.0305987
0.030598
0.0305973
0.0305966
0.030596
0.0305953
0.0305946
0.0305939
0.0305932
0.0305925
0.0305918
0.0305912
0.0305905
0.0305898
0.0305891
0.0305884
0.0305877
0.030587
0.0305863
0.0305856
0.0305849
0.0305842
0.0305835
0.0305828
0.0305821
0.0305814
0.0305807
0.03058
0.0305793
0.0305786
0.0305779
0.0305772
0.0305765
0.0305758
0.0305751
0.0305744
0.0305737
0.0305729
0.0305722
0.0305715
0.0305708
0.0305701
0.0305694
0.0305686
0.0305679
0.0305672
0.0305665
0.0305658
0.030565
0.0305643
0.0305636
0.0305629
0.0305622
0.0305614
0.0305607
0.03056
0.0305592
0.0305585
0.0305578
0.030557
0.0305563
0.0305556
0.0305548
0.0305541
0.0305534
0.0305526
0.0305519
0.0305512
0.0305504
0.0305497
0.0305489
0.0305482
0.0305474
0.0305467
0.0305459
0.0305452
0.0305444
0.0305437
0.0305429
0.0305422
0.0305414
0.0305407
0.0305399
0.0305392
0.0305384
0.0305377
0.0305369
0.0305362
0.0305354
0.0305346
0.0305339
0.0305331
0.0305323
0.0305316
0.0305308
0.03053
0.0305293
0.0305285
0.0305277
0.030527
0.0305262
0.0305254
0.0305246
0.0305239
0.0305231
0.0305223
0.0305215
0.0305208
0.03052
0.0305192
0.0305184
0.0305176
0.0305168
0.0305161
0.0305153
0.0305145
0.0305137
0.0305129
0.0305121
0.0305113
0.0305105
0.0305097
0.0305089
0.0305082
0.0305074
0.0305066
0.0305058
0.030505
0.0305042
0.0305034
0.0305025
0.0305017
0.0305009
0.0305001
0.0304993
0.0304985
0.0304977
0.0304969
0.0304961
0.0304952
0.0304944
0.0304936
0.0304927
0.0304919
0.0304911
0.0304902
0.0304893
0.0304884
0.0304876
0.0304866
0.0304857
0.0304847
0.0304837
0.0304826
0.0304815
0.0304803
0.0304788
0.0304776
0.0304753
0.0304743
0.03047
0.0304729
0.0304729
0.0304729
1
0.969134
0.49558
0.314205
0.237901
0.19743
0.172208
0.154822
0.142032
0.132198
0.124397
0.118063
0.11283
0.108453
0.104753
0.101601
0.0989011
0.0965926
0.0946457
0.093048
0.0917876
0.0908404
0.0901657
0.0897119
0.0894253
0.0892585
0.0891743
0.089146
0.0891553
0.0891893
0.0892388
0.0892964
0.0893565
0.0894148
0.0894685
0.0895158
0.089556
0.0895892
0.0896159
0.0896368
0.0896529
0.089665
0.0896739
0.0896802
0.0896845
0.0896873
0.089689
0.0896897
0.0896898
0.0896894
0.0896886
0.0896876
0.0896864
0.089685
0.0896836
0.089682
0.0896804
0.0896788
0.0896771
0.0896754
0.0896738
0.0896721
0.0896704
0.0896686
0.0896669
0.0896652
0.0896635
0.0896618
0.0896601
0.0896584
0.0896567
0.0896549
0.0896532
0.0896515
0.0896498
0.0896481
0.0896464
0.0896446
0.0896429
0.0896412
0.0896395
0.0896378
0.089636
0.0896343
0.0896326
0.0896309
0.0896291
0.0896274
0.0896257
0.0896239
0.0896222
0.0896205
0.0896187
0.089617
0.0896153
0.0896135
0.0896118
0.0896101
0.0896083
0.0896066
0.0896048
0.0896031
0.0896014
0.0895996
0.0895979
0.0895961
0.0895944
0.0895926
0.0895909
0.0895891
0.0895874
0.0895856
0.0895839
0.0895821
0.0895804
0.0895786
0.0895769
0.0895751
0.0895733
0.0895716
0.0895698
0.0895681
0.0895663
0.0895645
0.0895628
0.089561
0.0895592
0.0895575
0.0895557
0.0895539
0.0895522
0.0895504
0.0895486
0.0895468
0.0895451
0.0895433
0.0895415
0.0895397
0.089538
0.0895362
0.0895344
0.0895326
0.0895308
0.0895291
0.0895273
0.0895255
0.0895237
0.0895219
0.0895201
0.0895183
0.0895165
0.0895148
0.089513
0.0895112
0.0895094
0.0895076
0.0895058
0.089504
0.0895022
0.0895004
0.0894986
0.0894968
0.0894951
0.0894933
0.0894915
0.0894897
0.0894879
0.0894861
0.0894843
0.0894825
0.0894808
0.089479
0.0894772
0.0894754
0.0894737
0.0894719
0.0894702
0.0894684
0.0894667
0.0894649
0.0894632
0.0894615
0.0894598
0.0894581
0.0894565
0.0894548
0.0894532
0.0894516
0.08945
0.0894484
0.0894468
0.0894453
0.0894438
0.0894424
0.089441
0.0894396
0.0894383
0.089437
0.0894357
0.0894346
0.0894334
0.0894324
0.0894314
0.0894305
0.0894297
0.0894289
0.0894283
0.0894277
0.0894273
0.0894269
0.0894267
0.0894266
0.0894267
0.0894269
0.0894272
0.0894277
0.0894284
0.0894292
0.0894303
0.0894315
0.089433
0.0894346
0.0894365
0.0894387
0.089441
0.0894437
0.0894466
0.0894498
0.0894533
0.0894571
0.0894612
0.0894657
0.0894705
0.0894756
0.0894811
0.0894869
0.0894932
0.0894998
0.0895068
0.0895142
0.089522
0.0895303
0.089539
0.0895481
0.0895576
0.0895676
0.089578
0.0895889
0.0896002
0.089612
0.0896243
0.0896369
0.0896501
0.0896637
0.0896777
0.0896922
0.0897071
0.0897225
0.0897383
0.0897544
0.089771
0.089788
0.0898054
0.0898231
0.0898413
0.0898597
0.0898785
0.0898976
0.089917
0.0899366
0.0899566
0.0899767
0.0899971
0.0900177
0.0900385
0.0900595
0.0900806
0.0901018
0.0901231
0.0901445
0.0901659
0.0901874
0.0902089
0.0902304
0.0902518
0.0902732
0.0902946
0.0903158
0.0903369
0.0903579
0.0903788
0.0903995
0.0904199
0.0904402
0.0904603
0.0904801
0.0904997
0.090519
0.0905381
0.0905568
0.0905753
0.0905934
0.0906113
0.0906287
0.0906459
0.0906627
0.0906792
0.0906953
0.090711
0.0907264
0.0907414
0.0907561
0.0907704
0.0907843
0.0907978
0.090811
0.0908238
0.0908362
0.0908483
0.09086
0.0908714
0.0908824
0.0908931
0.0909034
0.0909134
0.090923
0.0909324
0.0909414
0.0909501
0.0909585
0.0909666
0.0909744
0.090982
0.0909892
0.0909962
0.0910029
0.0910094
0.0910156
0.0910216
0.0910274
0.0910329
0.0910382