# vtk DataFile Version 2.0
FlowField
ASCII
DATASET STRUCTURED_GRID
DIMENSIONS 800 1 200
POINTS 160000 float
0 0 0
0.04 0 0
0.08 0 0
0.12 0 0
0.16 0 0
0.2 0 0
0.24 0 0
0.28 0 0
0.32 0 0
0.36 0 0
0.4 0 0
0.44 0 0
0.48 0 0
0.52 0 0
0.56 0 0
0.6 0 0
0.64 0 0
0.68 0 0
0.72 0 0
0.76 0 0
0.8 0 0
0.84 0 0
0.88 0 0
0.92 0 0
0.96 0 0
1 0 0
1.04 0 0
1.08 0 0
1.12 0 0
1.16 0 0
1.2 0 0
1.24 0 0
1.28 0 0
1.32 0 0
1.36 0 0
1.4 0 0
1.44 0 0
1.48 0 0
1.52 0 0
1.56 0 0
1.6 0 0
1.64 0 0
1.68 0 0
1.72 0 0
1.76 0 0
1.8 0 0
1.84 0 0
1.88 0 0
1.92 0 0
1.96 0 0
2 0 0
2.04 0 0
2.08 0 0
2.12 0 0
2.16 0 0
2.2 0 0
2.24 0 0
2.28 0 0
2.32 0 0
2.36 0 0
2.4 0 0
2.44 0 0
2.48 0 0
2.52 0 0
2.56 0 0
2.6 0 0
2.64 0 0
2.68 0 0
2.72 0 0
2.76 0 0
2.8 0 0
2.84 0 0
2.88 0 0
2.92 0 0
2.96 0 0
3 0 0
3.04 0 0
3.08 0 0
3.12 0 0
3.16 0 0
3.2 0 0
3.24 0 0
3.28 0 0
3.32 0 0
3.36 0 0
3.4 0 0
3.44 0 0
3.48 0 0
3.52 0 0
3.56 0 0
3.6 0 0
3.64 0 0
3.68 0 0
3.72 0 0
3.76 0 0
3.8 0 0
3.84 0 0
3.88 0 0
3.92 0 0
3.96 0 0
4 0 0
4.04 0 0
4.08 0 0
4.12 0 0
4.16 0 0
4.2 0 0
4.24 0 0
4.28 0 0
4.32 0 0
4.36 0 0
4.4 0 0
4.44 0 0
4.48 0 0
4.52 0 0
4.56 0 0
4.6 0 0
4.64 0 0
4.68 0 0
4.72 0 0
4.76 0 0
4.8 0 0
4.84 0 0
4.88 0 0
4.92 0 0
4.96 0 0
5 0 0
5.04 0 0
5.08 0 0
5.12 0 0
5.16 0 0
5.2 0 0
5.24 0 0
5.28 0 0
5.32 0 0
5.36 0 0
5.4 0 0
5.44 0 0
5.48 0 0
5.52 0 0
5.56 0 0
5.6 0 0
5.64 0 0
5.68 0 0
5.72 0 0
5.76 0 0
5.8 0 0
5.84 0 0
5.88 0 0
5.92 0 0
5.96 0 0
6 0 0
6.04 0 0
6.08 0 0
6.12 0 0
6.16 0 0
6.2 0 0
6.24 0 0
6.28 0 0
6.32 0 0
6.36 0 0
6.4 0 0
6.44 0 0
6.48 0 0
6.52 0 0
6.56 0 0
6.6 0 0
6.64 0 0
6.68 0 0
6.72 0 0
6.76 0 0
6.8 0 0
6.84 0 0
6.88 0 0
6.92 0 0
6.96 0 0
7 0 0
7.04 0 0
7.08 0 0
7.12 0 0
7.16 0 0
7.2 0 0
7.24 0 0
7.28 0 0
7.32 0 0
7.36 0 0
7.4 0 0
7.44 0 0
7.48 0 0
7.52 0 0
7.56 0 0
7.6 0 0
7.64 0 0
7.68 0 0
7.72 0 0
7.76 0 0
7.8 0 0
7.84 0 0
7.88 0 0
7.92 0 0
7.96 0 0
8 0 0
8.04 0 0
8.08 0 0
8.12 0 0
8.16 0 0
8.2 0 0
8.24 0 0
8.28 0 0
8.32 0 0
8.36 0 0
8.4 0 0
8.44 0 0
8.48 0 0
8.52 0 0
8.56 0 0
8.6 0 0
8.64 0 0
8.68 0 0
8.72 0 0
8.76 0 0
8.8 0 0
8.84 0 0
8.88 0 0
8.92 0 0
8.96 0 0
9 0 0
9.04 0 0
9.08 0 0
9.12 0 0
9.16 0 0
9.2 0 0
9.24 0 0
9.28 0 0
9.32 0 0
9.36 0 0
9.4 0 0
9.44 0 0
9.48 0 0
9.52 0 0
9.56 0 0
9.6 0 0
9.64 0 0
9.68 0 0
9.72 0 0
9.76 0 0
9.8 0 0
9.84 0 0
9.88 0 0
9.92 0 0
9.96 0 0
10 0 0
10.04 0 0
10.08 0 0
10.12 0 0
10.16 0 0
10.2 0 0
10.24 0 0
10.28 0 0
10.32 0 0
10.36 0 0
10.4 0 0
10.44 0 0
10.48 0 0
10.52 0 0
10.56 0 0
10.6 0 0
10.64 0 0
10.68 0 0
10.72 0 0
10.76 0 0
10.8 0 0
10.84 0 0
10.88 0 0
10.92 0 0
10.96 0 0
11 0 0
11.04 0 0
11.08 0 0
11.12 0 0
11.16 0 0
11.2 0 0
11.24 0 0
11.28 0 0
11.32 0 0
11.36 0 0
11.4 0 0
11.44 0 0
11.48 0 0
11.52 0 0
11.56 0 0
11.6 0 0
11.64 0 0
11.68 0 0
11.72 0 0
11.76 0 0
11.8 0 0
11.84 0 0
11.88 0 0
11.92 0 0
11.96 0 0
12 0 0
12.04 0 0
12.08 0 0
12.12 0 0
12.16 0 0
12.2 0 0
12.24 0 0
12.28 0 0
12.32 0 0
12.36 0 0
12.4 0 0
12.44 0 0
12.48 0 0
12.52 0 0
12.56 0 0
12.6 0 0
12.64 0 0
12.68 0 0
12.72 0 0
12.76 0 0
12.8 0 0
12.84 0 0
12.88 0 0
12.92 0 0
12.96 0 0
13 0 0
13.04 0 0
13.08 0 0
13.12 0 0
13.16 0 0
13.2 0 0
13.24 0 0
13.28 0 0
13.32 0 0
13.36 0 0
13.4 0 0
13.44 0 0
13.48 0 0
13.52 0 0
13.56 0 0
13.6 0 0
13.64 0 0
13.68 0 0
13.72 0 0
13.76 0 0
13.8 0 0
13.84 0 0
13.88 0 0
13.92 0 0
13.96 0 0
14 0 0
14.04 0 0
14.08 0 0
14.12 0 0
14.16 0 0
14.2 0 0
14.24 0 0
14.28 0 0
14.32 0 0
14.36 0 0
14.4 0 0
14.44 0 0
14.48 0 0
14.52 0 0
14.56 0 0
14.6 0 0
14.64 0 0
14.68 0 0
14.72 0 0
14.76 0 0
14.8 0 0
14.84 0 0
14.88 0 0
14.92 0 0
14.96 0 0
15 0 0
15.04 0 0
15.08 0 0
15.12 0 0
15.16 0 0
15.2 0 0
15.24 0 0
15.28 0 0
15.32 0 0
15.36 0 0
15.4 0 0
15.44 0 0
15.48 0 0
15.52 0 0
15.56 0 0
15.6 0 0
15.64 0 0
15.68 0 0
15.72 0 0
15.76 0 0
15.8 0 0
15.84 0 0
15.88 0 0
15.92 0 0
15.96 0 0
16 0 0
16.04 0 0
16.08 0 0
16.12 0 0
16.16 0 0
16.2 0 0
16.24 0 0
16.28 0 0
16.32 0 0
16.36 0 0
16.4 0 0
16.44 0 0
16.48 0 0
16.52 0 0
16.56 0 0
16.6 0 0
16.64 0 0
16.68 0 0
16.72 0 0
16.76 0 0
16.8 0 0
16.84 0 0
16.88 0 0
16.92 0 0
16.96 0 0
17 0 0
17.04 0 0
17.08 0 0
17.12 0 0
17.16 0 0
17.2 0 0
17.24 0 0
17.28 0 0
17.32 0 0
17.36 0 0
17.4 0 0
17.44 0 0
17.48 0 0
17.52 0 0
17.56 0 0
17.6 0 0
17.64 0 0
17.68 0 0
17.72 0 0
17.76 0 0
17.8 0 0
17.84 0 0
17.88 0 0
17.92 0 0
17.96 0 0
18 0 0
18.04 0 0
18.08 0 0
18.12 0 0
18.16 0 0
18.2 0 0
18.24 0 0
18.28 0 0
18.32 0 0
18.36 0 0
18.4 0 0
18.44 0 0
18.48 0 0
18.52 0 0
18.56 0 0
18.6 0 0
18.64 0 0
18.68 0 0
18.72 0 0
18.76 0 0
18.8 0 0
18.84 0 0
18.88 0 0
18.92 0 0
18.96 0 0
19 0 0
19.04 0 0
19.08 0 0
19.12 0 0
19.16 0 0
19.2 0 0
19.24 0 0
19.28 0 0
19.32 0 0
19.36 0 0
19.4 0 0
19.44 0 0
19.48 0 0
19.52 0 0
19.56 0 0
19.6 0 0
19.64 0 0
19.68 0 0
19.72 0 0
19.76 0 0
19.8 0 0
19.84 0 0
19.88 0 0
19.92 0 0
19.96 0 0
20 0 0
20.04 0 0
20.08 0 0
20.12 0 0
20.16 0 0
20.2 0 0
20.24 0 0
20.28 0 0
20.32 0 0
20.36 0 0
20.4 0 0
20.44 0 0
20.48 0 0
20.52 0 0
20.56 0 0
20.6 0 0
20.64 0 0
20.68 0 0
20.72 0 0
20.76 0 0
20.8 0 0
20.84 0 0
20.88 0 0
20.92 0 0
20.96 0 0
21 0 0
21.04 0 0
21.08 0 0
21.12 0 0
21.16 0 0
21.2 0 0
21.24 0 0
21.28 0 0
21.32 0 0
21.36 0 0
21.4 0 0
21.44 0 0
21.48 0 0
21.52 0 0
21.56 0 0
21.6 0 0
21.64 0 0
21.68 0 0
21.72 0 0
21.76 0 0
21.8 0 0
21.84 0 0
21.88 0 0
21.92 0 0
21.96 0 0
22 0 0
22.04 0 0
22.08 0 0
22.12 0 0
22.16 0 0
22.2 0 0
22.24 0 0
22.28 0 0
22.32 0 0
22.36 0 0
22.4 0 0
22.44 0 0
22.48 0 0
22.52 0 0
22.56 0 0
22.6 0 0
22.64 0 0
22.68 0 0
22.72 0 0
22.76 0 0
22.8 0 0
22.84 0 0
22.88 0 0
22.92 0 0
22.96 0 0
23 0 0
23.04 0 0
23.08 0 0
23.12 0 0
23.16 0 0
23.2 0 0
23.24 0 0
23.28 0 0
23.32 0 0
23.36 0 0
23.4 0 0
23.44 0 0
23.48 0 0
23.52 0 0
23.56 0 0
23.6 0 0
23.64 0 0
23.68 0 0
23.72 0 0
23.76 0 0
23.8 0 0
23.84 0 0
23.88 0 0
23.92 0 0
23.96 0 0
24 0 0
24.04 0 0
24.08 0 0
24.12 0 0
24.16 0 0
24.2 0 0
24.24 0 0
24.28 0 0
24.32 0 0
24.36 0 0
24.4 0 0
24.44 0 0
24.48 0 0
24.52 0 0
24.56 0 0
24.6 0 0
24.64 0 0
24.68 0 0
24.72 0 0
24.76 0 0
24.8 0 0
24.84 0 0
24.88 0 0
24.92 0 0
24.96 0 0
25 0 0
25.04 0 0
25.08 0 0
25.12 0 0
25.16 0 0
25.2 0 0
25.24 0 0
25.28 0 0
25.32 0 0
25.36 0 0
25.4 0 0
25.44 0 0
25.48 0 0
25.52 0 0
25.56 0 0
25.6 0 0
25.64 0 0
25.68 0 0
25.72 0 0
25.76 0 0
25.8 0 0
25.84 0 0
25.88 0 0
25.92 0 0
25.96 0 0
26 0 0
26.04 0 0
26.08 0 0
26.12 0 0
26.16 0 0
26.2 0 0
26.24 0 0
26.28 0 0
26.32 0 0
26.36 0 0
26.4 0 0
26.44 0 0
26.48 0 0
26.52 0 0
26.56 0 0
26.6 0 0
26.64 0 0
26.68 0 0
26.72 0 0
26.76 0 0
26.8 0 0
26.84 0 0
26.88 0 0
26.92 0 0
26.96 0 0
27 0 0
27.04 0 0
27.08 0 0
27.12 0 0
27.16 0 0
27.2 0 0
27.24 0 0
27.28 0 0
27.32 0 0
27.36 0 0
27.4 0 0
27.44 0 0
27.48 0 0
27.52 0 0
27.56 0 0
27.6 0 0
27.64 0 0
27.68 0 0
27.72 0 0
27.76 0 0
27.8 0 0
27.84 0 0
27.88 0 0
27.92 0 0
27.96 0 0
28 0 0
28.04 0 0
28.08 0 0
28.12 0 0
28.16 0 0
28.2 0 0
28.24 0 0
28.28 0 0
28.32 0 0
28.36 0 0
28.4 0 0
28.44 0 0
28.48 0 0
28.52 0 0
28.56 0 0
28.6 0 0
28.64 0 0
28.68 0 0
28.72 0 0
28.76 0 0
28.8 0 0
28.84 0 0
28.88 0 0
28.92 0 0
28.96 0 0
29 0 0
29.04 0 0
29.08 0 0
29.12 0 0
29.16 0 0
29.2 0 0
29.24 0 0
29.28 0 0
29.32 0 0
29.36 0 0
29.4 0 0
29.44 0 0
29.48 0 0
29.52 0 0
29.56 0 0
29.6 0 0
29.64 0 0
29.68 0 0
29.72 0 0
29.76 0 0
29.8 0 0
29.84 0 0
29.88 0 0
29.92 0 0
29.96 0 0
30 0 0
30.04 0 0
30.08 0 0
30.12 0 0
30.16 0 0
30.2 0 0
30.24 0 0
30.28 0 0
30.32 0 0
30.36 0 0
30.4 0 0
30.44 0 0
30.48 0 0
30.52 0 0
30.56 0 0
30.6 0 0
30.64 0 0
30.68 0 0
30.72 0 0
30.76 0 0
30.8 0 0
30.84 0 0
30.88 0 0
30.92 0 0
30.96 0 0
31 0 0
31.04 0 0
31.08 0 0
31.12 0 0
31.16 0 0
31.2 0 0
31.24 0 0
31.28 0 0
31.32 0 0
31.36 0 0
31.4 0 0
31.44 0 0
31.48 0 0
31.52 0 0
31.56 0 0
31.6 0 0
31.64 0 0
31.68 0 0
31.72 0 0
31.76 0 0
31.8 0 0
31.84 0 0
31.88 0 0
31.92 0 0
31.96 0 0
0 0.005 0
0.04 0.005 0
0.08 0.005 0
0.12 0.005 0
0.16 0.005 0
0.2 0.005 0
0.24 0.005 0
0.28 0.005 0
0.32 0.005 0
0.36 0.005 0
0.4 0.005 0
0.44 0.005 0
0.48 0.005 0
0.52 0.005 0
0.56 0.005 0
0.6 0.005 0
0.64 0.005 0
0.68 0.005 0
0.72 0.005 0
0.76 0.005 0
0.8 0.005 0
0.84 0.005 0
0.88 0.005 0
0.92 0.005 0
0.96 0.005 0
1 0.005 0
1.04 0.005 0
1.08 0.005 0
1.12 0.005 0
1.16 0.005 0
1.2 0.005 0
1.24 0.005 0
1.28 0.005 0
1.32 0.005 0
1.36 0.005 0
1.4 0.005 0
1.44 0.005 0
1.48 0.005 0
1.52 0.005 0
1.56 0.005 0
1.6 0.005 0
1.64 0.005 0
1.68 0.005 0
1.72 0.005 0
1.76 0.005 0
1.8 0.005 0
1.84 0.005 0
1.88 0.005 0
1.92 0.005 0
1.96 0.005 0
2 0.005 0
2.04 0.005 0
2.08 0.005 0
2.12 0.005 0
2.16 0.005 0
2.2 0.005 0
2.24 0.005 0
2.28 0.005 0
2.32 0.005 0
2.36 0.005 0
2.4 0.005 0
2.44 0.005 0
2.48 0.005 0
2.52 0.005 0
2.56 0.005 0
2.6 0.005 0
2.64 0.005 0
2.68 0.005 0
2.72 0.005 0
2.76 0.005 0
2.8 0.005 0
2.84 0.005 0
2.88 0.005 0
2.92 0.005 0
2.96 0.005 0
3 0.005 0
3.04 0.005 0
3.08 0.005 0
3.12 0.005 0
3.16 0.005 0
3.2 0.005 0
3.24 0.005 0
3.28 0.005 0
3.32 0.005 0
3.36 0.005 0
3.4 0.005 0
3.44 0.005 0
3.48 0.005 0
3.52 0.005 0
3.56 0.005 0
3.6 0.005 0
3.64 0.005 0
3.68 0.005 0
3.72 0.005 0
3.76 0.005 0
3.8 0.005 0
3.84 0.005 0
3.88 0.005 0
3.92 0.005 0
3.96 0.005 0
4 0.005 0
4.04 0.005 0
4.08 0.005 0
4.12 0.005 0
4.16 0.005 0
4.2 0.005 0
4.24 0.005 0
4.28 0.005 0
4.32 0.005 0
4.36 0.005 0
4.4 0.005 0
4.44 0.005 0
4.48 0.005 0
4.52 0.005 0
4.56 0.005 0
4.6 0.005 0
4.64 0.005 0
4.68 0.005 0
4.72 0.005 0
4.76 0.005 0
4.8 0.005 0
4.84 0.005 0
4.88 0.005 0
4.92 0.005 0
4.96 0.005 0
5 0.005 0
5.04 0.005 0
5.08 0.005 0
5.12 0.005 0
5.16 0.005 0
5.2 0.005 0
5.24 0.005 0
5.28 0.005 0
5.32 0.005 0
5.36 0.005 0
5.4 0.005 0
5.44 0.005 0
5.48 0.005 0
5.52 0.005 0
5.56 0.005 0
5.6 0.005 0
5.64 0.005 0
5.68 0.005 0
5.72 0.005 0
5.76 0.005 0
5.8 0.005 0
5.84 0.005 0
5.88 0.005 0
5.92 0.005 0
5.96 0.005 0
6 0.005 0
6.04 0.005 0
6.08 0.005 0
6.12 0.005 0
6.16 0.005 0
6.2 0.005 0
6.24 0.005 0
6.28 0.005 0
6.32 0.005 0
6.36 0.005 0
6.4 0.005 0
6.44 0.005 0
6.48 0.005 0
6.52 0.005 0
6.56 0.005 0
6.6 0.005 0
6.64 0.005 0
6.68 0.005 0
6.72 0.005 0
6.76 0.005 0
6.8 0.005 0
6.84 0.005 0
6.88 0.005 0
6.92 0.005 0
6.96 0.005 0
7 0.005 0
7.04 0.005 0
7.08 0.005 0
7.12 0.005 0
7.16 0.005 0
7.2 0.005 0
7.24 0.005 0
7.28 0.005 0
7.32 0.005 0
7.36 0.005 0
7.4 0.005 0
[...]
POINT_DATA 160000

SCALARS phi float 1
LOOKUP_TABLE default
1
1
1
1
1
1
1
1
1
1
1
1
1
1
1
1
1
1
1
1
1
1
1
1
1
1
1
1
1
1
1
1
1
1
1
0.999999
0.999999
0.999999
0.999999
0.999998
0.999997
0.999997
0.999995
0.999994
0.999992
0.99999
0.999988
0.999985
0.999982
0.999978
0.999973
0.999968
0.999961
0.999954
0.999946
0.999937
0.999926
0.999914
0.999901
0.999886
0.99987
0.999852
0.999832
0.99981
0.999786
0.99976
0.999731
0.9997
0.999667
0.999631
0.999592
0.99955
0.999505
0.999457
0.999406
0.999352
0.999294
0.999232
0.999167
0.999099
0.999026
0.998949
0.998869
0.998784
0.998695
0.998602
0.998504
0.998403
0.998296
0.998185
0.998069
0.997949
0.997824
0.997694
0.997559
0.997419
0.997275
0.997125
0.99697
0.99681
0.996645
0.996475
0.9963
0.996119
0.995933
0.995742
0.995546
0.995344
0.995137
0.994925
0.994707
0.994484
0.994256
0.994022
0.993783
0.993539
0.993289
0.993034
0.992774
0.992509
0.992238
0.991962
0.99168
0.991394
0.991102
0.990805
0.990502
0.990195
0.989883
0.989565
0.989242
0.988915
0.988582
0.988244
0.987901
0.987554
0.987201
0.986844
0.986482
0.986115
0.985743
0.985367
0.984986
0.984601
0.98421
0.983816
0.983416
0.983013
0.982604
0.982192
0.981775
0.981354
0.980928
0.980499
0.980065
0.979627
0.979185
0.978739
0.978289
0.977835
0.977377
0.976915
0.97645
0.97598
0.975507
0.975031
0.97455
0.974066
0.973579
0.973087
0.972593
0.972095
0.971594
0.971089
0.970581
0.970069
0.969555
0.969037
0.968516
0.967992
0.967465
0.966935
0.966402
0.965866
0.965326
0.964784
0.964239
0.963691
0.963141
0.962587
0.962031
0.961472
0.96091
0.960345
0.959778
0.959207
0.958634
0.958059
0.95748
0.956899
0.956315
0.955729
0.955139
0.954547
0.953952
0.953355
0.952754
0.952151
0.951544
0.950935
0.950323
0.949708
0.94909
0.948468
0.947844
0.947216
0.946586
0.945951
0.945314
0.944673
0.944029
0.94338
0.942729
0.942073
0.941414
0.94075
0.940083
0.939412
0.938736
0.938056
0.937371
0.936682
0.935988
0.93529
0.934586
0.933877
0.933164
0.932444
0.93172
0.93099
0.930254
0.929512
0.928765
0.928011
0.927251
0.926484
0.925711
0.924931
0.924145
0.923351
0.92255
0.921742
0.920927
0.920103
0.919272
0.918434
0.917587
0.916732
0.915868
0.914996
0.914116
0.913226
0.912328
0.91142
0.910504
0.909578
0.908642
0.907697
0.906742
0.905777
0.904802
0.903817
0.902822
0.901816
0.900799
0.899772
0.898735
0.897686
0.896626
0.895555
0.894473
0.89338
0.892275
0.891159
0.890031
0.888892
0.887741
0.886578
0.885403
0.884216
0.883017
0.881805
0.880582
0.879347
0.878099
0.876839
0.875566
0.874281
0.872984
0.871674
0.870351
0.869016
0.867669
0.866308
0.864935
0.86355
0.862152
0.860741
0.859318
0.857882
0.856433
0.854972
0.853498
0.852011
0.850512
0.849001
0.847476
0.84594
0.844391
0.842829
0.841255
0.839669
0.838071
0.83646
0.834837
0.833202
0.831555
0.829895
0.828224
0.826541
0.824846
0.82314
0.821422
0.819692
0.81795
0.816198
0.814433
0.812658
0.810871
0.809074
0.807265
0.805446
0.803615
0.801774
0.799923
0.79806
0.796188
0.794305
0.792412
0.790509
0.788596
0.786673
0.78474
0.782798
0.780846
0.778885
0.776914
0.774935
0.772946
0.770949
0.768942
0.766927
0.764903
0.762871
0.760831
0.758782
0.756726
0.754661
0.752589
0.750509
0.748421
0.746326
0.744224
0.742115
0.739998
0.737875
0.735745
0.733608
0.731465
0.729315
0.727159
0.724997
0.722829
0.720655
0.718476
0.716291
0.7141
0.711904
0.709703
0.707496
0.705285
0.703069
0.700848
0.698623
0.696393
0.694159
0.69192
0.689678
0.687432
0.685182
0.682928
0.68067
0.678409
0.676145
0.673878
0.671608
0.669334
0.667058
0.664779
0.662497
0.660213
0.657927
0.655638
0.653348
0.651055
0.64876
0.646464
0.644165
0.641866
0.639565
0.637262
0.634958
0.632653
0.630348
0.628041
0.625733
0.623425
0.621116
0.618806
0.616497
0.614187
0.611876
0.609566
0.607256
0.604945
0.602635
0.600325
0.598016
0.595707
0.593399
0.591091
0.588784
0.586478
0.584173
0.581869
0.579566
0.577264
0.574964
0.572665
0.570367
0.568071
0.565776
0.563484
0.561193
0.558903
0.556616
0.554331
0.552048
0.549767
0.547488
0.545211
0.542937
0.540665
0.538396
0.53613
0.533866
0.531604
0.529346
0.52709
0.524838
0.522588
0.520341
0.518098
0.515857
0.51362
0.511386
0.509155
0.506928
0.504704
0.502484
0.500267
0.498054
0.495845
0.493639
0.491437
0.489239
0.487045
0.484854
0.482668
0.480485
0.478307
0.476133
0.473963
0.471797
0.469635
0.467477
0.465324
0.463176
0.461031
0.458891
0.456756
0.454625
0.452498
0.450377
0.448259
0.446147
0.444039
0.441936
0.439837
0.437744
0.435655
0.433571
0.431492
0.429417
0.427348
0.425284
0.423225
0.42117
0.419121
0.417077
0.415038
0.413004
0.410975
0.408951
0.406932
0.404919
0.402911
0.400908
0.39891
0.396918
0.394931
0.392949
0.390973
0.389002
0.387036
0.385076
0.383121
0.381172
0.379228
0.377289
0.375356
0.373428
0.371506
0.36959
0.367679
0.365773
0.363873
0.361978
0.360089
0.358206
0.356328
0.354456
0.352589
0.350728
0.348872
0.347022
0.345178
0.343339
0.341506
0.339679
0.337857
0.336041
0.334231
0.332426
0.330627
0.328833
0.327045
0.325263
0.323486
0.321715
0.31995
0.31819
0.316437
0.314688
0.312946
0.311209
0.309477
0.307752
0.306032
0.304318
0.302609
0.300906
0.299209
0.297517
0.295831
0.294151
0.292476
0.290807
0.289143
0.287485
0.285833
0.284187
0.282546
0.28091
0.27928
0.277656
0.276038
0.274425
0.272817
0.271215
0.269619
0.268028
0.266443
0.264864
0.26329
0.261721
0.260158
0.2586
0.257048
0.255502
0.253961
0.252425
0.250895
0.249371
0.247852
0.246338
0.24483
0.243327
0.241829
0.240337
0.238851
0.23737
0.235894
0.234423
0.232958
0.231499
0.230044
0.228595
0.227151
0.225713
0.22428
0.222852
0.221429
0.220012
0.2186
0.217193
0.215791
0.214395
0.213004
0.211618
0.210237
0.208861
0.207491
0.206125
0.204765
0.20341
0.20206
0.200715
0.199375
0.19804
0.196711
0.195386
0.194067
0.192752
0.191442
0.190138
0.188838
0.187544
0.186254
0.18497
0.18369
0.182415
0.181145
0.17988
0.17862
0.177365
0.176115
0.174869
0.173629
0.172393
0.171162
0.169936
0.168714
0.167498
0.166286
0.165079
0.163876
0.162679
0.161486
0.160298
0.159114
0.157936
0.156761
0.155592
0.154427
0.153267
0.152112
0.150961
0.149814
0.148673
0.147535
0.146403
0.145275
0.144151
0.143033
0.141918
0.140808
0.139703
0.138602
0.137506
0.136414
0.135326
0.134243
0.133165
0.13209
0.131021
0.129955
0.128894
0.127838
0.126786
0.125738
0.124694
0.123655
0.122621
0.12159
0.120564
0.119542
0.118525
0.117511
0.116503
0.115498
0.114498
0.113501
0.11251
0.111522
0.110539
0.109559
0.108585
0.107614
0.106647
0.105685
0.104727
0.103773
0.102823
0.101878
0.100936
0.0999988
0.0990657
0.0981367
0.0972119
0.0962911
0.0953745
0.0944621
0.0935537
0.0926495
0.0917493
0.0908533
0.0899613
0.0890735
0.0881897
0.08731
0.0864344
0.0855629
0.0846954
0.083832
0.0829727
0.0821174
0.0812662
0.0804191
0.079576
0.0787369
0.0779019
0.077071
0.0762441
0.0754212
0.0746024
0.0737877
0.0729769
0.0721702
0.0713676
0.070569
0.0697744
0.0689839
0.0681975
0.067415
0.0666367
0.0658623
0.065092
0.0643258
0.0635636
0.0628055
0.0620514
0.0613014
0.0605554
0.0598135
0.0590757
0.0583419
0.0576123
0.0568866
0.0561652
0.0554476
0.0547345
0.0540248
0.0533203
0.052618
0.0519238
0.0512287
0.0505673
0.0499544
0.0499544
1
1
1
1
1
1
1
1
1
1
1
1
1
1
1
1
1
1
1
1
1
1
1
1
1
1
1
1
1
1
1
1
1
1
1
0.999999
0.999999
0.999999
0.999999
0.999998
0.999997
0.999997
0.999995
0.999994
0.999992
0.99999
0.999988
0.999985
0.999982
0.999978
0.999973
0.999968
0.999961
0.999954
0.999946
0.999937
0.999926
0.999914
0.999901
0.999886
0.99987
0.999852
0.999832
0.99981
0.999786
0.99976
0.999731
0.9997
0.999667
0.999631
0.999592
0.99955
0.999505
0.999457
0.999406
0.999352
0.999294
0.999232
0.999167
0.999099
0.999026
0.998949
0.998869
0.998784
0.998695
0.998602
0.998504
0.998403
0.998296
0.998185
0.998069
0.997949
0.997824
0.997694
0.997559
0.997419
0.997275
0.997125
0.99697
0.99681
0.996645
0.996475
0.9963
0.996119
0.995933
0.995742
0.995546
0.995344
0.995137
0.994925
0.994707
0.994484
0.994256
0.994022
0.993783
0.993539
0.993289
0.993034
0.992774
0.992509
0.992238
0.991962
0.99168
0.991394
0.991102
0.990805
0.990502
0.990195
0.989883
0.989565
0.989242
0.988915
0.988582
0.988244
0.987901
0.987554
0.987201
0.986844
0.986482
0.986115
0.985743
0.985367
0.984986
0.984601
0.98421
0.983816
0.983416
0.983013
0.982604
0.982192
0.981775
0.981354
0.980928
0.980499
0.980065
0.979627
0.979185
0.978739
0.978289
0.977835
0.977377
0.976915
0.97645
0.97598
0.975507
0.975031
0.97455
0.974066
0.973579
0.973087
0.972593
0.972095
0.971594
0.971089
0.970581
0.970069
0.969555
0.969037
0.968516
0.967992
0.967465
0.966935
0.966402
0.965866
0.965326
0.964784
0.964239
0.963691
0.963141
0.962587
0.962031
0.961472
0.96091
0.960345
0.959778
0.959207
0.958634
0.958059
0.95748
0.956899
0.956315
0.955729
0.955139
0.954547
0.953952
0.953355
0.952754
0.952151
0.951544
0.950935
0.950323
0.949708
0.94909
0.948468
0.947844
0.947216
0.946586
0.945951
0.945314
0.944673
0.944029
0.94338
0.942729
0.942073
0.941414
0.94075
0.940083
0.939412
0.938736
0.938056
0.937371
0.936682
0.935988
0.93529
0.934586
0.933877
0.933164
0.932444
0.93172
0.93099
0.930254
0.929512
0.928765
0.928011
0.927251
0.926484
0.925711
0.924931
0.924145
0.923351
0.92255
0.921742
0.920927
0.920103
0.919272
0.918434
0.917587
0.916732
0.915868
0.914996
0.914116
0.913226
0.912328
0.91142
0.910504
0.909578
0.908642
0.907697
0.906742
0.905777
0.904802
0.903817
0.902822
0.901816
0.900799
0.899772
0.898735
0.897686
0.896626
0.895555
0.894473
0.89338
0.892275
0.891159
0.890031
0.888892
0.887741
0.886578
0.885403
0.884216
0.883017
0.881805
0.880582
0.879347
0.878099
0.876839
0.875566
0.874281
0.872984
0.871674
0.870351
0.869016
0.867669
0.866308
0.864935
0.86355
0.862152
0.860741
0.859318
0.857882
0.856433
0.854972
0.853498
0.852011
0.850512
0.849001
0.847476
0.84594
0.844391
0.842829
0.841255
0.839669
0.838071
0.83646
0.834837
0.833202
0.831555
0.829895
0.828224
0.826541
0.824846
0.82314
0.821422
0.819692
0.81795
0.816198
0.814433
0.812658
0.810871
0.809074
0.807265
0.805446
0.803615
0.801774
0.799923
0.79806
0.796188
0.794305
0.792412
0.790509
0.788596
0.786673
0.78474
0.782798
0.780846
0.778885
0.776914
0.774935
0.772946
0.770949
0.768942
0.766927
0.764903
0.762871
0.760831
0.758782
0.756726
0.754661
0.752589
0.750509
0.748421
0.746326
0.744224
0.742115
0.739998
0.737875
0.735745
0.733608
0.731465
0.729315
0.727159
0.724997
0.722829
0.720655
0.718476
0.716291
0.7141
0.711904
0.709703
0.707496
0.705285
0.703069
0.700848
0.698623
0.696393
0.694159
0.69192
0.689678
0.687432
0.685182
0.682928
0.68067
0.678409
0.676145
0.673878
0.671608
0.669334
0.667058
0.664779
0.662497
0.660213
0.657927
0.655638
0.653348
0.651055
0.64876
0.646464
0.644165
0.641866
0.639565
0.637262
0.634958
0.632653
0.630348
0.628041
0.625733
0.623425
0.621116
0.618806
0.616497
0.614187
0.611876
0.609566
0.607256
0.604945
0.602635
0.600325
0.598016
0.595707
0.593399
0.591091
0.588784
0.586478
0.584173
0.581869
0.579566
0.577264
0.574964
0.572665
0.570367
0.568071
0.565776
0.563484
0.561193
0.558903
0.556616
0.554331
0.552048
0.549767
0.547488
0.545211
0.542937
0.540665
0.538396
0.53613
0.533866
0.531604
0.529346
0.52709
0.524838
0.522588
0.520341
0.518098
0.515857
0.51362
0.511386
0.509155
0.506928
0.504704
0.502484
0.500267
0.498054
0.495845
0.493639
0.491437
0.489239
0.487045
0.484854
0.482668
0.480485
0.478307
0.476133
0.473963
0.471797
0.469635
0.467477
0.465324
0.463176
0.461031
0.458891
0.456756
0.454625
0.452498
0.450377
0.448259
0.446147
0.444039
0.441936
0.439837
0.437744
0.435655
0.433571
0.431492
0.429417
0.427348
0.425284
0.423225
0.42117
0.419121
0.417077
0.415038
0.413004
0.410975
0.408951
0.406932
0.404919
0.402911
0.400908
0.39891
0.396918
0.394931
0.392949
0.390973
0.389002
0.387036
0.385076
0.383121
0.381172
0.379228
0.377289
0.375356
0.373428
0.371506
0.36959
0.367679
0.365773
0.363873
0.361978
0.360089
0.358206
0.356328
0.354456
0.352589
0.350728
0.348872
0.347022
0.345178
0.343339
0.341506
0.339679
0.337857
0.336041
0.334231
0.332426
0.330627
0.328833
0.327045
0.325263
0.323486
0.321715
0.31995
0.31819
0.316437
0.314688
0.312946
0.311209
0.309477
0.307752
0.306032
0.304318
0.302609
0.300906
0.299209
0.297517
0.295831
0.294151
0.292476
0.290807
0.289143
0.287485
0.285833
0.284187
0.282546
0.28091
0.27928
0.277656
0.276038
0.274425
0.272817
0.271215
0.269619
0.268028
0.266443
0.264864
0.26329
0.261721
0.260158
0.2586
0.257048
0.255502
0.253961
0.252425
0.250895
0.249371
0.247852
0.246338
0.24483
0.243327
0.241829
0.240337
0.238851
0.23737
0.235894
0.234423
0.232958
0.231499
0.230044
0.228595
0.227151
0.225713
0.22428
0.222852
0.221429
0.220012
0.2186
0.217193
0.215791
0.214395
0.213004
0.211618
0.210237
0.208861
0.207491
0.206125
0.204765
0.20341
0.20206
0.200715
0.199375
0.19804
0.196711
0.195386
0.194067
0.192752
0.191442
0.190138
0.188838
0.187544
0.186254
0.18497
0.18369
0.182415
0.181145
0.17988
0.17862
0.177365
0.176115
0.174869
0.173629
0.172393
0.171162
0.169936
0.168714
0.167498
0.166286
0.165079
0.163876
0.162679
0.161486
0.160298
0.159114
0.157936
0.156761
0.155592
0.154427
0.153267
0.152112
0.150961
0.149814
0.148673
0.147535
0.146403
0.145275
0.144151
0.143033
0.141918
0.140808
0.139703
0.138602
0.137506
0.136414
0.135326
0.134243
0.133165
0.13209
0.131021
0.129955
0.128894
0.127838
0.126786
0.125738
0.124694
0.123655
0.122621
0.12159
0.120564
0.119542
0.118525
0.117511
0.116503
0.115498
0.114498
0.113501
0.11251
0.111522
0.110539
0.109559
0.108585
0.107614
0.106647
0.105685
0.104727
0.103773
0.102823
0.101878
0.100936
0.0999988
0.0990657
0.0981367
0.0972119
0.0962911
0.0953745
0.0944621
0.0935537
0.0926495
0.0917493
0.0908533
0.0899613
0.0890735
0.0881897
0.08731
0.0864344
0.0855629
0.0846954
0.083832
0.0829727
0.0821174
0.0812662
0.0804191
0.079576
0.0787369
0.0779019
0.077071
0.0762441
0.0754212
0.0746024
0.0737877
0.0729769
0.0721702
0.0713676
0.070569
0.0697744
0.0689839
0.0681975
0.067415
0.0666367
0.0658623
0.065092
0.0643258
0.0635636
0.0628055
0.0620514
0.0613014
0.0605554
0.0598135
0.0590757
0.0583419
0.0576123
0.0568866
0.0561652
0.0554476
0.0547345
0.0540248
0.0533203
0.052618
0.0519238
0.0512287
0.0505673
0.0499544
0.0499544
1
1
1
1
1
1
1
1
1
1
1
1
1
1
1
1
1
1
1
1
1
1
1
1
1
1
1
1
1
1
1
1
1
1
1
0.999999
0.999999
0.999999
0.999999
0.999998
0.999997
0.999997
0.999995
0.999994
0.999992
0.99999
0.999988
0.999985
0.999982
0.999978
0.999973
0.999968
0.999961
0.999954
0.999946
0.999937
0.999926
0.999914
0.999901
0.999886
0.99987
0.999852
0.999832
0.99981
0.999786
0.99976
0.999731
0.9997
0.999667
0.999631
0.999592
0.99955
0.999505
0.999457
0.999406
0.999352
0.999294
0.999232
0.999167
0.999098
0.999026
0.998949
0.998869
0.998784
0.998695
0.998602
0.998504
0.998402
0.998296
0.998185
0.998069
0.997949
0.997824
0.997694
0.997559
0.997419
0.997274
0.997124
0.99697
0.99681
0.996645
0.996474
0.996299
0.996118
0.995933
0.995742
0.995545
0.995343
0.995136
0.994924
0.994706
0.994483
0.994255
0.994022
0.993783
0.993538
0.993289
0.993034
0.992773
0.992508
0.992237
0.991961
0.991679
0.991393
0.991101
0.990804
0.990501
0.990194
0.989882
0.989564
0.989241
0.988914
0.988581
0.988243
0.9879
0.987553
0.9872
0.986843
0.986481
0.986114
0.985742
0.985366
0.984985
0.984599
0.984209
0.983814
0.983415
0.983011
0.982603
0.982191
0.981774
0.981353
0.980927
0.980497
0.980064
0.979626
0.979184
0.978738
0.978288
0.977834
0.977376
0.976914
0.976448
0.975979
0.975506
0.975029
0.974549
0.974065
0.973577
0.973086
0.972591
0.972093
0.971592
0.971087
0.970579
0.970068
0.969553
0.969036
0.968515
0.967991
0.967464
0.966933
0.9664
0.965864
0.965325
0.964783
0.964238
0.96369
0.963139
0.962586
0.962029
0.96147
0.960908
0.960344
0.959776
0.959206
0.958633
0.958057
0.957479
0.956898
0.956314
0.955727
0.955138
0.954546
0.953951
0.953353
0.952753
0.95215
0.951543
0.950934
0.950322
0.949707
0.949089
0.948468
0.947844
0.947216
0.946585
0.945951
0.945314
0.944673
0.944029
0.943381
0.942729
0.942074
0.941415
0.940752
0.940085
0.939413
0.938738
0.938058
0.937374
0.936685
0.935991
0.935293
0.93459
0.933881
0.933168
0.932449
0.931725
0.930995
0.93026
0.929518
0.928771
0.928018
0.927258
0.926492
0.92572
0.92494
0.924154
0.923361
0.922561
0.921754
0.920939
0.920116
0.919286
0.918448
0.917601
0.916747
0.915884
0.915013
0.914133
0.913245
0.912347
0.91144
0.910525
0.909599
0.908665
0.90772
0.906766
0.905802
0.904829
0.903844
0.90285
0.901845
0.90083
0.899804
0.898767
0.89772
0.896661
0.895591
0.894511
0.893418
0.892315
0.8912
0.890073
0.888935
0.887785
0.886623
0.88545
0.884264
0.883066
0.881857
0.880635
0.879401
0.878154
0.876895
0.875624
0.874341
0.873045
0.871736
0.870415
0.869082
0.867736
0.866377
0.865006
0.863622
0.862225
0.860816
0.859394
0.85796
0.856513
0.855053
0.853581
0.852096
0.850598
0.849088
0.847566
0.846031
0.844483
0.842924
0.841351
0.839767
0.83817
0.836561
0.83494
0.833306
0.831661
0.830003
0.828334
0.826653
0.824959
0.823255
0.821538
0.81981
0.81807
0.816319
0.814557
0.812783
0.810998
0.809202
0.807395
0.805578
0.803749
0.80191
0.80006
0.798199
0.796329
0.794447
0.792556
0.790655
0.788743
0.786822
0.784891
0.782951
0.781
0.779041
0.777072
0.775094
0.773107
0.771111
0.769106
0.767093
0.765071
0.763041
0.761002
0.758955
0.7569
0.754837
0.752766
0.750688
0.748602
0.746509
0.744408
0.7423
0.740185
0.738063
0.735935
0.733799
0.731658
0.729509
0.727355
0.725195
0.723028
0.720856
0.718677
0.716494
0.714304
0.71211
0.70991
0.707705
0.705495
0.70328
0.701061
0.698837
0.696608
0.694376
0.692139
0.689898
0.687652
0.685404
0.683151
0.680895
0.678635
0.676372
0.674106
0.671837
0.669565
0.66729
0.665012
0.662732
0.660449
0.658163
0.655876
0.653586
0.651294
0.649001
0.646705
0.644408
0.64211
0.63981
0.637508
0.635205
0.632901
0.630596
0.628291
0.625984
0.623677
0.621369
0.61906
0.616751
0.614442
0.612133
0.609823
0.607514
0.605204
0.602895
0.600586
0.598277
0.595969
0.593662
0.591355
0.589049
0.586743
0.584439
0.582136
0.579833
0.577532
0.575233
0.572934
0.570637
0.568342
0.566048
0.563755
0.561465
0.559176
0.55689
0.554605
0.552322
0.550042
0.547764
0.545488
0.543214
0.540943
0.538674
0.536408
0.534144
0.531884
0.529626
0.52737
0.525118
0.522869
0.520622
0.518379
0.516139
0.513902
0.511669
0.509438
0.507212
0.504988
0.502768
0.500552
0.498339
0.49613
0.493924
0.491723
0.489525
0.487331
0.48514
0.482954
0.480772
0.478594
0.47642
0.47425
0.472084
0.469923
0.467765
0.465612
0.463464
0.461319
0.45918
0.457044
0.454913
0.452787
0.450665
0.448548
0.446436
0.444328
0.442225
0.440126
0.438033
0.435944
0.43386
0.431781
0.429707
0.427637
0.425573
0.423514
0.421459
0.41941
0.417366
0.415327
0.413293
0.411264
0.40924
0.407221
0.405208
0.4032
0.401197
0.399199
0.397206
0.395219
0.393237
0.391261
0.38929
0.387324
0.385364
0.383409
0.381459
0.379515
0.377576
0.375643
0.373715
0.371793
0.369876
0.367964
0.366059
0.364158
0.362264
0.360374
0.358491
0.356613
0.35474
0.352873
0.351012
0.349156
0.347306
0.345461
0.343622
0.341789
0.339961
0.338139
0.336323
0.334512
0.332707
0.330907
0.329113
0.327325
0.325543
0.323766
0.321995
0.320229
0.318469
0.316715
0.314966
0.313223
0.311486
0.309754
0.308028
0.306308
0.304593
0.302884
0.301181
0.299483
0.297791
0.296105
0.294424
0.292749
0.291079
0.289416
0.287757
0.286105
0.284458
0.282816
0.28118
0.27955
0.277926
0.276307
0.274693
0.273085
0.271483
0.269886
0.268295
0.26671
0.26513
0.263555
0.261986
0.260423
0.258865
0.257312
0.255765
0.254224
0.252688
0.251157
0.249632
0.248113
0.246598
0.24509
0.243586
0.242089
0.240596
0.239109
0.237627
0.236151
0.23468
0.233214
0.231754
0.230299
0.22885
0.227405
0.225967
0.224533
0.223104
0.221681
0.220263
0.218851
0.217444
0.216041
0.214644
0.213253
0.211866
0.210485
0.209109
0.207738
0.206372
0.205011
0.203655
0.202305
0.200959
0.199619
0.198284
0.196954
0.195629
0.194308
0.192993
0.191683
0.190378
0.189078
0.187783
0.186493
0.185208
0.183927
0.182652
0.181382
0.180116
0.178856
0.1776
0.176349
0.175103
0.173862
0.172625
0.171394
0.170167
0.168945
0.167728
0.166516
0.165308
0.164105
0.162907
0.161714
0.160525
0.159341
0.158162
0.156987
0.155817
0.154652
0.153491
0.152335
0.151183
0.150036
0.148894
0.147756
0.146623
0.145495
0.144371
0.143251
0.142136
0.141026
0.13992
0.138818
0.137721
0.136629
0.135541
0.134457
0.133378
0.132303
0.131233
0.130167
0.129105