# vtk DataFile Version 2.0
FlowField
ASCII
DATASET STRUCTURED_GRID
DIMENSIONS 800 1 200
POINTS 160000 float
0 0 0
0.04 0 0
0.08 0 0
0.12 0 0
0.16 0 0
0.2 0 0
0.24 0 0
0.28 0 0
0.32 0 0
0.36 0 0
0.4 0 0
0.44 0 0
0.48 0 0
0.52 0 0
0.56 0 0
0.6 0 0
0.64 0 0
0.68 0 0
0.72 0 0
0.76 0 0
0.8 0 0
0.84 0 0
0.88 0 0
0.92 0 0
0.96 0 0
1 0 0
1.04 0 0
1.08 0 0
1.12 0 0
1.16 0 0
1.2 0 0
1.24 0 0
1.28 0 0
1.32 0 0
1.36 0 0
1.4 0 0
1.44 0 0
1.48 0 0
1.52 0 0
1.56 0 0
1.6 0 0
1.64 0 0
1.68 0 0
1.72 0 0
1.76 0 0
1.8 0 0
1.84 0 0
1.88 0 0
1.92 0 0
1.96 0 0
2 0 0
2.04 0 0
2.08 0 0
2.12 0 0
2.16 0 0
2.2 0 0
2.24 0 0
2.28 0 0
2.32 0 0
2.36 0 0
2.4 0 0
2.44 0 0
2.48 0 0
2.52 0 0
2.56 0 0
2.6 0 0
2.64 0 0
2.68 0 0
2.72 0 0
2.76 0 0
2.8 0 0
2.84 0 0
2.88 0 0
2.92 0 0
2.96 0 0
3 0 0
3.04 0 0
3.08 0 0
3.12 0 0
3.16 0 0
3.2 0 0
3.24 0 0
3.28 0 0
3.32 0 0
3.36 0 0
3.4 0 0
3.44 0 0
3.48 0 0
3.52 0 0
3.56 0 0
3.6 0 0
3.64 0 0
3.68 0 0
3.72 0 0
3.76 0 0
3.8 0 0
3.84 0 0
3.88 0 0
3.92 0 0
3.96 0 0
4 0 0
4.04 0 0
4.08 0 0
4.12 0 0
4.16 0 0
4.2 0 0
4.24 0 0
4.28 0 0
4.32 0 0
4.36 0 0
4.4 0 0
4.44 0 0
4.48 0 0
4.52 0 0
4.56 0 0
4.6 0 0
4.64 0 0
4.68 0 0
4.72 0 0
4.76 0 0
4.8 0 0
4.84 0 0
4.88 0 0
4.92 0 0
4.96 0 0
5 0 0
5.04 0 0
5.08 0 0
5.12 0 0
5.16 0 0
5.2 0 0
5.24 0 0
5.28 0 0
5.32 0 0
5.36 0 0
5.4 0 0
5.44 0 0
5.48 0 0
5.52 0 0
5.56 0 0
5.6 0 0
5.64 0 0
5.68 0 0
5.72 0 0
5.76 0 0
5.8 0 0
5.84 0 0
5.88 0 0
5.92 0 0
5.96 0 0
6 0 0
6.04 0 0
6.08 0 0
6.12 0 0
6.16 0 0
6.2 0 0
6.24 0 0
6.28 0 0
6.32 0 0
6.36 0 0
6.4 0 0
6.44 0 0
6.48 0 0
6.52 0 0
6.56 0 0
6.6 0 0
6.64 0 0
6.68 0 0
6.72 0 0
6.76 0 0
6.8 0 0
6.84 0 0
6.88 0 0
6.92 0 0
6.96 0 0
7 0 0
7.04 0 0
7.08 0 0
7.12 0 0
7.16 0 0
7.2 0 0
7.24 0 0
7.28 0 0
7.32 0 0
7.36 0 0
7.4 0 0
7.44 0 0
7.48 0 0
7.52 0 0
7.56 0 0
7.6 0 0
7.64 0 0
7.68 0 0
7.72 0 0
7.76 0 0
7.8 0 0
7.84 0 0
7.88 0 0
7.92 0 0
7.96 0 0
8 0 0
8.04 0 0
8.08 0 0
8.12 0 0
8.16 0 0
8.2 0 0
8.24 0 0
8.28 0 0
8.32 0 0
8.36 0 0
8.4 0 0
8.44 0 0
8.48 0 0
8.52 0 0
8.56 0 0
8.6 0 0
8.64 0 0
8.68 0 0
8.72 0 0
8.76 0 0
8.8 0 0
8.84 0 0
8.88 0 0
8.92 0 0
8.96 0 0
9 0 0
9.04 0 0
9.08 0 0
9.12 0 0
9.16 0 0
9.2 0 0
9.24 0 0
9.28 0 0
9.32 0 0
9.36 0 0
9.4 0 0
9.44 0 0
9.48 0 0
9.52 0 0
9.56 0 0
9.6 0 0
9.64 0 0
9.68 0 0
9.72 0 0
9.76 0 0
9.8 0 0
9.84 0 0
9.88 0 0
9.92 0 0
9.96 0 0
10 0 0
10.04 0 0
10.08 0 0
10.12 0 0
10.16 0 0
10.2 0 0
10.24 0 0
10.28 0 0
10.32 0 0
10.36 0 0
10.4 0 0
10.44 0 0
10.48 0 0
10.52 0 0
10.56 0 0
10.6 0 0
10.64 0 0
10.68 0 0
10.72 0 0
10.76 0 0
10.8 0 0
10.84 0 0
10.88 0 0
10.92 0 0
10.96 0 0
11 0 0
11.04 0 0
11.08 0 0
11.12 0 0
11.16 0 0
11.2 0 0
11.24 0 0
11.28 0 0
11.32 0 0
11.36 0 0
11.4 0 0
11.44 0 0
11.48 0 0
11.52 0 0
11.56 0 0
11.6 0 0
11.64 0 0
11.68 0 0
11.72 0 0
11.76 0 0
11.8 0 0
11.84 0 0
11.88 0 0
11.92 0 0
11.96 0 0
12 0 0
12.04 0 0
12.08 0 0
12.12 0 0
12.16 0 0
12.2 0 0
12.24 0 0
12.28 0 0
12.32 0 0
12.36 0 0
12.4 0 0
12.44 0 0
12.48 0 0
12.52 0 0
12.56 0 0
12.6 0 0
12.64 0 0
12.68 0 0
12.72 0 0
12.76 0 0
12.8 0 0
12.84 0 0
12.88 0 0
12.92 0 0
12.96 0 0
13 0 0
13.04 0 0
13.08 0 0
13.12 0 0
13.16 0 0
13.2 0 0
13.24 0 0
13.28 0 0
13.32 0 0
13.36 0 0
13.4 0 0
13.44 0 0
13.48 0 0
13.52 0 0
13.56 0 0
13.6 0 0
13.64 0 0
13.68 0 0
13.72 0 0
13.76 0 0
13.8 0 0
13.84 0 0
13.88 0 0
13.92 0 0
13.96 0 0
14 0 0
14.04 0 0
14.08 0 0
14.12 0 0
14.16 0 0
14.2 0 0
14.24 0 0
14.28 0 0
14.32 0 0
14.36 0 0
14.4 0 0
14.44 0 0
14.48 0 0
14.52 0 0
14.56 0 0
14.6 0 0
14.64 0 0
14.68 0 0
14.72 0 0
14.76 0 0
14.8 0 0
14.84 0 0
14.88 0 0
14.92 0 0
14.96 0 0
15 0 0
15.04 0 0
15.08 0 0
15.12 0 0
15.16 0 0
15.2 0 0
15.24 0 0
15.28 0 0
15.32 0 0
15.36 0 0
15.4 0 0
15.44 0 0
15.48 0 0
15.52 0 0
15.56 0 0
15.6 0 0
15.64 0 0
15.68 0 0
15.72 0 0
15.76 0 0
15.8 0 0
15.84 0 0
15.88 0 0
15.92 0 0
15.96 0 0
16 0 0
16.04 0 0
16.08 0 0
16.12 0 0
16.16 0 0
16.2 0 0
16.24 0 0
16.28 0 0
16.32 0 0
16.36 0 0
16.4 0 0
16.44 0 0
16.48 0 0
16.52 0 0
16.56 0 0
16.6 0 0
16.64 0 0
16.68 0 0
16.72 0 0
16.76 0 0
16.8 0 0
16.84 0 0
16.88 0 0
16.92 0 0
16.96 0 0
17 0 0
17.04 0 0
17.08 0 0
17.12 0 0
17.16 0 0
17.2 0 0
17.24 0 0
17.28 0 0
17.32 0 0
17.36 0 0
17.4 0 0
17.44 0 0
17.48 0 0
17.52 0 0
17.56 0 0
17.6 0 0
17.64 0 0
17.68 0 0
17.72 0 0
17.76 0 0
17.8 0 0
17.84 0 0
17.88 0 0
17.92 0 0
17.96 0 0
18 0 0
18.04 0 0
18.08 0 0
18.12 0 0
18.16 0 0
18.2 0 0
18.24 0 0
18.28 0 0
18.32 0 0
18.36 0 0
18.4 0 0
18.44 0 0
18.48 0 0
18.52 0 0
18.56 0 0
18.6 0 0
18.64 0 0
18.68 0 0
18.72 0 0
18.76 0 0
18.8 0 0
18.84 0 0
18.88 0 0
18.92 0 0
18.96 0 0
19 0 0
19.04 0 0
19.08 0 0
19.12 0 0
19.16 0 0
19.2 0 0
19.24 0 0
19.28 0 0
19.32 0 0
19.36 0 0
19.4 0 0
19.44 0 0
19.48 0 0
19.52 0 0
19.56 0 0
19.6 0 0
19.64 0 0
19.68 0 0
19.72 0 0
19.76 0 0
19.8 0 0
19.84 0 0
19.88 0 0
19.92 0 0
19.96 0 0
20 0 0
20.04 0 0
20.08 0 0
20.12 0 0
20.16 0 0
20.2 0 0
20.24 0 0
20.28 0 0
20.32 0 0
20.36 0 0
20.4 0 0
20.44 0 0
20.48 0 0
20.52 0 0
20.56 0 0
20.6 0 0
20.64 0 0
20.68 0 0
20.72 0 0
20.76 0 0
20.8 0 0
20.84 0 0
20.88 0 0
20.92 0 0
20.96 0 0
21 0 0
21.04 0 0
21.08 0 0
21.12 0 0
21.16 0 0
21.2 0 0
21.24 0 0
21.28 0 0
21.32 0 0
21.36 0 0
21.4 0 0
21.44 0 0
21.48 0 0
21.52 0 0
21.56 0 0
21.6 0 0
21.64 0 0
21.68 0 0
21.72 0 0
21.76 0 0
21.8 0 0
21.84 0 0
21.88 0 0
21.92 0 0
21.96 0 0
22 0 0
22.04 0 0
22.08 0 0
22.12 0 0
22.16 0 0
22.2 0 0
22.24 0 0
22.28 0 0
22.32 0 0
22.36 0 0
22.4 0 0
22.44 0 0
22.48 0 0
22.52 0 0
22.56 0 0
22.6 0 0
22.64 0 0
22.68 0 0
22.72 0 0
22.76 0 0
22.8 0 0
22.84 0 0
22.88 0 0
22.92 0 0
22.96 0 0
23 0 0
23.04 0 0
23.08 0 0
23.12 0 0
23.16 0 0
23.2 0 0
23.24 0 0
23.28 0 0
23.32 0 0
23.36 0 0
23.4 0 0
23.44 0 0
23.48 0 0
23.52 0 0
23.56 0 0
23.6 0 0
23.64 0 0
23.68 0 0
23.72 0 0
23.76 0 0
23.8 0 0
23.84 0 0
23.88 0 0
23.92 0 0
23.96 0 0
24 0 0
24.04 0 0
24.08 0 0
24.12 0 0
24.16 0 0
24.2 0 0
24.24 0 0
24.28 0 0
24.32 0 0
24.36 0 0
24.4 0 0
24.44 0 0
24.48 0 0
24.52 0 0
24.56 0 0
24.6 0 0
24.64 0 0
24.68 0 0
24.72 0 0
24.76 0 0
24.8 0 0
24.84 0 0
24.88 0 0
24.92 0 0
24.96 0 0
25 0 0
25.04 0 0
25.08 0 0
25.12 0 0
25.16 0 0
25.2 0 0
25.24 0 0
25.28 0 0
25.32 0 0
25.36 0 0
25.4 0 0
25.44 0 0
25.48 0 0
25.52 0 0
25.56 0 0
25.6 0 0
25.64 0 0
25.68 0 0
25.72 0 0
25.76 0 0
25.8 0 0
25.84 0 0
25.88 0 0
25.92 0 0
25.96 0 0
26 0 0
26.04 0 0
26.08 0 0
26.12 0 0
26.16 0 0
26.2 0 0
26.24 0 0
26.28 0 0
26.32 0 0
26.36 0 0
26.4 0 0
26.44 0 0
26.48 0 0
26.52 0 0
26.56 0 0
26.6 0 0
26.64 0 0
26.68 0 0
26.72 0 0
26.76 0 0
26.8 0 0
26.84 0 0
26.88 0 0
26.92 0 0
26.96 0 0
27 0 0
27.04 0 0
27.08 0 0
27.12 0 0
27.16 0 0
27.2 0 0
27.24 0 0
27.28 0 0
27.32 0 0
27.36 0 0
27.4 0 0
27.44 0 0
27.48 0 0
27.52 0 0
27.56 0 0
27.6 0 0
27.64 0 0
27.68 0 0
27.72 0 0
27.76 0 0
27.8 0 0
27.84 0 0
27.88 0 0
27.92 0 0
27.96 0 0
28 0 0
28.04 0 0
28.08 0 0
28.12 0 0
28.16 0 0
28.2 0 0
28.24 0 0
28.28 0 0
28.32 0 0
28.36 0 0
28.4 0 0
28.44 0 0
28.48 0 0
28.52 0 0
28.56 0 0
28.6 0 0
28.64 0 0
28.68 0 0
28.72 0 0
28.76 0 0
28.8 0 0
28.84 0 0
28.88 0 0
28.92 0 0
28.96 0 0
29 0 0
29.04 0 0
29.08 0 0
29.12 0 0
29.16 0 0
29.2 0 0
29.24 0 0
29.28 0 0
29.32 0 0
29.36 0 0
29.4 0 0
29.44 0 0
29.48 0 0
29.52 0 0
29.56 0 0
29.6 0 0
29.64 0 0
29.68 0 0
29.72 0 0
29.76 0 0
29.8 0 0
29.84 0 0
29.88 0 0
29.92 0 0
29.96 0 0
30 0 0
30.04 0 0
30.08 0 0
30.12 0 0
30.16 0 0
30.2 0 0
30.24 0 0
30.28 0 0
30.32 0 0
30.36 0 0
30.4 0 0
30.44 0 0
30.48 0 0
30.52 0 0
30.56 0 0
30.6 0 0
30.64 0 0
30.68 0 0
30.72 0 0
30.76 0 0
30.8 0 0
30.84 0 0
30.88 0 0
30.92 0 0
30.96 0 0
31 0 0
31.04 0 0
31.08 0 0
31.12 0 0
31.16 0 0
31.2 0 0
31.24 0 0
31.28 0 0
31.32 0 0
31.36 0 0
31.4 0 0
31.44 0 0
31.48 0 0
31.52 0 0
31.56 0 0
31.6 0 0
31.64 0 0
31.68 0 0
31.72 0 0
31.76 0 0
31.8 0 0
31.84 0 0
31.88 0 0
31.92 0 0
31.96 0 0
0 0.005 0
0.04 0.005 0
0.08 0.005 0
0.12 0.005 0
0.16 0.005 0
0.2 0.005 0
0.24 0.005 0
0.28 0.005 0
0.32 0.005 0
0.36 0.005 0
0.4 0.005 0
0.44 0.005 0
0.48 0.005 0
0.52 0.005 0
0.56 0.005 0
0.6 0.005 0
0.64 0.005 0
0.68 0.005 0
0.72 0.005 0
0.76 0.005 0
0.8 0.005 0
0.84 0.005 0
0.88 0.005 0
0.92 0.005 0
0.96 0.005 0
1 0.005 0
1.04 0.005 0
1.08 0.005 0
1.12 0.005 0
1.16 0.005 0
1.2 0.005 0
1.24 0.005 0
1.28 0.005 0
1.32 0.005 0
1.36 0.005 0
1.4 0.005 0
1.44 0.005 0
1.48 0.005 0
1.52 0.005 0
1.56 0.005 0
1.6 0.005 0
1.64 0.005 0
1.68 0.005 0
1.72 0.005 0
1.76 0.005 0
1.8 0.005 0
1.84 0.005 0
1.88 0.005 0
1.92 0.005 0
1.96 0.005 0
2 0.005 0
2.04 0.005 0
2.08 0.005 0
2.12 0.005 0
2.16 0.005 0
2.2 0.005 0
2.24 0.005 0
2.28 0.005 0
2.32 0.005 0
2.36 0.005 0
2.4 0.005 0
2.44 0.005 0
2.48 0.005 0
2.52 0.005 0
2.56 0.005 0
2.6 0.005 0
2.64 0.005 0
2.68 0.005 0
2.72 0.005 0
2.76 0.005 0
2.8 0.005 0
2.84 0.005 0
2.88 0.005 0
2.92 0.005 0
2.96 0.005 0
3 0.005 0
3.04 0.005 0
3.08 0.005 0
3.12 0.005 0
3.16 0.005 0
3.2 0.005 0
3.24 0.005 0
3.28 0.005 0
3.32 0.005 0
3.36 0.005 0
3.4 0.005 0
3.44 0.005 0
3.48 0.005 0
3.52 0.005 0
3.56 0.005 0
3.6 0.005 0
3.64 0.005 0
3.68 0.005 0
3.72 0.005 0
3.76 0.005 0
3.8 0.005 0
3.84 0.005 0
3.88 0.005 0
3.92 0.005 0
3.96 0.005 0
4 0.005 0
4.04 0.005 0
4.08 0.005 0
4.12 0.005 0
4.16 0.005 0
4.2 0.005 0
4.24 0.005 0
4.28 0.005 0
4.32 0.005 0
4.36 0.005 0
4.4 0.005 0
4.44 0.005 0
4.48 0.005 0
4.52 0.005 0
4.56 0.005 0
4.6 0.005 0
4.64 0.005 0
4.68 0.005 0
4.72 0.005 0
4.76 0.005 0
4.8 0.005 0
4.84 0.005 0
4.88 0.005 0
4.92 0.005 0
4.96 0.005 0
5 0.005 0
5.04 0.005 0
5.08 0.005 0
5.12 0.005 0
5.16 0.005 0
5.2 0.005 0
5.24 0.005 0
5.28 0.005 0
5.32 0.005 0
5.36 0.005 0
5.4 0.005 0
5.44 0.005 0
5.48 0.005 0
5.52 0.005 0
5.56 0.005 0
5.6 0.005 0
5.64 0.005 0
5.68 0.005 0
5.72 0.005 0
5.76 0.005 0
5.8 0.005 0
5.84 0.005 0
5.88 0.005 0
5.92 0.005 0
5.96 0.005 0
6 0.005 0
6.04 0.005 0
6.08 0.005 0
6.12 0.005 0
6.16 0.005 0
6.2 0.005 0
6.24 0.005 0
6.28 0.005 0
6.32 0.005 0
6.36 0.005 0
6.4 0.005 0
6.44 0.005 0
6.48 0.005 0
6.52 0.005 0
6.56 0.005 0
6.6 0.005 0
6.64 0.005 0
6.68 0.005 0
6.72 0.005 0
6.76 0.005 0
6.8 0.005 0
6.84 0.005 0
6.88 0.005 0
6.92 0.005 0
6.96 0.005 0
7 0.005 0
7.04 0.005 0
7.08 0.005 0
7.12 0.005 0
7.16 0.005 0
7.2 0.005 0
7.24 0.005 0
7.28 0.005 0
7.32 0.005 0
7.36 0.005 0
7.4 0.005 0
[...]
POINT_DATA 160000

SCALARS u float 1
LOOKUP_TABLE default
-1
-0.483357
-0.183962
-0.108845
-0.0810324
-0.066833
-0.0581173
-0.0521518
-0.0477765
-0.0444136
-0.0417402
-0.0395604
-0.0377471
-0.0362141
-0.0349003
-0.0337611
-0.0327634
-0.0318816
-0.031096
-0.0303909
-0.0297538
-0.0291748
-0.0286456
-0.0281595
-0.0277109
-0.0272951
-0.0269082
-0.026547
-0.0262086
-0.0258906
-0.0255911
-0.0253081
-0.0250402
-0.0247861
-0.0245445
-0.0243145
-0.024095
-0.0238854
-0.0236849
-0.0234927
-0.0233085
-0.0231316
-0.0229615
-0.0227979
-0.0226403
-0.0224884
-0.0223418
-0.0222003
-0.0220636
-0.0219314
-0.0218035
-0.0216796
-0.0215596
-0.0214432
-0.0213304
-0.0212208
-0.0211145
-0.0210112
-0.0209107
-0.020813
-0.020718
-0.0206255
-0.0205355
-0.0204477
-0.0203622
-0.0202789
-0.0201976
-0.0201183
-0.0200408
-0.0199653
-0.0198915
-0.0198193
-0.0197489
-0.01968
-0.0196126
-0.0195468
-0.0194823
-0.0194192
-0.0193575
-0.019297
-0.0192378
-0.0191798
-0.019123
-0.0190672
-0.0190126
-0.0189591
-0.0189066
-0.018855
-0.0188045
-0.0187549
-0.0187062
-0.0186584
-0.0186115
-0.0185654
-0.0185201
-0.0184756
-0.0184319
-0.0183889
-0.0183467
-0.0183052
-0.0182644
-0.0182243
-0.0181848
-0.018146
-0.0181078
-0.0180702
-0.0180332
-0.0179968
-0.017961
-0.0179257
-0.0178909
-0.0178567
-0.0178231
-0.0177899
-0.0177572
-0.017725
-0.0176933
-0.017662
-0.0176312
-0.0176009
-0.0175709
-0.0175414
-0.0175123
-0.0174837
-0.0174554
-0.0174275
-0.0174
-0.0173729
-0.0173461
-0.0173197
-0.0172936
-0.0172679
-0.0172426
-0.0172176
-0.0171929
-0.0171685
-0.0171444
-0.0171207
-0.0170972
-0.0170741
-0.0170512
-0.0170287
-0.0170064
-0.0169844
-0.0169627
-0.0169412
-0.01692
-0.0168991
-0.0168784
-0.0168579
-0.0168378
-0.0168178
-0.0167981
-0.0167787
-0.0167594
-0.0167404
-0.0167216
-0.0167031
-0.0166847
-0.0166666
-0.0166487
-0.0166309
-0.0166134
-0.0165961
-0.016579
-0.0165621
-0.0165454
-0.0165288
-0.0165125
-0.0164963
-0.0164804
-0.0164646
-0.0164489
-0.0164335
-0.0164182
-0.0164031
-0.0163882
-0.0163734
-0.0163589
-0.0163444
-0.0163302
-0.016316
-0.0163021
-0.0162883
-0.0162747
-0.0162612
-0.0162479
-0.0162347
-0.0162217
-0.0162089
-0.0161962
-0.0161837
-0.0161713
-0.0161591
-0.016147
-0.0161351
-0.0161233
-0.0161117
-0.0161003
-0.016089
-0.0160779
-0.0160669
-0.0160561
-0.0160455
-0.016035
-0.0160247
-0.0160145
-0.0160045
-0.0159946
-0.015985
-0.0159754
-0.0159661
-0.0159569
-0.0159478
-0.015939
-0.0159303
-0.0159217
-0.0159133
-0.0159051
-0.015897
-0.015889
-0.0158813
-0.0158736
-0.0158662
-0.0158589
-0.0158517
-0.0158447
-0.0158378
-0.0158311
-0.0158245
-0.0158181
-0.0158118
-0.0158057
-0.0157997
-0.0157938
-0.015788
-0.0157825
-0.015777
-0.0157716
-0.0157664
-0.0157614
-0.0157564
-0.0157516
-0.0157469
-0.0157423
-0.0157378
-0.0157335
-0.0157293
-0.0157251
-0.0157211
-0.0157172
-0.0157135
-0.0157098
-0.0157062
-0.0157027
-0.0156994
-0.0156961
-0.0156929
-0.0156898
-0.0156868
-0.015684
-0.0156812
-0.0156784
-0.0156758
-0.0156733
-0.0156708
-0.0156684
-0.0156661
-0.0156639
-0.0156617
-0.0156597
-0.0156577
-0.0156557
-0.0156538
-0.015652
-0.0156503
-0.0156486
-0.015647
-0.0156455
-0.015644
-0.0156425
-0.0156412
-0.0156398
-0.0156386
-0.0156373
-0.0156361
-0.015635
-0.0156339
-0.0156329
-0.0156319
-0.0156309
-0.01563
-0.0156291
-0.0156283
-0.0156275
-0.0156267
-0.0156259
-0.0156252
-0.0156245
-0.0156239
-0.0156233
-0.0156227
-0.0156221
-0.0156215
-0.015621
-0.0156205
-0.01562
-0.0156196
-0.0156191
-0.0156187
-0.0156183
-0.0156179
-0.0156175
-0.0156171
-0.0156168
-0.0156164
-0.0156161
-0.0156157
-0.0156154
-0.0156151
-0.0156148
-0.0156145
-0.0156142
-0.0156138
-0.0156135
-0.0156132
-0.0156129
-0.0156126
-0.0156123
-0.015612
-0.0156117
-0.0156114
-0.0156111
-0.0156108
-0.0156105
-0.0156102
-0.0156099
-0.0156096
-0.0156093
-0.015609
-0.0156087
-0.0156084
-0.0156081
-0.0156078
-0.0156075
-0.0156072
-0.0156069
-0.0156066
-0.0156063
-0.015606
-0.0156057
-0.0156054
-0.0156051
-0.0156048
-0.0156045
-0.0156042
-0.0156039
-0.0156036
-0.0156033
-0.015603
-0.0156027
-0.0156024
-0.0156021
-0.0156018
-0.0156015
-0.0156012
-0.0156009
-0.0156006
-0.0156003
-0.0156
-0.0155997
-0.0155994
-0.0155991
-0.0155988
-0.0155985
-0.0155982
-0.0155979
-0.0155975
-0.0155972
-0.0155969
-0.0155966
-0.0155963
-0.015596
-0.0155957
-0.0155954
-0.0155951
-0.0155948
-0.0155945
-0.0155942
-0.0155939
-0.0155936
-0.0155933
-0.015593
-0.0155927
-0.0155924
-0.0155921
-0.0155918
-0.0155915
-0.0155912
-0.0155909
-0.0155906
-0.0155903
-0.01559
-0.0155897
-0.0155894
-0.0155891
-0.0155888
-0.0155885
-0.0155882
-0.0155879
-0.0155876
-0.0155873
-0.015587
-0.0155867
-0.0155864
-0.0155861
-0.0155858
-0.0155855
-0.0155852
-0.0155849
-0.0155846
-0.0155843
-0.015584
-0.0155837
-0.0155834
-0.0155831
-0.0155828
-0.0155825
-0.0155822
-0.0155819
-0.0155816
-0.0155813
-0.015581
-0.0155807
-0.0155804
-0.0155801
-0.0155798
-0.0155795
-0.0155792
-0.0155789
-0.0155786
-0.0155782
-0.0155779
-0.0155776
-0.0155773
-0.015577
-0.0155767
-0.0155764
-0.0155761
-0.0155758
-0.0155755
-0.0155752
-0.0155749
-0.0155746
-0.0155743
-0.015574
-0.0155737
-0.0155734
-0.0155731
-0.0155728
-0.0155725
-0.0155722
-0.0155719
-0.0155716
-0.0155713
-0.015571
-0.0155707
-0.0155704
-0.0155701
-0.0155698
-0.0155695
-0.0155692
-0.0155689
-0.0155686
-0.0155683
-0.015568
-0.0155677
-0.0155674
-0.0155671
-0.0155668
-0.0155665
-0.0155662
-0.0155659
-0.0155656
-0.0155653
-0.015565
-0.0155647
-0.0155644
-0.0155641
-0.0155638
-0.0155635
-0.0155632
-0.0155629
-0.0155626
-0.0155623
-0.015562
-0.0155617
-0.0155614
-0.0155611
-0.0155608
-0.0155605
-0.0155602
-0.0155599
-0.0155596
-0.0155593
-0.015559
-0.0155586
-0.0155583
-0.015558
-0.0155577
-0.0155574
-0.0155571
-0.0155568
-0.0155565
-0.0155562
-0.0155559
-0.0155556
-0.0155553
-0.015555
-0.0155547
-0.0155544
-0.0155541
-0.0155538
-0.0155535
-0.0155532
-0.0155529
-0.0155526
-0.0155523
-0.015552
-0.0155517
-0.0155514
-0.0155511
-0.0155508
-0.0155505
-0.0155502
-0.0155499
-0.0155496
-0.0155493
-0.015549
-0.0155487
-0.0155484
-0.0155481
-0.0155478
-0.0155475
-0.0155472
-0.0155469
-0.0155466
-0.0155463
-0.015546
-0.0155457
-0.0155454
-0.0155451
-0.0155448
-0.0155445
-0.0155442
-0.0155439
-0.0155436
-0.0155433
-0.015543
-0.0155427
-0.0155424
-0.0155421
-0.0155418
-0.0155415
-0.0155412
-0.0155409
-0.0155406
-0.0155403
-0.01554
-0.0155397
-0.0155394
-0.0155391
-0.0155388
-0.0155384
-0.0155381
-0.0155378
-0.0155375
-0.0155372
-0.0155369
-0.0155366
-0.0155363
-0.015536
-0.0155357
-0.0155354
-0.0155351
-0.0155348
-0.0155345
-0.0155342
-0.0155339
-0.0155336
-0.0155333
-0.015533
-0.0155327
-0.0155324
-0.0155321
-0.0155318
-0.0155315
-0.0155312
-0.0155309
-0.0155306
-0.0155303
-0.01553
-0.0155297
-0.0155294
-0.0155291
-0.0155288
-0.0155285
-0.0155282
-0.0155279
-0.0155276
-0.0155273
-0.015527
-0.0155267
-0.0155264
-0.0155261
-0.0155258
-0.0155255
-0.0155252
-0.0155249
-0.0155246
-0.0155243
-0.015524
-0.0155237
-0.0155234
-0.0155231
-0.0155228
-0.0155225
-0.0155222
-0.0155219
-0.0155216
-0.0155213
-0.015521
-0.0155207
-0.0155204
-0.0155201
-0.0155198
-0.0155195
-0.0155192
-0.0155189
-0.0155186
-0.0155183
-0.0155179
-0.0155176
-0.0155173
-0.015517
-0.0155167
-0.0155164
-0.0155161
-0.0155158
-0.0155155
-0.0155152
-0.0155149
-0.0155146
-0.0155143
-0.015514
-0.0155137
-0.0155134
-0.0155131
-0.0155128
-0.0155125
-0.0155122
-0.0155119
-0.0155116
-0.0155113
-0.015511
-0.0155107
-0.0155104
-0.0155101
-0.0155098
-0.0155095
-0.0155092
-0.0155089
-0.0155086
-0.0155083
-0.015508
-0.0155077
-0.0155074
-0.0155071
-0.0155068
-0.0155065
-0.0155062
-0.0155059
-0.0155056
-0.0155053
-0.015505
-0.0155047
-0.0155044
-0.0155041
-0.0155038
-0.0155035
-0.0155032
-0.0155029
-0.0155026
-0.0155023
-0.015502
-0.0155017
-0.0155014
-0.0155011
-0.0155008
-0.0155005
-0.0155002
-0.0154999
-0.0154996
-0.0154993
-0.015499
-0.0154987
-0.0154984
-0.0154981
-0.0154978
-0.0154975
-0.0154972
-0.0154968
-0.0154965
-0.0154962
-0.0154959
-0.0154956
-0.0154953
-0.015495
-0.0154947
-0.0154944
-0.0154941
-0.0154938
-0.0154935
-0.0154932
-0.0154929
-0.0154926
-0.0154923
-0.015492
-0.0154917
-0.0154914
-0.0154911
-0.0154908
-0.0154905
-0.0154902
-0.0154899
-0.0154896
-0.0154893
-0.015489
-0.0154887
-0.0154884
-0.0154881
-0.0154878
-0.0154875
-0.0154872
-0.0154869
-0.0154866
-0.0154863
-0.015486
-0.0154857
-0.0154854
-0.0154851
-0.0154848
-0.0154845
-0.0154842
-0.0154839
-0.0154836
-0.0154833
-0.015483
-0.0154827
-0.0154824
-0.0154821
-0.0154818
-0.0154815
-0.0154812
-0.0154809
-0.0154806
-0.0154803
-0.01548
-0.0154797
-0.0154794
-0.0154791
-0.0154788
-0.0154785
-0.0154782
-0.0154778
-0.0154775
-0.0154772
-0.0154769
-0.0154766
-0.0154763
-0.015476
-0.0154757
-0.0154754
-0.015475
-0.0154747
-0.0154744
-0.015474
-0.0154736
-0.0154733
-0.0154729
-0.0154724
-0.015472
-0.0154715
-0.0154709
-0.0154702
-0.0154695
-0.0154685
-0.0154681
-0.0154681
-0.0154681
1
0.483357
0.183962
0.108845
0.0810324
0.066833
0.0581173
0.0521518
0.0477765
0.0444136
0.0417402
0.0395604
0.0377471
0.0362141
0.0349003
0.0337611
0.0327634
0.0318816
0.031096
0.0303909
0.0297538
0.0291748
0.0286456
0.0281595
0.0277109
0.0272951
0.0269082
0.026547
0.0262086
0.0258906
0.0255911
0.0253081
0.0250402
0.0247861
0.0245445
0.0243145
0.024095
0.0238854
0.0236849
0.0234927
0.0233085
0.0231316
0.0229615
0.0227979
0.0226403
0.0224884
0.0223418
0.0222003
0.0220636
0.0219314
0.0218035
0.0216796
0.0215596
0.0214432
0.0213304
0.0212208
0.0211145
0.0210112
0.0209107
0.020813
0.020718
0.0206255
0.0205355
0.0204477
0.0203622
0.0202789
0.0201976
0.0201183
0.0200408
0.0199653
0.0198915
0.0198193
0.0197489
0.01968
0.0196126
0.0195468
0.0194823
0.0194192
0.0193575
0.019297
0.0192378
0.0191798
0.019123
0.0190672
0.0190126
0.0189591
0.0189066
0.018855
0.0188045
0.0187549
0.0187062
0.0186584
0.0186115
0.0185654
0.0185201
0.0184756
0.0184319
0.0183889
0.0183467
0.0183052
0.0182644
0.0182243
0.0181848
0.018146
0.0181078
0.0180702
0.0180332
0.0179968
0.017961
0.0179257
0.0178909
0.0178567
0.0178231
0.0177899
0.0177572
0.017725
0.0176933
0.017662
0.0176312
0.0176009
0.0175709
0.0175414
0.0175123
0.0174837
0.0174554
0.0174275
0.0174
0.0173729
0.0173461
0.0173197
0.0172936
0.0172679
0.0172426
0.0172176
0.0171929
0.0171685
0.0171444
0.0171207
0.0170972
0.0170741
0.0170512
0.0170287
0.0170064
0.0169844
0.0169627
0.0169412
0.01692
0.0168991
0.0168784
0.0168579
0.0168378
0.0168178
0.0167981
0.0167787
0.0167594
0.0167404
0.0167216
0.0167031
0.0166847
0.0166666
0.0166487
0.0166309
0.0166134
0.0165961
0.016579
0.0165621
0.0165454
0.0165288
0.0165125
0.0164963
0.0164804
0.0164646
0.0164489
0.0164335
0.0164182
0.0164031
0.0163882
0.0163734
0.0163589
0.0163444
0.0163302
0.016316
0.0163021
0.0162883
0.0162747
0.0162612
0.0162479
0.0162347
0.0162217
0.0162089
0.0161962
0.0161837
0.0161713
0.0161591
0.016147
0.0161351
0.0161233
0.0161117
0.0161003
0.016089
0.0160779
0.0160669
0.0160561
0.0160455
0.016035
0.0160247
0.0160145
0.0160045
0.0159946
0.015985
0.0159754
0.0159661
0.0159569
0.0159478
0.015939
0.0159303
0.0159217
0.0159133
0.0159051
0.015897
0.015889
0.0158813
0.0158736
0.0158662
0.0158589
0.0158517
0.0158447
0.0158378
0.0158311
0.0158245
0.0158181
0.0158118
0.0158057
0.0157997
0.0157938
0.015788
0.0157825
0.015777
0.0157716
0.0157664
0.0157614
0.0157564
0.0157516
0.0157469
0.0157423
0.0157378
0.0157335
0.0157293
0.0157251
0.0157211
0.0157172
0.0157135
0.0157098
0.0157062
0.0157027
0.0156994
0.0156961
0.0156929
0.0156898
0.0156868
0.015684
0.0156812
0.0156784
0.0156758
0.0156733
0.0156708
0.0156684
0.0156661
0.0156639
0.0156617
0.0156597
0.0156577
0.0156557
0.0156538
0.015652
0.0156503
0.0156486
0.015647
0.0156455
0.015644
0.0156425
0.0156412
0.0156398
0.0156386
0.0156373
0.0156361
0.015635
0.0156339
0.0156329
0.0156319
0.0156309
0.01563
0.0156291
0.0156283
0.0156275
0.0156267
0.0156259
0.0156252
0.0156245
0.0156239
0.0156233
0.0156227
0.0156221
0.0156215
0.015621
0.0156205
0.01562
0.0156196
0.0156191
0.0156187
0.0156183
0.0156179
0.0156175
0.0156171
0.0156168
0.0156164
0.0156161
0.0156157
0.0156154
0.0156151
0.0156148
0.0156145
0.0156142
0.0156138
0.0156135
0.0156132
0.0156129
0.0156126
0.0156123
0.015612
0.0156117
0.0156114
0.0156111
0.0156108
0.0156105
0.0156102
0.0156099
0.0156096
0.0156093
0.015609
0.0156087
0.0156084
0.0156081
0.0156078
0.0156075
0.0156072
0.0156069
0.0156066
0.0156063
0.015606
0.0156057
0.0156054
0.0156051
0.0156048
0.0156045
0.0156042
0.0156039
0.0156036
0.0156033
0.015603
0.0156027
0.0156024
0.0156021
0.0156018
0.0156015
0.0156012
0.0156009
0.0156006
0.0156003
0.0156
0.0155997
0.0155994
0.0155991
0.0155988
0.0155985
0.0155982
0.0155979
0.0155975
0.0155972
0.0155969
0.0155966
0.0155963
0.015596
0.0155957
0.0155954
0.0155951
0.0155948
0.0155945
0.0155942
0.0155939
0.0155936
0.0155933
0.015593
0.0155927
0.0155924
0.0155921
0.0155918
0.0155915
0.0155912
0.0155909
0.0155906
0.0155903
0.01559
0.0155897
0.0155894
0.0155891
0.0155888
0.0155885
0.0155882
0.0155879
0.0155876
0.0155873
0.015587
0.0155867
0.0155864
0.0155861
0.0155858
0.0155855
0.0155852
0.0155849
0.0155846
0.0155843
0.015584
0.0155837
0.0155834
0.0155831
0.0155828
0.0155825
0.0155822
0.0155819
0.0155816
0.0155813
0.015581
0.0155807
0.0155804
0.0155801
0.0155798
0.0155795
0.0155792
0.0155789
0.0155786
0.0155782
0.0155779
0.0155776
0.0155773
0.015577
0.0155767
0.0155764
0.0155761
0.0155758
0.0155755
0.0155752
0.0155749
0.0155746
0.0155743
0.015574
0.0155737
0.0155734
0.0155731
0.0155728
0.0155725
0.0155722
0.0155719
0.0155716
0.0155713
0.015571
0.0155707
0.0155704
0.0155701
0.0155698
0.0155695
0.0155692
0.0155689
0.0155686
0.0155683
0.015568
0.0155677
0.0155674
0.0155671
0.0155668
0.0155665
0.0155662
0.0155659
0.0155656
0.0155653
0.015565
0.0155647
0.0155644
0.0155641
0.0155638
0.0155635
0.0155632
0.0155629
0.0155626
0.0155623
0.015562
0.0155617
0.0155614
0.0155611
0.0155608
0.0155605
0.0155602
0.0155599
0.0155596
0.0155593
0.015559
0.0155586
0.0155583
0.015558
0.0155577
0.0155574
0.0155571
0.0155568
0.0155565
0.0155562
0.0155559
0.0155556
0.0155553
0.015555
0.0155547
0.0155544
0.0155541
0.0155538
0.0155535
0.0155532
0.0155529
0.0155526
0.0155523
0.015552
0.0155517
0.0155514
0.0155511
0.0155508
0.0155505
0.0155502
0.0155499
0.0155496
0.0155493
0.015549
0.0155487
0.0155484
0.0155481
0.0155478
0.0155475
0.0155472
0.0155469
0.0155466
0.0155463
0.015546
0.0155457
0.0155454
0.0155451
0.0155448
0.0155445
0.0155442
0.0155439
0.0155436
0.0155433
0.015543
0.0155427
0.0155424
0.0155421
0.0155418
0.0155415
0.0155412
0.0155409
0.0155406
0.0155403
0.01554
0.0155397
0.0155394
0.0155391
0.0155388
0.0155384
0.0155381
0.0155378
0.0155375
0.0155372
0.0155369
0.0155366
0.0155363
0.015536
0.0155357
0.0155354
0.0155351
0.0155348
0.0155345
0.0155342
0.0155339
0.0155336
0.0155333
0.015533
0.0155327
0.0155324
0.0155321
0.0155318
0.0155315
0.0155312
0.0155309
0.0155306
0.0155303
0.01553
0.0155297
0.0155294
0.0155291
0.0155288
0.0155285
0.0155282
0.0155279
0.0155276
0.0155273
0.015527
0.0155267
0.0155264
0.0155261
0.0155258
0.0155255
0.0155252
0.0155249
0.0155246
0.0155243
0.015524
0.0155237
0.0155234
0.0155231
0.0155228
0.0155225
0.0155222
0.0155219
0.0155216
0.0155213
0.015521
0.0155207
0.0155204
0.0155201
0.0155198
0.0155195
0.0155192
0.0155189
0.0155186
0.0155183
0.0155179
0.0155176
0.0155173
0.015517
0.0155167
0.0155164
0.0155161
0.0155158
0.0155155
0.0155152
0.0155149
0.0155146
0.0155143
0.015514
0.0155137
0.0155134
0.0155131
0.0155128
0.0155125
0.0155122
0.0155119
0.0155116
0.0155113
0.015511
0.0155107
0.0155104
0.0155101
0.0155098
0.0155095
0.0155092
0.0155089
0.0155086
0.0155083
0.015508
0.0155077
0.0155074
0.0155071
0.0155068
0.0155065
0.0155062
0.0155059
0.0155056
0.0155053
0.015505
0.0155047
0.0155044
0.0155041
0.0155038
0.0155035
0.0155032
0.0155029
0.0155026
0.0155023
0.015502
0.0155017
0.0155014
0.0155011
0.0155008
0.0155005
0.0155002
0.0154999
0.0154996
0.0154993
0.015499
0.0154987
0.0154984
0.0154981
0.0154978
0.0154975
0.0154972
0.0154968
0.0154965
0.0154962
0.0154959
0.0154956
0.0154953
0.015495
0.0154947
0.0154944
0.0154941
0.0154938
0.0154935
0.0154932
0.0154929
0.0154926
0.0154923
0.015492
0.0154917
0.0154914
0.0154911
0.0154908
0.0154905
0.0154902
0.0154899
0.0154896
0.0154893
0.015489
0.0154887
0.0154884
0.0154881
0.0154878
0.0154875
0.0154872
0.0154869
0.0154866
0.0154863
0.015486
0.0154857
0.0154854
0.0154851
0.0154848
0.0154845
0.0154842
0.0154839
0.0154836
0.0154833
0.015483
0.0154827
0.0154824
0.0154821
0.0154818
0.0154815
0.0154812
0.0154809
0.0154806
0.0154803
0.01548
0.0154797
0.0154794
0.0154791
0.0154788
0.0154785
0.0154782
0.0154778
0.0154775
0.0154772
0.0154769
0.0154766
0.0154763
0.015476
0.0154757
0.0154754
0.015475
0.0154747
0.0154744
0.015474
0.0154736
0.0154733
0.0154729
0.0154724
0.015472
0.0154715
0.0154709
0.0154702
0.0154695
0.0154685
0.0154681
0.0154681
0.0154681
1
0.96919
0.495615
0.314222
0.237895
0.197394
0.172131
0.154694
0.14184
0.131926
0.124025
0.11757
0.112193
0.107642
0.103738
0.100351
0.0973828
0.0947583
0.0924193
0.0903199
0.088423
0.086699
0.0851235
0.0836764
0.0823412
0.081104
0.0799532
0.0788789
0.0778729
0.0769278
0.0760377
0.0751971
0.0744016
0.073647
0.0729299
0.0722472
0.0715962
0.0709744
0.0703797
0.0698101
0.0692638
0.0687395
0.0682355
0.0677506
0.0672838
0.0668338
0.0663997
0.0659806
0.0655757
0.0651842
0.0648054
0.0644387
0.0640834
0.063739
0.063405
0.0630808
0.062766
0.0624603
0.0621631
0.0618741
0.0615929
0.0613192
0.0610528
0.0607932
0.0605403
0.0602937
0.0600533
0.0598187
0.0595897
0.0593662
0.0591479
0.0589347
0.0587263
0.0585226
0.0583234
0.0581286
0.0579381
0.0577516
0.057569
0.0573902
0.0572152
0.0570437
0.0568756
0.0567109
0.0565495
0.0563912
0.056236
0.0560837
0.0559343
0.0557877
0.0556437
0.0555025
0.0553638
0.0552275
0.0550937
0.0549623
0.0548331
0.0547062
0.0545814
0.0544588
0.0543382
0.0542196
0.0541029
0.0539882
0.0538754
0.0537643
0.053655
0.0535475
0.0534416
0.0533374
0.0532348
0.0531337
0.0530342
0.0529362
0.0528397
0.0527446
0.0526509
0.0525585
0.0524675
0.0523779
0.0522895
0.0522023
0.0521164
0.0520317
0.0519482
0.0518658
0.0517846
0.0517045
0.0516255
0.0515475
0.0514706
0.0513947
0.0513198
0.0512459
0.051173
0.051101
0.05103
0.0509599
0.0508906
0.0508223
0.0507548
0.0506882
0.0506224
0.0505574
0.0504933
0.0504299
0.0503673
0.0503055
0.0502445
0.0501842
0.0501246
0.0500657
0.0500076
0.0499501
0.0498933
0.0498372
0.0497818
0.049727
0.0496728
0.0496193
0.0495664
0.0495141
0.0494625
0.0494114
0.0493609
0.049311
0.0492617
0.0492129
0.0491647
0.049117
0.0490699
0.0490233
0.0489772
0.0489316
0.0488866
0.0488421
0.048798
0.0487545
0.0487115
0.0486689
0.0486269
0.0485853
0.0485442
0.0485036
0.0484634
0.0484238
0.0483845
0.0483458
0.0483075
0.0482697
0.0482324
0.0481955
0.0481591
0.0481231
0.0480876
0.0480526
0.048018
0.047984
0.0479504
0.0479172
0.0478846
0.0478524
0.0478207
0.0477894
0.0477587
0.0477284
0.0476986
0.0476693
0.0476404
0.0476121
0.0475842
0.0475568
0.0475299
0.0475035
0.0474775
0.047452
0.047427
0.0474025
0.0473784
0.0473548
0.0473316
0.0473089
0.0472867
0.0472649
0.0472436
0.0472227
0.0472022
0.0471822
0.0471626
0.0471435
0.0471248
0.0471064
0.0470886
0.0470711
0.047054
0.0470373
0.047021
0.0470051
0.0469896
0.0469745
0.0469598
0.0469454
0.0469314
0.0469177
0.0469044
0.0468915
0.0468789
0.0468666
0.0468547
0.0468431
0.0468318
0.0468208
0.0468102
0.0467998
0.0467898
0.0467801
0.0467706
0.0467614
0.0467525
0.0467439
0.0467355
0.0467274
0.0467196
0.046712
0.0467047
0.0466976
0.0466907
0.0466841
0.0466776
0.0466714
0.0466655
0.0466597
0.0466541
0.0466487
0.0466436
0.0466386
0.0466337
0.0466291
0.0466247
0.0466204
0.0466162
0.0466123
0.0466084
0.0466048
0.0466012
0.0465979
0.0465946
0.0465915
0.0465885
0.0465856
0.0465829
0.0465802
0.0465777
0.0465753
0.046573
0.0465707
0.0465686
0.0465665
0.0465646
0.0465627
0.0465609
0.0465592
0.0465575
0.046556
0.0465544
0.046553
0.0465516
0.0465503
0.046549
0.0465477
0.0465465
0.0465454
0.0465443
0.0465432
0.0465421
0.0465411
0.0465401
0.0465391
0.0465382
0.0465372
0.0465363
0.0465353
0.0465344
0.0465335
0.0465326
0.0465317
0.0465308
0.0465299
0.046529
0.0465281
0.0465272
0.0465263
0.0465254
0.0465245
0.0465236
0.0465227
0.0465218
0.0465209
0.04652
0.0465191
0.0465182