# vtk DataFile Version 2.0
FlowField
ASCII
DATASET STRUCTURED_GRID
DIMENSIONS 800 1 200
POINTS 160000 float
0 0 0
0.04 0 0
0.08 0 0
0.12 0 0
0.16 0 0
0.2 0 0
0.24 0 0
0.28 0 0
0.32 0 0
0.36 0 0
0.4 0 0
0.44 0 0
0.48 0 0
0.52 0 0
0.56 0 0
0.6 0 0
0.64 0 0
0.68 0 0
0.72 0 0
0.76 0 0
0.8 0 0
0.84 0 0
0.88 0 0
0.92 0 0
0.96 0 0
1 0 0
1.04 0 0
1.08 0 0
1.12 0 0
1.16 0 0
1.2 0 0
1.24 0 0
1.28 0 0
1.32 0 0
1.36 0 0
1.4 0 0
1.44 0 0
1.48 0 0
1.52 0 0
1.56 0 0
1.6 0 0
1.64 0 0
1.68 0 0
1.72 0 0
1.76 0 0
1.8 0 0
1.84 0 0
1.88 0 0
1.92 0 0
1.96 0 0
2 0 0
2.04 0 0
2.08 0 0
2.12 0 0
2.16 0 0
2.2 0 0
2.24 0 0
2.28 0 0
2.32 0 0
2.36 0 0
2.4 0 0
2.44 0 0
2.48 0 0
2.52 0 0
2.56 0 0
2.6 0 0
2.64 0 0
2.68 0 0
2.72 0 0
2.76 0 0
2.8 0 0
2.84 0 0
2.88 0 0
2.92 0 0
2.96 0 0
3 0 0
3.04 0 0
3.08 0 0
3.12 0 0
3.16 0 0
3.2 0 0
3.24 0 0
3.28 0 0
3.32 0 0
3.36 0 0
3.4 0 0
3.44 0 0
3.48 0 0
3.52 0 0
3.56 0 0
3.6 0 0
3.64 0 0
3.68 0 0
3.72 0 0
3.76 0 0
3.8 0 0
3.84 0 0
3.88 0 0
3.92 0 0
3.96 0 0
4 0 0
4.04 0 0
4.08 0 0
4.12 0 0
4.16 0 0
4.2 0 0
4.24 0 0
4.28 0 0
4.32 0 0
4.36 0 0
4.4 0 0
4.44 0 0
4.48 0 0
4.52 0 0
4.56 0 0
4.6 0 0
4.64 0 0
4.68 0 0
4.72 0 0
4.76 0 0
4.8 0 0
4.84 0 0
4.88 0 0
4.92 0 0
4.96 0 0
5 0 0
5.04 0 0
5.08 0 0
5.12 0 0
5.16 0 0
5.2 0 0
5.24 0 0
5.28 0 0
5.32 0 0
5.36 0 0
5.4 0 0
5.44 0 0
5.48 0 0
5.52 0 0
5.56 0 0
5.6 0 0
5.64 0 0
5.68 0 0
5.72 0 0
5.76 0 0
5.8 0 0
5.84 0 0
5.88 0 0
5.92 0 0
5.96 0 0
6 0 0
6.04 0 0
6.08 0 0
6.12 0 0
6.16 0 0
6.2 0 0
6.24 0 0
6.28 0 0
6.32 0 0
6.36 0 0
6.4 0 0
6.44 0 0
6.48 0 0
6.52 0 0
6.56 0 0
6.6 0 0
6.64 0 0
6.68 0 0
6.72 0 0
6.76 0 0
6.8 0 0
6.84 0 0
6.88 0 0
6.92 0 0
6.96 0 0
7 0 0
7.04 0 0
7.08 0 0
7.12 0 0
7.16 0 0
7.2 0 0
7.24 0 0
7.28 0 0
7.32 0 0
7.36 0 0
7.4 0 0
7.44 0 0
7.48 0 0
7.52 0 0
7.56 0 0
7.6 0 0
7.64 0 0
7.68 0 0
7.72 0 0
7.76 0 0
7.8 0 0
7.84 0 0
7.88 0 0
7.92 0 0
7.96 0 0
8 0 0
8.04 0 0
8.08 0 0
8.12 0 0
8.16 0 0
8.2 0 0
8.24 0 0
8.28 0 0
8.32 0 0
8.36 0 0
8.4 0 0
8.44 0 0
8.48 0 0
8.52 0 0
8.56 0 0
8.6 0 0
8.64 0 0
8.68 0 0
8.72 0 0
8.76 0 0
8.8 0 0
8.84 0 0
8.88 0 0
8.92 0 0
8.96 0 0
9 0 0
9.04 0 0
9.08 0 0
9.12 0 0
9.16 0 0
9.2 0 0
9.24 0 0
9.28 0 0
9.32 0 0
9.36 0 0
9.4 0 0
9.44 0 0
9.48 0 0
9.52 0 0
9.56 0 0
9.6 0 0
9.64 0 0
9.68 0 0
9.72 0 0
9.76 0 0
9.8 0 0
9.84 0 0
9.88 0 0
9.92 0 0
9.96 0 0
10 0 0
10.04 0 0
10.08 0 0
10.12 0 0
10.16 0 0
10.2 0 0
10.24 0 0
10.28 0 0
10.32 0 0
10.36 0 0
10.4 0 0
10.44 0 0
10.48 0 0
10.52 0 0
10.56 0 0
10.6 0 0
10.64 0 0
10.68 0 0
10.72 0 0
10.76 0 0
10.8 0 0
10.84 0 0
10.88 0 0
10.92 0 0
10.96 0 0
11 0 0
11.04 0 0
11.08 0 0
11.12 0 0
11.16 0 0
11.2 0 0
11.24 0 0
11.28 0 0
11.32 0 0
11.36 0 0
11.4 0 0
11.44 0 0
11.48 0 0
11.52 0 0
11.56 0 0
11.6 0 0
11.64 0 0
11.68 0 0
11.72 0 0
11.76 0 0
11.8 0 0
11.84 0 0
11.88 0 0
11.92 0 0
11.96 0 0
12 0 0
12.04 0 0
12.08 0 0
12.12 0 0
12.16 0 0
12.2 0 0
12.24 0 0
12.28 0 0
12.32 0 0
12.36 0 0
12.4 0 0
12.44 0 0
12.48 0 0
12.52 0 0
12.56 0 0
12.6 0 0
12.64 0 0
12.68 0 0
12.72 0 0
12.76 0 0
12.8 0 0
12.84 0 0
12.88 0 0
12.92 0 0
12.96 0 0
13 0 0
13.04 0 0
13.08 0 0
13.12 0 0
13.16 0 0
13.2 0 0
13.24 0 0
13.28 0 0
13.32 0 0
13.36 0 0
13.4 0 0
13.44 0 0
13.48 0 0
13.52 0 0
13.56 0 0
13.6 0 0
13.64 0 0
13.68 0 0
13.72 0 0
13.76 0 0
13.8 0 0
13.84 0 0
13.88 0 0
13.92 0 0
13.96 0 0
14 0 0
14.04 0 0
14.08 0 0
14.12 0 0
14.16 0 0
14.2 0 0
14.24 0 0
14.28 0 0
14.32 0 0
14.36 0 0
14.4 0 0
14.44 0 0
14.48 0 0
14.52 0 0
14.56 0 0
14.6 0 0
14.64 0 0
14.68 0 0
14.72 0 0
14.76 0 0
14.8 0 0
14.84 0 0
14.88 0 0
14.92 0 0
14.96 0 0
15 0 0
15.04 0 0
15.08 0 0
15.12 0 0
15.16 0 0
15.2 0 0
15.24 0 0
15.28 0 0
15.32 0 0
15.36 0 0
15.4 0 0
15.44 0 0
15.48 0 0
15.52 0 0
15.56 0 0
15.6 0 0
15.64 0 0
15.68 0 0
15.72 0 0
15.76 0 0
15.8 0 0
15.84 0 0
15.88 0 0
15.92 0 0
15.96 0 0
16 0 0
16.04 0 0
16.08 0 0
16.12 0 0
16.16 0 0
16.2 0 0
16.24 0 0
16.28 0 0
16.32 0 0
16.36 0 0
16.4 0 0
16.44 0 0
16.48 0 0
16.52 0 0
16.56 0 0
16.6 0 0
16.64 0 0
16.68 0 0
16.72 0 0
16.76 0 0
16.8 0 0
16.84 0 0
16.88 0 0
16.92 0 0
16.96 0 0
17 0 0
17.04 0 0
17.08 0 0
17.12 0 0
17.16 0 0
17.2 0 0
17.24 0 0
17.28 0 0
17.32 0 0
17.36 0 0
17.4 0 0
17.44 0 0
17.48 0 0
17.52 0 0
17.56 0 0
17.6 0 0
17.64 0 0
17.68 0 0
17.72 0 0
17.76 0 0
17.8 0 0
17.84 0 0
17.88 0 0
17.92 0 0
17.96 0 0
18 0 0
18.04 0 0
18.08 0 0
18.12 0 0
18.16 0 0
18.2 0 0
18.24 0 0
18.28 0 0
18.32 0 0
18.36 0 0
18.4 0 0
18.44 0 0
18.48 0 0
18.52 0 0
18.56 0 0
18.6 0 0
18.64 0 0
18.68 0 0
18.72 0 0
18.76 0 0
18.8 0 0
18.84 0 0
18.88 0 0
18.92 0 0
18.96 0 0
19 0 0
19.04 0 0
19.08 0 0
19.12 0 0
19.16 0 0
19.2 0 0
19.24 0 0
19.28 0 0
19.32 0 0
19.36 0 0
19.4 0 0
19.44 0 0
19.48 0 0
19.52 0 0
19.56 0 0
19.6 0 0
19.64 0 0
19.68 0 0
19.72 0 0
19.76 0 0
19.8 0 0
19.84 0 0
19.88 0 0
19.92 0 0
19.96 0 0
20 0 0
20.04 0 0
20.08 0 0
20.12 0 0
20.16 0 0
20.2 0 0
20.24 0 0
20.28 0 0
20.32 0 0
20.36 0 0
20.4 0 0
20.44 0 0
20.48 0 0
20.52 0 0
20.56 0 0
20.6 0 0
20.64 0 0
20.68 0 0
20.72 0 0
20.76 0 0
20.8 0 0
20.84 0 0
20.88 0 0
20.92 0 0
20.96 0 0
21 0 0
21.04 0 0
21.08 0 0
21.12 0 0
21.16 0 0
21.2 0 0
21.24 0 0
21.28 0 0
21.32 0 0
21.36 0 0
21.4 0 0
21.44 0 0
21.48 0 0
21.52 0 0
21.56 0 0
21.6 0 0
21.64 0 0
21.68 0 0
21.72 0 0
21.76 0 0
21.8 0 0
21.84 0 0
21.88 0 0
21.92 0 0
21.96 0 0
22 0 0
22.04 0 0
22.08 0 0
22.12 0 0
22.16 0 0
22.2 0 0
22.24 0 0
22.28 0 0
22.32 0 0
22.36 0 0
22.4 0 0
22.44 0 0
22.48 0 0
22.52 0 0
22.56 0 0
22.6 0 0
22.64 0 0
22.68 0 0
22.72 0 0
22.76 0 0
22.8 0 0
22.84 0 0
22.88 0 0
22.92 0 0
22.96 0 0
23 0 0
23.04 0 0
23.08 0 0
23.12 0 0
23.16 0 0
23.2 0 0
23.24 0 0
23.28 0 0
23.32 0 0
23.36 0 0
23.4 0 0
23.44 0 0
23.48 0 0
23.52 0 0
23.56 0 0
23.6 0 0
23.64 0 0
23.68 0 0
23.72 0 0
23.76 0 0
23.8 0 0
23.84 0 0
23.88 0 0
23.92 0 0
23.96 0 0
24 0 0
24.04 0 0
24.08 0 0
24.12 0 0
24.16 0 0
24.2 0 0
24.24 0 0
24.28 0 0
24.32 0 0
24.36 0 0
24.4 0 0
24.44 0 0
24.48 0 0
24.52 0 0
24.56 0 0
24.6 0 0
24.64 0 0
24.68 0 0
24.72 0 0
24.76 0 0
24.8 0 0
24.84 0 0
24.88 0 0
24.92 0 0
24.96 0 0
25 0 0
25.04 0 0
25.08 0 0
25.12 0 0
25.16 0 0
25.2 0 0
25.24 0 0
25.28 0 0
25.32 0 0
25.36 0 0
25.4 0 0
25.44 0 0
25.48 0 0
25.52 0 0
25.56 0 0
25.6 0 0
25.64 0 0
25.68 0 0
25.72 0 0
25.76 0 0
25.8 0 0
25.84 0 0
25.88 0 0
25.92 0 0
25.96 0 0
26 0 0
26.04 0 0
26.08 0 0
26.12 0 0
26.16 0 0
26.2 0 0
26.24 0 0
26.28 0 0
26.32 0 0
26.36 0 0
26.4 0 0
26.44 0 0
26.48 0 0
26.52 0 0
26.56 0 0
26.6 0 0
26.64 0 0
26.68 0 0
26.72 0 0
26.76 0 0
26.8 0 0
26.84 0 0
26.88 0 0
26.92 0 0
26.96 0 0
27 0 0
27.04 0 0
27.08 0 0
27.12 0 0
27.16 0 0
27.2 0 0
27.24 0 0
27.28 0 0
27.32 0 0
27.36 0 0
27.4 0 0
27.44 0 0
27.48 0 0
27.52 0 0
27.56 0 0
27.6 0 0
27.64 0 0
27.68 0 0
27.72 0 0
27.76 0 0
27.8 0 0
27.84 0 0
27.88 0 0
27.92 0 0
27.96 0 0
28 0 0
28.04 0 0
28.08 0 0
28.12 0 0
28.16 0 0
28.2 0 0
28.24 0 0
28.28 0 0
28.32 0 0
28.36 0 0
28.4 0 0
28.44 0 0
28.48 0 0
28.52 0 0
28.56 0 0
28.6 0 0
28.64 0 0
28.68 0 0
28.72 0 0
28.76 0 0
28.8 0 0
28.84 0 0
28.88 0 0
28.92 0 0
28.96 0 0
29 0 0
29.04 0 0
29.08 0 0
29.12 0 0
29.16 0 0
29.2 0 0
29.24 0 0
29.28 0 0
29.32 0 0
29.36 0 0
29.4 0 0
29.44 0 0
29.48 0 0
29.52 0 0
29.56 0 0
29.6 0 0
29.64 0 0
29.68 0 0
29.72 0 0
29.76 0 0
29.8 0 0
29.84 0 0
29.88 0 0
29.92 0 0
29.96 0 0
30 0 0
30.04 0 0
30.08 0 0
30.12 0 0
30.16 0 0
30.2 0 0
30.24 0 0
30.28 0 0
30.32 0 0
30.36 0 0
30.4 0 0
30.44 0 0
30.48 0 0
30.52 0 0
30.56 0 0
30.6 0 0
30.64 0 0
30.68 0 0
30.72 0 0
30.76 0 0
30.8 0 0
30.84 0 0
30.88 0 0
30.92 0 0
30.96 0 0
31 0 0
31.04 0 0
31.08 0 0
31.12 0 0
31.16 0 0
31.2 0 0
31.24 0 0
31.28 0 0
31.32 0 0
31.36 0 0
31.4 0 0
31.44 0 0
31.48 0 0
31.52 0 0
31.56 0 0
31.6 0 0
31.64 0 0
31.68 0 0
31.72 0 0
31.76 0 0
31.8 0 0
31.84 0 0
31.88 0 0
31.92 0 0
31.96 0 0
0 0.005 0
0.04 0.005 0
0.08 0.005 0
0.12 0.005 0
0.16 0.005 0
0.2 0.005 0
0.24 0.005 0
0.28 0.005 0
0.32 0.005 0
0.36 0.005 0
0.4 0.005 0
0.44 0.005 0
0.48 0.005 0
0.52 0.005 0
0.56 0.005 0
0.6 0.005 0
0.64 0.005 0
0.68 0.005 0
0.72 0.005 0
0.76 0.005 0
0.8 0.005 0
0.84 0.005 0
0.88 0.005 0
0.92 0.005 0
0.96 0.005 0
1 0.005 0
1.04 0.005 0
1.08 0.005 0
1.12 0.005 0
1.16 0.005 0
1.2 0.005 0
1.24 0.005 0
1.28 0.005 0
1.32 0.005 0
1.36 0.005 0
1.4 0.005 0
1.44 0.005 0
1.48 0.005 0
1.52 0.005 0
1.56 0.005 0
1.6 0.005 0
1.64 0.005 0
1.68 0.005 0
1.72 0.005 0
1.76 0.005 0
1.8 0.005 0
1.84 0.005 0
1.88 0.005 0
1.92 0.005 0
1.96 0.005 0
2 0.005 0
2.04 0.005 0
2.08 0.005 0
2.12 0.005 0
2.16 0.005 0
2.2 0.005 0
2.24 0.005 0
2.28 0.005 0
2.32 0.005 0
2.36 0.005 0
2.4 0.005 0
2.44 0.005 0
2.48 0.005 0
2.52 0.005 0
2.56 0.005 0
2.6 0.005 0
2.64 0.005 0
2.68 0.005 0
2.72 0.005 0
2.76 0.005 0
2.8 0.005 0
2.84 0.005 0
2.88 0.005 0
2.92 0.005 0
2.96 0.005 0
3 0.005 0
3.04 0.005 0
3.08 0.005 0
3.12 0.005 0
3.16 0.005 0
3.2 0.005 0
3.24 0.005 0
3.28 0.005 0
3.32 0.005 0
3.36 0.005 0
3.4 0.005 0
3.44 0.005 0
3.48 0.005 0
3.52 0.005 0
3.56 0.005 0
3.6 0.005 0
3.64 0.005 0
3.68 0.005 0
3.72 0.005 0
3.76 0.005 0
3.8 0.005 0
3.84 0.005 0
3.88 0.005 0
3.92 0.005 0
3.96 0.005 0
4 0.005 0
4.04 0.005 0
4.08 0.005 0
4.12 0.005 0
4.16 0.005 0
4.2 0.005 0
4.24 0.005 0
4.28 0.005 0
4.32 0.005 0
4.36 0.005 0
4.4 0.005 0
4.44 0.005 0
4.48 0.005 0
4.52 0.005 0
4.56 0.005 0
4.6 0.005 0
4.64 0.005 0
4.68 0.005 0
4.72 0.005 0
4.76 0.005 0
4.8 0.005 0
4.84 0.005 0
4.88 0.005 0
4.92 0.005 0
4.96 0.005 0
5 0.005 0
5.04 0.005 0
5.08 0.005 0
5.12 0.005 0
5.16 0.005 0
5.2 0.005 0
5.24 0.005 0
5.28 0.005 0
5.32 0.005 0
5.36 0.005 0
5.4 0.005 0
5.44 0.005 0
5.48 0.005 0
5.52 0.005 0
5.56 0.005 0
5.6 0.005 0
5.64 0.005 0
5.68 0.005 0
5.72 0.005 0
5.76 0.005 0
5.8 0.005 0
5.84 0.005 0
5.88 0.005 0
5.92 0.005 0
5.96 0.005 0
6 0.005 0
6.04 0.005 0
6.08 0.005 0
6.12 0.005 0
6.16 0.005 0
6.2 0.005 0
6.24 0.005 0
6.28 0.005 0
6.32 0.005 0
6.36 0.005 0
6.4 0.005 0
6.44 0.005 0
6.48 0.005 0
6.52 0.005 0
6.56 0.005 0
6.6 0.005 0
6.64 0.005 0
6.68 0.005 0
6.72 0.005 0
6.76 0.005 0
6.8 0.005 0
6.84 0.005 0
6.88 0.005 0
6.92 0.005 0
6.96 0.005 0
7 0.005 0
7.04 0.005 0
7.08 0.005 0
7.12 0.005 0
7.16 0.005 0
7.2 0.005 0
7.24 0.005 0
7.28 0.005 0
7.32 0.005 0
7.36 0.005 0
7.4 0.005 0
[...]
POINT_DATA 160000

SCALARS p float 1
LOOKUP_TABLE default
1
45.6236
43.4082
43.1533
43.0931
43.0667
43.0507
43.0391
43.0299
43.022
43.0151
43.0087
43.0028
42.9973
42.992
42.9869
42.9819
42.9771
42.9724
42.9677
42.9632
42.9587
42.9543
42.95
42.9457
42.9415
42.9374
42.9332
42.9292
42.9252
42.9212
42.9173
42.9134
42.9096
42.9058
42.902
42.8983
42.8947
42.891
42.8874
42.8839
42.8803
42.8768
42.8734
42.87
42.8666
42.8632
42.8599
42.8566
42.8533
42.85
42.8468
42.8436
42.8404
42.8373
42.8342
42.8311
42.828
42.8249
42.8219
42.8189
42.8159
42.8129
42.81
42.807
42.8041
42.8012
42.7983
42.7955
42.7926
42.7898
42.787
42.7842
42.7815
42.7787
42.776
42.7732
42.7705
42.7678
42.7651
42.7625
42.7598
42.7572
42.7545
42.7519
42.7493
42.7467
42.7441
42.7416
42.739
42.7365
42.734
42.7314
42.7289
42.7264
42.7239
42.7215
42.719
42.7165
42.7141
42.7117
42.7092
42.7068
42.7044
42.702
42.6996
42.6972
42.6949
42.6925
42.6902
42.6878
42.6855
42.6832
42.6808
42.6785
42.6762
42.6739
42.6716
42.6694
42.6671
42.6648
42.6626
42.6603
42.6581
42.6559
42.6536
42.6514
42.6492
42.647
42.6448
42.6426
42.6404
42.6382
42.636
42.6339
42.6317
42.6296
42.6274
42.6253
42.6231
42.621
42.6189
42.6167
42.6146
42.6125
42.6104
42.6083
42.6062
42.6041
42.6021
42.6
42.5979
42.5958
42.5938
42.5917
42.5897
42.5876
42.5856
42.5835
42.5815
42.5795
42.5775
42.5754
42.5734
42.5714
42.5694
42.5674
42.5654
42.5634
42.5614
42.5595
42.5575
42.5555
42.5535
42.5516
42.5496
42.5476
42.5457
42.5437
42.5418
42.5398
42.5379
42.536
42.534
42.5321
42.5302
42.5282
42.5263
42.5244
42.5225
42.5206
42.5187
42.5168
42.5149
42.513
42.5111
42.5092
42.5073
42.5055
42.5036
42.5017
42.4998
42.498
42.4961
42.4942
42.4924
42.4905
42.4887
42.4868
42.485
42.4831
42.4813
42.4794
42.4776
42.4758
42.4739
42.4721
42.4703
42.4684
42.4666
42.4648
42.463
42.4612
42.4594
42.4575
42.4557
42.4539
42.4521
42.4503
42.4485
42.4467
42.4449
42.4432
42.4414
42.4396
42.4378
42.436
42.4342
42.4325
42.4307
42.4289
42.4271
42.4254
42.4236
42.4218
42.4201
42.4183
42.4166
42.4148
42.413
42.4113
42.4095
42.4078
42.406
42.4043
42.4026
42.4008
42.3991
42.3973
42.3956
42.3939
42.3921
42.3904
42.3887
42.3869
42.3852
42.3835
42.3818
42.3801
42.3783
42.3766
42.3749
42.3732
42.3715
42.3698
42.368
42.3663
42.3646
42.3629
42.3612
42.3595
42.3578
42.3561
42.3544
42.3527
42.351
42.3493
42.3476
42.3459
42.3443
42.3426
42.3409
42.3392
42.3375
42.3358
42.3341
42.3325
42.3308
42.3291
42.3274
42.3257
42.3241
42.3224
42.3207
42.319
42.3174
42.3157
42.314
42.3124
42.3107
42.309
42.3074
42.3057
42.304
42.3024
42.3007
42.2991
42.2974
42.2957
42.2941
42.2924
42.2908
42.2891
42.2875
42.2858
42.2842
42.2825
42.2809
42.2792
42.2776
42.2759
42.2743
42.2726
42.271
42.2694
42.2677
42.2661
42.2644
42.2628
42.2612
42.2595
42.2579
42.2562
42.2546
42.253
42.2513
42.2497
42.2481
42.2464
42.2448
42.2432
42.2416
42.2399
42.2383
42.2367
42.235
42.2334
42.2318
42.2302
42.2285
42.2269
42.2253
42.2237
42.2221
42.2204
42.2188
42.2172
42.2156
42.214
42.2123
42.2107
42.2091
42.2075
42.2059
42.2043
42.2027
42.201
42.1994
42.1978
42.1962
42.1946
42.193
42.1914
42.1898
42.1882
42.1865
42.1849
42.1833
42.1817
42.1801
42.1785
42.1769
42.1753
42.1737
42.1721
42.1705
42.1689
42.1673
42.1657
42.1641
42.1625
42.1609
42.1593
42.1577
42.1561
42.1545
42.1529
42.1513
42.1497
42.1481
42.1465
42.1449
42.1433
42.1417
42.1401
42.1385
42.1369
42.1353
42.1337
42.1322
42.1306
42.129
42.1274
42.1258
42.1242
42.1226
42.121
42.1194
42.1178
42.1162
42.1147
42.1131
42.1115
42.1099
42.1083
42.1067
42.1051
42.1035
42.102
42.1004
42.0988
42.0972
42.0956
42.094
42.0925
42.0909
42.0893
42.0877
42.0861
42.0845
42.083
42.0814
42.0798
42.0782
42.0766
42.075
42.0735
42.0719
42.0703
42.0687
42.0671
42.0656
42.064
42.0624
42.0608
42.0592
42.0577
42.0561
42.0545
42.0529
42.0514
42.0498
42.0482
42.0466
42.0451
42.0435
42.0419
42.0403
42.0388
42.0372
42.0356
42.034
42.0325
42.0309
42.0293
42.0277
42.0262
42.0246
42.023
42.0214
42.0199
42.0183
42.0167
42.0151
42.0136
42.012
42.0104
42.0089
42.0073
42.0057
42.0041
42.0026
42.001
41.9994
41.9979
41.9963
41.9947
41.9932
41.9916
41.99
41.9885
41.9869
41.9853
41.9837
41.9822
41.9806
41.979
41.9775
41.9759
41.9743
41.9728
41.9712
41.9696
41.9681
41.9665
41.9649
41.9634
41.9618
41.9602
41.9587
41.9571
41.9555
41.954
41.9524
41.9508
41.9493
41.9477
41.9462
41.9446
41.943
41.9415
41.9399
41.9383
41.9368
41.9352
41.9336
41.9321
41.9305
41.929
41.9274
41.9258
41.9243
41.9227
41.9211
41.9196
41.918
41.9165
41.9149
41.9133
41.9118
41.9102
41.9086
41.9071
41.9055
41.904
41.9024
41.9008
41.8993
41.8977
41.8962
41.8946
41.893
41.8915
41.8899
41.8884
41.8868
41.8852
41.8837
41.8821
41.8806
41.879
41.8774
41.8759
41.8743
41.8728
41.8712
41.8697
41.8681
41.8665
41.865
41.8634
41.8619
41.8603
41.8587
41.8572
41.8556
41.8541
41.8525
41.851
41.8494
41.8478
41.8463
41.8447
41.8432
41.8416
41.8401
41.8385
41.837
41.8354
41.8338
41.8323
41.8307
41.8292
41.8276
41.8261
41.8245
41.823
41.8214
41.8198
41.8183
41.8167
41.8152
41.8136
41.8121
41.8105
41.809
41.8074
41.8058
41.8043
41.8027
41.8012
41.7996
41.7981
41.7965
41.795
41.7934
41.7919
41.7903
41.7888
41.7872
41.7856
41.7841
41.7825
41.781
41.7794
41.7779
41.7763
41.7748
41.7732
41.7717
41.7701
41.7686
41.767
41.7655
41.7639
41.7623
41.7608
41.7592
41.7577
41.7561
41.7546
41.753
41.7515
41.7499
41.7484
41.7468
41.7453
41.7437
41.7422
41.7406
41.7391
41.7375
41.736
41.7344
41.7328
41.7313
41.7297
41.7282
41.7266
41.7251
41.7235
41.722
41.7204
41.7189
41.7173
41.7158
41.7142
41.7127
41.7111
41.7096
41.708
41.7065
41.7049
41.7034
41.7018
41.7003
41.6987
41.6972
41.6956
41.6941
41.6925
41.691
41.6894
41.6879
41.6863
41.6848
41.6832
41.6816
41.6801
41.6785
41.677
41.6754
41.6739
41.6723
41.6708
41.6692
41.6677
41.6661
41.6646
41.663
41.6615
41.6599
41.6584
41.6568
41.6553
41.6537
41.6522
41.6506
41.6491
41.6475
41.646
41.6444
41.6429
41.6413
41.6398
41.6382
41.6367
41.6351
41.6336
41.632
41.6305
41.6289
41.6274
41.6258
41.6243
41.6227
41.6212
41.6196
41.6181
41.6165
41.615
41.6134
41.6119
41.6103
41.6088
41.6072
41.6057
41.6041
41.6026
41.601
41.5995
41.5979
41.5964
41.5949
41.5933
41.5918
41.5902
41.5887
41.5871
41.5856
41.584
41.5825
41.5809
41.5794
41.5778
41.5763
41.5747
41.5732
41.5716
41.5701
41.5685
41.567
41.5654
41.5639
41.5623
41.5608
41.5592
41.5577
41.5561
41.5546
41.553
41.5515
41.5499
41.5484
41.5468
41.5453
41.5438
41.5422
41.5407
1
45.6236
45.6236
43.4082
43.1533
43.0931
43.0667
43.0507
43.0391
43.0299
43.022
43.0151
43.0087
43.0028
42.9973
42.992
42.9869
42.9819
42.9771
42.9724
42.9677
42.9632
42.9587
42.9543
42.95
42.9457
42.9415
42.9374
42.9332
42.9292
42.9252
42.9212
42.9173
42.9134
42.9096
42.9058
42.902
42.8983
42.8947
42.891
42.8874
42.8839
42.8803
42.8768
42.8734
42.87
42.8666
42.8632
42.8599
42.8566
42.8533
42.85
42.8468
42.8436
42.8404
42.8373
42.8342
42.8311
42.828
42.8249
42.8219
42.8189
42.8159
42.8129
42.81
42.807
42.8041
42.8012
42.7983
42.7955
42.7926
42.7898
42.787
42.7842
42.7815
42.7787
42.776
42.7732
42.7705
42.7678
42.7651
42.7625
42.7598
42.7572
42.7545
42.7519
42.7493
42.7467
42.7441
42.7416
42.739
42.7365
42.734
42.7314
42.7289
42.7264
42.7239
42.7215
42.719
42.7165
42.7141
42.7117
42.7092
42.7068
42.7044
42.702
42.6996
42.6972
42.6949
42.6925
42.6902
42.6878
42.6855
42.6832
42.6808
42.6785
42.6762
42.6739
42.6716
42.6694
42.6671
42.6648
42.6626
42.6603
42.6581
42.6559
42.6536
42.6514
42.6492
42.647
42.6448
42.6426
42.6404
42.6382
42.636
42.6339
42.6317
42.6296
42.6274
42.6253
42.6231
42.621
42.6189
42.6167
42.6146
42.6125
42.6104
42.6083
42.6062
42.6041
42.6021
42.6
42.5979
42.5958
42.5938
42.5917
42.5897
42.5876
42.5856
42.5835
42.5815
42.5795
42.5775
42.5754
42.5734
42.5714
42.5694
42.5674
42.5654
42.5634
42.5614
42.5595
42.5575
42.5555
42.5535
42.5516
42.5496
42.5476
42.5457
42.5437
42.5418
42.5398
42.5379
42.536
42.534
42.5321
42.5302
42.5282
42.5263
42.5244
42.5225
42.5206
42.5187
42.5168
42.5149
42.513
42.5111
42.5092
42.5073
42.5055
42.5036
42.5017
42.4998
42.498
42.4961
42.4942
42.4924
42.4905
42.4887
42.4868
42.485
42.4831
42.4813
42.4794
42.4776
42.4758
42.4739
42.4721
42.4703
42.4684
42.4666
42.4648
42.463
42.4612
42.4594
42.4575
42.4557
42.4539
42.4521
42.4503
42.4485
42.4467
42.4449
42.4432
42.4414
42.4396
42.4378
42.436
42.4342
42.4325
42.4307
42.4289
42.4271
42.4254
42.4236
42.4218
42.4201
42.4183
42.4166
42.4148
42.413
42.4113
42.4095
42.4078
42.406
42.4043
42.4026
42.4008
42.3991
42.3973
42.3956
42.3939
42.3921
42.3904
42.3887
42.3869
42.3852
42.3835
42.3818
42.3801
42.3783
42.3766
42.3749
42.3732
42.3715
42.3698
42.368
42.3663
42.3646
42.3629
42.3612
42.3595
42.3578
42.3561
42.3544
42.3527
42.351
42.3493
42.3476
42.3459
42.3443
42.3426
42.3409
42.3392
42.3375
42.3358
42.3341
42.3325
42.3308
42.3291
42.3274
42.3257
42.3241
42.3224
42.3207
42.319
42.3174
42.3157
42.314
42.3124
42.3107
42.309
42.3074
42.3057
42.304
42.3024
42.3007
42.2991
42.2974
42.2957
42.2941
42.2924
42.2908
42.2891
42.2875
42.2858
42.2842
42.2825
42.2809
42.2792
42.2776
42.2759
42.2743
42.2726
42.271
42.2694
42.2677
42.2661
42.2644
42.2628
42.2612
42.2595
42.2579
42.2562
42.2546
42.253
42.2513
42.2497
42.2481
42.2464
42.2448
42.2432
42.2416
42.2399
42.2383
42.2367
42.235
42.2334
42.2318
42.2302
42.2285
42.2269
42.2253
42.2237
42.2221
42.2204
42.2188
42.2172
42.2156
42.214
42.2123
42.2107
42.2091
42.2075
42.2059
42.2043
42.2027
42.201
42.1994
42.1978
42.1962
42.1946
42.193
42.1914
42.1898
42.1882
42.1865
42.1849
42.1833
42.1817
42.1801
42.1785
42.1769
42.1753
42.1737
42.1721
42.1705
42.1689
42.1673
42.1657
42.1641
42.1625
42.1609
42.1593
42.1577
42.1561
42.1545
42.1529
42.1513
42.1497
42.1481
42.1465
42.1449
42.1433
42.1417
42.1401
42.1385
42.1369
42.1353
42.1337
42.1322
42.1306
42.129
42.1274
42.1258
42.1242
42.1226
42.121
42.1194
42.1178
42.1162
42.1147
42.1131
42.1115
42.1099
42.1083
42.1067
42.1051
42.1035
42.102
42.1004
42.0988
42.0972
42.0956
42.094
42.0925
42.0909
42.0893
42.0877
42.0861
42.0845
42.083
42.0814
42.0798
42.0782
42.0766
42.075
42.0735
42.0719
42.0703
42.0687
42.0671
42.0656
42.064
42.0624
42.0608
42.0592
42.0577
42.0561
42.0545
42.0529
42.0514
42.0498
42.0482
42.0466
42.0451
42.0435
42.0419
42.0403
42.0388
42.0372
42.0356
42.034
42.0325
42.0309
42.0293
42.0277
42.0262
42.0246
42.023
42.0214
42.0199
42.0183
42.0167
42.0151
42.0136
42.012
42.0104
42.0089
42.0073
42.0057
42.0041
42.0026
42.001
41.9994
41.9979
41.9963
41.9947
41.9932
41.9916
41.99
41.9885
41.9869
41.9853
41.9837
41.9822
41.9806
41.979
41.9775
41.9759
41.9743
41.9728
41.9712
41.9696
41.9681
41.9665
41.9649
41.9634
41.9618
41.9602
41.9587
41.9571
41.9555
41.954
41.9524
41.9508
41.9493
41.9477
41.9462
41.9446
41.943
41.9415
41.9399
41.9383
41.9368
41.9352
41.9336
41.9321
41.9305
41.929
41.9274
41.9258
41.9243
41.9227
41.9211
41.9196
41.918
41.9165
41.9149
41.9133
41.9118
41.9102
41.9086
41.9071
41.9055
41.904
41.9024
41.9008
41.8993
41.8977
41.8962
41.8946
41.893
41.8915
41.8899
41.8884
41.8868
41.8852
41.8837
41.8821
41.8806
41.879
41.8774
41.8759
41.8743
41.8728
41.8712
41.8697
41.8681
41.8665
41.865
41.8634
41.8619
41.8603
41.8587
41.8572
41.8556
41.8541
41.8525
41.851
41.8494
41.8478
41.8463
41.8447
41.8432
41.8416
41.8401
41.8385
41.837
41.8354
41.8338
41.8323
41.8307
41.8292
41.8276
41.8261
41.8245
41.823
41.8214
41.8198
41.8183
41.8167
41.8152
41.8136
41.8121
41.8105
41.809
41.8074
41.8058
41.8043
41.8027
41.8012
41.7996
41.7981
41.7965
41.795
41.7934
41.7919
41.7903
41.7888
41.7872
41.7856
41.7841
41.7825
41.781
41.7794
41.7779
41.7763
41.7748
41.7732
41.7717
41.7701
41.7686
41.767
41.7655
41.7639
41.7623
41.7608
41.7592
41.7577
41.7561
41.7546
41.753
41.7515
41.7499
41.7484
41.7468
41.7453
41.7437
41.7422
41.7406
41.7391
41.7375
41.736
41.7344
41.7328
41.7313
41.7297
41.7282
41.7266
41.7251
41.7235
41.722
41.7204
41.7189
41.7173
41.7158
41.7142
41.7127
41.7111
41.7096
41.708
41.7065
41.7049
41.7034
41.7018
41.7003
41.6987
41.6972
41.6956
41.6941
41.6925
41.691
41.6894
41.6879
41.6863
41.6848
41.6832
41.6816
41.6801
41.6785
41.677
41.6754
41.6739
41.6723
41.6708
41.6692
41.6677
41.6661
41.6646
41.663
41.6615
41.6599
41.6584
41.6568
41.6553
41.6537
41.6522
41.6506
41.6491
41.6475
41.646
41.6444
41.6429
41.6413
41.6398
41.6382
41.6367
41.6351
41.6336
41.632
41.6305
41.6289
41.6274
41.6258
41.6243
41.6227
41.6212
41.6196
41.6181
41.6165
41.615
41.6134
41.6119
41.6103
41.6088
41.6072
41.6057
41.6041
41.6026
41.601
41.5995
41.5979
41.5964
41.5949
41.5933
41.5918
41.5902
41.5887
41.5871
41.5856
41.584
41.5825
41.5809
41.5794
41.5778
41.5763
41.5747
41.5732
41.5716
41.5701
41.5685
41.567
41.5654
41.5639
41.5623
41.5608
41.5592
41.5577
41.5561
41.5546
41.553
41.5515
41.5499
41.5484
41.5468
41.5453
41.5438
41.5422
41.5407
41.5407
44.9766
44.9766
43.4186
43.1628
43.0973
43.069
43.0521
43.0401
43.0306
43.0226
43.0155
43.0091
43.0031
42.9975
42.9922
42.9871
42.9821
42.9772
42.9725
42.9679
42.9633
42.9588
42.9544
42.9501
42.9458
42.9416
42.9374
42.9333
42.9292
42.9252
42.9213
42.9173
42.9135
42.9096
42.9058
42.9021
42.8984
42.8947
42.8911
42.8875
42.8839
42.8804
42.8769
42.8734
42.87
42.8666
42.8632
42.8599
42.8566
42.8533
42.85
42.8468
42.8436
42.8405
42.8373
42.8342
42.8311
42.828
42.8249
42.8219
42.8189
42.8159
42.8129
42.81
42.807
42.8041
42.8012
42.7984
42.7955
42.7927
42.7898
42.787
42.7842
42.7815
42.7787
42.776
42.7732
42.7705
42.7678
42.7651
42.7625
42.7598
42.7572
42.7545
42.7519
42.7493
42.7467
42.7442
42.7416
42.739
42.7365
42.734
42.7314
42.7289
42.7264
42.724
42.7215
42.719
42.7166
42.7141
42.7117
42.7092
42.7068
42.7044
42.702
42.6996
42.6973
42.6949
42.6925
42.6902
42.6878
42.6855
42.6832
42.6809
42.6785
42.6762
42.6739
42.6717
42.6694
42.6671
42.6648
42.6626
42.6603
42.6581
42.6559
42.6536
42.6514
42.6492
42.647
42.6448
42.6426
42.6404
42.6382
42.6361
42.6339
42.6317
42.6296
42.6274
42.6253
42.6231
42.621
42.6189
42.6168
42.6146
42.6125
42.6104
42.6083
42.6062
42.6041
42.6021
42.6
42.5979
42.5958
42.5938
42.5917
42.5897
42.5876
42.5856
42.5836
42.5815
42.5795
42.5775
42.5754
42.5734
42.5714
42.5694
42.5674
42.5654
42.5634
42.5614
42.5595
42.5575
42.5555
42.5535
42.5516
42.5496
42.5476
42.5457
42.5437
42.5418
42.5398
42.5379
42.536
42.534
42.5321
42.5302
42.5283
42.5263
42.5244
42.5225
42.5206
42.5187
42.5168
42.5149
42.513
42.5111
42.5092
42.5073
42.5055
42.5036
42.5017
42.4998
42.498
42.4961
42.4942
42.4924
42.4905
42.4887
42.4868
42.485
42.4831
42.4813
42.4794
42.4776
42.4758
42.4739
42.4721
42.4703
42.4684
42.4666
42.4648
42.463
42.4612
42.4594
42.4576
42.4557
42.4539
42.4521
42.4503
42.4485
42.4467
42.445
42.4432
42.4414
42.4396
42.4378
42.436
42.4342
42.4325
42.4307
42.4289
42.4271
42.4254
42.4236
42.4218
42.4201
42.4183
42.4166
42.4148
42.4131
42.4113
42.4096
42.4078
42.4061
42.4043
42.4026
42.4008
42.3991
42.3973
42.3956
42.3939
42.3921
42.3904
42.3887
42.387
42.3852
42.3835
42.3818
42.3801
42.3783
42.3766
42.3749
42.3732
42.3715
42.3698
42.3681
42.3663
42.3646
42.3629
42.3612
42.3595
42.3578
42.3561
42.3544
42.3527
42.351
42.3493
42.3476
42.3459
42.3443
42.3426
42.3409
42.3392
42.3375
42.3358
42.3341
42.3325
42.3308
42.3291
42.3274
42.3257
42.3241
42.3224
42.3207
42.319
42.3174
42.3157
42.314
42.3124
42.3107
42.309
42.3074
42.3057
42.304
42.3024
42.3007
42.2991
42.2974
42.2957
42.2941
42.2924
42.2908
42.2891
42.2875
42.2858
42.2842
42.2825
42.2809
42.2792
42.2776
42.2759
42.2743
42.2726
42.271
42.2694
42.2677
42.2661
42.2644
42.2628
42.2612
42.2595
42.2579
42.2562
42.2546
42.253
42.2513
42.2497
42.2481
42.2464
42.2448
42.2432
42.2416
42.2399
42.2383
42.2367
42.235
42.2334
42.2318
42.2302
42.2285
42.2269
42.2253
42.2237
42.2221
42.2204
42.2188
42.2172
42.2156
42.214
42.2123
42.2107
42.2091
42.2075
42.2059
42.2043
42.2027
42.201
42.1994
42.1978
42.1962
42.1946
42.193
42.1914
42.1898
42.1882
42.1866
42.1849
42.1833
42.1817
42.1801
42.1785
42.1769
42.1753
42.1737
42.1721
42.1705
42.1689
42.1673
42.1657
42.1641
42.1625
42.1609
42.1593
42.1577
42.1561
42.1545
42.1529
42.1513
42.1497
42.1481
42.1465
42.1449
42.1433
42.1417
42.1401
42.1385
42.1369
42.1353
42.1338
42.1322
42.1306
42.129
42.1274
42.1258
42.1242
42.1226
42.121
42.1194
42.1178
42.1163
42.1147
42.1131
42.1115
42.1099
42.1083
42.1067
42.1051
42.1036
42.102
42.1004
42.0988
42.0972
42.0956
42.094
42.0925
42.0909
42.0893
42.0877
42.0861
42.0845
42.083
42.0814
42.0798
42.0782
42.0766
42.075
42.0735
42.0719
42.0703
42.0687
42.0671
42.0656
42.064
42.0624
42.0608
42.0593
42.0577
42.0561
42.0545
42.0529
42.0514
42.0498
42.0482
42.0466
42.0451
42.0435
42.0419
42.0403
42.0388
42.0372
42.0356
42.034
42.0325
42.0309
42.0293
42.0277
42.0262
42.0246
42.023
42.0214
42.0199
42.0183
42.0167
42.0152
42.0136
42.012
42.0104
42.0089
42.0073
42.0057
42.0042
42.0026
42.001
41.9994
41.9979
41.9963
41.9947
41.9932
41.9916
41.99
41.9885
41.9869
41.9853
41.9837
41.9822
41.9806
41.979
41.9775
41.9759
41.9743
41.9728
41.9712
41.9696
41.9681
41.9665
41.9649
41.9634
41.9618
41.9602
41.9587
41.9571
41.9555
41.954
41.9524
41.9509
41.9493
41.9477
41.9462
41.9446
41.943
41.9415
41.9399
41.9383
41.9368
41.9352
41.9336
41.9321
41.9305
41.929
41.9274
41.9258
41.9243
41.9227
41.9211
41.9196
41.918
41.9165
41.9149
41.9133
41.9118
41.9102
41.9086
41.9071
41.9055
41.904
41.9024
41.9008
41.8993
41.8977
41.8962
41.8946
41.893
41.8915
41.8899
41.8884
41.8868
41.8852
41.8837
41.8821
41.8806
41.879
41.8774
41.8759
41.8743
41.8728
41.8712
41.8697
41.8681
41.8665
41.865
41.8634
41.8619
41.8603
41.8588
41.8572
41.8556
41.8541
41.8525
41.851
41.8494
41.8479
41.8463
41.8447
41.8432
41.8416
41.8401
41.8385
41.837
41.8354
41.8338
41.8323
41.8307
41.8292
41.8276
41.8261
41.8245
41.823
41.8214
41.8198
41.8183
41.8167
41.8152
41.8136
41.8121
41.8105
41.809
41.8074
41.8059
41.8043
41.8027
41.8012
41.7996
41.7981
41.7965
41.795
41.7934
41.7919
41.7903
41.7888
41.7872
41.7856
41.7841
41.7825
41.781
41.7794
41.7779
41.7763
41.7748
41.7732
41.7717
41.7701
41.7686
41.767
41.7655
41.7639
41.7623
41.7608
41.7592
41.7577
41.7561
41.7546
41.753
41.7515
41.7499
41.7484
41.7468
41.7453
41.7437
41.7422
41.7406
41.7391
41.7375
41.736
41.7344
41.7329
41.7313
41.7297
41.7282
41.7266
41.7251
41.7235
41.722
41.7204
41.7189
41.7173
41.7158
41.7142
41.7127
41.7111
41.7096
41.708
41.7065
41.7049
41.7034
41.7018
41.7003
41.6987
41.6972
41.6956
41.6941
41.6925
41.691
41.6894
41.6879
41.6863
41.6848
41.6832
41.6817
41.6801
41.6786
41.677
41.6755
41.6739
41.6723
41.6708
41.6692
41.6677
41.6661
41.6646
41.663
41.6615
41.6599
41.6584
41.6568
41.6553
41.6537
41.6522
41.6506
41.6491
41.6475
41.646
41.6444
41.6429
41.6413
41.6398
41.6382
41.6367
41.6351
41.6336
41.632
41.6305
41.6289
41.6274
41.6258
41.6243
41.6227
41.6212
41.6196
41.6181
41.6165
41.615
41.6134
41.6119
41.6103
41.6088
41.6072
41.6057
41.6042
41.6026
41.6011
41.5995
41.598
41.5964
41.5949
41.5933
41.5918
41.5902
41.5887
41.5871
41.5856
41.584
41.5825
41.5809
41.5794
41.5778
41.5763
41.5747
41.5732
41.5716
41.5701
41.5685
41.567
41.5654
41.5639
41.5623
41.5608
41.5592
41.5577
41.5561
41.5546
41.553
41.5515
41.5499
41.5484
41.5469
41.5453
41.5438
41.5422
41.5407
41.5407
44.2871
44.2871
43.4027
43.1695
43.1009
43.071
43.0534
43.041
43.0313
43.0231
43.0159
43.0094
43.0034
42.9978
42.9924
42.9872
42.9822
42.9774
42.9726
42.968
42.9634
42.9589
42.9545
42.9502
42.9459
42.9417
42.9375
42.9334
42.9293
42.9253
42.9213
42.9174
42.9135
42.9097
42.9059
42.9021
42.8984
42.8947
42.8911
42.8875
42.8839
42.8804
42.8769
42.8734
42.87
42.8666
42.8633
42.8599
42.8566
42.8533
42.8501
42.8468
42.8436
42.8405
42.8373
42.8342
42.8311
42.828
42.825
42.8219
42.8189
42.8159
42.8129
42.81
42.8071
42.8041
42.8013
42.7984
42.7955
42.7927
42.7899
42.787
42.7843
42.7815
42.7787
42.776
42.7733
42.7705
42.7678
42.7652
42.7625
42.7598
42.7572
42.7546
42.7519
42.7493
42.7467
42.7442
42.7416
42.739
42.7365
42.734
42.7315
42.7289
42.7264
42.724
42.7215
42.719
42.7166
42.7141
42.7117
42.7093
42.7068
42.7044
42.702
42.6996
42.6973
42.6949
42.6925
42.6902
42.6878
42.6855
42.6832
42.6809
42.6785
42.6762
42.6739
42.6717
42.6694
42.6671
42.6648
42.6626
42.6603
42.6581
42.6559
42.6536
42.6514
42.6492
42.647