# vtk DataFile Version 2.0
FlowField
ASCII
DATASET STRUCTURED_GRID
DIMENSIONS 800 1 200
POINTS 160000 float
0 0 0
0.04 0 0
0.08 0 0
0.12 0 0
0.16 0 0
0.2 0 0
0.24 0 0
0.28 0 0
0.32 0 0
0.36 0 0
0.4 0 0
0.44 0 0
0.48 0 0
0.52 0 0
0.56 0 0
0.6 0 0
0.64 0 0
0.68 0 0
0.72 0 0
0.76 0 0
0.8 0 0
0.84 0 0
0.88 0 0
0.92 0 0
0.96 0 0
1 0 0
1.04 0 0
1.08 0 0
1.12 0 0
1.16 0 0
1.2 0 0
1.24 0 0
1.28 0 0
1.32 0 0
1.36 0 0
1.4 0 0
1.44 0 0
1.48 0 0
1.52 0 0
1.56 0 0
1.6 0 0
1.64 0 0
1.68 0 0
1.72 0 0
1.76 0 0
1.8 0 0
1.84 0 0
1.88 0 0
1.92 0 0
1.96 0 0
2 0 0
2.04 0 0
2.08 0 0
2.12 0 0
2.16 0 0
2.2 0 0
2.24 0 0
2.28 0 0
2.32 0 0
2.36 0 0
2.4 0 0
2.44 0 0
2.48 0 0
2.52 0 0
2.56 0 0
2.6 0 0
2.64 0 0
2.68 0 0
2.72 0 0
2.76 0 0
2.8 0 0
2.84 0 0
2.88 0 0
2.92 0 0
2.96 0 0
3 0 0
3.04 0 0
3.08 0 0
3.12 0 0
3.16 0 0
3.2 0 0
3.24 0 0
3.28 0 0
3.32 0 0
3.36 0 0
3.4 0 0
3.44 0 0
3.48 0 0
3.52 0 0
3.56 0 0
3.6 0 0
3.64 0 0
3.68 0 0
3.72 0 0
3.76 0 0
3.8 0 0
3.84 0 0
3.88 0 0
3.92 0 0
3.96 0 0
4 0 0
4.04 0 0
4.08 0 0
4.12 0 0
4.16 0 0
4.2 0 0
4.24 0 0
4.28 0 0
4.32 0 0
4.36 0 0
4.4 0 0
4.44 0 0
4.48 0 0
4.52 0 0
4.56 0 0
4.6 0 0
4.64 0 0
4.68 0 0
4.72 0 0
4.76 0 0
4.8 0 0
4.84 0 0
4.88 0 0
4.92 0 0
4.96 0 0
5 0 0
5.04 0 0
5.08 0 0
5.12 0 0
5.16 0 0
5.2 0 0
5.24 0 0
5.28 0 0
5.32 0 0
5.36 0 0
5.4 0 0
5.44 0 0
5.48 0 0
5.52 0 0
5.56 0 0
5.6 0 0
5.64 0 0
5.68 0 0
5.72 0 0
5.76 0 0
5.8 0 0
5.84 0 0
5.88 0 0
5.92 0 0
5.96 0 0
6 0 0
6.04 0 0
6.08 0 0
6.12 0 0
6.16 0 0
6.2 0 0
6.24 0 0
6.28 0 0
6.32 0 0
6.36 0 0
6.4 0 0
6.44 0 0
6.48 0 0
6.52 0 0
6.56 0 0
6.6 0 0
6.64 0 0
6.68 0 0
6.72 0 0
6.76 0 0
6.8 0 0
6.84 0 0
6.88 0 0
6.92 0 0
6.96 0 0
7 0 0
7.04 0 0
7.08 0 0
7.12 0 0
7.16 0 0
7.2 0 0
7.24 0 0
7.28 0 0
7.32 0 0
7.36 0 0
7.4 0 0
7.44 0 0
7.48 0 0
7.52 0 0
7.56 0 0
7.6 0 0
7.64 0 0
7.68 0 0
7.72 0 0
7.76 0 0
7.8 0 0
7.84 0 0
7.88 0 0
7.92 0 0
7.96 0 0
8 0 0
8.04 0 0
8.08 0 0
8.12 0 0
8.16 0 0
8.2 0 0
8.24 0 0
8.28 0 0
8.32 0 0
8.36 0 0
8.4 0 0
8.44 0 0
8.48 0 0
8.52 0 0
8.56 0 0
8.6 0 0
8.64 0 0
8.68 0 0
8.72 0 0
8.76 0 0
8.8 0 0
8.84 0 0
8.88 0 0
8.92 0 0
8.96 0 0
9 0 0
9.04 0 0
9.08 0 0
9.12 0 0
9.16 0 0
9.2 0 0
9.24 0 0
9.28 0 0
9.32 0 0
9.36 0 0
9.4 0 0
9.44 0 0
9.48 0 0
9.52 0 0
9.56 0 0
9.6 0 0
9.64 0 0
9.68 0 0
9.72 0 0
9.76 0 0
9.8 0 0
9.84 0 0
9.88 0 0
9.92 0 0
9.96 0 0
10 0 0
10.04 0 0
10.08 0 0
10.12 0 0
10.16 0 0
10.2 0 0
10.24 0 0
10.28 0 0
10.32 0 0
10.36 0 0
10.4 0 0
10.44 0 0
10.48 0 0
10.52 0 0
10.56 0 0
10.6 0 0
10.64 0 0
10.68 0 0
10.72 0 0
10.76 0 0
10.8 0 0
10.84 0 0
10.88 0 0
10.92 0 0
10.96 0 0
11 0 0
11.04 0 0
11.08 0 0
11.12 0 0
11.16 0 0
11.2 0 0
11.24 0 0
11.28 0 0
11.32 0 0
11.36 0 0
11.4 0 0
11.44 0 0
11.48 0 0
11.52 0 0
11.56 0 0
11.6 0 0
11.64 0 0
11.68 0 0
11.72 0 0
11.76 0 0
11.8 0 0
11.84 0 0
11.88 0 0
11.92 0 0
11.96 0 0
12 0 0
12.04 0 0
12.08 0 0
12.12 0 0
12.16 0 0
12.2 0 0
12.24 0 0
12.28 0 0
12.32 0 0
12.36 0 0
12.4 0 0
12.44 0 0
12.48 0 0
12.52 0 0
12.56 0 0
12.6 0 0
12.64 0 0
12.68 0 0
12.72 0 0
12.76 0 0
12.8 0 0
12.84 0 0
12.88 0 0
12.92 0 0
12.96 0 0
13 0 0
13.04 0 0
13.08 0 0
13.12 0 0
13.16 0 0
13.2 0 0
13.24 0 0
13.28 0 0
13.32 0 0
13.36 0 0
13.4 0 0
13.44 0 0
13.48 0 0
13.52 0 0
13.56 0 0
13.6 0 0
13.64 0 0
13.68 0 0
13.72 0 0
13.76 0 0
13.8 0 0
13.84 0 0
13.88 0 0
13.92 0 0
13.96 0 0
14 0 0
14.04 0 0
14.08 0 0
14.12 0 0
14.16 0 0
14.2 0 0
14.24 0 0
14.28 0 0
14.32 0 0
14.36 0 0
14.4 0 0
14.44 0 0
14.48 0 0
14.52 0 0
14.56 0 0
14.6 0 0
14.64 0 0
14.68 0 0
14.72 0 0
14.76 0 0
14.8 0 0
14.84 0 0
14.88 0 0
14.92 0 0
14.96 0 0
15 0 0
15.04 0 0
15.08 0 0
15.12 0 0
15.16 0 0
15.2 0 0
15.24 0 0
15.28 0 0
15.32 0 0
15.36 0 0
15.4 0 0
15.44 0 0
15.48 0 0
15.52 0 0
15.56 0 0
15.6 0 0
15.64 0 0
15.68 0 0
15.72 0 0
15.76 0 0
15.8 0 0
15.84 0 0
15.88 0 0
15.92 0 0
15.96 0 0
16 0 0
16.04 0 0
16.08 0 0
16.12 0 0
16.16 0 0
16.2 0 0
16.24 0 0
16.28 0 0
16.32 0 0
16.36 0 0
16.4 0 0
16.44 0 0
16.48 0 0
16.52 0 0
16.56 0 0
16.6 0 0
16.64 0 0
16.68 0 0
16.72 0 0
16.76 0 0
16.8 0 0
16.84 0 0
16.88 0 0
16.92 0 0
16.96 0 0
17 0 0
17.04 0 0
17.08 0 0
17.12 0 0
17.16 0 0
17.2 0 0
17.24 0 0
17.28 0 0
17.32 0 0
17.36 0 0
17.4 0 0
17.44 0 0
17.48 0 0
17.52 0 0
17.56 0 0
17.6 0 0
17.64 0 0
17.68 0 0
17.72 0 0
17.76 0 0
17.8 0 0
17.84 0 0
17.88 0 0
17.92 0 0
17.96 0 0
18 0 0
18.04 0 0
18.08 0 0
18.12 0 0
18.16 0 0
18.2 0 0
18.24 0 0
18.28 0 0
18.32 0 0
18.36 0 0
18.4 0 0
18.44 0 0
18.48 0 0
18.52 0 0
18.56 0 0
18.6 0 0
18.64 0 0
18.68 0 0
18.72 0 0
18.76 0 0
18.8 0 0
18.84 0 0
18.88 0 0
18.92 0 0
18.96 0 0
19 0 0
19.04 0 0
19.08 0 0
19.12 0 0
19.16 0 0
19.2 0 0
19.24 0 0
19.28 0 0
19.32 0 0
19.36 0 0
19.4 0 0
19.44 0 0
19.48 0 0
19.52 0 0
19.56 0 0
19.6 0 0
19.64 0 0
19.68 0 0
19.72 0 0
19.76 0 0
19.8 0 0
19.84 0 0
19.88 0 0
19.92 0 0
19.96 0 0
20 0 0
20.04 0 0
20.08 0 0
20.12 0 0
20.16 0 0
20.2 0 0
20.24 0 0
20.28 0 0
20.32 0 0
20.36 0 0
20.4 0 0
20.44 0 0
20.48 0 0
20.52 0 0
20.56 0 0
20.6 0 0
20.64 0 0
20.68 0 0
20.72 0 0
20.76 0 0
20.8 0 0
20.84 0 0
20.88 0 0
20.92 0 0
20.96 0 0
21 0 0
21.04 0 0
21.08 0 0
21.12 0 0
21.16 0 0
21.2 0 0
21.24 0 0
21.28 0 0
21.32 0 0
21.36 0 0
21.4 0 0
21.44 0 0
21.48 0 0
21.52 0 0
21.56 0 0
21.6 0 0
21.64 0 0
21.68 0 0
21.72 0 0
21.76 0 0
21.8 0 0
21.84 0 0
21.88 0 0
21.92 0 0
21.96 0 0
22 0 0
22.04 0 0
22.08 0 0
22.12 0 0
22.16 0 0
22.2 0 0
22.24 0 0
22.28 0 0
22.32 0 0
22.36 0 0
22.4 0 0
22.44 0 0
22.48 0 0
22.52 0 0
22.56 0 0
22.6 0 0
22.64 0 0
22.68 0 0
22.72 0 0
22.76 0 0
22.8 0 0
22.84 0 0
22.88 0 0
22.92 0 0
22.96 0 0
23 0 0
23.04 0 0
23.08 0 0
23.12 0 0
23.16 0 0
23.2 0 0
23.24 0 0
23.28 0 0
23.32 0 0
23.36 0 0
23.4 0 0
23.44 0 0
23.48 0 0
23.52 0 0
23.56 0 0
23.6 0 0
23.64 0 0
23.68 0 0
23.72 0 0
23.76 0 0
23.8 0 0
23.84 0 0
23.88 0 0
23.92 0 0
23.96 0 0
24 0 0
24.04 0 0
24.08 0 0
24.12 0 0
24.16 0 0
24.2 0 0
24.24 0 0
24.28 0 0
24.32 0 0
24.36 0 0
24.4 0 0
24.44 0 0
24.48 0 0
24.52 0 0
24.56 0 0
24.6 0 0
24.64 0 0
24.68 0 0
24.72 0 0
24.76 0 0
24.8 0 0
24.84 0 0
24.88 0 0
24.92 0 0
24.96 0 0
25 0 0
25.04 0 0
25.08 0 0
25.12 0 0
25.16 0 0
25.2 0 0
25.24 0 0
25.28 0 0
25.32 0 0
25.36 0 0
25.4 0 0
25.44 0 0
25.48 0 0
25.52 0 0
25.56 0 0
25.6 0 0
25.64 0 0
25.68 0 0
25.72 0 0
25.76 0 0
25.8 0 0
25.84 0 0
25.88 0 0
25.92 0 0
25.96 0 0
26 0 0
26.04 0 0
26.08 0 0
26.12 0 0
26.16 0 0
26.2 0 0
26.24 0 0
26.28 0 0
26.32 0 0
26.36 0 0
26.4 0 0
26.44 0 0
26.48 0 0
26.52 0 0
26.56 0 0
26.6 0 0
26.64 0 0
26.68 0 0
26.72 0 0
26.76 0 0
26.8 0 0
26.84 0 0
26.88 0 0
26.92 0 0
26.96 0 0
27 0 0
27.04 0 0
27.08 0 0
27.12 0 0
27.16 0 0
27.2 0 0
27.24 0 0
27.28 0 0
27.32 0 0
27.36 0 0
27.4 0 0
27.44 0 0
27.48 0 0
27.52 0 0
27.56 0 0
27.6 0 0
27.64 0 0
27.68 0 0
27.72 0 0
27.76 0 0
27.8 0 0
27.84 0 0
27.88 0 0
27.92 0 0
27.96 0 0
28 0 0
28.04 0 0
28.08 0 0
28.12 0 0
28.16 0 0
28.2 0 0
28.24 0 0
28.28 0 0
28.32 0 0
28.36 0 0
28.4 0 0
28.44 0 0
28.48 0 0
28.52 0 0
28.56 0 0
28.6 0 0
28.64 0 0
28.68 0 0
28.72 0 0
28.76 0 0
28.8 0 0
28.84 0 0
28.88 0 0
28.92 0 0
28.96 0 0
29 0 0
29.04 0 0
29.08 0 0
29.12 0 0
29.16 0 0
29.2 0 0
29.24 0 0
29.28 0 0
29.32 0 0
29.36 0 0
29.4 0 0
29.44 0 0
29.48 0 0
29.52 0 0
29.56 0 0
29.6 0 0
29.64 0 0
29.68 0 0
29.72 0 0
29.76 0 0
29.8 0 0
29.84 0 0
29.88 0 0
29.92 0 0
29.96 0 0
30 0 0
30.04 0 0
30.08 0 0
30.12 0 0
30.16 0 0
30.2 0 0
30.24 0 0
30.28 0 0
30.32 0 0
30.36 0 0
30.4 0 0
30.44 0 0
30.48 0 0
30.52 0 0
30.56 0 0
30.6 0 0
30.64 0 0
30.68 0 0
30.72 0 0
30.76 0 0
30.8 0 0
30.84 0 0
30.88 0 0
30.92 0 0
30.96 0 0
31 0 0
31.04 0 0
31.08 0 0
31.12 0 0
31.16 0 0
31.2 0 0
31.24 0 0
31.28 0 0
31.32 0 0
31.36 0 0
31.4 0 0
31.44 0 0
31.48 0 0
31.52 0 0
31.56 0 0
31.6 0 0
31.64 0 0
31.68 0 0
31.72 0 0
31.76 0 0
31.8 0 0
31.84 0 0
31.88 0 0
31.92 0 0
31.96 0 0
0 0.005 0
0.04 0.005 0
0.08 0.005 0
0.12 0.005 0
0.16 0.005 0
0.2 0.005 0
0.24 0.005 0
0.28 0.005 0
0.32 0.005 0
0.36 0.005 0
0.4 0.005 0
0.44 0.005 0
0.48 0.005 0
0.52 0.005 0
0.56 0.005 0
0.6 0.005 0
0.64 0.005 0
0.68 0.005 0
0.72 0.005 0
0.76 0.005 0
0.8 0.005 0
0.84 0.005 0
0.88 0.005 0
0.92 0.005 0
0.96 0.005 0
1 0.005 0
1.04 0.005 0
1.08 0.005 0
1.12 0.005 0
1.16 0.005 0
1.2 0.005 0
1.24 0.005 0
1.28 0.005 0
1.32 0.005 0
1.36 0.005 0
1.4 0.005 0
1.44 0.005 0
1.48 0.005 0
1.52 0.005 0
1.56 0.005 0
1.6 0.005 0
1.64 0.005 0
1.68 0.005 0
1.72 0.005 0
1.76 0.005 0
1.8 0.005 0
1.84 0.005 0
1.88 0.005 0
1.92 0.005 0
1.96 0.005 0
2 0.005 0
2.04 0.005 0
2.08 0.005 0
2.12 0.005 0
2.16 0.005 0
2.2 0.005 0
2.24 0.005 0
2.28 0.005 0
2.32 0.005 0
2.36 0.005 0
2.4 0.005 0
2.44 0.005 0
2.48 0.005 0
2.52 0.005 0
2.56 0.005 0
2.6 0.005 0
2.64 0.005 0
2.68 0.005 0
2.72 0.005 0
2.76 0.005 0
2.8 0.005 0
2.84 0.005 0
2.88 0.005 0
2.92 0.005 0
2.96 0.005 0
3 0.005 0
3.04 0.005 0
3.08 0.005 0
3.12 0.005 0
3.16 0.005 0
3.2 0.005 0
3.24 0.005 0
3.28 0.005 0
3.32 0.005 0
3.36 0.005 0
3.4 0.005 0
3.44 0.005 0
3.48 0.005 0
3.52 0.005 0
3.56 0.005 0
3.6 0.005 0
3.64 0.005 0
3.68 0.005 0
3.72 0.005 0
3.76 0.005 0
3.8 0.005 0
3.84 0.005 0
3.88 0.005 0
3.92 0.005 0
3.96 0.005 0
4 0.005 0
4.04 0.005 0
4.08 0.005 0
4.12 0.005 0
4.16 0.005 0
4.2 0.005 0
4.24 0.005 0
4.28 0.005 0
4.32 0.005 0
4.36 0.005 0
4.4 0.005 0
4.44 0.005 0
4.48 0.005 0
4.52 0.005 0
4.56 0.005 0
4.6 0.005 0
4.64 0.005 0
4.68 0.005 0
4.72 0.005 0
4.76 0.005 0
4.8 0.005 0
4.84 0.005 0
4.88 0.005 0
4.92 0.005 0
4.96 0.005 0
5 0.005 0
5.04 0.005 0
5.08 0.005 0
5.12 0.005 0
5.16 0.005 0
5.2 0.005 0
5.24 0.005 0
5.28 0.005 0
5.32 0.005 0
5.36 0.005 0
5.4 0.005 0
5.44 0.005 0
5.48 0.005 0
5.52 0.005 0
5.56 0.005 0
5.6 0.005 0
5.64 0.005 0
5.68 0.005 0
5.72 0.005 0
5.76 0.005 0
5.8 0.005 0
5.84 0.005 0
5.88 0.005 0
5.92 0.005 0
5.96 0.005 0
6 0.005 0
6.04 0.005 0
6.08 0.005 0
6.12 0.005 0
6.16 0.005 0
6.2 0.005 0
6.24 0.005 0
6.28 0.005 0
6.32 0.005 0
6.36 0.005 0
6.4 0.005 0
6.44 0.005 0
6.48 0.005 0
6.52 0.005 0
6.56 0.005 0
6.6 0.005 0
6.64 0.005 0
6.68 0.005 0
6.72 0.005 0
6.76 0.005 0
6.8 0.005 0
6.84 0.005 0
6.88 0.005 0
6.92 0.005 0
6.96 0.005 0
7 0.005 0
7.04 0.005 0
7.08 0.005 0
7.12 0.005 0
7.16 0.005 0
7.2 0.005 0
7.24 0.005 0
7.28 0.005 0
7.32 0.005 0
7.36 0.005 0
7.4 0.005 0
[...]
POINT_DATA 160000

SCALARS p float 1
LOOKUP_TABLE default
1
31.766
29.5505
29.2957
29.2355
29.2091
29.193
29.1815
29.1722
29.1644
29.1574
29.1511
29.1452
29.1396
29.1343
29.1292
29.1243
29.1194
29.1147
29.1101
29.1056
29.1011
29.0967
29.0924
29.0881
29.0839
29.0797
29.0756
29.0715
29.0675
29.0636
29.0597
29.0558
29.0519
29.0482
29.0444
29.0407
29.037
29.0334
29.0298
29.0262
29.0227
29.0192
29.0158
29.0123
29.0089
29.0056
29.0022
28.9989
28.9956
28.9924
28.9892
28.986
28.9828
28.9797
28.9765
28.9734
28.9704
28.9673
28.9643
28.9613
28.9583
28.9553
28.9523
28.9494
28.9465
28.9436
28.9407
28.9379
28.935
28.9322
28.9294
28.9266
28.9238
28.9211
28.9183
28.9156
28.9129
28.9102
28.9075
28.9049
28.9022
28.8996
28.8969
28.8943
28.8917
28.8891
28.8865
28.884
28.8814
28.8789
28.8763
28.8738
28.8713
28.8688
28.8663
28.8639
28.8614
28.8589
28.8565
28.8541
28.8516
28.8492
28.8468
28.8444
28.842
28.8396
28.8373
28.8349
28.8326
28.8302
28.8279
28.8256
28.8232
28.8209
28.8186
28.8163
28.8141
28.8118
28.8095
28.8072
28.805
28.8027
28.8005
28.7983
28.796
28.7938
28.7916
28.7894
28.7872
28.785
28.7828
28.7806
28.7785
28.7763
28.7741
28.772
28.7698
28.7677
28.7655
28.7634
28.7613
28.7592
28.757
28.7549
28.7528
28.7507
28.7486
28.7466
28.7445
28.7424
28.7403
28.7383
28.7362
28.7341
28.7321
28.73
28.728
28.726
28.7239
28.7219
28.7199
28.7179
28.7159
28.7138
28.7118
28.7098
28.7078
28.7058
28.7039
28.7019
28.6999
28.6979
28.696
28.694
28.692
28.6901
28.6881
28.6862
28.6842
28.6823
28.6803
28.6784
28.6765
28.6745
28.6726
28.6707
28.6688
28.6668
28.6649
28.663
28.6611
28.6592
28.6573
28.6554
28.6535
28.6517
28.6498
28.6479
28.646
28.6441
28.6423
28.6404
28.6385
28.6367
28.6348
28.6329
28.6311
28.6292
28.6274
28.6255
28.6237
28.6219
28.62
28.6182
28.6164
28.6145
28.6127
28.6109
28.6091
28.6072
28.6054
28.6036
28.6018
28.6
28.5982
28.5964
28.5946
28.5928
28.591
28.5892
28.5874
28.5856
28.5838
28.582
28.5802
28.5785
28.5767
28.5749
28.5731
28.5714
28.5696
28.5678
28.5661
28.5643
28.5625
28.5608
28.559
28.5572
28.5555
28.5537
28.552
28.5502
28.5485
28.5467
28.545
28.5433
28.5415
28.5398
28.5381
28.5363
28.5346
28.5329
28.5311
28.5294
28.5277
28.5259
28.5242
28.5225
28.5208
28.5191
28.5173
28.5156
28.5139
28.5122
28.5105
28.5088
28.5071
28.5054
28.5037
28.502
28.5003
28.4986
28.4969
28.4952
28.4935
28.4918
28.4901
28.4884
28.4867
28.485
28.4834
28.4817
28.48
28.4783
28.4766
28.4749
28.4733
28.4716
28.4699
28.4682
28.4666
28.4649
28.4632
28.4616
28.4599
28.4582
28.4566
28.4549
28.4533
28.4516
28.4499
28.4483
28.4466
28.445
28.4433
28.4417
28.44
28.4384
28.4367
28.4351
28.4334
28.4318
28.4301
28.4285
28.4269
28.4252
28.4236
28.4219
28.4203
28.4187
28.417
28.4154
28.4138
28.4121
28.4105
28.4089
28.4073
28.4056
28.404
28.4024
28.4008
28.3991
28.3975
28.3959
28.3943
28.3927
28.3911
28.3894
28.3878
28.3862
28.3846
28.383
28.3814
28.3798
28.3781
28.3765
28.3749
28.3733
28.3717
28.3701
28.3685
28.3669
28.3653
28.3637
28.3621
28.3605
28.3589
28.3573
28.3557
28.3541
28.3525
28.3509
28.3493
28.3477
28.3461
28.3445
28.3429
28.3413
28.3397
28.3381
28.3365
28.3349
28.3333
28.3317
28.3302
28.3286
28.327
28.3254
28.3238
28.3222
28.3206
28.319
28.3174
28.3158
28.3143
28.3127
28.3111
28.3095
28.3079
28.3063
28.3047
28.3031
28.3016
28.3
28.2984
28.2968
28.2952
28.2936
28.292
28.2905
28.2889
28.2873
28.2857
28.2841
28.2825
28.281
28.2794
28.2778
28.2762
28.2746
28.273
28.2715
28.2699
28.2683
28.2667
28.2651
28.2635
28.262
28.2604
28.2588
28.2572
28.2556
28.254
28.2525
28.2509
28.2493
28.2477
28.2461
28.2446
28.243
28.2414
28.2398
28.2382
28.2366
28.2351
28.2335
28.2319
28.2303
28.2287
28.2272
28.2256
28.224
28.2224
28.2208
28.2192
28.2177
28.2161
28.2145
28.2129
28.2113
28.2098
28.2082
28.2066
28.205
28.2034
28.2018
28.2003
28.1987
28.1971
28.1955
28.1939
28.1924
28.1908
28.1892
28.1876
28.186
28.1845
28.1829
28.1813
28.1797
28.1781
28.1765
28.175
28.1734
28.1718
28.1702
28.1686
28.1671
28.1655
28.1639
28.1623
28.1607
28.1592
28.1576
28.156
28.1544
28.1528
28.1513
28.1497
28.1481
28.1465
28.1449
28.1434
28.1418
28.1402
28.1386
28.137
28.1355
28.1339
28.1323
28.1307
28.1291
28.1276
28.126
28.1244
28.1228
28.1212
28.1197
28.1181
28.1165
28.1149
28.1133
28.1118
28.1102
28.1086
28.107
28.1054
28.1039
28.1023
28.1007
28.0991
28.0975
28.096
28.0944
28.0928
28.0912
28.0896
28.0881
28.0865
28.0849
28.0833
28.0818
28.0802
28.0786
28.077
28.0754
28.0739
28.0723
28.0707
28.0691
28.0675
28.066
28.0644
28.0628
28.0612
28.0596
28.0581
28.0565
28.0549
28.0533
28.0518
28.0502
28.0486
28.047
28.0454
28.0439
28.0423
28.0407
28.0391
28.0375
28.036
28.0344
28.0328
28.0312
28.0297
28.0281
28.0265
28.0249
28.0233
28.0218
28.0202
28.0186
28.017
28.0155
28.0139
28.0123
28.0107
28.0091
28.0076
28.006
28.0044
28.0028
28.0013
27.9997
27.9981
27.9965
27.9949
27.9934
27.9918
27.9902
27.9886
27.9871
27.9855
27.9839
27.9823
27.9807
27.9792
27.9776
27.976
27.9744
27.9729
27.9713
27.9697
27.9681
27.9666
27.965
27.9634
27.9618
27.9602
27.9587
27.9571
27.9555
27.9539
27.9524
27.9508
27.9492
27.9476
27.9461
27.9445
27.9429
27.9413
27.9397
27.9382
27.9366
27.935
27.9334
27.9319
27.9303
27.9287
27.9271
27.9256
27.924
27.9224
27.9208
27.9193
27.9177
27.9161
27.9145
27.913
27.9114
27.9098
27.9082
27.9066
27.9051
27.9035
27.9019
27.9003
27.8988
27.8972
27.8956
27.894
27.8925
27.8909
27.8893
27.8877
27.8862
27.8846
27.883
27.8814
27.8799
27.8783
27.8767
27.8751
27.8736
27.872
27.8704
27.8688
27.8673
27.8657
27.8641
27.8625
27.861
27.8594
27.8578
27.8562
27.8547
27.8531
27.8515
27.8499
27.8484
27.8468
27.8452
27.8436
27.8421
27.8405
27.8389
27.8373
27.8358
27.8342
27.8326
27.831
27.8295
27.8279
27.8263
27.8247
27.8232
27.8216
27.82
27.8184
27.8169
27.8153
27.8137
27.8121
27.8106
27.809
27.8074
27.8058
27.8043
27.8027
27.8011
27.7995
27.798
27.7964
27.7948
27.7933
27.7917
27.7901
27.7885
27.787
27.7854
27.7838
27.7822
27.7807
27.7791
27.7775
27.7759
27.7744
27.7728
27.7712
27.7696
27.7681
27.7665
27.7649
27.7634
27.7618
27.7602
27.7586
27.7571
27.7555
27.7539
27.7523
27.7508
27.7492
27.7476
27.746
27.7445
27.7429
27.7413
27.7398
27.7382
27.7366
27.735
27.7335
27.7319
27.7303
27.7287
27.7272
27.7256
27.724
27.7225
27.7209
27.7193
27.7177
27.7162
27.7146
27.713
27.7114
27.7099
27.7083
27.7067
27.7052
27.7036
27.702
27.7004
27.6989
27.6973
27.6957
27.6942
27.6926
27.691
27.6894
27.6879
27.6863
27.6847
27.6832
27.6816
27.68
27.6784
1
31.766
31.766
29.5505
29.2957
29.2355
29.2091
29.193
29.1815
29.1722
29.1644
29.1574
29.1511
29.1452
29.1396
29.1343
29.1292
29.1243
29.1194
29.1147
29.1101
29.1056
29.1011
29.0967
29.0924
29.0881
29.0839
29.0797
29.0756
29.0715
29.0675
29.0636
29.0597
29.0558
29.0519
29.0482
29.0444
29.0407
29.037
29.0334
29.0298
29.0262
29.0227
29.0192
29.0158
29.0123
29.0089
29.0056
29.0022
28.9989
28.9956
28.9924
28.9892
28.986
28.9828
28.9797
28.9765
28.9734
28.9704
28.9673
28.9643
28.9613
28.9583
28.9553
28.9523
28.9494
28.9465
28.9436
28.9407
28.9379
28.935
28.9322
28.9294
28.9266
28.9238
28.9211
28.9183
28.9156
28.9129
28.9102
28.9075
28.9049
28.9022
28.8996
28.8969
28.8943
28.8917
28.8891
28.8865
28.884
28.8814
28.8789
28.8763
28.8738
28.8713
28.8688
28.8663
28.8639
28.8614
28.8589
28.8565
28.8541
28.8516
28.8492
28.8468
28.8444
28.842
28.8396
28.8373
28.8349
28.8326
28.8302
28.8279
28.8256
28.8232
28.8209
28.8186
28.8163
28.8141
28.8118
28.8095
28.8072
28.805
28.8027
28.8005
28.7983
28.796
28.7938
28.7916
28.7894
28.7872
28.785
28.7828
28.7806
28.7785
28.7763
28.7741
28.772
28.7698
28.7677
28.7655
28.7634
28.7613
28.7592
28.757
28.7549
28.7528
28.7507
28.7486
28.7466
28.7445
28.7424
28.7403
28.7383
28.7362
28.7341
28.7321
28.73
28.728
28.726
28.7239
28.7219
28.7199
28.7179
28.7159
28.7138
28.7118
28.7098
28.7078
28.7058
28.7039
28.7019
28.6999
28.6979
28.696
28.694
28.692
28.6901
28.6881
28.6862
28.6842
28.6823
28.6803
28.6784
28.6765
28.6745
28.6726
28.6707
28.6688
28.6668
28.6649
28.663
28.6611
28.6592
28.6573
28.6554
28.6535
28.6517
28.6498
28.6479
28.646
28.6441
28.6423
28.6404
28.6385
28.6367
28.6348
28.6329
28.6311
28.6292
28.6274
28.6255
28.6237
28.6219
28.62
28.6182
28.6164
28.6145
28.6127
28.6109
28.6091
28.6072
28.6054
28.6036
28.6018
28.6
28.5982
28.5964
28.5946
28.5928
28.591
28.5892
28.5874
28.5856
28.5838
28.582
28.5802
28.5785
28.5767
28.5749
28.5731
28.5714
28.5696
28.5678
28.5661
28.5643
28.5625
28.5608
28.559
28.5572
28.5555
28.5537
28.552
28.5502
28.5485
28.5467
28.545
28.5433
28.5415
28.5398
28.5381
28.5363
28.5346
28.5329
28.5311
28.5294
28.5277
28.5259
28.5242
28.5225
28.5208
28.5191
28.5173
28.5156
28.5139
28.5122
28.5105
28.5088
28.5071
28.5054
28.5037
28.502
28.5003
28.4986
28.4969
28.4952
28.4935
28.4918
28.4901
28.4884
28.4867
28.485
28.4834
28.4817
28.48
28.4783
28.4766
28.4749
28.4733
28.4716
28.4699
28.4682
28.4666
28.4649
28.4632
28.4616
28.4599
28.4582
28.4566
28.4549
28.4533
28.4516
28.4499
28.4483
28.4466
28.445
28.4433
28.4417
28.44
28.4384
28.4367
28.4351
28.4334
28.4318
28.4301
28.4285
28.4269
28.4252
28.4236
28.4219
28.4203
28.4187
28.417
28.4154
28.4138
28.4121
28.4105
28.4089
28.4073
28.4056
28.404
28.4024
28.4008
28.3991
28.3975
28.3959
28.3943
28.3927
28.3911
28.3894
28.3878
28.3862
28.3846
28.383
28.3814
28.3798
28.3781
28.3765
28.3749
28.3733
28.3717
28.3701
28.3685
28.3669
28.3653
28.3637
28.3621
28.3605
28.3589
28.3573
28.3557
28.3541
28.3525
28.3509
28.3493
28.3477
28.3461
28.3445
28.3429
28.3413
28.3397
28.3381
28.3365
28.3349
28.3333
28.3317
28.3302
28.3286
28.327
28.3254
28.3238
28.3222
28.3206
28.319
28.3174
28.3158
28.3143
28.3127
28.3111
28.3095
28.3079
28.3063
28.3047
28.3031
28.3016
28.3
28.2984
28.2968
28.2952
28.2936
28.292
28.2905
28.2889
28.2873
28.2857
28.2841
28.2825
28.281
28.2794
28.2778
28.2762
28.2746
28.273
28.2715
28.2699
28.2683
28.2667
28.2651
28.2635
28.262
28.2604
28.2588
28.2572
28.2556
28.254
28.2525
28.2509
28.2493
28.2477
28.2461
28.2446
28.243
28.2414
28.2398
28.2382
28.2366
28.2351
28.2335
28.2319
28.2303
28.2287
28.2272
28.2256
28.224
28.2224
28.2208
28.2192
28.2177
28.2161
28.2145
28.2129
28.2113
28.2098
28.2082
28.2066
28.205
28.2034
28.2018
28.2003
28.1987
28.1971
28.1955
28.1939
28.1924
28.1908
28.1892
28.1876
28.186
28.1845
28.1829
28.1813
28.1797
28.1781
28.1765
28.175
28.1734
28.1718
28.1702
28.1686
28.1671
28.1655
28.1639
28.1623
28.1607
28.1592
28.1576
28.156
28.1544
28.1528
28.1513
28.1497
28.1481
28.1465
28.1449
28.1434
28.1418
28.1402
28.1386
28.137
28.1355
28.1339
28.1323
28.1307
28.1291
28.1276
28.126
28.1244
28.1228
28.1212
28.1197
28.1181
28.1165
28.1149
28.1133
28.1118
28.1102
28.1086
28.107
28.1054
28.1039
28.1023
28.1007
28.0991
28.0975
28.096
28.0944
28.0928
28.0912
28.0896
28.0881
28.0865
28.0849
28.0833
28.0818
28.0802
28.0786
28.077
28.0754
28.0739
28.0723
28.0707
28.0691
28.0675
28.066
28.0644
28.0628
28.0612
28.0596
28.0581
28.0565
28.0549
28.0533
28.0518
28.0502
28.0486
28.047
28.0454
28.0439
28.0423
28.0407
28.0391
28.0375
28.036
28.0344
28.0328
28.0312
28.0297
28.0281
28.0265
28.0249
28.0233
28.0218
28.0202
28.0186
28.017
28.0155
28.0139
28.0123
28.0107
28.0091
28.0076
28.006
28.0044
28.0028
28.0013
27.9997
27.9981
27.9965
27.9949
27.9934
27.9918
27.9902
27.9886
27.9871
27.9855
27.9839
27.9823
27.9807
27.9792
27.9776
27.976
27.9744
27.9729
27.9713
27.9697
27.9681
27.9666
27.965
27.9634
27.9618
27.9602
27.9587
27.9571
27.9555
27.9539
27.9524
27.9508
27.9492
27.9476
27.9461
27.9445
27.9429
27.9413
27.9397
27.9382
27.9366
27.935
27.9334
27.9319
27.9303
27.9287
27.9271
27.9256
27.924
27.9224
27.9208
27.9193
27.9177
27.9161
27.9145
27.913
27.9114
27.9098
27.9082
27.9066
27.9051
27.9035
27.9019
27.9003
27.8988
27.8972
27.8956
27.894
27.8925
27.8909
27.8893
27.8877
27.8862
27.8846
27.883
27.8814
27.8799
27.8783
27.8767
27.8751
27.8736
27.872
27.8704
27.8688
27.8673
27.8657
27.8641
27.8625
27.861
27.8594
27.8578
27.8562
27.8547
27.8531
27.8515
27.8499
27.8484
27.8468
27.8452
27.8436
27.8421
27.8405
27.8389
27.8373
27.8358
27.8342
27.8326
27.831
27.8295
27.8279
27.8263
27.8247
27.8232
27.8216
27.82
27.8184
27.8169
27.8153
27.8137
27.8121
27.8106
27.809
27.8074
27.8058
27.8043
27.8027
27.8011
27.7995
27.798
27.7964
27.7948
27.7933
27.7917
27.7901
27.7885
27.787
27.7854
27.7838
27.7822
27.7807
27.7791
27.7775
27.7759
27.7744
27.7728
27.7712
27.7696
27.7681
27.7665
27.7649
27.7634
27.7618
27.7602
27.7586
27.7571
27.7555
27.7539
27.7523
27.7508
27.7492
27.7476
27.746
27.7445
27.7429
27.7413
27.7398
27.7382
27.7366
27.735
27.7335
27.7319
27.7303
27.7287
27.7272
27.7256
27.724
27.7225
27.7209
27.7193
27.7177
27.7162
27.7146
27.713
27.7114
27.7099
27.7083
27.7067
27.7052
27.7036
27.702
27.7004
27.6989
27.6973
27.6957
27.6942
27.6926
27.691
27.6894
27.6879
27.6863
27.6847
27.6832
27.6816
27.68
27.6784
27.6784
31.119
31.119
29.5609
29.3052
29.2396
29.2113
29.1944
29.1824
29.1729
29.1649
29.1579
29.1514
29.1455
29.1399
29.1345
29.1294
29.1244
29.1196
29.1148
29.1102
29.1057
29.1012
29.0968
29.0924
29.0882
29.0839
29.0798
29.0757
29.0716
29.0676
29.0636
29.0597
29.0558
29.052
29.0482
29.0444
29.0407
29.0371
29.0334
29.0298
29.0263
29.0227
29.0192
29.0158
29.0124
29.009
29.0056
29.0023
28.999
28.9957
28.9924
28.9892
28.986
28.9828
28.9797
28.9766
28.9734
28.9704
28.9673
28.9643
28.9613
28.9583
28.9553
28.9524
28.9494
28.9465
28.9436
28.9407
28.9379
28.935
28.9322
28.9294
28.9266
28.9239
28.9211
28.9184
28.9156
28.9129
28.9102
28.9075
28.9049
28.9022
28.8996
28.8969
28.8943
28.8917
28.8891
28.8866
28.884
28.8814
28.8789
28.8764
28.8738
28.8713
28.8688
28.8663
28.8639
28.8614
28.8589
28.8565
28.8541
28.8516
28.8492
28.8468
28.8444
28.842
28.8397
28.8373
28.8349
28.8326
28.8302
28.8279
28.8256
28.8233
28.8209
28.8186
28.8163
28.8141
28.8118
28.8095
28.8072
28.805
28.8027
28.8005
28.7983
28.796
28.7938
28.7916
28.7894
28.7872
28.785
28.7828
28.7806
28.7785
28.7763
28.7741
28.772
28.7698
28.7677
28.7655
28.7634
28.7613
28.7592
28.7571
28.7549
28.7528
28.7507
28.7487
28.7466
28.7445
28.7424
28.7403
28.7383
28.7362
28.7342
28.7321
28.7301
28.728
28.726
28.7239
28.7219
28.7199
28.7179
28.7159
28.7138
28.7118
28.7098
28.7078
28.7059
28.7039
28.7019
28.6999
28.6979
28.696
28.694
28.692
28.6901
28.6881
28.6862
28.6842
28.6823
28.6803
28.6784
28.6765
28.6745
28.6726
28.6707
28.6688
28.6669
28.6649
28.663
28.6611
28.6592
28.6573
28.6554
28.6535
28.6517
28.6498
28.6479
28.646
28.6441
28.6423
28.6404
28.6385
28.6367
28.6348
28.633
28.6311
28.6292
28.6274
28.6255
28.6237
28.6219
28.62
28.6182
28.6164
28.6145
28.6127
28.6109
28.6091
28.6072
28.6054
28.6036
28.6018
28.6
28.5982
28.5964
28.5946
28.5928
28.591
28.5892
28.5874
28.5856
28.5838
28.582
28.5802
28.5785
28.5767
28.5749
28.5731
28.5714
28.5696
28.5678
28.5661
28.5643
28.5625
28.5608
28.559
28.5573
28.5555
28.5537
28.552
28.5502
28.5485
28.5468
28.545
28.5433
28.5415
28.5398
28.5381
28.5363
28.5346
28.5329
28.5311
28.5294
28.5277
28.526
28.5242
28.5225
28.5208
28.5191
28.5174
28.5156
28.5139
28.5122
28.5105
28.5088
28.5071
28.5054
28.5037
28.502
28.5003
28.4986
28.4969
28.4952
28.4935
28.4918
28.4901
28.4884
28.4867
28.485
28.4834
28.4817
28.48
28.4783
28.4766
28.475
28.4733
28.4716
28.4699
28.4683
28.4666
28.4649
28.4632
28.4616
28.4599
28.4582
28.4566
28.4549
28.4533
28.4516
28.4499
28.4483
28.4466
28.445
28.4433
28.4417
28.44
28.4384
28.4367
28.4351
28.4334
28.4318
28.4301
28.4285
28.4269
28.4252
28.4236
28.422
28.4203
28.4187
28.417
28.4154
28.4138
28.4122
28.4105
28.4089
28.4073
28.4056
28.404
28.4024
28.4008
28.3992
28.3975
28.3959
28.3943
28.3927
28.3911
28.3894
28.3878
28.3862
28.3846
28.383
28.3814
28.3798
28.3782
28.3765
28.3749
28.3733
28.3717
28.3701
28.3685
28.3669
28.3653
28.3637
28.3621
28.3605
28.3589
28.3573
28.3557
28.3541
28.3525
28.3509
28.3493
28.3477
28.3461
28.3445
28.3429
28.3413
28.3397
28.3381
28.3365
28.3349
28.3333
28.3318
28.3302
28.3286
28.327
28.3254
28.3238
28.3222
28.3206
28.319
28.3174
28.3159
28.3143
28.3127
28.3111
28.3095
28.3079
28.3063
28.3047
28.3032
28.3016
28.3
28.2984
28.2968
28.2952
28.2936
28.2921
28.2905
28.2889
28.2873
28.2857
28.2841
28.2825
28.281
28.2794
28.2778
28.2762
28.2746
28.273
28.2715
28.2699
28.2683
28.2667
28.2651
28.2635
28.262
28.2604
28.2588
28.2572
28.2556
28.2541
28.2525
28.2509
28.2493
28.2477
28.2461
28.2446
28.243
28.2414
28.2398
28.2382
28.2366
28.2351
28.2335
28.2319
28.2303
28.2287
28.2272
28.2256
28.224
28.2224
28.2208
28.2192
28.2177
28.2161
28.2145
28.2129
28.2113
28.2098
28.2082
28.2066
28.205
28.2034
28.2019
28.2003
28.1987
28.1971
28.1955
28.1939
28.1924
28.1908
28.1892
28.1876
28.186
28.1845
28.1829
28.1813
28.1797
28.1781
28.1766
28.175
28.1734
28.1718
28.1702
28.1687
28.1671
28.1655
28.1639
28.1623
28.1607
28.1592
28.1576
28.156
28.1544
28.1528
28.1513
28.1497
28.1481
28.1465
28.1449
28.1434
28.1418
28.1402
28.1386
28.137
28.1355
28.1339
28.1323
28.1307
28.1291
28.1276
28.126
28.1244
28.1228
28.1212
28.1197
28.1181
28.1165
28.1149
28.1133
28.1118
28.1102
28.1086
28.107
28.1054
28.1039
28.1023
28.1007
28.0991
28.0975
28.096
28.0944
28.0928
28.0912
28.0897
28.0881
28.0865
28.0849
28.0833
28.0818
28.0802
28.0786
28.077
28.0754
28.0739
28.0723
28.0707
28.0691
28.0675
28.066
28.0644
28.0628
28.0612
28.0597
28.0581
28.0565
28.0549
28.0533
28.0518
28.0502
28.0486
28.047
28.0454
28.0439
28.0423
28.0407
28.0391
28.0376
28.036
28.0344
28.0328
28.0312
28.0297
28.0281
28.0265
28.0249
28.0233
28.0218
28.0202
28.0186
28.017
28.0155
28.0139
28.0123
28.0107
28.0091
28.0076
28.006
28.0044
28.0028
28.0013
27.9997
27.9981
27.9965
27.9949
27.9934
27.9918
27.9902
27.9886
27.9871
27.9855
27.9839
27.9823
27.9808
27.9792
27.9776
27.976
27.9744
27.9729
27.9713
27.9697
27.9681
27.9666
27.965
27.9634
27.9618
27.9602
27.9587
27.9571
27.9555
27.9539
27.9524
27.9508
27.9492
27.9476
27.9461
27.9445
27.9429
27.9413
27.9398
27.9382
27.9366
27.935
27.9334
27.9319
27.9303
27.9287
27.9271
27.9256
27.924
27.9224
27.9208
27.9193
27.9177
27.9161
27.9145
27.913
27.9114
27.9098
27.9082
27.9067
27.9051
27.9035
27.9019
27.9003
27.8988
27.8972
27.8956
27.894
27.8925
27.8909
27.8893
27.8877
27.8862
27.8846
27.883
27.8814
27.8799
27.8783
27.8767
27.8751
27.8736
27.872
27.8704
27.8688
27.8673
27.8657
27.8641
27.8625
27.861
27.8594
27.8578
27.8562
27.8547
27.8531
27.8515
27.8499
27.8484
27.8468
27.8452
27.8436
27.8421
27.8405
27.8389
27.8373
27.8358
27.8342
27.8326
27.831
27.8295
27.8279
27.8263
27.8247
27.8232
27.8216
27.82
27.8184
27.8169
27.8153
27.8137
27.8121
27.8106
27.809
27.8074
27.8058
27.8043
27.8027
27.8011
27.7996
27.798
27.7964
27.7948
27.7933
27.7917
27.7901
27.7885
27.787
27.7854
27.7838
27.7822
27.7807
27.7791
27.7775
27.7759
27.7744
27.7728
27.7712
27.7697
27.7681
27.7665
27.7649
27.7634
27.7618
27.7602
27.7586
27.7571
27.7555
27.7539
27.7523
27.7508
27.7492
27.7476
27.7461
27.7445
27.7429
27.7413
27.7398
27.7382
27.7366
27.735
27.7335
27.7319
27.7303
27.7288
27.7272
27.7256
27.724
27.7225
27.7209
27.7193
27.7177
27.7162
27.7146
27.713
27.7115
27.7099
27.7083
27.7067
27.7052
27.7036
27.702
27.7004
27.6989
27.6973
27.6957
27.6942
27.6926
27.691
27.6894
27.6879
27.6863
27.6847
27.6832
27.6816
27.68
27.6784
27.6784
30.4295
30.4295
29.5451
29.3118
29.2433
29.2134
29.1958
29.1833
29.1736
29.1654
29.1583
29.1518
29.1458
29.1401
29.1348
29.1296
29.1246
29.1197
29.115
29.1103
29.1058
29.1013
29.0969
29.0925
29.0882
29.084
29.0798
29.0757
29.0717
29.0676
29.0637
29.0597
29.0559
29.052
29.0482
29.0445
29.0408
29.0371
29.0335
29.0299
29.0263
29.0228
29.0193
29.0158
29.0124
29.009
29.0056
29.0023
28.999
28.9957
28.9924
28.9892
28.986
28.9828
28.9797
28.9766
28.9735
28.9704
28.9673
28.9643
28.9613
28.9583
28.9553
28.9524
28.9494
28.9465
28.9436
28.9408
28.9379
28.9351
28.9322
28.9294
28.9266
28.9239
28.9211
28.9184
28.9156
28.9129
28.9102
28.9075
28.9049
28.9022
28.8996
28.8969
28.8943
28.8917
28.8891
28.8866
28.884
28.8814
28.8789
28.8764
28.8738
28.8713
28.8688
28.8664
28.8639
28.8614
28.859
28.8565
28.8541
28.8516
28.8492
28.8468
28.8444
28.842
28.8397
28.8373
28.8349
28.8326
28.8302
28.8279
28.8256
28.8233
28.821
28.8186
28.8164
28.8141
28.8118
28.8095
28.8073
28.805
28.8027
28.8005
28.7983
28.796
28.7938
28.7916
28.7894