# vtk DataFile Version 2.0
FlowField
ASCII
DATASET STRUCTURED_GRID
DIMENSIONS 800 1 200
POINTS 160000 float
0 0 0
0.04 0 0
0.08 0 0
0.12 0 0
0.16 0 0
0.2 0 0
0.24 0 0
0.28 0 0
0.32 0 0
0.36 0 0
0.4 0 0
0.44 0 0
0.48 0 0
0.52 0 0
0.56 0 0
0.6 0 0
0.64 0 0
0.68 0 0
0.72 0 0
0.76 0 0
0.8 0 0
0.84 0 0
0.88 0 0
0.92 0 0
0.96 0 0
1 0 0
1.04 0 0
1.08 0 0
1.12 0 0
1.16 0 0
1.2 0 0
1.24 0 0
1.28 0 0
1.32 0 0
1.36 0 0
1.4 0 0
1.44 0 0
1.48 0 0
1.52 0 0
1.56 0 0
1.6 0 0
1.64 0 0
1.68 0 0
1.72 0 0
1.76 0 0
1.8 0 0
1.84 0 0
1.88 0 0
1.92 0 0
1.96 0 0
2 0 0
2.04 0 0
2.08 0 0
2.12 0 0
2.16 0 0
2.2 0 0
2.24 0 0
2.28 0 0
2.32 0 0
2.36 0 0
2.4 0 0
2.44 0 0
2.48 0 0
2.52 0 0
2.56 0 0
2.6 0 0
2.64 0 0
2.68 0 0
2.72 0 0
2.76 0 0
2.8 0 0
2.84 0 0
2.88 0 0
2.92 0 0
2.96 0 0
3 0 0
3.04 0 0
3.08 0 0
3.12 0 0
3.16 0 0
3.2 0 0
3.24 0 0
3.28 0 0
3.32 0 0
3.36 0 0
3.4 0 0
3.44 0 0
3.48 0 0
3.52 0 0
3.56 0 0
3.6 0 0
3.64 0 0
3.68 0 0
3.72 0 0
3.76 0 0
3.8 0 0
3.84 0 0
3.88 0 0
3.92 0 0
3.96 0 0
4 0 0
4.04 0 0
4.08 0 0
4.12 0 0
4.16 0 0
4.2 0 0
4.24 0 0
4.28 0 0
4.32 0 0
4.36 0 0
4.4 0 0
4.44 0 0
4.48 0 0
4.52 0 0
4.56 0 0
4.6 0 0
4.64 0 0
4.68 0 0
4.72 0 0
4.76 0 0
4.8 0 0
4.84 0 0
4.88 0 0
4.92 0 0
4.96 0 0
5 0 0
5.04 0 0
5.08 0 0
5.12 0 0
5.16 0 0
5.2 0 0
5.24 0 0
5.28 0 0
5.32 0 0
5.36 0 0
5.4 0 0
5.44 0 0
5.48 0 0
5.52 0 0
5.56 0 0
5.6 0 0
5.64 0 0
5.68 0 0
5.72 0 0
5.76 0 0
5.8 0 0
5.84 0 0
5.88 0 0
5.92 0 0
5.96 0 0
6 0 0
6.04 0 0
6.08 0 0
6.12 0 0
6.16 0 0
6.2 0 0
6.24 0 0
6.28 0 0
6.32 0 0
6.36 0 0
6.4 0 0
6.44 0 0
6.48 0 0
6.52 0 0
6.56 0 0
6.6 0 0
6.64 0 0
6.68 0 0
6.72 0 0
6.76 0 0
6.8 0 0
6.84 0 0
6.88 0 0
6.92 0 0
6.96 0 0
7 0 0
7.04 0 0
7.08 0 0
7.12 0 0
7.16 0 0
7.2 0 0
7.24 0 0
7.28 0 0
7.32 0 0
7.36 0 0
7.4 0 0
7.44 0 0
7.48 0 0
7.52 0 0
7.56 0 0
7.6 0 0
7.64 0 0
7.68 0 0
7.72 0 0
7.76 0 0
7.8 0 0
7.84 0 0
7.88 0 0
7.92 0 0
7.96 0 0
8 0 0
8.04 0 0
8.08 0 0
8.12 0 0
8.16 0 0
8.2 0 0
8.24 0 0
8.28 0 0
8.32 0 0
8.36 0 0
8.4 0 0
8.44 0 0
8.48 0 0
8.52 0 0
8.56 0 0
8.6 0 0
8.64 0 0
8.68 0 0
8.72 0 0
8.76 0 0
8.8 0 0
8.84 0 0
8.88 0 0
8.92 0 0
8.96 0 0
9 0 0
9.04 0 0
9.08 0 0
9.12 0 0
9.16 0 0
9.2 0 0
9.24 0 0
9.28 0 0
9.32 0 0
9.36 0 0
9.4 0 0
9.44 0 0
9.48 0 0
9.52 0 0
9.56 0 0
9.6 0 0
9.64 0 0
9.68 0 0
9.72 0 0
9.76 0 0
9.8 0 0
9.84 0 0
9.88 0 0
9.92 0 0
9.96 0 0
10 0 0
10.04 0 0
10.08 0 0
10.12 0 0
10.16 0 0
10.2 0 0
10.24 0 0
10.28 0 0
10.32 0 0
10.36 0 0
10.4 0 0
10.44 0 0
10.48 0 0
10.52 0 0
10.56 0 0
10.6 0 0
10.64 0 0
10.68 0 0
10.72 0 0
10.76 0 0
10.8 0 0
10.84 0 0
10.88 0 0
10.92 0 0
10.96 0 0
11 0 0
11.04 0 0
11.08 0 0
11.12 0 0
11.16 0 0
11.2 0 0
11.24 0 0
11.28 0 0
11.32 0 0
11.36 0 0
11.4 0 0
11.44 0 0
11.48 0 0
11.52 0 0
11.56 0 0
11.6 0 0
11.64 0 0
11.68 0 0
11.72 0 0
11.76 0 0
11.8 0 0
11.84 0 0
11.88 0 0
11.92 0 0
11.96 0 0
12 0 0
12.04 0 0
12.08 0 0
12.12 0 0
12.16 0 0
12.2 0 0
12.24 0 0
12.28 0 0
12.32 0 0
12.36 0 0
12.4 0 0
12.44 0 0
12.48 0 0
12.52 0 0
12.56 0 0
12.6 0 0
12.64 0 0
12.68 0 0
12.72 0 0
12.76 0 0
12.8 0 0
12.84 0 0
12.88 0 0
12.92 0 0
12.96 0 0
13 0 0
13.04 0 0
13.08 0 0
13.12 0 0
13.16 0 0
13.2 0 0
13.24 0 0
13.28 0 0
13.32 0 0
13.36 0 0
13.4 0 0
13.44 0 0
13.48 0 0
13.52 0 0
13.56 0 0
13.6 0 0
13.64 0 0
13.68 0 0
13.72 0 0
13.76 0 0
13.8 0 0
13.84 0 0
13.88 0 0
13.92 0 0
13.96 0 0
14 0 0
14.04 0 0
14.08 0 0
14.12 0 0
14.16 0 0
14.2 0 0
14.24 0 0
14.28 0 0
14.32 0 0
14.36 0 0
14.4 0 0
14.44 0 0
14.48 0 0
14.52 0 0
14.56 0 0
14.6 0 0
14.64 0 0
14.68 0 0
14.72 0 0
14.76 0 0
14.8 0 0
14.84 0 0
14.88 0 0
14.92 0 0
14.96 0 0
15 0 0
15.04 0 0
15.08 0 0
15.12 0 0
15.16 0 0
15.2 0 0
15.24 0 0
15.28 0 0
15.32 0 0
15.36 0 0
15.4 0 0
15.44 0 0
15.48 0 0
15.52 0 0
15.56 0 0
15.6 0 0
15.64 0 0
15.68 0 0
15.72 0 0
15.76 0 0
15.8 0 0
15.84 0 0
15.88 0 0
15.92 0 0
15.96 0 0
16 0 0
16.04 0 0
16.08 0 0
16.12 0 0
16.16 0 0
16.2 0 0
16.24 0 0
16.28 0 0
16.32 0 0
16.36 0 0
16.4 0 0
16.44 0 0
16.48 0 0
16.52 0 0
16.56 0 0
16.6 0 0
16.64 0 0
16.68 0 0
16.72 0 0
16.76 0 0
16.8 0 0
16.84 0 0
16.88 0 0
16.92 0 0
16.96 0 0
17 0 0
17.04 0 0
17.08 0 0
17.12 0 0
17.16 0 0
17.2 0 0
17.24 0 0
17.28 0 0
17.32 0 0
17.36 0 0
17.4 0 0
17.44 0 0
17.48 0 0
17.52 0 0
17.56 0 0
17.6 0 0
17.64 0 0
17.68 0 0
17.72 0 0
17.76 0 0
17.8 0 0
17.84 0 0
17.88 0 0
17.92 0 0
17.96 0 0
18 0 0
18.04 0 0
18.08 0 0
18.12 0 0
18.16 0 0
18.2 0 0
18.24 0 0
18.28 0 0
18.32 0 0
18.36 0 0
18.4 0 0
18.44 0 0
18.48 0 0
18.52 0 0
18.56 0 0
18.6 0 0
18.64 0 0
18.68 0 0
18.72 0 0
18.76 0 0
18.8 0 0
18.84 0 0
18.88 0 0
18.92 0 0
18.96 0 0
19 0 0
19.04 0 0
19.08 0 0
19.12 0 0
19.16 0 0
19.2 0 0
19.24 0 0
19.28 0 0
19.32 0 0
19.36 0 0
19.4 0 0
19.44 0 0
19.48 0 0
19.52 0 0
19.56 0 0
19.6 0 0
19.64 0 0
19.68 0 0
19.72 0 0
19.76 0 0
19.8 0 0
19.84 0 0
19.88 0 0
19.92 0 0
19.96 0 0
20 0 0
20.04 0 0
20.08 0 0
20.12 0 0
20.16 0 0
20.2 0 0
20.24 0 0
20.28 0 0
20.32 0 0
20.36 0 0
20.4 0 0
20.44 0 0
20.48 0 0
20.52 0 0
20.56 0 0
20.6 0 0
20.64 0 0
20.68 0 0
20.72 0 0
20.76 0 0
20.8 0 0
20.84 0 0
20.88 0 0
20.92 0 0
20.96 0 0
21 0 0
21.04 0 0
21.08 0 0
21.12 0 0
21.16 0 0
21.2 0 0
21.24 0 0
21.28 0 0
21.32 0 0
21.36 0 0
21.4 0 0
21.44 0 0
21.48 0 0
21.52 0 0
21.56 0 0
21.6 0 0
21.64 0 0
21.68 0 0
21.72 0 0
21.76 0 0
21.8 0 0
21.84 0 0
21.88 0 0
21.92 0 0
21.96 0 0
22 0 0
22.04 0 0
22.08 0 0
22.12 0 0
22.16 0 0
22.2 0 0
22.24 0 0
22.28 0 0
22.32 0 0
22.36 0 0
22.4 0 0
22.44 0 0
22.48 0 0
22.52 0 0
22.56 0 0
22.6 0 0
22.64 0 0
22.68 0 0
22.72 0 0
22.76 0 0
22.8 0 0
22.84 0 0
22.88 0 0
22.92 0 0
22.96 0 0
23 0 0
23.04 0 0
23.08 0 0
23.12 0 0
23.16 0 0
23.2 0 0
23.24 0 0
23.28 0 0
23.32 0 0
23.36 0 0
23.4 0 0
23.44 0 0
23.48 0 0
23.52 0 0
23.56 0 0
23.6 0 0
23.64 0 0
23.68 0 0
23.72 0 0
23.76 0 0
23.8 0 0
23.84 0 0
23.88 0 0
23.92 0 0
23.96 0 0
24 0 0
24.04 0 0
24.08 0 0
24.12 0 0
24.16 0 0
24.2 0 0
24.24 0 0
24.28 0 0
24.32 0 0
24.36 0 0
24.4 0 0
24.44 0 0
24.48 0 0
24.52 0 0
24.56 0 0
24.6 0 0
24.64 0 0
24.68 0 0
24.72 0 0
24.76 0 0
24.8 0 0
24.84 0 0
24.88 0 0
24.92 0 0
24.96 0 0
25 0 0
25.04 0 0
25.08 0 0
25.12 0 0
25.16 0 0
25.2 0 0
25.24 0 0
25.28 0 0
25.32 0 0
25.36 0 0
25.4 0 0
25.44 0 0
25.48 0 0
25.52 0 0
25.56 0 0
25.6 0 0
25.64 0 0
25.68 0 0
25.72 0 0
25.76 0 0
25.8 0 0
25.84 0 0
25.88 0 0
25.92 0 0
25.96 0 0
26 0 0
26.04 0 0
26.08 0 0
26.12 0 0
26.16 0 0
26.2 0 0
26.24 0 0
26.28 0 0
26.32 0 0
26.36 0 0
26.4 0 0
26.44 0 0
26.48 0 0
26.52 0 0
26.56 0 0
26.6 0 0
26.64 0 0
26.68 0 0
26.72 0 0
26.76 0 0
26.8 0 0
26.84 0 0
26.88 0 0
26.92 0 0
26.96 0 0
27 0 0
27.04 0 0
27.08 0 0
27.12 0 0
27.16 0 0
27.2 0 0
27.24 0 0
27.28 0 0
27.32 0 0
27.36 0 0
27.4 0 0
27.44 0 0
27.48 0 0
27.52 0 0
27.56 0 0
27.6 0 0
27.64 0 0
27.68 0 0
27.72 0 0
27.76 0 0
27.8 0 0
27.84 0 0
27.88 0 0
27.92 0 0
27.96 0 0
28 0 0
28.04 0 0
28.08 0 0
28.12 0 0
28.16 0 0
28.2 0 0
28.24 0 0
28.28 0 0
28.32 0 0
28.36 0 0
28.4 0 0
28.44 0 0
28.48 0 0
28.52 0 0
28.56 0 0
28.6 0 0
28.64 0 0
28.68 0 0
28.72 0 0
28.76 0 0
28.8 0 0
28.84 0 0
28.88 0 0
28.92 0 0
28.96 0 0
29 0 0
29.04 0 0
29.08 0 0
29.12 0 0
29.16 0 0
29.2 0 0
29.24 0 0
29.28 0 0
29.32 0 0
29.36 0 0
29.4 0 0
29.44 0 0
29.48 0 0
29.52 0 0
29.56 0 0
29.6 0 0
29.64 0 0
29.68 0 0
29.72 0 0
29.76 0 0
29.8 0 0
29.84 0 0
29.88 0 0
29.92 0 0
29.96 0 0
30 0 0
30.04 0 0
30.08 0 0
30.12 0 0
30.16 0 0
30.2 0 0
30.24 0 0
30.28 0 0
30.32 0 0
30.36 0 0
30.4 0 0
30.44 0 0
30.48 0 0
30.52 0 0
30.56 0 0
30.6 0 0
30.64 0 0
30.68 0 0
30.72 0 0
30.76 0 0
30.8 0 0
30.84 0 0
30.88 0 0
30.92 0 0
30.96 0 0
31 0 0
31.04 0 0
31.08 0 0
31.12 0 0
31.16 0 0
31.2 0 0
31.24 0 0
31.28 0 0
31.32 0 0
31.36 0 0
31.4 0 0
31.44 0 0
31.48 0 0
31.52 0 0
31.56 0 0
31.6 0 0
31.64 0 0
31.68 0 0
31.72 0 0
31.76 0 0
31.8 0 0
31.84 0 0
31.88 0 0
31.92 0 0
31.96 0 0
0 0.005 0
0.04 0.005 0
0.08 0.005 0
0.12 0.005 0
0.16 0.005 0
0.2 0.005 0
0.24 0.005 0
0.28 0.005 0
0.32 0.005 0
0.36 0.005 0
0.4 0.005 0
0.44 0.005 0
0.48 0.005 0
0.52 0.005 0
0.56 0.005 0
0.6 0.005 0
0.64 0.005 0
0.68 0.005 0
0.72 0.005 0
0.76 0.005 0
0.8 0.005 0
0.84 0.005 0
0.88 0.005 0
0.92 0.005 0
0.96 0.005 0
1 0.005 0
1.04 0.005 0
1.08 0.005 0
1.12 0.005 0
1.16 0.005 0
1.2 0.005 0
1.24 0.005 0
1.28 0.005 0
1.32 0.005 0
1.36 0.005 0
1.4 0.005 0
1.44 0.005 0
1.48 0.005 0
1.52 0.005 0
1.56 0.005 0
1.6 0.005 0
1.64 0.005 0
1.68 0.005 0
1.72 0.005 0
1.76 0.005 0
1.8 0.005 0
1.84 0.005 0
1.88 0.005 0
1.92 0.005 0
1.96 0.005 0
2 0.005 0
2.04 0.005 0
2.08 0.005 0
2.12 0.005 0
2.16 0.005 0
2.2 0.005 0
2.24 0.005 0
2.28 0.005 0
2.32 0.005 0
2.36 0.005 0
2.4 0.005 0
2.44 0.005 0
2.48 0.005 0
2.52 0.005 0
2.56 0.005 0
2.6 0.005 0
2.64 0.005 0
2.68 0.005 0
2.72 0.005 0
2.76 0.005 0
2.8 0.005 0
2.84 0.005 0
2.88 0.005 0
2.92 0.005 0
2.96 0.005 0
3 0.005 0
3.04 0.005 0
3.08 0.005 0
3.12 0.005 0
3.16 0.005 0
3.2 0.005 0
3.24 0.005 0
3.28 0.005 0
3.32 0.005 0
3.36 0.005 0
3.4 0.005 0
3.44 0.005 0
3.48 0.005 0
3.52 0.005 0
3.56 0.005 0
3.6 0.005 0
3.64 0.005 0
3.68 0.005 0
3.72 0.005 0
3.76 0.005 0
3.8 0.005 0
3.84 0.005 0
3.88 0.005 0
3.92 0.005 0
3.96 0.005 0
4 0.005 0
4.04 0.005 0
4.08 0.005 0
4.12 0.005 0
4.16 0.005 0
4.2 0.005 0
4.24 0.005 0
4.28 0.005 0
4.32 0.005 0
4.36 0.005 0
4.4 0.005 0
4.44 0.005 0
4.48 0.005 0
4.52 0.005 0
4.56 0.005 0
4.6 0.005 0
4.64 0.005 0
4.68 0.005 0
4.72 0.005 0
4.76 0.005 0
4.8 0.005 0
4.84 0.005 0
4.88 0.005 0
4.92 0.005 0
4.96 0.005 0
5 0.005 0
5.04 0.005 0
5.08 0.005 0
5.12 0.005 0
5.16 0.005 0
5.2 0.005 0
5.24 0.005 0
5.28 0.005 0
5.32 0.005 0
5.36 0.005 0
5.4 0.005 0
5.44 0.005 0
5.48 0.005 0
5.52 0.005 0
5.56 0.005 0
5.6 0.005 0
5.64 0.005 0
5.68 0.005 0
5.72 0.005 0
5.76 0.005 0
5.8 0.005 0
5.84 0.005 0
5.88 0.005 0
5.92 0.005 0
5.96 0.005 0
6 0.005 0
6.04 0.005 0
6.08 0.005 0
6.12 0.005 0
6.16 0.005 0
6.2 0.005 0
6.24 0.005 0
6.28 0.005 0
6.32 0.005 0
6.36 0.005 0
6.4 0.005 0
6.44 0.005 0
6.48 0.005 0
6.52 0.005 0
6.56 0.005 0
6.6 0.005 0
6.64 0.005 0
6.68 0.005 0
6.72 0.005 0
6.76 0.005 0
6.8 0.005 0
6.84 0.005 0
6.88 0.005 0
6.92 0.005 0
6.96 0.005 0
7 0.005 0
7.04 0.005 0
7.08 0.005 0
7.12 0.005 0
7.16 0.005 0
7.2 0.005 0
7.24 0.005 0
7.28 0.005 0
7.32 0.005 0
7.36 0.005 0
7.4 0.005 0
[...]
POINT_DATA 160000

SCALARS p float 1
LOOKUP_TABLE default
1
25.045
22.8296
22.5747
22.5146
22.4882
22.4721
22.4605
22.4513
22.4434
22.4365
22.4302
22.4243
22.4187
22.4134
22.4083
22.4033
22.3985
22.3938
22.3892
22.3846
22.3802
22.3758
22.3715
22.3672
22.363
22.3588
22.3547
22.3506
22.3466
22.3427
22.3387
22.3349
22.331
22.3273
22.3235
22.3198
22.3161
22.3125
22.3089
22.3053
22.3018
22.2983
22.2949
22.2914
22.2881
22.2847
22.2814
22.278
22.2748
22.2715
22.2683
22.2651
22.2619
22.2588
22.2557
22.2526
22.2495
22.2464
22.2434
22.2404
22.2374
22.2344
22.2315
22.2286
22.2256
22.2228
22.2199
22.217
22.2142
22.2114
22.2086
22.2058
22.203
22.2002
22.1975
22.1948
22.1921
22.1894
22.1867
22.184
22.1814
22.1787
22.1761
22.1735
22.1709
22.1683
22.1657
22.1631
22.1606
22.1581
22.1555
22.153
22.1505
22.148
22.1455
22.143
22.1406
22.1381
22.1357
22.1332
22.1308
22.1284
22.126
22.1236
22.1212
22.1188
22.1165
22.1141
22.1118
22.1094
22.1071
22.1048
22.1024
22.1001
22.0978
22.0955
22.0933
22.091
22.0887
22.0865
22.0842
22.082
22.0797
22.0775
22.0753
22.073
22.0708
22.0686
22.0664
22.0642
22.062
22.0599
22.0577
22.0555
22.0534
22.0512
22.0491
22.0469
22.0448
22.0426
22.0405
22.0384
22.0363
22.0342
22.0321
22.03
22.0279
22.0258
22.0237
22.0216
22.0196
22.0175
22.0154
22.0134
22.0113
22.0093
22.0073
22.0052
22.0032
22.0012
21.9991
21.9971
21.9951
21.9931
21.9911
21.9891
21.9871
21.9851
21.9831
21.9812
21.9792
21.9772
21.9753
21.9733
21.9713
21.9694
21.9674
21.9655
21.9636
21.9616
21.9597
21.9578
21.9558
21.9539
21.952
21.9501
21.9482
21.9463
21.9444
21.9425
21.9406
21.9387
21.9369
21.935
21.9331
21.9312
21.9294
21.9275
21.9257
21.9238
21.922
21.9201
21.9183
21.9165
21.9146
21.9128
21.911
21.9092
21.9074
21.9056
21.9038
21.902
21.9002
21.8984
21.8966
21.8948
21.893
21.8912
21.8895
21.8877
21.8859
21.8842
21.8824
21.8806
21.8789
21.8771
21.8754
21.8736
21.8719
21.8702
21.8684
21.8667
21.865
21.8632
21.8615
21.8598
21.8581
21.8563
21.8546
21.8529
21.8512
21.8495
21.8478
21.8461
21.8444
21.8427
21.841
21.8393
21.8376
21.8359
21.8342
21.8325
21.8308
21.8291
21.8275
21.8258
21.8241
21.8224
21.8207
21.8191
21.8174
21.8157
21.8141
21.8124
21.8107
21.8091
21.8074
21.8057
21.8041
21.8024
21.8007
21.7991
21.7974
21.7958
21.7941
21.7924
21.7908
21.7891
21.7875
21.7858
21.7842
21.7825
21.7809
21.7792
21.7776
21.7759
21.7743
21.7726
21.771
21.7693
21.7677
21.766
21.7644
21.7627
21.7611
21.7594
21.7578
21.7561
21.7545
21.7529
21.7512
21.7496
21.7479
21.7463
21.7446
21.743
21.7413
21.7397
21.7381
21.7364
21.7348
21.7331
21.7315
21.7298
21.7282
21.7265
21.7249
21.7233
21.7216
21.72
21.7183
21.7167
21.715
21.7134
21.7117
21.7101
21.7085
21.7068
21.7052
21.7035
21.7019
21.7002
21.6986
21.6969
21.6953
21.6937
21.692
21.6904
21.6887
21.6871
21.6854
21.6838
21.6822
21.6805
21.6789
21.6772
21.6756
21.6739
21.6723
21.6706
21.669
21.6674
21.6657
21.6641
21.6624
21.6608
21.6591
21.6575
21.6559
21.6542
21.6526
21.6509
21.6493
21.6476
21.646
21.6444
21.6427
21.6411
21.6394
21.6378
21.6361
21.6345
21.6329
21.6312
21.6296
21.6279
21.6263
21.6246
21.623
21.6214
21.6197
21.6181
21.6164
21.6148
21.6131
21.6115
21.6099
21.6082
21.6066
21.6049
21.6033
21.6016
21.6
21.5984
21.5967
21.5951
21.5934
21.5918
21.5901
21.5885
21.5869
21.5852
21.5836
21.5819
21.5803
21.5786
21.577
21.5754
21.5737
21.5721
21.5704
21.5688
21.5671
21.5655
21.5639
21.5622
21.5606
21.5589
21.5573
21.5557
21.554
21.5524
21.5507
21.5491
21.5474
21.5458
21.5442
21.5425
21.5409
21.5392
21.5376
21.536
21.5343
21.5327
21.531
21.5294
21.5277
21.5261
21.5245
21.5228
21.5212
21.5195
21.5179
21.5162
21.5146
21.513
21.5113
21.5097
21.508
21.5064
21.5048
21.5031
21.5015
21.4998
21.4982
21.4966
21.4949
21.4933
21.4916
21.49
21.4883
21.4867
21.4851
21.4834
21.4818
21.4801
21.4785
21.4769
21.4752
21.4736
21.4719
21.4703
21.4687
21.467
21.4654
21.4637
21.4621
21.4604
21.4588
21.4572
21.4555
21.4539
21.4522
21.4506
21.449
21.4473
21.4457
21.444
21.4424
21.4408
21.4391
21.4375
21.4358
21.4342
21.4326
21.4309
21.4293
21.4276
21.426
21.4244
21.4227
21.4211
21.4194
21.4178
21.4162
21.4145
21.4129
21.4112
21.4096
21.408
21.4063
21.4047
21.403
21.4014
21.3997
21.3981
21.3965
21.3948
21.3932
21.3915
21.3899
21.3883
21.3866
21.385
21.3833
21.3817
21.3801
21.3784
21.3768
21.3751
21.3735
21.3719
21.3702
21.3686
21.367
21.3653
21.3637
21.362
21.3604
21.3588
21.3571
21.3555
21.3538
21.3522
21.3506
21.3489
21.3473
21.3456
21.344
21.3424
21.3407
21.3391
21.3374
21.3358
21.3342
21.3325
21.3309
21.3292
21.3276
21.326
21.3243
21.3227
21.321
21.3194
21.3178
21.3161
21.3145
21.3129
21.3112
21.3096
21.3079
21.3063
21.3047
21.303
21.3014
21.2997
21.2981
21.2965
21.2948
21.2932
21.2915
21.2899
21.2883
21.2866
21.285
21.2834
21.2817
21.2801
21.2784
21.2768
21.2752
21.2735
21.2719
21.2702
21.2686
21.267
21.2653
21.2637
21.262
21.2604
21.2588
21.2571
21.2555
21.2539
21.2522
21.2506
21.2489
21.2473
21.2457
21.244
21.2424
21.2408
21.2391
21.2375
21.2358
21.2342
21.2326
21.2309
21.2293
21.2276
21.226
21.2244
21.2227
21.2211
21.2195
21.2178
21.2162
21.2145
21.2129
21.2113
21.2096
21.208
21.2064
21.2047
21.2031
21.2014
21.1998
21.1982
21.1965
21.1949
21.1933
21.1916
21.19
21.1883
21.1867
21.1851
21.1834
21.1818
21.1802
21.1785
21.1769
21.1752
21.1736
21.172
21.1703
21.1687
21.1671
21.1654
21.1638
21.1621
21.1605
21.1589
21.1572
21.1556
21.154
21.1523
21.1507
21.149
21.1474
21.1458
21.1441
21.1425
21.1409
21.1392
21.1376
21.1359
21.1343
21.1327
21.131
21.1294
21.1278
21.1261
21.1245
21.1229
21.1212
21.1196
21.1179
21.1163
21.1147
21.113
21.1114
21.1098
21.1081
21.1065
21.1048
21.1032
21.1016
21.0999
21.0983
21.0967
21.095
21.0934
21.0918
21.0901
21.0885
21.0868
21.0852
21.0836
21.0819
21.0803
21.0787
21.077
21.0754
21.0738
21.0721
21.0705
21.0688
21.0672
21.0656
21.0639
21.0623
21.0607
21.059
21.0574
21.0558
21.0541
21.0525
21.0509
21.0492
21.0476
21.0459
21.0443
21.0427
21.041
21.0394
21.0378
21.0361
21.0345
21.0329
21.0312
21.0296
21.028
21.0263
21.0247
21.023
21.0214
21.0198
21.0181
21.0165
21.0149
21.0132
21.0116
21.01
21.0083
21.0067
21.0051
21.0034
21.0018
21.0001
20.9985
20.9969
20.9952
20.9936
20.992
20.9903
20.9887
20.9871
20.9854
20.9838
20.9822
20.9805
20.9789
20.9773
20.9756
20.974
20.9724
20.9707
20.9691
20.9674
20.9658
20.9642
20.9625
20.9609
20.9593
20.9576
20.956
20.9544
20.9527
20.9511
20.9495
20.9478
20.9462
20.9446
20.9429
20.9413
20.9397
20.938
20.9364
1
25.045
25.045
22.8296
22.5747
22.5146
22.4882
22.4721
22.4605
22.4513
22.4434
22.4365
22.4302
22.4243
22.4187
22.4134
22.4083
22.4033
22.3985
22.3938
22.3892
22.3846
22.3802
22.3758
22.3715
22.3672
22.363
22.3588
22.3547
22.3506
22.3466
22.3427
22.3387
22.3349
22.331
22.3273
22.3235
22.3198
22.3161
22.3125
22.3089
22.3053
22.3018
22.2983
22.2949
22.2914
22.2881
22.2847
22.2814
22.278
22.2748
22.2715
22.2683
22.2651
22.2619
22.2588
22.2557
22.2526
22.2495
22.2464
22.2434
22.2404
22.2374
22.2344
22.2315
22.2286
22.2256
22.2228
22.2199
22.217
22.2142
22.2114
22.2086
22.2058
22.203
22.2002
22.1975
22.1948
22.1921
22.1894
22.1867
22.184
22.1814
22.1787
22.1761
22.1735
22.1709
22.1683
22.1657
22.1631
22.1606
22.1581
22.1555
22.153
22.1505
22.148
22.1455
22.143
22.1406
22.1381
22.1357
22.1332
22.1308
22.1284
22.126
22.1236
22.1212
22.1188
22.1165
22.1141
22.1118
22.1094
22.1071
22.1048
22.1024
22.1001
22.0978
22.0955
22.0933
22.091
22.0887
22.0865
22.0842
22.082
22.0797
22.0775
22.0753
22.073
22.0708
22.0686
22.0664
22.0642
22.062
22.0599
22.0577
22.0555
22.0534
22.0512
22.0491
22.0469
22.0448
22.0426
22.0405
22.0384
22.0363
22.0342
22.0321
22.03
22.0279
22.0258
22.0237
22.0216
22.0196
22.0175
22.0154
22.0134
22.0113
22.0093
22.0073
22.0052
22.0032
22.0012
21.9991
21.9971
21.9951
21.9931
21.9911
21.9891
21.9871
21.9851
21.9831
21.9812
21.9792
21.9772
21.9753
21.9733
21.9713
21.9694
21.9674
21.9655
21.9636
21.9616
21.9597
21.9578
21.9558
21.9539
21.952
21.9501
21.9482
21.9463
21.9444
21.9425
21.9406
21.9387
21.9369
21.935
21.9331
21.9312
21.9294
21.9275
21.9257
21.9238
21.922
21.9201
21.9183
21.9165
21.9146
21.9128
21.911
21.9092
21.9074
21.9056
21.9038
21.902
21.9002
21.8984
21.8966
21.8948
21.893
21.8912
21.8895
21.8877
21.8859
21.8842
21.8824
21.8806
21.8789
21.8771
21.8754
21.8736
21.8719
21.8702
21.8684
21.8667
21.865
21.8632
21.8615
21.8598
21.8581
21.8563
21.8546
21.8529
21.8512
21.8495
21.8478
21.8461
21.8444
21.8427
21.841
21.8393
21.8376
21.8359
21.8342
21.8325
21.8308
21.8291
21.8275
21.8258
21.8241
21.8224
21.8207
21.8191
21.8174
21.8157
21.8141
21.8124
21.8107
21.8091
21.8074
21.8057
21.8041
21.8024
21.8007
21.7991
21.7974
21.7958
21.7941
21.7924
21.7908
21.7891
21.7875
21.7858
21.7842
21.7825
21.7809
21.7792
21.7776
21.7759
21.7743
21.7726
21.771
21.7693
21.7677
21.766
21.7644
21.7627
21.7611
21.7594
21.7578
21.7561
21.7545
21.7529
21.7512
21.7496
21.7479
21.7463
21.7446
21.743
21.7413
21.7397
21.7381
21.7364
21.7348
21.7331
21.7315
21.7298
21.7282
21.7265
21.7249
21.7233
21.7216
21.72
21.7183
21.7167
21.715
21.7134
21.7117
21.7101
21.7085
21.7068
21.7052
21.7035
21.7019
21.7002
21.6986
21.6969
21.6953
21.6937
21.692
21.6904
21.6887
21.6871
21.6854
21.6838
21.6822
21.6805
21.6789
21.6772
21.6756
21.6739
21.6723
21.6706
21.669
21.6674
21.6657
21.6641
21.6624
21.6608
21.6591
21.6575
21.6559
21.6542
21.6526
21.6509
21.6493
21.6476
21.646
21.6444
21.6427
21.6411
21.6394
21.6378
21.6361
21.6345
21.6329
21.6312
21.6296
21.6279
21.6263
21.6246
21.623
21.6214
21.6197
21.6181
21.6164
21.6148
21.6131
21.6115
21.6099
21.6082
21.6066
21.6049
21.6033
21.6016
21.6
21.5984
21.5967
21.5951
21.5934
21.5918
21.5901
21.5885
21.5869
21.5852
21.5836
21.5819
21.5803
21.5786
21.577
21.5754
21.5737
21.5721
21.5704
21.5688
21.5671
21.5655
21.5639
21.5622
21.5606
21.5589
21.5573
21.5557
21.554
21.5524
21.5507
21.5491
21.5474
21.5458
21.5442
21.5425
21.5409
21.5392
21.5376
21.536
21.5343
21.5327
21.531
21.5294
21.5277
21.5261
21.5245
21.5228
21.5212
21.5195
21.5179
21.5162
21.5146
21.513
21.5113
21.5097
21.508
21.5064
21.5048
21.5031
21.5015
21.4998
21.4982
21.4966
21.4949
21.4933
21.4916
21.49
21.4883
21.4867
21.4851
21.4834
21.4818
21.4801
21.4785
21.4769
21.4752
21.4736
21.4719
21.4703
21.4687
21.467
21.4654
21.4637
21.4621
21.4604
21.4588
21.4572
21.4555
21.4539
21.4522
21.4506
21.449
21.4473
21.4457
21.444
21.4424
21.4408
21.4391
21.4375
21.4358
21.4342
21.4326
21.4309
21.4293
21.4276
21.426
21.4244
21.4227
21.4211
21.4194
21.4178
21.4162
21.4145
21.4129
21.4112
21.4096
21.408
21.4063
21.4047
21.403
21.4014
21.3997
21.3981
21.3965
21.3948
21.3932
21.3915
21.3899
21.3883
21.3866
21.385
21.3833
21.3817
21.3801
21.3784
21.3768
21.3751
21.3735
21.3719
21.3702
21.3686
21.367
21.3653
21.3637
21.362
21.3604
21.3588
21.3571
21.3555
21.3538
21.3522
21.3506
21.3489
21.3473
21.3456
21.344
21.3424
21.3407
21.3391
21.3374
21.3358
21.3342
21.3325
21.3309
21.3292
21.3276
21.326
21.3243
21.3227
21.321
21.3194
21.3178
21.3161
21.3145
21.3129
21.3112
21.3096
21.3079
21.3063
21.3047
21.303
21.3014
21.2997
21.2981
21.2965
21.2948
21.2932
21.2915
21.2899
21.2883
21.2866
21.285
21.2834
21.2817
21.2801
21.2784
21.2768
21.2752
21.2735
21.2719
21.2702
21.2686
21.267
21.2653
21.2637
21.262
21.2604
21.2588
21.2571
21.2555
21.2539
21.2522
21.2506
21.2489
21.2473
21.2457
21.244
21.2424
21.2408
21.2391
21.2375
21.2358
21.2342
21.2326
21.2309
21.2293
21.2276
21.226
21.2244
21.2227
21.2211
21.2195
21.2178
21.2162
21.2145
21.2129
21.2113
21.2096
21.208
21.2064
21.2047
21.2031
21.2014
21.1998
21.1982
21.1965
21.1949
21.1933
21.1916
21.19
21.1883
21.1867
21.1851
21.1834
21.1818
21.1802
21.1785
21.1769
21.1752
21.1736
21.172
21.1703
21.1687
21.1671
21.1654
21.1638
21.1621
21.1605
21.1589
21.1572
21.1556
21.154
21.1523
21.1507
21.149
21.1474
21.1458
21.1441
21.1425
21.1409
21.1392
21.1376
21.1359
21.1343
21.1327
21.131
21.1294
21.1278
21.1261
21.1245
21.1229
21.1212
21.1196
21.1179
21.1163
21.1147
21.113
21.1114
21.1098
21.1081
21.1065
21.1048
21.1032
21.1016
21.0999
21.0983
21.0967
21.095
21.0934
21.0918
21.0901
21.0885
21.0868
21.0852
21.0836
21.0819
21.0803
21.0787
21.077
21.0754
21.0738
21.0721
21.0705
21.0688
21.0672
21.0656
21.0639
21.0623
21.0607
21.059
21.0574
21.0558
21.0541
21.0525
21.0509
21.0492
21.0476
21.0459
21.0443
21.0427
21.041
21.0394
21.0378
21.0361
21.0345
21.0329
21.0312
21.0296
21.028
21.0263
21.0247
21.023
21.0214
21.0198
21.0181
21.0165
21.0149
21.0132
21.0116
21.01
21.0083
21.0067
21.0051
21.0034
21.0018
21.0001
20.9985
20.9969
20.9952
20.9936
20.992
20.9903
20.9887
20.9871
20.9854
20.9838
20.9822
20.9805
20.9789
20.9773
20.9756
20.974
20.9724
20.9707
20.9691
20.9674
20.9658
20.9642
20.9625
20.9609
20.9593
20.9576
20.956
20.9544
20.9527
20.9511
20.9495
20.9478
20.9462
20.9446
20.9429
20.9413
20.9397
20.938
20.9364
20.9364
24.398
24.398
22.84
22.5842
22.5187
22.4904
22.4735
22.4615
22.452
22.444
22.4369
22.4305
22.4246
22.419
22.4136
22.4085
22.4035
22.3987
22.3939
22.3893
22.3847
22.3803
22.3759
22.3715
22.3673
22.363
22.3589
22.3548
22.3507
22.3467
22.3427
22.3388
22.3349
22.3311
22.3273
22.3236
22.3198
22.3162
22.3125
22.3089
22.3054
22.3019
22.2984
22.2949
22.2915
22.2881
22.2847
22.2814
22.2781
22.2748
22.2715
22.2683
22.2651
22.262
22.2588
22.2557
22.2526
22.2495
22.2465
22.2434
22.2404
22.2374
22.2345
22.2315
22.2286
22.2257
22.2228
22.2199
22.217
22.2142
22.2114
22.2086
22.2058
22.203
22.2003
22.1975
22.1948
22.1921
22.1894
22.1867
22.184
22.1814
22.1787
22.1761
22.1735
22.1709
22.1683
22.1657
22.1632
22.1606
22.1581
22.1555
22.153
22.1505
22.148
22.1455
22.1431
22.1406
22.1381
22.1357
22.1333
22.1308
22.1284
22.126
22.1236
22.1212
22.1189
22.1165
22.1141
22.1118
22.1094
22.1071
22.1048
22.1025
22.1002
22.0978
22.0956
22.0933
22.091
22.0887
22.0865
22.0842
22.082
22.0797
22.0775
22.0753
22.073
22.0708
22.0686
22.0664
22.0642
22.062
22.0599
22.0577
22.0555
22.0534
22.0512
22.0491
22.0469
22.0448
22.0427
22.0405
22.0384
22.0363
22.0342
22.0321
22.03
22.0279
22.0258
22.0237
22.0217
22.0196
22.0175
22.0155
22.0134
22.0114
22.0093
22.0073
22.0052
22.0032
22.0012
21.9992
21.9971
21.9951
21.9931
21.9911
21.9891
21.9871
21.9851
21.9832
21.9812
21.9792
21.9772
21.9753
21.9733
21.9713
21.9694
21.9674
21.9655
21.9636
21.9616
21.9597
21.9578
21.9558
21.9539
21.952
21.9501
21.9482
21.9463
21.9444
21.9425
21.9406
21.9387
21.9369
21.935
21.9331
21.9313
21.9294
21.9275
21.9257
21.9238
21.922
21.9201
21.9183
21.9165
21.9147
21.9128
21.911
21.9092
21.9074
21.9056
21.9038
21.902
21.9002
21.8984
21.8966
21.8948
21.893
21.8912
21.8895
21.8877
21.8859
21.8842
21.8824
21.8806
21.8789
21.8771
21.8754
21.8736
21.8719
21.8702
21.8684
21.8667
21.865
21.8632
21.8615
21.8598
21.8581
21.8563
21.8546
21.8529
21.8512
21.8495
21.8478
21.8461
21.8444
21.8427
21.841
21.8393
21.8376
21.8359
21.8342
21.8325
21.8308
21.8292
21.8275
21.8258
21.8241
21.8224
21.8208
21.8191
21.8174
21.8157
21.8141
21.8124
21.8107
21.8091
21.8074
21.8057
21.8041
21.8024
21.8007
21.7991
21.7974
21.7958
21.7941
21.7924
21.7908
21.7891
21.7875
21.7858
21.7842
21.7825
21.7809
21.7792
21.7776
21.7759
21.7743
21.7726
21.771
21.7693
21.7677
21.766
21.7644
21.7627
21.7611
21.7594
21.7578
21.7561
21.7545
21.7529
21.7512
21.7496
21.7479
21.7463
21.7446
21.743
21.7413
21.7397
21.7381
21.7364
21.7348
21.7331
21.7315
21.7298
21.7282
21.7265
21.7249
21.7233
21.7216
21.72
21.7183
21.7167
21.715
21.7134
21.7117
21.7101
21.7085
21.7068
21.7052
21.7035
21.7019
21.7002
21.6986
21.697
21.6953
21.6937
21.692
21.6904
21.6887
21.6871
21.6854
21.6838
21.6822
21.6805
21.6789
21.6772
21.6756
21.6739
21.6723
21.6707
21.669
21.6674
21.6657
21.6641
21.6624
21.6608
21.6591
21.6575
21.6559
21.6542
21.6526
21.6509
21.6493
21.6476
21.646
21.6444
21.6427
21.6411
21.6394
21.6378
21.6361
21.6345
21.6329
21.6312
21.6296
21.6279
21.6263
21.6246
21.623
21.6214
21.6197
21.6181
21.6164
21.6148
21.6131
21.6115
21.6099
21.6082
21.6066
21.6049
21.6033
21.6016
21.6
21.5984
21.5967
21.5951
21.5934
21.5918
21.5901
21.5885
21.5869
21.5852
21.5836
21.5819
21.5803
21.5786
21.577
21.5754
21.5737
21.5721
21.5704
21.5688
21.5672
21.5655
21.5639
21.5622
21.5606
21.5589
21.5573
21.5557
21.554
21.5524
21.5507
21.5491
21.5474
21.5458
21.5442
21.5425
21.5409
21.5392
21.5376
21.536
21.5343
21.5327
21.531
21.5294
21.5277
21.5261
21.5245
21.5228
21.5212
21.5195
21.5179
21.5163
21.5146
21.513
21.5113
21.5097
21.508
21.5064
21.5048
21.5031
21.5015
21.4998
21.4982
21.4966
21.4949
21.4933
21.4916
21.49
21.4884
21.4867
21.4851
21.4834
21.4818
21.4801
21.4785
21.4769
21.4752
21.4736
21.4719
21.4703
21.4687
21.467
21.4654
21.4637
21.4621
21.4605
21.4588
21.4572
21.4555
21.4539
21.4522
21.4506
21.449
21.4473
21.4457
21.444
21.4424
21.4408
21.4391
21.4375
21.4358
21.4342
21.4326
21.4309
21.4293
21.4276
21.426
21.4244
21.4227
21.4211
21.4194
21.4178
21.4162
21.4145
21.4129
21.4112
21.4096
21.408
21.4063
21.4047
21.403
21.4014
21.3998
21.3981
21.3965
21.3948
21.3932
21.3916
21.3899
21.3883
21.3866
21.385
21.3834
21.3817
21.3801
21.3784
21.3768
21.3752
21.3735
21.3719
21.3702
21.3686
21.367
21.3653
21.3637
21.362
21.3604
21.3588
21.3571
21.3555
21.3538
21.3522
21.3506
21.3489
21.3473
21.3456
21.344
21.3424
21.3407
21.3391
21.3374
21.3358
21.3342
21.3325
21.3309
21.3292
21.3276
21.326
21.3243
21.3227
21.3211
21.3194
21.3178
21.3161
21.3145
21.3129
21.3112
21.3096
21.3079
21.3063
21.3047
21.303
21.3014
21.2997
21.2981
21.2965
21.2948
21.2932
21.2915
21.2899
21.2883
21.2866
21.285
21.2834
21.2817
21.2801
21.2784
21.2768
21.2752
21.2735
21.2719
21.2702
21.2686
21.267
21.2653
21.2637
21.2621
21.2604
21.2588
21.2571
21.2555
21.2539
21.2522
21.2506
21.2489
21.2473
21.2457
21.244
21.2424
21.2408
21.2391
21.2375
21.2358
21.2342
21.2326
21.2309
21.2293
21.2276
21.226
21.2244
21.2227
21.2211
21.2195
21.2178
21.2162
21.2145
21.2129
21.2113
21.2096
21.208
21.2064
21.2047
21.2031
21.2014
21.1998
21.1982
21.1965
21.1949
21.1933
21.1916
21.19
21.1883
21.1867
21.1851
21.1834
21.1818
21.1802
21.1785
21.1769
21.1752
21.1736
21.172
21.1703
21.1687
21.1671
21.1654
21.1638
21.1621
21.1605
21.1589
21.1572
21.1556
21.154
21.1523
21.1507
21.149
21.1474
21.1458
21.1441
21.1425
21.1409
21.1392
21.1376
21.136
21.1343
21.1327
21.131
21.1294
21.1278
21.1261
21.1245
21.1229
21.1212
21.1196
21.1179
21.1163
21.1147
21.113
21.1114
21.1098
21.1081
21.1065
21.1049
21.1032
21.1016
21.0999
21.0983
21.0967
21.095
21.0934
21.0918
21.0901
21.0885
21.0869
21.0852
21.0836
21.0819
21.0803
21.0787
21.077
21.0754
21.0738
21.0721
21.0705
21.0689
21.0672
21.0656
21.0639
21.0623
21.0607
21.059
21.0574
21.0558
21.0541
21.0525
21.0509
21.0492
21.0476
21.0459
21.0443
21.0427
21.041
21.0394
21.0378
21.0361
21.0345
21.0329
21.0312
21.0296
21.028
21.0263
21.0247
21.023
21.0214
21.0198
21.0181
21.0165
21.0149
21.0132
21.0116
21.01
21.0083
21.0067
21.0051
21.0034
21.0018
21.0002
20.9985
20.9969
20.9952
20.9936
20.992
20.9903
20.9887
20.9871
20.9854
20.9838
20.9822
20.9805
20.9789
20.9773
20.9756
20.974
20.9724
20.9707
20.9691
20.9674
20.9658
20.9642
20.9625
20.9609
20.9593
20.9576
20.956
20.9544
20.9527
20.9511
20.9495
20.9478
20.9462
20.9446
20.9429
20.9413
20.9397
20.938
20.9364
20.9364
23.7085
23.7085
22.8241
22.5909
22.5223
22.4924
22.4748
22.4624
22.4527
22.4445
22.4373
22.4309
22.4249
22.4192
22.4138
22.4087
22.4037
22.3988
22.3941
22.3894
22.3848
22.3804
22.376
22.3716
22.3673
22.3631
22.3589
22.3548
22.3508
22.3467
22.3428
22.3388
22.335
22.3311
22.3273
22.3236
22.3199
22.3162
22.3126
22.309
22.3054
22.3019
22.2984
22.2949
22.2915
22.2881
22.2847
22.2814
22.2781
22.2748
22.2716
22.2683
22.2651
22.262
22.2588
22.2557
22.2526
22.2495
22.2465
22.2434
22.2404
22.2374
22.2345
22.2315
22.2286
22.2257
22.2228
22.2199
22.217
22.2142
22.2114
22.2086
22.2058
22.203
22.2003
22.1975
22.1948
22.1921
22.1894
22.1867
22.184
22.1814
22.1787
22.1761
22.1735
22.1709
22.1683
22.1657
22.1632
22.1606
22.1581
22.1555
22.153
22.1505
22.148
22.1455
22.1431
22.1406
22.1381
22.1357
22.1333
22.1308
22.1284
22.126
22.1236
22.1212
22.1189
22.1165
22.1141
22.1118
22.1094
22.1071
22.1048
22.1025
22.1002
22.0979
22.0956
22.0933
22.091
22.0887
22.0865
22.0842
22.082
22.0797
22.0775
22.0753
22.073
22.0708