# vtk DataFile Version 2.0
FlowField
ASCII
DATASET STRUCTURED_GRID
DIMENSIONS 800 1 200
POINTS 160000 float
0 0 0
0.04 0 0
0.08 0 0
0.12 0 0
0.16 0 0
0.2 0 0
0.24 0 0
0.28 0 0
0.32 0 0
0.36 0 0
0.4 0 0
0.44 0 0
0.48 0 0
0.52 0 0
0.56 0 0
0.6 0 0
0.64 0 0
0.68 0 0
0.72 0 0
0.76 0 0
0.8 0 0
0.84 0 0
0.88 0 0
0.92 0 0
0.96 0 0
1 0 0
1.04 0 0
1.08 0 0
1.12 0 0
1.16 0 0
1.2 0 0
1.24 0 0
1.28 0 0
1.32 0 0
1.36 0 0
1.4 0 0
1.44 0 0
1.48 0 0
1.52 0 0
1.56 0 0
1.6 0 0
1.64 0 0
1.68 0 0
1.72 0 0
1.76 0 0
1.8 0 0
1.84 0 0
1.88 0 0
1.92 0 0
1.96 0 0
2 0 0
2.04 0 0
2.08 0 0
2.12 0 0
2.16 0 0
2.2 0 0
2.24 0 0
2.28 0 0
2.32 0 0
2.36 0 0
2.4 0 0
2.44 0 0
2.48 0 0
2.52 0 0
2.56 0 0
2.6 0 0
2.64 0 0
2.68 0 0
2.72 0 0
2.76 0 0
2.8 0 0
2.84 0 0
2.88 0 0
2.92 0 0
2.96 0 0
3 0 0
3.04 0 0
3.08 0 0
3.12 0 0
3.16 0 0
3.2 0 0
3.24 0 0
3.28 0 0
3.32 0 0
3.36 0 0
3.4 0 0
3.44 0 0
3.48 0 0
3.52 0 0
3.56 0 0
3.6 0 0
3.64 0 0
3.68 0 0
3.72 0 0
3.76 0 0
3.8 0 0
3.84 0 0
3.88 0 0
3.92 0 0
3.96 0 0
4 0 0
4.04 0 0
4.08 0 0
4.12 0 0
4.16 0 0
4.2 0 0
4.24 0 0
4.28 0 0
4.32 0 0
4.36 0 0
4.4 0 0
4.44 0 0
4.48 0 0
4.52 0 0
4.56 0 0
4.6 0 0
4.64 0 0
4.68 0 0
4.72 0 0
4.76 0 0
4.8 0 0
4.84 0 0
4.88 0 0
4.92 0 0
4.96 0 0
5 0 0
5.04 0 0
5.08 0 0
5.12 0 0
5.16 0 0
5.2 0 0
5.24 0 0
5.28 0 0
5.32 0 0
5.36 0 0
5.4 0 0
5.44 0 0
5.48 0 0
5.52 0 0
5.56 0 0
5.6 0 0
5.64 0 0
5.68 0 0
5.72 0 0
5.76 0 0
5.8 0 0
5.84 0 0
5.88 0 0
5.92 0 0
5.96 0 0
6 0 0
6.04 0 0
6.08 0 0
6.12 0 0
6.16 0 0
6.2 0 0
6.24 0 0
6.28 0 0
6.32 0 0
6.36 0 0
6.4 0 0
6.44 0 0
6.48 0 0
6.52 0 0
6.56 0 0
6.6 0 0
6.64 0 0
6.68 0 0
6.72 0 0
6.76 0 0
6.8 0 0
6.84 0 0
6.88 0 0
6.92 0 0
6.96 0 0
7 0 0
7.04 0 0
7.08 0 0
7.12 0 0
7.16 0 0
7.2 0 0
7.24 0 0
7.28 0 0
7.32 0 0
7.36 0 0
7.4 0 0
7.44 0 0
7.48 0 0
7.52 0 0
7.56 0 0
7.6 0 0
7.64 0 0
7.68 0 0
7.72 0 0
7.76 0 0
7.8 0 0
7.84 0 0
7.88 0 0
7.92 0 0
7.96 0 0
8 0 0
8.04 0 0
8.08 0 0
8.12 0 0
8.16 0 0
8.2 0 0
8.24 0 0
8.28 0 0
8.32 0 0
8.36 0 0
8.4 0 0
8.44 0 0
8.48 0 0
8.52 0 0
8.56 0 0
8.6 0 0
8.64 0 0
8.68 0 0
8.72 0 0
8.76 0 0
8.8 0 0
8.84 0 0
8.88 0 0
8.92 0 0
8.96 0 0
9 0 0
9.04 0 0
9.08 0 0
9.12 0 0
9.16 0 0
9.2 0 0
9.24 0 0
9.28 0 0
9.32 0 0
9.36 0 0
9.4 0 0
9.44 0 0
9.48 0 0
9.52 0 0
9.56 0 0
9.6 0 0
9.64 0 0
9.68 0 0
9.72 0 0
9.76 0 0
9.8 0 0
9.84 0 0
9.88 0 0
9.92 0 0
9.96 0 0
10 0 0
10.04 0 0
10.08 0 0
10.12 0 0
10.16 0 0
10.2 0 0
10.24 0 0
10.28 0 0
10.32 0 0
10.36 0 0
10.4 0 0
10.44 0 0
10.48 0 0
10.52 0 0
10.56 0 0
10.6 0 0
10.64 0 0
10.68 0 0
10.72 0 0
10.76 0 0
10.8 0 0
10.84 0 0
10.88 0 0
10.92 0 0
10.96 0 0
11 0 0
11.04 0 0
11.08 0 0
11.12 0 0
11.16 0 0
11.2 0 0
11.24 0 0
11.28 0 0
11.32 0 0
11.36 0 0
11.4 0 0
11.44 0 0
11.48 0 0
11.52 0 0
11.56 0 0
11.6 0 0
11.64 0 0
11.68 0 0
11.72 0 0
11.76 0 0
11.8 0 0
11.84 0 0
11.88 0 0
11.92 0 0
11.96 0 0
12 0 0
12.04 0 0
12.08 0 0
12.12 0 0
12.16 0 0
12.2 0 0
12.24 0 0
12.28 0 0
12.32 0 0
12.36 0 0
12.4 0 0
12.44 0 0
12.48 0 0
12.52 0 0
12.56 0 0
12.6 0 0
12.64 0 0
12.68 0 0
12.72 0 0
12.76 0 0
12.8 0 0
12.84 0 0
12.88 0 0
12.92 0 0
12.96 0 0
13 0 0
13.04 0 0
13.08 0 0
13.12 0 0
13.16 0 0
13.2 0 0
13.24 0 0
13.28 0 0
13.32 0 0
13.36 0 0
13.4 0 0
13.44 0 0
13.48 0 0
13.52 0 0
13.56 0 0
13.6 0 0
13.64 0 0
13.68 0 0
13.72 0 0
13.76 0 0
13.8 0 0
13.84 0 0
13.88 0 0
13.92 0 0
13.96 0 0
14 0 0
14.04 0 0
14.08 0 0
14.12 0 0
14.16 0 0
14.2 0 0
14.24 0 0
14.28 0 0
14.32 0 0
14.36 0 0
14.4 0 0
14.44 0 0
14.48 0 0
14.52 0 0
14.56 0 0
14.6 0 0
14.64 0 0
14.68 0 0
14.72 0 0
14.76 0 0
14.8 0 0
14.84 0 0
14.88 0 0
14.92 0 0
14.96 0 0
15 0 0
15.04 0 0
15.08 0 0
15.12 0 0
15.16 0 0
15.2 0 0
15.24 0 0
15.28 0 0
15.32 0 0
15.36 0 0
15.4 0 0
15.44 0 0
15.48 0 0
15.52 0 0
15.56 0 0
15.6 0 0
15.64 0 0
15.68 0 0
15.72 0 0
15.76 0 0
15.8 0 0
15.84 0 0
15.88 0 0
15.92 0 0
15.96 0 0
16 0 0
16.04 0 0
16.08 0 0
16.12 0 0
16.16 0 0
16.2 0 0
16.24 0 0
16.28 0 0
16.32 0 0
16.36 0 0
16.4 0 0
16.44 0 0
16.48 0 0
16.52 0 0
16.56 0 0
16.6 0 0
16.64 0 0
16.68 0 0
16.72 0 0
16.76 0 0
16.8 0 0
16.84 0 0
16.88 0 0
16.92 0 0
16.96 0 0
17 0 0
17.04 0 0
17.08 0 0
17.12 0 0
17.16 0 0
17.2 0 0
17.24 0 0
17.28 0 0
17.32 0 0
17.36 0 0
17.4 0 0
17.44 0 0
17.48 0 0
17.52 0 0
17.56 0 0
17.6 0 0
17.64 0 0
17.68 0 0
17.72 0 0
17.76 0 0
17.8 0 0
17.84 0 0
17.88 0 0
17.92 0 0
17.96 0 0
18 0 0
18.04 0 0
18.08 0 0
18.12 0 0
18.16 0 0
18.2 0 0
18.24 0 0
18.28 0 0
18.32 0 0
18.36 0 0
18.4 0 0
18.44 0 0
18.48 0 0
18.52 0 0
18.56 0 0
18.6 0 0
18.64 0 0
18.68 0 0
18.72 0 0
18.76 0 0
18.8 0 0
18.84 0 0
18.88 0 0
18.92 0 0
18.96 0 0
19 0 0
19.04 0 0
19.08 0 0
19.12 0 0
19.16 0 0
19.2 0 0
19.24 0 0
19.28 0 0
19.32 0 0
19.36 0 0
19.4 0 0
19.44 0 0
19.48 0 0
19.52 0 0
19.56 0 0
19.6 0 0
19.64 0 0
19.68 0 0
19.72 0 0
19.76 0 0
19.8 0 0
19.84 0 0
19.88 0 0
19.92 0 0
19.96 0 0
20 0 0
20.04 0 0
20.08 0 0
20.12 0 0
20.16 0 0
20.2 0 0
20.24 0 0
20.28 0 0
20.32 0 0
20.36 0 0
20.4 0 0
20.44 0 0
20.48 0 0
20.52 0 0
20.56 0 0
20.6 0 0
20.64 0 0
20.68 0 0
20.72 0 0
20.76 0 0
20.8 0 0
20.84 0 0
20.88 0 0
20.92 0 0
20.96 0 0
21 0 0
21.04 0 0
21.08 0 0
21.12 0 0
21.16 0 0
21.2 0 0
21.24 0 0
21.28 0 0
21.32 0 0
21.36 0 0
21.4 0 0
21.44 0 0
21.48 0 0
21.52 0 0
21.56 0 0
21.6 0 0
21.64 0 0
21.68 0 0
21.72 0 0
21.76 0 0
21.8 0 0
21.84 0 0
21.88 0 0
21.92 0 0
21.96 0 0
22 0 0
22.04 0 0
22.08 0 0
22.12 0 0
22.16 0 0
22.2 0 0
22.24 0 0
22.28 0 0
22.32 0 0
22.36 0 0
22.4 0 0
22.44 0 0
22.48 0 0
22.52 0 0
22.56 0 0
22.6 0 0
22.64 0 0
22.68 0 0
22.72 0 0
22.76 0 0
22.8 0 0
22.84 0 0
22.88 0 0
22.92 0 0
22.96 0 0
23 0 0
23.04 0 0
23.08 0 0
23.12 0 0
23.16 0 0
23.2 0 0
23.24 0 0
23.28 0 0
23.32 0 0
23.36 0 0
23.4 0 0
23.44 0 0
23.48 0 0
23.52 0 0
23.56 0 0
23.6 0 0
23.64 0 0
23.68 0 0
23.72 0 0
23.76 0 0
23.8 0 0
23.84 0 0
23.88 0 0
23.92 0 0
23.96 0 0
24 0 0
24.04 0 0
24.08 0 0
24.12 0 0
24.16 0 0
24.2 0 0
24.24 0 0
24.28 0 0
24.32 0 0
24.36 0 0
24.4 0 0
24.44 0 0
24.48 0 0
24.52 0 0
24.56 0 0
24.6 0 0
24.64 0 0
24.68 0 0
24.72 0 0
24.76 0 0
24.8 0 0
24.84 0 0
24.88 0 0
24.92 0 0
24.96 0 0
25 0 0
25.04 0 0
25.08 0 0
25.12 0 0
25.16 0 0
25.2 0 0
25.24 0 0
25.28 0 0
25.32 0 0
25.36 0 0
25.4 0 0
25.44 0 0
25.48 0 0
25.52 0 0
25.56 0 0
25.6 0 0
25.64 0 0
25.68 0 0
25.72 0 0
25.76 0 0
25.8 0 0
25.84 0 0
25.88 0 0
25.92 0 0
25.96 0 0
26 0 0
26.04 0 0
26.08 0 0
26.12 0 0
26.16 0 0
26.2 0 0
26.24 0 0
26.28 0 0
26.32 0 0
26.36 0 0
26.4 0 0
26.44 0 0
26.48 0 0
26.52 0 0
26.56 0 0
26.6 0 0
26.64 0 0
26.68 0 0
26.72 0 0
26.76 0 0
26.8 0 0
26.84 0 0
26.88 0 0
26.92 0 0
26.96 0 0
27 0 0
27.04 0 0
27.08 0 0
27.12 0 0
27.16 0 0
27.2 0 0
27.24 0 0
27.28 0 0
27.32 0 0
27.36 0 0
27.4 0 0
27.44 0 0
27.48 0 0
27.52 0 0
27.56 0 0
27.6 0 0
27.64 0 0
27.68 0 0
27.72 0 0
27.76 0 0
27.8 0 0
27.84 0 0
27.88 0 0
27.92 0 0
27.96 0 0
28 0 0
28.04 0 0
28.08 0 0
28.12 0 0
28.16 0 0
28.2 0 0
28.24 0 0
28.28 0 0
28.32 0 0
28.36 0 0
28.4 0 0
28.44 0 0
28.48 0 0
28.52 0 0
28.56 0 0
28.6 0 0
28.64 0 0
28.68 0 0
28.72 0 0
28.76 0 0
28.8 0 0
28.84 0 0
28.88 0 0
28.92 0 0
28.96 0 0
29 0 0
29.04 0 0
29.08 0 0
29.12 0 0
29.16 0 0
29.2 0 0
29.24 0 0
29.28 0 0
29.32 0 0
29.36 0 0
29.4 0 0
29.44 0 0
29.48 0 0
29.52 0 0
29.56 0 0
29.6 0 0
29.64 0 0
29.68 0 0
29.72 0 0
29.76 0 0
29.8 0 0
29.84 0 0
29.88 0 0
29.92 0 0
29.96 0 0
30 0 0
30.04 0 0
30.08 0 0
30.12 0 0
30.16 0 0
30.2 0 0
30.24 0 0
30.28 0 0
30.32 0 0
30.36 0 0
30.4 0 0
30.44 0 0
30.48 0 0
30.52 0 0
30.56 0 0
30.6 0 0
30.64 0 0
30.68 0 0
30.72 0 0
30.76 0 0
30.8 0 0
30.84 0 0
30.88 0 0
30.92 0 0
30.96 0 0
31 0 0
31.04 0 0
31.08 0 0
31.12 0 0
31.16 0 0
31.2 0 0
31.24 0 0
31.28 0 0
31.32 0 0
31.36 0 0
31.4 0 0
31.44 0 0
31.48 0 0
31.52 0 0
31.56 0 0
31.6 0 0
31.64 0 0
31.68 0 0
31.72 0 0
31.76 0 0
31.8 0 0
31.84 0 0
31.88 0 0
31.92 0 0
31.96 0 0
0 0.005 0
0.04 0.005 0
0.08 0.005 0
0.12 0.005 0
0.16 0.005 0
0.2 0.005 0
0.24 0.005 0
0.28 0.005 0
0.32 0.005 0
0.36 0.005 0
0.4 0.005 0
0.44 0.005 0
0.48 0.005 0
0.52 0.005 0
0.56 0.005 0
0.6 0.005 0
0.64 0.005 0
0.68 0.005 0
0.72 0.005 0
0.76 0.005 0
0.8 0.005 0
0.84 0.005 0
0.88 0.005 0
0.92 0.005 0
0.96 0.005 0
1 0.005 0
1.04 0.005 0
1.08 0.005 0
1.12 0.005 0
1.16 0.005 0
1.2 0.005 0
1.24 0.005 0
1.28 0.005 0
1.32 0.005 0
1.36 0.005 0
1.4 0.005 0
1.44 0.005 0
1.48 0.005 0
1.52 0.005 0
1.56 0.005 0
1.6 0.005 0
1.64 0.005 0
1.68 0.005 0
1.72 0.005 0
1.76 0.005 0
1.8 0.005 0
1.84 0.005 0
1.88 0.005 0
1.92 0.005 0
1.96 0.005 0
2 0.005 0
2.04 0.005 0
2.08 0.005 0
2.12 0.005 0
2.16 0.005 0
2.2 0.005 0
2.24 0.005 0
2.28 0.005 0
2.32 0.005 0
2.36 0.005 0
2.4 0.005 0
2.44 0.005 0
2.48 0.005 0
2.52 0.005 0
2.56 0.005 0
2.6 0.005 0
2.64 0.005 0
2.68 0.005 0
2.72 0.005 0
2.76 0.005 0
2.8 0.005 0
2.84 0.005 0
2.88 0.005 0
2.92 0.005 0
2.96 0.005 0
3 0.005 0
3.04 0.005 0
3.08 0.005 0
3.12 0.005 0
3.16 0.005 0
3.2 0.005 0
3.24 0.005 0
3.28 0.005 0
3.32 0.005 0
3.36 0.005 0
3.4 0.005 0
3.44 0.005 0
3.48 0.005 0
3.52 0.005 0
3.56 0.005 0
3.6 0.005 0
3.64 0.005 0
3.68 0.005 0
3.72 0.005 0
3.76 0.005 0
3.8 0.005 0
3.84 0.005 0
3.88 0.005 0
3.92 0.005 0
3.96 0.005 0
4 0.005 0
4.04 0.005 0
4.08 0.005 0
4.12 0.005 0
4.16 0.005 0
4.2 0.005 0
4.24 0.005 0
4.28 0.005 0
4.32 0.005 0
4.36 0.005 0
4.4 0.005 0
4.44 0.005 0
4.48 0.005 0
4.52 0.005 0
4.56 0.005 0
4.6 0.005 0
4.64 0.005 0
4.68 0.005 0
4.72 0.005 0
4.76 0.005 0
4.8 0.005 0
4.84 0.005 0
4.88 0.005 0
4.92 0.005 0
4.96 0.005 0
5 0.005 0
5.04 0.005 0
5.08 0.005 0
5.12 0.005 0
5.16 0.005 0
5.2 0.005 0
5.24 0.005 0
5.28 0.005 0
5.32 0.005 0
5.36 0.005 0
5.4 0.005 0
5.44 0.005 0
5.48 0.005 0
5.52 0.005 0
5.56 0.005 0
5.6 0.005 0
5.64 0.005 0
5.68 0.005 0
5.72 0.005 0
5.76 0.005 0
5.8 0.005 0
5.84 0.005 0
5.88 0.005 0
5.92 0.005 0
5.96 0.005 0
6 0.005 0
6.04 0.005 0
6.08 0.005 0
6.12 0.005 0
6.16 0.005 0
6.2 0.005 0
6.24 0.005 0
6.28 0.005 0
6.32 0.005 0
6.36 0.005 0
6.4 0.005 0
6.44 0.005 0
6.48 0.005 0
6.52 0.005 0
6.56 0.005 0
6.6 0.005 0
6.64 0.005 0
6.68 0.005 0
6.72 0.005 0
6.76 0.005 0
6.8 0.005 0
6.84 0.005 0
6.88 0.005 0
6.92 0.005 0
6.96 0.005 0
7 0.005 0
7.04 0.005 0
7.08 0.005 0
7.12 0.005 0
7.16 0.005 0
7.2 0.005 0
7.24 0.005 0
7.28 0.005 0
7.32 0.005 0
7.36 0.005 0
7.4 0.005 0
[...]
POINT_DATA 160000

SCALARS phi float 1
LOOKUP_TABLE default
1
1
1
1
1
1
1
1
1
1
1
1
1
1
1
1
1
1
1
1
1
1
1
1
1
1
1
1
1
1
1
1
1
1
1
0.999999
0.999999
0.999999
0.999999
0.999998
0.999997
0.999997
0.999995
0.999994
0.999992
0.99999
0.999988
0.999985
0.999982
0.999978
0.999973
0.999968
0.999961
0.999954
0.999946
0.999937
0.999926
0.999914
0.999901
0.999886
0.999869
0.999851
0.99983
0.999808
0.999783
0.999755
0.999724
0.99969
0.999652
0.999611
0.999564
0.999512
0.999454
0.99939
0.999317
0.999235
0.999143
0.999039
0.998921
0.998787
0.998636
0.998465
0.998272
0.998053
0.997806
0.997528
0.997216
0.996865
0.996472
0.996033
0.995545
0.995003
0.994404
0.993742
0.993014
0.992216
0.991343
0.990391
0.989357
0.988236
0.987024
0.985718
0.984314
0.982809
0.981201
0.979485
0.977659
0.975722
0.97367
0.971502
0.969217
0.966813
0.964288
0.961642
0.958875
0.955986
0.952975
0.949843
0.946588
0.943214
0.939719
0.936106
0.932375
0.928527
0.924566
0.920492
0.916307
0.912013
0.907613
0.903109
0.898502
0.893797
0.888995
0.8841
0.879113
0.874037
0.868876
0.863633
0.85831
0.85291
0.847436
0.841891
0.836278
0.830601
0.824861
0.819062
0.813207
0.807299
0.80134
0.795334
0.789283
0.783189
0.777057
0.770887
0.764684
0.758448
0.752184
0.745893
0.739578
0.733241
0.726885
0.720512
0.714123
0.707721
0.701309
0.694888
0.68846
0.682027
0.675591
0.669154
0.662717
0.656282
0.649852
0.643427
0.637009
0.630599
0.624199
0.617811
0.611436
0.605074
0.598728
0.592398
0.586086
0.579793
0.57352
0.567267
0.561037
0.554829
0.548645
0.542486
0.536352
0.530245
0.524164
0.518112
0.512088
0.506093
0.500128
0.494194
0.48829
0.482419
0.476579
0.470772
0.464998
0.459258
0.453552
0.44788
0.442243
0.436641
0.431074
0.425543
0.420049
0.41459
0.409168
0.403783
0.398435
0.393125
0.387851
0.382615
0.377417
0.372257
0.367135
0.36205
0.357004
0.351996
0.347027
0.342095
0.337203
0.332348
0.327532
0.322755
0.318016
0.313315
0.308653
0.304029
0.299443
0.294896
0.290387
0.285917
0.281484
0.27709
0.272733
0.268415
0.264134
0.259892
0.255686
0.251519
0.247388
0.243296
0.23924
0.235222
0.23124
0.227296
0.223388
0.219517
0.215683
0.211885
0.208124
0.204399
0.20071
0.197056
0.193439
0.189858
0.186312
0.182802
0.179328
0.175888
0.172485
0.169116
0.165782
0.162484
0.15922
0.155991
0.152797
0.149637
0.146513
0.143422
0.140366
0.137345
0.134358
0.131405
0.128487
0.125602
0.122752
0.119936
0.117155
0.114407
0.111693
0.109014
0.106368
0.103756
0.101179
0.0986353
0.0961257
0.0936502
0.0912087
0.0888012
0.0864277
0.0840882
0.0817828
0.0795115
0.0772742
0.0750711
0.072902
0.0707671
0.0686663
0.0665996
0.0645672
0.0625689
0.0606048
0.0586749
0.0567792
0.0549177
0.0530905
0.0512975
0.0495387
0.047814
0.0461236
0.0444673
0.0428452
0.0412572
0.0397033
0.0381833
0.0366974
0.0352454
0.0338272
0.0324428
0.031092
0.0297749
0.0284912
0.0272409
0.0260238
0.0248398
0.0236887
0.0225705
0.0214848
0.0204316
0.0194106
0.0184216
0.0174644
0.0165387
0.0156442
0.0147808
0.013948
0.0131457
0.0123734
0.0116309
0.0109177
0.0102335
0.00957791
0.00895051
0.00835086
0.00777852
0.00723301
0.00671384
0.0062205
0.00575247
0.0053092
0.00489011
0.00449462
0.00412212
0.00377198
0.00344356
0.00313618
0.00284915
0.00258178
0.00233334
0.00210308
0.00189026
0.0016941
0.00151384
0.00134867
0.00119781
0.00106046
0.000935822
0.000823109
0.000721534
0.000630326
0.000548725
0.000475994
0.000411416
0.0003543
0.000303984
0.000259836
0.000221258
0.000187686
0.000158592
0.000133485
0.000111912
9.34534e-05
7.77285e-05
6.43904e-05
5.31263e-05
4.36554e-05
3.57272e-05
2.91197e-05
2.36373e-05
1.91085e-05
1.5384e-05
1.23347e-05
9.8491e-06
7.83207e-06
6.2025e-06
4.8918e-06
3.84222e-06
3.00545e-06
2.34127e-06
1.81641e-06
1.40345e-06
1.07995e-06
8.27633e-07
6.31692e-07
4.80187e-07
3.63544e-07
2.74125e-07
2.0587e-07
1.53991e-07
1.14726e-07
8.51322e-08
6.29219e-08
4.63223e-08
3.39677e-08
2.48105e-08
1.80512e-08
1.30822e-08
9.44433e-09
6.79173e-09
4.86538e-09
3.47206e-09
2.4683e-09
1.74806e-09
1.2333e-09
8.66853e-10
6.07001e-10
4.23456e-10
2.94314e-10
2.038e-10
1.40602e-10
9.66463e-11
6.61895e-11
4.51659e-11
3.07084e-11
2.08035e-11
1.40428e-11
9.44532e-12
6.33042e-12
4.22773e-12
2.81351e-12
1.86579e-12
1.23298e-12
8.11962e-13
5.32855e-13
3.48483e-13
2.27122e-13
1.4752e-13
9.54908e-14
6.16024e-14
3.96064e-14
2.53788e-14
1.62077e-14
1.03163e-14
6.54457e-15
4.13812e-15
2.60791e-15
1.63817e-15
1.02566e-15
6.40088e-16
3.98168e-16
2.46884e-16
1.52589e-16
9.40078e-17
5.77326e-17
3.53427e-17
2.15678e-17
1.31204e-17
7.95653e-18
4.81e-18
2.89879e-18
1.74158e-18
1.04311e-18
6.22845e-19
3.70768e-19
2.20039e-19
1.3019e-19
7.6797e-20
4.51648e-20
2.64821e-20
1.54813e-20
9.02331e-21
5.24369e-21
3.03825e-21
1.75522e-21
1.01103e-21
5.80666e-22
3.32525e-22
1.89872e-22
1.08104e-22
6.13724e-23
3.47422e-23
1.96109e-23
1.10383e-23
6.19544e-24
3.46748e-24
1.93522e-24
1.07703e-24
5.97734e-25
3.30809e-25
1.82574e-25
1.00484e-25
5.51513e-26
3.0187e-26
1.64775e-26
8.96971e-27
4.86947e-27
2.63637e-27
1.42349e-27
7.66539e-28
4.11667e-28
2.20492e-28
1.17783e-28
6.27503e-29
3.33424e-29
1.76697e-29
9.33939e-30
4.92342e-30
2.58868e-30
1.35755e-30
7.10073e-31
3.70446e-31
1.92763e-31
1.00047e-31
5.17926e-32
2.67436e-32
1.37741e-32
7.07623e-33
3.62608e-33
1.85343e-33
9.4497e-34
4.80584e-34
2.43798e-34
1.2337e-34
6.22734e-35
3.13559e-35
1.57492e-35
7.89092e-36
3.9439e-36
1.96634e-36
9.77978e-37
4.8522e-37
2.40155e-37
1.18575e-37
5.84037e-38
2.86973e-38
1.40669e-38
6.8788e-39
3.35574e-39
1.63316e-39
7.92931e-40
3.84072e-40
1.85593e-40
8.94722e-41
4.3032e-41
2.0648e-41
9.88432e-42
4.72067e-42
2.24931e-42
1.06927e-42
5.07133e-43
2.39968e-43
1.13289e-43
5.33607e-44
2.50763e-44
1.17574e-44
5.50014e-45
2.56714e-45
1.19547e-45
5.55457e-46
2.57503e-46
1.19107e-46
5.49693e-47
2.53123e-47
1.16299e-47
5.33153e-48
2.43874e-48
1.11306e-48
5.06888e-49
2.3033e-49
1.04432e-49
4.72462e-50
2.13281e-50
9.60702e-51
4.31799e-51
1.93657e-51
8.66652e-52
3.87007e-52
1.72448e-52
7.66771e-53
3.40206e-53
1.50623e-53
6.65446e-54
2.93367e-54
1.29059e-54
5.66562e-55
2.48192e-55
1.08496e-55
4.73291e-56
2.0603e-56
8.95006e-57
3.87985e-57
1.67841e-57
7.24572e-58
3.1215e-58
1.34199e-58
5.75755e-59
2.46509e-59
1.05326e-59
4.49108e-60
1.91108e-60
8.11557e-61
3.43936e-61
1.45463e-61
6.13974e-62
2.58624e-62
1.08721e-62
4.56125e-63
1.90977e-63
7.98015e-64
3.32792e-64
1.38506e-64
5.75306e-65
2.38489e-65
9.86683e-66
4.07407e-66
1.67889e-66
6.905e-67
2.83433e-67
1.16115e-67
4.74761e-68
1.93738e-68
7.89062e-69
3.20747e-69
1.30128e-69
5.26917e-70
2.12948e-70
8.58953e-71
3.45804e-71
1.3895e-71
5.57256e-72
2.2306e-72
8.91172e-73
3.55365e-73
1.41437e-73
5.61864e-74
2.22781e-74
8.81666e-75
3.48268e-75
1.37312e-75
5.40364e-76
2.12253e-76
8.32166e-77
3.25654e-77
1.27203e-77
4.9594e-78
1.93001e-78
7.49696e-79
2.90677e-79
1.12496e-79
4.34574e-80
1.6757e-80
6.44959e-81
2.47786e-81
9.50228e-82
3.63739e-82
1.38983e-82
5.3009e-83
2.01814e-83
7.6695e-84
2.90939e-84
1.10168e-84
4.16418e-85
1.57118e-85
5.9176e-86
2.2248e-86
8.34953e-87
3.12796e-87
1.16974e-87
4.36667e-88
1.62721e-88
6.05297e-89
2.24766e-89
8.33159e-90
3.08294e-90
1.13878e-90
4.19911e-91
1.54567e-91
5.67962e-92
2.08337e-92
7.6289e-93
2.78872e-93
1.01765e-93
3.70715e-94
1.34814e-94
4.89422e-95
1.77373e-95
6.4172e-96
2.31773e-96
8.35677e-97
3.00798e-97
1.08087e-97
3.87732e-98
1.38853e-98
4.96417e-99
1.77175e-99
6.31289e-100
2.24555e-100
7.9742e-101
2.82699e-101
1.00054e-101
3.53524e-102
1.24704e-102
4.39154e-103
1.54395e-103
5.41911e-104
1.89891e-104
6.64298e-105
2.32009e-105
8.08967e-106
2.81607e-106
9.78683e-107
3.3957e-107
1.17627e-107
4.06793e-108
1.40454e-108
4.84156e-109
1.66622e-109
5.72499e-110
1.96387e-110
6.7259e-111
2.29978e-111
7.85095e-112
2.67584e-112
9.10541e-113
3.09345e-113
1.04928e-113
3.55342e-114
1.20146e-114
4.05582e-115
1.36697e-115
4.5999e-116
1.54543e-116
5.184e-117
1.73618e-117
5.80548e-118
1.9382e-118
6.46064e-119
2.15017e-119
7.14476e-120
2.37041e-120
7.85203e-121
2.59694e-121
8.57566e-122
2.82746e-122
9.30793e-123
3.0594e-123
1.00403e-123
3.28994e-124
1.07636e-124
3.5161e-125
1.14682e-125
3.73478e-126
1.21442e-126
3.94282e-127
1.27815e-127
4.1371e-128
1.33705e-128
4.31459e-129
1.39018e-129
4.47246e-130
1.43669e-130
4.60813e-131
1.47581e-131
4.71934e-132
1.50688e-132
4.80426e-133
1.5294e-133
4.86144e-134
1.54298e-134
4.88997e-135
1.54741e-135
4.88941e-136
1.54263e-136
4.85984e-137
1.52875e-137
4.80183e-138
1.50603e-138
4.71645e-139
1.47488e-139
4.60471e-140
1.43835e-140
4.38447e-141
4.38447e-141
1
1
1
1
1
1
1
1
1
1
1
1
1
1
1
1
1
1
1
1
1
1
1
1
1
1
1
1
1
1
1
1
1
1
1
0.999999
0.999999
0.999999
0.999999
0.999998
0.999997
0.999997
0.999995
0.999994
0.999992
0.99999
0.999988
0.999985
0.999982
0.999978
0.999973
0.999968
0.999961
0.999954
0.999946
0.999937
0.999926
0.999914
0.999901
0.999886
0.999869
0.999851
0.99983
0.999808
0.999783
0.999755
0.999724
0.99969
0.999652
0.999611
0.999564
0.999512
0.999454
0.99939
0.999317
0.999235
0.999143
0.999039
0.998921
0.998787
0.998636
0.998465
0.998272
0.998053
0.997806
0.997528
0.997216
0.996865
0.996472
0.996033
0.995545
0.995003
0.994404
0.993742
0.993014
0.992216
0.991343
0.990391
0.989357
0.988236
0.987024
0.985718
0.984314
0.982809
0.981201
0.979485
0.977659
0.975722
0.97367
0.971502
0.969217
0.966813
0.964288
0.961642
0.958875
0.955986
0.952975
0.949843
0.946588
0.943214
0.939719
0.936106
0.932375
0.928527
0.924566
0.920492
0.916307
0.912013
0.907613
0.903109
0.898502
0.893797
0.888995
0.8841
0.879113
0.874037
0.868876
0.863633
0.85831
0.85291
0.847436
0.841891
0.836278
0.830601
0.824861
0.819062
0.813207
0.807299
0.80134
0.795334
0.789283
0.783189
0.777057
0.770887
0.764684
0.758448
0.752184
0.745893
0.739578
0.733241
0.726885
0.720512
0.714123
0.707721
0.701309
0.694888
0.68846
0.682027
0.675591
0.669154
0.662717
0.656282
0.649852
0.643427
0.637009
0.630599
0.624199
0.617811
0.611436
0.605074
0.598728
0.592398
0.586086
0.579793
0.57352
0.567267
0.561037
0.554829
0.548645
0.542486
0.536352
0.530245
0.524164
0.518112
0.512088
0.506093
0.500128
0.494194
0.48829
0.482419
0.476579
0.470772
0.464998
0.459258
0.453552
0.44788
0.442243
0.436641
0.431074
0.425543
0.420049
0.41459
0.409168
0.403783
0.398435
0.393125
0.387851
0.382615
0.377417
0.372257
0.367135
0.36205
0.357004
0.351996
0.347027
0.342095
0.337203
0.332348
0.327532
0.322755
0.318016
0.313315
0.308653
0.304029
0.299443
0.294896
0.290387
0.285917
0.281484
0.27709
0.272733
0.268415
0.264134
0.259892
0.255686
0.251519
0.247388
0.243296
0.23924
0.235222
0.23124
0.227296
0.223388
0.219517
0.215683
0.211885
0.208124
0.204399
0.20071
0.197056
0.193439
0.189858
0.186312
0.182802
0.179328
0.175888
0.172485
0.169116
0.165782
0.162484
0.15922
0.155991
0.152797
0.149637
0.146513
0.143422
0.140366
0.137345
0.134358
0.131405
0.128487
0.125602
0.122752
0.119936
0.117155
0.114407
0.111693
0.109014
0.106368
0.103756
0.101179
0.0986353
0.0961257
0.0936502
0.0912087
0.0888012
0.0864277
0.0840882
0.0817828
0.0795115
0.0772742
0.0750711
0.072902
0.0707671
0.0686663
0.0665996
0.0645672
0.0625689
0.0606048
0.0586749
0.0567792
0.0549177
0.0530905
0.0512975
0.0495387
0.047814
0.0461236
0.0444673
0.0428452
0.0412572
0.0397033
0.0381833
0.0366974
0.0352454
0.0338272
0.0324428
0.031092
0.0297749
0.0284912
0.0272409
0.0260238
0.0248398
0.0236887
0.0225705
0.0214848
0.0204316
0.0194106
0.0184216
0.0174644
0.0165387
0.0156442
0.0147808
0.013948
0.0131457
0.0123734
0.0116309
0.0109177
0.0102335
0.00957791
0.00895051
0.00835086
0.00777852
0.00723301
0.00671384
0.0062205
0.00575247
0.0053092
0.00489011
0.00449462
0.00412212
0.00377198
0.00344356
0.00313618
0.00284915
0.00258178
0.00233334
0.00210308
0.00189026
0.0016941
0.00151384
0.00134867
0.00119781
0.00106046
0.000935822
0.000823109
0.000721534
0.000630326
0.000548725
0.000475994
0.000411416
0.0003543
0.000303984
0.000259836
0.000221258
0.000187686
0.000158592
0.000133485
0.000111912
9.34534e-05
7.77285e-05
6.43904e-05
5.31263e-05
4.36554e-05
3.57272e-05
2.91197e-05
2.36373e-05
1.91085e-05
1.5384e-05
1.23347e-05
9.8491e-06
7.83207e-06
6.2025e-06
4.8918e-06
3.84222e-06
3.00545e-06
2.34127e-06
1.81641e-06
1.40345e-06
1.07995e-06
8.27633e-07
6.31692e-07
4.80187e-07
3.63544e-07
2.74125e-07
2.0587e-07
1.53991e-07
1.14726e-07
8.51322e-08
6.29219e-08
4.63223e-08
3.39677e-08
2.48105e-08
1.80512e-08
1.30822e-08
9.44433e-09
6.79173e-09
4.86538e-09
3.47206e-09
2.4683e-09
1.74806e-09
1.2333e-09
8.66853e-10
6.07001e-10
4.23456e-10
2.94314e-10
2.038e-10
1.40602e-10
9.66463e-11
6.61895e-11
4.51659e-11
3.07084e-11
2.08035e-11
1.40428e-11
9.44532e-12
6.33042e-12
4.22773e-12
2.81351e-12
1.86579e-12
1.23298e-12
8.11962e-13
5.32855e-13
3.48483e-13
2.27122e-13
1.4752e-13
9.54908e-14
6.16024e-14
3.96064e-14
2.53788e-14
1.62077e-14
1.03163e-14
6.54457e-15
4.13812e-15
2.60791e-15
1.63817e-15
1.02566e-15
6.40088e-16
3.98168e-16
2.46884e-16
1.52589e-16
9.40078e-17
5.77326e-17
3.53427e-17
2.15678e-17
1.31204e-17
7.95653e-18
4.81e-18
2.89879e-18
1.74158e-18
1.04311e-18
6.22845e-19
3.70768e-19
2.20039e-19
1.3019e-19
7.6797e-20
4.51648e-20
2.64821e-20
1.54813e-20
9.02331e-21
5.24369e-21
3.03825e-21
1.75522e-21
1.01103e-21
5.80666e-22
3.32525e-22
1.89872e-22
1.08104e-22
6.13724e-23
3.47422e-23
1.96109e-23
1.10383e-23
6.19544e-24
3.46748e-24
1.93522e-24
1.07703e-24
5.97734e-25
3.30809e-25
1.82574e-25
1.00484e-25
5.51513e-26
3.0187e-26
1.64775e-26
8.96971e-27
4.86947e-27
2.63637e-27
1.42349e-27
7.66539e-28
4.11667e-28
2.20492e-28
1.17783e-28
6.27503e-29
3.33424e-29
1.76697e-29
9.33939e-30
4.92342e-30
2.58868e-30
1.35755e-30
7.10073e-31
3.70446e-31
1.92763e-31
1.00047e-31
5.17926e-32
2.67436e-32
1.37741e-32
7.07623e-33
3.62608e-33
1.85343e-33
9.4497e-34
4.80584e-34
2.43798e-34
1.2337e-34
6.22734e-35
3.13559e-35
1.57492e-35
7.89092e-36
3.9439e-36
1.96634e-36
9.77978e-37
4.8522e-37
2.40155e-37
1.18575e-37
5.84037e-38
2.86973e-38
1.40669e-38
6.8788e-39
3.35574e-39
1.63316e-39
7.92931e-40
3.84072e-40
1.85593e-40
8.94722e-41
4.3032e-41
2.0648e-41
9.88432e-42
4.72067e-42
2.24931e-42
1.06927e-42
5.07133e-43
2.39968e-43
1.13289e-43
5.33607e-44
2.50763e-44
1.17574e-44
5.50014e-45
2.56714e-45
1.19547e-45
5.55457e-46
2.57503e-46
1.19107e-46
5.49693e-47
2.53123e-47
1.16299e-47
5.33153e-48
2.43874e-48
1.11306e-48
5.06888e-49
2.3033e-49
1.04432e-49
4.72462e-50
2.13281e-50
9.60702e-51
4.31799e-51
1.93657e-51
8.66652e-52
3.87007e-52
1.72448e-52
7.66771e-53
3.40206e-53
1.50623e-53
6.65446e-54
2.93367e-54
1.29059e-54
5.66562e-55
2.48192e-55
1.08496e-55
4.73291e-56
2.0603e-56
8.95006e-57
3.87985e-57
1.67841e-57
7.24572e-58
3.1215e-58
1.34199e-58
5.75755e-59
2.46509e-59
1.05326e-59
4.49108e-60
1.91108e-60
8.11557e-61
3.43936e-61
1.45463e-61
6.13974e-62
2.58624e-62
1.08721e-62
4.56125e-63
1.90977e-63
7.98015e-64
3.32792e-64
1.38506e-64
5.75306e-65
2.38489e-65
9.86683e-66
4.07407e-66
1.67889e-66
6.905e-67
2.83433e-67
1.16115e-67
4.74761e-68
1.93738e-68
7.89062e-69
3.20747e-69
1.30128e-69
5.26917e-70
2.12948e-70
8.58953e-71
3.45804e-71
1.3895e-71
5.57256e-72
2.2306e-72
8.91172e-73
3.55365e-73
1.41437e-73
5.61864e-74
2.22781e-74
8.81666e-75
3.48268e-75
1.37312e-75
5.40364e-76
2.12253e-76
8.32166e-77
3.25654e-77
1.27203e-77
4.9594e-78
1.93001e-78
7.49696e-79
2.90677e-79
1.12496e-79
4.34574e-80
1.6757e-80
6.44959e-81
2.47786e-81
9.50228e-82
3.63739e-82
1.38983e-82
5.3009e-83
2.01814e-83
7.6695e-84
2.90939e-84
1.10168e-84
4.16418e-85
1.57118e-85
5.9176e-86
2.2248e-86
8.34953e-87
3.12796e-87
1.16974e-87
4.36667e-88
1.62721e-88
6.05297e-89
2.24766e-89
8.33159e-90
3.08294e-90
1.13878e-90
4.19911e-91
1.54567e-91
5.67962e-92
2.08337e-92
7.6289e-93
2.78872e-93
1.01765e-93
3.70715e-94
1.34814e-94
4.89422e-95
1.77373e-95
6.4172e-96
2.31773e-96
8.35677e-97
3.00798e-97
1.08087e-97
3.87732e-98
1.38853e-98
4.96417e-99
1.77175e-99
6.31289e-100
2.24555e-100
7.9742e-101
2.82699e-101
1.00054e-101
3.53524e-102
1.24704e-102
4.39154e-103
1.54395e-103
5.41911e-104
1.89891e-104
6.64298e-105
2.32009e-105
8.08967e-106
2.81607e-106
9.78683e-107
3.3957e-107
1.17627e-107
4.06793e-108
1.40454e-108
4.84156e-109
1.66622e-109
5.72499e-110
1.96387e-110
6.7259e-111
2.29978e-111
7.85095e-112
2.67584e-112
9.10541e-113
3.09345e-113
1.04928e-113
3.55342e-114
1.20146e-114
4.05582e-115
1.36697e-115
4.5999e-116
1.54543e-116
5.184e-117
1.73618e-117
5.80548e-118
1.9382e-118
6.46064e-119
2.15017e-119
7.14476e-120
2.37041e-120
7.85203e-121
2.59694e-121
8.57566e-122
2.82746e-122
9.30793e-123
3.0594e-123
1.00403e-123
3.28994e-124
1.07636e-124
3.5161e-125
1.14682e-125
3.73478e-126
1.21442e-126
3.94282e-127
1.27815e-127
4.1371e-128
1.33705e-128
4.31459e-129
1.39018e-129
4.47246e-130
1.43669e-130
4.60813e-131
1.47581e-131
4.71934e-132
1.50688e-132
4.80426e-133
1.5294e-133
4.86144e-134
1.54298e-134
4.88997e-135
1.54741e-135
4.88941e-136
1.54263e-136
4.85984e-137
1.52875e-137
4.80183e-138
1.50603e-138
4.71645e-139
1.47488e-139
4.60471e-140
1.43835e-140
4.38447e-141
4.38447e-141
1
1
1
1
1
1
1
1
1
1
1
1
1
1
1
1
1
1
1
1
1
1
1
1
1
1
1
1
1
1
1
1
1
1
1
0.999999
0.999999
0.999999
0.999999
0.999998
0.999997
0.999997
0.999995
0.999994
0.999992
0.99999
0.999988
0.999985
0.999982
0.999978
0.999973
0.999968
0.999961
0.999954
0.999946
0.999937
0.999926
0.999914
0.999901
0.999886
0.999869
0.999851
0.99983
0.999808
0.999783
0.999755
0.999724
0.99969
0.999653
0.999611
0.999564
0.999513
0.999455
0.999391
0.999318
0.999237
0.999145
0.999041
0.998924
0.998791
0.998641
0.998471
0.998279
0.998062
0.997816
0.99754
0.997229
0.996881
0.996491
0.996055
0.99557
0.995032
0.994436
0.993779
0.993055
0.992262
0.991394
0.990448
0.98942
0.988305
0.9871
0.985801
0.984405
0.982908
0.981307
0.9796
0.977784
0.975855
0.973813
0.971655
0.96938
0.966986
0.964472
0.961837
0.959081
0.956204
0.953204
0.950083
0.94684
0.943478
0.939995
0.936393
0.932674
0.928839
0.92489
0.920828
0.916655
0.912373
0.907985
0.903493
0.898899
0.894205
0.889415
0.884531
0.879556
0.874492
0.869342
0.86411
0.858797
0.853408
0.847945
0.84241
0.836808
0.83114
0.82541
0.819621
0.813776
0.807877
0.801927
0.795929
0.789887
0.783802
0.777677
0.771515
0.765319
0.759092
0.752835
0.746551
0.740242
0.733912
0.727562
0.721195
0.714812
0.708416
0.702009
0.695593
0.68917
0.682742
0.676311
0.669878
0.663446
0.657015
0.650588
0.644167
0.637752
0.631346
0.62495
0.618564
0.612192
0.605833
0.599489
0.593161
0.586851
0.58056
0.574288
0.568038
0.561808
0.555602
0.549419
0.543261
0.537128
0.531021
0.524942
0.51889
0.512866
0.506871
0.500907
0.494972
0.489069
0.483197
0.477357
0.471549
0.465775
0.460034
0.454327
0.448654
0.443016
0.437413
0.431845
0.426313
0.420817
0.415357
0.409934
0.404548
0.399198
0.393885
0.38861
0.383373
0.378173
0.37301
0.367886
0.362799
0.357751
0.352741
0.347769
0.342836
0.33794
0.333084
0.328265
0.323485
0.318743
0.31404
0.309375
0.304749
0.30016
0.29561
0.291099
0.286625
0.28219
0.277792
0.273433
0.269111
0.264828
0.260582
0.256373
0.252203
0.248069
0.243973
0.239914
0.235893
0.231908
0.22796
0.224049
0.220175
0.216337
0.212536
0.208771
0.205042
0.20135
0.197693
0.194072
0.190487
0.186938
0.183424
0.179946
0.176503
0.173095
0.169723
0.166385
0.163083
0.159815
0.156582
0.153384
0.150221
0.147092
0.143998
0.140938
0.137912
0.134921
0.131964
0.129041
0.126153
0.123298
0.120478
0.117692
0.114939
0.112221
0.109537
0.106887
0.104271
0.101688
0.0991399
0.0966255
0.0941451
0.0916986
0.0892861
0.0869076
0.0845631
0.0822525
0.079976
0.0777334
0.0755249
0.0733505
0.0712101
0.0691038
0.0670316
0.0649935
0.0629896
0.0610197
0.0590841
0.0571825
0.0553152
0.053482
0.0516829
0.0499181
0.0481873
0.0464907
0.0448282
0.0431999
0.0416055
0.0400452
0.0385189
0.0370265
0.035568
0.0341433
0.0327523
0.0313949
0.0300711
0.0287808
0.0275238
0.0263
0.0251093
0.0239515
0.0228265
0.0217341
0.020674
0.0196463
0.0186505
0.0176865
0.016754
0.0158528
0.0149826
0.0141432
0.0133342
0.0125552
0.0118061
0.0110864
0.0103957
0.00973361
0.00909982
0.00849384
0.00791524
0.00736356
0.0068383
0.00633897
0.00586504
0.00541597
0.0049912
0.00459014
0.0042122
0.00385675
0.00352316
0.00321075
0.00291884
0.00264675
0.00239375
0.0021591
0.00194206
0.00174187
0.00155774
0.0013889
0.00123456
0.00109392
0.000966183
0.00085056
0.000746265
0.000652525
0.000568577