# vtk DataFile Version 2.0
FlowField
ASCII
DATASET STRUCTURED_GRID
DIMENSIONS 800 1 200
POINTS 160000 float
0 0 0
0.04 0 0
0.08 0 0
0.12 0 0
0.16 0 0
0.2 0 0
0.24 0 0
0.28 0 0
0.32 0 0
0.36 0 0
0.4 0 0
0.44 0 0
0.48 0 0
0.52 0 0
0.56 0 0
0.6 0 0
0.64 0 0
0.68 0 0
0.72 0 0
0.76 0 0
0.8 0 0
0.84 0 0
0.88 0 0
0.92 0 0
0.96 0 0
1 0 0
1.04 0 0
1.08 0 0
1.12 0 0
1.16 0 0
1.2 0 0
1.24 0 0
1.28 0 0
1.32 0 0
1.36 0 0
1.4 0 0
1.44 0 0
1.48 0 0
1.52 0 0
1.56 0 0
1.6 0 0
1.64 0 0
1.68 0 0
1.72 0 0
1.76 0 0
1.8 0 0
1.84 0 0
1.88 0 0
1.92 0 0
1.96 0 0
2 0 0
2.04 0 0
2.08 0 0
2.12 0 0
2.16 0 0
2.2 0 0
2.24 0 0
2.28 0 0
2.32 0 0
2.36 0 0
2.4 0 0
2.44 0 0
2.48 0 0
2.52 0 0
2.56 0 0
2.6 0 0
2.64 0 0
2.68 0 0
2.72 0 0
2.76 0 0
2.8 0 0
2.84 0 0
2.88 0 0
2.92 0 0
2.96 0 0
3 0 0
3.04 0 0
3.08 0 0
3.12 0 0
3.16 0 0
3.2 0 0
3.24 0 0
3.28 0 0
3.32 0 0
3.36 0 0
3.4 0 0
3.44 0 0
3.48 0 0
3.52 0 0
3.56 0 0
3.6 0 0
3.64 0 0
3.68 0 0
3.72 0 0
3.76 0 0
3.8 0 0
3.84 0 0
3.88 0 0
3.92 0 0
3.96 0 0
4 0 0
4.04 0 0
4.08 0 0
4.12 0 0
4.16 0 0
4.2 0 0
4.24 0 0
4.28 0 0
4.32 0 0
4.36 0 0
4.4 0 0
4.44 0 0
4.48 0 0
4.52 0 0
4.56 0 0
4.6 0 0
4.64 0 0
4.68 0 0
4.72 0 0
4.76 0 0
4.8 0 0
4.84 0 0
4.88 0 0
4.92 0 0
4.96 0 0
5 0 0
5.04 0 0
5.08 0 0
5.12 0 0
5.16 0 0
5.2 0 0
5.24 0 0
5.28 0 0
5.32 0 0
5.36 0 0
5.4 0 0
5.44 0 0
5.48 0 0
5.52 0 0
5.56 0 0
5.6 0 0
5.64 0 0
5.68 0 0
5.72 0 0
5.76 0 0
5.8 0 0
5.84 0 0
5.88 0 0
5.92 0 0
5.96 0 0
6 0 0
6.04 0 0
6.08 0 0
6.12 0 0
6.16 0 0
6.2 0 0
6.24 0 0
6.28 0 0
6.32 0 0
6.36 0 0
6.4 0 0
6.44 0 0
6.48 0 0
6.52 0 0
6.56 0 0
6.6 0 0
6.64 0 0
6.68 0 0
6.72 0 0
6.76 0 0
6.8 0 0
6.84 0 0
6.88 0 0
6.92 0 0
6.96 0 0
7 0 0
7.04 0 0
7.08 0 0
7.12 0 0
7.16 0 0
7.2 0 0
7.24 0 0
7.28 0 0
7.32 0 0
7.36 0 0
7.4 0 0
7.44 0 0
7.48 0 0
7.52 0 0
7.56 0 0
7.6 0 0
7.64 0 0
7.68 0 0
7.72 0 0
7.76 0 0
7.8 0 0
7.84 0 0
7.88 0 0
7.92 0 0
7.96 0 0
8 0 0
8.04 0 0
8.08 0 0
8.12 0 0
8.16 0 0
8.2 0 0
8.24 0 0
8.28 0 0
8.32 0 0
8.36 0 0
8.4 0 0
8.44 0 0
8.48 0 0
8.52 0 0
8.56 0 0
8.6 0 0
8.64 0 0
8.68 0 0
8.72 0 0
8.76 0 0
8.8 0 0
8.84 0 0
8.88 0 0
8.92 0 0
8.96 0 0
9 0 0
9.04 0 0
9.08 0 0
9.12 0 0
9.16 0 0
9.2 0 0
9.24 0 0
9.28 0 0
9.32 0 0
9.36 0 0
9.4 0 0
9.44 0 0
9.48 0 0
9.52 0 0
9.56 0 0
9.6 0 0
9.64 0 0
9.68 0 0
9.72 0 0
9.76 0 0
9.8 0 0
9.84 0 0
9.88 0 0
9.92 0 0
9.96 0 0
10 0 0
10.04 0 0
10.08 0 0
10.12 0 0
10.16 0 0
10.2 0 0
10.24 0 0
10.28 0 0
10.32 0 0
10.36 0 0
10.4 0 0
10.44 0 0
10.48 0 0
10.52 0 0
10.56 0 0
10.6 0 0
10.64 0 0
10.68 0 0
10.72 0 0
10.76 0 0
10.8 0 0
10.84 0 0
10.88 0 0
10.92 0 0
10.96 0 0
11 0 0
11.04 0 0
11.08 0 0
11.12 0 0
11.16 0 0
11.2 0 0
11.24 0 0
11.28 0 0
11.32 0 0
11.36 0 0
11.4 0 0
11.44 0 0
11.48 0 0
11.52 0 0
11.56 0 0
11.6 0 0
11.64 0 0
11.68 0 0
11.72 0 0
11.76 0 0
11.8 0 0
11.84 0 0
11.88 0 0
11.92 0 0
11.96 0 0
12 0 0
12.04 0 0
12.08 0 0
12.12 0 0
12.16 0 0
12.2 0 0
12.24 0 0
12.28 0 0
12.32 0 0
12.36 0 0
12.4 0 0
12.44 0 0
12.48 0 0
12.52 0 0
12.56 0 0
12.6 0 0
12.64 0 0
12.68 0 0
12.72 0 0
12.76 0 0
12.8 0 0
12.84 0 0
12.88 0 0
12.92 0 0
12.96 0 0
13 0 0
13.04 0 0
13.08 0 0
13.12 0 0
13.16 0 0
13.2 0 0
13.24 0 0
13.28 0 0
13.32 0 0
13.36 0 0
13.4 0 0
13.44 0 0
13.48 0 0
13.52 0 0
13.56 0 0
13.6 0 0
13.64 0 0
13.68 0 0
13.72 0 0
13.76 0 0
13.8 0 0
13.84 0 0
13.88 0 0
13.92 0 0
13.96 0 0
14 0 0
14.04 0 0
14.08 0 0
14.12 0 0
14.16 0 0
14.2 0 0
14.24 0 0
14.28 0 0
14.32 0 0
14.36 0 0
14.4 0 0
14.44 0 0
14.48 0 0
14.52 0 0
14.56 0 0
14.6 0 0
14.64 0 0
14.68 0 0
14.72 0 0
14.76 0 0
14.8 0 0
14.84 0 0
14.88 0 0
14.92 0 0
14.96 0 0
15 0 0
15.04 0 0
15.08 0 0
15.12 0 0
15.16 0 0
15.2 0 0
15.24 0 0
15.28 0 0
15.32 0 0
15.36 0 0
15.4 0 0
15.44 0 0
15.48 0 0
15.52 0 0
15.56 0 0
15.6 0 0
15.64 0 0
15.68 0 0
15.72 0 0
15.76 0 0
15.8 0 0
15.84 0 0
15.88 0 0
15.92 0 0
15.96 0 0
16 0 0
16.04 0 0
16.08 0 0
16.12 0 0
16.16 0 0
16.2 0 0
16.24 0 0
16.28 0 0
16.32 0 0
16.36 0 0
16.4 0 0
16.44 0 0
16.48 0 0
16.52 0 0
16.56 0 0
16.6 0 0
16.64 0 0
16.68 0 0
16.72 0 0
16.76 0 0
16.8 0 0
16.84 0 0
16.88 0 0
16.92 0 0
16.96 0 0
17 0 0
17.04 0 0
17.08 0 0
17.12 0 0
17.16 0 0
17.2 0 0
17.24 0 0
17.28 0 0
17.32 0 0
17.36 0 0
17.4 0 0
17.44 0 0
17.48 0 0
17.52 0 0
17.56 0 0
17.6 0 0
17.64 0 0
17.68 0 0
17.72 0 0
17.76 0 0
17.8 0 0
17.84 0 0
17.88 0 0
17.92 0 0
17.96 0 0
18 0 0
18.04 0 0
18.08 0 0
18.12 0 0
18.16 0 0
18.2 0 0
18.24 0 0
18.28 0 0
18.32 0 0
18.36 0 0
18.4 0 0
18.44 0 0
18.48 0 0
18.52 0 0
18.56 0 0
18.6 0 0
18.64 0 0
18.68 0 0
18.72 0 0
18.76 0 0
18.8 0 0
18.84 0 0
18.88 0 0
18.92 0 0
18.96 0 0
19 0 0
19.04 0 0
19.08 0 0
19.12 0 0
19.16 0 0
19.2 0 0
19.24 0 0
19.28 0 0
19.32 0 0
19.36 0 0
19.4 0 0
19.44 0 0
19.48 0 0
19.52 0 0
19.56 0 0
19.6 0 0
19.64 0 0
19.68 0 0
19.72 0 0
19.76 0 0
19.8 0 0
19.84 0 0
19.88 0 0
19.92 0 0
19.96 0 0
20 0 0
20.04 0 0
20.08 0 0
20.12 0 0
20.16 0 0
20.2 0 0
20.24 0 0
20.28 0 0
20.32 0 0
20.36 0 0
20.4 0 0
20.44 0 0
20.48 0 0
20.52 0 0
20.56 0 0
20.6 0 0
20.64 0 0
20.68 0 0
20.72 0 0
20.76 0 0
20.8 0 0
20.84 0 0
20.88 0 0
20.92 0 0
20.96 0 0
21 0 0
21.04 0 0
21.08 0 0
21.12 0 0
21.16 0 0
21.2 0 0
21.24 0 0
21.28 0 0
21.32 0 0
21.36 0 0
21.4 0 0
21.44 0 0
21.48 0 0
21.52 0 0
21.56 0 0
21.6 0 0
21.64 0 0
21.68 0 0
21.72 0 0
21.76 0 0
21.8 0 0
21.84 0 0
21.88 0 0
21.92 0 0
21.96 0 0
22 0 0
22.04 0 0
22.08 0 0
22.12 0 0
22.16 0 0
22.2 0 0
22.24 0 0
22.28 0 0
22.32 0 0
22.36 0 0
22.4 0 0
22.44 0 0
22.48 0 0
22.52 0 0
22.56 0 0
22.6 0 0
22.64 0 0
22.68 0 0
22.72 0 0
22.76 0 0
22.8 0 0
22.84 0 0
22.88 0 0
22.92 0 0
22.96 0 0
23 0 0
23.04 0 0
23.08 0 0
23.12 0 0
23.16 0 0
23.2 0 0
23.24 0 0
23.28 0 0
23.32 0 0
23.36 0 0
23.4 0 0
23.44 0 0
23.48 0 0
23.52 0 0
23.56 0 0
23.6 0 0
23.64 0 0
23.68 0 0
23.72 0 0
23.76 0 0
23.8 0 0
23.84 0 0
23.88 0 0
23.92 0 0
23.96 0 0
24 0 0
24.04 0 0
24.08 0 0
24.12 0 0
24.16 0 0
24.2 0 0
24.24 0 0
24.28 0 0
24.32 0 0
24.36 0 0
24.4 0 0
24.44 0 0
24.48 0 0
24.52 0 0
24.56 0 0
24.6 0 0
24.64 0 0
24.68 0 0
24.72 0 0
24.76 0 0
24.8 0 0
24.84 0 0
24.88 0 0
24.92 0 0
24.96 0 0
25 0 0
25.04 0 0
25.08 0 0
25.12 0 0
25.16 0 0
25.2 0 0
25.24 0 0
25.28 0 0
25.32 0 0
25.36 0 0
25.4 0 0
25.44 0 0
25.48 0 0
25.52 0 0
25.56 0 0
25.6 0 0
25.64 0 0
25.68 0 0
25.72 0 0
25.76 0 0
25.8 0 0
25.84 0 0
25.88 0 0
25.92 0 0
25.96 0 0
26 0 0
26.04 0 0
26.08 0 0
26.12 0 0
26.16 0 0
26.2 0 0
26.24 0 0
26.28 0 0
26.32 0 0
26.36 0 0
26.4 0 0
26.44 0 0
26.48 0 0
26.52 0 0
26.56 0 0
26.6 0 0
26.64 0 0
26.68 0 0
26.72 0 0
26.76 0 0
26.8 0 0
26.84 0 0
26.88 0 0
26.92 0 0
26.96 0 0
27 0 0
27.04 0 0
27.08 0 0
27.12 0 0
27.16 0 0
27.2 0 0
27.24 0 0
27.28 0 0
27.32 0 0
27.36 0 0
27.4 0 0
27.44 0 0
27.48 0 0
27.52 0 0
27.56 0 0
27.6 0 0
27.64 0 0
27.68 0 0
27.72 0 0
27.76 0 0
27.8 0 0
27.84 0 0
27.88 0 0
27.92 0 0
27.96 0 0
28 0 0
28.04 0 0
28.08 0 0
28.12 0 0
28.16 0 0
28.2 0 0
28.24 0 0
28.28 0 0
28.32 0 0
28.36 0 0
28.4 0 0
28.44 0 0
28.48 0 0
28.52 0 0
28.56 0 0
28.6 0 0
28.64 0 0
28.68 0 0
28.72 0 0
28.76 0 0
28.8 0 0
28.84 0 0
28.88 0 0
28.92 0 0
28.96 0 0
29 0 0
29.04 0 0
29.08 0 0
29.12 0 0
29.16 0 0
29.2 0 0
29.24 0 0
29.28 0 0
29.32 0 0
29.36 0 0
29.4 0 0
29.44 0 0
29.48 0 0
29.52 0 0
29.56 0 0
29.6 0 0
29.64 0 0
29.68 0 0
29.72 0 0
29.76 0 0
29.8 0 0
29.84 0 0
29.88 0 0
29.92 0 0
29.96 0 0
30 0 0
30.04 0 0
30.08 0 0
30.12 0 0
30.16 0 0
30.2 0 0
30.24 0 0
30.28 0 0
30.32 0 0
30.36 0 0
30.4 0 0
30.44 0 0
30.48 0 0
30.52 0 0
30.56 0 0
30.6 0 0
30.64 0 0
30.68 0 0
30.72 0 0
30.76 0 0
30.8 0 0
30.84 0 0
30.88 0 0
30.92 0 0
30.96 0 0
31 0 0
31.04 0 0
31.08 0 0
31.12 0 0
31.16 0 0
31.2 0 0
31.24 0 0
31.28 0 0
31.32 0 0
31.36 0 0
31.4 0 0
31.44 0 0
31.48 0 0
31.52 0 0
31.56 0 0
31.6 0 0
31.64 0 0
31.68 0 0
31.72 0 0
31.76 0 0
31.8 0 0
31.84 0 0
31.88 0 0
31.92 0 0
31.96 0 0
0 0.005 0
0.04 0.005 0
0.08 0.005 0
0.12 0.005 0
0.16 0.005 0
0.2 0.005 0
0.24 0.005 0
0.28 0.005 0
0.32 0.005 0
0.36 0.005 0
0.4 0.005 0
0.44 0.005 0
0.48 0.005 0
0.52 0.005 0
0.56 0.005 0
0.6 0.005 0
0.64 0.005 0
0.68 0.005 0
0.72 0.005 0
0.76 0.005 0
0.8 0.005 0
0.84 0.005 0
0.88 0.005 0
0.92 0.005 0
0.96 0.005 0
1 0.005 0
1.04 0.005 0
1.08 0.005 0
1.12 0.005 0
1.16 0.005 0
1.2 0.005 0
1.24 0.005 0
1.28 0.005 0
1.32 0.005 0
1.36 0.005 0
1.4 0.005 0
1.44 0.005 0
1.48 0.005 0
1.52 0.005 0
1.56 0.005 0
1.6 0.005 0
1.64 0.005 0
1.68 0.005 0
1.72 0.005 0
1.76 0.005 0
1.8 0.005 0
1.84 0.005 0
1.88 0.005 0
1.92 0.005 0
1.96 0.005 0
2 0.005 0
2.04 0.005 0
2.08 0.005 0
2.12 0.005 0
2.16 0.005 0
2.2 0.005 0
2.24 0.005 0
2.28 0.005 0
2.32 0.005 0
2.36 0.005 0
2.4 0.005 0
2.44 0.005 0
2.48 0.005 0
2.52 0.005 0
2.56 0.005 0
2.6 0.005 0
2.64 0.005 0
2.68 0.005 0
2.72 0.005 0
2.76 0.005 0
2.8 0.005 0
2.84 0.005 0
2.88 0.005 0
2.92 0.005 0
2.96 0.005 0
3 0.005 0
3.04 0.005 0
3.08 0.005 0
3.12 0.005 0
3.16 0.005 0
3.2 0.005 0
3.24 0.005 0
3.28 0.005 0
3.32 0.005 0
3.36 0.005 0
3.4 0.005 0
3.44 0.005 0
3.48 0.005 0
3.52 0.005 0
3.56 0.005 0
3.6 0.005 0
3.64 0.005 0
3.68 0.005 0
3.72 0.005 0
3.76 0.005 0
3.8 0.005 0
3.84 0.005 0
3.88 0.005 0
3.92 0.005 0
3.96 0.005 0
4 0.005 0
4.04 0.005 0
4.08 0.005 0
4.12 0.005 0
4.16 0.005 0
4.2 0.005 0
4.24 0.005 0
4.28 0.005 0
4.32 0.005 0
4.36 0.005 0
4.4 0.005 0
4.44 0.005 0
4.48 0.005 0
4.52 0.005 0
4.56 0.005 0
4.6 0.005 0
4.64 0.005 0
4.68 0.005 0
4.72 0.005 0
4.76 0.005 0
4.8 0.005 0
4.84 0.005 0
4.88 0.005 0
4.92 0.005 0
4.96 0.005 0
5 0.005 0
5.04 0.005 0
5.08 0.005 0
5.12 0.005 0
5.16 0.005 0
5.2 0.005 0
5.24 0.005 0
5.28 0.005 0
5.32 0.005 0
5.36 0.005 0
5.4 0.005 0
5.44 0.005 0
5.48 0.005 0
5.52 0.005 0
5.56 0.005 0
5.6 0.005 0
5.64 0.005 0
5.68 0.005 0
5.72 0.005 0
5.76 0.005 0
5.8 0.005 0
5.84 0.005 0
5.88 0.005 0
5.92 0.005 0
5.96 0.005 0
6 0.005 0
6.04 0.005 0
6.08 0.005 0
6.12 0.005 0
6.16 0.005 0
6.2 0.005 0
6.24 0.005 0
6.28 0.005 0
6.32 0.005 0
6.36 0.005 0
6.4 0.005 0
6.44 0.005 0
6.48 0.005 0
6.52 0.005 0
6.56 0.005 0
6.6 0.005 0
6.64 0.005 0
6.68 0.005 0
6.72 0.005 0
6.76 0.005 0
6.8 0.005 0
6.84 0.005 0
6.88 0.005 0
6.92 0.005 0
6.96 0.005 0
7 0.005 0
7.04 0.005 0
7.08 0.005 0
7.12 0.005 0
7.16 0.005 0
7.2 0.005 0
7.24 0.005 0
7.28 0.005 0
7.32 0.005 0
7.36 0.005 0
7.4 0.005 0
[...]
POINT_DATA 160000

SCALARS p float 1
LOOKUP_TABLE default
1
28.0603
25.8449
25.59
25.5299
25.5035
25.4874
25.4758
25.4666
25.4587
25.4518
25.4455
25.4396
25.434
25.4287
25.4236
25.4186
25.4138
25.4091
25.4045
25.3999
25.3955
25.3911
25.3867
25.3825
25.3783
25.3741
25.37
25.3659
25.3619
25.3579
25.354
25.3502
25.3463
25.3425
25.3388
25.3351
25.3314
25.3278
25.3242
25.3206
25.3171
25.3136
25.3101
25.3067
25.3033
25.3
25.2966
25.2933
25.29
25.2868
25.2836
25.2804
25.2772
25.274
25.2709
25.2678
25.2647
25.2617
25.2587
25.2556
25.2527
25.2497
25.2467
25.2438
25.2409
25.238
25.2351
25.2323
25.2294
25.2266
25.2238
25.221
25.2182
25.2155
25.2127
25.21
25.2073
25.2046
25.2019
25.1993
25.1966
25.194
25.1913
25.1887
25.1861
25.1835
25.1809
25.1784
25.1758
25.1733
25.1708
25.1682
25.1657
25.1632
25.1607
25.1583
25.1558
25.1534
25.1509
25.1485
25.146
25.1436
25.1412
25.1388
25.1364
25.1341
25.1317
25.1293
25.127
25.1246
25.1223
25.12
25.1177
25.1154
25.1131
25.1108
25.1085
25.1062
25.1039
25.1017
25.0994
25.0972
25.0949
25.0927
25.0905
25.0882
25.086
25.0838
25.0816
25.0794
25.0772
25.0751
25.0729
25.0707
25.0686
25.0664
25.0643
25.0621
25.06
25.0578
25.0557
25.0536
25.0515
25.0494
25.0473
25.0452
25.0431
25.041
25.0389
25.0368
25.0348
25.0327
25.0306
25.0286
25.0265
25.0245
25.0224
25.0204
25.0184
25.0163
25.0143
25.0123
25.0103
25.0083
25.0063
25.0043
25.0023
25.0003
24.9983
24.9963
24.9943
24.9924
24.9904
24.9884
24.9865
24.9845
24.9826
24.9806
24.9787
24.9767
24.9748
24.9728
24.9709
24.969
24.9671
24.9651
24.9632
24.9613
24.9594
24.9575
24.9556
24.9537
24.9518
24.9499
24.948
24.9461
24.9442
24.9423
24.9405
24.9386
24.9367
24.9348
24.933
24.9311
24.9293
24.9274
24.9256
24.9237
24.9219
24.92
24.9182
24.9163
24.9145
24.9127
24.9108
24.909
24.9072
24.9054
24.9035
24.9017
24.8999
24.8981
24.8963
24.8945
24.8927
24.8909
24.8891
24.8873
24.8855
24.8837
24.8819
24.8801
24.8784
24.8766
24.8748
24.873
24.8713
24.8695
24.8677
24.866
24.8642
24.8624
24.8607
24.8589
24.8572
24.8554
24.8537
24.8519
24.8502
24.8485
24.8467
24.845
24.8433
24.8415
24.8398
24.8381
24.8364
24.8346
24.8329
24.8312
24.8295
24.8278
24.8261
24.8244
24.8227
24.821
24.8193
24.8176
24.8159
24.8142
24.8125
24.8108
24.8091
24.8075
24.8058
24.8041
24.8024
24.8007
24.7991
24.7974
24.7957
24.794
24.7924
24.7907
24.7891
24.7874
24.7857
24.7841
24.7824
24.7808
24.7791
24.7775
24.7758
24.7741
24.7725
24.7709
24.7692
24.7676
24.7659
24.7643
24.7626
24.761
24.7594
24.7577
24.7561
24.7544
24.7528
24.7512
24.7495
24.7479
24.7463
24.7447
24.743
24.7414
24.7398
24.7381
24.7365
24.7349
24.7333
24.7317
24.73
24.7284
24.7268
24.7252
24.7236
24.7219
24.7203
24.7187
24.7171
24.7155
24.7138
24.7122
24.7106
24.709
24.7074
24.7058
24.7042
24.7025
24.7009
24.6993
24.6977
24.6961
24.6945
24.6929
24.6913
24.6897
24.688
24.6864
24.6848
24.6832
24.6816
24.68
24.6784
24.6768
24.6752
24.6736
24.6719
24.6703
24.6687
24.6671
24.6655
24.6639
24.6623
24.6607
24.6591
24.6575
24.6559
24.6543
24.6526
24.651
24.6494
24.6478
24.6462
24.6446
24.643
24.6414
24.6398
24.6382
24.6366
24.635
24.6334
24.6317
24.6301
24.6285
24.6269
24.6253
24.6237
24.6221
24.6205
24.6189
24.6173
24.6157
24.6141
24.6125
24.6109
24.6092
24.6076
24.606
24.6044
24.6028
24.6012
24.5996
24.598
24.5964
24.5948
24.5932
24.5916
24.59
24.5884
24.5867
24.5851
24.5835
24.5819
24.5803
24.5787
24.5771
24.5755
24.5739
24.5723
24.5707
24.5691
24.5675
24.5659
24.5643
24.5626
24.561
24.5594
24.5578
24.5562
24.5546
24.553
24.5514
24.5498
24.5482
24.5466
24.545
24.5434
24.5418
24.5402
24.5386
24.5369
24.5353
24.5337
24.5321
24.5305
24.5289
24.5273
24.5257
24.5241
24.5225
24.5209
24.5193
24.5177
24.5161
24.5145
24.5129
24.5113
24.5096
24.508
24.5064
24.5048
24.5032
24.5016
24.5
24.4984
24.4968
24.4952
24.4936
24.492
24.4904
24.4888
24.4872
24.4856
24.484
24.4824
24.4808
24.4791
24.4775
24.4759
24.4743
24.4727
24.4711
24.4695
24.4679
24.4663
24.4647
24.4631
24.4615
24.4599
24.4583
24.4567
24.4551
24.4535
24.4519
24.4503
24.4487
24.4471
24.4454
24.4438
24.4422
24.4406
24.439
24.4374
24.4358
24.4342
24.4326
24.431
24.4294
24.4278
24.4262
24.4246
24.423
24.4214
24.4198
24.4182
24.4166
24.415
24.4134
24.4118
24.4102
24.4085
24.4069
24.4053
24.4037
24.4021
24.4005
24.3989
24.3973
24.3957
24.3941
24.3925
24.3909
24.3893
24.3877
24.3861
24.3845
24.3829
24.3813
24.3797
24.3781
24.3765
24.3749
24.3733
24.3717
24.3701
24.3685
24.3669
24.3652
24.3636
24.362
24.3604
24.3588
24.3572
24.3556
24.354
24.3524
24.3508
24.3492
24.3476
24.346
24.3444
24.3428
24.3412
24.3396
24.338
24.3364
24.3348
24.3332
24.3316
24.33
24.3284
24.3268
24.3252
24.3236
24.322
24.3204
24.3188
24.3172
24.3156
24.314
24.3124
24.3107
24.3091
24.3075
24.3059
24.3043
24.3027
24.3011
24.2995
24.2979
24.2963
24.2947
24.2931
24.2915
24.2899
24.2883
24.2867
24.2851
24.2835
24.2819
24.2803
24.2787
24.2771
24.2755
24.2739
24.2723
24.2707
24.2691
24.2675
24.2659
24.2643
24.2627
24.2611
24.2595
24.2579
24.2563
24.2547
24.2531
24.2515
24.2499
24.2483
24.2467
24.2451
24.2435
24.2419
24.2403
24.2387
24.2371
24.2355
24.2339
24.2323
24.2307
24.2291
24.2275
24.2259
24.2243
24.2227
24.221
24.2194
24.2178
24.2162
24.2146
24.213
24.2114
24.2098
24.2082
24.2066
24.205
24.2034
24.2018
24.2002
24.1986
24.197
24.1954
24.1938
24.1922
24.1906
24.189
24.1874
24.1858
24.1842
24.1826
24.181
24.1794
24.1778
24.1762
24.1746
24.173
24.1714
24.1698
24.1682
24.1666
24.165
24.1634
24.1618
24.1602
24.1586
24.157
24.1554
24.1538
24.1522
24.1506
24.149
24.1474
24.1458
24.1442
24.1426
24.141
24.1394
24.1378
24.1362
24.1346
24.133
24.1314
24.1298
24.1282
24.1266
24.125
24.1234
24.1218
24.1202
24.1186
24.117
24.1154
24.1138
24.1122
24.1106
24.109
24.1074
24.1058
24.1042
24.1026
24.101
24.0994
24.0978
24.0962
24.0946
24.093
24.0914
24.0898
24.0882
24.0866
24.085
24.0834
24.0818
24.0802
24.0787
24.0771
24.0755
24.0739
24.0723
24.0707
24.0691
24.0675
24.0659
24.0643
24.0627
24.0611
24.0595
24.0579
24.0563
24.0547
24.0531
24.0515
24.0499
24.0483
24.0467
24.0451
24.0435
24.0419
24.0403
24.0387
24.0371
24.0355
24.0339
24.0323
24.0307
24.0291
24.0275
24.0259
24.0243
24.0227
24.0211
24.0195
24.0179
24.0163
24.0147
24.0131
24.0115
24.0099
24.0083
24.0067
24.0051
24.0035
24.0019
24.0003
23.9987
23.9971
23.9955
23.9939
23.9923
23.9907
23.9892
23.9876
23.986
23.9844
23.9828
23.9812
23.9796
23.978
23.9764
23.9748
23.9732
23.9716
23.97
23.9684
23.9668
23.9652
1
28.0603
28.0603
25.8449
25.59
25.5299
25.5035
25.4874
25.4758
25.4666
25.4587
25.4518
25.4455
25.4396
25.434
25.4287
25.4236
25.4186
25.4138
25.4091
25.4045
25.3999
25.3955
25.3911
25.3867
25.3825
25.3783
25.3741
25.37
25.3659
25.3619
25.3579
25.354
25.3502
25.3463
25.3425
25.3388
25.3351
25.3314
25.3278
25.3242
25.3206
25.3171
25.3136
25.3101
25.3067
25.3033
25.3
25.2966
25.2933
25.29
25.2868
25.2836
25.2804
25.2772
25.274
25.2709
25.2678
25.2647
25.2617
25.2587
25.2556
25.2527
25.2497
25.2467
25.2438
25.2409
25.238
25.2351
25.2323
25.2294
25.2266
25.2238
25.221
25.2182
25.2155
25.2127
25.21
25.2073
25.2046
25.2019
25.1993
25.1966
25.194
25.1913
25.1887
25.1861
25.1835
25.1809
25.1784
25.1758
25.1733
25.1708
25.1682
25.1657
25.1632
25.1607
25.1583
25.1558
25.1534
25.1509
25.1485
25.146
25.1436
25.1412
25.1388
25.1364
25.1341
25.1317
25.1293
25.127
25.1246
25.1223
25.12
25.1177
25.1154
25.1131
25.1108
25.1085
25.1062
25.1039
25.1017
25.0994
25.0972
25.0949
25.0927
25.0905
25.0882
25.086
25.0838
25.0816
25.0794
25.0772
25.0751
25.0729
25.0707
25.0686
25.0664
25.0643
25.0621
25.06
25.0578
25.0557
25.0536
25.0515
25.0494
25.0473
25.0452
25.0431
25.041
25.0389
25.0368
25.0348
25.0327
25.0306
25.0286
25.0265
25.0245
25.0224
25.0204
25.0184
25.0163
25.0143
25.0123
25.0103
25.0083
25.0063
25.0043
25.0023
25.0003
24.9983
24.9963
24.9943
24.9924
24.9904
24.9884
24.9865
24.9845
24.9826
24.9806
24.9787
24.9767
24.9748
24.9728
24.9709
24.969
24.9671
24.9651
24.9632
24.9613
24.9594
24.9575
24.9556
24.9537
24.9518
24.9499
24.948
24.9461
24.9442
24.9423
24.9405
24.9386
24.9367
24.9348
24.933
24.9311
24.9293
24.9274
24.9256
24.9237
24.9219
24.92
24.9182
24.9163
24.9145
24.9127
24.9108
24.909
24.9072
24.9054
24.9035
24.9017
24.8999
24.8981
24.8963
24.8945
24.8927
24.8909
24.8891
24.8873
24.8855
24.8837
24.8819
24.8801
24.8784
24.8766
24.8748
24.873
24.8713
24.8695
24.8677
24.866
24.8642
24.8624
24.8607
24.8589
24.8572
24.8554
24.8537
24.8519
24.8502
24.8485
24.8467
24.845
24.8433
24.8415
24.8398
24.8381
24.8364
24.8346
24.8329
24.8312
24.8295
24.8278
24.8261
24.8244
24.8227
24.821
24.8193
24.8176
24.8159
24.8142
24.8125
24.8108
24.8091
24.8075
24.8058
24.8041
24.8024
24.8007
24.7991
24.7974
24.7957
24.794
24.7924
24.7907
24.7891
24.7874
24.7857
24.7841
24.7824
24.7808
24.7791
24.7775
24.7758
24.7741
24.7725
24.7709
24.7692
24.7676
24.7659
24.7643
24.7626
24.761
24.7594
24.7577
24.7561
24.7544
24.7528
24.7512
24.7495
24.7479
24.7463
24.7447
24.743
24.7414
24.7398
24.7381
24.7365
24.7349
24.7333
24.7317
24.73
24.7284
24.7268
24.7252
24.7236
24.7219
24.7203
24.7187
24.7171
24.7155
24.7138
24.7122
24.7106
24.709
24.7074
24.7058
24.7042
24.7025
24.7009
24.6993
24.6977
24.6961
24.6945
24.6929
24.6913
24.6897
24.688
24.6864
24.6848
24.6832
24.6816
24.68
24.6784
24.6768
24.6752
24.6736
24.6719
24.6703
24.6687
24.6671
24.6655
24.6639
24.6623
24.6607
24.6591
24.6575
24.6559
24.6543
24.6526
24.651
24.6494
24.6478
24.6462
24.6446
24.643
24.6414
24.6398
24.6382
24.6366
24.635
24.6334
24.6317
24.6301
24.6285
24.6269
24.6253
24.6237
24.6221
24.6205
24.6189
24.6173
24.6157
24.6141
24.6125
24.6109
24.6092
24.6076
24.606
24.6044
24.6028
24.6012
24.5996
24.598
24.5964
24.5948
24.5932
24.5916
24.59
24.5884
24.5867
24.5851
24.5835
24.5819
24.5803
24.5787
24.5771
24.5755
24.5739
24.5723
24.5707
24.5691
24.5675
24.5659
24.5643
24.5626
24.561
24.5594
24.5578
24.5562
24.5546
24.553
24.5514
24.5498
24.5482
24.5466
24.545
24.5434
24.5418
24.5402
24.5386
24.5369
24.5353
24.5337
24.5321
24.5305
24.5289
24.5273
24.5257
24.5241
24.5225
24.5209
24.5193
24.5177
24.5161
24.5145
24.5129
24.5113
24.5096
24.508
24.5064
24.5048
24.5032
24.5016
24.5
24.4984
24.4968
24.4952
24.4936
24.492
24.4904
24.4888
24.4872
24.4856
24.484
24.4824
24.4808
24.4791
24.4775
24.4759
24.4743
24.4727
24.4711
24.4695
24.4679
24.4663
24.4647
24.4631
24.4615
24.4599
24.4583
24.4567
24.4551
24.4535
24.4519
24.4503
24.4487
24.4471
24.4454
24.4438
24.4422
24.4406
24.439
24.4374
24.4358
24.4342
24.4326
24.431
24.4294
24.4278
24.4262
24.4246
24.423
24.4214
24.4198
24.4182
24.4166
24.415
24.4134
24.4118
24.4102
24.4085
24.4069
24.4053
24.4037
24.4021
24.4005
24.3989
24.3973
24.3957
24.3941
24.3925
24.3909
24.3893
24.3877
24.3861
24.3845
24.3829
24.3813
24.3797
24.3781
24.3765
24.3749
24.3733
24.3717
24.3701
24.3685
24.3669
24.3652
24.3636
24.362
24.3604
24.3588
24.3572
24.3556
24.354
24.3524
24.3508
24.3492
24.3476
24.346
24.3444
24.3428
24.3412
24.3396
24.338
24.3364
24.3348
24.3332
24.3316
24.33
24.3284
24.3268
24.3252
24.3236
24.322
24.3204
24.3188
24.3172
24.3156
24.314
24.3124
24.3107
24.3091
24.3075
24.3059
24.3043
24.3027
24.3011
24.2995
24.2979
24.2963
24.2947
24.2931
24.2915
24.2899
24.2883
24.2867
24.2851
24.2835
24.2819
24.2803
24.2787
24.2771
24.2755
24.2739
24.2723
24.2707
24.2691
24.2675
24.2659
24.2643
24.2627
24.2611
24.2595
24.2579
24.2563
24.2547
24.2531
24.2515
24.2499
24.2483
24.2467
24.2451
24.2435
24.2419
24.2403
24.2387
24.2371
24.2355
24.2339
24.2323
24.2307
24.2291
24.2275
24.2259
24.2243
24.2227
24.221
24.2194
24.2178
24.2162
24.2146
24.213
24.2114
24.2098
24.2082
24.2066
24.205
24.2034
24.2018
24.2002
24.1986
24.197
24.1954
24.1938
24.1922
24.1906
24.189
24.1874
24.1858
24.1842
24.1826
24.181
24.1794
24.1778
24.1762
24.1746
24.173
24.1714
24.1698
24.1682
24.1666
24.165
24.1634
24.1618
24.1602
24.1586
24.157
24.1554
24.1538
24.1522
24.1506
24.149
24.1474
24.1458
24.1442
24.1426
24.141
24.1394
24.1378
24.1362
24.1346
24.133
24.1314
24.1298
24.1282
24.1266
24.125
24.1234
24.1218
24.1202
24.1186
24.117
24.1154
24.1138
24.1122
24.1106
24.109
24.1074
24.1058
24.1042
24.1026
24.101
24.0994
24.0978
24.0962
24.0946
24.093
24.0914
24.0898
24.0882
24.0866
24.085
24.0834
24.0818
24.0802
24.0787
24.0771
24.0755
24.0739
24.0723
24.0707
24.0691
24.0675
24.0659
24.0643
24.0627
24.0611
24.0595
24.0579
24.0563
24.0547
24.0531
24.0515
24.0499
24.0483
24.0467
24.0451
24.0435
24.0419
24.0403
24.0387
24.0371
24.0355
24.0339
24.0323
24.0307
24.0291
24.0275
24.0259
24.0243
24.0227
24.0211
24.0195
24.0179
24.0163
24.0147
24.0131
24.0115
24.0099
24.0083
24.0067
24.0051
24.0035
24.0019
24.0003
23.9987
23.9971
23.9955
23.9939
23.9923
23.9907
23.9892
23.9876
23.986
23.9844
23.9828
23.9812
23.9796
23.978
23.9764
23.9748
23.9732
23.9716
23.97
23.9684
23.9668
23.9652
23.9652
27.4133
27.4133
25.8553
25.5995
25.534
25.5057
25.4888
25.4768
25.4673
25.4593
25.4522
25.4458
25.4399
25.4343
25.4289
25.4238
25.4188
25.414
25.4092
25.4046
25.4
25.3956
25.3912
25.3868
25.3825
25.3783
25.3742
25.37
25.366
25.362
25.358
25.3541
25.3502
25.3464
25.3426
25.3388
25.3351
25.3314
25.3278
25.3242
25.3207
25.3171
25.3136
25.3102
25.3067
25.3033
25.3
25.2966
25.2933
25.2901
25.2868
25.2836
25.2804
25.2772
25.2741
25.2709
25.2678
25.2648
25.2617
25.2587
25.2557
25.2527
25.2497
25.2468
25.2438
25.2409
25.238
25.2351
25.2323
25.2294
25.2266
25.2238
25.221
25.2183
25.2155
25.2128
25.21
25.2073
25.2046
25.2019
25.1993
25.1966
25.194
25.1913
25.1887
25.1861
25.1835
25.181
25.1784
25.1758
25.1733
25.1708
25.1683
25.1657
25.1632
25.1608
25.1583
25.1558
25.1534
25.1509
25.1485
25.1461
25.1436
25.1412
25.1388
25.1365
25.1341
25.1317
25.1293
25.127
25.1247
25.1223
25.12
25.1177
25.1154
25.1131
25.1108
25.1085
25.1062
25.1039
25.1017
25.0994
25.0972
25.0949
25.0927
25.0905
25.0882
25.086
25.0838
25.0816
25.0794
25.0772
25.0751
25.0729
25.0707
25.0686
25.0664
25.0643
25.0621
25.06
25.0579
25.0557
25.0536
25.0515
25.0494
25.0473
25.0452
25.0431
25.041
25.0389
25.0368
25.0348
25.0327
25.0306
25.0286
25.0265
25.0245
25.0225
25.0204
25.0184
25.0164
25.0143
25.0123
25.0103
25.0083
25.0063
25.0043
25.0023
25.0003
24.9983
24.9963
24.9943
24.9924
24.9904
24.9884
24.9865
24.9845
24.9826
24.9806
24.9787
24.9767
24.9748
24.9728
24.9709
24.969
24.9671
24.9651
24.9632
24.9613
24.9594
24.9575
24.9556
24.9537
24.9518
24.9499
24.948
24.9461
24.9442
24.9423
24.9405
24.9386
24.9367
24.9349
24.933
24.9311
24.9293
24.9274
24.9256
24.9237
24.9219
24.92
24.9182
24.9163
24.9145
24.9127
24.9108
24.909
24.9072
24.9054
24.9035
24.9017
24.8999
24.8981
24.8963
24.8945
24.8927
24.8909
24.8891
24.8873
24.8855
24.8837
24.8819
24.8801
24.8784
24.8766
24.8748
24.873
24.8713
24.8695
24.8677
24.866
24.8642
24.8624
24.8607
24.8589
24.8572
24.8554
24.8537
24.8519
24.8502
24.8485
24.8467
24.845
24.8433
24.8415
24.8398
24.8381
24.8364
24.8347
24.8329
24.8312
24.8295
24.8278
24.8261
24.8244
24.8227
24.821
24.8193
24.8176
24.8159
24.8142
24.8125
24.8108
24.8091
24.8075
24.8058
24.8041
24.8024
24.8007
24.7991
24.7974
24.7957
24.7941
24.7924
24.7907
24.7891
24.7874
24.7857
24.7841
24.7824
24.7808
24.7791
24.7775
24.7758
24.7742
24.7725
24.7709
24.7692
24.7676
24.7659
24.7643
24.7626
24.761
24.7594
24.7577
24.7561
24.7545
24.7528
24.7512
24.7496
24.7479
24.7463
24.7447
24.743
24.7414
24.7398
24.7382
24.7365
24.7349
24.7333
24.7317
24.73
24.7284
24.7268
24.7252
24.7236
24.7219
24.7203
24.7187
24.7171
24.7155
24.7138
24.7122
24.7106
24.709
24.7074
24.7058
24.7042
24.7025
24.7009
24.6993
24.6977
24.6961
24.6945
24.6929
24.6913
24.6897
24.688
24.6864
24.6848
24.6832
24.6816
24.68
24.6784
24.6768
24.6752
24.6736
24.672
24.6703
24.6687
24.6671
24.6655
24.6639
24.6623
24.6607
24.6591
24.6575
24.6559
24.6543
24.6527
24.651
24.6494
24.6478
24.6462
24.6446
24.643
24.6414
24.6398
24.6382
24.6366
24.635
24.6334
24.6318
24.6301
24.6285
24.6269
24.6253
24.6237
24.6221
24.6205
24.6189
24.6173
24.6157
24.6141
24.6125
24.6109
24.6092
24.6076
24.606
24.6044
24.6028
24.6012
24.5996
24.598
24.5964
24.5948
24.5932
24.5916
24.59
24.5884
24.5868
24.5851
24.5835
24.5819
24.5803
24.5787
24.5771
24.5755
24.5739
24.5723
24.5707
24.5691
24.5675
24.5659
24.5643
24.5627
24.561
24.5594
24.5578
24.5562
24.5546
24.553
24.5514
24.5498
24.5482
24.5466
24.545
24.5434
24.5418
24.5402
24.5386
24.537
24.5353
24.5337
24.5321
24.5305
24.5289
24.5273
24.5257
24.5241
24.5225
24.5209
24.5193
24.5177
24.5161
24.5145
24.5129
24.5113
24.5097
24.508
24.5064
24.5048
24.5032
24.5016
24.5
24.4984
24.4968
24.4952
24.4936
24.492
24.4904
24.4888
24.4872
24.4856
24.484
24.4824
24.4808
24.4792
24.4775
24.4759
24.4743
24.4727
24.4711
24.4695
24.4679
24.4663
24.4647
24.4631
24.4615
24.4599
24.4583
24.4567
24.4551
24.4535
24.4519
24.4503
24.4487
24.4471
24.4454
24.4438
24.4422
24.4406
24.439
24.4374
24.4358
24.4342
24.4326
24.431
24.4294
24.4278
24.4262
24.4246
24.423
24.4214
24.4198
24.4182
24.4166
24.415
24.4134
24.4118
24.4102
24.4086
24.4069
24.4053
24.4037
24.4021
24.4005
24.3989
24.3973
24.3957
24.3941
24.3925
24.3909
24.3893
24.3877
24.3861
24.3845
24.3829
24.3813
24.3797
24.3781
24.3765
24.3749
24.3733
24.3717
24.3701
24.3685
24.3669
24.3653
24.3636
24.362
24.3604
24.3588
24.3572
24.3556
24.354
24.3524
24.3508
24.3492
24.3476
24.346
24.3444
24.3428
24.3412
24.3396
24.338
24.3364
24.3348
24.3332
24.3316
24.33
24.3284
24.3268
24.3252
24.3236
24.322
24.3204
24.3188
24.3172
24.3156
24.314
24.3124
24.3108
24.3092
24.3075
24.3059
24.3043
24.3027
24.3011
24.2995
24.2979
24.2963
24.2947
24.2931
24.2915
24.2899
24.2883
24.2867
24.2851
24.2835
24.2819
24.2803
24.2787
24.2771
24.2755
24.2739
24.2723
24.2707
24.2691
24.2675
24.2659
24.2643
24.2627
24.2611
24.2595
24.2579
24.2563
24.2547
24.2531
24.2515
24.2499
24.2483
24.2467
24.2451
24.2435
24.2419
24.2403
24.2387
24.2371
24.2355
24.2339
24.2323
24.2307
24.2291
24.2275
24.2259
24.2243
24.2227
24.2211
24.2195
24.2179
24.2163
24.2146
24.213
24.2114
24.2098
24.2082
24.2066
24.205
24.2034
24.2018
24.2002
24.1986
24.197
24.1954
24.1938
24.1922
24.1906
24.189
24.1874
24.1858
24.1842
24.1826
24.181
24.1794
24.1778
24.1762
24.1746
24.173
24.1714
24.1698
24.1682
24.1666
24.165
24.1634
24.1618
24.1602
24.1586
24.157
24.1554
24.1538
24.1522
24.1506
24.149
24.1474
24.1458
24.1442
24.1426
24.141
24.1394
24.1378
24.1362
24.1346
24.133
24.1314
24.1298
24.1282
24.1266
24.125
24.1234
24.1218
24.1202
24.1186
24.117
24.1154
24.1138
24.1122
24.1106
24.109
24.1074
24.1058
24.1042
24.1026
24.101
24.0994
24.0978
24.0962
24.0946
24.093
24.0914
24.0898
24.0882
24.0866
24.0851
24.0835
24.0819
24.0803
24.0787
24.0771
24.0755
24.0739
24.0723
24.0707
24.0691
24.0675
24.0659
24.0643
24.0627
24.0611
24.0595
24.0579
24.0563
24.0547
24.0531
24.0515
24.0499
24.0483
24.0467
24.0451
24.0435
24.0419
24.0403
24.0387
24.0371
24.0355
24.0339
24.0323
24.0307
24.0291
24.0275
24.0259
24.0243
24.0227
24.0211
24.0195
24.0179
24.0163
24.0147
24.0131
24.0115
24.0099
24.0083
24.0067
24.0051
24.0035
24.0019
24.0003
23.9987
23.9971
23.9955
23.9939
23.9924
23.9908
23.9892
23.9876
23.986
23.9844
23.9828
23.9812
23.9796
23.978
23.9764
23.9748
23.9732
23.9716
23.97
23.9684
23.9668
23.9652
23.9652
26.7238
26.7238
25.8395
25.6062
25.5377
25.5077
25.4901
25.4777
25.468
25.4598
25.4526
25.4462
25.4402
25.4345
25.4291
25.424
25.419
25.4141
25.4093
25.4047
25.4001
25.3957
25.3912
25.3869
25.3826
25.3784
25.3742
25.3701
25.366
25.362
25.3581
25.3541
25.3502
25.3464
25.3426
25.3389
25.3352
25.3315
25.3278
25.3242
25.3207
25.3172
25.3137
25.3102
25.3068
25.3034
25.3
25.2967
25.2934
25.2901
25.2868
25.2836
25.2804
25.2772
25.2741
25.271
25.2679
25.2648
25.2617
25.2587
25.2557
25.2527
25.2497
25.2468
25.2438
25.2409
25.238
25.2352
25.2323
25.2295
25.2266
25.2238
25.221
25.2183
25.2155
25.2128
25.21
25.2073
25.2046
25.2019
25.1993
25.1966
25.194
25.1914
25.1887
25.1861
25.1835
25.181
25.1784
25.1758
25.1733
25.1708
25.1683
25.1657
25.1633
25.1608
25.1583
25.1558
25.1534
25.1509
25.1485
25.1461
25.1437
25.1412
25.1388
25.1365
25.1341
25.1317
25.1294
25.127
25.1247
25.1223
25.12
25.1177
25.1154
25.1131
25.1108
25.1085
25.1062
25.1039
25.1017
25.0994
25.0972
25.0949
25.0927
25.0905
25.0883
25.086
25.0838
25.0816
25.0794