# vtk DataFile Version 2.0
FlowField
ASCII
DATASET STRUCTURED_GRID
DIMENSIONS 800 1 200
POINTS 160000 float
0 0 0
0.04 0 0
0.08 0 0
0.12 0 0
0.16 0 0
0.2 0 0
0.24 0 0
0.28 0 0
0.32 0 0
0.36 0 0
0.4 0 0
0.44 0 0
0.48 0 0
0.52 0 0
0.56 0 0
0.6 0 0
0.64 0 0
0.68 0 0
0.72 0 0
0.76 0 0
0.8 0 0
0.84 0 0
0.88 0 0
0.92 0 0
0.96 0 0
1 0 0
1.04 0 0
1.08 0 0
1.12 0 0
1.16 0 0
1.2 0 0
1.24 0 0
1.28 0 0
1.32 0 0
1.36 0 0
1.4 0 0
1.44 0 0
1.48 0 0
1.52 0 0
1.56 0 0
1.6 0 0
1.64 0 0
1.68 0 0
1.72 0 0
1.76 0 0
1.8 0 0
1.84 0 0
1.88 0 0
1.92 0 0
1.96 0 0
2 0 0
2.04 0 0
2.08 0 0
2.12 0 0
2.16 0 0
2.2 0 0
2.24 0 0
2.28 0 0
2.32 0 0
2.36 0 0
2.4 0 0
2.44 0 0
2.48 0 0
2.52 0 0
2.56 0 0
2.6 0 0
2.64 0 0
2.68 0 0
2.72 0 0
2.76 0 0
2.8 0 0
2.84 0 0
2.88 0 0
2.92 0 0
2.96 0 0
3 0 0
3.04 0 0
3.08 0 0
3.12 0 0
3.16 0 0
3.2 0 0
3.24 0 0
3.28 0 0
3.32 0 0
3.36 0 0
3.4 0 0
3.44 0 0
3.48 0 0
3.52 0 0
3.56 0 0
3.6 0 0
3.64 0 0
3.68 0 0
3.72 0 0
3.76 0 0
3.8 0 0
3.84 0 0
3.88 0 0
3.92 0 0
3.96 0 0
4 0 0
4.04 0 0
4.08 0 0
4.12 0 0
4.16 0 0
4.2 0 0
4.24 0 0
4.28 0 0
4.32 0 0
4.36 0 0
4.4 0 0
4.44 0 0
4.48 0 0
4.52 0 0
4.56 0 0
4.6 0 0
4.64 0 0
4.68 0 0
4.72 0 0
4.76 0 0
4.8 0 0
4.84 0 0
4.88 0 0
4.92 0 0
4.96 0 0
5 0 0
5.04 0 0
5.08 0 0
5.12 0 0
5.16 0 0
5.2 0 0
5.24 0 0
5.28 0 0
5.32 0 0
5.36 0 0
5.4 0 0
5.44 0 0
5.48 0 0
5.52 0 0
5.56 0 0
5.6 0 0
5.64 0 0
5.68 0 0
5.72 0 0
5.76 0 0
5.8 0 0
5.84 0 0
5.88 0 0
5.92 0 0
5.96 0 0
6 0 0
6.04 0 0
6.08 0 0
6.12 0 0
6.16 0 0
6.2 0 0
6.24 0 0
6.28 0 0
6.32 0 0
6.36 0 0
6.4 0 0
6.44 0 0
6.48 0 0
6.52 0 0
6.56 0 0
6.6 0 0
6.64 0 0
6.68 0 0
6.72 0 0
6.76 0 0
6.8 0 0
6.84 0 0
6.88 0 0
6.92 0 0
6.96 0 0
7 0 0
7.04 0 0
7.08 0 0
7.12 0 0
7.16 0 0
7.2 0 0
7.24 0 0
7.28 0 0
7.32 0 0
7.36 0 0
7.4 0 0
7.44 0 0
7.48 0 0
7.52 0 0
7.56 0 0
7.6 0 0
7.64 0 0
7.68 0 0
7.72 0 0
7.76 0 0
7.8 0 0
7.84 0 0
7.88 0 0
7.92 0 0
7.96 0 0
8 0 0
8.04 0 0
8.08 0 0
8.12 0 0
8.16 0 0
8.2 0 0
8.24 0 0
8.28 0 0
8.32 0 0
8.36 0 0
8.4 0 0
8.44 0 0
8.48 0 0
8.52 0 0
8.56 0 0
8.6 0 0
8.64 0 0
8.68 0 0
8.72 0 0
8.76 0 0
8.8 0 0
8.84 0 0
8.88 0 0
8.92 0 0
8.96 0 0
9 0 0
9.04 0 0
9.08 0 0
9.12 0 0
9.16 0 0
9.2 0 0
9.24 0 0
9.28 0 0
9.32 0 0
9.36 0 0
9.4 0 0
9.44 0 0
9.48 0 0
9.52 0 0
9.56 0 0
9.6 0 0
9.64 0 0
9.68 0 0
9.72 0 0
9.76 0 0
9.8 0 0
9.84 0 0
9.88 0 0
9.92 0 0
9.96 0 0
10 0 0
10.04 0 0
10.08 0 0
10.12 0 0
10.16 0 0
10.2 0 0
10.24 0 0
10.28 0 0
10.32 0 0
10.36 0 0
10.4 0 0
10.44 0 0
10.48 0 0
10.52 0 0
10.56 0 0
10.6 0 0
10.64 0 0
10.68 0 0
10.72 0 0
10.76 0 0
10.8 0 0
10.84 0 0
10.88 0 0
10.92 0 0
10.96 0 0
11 0 0
11.04 0 0
11.08 0 0
11.12 0 0
11.16 0 0
11.2 0 0
11.24 0 0
11.28 0 0
11.32 0 0
11.36 0 0
11.4 0 0
11.44 0 0
11.48 0 0
11.52 0 0
11.56 0 0
11.6 0 0
11.64 0 0
11.68 0 0
11.72 0 0
11.76 0 0
11.8 0 0
11.84 0 0
11.88 0 0
11.92 0 0
11.96 0 0
12 0 0
12.04 0 0
12.08 0 0
12.12 0 0
12.16 0 0
12.2 0 0
12.24 0 0
12.28 0 0
12.32 0 0
12.36 0 0
12.4 0 0
12.44 0 0
12.48 0 0
12.52 0 0
12.56 0 0
12.6 0 0
12.64 0 0
12.68 0 0
12.72 0 0
12.76 0 0
12.8 0 0
12.84 0 0
12.88 0 0
12.92 0 0
12.96 0 0
13 0 0
13.04 0 0
13.08 0 0
13.12 0 0
13.16 0 0
13.2 0 0
13.24 0 0
13.28 0 0
13.32 0 0
13.36 0 0
13.4 0 0
13.44 0 0
13.48 0 0
13.52 0 0
13.56 0 0
13.6 0 0
13.64 0 0
13.68 0 0
13.72 0 0
13.76 0 0
13.8 0 0
13.84 0 0
13.88 0 0
13.92 0 0
13.96 0 0
14 0 0
14.04 0 0
14.08 0 0
14.12 0 0
14.16 0 0
14.2 0 0
14.24 0 0
14.28 0 0
14.32 0 0
14.36 0 0
14.4 0 0
14.44 0 0
14.48 0 0
14.52 0 0
14.56 0 0
14.6 0 0
14.64 0 0
14.68 0 0
14.72 0 0
14.76 0 0
14.8 0 0
14.84 0 0
14.88 0 0
14.92 0 0
14.96 0 0
15 0 0
15.04 0 0
15.08 0 0
15.12 0 0
15.16 0 0
15.2 0 0
15.24 0 0
15.28 0 0
15.32 0 0
15.36 0 0
15.4 0 0
15.44 0 0
15.48 0 0
15.52 0 0
15.56 0 0
15.6 0 0
15.64 0 0
15.68 0 0
15.72 0 0
15.76 0 0
15.8 0 0
15.84 0 0
15.88 0 0
15.92 0 0
15.96 0 0
16 0 0
16.04 0 0
16.08 0 0
16.12 0 0
16.16 0 0
16.2 0 0
16.24 0 0
16.28 0 0
16.32 0 0
16.36 0 0
16.4 0 0
16.44 0 0
16.48 0 0
16.52 0 0
16.56 0 0
16.6 0 0
16.64 0 0
16.68 0 0
16.72 0 0
16.76 0 0
16.8 0 0
16.84 0 0
16.88 0 0
16.92 0 0
16.96 0 0
17 0 0
17.04 0 0
17.08 0 0
17.12 0 0
17.16 0 0
17.2 0 0
17.24 0 0
17.28 0 0
17.32 0 0
17.36 0 0
17.4 0 0
17.44 0 0
17.48 0 0
17.52 0 0
17.56 0 0
17.6 0 0
17.64 0 0
17.68 0 0
17.72 0 0
17.76 0 0
17.8 0 0
17.84 0 0
17.88 0 0
17.92 0 0
17.96 0 0
18 0 0
18.04 0 0
18.08 0 0
18.12 0 0
18.16 0 0
18.2 0 0
18.24 0 0
18.28 0 0
18.32 0 0
18.36 0 0
18.4 0 0
18.44 0 0
18.48 0 0
18.52 0 0
18.56 0 0
18.6 0 0
18.64 0 0
18.68 0 0
18.72 0 0
18.76 0 0
18.8 0 0
18.84 0 0
18.88 0 0
18.92 0 0
18.96 0 0
19 0 0
19.04 0 0
19.08 0 0
19.12 0 0
19.16 0 0
19.2 0 0
19.24 0 0
19.28 0 0
19.32 0 0
19.36 0 0
19.4 0 0
19.44 0 0
19.48 0 0
19.52 0 0
19.56 0 0
19.6 0 0
19.64 0 0
19.68 0 0
19.72 0 0
19.76 0 0
19.8 0 0
19.84 0 0
19.88 0 0
19.92 0 0
19.96 0 0
20 0 0
20.04 0 0
20.08 0 0
20.12 0 0
20.16 0 0
20.2 0 0
20.24 0 0
20.28 0 0
20.32 0 0
20.36 0 0
20.4 0 0
20.44 0 0
20.48 0 0
20.52 0 0
20.56 0 0
20.6 0 0
20.64 0 0
20.68 0 0
20.72 0 0
20.76 0 0
20.8 0 0
20.84 0 0
20.88 0 0
20.92 0 0
20.96 0 0
21 0 0
21.04 0 0
21.08 0 0
21.12 0 0
21.16 0 0
21.2 0 0
21.24 0 0
21.28 0 0
21.32 0 0
21.36 0 0
21.4 0 0
21.44 0 0
21.48 0 0
21.52 0 0
21.56 0 0
21.6 0 0
21.64 0 0
21.68 0 0
21.72 0 0
21.76 0 0
21.8 0 0
21.84 0 0
21.88 0 0
21.92 0 0
21.96 0 0
22 0 0
22.04 0 0
22.08 0 0
22.12 0 0
22.16 0 0
22.2 0 0
22.24 0 0
22.28 0 0
22.32 0 0
22.36 0 0
22.4 0 0
22.44 0 0
22.48 0 0
22.52 0 0
22.56 0 0
22.6 0 0
22.64 0 0
22.68 0 0
22.72 0 0
22.76 0 0
22.8 0 0
22.84 0 0
22.88 0 0
22.92 0 0
22.96 0 0
23 0 0
23.04 0 0
23.08 0 0
23.12 0 0
23.16 0 0
23.2 0 0
23.24 0 0
23.28 0 0
23.32 0 0
23.36 0 0
23.4 0 0
23.44 0 0
23.48 0 0
23.52 0 0
23.56 0 0
23.6 0 0
23.64 0 0
23.68 0 0
23.72 0 0
23.76 0 0
23.8 0 0
23.84 0 0
23.88 0 0
23.92 0 0
23.96 0 0
24 0 0
24.04 0 0
24.08 0 0
24.12 0 0
24.16 0 0
24.2 0 0
24.24 0 0
24.28 0 0
24.32 0 0
24.36 0 0
24.4 0 0
24.44 0 0
24.48 0 0
24.52 0 0
24.56 0 0
24.6 0 0
24.64 0 0
24.68 0 0
24.72 0 0
24.76 0 0
24.8 0 0
24.84 0 0
24.88 0 0
24.92 0 0
24.96 0 0
25 0 0
25.04 0 0
25.08 0 0
25.12 0 0
25.16 0 0
25.2 0 0
25.24 0 0
25.28 0 0
25.32 0 0
25.36 0 0
25.4 0 0
25.44 0 0
25.48 0 0
25.52 0 0
25.56 0 0
25.6 0 0
25.64 0 0
25.68 0 0
25.72 0 0
25.76 0 0
25.8 0 0
25.84 0 0
25.88 0 0
25.92 0 0
25.96 0 0
26 0 0
26.04 0 0
26.08 0 0
26.12 0 0
26.16 0 0
26.2 0 0
26.24 0 0
26.28 0 0
26.32 0 0
26.36 0 0
26.4 0 0
26.44 0 0
26.48 0 0
26.52 0 0
26.56 0 0
26.6 0 0
26.64 0 0
26.68 0 0
26.72 0 0
26.76 0 0
26.8 0 0
26.84 0 0
26.88 0 0
26.92 0 0
26.96 0 0
27 0 0
27.04 0 0
27.08 0 0
27.12 0 0
27.16 0 0
27.2 0 0
27.24 0 0
27.28 0 0
27.32 0 0
27.36 0 0
27.4 0 0
27.44 0 0
27.48 0 0
27.52 0 0
27.56 0 0
27.6 0 0
27.64 0 0
27.68 0 0
27.72 0 0
27.76 0 0
27.8 0 0
27.84 0 0
27.88 0 0
27.92 0 0
27.96 0 0
28 0 0
28.04 0 0
28.08 0 0
28.12 0 0
28.16 0 0
28.2 0 0
28.24 0 0
28.28 0 0
28.32 0 0
28.36 0 0
28.4 0 0
28.44 0 0
28.48 0 0
28.52 0 0
28.56 0 0
28.6 0 0
28.64 0 0
28.68 0 0
28.72 0 0
28.76 0 0
28.8 0 0
28.84 0 0
28.88 0 0
28.92 0 0
28.96 0 0
29 0 0
29.04 0 0
29.08 0 0
29.12 0 0
29.16 0 0
29.2 0 0
29.24 0 0
29.28 0 0
29.32 0 0
29.36 0 0
29.4 0 0
29.44 0 0
29.48 0 0
29.52 0 0
29.56 0 0
29.6 0 0
29.64 0 0
29.68 0 0
29.72 0 0
29.76 0 0
29.8 0 0
29.84 0 0
29.88 0 0
29.92 0 0
29.96 0 0
30 0 0
30.04 0 0
30.08 0 0
30.12 0 0
30.16 0 0
30.2 0 0
30.24 0 0
30.28 0 0
30.32 0 0
30.36 0 0
30.4 0 0
30.44 0 0
30.48 0 0
30.52 0 0
30.56 0 0
30.6 0 0
30.64 0 0
30.68 0 0
30.72 0 0
30.76 0 0
30.8 0 0
30.84 0 0
30.88 0 0
30.92 0 0
30.96 0 0
31 0 0
31.04 0 0
31.08 0 0
31.12 0 0
31.16 0 0
31.2 0 0
31.24 0 0
31.28 0 0
31.32 0 0
31.36 0 0
31.4 0 0
31.44 0 0
31.48 0 0
31.52 0 0
31.56 0 0
31.6 0 0
31.64 0 0
31.68 0 0
31.72 0 0
31.76 0 0
31.8 0 0
31.84 0 0
31.88 0 0
31.92 0 0
31.96 0 0
0 0.005 0
0.04 0.005 0
0.08 0.005 0
0.12 0.005 0
0.16 0.005 0
0.2 0.005 0
0.24 0.005 0
0.28 0.005 0
0.32 0.005 0
0.36 0.005 0
0.4 0.005 0
0.44 0.005 0
0.48 0.005 0
0.52 0.005 0
0.56 0.005 0
0.6 0.005 0
0.64 0.005 0
0.68 0.005 0
0.72 0.005 0
0.76 0.005 0
0.8 0.005 0
0.84 0.005 0
0.88 0.005 0
0.92 0.005 0
0.96 0.005 0
1 0.005 0
1.04 0.005 0
1.08 0.005 0
1.12 0.005 0
1.16 0.005 0
1.2 0.005 0
1.24 0.005 0
1.28 0.005 0
1.32 0.005 0
1.36 0.005 0
1.4 0.005 0
1.44 0.005 0
1.48 0.005 0
1.52 0.005 0
1.56 0.005 0
1.6 0.005 0
1.64 0.005 0
1.68 0.005 0
1.72 0.005 0
1.76 0.005 0
1.8 0.005 0
1.84 0.005 0
1.88 0.005 0
1.92 0.005 0
1.96 0.005 0
2 0.005 0
2.04 0.005 0
2.08 0.005 0
2.12 0.005 0
2.16 0.005 0
2.2 0.005 0
2.24 0.005 0
2.28 0.005 0
2.32 0.005 0
2.36 0.005 0
2.4 0.005 0
2.44 0.005 0
2.48 0.005 0
2.52 0.005 0
2.56 0.005 0
2.6 0.005 0
2.64 0.005 0
2.68 0.005 0
2.72 0.005 0
2.76 0.005 0
2.8 0.005 0
2.84 0.005 0
2.88 0.005 0
2.92 0.005 0
2.96 0.005 0
3 0.005 0
3.04 0.005 0
3.08 0.005 0
3.12 0.005 0
3.16 0.005 0
3.2 0.005 0
3.24 0.005 0
3.28 0.005 0
3.32 0.005 0
3.36 0.005 0
3.4 0.005 0
3.44 0.005 0
3.48 0.005 0
3.52 0.005 0
3.56 0.005 0
3.6 0.005 0
3.64 0.005 0
3.68 0.005 0
3.72 0.005 0
3.76 0.005 0
3.8 0.005 0
3.84 0.005 0
3.88 0.005 0
3.92 0.005 0
3.96 0.005 0
4 0.005 0
4.04 0.005 0
4.08 0.005 0
4.12 0.005 0
4.16 0.005 0
4.2 0.005 0
4.24 0.005 0
4.28 0.005 0
4.32 0.005 0
4.36 0.005 0
4.4 0.005 0
4.44 0.005 0
4.48 0.005 0
4.52 0.005 0
4.56 0.005 0
4.6 0.005 0
4.64 0.005 0
4.68 0.005 0
4.72 0.005 0
4.76 0.005 0
4.8 0.005 0
4.84 0.005 0
4.88 0.005 0
4.92 0.005 0
4.96 0.005 0
5 0.005 0
5.04 0.005 0
5.08 0.005 0
5.12 0.005 0
5.16 0.005 0
5.2 0.005 0
5.24 0.005 0
5.28 0.005 0
5.32 0.005 0
5.36 0.005 0
5.4 0.005 0
5.44 0.005 0
5.48 0.005 0
5.52 0.005 0
5.56 0.005 0
5.6 0.005 0
5.64 0.005 0
5.68 0.005 0
5.72 0.005 0
5.76 0.005 0
5.8 0.005 0
5.84 0.005 0
5.88 0.005 0
5.92 0.005 0
5.96 0.005 0
6 0.005 0
6.04 0.005 0
6.08 0.005 0
6.12 0.005 0
6.16 0.005 0
6.2 0.005 0
6.24 0.005 0
6.28 0.005 0
6.32 0.005 0
6.36 0.005 0
6.4 0.005 0
6.44 0.005 0
6.48 0.005 0
6.52 0.005 0
6.56 0.005 0
6.6 0.005 0
6.64 0.005 0
6.68 0.005 0
6.72 0.005 0
6.76 0.005 0
6.8 0.005 0
6.84 0.005 0
6.88 0.005 0
6.92 0.005 0
6.96 0.005 0
7 0.005 0
7.04 0.005 0
7.08 0.005 0
7.12 0.005 0
7.16 0.005 0
7.2 0.005 0
7.24 0.005 0
7.28 0.005 0
7.32 0.005 0
7.36 0.005 0
7.4 0.005 0
[...]
POINT_DATA 160000

SCALARS p float 1
LOOKUP_TABLE default
1
43.4446
41.2291
40.9742
40.9141
40.8877
40.8716
40.86
40.8508
40.8429
40.836
40.8296
40.8238
40.8182
40.8129
40.8078
40.8028
40.798
40.7933
40.7887
40.7841
40.7796
40.7753
40.7709
40.7666
40.7624
40.7583
40.7542
40.7501
40.7461
40.7421
40.7382
40.7343
40.7305
40.7267
40.723
40.7192
40.7156
40.7119
40.7083
40.7048
40.7013
40.6978
40.6943
40.6909
40.6875
40.6841
40.6808
40.6775
40.6742
40.6709
40.6677
40.6645
40.6613
40.6582
40.6551
40.652
40.6489
40.6458
40.6428
40.6398
40.6368
40.6338
40.6309
40.6279
40.625
40.6221
40.6193
40.6164
40.6136
40.6107
40.6079
40.6051
40.6024
40.5996
40.5969
40.5941
40.5914
40.5887
40.586
40.5834
40.5807
40.5781
40.5754
40.5728
40.5702
40.5676
40.5651
40.5625
40.5599
40.5574
40.5549
40.5523
40.5498
40.5473
40.5449
40.5424
40.5399
40.5375
40.535
40.5326
40.5301
40.5277
40.5253
40.5229
40.5205
40.5182
40.5158
40.5134
40.5111
40.5087
40.5064
40.5041
40.5018
40.4994
40.4971
40.4948
40.4926
40.4903
40.488
40.4857
40.4835
40.4812
40.479
40.4768
40.4745
40.4723
40.4701
40.4679
40.4657
40.4635
40.4613
40.4591
40.457
40.4548
40.4526
40.4505
40.4483
40.4462
40.444
40.4419
40.4398
40.4377
40.4355
40.4334
40.4313
40.4292
40.4271
40.4251
40.423
40.4209
40.4188
40.4168
40.4147
40.4126
40.4106
40.4085
40.4065
40.4045
40.4024
40.4004
40.3984
40.3964
40.3943
40.3923
40.3903
40.3883
40.3863
40.3843
40.3824
40.3804
40.3784
40.3764
40.3744
40.3725
40.3705
40.3686
40.3666
40.3646
40.3627
40.3608
40.3588
40.3569
40.3549
40.353
40.3511
40.3492
40.3472
40.3453
40.3434
40.3415
40.3396
40.3377
40.3358
40.3339
40.332
40.3301
40.3282
40.3264
40.3245
40.3226
40.3207
40.3189
40.317
40.3151
40.3133
40.3114
40.3096
40.3077
40.3059
40.304
40.3022
40.3003
40.2985
40.2967
40.2948
40.293
40.2912
40.2894
40.2875
40.2857
40.2839
40.2821
40.2803
40.2785
40.2767
40.2749
40.273
40.2712
40.2695
40.2677
40.2659
40.2641
40.2623
40.2605
40.2587
40.2569
40.2552
40.2534
40.2516
40.2498
40.2481
40.2463
40.2445
40.2428
40.241
40.2392
40.2375
40.2357
40.234
40.2322
40.2305
40.2287
40.227
40.2252
40.2235
40.2217
40.22
40.2183
40.2165
40.2148
40.2131
40.2113
40.2096
40.2079
40.2061
40.2044
40.2027
40.201
40.1992
40.1975
40.1958
40.1941
40.1924
40.1907
40.189
40.1873
40.1855
40.1838
40.1821
40.1804
40.1787
40.177
40.1753
40.1736
40.1719
40.1702
40.1686
40.1669
40.1652
40.1635
40.1618
40.1601
40.1584
40.1567
40.1551
40.1534
40.1517
40.15
40.1483
40.1467
40.145
40.1433
40.1416
40.14
40.1383
40.1366
40.1349
40.1333
40.1316
40.1299
40.1283
40.1266
40.125
40.1233
40.1216
40.12
40.1183
40.1167
40.115
40.1133
40.1117
40.11
40.1084
40.1067
40.1051
40.1034
40.1018
40.1001
40.0985
40.0968
40.0952
40.0936
40.0919
40.0903
40.0886
40.087
40.0853
40.0837
40.0821
40.0804
40.0788
40.0772
40.0755
40.0739
40.0723
40.0706
40.069
40.0674
40.0657
40.0641
40.0625
40.0608
40.0592
40.0576
40.056
40.0543
40.0527
40.0511
40.0495
40.0478
40.0462
40.0446
40.043
40.0414
40.0397
40.0381
40.0365
40.0349
40.0333
40.0316
40.03
40.0284
40.0268
40.0252
40.0236
40.022
40.0203
40.0187
40.0171
40.0155
40.0139
40.0123
40.0107
40.0091
40.0075
40.0059
40.0043
40.0026
40.001
39.9994
39.9978
39.9962
39.9946
39.993
39.9914
39.9898
39.9882
39.9866
39.985
39.9834
39.9818
39.9802
39.9786
39.977
39.9754
39.9738
39.9722
39.9706
39.969
39.9674
39.9658
39.9642
39.9626
39.961
39.9594
39.9579
39.9563
39.9547
39.9531
39.9515
39.9499
39.9483
39.9467
39.9451
39.9435
39.9419
39.9403
39.9388
39.9372
39.9356
39.934
39.9324
39.9308
39.9292
39.9276
39.926
39.9245
39.9229
39.9213
39.9197
39.9181
39.9165
39.915
39.9134
39.9118
39.9102
39.9086
39.907
39.9054
39.9039
39.9023
39.9007
39.8991
39.8975
39.896
39.8944
39.8928
39.8912
39.8896
39.8881
39.8865
39.8849
39.8833
39.8817
39.8802
39.8786
39.877
39.8754
39.8739
39.8723
39.8707
39.8691
39.8675
39.866
39.8644
39.8628
39.8612
39.8597
39.8581
39.8565
39.8549
39.8534
39.8518
39.8502
39.8486
39.8471
39.8455
39.8439
39.8424
39.8408
39.8392
39.8376
39.8361
39.8345
39.8329
39.8314
39.8298
39.8282
39.8266
39.8251
39.8235
39.8219
39.8204
39.8188
39.8172
39.8157
39.8141
39.8125
39.8109
39.8094
39.8078
39.8062
39.8047
39.8031
39.8015
39.8
39.7984
39.7968
39.7953
39.7937
39.7921
39.7906
39.789
39.7874
39.7859
39.7843
39.7827
39.7812
39.7796
39.778
39.7765
39.7749
39.7734
39.7718
39.7702
39.7687
39.7671
39.7655
39.764
39.7624
39.7608
39.7593
39.7577
39.7562
39.7546
39.753
39.7515
39.7499
39.7483
39.7468
39.7452
39.7437
39.7421
39.7405
39.739
39.7374
39.7359
39.7343
39.7327
39.7312
39.7296
39.7281
39.7265
39.7249
39.7234
39.7218
39.7203
39.7187
39.7171
39.7156
39.714
39.7125
39.7109
39.7093
39.7078
39.7062
39.7047
39.7031
39.7016
39.7
39.6984
39.6969
39.6953
39.6938
39.6922
39.6906
39.6891
39.6875
39.686
39.6844
39.6829
39.6813
39.6797
39.6782
39.6766
39.6751
39.6735
39.672
39.6704
39.6689
39.6673
39.6657
39.6642
39.6626
39.6611
39.6595
39.658
39.6564
39.6548
39.6533
39.6517
39.6502
39.6486
39.6471
39.6455
39.644
39.6424
39.6408
39.6393
39.6377
39.6362
39.6346
39.6331
39.6315
39.63
39.6284
39.6269
39.6253
39.6237
39.6222
39.6206
39.6191
39.6175
39.616
39.6144
39.6129
39.6113
39.6098
39.6082
39.6066
39.6051
39.6035
39.602
39.6004
39.5989
39.5973
39.5958
39.5942
39.5927
39.5911
39.5896
39.588
39.5864
39.5849
39.5833
39.5818
39.5802
39.5787
39.5771
39.5756
39.574
39.5725
39.5709
39.5694
39.5678
39.5663
39.5647
39.5631
39.5616
39.56
39.5585
39.5569
39.5554
39.5538
39.5523
39.5507
39.5492
39.5476
39.5461
39.5445
39.543
39.5414
39.5399
39.5383
39.5368
39.5352
39.5336
39.5321
39.5305
39.529
39.5274
39.5259
39.5243
39.5228
39.5212
39.5197
39.5181
39.5166
39.515
39.5135
39.5119
39.5104
39.5088
39.5073
39.5057
39.5042
39.5026
39.5011
39.4995
39.4979
39.4964
39.4948
39.4933
39.4917
39.4902
39.4886
39.4871
39.4855
39.484
39.4824
39.4809
39.4793
39.4778
39.4762
39.4747
39.4731
39.4716
39.47
39.4685
39.4669
39.4654
39.4638
39.4623
39.4607
39.4592
39.4576
39.4561
39.4545
39.453
39.4514
39.4499
39.4483
39.4468
39.4452
39.4437
39.4421
39.4406
39.439
39.4375
39.4359
39.4344
39.4328
39.4313
39.4297
39.4282
39.4266
39.4251
39.4235
39.422
39.4204
39.4189
39.4173
39.4157
39.4142
39.4126
39.4111
39.4096
39.408
39.4065
39.4049
39.4034
39.4018
39.4003
39.3987
39.3972
39.3956
39.3941
39.3925
39.391
39.3894
39.3879
39.3863
39.3848
39.3832
39.3817
39.3801
39.3786
39.377
39.3755
39.3739
39.3724
39.3708
39.3693
39.3677
39.3662
39.3646
39.3631
39.3615
1
43.4446
43.4446
41.2291
40.9742
40.9141
40.8877
40.8716
40.86
40.8508
40.8429
40.836
40.8296
40.8238
40.8182
40.8129
40.8078
40.8028
40.798
40.7933
40.7887
40.7841
40.7796
40.7753
40.7709
40.7666
40.7624
40.7583
40.7542
40.7501
40.7461
40.7421
40.7382
40.7343
40.7305
40.7267
40.723
40.7192
40.7156
40.7119
40.7083
40.7048
40.7013
40.6978
40.6943
40.6909
40.6875
40.6841
40.6808
40.6775
40.6742
40.6709
40.6677
40.6645
40.6613
40.6582
40.6551
40.652
40.6489
40.6458
40.6428
40.6398
40.6368
40.6338
40.6309
40.6279
40.625
40.6221
40.6193
40.6164
40.6136
40.6107
40.6079
40.6051
40.6024
40.5996
40.5969
40.5941
40.5914
40.5887
40.586
40.5834
40.5807
40.5781
40.5754
40.5728
40.5702
40.5676
40.5651
40.5625
40.5599
40.5574
40.5549
40.5523
40.5498
40.5473
40.5449
40.5424
40.5399
40.5375
40.535
40.5326
40.5301
40.5277
40.5253
40.5229
40.5205
40.5182
40.5158
40.5134
40.5111
40.5087
40.5064
40.5041
40.5018
40.4994
40.4971
40.4948
40.4926
40.4903
40.488
40.4857
40.4835
40.4812
40.479
40.4768
40.4745
40.4723
40.4701
40.4679
40.4657
40.4635
40.4613
40.4591
40.457
40.4548
40.4526
40.4505
40.4483
40.4462
40.444
40.4419
40.4398
40.4377
40.4355
40.4334
40.4313
40.4292
40.4271
40.4251
40.423
40.4209
40.4188
40.4168
40.4147
40.4126
40.4106
40.4085
40.4065
40.4045
40.4024
40.4004
40.3984
40.3964
40.3943
40.3923
40.3903
40.3883
40.3863
40.3843
40.3824
40.3804
40.3784
40.3764
40.3744
40.3725
40.3705
40.3686
40.3666
40.3646
40.3627
40.3608
40.3588
40.3569
40.3549
40.353
40.3511
40.3492
40.3472
40.3453
40.3434
40.3415
40.3396
40.3377
40.3358
40.3339
40.332
40.3301
40.3282
40.3264
40.3245
40.3226
40.3207
40.3189
40.317
40.3151
40.3133
40.3114
40.3096
40.3077
40.3059
40.304
40.3022
40.3003
40.2985
40.2967
40.2948
40.293
40.2912
40.2894
40.2875
40.2857
40.2839
40.2821
40.2803
40.2785
40.2767
40.2749
40.273
40.2712
40.2695
40.2677
40.2659
40.2641
40.2623
40.2605
40.2587
40.2569
40.2552
40.2534
40.2516
40.2498
40.2481
40.2463
40.2445
40.2428
40.241
40.2392
40.2375
40.2357
40.234
40.2322
40.2305
40.2287
40.227
40.2252
40.2235
40.2217
40.22
40.2183
40.2165
40.2148
40.2131
40.2113
40.2096
40.2079
40.2061
40.2044
40.2027
40.201
40.1992
40.1975
40.1958
40.1941
40.1924
40.1907
40.189
40.1873
40.1855
40.1838
40.1821
40.1804
40.1787
40.177
40.1753
40.1736
40.1719
40.1702
40.1686
40.1669
40.1652
40.1635
40.1618
40.1601
40.1584
40.1567
40.1551
40.1534
40.1517
40.15
40.1483
40.1467
40.145
40.1433
40.1416
40.14
40.1383
40.1366
40.1349
40.1333
40.1316
40.1299
40.1283
40.1266
40.125
40.1233
40.1216
40.12
40.1183
40.1167
40.115
40.1133
40.1117
40.11
40.1084
40.1067
40.1051
40.1034
40.1018
40.1001
40.0985
40.0968
40.0952
40.0936
40.0919
40.0903
40.0886
40.087
40.0853
40.0837
40.0821
40.0804
40.0788
40.0772
40.0755
40.0739
40.0723
40.0706
40.069
40.0674
40.0657
40.0641
40.0625
40.0608
40.0592
40.0576
40.056
40.0543
40.0527
40.0511
40.0495
40.0478
40.0462
40.0446
40.043
40.0414
40.0397
40.0381
40.0365
40.0349
40.0333
40.0316
40.03
40.0284
40.0268
40.0252
40.0236
40.022
40.0203
40.0187
40.0171
40.0155
40.0139
40.0123
40.0107
40.0091
40.0075
40.0059
40.0043
40.0026
40.001
39.9994
39.9978
39.9962
39.9946
39.993
39.9914
39.9898
39.9882
39.9866
39.985
39.9834
39.9818
39.9802
39.9786
39.977
39.9754
39.9738
39.9722
39.9706
39.969
39.9674
39.9658
39.9642
39.9626
39.961
39.9594
39.9579
39.9563
39.9547
39.9531
39.9515
39.9499
39.9483
39.9467
39.9451
39.9435
39.9419
39.9403
39.9388
39.9372
39.9356
39.934
39.9324
39.9308
39.9292
39.9276
39.926
39.9245
39.9229
39.9213
39.9197
39.9181
39.9165
39.915
39.9134
39.9118
39.9102
39.9086
39.907
39.9054
39.9039
39.9023
39.9007
39.8991
39.8975
39.896
39.8944
39.8928
39.8912
39.8896
39.8881
39.8865
39.8849
39.8833
39.8817
39.8802
39.8786
39.877
39.8754
39.8739
39.8723
39.8707
39.8691
39.8675
39.866
39.8644
39.8628
39.8612
39.8597
39.8581
39.8565
39.8549
39.8534
39.8518
39.8502
39.8486
39.8471
39.8455
39.8439
39.8424
39.8408
39.8392
39.8376
39.8361
39.8345
39.8329
39.8314
39.8298
39.8282
39.8266
39.8251
39.8235
39.8219
39.8204
39.8188
39.8172
39.8157
39.8141
39.8125
39.8109
39.8094
39.8078
39.8062
39.8047
39.8031
39.8015
39.8
39.7984
39.7968
39.7953
39.7937
39.7921
39.7906
39.789
39.7874
39.7859
39.7843
39.7827
39.7812
39.7796
39.778
39.7765
39.7749
39.7734
39.7718
39.7702
39.7687
39.7671
39.7655
39.764
39.7624
39.7608
39.7593
39.7577
39.7562
39.7546
39.753
39.7515
39.7499
39.7483
39.7468
39.7452
39.7437
39.7421
39.7405
39.739
39.7374
39.7359
39.7343
39.7327
39.7312
39.7296
39.7281
39.7265
39.7249
39.7234
39.7218
39.7203
39.7187
39.7171
39.7156
39.714
39.7125
39.7109
39.7093
39.7078
39.7062
39.7047
39.7031
39.7016
39.7
39.6984
39.6969
39.6953
39.6938
39.6922
39.6906
39.6891
39.6875
39.686
39.6844
39.6829
39.6813
39.6797
39.6782
39.6766
39.6751
39.6735
39.672
39.6704
39.6689
39.6673
39.6657
39.6642
39.6626
39.6611
39.6595
39.658
39.6564
39.6548
39.6533
39.6517
39.6502
39.6486
39.6471
39.6455
39.644
39.6424
39.6408
39.6393
39.6377
39.6362
39.6346
39.6331
39.6315
39.63
39.6284
39.6269
39.6253
39.6237
39.6222
39.6206
39.6191
39.6175
39.616
39.6144
39.6129
39.6113
39.6098
39.6082
39.6066
39.6051
39.6035
39.602
39.6004
39.5989
39.5973
39.5958
39.5942
39.5927
39.5911
39.5896
39.588
39.5864
39.5849
39.5833
39.5818
39.5802
39.5787
39.5771
39.5756
39.574
39.5725
39.5709
39.5694
39.5678
39.5663
39.5647
39.5631
39.5616
39.56
39.5585
39.5569
39.5554
39.5538
39.5523
39.5507
39.5492
39.5476
39.5461
39.5445
39.543
39.5414
39.5399
39.5383
39.5368
39.5352
39.5336
39.5321
39.5305
39.529
39.5274
39.5259
39.5243
39.5228
39.5212
39.5197
39.5181
39.5166
39.515
39.5135
39.5119
39.5104
39.5088
39.5073
39.5057
39.5042
39.5026
39.5011
39.4995
39.4979
39.4964
39.4948
39.4933
39.4917
39.4902
39.4886
39.4871
39.4855
39.484
39.4824
39.4809
39.4793
39.4778
39.4762
39.4747
39.4731
39.4716
39.47
39.4685
39.4669
39.4654
39.4638
39.4623
39.4607
39.4592
39.4576
39.4561
39.4545
39.453
39.4514
39.4499
39.4483
39.4468
39.4452
39.4437
39.4421
39.4406
39.439
39.4375
39.4359
39.4344
39.4328
39.4313
39.4297
39.4282
39.4266
39.4251
39.4235
39.422
39.4204
39.4189
39.4173
39.4157
39.4142
39.4126
39.4111
39.4096
39.408
39.4065
39.4049
39.4034
39.4018
39.4003
39.3987
39.3972
39.3956
39.3941
39.3925
39.391
39.3894
39.3879
39.3863
39.3848
39.3832
39.3817
39.3801
39.3786
39.377
39.3755
39.3739
39.3724
39.3708
39.3693
39.3677
39.3662
39.3646
39.3631
39.3615
39.3615
42.7975
42.7975
41.2395
40.9837
40.9182
40.8899
40.873
40.861
40.8515
40.8435
40.8364
40.83
40.8241
40.8185
40.8131
40.808
40.803
40.7981
40.7934
40.7888
40.7842
40.7797
40.7753
40.771
40.7667
40.7625
40.7583
40.7542
40.7502
40.7461
40.7422
40.7383
40.7344
40.7305
40.7267
40.723
40.7193
40.7156
40.712
40.7084
40.7048
40.7013
40.6978
40.6943
40.6909
40.6875
40.6841
40.6808
40.6775
40.6742
40.671
40.6677
40.6645
40.6614
40.6582
40.6551
40.652
40.6489
40.6459
40.6428
40.6398
40.6368
40.6338
40.6309
40.628
40.625
40.6222
40.6193
40.6164
40.6136
40.6108
40.6079
40.6052
40.6024
40.5996
40.5969
40.5942
40.5914
40.5887
40.5861
40.5834
40.5807
40.5781
40.5755
40.5728
40.5702
40.5677
40.5651
40.5625
40.56
40.5574
40.5549
40.5524
40.5498
40.5474
40.5449
40.5424
40.5399
40.5375
40.535
40.5326
40.5302
40.5277
40.5253
40.5229
40.5206
40.5182
40.5158
40.5134
40.5111
40.5087
40.5064
40.5041
40.5018
40.4995
40.4972
40.4949
40.4926
40.4903
40.488
40.4858
40.4835
40.4813
40.479
40.4768
40.4745
40.4723
40.4701
40.4679
40.4657
40.4635
40.4613
40.4591
40.457
40.4548
40.4526
40.4505
40.4483
40.4462
40.444
40.4419
40.4398
40.4377
40.4356
40.4334
40.4313
40.4292
40.4272
40.4251
40.423
40.4209
40.4188
40.4168
40.4147
40.4126
40.4106
40.4085
40.4065
40.4045
40.4024
40.4004
40.3984
40.3964
40.3944
40.3923
40.3903
40.3883
40.3863
40.3843
40.3824
40.3804
40.3784
40.3764
40.3744
40.3725
40.3705
40.3686
40.3666
40.3646
40.3627
40.3608
40.3588
40.3569
40.3549
40.353
40.3511
40.3492
40.3473
40.3453
40.3434
40.3415
40.3396
40.3377
40.3358
40.3339
40.332
40.3301
40.3283
40.3264
40.3245
40.3226
40.3207
40.3189
40.317
40.3151
40.3133
40.3114
40.3096
40.3077
40.3059
40.304
40.3022
40.3003
40.2985
40.2967
40.2948
40.293
40.2912
40.2894
40.2875
40.2857
40.2839
40.2821
40.2803
40.2785
40.2767
40.2749
40.2731
40.2713
40.2695
40.2677
40.2659
40.2641
40.2623
40.2605
40.2587
40.2569
40.2552
40.2534
40.2516
40.2498
40.2481
40.2463
40.2445
40.2428
40.241
40.2392
40.2375
40.2357
40.234
40.2322
40.2305
40.2287
40.227
40.2252
40.2235
40.2217
40.22
40.2183
40.2165
40.2148
40.2131
40.2113
40.2096
40.2079
40.2061
40.2044
40.2027
40.201
40.1993
40.1975
40.1958
40.1941
40.1924
40.1907
40.189
40.1873
40.1856
40.1838
40.1821
40.1804
40.1787
40.177
40.1753
40.1736
40.1719
40.1703
40.1686
40.1669
40.1652
40.1635
40.1618
40.1601
40.1584
40.1567
40.1551
40.1534
40.1517
40.15
40.1483
40.1467
40.145
40.1433
40.1416
40.14
40.1383
40.1366
40.135
40.1333
40.1316
40.13
40.1283
40.1266
40.125
40.1233
40.1216
40.12
40.1183
40.1167
40.115
40.1134
40.1117
40.11
40.1084
40.1067
40.1051
40.1034
40.1018
40.1001
40.0985
40.0969
40.0952
40.0936
40.0919
40.0903
40.0886
40.087
40.0854
40.0837
40.0821
40.0804
40.0788
40.0772
40.0755
40.0739
40.0723
40.0706
40.069
40.0674
40.0657
40.0641
40.0625
40.0608
40.0592
40.0576
40.056
40.0543
40.0527
40.0511
40.0495
40.0478
40.0462
40.0446
40.043
40.0414
40.0397
40.0381
40.0365
40.0349
40.0333
40.0316
40.03
40.0284
40.0268
40.0252
40.0236
40.022
40.0203
40.0187
40.0171
40.0155
40.0139
40.0123
40.0107
40.0091
40.0075
40.0059
40.0043
40.0026
40.001
39.9994
39.9978
39.9962
39.9946
39.993
39.9914
39.9898
39.9882
39.9866
39.985
39.9834
39.9818
39.9802
39.9786
39.977
39.9754
39.9738
39.9722
39.9706
39.969
39.9674
39.9658
39.9642
39.9626
39.961
39.9594
39.9579
39.9563
39.9547
39.9531
39.9515
39.9499
39.9483
39.9467
39.9451
39.9435
39.9419
39.9403
39.9388
39.9372
39.9356
39.934
39.9324
39.9308
39.9292
39.9276
39.9261
39.9245
39.9229
39.9213
39.9197
39.9181
39.9165
39.915
39.9134
39.9118
39.9102
39.9086
39.907
39.9055
39.9039
39.9023
39.9007
39.8991
39.8975
39.896
39.8944
39.8928
39.8912
39.8896
39.8881
39.8865
39.8849
39.8833
39.8817
39.8802
39.8786
39.877
39.8754
39.8739
39.8723
39.8707
39.8691
39.8676
39.866
39.8644
39.8628
39.8612
39.8597
39.8581
39.8565
39.8549
39.8534
39.8518
39.8502
39.8487
39.8471
39.8455
39.8439
39.8424
39.8408
39.8392
39.8376
39.8361
39.8345
39.8329
39.8314
39.8298
39.8282
39.8266
39.8251
39.8235
39.8219
39.8204
39.8188
39.8172
39.8157
39.8141
39.8125
39.8109
39.8094
39.8078
39.8062
39.8047
39.8031
39.8015
39.8
39.7984
39.7968
39.7953
39.7937
39.7921
39.7906
39.789
39.7874
39.7859
39.7843
39.7827
39.7812
39.7796
39.7781
39.7765
39.7749
39.7734
39.7718
39.7702
39.7687
39.7671
39.7655
39.764
39.7624
39.7608
39.7593
39.7577
39.7562
39.7546
39.753
39.7515
39.7499
39.7483
39.7468
39.7452
39.7437
39.7421
39.7405
39.739
39.7374
39.7359
39.7343
39.7327
39.7312
39.7296
39.7281
39.7265
39.7249
39.7234
39.7218
39.7203
39.7187
39.7171
39.7156
39.714
39.7125
39.7109
39.7093
39.7078
39.7062
39.7047
39.7031
39.7016
39.7
39.6984
39.6969
39.6953
39.6938
39.6922
39.6907
39.6891
39.6875
39.686
39.6844
39.6829
39.6813
39.6798
39.6782
39.6766
39.6751
39.6735
39.672
39.6704
39.6689
39.6673
39.6657
39.6642
39.6626
39.6611
39.6595
39.658
39.6564
39.6549
39.6533
39.6517
39.6502
39.6486
39.6471
39.6455
39.644
39.6424
39.6409
39.6393
39.6377
39.6362
39.6346
39.6331
39.6315
39.63
39.6284
39.6269
39.6253
39.6237
39.6222
39.6206
39.6191
39.6175
39.616
39.6144
39.6129
39.6113
39.6098
39.6082
39.6067
39.6051
39.6035
39.602
39.6004
39.5989
39.5973
39.5958
39.5942
39.5927
39.5911
39.5896
39.588
39.5865
39.5849
39.5833
39.5818
39.5802
39.5787
39.5771
39.5756
39.574
39.5725
39.5709
39.5694
39.5678
39.5663
39.5647
39.5632
39.5616
39.56
39.5585
39.5569
39.5554
39.5538
39.5523
39.5507
39.5492
39.5476
39.5461
39.5445
39.543
39.5414
39.5399
39.5383
39.5368
39.5352
39.5336
39.5321
39.5305
39.529
39.5274
39.5259
39.5243
39.5228
39.5212
39.5197
39.5181
39.5166
39.515
39.5135
39.5119
39.5104
39.5088
39.5073
39.5057
39.5042
39.5026
39.5011
39.4995
39.498
39.4964
39.4948
39.4933
39.4917
39.4902
39.4886
39.4871
39.4855
39.484
39.4824
39.4809
39.4793
39.4778
39.4762
39.4747
39.4731
39.4716
39.47
39.4685
39.4669
39.4654
39.4638
39.4623
39.4607
39.4592
39.4576
39.4561
39.4545
39.453
39.4514
39.4499
39.4483
39.4468
39.4452
39.4437
39.4421
39.4406
39.439
39.4375
39.4359
39.4344
39.4328
39.4313
39.4297
39.4282
39.4266
39.4251
39.4235
39.422
39.4204
39.4189
39.4173
39.4158
39.4142
39.4127
39.4111
39.4096
39.408
39.4065
39.4049
39.4034
39.4018
39.4003
39.3987
39.3972
39.3956
39.3941
39.3925
39.391
39.3894
39.3879
39.3863
39.3848
39.3832
39.3817
39.3801
39.3786
39.377
39.3755
39.3739
39.3724
39.3708
39.3693
39.3677
39.3662
39.3646
39.3631
39.3615
39.3615
42.108
42.108
41.2237
40.9904
40.9219
40.8919
40.8743
40.8619
40.8522
40.844
40.8368
40.8304
40.8244
40.8187
40.8133
40.8082
40.8031
40.7983
40.7935
40.7889
40.7843
40.7798
40.7754
40.7711
40.7668
40.7626
40.7584
40.7543
40.7502
40.7462
40.7422
40.7383
40.7344
40.7306
40.7268
40.723
40.7193
40.7156
40.712
40.7084
40.7048
40.7013
40.6978
40.6944
40.6909
40.6875
40.6842
40.6808
40.6775
40.6742
40.671
40.6678
40.6646
40.6614
40.6582
40.6551
40.652
40.6489
40.6459
40.6428
40.6398
40.6368
40.6339
40.6309
40.628
40.6251
40.6222
40.6193
40.6164
40.6136
40.6108
40.608
40.6052
40.6024
40.5996
40.5969
40.5942
40.5915
40.5888
40.5861
40.5834
40.5807
40.5781
40.5755
40.5729
40.5703
40.5677
40.5651
40.5625
40.56
40.5574
40.5549
40.5524
40.5499
40.5474
40.5449
40.5424
40.5399
40.5375
40.535
40.5326
40.5302
40.5277
40.5253
40.5229
40.5206
40.5182
40.5158
40.5134
40.5111
40.5088
40.5064
40.5041
40.5018
40.4995
40.4972
40.4949
40.4926
40.4903
40.488
40.4858
40.4835
40.4813
40.479
40.4768
40.4746
40.4723
40.4701
40.4679
40.4657
40.4635
40.4613