# vtk DataFile Version 2.0
FlowField
ASCII
DATASET STRUCTURED_GRID
DIMENSIONS 800 1 200
POINTS 160000 float
0 0 0
0.04 0 0
0.08 0 0
0.12 0 0
0.16 0 0
0.2 0 0
0.24 0 0
0.28 0 0
0.32 0 0
0.36 0 0
0.4 0 0
0.44 0 0
0.48 0 0
0.52 0 0
0.56 0 0
0.6 0 0
0.64 0 0
0.68 0 0
0.72 0 0
0.76 0 0
0.8 0 0
0.84 0 0
0.88 0 0
0.92 0 0
0.96 0 0
1 0 0
1.04 0 0
1.08 0 0
1.12 0 0
1.16 0 0
1.2 0 0
1.24 0 0
1.28 0 0
1.32 0 0
1.36 0 0
1.4 0 0
1.44 0 0
1.48 0 0
1.52 0 0
1.56 0 0
1.6 0 0
1.64 0 0
1.68 0 0
1.72 0 0
1.76 0 0
1.8 0 0
1.84 0 0
1.88 0 0
1.92 0 0
1.96 0 0
2 0 0
2.04 0 0
2.08 0 0
2.12 0 0
2.16 0 0
2.2 0 0
2.24 0 0
2.28 0 0
2.32 0 0
2.36 0 0
2.4 0 0
2.44 0 0
2.48 0 0
2.52 0 0
2.56 0 0
2.6 0 0
2.64 0 0
2.68 0 0
2.72 0 0
2.76 0 0
2.8 0 0
2.84 0 0
2.88 0 0
2.92 0 0
2.96 0 0
3 0 0
3.04 0 0
3.08 0 0
3.12 0 0
3.16 0 0
3.2 0 0
3.24 0 0
3.28 0 0
3.32 0 0
3.36 0 0
3.4 0 0
3.44 0 0
3.48 0 0
3.52 0 0
3.56 0 0
3.6 0 0
3.64 0 0
3.68 0 0
3.72 0 0
3.76 0 0
3.8 0 0
3.84 0 0
3.88 0 0
3.92 0 0
3.96 0 0
4 0 0
4.04 0 0
4.08 0 0
4.12 0 0
4.16 0 0
4.2 0 0
4.24 0 0
4.28 0 0
4.32 0 0
4.36 0 0
4.4 0 0
4.44 0 0
4.48 0 0
4.52 0 0
4.56 0 0
4.6 0 0
4.64 0 0
4.68 0 0
4.72 0 0
4.76 0 0
4.8 0 0
4.84 0 0
4.88 0 0
4.92 0 0
4.96 0 0
5 0 0
5.04 0 0
5.08 0 0
5.12 0 0
5.16 0 0
5.2 0 0
5.24 0 0
5.28 0 0
5.32 0 0
5.36 0 0
5.4 0 0
5.44 0 0
5.48 0 0
5.52 0 0
5.56 0 0
5.6 0 0
5.64 0 0
5.68 0 0
5.72 0 0
5.76 0 0
5.8 0 0
5.84 0 0
5.88 0 0
5.92 0 0
5.96 0 0
6 0 0
6.04 0 0
6.08 0 0
6.12 0 0
6.16 0 0
6.2 0 0
6.24 0 0
6.28 0 0
6.32 0 0
6.36 0 0
6.4 0 0
6.44 0 0
6.48 0 0
6.52 0 0
6.56 0 0
6.6 0 0
6.64 0 0
6.68 0 0
6.72 0 0
6.76 0 0
6.8 0 0
6.84 0 0
6.88 0 0
6.92 0 0
6.96 0 0
7 0 0
7.04 0 0
7.08 0 0
7.12 0 0
7.16 0 0
7.2 0 0
7.24 0 0
7.28 0 0
7.32 0 0
7.36 0 0
7.4 0 0
7.44 0 0
7.48 0 0
7.52 0 0
7.56 0 0
7.6 0 0
7.64 0 0
7.68 0 0
7.72 0 0
7.76 0 0
7.8 0 0
7.84 0 0
7.88 0 0
7.92 0 0
7.96 0 0
8 0 0
8.04 0 0
8.08 0 0
8.12 0 0
8.16 0 0
8.2 0 0
8.24 0 0
8.28 0 0
8.32 0 0
8.36 0 0
8.4 0 0
8.44 0 0
8.48 0 0
8.52 0 0
8.56 0 0
8.6 0 0
8.64 0 0
8.68 0 0
8.72 0 0
8.76 0 0
8.8 0 0
8.84 0 0
8.88 0 0
8.92 0 0
8.96 0 0
9 0 0
9.04 0 0
9.08 0 0
9.12 0 0
9.16 0 0
9.2 0 0
9.24 0 0
9.28 0 0
9.32 0 0
9.36 0 0
9.4 0 0
9.44 0 0
9.48 0 0
9.52 0 0
9.56 0 0
9.6 0 0
9.64 0 0
9.68 0 0
9.72 0 0
9.76 0 0
9.8 0 0
9.84 0 0
9.88 0 0
9.92 0 0
9.96 0 0
10 0 0
10.04 0 0
10.08 0 0
10.12 0 0
10.16 0 0
10.2 0 0
10.24 0 0
10.28 0 0
10.32 0 0
10.36 0 0
10.4 0 0
10.44 0 0
10.48 0 0
10.52 0 0
10.56 0 0
10.6 0 0
10.64 0 0
10.68 0 0
10.72 0 0
10.76 0 0
10.8 0 0
10.84 0 0
10.88 0 0
10.92 0 0
10.96 0 0
11 0 0
11.04 0 0
11.08 0 0
11.12 0 0
11.16 0 0
11.2 0 0
11.24 0 0
11.28 0 0
11.32 0 0
11.36 0 0
11.4 0 0
11.44 0 0
11.48 0 0
11.52 0 0
11.56 0 0
11.6 0 0
11.64 0 0
11.68 0 0
11.72 0 0
11.76 0 0
11.8 0 0
11.84 0 0
11.88 0 0
11.92 0 0
11.96 0 0
12 0 0
12.04 0 0
12.08 0 0
12.12 0 0
12.16 0 0
12.2 0 0
12.24 0 0
12.28 0 0
12.32 0 0
12.36 0 0
12.4 0 0
12.44 0 0
12.48 0 0
12.52 0 0
12.56 0 0
12.6 0 0
12.64 0 0
12.68 0 0
12.72 0 0
12.76 0 0
12.8 0 0
12.84 0 0
12.88 0 0
12.92 0 0
12.96 0 0
13 0 0
13.04 0 0
13.08 0 0
13.12 0 0
13.16 0 0
13.2 0 0
13.24 0 0
13.28 0 0
13.32 0 0
13.36 0 0
13.4 0 0
13.44 0 0
13.48 0 0
13.52 0 0
13.56 0 0
13.6 0 0
13.64 0 0
13.68 0 0
13.72 0 0
13.76 0 0
13.8 0 0
13.84 0 0
13.88 0 0
13.92 0 0
13.96 0 0
14 0 0
14.04 0 0
14.08 0 0
14.12 0 0
14.16 0 0
14.2 0 0
14.24 0 0
14.28 0 0
14.32 0 0
14.36 0 0
14.4 0 0
14.44 0 0
14.48 0 0
14.52 0 0
14.56 0 0
14.6 0 0
14.64 0 0
14.68 0 0
14.72 0 0
14.76 0 0
14.8 0 0
14.84 0 0
14.88 0 0
14.92 0 0
14.96 0 0
15 0 0
15.04 0 0
15.08 0 0
15.12 0 0
15.16 0 0
15.2 0 0
15.24 0 0
15.28 0 0
15.32 0 0
15.36 0 0
15.4 0 0
15.44 0 0
15.48 0 0
15.52 0 0
15.56 0 0
15.6 0 0
15.64 0 0
15.68 0 0
15.72 0 0
15.76 0 0
15.8 0 0
15.84 0 0
15.88 0 0
15.92 0 0
15.96 0 0
16 0 0
16.04 0 0
16.08 0 0
16.12 0 0
16.16 0 0
16.2 0 0
16.24 0 0
16.28 0 0
16.32 0 0
16.36 0 0
16.4 0 0
16.44 0 0
16.48 0 0
16.52 0 0
16.56 0 0
16.6 0 0
16.64 0 0
16.68 0 0
16.72 0 0
16.76 0 0
16.8 0 0
16.84 0 0
16.88 0 0
16.92 0 0
16.96 0 0
17 0 0
17.04 0 0
17.08 0 0
17.12 0 0
17.16 0 0
17.2 0 0
17.24 0 0
17.28 0 0
17.32 0 0
17.36 0 0
17.4 0 0
17.44 0 0
17.48 0 0
17.52 0 0
17.56 0 0
17.6 0 0
17.64 0 0
17.68 0 0
17.72 0 0
17.76 0 0
17.8 0 0
17.84 0 0
17.88 0 0
17.92 0 0
17.96 0 0
18 0 0
18.04 0 0
18.08 0 0
18.12 0 0
18.16 0 0
18.2 0 0
18.24 0 0
18.28 0 0
18.32 0 0
18.36 0 0
18.4 0 0
18.44 0 0
18.48 0 0
18.52 0 0
18.56 0 0
18.6 0 0
18.64 0 0
18.68 0 0
18.72 0 0
18.76 0 0
18.8 0 0
18.84 0 0
18.88 0 0
18.92 0 0
18.96 0 0
19 0 0
19.04 0 0
19.08 0 0
19.12 0 0
19.16 0 0
19.2 0 0
19.24 0 0
19.28 0 0
19.32 0 0
19.36 0 0
19.4 0 0
19.44 0 0
19.48 0 0
19.52 0 0
19.56 0 0
19.6 0 0
19.64 0 0
19.68 0 0
19.72 0 0
19.76 0 0
19.8 0 0
19.84 0 0
19.88 0 0
19.92 0 0
19.96 0 0
20 0 0
20.04 0 0
20.08 0 0
20.12 0 0
20.16 0 0
20.2 0 0
20.24 0 0
20.28 0 0
20.32 0 0
20.36 0 0
20.4 0 0
20.44 0 0
20.48 0 0
20.52 0 0
20.56 0 0
20.6 0 0
20.64 0 0
20.68 0 0
20.72 0 0
20.76 0 0
20.8 0 0
20.84 0 0
20.88 0 0
20.92 0 0
20.96 0 0
21 0 0
21.04 0 0
21.08 0 0
21.12 0 0
21.16 0 0
21.2 0 0
21.24 0 0
21.28 0 0
21.32 0 0
21.36 0 0
21.4 0 0
21.44 0 0
21.48 0 0
21.52 0 0
21.56 0 0
21.6 0 0
21.64 0 0
21.68 0 0
21.72 0 0
21.76 0 0
21.8 0 0
21.84 0 0
21.88 0 0
21.92 0 0
21.96 0 0
22 0 0
22.04 0 0
22.08 0 0
22.12 0 0
22.16 0 0
22.2 0 0
22.24 0 0
22.28 0 0
22.32 0 0
22.36 0 0
22.4 0 0
22.44 0 0
22.48 0 0
22.52 0 0
22.56 0 0
22.6 0 0
22.64 0 0
22.68 0 0
22.72 0 0
22.76 0 0
22.8 0 0
22.84 0 0
22.88 0 0
22.92 0 0
22.96 0 0
23 0 0
23.04 0 0
23.08 0 0
23.12 0 0
23.16 0 0
23.2 0 0
23.24 0 0
23.28 0 0
23.32 0 0
23.36 0 0
23.4 0 0
23.44 0 0
23.48 0 0
23.52 0 0
23.56 0 0
23.6 0 0
23.64 0 0
23.68 0 0
23.72 0 0
23.76 0 0
23.8 0 0
23.84 0 0
23.88 0 0
23.92 0 0
23.96 0 0
24 0 0
24.04 0 0
24.08 0 0
24.12 0 0
24.16 0 0
24.2 0 0
24.24 0 0
24.28 0 0
24.32 0 0
24.36 0 0
24.4 0 0
24.44 0 0
24.48 0 0
24.52 0 0
24.56 0 0
24.6 0 0
24.64 0 0
24.68 0 0
24.72 0 0
24.76 0 0
24.8 0 0
24.84 0 0
24.88 0 0
24.92 0 0
24.96 0 0
25 0 0
25.04 0 0
25.08 0 0
25.12 0 0
25.16 0 0
25.2 0 0
25.24 0 0
25.28 0 0
25.32 0 0
25.36 0 0
25.4 0 0
25.44 0 0
25.48 0 0
25.52 0 0
25.56 0 0
25.6 0 0
25.64 0 0
25.68 0 0
25.72 0 0
25.76 0 0
25.8 0 0
25.84 0 0
25.88 0 0
25.92 0 0
25.96 0 0
26 0 0
26.04 0 0
26.08 0 0
26.12 0 0
26.16 0 0
26.2 0 0
26.24 0 0
26.28 0 0
26.32 0 0
26.36 0 0
26.4 0 0
26.44 0 0
26.48 0 0
26.52 0 0
26.56 0 0
26.6 0 0
26.64 0 0
26.68 0 0
26.72 0 0
26.76 0 0
26.8 0 0
26.84 0 0
26.88 0 0
26.92 0 0
26.96 0 0
27 0 0
27.04 0 0
27.08 0 0
27.12 0 0
27.16 0 0
27.2 0 0
27.24 0 0
27.28 0 0
27.32 0 0
27.36 0 0
27.4 0 0
27.44 0 0
27.48 0 0
27.52 0 0
27.56 0 0
27.6 0 0
27.64 0 0
27.68 0 0
27.72 0 0
27.76 0 0
27.8 0 0
27.84 0 0
27.88 0 0
27.92 0 0
27.96 0 0
28 0 0
28.04 0 0
28.08 0 0
28.12 0 0
28.16 0 0
28.2 0 0
28.24 0 0
28.28 0 0
28.32 0 0
28.36 0 0
28.4 0 0
28.44 0 0
28.48 0 0
28.52 0 0
28.56 0 0
28.6 0 0
28.64 0 0
28.68 0 0
28.72 0 0
28.76 0 0
28.8 0 0
28.84 0 0
28.88 0 0
28.92 0 0
28.96 0 0
29 0 0
29.04 0 0
29.08 0 0
29.12 0 0
29.16 0 0
29.2 0 0
29.24 0 0
29.28 0 0
29.32 0 0
29.36 0 0
29.4 0 0
29.44 0 0
29.48 0 0
29.52 0 0
29.56 0 0
29.6 0 0
29.64 0 0
29.68 0 0
29.72 0 0
29.76 0 0
29.8 0 0
29.84 0 0
29.88 0 0
29.92 0 0
29.96 0 0
30 0 0
30.04 0 0
30.08 0 0
30.12 0 0
30.16 0 0
30.2 0 0
30.24 0 0
30.28 0 0
30.32 0 0
30.36 0 0
30.4 0 0
30.44 0 0
30.48 0 0
30.52 0 0
30.56 0 0
30.6 0 0
30.64 0 0
30.68 0 0
30.72 0 0
30.76 0 0
30.8 0 0
30.84 0 0
30.88 0 0
30.92 0 0
30.96 0 0
31 0 0
31.04 0 0
31.08 0 0
31.12 0 0
31.16 0 0
31.2 0 0
31.24 0 0
31.28 0 0
31.32 0 0
31.36 0 0
31.4 0 0
31.44 0 0
31.48 0 0
31.52 0 0
31.56 0 0
31.6 0 0
31.64 0 0
31.68 0 0
31.72 0 0
31.76 0 0
31.8 0 0
31.84 0 0
31.88 0 0
31.92 0 0
31.96 0 0
0 0.005 0
0.04 0.005 0
0.08 0.005 0
0.12 0.005 0
0.16 0.005 0
0.2 0.005 0
0.24 0.005 0
0.28 0.005 0
0.32 0.005 0
0.36 0.005 0
0.4 0.005 0
0.44 0.005 0
0.48 0.005 0
0.52 0.005 0
0.56 0.005 0
0.6 0.005 0
0.64 0.005 0
0.68 0.005 0
0.72 0.005 0
0.76 0.005 0
0.8 0.005 0
0.84 0.005 0
0.88 0.005 0
0.92 0.005 0
0.96 0.005 0
1 0.005 0
1.04 0.005 0
1.08 0.005 0
1.12 0.005 0
1.16 0.005 0
1.2 0.005 0
1.24 0.005 0
1.28 0.005 0
1.32 0.005 0
1.36 0.005 0
1.4 0.005 0
1.44 0.005 0
1.48 0.005 0
1.52 0.005 0
1.56 0.005 0
1.6 0.005 0
1.64 0.005 0
1.68 0.005 0
1.72 0.005 0
1.76 0.005 0
1.8 0.005 0
1.84 0.005 0
1.88 0.005 0
1.92 0.005 0
1.96 0.005 0
2 0.005 0
2.04 0.005 0
2.08 0.005 0
2.12 0.005 0
2.16 0.005 0
2.2 0.005 0
2.24 0.005 0
2.28 0.005 0
2.32 0.005 0
2.36 0.005 0
2.4 0.005 0
2.44 0.005 0
2.48 0.005 0
2.52 0.005 0
2.56 0.005 0
2.6 0.005 0
2.64 0.005 0
2.68 0.005 0
2.72 0.005 0
2.76 0.005 0
2.8 0.005 0
2.84 0.005 0
2.88 0.005 0
2.92 0.005 0
2.96 0.005 0
3 0.005 0
3.04 0.005 0
3.08 0.005 0
3.12 0.005 0
3.16 0.005 0
3.2 0.005 0
3.24 0.005 0
3.28 0.005 0
3.32 0.005 0
3.36 0.005 0
3.4 0.005 0
3.44 0.005 0
3.48 0.005 0
3.52 0.005 0
3.56 0.005 0
3.6 0.005 0
3.64 0.005 0
3.68 0.005 0
3.72 0.005 0
3.76 0.005 0
3.8 0.005 0
3.84 0.005 0
3.88 0.005 0
3.92 0.005 0
3.96 0.005 0
4 0.005 0
4.04 0.005 0
4.08 0.005 0
4.12 0.005 0
4.16 0.005 0
4.2 0.005 0
4.24 0.005 0
4.28 0.005 0
4.32 0.005 0
4.36 0.005 0
4.4 0.005 0
4.44 0.005 0
4.48 0.005 0
4.52 0.005 0
4.56 0.005 0
4.6 0.005 0
4.64 0.005 0
4.68 0.005 0
4.72 0.005 0
4.76 0.005 0
4.8 0.005 0
4.84 0.005 0
4.88 0.005 0
4.92 0.005 0
4.96 0.005 0
5 0.005 0
5.04 0.005 0
5.08 0.005 0
5.12 0.005 0
5.16 0.005 0
5.2 0.005 0
5.24 0.005 0
5.28 0.005 0
5.32 0.005 0
5.36 0.005 0
5.4 0.005 0
5.44 0.005 0
5.48 0.005 0
5.52 0.005 0
5.56 0.005 0
5.6 0.005 0
5.64 0.005 0
5.68 0.005 0
5.72 0.005 0
5.76 0.005 0
5.8 0.005 0
5.84 0.005 0
5.88 0.005 0
5.92 0.005 0
5.96 0.005 0
6 0.005 0
6.04 0.005 0
6.08 0.005 0
6.12 0.005 0
6.16 0.005 0
6.2 0.005 0
6.24 0.005 0
6.28 0.005 0
6.32 0.005 0
6.36 0.005 0
6.4 0.005 0
6.44 0.005 0
6.48 0.005 0
6.52 0.005 0
6.56 0.005 0
6.6 0.005 0
6.64 0.005 0
6.68 0.005 0
6.72 0.005 0
6.76 0.005 0
6.8 0.005 0
6.84 0.005 0
6.88 0.005 0
6.92 0.005 0
6.96 0.005 0
7 0.005 0
7.04 0.005 0
7.08 0.005 0
7.12 0.005 0
7.16 0.005 0
7.2 0.005 0
7.24 0.005 0
7.28 0.005 0
7.32 0.005 0
7.36 0.005 0
7.4 0.005 0
[...]
POINT_DATA 160000

SCALARS p float 1
LOOKUP_TABLE default
1
63.7624
61.547
61.2921
61.2319
61.2055
61.1895
61.1779
61.1687
61.1608
61.1539
61.1475
61.1416
61.1361
61.1308
61.1257
61.1207
61.1159
61.1112
61.1065
61.102
61.0975
61.0931
61.0888
61.0845
61.0803
61.0762
61.072
61.068
61.064
61.06
61.0561
61.0522
61.0484
61.0446
61.0408
61.0371
61.0335
61.0298
61.0262
61.0227
61.0191
61.0156
61.0122
61.0088
61.0054
61.002
60.9987
60.9954
60.9921
60.9888
60.9856
60.9824
60.9792
60.9761
60.9729
60.9698
60.9668
60.9637
60.9607
60.9577
60.9547
60.9517
60.9488
60.9458
60.9429
60.94
60.9371
60.9343
60.9314
60.9286
60.9258
60.923
60.9202
60.9175
60.9147
60.912
60.9093
60.9066
60.9039
60.9013
60.8986
60.896
60.8933
60.8907
60.8881
60.8855
60.8829
60.8804
60.8778
60.8753
60.8727
60.8702
60.8677
60.8652
60.8627
60.8603
60.8578
60.8553
60.8529
60.8505
60.848
60.8456
60.8432
60.8408
60.8384
60.836
60.8337
60.8313
60.829
60.8266
60.8243
60.822
60.8196
60.8173
60.815
60.8127
60.8104
60.8082
60.8059
60.8036
60.8014
60.7991
60.7969
60.7946
60.7924
60.7902
60.788
60.7858
60.7836
60.7814
60.7792
60.777
60.7748
60.7727
60.7705
60.7684
60.7662
60.7641
60.7619
60.7598
60.7577
60.7555
60.7534
60.7513
60.7492
60.7471
60.745
60.7429
60.7409
60.7388
60.7367
60.7346
60.7326
60.7305
60.7285
60.7264
60.7244
60.7223
60.7203
60.7183
60.7163
60.7142
60.7122
60.7102
60.7082
60.7062
60.7042
60.7022
60.7002
60.6982
60.6963
60.6943
60.6923
60.6903
60.6884
60.6864
60.6845
60.6825
60.6806
60.6786
60.6767
60.6748
60.6728
60.6709
60.669
60.667
60.6651
60.6632
60.6613
60.6594
60.6575
60.6556
60.6537
60.6518
60.6499
60.648
60.6461
60.6442
60.6424
60.6405
60.6386
60.6367
60.6349
60.633
60.6312
60.6293
60.6274
60.6256
60.6237
60.6219
60.6201
60.6182
60.6164
60.6145
60.6127
60.6109
60.6091
60.6072
60.6054
60.6036
60.6018
60.6
60.5981
60.5963
60.5945
60.5927
60.5909
60.5891
60.5873
60.5855
60.5837
60.5819
60.5802
60.5784
60.5766
60.5748
60.573
60.5713
60.5695
60.5677
60.5659
60.5642
60.5624
60.5606
60.5589
60.5571
60.5554
60.5536
60.5518
60.5501
60.5483
60.5466
60.5448
60.5431
60.5414
60.5396
60.5379
60.5361
60.5344
60.5327
60.5309
60.5292
60.5275
60.5257
60.524
60.5223
60.5206
60.5188
60.5171
60.5154
60.5137
60.512
60.5103
60.5085
60.5068
60.5051
60.5034
60.5017
60.5
60.4983
60.4966
60.4949
60.4932
60.4915
60.4898
60.4881
60.4864
60.4847
60.483
60.4814
60.4797
60.478
60.4763
60.4746
60.4729
60.4712
60.4696
60.4679
60.4662
60.4645
60.4629
60.4612
60.4595
60.4578
60.4562
60.4545
60.4528
60.4512
60.4495
60.4478
60.4462
60.4445
60.4428
60.4412
60.4395
60.4379
60.4362
60.4345
60.4329
60.4312
60.4296
60.4279
60.4263
60.4246
60.423
60.4213
60.4197
60.418
60.4164
60.4147
60.4131
60.4114
60.4098
60.4081
60.4065
60.4049
60.4032
60.4016
60.3999
60.3983
60.3967
60.395
60.3934
60.3918
60.3901
60.3885
60.3869
60.3852
60.3836
60.382
60.3803
60.3787
60.3771
60.3755
60.3738
60.3722
60.3706
60.369
60.3673
60.3657
60.3641
60.3625
60.3609
60.3592
60.3576
60.356
60.3544
60.3528
60.3511
60.3495
60.3479
60.3463
60.3447
60.3431
60.3414
60.3398
60.3382
60.3366
60.335
60.3334
60.3318
60.3302
60.3286
60.327
60.3253
60.3237
60.3221
60.3205
60.3189
60.3173
60.3157
60.3141
60.3125
60.3109
60.3093
60.3077
60.3061
60.3045
60.3029
60.3013
60.2997
60.2981
60.2965
60.2949
60.2933
60.2917
60.2901
60.2885
60.2869
60.2853
60.2837
60.2821
60.2805
60.2789
60.2773
60.2757
60.2741
60.2725
60.271
60.2694
60.2678
60.2662
60.2646
60.263
60.2614
60.2598
60.2582
60.2566
60.255
60.2535
60.2519
60.2503
60.2487
60.2471
60.2455
60.2439
60.2423
60.2408
60.2392
60.2376
60.236
60.2344
60.2328
60.2312
60.2297
60.2281
60.2265
60.2249
60.2233
60.2217
60.2202
60.2186
60.217
60.2154
60.2138
60.2123
60.2107
60.2091
60.2075
60.2059
60.2044
60.2028
60.2012
60.1996
60.198
60.1965
60.1949
60.1933
60.1917
60.1902
60.1886
60.187
60.1854
60.1839
60.1823
60.1807
60.1791
60.1776
60.176
60.1744
60.1728
60.1713
60.1697
60.1681
60.1665
60.165
60.1634
60.1618
60.1602
60.1587
60.1571
60.1555
60.1539
60.1524
60.1508
60.1492
60.1477
60.1461
60.1445
60.1429
60.1414
60.1398
60.1382
60.1367
60.1351
60.1335
60.132
60.1304
60.1288
60.1273
60.1257
60.1241
60.1225
60.121
60.1194
60.1178
60.1163
60.1147
60.1131
60.1116
60.11
60.1084
60.1069
60.1053
60.1037
60.1022
60.1006
60.099
60.0975
60.0959
60.0943
60.0928
60.0912
60.0896
60.0881
60.0865
60.085
60.0834
60.0818
60.0803
60.0787
60.0771
60.0756
60.074
60.0724
60.0709
60.0693
60.0677
60.0662
60.0646
60.0631
60.0615
60.0599
60.0584
60.0568
60.0552
60.0537
60.0521
60.0506
60.049
60.0474
60.0459
60.0443
60.0428
60.0412
60.0396
60.0381
60.0365
60.0349
60.0334
60.0318
60.0303
60.0287
60.0271
60.0256
60.024
60.0225
60.0209
60.0193
60.0178
60.0162
60.0147
60.0131
60.0115
60.01
60.0084
60.0069
60.0053
60.0038
60.0022
60.0006
59.9991
59.9975
59.996
59.9944
59.9928
59.9913
59.9897
59.9882
59.9866
59.9851
59.9835
59.9819
59.9804
59.9788
59.9773
59.9757
59.9741
59.9726
59.971
59.9695
59.9679
59.9664
59.9648
59.9633
59.9617
59.9601
59.9586
59.957
59.9555
59.9539
59.9524
59.9508
59.9492
59.9477
59.9461
59.9446
59.943
59.9415
59.9399
59.9384
59.9368
59.9352
59.9337
59.9321
59.9306
59.929
59.9275
59.9259
59.9244
59.9228
59.9213
59.9197
59.9181
59.9166
59.915
59.9135
59.9119
59.9104
59.9088
59.9073
59.9057
59.9042
59.9026
59.9011
59.8995
59.8979
59.8964
59.8948
59.8933
59.8917
59.8902
59.8886
59.8871
59.8855
59.884
59.8824
59.8809
59.8793
59.8778
59.8762
59.8746
59.8731
59.8715
59.87
59.8684
59.8669
59.8653
59.8638
59.8622
59.8607
59.8591
59.8576
59.856
59.8545
59.8529
59.8514
59.8498
59.8483
59.8467
59.8452
59.8436
59.8421
59.8405
59.839
59.8374
59.8358
59.8343
59.8327
59.8312
59.8296
59.8281
59.8265
59.825
59.8234
59.8219
59.8203
59.8188
59.8172
59.8157
59.8141
59.8126
59.811
59.8095
59.8079
59.8064
59.8048
59.8033
59.8017
59.8002
59.7986
59.7971
59.7955
59.794
59.7924
59.7909
59.7893
59.7878
59.7862
59.7847
59.7831
59.7816
59.78
59.7785
59.7769
59.7754
59.7738
59.7723
59.7707
59.7692
59.7676
59.7661
59.7645
59.763
59.7614
59.7599
59.7583
59.7568
59.7553
59.7537
59.7522
59.7506
59.7491
59.7475
59.746
59.7444
59.7429
59.7413
59.7398
59.7382
59.7367
59.7351
59.7336
59.732
59.7305
59.7289
59.7274
59.7258
59.7243
59.7227
59.7212
59.7196
59.7181
59.7165
59.715
59.7135
59.7119
59.7104
59.7088
59.7073
59.7057
59.7042
59.7026
59.7011
59.6995
59.698
59.6964
59.6949
59.6933
59.6918
59.6902
59.6887
59.6872
59.6856
59.6841
59.6825
59.681
59.6794
1
63.7624
63.7624
61.547
61.2921
61.2319
61.2055
61.1895
61.1779
61.1687
61.1608
61.1539
61.1475
61.1416
61.1361
61.1308
61.1257
61.1207
61.1159
61.1112
61.1065
61.102
61.0975
61.0931
61.0888
61.0845
61.0803
61.0762
61.072
61.068
61.064
61.06
61.0561
61.0522
61.0484
61.0446
61.0408
61.0371
61.0335
61.0298
61.0262
61.0227
61.0191
61.0156
61.0122
61.0088
61.0054
61.002
60.9987
60.9954
60.9921
60.9888
60.9856
60.9824
60.9792
60.9761
60.9729
60.9698
60.9668
60.9637
60.9607
60.9577
60.9547
60.9517
60.9488
60.9458
60.9429
60.94
60.9371
60.9343
60.9314
60.9286
60.9258
60.923
60.9202
60.9175
60.9147
60.912
60.9093
60.9066
60.9039
60.9013
60.8986
60.896
60.8933
60.8907
60.8881
60.8855
60.8829
60.8804
60.8778
60.8753
60.8727
60.8702
60.8677
60.8652
60.8627
60.8603
60.8578
60.8553
60.8529
60.8505
60.848
60.8456
60.8432
60.8408
60.8384
60.836
60.8337
60.8313
60.829
60.8266
60.8243
60.822
60.8196
60.8173
60.815
60.8127
60.8104
60.8082
60.8059
60.8036
60.8014
60.7991
60.7969
60.7946
60.7924
60.7902
60.788
60.7858
60.7836
60.7814
60.7792
60.777
60.7748
60.7727
60.7705
60.7684
60.7662
60.7641
60.7619
60.7598
60.7577
60.7555
60.7534
60.7513
60.7492
60.7471
60.745
60.7429
60.7409
60.7388
60.7367
60.7346
60.7326
60.7305
60.7285
60.7264
60.7244
60.7223
60.7203
60.7183
60.7163
60.7142
60.7122
60.7102
60.7082
60.7062
60.7042
60.7022
60.7002
60.6982
60.6963
60.6943
60.6923
60.6903
60.6884
60.6864
60.6845
60.6825
60.6806
60.6786
60.6767
60.6748
60.6728
60.6709
60.669
60.667
60.6651
60.6632
60.6613
60.6594
60.6575
60.6556
60.6537
60.6518
60.6499
60.648
60.6461
60.6442
60.6424
60.6405
60.6386
60.6367
60.6349
60.633
60.6312
60.6293
60.6274
60.6256
60.6237
60.6219
60.6201
60.6182
60.6164
60.6145
60.6127
60.6109
60.6091
60.6072
60.6054
60.6036
60.6018
60.6
60.5981
60.5963
60.5945
60.5927
60.5909
60.5891
60.5873
60.5855
60.5837
60.5819
60.5802
60.5784
60.5766
60.5748
60.573
60.5713
60.5695
60.5677
60.5659
60.5642
60.5624
60.5606
60.5589
60.5571
60.5554
60.5536
60.5518
60.5501
60.5483
60.5466
60.5448
60.5431
60.5414
60.5396
60.5379
60.5361
60.5344
60.5327
60.5309
60.5292
60.5275
60.5257
60.524
60.5223
60.5206
60.5188
60.5171
60.5154
60.5137
60.512
60.5103
60.5085
60.5068
60.5051
60.5034
60.5017
60.5
60.4983
60.4966
60.4949
60.4932
60.4915
60.4898
60.4881
60.4864
60.4847
60.483
60.4814
60.4797
60.478
60.4763
60.4746
60.4729
60.4712
60.4696
60.4679
60.4662
60.4645
60.4629
60.4612
60.4595
60.4578
60.4562
60.4545
60.4528
60.4512
60.4495
60.4478
60.4462
60.4445
60.4428
60.4412
60.4395
60.4379
60.4362
60.4345
60.4329
60.4312
60.4296
60.4279
60.4263
60.4246
60.423
60.4213
60.4197
60.418
60.4164
60.4147
60.4131
60.4114
60.4098
60.4081
60.4065
60.4049
60.4032
60.4016
60.3999
60.3983
60.3967
60.395
60.3934
60.3918
60.3901
60.3885
60.3869
60.3852
60.3836
60.382
60.3803
60.3787
60.3771
60.3755
60.3738
60.3722
60.3706
60.369
60.3673
60.3657
60.3641
60.3625
60.3609
60.3592
60.3576
60.356
60.3544
60.3528
60.3511
60.3495
60.3479
60.3463
60.3447
60.3431
60.3414
60.3398
60.3382
60.3366
60.335
60.3334
60.3318
60.3302
60.3286
60.327
60.3253
60.3237
60.3221
60.3205
60.3189
60.3173
60.3157
60.3141
60.3125
60.3109
60.3093
60.3077
60.3061
60.3045
60.3029
60.3013
60.2997
60.2981
60.2965
60.2949
60.2933
60.2917
60.2901
60.2885
60.2869
60.2853
60.2837
60.2821
60.2805
60.2789
60.2773
60.2757
60.2741
60.2725
60.271
60.2694
60.2678
60.2662
60.2646
60.263
60.2614
60.2598
60.2582
60.2566
60.255
60.2535
60.2519
60.2503
60.2487
60.2471
60.2455
60.2439
60.2423
60.2408
60.2392
60.2376
60.236
60.2344
60.2328
60.2312
60.2297
60.2281
60.2265
60.2249
60.2233
60.2217
60.2202
60.2186
60.217
60.2154
60.2138
60.2123
60.2107
60.2091
60.2075
60.2059
60.2044
60.2028
60.2012
60.1996
60.198
60.1965
60.1949
60.1933
60.1917
60.1902
60.1886
60.187
60.1854
60.1839
60.1823
60.1807
60.1791
60.1776
60.176
60.1744
60.1728
60.1713
60.1697
60.1681
60.1665
60.165
60.1634
60.1618
60.1602
60.1587
60.1571
60.1555
60.1539
60.1524
60.1508
60.1492
60.1477
60.1461
60.1445
60.1429
60.1414
60.1398
60.1382
60.1367
60.1351
60.1335
60.132
60.1304
60.1288
60.1273
60.1257
60.1241
60.1225
60.121
60.1194
60.1178
60.1163
60.1147
60.1131
60.1116
60.11
60.1084
60.1069
60.1053
60.1037
60.1022
60.1006
60.099
60.0975
60.0959
60.0943
60.0928
60.0912
60.0896
60.0881
60.0865
60.085
60.0834
60.0818
60.0803
60.0787
60.0771
60.0756
60.074
60.0724
60.0709
60.0693
60.0677
60.0662
60.0646
60.0631
60.0615
60.0599
60.0584
60.0568
60.0552
60.0537
60.0521
60.0506
60.049
60.0474
60.0459
60.0443
60.0428
60.0412
60.0396
60.0381
60.0365
60.0349
60.0334
60.0318
60.0303
60.0287
60.0271
60.0256
60.024
60.0225
60.0209
60.0193
60.0178
60.0162
60.0147
60.0131
60.0115
60.01
60.0084
60.0069
60.0053
60.0038
60.0022
60.0006
59.9991
59.9975
59.996
59.9944
59.9928
59.9913
59.9897
59.9882
59.9866
59.9851
59.9835
59.9819
59.9804
59.9788
59.9773
59.9757
59.9741
59.9726
59.971
59.9695
59.9679
59.9664
59.9648
59.9633
59.9617
59.9601
59.9586
59.957
59.9555
59.9539
59.9524
59.9508
59.9492
59.9477
59.9461
59.9446
59.943
59.9415
59.9399
59.9384
59.9368
59.9352
59.9337
59.9321
59.9306
59.929
59.9275
59.9259
59.9244
59.9228
59.9213
59.9197
59.9181
59.9166
59.915
59.9135
59.9119
59.9104
59.9088
59.9073
59.9057
59.9042
59.9026
59.9011
59.8995
59.8979
59.8964
59.8948
59.8933
59.8917
59.8902
59.8886
59.8871
59.8855
59.884
59.8824
59.8809
59.8793
59.8778
59.8762
59.8746
59.8731
59.8715
59.87
59.8684
59.8669
59.8653
59.8638
59.8622
59.8607
59.8591
59.8576
59.856
59.8545
59.8529
59.8514
59.8498
59.8483
59.8467
59.8452
59.8436
59.8421
59.8405
59.839
59.8374
59.8358
59.8343
59.8327
59.8312
59.8296
59.8281
59.8265
59.825
59.8234
59.8219
59.8203
59.8188
59.8172
59.8157
59.8141
59.8126
59.811
59.8095
59.8079
59.8064
59.8048
59.8033
59.8017
59.8002
59.7986
59.7971
59.7955
59.794
59.7924
59.7909
59.7893
59.7878
59.7862
59.7847
59.7831
59.7816
59.78
59.7785
59.7769
59.7754
59.7738
59.7723
59.7707
59.7692
59.7676
59.7661
59.7645
59.763
59.7614
59.7599
59.7583
59.7568
59.7553
59.7537
59.7522
59.7506
59.7491
59.7475
59.746
59.7444
59.7429
59.7413
59.7398
59.7382
59.7367
59.7351
59.7336
59.732
59.7305
59.7289
59.7274
59.7258
59.7243
59.7227
59.7212
59.7196
59.7181
59.7165
59.715
59.7135
59.7119
59.7104
59.7088
59.7073
59.7057
59.7042
59.7026
59.7011
59.6995
59.698
59.6964
59.6949
59.6933
59.6918
59.6902
59.6887
59.6872
59.6856
59.6841
59.6825
59.681
59.6794
59.6794
63.1154
63.1154
61.5574
61.3016
61.2361
61.2078
61.1909
61.1789
61.1694
61.1614
61.1543
61.1479
61.1419
61.1363
61.131
61.1259
61.1209
61.116
61.1113
61.1067
61.1021
61.0976
61.0932
61.0889
61.0846
61.0804
61.0762
61.0721
61.068
61.064
61.0601
61.0561
61.0523
61.0484
61.0446
61.0409
61.0372
61.0335
61.0299
61.0263
61.0227
61.0192
61.0157
61.0122
61.0088
61.0054
61.002
60.9987
60.9954
60.9921
60.9888
60.9856
60.9824
60.9792
60.9761
60.973
60.9699
60.9668
60.9637
60.9607
60.9577
60.9547
60.9517
60.9488
60.9458
60.9429
60.94
60.9372
60.9343
60.9315
60.9286
60.9258
60.923
60.9203
60.9175
60.9148
60.912
60.9093
60.9066
60.9039
60.9013
60.8986
60.896
60.8933
60.8907
60.8881
60.8855
60.883
60.8804
60.8778
60.8753
60.8728
60.8702
60.8677
60.8652
60.8627
60.8603
60.8578
60.8553
60.8529
60.8505
60.848
60.8456
60.8432
60.8408
60.8384
60.8361
60.8337
60.8313
60.829
60.8266
60.8243
60.822
60.8196
60.8173
60.815
60.8127
60.8104
60.8082
60.8059
60.8036
60.8014
60.7991
60.7969
60.7947
60.7924
60.7902
60.788
60.7858
60.7836
60.7814
60.7792
60.777
60.7748
60.7727
60.7705
60.7684
60.7662
60.7641
60.7619
60.7598
60.7577
60.7555
60.7534
60.7513
60.7492
60.7471
60.745
60.7429
60.7409
60.7388
60.7367
60.7346
60.7326
60.7305
60.7285
60.7264
60.7244
60.7223
60.7203
60.7183
60.7163
60.7142
60.7122
60.7102
60.7082
60.7062
60.7042
60.7022
60.7002
60.6982
60.6963
60.6943
60.6923
60.6904
60.6884
60.6864
60.6845
60.6825
60.6806
60.6786
60.6767
60.6748
60.6728
60.6709
60.669
60.667
60.6651
60.6632
60.6613
60.6594
60.6575
60.6556
60.6537
60.6518
60.6499
60.648
60.6461
60.6442
60.6424
60.6405
60.6386
60.6368
60.6349
60.633
60.6312
60.6293
60.6275
60.6256
60.6238
60.6219
60.6201
60.6182
60.6164
60.6145
60.6127
60.6109
60.6091
60.6072
60.6054
60.6036
60.6018
60.6
60.5982
60.5963
60.5945
60.5927
60.5909
60.5891
60.5873
60.5855
60.5837
60.582
60.5802
60.5784
60.5766
60.5748
60.573
60.5713
60.5695
60.5677
60.5659
60.5642
60.5624
60.5606
60.5589
60.5571
60.5554
60.5536
60.5518
60.5501
60.5483
60.5466
60.5448
60.5431
60.5414
60.5396
60.5379
60.5361
60.5344
60.5327
60.5309
60.5292
60.5275
60.5257
60.524
60.5223
60.5206
60.5188
60.5171
60.5154
60.5137
60.512
60.5103
60.5086
60.5068
60.5051
60.5034
60.5017
60.5
60.4983
60.4966
60.4949
60.4932
60.4915
60.4898
60.4881
60.4864
60.4847
60.483
60.4814
60.4797
60.478
60.4763
60.4746
60.4729
60.4713
60.4696
60.4679
60.4662
60.4645
60.4629
60.4612
60.4595
60.4578
60.4562
60.4545
60.4528
60.4512
60.4495
60.4478
60.4462
60.4445
60.4428
60.4412
60.4395
60.4379
60.4362
60.4345
60.4329
60.4312
60.4296
60.4279
60.4263
60.4246
60.423
60.4213
60.4197
60.418
60.4164
60.4147
60.4131
60.4114
60.4098
60.4082
60.4065
60.4049
60.4032
60.4016
60.4
60.3983
60.3967
60.395
60.3934
60.3918
60.3901
60.3885
60.3869
60.3852
60.3836
60.382
60.3804
60.3787
60.3771
60.3755
60.3738
60.3722
60.3706
60.369
60.3673
60.3657
60.3641
60.3625
60.3609
60.3592
60.3576
60.356
60.3544
60.3528
60.3511
60.3495
60.3479
60.3463
60.3447
60.3431
60.3415
60.3398
60.3382
60.3366
60.335
60.3334
60.3318
60.3302
60.3286
60.327
60.3253
60.3237
60.3221
60.3205
60.3189
60.3173
60.3157
60.3141
60.3125
60.3109
60.3093
60.3077
60.3061
60.3045
60.3029
60.3013
60.2997
60.2981
60.2965
60.2949
60.2933
60.2917
60.2901
60.2885
60.2869
60.2853
60.2837
60.2821
60.2805
60.2789
60.2773
60.2757
60.2741
60.2725
60.271
60.2694
60.2678
60.2662
60.2646
60.263
60.2614
60.2598
60.2582
60.2566
60.255
60.2535
60.2519
60.2503
60.2487
60.2471
60.2455
60.2439
60.2423
60.2408
60.2392
60.2376
60.236
60.2344
60.2328
60.2313
60.2297
60.2281
60.2265
60.2249
60.2233
60.2218
60.2202
60.2186
60.217
60.2154
60.2138
60.2123
60.2107
60.2091
60.2075
60.2059
60.2044
60.2028
60.2012
60.1996
60.1981
60.1965
60.1949
60.1933
60.1917
60.1902
60.1886
60.187
60.1854
60.1839
60.1823
60.1807
60.1791
60.1776
60.176
60.1744
60.1728
60.1713
60.1697
60.1681
60.1665
60.165
60.1634
60.1618
60.1602
60.1587
60.1571
60.1555
60.154
60.1524
60.1508
60.1492
60.1477
60.1461
60.1445
60.143
60.1414
60.1398
60.1382
60.1367
60.1351
60.1335
60.132
60.1304
60.1288
60.1273
60.1257
60.1241
60.1225
60.121
60.1194
60.1178
60.1163
60.1147
60.1131
60.1116
60.11
60.1084
60.1069
60.1053
60.1037
60.1022
60.1006
60.099
60.0975
60.0959
60.0943
60.0928
60.0912
60.0896
60.0881
60.0865
60.085
60.0834
60.0818
60.0803
60.0787
60.0771
60.0756
60.074
60.0724
60.0709
60.0693
60.0678
60.0662
60.0646
60.0631
60.0615
60.0599
60.0584
60.0568
60.0552
60.0537
60.0521
60.0506
60.049
60.0474
60.0459
60.0443
60.0428
60.0412
60.0396
60.0381
60.0365
60.0349
60.0334
60.0318
60.0303
60.0287
60.0271
60.0256
60.024
60.0225
60.0209
60.0193
60.0178
60.0162
60.0147
60.0131
60.0115
60.01
60.0084
60.0069
60.0053
60.0038
60.0022
60.0006
59.9991
59.9975
59.996
59.9944
59.9928
59.9913
59.9897
59.9882
59.9866
59.9851
59.9835
59.9819
59.9804
59.9788
59.9773
59.9757
59.9742
59.9726
59.971
59.9695
59.9679
59.9664
59.9648
59.9633
59.9617
59.9601
59.9586
59.957
59.9555
59.9539
59.9524
59.9508
59.9493
59.9477
59.9461
59.9446
59.943
59.9415
59.9399
59.9384
59.9368
59.9353
59.9337
59.9321
59.9306
59.929
59.9275
59.9259
59.9244
59.9228
59.9213
59.9197
59.9181
59.9166
59.915
59.9135
59.9119
59.9104
59.9088
59.9073
59.9057
59.9042
59.9026
59.9011
59.8995
59.8979
59.8964
59.8948
59.8933
59.8917
59.8902
59.8886
59.8871
59.8855
59.884
59.8824
59.8809
59.8793
59.8778
59.8762
59.8747
59.8731
59.8715
59.87
59.8684
59.8669
59.8653
59.8638
59.8622
59.8607
59.8591
59.8576
59.856
59.8545
59.8529
59.8514
59.8498
59.8483
59.8467
59.8452
59.8436
59.8421
59.8405
59.839
59.8374
59.8359
59.8343
59.8328
59.8312
59.8296
59.8281
59.8265
59.825
59.8234
59.8219
59.8203
59.8188
59.8172
59.8157
59.8141
59.8126
59.811
59.8095
59.8079
59.8064
59.8048
59.8033
59.8017
59.8002
59.7986
59.7971
59.7955
59.794
59.7924
59.7909
59.7893
59.7878
59.7862
59.7847
59.7831
59.7816
59.78
59.7785
59.7769
59.7754
59.7738
59.7723
59.7707
59.7692
59.7676
59.7661
59.7645
59.763
59.7615
59.7599
59.7584
59.7568
59.7553
59.7537
59.7522
59.7506
59.7491
59.7475
59.746
59.7444
59.7429
59.7413
59.7398
59.7382
59.7367
59.7351
59.7336
59.732
59.7305
59.7289
59.7274
59.7258
59.7243
59.7227
59.7212
59.7196
59.7181
59.7166
59.715
59.7135
59.7119
59.7104
59.7088
59.7073
59.7057
59.7042
59.7026
59.7011
59.6995
59.698
59.6964
59.6949
59.6933
59.6918
59.6902
59.6887
59.6872
59.6856
59.6841
59.6825
59.681
59.6794
59.6794
62.4259
62.4259
61.5415
61.3083
61.2397
61.2098
61.1922
61.1798
61.1701
61.1619
61.1547
61.1482
61.1422
61.1366
61.1312
61.126
61.121
61.1162
61.1114
61.1068
61.1022
61.0977
61.0933
61.089
61.0847
61.0805
61.0763
61.0722
61.0681
61.0641
61.0601
61.0562
61.0523
61.0485
61.0447
61.0409
61.0372
61.0335
61.0299
61.0263
61.0227
61.0192
61.0157
61.0122
61.0088
61.0054
61.002
60.9987
60.9954
60.9921
60.9889
60.9856
60.9824
60.9793
60.9761
60.973
60.9699
60.9668
60.9637
60.9607
60.9577
60.9547
60.9517
60.9488
60.9459
60.9429
60.94
60.9372
60.9343
60.9315
60.9286
60.9258
60.9231
60.9203
60.9175
60.9148
60.912
60.9093
60.9066
60.904
60.9013
60.8986
60.896
60.8934
60.8907
60.8881
60.8855
60.883
60.8804
60.8778
60.8753
60.8728
60.8702
60.8677
60.8652
60.8628
60.8603
60.8578
60.8554
60.8529
60.8505
60.848
60.8456
60.8432
60.8408
60.8384
60.8361
60.8337
60.8313
60.829
60.8266
60.8243
60.822
60.8196
60.8173
60.815
60.8127
60.8105
60.8082
60.8059
60.8036
60.8014
60.7991
60.7969
60.7947
60.7924
60.7902
60.788